G6NPncore-PETIM betagalactose in water
281460
    1aaa     N1    1   7.718   7.851   9.020  0.7846 -0.2816 -0.2006
    1aaa     C1    2   7.661   7.927   9.137  0.0221  0.1666  0.1792
    1aaa     H1    3   7.569   7.976   9.102  1.8850  2.8341 -1.2896
    1aaa     H2    4   7.648   7.850   9.214  1.6988 -1.0872 -0.7410
    1aaa     C2    5   7.714   7.927   8.892  0.6526 -0.0773 -0.5007
    1aaa     H3    6   7.620   7.983   8.883  0.4237 -0.8206 -3.8038
    1aaa     H4    7   7.792   8.004   8.896  0.7452 -0.1467 -0.9618
    1aaa     C3    8   7.840   7.777   9.051 -0.0393 -0.0301 -0.4452
    1aaa     H5    9   7.839   7.743   9.155 -1.0688  1.0710 -0.0740
    1aaa     H6   10   7.827   7.685   8.992  1.0032 -0.5874  0.1722
    1aaa     C4   11   7.971   7.847   9.012  0.1608  0.0883 -0.1246
    1aaa     H7   12   7.968   7.873   8.905  1.2047 -0.8562 -0.3961
    1aaa     H8   13   7.982   7.946   9.058 -0.5621  0.5008 -0.8046
    1aaa     C5   14   7.753   8.035   9.193 -0.0795  0.1274 -0.2030
    1aaa     H9   15   7.841   7.983   9.232  0.0393 -0.9307 -1.7585
    1aaa    H10   16   7.796   8.089   9.107 -1.9827  0.6040 -0.9005
    1aaa     C6   17   7.725   7.830   8.773 -0.1601  0.6685  0.1875
    1aaa    H11   18   7.760   7.887   8.686  3.4561 -0.2429  0.8719
    1aaa    H12   19   7.805   7.756   8.785  0.1913  1.2627  1.7677
    1aaa     C7   20   7.589   7.762   8.737 -1.0297 -0.3603  0.3154
    1aaa    H13   21   7.560   7.696   8.819  0.8233  1.9996  3.0516
    1aaa    H14   22   7.517   7.843   8.723 -0.1424  0.3824 -0.0530
    1aaa     C8   23   8.090   7.758   9.043  0.4336 -0.0920 -0.1375
    1aaa    H15   24   8.130   7.783   9.142 -3.1759  2.7303  0.8421
    1aaa    H16   25   8.054   7.654   9.048  0.7208 -0.2390 -0.9995
    1aaa     C9   26   7.690   8.141   9.285  0.6330 -0.6247 -0.2981
    1aaa    H17   27   7.751   8.231   9.295 -0.4652  0.0235  0.8626
    1aaa    H18   28   7.600   8.176   9.232  1.0511  1.6588  0.3835
    2bbb     N1   29   7.520   7.317   8.362 -0.8786  0.2642 -0.2022
    2bbb     C1   30   7.372   7.310   8.328 -0.1497  1.1733  0.0334
    2bbb     H1   31   7.352   7.225   8.263 -1.6051  1.9061 -0.5335
    2bbb     H2   32   7.327   7.390   8.268 -1.5430 -0.7753 -1.6381
    2bbb     C2   33   7.572   7.191   8.421  0.2264 -0.1164 -0.4310
    2bbb     H3   34   7.520   7.172   8.515  3.7080  0.3198  1.7692
    2bbb     H4   35   7.675   7.197   8.458  0.1603 -0.8971 -0.1010
    2bbb     C3   36   7.543   7.425   8.464 -0.0726 -0.2761  0.4985
    2bbb     H5   37   7.644   7.423   8.506  0.5596  0.0911 -0.9291
    2bbb     H6   38   7.479   7.405   8.550  0.2671  2.0682  1.3655
    2bbb     C4   39   7.513   7.575   8.426 -0.4931  0.2602 -0.2977
    2bbb     H7   40   7.426   7.578   8.358 -0.4304  1.5035 -0.3470
    2bbb     H8   41   7.604   7.617   8.381  0.9370 -0.0688  2.1132
    2bbb     C5   42   7.273   7.284   8.447 -0.2468 -0.9138 -0.1214
    2bbb     H9   43   7.322   7.257   8.541  0.9451 -0.7208 -0.6662
    2bbb    H10   44   7.216   7.198   8.409 -1.1042 -0.1686 -0.5891
    2bbb     C6   45   7.570   7.066   8.326  0.3207  0.2687  0.3759
    2bbb    H11   46   7.595   7.101   8.225 -1.4985 -0.3489 -0.3187
    2bbb    H12   47   7.466   7.033   8.337  0.1698  1.0369  1.4601
    2bbb     C7   48   7.478   7.664   8.548  0.2167  0.0616 -0.8170
    2bbb    H13   49   7.427   7.605   8.625  1.5639  0.0600  0.0976
    2bbb    H14   50   7.418   7.755   8.536 -0.1580 -0.0321  0.2166
    2bbb     C8   51   7.661   6.954   8.365 -0.0998  0.4517  0.1964
    2bbb    H15   52   7.641   6.921   8.468  1.5526  0.3096  0.5027
    2bbb    H16   53   7.763   6.992   8.376 -0.2184  1.2475 -1.2689
    2bbb     C9   54   7.174   7.405   8.463 -0.7255 -0.3976  0.0920
    2bbb    H17   55   7.135   7.431   8.364  0.2622  0.0757 -0.1835
    2bbb    H18   56   7.219   7.493   8.511  1.1564 -1.0728 -0.3580
    2bbb     O1   57   7.599   7.697   8.613 -0.1240 -0.1635  0.0527
    3bbb     N1   58   8.522   7.703   8.675  0.0232 -0.3224  0.0639
    3bbb     C1   59   8.511   7.661   8.537 -0.1925  0.1347 -0.1809
    3bbb     H1   60   8.603   7.695   8.487 -0.0933  1.5394  0.8872
    3bbb     H2   61   8.437   7.724   8.487  0.8477  1.9272  0.4629
    3bbb     C2   62   8.646   7.668   8.743 -0.1415 -0.0740 -0.2516
    3bbb     H3   63   8.649   7.558   8.745 -0.8246 -0.1043 -0.7357
    3bbb     H4   64   8.637   7.720   8.839 -0.6028 -1.8579  0.7342
    3bbb     C3   65   8.415   7.675   8.765 -0.1518  0.0418  0.0165
    3bbb     H5   66   8.435   7.727   8.859  0.2302  0.3836 -0.2449
    3bbb     H6   67   8.407   7.567   8.781  1.1873 -0.2048 -0.7757
    3bbb     C4   68   8.276   7.722   8.721 -0.0818 -0.7887  0.0865
    3bbb     H7   69   8.238   7.682   8.626  0.8809  0.0839 -0.7091
    3bbb     H8   70   8.274   7.831   8.708  0.3152 -0.0340  4.7968
    3bbb     C5   71   8.485   7.513   8.511 -0.0064  0.6065 -0.9088
    3bbb     H9   72   8.399   7.477   8.570  0.6639  1.3691  0.5882
    3bbb    H10   73   8.574   7.459   8.543 -0.8226 -0.5040 -0.4422
    3bbb     C6   74   8.781   7.723   8.669 -0.1898 -0.6365 -0.7231
    3bbb    H11   75   8.767   7.827   8.637  1.7914 -0.4694 -1.2042
    3bbb    H12   76   8.802   7.671   8.575 -0.7774  0.1213 -1.2899
    3bbb     C7   77   8.166   7.693   8.819 -0.0491 -0.2770 -0.1587
    3bbb    H13   78   8.160   7.587   8.847  0.5666 -0.7607 -1.7260
    3bbb    H14   79   8.074   7.721   8.765  1.0445 -1.8327 -3.0960
    3bbb     C8   80   8.908   7.728   8.763 -0.2732 -0.3268 -0.0938
    3bbb    H15   81   8.930   7.831   8.793 -0.3583 -0.6272  1.0511
    3bbb    H16   82   8.989   7.684   8.704 -0.3128 -0.3424 -0.1368
    3bbb     C9   83   8.467   7.489   8.357  0.3220  0.9300  0.0102
    3bbb    H17   84   8.547   7.526   8.292 -0.0546 -1.8343 -2.2681
    3bbb    H18   85   8.380   7.547   8.324 -0.1509 -0.0475 -0.5094
    3bbb     O1   86   8.189   7.770   8.945  0.1411 -0.2361 -0.6139
    4bbb     N1   87   7.634   7.820   9.757 -0.1462  0.4439 -0.4360
    4bbb     C1   88   7.699   7.904   9.857  0.4553 -0.6156  0.4752
    4bbb     H1   89   7.689   7.878   9.963  0.0896  1.6242  1.0613
    4bbb     H2   90   7.651   8.003   9.861 -0.9144 -1.2882  1.6472
    4bbb     C2   91   7.508   7.762   9.812  0.2531 -0.1017 -0.3426
    4bbb     H3   92   7.437   7.845   9.802  3.3496  2.9714  1.0936
    4bbb     H4   93   7.527   7.734   9.916 -0.1317  1.7318  0.2510
    4bbb     C3   94   7.631   7.865   9.612  0.1447 -0.5012 -0.2158
    4bbb     H5   95   7.589   7.786   9.549  1.7785 -1.1079 -0.5869
    4bbb     H6   96   7.732   7.885   9.574 -0.8275  0.0467 -2.7365
    4bbb     C4   97   7.550   7.994   9.588  0.8261 -0.5670  0.0677
    4bbb     H7   98   7.587   8.076   9.651  0.0598 -2.5309  3.3111
    4bbb     H8   99   7.448   7.974   9.622  1.7689 -2.5817  1.9007
    4bbb     C5  100   7.852   7.912   9.834 -0.4215 -0.0856 -0.0105
    4bbb     H9  101   7.891   7.835   9.766  2.7758  1.8573 -0.5956
    4bbb    H10  102   7.896   7.890   9.932  0.2942  0.0365 -0.2974
    4bbb     C6  103   7.457   7.636   9.731 -0.2410  0.1848  0.0694
    4bbb    H11  104   7.535   7.558   9.729  1.1095  1.4441  0.8346
    4bbb    H12  105   7.434   7.658   9.627  0.7220 -0.5719 -0.3291
    4bbb     C7  106   7.544   8.042   9.441  0.8536  0.2884 -0.1631
    4bbb    H13  107   7.480   8.129   9.423  0.4951  0.1389  0.3474
    4bbb    H14  108   7.512   7.950   9.390 -1.0136 -0.1078  1.5745
    4bbb     C8  109   7.332   7.575   9.799 -0.7793  0.4108  0.1275
    4bbb    H15  110   7.251   7.649   9.802  0.5375  1.8860  1.6061
    4bbb    H16  111   7.352   7.539   9.901 -1.6789  0.4572  0.3307
    4bbb     C9  112   7.890   8.051   9.784 -0.2327  0.8947  0.6598
    4bbb    H17  113   7.870   8.115   9.871 -0.3080  1.6066  0.1310
    4bbb    H18  114   7.841   8.091   9.695  1.8490  3.0175  0.3462
    4bbb     O1  115   7.675   8.091   9.413  0.0310 -0.1075 -1.4258
    5bbb     N1  116   7.661   6.384   8.152  0.0940 -0.3243 -0.5385
    5bbb     C1  117   7.708   6.390   8.011  0.7367 -0.1851  0.0828
    5bbb     H1  118   7.812   6.355   8.011  1.1203  0.9151 -0.2166
    5bbb     H2  119   7.696   6.494   7.980 -0.3542 -0.2083  0.3957
    5bbb     C2  120   7.660   6.248   8.212 -0.1941  0.1172  0.2736
    5bbb     H3  121   7.584   6.197   8.152 -1.3030 -0.4103  2.0655
    5bbb     H4  122   7.622   6.255   8.315 -1.3262  0.4630 -0.1487
    5bbb     C3  123   7.719   6.483   8.245 -0.2346 -0.3820  0.1201
    5bbb     H5  124   7.828   6.481   8.254 -0.2849  0.4228  1.1090
    5bbb     H6  125   7.673   6.457   8.341 -0.8829  0.0953 -0.0516
    5bbb     C4  126   7.678   6.625   8.201 -0.1805  0.7477  0.6237
    5bbb     H7  127   7.574   6.626   8.167  0.5470 -1.1110 -1.9280
    5bbb     H8  128   7.736   6.647   8.111 -3.4240 -1.6448 -2.3343
    5bbb     C5  129   7.636   6.305   7.899  0.4707  0.0116  0.6620
    5bbb     H9  130   7.529   6.312   7.922  0.6088 -0.6883  1.5722
    5bbb    H10  131   7.657   6.197   7.906  0.9178 -0.1030 -1.5983
    5bbb     C6  132   7.797   6.175   8.203  0.2461 -0.4154  0.5320
    5bbb    H11  133   7.884   6.237   8.229 -0.3159  1.0213 -0.8217
    5bbb    H12  134   7.812   6.151   8.097 -0.0472  1.4695  0.0211
    5bbb     C7  135   7.705   6.724   8.313 -0.2974  0.0598 -0.8526
    5bbb    H13  136   7.811   6.715   8.339 -0.3190 -0.6350 -0.9649
    5bbb    H14  137   7.636   6.692   8.393 -1.3202  2.5894 -0.6539
    5bbb     C8  138   7.806   6.035   8.278  0.1482  0.8559 -0.4930
    5bbb    H15  139   7.818   6.068   8.383 -0.1148  3.5858 -1.2268
    5bbb    H16  140   7.900   5.989   8.245 -0.4520  1.1277 -2.6794
    5bbb     C9  141   7.667   6.352   7.756 -0.0238  0.1012  0.1014
    5bbb    H17  142   7.765   6.315   7.724 -0.6640  0.1048 -2.0480
    5bbb    H18  143   7.674   6.462   7.758 -2.4198  0.3138  0.4347
    5bbb     O1  144   7.654   6.851   8.266 -0.3504  0.0721 -0.4427
    6bbb     N1  145   6.662   7.476   8.817 -0.2319 -0.8943 -0.8069
    6bbb     C1  146   6.572   7.361   8.815  0.1319  1.1594  0.0456
    6bbb     H1  147   6.527   7.346   8.914  2.1960 -1.9511  0.6818
    6bbb     H2  148   6.621   7.265   8.794 -1.7898  0.1297  0.0734
    6bbb     C2  149   6.744   7.491   8.938 -0.3002 -0.2178  0.3264
    6bbb     H3  150   6.802   7.583   8.923 -1.1266  0.2270 -0.2179
    6bbb     H4  151   6.814   7.407   8.950  0.6961  0.5820  0.2565
    6bbb     C3  152   6.746   7.503   8.694 -0.3577  0.3095  0.0700
    6bbb     H5  153   6.804   7.593   8.717 -0.6964  0.3736  0.7056
    6bbb     H6  154   6.688   7.517   8.602  0.8176  1.1088 -0.5594
    6bbb     C4  155   6.840   7.388   8.660 -0.1581 -0.2762  0.2604
    6bbb     H7  156   6.783   7.300   8.626 -2.1777  0.6613  1.0412
    6bbb     H8  157   6.891   7.354   8.750  0.0796  0.0340  0.2431
    6bbb     C5  158   6.458   7.366   8.707  0.4735  0.7893 -0.1687
    6bbb     H9  159   6.407   7.269   8.713 -0.6940  1.4139  0.3467
    6bbb    H10  160   6.498   7.382   8.607 -0.1893  1.3636 -0.3495
    6bbb     C6  161   6.663   7.491   9.066  0.7291  0.2931  0.3371
    6bbb    H11  162   6.724   7.502   9.156  0.3624  0.0109  0.6213
    6bbb    H12  163   6.620   7.391   9.075  1.6978 -0.3510 -1.5782
    6bbb     C7  164   6.940   7.431   8.546  0.8275 -0.1336 -0.2691
    6bbb    H13  165   6.967   7.536   8.563  1.8444 -0.5325  0.7259
    6bbb    H14  166   6.899   7.419   8.445  0.1698  1.9081 -0.2842
    6bbb     C8  167   6.548   7.599   9.069  0.2592 -0.1423  0.8226
    6bbb    H15  168   6.504   7.599   8.968  1.0829 -0.1078  0.4526
    6bbb    H16  169   6.592   7.697   9.089  2.2561 -0.7950 -0.0929
    6bbb     C9  170   6.348   7.473   8.741  0.1494  0.2028 -0.2278
    6bbb    H17  171   6.394   7.572   8.742 -1.5395  1.0396 -0.9498
    6bbb    H18  172   6.305   7.449   8.840 -0.8871 -1.1756 -0.9658
    6bbb     O1  173   7.065   7.358   8.550 -0.0919  0.2973  0.2628
    7bbb     N1  174   9.204   7.647   9.166 -0.1653  0.9399 -0.8764
    7bbb     C1  175   9.113   7.734   9.253 -0.0476 -0.1855 -0.0057
    7bbb     H1  176   9.093   7.700   9.356  0.1064  1.2529  0.5211
    7bbb     H2  177   9.014   7.746   9.206 -1.2889 -0.5411  2.3266
    7bbb     C2  178   9.340   7.639   9.221  0.1626 -0.3585 -0.0323
    7bbb     H3  179   9.392   7.734   9.235  1.3085 -1.1587  1.4236
    7bbb     H4  180   9.397   7.587   9.143  2.2004  3.1876 -1.1428
    7bbb     C3  181   9.135   7.521   9.137  0.1087  0.9525 -0.2631
    7bbb     H5  182   9.119   7.467   9.232  3.4517  1.2132  0.5626
    7bbb     H6  183   9.207   7.462   9.079  2.2732  1.2021  1.9910
    7bbb     C4  184   9.005   7.534   9.060  0.3607  0.0445 -0.4829
    7bbb     H7  185   8.918   7.577   9.112  1.2161 -0.4814  1.4957
    7bbb     H8  186   8.971   7.433   9.037  0.4433 -0.1294  0.1359
    7bbb     C5  187   9.163   7.885   9.256 -0.1278  0.3454  0.2174
    7bbb     H9  188   9.266   7.891   9.294 -0.2896 -1.0664  0.9405
    7bbb    H10  189   9.102   7.948   9.321 -0.6520 -0.6395  0.7015
    7bbb     C6  190   9.350   7.561   9.358 -0.3932  0.6367 -0.0958
    7bbb    H11  191   9.311   7.459   9.348 -2.4336  1.1652  1.7482
    7bbb    H12  192   9.294   7.622   9.431 -1.3329 -1.3948  0.9657
    7bbb     C7  193   9.024   7.609   8.927 -0.1099  0.1550  0.0855
    7bbb    H13  194   9.079   7.540   8.860  0.6741  0.1937  0.6687
    7bbb    H14  195   9.087   7.697   8.947 -0.1625  0.4777 -1.0974
    7bbb     C8  196   9.497   7.543   9.404  0.1886 -0.1049 -0.4502
    7bbb    H15  197   9.537   7.642   9.433 -1.8672  1.1150 -1.5767
    7bbb    H16  198   9.557   7.503   9.322  1.3306  1.1571 -0.2742
    7bbb     C9  199   9.170   7.942   9.112 -0.0415  0.1603 -0.0706
    7bbb    H17  200   9.076   7.919   9.059  0.5197 -0.4829 -0.8193
    7bbb    H18  201   9.256   7.891   9.067  0.2842 -0.7906  1.5620
    7bbb     O1  202   8.896   7.634   8.874  0.1273 -0.2911  0.0355
    8bbb     N1  203   8.409   6.978   8.088  0.0580 -0.2746 -0.0822
    8bbb     C1  204   8.308   6.984   7.986  0.2153 -0.3481 -0.7142
    8bbb     H1  205   8.228   7.054   8.013 -0.3861 -1.1724 -0.3165
    8bbb     H2  206   8.248   6.893   7.995 -1.8629  1.1526  2.6107
    8bbb     C2  207   8.514   6.883   8.076  0.7530 -0.4085  0.2182
    8bbb     H3  208   8.561   6.880   8.175 -0.1100 -1.0208  0.6170
    8bbb     H4  209   8.584   6.911   7.996  0.2421 -1.1403 -0.4910
    8bbb     C3  210   8.446   7.119   8.141  0.3652  0.1015 -0.2081
    8bbb     H5  211   8.353   7.176   8.154  0.2443  0.0279 -0.6969
    8bbb     H6  212   8.515   7.167   8.071  1.1496 -0.0653  0.4295
    8bbb     C4  213   8.518   7.122   8.272 -0.8494  0.6034  0.8789
    8bbb     H7  214   8.605   7.056   8.269 -1.5549 -0.3021 -0.6997
    8bbb     H8  215   8.447   7.099   8.353 -2.1353  2.5439  0.3860
    8bbb     C5  216   8.360   6.998   7.831  0.1766  0.1925  0.3356
    8bbb     H9  217   8.279   7.004   7.757 -0.1905 -0.7479  0.6499
    8bbb    H10  218   8.428   6.916   7.806  1.4210  1.1637  0.4189
    8bbb     C6  219   8.458   6.746   8.055  0.5287 -0.0223 -0.5142
    8bbb    H11  220   8.404   6.741   7.960  0.1748 -1.7830 -0.2604
    8bbb    H12  221   8.380   6.723   8.128  0.4565  3.5762  0.7080
    8bbb     C7  222   8.562   7.264   8.317  0.5869  0.0836  0.0612
    8bbb    H13  223   8.622   7.308   8.236  1.6175 -1.4440 -0.0461
    8bbb    H14  224   8.617   7.261   8.411 -1.1268 -1.6782  1.0825
    8bbb     C8  225   8.567   6.630   8.066 -0.3008  0.2472  0.7620
    8bbb    H15  226   8.618   6.650   8.161 -0.5244  1.7077  0.6041
    8bbb    H16  227   8.651   6.641   7.997 -0.8089  0.1688  0.1266
    8bbb     C9  228   8.448   7.126   7.815  0.2406  0.1789 -0.1968
    8bbb    H17  229   8.533   7.117   7.884  1.9803  2.1332 -1.9764
    8bbb    H18  230   8.374   7.200   7.847  1.2465  0.5464  1.4068
    8bbb     O1  231   8.440   7.347   8.335  0.1352  0.4202  0.2807
    9bbb     N1  232   6.865   7.363   9.654  0.1248  0.3057 -0.0751
    9bbb     C1  233   6.854   7.461   9.541  0.3402  0.3558 -0.9508
    9bbb     H1  234   6.793   7.415   9.462  1.4484  0.4270 -1.8789
    9bbb     H2  235   6.949   7.485   9.493  1.9265 -0.8440  1.4022
    9bbb     C2  236   6.737   7.297   9.686  0.4315 -0.3288 -0.1452
    9bbb     H3  237   6.717   7.239   9.595  3.0564 -0.0030 -1.0123
    9bbb     H4  238   6.651   7.365   9.682 -0.5191 -1.4409  0.4602
    9bbb     C3  239   6.979   7.268   9.649  0.0462  0.4042  0.4451
    9bbb     H5  240   6.960   7.197   9.568 -1.1677 -0.3340  1.3452
    9bbb     H6  241   6.981   7.202   9.736 -0.0998  1.1304  1.0179
    9bbb     C4  242   7.123   7.327   9.638  0.3428 -0.0610 -0.1594
    9bbb     H7  243   7.136   7.359   9.534 -2.3133 -1.1348 -0.9136
    9bbb     H8  244   7.197   7.249   9.659 -1.6019 -2.2766 -1.0712
    9bbb     C5  245   6.793   7.594   9.588 -0.2434 -0.1093  0.2145
    9bbb     H9  246   6.840   7.636   9.678  1.1574 -1.8113  0.3524
    9bbb    H10  247   6.687   7.581   9.613 -0.3962 -2.2032 -1.2952
    9bbb     C6  248   6.729   7.220   9.825 -0.3335 -0.1171  0.1505
    9bbb    H11  249   6.780   7.123   9.824  0.8670  0.4695  1.6341
    9bbb    H12  250   6.628   7.197   9.861  0.6754 -0.4357  3.0278
    9bbb     C7  251   7.144   7.438   9.741 -0.1246  0.2743 -0.0035
    9bbb    H13  252   7.115   7.415   9.845 -1.4112 -1.6205 -0.7432
    9bbb    H14  253   7.086   7.525   9.708 -0.1123  0.4903  0.5249
    9bbb     C8  254   6.796   7.305   9.944  1.3268  0.7898 -1.0963
    9bbb    H15  255   6.748   7.404   9.949 -0.3845 -0.0803  0.6873
    9bbb    H16  256   6.902   7.323   9.919  1.0000  2.0777 -1.6787
    9bbb     C9  257   6.795   7.694   9.471 -0.6526 -0.1866 -0.4360
    9bbb    H17  258   6.741   7.650   9.386 -0.5557 -2.0938  0.4527
    9bbb    H18  259   6.900   7.717   9.450 -0.6916  2.0651  1.3849
    9bbb     O1  260   7.285   7.469   9.721 -0.0331  0.7470  0.0349
   10bbb     N1  261   8.462   8.303   9.807 -0.1672 -0.1396 -0.1522
   10bbb     C1  262   8.522   8.386   9.917  0.5740 -0.4982 -0.0989
   10bbb     H1  263   8.626   8.355   9.934  1.1975  0.6821 -1.5027
   10bbb     H2  264   8.476   8.366  10.015 -0.8565  0.2590 -0.5787
   10bbb     C2  265   8.544   8.288   9.684 -0.8523  0.4215 -0.0505
   10bbb     H3  266   8.543   8.383   9.629 -0.6033  0.1633 -0.5036
   10bbb     H4  267   8.499   8.218   9.613 -0.0376  1.5437 -1.7438
   10bbb     C3  268   8.312   8.303   9.804  0.5372 -0.1841  0.9075
   10bbb     H5  269   8.273   8.386   9.744  1.8876 -0.4768 -0.4214
   10bbb     H6  270   8.266   8.327   9.901  0.6477 -0.4741  1.0356
   10bbb     C4  271   8.249   8.170   9.753  0.5637  0.6611  0.5483
   10bbb     H7  272   8.290   8.093   9.819 -2.3774 -0.9676  0.6420
   10bbb     H8  273   8.269   8.139   9.650  1.7002  0.1178  0.9159
   10bbb     C5  274   8.503   8.534   9.891  0.3277  0.3183  0.2225
   10bbb     H9  275   8.399   8.568   9.891  1.0888  2.8791 -0.2708
   10bbb    H10  276   8.548   8.558   9.793  3.3447 -0.7383  1.2323
   10bbb     C6  277   8.690   8.239   9.709 -0.3370 -0.6709 -0.5949
   10bbb    H11  278   8.736   8.311   9.778 -0.9016 -1.0520  0.1982
   10bbb    H12  279   8.746   8.230   9.615  0.3648 -1.6493 -0.1001
   10bbb     C7  280   8.092   8.172   9.768  0.3467  0.5433  0.1296
   10bbb    H13  281   8.058   8.244   9.692  0.2038  1.8898  1.4245
   10bbb    H14  282   8.060   8.226   9.858 -1.1524  2.2495 -1.3371
   10bbb     C8  283   8.691   8.097   9.768 -0.2515  0.0477 -0.2775
   10bbb    H15  284   8.617   8.030   9.722 -1.1133  0.7258  0.0790
   10bbb    H16  285   8.665   8.104   9.874  0.5438 -0.8646 -0.0005
   10bbb     C9  286   8.569   8.628   9.998  0.2637  1.3715 -0.5138
   10bbb    H17  287   8.677   8.608   9.998  0.4609  0.6888  5.6099
   10bbb    H18  288   8.532   8.607  10.099  2.4014 -1.2398 -0.1517
   10bbb     O1  289   8.027   8.042   9.758  0.1785 -0.3783 -0.3032
   11bbb     N1  290   7.565   5.534   8.217  0.2883  0.5160  0.0786
   11bbb     C1  291   7.653   5.410   8.200  0.7877  0.0970  0.3044
   11bbb     H1  292   7.588   5.331   8.159  0.0879  0.2939  1.0037
   11bbb     H2  293   7.692   5.368   8.293 -0.9429 -1.1911  0.4959
   11bbb     C2  294   7.429   5.508   8.261 -0.8796 -0.0706  0.1063
   11bbb     H3  295   7.382   5.428   8.202  0.5303 -1.4939  0.8169
   11bbb     H4  296   7.372   5.601   8.249 -0.2069  0.3964  0.4959
   11bbb     C3  297   7.636   5.633   8.298  0.2380 -0.5483  0.0614
   11bbb     H5  298   7.735   5.658   8.257  0.9069 -2.3906  0.4615
   11bbb     H6  299   7.644   5.593   8.400 -0.6222 -1.2840 -0.1420
   11bbb     C4  300   7.557   5.762   8.324 -0.2780 -0.4533 -0.2380
   11bbb     H7  301   7.470   5.741   8.387 -1.7063  1.2837 -1.5194
   11bbb     H8  302   7.506   5.799   8.235 -2.2558  1.0918  1.4443
   11bbb     C5  303   7.778   5.423   8.107 -0.0992  0.7189 -0.6849
   11bbb     H9  304   7.844   5.506   8.132 -1.0841  1.6214 -1.0237
   11bbb    H10  305   7.740   5.443   8.006 -0.9372  1.9466 -0.1483
   11bbb     C6  306   7.400   5.457   8.404 -0.6434 -0.5964  1.3050
   11bbb    H11  307   7.424   5.543   8.467 -0.6533  0.5458 -0.2060
   11bbb    H12  308   7.466   5.371   8.426  0.2641  0.0188  1.0430
   11bbb     C7  309   7.650   5.876   8.376 -0.8232 -0.0344 -0.2294
   11bbb    H13  310   7.736   5.840   8.433  0.1695 -0.7473 -2.0870
   11bbb    H14  311   7.591   5.947   8.434 -1.6364  0.9430 -2.1702
   11bbb     C8  312   7.253   5.415   8.426  0.3482  0.3925  0.3290
   11bbb    H15  313   7.192   5.506   8.417  1.2468  1.1134  1.2089
   11bbb    H16  314   7.250   5.369   8.526  0.6012 -0.1279  0.0945
   11bbb     C9  315   7.868   5.295   8.111  0.1773  0.5379 -0.4454
   11bbb    H17  316   7.954   5.304   8.044  0.0923  0.4707 -0.5649
   11bbb    H18  317   7.812   5.203   8.090  0.4546  0.2440  0.0887
   11bbb     O1  318   7.700   5.939   8.258  0.5438  0.2500 -0.1614
   12bbb     N1  319   7.459   6.403   7.265 -0.9433  0.2025  0.3260
   12bbb     C1  320   7.462   6.408   7.116  0.2339  0.0750 -0.1647
   12bbb     H1  321   7.528   6.489   7.083  0.3283 -0.7928 -2.3043
   12bbb     H2  322   7.364   6.445   7.082 -0.5051 -1.4304  0.2057
   12bbb     C2  323   7.370   6.501   7.321  0.6187 -0.0757  0.7067
   12bbb     H3  324   7.373   6.504   7.430 -0.5737 -0.7356  0.7781
   12bbb     H4  325   7.268   6.484   7.283  1.0336 -0.3871 -0.3210
   12bbb     C3  326   7.447   6.266   7.322  0.3107 -0.1614  0.1766
   12bbb     H5  327   7.530   6.206   7.283 -0.4813 -2.1398  1.4035
   12bbb     H6  328   7.358   6.225   7.272 -0.7505 -0.2068  2.0113
   12bbb     C4  329   7.447   6.263   7.480  0.2022  0.1408 -0.4157
   12bbb     H7  330   7.446   6.156   7.503  0.5831  0.1746 -0.2364
   12bbb     H8  331   7.357   6.304   7.528 -0.2167 -2.8220  1.5479
   12bbb     C5  332   7.505   6.280   7.035  0.3856 -0.1184 -0.4260
   12bbb     H9  333   7.442   6.195   7.065 -1.7500  1.6794  0.5003
   12bbb    H10  334   7.608   6.256   7.064  0.2719 -1.8537 -1.3329
   12bbb     C6  335   7.412   6.647   7.283 -0.1292  0.0818  0.2464
   12bbb    H11  336   7.409   6.669   7.176 -0.3651  2.7150  0.7342
   12bbb    H12  337   7.510   6.674   7.323 -0.3179  1.6263 -0.2670
   12bbb     C7  338   7.569   6.322   7.541 -0.2255 -0.1001 -0.3109
   12bbb    H13  339   7.583   6.429   7.524 -0.4082  0.3011  1.7647
   12bbb    H14  340   7.648   6.256   7.506  0.3585  0.1546  0.4913
   12bbb     C8  341   7.311   6.746   7.339  0.4398 -0.0359  0.0672
   12bbb    H15  342   7.346   6.848   7.317  0.5794  0.3260  1.8759
   12bbb    H16  343   7.307   6.730   7.447  0.7967  0.0393  0.0927
   12bbb     C9  344   7.493   6.299   6.877 -0.1757 -0.3704  0.0393
   12bbb    H17  345   7.386   6.309   6.857 -0.5345  0.1750  2.0303
   12bbb    H18  346   7.533   6.207   6.832 -0.6962 -1.5874  1.9395
   12bbb     O1  347   7.553   6.310   7.678  0.0778  0.7722 -0.3731
   13bbb     N1  348   6.306   7.325   9.414  0.6083  0.3688 -0.4895
   13bbb     C1  349   6.221   7.201   9.379  0.3544 -0.5673 -1.0091
   13bbb     H1  350   6.174   7.214   9.281  0.2523  2.7497 -0.6080
   13bbb     H2  351   6.142   7.187   9.453  2.0957  0.3015  1.1175
   13bbb     C2  352   6.364   7.321   9.549  0.8661 -0.1589 -0.7279
   13bbb     H3  353   6.421   7.413   9.567 -0.8554  1.2490 -2.1006
   13bbb     H4  354   6.439   7.242   9.564  2.1875  1.2287  0.3545
   13bbb     C3  355   6.243   7.456   9.375  0.0986  0.4319 -0.8773
   13bbb     H5  356   6.162   7.472   9.447  0.6766  1.5257 -0.4449
   13bbb     H6  357   6.191   7.460   9.278 -1.0535  3.2462 -0.2313
   13bbb     C4  358   6.329   7.581   9.390  0.2969 -0.3127 -0.2618
   13bbb     H7  359   6.358   7.599   9.494 -0.6109  0.3388 -0.1113
   13bbb     H8  360   6.261   7.664   9.365 -0.4173 -0.2042  1.8755
   13bbb     C5  361   6.301   7.069   9.362 -0.9437  0.3291 -0.9484
   13bbb     H9  362   6.402   7.077   9.322  0.3347 -2.0841  1.4634
   13bbb    H10  363   6.251   7.007   9.287  1.3374 -2.0797 -0.6187
   13bbb     C6  364   6.258   7.314   9.664 -0.9626 -0.3759 -0.3117
   13bbb    H11  365   6.197   7.224   9.651 -0.4838 -0.7202 -0.2288
   13bbb    H12  366   6.193   7.402   9.653 -0.3427  0.2067  0.5017
   13bbb     C7  367   6.469   7.593   9.314 -0.7325 -0.0792 -0.9433
   13bbb    H13  368   6.543   7.519   9.346 -2.0454 -1.4423 -0.9476
   13bbb    H14  369   6.508   7.695   9.323 -2.2671  0.5637 -1.2547
   13bbb     C8  370   6.333   7.314   9.801  0.2709  0.7745  0.6323
   13bbb    H15  371   6.414   7.240   9.803  0.8136  1.3850  1.5253
   13bbb    H16  372   6.260   7.285   9.877 -2.3241  0.2516 -1.8555
   13bbb     C9  373   6.300   6.984   9.490  0.2313 -0.3714  0.0239
   13bbb    H17  374   6.387   7.012   9.550 -0.6291  0.3508  0.9840
   13bbb    H18  375   6.315   6.879   9.463  1.7189 -0.0373 -0.5147
   13bbb     O1  376   6.448   7.570   9.171  0.4948 -0.5191  0.0494
   14bbb     N1  377   5.924   7.553   8.358 -0.1865  0.5020 -0.3512
   14bbb     C1  378   5.794   7.488   8.390 -0.1653 -0.0180  0.1030
   14bbb     H1  379   5.714   7.563   8.383  0.8118  1.4470  2.8275
   14bbb     H2  380   5.787   7.477   8.499  2.3357  2.2951  0.6103
   14bbb     C2  381   5.931   7.688   8.417  0.6869 -0.3318  0.4344
   14bbb     H3  382   5.911   7.673   8.524 -0.4059 -1.8769  0.0598
   14bbb     H4  383   5.851   7.742   8.364  2.1323 -1.1824 -2.8750
   14bbb     C3  384   6.034   7.458   8.412 -0.6378 -0.4675  0.5382
   14bbb     H5  385   6.129   7.512   8.408  0.0254 -1.6789 -1.0169
   14bbb     H6  386   6.049   7.385   8.332 -1.2551  1.1733 -1.1391
   14bbb     C4  387   6.021   7.382   8.548  0.0116  0.5276 -0.2287
   14bbb     H7  388   5.958   7.293   8.541 -0.0043  0.5406 -0.2476
   14bbb     H8  389   5.964   7.448   8.615 -2.3220  0.3228 -1.8795
   14bbb     C5  390   5.765   7.354   8.311  1.0137 -0.2785 -0.1205
   14bbb     H9  391   5.657   7.339   8.316  1.0965 -1.0574 -0.4384
   14bbb    H10  392   5.819   7.271   8.359  0.5440  0.7896  2.4092
   14bbb     C6  393   6.053   7.774   8.399 -0.7318  0.6240 -0.0198
   14bbb    H11  394   6.084   7.778   8.294 -0.0681 -1.8109  0.0149
   14bbb    H12  395   6.134   7.728   8.456 -1.4273 -0.3105  0.2451
   14bbb     C7  396   6.160   7.347   8.615  0.0230  0.6127  0.3817
   14bbb    H13  397   6.216   7.281   8.547 -1.9210 -0.7335  0.0147
   14bbb    H14  398   6.147   7.290   8.708  1.6233 -1.7913 -0.7686
   14bbb     C8  399   6.044   7.920   8.455  0.4282  0.1545 -0.1618
   14bbb    H15  400   6.131   7.974   8.417  0.8052 -1.7587 -2.2340
   14bbb    H16  401   6.045   7.929   8.564  2.7819  0.2739 -0.1420
   14bbb     C9  402   5.797   7.365   8.165  0.3096 -0.3316 -0.1814
   14bbb    H17  403   5.906   7.374   8.155  0.3738  0.0254  0.6838
   14bbb    H18  404   5.762   7.459   8.120  0.1448 -0.0664  0.4914
   14bbb     O1  405   6.237   7.469   8.647 -0.2141  0.4873  0.1958
   15bbb     N1  406   9.566   7.272   9.925  0.1149  0.7085  0.3386
   15bbb     C1  407   9.538   7.334  10.061 -0.6934 -0.1096  0.9577
   15bbb     H1  408   9.503   7.265  10.139 -0.8323 -1.6276 -0.3878
   15bbb     H2  409   9.453   7.401  10.047 -1.8476 -1.4673  1.2320
   15bbb     C2  410   9.457   7.171   9.902  0.2398  0.5258 -0.0333
   15bbb     H3  411   9.459   7.133   9.800 -0.7137  2.6812 -0.9146
   15bbb     H4  412   9.360   7.220   9.914 -1.2992 -2.6100  1.4960
   15bbb     C3  413   9.568   7.381   9.819 -0.1736 -0.3665 -0.5666
   15bbb     H5  414   9.648   7.452   9.845 -0.3132 -0.5606  0.4444
   15bbb     H6  415   9.475   7.438   9.813  1.9706  3.7851  1.0889
   15bbb     C4  416   9.614   7.316   9.684  0.1276 -1.1175  0.2305
   15bbb     H7  417   9.553   7.229   9.658 -0.9835 -0.3133  0.0954
   15bbb     H8  418   9.716   7.279   9.699  0.4004 -2.0789 -3.2183
   15bbb     C5  419   9.656   7.415  10.117 -0.5715 -0.4350  0.3499
   15bbb     H9  420   9.647   7.524  10.127  0.0158  0.0334 -2.9911
   15bbb    H10  421   9.738   7.404  10.045 -0.5498  1.4155  0.0581
   15bbb     C6  422   9.458   7.042   9.989  0.5279  0.0048 -0.4803
   15bbb    H11  423   9.361   6.994   9.979 -0.3794  1.3469  1.2450
   15bbb    H12  424   9.459   7.069  10.095 -1.5332  1.4910 -0.7819
   15bbb     C7  425   9.620   7.414   9.566 -0.2908  0.0919  0.4452
   15bbb    H13  426   9.681   7.374   9.484  1.5948  0.8433  1.4162
   15bbb    H14  427   9.669   7.506   9.600  0.9238  0.1280 -1.2969
   15bbb     C8  428   9.583   6.958   9.965 -0.1527  0.3171  0.3227
   15bbb    H15  429   9.638   6.974   9.872 -0.8248 -1.3532 -0.4022
   15bbb    H16  430   9.557   6.853   9.945  2.4974 -0.4184  0.3123
   15bbb     C9  431   9.698   7.339  10.248  0.3874 -0.6625 -0.3828
   15bbb    H17  432   9.806   7.348  10.267  0.7269 -0.9541 -2.0076
   15bbb    H18  433   9.691   7.231  10.228  2.0538 -0.6633 -1.1792
   15bbb     O1  434   9.490   7.450   9.512 -0.0897  0.4592  0.2683
   16bbb     N1  435   9.502   8.390   9.033  0.5342  0.2823 -0.1753
   16bbb     C1  436   9.476   8.469   9.154  0.3512 -0.2479  0.2267
   16bbb     H1  437   9.389   8.532   9.132 -0.9512 -2.3246 -0.8860
   16bbb     H2  438   9.561   8.536   9.172 -0.0721 -0.4945  3.6837
   16bbb     C2  439   9.510   8.478   8.915 -0.3188  0.7730 -0.1112
   16bbb     H3  440   9.570   8.568   8.933  0.6771  0.1992 -0.5185
   16bbb     H4  441   9.413   8.519   8.885 -0.0760  1.0646 -0.5105
   16bbb     C3  442   9.426   8.264   9.011  0.0044  0.0700  0.3511
   16bbb     H5  443   9.439   8.198   9.097  2.3844 -1.2213 -0.8834
   16bbb     H6  444   9.461   8.196   8.932 -1.4492 -0.1643 -0.1240
   16bbb     C4  445   9.270   8.285   8.998 -0.2685  0.6713  0.3421
   16bbb     H7  446   9.257   8.334   8.900  1.8649 -2.2226 -1.5637
   16bbb     H8  447   9.238   8.349   9.081  2.7291 -0.8076  2.8546
   16bbb     C5  448   9.468   8.386   9.282 -0.6542  0.2641 -0.0451
   16bbb     H9  449   9.540   8.304   9.285 -1.1199 -0.2297 -1.4261
   16bbb    H10  450   9.371   8.336   9.295 -0.2629 -1.1356 -2.1068
   16bbb     C6  451   9.572   8.412   8.785  0.1892 -0.0714  0.1396
   16bbb    H11  452   9.522   8.316   8.767  1.1336 -0.6726  0.5900
   16bbb    H12  453   9.674   8.378   8.810  0.1028 -0.8033 -0.4411
   16bbb     C7  454   9.188   8.151   8.985 -0.3102  0.0116 -0.2353
   16bbb    H13  455   9.245   8.085   8.919 -0.8295 -0.2075 -0.4658
   16bbb    H14  456   9.090   8.159   8.937 -0.6815 -1.4165  0.2401
   16bbb     C8  457   9.573   8.512   8.663  0.1327 -0.2038  0.5450
   16bbb    H15  458   9.473   8.557   8.651  0.0014 -0.9081 -1.2918
   16bbb    H16  459   9.584   8.465   8.565  0.4017 -0.8528  0.8771
   16bbb     C9  460   9.485   8.479   9.410  0.0454  0.4164  0.4037
   16bbb    H17  461   9.586   8.515   9.390  0.1910  0.0447  0.4703
   16bbb    H18  462   9.484   8.422   9.504  2.9520 -0.6837 -0.1452
   16bbb     O1  463   9.187   8.087   9.115  0.2956 -0.0897 -0.5422
   17bbb     N1  464   8.409   6.067   8.199 -0.1011  0.4052 -0.1503
   17bbb     C1  465   8.532   6.004   8.254 -0.5626 -0.6079  0.2892
   17bbb     H1  466   8.575   6.070   8.331  0.1232 -0.0703 -0.5406
   17bbb     H2  467   8.597   6.007   8.166 -2.1713 -0.1790 -0.9268
   17bbb     C2  468   8.364   5.999   8.078  0.1069 -0.4238 -0.0702
   17bbb     H3  469   8.362   5.891   8.098  0.4522 -0.1992  1.3369
   17bbb     H4  470   8.425   6.014   7.989  0.5108 -0.3642  0.2137
   17bbb     C3  471   8.430   6.215   8.189 -0.1025 -0.1881  0.5638
   17bbb     H5  472   8.465   6.254   8.286  0.6228 -0.1099  0.2716
   17bbb     H6  473   8.335   6.260   8.159  0.4909  1.1306  0.6065
   17bbb     C4  474   8.543   6.257   8.086  0.1011 -0.6037  0.7312
   17bbb     H7  475   8.507   6.245   7.984  0.7847 -1.0906  0.5461
   17bbb     H8  476   8.635   6.200   8.100 -0.1255 -1.3513 -0.7211
   17bbb     C5  477   8.530   5.871   8.307 -0.2408  1.4794 -0.1399
   17bbb     H9  478   8.430   5.850   8.347  0.6828 -1.0718  1.0200
   17bbb    H10  479   8.596   5.857   8.394  0.2691  0.7014 -0.6392
   17bbb     C6  480   8.215   6.032   8.038 -0.7665  0.1117 -0.1749
   17bbb    H11  481   8.210   6.136   8.004  0.0613  0.4034  0.5456
   17bbb    H12  482   8.149   6.029   8.126  0.3110  1.4867  0.7317
   17bbb     C7  483   8.595   6.395   8.110 -0.3404  0.2635  0.5652
   17bbb    H13  484   8.689   6.402   8.055 -0.4494  1.8132  0.5315
   17bbb    H14  485   8.612   6.408   8.218  0.9536 -0.1531  0.4243
   17bbb     C8  486   8.164   5.934   7.934  0.5674 -0.1232 -0.1264
   17bbb    H15  487   8.244   5.864   7.907  0.9683 -0.3106  1.4041
   17bbb    H16  488   8.133   5.989   7.845 -0.6831  1.1992  1.0597
   17bbb     C9  489   8.571   5.758   8.205  0.1310  0.3378  0.0535
   17bbb    H17  490   8.654   5.700   8.246  0.2692  0.8188  0.4825
   17bbb    H18  491   8.614   5.795   8.111  0.1797 -0.6796 -0.3373
   17bbb     O1  492   8.506   6.496   8.063  0.5328 -0.5699  0.0056
   18bbb     N1  493   8.760   7.401   7.508  0.2840  0.0874 -0.0120
   18bbb     C1  494   8.868   7.301   7.496  0.4236  0.0673  0.4214
   18bbb     H1  495   8.841   7.203   7.536  0.3508  0.1325  0.5323
   18bbb     H2  496   8.955   7.328   7.557  0.5119 -0.9515  0.7589
   18bbb     C2  497   8.811   7.529   7.446 -0.5428  0.0783 -0.2541
   18bbb     H3  498   8.733   7.605   7.453 -1.6400 -1.0693  0.4364
   18bbb     H4  499   8.819   7.517   7.337 -0.3957 -1.6040 -0.0838
   18bbb     C3  500   8.627   7.369   7.449  0.6780  0.7463  0.3004
   18bbb     H5  501   8.641   7.367   7.340 -0.2178  1.3482  0.1631
   18bbb     H6  502   8.550   7.446   7.465 -0.0545  0.2414 -0.6846
   18bbb     C4  503   8.572   7.231   7.490 -0.7072  0.2373  0.6204
   18bbb     H7  504   8.629   7.147   7.450 -1.2609 -0.2771  0.8852
   18bbb     H8  505   8.467   7.229   7.456 -0.6524  0.5699  0.4310
   18bbb     C5  506   8.913   7.265   7.348  0.8247 -0.4923 -0.4969
   18bbb     H9  507   8.959   7.351   7.299 -1.4722  0.2723 -1.4696
   18bbb    H10  508   8.825   7.239   7.288  0.0685 -0.8509  0.7172
   18bbb     C6  509   8.943   7.589   7.501  0.0337  0.6753 -0.2519
   18bbb    H11  510   9.023   7.520   7.474 -2.0525 -1.3312 -1.7115
   18bbb    H12  511   8.938   7.596   7.610 -0.5259 -0.3646 -0.2003
   18bbb     C7  512   8.564   7.236   7.640  0.7544 -0.2626 -0.8438
   18bbb    H13  513   8.527   7.334   7.673  0.5707 -0.7835  0.5716
   18bbb    H14  514   8.663   7.222   7.685 -0.4041  0.9300  2.4287
   18bbb     C8  515   8.975   7.733   7.445  0.5934  0.3614  0.4331
   18bbb    H15  516   9.001   7.714   7.340 -0.8238 -1.9719  0.4441
   18bbb    H16  517   9.068   7.768   7.491 -0.3444  0.1651  2.5651
   18bbb     C9  518   9.028   7.162   7.343 -0.0701  0.4403 -0.2300
   18bbb    H17  519   9.049   7.134   7.239  0.4068 -0.3148  0.0525
   18bbb    H18  520   9.007   7.065   7.391  0.8093  0.0754 -0.5488
   18bbb     O1  521   8.475   7.133   7.682  0.2442 -0.1624  0.2947
   19bbb     N1  522   6.461   7.174  10.300 -0.0641  0.1279  0.0408
   19bbb     C1  523   6.466   7.062  10.200 -0.3411 -0.3680  1.5279
   19bbb     H1  524   6.396   6.980  10.222 -1.3684 -0.2790 -1.0077
   19bbb     H2  525   6.565   7.014  10.196 -0.2714 -0.1520 -0.4328
   19bbb     C2  526   6.481   7.116  10.437 -0.4069 -0.6981  0.3148
   19bbb     H3  527   6.579   7.068  10.445 -1.1347 -2.2155  0.5946
   19bbb     H4  528   6.407   7.036  10.449 -1.8278  0.6859  1.1264
   19bbb     C3  529   6.552   7.289  10.275 -0.4615  0.1585 -0.0676
   19bbb     H5  530   6.522   7.362  10.350 -1.8908 -0.4944  0.0237
   19bbb     H6  531   6.525   7.330  10.177 -1.9748 -2.5385 -0.9055
   19bbb     C4  532   6.699   7.253  10.293  0.5265 -0.5201 -1.0799
   19bbb     H7  533   6.710   7.144  10.293 -1.5548 -0.7564 -0.8272
   19bbb     H8  534   6.725   7.290  10.393  0.8823 -1.2729 -0.8887
   19bbb     C5  535   6.432   7.103  10.050 -0.0139  0.2990 -0.2449
   19bbb     H9  536   6.498   7.187  10.025  0.1589 -0.2615 -1.7719
   19bbb    H10  537   6.327   7.128  10.036 -0.2238 -0.4990 -0.1651
   19bbb     C6  538   6.455   7.219  10.555  0.0505  0.6160 -0.1066
   19bbb    H11  539   6.345   7.231  10.555  0.0422  2.4437 -4.6939
   19bbb    H12  540   6.499   7.318  10.542  2.5197 -0.3293  0.4844
   19bbb     C7  541   6.789   7.312  10.184  0.1336  0.1156  0.0755
   19bbb    H13  542   6.897   7.310  10.203  0.5382  0.5388 -1.9123
   19bbb    H14  543   6.764   7.417  10.161  1.9277  0.4861 -0.3087
   19bbb     C8  544   6.506   7.168  10.695 -0.4857 -0.0922  0.2233
   19bbb    H15  545   6.519   7.250  10.766 -1.4043  0.4773 -0.2345
   19bbb    H16  546   6.599   7.113  10.677 -0.5307 -0.1609  0.2015
   19bbb     C9  547   6.466   6.990   9.947 -0.0881  0.6635  1.1395
   19bbb    H17  548   6.575   6.978   9.955 -0.3536 -2.5998  1.0713
   19bbb    H18  549   6.444   7.025   9.845 -2.5604  1.3746  1.8642
   19bbb     O1  550   6.768   7.232  10.065 -0.2526 -0.0869 -0.1263
   20bbb     N1  551   6.399   8.098   9.453 -0.2553 -0.2490  0.4804
   20bbb     C1  552   6.258   8.065   9.436  0.6956  0.4883 -0.1455
   20bbb     H1  553   6.200   8.142   9.488  1.6183  0.8766  0.3356
   20bbb     H2  554   6.228   7.964   9.468 -0.7486  0.2232 -2.1312
   20bbb     C2  555   6.407   8.249   9.420 -0.3377  0.0980  0.4379
   20bbb     H3  556   6.386   8.256   9.313  2.4994  0.2289 -0.1822
   20bbb     H4  557   6.510   8.286   9.419 -0.4476  0.5252 -2.2976
   20bbb     C3  558   6.499   8.018   9.382  0.1950  0.0321 -0.7304
   20bbb     H5  559   6.495   8.037   9.274 -1.6289 -0.6600 -0.8112
   20bbb     H6  560   6.460   7.917   9.400  0.3928  0.5691  3.8036
   20bbb     C4  561   6.640   8.033   9.443 -0.0507  0.4275 -0.0265
   20bbb     H7  562   6.630   8.035   9.552  0.3365  0.7876  0.0022
   20bbb     H8  563   6.688   8.131   9.433 -0.9471  0.7991 -0.8890
   20bbb     C5  564   6.212   8.067   9.282 -0.2328  0.1392  0.2304
   20bbb     H9  565   6.230   7.967   9.239  1.4121  0.4497  0.1652
   20bbb    H10  566   6.257   8.139   9.212  1.5976 -1.2741 -0.1318
   20bbb     C6  567   6.336   8.354   9.511  0.7293  0.6075 -0.6801
   20bbb    H11  568   6.227   8.362   9.499  0.8651 -0.3367 -3.0411
   20bbb    H12  569   6.382   8.451   9.489 -1.7369  1.6834 -1.3983
   20bbb     C7  570   6.723   7.911   9.404  0.3284 -0.5770 -0.3567
   20bbb    H13  571   6.827   7.942   9.385  1.8814 -4.1075  1.4151
   20bbb    H14  572   6.685   7.867   9.311  2.5212 -2.4335 -0.4729
   20bbb     C8  573   6.347   8.319   9.661 -0.0673 -0.2572  0.6265
   20bbb    H15  574   6.453   8.319   9.691  0.2226  2.4831 -0.1710
   20bbb    H16  575   6.299   8.222   9.683  0.7764 -0.4957  1.5223
   20bbb     C9  576   6.060   8.090   9.279 -0.2740 -0.2491 -0.6128
   20bbb    H17  577   6.030   8.195   9.290 -0.6034 -0.2497 -1.4103
   20bbb    H18  578   6.023   8.043   9.371  0.8739  0.8095  0.4232
   20bbb     O1  579   6.732   7.819   9.513 -0.2061  0.3740 -0.1853
   21bbb     N1  580   9.172   7.792   9.650  0.7252 -0.3919  0.0003
   21bbb     C1  581   9.196   7.659   9.711  0.0852 -0.5527  0.7555
   21bbb     H1  582   9.184   7.660   9.820 -0.5746 -3.0677  0.7713
   21bbb     H2  583   9.302   7.634   9.696 -0.4161 -0.9051 -3.2718
   21bbb     C2  584   9.267   7.900   9.667  0.2138 -0.9695 -0.3337
   21bbb     H3  585   9.260   7.933   9.771  0.2994  0.5846 -0.8041
   21bbb     H4  586   9.239   7.987   9.607  1.5956 -1.1163 -1.2325
   21bbb     C3  587   9.030   7.835   9.653 -0.1668 -0.0583  0.6479
   21bbb     H5  588   8.971   7.771   9.586 -0.4641  0.7987  0.0640
   21bbb     H6  589   9.030   7.932   9.602 -0.4771 -1.3077 -1.8482
   21bbb     C4  590   8.965   7.840   9.793  0.0437 -0.1910 -0.5144
   21bbb     H7  591   9.021   7.883   9.877  0.1615 -1.5445  0.1378
   21bbb     H8  592   8.958   7.733   9.818  1.1831 -0.5057 -1.4541
   21bbb     C5  593   9.106   7.540   9.661  0.4230 -0.0859 -0.0292
   21bbb     H9  594   9.098   7.550   9.552 -1.0430  3.7975  0.2933
   21bbb    H10  595   9.002   7.548   9.693  0.0602  0.7173 -1.3043
   21bbb     C6  596   9.413   7.876   9.617  0.2099 -0.1591 -0.1617
   21bbb    H11  597   9.405   7.825   9.521 -1.3455  1.3968 -0.9190
   21bbb    H12  598   9.455   7.802   9.686  1.8097  1.1194  0.3087
   21bbb     C7  599   8.825   7.890   9.789 -0.5825 -0.0824 -0.1265
   21bbb    H13  600   8.781   7.877   9.888 -0.0720 -0.7047  0.0250
   21bbb    H14  601   8.770   7.834   9.713  2.0455  0.3773 -2.5350
   21bbb     C8  602   9.500   8.007   9.603 -0.3164  0.3409  0.4452
   21bbb    H15  603   9.522   8.032   9.708  1.0899  1.3267 -0.0541
   21bbb    H16  604   9.435   8.086   9.564 -1.3438  0.9011  3.0786
   21bbb     C9  605   9.148   7.403   9.712  0.0809  0.0772  0.5440
   21bbb    H17  606   9.236   7.371   9.655  0.5013  0.1679  1.1337
   21bbb    H18  607   9.070   7.326   9.701  2.2340 -2.2861  0.7258
   21bbb     O1  608   8.821   8.033   9.758  0.0397 -0.2329  0.0726
   22bbb     N1  609   8.285   9.184   9.921 -0.4776  0.4828 -0.4191
   22bbb     C1  610   8.351   9.270  10.022 -0.3036  0.4403 -0.1760
   22bbb     H1  611   8.324   9.375  10.006 -0.1728  0.1400 -2.7655
   22bbb     H2  612   8.460   9.264  10.006  0.1567  0.2536  2.4842
   22bbb     C2  613   8.307   9.218   9.783  1.1074 -0.5547  0.5254
   22bbb     H3  614   8.243   9.154   9.721  1.7551 -0.6045 -0.1105
   22bbb     H4  615   8.412   9.190   9.766  0.8577 -0.6947 -0.8842
   22bbb     C3  616   8.285   9.040   9.942 -0.3314  0.1326  0.1330
   22bbb     H5  617   8.211   8.986   9.881  1.0367 -1.6441 -0.0468
   22bbb     H6  618   8.250   9.021  10.044 -0.5013  0.8128  0.2043
   22bbb     C4  619   8.419   8.963   9.941  0.2873 -0.7680 -0.4379
   22bbb     H7  620   8.482   9.006  10.020 -2.3056 -0.5035  1.6313
   22bbb     H8  621   8.475   8.978   9.848  1.9812 -0.9920  0.5093
   22bbb     C5  622   8.319   9.233  10.168 -0.2570 -0.1802 -0.0982
   22bbb     H9  623   8.370   9.298  10.240  0.3545 -1.8570  1.0415
   22bbb    H10  624   8.365   9.137  10.193  0.3537  0.6199  2.0910
   22bbb     C6  625   8.270   9.365   9.755  0.1837 -0.5047 -0.5666
   22bbb    H11  626   8.352   9.419   9.803  1.8606 -2.2604 -1.3193
   22bbb    H12  627   8.174   9.396   9.797 -0.2609 -0.9941 -1.1901
   22bbb     C7  628   8.409   8.811   9.980 -0.2869  0.2846 -0.5010
   22bbb    H13  629   8.336   8.760   9.917 -1.0671 -0.2491  0.7869
   22bbb    H14  630   8.382   8.805  10.087  0.5795  4.6709  0.1553
   22bbb     C8  631   8.273   9.396   9.606  0.1322 -0.3845 -0.0047
   22bbb    H15  632   8.369   9.359   9.569  1.3924  2.7731 -0.2522
   22bbb    H16  633   8.256   9.504   9.592  0.9211 -0.1120  1.0042
   22bbb     C9  634   8.173   9.250  10.190  0.3277 -0.0497 -0.1790
   22bbb    H17  635   8.116   9.191  10.118 -2.1606  1.3176  0.5627
   22bbb    H18  636   8.146   9.356  10.191 -0.0382 -0.1434 -0.0661
   22bbb     O1  637   8.546   8.763   9.959 -0.1269  0.5065 -0.4172
   23bbb     N1  638   7.134   4.976   8.643  0.0628 -0.4736 -0.3620
   23bbb     C1  639   7.007   4.989   8.715  0.4501  0.0308 -0.2872
   23bbb     H1  640   6.920   4.959   8.656  0.3258 -1.1601  0.4521
   23bbb     H2  641   6.991   5.097   8.726 -1.1116 -0.3563  2.0163
   23bbb     C2  642   7.203   4.846   8.656  0.0113  0.2772  0.0617
   23bbb     H3  643   7.231   4.835   8.761  0.2184  0.4668  0.0283
   23bbb     H4  644   7.293   4.844   8.593  0.2715 -1.0993  0.4456
   23bbb     C3  645   7.132   5.031   8.507  0.3297 -0.3262 -0.3329
   23bbb     H5  646   7.091   4.962   8.433  2.7598 -2.4277  0.1331
   23bbb     H6  647   7.236   5.047   8.476 -0.5526  0.2330 -3.2320
   23bbb     C4  648   7.063   5.170   8.482 -0.4862 -0.0139  0.2920
   23bbb     H7  649   7.077   5.241   8.564 -2.1740  0.3338  0.2962
   23bbb     H8  650   6.955   5.158   8.472 -0.2838 -0.9271 -1.0342
   23bbb     C5  651   7.003   4.929   8.854  0.5624  0.1965 -0.7965
   23bbb     H9  652   7.080   4.980   8.913 -1.1031  2.3153 -0.3228
   23bbb    H10  653   7.021   4.820   8.855  0.1952  0.1285 -1.3223
   23bbb     C6  654   7.117   4.722   8.614 -0.7203  0.3954  0.0319
   23bbb    H11  655   7.022   4.746   8.564 -0.0173  1.9103 -0.6576
   23bbb    H12  656   7.098   4.668   8.707 -1.2082  0.1043 -0.2305
   23bbb     C7  657   7.090   5.234   8.341  1.0094  0.1490  0.4449
   23bbb    H13  658   6.999   5.293   8.327  1.0965 -0.1845 -1.7972
   23bbb    H14  659   7.103   5.157   8.265 -0.1649 -1.0185  1.3592
   23bbb     C8  660   7.200   4.619   8.524 -0.4646  0.0311 -0.2096
   23bbb    H15  661   7.293   4.580   8.567 -1.7959 -2.4961  0.5763
   23bbb    H16  662   7.209   4.676   8.431  1.6795  2.5286  1.3933
   23bbb     C9  663   6.864   4.946   8.920 -0.0497  0.2475 -0.4102
   23bbb    H17  664   6.867   4.908   9.023  1.9940  0.5576 -0.3220
   23bbb    H18  665   6.795   4.885   8.859 -0.2420  0.5595 -0.5056
   23bbb     O1  666   7.215   5.304   8.332  0.2784 -0.3236  0.2539
   24bbb     N1  667   8.305   5.278   8.481 -0.5982 -0.4566  0.2245
   24bbb     C1  668   8.307   5.182   8.592 -0.9875 -0.6205  0.4842
   24bbb     H1  669   8.411   5.166   8.623 -0.3255  1.4891 -0.4193
   24bbb     H2  670   8.273   5.084   8.558 -2.0208 -0.6058  1.4099
   24bbb     C2  671   8.407   5.245   8.371  0.6067 -0.0321  0.0342
   24bbb     H3  672   8.378   5.312   8.289 -3.0393  0.2919  1.4224
   24bbb     H4  673   8.392   5.141   8.339  0.0162 -0.3989  1.4164
   24bbb     C3  674   8.168   5.297   8.429 -0.2386 -0.2379 -0.8146
   24bbb     H5  675   8.155   5.362   8.341 -0.8095 -0.9821 -1.3029
   24bbb     H6  676   8.122   5.356   8.509  0.5029 -0.2166 -0.4048
   24bbb     C4  677   8.089   5.164   8.394 -0.1320 -0.4027 -0.1991
   24bbb     H7  678   8.016   5.138   8.471 -0.6159 -2.4315 -1.2617
   24bbb     H8  679   8.159   5.080   8.386 -1.1607 -1.3212  0.2598
   24bbb     C5  680   8.228   5.226   8.715  0.3231 -0.6214 -0.1217
   24bbb     H9  681   8.124   5.239   8.683  0.2358  5.1067  1.2954
   24bbb    H10  682   8.249   5.332   8.734 -1.5088 -0.1902 -0.2769
   24bbb     C6  683   8.552   5.266   8.403 -0.6307  0.2697  0.4535
   24bbb    H11  684   8.602   5.247   8.307  0.9347 -0.8092  1.4315
   24bbb    H12  685   8.586   5.186   8.470  1.5289  0.3890 -0.3937
   24bbb     C7  686   8.024   5.171   8.256 -0.0412 -0.0666 -0.1505
   24bbb    H13  687   7.971   5.075   8.249  1.8743 -1.1427 -0.5043
   24bbb    H14  688   8.098   5.175   8.176  0.3863 -1.2556  0.1629
   24bbb     C8  689   8.605   5.410   8.430  0.3693  0.2126 -0.7255
   24bbb    H15  690   8.558   5.442   8.524 -0.2537 -2.1224 -0.1752
   24bbb    H16  691   8.579   5.484   8.354 -1.1478  1.1883  0.6726
   24bbb     C9  692   8.243   5.136   8.835 -0.3990  0.2036 -0.0665
   24bbb    H17  693   8.337   5.163   8.886  0.9102 -0.7996 -1.8519
   24bbb    H18  694   8.251   5.031   8.803  1.3403  0.8399 -1.9009
   24bbb     O1  695   7.920   5.283   8.246 -0.6928  0.3521 -0.1552
   25bbb     N1  696   6.752   6.666   7.144 -0.3576  0.5937  0.4479
   25bbb     C1  697   6.671   6.544   7.144 -0.4633 -0.1402  0.5888
   25bbb     H1  698   6.567   6.544   7.107 -0.5177  0.6354  0.7119
   25bbb     H2  699   6.660   6.494   7.240 -0.5778 -2.3840 -0.5384
   25bbb     C2  700   6.672   6.795   7.148  0.1581  0.4473 -1.5446
   25bbb     H3  701   6.730   6.887   7.151  0.6178  0.1440 -0.9096
   25bbb     H4  702   6.610   6.793   7.238  0.2229  1.8549 -1.4550
   25bbb     C3  703   6.865   6.655   7.240 -0.3398 -0.0739 -0.3011
   25bbb     H5  704   6.941   6.581   7.212 -1.4843 -0.4825 -2.5957
   25bbb     H6  705   6.825   6.622   7.336 -2.0811 -0.2477 -1.0532
   25bbb     C4  706   6.944   6.785   7.257 -0.3551 -0.3055  0.2351
   25bbb     H7  707   6.883   6.868   7.294  0.4363  0.0128  0.8457
   25bbb     H8  708   6.986   6.823   7.163 -2.7613 -0.6084 -1.0623
   25bbb     C5  709   6.730   6.436   7.051  0.5692 -0.1321 -0.4584
   25bbb     H9  710   6.840   6.441   7.056  0.6563 -1.7965 -0.1661
   25bbb    H10  711   6.698   6.443   6.947  0.6701 -0.4658 -0.5142
   25bbb     C6  712   6.585   6.812   7.023 -0.6312  0.2178  0.1755
   25bbb    H11  713   6.527   6.724   6.994 -0.1051  0.7150 -2.6924
   25bbb    H12  714   6.649   6.829   6.936 -0.2364 -1.7830  0.0184
   25bbb     C7  715   7.066   6.778   7.347 -0.5388  0.0618 -0.0305
   25bbb    H13  716   7.043   6.714   7.433  1.7349 -2.2127 -0.9959
   25bbb    H14  717   7.085   6.882   7.378 -0.4677  0.3558 -1.0209
   25bbb     C8  718   6.493   6.933   7.014  0.5935 -0.1595  0.2921
   25bbb    H15  719   6.452   6.935   6.912  0.4000 -2.1093  0.2958
   25bbb    H16  720   6.546   7.025   7.039 -1.6765  1.6990 -1.2949
   25bbb     C9  721   6.696   6.293   7.102 -0.3802  0.6524  0.8205
   25bbb    H17  722   6.713   6.274   7.209 -2.8018  1.2115  1.3746
   25bbb    H18  723   6.762   6.222   7.052 -1.0203 -0.0787  1.0018
   25bbb     O1  724   7.178   6.723   7.276 -0.0420  0.4774  0.1226
   26bbb     N1  725   7.846   6.771   6.873 -0.6167  0.3742  0.2620
   26bbb     C1  726   7.989   6.729   6.919 -0.1884 -0.3012  0.7028
   26bbb     H1  727   8.058   6.813   6.933 -0.0805 -0.4662  1.1917
   26bbb     H2  728   8.029   6.666   6.839 -0.5943  1.2575 -0.7813
   26bbb     C2  729   7.841   6.846   6.746  1.0222 -0.5537  0.6335
   26bbb     H3  730   7.737   6.879   6.741  0.9633 -0.8231 -0.1644
   26bbb     H4  731   7.843   6.781   6.658 -1.9761 -1.2024  0.9592
   26bbb     C3  732   7.738   6.667   6.886 -0.5706 -0.2806 -0.2010
   26bbb     H5  733   7.640   6.704   6.852 -0.1142  2.5165  1.2084
   26bbb     H6  734   7.723   6.646   6.993 -1.2970 -0.1599 -0.2733
   26bbb     C4  735   7.785   6.533   6.810 -0.0258  0.5574  0.4252
   26bbb     H7  736   7.893   6.519   6.815  0.4296  3.4766  0.3289
   26bbb     H8  737   7.767   6.543   6.702  0.0555  0.8370  0.4371
   26bbb     C5  738   7.990   6.656   7.059 -0.1661 -0.2289  0.4214
   26bbb     H9  739   7.951   6.554   7.045  2.1033 -1.1638  0.6031
   26bbb    H10  740   7.930   6.713   7.131  0.4677 -0.9947  1.5966
   26bbb     C6  741   7.930   6.978   6.733 -0.1004  0.4130  0.0297
   26bbb    H11  742   7.921   7.028   6.636 -3.0574 -0.8623 -0.4397
   26bbb    H12  743   8.034   6.944   6.737  0.0174  0.7354 -0.2338
   26bbb     C7  744   7.711   6.402   6.860  0.1158 -0.0778 -0.3948
   26bbb    H13  745   7.735   6.401   6.968  2.2180  1.3720 -0.7841
   26bbb    H14  746   7.744   6.308   6.813 -1.0904 -0.5608 -0.3179
   26bbb     C8  747   7.889   7.074   6.855 -0.3772  0.2460  0.1746
   26bbb    H15  748   7.916   7.013   6.942  0.0733  0.0498 -0.0982
   26bbb    H16  749   7.782   7.100   6.857 -0.0343  1.7282 -0.2277
   26bbb     C9  750   8.124   6.650   7.130  0.4961 -0.2583 -0.3358
   26bbb    H17  751   8.115   6.637   7.239  1.7425 -0.0553 -0.1961
   26bbb    H18  752   8.178   6.741   7.101  0.3958 -0.8663 -2.6256
   26bbb     O1  753   7.566   6.411   6.832 -0.0434 -0.4524  0.2885
   27bbb     N1  754   6.504   7.848   9.889 -0.4829  0.2091  0.4030
   27bbb     C1  755   6.589   7.938   9.808 -0.4464 -0.5371 -0.2755
   27bbb     H1  756   6.566   8.040   9.842  0.0366 -0.2819 -0.7006
   27bbb     H2  757   6.563   7.920   9.703 -0.2486 -0.1088 -0.4007
   27bbb     C2  758   6.364   7.892   9.890 -0.2728  0.5465  0.6483
   27bbb     H3  759   6.357   8.001   9.901 -0.2293  0.7629 -1.1938
   27bbb     H4  760   6.323   7.863   9.987  1.3499 -1.0484  0.9123
   27bbb     C3  761   6.526   7.706   9.872  0.1758  0.1396 -0.2440
   27bbb     H5  762   6.633   7.682   9.881  0.6774  1.3335 -2.2953
   27bbb     H6  763   6.482   7.676   9.776  0.1509 -0.9098  0.0830
   27bbb     C4  764   6.461   7.619   9.978  0.3513 -0.7930  0.5394
   27bbb     H7  765   6.363   7.657  10.008  1.8286  0.7873  3.7696
   27bbb     H8  766   6.517   7.635  10.071  1.5213  2.5815 -0.5753
   27bbb     C5  767   6.738   7.919   9.823  1.1548  0.4320 -0.1071
   27bbb     H9  768   6.793   7.994   9.764  0.9559  0.0950 -0.7251
   27bbb    H10  769   6.766   7.822   9.780  0.2971 -0.9398  2.2746
   27bbb     C6  770   6.272   7.841   9.773  0.0642  0.6346 -0.0865
   27bbb    H11  771   6.268   7.732   9.779 -1.7057  0.6941  0.7431
   27bbb    H12  772   6.319   7.871   9.679  0.0532  0.2911 -0.1999
   27bbb     C7  773   6.441   7.466   9.957 -0.5375  0.3143  0.6798
   27bbb    H13  774   6.378   7.428  10.038 -0.6056  1.2977  1.1069
   27bbb    H14  775   6.539   7.416   9.956 -1.5621 -1.8211 -1.6744
   27bbb     C8  776   6.130   7.898   9.787  0.4962  0.1469 -0.1532
   27bbb    H15  777   6.089   7.877   9.887  2.1457  4.8644  1.7972
   27bbb    H16  778   6.070   7.844   9.713  1.7703 -0.9248 -0.4524
   27bbb     C9  779   6.792   7.938   9.964 -0.3056 -0.1838  0.7013
   27bbb    H17  780   6.717   7.905  10.037 -1.4887 -0.6438 -0.6720
   27bbb    H18  781   6.812   8.044   9.982 -0.7083  0.5466 -2.6050
   27bbb     O1  782   6.390   7.441   9.827  0.4749  0.2829 -0.0654
   28bbb     N1  783   5.954   7.069   9.990 -0.2404  0.3983  0.6102
   28bbb     C1  784   5.972   7.096  10.135 -0.4322  0.2011  0.0391
   28bbb     H1  785   5.876   7.108  10.186  0.4703 -0.2108  1.9444
   28bbb     H2  786   6.034   7.184  10.156  0.7962 -0.4454 -0.7437
   28bbb     C2  787   5.841   6.972   9.960 -0.4982 -0.3757 -0.2607
   28bbb     H3  788   5.865   6.873  10.000 -0.5301  0.3607  1.6691
   28bbb     H4  789   5.834   6.960   9.851 -0.5696  0.7105 -0.3913
   28bbb     C3  790   6.075   7.020   9.919 -0.3944 -0.1170 -0.3373
   28bbb     H5  791   6.115   6.931   9.969 -0.0076  0.7518  0.9733
   28bbb     H6  792   6.152   7.098   9.911 -0.1753 -0.4118 -1.2379
   28bbb     C4  793   6.057   6.986   9.772  0.6489 -1.0630 -0.2802
   28bbb     H7  794   5.995   7.059   9.718 -0.5481 -0.3830  1.8897
   28bbb     H8  795   6.002   6.893   9.758  0.0184 -0.5862 -1.1231
   28bbb     C5  796   6.044   6.980  10.217  0.1249  0.0188 -0.4177
   28bbb     H9  797   6.143   6.965  10.173  1.2127 -1.2382  2.1991
   28bbb    H10  798   5.988   6.886  10.201 -0.0173  0.2821 -1.5857
   28bbb     C6  799   5.697   6.995  10.021 -0.2079  0.1184  0.3990
   28bbb    H11  800   5.662   7.093   9.987  0.6845  0.1079 -0.5779
   28bbb    H12  801   5.696   6.996  10.131  0.9613  0.1048  0.4155
   28bbb     C7  802   6.184   6.940   9.697 -0.4734  0.0211 -0.2718
   28bbb    H13  803   6.195   6.831   9.688  0.2918  0.2451 -2.3968
   28bbb    H14  804   6.267   6.982   9.756 -0.6191  0.1935 -0.1883
   28bbb     C8  805   5.595   6.887   9.972  0.5593 -0.2066  0.2591
   28bbb    H15  806   5.491   6.900  10.002 -0.6541 -1.6531 -2.9055
   28bbb    H16  807   5.638   6.794  10.012  1.2038  0.9808  2.5275
   28bbb     C9  808   6.059   7.004  10.373  0.1140 -0.5373  0.7425
   28bbb    H17  809   6.098   7.105  10.391  0.0299 -0.7199  2.0881
   28bbb    H18  810   5.961   7.005  10.423 -0.1626  0.6567  0.2153
   28bbb     O1  811   6.183   6.989   9.567  0.6497  0.0778 -0.6992
   29bbb     N1  812   5.894   8.253   8.034 -0.4069  0.4389 -0.0109
   29bbb     C1  813   5.881   8.386   8.107  0.0784 -0.6440 -0.3166
   29bbb     H1  814   5.942   8.464   8.060 -0.1245 -1.3940 -1.9063
   29bbb     H2  815   5.912   8.375   8.212 -1.6363 -0.5931  0.2307
   29bbb     C2  816   6.037   8.212   8.013  0.2920 -0.5954 -0.4773
   29bbb     H3  817   6.086   8.196   8.110 -0.2759 -1.3570 -0.3089
   29bbb     H4  818   6.093   8.300   7.978 -0.2935  0.3817  0.9391
   29bbb     C3  819   5.800   8.141   8.076  0.4027  0.3040 -0.4509
   29bbb     H5  820   5.814   8.053   8.011  1.8992  0.5066 -0.4427
   29bbb     H6  821   5.694   8.167   8.061 -0.5335 -3.3250 -1.1324
   29bbb     C4  822   5.808   8.088   8.221 -0.6474  0.2030 -0.5904
   29bbb     H7  823   5.746   8.001   8.246 -0.0964  0.4108  1.7771
   29bbb     H8  824   5.770   8.163   8.292 -0.1405  1.8942 -2.0436
   29bbb     C5  825   5.738   8.444   8.105 -0.2625  0.5591 -0.0268
   29bbb     H9  826   5.671   8.379   8.162 -0.2194 -0.8242 -1.5186
   29bbb    H10  827   5.726   8.436   7.997  2.1894  0.1769 -0.3215
   29bbb     C6  828   6.068   8.077   7.932  0.2256 -0.6705 -0.1579
   29bbb    H11  829   6.033   8.084   7.829  0.4570  0.7030 -0.1667
   29bbb    H12  830   6.006   7.998   7.977 -2.1269  2.2879  2.3699
   29bbb     C7  831   5.941   8.050   8.275  0.3905 -0.3221  0.0873
   29bbb    H13  832   5.998   8.143   8.283 -1.6893  1.0868 -0.4515
   29bbb    H14  833   5.988   7.983   8.203  0.9377  0.1831 -0.0296
   29bbb     C8  834   6.226   8.052   7.918  0.7963 -0.0339 -0.6741
   29bbb    H15  835   6.249   7.966   7.855 -1.3888 -1.5664  0.4839
   29bbb    H16  836   6.274   8.037   8.015 -1.3853  1.1518  0.6645
   29bbb     C9  837   5.730   8.594   8.153 -0.6636 -0.0623  0.0841
   29bbb    H17  838   5.803   8.653   8.097 -3.6481  0.0311 -4.1060
   29bbb    H18  839   5.752   8.595   8.261 -0.3262 -0.7832  0.0282
   29bbb     O1  840   5.930   7.989   8.411  0.1912 -0.0214  0.5760
   30bbb     N1  841   5.534   6.931   7.891 -0.4169  0.0927  0.1201
   30bbb     C1  842   5.392   6.957   7.861  0.2857  0.2219 -0.1509
   30bbb     H1  843   5.367   6.917   7.763  0.6728  1.1567 -0.6450
   30bbb     H2  844   5.391   7.066   7.851 -1.7583  0.2395 -0.2620
   30bbb     C2  845   5.595   6.793   7.889  0.7851 -0.7984 -0.7253
   30bbb     H3  846   5.543   6.735   7.966  0.2029 -0.0256 -0.5266
   30bbb     H4  847   5.702   6.799   7.915  1.1404 -1.1320 -2.0308
   30bbb     C3  848   5.583   7.018   8.007 -0.7896 -0.8869 -0.1751
   30bbb     H5  849   5.547   6.974   8.101  0.8761 -1.3804  0.2728
   30bbb     H6  850   5.544   7.118   7.989  0.2447 -0.6565 -1.2420
   30bbb     C4  851   5.735   7.028   8.020  0.5187  0.0092  0.0672
   30bbb     H7  852   5.781   7.064   7.927 -0.3671 -0.1181 -0.4329
   30bbb     H8  853   5.788   6.936   8.051  0.3212  0.0712  0.5852
   30bbb     C5  854   5.282   6.922   7.975  0.6536  0.2583 -0.2510
   30bbb     H9  855   5.351   6.928   8.061 -1.1343  2.0105  1.1492
   30bbb    H10  856   5.318   6.821   7.951 -0.1521 -0.1960  0.4232
   30bbb     C6  857   5.581   6.716   7.759  0.3230 -0.0885  0.4526
   30bbb    H11  858   5.677   6.666   7.737  0.2484  0.7091 -2.0034
   30bbb    H12  859   5.577   6.792   7.680  2.1394 -0.8026 -0.4025
   30bbb     C7  860   5.778   7.126   8.134 -0.4331 -0.5278 -0.2508
   30bbb    H13  861   5.881   7.105   8.164 -0.7272 -2.6429 -0.6035
   30bbb    H14  862   5.710   7.108   8.218  0.9111 -0.8978  0.7998
   30bbb     C8  863   5.461   6.622   7.744 -0.2194 -0.4332  0.0734
   30bbb    H15  864   5.371   6.662   7.697  0.5302 -0.4522 -1.4466
   30bbb    H16  865   5.435   6.592   7.846  1.1887  0.4098  0.7082
   30bbb     C9  866   5.028   6.966   7.997 -0.0945  0.6524 -0.1433
   30bbb    H17  867   4.967   6.907   7.928  1.5117  1.1654 -2.1046
   30bbb    H18  868   4.990   7.058   7.950  0.7654  1.4533  0.6698
   30bbb     O1  869   5.747   7.262   8.093  0.1663  0.2866  0.6438
   31bbb     N1  870   9.933   6.561  10.170 -0.4290 -0.4558 -0.2181
   31bbb     C1  871  10.013   6.453  10.119 -0.4194  0.0326  0.4750
   31bbb     H1  872  10.072   6.398  10.193  2.5713  2.2740 -0.0150
   31bbb     H2  873  10.098   6.489  10.059  0.0482 -0.0603  1.0645
   31bbb     C2  874  10.007   6.657  10.259  0.4068 -0.9568 -0.4019
   31bbb     H3  875   9.937   6.729  10.303  0.5075 -1.8897  1.4099
   31bbb     H4  876  10.080   6.712  10.198  2.5753 -2.0341  1.0665
   31bbb     C3  877   9.868   6.633  10.062  0.2429  0.1792  0.3649
   31bbb     H5  878   9.823   6.553  10.002  1.2087 -1.5866  1.8983
   31bbb     H6  879   9.941   6.687  10.001  1.5428 -1.5156  0.3569
   31bbb     C4  880   9.751   6.725  10.118 -0.8616 -0.2895 -0.2966
   31bbb     H7  881   9.719   6.714  10.222 -0.2820  3.7142  0.4738
   31bbb     H8  882   9.663   6.710  10.053  0.7963  0.2383 -2.8035
   31bbb     C5  883   9.947   6.339  10.037  0.4472 -1.2792 -0.4688
   31bbb     H9  884  10.039   6.283  10.014  1.0075  0.0412 -1.6296
   31bbb    H10  885   9.912   6.380   9.942  1.1811 -1.0631 -0.6543
   31bbb     C6  886  10.101   6.590  10.368 -0.1558  0.1716  0.4472
   31bbb    H11  887  10.198   6.578  10.319 -0.2389  1.2310 -0.0042
   31bbb    H12  888  10.056   6.494  10.399 -2.2273  0.3303 -1.8026
   31bbb     C7  889   9.786   6.875  10.085  0.0918 -0.1437 -0.3020
   31bbb    H13  890   9.844   6.878   9.992  3.4157 -0.5620  1.5837
   31bbb    H14  891   9.860   6.909  10.158  1.1831 -0.5216 -1.2093
   31bbb     C8  892  10.114   6.685  10.492  0.1896 -0.1573 -0.5340
   31bbb    H15  893  10.014   6.697  10.535  0.9981  0.0535  1.4234
   31bbb    H16  894  10.137   6.789  10.464 -1.4629  1.3819  3.1384
   31bbb     C9  895   9.845   6.244  10.101 -0.1993  0.3330 -0.1908
   31bbb    H17  896   9.746   6.284  10.125 -0.7401 -0.4776 -0.9785
   31bbb    H18  897   9.885   6.207  10.196 -1.5785 -1.0401 -0.1213
   31bbb     O1  898   9.668   6.962  10.084 -0.1403  0.3235 -0.6936
   32bbb     N1  899   9.311   7.057  10.423  0.6005 -0.3947 -0.4404
   32bbb     C1  900   9.308   6.988  10.556  0.3109  0.3814 -0.1233
   32bbb     H1  901   9.305   7.064  10.636  1.0507 -0.1293  0.4086
   32bbb     H2  902   9.401   6.936  10.581 -0.2367 -0.0150  1.1870
   32bbb     C2  903   9.173   7.085  10.369  0.5239 -0.3782 -0.1899
   32bbb     H3  904   9.105   7.000  10.365  0.6732 -0.4478 -2.8419
   32bbb     H4  905   9.182   7.104  10.261  0.1861 -0.8189 -0.2952
   32bbb     C3  906   9.391   7.184  10.424 -0.2462 -0.1449 -0.3224
   32bbb     H5  907   9.350   7.255  10.497  0.5209 -0.9006  0.8672
   32bbb     H6  908   9.382   7.234  10.326 -1.8390  0.1605 -0.0488
   32bbb     C4  909   9.541   7.167  10.463 -0.0892 -0.9004  0.2284
   32bbb     H7  910   9.594   7.094  10.399  2.1374  1.9071 -1.4069
   32bbb     H8  911   9.547   7.133  10.567  0.3949 -0.6925  0.2722
   32bbb     C5  912   9.210   6.873  10.579  0.7954 -0.5033 -0.7512
   32bbb     H9  913   9.242   6.786  10.520  1.9595 -1.0775  0.6528
   32bbb    H10  914   9.112   6.911  10.548  2.0860  1.4550 -2.6961
   32bbb     C6  915   9.097   7.195  10.447 -0.0151 -0.3257 -0.4405
   32bbb    H11  916   9.127   7.297  10.418 -2.2964  0.2625 -0.9727
   32bbb    H12  917   9.120   7.175  10.552 -0.9812  1.7535  0.2290
   32bbb     C7  918   9.618   7.294  10.463 -0.8425 -0.3013 -0.2827
   32bbb    H13  919   9.723   7.273  10.487 -0.9560  0.1368  0.6623
   32bbb    H14  920   9.588   7.352  10.551 -0.0466  1.3542 -1.0474
   32bbb     C8  921   8.952   7.185  10.417  0.1135 -0.6317 -0.0195
   32bbb    H15  922   8.915   7.084  10.439  1.4133 -0.6721  2.2803
   32bbb    H16  923   8.938   7.204  10.309  1.8321  0.5207 -0.0681
   32bbb     C9  924   9.210   6.828  10.726  0.1875 -0.1547 -0.5529
   32bbb    H17  925   9.197   6.910  10.797  0.8160 -2.2118  2.0900
   32bbb    H18  926   9.304   6.782  10.760 -0.1475 -0.9127 -0.6417
   32bbb     O1  927   9.608   7.378  10.348  0.0647  0.8066 -0.0054
   33bbb     N1  928   9.815   8.668   8.264  0.3629 -0.0306 -0.1319
   33bbb     C1  929   9.951   8.614   8.228 -0.1202  0.2094  0.3531
   33bbb     H1  930  10.030   8.664   8.286 -0.7384 -0.2717  1.6637
   33bbb     H2  931   9.984   8.621   8.124  1.8747 -0.4945  0.9071
   33bbb     C2  932   9.810   8.812   8.252 -0.5324  0.4264 -0.0593
   33bbb     H3  933   9.882   8.849   8.326 -0.3040 -2.9047  1.5623
   33bbb     H4  934   9.711   8.847   8.284 -2.2215 -2.1373 -2.0057
   33bbb     C3  935   9.759   8.630   8.399 -0.0332 -0.1477 -0.9005
   33bbb     H5  936   9.746   8.521   8.401  0.1814 -0.1651  0.4907
   33bbb     H6  937   9.659   8.667   8.423  0.6668  0.5531  1.1269
   33bbb     C4  938   9.854   8.666   8.517  0.2649 -0.2796 -0.2383
   33bbb     H7  939   9.832   8.773   8.527 -2.5145 -0.5663 -2.2877
   33bbb     H8  940   9.960   8.645   8.499 -0.0649 -2.2940 -0.0660
   33bbb     C5  941   9.970   8.462   8.250 -1.2548  0.0356 -0.6636
   33bbb     H9  942   9.905   8.407   8.181  0.2468 -3.2489  0.3247
   33bbb    H10  943   9.945   8.430   8.352 -1.2846 -1.4822 -1.1285
   33bbb     C6  944   9.834   8.861   8.106 -0.4517  0.6355  0.0066
   33bbb    H11  945   9.925   8.832   8.052 -0.1842  3.6192 -1.3031
   33bbb    H12  946   9.846   8.970   8.107 -0.4471  0.6613  2.2702
   33bbb     C7  947   9.812   8.581   8.642 -0.3021  0.1176  0.2263
   33bbb    H13  948   9.882   8.601   8.724  1.3283 -1.0543 -0.8119
   33bbb    H14  949   9.823   8.473   8.623  0.9163  0.4112 -0.8979
   33bbb     C8  950   9.715   8.817   8.012 -0.0089 -0.7859 -0.3474
   33bbb    H15  951   9.617   8.854   8.044  0.3869  1.4036 -1.4693
   33bbb    H16  952   9.708   8.708   8.010  0.2703 -0.8189  0.1476
   33bbb     C9  953  10.118   8.420   8.224  0.8398 -0.6577  0.5032
   33bbb    H17  954  10.144   8.451   8.122 -0.0505  0.5007  0.6036
   33bbb    H18  955  10.118   8.310   8.222 -1.0530 -0.6829 -0.0220
   33bbb     O1  956   9.673   8.611   8.681  0.1477  0.1087 -0.0701
   34bbb     N1  957   9.161   8.960   9.475  0.0581  0.3510  0.3048
   34bbb     C1  958   9.187   9.065   9.586 -0.5333  0.2212  0.3242
   34bbb     H1  959   9.176   9.021   9.686  0.8087 -0.1959  0.3178
   34bbb     H2  960   9.114   9.146   9.583 -1.3061 -0.4384 -2.6147
   34bbb     C2  961   9.136   9.015   9.340  0.2682  0.3788 -0.1725
   34bbb     H3  962   9.154   8.949   9.254  2.8086  0.7204  0.0018
   34bbb     H4  963   9.207   9.096   9.322 -0.0414  0.5938 -0.4241
   34bbb     C3  964   9.245   8.832   9.480  0.5294 -0.1728 -0.7536
   34bbb     H5  965   9.239   8.781   9.577 -0.5931 -0.4021 -0.9359
   34bbb     H6  966   9.349   8.866   9.466  0.1121  1.9756  0.8794
   34bbb     C4  967   9.206   8.721   9.379 -0.7590 -0.7320  0.1922
   34bbb     H7  968   9.226   8.748   9.275 -1.1669  1.3060  0.6113
   34bbb     H8  969   9.096   8.717   9.380 -1.0166  1.1070 -3.6529
   34bbb     C5  970   9.330   9.120   9.586  0.0002  0.1576 -0.2011
   34bbb     H9  971   9.344   9.176   9.494 -0.0803 -1.6757 -1.3783
   34bbb    H10  972   9.394   9.031   9.583  1.1693  0.9950 -0.7132
   34bbb     C6  973   8.986   9.055   9.319 -0.3068 -0.0012  0.3302
   34bbb    H11  974   8.965   9.148   9.264 -0.8924  1.5048  2.9316
   34bbb    H12  975   8.939   9.077   9.416  1.8765  0.7581  1.2937
   34bbb     C7  976   9.262   8.578   9.409  0.4703 -0.0405 -0.0233
   34bbb    H13  977   9.229   8.519   9.322  1.5219 -0.5845 -0.0634
   34bbb    H14  978   9.222   8.537   9.502 -1.6580  1.1101 -0.3608
   34bbb     C8  979   8.902   8.943   9.251  0.0554 -0.4026  0.6399
   34bbb    H15  980   8.908   8.842   9.294  0.0824 -1.5890 -1.9326
   34bbb    H16  981   8.932   8.936   9.145  1.4902  0.5164  0.9573
   34bbb     C9  982   9.357   9.207   9.711 -0.2479 -0.7829  0.6056
   34bbb    H17  983   9.318   9.165   9.805 -2.5273  0.5273  0.3171
   34bbb    H18  984   9.301   9.297   9.681  0.5415 -0.8688 -1.2405
   34bbb     O1  985   9.402   8.595   9.415 -0.2600 -0.3893  0.2621
   35bbb     N1  986   7.622   5.892   7.782 -0.0326  0.0202 -0.5201
   35bbb     C1  987   7.536   5.912   7.902  0.1910 -0.2136 -0.9272
   35bbb     H1  988   7.594   5.952   7.986  0.3745 -0.8351 -0.7552
   35bbb     H2  989   7.510   5.812   7.940 -0.0882  0.4043  0.6058
   35bbb     C2  990   7.641   6.004   7.691 -0.0546 -0.0987 -0.2101
   35bbb     H3  991   7.716   6.065   7.743  0.2673 -0.2478 -0.4900
   35bbb     H4  992   7.541   6.043   7.671 -0.0312 -0.1984 -0.5192
   35bbb     C3  993   7.737   5.801   7.800 -0.2546 -0.0558  0.2207
   35bbb     H5  994   7.765   5.767   7.699 -4.1684  0.5682 -1.2598
   35bbb     H6  995   7.722   5.707   7.854  0.9665 -2.0111 -2.5812
   35bbb     C4  996   7.866   5.872   7.859 -0.0366 -0.1666 -0.8256
   35bbb     H7  997   7.829   5.938   7.939  0.2192 -0.6691 -0.2866
   35bbb     H8  998   7.916   5.935   7.785  2.3886 -1.6497 -0.5628
   35bbb     C5  999   7.408   6.002   7.881 -0.2202 -0.5666 -0.3180
   35bbb     H9 1000   7.429   6.107   7.858  1.7547 -0.6854  0.7611
   35bbb    H10 1001   7.356   6.010   7.977  0.1507  1.9407 -0.2753
   35bbb     C6 1002   7.697   5.966   7.554 -0.0254  0.4771  0.4552
   35bbb    H11 1003   7.798   5.923   7.564 -0.8873 -1.9163 -0.4576
   35bbb    H12 1004   7.716   6.049   7.484  1.1908 -2.1983 -2.6320
   35bbb     C7 1005   7.973   5.786   7.924 -0.4946  0.5895 -0.2897
   35bbb    H13 1006   8.033   5.736   7.847  0.3326 -2.3579  2.0745
   35bbb    H14 1007   7.939   5.715   8.000  2.2842  2.4128  2.9692
   35bbb     C8 1008   7.625   5.856   7.476  0.3267 -0.2623 -0.2581
   35bbb    H15 1009   7.591   5.791   7.558  1.1066  4.1469  4.0204
   35bbb    H16 1010   7.692   5.793   7.416  0.8929  0.0438  0.0455
   35bbb     C9 1011   7.296   5.949   7.782 -0.6260 -0.2640  0.0220
   35bbb    H17 1012   7.304   5.840   7.777  2.5528 -0.1130 -0.9265
   35bbb    H18 1013   7.311   5.992   7.682 -2.7209 -2.5383 -1.4043
   35bbb     O1 1014   8.059   5.864   8.003  0.3502 -0.4183 -0.2734
   36bbb     N1 1015   8.258   5.384   7.883 -0.3710  0.1681  0.1805
   36bbb     C1 1016   8.261   5.242   7.825 -0.6074  0.3124 -0.2410
   36bbb     H1 1017   8.273   5.240   7.716 -0.7453 -2.0615 -0.2587
   36bbb     H2 1018   8.168   5.194   7.857  0.1508 -0.4185  0.9253
   36bbb     C2 1019   8.146   5.453   7.825 -0.0749 -0.1337 -0.1451
   36bbb     H3 1020   8.131   5.557   7.855 -2.6738 -0.2816 -0.7174
   36bbb     H4 1021   8.050   5.416   7.861 -0.5311  1.0238 -0.1271
   36bbb     C3 1022   8.272   5.389   8.030  0.8053  0.0774 -0.1511
   36bbb     H5 1023   8.351   5.319   8.060  0.8766 -0.4365 -1.4954
   36bbb     H6 1024   8.172   5.355   8.061 -0.7373  1.7595 -2.8789
   36bbb     C4 1025   8.295   5.534   8.094 -0.3715  0.6690  0.0343
   36bbb     H7 1026   8.280   5.529   8.202  0.7679  2.1344  0.2875
   36bbb     H8 1027   8.221   5.600   8.046 -1.2107 -1.3644 -1.6545
   36bbb     C5 1028   8.382   5.156   7.876  0.3684 -0.0352  0.2124
   36bbb     H9 1029   8.383   5.149   7.986 -0.3565 -0.2420  0.2080
   36bbb    H10 1030   8.472   5.208   7.842  0.8532 -0.2505  1.1319
   36bbb     C6 1031   8.142   5.459   7.672  0.6317  0.6048  0.3618
   36bbb    H11 1032   8.066   5.533   7.644  0.9304  1.0991  0.8289
   36bbb    H12 1033   8.109   5.364   7.627 -1.4232  2.7226 -3.0817
   36bbb     C7 1034   8.437   5.597   8.071  0.5887  0.1705  0.1960
   36bbb    H13 1035   8.434   5.657   7.980  2.5728  2.4028  1.4967
   36bbb    H14 1036   8.517   5.523   8.069  2.1728  1.8361 -0.6517
   36bbb     C8 1037   8.283   5.514   7.622  0.2015  0.1591 -0.5086
   36bbb    H15 1038   8.293   5.485   7.517 -1.8903  1.0741 -1.0141
   36bbb    H16 1039   8.364   5.477   7.686  0.1478  1.5843  0.4401
   36bbb     C9 1040   8.385   5.013   7.825 -0.5419 -0.1129  0.2634
   36bbb    H17 1041   8.371   5.021   7.716  0.5306  0.0386  0.1216
   36bbb    H18 1042   8.480   4.968   7.857 -0.4113 -1.1837 -1.4635
   36bbb     O1 1043   8.455   5.681   8.189  0.4703 -0.3784 -0.4510
   37bbb     N1 1044   8.781   7.994   7.069 -0.2636  0.2209  0.4912
   37bbb     C1 1045   8.847   7.871   7.007  0.2485 -0.0528  0.3400
   37bbb     H1 1046   8.804   7.786   7.062  0.7508 -0.8882 -0.5206
   37bbb     H2 1047   8.953   7.876   7.037  0.7979 -0.0563 -1.5040
   37bbb     C2 1048   8.826   8.125   7.007  0.2344 -0.1227  0.0718
   37bbb     H3 1049   8.824   8.117   6.898 -0.2594  1.5376 -0.0711
   37bbb     H4 1050   8.930   8.138   7.039 -0.0856 -1.7051  1.9637
   37bbb     C3 1051   8.777   7.998   7.216  0.3852  0.0799  0.6724
   37bbb     H5 1052   8.716   7.914   7.249  0.1777 -0.1387 -0.2268
   37bbb     H6 1053   8.726   8.081   7.266 -3.6544 -2.3103  0.9366
   37bbb     C4 1054   8.915   7.989   7.288  0.5748 -0.5986 -0.0926
   37bbb     H7 1055   8.956   8.091   7.290 -0.4023 -0.2016  1.2967
   37bbb     H8 1056   8.983   7.919   7.238  1.0206 -0.5283  0.4105
   37bbb     C5 1057   8.829   7.842   6.856 -0.5270  0.1073 -0.4208
   37bbb     H9 1058   8.881   7.745   6.846  1.5018  1.2786 -2.2049
   37bbb    H10 1059   8.893   7.913   6.801  3.0580 -2.1364  0.4917
   37bbb     C6 1060   8.738   8.246   7.043  0.0281 -0.1286 -0.0646
   37bbb    H11 1061   8.731   8.254   7.153 -1.5589 -0.7185 -0.0941
   37bbb    H12 1062   8.636   8.225   7.008 -0.4130  0.1854  0.9751
   37bbb     C7 1063   8.893   7.955   7.437  0.2594  0.2947  0.0599
   37bbb    H13 1064   8.807   8.016   7.468  0.2105  0.1368  0.2349
   37bbb    H14 1065   8.981   7.982   7.497 -0.6378 -0.5077  1.8205
   37bbb     C8 1066   8.804   8.373   6.996 -0.0611 -0.5682 -0.4831
   37bbb    H15 1067   8.844   8.360   6.894  1.1856 -0.3880 -0.0355
   37bbb    H16 1068   8.893   8.387   7.058 -1.5411 -0.2809  1.6691
   37bbb     C9 1069   8.678   7.836   6.813 -0.8301 -0.7270  0.2914
   37bbb    H17 1070   8.618   7.915   6.861 -2.4896 -0.2472 -2.3562
   37bbb    H18 1071   8.637   7.738   6.842 -0.5168 -0.5976  1.1910
   37bbb     O1 1072   8.860   7.820   7.456 -0.2525 -0.2524 -0.2054
   38bbb     N1 1073   9.620   7.187   7.561  0.1630  0.0124  0.0632
   38bbb     C1 1074   9.702   7.235   7.449 -0.8432 -0.3416 -0.7848
   38bbb     H1 1075   9.787   7.290   7.491 -1.5085 -0.0333  0.1939
   38bbb     H2 1076   9.647   7.316   7.399 -2.3363 -2.0611 -2.1191
   38bbb     C2 1077   9.602   7.280   7.676 -0.8564 -0.6524 -0.3170
   38bbb     H3 1078   9.513   7.256   7.735 -0.5983  0.6070  0.6474
   38bbb     H4 1079   9.590   7.383   7.640 -3.1670 -0.3552  1.1158
   38bbb     C3 1080   9.482   7.113   7.532  0.2978  0.3598  0.5187
   38bbb     H5 1081   9.438   7.089   7.629  0.6606 -1.3582  0.2918
   38bbb     H6 1082   9.501   7.021   7.474 -0.6053  0.9345 -0.7385
   38bbb     C4 1083   9.373   7.203   7.463  0.1961  0.2485  0.1150
   38bbb     H7 1084   9.409   7.254   7.373 -1.5293 -0.0906 -0.8021
   38bbb     H8 1085   9.340   7.276   7.538 -0.5384 -1.1382  1.1841
   38bbb     C5 1086   9.755   7.122   7.346  0.7618 -0.1926 -0.7081
   38bbb     H9 1087   9.659   7.071   7.362  0.9996 -0.8830 -1.4043
   38bbb    H10 1088   9.793   7.059   7.427  2.4869  0.0465 -1.2926
   38bbb     C6 1089   9.730   7.284   7.772 -0.2456 -0.3663 -0.2927
   38bbb    H11 1090   9.713   7.376   7.830 -1.1454 -1.1520  0.7299
   38bbb    H12 1091   9.827   7.291   7.721  0.2684  0.3790  0.7601
   38bbb     C7 1092   9.245   7.128   7.428  0.3784 -0.0053  0.0034
   38bbb    H13 1093   9.208   7.071   7.515  1.1242  0.7813  0.8605
   38bbb    H14 1094   9.250   7.058   7.343  0.5671 -0.2612  0.2215
   38bbb     C8 1095   9.737   7.157   7.865  0.1672 -0.1245 -0.3122
   38bbb    H15 1096   9.753   7.066   7.807 -2.2638 -0.2943 -0.8109
   38bbb    H16 1097   9.642   7.139   7.917  0.1726 -1.2868 -0.6860
   38bbb     C9 1098   9.878   7.133   7.118  0.2021  0.4704  0.0526
   38bbb    H17 1099   9.984   7.162   7.111  0.6227 -1.0565 -0.3238
   38bbb    H18 1100   9.859   7.217   7.049  1.0334  0.1595 -0.5782
   38bbb     O1 1101   9.145   7.227   7.399 -0.2173 -0.2919 -0.1256
   39bbb     N1 1102   6.470   7.163  11.222  0.2474  0.0387 -0.6565
   39bbb     C1 1103   6.604   7.227  11.232  0.8829  0.0182  0.0769
   39bbb     H1 1104   6.609   7.278  11.328  1.7507 -0.6371  0.3963
   39bbb     H2 1105   6.619   7.304  11.155  0.3648 -0.1595 -0.2095
   39bbb     C2 1106   6.371   7.275  11.213  0.2365 -0.8905  0.0269
   39bbb     H3 1107   6.396   7.329  11.122  1.6192  0.2659  1.0539
   39bbb     H4 1108   6.383   7.345  11.296  0.5330 -1.9029  0.8630
   39bbb     C3 1109   6.460   7.056  11.118  0.0178  0.1478 -0.1574
   39bbb     H5 1110   6.367   6.998  11.115 -0.0061  0.2115 -0.9055
   39bbb     H6 1111   6.548   6.993  11.131  1.5194  2.2154  0.1550
   39bbb     C4 1112   6.483   7.111  10.978 -0.0338  0.4163  0.0251
   39bbb     H7 1113   6.585   7.151  10.970 -0.2994  1.7187  2.4713
   39bbb     H8 1114   6.411   7.192  10.963 -2.1665 -1.8145 -3.1790
   39bbb     C5 1115   6.732   7.142  11.229 -0.0144 -0.4477  0.2204
   39bbb     H9 1116   6.740   7.106  11.126  1.5305 -0.0245  0.1701
   39bbb    H10 1117   6.725   7.054  11.293  1.6017 -0.0149  1.0516
   39bbb     C6 1118   6.225   7.235  11.194 -0.4372  0.3499  0.0094
   39bbb    H11 1119   6.223   7.133  11.154  0.4431  0.0020  0.8288
   39bbb    H12 1120   6.179   7.309  11.127 -2.2535 -1.1766 -0.5303
   39bbb     C7 1121   6.452   7.008  10.870  0.2455  0.4469 -0.4959
   39bbb    H13 1122   6.378   6.936  10.906  1.7168  0.1481  2.2108
   39bbb    H14 1123   6.545   6.950  10.867 -1.1673 -2.0411  0.5663
   39bbb     C8 1124   6.132   7.233  11.317 -0.5080 -0.1943  0.1624
   39bbb    H15 1125   6.174   7.297  11.395  1.3853 -1.4994  0.2747
   39bbb    H16 1126   6.134   7.128  11.347  0.7971 -0.9316 -2.2286
   39bbb     C9 1127   6.852   7.230  11.270  0.2490 -0.3651  0.7136
   39bbb    H17 1128   6.831   7.267  11.371  2.2816  0.2352  0.9619
   39bbb    H18 1129   6.852   7.310  11.195 -1.5978 -1.6540 -0.7682
   39bbb     O1 1130   6.415   7.078  10.749  0.4410  0.2172  0.5571
   40bbb     N1 1131   6.298   6.479  10.138 -0.8618  0.2948 -0.0276
   40bbb     C1 1132   6.337   6.429  10.274  0.2164 -0.4031  0.3391
   40bbb     H1 1133   6.300   6.326  10.280  1.3400 -0.7416  2.4601
   40bbb     H2 1134   6.286   6.487  10.352 -1.8469 -0.8199 -0.6143
   40bbb     C2 1135   6.154   6.459  10.092 -0.0432  0.3938 -0.3721
   40bbb     H3 1136   6.105   6.366  10.122 -2.5900  1.8066  0.0878
   40bbb     H4 1137   6.153   6.444   9.984 -0.4960 -1.0818 -0.1850
   40bbb     C3 1138   6.356   6.608  10.111 -0.0965 -0.3860  0.2266
   40bbb     H5 1139   6.460   6.616  10.145 -0.6023  1.5132  1.5013
   40bbb     H6 1140   6.306   6.688  10.166 -2.3803 -0.9579 -0.8982
   40bbb     C4 1141   6.360   6.632   9.960  0.1207  0.1057 -0.8916
   40bbb     H7 1142   6.268   6.671   9.915 -0.9437 -1.5039 -0.2275
   40bbb     H8 1143   6.395   6.536   9.920  0.2315 -0.5469  0.6977
   40bbb     C5 1144   6.485   6.426  10.316  0.1746 -0.3005 -0.7064
   40bbb     H9 1145   6.481   6.394  10.421  0.6829  1.3792 -0.1322
   40bbb    H10 1146   6.523   6.526  10.340  0.1346 -0.7259  1.3960
   40bbb     C6 1147   6.058   6.568  10.127 -0.2039 -0.1769 -0.9633
   40bbb    H11 1148   6.082   6.660  10.071  1.0536  0.9653  1.2985
   40bbb    H12 1149   6.057   6.592  10.234 -1.4144  1.7087 -1.3451
   40bbb     C7 1150   6.445   6.751   9.926  0.2701 -1.0316 -0.8441
   40bbb    H13 1151   6.463   6.754   9.818  3.1235  0.1474 -0.4366
   40bbb    H14 1152   6.547   6.724   9.959  1.7670  1.4988 -3.0389
   40bbb     C8 1153   5.907   6.540  10.097  0.0509 -0.2935 -0.0904
   40bbb    H15 1154   5.843   6.628  10.110 -1.1123 -0.4185 -3.8492
   40bbb    H16 1155   5.869   6.472  10.173 -0.6062  2.5804  2.3379
   40bbb     C9 1156   6.576   6.340  10.229  0.0822 -0.5803  0.8609
   40bbb    H17 1157   6.564   6.376  10.126 -1.6385  0.8466  1.5007
   40bbb    H18 1158   6.547   6.235  10.234 -3.2214  0.1298 -0.4635
   40bbb     O1 1159   6.391   6.867   9.984  0.3333 -1.2356  0.3439
   41bbb     N1 1160   6.012   8.623  10.016 -0.2295 -0.3296 -0.3147
   41bbb     C1 1161   5.914   8.596  10.125 -0.1412 -0.8316  0.0008
   41bbb     H1 1162   5.837   8.535  10.077  0.1843 -0.5651 -0.8682
   41bbb     H2 1163   5.871   8.697  10.138 -1.4079 -1.4372  0.7555
   41bbb     C2 1164   5.965   8.703   9.900 -0.2821  0.0922  0.3781
   41bbb     H3 1165   5.939   8.800   9.944 -0.2789  0.0475  0.4774
   41bbb     H4 1166   5.875   8.662   9.854  0.7416 -1.5134 -0.2721
   41bbb     C3 1167   6.079   8.506   9.967 -0.0747  0.1382  0.2704
   41bbb     H5 1168   6.036   8.476   9.871 -1.7818  0.2874  0.9531
   41bbb     H6 1169   6.051   8.429  10.040  0.4275 -1.6981 -1.4152
   41bbb     C4 1170   6.232   8.513   9.962 -0.4931  0.3657 -0.4431
   41bbb     H7 1171   6.265   8.518  10.066  2.1698  2.5240 -1.2781
   41bbb     H8 1172   6.263   8.606   9.914 -1.2757  0.8783  0.0140
   41bbb     C5 1173   5.975   8.546  10.262  0.5140  0.2664  0.2691
   41bbb     H9 1174   6.015   8.445  10.244  0.4969  0.5827 -1.7440
   41bbb    H10 1175   5.891   8.537  10.333  0.5437  0.4731  0.3272
   41bbb     C6 1176   6.075   8.757   9.794 -0.6016 -0.5290 -0.6853
   41bbb    H11 1177   6.102   8.669   9.734  1.5860 -0.1136 -0.3854
   41bbb    H12 1178   6.162   8.790   9.852 -1.2271 -1.0712  0.5923
   41bbb     C7 1179   6.293   8.395   9.885  0.2683  0.4162 -0.5267
   41bbb    H13 1180   6.249   8.298   9.909 -0.2320  0.3284 -1.7010
   41bbb    H14 1181   6.401   8.384   9.900  0.2568 -0.9319 -1.2657
   41bbb     C8 1182   6.026   8.881   9.709 -0.2138 -0.0301  0.2835
   41bbb    H15 1183   5.979   8.953   9.776  0.9468  0.9623  0.0623
   41bbb    H16 1184   5.953   8.843   9.637  0.7868 -1.0531 -0.2345
   41bbb     C9 1185   6.084   8.636  10.310  0.0140  0.0596 -0.6764
   41bbb    H17 1186   6.042   8.738  10.308  0.0799  0.1414  0.8487
   41bbb    H18 1187   6.175   8.642  10.249 -0.8211  0.0884 -1.9693
   41bbb     O1 1188   6.278   8.421   9.744 -0.3568 -0.5302  0.5433
   42bbb     N1 1189   5.712   8.267   8.903  0.4909 -0.7093 -0.1886
   42bbb     C1 1190   5.741   8.385   8.998 -0.7571 -0.3860  0.3878
   42bbb     H1 1191   5.743   8.476   8.937 -1.9958 -2.1637 -2.5103
   42bbb     H2 1192   5.846   8.373   9.029  0.0360  2.0902 -1.0519
   42bbb     C2 1193   5.779   8.289   8.770 -0.1777  0.6185  0.4015
   42bbb     H3 1194   5.774   8.194   8.715 -2.0481  0.8648  0.0747
   42bbb     H4 1195   5.886   8.304   8.785  0.8525 -3.7058 -1.1351
   42bbb     C3 1196   5.689   8.131   8.956  1.0740 -0.0111 -0.0560
   42bbb     H5 1197   5.641   8.070   8.878  0.3505 -0.2194  0.5406
   42bbb     H6 1198   5.627   8.148   9.045  1.7146  3.2095 -0.0903
   42bbb     C4 1199   5.813   8.052   8.999  0.2247  0.0837  0.0770
   42bbb     H7 1200   5.883   8.048   8.914 -0.6562 -1.6104 -0.6147
   42bbb     H8 1201   5.778   7.950   9.018 -0.9901  0.5417  0.3463
   42bbb     C5 1202   5.661   8.402   9.127 -0.4724  0.1127 -0.0029
   42bbb     H9 1203   5.698   8.492   9.178 -1.4475  0.4845  0.0724
   42bbb    H10 1204   5.691   8.317   9.190 -0.0637  1.5454  1.8401
   42bbb     C6 1205   5.716   8.391   8.674 -0.1782  0.8205  0.3429
   42bbb    H11 1206   5.751   8.487   8.714  1.9999  0.6628 -1.0076
   42bbb    H12 1207   5.608   8.401   8.686 -0.0406  0.7811  1.8533
   42bbb     C7 1208   5.877   8.100   9.132  0.0857 -0.3734  0.0832
   42bbb    H13 1209   5.808   8.086   9.216 -0.1901  3.3995  0.6265
   42bbb    H14 1210   5.902   8.206   9.125 -2.4054  0.2881  0.2271
   42bbb     C8 1211   5.759   8.372   8.525 -0.2471 -0.0396 -0.2107
   42bbb    H15 1212   5.690   8.430   8.463 -0.8593 -0.7760 -0.2264
   42bbb    H16 1213   5.734   8.269   8.498  0.7883 -0.3391 -0.0906
   42bbb     C9 1214   5.506   8.418   9.091 -0.5902  0.6504 -0.7476
   42bbb    H17 1215   5.478   8.319   9.054  0.3185  0.4744 -0.9727
   42bbb    H18 1216   5.485   8.489   9.010 -0.9279  0.3092 -0.9620
   42bbb     O1 1217   5.997   8.034   9.161  0.1018 -0.2917  0.3772
   43bbb     N1 1218   9.822   7.905   9.080  1.2176 -0.1993  0.4322
   43bbb     C1 1219   9.857   7.764   9.111  0.1018 -0.6924  0.0952
   43bbb     H1 1220   9.878   7.751   9.218  2.8512  0.1647 -0.2764
   43bbb     H2 1221   9.947   7.746   9.052  0.2709 -0.9759  0.4399
   43bbb     C2 1222   9.804   7.921   8.932  0.0606 -0.2012 -0.2175
   43bbb     H3 1223   9.711   7.870   8.904 -0.0590  0.0442 -0.2729
   43bbb     H4 1224   9.888   7.889   8.870  1.1775  2.6325 -0.3323
   43bbb     C3 1225   9.712   7.965   9.159 -0.5848 -0.4287  0.0518
   43bbb     H5 1226   9.612   7.942   9.120 -1.7108  0.6932  2.1210
   43bbb     H6 1227   9.721   8.074   9.152 -2.3259 -0.2934 -0.7313
   43bbb     C4 1228   9.719   7.936   9.314 -0.3290 -0.2213 -0.2069
   43bbb     H7 1229   9.815   7.966   9.358 -0.1270  0.9243 -1.3706
   43bbb     H8 1230   9.701   7.830   9.334  0.8685 -0.3557  0.2974
   43bbb     C5 1231   9.749   7.654   9.074 -0.2142 -0.4219 -0.0861
   43bbb     H9 1232   9.706   7.672   8.975 -0.7109 -3.1684 -0.4373
   43bbb    H10 1233   9.663   7.668   9.140 -0.9086 -0.0617 -1.0423
   43bbb     C6 1234   9.780   8.068   8.885 -0.1575  0.1575 -0.4804
   43bbb    H11 1235   9.688   8.105   8.931 -1.4676 -1.9304 -1.2786
   43bbb    H12 1236   9.757   8.073   8.778 -1.1274 -1.2414 -0.3589
   43bbb     C7 1237   9.609   8.007   9.384 -0.1407 -0.3493  0.3268
   43bbb    H13 1238   9.511   7.973   9.349 -0.7877  1.8326 -0.1083
   43bbb    H14 1239   9.621   8.113   9.356  2.7920 -0.8127 -0.5012
   43bbb     C8 1240   9.901   8.174   8.888  0.3665  0.4346  0.2776
   43bbb    H15 1241   9.893   8.263   8.825 -0.4677  1.2547  1.4973
   43bbb    H16 1242   9.989   8.122   8.847  0.0137  0.3613 -0.4059
   43bbb     C9 1243   9.796   7.512   9.090  0.2899  0.2575  0.6373
   43bbb    H17 1244   9.862   7.505   9.178  1.8705 -2.2779 -0.6522
   43bbb    H18 1245   9.865   7.489   9.008 -1.3283 -0.5620 -0.5346
   43bbb     O1 1246   9.621   7.976   9.529 -0.1370  0.1705 -0.2921
   44bbb     N1 1247   9.198   7.616  10.234 -0.1441  0.1128 -0.5261
   44bbb     C1 1248   9.335   7.579  10.292 -0.1414 -0.4215  0.1817
   44bbb     H1 1249   9.413   7.614  10.222 -1.0158  1.8043  0.2431
   44bbb     H2 1250   9.348   7.471  10.288  2.3180 -0.1618 -1.2597
   44bbb     C2 1251   9.162   7.763  10.241  0.4674 -0.2462 -0.3517
   44bbb     H3 1252   9.160   7.800  10.345  0.6096 -1.8805  0.2627
   44bbb     H4 1253   9.062   7.773  10.199  1.8027  1.0252 -3.5555
   44bbb     C3 1254   9.181   7.565  10.097 -0.0110  0.3206  0.2049
   44bbb     H5 1255   9.271   7.596  10.043  0.1047 -0.5182 -0.0970
   44bbb     H6 1256   9.088   7.608  10.057 -0.8591 -0.3164  1.4026
   44bbb     C4 1257   9.157   7.413  10.086 -0.7023 -0.6525  0.4290
   44bbb     H7 1258   9.083   7.399  10.165 -0.6379  0.7601  0.7615
   44bbb     H8 1259   9.254   7.362  10.092  0.2284  0.8590 -1.0400
   44bbb     C5 1260   9.366   7.631  10.429  0.0562  0.2717 -0.0288
   44bbb     H9 1261   9.385   7.739  10.434  0.2095  0.2942 -0.8767
   44bbb    H10 1262   9.459   7.577  10.452 -0.1671  0.3964  1.2269
   44bbb     C6 1263   9.257   7.856  10.170 -0.2406 -0.2776  0.3560
   44bbb    H11 1264   9.258   7.840  10.061 -1.9253 -0.8753  0.4064
   44bbb    H12 1265   9.361   7.841  10.202 -0.2403  1.4435  1.2895
   44bbb     C7 1266   9.097   7.374   9.951  0.4075  0.2779 -0.1795
   44bbb    H13 1267   8.996   7.416   9.944 -0.1868 -0.8532  1.1171
   44bbb    H14 1268   9.093   7.265   9.947  0.1139  0.1888  1.5356
   44bbb     C8 1269   9.224   8.006  10.196  0.1129 -0.0882 -0.5241
   44bbb    H15 1270   9.134   8.036  10.141 -0.5647  1.0331  1.1213
   44bbb    H16 1271   9.305   8.077  10.173  1.5764 -1.5099  0.0697
   44bbb     C9 1272   9.259   7.584  10.530 -0.0829 -0.4104 -0.0284
   44bbb    H17 1273   9.166   7.630  10.495 -0.5730  1.2230  3.0931
   44bbb    H18 1274   9.249   7.474  10.526 -0.5933 -0.3837  0.3984
   44bbb     O1 1275   9.185   7.413   9.848  0.2856 -0.3043  0.2238
   45bbb     N1 1276   7.953   9.256   9.110  0.8367 -0.7579  0.2585
   45bbb     C1 1277   7.989   9.271   8.966 -0.1030  0.0980 -0.6562
   45bbb     H1 1278   7.956   9.178   8.917  1.5976 -0.3353 -1.0486
   45bbb     H2 1279   8.098   9.268   8.963 -0.0467 -2.7889  0.9493
   45bbb     C2 1280   7.806   9.244   9.137  0.0703  0.1008 -0.6074
   45bbb     H3 1281   7.748   9.336   9.119  1.6228  1.0722 -0.8158
   45bbb     H4 1282   7.792   9.231   9.245  1.6729 -0.8160 -0.4800
   45bbb     C3 1283   8.010   9.362   9.196 -0.2287 -0.5272  0.2735
   45bbb     H5 1284   7.946   9.451   9.194  1.3591  0.7098  1.4857
   45bbb     H6 1285   8.112   9.388   9.165 -1.4115  2.2831 -1.7157
   45bbb     C4 1286   8.019   9.321   9.343 -0.1533 -0.4091 -0.1071
   45bbb     H7 1287   8.050   9.215   9.343  1.9500  0.1383  1.5405
   45bbb     H8 1288   7.926   9.334   9.399  0.7575  1.0334  1.1314
   45bbb     C5 1289   7.934   9.388   8.883  0.0953 -0.3506  0.0518
   45bbb     H9 1290   7.825   9.399   8.879  0.1309  0.8194  1.3967
   45bbb    H10 1291   7.956   9.369   8.778  0.4318 -1.5288  0.3250
   45bbb     C6 1292   7.733   9.121   9.074  0.3283  0.1442  0.7288
   45bbb    H11 1293   7.648   9.101   9.140  0.6638 -1.3707  0.7405
   45bbb    H12 1294   7.799   9.033   9.072  1.2522  0.8073  1.2943
   45bbb     C7 1295   8.133   9.399   9.409  0.0955 -0.5345 -0.0871
   45bbb    H13 1296   8.112   9.505   9.429  1.0768 -0.3089 -0.1780
   45bbb    H14 1297   8.221   9.393   9.344 -0.2895 -1.6870 -0.5207
   45bbb     C8 1298   7.678   9.135   8.927  0.1928  0.1099 -0.2745
   45bbb    H15 1299   7.613   9.048   8.909  0.2034  0.4796 -2.2550
   45bbb    H16 1300   7.764   9.129   8.860  1.2197 -3.1730  1.1055
   45bbb     C9 1301   7.990   9.531   8.921 -0.0756 -0.9920  0.2309
   45bbb    H17 1302   7.934   9.576   9.004 -1.2205  0.4007 -1.2321
   45bbb    H18 1303   7.978   9.589   8.829  0.1788 -1.9255 -0.4068
   45bbb     O1 1304   8.169   9.324   9.530 -0.4431 -0.5543 -0.1655
   46bbb     N1 1305   7.849   9.196  10.700  0.4385 -0.0905 -0.2454
   46bbb     C1 1306   7.876   9.338  10.735  0.4380 -0.2505 -0.1669
   46bbb     H1 1307   7.969   9.375  10.690  1.1612  0.4338  1.7642
   46bbb     H2 1308   7.878   9.365  10.842 -1.9490 -0.9339  0.1071
   46bbb     C2 1309   7.737   9.130  10.771  0.2753  0.3216 -0.4641
   46bbb     H3 1310   7.730   9.024  10.746 -1.0302  0.2272  0.2674
   46bbb     H4 1311   7.641   9.180  10.753 -0.1468 -0.6428 -0.9926
   46bbb     C3 1312   7.844   9.163  10.551  1.0130 -0.3647 -0.5237
   46bbb     H5 1313   7.784   9.245  10.509 -0.0786  0.2556  2.0206
   46bbb     H6 1314   7.792   9.067  10.541  1.5622 -0.6794 -0.3833
   46bbb     C4 1315   7.987   9.148  10.494  0.1168 -0.1228 -0.1422
   46bbb     H7 1316   8.029   9.047  10.497 -0.7904 -0.5149 -0.3531
   46bbb     H8 1317   8.047   9.210  10.562 -1.5078  0.8549  0.4576
   46bbb     C5 1318   7.776   9.437  10.666  1.2441  0.2465  0.1117
   46bbb     H9 1319   7.671   9.410  10.679  1.0589  0.5079 -0.7841
   46bbb    H10 1320   7.804   9.441  10.560 -1.7800  1.4001 -0.7430
   46bbb     C6 1321   7.752   9.115  10.921  0.5548  0.2093 -0.1152
   46bbb    H11 1322   7.782   9.211  10.965 -0.8858  1.0178 -0.8462
   46bbb    H12 1323   7.839   9.053  10.948  0.1699 -0.5391 -0.5634
   46bbb     C7 1324   8.007   9.216  10.351 -0.3211 -0.0386  0.4125
   46bbb    H13 1325   7.974   9.320  10.361 -1.2292 -0.1312 -1.3649
   46bbb    H14 1326   7.950   9.162  10.274 -0.1348 -2.2875  1.7569
   46bbb     C8 1327   7.625   9.055  10.985 -0.2017 -0.2357  0.3362
   46bbb    H15 1328   7.619   8.949  10.959  1.8981 -0.3060 -0.0684
   46bbb    H16 1329   7.543   9.109  10.935  0.4770  1.5849  1.1113
   46bbb     C9 1330   7.798   9.587  10.718  0.0445  0.0274  0.7975
   46bbb    H17 1331   7.730   9.611  10.801 -1.0373 -0.0285 -0.0573
   46bbb    H18 1332   7.777   9.644  10.627 -1.6519  1.1908  1.8477
   46bbb     O1 1333   8.143   9.208  10.324 -0.3492 -0.6527  0.7984
   47bbb     N1 1334   6.783   4.280   8.312 -1.0558  0.3128  0.7879
   47bbb     C1 1335   6.706   4.369   8.218 -0.2287  0.0634  0.1736
   47bbb     H1 1336   6.673   4.451   8.283 -1.7512 -2.5821  3.0438
   47bbb     H2 1337   6.616   4.319   8.179  0.0918  0.3555 -0.9610
   47bbb     C2 1338   6.697   4.193   8.397  0.1915 -0.4567 -0.1568
   47bbb     H3 1339   6.648   4.123   8.328  2.7138 -3.0814  0.4837
   47bbb     H4 1340   6.627   4.256   8.453  2.8357  1.2974  1.3860
   47bbb     C3 1341   6.883   4.358   8.389  0.4826 -0.2110  0.3820
   47bbb     H5 1342   6.830   4.380   8.483 -1.5519 -3.2782  0.0887
   47bbb     H6 1343   6.905   4.447   8.329  2.1590 -1.2569 -0.6243
   47bbb     C4 1344   7.024   4.298   8.413  0.0845 -0.1684 -0.1730
   47bbb     H7 1345   7.030   4.213   8.344  1.9886 -0.1940 -0.0280
   47bbb     H8 1346   7.029   4.254   8.514  0.5345  1.8093  0.7160
   47bbb     C5 1347   6.780   4.422   8.092  0.2766  0.6347 -1.0845
   47bbb     H9 1348   6.803   4.336   8.028 -0.0751 -0.2659 -0.0329
   47bbb    H10 1349   6.883   4.453   8.113  0.7816 -0.9271 -1.1405
   47bbb     C6 1350   6.771   4.097   8.500  0.1808  0.4190  0.5933
   47bbb    H11 1351   6.696   4.059   8.571 -0.2943 -2.7900 -1.4456
   47bbb    H12 1352   6.849   4.154   8.552  0.8566  0.0088  0.0462
   47bbb     C7 1353   7.137   4.404   8.408 -0.5653  0.3832 -0.5683
   47bbb    H13 1354   7.136   4.443   8.306  0.3763  1.5831 -0.1524
   47bbb    H14 1355   7.238   4.363   8.420  0.5703  2.0847 -3.3023
   47bbb     C8 1356   6.831   3.971   8.437  0.0852 -0.2147  0.7840
   47bbb    H15 1357   6.922   4.005   8.386 -1.1712  2.0857 -0.0829
   47bbb    H16 1358   6.763   3.918   8.368  1.4943 -2.7084  1.1999
   47bbb     C9 1359   6.707   4.539   8.016 -1.2826  0.3946 -0.2114
   47bbb    H17 1360   6.784   4.560   7.941  0.1695 -1.2802  0.7426
   47bbb    H18 1361   6.701   4.634   8.071  0.1853  0.6105 -0.3922
   47bbb     O1 1362   7.108   4.502   8.509 -0.3768 -0.0402 -0.0026
   48bbb     N1 1363   6.687   5.267   9.221 -0.1537 -0.3214  0.2561
   48bbb     C1 1364   6.546   5.261   9.267  0.6558  0.2693  0.3877
   48bbb     H1 1365   6.475   5.268   9.184 -0.6722  0.9245  1.5483
   48bbb     H2 1366   6.505   5.335   9.336 -3.5068 -0.5171 -0.9638
   48bbb     C2 1367   6.776   5.360   9.300  0.7700 -0.0148 -0.5101
   48bbb     H3 1368   6.754   5.466   9.281 -0.6338 -0.2412 -0.2353
   48bbb     H4 1369   6.882   5.346   9.277  1.9772  2.4236  2.7877
   48bbb     C3 1370   6.693   5.304   9.077  0.0150  0.4893 -0.7967
   48bbb     H5 1371   6.653   5.404   9.055  0.6476  0.7845 -0.6204
   48bbb     H6 1372   6.636   5.224   9.027  1.4266 -0.0415 -1.5916
   48bbb     C4 1373   6.835   5.301   9.020 -0.1986 -0.2959 -0.7565
   48bbb     H7 1374   6.902   5.369   9.073 -0.9858 -0.0299 -0.0678
   48bbb     H8 1375   6.824   5.331   8.915  1.1734  0.3351 -0.7366
   48bbb     C5 1376   6.519   5.128   9.335  0.4395  0.2773  0.0682
   48bbb     H9 1377   6.552   5.137   9.439  0.2221  0.8702  0.0922
   48bbb    H10 1378   6.582   5.054   9.284  1.5788  0.5197  1.0772
   48bbb     C6 1379   6.770   5.349   9.451  0.1330 -0.9437  0.4927
   48bbb    H11 1380   6.783   5.243   9.477 -1.3690 -1.5756 -1.0576
   48bbb    H12 1381   6.666   5.364   9.482  0.3382 -0.0891  0.7931
   48bbb     C7 1382   6.891   5.163   9.022 -0.5288 -0.1881 -0.1214
   48bbb    H13 1383   6.883   5.122   9.123  1.9605 -0.3708  0.0785
   48bbb    H14 1384   6.995   5.167   8.988 -1.1479  4.3137 -2.2249
   48bbb     C8 1385   6.862   5.443   9.531 -0.1846  0.3863  0.2504
   48bbb    H15 1386   6.843   5.545   9.496 -0.3436  0.4484  0.5154
   48bbb    H16 1387   6.969   5.432   9.508  0.0712  1.1032  1.0386
   48bbb     C9 1388   6.375   5.081   9.317 -0.0595  0.0828 -0.2703
   48bbb    H17 1389   6.369   4.971   9.317 -0.0597  0.0445 -2.4163
   48bbb    H18 1390   6.338   5.103   9.216  0.5564 -0.0803 -0.5382
   48bbb     O1 1391   6.822   5.082   8.926 -0.4641  0.3025 -0.0536
   49bbb     N1 1392   9.093   5.118   8.692 -0.0996 -0.3007 -1.0825
   49bbb     C1 1393   9.159   5.102   8.825 -0.1507 -0.0189  0.7511
   49bbb     H1 1394   9.079   5.068   8.893  0.2960 -3.2395 -0.1866
   49bbb     H2 1395   9.208   5.193   8.862  0.8332 -0.0309 -0.4873
   49bbb     C2 1396   9.185   5.112   8.570 -0.2489 -0.8235  0.1618
   49bbb     H3 1397   9.125   5.088   8.482  0.7892 -1.3775 -0.4099
   49bbb     H4 1398   9.259   5.031   8.569  0.3543 -0.4902  3.6912
   49bbb     C3 1399   8.990   5.222   8.692  0.7584 -0.1139 -0.7766
   49bbb     H5 1400   9.037   5.321   8.705  3.5108 -1.3287 -0.7230
   49bbb     H6 1401   8.924   5.209   8.779  0.3777  1.9989 -0.6888
   49bbb     C4 1402   8.906   5.242   8.566 -0.5042  0.0092 -0.1957
   49bbb     H7 1403   8.858   5.150   8.531  0.3696  0.3092 -2.3571
   49bbb     H8 1404   8.974   5.276   8.486  0.3517  2.7767  1.5416
   49bbb     C5 1405   9.263   4.987   8.838  0.2645  0.4594  0.2726
   49bbb     H9 1406   9.358   4.996   8.785  0.0668 -0.9494 -0.3877
   49bbb    H10 1407   9.217   4.902   8.784  1.6356  0.5444 -1.1144
   49bbb     C6 1408   9.260   5.244   8.526  0.3804  0.0471  0.4485
   49bbb    H11 1409   9.185   5.323   8.512  0.3628  0.3356  1.9481
   49bbb    H12 1410   9.297   5.228   8.425 -2.1229  0.5219 -0.6220
   49bbb     C7 1411   8.797   5.352   8.582 -0.2611  0.1457 -0.2722
   49bbb    H13 1412   8.836   5.437   8.638 -0.7296  0.6755 -0.7333
   49bbb    H14 1413   8.711   5.311   8.636 -0.9437 -2.0141 -2.7922
   49bbb     C8 1414   9.373   5.286   8.624 -0.6142 -0.2346 -0.2653
   49bbb    H15 1415   9.430   5.195   8.644 -4.0470 -2.5258 -0.1461
   49bbb    H16 1416   9.332   5.320   8.720 -0.5440 -2.1533  0.4938
   49bbb     C9 1417   9.297   4.955   8.981  1.2654  0.0146  0.1478
   49bbb    H17 1418   9.202   4.942   9.036  1.0157  0.6039 -0.1313
   49bbb    H18 1419   9.358   5.037   9.021  0.1051  1.6049 -1.1995
   49bbb     O1 1420   8.747   5.393   8.449 -0.0914 -0.5088 -0.4907
   50bbb     N1 1421   8.097   4.994   9.337  0.3336 -0.1258  0.2210
   50bbb     C1 1422   8.097   4.886   9.440  0.0232 -0.4165 -0.0947
   50bbb     H1 1423   8.005   4.878   9.499 -0.1496 -1.5971 -0.5079
   50bbb     H2 1424   8.173   4.902   9.517  0.2437  0.3262 -0.4557
   50bbb     C2 1425   8.133   5.127   9.397 -0.4124 -0.0683  0.4117
   50bbb     H3 1426   8.050   5.150   9.464 -1.0812  2.2400 -1.0782
   50bbb     H4 1427   8.146   5.214   9.330 -1.3223 -0.4663 -0.3039
   50bbb     C3 1428   7.985   4.998   9.243  0.5488 -0.0451 -0.0813
   50bbb     H5 1429   7.892   5.031   9.291 -0.1926 -0.4875 -1.1725
   50bbb     H6 1430   7.963   4.897   9.207  1.1944  0.0732 -0.8293
   50bbb     C4 1431   7.998   5.093   9.121  0.1391 -0.3242  0.4301
   50bbb     H7 1432   7.995   5.200   9.144 -2.3465 -0.1721 -0.3397
   50bbb     H8 1433   7.910   5.066   9.061  0.6748  1.6817 -1.3827
   50bbb     C5 1434   8.153   4.756   9.387 -0.0793 -0.1285  0.9438
   50bbb     H9 1435   8.240   4.784   9.327  0.0680  0.5410  1.4502
   50bbb    H10 1436   8.077   4.708   9.325 -0.0348 -1.0195  1.5577
   50bbb     C6 1437   8.263   5.136   9.479 -0.0010 -0.4890 -0.9067
   50bbb    H11 1438   8.350   5.111   9.416 -1.5568 -1.6413 -2.6955
   50bbb    H12 1439   8.261   5.069   9.566 -0.8507 -1.6073 -1.7519
   50bbb     C7 1440   8.131   5.074   9.045  0.4996  0.1054  0.5663
   50bbb    H13 1441   8.155   4.970   9.019  1.0509  0.3308  0.1442
   50bbb    H14 1442   8.208   5.113   9.113  0.7672  0.7989 -0.1260
   50bbb     C8 1443   8.298   5.284   9.536  0.3564  1.1320 -0.7062
   50bbb    H15 1444   8.309   5.350   9.449 -5.6720  0.4472 -2.4227
   50bbb    H16 1445   8.387   5.267   9.598  0.6971 -1.1319 -1.7170
   50bbb     C9 1446   8.189   4.658   9.507 -0.3891  0.0580  0.5968
   50bbb    H17 1447   8.113   4.650   9.585 -1.7100  0.1930 -0.6365
   50bbb    H18 1448   8.284   4.689   9.552 -0.8474  0.4161  1.3242
   50bbb     O1 1449   8.132   5.149   8.925  0.1725  0.0588 -0.0479
   51bbb     N1 1450   6.129   7.311   6.953  0.1181  0.5707  0.0546
   51bbb     C1 1451   6.046   7.419   7.007  0.2401  0.6826 -0.1113
   51bbb     H1 1452   5.974   7.374   7.077 -0.5150  1.4676 -0.3822
   51bbb     H2 1453   5.979   7.457   6.930 -2.5476 -0.3097  1.6490
   51bbb     C2 1454   6.220   7.356   6.849 -1.0908  0.8262 -0.8351
   51bbb     H3 1455   6.252   7.259   6.810 -1.8475  0.2572 -0.0945
   51bbb     H4 1456   6.307   7.408   6.890 -1.8034 -0.4352  2.6409
   51bbb     C3 1457   6.182   7.225   7.065 -0.0557 -0.0556 -0.5964
   51bbb     H5 1458   6.099   7.192   7.128  1.0229  1.2334  1.6481
   51bbb     H6 1459   6.241   7.290   7.131 -0.2127  0.5828 -1.0732
   51bbb     C4 1460   6.259   7.104   7.027  0.6781 -0.0578  0.4580
   51bbb     H7 1461   6.345   7.139   6.968 -0.0899  1.4063  0.1451
   51bbb     H8 1462   6.200   7.041   6.960  2.7603 -0.7512 -0.8212
   51bbb     C5 1463   6.116   7.545   7.076  0.7241 -0.1794  0.1305
   51bbb     H9 1464   6.174   7.596   6.998  0.9634 -1.2729 -0.4291
   51bbb    H10 1465   6.188   7.516   7.154  0.2828 -0.5355  0.4126
   51bbb     C6 1466   6.169   7.425   6.721  0.2959  0.1554 -0.0325
   51bbb    H11 1467   6.262   7.429   6.663  0.2615 -3.2492 -0.4913
   51bbb    H12 1468   6.147   7.529   6.748  1.8294  0.2569  0.9728
   51bbb     C7 1469   6.305   7.017   7.148  0.1269  0.2414  0.6747
   51bbb    H13 1470   6.224   6.967   7.203 -0.0053  0.9388  1.1332
   51bbb    H14 1471   6.370   7.078   7.214 -1.8488  0.2133  2.7659
   51bbb     C8 1472   6.068   7.337   6.638  0.1665 -0.0578  0.0376
   51bbb    H15 1473   5.976   7.320   6.696 -2.2923  0.7699 -3.3212
   51bbb    H16 1474   6.119   7.241   6.624  0.2313 -0.6483  3.4941
   51bbb     C9 1475   5.994   7.634   7.130 -0.1928  0.0014 -0.2171
   51bbb    H17 1476   5.943   7.579   7.210 -1.8198 -1.7087 -2.2890
   51bbb    H18 1477   5.923   7.667   7.053 -0.5760  0.3939  0.3025
   51bbb     O1 1478   6.383   6.905   7.094  0.2652 -0.4712 -0.7152
   52bbb     N1 1479   6.337   5.870   7.068  0.0608  0.1327 -0.2285
   52bbb     C1 1480   6.274   5.773   7.159 -0.1173 -0.0451  0.2960
   52bbb     H1 1481   6.165   5.783   7.158 -0.5221 -3.3023 -1.1499
   52bbb     H2 1482   6.304   5.790   7.263  0.8900 -1.0778  0.1896
   52bbb     C2 1483   6.319   5.843   6.922  0.8465  0.8859 -0.4048
   52bbb     H3 1484   6.352   5.742   6.896  0.3810  0.6040  0.0702
   52bbb     H4 1485   6.398   5.907   6.880  1.6330  1.1866  1.4259
   52bbb     C3 1486   6.304   6.009   7.117  0.5199  0.7277  0.7091
   52bbb     H5 1487   6.347   6.005   7.218 -0.5446  0.4498  1.1617
   52bbb     H6 1488   6.196   6.022   7.125 -0.0213 -3.0917  1.8500
   52bbb     C4 1489   6.375   6.122   7.042 -0.4551  0.5461 -0.6806
   52bbb     H7 1490   6.315   6.212   7.056 -1.6932  0.0039 -2.1741
   52bbb     H8 1491   6.383   6.102   6.934  0.1489  0.3808 -0.6096
   52bbb     C5 1492   6.308   5.627   7.137  0.7142  0.1446  0.9158
   52bbb     H9 1493   6.309   5.571   7.231 -1.8098  0.3858  1.1621
   52bbb    H10 1494   6.405   5.618   7.087  0.4266  0.6849  0.2345
   52bbb     C6 1495   6.170   5.867   6.866 -0.0103 -0.0548 -0.4294
   52bbb    H11 1496   6.157   5.975   6.885  2.8655  0.6771 -1.9420
   52bbb    H12 1497   6.090   5.807   6.910  1.1331 -0.1843  1.5720
   52bbb     C7 1498   6.520   6.137   7.092  0.1343 -0.3088 -0.4282
   52bbb    H13 1499   6.591   6.058   7.063 -0.0230  0.6872 -3.9970
   52bbb    H14 1500   6.522   6.133   7.201  0.0037  0.3441 -0.3981
   52bbb     C8 1501   6.164   5.834   6.714  0.2291 -0.2584  0.6025
   52bbb    H15 1502   6.257   5.866   6.665 -1.4179  0.9197 -1.9890
   52bbb    H16 1503   6.086   5.899   6.673 -0.4353  0.5391  2.9932
   52bbb     C9 1504   6.214   5.547   7.039  0.3904 -0.6024 -0.1607
   52bbb    H17 1505   6.267   5.451   7.028  4.9146  1.4401  1.3180
   52bbb    H18 1506   6.215   5.585   6.936  1.2510 -3.6196 -1.3912
   52bbb     O1 1507   6.565   6.265   7.057  0.6220 -0.0089  0.2181
   53bbb     N1 1508   8.241   7.527   6.918  0.1559  0.4617 -0.9684
   53bbb     C1 1509   8.206   7.663   6.888  0.5441  0.2680  0.7895
   53bbb     H1 1510   8.302   7.716   6.882  1.0564 -0.6066  1.1870
   53bbb     H2 1511   8.151   7.717   6.967  2.3090  3.4962  0.0225
   53bbb     C2 1512   8.312   7.518   7.048  1.2012 -0.5556  0.8326
   53bbb     H3 1513   8.249   7.552   7.132  0.1981 -1.0501  0.3001
   53bbb     H4 1514   8.395   7.588   7.035  1.1162 -0.7203 -0.6650
   53bbb     C3 1515   8.141   7.418   6.885  0.3133  0.2443  0.6212
   53bbb     H5 1516   8.207   7.332   6.865  0.2944  0.8984 -3.0011
   53bbb     H6 1517   8.097   7.434   6.786  1.8492 -1.2139 -0.3552
   53bbb     C4 1518   8.036   7.393   6.993 -0.3283  0.5431 -0.6716
   53bbb     H7 1519   7.966   7.476   7.007 -0.3007  0.0745  3.6055
   53bbb     H8 1520   8.086   7.385   7.090  0.5879  1.5315 -1.0438
   53bbb     C5 1521   8.116   7.692   6.760 -0.1318 -0.2610 -0.2916
   53bbb     H9 1522   8.019   7.641   6.765 -0.1348 -0.2049  0.4978
   53bbb    H10 1523   8.177   7.643   6.683  2.2619  1.5654  0.3152
   53bbb     C6 1524   8.369   7.382   7.087  0.1876 -0.5045 -0.2416
   53bbb    H11 1525   8.289   7.309   7.106 -2.2708  2.1713  0.4308
   53bbb    H12 1526   8.419   7.396   7.184 -2.4252  1.7159  0.9303
   53bbb     C7 1527   7.955   7.259   6.985  0.3655  0.0976 -0.3412
   53bbb    H13 1528   7.851   7.290   7.002  0.5718  0.5200  0.1792
   53bbb    H14 1529   7.979   7.189   7.067 -0.3899 -1.0675 -1.0780
   53bbb     C8 1530   8.471   7.329   6.978  0.7858 -0.3136  0.2176
   53bbb    H15 1531   8.414   7.310   6.886 -0.5984  0.0103  0.9792
   53bbb    H16 1532   8.514   7.232   7.008 -1.1897 -1.8776 -1.6135
   53bbb     C9 1533   8.102   7.844   6.729  0.3644  0.0543  0.0991
   53bbb    H17 1534   8.201   7.892   6.729  0.0510  0.7489 -0.9664
   53bbb    H18 1535   8.042   7.891   6.808  1.8538  1.1695  0.6143
   53bbb     O1 1536   7.971   7.193   6.855 -0.2363 -0.2013 -0.8194
   54bbb     N1 1537   8.091   6.168   6.850  0.0580  0.7147 -0.3428
   54bbb     C1 1538   8.006   6.163   6.727  0.0497  0.2605  0.1726
   54bbb     H1 1539   7.899   6.164   6.752 -0.7991 -1.3103 -2.9471
   54bbb     H2 1540   8.009   6.066   6.677 -1.1662  0.2112  0.1577
   54bbb     C2 1541   8.071   6.059   6.947  0.1366  0.4131  0.1499
   54bbb     H3 1542   7.976   6.078   6.997  0.1243  1.0244 -0.1047
   54bbb     H4 1543   8.153   6.052   7.020  0.0736  3.8018  0.7068
   54bbb     C3 1544   8.098   6.293   6.931  0.2586 -0.3373 -0.5608
   54bbb     H5 1545   7.996   6.308   6.967 -0.1822 -0.8504 -1.5453
   54bbb     H6 1546   8.125   6.374   6.862 -1.6136 -0.1890 -1.1715
   54bbb     C4 1547   8.201   6.295   7.050  0.4768  0.2873 -0.3290
   54bbb     H7 1548   8.310   6.293   7.033  0.6343  0.2759  0.6505
   54bbb     H8 1549   8.179   6.216   7.123 -0.0257  2.1042  1.5842
   54bbb     C5 1550   8.027   6.284   6.629  0.1644  0.7490  0.1921
   54bbb     H9 1551   8.133   6.288   6.603 -0.0412  1.3445 -0.5945
   54bbb    H10 1552   8.008   6.381   6.676  0.4378  0.3492  1.1578
   54bbb     C6 1553   8.051   5.916   6.887  0.6043  0.5504 -0.1616
   54bbb    H11 1554   7.976   5.929   6.807 -1.1663  2.4587  1.6814
   54bbb    H12 1555   7.998   5.856   6.963  1.6099  0.5149  0.5302
   54bbb     C7 1556   8.168   6.412   7.147 -0.1764  0.4092  0.0053
   54bbb    H13 1557   8.225   6.408   7.240  2.5617 -0.8001 -1.6110
   54bbb    H14 1558   8.061   6.404   7.169  0.1478 -3.4912  0.7659
   54bbb     C8 1559   8.177   5.844   6.845  0.4391 -0.6649  0.0394
   54bbb    H15 1560   8.258   5.867   6.915  0.1230 -0.3133  0.2914
   54bbb    H16 1561   8.199   5.886   6.746  1.0160  1.0751  0.8671
   54bbb     C9 1562   7.955   6.280   6.491 -0.7149 -0.5039 -0.1659
   54bbb    H17 1563   7.989   6.191   6.437 -2.4017 -1.3715  0.1471
   54bbb    H18 1564   7.987   6.364   6.427 -1.0979 -0.1389  0.1142
   54bbb     O1 1565   8.197   6.540   7.085 -0.4557 -0.2423  0.2456
   55bbb     N1 1566   5.790   8.320   9.704  0.4609 -0.3428 -0.1858
   55bbb     C1 1567   5.883   8.371   9.604 -0.3842  0.0463  0.4391
   55bbb     H1 1568   5.881   8.311   9.512 -1.6886  0.4542  0.1693
   55bbb     H2 1569   5.982   8.364   9.649 -1.4383 -3.3889  2.5620
   55bbb     C2 1570   5.659   8.388   9.726 -0.3401 -0.3487 -0.1031
   55bbb     H3 1571   5.587   8.363   9.647  0.5172 -0.5764 -0.8306
   55bbb     H4 1572   5.681   8.493   9.704  0.9076 -0.9000 -1.7599
   55bbb     C3 1573   5.776   8.168   9.713 -0.3566 -0.3294  0.5729
   55bbb     H5 1574   5.692   8.149   9.645 -0.5696  2.7676 -0.1769
   55bbb     H6 1575   5.747   8.136   9.814  1.1193 -0.4773  0.9680
   55bbb     C4 1576   5.908   8.095   9.683 -0.8267  0.2046 -0.8680
   55bbb     H7 1577   5.942   8.122   9.583 -1.4433 -1.3481 -1.5339
   55bbb     H8 1578   5.887   7.989   9.664 -0.3539  0.1771 -1.2497
   55bbb     C5 1579   5.876   8.519   9.564  0.4170 -0.4389 -0.5114
   55bbb     H9 1580   5.878   8.577   9.657  1.7638 -0.8306 -0.2757
   55bbb    H10 1581   5.782   8.543   9.512  1.3107  1.0499 -1.5067
   55bbb     C6 1582   5.598   8.373   9.866 -0.1431  0.0320  0.0860
   55bbb    H11 1583   5.658   8.438   9.931 -0.0123  0.1971 -0.1979
   55bbb    H12 1584   5.599   8.268   9.898 -1.5890 -0.1829 -0.4668
   55bbb     C7 1585   6.013   8.113   9.794  0.7484 -0.4697 -0.0425
   55bbb    H13 1586   5.958   8.091   9.886 -0.3849  2.9494  0.2640
   55bbb    H14 1587   6.038   8.220   9.800 -0.4293 -0.1905  0.2668
   55bbb     C8 1588   5.457   8.430   9.872 -0.1385 -0.1451  0.0393
   55bbb    H15 1589   5.402   8.395   9.960  2.3447 -0.9626  1.3722
   55bbb    H16 1590   5.397   8.392   9.789  0.4244 -0.2263 -0.3412
   55bbb     C9 1591   6.004   8.559   9.484  0.1579  0.0436 -0.4114
   55bbb    H17 1592   6.093   8.546   9.545 -0.2729 -0.2730  0.1506
   55bbb    H18 1593   5.997   8.668   9.468 -0.0378 -0.0646 -1.1308
   55bbb     O1 1594   6.133   8.030   9.766 -0.3370 -0.3044 -0.4410
   56bbb     N1 1595   7.207   7.613  10.201 -0.5855  0.3394  0.2915
   56bbb     C1 1596   7.351   7.653  10.181  0.7206  0.0567  0.6694
   56bbb     H1 1597   7.406   7.597  10.105 -0.0762 -0.8551  0.7368
   56bbb     H2 1598   7.407   7.620  10.269 -0.4453 -0.3413  1.2869
   56bbb     C2 1599   7.208   7.460  10.211 -0.3832 -0.2279 -0.3496
   56bbb     H3 1600   7.262   7.401  10.136 -0.1425 -0.1477 -0.2386
   56bbb     H4 1601   7.104   7.426  10.218 -0.1998 -0.6875  0.1239
   56bbb     C3 1602   7.128   7.652  10.083  0.2757  0.0243  0.0816
   56bbb     H5 1603   7.138   7.581  10.000 -1.0292  0.2018 -0.2528
   56bbb     H6 1604   7.164   7.745  10.037  0.1951 -0.8143 -1.7691
   56bbb     C4 1605   6.978   7.664  10.112  0.4039  0.0818  0.3679
   56bbb     H7 1606   6.960   7.723  10.203  0.2349 -0.2105  0.5245
   56bbb     H8 1607   6.939   7.564  10.135  1.7616 -0.6073 -0.1978
   56bbb     C5 1608   7.382   7.804  10.146  0.0718 -0.5721  0.8016
   56bbb     H9 1609   7.306   7.861  10.202 -1.7420 -1.6532 -0.4263
   56bbb    H10 1610   7.364   7.821  10.039 -1.6969 -1.8479  0.8457
   56bbb     C6 1611   7.256   7.404  10.346 -0.3479 -0.4775 -0.1734
   56bbb    H11 1612   7.365   7.414  10.335 -0.7140  2.3068 -2.4403
   56bbb    H12 1613   7.224   7.299  10.349 -0.6762 -0.5143 -2.7252
   56bbb     C7 1614   6.900   7.714   9.992 -0.1498 -1.2599  0.4093
   56bbb    H13 1615   6.792   7.696   9.994 -0.2365 -1.1476 -1.5886
   56bbb    H14 1616   6.931   7.658   9.903  1.4281 -1.3681  0.9978
   56bbb     C8 1617   7.206   7.490  10.463 -0.7286 -0.1354 -0.1724
   56bbb    H15 1618   7.098   7.472  10.469 -0.6284 -0.3368  2.6039
   56bbb    H16 1619   7.202   7.597  10.441 -2.2821  0.3112  1.9053
   56bbb     C9 1620   7.522   7.846  10.181 -0.2564  0.4043  0.2934
   56bbb    H17 1621   7.589   7.775  10.131  1.0041  1.9178 -0.2726
   56bbb    H18 1622   7.538   7.832  10.288 -0.0758  0.2383  0.2458
   56bbb     O1 1623   6.911   7.862   9.981 -0.0881 -0.5315 -0.2116
   57bbb     N1 1624   5.689   6.799   9.424 -0.1643 -0.1521  0.2806
   57bbb     C1 1625   5.602   6.713   9.343 -0.0154  0.0074 -0.7862
   57bbb     H1 1626   5.514   6.770   9.310 -1.0354 -3.1185 -4.0967
   57bbb     H2 1627   5.582   6.621   9.398  1.2402 -0.6683 -1.4130
   57bbb     C2 1628   5.690   6.945   9.365 -0.5683  1.0157 -0.3700
   57bbb     H3 1629   5.584   6.973   9.363 -1.1125 -0.9314 -1.2703
   57bbb     H4 1630   5.736   6.929   9.266 -1.5347 -1.6014 -0.4784
   57bbb     C3 1631   5.667   6.800   9.568 -0.0374  0.3993  0.4227
   57bbb     H5 1632   5.739   6.860   9.624  0.7331 -1.1356  1.1412
   57bbb     H6 1633   5.690   6.698   9.600 -0.0191 -0.3405 -1.7482
   57bbb     C4 1634   5.528   6.835   9.618  0.6329  0.2042  0.3089
   57bbb     H7 1635   5.448   6.776   9.571 -1.5154  3.7705 -0.9979
   57bbb     H8 1636   5.515   6.942   9.596  0.2900 -0.0995 -1.0878
   57bbb     C5 1637   5.668   6.649   9.215  0.5639  0.4736  0.5196
   57bbb     H9 1638   5.750   6.585   9.249  0.0227 -0.1610  0.6537
   57bbb    H10 1639   5.716   6.729   9.157 -1.5300  0.9059 -0.7374
   57bbb     C6 1640   5.774   7.052   9.433  0.9139  0.3051  0.0328
   57bbb    H11 1641   5.868   7.011   9.471  0.5087  0.1555  0.9083
   57bbb    H12 1642   5.717   7.084   9.521  2.1972 -1.1186  1.4402
   57bbb     C7 1643   5.505   6.812   9.764  0.3083 -0.1542  0.6251
   57bbb    H13 1644   5.507   6.707   9.795 -0.3691 -0.2137  0.4904
   57bbb    H14 1645   5.407   6.857   9.786  0.8176  0.9696  0.6451
   57bbb     C8 1646   5.799   7.173   9.343  0.5720  0.5396  0.4977
   57bbb    H15 1647   5.849   7.262   9.383  1.1805  0.3387  0.1979
   57bbb    H16 1648   5.701   7.217   9.322 -0.4462 -1.6299  0.4740
   57bbb     C9 1649   5.570   6.560   9.134 -0.3807  0.2682  0.1514
   57bbb    H17 1650   5.624   6.517   9.049 -0.5104 -1.5066  0.9179
   57bbb    H18 1651   5.491   6.626   9.097  1.9992  2.1758 -1.8434
   57bbb     O1 1652   5.601   6.888   9.829 -0.8660 -0.6553  0.1167
   58bbb     N1 1653   6.158   6.614  10.745  0.3187 -0.3466 -0.6707
   58bbb     C1 1654   6.155   6.468  10.782  0.0384  0.2038  0.5645
   58bbb     H1 1655   6.094   6.452  10.873  0.0031  0.4306  0.5795
   58bbb     H2 1656   6.256   6.433  10.806  0.1876 -0.1211 -0.5243
   58bbb     C2 1657   6.188   6.710  10.851  0.3561  0.7361  0.6914
   58bbb     H3 1658   6.136   6.802  10.823 -2.1038 -0.2346  1.7159
   58bbb     H4 1659   6.295   6.727  10.863  0.9961 -1.9819 -0.2384
   58bbb     C3 1660   6.243   6.645  10.627  0.4838 -0.1618  0.0104
   58bbb     H5 1661   6.199   6.604  10.535  1.5979 -0.5395 -0.3746
   58bbb     H6 1662   6.337   6.588  10.619  0.7132  0.2895 -0.6244
   58bbb     C4 1663   6.284   6.795  10.594 -0.4335 -0.0607  0.0567
   58bbb     H7 1664   6.355   6.801  10.511  0.1772  0.2289  0.5886
   58bbb     H8 1665   6.344   6.836  10.677  1.4606 -1.7835 -0.3918
   58bbb     C5 1666   6.112   6.367  10.674  0.5885 -0.0518 -0.2404
   58bbb     H9 1667   6.118   6.268  10.720  1.2209 -0.6768 -1.5809
   58bbb    H10 1668   6.193   6.357  10.600  2.5367  0.7327  1.6922
   58bbb     C6 1669   6.134   6.678  10.990  0.0014  0.2886  0.3016
   58bbb    H11 1670   6.204   6.610  11.041  1.9001  2.1108  0.2549
   58bbb    H12 1671   6.042   6.619  10.990 -0.1308  0.4633 -0.7641
   58bbb     C7 1672   6.172   6.903  10.571 -0.7152 -0.3988  0.7666
   58bbb    H13 1673   6.212   7.001  10.600 -4.1707  1.5699 -0.5896
   58bbb    H14 1674   6.085   6.862  10.625 -2.4196  1.4512 -0.4506
   58bbb     C8 1675   6.107   6.801  11.080 -0.2105  0.4162  0.0970
   58bbb    H15 1676   6.203   6.854  11.084  1.1027 -1.8776  2.2697
   58bbb    H16 1677   6.076   6.768  11.179  2.1979 -1.6266  0.2866
   58bbb     C9 1678   5.974   6.401  10.618  0.3764 -0.0622  0.0522
   58bbb    H17 1679   5.990   6.488  10.554 -0.5164 -0.0055 -0.0979
   58bbb    H18 1680   5.904   6.430  10.697  0.4915  0.0957  0.0964
   58bbb     O1 1681   6.145   6.901  10.428  0.1358 -0.6623 -0.0764
   59bbb     N1 1682   6.541   8.393   7.575  0.2798 -0.2820 -0.0919
   59bbb     C1 1683   6.542   8.354   7.434 -0.5306 -0.2144  0.1381
   59bbb     H1 1684   6.446   8.386   7.392  0.8407  5.9106  0.6417
   59bbb     H2 1685   6.539   8.245   7.438 -1.2784 -0.1785  1.1916
   59bbb     C2 1686   6.551   8.545   7.601  0.1135 -0.1825  0.3979
   59bbb     H3 1687   6.654   8.578   7.580  1.0441 -2.9753  0.1368
   59bbb     H4 1688   6.548   8.566   7.708  0.9654 -2.0314  0.8265
   59bbb     C3 1689   6.431   8.328   7.655  0.9960  0.8052  0.4098
   59bbb     H5 1690   6.423   8.224   7.622  0.4382  1.4937 -1.7954
   59bbb     H6 1691   6.332   8.371   7.635  0.7579  1.3179  2.4844
   59bbb     C4 1692   6.454   8.331   7.807 -0.0521 -0.0918 -0.0895
   59bbb     H7 1693   6.394   8.414   7.845  1.5110  2.1677 -2.2520
   59bbb     H8 1694   6.559   8.356   7.826  0.3157 -1.3903 -0.3009
   59bbb     C5 1695   6.660   8.417   7.351  0.8657  0.5671  0.1188
   59bbb     H9 1696   6.742   8.408   7.423 -0.0705  1.8029  1.4008
   59bbb    H10 1697   6.637   8.524   7.339 -1.6011  0.0047 -0.8006
   59bbb     C6 1698   6.454   8.647   7.524 -0.4692  0.0688 -0.2526
   59bbb    H11 1699   6.466   8.639   7.415 -1.8924 -2.9376 -0.2757
   59bbb    H12 1700   6.496   8.743   7.558  1.0183 -0.8115  0.4959
   59bbb     C7 1701   6.417   8.198   7.873 -0.1052 -1.0016 -0.4073
   59bbb    H13 1702   6.416   8.213   7.982 -0.0869 -0.5717 -0.4645
   59bbb    H14 1703   6.484   8.113   7.857 -1.1588 -2.0846  0.7130
   59bbb     C8 1704   6.307   8.634   7.576 -0.1954  0.1472  0.2780
   59bbb    H15 1705   6.259   8.729   7.603  0.3974  0.4667  0.2147
   59bbb    H16 1706   6.291   8.570   7.664  0.3769 -2.3117 -1.3169
   59bbb     C9 1707   6.703   8.348   7.215  0.3765  0.0105  0.7896
   59bbb    H17 1708   6.617   8.344   7.147  2.6082  0.1888 -2.2406
   59bbb    H18 1709   6.738   8.246   7.237  2.1842  0.9314  2.4510
   59bbb     O1 1710   6.285   8.159   7.841  0.1439 -0.1022 -0.8827
   60bbb     N1 1711   5.201   8.805   8.101 -0.0034  0.2179  0.0741
   60bbb     C1 1712   5.162   8.945   8.143 -0.0904  0.5023  0.4507
   60bbb     H1 1713   5.175   9.011   8.056  2.2643  0.1756  0.5061
   60bbb     H2 1714   5.240   8.977   8.212  0.3826 -1.7369  1.0390
   60bbb     C2 1715   5.116   8.751   7.996  0.7395 -0.7930 -0.1792
   60bbb     H3 1716   5.115   8.810   7.904  1.4234  1.3990  1.1544
   60bbb     H4 1717   5.016   8.757   8.040  0.6604 -0.9809 -0.3302
   60bbb     C3 1718   5.347   8.778   8.090  0.2746  0.4007  0.3060
   60bbb     H5 1719   5.391   8.835   8.007 -1.2159 -2.0334 -2.3095
   60bbb     H6 1720   5.359   8.671   8.069 -0.3713  0.8819 -3.1627
   60bbb     C4 1721   5.433   8.796   8.220 -0.2329  0.3546  0.7527
   60bbb     H7 1722   5.398   8.729   8.300 -0.7969  1.2998  1.3185
   60bbb     H8 1723   5.424   8.893   8.270  0.0964 -0.6060  2.7901
   60bbb     C5 1724   5.024   8.972   8.196 -0.3361  0.2178  0.6313
   60bbb     H9 1725   4.994   8.889   8.262 -0.8301 -0.8144 -0.8350
   60bbb    H10 1726   4.957   8.959   8.110 -0.4277  0.8830  0.6031
   60bbb     C6 1727   5.136   8.604   7.948  0.1724  0.8035  0.3844
   60bbb    H11 1728   5.121   8.526   8.024  0.1604 -1.9370 -2.2184
   60bbb    H12 1729   5.235   8.595   7.901  0.0956  0.4187  0.2855
   60bbb     C7 1730   5.582   8.775   8.184  0.4932 -0.1430  0.1733
   60bbb    H13 1731   5.643   8.795   8.273  2.1468  1.1773 -1.1836
   60bbb    H14 1732   5.607   8.857   8.115 -1.4979  2.3238  2.1580
   60bbb     C8 1733   5.028   8.564   7.847 -0.0835 -0.2018  0.6218
   60bbb    H15 1734   5.054   8.612   7.751  1.4113 -0.2972  0.9490
   60bbb    H16 1735   4.936   8.606   7.889 -0.3902 -0.0279 -0.1907
   60bbb     C9 1736   5.001   9.105   8.265 -0.7161  0.2424 -0.7061
   60bbb    H17 1737   4.913   9.101   8.331  0.6386 -0.3658  1.1402
   60bbb    H18 1738   4.978   9.174   8.183  0.9201  0.2970 -1.1481
   60bbb     O1 1739   5.603   8.649   8.126 -0.0693 -0.2132  0.0968
   61bbb     N1 1740   5.636   6.132   7.530 -0.0458  0.6838  0.1254
   61bbb     C1 1741   5.647   6.183   7.391 -0.2794 -0.3742  0.5933
   61bbb     H1 1742   5.557   6.234   7.355  0.3942  0.8441  0.5888
   61bbb     H2 1743   5.664   6.098   7.324 -1.6068  0.6900 -1.1842
   61bbb     C2 1744   5.580   5.992   7.541 -0.0194  0.5919 -0.1991
   61bbb     H3 1745   5.637   5.930   7.470 -0.3236  2.0535 -1.7680
   61bbb     H4 1746   5.472   5.994   7.521 -0.7500 -0.8516  2.9376
   61bbb     C3 1747   5.581   6.228   7.627  0.3545 -0.0337 -0.8603
   61bbb     H5 1748   5.651   6.312   7.636  0.9908 -0.7074  0.8477
   61bbb     H6 1749   5.596   6.180   7.724 -1.0028 -0.5101 -0.8681
   61bbb     C4 1750   5.443   6.288   7.596  0.7961  0.5074  0.6690
   61bbb     H7 1751   5.381   6.200   7.615  0.9437 -0.4778 -2.7358
   61bbb     H8 1752   5.431   6.323   7.493 -0.1037 -1.3029  0.1256
   61bbb     C5 1753   5.763   6.291   7.378 -0.1282  0.7666 -0.0440
   61bbb     H9 1754   5.837   6.252   7.449 -1.4114 -2.9729 -0.5529
   61bbb    H10 1755   5.715   6.384   7.411 -2.0365  0.6924 -2.3579
   61bbb     C6 1756   5.587   5.933   7.680  0.0725  0.5317 -0.3377
   61bbb    H11 1757   5.546   5.832   7.679 -3.9701  2.0059 -1.7426
   61bbb    H12 1758   5.512   5.986   7.740 -1.0589 -0.6295 -0.6736
   61bbb     C7 1759   5.390   6.405   7.674 -1.1658 -0.0611 -0.0261
   61bbb    H13 1760   5.370   6.369   7.775 -0.2668  1.6833  0.8058
   61bbb    H14 1761   5.293   6.442   7.637 -1.1853 -0.8193 -0.7661
   61bbb     C8 1762   5.722   5.930   7.751  0.7934  0.9832  0.3498
   61bbb    H15 1763   5.780   6.021   7.731  0.2418  1.1317 -0.6172
   61bbb    H16 1764   5.778   5.841   7.719 -0.5910 -0.5105  1.8775
   61bbb     C9 1765   5.819   6.294   7.236  0.1454 -0.0983 -0.4871
   61bbb    H17 1766   5.871   6.390   7.223 -2.5641  1.8064  1.6262
   61bbb    H18 1767   5.741   6.285   7.160  0.0861  0.7041 -0.5328
   61bbb     O1 1768   5.501   6.501   7.683  0.4801  0.2455  0.0401
   62bbb     N1 1769   4.628   6.775   8.355 -0.1757 -0.4966 -0.0460
   62bbb     C1 1770   4.488   6.819   8.348  0.1870 -0.1050 -0.3616
   62bbb     H1 1771   4.453   6.803   8.245 -0.6337 -1.5981  0.1199
   62bbb     H2 1772   4.483   6.924   8.379  0.0649 -0.0836 -0.4543
   62bbb     C2 1773   4.681   6.826   8.487  0.2307  0.0710  0.1064
   62bbb     H3 1774   4.629   6.784   8.573  0.4503 -1.1848 -0.3369
   62bbb     H4 1775   4.676   6.935   8.489 -2.0909  0.0024  1.9877
   62bbb     C3 1776   4.695   6.808   8.226  0.0555  0.1342 -0.0957
   62bbb     H5 1777   4.649   6.758   8.139  0.3892  0.2856 -0.3629
   62bbb     H6 1778   4.794   6.761   8.229  1.7079  3.3485  2.6312
   62bbb     C4 1779   4.707   6.961   8.194 -0.3692 -0.6196 -0.6899
   62bbb     H7 1780   4.734   7.021   8.282  1.2740 -1.5712 -0.5001
   62bbb     H8 1781   4.609   7.006   8.170  0.6895  1.5193 -1.2695
   62bbb     C5 1782   4.386   6.739   8.435 -0.0928 -0.5938  0.3395
   62bbb     H9 1783   4.421   6.726   8.538 -0.8208 -0.7627  0.5683
   62bbb    H10 1784   4.373   6.640   8.389 -1.3536  1.4503 -4.3516
   62bbb     C6 1785   4.822   6.780   8.525  0.0306  0.2732 -0.3588
   62bbb    H11 1786   4.889   6.809   8.443 -2.2978 -0.7856 -2.7909
   62bbb    H12 1787   4.826   6.671   8.537 -0.9003  0.2711  0.0162
   62bbb     C7 1788   4.801   6.992   8.074 -0.1795 -0.2635  0.3406
   62bbb    H13 1789   4.798   7.099   8.051  0.6280 -0.3016  0.0277
   62bbb    H14 1790   4.773   6.933   7.986 -1.4345 -0.7723  1.0537
   62bbb     C8 1791   4.885   6.838   8.653  0.2807  0.2622  0.1061
   62bbb    H15 1792   4.904   6.946   8.645  0.7772  0.2393  0.8813
   62bbb    H16 1793   4.987   6.806   8.675  0.7660 -0.3177 -2.5647
   62bbb     C9 1794   4.252   6.813   8.435  0.6018 -0.1787 -0.2386
   62bbb    H17 1795   4.277   6.915   8.465  1.2837  0.0806 -1.6143
   62bbb    H18 1796   4.182   6.757   8.498 -1.7689 -0.5893 -3.0307
   62bbb     O1 1797   4.935   6.963   8.112 -0.4445 -0.2431 -0.1724
   63bbb     N1 1798  10.635   6.869  10.467  0.2492 -0.0476 -0.1813
   63bbb     C1 1799  10.628   6.883  10.318 -0.2092  0.1896  0.1697
   63bbb     H1 1800  10.526   6.915  10.294 -0.9381  0.1372  2.8464
   63bbb     H2 1801  10.654   6.791  10.266  1.1764  1.3962 -1.3701
   63bbb     C2 1802  10.629   6.996  10.544 -0.9651 -0.1410  0.1266
   63bbb     H3 1803  10.531   7.043  10.529  0.4376  3.1355  0.3905
   63bbb     H4 1804  10.704   7.068  10.508 -2.7233  2.0015  0.4827
   63bbb     C3 1805  10.556   6.761  10.530  0.1790  0.3067  0.2103
   63bbb     H5 1806  10.593   6.742  10.632  1.3932 -0.0630 -0.2812
   63bbb     H6 1807  10.585   6.676  10.466  0.4317  1.2657 -0.9787
   63bbb     C4 1808  10.404   6.780  10.524 -0.0835  0.7816 -0.8752
   63bbb     H7 1809  10.371   6.802  10.421 -0.0289 -1.0527 -1.3194
   63bbb     H8 1810  10.364   6.861  10.586 -0.2875 -0.7082  1.0177
   63bbb     C5 1811  10.726   6.986  10.257  0.0986 -0.4278  0.5369
   63bbb     H9 1812  10.716   7.088  10.298  1.0585 -0.7086  1.5176
   63bbb    H10 1813  10.711   6.994  10.149  0.6126  1.2381  0.5597
   63bbb     C6 1814  10.638   6.993  10.695 -0.4915  0.4250  0.0040
   63bbb    H11 1815  10.554   6.930  10.727  0.5409 -1.2163 -0.3698
   63bbb    H12 1816  10.622   7.095  10.731 -1.9331 -0.2937  1.5515
   63bbb     C7 1817  10.340   6.638  10.566 -0.6179 -0.4380  0.4184
   63bbb    H13 1818  10.394   6.604  10.656  2.0714  1.1236 -0.4802
   63bbb    H14 1819  10.354   6.564  10.486 -0.2571 -0.2393  0.2961
   63bbb     C8 1820  10.779   6.937  10.737  0.1844  0.5922 -0.8582
   63bbb    H15 1821  10.855   6.999  10.686  0.1212  1.6252  0.2540
   63bbb    H16 1822  10.790   6.834  10.700 -0.0875 -0.4015  1.6480
   63bbb     C9 1823  10.876   6.949  10.266 -0.1254  0.2173  0.6065
   63bbb    H17 1824  10.874   6.842  10.292 -1.4765  0.8389  3.4242
   63bbb    H18 1825  10.926   7.004  10.347  0.1631 -0.4397  0.8851
   63bbb     O1 1826  10.200   6.646  10.600  0.1964 -0.1323  0.0948
   64bbb     N1 1827   9.773   5.747   9.790 -0.5644 -0.1153 -0.5802
   64bbb     C1 1828   9.850   5.746   9.666  0.2310 -0.0913 -0.3344
   64bbb     H1 1829   9.955   5.719   9.679 -0.2745 -1.9293  0.2585
   64bbb     H2 1830   9.844   5.846   9.620  0.9413  0.0624 -0.1061
   64bbb     C2 1831   9.750   5.609   9.859  0.2484  0.0240 -0.5840
   64bbb     H3 1832   9.715   5.537   9.784  0.5481 -0.5903 -0.1321
   64bbb     H4 1833   9.671   5.625   9.934  0.5471  1.4111 -0.5255
   64bbb     C3 1834   9.826   5.850   9.888 -0.1296 -0.2065 -0.6657
   64bbb     H5 1835   9.886   5.927   9.837 -1.4760  0.8919 -0.6375
   64bbb     H6 1836   9.896   5.794   9.950  0.6854  1.3592 -0.1036
   64bbb     C4 1837   9.714   5.923   9.970 -0.2924  0.4755  0.2056
   64bbb     H7 1838   9.638   5.857  10.013  0.9198 -1.2212 -0.1226
   64bbb     H8 1839   9.651   5.983   9.904 -1.0720 -0.2597  0.2554
   64bbb     C5 1840   9.795   5.650   9.563 -1.1970 -0.4742 -0.6815
   64bbb     H9 1841   9.693   5.679   9.537 -1.4507 -1.4823 -0.8323
   64bbb    H10 1842   9.804   5.550   9.607 -1.6381 -0.3695 -0.3494
   64bbb     C6 1843   9.878   5.537   9.920  0.3487  0.2444  0.5238
   64bbb    H11 1844   9.927   5.604   9.991  1.6393 -1.6552  1.5052
   64bbb    H12 1845   9.947   5.515   9.837  0.7114 -1.2010  1.1698
   64bbb     C7 1846   9.770   6.013  10.079  0.5049 -0.0336  0.2232
   64bbb    H13 1847   9.825   5.952  10.152  2.7095  0.7892 -0.6606
   64bbb    H14 1848   9.676   6.040  10.128  0.4214  0.8015 -0.3845
   64bbb     C8 1849   9.848   5.407   9.987 -0.6845  1.3559 -0.0096
   64bbb    H15 1850   9.805   5.428  10.086  1.6882  0.6264  1.2460
   64bbb    H16 1851   9.947   5.369  10.013 -1.4169  0.6872  1.9909
   64bbb     C9 1852   9.872   5.648   9.431  0.5389  0.7666 -0.5998
   64bbb    H17 1853   9.975   5.614   9.447 -0.2350 -0.6187  1.9526
   64bbb    H18 1854   9.868   5.747   9.383 -1.1903  1.7493  1.3793
   64bbb     O1 1855   9.836   6.129  10.020 -0.1237  0.0269 -0.4653
   65bbb     N1 1856   8.596   7.484  10.752 -0.3635  0.0055  0.4287
   65bbb     C1 1857   8.596   7.464  10.897 -0.0472  0.1760  0.4052
   65bbb     H1 1858   8.679   7.396  10.919 -0.9020 -0.9999  0.1508
   65bbb     H2 1859   8.506   7.405  10.922 -0.2198 -0.1239 -0.8508
   65bbb     C2 1860   8.482   7.562  10.693  0.4537  0.2052  0.0000
   65bbb     H3 1861   8.409   7.566  10.775  0.3653  1.3813 -0.1139
   65bbb     H4 1862   8.443   7.510  10.604  0.1103  2.0809 -0.9995
   65bbb     C3 1863   8.634   7.366  10.674  0.3834 -0.4294  0.3189
   65bbb     H5 1864   8.549   7.297  10.668  1.7651 -2.3579  1.6550
   65bbb     H6 1865   8.721   7.316  10.720 -0.6554 -1.0936  1.6294
   65bbb     C4 1866   8.680   7.407  10.528  0.3143 -0.0733 -0.2398
   65bbb     H7 1867   8.747   7.494  10.537 -1.5407  1.2606  2.0302
   65bbb     H8 1868   8.591   7.441  10.474 -0.1616 -2.9244 -1.3789
   65bbb     C5 1869   8.603   7.593  10.984 -0.2791 -0.3426 -0.1252
   65bbb     H9 1870   8.511   7.651  10.968 -1.3109 -1.8391  0.1841
   65bbb    H10 1871   8.683   7.659  10.946  0.4691 -1.2782 -0.2055
   65bbb     C6 1872   8.531   7.702  10.662 -0.3073  0.2950  0.2600
   65bbb    H11 1873   8.607   7.684  10.584  0.0497 -0.1577  0.7013
   65bbb    H12 1874   8.582   7.740  10.751  0.6017 -2.1245  0.8762
   65bbb     C7 1875   8.742   7.295  10.452 -0.5427  0.1951  0.4805
   65bbb    H13 1876   8.727   7.319  10.346 -2.7809 -1.3542  0.3723
   65bbb    H14 1877   8.687   7.202  10.473 -0.6090 -0.5371 -2.5041
   65bbb     C8 1878   8.416   7.798  10.618  0.1657  0.0200 -0.0945
   65bbb    H15 1879   8.455   7.897  10.591 -1.3309  0.2599 -1.4804
   65bbb    H16 1880   8.344   7.807  10.701 -0.3256 -0.9909 -0.3955
   65bbb     C9 1881   8.637   7.563  11.134 -0.2479 -0.1264 -0.2150
   65bbb    H17 1882   8.742   7.534  11.148  0.3304  1.7233 -0.3715
   65bbb    H18 1883   8.575   7.483  11.176  1.0551 -1.2046 -0.2925
   65bbb     O1 1884   8.879   7.281  10.486 -0.0616  0.2426  0.7159
   66bbb     N1 1885   8.807   6.406  10.832  0.4240 -0.3030  0.9582
   66bbb     C1 1886   8.753   6.362  10.964 -0.5783  0.1456  0.2438
   66bbb     H1 1887   8.833   6.317  11.023 -0.8974  0.1173  0.6569
   66bbb     H2 1888   8.677   6.283  10.962  0.3768 -0.7928  0.1709
   66bbb     C2 1889   8.817   6.284  10.752  0.2242  0.0280  0.6402
   66bbb     H3 1890   8.803   6.188  10.803  1.8622 -2.3018 -2.8928
   66bbb     H4 1891   8.918   6.264  10.715  0.1384  1.6061 -0.5419
   66bbb     C3 1892   8.931   6.494  10.830 -0.4628 -0.4579 -0.2902
   66bbb     H5 1893   9.008   6.451  10.895 -0.3835 -1.6981 -1.1745
   66bbb     H6 1894   8.910   6.593  10.873  1.6650 -0.3642  0.6287
   66bbb     C4 1895   8.981   6.532  10.686  0.0862  0.6486 -0.1021
   66bbb     H7 1896   8.901   6.589  10.637  0.2837  1.2389  0.2430
   66bbb     H8 1897   8.984   6.439  10.629 -1.5158  0.3567  0.2198
   66bbb     C5 1898   8.714   6.479  11.056 -0.6033 -0.0167  0.2938
   66bbb     H9 1899   8.623   6.524  11.014  0.3927  0.4571 -1.4099
   66bbb    H10 1900   8.798   6.548  11.042  1.0842 -1.8937  0.7479
   66bbb     C6 1901   8.706   6.278  10.638  0.0025  0.6691 -0.1474
   66bbb    H11 1902   8.719   6.192  10.571  0.7796  0.3109  0.4436
   66bbb    H12 1903   8.716   6.370  10.579 -0.4265  2.4034  2.3467
   66bbb     C7 1904   9.116   6.607  10.684 -0.4963  0.3251  0.6472
   66bbb    H13 1905   9.139   6.612  10.577 -1.3354 -0.6891  0.4038
   66bbb    H14 1906   9.194   6.549  10.735  2.1286  3.2286  0.2615
   66bbb     C8 1907   8.567   6.268  10.703  0.0145  0.2574 -0.7213
   66bbb    H15 1908   8.541   6.367  10.742  1.4531  0.1472  0.5678
   66bbb    H16 1909   8.571   6.199  10.789 -1.5306  1.1239  0.0889
   66bbb     C9 1910   8.701   6.439  11.202 -0.3762 -0.1250 -0.1875
   66bbb    H17 1911   8.804   6.424  11.235 -0.0232 -1.8683 -1.8983
   66bbb    H18 1912   8.637   6.351  11.219 -0.0659 -0.3110  0.0130
   66bbb     O1 1913   9.101   6.735  10.751  0.5523 -0.5783  0.8928
   67bbb     N1 1914   9.996   8.901   7.465 -0.4490  0.1947 -0.1046
   67bbb     C1 1915   9.923   9.006   7.382  0.5107  0.0654 -0.2688
   67bbb     H1 1916   9.984   9.048   7.300 -1.3613  1.7637 -0.8805
   67bbb     H2 1917   9.888   9.092   7.440 -1.8377 -1.6440  0.9923
   67bbb     C2 1918  10.140   8.927   7.513  0.0372  1.4310  0.1328
   67bbb     H3 1919  10.188   8.831   7.539 -1.0378  0.6740 -0.6149
   67bbb     H4 1920  10.140   8.989   7.604  0.0754  1.8098 -0.1238
   67bbb     C3 1921   9.914   8.813   7.549 -0.0882  0.0544 -0.4269
   67bbb     H5 1922   9.985   8.749   7.601  1.6370  1.8469 -0.4785
   67bbb     H6 1923   9.846   8.745   7.495  0.0895 -1.3370  1.0235
   67bbb     C4 1924   9.830   8.892   7.657  0.1081 -0.4263  0.1996
   67bbb     H7 1925   9.742   8.930   7.603  0.2769 -0.0477  0.1862
   67bbb     H8 1926   9.889   8.977   7.692 -0.6435 -0.0355  0.5371
   67bbb     C5 1927   9.800   8.959   7.304  0.0449  0.0566  0.3547
   67bbb     H9 1928   9.727   8.937   7.382 -1.6092  0.6555 -0.9659
   67bbb    H10 1929   9.829   8.866   7.254 -0.3493 -0.6194  1.3521
   67bbb     C6 1930  10.233   8.993   7.414  0.6271 -0.4771  0.3304
   67bbb    H11 1931  10.320   9.022   7.475 -0.3222 -1.0701  2.0471
   67bbb    H12 1932  10.187   9.082   7.369  0.9306  0.3948  1.6619
   67bbb     C7 1933   9.788   8.800   7.776 -0.2658  0.6585  0.1442
   67bbb    H13 1934   9.878   8.752   7.817 -0.4350 -0.6381 -0.9419
   67bbb    H14 1935   9.713   8.730   7.738 -1.4227  1.9466 -0.0367
   67bbb     C8 1936  10.279   8.894   7.303  0.4124  0.3243  0.5524
   67bbb    H15 1937  10.195   8.891   7.232  2.1142  0.1543 -1.5448
   67bbb    H16 1938  10.299   8.797   7.349 -3.8322 -1.1486 -0.2403
   67bbb     C9 1939   9.750   9.065   7.193 -0.7374  0.4482 -0.3489
   67bbb    H17 1940   9.816   9.059   7.105 -0.5117 -1.5357 -0.0784
   67bbb    H18 1941   9.763   9.164   7.239 -1.0356 -0.3510  1.5558
   67bbb     O1 1942   9.738   8.879   7.884  0.6020  0.3313  0.0201
   68bbb     N1 1943  10.295   8.286   8.720  0.1163 -0.4691 -0.5072
   68bbb     C1 1944  10.381   8.177   8.663 -0.3146  0.2164 -1.2122
   68bbb     H1 1945  10.479   8.179   8.712 -1.6964 -2.0241  1.9948
   68bbb     H2 1946  10.400   8.189   8.556  0.1770  2.2611 -0.9353
   68bbb     C2 1947  10.277   8.264   8.867  0.2533 -1.1919  0.4806
   68bbb     H3 1948  10.217   8.173   8.876 -1.5550  0.0108  1.0072
   68bbb     H4 1949  10.213   8.349   8.893  0.4995 -1.3614  1.7294
   68bbb     C3 1950  10.320   8.428   8.685  0.1242 -0.9265 -0.1564
   68bbb     H5 1951  10.421   8.460   8.714 -0.2103  0.1018 -0.0631
   68bbb     H6 1952  10.257   8.497   8.743  0.6581 -0.1686 -0.4631
   68bbb     C4 1953  10.312   8.468   8.534  0.1224  0.4608 -0.2167
   68bbb     H7 1954  10.406   8.445   8.482  0.5832  1.5135  0.1118
   68bbb     H8 1955  10.306   8.578   8.535  2.1374  0.6135 -0.6423
   68bbb     C5 1956  10.321   8.027   8.682  0.7020 -0.1846  0.7368
   68bbb     H9 1957  10.223   8.019   8.634  0.5090  3.8588  0.0859
   68bbb    H10 1958  10.297   8.003   8.786 -1.7588 -1.4219 -0.0251
   68bbb     C6 1959  10.398   8.279   8.955  0.3300 -0.2030  0.2715
   68bbb    H11 1960  10.432   8.383   8.951  0.4901 -0.2815 -2.1184
   68bbb    H12 1961  10.480   8.218   8.917 -0.2705 -0.3775 -0.7920
   68bbb     C7 1962  10.190   8.414   8.465 -0.8171  0.5995 -0.3647
   68bbb    H13 1963  10.101   8.454   8.515 -0.1018  0.2437  1.2404
   68bbb    H14 1964  10.187   8.306   8.477 -0.8549  0.5836 -0.5106
   68bbb     C8 1965  10.367   8.243   9.102  0.1168  0.2608  0.9341
   68bbb    H15 1966  10.292   8.163   9.105  0.0912  0.3106  2.9838
   68bbb    H16 1967  10.317   8.323   9.158  0.1339  1.7659 -1.0938
   68bbb     C9 1968  10.424   7.924   8.630 -0.8627  0.0110 -0.3231
   68bbb    H17 1969  10.434   7.941   8.522 -0.4025  1.0938 -0.1255
   68bbb    H18 1970  10.385   7.822   8.642 -0.8777  0.0657  0.0984
   68bbb     O1 1971  10.209   8.458   8.325 -0.1932  0.0668 -0.1142
   69bbb     N1 1972   8.286   8.948   9.105  0.7115 -0.3225  0.4219
   69bbb     C1 1973   8.266   9.070   9.032 -0.0954  0.2825 -0.3990
   69bbb     H1 1974   8.284   9.163   9.087 -2.4460  2.0036 -2.3006
   69bbb     H2 1975   8.162   9.090   9.002 -0.3553  0.7842  0.7918
   69bbb     C2 1976   8.204   8.938   9.232 -0.3825 -0.1498  0.6004
   69bbb     H3 1977   8.230   9.021   9.298  1.2586  0.3708 -0.6289
   69bbb     H4 1978   8.230   8.841   9.278 -0.0551 -0.6910 -0.6652
   69bbb     C3 1979   8.419   8.887   9.121  0.2285  0.0821  0.1881
   69bbb     H5 1980   8.447   8.849   9.022  0.3445 -0.2622  0.3526
   69bbb     H6 1981   8.410   8.798   9.185 -2.3501 -0.6601 -1.0871
   69bbb     C4 1982   8.527   8.982   9.184 -0.4198 -0.3591 -0.6710
   69bbb     H7 1983   8.510   9.020   9.285  2.3455  2.2627 -1.0103
   69bbb     H8 1984   8.526   9.080   9.134 -1.0777 -0.8065 -1.5597
   69bbb     C5 1985   8.336   9.056   8.898 -0.3302  0.3312  0.6868
   69bbb     H9 1986   8.332   8.951   8.867 -0.1661 -0.1274  2.1297
   69bbb    H10 1987   8.444   9.071   8.916 -0.2934 -0.1755  0.9047
   69bbb     C6 1988   8.050   8.939   9.224  0.5806  0.2236 -0.3415
   69bbb    H11 1989   8.016   9.009   9.146 -2.0327 -0.5074  0.0264
   69bbb    H12 1990   8.008   8.971   9.320 -1.8738 -0.5677 -1.0644
   69bbb     C7 1991   8.670   8.919   9.181  0.4211  0.1832  0.2090
   69bbb    H13 1992   8.699   8.914   9.075 -1.0691  0.0974 -0.2252
   69bbb    H14 1993   8.659   8.816   9.215  0.6481 -1.0382 -3.0349
   69bbb     C8 1994   7.997   8.794   9.199 -0.0945 -1.0266 -0.3773
   69bbb    H15 1995   8.034   8.739   9.287  0.6634 -0.7179 -0.4943
   69bbb    H16 1996   8.040   8.753   9.107  0.9962  4.0870 -2.4902
   69bbb     C9 1997   8.281   9.141   8.788 -0.3430  0.1110 -0.2926
   69bbb    H17 1998   8.292   9.247   8.816 -0.3770  0.1946 -0.5905
   69bbb    H18 1999   8.172   9.131   8.782 -0.0977 -2.8032 -1.4996
   69bbb     O1 2000   8.769   8.990   9.252 -0.2948  0.6164 -0.2484
   70bbb     N1 2001   9.913   9.322   9.642 -0.9340  0.2461  0.0067
   70bbb     C1 2002  10.105   9.475   9.595 -0.2916  0.1231  0.0917
   70bbb     H1 2003  10.183   9.452   9.521  2.5771  1.8619  2.3734
   70bbb     H2 2004  10.174   9.499   9.677 -1.9839 -0.5563  1.7799
   70bbb     C2 2005   9.896   9.162   9.641  0.3765  0.4936 -0.6260
   70bbb     H3 2006   9.899   9.134   9.747  1.3237  0.4304 -0.6632
   70bbb     H4 2007   9.981   9.109   9.596  0.3258  0.6338 -0.8904
   70bbb     C3 2008   9.762   9.357   9.685  0.0635  0.0139  0.6514
   70bbb     H5 2009   9.700   9.347   9.595  1.2876 -0.3207 -0.1886
   70bbb     H6 2010   9.735   9.457   9.722 -5.0861 -0.9341  0.1532
   70bbb     C4 2011   9.704   9.278   9.802 -0.1179  0.0822 -0.2670
   70bbb     H7 2012   9.756   9.303   9.895 -1.7924 -0.1768  0.7646
   70bbb     H8 2013   9.709   9.169   9.791  0.2000 -0.0575  1.1159
   70bbb     C5 2014  10.130   9.628   9.551 -0.5908  0.1478 -0.5699
   70bbb     H9 2015  10.076   9.693   9.620 -1.8057 -2.7033  1.3669
   70bbb    H10 2016  10.092   9.652   9.451  0.2560 -1.4332 -1.3240
   70bbb     C6 2017   9.771   9.090   9.566  0.2453  0.3201 -0.2895
   70bbb    H11 2018   9.781   9.114   9.460  0.0380 -0.1772 -0.4226
   70bbb    H12 2019   9.669   9.125   9.585  0.9256  1.9210  0.6023
   70bbb     C7 2020   9.555   9.303   9.815 -0.5970  0.0098  0.8309
   70bbb    H13 2021   9.527   9.410   9.810 -0.6579 -0.0210  0.4796
   70bbb    H14 2022   9.513   9.267   9.909 -1.4797 -0.0999  0.4117
   70bbb     C8 2023   9.768   8.930   9.573  1.0385 -0.2703 -0.0625
   70bbb    H15 2024   9.830   8.886   9.493  1.1750 -1.8492  0.8657
   70bbb    H16 2025   9.665   8.894   9.566  0.5081  1.3397 -1.0415
   70bbb     C9 2026  10.282   9.673   9.549  0.4794 -0.5501 -0.1614
   70bbb    H17 2027  10.328   9.679   9.649 -1.4145  0.7897  0.6968
   70bbb    H18 2028  10.285   9.779   9.521 -1.2310  0.4680  3.0294
   70bbb     O1 2029   9.488   9.234   9.704 -0.7365  0.0134  0.1294
   71bbb     N1 2030   7.051   5.833   7.231  0.8098 -0.0835 -0.4143
   71bbb     C1 2031   7.006   5.965   7.270 -0.4478 -0.4897 -0.2967
   71bbb     H1 2032   7.096   6.022   7.294  0.5851 -1.4386 -1.7907
   71bbb     H2 2033   6.946   5.955   7.362 -0.4794  0.1322 -0.2462
   71bbb     C2 2034   6.948   5.728   7.200 -0.2578 -0.2707  0.0606
   71bbb     H3 2035   6.858   5.779   7.163 -0.4010  0.8596  1.8466
   71bbb     H4 2036   6.914   5.682   7.293 -0.3759 -0.5254 -0.1103
   71bbb     C3 2037   7.165   5.780   7.309  0.0128 -0.7543 -0.3556
   71bbb     H5 2038   7.195   5.680   7.276 -2.0052 -1.4256 -0.2986
   71bbb     H6 2039   7.139   5.776   7.415 -1.8330  1.9783 -0.5943
   71bbb     C4 2040   7.298   5.872   7.297 -0.2487 -0.1724 -0.6156
   71bbb     H7 2041   7.283   5.964   7.354 -0.9918 -1.5875  1.5908
   71bbb     H8 2042   7.335   5.900   7.197 -0.5250 -0.2198 -0.7311
   71bbb     C5 2043   6.928   6.046   7.162  0.0910 -0.0709 -0.2939
   71bbb     H9 2044   6.927   6.148   7.204 -2.1126 -0.4010  0.5710
   71bbb    H10 2045   6.832   5.999   7.137  0.6446 -0.3380 -2.0303
   71bbb     C6 2046   6.997   5.625   7.095 -0.0331 -0.0474 -0.2374
   71bbb    H11 2047   6.910   5.565   7.068 -2.0304  1.4663  2.3859
   71bbb    H12 2048   7.076   5.562   7.137 -1.2880 -1.7693 -0.3509
   71bbb     C7 2049   7.425   5.813   7.368  0.3524  1.1722 -0.3983
   71bbb    H13 2050   7.473   5.750   7.291  2.0072 -1.3233  2.4467
   71bbb    H14 2051   7.396   5.755   7.456  1.2038 -3.6703 -2.8855
   71bbb     C8 2052   7.035   5.685   6.968 -0.6046 -0.0811  0.2051
   71bbb    H15 2053   7.109   5.765   6.982  1.1706 -1.1602 -2.2533
   71bbb    H16 2054   6.953   5.738   6.918 -0.5859 -0.3662 -0.1325
   71bbb     C9 2055   7.006   6.037   7.028  0.1210 -0.4680  0.2338
   71bbb    H17 2056   6.980   5.947   6.972  0.1003 -0.4610  0.2326
   71bbb    H18 2057   7.109   6.019   7.061 -0.1976 -1.9572  0.4858
   71bbb     O1 2058   7.513   5.908   7.404 -0.4295  0.1140  0.3767
   72bbb     N1 2059   6.791   6.126   7.968  0.4347 -0.5355  0.3561
   72bbb     C1 2060   6.734   6.200   7.853 -0.0506  0.0798 -0.0929
   72bbb     H1 2061   6.660   6.132   7.810  0.3118 -2.1783  2.5553
   72bbb     H2 2062   6.808   6.216   7.774 -1.5169 -1.1477 -1.7788
   72bbb     C2 2063   6.704   6.015   8.005 -1.1177  0.2822 -0.5781
   72bbb     H3 2064   6.693   5.939   7.926  0.1969 -2.1129  1.4116
   72bbb     H4 2065   6.602   6.051   8.024 -0.3002  2.1617  0.4559
   72bbb     C3 2066   6.929   6.079   7.932  0.0579  0.0247 -0.0980
   72bbb     H5 2067   6.985   6.069   8.026  0.0497  0.8100  0.0002
   72bbb     H6 2068   6.984   6.159   7.881  0.4304 -0.3947 -0.3521
   72bbb     C4 2069   6.933   5.957   7.844  0.0488  0.6200  0.1962
   72bbb     H7 2070   6.851   5.953   7.771 -0.9234  1.8569  1.1744
   72bbb     H8 2071   6.933   5.864   7.901  0.6881  0.7550  0.4271
   72bbb     C5 2072   6.660   6.337   7.889 -0.4181  0.4872 -0.4720
   72bbb     H9 2073   6.607   6.327   7.984 -1.2382 -0.2983 -0.9892
   72bbb    H10 2074   6.587   6.355   7.809  0.1485  2.6311 -0.5753
   72bbb     C6 2075   6.741   5.928   8.137  0.0561  0.2099  0.1275
   72bbb    H11 2076   6.743   5.988   8.229  0.1933 -1.5429  1.3172
   72bbb    H12 2077   6.847   5.901   8.133 -0.3251 -1.2534 -2.1245
   72bbb     C7 2078   7.057   5.950   7.754 -0.1607 -0.4438 -0.1663
   72bbb    H13 2079   7.041   6.018   7.670  1.2542  1.2282  0.8357
   72bbb    H14 2080   7.066   5.847   7.717 -0.8198  0.0154 -1.6847
   72bbb     C8 2081   6.655   5.794   8.144 -0.7509 -0.6136 -0.3089
   72bbb    H15 2082   6.676   5.731   8.056 -0.2273 -2.7552  1.2475
   72bbb    H16 2083   6.548   5.817   8.139 -0.2006  1.9563 -4.3779
   72bbb     C9 2084   6.764   6.452   7.917 -0.0368 -0.0138  0.9273
   72bbb    H17 2085   6.834   6.466   7.833 -0.3650 -0.9570  0.4899
   72bbb    H18 2086   6.825   6.419   8.002  1.1991  0.4560  0.2542
   72bbb     O1 2087   7.170   5.984   7.829 -0.2807 -0.0090 -0.2811
   73bbb     N1 2088   8.524   6.070   7.714 -0.6695  0.2480  0.3512
   73bbb     C1 2089   8.662   6.115   7.733  0.0417 -0.4940 -0.2019
   73bbb     H1 2090   8.661   6.190   7.813 -2.7662 -0.4105 -0.2245
   73bbb     H2 2091   8.702   6.157   7.640 -0.4107 -3.0360 -1.6367
   73bbb     C2 2092   8.423   6.185   7.691  0.3537  0.1231  0.3336
   73bbb     H3 2093   8.423   6.258   7.773 -0.2681  0.9745 -0.4043
   73bbb     H4 2094   8.322   6.142   7.700  1.1373 -1.9627 -0.2709
   73bbb     C3 2095   8.513   5.962   7.613  0.6756 -0.4646  0.2032
   73bbb     H5 2096   8.602   5.899   7.622 -0.1036 -1.2770  3.3328
   73bbb     H6 2097   8.507   6.007   7.513 -0.1523  2.1847  1.3594
   73bbb     C4 2098   8.382   5.873   7.647 -0.8199 -0.1396  0.2135
   73bbb     H7 2099   8.297   5.927   7.604  0.1927  0.2800 -1.3116
   73bbb     H8 2100   8.371   5.869   7.757 -2.0782  1.1328  0.1569
   73bbb     C5 2101   8.756   6.002   7.791  0.1881 -0.9103  0.1417
   73bbb     H9 2102   8.853   6.041   7.826  0.6137  0.6520 -2.4669
   73bbb    H10 2103   8.787   5.938   7.707 -3.2224 -1.4644 -0.8718
   73bbb     C6 2104   8.429   6.261   7.554 -0.4284 -0.0748  0.2998
   73bbb    H11 2105   8.378   6.204   7.476 -0.3391  0.4659 -0.1608
   73bbb    H12 2106   8.529   6.262   7.509 -0.7718 -1.2365 -0.5388
   73bbb     C7 2107   8.382   5.735   7.581  0.1861 -0.0701 -0.0205
   73bbb    H13 2108   8.469   5.682   7.622 -1.4252 -2.2759  0.7754
   73bbb    H14 2109   8.369   5.749   7.473  1.8558  1.6955 -0.0570
   73bbb     C8 2110   8.368   6.411   7.560 -0.0259 -0.3658  0.2745
   73bbb    H15 2111   8.260   6.396   7.564 -0.6323  2.5372 -1.8950
   73bbb    H16 2112   8.394   6.461   7.466  1.9724 -0.4661  0.7288
   73bbb     C9 2113   8.697   5.929   7.906  0.0047  0.1260 -0.4079
   73bbb    H17 2114   8.592   5.902   7.888 -0.8550  1.2529  2.3460
   73bbb    H18 2115   8.701   6.002   7.988 -1.7995  3.9715 -3.4062
   73bbb     O1 2116   8.274   5.666   7.639  0.1939  0.0474 -0.0207
   74bbb     N1 2117   7.907   4.747   7.919 -0.4549  0.6630  0.4532
   74bbb     C1 2118   7.883   4.593   7.916  0.3201  0.2037 -0.3054
   74bbb     H1 2119   7.980   4.542   7.907  1.3509  1.7791  1.3790
   74bbb     H2 2120   7.837   4.564   7.821  0.1675  0.0315 -0.1805
   74bbb     C2 2121   7.784   4.829   7.896 -0.1957  0.2289 -0.6159
   74bbb     H3 2122   7.703   4.781   7.952 -1.8868  0.6237 -2.6167
   74bbb     H4 2123   7.756   4.829   7.790 -2.3827  0.6761 -0.0826
   74bbb     C3 2124   8.018   4.786   7.828 -0.0989  0.5242 -0.0101
   74bbb     H5 2125   8.030   4.895   7.830 -1.0389  0.6232  0.8428
   74bbb     H6 2126   7.998   4.757   7.724  2.3779  0.2905 -0.4882
   74bbb     C4 2127   8.151   4.722   7.870 -0.1575  0.5190  0.2374
   74bbb     H7 2128   8.157   4.620   7.833  1.7022  0.3940  0.8062
   74bbb     H8 2129   8.158   4.724   7.980  0.4313 -0.3095  0.2202
   74bbb     C5 2130   7.800   4.529   8.030 -0.0099 -0.3367 -0.0644
   74bbb     H9 2131   7.698   4.570   8.034  0.2315  0.2658  0.1684
   74bbb    H10 2132   7.849   4.558   8.124 -0.3526  2.7189 -0.6993
   74bbb     C6 2133   7.792   4.977   7.939 -1.0184  0.2369  0.0172
   74bbb    H11 2134   7.877   5.019   7.884 -0.8617  1.0913  0.8815
   74bbb    H12 2135   7.821   4.983   8.045 -0.2252  0.0550 -0.1794
   74bbb     C7 2136   8.269   4.809   7.813  0.3312 -0.1894  0.1709
   74bbb    H13 2137   8.242   4.831   7.709 -0.9998 -0.8325  0.3562
   74bbb    H14 2138   8.362   4.750   7.805  2.1717  2.6574 -0.9850
   74bbb     C8 2139   7.661   5.055   7.921  0.1218  0.1453  0.1341
   74bbb    H15 2140   7.620   5.038   7.821 -0.3477 -0.3644  0.4089
   74bbb    H16 2141   7.682   5.162   7.932 -0.8034  0.4471 -0.8558
   74bbb     C9 2142   7.801   4.375   8.027 -0.4481 -0.2600 -0.0472
   74bbb    H17 2143   7.795   4.358   7.919 -0.9825  1.7768 -0.3762
   74bbb    H18 2144   7.710   4.336   8.074 -1.6037  1.0427 -1.1258
   74bbb     O1 2145   8.285   4.932   7.889 -0.0061  0.0201  0.0308
   75bbb     N1 2146   8.651   8.829   6.754 -0.1714 -0.8995  0.1273
   75bbb     C1 2147   8.534   8.751   6.704  0.4097 -0.2638  0.9071
   75bbb     H1 2148   8.530   8.647   6.736 -1.6721 -0.2125  0.9402
   75bbb     H2 2149   8.543   8.743   6.595  0.6029 -2.9999  1.0790
   75bbb     C2 2150   8.668   8.966   6.694  0.8581 -0.7622 -0.0495
   75bbb     H3 2151   8.754   9.007   6.747 -0.3249  1.9405 -0.0843
   75bbb     H4 2152   8.594   9.043   6.719  2.1593  0.1275  1.1810
   75bbb     C3 2153   8.641   8.844   6.901 -0.2625 -0.8224 -0.1073
   75bbb     H5 2154   8.557   8.909   6.929  0.6271 -0.2026  1.1863
   75bbb     H6 2155   8.730   8.900   6.932  0.0561  0.0065 -2.3324
   75bbb     C4 2156   8.630   8.707   6.982 -0.1392  0.1746 -0.9254
   75bbb     H7 2157   8.533   8.662   6.960 -1.8159  3.7511 -1.5147
   75bbb     H8 2158   8.618   8.730   7.088  1.0155 -0.2546 -0.6792
   75bbb     C5 2159   8.395   8.822   6.742 -0.3447  1.1957  0.7557
   75bbb     H9 2160   8.409   8.928   6.766  0.3822  1.4476 -0.6482
   75bbb    H10 2161   8.339   8.771   6.821  0.6243 -0.9437  0.1308
   75bbb     C6 2162   8.688   8.978   6.537 -0.0023  0.2004 -0.0149
   75bbb    H11 2163   8.706   9.084   6.518 -0.2163  0.3787  0.7398
   75bbb    H12 2164   8.597   8.949   6.483  0.6836 -2.2642  0.0174
   75bbb     C7 2165   8.747   8.608   6.962  0.2906  0.4468  0.0757
   75bbb    H13 2166   8.835   8.644   7.018  0.4345  0.8341 -0.3907
   75bbb    H14 2167   8.777   8.605   6.857 -1.4740 -0.2086 -0.4420
   75bbb     C8 2168   8.804   8.896   6.477 -0.4602 -0.6742  0.3780
   75bbb    H15 2169   8.793   8.892   6.367 -0.1095  0.8685  0.2646
   75bbb    H16 2170   8.791   8.794   6.516 -1.6262 -0.7073 -0.0346
   75bbb     C9 2171   8.317   8.814   6.610 -0.1585 -0.0529 -0.0162
   75bbb    H17 2172   8.322   8.721   6.553 -0.2312 -0.6772  0.9636
   75bbb    H18 2173   8.364   8.891   6.548  3.0228 -3.2128 -1.9336
   75bbb     O1 2174   8.708   8.480   7.006 -0.3812  0.3800 -0.0762
   76bbb     N1 2175   8.510   7.820   6.256  0.2940 -0.2429  0.0554
   76bbb     C1 2176   8.367   7.781   6.299  0.3327  0.4923  0.7873
   76bbb     H1 2177   8.312   7.791   6.205  0.0656 -0.6681  0.8007
   76bbb     H2 2178   8.334   7.848   6.380  0.0074 -0.1597  1.2078
   76bbb     C2 2179   8.568   7.742   6.141  0.0606 -0.7097 -0.3669
   76bbb     H3 2180   8.571   7.633   6.150 -1.9133 -1.2293 -3.9386
   76bbb     H4 2181   8.673   7.767   6.121 -0.5660  1.6221 -1.1631
   76bbb     C3 2182   8.599   7.823   6.374 -0.5118  0.1076  0.3464
   76bbb     H5 2183   8.701   7.840   6.336 -0.5023  1.5990  0.9665
   76bbb     H6 2184   8.616   7.726   6.422  0.3504 -0.6877 -1.4768
   76bbb     C4 2185   8.568   7.927   6.483  0.5096 -0.0623  0.2940
   76bbb     H7 2186   8.483   7.986   6.445  2.1142  3.2950  1.4772
   76bbb     H8 2187   8.653   7.995   6.490  0.2610  0.2461  0.3890
   76bbb     C5 2188   8.350   7.638   6.355 -0.2266  0.0735 -0.5008
   76bbb     H9 2189   8.423   7.603   6.429 -1.0265 -1.7178 -0.5116
   76bbb    H10 2190   8.374   7.566   6.277  1.5814 -0.7688  0.7672
   76bbb     C6 2191   8.507   7.773   6.004  0.7139 -0.6728 -0.3114
   76bbb    H11 2192   8.501   7.882   5.989 -3.5030 -0.4047  1.9196
   76bbb    H12 2193   8.407   7.729   6.005  0.0181  0.7999  1.6596
   76bbb     C7 2194   8.548   7.874   6.629 -0.2025  0.0683  0.5574
   76bbb    H13 2195   8.497   7.777   6.623  0.5012 -0.2560 -0.5031
   76bbb    H14 2196   8.493   7.939   6.698  2.1739  1.6110  1.1315
   76bbb     C8 2197   8.576   7.696   5.888  0.1159  0.4722 -0.1622
   76bbb    H15 2198   8.684   7.705   5.903 -0.2384  1.5968  2.2005
   76bbb    H16 2199   8.550   7.739   5.790 -2.6887 -2.1392 -0.7325
   76bbb     C9 2200   8.207   7.617   6.406 -0.2854  0.6584  0.5990
   76bbb    H17 2201   8.167   7.697   6.469  0.7380 -0.5416  2.9193
   76bbb    H18 2202   8.199   7.536   6.480 -1.8186 -0.6315 -0.8981
   76bbb     O1 2203   8.681   7.849   6.675  0.2752 -0.2632  0.5109
   77bbb     N1 2204  10.170   7.175   8.246  0.4042  0.5095  1.2077
   77bbb     C1 2205  10.186   7.322   8.261 -0.4905 -0.0896 -0.2405
   77bbb     H1 2206  10.088   7.365   8.285 -1.1088 -0.3178 -2.2046
   77bbb     H2 2207  10.212   7.371   8.166 -1.9180  0.0433 -0.5841
   77bbb     C2 2208  10.297   7.093   8.243  0.7967 -0.1461 -0.8043
   77bbb     H3 2209  10.264   6.989   8.245  0.4887 -0.0425 -0.1167
   77bbb     H4 2210  10.350   7.124   8.334  0.5310  1.0654 -1.0414
   77bbb     C3 2211  10.074   7.149   8.130 -0.4201 -0.1237  0.6471
   77bbb     H5 2212  10.087   7.051   8.082  0.2043 -0.2503  1.0451
   77bbb     H6 2213  10.092   7.216   8.045  0.5269 -1.3802 -0.1838
   77bbb     C4 2214   9.924   7.153   8.174 -0.1762  0.0184  0.4302
   77bbb     H7 2215   9.880   7.252   8.193 -1.6016 -0.7335  1.1420
   77bbb     H8 2216   9.914   7.092   8.264 -0.3768 -1.4834 -0.5747
   77bbb     C5 2217  10.284   7.370   8.374  1.5063 -0.1797 -0.1044
   77bbb     H9 2218  10.385   7.337   8.346  0.4674 -2.6857 -1.2243
   77bbb    H10 2219  10.263   7.313   8.466 -0.2135  0.9986  0.2663
   77bbb     C6 2220  10.391   7.130   8.128  0.4928 -1.0254 -0.3886
   77bbb    H11 2221  10.420   7.235   8.143  2.0489 -1.2014 -1.8515
   77bbb    H12 2222  10.334   7.124   8.035 -1.0596 -0.3264  0.4801
   77bbb     C7 2223   9.833   7.090   8.060 -0.6803  0.2535 -0.7561
   77bbb    H13 2224   9.735   7.064   8.103  0.4531  0.2128  1.9941
   77bbb    H14 2225   9.888   6.997   8.039  1.7024  1.6267 -0.8422
   77bbb     C8 2226  10.516   7.045   8.114 -0.0724 -0.1892  0.0795
   77bbb    H15 2227  10.584   7.051   8.200  2.5555 -0.8351 -1.8251
   77bbb    H16 2228  10.566   7.098   8.033 -0.2427 -0.3023 -0.1007
   77bbb     C9 2229  10.282   7.521   8.412  0.0561  0.4730 -0.3491
   77bbb    H17 2230  10.334   7.532   8.508  0.2836  2.3927 -0.6405
   77bbb    H18 2231  10.181   7.561   8.424 -0.2480 -0.1594 -0.7741
   77bbb     O1 2232   9.845   7.175   7.949  0.3845 -0.1680  0.0019
   78bbb     N1 2233  10.074   6.878   6.587  0.1649  0.2208 -0.0667
   78bbb     C1 2234  10.151   6.937   6.470  0.8718 -0.2991  0.6865
   78bbb     H1 2235  10.093   6.955   6.378  2.3846 -2.3899 -0.7746
   78bbb     H2 2236  10.215   6.857   6.430 -0.6556 -0.7060 -1.0557
   78bbb     C2 2237   9.987   6.756   6.548  0.4601 -0.1092 -0.0186
   78bbb     H3 2238   9.944   6.708   6.637  2.2920 -0.4412  0.7434
   78bbb     H4 2239  10.060   6.683   6.512  1.6066  0.6482  0.7016
   78bbb     C3 2240  10.005   6.988   6.665 -0.0068  0.2746  0.3825
   78bbb     H5 2241   9.916   7.020   6.609  0.0091 -1.6910 -0.8438
   78bbb     H6 2242  10.070   7.076   6.677 -1.0054  1.1745 -0.5496
   78bbb     C4 2243   9.950   6.946   6.801 -0.3876  0.1131  0.1541
   78bbb     H7 2244  10.001   6.857   6.841 -0.4351  0.8312  1.8891
   78bbb     H8 2245   9.843   6.922   6.795 -0.5022  0.4862  0.6723
   78bbb     C5 2246  10.249   7.051   6.495  0.5551  0.5862 -0.1138
   78bbb     H9 2247  10.290   7.028   6.594 -2.3260 -1.0745  0.8122
   78bbb    H10 2248  10.190   7.143   6.508 -1.1227 -0.5713  0.8804
   78bbb     C6 2249   9.878   6.786   6.450 -0.2580  0.4948  0.0207
   78bbb    H11 2250   9.910   6.852   6.368 -3.0360  2.6566  0.5291
   78bbb    H12 2251   9.803   6.838   6.511  2.0605  1.8011  1.9694
   78bbb     C7 2252   9.955   7.068   6.898  0.4295  0.3052  0.1121
   78bbb    H13 2253   9.908   7.157   6.854 -1.5189 -0.5350  0.3652
   78bbb    H14 2254  10.060   7.096   6.908  0.7054 -0.3875 -0.7339
   78bbb     C8 2255   9.813   6.661   6.389  0.5110 -0.2866  0.0834
   78bbb    H15 2256   9.770   6.597   6.467  0.3954 -1.3044 -0.7812
   78bbb    H16 2257   9.886   6.613   6.322 -0.2179  2.3649 -2.8556
   78bbb     C9 2258  10.363   7.082   6.397  0.4227  0.8074 -0.3798
   78bbb    H17 2259  10.431   6.997   6.410 -2.7890 -2.1060 -1.1386
   78bbb    H18 2260  10.414   7.178   6.415 -3.3969  2.6151  2.2534
   78bbb     O1 2261   9.896   7.024   7.018  0.4457 -0.0621 -0.1174
   79bbb     N1 2262   5.682   7.438  11.524  0.2018 -0.4538 -0.7581
   79bbb     C1 2263   5.676   7.587  11.563 -0.1567  0.0133  0.2586
   79bbb     H1 2264   5.778   7.627  11.571 -0.3653  0.6677 -0.3039
   79bbb     H2 2265   5.627   7.593  11.661  1.3183  1.3662  0.9444
   79bbb     C2 2266   5.551   7.372  11.541  0.2402  0.5714  0.6909
   79bbb     H3 2267   5.480   7.421  11.474  0.9454  0.9671  0.2143
   79bbb     H4 2268   5.512   7.385  11.642 -1.2096 -0.8913  0.3451
   79bbb     C3 2269   5.748   7.409  11.397  0.5126 -0.2857  0.2595
   79bbb     H5 2270   5.690   7.452  11.314 -0.4435 -0.4880  0.8127
   79bbb     H6 2271   5.755   7.301  11.376  0.5189 -0.2683  0.1702
   79bbb     C4 2272   5.888   7.468  11.391  0.0351 -0.1693  0.4604
   79bbb     H7 2273   5.942   7.412  11.468  1.4569 -3.0283 -2.3489
   79bbb     H8 2274   5.890   7.577  11.401  0.0044  0.1536 -2.1818
   79bbb     C5 2275   5.600   7.677  11.457  0.0716 -0.1622 -0.6895
   79bbb     H9 2276   5.502   7.630  11.440 -0.4305  0.7128 -0.2859
   79bbb    H10 2277   5.650   7.683  11.359 -0.9114  1.2462 -1.1328
   79bbb     C6 2278   5.544   7.223  11.523 -0.4155 -0.4293 -0.3422
   79bbb    H11 2279   5.541   7.212  11.414  0.1924  3.5801 -0.9142
   79bbb    H12 2280   5.449   7.187  11.564 -0.7923  1.1142  0.1777
   79bbb     C7 2281   5.976   7.419  11.274 -0.0137 -0.1898  0.4238
   79bbb    H13 2282   6.073   7.470  11.262 -0.0673 -0.5509 -2.0747
   79bbb    H14 2283   5.932   7.447  11.177  2.2392  3.2721  0.2405
   79bbb     C8 2284   5.661   7.135  11.579  0.3405  0.3463 -0.2436
   79bbb    H15 2285   5.657   7.120  11.687  0.0412 -0.4768 -0.3544
   79bbb    H16 2286   5.752   7.181  11.538  1.3438 -0.7077  0.7285
   79bbb     C9 2287   5.568   7.811  11.520 -0.4677 -0.2073  0.3065
   79bbb    H17 2288   5.512   7.790  11.613  0.9214 -1.0811  0.9784
   79bbb    H18 2289   5.497   7.870  11.461 -0.1864 -0.2272 -0.0525
   79bbb     O1 2290   6.001   7.276  11.279  0.3061  0.1530  0.0349
   80bbb     N1 2291   7.424   6.979  11.370 -0.3743  0.3812 -0.3750
   80bbb     C1 2292   7.555   7.011  11.432  0.7076  0.4157  0.1679
   80bbb     H1 2293   7.605   6.917  11.458  0.8902  1.0031  2.0509
   80bbb     H2 2294   7.541   7.063  11.527  1.8463  1.8350 -0.4018
   80bbb     C2 2295   7.366   6.853  11.425  0.3253  0.3387 -0.5460
   80bbb     H3 2296   7.273   6.833  11.371 -1.0018  1.3362  1.2548
   80bbb     H4 2297   7.346   6.867  11.532 -0.5073  0.2210 -0.6834
   80bbb     C3 2298   7.330   7.089  11.382 -0.5286 -0.2115  0.2549
   80bbb     H5 2299   7.373   7.177  11.334 -0.7598 -0.1978  0.0731
   80bbb     H6 2300   7.323   7.123  11.486  0.3330 -0.6524  0.4733
   80bbb     C4 2301   7.186   7.060  11.342 -0.2081  0.0520  0.5749
   80bbb     H7 2302   7.142   6.996  11.420 -2.3588  1.3246  0.4888
   80bbb     H8 2303   7.191   7.006  11.247 -1.4337  1.7762 -0.5224
   80bbb     C5 2304   7.646   7.094  11.341  0.5661 -0.7656 -0.4954
   80bbb     H9 2305   7.594   7.183  11.303  0.0072 -1.2980 -0.9949
   80bbb    H10 2306   7.668   7.035  11.251 -1.6101 -2.4119 -0.0091
   80bbb     C6 2307   7.455   6.725  11.408  0.2815  0.6531  0.0759
   80bbb    H11 2308   7.407   6.631  11.441  0.5645  0.4186 -0.1719
   80bbb    H12 2309   7.535   6.740  11.481  2.4590 -0.3985 -1.9828
   80bbb     C7 2310   7.085   7.178  11.319 -0.0435  0.2249  0.0543
   80bbb    H13 2311   7.137   7.253  11.259 -0.7560  1.5737  1.0555
   80bbb    H14 2312   7.053   7.226  11.413 -1.5789  0.1714 -0.4136
   80bbb     C8 2313   7.512   6.716  11.267 -0.6647  0.5395 -0.4235
   80bbb    H15 2314   7.570   6.809  11.264  0.4132  0.0214  2.1292
   80bbb    H16 2315   7.437   6.711  11.187 -0.3485 -0.5435 -0.6603
   80bbb     C9 2316   7.784   7.143  11.403 -0.4434 -0.3029  0.0368
   80bbb    H17 2317   7.855   7.061  11.420 -0.6374  0.1314  3.5583
   80bbb    H18 2318   7.770   7.182  11.505 -0.9902  0.2807 -0.2556
   80bbb     O1 2319   6.963   7.138  11.254 -0.0242 -0.0751 -0.6803
   81bbb     N1 2320   6.070   6.422   9.559  0.2358  0.2399  0.3440
   81bbb     C1 2321   6.028   6.278   9.532 -0.5190 -0.0540 -0.3880
   81bbb     H1 2322   6.067   6.257   9.432  1.0799  0.9411 -0.0118
   81bbb     H2 2323   5.919   6.270   9.523 -0.4669 -0.8140 -0.3442
   81bbb     C2 2324   6.042   6.506   9.438 -0.5301  0.0598 -0.3100
   81bbb     H3 2325   5.934   6.522   9.442 -0.7292 -1.3059  1.3139
   81bbb     H4 2326   6.071   6.454   9.346 -0.4985  0.5118 -0.5543
   81bbb     C3 2327   6.040   6.480   9.697 -0.2978  0.7098  0.2326
   81bbb     H5 2328   6.099   6.568   9.726 -1.8858  1.9583 -0.1957
   81bbb     H6 2329   6.064   6.407   9.775  1.0012  3.3405  2.4388
   81bbb     C4 2330   5.900   6.513   9.722  0.4210  0.5342 -0.6029
   81bbb     H7 2331   5.822   6.435   9.721 -0.1346  1.0765 -0.4120
   81bbb     H8 2332   5.856   6.587   9.654 -2.3827  1.7462  2.2370
   81bbb     C5 2333   6.083   6.168   9.627 -0.3543 -0.1491 -0.9699
   81bbb     H9 2334   6.076   6.201   9.731  1.3571  0.6708 -1.0666
   81bbb    H10 2335   6.188   6.156   9.597  0.7808  2.1997  1.6646
   81bbb     C6 2336   6.110   6.644   9.433 -0.5212 -0.2972  0.0152
   81bbb    H11 2337   6.215   6.615   9.421 -0.7132 -0.7772 -0.5675
   81bbb    H12 2338   6.099   6.693   9.530  2.7218  1.4659 -0.3646
   81bbb     C7 2339   5.870   6.585   9.858  0.0843  0.0346 -0.2313
   81bbb    H13 2340   5.773   6.636   9.853  0.6359  1.2734  0.9339
   81bbb    H14 2341   5.939   6.669   9.871  0.6880 -0.3701 -0.7363
   81bbb     C8 2342   6.051   6.742   9.330 -0.1756 -0.7890 -0.0070
   81bbb    H15 2343   6.098   6.841   9.334 -1.5138 -0.1660  1.0922
   81bbb    H16 2344   5.945   6.766   9.343  0.4224  1.5601  1.0955
   81bbb     C9 2345   6.005   6.038   9.615 -0.4081 -0.8060 -0.8456
   81bbb    H17 2346   6.011   6.003   9.511  3.1145  3.1146 -2.2355
   81bbb    H18 2347   5.900   6.039   9.646  0.0016 -3.1338  0.8983
   81bbb     O1 2348   5.888   6.490   9.959  0.5415 -0.1474  0.1390
   82bbb     N1 2349   7.059   6.124  10.107  0.3407 -0.8300  0.1172
   82bbb     C1 2350   7.074   6.057  10.240  0.1274 -0.4741 -0.8547
   82bbb     H1 2351   6.980   6.060  10.297  0.8941 -2.1020  0.5903
   82bbb     H2 2352   7.161   6.099  10.292 -0.6448  3.2631 -2.2219
   82bbb     C2 2353   7.154   6.086  10.004 -0.6371 -0.2406 -0.2807
   82bbb     H3 2354   7.130   6.129   9.907 -2.2283  0.0614  0.2203
   82bbb     H4 2355   7.149   5.981   9.973 -0.1865  0.1532 -1.7317
   82bbb     C3 2356   7.058   6.270  10.127 -0.4248  0.6961  0.8633
   82bbb     H5 2357   7.041   6.311  10.027 -0.8355 -1.4897 -0.0173
   82bbb     H6 2358   7.153   6.312  10.163  0.5822  1.2081 -2.1070
   82bbb     C4 2359   6.950   6.330  10.216 -0.1289 -0.1912 -0.2375
   82bbb     H7 2360   6.963   6.439  10.218 -1.6557  0.0132 -0.1382
   82bbb     H8 2361   6.963   6.294  10.318  1.6407  1.7584  0.2768
   82bbb     C5 2362   7.100   5.906  10.241  0.6287  1.0681 -0.0090
   82bbb     H9 2363   7.134   5.865  10.337 -0.2803 -0.7516 -0.4158
   82bbb    H10 2364   7.194   5.890  10.186  0.4021  0.8444 -0.3300
   82bbb     C6 2365   7.304   6.132  10.032  0.9806 -0.0661 -0.1692
   82bbb    H11 2366   7.324   6.126  10.140  1.0260  0.9117 -0.1172
   82bbb    H12 2367   7.305   6.240  10.011 -0.2961  0.4501  1.9951
   82bbb     C7 2368   6.807   6.299  10.175 -0.9150 -0.1632 -0.2275
   82bbb    H13 2369   6.785   6.191  10.181  0.6677 -0.4549  1.1172
   82bbb    H14 2370   6.807   6.333  10.070  0.3310 -0.1756 -0.2552
   82bbb     C8 2371   7.401   6.055   9.938 -0.2742 -0.3353  0.2435
   82bbb    H15 2372   7.493   6.114   9.945 -0.9477  0.7164  0.4644
   82bbb    H16 2373   7.368   6.066   9.834 -0.4821  1.2865  0.4507
   82bbb     C9 2374   6.979   5.823  10.185 -0.2854 -0.7155 -0.3788
   82bbb    H17 2375   7.022   5.732  10.140  0.0830 -0.5877 -0.2937
   82bbb    H18 2376   6.932   5.885  10.108 -2.4909  0.6794  1.9527
   82bbb     O1 2377   6.716   6.359  10.262  0.3749 -0.4054 -0.5559
   83bbb     N1 2378   6.313   9.236   9.376  0.2232  0.6756 -0.5990
   83bbb     C1 2379   6.465   9.232   9.384  0.2032  0.1531  0.5427
   83bbb     H1 2380   6.517   9.268   9.296 -3.6377  0.2943 -1.9164
   83bbb     H2 2381   6.504   9.129   9.384  0.6131  0.3075 -0.0921
   83bbb     C2 2382   6.257   9.376   9.373  0.2690  0.4213 -0.2064
   83bbb     H3 2383   6.271   9.428   9.468 -2.7817 -0.9284  1.1369
   83bbb     H4 2384   6.149   9.363   9.360  0.0488  0.3837  1.4138
   83bbb     C3 2385   6.247   9.146   9.480 -0.2316 -0.5537  0.0144
   83bbb     H5 2386   6.140   9.156   9.460  0.4061  1.8617 -3.0679
   83bbb     H6 2387   6.271   9.175   9.583 -0.6854  1.5771 -0.4346
   83bbb     C4 2388   6.282   9.000   9.461 -0.6927 -0.3154 -0.0143
   83bbb     H7 2389   6.375   8.973   9.511  0.2351  0.7695 -1.0959
   83bbb     H8 2390   6.311   8.991   9.355  0.1553  2.4218 -0.0974
   83bbb     C5 2391   6.513   9.297   9.514  0.2575 -0.0459 -0.0638
   83bbb     H9 2392   6.455   9.261   9.600  3.1989 -0.4966  1.8779
   83bbb    H10 2393   6.501   9.406   9.519  0.6560  0.2435 -3.2855
   83bbb     C6 2394   6.311   9.463   9.256 -0.4009 -0.6559 -0.3894
   83bbb    H11 2395   6.327   9.404   9.166 -0.9283 -1.2781 -0.0810
   83bbb    H12 2396   6.408   9.504   9.289 -0.9111  0.9689 -0.8072
   83bbb     C7 2397   6.174   8.900   9.506  0.1746 -0.0086  0.7366
   83bbb    H13 2398   6.210   8.796   9.505 -0.5583 -0.3338 -2.5162
   83bbb    H14 2399   6.095   8.886   9.431 -0.9868 -1.9527  2.2276
   83bbb     C8 2400   6.213   9.585   9.229  0.6761 -0.0045  0.3247
   83bbb    H15 2401   6.177   9.630   9.322  0.0310  1.0185 -0.4086
   83bbb    H16 2402   6.125   9.546   9.176 -0.8744 -1.2811  3.5538
   83bbb     C9 2403   6.657   9.262   9.529 -0.1302 -0.4114  0.0019
   83bbb    H17 2404   6.698   9.295   9.432 -3.2034 -0.0557 -1.3168
   83bbb    H18 2405   6.669   9.153   9.533  1.6370 -0.2850 -0.7478
   83bbb     O1 2406   6.128   8.946   9.633  0.2057  0.6782 -0.4172
   84bbb     N1 2407   6.060   8.638  10.880 -0.2381 -0.4577 -0.1133
   84bbb     C1 2408   6.154   8.707  10.976 -0.0283 -0.3549  0.8684
   84bbb     H1 2409   6.109   8.807  10.989 -0.5531 -0.5282  0.4565
   84bbb     H2 2410   6.255   8.715  10.934  0.0553  0.0840  1.1519
   84bbb     C2 2411   5.922   8.623  10.918  0.5694  0.4148 -0.3924
   84bbb     H3 2412   5.919   8.579  11.019 -2.7432  1.4500  0.0858
   84bbb     H4 2413   5.866   8.556  10.852  0.0896  0.5744 -0.1603
   84bbb     C3 2414   6.073   8.697  10.742  0.8481 -0.4985 -0.3571
   84bbb     H5 2415   6.065   8.806  10.752 -1.1475 -0.4721 -1.6157
   84bbb     H6 2416   5.992   8.668  10.674  1.2569  0.8951 -1.4842
   84bbb     C4 2417   6.197   8.659  10.665  1.3018 -0.0762  0.0200
   84bbb     H7 2418   6.199   8.550  10.675  0.2562 -0.2476 -1.4128
   84bbb     H8 2419   6.282   8.714  10.707  1.9247  0.3607 -1.7341
   84bbb     C5 2420   6.184   8.640  11.109 -0.1730  0.6129  0.1220
   84bbb     H9 2421   6.237   8.544  11.103 -0.6897  0.3688 -0.5738
   84bbb    H10 2422   6.093   8.608  11.161  0.9954 -1.9306  0.7949
   84bbb     C6 2423   5.830   8.751  10.919  0.5910 -0.9624 -0.3654
   84bbb    H11 2424   5.809   8.786  10.817  0.6060 -1.6822 -0.6245
   84bbb    H12 2425   5.875   8.829  10.982 -2.7935  0.1204  0.9692
   84bbb     C7 2426   6.187   8.702  10.516  0.9019 -0.1496  0.4278
   84bbb    H13 2427   6.287   8.707  10.472  0.3029  0.9928 -0.8641
   84bbb    H14 2428   6.132   8.797  10.508  0.7475 -0.3034 -0.5019
   84bbb     C8 2429   5.699   8.715  10.990 -0.6845 -0.4024  0.0850
   84bbb    H15 2430   5.721   8.673  11.089 -2.0669  1.2178  1.1328
   84bbb    H16 2431   5.648   8.636  10.934 -1.5673  2.3698 -3.3212
   84bbb     C9 2432   6.275   8.735  11.195 -0.3273 -0.0868  0.2084
   84bbb    H17 2433   6.220   8.828  11.216  0.8811  0.3347  1.6340
   84bbb    H18 2434   6.351   8.775  11.127 -0.3235 -0.9398 -0.3083
   84bbb     O1 2435   6.106   8.605  10.452  0.4948  0.6224  0.0084
   85bbb     N1 2436   6.248   8.529   8.296 -0.7171  0.3104 -0.0793
   85bbb     C1 2437   6.188   8.561   8.164  0.2661  0.8503 -0.0020
   85bbb     H1 2438   6.100   8.625   8.177  0.9212  1.6479  0.5603
   85bbb     H2 2439   6.156   8.470   8.111  1.0591 -0.6081  1.9253
   85bbb     C2 2440   6.378   8.471   8.299 -0.1610  0.5716  0.5074
   85bbb     H3 2441   6.414   8.468   8.403  0.2396  3.1118  0.5090
   85bbb     H4 2442   6.449   8.536   8.246  0.5808 -2.3977 -2.4302
   85bbb     C3 2443   6.145   8.483   8.394  0.0938  0.7017  0.0455
   85bbb     H5 2444   6.191   8.494   8.493 -1.6637 -0.5850  1.0603
   85bbb     H6 2445   6.114   8.380   8.373 -0.4350  0.7670  0.4905
   85bbb     C4 2446   6.017   8.570   8.398 -0.4066 -0.7418  0.2497
   85bbb     H7 2447   5.965   8.557   8.303  1.0539 -0.3719 -0.6423
   85bbb     H8 2448   6.046   8.676   8.396  0.8548 -0.9801  2.4683
   85bbb     C5 2449   6.285   8.636   8.067  0.2233 -0.3477 -0.0881
   85bbb     H9 2450   6.364   8.565   8.043 -0.2365 -0.3710 -1.6690
   85bbb    H10 2451   6.322   8.712   8.137 -1.5661  2.1075 -1.6619
   85bbb     C6 2452   6.389   8.327   8.229 -0.1988  0.6023  0.4485
   85bbb    H11 2453   6.484   8.324   8.175 -0.4740  2.7026 -0.2451
   85bbb    H12 2454   6.324   8.312   8.142 -1.0703 -0.6363  1.2749
   85bbb     C7 2455   5.921   8.537   8.508 -0.2963  0.0902  1.1136
   85bbb    H13 2456   5.829   8.597   8.504 -1.5881 -1.8729 -0.1001
   85bbb    H14 2457   5.967   8.559   8.606  3.4520 -1.7906 -0.0208
   85bbb     C8 2458   6.376   8.215   8.332  0.5391  0.1573  0.2429
   85bbb    H15 2459   6.274   8.230   8.371 -0.1187 -1.3715 -0.7595
   85bbb    H16 2460   6.437   8.227   8.422 -0.1653  0.6790  0.6612
   85bbb     C9 2461   6.230   8.677   7.931 -0.4238 -0.1370 -0.2515
   85bbb    H17 2462   6.190   8.598   7.866  0.2920 -1.6095  1.0095
   85bbb    H18 2463   6.306   8.729   7.871 -1.2140  0.2460 -0.9252
   85bbb     O1 2464   5.898   8.394   8.511  0.3257 -0.4077 -0.1118
   86bbb     N1 2465   5.311   8.183   9.537 -0.6858  0.0775  0.6913
   86bbb     C1 2466   5.175   8.177   9.490 -0.1165  0.1668 -0.0201
   86bbb     H1 2467   5.145   8.072   9.479  0.6393 -0.2452  1.6106
   86bbb     H2 2468   5.160   8.220   9.390 -1.6101 -1.1968 -0.4348
   86bbb     C2 2469   5.350   8.158   9.678 -0.1154 -0.3322  0.0593
   86bbb     H3 2470   5.288   8.227   9.736 -1.0126 -1.4649  0.4725
   86bbb     H4 2471   5.455   8.187   9.690 -0.8221  1.6246  2.0874
   86bbb     C3 2472   5.424   8.148   9.438 -0.4158  0.5878 -0.1180
   86bbb     H5 2473   5.417   8.043   9.408 -2.3109 -0.2816  2.9820
   86bbb     H6 2474   5.523   8.155   9.484  0.1459 -0.5147 -1.1075
   86bbb     C4 2475   5.419   8.239   9.307 -0.0159  0.5058  0.0139
   86bbb     H7 2476   5.319   8.226   9.262 -0.2944  0.1303  0.7265
   86bbb     H8 2477   5.485   8.189   9.235  0.4962  1.6617 -0.3445
   86bbb     C5 2478   5.072   8.251   9.582 -0.0565  0.2577  0.1361
   86bbb     H9 2479   5.075   8.199   9.679  0.4249 -1.7860 -0.9101
   86bbb    H10 2480   4.970   8.227   9.549 -0.3009  1.0764  0.2693
   86bbb     C6 2481   5.346   8.007   9.718 -0.3321  0.4236 -0.4557
   86bbb    H11 2482   5.433   7.965   9.665  1.0336  2.6748 -0.1167
   86bbb    H12 2483   5.253   7.966   9.677 -0.1311  0.0523 -0.5454
   86bbb     C7 2484   5.455   8.381   9.330  0.2587 -0.2118 -0.3744
   86bbb    H13 2485   5.562   8.385   9.353  0.1196  0.6102  0.1604
   86bbb    H14 2486   5.406   8.429   9.415  2.4034 -0.5625  1.1560
   86bbb     C8 2487   5.382   7.981   9.873 -0.5584 -0.1654  0.3977
   86bbb    H15 2488   5.360   8.084   9.905 -0.7143 -0.0036 -0.2228
   86bbb    H16 2489   5.489   7.999   9.857 -0.5116 -1.0141 -0.2822
   86bbb     C9 2490   5.100   8.400   9.607  1.1150  0.4827  0.0378
   86bbb    H17 2491   5.184   8.405   9.677 -0.2559  1.0515  1.6954
   86bbb    H18 2492   5.010   8.444   9.651  0.7543 -0.3459  0.1340
   86bbb     O1 2493   5.432   8.456   9.215 -0.1295  0.5601  0.4073
   87bbb     N1 2494  10.071   8.481   9.318 -0.1171 -0.2915 -0.2540
   87bbb     C1 2495  10.008   8.612   9.360 -0.3766 -0.2093  0.2559
   87bbb     H1 2496  10.054   8.652   9.452 -3.2549  1.5865  1.0724
   87bbb     H2 2497   9.902   8.602   9.387 -0.5544  0.0152 -0.3602
   87bbb     C2 2498  10.100   8.384   9.427  0.3298  0.3841  0.0357
   87bbb     H3 2499  10.103   8.280   9.392  2.1282  0.7120 -0.9301
   87bbb     H4 2500  10.028   8.393   9.509  0.2823 -1.8234  0.2985
   87bbb     C3 2501  10.018   8.419   9.196  0.2447 -0.1705 -0.4739
   87bbb     H5 2502  10.073   8.339   9.144 -1.4347 -0.2119 -2.3323
   87bbb     H6 2503  10.022   8.499   9.122  0.0777  0.4647  0.1959
   87bbb     C4 2504   9.878   8.360   9.199 -0.2621 -0.4393  0.4574
   87bbb     H7 2505   9.809   8.435   9.240  0.4880 -0.5156  1.9558
   87bbb     H8 2506   9.882   8.261   9.247 -0.6293 -0.5996  0.1575
   87bbb     C5 2507  10.009   8.726   9.248  0.0255 -0.0551 -0.1385
   87bbb     H9 2508  10.105   8.722   9.196  1.5637 -1.5029  2.5566
   87bbb    H10 2509  10.009   8.817   9.311 -1.0522  0.4973 -0.9001
   87bbb     C6 2510  10.239   8.415   9.481 -0.4567 -0.2664 -0.3020
   87bbb    H11 2511  10.233   8.511   9.533  1.3356 -0.3783  0.1767
   87bbb    H12 2512  10.314   8.424   9.402  3.8681 -2.4738  3.0831
   87bbb     C7 2513   9.837   8.323   9.054 -0.3512  0.1373 -0.1198
   87bbb    H13 2514   9.868   8.404   8.986  0.5190  0.6035  0.8140
   87bbb    H14 2515   9.730   8.299   9.044  0.0497 -3.1047  1.9215
   87bbb     C8 2516  10.298   8.300   9.574 -0.6588  0.6998  0.1413
   87bbb    H15 2517  10.303   8.213   9.507 -0.2437  2.1588 -1.8354
   87bbb    H16 2518  10.238   8.292   9.665 -0.8128  1.5214  0.1180
   87bbb     C9 2519   9.890   8.739   9.156  0.1299  0.0377  0.4728
   87bbb    H17 2520   9.875   8.644   9.103  2.0503 -0.4668  0.7364
   87bbb    H18 2521   9.922   8.819   9.088 -1.4799  0.5435  0.2724
   87bbb     O1 2522   9.908   8.210   9.021 -0.6807  0.3798 -0.2875
   88bbb     N1 2523   9.395   7.119   9.236 -0.2999 -0.0878 -0.6418
   88bbb     C1 2524   9.329   7.076   9.115 -0.5017 -0.2533  0.0463
   88bbb     H1 2525   9.282   6.977   9.122 -1.4384 -0.0490 -2.4616
   88bbb     H2 2526   9.407   7.068   9.038 -1.2115 -0.4526 -0.6597
   88bbb     C2 2527   9.428   7.007   9.329 -0.2500 -0.1448 -0.5914
   88bbb     H3 2528   9.502   6.940   9.283  0.9649 -0.3893  1.5776
   88bbb     H4 2529   9.337   6.947   9.340 -0.2500  0.1053  1.0150
   88bbb     C3 2530   9.496   7.231   9.226 -0.4736  0.3974  1.0393
   88bbb     H5 2531   9.513   7.265   9.328  1.6310  1.1450  0.4800
   88bbb     H6 2532   9.445   7.309   9.168 -0.7455 -1.0973 -0.8642
   88bbb     C4 2533   9.624   7.191   9.148 -0.5976 -0.1952 -0.2441
   88bbb     H7 2534   9.599   7.152   9.049 -2.9386  1.3605 -0.3380
   88bbb     H8 2535   9.667   7.105   9.202 -1.1911 -0.0637  0.4660
   88bbb     C5 2536   9.230   7.186   9.069  0.5479  0.7439  0.1143
   88bbb     H9 2537   9.278   7.276   9.029  0.7082 -0.1783 -1.8991
   88bbb    H10 2538   9.167   7.218   9.153 -0.3244 -0.8999  0.1251
   88bbb     C6 2539   9.473   7.044   9.476  0.2294  0.1601 -0.3787
   88bbb    H11 2540   9.394   7.109   9.514  0.8548  0.4215  0.5268
   88bbb    H12 2541   9.563   7.108   9.473  0.2455  0.2975  1.8108
   88bbb     C7 2542   9.729   7.300   9.143  0.6121  0.2208 -0.2849
   88bbb    H13 2543   9.808   7.259   9.077  0.2032 -1.4215  0.1856
   88bbb    H14 2544   9.776   7.317   9.241 -1.4723  1.0536  0.6081
   88bbb     C8 2545   9.490   6.917   9.561 -0.9463 -0.3730 -1.1079
   88bbb    H15 2546   9.398   6.859   9.574 -1.5553  0.9726  1.1566
   88bbb    H16 2547   9.501   6.957   9.662 -3.9871 -0.4860 -0.6596
   88bbb     C9 2548   9.141   7.134   8.955  0.1359  0.3070 -0.6538
   88bbb    H17 2549   9.062   7.069   8.996  1.7417 -0.9197  0.6610
   88bbb    H18 2550   9.202   7.077   8.884 -1.1573 -0.0651 -1.4951
   88bbb     O1 2551   9.683   7.424   9.101  0.0227  0.1136  0.0583
   89bbb     N1 2552   9.047   8.045  10.742  0.1186 -0.6593 -0.2387
   89bbb     C1 2553   9.141   8.047  10.855  0.1823  0.9645 -0.6389
   89bbb     H1 2554   9.098   8.083  10.949  0.3035  0.3247 -0.3291
   89bbb     H2 2555   9.210   8.128  10.828  2.0309 -1.6409 -4.9190
   89bbb     C2 2556   8.927   7.965  10.766  0.4676 -0.2596 -0.0741
   89bbb     H3 2557   8.951   7.870  10.817 -1.9107 -0.8776  0.0040
   89bbb     H4 2558   8.879   7.923  10.677 -1.3189  1.5272 -0.0199
   89bbb     C3 2559   9.112   7.997  10.619 -0.0879  0.1151 -0.3683
   89bbb     H5 2560   9.039   7.990  10.537  1.1541  0.3585 -1.5271
   89bbb     H6 2561   9.167   7.903  10.637 -0.8288 -0.3907 -0.6898
   89bbb     C4 2562   9.224   8.085  10.563 -0.1704  0.4917  0.4352
   89bbb     H7 2563   9.298   8.111  10.639 -1.0361  0.8719  1.1744
   89bbb     H8 2564   9.186   8.187  10.549 -2.3861 -0.2097  0.9014
   89bbb     C5 2565   9.216   7.915  10.886  0.3220  0.1888  0.5411
   89bbb     H9 2566   9.291   7.896  10.808  0.8373  0.1295  1.0481
   89bbb    H10 2567   9.144   7.832  10.880 -1.0597  1.4022 -0.3968
   89bbb     C6 2568   8.830   8.059  10.856  0.2862  0.0446 -0.0506
   89bbb    H11 2569   8.776   8.130  10.792  0.5761  1.9437  1.6918
   89bbb    H12 2570   8.885   8.123  10.926  0.5218 -1.3929  1.1342
   89bbb     C7 2571   9.293   8.041  10.427 -0.2497 -0.2289 -0.9076
   89bbb    H13 2572   9.339   7.942  10.435 -0.1941 -0.1331  0.1278
   89bbb    H14 2573   9.365   8.120  10.401 -1.3292  0.4751 -1.8625
   89bbb     C8 2574   8.730   7.977  10.946  0.2671 -0.1428  0.8981
   89bbb    H15 2575   8.778   7.905  11.014  0.3912  1.6842  2.8319
   89bbb    H16 2576   8.678   7.906  10.880  1.5785 -1.9504  1.7155
   89bbb     C9 2577   9.294   7.914  11.019  0.0796  0.2962 -0.3892
   89bbb    H17 2578   9.390   7.966  11.007  0.1019  1.1867  2.8350
   89bbb    H18 2579   9.326   7.810  11.036 -1.8841 -0.1828  0.7140
   89bbb     O1 2580   9.191   8.041  10.331  0.2815  0.5756  0.3409
   90bbb     N1 2581   9.443   7.312  10.959  0.0143 -0.1184  0.1798
   90bbb     C1 2582   9.517   7.326  11.087 -0.3372  0.2439 -0.5602
   90bbb     H1 2583   9.533   7.232  11.142  1.8280  0.8725 -0.0484
   90bbb     H2 2584   9.454   7.387  11.154 -0.0751  0.1076 -0.1859
   90bbb     C2 2585   9.500   7.208  10.868  0.0637  0.2894  0.3869
   90bbb     H3 2586   9.588   7.250  10.819 -1.1954  2.4620 -0.1353
   90bbb     H4 2587   9.429   7.191  10.787  0.5961  0.0747 -0.0424
   90bbb     C3 2588   9.405   7.442  10.901  0.4211 -0.2193 -0.6604
   90bbb     H5 2589   9.476   7.475  10.824  1.8822 -1.4032  0.1105
   90bbb     H6 2590   9.402   7.521  10.978 -0.3453 -0.8404 -0.0364
   90bbb     C4 2591   9.273   7.425  10.824  0.1196 -0.3766  0.2477
   90bbb     H7 2592   9.196   7.386  10.892 -0.7704 -1.6332 -1.4107
   90bbb     H8 2593   9.281   7.347  10.747 -1.3793  0.0167 -0.3436
   90bbb     C5 2594   9.658   7.397  11.075 -0.2298  0.2357 -0.0866
   90bbb     H9 2595   9.651   7.485  11.010  0.3867  2.2023  2.3562
   90bbb    H10 2596   9.733   7.322  11.047 -0.0218  1.2189 -2.3208
   90bbb     C6 2597   9.534   7.071  10.937  0.1992  0.1139 -1.7187
   90bbb    H11 2598   9.457   7.060  11.015 -0.1541  1.5134 -1.8382
   90bbb    H12 2599   9.630   7.069  10.989 -0.4935  0.0837 -0.3951
   90bbb     C7 2600   9.208   7.557  10.767 -0.5501 -0.3454  0.3382
   90bbb    H13 2601   9.194   7.624  10.852 -3.3551  0.8953 -0.9845
   90bbb    H14 2602   9.114   7.547  10.712  0.2372 -2.0730 -0.8021
   90bbb     C8 2603   9.524   6.955  10.841 -0.5887  0.0936 -0.7270
   90bbb    H15 2604   9.425   6.968  10.796 -1.8551 -1.3644  1.4508
   90bbb    H16 2605   9.533   6.862  10.899 -2.4236 -0.4944 -1.3133
   90bbb     C9 2606   9.709   7.458  11.209  0.2035 -0.1667 -0.2755
   90bbb    H17 2607   9.722   7.567  11.206  0.9952 -0.2348  0.4421
   90bbb    H18 2608   9.803   7.409  11.237 -1.0359 -1.7212  1.4763
   90bbb     O1 2609   9.298   7.627  10.666 -0.1221 -0.0612 -0.1953
   91bbb     N1 2610   7.214   9.519   8.727 -0.3088 -0.1038 -0.4074
   91bbb     C1 2611   7.254   9.650   8.679  0.1198  0.0475 -0.1168
   91bbb     H1 2612   7.338   9.640   8.609 -1.5048 -0.9937 -2.0215
   91bbb     H2 2613   7.310   9.696   8.761  0.0331 -0.5137  0.2587
   91bbb     C2 2614   7.160   9.522   8.864 -0.3465  0.3481 -0.3062
   91bbb     H3 2615   7.078   9.595   8.862 -0.0538  0.6794 -1.8211
   91bbb     H4 2616   7.230   9.564   8.937  0.1840 -0.0007 -0.6033
   91bbb     C3 2617   7.322   9.415   8.698 -0.3684  0.1521  0.0560
   91bbb     H5 2618   7.368   9.425   8.599  0.7065 -1.7264  0.3129
   91bbb     H6 2619   7.270   9.319   8.689  1.2641 -0.7864  0.1896
   91bbb     C4 2620   7.444   9.408   8.797 -0.0126 -0.2010 -0.7336
   91bbb     H7 2621   7.406   9.404   8.900  0.8277 -1.7003 -0.4629
   91bbb     H8 2622   7.501   9.501   8.790  1.8119 -1.0159  1.9312
   91bbb     C5 2623   7.142   9.749   8.633  0.0236 -0.3440  0.2374
   91bbb     H9 2624   7.179   9.851   8.614 -1.5842 -0.0678 -1.8482
   91bbb    H10 2625   7.065   9.752   8.712 -1.2401 -2.5349 -0.8228
   91bbb     C6 2626   7.090   9.393   8.908 -0.6507  0.2925 -0.8845
   91bbb    H11 2627   7.168   9.317   8.908 -0.1228  0.7776  0.8675
   91bbb    H12 2628   7.017   9.363   8.832 -0.9610 -1.4494  0.0332
   91bbb     C7 2629   7.530   9.278   8.794 -0.4134 -1.0186 -0.5014
   91bbb    H13 2630   7.609   9.293   8.719 -0.3095  3.2271  0.2263
   91bbb    H14 2631   7.460   9.201   8.757 -2.1628  1.0360 -1.6991
   91bbb     C8 2632   7.038   9.385   9.056  0.3136 -0.0900  0.4983
   91bbb    H15 2633   7.121   9.399   9.127  1.6043 -0.7170 -0.8307
   91bbb    H16 2634   7.007   9.280   9.064 -0.3760  0.1781  1.5751
   91bbb     C9 2635   7.079   9.711   8.498  0.1157  0.0027  0.0902
   91bbb    H17 2636   7.004   9.633   8.512 -0.5390  0.6659  0.4051
   91bbb    H18 2637   7.157   9.655   8.446 -0.2549 -1.3255  0.9061
   91bbb     O1 2638   7.599   9.250   8.917 -0.3013 -0.1317 -0.2971
   92bbb     N1 2639   8.539   9.431   9.130  0.1404  0.6634  0.6294
   92bbb     C1 2640   8.560   9.342   9.015 -0.5486  0.1190  0.4343
   92bbb     H1 2641   8.538   9.397   8.923  0.3066  1.3101  0.9219
   92bbb     H2 2642   8.498   9.251   9.019 -0.2568 -0.1216 -0.2931
   92bbb     C2 2643   8.568   9.349   9.252 -0.5719 -0.6838  0.2569
   92bbb     H3 2644   8.670   9.310   9.246  0.5470  2.1891 -2.0006
   92bbb     H4 2645   8.500   9.263   9.251 -1.9918  0.4147 -0.4452
   92bbb     C3 2646   8.396   9.487   9.139 -0.0844 -0.1976  0.7937
   92bbb     H5 2647   8.391   9.540   9.235 -1.8888  1.4123 -0.1194
   92bbb     H6 2648   8.327   9.401   9.139 -0.5849  0.1748  1.8985
   92bbb     C4 2649   8.348   9.587   9.029 -0.5021  0.4278  0.6329
   92bbb     H7 2650   8.370   9.552   8.928 -1.3010  0.9043  0.2863
   92bbb     H8 2651   8.394   9.685   9.046  0.4699  0.2226 -0.6687
   92bbb     C5 2652   8.710   9.297   8.989 -0.5057  0.0689  0.0513
   92bbb     H9 2653   8.751   9.216   9.050 -0.9858 -0.1662  0.0654
   92bbb    H10 2654   8.780   9.379   9.007  1.5908 -1.5661 -0.2584
   92bbb     C6 2655   8.566   9.426   9.386 -0.3810  0.1225 -0.1528
   92bbb    H11 2656   8.466   9.462   9.412  0.4965  0.7841  2.7012
   92bbb    H12 2657   8.628   9.515   9.367  0.8473 -1.1161 -2.3322
   92bbb     C7 2658   8.194   9.623   9.016  0.1645  0.5739  0.2906
   92bbb    H13 2659   8.179   9.720   8.965  2.9745  0.7200 -0.3879
   92bbb    H14 2660   8.148   9.628   9.115  1.3975 -1.7346  1.0296
   92bbb     C8 2661   8.624   9.351   9.509  0.2080 -0.4011 -0.0081
   92bbb    H15 2662   8.715   9.303   9.472 -0.0661  1.6133 -3.8385
   92bbb    H16 2663   8.555   9.268   9.526 -0.4779  0.2766  0.6119
   92bbb     C9 2664   8.726   9.258   8.836  0.2808  0.0279  0.3390
   92bbb    H17 2665   8.650   9.182   8.816  0.1627  0.1859  0.1764
   92bbb    H18 2666   8.827   9.218   8.820  0.2529  0.2456 -0.4241
   92bbb     O1 2667   8.132   9.518   8.941  0.3642 -0.2706 -0.4361
   93bbb     N1 2668   7.437   8.945  11.496  0.4573  0.0656 -0.0652
   93bbb     C1 2669   7.423   9.088  11.550  0.5492  0.5635  0.2652
   93bbb     H1 2670   7.522   9.132  11.560  0.6554  0.8045 -1.5094
   93bbb     H2 2671   7.384   9.079  11.652 -1.3079  0.0244 -0.4425
   93bbb     C2 2672   7.496   8.854  11.596 -0.0901 -0.3104  0.6330
   93bbb     H3 2673   7.603   8.876  11.610 -0.2139  0.1167  0.9032
   93bbb     H4 2674   7.483   8.754  11.551 -1.5040  0.0699  0.1710
   93bbb     C3 2675   7.500   8.932  11.359  0.4666  0.0964 -0.3459
   93bbb     H5 2676   7.423   8.964  11.287 -1.0435  1.6335  1.8141
   93bbb     H6 2677   7.529   8.828  11.338  1.3883  0.4444 -0.8392
   93bbb     C4 2678   7.627   9.016  11.346  0.1022 -0.1638  0.4471
   93bbb     H7 2679   7.694   8.985  11.427 -0.3146 -1.6566  0.2557
   93bbb     H8 2680   7.607   9.123  11.359 -0.4603 -0.0671 -0.9955
   93bbb     C5 2681   7.334   9.175  11.463  0.0900 -0.2782 -0.2133
   93bbb     H9 2682   7.362   9.168  11.358 -0.4478 -2.3100 -0.2664
   93bbb    H10 2683   7.353   9.276  11.500 -0.6055 -0.6776  1.3261
   93bbb     C6 2684   7.413   8.850  11.727 -0.4930  0.1831 -0.0053
   93bbb    H11 2685   7.446   8.932  11.792  3.4793 -0.0316 -1.4654
   93bbb    H12 2686   7.462   8.763  11.774 -0.9818  0.0877  0.3334
   93bbb     C7 2687   7.688   8.991  11.208 -0.0676 -0.1335  0.4818
   93bbb    H13 2688   7.670   8.887  11.178  2.0399 -0.6627  0.9257
   93bbb    H14 2689   7.793   9.022  11.215 -0.9324  2.5995  2.7779
   93bbb     C8 2690   7.261   8.823  11.718  0.0263 -0.3609 -0.0462
   93bbb    H15 2691   7.241   8.726  11.671 -2.3784 -0.0291  0.1808
   93bbb    H16 2692   7.205   8.898  11.660 -0.8570 -1.0426 -0.1020
   93bbb     C9 2693   7.185   9.127  11.475 -0.4823 -0.2411  0.0138
   93bbb    H17 2694   7.138   9.182  11.558  0.1885  1.2224 -0.5385
   93bbb    H18 2695   7.177   9.018  11.484  0.1068 -0.1579  2.0238
   93bbb     O1 2696   7.619   9.081  11.122 -0.1730  0.0831 -0.2573
   94bbb     N1 2697   8.076  10.067  10.620  0.0206  0.0321  0.1771
   94bbb     C1 2698   8.124  10.205  10.661  0.4100  0.2352 -0.4006
   94bbb     H1 2699   8.217  10.193  10.719 -0.0861  2.0149  0.8421
   94bbb     H2 2700   8.055  10.260  10.725 -0.1224  0.3165 -1.0352
   94bbb     C2 2701   8.171  10.002  10.523  0.1524 -0.1183  0.4388
   94bbb     H3 2702   8.196  10.069  10.439 -0.3867 -0.3586  0.0757
   94bbb     H4 2703   8.119   9.926  10.463  0.9213 -1.8128  1.8294
   94bbb     C3 2704   8.028   9.983  10.734 -0.4326  0.2321  0.7582
   94bbb     H5 2705   7.952  10.041  10.787 -1.2031 -0.2369  0.1887
   94bbb     H6 2706   8.104   9.954  10.807  1.1912  0.9120 -0.5891
   94bbb     C4 2707   7.962   9.852  10.695  0.4146  0.2176 -0.2192
   94bbb     H7 2708   8.014   9.807  10.609  1.2688  1.3350 -0.3160
   94bbb     H8 2709   7.856   9.866  10.667  0.4149  0.9624  0.1181
   94bbb     C5 2710   8.149  10.310  10.551  1.1268  0.3338 -0.3840
   94bbb     H9 2711   8.057  10.322  10.492 -0.0240 -1.7873  0.8385
   94bbb    H10 2712   8.239  10.281  10.496  0.8310 -1.7835  0.1686
   94bbb     C6 2713   8.298   9.939  10.581  0.2272  0.3638  0.2185
   94bbb    H11 2714   8.259   9.859  10.645 -1.8799  1.2179  0.1004
   94bbb    H12 2715   8.347  10.018  10.640 -1.1450  0.8212  0.7796
   94bbb     C7 2716   7.954   9.749  10.812 -1.1677 -0.2504 -0.0200
   94bbb    H13 2717   7.867   9.764  10.877 -1.6611 -1.6958 -0.3017
   94bbb    H14 2718   8.043   9.751  10.876 -2.0616 -0.8518  1.2802
   94bbb     C8 2719   8.397   9.892  10.470  0.7639  0.3505  0.1849
   94bbb    H15 2720   8.413   9.970  10.395  0.2914  1.7398  1.4777
   94bbb    H16 2721   8.356   9.801  10.426  0.1478  0.1855  1.0816
   94bbb     C9 2722   8.175  10.453  10.617 -1.1853  0.4405  0.2374
   94bbb    H17 2723   8.168  10.528  10.537  1.6931 -2.2579 -2.8094
   94bbb    H18 2724   8.281  10.463  10.646 -0.4598 -0.1257 -2.0204
   94bbb     O1 2725   7.939   9.612  10.766 -0.2162  0.5268  0.1513
   95bbb     N1 2726   7.084   3.657   8.858 -0.3212  0.5327  0.2452
   95bbb     C1 2727   7.151   3.524   8.835  0.2670 -0.3107 -0.4418
   95bbb     H1 2728   7.097   3.464   8.761 -1.1022 -2.0177  1.8173
   95bbb     H2 2729   7.152   3.471   8.931  1.5436  0.1393 -0.1835
   95bbb     C2 2730   7.141   3.740   8.971 -0.2277  0.3422  0.3605
   95bbb     H3 2731   7.064   3.803   9.017 -0.1431  1.7374 -1.2892
   95bbb     H4 2732   7.217   3.813   8.938 -0.9394  0.7293 -0.4749
   95bbb     C3 2733   7.062   3.743   8.736 -0.1246 -0.1197 -0.2730
   95bbb     H5 2734   7.159   3.773   8.692  0.7113 -1.7443  0.3758
   95bbb     H6 2735   6.999   3.830   8.758 -1.7315 -1.2032 -0.4759
   95bbb     C4 2736   6.979   3.671   8.626 -0.0317 -0.3405 -0.0091
   95bbb     H7 2737   6.878   3.646   8.663  0.0599  0.0490  0.5346
   95bbb     H8 2738   7.034   3.584   8.588  1.2587 -0.6978  2.4691
   95bbb     C5 2739   7.293   3.545   8.787 -0.5437  0.1449 -0.2275
   95bbb     H9 2740   7.337   3.642   8.811 -0.6732  0.1063  0.1657
   95bbb    H10 2741   7.286   3.533   8.678  2.1861  0.9291 -0.5517
   95bbb     C6 2742   7.199   3.668   9.097 -0.4214  0.4294  0.2417
   95bbb    H11 2743   7.254   3.743   9.157  3.1461  1.9436 -4.3475
   95bbb    H12 2744   7.268   3.586   9.077 -1.5337 -0.6037  0.5549
   95bbb     C7 2745   6.951   3.763   8.505  0.3247 -0.0155  0.3675
   95bbb    H13 2746   6.908   3.700   8.426  1.5185 -0.2372 -0.1289
   95bbb    H14 2747   7.048   3.796   8.466  0.9309 -2.3494 -0.2642
   95bbb     C8 2748   7.074   3.609   9.183 -0.3679 -0.7390  0.4828
   95bbb    H15 2749   7.008   3.558   9.112 -0.6712  0.6259 -0.2578
   95bbb    H16 2750   7.016   3.687   9.233 -2.2978 -1.7421 -0.0789
   95bbb     C9 2751   7.385   3.428   8.849  0.4882 -0.4837  0.1146
   95bbb    H17 2752   7.339   3.333   8.820 -1.4557  0.1691  0.8709
   95bbb    H18 2753   7.395   3.447   8.956 -0.7043  0.0230  0.1605
   95bbb     O1 2754   6.867   3.878   8.540 -0.4939 -0.1890 -0.2992
   96bbb     N1 2755   6.168   4.597   7.746 -0.1583 -0.3967  0.1886
   96bbb     C1 2756   6.152   4.504   7.622 -0.2231 -0.2823  0.4255
   96bbb     H1 2757   6.049   4.468   7.627 -0.8812  1.5314  1.0508
   96bbb     H2 2758   6.208   4.410   7.629 -0.8657 -0.7425 -0.4821
   96bbb     C2 2759   6.077   4.720   7.753  0.2879 -0.4650 -0.1097
   96bbb     H3 2760   6.096   4.784   7.666 -3.1580 -2.1888 -2.3624
   96bbb     H4 2761   6.101   4.781   7.840 -1.4358  0.3030 -0.1473
   96bbb     C3 2762   6.309   4.648   7.765 -0.1446  0.3640  0.3731
   96bbb     H5 2763   6.300   4.710   7.856  0.9590 -0.6554  1.2081
   96bbb     H6 2764   6.351   4.709   7.684  2.8263 -0.5538  1.0970
   96bbb     C4 2765   6.405   4.536   7.805  0.1665 -0.2816  0.1974
   96bbb     H7 2766   6.431   4.467   7.724 -1.4949  2.7982 -3.2370
   96bbb     H8 2767   6.345   4.482   7.879 -0.9265 -2.2804 -2.0008
   96bbb     C5 2768   6.175   4.583   7.493 -0.0830  0.1433  0.3405
   96bbb     H9 2769   6.281   4.613   7.490  0.4830 -1.7678 -0.5657
   96bbb    H10 2770   6.108   4.669   7.491  0.0484  0.2300 -0.6062
   96bbb     C6 2771   5.928   4.690   7.745  0.5475  0.6453  0.0085
   96bbb    H11 2772   5.904   4.639   7.839 -0.1219 -3.4968 -2.1396
   96bbb    H12 2773   5.906   4.607   7.677 -0.7523 -1.6744  3.0371
   96bbb     C7 2774   6.531   4.595   7.869 -0.4805  0.7559 -0.5066
   96bbb    H13 2775   6.499   4.684   7.925 -1.3776  0.7771 -1.0487
   96bbb    H14 2776   6.610   4.618   7.797  2.4027 -0.6486  1.9829
   96bbb     C8 2777   5.835   4.807   7.722 -0.4928 -0.4397  0.2250
   96bbb    H15 2778   5.745   4.768   7.674 -0.6599 -1.8899  1.6415
   96bbb    H16 2779   5.869   4.876   7.644 -2.1328  1.4406  1.1070
   96bbb     C9 2780   6.146   4.486   7.372  0.4271  0.2208  0.3914
   96bbb    H17 2781   6.039   4.461   7.379  0.1506  0.9035 -0.9785
   96bbb    H18 2782   6.209   4.397   7.374 -0.7619 -0.6829  3.0890
   96bbb     O1 2783   6.588   4.495   7.957 -0.4917 -0.7294 -0.2188
   97bbb     N1 2784   6.988   5.331  10.065 -0.1226  0.0583 -1.1981
   97bbb     C1 2785   7.035   5.187  10.079 -0.9082 -0.3336 -0.4104
   97bbb     H1 2786   7.143   5.187  10.063 -0.6894 -1.7060  0.8542
   97bbb     H2 2787   6.995   5.135   9.991 -0.2255  1.2866 -1.7355
   97bbb     C2 2788   7.046   5.419  10.168  0.2004 -0.0043  0.1224
   97bbb     H3 2789   7.041   5.380  10.270  1.1448  1.9539  0.9708
   97bbb     H4 2790   6.977   5.505  10.169 -1.6128 -1.2675 -2.9557
   97bbb     C3 2791   7.001   5.378   9.926  0.3690  0.2665 -0.4570
   97bbb     H5 2792   6.963   5.303   9.854  2.1886  0.1081 -1.2920
   97bbb     H6 2793   7.108   5.391   9.906  0.6242 -0.5751  0.2673
   97bbb     C4 2794   6.922   5.508   9.898  0.0392 -0.1520 -0.2061
   97bbb     H7 2795   6.965   5.597   9.946  0.6181 -1.2855  1.4344
   97bbb     H8 2796   6.822   5.491   9.938 -0.0977  2.8692  0.9509
   97bbb     C5 2797   7.001   5.109  10.212 -0.0383  0.2666 -0.6845
   97bbb     H9 2798   6.893   5.103  10.225  0.1487  1.1083  1.6629
   97bbb    H10 2799   7.039   5.160  10.301  0.5075  0.5318 -1.0653
   97bbb     C6 2800   7.192   5.468  10.152 -0.1588  0.7216  0.1726
   97bbb    H11 2801   7.202   5.522  10.056 -2.4352 -0.6230 -0.8912
   97bbb    H12 2802   7.254   5.378  10.144  0.3258  0.6079  3.6389
   97bbb     C7 2803   6.913   5.536   9.745 -0.0852 -0.1200 -0.2937
   97bbb    H13 2804   7.013   5.562   9.710 -0.5965  2.3163 -0.1725
   97bbb    H14 2805   6.861   5.633   9.741 -2.5603 -1.1518  2.4644
   97bbb     C8 2806   7.238   5.561  10.269  0.2206 -0.2405 -0.2834
   97bbb    H15 2807   7.224   5.507  10.364  2.7549  1.5754  1.2390
   97bbb    H16 2808   7.173   5.649  10.277  1.7517  0.8157  1.1718
   97bbb     C9 2809   7.057   4.963  10.220  0.1751  0.6277 -0.3914
   97bbb    H17 2810   7.160   4.973  10.182  0.6034  0.9008  0.8011
   97bbb    H18 2811   7.009   4.890  10.155 -1.4019  0.0222  1.3680
   97bbb     O1 2812   6.838   5.436   9.673 -0.4398 -0.4119  0.2391
   98bbb     N1 2813   5.886   5.308   9.520  0.2066  0.5014  0.3482
   98bbb     C1 2814   5.825   5.289   9.661  0.0800  0.0626  0.4462
   98bbb     H1 2815   5.838   5.379   9.722 -1.2484  0.6240 -0.0778
   98bbb     H2 2816   5.885   5.215   9.715 -1.5474 -1.9519 -0.3920
   98bbb     C2 2817   5.823   5.415   9.442  0.0408  0.7891  0.2309
   98bbb     H3 2818   5.726   5.385   9.399 -0.0502 -0.5178  1.2680
   98bbb     H4 2819   5.884   5.426   9.352 -0.1607 -4.4584 -0.8818
   98bbb     C3 2820   6.028   5.300   9.503 -0.2851  0.0483 -0.3717
   98bbb     H5 2821   6.076   5.369   9.573 -3.5656 -1.3237  3.6530
   98bbb     H6 2822   6.057   5.311   9.398 -1.2533  1.8029 -0.4854
   98bbb     C4 2823   6.094   5.161   9.545  0.2636  0.7324 -0.1608
   98bbb     H7 2824   6.020   5.090   9.582 -0.5399  1.3743 -0.5002
   98bbb     H8 2825   6.167   5.176   9.626 -1.8135  0.5430  1.8308
   98bbb     C5 2826   5.675   5.244   9.668  0.3610 -0.1256 -0.2439
   98bbb     H9 2827   5.609   5.326   9.640 -0.8574 -0.5536  1.2570
   98bbb    H10 2828   5.648   5.215   9.771 -1.6475  1.0740 -0.3916
   98bbb     C6 2829   5.819   5.552   9.514 -0.0277 -0.4747  0.2994
   98bbb    H11 2830   5.922   5.568   9.549 -0.6001 -0.7583  2.2549
   98bbb    H12 2831   5.754   5.545   9.602  0.6484  0.0207  0.8598
   98bbb     C7 2832   6.165   5.097   9.417 -0.3626  0.9237  0.1986
   98bbb    H13 2833   6.113   5.112   9.322 -1.7417 -0.4341  0.6927
   98bbb    H14 2834   6.154   4.989   9.435 -1.2625  1.2169  1.5998
   98bbb     C8 2835   5.748   5.659   9.417  0.1035 -0.0669  0.3137
   98bbb    H15 2836   5.646   5.625   9.397 -0.4881  2.5116 -1.4439
   98bbb    H16 2837   5.795   5.663   9.318  0.8118  1.9888  0.6823
   98bbb     C9 2838   5.647   5.114   9.586  0.6274  0.7315 -0.3357
   98bbb    H17 2839   5.727   5.039   9.591 -0.7695 -0.9880 -1.9967
   98bbb    H18 2840   5.645   5.137   9.479 -1.5430 -1.2553 -0.8059
   98bbb     O1 2841   6.300   5.138   9.421  0.1926 -1.0977 -0.0341
   99bbb     N1 2842   9.548   5.811   8.426 -0.1963 -0.0014  0.3459
   99bbb     C1 2843   9.608   5.754   8.300 -0.4218  0.5884  0.1205
   99bbb     H1 2844   9.688   5.680   8.315  1.0531  2.1843  0.4734
   99bbb     H2 2845   9.642   5.832   8.230 -1.5893  0.7546 -0.2788
   99bbb     C2 2846   9.450   5.917   8.397 -0.1395 -0.2598 -0.3769
   99bbb     H3 2847   9.407   5.946   8.493  0.7629  0.2492 -0.1190
   99bbb     H4 2848   9.365   5.874   8.341 -0.5429 -2.2667  1.6381
   99bbb     C3 2849   9.491   5.710   8.514  0.0436 -0.5712  0.2482
   99bbb     H5 2850   9.405   5.660   8.466  0.1359 -1.2099  0.7302
   99bbb     H6 2851   9.465   5.761   8.608 -1.4683 -0.4615 -0.1990
   99bbb     C4 2852   9.585   5.596   8.557  0.3092 -0.2412 -0.0164
   99bbb     H7 2853   9.670   5.643   8.608 -0.4001 -0.3164  1.2729
   99bbb     H8 2854   9.635   5.551   8.471  2.7581  0.5720  0.8944
   99bbb     C5 2855   9.508   5.672   8.219  0.8165 -0.4579 -0.1839
   99bbb     H9 2856   9.420   5.736   8.204  0.2594 -0.6975  1.8611
   99bbb    H10 2857   9.479   5.593   8.288 -1.1487  1.7734  1.7497
   99bbb     C6 2858   9.511   6.040   8.327  0.4276  0.3445 -0.7218
   99bbb    H11 2859   9.434   6.117   8.310 -0.4063 -0.4737 -0.6902
   99bbb    H12 2860   9.536   6.006   8.226 -0.3266  0.1934 -0.8609
   99bbb     C7 2861   9.522   5.484   8.646  0.5186  0.0971  1.2055
   99bbb    H13 2862   9.470   5.528   8.732  0.4703  1.2734  0.6046
   99bbb    H14 2863   9.593   5.415   8.693 -0.5503 -1.1776  1.0197
   99bbb     C8 2864   9.636   6.108   8.393  0.9710  0.0134 -0.1858
   99bbb    H15 2865   9.728   6.053   8.372 -0.5427 -2.6674 -0.3189
   99bbb    H16 2866   9.620   6.108   8.501  1.0943 -2.0603 -0.1282
   99bbb     C9 2867   9.565   5.625   8.077  0.2860 -0.0088  0.2293
   99bbb    H17 2868   9.628   5.537   8.097  1.3718  0.8713  0.8745
   99bbb    H18 2869   9.634   5.706   8.050 -1.0606  2.2926  3.1756
   99bbb     O1 2870   9.434   5.400   8.559 -0.4407  0.3517 -0.2631
  100bbb     N1 2871   9.704   4.560   8.965  0.4018 -1.0401 -0.0725
  100bbb     C1 2872   9.651   4.476   8.852 -0.3438  0.0417  0.0787
  100bbb     H1 2873   9.548   4.453   8.884 -0.1422 -3.0901 -1.2317
  100bbb     H2 2874   9.707   4.382   8.843 -2.4939 -1.4435  1.0729
  100bbb     C2 2875   9.841   4.605   8.934  0.2551 -0.4208 -0.0029
  100bbb     H3 2876   9.868   4.656   9.027 -2.0853  1.9885 -0.5032
  100bbb     H4 2877   9.847   4.690   8.864 -2.4199 -0.4064 -0.3246
  100bbb     C3 2878   9.614   4.672   9.000  0.4749 -0.0408 -0.1536
  100bbb     H5 2879   9.586   4.726   8.909 -2.2102 -0.2734  0.4604
  100bbb     H6 2880   9.677   4.736   9.062 -0.8658  0.9232  0.2549
  100bbb     C4 2881   9.480   4.638   9.079  0.2481 -0.6541  0.3780
  100bbb     H7 2882   9.500   4.589   9.175  0.0082  1.1415  1.4154
  100bbb     H8 2883   9.419   4.574   9.014 -1.3380  0.4816  0.6661
  100bbb     C5 2884   9.634   4.533   8.709 -0.3992 -0.1579  0.6123
  100bbb     H9 2885   9.730   4.560   8.664 -0.3551 -1.4819 -0.1409
  100bbb    H10 2886   9.577   4.627   8.715 -0.1154  0.3557 -2.6797
  100bbb     C6 2887   9.941   4.490   8.903 -0.3453 -0.2713  0.1118
  100bbb    H11 2888   9.945   4.457   8.798  1.6501 -0.9040  0.3522
  100bbb    H12 2889   9.920   4.398   8.958  2.0648 -0.9451  0.0124
  100bbb     C7 2890   9.399   4.766   9.104  0.2987 -0.2368 -0.1686
  100bbb    H13 2891   9.441   4.840   9.172  1.2280 -0.8378 -0.0751
  100bbb    H14 2892   9.304   4.739   9.152  1.2159 -1.5573  1.0037
  100bbb     C8 2893  10.082   4.546   8.932 -0.9552 -0.1176 -0.3860
  100bbb    H15 2894  10.148   4.468   8.975  0.4213  1.6266  0.8466
  100bbb    H16 2895  10.070   4.635   8.994 -2.1842 -1.2133  1.0315
  100bbb     C9 2896   9.560   4.441   8.603 -0.2220  0.2897  0.4074
  100bbb    H17 2897   9.614   4.345   8.598 -0.2706  0.2107  1.2463
  100bbb    H18 2898   9.564   4.495   8.508  0.0482 -0.3076  0.0677
  100bbb     O1 2899   9.369   4.827   8.977 -0.1091 -0.1812 -0.0872
  101bbb     N1 2900   8.416   5.491  10.037  0.0757  0.9086 -0.1358
  101bbb     C1 2901   8.407   5.576  10.154 -0.6276 -0.5570  0.7798
  101bbb     H1 2902   8.318   5.551  10.212 -1.3457  0.0412 -0.0261
  101bbb     H2 2903   8.384   5.678  10.118 -0.7367 -0.9662 -0.3582
  101bbb     C2 2904   8.454   5.346  10.068 -0.8484  0.8277 -0.2163
  101bbb     H3 2905   8.549   5.351  10.123 -1.0697  1.4981  0.1171
  101bbb     H4 2906   8.472   5.292   9.974 -1.2122 -1.2333  0.8472
  101bbb     C3 2907   8.314   5.521   9.929  0.9176  0.5788  0.1582
  101bbb     H5 2908   8.322   5.628   9.906 -3.6769  0.9529 -0.7519
  101bbb     H6 2909   8.218   5.508   9.981  0.2164  2.9982 -0.3972
  101bbb     C4 2910   8.316   5.437   9.796  1.1551  0.1377  0.2102
  101bbb     H7 2911   8.314   5.333   9.830 -0.9901 -0.3685 -1.2861
  101bbb     H8 2912   8.414   5.454   9.748  0.7927 -1.2607 -1.1354
  101bbb     C5 2913   8.539   5.592  10.233  0.2063 -0.2901 -0.2117
  101bbb     H9 2914   8.561   5.698  10.256 -1.1666 -0.0360  0.0044
  101bbb    H10 2915   8.623   5.562  10.170 -0.7058  0.2907 -1.7677
  101bbb     C6 2916   8.361   5.260  10.162 -1.2612  1.4384 -0.0049
  101bbb    H11 2917   8.366   5.306  10.261 -1.4285 -0.0657  0.7231
  101bbb    H12 2918   8.399   5.160  10.185 -2.6226  0.7382 -0.6437
  101bbb     C7 2919   8.197   5.459   9.693  0.1897  0.2353 -0.4250
  101bbb    H13 2920   8.221   5.541   9.624  0.6327  0.9844  0.5891
  101bbb    H14 2921   8.098   5.474   9.737 -0.3284  0.9790 -1.7868
  101bbb     C8 2922   8.215   5.239  10.113  0.6626  0.1899  0.3524
  101bbb    H15 2923   8.223   5.198  10.011 -0.1647  0.6899  0.0754
  101bbb    H16 2924   8.163   5.336  10.105 -0.6415 -0.4151  1.1473
  101bbb     C9 2925   8.530   5.521  10.367 -0.0748 -0.3185 -0.8755
  101bbb    H17 2926   8.465   5.433  10.358 -0.6223  0.2289 -2.6032
  101bbb    H18 2927   8.477   5.581  10.442 -1.4091 -0.6770 -1.4853
  101bbb     O1 2928   8.183   5.330   9.618  0.0710 -0.4807 -0.0850
  102bbb     N1 2929   8.468   4.205   9.320 -0.1729  0.2887 -0.1555
  102bbb     C1 2930   8.517   4.093   9.409 -0.4384  0.3662  0.6957
  102bbb     H1 2931   8.434   4.066   9.475 -1.1441 -1.6815 -0.9200
  102bbb     H2 2932   8.604   4.124   9.469 -1.0288 -1.1692  2.4090
  102bbb     C2 2933   8.563   4.226   9.206 -0.3743  0.6922  0.0641
  102bbb     H3 2934   8.590   4.130   9.162  0.4669  0.9923 -0.1008
  102bbb     H4 2935   8.654   4.264   9.255 -0.8047 -0.3777  1.7749
  102bbb     C3 2936   8.425   4.327   9.399 -0.0761 -0.0681  0.0158
  102bbb     H5 2937   8.400   4.408   9.329  0.3934  0.8521  0.8957
  102bbb     H6 2938   8.501   4.360   9.471  1.9343 -2.0416 -1.0335
  102bbb     C4 2939   8.300   4.297   9.488  0.3702  0.5259  0.4569
  102bbb     H7 2940   8.322   4.229   9.571  0.3060  1.5414  1.3225
  102bbb     H8 2941   8.229   4.246   9.422  1.4591 -0.5783  0.0975
  102bbb     C5 2942   8.535   3.950   9.362 -0.4412  0.3302  0.3071
  102bbb     H9 2943   8.632   3.946   9.311 -0.9057  1.4034 -0.7256
  102bbb    H10 2944   8.461   3.922   9.286 -0.5197  1.2400  0.0363
  102bbb     C6 2945   8.522   4.327   9.086 -0.2848  0.1782 -0.7611
  102bbb    H11 2946   8.489   4.421   9.131  2.8087  0.2666  1.6911
  102bbb    H12 2947   8.434   4.290   9.032 -0.2541 -0.5248 -0.3456
  102bbb     C7 2948   8.243   4.434   9.544  0.5383  0.3417  0.7343
  102bbb    H13 2949   8.328   4.478   9.598  0.3221  0.6547  0.8167
  102bbb    H14 2950   8.158   4.416   9.611  1.3787 -0.5641  1.5929
  102bbb     C8 2951   8.626   4.355   8.978 -0.2242  0.4089  0.0698
  102bbb    H15 2952   8.666   4.265   8.930  1.6423  0.9629  0.4826
  102bbb    H16 2953   8.710   4.394   9.036 -1.1058  0.6175  1.2344
  102bbb     C9 2954   8.537   3.832   9.466 -0.0411 -0.1992 -0.2854
  102bbb    H17 2955   8.589   3.744   9.426  1.2711 -0.1040  1.1042
  102bbb    H18 2956   8.431   3.809   9.477 -0.2466  0.5168 -0.7238
  102bbb     O1 2957   8.202   4.527   9.442 -0.4193 -0.0890  0.1539
  103bbb     N1 2958   5.782   7.730   6.221  0.0483  0.3923 -0.1554
  103bbb     C1 2959   5.896   7.737   6.133  0.4191  0.3195  0.0399
  103bbb     H1 2960   5.863   7.753   6.030 -0.2123  1.7032  0.4267
  103bbb     H2 2961   5.936   7.636   6.128  0.3016  0.3352 -1.6823
  103bbb     C2 2962   5.700   7.847   6.247 -0.0649 -0.1634  0.1771
  103bbb     H3 2963   5.745   7.913   6.323  0.3484 -1.5755  1.1875
  103bbb     H4 2964   5.611   7.798   6.289 -0.1496  0.9114  1.3105
  103bbb     C3 2965   5.821   7.682   6.355 -0.0614  0.0292  0.5581
  103bbb     H5 2966   5.730   7.656   6.411 -0.1143 -0.3957  0.2773
  103bbb     H6 2967   5.850   7.765   6.422 -1.7964  0.3411  0.9863
  103bbb     C4 2968   5.930   7.564   6.368  0.2901  0.0953  0.5103
  103bbb     H7 2969   6.031   7.592   6.338  0.9775  0.9943  3.3581
  103bbb     H8 2970   5.900   7.473   6.314 -0.3548  0.5863  0.0292
  103bbb     C5 2971   6.003   7.855   6.147  0.2299 -0.3928  0.1833
  103bbb     H9 2972   6.054   7.853   6.244 -1.4335  0.5429  1.1337
  103bbb    H10 2973   5.952   7.952   6.135 -2.7244 -1.9000 -0.3719
  103bbb     C6 2974   5.665   7.932   6.127 -0.3969  0.1980  0.6104
  103bbb    H11 2975   5.622   7.866   6.051  0.0821 -0.9120  1.2678
  103bbb    H12 2976   5.746   7.984   6.074  0.3223 -1.1014  0.3954
  103bbb     C7 2977   5.960   7.520   6.510 -0.0637  0.0357  0.0127
  103bbb    H13 2978   5.860   7.501   6.551 -0.7360  0.8860 -1.1853
  103bbb    H14 2979   6.004   7.604   6.566  0.1085  1.2720 -1.9080
  103bbb     C8 2980   5.568   8.037   6.181  0.2913 -0.2095  0.1770
  103bbb    H15 2981   5.501   7.981   6.248  0.4155 -1.4292 -0.6871
  103bbb    H16 2982   5.509   8.082   6.101 -0.6750 -0.0905  0.9340
  103bbb     C9 2983   6.104   7.841   6.034 -0.4180  0.2890  0.4067
  103bbb    H17 2984   6.060   7.840   5.934  1.1756 -1.9515 -0.3652
  103bbb    H18 2985   6.151   7.743   6.050 -1.6626 -0.4265 -0.1397
  103bbb     O1 2986   6.039   7.400   6.512 -0.4484  0.0601 -0.5460
  104bbb     N1 2987   5.606   8.023   7.224  0.4004  1.0543  0.3010
  104bbb     C1 2988   5.595   8.046   7.077  0.5337 -0.1015  0.3341
  104bbb     H1 2989   5.578   7.949   7.028 -1.2641  0.7075 -0.7569
  104bbb     H2 2990   5.690   8.090   7.046  0.7279 -0.3434  0.5818
  104bbb     C2 2991   5.489   7.947   7.274  0.0752 -0.3103 -0.6582
  104bbb     H3 2992   5.504   7.852   7.221 -0.0923 -0.3932 -0.5561
  104bbb     H4 2993   5.395   7.998   7.247  0.0622 -0.4875 -0.9648
  104bbb     C3 2994   5.740   7.979   7.279 -0.0242 -0.1900  0.4727
  104bbb     H5 2995   5.730   7.935   7.380  0.8611 -2.2244 -0.2728
  104bbb     H6 2996   5.804   8.068   7.276  0.9726 -0.8668  1.0418
  104bbb     C4 2997   5.819   7.880   7.190  0.0750  0.1843 -0.1690
  104bbb     H7 2998   5.838   7.921   7.090  1.0474  1.6920  0.5912
  104bbb     H8 2999   5.751   7.795   7.185  0.7498 -0.3207 -1.0233
  104bbb     C5 3000   5.484   8.155   7.029 -0.2389 -0.0740 -0.1726
  104bbb     H9 3001   5.382   8.116   7.022 -0.1244 -0.4813  0.3318
  104bbb    H10 3002   5.509   8.187   6.927 -0.5255  0.9718  0.0763
  104bbb     C6 3003   5.477   7.923   7.430  0.5894  0.1703  0.5251
  104bbb    H11 3004   5.519   8.014   7.474  1.0464 -1.1964  3.0665
  104bbb    H12 3005   5.533   7.834   7.462 -0.2289 -0.4030  0.3913
  104bbb     C7 3006   5.949   7.842   7.261  0.3451  0.0633 -0.2028
  104bbb    H13 3007   5.926   7.786   7.353 -3.0282  0.3313 -0.7568
  104bbb    H14 3008   6.010   7.931   7.280 -0.9214  1.2300 -1.4372
  104bbb     C8 3009   5.333   7.917   7.483  0.7970  0.0561  0.2084
  104bbb    H15 3010   5.271   7.841   7.434  1.1199  0.5760 -1.0410
  104bbb    H16 3011   5.276   8.007   7.455 -0.5855 -0.7451  0.3328
  104bbb     C9 3012   5.490   8.279   7.122  0.5133 -0.2043 -0.3595
  104bbb    H17 3013   5.591   8.287   7.164  0.9397 -0.4975 -1.3182
  104bbb    H18 3014   5.424   8.273   7.210 -0.0413  1.5279 -0.6293
  104bbb     O1 3015   6.041   7.756   7.187  0.0328 -1.0112  0.0781
  105bbb     N1 3016   6.130   5.279   6.662  0.4195  0.2701 -0.1788
  105bbb     C1 3017   5.979   5.274   6.664  0.4618 -0.3799  0.0854
  105bbb     H1 3018   5.956   5.269   6.557  1.1557 -1.1056 -0.0411
  105bbb     H2 3019   5.943   5.370   6.704  0.1931  0.2787 -1.6286
  105bbb     C2 3020   6.194   5.178   6.575  0.2987 -1.4356 -0.0206
  105bbb     H3 3021   6.164   5.203   6.473 -1.1372 -1.0016  0.4682
  105bbb     H4 3022   6.152   5.079   6.597 -1.1191 -0.8509  0.0822
  105bbb     C3 3023   6.193   5.405   6.661 -0.0287  0.2884 -0.0450
  105bbb     H5 3024   6.301   5.397   6.675  0.1805  1.4758 -0.9268
  105bbb     H6 3025   6.159   5.456   6.752  0.7213 -0.7125  0.8255
  105bbb     C4 3026   6.157   5.494   6.547 -0.2241  0.6524  0.0910
  105bbb     H7 3027   6.051   5.498   6.519 -0.2083  1.8665  0.1396
  105bbb     H8 3028   6.215   5.462   6.460  1.6012  1.7213  0.8305
  105bbb     C5 3029   5.923   5.148   6.741  0.2508  0.1583 -0.1294
  105bbb     H9 3030   5.969   5.168   6.839  1.0872 -0.6469 -0.3474
  105bbb    H10 3031   5.969   5.056   6.703 -0.3639 -0.1806 -0.0640
  105bbb     C6 3032   6.348   5.169   6.576  0.3605  0.1651  0.3313
  105bbb    H11 3033   6.381   5.136   6.675 -0.4372  0.2405  0.6339
  105bbb    H12 3034   6.407   5.259   6.556  1.2302 -0.1998  1.2271
  105bbb     C7 3035   6.193   5.643   6.562 -0.0891 -0.4121  0.2602
  105bbb    H13 3036   6.149   5.693   6.475  1.0696 -0.5810 -0.4389
  105bbb    H14 3037   6.300   5.661   6.546 -0.3013 -0.4640 -1.3757
  105bbb     C8 3038   6.389   5.053   6.482  0.3307 -0.0278 -0.4887
  105bbb    H15 3039   6.335   5.049   6.387  0.9860  0.1154 -0.8688
  105bbb    H16 3040   6.352   4.957   6.521  0.9068 -1.0213 -2.2814
  105bbb     C9 3041   5.773   5.133   6.751  0.2223  0.0305 -0.4160
  105bbb    H17 3042   5.745   5.037   6.795 -0.0275  0.4761  0.4099
  105bbb    H18 3043   5.736   5.125   6.648 -0.1344  1.2805 -0.4120
  105bbb     O1 3044   6.143   5.691   6.691 -0.1139  0.4288  0.4766
  106bbb     N1 3045   5.732   5.571   7.290 -0.4601  0.0359  0.4051
  106bbb     C1 3046   5.601   5.589   7.225 -0.0451  0.3254  0.5414
  106bbb     H1 3047   5.617   5.633   7.125  0.0834  1.4039  1.0197
  106bbb     H2 3048   5.549   5.659   7.292  1.6843  1.7824  0.4488
  106bbb     C2 3049   5.801   5.697   7.310  0.4817 -0.3185 -0.7453
  106bbb     H3 3050   5.732   5.780   7.332  0.4758 -0.8198  1.3230
  106bbb     H4 3051   5.857   5.728   7.221  2.5043 -0.8889  0.2929
  106bbb     C3 3052   5.824   5.473   7.222 -0.4018 -0.3079 -0.0641
  106bbb     H5 3053   5.775   5.376   7.208 -2.1841  0.2412  1.8822
  106bbb     H6 3054   5.912   5.450   7.283 -0.6580 -1.5967 -0.1616
  106bbb     C4 3055   5.860   5.508   7.073  0.4488 -0.7343  0.5381
  106bbb     H7 3056   5.852   5.615   7.051  1.3488 -0.6492  0.5762
  106bbb     H8 3057   5.782   5.466   7.008  0.0772  1.5108 -0.5356
  106bbb     C5 3058   5.509   5.470   7.201 -0.0019  0.0366 -0.1920
  106bbb     H9 3059   5.503   5.425   7.301  0.7676  2.4593  1.0190
  106bbb    H10 3060   5.557   5.413   7.121 -0.4809  0.0524 -0.4947
  106bbb     C6 3061   5.921   5.684   7.415  0.0712 -0.9129  0.2098
  106bbb    H11 3062   5.998   5.617   7.376 -0.0474 -0.8783 -0.0808
  106bbb    H12 3063   5.886   5.647   7.512  1.3383  0.2827  1.1698
  106bbb     C7 3064   5.998   5.466   7.022 -0.5800 -0.1698  0.3320
  106bbb    H13 3065   6.003   5.491   6.915  2.2873 -0.2286  0.3834
  106bbb    H14 3066   6.018   5.359   7.038  0.0136 -0.6251 -2.8027
  106bbb     C8 3067   5.984   5.824   7.445 -0.4822 -0.0766  0.4655
  106bbb    H15 3068   5.926   5.892   7.508  0.4149 -1.0756  2.4686
  106bbb    H16 3069   5.994   5.875   7.349  2.3539 -1.2894  0.0182
  106bbb     C9 3070   5.364   5.520   7.164  0.1393  0.0022 -0.1255
  106bbb    H17 3071   5.301   5.432   7.144 -0.6189 -0.0471  2.1824
  106bbb    H18 3072   5.365   5.582   7.073 -1.9397  0.3560  0.0505
  106bbb     O1 3073   6.089   5.538   7.107  0.4769 -0.9572 -0.4549
  107bbb     N1 3074   9.042   7.447   6.935 -0.1561 -0.2562  0.6988
  107bbb     C1 3075   9.080   7.558   7.032 -0.1022  0.2221 -0.3265
  107bbb     H1 3076   9.089   7.526   7.137  0.4004  0.8450 -0.1682
  107bbb     H2 3077   9.006   7.639   7.040 -2.6151 -1.8230 -1.5663
  107bbb     C2 3078   9.144   7.347   6.886  0.6492 -0.5314 -0.3689
  107bbb     H3 3079   9.217   7.398   6.823 -1.6392 -1.0726 -3.7559
  107bbb     H4 3080   9.090   7.284   6.814  0.9750  1.3254 -2.3232
  107bbb     C3 3081   8.903   7.393   6.948  0.0404  0.3601  0.4358
  107bbb     H5 3082   8.906   7.303   7.010  0.1621 -0.9382 -1.3985
  107bbb     H6 3083   8.874   7.359   6.848  1.1748  1.4103 -0.2879
  107bbb     C4 3084   8.795   7.490   7.018 -0.5428 -0.7849  0.1373
  107bbb     H7 3085   8.768   7.570   6.948  0.3590  0.0074  0.6700
  107bbb     H8 3086   8.850   7.535   7.101  1.0894  1.4926 -2.0423
  107bbb     C5 3087   9.216   7.635   7.005 -0.6550 -0.3237 -0.0513
  107bbb     H9 3088   9.216   7.693   6.912  0.8183  0.9903  0.7292
  107bbb    H10 3089   9.300   7.565   6.999 -0.6853 -0.2341 -2.4687
  107bbb     C6 3090   9.223   7.267   6.997 -0.5579  0.8272  0.6408
  107bbb    H11 3091   9.144   7.214   7.052 -0.6373  1.8418  1.5284
  107bbb    H12 3092   9.285   7.326   7.065 -2.2784  2.8478  0.5536
  107bbb     C7 3093   8.666   7.412   7.059  0.5562 -0.0972  0.4466
  107bbb    H13 3094   8.636   7.462   7.152 -0.4735 -0.5673  0.3770
  107bbb    H14 3095   8.699   7.310   7.083  0.1800  0.1707  2.2020
  107bbb     C8 3096   9.312   7.170   6.920 -1.1258  0.3301 -0.0727
  107bbb    H15 3097   9.258   7.092   6.865 -2.6507  0.5335  1.0948
  107bbb    H16 3098   9.375   7.106   6.983 -1.0251 -0.7528 -1.2220
  107bbb     C9 3099   9.241   7.735   7.117  0.7251 -0.1697 -0.4506
  107bbb    H17 3100   9.167   7.815   7.106  0.6201 -0.2999 -0.6853
  107bbb    H18 3101   9.337   7.787   7.104  1.3179 -1.5500 -1.9554
  107bbb     O1 3102   8.573   7.427   6.955 -0.4800  0.1607 -0.1065
  108bbb     N1 3103   7.880   8.153   6.247  0.1116  0.0215  0.4570
  108bbb     C1 3104   7.870   8.292   6.203  0.2379 -0.5690  0.1783
  108bbb     H1 3105   7.809   8.286   6.112  1.4489  0.6062 -0.7441
  108bbb     H2 3106   7.969   8.330   6.173  0.1845 -0.7605 -0.2538
  108bbb     C2 3107   7.921   8.062   6.138  0.2008 -0.3804 -0.8213
  108bbb     H3 3108   7.840   8.051   6.065 -0.5515  0.0153 -0.0637
  108bbb     H4 3109   7.935   7.958   6.168  1.6145 -1.2384 -3.9699
  108bbb     C3 3110   7.960   8.142   6.373  0.1701  0.4405  0.1964
  108bbb     H5 3111   7.917   8.210   6.448  0.3771  1.2448 -0.3964
  108bbb     H6 3112   8.059   8.181   6.346 -0.0951  1.0839  0.1189
  108bbb     C4 3113   7.967   8.000   6.436  0.6401 -0.3632  0.0359
  108bbb     H7 3114   8.014   7.925   6.372  0.1299 -0.7547  0.1113
  108bbb     H8 3115   7.866   7.960   6.454  1.7646 -2.4559  2.2111
  108bbb     C5 3116   7.803   8.386   6.304 -0.2469 -0.0795  0.1138
  108bbb     H9 3117   7.876   8.398   6.386  1.3274  1.6679 -1.4552
  108bbb    H10 3118   7.711   8.340   6.341  0.1673 -1.0118  0.0143
  108bbb     C6 3119   8.047   8.105   6.055  0.6432 -0.4603 -0.2691
  108bbb    H11 3120   8.119   8.137   6.131  1.6363 -2.0717 -0.5025
  108bbb    H12 3121   8.012   8.196   6.005 -0.9773  0.0863  1.7203
  108bbb     C7 3122   8.028   8.002   6.574  0.0527  0.2443 -1.0079
  108bbb    H13 3123   7.959   8.053   6.643  1.2327  2.0062 -1.0673
  108bbb    H14 3124   8.123   8.058   6.573 -1.2320  2.6153  0.2190
  108bbb     C8 3125   8.091   7.994   5.961  0.8443 -0.0343 -0.3645
  108bbb    H15 3126   8.101   7.907   6.026  2.2030  1.1895  1.1468
  108bbb    H16 3127   8.187   8.024   5.916  1.8395  1.0485  2.2698
  108bbb     C9 3128   7.769   8.517   6.239  0.2054 -0.3850 -0.2893
  108bbb    H17 3129   7.786   8.512   6.131 -0.8382  0.3692 -0.5030
  108bbb    H18 3130   7.846   8.584   6.278 -0.7210  1.5760 -1.6507
  108bbb     O1 3131   8.039   7.866   6.603 -0.3116 -0.0800 -0.3555
  109bbb     N1 3132   8.104   5.266   6.784 -0.1822 -0.1376 -0.3333
  109bbb     C1 3133   8.212   5.161   6.776  0.1847 -0.0118 -0.0846
  109bbb     H1 3134   8.179   5.062   6.809  0.2851  0.2866  0.9270
  109bbb     H2 3135   8.296   5.194   6.839  0.4565  0.0116 -0.4523
  109bbb     C2 3136   7.975   5.224   6.711 -0.7820  0.0847 -0.3487
  109bbb     H3 3137   7.986   5.227   6.602 -0.3784 -2.0945 -0.4155
  109bbb     H4 3138   7.900   5.300   6.737 -1.6539 -1.0385  0.5137
  109bbb     C3 3139   8.142   5.406   6.743  0.1663  0.5284  0.1380
  109bbb     H5 3140   8.046   5.458   6.748 -0.0253  0.2035 -0.1285
  109bbb     H6 3141   8.175   5.396   6.639 -2.1573 -0.3732 -0.5812
  109bbb     C4 3142   8.248   5.476   6.828 -0.0277 -0.7449  0.5755
  109bbb     H7 3143   8.348   5.431   6.818  1.1713  1.3505  2.2867
  109bbb     H8 3144   8.224   5.462   6.934 -0.7885  2.2185  0.8794
  109bbb     C5 3145   8.263   5.151   6.628 -0.1061  0.0613  0.2334
  109bbb     H9 3146   8.347   5.221   6.617  0.1678 -0.4517 -1.2210
  109bbb    H10 3147   8.190   5.172   6.548 -0.0381 -2.9918 -0.7587
  109bbb     C6 3148   7.908   5.091   6.745  0.2859 -0.1456  0.0252
  109bbb    H11 3149   7.911   5.076   6.854  0.4422  0.2267  0.0772
  109bbb    H12 3150   7.970   5.010   6.706  1.2300 -0.7139  2.5258
  109bbb     C7 3151   8.267   5.627   6.793 -0.1490 -0.2017 -0.3341
  109bbb    H13 3152   8.278   5.643   6.686 -1.8637 -0.6679 -0.6146
  109bbb    H14 3153   8.366   5.665   6.823 -0.6523  1.0967 -0.2601
  109bbb     C8 3154   7.762   5.077   6.696  0.4211 -0.2559  0.6839
  109bbb    H15 3155   7.758   5.124   6.598  2.0114  1.0831  1.2121
  109bbb    H16 3156   7.703   5.141   6.764 -0.9332 -0.1803 -0.5230
  109bbb     C9 3157   8.314   5.010   6.597 -0.4307 -1.2405 -0.1332
  109bbb    H17 3158   8.241   4.930   6.616 -0.0472 -1.4222  0.6134
  109bbb    H18 3159   8.394   4.980   6.665  0.9258  0.9695 -0.6639
  109bbb     O1 3160   8.155   5.702   6.848  0.1169  0.0292  0.2700
  110bbb     N1 3161   7.560   6.024   6.400 -0.2137 -0.1647  0.0319
  110bbb     C1 3162   7.523   5.896   6.463  0.1107 -0.2871 -0.2789
  110bbb     H1 3163   7.554   5.821   6.389  0.3581  2.2003 -2.8304
  110bbb     H2 3164   7.418   5.881   6.490  0.6419  2.8617  4.9693
  110bbb     C2 3165   7.501   6.045   6.265 -0.0958 -0.8771 -0.1669
  110bbb     H3 3166   7.530   6.144   6.228 -0.1582 -1.2279 -1.1931
  110bbb     H4 3167   7.394   6.059   6.288 -0.2332  1.5629 -1.8819
  110bbb     C3 3168   7.528   6.144   6.481  0.2785 -0.5634 -0.2102
  110bbb     H5 3169   7.572   6.133   6.580  0.8358  0.3213 -0.3423
  110bbb     H6 3170   7.419   6.146   6.486  0.2165 -0.2185 -1.3901
  110bbb     C4 3171   7.585   6.285   6.425  0.0626 -0.3861 -0.1204
  110bbb     H7 3172   7.572   6.378   6.483 -2.0087 -0.2629 -0.6990
  110bbb     H8 3173   7.531   6.316   6.334 -2.4117  0.6660  1.6003
  110bbb     C5 3174   7.592   5.870   6.600  0.0373  0.5412 -0.2034
  110bbb     H9 3175   7.568   5.771   6.640 -1.1212  0.5430 -0.8421
  110bbb    H10 3176   7.551   5.938   6.677 -3.7167  0.3868 -1.8271
  110bbb     C6 3177   7.522   5.933   6.156  0.6688  0.2307  0.2758
  110bbb    H11 3178   7.484   5.961   6.057 -0.3692 -2.4284 -0.1575
  110bbb    H12 3179   7.460   5.849   6.188  2.0952 -0.6058  0.9220
  110bbb     C7 3180   7.735   6.275   6.387  0.1209  0.2824  0.1146
  110bbb    H13 3181   7.768   6.365   6.334 -0.2697  1.1370  1.2822
  110bbb    H14 3182   7.766   6.190   6.324 -0.7350  1.8462 -2.5764
  110bbb     C8 3183   7.669   5.892   6.146 -0.2612  0.3953 -0.3192
  110bbb    H15 3184   7.689   5.801   6.205 -0.6385  1.9047  2.3012
  110bbb    H16 3185   7.730   5.964   6.201  1.8165 -0.9565 -0.7227
  110bbb     C9 3186   7.743   5.884   6.595  1.3380  0.4031  0.1734
  110bbb    H17 3187   7.776   5.878   6.699  0.8305  0.5968  0.3496
  110bbb    H18 3188   7.770   5.980   6.548 -1.8940  2.0424  1.3273
  110bbb     O1 3189   7.813   6.273   6.510  0.3111  0.2365 -0.2295
  111bbb     N1 3190   5.117   8.767  10.036  0.4312 -0.1801  0.2064
  111bbb     C1 3191   4.972   8.787  10.013  0.0865 -0.6010 -0.6248
  111bbb     H1 3192   4.940   8.747   9.915 -2.7921 -0.8942  0.3481
  111bbb     H2 3193   4.935   8.890  10.019  2.5163  0.3225 -0.6269
  111bbb     C2 3194   5.169   8.786  10.169 -0.0547  0.5076  0.3582
  111bbb     H3 3195   5.272   8.749  10.173 -0.4782 -1.4802 -3.1891
  111bbb     H4 3196   5.114   8.726  10.243  1.4794 -0.1608  1.0098
  111bbb     C3 3197   5.191   8.829   9.923  0.2761 -0.4206 -0.5337
  111bbb     H5 3198   5.190   8.938   9.934  0.2859 -0.5092  0.4356
  111bbb     H6 3199   5.131   8.806   9.834 -0.7177 -0.7411  0.2045
  111bbb     C4 3200   5.329   8.777   9.905  0.0970  0.6691  0.1903
  111bbb     H7 3201   5.402   8.804   9.982  0.5826 -1.9191  0.7181
  111bbb     H8 3202   5.364   8.805   9.805  0.4403  1.5424  0.5496
  111bbb     C5 3203   4.874   8.715  10.113  0.1863  0.7299  0.2624
  111bbb     H9 3204   4.901   8.749  10.214  2.9097  0.8285 -0.4166
  111bbb    H10 3205   4.891   8.609  10.094  0.0544  1.0879 -2.2043
  111bbb     C6 3206   5.153   8.935  10.215  0.9168 -0.8377  0.0824
  111bbb    H11 3207   5.060   8.980  10.180  1.4993  2.1615  2.0424
  111bbb    H12 3208   5.244   8.981  10.174  1.0814 -1.9472 -0.8455
  111bbb     C7 3209   5.322   8.623   9.909 -0.1902  0.6671 -0.0320
  111bbb    H13 3210   5.238   8.581   9.852  0.0561  0.0805  0.0270
  111bbb    H14 3211   5.314   8.594  10.014  3.5745 -2.3395 -0.3104
  111bbb     C8 3212   5.140   8.958  10.363  0.8368 -0.4857  0.3111
  111bbb    H15 3213   5.213   8.893  10.413 -0.7101 -1.9661  0.7356
  111bbb    H16 3214   5.044   8.918  10.395  1.7167 -1.5893  1.6756
  111bbb     C9 3215   4.726   8.739  10.079  0.1388  0.8845  0.1520
  111bbb    H17 3216   4.680   8.669  10.149  2.7174  1.8036  2.9851
  111bbb    H18 3217   4.699   8.704   9.978 -4.0109 -2.4357  2.1243
  111bbb     O1 3218   5.454   8.572   9.864 -0.0855 -0.5818  0.1040
  112bbb     N1 3219   5.940   8.781   9.056  0.3140 -0.1024  0.4820
  112bbb     C1 3220   5.818   8.773   8.966 -0.6034  0.2283 -0.7320
  112bbb     H1 3221   5.730   8.756   9.030 -0.7454  1.2415 -0.6282
  112bbb     H2 3222   5.832   8.688   8.899  0.3588 -0.8345  0.7574
  112bbb     C2 3223   5.961   8.904   9.138 -0.6351  0.6198 -0.2790
  112bbb     H3 3224   5.944   8.990   9.072 -1.2483  1.4295  0.8943
  112bbb     H4 3225   6.063   8.912   9.178 -0.9890  0.9767  0.5808
  112bbb     C3 3226   5.962   8.663   9.132  0.3625  0.4183  0.0351
  112bbb     H5 3227   5.957   8.578   9.063  1.0814  0.3706  0.0329
  112bbb     H6 3228   5.890   8.645   9.212 -0.2165 -0.0239 -0.5748
  112bbb     C4 3229   6.101   8.655   9.193  0.1620  0.8507 -0.0906
  112bbb     H7 3230   6.119   8.737   9.263 -1.3465  1.0224  0.1431
  112bbb     H8 3231   6.168   8.678   9.111 -0.6474  0.7689 -0.7892
  112bbb     C5 3232   5.794   8.898   8.878  0.2447 -0.2881  0.0274
  112bbb     H9 3233   5.886   8.945   8.841 -0.5143  1.0521 -0.2214
  112bbb    H10 3234   5.750   8.981   8.936 -1.2423 -0.8843 -0.2150
  112bbb     C6 3235   5.857   8.915   9.258 -0.0096  0.0139  0.4009
  112bbb    H11 3236   5.885   8.842   9.335  0.3214  0.4261  0.6800
  112bbb    H12 3237   5.758   8.893   9.216  0.3267  0.8530 -0.8762
  112bbb     C7 3238   6.118   8.519   9.268  0.2183  0.2022 -0.2971
  112bbb    H13 3239   6.214   8.510   9.321 -0.7407 -2.5211  1.1835
  112bbb    H14 3240   6.122   8.440   9.193  0.4189  0.7755 -0.8979
  112bbb     C8 3241   5.840   9.056   9.317  0.2396 -0.8600 -0.0430
  112bbb    H15 3242   5.776   9.117   9.252  1.2500 -0.4204 -0.6406
  112bbb    H16 3243   5.934   9.112   9.317 -0.2998  0.1218 -1.8471
  112bbb     C9 3244   5.703   8.871   8.751 -0.2992 -0.3988  0.1461
  112bbb    H17 3245   5.747   8.799   8.681 -1.8812  1.0114 -2.4356
  112bbb    H18 3246   5.686   8.963   8.694  1.1313 -0.3796 -0.3031
  112bbb     O1 3247   6.009   8.485   9.356 -0.7744 -0.5112  0.4971
  113bbb     N1 3248   7.515   7.461  10.969  0.5361 -0.1994  0.0741
  113bbb     C1 3249   7.507   7.577  11.060 -0.5688 -0.2823  0.2128
  113bbb     H1 3250   7.413   7.632  11.064 -0.1329  0.3954  2.9429
  113bbb     H2 3251   7.592   7.638  11.026  0.4939 -1.5956  0.4107
  113bbb     C2 3252   7.648   7.395  10.953 -0.0888  0.3499  0.2520
  113bbb     H3 3253   7.638   7.311  10.883 -1.4731  0.4498  0.2915
  113bbb     H4 3254   7.671   7.342  11.046  0.8038 -0.6756 -0.5296
  113bbb     C3 3255   7.453   7.494  10.837  0.2078  1.0589 -0.1185
  113bbb     H5 3256   7.477   7.418  10.763 -0.4119  0.0861  0.6529
  113bbb     H6 3257   7.501   7.579  10.787 -0.7379  0.5961 -1.8887
  113bbb     C4 3258   7.293   7.508  10.837 -0.2303  0.0280 -0.1092
  113bbb     H7 3259   7.258   7.572  10.919  1.1720  1.2545 -0.4311
  113bbb     H8 3260   7.252   7.409  10.862 -1.6888  0.3290 -1.2219
  113bbb     C5 3261   7.545   7.545  11.208  0.1474 -0.7261 -0.5264
  113bbb     H9 3262   7.568   7.643  11.251  2.4619 -1.2051 -0.5781
  113bbb    H10 3263   7.637   7.486  11.204 -0.2602 -1.3086 -2.0623
  113bbb     C6 3264   7.757   7.486  10.896 -0.0472 -0.1279 -0.2236
  113bbb    H11 3265   7.779   7.565  10.969  0.4685 -0.1168 -0.3898
  113bbb    H12 3266   7.724   7.539  10.806 -2.9094  1.4837  1.5935
  113bbb     C7 3267   7.240   7.562  10.698 -0.1357 -0.0353 -1.2851
  113bbb    H13 3268   7.299   7.649  10.668  0.8561 -0.4634 -0.6456
  113bbb    H14 3269   7.134   7.591  10.705 -0.2404 -0.5024 -0.8448
  113bbb     C8 3270   7.895   7.406  10.873 -0.0677 -0.3732  0.4875
  113bbb    H15 3271   7.876   7.328  10.798 -2.8100  1.9136 -1.4225
  113bbb    H16 3272   7.922   7.360  10.969 -0.6132  0.3418  1.0015
  113bbb     C9 3273   7.433   7.473  11.280 -0.0101  0.2472 -0.4068
  113bbb    H17 3274   7.485   7.422  11.362 -1.0705 -1.2389 -0.6272
  113bbb    H18 3275   7.390   7.401  11.210  0.4701 -0.1149 -0.3383
  113bbb     O1 3276   7.269   7.462  10.595 -0.3300  0.2893 -0.2930
  114bbb     N1 3277   7.669   8.393  10.072 -0.2840 -0.5595  0.6009
  114bbb     C1 3278   7.576   8.508  10.090  0.0057 -0.6818  0.0443
  114bbb     H1 3279   7.477   8.471  10.060 -0.3940  0.0006  0.5013
  114bbb     H2 3280   7.606   8.590  10.024 -1.5985  1.0032  1.3037
  114bbb     C2 3281   7.815   8.435  10.071 -0.4519  0.5855 -0.0891
  114bbb     H3 3282   7.868   8.341  10.093  0.2430  0.3597 -2.4711
  114bbb     H4 3283   7.835   8.503  10.155 -1.1807  0.6939  0.0062
  114bbb     C3 3284   7.654   8.277  10.156 -0.6353 -0.1524 -0.5436
  114bbb     H5 3285   7.676   8.289  10.263  1.2069 -2.0764 -0.6273
  114bbb     H6 3286   7.730   8.199  10.138  0.5945  1.4606 -2.7055
  114bbb     C4 3287   7.514   8.219  10.154 -0.3279 -0.1249 -0.4793
  114bbb     H7 3288   7.486   8.220  10.048  0.5102 -0.1042 -0.7049
  114bbb     H8 3289   7.441   8.287  10.199 -2.0309 -1.6809 -0.7714
  114bbb     C5 3290   7.566   8.559  10.240 -0.0641 -0.5232 -0.3317
  114bbb     H9 3291   7.665   8.541  10.283 -1.0798 -3.5685  0.9665
  114bbb    H10 3292   7.501   8.489  10.294 -0.7877 -1.3865 -2.2373
  114bbb     C6 3293   7.863   8.504   9.938  0.0961 -0.3479 -0.1835
  114bbb    H11 3294   7.972   8.505   9.941  0.0707 -0.7735  1.9485
  114bbb    H12 3295   7.837   8.611   9.938 -1.0750 -0.5451 -2.7811
  114bbb     C7 3296   7.495   8.082  10.216  0.1606 -0.3337  0.6142
  114bbb    H13 3297   7.386   8.071  10.213  0.0216  0.8425  1.0059
  114bbb    H14 3298   7.526   8.072  10.321 -2.0285  2.9426  1.7530
  114bbb     C8 3299   7.796   8.435   9.811  0.2961  0.3882 -0.0152
  114bbb    H15 3300   7.689   8.457   9.802 -0.3113 -1.3728  2.0515
  114bbb    H16 3301   7.786   8.330   9.841 -0.2908  0.2669 -0.6015
  114bbb     C9 3302   7.534   8.695  10.281  0.2151  0.1742 -0.7143
  114bbb    H17 3303   7.592   8.751  10.208  1.7650  1.4223  1.3643
  114bbb    H18 3304   7.573   8.717  10.381  0.7566 -0.2791 -0.8214
  114bbb     O1 3305   7.556   7.977  10.140  0.1393  0.1448 -0.0613
  115bbb     N1 3306   5.771   7.425   8.830 -0.6009 -0.1186 -0.7429
  115bbb     C1 3307   5.738   7.549   8.907 -0.1872 -0.2458  0.1861
  115bbb     H1 3308   5.824   7.605   8.948 -1.3979  0.4380  1.8964
  115bbb     H2 3309   5.681   7.515   8.994  0.1909  0.0151  0.5419
  115bbb     C2 3310   5.645   7.360   8.777 -0.6346  0.2756 -0.2414
  115bbb     H3 3311   5.584   7.428   8.716  0.3529 -0.1426 -1.7535
  115bbb     H4 3312   5.585   7.330   8.864 -1.3574 -0.3767 -0.9539
  115bbb     C3 3313   5.866   7.342   8.911  0.3838  0.5496  0.3230
  115bbb     H5 3314   5.955   7.401   8.933  1.0084  0.0156 -0.7118
  115bbb     H6 3315   5.900   7.266   8.840 -0.4393  0.6333 -0.1820
  115bbb     C4 3316   5.818   7.281   9.045  0.0951  0.1219 -0.1084
  115bbb     H7 3317   5.738   7.209   9.023  1.6187 -1.9029  0.6632
  115bbb     H8 3318   5.778   7.352   9.119 -1.1691 -1.2164  0.5523
  115bbb     C5 3319   5.637   7.646   8.845  0.5442 -0.4646  0.4094
  115bbb     H9 3320   5.627   7.729   8.916  0.9367  0.8063 -0.9615
  115bbb    H10 3321   5.537   7.602   8.835  0.5452 -0.1182 -1.3855
  115bbb     C6 3322   5.674   7.225   8.698 -0.6184  0.1905 -0.1047
  115bbb    H11 3323   5.716   7.152   8.768 -1.5576 -2.0598 -1.7948
  115bbb    H12 3324   5.752   7.247   8.624 -1.1784 -1.2500 -1.1677
  115bbb     C7 3325   5.927   7.198   9.119  0.2225  0.0567 -0.1822
  115bbb    H13 3326   6.011   7.259   9.154  1.4246 -2.0773  0.8677
  115bbb    H14 3327   5.972   7.122   9.054 -0.0135 -1.3046  1.1726
  115bbb     C8 3328   5.557   7.167   8.614 -0.5098  0.2743 -0.6371
  115bbb    H15 3329   5.555   7.227   8.523  1.8867  0.6069 -0.5338
  115bbb    H16 3330   5.456   7.174   8.657 -0.9798  0.2573 -1.7134
  115bbb     C9 3331   5.673   7.695   8.701 -0.2982 -0.4038 -0.3630
  115bbb    H17 3332   5.682   7.603   8.642 -0.2669 -0.2836 -0.5428
  115bbb    H18 3333   5.773   7.740   8.696  0.2197 -1.4597  0.1526
  115bbb     O1 3334   5.874   7.117   9.231 -0.3697  0.4341  0.2489
  116bbb     N1 3335   5.411   6.265   9.583  0.0407  0.0799  0.5370
  116bbb     C1 3336   5.318   6.348   9.667  0.2751 -0.6174 -0.8979
  116bbb     H1 3337   5.264   6.288   9.742 -0.4187  0.0488 -0.8492
  116bbb     H2 3338   5.233   6.392   9.613  0.6728  0.0512 -0.9840
  116bbb     C2 3339   5.499   6.172   9.653  0.4911  0.0260 -0.3053
  116bbb     H3 3340   5.514   6.210   9.755 -0.7691  0.6900 -0.3499
  116bbb     H4 3341   5.590   6.150   9.595  1.2460  0.7860  0.5453
  116bbb     C3 3342   5.473   6.342   9.478 -0.4443 -0.0290  0.4734
  116bbb     H5 3343   5.557   6.397   9.521  0.8911 -2.7255  1.5602
  116bbb     H6 3344   5.397   6.414   9.447  2.3436  2.8296 -0.2460
  116bbb     C4 3345   5.517   6.251   9.358 -0.6792 -0.3267  0.1509
  116bbb     H7 3346   5.425   6.212   9.313 -0.8042 -0.2961  0.3768
  116bbb     H8 3347   5.584   6.173   9.395  0.2858  0.8603  0.9898
  116bbb     C5 3348   5.389   6.464   9.743  0.0330  0.0895  0.3245
  116bbb     H9 3349   5.436   6.533   9.672  1.2494 -1.1292 -0.0918
  116bbb    H10 3350   5.469   6.416   9.801  0.5677 -0.2859 -0.6884
  116bbb     C6 3351   5.426   6.043   9.666  0.2957 -0.1079 -0.4703
  116bbb    H11 3352   5.409   6.006   9.564 -2.2239 -1.8432  0.4707
  116bbb    H12 3353   5.330   6.062   9.717 -0.2498  0.9187 -1.7954
  116bbb     C7 3354   5.591   6.337   9.248 -0.4393  0.7863  0.4166
  116bbb    H13 3355   5.606   6.283   9.154  0.7753  1.2963  0.2973
  116bbb    H14 3356   5.695   6.356   9.278  0.0025  0.4883 -0.8460
  116bbb     C8 3357   5.518   5.948   9.750  0.1190  0.6835  0.2866
  116bbb    H15 3358   5.527   6.000   9.846  4.8446  0.6311  0.0654
  116bbb    H16 3359   5.622   5.936   9.720 -0.1398 -0.0098 -0.3707
  116bbb     C9 3360   5.301   6.540   9.842  0.3477 -0.2760  0.1555
  116bbb    H17 3361   5.365   6.597   9.911 -2.0789  3.5821 -0.4519
  116bbb    H18 3362   5.239   6.471   9.900 -1.3707  0.6371 -0.5117
  116bbb     O1 3363   5.514   6.457   9.222  0.1452  0.0414 -0.0199
  117bbb     N1 3364   5.732   7.283  10.938 -0.4681  0.0260 -0.1262
  117bbb     C1 3365   5.733   7.430  10.969  0.0941  0.4203  0.0670
  117bbb     H1 3366   5.833   7.473  10.976 -1.2589  4.0494 -0.5817
  117bbb     H2 3367   5.689   7.453  11.067 -2.6251  2.8648 -1.5453
  117bbb     C2 3368   5.593   7.226  10.932 -0.7058 -0.1825  0.1095
  117bbb     H3 3369   5.603   7.125  10.890  0.8473 -0.2115  0.5052
  117bbb     H4 3370   5.528   7.276  10.859  1.1428  0.3402 -1.2405
  117bbb     C3 3371   5.818   7.216  11.039 -0.1314 -0.1983 -0.5878
  117bbb     H5 3372   5.788   7.228  11.144  1.0875 -1.9652  0.0134
  117bbb     H6 3373   5.918   7.261  11.031  1.2711 -2.8932  0.2218
  117bbb     C4 3374   5.851   7.069  11.004  0.0409  0.6915  0.5918
  117bbb     H7 3375   5.892   7.062  10.902 -0.2585 -0.9497  0.5448
  117bbb     H8 3376   5.762   7.005  11.010 -0.3392  0.4898 -3.8804
  117bbb     C5 3377   5.651   7.524  10.876 -0.3937  0.2885 -0.5395
  117bbb     H9 3378   5.554   7.482  10.849  0.1228 -2.0564  0.9587
  117bbb    H10 3379   5.712   7.525  10.785 -1.0950 -1.3429 -1.0580
  117bbb     C6 3380   5.505   7.217  11.066 -0.5368 -0.0608  0.0713
  117bbb    H11 3381   5.560   7.165  11.145  0.8635  0.0676 -0.7933
  117bbb    H12 3382   5.417   7.154  11.047 -0.8338  0.4416 -0.2378
  117bbb     C7 3383   5.960   7.002  11.089  0.0351  0.3890  0.1650
  117bbb    H13 3384   5.929   6.974  11.190  3.0747  0.9325  1.3622
  117bbb    H14 3385   6.054   7.059  11.087 -0.3683  1.0735 -2.1868
  117bbb     C8 3386   5.448   7.354  11.113 -0.1469  0.1787  0.0642
  117bbb    H15 3387   5.472   7.439  11.048  2.5224  1.6728  2.7379
  117bbb    H16 3388   5.503   7.388  11.202 -1.0586  1.0890  0.2921
  117bbb     C9 3389   5.628   7.673  10.928 -0.0258  0.7592  0.0602
  117bbb    H17 3390   5.542   7.672  10.997 -2.3586 -1.4973 -2.6252
  117bbb    H18 3391   5.596   7.727  10.838 -1.1110 -1.5822 -1.0305
  117bbb     O1 3392   5.998   6.876  11.020 -0.0114 -0.6832 -0.5409
  118bbb     N1 3393   5.911   5.935  10.190  0.6885 -0.4415 -0.4543
  118bbb     C1 3394   5.843   5.837  10.290 -0.0342 -0.7128  0.4771
  118bbb     H1 3395   5.765   5.881  10.353  1.5884  0.7160  1.5763
  118bbb     H2 3396   5.928   5.809  10.353  0.4250  1.5845  0.9376
  118bbb     C2 3397   5.817   5.995  10.095  0.2257  0.5904 -0.3017
  118bbb     H3 3398   5.727   6.028  10.148  0.4596 -0.0984  0.5454
  118bbb     H4 3399   5.776   5.919  10.027  1.3904  0.7988 -1.2751
  118bbb     C3 3400   5.998   6.034  10.264  0.3572  0.6334  0.4336
  118bbb     H5 3401   6.070   6.089  10.202  0.9824 -0.2700  0.3253
  118bbb     H6 3402   6.058   5.972  10.331 -1.8239 -2.9212 -0.6366
  118bbb     C4 3403   5.923   6.126  10.356  0.4856 -0.2439 -0.2105
  118bbb     H7 3404   5.876   6.072  10.439 -0.0139  0.7945  0.2012
  118bbb     H8 3405   5.831   6.159  10.305  0.0968  1.1655  1.2898
  118bbb     C5 3406   5.787   5.705  10.231  0.6189 -0.5836 -0.0473
  118bbb     H9 3407   5.859   5.635  10.187 -0.3882 -2.7422  1.5404
  118bbb    H10 3408   5.723   5.735  10.147  1.0434 -0.4564 -0.3274
  118bbb     C6 3409   5.878   6.106  10.006  0.1853 -0.2727 -0.1537
  118bbb    H11 3410   5.977   6.075   9.969  2.2904  1.7746  3.1474
  118bbb    H12 3411   5.900   6.195  10.067 -0.9182  0.0814 -0.2567
  118bbb     C7 3412   6.002   6.246  10.423 -0.7827  0.0129  0.3328
  118bbb    H13 3413   6.010   6.327  10.350  2.2866  0.5813  1.1822
  118bbb    H14 3414   6.098   6.201  10.452 -0.8516 -0.7158 -0.5194
  118bbb     C8 3415   5.790   6.157   9.892 -0.1211  1.0207  0.6007
  118bbb    H15 3416   5.780   6.071   9.824 -3.2180  1.6285  0.1269
  118bbb    H16 3417   5.837   6.239   9.836 -0.1328 -0.2450 -1.3674
  118bbb     C9 3418   5.716   5.614  10.329 -0.1672  0.7050  0.0177
  118bbb    H17 3419   5.696   5.513  10.290  0.2004  0.7753 -0.3692
  118bbb    H18 3420   5.624   5.666  10.359 -0.9205  0.3789 -1.5794
  118bbb     O1 3421   5.930   6.291  10.540 -0.3751 -0.6394  0.4307
  119bbb     N1 3422   6.036   8.359   7.171  0.4526  0.5141  0.6524
  119bbb     C1 3423   6.085   8.228   7.121  0.0728  0.4640 -0.0055
  119bbb     H1 3424   6.048   8.206   7.021 -1.9292 -1.2983  1.0349
  119bbb     H2 3425   6.049   8.147   7.185  2.2009 -1.3279 -0.9628
  119bbb     C2 3426   5.886   8.373   7.165 -0.2864 -0.4540 -0.3402
  119bbb     H3 3427   5.852   8.471   7.200 -1.7426 -0.8538 -0.5873
  119bbb     H4 3428   5.830   8.296   7.220 -1.9096 -0.0041 -1.3080
  119bbb     C3 3429   6.086   8.393   7.302 -0.3634  0.2880 -0.0536
  119bbb     H5 3430   6.196   8.395   7.292 -0.5428 -0.2646 -3.4920
  119bbb     H6 3431   6.068   8.302   7.360 -0.2699 -0.0606 -0.5622
  119bbb     C4 3432   6.019   8.523   7.363  0.0933 -0.1903 -0.0028
  119bbb     H7 3433   5.912   8.517   7.382  0.3267 -0.5231  1.3421
  119bbb     H8 3434   6.025   8.607   7.294 -0.3344  1.0468  1.4219
  119bbb     C5 3435   6.241   8.208   7.105 -0.5507  0.5788  0.3442
  119bbb     H9 3436   6.289   8.223   7.202 -0.2110 -1.5947  0.5666
  119bbb    H10 3437   6.281   8.279   7.032  0.9893 -1.5786 -1.0318
  119bbb     C6 3438   5.831   8.376   7.017 -0.4896 -0.8526  0.4311
  119bbb    H11 3439   5.722   8.388   7.007 -0.2710  0.1097 -1.2565
  119bbb    H12 3440   5.840   8.275   6.975 -4.6998 -0.1884 -2.7516
  119bbb     C7 3441   6.087   8.567   7.490  0.0842  0.2477  0.8144
  119bbb    H13 3442   6.072   8.508   7.581  0.3666  1.7313  1.8635
  119bbb    H14 3443   6.056   8.669   7.515  0.6005  0.6622 -0.1531
  119bbb     C8 3444   5.898   8.492   6.937 -0.3598  0.2980 -0.0608
  119bbb    H15 3445   6.005   8.473   6.926 -0.6070 -0.3732 -1.4687
  119bbb    H16 3446   5.885   8.589   6.987  1.8185 -0.0282  1.2651
  119bbb     C9 3447   6.284   8.068   7.058 -0.1995 -0.8829 -0.0306
  119bbb    H17 3448   6.237   7.991   7.120 -0.8756 -0.7621 -0.3747
  119bbb    H18 3449   6.393   8.064   7.071  0.5471  3.0138 -3.1284
  119bbb     O1 3450   6.233   8.585   7.462 -0.2237 -0.4876 -0.1784
  120bbb     N1 3451   6.774   8.615   6.904 -0.0461 -0.0854 -0.7149
  120bbb     C1 3452   6.753   8.562   6.763 -0.2703  0.0069 -0.2653
  120bbb     H1 3453   6.805   8.467   6.751 -0.1394 -0.0259  0.4903
  120bbb     H2 3454   6.795   8.633   6.691 -0.9255  0.1812 -0.4897
  120bbb     C2 3455   6.702   8.738   6.939 -0.1914 -0.6408  0.0199
  120bbb     H3 3456   6.605   8.739   6.888 -0.8176 -1.0085  1.1677
  120bbb     H4 3457   6.754   8.822   6.892 -0.7376 -1.3791 -2.0563
  120bbb     C3 3458   6.915   8.601   6.952 -0.4457  0.5515 -0.5107
  120bbb     H5 3459   6.924   8.657   7.046  0.3433 -0.4369  0.0316
  120bbb     H6 3460   6.981   8.654   6.882  0.0020 -0.9669 -1.2964
  120bbb     C4 3461   6.967   8.458   6.980 -0.5292  0.2361  0.2489
  120bbb     H7 3462   7.058   8.463   7.042  1.1620  1.9254 -2.1628
  120bbb     H8 3463   7.002   8.421   6.883  0.5244  1.2144  0.2290
  120bbb     C5 3464   6.602   8.540   6.726 -0.6766 -0.3132 -0.5298
  120bbb     H9 3465   6.554   8.630   6.685 -1.8389 -0.1120  1.1627
  120bbb    H10 3466   6.550   8.519   6.820  0.2786 -0.4737 -0.0352
  120bbb     C6 3467   6.667   8.760   7.086  0.1919 -0.2286  0.1949
  120bbb    H11 3468   6.767   8.786   7.122  2.0612 -3.0787 -2.3820
  120bbb    H12 3469   6.648   8.662   7.132 -0.9988  0.8827  2.1904
  120bbb     C7 3470   6.858   8.365   7.029 -0.6914 -0.7838 -0.2291
  120bbb    H13 3471   6.908   8.271   7.057 -0.1428  0.1634  2.2491
  120bbb    H14 3472   6.780   8.350   6.953 -0.0225 -0.0379 -1.0865
  120bbb     C8 3473   6.552   8.868   7.108  0.4560 -0.4380  0.3589
  120bbb    H15 3474   6.530   8.851   7.214 -0.8475 -1.2542 -0.0268
  120bbb    H16 3475   6.471   8.847   7.037  1.2652  0.2743 -0.8143
  120bbb     C9 3476   6.580   8.425   6.635 -0.1936  0.5561  0.4818
  120bbb    H17 3477   6.471   8.411   6.626  0.1059 -1.5266 -0.5791
  120bbb    H18 3478   6.608   8.333   6.686 -2.4353  1.5007  3.7814
  120bbb     O1 3479   6.806   8.427   7.148  0.2484 -0.1778 -0.0065
  121bbb     N1 3480   4.757   8.163   7.892  0.1077  0.4986 -0.7606
  121bbb     C1 3481   4.695   8.036   7.861  0.9771 -0.6177  0.0737
  121bbb     H1 3482   4.591   8.037   7.895  1.1909 -1.8230  0.8427
  121bbb     H2 3483   4.737   7.949   7.913 -1.8500 -1.9817  0.2738
  121bbb     C2 3484   4.718   8.206   8.033 -0.3394 -0.5721 -0.6705
  121bbb     H3 3485   4.806   8.175   8.091  0.0786  1.4200 -0.1544
  121bbb     H4 3486   4.633   8.146   8.066 -1.2472  0.3745 -1.2165
  121bbb     C3 3487   4.904   8.163   7.877 -0.0769 -0.3024  0.1596
  121bbb     H5 3488   4.941   8.060   7.868  0.3110 -0.1303 -0.2242
  121bbb     H6 3489   4.961   8.206   7.961  0.7801 -1.4820  0.2051
  121bbb     C4 3490   4.943   8.229   7.743  0.3336  0.0985 -0.2475
  121bbb     H7 3491   4.879   8.200   7.658  2.0122 -1.8257 -0.9522
  121bbb     H8 3492   5.047   8.205   7.718  0.8531  1.8467  0.1677
  121bbb     C5 3493   4.701   7.989   7.713 -0.0980 -0.3496 -0.2409
  121bbb     H9 3494   4.806   7.976   7.683 -0.3479  0.9055 -1.8252
  121bbb    H10 3495   4.661   8.070   7.652  0.7642 -0.6290 -1.2138
  121bbb     C6 3496   4.687   8.362   8.050  0.1077  0.3643  0.2762
  121bbb    H11 3497   4.628   8.349   7.959  1.0052  1.5868 -0.5048
  121bbb    H12 3498   4.771   8.393   7.987 -0.4819  0.8533 -0.2708
  121bbb     C7 3499   4.943   8.383   7.739 -0.2583  0.5763 -0.2132
  121bbb    H13 3500   4.841   8.423   7.755  0.0551  1.3848 -0.2013
  121bbb    H14 3501   4.990   8.414   7.645  1.0456 -0.4852  0.0595
  121bbb     C8 3502   4.608   8.522   8.242  0.1792  0.1973 -0.3187
  121bbb    H15 3503   4.506   8.508   8.282 -0.0021  1.1933 -0.4090
  121bbb    H16 3504   4.598   8.628   8.218  0.1155  0.2487 -0.0673
  121bbb     C9 3505   4.627   7.861   7.670  0.3275  0.0218  0.1830
  121bbb    H17 3506   4.635   7.845   7.561 -1.6812  0.9061 -0.1391
  121bbb    H18 3507   4.520   7.877   7.684  0.6096  1.1470  1.1429
  121bbb     O1 3508   5.026   8.426   7.842 -0.3219  0.0440  0.1183
  122bbb     N1 3509   5.236   9.611   8.356  0.3893 -0.2943 -0.1542
  122bbb     C1 3510   5.136   9.672   8.263  0.1787  0.0281  0.1586
  122bbb     H1 3511   5.052   9.715   8.319 -0.4104 -0.7761 -0.0871
  122bbb     H2 3512   5.086   9.602   8.194  1.3749  0.0044 -0.7001
  122bbb     C2 3513   5.296   9.713   8.449 -0.0913 -0.3164  0.1052
  122bbb     H3 3514   5.364   9.778   8.394  0.5386 -0.2226  0.9733
  122bbb     H4 3515   5.362   9.661   8.519 -0.5006  0.3835  1.0463
  122bbb     C3 3516   5.174   9.499   8.427 -0.6841  0.1493 -0.4242
  122bbb     H5 3517   5.078   9.533   8.468  0.1532 -1.4081  3.1912
  122bbb     H6 3518   5.243   9.465   8.504  0.9637 -1.7362 -2.6251
  122bbb     C4 3519   5.146   9.374   8.343  0.0565 -0.2560 -0.0811
  122bbb     H7 3520   5.235   9.360   8.281 -0.2162 -3.7346  0.1488
  122bbb     H8 3521   5.068   9.380   8.266  0.1738 -1.7047 -0.3377
  122bbb     C5 3522   5.193   9.776   8.170  0.2865  0.6305  0.0885
  122bbb     H9 3523   5.244   9.713   8.096 -1.3667 -2.4764  1.3987
  122bbb    H10 3524   5.262   9.837   8.230 -1.7650  2.0628  1.1120
  122bbb     C6 3525   5.200   9.808   8.515 -0.7428  0.5472 -0.1539
  122bbb    H11 3526   5.136   9.746   8.580 -1.7110  1.0894 -0.5647
  122bbb    H12 3527   5.137   9.862   8.443  0.9855  0.8094 -1.5169
  122bbb     C7 3528   5.128   9.250   8.431  0.1019  0.0346 -0.5890
  122bbb    H13 3529   5.029   9.268   8.474 -0.6289  1.3322 -2.6350
  122bbb    H14 3530   5.209   9.246   8.504 -0.0305 -1.4994 -0.4920
  122bbb     C8 3531   5.276   9.912   8.600  0.4984 -0.8187 -0.1998
  122bbb    H15 3532   5.202   9.983   8.640  0.5678  0.6251 -2.5109
  122bbb    H16 3533   5.348   9.963   8.535 -1.2136  0.4962 -1.1526
  122bbb     C9 3534   5.088   9.864   8.106 -0.5723  0.0297  0.3792
  122bbb    H17 3535   5.096   9.960   8.160 -0.0817 -0.3899  1.0642
  122bbb    H18 3536   4.988   9.821   8.119 -0.2651 -0.8406 -0.0781
  122bbb     O1 3537   5.124   9.135   8.346  0.3103  0.2720  0.5186
  123bbb     N1 3538   5.881   5.850   8.353  0.1975  0.3359 -0.2373
  123bbb     C1 3539   6.010   5.867   8.424 -0.3175 -0.0675  0.2612
  123bbb     H1 3540   5.998   5.879   8.532  2.7781 -1.7439  0.8944
  123bbb     H2 3541   6.061   5.953   8.380  1.5487 -1.2714 -0.0467
  123bbb     C2 3542   5.774   5.936   8.410 -0.0228 -0.1022  0.2988
  123bbb     H3 3543   5.759   6.014   8.334 -0.0058 -0.1960  0.2001
  123bbb     H4 3544   5.807   5.987   8.501 -1.8700  0.6476  0.6033
  123bbb     C3 3545   5.900   5.835   8.207  0.2277 -0.0299 -0.3186
  123bbb     H5 3546   5.940   5.734   8.193  1.1054  0.3951 -0.9819
  123bbb     H6 3547   5.970   5.914   8.177 -1.2585  1.4227 -0.1084
  123bbb     C4 3548   5.773   5.846   8.112 -0.2853  0.1717 -0.6953
  123bbb     H7 3549   5.704   5.924   8.146  0.4993 -0.5242  2.9581
  123bbb     H8 3550   5.728   5.746   8.117  2.1939 -0.9965  0.5365
  123bbb     C5 3551   6.105   5.744   8.410 -0.2244  0.3120 -0.6397
  123bbb     H9 3552   6.192   5.747   8.477 -1.5012  0.1145  1.0974
  123bbb    H10 3553   6.149   5.738   8.310  2.5585  0.2436  0.5019
  123bbb     C6 3554   5.644   5.853   8.440 -0.0670 -0.1439 -0.7999
  123bbb    H11 3555   5.594   5.817   8.349 -1.5249 -0.7845  0.2211
  123bbb    H12 3556   5.568   5.913   8.491  0.3491  0.4257 -0.8400
  123bbb     C7 3557   5.814   5.886   7.968 -0.0478  0.3907  0.0227
  123bbb    H13 3558   5.885   5.819   7.918 -1.3381 -0.0828 -1.2575
  123bbb    H14 3559   5.850   5.990   7.973 -3.2970  1.6846 -0.3853
  123bbb     C8 3560   5.675   5.721   8.515  0.1512  0.2979 -0.5129
  123bbb    H15 3561   5.710   5.748   8.616 -1.2370  0.7742 -0.1314
  123bbb    H16 3562   5.751   5.670   8.455  0.1820  0.6223 -0.7516
  123bbb     C9 3563   6.044   5.604   8.451 -0.3178 -0.2513 -0.2456
  123bbb    H17 3564   5.938   5.592   8.425 -0.3442 -0.6528  0.0260
  123bbb    H18 3565   6.039   5.589   8.560 -0.8432  2.6565  0.2034
  123bbb     O1 3566   5.695   5.906   7.892 -0.3574  0.3062  0.1412
  124bbb     N1 3567   5.707   5.862   6.956  0.1112  0.0306  0.2671
  124bbb     C1 3568   5.768   5.801   6.833  0.0958 -0.0996 -0.7509
  124bbb     H1 3569   5.854   5.743   6.871 -0.6655 -0.2824  0.7634
  124bbb     H2 3570   5.800   5.881   6.765 -0.0165  1.5660  1.1018
  124bbb     C2 3571   5.567   5.918   6.940  0.1987 -0.4044 -0.1529
  124bbb     H3 3572   5.509   5.830   6.909  0.1543 -0.0448 -1.1391
  124bbb     H4 3573   5.566   5.995   6.862  0.9350  1.5269  1.6540
  124bbb     C3 3574   5.804   5.946   7.029 -0.8369 -0.1253 -0.1301
  124bbb     H5 3575   5.904   5.899   7.021  0.0015  1.6448 -0.4813
  124bbb     H6 3576   5.773   5.944   7.134 -0.2470  0.3115  0.0577
  124bbb     C4 3577   5.826   6.092   6.975 -0.4130 -0.4316 -0.0705
  124bbb     H7 3578   5.731   6.147   6.975 -0.0726  0.5092 -4.2280
  124bbb     H8 3579   5.854   6.086   6.869  1.4819  1.4901  0.2369
  124bbb     C5 3580   5.680   5.700   6.769 -0.0829 -0.3989 -0.3003
  124bbb     H9 3581   5.591   5.736   6.716  1.1713  0.3609 -1.9961
  124bbb    H10 3582   5.650   5.628   6.846  0.0911  3.2621  3.5358
  124bbb     C6 3583   5.507   5.963   7.085 -0.5143 -0.3029  0.9873
  124bbb    H11 3584   5.552   6.058   7.116  1.8428 -0.6645 -1.0294
  124bbb    H12 3585   5.535   5.884   7.155 -0.2050 -2.6927 -1.6589
  124bbb     C7 3586   5.936   6.162   7.060  0.3201  0.0877 -0.6989
  124bbb    H13 3587   5.965   6.260   7.020  0.3755 -0.4626 -2.0721
  124bbb    H14 3588   6.033   6.111   7.051  0.2887 -0.0382 -0.3355
  124bbb     C8 3589   5.354   5.971   7.086  0.0551  0.3667 -0.5545
  124bbb    H15 3590   5.326   6.004   7.187  0.7517  1.9374 -0.8476
  124bbb    H16 3591   5.323   5.866   7.075 -0.3640 -0.0058  2.9408
  124bbb     C9 3592   5.764   5.626   6.665  0.2479 -0.2712  0.6810
  124bbb    H17 3593   5.852   5.577   6.709  0.4278 -1.6359 -1.1016
  124bbb    H18 3594   5.804   5.700   6.595  0.1024 -0.1678  0.7052
  124bbb     O1 3595   5.905   6.179   7.198 -0.0799 -0.4866  0.4341
  125bbb     N1 3596   4.727   6.554   9.173  0.0844  0.1579 -0.0712
  125bbb     C1 3597   4.607   6.469   9.146 -0.1529 -0.3019 -0.6268
  125bbb     H1 3598   4.542   6.521   9.075 -2.1521 -0.7954  0.7521
  125bbb     H2 3599   4.550   6.456   9.239 -1.7583 -0.5748 -1.6118
  125bbb     C2 3600   4.693   6.658   9.276  0.7089  0.0448 -0.1878
  125bbb     H3 3601   4.656   6.609   9.366 -0.0618 -2.3579 -1.7260
  125bbb     H4 3602   4.612   6.720   9.235 -1.1092 -1.7677  0.5035
  125bbb     C3 3603   4.811   6.604   9.057  1.3143  0.2029  0.1254
  125bbb     H5 3604   4.839   6.517   8.995 -0.0502 -0.5068  0.4718
  125bbb     H6 3605   4.905   6.645   9.097 -0.8140  2.1375  3.5717
  125bbb     C4 3606   4.738   6.701   8.963 -0.6385 -0.1598 -0.0859
  125bbb     H7 3607   4.748   6.803   9.002  0.1343 -0.2722  0.0177
  125bbb     H8 3608   4.631   6.677   8.953 -0.4046 -1.6995  0.8414
  125bbb     C5 3609   4.639   6.334   9.082 -0.3980 -1.1484  0.1526
  125bbb     H9 3610   4.713   6.352   9.002 -0.5885 -2.5573 -0.3622
  125bbb    H10 3611   4.541   6.304   9.045 -1.0559  0.7865  0.1893
  125bbb     C6 3612   4.809   6.762   9.314  0.3117 -0.7461  0.3924
  125bbb    H11 3613   4.840   6.811   9.221 -1.2341  0.0504  0.2620
  125bbb    H12 3614   4.894   6.708   9.358  0.7626  1.1124  1.9355
  125bbb     C7 3615   4.795   6.685   8.826 -0.1556  0.0093 -0.3777
  125bbb    H13 3616   4.742   6.606   8.772 -0.5018 -0.5074  0.6912
  125bbb    H14 3617   4.899   6.651   8.830 -0.7211 -1.7036  1.3881
  125bbb     C8 3618   4.764   6.870   9.417 -0.1011 -0.3816  0.5257
  125bbb    H15 3619   4.716   6.818   9.501  0.9946  2.4507  3.1467
  125bbb    H16 3620   4.686   6.929   9.369 -0.1200 -1.0700 -0.3045
  125bbb     C9 3621   4.697   6.233   9.180  0.1774  0.4481  0.4880
  125bbb    H17 3622   4.648   6.241   9.277 -0.7738  0.5889  0.0064
  125bbb    H18 3623   4.803   6.258   9.199  0.2743  0.3956  0.0255
  125bbb     O1 3624   4.789   6.812   8.760 -0.1229  0.1094  0.1980
  126bbb     N1 3625   4.141   7.216   8.175 -0.0161  0.0687 -0.4030
  126bbb     C1 3626   4.238   7.315   8.240 -1.0468 -0.2684  0.0462
  126bbb     H1 3627   4.340   7.274   8.237  0.8114  3.8888  0.4286
  126bbb     H2 3628   4.207   7.327   8.344  1.8642 -0.0331  0.9779
  126bbb     C2 3629   4.006   7.273   8.131 -0.0947 -0.2343  1.3250
  126bbb     H3 3630   4.002   7.373   8.175  1.1726 -0.1438  1.2527
  126bbb     H4 3631   3.919   7.209   8.154 -0.8562  0.0726 -0.5508
  126bbb     C3 3632   4.140   7.091   8.260  0.3208 -0.5100  0.2455
  126bbb     H5 3633   4.081   7.120   8.348  0.1698  2.0048 -0.5985
  126bbb     H6 3634   4.245   7.070   8.283  0.8241  0.5839 -0.9530
  126bbb     C4 3635   4.074   6.969   8.190  0.1512  0.4943  0.0286
  126bbb     H7 3636   4.153   6.951   8.116 -0.2940  0.9700 -0.5702
  126bbb     H8 3637   3.978   6.986   8.140  1.1421  0.8961 -1.8377
  126bbb     C5 3638   4.239   7.458   8.189 -0.3214 -0.5483 -0.0178
  126bbb     H9 3639   4.149   7.514   8.219 -0.1789 -0.1423 -0.3364
  126bbb    H10 3640   4.242   7.465   8.080  1.6689  0.7893  0.0689
  126bbb     C6 3641   4.002   7.296   7.970  0.1007 -0.0932 -0.7841
  126bbb    H11 3642   3.976   7.203   7.917 -0.0509  0.3668 -1.5258
  126bbb    H12 3643   4.103   7.326   7.941 -0.2827  0.3173 -1.7148
  126bbb     C7 3644   4.059   6.855   8.291 -0.0327  0.2721  0.1596
  126bbb    H13 3645   4.000   6.771   8.252  0.3191 -0.9470  2.1338
  126bbb    H14 3646   3.996   6.895   8.370 -2.1107  1.5207 -1.9842
  126bbb     C8 3647   3.906   7.413   7.940 -0.1379  0.5266 -0.1298
  126bbb    H15 3648   3.929   7.509   7.988  2.4200  0.0577 -0.2530
  126bbb    H16 3649   3.806   7.375   7.964  0.5285 -0.7262  0.7922
  126bbb     C9 3650   4.366   7.536   8.250  0.4691  0.1826 -0.1995
  126bbb    H17 3651   4.347   7.562   8.355  0.4028  0.5394 -0.2986
  126bbb    H18 3652   4.371   7.639   8.212  0.9080  0.6297  1.0108
  126bbb     O1 3653   4.196   6.806   8.307  0.2822  0.0519 -0.2310
  127bbb     N1 3654  10.518   6.578  11.015 -0.8285  0.2218  0.4846
  127bbb     C1 3655  10.420   6.671  10.951 -0.6236 -0.5718  0.4597
  127bbb     H1 3656  10.340   6.634  10.887 -0.6108 -0.8743  0.6212
  127bbb     H2 3657  10.471   6.740  10.882 -2.7209  0.7726  0.1694
  127bbb     C2 3658  10.549   6.471  10.920  0.2268  0.1462  0.6377
  127bbb     H3 3659  10.577   6.506  10.820  0.6347 -1.5376  0.1291
  127bbb     H4 3660  10.463   6.406  10.901 -0.1935  0.9793 -0.3958
  127bbb     C3 3661  10.637   6.639  11.073 -0.7865  0.1028 -0.2005
  127bbb     H5 3662  10.690   6.563  11.132  0.0996 -0.0166 -1.1142
  127bbb     H6 3663  10.606   6.710  11.150  1.7353  3.0153 -1.6454
  127bbb     C4 3664  10.725   6.712  10.966  0.1815  0.4308  0.1268
  127bbb     H7 3665  10.716   6.666  10.867  0.2628  0.9877 -0.1426
  127bbb     H8 3666  10.828   6.691  10.996  0.5419  2.4443  0.4379
  127bbb     C5 3667  10.348   6.763  11.056  0.1858  0.3462  0.5183
  127bbb     H9 3668  10.419   6.825  11.112  0.9447 -0.9865  1.0820
  127bbb    H10 3669  10.300   6.689  11.122  2.1164 -1.7886 -0.3387
  127bbb     C6 3670  10.668   6.377  10.963 -0.2879 -0.4036 -0.4534
  127bbb    H11 3671  10.679   6.373  11.072 -0.5233  2.2943 -0.2569
  127bbb    H12 3672  10.763   6.417  10.927  0.2283  0.5536  1.8136
  127bbb     C7 3673  10.705   6.868  10.974 -0.4930  0.3272 -0.1126
  127bbb    H13 3674  10.741   6.896  11.074 -2.2684  0.5080  0.5131
  127bbb    H14 3675  10.599   6.893  10.959 -0.1308  1.4646 -1.0167
  127bbb     C8 3676  10.650   6.229  10.911 -0.1840  0.4047 -0.1029
  127bbb    H15 3677  10.557   6.196  10.959 -0.9401  0.6788 -1.3231
  127bbb    H16 3678  10.732   6.164  10.943  0.3749  1.4450  0.6314
  127bbb     C9 3679  10.237   6.859  11.007  1.2251  0.8354  0.2724
  127bbb    H17 3680  10.199   6.823  10.910 -0.1504 -3.2291  2.0799
  127bbb    H18 3681  10.291   6.953  10.996  1.1043  0.6847 -2.3464
  127bbb     O1 3682  10.796   6.944  10.886  0.1519  0.5161 -1.1225
  128bbb     N1 3683  11.248   7.098   9.876  0.4412  0.5242 -0.0270
  128bbb     C1 3684  11.288   7.246   9.874 -0.2559  0.4973  0.0570
  128bbb     H1 3685  11.305   7.268   9.980 -1.0888  0.8696  0.1262
  128bbb     H2 3686  11.204   7.310   9.844  0.1182  1.5570  1.1894
  128bbb     C2 3687  11.201   7.052   9.742 -0.0080  0.5231 -0.1564
  128bbb     H3 3688  11.275   7.084   9.668  1.4336 -0.0619  0.9705
  128bbb     H4 3689  11.105   7.103   9.734 -1.0193 -0.4204  3.8181
  128bbb     C3 3690  11.161   7.062   9.989  0.6612 -0.1783 -0.3502
  128bbb     H5 3691  11.210   7.097  10.080 -0.0793  1.2155 -0.4606
  128bbb     H6 3692  11.154   6.952   9.991  0.9110 -0.2029 -0.6743
  128bbb     C4 3693  11.022   7.131   9.981 -0.2703  0.0601  0.4521
  128bbb     H7 3694  10.963   7.080   9.904  0.2447 -0.6137  0.4972
  128bbb     H8 3695  11.027   7.230   9.935 -1.2679 -0.2950 -0.4352
  128bbb     C5 3696  11.409   7.285   9.793 -0.3972 -0.9537 -0.4674
  128bbb     H9 3697  11.372   7.322   9.696  0.1883 -2.4072 -1.2879
  128bbb    H10 3698  11.473   7.196   9.790  1.8508  0.5968 -0.4762
  128bbb     C6 3699  11.189   6.898   9.725 -0.0720  0.2704 -0.5040
  128bbb    H11 3700  11.122   6.872   9.643 -0.5904  0.9163 -0.2915
  128bbb    H12 3701  11.134   6.857   9.810 -0.5301  1.4332 -0.2263
  128bbb     C7 3702  10.949   7.114  10.109 -0.0094  0.2323  0.8043
  128bbb    H13 3703  10.856   7.171  10.096 -0.8234 -1.2887 -0.2521
  128bbb    H14 3704  11.007   7.165  10.188 -0.6198  1.2047  0.6451
  128bbb     C8 3705  11.326   6.818   9.725 -0.1424  0.2110 -0.3453
  128bbb    H15 3706  11.316   6.763   9.819  0.0961 -0.3842 -0.6588
  128bbb    H16 3707  11.410   6.889   9.722 -0.2009  0.3163  0.3906
  128bbb     C9 3708  11.499   7.395   9.854  0.4662  0.4425 -0.6345
  128bbb    H17 3709  11.544   7.356   9.946 -2.2087 -0.8216  0.2462
  128bbb    H18 3710  11.429   7.475   9.879 -1.7068 -1.2127 -1.0505
  128bbb     O1 3711  10.933   6.974  10.141 -0.1084  0.0655 -0.0723
  129bbb     N1 3712   9.360   5.235  10.078  0.4141 -0.5771  0.1389
  129bbb     C1 3713   9.310   5.096  10.094  0.3542 -0.1753  0.2277
  129bbb     H1 3714   9.385   5.054  10.163  1.3864 -1.1976 -1.4403
  129bbb     H2 3715   9.316   5.048   9.996  0.5295  0.4278 -0.0638
  129bbb     C2 3716   9.371   5.309  10.208  0.7847 -0.3458 -0.0331
  129bbb     H3 3717   9.425   5.250  10.284 -0.0324  0.1202  0.9353
  129bbb     H4 3718   9.270   5.324  10.247  0.6284  0.7415 -0.8192
  129bbb     C3 3719   9.478   5.246   9.985 -0.6071  0.9223 -0.2529
  129bbb     H5 3720   9.488   5.353   9.960 -1.7839  0.7245 -1.7321
  129bbb     H6 3721   9.465   5.203   9.885 -0.5100  2.1399 -0.8106
  129bbb     C4 3722   9.618   5.200  10.044 -0.0603  0.3240 -0.1596
  129bbb     H7 3723   9.599   5.098  10.081  0.9897  0.8116  1.8600
  129bbb     H8 3724   9.641   5.259  10.134 -0.0435  0.3159 -0.1588
  129bbb     C5 3725   9.173   5.068  10.167 -0.1756 -0.2590 -0.1245
  129bbb     H9 3726   9.188   5.090  10.273 -0.2094 -0.7293 -0.0192
  129bbb    H10 3727   9.154   4.960  10.167 -0.7040 -0.1873  1.3925
  129bbb     C6 3728   9.425   5.459  10.195  0.4302  0.5273 -0.7262
  129bbb    H11 3729   9.365   5.510  10.119  1.6849  1.4203 -1.1677
  129bbb    H12 3730   9.525   5.458  10.150  0.8389 -0.0563  0.1748
  129bbb     C7 3731   9.728   5.198   9.937 -0.1036  0.2215 -0.6461
  129bbb    H13 3732   9.684   5.151   9.848  0.0785 -0.4181 -0.4000
  129bbb    H14 3733   9.810   5.138   9.978 -1.6873 -2.2782 -0.9247
  129bbb     C8 3734   9.428   5.526  10.338 -0.1568 -0.2579 -0.0492
  129bbb    H15 3735   9.459   5.448  10.409 -1.2425 -0.9727 -0.3240
  129bbb    H16 3736   9.511   5.596  10.350  0.4883 -0.7827 -1.2513
  129bbb     C9 3737   9.050   5.136  10.096  0.1737  0.7395 -0.0991
  129bbb    H17 3738   9.062   5.102   9.992  1.0313  0.4319  0.0900
  129bbb    H18 3739   9.053   5.245  10.106  1.6036  0.6394  0.8220
  129bbb     O1 3740   9.776   5.326   9.892  0.4269  0.3801 -0.1895
  130bbb     N1 3741   9.577   5.298   9.161 -0.3980  0.3996  0.4261
  130bbb     C1 3742   9.620   5.173   9.115  0.0153  0.3367  0.8030
  130bbb     H1 3743   9.546   5.098   9.144  0.5964 -0.3576  0.5034
  130bbb     H2 3744   9.718   5.147   9.157  1.2265  2.0174 -0.8385
  130bbb     C2 3745   9.432   5.324   9.137 -0.0523 -0.3751 -0.6416
  130bbb     H3 3746   9.384   5.227   9.154  0.2213 -0.6521 -1.3833
  130bbb     H4 3747   9.421   5.358   9.033  0.3996 -0.0119 -0.5747
  130bbb     C3 3748   9.659   5.412   9.126 -0.8097  0.0062  0.0389
  130bbb     H5 3749   9.616   5.490   9.190 -0.9676 -1.4896  1.8576
  130bbb     H6 3750   9.655   5.437   9.020 -1.2613 -0.1685  0.0130
  130bbb     C4 3751   9.806   5.403   9.179 -0.4199  0.1159  0.6567
  130bbb     H7 3752   9.870   5.370   9.096  1.0711  1.2060  1.3164
  130bbb     H8 3753   9.817   5.331   9.260  0.4972 -0.1237  0.3334
  130bbb     C5 3754   9.633   5.173   8.960  0.5227 -0.1363 -0.2794
  130bbb     H9 3755   9.709   5.239   8.915 -1.7341  1.7374 -1.5965
  130bbb    H10 3756   9.539   5.217   8.925  0.4459  0.6375  0.8390
  130bbb     C6 3757   9.356   5.423   9.225  0.1668  0.2817  0.2280
  130bbb    H11 3758   9.411   5.516   9.246 -1.0317  0.6443  1.9650
  130bbb    H12 3759   9.357   5.377   9.325 -0.4648  2.3216  1.2275
  130bbb     C7 3760   9.865   5.539   9.220  0.8552  0.1639  0.2701
  130bbb    H13 3761   9.857   5.621   9.148 -0.2995 -0.2830 -0.1289
  130bbb    H14 3762   9.971   5.516   9.236  0.7234 -3.5560 -2.6748
  130bbb     C8 3763   9.214   5.452   9.175  0.1294  0.2684  0.0892
  130bbb    H15 3764   9.154   5.521   9.237 -0.4725  0.3324 -0.5500
  130bbb    H16 3765   9.156   5.359   9.166 -0.7387  0.5498  2.1136
  130bbb     C9 3766   9.656   5.037   8.897 -0.2266 -0.4872  0.2723
  130bbb    H17 3767   9.592   4.957   8.935 -0.3236 -0.2000  0.7181
  130bbb    H18 3768   9.756   5.003   8.925  0.3106  1.0271  0.2781
  130bbb     O1 3769   9.796   5.569   9.341 -0.6938  0.8140 -0.2135
  131bbb     N1 3770   8.011   7.931  10.279  0.2748 -0.2642 -0.0418
  131bbb     C1 3771   8.099   7.955  10.166 -0.4646 -0.3171  0.0182
  131bbb     H1 3772   8.064   7.891  10.084 -0.5405 -0.9410  0.5322
  131bbb     H2 3773   8.199   7.917  10.189 -0.3669  0.2359  0.5094
  131bbb     C2 3774   7.866   7.972  10.268 -0.0125  0.8738 -0.3412
  131bbb     H3 3775   7.804   7.901  10.212  0.9279  1.7699 -2.6379
  131bbb     H4 3776   7.856   8.057  10.199  0.0896 -0.1189 -1.6192
  131bbb     C3 3777   8.009   7.788  10.328  0.2652  0.2245 -0.3773
  131bbb     H5 3778   7.950   7.729  10.256 -1.8990  3.6329 -1.6522
  131bbb     H6 3779   7.950   7.779  10.420  0.1205 -2.0957 -0.6342
  131bbb     C4 3780   8.148   7.731  10.359 -0.9755  0.4208  0.7010
  131bbb     H7 3781   8.202   7.722  10.264 -0.7114  2.2482  0.6459
  131bbb     H8 3782   8.136   7.628  10.395 -1.7504  0.8363  1.6819
  131bbb     C5 3783   8.105   8.099  10.118  0.5740 -0.8618 -0.0161
  131bbb     H9 3784   8.007   8.136  10.087  1.4673  1.5585 -0.1788
  131bbb    H10 3785   8.164   8.103  10.025  0.2244  0.0274 -0.2020
  131bbb     C6 3786   7.806   8.025  10.403 -0.5727  0.2858 -0.4284
  131bbb    H11 3787   7.826   7.962  10.490 -0.6324  0.6529 -0.1427
  131bbb    H12 3788   7.698   8.027  10.381  0.0300 -0.5646 -3.9596
  131bbb     C7 3789   8.232   7.815  10.460  0.0559  0.3560  1.0219
  131bbb    H13 3790   8.175   7.839  10.550  0.7324  0.7161  1.3586
  131bbb    H14 3791   8.262   7.912  10.418  0.7552  0.4901  1.8111
  131bbb     C8 3792   7.865   8.162  10.433 -0.2161 -1.2718 -0.3856
  131bbb    H15 3793   7.865   8.220  10.340 -0.8399 -0.2220  0.2512
  131bbb    H16 3794   7.971   8.145  10.455 -0.0143  1.0637  0.7477
  131bbb     C9 3795   8.166   8.199  10.216 -0.3756 -0.0505 -0.7506
  131bbb    H17 3796   8.275   8.187  10.207 -0.0745  0.1956  1.7822
  131bbb    H18 3797   8.134   8.173  10.318  0.7328 -0.7426 -0.5514
  131bbb     O1 3798   8.352   7.746  10.502 -0.1264 -0.3384  0.4674
  132bbb     N1 3799   8.806   8.071  11.417 -0.1792 -0.5343  0.1854
  132bbb     C1 3800   8.844   8.127  11.287 -0.4171 -0.5493  0.1079
  132bbb     H1 3801   8.753   8.154  11.232 -1.4510 -1.3237  1.3728
  132bbb     H2 3802   8.902   8.065  11.218  1.3858  0.7688  0.3679
  132bbb     C2 3803   8.692   8.145  11.473  0.0300  0.0582 -0.4495
  132bbb     H3 3804   8.601   8.137  11.411 -1.2198  1.7435  1.0695
  132bbb     H4 3805   8.716   8.252  11.473 -0.6056  0.2472  1.7394
  132bbb     C3 3806   8.799   7.925  11.419  0.2895 -0.2080 -0.2505
  132bbb     H5 3807   8.797   7.882  11.520 -1.1609  0.7026  0.1482
  132bbb     H6 3808   8.889   7.895  11.365  0.7240  0.8645 -0.1361
  132bbb     C4 3809   8.686   7.863  11.335 -0.0238  0.2573 -0.2666
  132bbb     H7 3810   8.690   7.909  11.235 -1.8871  2.3179  0.5269
  132bbb     H8 3811   8.583   7.884  11.364  0.2469  0.8512  0.3011
  132bbb     C5 3812   8.924   8.262  11.306 -0.6116 -0.8121  0.2395
  132bbb     H9 3813   9.015   8.241  11.364 -0.6921 -0.7900  0.3768
  132bbb    H10 3814   8.869   8.335  11.367 -1.4509 -0.2321 -1.1724
  132bbb     C6 3815   8.641   8.111  11.614  0.3660  0.4920 -0.1991
  132bbb    H11 3816   8.624   8.003  11.619 -0.7503  0.6521 -0.2801
  132bbb    H12 3817   8.542   8.156  11.625  1.3095  2.3136  1.4083
  132bbb     C7 3818   8.710   7.716  11.309  0.5120  0.2951  0.3253
  132bbb    H13 3819   8.689   7.662  11.403 -0.3247  0.3159  0.1545
  132bbb    H14 3820   8.811   7.707  11.267  0.8149  1.5029  0.7415
  132bbb     C8 3821   8.735   8.168  11.720 -0.6658 -0.5565 -0.0798
  132bbb    H15 3822   8.731   8.277  11.706  0.7735 -0.4204  0.3394
  132bbb    H16 3823   8.834   8.142  11.681 -2.4692 -1.8456 -4.4315
  132bbb     C9 3824   8.979   8.328  11.176 -0.4748 -0.1311  0.1011
  132bbb    H17 3825   8.898   8.374  11.118 -0.7918  1.6802  1.8461
  132bbb    H18 3826   9.035   8.262  11.109 -0.4578  0.6921 -0.7181
  132bbb     O1 3827   8.617   7.682  11.203  0.8172  0.1269  0.2466
  133bbb     N1 3828   8.015   6.077  10.244  0.3432 -0.0147  0.5966
  133bbb     C1 3829   7.865   6.081  10.272 -0.0084  0.5024 -0.1942
  133bbb     H1 3830   7.843   6.086  10.379  0.1536 -2.0378  0.0059
  133bbb     H2 3831   7.824   5.987  10.233  0.0215  0.3712  0.0856
  133bbb     C2 3832   8.048   6.066  10.096 -0.5593  0.6167  0.3597
  133bbb     H3 3833   8.156   6.071  10.079 -0.8958 -0.3257 -2.7698
  133bbb     H4 3834   8.011   6.153  10.042  0.3259  1.6951  1.4358
  133bbb     C3 3835   8.105   6.171  10.331  0.9650 -0.6746  0.9777
  133bbb     H5 3836   8.039   6.257  10.314  1.0962 -1.0933 -2.2276
  133bbb     H6 3837   8.158   6.207  10.242  1.3052 -0.3954  1.2867
  133bbb     C4 3838   8.233   6.136  10.555  0.0934  0.4330 -0.1427
  133bbb     H7 3839   8.308   6.058  10.570  0.8846  1.4242  1.2018
  133bbb     H8 3840   8.176   6.110  10.645  1.8013  0.8119  1.0842
  133bbb     C5 3841   7.778   6.189  10.201 -0.1183  0.3512  0.2017
  133bbb     H9 3842   7.791   6.178  10.093  0.2968 -0.8741  0.3582
  133bbb    H10 3843   7.835   6.282  10.216  0.4940 -0.1297  0.9966
  133bbb     C6 3844   8.006   5.928  10.036  0.1600  0.0036  0.4539
  133bbb    H11 3845   7.903   5.907  10.067  0.0445  0.4397  0.3755
  133bbb    H12 3846   8.077   5.853  10.073  1.9194  1.5737  0.4032
  133bbb     C7 3847   8.333   6.220  10.653  0.1084  0.3796 -0.5485
  133bbb    H13 3848   8.330   6.162  10.747  0.5748  0.9635 -0.1677
  133bbb    H14 3849   8.296   6.320  10.677  0.0856 -0.0446  1.4164
  133bbb     C8 3850   8.005   5.944   9.877  0.3348 -0.4047 -1.1350
  133bbb    H15 3851   8.111   5.942   9.849  0.8947  1.6113  0.6040
  133bbb    H16 3852   7.963   6.037   9.838 -0.4808 -0.7091 -1.0060
  133bbb     C9 3853   7.624   6.195  10.250 -0.3629 -0.5122  0.0661
  133bbb    H17 3854   7.611   6.153  10.350 -0.5221 -0.9801 -0.1440
  133bbb    H18 3855   7.571   6.133  10.177  1.1608 -1.9760  0.1438
  133bbb     O1 3856   8.473   6.221  10.609  0.3535 -0.0801  0.1338
  134bbb     N1 3857   8.391   6.549  11.634  0.0737 -0.0443  0.3147
  134bbb     C1 3858   8.346   6.692  11.676  0.2757 -0.4561 -1.1121
  134bbb     H1 3859   8.436   6.733  11.723  0.2379 -0.5573 -0.9511
  134bbb     H2 3860   8.271   6.676  11.753  1.2685  0.4710  0.0804
  134bbb     C2 3861   8.451   6.469  11.748 -0.5599  1.0653  0.9086
  134bbb     H3 3862   8.540   6.518  11.788  0.9433 -0.0404 -0.9287
  134bbb     H4 3863   8.489   6.373  11.710  2.2284  1.6877  1.9475
  134bbb     C3 3864   8.475   6.543  11.512 -1.0414  0.6213 -0.4168
  134bbb     H5 3865   8.414   6.574  11.426 -0.4998  0.0687 -1.0066
  134bbb     H6 3866   8.495   6.438  11.490  0.7914  0.8617 -0.0191
  134bbb     C4 3867   8.598   6.630  11.503 -0.3774  0.2623 -0.2430
  134bbb     H7 3868   8.653   6.640  11.598  0.4163 -0.4917 -0.6095
  134bbb     H8 3869   8.577   6.734  11.476  0.5976  1.1908  2.2556
  134bbb     C5 3870   8.293   6.787  11.575  0.1975 -0.3041  0.5077
  134bbb     H9 3871   8.366   6.814  11.499 -1.2488 -2.8396 -1.9920
  134bbb    H10 3872   8.266   6.873  11.638 -0.0238  0.6209 -0.8055
  134bbb     C6 3873   8.346   6.435  11.862  0.0607  0.4896  0.0140
  134bbb    H11 3874   8.260   6.374  11.831 -0.4523  0.6154  1.1532
  134bbb    H12 3875   8.320   6.523  11.922  0.4241 -0.2775  1.3311
  134bbb     C7 3876   8.693   6.566  11.405  0.4192 -0.1449  0.3936
  134bbb    H13 3877   8.710   6.473  11.460  2.4462  1.0480  1.9559
  134bbb    H14 3878   8.788   6.621  11.395 -0.6205  1.9297  1.2969
  134bbb     C8 3879   8.416   6.337  11.966 -0.5206 -0.8884  0.8237
  134bbb    H15 3880   8.445   6.245  11.913  3.8443  0.4371  0.4962
  134bbb    H16 3881   8.341   6.321  12.045 -1.1121  1.1223  0.7124
  134bbb     C9 3882   8.163   6.751  11.498 -0.3856 -1.0624  0.7616
  134bbb    H17 3883   8.182   6.673  11.423 -0.1566  1.2530 -1.7678
  134bbb    H18 3884   8.135   6.832  11.430  0.4457 -1.3479  0.0469
  134bbb     O1 3885   8.638   6.550  11.272  0.0990  0.5865  0.2350
  135bbb     N1 3886  10.589   9.090   6.878  0.5482 -0.0722  0.1442
  135bbb     C1 3887  10.705   9.165   6.934  0.6050 -0.3444  0.2974
  135bbb     H1 3888  10.754   9.203   6.844  1.0664 -2.3818 -0.3656
  135bbb     H2 3889  10.775   9.096   6.982  1.8255  1.3895  1.1237
  135bbb     C2 3890  10.506   9.159   6.774 -0.1949 -0.9128  0.7585
  135bbb     H3 3891  10.453   9.247   6.813 -1.2699 -2.1511  2.2156
  135bbb     H4 3892  10.436   9.087   6.728  0.1651 -0.4416 -0.5729
  135bbb     C3 3893  10.497   9.029   6.978  0.5568 -0.2214 -0.7083
  135bbb     H5 3894  10.426   8.962   6.929 -0.3133 -0.7073  1.1246
  135bbb     H6 3895  10.442   9.106   7.033  0.6132 -1.1174  0.6517
  135bbb     C4 3896  10.569   8.925   7.069 -0.2878  0.4263 -1.0640
  135bbb     H7 3897  10.633   8.974   7.143  0.7466  1.0716 -2.3203
  135bbb     H8 3898  10.633   8.855   7.014  0.3550 -1.7636  2.2019
  135bbb     C5 3899  10.677   9.278   7.040  0.0586  0.6874  0.5224
  135bbb     H9 3900  10.770   9.306   7.091  2.0661 -0.7451 -2.1364
  135bbb    H10 3901  10.617   9.228   7.117 -0.0959  0.0802  0.0143
  135bbb     C6 3902  10.597   9.205   6.649  0.3954 -0.1280  0.3437
  135bbb    H11 3903  10.657   9.121   6.615 -0.7778 -1.3760  1.2470
  135bbb    H12 3904  10.674   9.276   6.683  1.0029 -0.4141 -0.4166
  135bbb     C7 3905  10.457   8.849   7.144  0.3341 -0.2717 -0.3972
  135bbb    H13 3906  10.507   8.762   7.189  3.2225  1.5611  0.1982
  135bbb    H14 3907  10.376   8.823   7.074 -2.2200 -1.4827  2.7320
  135bbb     C8 3908  10.510   9.260   6.526 -0.2423 -0.1590 -0.4491
  135bbb    H15 3909  10.579   9.279   6.443 -0.0352 -1.8404 -0.6959
  135bbb    H16 3910  10.453   9.348   6.557  1.0583  0.2146  0.9828
  135bbb     C9 3911  10.611   9.410   6.992 -0.3540 -0.1014 -0.1320
  135bbb    H17 3912  10.518   9.376   6.944 -0.5052  0.7851 -0.4830
  135bbb    H18 3913  10.672   9.452   6.911 -1.1110  0.2301 -0.5412
  135bbb     O1 3914  10.399   8.946   7.243  0.3468  0.1442 -0.3307
  136bbb     N1 3915   9.500   8.711   6.907  0.0514  0.3585  1.1823
  136bbb     C1 3916   9.477   8.731   6.760  0.3121 -0.0660 -0.1666
  136bbb     H1 3917   9.526   8.653   6.702  1.5976 -1.4490  2.5829
  136bbb     H2 3918   9.527   8.823   6.727 -1.3268 -0.0271 -2.8584
  136bbb     C2 3919   9.625   8.634   6.929 -0.2493  0.3437  0.4280
  136bbb     H3 3920   9.620   8.623   7.038  1.0094  0.3730  0.5114
  136bbb     H4 3921   9.711   8.693   6.893  0.3104 -1.2115 -0.8784
  136bbb     C3 3922   9.477   8.833   6.992 -0.1342  0.6991 -0.2057
  136bbb     H5 3923   9.498   8.804   7.096 -0.5883  0.0065 -0.2975
  136bbb     H6 3924   9.371   8.856   6.980 -0.6793 -1.3106  0.2732
  136bbb     C4 3925   9.566   8.954   6.958  0.2101 -0.2908  0.0603
  136bbb     H7 3926   9.532   8.983   6.858 -0.7681 -1.9653 -0.1336
  136bbb     H8 3927   9.671   8.929   6.939 -0.2204 -1.0989 -1.4287
  136bbb     C5 3928   9.332   8.737   6.716 -0.3589 -0.1755 -0.4115
  136bbb     H9 3929   9.328   8.709   6.610  1.5427 -1.7352 -0.1427
  136bbb    H10 3930   9.306   8.839   6.745 -0.7091 -0.6732  1.1194
  136bbb     C6 3931   9.624   8.503   6.862  0.0371  0.5042  0.1298
  136bbb    H11 3932   9.676   8.499   6.765 -0.8681  1.5646 -0.4139
  136bbb    H12 3933   9.523   8.468   6.838  0.3879 -1.3281  1.1616
  136bbb     C7 3934   9.552   9.075   7.052 -0.0345 -1.1780 -0.2973
  136bbb    H13 3935   9.444   9.090   7.062  0.2610  2.0428 -0.7311
  136bbb    H14 3936   9.592   9.168   7.010  0.9322 -1.3543  0.2060
  136bbb     C8 3937   9.677   8.394   6.960 -0.0915 -0.0237  0.5196
  136bbb    H15 3938   9.616   8.395   7.051 -1.4858 -0.4452 -0.3776
  136bbb    H16 3939   9.781   8.409   6.992 -0.1575  0.6286  0.4334
  136bbb     C9 3940   9.241   8.643   6.803  0.0557 -0.8790 -0.3679
  136bbb    H17 3941   9.233   8.685   6.904 -1.0621 -0.0508 -0.7737
  136bbb    H18 3942   9.299   8.550   6.802 -0.0299 -0.9842 -3.0968
  136bbb     O1 3943   9.612   9.043   7.177 -0.1076 -0.0372  0.5045
  137bbb     N1 3944  10.825   7.968   9.294 -0.2686  0.4979  0.0655
  137bbb     C1 3945  10.908   8.065   9.211 -0.4344  0.1058 -0.4288
  137bbb     H1 3946  11.007   8.020   9.200 -1.2877 -1.6361 -1.3105
  137bbb     H2 3947  10.927   8.159   9.265 -0.2776 -0.6993  0.9783
  137bbb     C2 3948  10.882   7.958   9.430 -0.2253 -0.0531  0.0512
  137bbb     H3 3949  10.873   8.049   9.491 -0.0180 -0.1307  0.2011
  137bbb     H4 3950  10.989   7.940   9.414 -0.6265 -1.1481 -1.5880
  137bbb     C3 3951  10.679   7.988   9.293 -0.1340  0.2759 -0.0579
  137bbb     H5 3952  10.630   7.902   9.338  0.2698 -0.6728 -1.3792
  137bbb     H6 3953  10.646   7.984   9.188  1.3718  0.5812 -0.5725
  137bbb     C4 3954  10.633   8.127   9.345 -0.2130 -0.0401 -0.3213
  137bbb     H7 3955  10.701   8.208   9.319  1.6097 -1.1889  0.6854
  137bbb     H8 3956  10.632   8.124   9.455  1.3228 -1.3522 -0.3042
  137bbb     C5 3957  10.855   8.117   9.078 -0.1599  0.6339 -0.2375
  137bbb     H9 3958  10.757   8.165   9.090  0.4841  1.7847  0.6661
  137bbb    H10 3959  10.852   8.024   9.020  1.9770 -0.8009  1.7725
  137bbb     C6 3960  10.828   7.843   9.515  0.2349  0.1117  0.0290
  137bbb    H11 3961  10.857   7.748   9.467  0.5554  0.2011  0.0461
  137bbb    H12 3962  10.718   7.839   9.517  0.2636 -2.8827  0.9677
  137bbb     C7 3963  10.493   8.165   9.304  0.6637  0.2827 -0.0457
  137bbb    H13 3964  10.469   8.255   9.362 -1.2961 -0.0687 -0.2608
  137bbb    H14 3965  10.424   8.084   9.332  0.7850 -0.4592 -1.7678
  137bbb     C8 3966  10.886   7.841   9.658 -0.9639 -0.1981 -0.5779
  137bbb    H15 3967  10.994   7.827   9.668 -0.9164  1.4138  2.1521
  137bbb    H16 3968  10.848   7.762   9.724  1.1781  0.0299  1.0319
  137bbb     C9 3969  10.957   8.215   9.015  0.0894  0.3356  0.3391
  137bbb    H17 3970  11.052   8.161   9.000 -0.4970 -0.9622  1.1626
  137bbb    H18 3971  10.981   8.295   9.085  0.3874 -1.2081  2.0778
  137bbb     O1 3972  10.489   8.200   9.166 -0.7162  0.2992  0.3563
  138bbb     N1 3973  10.841   7.676   8.707 -0.4696 -0.8065  0.4689
  138bbb     C1 3974  10.944   7.580   8.657  0.2049  1.1251 -0.1350
  138bbb     H1 3975  10.907   7.478   8.647  1.4005  0.7109 -0.4694
  138bbb     H2 3976  11.025   7.580   8.730 -0.8126  1.4424  1.0383
  138bbb     C2 3977  10.770   7.635   8.828 -0.1367  0.5464  0.5614
  138bbb     H3 3978  10.713   7.709   8.885 -1.4097 -0.4190  0.5943
  138bbb     H4 3979  10.850   7.599   8.893  0.6666 -3.0204 -2.1127
  138bbb     C3 3980  10.892   7.813   8.709 -0.9646 -0.5329  0.0925
  138bbb     H5 3981  10.943   7.842   8.617 -1.0086  0.7613  0.4551
  138bbb     H6 3982  10.971   7.824   8.785 -1.6163  0.7474  0.6289
  138bbb     C4 3983  10.771   7.909   8.746  0.0081  0.3258 -0.1064
  138bbb     H7 3984  10.802   8.013   8.730 -1.3254  0.5739 -1.2376
  138bbb     H8 3985  10.739   7.901   8.851  2.6213 -1.0973  0.6578
  138bbb     C5 3986  11.000   7.609   8.512  0.2757 -0.5687 -0.2831
  138bbb     H9 3987  11.066   7.697   8.514 -1.0412  0.4386  2.0964
  138bbb    H10 3988  10.918   7.650   8.451  0.1059 -0.3940  0.0622
  138bbb     C6 3989  10.692   7.502   8.802 -0.1036 -0.3908 -0.1930
  138bbb    H11 3990  10.634   7.491   8.895 -0.4269 -0.9190 -0.4499
  138bbb    H12 3991  10.759   7.416   8.805  0.1922 -0.2234 -1.5160
  138bbb     C7 3992  10.658   7.897   8.644  0.2856  0.4846  0.7082
  138bbb    H13 3993  10.644   7.791   8.620  1.4288 -0.1819  2.7185
  138bbb    H14 3994  10.679   7.953   8.551 -1.2339 -0.8065 -0.4650
  138bbb     C8 3995  10.597   7.502   8.679 -0.9858  0.4953  0.1961
  138bbb    H15 3996  10.652   7.511   8.584 -1.0594  0.2232  0.1266
  138bbb    H16 3997  10.520   7.580   8.682 -0.3686  1.2779 -2.3027
  138bbb     C9 3998  11.054   7.482   8.443  0.6598  0.0003 -0.0204
  138bbb    H17 3999  11.144   7.432   8.480  1.3236 -0.2226 -1.8317
  138bbb    H18 4000  11.087   7.506   8.341  0.4016 -0.7054 -0.2739
  138bbb     O1 4001  10.546   7.942   8.705  0.0561  0.0061  0.5292
  139bbb     N1 4002   7.545   8.561   9.354 -0.3591  0.4645  0.0907
  139bbb     C1 4003   7.516   8.439   9.277  0.7718  0.7965  0.4361
  139bbb     H1 4004   7.523   8.351   9.341 -2.3354  0.4829  0.5002
  139bbb     H2 4005   7.586   8.419   9.195 -1.0567  1.0844 -1.2976
  139bbb     C2 4006   7.463   8.579   9.474 -0.3697  0.4735  0.0438
  139bbb     H3 4007   7.438   8.477   9.507  0.2079  1.1927  2.9698
  139bbb     H4 4008   7.369   8.631   9.455  1.0509  2.2043 -3.0883
  139bbb     C3 4009   7.571   8.684   9.271 -0.1471  0.4022  0.6801
  139bbb     H5 4010   7.609   8.771   9.325 -0.3796  0.0691  1.3974
  139bbb     H6 4011   7.470   8.719   9.244  0.1216  0.3628 -0.4528
  139bbb     C4 4012   7.649   8.666   9.137  0.0243  1.4020 -0.0655
  139bbb     H7 4013   7.632   8.751   9.069 -0.3382  1.2611 -0.1516
  139bbb     H8 4014   7.622   8.578   9.078  1.0335 -0.3542  1.9631
  139bbb     C5 4015   7.372   8.419   9.211 -0.2533 -0.0128 -0.1592
  139bbb     H9 4016   7.346   8.510   9.155 -1.4131  0.1504  0.5955
  139bbb    H10 4017   7.301   8.416   9.295 -0.7469 -1.3181 -0.5975
  139bbb     C6 4018   7.538   8.654   9.583 -0.1055 -0.2856  0.6302
  139bbb    H11 4019   7.549   8.756   9.545 -2.0011  0.3517  1.6514
  139bbb    H12 4020   7.637   8.609   9.598  0.4439  1.7598  4.1615
  139bbb     C7 4021   7.804   8.663   9.167 -0.3701  0.7890 -0.4609
  139bbb    H13 4022   7.847   8.617   9.077  0.2072 -1.4232  0.8818
  139bbb    H14 4023   7.834   8.598   9.250 -2.1936  0.3857 -0.0818
  139bbb     C8 4024   7.457   8.666   9.710  0.0593 -0.5081 -1.0022
  139bbb    H15 4025   7.533   8.716   9.773 -0.2307  0.0401 -1.0835
  139bbb    H16 4026   7.428   8.572   9.758 -3.2718  1.7903  2.0487
  139bbb     C9 4027   7.361   8.307   9.113 -1.0035  0.2773  0.3916
  139bbb    H17 4028   7.261   8.308   9.069 -0.9784  0.4575  0.3358
  139bbb    H18 4029   7.386   8.212   9.163 -1.1780 -0.0041 -0.0517
  139bbb     O1 4030   7.852   8.794   9.178 -0.5734 -0.3671 -0.1138
  140bbb     N1 4031   8.196   9.413   8.377  0.1112 -0.1066 -0.7313
  140bbb     C1 4032   8.249   9.474   8.255 -0.3218 -0.3665  0.8663
  140bbb     H1 4033   8.174   9.542   8.214  1.2813  0.7580 -0.3218
  140bbb     H2 4034   8.261   9.402   8.173 -0.0243  1.5552 -0.8518
  140bbb     C2 4035   8.087   9.490   8.438  0.0161 -0.2069  0.2365
  140bbb     H3 4036   8.056   9.441   8.531  0.8257 -0.6634  0.2865
  140bbb     H4 4037   7.997   9.491   8.376 -0.6456 -1.3249  1.1340
  140bbb     C3 4038   8.191   9.273   8.367  1.1279  0.3648  0.5484
  140bbb     H5 4039   8.274   9.233   8.306  0.8254 -0.1226  0.4559
  140bbb     H6 4040   8.099   9.248   8.314  1.2674 -1.1536  0.9829
  140bbb     C4 4041   8.189   9.195   8.501 -0.4024 -0.1360  0.3508
  140bbb     H7 4042   8.171   9.092   8.469  0.6875 -0.5362  0.9627
  140bbb     H8 4043   8.107   9.237   8.561 -1.4016  0.9640 -1.6845
  140bbb     C5 4044   8.381   9.545   8.274 -0.1676 -0.3644  0.5305
  140bbb     H9 4045   8.453   9.469   8.305  1.0754  0.0979 -1.0496
  140bbb    H10 4046   8.374   9.615   8.358  1.1669  0.8424 -0.3182
  140bbb     C6 4047   8.131   9.636   8.479  0.0754  0.2709  1.0008
  140bbb    H11 4048   8.048   9.698   8.514 -0.1650  0.7051 -0.2821
  140bbb    H12 4049   8.178   9.693   8.399 -1.8607  1.9156  0.9594
  140bbb     C7 4050   8.326   9.213   8.568 -0.0078 -0.0255  0.2864
  140bbb    H13 4051   8.330   9.314   8.609 -1.7872 -0.2343  1.0580
  140bbb    H14 4052   8.404   9.194   8.493  0.2163  1.0653  0.2337
  140bbb     C8 4053   8.217   9.642   8.607  0.1978  0.8645  0.2829
  140bbb    H15 4054   8.272   9.548   8.591  0.4883  1.2684 -1.2495
  140bbb    H16 4055   8.162   9.635   8.702 -1.0752 -0.4907 -0.5001
  140bbb     C9 4056   8.429   9.611   8.139  0.3610 -0.1875  0.2870
  140bbb    H17 4057   8.448   9.527   8.072 -0.6677  0.0193 -0.2822
  140bbb    H18 4058   8.522   9.668   8.151  1.0337 -1.1308 -0.3203
  140bbb     O1 4059   8.339   9.112   8.663 -0.0644  0.5643 -1.0481
  141bbb     N1 4060  10.129   8.669   9.964  0.3596 -0.5074 -0.1959
  141bbb     C1 4061  10.128   8.674  10.117 -0.2181  0.3266 -0.2399
  141bbb     H1 4062  10.228   8.646  10.152 -0.2313  1.8027  1.0879
  141bbb     H2 4063  10.057   8.599  10.153 -0.0968  1.1359  1.7836
  141bbb     C2 4064  10.251   8.721   9.887  1.0267  0.3097 -0.2927
  141bbb     H3 4065  10.247   8.830   9.883  1.0084  0.2964 -0.6535
  141bbb     H4 4066  10.250   8.679   9.786  1.6798  0.4039 -0.3440
  141bbb     C3 4067  10.003   8.731   9.902  0.5244  0.2909 -0.1733
  141bbb     H5 4068   9.974   8.833   9.932 -1.1518 -0.7265  2.0534
  141bbb     H6 4069   9.924   8.666   9.942  2.6293 -1.2186  1.7965
  141bbb     C4 4070   9.998   8.715   9.747 -0.9002  0.0732  0.2291
  141bbb     H7 4071  10.033   8.614   9.721 -0.3841  0.2448  0.2313
  141bbb     H8 4072  10.069   8.787   9.704 -0.7747  0.3463  0.8812
  141bbb     C5 4073  10.114   8.818  10.176  0.7305  0.0939  0.0712
  141bbb     H9 4074  10.024   8.870  10.141  0.1275 -0.2346  1.0802
  141bbb    H10 4075  10.192   8.887  10.144  0.4779  0.7319  0.7806
  141bbb     C6 4076  10.394   8.679   9.940  0.8791 -0.8161  0.1557
  141bbb    H11 4077  10.399   8.715  10.044  2.2237  0.3154 -0.2677
  141bbb    H12 4078  10.472   8.739   9.891  2.0304 -3.2208 -1.1263
  141bbb     C7 4079   9.855   8.734   9.695  0.1524 -0.3424  0.1671
  141bbb    H13 4080   9.776   8.691   9.758  2.6217 -1.0872  2.9544
  141bbb    H14 4081   9.849   8.688   9.596  2.6479 -1.2597  0.3666
  141bbb     C8 4082  10.433   8.529   9.930 -0.1215  0.0622  0.7722
  141bbb    H15 4083  10.449   8.501   9.825  0.9163  0.3022  0.8529
  141bbb    H16 4084  10.358   8.458   9.967 -0.0659 -1.6485 -2.0714
  141bbb     C9 4085  10.112   8.803  10.327  0.8865  0.7303 -0.3852
  141bbb    H17 4086  10.119   8.906  10.364  0.7036  0.7556 -0.4191
  141bbb    H18 4087  10.194   8.736  10.355  1.0918  0.6007 -1.2467
  141bbb     O1 4088   9.833   8.878   9.691  0.1459 -0.1548 -0.5185
  142bbb     N1 4089  10.621   9.338   9.720 -0.0836 -0.3070  0.0020
  142bbb     C1 4090  10.772   9.335   9.700  0.6255 -0.2934 -0.1571
  142bbb     H1 4091  10.809   9.422   9.646 -0.0780  0.7545  1.0022
  142bbb     H2 4092  10.795   9.247   9.638 -1.3654 -0.6370 -0.4887
  142bbb     C2 4093  10.559   9.214   9.753  1.0550  0.0144 -0.4341
  142bbb     H3 4094  10.470   9.240   9.812  1.6915  2.7211 -0.5206
  142bbb     H4 4095  10.623   9.150   9.813 -0.8323 -2.5503 -0.9868
  142bbb     C3 4096  10.548   9.408   9.614  0.1162  0.0190  0.3016
  142bbb     H5 4097  10.440   9.399   9.627  0.2250  0.0411  1.2933
  142bbb     H6 4098  10.570   9.361   9.517 -0.7293  0.6351 -0.2060
  142bbb     C4 4099  10.575   9.563   9.594 -0.3705  0.7035  0.4370
  142bbb     H7 4100  10.681   9.589   9.588 -0.5561  1.7990  1.4823
  142bbb     H8 4101  10.534   9.623   9.677 -1.4839 -1.7267  1.7528
  142bbb     C5 4102  10.844   9.311   9.831  0.4967 -0.6400  0.0108
  142bbb     H9 4103  10.797   9.226   9.880 -0.8546  1.1392  1.9958
  142bbb    H10 4104  10.831   9.401   9.893  0.7612  0.5785 -1.6223
  142bbb     C6 4105  10.531   9.123   9.635 -0.3996  1.3073  0.0287
  142bbb    H11 4106  10.632   9.109   9.595 -0.0526 -0.8559  1.4731
  142bbb    H12 4107  10.470   9.167   9.555 -0.6606  1.4251  0.2931
  142bbb     C7 4108  10.500   9.619   9.471 -0.1539  0.3065  0.1002
  142bbb    H13 4109  10.548   9.574   9.383 -0.7347 -1.2658  0.5560
  142bbb    H14 4110  10.515   9.727   9.463 -0.8353  0.5831  1.9675
  142bbb     C8 4111  10.481   8.975   9.678 -0.0426  0.3500  0.3655
  142bbb    H15 4112  10.377   8.977   9.714 -0.8936  0.8730 -1.8974
  142bbb    H16 4113  10.545   8.929   9.753 -0.2179 -0.6659 -0.0940
  142bbb     C9 4114  10.992   9.289   9.814  0.7149  0.0365  0.4758
  142bbb    H17 4115  11.031   9.354   9.735 -0.5819 -0.2686 -0.4412
  142bbb    H18 4116  11.002   9.182   9.793  0.3059 -0.2923  1.8341
  142bbb     O1 4117  10.359   9.588   9.471  0.1072 -0.1463  0.3169
  143bbb     N1 4118   7.227   5.255   6.665 -0.1418 -0.4061 -0.5531
  143bbb     C1 4119   7.216   5.229   6.520 -0.5620 -0.2869 -0.7671
  143bbb     H1 4120   7.196   5.323   6.467 -1.4705 -1.3186 -2.3365
  143bbb     H2 4121   7.126   5.168   6.507 -0.8385 -0.2305  0.6537
  143bbb     C2 4122   7.201   5.130   6.750  0.1531  0.0075 -0.5201
  143bbb     H3 4123   7.242   5.142   6.851  1.8960 -0.4895 -1.1308
  143bbb     H4 4124   7.249   5.039   6.711 -2.7123 -2.1766  0.6586
  143bbb     C3 4125   7.154   5.367   6.723 -0.0085  0.6853 -0.2956
  143bbb     H5 4126   7.157   5.363   6.833  2.2128 -0.1053 -0.3220
  143bbb     H6 4127   7.052   5.357   6.685  0.5050 -3.2136 -0.9982
  143bbb     C4 4128   7.218   5.505   6.692  0.5989  0.1447 -0.3627
  143bbb     H7 4129   7.220   5.528   6.584  0.6089  2.0089  0.0131
  143bbb     H8 4130   7.318   5.506   6.737 -0.4384 -1.8924  2.2322
  143bbb     C5 4131   7.345   5.165   6.462 -0.0976  0.0866  0.5124
  143bbb     H9 4132   7.400   5.111   6.540  2.1968 -0.7797 -1.5818
  143bbb    H10 4133   7.412   5.240   6.417 -1.4782  2.0366  1.5506
  143bbb     C6 4134   7.048   5.088   6.759  0.2591 -0.3255  0.4203
  143bbb    H11 4135   7.014   5.070   6.656 -1.3939 -0.9073  1.0290
  143bbb    H12 4136   6.993   5.176   6.795  0.7027  0.9557 -1.8227
  143bbb     C7 4137   7.134   5.619   6.757  0.7671  0.1076 -0.2119
  143bbb    H13 4138   7.037   5.637   6.708  0.7008  1.3809  0.3502
  143bbb    H14 4139   7.184   5.716   6.753  1.5728 -0.3063 -0.3204
  143bbb     C8 4140   7.016   4.960   6.840 -0.3087 -0.7159 -0.3959
  143bbb    H15 4141   7.046   4.984   6.942 -0.4141  1.8170 -0.9076
  143bbb    H16 4142   7.086   4.884   6.802 -0.0002 -0.1832 -0.9102
  143bbb     C9 4143   7.317   5.060   6.351  0.2822 -0.4169 -0.1536
  143bbb    H17 4144   7.241   5.089   6.278  0.5104 -0.8149 -0.5573
  143bbb    H18 4145   7.282   4.969   6.403  0.2118 -0.5534 -0.4367
  143bbb     O1 4146   7.108   5.587   6.893 -0.1578  0.2685 -0.2674
  144bbb     N1 4147   7.047   6.326   6.492 -0.2780  0.6129  0.1624
  144bbb     C1 4148   7.058   6.474   6.524  0.0859  0.1370 -0.0740
  144bbb     H1 4149   6.993   6.490   6.611 -1.2973 -0.7690 -0.9074
  144bbb     H2 4150   7.018   6.534   6.441  1.2871  1.8620  0.5253
  144bbb     C2 4151   7.119   6.308   6.363  0.6930  0.7525 -0.5168
  144bbb     H3 4152   7.225   6.334   6.375  0.2201  2.1712  0.8971
  144bbb     H4 4153   7.067   6.372   6.291 -0.9242 -0.0530 -0.1242
  144bbb     C3 4154   7.110   6.246   6.601 -0.1382  0.6342 -0.1754
  144bbb     H5 4155   7.217   6.268   6.613 -0.2464  0.6709  0.8691
  144bbb     H6 4156   7.107   6.139   6.577  2.4192  0.2636  0.7991
  144bbb     C4 4157   7.035   6.267   6.737 -0.3563 -0.3433  0.1191
  144bbb     H7 4158   6.929   6.241   6.721 -0.8936  2.3926 -1.5504
  144bbb     H8 4159   7.050   6.366   6.782  0.4917 -0.4327  0.0483
  144bbb     C5 4160   7.199   6.533   6.561  0.7082  0.1327  0.2961
  144bbb     H9 4161   7.280   6.506   6.491 -0.2060  1.5582 -1.3940
  144bbb    H10 4162   7.224   6.497   6.661 -1.0119  0.7167  0.9673
  144bbb     C6 4163   7.098   6.168   6.296  0.0205  0.1301 -0.1082
  144bbb    H11 4164   6.993   6.135   6.291  0.1946 -0.3309 -3.6771
  144bbb    H12 4165   7.157   6.086   6.339 -3.5441 -1.6487  1.8237
  144bbb     C7 4166   7.082   6.154   6.833 -0.0204  0.0044  0.5700
  144bbb    H13 4167   7.187   6.155   6.865  0.1053  2.4487  0.2704
  144bbb    H14 4168   7.066   6.053   6.794 -0.1019 -0.7342  2.4025
  144bbb     C8 4169   7.143   6.173   6.150  0.1726 -0.5168  0.0828
  144bbb    H15 4170   7.241   6.223   6.149 -0.5598  1.0035  0.3539
  144bbb    H16 4171   7.069   6.237   6.099 -0.8248 -1.7079  0.0076
  144bbb     C9 4172   7.193   6.682   6.576 -0.1625  0.1012 -0.1637
  144bbb    H17 4173   7.294   6.722   6.588 -0.2751  0.1021  0.8547
  144bbb    H18 4174   7.137   6.706   6.667 -0.0048 -0.0770 -0.0194
  144bbb     O1 4175   6.992   6.157   6.947  0.2846 -0.1438 -0.6458
  145bbb     N1 4176   6.758   5.352   8.511 -0.1092  0.2492 -0.2231
  145bbb     C1 4177   6.658   5.257   8.533 -0.8225  0.4702 -0.2076
  145bbb     H1 4178   6.612   5.227   8.438 -0.1562 -1.2461 -0.0261
  145bbb     H2 4179   6.576   5.316   8.575 -0.7534  0.8894 -0.6500
  145bbb     C2 4180   6.832   5.393   8.635 -1.0450 -0.0573  0.1316
  145bbb     H3 4181   6.879   5.310   8.688  0.2018  1.4803  1.5264
  145bbb     H4 4182   6.768   5.447   8.705  0.8670  1.5624  0.7315
  145bbb     C3 4183   6.730   5.446   8.400 -0.1535  0.0801  0.7176
  145bbb     H5 4184   6.699   5.389   8.311 -0.6667  1.3921  0.0302
  145bbb     H6 4185   6.816   5.504   8.367 -1.0421  1.2510  0.4110
  145bbb     C4 4186   6.627   5.555   8.433 -0.6126 -0.7390 -0.1881
  145bbb     H7 4187   6.669   5.627   8.504 -0.3169 -0.4652 -0.6342
  145bbb     H8 4188   6.546   5.502   8.484  1.0534 -2.2404  1.0529
  145bbb     C5 4189   6.682   5.141   8.634  0.2215 -0.2953 -0.6114
  145bbb     H9 4190   6.700   5.184   8.733  2.4630  1.5392 -1.7451
  145bbb    H10 4191   6.758   5.071   8.598  2.0987  1.5866 -0.4372
  145bbb     C6 4192   6.950   5.495   8.600  0.0340  0.0015 -0.8207
  145bbb    H11 4193   6.917   5.592   8.560 -0.3755 -0.5949 -1.9621
  145bbb    H12 4194   7.004   5.462   8.511 -1.4297 -1.7957 -1.0914
  145bbb     C7 4195   6.585   5.638   8.306 -0.5279 -0.7812 -0.9678
  145bbb    H13 4196   6.500   5.701   8.336  1.1649  0.5894  1.1944
  145bbb    H14 4197   6.548   5.569   8.229 -2.0295  1.7611 -2.6977
  145bbb     C8 4198   7.058   5.516   8.707  0.1707  0.2794 -0.5289
  145bbb    H15 4199   7.141   5.556   8.649  1.6098 -1.0056  0.5383
  145bbb    H16 4200   7.095   5.417   8.736 -0.7578 -0.3858 -1.5438
  145bbb     C9 4201   6.546   5.069   8.641  0.7969  0.5536 -0.4321
  145bbb    H17 4202   6.463   5.133   8.673 -0.9181 -0.8517 -1.8880
  145bbb    H18 4203   6.558   4.992   8.718  2.1565 -0.3695 -1.5186
  145bbb     O1 4204   6.692   5.723   8.258  0.2584 -0.0290 -0.3347
  146bbb     N1 4205   6.704   6.900   8.260  0.5375  0.8178 -0.3379
  146bbb     C1 4206   6.594   6.990   8.233  0.0153 -0.0389 -0.2885
  146bbb     H1 4207   6.509   6.943   8.183 -1.8350 -0.5553  3.0366
  146bbb     H2 4208   6.622   7.069   8.163 -1.0637 -0.4235 -1.1746
  146bbb     C2 4209   6.835   6.957   8.296 -0.3731  0.3111  0.0281
  146bbb     H3 4210   6.831   7.039   8.369  0.9964  1.9355 -1.6062
  146bbb     H4 4211   6.872   6.990   8.198  0.4781  1.6815  0.7833
  146bbb     C3 4212   6.703   6.780   8.168 -0.3138 -0.2966  0.2198
  146bbb     H5 4213   6.609   6.724   8.174 -0.0402 -1.3767 -3.1205
  146bbb     H6 4214   6.777   6.707   8.202 -2.6844 -2.2155  1.5999
  146bbb     C4 4215   6.725   6.808   8.018  0.2697  0.3589 -0.2057
  146bbb     H7 4216   6.794   6.889   7.991  1.8020 -0.9611 -0.4016
  146bbb     H8 4217   6.626   6.835   7.978 -0.0358  2.9581  1.9921
  146bbb     C5 4218   6.537   7.055   8.362  0.0072 -0.3109 -0.5838
  146bbb     H9 4219   6.609   7.118   8.414  0.1503 -0.4901 -0.5647
  146bbb    H10 4220   6.509   6.971   8.426  0.4873 -0.7991 -1.0076
  146bbb     C6 4221   6.934   6.856   8.356 -0.1523  0.4370  0.2661
  146bbb    H11 4222   7.025   6.913   8.377  0.1923  1.1099 -2.5530
  146bbb    H12 4223   6.966   6.782   8.280  1.7220  1.7219 -0.2621
  146bbb     C7 4224   6.785   6.685   7.941  0.2203  0.0928 -0.1756
  146bbb    H13 4225   6.888   6.660   7.969  1.0186  1.5308 -1.6122
  146bbb    H14 4226   6.798   6.707   7.834  2.0171 -1.3150 -0.2964
  146bbb     C8 4227   6.899   6.784   8.486 -0.4449 -0.1988 -0.0174
  146bbb    H15 4228   6.989   6.727   8.514 -0.4296 -0.3281 -0.3232
  146bbb    H16 4229   6.820   6.713   8.457  0.4525 -1.7609  1.2209
  146bbb     C9 4230   6.408   7.138   8.323  0.2838 -0.1311 -0.0531
  146bbb    H17 4231   6.429   7.213   8.246 -0.2315  0.1053  0.0312
  146bbb    H18 4232   6.374   7.191   8.413 -0.4690 -1.6766  0.6066
  146bbb     O1 4233   6.699   6.572   7.964 -0.1720 -0.1290 -0.2278
  147bbb     N1 4234   8.804   6.748   7.508 -0.0450 -0.6607 -0.0888
  147bbb     C1 4235   8.774   6.729   7.361 -0.1537 -0.2809  0.2770
  147bbb     H1 4236   8.666   6.721   7.344 -0.2820  1.3362  0.1901
  147bbb     H2 4237   8.816   6.633   7.328 -1.3299 -1.2175  1.4013
  147bbb     C2 4238   8.778   6.890   7.554 -0.9757  0.4968 -0.3184
  147bbb     H3 4239   8.670   6.912   7.558 -1.5042 -2.0556  1.2760
  147bbb     H4 4240   8.828   6.961   7.487  2.6580  1.4965  3.1043
  147bbb     C3 4241   8.761   6.632   7.594  0.3843 -0.5378  0.5689
  147bbb     H5 4242   8.811   6.639   7.692 -0.4228 -0.0690  0.9572
  147bbb     H6 4243   8.802   6.540   7.550 -2.9858 -2.4715  1.1747
  147bbb     C4 4244   8.606   6.625   7.600 -0.0304 -0.5262 -0.2380
  147bbb     H7 4245   8.577   6.620   7.494 -0.7724  1.7262 -0.1945
  147bbb     H8 4246   8.567   6.718   7.644  1.5948 -0.4864  1.2126
  147bbb     C5 4247   8.838   6.832   7.266  0.6520 -0.1418  0.5745
  147bbb     H9 4248   8.936   6.865   7.303 -0.5119  0.2953  3.5917
  147bbb    H10 4249   8.792   6.931   7.265  1.2671  0.1483 -0.1853
  147bbb     C6 4250   8.838   6.929   7.691  0.3690  0.0448 -0.0103
  147bbb    H11 4251   8.808   6.847   7.758 -1.6972  0.0145 -0.8791
  147bbb    H12 4252   8.799   7.025   7.729  0.3319 -0.3186  0.9062
  147bbb     C7 4253   8.557   6.507   7.690  0.1138  0.1652 -0.1868
  147bbb    H13 4254   8.572   6.543   7.792 -0.3376 -2.0044  0.7015
  147bbb    H14 4255   8.610   6.414   7.667  0.6840  0.5994 -0.6562
  147bbb     C8 4256   8.987   6.941   7.686 -0.5349  0.1420  0.1627
  147bbb    H15 4257   9.012   7.022   7.616  0.0795 -0.6585 -0.5643
  147bbb    H16 4258   9.039   6.855   7.642  0.0484 -0.4587  1.9483
  147bbb     C9 4259   8.817   6.781   7.124 -0.7991  0.1452  0.5318
  147bbb    H17 4260   8.719   6.814   7.089 -1.0650 -1.2120 -0.0709
  147bbb    H18 4261   8.820   6.672   7.115 -0.0994  0.2176 -0.2214
  147bbb     O1 4262   8.411   6.488   7.674 -0.1247 -0.5618  0.3115
  148bbb     N1 4263   8.832   5.333   7.933  0.6716 -0.5938  0.0969
  148bbb     C1 4264   8.831   5.222   7.835 -0.1773  0.0679  0.2503
  148bbb     H1 4265   8.735   5.207   7.784 -0.4228 -0.3494  0.8250
  148bbb     H2 4266   8.868   5.129   7.882  2.6960  1.4378  0.9420
  148bbb     C2 4267   8.769   5.292   8.065  0.2395  0.1865 -0.0237
  148bbb     H3 4268   8.671   5.242   8.062  0.3541 -0.2521  2.1446
  148bbb     H4 4269   8.748   5.380   8.127 -1.1640 -0.0807 -0.0950
  148bbb     C3 4270   8.767   5.453   7.876  0.2736 -0.0871  0.3280
  148bbb     H5 4271   8.659   5.446   7.896 -0.1229 -0.3387 -1.7152
  148bbb     H6 4272   8.778   5.453   7.767 -0.5756 -0.2610  0.2367
  148bbb     C4 4273   8.825   5.585   7.935 -0.2236 -0.3422  0.2224
  148bbb     H7 4274   8.926   5.600   7.894 -0.6603  1.1900 -0.3589
  148bbb     H8 4275   8.830   5.599   8.044 -0.1902  0.1458  0.1648
  148bbb     C5 4276   8.941   5.241   7.730  0.3097 -0.3504  0.3779
  148bbb     H9 4277   9.040   5.244   7.776  1.0611 -1.2411 -1.1388
  148bbb    H10 4278   8.931   5.337   7.677  1.5517  0.5544  1.7014
  148bbb     C6 4279   8.867   5.202   8.145  0.2076  0.6448  0.2951
  148bbb    H11 4280   8.886   5.109   8.089 -1.2147 -1.1594  2.6233
  148bbb    H12 4281   8.824   5.159   8.236  3.3093 -2.2267  0.5922
  148bbb     C7 4282   8.729   5.693   7.881 -0.9617  0.3069  0.3984
  148bbb    H13 4283   8.627   5.668   7.914 -1.2643  1.4350  0.3663
  148bbb    H14 4284   8.739   5.698   7.772 -0.0316 -2.4178  0.2957
  148bbb     C8 4285   8.996   5.277   8.175  0.0424 -0.7150 -0.2354
  148bbb    H15 4286   8.962   5.369   8.225  0.4183 -0.4819 -0.4044
  148bbb    H16 4287   9.044   5.320   8.086  0.7842  1.8052  1.2925
  148bbb     C9 4288   8.939   5.130   7.621 -0.4872 -0.5725  0.3891
  148bbb    H17 4289   8.851   5.162   7.563 -0.8996  1.0150  1.8134
  148bbb    H18 4290   8.920   5.028   7.657 -0.3253 -0.1683  1.6665
  148bbb     O1 4291   8.780   5.815   7.939  0.6804  0.0188  0.1221
  149bbb     N1 4292   7.210   4.806   8.094  0.0941 -0.0709 -0.0612
  149bbb     C1 4293   7.080   4.862   8.155 -0.5639  0.6728  0.4537
  149bbb     H1 4294   7.039   4.931   8.080  2.9078  1.9638 -0.4368
  149bbb     H2 4295   7.115   4.917   8.243 -0.7284 -0.8480  1.4966
  149bbb     C2 4296   7.293   4.707   8.174 -0.0309 -0.2467 -0.0158
  149bbb     H3 4297   7.217   4.635   8.209  1.0216 -0.8322  1.1399
  149bbb     H4 4298   7.336   4.748   8.266  1.2007 -0.8130 -0.3247
  149bbb     C3 4299   7.278   4.905   8.007 -0.5160  0.2566  0.3764
  149bbb     H5 4300   7.209   4.934   7.928  1.6046  0.9390 -1.3163
  149bbb     H6 4301   7.364   4.861   7.956 -2.5309 -3.0348 -0.4315
  149bbb     C4 4302   7.331   5.022   8.095  0.4756  0.3798  0.9715
  149bbb     H7 4303   7.381   4.983   8.184  1.0870  1.6434  1.1919
  149bbb     H8 4304   7.252   5.097   8.110  0.9128  1.4749 -1.7012
  149bbb     C5 4305   6.975   4.761   8.210  0.0761  0.1877 -0.0097
  149bbb     H9 4306   7.017   4.708   8.296  1.1788  0.3755 -0.4077
  149bbb    H10 4307   6.962   4.683   8.134 -1.4105  0.7598 -0.3722
  149bbb     C6 4308   7.403   4.631   8.103  0.2374  0.6586  0.2458
  149bbb    H11 4309   7.459   4.566   8.171  0.4840  0.1297 -0.4416
  149bbb    H12 4310   7.470   4.708   8.061  1.6809 -1.0812 -0.7949
  149bbb     C7 4311   7.440   5.094   8.014 -0.1149  0.1865 -0.8045
  149bbb    H13 4312   7.468   5.189   8.062  1.0434  0.3627 -1.7723
  149bbb    H14 4313   7.405   5.121   7.914  0.2370  0.3798 -0.8781
  149bbb     C8 4314   7.361   4.534   7.992  0.6088  0.7439  0.1804
  149bbb    H15 4315   7.318   4.594   7.910  2.5185  0.9788 -0.6941
  149bbb    H16 4316   7.276   4.471   8.021  0.7802  0.5259  0.2159
  149bbb     C9 4317   6.833   4.834   8.225  0.4106  1.2316 -0.3574
  149bbb    H17 4318   6.793   4.860   8.127  0.9473 -1.6116 -1.4367
  149bbb    H18 4319   6.839   4.931   8.277  0.1114  0.5177  1.0527
  149bbb     O1 4320   7.561   5.011   8.016 -0.5682 -0.4911 -0.1331
  150bbb     N1 4321   8.189   4.103   8.345 -0.5190  0.0120 -0.4136
  150bbb     C1 4322   8.197   4.139   8.496  0.3988  0.4002 -0.1179
  150bbb     H1 4323   8.177   4.245   8.517 -0.0055 -0.0080  1.6749
  150bbb     H2 4324   8.300   4.129   8.532 -0.7715 -1.1981  3.1706
  150bbb     C2 4325   8.217   3.950   8.319  0.3210 -0.5002 -0.1024
  150bbb     H3 4326   8.242   3.932   8.213 -0.5912  1.6216 -0.7341
  150bbb     H4 4327   8.119   3.899   8.327  0.3038 -0.2963  1.0921
  150bbb     C3 4328   8.066   4.143   8.276 -0.0359 -0.5677  0.0532
  150bbb     H5 4329   8.048   4.247   8.305 -2.5005 -0.8160 -0.4134
  150bbb     H6 4330   7.977   4.093   8.315 -2.4358  2.8233 -0.6523
  150bbb     C4 4331   8.078   4.130   8.119 -0.0649 -0.0762 -0.2441
  150bbb     H7 4332   8.082   4.023   8.092  0.5932 -0.4751  1.3441
  150bbb     H8 4333   8.167   4.178   8.077  1.4228 -0.9325  1.7761
  150bbb     C5 4334   8.087   4.057   8.573 -0.1894 -0.3956 -0.6569
  150bbb     H9 4335   8.111   3.951   8.589  0.6085 -0.1360 -0.0478
  150bbb    H10 4336   7.991   4.064   8.521 -1.0288 -1.2061  0.7443
  150bbb     C6 4337   8.336   3.889   8.404  0.5561  1.1050  0.4004
  150bbb    H11 4338   8.327   3.928   8.506 -0.2527  3.3186 -0.4720
  150bbb    H12 4339   8.428   3.927   8.360  0.9415  0.9312  1.0348
  150bbb     C7 4340   7.955   4.187   8.051  0.5480 -0.6434  0.4860
  150bbb    H13 4341   7.873   4.129   8.094  0.5688 -2.3429 -1.6103
  150bbb    H14 4342   7.970   4.175   7.943  1.9921  1.0222  0.4504
  150bbb     C8 4343   8.321   3.733   8.408 -0.1220  0.1655  0.1593
  150bbb    H15 4344   8.326   3.689   8.307 -1.1978  1.6630 -0.5971
  150bbb    H16 4345   8.221   3.707   8.444  0.0191  2.2772  2.2865
  150bbb     C9 4346   8.067   4.115   8.714  0.1145 -0.2340 -0.0997
  150bbb    H17 4347   8.006   4.044   8.772  1.8519 -0.3215  1.7328
  150bbb    H18 4348   8.010   4.208   8.705 -2.4142 -1.6588  0.3435
  150bbb     O1 4349   7.935   4.330   8.074  0.9427 -0.2605  0.0434
  151bbb     N1 4350   9.375   8.979   6.275 -0.5137 -0.0751  0.1453
  151bbb     C1 4351   9.490   8.889   6.241 -0.0488  0.0106  0.0707
  151bbb     H1 4352   9.564   8.939   6.178  3.0569 -0.8790  2.6998
  151bbb     H2 4353   9.456   8.798   6.190 -4.8892 -0.1899  2.9684
  151bbb     C2 4354   9.324   9.046   6.158 -0.3039 -0.0428 -0.1006
  151bbb     H3 4355   9.243   9.117   6.180 -0.7316 -0.6361  0.2583
  151bbb     H4 4356   9.271   8.968   6.101 -2.0509 -1.0161  2.6756
  151bbb     C3 4357   9.273   8.902   6.348 -0.5833  0.0691  0.3671
  151bbb     H5 4358   9.321   8.845   6.429  1.2950 -0.6543 -1.1836
  151bbb     H6 4359   9.227   8.828   6.282  0.2480  1.7423 -2.2472
  151bbb     C4 4360   9.158   8.982   6.414  0.3065 -0.1915 -0.4047
  151bbb     H7 4361   9.107   9.051   6.346 -1.8409 -1.2223  0.0574
  151bbb     H8 4362   9.199   9.037   6.500  1.0626 -2.9764  1.1273
  151bbb     C5 4363   9.582   8.839   6.359  0.1946 -0.0269  0.3375
  151bbb     H9 4364   9.676   8.796   6.326  1.4554  2.5828  0.2457
  151bbb    H10 4365   9.528   8.759   6.411  0.4794  0.7731  1.9438
  151bbb     C6 4366   9.423   9.125   6.070  0.3074  0.4802  0.2885
  151bbb    H11 4367   9.478   9.058   6.003  0.4602 -0.7342  1.5627
  151bbb    H12 4368   9.506   9.156   6.135  1.4538  0.0087 -0.9016
  151bbb     C7 4369   9.041   8.892   6.456 -0.9182 -0.3036  0.0586
  151bbb    H13 4370   9.073   8.819   6.532 -0.8129  0.3358  0.6396
  151bbb    H14 4371   9.014   8.836   6.366 -1.6059 -1.2286  0.8220
  151bbb     C8 4372   9.386   9.264   6.006 -0.1304 -0.0427  0.3024
  151bbb    H15 4373   9.469   9.327   5.974 -0.3179 -0.6235 -1.4668
  151bbb    H16 4374   9.336   9.335   6.073  1.4034  2.6520 -1.2589
  151bbb     C9 4375   9.608   8.960   6.457 -0.3231 -0.2060 -0.5872
  151bbb    H17 4376   9.514   8.981   6.510  0.2469 -0.0599  0.4052
  151bbb    H18 4377   9.633   9.049   6.398  0.9978 -0.1426  0.0080
  151bbb     O1 4378   8.927   8.961   6.511  0.0876  0.4826 -0.3266
  152bbb     N1 4379   7.780   8.960   6.722  0.1510 -0.2090 -0.5342
  152bbb     C1 4380   7.752   9.057   6.837  0.2542 -0.1103  0.4143
  152bbb     H1 4381   7.648   9.051   6.870  0.2020  2.0725  0.7877
  152bbb     H2 4382   7.758   9.161   6.803  3.0836 -0.8856 -1.9089
  152bbb     C2 4383   7.671   8.953   6.617 -0.1353 -0.4771 -0.0259
  152bbb     H3 4384   7.577   8.937   6.671  0.6938 -3.6886  0.6883
  152bbb     H4 4385   7.686   8.864   6.555 -0.9143 -1.2258  0.8265
  152bbb     C3 4386   7.918   8.976   6.663 -0.4878 -0.3294  0.2028
  152bbb     H5 4387   8.003   8.973   6.733 -0.0674  1.2962 -0.1981
  152bbb     H6 4388   7.935   9.073   6.615 -0.4990 -0.5400 -0.2282
  152bbb     C4 4389   7.951   8.865   6.565  0.3035  0.1229  0.0343
  152bbb     H7 4390   7.882   8.872   6.481 -0.3412  1.3933  0.6374
  152bbb     H8 4391   7.921   8.773   6.617 -0.1966  0.1305 -0.2439
  152bbb     C5 4392   7.841   9.053   6.957  0.3362  0.7857 -0.0515
  152bbb     H9 4393   7.813   9.137   7.021  0.2529  0.1073  0.8241
  152bbb    H10 4394   7.942   9.080   6.922  0.3504  0.8702  0.0571
  152bbb     C6 4395   7.665   9.075   6.525  0.6975  1.1201 -0.6568
  152bbb    H11 4396   7.756   9.085   6.465 -0.1311 -2.0722 -2.7163
  152bbb    H12 4397   7.656   9.161   6.592 -0.4675  0.3607  0.1843
  152bbb     C7 4398   8.100   8.857   6.522 -0.4843 -0.1366  0.0009
  152bbb    H13 4399   8.130   8.942   6.458  0.7690 -2.4730 -2.7729
  152bbb    H14 4400   8.118   8.768   6.460 -0.0491  1.2429 -1.9802
  152bbb     C8 4401   7.546   9.065   6.426 -0.6025  0.5457 -0.2555
  152bbb    H15 4402   7.572   8.974   6.371 -0.3304 -0.0737  0.8544
  152bbb    H16 4403   7.544   9.153   6.361 -0.7619 -0.4049 -1.5650
  152bbb     C9 4404   7.845   8.914   7.034 -0.6664 -0.6296 -0.1074
  152bbb    H17 4405   7.873   8.832   6.967  0.4512 -0.9521  0.7067
  152bbb    H18 4406   7.744   8.885   7.066 -1.3595  0.0697 -1.6065
  152bbb     O1 4407   8.181   8.845   6.641 -0.3907  0.3998  0.1651
  153bbb     N1 4408   8.544   7.143   6.001  0.2527  0.2165  0.2717
  153bbb     C1 4409   8.490   7.051   5.894 -0.1434 -0.1041 -0.1213
  153bbb     H1 4410   8.430   7.107   5.821  0.9533  2.1176  0.5884
  153bbb     H2 4411   8.422   6.978   5.938  0.4750 -1.5124 -1.3994
  153bbb     C2 4412   8.615   7.068   6.110 -0.6982  0.3132  0.2839
  153bbb     H3 4413   8.695   7.009   6.063  1.5269  0.5210  3.4829
  153bbb     H4 4414   8.540   7.003   6.157 -0.4249 -0.3082 -0.1189
  153bbb     C3 4415   8.616   7.264   5.955 -0.2852 -0.7524 -0.2845
  153bbb     H5 4416   8.720   7.235   5.934 -0.1462 -0.7431  0.3742
  153bbb     H6 4417   8.621   7.348   6.025 -0.2082 -1.7491  0.9351
  153bbb     C4 4418   8.555   7.331   5.831 -0.1399  0.3672  1.0361
  153bbb     H7 4419   8.447   7.339   5.852  0.2824  2.2422  2.8188
  153bbb     H8 4420   8.582   7.271   5.744 -2.7443 -1.6557  1.4732
  153bbb     C5 4421   8.599   6.972   5.811  0.1063  0.3284  0.8430
  153bbb     H9 4422   8.625   6.876   5.855  0.5356  0.5288  1.0260
  153bbb    H10 4423   8.688   7.034   5.829  1.6111 -2.1234  2.3054
  153bbb     C6 4424   8.688   7.141   6.225 -0.5183 -0.1117 -0.0206
  153bbb    H11 4425   8.615   7.206   6.274 -0.7608 -0.6024  0.2658
  153bbb    H12 4426   8.766   7.209   6.188 -0.3616  0.4399  1.2716
  153bbb     C7 4427   8.605   7.474   5.804 -0.0908  0.0193  0.1907
  153bbb    H13 4428   8.581   7.504   5.701  0.3440  1.6560  0.5314
  153bbb    H14 4429   8.714   7.475   5.813 -0.1751 -0.3639  1.2797
  153bbb     C8 4430   8.748   7.050   6.330  0.3401 -0.8469 -0.2358
  153bbb    H15 4431   8.802   7.107   6.407  1.2476 -1.0207 -0.7310
  153bbb    H16 4432   8.824   6.986   6.284  1.6806  0.7801 -0.3773
  153bbb     C9 4433   8.560   6.955   5.657  0.3703 -0.2764  0.0894
  153bbb    H17 4434   8.455   6.926   5.668 -0.0304  1.3628  1.0030
  153bbb    H18 4435   8.616   6.869   5.618 -0.0003  0.6702 -2.7167
  153bbb     O1 4436   8.535   7.560   5.888 -0.5826  0.3566 -0.6206
  154bbb     N1 4437   7.702   7.692   6.238 -0.0727 -0.1446 -0.4381
  154bbb     C1 4438   7.583   7.768   6.191 -0.6127 -0.0153 -0.6284
  154bbb     H1 4439   7.518   7.796   6.274 -0.1863  2.0099 -0.9400
  154bbb     H2 4440   7.520   7.703   6.128 -0.4074  0.0781 -0.9343
  154bbb     C2 4441   7.661   7.568   6.317  0.1567 -0.5048 -0.1134
  154bbb     H3 4442   7.744   7.516   6.366 -0.6099  0.5803  2.5221
  154bbb     H4 4443   7.604   7.492   6.263 -1.5164 -1.8072  3.1639
  154bbb     C3 4444   7.800   7.661   6.132 -0.0265 -0.0614  0.0682
  154bbb     H5 4445   7.828   7.753   6.080  1.6402 -1.5735 -1.8477
  154bbb     H6 4446   7.755   7.594   6.058  1.3712 -0.0071 -0.8725
  154bbb     C4 4447   7.923   7.574   6.178 -0.5005  0.3317  0.2540
  154bbb     H7 4448   7.987   7.563   6.090  1.1607 -0.2652  1.4947
  154bbb     H8 4449   7.891   7.472   6.204 -1.1975  0.7074  0.9210
  154bbb     C5 4450   7.610   7.898   6.123  0.3075  0.0038 -0.8169
  154bbb     H9 4451   7.677   7.891   6.037 -0.5205  0.7164 -1.5375
  154bbb    H10 4452   7.648   7.975   6.191 -0.6806  0.7832 -1.1256
  154bbb     C6 4453   7.577   7.609   6.443 -0.0335 -0.1498 -0.4637
  154bbb    H11 4454   7.538   7.513   6.480  0.9468 -1.0224 -1.5971
  154bbb    H12 4455   7.487   7.670   6.429 -0.7709 -0.2610  2.8643
  154bbb     C7 4456   7.998   7.634   6.298 -0.1603 -0.5320 -0.4758
  154bbb    H13 4457   7.942   7.613   6.390 -1.4732  0.6906 -0.9606
  154bbb    H14 4458   8.007   7.743   6.298 -1.5405 -0.4054 -0.6732
  154bbb     C8 4459   7.666   7.678   6.545 -0.0062 -0.0384 -0.1131
  154bbb    H15 4460   7.692   7.775   6.500 -0.3893  0.3238  0.4321
  154bbb    H16 4461   7.756   7.615   6.553 -0.9620 -1.4587 -0.2946
  154bbb     C9 4462   7.472   7.950   6.064  0.6876  0.1691  0.2891
  154bbb    H17 4463   7.487   8.048   6.017  0.6152 -0.7569 -1.7595
  154bbb    H18 4464   7.404   7.964   6.149  1.3690 -0.0898  0.8870
  154bbb     O1 4465   8.126   7.574   6.292  0.0123  0.1046  0.0215
  155bbb     N1 4466  10.452   6.487   8.145  0.0806  0.7943  1.7173
  155bbb     C1 4467  10.407   6.440   8.278 -0.0817 -0.2115  0.0765
  155bbb     H1 4468  10.485   6.461   8.352  0.1082 -0.4270 -0.0607
  155bbb     H2 4469  10.392   6.332   8.282 -0.0041 -0.2050  0.5914
  155bbb     C2 4470  10.533   6.384   8.087  0.5871  0.2062  0.6411
  155bbb     H3 4471  10.562   6.418   7.986  1.4123 -0.1870  0.7402
  155bbb     H4 4472  10.468   6.297   8.072  1.3951 -0.6571  1.9685
  155bbb     C3 4473  10.514   6.624   8.152 -0.7455 -0.1277 -0.4675
  155bbb     H5 4474  10.591   6.618   8.229 -0.2079 -2.7400 -1.1206
  155bbb     H6 4475  10.436   6.690   8.193 -1.3066 -0.1453 -1.4611
  155bbb     C4 4476  10.560   6.683   8.014  0.0482 -0.5111 -0.3598
  155bbb     H7 4477  10.473   6.675   7.947  0.1632 -2.6049 -0.3161
  155bbb     H8 4478  10.644   6.628   7.969 -1.0018 -2.5830  0.0965
  155bbb     C5 4479  10.277   6.514   8.327  0.0889 -0.3263  0.2598
  155bbb     H9 4480  10.188   6.485   8.270 -0.4478 -0.1212  0.9807
  155bbb    H10 4481  10.286   6.623   8.314 -0.2412 -0.4778 -1.3880
  155bbb     C6 4482  10.665   6.353   8.164 -0.6000 -0.0600  0.2209
  155bbb    H11 4483  10.651   6.275   8.240 -3.8114 -0.2939 -0.4508
  155bbb    H12 4484  10.704   6.447   8.204 -1.4094  1.2526 -1.8944
  155bbb     C7 4485  10.601   6.828   8.040 -0.2340 -0.2178 -0.6122
  155bbb    H13 4486  10.650   6.869   7.951  0.4077 -0.4265 -0.3552
  155bbb    H14 4487  10.671   6.830   8.125 -0.5247  0.2874 -0.3793
  155bbb     C8 4488  10.771   6.297   8.066  0.2599 -0.2575  0.1192
  155bbb    H15 4489  10.801   6.373   7.994  2.0730  0.7409  1.8411
  155bbb    H16 4490  10.730   6.206   8.020  0.9397 -0.2888 -0.4183
  155bbb     C9 4491  10.229   6.480   8.472 -0.2368  0.2804  0.7793
  155bbb    H17 4492  10.176   6.386   8.453 -0.8467  0.6466  0.6353
  155bbb    H18 4493  10.152   6.552   8.502 -2.0455 -1.8175  1.4032
  155bbb     O1 4494  10.489   6.910   8.076  0.2630  0.4861 -0.7765
  156bbb     N1 4495  10.625   7.919   8.217 -0.1487  0.5036 -0.0656
  156bbb     C1 4496  10.599   8.049   8.279 -0.0302 -0.4305  0.4215
  156bbb     H1 4497  10.669   8.070   8.361  0.4828  0.4590 -0.2175
  156bbb     H2 4498  10.495   8.054   8.314 -1.0366 -0.8077 -2.3117
  156bbb     C2 4499  10.770   7.899   8.170  0.7423 -0.0939 -0.1678
  156bbb     H3 4500  10.800   7.995   8.124 -0.0959 -0.5990 -1.8345
  156bbb     H4 4501  10.772   7.827   8.088 -3.1660  0.2469 -0.7565
  156bbb     C3 4502  10.570   7.806   8.299 -0.2098 -0.1271  0.0302
  156bbb     H5 4503  10.471   7.841   8.330  0.7383  2.6128  0.1865
  156bbb     H6 4504  10.636   7.789   8.385 -2.1874 -0.3386  1.5853
  156bbb     C4 4505  10.555   7.684   8.212 -1.2034  0.3489 -0.0739
  156bbb     H7 4506  10.651   7.661   8.165 -1.8036 -0.5934 -0.8798
  156bbb     H8 4507  10.488   7.707   8.127  0.7160  2.0878 -1.2009
  156bbb     C5 4508  10.611   8.165   8.181 -0.0539 -0.0990  0.6535
  156bbb     H9 4509  10.554   8.147   8.089  1.2412 -1.2406  0.0402
  156bbb    H10 4510  10.714   8.178   8.146  0.5865 -1.4095  1.9415
  156bbb     C6 4511  10.872   7.852   8.272 -0.1861 -0.0861 -0.5979
  156bbb    H11 4512  10.842   7.747   8.281 -0.5307 -0.0324 -1.0740
  156bbb    H12 4513  10.862   7.906   8.367  0.0612 -1.5371  0.2711
  156bbb     C7 4514  10.495   7.571   8.301  0.2121  0.0177  0.1115
  156bbb    H13 4515  10.542   7.556   8.399 -1.8013 -0.3932  1.0651
  156bbb    H14 4516  10.513   7.480   8.241 -1.1480  0.0984 -0.4544
  156bbb     C8 4517  11.017   7.854   8.226  0.2975  0.2048 -0.8891
  156bbb    H15 4518  11.079   7.855   8.316  2.8989 -3.3861 -2.4038
  156bbb    H16 4519  11.036   7.949   8.173  0.2225  0.6210 -0.1779
  156bbb     C9 4520  10.551   8.300   8.242  0.3132  0.0260  0.2324
  156bbb    H17 4521  10.589   8.302   8.345  0.0697 -0.8610  0.3559
  156bbb    H18 4522  10.442   8.298   8.254  0.2549 -0.3721 -0.3359
  156bbb     O1 4523  10.357   7.604   8.317  0.2385 -0.4239  0.3729
  157bbb     N1 4524   9.472   6.502   6.004  0.4194 -0.2081  0.0089
  157bbb     C1 4525   9.555   6.582   5.907 -0.1139 -0.0589  0.0644
  157bbb     H1 4526   9.633   6.519   5.863  1.5626  1.7896  0.2370
  157bbb     H2 4527   9.616   6.659   5.954  0.0855 -1.8361  2.9588
  157bbb     C2 4528   9.388   6.392   5.934  0.7586  0.1166  0.2493
  157bbb     H3 4529   9.455   6.341   5.864  1.6186  0.0395  1.1204
  157bbb     H4 4530   9.294   6.420   5.883  1.4419  2.0087 -0.0496
  157bbb     C3 4531   9.402   6.588   6.100 -0.2320  0.8090  0.7424
  157bbb     H5 4532   9.354   6.517   6.169 -0.6316  0.9562  0.6136
  157bbb     H6 4533   9.339   6.649   6.034  2.3972  2.1260 -0.7258
  157bbb     C4 4534   9.492   6.680   6.183 -0.0135  0.9464  0.3002
  157bbb     H7 4535   9.435   6.723   6.267 -2.4159 -2.6106  0.6834
  157bbb     H8 4536   9.522   6.767   6.123  1.0710  1.3629  1.3984
  157bbb     C5 4537   9.470   6.639   5.789  0.1163 -0.6319 -0.2251
  157bbb     H9 4538   9.391   6.695   5.840  1.7717  0.4906  1.2317
  157bbb    H10 4539   9.421   6.555   5.738 -1.1307 -0.7456  1.0939
  157bbb     C6 4540   9.359   6.276   6.028 -0.6551  0.0347  0.0458
  157bbb    H11 4541   9.300   6.301   6.117 -0.1406  0.5717  0.2408
  157bbb    H12 4542   9.456   6.241   6.063 -0.0354  1.7086  0.1109
  157bbb     C7 4543   9.617   6.605   6.242  0.7584 -0.2112 -0.0453
  157bbb    H13 4544   9.672   6.555   6.161 -0.2718 -0.1867 -0.7758
  157bbb    H14 4545   9.577   6.526   6.307 -0.6756  1.2207  0.8532
  157bbb     C8 4546   9.286   6.157   5.964  0.9558 -0.0074  0.0793
  157bbb    H15 4547   9.250   6.087   6.040 -1.4213  2.2291  1.1680
  157bbb    H16 4548   9.361   6.107   5.901  1.1674 -0.9629  1.0655
  157bbb     C9 4549   9.555   6.719   5.683  0.3939 -0.1408  0.3214
  157bbb    H17 4550   9.597   6.816   5.714  0.8192  0.5078 -2.0391
  157bbb    H18 4551   9.482   6.737   5.603  0.5639 -1.9508 -0.2867
  157bbb     O1 4552   9.696   6.703   6.315  0.2410 -0.2355 -0.0198
  158bbb     N1 4553   9.962   7.275   5.959  0.4882  0.1954  0.6300
  158bbb     C1 4554   9.943   7.134   5.901  0.0563  0.5471  0.0060
  158bbb     H1 4555  10.044   7.090   5.900 -0.3271 -0.8234  3.8645
  158bbb     H2 4556   9.902   7.148   5.800  1.7800 -0.1467 -0.8261
  158bbb     C2 4557   9.834   7.352   5.953  0.5935  0.3511 -0.4508
  158bbb     H3 4558   9.771   7.318   6.036  0.6836  0.1375 -0.4690
  158bbb     H4 4559   9.780   7.344   5.857 -3.3804  0.3587  1.5798
  158bbb     C3 4560  10.038   7.280   6.092  0.3547 -0.8694  0.2318
  158bbb     H5 4561   9.969   7.264   6.177  1.0928 -0.0173  1.0257
  158bbb     H6 4562  10.055   7.388   6.101 -0.8072 -0.6383 -0.1458
  158bbb     C4 4563  10.166   7.192   6.094 -0.5100 -0.1993 -0.4352
  158bbb     H7 4564  10.231   7.207   6.008 -0.3466  0.2049 -0.2428
  158bbb     H8 4565  10.126   7.089   6.092  2.5651 -1.5023 -0.4504
  158bbb     C5 4566   9.850   7.037   5.974 -0.3905 -0.6691 -0.9870
  158bbb     H9 4567   9.754   7.085   5.998 -0.3301 -1.2853  0.6251
  158bbb    H10 4568   9.888   7.019   6.075 -2.1413  0.1980 -0.1307
  158bbb     C6 4569   9.845   7.500   5.976  0.1731  0.6524 -0.1859
  158bbb    H11 4570   9.873   7.517   6.081 -1.9690  1.5785  0.2792
  158bbb    H12 4571   9.750   7.554   5.968 -0.3593  0.2347  2.3308
  158bbb     C7 4572  10.233   7.209   6.228 -0.5577 -0.1796 -1.2390
  158bbb    H13 4573  10.154   7.228   6.302 -0.3160 -0.9386 -0.7711
  158bbb    H14 4574  10.310   7.287   6.224  1.2384 -1.7142  1.1212
  158bbb     C8 4575   9.945   7.559   5.872 -0.6767 -0.1299 -0.3550
  158bbb    H15 4576   9.924   7.526   5.769  2.2867 -1.5017 -0.6346
  158bbb    H16 4577  10.046   7.521   5.893 -1.1460 -0.7543  0.8494
  158bbb     C9 4578   9.810   6.903   5.906  0.0542  0.4655  0.3620
  158bbb    H17 4579   9.761   6.933   5.813 -1.6314  0.9849  1.3730
  158bbb    H18 4580   9.731   6.857   5.967 -0.6892 -1.2957 -1.7890
  158bbb     O1 4581  10.306   7.090   6.264  0.3657  0.4303  0.8093
  159bbb     N1 4582   5.993   6.702  11.594 -0.0830  0.2868 -0.7317
  159bbb     C1 4583   5.959   6.618  11.714 -0.1378 -0.1542 -0.6031
  159bbb     H1 4584   5.973   6.510  11.700 -3.8813 -0.7266 -1.1286
  159bbb     H2 4585   5.850   6.620  11.727  0.1607  0.3937  2.5836
  159bbb     C2 4586   6.136   6.677  11.546 -0.3086 -0.1603  0.0249
  159bbb     H3 4587   6.132   6.587  11.484 -1.9669 -0.7431  0.9540
  159bbb     H4 4588   6.207   6.664  11.628 -0.4589  0.7528  0.3177
  159bbb     C3 4589   5.891   6.708  11.489  0.3502 -0.0147  0.0810
  159bbb     H5 4590   5.872   6.604  11.460 -0.5488 -0.1389  1.0679
  159bbb     H6 4591   5.922   6.753  11.393  0.1069 -1.4069 -0.6785
  159bbb     C4 4592   5.751   6.771  11.530 -0.5433  0.0455  0.2007
  159bbb     H7 4593   5.710   6.717  11.616  1.9678 -2.4758 -0.0464
  159bbb     H8 4594   5.686   6.762  11.442 -0.8483 -0.7050  0.5000
  159bbb     C5 4595   6.018   6.661  11.852  0.2298  0.4574  0.1145
  159bbb     H9 4596   6.127   6.647  11.853 -0.0035 -1.9622 -0.8705
  159bbb    H10 4597   5.991   6.592  11.933 -0.8863 -0.4077 -0.9605
  159bbb     C6 4598   6.180   6.805  11.473  0.6311 -0.1003 -0.3282
  159bbb    H11 4599   6.105   6.824  11.395  0.1760 -0.9500 -0.1171
  159bbb    H12 4600   6.273   6.787  11.418  0.1835 -2.9296 -0.2918
  159bbb     C7 4601   5.774   6.928  11.565  0.0253 -0.4208  0.2149
  159bbb    H13 4602   5.871   6.962  11.527 -0.1548  1.2833  1.1568
  159bbb    H14 4603   5.794   6.934  11.673  3.0321 -1.9860 -0.1277
  159bbb     C8 4604   6.202   6.921  11.567 -0.7599 -0.3548 -0.1137
  159bbb    H15 4605   6.112   6.944  11.625 -0.7606  1.1580 -0.6653
  159bbb    H16 4606   6.222   7.016  11.516 -3.2028 -0.0734 -0.6755
  159bbb     C9 4607   5.979   6.802  11.892  0.4652  0.3827 -0.3692
  159bbb    H17 4608   6.012   6.868  11.810  0.0527  1.1884  0.0919
  159bbb    H18 4609   6.026   6.845  11.982 -2.0181  3.1541 -0.2076
  159bbb     O1 4610   5.656   7.003  11.527 -0.3896  0.3304 -0.0915
  160bbb     N1 4611   5.961   8.208  11.821  0.2202 -0.5127 -0.0895
  160bbb     C1 4612   5.921   8.345  11.761 -0.1901 -0.8378 -0.3339
  160bbb     H1 4613   5.814   8.353  11.785  0.2266  0.4483  1.2780
  160bbb     H2 4614   5.927   8.342  11.652  0.1301 -2.8578 -0.3162
  160bbb     C2 4615   6.099   8.163  11.813 -0.0451 -0.3657  0.0395
  160bbb     H3 4616   6.159   8.244  11.855 -1.8596  1.3386 -0.5227
  160bbb     H4 4617   6.136   8.156  11.710  0.2337  1.4719 -0.0067
  160bbb     C3 4618   5.852   8.111  11.809 -0.0499 -0.4028  0.1912
  160bbb     H5 4619   5.755   8.155  11.835  0.8367  2.2060 -0.6925
  160bbb     H6 4620   5.862   8.031  11.884  1.8783 -0.4783 -0.1129
  160bbb     C4 4621   5.828   8.049  11.668  0.0544 -0.2452  1.0506
  160bbb     H7 4622   5.918   7.993  11.642 -0.2272  0.4482 -1.7949
  160bbb     H8 4623   5.822   8.128  11.592  2.9408  2.0920  3.0196
  160bbb     C5 4624   6.001   8.467  11.819  0.0673 -0.6287 -0.2042
  160bbb     H9 4625   6.109   8.449  11.811  0.6105  1.6417  1.1661
  160bbb    H10 4626   5.977   8.484  11.924  0.5386  0.8649 -0.3160
  160bbb     C6 4627   6.123   8.030  11.886  0.0384  0.1707 -0.1835
  160bbb    H11 4628   6.065   7.944  11.851  0.6374 -0.3778  0.1600
  160bbb    H12 4629   6.111   8.044  11.995  3.0729 -1.5000  0.4810
  160bbb     C7 4630   5.693   7.976  11.663 -0.3280 -0.2554 -0.1244
  160bbb    H13 4631   5.610   8.049  11.667  1.0261  1.3306  0.1215
  160bbb    H14 4632   5.686   7.916  11.755  0.6888  1.5422  1.1833
  160bbb     C8 4633   6.273   7.985  11.873 -0.4448 -0.3792  0.7213
  160bbb    H15 4634   6.354   8.055  11.850  0.0679 -1.2751 -0.3072
  160bbb    H16 4635   6.289   7.922  11.784 -1.3398  2.7897 -1.8781
  160bbb     C9 4636   5.970   8.605  11.756  0.0988 -0.9683 -0.5956
  160bbb    H17 4637   6.019   8.619  11.659 -1.2682 -1.1382 -1.3415
  160bbb    H18 4638   6.009   8.677  11.828 -0.7701 -1.6858  0.6344
  160bbb     O1 4639   5.687   7.892  11.542 -0.0651 -0.3806  0.3204
  161bbb     N1 4640   7.842   6.236  11.176 -0.3495 -0.1094 -0.2355
  161bbb     C1 4641   7.928   6.235  11.297  0.2946 -0.1503  0.4457
  161bbb     H1 4642   7.874   6.242  11.392 -0.7514  1.6492 -0.2268
  161bbb     H2 4643   7.989   6.326  11.307  0.8992 -0.5085  0.1044
  161bbb     C2 4644   7.929   6.232  11.052  0.1436 -0.2716  0.3128
  161bbb     H3 4645   8.005   6.153  11.045  0.3455 -0.1454  0.9908
  161bbb     H4 4646   7.990   6.323  11.059  1.1509 -0.9708  1.0340
  161bbb     C3 4647   7.736   6.339  11.184 -0.2743  1.1068  0.1188
  161bbb     H5 4648   7.679   6.320  11.275  0.5462  0.8104  0.5782
  161bbb     H6 4649   7.668   6.323  11.100 -1.0881  1.6713  0.6497
  161bbb     C4 4650   7.793   6.484  11.194  0.2617 -0.4741  0.2935
  161bbb     H7 4651   7.885   6.500  11.137 -0.0735 -2.9214 -1.0821
  161bbb     H8 4652   7.816   6.507  11.299 -3.6868  3.0713  0.6316
  161bbb     C5 4653   8.026   6.121  11.302 -1.0372  0.4593 -0.2155
  161bbb     H9 4654   8.132   6.143  11.283 -0.9511 -0.4574 -0.8337
  161bbb    H10 4655   8.003   6.039  11.234 -2.5902  0.5142  0.2146
  161bbb     C6 4656   7.853   6.214  10.915  0.3459 -0.0506 -0.1505
  161bbb    H11 4657   7.935   6.205  10.843 -0.2724  1.0336 -1.0172
  161bbb    H12 4658   7.797   6.306  10.896 -0.6339 -0.1194  2.0941
  161bbb     C7 4659   7.690   6.594  11.162 -0.3765  0.4090 -0.2980
  161bbb    H13 4660   7.631   6.570  11.072 -2.2202  2.9106  0.1135
  161bbb    H14 4661   7.748   6.686  11.145  2.2427 -1.7211 -4.5019
  161bbb     C8 4662   7.767   6.090  10.927  0.3807 -0.1127 -0.1913
  161bbb    H15 4663   7.830   6.006  10.958  1.2186  0.5127 -0.1672
  161bbb    H16 4664   7.693   6.097  11.007  1.2211  0.9037  0.5230
  161bbb     C9 4665   8.024   6.047  11.443  0.7640 -0.7043  0.0672
  161bbb    H17 4666   7.923   6.009  11.464  0.2285  0.5190 -0.1973
  161bbb    H18 4667   8.057   6.110  11.526 -1.2107  0.9729 -0.3640
  161bbb     O1 4668   7.598   6.597  11.272  0.7783 -0.8477 -0.2742
  162bbb     N1 4669   8.184   7.601  11.246 -0.6565 -0.5283 -0.0499
  162bbb     C1 4670   8.303   7.671  11.305  0.0144  0.0429  0.2190
  162bbb     H1 4671   8.328   7.768  11.259 -0.2858  0.7064  1.4168
  162bbb     H2 4672   8.390   7.612  11.273  1.1081  1.8584 -0.3369
  162bbb     C2 4673   8.208   7.582  11.102  0.9134 -0.4961 -0.3183
  162bbb     H3 4674   8.127   7.532  11.048 -0.8911  1.5650  0.3740
  162bbb     H4 4675   8.289   7.507  11.100 -0.1621 -1.6752 -1.0046
  162bbb     C3 4676   8.139   7.483  11.328  0.6402 -0.5107 -0.4377
  162bbb     H5 4677   8.121   7.518  11.430  1.3891  2.7049 -1.2822
  162bbb     H6 4678   8.206   7.396  11.334 -1.4845 -2.2770 -0.9278
  162bbb     C4 4679   8.010   7.409  11.280  0.0799 -0.0990  0.8692
  162bbb     H7 4680   8.023   7.388  11.173  0.3337 -0.3158  0.9423
  162bbb     H8 4681   7.919   7.469  11.271  0.4582  0.2280 -1.9107
  162bbb     C5 4682   8.321   7.677  11.456  0.6943 -0.0584 -0.3075
  162bbb     H9 4683   8.410   7.731  11.491  0.3125  1.0156 -0.9543
  162bbb    H10 4684   8.323   7.575  11.496 -1.4867 -0.1478 -0.3184
  162bbb     C6 4685   8.242   7.707  11.016 -0.0223 -0.2947 -0.1780
  162bbb    H11 4686   8.280   7.665  10.922  0.8346 -1.3646  0.6244
  162bbb    H12 4687   8.325   7.767  11.055  1.1143 -1.7923 -0.2003
  162bbb     C7 4688   7.974   7.282  11.361  0.5134 -0.8647  0.1401
  162bbb    H13 4689   7.967   7.317  11.464 -1.3022  2.9096 -1.0924
  162bbb    H14 4690   8.051   7.204  11.356  0.4379 -1.0415  1.4813
  162bbb     C8 4691   8.124   7.802  10.996  0.7667  0.3972 -1.0268
  162bbb    H15 4692   8.107   7.855  11.091  0.5816  2.0525 -1.9357
  162bbb    H16 4693   8.026   7.755  10.978 -0.2027  1.4694  1.0597
  162bbb     C9 4694   8.197   7.752  11.524  0.0703 -0.0339  0.0188
  162bbb    H17 4695   8.099   7.728  11.481 -0.2513  0.2515  0.5831
  162bbb    H18 4696   8.207   7.861  11.515  0.1192  0.0090  0.5911
  162bbb     O1 4697   7.843   7.239  11.316 -0.1204 -0.9316 -0.1190
  163bbb     N1 4698   5.910   6.590   8.791  0.2046  0.0871 -0.0858
  163bbb     C1 4699   5.883   6.716   8.716  0.0642  0.1023  0.0632
  163bbb     H1 4700   5.852   6.683   8.616  1.6341 -0.1239 -0.3713
  163bbb     H2 4701   5.967   6.785   8.706 -0.9954  1.4137 -0.0002
  163bbb     C2 4702   6.003   6.496   8.720 -0.1148  0.2765  0.3294
  163bbb     H3 4703   6.012   6.410   8.788 -1.4579 -0.8503 -0.8498
  163bbb     H4 4704   6.099   6.550   8.720  1.0467 -1.6577  1.5458
  163bbb     C3 4705   5.945   6.621   8.934  0.0069 -0.2476  0.5472
  163bbb     H5 4706   5.940   6.531   8.997 -2.2055  1.5446  3.2142
  163bbb     H6 4707   5.858   6.676   8.973 -1.6785 -1.9574 -0.6204
  163bbb     C4 4708   6.078   6.694   8.951  0.3623 -0.0960  0.1814
  163bbb     H7 4709   6.120   6.752   8.868  1.5881 -1.8014 -0.4449
  163bbb     H8 4710   6.159   6.626   8.979 -0.1158  0.2665  2.7654
  163bbb     C5 4711   5.769   6.808   8.766  0.1750 -0.0425  0.2131
  163bbb     H9 4712   5.764   6.894   8.697  0.8536  0.2123  0.4682
  163bbb    H10 4713   5.805   6.851   8.860 -0.0679 -1.7012  1.0939
  163bbb     C6 4714   5.958   6.437   8.583 -0.6294  0.3028  0.0503
  163bbb    H11 4715   5.923   6.514   8.514 -3.2879 -0.5696  0.3226
  163bbb    H12 4716   5.875   6.369   8.604  1.4785 -2.7094 -0.6669
  163bbb     C7 4717   6.073   6.771   9.082 -0.2900 -0.2329 -0.3014
  163bbb    H13 4718   5.983   6.834   9.086 -0.9469 -1.1186  4.0910
  163bbb    H14 4719   6.160   6.838   9.088  1.0896 -1.9514 -0.3160
  163bbb     C8 4720   6.065   6.351   8.528 -0.5630 -0.1411 -0.5449
  163bbb    H15 4721   6.092   6.302   8.623 -1.2089  1.9797  0.8076
  163bbb    H16 4722   6.150   6.411   8.495  1.1802 -0.6453  2.5813
  163bbb     C9 4723   5.636   6.739   8.800 -0.3563  0.0288  0.6195
  163bbb    H17 4724   5.649   6.668   8.883 -0.5995 -1.4078 -0.5355
  163bbb    H18 4725   5.617   6.673   8.715 -1.3571 -0.4270  1.1842
  163bbb     O1 4726   6.070   6.679   9.197  0.1815  0.1653 -0.2305
  164bbb     N1 4727   6.067   5.523   9.986  0.1224  0.0281  0.6377
  164bbb     C1 4728   5.979   5.420  10.041 -0.3080  0.1003 -0.2265
  164bbb     H1 4729   5.975   5.327   9.982 -0.6899  0.3029 -0.5308
  164bbb     H2 4730   5.879   5.466  10.042  0.4379  1.7824 -0.5759
  164bbb     C2 4731   6.210   5.479   9.964  0.9682 -0.5927 -0.4996
  164bbb     H3 4732   6.247   5.434  10.057  0.0926  1.1083  0.7438
  164bbb     H4 4733   6.264   5.574   9.950 -1.3410  0.8213 -0.3488
  164bbb     C3 4734   6.016   5.601   9.867 -0.1963 -0.2836 -0.0147
  164bbb     H5 4735   5.913   5.624   9.896  0.0681 -1.6243  2.3171
  164bbb     H6 4736   6.005   5.524   9.790  2.7692 -1.3324  0.4934
  164bbb     C4 4737   6.089   5.732   9.822  1.1012  0.4411  0.0811
  164bbb     H7 4738   6.190   5.707   9.787  2.2119  1.6724  2.1971
  164bbb     H8 4739   6.097   5.796   9.910 -2.1959  2.3455 -0.8235
  164bbb     C5 4740   6.013   5.379  10.186  0.9671  0.3901  0.1616
  164bbb     H9 4741   5.997   5.460  10.258  0.1939  1.0971 -0.7684
  164bbb    H10 4742   6.120   5.366  10.205  0.9193 -0.7509 -0.2658
  164bbb     C6 4743   6.240   5.370   9.856 -0.7628 -0.7551 -0.2688
  164bbb    H11 4744   6.230   5.407   9.753  0.0344  0.4242  0.0595
  164bbb    H12 4745   6.160   5.297   9.872 -0.5716 -0.7827  0.5941
  164bbb     C7 4746   6.022   5.819   9.706  0.1476  0.4839 -0.1733
  164bbb    H13 4747   5.913   5.826   9.718 -0.1197  1.3079 -2.5786
  164bbb    H14 4748   6.027   5.762   9.613 -2.2326 -0.6199  0.2648
  164bbb     C8 4749   6.384   5.303   9.881  0.0524 -0.6415  0.3343
  164bbb    H15 4750   6.392   5.270   9.985 -0.1805 -0.0691  0.5382
  164bbb    H16 4751   6.462   5.378   9.864  1.0083 -1.1513  2.2050
  164bbb     C9 4752   5.947   5.244  10.239 -0.3900  0.2810 -0.5541
  164bbb    H17 4753   5.838   5.246  10.230 -0.3323 -1.1848 -2.3469
  164bbb    H18 4754   5.977   5.219  10.341  0.3974 -2.2297 -1.3103
  164bbb     O1 4755   6.080   5.951   9.702 -0.0423  0.2903  0.0619
  165bbb     N1 4756   7.671   5.500   9.978 -0.7983 -0.0236  0.0565
  165bbb     C1 4757   7.561   5.407  10.023  0.0905 -0.8732  0.4641
  165bbb     H1 4758   7.508   5.449  10.109  0.1027 -2.7754  1.4480
  165bbb     H2 4759   7.596   5.308  10.054  0.2369 -1.0363 -0.1948
  165bbb     C2 4760   7.759   5.514  10.100  0.0459  0.6544  0.9013
  165bbb     H3 4761   7.779   5.410  10.132  1.0949  0.4613 -0.2646
  165bbb     H4 4762   7.713   5.577  10.176  0.1834  2.6179 -0.5651
  165bbb     C3 4763   7.631   5.630   9.907 -0.3269 -0.1508 -0.1861
  165bbb     H5 4764   7.598   5.617   9.804 -0.1095 -0.6703 -0.1925
  165bbb     H6 4765   7.723   5.689   9.900  0.5326 -1.2000  1.3504
  165bbb     C4 4766   7.523   5.708   9.979 -0.4848  0.2523 -0.6381
  165bbb     H7 4767   7.539   5.712  10.088 -0.6678  1.0426 -0.6313
  165bbb     H8 4768   7.426   5.659   9.968 -0.7187 -0.5350  3.2910
  165bbb     C5 4769   7.455   5.373   9.917  0.4773 -0.4366 -0.2592
  165bbb     H9 4770   7.403   5.458   9.870  0.7479 -0.1724 -0.0867
  165bbb    H10 4771   7.374   5.314   9.959  0.1148  0.7075  0.6976
  165bbb     C6 4772   7.897   5.581  10.077  0.4989 -0.1572  0.0209
  165bbb    H11 4773   7.881   5.683  10.038 -0.5112 -0.1280  0.4757
  165bbb    H12 4774   7.954   5.526  10.003  2.0260 -2.7831  2.9235
  165bbb     C7 4775   7.521   5.849   9.928  0.5662  0.0666 -0.2399
  165bbb    H13 4776   7.511   5.860   9.819 -0.9629 -0.0342 -0.1364
  165bbb    H14 4777   7.612   5.901   9.958  0.5201 -1.2691  2.4888
  165bbb     C8 4778   7.976   5.608  10.211 -0.3491  0.5038  0.1053
  165bbb    H15 4779   7.918   5.685  10.262 -0.7866 -0.2299  0.7313
  165bbb    H16 4780   8.077   5.642  10.185 -0.8149  1.2967 -0.7365
  165bbb     C9 4781   7.521   5.297   9.794  0.4720  0.1041  0.0228
  165bbb    H17 4782   7.603   5.355   9.751  0.9550 -1.3000 -1.0201
  165bbb    H18 4783   7.441   5.280   9.721 -0.0189 -1.8717  0.9296
  165bbb     O1 4784   7.417   5.928   9.988 -0.2828 -0.0556 -0.3685
  166bbb     N1 4785   6.459   5.622  10.458  0.1446  0.5478  0.3101
  166bbb     C1 4786   6.495   5.550  10.582 -0.1175  0.7682 -0.3255
  166bbb     H1 4787   6.422   5.573  10.661  1.3340  0.8470  1.0544
  166bbb     H2 4788   6.594   5.583  10.615  1.3978 -1.8024 -1.9329
  166bbb     C2 4789   6.320   5.604  10.415  0.4429  0.4145  0.3378
  166bbb     H3 4790   6.304   5.498  10.392  2.8064 -0.1605  1.0147
  166bbb     H4 4791   6.299   5.651  10.318  1.0288 -0.2173 -0.1052
  166bbb     C3 4792   6.565   5.598  10.350  0.4180 -0.5659  0.0789
  166bbb     H5 4793   6.535   5.637  10.252  0.7599 -2.6663 -0.9200
  166bbb     H6 4794   6.577   5.491  10.331  1.1929 -0.2980 -1.0162
  166bbb     C4 4795   6.697   5.665  10.389 -0.4617 -0.1102  0.1357
  166bbb     H7 4796   6.759   5.606  10.457  2.7660  0.5786 -1.9453
  166bbb     H8 4797   6.673   5.760  10.438  0.9415 -0.4926  1.6303
  166bbb     C5 4798   6.505   5.397  10.572  0.1157  0.4715 -0.2305
  166bbb     H9 4799   6.595   5.374  10.512  0.9548  0.9824  0.8011
  166bbb    H10 4800   6.416   5.355  10.523  0.7467  0.3980 -1.3629
  166bbb     C6 4801   6.215   5.654  10.513 -0.2645  0.0316 -0.1815
  166bbb    H11 4802   6.208   5.588  10.600 -1.1413  0.9336  0.4594
  166bbb    H12 4803   6.119   5.650  10.461  0.5365 -1.2286 -1.6288
  166bbb     C7 4804   6.784   5.699  10.261 -0.7189  0.0914  0.1197
  166bbb    H13 4805   6.718   5.753  10.192 -2.9361 -0.3466  1.7758
  166bbb    H14 4806   6.827   5.612  10.210  0.1227  0.8883 -0.5894
  166bbb     C8 4807   6.238   5.802  10.555  0.9869 -0.1682 -0.7728
  166bbb    H15 4808   6.268   5.857  10.465  4.6263  2.6820  1.8544
  166bbb    H16 4809   6.324   5.805  10.623  0.9623 -2.1261 -0.5864
  166bbb     C9 4810   6.524   5.345  10.716  0.3619 -0.0254  0.2321
  166bbb    H17 4811   6.429   5.357  10.770  0.8632  3.2210  0.6029
  166bbb    H18 4812   6.595   5.412  10.766  0.5842 -1.2334  1.6003
  166bbb     O1 4813   6.892   5.793  10.298 -0.3204  0.0373  0.1989
  167bbb     N1 4814   6.469   9.937   8.838 -0.2101  0.1388  0.2356
  167bbb     C1 4815   6.607   9.931   8.894 -0.1103 -0.4030 -0.0306
  167bbb     H1 4816   6.608   9.972   8.996 -0.2352  1.0051 -0.5864
  167bbb     H2 4817   6.679   9.989   8.835  0.4573 -1.4743 -0.4213
  167bbb     C2 4818   6.416  10.080   8.814  0.0580  0.3969  0.2496
  167bbb     H3 4819   6.431  10.134   8.908  3.5675  1.7771 -0.9142
  167bbb     H4 4820   6.310  10.067   8.791 -0.1392  2.3600 -0.1371
  167bbb     C3 4821   6.374   9.852   8.910  0.7321  0.2928  0.3154
  167bbb     H5 4822   6.416   9.752   8.895  0.9507  0.4386 -0.0476
  167bbb     H6 4823   6.280   9.850   8.853  2.7647 -2.2141 -3.4016
  167bbb     C4 4824   6.341   9.896   9.056  0.3208  0.1277 -0.1633
  167bbb     H7 4825   6.318  10.003   9.061  2.7310  0.6954 -0.1773
  167bbb     H8 4826   6.424   9.900   9.127 -0.3683 -0.6917  0.7167
  167bbb     C5 4827   6.668   9.786   8.902 -0.8237 -0.4589 -0.3980
  167bbb     H9 4828   6.661   9.745   8.801  1.0895 -3.1748  0.4514
  167bbb    H10 4829   6.607   9.722   8.967 -1.0295  2.0350  2.0600
  167bbb     C6 4830   6.466  10.164   8.694  0.1951  0.4028 -0.2943
  167bbb    H11 4831   6.384  10.235   8.680 -0.2563  0.0746  0.6223
  167bbb    H12 4832   6.472  10.095   8.608 -1.2417 -2.0194  1.4185
  167bbb     C7 4833   6.233   9.808   9.125  0.8311  0.4273  0.1659
  167bbb    H13 4834   6.144   9.796   9.062  0.8777  0.8864  0.0134
  167bbb    H14 4835   6.202   9.859   9.217  0.5999 -1.3490  1.1393
  167bbb     C8 4836   6.589  10.248   8.718  0.3090 -0.6410  0.3773
  167bbb    H15 4837   6.675  10.182   8.737  1.4959  0.8443  0.3913
  167bbb    H16 4838   6.567  10.317   8.801  1.4423  0.9844 -0.6016
  167bbb     C9 4839   6.820   9.772   8.923 -0.2873  0.3586 -0.0899
  167bbb    H17 4840   6.861   9.826   8.837  0.1495 -0.6600 -0.5445
  167bbb    H18 4841   6.851   9.667   8.931  2.0642  0.8857 -1.5001
  167bbb     O1 4842   6.290   9.686   9.160 -0.0163 -0.1032 -0.0943
  168bbb     N1 4843   6.926   9.621   9.915 -0.2477  0.3339  0.5886
  168bbb     C1 4844   7.075   9.634   9.914  0.1241 -0.3813  0.7329
  168bbb     H1 4845   7.132   9.540   9.909 -0.3158 -0.6148 -3.2577
  168bbb     H2 4846   7.102   9.683  10.008 -0.0987  0.0835  0.5620
  168bbb     C2 4847   6.865   9.741   9.955  0.0467  0.2875  0.6987
  168bbb     H3 4848   6.845   9.815   9.876 -1.3583 -0.0492  0.7022
  168bbb     H4 4849   6.936   9.787  10.024 -0.1588 -0.9300  1.7543
  168bbb     C3 4850   6.858   9.546   9.804 -0.2980  0.2367 -0.0783
  168bbb     H5 4851   6.884   9.604   9.714  1.2748  0.9314  0.7829
  168bbb     H6 4852   6.750   9.546   9.820 -0.3228  1.2872 -0.1619
  168bbb     C4 4853   6.908   9.401   9.788 -0.1663  0.8526  0.0654
  168bbb     H7 4854   6.878   9.350   9.881  1.0453  0.7507  0.4183
  168bbb     H8 4855   7.016   9.406   9.776 -0.0936  0.6461  0.6049
  168bbb     C5 4856   7.127   9.732   9.807  0.1738  0.1434  0.4492
  168bbb     H9 4857   7.099   9.834   9.836 -2.3276 -0.5421  0.6887
  168bbb    H10 4858   7.073   9.719   9.713 -1.1694 -0.8936  1.3252
  168bbb     C6 4859   6.734   9.725  10.029  0.3277  0.4338 -0.9336
  168bbb    H11 4860   6.744   9.641  10.099  0.4193 -0.6282 -2.1778
  168bbb    H12 4861   6.657   9.697   9.956 -0.6921  0.9423 -0.0920
  168bbb     C7 4862   6.851   9.331   9.660 -0.1070  0.3115 -0.2032
  168bbb    H13 4863   6.896   9.231   9.665 -2.7186 -0.8829  0.7556
  168bbb    H14 4864   6.897   9.388   9.578 -3.4596  3.5885 -0.0265
  168bbb     C8 4865   6.688   9.857  10.096  0.1692 -0.3434  0.2588
  168bbb    H15 4866   6.580   9.857  10.110 -0.3115  1.7685 -2.5636
  168bbb    H16 4867   6.706   9.939  10.026 -1.3218 -0.3955 -0.2110
  168bbb     C9 4868   7.278   9.716   9.789 -1.1225 -0.6553 -0.0796
  168bbb    H17 4869   7.333   9.721   9.884 -1.6959 -0.0799  0.2306
  168bbb    H18 4870   7.316   9.791   9.720  0.2864 -1.3019 -0.0292
  168bbb     O1 4871   6.709   9.329   9.649 -0.4246 -0.1282  0.0153
  169bbb     N1 4872   5.275   9.106  11.070 -0.3481  0.1201 -0.7991
  169bbb     C1 4873   5.354   9.199  11.162 -0.4454  0.5950 -0.3132
  169bbb     H1 4874   5.460   9.183  11.138 -0.1137  0.1651  1.2887
  169bbb     H2 4875   5.343   9.164  11.266 -0.5887  0.1168 -0.4858
  169bbb     C2 4876   5.141   9.067  11.123 -0.0924 -0.2890 -0.2387
  169bbb     H3 4877   5.086   9.155  11.160 -1.8518 -1.2412 -0.4831
  169bbb     H4 4878   5.155   8.995  11.205 -2.1602 -0.5402 -0.0458
  169bbb     C3 4879   5.353   8.996  11.005  0.6185 -0.1036 -0.3219
  169bbb     H5 4880   5.438   9.037  10.950 -0.1454  1.3370 -0.4760
  169bbb     H6 4881   5.295   8.943  10.928  0.2060  1.2676 -0.9810
  169bbb     C4 4882   5.395   8.891  11.106  0.0251  0.0628 -0.6398
  169bbb     H7 4883   5.305   8.847  11.149  0.9805 -0.6252  0.7440
  169bbb     H8 4884   5.450   8.933  11.191  0.6606 -1.6487 -0.1716
  169bbb     C5 4885   5.310   9.348  11.156  0.2301 -0.4971 -0.2813
  169bbb     H9 4886   5.210   9.359  11.201  1.2394  1.1536  1.7157
  169bbb    H10 4887   5.314   9.385  11.052 -0.3682  0.1736 -0.0736
  169bbb     C6 4888   5.042   9.008  11.018  0.4731  0.1885  0.7767
  169bbb    H11 4889   5.091   8.983  10.923 -0.3546  2.0294 -0.1898
  169bbb    H12 4890   4.989   9.097  10.983  0.9405 -0.0114 -0.5072
  169bbb     C7 4891   5.481   8.786  11.044  0.1720  0.0467  0.3538
  169bbb    H13 4892   5.436   8.762  10.947 -1.0864  3.7549 -0.1571
  169bbb    H14 4893   5.482   8.688  11.093 -0.1996 -0.0466  0.1747
  169bbb     C8 4894   4.939   8.892  11.064 -0.7544 -0.8119  0.4062
  169bbb    H15 4895   4.866   8.868  10.985 -2.2051  0.9276  1.1626
  169bbb    H16 4896   4.880   8.938  11.144 -1.6803  1.8662 -1.6540
  169bbb     C9 4897   5.406   9.444  11.238 -0.0136  0.7567  0.1340
  169bbb    H17 4898   5.508   9.427  11.202 -0.6350  0.8980 -1.8448
  169bbb    H18 4899   5.419   9.405  11.340  1.7339  2.5753  0.6716
  169bbb     O1 4900   5.611   8.831  11.003  0.1961 -0.0641  0.4250
  170bbb     N1 4901   6.468   8.860  11.664 -0.3881  0.7242  0.0357
  170bbb     C1 4902   6.334   8.831  11.723 -0.0690  0.3600 -0.3350
  170bbb     H1 4903   6.268   8.787  11.647  0.9758 -0.2941 -0.8880
  170bbb     H2 4904   6.294   8.930  11.748 -0.9385 -0.5430  2.2047
  170bbb     C2 4905   6.580   8.900  11.754  0.6096  0.8501  0.8846
  170bbb     H3 4906   6.587   8.825  11.834  1.0686 -1.0506 -0.8455
  170bbb     H4 4907   6.557   9.001  11.789 -1.6405  0.8141 -0.3246
  170bbb     C3 4908   6.449   8.949  11.547 -0.6635  0.3088  1.0151
  170bbb     H5 4909   6.548   8.966  11.503 -0.8093  2.0285  1.2970
  170bbb     H6 4910   6.423   9.051  11.577  4.3986  2.9371 -2.1736
  170bbb     C4 4911   6.357   8.894  11.438  0.5663  0.5538  0.1461
  170bbb     H7 4912   6.361   8.960  11.351  1.8037 -0.8961 -0.9545
  170bbb     H8 4913   6.252   8.889  11.471  0.5807  1.9413  0.4628
  170bbb     C5 4914   6.330   8.751  11.852 -0.2915  0.1340 -0.3327
  170bbb     H9 4915   6.224   8.732  11.875  0.0258 -0.9772  0.2592
  170bbb    H10 4916   6.388   8.794  11.934 -1.7614 -0.4426  1.0714
  170bbb     C6 4917   6.720   8.881  11.692  0.5191 -0.3521 -0.2014
  170bbb    H11 4918   6.790   8.913  11.769  0.9520 -1.1217 -0.2719
  170bbb    H12 4919   6.734   8.957  11.614 -0.6434 -1.5942 -1.6959
  170bbb     C7 4920   6.424   8.759  11.392  0.0932 -0.2985 -0.0833
  170bbb    H13 4921   6.460   8.698  11.476 -0.6866 -1.0658 -0.2871
  170bbb    H14 4922   6.509   8.771  11.324  0.0877  0.7292  0.0876
  170bbb     C8 4923   6.746   8.735  11.641 -0.4460  0.0627 -0.4658
  170bbb    H15 4924   6.664   8.706  11.575  0.6287 -0.2521 -1.6999
  170bbb    H16 4925   6.735   8.658  11.719  2.4997 -0.6082 -0.5614
  170bbb     C9 4926   6.394   8.616  11.814 -0.1678  0.1850 -0.2178
  170bbb    H17 4927   6.503   8.626  11.808 -0.2087  1.3940  0.5944
  170bbb    H18 4928   6.358   8.583  11.716 -0.4894 -0.3752  0.0871
  170bbb     O1 4929   6.326   8.681  11.320  0.0937  0.0271 -0.2506
  171bbb     N1 4930   6.471   7.643   8.242  0.4544 -0.3725  0.7451
  171bbb     C1 4931   6.570   7.591   8.338 -0.6101 -0.4617  0.0482
  171bbb     H1 4932   6.528   7.563   8.435  0.4287  3.6354  1.9019
  171bbb     H2 4933   6.639   7.672   8.363 -1.3533  0.0573  0.4578
  171bbb     C2 4934   6.362   7.557   8.192 -0.2429  0.2047  0.4613
  171bbb     H3 4935   6.288   7.536   8.270  0.0561  0.7211  0.8823
  171bbb     H4 4936   6.411   7.467   8.154 -0.4653  0.4878 -0.5334
  171bbb     C3 4937   6.426   7.779   8.280 -0.1953 -0.9069  1.2407
  171bbb     H5 4938   6.435   7.801   8.387  0.2091 -0.7444  1.1750
  171bbb     H6 4939   6.318   7.793   8.265  0.1214  1.1684  0.5395
  171bbb     C4 4940   6.506   7.886   8.202  0.0254  0.0186 -0.3522
  171bbb     H7 4941   6.469   7.899   8.099  0.2502  3.2268 -0.1387
  171bbb     H8 4942   6.611   7.854   8.199 -0.3139 -1.0692 -1.5464
  171bbb     C5 4943   6.650   7.476   8.270 -0.3443 -0.5411 -0.1336
  171bbb     H9 4944   6.585   7.388   8.258  1.1870 -1.8486  0.8325
  171bbb    H10 4945   6.721   7.448   8.349  1.6448  2.8484 -0.5209
  171bbb     C6 4946   6.283   7.598   8.064  0.4832  0.0177 -0.3523
  171bbb    H11 4947   6.244   7.700   8.069 -0.5313 -0.3629 -0.2436
  171bbb    H12 4948   6.201   7.526   8.051  1.5809 -0.9898 -2.2455
  171bbb     C7 4949   6.521   8.023   8.268 -0.4219 -0.1145  0.1331
  171bbb    H13 4950   6.577   8.088   8.200 -2.0327  1.9885  0.6930
  171bbb    H14 4951   6.574   8.018   8.363  1.4139 -0.0202 -0.8445
  171bbb     C8 4952   6.367   7.595   7.931 -0.3398 -0.3323 -0.8996
  171bbb    H15 4953   6.438   7.511   7.931 -0.0700 -0.1041 -1.0140
  171bbb    H16 4954   6.442   7.674   7.936  1.4134 -1.9518 -0.1449
  171bbb     C9 4955   6.730   7.520   8.143  1.1800  0.5000  0.7830
  171bbb    H17 4956   6.800   7.604   8.155  1.2448  0.4366  0.8497
  171bbb    H18 4957   6.655   7.557   8.073  1.5084  0.0662  0.1976
  171bbb     O1 4958   6.389   8.081   8.271  0.4699  0.2937 -0.0883
  172bbb     N1 4959   5.758   9.051   7.786  0.3267 -0.3980  0.4194
  172bbb     C1 4960   5.737   9.159   7.685  0.0488  0.1561  0.6817
  172bbb     H1 4961   5.644   9.215   7.699 -1.5363 -1.5638 -1.9754
  172bbb     H2 4962   5.734   9.118   7.583 -2.2726 -0.2352  0.8474
  172bbb     C2 4963   5.634   8.970   7.818 -0.0928  1.2987 -0.0080
  172bbb     H3 4964   5.649   8.916   7.912 -4.7073  1.9210  1.3288
  172bbb     H4 4965   5.597   8.903   7.739 -1.1250  1.0641  0.6651
  172bbb     C3 4966   5.872   8.963   7.759 -0.2876 -0.0886  0.1391
  172bbb     H5 4967   5.955   9.013   7.709  0.1691 -0.8899  0.0818
  172bbb     H6 4968   5.842   8.885   7.688  0.7788  0.8115 -1.3580
  172bbb     C4 4969   5.946   8.904   7.882 -0.3389 -0.9092 -0.6251
  172bbb     H7 4970   5.877   8.848   7.946 -0.7403  0.2126 -0.0477
  172bbb     H8 4971   5.999   8.979   7.942  0.3650 -1.3934 -0.6241
  172bbb     C5 4972   5.842   9.264   7.684 -0.0884 -0.2344 -0.0477
  172bbb     H9 4973   5.820   9.329   7.598  1.3512 -2.6009 -2.3448
  172bbb    H10 4974   5.945   9.228   7.682  0.1227  0.3688 -0.5051
  172bbb     C6 4975   5.504   9.050   7.847  0.6927  0.0257 -0.0013
  172bbb    H11 4976   5.420   8.982   7.862  0.0349  0.3136 -2.0822
  172bbb    H12 4977   5.468   9.109   7.762  1.0951  4.3537  2.5460
  172bbb     C7 4978   6.053   8.806   7.830 -0.3787 -0.0893  0.0636
  172bbb    H13 4979   6.120   8.866   7.767  0.1868 -0.8558 -0.0764
  172bbb    H14 4980   6.012   8.724   7.770  2.2758 -0.3480 -1.5373
  172bbb     C8 4981   5.522   9.157   7.965  0.8113  0.5150 -0.3889
  172bbb    H15 4982   5.592   9.237   7.943  0.6570  1.1944  1.4048
  172bbb    H16 4983   5.579   9.102   8.041 -1.8706 -0.3553  1.1314
  172bbb     C9 4984   5.825   9.361   7.804  0.2684  0.4113  0.3651
  172bbb    H17 4985   5.829   9.300   7.895  0.1063  0.3429  0.3260
  172bbb    H18 4986   5.724   9.401   7.794 -1.5110 -3.6583 -0.0630
  172bbb     O1 4987   6.116   8.764   7.952  0.4155  0.3993  0.2277
  173bbb     N1 4988   5.030   7.758  10.311  0.1506  0.2002 -0.2876
  173bbb     C1 4989   4.894   7.694  10.324 -0.3555  0.4603  0.4797
  173bbb     H1 4990   4.816   7.768  10.346  0.0949  0.2996  2.8703
  173bbb     H2 4991   4.903   7.635  10.415  0.3212 -0.2707 -0.0495
  173bbb     C2 4992   5.064   7.853  10.427  0.0131 -0.3593  0.2635
  173bbb     H3 4993   5.172   7.876  10.433 -0.1062  0.2827  0.0983
  173bbb     H4 4994   5.049   7.806  10.525  1.5769 -2.8045 -0.5707
  173bbb     C3 4995   5.136   7.646  10.295 -0.6447  0.6698 -0.4681
  173bbb     H5 4996   5.107   7.557  10.238  4.0924 -2.3528  1.2201
  173bbb     H6 4997   5.157   7.601  10.393 -2.6388  0.3047 -0.1561
  173bbb     C4 4998   5.266   7.700  10.233  0.1933 -0.5089  0.4075
  173bbb     H7 4999   5.349   7.631  10.250  0.1765 -1.0128 -1.3919
  173bbb     H8 5000   5.303   7.793  10.278  2.6613 -1.8336  1.2954
  173bbb     C5 5001   4.836   7.615  10.205  0.4756  0.4206 -0.4088
  173bbb     H9 5002   4.914   7.539  10.189  0.4520  0.0130  1.2329
  173bbb    H10 5003   4.833   7.679  10.116 -1.7207  0.7589 -0.1394
  173bbb     C6 5004   4.976   7.979  10.434  0.1410 -0.2272  0.2611
  173bbb    H11 5005   5.024   8.041  10.511  3.6104  0.7411 -2.4154
  173bbb    H12 5006   4.875   7.963  10.473  0.0881  1.4430  0.9113
  173bbb     C7 5007   5.223   7.719  10.083  0.1368  0.3469  0.1250
  173bbb    H13 5008   5.123   7.762  10.075 -0.9611 -1.6534  1.9091
  173bbb    H14 5009   5.216   7.619  10.038 -1.5952 -0.3923  1.8963
  173bbb     C8 5010   4.977   8.057  10.302 -0.2035  0.0447 -0.2177
  173bbb    H15 5011   4.944   7.991  10.221 -0.4289  0.0996 -0.1703
  173bbb    H16 5012   5.082   8.084  10.284 -0.2750  0.8047  0.4568
  173bbb     C9 5013   4.691   7.560  10.229  0.2726 -0.5195  0.0292
  173bbb    H17 5014   4.619   7.637  10.199  0.2154 -0.7001 -0.3003
  173bbb    H18 5015   4.691   7.533  10.335 -0.9859  0.3913  0.2941
  173bbb     O1 5016   5.328   7.813  10.027 -0.1343 -0.1087 -0.0643
  174bbb     N1 5017   4.869   8.806   9.479  0.0896  0.1263  0.4350
  174bbb     C1 5018   4.777   8.840   9.367  0.5513 -0.4375  0.0521
  174bbb     H1 5019   4.834   8.897   9.292  1.8907 -0.4460  1.0199
  174bbb     H2 5020   4.705   8.911   9.409  0.8713 -1.7039  2.9856
  174bbb     C2 5021   4.792   8.781   9.605 -0.0072 -0.4762 -1.3397
  174bbb     H3 5022   4.855   8.726   9.676 -1.0574  0.3535  0.2964
  174bbb     H4 5023   4.699   8.725   9.592 -1.7082  1.7977  0.2249
  174bbb     C3 5024   4.975   8.709   9.432  0.0245  0.3126 -0.5312
  174bbb     H5 5025   5.011   8.736   9.333 -0.3731  1.2449 -0.4311
  174bbb     H6 5026   4.932   8.608   9.434 -0.8833  0.6919 -0.7684
  174bbb     C4 5027   5.097   8.705   9.532 -0.3257  0.8821  0.0268
  174bbb     H7 5028   5.067   8.670   9.632  2.5667 -2.9912 -0.2493
  174bbb     H8 5029   5.143   8.804   9.543 -1.6308  1.6019 -0.7076
  174bbb     C5 5030   4.700   8.726   9.304  0.9515  0.1811  0.2662
  174bbb     H9 5031   4.665   8.664   9.387  1.5287 -0.1778  0.2420
  174bbb    H10 5032   4.756   8.663   9.234  0.9186 -0.1314  0.5175
  174bbb     C6 5033   4.763   8.913   9.679  0.0532  0.4107 -0.0173
  174bbb    H11 5034   4.721   8.886   9.776 -2.2345 -0.8831 -1.2906
  174bbb    H12 5035   4.677   8.960   9.629 -0.9001 -0.6951  0.5613
  174bbb     C7 5036   5.205   8.601   9.490 -0.6398  1.1980 -0.7346
  174bbb    H13 5037   5.287   8.602   9.563 -0.2567  1.1971 -1.1655
  174bbb    H14 5038   5.255   8.626   9.396  1.4772  0.1259  0.0367
  174bbb     C8 5039   4.884   9.009   9.704  0.3704 -0.0544  0.2066
  174bbb    H15 5040   4.927   9.041   9.608 -0.7437  0.8165 -0.0165
  174bbb    H16 5041   4.956   8.951   9.764  0.9084  0.7660  0.3786
  174bbb     C9 5042   4.581   8.785   9.225 -0.0009  0.7698 -0.6593
  174bbb    H17 5043   4.535   8.702   9.170 -0.7972  0.3909  0.5279
  174bbb    H18 5044   4.610   8.853   9.144  1.7558  0.1553 -0.6015
  174bbb     O1 5045   5.137   8.471   9.482 -0.0638  0.1730 -0.0528
  175bbb     N1 5046  10.832   8.455   9.662 -0.0369  0.6284 -0.1899
  175bbb     C1 5047  10.910   8.546   9.753  0.0971 -0.1570  0.6130
  175bbb     H1 5048  11.014   8.528   9.724  1.3748  4.1374  1.9307
  175bbb     H2 5049  10.898   8.500   9.852 -2.5033 -0.5582  0.1849
  175bbb     C2 5050  10.861   8.483   9.514  0.2366 -0.2980  0.4750
  175bbb     H3 5051  10.829   8.585   9.492  1.6249 -0.0184 -0.3695
  175bbb     H4 5052  10.803   8.412   9.453  2.4032 -2.4161  0.6974
  175bbb     C3 5053  10.685   8.432   9.701  0.2942 -0.2569  0.1936
  175bbb     H5 5054  10.620   8.485   9.630  0.4576 -1.0696 -0.5868
  175bbb     H6 5055  10.672   8.476   9.800  0.6260  1.0197 -0.3116
  175bbb     C4 5056  10.653   8.286   9.721  0.1097  0.8090 -0.0400
  175bbb     H7 5057  10.679   8.250   9.821  1.1928 -0.6734 -0.8040
  175bbb     H8 5058  10.707   8.231   9.642 -0.7822 -0.6420  0.3270
  175bbb     C5 5059  10.880   8.703   9.744 -0.4370  0.1871  1.0893
  175bbb     H9 5060  10.777   8.713   9.781  0.6356  2.2708  3.7908
  175bbb    H10 5061  10.882   8.748   9.644  0.1839  0.1221  1.0662
  175bbb     C6 5062  11.002   8.485   9.465 -0.2797  0.2205  0.2165
  175bbb    H11 5063  11.056   8.570   9.509 -0.1348  0.7055 -0.8579
  175bbb    H12 5064  10.994   8.496   9.356 -2.9440 -0.0157  0.3147
  175bbb     C7 5065  10.504   8.240   9.706  0.5262  0.0429 -0.2252
  175bbb    H13 5066  10.451   8.262   9.799 -1.4303  0.3914 -1.3678
  175bbb    H14 5067  10.490   8.138   9.668 -0.9514 -0.1278  0.7087
  175bbb     C8 5068  11.064   8.347   9.495 -0.4360  0.2452  0.3343
  175bbb    H15 5069  11.029   8.283   9.413  2.5827 -0.1431 -0.8144
  175bbb    H16 5070  11.039   8.316   9.597 -0.2412  3.3507  1.4346
  175bbb     C9 5071  10.961   8.788   9.837  0.4591  0.6104  0.0711
  175bbb    H17 5072  10.941   8.896   9.833  1.3581  0.8286  1.1418
  175bbb    H18 5073  11.066   8.757   9.832  0.3715  0.2276  0.5309
  175bbb     O1 5074  10.440   8.325   9.606 -0.0651  0.8169  0.2556
  176bbb     N1 5075   9.509   9.079   9.138 -0.0083 -0.1209  0.4041
  176bbb     C1 5076   9.415   9.023   9.034 -0.7298 -0.7721 -0.2594
  176bbb     H1 5077   9.311   9.047   9.062 -1.1016 -1.1680 -1.2720
  176bbb     H2 5078   9.416   8.914   9.029 -0.1505 -0.7672 -0.2634
  176bbb     C2 5079   9.542   9.225   9.137 -0.6133 -0.7228  0.6937
  176bbb     H3 5080   9.603   9.258   9.052 -0.0205  2.6752  2.2745
  176bbb     H4 5081   9.586   9.260   9.231  1.7584  0.7290 -0.8334
  176bbb     C3 5082   9.529   9.006   9.265 -0.1090 -0.3892  0.4312
  176bbb     H5 5083   9.443   9.035   9.325  0.4151  5.6726 -1.1075
  176bbb     H6 5084   9.619   9.032   9.322  1.0985 -1.9397 -0.6869
  176bbb     C4 5085   9.539   8.853   9.247  0.0708 -0.3998  0.2328
  176bbb     H7 5086   9.444   8.824   9.201 -1.7704  1.6028  2.5114
  176bbb     H8 5087   9.548   8.805   9.345 -3.0009 -1.7486 -0.0433
  176bbb     C5 5088   9.461   9.063   8.893 -0.0335  0.0425 -0.2537
  176bbb     H9 5089   9.454   9.173   8.888 -1.8501 -0.0636 -0.8289
  176bbb    H10 5090   9.394   9.035   8.811  1.5374  0.5529 -1.7792
  176bbb     C6 5091   9.406   9.308   9.140 -0.5097 -0.0835  0.2560
  176bbb    H11 5092   9.360   9.287   9.237  3.3139 -2.1593  1.8727
  176bbb    H12 5093   9.340   9.285   9.055  0.0428 -0.3640 -0.1023
  176bbb     C7 5094   9.654   8.814   9.153 -0.2978 -1.0126 -0.0215
  176bbb    H13 5095   9.674   8.895   9.081  0.3927  0.2356  1.5166
  176bbb    H14 5096   9.625   8.728   9.092  1.4275 -0.5298 -1.6249
  176bbb     C8 5097   9.434   9.460   9.120 -0.5920  0.3651  0.1181
  176bbb    H15 5098   9.504   9.479   9.203 -0.2893 -2.2810  0.5764
  176bbb    H16 5099   9.343   9.510   9.154 -1.0735 -0.4246  0.0202
  176bbb     C9 5100   9.601   9.001   8.850 -0.4845 -0.7746  0.9622
  176bbb    H17 5101   9.598   8.893   8.871 -0.4703 -0.8284  0.6994
  176bbb    H18 5102   9.679   9.049   8.910  1.1978  1.3467 -2.5975
  176bbb     O1 5103   9.770   8.784   9.233  0.6909 -0.0226  0.0867
  177bbb     N1 5104   9.904   6.471   9.606 -0.2044 -0.0408 -0.0029
  177bbb     C1 5105  10.004   6.538   9.696 -0.1143  0.0648  0.1175
  177bbb     H1 5106   9.968   6.537   9.800  0.5979 -0.2709  0.3660
  177bbb     H2 5107  10.010   6.645   9.673  0.4259  0.4067  1.7201
  177bbb     C2 5108   9.907   6.319   9.622 -0.1882 -0.1701  0.3154
  177bbb     H3 5109   9.870   6.307   9.724 -2.4063  3.1476  0.0710
  177bbb     H4 5110  10.009   6.279   9.609  0.2307  0.9513 -0.0012
  177bbb     C3 5111   9.775   6.528   9.628  1.0050  0.7229 -0.1650
  177bbb     H5 5112   9.757   6.523   9.736  1.8234 -2.8019 -0.0877
  177bbb     H6 5113   9.707   6.462   9.573  2.9682 -1.2734 -0.3619
  177bbb     C4 5114   9.760   6.666   9.573  0.8781  0.1586  0.9953
  177bbb     H7 5115   9.785   6.658   9.466 -0.3991  1.5765  0.5421
  177bbb     H8 5116   9.825   6.739   9.623 -1.6037  2.8061  0.6115
  177bbb     C5 5117  10.157   6.498   9.689 -0.1357  0.4678  0.3243
  177bbb     H9 5118  10.162   6.396   9.729 -0.2093 -0.2989 -1.5186
  177bbb    H10 5119  10.211   6.558   9.764 -0.8667  0.0893  1.1713
  177bbb     C6 5120   9.815   6.246   9.521 -0.0151  0.2431 -0.0072
  177bbb    H11 5121   9.825   6.282   9.418 -0.3432  0.8221  0.1570
  177bbb    H12 5122   9.710   6.251   9.552  0.2239 -1.0621  1.1377
  177bbb     C7 5123   9.610   6.710   9.586 -0.4434 -0.0025 -0.0438
  177bbb    H13 5124   9.585   6.721   9.692  0.1107  1.6348 -0.0535
  177bbb    H14 5125   9.545   6.636   9.538 -1.1339 -0.4641  1.5477
  177bbb     C8 5126   9.843   6.095   9.528  0.7885  0.7312  0.2919
  177bbb    H15 5127   9.805   6.048   9.619  0.2238  0.7090  0.0491
  177bbb    H16 5128   9.951   6.075   9.521  0.9524  1.7722 -0.4353
  177bbb     C9 5129  10.225   6.486   9.549  0.2430  0.1266  0.7914
  177bbb    H17 5130  10.203   6.571   9.483 -1.2834  1.2926  2.6826
  177bbb    H18 5131  10.201   6.392   9.496 -0.3985  1.6139 -1.7137
  177bbb     O1 5132   9.600   6.835   9.517 -0.3476  0.0908 -0.8581
  178bbb     N1 5133   8.963   7.258   8.467 -0.5452  0.0944  0.2147
  178bbb     C1 5134   9.066   7.359   8.420  0.1286  0.2050  0.1595
  178bbb     H1 5135   9.125   7.313   8.340 -1.0037 -0.1886 -0.4813
  178bbb     H2 5136   9.129   7.383   8.507  0.5174 -3.3608  1.0323
  178bbb     C2 5137   8.881   7.207   8.352  0.0143  0.5720  0.4158
  178bbb     H3 5138   8.818   7.288   8.312  0.0247  0.8843  1.0281
  178bbb     H4 5139   8.806   7.137   8.391 -1.0574  2.0339  1.1261
  178bbb     C3 5140   8.875   7.298   8.577 -0.0618 -1.1099 -0.4377
  178bbb     H5 5141   8.808   7.216   8.606  0.0144 -0.5739  1.3662
  178bbb     H6 5142   8.814   7.385   8.549 -1.6744 -1.8280  0.6599
  178bbb     C4 5143   8.943   7.336   8.707 -0.2636  0.1864  0.3729
  178bbb     H7 5144   8.871   7.365   8.784  0.7765 -0.9727  1.8401
  178bbb     H8 5145   9.011   7.421   8.698  3.2034 -2.5355 -2.1413
  178bbb     C5 5146   9.005   7.484   8.352  0.0373 -0.6487 -0.7984
  178bbb     H9 5147   8.976   7.554   8.431  0.5061  0.8057 -1.8648
  178bbb    H10 5148   8.916   7.461   8.291 -1.7103 -0.3077  1.4677
  178bbb     C6 5149   8.950   7.140   8.229 -0.3112 -0.4394 -0.1410
  178bbb    H11 5150   9.008   7.056   8.269 -0.6145  0.1121  1.4991
  178bbb    H12 5151   9.019   7.216   8.189 -2.3897  2.0169  0.6466
  178bbb     C7 5152   9.018   7.212   8.766  0.8008 -0.2365  0.0247
  178bbb    H13 5153   9.090   7.160   8.701  0.1071  0.3295 -1.2347
  178bbb    H14 5154   8.943   7.133   8.778 -2.1975  2.5588  0.9206
  178bbb     C8 5155   8.857   7.100   8.114  0.6590 -0.0004 -0.1919
  178bbb    H15 5156   8.777   7.040   8.159 -1.2229  1.2167 -1.7617
  178bbb    H16 5157   8.900   7.042   8.031 -1.9327 -1.3504 -0.6800
  178bbb     C9 5158   9.105   7.551   8.256 -0.4023  0.3997  0.5258
  178bbb    H17 5159   9.208   7.536   8.291 -0.6968  1.0738  1.7611
  178bbb    H18 5160   9.100   7.661   8.260  0.2344  0.4188  0.9842
  178bbb     O1 5161   9.085   7.248   8.879 -0.4038  0.2224 -0.3974
  179bbb     N1 5162   8.330   8.260  11.266 -0.4324 -0.5097  0.2595
  179bbb     C1 5163   8.362   8.395  11.208  0.0727  0.3040  0.0622
  179bbb     H1 5164   8.289   8.474  11.229 -1.6189 -0.6548 -1.9200
  179bbb     H2 5165   8.352   8.388  11.099 -2.7073  0.3005  0.2558
  179bbb     C2 5166   8.299   8.259  11.410  0.6131  0.1641 -0.6796
  179bbb     H3 5167   8.392   8.292  11.458  1.3299  1.1823 -2.6653
  179bbb     H4 5168   8.295   8.156  11.447 -1.2276  1.1511  2.2129
  179bbb     C3 5169   8.420   8.153  11.217  0.0720 -0.4435  0.1281
  179bbb     H5 5170   8.378   8.062  11.261 -0.2149  0.1591  1.1377
  179bbb     H6 5171   8.526   8.173  11.239 -0.3227  0.0349  1.6870
  179bbb     C4 5172   8.408   8.128  11.065  0.3206 -0.2496 -0.5045
  179bbb     H7 5173   8.413   8.220  11.006 -0.4808 -0.9389 -1.7152
  179bbb     H8 5174   8.305   8.098  11.043 -0.5552  0.4909  2.2310
  179bbb     C5 5175   8.502   8.450  11.245 -0.4970  0.5253 -0.1590
  179bbb     H9 5176   8.578   8.371  11.242  1.0090  1.9351 -0.5894
  179bbb    H10 5177   8.514   8.490  11.347 -1.9052  2.1728 -0.5918
  179bbb     C6 5178   8.169   8.331  11.459  0.0152  0.2672 -0.5218
  179bbb    H11 5179   8.085   8.313  11.391 -1.2231 -1.0961  1.2830
  179bbb    H12 5180   8.197   8.437  11.460  2.8595 -0.3709  1.2292
  179bbb     C7 5181   8.507   8.020  11.015  0.3814 -0.6150  0.2882
  179bbb    H13 5182   8.471   8.013  10.912 -0.4327  1.2192  0.4142
  179bbb    H14 5183   8.498   7.921  11.060 -2.0622 -0.5287  0.0883
  179bbb     C8 5184   8.118   8.275  11.592  0.3659 -0.2254 -0.6201
  179bbb    H15 5185   8.049   8.344  11.642 -0.0949 -1.1810  0.0689
  179bbb    H16 5186   8.195   8.261  11.668  1.5421  3.2069 -0.9700
  179bbb     C9 5187   8.548   8.553  11.137  0.5913  0.5009 -0.0491
  179bbb    H17 5188   8.538   8.503  11.040  1.0274 -0.7676  0.5445
  179bbb    H18 5189   8.655   8.558  11.159  1.1723 -1.9157 -1.9513
  179bbb     O1 5190   8.645   8.065  11.014  0.6974  0.0731  0.3369
  180bbb     N1 5191   9.220   7.947  11.625  0.0399 -0.6811  0.3377
  180bbb     C1 5192   9.253   8.088  11.660  0.2888 -0.7531  0.5920
  180bbb     H1 5193   9.214   8.110  11.760 -0.0100  1.6126  0.0170
  180bbb     H2 5194   9.205   8.159  11.592  1.6806 -0.8601 -0.5406
  180bbb     C2 5195   9.073   7.917  11.639 -0.1635 -0.2867  0.3019
  180bbb     H3 5196   9.051   7.820  11.594 -1.8409  0.8744 -1.5581
  180bbb     H4 5197   9.009   7.987  11.584  0.5708  1.3772  1.4872
  180bbb     C3 5198   9.270   7.910  11.489 -0.1377 -0.3296 -0.4878
  180bbb     H5 5199   9.260   7.804  11.463  1.0078 -0.7351  0.6349
  180bbb     H6 5200   9.378   7.927  11.491 -0.5954  3.3299  0.6935
  180bbb     C4 5201   9.208   7.982  11.369 -0.7280  0.0124 -0.8547
  180bbb     H7 5202   9.179   8.085  11.390 -0.0965 -0.3140  2.0606
  180bbb     H8 5203   9.118   7.929  11.336  0.0328 -0.7110 -1.8512
  180bbb     C5 5204   9.405   8.113  11.666 -0.6914 -0.2991  0.1869
  180bbb     H9 5205   9.453   8.116  11.568  0.0900  1.5945  0.5901
  180bbb    H10 5206   9.442   8.024  11.719 -0.7309 -0.7591 -0.5407
  180bbb     C6 5207   9.024   7.908  11.781  0.4490 -0.1219  0.3890
  180bbb    H11 5208   8.925   7.860  11.782 -0.0224  0.6137 -2.2559
  180bbb    H12 5209   9.003   8.007  11.821  0.5112  0.8996 -1.9394
  180bbb     C7 5210   9.302   7.971  11.248  0.1583 -0.1415  0.6911
  180bbb    H13 5211   9.368   7.884  11.244 -0.8345 -0.8782 -1.7768
  180bbb    H14 5212   9.372   8.055  11.241  1.3708 -1.1754 -0.2639
  180bbb     C8 5213   9.114   7.826  11.870  0.0068 -0.3241  0.1400
  180bbb    H15 5214   9.212   7.876  11.872  0.2504 -0.8308  1.9773
  180bbb    H16 5215   9.140   7.728  11.830 -0.0285 -0.0687 -0.5361
  180bbb     C9 5216   9.455   8.241  11.753  0.3715 -0.7629  0.1215
  180bbb    H17 5217   9.405   8.229  11.849 -0.2863 -1.5497 -0.3051
  180bbb    H18 5218   9.420   8.329  11.697  1.1388 -0.2090  0.4761
  180bbb     O1 5219   9.221   7.965  11.131  0.5087  0.2116  0.2590
  181bbb     N1 5220   9.972   7.004  10.507  0.0017  0.6029 -0.4356
  181bbb     C1 5221   9.977   7.104  10.393  0.1617 -0.2631  0.4991
  181bbb     H1 5222   9.960   7.207  10.425 -1.3112 -0.7075  1.2789
  181bbb     H2 5223   9.888   7.086  10.332 -1.2603 -3.1924  3.1007
  181bbb     C2 5224  10.072   7.016  10.615 -0.0774 -0.7348  0.2470
  181bbb     H3 5225  10.175   7.018  10.577  0.2709  0.4805  1.2048
  181bbb     H4 5226  10.065   6.930  10.683 -0.9891 -1.6069 -0.9088
  181bbb     C3 5227   9.834   6.973  10.553  0.4929  0.0691  0.0100
  181bbb     H5 5228   9.774   6.949  10.464  0.4075  0.1746  0.0392
  181bbb     H6 5229   9.788   7.057  10.607 -1.6134  0.3714 -2.0883
  181bbb     C4 5230   9.807   6.841  10.634  0.0931 -0.0267 -0.3158
  181bbb     H7 5231   9.886   6.826  10.709  1.4391  0.6192 -1.5454
  181bbb     H8 5232   9.817   6.750  10.573 -2.0578 -0.9421  0.5956
  181bbb     C5 5233  10.110   7.101  10.312 -0.2641  0.4387  0.4358
  181bbb     H9 5234  10.131   6.994  10.299 -2.3055  0.2491 -2.0957
  181bbb    H10 5235  10.186   7.144  10.379 -0.0426 -0.1198  0.5493
  181bbb     C6 5236  10.036   7.126  10.715 -0.2034 -0.2599 -0.2575
  181bbb    H11 5237   9.942   7.100  10.763  0.2378 -1.8020 -0.1893
  181bbb    H12 5238  10.024   7.222  10.662 -0.6174 -0.2859 -0.2135
  181bbb     C7 5239   9.668   6.834  10.708 -0.6287  0.0424  0.4732
  181bbb    H13 5240   9.673   6.746  10.773  1.0496 -0.0126  0.3075
  181bbb    H14 5241   9.592   6.821  10.629 -0.1170  3.8808 -0.8476
  181bbb     C8 5242  10.140   7.153  10.825 -0.2247  0.3865  0.6340
  181bbb    H15 5243  10.186   7.056  10.846 -2.7603 -0.9524  0.3657
  181bbb    H16 5244  10.094   7.203  10.911  0.3726  2.1906 -0.0361
  181bbb     C9 5245  10.106   7.178  10.174 -0.3130 -0.0189  0.2623
  181bbb    H17 5246  10.078   7.283  10.189  3.3985  0.9900  1.3290
  181bbb    H18 5247  10.036   7.130  10.105 -1.7297 -0.1273  1.7093
  181bbb     O1 5248   9.640   6.961  10.764 -0.0664  0.1517  0.0735
  182bbb     N1 5249   9.575   7.297  11.791 -0.2769  0.3249  0.1507
  182bbb     C1 5250   9.584   7.156  11.855 -0.5529  1.1023 -0.2672
  182bbb     H1 5251   9.668   7.191  11.916 -0.5530  0.2309  0.2472
  182bbb     H2 5252   9.654   7.120  11.779 -0.0235  3.1773 -0.8338
  182bbb     C2 5253   9.582   7.421  11.874 -0.9431 -0.1714 -0.5249
  182bbb     H3 5254   9.497   7.418  11.944 -1.5629 -0.4899 -1.2804
  182bbb     H4 5255   9.569   7.511  11.814 -0.5703  0.7671  0.7652
  182bbb     C3 5256   9.661   7.323  11.668  0.2440  0.0109 -0.4385
  182bbb     H5 5257   9.675   7.233  11.605 -1.0973  0.4674 -1.4464
  182bbb     H6 5258   9.766   7.348  11.685  1.3412 -2.7891 -2.2882
  182bbb     C4 5259   9.588   7.416  11.567  0.0615 -0.0998 -0.9522
  182bbb     H7 5260   9.571   7.514  11.613 -0.7618 -0.6345 -0.0602
  182bbb     H8 5261   9.497   7.365  11.530 -0.9482  0.8943  0.0728
  182bbb     C5 5262   9.406   6.998  11.960 -0.4496  0.4333  0.3290
  182bbb     H9 5263   9.431   6.898  11.997  0.7044  0.0499 -1.4053
  182bbb    H10 5264   9.332   6.954  11.892 -1.1036  3.4530 -1.1143
  182bbb     C6 5265   9.716   7.439  11.950 -0.4836  0.3475 -0.9245
  182bbb    H11 5266   9.785   7.497  11.887  2.4354 -1.0487  0.7764
  182bbb    H12 5267   9.774   7.350  11.975  1.1052  1.4226 -0.6010
  182bbb     C7 5268   9.682   7.449  11.451  0.1408 -0.4706 -0.2806
  182bbb    H13 5269   9.762   7.373  11.453 -0.0828 -0.7138 -0.4248
  182bbb    H14 5270   9.724   7.549  11.468 -3.0706  0.8245  0.6958
  182bbb     C8 5271   9.698   7.521  12.076 -0.1453 -0.2774 -0.4545
  182bbb    H15 5272   9.799   7.542  12.115 -0.2152  2.4553 -1.5503
  182bbb    H16 5273   9.643   7.473  12.158 -2.1572  1.6323 -0.5809
  182bbb     C9 5274   9.300   7.004  12.084  0.2310  0.0585  0.3102
  182bbb    H17 5275   9.244   7.098  12.089 -2.0538 -1.1287 -1.1690
  182bbb    H18 5276   9.347   6.992  12.183  1.2348 -1.0866 -0.2734
  182bbb     O1 5277   9.619   7.437  11.324 -0.1313 -0.3643  0.1127
  183bbb     N1 5278   6.661   9.694   9.435 -0.7699  1.6260  0.1307
  183bbb     C1 5279   6.645   9.708   9.582 -0.3012 -0.3138  0.2976
  183bbb     H1 5280   6.739   9.752   9.616 -1.5608  1.6929  1.3474
  183bbb     H2 5281   6.630   9.609   9.626  0.5426 -0.4539  0.2902
  183bbb     C2 5282   6.622   9.811   9.344 -0.2636  0.3912  0.2028
  183bbb     H3 5283   6.519   9.840   9.369 -0.4279 -0.1714  0.1894
  183bbb     H4 5284   6.618   9.790   9.237  0.2192  3.0691 -0.4019
  183bbb     C3 5285   6.790   9.632   9.387 -0.5561 -0.6862  0.2477
  183bbb     H5 5286   6.817   9.543   9.445 -3.3713 -3.0395 -1.7632
  183bbb     H6 5287   6.868   9.710   9.385 -1.7036  0.5954  2.2049
  183bbb     C4 5288   6.785   9.570   9.251  0.1222 -0.0337  1.1931
  183bbb     H7 5289   6.760   9.648   9.178  1.7519  0.4043  1.0550
  183bbb     H8 5290   6.697   9.505   9.253 -1.3670  1.5345 -2.8633
  183bbb     C5 5291   6.537   9.792   9.640  0.5173  0.1255  0.1423
  183bbb     H9 5292   6.529   9.889   9.588  1.5076  0.5662  0.7827
  183bbb    H10 5293   6.558   9.827   9.742 -0.5111  0.2671  0.3135
  183bbb     C6 5294   6.711   9.936   9.368 -0.8457 -0.1608  0.0626
  183bbb    H11 5295   6.803   9.910   9.313 -0.2435 -0.6885  1.2633
  183bbb    H12 5296   6.740   9.954   9.472 -0.2499 -1.9418  0.2400
  183bbb     C7 5297   6.917   9.501   9.214 -0.9140 -0.4069 -0.8959
  183bbb    H13 5298   6.916   9.409   9.274 -0.6447 -0.2055 -0.5705
  183bbb    H14 5299   6.996   9.574   9.239 -2.2958  0.8851 -0.1667
  183bbb     C8 5300   6.647  10.057   9.303 -0.6576 -0.7017  0.2380
  183bbb    H15 5301   6.538  10.056   9.315 -0.9586 -3.0737 -1.9777
  183bbb    H16 5302   6.667  10.049   9.196 -0.2182  0.0107  0.2606
  183bbb     C9 5303   6.392   9.734   9.632 -0.2931 -0.6914 -0.5701
  183bbb    H17 5304   6.383   9.642   9.690 -2.8174  0.6158  1.3015
  183bbb    H18 5305   6.375   9.711   9.526 -1.2566  1.6034 -0.9918
  183bbb     O1 5306   6.930   9.466   9.080 -0.3909  0.1729  0.4661
  184bbb     N1 5307   6.684   9.947   8.264 -0.1915  0.1011 -0.0063
  184bbb     C1 5308   6.564  10.013   8.330 -0.0429  0.0913  0.6465
  184bbb     H1 5309   6.590  10.076   8.417 -0.6797  1.4166 -0.0913
  184bbb     H2 5310   6.495   9.937   8.367 -2.7259  1.1476 -1.8215
  184bbb     C2 5311   6.664   9.907   8.118 -0.4070 -0.6926 -0.2986
  184bbb     H3 5312   6.657   9.990   8.047 -1.1907 -1.3529 -1.0123
  184bbb     H4 5313   6.567   9.854   8.118 -1.1187  0.4962  1.5111
  184bbb     C3 5314   6.807  10.022   8.305 -0.0078  0.1855  0.8760
  184bbb     H5 5315   6.802  10.131   8.302  0.5388  0.2212 -2.9878
  184bbb     H6 5316   6.891  10.005   8.238  0.5705  2.5292  0.9396
  184bbb     C4 5317   6.841   9.980   8.449 -0.1710  0.0123 -0.8192
  184bbb     H7 5318   6.756   9.998   8.516 -0.0446  0.9961 -0.9082
  184bbb     H8 5319   6.919  10.046   8.489  0.3425 -1.0889  0.0321
  184bbb     C5 5320   6.472  10.103   8.247 -0.8958  1.0511 -0.2238
  184bbb     H9 5321   6.436  10.050   8.158 -0.4584 -0.3868  0.4211
  184bbb    H10 5322   6.524  10.189   8.204  0.5732 -0.1289 -0.8999
  184bbb     C6 5323   6.775   9.804   8.078  0.4628 -0.0215 -0.2963
  184bbb    H11 5324   6.793   9.724   8.151  0.9221  1.6906  1.5571
  184bbb    H12 5325   6.873   9.851   8.064  1.1032 -1.5223 -1.0611
  184bbb     C7 5326   6.881   9.834   8.458  0.7601  0.0569 -0.5204
  184bbb    H13 5327   6.813   9.778   8.393 -0.0216  0.4522 -0.0549
  184bbb    H14 5328   6.867   9.793   8.559  3.8903  1.9592  0.8338
  184bbb     C8 5329   6.751   9.732   7.943  0.5137  0.5990  0.7192
  184bbb    H15 5330   6.657   9.675   7.949 -0.3694  1.5864 -1.9572
  184bbb    H16 5331   6.832   9.662   7.920 -0.8081  0.0318 -3.0402
  184bbb     C9 5332   6.350  10.161   8.331 -0.3458  0.5110 -0.2986
  184bbb    H17 5333   6.273  10.203   8.265 -0.2917 -0.7073 -1.1729
  184bbb    H18 5334   6.385  10.240   8.398  0.1112  0.0948 -0.0409
  184bbb     O1 5335   7.019   9.821   8.422 -0.1342 -0.6657 -0.7799
  185bbb     N1 5336   8.809   9.669   9.940  0.3077 -0.0374 -0.8718
  185bbb     C1 5337   8.681   9.722  10.003  0.0555  0.3105  0.4479
  185bbb     H1 5338   8.614   9.645  10.043  0.5110 -0.6581 -0.6180
  185bbb     H2 5339   8.628   9.777   9.924  0.1622  0.3723  0.4200
  185bbb     C2 5340   8.921   9.645  10.033  0.3096  0.5449  0.7001
  185bbb     H3 5341   8.887   9.561  10.094  0.0527  1.2740  1.5759
  185bbb     H4 5342   8.954   9.730  10.093  0.0442  0.3331  1.1492
  185bbb     C3 5343   8.786   9.578   9.823 -0.5418  0.0080 -0.0825
  185bbb     H5 5344   8.882   9.554   9.774 -0.1491  0.3109  0.5215
  185bbb     H6 5345   8.737   9.636   9.743  0.9337 -0.5930 -1.4856
  185bbb     C4 5346   8.700   9.460   9.858 -0.5559  0.5459 -0.5605
  185bbb     H7 5347   8.605   9.501   9.893 -0.8657 -1.2095  0.7715
  185bbb     H8 5348   8.745   9.414   9.946 -0.5668  1.2398 -0.1853
  185bbb     C5 5349   8.703   9.833  10.118 -0.1947  0.8706  0.5446
  185bbb     H9 5350   8.763   9.784  10.195 -0.9037 -0.7442  0.0988
  185bbb    H10 5351   8.606   9.851  10.166  0.1751 -0.2301  1.7611
  185bbb     C6 5352   9.057   9.601   9.965 -0.3968  0.3779  1.1277
  185bbb    H11 5353   9.043   9.501   9.922  1.0449  0.1576  1.1116
  185bbb    H12 5354   9.140   9.578  10.033  1.7086 -1.9094 -1.9127
  185bbb     C7 5355   8.674   9.361   9.742 -0.0400 -0.0798  0.0613
  185bbb    H13 5356   8.594   9.292   9.775 -0.8696  0.4784 -0.7331
  185bbb    H14 5357   8.758   9.295   9.719 -1.4977 -1.1030 -2.8841
  185bbb     C8 5358   9.096   9.701   9.850  0.1547  0.2182 -0.6251
  185bbb    H15 5359   9.102   9.805   9.886  0.7758  0.2363 -0.7641
  185bbb    H16 5360   9.023   9.693   9.768 -0.5417  0.1270 -0.0061
  185bbb     C9 5361   8.772   9.963  10.076  0.0295 -0.5868 -0.2607
  185bbb    H17 5362   8.736   9.996   9.978  1.7640 -1.4275 -1.2211
  185bbb    H18 5363   8.880   9.949  10.066  0.1081  0.5548 -1.3343
  185bbb     O1 5364   8.628   9.437   9.629 -0.1745  0.8755 -0.4680
  186bbb     N1 5365   8.847   9.608   8.393  0.1478  0.7227  0.0839
  186bbb     C1 5366   8.764   9.729   8.369  0.3968 -0.1472  0.0444
  186bbb     H1 5367   8.760   9.790   8.460  0.9032 -1.0149  0.6676
  186bbb     H2 5368   8.663   9.685   8.364 -0.6103  1.4750  3.3484
  186bbb     C2 5369   8.879   9.531   8.266 -0.1504  0.5546 -0.5196
  186bbb     H3 5370   8.920   9.604   8.195  0.3645  0.0688 -0.7410
  186bbb     H4 5371   8.793   9.493   8.209  1.1576 -1.2993 -1.4095
  186bbb     C3 5372   8.820   9.534   8.514 -0.3207 -0.5192 -0.2663
  186bbb     H5 5373   8.821   9.606   8.597  0.8556 -1.5889  0.6879
  186bbb     H6 5374   8.898   9.457   8.527  1.1648  1.0241  0.3930
  186bbb     C4 5375   8.689   9.459   8.512 -0.5208 -0.1575  0.1737
  186bbb     H7 5376   8.684   9.410   8.414  0.7018  0.7181 -0.3647
  186bbb     H8 5377   8.603   9.526   8.520 -0.4446  0.1623 -1.4189
  186bbb     C5 5378   8.800   9.821   8.248 -0.4838 -0.0197  0.2061
  186bbb     H9 5379   8.789   9.776   8.149 -1.3165 -0.9813  0.7250
  186bbb    H10 5380   8.908   9.842   8.260 -0.7105  0.4186  1.7896
  186bbb     C6 5381   8.974   9.417   8.300  0.6096 -0.1193  0.5608
  186bbb    H11 5382   8.933   9.341   8.368 -0.8994 -1.6899 -1.9214
  186bbb    H12 5383   9.065   9.448   8.352  1.5728  1.4164 -1.8447
  186bbb     C7 5384   8.687   9.336   8.612 -0.3684  0.6148 -0.2511
  186bbb    H13 5385   8.762   9.263   8.579  2.6534  2.9239  1.0251
  186bbb    H14 5386   8.588   9.288   8.615  0.4805 -1.2701 -1.0079
  186bbb     C8 5387   9.024   9.344   8.174  0.5863 -0.4811  0.1231
  186bbb    H15 5388   9.118   9.291   8.198 -0.2441 -1.7846  0.6195
  186bbb    H16 5389   9.052   9.415   8.095  0.7066 -0.5399  0.1128
  186bbb     C9 5390   8.708   9.943   8.256 -0.0795  0.3451  0.8191
  186bbb    H17 5391   8.730  10.002   8.166 -0.6813  1.9165  1.6584
  186bbb    H18 5392   8.738  10.004   8.342  0.7338 -0.4051  1.0751
  186bbb     O1 5393   8.705   9.374   8.747 -0.4587 -0.2817 -0.1690
  187bbb     N1 5394   6.938   8.507  12.020 -0.4670  0.3843 -0.4113
  187bbb     C1 5395   6.804   8.444  12.014  0.3736  0.1099 -0.5900
  187bbb     H1 5396   6.755   8.498  11.931 -0.1764  4.3661  2.2039
  187bbb     H2 5397   6.744   8.467  12.102  0.2103  0.9874 -0.9155
  187bbb     C2 5398   7.058   8.432  12.075 -0.8057  0.2744 -0.4943
  187bbb     H3 5399   7.151   8.490  12.070 -0.5525 -0.2146 -1.7375
  187bbb     H4 5400   7.068   8.346  12.008 -1.5544  1.2546 -1.9075
  187bbb     C3 5401   6.949   8.654  12.070  0.5354  0.7753  0.5996
  187bbb     H5 5402   6.950   8.656  12.180 -0.4323 -0.6718  0.6552
  187bbb     H6 5403   6.863   8.710  12.033 -0.6769  0.1694  2.3572
  187bbb     C4 5404   7.070   8.737  12.025  0.3880  0.1218 -0.2271
  187bbb     H7 5405   7.161   8.709  12.080  0.3032 -0.4758 -0.3844
  187bbb     H8 5406   7.050   8.842  12.051  2.3822  0.4564  0.1522
  187bbb     C5 5407   6.804   8.292  11.981 -0.7704  0.8180 -0.2701
  187bbb     H9 5408   6.702   8.253  11.988 -0.2779 -0.3011  1.0690
  187bbb    H10 5409   6.872   8.236  12.046 -0.8079  0.6545 -0.3727
  187bbb     C6 5410   7.041   8.380  12.220 -0.0454  0.3367 -0.7727
  187bbb    H11 5411   6.951   8.318  12.232  0.5452 -0.5197 -0.7262
  187bbb    H12 5412   7.037   8.468  12.285  1.1026 -0.2324  0.0933
  187bbb     C7 5413   7.086   8.740  11.874  0.4239 -0.3154  0.1186
  187bbb    H13 5414   6.998   8.790  11.832 -0.2296 -0.8136  0.8646
  187bbb    H14 5415   7.088   8.638  11.834 -2.6743  0.5002 -2.5714
  187bbb     C8 5416   7.150   8.280  12.259  0.2401  0.2825 -0.2601
  187bbb    H15 5417   7.239   8.293  12.197  0.0580  0.1185 -0.5580
  187bbb    H16 5418   7.113   8.183  12.224 -0.3502  0.6165 -0.5856
  187bbb     C9 5419   6.847   8.282  11.828 -0.2599 -0.9459 -0.0354
  187bbb    H17 5420   6.909   8.195  11.803 -0.1441 -0.7807 -0.3269
  187bbb    H18 5421   6.896   8.375  11.797 -0.6604 -0.3338  1.1247
  187bbb     O1 5422   7.213   8.809  11.851  0.0285  0.3087  0.0700
  188bbb     N1 5423   6.743   9.418  11.270 -0.0526 -0.4522  0.2331
  188bbb     C1 5424   6.735   9.431  11.123 -0.1552  0.5452 -0.3792
  188bbb     H1 5425   6.775   9.341  11.073  0.5216 -0.2571  1.4985
  188bbb     H2 5426   6.790   9.524  11.104  1.0715  0.5401  2.7195
  188bbb     C2 5427   6.707   9.546  11.344  0.5898 -0.3621 -0.5006
  188bbb     H3 5428   6.705   9.518  11.450 -0.0552 -0.0807 -0.4363
  188bbb     H4 5429   6.608   9.576  11.308  0.7531 -0.8169 -1.3455
  188bbb     C3 5430   6.868   9.354  11.317  0.0479  0.0289 -0.2529
  188bbb     H5 5431   6.861   9.332  11.424  3.3208  1.8026  0.4495
  188bbb     H6 5432   6.962   9.404  11.293 -0.2594 -0.7577 -3.6127
  188bbb     C4 5433   6.896   9.217  11.259  0.1531 -0.0751  0.0486
  188bbb     H7 5434   6.955   9.239  11.169  0.8121  0.9933  0.7108
  188bbb     H8 5435   6.803   9.172  11.224  1.3308 -1.0328 -2.0651
  188bbb     C5 5436   6.592   9.456  11.069 -1.6072  0.0006  0.6767
  188bbb     H9 5437   6.585   9.453  10.960  1.4115 -0.6405  0.4352
  188bbb    H10 5438   6.562   9.560  11.090  2.3508  1.8155 -1.5701
  188bbb     C6 5439   6.815   9.663  11.336 -0.4330  0.6247  0.6053
  188bbb    H11 5440   6.848   9.671  11.232 -2.6896  0.8874 -0.1265
  188bbb    H12 5441   6.896   9.622  11.398 -0.6114 -0.8663 -0.0882
  188bbb     C7 5442   6.981   9.131  11.359 -0.3479  0.5680 -0.6889
  188bbb    H13 5443   6.974   9.026  11.327  0.7709  0.4333 -0.5314
  188bbb    H14 5444   6.946   9.122  11.462 -0.5144 -0.9871 -0.8525
  188bbb     C8 5445   6.774   9.790  11.401 -0.8398  0.3938 -0.3656
  188bbb    H15 5446   6.861   9.853  11.427  0.3987 -1.8752  1.3970
  188bbb    H16 5447   6.734   9.769  11.501  0.4709 -0.1434  0.0799
  188bbb     C9 5448   6.485   9.360  11.115  0.0208  0.1248 -0.1063
  188bbb    H17 5449   6.482   9.366  11.224  0.5448 -2.7160  0.1340
  188bbb    H18 5450   6.504   9.256  11.086  1.0376  0.4560 -0.7076
  188bbb     O1 5451   7.116   9.170  11.357  0.0025  0.6805 -0.8883
  189bbb     N1 5452   8.953   9.852  10.504 -0.0599  0.2120 -0.1992
  189bbb     C1 5453   8.987   9.721  10.556 -0.4817  0.1913  0.2369
  189bbb     H1 5454   8.952   9.720  10.660  0.5906  0.8959  0.6157
  189bbb     H2 5455   9.096   9.713  10.551 -0.5341 -0.3128 -0.1463
  189bbb     C2 5456   9.025   9.871  10.378 -0.0412 -0.1272 -0.2498
  189bbb     H3 5457   8.963   9.845  10.291 -0.6305 -0.3501  0.2243
  189bbb     H4 5458   9.109   9.801  10.382 -0.5742 -0.7224  1.3789
  189bbb     C3 5459   8.809   9.896  10.489 -0.3759 -0.3645  0.8803
  189bbb     H5 5460   8.761   9.828  10.418 -3.4237  1.0579  1.4319
  189bbb     H6 5461   8.813   9.993  10.439 -3.8976  0.2792  1.6013
  189bbb     C4 5462   8.736   9.901  10.622  0.4956 -0.0998 -0.0415
  189bbb     H7 5463   8.774   9.972  10.697 -0.2566 -0.3073  0.5538
  189bbb     H8 5464   8.742   9.803  10.671  0.2817 -0.5564 -0.9266
  189bbb     C5 5465   8.935   9.594  10.480  0.0349  0.7777  0.4666
  189bbb     H9 5466   8.977   9.583  10.380  0.8399 -0.7120  0.9451
  189bbb    H10 5467   8.827   9.610  10.475  0.2510  2.3696  0.5158
  189bbb     C6 5468   9.082  10.009  10.360 -0.2516  0.0011 -0.1406
  189bbb    H11 5469   9.146  10.021  10.448 -0.8354 -0.2375  0.3211
  189bbb    H12 5470   8.997  10.076  10.378 -0.0190  1.1620 -2.8782
  189bbb     C7 5471   8.589   9.941  10.616  0.0109 -0.1072  0.5322
  189bbb    H13 5472   8.572  10.044  10.582  1.0756 -0.4643 -1.1953
  189bbb    H14 5473   8.555   9.929  10.720 -5.3323 -0.8779 -0.9997
  189bbb     C8 5474   9.168  10.032  10.231  0.2393  0.7231 -0.0163
  189bbb    H15 5475   9.220  10.129  10.237  0.7931  0.4022  0.3597
  189bbb    H16 5476   9.100  10.034  10.145  1.1945 -0.3963 -0.8263
  189bbb     C9 5477   8.955   9.472  10.568  0.0887  0.8062  0.3095
  189bbb    H17 5478   8.880   9.400  10.533  0.3158 -0.4106  2.2111
  189bbb    H18 5479   8.928   9.493  10.672  1.1680  1.1228  0.5305
  189bbb     O1 5480   8.518   9.846  10.533  0.7644 -0.0209 -0.2151
  190bbb     N1 5481   7.735  10.756  10.857 -0.4506  0.2947 -0.1994
  190bbb     C1 5482   7.694  10.670  10.971  0.0288 -0.4977  0.6851
  190bbb     H1 5483   7.778  10.669  11.041 -1.6001  1.5095  2.8306
  190bbb     H2 5484   7.674  10.566  10.942  0.1200 -0.0599 -1.0473
  190bbb     C2 5485   7.624  10.787  10.770 -0.4343 -0.4194 -0.3688
  190bbb     H3 5486   7.547  10.827  10.836 -0.0068 -2.2626  1.3343
  190bbb     H4 5487   7.582  10.697  10.722 -0.7804 -1.5175  1.8879
  190bbb     C3 5488   7.843  10.698  10.778 -0.4375 -0.0656  0.9045
  190bbb     H5 5489   7.861  10.754  10.685 -2.5407 -0.2735  0.3272
  190bbb     H6 5490   7.811  10.605  10.729  2.0603 -0.1420 -0.7716
  190bbb     C4 5491   7.985  10.681  10.842 -0.0140  0.3569 -0.2578
  190bbb     H7 5492   7.972  10.622  10.934  0.4345 -1.3025 -1.2220
  190bbb     H8 5493   8.021  10.780  10.873 -0.9539  1.8597 -3.5455
  190bbb     C5 5494   7.564  10.714  11.047 -0.4978  0.3572 -0.0699
  190bbb     H9 5495   7.478  10.705  10.980 -1.2347  1.5546  0.6720
  190bbb    H10 5496   7.574  10.821  11.069 -2.0972  1.1291 -2.6258
  190bbb     C6 5497   7.649  10.902  10.667 -0.1275  0.3258 -0.0612
  190bbb    H11 5498   7.717  10.861  10.591  1.5999  1.3713  0.8534
  190bbb    H12 5499   7.712  10.979  10.713  2.0644 -1.9935  1.0996
  190bbb     C7 5500   8.102  10.626  10.759 -0.1037 -0.2399 -0.4100
  190bbb    H13 5501   8.190  10.623  10.824 -0.8364 -0.1780  0.6096
  190bbb    H14 5502   8.128  10.696  10.678  2.2864 -2.0576 -1.3449
  190bbb     C8 5503   7.515  10.957  10.610 -0.3115  0.4817  0.7130
  190bbb    H15 5504   7.537  11.052  10.560 -1.5804  1.0004  1.1125
  190bbb    H16 5505   7.455  10.978  10.699 -3.6255 -0.3781 -1.1529
  190bbb     C9 5506   7.551  10.631  11.176  0.0713  0.4796  0.0971
  190bbb    H17 5507   7.637  10.661  11.237  0.5433  1.2142 -0.8955
  190bbb    H18 5508   7.560  10.530  11.136  1.9959  0.5486  0.2407
  190bbb     O1 5509   8.078  10.490  10.715  0.4076 -0.1300 -0.3950
  191bbb     N1 5510   6.672   3.421   9.328  0.5088 -0.0318  0.8258
  191bbb     C1 5511   6.611   3.436   9.463 -0.0134 -0.6575  0.2261
  191bbb     H1 5512   6.593   3.542   9.488  0.9147 -1.1225  3.1770
  191bbb     H2 5513   6.689   3.404   9.533  2.1955  0.5337 -1.5459
  191bbb     C2 5514   6.588   3.428   9.207  0.2670  0.5021  0.2269
  191bbb     H3 5515   6.496   3.370   9.216  1.0750 -0.9029 -0.2853
  191bbb     H4 5516   6.642   3.377   9.126  0.9901  0.3931  0.7674
  191bbb     C3 5517   6.798   3.496   9.308  0.0364 -0.2003 -0.0459
  191bbb     H5 5518   6.780   3.601   9.336  0.7125 -0.7837  3.0356
  191bbb     H6 5519   6.824   3.493   9.202  1.6082 -1.0702  0.3408
  191bbb     C4 5520   6.910   3.424   9.389  0.1697 -0.4808 -0.5592
  191bbb     H7 5521   6.933   3.326   9.345 -0.0568 -0.3168 -1.0559
  191bbb     H8 5522   6.880   3.414   9.494  2.3806  1.5815  0.3480
  191bbb     C5 5523   6.480   3.357   9.482  0.0070  0.2209 -0.1592
  191bbb     H9 5524   6.402   3.393   9.414 -0.3455  0.1303  0.1960
  191bbb    H10 5525   6.443   3.378   9.583  2.6175 -0.4709  1.0074
  191bbb     C6 5526   6.547   3.569   9.164 -0.2496 -0.1716  0.3543
  191bbb    H11 5527   6.535   3.569   9.055 -2.6817 -0.7124  0.5831
  191bbb    H12 5528   6.623   3.645   9.189 -1.5343  0.4690  2.6669
  191bbb     C7 5529   7.040   3.506   9.404  0.0987 -0.2330  0.5706
  191bbb    H13 5530   7.106   3.449   9.471 -0.3275 -0.7485  0.5564
  191bbb    H14 5531   7.014   3.604   9.446 -1.4726 -0.4630  0.1736
  191bbb     C8 5532   6.414   3.606   9.216 -0.4698 -0.0471  0.2939
  191bbb    H15 5533   6.410   3.615   9.325 -0.0248  0.2095  0.2931
  191bbb    H16 5534   6.333   3.536   9.194  0.4397 -2.0108  2.7925
  191bbb     C9 5535   6.491   3.203   9.463  0.2811 -0.6955  0.2566
  191bbb    H17 5536   6.516   3.195   9.356  1.2570 -0.3340  0.4450
  191bbb    H18 5537   6.399   3.149   9.487  2.1109 -3.8349  0.7756
  191bbb     O1 5538   7.119   3.516   9.279 -0.1207 -0.3919 -0.4478
  192bbb     N1 5539   7.917   3.519   8.680  0.0976  0.3240  0.4474
  192bbb     C1 5540   7.984   3.640   8.729 -1.1140 -0.6972  0.3066
  192bbb     H1 5541   8.066   3.662   8.660  0.8714 -3.6866  1.4776
  192bbb     H2 5542   8.040   3.621   8.822 -0.5396  1.7948  0.5341
  192bbb     C2 5543   8.014   3.401   8.666 -0.2163 -0.0209 -0.1539
  192bbb     H3 5544   7.957   3.321   8.617 -2.1099  1.1989 -0.0402
  192bbb     H4 5545   8.042   3.362   8.765 -1.1078 -0.5683 -0.1059
  192bbb     C3 5546   7.812   3.480   8.773 -0.0040  0.1228 -0.0656
  192bbb     H5 5547   7.741   3.563   8.779  1.0222  1.0867 -0.9153
  192bbb     H6 5548   7.843   3.468   8.877 -2.3790 -1.1509  0.5693
  192bbb     C4 5549   7.728   3.348   8.738  0.1763  0.0492  0.0736
  192bbb     H7 5550   7.785   3.255   8.743  0.6420  0.3118 -0.2580
  192bbb     H8 5551   7.689   3.362   8.637 -0.1619 -2.1715 -0.1479
  192bbb     C5 5552   7.905   3.775   8.750 -0.6393  0.0640  0.0906
  192bbb     H9 5553   7.981   3.852   8.736 -0.1414 -0.3613  0.4212
  192bbb    H10 5554   7.873   3.781   8.855 -2.6893 -1.1692 -0.4018
  192bbb     C6 5555   8.146   3.421   8.588  0.2613 -0.1826  0.5317
  192bbb    H11 5556   8.192   3.322   8.581  2.2545  0.4772  2.8756
  192bbb    H12 5557   8.215   3.481   8.648 -2.6655  1.4000  2.5675
  192bbb     C7 5558   7.599   3.333   8.830 -0.2854 -0.5436  0.1322
  192bbb    H13 5559   7.620   3.332   8.937  0.1338 -2.1097  0.0642
  192bbb    H14 5560   7.557   3.235   8.801  0.2905 -0.6292 -0.4539
  192bbb     C8 5561   8.121   3.473   8.442 -0.0456 -0.6826  0.3684
  192bbb    H15 5562   8.216   3.477   8.388 -0.5270 -1.6645 -0.5926
  192bbb    H16 5563   8.078   3.571   8.465  1.7663 -0.1703  1.8493
  192bbb     C9 5564   7.790   3.808   8.655 -0.6537  0.2740 -0.1202
  192bbb    H17 5565   7.702   3.751   8.687  0.9541 -0.2798  3.9274
  192bbb    H18 5566   7.804   3.783   8.549  1.2598  4.0660 -0.9630
  192bbb     O1 5567   7.511   3.438   8.790  0.1193  0.1961 -0.3910
  193bbb     N1 5568   5.368   4.894   7.732 -0.1102 -0.3666  0.0102
  193bbb     C1 5569   5.281   4.999   7.783  0.5607 -0.0402  0.1821
  193bbb     H1 5570   5.310   5.101   7.753 -0.7633  0.4165  0.3965
  193bbb     H2 5571   5.280   5.001   7.893 -0.5875 -0.2201  0.1884
  193bbb     C2 5572   5.370   4.871   7.584 -0.2029  0.1482  0.0860
  193bbb     H3 5573   5.429   4.945   7.530  0.0926 -0.4132 -0.3758
  193bbb     H4 5574   5.267   4.882   7.547 -1.0243  0.1862  2.1890
  193bbb     C3 5575   5.498   4.881   7.798  0.0536  0.1058 -0.7946
  193bbb     H5 5576   5.533   4.779   7.783 -1.2159 -0.4071 -0.4152
  193bbb     H6 5577   5.484   4.890   7.907 -1.6728 -0.1960 -0.9577
  193bbb     C4 5578   5.603   4.984   7.756  0.3310 -0.1845 -0.2884
  193bbb     H7 5579   5.549   5.079   7.746 -1.6525 -1.1385  0.7807
  193bbb     H8 5580   5.639   4.961   7.655  0.7640 -1.3235  0.1072
  193bbb     C5 5581   5.131   4.977   7.740  0.3813  0.0458  0.0417
  193bbb     H9 5582   5.109   4.879   7.782 -2.2688 -0.1242 -1.4702
  193bbb    H10 5583   5.120   4.987   7.631  1.2305  2.9155  0.1307
  193bbb     C6 5584   5.409   4.734   7.537 -0.3005  0.4676  0.3414
  193bbb    H11 5585   5.503   4.690   7.571  0.1468  0.1656 -1.1934
  193bbb    H12 5586   5.409   4.731   7.427 -0.2666 -0.3265  0.3632
  193bbb     C7 5587   5.735   4.997   7.842 -0.2944 -0.7610  0.1152
  193bbb    H13 5588   5.720   5.041   7.941  2.0311 -1.0354  0.6531
  193bbb    H14 5589   5.792   5.074   7.788 -1.6194  1.3133  1.5293
  193bbb     C8 5590   5.306   4.625   7.579  0.0835  0.5110 -0.2538
  193bbb    H15 5591   5.243   4.660   7.662  1.2471  0.7344  0.5647
  193bbb    H16 5592   5.360   4.536   7.616 -0.1342 -0.3956 -2.0213
  193bbb     C9 5593   5.036   5.082   7.809 -0.0327 -0.5748 -0.4241
  193bbb    H17 5594   5.065   5.185   7.789  1.1805 -0.9241 -0.5489
  193bbb    H18 5595   5.046   5.073   7.918  1.0440  2.3097 -0.2008
  193bbb     O1 5596   5.805   4.867   7.850 -0.1463  0.4206 -0.2778
  194bbb     N1 5597   6.103   4.755   6.851  0.9478  0.6064  0.1276
  194bbb     C1 5598   6.127   4.686   6.721 -0.2626  0.8227  0.3381
  194bbb     H1 5599   6.224   4.635   6.723  0.0135  1.3350  0.3004
  194bbb     H2 5600   6.127   4.764   6.644 -1.1312  0.1233 -0.3951
  194bbb     C2 5601   6.202   4.866   6.868 -0.3934 -0.6417  0.2755
  194bbb     H3 5602   6.199   4.923   6.774 -2.4863 -0.2399  0.5515
  194bbb     H4 5603   6.306   4.831   6.878 -0.2349 -0.9324 -1.9634
  194bbb     C3 5604   6.067   4.664   6.965  0.4320  0.1043  0.2649
  194bbb     H5 5605   5.978   4.605   6.945  1.5452 -1.4070 -0.4101
  194bbb     H6 5606   6.042   4.727   7.051 -3.8860  0.1700 -0.8401
  194bbb     C4 5607   6.177   4.575   7.006 -0.4813 -1.0838 -0.4983
  194bbb     H7 5608   6.272   4.623   7.029 -0.7485 -1.9639  3.0442
  194bbb     H8 5609   6.190   4.502   6.925 -1.3818 -0.1777 -1.4805
  194bbb     C5 5610   6.020   4.578   6.673  0.1950 -0.6737  0.4186
  194bbb     H9 5611   5.929   4.635   6.694  0.4885  0.2767 -0.7911
  194bbb    H10 5612   6.033   4.490   6.738  2.0109  0.3839  1.5562
  194bbb     C6 5613   6.176   4.974   6.984 -0.7657 -0.1848  0.1593
  194bbb    H11 5614   6.207   4.930   7.080 -0.9658 -1.4933 -0.3501
  194bbb    H12 5615   6.069   4.998   6.984 -0.7386 -0.0620  0.9272
  194bbb     C7 5616   6.153   4.497   7.130  0.5023 -0.2507 -0.0390
  194bbb    H13 5617   6.220   4.410   7.133 -1.5928 -1.9166  1.3884
  194bbb    H14 5618   6.048   4.466   7.126 -0.3979  2.0899  2.4717
  194bbb     C8 5619   6.246   5.110   6.954  0.0773 -0.7963  0.1672
  194bbb    H15 5620   6.215   5.181   7.031  1.4608  2.6396 -2.2136
  194bbb    H16 5621   6.212   5.153   6.859 -0.0868  1.3684  1.1487
  194bbb     C9 5622   6.040   4.527   6.526 -0.4116 -0.7112 -0.8617
  194bbb    H17 5623   6.053   4.616   6.463  1.1384 -0.0832  0.2631
  194bbb    H18 5624   5.953   4.470   6.491 -2.0314  0.8629  0.4215
  194bbb     O1 5625   6.169   4.569   7.254 -0.2932  0.2756 -0.1590
  195bbb     N1 5626   7.639   5.622  10.640 -0.7820 -0.1042 -0.5145
  195bbb     C1 5627   7.728   5.644  10.521  0.2754 -0.4517 -0.6450
  195bbb     H1 5628   7.699   5.574  10.441  0.1080  0.5035 -1.4500
  195bbb     H2 5629   7.824   5.606  10.557 -0.6153 -1.8457  0.3619
  195bbb     C2 5630   7.696   5.695  10.758  0.4884  0.2857 -0.1408
  195bbb     H3 5631   7.693   5.804  10.745 -1.1937  0.3994  0.8841
  195bbb     H4 5632   7.801   5.663  10.748  0.5195  0.6595 -1.0613
  195bbb     C3 5633   7.494   5.645  10.623 -0.8492 -0.7233 -0.1578
  195bbb     H5 5634   7.474   5.753  10.616 -2.5202 -0.9247  0.7470
  195bbb     H6 5635   7.445   5.613  10.716 -0.2400 -1.4442 -0.0743
  195bbb     C4 5636   7.439   5.575  10.493  0.2999  0.2286  0.1003
  195bbb     H7 5637   7.347   5.521  10.520  1.7422 -2.0574  0.7239
  195bbb     H8 5638   7.506   5.492  10.467 -1.0304 -1.4479  1.7810
  195bbb     C5 5639   7.739   5.792  10.470 -0.0870  0.0334 -0.7050
  195bbb     H9 5640   7.649   5.845  10.504 -0.8090 -2.2841  1.2678
  195bbb    H10 5641   7.740   5.789  10.361 -2.6817  2.1831 -0.9066
  195bbb     C6 5642   7.647   5.660  10.898 -0.2251  0.5691  0.0260
  195bbb    H11 5643   7.728   5.651  10.972 -1.2672  2.3803  1.4594
  195bbb    H12 5644   7.603   5.560  10.885 -1.2498  0.5001  3.1680
  195bbb     C7 5645   7.423   5.669  10.366 -0.5537  0.1791  0.2067
  195bbb    H13 5646   7.526   5.700  10.345 -0.9443  0.7866 -0.9252
  195bbb    H14 5647   7.368   5.762  10.386 -2.2984 -0.7223 -0.2459
  195bbb     C8 5648   7.538   5.762  10.937  0.0672 -0.0471 -0.5557
  195bbb    H15 5649   7.473   5.786  10.852 -0.0381  0.6663 -0.2787
  195bbb    H16 5650   7.584   5.859  10.962  2.5466 -1.4827  0.8686
  195bbb     C9 5651   7.858   5.872  10.535 -0.3251  1.4046  0.3588
  195bbb    H17 5652   7.888   5.835  10.634 -1.1992  0.9672  0.4762
  195bbb    H18 5653   7.814   5.970  10.558  0.1782  1.9405 -0.8813
  195bbb     O1 5654   7.376   5.596  10.252 -1.0143  0.2757  0.3289
  196bbb     N1 5655   7.212   4.545  10.513 -0.2466  0.0754  0.3119
  196bbb     C1 5656   7.332   4.464  10.482  0.5881 -0.5369  0.0267
  196bbb     H1 5657   7.402   4.527  10.426 -1.2208  0.9281 -0.7365
  196bbb     H2 5658   7.309   4.378  10.418  0.7791 -0.5800  0.0162
  196bbb     C2 5659   7.095   4.477  10.581  0.6678  0.0212  0.2352
  196bbb     H3 5660   7.013   4.549  10.581  0.3192 -0.2994  2.5971
  196bbb     H4 5661   7.120   4.454  10.686  3.5612  0.2118 -0.3381
  196bbb     C3 5662   7.248   4.678  10.579 -0.4161 -0.1561 -0.2102
  196bbb     H5 5663   7.351   4.699  10.549 -0.0292 -2.1978 -0.5078
  196bbb     H6 5664   7.243   4.662  10.688  0.9655 -1.0758 -0.2597
  196bbb     C4 5665   7.158   4.790  10.543 -0.7422 -0.6721 -0.1836
  196bbb     H7 5666   7.191   4.880  10.596  1.4871 -1.3937 -0.2698
  196bbb     H8 5667   7.057   4.779  10.584 -0.1670  0.7919  1.7881
  196bbb     C5 5668   7.404   4.422  10.615 -0.1157  0.8469 -0.0837
  196bbb     H9 5669   7.333   4.415  10.698 -0.5852  2.4074 -0.3272
  196bbb    H10 5670   7.477   4.495  10.651  0.3799  0.6864 -0.7434
  196bbb     C6 5671   7.049   4.346  10.518 -0.0622 -0.3405 -0.1572
  196bbb    H11 5672   7.138   4.282  10.525 -0.4141 -0.8223 -0.0283
  196bbb    H12 5673   7.019   4.353  10.413  2.6798 -0.1254 -1.0067
  196bbb     C7 5674   7.151   4.821  10.389 -0.7031  0.3423  0.6015
  196bbb    H13 5675   7.120   4.729  10.337  0.7143  0.2749 -0.1863
  196bbb    H14 5676   7.257   4.829  10.363 -0.7214 -2.0895 -0.5137
  196bbb     C8 5677   6.935   4.285  10.616  0.1000  0.0353 -0.3307
  196bbb    H15 5678   6.887   4.202  10.563 -1.3890  2.4173 -3.0409
  196bbb    H16 5679   6.862   4.367  10.628  0.4718  0.3656 -0.2995
  196bbb     C9 5680   7.488   4.297  10.598 -0.1949  0.5890 -0.2672
  196bbb    H17 5681   7.418   4.218  10.566 -0.9984  0.1392  2.3676
  196bbb    H18 5682   7.520   4.255  10.694 -0.5798 -0.5816 -0.6317
  196bbb     O1 5683   7.061   4.925  10.358  0.1672  0.3191  0.6875
  197bbb     N1 5684   5.877   6.082   9.145  0.4412  0.2731 -0.1223
  197bbb     C1 5685   5.991   6.170   9.165  0.2822 -0.2039 -0.0473
  197bbb     H1 5686   6.065   6.109   9.218 -0.6970 -0.2559  1.3168
  197bbb     H2 5687   5.965   6.247   9.239 -1.1576 -1.1237  0.4579
  197bbb     C2 5688   5.861   5.999   9.021  0.3178  0.9768 -0.0164
  197bbb     H3 5689   5.870   6.071   8.939 -3.6639  1.9646  0.2244
  197bbb     H4 5690   5.758   5.965   9.005  1.2001 -0.8381 -2.4880
  197bbb     C3 5691   5.851   5.998   9.264  0.0446 -0.4801 -0.8723
  197bbb     H5 5692   5.875   6.059   9.352 -0.3356  0.2079 -1.2407
  197bbb     H6 5693   5.922   5.914   9.264  0.9939  0.2787 -2.2108
  197bbb     C4 5694   5.704   5.947   9.276  0.1649  1.1972  0.2479
  197bbb     H7 5695   5.703   5.864   9.204  0.5911 -0.1200  1.7048
  197bbb     H8 5696   5.633   6.021   9.238 -0.7911  0.2024  0.0683
  197bbb     C5 5697   6.045   6.241   9.035  0.2946 -0.1594 -0.1358
  197bbb     H9 5698   5.963   6.283   8.976  1.3530 -0.9781 -2.3190
  197bbb    H10 5699   6.092   6.170   8.965  1.2885  1.0492 -0.7286
  197bbb     C6 5700   5.977   5.887   9.002  0.1747  0.4139 -0.2741
  197bbb    H11 5701   5.959   5.809   9.077  1.0578 -0.8747 -1.3624
  197bbb    H12 5702   6.079   5.920   9.026  0.8492 -1.0163 -1.0379
  197bbb     C7 5703   5.661   5.891   9.418  0.4684  0.0066  0.5609
  197bbb    H13 5704   5.559   5.849   9.419  0.4818 -0.0297  0.4834
  197bbb    H14 5705   5.655   5.974   9.489  0.1179 -0.8219  1.5111
  197bbb     C8 5706   5.981   5.824   8.859  0.3714  0.0159 -0.1367
  197bbb    H15 5707   5.879   5.831   8.818 -0.3059  1.1651  1.6359
  197bbb    H16 5708   6.044   5.886   8.794  0.9171  0.7178  1.0467
  197bbb     C9 5709   6.155   6.346   9.068 -0.5209  0.1719 -0.0480
  197bbb    H17 5710   6.207   6.402   8.989  1.7991  2.4014  2.8098
  197bbb    H18 5711   6.115   6.431   9.125  0.7398  1.5591 -1.1619
  197bbb     O1 5712   5.749   5.792   9.470  0.1899 -0.4219  0.2421
  198bbb     N1 5713   5.220   5.053   9.484 -0.4325  0.0287  0.1445
  198bbb     C1 5714   5.168   4.946   9.402  0.3078  0.0331 -0.1622
  198bbb     H1 5715   5.078   4.904   9.449 -0.6606  1.7929 -0.3795
  198bbb     H2 5716   5.240   4.863   9.400  0.4147  0.0958  0.6241
  198bbb     C2 5717   5.141   5.172   9.483 -0.6073  0.4127  0.7326
  198bbb     H3 5718   5.037   5.152   9.509 -0.8521  0.8744  0.1471
  198bbb     H4 5719   5.138   5.209   9.379  1.0554 -1.1964  0.0527
  198bbb     C3 5720   5.246   4.999   9.621 -0.3332 -0.2001 -0.3647
  198bbb     H5 5721   5.155   4.954   9.661  0.8829 -1.3837  1.1731
  198bbb     H6 5722   5.273   5.076   9.694 -1.9340  0.4147 -0.3793
  198bbb     C4 5723   5.350   4.889   9.636 -0.7905 -0.1286 -0.0552
  198bbb     H7 5724   5.311   4.798   9.589 -1.0231 -1.1377  1.9839
  198bbb     H8 5725   5.375   4.876   9.742  2.6358  0.6566 -0.6314
  198bbb     C5 5726   5.127   4.977   9.256 -0.2150  0.1687 -0.2847
  198bbb     H9 5727   5.196   5.046   9.207  2.0028 -1.6940  0.0410
  198bbb    H10 5728   5.036   5.037   9.266 -1.0572 -1.3097  1.4480
  198bbb     C6 5729   5.193   5.284   9.576 -0.1591 -0.4250  0.9136
  198bbb    H11 5730   5.186   5.261   9.683  0.3440 -0.8353  0.8598
  198bbb    H12 5731   5.137   5.378   9.566 -0.6640 -0.8122  0.0072
  198bbb     C7 5732   5.482   4.935   9.572  0.8610  0.5013  0.0285
  198bbb    H13 5733   5.479   4.946   9.463  0.1318  3.8188  0.2771
  198bbb    H14 5734   5.554   4.854   9.591 -1.1550 -1.3330  0.2740
  198bbb     C8 5735   5.332   5.330   9.536  0.5667  0.5623 -0.4173
  198bbb    H15 5736   5.381   5.232   9.541 -1.1916 -0.3226  0.8912
  198bbb    H16 5737   5.378   5.396   9.611  1.1648 -0.2369 -0.0658
  198bbb     C9 5738   5.103   4.850   9.167 -0.1791 -0.0864  0.2448
  198bbb    H17 5739   5.070   4.882   9.068 -0.8533  0.0078  0.4962
  198bbb    H18 5740   5.026   4.790   9.216  1.4063 -1.8627  0.6655
  198bbb     O1 5741   5.519   5.058   9.630 -0.1051  0.5735 -0.4362
  199bbb     N1 5742   9.821   6.698   8.347 -0.6708  0.2370 -0.1086
  199bbb     C1 5743   9.810   6.821   8.429  0.2548 -0.0458  0.2720
  199bbb     H1 5744   9.838   6.909   8.370  0.9731 -1.2329 -1.2059
  199bbb     H2 5745   9.879   6.817   8.514  0.3769 -0.3662  0.1548
  199bbb     C2 5746   9.957   6.690   8.287  0.1812  0.2498 -0.4182
  199bbb     H3 5747   9.975   6.586   8.256  0.9148  0.7406 -1.7004
  199bbb     H4 5748  10.030   6.708   8.367 -0.4015 -1.7741  0.6316
  199bbb     C3 5749   9.793   6.573   8.426  0.4897 -0.1764  0.1165
  199bbb     H5 5750   9.711   6.593   8.496  0.1263 -0.1153 -0.3242
  199bbb     H6 5751   9.880   6.543   8.485  0.7674 -1.0341 -0.6996
  199bbb     C4 5752   9.750   6.455   8.326 -0.4612 -0.1327 -0.9248
  199bbb     H7 5753   9.826   6.440   8.249 -0.1685 -0.8479 -0.5037
  199bbb     H8 5754   9.658   6.484   8.273 -0.4415 -1.2482 -1.6018
  199bbb     C5 5755   9.668   6.843   8.484  0.3896  0.3868 -0.5336
  199bbb     H9 5756   9.654   6.781   8.573  1.3806  2.0238  0.8335
  199bbb    H10 5757   9.599   6.811   8.406  0.6797 -1.7004  0.0161
  199bbb     C6 5758   9.974   6.774   8.159  0.4515  0.0299 -0.1355
  199bbb    H11 5759   9.987   6.880   8.183  0.3299 -0.2606  1.2944
  199bbb    H12 5760   9.881   6.767   8.101 -0.3951 -0.3191  1.2364
  199bbb     C7 5761   9.740   6.320   8.407  0.1461  0.3241 -0.0395
  199bbb    H13 5762   9.713   6.333   8.513  0.5857 -0.0673  0.1255
  199bbb    H14 5763   9.840   6.275   8.413  0.6242  1.4217  0.4792
  199bbb     C8 5764  10.098   6.724   8.068  0.1823  0.1551  0.4818
  199bbb    H15 5765  10.183   6.704   8.134  0.8323 -2.5352 -1.0265
  199bbb    H16 5766  10.127   6.805   8.000  0.5584 -1.2446 -1.0811
  199bbb     C9 5767   9.637   6.989   8.531 -0.3181  0.9023 -0.1135
  199bbb    H17 5768   9.676   7.051   8.450 -0.6353 -1.0073 -1.7985
  199bbb    H18 5769   9.530   7.017   8.532 -0.1206  1.9676  2.8686
  199bbb     O1 5770   9.640   6.244   8.346 -0.4581  0.2113  0.1053
  200bbb     N1 5771   9.196   5.682   7.639  0.1525 -0.3217  0.3406
  200bbb     C1 5772   9.181   5.831   7.601 -0.4503  0.1756 -0.0609
  200bbb     H1 5773   9.114   5.885   7.669 -0.3771  0.4237 -0.1839
  200bbb     H2 5774   9.130   5.839   7.504  2.2817  2.7084 -1.4574
  200bbb     C2 5775   9.089   5.591   7.585  0.2247  0.3922 -0.6620
  200bbb     H3 5776   8.991   5.633   7.612 -0.6265 -1.4330 -0.7627
  200bbb     H4 5777   9.089   5.491   7.629  0.2918  0.1876 -1.1255
  200bbb     C3 5778   9.224   5.667   7.781 -0.0268  0.4387 -0.1765
  200bbb     H5 5779   9.129   5.670   7.838 -0.6003 -0.9713 -1.0097
  200bbb     H6 5780   9.286   5.750   7.816  0.1580  0.3859 -0.3804
  200bbb     C4 5781   9.299   5.531   7.819  0.7527  0.4215 -0.0696
  200bbb     H7 5782   9.385   5.506   7.755 -0.7044 -0.0449 -1.9047
  200bbb     H8 5783   9.240   5.439   7.813  1.1867 -0.1209  2.6586
  200bbb     C5 5784   9.304   5.911   7.577  0.2360 -0.1403 -0.0738
  200bbb     H9 5785   9.372   5.862   7.506 -2.5743  0.8408 -3.7053
  200bbb    H10 5786   9.358   5.924   7.672  0.7498  0.8398 -0.4853
  200bbb     C6 5787   9.088   5.579   7.436  0.3110  0.1433  0.6945
  200bbb    H11 5788   9.182   5.533   7.402  1.4590  2.2965  0.7873
  200bbb    H12 5789   9.088   5.676   7.386 -0.2076 -0.0965  0.2271
  200bbb     C7 5790   9.355   5.538   7.964 -0.3625 -1.0475 -0.2656
  200bbb    H13 5791   9.383   5.441   8.007 -1.1318 -0.6464  1.2361
  200bbb    H14 5792   9.285   5.581   8.037  2.6167  1.7708  1.2290
  200bbb     C8 5793   8.970   5.496   7.387 -0.1552  0.1894  0.3446
  200bbb    H15 5794   8.947   5.408   7.447  1.1378  0.0876  0.7136
  200bbb    H16 5795   8.877   5.555   7.383 -0.8594 -0.9278 -1.1765
  200bbb     C9 5796   9.267   6.046   7.518 -0.3714  0.7533 -0.3978
  200bbb    H17 5797   9.197   6.095   7.588 -0.7584 -2.5651  1.7765
  200bbb    H18 5798   9.207   6.029   7.428  1.6284 -0.6249 -1.5552
  200bbb     O1 5799   9.473   5.620   7.970 -0.3283  0.5235 -0.5793
  201bbb     N1 5800  10.214   5.017   8.843 -0.2070 -0.0188 -0.0660
  201bbb     C1 5801  10.198   5.037   8.984 -0.0170  0.2502 -0.8911
  201bbb     H1 5802  10.218   5.144   9.001  1.3463  0.0555 -1.1434
  201bbb     H2 5803  10.263   4.980   9.052 -1.5180 -0.0010  0.3931
  201bbb     C2 5804  10.334   5.083   8.787 -0.3426 -0.7899  0.0723
  201bbb     H3 5805  10.427   5.052   8.834 -0.0177  0.3308  0.1974
  201bbb     H4 5806  10.348   5.192   8.791  1.3150 -0.9917  0.4830
  201bbb     C3 5807  10.179   4.879   8.795 -0.2495  0.4172 -0.9163
  201bbb     H5 5808  10.194   4.875   8.686  1.3871  1.0154 -0.7385
  201bbb     H6 5809  10.074   4.856   8.816  0.0800 -0.4287 -0.1122
  201bbb     C4 5810  10.270   4.768   8.860  0.0594 -0.3002  0.3877
  201bbb     H7 5811  10.250   4.760   8.968 -3.2681 -1.0116 -0.1722
  201bbb     H8 5812  10.370   4.813   8.850  0.0383 -0.4110 -0.3573
  201bbb     C5 5813  10.053   5.017   9.035 -0.1730  0.3326  0.0847
  201bbb     H9 5814  10.025   4.912   9.049  0.5144 -0.0872 -1.5085
  201bbb    H10 5815   9.985   5.061   8.960 -1.7879  0.5976  1.6467
  201bbb     C6 5816  10.325   5.066   8.640 -0.5082 -0.3255 -0.1307
  201bbb    H11 5817  10.224   5.053   8.600  0.2558 -1.3207 -1.8748
  201bbb    H12 5818  10.379   4.973   8.620 -0.5213 -0.5399  0.8040
  201bbb     C7 5819  10.274   4.627   8.805  0.1173  0.3520  0.2157
  201bbb    H13 5820  10.344   4.568   8.865 -0.1488  0.7846  0.9665
  201bbb    H14 5821  10.321   4.631   8.706 -0.6860 -1.4202 -0.2643
  201bbb     C8 5822  10.394   5.179   8.561  0.1560 -0.3801  0.3144
  201bbb    H15 5823  10.503   5.164   8.568  0.2008 -0.0686  0.3082
  201bbb    H16 5824  10.368   5.275   8.606  0.6263  0.7084 -1.5977
  201bbb     C9 5825  10.014   5.082   9.167  0.1293  0.2590 -0.8774
  201bbb    H17 5826   9.913   5.055   9.200 -0.2987 -1.0050 -3.0149
  201bbb    H18 5827  10.003   5.189   9.146 -0.2041  0.4180  0.0690
  201bbb     O1 5828  10.141   4.576   8.806 -0.0874  0.6919 -0.0891
  202bbb     N1 5829   8.997   4.467   8.677  0.3521  0.2900 -0.0135
  202bbb     C1 5830   8.888   4.435   8.583 -0.3942  0.4712  0.8297
  202bbb     H1 5831   8.791   4.423   8.632 -0.7767  0.1135 -0.0013
  202bbb     H2 5832   8.915   4.342   8.530  2.1032  2.3861 -1.5340
  202bbb     C2 5833   8.960   4.584   8.759 -0.1346 -0.4835 -0.8713
  202bbb     H3 5834   8.853   4.607   8.758 -0.3742 -1.5186 -1.8637
  202bbb     H4 5835   9.019   4.667   8.717  0.0000 -0.2218 -0.1738
  202bbb     C3 5836   9.134   4.476   8.626  0.1179 -0.0724 -0.9343
  202bbb     H5 5837   9.197   4.495   8.713 -0.2362 -0.0363 -0.6827
  202bbb     H6 5838   9.153   4.561   8.559  0.8694  0.9134  0.4878
  202bbb     C4 5839   9.196   4.342   8.582 -0.1639 -0.1726  0.1970
  202bbb     H7 5840   9.137   4.290   8.505 -1.1223  0.6070  0.3991
  202bbb     H8 5841   9.200   4.283   8.674  2.5897 -1.3642 -0.5831
  202bbb     C5 5842   8.846   4.548   8.480  0.0789 -0.3982 -0.9878
  202bbb     H9 5843   8.929   4.580   8.416 -0.7039  2.7659 -0.6004
  202bbb    H10 5844   8.825   4.641   8.534  1.5926  0.3412 -1.6154
  202bbb     C6 5845   9.013   4.581   8.909  0.1710  0.9506  0.6465
  202bbb    H11 5846   9.120   4.557   8.905  0.6996  3.2274 -1.8564
  202bbb    H12 5847   8.966   4.498   8.964 -0.5638 -1.3409 -3.1226
  202bbb     C7 5848   9.343   4.357   8.531 -0.8519 -0.3380  0.4626
  202bbb    H13 5849   9.350   4.422   8.442  2.9197 -0.1591  0.7191
  202bbb    H14 5850   9.371   4.257   8.496 -2.1199 -0.0682 -1.4823
  202bbb     C8 5851   8.998   4.717   8.967 -0.0018 -0.1407  0.6132
  202bbb    H15 5852   9.001   4.794   8.890  1.4260  0.2565  1.0375
  202bbb    H16 5853   9.091   4.739   9.021  1.4773 -2.7269 -0.7019
  202bbb     C9 5854   8.722   4.524   8.386 -0.3590  0.0631 -0.3080
  202bbb    H17 5855   8.698   4.621   8.341  0.4560 -0.1904 -1.3470
  202bbb    H18 5856   8.642   4.484   8.449 -1.2565  1.4038 -0.5602
  202bbb     O1 5857   9.422   4.407   8.640  0.1700 -0.0984 -0.0779
  203bbb     N1 5858   7.690   4.990  10.333  0.1350  0.5006 -0.4557
  203bbb     C1 5859   7.546   5.017  10.340 -0.3582 -0.3704  0.6443
  203bbb     H1 5860   7.490   4.954  10.409 -1.1706  1.1552  1.4305
  203bbb     H2 5861   7.503   5.001  10.241  1.5347 -0.5012 -0.2157
  203bbb     C2 5862   7.728   4.847  10.347  0.5055  0.2611 -0.3209
  203bbb     H3 5863   7.837   4.843  10.359  0.4389 -0.2837  0.1968
  203bbb     H4 5864   7.704   4.786  10.259 -3.9841 -0.4780  1.1583
  203bbb     C3 5865   7.772   5.049  10.229  0.4150 -0.3769 -0.0210
  203bbb     H5 5866   7.724   5.137  10.184 -1.1603 -0.6321  1.0484
  203bbb     H6 5867   7.780   4.974  10.150  0.5767  1.6332 -2.0205
  203bbb     C4 5868   7.919   5.070  10.265 -0.0425 -0.1618  0.3322
  203bbb     H7 5869   7.967   4.972  10.279  2.4220  0.7202 -1.1439
  203bbb     H8 5870   7.930   5.110  10.366 -0.9816 -2.4707  1.4406
  203bbb     C5 5871   7.515   5.164  10.372 -0.0813  0.4451  0.3583
  203bbb     H9 5872   7.530   5.214  10.275  0.7659 -1.4077 -0.5270
  203bbb    H10 5873   7.578   5.212  10.448  0.0600  1.1597 -0.2004
  203bbb     C6 5874   7.673   4.771  10.470 -0.0094  0.2761 -0.3909
  203bbb    H11 5875   7.567   4.747  10.460  0.1007 -0.1327 -0.5741
  203bbb    H12 5876   7.681   4.823  10.567  0.0774  0.6285 -0.5839
  203bbb     C7 5877   7.997   5.142  10.151 -0.2867  0.4591  0.5044
  203bbb    H13 5878   7.973   5.249  10.149  2.1897  1.0686  0.9584
  203bbb    H14 5879   7.983   5.087  10.057  3.2113 -0.1164  0.2226
  203bbb     C8 5880   7.738   4.635  10.483  0.3731 -0.2187  0.1158
  203bbb    H15 5881   7.738   4.584  10.386  1.9769 -1.1883  0.5999
  203bbb    H16 5882   7.669   4.575  10.545 -0.0530  0.2516  0.1051
  203bbb     C9 5883   7.363   5.177  10.417  0.2749 -0.7017  0.1644
  203bbb    H17 5884   7.310   5.081  10.422 -1.5096  0.2077 -0.2053
  203bbb    H18 5885   7.317   5.245  10.343  0.6104  0.8297  1.3044
  203bbb     O1 5886   8.140   5.134  10.177 -0.1870 -0.5237 -0.5624
  204bbb     N1 5887   8.969   5.156  10.614  0.0040  0.2723  0.1478
  204bbb     C1 5888   9.083   5.249  10.635  0.1860  0.4869  0.5360
  204bbb     H1 5889   9.046   5.327  10.703  0.2477 -0.9595  2.3329
  204bbb     H2 5890   9.100   5.305  10.542 -2.7313  0.2720 -0.2247
  204bbb     C2 5891   8.999   5.066  10.499 -0.0970  0.2349 -0.4303
  204bbb     H3 5892   9.083   5.001  10.526  0.0063  0.6917  0.3812
  204bbb     H4 5893   9.029   5.132  10.417 -0.8231  2.0494  0.6913
  204bbb     C3 5894   8.837   5.218  10.613 -0.2501  0.2899  0.1467
  204bbb     H5 5895   8.820   5.277  10.704  1.8752  1.0999  0.0541
  204bbb     H6 5896   8.756   5.144  10.616  0.7034 -0.8856 -1.3769
  204bbb     C4 5897   8.814   5.308  10.490  0.0920 -0.0852  0.2981
  204bbb     H7 5898   8.822   5.245  10.400  2.0462  1.1083 -0.4085
  204bbb     H8 5899   8.892   5.382  10.470  1.3548 -1.4233  0.0248
  204bbb     C5 5900   9.215   5.185  10.696  0.3653  0.8430  0.1452
  204bbb     H9 5901   9.299   5.255  10.701  2.4223 -1.5196  1.3994
  204bbb    H10 5902   9.237   5.111  10.617 -0.6838  1.9042 -1.2021
  204bbb     C6 5903   8.885   4.973  10.462 -0.7537  0.0312 -0.5726
  204bbb    H11 5904   8.914   4.936  10.362  0.5837 -0.3976 -0.0458
  204bbb    H12 5905   8.794   5.029  10.438 -1.9222 -0.7715  1.7272
  204bbb     C7 5906   8.674   5.361  10.495  0.9199 -0.9984 -0.1370
  204bbb    H13 5907   8.654   5.415  10.588  0.9283  1.0004 -1.2383
  204bbb    H14 5908   8.595   5.285  10.485 -1.1039  0.2879  3.8569
  204bbb     C8 5909   8.850   4.862  10.560 -0.0746 -1.1095 -0.3988
  204bbb    H15 5910   8.777   4.897  10.633 -1.0084 -1.1412 -1.3066
  204bbb    H16 5911   8.937   4.830  10.620 -0.7714 -3.2034 -0.4106
  204bbb     C9 5912   9.192   5.121  10.839 -0.7170  0.1211  0.2314
  204bbb    H17 5913   9.281   5.061  10.863 -1.6299 -0.4850  2.2880
  204bbb    H18 5914   9.108   5.050  10.829  0.1691 -0.7106 -2.0790
  204bbb     O1 5915   8.664   5.469  10.398  0.5823 -0.1625 -0.0878
  205bbb     N1 5916   8.303   4.582   8.510 -0.4483  0.0092 -0.5335
  205bbb     C1 5917   8.192   4.651   8.587 -0.1705  0.9293  0.1266
  205bbb     H1 5918   8.214   4.660   8.694 -1.7235  1.5238  0.4148
  205bbb     H2 5919   8.097   4.599   8.567  0.5789 -1.0469  1.4178
  205bbb     C2 5920   8.263   4.549   8.375 -0.4559  0.4828  0.4923
  205bbb     H3 5921   8.243   4.647   8.329 -3.8164 -1.8241 -3.7285
  205bbb     H4 5922   8.175   4.483   8.369  0.9364 -1.3283 -1.3746
  205bbb     C3 5923   8.364   4.466   8.581  0.7060 -0.4092 -0.6422
  205bbb     H5 5924   8.424   4.403   8.514  0.3090  0.5921 -1.9917
  205bbb     H6 5925   8.282   4.408   8.627 -0.3194  1.0169 -0.6015
  205bbb     C4 5926   8.446   4.512   8.700 -0.5533 -0.5050 -0.0045
  205bbb     H7 5927   8.391   4.570   8.775  1.3448 -1.0125  1.8806
  205bbb     H8 5928   8.536   4.566   8.667  1.0744 -2.0334  1.7303
  205bbb     C5 5929   8.156   4.799   8.543  0.1909  0.4433  0.5404
  205bbb     H9 5930   8.121   4.790   8.440  1.5831 -3.7404  0.2406
  205bbb    H10 5931   8.244   4.864   8.542  1.1023 -0.7601 -1.4824
  205bbb     C6 5932   8.375   4.478   8.284  0.2307  0.0949  0.4484
  205bbb    H11 5933   8.398   4.373   8.306  1.3029  0.1057 -0.5249
  205bbb    H12 5934   8.472   4.527   8.300  0.1117  0.5335 -0.1522
  205bbb     C7 5935   8.506   4.389   8.778  0.7833  0.0463  0.0024
  205bbb    H13 5936   8.563   4.334   8.702  0.7160 -0.4924  0.3310
  205bbb    H14 5937   8.430   4.320   8.816  0.8532 -0.5528 -0.9075
  205bbb     C8 5938   8.341   4.481   8.136  0.0906  0.2264  0.2631
  205bbb    H15 5939   8.334   4.588   8.109 -1.1197  0.2656  0.6770
  205bbb    H16 5940   8.242   4.436   8.123 -0.0181  0.6477 -0.4169
  205bbb     C9 5941   8.046   4.862   8.631 -0.1169  0.3462 -0.2811
  205bbb    H17 5942   8.035   4.967   8.604 -0.1629  0.0788 -1.3302
  205bbb    H18 5943   8.080   4.870   8.735  0.1235  0.4269 -0.3653
  205bbb     O1 5944   8.583   4.446   8.882 -0.5575  0.0580 -0.3758
  206bbb     N1 5945   8.754   3.767  10.052  0.1206  0.0907  0.3506
  206bbb     C1 5946   8.696   3.874  10.128 -0.2857  0.5700  0.3419
  206bbb     H1 5947   8.698   3.961  10.061  0.6807 -0.0781 -0.4973
  206bbb     H2 5948   8.761   3.899  10.213 -2.5396  0.6493  2.1269
  206bbb     C2 5949   8.896   3.795  10.012  0.0074 -0.7563  0.1158
  206bbb     H3 5950   8.948   3.844  10.095 -1.4051  1.3428 -0.1442
  206bbb     H4 5951   8.897   3.869   9.931  0.6003 -1.8228 -0.8775
  206bbb     C3 5952   8.672   3.722   9.938  0.2338 -0.0889 -0.2246
  206bbb     H5 5953   8.586   3.664   9.975  1.9903 -1.5779  1.7079
  206bbb     H6 5954   8.738   3.653   9.884 -0.7587 -0.4070 -1.0765
  206bbb     C4 5955   8.622   3.829   9.837 -0.6767  0.3398  0.4395
  206bbb     H7 5956   8.703   3.900   9.818 -0.6760 -0.0790 -1.3362
  206bbb     H8 5957   8.536   3.886   9.875  0.3511  0.8125  2.1575
  206bbb     C5 5958   8.553   3.846  10.185 -0.6443 -0.2630  0.3679
  206bbb     H9 5959   8.537   3.750  10.236  1.2589 -1.7380 -1.6450
  206bbb    H10 5960   8.486   3.837  10.099  1.1575  0.9995 -1.2620
  206bbb     C6 5961   8.975   3.668   9.982  0.2550  0.4071  0.1540
  206bbb    H11 5962   8.925   3.595   9.918  1.0267 -0.4727  0.5325
  206bbb    H12 5963   8.967   3.610  10.075 -0.2028 -1.4036 -0.9582
  206bbb     C7 5964   8.584   3.777   9.696  0.3345  0.3060  0.0002
  206bbb    H13 5965   8.483   3.736   9.692 -0.0379  1.1731 -4.7812
  206bbb    H14 5966   8.638   3.688   9.659 -0.1028  0.3771 -0.8238
  206bbb     C8 5967   9.122   3.690   9.963  0.1359 -0.9576  0.5624
  206bbb    H15 5968   9.170   3.725  10.055  1.5820 -1.9717  0.2227
  206bbb    H16 5969   9.130   3.772   9.890 -2.4672 -2.3325 -1.4001
  206bbb     C9 5970   8.493   3.959  10.273  0.1827 -0.4906 -0.3952
  206bbb    H17 5971   8.393   3.927  10.303 -0.2223  2.1240  1.3549
  206bbb    H18 5972   8.480   4.037  10.197  1.8777 -0.6250 -0.8626
  206bbb     O1 5973   8.589   3.877   9.593  0.4640  0.3794 -0.8350
  207bbb     N1 5974   5.361   8.212   6.598 -0.0959  0.0050  0.0530
  207bbb     C1 5975   5.277   8.094   6.564  0.4930  0.4081  0.2819
  207bbb     H1 5976   5.321   8.041   6.479  1.2765 -1.4735  1.7699
  207bbb     H2 5977   5.175   8.116   6.531  1.0967 -0.5965 -2.4986
  207bbb     C2 5978   5.306   8.291   6.707 -1.0817 -1.0993  0.1868
  207bbb     H3 5979   5.373   8.371   6.740 -2.4853  0.2218 -0.0866
  207bbb     H4 5980   5.299   8.232   6.800  1.9728  0.4765  1.5463
  207bbb     C3 5981   5.508   8.187   6.614 -0.1766  0.2863 -0.5811
  207bbb     H5 5982   5.523   8.110   6.691 -0.2305  1.7276  0.9207
  207bbb     H6 5983   5.557   8.282   6.638  0.5847 -0.1079 -0.5498
  207bbb     C4 5984   5.587   8.130   6.496  0.6286 -0.1620  0.1446
  207bbb     H7 5985   5.544   8.030   6.481 -2.4944  1.1161 -0.2042
  207bbb     H8 5986   5.695   8.120   6.511  0.8880  1.1435 -0.7372
  207bbb     C5 5987   5.257   7.995   6.682 -0.1683  0.5356 -0.2864
  207bbb     H9 5988   5.198   8.052   6.755 -0.5133 -0.8293  0.5160
  207bbb    H10 5989   5.343   7.957   6.737 -1.8219 -0.7605  1.5531
  207bbb     C6 5990   5.171   8.351   6.684 -0.3222  0.1956  0.2383
  207bbb    H11 5991   5.108   8.281   6.628 -0.5883  2.0360 -1.9280
  207bbb    H12 5992   5.178   8.441   6.623 -0.9586  0.6479  0.8224
  207bbb     C7 5993   5.569   8.205   6.370  0.4692 -0.6965  0.1744
  207bbb    H13 5994   5.618   8.304   6.374 -0.7912 -0.0060 -0.6023
  207bbb    H14 5995   5.462   8.217   6.348  0.2198 -2.8416  0.0253
  207bbb     C8 5996   5.109   8.397   6.821  0.8449  0.6660  0.2680
  207bbb    H15 5997   5.006   8.419   6.790 -0.0920 -1.3410  1.7360
  207bbb    H16 5998   5.150   8.486   6.870  1.8968  1.0407 -1.2431
  207bbb     C9 5999   5.172   7.877   6.639  0.4229  0.0371  0.4497
  207bbb    H17 6000   5.190   7.807   6.722  0.2664 -0.3581  0.1553
  207bbb    H18 6001   5.209   7.829   6.547  2.2555  0.5811  0.8564
  207bbb     O1 6002   5.632   8.131   6.264  0.0450  0.1312 -0.1846
  208bbb     N1 6003   6.413   8.016   5.604 -0.5981  0.2768  0.6881
  208bbb     C1 6004   6.332   8.138   5.586 -0.2405 -0.3046  0.2914
  208bbb     H1 6005   6.229   8.126   5.623 -0.0538 -2.0146  0.3577
  208bbb     H2 6006   6.315   8.142   5.478 -0.0588 -1.0540  0.2289
  208bbb     C2 6007   6.549   8.012   5.534  0.1249  0.1909 -0.1410
  208bbb     H3 6008   6.581   7.908   5.545 -0.2980  0.1451  0.7453
  208bbb     H4 6009   6.622   8.068   5.594  1.5139 -1.6352 -0.0284
  208bbb     C3 6010   6.430   7.978   5.743  0.0352  0.1675 -0.3910
  208bbb     H5 6011   6.495   8.055   5.785 -0.0500  0.2027 -0.3230
  208bbb     H6 6012   6.493   7.889   5.757  3.6981  2.2999 -1.8881
  208bbb     C4 6013   6.300   7.971   5.825  0.8576  0.0650 -0.2906
  208bbb     H7 6014   6.234   7.896   5.780  0.5495 -0.4004  0.8953
  208bbb     H8 6015   6.248   8.066   5.807 -1.3790 -0.7082  1.5213
  208bbb     C5 6016   6.398   8.266   5.626 -0.0397 -0.5547  0.0554
  208bbb     H9 6017   6.480   8.285   5.556  0.8923  1.8539  1.6563
  208bbb    H10 6018   6.452   8.272   5.722  1.7311 -0.4258 -0.9123
  208bbb     C6 6019   6.556   8.055   5.387  0.2199 -0.1854  0.3755
  208bbb    H11 6020   6.546   8.163   5.374 -0.9474 -0.1189  1.5736
  208bbb    H12 6021   6.471   8.009   5.337  0.2260 -0.4364  0.5914
  208bbb     C7 6022   6.320   7.958   5.981  0.4745  0.0332 -0.0829
  208bbb    H13 6023   6.377   8.042   6.024 -2.9822  2.1441  0.7669
  208bbb    H14 6024   6.370   7.862   5.996 -0.7158 -0.2802  2.3235
  208bbb     C8 6025   6.680   8.011   5.303 -0.2435 -0.5256 -0.4312
  208bbb    H15 6026   6.647   7.991   5.200 -1.0992 -0.8347 -0.1045
  208bbb    H16 6027   6.706   7.910   5.335  2.2164 -0.3960 -1.7675
  208bbb     C9 6028   6.281   8.378   5.635  0.1312 -0.0525 -0.2766
  208bbb    H17 6029   6.296   8.444   5.721 -1.2517  1.3139 -1.0264
  208bbb    H18 6030   6.182   8.336   5.658 -0.9920  1.5923 -1.7681
  208bbb     O1 6031   6.198   7.950   6.050  0.1036  0.7028  0.5384
  209bbb     N1 6032   5.083   7.709   8.016  0.3916 -0.1778  0.1968
  209bbb     C1 6033   4.937   7.707   8.075  0.2163  0.1430  0.0224
  209bbb     H1 6034   4.925   7.633   8.156 -0.3770 -0.1086 -0.2906
  209bbb     H2 6035   4.865   7.665   8.004 -1.0159 -0.6630  1.6545
  209bbb     C2 6036   5.137   7.572   8.005  0.0747 -0.6649 -0.2849
  209bbb     H3 6037   5.107   7.514   8.094  0.4024  1.5167  1.3390
  209bbb     H4 6038   5.246   7.581   8.001  0.1021 -0.6210  0.4340
  209bbb     C3 6039   5.081   7.804   7.898 -0.0163  0.2363  0.4738
  209bbb     H5 6040   5.057   7.901   7.944  1.1690  0.8804 -0.1967
  209bbb     H6 6041   5.010   7.777   7.819 -0.1431  0.4742  0.5051
  209bbb     C4 6042   5.216   7.811   7.829 -0.1489  0.1450  0.1775
  209bbb     H7 6043   5.244   7.705   7.823 -0.9873 -0.0784  0.0775
  209bbb     H8 6044   5.292   7.855   7.895 -0.3832  0.4639  0.2337
  209bbb     C5 6045   4.884   7.838   8.131 -0.8569  1.0449 -0.5864
  209bbb     H9 6046   4.871   7.916   8.055 -2.8203 -0.7663 -2.2528
  209bbb    H10 6047   4.951   7.877   8.208 -1.1914  0.8088 -0.1679
  209bbb     C6 6048   5.076   7.492   7.890  0.0490 -0.1547  0.3132
  209bbb    H11 6049   5.099   7.540   7.794  1.2434  1.0859  1.1960
  209bbb    H12 6050   4.969   7.470   7.904  0.3733  0.0364  3.8039
  209bbb     C7 6051   5.209   7.877   7.687  0.2791 -0.3312 -0.3650
  209bbb    H13 6052   5.168   7.978   7.698  0.2091 -0.3179 -0.7223
  209bbb    H14 6053   5.129   7.821   7.638 -0.5201  1.9709 -1.9006
  209bbb     C8 6054   5.138   7.356   7.869 -0.0868 -0.2932 -0.5858
  209bbb    H15 6055   5.246   7.371   7.854  0.0450 -1.5070 -0.9309
  209bbb    H16 6056   5.093   7.319   7.776 -2.5443  0.3644  0.2538
  209bbb     C9 6057   4.740   7.828   8.189 -0.7358 -0.0279  0.2151
  209bbb    H17 6058   4.685   7.799   8.099 -0.2645 -0.4024  0.0430
  209bbb    H18 6059   4.714   7.931   8.215  0.5245  0.8556 -1.7999
  209bbb     O1 6060   5.339   7.894   7.623  0.2358  0.0001 -0.1512
  210bbb     N1 6061   5.663   8.799   7.055 -0.9762 -0.8239  0.2808
  210bbb     C1 6062   5.585   8.922   7.027  0.3145 -0.5680 -0.0969
  210bbb     H1 6063   5.515   8.943   7.108 -0.2933 -1.4784 -0.3748
  210bbb     H2 6064   5.518   8.911   6.941  2.8471  3.1669 -2.8852
  210bbb     C2 6065   5.785   8.835   7.135  0.0455  0.1851  0.2475
  210bbb     H3 6066   5.852   8.910   7.093 -0.3313  0.3245 -0.1127
  210bbb     H4 6067   5.840   8.740   7.141 -1.5842 -0.8211  0.0240
  210bbb     C3 6068   5.601   8.685   7.119 -0.0525  0.5617 -0.1818
  210bbb     H5 6069   5.570   8.686   7.224 -1.0774 -0.8904 -0.4410
  210bbb     H6 6070   5.668   8.598   7.118  0.5592  1.0097  0.4870
  210bbb     C4 6071   5.466   8.651   7.052  0.5610 -0.0789  0.6203
  210bbb     H7 6072   5.474   8.650   6.943  0.4817  2.5478  0.5156
  210bbb     H8 6073   5.391   8.727   7.077  0.8211  0.2219  0.4978
  210bbb     C5 6074   5.661   9.045   6.979 -0.1577 -0.5055  0.4789
  210bbb     H9 6075   5.739   9.007   6.911 -1.3322  2.6088 -2.9492
  210bbb    H10 6076   5.706   9.089   7.069  1.6343  0.8485 -0.9895
  210bbb     C6 6077   5.753   8.875   7.281 -0.5257 -0.3803 -0.4097
  210bbb    H11 6078   5.729   8.788   7.343 -2.3094 -0.0234 -0.5242
  210bbb    H12 6079   5.665   8.941   7.280 -0.3030  0.0310 -3.6401
  210bbb     C7 6080   5.411   8.512   7.105 -0.6218 -0.0747 -0.1804
  210bbb    H13 6081   5.302   8.497   7.102 -0.8226  1.2285 -0.4349
  210bbb    H14 6082   5.436   8.508   7.211  1.3945  1.9694 -0.4865
  210bbb     C8 6083   5.876   8.949   7.344  0.5799  0.3419 -0.3823
  210bbb    H15 6084   5.953   8.871   7.345  1.2474  0.9484 -1.8581
  210bbb    H16 6085   5.855   8.969   7.450  1.1868 -0.5353 -0.0890
  210bbb     C9 6086   5.587   9.145   6.888 -0.5226  0.3906  0.7824
  210bbb    H17 6087   5.482   9.144   6.918 -0.6889  1.0161  0.2473
  210bbb    H18 6088   5.593   9.114   6.783  1.6650  0.4085  0.8425
  210bbb     O1 6089   5.472   8.398   7.042  0.4859  0.1563  0.3408
  211bbb     N1 6090   6.900   4.830   6.364 -0.6383 -0.1789 -0.7668
  211bbb     C1 6091   6.989   4.937   6.315  0.3140  0.0819  0.4072
  211bbb     H1 6092   7.084   4.891   6.286 -0.3116 -0.0158 -1.6132
  211bbb     H2 6093   7.001   5.021   6.385 -0.7565  0.1397  0.5395
  211bbb     C2 6094   6.973   4.748   6.466 -0.0216 -0.2461 -0.3570
  211bbb     H3 6095   6.989   4.804   6.559 -1.9196 -0.0650 -0.1149
  211bbb     H4 6096   7.070   4.722   6.421 -0.1733 -2.6192  0.5651
  211bbb     C3 6097   6.764   4.867   6.402 -0.2943  0.0765  0.2252
  211bbb     H5 6098   6.723   4.790   6.468  2.4182  0.1968  2.2119
  211bbb     H6 6099   6.704   4.875   6.310  0.3702 -1.6239 -0.3986
  211bbb     C4 6100   6.755   5.001   6.482  0.2291 -0.1241  0.2544
  211bbb     H7 6101   6.775   5.082   6.410  0.1222  0.0645  0.4353
  211bbb     H8 6102   6.833   4.996   6.559 -0.1021 -0.7967  0.5493
  211bbb     C5 6103   6.928   4.992   6.187 -0.8237  0.1911  0.1853
  211bbb     H9 6104   6.824   5.026   6.195 -1.2528 -0.9454 -0.3069
  211bbb    H10 6105   6.917   4.910   6.115 -3.6296  2.4606 -2.2520
  211bbb     C6 6106   6.918   4.603   6.495 -0.0067 -0.0071 -0.2751
  211bbb    H11 6107   6.833   4.604   6.564  0.0049 -1.4398 -0.2206
  211bbb    H12 6108   6.989   4.531   6.535  0.7848  0.3679 -0.9682
  211bbb     C7 6109   6.618   5.012   6.550 -0.8262  0.7999 -0.3147
  211bbb    H13 6110   6.625   5.087   6.630  1.0131  3.4761 -2.7770
  211bbb    H14 6111   6.591   4.918   6.599 -0.0731  0.7137 -0.0594
  211bbb     C8 6112   6.862   4.536   6.364  0.1673 -0.2561 -0.0208
  211bbb    H15 6113   6.950   4.518   6.301  0.4626  1.4192 -0.1290
  211bbb    H16 6114   6.801   4.607   6.307  0.5416 -0.1671 -0.3147
  211bbb     C9 6115   7.017   5.100   6.126  0.2889 -0.0546 -0.0495
  211bbb    H17 6116   7.052   5.168   6.205 -3.9878  0.5525  1.6223
  211bbb    H18 6117   6.956   5.155   6.053 -0.0633 -0.7985 -0.3262
  211bbb     O1 6118   6.524   5.045   6.453 -0.4100 -0.5142  0.3082
  212bbb     N1 6119   5.285   5.122   7.001  0.0317  0.4839  0.3895
  212bbb     C1 6120   5.311   5.118   7.145 -0.9480  0.6383 -0.1775
  212bbb     H1 6121   5.244   5.191   7.193  1.4020  1.1345  2.6026
  212bbb     H2 6122   5.414   5.146   7.171 -1.1487  0.5954  0.7083
  212bbb     C2 6123   5.142   5.133   6.972 -0.0863  0.2779  0.9828
  212bbb     H3 6124   5.102   5.231   7.002 -0.3090  0.2046  0.9281
  212bbb     H4 6125   5.090   5.070   7.046  2.6202 -3.4231  0.0281
  212bbb     C3 6126   5.362   5.223   6.917 -0.3367  0.7507  1.2410
  212bbb     H5 6127   5.346   5.324   6.957  0.3543  1.0446  0.7916
  212bbb     H6 6128   5.331   5.202   6.814  2.3044  2.1504  0.0802
  212bbb     C4 6129   5.512   5.195   6.911  0.2278  0.1187  0.0866
  212bbb     H7 6130   5.528   5.089   6.890 -2.3666 -0.2998 -0.1778
  212bbb     H8 6131   5.558   5.219   7.007 -0.7662  0.0902  0.5780
  212bbb     C5 6132   5.290   4.971   7.207 -0.0804 -0.0357  0.0355
  212bbb     H9 6133   5.185   4.945   7.193 -0.6848  2.2027  0.0733
  212bbb    H10 6134   5.301   4.991   7.314  0.5982 -4.1428  0.9078
  212bbb     C6 6135   5.094   5.087   6.827  0.4078 -0.0532 -0.1545
  212bbb    H11 6136   5.158   5.000   6.805  0.3995  0.4859 -2.6545
  212bbb    H12 6137   5.118   5.166   6.755  1.0177  0.8676  1.0239
  212bbb     C7 6138   5.585   5.286   6.809 -0.8928  0.2173 -0.3271
  212bbb    H13 6139   5.567   5.393   6.824 -0.4778  0.1513  0.6772
  212bbb    H14 6140   5.541   5.251   6.714 -1.8504 -0.7669  0.4591
  212bbb     C8 6141   4.945   5.055   6.811  0.0559 -0.2061 -0.0065
  212bbb    H15 6142   4.915   5.056   6.706  2.5438 -0.9413 -0.7915
  212bbb    H16 6143   4.893   5.134   6.865  0.7167  1.1667 -1.3116
  212bbb     C9 6144   5.392   4.863   7.176 -0.2552 -0.2212  0.2209
  212bbb    H17 6145   5.398   4.870   7.067  0.6420  0.6612  0.3053
  212bbb    H18 6146   5.359   4.762   7.203 -1.5138 -0.3762 -1.7456
  212bbb     O1 6147   5.724   5.253   6.813  0.3588 -0.0099  0.2124
  213bbb     N1 6148   6.256   5.783   7.874 -0.9254  0.1254 -0.1301
  213bbb     C1 6149   6.178   5.706   7.972 -0.3548 -0.4641  0.2365
  213bbb     H1 6150   6.093   5.770   7.998 -0.8436 -0.7389 -0.6145
  213bbb     H2 6151   6.233   5.709   8.067  0.8426  0.2197 -0.4519
  213bbb     C2 6152   6.339   5.888   7.936  0.4171 -0.6329 -0.0677
  213bbb     H3 6153   6.415   5.933   7.870  1.1008 -0.1752  1.0159
  213bbb     H4 6154   6.392   5.837   8.017 -0.2923 -0.5560  0.4558
  213bbb     C3 6155   6.182   5.835   7.759 -0.1833  0.2719 -0.4394
  213bbb     H5 6156   6.121   5.914   7.805 -1.9312 -2.4192  2.2381
  213bbb     H6 6157   6.119   5.754   7.721 -0.6470  0.2040  0.4473
  213bbb     C4 6158   6.276   5.891   7.644  0.7863 -0.1661  0.7278
  213bbb     H7 6159   6.354   5.814   7.631  0.7598 -0.0396 -0.1935
  213bbb     H8 6160   6.323   5.983   7.683  3.0466 -2.2910  3.5184
  213bbb     C5 6161   6.134   5.564   7.928 -0.1570  0.0245  0.3118
  213bbb     H9 6162   6.233   5.518   7.916  0.4970  1.5519 -0.3452
  213bbb    H10 6163   6.081   5.567   7.832  0.2562  2.3581  0.1080
  213bbb     C6 6164   6.264   6.005   8.005 -0.2214  0.0279  0.1812
  213bbb    H11 6165   6.174   5.969   8.058 -0.4021  0.9751  0.5384
  213bbb    H12 6166   6.218   6.064   7.925 -1.5723 -1.0306  0.1254
  213bbb     C7 6167   6.194   5.920   7.512 -0.1070 -0.0863 -0.0425
  213bbb    H13 6168   6.260   5.929   7.424 -0.3634 -0.5680 -0.2851
  213bbb    H14 6169   6.130   6.008   7.525  0.0904 -0.1761  1.7885
  213bbb     C8 6170   6.348   6.107   8.095 -0.3273  0.7727 -0.3052
  213bbb    H15 6171   6.278   6.175   8.145 -1.9633 -1.4482  0.6134
  213bbb    H16 6172   6.427   6.153   8.036  0.3366  0.4035  0.2824
  213bbb     C9 6173   6.056   5.482   8.034  0.6205 -0.1047 -0.1048
  213bbb    H17 6174   6.102   5.492   8.133  0.1412 -0.4615  0.1577
  213bbb    H18 6175   6.052   5.375   8.009  1.1668  0.0325 -0.8303
  213bbb     O1 6176   6.118   5.803   7.492  0.2399  0.5516 -0.2262
  214bbb     N1 6177   4.896   5.759   7.372  0.0488  0.3376  0.5060
  214bbb     C1 6178   4.785   5.849   7.329  0.5103 -0.6246 -0.2546
  214bbb     H1 6179   4.755   5.911   7.414  0.5838  1.4219 -1.6428
  214bbb     H2 6180   4.694   5.789   7.318 -1.0986  1.2653  1.8211
  214bbb     C2 6181   4.855   5.644   7.461 -0.0546 -0.8926 -0.9867
  214bbb     H3 6182   4.940   5.575   7.468 -0.0726 -0.7178  1.6942
  214bbb     H4 6183   4.781   5.581   7.411 -0.1894 -1.6429  0.1346
  214bbb     C3 6184   5.033   5.822   7.394  1.3653  0.4482 -0.0207
  214bbb     H5 6185   5.034   5.883   7.485  0.6740 -0.5281  0.6679
  214bbb     H6 6186   5.060   5.894   7.316  1.4419 -0.1118 -0.5162
  214bbb     C4 6187   5.142   5.717   7.410 -0.3118  0.4587  0.6460
  214bbb     H7 6188   5.138   5.646   7.494 -0.0116  0.5898  0.7721
  214bbb     H8 6189   5.232   5.777   7.431 -1.0984  2.6936 -1.7764
  214bbb     C5 6190   4.817   5.938   7.200  0.3959  0.1423  0.3064
  214bbb     H9 6191   4.875   5.875   7.131 -0.9385  1.4808 -2.1640
  214bbb    H10 6192   4.872   6.018   7.251 -0.9956  1.0703  0.4052
  214bbb     C6 6193   4.816   5.685   7.607 -0.2046 -0.2569  0.5157
  214bbb    H11 6194   4.736   5.761   7.604 -0.3529 -0.4440 -1.3737
  214bbb    H12 6195   4.894   5.743   7.659 -0.4840 -0.2011  0.8805
  214bbb     C7 6196   5.173   5.636   7.274  0.0710 -0.2466 -0.5852
  214bbb    H13 6197   5.168   5.711   7.195 -1.6110 -0.6351 -0.8836
  214bbb    H14 6198   5.099   5.558   7.253 -0.1961 -0.1504 -0.0071
  214bbb     C8 6199   4.773   5.560   7.693 -0.0835 -0.4016  0.8760
  214bbb    H15 6200   4.719   5.592   7.783 -1.7940 -0.5145 -0.0616
  214bbb    H16 6201   4.865   5.508   7.719  0.2279 -0.1506  0.2902
  214bbb     C9 6202   4.694   5.993   7.130  0.0473  0.3800  0.5747
  214bbb    H17 6203   4.719   6.015   7.026  1.4227  0.2230  0.8540
  214bbb    H18 6204   4.681   6.094   7.170 -0.4098  0.5299  0.0535
  214bbb     O1 6205   5.308   5.592   7.279 -0.7818  0.2303  0.0783
  215bbb     N1 6206   9.661   7.197   6.440 -0.3401  0.1664  0.0776
  215bbb     C1 6207   9.745   7.319   6.433 -0.2164 -0.4047 -0.5205
  215bbb     H1 6208   9.695   7.407   6.474 -0.1723 -1.3558  1.6903
  215bbb     H2 6209   9.739   7.344   6.326 -1.0257  2.5482  0.1231
  215bbb     C2 6210   9.702   7.088   6.343  0.0101 -0.5043  0.2477
  215bbb     H3 6211   9.782   7.025   6.385  1.3856  1.1526  0.2691
  215bbb     H4 6212   9.735   7.137   6.251 -0.9359 -1.1288 -0.4361
  215bbb     C3 6213   9.625   7.142   6.571 -0.5497  0.0215  0.0525
  215bbb     H5 6214   9.716   7.142   6.632  0.8803  2.6956 -1.8755
  215bbb     H6 6215   9.610   7.033   6.564  0.1549 -0.1171  0.5738
  215bbb     C4 6216   9.510   7.213   6.639 -0.0648 -0.5687  0.7171
  215bbb     H7 6217   9.422   7.184   6.580  0.2127  0.1433 -0.0760
  215bbb     H8 6218   9.522   7.322   6.646  0.6521 -0.7104  1.9817
  215bbb     C5 6219   9.894   7.302   6.479  0.8226 -0.2436 -0.6880
  215bbb     H9 6220   9.939   7.207   6.449  1.2576 -1.3988  3.1319
  215bbb    H10 6221   9.893   7.293   6.588 -2.0258 -0.5194 -0.6674
  215bbb     C6 6222   9.587   6.993   6.306 -0.1821  0.3910  0.3885
  215bbb    H11 6223   9.571   6.923   6.388  1.8908  1.0076  1.4050
  215bbb    H12 6224   9.634   6.933   6.227 -2.1108  0.2845 -0.7289
  215bbb     C7 6225   9.502   7.173   6.783  0.8334  0.5188  0.6347
  215bbb    H13 6226   9.589   7.199   6.846 -0.8345  2.7222  2.1743
  215bbb    H14 6227   9.485   7.065   6.792  0.6384  0.6603  2.1721
  215bbb     C8 6228   9.458   7.067   6.264 -0.0079 -0.0765  0.2740
  215bbb    H15 6229   9.417   7.124   6.349 -0.8147  0.8172 -0.6969
  215bbb    H16 6230   9.379   6.995   6.237  0.2780 -0.1643 -0.3426
  215bbb     C9 6231   9.969   7.429   6.439 -0.4683  0.1920 -0.1218
  215bbb    H17 6232   9.921   7.522   6.474  0.1323  0.5370 -0.1930
  215bbb    H18 6233   9.962   7.428   6.330 -0.0818  1.4196 -0.1822
  215bbb     O1 6234   9.394   7.250   6.842 -0.3141 -0.2442  0.2505
  216bbb     N1 6235   9.472   7.776   7.439  0.3046 -0.0376 -0.3730
  216bbb     C1 6236   9.448   7.924   7.445  0.2866  0.0007 -0.3407
  216bbb     H1 6237   9.532   7.973   7.394  0.4582 -1.6340 -1.6985
  216bbb     H2 6238   9.444   7.957   7.550  1.5002  0.0098 -0.2770
  216bbb     C2 6239   9.608   7.742   7.487  0.2921 -0.6439  0.1377
  216bbb     H3 6240   9.606   7.634   7.510 -1.3431 -0.8465 -0.8478
  216bbb     H4 6241   9.643   7.811   7.565 -0.6037  0.4746 -0.4255
  216bbb     C3 6242   9.370   7.690   7.504  0.5242  0.5350  0.3802
  216bbb     H5 6243   9.274   7.741   7.518 -0.3027 -0.9965  0.5351
  216bbb     H6 6244   9.409   7.672   7.605  1.3350  2.7036  0.5068
  216bbb     C4 6245   9.347   7.557   7.422 -0.1740  0.0354 -0.2293
  216bbb     H7 6246   9.266   7.501   7.471 -0.8658  0.9144 -0.3506
  216bbb     H8 6247   9.435   7.494   7.441 -1.3559 -0.9669  2.3422
  216bbb     C5 6248   9.315   7.978   7.386 -0.1137  0.3116  0.7620
  216bbb     H9 6249   9.236   7.906   7.412 -2.2193  1.6084 -1.7228
  216bbb    H10 6250   9.320   7.973   7.277 -0.3969  0.0383  0.7589
  216bbb     C6 6251   9.709   7.734   7.368 -0.2229  0.2204 -0.0793
  216bbb    H11 6252   9.720   7.837   7.330 -0.5732  0.0302 -0.7108
  216bbb    H12 6253   9.674   7.676   7.283 -0.1447 -0.0144  0.0486
  216bbb     C7 6254   9.317   7.573   7.273  0.3199  0.0170 -0.4945
  216bbb    H13 6255   9.267   7.483   7.236 -0.8578  0.2856  0.3887
  216bbb    H14 6256   9.413   7.593   7.224  0.1843  1.3613 -0.2362
  216bbb     C8 6257   9.856   7.700   7.411 -0.3833  0.2509  0.4073
  216bbb    H15 6258   9.890   7.612   7.355  1.1499 -1.0593  3.1777
  216bbb    H16 6259   9.854   7.657   7.512  3.3667 -2.9274 -0.5946
  216bbb     C9 6260   9.273   8.118   7.440  0.6282 -0.2588 -0.2612
  216bbb    H17 6261   9.242   8.109   7.545  3.6429  1.1565  0.8679
  216bbb    H18 6262   9.183   8.152   7.386  0.4384 -0.3183  0.0144
  216bbb     O1 6263   9.232   7.687   7.244 -0.1317 -0.6992  0.4841
  217bbb     N1 6264   7.718   7.649   5.680  0.1392  0.2209  0.0687
  217bbb     C1 6265   7.600   7.676   5.591 -0.7007  0.0083  0.1784
  217bbb     H1 6266   7.512   7.680   5.656  0.1160 -2.7894  1.5955
  217bbb     H2 6267   7.583   7.597   5.517  1.1371 -1.5541  1.3149
  217bbb     C2 6268   7.700   7.520   5.752 -0.1127 -0.8503 -0.8507
  217bbb     H3 6269   7.792   7.496   5.807 -1.7541  1.2472  3.3190
  217bbb     H4 6270   7.667   7.442   5.683  1.2492  0.0736 -2.6113
  217bbb     C3 6271   7.781   7.762   5.765  0.4819  0.1268 -0.7448
  217bbb     H5 6272   7.832   7.709   5.846 -2.0250 -1.4139 -0.0804
  217bbb     H6 6273   7.698   7.823   5.802 -1.4588 -1.1460 -2.7552
  217bbb     C4 6274   7.877   7.847   5.682  0.2398  0.6922  1.1403
  217bbb     H7 6275   7.832   7.941   5.648 -1.8836 -0.6801 -0.1174
  217bbb     H8 6276   7.897   7.781   5.597 -2.7617  1.1313 -0.0460
  217bbb     C5 6277   7.611   7.804   5.513  0.3830  0.0117 -0.3451
  217bbb     H9 6278   7.706   7.806   5.458  0.7192 -1.6662  0.1185
  217bbb    H10 6279   7.600   7.886   5.585 -2.4130 -1.2062  0.7403
  217bbb     C6 6280   7.592   7.523   5.865  0.2682 -0.2466 -0.2166
  217bbb    H11 6281   7.490   7.535   5.827  0.2538 -0.0707 -0.1221
  217bbb    H12 6282   7.589   7.614   5.926 -1.0970 -0.3778 -0.0465
  217bbb     C7 6283   8.006   7.888   5.756 -0.0572 -0.3554 -0.1510
  217bbb    H13 6284   8.073   7.944   5.690 -0.0420  1.0766  1.0051
  217bbb    H14 6285   8.064   7.803   5.793  0.6368 -0.1044 -0.6526
  217bbb     C8 6286   7.598   7.400   5.957 -0.1438  0.2325  0.1994
  217bbb    H15 6287   7.504   7.394   6.014 -0.2307 -1.2442 -0.0489
  217bbb    H16 6288   7.675   7.421   6.032  0.7038  1.1542 -0.8912
  217bbb     C9 6289   7.493   7.820   5.415  0.5471  0.1484  0.0980
  217bbb    H17 6290   7.404   7.847   5.475 -1.3424  0.7214 -2.7811
  217bbb    H18 6291   7.468   7.720   5.378  2.1012  0.6571 -2.5104
  217bbb     O1 6292   7.982   7.978   5.863 -0.4526 -0.7455  0.0110
  218bbb     N1 6293   7.260   8.600   6.564 -0.2466  0.2175  0.0958
  218bbb     C1 6294   7.279   8.706   6.672  0.1630  0.4420  1.0437
  218bbb     H1 6295   7.189   8.703   6.735  0.2168  0.4438  1.1200
  218bbb     H2 6296   7.285   8.802   6.620 -3.4921 -0.3111 -1.1473
  218bbb     C2 6297   7.153   8.634   6.470 -0.8343  0.1588  0.0309
  218bbb     H3 6298   7.147   8.554   6.396 -1.7246 -2.7045  2.9744
  218bbb     H4 6299   7.186   8.716   6.406  3.6256 -0.6913  0.9265
  218bbb     C3 6300   7.385   8.568   6.492 -0.2562  0.0218  0.1785
  218bbb     H5 6301   7.368   8.496   6.411  1.6981  0.4639 -0.6848
  218bbb     H6 6302   7.447   8.513   6.564 -1.3680 -1.2943  0.1789
  218bbb     C4 6303   7.475   8.677   6.426  0.0110 -0.8731 -0.4230
  218bbb     H7 6304   7.473   8.773   6.479 -2.6948  0.4992 -2.6807
  218bbb     H8 6305   7.433   8.703   6.328  1.7777  1.0550 -0.7444
  218bbb     C5 6306   7.382   8.683   6.779 -0.5538  0.3277 -0.3877
  218bbb     H9 6307   7.484   8.680   6.738 -0.6832  0.5377 -0.7240
  218bbb    H10 6308   7.361   8.583   6.817 -0.3263  0.6899  0.7199
  218bbb     C6 6309   7.008   8.651   6.524  0.3252  0.0763  0.2843
  218bbb    H11 6310   6.992   8.737   6.590 -0.6513 -2.0892  3.0764
  218bbb    H12 6311   6.982   8.563   6.583  1.7117 -0.3973  0.2242
  218bbb     C7 6312   7.618   8.629   6.412 -0.0946 -0.4410 -0.7348
  218bbb    H13 6313   7.652   8.567   6.496  0.7321  0.3459 -0.4814
  218bbb    H14 6314   7.692   8.710   6.412 -0.8661  0.2808 -1.3547
  218bbb     C8 6315   6.925   8.661   6.400 -0.5717  0.1989  0.4903
  218bbb    H15 6316   6.934   8.562   6.354 -0.7163 -0.2157  1.3320
  218bbb    H16 6317   6.966   8.739   6.335  0.4246  0.1848  1.0892
  218bbb     C9 6318   7.372   8.794   6.887  0.2533 -0.4765  0.4215
  218bbb    H17 6319   7.456   8.773   6.955  1.1583 -1.3818 -0.9094
  218bbb    H18 6320   7.279   8.791   6.944 -2.0546 -0.5601 -3.0501
  218bbb     O1 6321   7.633   8.551   6.287 -0.6529 -0.4248  0.2077
  219bbb     N1 6322   7.385   4.585   6.733 -0.3661  0.2374 -0.0984
  219bbb     C1 6323   7.257   4.554   6.805 -0.1316 -0.2433 -0.1834
  219bbb     H1 6324   7.206   4.471   6.754 -0.9402  0.2859 -0.2620
  219bbb     H2 6325   7.184   4.635   6.792  2.0165  1.7742 -0.2285
  219bbb     C2 6326   7.403   4.522   6.604 -0.0384 -0.4975  0.2010
  219bbb     H3 6327   7.379   4.415   6.608  0.9540 -0.7682 -0.6268
  219bbb     H4 6328   7.506   4.513   6.568 -0.1883 -2.1186  0.0972
  219bbb     C3 6329   7.410   4.725   6.744 -0.1020 -0.4078  0.5541
  219bbb     H5 6330   7.380   4.764   6.842 -0.0595  1.1186 -0.0242
  219bbb     H6 6331   7.333   4.776   6.685  1.4036  1.1483 -0.1346
  219bbb     C4 6332   7.557   4.761   6.711 -0.0715 -0.8997 -0.1740
  219bbb     H7 6333   7.578   4.731   6.608  0.5937 -0.3749 -0.2000
  219bbb     H8 6334   7.622   4.719   6.789 -1.1044 -1.2069  0.5551
  219bbb     C5 6335   7.253   4.522   6.958 -0.3552 -0.6317  0.0657
  219bbb     H9 6336   7.279   4.610   7.018 -3.8724  0.5709  0.0619
  219bbb    H10 6337   7.321   4.437   6.975  1.4523  0.7092 -0.1073
  219bbb     C6 6338   7.314   4.590   6.494  0.2331 -0.2696 -0.8527
  219bbb    H11 6339   7.359   4.690   6.481  1.4143 -0.6198  0.3847
  219bbb    H12 6340   7.214   4.592   6.537  0.4655 -0.7288 -0.2838
  219bbb     C7 6341   7.579   4.914   6.699 -0.4667 -0.6461 -0.4406
  219bbb    H13 6342   7.525   4.960   6.783 -0.4312 -0.3249 -0.5944
  219bbb    H14 6343   7.530   4.958   6.611  1.3443  3.5713  0.4433
  219bbb     C8 6344   7.311   4.516   6.361 -0.0941  0.4093  0.3024
  219bbb    H15 6345   7.266   4.416   6.372 -0.7006  0.4502 -1.4957
  219bbb    H16 6346   7.415   4.504   6.329 -0.1622 -3.0687  0.9368
  219bbb     C9 6347   7.108   4.487   7.000 -0.0371 -0.1517 -0.4805
  219bbb    H17 6348   7.061   4.417   6.930 -0.9023 -0.2169  0.1495
  219bbb    H18 6349   7.046   4.577   6.987  1.2192  0.4816 -2.5455
  219bbb     O1 6350   7.723   4.939   6.704  0.0833  0.3530 -0.0474
  220bbb     N1 6351   8.308   4.687   6.123 -0.0873 -0.2981 -0.8035
  220bbb     C1 6352   8.346   4.782   6.013 -0.2979  0.3473  0.4750
  220bbb     H1 6353   8.447   4.822   6.029  0.5101 -1.3103 -0.2679
  220bbb     H2 6354   8.276   4.867   6.009 -1.4822 -0.5900  0.4391
  220bbb     C2 6355   8.203   4.585   6.105 -0.1702 -0.0376 -0.3131
  220bbb     H3 6356   8.212   4.529   6.011 -1.1685 -1.3144  0.3029
  220bbb     H4 6357   8.105   4.633   6.117 -0.0668  0.4151 -1.2288
  220bbb     C3 6358   8.298   4.758   6.254 -0.0832 -0.4652 -0.0485
  220bbb     H5 6359   8.289   4.696   6.344  2.4473  1.4139  1.6211
  220bbb     H6 6360   8.209   4.822   6.259  0.4043  0.2010  0.1979
  220bbb     C4 6361   8.423   4.850   6.283  0.5855  0.1347  0.0514
  220bbb     H7 6362   8.423   4.937   6.216  0.6103 -1.4701 -2.1516
  220bbb     H8 6363   8.507   4.784   6.258  0.0027  0.0699 -1.9558
  220bbb     C5 6364   8.341   4.712   5.873  0.1421  0.0566  0.4858
  220bbb     H9 6365   8.238   4.705   5.836 -0.0405 -1.1845  1.1535
  220bbb    H10 6366   8.380   4.610   5.879  1.9136  0.5567 -1.4203
  220bbb     C6 6367   8.217   4.464   6.205  0.4843 -0.3163  0.0346
  220bbb    H11 6368   8.197   4.510   6.303  0.3105 -1.4429  0.5479
  220bbb    H12 6369   8.319   4.424   6.213  1.2615  1.5773  0.1836
  220bbb     C7 6370   8.435   4.893   6.431  0.4591  0.8719 -0.1999
  220bbb    H13 6371   8.538   4.923   6.453  0.7681  0.4526 -1.0219
  220bbb    H14 6372   8.421   4.801   6.488  0.4471  0.0038 -1.5554
  220bbb     C8 6373   8.105   4.358   6.178 -1.1305 -0.0929 -0.0032
  220bbb    H15 6374   8.120   4.323   6.075 -0.8509 -1.6240  0.5315
  220bbb    H16 6375   8.010   4.411   6.192  0.2887  2.8061 -0.5757
  220bbb     C9 6376   8.434   4.781   5.775 -0.8186 -0.0052 -0.1326
  220bbb    H17 6377   8.528   4.809   5.824 -1.2126  1.2562 -0.0613
  220bbb    H18 6378   8.465   4.708   5.699  1.5005 -0.9024  1.5607
  220bbb     O1 6379   8.347   5.002   6.459  0.3683  0.0563  0.4690
  221bbb     N1 6380   7.879   6.009   5.614  0.7123  0.3098  0.2976
  221bbb     C1 6381   7.789   5.922   5.529  0.0056 -0.3624  0.8101
  221bbb     H1 6382   7.762   5.967   5.432 -2.7807 -3.8453 -0.2850
  221bbb     H2 6383   7.691   5.904   5.575 -0.9485  0.1244 -0.9121
  221bbb     C2 6384   7.918   6.139   5.554 -0.5914 -0.4736 -0.5383
  221bbb     H3 6385   7.941   6.125   5.448  0.8606  2.6472 -0.7150
  221bbb     H4 6386   8.010   6.181   5.596 -0.5775  1.9087 -2.7832
  221bbb     C3 6387   7.843   6.008   5.759  0.2786  0.1045  0.3058
  221bbb     H5 6388   7.735   6.013   5.774 -0.2830 -1.9063 -2.3608
  221bbb     H6 6389   7.899   6.086   5.813  1.2274 -0.7232  0.5432
  221bbb     C4 6390   7.876   5.878   5.829  0.1889 -0.2252 -0.7321
  221bbb     H7 6391   7.984   5.863   5.816  0.7156  0.3874  2.2942
  221bbb     H8 6392   7.809   5.803   5.785 -1.9647  1.8220 -1.1363
  221bbb     C5 6393   7.847   5.791   5.473  0.4350  0.8609  0.2371
  221bbb     H9 6394   7.770   5.740   5.413  2.2590 -2.1865  0.2995
  221bbb    H10 6395   7.857   5.719   5.555 -0.8889 -0.5165 -0.7622
  221bbb     C6 6396   7.822   6.259   5.564 -0.2350  0.0678  0.9901
  221bbb    H11 6397   7.814   6.287   5.669 -0.9861 -0.4209  1.0663
  221bbb    H12 6398   7.721   6.236   5.528 -0.8473  2.3781  1.0570
  221bbb     C7 6399   7.847   5.890   5.984 -0.1120 -0.0232 -0.5252
  221bbb    H13 6400   7.900   5.976   6.027  1.3355 -1.2716  0.2699
  221bbb    H14 6401   7.889   5.804   6.037  0.8135  1.2627  0.8921
  221bbb     C8 6402   7.881   6.378   5.474  0.6633  0.6424  0.0046
  221bbb    H15 6403   7.916   6.351   5.373 -1.6284  0.2641 -0.7450
  221bbb    H16 6404   7.967   6.427   5.522 -0.2085  1.4293  0.7931
  221bbb     C9 6405   7.970   5.812   5.379 -0.3969  0.1736 -0.4715
  221bbb    H17 6406   8.062   5.801   5.439 -0.5922  2.7053  0.4439
  221bbb    H18 6407   7.977   5.915   5.341 -0.4367 -0.4585 -2.2591
  221bbb     O1 6408   7.708   5.887   6.011  0.0097  0.1223  0.2391
  222bbb     N1 6409   8.193   5.853   6.312  0.4603  0.3218 -1.0112
  222bbb     C1 6410   8.302   5.829   6.409  0.1364  0.2801 -0.7812
  222bbb     H1 6411   8.261   5.837   6.510  1.2150  1.2453 -0.3987
  222bbb     H2 6412   8.376   5.910   6.402 -1.4160  1.7709 -0.7081
  222bbb     C2 6413   8.127   5.987   6.306 -0.1508  0.1427 -0.0833
  222bbb     H3 6414   8.116   6.017   6.411 -2.6671  0.0057 -0.2319
  222bbb     H4 6415   8.024   5.986   6.268 -1.0177  3.7527  1.6481
  222bbb     C3 6416   8.105   5.735   6.298  0.5991 -0.2392 -0.0456
  222bbb     H5 6417   8.162   5.642   6.286 -0.0167 -0.4805 -1.2191
  222bbb     H6 6418   8.036   5.756   6.216 -0.6956 -1.2175  0.7542
  222bbb     C4 6419   8.012   5.703   6.415  0.6961 -0.1690 -0.3631
  222bbb     H7 6420   8.078   5.668   6.495  1.4078  2.6670  0.3887
  222bbb     H8 6421   7.943   5.619   6.398  0.4434  0.0871 -0.6066
  222bbb     C5 6422   8.373   5.684   6.399 -0.0172 -0.8133 -0.5746
  222bbb     H9 6423   8.398   5.659   6.296  0.2119 -1.3241 -0.3992
  222bbb    H10 6424   8.311   5.600   6.432 -0.6486 -0.3873 -0.6624
  222bbb     C6 6425   8.202   6.101   6.232  0.4888 -0.4461  0.7269
  222bbb    H11 6426   8.296   6.118   6.286  0.4271 -0.2440  0.7701
  222bbb    H12 6427   8.145   6.193   6.245 -1.0319 -1.3650  0.7372
  222bbb     C7 6428   7.922   5.818   6.454  0.6492 -0.1646 -0.2094
  222bbb    H13 6429   7.889   5.870   6.363  1.3247 -0.9795 -0.9446
  222bbb    H14 6430   7.970   5.893   6.517 -1.9053  1.6775 -0.3052
  222bbb     C8 6431   8.226   6.073   6.082 -1.0851  0.3459  0.2402
  222bbb    H15 6432   8.137   6.025   6.040 -0.9660  0.6333 -0.3433
  222bbb    H16 6433   8.323   6.024   6.075 -1.0126  0.5351 -0.0437
  222bbb     C9 6434   8.504   5.677   6.479  0.3666  0.2880 -0.4330
  222bbb    H17 6435   8.477   5.720   6.576 -2.4721 -1.1098 -0.4952
  222bbb    H18 6436   8.574   5.738   6.421  0.5778  1.0800  0.6389
  222bbb     O1 6437   7.799   5.772   6.519 -0.3651  0.5735  0.1718
  223bbb     N1 6438   5.032   9.521  10.835 -0.3234  0.4140 -0.6738
  223bbb     C1 6439   4.981   9.436  10.949  0.0823  0.4698  0.1304
  223bbb     H1 6440   5.074   9.384  10.978 -0.1371 -0.5061 -0.8494
  223bbb     H2 6441   4.914   9.356  10.916  2.8910 -1.4927 -1.2034
  223bbb     C2 6442   5.080   9.651  10.884 -0.4901 -0.8038  0.7673
  223bbb     H3 6443   5.174   9.644  10.940 -0.4337  2.6062  1.3153
  223bbb     H4 6444   5.011   9.700  10.954 -0.5421  0.7244 -0.2780
  223bbb     C3 6445   5.136   9.448  10.755 -0.1009 -0.1259 -0.3104
  223bbb     H5 6446   5.217   9.412  10.820 -0.5138 -0.9319 -0.2429
  223bbb     H6 6447   5.176   9.512  10.675  0.9347 -1.3660 -0.8029
  223bbb     C4 6448   5.077   9.325  10.682  0.0901 -0.2405 -0.2577
  223bbb     H7 6449   4.980   9.357  10.641  0.0177 -0.0687  0.0366
  223bbb     H8 6450   5.053   9.251  10.760  1.2147  1.4847  1.8212
  223bbb     C5 6451   4.926   9.498  11.075  0.4893 -0.2192 -0.8951
  223bbb     H9 6452   4.842   9.564  11.049  0.3851  0.0804  0.1493
  223bbb    H10 6453   5.007   9.557  11.121 -0.2867  0.8821 -0.9155
  223bbb     C6 6454   5.108   9.756  10.766  0.1153 -0.3742 -0.6412
  223bbb    H11 6455   5.023   9.745  10.698 -0.5118 -1.6488  0.3052
  223bbb    H12 6456   5.195   9.717  10.711  0.9687 -1.4528  1.3471
  223bbb     C7 6457   5.178   9.266  10.569  0.7188  0.6705 -0.4314
  223bbb    H13 6458   5.264   9.268  10.638  0.0902 -0.3425  0.4015
  223bbb    H14 6459   5.190   9.368  10.531 -2.0042  1.1912 -0.1020
  223bbb     C8 6460   5.128   9.901  10.820  0.7222  0.1677 -0.1599
  223bbb    H15 6461   5.191   9.899  10.910 -0.0302 -0.1065  0.3648
  223bbb    H16 6462   5.031   9.941  10.852  0.4055 -1.5567  1.1594
  223bbb     C9 6463   4.882   9.393  11.179  0.4848  0.0585  0.3490
  223bbb    H17 6464   4.868   9.435  11.280  0.3831  0.4191  0.1901
  223bbb    H18 6465   4.955   9.313  11.191 -0.4680 -1.4886 -2.9294
  223bbb     O1 6466   5.163   9.100  10.406 -0.0690 -0.2561  0.2359
  224bbb     N1 6467   4.383   9.256  10.114 -0.5775 -0.1437  0.2468
  224bbb     C1 6468   4.483   9.354  10.178 -0.8653  0.4740  0.2734
  224bbb     H1 6469   4.530   9.404  10.092  1.8398 -1.6889  0.3545
  224bbb     H2 6470   4.547   9.297  10.245 -2.0548  0.5114  1.4899
  224bbb     C2 6471   4.273   9.316  10.033 -0.0827  0.6890 -0.3346
  224bbb     H3 6472   4.228   9.400  10.088 -3.0264 -0.1132 -1.3419
  224bbb     H4 6473   4.192   9.248  10.006 -0.0466  0.0231  1.1553
  224bbb     C3 6474   4.448   9.140  10.048  0.2123  0.8145  0.0899
  224bbb     H5 6475   4.503   9.173   9.959  1.3176  0.7776  0.7359
  224bbb     H6 6476   4.375   9.073  10.002  0.7209 -0.1134  0.6179
  224bbb     C4 6477   4.544   9.053  10.134 -0.1781  0.3620  0.8698
  224bbb     H7 6478   4.502   9.040  10.235  0.9606 -1.1322  1.1890
  224bbb     H8 6479   4.639   9.106  10.142 -0.3062  0.7179  0.0725
  224bbb     C5 6480   4.428   9.471  10.270 -1.2611  0.3520 -0.5777
  224bbb     H9 6481   4.509   9.491  10.340  0.3720 -1.2503 -1.9151
  224bbb    H10 6482   4.343   9.439  10.331 -0.7739 -1.1592 -0.6657
  224bbb     C6 6483   4.324   9.384   9.907  0.5761 -0.1779 -0.2766
  224bbb    H11 6484   4.365   9.305   9.843  0.4282  0.6542 -1.4410
  224bbb    H12 6485   4.402   9.454   9.943  0.5324 -0.1837 -0.1716
  224bbb     C7 6486   4.569   8.919  10.064 -0.4848  0.3998 -0.0018
  224bbb    H13 6487   4.571   8.937   9.956 -1.0800 -0.2555 -0.1284
  224bbb    H14 6488   4.483   8.857  10.089  1.3406 -2.0946  0.5332
  224bbb     C8 6489   4.217   9.466   9.831 -0.6215  0.3286  0.1019
  224bbb    H15 6490   4.144   9.400   9.783 -1.8209  1.2839  0.5783
  224bbb    H16 6491   4.279   9.517   9.757  1.3591 -1.8380  0.1405
  224bbb     C9 6492   4.405   9.607  10.199  0.1654  0.1296 -0.3325
  224bbb    H17 6493   4.329   9.600  10.120  0.7208  0.8775 -0.9571
  224bbb    H18 6494   4.496   9.640  10.147 -0.1247  1.9912  0.2590
  224bbb     O1 6495   4.689   8.869  10.127  0.6229  0.6203  0.4341
  225bbb     N1 6496   5.411   9.205   9.642 -0.2149  0.2681 -0.8288
  225bbb     C1 6497   5.284   9.221   9.569  0.0521  0.0601 -0.2881
  225bbb     H1 6498   5.313   9.283   9.483  3.1304 -0.1787  0.4621
  225bbb     H2 6499   5.200   9.264   9.625  0.4443 -0.8769  1.0647
  225bbb     C2 6500   5.404   9.122   9.767  0.3474  0.0898  0.3028
  225bbb     H3 6501   5.502   9.110   9.815 -0.3025 -0.5001  1.5243
  225bbb     H4 6502   5.368   9.020   9.749  2.2687 -0.5720  0.0203
  225bbb     C3 6503   5.527   9.177   9.554  0.0546 -0.0017  0.2185
  225bbb     H5 6504   5.527   9.246   9.469  0.3855 -0.1928  0.0618
  225bbb     H6 6505   5.521   9.083   9.496 -0.5175  0.8638 -1.1761
  225bbb     C4 6506   5.664   9.196   9.615 -0.2558 -0.2794 -0.4035
  225bbb     H7 6507   5.683   9.118   9.690 -1.1728  1.0147  1.2752
  225bbb     H8 6508   5.661   9.292   9.669 -1.1124  0.1997 -1.2617
  225bbb     C5 6509   5.225   9.093   9.506  0.0822 -0.3486  0.6029
  225bbb     H9 6510   5.191   9.017   9.578 -3.8353  0.4263 -0.1761
  225bbb    H10 6511   5.295   9.029   9.450  0.3956 -0.8562  1.5599
  225bbb     C6 6512   5.321   9.180   9.892 -0.0391  0.3432  0.0214
  225bbb    H11 6513   5.331   9.126   9.987 -3.0051  1.1959  0.9175
  225bbb    H12 6514   5.214   9.181   9.870 -0.2376  0.8689  0.9452
  225bbb     C7 6515   5.776   9.191   9.510 -0.3140 -0.4575  0.5613
  225bbb    H13 6516   5.873   9.205   9.559 -0.9028 -1.7442  2.1678
  225bbb    H14 6517   5.755   9.265   9.432 -0.8422 -2.2865 -1.1249
  225bbb     C8 6518   5.367   9.324   9.927  0.5678 -0.0973 -0.2882
  225bbb    H15 6519   5.290   9.379   9.982  0.2639 -0.3843 -0.4315
  225bbb    H16 6520   5.378   9.372   9.829 -0.7359 -2.2742 -1.5644
  225bbb     C9 6521   5.093   9.131   9.425 -0.7576  0.4889  0.1632
  225bbb    H17 6522   5.034   9.195   9.491 -0.3126  0.2395  0.8119
  225bbb    H18 6523   5.033   9.040   9.406  0.1137 -0.3784  1.4094
  225bbb     O1 6524   5.780   9.061   9.447 -0.7026 -0.7170 -0.3880
  226bbb     N1 6525   5.181   8.741   8.619  0.1970 -0.0430  0.2904
  226bbb     C1 6526   5.139   8.696   8.484 -0.5409  0.3568 -0.4105
  226bbb     H1 6527   5.225   8.697   8.416  1.3067  0.8851  1.8035
  226bbb     H2 6528   5.073   8.772   8.441 -0.6127  0.8025  0.4564
  226bbb     C2 6529   5.096   8.818   8.699  0.0494 -0.2010 -0.7735
  226bbb     H3 6530   5.143   8.839   8.796  0.1740 -0.6636 -0.7321
  226bbb     H4 6531   5.001   8.766   8.718 -1.4878  2.8246  0.5673
  226bbb     C3 6532   5.267   8.647   8.686  0.1095 -0.1720 -0.3043
  226bbb     H5 6533   5.321   8.588   8.611  0.6888  1.7488 -1.4513
  226bbb     H6 6534   5.203   8.580   8.745 -0.9868  1.5749  0.5517
  226bbb     C4 6535   5.372   8.704   8.776  0.4576 -0.0722 -0.2678
  226bbb     H7 6536   5.423   8.622   8.829 -1.2993 -0.3395  1.1241
  226bbb     H8 6537   5.320   8.760   8.855 -0.0733 -0.5430 -0.2760
  226bbb     C5 6538   5.073   8.552   8.472  0.2328  0.2804 -0.0104
  226bbb     H9 6539   4.988   8.564   8.541 -1.5769 -1.4388 -1.8050
  226bbb    H10 6540   5.132   8.468   8.510  0.7788  0.5498 -0.2540
  226bbb     C6 6541   5.071   8.959   8.634 -0.0862 -0.5105  0.6034
  226bbb    H11 6542   4.978   8.945   8.577  1.2806 -1.6201 -1.4960
  226bbb    H12 6543   5.150   8.981   8.561 -0.4902  0.1898  0.3723
  226bbb     C7 6544   5.482   8.791   8.703 -0.0251  0.2979  0.0966
  226bbb    H13 6545   5.428   8.864   8.641 -2.3744 -1.2917  0.1616
  226bbb    H14 6546   5.531   8.722   8.633  1.8423  1.8354 -0.1807
  226bbb     C8 6547   5.068   9.068   8.742  0.1445 -0.2809 -0.0678
  226bbb    H15 6548   5.032   9.025   8.836  1.6651  0.0887  0.7112
  226bbb    H16 6549   4.983   9.129   8.708 -0.5559 -1.0850  0.2337
  226bbb     C9 6550   5.022   8.528   8.328 -0.1419  0.1687  0.7576
  226bbb    H17 6551   5.099   8.498   8.256 -0.5611  0.7050  0.0672
  226bbb    H18 6552   4.987   8.622   8.282  0.4213 -0.7821 -1.7810
  226bbb     O1 6553   5.572   8.832   8.798  0.1683 -0.5307  0.1918
  227bbb     N1 6554   8.180   7.174  10.599 -0.3571  0.3097  0.0880
  227bbb     C1 6555   8.073   7.073  10.604  0.0080  0.4473  0.0862
  227bbb     H1 6556   8.097   6.990  10.537 -1.7787 -0.8776  1.0021
  227bbb     H2 6557   7.982   7.120  10.565 -0.3264  0.8122  1.2715
  227bbb     C2 6558   8.221   7.190  10.453  0.1941 -0.6411  0.1463
  227bbb     H3 6559   8.135   7.232  10.400  0.7031 -1.4630 -1.4096
  227bbb     H4 6560   8.244   7.095  10.403  0.3119  0.1481 -1.3989
  227bbb     C3 6561   8.152   7.302  10.675 -0.0551 -0.1755  0.1181
  227bbb     H5 6562   8.248   7.356  10.679 -0.1455 -0.0006 -0.0674
  227bbb     H6 6563   8.124   7.273  10.777  0.7312  0.1760  0.4374
  227bbb     C4 6564   8.041   7.384  10.606 -0.6151  0.6456 -0.2549
  227bbb     H7 6565   7.952   7.320  10.604  1.7222 -2.8089 -0.7074
  227bbb     H8 6566   8.073   7.410  10.504 -0.0262 -0.2436 -0.2973
  227bbb     C5 6567   8.037   7.021  10.740  0.6832  0.3709 -0.4356
  227bbb     H9 6568   7.949   6.955  10.735  2.0030 -1.3837 -1.6476
  227bbb    H10 6569   8.013   7.102  10.810 -0.7323 -1.9801  2.0715
  227bbb     C6 6570   8.354   7.273  10.436 -1.2499  0.1321 -0.1121
  227bbb    H11 6571   8.431   7.210  10.481  0.1845  0.3937 -2.0762
  227bbb    H12 6572   8.350   7.370  10.486 -1.8616  0.2102 -0.3053
  227bbb     C7 6573   8.014   7.515  10.689 -0.1343 -0.0188 -0.3620
  227bbb    H13 6574   7.921   7.563  10.655  0.4669  1.6887  0.3196
  227bbb    H14 6575   8.088   7.592  10.666  0.3704 -1.2729 -3.4524
  227bbb     C8 6576   8.404   7.296  10.289 -1.2588 -0.1860 -0.4417
  227bbb    H15 6577   8.334   7.247  10.221 -1.6446 -2.2211  1.3359
  227bbb    H16 6578   8.505   7.253  10.282 -0.4432  0.9390  2.6794
  227bbb     C9 6579   8.144   6.925  10.805 -0.4762  0.3503  0.3911
  227bbb    H17 6580   8.156   6.850  10.725  0.0493  2.1109 -1.2426
  227bbb    H18 6581   8.107   6.873  10.894  0.2010  0.2639  0.6206
  227bbb     O1 6582   8.006   7.493  10.829  0.2131  0.0423  0.6077
  228bbb     N1 6583   7.124   7.785  11.643  0.1804  0.4351 -0.5121
  228bbb     C1 6584   7.002   7.724  11.704 -0.1714  0.7939  0.1295
  228bbb     H1 6585   7.019   7.648  11.781 -2.2767 -1.3954 -1.4413
  228bbb     H2 6586   6.936   7.675  11.631 -2.7050  1.1484  2.0408
  228bbb     C2 6587   7.206   7.881  11.726  0.2285  0.5925 -0.0252
  228bbb     H3 6588   7.140   7.966  11.751 -2.5763 -1.0386 -1.3682
  228bbb     H4 6589   7.299   7.914  11.678  0.1591  2.0162  0.7529
  228bbb     C3 6590   7.214   7.689  11.580 -0.4173  0.7657 -0.2790
  228bbb     H5 6591   7.238   7.610  11.652  0.6378  0.7206 -0.6693
  228bbb     H6 6592   7.313   7.730  11.559  0.8791 -0.0554  3.4821
  228bbb     C4 6593   7.144   7.623  11.457  0.2410  0.4684 -0.9505
  228bbb     H7 6594   7.113   7.690  11.375 -2.9562 -3.4250 -3.2856
  228bbb     H8 6595   7.051   7.573  11.487  1.0759 -0.1894  0.6675
  228bbb     C5 6596   6.913   7.836  11.760 -0.7340 -0.1095  0.5498
  228bbb     H9 6597   6.893   7.902  11.675  0.8551 -0.5564 -0.2124
  228bbb    H10 6598   6.971   7.879  11.843  2.6901 -1.1398 -1.1411
  228bbb     C6 6599   7.265   7.810  11.848  0.4727  0.3700 -0.8408
  228bbb    H11 6600   7.317   7.720  11.817 -0.9652 -0.2596 -1.5379
  228bbb    H12 6601   7.189   7.764  11.911  2.6738 -2.2364  0.0734
  228bbb     C7 6602   7.224   7.512  11.395 -0.1162  0.1387  0.5096
  228bbb    H13 6603   7.164   7.451  11.326  2.5221 -0.9278 -0.9753
  228bbb    H14 6604   7.256   7.454  11.482 -1.4752 -1.9500 -0.2926
  228bbb     C8 6605   7.351   7.914  11.929 -0.5265 -0.2942  0.7911
  228bbb    H15 6606   7.329   8.017  11.898 -0.3537 -0.0259  1.5356
  228bbb    H16 6607   7.458   7.890  11.917 -0.3709  0.5170  0.4935
  228bbb     C9 6608   6.781   7.787  11.821 -0.3239 -1.3900  0.1300
  228bbb    H17 6609   6.714   7.748  11.743 -0.7330 -2.5870  1.0415
  228bbb    H18 6610   6.731   7.879  11.854  1.2920 -0.7392  0.8932
  228bbb     O1 6611   7.343   7.569  11.334  0.0947  0.0006  0.3334
  229bbb     N1 6612   8.138   8.438   9.341  1.1293 -0.2702 -0.2223
  229bbb     C1 6613   8.281   8.468   9.366 -0.7299  1.2135 -0.0710
  229bbb     H1 6614   8.334   8.474   9.270 -0.8892 -1.0981 -0.3683
  229bbb     H2 6615   8.317   8.388   9.433 -0.5114  1.2788 -0.1098
  229bbb     C2 6616   8.114   8.332   9.240  0.1044 -0.3075  0.3509
  229bbb     H3 6617   8.008   8.306   9.232  0.1860 -0.9745  1.2780
  229bbb     H4 6618   8.161   8.240   9.277 -0.2954 -0.7599 -0.2457
  229bbb     C3 6619   8.066   8.393   9.462  0.9109  0.1500 -0.6817
  229bbb     H5 6620   8.115   8.437   9.549  0.5861 -0.8088  0.0058
  229bbb     H6 6621   8.069   8.284   9.473 -1.4801 -0.1510 -2.2170
  229bbb     C4 6622   7.918   8.444   9.454  0.0374  0.1402  0.1594
  229bbb     H7 6623   7.860   8.408   9.368 -1.0242  1.2323  0.3857
  229bbb     H8 6624   7.912   8.553   9.442  0.1967  0.0929 -0.3542
  229bbb     C5 6625   8.315   8.603   9.449 -0.1355 -0.2139 -0.1794
  229bbb     H9 6626   8.274   8.596   9.550  1.2147 -1.2786  0.3382
  229bbb    H10 6627   8.265   8.686   9.399  2.0767  0.1521 -1.9468
  229bbb     C6 6628   8.168   8.357   9.092  0.0321 -0.3222  0.4763
  229bbb    H11 6629   8.133   8.274   9.029  0.8107 -1.0659  0.9936
  229bbb    H12 6630   8.277   8.350   9.089 -0.0382 -1.1139 -1.1655
  229bbb     C7 6631   7.828   8.397   9.569  0.4898 -0.3253 -1.1940
  229bbb    H13 6632   7.832   8.287   9.574  1.0314 -0.2741 -0.1498
  229bbb    H14 6633   7.725   8.432   9.557  0.0652 -0.1928  1.9922
  229bbb     C8 6634   8.110   8.482   9.020 -0.3072 -0.1334  0.0249
  229bbb    H15 6635   8.112   8.556   9.101  0.3911 -1.1499  0.9769
  229bbb    H16 6636   8.006   8.462   8.994  0.7563 -4.7158 -1.6492
  229bbb     C9 6637   8.470   8.636   9.459 -0.1970 -0.1848  0.2861
  229bbb    H17 6638   8.523   8.621   9.364 -0.4182  2.0177 -0.2343
  229bbb    H18 6639   8.513   8.559   9.524 -3.4614  0.2113  3.2129
  229bbb     O1 6640   7.874   8.460   9.694  0.0329  0.3045  0.4638
  230bbb     N1 6641   7.019   9.051  10.213 -0.9173 -0.4073  0.2783
  230bbb     C1 6642   7.004   9.199  10.216  0.1360 -0.1349 -0.1311
  230bbb     H1 6643   7.049   9.250  10.130  0.8353 -0.4889  0.0255
  230bbb     H2 6644   7.061   9.247  10.295  0.6209 -0.8618 -0.0280
  230bbb     C2 6645   6.924   8.979  10.130 -0.1752  0.7090  0.5003
  230bbb     H3 6646   6.819   9.000  10.154 -0.7869  1.5562 -2.4939
  230bbb     H4 6647   6.939   8.871  10.139 -1.6290  0.4124 -0.2689
  230bbb     C3 6648   7.161   9.008  10.201  0.4455 -0.0129 -0.3686
  230bbb     H5 6649   7.220   9.085  10.253 -0.9602  1.0539 -0.2858
  230bbb     H6 6650   7.202   9.018  10.099  1.1892 -2.7553 -0.4089
  230bbb     C4 6651   7.196   8.865  10.241 -0.0751  0.3731 -0.3075
  230bbb     H7 6652   7.184   8.799  10.154  1.5968  1.0556 -1.1023
  230bbb     H8 6653   7.131   8.835  10.324  0.4173 -0.4647 -0.2132
  230bbb     C5 6654   6.862   9.250  10.218 -0.2798 -0.3844  0.8259
  230bbb     H9 6655   6.800   9.202  10.294 -1.7601  0.2481  0.0497
  230bbb    H10 6656   6.813   9.225  10.123 -0.2089  1.2311  0.3235
  230bbb     C6 6657   6.940   9.016   9.980  0.8999  0.0876  0.4785
  230bbb    H11 6658   7.042   8.997   9.944  0.1050 -2.3784 -0.7444
  230bbb    H12 6659   6.920   9.123   9.965  1.3564  0.3849  1.8789
  230bbb     C7 6660   7.349   8.859  10.277 -0.1462  0.0335  0.1294
  230bbb    H13 6661   7.375   8.894  10.377 -0.7998  1.6548 -0.2408
  230bbb    H14 6662   7.406   8.914  10.202  0.8694  0.7608  1.3908
  230bbb     C8 6663   6.848   8.938   9.887  0.2300  0.0422  0.0007
  230bbb    H15 6664   6.886   8.836   9.871 -0.4229 -0.3418  0.7873
  230bbb    H16 6665   6.861   8.970   9.783  0.2010  1.3049  0.3762
  230bbb     C9 6666   6.865   9.405  10.246 -0.4014  0.4175 -0.2217
  230bbb    H17 6667   6.761   9.437  10.259 -0.2203  1.3034 -0.8728
  230bbb    H18 6668   6.896   9.453  10.152 -0.1939  0.0272 -0.3555
  230bbb     O1 6669   7.393   8.721  10.270  0.8415  0.3284  0.1060
  231bbb     N1 6670   5.531   6.623   8.348 -0.5094  0.1155  0.3660
  231bbb     C1 6671   5.681   6.601   8.343  0.2643  0.1620 -0.1541
  231bbb     H1 6672   5.699   6.494   8.331 -1.2468 -0.0865 -0.4111
  231bbb     H2 6673   5.732   6.635   8.434 -0.9504 -1.2504  1.1208
  231bbb     C2 6674   5.469   6.531   8.441 -0.2988 -0.2998  0.2180
  231bbb     H3 6675   5.506   6.571   8.536  1.2187 -0.8576 -0.0974
  231bbb     H4 6676   5.518   6.433   8.448 -0.0999 -0.1669  0.7484
  231bbb     C3 6677   5.485   6.759   8.352 -0.2402 -0.6973 -0.1371
  231bbb     H5 6678   5.377   6.765   8.371 -0.3794  0.6792 -1.1873
  231bbb     H6 6679   5.509   6.816   8.261 -1.7934 -1.0188 -0.7719
  231bbb     C4 6680   5.548   6.839   8.464 -0.1745  0.1244  0.0957
  231bbb     H7 6681   5.657   6.835   8.468 -0.1423  1.4872  1.5976
  231bbb     H8 6682   5.536   6.785   8.559 -1.4379  0.0872 -0.0695
  231bbb     C5 6683   5.746   6.672   8.229  0.4777 -0.3770  0.7277
  231bbb     H9 6684   5.744   6.781   8.239  0.6285 -0.1417 -1.3203
  231bbb    H10 6685   5.691   6.655   8.135  1.0230  1.4205  0.0445
  231bbb     C6 6686   5.319   6.515   8.453  0.2499 -0.3302  0.0051
  231bbb    H11 6687   5.279   6.508   8.351  0.7237  3.2821 -0.5485
  231bbb    H12 6688   5.269   6.606   8.490 -0.2176  0.4468 -2.3662
  231bbb     C7 6689   5.502   6.982   8.475  0.2034  0.3111 -0.0842
  231bbb    H13 6690   5.399   7.011   8.500  0.9119  2.0987  0.9438
  231bbb    H14 6691   5.532   7.028   8.380  0.4380 -0.1748 -0.2453
  231bbb     C8 6692   5.274   6.396   8.540 -0.9463 -0.0669  0.0919
  231bbb    H15 6693   5.254   6.439   8.639 -0.0698  0.2747  0.1342
  231bbb    H16 6694   5.346   6.317   8.565 -0.3658  0.5625  0.4621
  231bbb     C9 6695   5.893   6.639   8.209 -0.2189  0.6113 -0.5720
  231bbb    H17 6696   5.936   6.689   8.121  1.7312 -0.0053 -0.0054
  231bbb    H18 6697   5.917   6.532   8.198  1.8517  0.7857  1.5494
  231bbb     O1 6698   5.590   7.037   8.575  0.1611 -0.4676 -0.3294
  232bbb     N1 6699   5.438   8.183   8.515  0.5514  0.3997 -1.2952
  232bbb     C1 6700   5.431   8.225   8.371 -0.5207  0.5327 -0.9105
  232bbb     H1 6701   5.395   8.143   8.308  2.9329  0.0494 -2.5234
  232bbb     H2 6702   5.538   8.242   8.350 -0.9843  2.5508 -1.9105
  232bbb     C2 6703   5.310   8.196   8.595  0.0394  0.0600 -0.2104
  232bbb     H3 6704   5.232   8.121   8.573 -0.6450  1.3208 -2.4165
  232bbb     H4 6705   5.249   8.283   8.567 -0.4369  0.1607  1.0783
  232bbb     C3 6706   5.528   8.066   8.550 -0.0290  0.1608  0.7708
  232bbb     H5 6707   5.532   8.050   8.658  0.0997 -0.7171  0.6490
  232bbb     H6 6708   5.634   8.085   8.527  0.3891 -0.9317  1.7076
  232bbb     C4 6709   5.483   7.930   8.483  0.5534 -0.3983 -0.0246
  232bbb     H7 6710   5.479   7.945   8.375 -0.2965 -1.5874 -0.1699
  232bbb     H8 6711   5.383   7.898   8.514  0.8813 -1.0612  0.3617
  232bbb     C5 6712   5.348   8.352   8.352  0.2729 -1.3284  0.5587
  232bbb     H9 6713   5.379   8.424   8.429 -0.2913 -0.5105  0.0367
  232bbb    H10 6714   5.242   8.327   8.359 -0.1605  0.0066 -0.7970
  232bbb     C6 6715   5.347   8.216   8.748  0.0776  0.0771 -0.2379
  232bbb    H11 6716   5.433   8.283   8.753  0.0521  0.0255  1.4214
  232bbb    H12 6717   5.380   8.119   8.786  1.5121  0.3672 -0.6778
  232bbb     C7 6718   5.581   7.822   8.507 -0.2100  0.1550  0.1590
  232bbb    H13 6719   5.685   7.849   8.483 -0.7217  2.0788 -0.0720
  232bbb    H14 6720   5.564   7.732   8.447  2.2151  0.5198 -1.1809
  232bbb     C8 6721   5.226   8.271   8.825 -0.2982  0.6466 -0.2462
  232bbb    H15 6722   5.217   8.373   8.784  0.2038  0.0456 -1.8902
  232bbb    H16 6723   5.237   8.268   8.934 -1.9210 -4.4468 -0.0033
  232bbb     C9 6724   5.370   8.400   8.208 -0.1637 -0.2574  0.7736
  232bbb    H17 6725   5.311   8.484   8.168  1.8161  0.7858 -0.0766
  232bbb    H18 6726   5.476   8.424   8.195  0.0305 -1.2169  0.5061
  232bbb     O1 6727   5.563   7.772   8.650 -0.1256 -0.4642 -0.3279
  233bbb     N1 6728   5.515   5.362   9.973  0.2843 -0.4920 -0.1880
  233bbb     C1 6729   5.374   5.341   9.931 -0.1956 -0.0763  0.1138
  233bbb     H1 6730   5.345   5.235   9.927  0.4458 -0.3042  1.0536
  233bbb     H2 6731   5.360   5.384   9.831 -1.5767  1.3525  0.8674
  233bbb     C2 6732   5.562   5.296  10.099 -0.0982 -0.4261 -0.3070
  233bbb     H3 6733   5.525   5.338  10.193  1.7698 -0.2484  0.3769
  233bbb     H4 6734   5.671   5.309  10.097 -0.1031  2.4195  4.3982
  233bbb     C3 6735   5.549   5.505   9.969 -0.5686 -0.2093 -0.1027
  233bbb     H5 6736   5.657   5.518   9.962 -0.6349 -0.2712 -1.7873
  233bbb     H6 6737   5.520   5.559  10.060 -2.2649  1.1843 -1.3929
  233bbb     C4 6738   5.499   5.591   9.843  0.3377 -0.3645  0.4133
  233bbb     H7 6739   5.391   5.608   9.843  0.7885  3.3615  1.1416
  233bbb     H8 6740   5.520   5.538   9.749  0.4557 -1.0373  0.8116
  233bbb     C5 6741   5.259   5.398  10.024 -0.6083 -0.2989 -0.5522
  233bbb     H9 6742   5.278   5.504  10.044 -1.7930 -0.3278  0.9047
  233bbb    H10 6743   5.271   5.345  10.119  0.6955  0.3254 -0.3408
  233bbb     C6 6744   5.522   5.152  10.108 -0.3220 -0.9126 -0.4092
  233bbb    H11 6745   5.515   5.111  10.006 -3.0838  1.8677 -1.5073
  233bbb    H12 6746   5.421   5.158  10.151 -0.8128 -1.8649 -1.3857
  233bbb     C7 6747   5.556   5.734   9.841  0.0606  0.6441 -0.0190
  233bbb    H13 6748   5.663   5.727   9.817  0.4203 -0.1908  1.6218
  233bbb    H14 6749   5.543   5.773   9.943  0.9170 -0.5669  0.5916
  233bbb     C8 6750   5.617   5.072  10.197  0.7896 -0.2472  0.2024
  233bbb    H15 6751   5.608   5.122  10.294  1.1850 -1.5986  0.9623
  233bbb    H16 6752   5.714   5.076  10.146 -0.1027  1.4732 -1.5197
  233bbb     C9 6753   5.117   5.362   9.967 -0.3916 -0.1877 -0.2202
  233bbb    H17 6754   5.105   5.253   9.978  1.6145 -0.2855  1.7773
  233bbb    H18 6755   5.088   5.371   9.862  0.5488  0.0828 -0.4585
  233bbb     O1 6756   5.472   5.812   9.756 -0.1067  0.1692  0.3784
  234bbb     N1 6757   4.891   6.857   9.915 -0.2191 -0.3840  0.7509
  234bbb     C1 6758   4.790   6.796   9.818 -0.0514  0.0835 -0.6190
  234bbb     H1 6759   4.840   6.759   9.728 -0.1096  0.0721 -0.6468
  234bbb     H2 6760   4.726   6.879   9.786  0.6805  1.9114  2.3464
  234bbb     C2 6761   4.807   6.954  10.008 -0.4428 -0.3744  0.2929
  234bbb     H3 6762   4.729   6.898  10.061  1.0869 -1.4648  1.4821
  234bbb     H4 6763   4.767   7.037   9.948 -3.3034  0.0090  2.5048
  234bbb     C3 6764   5.005   6.924   9.851 -0.1014  0.0643 -0.6388
  234bbb     H5 6765   5.066   6.985   9.919 -1.5441  1.1097 -0.2228
  234bbb     H6 6766   4.963   6.993   9.777 -1.5454 -2.1132 -1.9832
  234bbb     C4 6767   5.098   6.833   9.765  0.6808 -0.9605  0.0248
  234bbb     H7 6768   5.186   6.887   9.728 -0.2629 -0.3786 -1.4831
  234bbb     H8 6769   5.038   6.802   9.678 -2.2451  0.8053  1.2877
  234bbb     C5 6770   4.710   6.671   9.870  0.5806 -0.2514 -0.6648
  234bbb     H9 6771   4.663   6.706   9.963 -1.0778  1.0430 -1.9145
  234bbb    H10 6772   4.787   6.599   9.901 -0.0391  0.4124  2.9500
  234bbb     C6 6773   4.900   7.022  10.112 -0.1822 -0.1557  0.1692
  234bbb    H11 6774   4.828   7.072  10.178 -0.1351  1.9423 -1.2636
  234bbb    H12 6775   4.954   7.100  10.058 -0.1142  0.7136  1.4586
  234bbb     C7 6776   5.146   6.716   9.865 -0.2888  0.2739  0.8423
  234bbb    H13 6777   5.070   6.660   9.920  1.4504 -2.7733  0.3894
  234bbb    H14 6778   5.214   6.763   9.936  0.3677  1.3013 -0.4258
  234bbb     C8 6779   5.007   6.951  10.194  0.0319 -0.8613  0.3374
  234bbb    H15 6780   5.103   7.005  10.198  0.5803 -1.8628  1.8414
  234bbb    H16 6781   5.024   6.858  10.139 -0.5048 -1.3801  1.0302
  234bbb     C9 6782   4.593   6.626   9.777  0.1544 -0.0224 -0.0291
  234bbb    H17 6783   4.637   6.542   9.722  1.2625  0.3325  0.2866
  234bbb    H18 6784   4.555   6.701   9.706 -0.5191  0.4897  0.8514
  234bbb     O1 6785   5.219   6.633   9.773  0.0734  0.0797  0.5223
  235bbb     N1 6786   5.072   7.420  11.565  0.0818 -0.2597  0.3190
  235bbb     C1 6787   5.188   7.418  11.660  0.2123  0.4182 -0.3785
  235bbb     H1 6788   5.249   7.507  11.640  1.0899  0.0313  0.5235
  235bbb     H2 6789   5.245   7.324  11.664 -0.0011  0.0804 -3.1714
  235bbb     C2 6790   4.994   7.291  11.560 -0.1741 -0.0663 -0.3877
  235bbb     H3 6791   4.976   7.256  11.662  0.4127  1.5161  0.2980
  235bbb     H4 6792   5.052   7.209  11.514  0.8422  0.6637 -0.4440
  235bbb     C3 6793   5.109   7.477  11.433  0.0058  0.5258  0.3694
  235bbb     H5 6794   5.150   7.578  11.438  0.2454  0.4120  0.7864
  235bbb     H6 6795   5.023   7.503  11.370  0.0928  0.7399  0.3392
  235bbb     C4 6796   5.197   7.381  11.353  0.4746 -0.2178 -0.1401
  235bbb     H7 6797   5.129   7.303  11.315  0.1991  0.6943 -1.5835
  235bbb     H8 6798   5.269   7.332  11.420 -1.3279 -2.8407  0.0397
  235bbb     C5 6799   5.143   7.447  11.802  0.3331 -0.1442 -0.8225
  235bbb     H9 6800   5.237   7.448  11.859 -0.4544  0.2520  0.5387
  235bbb    H10 6801   5.074   7.369  11.836  0.3274  0.5909  0.9576
  235bbb     C6 6802   4.858   7.314  11.480  0.0123 -0.8531 -1.0886
  235bbb    H11 6803   4.797   7.224  11.493  0.3759 -0.9802 -0.2384
  235bbb    H12 6804   4.869   7.336  11.373 -0.3221  0.8687 -0.8091
  235bbb     C7 6805   5.263   7.454  11.228  0.1766 -0.0411 -0.5959
  235bbb    H13 6806   5.352   7.498  11.274 -0.1048 -0.2386  0.1643
  235bbb    H14 6807   5.199   7.526  11.176  1.2772  0.5068 -1.2214
  235bbb     C8 6808   4.785   7.440  11.545 -0.3619  0.2560 -0.3706
  235bbb    H15 6809   4.844   7.529  11.521 -1.1548 -0.0904 -4.1388
  235bbb    H16 6810   4.774   7.431  11.654 -1.1741 -1.0955 -0.5506
  235bbb     C9 6811   5.052   7.574  11.818 -0.0526  0.2380 -0.4164
  235bbb    H17 6812   4.970   7.568  11.746  0.5445 -1.6462 -1.0019
  235bbb    H18 6813   5.002   7.564  11.916  1.2775 -0.8808  0.1785
  235bbb     O1 6814   5.309   7.350  11.138  1.0240  0.0571  0.2348
  236bbb     N1 6815   6.051   7.821  11.255  0.1436 -0.0883 -0.1043
  236bbb     C1 6816   6.164   7.850  11.158 -0.0041 -0.0328  0.7285
  236bbb     H1 6817   6.254   7.878  11.215  0.6641 -2.8266  1.1905
  236bbb     H2 6818   6.137   7.935  11.095 -0.0655 -1.2557 -0.9549
  236bbb     C2 6819   6.048   7.913  11.366 -0.2721 -0.5330 -0.2401
  236bbb     H3 6820   5.944   7.926  11.399  0.0938  1.9440  0.0997
  236bbb     H4 6821   6.081   8.015  11.347 -3.1369  0.3522 -0.8468
  236bbb     C3 6822   5.927   7.776  11.193  0.0237 -0.0531 -0.5154
  236bbb     H5 6823   5.847   7.754  11.265  2.1177 -2.3446  1.2562
  236bbb     H6 6824   5.945   7.693  11.125 -0.8487 -0.3645 -0.3859
  236bbb     C4 6825   5.872   7.885  11.108  0.1248  0.1278  0.7055
  236bbb     H7 6826   5.939   7.903  11.023  1.2138 -2.1019  1.0356
  236bbb     H8 6827   5.861   7.985  11.153 -3.0330  0.4471 -0.5071
  236bbb     C5 6828   6.214   7.739  11.071  0.4998 -0.1426  0.0968
  236bbb     H9 6829   6.282   7.783  10.997 -0.9891  0.8941 -0.7118
  236bbb    H10 6830   6.134   7.684  11.019  2.1950 -1.5755 -1.0800
  236bbb     C6 6831   6.133   7.871  11.492 -0.4216 -0.2243 -0.1841
  236bbb    H11 6832   6.130   7.940  11.577  1.8940 -0.2487 -0.0355
  236bbb    H12 6833   6.237   7.842  11.475 -0.8037 -2.5665  1.1388
  236bbb     C7 6834   5.739   7.850  11.045 -0.8893 -0.4113  0.0449
  236bbb    H13 6835   5.703   7.930  10.979  1.2806  0.1308 -0.5517
  236bbb    H14 6836   5.660   7.837  11.120 -1.4074 -0.9450 -0.5877
  236bbb     C8 6837   6.080   7.739  11.544  0.5119 -0.2350 -0.0580
  236bbb    H15 6838   6.103   7.653  11.481  0.4433  0.9529 -1.7889
  236bbb    H16 6839   5.972   7.757  11.541  0.3368 -0.9629  1.1547
  236bbb     C9 6840   6.283   7.623  11.159 -0.2615 -0.2038  0.0003
  236bbb    H17 6841   6.257   7.524  11.120  0.2820 -0.8892  1.3165
  236bbb    H18 6842   6.245   7.626  11.262  3.0096  0.3068  1.3128
  236bbb     O1 6843   5.750   7.723  10.978 -0.0728  0.2834  0.5175
  237bbb     N1 6844   5.384   6.173  10.211 -0.3656  0.2325 -0.5734
  237bbb     C1 6845   5.345   6.126  10.349  0.0046 -0.0356 -0.0575
  237bbb     H1 6846   5.427   6.078  10.404  1.2119  1.9515 -0.0635
  237bbb     H2 6847   5.266   6.050  10.348 -1.6129  1.5354  1.6199
  237bbb     C2 6848   5.377   6.057  10.105 -0.7077 -0.1493 -0.6592
  237bbb     H3 6849   5.451   5.981  10.132 -0.0130  0.1107 -1.7519
  237bbb     H4 6850   5.420   6.092  10.010  1.8624 -1.5855 -0.1396
  237bbb     C3 6851   5.511   6.246  10.200  0.0661 -0.1788  0.3812
  237bbb     H5 6852   5.588   6.167  10.204  1.6558  1.3437  2.3293
  237bbb     H6 6853   5.520   6.316  10.284  1.2155 -0.6253  0.6492
  237bbb     C4 6854   5.512   6.329  10.065 -0.6198 -0.6647 -0.4547
  237bbb     H7 6855   5.479   6.432  10.085 -0.2879 -0.8190  1.0117
  237bbb     H8 6856   5.433   6.301   9.995  0.4989  0.4669 -2.2741
  237bbb     C5 6857   5.299   6.243  10.439 -1.1014  0.3153 -0.8959
  237bbb     H9 6858   5.204   6.285  10.405 -1.6939 -0.6479 -0.4501
  237bbb    H10 6859   5.357   6.336  10.443 -2.8108  1.4670 -1.7325
  237bbb     C6 6860   5.233   5.998  10.077  0.3803  0.0254 -0.0738
  237bbb    H11 6861   5.168   6.076  10.037  0.3470  0.6498  1.1385
  237bbb    H12 6862   5.186   5.974  10.173 -1.1815  0.5092 -0.6906
  237bbb     C7 6863   5.646   6.317   9.993  0.1250  0.6274 -0.4636
  237bbb    H13 6864   5.732   6.329  10.060 -0.2693  1.1997 -0.0532
  237bbb    H14 6865   5.668   6.378   9.905 -1.6253  2.0233  0.0247
  237bbb     C8 6866   5.237   5.869  10.000  0.2350  0.6289  0.0702
  237bbb    H15 6867   5.282   5.801  10.073  1.5724  2.5170  1.0986
  237bbb    H16 6868   5.303   5.877   9.912 -0.6165  1.0948 -0.5517
  237bbb     C9 6869   5.292   6.197  10.591  0.2379  0.3553 -0.0056
  237bbb    H17 6870   5.251   6.276  10.654  1.7738 -0.5291  2.2797
  237bbb    H18 6871   5.390   6.161  10.626  1.2918 -0.4861 -3.4469
  237bbb     O1 6872   5.656   6.178   9.945  0.1972  0.8861 -0.1989
  238bbb     N1 6873   5.994   5.340  10.798  0.2781 -0.0700 -0.4116
  238bbb     C1 6874   6.007   5.446  10.899 -0.1403 -0.1450 -0.5858
  238bbb     H1 6875   6.048   5.536  10.852  1.4059 -1.2606 -1.4575
  238bbb     H2 6876   6.088   5.415  10.965  1.0431 -1.3800 -2.5387
  238bbb     C2 6877   6.123   5.296  10.730 -0.5442 -0.9174  0.3500
  238bbb     H3 6878   6.201   5.266  10.800  0.3315  0.3063 -0.0582
  238bbb     H4 6879   6.163   5.384  10.677 -0.9087  0.0194  1.5963
  238bbb     C3 6880   5.880   5.368  10.709  0.0141 -0.2052  0.1213
  238bbb     H5 6881   5.784   5.354  10.759 -0.1883  0.4507 -0.0814
  238bbb     H6 6882   5.878   5.286  10.635 -2.0190 -0.6498  0.6194
  238bbb     C4 6883   5.890   5.502  10.633 -0.0023  1.0876 -0.8640
  238bbb     H7 6884   5.985   5.506  10.578  1.1378  0.6150  0.9765
  238bbb     H8 6885   5.886   5.588  10.700  2.3076 -0.6844  1.7918
  238bbb     C5 6886   5.879   5.492  10.973 -0.1698 -0.0268 -0.0870
  238bbb     H9 6887   5.806   5.410  10.982 -3.1564  2.1205 -2.4740
  238bbb    H10 6888   5.826   5.562  10.907  2.0206 -0.3640 -2.3316
  238bbb     C6 6889   6.104   5.173  10.633 -0.0272  0.6873  0.0654
  238bbb    H11 6890   6.040   5.202  10.549 -2.1006  1.9578  1.9643
  238bbb    H12 6891   6.046   5.095  10.684  1.1867 -1.1604 -1.2585
  238bbb     C7 6892   5.771   5.507  10.538  0.1042  0.1706 -0.4624
  238bbb    H13 6893   5.687   5.545  10.598  0.6111  1.2241 -0.3982
  238bbb    H14 6894   5.735   5.413  10.493 -0.4114  0.2377 -0.2006
  238bbb     C8 6895   6.235   5.112  10.585 -0.4723  0.4887 -0.0879
  238bbb    H15 6896   6.299   5.104  10.673 -3.3452 -2.0703  1.9638
  238bbb    H16 6897   6.283   5.180  10.513  3.5498  0.3016  2.1281
  238bbb     C9 6898   5.916   5.542  11.106  0.1993  0.6735  0.4298
  238bbb    H17 6899   5.998   5.481  11.146 -0.2688 -0.0536  0.2848
  238bbb    H18 6900   5.842   5.536  11.186 -0.0871  2.8190  0.4015
  238bbb     O1 6901   5.807   5.600  10.432 -0.5559 -0.6355  0.6261
  239bbb     N1 6902   5.506   8.678   6.495  0.3086 -0.4022 -0.6159
  239bbb     C1 6903   5.490   8.560   6.407  0.0925 -0.5685  0.0934
  239bbb     H1 6904   5.426   8.484   6.452 -1.3318  1.1404  1.0798
  239bbb     H2 6905   5.588   8.512   6.390  0.8412  0.9511 -0.0863
  239bbb     C2 6906   5.380   8.761   6.498 -0.2043 -0.1408 -0.3122
  239bbb     H3 6907   5.308   8.697   6.551  0.9550 -0.5928  0.7753
  239bbb     H4 6908   5.345   8.790   6.398  0.0093 -0.7274 -0.5653
  239bbb     C3 6909   5.542   8.638   6.635 -0.5742  0.7644  0.1904
  239bbb     H5 6910   5.461   8.590   6.692 -1.5103 -0.9639 -2.4068
  239bbb     H6 6911   5.558   8.730   6.693 -2.1139  2.0549 -1.3099
  239bbb     C4 6912   5.674   8.559   6.644  0.1009 -0.9158  0.1879
  239bbb     H7 6913   5.757   8.616   6.600 -0.8434 -0.1124 -0.6018
  239bbb     H8 6914   5.671   8.464   6.588  1.4393 -1.3569  0.8264
  239bbb     C5 6915   5.441   8.595   6.264 -0.2404  0.0715 -0.5931
  239bbb     H9 6916   5.493   8.678   6.216 -1.8441  0.7121 -1.3115
  239bbb    H10 6917   5.335   8.625   6.269 -0.7778 -1.7403 -0.0546
  239bbb     C6 6918   5.390   8.898   6.569  0.0390  0.5980 -0.1721
  239bbb    H11 6919   5.474   8.956   6.529  1.2102  0.5831  2.0672
  239bbb    H12 6920   5.416   8.888   6.675  1.4089 -2.4219 -0.6979
  239bbb     C7 6921   5.704   8.522   6.786  0.8965 -0.1980 -0.0016
  239bbb    H13 6922   5.639   8.444   6.827 -1.1071  1.9303  1.0938
  239bbb    H14 6923   5.672   8.611   6.843 -0.9415 -1.2269  0.6212
  239bbb     C8 6924   5.264   8.980   6.564 -0.2201 -0.6292 -0.6411
  239bbb    H15 6925   5.223   8.971   6.665 -1.2844  2.0376 -0.7559
  239bbb    H16 6926   5.192   8.930   6.499  0.1958 -2.7572  0.4284
  239bbb     C9 6927   5.442   8.481   6.167  0.0263 -0.1750  0.0177
  239bbb    H17 6928   5.408   8.388   6.215  0.5352 -0.9250 -1.0472
  239bbb    H18 6929   5.541   8.473   6.121 -0.1824 -1.6041 -0.2238
  239bbb     O1 6930   5.845   8.494   6.804 -0.3835 -0.6178 -0.1979
  240bbb     N1 6931   5.947   7.898   6.647 -0.2527  0.4444 -0.5316
  240bbb     C1 6932   5.803   7.899   6.689  0.9309 -0.0002 -0.0451
  240bbb     H1 6933   5.750   7.883   6.594  0.4289  0.3661  0.1743
  240bbb     H2 6934   5.765   7.990   6.736  0.6084  0.6044 -1.4371
  240bbb     C2 6935   5.971   8.000   6.539  0.2351 -0.0491 -0.2805
  240bbb     H3 6936   5.892   7.996   6.463 -0.0810 -0.4159  0.0625
  240bbb     H4 6937   6.069   7.974   6.498  0.0649  1.8585 -2.1095
  240bbb     C3 6938   6.037   7.903   6.766  0.6580 -0.0985  0.3030
  240bbb     H5 6939   6.016   7.819   6.834 -2.0977 -1.0136 -1.4920
  240bbb     H6 6940   6.014   7.993   6.823  0.7159  0.0616  0.0770
  240bbb     C4 6941   6.192   7.902   6.730 -0.6025  0.6677 -0.3506
  240bbb     H7 6942   6.201   7.991   6.666 -2.6029  1.9448  1.0313
  240bbb     H8 6943   6.220   7.815   6.670  0.4100  0.9210 -0.2671
  240bbb     C5 6944   5.771   7.794   6.799  0.4031  0.5460  0.5693
  240bbb     H9 6945   5.820   7.828   6.892  0.1419  1.7329  0.2946
  240bbb    H10 6946   5.821   7.702   6.766 -1.1436 -0.6689  1.4601
  240bbb     C6 6947   5.977   8.140   6.592 -0.2204  0.0656 -0.1889
  240bbb    H11 6948   6.064   8.145   6.660  0.4797 -0.1421 -1.0493
  240bbb    H12 6949   5.883   8.168   6.641 -0.8058 -1.1835 -0.5793
  240bbb     C7 6950   6.281   7.919   6.858  0.1456 -0.1239 -0.1290
  240bbb    H13 6951   6.385   7.914   6.823  0.3962  1.2929  0.3279
  240bbb    H14 6952   6.262   7.838   6.928  2.6291 -0.6009  0.0642
  240bbb     C8 6953   6.012   8.249   6.488 -0.3443  0.3291 -0.2335
  240bbb    H15 6954   6.097   8.210   6.429 -0.1182 -1.4630  1.1827
  240bbb    H16 6955   6.044   8.339   6.542 -1.5066  1.1490 -0.8682
  240bbb     C9 6956   5.625   7.776   6.824  0.8462  0.1287 -0.2983
  240bbb    H17 6957   5.580   7.717   6.742  0.3004 -0.8539  0.6884
  240bbb    H18 6958   5.575   7.873   6.828  0.4882 -0.1058  1.7766
  240bbb     O1 6959   6.247   8.049   6.913 -0.0376 -0.6121 -0.8047
  241bbb     N1 6960   6.542   9.383   7.210  0.0358 -0.5581 -0.1087
  241bbb     C1 6961   6.470   9.506   7.155  0.0780 -0.7741 -0.2111
  241bbb     H1 6962   6.424   9.550   7.244 -0.4867 -0.3158 -0.7276
  241bbb     H2 6963   6.395   9.483   7.079 -1.2875  2.5473 -0.0269
  241bbb     C2 6964   6.621   9.390   7.330 -0.2450  0.0749  0.3590
  241bbb     H3 6965   6.567   9.448   7.407 -1.0382  1.6381 -1.3008
  241bbb     H4 6966   6.716   9.441   7.312 -0.3832  1.0060  1.9839
  241bbb     C3 6967   6.605   9.309   7.097 -0.1854 -0.0249 -0.1082
  241bbb     H5 6968   6.686   9.243   7.130 -1.1043 -0.2097  1.9693
  241bbb     H6 6969   6.664   9.368   7.026 -0.6830  1.1701  0.4403
  241bbb     C4 6970   6.501   9.225   7.018 -0.1918  0.0966  0.0136
  241bbb     H7 6971   6.538   9.212   6.916 -0.6081 -0.6907 -0.0444
  241bbb     H8 6972   6.402   9.271   7.007 -0.1771  0.2105  0.3319
  241bbb     C5 6973   6.569   9.622   7.100 -0.2913 -0.4864 -0.1416
  241bbb     H9 6974   6.619   9.602   7.004  1.2070  3.0423 -0.2628
  241bbb    H10 6975   6.657   9.624   7.166 -0.2552 -0.3879 -0.1916
  241bbb     C6 6976   6.651   9.250   7.384  0.4422 -0.2474  0.6786
  241bbb    H11 6977   6.723   9.197   7.320 -0.5780  0.5285 -1.1637
  241bbb    H12 6978   6.555   9.198   7.385 -0.2947  0.8289 -2.6770
  241bbb     C7 6979   6.478   9.093   7.096 -0.9488  0.0148 -0.9739
  241bbb    H13 6980   6.384   9.042   7.074 -1.3565  0.7041 -0.8413
  241bbb    H14 6981   6.474   9.121   7.202  0.3763  0.7064 -1.0896
  241bbb     C8 6982   6.729   9.270   7.524  0.5397  0.2016  1.0262
  241bbb    H15 6983   6.801   9.353   7.516 -1.5933  2.2148  1.8034
  241bbb    H16 6984   6.802   9.194   7.555  0.6688  0.8650  2.4140
  241bbb     C9 6985   6.497   9.760   7.088  0.2902 -0.1785  0.4666
  241bbb    H17 6986   6.576   9.835   7.096 -0.4646  0.5314  1.5523
  241bbb    H18 6987   6.443   9.761   7.183 -0.5947 -0.6546 -0.0154
  241bbb     O1 6988   6.589   9.006   7.072  0.3625  0.0663  0.1795
  242bbb     N1 6989   6.972   8.218   6.366 -0.4303 -0.3072  0.3581
  242bbb     C1 6990   7.086   8.267   6.278  0.2445  0.1174  0.0446
  242bbb     H1 6991   7.165   8.191   6.284 -0.8220 -0.9762  0.6579
  242bbb     H2 6992   7.117   8.367   6.312  1.4276 -0.9872  2.3850
  242bbb     C2 6993   7.025   8.158   6.494  0.1791  0.6270  0.4748
  242bbb     H3 6994   7.090   8.074   6.467  1.2530  2.2340 -2.4695
  242bbb     H4 6995   6.943   8.124   6.557  0.5927  0.6937  1.0593
  242bbb     C3 6996   6.872   8.321   6.382  0.2429 -0.0962 -0.0813
  242bbb     H5 6997   6.864   8.366   6.282  0.6381 -0.3640 -0.2373
  242bbb     H6 6998   6.906   8.394   6.455  1.7592 -2.5314  1.8245
  242bbb     C4 6999   6.743   8.252   6.426 -0.2346  0.8546  0.4590
  242bbb     H7 7000   6.736   8.235   6.534  1.8205 -1.8403  0.2615
  242bbb     H8 7001   6.728   8.154   6.378 -0.0251  0.8806  0.3399
  242bbb     C5 7002   7.052   8.273   6.128  0.8770  0.3916 -0.4934
  242bbb     H9 7003   6.957   8.318   6.099 -1.4342 -2.4457  1.9765
  242bbb    H10 7004   7.027   8.171   6.096 -0.7892  0.2056  1.2706
  242bbb     C6 7005   7.125   8.247   6.580 -0.5728  0.0088 -0.6108
  242bbb    H11 7006   7.071   8.340   6.599 -0.6934 -0.3850  1.1618
  242bbb    H12 7007   7.214   8.267   6.519 -1.5092  0.1634 -1.9667
  242bbb     C7 7008   6.626   8.350   6.395 -0.7010 -0.1217  0.0730
  242bbb    H13 7009   6.527   8.303   6.391 -0.8054  0.1338 -0.7017
  242bbb    H14 7010   6.656   8.384   6.295  2.1392 -0.5868  0.6862
  242bbb     C8 7011   7.159   8.176   6.716 -0.4590 -0.8695  1.1687
  242bbb    H15 7012   7.177   8.070   6.696  0.3127 -0.2455 -2.1113
  242bbb    H16 7013   7.065   8.168   6.772 -1.0964  1.6268  0.6272
  242bbb     C9 7014   7.175   8.315   6.044 -0.1968 -0.2887  0.4313
  242bbb    H17 7015   7.247   8.233   6.051  0.1021  0.0336  1.2411
  242bbb    H18 7016   7.225   8.402   6.089  1.5250 -2.0933  2.2068
  242bbb     O1 7017   6.631   8.450   6.502  0.2569 -0.1996 -0.4876
  243bbb     N1 7018   4.519   8.794   8.691 -0.0433  0.3873 -0.2212
  243bbb     C1 7019   4.500   8.678   8.789  0.0932 -0.3263 -0.2252
  243bbb     H1 7020   4.544   8.707   8.885  0.3503 -2.8308  0.4682
  243bbb     H2 7021   4.555   8.591   8.753  3.6005  2.6922 -2.9401
  243bbb     C2 7022   4.434   8.919   8.722 -0.8364  0.3294  0.2510
  243bbb     H3 7023   4.326   8.904   8.705 -0.4705 -0.3851 -1.6060
  243bbb     H4 7024   4.455   8.989   8.640  0.3723 -1.5494 -1.1178
  243bbb     C3 7025   4.664   8.818   8.651  0.1194 -0.2071  0.1366
  243bbb     H5 7026   4.730   8.835   8.737 -0.0482  2.7728 -0.2245
  243bbb     H6 7027   4.668   8.909   8.590  0.2059 -0.6149 -0.4795
  243bbb     C4 7028   4.723   8.708   8.561  0.7905  0.0138  0.4924
  243bbb     H7 7029   4.738   8.619   8.623 -0.3644  0.3435  1.2851
  243bbb     H8 7030   4.819   8.740   8.519 -0.4304 -0.6566 -3.1640
  243bbb     C5 7031   4.351   8.650   8.815 -0.4698 -0.2720  0.2531
  243bbb     H9 7032   4.311   8.637   8.713 -0.0949 -3.0189  0.3840
  243bbb    H10 7033   4.299   8.733   8.865  0.1895  2.1809 -2.8485
  243bbb     C6 7034   4.485   8.981   8.859 -0.1619  0.3067 -0.7910
  243bbb    H11 7035   4.593   8.980   8.875 -0.4921  1.6182  2.1646
  243bbb    H12 7036   4.436   8.917   8.934  0.2793 -0.6702 -1.3213
  243bbb     C7 7037   4.623   8.669   8.444  0.0550  0.0472 -0.0145
  243bbb    H13 7038   4.619   8.751   8.372 -0.0503  1.9992  2.1081
  243bbb    H14 7039   4.528   8.638   8.487  0.7414 -0.8087  0.9417
  243bbb     C8 7040   4.426   9.121   8.884  0.2245  0.6669  0.5077
  243bbb    H15 7041   4.436   9.138   8.992 -2.2863 -2.1339  1.3309
  243bbb    H16 7042   4.317   9.122   8.867  0.1616 -0.8923  0.6396
  243bbb     C9 7043   4.327   8.520   8.901  0.2835 -0.4267  0.0351
  243bbb    H17 7044   4.384   8.438   8.857  1.2340  0.1840  0.0998
  243bbb    H18 7045   4.222   8.486   8.899  0.0557  0.0771  1.6737
  243bbb     O1 7046   4.674   8.554   8.372 -0.5776 -0.0896  0.4031
  244bbb     N1 7047   4.372   7.507   7.604  0.2738 -0.6097 -0.3151
  244bbb     C1 7048   4.391   7.426   7.490  0.1669 -0.2500  0.4501
  244bbb     H1 7049   4.430   7.328   7.520 -0.5946 -0.9910 -0.8827
  244bbb     H2 7050   4.464   7.475   7.424 -0.5407  0.5771  0.2576
  244bbb     C2 7051   4.248   7.491   7.686  0.4034 -0.2000 -0.3464
  244bbb     H3 7052   4.240   7.398   7.743 -1.1003  1.0537  1.6691
  244bbb     H4 7053   4.156   7.508   7.630  1.1726  0.9772 -1.3044
  244bbb     C3 7054   4.498   7.521   7.680 -0.3854 -0.1469 -0.1672
  244bbb     H5 7055   4.525   7.426   7.728 -2.4471 -1.6973 -1.8951
  244bbb     H6 7056   4.480   7.601   7.752  0.9663  0.3341 -0.3447
  244bbb     C4 7057   4.617   7.574   7.594  0.2802 -0.0646  0.8650
  244bbb     H7 7058   4.574   7.654   7.532 -1.4669 -3.1991 -2.3933
  244bbb     H8 7059   4.652   7.488   7.536  0.9190 -0.8124  2.3211
  244bbb     C5 7060   4.271   7.393   7.413  0.5664  0.0833  0.1343
  244bbb     H9 7061   4.219   7.488   7.397 -2.3733 -1.3188  0.6511
  244bbb    H10 7062   4.205   7.325   7.468  2.9145 -1.8104  0.7751
  244bbb     C6 7063   4.227   7.593   7.804 -0.7784  0.0151  0.1091
  244bbb    H11 7064   4.312   7.587   7.874 -0.7834 -2.8817 -0.0188
  244bbb    H12 7065   4.145   7.563   7.870 -0.6061  0.3075  0.4674
  244bbb     C7 7066   4.737   7.638   7.670  0.2208 -0.6637  0.0651
  244bbb    H13 7067   4.816   7.684   7.609 -1.2495 -0.4526 -1.7967
  244bbb    H14 7068   4.779   7.563   7.737  0.9652 -0.4865 -0.1943
  244bbb     C8 7069   4.209   7.738   7.757 -0.0258 -0.1313 -0.1665
  244bbb    H15 7070   4.121   7.758   7.695  0.5658  1.1518 -0.6380
  244bbb    H16 7071   4.298   7.770   7.701  1.4994  0.6020  2.5092
  244bbb     C9 7072   4.294   7.329   7.274  0.8506 -0.3447  0.5011
  244bbb    H17 7073   4.200   7.308   7.220  2.5281 -1.2290 -2.3015
  244bbb    H18 7074   4.333   7.229   7.297 -0.2971 -0.3020  2.9250
  244bbb     O1 7075   4.681   7.748   7.743 -0.1634  0.0332  0.3482
  245bbb     N1 7076   5.754   9.930   8.990 -0.1367  0.0609 -0.1391
  245bbb     C1 7077   5.730   9.815   9.086 -0.4101 -0.3163 -0.0020
  245bbb     H1 7078   5.652   9.742   9.059 -1.2633  0.0127  1.4121
  245bbb     H2 7079   5.698   9.860   9.181 -0.9570  0.5751 -0.5995
  245bbb     C2 7080   5.838  10.033   9.053  0.2674  0.1628  0.5256
  245bbb     H3 7081   5.925   9.988   9.100  1.1230  0.5351 -0.6524
  245bbb     H4 7082   5.783  10.079   9.136 -0.1927 -0.0540  0.3505
  245bbb     C3 7083   5.625   9.984   8.930 -0.5665  0.2255 -0.5904
  245bbb     H5 7084   5.659  10.048   8.848  1.0870 -1.4781 -1.3123
  245bbb     H6 7085   5.570  10.038   9.008 -0.6983 -0.8254  0.0574
  245bbb     C4 7086   5.536   9.869   8.867 -0.9818  0.0087  0.3334
  245bbb     H7 7087   5.488   9.809   8.944 -1.5438 -0.2334 -0.1981
  245bbb     H8 7088   5.594   9.806   8.798  0.4617  0.7010  0.8560
  245bbb     C5 7089   5.859   9.726   9.102  0.8313  0.7696  0.2368
  245bbb     H9 7090   5.839   9.660   9.187 -1.2054  0.8840 -0.1121
  245bbb    H10 7091   5.940   9.792   9.136 -1.5749  1.9407  4.3902
  245bbb     C6 7092   5.888  10.135   8.951 -0.5034 -0.5633 -0.0933
  245bbb    H11 7093   5.808  10.198   8.911  0.8220  1.0139 -0.3433
  245bbb    H12 7094   5.938  10.074   8.874 -0.8820  3.6786 -4.1447
  245bbb     C7 7095   5.441   9.938   8.773  0.0428  1.0422 -0.0294
  245bbb    H13 7096   5.500   9.995   8.700  0.2945 -0.1632 -0.7818
  245bbb    H14 7097   5.377  10.008   8.829 -0.7278 -1.1094  1.9522
  245bbb     C8 7098   5.990  10.241   9.009 -0.2913 -1.0131  0.4252
  245bbb    H15 7099   6.086  10.199   9.042  0.7641  0.6254 -0.4148
  245bbb    H16 7100   5.936  10.279   9.096 -2.4252 -0.5814 -1.0100
  245bbb     C9 7101   5.882   9.658   8.970 -0.1339  0.7272  0.0359
  245bbb    H17 7102   5.893   9.739   8.897  0.5482  0.5701 -0.0394
  245bbb    H18 7103   5.787   9.607   8.947  0.2242 -0.2770  0.7034
  245bbb     O1 7104   5.351   9.846   8.709 -0.5760  0.6523  0.0220
  246bbb     N1 7105   5.252   9.737   7.611  0.6642  0.0999 -0.7166
  246bbb     C1 7106   5.100   9.729   7.576 -0.4294  0.3796  0.2238
  246bbb     H1 7107   5.057   9.824   7.546 -0.7910 -0.6880 -2.9499
  246bbb     H2 7108   5.048   9.696   7.667  0.4936  0.6678  0.8788
  246bbb     C2 7109   5.333   9.802   7.504  0.9089  0.0586 -0.0641
  246bbb     H3 7110   5.312   9.910   7.508 -0.5160 -0.2326  2.3672
  246bbb     H4 7111   5.308   9.755   7.409 -2.3375  1.1341  0.1409
  246bbb     C3 7112   5.294   9.770   7.749 -0.3124  0.0548 -0.1662
  246bbb     H5 7113   5.398   9.747   7.773 -0.5763 -0.4510  0.5419
  246bbb     H6 7114   5.234   9.708   7.818  0.2732  0.2376  0.5170
  246bbb     C4 7115   5.266   9.920   7.784 -0.4163  0.4708 -0.1813
  246bbb     H7 7116   5.169   9.950   7.743 -2.2703 -3.5830  0.6569
  246bbb     H8 7117   5.338   9.987   7.736 -0.8870  1.1262  0.0297
  246bbb     C5 7118   5.075   9.620   7.464 -0.6325 -0.3360  0.1594
  246bbb     H9 7119   5.106   9.661   7.367  0.3901 -1.2297  0.0926
  246bbb    H10 7120   4.967   9.603   7.461 -0.6065 -1.7494  3.4765
  246bbb     C6 7121   5.485   9.792   7.511 -0.6934 -0.2657  0.5269
  246bbb    H11 7122   5.529   9.856   7.588 -0.9149 -0.2374  0.6302
  246bbb    H12 7123   5.515   9.832   7.414 -1.3412 -0.5048  0.2233
  246bbb     C7 7124   5.238   9.955   7.934  0.0850  0.1982  0.2971
  246bbb    H13 7125   5.231  10.064   7.931 -0.7022  0.1340 -0.9080
  246bbb    H14 7126   5.322   9.916   7.993  0.8770  0.6946 -0.4666
  246bbb     C8 7127   5.527   9.643   7.542  0.1697 -0.5146 -0.0202
  246bbb    H15 7128   5.453   9.580   7.491 -0.1858  0.4592 -0.7465
  246bbb    H16 7129   5.518   9.612   7.646  0.7470 -1.0162 -0.1140
  246bbb     C9 7130   5.139   9.483   7.512 -0.2093 -0.0244  0.1280
  246bbb    H17 7131   5.098   9.460   7.610  1.3963 -0.8380  0.6418
  246bbb    H18 7132   5.248   9.490   7.515 -0.1615 -0.3289 -0.5897
  246bbb     O1 7133   5.115   9.884   7.962 -1.0623 -0.3711 -0.1161
  247bbb     N1 7134   5.184   5.427   8.592 -0.2060  0.4344 -0.0215
  247bbb     C1 7135   5.055   5.508   8.592  0.2893 -0.0428  0.0565
  247bbb     H1 7136   5.086   5.602   8.545  1.9182 -0.7281 -0.2853
  247bbb     H2 7137   5.014   5.531   8.691  0.8516 -1.4416  0.6328
  247bbb     C2 7138   5.172   5.300   8.666  0.0750  0.2967 -0.4979
  247bbb     H3 7139   5.264   5.242   8.653  0.0325  0.3050 -0.8574
  247bbb     H4 7140   5.096   5.237   8.618 -1.4046  0.5121  1.4440
  247bbb     C3 7141   5.298   5.511   8.631  0.4707 -0.1894  0.4415
  247bbb     H5 7142   5.291   5.543   8.736  0.0935  0.7549  0.1415
  247bbb     H6 7143   5.302   5.608   8.581  0.6241 -0.2596  0.3164
  247bbb     C4 7144   5.437   5.441   8.613  0.1117 -0.2454  0.5080
  247bbb     H7 7145   5.438   5.379   8.523 -0.0383 -2.3803  1.8906
  247bbb     H8 7146   5.451   5.370   8.696 -1.4010 -0.3447  0.7154
  247bbb     C5 7147   4.937   5.439   8.509  0.0373 -0.6795  0.0262
  247bbb     H9 7148   4.902   5.348   8.560  1.1233 -1.1274 -0.0116
  247bbb    H10 7149   4.975   5.405   8.412 -0.5236  1.9066 -1.1894
  247bbb     C6 7150   5.129   5.304   8.811  0.1831  0.0187 -0.5603
  247bbb    H11 7151   5.023   5.331   8.809  0.3098  0.7454  1.0527
  247bbb    H12 7152   5.175   5.385   8.870 -1.5508 -1.2075  2.7139
  247bbb     C7 7153   5.560   5.535   8.625  0.2084  0.3619  0.0808
  247bbb    H13 7154   5.648   5.473   8.604 -0.7905 -1.9420  2.1779
  247bbb    H14 7155   5.561   5.566   8.730  2.1729 -2.8117  1.1279
  247bbb     C8 7156   5.148   5.169   8.883 -0.5264  0.1703 -0.1990
  247bbb    H15 7157   5.121   5.168   8.990  0.8160  1.3765  0.1850
  247bbb    H16 7158   5.253   5.143   8.869 -0.8010 -0.6147 -0.8441
  247bbb     C9 7159   4.818   5.540   8.483 -0.7579 -0.7048  0.3489
  247bbb    H17 7160   4.820   5.609   8.568 -1.5043  0.6973 -0.7178
  247bbb    H18 7161   4.719   5.492   8.479 -0.8751 -0.4070 -2.8798
  247bbb     O1 7162   5.555   5.646   8.537 -0.0743  0.1212 -0.0122
  248bbb     N1 7163   6.452   5.315   8.140  0.0166 -0.1015 -0.4731
  248bbb     C1 7164   6.478   5.170   8.169  0.2035 -0.3575  0.1917
  248bbb     H1 7165   6.388   5.116   8.139  0.7728 -1.8697  1.1008
  248bbb     H2 7166   6.492   5.152   8.277  2.2854  2.7504  0.5937
  248bbb     C2 7167   6.461   5.347   7.994  0.0113  0.3403  0.2742
  248bbb     H3 7168   6.368   5.315   7.945  1.0556 -0.0158 -1.5622
  248bbb     H4 7169   6.534   5.284   7.942 -1.0560 -0.0193 -0.8336
  248bbb     C3 7170   6.329   5.358   8.204  0.0059  0.4090  1.3469
  248bbb     H5 7171   6.246   5.310   8.152 -0.3017 -1.0130  3.0740
  248bbb     H6 7172   6.314   5.463   8.174 -0.3243 -0.1304 -0.5367
  248bbb     C4 7173   6.313   5.344   8.354 -0.0776  0.4743  0.1650
  248bbb     H7 7174   6.405   5.321   8.408 -0.1103  1.0166  0.4528
  248bbb     H8 7175   6.248   5.256   8.367  2.0837 -1.6941 -2.3900
  248bbb     C5 7176   6.612   5.110   8.104  0.3375  0.2704 -0.0341
  248bbb     H9 7177   6.603   5.097   7.995 -1.4876 -0.8212  0.2105
  248bbb    H10 7178   6.613   5.007   8.143  0.3823  0.4163  0.3533
  248bbb     C6 7179   6.499   5.497   7.971 -0.2968  0.1202  0.0540
  248bbb    H11 7180   6.598   5.522   8.011  0.8819 -0.6470 -2.1922
  248bbb    H12 7181   6.429   5.563   8.025 -2.1757 -0.3560 -1.6620
  248bbb     C7 7182   6.260   5.473   8.414  0.2831 -0.3334 -0.1763
  248bbb    H13 7183   6.329   5.553   8.382  0.8765 -0.1503  1.4940
  248bbb    H14 7184   6.262   5.458   8.522 -2.7122 -1.0159 -0.1335
  248bbb     C8 7185   6.527   5.537   7.820  0.1093 -0.5598  0.5153
  248bbb    H15 7186   6.576   5.633   7.805 -2.0571  0.2209 -2.3770
  248bbb    H16 7187   6.430   5.548   7.770 -0.1703 -1.3366  0.8575
  248bbb     C9 7188   6.742   5.181   8.149 -0.6534 -0.0092  0.1877
  248bbb    H17 7189   6.750   5.172   8.258  1.8163  1.7546  0.2378
  248bbb    H18 7190   6.726   5.288   8.130 -0.6336  0.3570  2.0189
  248bbb     O1 7191   6.121   5.501   8.381  0.0394 -0.2620 -0.2549
  249bbb     N1 7192   5.134   5.685   6.883  0.5050  0.3286 -0.0498
  249bbb     C1 7193   5.239   5.596   6.814  0.1526 -0.2622 -0.2644
  249bbb     H1 7194   5.237   5.501   6.869 -1.5020 -0.2292 -0.2321
  249bbb     H2 7195   5.336   5.642   6.838  0.9250 -1.9331 -0.0193
  249bbb     C2 7196   4.996   5.643   6.842 -0.0617  0.0105  0.2880
  249bbb     H3 7197   4.991   5.651   6.733  0.6461  0.9751  0.3102
  249bbb     H4 7198   4.923   5.715   6.882  0.9213  1.1149  0.1656
  249bbb     C3 7199   5.157   5.831   6.858  0.0318 -0.4488 -0.2142
  249bbb     H5 7200   5.115   5.856   6.760  3.0843  1.3049 -1.1996
  249bbb     H6 7201   5.265   5.849   6.851 -0.0595 -0.5571 -2.5049
  249bbb     C4 7202   5.094   5.926   6.970 -0.0426  0.3233  0.1425
  249bbb     H7 7203   5.079   5.883   7.070 -1.0879  0.2803 -0.0262
  249bbb     H8 7204   4.988   5.937   6.946 -0.5967  0.7274  2.5108
  249bbb     C5 7205   5.221   5.569   6.663  0.7523 -0.1215  0.2770
  249bbb     H9 7206   5.195   5.664   6.615  2.1579 -0.7856 -1.9374
  249bbb    H10 7207   5.136   5.500   6.649  1.0566 -0.5989  0.7298
  249bbb     C6 7208   4.950   5.501   6.888 -0.4581 -0.1794 -0.6862
  249bbb    H11 7209   5.010   5.423   6.840  2.6794  0.6076  1.6810
  249bbb    H12 7210   4.849   5.486   6.848 -0.4241 -1.3427 -0.3712
  249bbb     C7 7211   5.162   6.068   6.982 -0.0491 -0.4312  0.3201
  249bbb    H13 7212   5.125   6.106   7.078 -1.9675  0.7435 -0.8118
  249bbb    H14 7213   5.125   6.124   6.895  0.8578 -0.4814 -0.1004
  249bbb     C8 7214   4.947   5.488   7.038 -0.3333  0.1402  0.1909
  249bbb    H15 7215   4.907   5.580   7.081 -0.3048  0.5430 -0.6265
  249bbb    H16 7216   5.053   5.471   7.063 -0.3366 -1.3673 -0.6708
  249bbb     C9 7217   5.347   5.500   6.607  0.9065  0.1357 -0.5465
  249bbb    H17 7218   5.375   5.419   6.675  1.3943  0.6814 -0.0856
  249bbb    H18 7219   5.439   5.561   6.609 -0.0089  1.6378 -1.7739
  249bbb     O1 7220   5.305   6.066   6.983  0.2405 -0.2427 -0.6910
  250bbb     N1 7221   5.821   5.322   6.204  0.4570 -0.0483 -0.0773
  250bbb     C1 7222   5.953   5.379   6.240 -0.5434 -0.2203 -0.1104
  250bbb     H1 7223   6.018   5.307   6.291 -0.6677  1.0127  1.9027
  250bbb     H2 7224   5.951   5.473   6.296  0.0895 -0.7851  0.8663
  250bbb     C2 7225   5.733   5.411   6.117  0.6859  0.1145  0.3604
  250bbb     H3 7226   5.792   5.434   6.028  1.0246 -1.6299  0.0967
  250bbb     H4 7227   5.703   5.505   6.165 -0.1667  0.1206 -0.1559
  250bbb     C3 7228   5.746   5.268   6.322 -0.2735  0.1193 -0.4930
  250bbb     H5 7229   5.814   5.204   6.380 -0.5962 -1.4689 -1.8039
  250bbb     H6 7230   5.673   5.196   6.283 -0.9575 -0.9614  2.5171
  250bbb     C4 7231   5.677   5.365   6.420  0.7029 -0.3145  0.0196
  250bbb     H7 7232   5.640   5.301   6.502 -1.6245 -1.7753 -2.0339
  250bbb     H8 7233   5.581   5.399   6.381 -1.5787 -2.7867  2.9466
  250bbb     C5 7234   6.043   5.408   6.123  0.0096  0.3234 -0.5114
  250bbb     H9 7235   5.993   5.499   6.088 -1.6515 -0.1098  0.5841
  250bbb    H10 7236   6.034   5.318   6.061 -0.7845 -0.9105  1.2756
  250bbb     C6 7237   5.601   5.339   6.069  0.1228  0.2460 -0.2465
  250bbb    H11 7238   5.545   5.314   6.160  0.8645 -0.9409 -0.1001
  250bbb    H12 7239   5.618   5.241   6.023  0.1593 -0.3800  1.0641
  250bbb     C7 7240   5.760   5.477   6.482 -0.6262  0.6252  0.3977
  250bbb    H13 7241   5.792   5.549   6.406  0.5256  0.1781  0.4362
  250bbb    H14 7242   5.853   5.437   6.524  0.0132 -1.3823 -2.5998
  250bbb     C8 7243   5.513   5.424   5.973 -0.0717  0.4912  0.4604
  250bbb    H15 7244   5.449   5.353   5.921  0.6230  1.0658 -1.2687
  250bbb    H16 7245   5.568   5.473   5.891 -1.4643  2.2409  0.5091
  250bbb     C9 7246   6.190   5.427   6.161  0.3880  0.2444 -0.2005
  250bbb    H17 7247   6.197   5.501   6.242 -0.9357  0.5512 -0.3475
  250bbb    H18 7248   6.251   5.450   6.073 -1.6959 -1.6015 -2.2585
  250bbb     O1 7249   5.684   5.533   6.587 -0.5424 -0.3140  0.1564
  251bbb     N1 7250   5.020   7.388   9.642 -0.1205 -0.1986 -0.5943
  251bbb     C1 7251   5.130   7.434   9.556  0.9731 -0.7472 -0.2557
  251bbb     H1 7252   5.088   7.497   9.476 -1.9950 -0.2728  1.5309
  251bbb     H2 7253   5.176   7.343   9.514 -1.4369 -2.6385  0.9446
  251bbb     C2 7254   4.954   7.486   9.727  0.2187 -0.8670 -0.2787
  251bbb     H3 7255   5.034   7.534   9.786  1.3210 -2.6650 -0.2471
  251bbb     H4 7256   4.890   7.446   9.807 -0.6351  2.3401  0.8284
  251bbb     C3 7257   4.917   7.306   9.569  0.1235 -0.2728  0.4801
  251bbb     H5 7258   4.881   7.356   9.479 -1.7363 -0.3122  1.1567
  251bbb     H6 7259   4.829   7.297   9.634 -0.3703  1.6390  0.1382
  251bbb     C4 7260   4.957   7.159   9.530 -0.3628 -0.4593 -0.6029
  251bbb     H7 7261   5.019   7.111   9.608 -1.3706 -1.2977 -0.2979
  251bbb     H8 7262   5.010   7.151   9.434  1.1127  3.9672 -0.3575
  251bbb     C5 7263   5.240   7.510   9.638 -0.3458 -0.2279  0.2059
  251bbb     H9 7264   5.339   7.476   9.605 -1.1620 -2.7681  0.1678
  251bbb    H10 7265   5.230   7.484   9.745  1.7639 -0.0149  0.5133
  251bbb     C6 7266   4.872   7.600   9.655  0.2268  0.1413  0.2291
  251bbb    H11 7267   4.781   7.549   9.620  0.8775 -2.2809  1.8097
  251bbb    H12 7268   4.927   7.632   9.565  0.2617  2.6078  1.0546
  251bbb     C7 7269   4.833   7.068   9.510 -0.2889  0.1339  0.7527
  251bbb    H13 7270   4.774   7.121   9.434 -0.9148  0.8671  1.7274
  251bbb    H14 7271   4.771   7.054   9.600 -2.6943 -1.8684 -1.0507
  251bbb     C8 7272   4.851   7.726   9.744  0.5410 -0.0780 -0.1944
  251bbb    H15 7273   4.944   7.760   9.793  0.8019 -0.0227 -0.7128
  251bbb    H16 7274   4.792   7.702   9.833 -0.2257  0.0117 -0.6709
  251bbb     C9 7275   5.220   7.665   9.624  0.5916  1.2216 -0.3473
  251bbb    H17 7276   5.128   7.699   9.673  0.5704 -0.7342  1.1073
  251bbb    H18 7277   5.206   7.691   9.518 -1.8728 -1.6008 -0.8718
  251bbb     O1 7278   4.878   6.946   9.455 -0.4235  0.7048 -0.3151
  252bbb     N1 7279   4.488   5.842   8.810 -0.0477 -0.0279  0.7608
  252bbb     C1 7280   4.582   5.731   8.823  0.2348 -0.7321 -0.1097
  252bbb     H1 7281   4.561   5.655   8.746 -2.7212  0.6957 -0.8389
  252bbb     H2 7282   4.579   5.684   8.922 -1.6966 -0.2770  0.0934
  252bbb     C2 7283   4.445   5.869   8.671 -0.6992 -0.4560 -0.4536
  252bbb     H3 7284   4.421   5.774   8.622 -0.7852  0.0638 -1.4509
  252bbb     H4 7285   4.535   5.904   8.618 -0.7466 -0.6418 -0.6576
  252bbb     C3 7286   4.512   5.953   8.904  0.0805  0.3651 -0.7193
  252bbb     H5 7287   4.424   6.018   8.900  0.3515  0.7026 -1.3944
  252bbb     H6 7288   4.592   6.013   8.858 -0.0226  1.2967  0.2760
  252bbb     C4 7289   4.555   5.913   9.053 -0.3949  0.2908  0.1557
  252bbb     H7 7290   4.645   5.851   9.062  0.6428  1.8007  0.6879
  252bbb     H8 7291   4.478   5.851   9.101  2.6919 -3.2594  0.9787
  252bbb     C5 7292   4.727   5.774   8.787 -0.1915  0.0017  0.1887
  252bbb     H9 7293   4.748   5.872   8.832  0.2294 -0.3835  0.8572
  252bbb    H10 7294   4.752   5.781   8.680  1.5745 -2.1140  0.3665
  252bbb     C6 7295   4.332   5.965   8.645  0.0065 -0.3133 -0.4200
  252bbb    H11 7296   4.354   6.065   8.686  1.2588 -0.4697 -0.6698
  252bbb    H12 7297   4.249   5.925   8.704 -0.7546  1.4870 -0.2095
  252bbb     C7 7298   4.566   6.037   9.142  0.1290 -0.5173  0.7609
  252bbb    H13 7299   4.566   6.009   9.248  0.5284 -1.9362  0.4110
  252bbb    H14 7300   4.487   6.106   9.111  1.7814  0.3579 -1.8303
  252bbb     C8 7301   4.287   5.970   8.498 -0.3695  0.4009 -0.6388
  252bbb    H15 7302   4.271   5.870   8.457  1.0493  0.9036 -2.6023
  252bbb    H16 7303   4.372   6.006   8.438 -0.1388  0.5101 -0.2544
  252bbb     C9 7304   4.825   5.684   8.862  0.0716  0.2840  0.2162
  252bbb    H17 7305   4.807   5.582   8.826  3.1592  0.1179 -1.1821
  252bbb    H18 7306   4.811   5.675   8.970  1.5267  0.0281  0.3965
  252bbb     O1 7307   4.691   6.099   9.123 -0.0831  0.2531  0.8416
  253bbb     N1 7308   3.778   7.180   7.482  0.8181 -0.0086 -0.4227
  253bbb     C1 7309   3.684   7.067   7.466 -0.3763  0.2308  0.1925
  253bbb     H1 7310   3.738   6.974   7.443  0.7075  0.8421  0.2093
  253bbb     H2 7311   3.618   7.096   7.383  0.1399 -1.3415 -0.8192
  253bbb     C2 7312   3.895   7.169   7.397  0.2474  0.1590  0.5043
  253bbb     H3 7313   3.961   7.254   7.419 -0.6998  0.3049  3.2682
  253bbb     H4 7314   3.869   7.160   7.291 -0.0501 -2.4122  0.7406
  253bbb     C3 7315   3.721   7.311   7.493  0.6952  0.2099 -0.1430
  253bbb     H5 7316   3.616   7.308   7.526  0.6110 -3.2697 -0.3568
  253bbb     H6 7317   3.711   7.360   7.395 -1.5220 -1.0502 -0.6329
  253bbb     C4 7318   3.811   7.406   7.580 -0.3660  0.4224 -0.0693
  253bbb     H7 7319   3.774   7.509   7.587 -2.9479 -0.4339 -0.1720
  253bbb     H8 7320   3.914   7.403   7.543 -0.4371 -0.1567 -0.2344
  253bbb     C5 7321   3.603   7.052   7.603  0.7444  0.1711 -0.1371
  253bbb     H9 7322   3.507   7.102   7.584  1.0659  1.4420  1.3552
  253bbb    H10 7323   3.655   7.103   7.685  0.2291  0.0360  0.2777
  253bbb     C6 7324   3.975   7.036   7.422 -0.1326  0.3091  0.2850
  253bbb    H11 7325   4.064   7.042   7.358 -0.9577  0.2478 -0.8956
  253bbb    H12 7326   3.924   6.950   7.376 -0.4115  0.5720  0.0975
  253bbb     C7 7327   3.826   7.349   7.725 -0.0804  0.0630 -0.2260
  253bbb    H13 7328   3.877   7.252   7.717  0.9081  0.3157  2.2629
  253bbb    H14 7329   3.730   7.342   7.777 -0.0185  0.6888 -0.0225
  253bbb     C8 7330   4.002   7.015   7.572 -0.1370  0.0141 -0.3371
  253bbb    H15 7331   3.905   7.029   7.622 -0.8149  0.4700 -1.7230
  253bbb    H16 7332   4.078   7.083   7.612 -0.7554  1.0112 -0.8279
  253bbb     C9 7333   3.568   6.911   7.650 -0.1300  0.0927 -0.4741
  253bbb    H17 7334   3.491   6.877   7.579 -0.0146 -1.7043  0.2177
  253bbb    H18 7335   3.530   6.922   7.752 -0.4922 -0.0734 -0.5880
  253bbb     O1 7336   3.906   7.440   7.799  0.2547  0.3240 -0.3098
  254bbb     N1 7337   4.609   7.203   7.898  0.1143 -0.1133  0.3217
  254bbb     C1 7338   4.452   7.214   7.912 -0.5366 -0.0147  0.4562
  254bbb     H1 7339   4.422   7.307   7.862 -2.2108  0.6584  2.5270
  254bbb     H2 7340   4.433   7.226   8.020  0.8851  1.0888  0.6192
  254bbb     C2 7341   4.647   7.167   7.750 -0.7472 -0.2238 -0.1843
  254bbb     H3 7342   4.581   7.222   7.681 -1.4194 -1.1441 -0.3008
  254bbb     H4 7343   4.612   7.065   7.730 -2.2377  0.2112  0.0803
  254bbb     C3 7344   4.694   7.310   7.961  0.4554  0.1779  0.1136
  254bbb     H5 7345   4.675   7.407   7.914  0.1703  1.6143  2.9800
  254bbb     H6 7346   4.799   7.280   7.959 -0.5638 -3.8879 -1.2284
  254bbb     C4 7347   4.658   7.346   8.107  0.5201  1.8190  0.1082
  254bbb     H7 7348   4.752   7.364   8.160  0.1226 -1.2806  2.1092
  254bbb     H8 7349   4.624   7.257   8.161  2.5148  1.6622  1.1946
  254bbb     C5 7350   4.366   7.091   7.869 -0.4664 -1.0088  0.9140
  254bbb     H9 7351   4.374   7.064   7.763 -1.3333  1.9511 -0.0001
  254bbb    H10 7352   4.260   7.109   7.890 -0.6826 -0.2729 -0.6870
  254bbb     C6 7353   4.795   7.179   7.704  0.0227 -0.1347 -0.1220
  254bbb    H11 7354   4.854   7.132   7.784  0.1009  2.0748  1.1973
  254bbb    H12 7355   4.832   7.282   7.702  0.1419 -0.1882 -1.6651
  254bbb     C7 7356   4.562   7.468   8.117  0.6807 -0.4552  0.0270
  254bbb    H13 7357   4.483   7.466   8.042 -0.4133  1.2535  1.0761
  254bbb    H14 7358   4.606   7.568   8.116 -1.2052  0.3912 -0.1672
  254bbb     C8 7359   4.841   7.117   7.567 -0.0124 -0.2304  0.5244
  254bbb    H15 7360   4.799   7.016   7.566 -0.4586 -0.0553 -1.1064
  254bbb    H16 7361   4.946   7.093   7.583 -0.2259 -0.0621  2.5824
  254bbb     C9 7362   4.402   6.969   7.958  0.5922  0.5507  0.0086
  254bbb    H17 7363   4.391   6.986   8.066  1.1045  0.9809 -0.0030
  254bbb    H18 7364   4.509   6.946   7.945  0.1471 -3.1958  1.5501
  254bbb     O1 7365   4.486   7.456   8.243 -0.4244  0.1196  0.3576
  255bbb     N1 7366  10.233   6.227  10.764 -0.1769  0.2893  0.3120
  255bbb     C1 7367  10.154   6.103  10.771  0.5502  0.7041 -0.3577
  255bbb     H1 7368  10.086   6.103  10.857  0.9486 -0.1084 -0.0290
  255bbb     H2 7369  10.216   6.018  10.801  1.2156  2.0064  2.1654
  255bbb     C2 7370  10.160   6.347  10.729 -0.0912 -0.5674 -0.1188
  255bbb     H3 7371  10.121   6.329  10.628 -3.5482 -0.7904  1.1324
  255bbb     H4 7372  10.235   6.427  10.731  0.6732 -1.2863  0.3597
  255bbb     C3 7373  10.361   6.221  10.684  0.1440 -0.3106 -0.3736
  255bbb     H5 7374  10.429   6.301  10.714  0.6054 -0.5361 -0.8150
  255bbb     H6 7375  10.340   6.232  10.577  0.3800  2.1281 -0.2186
  255bbb     C4 7376  10.443   6.094  10.724 -0.3955 -0.7833  0.3944
  255bbb     H7 7377  10.407   6.008  10.665  0.6565 -0.0966 -1.3213
  255bbb     H8 7378  10.423   6.070  10.829 -0.1928 -0.6968  0.4528
  255bbb     C5 7379  10.079   6.061  10.643 -0.2356  0.0363  0.2431
  255bbb     H9 7380  10.151   6.069  10.561 -0.3086  3.1649  0.3459
  255bbb    H10 7381  10.004   6.140  10.629 -0.8785 -0.4233  0.9941
  255bbb     C6 7382  10.034   6.375  10.825 -0.3611  0.0888  0.3891
  255bbb    H11 7383  10.071   6.356  10.927  0.8083  1.2608  0.2187
  255bbb    H12 7384   9.954   6.301  10.816 -0.9113  0.7860 -0.6431
  255bbb     C7 7385  10.598   6.101  10.713  0.9224 -0.0811 -0.4184
  255bbb    H13 7386  10.616   6.119  10.606  0.0866  1.4469 -0.3318
  255bbb    H14 7387  10.655   6.015  10.749  1.5181  0.2231 -0.6109
  255bbb     C8 7388   9.978   6.525  10.811  0.0577 -0.1622 -0.6979
  255bbb    H15 7389   9.910   6.531  10.726 -0.9990  1.9385  0.2080
  255bbb    H16 7390  10.058   6.600  10.804 -0.0411  0.1349  0.9745
  255bbb     C9 7391  10.011   5.921  10.649 -0.1534 -0.6782 -0.0597
  255bbb    H17 7392   9.962   5.900  10.553 -0.7963 -0.2256  0.1601
  255bbb    H18 7393   9.940   5.919  10.733  0.1645 -1.9302  0.2096
  255bbb     O1 7394  10.652   6.223  10.770  0.1120  0.3394  0.7622
  256bbb     N1 7395  10.190   7.301  11.355 -0.1912 -0.0668  0.3128
  256bbb     C1 7396  10.331   7.340  11.322  0.4679 -0.2621 -0.0548
  256bbb     H1 7397  10.350   7.447  11.330  3.4076 -0.7878  1.1288
  256bbb     H2 7398  10.355   7.323  11.216  0.0389 -0.0777 -0.1835
  256bbb     C2 7399  10.094   7.359  11.258 -0.0145 -0.7914 -0.2796
  256bbb     H3 7400   9.999   7.326  11.301  0.0117 -0.1931  0.2570
  256bbb     H4 7401  10.115   7.331  11.154 -1.3062 -0.7494 -0.5668
  256bbb     C3 7402  10.161   7.152  11.361  0.4101  0.0031  1.3995
  256bbb     H5 7403  10.061   7.145  11.405 -1.4696 -0.0837 -2.5047
  256bbb     H6 7404  10.239   7.113  11.427  3.1282 -0.3314 -1.7334
  256bbb     C4 7405  10.182   7.078  11.220 -0.5373  0.1817 -0.8746
  256bbb     H7 7406  10.281   7.104  11.181  0.2153  3.3431  2.5687
  256bbb     H8 7407  10.099   7.111  11.156 -1.0741 -0.9001 -0.7688
  256bbb     C5 7408  10.436   7.281  11.409 -0.2889  0.3612 -0.3327
  256bbb     H9 7409  10.534   7.319  11.381 -0.1941 -0.5223 -1.2305
  256bbb    H10 7410  10.438   7.172  11.407 -0.5243  0.2496  2.2774
  256bbb     C6 7411  10.085   7.516  11.257 -0.1250 -0.0062  0.5516
  256bbb    H11 7412  10.009   7.548  11.185  1.4535 -0.8389 -1.5951
  256bbb    H12 7413  10.172   7.554  11.201 -0.8210  2.0158  0.7366
  256bbb     C7 7414  10.166   6.930  11.239  0.0989 -0.4655  0.2202
  256bbb    H13 7415  10.084   6.917  11.310 -0.1448  0.0871  0.0444
  256bbb    H14 7416  10.251   6.883  11.291  0.6596 -2.8818 -2.5733
  256bbb     C8 7417  10.050   7.581  11.393  0.3795 -0.0299 -0.0129
  256bbb    H15 7418  10.118   7.553  11.473  2.0359  1.6111 -0.7586
  256bbb    H16 7419   9.955   7.541  11.429  0.7708 -1.6069 -0.6524
  256bbb     C9 7420  10.409   7.326  11.553 -0.3661 -1.0534 -0.4700
  256bbb    H17 7421  10.477   7.283  11.628 -0.0441 -0.8024 -0.6160
  256bbb    H18 7422  10.314   7.281  11.583 -0.7458  0.3061  0.4835
  256bbb     O1 7423  10.140   6.860  11.115  0.1092 -0.0297  0.0693
  257bbb     N1 7424  11.371   6.436   9.247  0.1248 -0.0079  0.3686
  257bbb     C1 7425  11.261   6.359   9.187  0.3112 -0.1955  0.0304
  257bbb     H1 7426  11.269   6.338   9.080 -3.3250  5.0828 -1.6469
  257bbb     H2 7427  11.166   6.412   9.196  0.3393  0.1309 -1.4193
  257bbb     C2 7428  11.428   6.533   9.151 -0.5995 -0.0123 -0.0178
  257bbb     H3 7429  11.456   6.478   9.060 -1.1940  0.4198 -0.4742
  257bbb     H4 7430  11.522   6.579   9.185 -0.8587  0.3764  0.1754
  257bbb     C3 7431  11.339   6.504   9.380 -0.3546 -0.0748  0.1137
  257bbb     H5 7432  11.289   6.432   9.444 -1.5864  0.3771 -0.3177
  257bbb     H6 7433  11.265   6.585   9.373 -0.3442  0.0582  1.3206
  257bbb     C4 7434  11.456   6.568   9.455 -0.3887 -0.1680  0.3318
  257bbb     H7 7435  11.492   6.648   9.389  2.2422 -0.6032  1.1271
  257bbb     H8 7436  11.542   6.500   9.458  0.1413  0.4630  3.1279
  257bbb     C5 7437  11.240   6.228   9.268  0.4288  0.2007 -0.7433
  257bbb     H9 7438  11.238   6.242   9.376  3.8814 -3.3737 -0.0278
  257bbb    H10 7439  11.333   6.172   9.260  1.7030  1.7070  2.1399
  257bbb     C6 7440  11.321   6.638   9.104  0.1637 -0.3749 -0.1344
  257bbb    H11 7441  11.286   6.699   9.188  1.4260 -1.8477  1.5186
  257bbb    H12 7442  11.226   6.597   9.068  0.3921 -1.3429  0.3318
  257bbb     C7 7443  11.432   6.619   9.600  0.9632 -0.5549  0.5686
  257bbb    H13 7444  11.523   6.653   9.652 -0.2208  0.6296  1.9790
  257bbb    H14 7445  11.390   6.534   9.654 -1.0255 -1.1542 -1.7672
  257bbb     C8 7446  11.371   6.742   9.001 -0.2927 -0.5487  0.0314
  257bbb    H15 7447  11.411   6.691   8.913 -1.3181 -0.7493 -0.3286
  257bbb    H16 7448  11.463   6.789   9.037  0.5697 -0.1303 -2.5395
  257bbb     C9 7449  11.120   6.142   9.223 -0.4406  0.1594  0.2119
  257bbb    H17 7450  11.135   6.042   9.265  0.1477  0.2499  0.2222
  257bbb    H18 7451  11.129   6.124   9.115  0.6476 -1.4366  0.5357
  257bbb     O1 7452  11.335   6.727   9.611  0.4124 -0.3542  0.0644
  258bbb     N1 7453  11.738   7.409   9.337 -0.1661 -0.1165  0.2868
  258bbb     C1 7454  11.864   7.338   9.314  0.1549 -0.0590  0.2683
  258bbb     H1 7455  11.942   7.368   9.384  2.1986 -1.7516 -1.1401
  258bbb     H2 7456  11.895   7.367   9.212 -0.0263 -0.3222  0.1354
  258bbb     C2 7457  11.764   7.555   9.324 -0.2736  0.5362  0.3487
  258bbb     H3 7458  11.854   7.582   9.380  0.8374 -1.5665 -0.3139
  258bbb     H4 7459  11.678   7.610   9.365 -0.7321 -1.1310  1.7260
  258bbb     C3 7460  11.677   7.380   9.464 -0.6065  0.0442  0.5038
  258bbb     H5 7461  11.650   7.274   9.465  0.8115 -0.3994  3.4829
  258bbb     H6 7462  11.579   7.429   9.472 -0.6903 -0.2805  1.7593
  258bbb     C4 7463  11.762   7.414   9.595 -0.1347 -0.6310 -0.0826
  258bbb     H7 7464  11.772   7.522   9.604  0.1799 -0.7059  0.4731
  258bbb     H8 7465  11.863   7.372   9.587  0.6422  1.2542 -0.5987
  258bbb     C5 7466  11.850   7.182   9.316 -0.2563 -0.4098 -0.0335
  258bbb     H9 7467  11.804   7.149   9.411 -0.6902  0.3367  0.0183
  258bbb    H10 7468  11.952   7.144   9.304  0.7283  2.4840 -1.5388
  258bbb     C6 7469  11.791   7.604   9.174 -0.2180 -0.4207 -0.8197
  258bbb    H11 7470  11.881   7.557   9.133  1.1618  2.3047 -1.1363
  258bbb    H12 7471  11.813   7.711   9.170  0.7978 -0.5774  0.1097
  258bbb     C7 7472  11.697   7.353   9.720 -0.7469 -0.0367  0.6563
  258bbb    H13 7473  11.769   7.346   9.802  0.1670  1.2627  0.0023
  258bbb    H14 7474  11.657   7.253   9.698 -2.9433  1.1068 -0.9174
  258bbb     C8 7475  11.663   7.586   9.088  0.2818 -0.1895  0.1880
  258bbb    H15 7476  11.644   7.478   9.081 -0.4556 -0.1396  1.1851
  258bbb    H16 7477  11.699   7.619   8.990  0.7330  0.8799  0.7050
  258bbb     C9 7478  11.755   7.133   9.197 -0.4400  0.7354  0.5173
  258bbb    H17 7479  11.807   7.144   9.101  0.5350  0.3980  0.9967
  258bbb    H18 7480  11.674   7.206   9.182  0.3949  1.8308  1.1532
  258bbb     O1 7481  11.592   7.441   9.760 -0.0471  0.3735  0.2367
  259bbb     N1 7482   9.043   5.753  10.342  0.5621 -0.3974  0.3707
  259bbb     C1 7483   8.994   5.874  10.274 -0.2745  0.0277 -0.6052
  259bbb     H1 7484   8.993   5.869  10.164 -1.8104 -1.2092 -0.5773
  259bbb     H2 7485   9.066   5.952  10.300 -0.7776  0.4997 -0.5910
  259bbb     C2 7486   8.948   5.629  10.328 -0.4110  0.0313 -0.3901
  259bbb     H3 7487   8.855   5.642  10.384 -0.9615  1.9412 -1.6348
  259bbb     H4 7488   8.996   5.542  10.374 -0.2244 -0.4615 -1.4746
  259bbb     C3 7489   9.095   5.781  10.478 -0.4431  0.2281 -0.1801
  259bbb     H5 7490   9.016   5.830  10.537 -0.9667  0.7392 -1.2832
  259bbb     H6 7491   9.181   5.848  10.470 -1.2119  1.5556  1.7534
  259bbb     C4 7492   9.157   5.654  10.554 -0.1466 -0.4770 -0.3132
  259bbb     H7 7493   9.098   5.562  10.547  0.3728 -0.9859  1.4882
  259bbb     H8 7494   9.161   5.688  10.658 -1.0345  1.2023 -0.7898
  259bbb     C5 7495   8.855   5.913  10.323 -0.2168 -0.0601  0.0639
  259bbb     H9 7496   8.861   5.920  10.433 -0.9718  2.4044  0.0106
  259bbb    H10 7497   8.779   5.837  10.299 -1.1934  1.4004 -1.6479
  259bbb     C6 7498   8.915   5.597  10.180 -0.7798  0.5803 -0.1186
  259bbb    H11 7499   8.863   5.678  10.127  0.5444  1.5183 -0.0378
  259bbb    H12 7500   8.846   5.512  10.177 -2.5694  1.9836 -1.1215
  259bbb     C7 7501   9.305   5.622  10.507 -0.2206 -0.2816 -0.1907
  259bbb    H13 7502   9.336   5.535  10.566 -0.0523  0.1750  0.4001
  259bbb    H14 7503   9.366   5.711  10.525 -1.6245  0.7634 -0.4399
  259bbb     C8 7504   9.047   5.572  10.099 -0.2392  0.0221  0.3097
  259bbb    H15 7505   9.126   5.530  10.162  2.3242  1.1720 -1.9589
  259bbb    H16 7506   9.091   5.671  10.085  1.4080 -0.2558  2.9216
  259bbb     C9 7507   8.807   6.063  10.294 -0.0384 -0.2490  0.0018
  259bbb    H17 7508   8.718   6.094  10.351  0.2844  3.2169 -1.1154
  259bbb    H18 7509   8.784   6.065  10.187 -2.5812  1.4727  0.4765
  259bbb     O1 7510   9.302   5.581  10.377  0.0641  0.7030  0.2243
  260bbb     N1 7511   8.585   4.810  10.176 -0.0847 -0.1949 -0.0033
  260bbb     C1 7512   8.475   4.782  10.074  0.2048 -0.1430  0.2703
  260bbb     H1 7513   8.407   4.868  10.068  1.5946  1.0721  1.1845
  260bbb     H2 7514   8.408   4.699  10.099 -1.4699  0.7630 -1.0978
  260bbb     C2 7515   8.532   4.848  10.314  0.1317  0.7286  0.1554
  260bbb     H3 7516   8.492   4.950  10.320 -1.5222  0.1317 -0.0126
  260bbb     H4 7517   8.607   4.833  10.392  1.0003 -2.0047 -1.0622
  260bbb     C3 7518   8.703   4.895  10.135 -0.2874 -1.1312 -0.2042
  260bbb     H5 7519   8.734   4.882  10.031 -2.1095  0.5545 -1.0172
  260bbb     H6 7520   8.789   4.870  10.198 -0.5595 -1.5158  0.0189
  260bbb     C4 7521   8.683   5.051  10.152 -0.0413  1.4687  0.1380
  260bbb     H7 7522   8.653   5.077  10.254  0.2647 -1.3736  1.0518
  260bbb     H8 7523   8.599   5.077  10.086 -1.5161  0.4149  1.5403
  260bbb     C5 7524   8.529   4.755   9.927 -0.7401 -0.4294  0.1183
  260bbb     H9 7525   8.617   4.690   9.931 -0.9682 -0.9853 -2.1618
  260bbb    H10 7526   8.563   4.851   9.889  0.0454 -0.9182 -0.4379
  260bbb     C6 7527   8.402   4.762  10.355 -0.5398 -0.3070  0.0525
  260bbb    H11 7528   8.400   4.745  10.464  1.0858  0.2989  0.2135
  260bbb    H12 7529   8.401   4.664  10.307  1.2874  0.2928 -1.3086
  260bbb     C7 7530   8.809   5.131  10.107  0.0495 -0.5726 -0.3325
  260bbb    H13 7531   8.807   5.234  10.144  1.5932  0.0973 -1.9317
  260bbb    H14 7532   8.787   5.127   9.999 -2.8298 -3.0765  0.2064
  260bbb     C8 7533   8.275   4.842  10.317 -0.2114 -0.5660  0.2594
  260bbb    H15 7534   8.274   4.875  10.212 -0.0107 -1.9008 -0.1835
  260bbb    H16 7535   8.268   4.932  10.378 -2.1912  1.1060 -2.2091
  260bbb     C9 7536   8.432   4.704   9.820 -0.4178  0.0001 -0.7437
  260bbb    H17 7537   8.478   4.683   9.722 -2.6316 -0.2570 -1.8007
  260bbb    H18 7538   8.365   4.788   9.800 -0.0215  1.2887  2.7188
  260bbb     O1 7539   8.929   5.077  10.156 -0.7593  0.3858 -0.0796
  261bbb     N1 7540   9.057   5.717   8.641 -0.1154  0.1379 -0.1645
  261bbb     C1 7541   9.112   5.624   8.537 -0.1780 -0.2848 -0.2724
  261bbb     H1 7542   9.058   5.529   8.548  0.7634 -0.8335 -0.2490
  261bbb     H2 7543   9.211   5.595   8.574 -0.6777  2.1527  3.4835
  261bbb     C2 7544   9.141   5.837   8.661 -0.1048 -0.1753 -0.2677
  261bbb     H3 7545   9.145   5.891   8.566 -0.5977  1.1003  0.4082
  261bbb     H4 7546   9.244   5.803   8.678 -1.1190 -2.8264  1.2432
  261bbb     C3 7547   9.032   5.636   8.761  0.1381 -0.3874 -0.2372
  261bbb     H5 7548   8.959   5.557   8.738 -2.3627  1.2945  1.3052
  261bbb     H6 7549   8.981   5.702   8.832 -0.0026 -1.2494  0.4736
  261bbb     C4 7550   9.149   5.574   8.830 -0.2508  0.6273  0.0363
  261bbb     H7 7551   9.230   5.647   8.842  1.7294 -1.1106 -1.8663
  261bbb     H8 7552   9.186   5.489   8.771 -2.6603 -1.0731  0.8404
  261bbb     C5 7553   9.110   5.660   8.383  0.4528  0.4773 -0.1057
  261bbb     H9 7554   9.184   5.592   8.339 -0.8377 -2.2028  1.6234
  261bbb    H10 7555   9.156   5.760   8.374  0.8910  0.5038  1.9380
  261bbb     C6 7556   9.084   5.938   8.773 -0.1083  0.6160  0.6222
  261bbb    H11 7557   9.091   5.883   8.868 -0.7548  2.2735  1.6689
  261bbb    H12 7558   8.976   5.953   8.764 -0.4110 -1.4941  0.0682
  261bbb     C7 7559   9.109   5.509   8.969 -0.2292 -0.1045  0.6362
  261bbb    H13 7560   9.064   5.409   8.961  0.1918 -0.1913 -1.2630
  261bbb    H14 7561   9.037   5.572   9.023 -0.3572 -1.4653  2.1133
  261bbb     C8 7562   9.177   6.059   8.785  0.1020  0.4493 -0.6556
  261bbb    H15 7563   9.137   6.137   8.851  0.9405 -0.3360  0.8349
  261bbb    H16 7564   9.279   6.035   8.819  0.2424  2.4425  0.4374
  261bbb     C9 7565   8.973   5.639   8.312  0.8450  0.1190  0.2062
  261bbb    H17 7566   8.927   5.547   8.352 -0.3018  0.9784  0.9424
  261bbb    H18 7567   8.992   5.621   8.205  1.1644 -0.1946  0.3154
  261bbb     O1 7568   9.231   5.499   9.042 -0.5716  0.1183  0.3415
  262bbb     N1 7569   9.535   4.855   8.325  0.4424  0.2328 -0.2966
  262bbb     C1 7570   9.470   4.727   8.285 -0.0564 -1.1658  0.0929
  262bbb     H1 7571   9.393   4.713   8.361 -0.4231  1.6220  0.3361
  262bbb     H2 7572   9.540   4.643   8.289  1.9682  0.2625 -2.3998
  262bbb     C2 7573   9.630   4.914   8.221  0.0865  0.3952 -0.9910
  262bbb     H3 7574   9.658   5.015   8.254 -2.2714 -0.0363  3.1434
  262bbb     H4 7575   9.573   4.925   8.128 -0.4820  0.9037 -0.5915
  262bbb     C3 7576   9.589   4.824   8.458 -0.2742 -0.3645  0.2154
  262bbb     H5 7577   9.655   4.736   8.458 -0.3954 -0.4541 -0.0085
  262bbb     H6 7578   9.503   4.801   8.522 -0.8429 -1.8455 -1.0294
  262bbb     C4 7579   9.658   4.938   8.537 -0.0440  0.1904  0.1393
  262bbb     H7 7580   9.601   5.031   8.522  2.4420  1.8060  0.2150
  262bbb     H8 7581   9.761   4.947   8.502  1.4638 -2.6871  3.2595
  262bbb     C5 7582   9.390   4.740   8.157  0.4418  0.2077  0.8633
  262bbb     H9 7583   9.444   4.780   8.070  0.2085 -1.3366 -0.0208
  262bbb    H10 7584   9.293   4.791   8.168  0.0277 -0.2587 -0.4951
  262bbb     C6 7585   9.747   4.822   8.187 -0.7432  0.1062  0.2618
  262bbb    H11 7586   9.720   4.725   8.144  2.2504 -0.6825 -0.0324
  262bbb    H12 7587   9.818   4.801   8.268 -0.3975  0.7195  0.1269
  262bbb     C7 7588   9.649   4.917   8.690  0.0333 -1.1975  0.5568
  262bbb    H13 7589   9.733   4.854   8.722  1.5156  1.2041  1.6848
  262bbb    H14 7590   9.561   4.862   8.724  0.6619 -1.3808  1.9269
  262bbb     C8 7591   9.836   4.883   8.065  0.1798 -0.2464  0.4614
  262bbb    H15 7592   9.892   4.963   8.114 -0.9329  0.8576 -0.0377
  262bbb    H16 7593   9.767   4.926   7.992 -0.3293 -0.8152  0.5913
  262bbb     C9 7594   9.351   4.600   8.109 -0.4591 -0.3992  0.3842
  262bbb    H17 7595   9.447   4.547   8.104 -0.7343 -0.8776  0.0482
  262bbb    H18 7596   9.308   4.612   8.009  0.4948 -1.1827 -0.1344
  262bbb     O1 7597   9.647   5.045   8.757  0.8506  0.1282  0.5973
  263bbb     N1 7598   7.505   8.535  10.684 -0.3338 -0.5021  0.6927
  263bbb     C1 7599   7.380   8.578  10.603 -0.2473 -0.0736  0.5502
  263bbb     H1 7600   7.398   8.611  10.500 -0.3601 -1.5671  0.0330
  263bbb     H2 7601   7.331   8.668  10.642  0.1913 -0.1400  1.2670
  263bbb     C2 7602   7.474   8.490  10.822 -0.6460 -0.2225  0.1352
  263bbb     H3 7603   7.572   8.473  10.868 -0.8969 -0.1197  0.7257
  263bbb     H4 7604   7.417   8.396  10.819  0.6022 -0.9892 -0.0415
  263bbb     C3 7605   7.591   8.451  10.603  0.3924  0.0610  0.3246
  263bbb     H5 7606   7.609   8.513  10.514  1.7957 -0.4056  0.2502
  263bbb     H6 7607   7.550   8.359  10.560 -0.2001  1.1717 -1.6061
  263bbb     C4 7608   7.727   8.430  10.664  0.5524 -0.3864 -0.4307
  263bbb     H7 7609   7.725   8.369  10.755  2.4047 -1.4348 -1.0278
  263bbb     H8 7610   7.781   8.522  10.689  2.3871 -1.2967 -0.8507
  263bbb     C5 7611   7.271   8.476  10.592  1.2134 -0.2075 -0.1272
  263bbb     H9 7612   7.219   8.463  10.688  2.4231  0.4279  0.6333
  263bbb    H10 7613   7.314   8.379  10.564  3.1943 -0.0978  2.1362
  263bbb     C6 7614   7.395   8.591  10.904 -0.0459  0.7773 -0.2976
  263bbb    H11 7615   7.349   8.535  10.986  2.7236 -0.9272  0.2138
  263bbb    H12 7616   7.315   8.630  10.840  0.0938  0.6373 -0.5557
  263bbb     C7 7617   7.819   8.364  10.556  0.0056 -0.1691 -0.2282
  263bbb    H13 7618   7.923   8.386  10.584 -0.6111  3.7891 -0.4868
  263bbb    H14 7619   7.815   8.412  10.458 -0.8888 -0.5152 -0.3720
  263bbb     C8 7620   7.488   8.695  10.965  0.4677  0.3010 -0.1136
  263bbb    H15 7621   7.551   8.748  10.892  2.2914 -1.7565 -0.1156
  263bbb    H16 7622   7.564   8.650  11.029  3.2953  2.5057 -1.6726
  263bbb     C9 7623   7.173   8.511  10.483 -0.3755  0.5933 -0.3605
  263bbb    H17 7624   7.174   8.621  10.479 -0.8041  0.5808 -0.8865
  263bbb    H18 7625   7.219   8.480  10.388 -0.5875 -0.1308 -0.2262
  263bbb     O1 7626   7.789   8.230  10.538 -0.0222  0.5779  0.4886
  264bbb     N1 7627   8.129   8.713  10.354  0.3207 -0.1214 -0.2101
  264bbb     C1 7628   7.988   8.760  10.348  0.5174  0.2365 -0.5220
  264bbb     H1 7629   7.958   8.815  10.438  0.0647 -0.2323 -0.3763
  264bbb     H2 7630   7.921   8.673  10.338  1.6594 -0.9799  1.6846
  264bbb     C2 7631   8.217   8.825  10.404 -0.4876  0.7851  0.3788
  264bbb     H3 7632   8.213   8.840  10.513  0.6779  1.5489  0.3328
  264bbb     H4 7633   8.198   8.920  10.352  1.1754  0.0408 -1.7161
  264bbb     C3 7634   8.152   8.586  10.426  0.6521 -0.4956  0.2948
  264bbb     H5 7635   8.097   8.589  10.521 -0.0641  1.2310 -0.1351
  264bbb     H6 7636   8.258   8.566  10.448  0.1696 -2.5264  1.0317
  264bbb     C4 7637   8.103   8.467  10.351  0.2670  0.0842  0.1131
  264bbb     H7 7638   7.997   8.468  10.323 -0.1334 -0.3102  1.5585
  264bbb     H8 7639   8.106   8.383  10.422 -2.8725 -0.3577 -0.1290
  264bbb     C5 7640   7.973   8.840  10.221 -0.0799 -0.0128 -0.6701
  264bbb     H9 7641   8.001   8.770  10.141 -1.4822 -2.4495  0.8587
  264bbb    H10 7642   8.046   8.922  10.224  1.4740 -1.3800  0.8776
  264bbb     C6 7643   8.369   8.793  10.383  0.2751 -0.2293 -0.4054
  264bbb    H11 7644   8.374   8.726  10.296  0.9498 -1.7783  0.7760
  264bbb    H12 7645   8.411   8.734  10.465 -0.8882 -0.6417 -0.0910
  264bbb     C7 7646   8.199   8.444  10.229  0.0411 -0.3219 -0.7735
  264bbb    H13 7647   8.295   8.404  10.265  0.5299 -0.4959 -2.2090
  264bbb    H14 7648   8.215   8.535  10.170 -2.1901  1.1028  0.6690
  264bbb     C8 7649   8.457   8.929  10.367 -0.0338  0.7348 -0.7252
  264bbb    H15 7650   8.421   9.001  10.441 -0.4857  0.2211 -0.4449
  264bbb    H16 7651   8.445   8.960  10.262 -0.3739 -1.2205 -1.3132
  264bbb     C9 7652   7.833   8.899  10.199 -0.3288 -1.0110 -0.2212
  264bbb    H17 7653   7.833   8.992  10.257 -1.5112 -0.1241 -1.5732
  264bbb    H18 7654   7.753   8.842  10.248 -0.5739 -0.8631 -0.4435
  264bbb     O1 7655   8.131   8.330  10.162  0.5523 -0.2884 -0.0395
  265bbb     N1 7656   8.694   8.006  12.286 -0.3631 -0.1078  0.2440
  265bbb     C1 7657   8.808   8.041  12.380  0.1238  0.6720  0.0934
  265bbb     H1 7658   8.791   8.146  12.408  0.6911  0.4872  1.1789
  265bbb     H2 7659   8.908   8.032  12.337  0.4611  0.2403  0.9525
  265bbb     C2 7660   8.702   7.863  12.245 -0.1814 -0.0531  0.1596
  265bbb     H3 7661   8.683   7.795  12.329 -0.8677  0.9178  0.8058
  265bbb     H4 7662   8.796   7.841  12.193 -0.4204 -0.0045 -0.2948
  265bbb     C3 7663   8.692   8.100  12.174 -0.9395  0.0984  0.0196
  265bbb     H5 7664   8.682   8.195  12.228 -1.5799 -0.7322  1.4263
  265bbb     H6 7665   8.601   8.091  12.114  0.7906  0.6598 -2.8739
  265bbb     C4 7666   8.816   8.106  12.074 -0.0896 -0.2783 -0.6500
  265bbb     H7 7667   8.832   8.007  12.028  1.5055  0.0437 -0.8198
  265bbb     H8 7668   8.909   8.129  12.126 -2.0528  0.4158  2.8825
  265bbb     C5 7669   8.814   7.974  12.516  0.0552 -0.2254  0.1242
  265bbb     H9 7670   8.909   7.999  12.566  0.8619 -1.5810 -0.6357
  265bbb    H10 7671   8.813   7.864  12.509 -2.8373 -0.2101 -0.9334
  265bbb     C6 7672   8.586   7.809  12.158 -0.0022 -0.0010  0.1811
  265bbb    H11 7673   8.564   7.881  12.078 -0.1524 -1.4507 -1.1237
  265bbb    H12 7674   8.494   7.812  12.218 -0.4262 -1.4476 -0.3534
  265bbb     C7 7675   8.796   8.194  11.950 -0.0959  0.1626  1.0242
  265bbb    H13 7676   8.895   8.212  11.906  0.1308 -2.6072  0.1943
  265bbb    H14 7677   8.745   8.286  11.979 -2.0570 -0.7017  0.5010
  265bbb     C8 7678   8.604   7.659  12.112  0.1475  0.1991 -0.1211
  265bbb    H15 7679   8.520   7.632  12.048 -0.5483 -0.7415  1.1364
  265bbb    H16 7680   8.600   7.590  12.198 -0.3806  3.5764  2.8335
  265bbb     C9 7681   8.700   8.002  12.622 -0.4038 -0.4807  0.7891
  265bbb    H17 7682   8.727   7.929  12.701 -0.0703 -0.1675  0.9680
  265bbb    H18 7683   8.603   7.972  12.581 -0.1102 -2.1962  1.2401
  265bbb     O1 7684   8.714   8.127  11.852  0.3952  0.7413 -0.1044
  266bbb     N1 7685   9.260   8.840  11.260  0.2575  0.2673 -0.7674
  266bbb     C1 7686   9.205   8.973  11.276  0.7144  0.5921 -0.3599
  266bbb     H1 7687   9.172   8.983  11.172  1.0147 -0.2230 -0.5474
  266bbb     H2 7688   9.286   9.043  11.298  2.3933 -1.2630 -0.2623
  266bbb     C2 7689   9.370   8.800  11.362 -0.0308  0.3995  0.1547
  266bbb     H3 7690   9.421   8.707  11.337  1.6199  1.1538  0.5532
  266bbb     H4 7691   9.323   8.771  11.457 -0.2735  0.5963  0.0941
  266bbb     C3 7692   9.166   8.730  11.232 -0.5606  0.4729 -0.0910
  266bbb     H5 7693   9.101   8.737  11.144 -0.1932 -3.4955 -0.9037
  266bbb     H6 7694   9.106   8.701  11.319 -0.5595  0.9498  0.0667
  266bbb     C4 7695   9.241   8.611  11.171 -0.2622  0.5525  0.2367
  266bbb     H7 7696   9.316   8.563  11.237  0.7051  0.9441 -0.5495
  266bbb     H8 7697   9.305   8.639  11.087  0.9284 -1.1569  0.5009
  266bbb     C5 7698   9.088   8.993  11.377 -0.3968  0.4342 -0.1161
  266bbb     H9 7699   9.008   8.921  11.360  0.3467 -0.1864 -1.1113
  266bbb    H10 7700   9.061   9.099  11.364  0.2896  0.4465 -1.6412
  266bbb     C6 7701   9.477   8.906  11.391 -0.4965  0.1705  0.7084
  266bbb    H11 7702   9.541   8.857  11.466 -3.2768 -1.2502  2.2998
  266bbb    H12 7703   9.435   8.989  11.450  1.6466  1.3063  0.7648
  266bbb     C7 7704   9.150   8.491  11.127 -0.0968 -0.0119  0.0548
  266bbb    H13 7705   9.213   8.410  11.088 -0.8688 -0.1929 -0.8569
  266bbb    H14 7706   9.087   8.521  11.042 -0.8053 -0.2034  0.5075
  266bbb     C8 7707   9.565   8.942  11.272 -0.0813 -0.1238 -0.0148
  266bbb    H15 7708   9.505   8.954  11.182 -0.6305 -5.0636 -0.5981
  266bbb    H16 7709   9.634   8.859  11.250 -1.9612 -1.5976 -0.5885
  266bbb     C9 7710   9.129   8.968  11.526  0.1906 -0.4815  0.4990
  266bbb    H17 7711   9.160   8.863  11.526 -0.7989 -0.8614 -2.0305
  266bbb    H18 7712   9.033   8.986  11.576  0.3338 -0.9870  0.9581
  266bbb     O1 7713   9.064   8.443  11.222  0.1220  0.3066  0.0567
  267bbb     N1 7714   7.818   5.556   9.431  0.5763  0.1729 -0.4559
  267bbb     C1 7715   7.838   5.553   9.283  0.8285  0.4394 -0.0483
  267bbb     H1 7716   7.817   5.653   9.243 -1.7708  0.3059  0.8050
  267bbb     H2 7717   7.762   5.497   9.227 -0.7242  2.5423 -0.1945
  267bbb     C2 7718   7.817   5.425   9.499 -0.3300 -0.7479  0.0816
  267bbb     H3 7719   7.791   5.435   9.605 -0.2761 -2.5892  0.3015
  267bbb     H4 7720   7.920   5.388   9.493 -0.6892 -1.6062 -3.9259
  267bbb     C3 7721   7.911   5.650   9.493 -0.2656  0.7607  0.3526
  267bbb     H5 7722   7.925   5.737   9.428 -0.4886  0.3379 -0.2733
  267bbb     H6 7723   8.009   5.601   9.507  0.4683  1.6846 -1.2338
  267bbb     C4 7724   7.870   5.694   9.632  0.1492 -0.5323  0.3527
  267bbb     H7 7725   7.893   5.616   9.705 -1.0084 -0.1004  1.2114
  267bbb     H8 7726   7.765   5.725   9.640 -0.5405 -2.0683 -1.9100
  267bbb     C5 7727   7.975   5.496   9.239  0.1985 -0.0025 -0.3418
  267bbb     H9 7728   7.988   5.393   9.275  1.0201  0.3784  0.4914
  267bbb    H10 7729   8.064   5.552   9.270  0.4250 -0.4293 -0.2043
  267bbb     C6 7730   7.740   5.303   9.435 -0.2726 -1.2430 -0.1460
  267bbb    H11 7731   7.768   5.213   9.491  0.1539 -0.1927  1.3912
  267bbb    H12 7732   7.776   5.297   9.331 -0.7276 -1.0916 -0.3159
  267bbb     C7 7733   7.963   5.814   9.681  0.5287  0.3849  0.9421
  267bbb    H13 7734   7.957   5.902   9.616  2.1835  0.8588  1.3812
  267bbb    H14 7735   8.065   5.773   9.680  1.2457  2.0977 -0.7728
  267bbb     C8 7736   7.587   5.331   9.427  0.2187 -0.4571 -0.6697
  267bbb    H15 7737   7.557   5.409   9.356 -1.1914 -0.5114 -0.1622
  267bbb    H16 7738   7.559   5.364   9.528  0.0930 -0.7348 -0.6105
  267bbb     C9 7739   7.989   5.486   9.081  0.0795 -0.3879 -0.5485
  267bbb    H17 7740   8.083   5.436   9.055  0.5143 -0.8921  1.7460
  267bbb    H18 7741   8.004   5.591   9.055 -1.2695 -0.4147 -1.5435
  267bbb     O1 7742   7.930   5.838   9.817  0.2571 -0.4377  0.0532
  268bbb     N1 7743   7.438   6.761  10.296  0.2431  0.1860  0.2837
  268bbb     C1 7744   7.485   6.884  10.221  0.8255 -0.3076 -0.1919
  268bbb     H1 7745   7.558   6.929  10.290 -1.8948  2.6524  0.9804
  268bbb     H2 7746   7.399   6.951  10.220  0.9370 -0.1764 -1.2867
  268bbb     C2 7747   7.386   6.789  10.431  0.7679  0.2797 -0.5184
  268bbb     H3 7748   7.469   6.803  10.502 -0.1635 -3.1371  1.4542
  268bbb     H4 7749   7.339   6.694  10.460 -0.7457  0.9135 -0.7936
  268bbb     C3 7750   7.544   6.655  10.304 -0.1855  0.1668  0.1364
  268bbb     H5 7751   7.631   6.699  10.356 -0.7356  1.6417 -0.1555
  268bbb     H6 7752   7.568   6.641  10.198 -2.8162  1.3125 -0.6862
  268bbb     C4 7753   7.510   6.527  10.369  0.1095 -0.3440 -0.1173
  268bbb     H7 7754   7.418   6.492  10.320 -0.4606  1.6774 -0.6210
  268bbb     H8 7755   7.492   6.547  10.475 -0.5612  2.8438 -0.7086
  268bbb     C5 7756   7.534   6.874  10.076  0.4164 -0.9369  0.6884
  268bbb     H9 7757   7.615   6.801  10.069  0.5529 -0.6299 -1.5768
  268bbb    H10 7758   7.568   6.970  10.037 -0.3951 -1.2785 -0.9534
  268bbb     C6 7759   7.276   6.898  10.435  0.1836 -0.1647 -0.0449
  268bbb    H11 7760   7.216   6.906  10.343 -0.5426  0.4264  0.4663
  268bbb    H12 7761   7.334   6.990  10.446 -0.5833  0.5649 -1.6667
  268bbb     C7 7762   7.615   6.416  10.363 -0.1923  0.2540 -0.1850
  268bbb    H13 7763   7.622   6.362  10.458  2.1927  1.1151  0.2081
  268bbb    H14 7764   7.716   6.451  10.337  0.4335 -2.5807 -1.9631
  268bbb     C8 7765   7.177   6.880  10.550 -0.1730  0.5937 -0.2364
  268bbb    H15 7766   7.142   6.776  10.549  0.4997  0.3493  0.6258
  268bbb    H16 7767   7.086   6.940  10.535 -1.2103 -0.3416  1.8618
  268bbb     C9 7768   7.423   6.831   9.975 -0.1700 -0.4856 -0.3552
  268bbb    H17 7769   7.355   6.917   9.961  2.2651  2.0325  1.9889
  268bbb    H18 7770   7.379   6.737  10.010  1.4446 -0.8168  0.9142
  268bbb     O1 7771   7.579   6.331  10.252 -0.4560 -0.2541  0.2343
  269bbb     N1 7772   8.794   6.475  12.427  0.1884 -0.1653 -0.7716
  269bbb     C1 7773   8.735   6.611  12.437  0.6644 -0.1654  1.0975
  269bbb     H1 7774   8.731   6.666  12.342 -0.0870 -1.3582  0.4038
  269bbb     H2 7775   8.791   6.653  12.521  0.4804 -2.1076  2.2624
  269bbb     C2 7776   8.938   6.461  12.410  1.0188  0.4556  0.2992
  269bbb     H3 7777   8.966   6.462  12.304 -0.5117 -0.1836 -0.1421
  269bbb     H4 7778   8.954   6.355  12.436 -0.1217  0.2884  0.3675
  269bbb     C3 7779   8.710   6.368  12.362 -0.3463  0.5583  0.4036
  269bbb     H5 7780   8.609   6.367  12.405  0.2728  0.7258  1.9182
  269bbb     H6 7781   8.759   6.275  12.392  1.2309  1.4752  0.8168
  269bbb     C4 7782   8.702   6.393  12.208  0.0944  0.2500 -0.3183
  269bbb     H7 7783   8.792   6.351  12.160  1.0080 -0.8902  2.2046
  269bbb     H8 7784   8.689   6.500  12.190 -2.9002  0.0270  0.0678
  269bbb     C5 7785   8.593   6.611  12.492 -0.1780 -0.4099  0.1071
  269bbb     H9 7786   8.595   6.554  12.586 -0.2394 -1.4035 -0.4791
  269bbb    H10 7787   8.529   6.569  12.413  1.0621 -0.2788 -1.0088
  269bbb     C6 7788   9.026   6.547  12.504 -0.2778  0.0956 -0.6071
  269bbb    H11 7789   9.011   6.521  12.610  1.7595  2.9252  0.4779
  269bbb    H12 7790   9.015   6.655  12.490  0.0770  0.2940  0.5671
  269bbb     C7 7791   8.581   6.321  12.140 -0.5352 -0.0325 -0.2307
  269bbb    H13 7792   8.508   6.313  12.220  1.2430 -2.6166  1.2773
  269bbb    H14 7793   8.606   6.216  12.118 -0.6824 -0.0256 -0.4336
  269bbb     C8 7794   9.175   6.516  12.474  0.3515 -0.3198  0.1421
  269bbb    H15 7795   9.187   6.410  12.501 -1.5341 -0.3904  0.8509
  269bbb    H16 7796   9.251   6.569  12.532  0.2652  1.9857 -1.6947
  269bbb     C9 7797   8.544   6.752  12.532  0.1658 -0.1039  0.1537
  269bbb    H17 7798   8.539   6.815  12.443 -1.5552 -1.1150 -0.5148
  269bbb    H18 7799   8.621   6.788  12.601 -0.2629 -1.0752  1.1670
  269bbb     O1 7800   8.533   6.396  12.022  0.3983 -0.1052 -0.0566
  270bbb     N1 7801   7.752   6.497  11.789 -0.3366 -1.2028  0.2241
  270bbb     C1 7802   7.716   6.585  11.906  0.3703 -0.2909  0.1518
  270bbb     H1 7803   7.676   6.682  11.874 -0.0532  0.0943  1.7786
  270bbb     H2 7804   7.798   6.619  11.970 -0.2456  0.2017  0.6874
  270bbb     C2 7805   7.642   6.449  11.704  0.2850 -0.0452 -0.1687
  270bbb     H3 7806   7.593   6.533  11.654  3.0049  1.2248 -0.9146
  270bbb     H4 7807   7.575   6.406  11.779  0.6554  0.4198  0.4450
  270bbb     C3 7808   7.867   6.541  11.717  0.3968 -0.5860 -0.2848
  270bbb     H5 7809   7.919   6.468  11.654  2.3771 -1.0499  1.7431
  270bbb     H6 7810   7.943   6.575  11.788  0.0559 -0.9296  0.2590
  270bbb     C4 7811   7.824   6.658  11.616  1.1472  0.5021 -0.2141
  270bbb     H7 7812   7.799   6.752  11.666 -1.8248 -0.2285 -0.1456
  270bbb     H8 7813   7.737   6.635  11.553  0.6580  1.1105  0.2250
  270bbb     C5 7814   7.616   6.529  12.008  0.1378  0.2170 -0.3636
  270bbb     H9 7815   7.663   6.441  12.055  1.5867  1.7239  1.1385
  270bbb    H10 7816   7.523   6.507  11.954  0.0659  2.6573 -1.3763
  270bbb     C6 7817   7.677   6.344  11.594  0.1520  0.2769 -0.4999
  270bbb    H11 7818   7.743   6.267  11.635  1.5835  0.5827 -2.0946
  270bbb    H12 7819   7.730   6.393  11.511 -0.2665 -0.2247 -1.0746
  270bbb     C7 7820   7.933   6.689  11.513  0.2871  0.1765  0.4372
  270bbb    H13 7821   7.911   6.781  11.457 -0.8251 -1.3917 -1.8415
  270bbb    H14 7822   7.942   6.607  11.441 -1.0157 -0.1855  0.6622
  270bbb     C8 7823   7.550   6.282  11.525  0.7686 -0.2829 -0.2173
  270bbb    H15 7824   7.568   6.185  11.476 -1.0378 -0.4810 -0.5706
  270bbb    H16 7825   7.519   6.359  11.453  0.3846  0.6065  0.8707
  270bbb     C9 7826   7.592   6.627  12.122 -0.6299  0.8138 -0.3630
  270bbb    H17 7827   7.496   6.604  12.169 -0.9572  0.1986 -1.3143
  270bbb    H18 7828   7.603   6.730  12.086 -0.0632  1.2413  0.9609
  270bbb     O1 7829   8.058   6.715  11.585 -0.8593  0.8111  0.7274
  271bbb     N1 7830  10.036   8.969   6.236 -0.7571  0.0301  0.0935
  271bbb     C1 7831  10.000   8.864   6.337  0.3860 -0.5157  0.1443
  271bbb     H1 7832   9.919   8.912   6.394 -1.0171 -1.7168 -0.7502
  271bbb     H2 7833  10.078   8.840   6.409  0.5286 -1.8511 -0.4308
  271bbb     C2 7834   9.914   9.010   6.162 -0.2382 -0.2255 -0.0688
  271bbb     H3 7835   9.855   9.081   6.222  1.5660 -0.3532  1.9689
  271bbb     H4 7836   9.845   8.928   6.140 -0.9014 -0.2250  1.8306
  271bbb     C3 7837  10.109   9.089   6.285  0.2534 -0.3433 -0.0727
  271bbb     H5 7838  10.037   9.146   6.345  1.7227  0.4538  1.0246
  271bbb     H6 7839  10.143   9.146   6.197 -0.0342 -1.5575 -0.9948
  271bbb     C4 7840  10.238   9.060   6.372  0.3018 -0.1129 -0.0298
  271bbb     H7 7841  10.299   8.979   6.330 -0.5561 -1.9033  1.9265
  271bbb     H8 7842  10.216   9.019   6.472 -0.2268  1.2236  0.4246
  271bbb     C5 7843   9.942   8.729   6.288  0.0017  0.8614 -0.4254
  271bbb     H9 7844  10.011   8.683   6.216 -0.3702  2.4588 -1.8801
  271bbb    H10 7845   9.847   8.740   6.233  0.1262 -0.0279 -0.8365
  271bbb     C6 7846   9.939   9.096   6.040 -0.4864  0.1668 -0.1448
  271bbb    H11 7847  10.022   9.044   5.991 -0.1251 -0.3605  1.0059
  271bbb    H12 7848   9.978   9.192   6.073 -0.2131  0.0890 -0.2421
  271bbb     C7 7849  10.332   9.182   6.378 -0.2236 -0.1584 -0.4355
  271bbb    H13 7850  10.277   9.272   6.409  1.3747  0.7214  0.0057
  271bbb    H14 7851  10.384   9.214   6.287 -0.4509  2.4381  0.2672
  271bbb     C8 7852   9.810   9.114   5.946  0.6535 -0.0272 -0.8671
  271bbb    H15 7853   9.737   9.173   6.002  0.2864  0.2716 -1.6507
  271bbb    H16 7854   9.767   9.014   5.931  0.0540  0.0592  0.1700
  271bbb     C9 7855   9.913   8.634   6.412  0.2026 -0.2745  1.6246
  271bbb    H17 7856   9.840   8.691   6.472 -0.7723 -0.8859  1.0513
  271bbb    H18 7857   9.993   8.630   6.486  1.4088  1.9966  0.5632
  271bbb     O1 7858  10.426   9.151   6.488  0.0726 -0.9329  0.2786
  272bbb     N1 7859  10.328   9.862   7.288 -0.5794 -0.4772  0.1082
  272bbb     C1 7860  10.435   9.918   7.380  0.0856 -0.1577  0.4204
  272bbb     H1 7861  10.462  10.012   7.330  0.0005 -1.5306 -2.3920
  272bbb     H2 7862  10.521   9.850   7.386 -0.1897 -0.4490  1.1669
  272bbb     C2 7863  10.202   9.938   7.277  0.6235 -0.3885  0.4830
  272bbb     H3 7864  10.231  10.028   7.222  1.9720  0.0845  1.8859
  272bbb     H4 7865  10.165   9.978   7.373 -2.1516 -2.2977  0.3322
  272bbb     C3 7866  10.394   9.827   7.159 -0.2544  0.3267 -0.4492
  272bbb     H5 7867  10.431   9.924   7.124 -0.0463  0.3055 -0.2897
  272bbb     H6 7868  10.319   9.790   7.088 -1.3100  1.8677 -0.1888
  272bbb     C4 7869  10.505   9.724   7.176  0.1135  0.1967  0.2245
  272bbb     H7 7870  10.497   9.658   7.263  2.0838 -1.9040 -1.0860
  272bbb     H8 7871  10.599   9.780   7.188  0.7320 -1.0102  1.1796
  272bbb     C5 7872  10.394   9.956   7.522 -0.3815  0.6828 -0.4468
  272bbb     H9 7873  10.327  10.042   7.528 -1.2836  0.0201 -0.7765
  272bbb    H10 7874  10.478   9.983   7.587 -1.7797  1.2413  1.1940
  272bbb     C6 7875  10.085   9.861   7.217  0.7454  0.5462  0.3403
  272bbb    H11 7876  10.118   9.757   7.234 -1.5680  0.1044  2.7947
  272bbb    H12 7877  10.080   9.874   7.108  0.4568  0.4952  0.3467
  272bbb     C7 7878  10.521   9.630   7.049 -0.1953 -0.2350  0.2961
  272bbb    H13 7879  10.568   9.674   6.960  3.5720  0.9942  2.6614
  272bbb    H14 7880  10.422   9.587   7.029 -1.3270  1.5610  1.7317
  272bbb     C8 7881   9.955   9.895   7.297  0.4677  0.0760 -0.0729
  272bbb    H15 7882   9.874   9.857   7.235 -1.6653  2.7754  0.8615
  272bbb    H16 7883   9.934   9.998   7.328 -0.6048 -0.0317 -0.3989
  272bbb     C9 7884  10.316   9.839   7.593 -0.2127 -0.2091 -0.2312
  272bbb    H17 7885  10.351   9.744   7.550 -1.4214 -0.8522  0.1696
  272bbb    H18 7886  10.209   9.847   7.571 -0.5359 -0.7946  1.0523
  272bbb     O1 7887  10.599   9.515   7.090 -0.2098  0.9560 -0.3066
  273bbb     N1 7888   9.740   7.762   6.909 -0.2197  0.2360  0.2245
  273bbb     C1 7889   9.783   7.741   6.767  0.0881 -0.4854 -0.3737
  273bbb     H1 7890   9.701   7.774   6.702 -0.5255  0.0174  0.6264
  273bbb     H2 7891   9.778   7.632   6.752  0.4329 -0.7431  1.2683
  273bbb     C2 7892   9.615   7.703   6.955  0.3474  1.0519 -0.3714
  273bbb     H3 7893   9.544   7.754   6.887 -0.2746 -1.9820 -2.1789
  273bbb     H4 7894   9.594   7.721   7.061 -1.2125  0.4012 -0.5399
  273bbb     C3 7895   9.758   7.903   6.961  0.2612 -0.3882 -0.1032
  273bbb     H5 7896   9.862   7.931   6.942  0.1331  0.6995  0.7262
  273bbb     H6 7897   9.757   7.905   7.070  1.6898  1.5151 -0.0774
  273bbb     C4 7898   9.670   8.023   6.915  0.0366  0.5894  0.1195
  273bbb     H7 7899   9.573   7.993   6.958 -0.2405 -1.7040 -1.9087
  273bbb     H8 7900   9.677   8.026   6.806 -2.1780 -2.1949 -0.2301
  273bbb     C5 7901   9.922   7.791   6.729  0.5702 -0.4421 -0.8067
  273bbb     H9 7902   9.986   7.761   6.813 -1.3553 -1.3169  0.4299
  273bbb    H10 7903   9.920   7.901   6.722 -1.7627 -0.4308 -0.7264
  273bbb     C6 7904   9.599   7.548   6.936 -0.4952 -0.2273  0.4727
  273bbb    H11 7905   9.605   7.529   6.828 -2.6568  2.0385 -0.1629
  273bbb    H12 7906   9.499   7.514   6.967 -0.5396 -1.9414 -1.3756
  273bbb     C7 7907   9.727   8.156   6.973 -0.0877 -0.0969 -0.1541
  273bbb    H13 7908   9.835   8.155   6.955 -0.4193 -0.9400 -2.3478
  273bbb    H14 7909   9.712   8.158   7.082 -1.2695 -0.2528 -0.3042
  273bbb     C8 7910   9.705   7.460   7.011 -0.0597 -0.2498 -0.0182
  273bbb    H15 7911   9.733   7.508   7.105 -1.6312 -1.7926  1.3061
  273bbb    H16 7912   9.794   7.463   6.946 -0.4611  3.0885 -0.5702
  273bbb     C9 7913   9.971   7.747   6.591 -0.3173 -0.4609  0.4132
  273bbb    H17 7914  10.004   7.643   6.602 -0.4722 -0.6911 -1.0014
  273bbb    H18 7915  10.066   7.801   6.580 -0.5146 -0.3568 -1.0058
  273bbb     O1 7916   9.662   8.260   6.901 -0.2459 -0.5067  0.4434
  274bbb     N1 7917   8.774   8.418   6.454  0.1616 -0.3532 -0.1976
  274bbb     C1 7918   8.740   8.317   6.351  0.1487  0.2666 -0.1500
  274bbb     H1 7919   8.635   8.319   6.320 -0.0648 -0.8446  0.4514
  274bbb     H2 7920   8.757   8.222   6.403  3.0976  0.9774  0.3708
  274bbb     C2 7921   8.672   8.437   6.562 -0.5399 -0.0924 -0.4874
  274bbb     H3 7922   8.578   8.478   6.522 -0.4893  0.5995  0.0764
  274bbb     H4 7923   8.701   8.506   6.642 -1.2765 -2.2985  1.8026
  274bbb     C3 7924   8.917   8.420   6.495  0.2740 -0.3901  0.0524
  274bbb     H5 7925   8.983   8.441   6.410 -3.2058 -0.3791 -2.9200
  274bbb     H6 7926   8.945   8.320   6.530  0.1819  0.1919  1.9132
  274bbb     C4 7927   8.948   8.527   6.606  0.9126  0.0805 -0.2335
  274bbb     H7 7928   8.897   8.506   6.701  0.0644 -1.3596 -0.9720
  274bbb     H8 7929   8.924   8.628   6.570  2.1503  1.0064  1.3781
  274bbb     C5 7930   8.817   8.318   6.220  0.1983 -0.1604  0.1327
  274bbb     H9 7931   8.837   8.421   6.190 -0.8752  0.2281  0.7102
  274bbb    H10 7932   8.764   8.282   6.131 -1.2365  0.9159  0.5250
  274bbb     C6 7933   8.638   8.301   6.638  0.2182 -0.2850 -0.1281
  274bbb    H11 7934   8.730   8.265   6.685 -0.1538  1.3577  2.0599
  274bbb    H12 7935   8.605   8.221   6.571  0.9920 -0.5128 -0.2413
  274bbb     C7 7936   9.100   8.537   6.636  0.5649 -0.3222 -0.0198
  274bbb    H13 7937   9.151   8.572   6.545  1.5423  0.8852  0.9511
  274bbb    H14 7938   9.123   8.436   6.672  0.4080 -0.5858 -0.6462
  274bbb     C8 7939   8.530   8.336   6.744  0.9884 -0.6787 -0.3577
  274bbb    H15 7940   8.560   8.429   6.794  1.3407 -1.2790  0.5874
  274bbb    H16 7941   8.523   8.260   6.824  1.8591  0.7217  1.1265
  274bbb     C9 7942   8.953   8.235   6.235 -0.0809 -0.0586  0.1481
  274bbb    H17 7943   8.923   8.144   6.288  0.0747  0.8040  1.8016
  274bbb    H18 7944   9.028   8.288   6.295 -0.4078  0.4554  0.1092
  274bbb     O1 7945   9.117   8.629   6.744  0.2651 -0.1816  0.1421
  275bbb     N1 7946  11.111   8.154  10.048 -0.1322  0.6662  0.0223
  275bbb     C1 7947  11.100   8.303  10.021 -0.2535  0.5484  0.2144
  275bbb     H1 7948  11.100   8.346  10.122 -0.5082  0.3260  0.3106
  275bbb     H2 7949  11.005   8.335   9.976 -1.3836 -0.0087  2.0716
  275bbb     C2 7950  11.018   8.094  10.140  0.1134 -0.7257  0.4333
  275bbb     H3 7951  10.918   8.099  10.096  0.4506  1.2093 -0.1759
  275bbb     H4 7952  10.999   8.157  10.228 -0.5199 -0.4092  0.0786
  275bbb     C3 7953  11.134   8.076   9.929 -0.4906 -0.4308  0.1299
  275bbb     H5 7954  11.141   7.971   9.960 -1.2815 -1.1116 -1.8352
  275bbb     H6 7955  11.229   8.106   9.883 -0.5226 -0.2757  0.1657
  275bbb     C4 7956  11.031   8.091   9.819  0.4473  0.1748 -0.0592
  275bbb     H7 7957  11.077   8.071   9.721  0.5014 -0.5380  0.1140
  275bbb     H8 7958  10.989   8.192   9.809 -1.2885 -0.4086  0.8990
  275bbb     C5 7959  11.214   8.370   9.934 -0.0973 -0.1917  0.4533
  275bbb     H9 7960  11.192   8.369   9.826  0.6574  2.5677  0.2124
  275bbb    H10 7961  11.301   8.304   9.944 -1.6278 -1.9993  3.1133
  275bbb     C6 7962  11.049   7.952  10.205 -0.4257 -0.3205  0.0881
  275bbb    H11 7963  11.158   7.949  10.222 -0.0662 -0.1976 -1.9608
  275bbb    H12 7964  11.030   7.876  10.128  2.3575 -2.1684  1.0561
  275bbb     C7 7965  10.904   8.000   9.837  0.0030 -0.1532  0.0329
  275bbb    H13 7966  10.837   8.058   9.901  0.6449  1.6109 -0.8329
  275bbb    H14 7967  10.926   7.908   9.893  1.6698 -0.2470 -0.7337
  275bbb     C8 7968  10.968   7.926  10.334  0.8720  0.1744  0.5797
  275bbb    H15 7969  10.863   7.935  10.304  1.4498  0.6327 -1.4311
  275bbb    H16 7970  10.984   8.001  10.412  0.6353 -0.0597  0.8599
  275bbb     C9 7971  11.230   8.524   9.963  0.9748  0.4503 -0.3532
  275bbb    H17 7972  11.130   8.569   9.964 -0.8718 -3.0405 -2.9325
  275bbb    H18 7973  11.281   8.568   9.876 -0.9255  0.1599 -1.6756
  275bbb     O1 7974  10.846   7.966   9.714  0.1224  0.5239 -0.5121
  276bbb     N1 7975  11.094   8.346   8.534  0.7731  0.1642 -0.6771
  276bbb     C1 7976  11.135   8.488   8.528 -0.6111  0.8903  0.5921
  276bbb     H1 7977  11.149   8.516   8.633  2.7452  0.6409  0.3132
  276bbb     H2 7978  11.057   8.543   8.475 -1.5675  0.2814  1.3281
  276bbb     C2 7979  11.136   8.245   8.433 -0.5990 -1.2555  0.5260
  276bbb     H3 7980  11.242   8.270   8.426 -1.4713  2.8712 -0.3269
  276bbb     H4 7981  11.097   8.253   8.331  1.5913  0.1784 -0.2558
  276bbb     C3 7982  10.949   8.323   8.569 -0.4950  0.4011 -0.2984
  276bbb     H5 7983  10.923   8.218   8.586  0.2548  0.2342 -0.1456
  276bbb     H6 7984  10.884   8.351   8.484 -1.2470 -1.1355 -0.2693
  276bbb     C4 7985  10.904   8.396   8.696 -0.2193  0.2475 -0.1198
  276bbb     H7 7986  10.796   8.378   8.710 -0.2141 -0.9290 -1.3444
  276bbb     H8 7987  10.909   8.504   8.679  3.4737  0.4302  1.2270
  276bbb     C5 7988  11.281   8.507   8.471  0.6913 -0.0638  0.5986
  276bbb     H9 7989  11.285   8.456   8.375  1.1130 -0.7534  0.9802
  276bbb    H10 7990  11.353   8.451   8.532  0.7697 -1.4342 -0.7097
  276bbb     C6 7991  11.128   8.094   8.477  0.3437  0.4292 -0.2939
  276bbb    H11 7992  11.180   8.038   8.398  0.5624 -0.1224  0.2332
  276bbb    H12 7993  11.023   8.066   8.465  0.1556  0.6901  0.6869
  276bbb     C7 7994  10.979   8.361   8.823  0.1649 -0.2022  0.4277
  276bbb    H13 7995  10.986   8.447   8.891 -0.4098 -1.6626  2.4374
  276bbb    H14 7996  11.078   8.321   8.795  0.5883  1.0659  0.0516
  276bbb     C8 7997  11.185   8.072   8.619 -0.2138  0.2300 -0.2111
  276bbb    H15 7998  11.174   7.968   8.652 -0.2283  0.3415  0.1358
  276bbb    H16 7999  11.121   8.128   8.688 -0.4169 -0.7758  0.4435
  276bbb     C9 8000  11.331   8.657   8.451 -0.5164 -0.0733 -0.0092
  276bbb    H17 8001  11.301   8.714   8.539 -0.2023 -0.7792  0.5730
  276bbb    H18 8002  11.274   8.709   8.374 -0.3649 -0.4096 -0.3558
  276bbb     O1 8003  10.897   8.268   8.895 -0.1144  0.6377 -0.5906
  277bbb     N1 8004  10.503   6.898   8.564 -1.3578 -0.1168 -0.0362
  277bbb     C1 8005  10.554   6.804   8.456 -0.9802  0.1838  0.0127
  277bbb     H1 8006  10.550   6.852   8.357  1.4475  1.1968  0.3356
  277bbb     H2 8007  10.479   6.724   8.452 -1.5223  0.6170  1.1884
  277bbb     C2 8008  10.473   6.850   8.700 -0.4827 -0.2329 -0.3115
  277bbb     H3 8009  10.540   6.903   8.769  0.2302  0.8243 -1.7787
  277bbb     H4 8010  10.475   6.740   8.708 -1.7342 -0.3464 -1.2074
  277bbb     C3 8011  10.575   7.028   8.553 -0.9268  0.1304  0.3289
  277bbb     H5 8012  10.593   7.054   8.448 -0.7934 -1.1203  0.0261
  277bbb     H6 8013  10.669   7.019   8.607 -2.2977 -0.4685  2.7507
  277bbb     C4 8014  10.511   7.147   8.620  0.4008  0.5330 -0.6533
  277bbb     H7 8015  10.497   7.135   8.728 -0.5306  2.6740 -0.4798
  277bbb     H8 8016  10.408   7.163   8.585  0.3653  2.2423  0.1082
  277bbb     C5 8017  10.703   6.754   8.465  0.0689 -0.0136 -0.1779
  277bbb     H9 8018  10.771   6.839   8.479  1.0918 -0.8778  0.3016
  277bbb    H10 8019  10.724   6.723   8.362  0.7363 -1.1545  0.2759
  277bbb     C6 8020  10.329   6.882   8.734  0.1094  0.3870 -0.2328
  277bbb    H11 8021  10.311   6.989   8.745 -1.5769  0.0272  1.0137
  277bbb    H12 8022  10.315   6.838   8.833 -2.5674 -2.7790 -1.7909
  277bbb     C7 8023  10.597   7.276   8.601 -0.2974  0.3095  0.8989
  277bbb    H13 8024  10.599   7.304   8.495  3.4575 -2.9698 -0.1398
  277bbb    H14 8025  10.703   7.267   8.629  0.5405  0.5991 -1.8614
  277bbb     C8 8026  10.212   6.825   8.647  0.7140 -0.1538  0.1962
  277bbb    H15 8027  10.234   6.719   8.629  1.4581  0.1006 -0.4158
  277bbb    H16 8028  10.229   6.860   8.545 -2.1568  2.1550  0.3665
  277bbb     C9 8029  10.710   6.639   8.570 -0.0147 -0.7639  0.5297
  277bbb    H17 8030  10.626   6.572   8.547 -1.2640  0.8679  0.1765
  277bbb    H18 8031  10.695   6.676   8.672  0.8056 -0.2381  0.4709
  277bbb     O1 8032  10.529   7.367   8.674 -0.3363  0.0341  0.1412
  278bbb     N1 8033  10.940   7.036   8.169  0.1059  0.6865  0.5467
  278bbb     C1 8034  11.028   6.915   8.149  0.4492  0.5553 -0.4202
  278bbb     H1 8035  11.074   6.881   8.243 -0.2062 -0.2278 -0.3716
  278bbb     H2 8036  11.115   6.937   8.086  0.0053  1.1663 -0.8289
  278bbb     C2 8037  10.867   7.103   8.059  0.1104 -0.0693  0.3472
  278bbb     H3 8038  10.815   7.195   8.090 -1.8785 -0.9396 -0.2378
  278bbb     H4 8039  10.790   7.036   8.017  2.9870 -2.9597 -0.7409
  278bbb     C3 8040  10.863   7.039   8.299 -0.7650  0.2223 -0.1853
  278bbb     H5 8041  10.918   6.971   8.366  1.7510  0.9003 -1.4242
  278bbb     H6 8042  10.765   6.992   8.290  0.0509 -2.2203  2.3991
  278bbb     C4 8043  10.844   7.179   8.367 -0.2681 -0.1075  0.4272
  278bbb     H7 8044  10.825   7.173   8.475 -1.4450  1.1837  0.3037
  278bbb     H8 8045  10.754   7.218   8.320 -0.3456 -2.0331 -1.1797
  278bbb     C5 8046  10.946   6.795   8.081 -0.2261 -0.0897 -0.4779
  278bbb     H9 8047  10.876   6.823   8.001 -1.6348 -2.9518 -0.3831
  278bbb    H10 8048  10.875   6.745   8.149 -0.6419 -0.9149 -1.4929
  278bbb     C6 8049  10.958   7.136   7.938  0.5769  0.5454  0.5494
  278bbb    H11 8050  10.992   7.041   7.896  0.2655  0.7207 -0.1144
  278bbb    H12 8051  11.047   7.191   7.971  0.2742  0.3142  1.8059
  278bbb     C7 8052  10.966   7.265   8.359 -0.5876 -0.4403 -0.1413
  278bbb    H13 8053  10.984   7.304   8.258  0.0670  1.4591  0.6571
  278bbb    H14 8054  11.053   7.210   8.396 -0.7164  0.7751  2.1321
  278bbb     C8 8055  10.886   7.220   7.832 -0.2453  0.6029 -0.8802
  278bbb    H15 8056  10.950   7.229   7.743 -0.1995 -1.8469 -1.1629
  278bbb    H16 8057  10.884   7.326   7.858  1.5718  0.9728 -2.0930
  278bbb     C9 8058  11.047   6.687   8.033  0.3292 -0.1175  0.0668
  278bbb    H17 8059  11.088   6.701   7.932  3.7780 -1.0230  1.2002
  278bbb    H18 8060  10.991   6.594   8.012  0.8821 -0.6937  1.0838
  278bbb     O1 8061  10.944   7.384   8.433 -0.1424 -0.3943 -0.3924
  279bbb     N1 8062   7.388   9.098   9.771  0.1086 -0.4980  0.5948
  279bbb     C1 8063   7.316   9.189   9.864  0.0987 -0.1049 -0.0552
  279bbb     H1 8064   7.233   9.139   9.915 -1.6098  1.1185 -1.4769
  279bbb     H2 8065   7.265   9.270   9.810  0.3389  0.0693 -0.0215
  279bbb     C2 8066   7.458   9.174   9.662  0.4132  0.0957 -0.0596
  279bbb     H3 8067   7.539   9.234   9.705  0.0469  0.1553  0.5598
  279bbb     H4 8068   7.398   9.246   9.606  2.3314  0.6326 -1.5263
  279bbb     C3 8069   7.461   8.984   9.836 -1.1553 -0.7392 -0.4995
  279bbb     H5 8070   7.533   9.019   9.911  0.4352 -2.3023 -1.2345
  279bbb     H6 8071   7.522   8.938   9.758  2.1526  2.3146  0.0554
  279bbb     C4 8072   7.375   8.875   9.903 -0.0619  0.1562 -0.4334
  279bbb     H7 8073   7.314   8.933   9.973  3.3973  1.7493  1.4985
  279bbb     H8 8074   7.452   8.811   9.948  1.5088  0.4746 -2.5103
  279bbb     C5 8075   7.404   9.259   9.972  0.2350  0.3652  0.3920
  279bbb     H9 8076   7.502   9.299   9.942 -0.6694  1.6533 -0.9906
  279bbb    H10 8077   7.422   9.180  10.046 -1.6037 -1.4827 -1.0157
  279bbb     C6 8078   7.517   9.092   9.550  0.3832  0.0149  0.1762
  279bbb    H11 8079   7.599   9.023   9.576  1.3562  0.4142 -1.6891
  279bbb    H12 8080   7.568   9.171   9.493  0.4049  1.2454  1.8149
  279bbb     C7 8081   7.282   8.800   9.809 -0.6409 -0.5891  0.2412
  279bbb    H13 8082   7.210   8.880   9.787  1.4302  1.4837  0.5388
  279bbb    H14 8083   7.231   8.711   9.849  0.6302 -1.4322  0.0173
  279bbb     C8 8084   7.425   9.017   9.448  0.0599  0.0875  0.2560
  279bbb    H15 8085   7.368   8.942   9.503 -0.2208 -0.8447 -1.2256
  279bbb    H16 8086   7.490   8.961   9.379  2.6192  1.2783  1.5764
  279bbb     C9 8087   7.320   9.376  10.025 -0.0625 -0.0543  0.0803
  279bbb    H17 8088   7.214   9.349  10.020 -0.7721  1.5318  3.7479
  279bbb    H18 8089   7.347   9.467   9.970  0.4868  1.0246  2.0338
  279bbb     O1 8090   7.347   8.758   9.692 -0.0065 -0.1351 -0.1261
  280bbb     N1 8091   7.751   8.341   8.699  0.1908 -0.0308  0.0230
  280bbb     C1 8092   7.904   8.340   8.713 -0.4496 -0.0960 -0.0538
  280bbb     H1 8093   7.931   8.425   8.777 -0.0286  1.1210 -1.7795
  280bbb     H2 8094   7.955   8.360   8.618  0.9719 -2.4105  0.1429
  280bbb     C2 8095   7.709   8.459   8.626  0.3855  0.0574  0.6796
  280bbb     H3 8096   7.757   8.548   8.669  2.7008 -0.5659 -0.4909
  280bbb     H4 8097   7.601   8.474   8.638 -0.0964 -1.8189 -0.8847
  280bbb     C3 8098   7.670   8.326   8.828  0.2325  0.4175 -0.4306
  280bbb     H5 8099   7.668   8.416   8.891  0.6847 -0.9781  1.7110
  280bbb     H6 8100   7.721   8.248   8.887 -0.6626  1.0089  1.1950
  280bbb     C4 8101   7.526   8.276   8.784  0.5908  0.3895 -0.0382
  280bbb     H7 8102   7.528   8.197   8.707 -0.7448  0.8004 -0.5189
  280bbb     H8 8103   7.474   8.358   8.732  1.1752  1.0462  0.4048
  280bbb     C5 8104   7.951   8.200   8.768  0.6957  1.2966 -0.3149
  280bbb     H9 8105   7.877   8.126   8.736 -1.1420  2.6922  0.5398
  280bbb    H10 8106   7.943   8.185   8.876 -0.3983  0.7178 -0.4597
  280bbb     C6 8107   7.735   8.465   8.473 -0.3777 -0.1659  0.0106
  280bbb    H11 8108   7.840   8.435   8.459 -0.7807 -2.1726  1.0042
  280bbb    H12 8109   7.727   8.567   8.432 -1.0493 -0.3929 -0.4273
  280bbb     C7 8110   7.443   8.226   8.906  0.0918 -0.6530 -0.7540
  280bbb    H13 8111   7.492   8.137   8.946  1.5281 -0.2278 -1.5069
  280bbb    H14 8112   7.340   8.195   8.882 -0.0676 -0.3648 -0.4462
  280bbb     C8 8113   7.644   8.373   8.397 -0.0639 -0.2006 -0.0340
  280bbb    H15 8114   7.539   8.404   8.389 -0.2381 -0.8649 -0.3542
  280bbb    H16 8115   7.623   8.282   8.454 -0.4412 -0.9648 -1.3449
  280bbb     C9 8116   8.093   8.163   8.724 -0.2753  0.6456  0.4469
  280bbb    H17 8117   8.122   8.078   8.788 -1.0368  1.1673  1.5110
  280bbb    H18 8118   8.162   8.241   8.757 -0.2798  0.2210  1.5105
  280bbb     O1 8119   7.444   8.336   8.997 -0.0616  0.3506  0.6432
  281bbb     N1 8120   8.662  10.036   8.770 -0.2914  0.1513 -0.3354
  281bbb     C1 8121   8.743  10.084   8.890  0.6524  0.3858 -0.0489
  281bbb     H1 8122   8.718  10.189   8.910  0.4949  0.0630  1.5430
  281bbb     H2 8123   8.848  10.080   8.857  0.9264  4.3174 -0.1987
  281bbb     C2 8124   8.716  10.086   8.642 -0.0381  0.0530 -0.2713
  281bbb     H3 8125   8.646  10.070   8.559  0.5826  2.2010 -1.2895
  281bbb     H4 8126   8.810  10.030   8.630  0.2306  0.0834  1.3936
  281bbb     C3 8127   8.617   9.894   8.758  0.4138  0.0504 -0.1667
  281bbb     H5 8128   8.591   9.851   8.855 -1.1591 -2.5284 -1.6255
  281bbb     H6 8129   8.696   9.826   8.725 -1.3313 -1.4477 -1.5100
  281bbb     C4 8130   8.499   9.881   8.670 -0.0142 -0.3030 -0.1079
  281bbb     H7 8131   8.537   9.886   8.567  0.4774  0.7184  0.1093
  281bbb     H8 8132   8.427   9.963   8.680 -1.9263 -1.9096  0.0546
  281bbb     C5 8133   8.737  10.013   9.030  0.0295  0.0093  0.4981
  281bbb     H9 8134   8.763   9.908   9.012 -0.6061 -0.1512  0.4788
  281bbb    H10 8135   8.636  10.021   9.071 -0.2873 -3.4788  0.6890
  281bbb     C6 8136   8.744  10.237   8.634  0.0341 -0.3767  0.3191
  281bbb    H11 8137   8.799  10.272   8.722  1.6582 -2.5596  0.2441
  281bbb    H12 8138   8.650  10.294   8.637 -0.3025 -0.9201  0.2940
  281bbb     C7 8139   8.423   9.745   8.680 -0.2138  0.4817 -0.6266
  281bbb    H13 8140   8.387   9.735   8.784 -2.0465  0.0019 -1.2701
  281bbb    H14 8141   8.489   9.657   8.673  2.1097  1.8396  1.9929
  281bbb     C8 8142   8.809  10.284   8.500 -0.2989 -0.1917 -0.1278
  281bbb    H15 8143   8.823  10.392   8.499 -0.3516 -0.1890 -1.1041
  281bbb    H16 8144   8.739  10.256   8.421  1.0445 -0.3427 -1.3148
  281bbb     C9 8145   8.832  10.071   9.131 -0.2790 -0.3123  0.9409
  281bbb    H17 8146   8.813  10.178   9.147  4.0174  0.7262  0.3608
  281bbb    H18 8147   8.937  10.060   9.103 -0.0812  0.3167  1.4055
  281bbb     O1 8148   8.311   9.746   8.592  0.2863  0.2554 -0.3502
  282bbb     N1 8149   8.016   9.743   7.693  0.2988  0.4923 -0.1644
  282bbb     C1 8150   7.887   9.709   7.774 -0.1735 -0.7785  0.2291
  282bbb     H1 8151   7.796   9.746   7.726  0.3021  0.7968  0.4992
  282bbb     H2 8152   7.887   9.761   7.870 -2.9069  0.7173 -0.4892
  282bbb     C2 8153   7.998   9.726   7.546  0.4728  0.2232 -0.5849
  282bbb     H3 8154   7.986   9.618   7.531  1.0121  0.3860 -2.5319
  282bbb     H4 8155   8.093   9.745   7.493 -0.1231  1.4692 -1.2621
  282bbb     C3 8156   8.149   9.691   7.747 -0.0265 -0.1036 -0.5117
  282bbb     H5 8157   8.234   9.731   7.692 -0.8001  1.2569 -0.7650
  282bbb     H6 8158   8.164   9.583   7.738  0.2739  0.0628 -2.2472
  282bbb     C4 8159   8.182   9.731   7.895 -0.0969 -0.1117  0.1899
  282bbb     H7 8160   8.105   9.694   7.964 -0.0783 -0.9572 -0.2388
  282bbb     H8 8161   8.190   9.840   7.897 -0.8605 -0.0543  0.0530
  282bbb     C5 8162   7.862   9.562   7.778 -0.3162 -0.6960  0.4685
  282bbb     H9 8163   7.954   9.516   7.815 -0.5386 -2.1670 -0.7107
  282bbb    H10 8164   7.844   9.540   7.672  0.2871  3.4086 -0.6705
  282bbb     C6 8165   7.882   9.813   7.474  0.1036 -0.1304 -0.5666
  282bbb    H11 8166   7.897   9.921   7.484 -1.8563  0.0609  0.7365
  282bbb    H12 8167   7.789   9.795   7.529  0.6642 -2.1727 -0.1871
  282bbb     C7 8168   8.313   9.674   7.936 -0.0528  0.1850  0.2233
  282bbb    H13 8169   8.394   9.730   7.887 -0.0266 -1.2313 -1.4696
  282bbb    H14 8170   8.320   9.566   7.917  0.0646 -0.1459  2.0254
  282bbb     C8 8171   7.876   9.776   7.328  0.2413 -0.6135  0.1463
  282bbb    H15 8172   7.978   9.775   7.288 -1.0664 -0.4693 -3.5186
  282bbb    H16 8173   7.821   9.858   7.280  0.5836 -0.8894 -0.7228
  282bbb     C9 8174   7.737   9.512   7.862  0.2212 -0.6568  0.3223
  282bbb    H17 8175   7.736   9.402   7.861  2.0166 -0.8168 -3.2355
  282bbb    H18 8176   7.644   9.547   7.817  0.0550  0.7290  1.6993
  282bbb     O1 8177   8.327   9.695   8.074  0.8238  0.3113  0.2310
  283bbb     N1 8178  10.576   8.228  10.271 -0.2473  0.1962  0.5617
  283bbb     C1 8179  10.541   8.086  10.253  0.2013 -0.5709 -0.0943
  283bbb     H1 8180  10.480   8.066  10.342  0.2579  1.8731  0.5686
  283bbb     H2 8181  10.633   8.027  10.251  0.4362 -0.2004 -0.7156
  283bbb     C2 8182  10.622   8.249  10.416 -0.8109  0.7239  0.2501
  283bbb     H3 8183  10.550   8.213  10.491 -2.6735 -0.4512 -1.9493
  283bbb     H4 8184  10.630   8.357  10.428 -2.0911  0.8150  0.4295
  283bbb     C3 8185  10.666   8.285  10.164 -0.4494 -0.0683  0.2656
  283bbb     H5 8186  10.642   8.266  10.058  2.3796 -0.6502 -0.3599
  283bbb     H6 8187  10.768   8.246  10.177 -0.5242 -1.0900 -1.7792
  283bbb     C4 8188  10.679   8.440  10.183  0.3397  0.2864  0.2766
  283bbb     H7 8189  10.747   8.488  10.112  1.5776  0.3207  1.4476
  283bbb     H8 8190  10.714   8.473  10.281  0.2466 -1.4309  0.9190
  283bbb     C5 8191  10.457   8.064  10.131  0.6582 -0.1958  0.7511
  283bbb     H9 8192  10.508   8.108  10.044 -1.7422 -0.6475 -0.9903
  283bbb    H10 8193  10.372   8.132  10.147  1.1806  0.8471 -0.7062
  283bbb     C6 8194  10.757   8.182  10.467 -0.2501 -0.0663 -0.3622
  283bbb    H11 8195  10.849   8.226  10.427 -0.2854  2.0327  1.6416
  283bbb    H12 8196  10.746   8.080  10.428 -1.1887  0.3835 -1.3644
  283bbb     C7 8197  10.549   8.504  10.140  0.0365 -0.4500 -0.0242
  283bbb    H13 8198  10.559   8.599  10.194 -1.4799 -0.3952  0.1926
  283bbb    H14 8199  10.458   8.455  10.178  0.1523  0.0072  0.8754
  283bbb     C8 8200  10.780   8.199  10.622  0.6748  0.0528 -0.0442
  283bbb    H15 8201  10.784   8.303  10.657  2.1862 -0.2726  0.8211
  283bbb    H16 8202  10.870   8.149  10.661 -0.5728 -0.3864  2.5007
  283bbb     C9 8203  10.409   7.920  10.122 -0.2048 -0.6673 -0.1253
  283bbb    H17 8204  10.335   7.894  10.046 -1.1727 -0.8258  0.8589
  283bbb    H18 8205  10.352   7.901  10.213 -0.8178 -0.1457 -0.3891
  283bbb     O1 8206  10.557   8.515  10.000  0.0564  0.6662 -0.3941
  284bbb     N1 8207   9.853   8.772  10.794  0.0018 -0.0942 -0.1050
  284bbb     C1 8208   9.852   8.745  10.940 -0.5549 -0.0014  0.7623
  284bbb     H1 8209   9.878   8.837  10.992  1.8995  0.2636 -0.7375
  284bbb     H2 8210   9.919   8.663  10.969 -0.8441  0.3864  2.6758
  284bbb     C2 8211   9.770   8.885  10.745  0.2206  0.4962 -0.4683
  284bbb     H3 8212   9.665   8.861  10.765  1.0692 -2.6021  0.7371
  284bbb     H4 8213   9.778   8.904  10.637  1.0954  0.2807 -0.4442
  284bbb     C3 8214   9.846   8.647  10.712  0.1506  0.1179 -0.4092
  284bbb     H5 8215   9.763   8.577  10.729  0.9424 -0.6890  0.2257
  284bbb     H6 8216   9.930   8.586  10.747  0.5613  1.4425  1.0204
  284bbb     C4 8217   9.861   8.665  10.556  0.2523  0.2551 -1.2310
  284bbb     H7 8218   9.777   8.723  10.515  1.0225  2.0339 -0.4179
  284bbb     H8 8219   9.848   8.565  10.513  0.2160 -1.1129  1.7343
  284bbb     C5 8220   9.713   8.700  10.984  0.1109  0.3061 -0.1453
  284bbb     H9 8221   9.672   8.622  10.919  2.5911 -0.8885 -0.4076
  284bbb    H10 8222   9.639   8.781  10.987 -0.3514 -0.1402  1.6059
  284bbb     C6 8223   9.799   9.021  10.803 -0.4792 -0.4903  0.2210
  284bbb    H11 8224   9.783   9.022  10.911  0.1355 -0.4135  0.3135
  284bbb    H12 8225   9.738   9.097  10.753  0.1541 -0.4807 -0.5634
  284bbb     C7 8226   9.992   8.726  10.516 -0.3225  0.1781  0.4789
  284bbb    H13 8227  10.070   8.653  10.542  0.3232  0.3301 -0.9061
  284bbb    H14 8228  10.007   8.816  10.577  3.7216 -0.8689  1.2989
  284bbb     C8 8229   9.952   9.054  10.786  0.2600  0.0865  0.0568
  284bbb    H15 8230   9.968   9.056  10.678  0.3884 -1.9560 -0.0083
  284bbb    H16 8231  10.007   8.966  10.823  1.1503 -0.6982 -2.8228
  284bbb     C9 8232   9.730   8.652  11.134 -0.4832  0.4305 -0.0633
  284bbb    H17 8233   9.780   8.738  11.180  1.1580  0.4358 -1.7257
  284bbb    H18 8234   9.804   8.571  11.138  1.0263  1.7887  3.5566
  284bbb     O1 8235   9.986   8.748  10.372 -0.1872 -0.1868 -0.5440
  285bbb     N1 8236  10.528   8.652   9.194  0.4288 -0.0612  0.2369
  285bbb     C1 8237  10.598   8.523   9.217  0.0325 -0.0075 -0.1275
  285bbb     H1 8238  10.534   8.435   9.222 -0.8355  0.6491  1.0062
  285bbb     H2 8239  10.659   8.531   9.308  0.1085 -0.8063 -0.1053
  285bbb     C2 8240  10.438   8.656   9.074 -0.4286 -0.1734 -0.0368
  285bbb     H3 8241  10.343   8.614   9.110  0.0214 -1.0396  0.1805
  285bbb     H4 8242  10.486   8.602   8.991  1.5312 -1.2801  1.7132
  285bbb     C3 8243  10.456   8.704   9.306 -0.4377  0.4596 -0.7233
  285bbb     H5 8244  10.351   8.671   9.308  0.2305 -1.9347 -1.2588
  285bbb     H6 8245  10.452   8.813   9.299 -0.8281  0.4542 -0.6201
  285bbb     C4 8246  10.513   8.667   9.443 -0.1069 -0.4538  0.0338
  285bbb     H7 8247  10.620   8.688   9.442 -0.5319  2.0875  0.6276
  285bbb     H8 8248  10.500   8.559   9.458 -0.7878 -0.5401 -1.0528
  285bbb     C5 8249  10.710   8.492   9.113  0.1003  0.1097 -0.6698
  285bbb     H9 8250  10.669   8.467   9.014 -2.6935  0.0223  0.4320
  285bbb    H10 8251  10.758   8.402   9.152 -0.2574  0.5001  0.7148
  285bbb     C6 8252  10.404   8.798   9.037 -0.1341  0.5994  0.1308
  285bbb    H11 8253  10.487   8.867   9.059  0.4423  0.1696 -0.6511
  285bbb    H12 8254  10.329   8.831   9.110  1.3064  2.1860  0.9741
  285bbb     C7 8255  10.459   8.751   9.561  0.7792  0.6547  0.2568
  285bbb    H13 8256  10.498   8.708   9.654 -0.0290 -0.8966 -0.0861
  285bbb    H14 8257  10.349   8.743   9.564  0.8348 -0.0392  0.7589
  285bbb     C8 8258  10.362   8.813   8.886 -0.2568 -0.2360  0.1894
  285bbb    H15 8259  10.314   8.911   8.878  0.2104 -0.0241 -0.0588
  285bbb    H16 8260  10.303   8.726   8.855 -0.3043 -0.5982  1.2598
  285bbb     C9 8261  10.809   8.606   9.091 -0.0869  0.1078  0.2253
  285bbb    H17 8262  10.775   8.684   9.021  1.4636 -1.2563 -2.1730
  285bbb    H18 8263  10.904   8.568   9.052  0.8118  0.9339  1.5233
  285bbb     O1 8264  10.498   8.889   9.554 -0.0191 -0.3293 -0.2368
  286bbb     N1 8265  10.909   9.457  10.311  0.4214  0.1113 -0.3751
  286bbb     C1 8266  10.989   9.376  10.407 -0.4295 -0.4086 -0.0535
  286bbb     H1 8267  10.937   9.385  10.503 -0.5581  1.7392 -0.2825
  286bbb     H2 8268  11.094   9.406  10.419 -0.4021 -0.3591 -0.4098
  286bbb     C2 8269  10.920   9.600  10.352  0.5067  0.0525  0.3574
  286bbb     H3 8270  11.005   9.654  10.308 -0.9939  1.8616 -0.4926
  286bbb     H4 8271  10.947   9.611  10.457  1.5695  0.6849  0.0414
  286bbb     C3 8272  10.928   9.444  10.162 -0.2270  0.8868 -0.4530
  286bbb     H5 8273  10.867   9.519  10.111 -1.2925 -0.9038 -1.9389
  286bbb     H6 8274  10.900   9.342  10.133 -0.4290 -0.0640  2.7138
  286bbb     C4 8275  11.076   9.461  10.122 -0.6708  0.2037  0.0491
  286bbb     H7 8276  11.138   9.382  10.167 -3.0003 -1.3692  0.6839
  286bbb     H8 8277  11.115   9.560  10.148 -0.2142  0.3082 -0.9969
  286bbb     C5 8278  10.983   9.226  10.375  0.0412 -0.1720 -0.2972
  286bbb     H9 8279  11.032   9.212  10.278  0.7758 -0.3999  0.1054
  286bbb    H10 8280  10.881   9.193  10.353 -1.2481  2.7585  0.7288
  286bbb     C6 8281  10.799   9.685  10.316 -0.1960  0.0438  0.1123
  286bbb    H11 8282  10.722   9.634  10.376  0.9011 -1.7188  0.1092
  286bbb    H12 8283  10.791   9.677  10.207  0.7790  1.8225 -0.1145
  286bbb     C7 8284  11.089   9.447   9.972 -0.4435 -0.1961 -0.4830
  286bbb    H13 8285  11.190   9.457   9.931 -0.3430 -1.6255 -0.6208
  286bbb    H14 8286  11.028   9.523   9.921 -1.8373  0.3421  1.7823
  286bbb     C8 8287  10.796   9.843  10.343 -0.5380 -0.4342 -0.7376
  286bbb    H15 8288  10.891   9.895  10.323 -1.3459  1.1128 -0.7347
  286bbb    H16 8289  10.768   9.868  10.446  1.5320 -1.9753  0.2633
  286bbb     C9 8290  11.043   9.137  10.491 -0.3803  0.3901 -0.0506
  286bbb    H17 8291  10.992   9.040  10.487 -1.2914  0.6205  3.0736
  286bbb    H18 8292  11.006   9.176  10.587 -1.4742 -0.1740 -0.2290
  286bbb     O1 8293  11.052   9.316   9.938  0.3938 -0.6593 -0.0944
  287bbb     N1 8294   6.634   4.570   6.768  0.1126 -0.0960  0.5950
  287bbb     C1 8295   6.653   4.419   6.765 -0.1910  0.1316 -0.1575
  287bbb     H1 8296   6.654   4.388   6.660  0.7470  1.3082 -0.5150
  287bbb     H2 8297   6.572   4.364   6.816  0.4670 -0.5720  0.1469
  287bbb     C2 8298   6.522   4.623   6.691 -0.4492  0.0983  0.4594
  287bbb     H3 8299   6.528   4.733   6.687  0.5181  0.0271 -0.1994
  287bbb     H4 8300   6.432   4.606   6.751  0.7393 -1.0575  2.0193
  287bbb     C3 8301   6.642   4.636   6.898  0.0143  0.1978 -0.0979
  287bbb     H5 8302   6.715   4.591   6.967 -0.6656 -1.3595 -0.3515
  287bbb     H6 8303   6.542   4.638   6.942 -0.1418 -1.8012 -0.2621
  287bbb     C4 8304   6.696   4.784   6.890  0.5295  0.4344 -0.0473
  287bbb     H7 8305   6.653   4.845   6.970  0.5158  1.7887 -1.0505
  287bbb     H8 8306   6.662   4.832   6.797 -0.8282 -0.1085  0.1410
  287bbb     C5 8307   6.784   4.381   6.840 -0.2726 -0.5060  0.5657
  287bbb     H9 8308   6.773   4.397   6.948 -0.6193  2.1716  0.2115
  287bbb    H10 8309   6.858   4.454   6.805 -1.3290  1.5901  2.4499
  287bbb     C6 8310   6.520   4.576   6.544  0.0484  0.2279 -0.2228
  287bbb    H11 8311   6.484   4.472   6.554 -1.4739  0.8096  0.8028
  287bbb    H12 8312   6.620   4.591   6.502  0.8728 -0.6069  1.3438
  287bbb     C7 8313   6.850   4.796   6.886  1.3114 -0.2184  0.6346
  287bbb    H13 8314   6.897   4.710   6.836  0.7322 -1.4640  2.1513
  287bbb    H14 8315   6.883   4.794   6.990 -1.3222  1.5537  1.6205
  287bbb     C8 8316   6.422   4.668   6.463 -0.3436  0.7386 -0.4231
  287bbb    H15 8317   6.435   4.775   6.487 -0.7710  0.9906 -1.2895
  287bbb    H16 8318   6.321   4.652   6.503  0.3236 -2.6994  0.1992
  287bbb     C9 8319   6.833   4.242   6.808  0.1429  0.2152 -0.2969
  287bbb    H17 8320   6.917   4.229   6.879  1.1925  0.9389 -1.3689
  287bbb    H18 8321   6.881   4.245   6.710  1.9124  0.0233  0.5195
  287bbb     O1 8322   6.881   4.923   6.825 -0.2057  0.1084  0.0106
  288bbb     N1 8323   7.763   4.755   6.310  0.3575 -0.1437  0.2957
  288bbb     C1 8324   7.808   4.688   6.437  0.3785  0.0642  0.1001
  288bbb     H1 8325   7.737   4.609   6.467  1.8562 -0.8267  1.3894
  288bbb     H2 8326   7.826   4.755   6.522  1.5693 -2.0305  1.5871
  288bbb     C2 8327   7.855   4.855   6.259 -0.0650  0.0045  0.2544
  288bbb     H3 8328   7.822   4.871   6.156  1.3270  4.2079  0.2655
  288bbb     H4 8329   7.956   4.812   6.259 -0.2491 -0.4250 -0.0689
  288bbb     C3 8330   7.616   4.783   6.308 -0.1742  0.1677 -0.7278
  288bbb     H5 8331   7.591   4.854   6.388  0.5701 -1.5017  1.0480
  288bbb     H6 8332   7.563   4.697   6.351 -0.0395  1.1634  1.6018
  288bbb     C4 8333   7.550   4.831   6.179 -0.4386  0.0720 -0.0851
  288bbb     H7 8334   7.537   4.743   6.114  0.4370  0.1169 -0.3459
  288bbb     H8 8335   7.619   4.905   6.136  0.4719 -1.4845 -1.4534
  288bbb     C5 8336   7.927   4.592   6.414 -0.5033  0.1662  0.0991
  288bbb     H9 8337   8.021   4.639   6.381  0.4470 -0.7359  1.4608
  288bbb    H10 8338   7.897   4.529   6.329 -1.9944 -0.1122  0.7958
  288bbb     C6 8339   7.850   4.991   6.338  0.2926 -0.1590  0.0306
  288bbb    H11 8340   7.818   4.974   6.442 -1.2059 -0.5001 -0.4677
  288bbb    H12 8341   7.776   5.055   6.288  0.8070 -0.5283 -1.2198
  288bbb     C7 8342   7.412   4.892   6.220  0.4929  0.1225  0.3220
  288bbb    H13 8343   7.362   4.814   6.279  0.0330  0.4404  0.3567
  288bbb    H14 8344   7.350   4.908   6.131  1.5977 -1.0996 -0.7253
  288bbb     C8 8345   7.981   5.066   6.335 -0.5087 -0.2959 -0.1954
  288bbb    H15 8346   8.050   4.991   6.376 -0.8413 -0.3835  0.2072
  288bbb    H16 8347   7.985   5.150   6.405  1.8436 -0.6038  0.1116
  288bbb     C9 8348   7.973   4.510   6.535  0.0422 -0.1757  0.1166
  288bbb    H17 8349   8.011   4.417   6.491  1.2116 -0.1825  1.0919
  288bbb    H18 8350   7.902   4.475   6.612 -1.2480  0.6561 -0.6727
  288bbb     O1 8351   7.435   5.015   6.284  0.4428 -0.0677 -0.3815
  289bbb     N1 8352   7.370   5.923   5.743  0.5620 -0.0147  0.2274
  289bbb     C1 8353   7.417   5.996   5.622 -0.9227 -0.4000 -0.5815
  289bbb     H1 8354   7.433   5.928   5.538  2.8397 -1.8375  1.0598
  289bbb     H2 8355   7.517   6.039   5.642 -1.6627  0.7845  0.7969
  289bbb     C2 8356   7.465   5.809   5.775 -0.6900  0.1052  0.6633
  289bbb     H3 8357   7.460   5.768   5.877 -1.3890  0.9660  0.9824
  289bbb     H4 8358   7.567   5.849   5.770 -1.2157  1.7445  2.0957
  289bbb     C3 8359   7.224   5.906   5.757  0.3892  0.2848 -0.8446
  289bbb     H5 8360   7.203   5.807   5.714 -1.5215 -0.3044  1.2666
  289bbb     H6 8361   7.169   5.987   5.709  0.3040  1.0730  0.5354
  289bbb     C4 8362   7.182   5.904   5.902 -0.4430 -0.4877  0.4193
  289bbb     H7 8363   7.226   5.816   5.950  1.8718  0.2265 -0.2828
  289bbb     H8 8364   7.073   5.891   5.905 -0.9902  2.4280 -1.9989
  289bbb     C5 8365   7.348   6.129   5.574 -0.1776  0.0077  0.6308
  289bbb     H9 8366   7.244   6.108   5.546  0.0323  0.4488 -0.5360
  289bbb    H10 8367   7.393   6.164   5.480 -2.8001  0.4599 -0.5556
  289bbb     C6 8368   7.444   5.687   5.684 -0.8180 -0.1624  0.0300
  289bbb    H11 8369   7.454   5.709   5.577 -1.3707 -0.2142 -0.0339
  289bbb    H12 8370   7.341   5.652   5.697  0.1389 -2.4824  2.3710
  289bbb     C7 8371   7.215   6.033   5.976 -0.0092  0.5708 -0.5944
  289bbb    H13 8372   7.180   6.115   5.913 -3.1321 -0.5416 -0.4764
  289bbb    H14 8373   7.322   6.046   5.996 -0.2370 -0.2891  1.4296
  289bbb     C8 8374   7.539   5.572   5.719 -0.4262 -0.0477 -0.5366
  289bbb    H15 8375   7.525   5.538   5.822 -0.8583  1.0451 -0.2103
  289bbb    H16 8376   7.639   5.617   5.721 -1.8786  3.5100  1.5121
  289bbb     C9 8377   7.357   6.237   5.684  0.2567 -0.2478 -0.5774
  289bbb    H17 8378   7.459   6.277   5.684  0.1409  0.0565 -1.1208
  289bbb    H18 8379   7.335   6.189   5.780  0.6860 -0.6414 -0.6714
  289bbb     O1 8380   7.139   6.038   6.101 -0.6795  0.1828  0.2320
  290bbb     N1 8381   7.503   7.097   6.408 -0.2391 -0.2134  0.2937
  290bbb     C1 8382   7.638   7.118   6.345  0.4885  0.2612  0.2565
  290bbb     H1 8383   7.676   7.214   6.381 -0.6059  0.5101  0.7907
  290bbb     H2 8384   7.621   7.116   6.236 -2.2356  0.3418  0.6090
  290bbb     C2 8385   7.416   7.224   6.411  0.1727 -0.1432 -0.0387
  290bbb     H3 8386   7.488   7.304   6.433  2.0268 -0.6335 -3.6009
  290bbb     H4 8387   7.346   7.226   6.495  0.2839 -0.0197  0.0507
  290bbb     C3 8388   7.427   6.977   6.360  0.4493 -0.0320 -0.1017
  290bbb     H5 8389   7.500   6.897   6.378 -0.6633 -0.8550  0.9142
  290bbb     H6 8390   7.402   6.983   6.254  0.9377 -0.3979 -0.2380
  290bbb     C4 8391   7.297   6.936   6.431 -1.0027 -0.3635  0.4694
  290bbb     H7 8392   7.222   7.016   6.440 -3.1474 -2.2383  0.3621
  290bbb     H8 8393   7.318   6.907   6.535  0.6032 -1.4222 -0.1096
  290bbb     C5 8394   7.745   7.012   6.387 -0.1673 -1.3518 -0.5199
  290bbb     H9 8395   7.733   6.919   6.329  0.3402 -1.5803 -0.2623
  290bbb    H10 8396   7.736   6.991   6.494  2.6713 -0.7056 -0.0651
  290bbb     C6 8397   7.348   7.272   6.282 -0.3206  0.2930  0.8061
  290bbb    H11 8398   7.258   7.216   6.254 -0.4906  0.0974  1.7052
  290bbb    H12 8399   7.421   7.261   6.201 -1.4252  0.3661 -0.2186
  290bbb     C7 8400   7.233   6.806   6.365 -0.0737 -0.4423 -0.5650
  290bbb    H13 8401   7.316   6.737   6.348  1.6740  1.8511 -1.9798
  290bbb    H14 8402   7.181   6.840   6.274  1.1592  2.0406 -0.4123
  290bbb     C8 8403   7.300   7.417   6.296 -0.2459  0.2175 -0.0133
  290bbb    H15 8404   7.288   7.467   6.199  1.3342 -0.2925 -0.5009
  290bbb    H16 8405   7.369   7.482   6.352  1.2445  0.1236 -1.6645
  290bbb     C9 8406   7.886   7.067   6.357  0.9349  0.3012 -0.6127
  290bbb    H17 8407   7.909   7.166   6.400 -1.3132  0.4153  0.4455
  290bbb    H18 8408   7.883   7.092   6.250 -1.1964 -0.3353 -0.7353
  290bbb     O1 8409   7.136   6.751   6.466  0.4439 -0.4923  0.2395
  291bbb     N1 8410   6.936   5.849   9.152 -0.0656 -0.2131  0.7333
  291bbb     C1 8411   6.870   5.926   9.045 -0.4707  0.6750  0.3877
  291bbb     H1 8412   6.785   5.868   9.008  0.3317 -0.4912  0.3038
  291bbb     H2 8413   6.943   5.930   8.964 -3.4583  1.5430 -2.4554
  291bbb     C2 8414   7.042   5.913   9.231  0.0773  0.3056 -0.0902
  291bbb     H3 8415   7.018   6.017   9.257 -0.5152  0.3226 -0.6732
  291bbb     H4 8416   7.132   5.917   9.169 -1.0951 -0.4281 -1.9251
  291bbb     C3 8417   6.975   5.709   9.107 -0.1021  0.0967 -0.8906
  291bbb     H5 8418   6.893   5.667   9.047 -0.8278  0.7670 -0.3905
  291bbb     H6 8419   6.983   5.645   9.195 -2.0962 -0.3067 -0.9617
  291bbb     C4 8420   7.100   5.702   9.025  0.3054  0.4295 -0.2876
  291bbb     H7 8421   7.187   5.702   9.093 -0.8769 -1.1556  1.3232
  291bbb     H8 8422   7.113   5.780   8.949 -0.5306  0.1094 -0.7674
  291bbb     C5 8423   6.808   6.063   9.084  1.0482 -0.5851  0.6461
  291bbb     H9 8424   6.890   6.130   9.114  0.0967  0.7004  0.4319
  291bbb    H10 8425   6.746   6.049   9.173 -4.7122  1.8454 -2.5126
  291bbb     C6 8426   7.087   5.839   9.360 -0.4278  0.3504  0.4316
  291bbb    H11 8427   7.159   5.904   9.412  0.4011 -0.8105  0.7732
  291bbb    H12 8428   7.132   5.741   9.344 -2.7591 -0.8082  0.5667
  291bbb     C7 8429   7.110   5.578   8.928  0.3643 -0.3169  0.0838
  291bbb    H13 8430   7.100   5.480   8.976  0.4660 -1.7823 -2.6533
  291bbb    H14 8431   7.211   5.579   8.884  0.1099 -1.1282 -0.5447
  291bbb     C8 8432   6.976   5.811   9.466 -0.0670  0.3681  0.1790
  291bbb    H15 8433   6.933   5.716   9.430  0.9818  0.6291 -1.9115
  291bbb    H16 8434   7.026   5.793   9.562  0.5753  0.9263 -0.0449
  291bbb     C9 8435   6.724   6.111   8.966  0.3337  0.0062  0.7865
  291bbb    H17 8436   6.645   6.038   8.944 -0.7644  1.4715 -0.3334
  291bbb    H18 8437   6.678   6.210   8.978 -0.1201  0.2210 -1.9737
  291bbb     O1 8438   7.018   5.587   8.818  0.3124 -0.3117  0.2634
  292bbb     N1 8439   6.145   4.832   8.233  0.6830  0.2876 -0.4618
  292bbb     C1 8440   6.122   4.681   8.244  0.3894 -0.2596  0.4373
  292bbb     H1 8441   6.201   4.629   8.300  1.0612  0.7073  0.4157
  292bbb     H2 8442   6.145   4.644   8.143  2.0070  0.1172  0.6321
  292bbb     C2 8443   6.061   4.894   8.129  0.9953 -0.0970 -0.0409
  292bbb     H3 8444   5.958   4.907   8.164  1.0294 -0.3358  0.1460
  292bbb     H4 8445   6.043   4.827   8.043  0.3997  0.3311 -0.2599
  292bbb     C3 8446   6.163   4.906   8.358 -0.1173  0.8618  0.3122
  292bbb     H5 8447   6.127   4.848   8.445  0.2012 -2.1666 -1.4177
  292bbb     H6 8448   6.117   5.005   8.346 -1.1246  0.3082 -0.5918
  292bbb     C4 8449   6.309   4.922   8.375 -0.0362  0.0021 -0.2482
  292bbb     H7 8450   6.357   4.969   8.289 -4.5457  1.6541 -2.1428
  292bbb     H8 8451   6.353   4.822   8.386 -0.7605 -0.1849  1.2859
  292bbb     C5 8452   5.990   4.629   8.303  0.0383  0.6792 -0.1608
  292bbb     H9 8453   5.904   4.663   8.243  0.7044  1.9713 -0.4350
  292bbb    H10 8454   5.984   4.671   8.405  0.2818  2.5748 -0.8796
  292bbb     C6 8455   6.113   5.025   8.075  0.5014 -0.0772  0.1467
  292bbb    H11 8456   6.219   5.007   8.052 -0.0266 -2.2015 -0.8367
  292bbb    H12 8457   6.093   5.112   8.139 -1.2501 -0.6687  0.4515
  292bbb     C7 8458   6.350   4.996   8.505 -0.3315  0.2032 -0.6469
  292bbb    H13 8459   6.302   4.940   8.586  0.8115  0.2444  0.0867
  292bbb    H14 8460   6.290   5.087   8.497 -2.5591 -1.3723 -5.8374
  292bbb     C8 8461   6.037   5.071   7.953  0.1985  0.5258  0.3965
  292bbb    H15 8462   5.933   5.096   7.975  0.7459  0.4832  3.4693
  292bbb    H16 8463   6.025   4.981   7.890 -1.9275  1.1576 -0.1812
  292bbb     C9 8464   5.986   4.475   8.296 -0.2409 -0.3828  0.1330
  292bbb    H17 8465   6.020   4.453   8.194 -1.1005 -1.6544  0.0987
  292bbb    H18 8466   5.884   4.435   8.305 -0.3329  0.1745  1.9451
  292bbb     O1 8467   6.496   5.013   8.513 -0.3459  0.1993 -0.1765
  293bbb     N1 8468   6.911   7.002   9.035 -0.0134 -0.2658 -0.7626
  293bbb     C1 8469   6.864   6.917   9.148 -0.0089  0.5742  0.1813
  293bbb     H1 8470   6.757   6.893   9.145 -0.1629  1.1314  0.9391
  293bbb     H2 8471   6.878   6.969   9.243 -1.0374 -1.7145  1.6810
  293bbb     C2 8472   7.018   7.102   9.073 -0.7489  0.5143 -0.2055
  293bbb     H3 8473   7.054   7.143   8.978 -1.6728 -1.5930 -1.5675
  293bbb     H4 8474   7.103   7.052   9.122  0.3497  3.2766  0.8781
  293bbb     C3 8475   6.939   6.913   8.920 -0.5593 -0.8191  0.0964
  293bbb     H5 8476   6.873   6.825   8.915 -0.3900 -0.9554  0.2133
  293bbb     H6 8477   7.041   6.877   8.938  0.7462  2.5412  0.1499
  293bbb     C4 8478   6.927   6.991   8.784  0.5098  1.1060  0.4345
  293bbb     H7 8479   6.976   7.089   8.792  0.7000  1.1535 -1.1026
  293bbb     H8 8480   6.819   7.005   8.769  0.0257 -0.5324  1.9989
  293bbb     C5 8481   6.945   6.795   9.170  0.2193  0.3207 -0.3520
  293bbb     H9 8482   7.049   6.829   9.172  0.5548 -0.2468 -3.3430
  293bbb    H10 8483   6.947   6.721   9.089 -1.6011 -1.8591  1.4618
  293bbb     C6 8484   6.967   7.211   9.169 -0.1054 -0.5262 -0.2705
  293bbb    H11 8485   6.885   7.179   9.234  0.8242  2.0970  2.4316
  293bbb    H12 8486   6.923   7.285   9.102 -0.0713 -0.0385  0.2350
  293bbb     C7 8487   6.981   6.926   8.659 -0.0725  0.1438  0.4125
  293bbb    H13 8488   7.051   6.845   8.684 -0.6278 -0.4407  0.0967
  293bbb    H14 8489   7.038   7.007   8.612 -1.4186  1.0608  0.3276
  293bbb     C8 8490   7.072   7.289   9.251  0.5346  0.0247  0.3757
  293bbb    H15 8491   7.113   7.220   9.325  0.2787 -0.3081  0.2113
  293bbb    H16 8492   7.020   7.367   9.308  0.6254 -0.2506  0.8358
  293bbb     C9 8493   6.896   6.724   9.298 -0.0299 -1.3593  0.4226
  293bbb    H17 8494   6.928   6.620   9.306  0.4184 -1.4647 -2.0811
  293bbb    H18 8495   6.787   6.729   9.308  0.1720  1.6626  2.8399
  293bbb     O1 8496   6.864   6.879   8.581 -0.2633 -0.2277 -0.1234
  294bbb     N1 8497   6.247   7.174   7.915 -0.5579 -0.7194 -0.1751
  294bbb     C1 8498   6.164   7.289   7.869 -0.7076 -0.2605 -0.1760
  294bbb     H1 8499   6.217   7.321   7.779 -0.7595  0.1157 -0.0713
  294bbb     H2 8500   6.166   7.379   7.932  4.0674  0.6022 -1.2017
  294bbb     C2 8501   6.389   7.215   7.936  0.6637 -0.0717 -0.2337
  294bbb     H3 8502   6.427   7.153   8.018 -1.5888  1.3900  2.0618
  294bbb     H4 8503   6.397   7.319   7.970  3.0710  0.2803 -1.6667
  294bbb     C3 8504   6.193   7.095   8.023  0.4302  1.1604 -0.3128
  294bbb     H5 8505   6.261   7.010   8.039 -2.5742 -1.9263 -2.4763
  294bbb     H6 8506   6.102   7.043   7.993  0.2342  0.7857  0.8574
  294bbb     C4 8507   6.165   7.186   8.150  0.3179  0.0155  0.2923
  294bbb     H7 8508   6.073   7.245   8.141 -0.3253 -1.1209 -0.9326
  294bbb     H8 8509   6.237   7.268   8.154  0.2199  0.2088 -1.3463
  294bbb     C5 8510   6.027   7.246   7.838 -0.1161  0.0723 -0.3393
  294bbb     H9 8511   5.967   7.214   7.924 -0.6513 -0.8645 -1.0369
  294bbb    H10 8512   6.036   7.156   7.776 -1.9773 -1.1703  1.0713
  294bbb     C6 8513   6.468   7.213   7.804  0.2762 -0.6733  0.1456
  294bbb    H11 8514   6.440   7.300   7.743 -0.1165  0.1301  1.4276
  294bbb    H12 8515   6.445   7.123   7.746 -1.6836 -0.1825  0.0854
  294bbb     C7 8516   6.168   7.099   8.281  0.2779 -0.5122  0.3318
  294bbb    H13 8517   6.098   7.014   8.280  0.1672 -0.4176  0.0529
  294bbb    H14 8518   6.136   7.154   8.371  1.0040 -0.0347  0.3083
  294bbb     C8 8519   6.617   7.218   7.821 -0.4219  0.1421  0.5605
  294bbb    H15 8520   6.657   7.120   7.851 -2.0325 -0.5918  0.4306
  294bbb    H16 8521   6.644   7.295   7.895  0.3872  5.0342 -4.2468
  294bbb     C9 8522   5.929   7.347   7.775 -0.7048 -0.5085  0.0470
  294bbb    H17 8523   5.960   7.389   7.679  0.4039  1.6128  1.2761
  294bbb    H18 8524   5.929   7.437   7.838 -4.7868 -0.9236  0.9812
  294bbb     O1 8525   6.305   7.044   8.289  0.5293  0.2498 -0.0211
  295bbb     N1 8526   9.457   7.071   8.094 -0.1431 -0.6469 -0.3978
  295bbb     C1 8527   9.424   7.169   8.197 -0.1040 -0.2809  0.1264
  295bbb     H1 8528   9.473   7.135   8.289  0.5619 -0.2113 -0.1990
  295bbb     H2 8529   9.316   7.165   8.220  0.0037 -3.9081  0.5988
  295bbb     C2 8530   9.458   6.936   8.156  0.2145  0.1101  0.2187
  295bbb     H3 8531   9.371   6.920   8.219  0.1205  2.5546  0.8142
  295bbb     H4 8532   9.552   6.947   8.212 -0.3261  1.5908  0.8830
  295bbb     C3 8533   9.383   7.088   7.964 -0.3856  0.2711  0.0836
  295bbb     H5 8534   9.430   7.024   7.888 -2.2472  0.7394 -1.5540
  295bbb     H6 8535   9.399   7.191   7.928 -0.0843  0.1286 -0.1874
  295bbb     C4 8536   9.231   7.052   7.966 -0.4445  0.4154 -0.0068
  295bbb     H7 8537   9.176   7.132   8.016  0.4668 -1.7723  5.1074
  295bbb     H8 8538   9.209   6.959   8.020  0.8136 -0.6759 -1.2917
  295bbb     C5 8539   9.480   7.313   8.164 -0.1200 -0.0199  0.4175
  295bbb     H9 8540   9.424   7.337   8.073 -0.1245 -1.1670  0.1003
  295bbb    H10 8541   9.585   7.297   8.136  0.2301  2.9346 -0.3393
  295bbb     C6 8542   9.472   6.814   8.057  0.5430 -0.5125  0.0727
  295bbb    H11 8543   9.386   6.811   7.989  0.8783 -0.4978 -0.3550
  295bbb    H12 8544   9.477   6.719   8.112  1.1843 -0.3555  0.2965
  295bbb     C7 8545   9.175   7.032   7.824 -0.2478  0.3549  0.0832
  295bbb    H13 8546   9.239   6.967   7.763 -0.2460  0.6985 -0.2879
  295bbb    H14 8547   9.182   7.127   7.770 -1.3356  0.4933  0.1629
  295bbb     C8 8548   9.592   6.836   7.958 -0.1473 -0.1932 -0.0100
  295bbb    H15 8549   9.685   6.849   8.016  0.4964 -0.6370 -0.9273
  295bbb    H16 8550   9.596   6.929   7.900  0.5609 -0.3891 -0.2817
  295bbb     C9 8551   9.460   7.423   8.273  0.4129 -0.6711  0.0007
  295bbb    H17 8552   9.532   7.402   8.353 -1.2251 -2.3130  1.1072
  295bbb    H18 8553   9.358   7.416   8.312  0.4592 -0.4506  0.1625
  295bbb     O1 8554   9.035   6.988   7.819  0.0377 -0.2898  0.4648
  296bbb     N1 8555   9.182   6.863   6.628 -0.0425  0.3000 -0.1054
  296bbb     C1 8556   9.197   6.992   6.559 -0.3775 -0.3910 -0.2375
  296bbb     H1 8557   9.287   6.991   6.496  1.1993  1.5570  1.8060
  296bbb     H2 8558   9.207   7.080   6.624 -0.2572 -0.5130 -0.0921
  296bbb     C2 8559   9.303   6.805   6.708  0.1499  0.1991 -0.0409
  296bbb     H3 8560   9.279   6.709   6.754 -0.4597  0.4523  0.1832
  296bbb     H4 8561   9.338   6.871   6.789 -0.4927  0.8800 -0.3039
  296bbb     C3 8562   9.051   6.833   6.692 -0.1121 -0.5229  0.5264
  296bbb     H5 8563   9.045   6.724   6.706  0.8718 -0.5476  0.7869
  296bbb     H6 8564   8.972   6.859   6.621 -1.2409 -1.7415  1.2754
  296bbb     C4 8565   9.024   6.894   6.834  0.0892  0.3383  0.3956
  296bbb     H7 8566   9.004   7.001   6.824 -0.8115  0.1610  0.1792
  296bbb     H8 8567   9.111   6.878   6.898  1.3823 -0.5079 -1.4526
  296bbb     C5 8568   9.078   7.024   6.457 -0.3708  0.8333 -0.8655
  296bbb     H9 8569   8.999   7.066   6.521  0.1845 -0.7038  0.9061
  296bbb    H10 8570   9.036   6.934   6.409  0.4185  0.3877 -0.7388
  296bbb     C6 8571   9.424   6.771   6.622 -0.5975 -0.0178 -0.3977
  296bbb    H11 8572   9.478   6.862   6.595  1.9507  0.0748  3.9375
  296bbb    H12 8573   9.393   6.719   6.531 -1.9520  1.6319 -0.9413
  296bbb     C7 8574   8.904   6.823   6.900 -0.0296  0.6024 -0.1257
  296bbb    H13 8575   8.896   6.717   6.872 -4.2909  0.3108  1.4517
  296bbb    H14 8576   8.807   6.861   6.867  0.0519  0.2270 -0.8368
  296bbb     C8 8577   9.523   6.680   6.700  0.4209  0.9358  0.4179
  296bbb    H15 8578   9.595   6.654   6.622  0.4237  4.9596 -1.1583
  296bbb    H16 8579   9.476   6.590   6.741  0.7176  0.3504 -0.5122
  296bbb     C9 8580   9.106   7.138   6.352 -0.2203  0.6087 -0.5281
  296bbb    H17 8581   9.008   7.151   6.304 -0.7900 -1.3258  0.0113
  296bbb    H18 8582   9.175   7.095   6.278 -0.8344 -1.4218  0.0296
  296bbb     O1 8583   8.924   6.834   7.042 -0.1929  0.5070 -0.3139
  297bbb     N1 8584   9.389   5.043   7.885 -0.7125 -0.7876 -0.4480
  297bbb     C1 8585   9.474   5.165   7.861  0.4522  0.1630  0.9227
  297bbb     H1 8586   9.421   5.261   7.868  1.8166  1.3602 -2.5428
  297bbb     H2 8587   9.508   5.165   7.756 -1.1872 -2.7052  0.2918
  297bbb     C2 8588   9.297   5.025   7.764  0.1968  0.1460 -0.3306
  297bbb     H3 8589   9.355   5.021   7.671  0.8977 -2.2395  0.1351
  297bbb     H4 8590   9.225   5.107   7.753  0.5104  0.1875 -2.5750
  297bbb     C3 8591   9.325   5.035   8.018 -0.3523  0.3077  0.1874
  297bbb     H5 8592   9.407   5.035   8.091  0.6183 -1.1507 -0.8601
  297bbb     H6 8593   9.284   4.933   8.011 -0.5616  0.5133 -2.4737
  297bbb     C4 8594   9.216   5.135   8.054  0.4067  0.3433 -0.0488
  297bbb     H7 8595   9.136   5.136   7.979  1.7487 -2.1989 -1.6263
  297bbb     H8 8596   9.260   5.235   8.064 -0.6444  0.9618 -1.3037
  297bbb     C5 8597   9.593   5.169   7.955  0.0317 -0.0016  0.4159
  297bbb     H9 8598   9.642   5.071   7.941  2.1480  1.3229 -2.6055
  297bbb    H10 8599   9.539   5.182   8.049 -1.5339 -0.7552 -0.3347
  297bbb     C6 8600   9.206   4.897   7.759  0.1227  0.0902  0.2908
  297bbb    H11 8601   9.160   4.889   7.660 -0.5255 -0.5572  0.6400
  297bbb    H12 8602   9.126   4.912   7.832  0.1202  1.4655  0.0314
  297bbb     C7 8603   9.147   5.091   8.183 -0.3764 -1.3964  0.0307
  297bbb    H13 8604   9.230   5.051   8.243 -1.3406 -0.6808  1.8863
  297bbb    H14 8605   9.071   5.017   8.157 -0.7647 -1.1842  0.5651
  297bbb     C8 8606   9.290   4.764   7.776 -0.0464 -0.1852  0.2082
  297bbb    H15 8607   9.352   4.769   7.866  0.1654 -0.3137  0.0713
  297bbb    H16 8608   9.354   4.751   7.688 -1.6783 -0.0624 -1.0574
  297bbb     C9 8609   9.701   5.275   7.928  0.1288  0.1502  0.6212
  297bbb    H17 8610   9.653   5.373   7.944 -1.2777 -0.4959  0.5221
  297bbb    H18 8611   9.735   5.285   7.824  0.3793 -0.4973  0.6373
  297bbb     O1 8612   9.095   5.207   8.254  0.1272 -0.3686  0.4799
  298bbb     N1 8613   9.217   4.868   7.259 -0.0300  0.3794 -0.4982
  298bbb     C1 8614   9.194   4.792   7.133  0.2484 -0.6800 -0.2992
  298bbb     H1 8615   9.284   4.807   7.073  0.7355 -0.5384  0.4565
  298bbb     H2 8616   9.112   4.837   7.075  0.2390  0.4512  0.5615
  298bbb     C2 8617   9.290   4.800   7.369 -0.1962  0.4124 -0.1663
  298bbb     H3 8618   9.254   4.697   7.374  0.5199  0.1632 -0.1511
  298bbb     H4 8619   9.254   4.849   7.461 -1.8958  1.5840 -1.3826
  298bbb     C3 8620   9.235   5.009   7.242  0.3925  0.5885 -0.3821
  298bbb     H5 8621   9.163   5.044   7.166  1.2263  1.0883 -0.9626
  298bbb     H6 8622   9.337   5.021   7.202  1.3734 -1.5305  1.2503
  298bbb     C4 8623   9.218   5.097   7.370  0.4440  0.1401 -0.0613
  298bbb     H7 8624   9.235   5.204   7.355 -2.6337  0.8932  1.1211
  298bbb     H8 8625   9.295   5.074   7.445 -1.2390 -0.5035  1.5517
  298bbb     C5 8626   9.160   4.642   7.139 -0.7496 -1.2864  0.4977
  298bbb     H9 8627   9.086   4.622   7.217  0.7076 -2.1549  1.7129
  298bbb    H10 8628   9.246   4.574   7.151 -0.4024 -0.8375  0.5767
  298bbb     C6 8629   9.445   4.800   7.357  0.1659 -0.2032  0.2720
  298bbb    H11 8630   9.484   4.901   7.378  1.9217 -1.1094  1.5741
  298bbb    H12 8631   9.469   4.772   7.253  0.8321 -1.0912  0.6571
  298bbb     C7 8632   9.073   5.089   7.415  0.4815  0.1162 -0.8019
  298bbb    H13 8633   9.040   4.985   7.426 -0.2293  0.3825 -0.3659
  298bbb    H14 8634   9.009   5.135   7.339 -0.0384  0.6962 -0.0315
  298bbb     C8 8635   9.526   4.711   7.449 -0.3601 -0.4005 -0.1397
  298bbb    H15 8636   9.549   4.759   7.545 -0.1238 -0.7204 -0.0361
  298bbb    H16 8637   9.628   4.700   7.408 -1.2205 -1.4684 -2.1605
  298bbb     C9 8638   9.085   4.614   7.006 -0.1343 -0.8360 -0.2748
  298bbb    H17 8639   9.072   4.508   6.985 -0.1936 -1.0236  0.6546
  298bbb    H18 8640   9.140   4.656   6.921 -1.9193 -0.6819 -1.4080
  298bbb     O1 8641   9.060   5.149   7.544  0.0290 -0.3246 -0.2263
  299bbb     N1 8642   7.615   4.611   7.567  0.1691 -0.5331 -0.3075
  299bbb     C1 8643   7.505   4.703   7.529  0.2480 -0.3848 -0.0607
  299bbb     H1 8644   7.414   4.652   7.496 -0.1607  0.0225  0.4283
  299bbb     H2 8645   7.545   4.753   7.440  0.6189 -0.5310  0.0189
  299bbb     C2 8646   7.745   4.673   7.538 -0.2664  0.6693  0.5658
  299bbb     H3 8647   7.811   4.590   7.565  0.6484  0.7706 -1.2503
  299bbb     H4 8648   7.777   4.756   7.601  0.0685  1.9585 -1.2198
  299bbb     C3 8649   7.596   4.544   7.695 -0.3700  0.0466  0.0781
  299bbb     H5 8650   7.600   4.610   7.782 -0.8160 -1.3302  1.1939
  299bbb     H6 8651   7.675   4.470   7.715 -0.7475 -0.1651  0.7871
  299bbb     C4 8652   7.460   4.468   7.699  0.1113 -0.4360  0.2887
  299bbb     H7 8653   7.450   4.400   7.613  2.3741  0.2375 -0.5721
  299bbb     H8 8654   7.368   4.527   7.693  0.4481  0.0967  0.3900
  299bbb     C5 8655   7.469   4.812   7.635  0.4813 -0.1652  0.0687
  299bbb     H9 8656   7.563   4.844   7.683  0.1762  3.3968 -1.3537
  299bbb    H10 8657   7.387   4.783   7.703 -0.1820  1.4263  0.0027
  299bbb     C6 8658   7.776   4.695   7.392  0.4879 -0.4280  0.2662
  299bbb    H11 8659   7.749   4.796   7.361 -1.0050 -0.0300  2.6501
  299bbb    H12 8660   7.727   4.614   7.336 -1.2448 -2.0013  3.7683
  299bbb     C7 8661   7.455   4.378   7.824 -0.0180  0.0016  0.1372
  299bbb    H13 8662   7.539   4.308   7.820  1.0352  1.2805 -2.7082
  299bbb    H14 8663   7.363   4.319   7.829 -0.2437  0.3564  0.2151
  299bbb     C8 8664   7.926   4.691   7.376 -0.0598  0.5942  0.2754
  299bbb    H15 8665   7.968   4.762   7.448 -2.3563  0.7918  1.5092
  299bbb    H16 8666   7.951   4.591   7.413 -1.3082 -0.4189 -1.4482
  299bbb     C9 8667   7.416   4.937   7.575 -0.7654 -0.0797  0.2008
  299bbb    H17 8668   7.487   4.967   7.496 -1.8868  0.1477 -0.7525
  299bbb    H18 8669   7.398   5.017   7.648  0.3572 -1.9162  2.6388
  299bbb     O1 8670   7.477   4.465   7.937 -0.1186  0.2826  0.2382
  300bbb     N1 8671   6.607   4.583   8.746 -0.4620  0.0401 -0.7848
  300bbb     C1 8672   6.691   4.464   8.757  0.2478 -0.0093 -0.5018
  300bbb     H1 8673   6.690   4.415   8.659 -1.2753  2.0369 -1.6026
  300bbb     H2 8674   6.644   4.395   8.829 -2.6090  1.2365 -1.0148
  300bbb     C2 8675   6.461   4.546   8.719 -1.0219 -0.5763 -0.5577
  300bbb     H3 8676   6.431   4.457   8.774  0.6928 -1.2115 -0.5909
  300bbb     H4 8677   6.466   4.507   8.617  3.0278 -1.3962 -0.2305
  300bbb     C3 8678   6.662   4.702   8.663 -0.4765  0.0767  0.2238
  300bbb     H5 8679   6.760   4.725   8.705 -1.1149 -0.3361  2.0220
  300bbb     H6 8680   6.594   4.786   8.681 -0.0734  0.5062 -0.2254
  300bbb     C4 8681   6.664   4.669   8.512 -0.7313 -0.3264  0.1975
  300bbb     H7 8682   6.559   4.664   8.480 -1.0311  0.0246  1.1112
  300bbb     H8 8683   6.714   4.576   8.482 -2.1320 -1.0229 -0.0396
  300bbb     C5 8684   6.838   4.493   8.797 -0.2080 -0.0271 -0.0837
  300bbb     H9 8685   6.852   4.557   8.885 -1.6076  1.6826 -1.0285
  300bbb    H10 8686   6.881   4.539   8.706  1.4159 -0.2986  0.5027
  300bbb     C6 8687   6.359   4.662   8.720 -0.3599 -0.3023 -0.6874
  300bbb    H11 8688   6.382   4.733   8.639  1.2834  0.5118  0.4330
  300bbb    H12 8689   6.365   4.713   8.817 -0.7981  0.1546 -0.8933
  300bbb     C7 8690   6.734   4.782   8.435  0.9040  0.1634  0.2747
  300bbb    H13 8691   6.833   4.796   8.479  1.1968  0.0714 -0.3380
  300bbb    H14 8692   6.684   4.879   8.440  1.4051  0.6540 -2.5742
  300bbb     C8 8693   6.214   4.612   8.704  0.4004  0.9736  0.3495
  300bbb    H15 8694   6.212   4.563   8.606  0.4624 -2.3885  1.9277
  300bbb    H16 8695   6.139   4.693   8.698  0.3849  0.9577  0.3241
  300bbb     C9 8696   6.905   4.356   8.826  0.1244 -0.7747 -0.3153
  300bbb    H17 8697   7.013   4.369   8.826  0.2320 -1.5995 -0.7313
  300bbb    H18 8698   6.877   4.282   8.750 -0.2025  0.0086 -0.9712
  300bbb     O1 8699   6.746   4.748   8.295 -0.2772  0.3565 -0.6787
  301bbb     N1 8700   8.807   3.571   8.342 -0.2224 -0.4520  0.7319
  301bbb     C1 8701   8.940   3.526   8.391 -0.1645 -0.5615  0.6464
  301bbb     H1 8702   9.018   3.588   8.345 -1.5971 -1.1478 -2.9496
  301bbb     H2 8703   8.970   3.424   8.367  0.2930 -0.4520  0.7493
  301bbb     C2 8704   8.805   3.612   8.201 -0.8178 -0.5128  0.0027
  301bbb     H3 8705   8.857   3.709   8.198 -2.3235  0.3128 -0.1425
  301bbb     H4 8706   8.701   3.643   8.184 -0.8753 -1.3684 -1.3576
  301bbb     C3 8707   8.697   3.473   8.374 -0.0280  0.4467  0.2567
  301bbb     H5 8708   8.716   3.429   8.473  0.2889  0.2072  0.0878
  301bbb     H6 8709   8.701   3.389   8.305 -0.8381  1.7487 -1.4609
  301bbb     C4 8710   8.555   3.530   8.370  0.0435  0.6784 -0.1120
  301bbb     H7 8711   8.489   3.446   8.395  0.8316  0.0202 -0.2001
  301bbb     H8 8712   8.529   3.563   8.269  2.7201  1.2841 -0.6754
  301bbb     C5 8713   8.950   3.542   8.546 -0.1801 -0.3836 -0.1335
  301bbb     H9 8714   9.043   3.490   8.572  0.4878  0.6738 -0.3547
  301bbb    H10 8715   8.877   3.487   8.606 -1.6510 -0.1094 -1.6073
  301bbb     C6 8716   8.866   3.519   8.091 -0.4579 -0.6134  0.5362
  301bbb    H11 8717   8.820   3.420   8.087 -0.8191 -0.5046  1.6946
  301bbb    H12 8718   8.973   3.514   8.116 -0.6420  0.8515  1.7878
  301bbb     C7 8719   8.541   3.655   8.462 -0.0912 -0.6073  0.3359
  301bbb    H13 8720   8.582   3.741   8.406 -0.1377 -0.1081  1.0568
  301bbb    H14 8721   8.593   3.651   8.559 -1.1868  0.0210  0.9616
  301bbb     C8 8722   8.844   3.574   7.949 -0.3548 -0.1086 -0.7262
  301bbb    H15 8723   8.736   3.578   7.931 -0.5357 -1.5004 -0.1086
  301bbb    H16 8724   8.889   3.493   7.889 -2.8397 -2.0488 -0.1640
  301bbb     C9 8725   8.959   3.695   8.580 -0.5408  0.6939 -0.4471
  301bbb    H17 8726   8.871   3.750   8.545 -3.3441 -1.8610  1.9465
  301bbb    H18 8727   9.046   3.740   8.531 -0.1531  0.8470  0.3747
  301bbb     O1 8728   8.404   3.675   8.504 -0.5135 -0.4810 -0.7583
  302bbb     N1 8729   8.078   4.023   9.170 -0.5079 -0.0240  0.3851
  302bbb     C1 8730   8.178   3.969   9.266  0.2226 -0.1556 -0.2565
  302bbb     H1 8731   8.254   4.045   9.288  1.3947 -1.4128  0.1321
  302bbb     H2 8732   8.207   3.878   9.213 -1.8087 -1.2958  0.4502
  302bbb     C2 8733   7.953   3.944   9.155  0.2094 -0.6886 -0.1396
  302bbb     H3 8734   7.914   3.900   9.248  0.2778 -2.6852 -1.0088
  302bbb     H4 8735   7.970   3.859   9.089 -1.3283 -1.0378 -0.1157
  302bbb     C3 8736   8.139   4.087   9.045 -0.8729  0.3751 -0.2914
  302bbb     H5 8737   8.215   4.157   9.079  0.8586 -1.0454 -1.0638
  302bbb     H6 8738   8.065   4.144   8.986 -3.3289 -2.2527  0.0004
  302bbb     C4 8739   8.211   3.982   8.948 -0.0431 -0.3916 -0.2328
  302bbb     H7 8740   8.137   3.912   8.908 -3.1271  1.1746  2.3358
  302bbb     H8 8741   8.288   3.938   9.012 -1.0319  0.6048  1.7284
  302bbb     C5 8742   8.121   3.907   9.398  0.3683  0.4654  0.0690
  302bbb     H9 8743   8.210   3.862   9.443 -0.1724 -1.1319 -0.3632
  302bbb    H10 8744   8.048   3.827   9.380 -0.9992  1.6483  0.2494
  302bbb     C6 8745   7.833   4.034   9.104  0.3875  0.3736 -0.2008
  302bbb    H11 8746   7.751   3.970   9.071  0.2537  1.4724 -2.1294
  302bbb    H12 8747   7.863   4.104   9.025 -0.4490  1.0218  0.0389
  302bbb     C7 8748   8.274   4.046   8.825  0.1249  0.2213 -0.3191
  302bbb    H13 8749   8.297   3.965   8.754 -0.2093 -0.3733  0.2481
  302bbb    H14 8750   8.366   4.100   8.850 -1.1186  2.2611  0.0964
  302bbb     C8 8751   7.762   4.116   9.215 -0.1227 -0.2820 -0.2946
  302bbb    H15 8752   7.842   4.179   9.256 -0.3034 -0.9057  1.0816
  302bbb    H16 8753   7.730   4.050   9.297 -0.2636  2.4041  1.9874
  302bbb     C9 8754   8.052   4.009   9.488  0.0384  0.3775 -0.2953
  302bbb    H17 8755   7.991   4.080   9.430  0.5572  1.0153 -0.0693
  302bbb    H18 8756   8.126   4.074   9.535  0.6079 -0.0250 -0.6164
  302bbb     O1 8757   8.192   4.151   8.777 -0.4672  0.1952  0.2651
  303bbb     N1 8758   9.496   9.177   5.514 -0.2297 -0.4397  0.2931
  303bbb     C1 8759   9.547   9.288   5.426  0.0561 -0.2389 -0.3962
  303bbb     H1 8760   9.597   9.363   5.488 -2.0579  0.5502  0.4415
  303bbb     H2 8761   9.459   9.343   5.393 -0.4608  1.0749  2.8506
  303bbb     C2 8762   9.590   9.088   5.583 -0.5170 -0.1233 -0.3562
  303bbb     H3 8763   9.643   9.150   5.656 -0.9446 -2.6012  2.2522
  303bbb     H4 8764   9.668   9.049   5.515 -0.8760  3.2203 -2.9507
  303bbb     C3 8765   9.369   9.220   5.591 -0.9512  0.1647 -0.4464
  303bbb     H5 8766   9.321   9.133   5.638 -0.9949 -1.4070 -3.1662
  303bbb     H6 8767   9.295   9.275   5.532 -1.4359  1.1474  1.0174
  303bbb     C4 8768   9.406   9.322   5.703  0.2172 -0.2200 -0.0529
  303bbb     H7 8769   9.439   9.420   5.663  1.5834 -0.9223 -0.7390
  303bbb     H8 8770   9.496   9.280   5.750 -0.4751 -2.1805 -0.4273
  303bbb     C5 8771   9.624   9.239   5.297  0.6360 -0.0357  0.4315
  303bbb     H9 8772   9.546   9.191   5.236  0.9626  1.5700 -1.3509
  303bbb    H10 8773   9.692   9.155   5.316 -0.0749 -0.7868 -0.2289
  303bbb     C6 8774   9.521   8.964   5.653  0.0869  0.0000  0.4105
  303bbb    H11 8775   9.441   8.927   5.588  1.2718 -0.7714 -0.6596
  303bbb    H12 8776   9.482   9.000   5.749  0.7631  0.1221  0.6482
  303bbb     C7 8777   9.292   9.346   5.802 -0.7084 -0.6133 -0.3303
  303bbb    H13 8778   9.200   9.345   5.742  0.1917  0.8345 -1.8008
  303bbb    H14 8779   9.292   9.445   5.849  1.5770  0.9955 -3.4241
  303bbb     C8 8780   9.617   8.837   5.660 -0.3782 -0.0845  0.1131
  303bbb    H15 8781   9.708   8.865   5.715  0.4269 -0.8692 -0.7826
  303bbb    H16 8782   9.647   8.810   5.558  1.1810  0.8650  0.2801
  303bbb     C9 8783   9.704   9.344   5.219  0.4305  0.2179 -0.5117
  303bbb    H17 8784   9.763   9.395   5.296  2.4844 -1.7944 -0.6416
  303bbb    H18 8785   9.632   9.412   5.172 -2.0113 -1.7622  0.1217
  303bbb     O1 8786   9.299   9.239   5.897  0.0344  0.5283  0.7747
  304bbb     N1 8787  10.066   8.981   6.873 -0.0505  0.1950  0.0673
  304bbb     C1 8788  10.070   8.830   6.893 -0.8199  0.2874  0.1180
  304bbb     H1 8789  10.175   8.798   6.902 -0.2111  2.2995  0.8194
  304bbb     H2 8790  10.025   8.786   6.804 -0.1964  0.0737 -0.1003
  304bbb     C2 8791  10.127   9.042   6.992 -0.2617 -0.4418 -0.3131
  304bbb     H3 8792  10.216   8.990   7.030 -0.9302 -1.0496  0.4400
  304bbb     H4 8793  10.059   9.039   7.078  2.2305 -2.6182  1.8039
  304bbb     C3 8794   9.933   9.039   6.821  0.1618  0.4918  0.4577
  304bbb     H5 8795   9.943   9.142   6.782 -0.7693  0.7663  0.9370
  304bbb     H6 8796   9.850   9.044   6.892 -0.8893 -0.8659 -0.6157
  304bbb     C4 8797   9.861   8.952   6.719  0.9913  0.0445  0.6707
  304bbb     H7 8798   9.828   8.864   6.775 -0.2574  2.1656  3.5811
  304bbb     H8 8799   9.931   8.933   6.637  1.5712  1.6898  0.7449
  304bbb     C5 8800   9.990   8.772   7.012 -0.6198  0.3886  0.5000
  304bbb     H9 8801   9.883   8.792   6.994 -0.6238 -0.1382 -0.1127
  304bbb    H10 8802  10.013   8.819   7.108 -0.5912 -2.4540  2.0127
  304bbb     C6 8803  10.160   9.192   6.958  0.4909 -0.6778 -0.1781
  304bbb    H11 8804  10.068   9.244   6.931  0.4862 -0.4771  0.2072
  304bbb    H12 8805  10.235   9.207   6.879  0.2737  1.0610 -0.1071
  304bbb     C7 8806   9.750   9.029   6.643  0.8544  0.6155 -0.2666
  304bbb    H13 8807   9.782   9.121   6.591 -1.4866  0.4739 -2.1134
  304bbb    H14 8808   9.674   9.064   6.714  0.6854  0.5374 -0.4093
  304bbb     C8 8809  10.213   9.260   7.084 -0.1010 -0.2399  0.1130
  304bbb    H15 8810  10.276   9.346   7.059 -0.0044 -0.7425 -1.4957
  304bbb    H16 8811  10.278   9.195   7.143  0.4286 -0.3464 -0.5699
  304bbb     C9 8812  10.020   8.619   7.023 -0.1440 -0.6776  0.6911
  304bbb    H17 8813  10.127   8.596   7.026 -0.2905 -1.4064  0.5777
  304bbb    H18 8814   9.989   8.574   6.928  0.5136 -2.5600  1.3126
  304bbb     O1 8815   9.706   8.927   6.549 -0.0502  0.0273 -0.2172
  305bbb     N1 8816   7.088   9.110   6.709  0.1831 -0.0361  0.2967
  305bbb     C1 8817   6.941   9.111   6.674  0.0102  0.1877  0.1374
  305bbb     H1 8818   6.933   9.136   6.567 -1.1868  1.2976  0.4660
  305bbb     H2 8819   6.891   9.195   6.724  0.8746 -0.2087  1.7247
  305bbb     C2 8820   7.126   9.085   6.861 -0.8200  0.3322 -0.0007
  305bbb     H3 8821   7.139   8.976   6.856 -0.5718  0.3994 -0.8941
  305bbb     H4 8822   7.023   9.058   6.888 -0.6857  0.2505  0.4367
  305bbb     C3 8823   7.153   9.023   6.605  0.1770  0.1214 -0.5005
  305bbb     H5 8824   7.106   8.927   6.579 -0.8590  0.4765 -0.0147
  305bbb     H6 8825   7.248   8.996   6.652 -0.5939 -0.1912  0.9525
  305bbb     C4 8826   7.183   9.090   6.471  0.0524 -0.3457  0.3063
  305bbb     H7 8827   7.191   9.199   6.478  0.0842 -0.4091  1.3538
  305bbb     H8 8828   7.095   9.090   6.405  0.5069  1.9044 -0.3621
  305bbb     C5 8829   6.866   8.983   6.709  0.2142  0.1348 -0.2081
  305bbb     H9 8830   6.789   8.995   6.786 -0.6385 -2.4291 -0.5832
  305bbb    H10 8831   6.941   8.912   6.744  1.8873  1.4349 -1.0208
  305bbb     C6 8832   7.259   9.213   7.047  0.8060  0.1161 -0.0849
  305bbb    H11 8833   7.332   9.290   7.022 -1.9489  3.1952  0.6453
  305bbb    H12 8834   7.217   9.304   7.092 -2.6636 -0.6936 -1.3902
  305bbb     C7 8835   7.308   9.026   6.403 -0.6259  0.4898  0.4498
  305bbb    H13 8836   7.311   9.073   6.304  1.6027 -0.9287 -0.2334
  305bbb    H14 8837   7.289   8.919   6.395 -0.4031  0.5400 -0.9177
  305bbb     C8 8838   7.338   9.163   7.181  0.1932 -1.0050 -0.6354
  305bbb    H15 8839   7.438   9.120   7.168 -0.1867 -2.3078  0.4490
  305bbb    H16 8840   7.279   9.098   7.247  0.5018  1.7991  2.6954
  305bbb     C9 8841   6.777   8.932   6.589  0.2517  0.3540 -0.2766
  305bbb    H17 8842   6.729   8.840   6.624  1.4961 -0.5445 -0.8701
  305bbb    H18 8843   6.840   8.897   6.506 -1.2525 -1.0918 -0.8790
  305bbb     O1 8844   7.420   9.055   6.494 -0.5184 -0.2789  0.1791
  306bbb     N1 8845   8.110   8.941   7.544  0.5237 -0.2987 -0.1275
  306bbb     C1 8846   8.098   9.072   7.612  0.4147  0.1494  0.4396
  306bbb     H1 8847   8.097   9.053   7.720  1.4166 -1.7320  0.1565
  306bbb     H2 8848   8.007   9.127   7.585  1.1314  2.1316  1.7616
  306bbb     C2 8849   8.242   8.870   7.552 -0.3801  0.0640 -0.3627
  306bbb     H3 8850   8.319   8.930   7.502  2.1410 -2.8344 -0.2002
  306bbb     H4 8851   8.245   8.767   7.515 -0.1447 -1.5956  3.8083
  306bbb     C3 8852   8.049   8.952   7.406  0.4803  0.1208 -0.5963
  306bbb     H5 8853   8.101   9.025   7.344  1.2707 -0.8652 -1.1251
  306bbb     H6 8854   7.947   8.993   7.404 -0.1794 -1.3715  0.2856
  306bbb     C4 8855   8.060   8.820   7.330  0.8505  0.2569  0.1686
  306bbb     H7 8856   8.044   8.731   7.392 -0.0606 -0.1319 -0.6005
  306bbb     H8 8857   8.157   8.822   7.278 -0.5144  0.1644 -2.5417
  306bbb     C5 8858   8.217   9.170   7.584 -0.4335  1.0000  0.0631
  306bbb     H9 8859   8.229   9.182   7.476 -1.8123 -1.5591 -0.4635
  306bbb    H10 8860   8.309   9.131   7.629 -0.2304  2.0023  0.5695
  306bbb     C6 8861   8.286   8.848   7.697  0.2751 -0.6319 -0.4836
  306bbb    H11 8862   8.300   8.940   7.754 -1.0873  0.2139 -1.4637
  306bbb    H12 8863   8.382   8.796   7.701  0.8531  0.4643  0.8143
  306bbb     C7 8864   7.952   8.797   7.221  0.1643  0.0783  0.5176
  306bbb    H13 8865   7.856   8.778   7.271 -0.1643 -0.0706 -0.1546
  306bbb    H14 8866   7.984   8.714   7.157  2.4980  0.0357  1.6682
  306bbb     C8 8867   8.181   8.759   7.772 -0.0137 -0.1523 -0.2717
  306bbb    H15 8868   8.151   8.668   7.718  1.8868 -0.0939 -1.5312
  306bbb    H16 8869   8.084   8.810   7.777  0.5547  0.9429 -0.0568
  306bbb     C9 8870   8.188   9.303   7.658 -0.6608  0.3839  0.6280
  306bbb    H17 8871   8.163   9.280   7.762  0.1185  1.4422  1.0749
  306bbb    H18 8872   8.094   9.341   7.616  0.1606  1.2009 -0.5493
  306bbb     O1 8873   7.933   8.919   7.142 -0.0142  0.7764  0.2926
  307bbb     N1 8874   8.392   6.708   6.649  0.0463  0.2270 -0.5953
  307bbb     C1 8875   8.363   6.699   6.797 -0.2417  0.0162 -0.0889
  307bbb     H1 8876   8.287   6.626   6.826  1.4444 -1.4158  0.9402
  307bbb     H2 8877   8.322   6.790   6.841 -1.4625  0.3939 -1.9102
  307bbb     C2 8878   8.266   6.739   6.571 -0.0611 -0.5810  0.7931
  307bbb     H3 8879   8.298   6.761   6.469  1.8505  1.1068  1.6873
  307bbb     H4 8880   8.220   6.827   6.618 -0.6567 -0.7197  0.4774
  307bbb     C3 8881   8.505   6.797   6.618  0.4838  0.0130  0.6310
  307bbb     H5 8882   8.588   6.771   6.686  2.0527 -1.2324 -1.5955
  307bbb     H6 8883   8.471   6.900   6.628 -1.5258 -0.6607  1.3067
  307bbb     C4 8884   8.555   6.761   6.470  0.4526 -0.6896 -0.3089
  307bbb     H7 8885   8.480   6.765   6.391  1.6401 -2.8213 -1.6388
  307bbb     H8 8886   8.601   6.661   6.475  0.3487 -0.7973 -1.2962
  307bbb     C5 8887   8.484   6.654   6.888 -0.5006 -0.0689  0.5928
  307bbb     H9 8888   8.455   6.633   6.992 -1.3361 -2.2718 -0.0465
  307bbb    H10 8889   8.566   6.727   6.893  1.3482 -1.8606 -1.6057
  307bbb     C6 8890   8.169   6.616   6.574 -0.5746  0.4074 -0.5805
  307bbb    H11 8891   8.134   6.607   6.678  1.0963  1.4299  0.1072
  307bbb    H12 8892   8.225   6.523   6.564  0.8918  1.2569 -0.5487
  307bbb     C7 8893   8.678   6.845   6.440 -0.2908  0.7912 -0.2168
  307bbb    H13 8894   8.745   6.789   6.374 -0.3344  0.7014 -0.1848
  307bbb    H14 8895   8.735   6.859   6.533  0.4709  0.7286 -0.6672
  307bbb     C8 8896   8.058   6.627   6.467 -0.8815 -0.4799 -0.1159
  307bbb    H15 8897   8.011   6.726   6.467  1.9339  0.9785 -1.0509
  307bbb    H16 8898   7.970   6.570   6.500 -3.1094  1.1038 -2.8904
  307bbb     C9 8899   8.537   6.520   6.831 -0.4719 -0.0918 -0.3586
  307bbb    H17 8900   8.543   6.530   6.722  1.3536 -0.0637 -0.2788
  307bbb    H18 8901   8.459   6.445   6.848  0.8714 -2.0470 -2.2652
  307bbb     O1 8902   8.647   6.971   6.390 -0.8034  0.6169 -0.1922
  308bbb     N1 8903   8.638   7.394   5.248 -0.2930 -0.3655 -0.4716
  308bbb     C1 8904   8.525   7.455   5.171 -0.4408  0.1821 -0.3377
  308bbb     H1 8905   8.447   7.388   5.133 -0.2036  0.1643 -0.7897
  308bbb     H2 8906   8.573   7.501   5.084  0.0606 -1.2796 -0.8555
  308bbb     C2 8907   8.753   7.471   5.296  0.1354  0.3700  0.5772
  308bbb     H3 8908   8.833   7.400   5.323  0.5963 -0.0934 -1.7942
  308bbb     H4 8909   8.717   7.526   5.384 -1.7777  0.7388 -0.3964
  308bbb     C3 8910   8.592   7.307   5.354  0.3493  0.7943  0.1149
  308bbb     H5 8911   8.494   7.272   5.319 -1.7338  3.6833  2.4847
  308bbb     H6 8912   8.560   7.357   5.446 -1.0080 -0.7894  0.5667
  308bbb     C4 8913   8.689   7.188   5.370  0.4327 -0.0238  0.0296
  308bbb     H7 8914   8.769   7.228   5.434 -1.6179 -0.6963  3.2314
  308bbb     H8 8915   8.732   7.166   5.272  0.4628  1.5575 -0.3399
  308bbb     C5 8916   8.436   7.564   5.251 -0.0589  0.3782 -0.1801
  308bbb     H9 8917   8.388   7.628   5.176 -1.2243 -0.3903 -0.1122
  308bbb    H10 8918   8.501   7.625   5.315 -1.0483  0.7145  0.5177
  308bbb     C6 8919   8.816   7.570   5.190  0.0038  0.5759 -0.0432
  308bbb    H11 8920   8.739   7.636   5.148  3.3687  5.0212 -0.0306
  308bbb    H12 8921   8.851   7.512   5.104 -3.0060  0.5672 -1.4033
  308bbb     C7 8922   8.637   7.058   5.432 -0.0182  0.4568  0.2824
  308bbb    H13 8923   8.710   6.976   5.427  0.5245  0.9872 -0.9668
  308bbb    H14 8924   8.553   7.024   5.369 -2.2876  0.0118  3.3250
  308bbb     C8 8925   8.913   7.668   5.253 -0.5946 -1.8102 -0.4190
  308bbb    H15 8926   8.850   7.735   5.313 -0.1382  0.2602 -2.0888
  308bbb    H16 8927   8.959   7.738   5.181  0.7624 -0.4087  1.6764
  308bbb     C9 8928   8.329   7.503   5.346  0.1105  0.1593 -0.7309
  308bbb    H17 8929   8.341   7.544   5.447 -0.2765  1.3648 -1.1501
  308bbb    H18 8930   8.354   7.398   5.363 -0.0930  0.1366 -0.5723
  308bbb     O1 8931   8.595   7.075   5.574  0.0262  0.5961 -0.6772
  309bbb     N1 8932   7.335   7.892   7.032 -0.0672 -0.1404 -0.4228
  309bbb     C1 8933   7.282   7.769   7.100 -0.1259  0.4611 -0.3886
  309bbb     H1 8934   7.275   7.784   7.208 -0.2404  0.5515 -0.4084
  309bbb     H2 8935   7.344   7.681   7.079 -1.3985  0.2102 -3.6636
  309bbb     C2 8936   7.446   7.959   7.108  0.0117 -0.8073 -0.1724
  309bbb     H3 8937   7.477   8.051   7.058 -1.7430  0.6088  1.1833
  309bbb     H4 8938   7.533   7.893   7.120  1.0668  0.5667 -0.0670
  309bbb     C3 8939   7.361   7.883   6.883 -0.0160 -0.1302 -0.4056
  309bbb     H5 8940   7.376   7.984   6.841 -2.8998  0.1535 -0.9373
  309bbb     H6 8941   7.273   7.845   6.830 -1.2767 -0.8244  2.0565
  309bbb     C4 8942   7.482   7.795   6.838  0.0847  0.3132 -0.1359
  309bbb     H7 8943   7.452   7.693   6.864 -2.4195  0.7750 -0.9131
  309bbb     H8 8944   7.570   7.825   6.896 -0.0551 -0.8540  0.7276
  309bbb     C5 8945   7.142   7.736   7.048 -0.2406 -0.3396 -0.4409
  309bbb     H9 8946   7.140   7.732   6.939 -1.9006 -2.9366 -0.3974
  309bbb    H10 8947   7.085   7.820   7.092  1.5685  1.3931 -1.2391
  309bbb     C6 8948   7.411   7.999   7.251  0.2929  0.4027 -0.0452
  309bbb    H11 8949   7.414   7.910   7.314 -0.0684 -0.2364 -0.9074
  309bbb    H12 8950   7.306   8.031   7.244  0.1655 -0.0951 -0.5245
  309bbb     C7 8951   7.508   7.794   6.689 -0.1501  0.3262  0.5032
  309bbb    H13 8952   7.542   7.889   6.646 -2.2117  0.5996 -0.7207
  309bbb    H14 8953   7.414   7.756   6.646 -0.3847  0.5899  0.7728
  309bbb     C8 8954   7.493   8.118   7.316  0.2087  0.1748  0.6753
  309bbb    H15 8955   7.429   8.157   7.396  1.1184  0.5180  1.2600
  309bbb    H16 8956   7.511   8.196   7.241  0.2800 -0.7016 -0.2362
  309bbb     C9 8957   7.090   7.603   7.094  0.6076  0.4748 -0.5747
  309bbb    H17 8958   7.074   7.616   7.202 -0.7520  1.3512 -0.8491
  309bbb    H18 8959   7.160   7.521   7.074 -1.0590 -0.9954 -0.6020
  309bbb     O1 8960   7.610   7.694   6.676  0.1824  0.7664 -0.1890
  310bbb     N1 8961   7.094   7.591   5.826 -0.1163  0.3237  0.4407
  310bbb     C1 8962   7.053   7.484   5.916 -0.0288 -0.7336  0.1225
  310bbb     H1 8963   7.144   7.426   5.938  0.7276  0.4450  0.1783
  310bbb     H2 8964   6.986   7.415   5.862 -1.3162  1.0170 -0.6086
  310bbb     C2 8965   7.149   7.535   5.691 -0.0888 -0.1273 -0.0536
  310bbb     H3 8966   7.235   7.469   5.706 -1.2207 -2.5093 -3.0569
  310bbb     H4 8967   7.179   7.612   5.619  0.2885  0.5173  0.7799
  310bbb     C3 8968   7.187   7.687   5.889 -0.0652  0.6694 -0.3059
  310bbb     H5 8969   7.277   7.637   5.929  1.5125  2.2820 -1.6787
  310bbb     H6 8970   7.132   7.720   5.979 -0.8504 -0.5513 -0.3121
  310bbb     C4 8971   7.247   7.806   5.804  1.3028  0.6820  0.2814
  310bbb     H7 8972   7.165   7.849   5.745  1.0025  1.3283  1.1440
  310bbb     H8 8973   7.324   7.767   5.737  1.7757  1.9358  0.0729
  310bbb     C5 8974   6.985   7.536   6.044  0.8534 -0.2644 -0.5786
  310bbb     H9 8975   6.914   7.616   6.022  0.4554 -1.1037 -2.5511
  310bbb    H10 8976   7.071   7.565   6.106  0.4237 -1.0783  0.4524
  310bbb     C6 8977   7.047   7.447   5.617  0.7193  1.0236 -0.3647
  310bbb    H11 8978   6.950   7.498   5.610 -0.7949 -1.7221 -0.8380
  310bbb    H12 8979   7.038   7.359   5.681 -1.3748  1.9915  0.7306
  310bbb     C7 8980   7.308   7.914   5.895  0.0118 -0.1224 -0.6017
  310bbb    H13 8981   7.224   7.955   5.952 -1.1890 -0.7622 -1.8629
  310bbb    H14 8982   7.340   7.998   5.833 -0.8005 -0.2919 -1.2601
  310bbb     C8 8983   7.107   7.413   5.476 -0.1848 -0.1613  0.1172
  310bbb    H15 8984   7.091   7.505   5.419 -2.0332 -0.9538 -0.7411
  310bbb    H16 8985   7.038   7.339   5.433 -0.5363 -0.2124  0.7478
  310bbb     C9 8986   6.908   7.418   6.111 -0.6370 -0.0586 -0.6297
  310bbb    H17 8987   6.988   7.361   6.160  0.1130 -1.6595 -3.4777
  310bbb    H18 8988   6.869   7.350   6.035  1.5316  0.4701 -2.3228
  310bbb     O1 8989   7.411   7.856   5.973  0.3072  0.3969 -0.0170
  311bbb     N1 8990  11.123   6.114   7.814  0.0423  0.3014 -0.2361
  311bbb     C1 8991  11.247   6.108   7.725  0.2336 -0.2595  0.1056
  311bbb     H1 8992  11.236   6.171   7.636  1.1364  1.0118  0.8551
  311bbb     H2 8993  11.256   6.004   7.694  1.0549  0.1883 -1.2416
  311bbb     C2 8994  11.004   6.093   7.729 -0.7218 -0.4057 -0.2687
  311bbb     H3 8995  11.006   6.146   7.633  1.0974 -0.3102 -0.2029
  311bbb     H4 8996  10.920   6.147   7.774 -0.4862 -0.3927  0.1593
  311bbb     C3 8997  11.124   6.045   7.944  0.3066 -0.5785  0.1554
  311bbb     H5 8998  11.214   6.069   8.003  0.3395 -2.5921  0.9894
  311bbb     H6 8999  11.137   5.937   7.929 -0.1062 -0.3603 -2.0874
  311bbb     C4 9000  11.007   6.078   8.035 -1.1194 -0.4945  0.0883
  311bbb     H7 9001  11.012   6.015   8.125 -0.3573  0.4331  0.7156
  311bbb     H8 9002  10.914   6.061   7.979 -2.3749 -0.1286  1.9546
  311bbb     C5 9003  11.378   6.146   7.790 -0.3401  0.1070 -0.5321
  311bbb     H9 9004  11.459   6.147   7.716 -1.3505 -1.2683 -1.7267
  311bbb    H10 9005  11.397   6.062   7.858 -1.8214  0.5520  0.4865
  311bbb     C6 9006  10.950   5.953   7.718 -0.0963  0.4093 -0.5370
  311bbb    H11 9007  10.935   5.906   7.816  1.3203 -0.0743 -0.5229
  311bbb    H12 9008  11.016   5.886   7.661  0.5765  1.4687 -1.0434
  311bbb     C7 9009  11.006   6.234   8.079  0.6521  0.1777  0.2675
  311bbb    H13 9010  11.007   6.289   7.985  0.2594 -0.2002  0.0353
  311bbb    H14 9011  11.096   6.263   8.135  0.5522  1.5666 -0.2628
  311bbb     C8 9012  10.814   5.942   7.637 -0.2780  0.0523  0.1918
  311bbb    H15 9013  10.822   5.991   7.540 -2.1644  1.8274  0.8804
  311bbb    H16 9014  10.737   5.998   7.691 -0.5213 -1.2457  1.2602
  311bbb     C9 9015  11.383   6.274   7.882 -0.5801 -0.1916  0.1239
  311bbb    H17 9016  11.463   6.272   7.957  1.5209  0.6630 -1.9818
  311bbb    H18 9017  11.284   6.289   7.928 -0.3172  0.9015  0.3811
  311bbb     O1 9018  10.889   6.264   8.147  0.0195 -1.0208 -0.2803
  312bbb     N1 9019  10.313   6.443   8.986  0.4564 -0.8143 -0.2339
  312bbb     C1 9020  10.286   6.380   9.115 -0.5822  0.4284  0.1040
  312bbb     H1 9021  10.226   6.451   9.174  0.2699  0.7247  0.6247
  312bbb     H2 9022  10.383   6.364   9.163 -0.1685 -1.6074 -1.2590
  312bbb     C2 9023  10.333   6.589   9.010 -0.0838 -0.3757  0.1863
  312bbb     H3 9024  10.252   6.637   9.066 -0.4019 -2.5947  1.7780
  312bbb     H4 9025  10.337   6.636   8.910 -1.2505  0.3000  0.4448
  312bbb     C3 9026  10.431   6.385   8.915 -0.0263  0.3492 -0.0461
  312bbb     H5 9027  10.412   6.277   8.915 -0.7024  0.4609  0.2805
  312bbb     H6 9028  10.523   6.395   8.973 -0.4364 -1.7611  1.0977
  312bbb     C4 9029  10.445   6.425   8.770  0.0267 -0.3441  1.1499
  312bbb     H7 9030  10.522   6.370   8.715  0.2264  0.2463  0.8311
  312bbb     H8 9031  10.489   6.525   8.766 -0.7587 -0.0353 -0.5164
  312bbb     C5 9032  10.219   6.244   9.097 -0.6122  0.4038  0.2450
  312bbb     H9 9033  10.289   6.180   9.043  0.5160  0.4451  1.5989
  312bbb    H10 9034  10.125   6.244   9.040 -2.0067 -0.1220  2.4036
  312bbb     C6 9035  10.463   6.639   9.082  0.4342 -0.0058 -0.0647
  312bbb    H11 9036  10.552   6.632   9.018 -0.1101 -0.7279 -0.7629
  312bbb    H12 9037  10.471   6.576   9.171  0.9354  0.8377  0.5080
  312bbb     C7 9038  10.302   6.431   8.690 -0.4419 -0.0502  0.2961
  312bbb    H13 9039  10.236   6.500   8.744 -0.1961  1.0847 -0.8188
  312bbb    H14 9040  10.257   6.332   8.674  0.3633 -0.1675 -1.3878
  312bbb     C8 9041  10.445   6.785   9.132  0.3098  0.6405  0.2269
  312bbb    H15 9042  10.361   6.791   9.202 -1.4397 -1.0638 -1.5921
  312bbb    H16 9043  10.422   6.849   9.046 -1.0321  1.2306  1.0017
  312bbb     C9 9044  10.199   6.181   9.237  0.4088  0.2291 -0.3199
  312bbb    H17 9045  10.263   6.220   9.318 -1.0429 -0.0151  0.9876
  312bbb    H18 9046  10.097   6.213   9.261  0.6759  1.8559 -1.2211
  312bbb     O1 9047  10.343   6.475   8.557  0.0722  0.1086 -0.2475
  313bbb     N1 9048  11.404   7.395   8.061 -0.1233  0.6785  0.3463
  313bbb     C1 9049  11.378   7.312   8.185 -0.3862 -0.4703  0.3591
  313bbb     H1 9050  11.446   7.226   8.175  1.6187  1.2207 -1.7110
  313bbb     H2 9051  11.272   7.287   8.191 -0.9542  0.8471 -2.5168
  313bbb     C2 9052  11.365   7.330   7.932 -0.2279  0.0979  0.3834
  313bbb     H3 9053  11.431   7.374   7.856  0.2237 -1.5782 -0.2333
  313bbb     H4 9054  11.264   7.361   7.903 -0.4224  0.2682  1.2218
  313bbb     C3 9055  11.371   7.540   8.064  0.7160  0.0389  0.4442
  313bbb     H5 9056  11.393   7.588   7.968 -3.5411  0.5465 -0.4652
  313bbb     H6 9057  11.422   7.599   8.141  1.6395 -1.8838  1.3778
  313bbb     C4 9058  11.216   7.560   8.078  0.7014 -0.7541 -0.4877
  313bbb     H7 9059  11.178   7.507   8.165  0.2967  1.5461  0.8281
  313bbb     H8 9060  11.153   7.531   7.993 -0.2046  0.4025 -0.2460
  313bbb     C5 9061  11.414   7.385   8.317 -0.0006  0.4858  0.3488
  313bbb     H9 9062  11.357   7.478   8.332 -0.9233 -0.1846  1.0897
  313bbb    H10 9063  11.519   7.417   8.312 -0.5151  2.1410 -1.6492
  313bbb     C6 9064  11.371   7.175   7.928  0.1728 -0.4908 -1.0272
  313bbb    H11 9065  11.305   7.128   8.002  0.2524  0.8717 -0.0514
  313bbb    H12 9066  11.473   7.147   7.957  0.2108  0.8153  0.2018
  313bbb     C7 9067  11.186   7.715   8.099 -0.2040 -0.7224 -0.6570
  313bbb    H13 9068  11.189   7.779   8.010 -2.0125 -0.9044 -0.8770
  313bbb    H14 9069  11.264   7.760   8.161 -0.1431 -3.1158  1.1236
  313bbb     C8 9070  11.345   7.119   7.785  0.1838  0.4338  0.7273
  313bbb    H15 9071  11.428   7.143   7.717 -1.0211  0.9877 -0.6007
  313bbb    H16 9072  11.262   7.174   7.739  0.4920 -0.4015 -0.9205
  313bbb     C9 9073  11.406   7.290   8.442 -0.3299  0.3157 -0.1728
  313bbb    H17 9074  11.299   7.273   8.463  0.3464 -0.3254  3.2758
  313bbb    H18 9075  11.443   7.339   8.533  0.7050  1.0284 -0.9626
  313bbb     O1 9076  11.043   7.729   8.154 -0.4209  0.3779 -0.5497
  314bbb     N1 9077  10.965   8.521   7.958  0.2013  0.1168  0.6285
  314bbb     C1 9078  10.915   8.463   7.826  0.1147 -0.0389 -0.0225
  314bbb     H1 9079  10.816   8.417   7.839  0.7201 -1.6175 -0.7017
  314bbb     H2 9080  10.977   8.379   7.793 -0.4739  0.0108 -1.3269
  314bbb     C2 9081  11.109   8.552   7.952  0.7660  1.2068  0.4491
  314bbb     H3 9082  11.122   8.634   7.879  1.8052  0.3782 -0.3317
  314bbb     H4 9083  11.156   8.457   7.923  2.6284  1.2524  2.9484
  314bbb     C3 9084  10.884   8.626   8.019  0.1627  0.5344  0.1676
  314bbb     H5 9085  10.879   8.713   7.953 -0.5215  0.7891  0.5462
  314bbb     H6 9086  10.944   8.662   8.104 -0.6297  0.8814  0.5892
  314bbb     C4 9087  10.741   8.584   8.066 -0.0618  0.1627 -0.2290
  314bbb     H7 9088  10.664   8.578   7.988 -2.0506 -0.4597  1.6858
  314bbb     H8 9089  10.702   8.668   8.124  0.9742 -0.0616  0.8278
  314bbb     C5 9090  10.904   8.560   7.708  0.8409 -0.0560  0.3857
  314bbb     H9 9091  11.006   8.599   7.696  1.7365 -1.8790  1.6179
  314bbb    H10 9092  10.833   8.641   7.728  0.3614 -0.6922  1.3669
  314bbb     C6 9093  11.181   8.587   8.084  0.6239  0.6814 -0.2680
  314bbb    H11 9094  11.150   8.518   8.163  0.2559  1.9807  0.7606
  314bbb    H12 9095  11.151   8.685   8.123 -0.3918  0.4015 -0.3038
  314bbb     C7 9096  10.731   8.456   8.148  0.6567  0.6342  0.3181
  314bbb    H13 9097  10.779   8.477   8.245 -0.6032  1.0823  0.8826
  314bbb    H14 9098  10.794   8.378   8.105 -1.6216 -0.3615 -1.3889
  314bbb     C8 9099  11.341   8.584   8.081  0.1137  0.1731 -0.1434
  314bbb    H15 9100  11.383   8.650   8.157  1.6694 -0.9241  0.0239
  314bbb    H16 9101  11.368   8.623   7.982 -1.7801  0.6858 -0.4846
  314bbb     C9 9102  10.852   8.491   7.583 -1.2078 -0.5190 -0.2952
  314bbb    H17 9103  10.818   8.573   7.519 -1.3625  1.1601  1.8192
  314bbb    H18 9104  10.761   8.436   7.609  0.0148 -2.6401 -0.2959
  314bbb     O1 9105  10.589   8.419   8.168  0.5568  0.1466 -0.1175
  315bbb     N1 9106   8.989   5.784   5.991 -0.6262 -0.3790 -0.5714
  315bbb     C1 9107   8.908   5.846   6.104 -0.3086 -0.0987 -0.0470
  315bbb     H1 9108   8.837   5.773   6.146 -0.8558 -0.3906 -1.3995
  315bbb     H2 9109   8.844   5.921   6.056  1.0387 -0.6433 -2.9221
  315bbb     C2 9110   8.902   5.716   5.902  0.1265  0.2656  0.2601
  315bbb     H3 9111   8.844   5.790   5.845 -0.0610  0.1114  0.2497
  315bbb     H4 9112   8.832   5.656   5.961  0.9700  0.4242  1.4580
  315bbb     C3 9113   9.076   5.881   5.918 -0.2678  0.1133 -0.2364
  315bbb     H5 9114   9.136   5.840   5.835 -1.4238  0.9315 -1.5269
  315bbb     H6 9115   9.142   5.918   5.997 -1.9620 -1.5094  2.0590
  315bbb     C4 9116   9.006   6.013   5.863  0.3604 -0.4525  0.4781
  315bbb     H7 9117   8.973   6.076   5.947 -2.8363 -0.4075 -0.6832
  315bbb     H8 9118   8.913   5.999   5.807 -1.1459 -0.6598  2.8934
  315bbb     C5 9119   8.998   5.890   6.226  0.0039  0.0193  0.1439
  315bbb     H9 9120   9.056   5.975   6.189 -0.2267  0.3630  0.5661
  315bbb    H10 9121   9.053   5.803   6.264 -0.6467 -0.6907 -0.5092
  315bbb     C6 9122   8.969   5.614   5.799  0.7230  0.2005 -0.4551
  315bbb    H11 9123   9.079   5.611   5.810  0.5668  1.1930  1.7316
  315bbb    H12 9124   8.950   5.663   5.703  1.1461  0.9711 -0.1557
  315bbb     C7 9125   9.113   6.090   5.781 -0.4752 -0.6629  0.0105
  315bbb    H13 9126   9.068   6.151   5.701  0.1321 -1.6720 -1.1418
  315bbb    H14 9127   9.191   6.025   5.739 -0.2432 -2.5815  3.1324
  315bbb     C8 9128   8.913   5.467   5.810  0.2643  0.4009 -0.5401
  315bbb    H15 9129   8.933   5.429   5.911 -0.5906  0.1767 -0.4485
  315bbb    H16 9130   8.972   5.406   5.741 -1.8659 -2.0869 -0.3388
  315bbb     C9 9131   8.899   5.936   6.343 -0.2676  0.1710 -0.3144
  315bbb    H17 9132   8.955   6.012   6.399  1.0204 -1.7123  1.0515
  315bbb    H18 9133   8.891   5.849   6.409  0.8875 -0.4686 -0.9878
  315bbb     O1 9134   9.178   6.193   5.871  0.7464  0.0260 -0.9266
  316bbb     N1 9135   9.882   6.363   5.385 -0.4445  0.6099 -0.5904
  316bbb     C1 9136   9.855   6.367   5.236 -0.6274 -0.2312  0.1956
  316bbb     H1 9137   9.930   6.310   5.180  0.3010  2.3045 -1.3227
  316bbb     H2 9138   9.877   6.470   5.205 -1.6323  0.8260  2.7224
  316bbb     C2 9139   9.897   6.228   5.438  0.6483  0.1330  0.0281
  316bbb     H3 9140   9.932   6.152   5.367 -0.4229 -0.5245  0.1799
  316bbb     H4 9141   9.795   6.192   5.455 -0.3828  2.2111 -1.3202
  316bbb     C3 9142   9.795   6.452   5.460  0.1824  0.2158 -0.2732
  316bbb     H5 9143   9.806   6.437   5.568 -0.5346  1.9081  0.0700
  316bbb     H6 9144   9.689   6.447   5.435 -0.0640 -0.4561  0.8346
  316bbb     C4 9145   9.837   6.602   5.447 -0.2279  0.4283 -0.8436
  316bbb     H7 9146   9.867   6.629   5.345  2.9988 -3.0195 -1.0324
  316bbb     H8 9147   9.933   6.608   5.499 -0.4505 -0.8679 -0.2474
  316bbb     C5 9148   9.713   6.328   5.190  0.5270  0.1952 -0.0983
  316bbb     H9 9149   9.642   6.389   5.248 -0.5451  1.3352 -2.4830
  316bbb    H10 9150   9.706   6.221   5.210  1.8855  0.1182  0.0937
  316bbb     C6 9151   9.971   6.202   5.572  0.1285 -0.3871  0.8097
  316bbb    H11 9152   9.964   6.093   5.579  2.3836 -0.7906 -1.4551
  316bbb    H12 9153   9.925   6.250   5.659  0.5458  1.4999  0.0389
  316bbb     C7 9154   9.736   6.699   5.506  0.9400  0.3891 -0.2028
  316bbb    H13 9155   9.655   6.714   5.433 -0.4682  0.4889  1.3370
  316bbb    H14 9156   9.781   6.797   5.525  0.4466  0.8106 -1.1331
  316bbb     C8 9157  10.124   6.233   5.569  0.7071  0.6443  0.7333
  316bbb    H15 9158  10.162   6.195   5.664  0.9997 -1.6333 -0.2260
  316bbb    H16 9159  10.142   6.341   5.559 -1.3678  1.0808  1.2476
  316bbb     C9 9160   9.695   6.351   5.038  0.1385 -0.1449 -0.2990
  316bbb    H17 9161   9.602   6.314   4.994  0.3038  0.6741 -1.4078
  316bbb    H18 9162   9.774   6.300   4.981  0.4834 -1.0551  0.9644
  316bbb     O1 9163   9.663   6.641   5.625  0.6885 -0.3269  0.1473
  317bbb     N1 9164  10.095   8.121   5.641  0.1297  0.4027 -0.3545
  317bbb     C1 9165  10.144   8.153   5.508  0.3710  0.1645 -0.2389
  317bbb     H1 9166  10.081   8.093   5.441  1.4192  0.2358 -1.3388
  317bbb     H2 9167  10.240   8.102   5.493 -0.3010 -1.6543  1.2778
  317bbb     C2 9168  10.145   8.213   5.757  0.6355 -0.9314  0.1926
  317bbb     H3 9169  10.085   8.207   5.848 -0.5420  0.9799 -0.3881
  317bbb     H4 9170  10.132   8.318   5.727  1.0396 -1.9639 -4.3835
  317bbb     C3 9171  10.098   7.977   5.664  0.0691  0.9083 -0.1392
  317bbb     H5 9172  10.198   7.935   5.678 -0.8569 -0.8057  2.1827
  317bbb     H6 9173  10.040   7.933   5.582 -0.5552 -1.6760  1.5559
  317bbb     C4 9174  10.027   7.923   5.791  0.6050 -0.2395  0.0805
  317bbb     H7 9175   9.921   7.949   5.784 -0.1249 -2.5794  1.4053
  317bbb     H8 9176  10.068   7.976   5.878 -0.8817  1.3447 -0.1208
  317bbb     C5 9177  10.146   8.299   5.461  0.3994  0.2776 -0.0298
  317bbb     H9 9178  10.202   8.315   5.368 -0.5643 -0.2902 -0.7301
  317bbb    H10 9179  10.201   8.356   5.537 -1.4855  1.0461  0.8182
  317bbb     C6 9180  10.300   8.217   5.780 -0.9728  0.0890  0.1848
  317bbb    H11 9181  10.351   8.235   5.684 -0.4995  1.9593  0.7540
  317bbb    H12 9182  10.340   8.122   5.818 -0.8994  0.6172  1.4490
  317bbb     C7 9183  10.030   7.766   5.776  0.1414 -0.7004 -0.4569
  317bbb    H13 9184  10.137   7.741   5.780  1.1339  1.9178 -4.7620
  317bbb    H14 9185   9.988   7.718   5.687 -1.3085 -2.1314  0.9252
  317bbb     C8 9186  10.357   8.331   5.876 -0.4067  0.3671  0.7007
  317bbb    H15 9187  10.342   8.429   5.830 -1.6277 -1.0166 -2.1216
  317bbb    H16 9188  10.463   8.313   5.896  0.3633  3.2775 -0.3396
  317bbb     C9 9189  10.006   8.356   5.451 -0.4236  0.3623  0.3964
  317bbb    H17 9190   9.948   8.324   5.539 -1.5996 -3.2131 -1.4656
  317bbb    H18 9191   9.962   8.296   5.370 -0.3827 -0.2086  0.7861
  317bbb     O1 9192   9.950   7.703   5.883 -0.5920 -0.2923 -0.2777
  318bbb     N1 9193  10.211   6.465   5.990  0.4230  0.0661 -0.5058
  318bbb     C1 9194  10.327   6.510   5.909 -1.0812 -0.0128 -0.1369
  318bbb     H1 9195  10.306   6.524   5.802  0.3480  1.8283 -0.2243
  318bbb     H2 9196  10.402   6.430   5.910 -0.6348  0.4082  0.7351
  318bbb     C2 9197  10.172   6.335   5.954  0.0210  0.3750  0.5379
  318bbb     H3 9198  10.142   6.330   5.848 -1.1036 -1.2707  0.8865
  318bbb     H4 9199  10.093   6.307   6.024 -0.6439  0.4374 -0.1725
  318bbb     C3 9200  10.096   6.557   5.990 -0.4778  0.0283 -0.1364
  318bbb     H5 9201  10.118   6.652   6.042 -0.7925 -0.1133  0.2589
  318bbb     H6 9202  10.005   6.520   6.039 -0.1897  0.1983  0.5503
  318bbb     C4 9203  10.038   6.595   5.849 -0.0519  0.1030  0.1788
  318bbb     H7 9204  10.014   6.513   5.780 -1.2726  0.5399  0.0426
  318bbb     H8 9205  10.116   6.646   5.791  1.0328 -2.2810 -0.5423
  318bbb     C5 9206  10.382   6.650   5.942  0.0539 -0.0025 -0.7583
  318bbb     H9 9207  10.415   6.653   6.046  0.9410 -0.7279 -0.9999
  318bbb    H10 9208  10.298   6.720   5.937 -0.9455 -0.9320  1.6092
  318bbb     C6 9209  10.286   6.228   5.977 -0.3057  0.3520  0.4624
  318bbb    H11 9210  10.340   6.254   6.069 -0.0041 -0.9410  0.6696
  318bbb    H12 9211  10.352   6.229   5.889 -0.5979 -0.5186  0.2261
  318bbb     C7 9212   9.909   6.686   5.845 -0.0167 -0.4181  0.0133
  318bbb    H13 9213   9.842   6.637   5.915 -0.5549  0.4872  0.1477
  318bbb    H14 9214   9.860   6.692   5.747 -1.4366 -0.5010  0.6944
  318bbb     C8 9215  10.224   6.085   5.996 -0.1188 -0.5494 -0.0288
  318bbb    H15 9216  10.153   6.062   5.916  0.7501 -1.4390 -0.5788
  318bbb    H16 9217  10.166   6.081   6.089  1.3356 -1.0669  0.8985
  318bbb     C9 9218  10.507   6.686   5.856  0.3750  0.2511  0.3829
  318bbb    H17 9219  10.484   6.758   5.777 -1.1851  1.0823  1.5254
  318bbb    H18 9220  10.533   6.598   5.796 -0.2108  0.4008 -0.0972
  318bbb     O1 9221   9.926   6.818   5.898 -0.4265  0.3022 -0.1621
  319bbb     N1 9222   6.512   6.892  12.111  0.4537 -0.8538 -0.0401
  319bbb     C1 9223   6.523   6.743  12.135  0.0760 -0.4305  0.5396
  319bbb     H1 9224   6.608   6.719  12.199  0.2052  2.4897  1.6333
  319bbb     H2 9225   6.559   6.694  12.044  3.9072  2.9052 -0.0217
  319bbb     C2 9226   6.517   6.982  12.234 -0.5499 -0.3215 -0.4663
  319bbb     H3 9227   6.424   6.964  12.289 -1.5061  1.3659 -1.4370
  319bbb     H4 9228   6.513   7.086  12.199  1.0331  0.3456  1.1983
  319bbb     C3 9229   6.403   6.944  12.023  0.3169  0.7250 -0.8616
  319bbb     H5 9230   6.420   7.052  12.020 -0.3688  0.8649 -0.1442
  319bbb     H6 9231   6.302   6.938  12.066 -0.4559  4.3200 -1.9007
  319bbb     C4 9232   6.400   6.886  11.883 -0.1751 -0.3488 -0.1831
  319bbb     H7 9233   6.360   6.784  11.881 -0.9657 -0.0604  0.2735
  319bbb     H8 9234   6.499   6.869  11.840 -0.2271 -0.3029 -0.3199
  319bbb     C5 9235   6.392   6.671  12.175 -0.3863 -0.1827  1.2549
  319bbb     H9 9236   6.312   6.704  12.108 -0.4694  0.9965  1.9033
  319bbb    H10 9237   6.371   6.696  12.280 -0.4245  1.6359  0.8423
  319bbb     C6 9238   6.641   6.949  12.320 -0.0267  0.2770  0.2278
  319bbb    H11 9239   6.626   6.850  12.365 -0.7109 -0.9292 -2.4533
  319bbb    H12 9240   6.654   7.019  12.403 -0.5172  0.5153  0.1073
  319bbb     C7 9241   6.305   6.964  11.787 -0.3936 -0.7718 -0.1326
  319bbb    H13 9242   6.342   7.067  11.780 -1.3996 -0.4271 -0.4920
  319bbb    H14 9243   6.203   6.972  11.826  0.0099  3.0181  0.5071
  319bbb     C8 9244   6.767   6.952  12.236  0.5562  0.2099 -0.2782
  319bbb    H15 9245   6.762   7.042  12.174 -1.9800 -0.6380 -1.4855
  319bbb    H16 9246   6.787   6.864  12.174  2.3001 -0.6621  1.4252
  319bbb     C9 9247   6.400   6.519  12.171 -0.8229 -0.0448 -0.1731
  319bbb    H17 9248   6.309   6.476  12.215 -0.0777 -0.8900  0.5991
  319bbb    H18 9249   6.481   6.484  12.236  0.1206 -0.1139 -1.3487
  319bbb     O1 9250   6.312   6.899  11.657 -0.1373  0.0912  0.3437
  320bbb     N1 9251   5.418   7.064  11.955  0.1670  0.0898  0.3051
  320bbb     C1 9252   5.346   7.030  11.830 -0.6941 -0.3494 -0.5342
  320bbb     H1 9253   5.397   6.954  11.770 -0.7285  0.4546 -1.6131
  320bbb     H2 9254   5.348   7.114  11.760  1.3184 -1.9786 -2.6184
  320bbb     C2 9255   5.358   7.187  12.031 -0.2059  0.3460  0.6193
  320bbb     H3 9256   5.249   7.180  12.038 -0.1950  1.0862  1.7961
  320bbb     H4 9257   5.381   7.286  11.989 -1.1236  0.5328  0.5428
  320bbb     C3 9258   5.566   7.057  11.961  0.3163 -0.4266 -0.2467
  320bbb     H5 9259   5.605   7.099  12.055  0.3216  0.8997 -0.8247
  320bbb     H6 9260   5.601   7.126  11.884 -0.4687  0.5735  0.2716
  320bbb     C4 9261   5.624   6.918  11.936  0.4108 -0.0343 -0.5734
  320bbb     H7 9262   5.588   6.897  11.834 -1.9991  2.0605 -0.2548
  320bbb     H8 9263   5.579   6.843  12.002 -0.5507  0.8284 -0.2228
  320bbb     C5 9264   5.196   7.009  11.842  1.1882  0.0370  0.0099
  320bbb     H9 9265   5.148   7.096  11.889  0.1520 -0.4215 -0.1849
  320bbb    H10 9266   5.173   6.920  11.902  0.0128  0.8984  0.9034
  320bbb     C6 9267   5.397   7.185  12.181  1.0636 -0.6068  0.3448
  320bbb    H11 9268   5.497   7.223  12.202  0.5723  0.9219  0.0087
  320bbb    H12 9269   5.390   7.085  12.226 -1.1156 -0.5452  0.2570
  320bbb     C7 9270   5.778   6.938  11.935  0.5233  0.5372 -0.3009
  320bbb    H13 9271   5.811   6.972  12.034 -2.2238  0.1937  0.8288
  320bbb    H14 9272   5.808   7.016  11.864 -1.7175  0.6001 -1.2832
  320bbb     C8 9273   5.307   7.288  12.256 -0.5679 -0.2658 -1.0703
  320bbb    H15 9274   5.349   7.296  12.357 -2.3407 -1.7350 -0.1314
  320bbb    H16 9275   5.204   7.252  12.272  0.2109 -1.3193  2.8294
  320bbb     C9 9276   5.139   6.986  11.705 -0.1028 -0.0160  0.3141
  320bbb    H17 9277   5.183   7.049  11.627 -1.7071  0.1915 -0.4760
  320bbb    H18 9278   5.029   6.994  11.701 -0.1337 -0.7761 -1.4365
  320bbb     O1 9279   5.838   6.807  11.906  0.2998 -0.5486  0.2439
  321bbb     N1 9280   6.481   7.716  12.348  0.3100 -0.2189 -0.6347
  321bbb     C1 9281   6.353   7.644  12.371  0.2367  0.1931  0.3896
  321bbb     H1 9282   6.348   7.594  12.469 -0.5548 -0.6584 -0.0683
  321bbb     H2 9283   6.352   7.562  12.298 -1.0098 -0.1397  0.7534
  321bbb     C2 9284   6.599   7.628  12.367  0.0888 -0.8178 -0.6370
  321bbb     H3 9285   6.595   7.556  12.284 -0.7555  0.8176 -2.0631
  321bbb     H4 9286   6.586   7.571  12.460 -1.0240 -2.3501 -1.6770
  321bbb     C3 9287   6.474   7.805  12.229 -0.5267  0.9527 -0.3527
  321bbb     H5 9288   6.569   7.860  12.219  2.0013 -2.5333  1.9210
  321bbb     H6 9289   6.401   7.885  12.245 -2.1538 -0.8358  1.7979
  321bbb     C4 9290   6.440   7.737  12.098 -0.0613  0.3006 -0.1509
  321bbb     H7 9291   6.342   7.689  12.100  0.5264 -1.1054 -2.3575
  321bbb     H8 9292   6.511   7.656  12.079 -2.8045 -2.7066  1.4529
  321bbb     C5 9293   6.223   7.723  12.363  0.0574 -0.0583  0.0026
  321bbb     H9 9294   6.211   7.767  12.264 -2.7214  0.7993  0.6287
  321bbb    H10 9295   6.236   7.803  12.438  0.3444 -1.2615  1.2807
  321bbb     C6 9296   6.737   7.704  12.361  0.0859 -0.0835 -0.5808
  321bbb    H11 9297   6.730   7.799  12.416 -2.4960 -0.6111  0.1509
  321bbb    H12 9298   6.752   7.732  12.256  1.0752  0.7615 -0.2228
  321bbb     C7 9299   6.434   7.829  11.977  0.3025 -0.5647  0.2488
  321bbb    H13 9300   6.442   7.779  11.879  2.2284 -0.4601  0.3124
  321bbb    H14 9301   6.520   7.897  11.979  0.3423 -0.6136  2.2853
  321bbb     C8 9302   6.854   7.615  12.393  0.1897 -0.2514  0.1125
  321bbb    H15 9303   6.942   7.672  12.362 -1.3745  1.8022 -0.7330
  321bbb    H16 9304   6.856   7.537  12.316 -1.4809 -0.1993 -0.0172
  321bbb     C9 9305   6.094   7.642  12.401 -0.1099  0.2568  0.0704
  321bbb    H17 9306   6.098   7.607  12.505 -0.3744  1.2242  0.4184
  321bbb    H18 9307   6.088   7.550  12.343  1.4102 -0.4216  0.9310
  321bbb     O1 9308   6.307   7.904  11.986 -0.5961 -0.3939  0.0465
  322bbb     N1 9309   5.423   8.608  11.633  0.3311 -0.2060 -0.7966
  322bbb     C1 9310   5.422   8.538  11.769  0.0123 -0.0750  0.2973
  322bbb     H1 9311   5.327   8.484  11.766 -0.4177  0.7076 -1.1099
  322bbb     H2 9312   5.424   8.609  11.853  0.6144 -1.6187  1.6411
  322bbb     C2 9313   5.313   8.710  11.619 -0.4845 -0.0774 -0.0690
  322bbb     H3 9314   5.337   8.792  11.687  1.4119 -0.1931 -0.5640
  322bbb     H4 9315   5.216   8.672  11.653  0.6659 -0.3990  3.1080
  322bbb     C3 9316   5.560   8.655  11.598 -0.2070 -0.5405  0.3386
  322bbb     H5 9317   5.562   8.711  11.503  0.6353  2.2399  1.8718
  322bbb     H6 9318   5.629   8.571  11.585 -1.1629 -1.2757 -0.0616
  322bbb     C4 9319   5.626   8.769  11.691 -0.9630  0.1591  0.6177
  322bbb     H7 9320   5.583   8.753  11.791 -1.6630 -0.9641  0.1698
  322bbb     H8 9321   5.606   8.869  11.652  2.8208  1.1872  0.9613
  322bbb     C5 9322   5.536   8.440  11.796  0.6124  0.2679  0.0846
  322bbb     H9 9323   5.633   8.490  11.797  0.5939  0.3121 -0.1584
  322bbb    H10 9324   5.532   8.374  11.708 -0.3909 -0.6037  0.7558
  322bbb     C6 9325   5.293   8.755  11.472  0.5071  0.1243 -0.4712
  322bbb    H11 9326   5.299   8.667  11.406 -0.9072 -0.0163 -0.4294
  322bbb    H12 9327   5.375   8.821  11.442  1.8642 -2.6371 -3.5438
  322bbb     C7 9328   5.781   8.748  11.699  0.0946 -0.3100  0.2971
  322bbb    H13 9329   5.823   8.827  11.763 -0.6358  1.4180 -1.2383
  322bbb    H14 9330   5.827   8.763  11.600  2.6585 -0.4625  1.3767
  322bbb     C8 9331   5.163   8.834  11.444  0.5605  0.3512  0.2029
  322bbb    H15 9332   5.087   8.765  11.481  2.1921 -1.8724 -0.3962
  322bbb    H16 9333   5.132   8.849  11.339  0.6618 -0.3359  0.0679
  322bbb     C9 9334   5.521   8.364  11.937  0.5995  0.2063  0.0944
  322bbb    H17 9335   5.564   8.263  11.934  0.8721  0.3533 -1.7643
  322bbb    H18 9336   5.415   8.337  11.949  0.1714  1.7233 -0.0975
  322bbb     O1 9337   5.826   8.621  11.751  0.4859  0.0787  0.2865
  323bbb     N1 9338   7.301   6.144  10.652 -0.5483  0.0752 -0.2278
  323bbb     C1 9339   7.197   6.235  10.596 -0.2283  0.5061  0.2012
  323bbb     H1 9340   7.103   6.223  10.652 -0.4049 -1.4539 -0.4322
  323bbb     H2 9341   7.190   6.209  10.490  3.8442 -1.6222  0.2244
  323bbb     C2 9342   7.246   6.027  10.712 -0.3632  0.1355 -0.2495
  323bbb     H3 9343   7.155   6.050  10.770 -0.4671 -3.3100  1.2418
  323bbb     H4 9344   7.325   5.981  10.772  0.7434 -0.4928 -2.1015
  323bbb     C3 9345   7.414   6.134  10.560 -0.5876 -0.1469  0.1900
  323bbb     H5 9346   7.453   6.229  10.521  3.4620 -1.1323  1.3162
  323bbb     H6 9347   7.390   6.082  10.466  0.0090 -0.0792 -0.0078
  323bbb     C4 9348   7.540   6.068  10.617 -0.2588 -1.5156  1.4787
  323bbb     H7 9349   7.625   6.079  10.549 -0.5507  0.8441  1.4184
  323bbb     H8 9350   7.523   5.960  10.630 -2.9819 -1.5349 -1.0992
  323bbb     C5 9351   7.238   6.380  10.607  0.7180  0.5185  0.6626
  323bbb     H9 9352   7.339   6.401  10.570  0.1469  2.2930  0.0481
  323bbb    H10 9353   7.246   6.403  10.714  2.7115  3.0272  0.0651
  323bbb     C6 9354   7.201   5.914  10.607 -0.8485  0.4976 -0.7295
  323bbb    H11 9355   7.281   5.896  10.534 -0.4106  1.7568 -0.5815
  323bbb    H12 9356   7.116   5.944  10.545  0.4476  1.0242 -2.3347
  323bbb     C7 9357   7.596   6.132  10.744 -0.5224  0.2617 -0.4878
  323bbb    H13 9358   7.519   6.139  10.822 -1.2898 -1.5667 -1.0199
  323bbb    H14 9359   7.626   6.235  10.723 -2.1376  1.4925  2.5739
  323bbb     C8 9360   7.154   5.790  10.684 -0.0593 -0.5533 -0.0113
  323bbb    H15 9361   7.232   5.760  10.755  0.0952  0.1339  0.1128
  323bbb    H16 9362   7.135   5.706  10.616  2.5115 -1.9712  0.9013
  323bbb     C9 9363   7.143   6.479  10.526  0.7132 -0.3540 -0.0159
  323bbb    H17 9364   7.148   6.472  10.416 -2.1118  0.5532 -0.2919
  323bbb    H18 9365   7.173   6.583  10.541  1.1123 -0.6732  1.5782
  323bbb     O1 9366   7.704   6.049  10.799  0.2139  0.7125 -0.3249
  324bbb     N1 9367   8.142   5.463  11.627 -0.6479  0.1011  0.4751
  324bbb     C1 9368   8.077   5.400  11.513  0.0009 -0.6286  0.2340
  324bbb     H1 9369   8.095   5.292  11.518  0.8650 -0.5498 -0.7352
  324bbb     H2 9370   8.125   5.436  11.420  0.7626 -2.9946 -0.3469
  324bbb     C2 9371   8.288   5.441  11.629  0.1854 -0.6382 -0.3918
  324bbb     H3 9372   8.339   5.492  11.712  2.3259 -2.0821 -0.7329
  324bbb     H4 9373   8.340   5.475  11.538  0.2352  0.4827  0.0456
  324bbb     C3 9374   8.117   5.607  11.650  0.3214 -0.1253  0.5707
  324bbb     H5 9375   8.164   5.635  11.745  1.4236 -0.1403  0.0459
  324bbb     H6 9376   8.010   5.629  11.661  0.8136  3.0745 -0.0944
  324bbb     C4 9377   8.161   5.698  11.536 -0.2500 -0.2354  0.5321
  324bbb     H7 9378   8.139   5.650  11.440  1.9558  0.6491 -0.4919
  324bbb     H8 9379   8.269   5.716  11.529 -0.5660  1.2599 -1.5912
  324bbb     C5 9380   7.927   5.435  11.500 -0.6797  0.6792 -0.7819
  324bbb     H9 9381   7.919   5.528  11.442  1.7309  0.7285 -1.1597
  324bbb    H10 9382   7.888   5.464  11.598  1.8989  0.9479  0.2533
  324bbb     C6 9383   8.325   5.292  11.633 -0.6572 -0.0339  0.0895
  324bbb    H11 9384   8.316   5.242  11.535  0.3251  0.3445 -0.2074
  324bbb    H12 9385   8.268   5.236  11.708 -0.4343  0.1259  0.3775
  324bbb     C7 9386   8.101   5.845  11.554  0.4648 -0.8107 -0.5479
  324bbb    H13 9387   8.158   5.893  11.634 -0.5237 -2.5693  1.3026
  324bbb    H14 9388   7.998   5.843  11.593  0.8199 -0.9137  0.4101
  324bbb     C8 9389   8.469   5.279  11.685 -0.3277 -0.2209  0.0067
  324bbb    H15 9390   8.481   5.175  11.718 -2.7536 -0.7878 -0.7109
  324bbb    H16 9391   8.484   5.337  11.777  0.6795 -0.8933  0.2829
  324bbb     C9 9392   7.842   5.332  11.434 -0.0297 -0.4390  0.1382
  324bbb    H17 9393   7.814   5.251  11.503 -2.6554  1.7953  1.8923
  324bbb    H18 9394   7.909   5.291  11.356 -0.9797 -0.6902 -0.5653
  324bbb     O1 9395   8.114   5.929  11.434 -0.1921  0.0512 -0.2757
  325bbb     N1 9396   8.220   8.293  10.701  0.2671  0.2923 -1.0045
  325bbb     C1 9397   8.308   8.242  10.588  0.3062 -0.0608 -0.0006
  325bbb     H1 9398   8.322   8.321  10.512 -1.3985  0.5426  0.2655
  325bbb     H2 9399   8.248   8.170  10.532 -0.7746 -0.2599  1.3741
  325bbb     C2 9400   8.273   8.419  10.763 -0.0238 -0.2982  0.0938
  325bbb     H3 9401   8.272   8.490  10.679  0.9605 -2.0386 -1.4918
  325bbb     H4 9402   8.377   8.407  10.796  0.7218  0.3194 -1.8734
  325bbb     C3 9403   8.182   8.191  10.799  0.3033 -0.4629 -0.7660
  325bbb     H5 9404   8.110   8.235  10.869  0.1307  0.8113 -1.7252
  325bbb     H6 9405   8.266   8.152  10.858  0.3292  0.7498  0.0434
  325bbb     C4 9406   8.105   8.074  10.736 -0.0432  0.1884 -0.1282
  325bbb     H7 9407   8.179   8.024  10.672  0.0659 -2.5451  1.9547
  325bbb     H8 9408   8.020   8.116  10.682 -0.4935 -0.0384  0.3950
  325bbb     C5 9409   8.438   8.181  10.630 -0.6207  0.6829  0.6544
  325bbb     H9 9410   8.419   8.086  10.682  1.4135  0.7365  1.5921
  325bbb    H10 9411   8.489   8.249  10.698  2.8511 -0.9624 -0.0928
  325bbb     C6 9412   8.186   8.487  10.877  0.4206  0.1772  0.7535
  325bbb    H11 9413   8.228   8.579  10.919 -0.0314  0.9693 -0.5136
  325bbb    H12 9414   8.186   8.415  10.960  0.4070 -0.8052 -0.0816
  325bbb     C7 9415   8.056   7.976  10.850  0.2463  0.7582 -0.1097
  325bbb    H13 9416   7.976   7.911  10.812  0.3614 -0.5470  1.7650
  325bbb    H14 9417   8.010   8.022  10.938  0.6992 -0.6412  0.9012
  325bbb     C8 9418   8.037   8.516  10.842  0.5651 -0.3293 -0.2913
  325bbb    H15 9419   7.984   8.424  10.815 -0.2538 -0.3083  1.1759
  325bbb    H16 9420   8.031   8.578  10.752 -0.4872 -0.1631 -0.1197
  325bbb     C9 9421   8.530   8.167  10.505 -0.8886 -0.6764  0.2687
  325bbb    H17 9422   8.481   8.119  10.420 -0.1553  1.9206 -1.7391
  325bbb    H18 9423   8.562   8.265  10.468 -3.1980  0.4114  0.9549
  325bbb     O1 9424   8.164   7.896  10.897 -0.2937 -0.7084 -1.0430
  326bbb     N1 9425   7.971   7.677  12.051  0.0876  0.6339 -0.5029
  326bbb     C1 9426   8.087   7.743  12.111 -0.1928 -0.1641  0.1500
  326bbb     H1 9427   8.179   7.686  12.091 -0.5509 -0.4504 -0.7295
  326bbb     H2 9428   8.072   7.740  12.220 -1.8625  5.4236  0.3822
  326bbb     C2 9429   7.842   7.725  12.102 -0.6865  0.0046 -1.0120
  326bbb     H3 9430   7.812   7.823  12.064  1.7407  0.7848 -1.0730
  326bbb     H4 9431   7.848   7.744  12.210 -1.6043  1.3457 -1.1702
  326bbb     C3 9432   7.966   7.660  11.907 -0.0414 -0.3403  0.9544
  326bbb     H5 9433   7.958   7.759  11.860  0.6282 -0.1628  1.2071
  326bbb     H6 9434   7.873   7.612  11.874  0.9368 -0.5418 -1.7725
  326bbb     C4 9435   8.085   7.588  11.845 -0.0090  0.2938  0.1440
  326bbb     H7 9436   8.077   7.480  11.865 -1.6939  0.2468 -0.6067
  326bbb     H8 9437   8.176   7.633  11.886  0.4547  0.7801 -1.3396
  326bbb     C5 9438   8.097   7.892  12.076 -0.6515 -0.0935  0.5064
  326bbb     H9 9439   8.004   7.946  12.098  0.2577  1.8580 -0.1413
  326bbb    H10 9440   8.115   7.892  11.967 -2.4013 -0.9122  0.1880
  326bbb     C6 9441   7.729   7.622  12.103 -0.3034 -0.3304 -0.2195
  326bbb    H11 9442   7.775   7.525  12.126  1.2313  1.0859  3.4946
  326bbb    H12 9443   7.685   7.616  12.003 -0.0716 -0.3897 -0.3188
  326bbb     C7 9444   8.103   7.611  11.691  0.4651  0.1762  0.3453
  326bbb    H13 9445   7.999   7.630  11.662  0.2444 -0.7780  0.4827
  326bbb    H14 9446   8.149   7.525  11.641 -1.7588 -0.7631 -0.2046
  326bbb     C8 9447   7.614   7.657  12.197  0.3104 -0.0260 -0.2087
  326bbb    H15 9448   7.601   7.765  12.182 -0.8577  0.0665  1.2798
  326bbb    H16 9449   7.639   7.659  12.304 -0.6751  0.2005  0.0246
  326bbb     C9 9450   8.226   7.958  12.131 -0.0445 -0.5464 -0.3388
  326bbb    H17 9451   8.216   8.066  12.114  1.2860 -0.5108 -0.9814
  326bbb    H18 9452   8.313   7.918  12.079  1.3328 -0.8580  2.0599
  326bbb     O1 9453   8.189   7.719  11.667  0.6001  0.2108  0.1303
  327bbb     N1 9454   5.880   6.311   8.014  0.9901 -0.2897  0.0315
  327bbb     C1 9455   5.912   6.407   7.909 -0.2079  0.1386  1.0155
  327bbb     H1 9456   5.994   6.470   7.946  0.8414 -0.9728  0.6468
  327bbb     H2 9457   5.831   6.479   7.892  0.7117  1.2387  1.1637
  327bbb     C2 9458   5.755   6.237   8.007  0.1319 -0.5515 -0.2694
  327bbb     H3 9459   5.756   6.167   8.092  0.5014  1.2012  1.2492
  327bbb     H4 9460   5.749   6.174   7.918  1.0767 -0.5655 -0.3380
  327bbb     C3 9461   5.998   6.235   8.056 -0.3111 -0.0318  0.1177
  327bbb     H5 9462   6.091   6.288   8.036 -1.0332  0.5595 -1.9808
  327bbb     H6 9463   6.002   6.143   7.995 -1.4889 -0.0571  0.0590
  327bbb     C4 9464   5.998   6.185   8.208  0.1486  0.1916  0.2712
  327bbb     H7 9465   6.091   6.137   8.241  0.6368  1.7055  1.1869
  327bbb     H8 9466   5.911   6.120   8.225 -0.1412  0.4944 -0.0353
  327bbb     C5 9467   5.943   6.351   7.772 -0.4048  0.2834 -0.5604
  327bbb     H9 9468   5.852   6.307   7.728 -1.6103  1.3388  0.7916
  327bbb    H10 9469   6.018   6.273   7.790 -0.8174  0.1824  0.7969
  327bbb     C6 9470   5.630   6.331   8.019  0.0092  0.2167  0.6237
  327bbb    H11 9471   5.615   6.395   7.931  0.4693  0.7246  0.9145
  327bbb    H12 9472   5.636   6.400   8.104 -0.7126  0.1972  0.7030
  327bbb     C7 9473   5.996   6.301   8.301  0.1604 -0.8689  0.0880
  327bbb    H13 9474   5.892   6.336   8.304  0.6052  0.5323  2.5814
  327bbb    H14 9475   6.070   6.377   8.275 -0.1892 -0.0561  1.3513
  327bbb     C8 9476   5.505   6.242   8.031  0.0993  0.6418 -0.4125
  327bbb    H15 9477   5.513   6.187   8.125 -0.5592  2.2605  0.6423
  327bbb    H16 9478   5.502   6.165   7.953 -0.6438  0.2670 -0.0105
  327bbb     C9 9479   5.999   6.453   7.671  0.1964  0.4620 -0.4029
  327bbb    H17 9480   5.984   6.413   7.570 -0.0569 -1.8666  0.5004
  327bbb    H18 9481   5.932   6.540   7.670  0.5134  0.7027 -0.8148
  327bbb     O1 9482   6.026   6.254   8.431 -0.1157  0.3656  0.7630
  328bbb     N1 9483   5.233   6.956   9.151  0.6045  0.6143  0.1720
  328bbb     C1 9484   5.139   7.052   9.092 -0.2901 -0.8718  0.4208
  328bbb     H1 9485   5.189   7.127   9.030  0.4086 -1.8330 -0.2010
  328bbb     H2 9486   5.101   7.109   9.178  0.6650  1.3602 -0.5879
  328bbb     C2 9487   5.161   6.851   9.231  0.2532  0.3134 -0.0073
  328bbb     H3 9488   5.105   6.782   9.166  2.6526 -1.2795 -0.4913
  328bbb     H4 9489   5.090   6.900   9.299 -1.0813 -0.9413 -0.4253
  328bbb     C3 9490   5.323   6.900   9.046  0.0745  0.2673  0.9400
  328bbb     H5 9491   5.260   6.869   8.962  0.1128  2.7203 -0.0890
  328bbb     H6 9492   5.375   6.811   9.084  3.3003  1.4171 -0.4269
  328bbb     C4 9493   5.430   6.997   8.989 -0.2896  0.2992  0.1035
  328bbb     H7 9494   5.459   7.066   9.069 -1.0859  0.4788  0.2363
  328bbb     H8 9495   5.382   7.057   8.911 -1.0261 -1.8208 -1.1599
  328bbb     C5 9496   5.020   7.000   9.009 -0.0708 -0.1598 -0.6342
  328bbb     H9 9497   4.978   6.905   9.046  1.0550 -1.3677 -2.3444
  328bbb    H10 9498   5.048   6.987   8.904  0.1618 -0.5249 -0.5251
  328bbb     C6 9499   5.254   6.771   9.323  0.2095  0.0354 -0.1682
  328bbb    H11 9500   5.316   6.834   9.387  1.0714  0.2151 -1.1485
  328bbb    H12 9501   5.327   6.710   9.268 -1.3500 -1.1017 -1.0529
  328bbb     C7 9502   5.559   6.921   8.940 -0.3695  0.4161 -0.4631
  328bbb    H13 9503   5.617   6.876   9.021  0.9187  1.5231 -0.7379
  328bbb    H14 9504   5.629   6.996   8.901 -0.7750  1.2249  0.3248
  328bbb     C8 9505   5.180   6.664   9.409 -0.3251  0.4341  0.0607
  328bbb    H15 9506   5.114   6.704   9.487 -0.9191 -0.5564  0.0877
  328bbb    H16 9507   5.256   6.608   9.465 -0.1383 -2.2358 -2.5727
  328bbb     C9 9508   4.899   7.102   9.016 -0.6042 -0.2683  0.0692
  328bbb    H17 9509   4.855   7.097   9.116  0.3170 -2.3463  0.4147
  328bbb    H18 9510   4.822   7.065   8.948 -2.2950  1.4942  0.9339
  328bbb     O1 9511   5.530   6.828   8.832  0.1064 -0.2158  0.2269
  329bbb     N1 9512   6.751   4.936   9.787 -0.0982  0.8163 -0.5845
  329bbb     C1 9513   6.728   4.931   9.638  0.5014  0.3793  0.1128
  329bbb     H1 9514   6.826   4.931   9.589 -0.3882 -1.1411 -1.7915
  329bbb     H2 9515   6.675   5.015   9.590 -1.0092 -0.8003 -0.3431
  329bbb     C2 9516   6.843   4.829   9.833  0.1453 -0.0841 -0.5767
  329bbb     H3 9517   6.811   4.729   9.802  0.4073  0.4783 -2.8264
  329bbb     H4 9518   6.838   4.843   9.942  1.7276  0.8850 -0.6041
  329bbb     C3 9519   6.765   5.077   9.852  0.4341  0.7507 -0.8211
  329bbb     H5 9520   6.860   5.122   9.822  1.2596 -0.4859 -0.1456
  329bbb     H6 9521   6.778   5.059   9.959  1.0293  0.2735 -0.9700
  329bbb     C4 9522   6.653   5.173   9.819 -0.3891 -0.0665 -0.4543
  329bbb     H7 9523   6.648   5.196   9.712 -1.0412 -0.3885 -0.4972
  329bbb     H8 9524   6.673   5.265   9.875 -1.0372 -1.6564  2.5898
  329bbb     C5 9525   6.667   4.794   9.595 -0.1901 -0.2717  0.5173
  329bbb     H9 9526   6.584   4.769   9.662 -0.8888  1.0445  0.1692
  329bbb    H10 9527   6.740   4.712   9.600  0.5104  0.2756 -0.4483
  329bbb     C6 9528   6.991   4.847   9.781  0.2851 -0.2348 -0.1846
  329bbb    H11 9529   7.002   4.955   9.763 -1.1311 -0.2184 -1.0677
  329bbb    H12 9530   7.001   4.799   9.683  0.8384 -1.7537  0.5896
  329bbb     C7 9531   6.517   5.111   9.857  0.2950  0.3243  0.0494
  329bbb    H13 9532   6.514   5.090   9.965  2.3268  0.8997  0.2542
  329bbb    H14 9533   6.502   5.014   9.809 -1.7675  0.3884  0.4878
  329bbb     C8 9534   7.105   4.788   9.866 -0.0869 -0.1288 -0.7180
  329bbb    H15 9535   7.111   4.850   9.956 -0.1545 -0.1338 -0.7100
  329bbb    H16 9536   7.206   4.783   9.825  0.7922  2.3145  0.9297
  329bbb     C9 9537   6.617   4.788   9.448  0.2253 -0.1961 -0.5991
  329bbb    H17 9538   6.702   4.824   9.388  1.3358 -1.0410  0.3925
  329bbb    H18 9539   6.521   4.840   9.440 -0.3418 -1.1592 -0.2550
  329bbb     O1 9540   6.410   5.185   9.803 -0.1001 -0.4691 -0.2959
  330bbb     N1 9541   6.015   4.904   9.788  0.2586 -0.2450  0.1296
  330bbb     C1 9542   5.913   4.793   9.825 -0.4624 -0.0943  0.2316
  330bbb     H1 9543   5.961   4.716   9.887 -1.1920  0.7690  1.9197
  330bbb     H2 9544   5.882   4.738   9.735  0.7843  0.1667 -0.3763
  330bbb     C2 9545   6.143   4.844   9.733  0.0491  0.2988  0.2081
  330bbb     H3 9546   6.195   4.784   9.809  3.4961  2.7506  0.0113
  330bbb     H4 9547   6.213   4.927   9.719 -0.5459  1.0660  1.5877
  330bbb     C3 9548   6.039   5.016   9.884 -0.5231  0.3221 -0.0498
  330bbb     H5 9549   5.942   5.066   9.889 -0.9643 -0.4682 -0.5280
  330bbb     H6 9550   6.119   5.080   9.846 -0.3539 -0.3307 -0.8083
  330bbb     C4 9551   6.079   4.967  10.025 -0.4406 -0.2274 -0.3971
  330bbb     H7 9552   6.179   4.920  10.019  0.8494  2.2698  0.3428
  330bbb     H8 9553   6.011   4.894  10.070 -1.0987  0.8775  0.4188
  330bbb     C5 9554   5.782   4.850   9.884 -0.2658  0.6687 -0.4537
  330bbb     H9 9555   5.749   4.937   9.825 -0.9863  0.3289 -0.5699
  330bbb    H10 9556   5.802   4.877   9.988 -0.2271  0.8146 -0.4981
  330bbb     C6 9557   6.121   4.747   9.617  0.2178  0.7275 -0.0332
  330bbb    H11 9558   6.071   4.794   9.532  0.0358 -0.4641 -0.6093
  330bbb    H12 9559   6.055   4.661   9.635 -1.3166  1.5474 -1.4663
  330bbb     C7 9560   6.105   5.079  10.126  0.9137 -0.3026 -1.0376
  330bbb    H13 9561   6.164   5.157  10.076  1.9705 -2.0351 -2.6155
  330bbb    H14 9562   6.151   5.037  10.216 -2.1962 -0.9775  0.3548
  330bbb     C8 9563   6.261   4.692   9.579  0.2240 -0.0921  0.1768
  330bbb    H15 9564   6.322   4.773   9.538 -0.3786 -0.2438 -1.0774
  330bbb    H16 9565   6.248   4.623   9.495 -2.2156  1.3041 -0.7153
  330bbb     C9 9566   5.661   4.751   9.869  0.6748 -0.1759  0.0212
  330bbb    H17 9567   5.634   4.721   9.768  1.6958 -4.7195  0.8649
  330bbb    H18 9568   5.569   4.787   9.918  0.6146  0.9496 -0.8763
  330bbb     O1 9569   5.976   5.126  10.160  0.4820  0.1628  0.3626
  331bbb     N1 9570   8.202   5.437  10.684  0.2408  0.5880 -0.1604
  331bbb     C1 9571   8.224   5.468  10.829 -0.4354  0.3679  0.1733
  331bbb     H1 9572   8.203   5.381  10.891 -0.8753  0.2007 -0.1984
  331bbb     H2 9573   8.144   5.539  10.856 -0.7016  0.1870 -0.1230
  331bbb     C2 9574   8.296   5.339  10.624 -0.1735 -0.0129 -0.3740
  331bbb     H3 9575   8.398   5.379  10.627  0.1745 -0.6653 -2.0382
  331bbb     H4 9576   8.271   5.331  10.517 -1.1612 -3.4625 -0.0120
  331bbb     C3 9577   8.056   5.403  10.657  0.0523 -0.1792 -0.0328
  331bbb     H5 9578   7.999   5.475  10.715  0.7606 -0.8223  1.5133
  331bbb     H6 9579   8.027   5.307  10.701 -2.2949  0.6054  0.2416
  331bbb     C4 9580   8.009   5.390  10.506  0.7780  0.3800 -0.4232
  331bbb     H7 9581   7.899   5.389  10.509  0.7696 -1.1328 -0.6791
  331bbb     H8 9582   8.048   5.294  10.473  0.4864 -0.3499  1.2404
  331bbb     C5 9583   8.365   5.525  10.861 -0.2117 -0.2804  0.1870
  331bbb     H9 9584   8.416   5.575  10.778 -0.6775  0.9646  0.6391
  331bbb    H10 9585   8.434   5.439  10.863  0.3096  0.1230 -0.3071
  331bbb     C6 9586   8.286   5.200  10.684 -0.4530 -0.5063 -0.2860
  331bbb    H11 9587   8.183   5.164  10.675 -1.3680  1.5617  1.1994
  331bbb    H12 9588   8.298   5.213  10.792  0.3653  0.9302 -0.5324
  331bbb     C7 9589   8.044   5.506  10.409  0.0592  0.0552 -0.7613
  331bbb    H13 9590   8.152   5.508  10.393 -0.1014  1.5567 -1.8609
  331bbb    H14 9591   8.015   5.602  10.453 -1.0345 -0.5154 -0.1695
  331bbb     C8 9592   8.380   5.100  10.603  0.3861  0.4123  0.1830
  331bbb    H15 9593   8.478   5.150  10.602  0.6943 -0.1946 -0.3881
  331bbb    H16 9594   8.351   5.109  10.498 -1.4446 -0.9003  0.5343
  331bbb     C9 9595   8.366   5.602  11.000 -0.9666  0.6732  0.6352
  331bbb    H17 9596   8.325   5.537  11.078  0.6775  1.2610  2.0420
  331bbb    H18 9597   8.296   5.683  10.978  0.1810  1.2733 -0.9673
  331bbb     O1 9598   7.975   5.482  10.289 -0.0323 -0.4883 -0.6800
  332bbb     N1 9599   7.621   4.808   9.561  0.3498  0.2164 -0.6459
  332bbb     C1 9600   7.711   4.741   9.467 -0.2223 -0.1530  0.4247
  332bbb     H1 9601   7.768   4.656   9.507 -1.0647 -3.3673 -4.3246
  332bbb     H2 9602   7.782   4.818   9.433 -0.1248 -0.0193  0.9166
  332bbb     C2 9603   7.503   4.739   9.602  0.1402 -0.1256  0.1979
  332bbb     H3 9604   7.429   4.739   9.521 -1.6687 -0.6097  1.7568
  332bbb     H4 9605   7.452   4.795   9.681  1.7354  0.1830  1.0412
  332bbb     C3 9606   7.702   4.849   9.677 -0.5230 -0.3594 -0.6179
  332bbb     H5 9607   7.787   4.903   9.634 -1.1419  2.6967  1.6746
  332bbb     H6 9608   7.747   4.765   9.732 -1.6325 -0.2028  0.5679
  332bbb     C4 9609   7.643   4.944   9.782 -0.3075  0.3649  0.0667
  332bbb     H7 9610   7.722   4.959   9.856  0.5482 -0.6146 -0.6333
  332bbb     H8 9611   7.559   4.902   9.838 -0.8641 -0.3228 -1.2448
  332bbb     C5 9612   7.648   4.698   9.338 -0.1091 -0.2176  0.0948
  332bbb     H9 9613   7.586   4.782   9.306  0.7039  0.8199  1.1339
  332bbb    H10 9614   7.579   4.617   9.365 -0.4789 -0.3806 -1.2679
  332bbb     C6 9615   7.517   4.595   9.652 -0.2010 -0.4216 -0.2686
  332bbb    H11 9616   7.568   4.611   9.748 -0.6556  2.1196 -0.3793
  332bbb    H12 9617   7.581   4.544   9.579  0.9122  0.5667 -0.0260
  332bbb     C7 9618   7.595   5.080   9.735 -0.4241  0.8604  0.4530
  332bbb    H13 9619   7.501   5.063   9.681 -0.3507 -1.6090  0.9599
  332bbb    H14 9620   7.673   5.121   9.671  0.5021 -2.2562 -0.6169
  332bbb     C8 9621   7.383   4.528   9.695 -0.0925 -0.3805  0.4145
  332bbb    H15 9622   7.340   4.567   9.788  1.4854 -2.5339  2.1470
  332bbb    H16 9623   7.420   4.428   9.722 -0.3632 -0.2097  1.4963
  332bbb     C9 9624   7.738   4.653   9.223 -0.3141  0.4364  0.2782
  332bbb    H17 9625   7.824   4.716   9.197  1.3354 -1.8568 -0.1633
  332bbb    H18 9626   7.683   4.668   9.129  2.8328 -0.5820 -1.9240
  332bbb     O1 9627   7.570   5.166   9.838  0.0655 -0.6743 -0.5323
  333bbb     N1 9628   5.731   5.963  10.666  0.8692  0.3172  0.0285
  333bbb     C1 9629   5.624   5.879  10.601 -0.3562 -0.7966 -0.5731
  333bbb     H1 9630   5.659   5.819  10.516  0.6648 -1.5243  0.3337
  333bbb     H2 9631   5.550   5.949  10.559 -0.0006 -0.2558 -0.3204
  333bbb     C2 9632   5.680   6.040  10.780  0.0088 -0.0401  0.4478
  333bbb     H3 9633   5.715   5.988  10.870  1.2657 -1.2663 -0.6855
  333bbb     H4 9634   5.571   6.051  10.776 -0.0526 -0.4819  0.9041
  333bbb     C3 9635   5.853   5.882  10.692 -0.1640  0.4378  0.6220
  333bbb     H5 9636   5.879   5.833  10.597  1.5363 -0.9447  1.7287
  333bbb     H6 9637   5.835   5.797  10.759 -0.8884 -0.9311 -1.2219
  333bbb     C4 9638   5.968   5.954  10.753  0.3556  0.3223 -0.3312
  333bbb     H7 9639   5.940   5.967  10.858 -0.1982 -0.6961 -0.3369
  333bbb     H8 9640   5.989   6.050  10.704 -0.7791 -0.2251 -1.9695
  333bbb     C5 9641   5.547   5.785  10.705  0.5371  0.3875 -0.2568
  333bbb     H9 9642   5.488   5.850  10.772  1.2690  0.1681  0.6282
  333bbb    H10 9643   5.610   5.724  10.772 -1.0556  0.9663  1.8963
  333bbb     C6 9644   5.746   6.179  10.776 -0.0545  0.4733 -0.3004
  333bbb    H11 9645   5.727   6.230  10.680  0.3531  2.1238  0.4587
  333bbb    H12 9646   5.853   6.182  10.800 -0.2390 -0.4826  0.7187
  333bbb     C7 9647   6.093   5.863  10.746  0.4164  0.2924  0.6907
  333bbb    H13 9648   6.069   5.769  10.798  0.8516  0.4146  1.1313
  333bbb    H14 9649   6.173   5.908  10.806  0.1084  0.0951  1.2581
  333bbb     C8 9650   5.686   6.262  10.888 -0.1276  0.2675 -0.0324
  333bbb    H15 9651   5.579   6.242  10.874  0.0565 -0.8498  0.0079
  333bbb    H16 9652   5.718   6.365  10.871  2.1446 -0.5418 -1.1287
  333bbb     C9 9653   5.439   5.699  10.632  0.6904  0.2835  0.2618
  333bbb    H17 9654   5.488   5.650  10.548 -0.5951  0.3199 -0.5363
  333bbb    H18 9655   5.364   5.759  10.579  0.4784 -3.0122 -3.6040
  333bbb     O1 9656   6.119   5.863  10.605  0.1180  0.3500  0.2331
  334bbb     N1 9657   6.661   4.788  10.774 -0.1857 -0.2665  0.1712
  334bbb     C1 9658   6.589   4.684  10.697  0.6602 -1.2164  0.7694
  334bbb     H1 9659   6.556   4.733  10.605  3.4848  1.0982  0.8336
  334bbb     H2 9660   6.500   4.649  10.750  0.4129 -0.6421  0.7388
  334bbb     C2 9661   6.714   4.746  10.906 -0.5481  0.6822 -0.9281
  334bbb     H3 9662   6.791   4.818  10.936 -0.0638 -0.5529  0.9860
  334bbb     H4 9663   6.777   4.658  10.889 -1.8013 -0.3009 -0.6503
  334bbb     C3 9664   6.590   4.912  10.776 -0.1545  0.3814 -0.3062
  334bbb     H5 9665   6.490   4.914  10.821 -0.0446  1.7218 -0.0807
  334bbb     H6 9666   6.568   4.942  10.673 -2.1042 -0.3473 -0.1446
  334bbb     C4 9667   6.657   5.026  10.854  0.1346  0.4260 -0.3878
  334bbb     H7 9668   6.758   5.044  10.814  0.0581  0.0262 -0.7741
  334bbb     H8 9669   6.667   5.004  10.961 -0.4144  1.5622 -0.0877
  334bbb     C5 9670   6.664   4.560  10.657  0.1201 -0.1201 -0.3897
  334bbb     H9 9671   6.697   4.503  10.745  1.8081 -0.2863 -1.0887
  334bbb    H10 9672   6.755   4.588  10.601  0.2640 -2.6214 -1.5338
  334bbb     C6 9673   6.605   4.713  11.014 -0.2352  0.5601 -0.0602
  334bbb    H11 9674   6.530   4.644  10.973 -0.2635 -0.1700  1.1878
  334bbb    H12 9675   6.552   4.803  11.048 -1.8067 -0.4141  0.1583
  334bbb     C7 9676   6.579   5.158  10.849  0.6722  0.4976 -1.5896
  334bbb    H13 9677   6.627   5.224  10.923 -0.6123 -0.9895  0.6772
  334bbb    H14 9678   6.479   5.138  10.888  1.1892  1.0378  0.1258
  334bbb     C8 9679   6.656   4.636  11.136  0.6298  0.0156  0.2452
  334bbb    H15 9680   6.728   4.709  11.175  2.6005 -1.6670 -0.0235
  334bbb    H16 9681   6.716   4.546  11.118 -1.4140 -1.4757  0.5221
  334bbb     C9 9682   6.601   4.464  10.556 -0.0247 -0.1179 -0.1170
  334bbb    H17 9683   6.654   4.368  10.563 -1.3077 -0.7768  1.5095
  334bbb    H18 9684   6.598   4.502  10.453 -0.3565 -1.1594 -0.5067
  334bbb     O1 9685   6.573   5.208  10.718 -0.2107 -0.3197 -0.3485
  335bbb     N1 9686   6.678  10.597   8.275  0.5121  0.6000  0.4465
  335bbb     C1 9687   6.570  10.692   8.243 -0.2544  0.3851  0.8376
  335bbb     H1 9688   6.579  10.705   8.135  0.4148 -1.7868  0.5713
  335bbb     H2 9689   6.592  10.792   8.280 -0.7226  0.0628  2.0467
  335bbb     C2 9690   6.807  10.624   8.208  0.0320  0.4284 -0.5527
  335bbb     H3 9691   6.786  10.620   8.100  1.1933  1.2635 -0.8415
  335bbb     H4 9692   6.885  10.550   8.229  0.3588  1.0457  0.4992
  335bbb     C3 9693   6.683  10.573   8.423  0.4043  0.2187  0.3368
  335bbb     H5 9694   6.582  10.549   8.457  0.4157 -1.4047 -0.6453
  335bbb     H6 9695   6.706  10.662   8.482 -0.3069 -0.4641  1.6744
  335bbb     C4 9696   6.775  10.464   8.475  0.5582 -0.3297 -0.1540
  335bbb     H7 9697   6.871  10.517   8.482  0.2196  0.7053 -2.5803
  335bbb     H8 9698   6.789  10.390   8.395  1.1955  1.9121 -2.2155
  335bbb     C5 9699   6.420  10.653   8.271 -0.0621 -0.5113 -0.1613
  335bbb     H9 9700   6.354  10.730   8.229 -0.5633 -0.8094  0.0730
  335bbb    H10 9701   6.405  10.634   8.378 -0.5556 -4.4600 -0.7555
  335bbb     C6 9702   6.874  10.756   8.252 -0.0515  0.2803 -0.0874
  335bbb    H11 9703   6.872  10.755   8.362 -1.1223 -1.0612 -0.0919
  335bbb    H12 9704   6.819  10.844   8.216  0.1585  0.5143  0.1620
  335bbb     C7 9705   6.742  10.405   8.617  1.2623 -0.0619 -0.0319
  335bbb    H13 9706   6.744  10.484   8.693 -1.4256  0.2066 -0.1486
  335bbb    H14 9707   6.822  10.332   8.639  1.7109  0.0619 -1.2020
  335bbb     C8 9708   7.026  10.767   8.198 -0.0024  0.1424  0.3619
  335bbb    H15 9709   7.063  10.664   8.203 -0.6214 -0.0358  1.5473
  335bbb    H16 9710   7.087  10.833   8.260 -0.8614  1.0133  0.2988
  335bbb     C9 9711   6.379  10.528   8.194 -0.1620  0.4443  1.0366
  335bbb    H17 9712   6.282  10.488   8.225 -0.9088  0.3521 -1.2303
  335bbb    H18 9713   6.449  10.450   8.226  0.1347  0.6973  1.0038
  335bbb     O1 9714   6.615  10.334   8.605  0.0389  0.2867 -0.3627
  336bbb     N1 9715   7.072  10.190   8.953 -0.5621 -0.5543 -0.2187
  336bbb     C1 9716   7.134  10.187   8.820 -0.1780 -0.3113  0.8159
  336bbb     H1 9717   7.054  10.200   8.746  1.3945 -1.4328 -1.1693
  336bbb     H2 9718   7.188  10.093   8.802  0.7155  0.5772 -1.4805
  336bbb     C2 9719   7.017  10.319   8.992 -0.3168  0.0108  0.5478
  336bbb     H3 9720   7.093  10.398   8.981 -0.2183  0.2597  2.6780
  336bbb     H4 9721   6.997  10.325   9.099 -1.5395  1.2629  0.2806
  336bbb     C3 9722   6.993  10.066   8.988  0.0775 -0.3985  0.4625
  336bbb     H5 9723   6.943  10.039   8.894  2.2256 -1.0247 -0.5599
  336bbb     H6 9724   6.914  10.089   9.060 -0.0360  1.1202 -0.1107
  336bbb     C4 9725   7.068   9.945   9.023  0.0472  0.4901  0.1168
  336bbb     H7 9726   7.135   9.976   9.104 -0.5800  0.4300  0.6690
  336bbb     H8 9727   7.111   9.897   8.935 -1.1815 -0.4163 -0.0045
  336bbb     C5 9728   7.248  10.281   8.778 -0.1941 -0.1829  0.5516
  336bbb     H9 9729   7.326  10.233   8.718 -0.0534  2.6195 -1.7181
  336bbb    H10 9730   7.294  10.317   8.871  0.2487 -2.0651  1.1179
  336bbb     C6 9731   6.888  10.360   8.916  0.4909 -0.3838  0.4447
  336bbb    H11 9732   6.821  10.273   8.911  0.4623 -0.3013 -1.1502
  336bbb    H12 9733   6.924  10.408   8.824  3.4585 -0.3628  1.4944
  336bbb     C7 9734   6.982   9.835   9.087 -0.0491  0.2530 -0.7919
  336bbb    H13 9735   6.971   9.874   9.189  0.7910 -1.5783  0.0297
  336bbb    H14 9736   7.030   9.737   9.094  1.0604  0.8948  2.0348
  336bbb     C8 9737   6.813  10.476   8.992  0.5016  0.3925  0.2617
  336bbb    H15 9738   6.779  10.448   9.092  0.6044  1.0889  0.5019
  336bbb    H16 9739   6.728  10.516   8.934  2.0330  0.8228 -1.8094
  336bbb     C9 9740   7.206  10.402   8.696 -0.4277 -0.5797 -0.1317
  336bbb    H17 9741   7.287  10.474   8.683 -1.3480  1.1922  2.9084
  336bbb    H18 9742   7.136  10.461   8.756  1.4327  0.1670  1.4148
  336bbb     O1 9743   6.848   9.837   9.044 -0.3430 -0.2263 -0.0190
  337bbb     N1 9744   7.064   9.881  10.523  0.4153  0.0399 -0.5669
  337bbb     C1 9745   7.056  10.029  10.517  0.0216 -0.8042 -0.3143
  337bbb     H1 9746   7.059  10.074  10.616 -0.3843 -1.1732 -0.1306
  337bbb     H2 9747   6.966  10.070  10.469  1.1098 -0.1753 -1.9002
  337bbb     C2 9748   7.062   9.814  10.657 -0.3635 -0.4726  0.0326
  337bbb     H3 9749   7.059   9.705  10.650 -0.6107 -0.3539 -3.2717
  337bbb     H4 9750   6.976   9.851  10.714 -0.1209  0.1984 -0.0222
  337bbb     C3 9751   6.981   9.813  10.420  0.3656  0.5811  0.1865
  337bbb     H5 9752   7.002   9.707  10.401 -2.4419 -0.2242  1.1194
  337bbb     H6 9753   7.005   9.868  10.327  1.8275  0.8939  0.7234
  337bbb     C4 9754   6.832   9.814  10.451 -0.3012  0.0448  0.4579
  337bbb     H7 9755   6.800   9.917  10.472  1.8022  1.0315 -0.7779
  337bbb     H8 9756   6.797   9.749  10.532 -0.7790 -0.3989 -0.1021
  337bbb     C5 9757   7.171  10.092  10.428 -0.0811 -0.2877 -0.8846
  337bbb     H9 9758   7.146  10.196  10.406 -1.5030 -0.8080 -1.8754
  337bbb    H10 9759   7.176  10.037  10.333 -0.6410 -2.2478  0.1537
  337bbb     C6 9760   7.176   9.846  10.750  0.0163  0.2552 -0.2431
  337bbb    H11 9761   7.176   9.955  10.763 -1.1652  0.0675  1.8478
  337bbb    H12 9762   7.268   9.813  10.701  0.9366  2.0612  0.1719
  337bbb     C7 9763   6.757   9.782  10.321  0.2678  0.4248 -0.1527
  337bbb    H13 9764   6.654   9.779  10.359  1.0178 -0.9352  1.9014
  337bbb    H14 9765   6.791   9.680  10.301 -1.1329 -0.3976  1.3799
  337bbb     C8 9766   7.156   9.782  10.888 -0.6261  0.0698  0.2544
  337bbb    H15 9767   7.156   9.673  10.880  0.0384 -0.0358  1.4667
  337bbb    H16 9768   7.056   9.805  10.927  0.8801  4.4352  2.2493
  337bbb     C9 9769   7.301  10.090  10.505  0.3436  0.0876  0.5564
  337bbb    H17 9770   7.321   9.994  10.554 -0.5635 -0.2486  0.2857
  337bbb    H18 9771   7.296  10.163  10.586 -1.2322  1.9099 -1.0800
  337bbb     O1 9772   6.772   9.880  10.211  0.6073 -0.1317 -0.0050
  338bbb     N1 9773   7.779   9.675   9.603  0.3430  0.3371  0.4107
  338bbb     C1 9774   7.756   9.725   9.469  0.1737  0.2754  0.4564
  338bbb     H1 9775   7.841   9.792   9.450  0.1054 -0.1981 -1.7753
  338bbb     H2 9776   7.671   9.795   9.462  1.4077  1.7810 -0.2248
  338bbb     C2 9777   7.912   9.613   9.630 -0.2972 -0.4587  0.1955
  338bbb     H3 9778   7.937   9.534   9.559 -0.0146 -1.4890  1.4011
  338bbb     H4 9779   7.900   9.559   9.725 -1.3034 -1.8508 -0.6881
  338bbb     C3 9780   7.675   9.597   9.667  0.6158  0.3069 -0.8030
  338bbb     H5 9781   7.698   9.583   9.773 -0.8566  3.0850 -0.0122
  338bbb     H6 9782   7.685   9.493   9.633 -0.1650 -1.1354  2.9180
  338bbb     C4 9783   7.523   9.640   9.644 -0.0172  0.3916 -0.6277
  338bbb     H7 9784   7.512   9.636   9.535  0.3566  1.1083 -0.6938
  338bbb     H8 9785   7.512   9.744   9.676  3.1075  0.9685 -1.0878
  338bbb     C5 9786   7.754   9.620   9.356 -0.6132 -0.0002 -0.3449
  338bbb     H9 9787   7.689   9.535   9.380  0.4956 -1.0176 -0.8557
  338bbb    H10 9788   7.857   9.588   9.337 -0.4821  0.6539 -0.7517
  338bbb     C6 9789   8.029   9.706   9.657  0.0194  0.5871 -0.7260
  338bbb    H11 9790   8.050   9.766   9.568 -0.4044 -0.1986 -1.3650
  338bbb    H12 9791   8.121   9.651   9.680  0.4929  1.4263 -0.5361
  338bbb     C7 9792   7.432   9.541   9.719  0.0041 -0.0891  0.5848
  338bbb    H13 9793   7.476   9.539   9.819  0.4130  1.2080  0.4441
  338bbb    H14 9794   7.437   9.441   9.674  0.3780  1.0694 -2.2106
  338bbb     C8 9795   8.003   9.802   9.776  0.7336 -0.6089 -0.3340
  338bbb    H15 9796   7.923   9.868   9.741  0.7802 -0.8873 -0.9935
  338bbb    H16 9797   7.965   9.729   9.848  0.7316 -1.1891 -0.9078
  338bbb     C9 9798   7.712   9.684   9.224  0.2231  0.1455  0.3205
  338bbb    H17 9799   7.609   9.720   9.228 -0.1302 -0.6608 -0.9896
  338bbb    H18 9800   7.701   9.606   9.147 -1.8790 -1.1222  1.8143
  338bbb     O1 9801   7.298   9.589   9.727 -0.3710  0.3272  0.1509
  339bbb     N1 9802   4.824   8.439  11.342 -0.2090 -0.1171 -0.8329
  339bbb     C1 9803   4.693   8.466  11.271 -0.2404 -0.6658 -0.1137
  339bbb     H1 9804   4.683   8.397  11.186  1.3293 -1.3759  0.2446
  339bbb     H2 9805   4.709   8.566  11.230 -1.7900 -0.6750 -0.8350
  339bbb     C2 9806   4.846   8.517  11.473  0.6964  0.8077 -0.0694
  339bbb     H3 9807   4.754   8.521  11.532  2.6350 -0.5673  3.3018
  339bbb     H4 9808   4.875   8.622  11.457 -1.1417  1.1109 -1.7816
  339bbb     C3 9809   4.936   8.436  11.243 -0.9920 -0.3904 -0.0084
  339bbb     H5 9810   4.896   8.395  11.149  0.2389  0.8743 -1.1346
  339bbb     H6 9811   5.010   8.365  11.282 -0.3934 -0.6754 -1.5972
  339bbb     C4 9812   5.020   8.561  11.208 -0.2550 -0.0676  0.5535
  339bbb     H7 9813   5.093   8.537  11.130  1.3546  1.2300  1.5882
  339bbb     H8 9814   5.077   8.585  11.299 -0.5725 -1.4424  1.1431
  339bbb     C5 9815   4.562   8.471  11.352 -0.0436  0.2493 -0.1144
  339bbb     H9 9816   4.558   8.542  11.435  0.9954  0.1098  0.0680
  339bbb    H10 9817   4.531   8.369  11.379  1.0488  0.1192  0.7237
  339bbb     C6 9818   4.956   8.450  11.560 -0.7958 -0.2016 -0.3454
  339bbb    H11 9819   5.049   8.466  11.505 -2.2050  3.2707 -1.9749
  339bbb    H12 9820   4.939   8.341  11.569 -0.8148 -0.1978 -0.3326
  339bbb     C7 9821   4.932   8.680  11.170 -0.7659  0.0112 -0.2276
  339bbb    H13 9822   4.881   8.722  11.257 -1.4767  1.2432 -1.1968
  339bbb    H14 9823   4.847   8.661  11.103 -1.7158  4.0498 -0.4559
  339bbb     C8 9824   4.971   8.509  11.706  0.4557  0.5051 -0.6274
  339bbb    H15 9825   4.981   8.618  11.705  1.3992  0.5034  2.0864
  339bbb    H16 9826   5.062   8.467  11.750  1.4837  0.6875 -2.4752
  339bbb     C9 9827   4.439   8.523  11.267 -0.0828  0.1195  0.6255
  339bbb    H17 9828   4.391   8.448  11.203 -1.1368 -0.1713  1.7075
  339bbb    H18 9829   4.356   8.541  11.337 -0.3085 -2.9752  1.2920
  339bbb     O1 9830   5.013   8.783  11.118 -0.4250  0.0295 -0.0996
  340bbb     N1 9831   5.247  10.008  11.265  0.2941  0.5447  0.2825
  340bbb     C1 9832   5.340  10.060  11.169  0.0253 -0.1355  0.5181
  340bbb     H1 9833   5.331  10.008  11.072  0.0780 -0.9035  0.9165
  340bbb     H2 9834   5.445  10.046  11.198  0.3977  1.2184 -0.1105
  340bbb     C2 9835   5.104  10.054  11.253  1.4251 -0.4513  0.0347
  340bbb     H3 9836   5.091  10.163  11.248 -1.7119 -0.7131  0.3082
  340bbb     H4 9837   5.052  10.018  11.342 -1.1547  0.7142 -0.8974
  340bbb     C3 9838   5.264   9.858  11.271 -0.4249  0.1548 -0.2067
  340bbb     H5 9839   5.226   9.823  11.174 -3.4429  0.8524  0.6080
  340bbb     H6 9840   5.206   9.809  11.349  2.8481 -3.8299  0.0450
  340bbb     C4 9841   5.412   9.819  11.278 -0.2620  0.4424  0.2472
  340bbb     H7 9842   5.462   9.886  11.348  3.2812  0.0003 -1.5976
  340bbb     H8 9843   5.469   9.838  11.186 -1.0030  1.7610  0.0365
  340bbb     C5 9844   5.320  10.211  11.142 -0.5257  1.0016  0.5478
  340bbb     H9 9845   5.222  10.223  11.096  0.3104  1.1601 -1.2820
  340bbb    H10 9846   5.394  10.234  11.065  0.9538  1.2553  1.9766
  340bbb     C6 9847   5.032   9.999  11.126 -0.6789 -0.2828  0.3722
  340bbb    H11 9848   5.044   9.892  11.108  0.8048  0.2733 -2.7583
  340bbb    H12 9849   5.074  10.039  11.033  1.3971 -3.9929 -0.4770
  340bbb     C7 9850   5.443   9.670  11.320  0.5484 -0.7671  0.4163
  340bbb    H13 9851   5.401   9.649  11.419 -0.2029 -2.2094 -0.1800
  340bbb    H14 9852   5.550   9.653  11.306  0.5701  0.6781 -1.6179
  340bbb     C8 9853   4.886  10.040  11.132 -0.2833  0.5284 -0.2676
  340bbb    H15 9854   4.887  10.149  11.136 -0.2236  0.4950  1.1833
  340bbb    H16 9855   4.853   9.996  11.227 -0.0317 -1.7537 -1.1627
  340bbb     C9 9856   5.345  10.299  11.269 -0.0169 -0.4775 -0.4424
  340bbb    H17 9857   5.268  10.272  11.342  0.6032 -1.5051 -0.1410
  340bbb    H18 9858   5.348  10.406  11.245 -0.4086 -1.1083 -3.8468
  340bbb     O1 9859   5.370   9.584  11.231  0.3263  0.1098 -0.2713
  341bbb     N1 9860   6.910   8.388  11.247  0.2752 -0.5378 -0.1517
  341bbb     C1 9861   6.759   8.393  11.227  0.7501 -0.0138 -0.1190
  341bbb     H1 9862   6.686   8.363  11.303  0.8022  2.6273  1.0863
  341bbb     H2 9863   6.751   8.322  11.144  2.0026  1.3145 -1.4508
  341bbb     C2 9864   6.960   8.249  11.279  0.2672  0.3214  0.0114
  341bbb     H3 9865   6.896   8.216  11.362 -0.5383  5.1500  1.6207
  341bbb     H4 9866   7.056   8.263  11.330  0.3305 -0.2745  0.0638
  341bbb     C3 9867   6.951   8.501  11.344 -0.4943  0.4181  0.0353
  341bbb     H5 9868   6.931   8.601  11.304  0.3907  0.5654 -0.0720
  341bbb     H6 9869   7.060   8.491  11.355  0.0278  1.1879 -3.2791
  341bbb     C4 9870   6.883   8.492  11.488  0.1521 -0.3730 -0.5966
  341bbb     H7 9871   6.883   8.389  11.527 -0.0786 -0.6541 -1.3353
  341bbb     H8 9872   6.775   8.509  11.480  0.3019  0.0859 -1.8738
  341bbb     C5 9873   6.705   8.533  11.168 -0.5372 -0.1957  0.6277
  341bbb     H9 9874   6.780   8.570  11.098 -0.7189  1.3098  1.2040
  341bbb    H10 9875   6.711   8.602  11.253  4.0159 -0.2647  0.6057
  341bbb     C6 9876   6.965   8.133  11.164  0.4330 -0.8905 -0.0583
  341bbb    H11 9877   6.856   8.131  11.153  0.2080  0.3070  1.5652
  341bbb    H12 9878   6.951   8.056  11.241  2.0141 -2.0564 -0.8849
  341bbb     C7 9879   6.944   8.605  11.579 -0.1099  0.4361  0.1314
  341bbb    H13 9880   7.051   8.625  11.565  0.1502 -0.6641  0.4624
  341bbb    H14 9881   6.926   8.571  11.682  0.2330 -3.9285 -1.0719
  341bbb     C8 9882   7.130   8.060  10.975  0.4868  0.6978  0.0667
  341bbb    H15 9883   7.166   8.135  10.905  1.9633 -0.4388 -0.4567
  341bbb    H16 9884   7.095   8.004  10.887 -0.7632  0.9941  0.3592
  341bbb     C9 9885   6.568   8.513  11.096 -0.0056  0.2793  0.2297
  341bbb    H17 9886   6.531   8.608  11.055 -2.2292 -0.2238  0.9550
  341bbb    H18 9887   6.502   8.469  11.171  2.4423 -0.2940  2.1561
  341bbb     O1 9888   6.875   8.729  11.566 -0.7146  0.1979  0.0885
  342bbb     N1 9889   6.432   8.250  12.266 -0.2261  0.2489  0.3882
  342bbb     C1 9890   6.555   8.163  12.286  0.4044  0.2470  0.6623
  342bbb     H1 9891   6.602   8.137  12.190  0.8695 -1.2693  1.2680
  342bbb     H2 9892   6.532   8.071  12.342  1.1322  1.4493  3.0971
  342bbb     C2 9893   6.294   8.187  12.291  0.3499  0.1798 -0.0063
  342bbb     H3 9894   6.278   8.101  12.224 -1.9768 -0.8075  1.7039
  342bbb     H4 9895   6.212   8.255  12.266  0.8542  1.4454  1.6940
  342bbb     C3 9896   6.442   8.343  12.158  0.3801  0.9119  0.1629
  342bbb     H5 9897   6.550   8.361  12.151  0.5918 -0.0871  0.6472
  342bbb     H6 9898   6.383   8.433  12.175 -2.3513 -0.7900  0.2903
  342bbb     C4 9899   6.394   8.288  12.021 -0.6034  0.6126  0.4017
  342bbb     H7 9900   6.292   8.246  12.026 -0.7226  0.7807 -0.5163
  342bbb     H8 9901   6.460   8.202  12.006 -1.2767 -0.3020  2.3790
  342bbb     C5 9902   6.656   8.244  12.373  0.4761  0.4677 -0.1120
  342bbb     H9 9903   6.606   8.299  12.454  1.8901  1.9906 -0.2432
  342bbb    H10 9904   6.707   8.316  12.309  1.7384 -0.1772  0.1288
  342bbb     C6 9905   6.285   8.141  12.430 -0.6981 -0.1075  0.3798
  342bbb    H11 9906   6.303   8.227  12.495 -2.3176 -0.3440  1.1994
  342bbb    H12 9907   6.362   8.065  12.449 -0.0639 -0.1038 -1.8806
  342bbb     C7 9908   6.416   8.388  11.898  0.6975  0.2100  0.3255
  342bbb    H13 9909   6.371   8.348  11.807 -0.1914  1.6874  0.0714
  342bbb    H14 9910   6.525   8.394  11.885  0.6770 -0.7815 -0.3655
  342bbb     C8 9911   6.143   8.085  12.458  0.3128 -0.1854 -0.5284
  342bbb    H15 9912   6.109   8.008  12.388 -2.1079 -1.1390  1.5492
  342bbb    H16 9913   6.070   8.165  12.472 -1.6928 -2.1586  0.7670
  342bbb     C9 9914   6.768   8.156  12.422  0.0035  0.3819 -0.5949
  342bbb    H17 9915   6.860   8.214  12.433 -1.1694  2.3590 -0.7961
  342bbb    H18 9916   6.797   8.086  12.342  0.3801  0.9023 -0.9181
  342bbb     O1 9917   6.367   8.523  11.920  0.1473 -1.2136  0.7032
  343bbb     N1 9918   6.266   7.421   7.498  0.5155 -0.5983  0.3250
  343bbb     C1 9919   6.173   7.306   7.483 -0.1793  0.0271  0.6837
  343bbb     H1 9920   6.141   7.300   7.588 -0.2959  1.1287  0.7225
  343bbb     H2 9921   6.219   7.208   7.461 -0.1386  0.3503 -0.7885
  343bbb     C2 9922   6.373   7.428   7.393  0.5326  0.5252  0.2757
  343bbb     H3 9923   6.426   7.522   7.412  0.4654  0.4852  0.6749
  343bbb     H4 9924   6.324   7.438   7.296  2.0914  2.1531 -0.4015
  343bbb     C3 9925   6.201   7.554   7.507  0.0789  0.8144  0.4763
  343bbb     H5 9926   6.118   7.542   7.577  0.7269  3.2119  1.7771
  343bbb     H6 9927   6.162   7.589   7.410  0.6440  2.9397  0.9598
  343bbb     C4 9928   6.285   7.665   7.574 -0.1099  1.0856  0.0939
  343bbb     H7 9929   6.223   7.750   7.603 -2.6861 -1.0119  1.1739
  343bbb     H8 9930   6.355   7.705   7.499  1.1848 -0.6296  0.3324
  343bbb     C5 9931   6.049   7.332   7.397  0.0754 -0.0904  0.0507
  343bbb     H9 9932   6.070   7.375   7.298 -0.6361  0.5124  0.1510
  343bbb    H10 9933   5.974   7.400   7.440 -0.5072 -1.1217  0.7110
  343bbb     C6 9934   6.482   7.314   7.389 -0.2527  0.0446 -0.0659
  343bbb    H11 9935   6.438   7.217   7.415  2.0868 -0.8356  0.8254
  343bbb    H12 9936   6.544   7.347   7.473 -0.0978 -0.9847  0.2361
  343bbb     C7 9937   6.378   7.610   7.691  0.6156 -0.1631  0.1417
  343bbb    H13 9938   6.455   7.684   7.712  0.0181  0.3775  0.4409
  343bbb    H14 9939   6.428   7.515   7.664 -2.2828 -1.5412 -0.8338
  343bbb     C8 9940   6.564   7.324   7.254  0.5502 -0.0585 -0.4868
  343bbb    H15 9941   6.579   7.432   7.238 -0.1855  0.2674  0.8047
  343bbb    H16 9942   6.504   7.293   7.168  0.6748 -0.8904 -0.2849
  343bbb     C9 9943   5.976   7.194   7.367 -0.4305 -0.2965 -0.4974
  343bbb    H17 9944   5.984   7.143   7.464  2.3418  0.1160 -0.4180
  343bbb    H18 9945   6.030   7.131   7.296 -0.5708 -0.4548 -0.4634
  343bbb     O1 9946   6.293   7.598   7.810 -0.2315  0.2997  0.3728
  344bbb     N1 9947   7.167   7.115   8.003 -0.1288  0.1770  0.5025
  344bbb     C1 9948   7.275   7.023   8.049 -0.2373 -0.8141 -0.9152
  344bbb     H1 9949   7.367   7.077   8.073  0.5106 -1.7016 -1.7124
  344bbb     H2 9950   7.320   6.967   7.965  1.6745  0.8311 -1.0656
  344bbb     C2 9951   7.219   7.184   7.878  0.2390 -0.0786 -0.0360
  344bbb     H3 9952   7.139   7.223   7.815 -0.6848  0.4439  1.4170
  344bbb     H4 9953   7.290   7.127   7.817 -0.0576  0.8133 -1.2404
  344bbb     C3 9954   7.097   7.200   8.102 -0.1971 -0.0250 -0.1684
  344bbb     H5 9955   7.169   7.275   8.136 -0.7700  1.0079 -1.1658
  344bbb     H6 9956   7.059   7.141   8.186 -0.5476  1.4699  0.7486
  344bbb     C4 9957   6.968   7.262   8.045  0.0540  0.2664  0.3159
  344bbb     H7 9958   6.896   7.179   8.037 -0.1047  0.3942  0.4118
  344bbb     H8 9959   6.984   7.310   7.948  2.3190 -1.3167 -0.1874
  344bbb     C5 9960   7.221   6.921   8.150 -0.2416  0.4095 -0.2996
  344bbb     H9 9961   7.127   6.881   8.110  1.0906 -0.9665 -2.2376
  344bbb    H10 9962   7.210   6.954   8.254  0.4651 -1.0779  0.2790
  344bbb     C6 9963   7.311   7.308   7.911 -0.0761  1.0828 -0.1976
  344bbb    H11 9964   7.403   7.282   7.966 -1.8307 -2.6044  1.4004
  344bbb    H12 9965   7.260   7.375   7.981 -0.4332 -0.5736  1.2075
  344bbb     C7 9966   6.906   7.357   8.144  0.3262  0.4815 -0.6523
  344bbb    H13 9967   6.981   7.435   8.161  0.9518 -0.1752 -0.3395
  344bbb    H14 9968   6.893   7.315   8.244  0.0365  0.1184 -0.8410
  344bbb     C8 9969   7.348   7.384   7.782  0.9310  0.1423 -0.2248
  344bbb    H15 9970   7.400   7.478   7.805  0.7480  0.5085 -1.2704
  344bbb    H16 9971   7.259   7.407   7.723 -0.6955 -1.4253  1.4571
  344bbb     C9 9972   7.305   6.792   8.138 -0.1882 -0.1513 -0.2558
  344bbb    H17 9973   7.408   6.824   8.157  0.6517 -0.7972 -3.2637
  344bbb    H18 9974   7.306   6.756   8.035 -1.3085 -0.4359 -0.1826
  344bbb     O1 9975   6.789   7.405   8.075  0.4634  0.3184  0.1136
  345bbb     N1 9976   4.932   9.364   7.903  0.2615 -0.0051  0.0959
  345bbb     C1 9977   4.922   9.466   8.007 -0.8975 -0.2231 -0.0284
  345bbb     H1 9978   4.942   9.569   7.975  0.6731  0.1185  1.8376
  345bbb     H2 9979   5.000   9.448   8.082 -1.5886 -0.5645  0.6206
  345bbb     C2 9980   4.847   9.401   7.796 -0.0120 -0.1730  0.0932
  345bbb     H3 9981   4.869   9.500   7.755  3.7209  0.0701  2.2627
  345bbb     H4 9982   4.747   9.403   7.842 -0.0562 -0.2466  0.0026
  345bbb     C3 9983   5.071   9.335   7.855  0.0682 -0.0439 -0.6152
  345bbb     H5 9984   5.114   9.419   7.799  3.0736 -1.6860 -1.0229
  345bbb     H6 9985   5.067   9.248   7.788 -1.0143 -0.0027 -0.6208
  345bbb     C4 9986   5.172   9.313   7.966 -0.8576  0.3894  0.0853
  345bbb     H7 9987   5.136   9.233   8.030 -0.7255 -0.9902 -1.5062
  345bbb     H8 9988   5.190   9.404   8.026 -1.2501  1.0671 -0.8026
  345bbb     C5 9989   4.796   9.462   8.100 -0.3328  0.4727  1.1422
  345bbb     H9 9990   4.814   9.387   8.179  0.8853 -0.2687  0.1856
  345bbb    H10 9991   4.711   9.427   8.040  0.3022 -0.0767  0.5556
  345bbb     C6 9992   4.834   9.292   7.684  0.4268  0.1740 -0.2994
  345bbb    H11 9993   4.841   9.193   7.732  1.6890  0.1583 -0.4788
  345bbb    H12 9994   4.915   9.295   7.610 -0.7620 -0.2698 -1.6773
  345bbb     C7 9995   5.306   9.272   7.906  0.1919 -0.5374 -0.4340
  345bbb    H13 9996   5.364   9.358   7.873 -0.8269  0.0966 -0.6166
  345bbb    H14 9997   5.291   9.217   7.812  1.5912 -0.2427 -0.8576
  345bbb     C8 9998   4.697   9.296   7.605  0.2774  0.2021  0.3067
  345bbb    H15 9999   4.697   9.211   7.537  2.3492  0.9963 -0.7746
  345bbb    H1610000   4.701   9.376   7.530  0.9188 -1.2428 -1.2600
  345bbb     C910001   4.767   9.600   8.164  0.2045  0.3068 -0.0374
  345bbb    H1710002   4.746   9.671   8.083  0.8041 -0.6200 -1.0380
  345bbb    H1810003   4.862   9.629   8.209  0.7163 -0.4224 -0.6184
  345bbb     O110004   5.383   9.197   8.008 -0.6484 -0.3484  0.1899
  346bbb     N110005   6.197   9.774   7.991  0.7117  0.1156  0.2999
  346bbb     C110006   6.249   9.821   7.864  0.4857 -0.4074 -0.5380
  346bbb     H110007   6.166   9.882   7.825  0.0644 -0.8818 -0.3940
  346bbb     H210008   6.274   9.737   7.799 -1.9852 -0.4631 -1.5364
  346bbb     C210009   6.155   9.876   8.087  0.2534 -0.2437 -0.1291
  346bbb     H310010   6.240   9.933   8.127  0.4961  0.3911 -1.5005
  346bbb     H410011   6.108   9.830   8.175 -0.1813  0.8839  0.2484
  346bbb     C310012   6.087   9.674   7.969 -0.1703  0.7790  0.0003
  346bbb     H510013   6.003   9.715   7.912  0.8162  0.4038 -1.7944
  346bbb     H610014   6.068   9.626   8.066  0.6642 -0.0387 -0.2217
  346bbb     C410015   6.133   9.545   7.881 -0.1546  0.2295  0.1351
  346bbb     H710016   6.235   9.521   7.916 -0.7515 -4.0360 -0.5199
  346bbb     H810017   6.147   9.579   7.778 -0.0610 -1.4198 -0.4155
  346bbb     C510018   6.375   9.907   7.866  0.2393 -0.0852 -0.5394
  346bbb     H910019   6.469   9.858   7.894  0.7848  1.3721  0.3484
  346bbb    H1010020   6.368   9.990   7.939 -1.3116  1.0675 -1.9340
  346bbb     C610021   6.051   9.986   8.039  0.5121 -0.3741  0.5049
  346bbb    H1110022   5.960   9.941   7.997 -0.8220  1.3355  1.4267
  346bbb    H1210023   6.087  10.042   7.951 -0.8677 -0.7600 -0.3476
  346bbb     C710024   6.038   9.429   7.883 -0.4247 -0.0903 -0.2507
  346bbb    H1310025   6.019   9.409   7.989  0.2719  0.0064 -0.1032
  346bbb    H1410026   6.092   9.339   7.850  0.2088  0.3567 -0.4348
  346bbb     C810027   5.995  10.077   8.149  1.3437 -0.3001 -0.3583
  346bbb    H1510028   6.076  10.120   8.208  2.0547 -0.3624 -1.2732
  346bbb    H1610029   5.936  10.011   8.215 -0.5777  1.5006 -0.1513
  346bbb     C910030   6.403   9.972   7.731 -0.2166  0.7130  0.0792
  346bbb    H1710031   6.415   9.890   7.659  1.7567 -0.2057  1.3723
  346bbb    H1810032   6.497  10.027   7.730 -0.6020  1.3815 -0.3884
  346bbb     O110033   5.923   9.463   7.807 -0.3345  0.0450 -0.1065
  347bbb     N110034   4.834   8.508  10.585  0.6857  0.6721  0.8413
  347bbb     C110035   4.720   8.424  10.644  0.4549  0.6862  0.1016
  347bbb     H110036   4.721   8.322  10.602  0.9602  1.0871 -0.9074
  347bbb     H210037   4.627   8.478  10.625  0.2342  1.1534  2.3123
  347bbb     C210038   4.853   8.641  10.638 -0.0199 -0.3550  0.3939
  347bbb     H310039   4.817   8.648  10.741  0.6565  0.3159  0.6018
  347bbb     H410040   4.796   8.714  10.579  0.1751 -1.9547 -1.9421
  347bbb     C310041   4.811   8.510  10.440  0.0358  0.0328  0.4830
  347bbb     H510042   4.898   8.568  10.407  0.2530  0.7347  2.1689
  347bbb     H610043   4.717   8.565  10.426  0.1032  0.0164 -0.0722
  347bbb     C410044   4.811   8.371  10.371  0.2095 -0.8445 -0.0805
  347bbb     H710045   4.795   8.398  10.266  2.2407  4.1090  0.6132
  347bbb     H810046   4.716   8.323  10.397 -0.8106  0.1503 -1.7467
  347bbb     C510047   4.717   8.394  10.798  0.0253 -0.2386  0.1049
  347bbb     H910048   4.643   8.318  10.822 -0.1240 -0.0004  0.4080
  347bbb    H1010049   4.678   8.483  10.850 -0.7905 -0.1678 -0.6149
  347bbb     C610050   5.005   8.688  10.633  0.4360 -0.0889 -0.5922
  347bbb    H1110051   5.055   8.663  10.538  1.4768  2.1737 -0.7098
  347bbb    H1210052   5.064   8.649  10.716  1.1410  2.0294 -0.0395
  347bbb     C710053   4.916   8.273  10.402  0.2007  0.7709 -0.6974
  347bbb    H1310054   4.895   8.233  10.502  0.8628  1.1495 -0.3968
  347bbb    H1410055   5.017   8.316  10.399  0.0021  1.2097 -2.4126
  347bbb     C810056   5.019   8.836  10.662  0.0677 -0.1693  0.0586
  347bbb    H1510057   4.940   8.894  10.613  0.7801  0.6243 -0.1791
  347bbb    H1610058   4.995   8.849  10.768 -1.2011 -0.1188 -0.2249
  347bbb     C910059   4.852   8.363  10.863 -0.2244  0.3570  0.4685
  347bbb    H1710060   4.844   8.297  10.951  1.5168 -2.3257 -1.2182
  347bbb    H1810061   4.904   8.457  10.881 -0.3507  0.7240 -1.0305
  347bbb     O110062   4.890   8.173  10.305  0.3132  0.1028  0.8308
  348bbb     N110063   4.477   7.118   9.953  0.5735 -0.0272  0.8974
  348bbb     C110064   4.379   7.047  10.034 -0.1554  0.4405  0.3321
  348bbb     H110065   4.289   7.047   9.971  0.3029 -0.1545 -0.3477
  348bbb     H210066   4.359   7.109  10.122 -1.4984  1.3576 -0.5690
  348bbb     C210067   4.458   7.104   9.801 -0.7741 -0.3227  0.0257
  348bbb     H310068   4.545   7.148   9.750  0.1080  1.1502  2.5980
  348bbb     H410069   4.377   7.168   9.766 -0.5885 -1.2023 -2.1742
  348bbb     C310070   4.485   7.257  10.009  0.8667 -0.3529  0.0650
  348bbb     H510071   4.492   7.265  10.119  0.1957  0.1801  0.0755
  348bbb     H610072   4.391   7.308   9.984  1.1974 -0.0055 -0.4685
  348bbb     C410073   4.611   7.319   9.956  0.5494  0.2726  0.3096
  348bbb     H710074   4.589   7.332   9.849 -0.3090 -0.1628  0.4263
  348bbb     H810075   4.687   7.244   9.979  1.0544  0.9896  1.0645
  348bbb     C510076   4.423   6.904  10.080 -0.2752 -0.0377  0.7418
  348bbb     H910077   4.521   6.915  10.130 -0.2432 -1.6125  1.0602
  348bbb    H1010078   4.439   6.850   9.986 -2.6607 -0.2979  0.4337
  348bbb     C610079   4.430   6.965   9.737  0.0816 -0.3980  0.1595
  348bbb    H1110080   4.328   6.940   9.768 -0.7134  0.6946 -1.3867
  348bbb    H1210081   4.503   6.894   9.776  1.2539  1.3425  1.2488
  348bbb     C710082   4.646   7.452  10.018  1.4889 -0.3443 -0.0670
  348bbb    H1310083   4.557   7.511   9.996  2.2395  0.4208 -1.1937
  348bbb    H1410084   4.723   7.499   9.955  2.0191 -1.3271 -0.1704
  348bbb     C810085   4.440   6.963   9.586 -0.2168 -0.4440  0.2315
  348bbb    H1510086   4.542   6.978   9.548 -1.2126  2.0185 -1.7381
  348bbb    H1610087   4.387   7.048   9.542 -1.5147 -1.2323  0.2447
  348bbb     C910088   4.314   6.844  10.165 -0.0004 -0.3236 -0.1267
  348bbb    H1710089   4.218   6.892  10.147 -0.6002 -1.5122 -0.2141
  348bbb    H1810090   4.344   6.859  10.269  0.4707 -0.5509 -0.2246
  348bbb     O110091   4.668   7.440  10.161  0.3172  0.2197  0.4938
  349bbb     N110092   4.896   9.579   9.952  0.4451  0.0625  0.2948
  349bbb     C110093   4.816   9.601  10.078  0.3413  0.8484  0.1144
  349bbb     H110094   4.766   9.505  10.093  0.9984  0.5555  0.4852
  349bbb     H210095   4.742   9.682  10.076 -2.4234 -1.5228 -0.8158
  349bbb     C210096   4.991   9.685   9.917  1.0862 -0.5441 -0.2892
  349bbb     H310097   5.045   9.664   9.824 -0.1547 -0.0012 -1.1455
  349bbb     H410098   5.060   9.679  10.002  0.2724 -1.2110  0.3472
  349bbb     C310099   4.964   9.443   9.936  0.7172 -0.0656 -0.6493
  349bbb     H510100   5.021   9.415  10.025 -1.3495 -0.7163  0.5563
  349bbb     H610101   5.036   9.452   9.854  0.7148 -2.6304 -1.0304
  349bbb     C410102   4.870   9.327   9.898 -0.2447  0.1727 -0.2736
  349bbb     H710103   4.776   9.364   9.855  0.1238  0.0059 -1.2344
  349bbb     H810104   4.852   9.280   9.996  0.9118  1.2961  0.5280
  349bbb     C510105   4.893   9.613  10.214 -0.0971 -0.0769 -0.2134
  349bbb     H910106   4.935   9.713  10.231 -1.9068  0.5432  0.9015
  349bbb    H1010107   4.978   9.544  10.212  0.3713  0.4748 -2.3762
  349bbb     C610108   4.927   9.834   9.906 -0.0904 -0.2758  0.0253
  349bbb    H1110109   4.845   9.854   9.976 -0.8987  1.4231 -1.3323
  349bbb    H1210110   4.884   9.858   9.808  0.5753  0.5304 -0.0858
  349bbb     C710111   4.933   9.213   9.810 -0.1764 -0.4463 -0.4415
  349bbb    H1310112   5.006   9.164   9.875 -0.9463  0.8226  1.4494
  349bbb    H1410113   4.980   9.258   9.721  0.2427  0.5932  0.2866
  349bbb     C810114   5.038   9.936   9.948 -0.0454 -0.2006 -0.0789
  349bbb    H1510115   5.115   9.942   9.870 -0.1502  0.9778 -0.0992
  349bbb    H1610116   5.107   9.894  10.022  1.7877  0.2352 -1.4590
  349bbb     C910117   4.808   9.588  10.334 -0.5509  0.1569 -0.1810
  349bbb    H1710118   4.784   9.481  10.331  5.4547 -1.5234 -1.5793
  349bbb    H1810119   4.717   9.646  10.310 -0.2838 -0.3065 -2.5118
  349bbb     O110120   4.829   9.126   9.767  0.0903  0.4672 -0.4595
  350bbb     N110121   4.041   8.899   9.089 -0.1637  1.1227 -0.2069
  350bbb     C110122   3.948   8.987   9.014 -0.2579 -0.0945  0.1726
  350bbb     H110123   3.906   9.062   9.083  1.3145  0.6503  0.3499
  350bbb     H210124   3.857   8.931   8.988 -0.9822  0.4975  1.3283
  350bbb     C210125   4.046   8.768   9.022 -0.1393 -0.4395  0.5037
  350bbb     H310126   4.127   8.705   9.062  2.1359  0.8646 -1.7168
  350bbb     H410127   4.070   8.770   8.915  0.9889 -1.1306  0.7273
  350bbb     C310128   4.176   8.952   9.117  0.4667  0.1701 -0.6788
  350bbb     H510129   4.179   9.054   9.157 -0.8542 -1.0051  2.8250
  350bbb     H610130   4.226   8.952   9.020 -0.4410 -0.6376 -1.1684
  350bbb     C410131   4.261   8.858   9.201 -0.4430  0.3090 -0.0777
  350bbb     H710132   4.306   8.776   9.144  0.4752  0.3648  0.5367
  350bbb     H810133   4.215   8.807   9.288 -0.1702 -0.9878 -0.6634
  350bbb     C510134   4.009   9.079   8.898 -0.2126 -0.3895  0.5099
  350bbb     H910135   4.088   9.147   8.933  0.3311 -0.7297 -0.0344
  350bbb    H1010136   3.929   9.152   8.877 -2.1396 -2.4509  0.2346
  350bbb     C610137   3.924   8.677   9.038  0.0399  0.0197 -0.7101
  350bbb    H1110138   3.943   8.575   9.001 -0.8384 -0.3170 -0.2494
  350bbb    H1210139   3.836   8.717   8.986  0.9441  0.2716 -2.1100
  350bbb     C710140   4.391   8.931   9.247  0.3548 -0.5250 -0.0605
  350bbb    H1310141   4.375   9.004   9.327 -1.4946 -1.7663  0.7606
  350bbb    H1410142   4.445   8.983   9.166  1.4645 -2.5916 -0.7223
  350bbb     C810143   3.890   8.667   9.190  0.1876 -0.1214  0.6334
  350bbb    H1510144   3.798   8.723   9.207  0.0649 -1.0524  3.5044
  350bbb    H1610145   3.960   8.730   9.246 -0.4373 -0.2898  1.6242
  350bbb     C910146   4.052   9.017   8.764  0.3251  0.1249  0.5345
  350bbb    H1710147   3.965   8.975   8.713  1.4738 -1.9315  0.1745
  350bbb    H1810148   4.120   8.934   8.786  0.3033  0.3531  1.4880
  350bbb     O110149   4.485   8.849   9.314 -0.0528  0.1960 -0.0591
  351bbb     N110150  11.411   7.934   9.497 -0.1162  0.3261  0.1408
  351bbb     C110151  11.414   7.782   9.511 -0.4248 -0.0287 -0.3096
  351bbb     H110152  11.494   7.757   9.582  0.0394 -0.0596 -0.8437
  351bbb     H210153  11.447   7.732   9.419  1.1109  2.7814 -1.4051
  351bbb     C210154  11.535   7.989   9.425  0.1676 -0.1438 -0.3934
  351bbb     H310155  11.539   8.096   9.449 -1.1010 -0.2243  0.2530
  351bbb     H410156  11.503   7.972   9.321  0.1223  1.2017 -0.6178
  351bbb     C310157  11.274   7.990   9.476  0.3749 -0.1837 -0.2727
  351bbb     H510158  11.219   7.994   9.571 -1.0605  0.4737 -1.1134
  351bbb     H610159  11.227   7.921   9.406 -0.2449 -0.6407  0.5734
  351bbb     C410160  11.256   8.130   9.416 -0.2178  0.0311  0.0517
  351bbb     H710161  11.151   8.139   9.387 -0.7856  0.9617  2.1910
  351bbb     H810162  11.315   8.133   9.323  0.5592 -0.3039  0.5182
  351bbb     C510163  11.295   7.703   9.572  0.2511  0.1368  0.0124
  351bbb     H910164  11.319   7.597   9.556  1.9819  0.6081 -0.6816
  351bbb    H1010165  11.198   7.731   9.528  0.6183 -0.1301 -0.9802
  351bbb     C610166  11.675   7.920   9.435  0.8547  0.5295 -0.6571
  351bbb    H1110167  11.673   7.811   9.425 -0.2922  0.4966 -0.2984
  351bbb    H1210168  11.697   7.923   9.542  0.3687 -0.5264 -0.5152
  351bbb     C710169  11.284   8.244   9.517  0.0666  0.4854  0.5769
  351bbb    H1310170  11.393   8.253   9.520  0.3468 -1.2818 -1.4896
  351bbb    H1410171  11.250   8.215   9.617 -0.1923  0.7511  0.5689
  351bbb     C810172  11.787   7.976   9.341  0.8921 -0.7895  0.3552
  351bbb    H1510173  11.781   7.931   9.241  1.6528 -0.0916 -0.0242
  351bbb    H1610174  11.880   7.936   9.383  1.0818 -2.0834 -1.2045
  351bbb     C910175  11.301   7.725   9.723 -0.0424  0.3904  0.0366
  351bbb    H1710176  11.289   7.832   9.745 -2.0251  0.1373  0.4396
  351bbb    H1810177  11.401   7.709   9.766 -0.2931  2.5634  1.6335
  351bbb     O110178  11.211   8.360   9.482  0.2362  0.5798 -0.2766
  352bbb     N110179  10.597   8.978  10.178  0.0287  1.2041  0.3149
  352bbb     C110180  10.612   8.995  10.325  0.8690 -0.1133 -0.3336
  352bbb     H110181  10.631   9.096  10.362 -1.1335  0.1382  0.1317
  352bbb     H210182  10.702   8.939  10.353  0.8231 -0.0568 -0.0720
  352bbb     C210183  10.461   9.026  10.136 -0.0310 -0.1025  0.0361
  352bbb     H310184  10.388   8.962  10.185  1.7297 -2.4516 -0.2584
  352bbb     H410185  10.449   9.011  10.028 -0.3393  0.0522  0.0462
  352bbb     C310186  10.704   9.024  10.091 -0.1207 -0.0170 -0.2709
  352bbb     H510187  10.723   9.130  10.111  1.1141  0.0217 -1.5018
  352bbb     H610188  10.670   9.023   9.986  1.1410 -0.0174 -0.6898
  352bbb     C410189  10.832   8.932  10.105  0.9294 -0.1616  0.5449
  352bbb     H710190  10.860   8.929  10.211 -1.3331  2.0291  1.2853
  352bbb     H810191  10.906   8.989  10.046 -0.0284 -1.7423 -2.4350
  352bbb     C510192  10.495   8.927  10.408 -0.0007  0.7253 -0.3238
  352bbb     H910193  10.393   8.956  10.382 -2.0960 -2.0654  3.7232
  352bbb    H1010194  10.494   8.943  10.516 -2.6933 -1.5635  0.1122
  352bbb     C610195  10.442   9.179  10.164 -0.3022 -0.2159  0.5489
  352bbb    H1110196  10.528   9.229  10.116  0.7339  0.0958  2.5898
  352bbb    H1210197  10.458   9.198  10.271  0.0635  1.8986  0.1665
  352bbb     C710198  10.808   8.798  10.037 -0.0266  0.2400  0.8428
  352bbb    H1310199  10.715   8.798   9.979  0.0339  2.1909  0.6932
  352bbb    H1410200  10.787   8.732  10.122  0.8479  0.9017  1.5980
  352bbb     C810201  10.321   9.251  10.108 -0.7195 -0.7754 -0.4956
  352bbb    H1510202  10.323   9.254   9.998 -3.4810  0.9442 -0.5822
  352bbb    H1610203  10.324   9.353  10.147 -2.8848 -0.4059 -1.1749
  352bbb     C910204  10.499   8.771  10.393  0.7132  0.1367  0.6543
  352bbb    H1710205  10.594   8.740  10.348  1.3447  2.4178  0.2778
  352bbb    H1810206  10.425   8.740  10.318  0.1692  0.6071  0.9831
  352bbb     O110207  10.932   8.743   9.973  0.1917 -0.4350  0.1101
  353bbb     N110208   9.568   9.609   8.543 -0.2231  0.4274  0.2215
  353bbb     C110209   9.606   9.751   8.517  1.0786  0.6049  0.2599
  353bbb     H110210   9.658   9.769   8.422 -0.0508  0.7292 -0.3599
  353bbb     H210211   9.674   9.776   8.600  0.3240  1.2890  0.6871
  353bbb     C210212   9.668   9.512   8.496  0.0923  0.5014 -0.0523
  353bbb     H310213   9.642   9.416   8.543 -0.7586  0.8692  0.2570
  353bbb     H410214   9.764   9.544   8.537 -0.4728  1.9535  0.2207
  353bbb     C310215   9.501   9.580   8.673  0.1440  0.0948  0.0246
  353bbb     H510216   9.484   9.472   8.684  2.4951 -0.4106 -0.8755
  353bbb     H610217   9.406   9.633   8.690  0.4890  0.1860  1.9037
  353bbb     C410218   9.571   9.632   8.805  0.5563  0.5958  0.6594
  353bbb     H710219   9.593   9.739   8.794 -0.1064  0.6745 -0.0051
  353bbb     H810220   9.670   9.583   8.808 -0.1857 -1.0256 -0.0531
  353bbb     C510221   9.494   9.857   8.538  0.3873 -0.7538  0.9365
  353bbb     H910222   9.449   9.855   8.638 -2.0050 -1.5316 -0.0961
  353bbb    H1010223   9.409   9.836   8.472  0.7774 -2.8524  1.0131
  353bbb     C610224   9.690   9.503   8.343  1.0010  0.0928 -0.7103
  353bbb    H1110225   9.756   9.590   8.331  0.2267  0.6627 -0.9354
  353bbb    H1210226   9.598   9.520   8.287 -1.2934  0.4541  2.8982
  353bbb     C710227   9.496   9.615   8.946 -0.4594 -0.4137 -0.2938
  353bbb    H1310228   9.416   9.689   8.955  0.7507  0.9875 -0.5329
  353bbb    H1410229   9.564   9.658   9.020 -0.9750  0.4336 -0.3042
  353bbb     C810230   9.767   9.380   8.289  1.0626  0.0739  0.4271
  353bbb    H1510231   9.706   9.292   8.315  2.7197 -0.9985  0.8227
  353bbb    H1610232   9.869   9.367   8.326  1.0142 -0.8115  0.2709
  353bbb     C910233   9.538   9.998   8.500 -0.6078  0.4614 -0.4285
  353bbb    H1710234   9.621  10.034   8.562 -1.5803  2.2181 -0.0948
  353bbb    H1810235   9.456  10.066   8.525 -0.6154 -0.8161  3.7694
  353bbb     O110236   9.485   9.479   8.988  0.0073 -0.3454 -0.1242
  354bbb     N110237   9.364   9.132   8.520 -0.0007  0.1593 -0.5223
  354bbb     C110238   9.332   9.256   8.595 -0.1000  0.0424 -0.3570
  354bbb     H110239   9.353   9.344   8.534  1.3614  0.4926  0.7330
  354bbb     H210240   9.394   9.264   8.686  0.0452  3.4443 -0.6469
  354bbb     C210241   9.268   9.092   8.417 -0.2904 -0.2931 -0.3617
  354bbb     H310242   9.312   9.023   8.344 -1.5286 -1.9297  0.3754
  354bbb     H410243   9.240   9.188   8.370  2.1105  0.8202  0.3209
  354bbb     C310244   9.500   9.138   8.466  0.1615  0.2486 -0.0283
  354bbb     H510245   9.565   9.203   8.527 -0.3425 -0.4379  1.2892
  354bbb     H610246   9.486   9.187   8.370 -1.7289 -0.7504 -0.3184
  354bbb     C410247   9.570   9.005   8.465  0.6302  0.2707 -0.6547
  354bbb     H710248   9.667   9.018   8.416  0.1519  1.8454 -1.2465
  354bbb     H810249   9.513   8.940   8.398  0.0123  1.7012 -1.5474
  354bbb     C510250   9.190   9.272   8.646  0.3022  0.0003 -0.0023
  354bbb     H910251   9.154   9.183   8.699 -1.3784  1.2654  1.0847
  354bbb    H1010252   9.119   9.276   8.562 -2.0102 -2.2433  1.7003
  354bbb     C610253   9.164   8.992   8.474  0.0260 -0.2247  0.3430
  354bbb    H1110254   9.125   9.026   8.571  1.1485  1.9022  0.1001
  354bbb    H1210255   9.211   8.897   8.501  0.2266  0.1045  1.1739
  354bbb     C710256   9.572   8.933   8.613 -0.4452  0.1001 -0.6162
  354bbb    H1310257   9.633   8.843   8.610 -0.9974 -0.3892  1.3651
  354bbb    H1410258   9.471   8.904   8.646 -0.6436 -0.1546 -1.4012
  354bbb     C810259   9.051   8.974   8.376 -0.0894  0.1603 -0.1913
  354bbb    H1510260   9.090   8.957   8.275  0.2655  1.1974 -0.2478
  354bbb    H1610261   9.001   9.072   8.378 -0.1464  0.1978  3.5006
  354bbb     C910262   9.179   9.399   8.731 -0.3584 -0.3229  0.3009
  354bbb    H1710263   9.192   9.486   8.666 -1.9459 -0.1654  0.1515
  354bbb    H1810264   9.262   9.393   8.803  0.7320 -0.1253 -0.9118
  354bbb     O110265   9.626   9.023   8.709 -0.8663  0.2611  0.1078
  355bbb     N110266   9.372   5.916   9.171 -1.0274 -0.1406  0.4196
  355bbb     C110267   9.249   5.839   9.168  0.5406  0.0559 -0.1593
  355bbb     H110268   9.258   5.734   9.197 -0.6574 -0.7307 -2.3600
  355bbb     H210269   9.219   5.835   9.062  0.5972  0.5465 -0.1963
  355bbb     C210270   9.452   5.892   9.045 -0.2740  0.0493  0.3920
  355bbb     H310271   9.523   5.973   9.029 -1.9272  0.9080 -4.0382
  355bbb     H410272   9.384   5.888   8.959 -0.5305 -2.2847  0.6217
  355bbb     C310273   9.449   5.910   9.299 -0.3937 -0.3521 -0.1568
  355bbb     H510274   9.475   5.806   9.323 -1.4416 -1.2701 -2.6972
  355bbb     H610275   9.393   5.966   9.375 -0.2309 -1.0272  0.4771
  355bbb     C410276   9.593   5.980   9.284 -0.1485 -0.7186 -0.1920
  355bbb     H710277   9.582   6.083   9.248  1.8757  0.2765  1.7691
  355bbb     H810278   9.652   5.934   9.204 -2.1007  2.7549 -3.9822
  355bbb     C510279   9.144   5.902   9.264  0.2926  0.4328  0.0597
  355bbb     H910280   9.131   6.008   9.239 -1.1070  0.1650 -0.4515
  355bbb    H1010281   9.179   5.903   9.368 -0.5902  0.7128  0.3601
  355bbb     C610282   9.516   5.758   9.041 -0.3503  0.8018  0.0329
  355bbb    H1110283   9.452   5.670   9.023  0.1167  0.4863 -0.0881
  355bbb    H1210284   9.563   5.735   9.137  0.3285 -1.7430 -0.8285
  355bbb     C710285   9.649   5.983   9.429 -0.4401 -0.6156  0.3339
  355bbb    H1310286   9.661   5.888   9.482  1.9484 -0.3253  0.4247
  355bbb    H1410287   9.596   6.060   9.486 -0.3062  1.0952 -1.7041
  355bbb     C810288   9.628   5.751   8.938 -0.0989  0.3111 -0.5292
  355bbb    H1510289   9.583   5.789   8.845  0.5352  2.7473  0.0820
  355bbb    H1610290   9.648   5.643   8.937 -0.6200  0.1949  0.4225
  355bbb     C910291   9.005   5.838   9.254  0.1565 -0.0119  0.2505
  355bbb    H1710292   8.980   5.812   9.150  0.7811 -1.2899  0.3938
  355bbb    H1810293   8.932   5.916   9.277  0.1530  0.5720 -1.5292
  355bbb     O110294   9.781   6.036   9.411  0.3118 -0.2851 -0.3216
  356bbb     N110295  10.841   6.483   9.453  0.3671  0.4023 -0.3862
  356bbb     C110296  10.884   6.515   9.597 -0.4961 -0.6930  0.2136
  356bbb     H110297  10.827   6.464   9.676  0.6340  1.7446  2.7520
  356bbb     H210298  10.870   6.619   9.629  1.4868 -0.4417  0.3869
  356bbb     C210299  10.942   6.507   9.352 -0.4836  0.2173  0.9882
  356bbb     H310300  10.911   6.452   9.262 -2.0028  0.7989  1.1320
  356bbb     H410301  11.044   6.481   9.383 -0.8337  0.0173  2.0107
  356bbb     C310302  10.698   6.515   9.416 -0.1305  0.3219 -0.4906
  356bbb     H510303  10.672   6.470   9.319 -1.1218  2.0418 -1.0553
  356bbb     H610304  10.691   6.624   9.409 -0.2823  0.3003 -0.6837
  356bbb     C410305  10.598   6.464   9.516  0.4763  0.0405 -0.3279
  356bbb     H710306  10.611   6.509   9.616 -1.6316 -2.6292  1.3182
  356bbb     H810307  10.618   6.358   9.536 -0.4605 -0.0135  0.4470
  356bbb     C510308  11.031   6.477   9.634 -0.3352 -0.5952 -0.3900
  356bbb     H910309  11.047   6.498   9.740  2.8975 -1.8273 -0.5341
  356bbb    H1010310  11.095   6.547   9.579  0.4685 -1.0679 -0.0800
  356bbb     C610311  10.950   6.654   9.298  0.1903  0.2740 -0.6088
  356bbb    H1110312  10.848   6.683   9.269 -1.3395 -1.5230  2.3983
  356bbb    H1210313  11.015   6.654   9.210  0.7057 -2.9590 -0.3197
  356bbb     C710314  10.454   6.479   9.462  0.2131 -0.6481 -0.1876
  356bbb    H1310315  10.422   6.389   9.410  0.8389 -0.8346 -0.2603
  356bbb    H1410316  10.435   6.565   9.396 -0.7992  0.0227  0.9436
  356bbb     C810317  11.002   6.759   9.403  0.0842  0.0025 -0.1969
  356bbb    H1510318  11.099   6.734   9.447  0.7924  1.0723 -1.0874
  356bbb    H1610319  10.925   6.751   9.481 -0.0822  1.8442 -0.1422
  356bbb     C910320  11.083   6.329   9.613  0.6719  0.2694 -0.3074
  356bbb    H1710321  11.075   6.301   9.508  0.1594 -0.6235 -0.0462
  356bbb    H1810322  11.185   6.333   9.653 -0.1873  0.4088  2.0865
  356bbb     O110323  10.370   6.486   9.575  0.2174 -0.6856 -0.4711
  357bbb     N110324   8.555   7.538   7.901 -0.7285 -0.3814 -0.3691
  357bbb     C110325   8.409   7.502   7.888  0.2166  0.0549 -0.1554
  357bbb     H110326   8.392   7.427   7.810 -1.3148  0.5423 -0.3216
  357bbb     H210327   8.358   7.592   7.854  2.4775  0.9572 -1.3476
  357bbb     C210328   8.609   7.602   7.774 -0.7361 -0.4042  0.2260
  357bbb     H310329   8.595   7.535   7.689  0.2080  0.1346 -0.3707
  357bbb     H410330   8.718   7.615   7.777 -0.8072  0.4353 -0.3805
  357bbb     C310331   8.630   7.416   7.941 -0.8357  0.1183 -0.1813
  357bbb     H510332   8.598   7.332   7.878 -0.8869  0.2258 -0.2974
  357bbb     H610333   8.598   7.379   8.040  0.5906 -0.6038  0.0343
  357bbb     C410334   8.784   7.425   7.945 -0.3656 -0.1533 -0.2491
  357bbb     H710335   8.804   7.487   8.033 -1.4747 -0.5494  0.2976
  357bbb     H810336   8.831   7.476   7.860  1.7821 -0.7999  0.4860
  357bbb     C510337   8.344   7.455   8.016  0.4420 -0.0364  0.2139
  357bbb     H910338   8.379   7.522   8.095  1.5740  0.0225 -0.3214
  357bbb    H1010339   8.391   7.357   8.033 -1.2006 -1.8383 -4.1327
  357bbb     C610340   8.543   7.737   7.745  0.2023  0.5424 -0.6759
  357bbb    H1110341   8.457   7.719   7.680  0.8889  0.0773 -1.4635
  357bbb    H1210342   8.616   7.778   7.675 -0.4313  0.8249 -1.1779
  357bbb     C710343   8.856   7.293   7.954 -0.6002 -0.3760  0.1826
  357bbb    H1310344   8.955   7.328   7.987 -0.5267 -0.1118 -0.3072
  357bbb    H1410345   8.868   7.231   7.865  1.6657 -1.0436  0.8629
  357bbb     C810346   8.518   7.829   7.869  0.0075 -0.2158 -0.1239
  357bbb    H1510347   8.610   7.880   7.898 -1.2282  3.6458 -2.2072
  357bbb    H1610348   8.485   7.770   7.955  0.4985 -1.5077 -0.7904
  357bbb     C910349   8.189   7.451   7.996 -0.2951 -0.5086  0.5391
  357bbb    H1710350   8.142   7.550   7.989 -0.3067 -0.4684  1.1311
  357bbb    H1810351   8.149   7.410   8.089 -2.1265 -0.5423 -0.2261
  357bbb     O110352   8.791   7.215   8.059  0.2214 -0.7522  0.4642
  358bbb     N110353   9.139   7.767   7.833  0.6608  0.3324  0.3348
  358bbb     C110354   9.201   7.890   7.786 -0.9582 -0.1744  0.0013
  358bbb     H110355   9.125   7.966   7.765 -0.6008 -0.0366 -0.8079
  358bbb     H210356   9.259   7.863   7.697  1.8742 -0.3492  1.7784
  358bbb     C210357   8.994   7.766   7.825  0.0322 -0.5371  0.5736
  358bbb     H310358   8.945   7.676   7.862 -0.1888 -1.2723 -1.3766
  358bbb     H410359   8.954   7.778   7.724 -2.0181 -1.1894  1.2685
  358bbb     C310360   9.216   7.643   7.801  0.2912  0.3249  0.3388
  358bbb     H510361   9.324   7.660   7.813  1.2487 -3.2982 -1.6216
  358bbb     H610362   9.197   7.621   7.695  0.8310  2.3027 -0.2085
  358bbb     C410363   9.189   7.523   7.898  0.5488 -0.2726  0.0258
  358bbb     H710364   9.263   7.443   7.882  2.7573  1.2519  1.9137
  358bbb     H810365   9.092   7.479   7.872 -1.0412  4.4978 -3.2387
  358bbb     C510366   9.305   7.939   7.890  0.1731  0.2066 -0.8836
  358bbb     H910367   9.341   7.859   7.955  0.9678  2.8375  2.1990
  358bbb    H1010368   9.269   8.021   7.953 -0.5754  0.3835 -1.5238
  358bbb     C610369   8.931   7.883   7.902  0.4826 -0.4395  0.2937
  358bbb    H1110370   8.827   7.896   7.870  0.6703 -0.6420 -0.4153
  358bbb    H1210371   8.978   7.981   7.886  3.0986 -1.1462  2.8509
  358bbb     C710372   9.190   7.567   8.046 -0.1870 -0.2709  0.7329
  358bbb    H1310373   9.181   7.676   8.043  0.2233 -0.1930  1.7529
  358bbb    H1410374   9.286   7.551   8.097  1.8521 -0.4392 -2.8417
  358bbb     C810375   8.935   7.858   8.051  0.2197  0.1205  0.2167
  358bbb    H1510376   9.033   7.885   8.092  0.0646  2.7823 -0.9302
  358bbb    H1610377   8.909   7.752   8.062  1.3143 -0.4224 -1.8434
  358bbb     C910378   9.436   8.006   7.822 -0.7442  0.6114 -0.1054
  358bbb    H1710379   9.409   8.083   7.749 -0.2743  2.0262  1.1634
  358bbb    H1810380   9.491   7.930   7.765  0.3838  0.8113  0.6936
  358bbb     O110381   9.086   7.504   8.124 -0.4343  0.0903  0.5210
  359bbb     N110382   7.667   7.914  11.578 -0.6740 -0.0657  0.2937
  359bbb     C110383   7.538   7.952  11.528  0.9165 -0.2943  0.1762
  359bbb     H110384   7.508   8.044  11.580  2.2169 -0.1168  0.6512
  359bbb     H210385   7.462   7.880  11.560 -1.5672  0.9132 -2.5182
  359bbb     C210386   7.714   7.783  11.529 -0.1497  0.1703  0.1797
  359bbb     H310387   7.807   7.756  11.582 -0.1055  1.9005  1.0496
  359bbb     H410388   7.743   7.792  11.423  4.7980 -0.2167  1.2593
  359bbb     C310389   7.769   8.020  11.566 -0.5028  0.1205  0.2422
  359bbb     H510390   7.726   8.109  11.614 -0.6076  0.6479 -0.7991
  359bbb     H610391   7.796   8.036  11.461 -3.0510 -0.4794 -0.5847
  359bbb     C410392   7.894   7.979  11.650  0.1249 -0.0982 -0.0963
  359bbb     H710393   7.954   7.909  11.590 -1.9601 -0.8947 -1.3545
  359bbb     H810394   7.877   7.916  11.738  0.8384 -0.4627 -0.2133
  359bbb     C510395   7.520   7.972  11.373 -0.3298 -0.0333 -0.2307
  359bbb     H910396   7.567   7.887  11.322  1.1383  0.2364  0.6152
  359bbb    H1010397   7.572   8.058  11.330  1.3375 -0.1776  1.3315
  359bbb     C610398   7.623   7.663  11.545 -0.0430 -0.4227 -0.5110
  359bbb    H1110399   7.674   7.585  11.488  1.1741  0.4351 -0.6109
  359bbb    H1210400   7.519   7.682  11.514 -0.7349  0.1322  1.8763
  359bbb     C710401   7.984   8.103  11.687  0.4375  0.6849 -0.1426
  359bbb    H1310402   8.065   8.063  11.748  0.5405 -0.0915 -0.7753
  359bbb    H1410403   7.918   8.170  11.744 -0.2632 -1.2544  1.4223
  359bbb     C810404   7.621   7.605  11.687  0.6273 -0.4561  0.1699
  359bbb    H1510405   7.608   7.688  11.756  1.0115 -0.3071  0.0665
  359bbb    H1610406   7.720   7.559  11.698  1.5643  1.8178  1.7676
  359bbb     C910407   7.368   7.970  11.333 -0.1647  0.0201 -0.0430
  359bbb    H1710408   7.314   7.983  11.428  0.3506 -2.8899  0.7482
  359bbb    H1810409   7.346   7.866  11.306 -3.2141  0.8547 -1.1522
  359bbb     O110410   8.040   8.151  11.565 -0.3432 -0.0790 -0.4944
  360bbb     N110411   8.409   9.136  11.122 -0.1245  0.5029  0.2918
  360bbb     C110412   8.257   9.139  11.135 -0.0971  0.1118 -0.4130
  360bbb     H110413   8.229   9.102  11.234  0.8942 -1.7948 -0.7906
  360bbb     H210414   8.206   9.079  11.059  0.7588 -0.7265 -0.3340
  360bbb     C210415   8.483   9.234  11.203 -0.5055 -0.1247  0.0700
  360bbb     H310416   8.445   9.336  11.193  0.4602  0.1785 -0.6186
  360bbb     H410417   8.586   9.245  11.167 -0.7630 -1.0531 -1.0006
  360bbb     C310418   8.458   8.993  11.142  0.2206  0.3018 -1.0243
  360bbb     H510419   8.451   8.959  11.247 -1.0110  1.7837 -0.5913
  360bbb     H610420   8.565   9.008  11.124  0.6324  0.5820  1.3171
  360bbb     C410421   8.392   8.886  11.048  0.1457  0.0791  0.6220
  360bbb     H710422   8.391   8.926  10.946  2.4050 -1.0300  0.0944
  360bbb     H810423   8.289   8.863  11.079  1.3082 -1.8253  3.5389
  360bbb     C510424   8.192   9.278  11.121 -0.7108 -0.3204 -0.1165
  360bbb     H910425   8.231   9.343  11.201 -2.2393  1.3288 -0.6400
  360bbb    H1010426   8.084   9.268  11.131 -0.8991  1.0261 -0.6742
  360bbb     C610427   8.487   9.209  11.358 -0.6127 -0.6134  0.8545
  360bbb    H1110428   8.538   9.115  11.383  1.7757  0.0067 -1.2143
  360bbb    H1210429   8.380   9.202  11.381 -0.7270 -1.5096  0.1147
  360bbb     C710430   8.479   8.758  11.034  0.7154  0.6827 -0.1604
  360bbb    H1310431   8.585   8.775  11.012  0.5326  1.0303 -0.7730
  360bbb    H1410432   8.440   8.690  10.958 -0.0836  2.9143 -1.8501
  360bbb     C810433   8.548   9.326  11.434 -0.3335 -0.1019 -0.3274
  360bbb    H1510434   8.655   9.333  11.411 -0.0337 -1.8100  0.3728
  360bbb    H1610435   8.549   9.301  11.541  0.7954  0.7422 -0.1279
  360bbb     C910436   8.213   9.344  10.978  0.7444  0.4139 -0.6951
  360bbb    H1710437   8.122   9.316  10.923 -1.3330  0.1875  2.6116
  360bbb    H1810438   8.300   9.294  10.933  1.2907 -1.4285  2.1662
  360bbb     O110439   8.479   8.676  11.154  0.0180  0.1208  0.3521
  361bbb     N110440   9.210   7.592  12.344  0.2307 -0.3798  0.5000
  361bbb     C110441   9.267   7.569  12.476 -0.3001  0.1852  0.3183
  361bbb     H110442   9.323   7.475  12.485 -0.8158 -0.2725 -1.0116
  361bbb     H210443   9.193   7.562  12.557  2.7201  1.5050  3.4507
  361bbb     C210444   9.147   7.471  12.282 -0.3463 -0.0760 -0.7825
  361bbb     H310445   9.115   7.486  12.178  0.0657 -1.3871 -1.1185
  361bbb     H410446   9.056   7.448  12.339 -0.0433 -0.6862 -0.5336
  361bbb     C310447   9.131   7.720  12.347  0.0161 -0.4920 -0.4151
  361bbb     H510448   9.204   7.799  12.369 -1.1474  0.4260  0.2787
  361bbb     H610449   9.052   7.730  12.423  0.4266 -0.2592 -0.0153
  361bbb     C410450   9.056   7.756  12.215 -0.0596  0.5257 -1.0817
  361bbb     H710451   9.024   7.860  12.230 -0.2004  0.5346 -1.4338
  361bbb     H810452   8.963   7.701  12.199 -0.5157  0.9943 -0.1138
  361bbb     C510453   9.378   7.674  12.525  1.0669 -0.6848 -0.9703
  361bbb     H910454   9.338   7.777  12.525 -0.1658 -1.1174  0.7659
  361bbb    H1010455   9.457   7.673  12.449  0.1052 -1.3662 -1.9782
  361bbb     C610456   9.226   7.338  12.284  0.0853  0.2655 -0.6912
  361bbb    H1110457   9.163   7.261  12.238  0.1152  0.5657 -1.2417
  361bbb    H1210458   9.240   7.306  12.388  1.2507  1.3931 -0.4738
  361bbb     C710459   9.140   7.750  12.088  0.3626 -0.2349 -0.3304
  361bbb    H1310460   9.160   7.646  12.061  2.6625  0.0603 -0.0026
  361bbb    H1410461   9.234   7.807  12.101  0.2947 -0.1146 -0.3558
  361bbb     C810462   9.357   7.353  12.198 -0.3564  0.9405 -0.0339
  361bbb    H1510463   9.412   7.440  12.236 -0.5410  1.9029 -1.8360
  361bbb    H1610464   9.312   7.373  12.100 -3.9230  0.4952  1.3733
  361bbb     C910465   9.447   7.653  12.665 -0.1889 -0.7743 -0.0642
  361bbb    H1710466   9.517   7.569  12.660  2.5896  1.3741 -0.0358
  361bbb    H1810467   9.369   7.628  12.738 -1.2443  0.4971 -0.7094
  361bbb     O110468   9.060   7.821  11.995  0.8785 -1.0169 -0.1594
  362bbb     N110469   9.950   8.105  11.937 -0.5378  0.3494  0.9137
  362bbb     C110470   9.954   7.965  11.995  0.4038  0.1011  0.4218
  362bbb     H110471  10.044   7.912  11.963 -0.0008  0.9868 -2.4799
  362bbb     H210472   9.872   7.906  11.952  1.2577 -1.3298  0.6854
  362bbb     C210473  10.066   8.191  11.967  0.4457 -0.5112  0.4396
  362bbb     H310474  10.057   8.224  12.071  1.7744 -0.0906  0.4497
  362bbb     H410475  10.060   8.278  11.900 -2.0439  0.4074  1.7337
  362bbb     C310476   9.816   8.169  11.959 -0.0178  0.6516  0.6997
  362bbb     H510477   9.788   8.193  12.063 -0.7123  2.1266  0.2112
  362bbb     H610478   9.736   8.103  11.924  1.9578 -0.9382 -1.0938
  362bbb     C410479   9.795   8.306  11.883  0.1096  0.3603 -0.8072
  362bbb     H710480   9.853   8.294  11.791  0.2157 -3.1877 -0.4362
  362bbb     H810481   9.837   8.390  11.939  0.6192 -0.3531 -0.0846
  362bbb     C510482   9.950   7.943  12.149 -0.1376 -0.0897 -0.4173
  362bbb     H910483   9.857   7.993  12.179 -0.3459 -1.8657  2.2356
  362bbb    H1010484  10.038   7.990  12.193 -0.7935 -1.4936  2.6605
  362bbb     C610485  10.203   8.130  11.947 -0.6049 -0.2047  0.8616
  362bbb    H1110486  10.206   8.063  11.861  3.5841  0.9311 -0.1029
  362bbb    H1210487  10.226   8.073  12.038  3.0448  0.3505  0.4185
  362bbb     C710488   9.649   8.339  11.859 -0.2203 -0.5384 -0.0261
  362bbb    H1310489   9.632   8.432  11.804 -1.5065 -0.6054  0.2440
  362bbb    H1410490   9.583   8.354  11.945 -2.7162  0.0635 -1.9294
  362bbb     C810491  10.313   8.239  11.926 -0.4517  0.2303 -0.3386
  362bbb    H1510492  10.412   8.202  11.956 -0.6270 -1.0123 -1.2474
  362bbb    H1610493  10.286   8.325  11.989 -0.9802 -0.3688  0.2778
  362bbb     C910494   9.947   7.792  12.193 -0.8635 -0.9884  0.3903
  362bbb    H1710495   9.884   7.728  12.130 -0.6152 -0.9349  0.0858
  362bbb    H1810496   9.908   7.790  12.295 -0.4395 -0.4677  0.5649
  362bbb     O110497   9.594   8.236  11.771 -0.9804  0.3650 -0.2263
  363bbb     N110498  10.408   7.527  10.911  0.2161 -0.3420  0.4345
  363bbb     C110499  10.377   7.666  10.872  0.5055  0.3468  0.5951
  363bbb     H110500  10.299   7.663  10.795  3.0150  1.4284 -2.1709
  363bbb     H210501  10.461   7.718  10.825 -1.8905  1.8326 -2.3406
  363bbb     C210502  10.492   7.507  11.027 -0.4605  0.3047  0.3055
  363bbb     H310503  10.497   7.399  11.047 -1.5981  0.2516  0.3735
  363bbb     H410504  10.453   7.561  11.114  1.7587 -1.9863  2.9435
  363bbb     C310505  10.433   7.451  10.780 -0.4522  0.3877  0.1298
  363bbb     H510506  10.513   7.506  10.729 -0.2807  0.3133  0.3148
  363bbb     H610507  10.355   7.456  10.704  0.0736  1.6785 -0.3651
  363bbb     C410508  10.483   7.305  10.793 -0.1849  0.4079 -0.2414
  363bbb     H710509  10.570   7.305  10.861 -0.5855  2.0638  0.3157
  363bbb     H810510  10.519   7.269  10.696 -0.3586 -0.7553  0.1136
  363bbb     C510511  10.340   7.754  10.992  0.5676 -0.0161 -0.0912
  363bbb     H910512  10.426   7.804  11.038  0.5563 -0.4653  0.4319
  363bbb    H1010513  10.298   7.695  11.075  1.1432  0.7193  0.7503
  363bbb     C610514  10.638   7.546  11.000 -0.4927  0.0494 -0.4731
  363bbb    H1110515  10.634   7.652  10.973 -0.5566  0.2200  0.1813
  363bbb    H1210516  10.689   7.490  10.920 -0.7013 -0.9437  0.0677
  363bbb     C710517  10.366   7.220  10.854 -1.0892 -0.4745  0.6466
  363bbb    H1310518  10.338   7.260  10.952 -0.2082  0.3285  0.5918
  363bbb    H1410519  10.401   7.117  10.869 -2.2205 -1.0035 -0.2137
  363bbb     C810520  10.714   7.537  11.134  0.3177 -0.0092 -0.2479
  363bbb    H1510521  10.691   7.448  11.194 -0.2166 -1.1136 -2.0178
  363bbb    H1610522  10.687   7.629  11.188  0.1527 -1.0666  1.5415
  363bbb     C910523  10.216   7.844  10.958  0.4718 -0.4282  0.6662
  363bbb    H1710524  10.125   7.782  10.962 -0.4077  0.8696  2.6085
  363bbb    H1810525  10.228   7.889  10.859  0.8685  0.4449  1.1009
  363bbb     O110526  10.252   7.229  10.766 -0.0755  0.2612  0.0917
  364bbb     N110527  10.437   6.848   9.878 -0.1399  0.3145  0.2549
  364bbb     C110528  10.484   6.773   9.760  0.4053  0.4184  0.1181
  364bbb     H110529  10.453   6.668   9.765  1.7256  0.0632  1.5574
  364bbb     H210530  10.594   6.776   9.757  0.4040  3.4853 -2.7334
  364bbb     C210531  10.474   6.780  10.001 -0.2741 -0.5606 -0.1701
  364bbb     H310532  10.447   6.837  10.091  4.3387 -0.9884  1.7386
  364bbb     H410533  10.582   6.778  10.016 -0.5875 -0.3459  2.6320
  364bbb     C310534  10.476   6.989   9.887  0.0369 -0.7998  0.0847
  364bbb     H510535  10.460   7.048   9.796  1.1395 -0.7366 -0.0834
  364bbb     H610536  10.585   6.993   9.898  0.0931  0.0115 -0.6240
  364bbb     C410537  10.407   7.079   9.995 -0.0272  0.1204  0.2800
  364bbb     H710538  10.428   7.184   9.973  1.3424  0.3211  2.2265
  364bbb     H810539  10.449   7.057  10.094 -1.7189 -1.7763  0.6351
  364bbb     C510540  10.440   6.828   9.616 -0.0212  0.5205 -0.3753
  364bbb     H910541  10.459   6.745   9.547 -2.3601 -1.6823  1.4370
  364bbb    H1010542  10.510   6.910   9.594 -1.1382  1.7531  0.4995
  364bbb     C610543  10.412   6.641  10.032 -0.5368  0.4001  0.2266
  364bbb    H1110544  10.442   6.576   9.949  2.8448  1.7360  0.2347
  364bbb    H1210545  10.303   6.633  10.019 -0.7659 -3.3952  2.9036
  364bbb     C710546  10.260   7.063  10.026  0.6814  0.0295 -0.2877
  364bbb    H1310547  10.241   6.972  10.085 -1.5397  1.1591  0.8849
  364bbb    H1410548  10.195   7.066   9.938 -0.0130  0.2468  0.2175
  364bbb     C810549  10.450   6.578  10.165 -0.3173  0.2082 -0.0888
  364bbb    H1510550  10.402   6.480  10.166 -1.6016  0.6502 -3.4823
  364bbb    H1610551  10.412   6.646  10.242 -0.0799  0.1354  0.0932
  364bbb     C910552  10.299   6.884   9.596 -0.0426  0.3714 -0.6465
  364bbb    H1710553  10.274   6.965   9.666  1.2191  0.6465 -0.4976
  364bbb    H1810554  10.225   6.807   9.623  0.6527 -0.3603 -0.8216
  364bbb     O110555  10.230   7.180  10.106  0.3000  0.4283  0.1730
  365bbb     N110556   9.487   8.077  12.230 -0.6257  0.6128 -0.3476
  365bbb     C110557   9.459   8.149  12.358 -0.1193 -0.4036  0.2367
  365bbb     H110558   9.377   8.108  12.417 -1.2759  0.2893 -0.8515
  365bbb     H210559   9.435   8.256  12.348  2.7898  0.4468  1.1585
  365bbb     C210560   9.418   8.142  12.113  0.6737 -0.6172  0.6617
  365bbb     H310561   9.434   8.082  12.023  3.1098 -1.0279  1.3006
  365bbb     H410562   9.472   8.236  12.101  1.0032 -0.8189  0.5527
  365bbb     C310563   9.487   7.930  12.250 -0.0389 -0.1587  0.2854
  365bbb     H510564   9.389   7.888  12.276 -0.7567  0.8557 -0.7182
  365bbb     H610565   9.548   7.908  12.339 -1.6375 -0.3557  1.3972
  365bbb     C410566   9.545   7.861  12.130  0.3894  0.5393 -0.5285
  365bbb     H710567   9.636   7.911  12.096  0.3290  0.4160 -0.8781
  365bbb     H810568   9.471   7.861  12.049  1.4057 -0.9457 -1.5052
  365bbb     C510569   9.580   8.167  12.453 -0.5590  0.6562 -0.0432
  365bbb     H910570   9.668   8.193  12.394 -1.4667  1.2418 -1.1931
  365bbb    H1010571   9.607   8.072  12.500 -0.1729  0.6211 -0.3340
  365bbb     C610572   9.269   8.167  12.139 -0.5245 -0.0584 -0.6040
  365bbb    H1110573   9.258   8.202  12.243 -1.0488  0.9178 -0.9740
  365bbb    H1210574   9.210   8.075  12.128 -0.1489 -0.2464 -1.0474
  365bbb     C710575   9.578   7.713  12.171 -0.5028  0.1047  0.0497
  365bbb    H1310576   9.489   7.663  12.212  1.2754 -0.0764  4.1830
  365bbb    H1410577   9.658   7.709  12.246 -0.5811 -2.5824  0.0913
  365bbb     C810578   9.208   8.266  12.041 -0.0062 -0.9935 -0.5166
  365bbb    H1510579   9.111   8.297  12.082  1.1216  1.6370  0.3721
  365bbb    H1610580   9.197   8.221  11.942  1.6883 -1.5066 -0.5003
  365bbb     C910581   9.548   8.269  12.557  0.6836  0.0402  0.2238
  365bbb    H1710582   9.456   8.239  12.608  0.0002 -0.6624 -1.3499
  365bbb    H1810583   9.529   8.364  12.505  1.3824 -1.0916 -2.2531
  365bbb     O110584   9.641   7.649  12.052  0.4203  0.3027 -0.4112
  366bbb     N110585   8.853   6.756  11.878  0.8312  0.3221 -0.3289
  366bbb     C110586   8.730   6.701  11.944  0.0202 -0.4611  0.5270
  366bbb     H110587   8.756   6.622  12.016 -0.2761 -0.8427  0.2233
  366bbb     H210588   8.664   6.655  11.870  1.3728 -0.1538 -0.9214
  366bbb     C210589   8.935   6.645  11.827 -0.1770  0.3685  0.6070
  366bbb     H310590   8.870   6.602  11.750 -0.6220 -0.8503  1.6342
  366bbb     H410591   8.961   6.570  11.903  2.3030  0.9863  0.4722
  366bbb     C310592   8.934   6.846  11.955 -0.2287 -0.5311  0.0866
  366bbb     H510593   8.874   6.935  11.974 -1.1219 -0.6707 -1.8317
  366bbb     H610594   9.026   6.872  11.901 -0.4147  1.5723  0.7208
  366bbb     C410595   8.996   6.797  12.087 -0.8848 -0.7340 -0.2205
  366bbb     H710596   9.031   6.694  12.072 -0.8219 -0.8268  0.5267
  366bbb     H810597   8.916   6.778  12.161  0.1333 -1.5624  0.7054
  366bbb     C510598   8.643   6.802  12.016  0.1389 -0.8470  0.6352
  366bbb     H910599   8.612   6.885  11.952  0.0217 -1.5298 -0.2116
  366bbb    H1010600   8.696   6.844  12.103  1.0938 -0.7316  0.0210
  366bbb     C610601   9.072   6.674  11.755 -0.7167  0.4618  0.2736
  366bbb    H1110602   9.111   6.573  11.735  0.0439  0.9760 -0.9921
  366bbb    H1210603   9.152   6.721  11.813 -1.0643  2.2442 -0.5992
  366bbb     C710604   9.092   6.891  12.155  0.1487 -0.5799  0.3333
  366bbb    H1310605   9.126   6.857  12.254 -4.0640  0.8467  2.4720
  366bbb    H1410606   9.040   6.987  12.163  0.1512 -0.6735  1.6304
  366bbb     C810607   9.064   6.751  11.620  0.2533  0.3776 -0.3149
  366bbb    H1510608   9.039   6.855  11.643 -3.5506  0.4880 -3.9224
  366bbb    H1610609   8.981   6.707  11.565  0.3217  0.1718 -0.2550
  366bbb     C910610   8.508   6.743  12.071 -0.3276  0.0644  0.0616
  366bbb    H1710611   8.523   6.641  12.108  0.4668 -0.1297 -0.7438
  366bbb    H1810612   8.436   6.730  11.990 -0.2431  0.2174 -0.0397
  366bbb     O110613   9.204   6.894  12.064 -0.1561 -0.6336 -0.1815
  367bbb     N110614   7.009  10.403   9.581  0.2092 -0.5414  0.6837
  367bbb     C110615   7.145  10.365   9.535  0.0349 -0.0491  1.1529
  367bbb     H110616   7.143  10.320   9.435  0.8470 -0.2038  1.2014
  367bbb     H210617   7.177  10.282   9.600  0.4838 -1.0027 -0.2304
  367bbb     C210618   6.994  10.396   9.732  0.5262 -0.0890 -1.2191
  367bbb     H310619   7.090  10.419   9.779  1.3506 -2.2413 -1.7358
  367bbb     H410620   6.987  10.289   9.757 -0.6919 -0.0657 -1.4100
  367bbb     C310621   6.901  10.323   9.519 -0.3399 -0.1498  0.5516
  367bbb     H510622   6.807  10.355   9.567  0.1174 -0.5106  1.7378
  367bbb     H610623   6.901  10.216   9.542 -1.2756 -0.8875 -2.4803
  367bbb     C410624   6.881  10.342   9.368  0.5269  0.1022 -0.3781
  367bbb     H710625   6.982  10.358   9.330  0.8626 -1.6826 -0.3162
  367bbb     H810626   6.826  10.433   9.340  0.3909  0.3995  0.8253
  367bbb     C510627   7.242  10.485   9.546 -0.5381 -0.1304  0.4504
  367bbb     H910628   7.219  10.558   9.626 -2.3551  0.5302 -0.6029
  367bbb    H1010629   7.217  10.544   9.457  0.7642  0.5410  0.5135
  367bbb     C610630   6.871  10.460   9.817 -0.0957  0.5099 -0.2896
  367bbb    H1110631   6.903  10.453   9.922  0.8186 -0.0046 -0.5855
  367bbb    H1210632   6.781  10.397   9.807  0.5437 -0.2008 -2.2235
  367bbb     C710633   6.826  10.221   9.293  0.2821  0.7916 -0.5031
  367bbb    H1310634   6.904  10.145   9.278 -1.3776 -1.1740  0.2867
  367bbb    H1410635   6.804  10.244   9.188  0.9721  1.0342 -0.6011
  367bbb     C810636   6.833  10.607   9.778  0.3972 -0.0150  0.6890
  367bbb    H1510637   6.804  10.606   9.672  0.9824  0.4310  0.5169
  367bbb    H1610638   6.921  10.669   9.798 -0.1551  0.9391  0.1909
  367bbb     C910639   7.394  10.457   9.521 -0.0636  0.1996 -0.0290
  367bbb    H1710640   7.451  10.531   9.579 -3.2273  2.1381  0.8292
  367bbb    H1810641   7.426  10.478   9.419 -0.5125 -1.7168 -0.6085
  367bbb     O110642   6.703  10.181   9.361 -0.3129  0.9192 -0.3222
  368bbb     N110643   5.980   9.969   9.932 -0.3386 -1.0262  0.6721
  368bbb     C110644   5.977   9.940  10.077  0.4663 -0.0672  0.4689
  368bbb     H110645   6.078   9.945  10.120 -0.4056  2.0839  2.4853
  368bbb     H210646   5.927   9.843  10.089 -0.0177  0.1084 -0.0885
  368bbb     C210647   5.986  10.110   9.897 -0.0511 -0.0927 -0.1213
  368bbb     H310648   5.911  10.158   9.961 -1.3674  0.8127 -2.2240
  368bbb     H410649   5.961  10.131   9.792  0.9786  0.0832 -0.3447
  368bbb     C310650   6.058   9.873   9.850  0.1915  0.7002  0.0473
  368bbb     H510651   6.007   9.778   9.869  1.1109 -0.0670 -1.1436
  368bbb     H610652   6.159   9.867   9.893  0.0855 -0.4655  0.1697
  368bbb     C410653   6.062   9.899   9.700 -0.0211  0.4583  0.1148
  368bbb     H710654   6.093   9.997   9.662 -0.4717  0.4236 -0.3450
  368bbb     H810655   5.958   9.883   9.669 -0.3440 -0.4136  1.5615
  368bbb     C510656   5.893  10.039  10.166  0.1884 -1.0745  0.6261
  368bbb     H910657   5.794  10.057  10.121  1.8927  2.4706 -2.1773
  368bbb    H1010658   5.934  10.141  10.168 -1.0587 -0.5073 -0.6683
  368bbb     C610659   6.125  10.182   9.922 -0.1209  0.0203  0.0338
  368bbb    H1110660   6.207  10.129   9.872  1.1798  1.7688  0.1951
  368bbb    H1210661   6.148  10.166  10.028  0.5428 -0.7656 -0.2152
  368bbb     C710662   6.160   9.793   9.638  0.0283 -0.1523  0.4406
  368bbb    H1310663   6.149   9.787   9.529 -0.2638 -1.5367  0.5280
  368bbb    H1410664   6.127   9.692   9.661  0.5646 -0.4014  0.1464
  368bbb     C810665   6.128  10.333   9.896  0.2145  0.8722 -1.1856
  368bbb    H1510666   6.232  10.358   9.922 -0.2376  1.4579  0.1333
  368bbb    H1610667   6.062  10.377   9.972  2.4271  0.3143  1.2105
  368bbb     C910668   5.881   9.984  10.310 -0.5010 -0.6463  0.0595
  368bbb    H1710669   5.814  10.054  10.361 -0.2694 -0.6551  0.3810
  368bbb    H1810670   5.980   9.980  10.358 -0.2416  0.7385 -0.3089
  368bbb     O110671   6.297   9.836   9.677 -0.4624  0.0162  0.2010
  369bbb     N110672   6.996   9.715   7.455 -0.0115 -0.1387 -0.4370
  369bbb     C110673   7.119   9.768   7.518 -0.0945  0.0526 -0.3724
  369bbb     H110674   7.207   9.704   7.509 -0.3703 -0.6182  1.2966
  369bbb     H210675   7.119   9.766   7.628  0.8179 -0.9147 -0.3792
  369bbb     C210676   7.004   9.706   7.310  0.1779 -0.4618  0.7054
  369bbb     H310677   7.022   9.809   7.275 -1.8225  0.0738  1.1455
  369bbb     H410678   6.906   9.678   7.271  0.4319  0.1681 -0.4315
  369bbb     C310679   6.864   9.760   7.504  0.5255  0.1838 -0.4331
  369bbb     H510680   6.788   9.687   7.472 -0.0088  1.4787 -2.2361
  369bbb     H610681   6.836   9.862   7.477 -1.5957 -0.1887  0.1558
  369bbb     C410682   6.860   9.754   7.660 -0.3053  0.2113  0.7405
  369bbb     H710683   6.927   9.829   7.703  0.4301  0.8798 -1.4176
  369bbb     H810684   6.881   9.652   7.694 -1.4781 -1.0206 -1.9067
  369bbb     C510685   7.162   9.908   7.474  0.6578  0.4098  0.2848
  369bbb     H910686   7.180   9.888   7.368  0.9395 -3.9903  0.9687
  369bbb    H1010687   7.266   9.924   7.505  0.8077  0.3880 -0.2016
  369bbb     C610688   7.109   9.604   7.261  0.8820  0.4919 -0.2091
  369bbb    H1110689   7.068   9.505   7.283 -1.8310  1.1590 -1.7862
  369bbb    H1210690   7.207   9.609   7.312  1.0017  0.6033 -0.4490
  369bbb     C710691   6.719   9.789   7.706  0.1712 -0.0936 -0.1885
  369bbb    H1310692   6.653   9.702   7.697 -1.4337  0.9316  1.1410
  369bbb    H1410693   6.672   9.869   7.647 -1.1012 -0.0563  0.8406
  369bbb     C810694   7.138   9.620   7.113 -0.6460 -0.3668  0.0632
  369bbb    H1510695   7.208   9.541   7.081 -1.1661 -0.4609 -0.8999
  369bbb    H1610696   7.179   9.721   7.103 -0.7285 -0.3635 -0.2559
  369bbb     C910697   7.068  10.026   7.517  0.3405  0.1211 -0.0969
  369bbb    H1710698   6.970  10.018   7.469  0.5171  2.0903 -0.9138
  369bbb    H1810699   7.107  10.117   7.468 -3.2624  1.0743 -1.4844
  369bbb     O110700   6.736   9.829   7.842 -0.3771  0.0551 -0.2707
  370bbb     N110701   5.999   9.758   8.531 -0.2113  0.1458 -0.4429
  370bbb     C110702   5.895   9.796   8.626 -0.1821  0.3515  0.1159
  370bbb     H110703   5.952   9.839   8.710  3.9770 -2.1879 -1.1194
  370bbb     H210704   5.840   9.715   8.675 -2.5482  1.2073 -0.9376
  370bbb     C210705   5.961   9.652   8.435  0.0126 -0.5768 -0.2444
  370bbb     H310706   5.917   9.695   8.345 -1.7440  1.3186  1.4331
  370bbb     H410707   5.885   9.590   8.484 -1.8883  1.4460 -0.4777
  370bbb     C310708   6.077   9.866   8.472 -0.1193  0.4078  0.0964
  370bbb     H510709   6.016   9.914   8.395  0.0373 -1.6990 -1.4404
  370bbb     H610710   6.172   9.828   8.433  0.7043  0.8029  1.6065
  370bbb     C410711   6.115   9.983   8.568  0.3867 -0.1084  0.5795
  370bbb     H710712   6.198   9.946   8.629  1.2680 -0.9111 -1.0608
  370bbb     H810713   6.028  10.016   8.626 -0.4269  1.5065 -1.4223
  370bbb     C510714   5.787   9.899   8.586  0.5926  1.2918 -0.4068
  370bbb     H910715   5.833   9.987   8.541  1.3559  0.7412 -0.7279
  370bbb    H1010716   5.758   9.941   8.683 -1.7109 -0.5874 -0.1865
  370bbb     C610717   6.081   9.566   8.389  0.4575  0.1258 -0.6668
  370bbb    H1110718   6.146   9.537   8.473  0.1519 -0.4863 -0.6331
  370bbb    H1210719   6.135   9.617   8.308 -0.5187  0.3382 -1.1969
  370bbb     C710720   6.167  10.097   8.483 -0.4766 -0.0566  0.5345
  370bbb    H1310721   6.183  10.188   8.542  1.8113 -0.2357  0.2903
  370bbb    H1410722   6.085  10.120   8.414  2.8897  0.2825 -3.7819
  370bbb     C810723   6.028   9.436   8.326 -0.1572 -0.4411  0.4960
  370bbb    H1510724   5.972   9.474   8.239  4.8579  0.9720 -2.4970
  370bbb    H1610725   5.957   9.377   8.386 -0.3169 -2.0418 -1.1664
  370bbb     C910726   5.667   9.848   8.508 -0.5827 -0.7726 -0.2610
  370bbb    H1710727   5.579   9.902   8.545  0.7477 -1.0443  3.7930
  370bbb    H1810728   5.653   9.747   8.548 -1.4787 -1.0689 -1.2924
  370bbb     O110729   6.294  10.056   8.412  0.7716  0.2270 -0.1098
  371bbb     N110730   9.570   9.915   9.574 -0.0007  0.0177 -0.6148
  371bbb     C110731   9.713   9.893   9.597 -0.9575 -0.4324  0.9165
  371bbb     H110732   9.748   9.815   9.527  0.9955  0.9754  0.2421
  371bbb     H210733   9.733   9.861   9.700 -0.2910 -0.6612  0.7211
  371bbb     C210734   9.503  10.030   9.647 -0.4796  0.3355 -0.4646
  371bbb     H310735   9.578  10.108   9.668  0.3826 -0.0790 -1.8689
  371bbb     H410736   9.463   9.991   9.742  0.8971 -1.7161 -0.6624
  371bbb     C310737   9.485   9.795   9.553 -0.2105 -0.6127  0.0127
  371bbb     H510738   9.539   9.719   9.495  1.7004 -0.4507  1.5126
  371bbb     H610739   9.397   9.817   9.491 -0.5525  0.3569  0.8255
  371bbb     C410740   9.433   9.727   9.682  0.2171 -0.5916 -0.4535
  371bbb     H710741   9.486   9.764   9.770 -1.4121  1.8173 -0.3914
  371bbb     H810742   9.462   9.622   9.673 -0.3187 -0.6912 -1.1212
  371bbb     C510743   9.796  10.020   9.565 -0.1307 -0.2626  0.0781
  371bbb     H910744   9.775  10.091   9.647  2.5065  0.8933 -0.1155
  371bbb    H1010745   9.766  10.064   9.469 -0.7611  1.5902  1.0579
  371bbb     C610746   9.394  10.096   9.565 -0.3038 -0.1259  0.0018
  371bbb    H1110747   9.327  10.136   9.642  1.7764 -0.7669  2.2730
  371bbb    H1210748   9.339  10.017   9.513  2.5037 -0.6384 -2.4192
  371bbb     C710749   9.282   9.740   9.688 -0.1034 -0.1946 -0.1289
  371bbb    H1310750   9.231   9.710   9.596  0.7794 -1.1588 -0.3281
  371bbb    H1410751   9.244   9.842   9.701 -0.5953 -0.4207  0.2431
  371bbb     C810752   9.446  10.203   9.469  0.2595 -0.0749  0.5034
  371bbb    H1510753   9.361  10.233   9.406  0.0219  1.8307  1.6614
  371bbb    H1610754   9.519  10.156   9.401  0.3648  0.9006 -0.0866
  371bbb     C910755   9.950  10.003   9.557  0.3204 -0.3722  0.1372
  371bbb    H1710756  10.003  10.099   9.550  0.5114 -0.0296  4.0556
  371bbb    H1810757   9.961   9.943   9.465 -1.1017  1.4936 -1.3160
  371bbb     O110758   9.231   9.666   9.804 -0.2579  0.1059  0.1624
  372bbb     N110759   8.575  10.416  10.390 -0.9828  0.1077 -0.8685
  372bbb     C110760   8.456  10.497  10.360  0.0122  0.1331  0.2522
  372bbb     H110761   8.412  10.539  10.451 -1.1849  1.3149 -0.8399
  372bbb     H210762   8.384  10.425  10.318  1.1673 -1.6058  1.1288
  372bbb     C210763   8.557  10.355  10.527  0.9234 -0.0486 -0.0708
  372bbb     H310764   8.607  10.257  10.537  1.7539  0.5448  2.3296
  372bbb     H410765   8.452  10.336  10.554  0.8442 -0.3804 -0.5930
  372bbb     C310766   8.614  10.314  10.285 -0.4971  0.3155  0.0597
  372bbb     H510767   8.596  10.351  10.183  1.7248 -2.3854 -1.4467
  372bbb     H610768   8.544  10.231  10.302 -0.1098  0.0220  0.2110
  372bbb     C410769   8.763  10.271  10.284  0.1297  0.0048 -0.1504
  372bbb     H710770   8.776  10.210  10.375 -0.3023  0.2609  0.0838
  372bbb     H810771   8.824  10.362  10.288 -0.7015  0.6797 -1.9821
  372bbb     C510772   8.487  10.609  10.266 -0.2310 -0.5688 -0.2136
  372bbb     H910773   8.535  10.571  10.175 -0.8507 -1.3992 -0.2070
  372bbb    H1010774   8.552  10.682  10.316  0.3867 -1.1899 -0.0865
  372bbb     C610775   8.596  10.451  10.642 -0.5883  0.0654  0.5060
  372bbb    H1110776   8.547  10.549  10.644 -0.2815  0.2288  0.1125
  372bbb    H1210777   8.698  10.481  10.615 -0.6527 -0.7576 -0.7584
  372bbb     C710778   8.797  10.187  10.165 -0.3303 -0.2948 -0.5450
  372bbb    H1310779   8.906  10.183  10.160 -0.0654 -0.1545  2.7121
  372bbb    H1410780   8.758  10.238  10.076  0.2131  0.1847 -0.5117
  372bbb     C810781   8.591  10.389  10.787 -0.7557 -0.4619 -0.3926
  372bbb    H1510782   8.660  10.454  10.843 -0.7119  1.1843 -2.2618
  372bbb    H1610783   8.625  10.286  10.804  0.1119  0.2235  2.7219
  372bbb     C910784   8.364  10.695  10.233 -0.2035 -0.3282  0.0008
  372bbb    H1710785   8.392  10.776  10.163  1.8515  0.5496  1.7240
  372bbb    H1810786   8.337  10.745  10.327 -1.3414 -1.0556  0.0770
  372bbb     O110787   8.740  10.055  10.182 -0.5364  0.5226 -0.0175
  373bbb     N110788   8.832   9.119   7.658 -0.2142  0.0571  0.5827
  373bbb     C110789   8.831   9.256   7.606  0.0675 -0.4624  1.0567
  373bbb     H110790   8.765   9.316   7.670  0.4771 -0.4088  1.4280
  373bbb     H210791   8.791   9.251   7.504 -1.2516 -0.3420  1.5477
  373bbb     C210792   8.693   9.052   7.671 -0.2109 -0.1820  0.9051
  373bbb     H310793   8.626   9.099   7.743 -1.1861 -0.0303 -0.0752
  373bbb     H410794   8.710   8.945   7.690  1.1392 -1.2054 -4.3286
  373bbb     C310795   8.911   9.097   7.786  0.1544  0.0880  0.3130
  373bbb     H510796   9.017   9.112   7.762  0.4313 -1.3368  0.5112
  373bbb     H610797   8.905   8.989   7.805 -1.6098  0.0283 -0.3720
  373bbb     C410798   8.861   9.171   7.909 -1.2011 -0.4678  0.4556
  373bbb     H710799   8.771   9.120   7.947 -0.6303 -0.8727  1.3065
  373bbb     H810800   8.834   9.274   7.883 -2.7900 -0.5018  1.8013
  373bbb     C510801   8.955   9.337   7.597 -0.3486  0.5330 -0.5894
  373bbb     H910802   8.985   9.363   7.699  0.6251  1.0632 -0.9888
  373bbb    H1010803   8.931   9.434   7.550  0.3249  0.5050 -1.0140
  373bbb     C610804   8.609   9.043   7.537 -0.5329 -0.1948  0.0197
  373bbb    H1110805   8.582   9.142   7.499  0.2929 -0.4949 -1.4149
  373bbb    H1210806   8.520   8.979   7.545  0.4356 -1.6982 -0.7521
  373bbb     C710807   8.968   9.170   8.019  0.0132  1.0775 -0.1502
  373bbb    H1310808   9.066   9.204   7.982  1.0447 -2.8525 -1.6023
  373bbb    H1410809   8.993   9.070   8.056 -1.6591  1.1238  1.1727
  373bbb     C810810   8.693   8.980   7.420 -0.1618  0.1243 -0.2958
  373bbb    H1510811   8.626   8.908   7.370 -0.2106  0.2926 -0.4716
  373bbb    H1610812   8.780   8.925   7.457 -1.7227 -1.4980  1.1932
  373bbb     C910813   9.069   9.268   7.522 -0.3789  0.3227 -0.3223
  373bbb    H1710814   9.045   9.240   7.419  0.1290  0.3227 -0.4457
  373bbb    H1810815   9.090   9.171   7.569  0.5314  0.0510 -1.2757
  373bbb     O110816   8.921   9.243   8.132 -0.0611 -0.0401  0.2965
  374bbb     N110817   8.113  10.082   8.386  0.3869  0.5061  0.3831
  374bbb     C110818   8.027  10.007   8.295 -0.1356  0.7608  0.3503
  374bbb     H110819   7.935   9.978   8.349 -0.7842  0.7938 -0.7025
  374bbb     H210820   8.065   9.910   8.261 -1.7877 -0.2682  1.3126
  374bbb     C210821   8.042  10.207   8.431 -0.1402 -0.0914  0.4380
  374bbb     H310822   7.934  10.193   8.439 -0.0745 -1.9764 -1.4025
  374bbb     H410823   8.068  10.291   8.365 -2.6736  2.0878  2.0101
  374bbb     C310824   8.253  10.107   8.345 -0.6417  0.3985 -0.4473
  374bbb     H510825   8.317  10.153   8.421  1.0562  0.0464 -1.6133
  374bbb     H610826   8.251  10.187   8.269  0.2600  1.9576  1.1043
  374bbb     C410827   8.333   9.984   8.288 -0.1821 -0.3531 -0.3535
  374bbb     H710828   8.291   9.949   8.193 -1.9273 -2.7823  1.2193
  374bbb     H810829   8.317   9.900   8.356 -0.4328 -1.2812 -1.5362
  374bbb     C510830   8.006  10.065   8.156 -0.1495 -0.2211 -0.0106
  374bbb     H910831   8.103  10.091   8.113 -0.3708  2.9310  1.0930
  374bbb    H1010832   7.972  10.167   8.180  2.2102  0.7171 -0.4268
  374bbb     C610833   8.089  10.277   8.562 -0.3913  0.3069  0.6110
  374bbb    H1110834   8.198  10.282   8.567 -0.0625 -2.8409 -0.5678
  374bbb    H1210835   8.057  10.214   8.646  0.5360 -0.6537  0.2749
  374bbb     C710836   8.486  10.028   8.293  0.3503  0.2141  0.4822
  374bbb    H1310837   8.512  10.068   8.392  2.7661  3.0698 -1.1226
  374bbb    H1410838   8.505  10.097   8.209  2.9902 -0.3171  0.5870
  374bbb     C810839   8.021  10.416   8.565 -0.1659  0.1041  0.5555
  374bbb    H1510840   7.921  10.397   8.524  0.5204 -0.9971 -0.6535
  374bbb    H1610841   8.075  10.490   8.505 -0.1782  0.2488  0.7191
  374bbb     C910842   7.928   9.981   8.050  0.5878  0.0305 -0.3305
  374bbb    H1710843   7.974   9.883   8.031  1.9853  0.7925 -1.1434
  374bbb    H1810844   7.923  10.037   7.956  1.3848  1.5252  0.4776
  374bbb     O110845   8.569   9.908   8.270 -0.2333  0.5755  0.0614
  375bbb     N110846   7.323   8.273  12.830 -0.5893 -0.0521  0.0191
  375bbb     C110847   7.329   8.402  12.906 -0.3213 -0.2140  0.4304
  375bbb     H110848   7.343   8.390  13.015  0.8410 -0.3834  0.2789
  375bbb     H210849   7.232   8.450  12.894 -1.1039 -0.7418  3.6425
  375bbb     C210850   7.386   8.153  12.890  0.2963 -0.2050 -0.0538
  375bbb     H310851   7.482   8.125  12.845  0.0103 -0.4142 -0.5411
  375bbb     H410852   7.323   8.069  12.860 -0.0124  0.0712 -0.1771
  375bbb     C310853   7.314   8.268  12.680 -0.4246  0.0863 -0.5358
  375bbb     H510854   7.266   8.177  12.643 -0.0349  0.0302 -0.9152
  375bbb     H610855   7.420   8.262  12.650  0.0588 -1.5080  1.2631
  375bbb     C410856   7.229   8.376  12.616  0.1302 -0.4049 -0.2436
  375bbb     H710857   7.253   8.475  12.656 -0.5589  0.0797 -0.9899
  375bbb     H810858   7.124   8.358  12.644 -0.3592  2.8211  0.3654
  375bbb     C510859   7.451   8.488  12.873  0.2811 -0.6094  0.0656
  375bbb     H910860   7.431   8.589  12.910  0.5230 -0.0926 -1.1706
  375bbb    H1010861   7.452   8.497  12.763  0.8041  0.8372  0.1622
  375bbb     C610862   7.401   8.161  13.044  0.0191  0.4401 -0.4352
  375bbb    H1110863   7.304   8.182  13.091  1.0215  2.1300  1.0129
  375bbb    H1210864   7.465   8.245  13.073  0.6635 -0.3513  0.4612
  375bbb     C710865   7.231   8.382  12.467  0.2735 -0.2112  0.3480
  375bbb    H1310866   7.338   8.377  12.445  0.4341 -0.4249  1.1466
  375bbb    H1410867   7.185   8.476  12.434 -0.3935 -0.7262 -0.2267
  375bbb     C810868   7.449   8.021  13.099  0.6156  0.4757 -0.2429
  375bbb    H1510869   7.377   7.951  13.054 -2.4012  1.9965  1.8798
  375bbb    H1610870   7.430   8.016  13.206  0.8000  2.8404 -0.0625
  375bbb     C910871   7.587   8.425  12.926 -0.2032  0.0456 -0.1270
  375bbb    H1710872   7.606   8.327  12.880  4.1171  1.3523 -1.6210
  375bbb    H1810873   7.591   8.416  13.035  1.7458  2.8607  0.1387
  375bbb     O110874   7.165   8.272  12.402 -0.0138 -0.0002  0.1311
  376bbb     N110875   6.469   8.188  11.404 -0.0132 -0.1062 -0.9128
  376bbb     C110876   6.456   8.062  11.326  0.3561 -0.3926 -0.1861
  376bbb     H110877   6.352   8.064  11.292 -0.1871  1.2982  1.3704
  376bbb     H210878   6.463   7.976  11.394 -0.5912  0.2706  0.7862
  376bbb     C210879   6.347   8.244  11.470 -0.0139  0.5068 -0.3044
  376bbb     H310880   6.361   8.323  11.545 -0.6928 -1.5089  2.1023
  376bbb     H410881   6.301   8.163  11.528 -2.2181  0.4605 -1.9735
  376bbb     C310882   6.590   8.191  11.495 -0.2567 -0.2825  0.7979
  376bbb     H510883   6.623   8.295  11.507  1.8607 -0.3928 -2.6582
  376bbb     H610884   6.679   8.147  11.450 -0.6151 -0.7215  0.5045
  376bbb     C410885   6.567   8.120  11.632  0.2513 -0.1496  0.1228
  376bbb     H710886   6.553   8.017  11.597  1.5517 -0.7661  1.3174
  376bbb     H810887   6.479   8.152  11.689  0.7190  2.0557 -0.3130
  376bbb     C510888   6.563   8.057  11.206  0.2840  0.5837  0.1097
  376bbb     H910889   6.659   8.020  11.245  0.9332  0.9154 -1.1209
  376bbb    H1010890   6.587   8.159  11.175 -2.4126  1.1579 -0.3495
  376bbb     C610891   6.237   8.289  11.372 -0.6024 -0.0423 -0.4764
  376bbb    H1110892   6.236   8.228  11.281  0.1016  1.1041 -1.2833
  376bbb    H1210893   6.275   8.387  11.340  0.6900 -0.7859 -1.2781
  376bbb     C710894   6.681   8.133  11.727 -0.0007 -0.1256 -0.6347
  376bbb    H1310895   6.755   8.064  11.685 -0.1704 -0.4985 -0.3262
  376bbb    H1410896   6.647   8.094  11.824  0.5457 -1.5604 -0.9916
  376bbb     C810897   6.097   8.301  11.425  0.2513  0.0476  0.3314
  376bbb    H1510898   6.085   8.367  11.512 -2.2517  2.3262 -1.5471
  376bbb    H1610899   6.067   8.200  11.455  2.8134 -0.9627 -0.3116
  376bbb     C910900   6.503   7.992  11.087 -0.1230 -0.2930 -0.1143
  376bbb    H1710901   6.436   8.060  11.033 -2.2820 -1.2833  1.1774
  376bbb    H1810902   6.449   7.901  11.117  1.2021 -0.5696  1.5627
  376bbb     O110903   6.728   8.270  11.740  0.1083 -0.2322  0.9179
  377bbb     N110904   6.426  10.280  11.250 -0.3046  0.0295  0.1493
  377bbb     C110905   6.283  10.253  11.222 -0.1428  0.0148  0.6014
  377bbb     H110906   6.269  10.179  11.142 -0.9922 -2.3776  2.8067
  377bbb     H210907   6.237  10.344  11.183 -0.9435 -0.1795  1.0614
  377bbb     C210908   6.506  10.329  11.135  0.1632 -0.5637 -0.1441
  377bbb     H310909   6.526  10.252  11.060  1.3963 -0.8225  0.4171
  377bbb     H410910   6.605  10.350  11.179 -0.1245 -0.8569  0.6547
  377bbb     C310911   6.502  10.204  11.351  0.2876  1.5305  0.5172
  377bbb     H510912   6.441  10.169  11.435  1.0334 -0.9040  0.1060
  377bbb     H610913   6.578  10.271  11.393  0.6817  2.6425 -1.8108
  377bbb     C410914   6.578  10.077  11.284 -0.0299 -0.4532 -0.1319
  377bbb     H710915   6.656  10.127  11.226 -1.6901 -1.8913 -3.9305
  377bbb     H810916   6.513  10.028  11.211 -1.8578  3.1327 -1.1093
  377bbb     C510917   6.199  10.205  11.345 -0.6274 -0.5210  0.9123
  377bbb     H910918   6.217  10.278  11.425  0.6112 -0.6908  0.8121
  377bbb    H1010919   6.238  10.106  11.372  0.5387 -0.3096  0.1006
  377bbb     C610920   6.455  10.455  11.054  0.3396 -0.5043 -0.2780
  377bbb    H1110921   6.446  10.533  11.131  1.0404 -2.5950  2.0718
  377bbb    H1210922   6.355  10.435  11.015 -0.3936 -1.4531  1.9083
  377bbb     C710923   6.635   9.985  11.387  0.0297 -0.1645 -0.2547
  377bbb    H1310924   6.554   9.978  11.461 -0.9360  4.0273 -0.6784
  377bbb    H1410925   6.721  10.028  11.441 -0.1264 -0.1825  0.0078
  377bbb     C810926   6.534  10.502  10.935 -0.5500 -0.2641 -0.1655
  377bbb    H1510927   6.642  10.490  10.952 -0.8956  0.1696  2.9657
  377bbb    H1610928   6.517  10.608  10.913 -2.0701 -0.5974 -0.7009
  377bbb     C910929   6.043  10.188  11.322  0.1582 -0.0526 -0.1977
  377bbb    H1710930   5.994  10.145  11.410  1.8690  1.2479  1.4521
  377bbb    H1810931   6.015  10.117  11.243 -2.3130 -0.0261  0.5604
  377bbb     O110932   6.674   9.857  11.326  0.8067 -0.0274 -0.1945
  378bbb     N110933   5.914   9.429  11.109 -0.3918 -0.5437 -0.1198
  378bbb     C110934   5.838   9.555  11.108  0.7982  0.3887 -0.3525
  378bbb     H110935   5.734   9.522  11.107  0.8790  0.1390 -0.6074
  378bbb     H210936   5.852   9.608  11.012  0.2100 -1.5622 -1.5637
  378bbb     C210937   5.898   9.342  10.987  0.2968  1.0851  0.2156
  378bbb     H310938   5.969   9.260  11.000 -0.0607  0.8196  0.5310
  378bbb     H410939   5.935   9.400  10.902  0.3778  0.4003 -0.2302
  378bbb     C310940   6.058   9.424  11.147  0.4261 -0.1398  0.1009
  378bbb     H510941   6.092   9.324  11.115 -1.9095 -0.1485 -2.8415
  378bbb     H610942   6.076   9.444  11.253  3.7118  4.5962 -1.0433
  378bbb     C410943   6.147   9.525  11.072  0.0923 -0.1884 -0.3724
  378bbb     H710944   6.112   9.628  11.088  1.3127 -0.0861  1.9882
  378bbb     H810945   6.147   9.499  10.965  1.1192 -0.6519 -0.2658
  378bbb     C510946   5.861   9.650  11.236  0.6514 -0.2811 -0.5644
  378bbb     H910947   5.789   9.733  11.233  2.9325  1.9638  1.7804
  378bbb    H1010948   5.958   9.699  11.227  1.2543 -1.4828 -0.7391
  378bbb     C610949   5.754   9.289  10.956 -0.4913 -0.3153 -0.1192
  378bbb    H1110950   5.703   9.376  10.912  2.8132  1.5547 -0.5787
  378bbb    H1210951   5.721   9.257  11.055  1.5079  0.6821  0.9457
  378bbb     C710952   6.292   9.518  11.124  0.1989  0.8005 -0.2143
  378bbb    H1310953   6.283   9.507  11.233 -0.7664 -0.5255 -0.4100
  378bbb    H1410954   6.349   9.608  11.099  1.5296  0.0211 -0.0935
  378bbb     C810955   5.751   9.179  10.849  0.2776  0.8408 -0.2205
  378bbb    H1510956   5.651   9.137  10.830  0.8962  0.0974 -2.0134
  378bbb    H1610957   5.804   9.088  10.878 -1.2275 -0.0287 -0.0634
  378bbb     C910958   5.844   9.579  11.375 -0.3140 -1.1858  0.5443
  378bbb    H1710959   5.934   9.522  11.402  1.6565  1.5307  0.0643
  378bbb    H1810960   5.762   9.507  11.365  0.4032 -1.7257 -2.2458
  378bbb     O110961   6.361   9.404  11.059 -0.3084  0.2190  0.3784
  379bbb     N110962   9.548   9.605  10.179  0.1468 -1.1022 -0.3978
  379bbb     C110963   9.622   9.577  10.057 -0.1550  0.5966  0.4260
  379bbb     H110964   9.545   9.554   9.981 -0.3908  0.2600  0.7666
  379bbb     H210965   9.674   9.482  10.071 -0.5759  0.4633  1.1127
  379bbb     C210966   9.434   9.514  10.191 -0.0309 -0.7931 -0.4926
  379bbb     H310967   9.392   9.503  10.090  1.6088  0.1171 -1.3254
  379bbb     H410968   9.356   9.563  10.252 -1.2129 -1.5576 -1.3353
  379bbb     C310969   9.500   9.749  10.187  0.1695 -0.1814 -0.7437
  379bbb     H510970   9.583   9.819  10.177  0.4540 -0.8033 -3.7605
  379bbb     H610971   9.447   9.770  10.281 -2.1482 -0.8012 -1.8243
  379bbb     C410972   9.403   9.793  10.078  0.1476 -0.5283 -0.0243
  379bbb     H710973   9.313   9.730  10.069 -2.3309  2.8439 -0.8476
  379bbb     H810974   9.456   9.789   9.982  1.0952 -3.7138  0.5178
  379bbb     C510975   9.720   9.686  10.009  0.6918  0.6096 -0.6103
  379bbb     H910976   9.791   9.692  10.092  1.5256 -2.0837 -1.0201
  379bbb    H1010977   9.674   9.784   9.994 -1.8020 -0.6936 -2.1473
  379bbb     C610978   9.462   9.377  10.262 -0.0889 -0.3916  0.0744
  379bbb    H1110979   9.561   9.345  10.227 -0.5272 -1.6706 -0.0803
  379bbb    H1210980   9.391   9.301  10.226  0.2063 -1.4949  1.6619
  379bbb     C710981   9.355   9.939  10.101  0.1127  0.3133  0.2234
  379bbb    H1310982   9.290   9.963  10.015  0.6119 -1.8451 -0.8207
  379bbb    H1410983   9.440  10.008  10.106  0.7464 -0.3569 -0.9132
  379bbb     C810984   9.474   9.380  10.423  0.2199  0.3272  0.9427
  379bbb    H1510985   9.375   9.413  10.455 -0.4421  1.1833 -1.7324
  379bbb    H1610986   9.535   9.464  10.457 -0.7862  0.6849  1.9390
  379bbb     C910987   9.798   9.656   9.879  0.1563 -0.1247 -0.3140
  379bbb    H1710988   9.862   9.740   9.848  2.1220 -2.1126 -1.9533
  379bbb    H1810989   9.725   9.656   9.797 -0.5129  1.5440  0.2307
  379bbb     O110990   9.268   9.932  10.217  0.4133 -0.3009 -0.0418
  380bbb     N110991   9.353   9.687  10.789  0.5229 -0.0474 -0.1259
  380bbb     C110992   9.423   9.795  10.713 -0.5448 -0.1949 -0.0862
  380bbb     H110993   9.529   9.767  10.713 -0.5667 -0.3015  1.0728
  380bbb     H210994   9.433   9.891  10.765  5.4641  0.2589 -1.3395
  380bbb     C210995   9.428   9.650  10.916  0.2909 -0.6478 -0.2283
  380bbb     H310996   9.527   9.609  10.892  0.5788  1.0599 -2.3622
  380bbb     H410997   9.369   9.577  10.972  0.6429 -0.9108 -0.1993
  380bbb     C310998   9.317   9.568  10.705  0.4929 -0.0260 -0.0193
  380bbb     H510999   9.405   9.506  10.685  0.9875  0.3833  0.8289
  380bbb     H611000   9.275   9.600  10.609 -0.5698 -1.5133 -0.0909
  380bbb     C411001   9.202   9.493  10.766  0.5119 -0.3694  0.4470
  380bbb     H711002   9.123   9.568  10.781  1.2778  0.2679  1.4360
  380bbb     H811003   9.230   9.449  10.862  3.3235 -2.4361 -1.2027
  380bbb     C511004   9.378   9.823  10.570  1.2232 -0.3112  0.2445
  380bbb     H911005   9.272   9.847  10.578  1.0116 -1.3635  0.7920
  380bbb    H1011006   9.402   9.739  10.503  1.1790 -0.2692  0.1752
  380bbb     C611007   9.458   9.770  11.008 -0.0920 -0.3859 -0.1210
  380bbb    H1111008   9.451   9.724  11.107 -1.2828 -0.1292 -0.0768
  380bbb    H1211009   9.383   9.849  10.995  0.3713  0.3055  1.2652
  380bbb     C711010   9.147   9.377  10.675  0.4670 -0.0023  0.5440
  380bbb    H1311011   9.072   9.332  10.741  0.6207  0.4798  1.0516
  380bbb    H1411012   9.226   9.305  10.651 -0.3908 -0.4495 -1.0541
  380bbb     C811013   9.602   9.830  11.002 -0.3367 -0.2351 -0.1005
  380bbb    H1511014   9.600   9.913  11.073  2.2077  0.1305 -0.3783
  380bbb    H1611015   9.626   9.874  10.904 -1.0833  1.0435  0.2707
  380bbb     C911016   9.467   9.941  10.511  0.0525 -0.1875 -0.5170
  380bbb    H1711017   9.440  10.031  10.569  2.0500  0.9762 -1.2800
  380bbb    H1811018   9.434   9.957  10.407 -1.7567 -0.6291 -0.0577
  380bbb     O111019   9.095   9.432  10.555 -0.0999 -0.1413 -0.2313
  381bbb     N111020   7.064  10.652  10.277  0.0031 -0.1467 -0.3011
  381bbb     C111021   6.923  10.666  10.242 -0.6474 -0.0733  0.3613
  381bbb     H111022   6.894  10.575  10.188 -1.1830  0.1648  0.2403
  381bbb     H211023   6.908  10.743  10.166 -1.4813 -0.0509  0.5388
  381bbb     C211024   7.151  10.605  10.169 -0.2418 -0.2167  0.4228
  381bbb     H311025   7.108  10.511  10.133  2.6103 -1.3853 -0.2409
  381bbb     H411026   7.254  10.597  10.205  0.3675 -0.2151 -1.2503
  381bbb     C311027   7.118  10.765  10.373 -0.0880  0.0789  0.0458
  381bbb     H511028   7.055  10.772  10.462  0.0231  1.5721  0.0413
  381bbb     H611029   7.107  10.856  10.312 -0.4884  0.3764  0.5506
  381bbb     C411030   7.265  10.748  10.417 -0.0927  0.5747  0.5086
  381bbb     H711031   7.330  10.746  10.328  0.5372  1.0335  0.9496
  381bbb     H811032   7.271  10.656  10.475 -1.4412  0.2085  0.1051
  381bbb     C511033   6.828  10.706  10.359 -0.6832 -0.4105 -0.4681
  381bbb     H911034   6.835  10.813  10.382 -2.0035 -0.1769 -1.0617
  381bbb    H1011035   6.871  10.660  10.449 -0.4277 -0.8431 -0.8104
  381bbb     C611036   7.156  10.714  10.055 -0.1177 -0.4886  0.1842
  381bbb    H1111037   7.198  10.806  10.097  0.2371 -0.7726  0.4532
  381bbb    H1211038   7.052  10.730  10.021  0.3118  1.8570 -0.2141
  381bbb     C711039   7.319  10.865  10.504  0.1552  0.0054  0.5713
  381bbb    H1311040   7.259  10.862  10.595 -1.3834 -1.7769 -0.4369
  381bbb    H1411041   7.306  10.958  10.448  0.1141  0.3657  1.1756
  381bbb     C811042   7.226  10.660   9.926 -0.7407 -0.4404  0.2018
  381bbb    H1511043   7.242  10.744   9.857  2.9630 -0.9378  0.2796
  381bbb    H1611044   7.159  10.584   9.883  0.9254 -1.4140 -0.7641
  381bbb     C911045   6.686  10.661  10.319  0.1163 -0.2168 -0.5710
  381bbb    H1711046   6.678  10.564  10.269 -0.3037 -1.0127  0.9910
  381bbb    H1811047   6.639  10.739  10.257 -2.1219 -0.6365  0.5249
  381bbb     O111048   7.458  10.847  10.530 -0.2826 -1.0289 -0.1077
  382bbb     N111049   7.091  10.366  11.399  0.6167 -0.3987 -0.3982
  382bbb     C111050   7.087  10.226  11.438 -0.3084  0.6642  0.5083
  382bbb     H111051   7.189  10.185  11.443  0.7489  2.4845 -2.8835
  382bbb     H211052   7.035  10.168  11.361  0.1901 -0.7060  1.1700
  382bbb     C211053   6.960  10.432  11.379 -0.4429 -0.5358 -0.3754
  382bbb     H311054   6.984  10.524  11.325  0.3752 -0.8206 -0.5145
  382bbb     H411055   6.927  10.462  11.479 -0.7514  2.0962 -1.2096
  382bbb     C311056   7.194  10.449  11.466  0.7788 -0.0350  0.3855
  382bbb     H511057   7.282  10.388  11.491  1.3758  0.3498 -0.7417
  382bbb     H611058   7.157  10.490  11.561 -3.5536 -2.6850  0.0883
  382bbb     C411059   7.243  10.567  11.376 -0.5055  0.2780  0.0155
  382bbb     H711060   7.222  10.662  11.427  0.6934 -0.3830  1.8320
  382bbb     H811061   7.190  10.571  11.280  4.4122  1.3029 -3.0343
  382bbb     C511062   7.025  10.205  11.575 -0.2379  0.2330 -0.5935
  382bbb     H911063   6.930  10.260  11.576  0.1367  0.8890  0.2864
  382bbb    H1011064   7.076  10.260  11.654 -0.4649  0.7571 -0.8073
  382bbb     C611065   6.844  10.369  11.300  0.4794 -0.3063  0.4510
  382bbb    H1111066   6.769  10.449  11.299 -0.9713 -1.6150 -0.8642
  382bbb    H1211067   6.801  10.279  11.345  1.4468 -1.3019 -0.5513
  382bbb     C711068   7.392  10.562  11.348  0.0759 -0.0546  0.5292
  382bbb    H1311069   7.413  10.461  11.310 -0.1683  0.9512 -2.5686
  382bbb    H1411070   7.449  10.580  11.440  2.4653 -2.5830 -0.2925
  382bbb     C811071   6.882  10.344  11.150  0.2837  0.0843  0.3322
  382bbb    H1511072   6.790  10.310  11.101 -0.5049  0.3500  1.5738
  382bbb    H1611073   6.954  10.261  11.147 -0.0710 -0.2583  0.8501
  382bbb     C911074   7.015  10.051  11.613 -0.2392 -0.1198 -0.0944
  382bbb    H1711075   6.950  10.009  11.535  0.0090  0.9039 -0.8825
  382bbb    H1811076   6.962  10.049  11.708 -0.1053  3.2168  0.1670
  382bbb     O111077   7.423  10.656  11.236 -0.0616  0.0858  0.1680
  383ccc     C111078   6.022   3.799   9.167 -0.2245 -0.1952 -0.1037
  383ccc     C211079   6.022   3.937   9.089  0.1056 -0.5826 -0.2943
  383ccc     H111080   6.010   3.829   9.272  0.1021  0.6582 -0.2949
  383ccc     H211081   5.933   3.995   9.118  1.1132  0.1366  1.5463
  383ccc     C311082   6.144   4.029   9.124 -0.1242 -0.3338  0.0939
  383ccc     C411083   6.278   3.952   9.111 -0.2428  0.7367 -0.1423
  383ccc     C511084   6.271   3.816   9.187  0.4431 -0.0652  0.1495
  383ccc     H311085   6.303   3.929   9.007 -1.2643  2.0476 -0.7035
  383ccc     H411086   6.127   4.035   9.232 -3.2266  0.5653 -0.3414
  383ccc     H511087   6.272   3.838   9.294 -1.9334  2.1503 -0.1701
  383ccc     O111088   6.383   3.731   9.149  0.2445 -0.6579  0.4212
  383ccc     O211089   6.372   4.045   9.177 -0.2230 -0.3535 -0.4540
  383ccc     O311090   6.140   4.157   9.051  0.0554  0.0817 -0.1555
  383ccc     O411091   6.020   3.899   8.955 -0.5407 -0.7563  0.5224
  383ccc     C611092   5.902   3.697   9.145  0.5690  0.1912  0.4423
  383ccc     H611093   6.143   4.124   8.959 -0.8055  0.3511 -0.2854
  383ccc     H711094   5.976   3.813   8.963 -0.7919 -0.7676 -0.7594
  383ccc     H811095   6.459   4.007   9.154 -0.2996  0.3562 -2.0443
  383ccc     H911096   5.813   3.749   9.182 -0.4636 -0.7967 -0.5772
  383ccc    H1011097   5.917   3.611   9.212 -1.6109  0.3675  1.2388
  383ccc     O511098   5.890   3.675   9.002 -0.1883  0.1318 -0.4539
  383ccc    H1111099   5.827   3.602   8.995 -0.0234 -0.1494  0.7311
  383ccc     O611100   6.154   3.741   9.149  0.5621  0.1709 -0.4886
  384ccc     C111101   6.764   2.855   9.579  0.0453  0.1880 -0.3979
  384ccc     C211102   6.894   2.867   9.491 -0.5174  0.0409 -0.8434
  384ccc     H111103   6.687   2.801   9.523 -0.5865  0.0622  0.5689
  384ccc     H211104   6.935   2.766   9.480 -0.5361  0.1102 -1.6336
  384ccc     C311105   6.865   2.950   9.365  0.7851  0.8249  0.3638
  384ccc     C411106   6.793   3.086   9.401  0.8672  0.3018  0.0231
  384ccc     C511107   6.671   3.052   9.489  0.7443  0.4542 -0.3716
  384ccc     H311108   6.862   3.140   9.467  1.1395 -1.6534  1.4480
  384ccc     H411109   6.792   2.882   9.319  0.5344  0.3585  1.4269
  384ccc     H511110   6.599   2.992   9.432 -0.0079  2.0774 -1.1778
  384ccc     O111111   6.599   3.163   9.539 -0.2853  0.1236 -0.7198
  384ccc     O211112   6.766   3.158   9.278  0.1373  0.2482 -0.4959
  384ccc     O311113   6.980   2.984   9.285 -0.3333 -0.3793 -0.6772
  384ccc     O411114   6.986   2.939   9.574  0.0388  0.3956 -0.5778
  384ccc     C611115   6.783   2.770   9.709  0.2306  0.3784  0.3012
  384ccc     H611116   6.936   3.047   9.226 -0.2018 -0.4725 -0.8769
  384ccc     H711117   6.956   2.921   9.665 -2.8922  1.2058 -1.2696
  384ccc     H811118   6.730   3.243   9.309 -1.6404 -0.6228 -0.0265
  384ccc     H911119   6.825   2.673   9.679 -2.4240 -0.9992  0.6787
  384ccc    H1011120   6.694   2.733   9.762  0.3783 -2.8853 -1.4483
  384ccc     O511121   6.874   2.839   9.792 -0.1589  0.0248 -0.4107
  384ccc    H1111122   6.867   2.787   9.873 -1.9279 -2.7192 -2.1337
  384ccc     O611123   6.708   2.982   9.610 -0.4516 -0.2577  0.2587
  385ccc     C111124   7.933   3.560   8.059  0.1528  0.1090  0.1222
  385ccc     C211125   7.833   3.666   8.099  0.0850 -0.7749 -0.1334
  385ccc     H111126   7.882   3.470   8.022  2.6299 -1.0666 -0.6286
  385ccc     H211127   7.766   3.679   8.013  1.4430 -1.9768 -1.4376
  385ccc     C311128   7.751   3.618   8.221 -0.0769 -0.1706 -0.3847
  385ccc     C411129   7.836   3.565   8.343 -0.1988 -0.4873 -0.2224
  385ccc     C511130   7.920   3.455   8.282 -0.8649  0.1616  0.0339
  385ccc     H311131   7.897   3.651   8.371 -0.4022 -0.2918 -0.3780
  385ccc     H411132   7.695   3.534   8.178 -0.9871  0.6092 -0.7665
  385ccc     H511133   7.861   3.373   8.240 -0.3290 -0.6189  0.7687
  385ccc     O111134   8.007   3.391   8.384  0.3232 -0.4195 -0.5711
  385ccc     O211135   7.750   3.536   8.458 -0.0524  0.3830 -0.0912
  385ccc     O311136   7.664   3.719   8.270  0.1811  0.4262  0.1865
  385ccc     O411137   7.906   3.788   8.126  0.3217  0.5243 -0.2695
  385ccc     C611138   8.038   3.594   7.950  0.0027  0.0403  0.4396
  385ccc     H611139   7.627   3.679   8.351  0.7374 -0.2477  0.1156
  385ccc     H711140   7.860   3.844   8.190  0.6774  1.0797 -0.4885
  385ccc     H811141   7.807   3.487   8.520 -2.3211  0.7589  2.4698
  385ccc     H911142   7.983   3.615   7.858 -1.0436 -0.6534  0.8834
  385ccc    H1011143   8.091   3.502   7.924  0.8650  1.1265 -1.9423
  385ccc     O511144   8.120   3.699   7.997  0.7657 -0.2229  0.4461
  385ccc    H1111145   8.059   3.747   8.056  0.8003  1.0586 -0.5314
  385ccc     O611146   8.001   3.512   8.179 -0.0859  0.0860  0.3112
  386ccc     C111147   7.453   4.008   8.478  0.5114 -0.6110  0.4551
  386ccc     C211148   7.480   4.150   8.420 -0.0041 -0.0459 -0.0724
  386ccc     H111149   7.380   4.008   8.561 -1.7603 -0.2976 -1.4393
  386ccc     H211150   7.386   4.202   8.395 -0.6370  0.0602  2.3447
  386ccc     C311151   7.543   4.238   8.520 -1.0990  0.1946 -0.3090
  386ccc     C411152   7.672   4.165   8.579 -0.0252  0.3530 -0.1130
  386ccc     C511153   7.639   4.015   8.621 -0.1734  0.3064  0.0190
  386ccc     H311154   7.750   4.155   8.503 -0.0793 -2.5161  0.1104
  386ccc     H411155   7.473   4.244   8.605 -0.2630 -1.4099  0.5518
  386ccc     H511156   7.563   4.029   8.699 -0.2946  0.9443 -0.2082
  386ccc     O111157   7.760   3.951   8.669 -0.1641  0.7455 -0.0974
  386ccc     O211158   7.719   4.234   8.693  0.3919 -0.1202 -0.8195
  386ccc     O311159   7.574   4.371   8.467 -0.1224  0.6348 -0.0730
  386ccc     O411160   7.559   4.134   8.302 -0.2260  0.6014 -0.1387
  386ccc     C611161   7.377   3.924   8.375 -0.6620 -0.0684  0.3735
  386ccc     H611162   7.651   4.355   8.409  0.0373  2.2923 -0.3717
  386ccc     H711163   7.503   4.181   8.238  1.1526 -0.2037 -2.0173
  386ccc     H811164   7.673   4.196   8.769 -1.8466 -1.1005 -2.5580
  386ccc     H911165   7.446   3.901   8.293  0.1365  2.1704  0.3471
  386ccc    H1011166   7.296   3.987   8.336 -1.3475  0.4494  2.5091
  386ccc     O511167   7.319   3.806   8.428 -0.1602  0.2160  0.3032
  386ccc    H1111168   7.390   3.747   8.460 -0.7816 -1.5184 -1.2947
  386ccc     O611169   7.573   3.941   8.518 -1.2217  0.4541 -0.2980
  387ccc     C111170   4.883   4.754   7.519  0.4418  0.1172 -0.6417
  387ccc     C211171   4.831   4.716   7.377  0.1827  0.3796 -0.7436
  387ccc     H111172   4.895   4.863   7.519  1.6476  0.0058 -1.4105
  387ccc     H211173   4.751   4.786   7.348 -0.7419 -0.6136 -0.6446
  387ccc     C311174   4.931   4.722   7.265  0.9392 -0.3928 -0.3051
  387ccc     C411175   5.048   4.631   7.305 -0.7995  0.5371  0.0415
  387ccc     C511176   5.112   4.688   7.434 -0.2588  0.4668  0.4174
  387ccc     H311177   5.001   4.537   7.337 -2.6217  1.2915 -0.3073
  387ccc     H411178   4.965   4.826   7.273 -1.0814  0.2571  0.5634
  387ccc     H511179   5.154   4.786   7.409  1.5611 -0.8084 -1.9573
  387ccc     O111180   5.215   4.591   7.474 -0.1853  0.3192  0.2208
  387ccc     O211181   5.140   4.622   7.193 -0.2387  0.2620 -0.4295
  387ccc     O311182   4.859   4.696   7.135  1.0160  1.0741 -0.8223
  387ccc     O411183   4.772   4.583   7.393 -0.0317 -0.0625  0.0068
  387ccc     C611184   4.781   4.724   7.631  0.2472 -0.2360 -0.0573
  387ccc     H611185   4.858   4.600   7.121  2.5158  1.3775 -3.7789
  387ccc     H711186   4.694   4.577   7.335 -1.0129 -1.6839  1.4115
  387ccc     H811187   5.168   4.529   7.189 -1.2674 -0.1489  1.1460
  387ccc     H911188   4.768   4.615   7.638 -1.1225 -0.0669  0.2630
  387ccc    H1011189   4.685   4.765   7.598  0.9346  2.3524  0.9098
  387ccc     O511190   4.842   4.793   7.739  0.3624  0.1483  0.6150
  387ccc    H1111191   4.866   4.883   7.713  0.5775 -0.5230 -1.7900
  387ccc     O611192   5.014   4.695   7.538  0.0278  0.1047  0.1406
  388ccc     C111193   4.725   5.305   7.995  0.7341 -0.2046  0.2941
  388ccc     C211194   4.580   5.260   7.974 -0.1777  0.9215 -0.0323
  388ccc     H111195   4.739   5.399   7.940 -2.9008  1.3509  1.7534
  388ccc     H211196   4.505   5.337   7.995 -2.0634 -0.7125 -0.4331
  388ccc     C311197   4.547   5.207   7.832 -1.2866  0.7452 -0.1366
  388ccc     C411198   4.659   5.109   7.785  0.3432 -0.2440  0.4924
  388ccc     C511199   4.802   5.171   7.808 -0.0530  0.2973 -0.5761
  388ccc     H311200   4.658   5.019   7.847 -0.7955 -0.2155  0.5342
  388ccc     H411201   4.561   5.293   7.764  0.8549  0.4812 -0.0739
  388ccc     H511202   4.827   5.252   7.738  2.2097 -0.5482 -0.8234
  388ccc     O111203   4.896   5.060   7.776  0.2472 -0.3556  0.6250
  388ccc     O211204   4.626   5.075   7.643 -0.2172  0.1299 -0.4299
  388ccc     O311205   4.415   5.152   7.834  1.5056 -0.3687 -0.4135
  388ccc     O411206   4.549   5.152   8.067 -0.1982  0.1035  0.0678
  388ccc     C611207   4.749   5.330   8.143 -0.2779  0.1800  0.7458
  388ccc     H611208   4.368   5.195   7.760  1.1166 -0.8167 -0.4299
  388ccc     H711209   4.479   5.113   8.012  0.3472  0.7986 -1.1736
  388ccc     H811210   4.569   4.997   7.654  0.0020 -0.4010 -2.5059
  388ccc     H911211   4.768   5.236   8.195 -0.1518 -0.0056  0.3681
  388ccc    H1011212   4.666   5.386   8.188  0.6106  1.5972  0.7220
  388ccc     O511213   4.861   5.421   8.158  0.0931 -0.6612 -0.0175
  388ccc    H1111214   4.829   5.473   8.234 -2.6701 -1.8386 -0.2866
  388ccc     O611215   4.814   5.211   7.945  0.7212  0.1821 -0.0604
  389ccc     C111216   6.572   5.394   6.903  0.8058  0.2949 -0.6905
  389ccc     C211217   6.714   5.337   6.908 -0.0517 -0.3998 -0.2074
  389ccc     H111218   6.551   5.429   7.005  0.7411  0.4058 -0.7412
  389ccc     H211219   6.781   5.422   6.927 -0.4208  0.2051 -1.5636
  389ccc     C311220   6.724   5.236   7.025 -0.5440 -0.0967  1.1594
  389ccc     C411221   6.614   5.129   7.008  0.9680  0.2751 -0.6328
  389ccc     C511222   6.471   5.188   6.991 -0.1993 -0.2419 -0.0977
  389ccc     H311223   6.642   5.073   6.918  1.1803  0.6521 -0.8016
  389ccc     H411224   6.711   5.292   7.118 -2.1057  0.1655  0.8031
  389ccc     H511225   6.443   5.227   7.090  0.9912  1.5697 -0.4268
  389ccc     O111226   6.385   5.085   6.953  0.5769 -0.6204  0.4140
  389ccc     O211227   6.620   5.052   7.133 -0.2754 -0.6645 -0.4506
  389ccc     O311228   6.862   5.177   7.023 -0.5841  0.1275 -0.2071
  389ccc     O411229   6.743   5.268   6.779  0.1620  0.4772  0.9771
  389ccc     C611230   6.541   5.509   6.803 -0.4945 -0.3273  0.4204
  389ccc     H611231   6.871   5.144   6.932  1.2507 -2.8435  0.9278
  389ccc     H711232   6.681   5.312   6.718  3.6324 -0.5108 -3.9056
  389ccc     H811233   6.544   4.993   7.133 -0.0025 -1.0264  0.2186
  389ccc     H911234   6.579   5.602   6.847 -0.3020  0.3786 -1.1665
  389ccc    H1011235   6.435   5.532   6.783  0.3201  1.1733 -3.0172
  389ccc     O511236   6.610   5.472   6.674 -0.4197  0.0964  0.0541
  389ccc    H1111237   6.609   5.562   6.637 -2.0083  0.1031  0.0096
  389ccc     O611238   6.480   5.285   6.884 -0.2650  0.5985  0.5960
  390ccc     C111239   6.091   4.286   6.190 -0.6412  0.0936  0.3749
  390ccc     C211240   6.130   4.144   6.218  0.0862  0.3250 -0.1839
  390ccc     H111241   6.166   4.335   6.127 -2.0989  1.8019 -0.0972
  390ccc     H211242   6.148   4.085   6.127 -0.8236  0.0347 -0.1850
  390ccc     C311243   6.264   4.142   6.305  0.0032  0.3758 -0.3794
  390ccc     C411244   6.244   4.222   6.430 -0.5229  0.2158 -0.0838
  390ccc     C511245   6.186   4.365   6.401  0.5459  0.6625  0.2546
  390ccc     H311246   6.173   4.173   6.497  1.0980 -2.3102 -0.0952
  390ccc     H411247   6.331   4.198   6.238  0.6364 -0.2654 -0.2951
  390ccc     H511248   6.265   4.431   6.364  1.4155 -0.2431  0.4554
  390ccc     O111249   6.152   4.435   6.525 -0.3135  0.1509 -0.6027
  390ccc     O211250   6.376   4.228   6.500  0.0945 -0.1982 -0.3055
  390ccc     O311251   6.321   4.015   6.322  0.0007  0.5611  0.3510
  390ccc     O411252   6.025   4.068   6.276  0.1992  0.0110 -0.3749
  390ccc     C611253   5.958   4.289   6.110  0.4734  0.1314 -0.0534
  390ccc     H611254   6.411   4.021   6.360 -0.2307  0.8195  0.8631
  390ccc     H711255   6.052   3.975   6.266  0.0257  0.1781 -3.0467
  390ccc     H811256   6.435   4.283   6.444  0.0276 -0.0523 -0.2335
  390ccc     H911257   5.868   4.254   6.162 -1.6202 -3.1396 -5.0768
  390ccc    H1011258   5.964   4.222   6.024 -0.8199  0.3160 -0.3068
  390ccc     O511259   5.915   4.417   6.067  0.5579 -0.0618  0.0002
  390ccc    H1111260   5.860   4.450   6.139  0.2444 -0.4907 -0.0388
  390ccc     O611261   6.071   4.361   6.311  0.3807  0.1725  0.7753
  391ccc     C111262   7.219   6.003  11.054  0.2637  0.0604 -1.1567
  391ccc     C211263   7.154   5.983  11.192  0.2252 -0.2617 -0.3186
  391ccc     H111264   7.146   5.974  10.978  0.3401  0.8567 -1.5399
  391ccc     H211265   7.058   6.036  11.197  0.6030  0.8225 -3.0130
  391ccc     C311266   7.135   5.830  11.210 -0.0034  0.1034 -0.9404
  391ccc     C411267   7.266   5.746  11.200  0.4346  0.6213 -0.0084
  391ccc     C511268   7.327   5.774  11.059 -0.5809  0.0717 -0.3604
  391ccc     H311269   7.338   5.787  11.273  0.8986 -0.4510  0.1467
  391ccc     H411270   7.060   5.784  11.144 -1.5026 -1.6859  1.8250
  391ccc     H511271   7.266   5.730  10.980  1.4033 -4.3292  0.2878
  391ccc     O111272   7.458   5.715  11.051 -0.0849 -0.1431  0.3783
  391ccc     O211273   7.225   5.606  11.246 -0.1913  0.3487  0.2898
  391ccc     O311274   7.079   5.800  11.345 -0.5465 -0.2006  0.8203
  391ccc     O411275   7.243   6.026  11.294 -0.0886 -0.2373 -0.0441
  391ccc     C611276   7.267   6.148  11.022 -0.1601  0.0218 -0.2090
  391ccc     H611277   7.018   5.876  11.355  0.0092  0.4692 -0.5196
  391ccc     H711278   7.297   6.093  11.248 -0.6426 -0.1050 -0.5200
  391ccc     H811279   7.154   5.624  11.310  0.6416  1.3925  0.9489
  391ccc     H911280   7.179   6.213  11.011 -0.1803 -0.1391 -1.0151
  391ccc    H1011281   7.314   6.157  10.923 -2.1925 -0.2175 -1.2373
  391ccc     O511282   7.354   6.189  11.128  0.1936 -0.2801 -0.2167
  391ccc    H1111283   7.373   6.282  11.107  0.8588 -0.4409 -0.3518
  391ccc     O611284   7.337   5.915  11.047  0.1055 -0.3538 -0.2136
  392ccc     C111285   8.085   6.319  10.522 -0.4542 -0.2835  0.7571
  392ccc     C211286   8.260   6.330  10.416  0.4277 -0.3887 -0.6335
  392ccc     H111287   8.110   6.346  10.625  0.5349 -1.6024  0.8890
  392ccc     H211288   8.335   6.380  10.479  1.1887 -0.2138 -1.6504
  392ccc     C311289   8.342   6.160  10.350 -0.1681  0.1390  0.5168
  392ccc     C411290   8.246   5.984  10.369  0.2968 -0.4403 -0.0809
  392ccc     C511291   8.073   5.976  10.482 -0.0153 -0.4297  0.0420
  392ccc     H311292   8.216   5.946  10.271 -0.2069 -4.7676  1.5272
  392ccc     H411293   8.440   6.143  10.395  1.1587  0.0136 -2.2222
  392ccc     H511294   8.114   5.921  10.567  0.1327  0.2103  0.3898
  392ccc     O111295   7.975   5.883  10.443  0.2466  0.5048 -0.3046
  392ccc     O211296   8.344   5.883  10.415 -0.9324 -0.5072  0.0679
  392ccc     O311297   8.388   6.185  10.212 -0.2446 -0.3155 -0.0649
  392ccc     O411298   8.241   6.430  10.312  0.4624  0.3625  0.0442
  392ccc     C611299   7.984   6.433  10.494  0.2694 -0.0385  0.0991
  392ccc     H611300   8.438   6.267  10.225 -0.6353 -0.3865  2.5083
  392ccc     H711301   8.331   6.432  10.275  0.7363 -0.9767  0.5740
  392ccc     H811302   8.294   5.814  10.463 -0.5147 -0.2325  0.9035
  392ccc     H911303   7.955   6.438  10.389  0.0864  0.7295  0.1865
  392ccc    H1011304   8.019   6.530  10.531  1.9969 -0.7129  0.3429
  392ccc     O511305   7.879   6.390  10.576  0.5354 -0.1648  0.1511
  392ccc    H1111306   7.907   6.297  10.574  2.3729  0.3620 -0.4937
  392ccc     O611307   8.000   6.145  10.533  0.2803 -0.0721 -0.5833
  393ccc     C111308   6.652   4.156  10.887  0.4244  0.2906  0.1998
  393ccc     C211309   6.682   4.168  11.032  0.1029  0.4647 -0.8488
  393ccc     H111310   6.631   4.053  10.857  1.9960 -0.6892  2.1919
  393ccc     H211311   6.605   4.106  11.080  0.5434  1.0347  0.6456
  393ccc     C311312   6.829   4.127  11.070  0.1929  0.2936 -0.2417
  393ccc     C411313   6.934   4.203  10.987  0.0282 -0.6926 -0.2151
  393ccc     C511314   6.903   4.177  10.835  0.2124  0.0377  0.1912
  393ccc     H311315   6.925   4.310  11.009 -1.7536 -0.2979 -2.4668
  393ccc     H411316   6.846   4.025  11.035  1.0363  0.1173  0.6493
  393ccc     H511317   6.913   4.070  10.815  2.3148  0.6322 -2.6349
  393ccc     O111318   6.989   4.250  10.742  0.4584  0.8621 -0.0168
  393ccc     O211319   7.061   4.151  11.024  0.6310 -0.2887 -0.1226
  393ccc     O311320   6.856   4.140  11.212 -0.4304 -0.1372 -0.2245
  393ccc     O411321   6.663   4.309  11.074  0.3161  0.2091 -0.0438
  393ccc     C611322   6.521   4.233  10.847 -0.0050  0.0286 -0.4971
  393ccc     H611323   6.819   4.226  11.238 -0.5749 -0.9030  2.3846
  393ccc     H711324   6.605   4.342  11.004 -0.0351 -2.2166 -1.0068
  393ccc     H811325   7.073   4.181  11.116 -0.4654  1.8038 -0.6016
  393ccc     H911326   6.433   4.182  10.888  1.1969 -0.6257  1.4223
  393ccc    H1011327   6.506   4.224  10.739 -1.3828  0.9291 -0.3943
  393ccc     O511328   6.519   4.373  10.878  0.2147  0.0172  0.2526
  393ccc    H1111329   6.555   4.415  10.798 -0.3460  1.0278  0.5189
  393ccc     O611330   6.766   4.217  10.813  0.3948 -0.4182  0.0152
  394ccc     C111331   7.873   4.065  10.527  0.0744  0.0718 -0.0944
  394ccc     C211332   7.972   4.133  10.423  0.4517 -0.2149  0.1677
  394ccc     H111333   7.820   3.981  10.481 -0.9229  0.0427  1.0757
  394ccc     H211334   8.048   4.058  10.397  2.1822  0.6796  2.3468
  394ccc     C311335   7.891   4.178  10.301  0.4203  0.4951  0.0870
  394ccc     C411336   7.761   4.251  10.338 -0.3629 -0.6762 -0.2606
  394ccc     C511337   7.680   4.204  10.461 -0.3219 -0.5158  0.7829
  394ccc     H311338   7.787   4.351  10.375 -3.5633 -0.3336  1.4976
  394ccc     H411339   7.864   4.090  10.242 -2.7831  1.5002 -0.1518
  394ccc     H511340   7.632   4.108  10.440  2.1046 -1.3754 -1.4159
  394ccc     O111341   7.603   4.317  10.510  0.1009  0.5389  0.7032
  394ccc     O211342   7.692   4.264  10.213  0.4808  0.0389 -0.3964
  394ccc     O311343   7.981   4.256  10.217 -0.0053  0.0225  0.0033
  394ccc     O411344   8.046   4.243  10.476  0.0199 -0.4694  0.1623
  394ccc     C611345   7.948   4.017  10.659  0.6749 -0.0203 -0.0706
  394ccc     H611346   7.999   4.341  10.261 -0.8488  0.5683 -0.6951
  394ccc     H711347   8.128   4.240  10.423 -1.1401  1.0478 -1.8840
  394ccc     H811348   7.741   4.328  10.159 -0.8527  1.5506  0.1109
  394ccc     H911349   7.976   4.106  10.716  0.0740  0.1960 -0.1099
  394ccc    H1011350   8.039   3.960  10.637  0.2178 -1.1236  0.7671
  394ccc     O511351   7.854   3.940  10.737 -0.6045 -0.6603  0.1423
  394ccc    H1111352   7.837   3.996  10.815 -3.4848  0.2615 -0.9968
  394ccc     O611353   7.773   4.162  10.564 -0.6977 -0.0241 -0.1642
  395ccc     C111354   6.388   5.694   8.893 -0.5256  0.1336 -0.0248
  395ccc     C211355   6.419   5.559   8.837  0.4214  0.1427  0.3280
  395ccc     H111356   6.416   5.682   8.999 -0.1584 -0.4510 -0.1869
  395ccc     H211357   6.517   5.526   8.873  0.5118 -0.7146 -0.6450
  395ccc     C311358   6.313   5.453   8.880 -0.6957  0.2580 -0.6222
  395ccc     C411359   6.171   5.508   8.860 -0.6101  0.0477 -0.7587
  395ccc     C511360   6.148   5.649   8.907 -0.7338 -0.7312  0.1708
  395ccc     H311361   6.159   5.519   8.752  2.0548  1.2777 -1.0143
  395ccc     H411362   6.316   5.438   8.988 -1.0504 -1.5548 -0.8422
  395ccc     H511363   6.124   5.644   9.014 -1.2749 -1.0240  0.0402
  395ccc     O111364   6.033   5.688   8.841  0.4891  0.3357 -0.0115
  395ccc     O211365   6.080   5.415   8.914  0.4991 -0.4747 -0.1721
  395ccc     O311366   6.351   5.336   8.799  0.1444 -0.0448  0.4518
  395ccc     O411367   6.412   5.566   8.695 -0.3392  0.1706  0.1003
  395ccc     C611368   6.477   5.805   8.846 -0.3127 -0.7394 -0.2773
  395ccc     H611369   6.372   5.377   8.713 -1.2417 -0.1400  0.0474
  395ccc     H711370   6.424   5.662   8.687 -0.1885  0.1949  0.5912
  395ccc     H811371   6.099   5.337   8.859  1.4177 -1.1718  1.0826
  395ccc     H911372   6.572   5.771   8.888 -1.3519 -3.7944 -0.1295
  395ccc    H1011373   6.439   5.894   8.898 -0.6619 -0.4227 -1.0581
  395ccc     O511374   6.488   5.816   8.705 -0.2391  0.2470 -0.3484
  395ccc    H1111375   6.546   5.892   8.692 -1.1794  0.6855 -2.3552
  395ccc     O611376   6.256   5.739   8.865 -0.5212 -0.0173 -0.0581
  396ccc     C111377   6.456   6.567   9.257  0.7227 -0.2139 -0.4428
  396ccc     C211378   6.595   6.500   9.281  0.3071  0.6487  0.4617
  396ccc     H111379   6.415   6.571   9.359  1.7013  2.1696 -0.0860
  396ccc     H211380   6.665   6.554   9.346  2.8569 -2.3383  0.3686
  396ccc     C311381   6.574   6.348   9.339 -0.7499 -0.1153 -0.5780
  396ccc     C411382   6.471   6.274   9.253 -0.3755 -0.2518 -0.2868
  396ccc     C511383   6.341   6.357   9.235  0.1468  0.2756 -0.7239
  396ccc     H311384   6.509   6.263   9.151 -2.2389  2.3766 -1.3671
  396ccc     H411385   6.542   6.357   9.443 -0.7278  0.9757 -0.6526
  396ccc     H511386   6.294   6.368   9.333  1.7667  0.1712  0.0965
  396ccc     O111387   6.255   6.276   9.144  0.1829 -0.4311 -0.3026
  396ccc     O211388   6.447   6.146   9.313  0.3782  0.4130 -0.1945
  396ccc     O311389   6.696   6.266   9.344 -0.6754  0.0308 -0.3244
  396ccc     O411390   6.660   6.490   9.156 -0.2941 -0.1650 -0.0121
  396ccc     C611391   6.453   6.705   9.202 -0.2562  0.0426 -0.0853
  396ccc     H611392   6.759   6.289   9.274 -0.7124  1.9182  0.1944
  396ccc     H711393   6.752   6.461   9.171 -0.0010 -0.0955 -1.5385
  396ccc     H811394   6.435   6.088   9.235  0.3047  0.3557 -0.1409
  396ccc     H911395   6.480   6.783   9.275 -1.1498  0.0338  0.2601
  396ccc    H1011396   6.347   6.716   9.176  0.0255  0.8934 -0.9364
  396ccc     O511397   6.537   6.714   9.094 -0.3208  0.0539  0.2814
  396ccc    H1111398   6.557   6.621   9.078 -0.5479  0.1554 -0.6324
  396ccc     O611399   6.366   6.483   9.176 -0.2220 -0.0443  0.3692
  397ccc     C111400   5.548   5.481   9.139  0.3478 -0.9068 -0.2232
  397ccc     C211401   5.554   5.358   9.047  0.3143  0.8247 -0.0945
  397ccc     H111402   5.639   5.485   9.200 -0.8831  4.4591  1.7833
  397ccc     H211403   5.650   5.344   8.994 -0.3735 -0.4276 -1.0846
  397ccc     C311404   5.537   5.230   9.125  0.2579 -0.2283 -0.2746
  397ccc     C411405   5.424   5.237   9.234  0.0230 -0.3342  0.6726
  397ccc     C511406   5.436   5.364   9.316 -0.2875  0.1118 -0.0999
  397ccc     H311407   5.334   5.246   9.172  2.4558  1.4813 -2.9908
  397ccc     H411408   5.625   5.195   9.180 -0.4870 -1.2419  0.3188
  397ccc     H511409   5.532   5.353   9.369 -1.3636  0.2698  2.0024
  397ccc     O111410   5.323   5.385   9.402 -0.2577 -0.3556 -0.0094
  397ccc     O211411   5.430   5.117   9.309  0.2568 -0.4479  0.6766
  397ccc     O311412   5.509   5.118   9.028  0.4991  0.3233  0.2013
  397ccc     O411413   5.438   5.353   8.962  0.3561  0.1982 -0.4138
  397ccc     C611414   5.543   5.616   9.061 -0.7877  0.2856 -0.4066
  397ccc     H611415   5.584   5.107   8.967  0.0679 -0.1588 -0.2551
  397ccc     H711416   5.432   5.258   8.940 -1.7167  0.0596  0.5177
  397ccc     H811417   5.357   5.114   9.374 -0.8374  1.0732 -0.4076
  397ccc     H911418   5.626   5.640   8.994 -2.1918  3.6827 -1.1315
  397ccc    H1011419   5.530   5.701   9.129  0.2985  0.8528 -0.8787
  397ccc     O511420   5.438   5.609   8.979  0.0161  0.2324  0.2422
  397ccc    H1111421   5.418   5.513   8.978  0.0845  0.2137 -1.3667
  397ccc     O611422   5.430   5.475   9.219  0.1053  0.0916  0.0202
  398ccc     C111423   5.422   4.859   8.847 -0.1988  0.7996 -0.7797
  398ccc     C211424   5.537   4.757   8.869 -0.1528 -0.9650 -0.1530
  398ccc     H111425   5.469   4.958   8.836  1.6586 -0.2313 -2.8964
  398ccc     H211426   5.624   4.790   8.811 -0.9340  0.7336 -0.4493
  398ccc     C311427   5.584   4.753   9.013 -0.4951  0.3719  0.4134
  398ccc     C411428   5.467   4.735   9.109  0.1123  0.7402 -0.0595
  398ccc     C511429   5.347   4.834   9.092 -0.4557 -0.1112  0.1427
  398ccc     H311430   5.432   4.632   9.090  1.9768 -0.2353  1.3949
  398ccc     H411431   5.623   4.854   9.030 -0.5969  0.6728 -0.9883
  398ccc     H511432   5.380   4.932   9.127 -0.5018 -0.3976  1.0198
  398ccc     O111433   5.229   4.781   9.164 -0.6696  0.1583  0.4023
  398ccc     O211434   5.520   4.730   9.238 -0.3065 -0.4035  0.2075
  398ccc     O311435   5.700   4.662   9.028  0.2233 -0.2795 -0.0356
  398ccc     O411436   5.491   4.625   8.836  0.6985  0.6557  0.2081
  398ccc     C611437   5.357   4.834   8.712 -0.2657 -0.3978 -0.0494
  398ccc     H611438   5.656   4.576   9.036  0.2049 -0.1941  0.8845
  398ccc     H711439   5.574   4.582   8.808  1.0745  0.6863  1.2284
  398ccc     H811440   5.560   4.818   9.251 -1.1809  0.2174 -1.0603
  398ccc     H911441   5.290   4.747   8.714 -1.4990  0.5387  1.0678
  398ccc    H1011442   5.439   4.829   8.639  0.9421  2.5621  0.9578
  398ccc     O511443   5.283   4.950   8.673 -0.2938  0.1167 -0.0691
  398ccc    H1111444   5.212   4.966   8.738 -0.5887  1.2132 -0.6446
  398ccc     O611445   5.316   4.837   8.949  0.4040  0.0936  0.1659
  399ccc     C111446  10.315   6.524   7.747  0.4292 -0.5651  0.3116
  399ccc     C211447  10.247   6.391   7.696 -0.2893  0.0103  0.3643
  399ccc     H111448  10.400   6.492   7.809 -0.3677  0.0414  1.7622
  399ccc     H211449  10.321   6.330   7.642  2.0800  0.6153  2.6802
  399ccc     C311450  10.195   6.308   7.816 -0.2259 -0.2164 -0.0014
  399ccc     C411451  10.103   6.390   7.904 -0.0387  0.2069  0.0249
  399ccc     C511452  10.165   6.523   7.941  0.4594  0.3362 -0.5014
  399ccc     H311453  10.017   6.417   7.842 -0.9447 -0.7194  0.8285
  399ccc     H411454  10.282   6.288   7.881 -0.2701 -3.1262 -0.7032
  399ccc     H511455  10.235   6.511   8.024  1.0641  1.5917 -0.8164
  399ccc     O111456  10.057   6.605   7.999 -0.1437 -0.0034 -0.3086
  399ccc     O211457  10.053   6.320   8.021  0.3009  0.0107 -0.5465
  399ccc     O311458  10.130   6.186   7.786 -0.5441 -0.0525  0.1585
  399ccc     O411459  10.141   6.432   7.603  0.4790  0.0428 -0.0930
  399ccc     C611460  10.368   6.621   7.639 -0.4180  0.5849  0.1259
  399ccc     H611461  10.102   6.161   7.876 -0.3466 -1.1462 -0.0770
  399ccc     H711462  10.085   6.354   7.582 -1.0285  0.4227  2.1807
  399ccc     H811463   9.970   6.363   8.048 -0.1867 -0.9557 -0.4831
  399ccc     H911464  10.460   6.573   7.602  0.6836  1.9338  1.0205
  399ccc    H1011465  10.417   6.710   7.679  2.2564 -0.2121 -1.1149
  399ccc     O511466  10.272   6.646   7.533 -0.0086 -0.3646  0.2365
  399ccc    H1111467  10.208   6.575   7.549 -1.0638  0.2837 -0.8437
  399ccc     O611468  10.219   6.595   7.829  0.8392 -0.7484 -0.1527
  400ccc     C111469   9.527   7.328   8.782  0.1596  0.3907  0.0474
  400ccc     C211470   9.629   7.433   8.740 -0.6884  0.4197 -0.1854
  400ccc     H111471   9.542   7.321   8.891 -0.9553 -2.0314  0.1272
  400ccc     H211472   9.605   7.517   8.805 -0.3455 -0.2506  0.8252
  400ccc     C311473   9.772   7.378   8.766  0.6358 -0.4287  0.3821
  400ccc     C411474   9.789   7.241   8.695  0.5452  0.5575 -0.0129
  400ccc     C511475   9.677   7.138   8.743 -0.3980 -0.9633 -0.5516
  400ccc     H311476   9.775   7.261   8.588  0.5764 -1.1166 -0.3583
  400ccc     H411477   9.780   7.365   8.875  2.1341 -0.3804  0.3024
  400ccc     H511478   9.703   7.111   8.845  1.1984 -1.2158 -1.0046
  400ccc     O111479   9.692   7.015   8.667  0.4899  0.0425  0.0456
  400ccc     O211480   9.914   7.194   8.741 -0.4343  0.2932 -0.2425
  400ccc     O311481   9.868   7.476   8.726 -0.2622  0.5511 -0.1949
  400ccc     O411482   9.611   7.466   8.602  0.0230  0.3757 -0.0315
  400ccc     C611483   9.380   7.363   8.750  0.6501 -0.2040 -0.0333
  400ccc     H611484   9.878   7.456   8.631  0.7783 -3.0950  0.5267
  400ccc     H711485   9.639   7.558   8.586  0.5001  0.1636 -0.4813
  400ccc     H811486   9.961   7.155   8.665 -0.9857 -0.1917 -0.3383
  400ccc     H911487   9.370   7.462   8.795  0.4363  0.0599 -0.6555
  400ccc    H1011488   9.310   7.299   8.805  1.4331  0.1183  1.3929
  400ccc     O511489   9.367   7.389   8.612 -0.0574  0.5090  0.0203
  400ccc    H1111490   9.459   7.416   8.599 -0.0113 -0.0826 -0.9620
  400ccc     O611491   9.550   7.196   8.723  0.0260  0.1433 -0.2493
  401ccc     C111492   8.748   5.182   7.177 -0.2184  0.8872 -0.1601
  401ccc     C211493   8.816   5.105   7.059 -0.6202 -0.9121 -0.4209
  401ccc     H111494   8.661   5.224   7.126  0.8698  0.3539 -2.5680
  401ccc     H211495   8.738   5.058   6.997 -1.1510 -1.2245  0.4659
  401ccc     C311496   8.901   5.205   6.974  0.3546 -0.1395  0.0613
  401ccc     C411497   8.989   5.305   7.051 -0.0669  0.3525  0.0541
  401ccc     C511498   8.912   5.373   7.171  0.0184  0.0376  0.5068
  401ccc     H311499   9.070   5.254   7.106  0.3748 -1.8452 -2.4430
  401ccc     H411500   8.833   5.278   6.928 -0.7594 -0.1306  1.6588
  401ccc     H511501   8.846   5.450   7.129 -0.0989 -0.5040 -0.3168
  401ccc     O111502   9.011   5.449   7.255  0.2852  0.0735 -0.0419
  401ccc     O211503   9.041   5.406   6.954  0.1976  0.4377  0.2915
  401ccc     O311504   8.988   5.141   6.881 -0.4782  0.2353  0.1930
  401ccc     O411505   8.911   5.015   7.113  0.1143  0.2057  0.2602
  401ccc     C611506   8.700   5.086   7.293  0.1188  0.1934  0.2082
  401ccc     H611507   8.931   5.097   6.817 -0.7461 -0.6677  1.0291
  401ccc     H711508   8.967   4.998   7.036 -0.0476  1.6268 -0.2141
  401ccc     H811509   9.073   5.346   6.883 -1.1100 -0.6627  0.5795
  401ccc     H911510   8.768   5.085   7.380 -0.2755  0.9949  0.5392
  401ccc    H1011511   8.676   4.992   7.243  2.5263 -0.0411 -0.6373
  401ccc     O511512   8.577   5.144   7.342  0.1234  0.3817  0.6338
  401ccc    H1111513   8.559   5.094   7.424  2.0667  0.3102  1.0836
  401ccc     O611514   8.840   5.271   7.248  0.0559 -0.3536 -0.1992
  402ccc     C111515   9.219   6.395   7.305  0.2888  0.1084  0.4524
  402ccc     C211516   9.347   6.473   7.260  0.0459 -0.2778  0.2140
  402ccc     H111517   9.173   6.443   7.392  0.5477  0.5089  0.3725
  402ccc     H211518   9.326   6.578   7.235 -0.0851 -0.6261 -1.2267
  402ccc     C311519   9.453   6.476   7.381 -0.0862 -0.1580  0.9362
  402ccc     C411520   9.485   6.331   7.413 -0.1629  0.2231 -0.6473
  402ccc     C511521   9.360   6.256   7.451 -0.1975  0.2398 -0.7247
  402ccc     H311522   9.529   6.283   7.325 -0.7429 -1.1538 -0.2241
  402ccc     H411523   9.411   6.518   7.473 -2.9352  0.7094 -0.6466
  402ccc     H511524   9.314   6.318   7.528 -0.5599  1.9386 -2.2321
  402ccc     O111525   9.388   6.116   7.490  0.1017 -0.3805  0.2194
  402ccc     O211526   9.574   6.345   7.521  0.0707  0.1706  0.0696
  402ccc     O311527   9.575   6.542   7.340  0.3240  0.7339  0.2430
  402ccc     O411528   9.395   6.401   7.144  0.0254  0.0460 -0.2601
  402ccc     C611529   9.109   6.384   7.202  0.1567 -0.3986  0.0864
  402ccc     H611530   9.645   6.514   7.401  1.4691  0.2929 -1.2251
  402ccc     H711531   9.489   6.422   7.128 -0.7461  2.4876 -2.1309
  402ccc     H811532   9.572   6.259   7.566  1.7366  0.3353  0.4881
  402ccc     H911533   9.071   6.482   7.172  1.0677  1.1865  3.5245
  402ccc    H1011534   9.035   6.327   7.259  1.5464 -1.9050  0.4804
  402ccc     O511535   9.160   6.319   7.088  0.1272 -0.8410 -0.1749
  402ccc    H1111536   9.255   6.338   7.100  0.2971 -1.7121 -0.0441
  402ccc     O611537   9.267   6.266   7.341  0.3665  0.4684 -0.2140
  403ccc     C111538  10.608   5.019   8.227  0.2016  0.0379 -0.2966
  403ccc     C211539  10.561   5.051   8.078 -0.1257 -0.2275 -0.6201
  403ccc     H111540  10.584   4.916   8.256 -1.6194  0.7728  0.9813
  403ccc     H211541  10.621   4.983   8.016  1.4313 -0.1491  0.7360
  403ccc     C311542  10.407   5.026   8.072 -0.0098 -0.3818  0.7843
  403ccc     C411543  10.333   5.099   8.185 -0.1452  0.5027 -0.5060
  403ccc     C511544  10.398   5.078   8.325 -0.3597 -0.4887  0.6647
  403ccc     H311545  10.334   5.205   8.157  0.7807  0.5118 -0.4397
  403ccc     H411546  10.388   4.919   8.086 -1.1287 -0.4819 -1.1696
  403ccc     H511547  10.369   4.977   8.355 -1.8025  0.1582  1.5705
  403ccc     O111548  10.353   5.175   8.420  0.2445 -0.5659 -0.6074
  403ccc     O211549  10.193   5.062   8.181 -0.0267 -0.0748  0.1258
  403ccc     O311550  10.350   5.081   7.945 -0.5245  0.0707 -0.1506
  403ccc     O411551  10.594   5.190   8.040  0.3886  0.8150 -0.3872
  403ccc     C611552  10.758   5.032   8.245  0.1279  0.5842  0.2195
  403ccc     H611553  10.396   5.024   7.882  0.7965  0.6038  0.3001
  403ccc     H711554  10.680   5.187   8.086  0.7911  1.1342 -1.0963
  403ccc     H811555  10.168   5.087   8.090  1.0422 -1.4530 -0.5928
  403ccc     H911556  10.814   4.946   8.207 -0.1937  0.8993 -1.0357
  403ccc    H1011557  10.763   5.033   8.354 -3.0409  1.6034  0.4703
  403ccc     O511558  10.815   5.152   8.186  0.2617  0.0484 -0.1842
  403ccc    H1111559  10.910   5.134   8.192  0.1876 -0.1229  0.5524
  403ccc     O611560  10.538   5.099   8.321  0.6010  0.2779  0.1895
  404ccc     C111561   9.949   5.092   9.585  0.5548 -0.0528 -0.6813
  404ccc     C211562   9.962   5.244   9.609 -0.1167 -1.0910  0.1622
  404ccc     H111563  10.021   5.048   9.655 -0.6059 -0.3860  0.3356
  404ccc     H211564   9.940   5.274   9.712 -3.1657  1.4404 -1.0441
  404ccc     C311565  10.101   5.297   9.563  0.3684 -0.7501  0.8056
  404ccc     C411566  10.120   5.249   9.420 -0.3441 -0.0973 -0.5418
  404ccc     C511567  10.116   5.100   9.406 -0.2264  0.0455  0.0536
  404ccc     H311568  10.041   5.285   9.353 -1.4224 -0.8851  0.2775
  404ccc     H411569  10.185   5.269   9.628  0.7023 -1.2970  0.1531
  404ccc     H511570  10.196   5.047   9.460  1.1509  1.6244 -0.3409
  404ccc     O111571  10.118   5.058   9.269  0.0044 -0.2454  0.4085
  404ccc     O211572  10.254   5.302   9.380  0.5399  0.2367 -0.1597
  404ccc     O311573  10.096   5.437   9.581  0.0896  0.0293  0.8443
  404ccc     O411574   9.865   5.307   9.528  0.0374 -0.0173  0.5720
  404ccc     C611575   9.819   5.017   9.616  0.1797 -0.2314 -0.4298
  404ccc     H611576  10.175   5.463   9.532 -0.1306 -1.6872 -0.5435
  404ccc     H711577   9.902   5.398   9.529 -2.0743  0.9252  2.7290
  404ccc     H811578  10.238   5.376   9.318 -0.1851  0.4965  0.3254
  404ccc     H911579   9.789   5.050   9.716 -1.8203  0.8253 -1.3206
  404ccc    H1011580   9.840   4.909   9.626 -2.1560 -0.6727  0.1679
  404ccc     O511581   9.726   5.050   9.513  0.2908  0.6833  0.3848
  404ccc    H1111582   9.767   5.131   9.480 -1.8047  1.1136 -1.3877
  404ccc     O611583   9.979   5.056   9.448  0.2466  0.0777  0.0924
  405ccc     C111584   8.617   4.840   8.823 -0.1476  0.9768 -0.2050
  405ccc     C211585   8.514   4.886   8.930 -0.5581  0.2203 -0.3121
  405ccc     H111586   8.584   4.749   8.772 -0.5309  1.9435 -1.7549
  405ccc     H211587   8.420   4.895   8.875  0.1630 -1.5141 -1.9498
  405ccc     C311588   8.503   4.774   9.040 -0.6260 -0.6383  0.6560
  405ccc     C411589   8.643   4.738   9.094  0.7170  0.5482  0.2221
  405ccc     C511590   8.745   4.711   8.982 -0.3325  0.0227 -0.5423
  405ccc     H311591   8.679   4.828   9.145 -0.6275  0.8050  0.7551
  405ccc     H411592   8.465   4.686   8.988 -0.6401 -0.1903 -0.1144
  405ccc     H511593   8.732   4.610   8.941 -0.1152  1.0084 -3.2470
  405ccc     O111594   8.882   4.726   9.047  0.5434 -0.1170 -0.5653
  405ccc     O211595   8.626   4.620   9.181  0.3662 -0.1961 -0.0962
  405ccc     O311596   8.413   4.821   9.140 -0.1583 -0.3133  0.1600
  405ccc     O411597   8.558   5.022   8.963 -0.2052  0.8516 -0.1753
  405ccc     C611598   8.628   4.943   8.708  0.0105  0.3102 -0.4567
  405ccc     H611599   8.336   4.765   9.120  0.9024 -1.7394 -0.1396
  405ccc     H711600   8.541   5.021   9.058 -3.1902 -2.4589 -0.5635
  405ccc     H811601   8.563   4.654   9.247 -0.8301 -1.3774 -0.5764
  405ccc     H911602   8.700   5.014   8.751  0.1626  0.1081 -0.3753
  405ccc    H1011603   8.530   4.992   8.700 -0.3849 -0.5808 -1.0719
  405ccc     O511604   8.661   4.882   8.589 -0.3475  0.2270  0.3768
  405ccc    H1111605   8.758   4.886   8.591  0.1072 -4.1873 -0.9653
  405ccc     O611606   8.739   4.814   8.880  0.2688 -0.2110 -0.3829
  406ccc     C111607   8.636   4.112   8.417  0.7094  0.2255 -0.1189
  406ccc     C211608   8.736   4.023   8.347  0.4286 -0.2119  0.7626
  406ccc     H111609   8.542   4.092   8.365 -0.1790 -2.7515  2.3415
  406ccc     H211610   8.712   3.916   8.345 -0.6077  0.0235  0.2438
  406ccc     C311611   8.767   4.063   8.202  0.1653  0.1807 -0.8806
  406ccc     C411612   8.806   4.213   8.196  0.5546  0.6037 -0.7603
  406ccc     C511613   8.701   4.302   8.270 -0.7815 -0.8488 -0.2862
  406ccc     H311614   8.901   4.220   8.252 -0.1744 -2.8325  1.1862
  406ccc     H411615   8.673   4.057   8.146  0.2029 -0.1334 -0.9152
  406ccc     H511616   8.607   4.300   8.213 -0.5480 -1.5309 -0.6707
  406ccc     O111617   8.757   4.431   8.275 -0.3346  0.2925 -0.0109
  406ccc     O211618   8.825   4.245   8.064  0.4633 -0.5775 -0.0825
  406ccc     O311619   8.859   3.968   8.148  0.1621  0.6545  0.2716
  406ccc     O411620   8.852   4.038   8.419  0.2470  0.1009 -0.1853
  406ccc     C611621   8.610   4.065   8.565 -0.0043 -0.1174 -0.0323
  406ccc     H611622   8.873   3.988   8.054 -0.3682  1.8934  0.4386
  406ccc     H711623   8.823   4.078   8.503  0.9073  0.2539 -0.0189
  406ccc     H811624   8.895   4.313   8.059  0.3269 -0.5266 -2.0922
  406ccc     H911625   8.584   3.958   8.564 -1.6254  0.2565  0.3169
  406ccc    H1011626   8.518   4.107   8.606  0.1840  0.9348 -0.6459
  406ccc     O511627   8.724   4.087   8.647  0.3662 -0.2344 -0.3049
  406ccc    H1111628   8.695   4.059   8.735 -0.2036  0.5041 -0.2525
  406ccc     O611629   8.667   4.252   8.405 -0.5279  0.1755 -0.0408
  407ccc     C111630   7.859   4.404  10.819 -0.3437 -0.0840 -0.3065
  407ccc     C211631   8.005   4.428  10.877  0.1689  0.1833  0.2000
  407ccc     H111632   7.846   4.309  10.765 -1.2144 -0.0367 -0.1960
  407ccc     H211633   8.039   4.351  10.947  1.0349  0.9817  0.6827
  407ccc     C311634   8.104   4.443  10.758 -0.4542  0.0514 -0.1953
  407ccc     C411635   8.051   4.548  10.662 -0.0192  0.7937  0.3333
  407ccc     C511636   7.910   4.519  10.611  0.2995 -0.2289 -0.0189
  407ccc     H311637   8.049   4.644  10.714  2.8688  0.9621  0.2953
  407ccc     H411638   8.099   4.348  10.702  1.3203 -0.7920  0.9676
  407ccc     H511639   7.900   4.435  10.541 -1.3560  0.2031 -0.3582
  407ccc     O111640   7.868   4.642  10.545 -0.3847 -0.5880  0.1514
  407ccc     O211641   8.152   4.562  10.556  0.1994  0.0762 -0.4376
  407ccc     O311642   8.234   4.469  10.805  0.5824 -0.3271 -0.1062
  407ccc     O411643   8.003   4.548  10.958  0.0859 -0.1839  0.2542
  407ccc     C611644   7.750   4.398  10.928  0.1604 -0.6112  0.6999
  407ccc     H611645   8.289   4.498  10.730 -0.3849  0.1222 -0.6539
  407ccc     H711646   7.908   4.557  10.977 -0.1143  0.1730 -0.8450
  407ccc     H811647   8.163   4.658  10.547 -1.3113  0.2869 -0.2211
  407ccc     H911648   7.755   4.302  10.982  0.8338  0.0601  1.8830
  407ccc    H1011649   7.659   4.407  10.867  1.4640  4.6311 -0.9632
  407ccc     O511650   7.755   4.503  11.020 -0.0745  0.0614  0.4112
  407ccc    H1111651   7.695   4.479  11.093 -0.4801  1.7855  0.6969
  407ccc     O611652   7.825   4.508  10.723  0.2786  0.1810 -0.0840
  408ccc     C111653   7.001   5.268  10.618 -0.5963 -0.2811 -0.3716
  408ccc     C211654   7.000   5.371  10.743 -0.4445  1.0870  0.3430
  408ccc     H111655   6.998   5.167  10.661 -2.7640  0.0321  0.3411
  408ccc     H211656   6.917   5.365  10.814 -1.2495 -1.4203 -0.7182
  408ccc     C311657   7.128   5.351  10.830 -0.0235 -0.0466  0.1641
  408ccc     C411658   7.254   5.346  10.742 -0.2770 -0.6562 -0.1379
  408ccc     C511659   7.242   5.245  10.626  0.0962  0.1808 -0.1973
  408ccc     H311660   7.265   5.449  10.707 -0.2632 -0.7193 -0.3205
  408ccc     H411661   7.114   5.256  10.882 -1.3751  0.4452  0.7314
  408ccc     H511662   7.241   5.145  10.670 -0.5539  0.7324  1.0895
  408ccc     O111663   7.354   5.251  10.544 -0.0048  0.1284 -0.2247
  408ccc     O211664   7.364   5.315  10.831  0.3811 -0.0851  0.1382
  408ccc     O311665   7.152   5.450  10.930  1.0364  0.3919  0.9287
  408ccc     O411666   7.000   5.504  10.685  0.0849 -0.2862 -0.4605
  408ccc     C611667   6.884   5.276  10.530 -0.2046  0.6715 -0.0845
  408ccc     H611668   7.234   5.426  10.976  0.1638 -2.7797  1.1265
  408ccc     H711669   6.957   5.559  10.752 -0.5178 -0.2285 -0.8858
  408ccc     H811670   7.442   5.341  10.779  1.2872  0.4694  1.7041
  408ccc     H911671   6.789   5.270  10.585  1.2422 -3.7870  2.5467
  408ccc    H1011672   6.891   5.185  10.469  1.1698  0.2689  0.6263
  408ccc     O511673   6.893   5.393  10.454 -0.0837 -0.0012 -0.3738
  408ccc    H1111674   6.933   5.451  10.522  0.4409  0.4982 -1.0892
  408ccc     O611675   7.126   5.273  10.542  0.2556 -0.2581 -0.2190
  409ccc     C111676   8.912   4.479  10.726 -0.1591 -0.8504  0.1894
  409ccc     C211677   8.892   4.362  10.624  0.0267 -0.3379 -0.1691
  409ccc     H111678   8.835   4.470  10.803 -0.2451  0.4654  0.2755
  409ccc     H211679   8.885   4.269  10.681  3.0530  0.6586  2.1537
  409ccc     C311680   8.761   4.367  10.542 -0.4085  0.0018 -0.1032
  409ccc     C411681   8.745   4.506  10.478  0.6907  0.4868  1.2368
  409ccc     C511682   8.776   4.623  10.570 -0.4573  0.5278  0.1030
  409ccc     H311683   8.819   4.510  10.397 -1.1691 -2.5699 -0.8329
  409ccc     H411684   8.674   4.357  10.609 -0.5541  1.9437  0.0828
  409ccc     H511685   8.705   4.652  10.648  0.9588 -0.2969  1.7494
  409ccc     O111686   8.804   4.742  10.490  0.4622 -0.4955 -0.3260
  409ccc     O211687   8.608   4.503  10.434 -0.2125  0.3597 -0.1665
  409ccc     O311688   8.751   4.252  10.455  0.2286  0.0365  0.0121
  409ccc     O411689   9.008   4.357  10.533  1.0461 -0.0513  0.2453
  409ccc     C611690   9.055   4.471  10.780 -0.3115  0.6132  0.2069
  409ccc     H611691   8.757   4.179  10.520  3.1464  0.0379 -0.1191
  409ccc     H711692   8.999   4.271  10.487  0.9267 -0.1107  0.3754
  409ccc     H811693   8.612   4.507  10.337 -1.4363 -0.6318 -0.2871
  409ccc     H911694   9.122   4.522  10.710 -0.7014 -1.4747 -1.7693
  409ccc    H1011695   9.085   4.367  10.792  2.2282  1.3772  1.1450
  409ccc     O511696   9.053   4.531  10.910  0.2024 -0.0243 -0.1487
  409ccc    H1111697   9.070   4.621  10.876  0.4573  0.0882  0.2689
  409ccc     O611698   8.900   4.603  10.649  0.1183 -0.0358 -0.0242
  410ccc     C111699   9.289   5.048  11.223  0.0163  0.1828  0.2942
  410ccc     C211700   9.163   4.963  11.255 -0.0715 -0.2056  0.0861
  410ccc     H111701   9.303   5.135  11.288  1.4215  0.1233  0.1073
  410ccc     H211702   9.179   4.918  11.353 -1.0072 -0.8114 -0.0199
  410ccc     C311703   9.041   5.058  11.248 -0.3470 -0.4897 -0.6635
  410ccc     C411704   9.033   5.142  11.121  0.1391 -0.1025  0.2698
  410ccc     C511705   9.177   5.201  11.071  0.6985  0.0515 -0.2367
  410ccc     H311706   8.996   5.082  11.037 -1.0543  0.8792  0.0594
  410ccc     H411707   9.047   5.131  11.330 -0.4542 -0.3704 -0.7600
  410ccc     H511708   9.204   5.293  11.124  2.0139 -0.6041  0.2580
  410ccc     O111709   9.172   5.230  10.931  0.6951  0.2620  0.3024
  410ccc     O211710   8.948   5.256  11.151  0.2428  0.5509  0.1029
  410ccc     O311711   8.913   4.999  11.272  0.0266  0.0639 -0.7329
  410ccc     O411712   9.157   4.865  11.144  0.7193  0.0910  0.1815
  410ccc     C611713   9.428   4.973  11.232  0.1167 -0.4291  0.5814
  410ccc     H611714   8.850   5.072  11.286  2.7817  2.4403  0.0589
  410ccc     H711715   9.074   4.819  11.165  0.4002  1.4666  2.1758
  410ccc     H811716   8.921   5.292  11.065 -2.6797 -1.4339  0.0568
  410ccc     H911717   9.433   4.930  11.332 -0.8273  1.2475  1.3860
  410ccc    H1011718   9.508   5.045  11.214 -0.9882  0.1232 -2.9748
  410ccc     O511719   9.422   4.882  11.123  0.3164 -0.1966 -0.1383
  410ccc    H1111720   9.325   4.884  11.119  0.2559 -0.2473  1.0825
  410ccc     O611721   9.277   5.101  11.092  0.0929 -0.1198 -0.2972
  411ccc     C111722   8.303   4.383   7.736  0.2622  0.3259  0.6603
  411ccc     C211723   8.400   4.274   7.681 -0.3391  0.0652  0.7181
  411ccc     H111724   8.328   4.478   7.687 -1.3888 -0.2857 -1.5256
  411ccc     H211725   8.393   4.267   7.571  0.9821 -0.1520  0.6232
  411ccc     C311726   8.543   4.316   7.716 -0.1539 -0.3260 -0.1462
  411ccc     C411727   8.559   4.327   7.868 -0.0102  0.5356  0.0425
  411ccc     C511728   8.449   4.422   7.925  0.2426  0.3768  0.0949
  411ccc     H311729   8.552   4.227   7.911  1.0948  1.1450  1.7080
  411ccc     H411730   8.563   4.410   7.663  0.8622 -1.4385 -1.8448
  411ccc     H511731   8.481   4.523   7.897 -0.0153  0.9652  1.8012
  411ccc     O111732   8.452   4.413   8.075  0.2232  0.2277  0.5085
  411ccc     O211733   8.689   4.380   7.900 -0.3808 -0.3328  0.8334
  411ccc     O311734   8.632   4.219   7.652  0.0739 -0.0676 -0.4683
  411ccc     O411735   8.367   4.143   7.727  0.0185 -0.0339 -0.5668
  411ccc     C611736   8.154   4.360   7.697  0.1300  0.8786 -0.2000
  411ccc     H611737   8.722   4.246   7.678  0.0912 -0.6048  0.0500
  411ccc     H711738   8.432   4.084   7.686  0.2824  0.0443 -0.2611
  411ccc     H811739   8.736   4.317   7.957 -0.7538 -1.1152  0.2987
  411ccc     H911740   8.087   4.387   7.780 -1.0985 -0.0787 -0.8343
  411ccc    H1011741   8.145   4.256   7.664  2.1568  0.6520 -0.1570
  411ccc     O511742   8.124   4.444   7.587 -0.3960 -0.9183  0.0817
  411ccc    H1111743   8.045   4.408   7.545  0.3571 -3.6164  0.7820
  411ccc     O611744   8.318   4.394   7.876 -0.2754  0.2090  0.1336
  412ccc     C111745   7.699   4.943   8.386 -1.0578  0.1970 -0.8980
  412ccc     C211746   7.589   4.838   8.380 -0.2774  0.9627 -0.1581
  412ccc     H111747   7.762   4.924   8.298 -0.6012 -1.2997 -0.2740
  412ccc     H211748   7.543   4.843   8.281 -0.1679  1.4635 -0.1888
  412ccc     C311749   7.636   4.698   8.396 -0.1818  0.7632  0.1819
  412ccc     C411750   7.743   4.680   8.505 -0.0816  0.5714 -0.5050
  412ccc     C511751   7.843   4.790   8.510 -0.3140 -0.0137  0.7338
  412ccc     H311752   7.708   4.678   8.609  0.3256  1.9781 -0.3239
  412ccc     H411753   7.681   4.677   8.298 -5.0298  0.6815 -2.3487
  412ccc     H511754   7.903   4.767   8.421  0.2675  0.9146  0.8805
  412ccc     O111755   7.924   4.780   8.626 -0.3832  0.1087  0.0771
  412ccc     O211756   7.804   4.556   8.475  0.1386 -0.5142  0.3928
  412ccc     O311757   7.512   4.616   8.420  0.0841 -0.2012 -0.5090
  412ccc     O411758   7.484   4.856   8.475 -0.0698 -0.3758  0.3114
  412ccc     C611759   7.666   5.087   8.395 -0.3005  0.0127  0.5154
  412ccc     H611760   7.546   4.525   8.421 -0.3594 -0.3658 -0.2933
  412ccc     H711761   7.440   4.769   8.467 -2.6252  0.9934 -2.5526
  412ccc     H811762   7.840   4.514   8.555 -0.0170 -2.7241 -0.6128
  412ccc     H911763   7.615   5.121   8.304 -0.9837 -0.6986  0.6227
  412ccc    H1011764   7.765   5.134   8.399 -0.5921  0.6691  0.1648
  412ccc     O511765   7.569   5.100   8.500 -0.2607 -0.2448  0.1004
  412ccc    H1111766   7.564   5.003   8.513  2.1792 -0.3034  1.1328
  412ccc     O611767   7.780   4.919   8.505 -0.5678  0.1969  0.6123
  413ccc     C111768   9.306   3.375  10.179 -1.1646 -0.0945 -0.4181
  413ccc     C211769   9.409   3.291  10.102 -0.2402 -0.5313  0.1378
  413ccc     H111770   9.224   3.305  10.196  0.6665 -2.8784 -2.2925
  413ccc     H211771   9.442   3.212  10.171  0.3538  0.6797  1.2667
  413ccc     C311772   9.343   3.227   9.977  0.2158  0.2475 -0.1096
  413ccc     C411773   9.284   3.339   9.890  0.5317 -0.0956 -0.6096
  413ccc     C511774   9.207   3.451   9.975 -0.3178  0.2556  0.0673
  413ccc     H311775   9.368   3.382   9.836  1.5292 -2.7169 -1.2581
  413ccc     H411776   9.265   3.167  10.025  1.7056 -1.1914  0.6025
  413ccc     H511777   9.109   3.409  10.000 -0.8013  1.4143  0.1656
  413ccc     O111778   9.186   3.577   9.901  0.3666  0.4181  0.7551
  413ccc     O211779   9.191   3.270   9.798  0.0284 -0.4116 -0.1348
  413ccc     O311780   9.434   3.141   9.901  0.1816  0.0218  0.4758
  413ccc     O411781   9.524   3.366  10.068 -0.0519 -0.2596  0.2176
  413ccc     C611782   9.354   3.411  10.322 -0.2177 -0.2174  0.1073
  413ccc     H611783   9.385   3.060   9.879  1.3349 -0.3696 -0.7947
  413ccc     H711784   9.581   3.303  10.021  0.0861 -2.2824  2.8863
  413ccc     H811785   9.251   3.217   9.742 -1.1440 -0.6556 -1.1894
  413ccc     H911786   9.446   3.469  10.307  0.5601 -1.4098  0.1622
  413ccc    H1011787   9.376   3.325  10.386  0.7124  0.9690  1.4765
  413ccc     O511788   9.263   3.495  10.383 -0.0202  0.3889  0.1684
  413ccc    H1111789   9.256   3.575  10.327  0.1013  0.2487 -0.0496
  413ccc     O611790   9.267   3.487  10.102 -0.3847 -0.1170  0.6283
  414ccc     C111791   8.527   3.694  10.590 -0.2343  0.7862 -0.2131
  414ccc     C211792   8.589   3.742  10.725 -0.0632 -0.2826  0.0602
  414ccc     H111793   8.600   3.629  10.539 -1.3953 -1.1098  0.4297
  414ccc     H211794   8.648   3.661  10.769 -2.4495 -0.5245  3.2104
  414ccc     C311795   8.692   3.859  10.722 -1.1068  0.3994  0.6744
  414ccc     C411796   8.663   3.969  10.616  0.0553  0.0137  0.2508
  414ccc     C511797   8.615   3.900  10.485 -1.0406  0.1647 -0.1741
  414ccc     H311798   8.576   4.026  10.650 -0.2311  1.9105 -3.2371
  414ccc     H411799   8.784   3.810  10.686 -0.7577 -1.5682  3.8024
  414ccc     H511800   8.687   3.838  10.431 -1.5026 -0.8495  0.3511
  414ccc     O111801   8.575   4.001  10.388 -0.3652 -0.3353  0.1232
  414ccc     O211802   8.783   4.045  10.607 -0.1647 -0.4052  0.3236
  414ccc     O311803   8.721   3.915  10.846  0.2864  0.2002 -0.1973
  414ccc     O411804   8.485   3.789  10.808  0.1861  0.5983 -0.3714
  414ccc     C611805   8.395   3.610  10.605 -0.1345 -0.2810  0.1168
  414ccc     H611806   8.736   3.843  10.909  0.1999 -0.8773 -1.3686
  414ccc     H711807   8.533   3.844  10.872  1.2437 -2.3421  1.5778
  414ccc     H811808   8.848   3.994  10.658 -1.2102 -2.6341 -0.3988
  414ccc     H911809   8.425   3.522  10.662 -0.9688  0.4220  1.7276
  414ccc    H1011810   8.355   3.583  10.506 -2.0949  0.5933  0.6047
  414ccc     O511811   8.292   3.683  10.676  0.4772 -0.3147  0.2924
  414ccc    H1111812   8.354   3.746  10.716 -0.6551  1.3702 -0.4756
  414ccc     O611813   8.501   3.817  10.512  0.4878  0.7607  0.0708
  415ccc     C111814   4.996   8.458   7.225  0.7165 -0.2855 -0.2030
  415ccc     C211815   5.050   8.365   7.335  0.2585  0.3823 -0.3270
  415ccc     H111816   4.887   8.447   7.220  0.2790  1.3873  3.1544
  415ccc     H211817   5.003   8.388   7.431  1.5049  0.1454  0.3623
  415ccc     C311818   5.022   8.220   7.282  0.6306 -0.7318  0.1843
  415ccc     C411819   5.063   8.189   7.132 -0.7171 -0.9582 -0.7256
  415ccc     C511820   5.028   8.304   7.038 -0.0534  0.0671  0.7706
  415ccc     H311821   5.172   8.172   7.124 -0.4751  0.4729 -0.7189
  415ccc     H411822   4.914   8.203   7.291  0.1682  0.7762 -1.7180
  415ccc     H511823   4.924   8.287   7.010  0.7448  0.0643 -2.6043
  415ccc     O111824   5.106   8.286   6.914  0.0804 -0.1419 -0.5893
  415ccc     O211825   4.998   8.071   7.089 -0.2846 -1.0406 -0.2704
  415ccc     O311826   5.091   8.128   7.364 -0.4058  0.2729  0.1207
  415ccc     O411827   5.183   8.372   7.359 -0.4210 -0.6031  0.6831
  415ccc     C611828   5.037   8.604   7.254 -0.0942 -0.5511  0.4081
  415ccc     H611829   5.051   8.039   7.363 -1.9447  0.8669  2.1256
  415ccc     H711830   5.197   8.286   7.403  1.4859 -0.3652  0.6034
  415ccc     H811831   5.044   7.991   7.118  0.5640  0.2059  2.0895
  415ccc     H911832   5.142   8.620   7.227 -0.4135  1.1847  0.1346
  415ccc    H1011833   5.017   8.625   7.360 -1.5329 -0.9558  0.2396
  415ccc     O511834   4.958   8.689   7.170 -0.0502  0.5005 -0.0789
  415ccc    H1111835   4.960   8.646   7.083 -0.2627 -0.1408  0.2207
  415ccc     O611836   5.054   8.432   7.102  0.0336 -0.3542 -0.0122
  416ccc     C111837   4.861   7.600   6.699 -0.2432  0.1322  0.1645
  416ccc     C211838   4.856   7.554   6.558 -0.2832  0.1580  0.0236
  416ccc     H111839   4.759   7.605   6.739  0.4848 -0.3041  2.1997
  416ccc     H211840   4.782   7.474   6.544  1.3641 -1.2316 -1.1959
  416ccc     C311841   4.831   7.668   6.453  0.2873  0.1875 -0.3149
  416ccc     C411842   4.928   7.783   6.475 -0.1272  0.6973 -0.1444
  416ccc     C511843   4.921   7.834   6.619  0.1789 -0.0590 -0.4491
  416ccc     H311844   5.027   7.735   6.472 -0.0885  0.8217 -1.3120
  416ccc     H411845   4.729   7.708   6.462  1.0577  2.4672 -1.0051
  416ccc     H511846   4.831   7.894   6.633  1.2002  1.5244 -0.3957
  416ccc     O111847   5.030   7.927   6.644 -0.3859  0.1305 -0.4673
  416ccc     O211848   4.911   7.896   6.380 -0.1566  0.2410 -0.4550
  416ccc     O311849   4.856   7.613   6.325  0.1249  0.5474  0.0346
  416ccc     O411850   4.981   7.486   6.530 -0.8942  0.1230 -0.0482
  416ccc     C611851   4.919   7.511   6.808  0.3095 -0.7392 -0.0340
  416ccc     H611852   4.766   7.606   6.289  0.5675 -0.3900 -0.9445
  416ccc     H711853   4.961   7.437   6.448 -0.9469 -0.0108  0.0458
  416ccc     H811854   4.929   7.839   6.304  1.5185 -0.6594  0.5502
  416ccc     H911855   5.027   7.530   6.808  0.1108  0.5639 -1.9124
  416ccc    H1011856   4.894   7.405   6.791 -2.0103  0.0225 -1.7567
  416ccc     O511857   4.861   7.548   6.931  0.2169  0.6841 -0.2274
  416ccc    H1111858   4.858   7.645   6.938  0.4126  0.6642  0.1276
  416ccc     O611859   4.933   7.721   6.715  0.6239 -0.1825 -0.0401
  417ccc     C111860   7.105   7.921   5.287  0.1956 -1.4130 -0.4144
  417ccc     C211861   7.187   8.020   5.368 -0.8282 -0.0887 -0.3871
  417ccc     H111862   7.131   7.941   5.182 -0.6507  1.9485 -0.0829
  417ccc     H211863   7.293   7.993   5.359 -0.8006  0.2251 -1.0286
  417ccc     C311864   7.154   8.165   5.324 -0.0504  0.1853  0.8370
  417ccc     C411865   6.999   8.198   5.307 -0.4017  0.1972 -0.4514
  417ccc     C511866   6.912   8.082   5.252 -0.2222 -0.7522 -0.2369
  417ccc     H311867   6.958   8.205   5.409 -1.3438  0.5528 -0.8411
  417ccc     H411868   7.194   8.170   5.222  0.4136  0.6405  1.0396
  417ccc     H511869   6.915   8.084   5.143  0.5046  0.5873 -0.2055
  417ccc     O111870   6.781   8.114   5.307  0.0960  0.6770 -0.3979
  417ccc     O211871   6.974   8.325   5.241  0.0933  0.1069 -0.3264
  417ccc     O311872   7.224   8.252   5.417 -0.4291  0.4873  0.0656
  417ccc     O411873   7.156   8.003   5.508 -0.3508  0.5148  0.5283
  417ccc     C611874   7.123   7.777   5.328  0.2823 -0.6949  0.1497
  417ccc     H611875   7.319   8.250   5.396  0.1560 -2.3103  2.2773
  417ccc     H711876   7.213   8.070   5.551 -0.8004  2.1327 -1.2506
  417ccc     H811877   7.036   8.389   5.281 -1.1266 -0.4899  2.7931
  417ccc     H911878   7.064   7.754   5.418 -1.7423  3.3420  0.0914
  417ccc    H1011879   7.229   7.752   5.338  0.4239 -1.5080 -2.4944
  417ccc     O511880   7.070   7.697   5.218 -0.3349 -0.6531  0.8472
  417ccc    H1111881   6.985   7.727   5.180 -0.1492 -0.1986  0.7778
  417ccc     O611882   6.963   7.953   5.301  0.3943  0.5365 -0.2386
  418ccc     C111883   5.968   8.675   5.567 -0.4783  0.5039 -0.5528
  418ccc     C211884   5.936   8.711   5.425  0.7144  0.1305 -0.6807
  418ccc     H111885   6.021   8.766   5.597  0.8211 -0.2288 -0.5039
  418ccc     H211886   5.880   8.806   5.421 -1.3445 -0.9474  0.9551
  418ccc     C311887   6.066   8.734   5.349  0.3310  0.2878 -0.1449
  418ccc     C411888   6.170   8.620   5.363 -0.4235  0.1240  0.6840
  418ccc     C511889   6.185   8.571   5.509  0.7604  0.1214  0.1636
  418ccc     H311890   6.124   8.536   5.310  2.4969  0.2587 -2.4438
  418ccc     H411891   6.117   8.818   5.399  0.4583 -1.0365  2.1115
  418ccc     H511892   6.238   8.650   5.563 -0.0770 -0.5283  2.0193
  418ccc     O111893   6.268   8.453   5.509  0.0428  1.1111 -0.0996
  418ccc     O211894   6.296   8.663   5.310  0.1635 -0.2329  0.1947
  418ccc     O311895   6.049   8.763   5.212  0.5642  0.8664  0.8679
  418ccc     O411896   5.864   8.597   5.370  0.8373 -0.3766 -0.1553
  418ccc     C611897   5.842   8.647   5.646 -0.1765 -0.1628 -0.2653
  418ccc     H611898   6.005   8.685   5.173  1.1160  0.0921  1.7472
  418ccc     H711899   5.792   8.626   5.312 -0.5233 -0.6618  1.3361
  418ccc     H811900   6.283   8.625   5.221 -1.8133  0.1596  0.2713
  418ccc     H911901   5.797   8.551   5.619 -1.4128  0.2922  0.1253
  418ccc    H1011902   5.769   8.719   5.609 -0.2929  0.5208  1.2293
  418ccc     O511903   5.866   8.674   5.787 -0.0329  0.1692  0.2662
  418ccc    H1111904   5.798   8.617   5.827 -0.4882  0.9890  0.6651
  418ccc     O611905   6.054   8.559   5.575  0.7723 -0.0253  0.3128
  419ccc     C111906   5.127   6.856   7.807  0.3125  0.1104 -0.4491
  419ccc     C211907   5.120   6.743   7.978  0.1067 -0.3540  0.2212
  419ccc     H111908   5.206   6.801   7.756  1.6782  0.7980  0.8506
  419ccc     H211909   5.194   6.662   7.966 -1.3459 -1.8285  0.7723
  419ccc     C311910   5.157   6.833   8.154 -0.2028  1.0170  0.0507
  419ccc     C411911   5.182   7.035   8.160 -0.0723 -0.3974 -0.9506
  419ccc     C511912   5.189   7.140   7.989  0.4295 -0.5472  0.1184
  419ccc     H311913   5.097   7.082   8.211  1.3175  1.7666 -0.5206
  419ccc     H411914   5.254   6.790   8.181 -0.1438  1.2865  0.2687
  419ccc     H511915   5.289   7.184   7.981 -0.2244  1.0621  0.4441
  419ccc     O111916   5.110   7.264   7.983 -0.4145  0.2739 -0.0368
  419ccc     O211917   5.304   7.070   8.243  0.8402 -0.4200 -0.5660
  419ccc     O311918   5.069   6.777   8.255  1.1768  0.0083 -0.3339
  419ccc     O411919   4.995   6.684   8.000  0.0527 -0.0020  0.3539
  419ccc     C611920   5.007   6.824   7.710 -0.0085  0.1166  0.2557
  419ccc     H611921   5.085   6.817   8.342  1.4796 -1.3011  0.2354
  419ccc     H711922   4.979   6.703   8.094 -0.5301  0.8908  0.0830
  419ccc     H811923   5.320   7.164   8.224 -0.8454  0.6900  2.7016
  419ccc     H911924   4.923   6.885   7.745 -0.8347 -1.1262  0.4659
  419ccc    H1011925   4.988   6.716   7.707  1.4962 -0.1879  0.6564
  419ccc     O511926   5.041   6.869   7.577 -0.0573 -0.1202 -0.1031
  419ccc    H1111927   4.968   6.836   7.522 -1.1906  2.3812 -0.2859
  419ccc     O611928   5.159   7.041   7.823  0.1080 -0.2552 -0.4307
  420ccc     C111929   4.428   7.902   8.445  0.1366 -1.3031 -0.3794
  420ccc     C211930   4.503   7.948   8.569 -0.1907 -0.8597 -0.8938
  420ccc     H111931   4.372   7.820   8.491  1.6274 -1.6969  0.8106
  420ccc     H211932   4.437   7.983   8.649  0.7953  0.5088 -0.6442
  420ccc     C311933   4.594   7.838   8.628 -0.3157 -0.7157 -0.0127
  420ccc     C411934   4.697   7.801   8.514  0.8397 -0.6174  0.2959
  420ccc     C511935   4.624   7.755   8.387 -0.0116 -0.4409  0.5349
  420ccc     H311936   4.744   7.898   8.498 -1.5283  0.5126 -0.2022
  420ccc     H411937   4.526   7.753   8.643 -0.9814 -0.5734 -1.9630
  420ccc     H511938   4.567   7.664   8.410 -0.9294  0.1503  0.6432
  420ccc     O111939   4.728   7.728   8.294  0.3817  0.1841  0.0014
  420ccc     O211940   4.772   7.689   8.571 -0.4632 -0.0901 -0.2700
  420ccc     O311941   4.652   7.897   8.743 -0.5884 -0.6334  0.2911
  420ccc     O411942   4.575   8.064   8.530 -0.4728 -0.4298  0.5099
  420ccc     C611943   4.332   8.013   8.393  0.6602  0.6661 -0.6744
  420ccc     H611944   4.706   7.831   8.789  0.3350  0.9786  1.6842
  420ccc     H711945   4.594   8.109   8.614 -0.7370  0.0097  0.3408
  420ccc     H811946   4.817   7.649   8.494  1.2921  1.8229 -0.2935
  420ccc     H911947   4.379   8.083   8.322 -0.3225  2.7962  0.6712
  420ccc    H1011948   4.306   8.060   8.488 -1.2967  1.3667 -1.5138
  420ccc     O511949   4.222   7.952   8.331  0.0649  0.1441  0.0656
  420ccc    H1111950   4.198   7.890   8.402  0.0225 -0.0499 -0.1172
  420ccc     O611951   4.528   7.847   8.342  0.1628 -0.2435 -0.1820
  421ccc     C111952   6.236   9.181   7.408  0.3625  0.3151  0.3233
  421ccc     C211953   6.222   9.323   7.375  0.7012 -0.7995 -0.5867
  421ccc     H111954   6.309   9.127   7.346  0.4040 -1.1998  1.6355
  421ccc     H211955   6.327   9.353   7.368  0.8169 -0.6740  1.3107
  421ccc     C311956   6.163   9.341   7.231 -0.0276  0.2741 -0.3615
  421ccc     C411957   6.041   9.254   7.205 -0.0996 -0.0176  0.0286
  421ccc     C511958   6.057   9.112   7.265  0.1663  0.0756 -0.2553
  421ccc     H311959   5.968   9.312   7.262  1.0499  1.4792  0.0552
  421ccc     H411960   6.239   9.299   7.164  0.0289 -2.1324  1.1232
  421ccc     H511961   6.120   9.045   7.205 -1.3200 -1.6559 -0.0077
  421ccc     O111962   5.915   9.064   7.267  0.2914  0.3478  0.0728
  421ccc     O211963   6.001   9.245   7.063 -0.7538 -0.5260  0.3788
  421ccc     O311964   6.136   9.484   7.197  0.0621  0.1595  0.2463
  421ccc     O411965   6.154   9.404   7.474  0.6901  0.3512 -0.0572
  421ccc     C611966   6.288   9.172   7.553  0.0492  0.0640  0.2916
  421ccc     H611967   6.106   9.534   7.274  0.3759 -2.2748  2.0660
  421ccc     H711968   6.061   9.412   7.446  0.5594 -0.9556 -0.0321
  421ccc     H811969   5.960   9.332   7.050 -0.1015 -0.1942  0.4927
  421ccc     H911970   6.217   9.206   7.630  0.0832 -0.4921  0.5764
  421ccc    H1011971   6.382   9.228   7.554  0.9822 -1.1950 -2.9655
  421ccc     O511972   6.333   9.039   7.576  0.3325  0.5645  0.4394
  421ccc    H1111973   6.334   9.041   7.673  0.0393 -1.2840  0.5057
  421ccc     O611974   6.103   9.118   7.402  0.5210 -0.2405  0.0766
  422ccc     C111975   5.479   9.449   7.178 -0.4433 -0.7772 -0.0534
  422ccc     C211976   5.540   9.593   7.168  0.7149 -0.2049 -0.4783
  422ccc     H111977   5.528   9.403   7.265 -0.9126  0.0852  0.6806
  422ccc     H211978   5.522   9.649   7.260  1.2064  1.3207 -1.2688
  422ccc     C311979   5.686   9.589   7.118  0.0660 -0.1167 -1.0980
  422ccc     C411980   5.712   9.488   7.005 -0.5464  0.0822  0.4862
  422ccc     C511981   5.639   9.345   7.025 -0.3272 -0.3044  0.2911
  422ccc     H311982   5.659   9.528   6.917 -0.8700  0.4533  0.8494
  422ccc     H411983   5.729   9.553   7.213 -2.9494 -0.1176  0.3950
  422ccc     H511984   5.689   9.287   7.103 -0.2639  0.6737  0.9973
  422ccc     O111985   5.650   9.274   6.898 -0.5505  0.5663  0.2993
  422ccc     O211986   5.856   9.471   7.001 -0.1705 -0.1265  0.4916
  422ccc     O311987   5.732   9.727   7.095  0.2482  0.9956 -0.4738
  422ccc     O411988   5.459   9.662   7.064 -0.2761 -0.1596  0.1214
  422ccc     C611989   5.328   9.451   7.208  1.2469 -0.5455 -0.1880
  422ccc     H611990   5.690   9.770   7.019 -0.6017 -1.6952 -1.6231
  422ccc     H711991   5.379   9.607   7.068  1.8283 -3.4890  1.9589
  422ccc     H811992   5.875   9.528   6.925 -1.6516  0.1590  0.3141
  422ccc     H911993   5.318   9.475   7.315  4.3787 -3.5766  0.9816
  422ccc    H1011994   5.296   9.347   7.193 -2.2725  0.2799  0.6941
  422ccc     O511995   5.245   9.536   7.120 -0.6490 -0.0125  0.3317
  422ccc    H1111996   5.154   9.535   7.154 -0.8290 -0.8829 -0.1482
  422ccc     O611997   5.504   9.366   7.065  0.3667  0.3913  0.7996
  423ccc     C111998   6.820   4.231   6.079 -0.7864 -0.1303 -0.4519
  423ccc     C211999   6.707   4.291   5.992  0.6963 -0.8242  0.0293
  423ccc     H112000   6.780   4.138   6.119 -2.4297  0.7381  0.0003
  423ccc     H212001   6.665   4.219   5.920 -0.8589  0.3778 -0.3160
  423ccc     C312002   6.583   4.331   6.077  0.2700 -0.4886 -0.0143
  423ccc     C412003   6.621   4.397   6.211 -0.4470  0.3519 -0.0082
  423ccc     C512004   6.741   4.330   6.282 -0.4348 -0.2726  0.1096
  423ccc     H312005   6.646   4.502   6.194 -1.1544  1.1052  3.0195
  423ccc     H412006   6.543   4.232   6.099  0.4028 -0.5118  0.1280
  423ccc     H512007   6.711   4.233   6.322 -0.0401 -0.1298  0.7692
  423ccc     O112008   6.790   4.414   6.395  0.2434 -0.5368 -0.2926
  423ccc     O212009   6.506   4.385   6.306  0.1278 -0.1205  0.9010
  423ccc     O312010   6.492   4.415   6.003  0.6465  0.7454 -0.2903
  423ccc     O412011   6.766   4.404   5.929  0.2902  0.0332 -0.3015
  423ccc     C612012   6.961   4.195   6.022  0.2218 -0.1660  0.5678
  423ccc     H612013   6.444   4.352   5.946  2.5491  0.5495 -1.7813
  423ccc     H712014   6.706   4.421   5.854 -0.8480 -0.4530  0.4830
  423ccc     H812015   6.490   4.480   6.322 -0.7531  0.0328 -0.7325
  423ccc     H912016   6.962   4.101   5.965  0.7594  1.3951 -2.2012
  423ccc    H1012017   7.040   4.184   6.097  1.5304  0.9112 -0.5920
  423ccc     O512018   7.002   4.306   5.936  0.7861  0.6334 -0.1212
  423ccc    H1112019   6.918   4.354   5.928 -0.0634 -0.9830 -1.9190
  423ccc     O612020   6.851   4.320   6.192  0.5213 -0.2859 -0.0878
  424ccc     C112021   7.273   5.348   5.915 -0.0687  0.6114  0.4822
  424ccc     C212022   7.216   5.338   5.773  0.1298  0.4023  0.4721
  424ccc     H112023   7.379   5.324   5.900 -0.0045  1.4295 -0.5057
  424ccc     H212024   7.260   5.411   5.705 -1.0619  1.3751  0.7079
  424ccc     C312025   7.234   5.192   5.722 -0.0592  0.0776  0.5742
  424ccc     C412026   7.160   5.096   5.818 -0.2705  0.6047  0.0224
  424ccc     C512027   7.210   5.117   5.962  0.5537  1.0908 -0.5071
  424ccc     H312028   7.053   5.116   5.820 -0.7561 -1.6463 -0.4399
  424ccc     H412029   7.339   5.161   5.733 -0.8885 -3.0634  0.6187
  424ccc     H512030   7.314   5.087   5.974  0.4519  0.5489 -0.9662
  424ccc     O112031   7.128   5.039   6.057  0.8203 -0.7034  0.1347
  424ccc     O212032   7.186   4.960   5.774  0.0330  0.2001 -0.3263
  424ccc     O312033   7.189   5.185   5.586  0.3054 -0.0715  0.0882
  424ccc     O412034   7.077   5.367   5.792  0.0466  0.9642 -0.5589
  424ccc     C612035   7.265   5.484   5.981  0.3425 -0.1838 -0.2587
  424ccc     H612036   7.095   5.208   5.590  0.4109  0.8252 -1.6463
  424ccc     H712037   7.060   5.428   5.717  3.3086 -1.3889 -3.5556
  424ccc     H812038   7.120   4.905   5.820 -0.2069  1.1334  0.4701
  424ccc     H912039   7.163   5.496   6.018 -0.5080  2.1469 -3.0079
  424ccc    H1012040   7.289   5.565   5.911  0.5459 -0.7948 -0.9153
  424ccc     O512041   7.358   5.481   6.086  0.4388  0.2186  0.6502
  424ccc    H1112042   7.375   5.386   6.087 -1.3742 -0.1776 -0.8354
  424ccc     O612043   7.215   5.249   6.005  0.6224 -0.3289 -0.3029
  425ccc     C112044   4.597   4.846   6.707  0.5936  0.0711  0.6559
  425ccc     C212045   4.495   4.903   6.816  0.1828 -0.2165  0.2322
  425ccc     H112046   4.572   4.741   6.724 -1.8597  0.2366 -1.3116
  425ccc     H212047   4.394   4.859   6.808 -0.1442  0.3652  1.0140
  425ccc     C312048   4.536   4.890   6.964 -0.5057  0.5269  0.0623
  425ccc     C412049   4.685   4.929   6.979 -0.6540 -0.2528  0.7860
  425ccc     C512050   4.787   4.869   6.876 -0.0133 -0.2584  0.3492
  425ccc     H312051   4.688   5.037   6.962 -1.4122 -0.6498 -2.6127
  425ccc     H412052   4.510   4.786   6.987 -3.4329  1.0812 -0.3807
  425ccc     H512053   4.809   4.765   6.903  0.0746 -0.5491 -0.7724
  425ccc     O112054   4.918   4.932   6.887  0.5798  0.2988 -0.4167
  425ccc     O212055   4.728   4.914   7.117 -0.3345  0.8253 -0.6820
  425ccc     O312056   4.459   4.961   7.071 -0.0519  0.2399  0.8489
  425ccc     O412057   4.472   5.044   6.787 -0.1072  0.0261  0.1651
  425ccc     C612058   4.560   4.897   6.563  0.0556  0.3887 -0.8625
  425ccc     H612059   4.370   4.921   7.074  0.4490 -0.9395  0.5317
  425ccc     H712060   4.423   5.083   6.862 -0.9707 -0.5629 -0.0774
  425ccc     H812061   4.779   4.831   7.124  0.5036  1.3239 -0.8515
  425ccc     H912062   4.605   4.995   6.543  1.2396  0.1990  0.7624
  425ccc    H1012063   4.451   4.897   6.547 -0.2345 -0.7138  0.8940
  425ccc     O512064   4.618   4.800   6.482  0.1541 -0.2076  0.3653
  425ccc    H1112065   4.712   4.825   6.471  0.0418  2.1911  3.4238
  425ccc     O612066   4.736   4.889   6.740  0.5333 -0.4124 -0.1228
  426ccc     C112067   5.735   4.619   7.224  0.1265 -0.0213 -0.5435
  426ccc     C212068   5.861   4.673   7.299  0.6118 -0.7518  0.3665
  426ccc     H112069   5.753   4.606   7.117  0.6884  0.5057 -0.5156
  426ccc     H212070   5.946   4.644   7.237  0.1030  1.6255 -1.5846
  426ccc     C312071   5.872   4.827   7.299 -0.3235 -0.1095 -0.1670
  426ccc     C412072   5.736   4.896   7.330 -0.3930  0.3395  0.0896
  426ccc     C512073   5.636   4.845   7.221 -0.0646  0.0726  0.0575
  426ccc     H312074   5.697   4.863   7.427 -2.2860  2.2141  0.0292
  426ccc     H412075   5.895   4.869   7.201  0.1155  3.3815  1.2768
  426ccc     H512076   5.668   4.871   7.120  0.7861  0.7281  0.4791
  426ccc     O112077   5.506   4.907   7.250 -0.1369 -0.3942 -0.4788
  426ccc     O212078   5.747   5.041   7.324  0.7811 -0.1466 -0.0458
  426ccc     O312079   5.967   4.862   7.398 -0.1827  0.2919  0.0216
  426ccc     O412080   5.849   4.637   7.435 -0.1133 -0.5945 -0.3273
  426ccc     C612081   5.705   4.474   7.258 -0.0465  0.1958  0.0202
  426ccc     H612082   5.977   4.959   7.402  0.8057  0.1470  1.8262
  426ccc     H712083   5.918   4.694   7.474 -1.7662  1.3876 -0.1411
  426ccc     H812084   5.741   5.068   7.230 -4.0089  0.5888  0.2298
  426ccc     H912085   5.799   4.418   7.249 -0.2743 -0.0226 -1.0820
  426ccc    H1012086   5.622   4.435   7.199  0.4151 -0.4035 -0.2433
  426ccc     O512087   5.673   4.473   7.401  0.7069 -0.4377  0.5162
  426ccc    H1112088   5.732   4.542   7.435  0.4148  0.5583 -0.8924
  426ccc     O612089   5.623   4.699   7.239 -0.0882 -0.4439 -0.1067
  427ccc     C112090   6.648   6.288   8.364  0.4022  0.8496  0.1035
  427ccc     C212091   6.699   6.200   8.482 -0.0259  0.4402  0.0393
  427ccc     H112092   6.577   6.357   8.410 -1.9870 -1.0379 -0.5680
  427ccc     H212093   6.728   6.277   8.554 -3.7197  2.1205 -0.0040
  427ccc     C312094   6.582   6.115   8.545 -0.5730 -0.3826 -0.2111
  427ccc     C412095   6.502   6.035   8.438  0.3155  0.5060  0.0883
  427ccc     C512096   6.456   6.125   8.318 -0.5985 -0.4956 -0.3385
  427ccc     H312097   6.565   5.961   8.388  0.3005  0.6741 -0.1823
  427ccc     H412098   6.510   6.183   8.592 -0.3548 -0.8592  0.8216
  427ccc     H512099   6.383   6.193   8.364 -0.6806 -0.7141 -0.1410
  427ccc     O112100   6.406   6.044   8.211 -0.2054  0.1348 -0.2578
  427ccc     O212101   6.387   5.972   8.507  0.1249 -0.6489 -0.0136
  427ccc     O312102   6.631   6.024   8.647  0.2980  0.3115 -0.6741
  427ccc     O412103   6.804   6.116   8.437 -0.2797  0.6277 -0.9908
  427ccc     C612104   6.756   6.354   8.282 -0.3529  0.6055 -0.3617
  427ccc     H612105   6.679   6.075   8.714 -1.1199 -0.4731  0.9980
  427ccc     H712106   6.847   6.181   8.379  1.5609  0.9064  0.6013
  427ccc     H812107   6.422   5.907   8.570 -1.0250 -0.5982  0.7132
  427ccc     H912108   6.832   6.402   8.344  1.3313 -2.7509  0.3830
  427ccc    H1012109   6.722   6.427   8.207  0.1815 -1.7206 -3.0310
  427ccc     O512110   6.839   6.256   8.216 -0.6494 -0.6164 -0.1682
  427ccc    H1112111   6.790   6.196   8.157  2.1972 -4.2655  0.7935
  427ccc     O612112   6.575   6.200   8.272  0.0679 -0.1846 -0.3213
  428ccc     C112113   5.807   5.304   8.321  0.6822 -0.1078 -0.1617
  428ccc     C212114   5.710   5.215   8.246  0.2084  0.5374 -0.5535
  428ccc     H112115   5.735   5.374   8.366 -0.4513 -0.1167 -1.8749
  428ccc     H212116   5.632   5.186   8.318 -0.7433  2.3892 -0.7866
  428ccc     C312117   5.635   5.289   8.136  0.0164 -0.3172  0.1111
  428ccc     C412118   5.724   5.378   8.038  0.3719  0.2730 -0.3323
  428ccc     C512119   5.816   5.467   8.131 -0.6313 -0.9830  0.2341
  428ccc     H312120   5.773   5.312   7.966  1.2058  1.7439 -1.1548
  428ccc     H412121   5.561   5.351   8.188  1.7199  2.2325 -0.3475
  428ccc     H512122   5.756   5.543   8.182  0.0018 -1.9259  2.5034
  428ccc     O112123   5.918   5.537   8.044  0.0163  0.0848 -0.7346
  428ccc     O212124   5.643   5.476   7.973 -0.2650  0.1999  0.4025
  428ccc     O312125   5.563   5.188   8.069  0.0119  0.5506  0.1590
  428ccc     O412126   5.786   5.100   8.201  0.2654 -0.0546  0.0728
  428ccc     C612127   5.897   5.221   8.412 -0.1585  0.8590  0.2300
  428ccc     H612128   5.497   5.234   8.014 -0.8456 -2.9038 -1.9611
  428ccc     H712129   5.720   5.040   8.161  1.2512 -0.0364 -1.6675
  428ccc     H812130   5.625   5.441   7.883  0.7064  3.1276 -1.0609
  428ccc     H912131   5.975   5.174   8.351 -0.1377  1.0884  0.0842
  428ccc    H1012132   5.835   5.144   8.461  0.5339  0.2726  0.1907
  428ccc     O512133   5.954   5.310   8.507 -0.0598 -0.3114 -0.1203
  428ccc    H1112134   5.989   5.380   8.449  4.5215 -1.3530  0.9666
  428ccc     O612135   5.888   5.378   8.224  0.6702  0.0134 -0.8667
  429ccc     C112136   4.347   5.514   7.701  0.3521  0.1571  0.9139
  429ccc     C212137   4.290   5.413   7.595  0.6724  0.6283 -0.0776
  429ccc     H112138   4.327   5.610   7.652  0.8678 -1.0229 -1.7851
  429ccc     H212139   4.187   5.443   7.574  0.2487 -0.3397  0.5389
  429ccc     C312140   4.359   5.420   7.463 -0.5214  0.3220  0.3592
  429ccc     C412141   4.508   5.403   7.475 -0.4648  0.1218 -0.0583
  429ccc     C512142   4.563   5.510   7.581  0.0816  0.2015 -0.2369
  429ccc     H312143   4.534   5.301   7.508 -1.2993 -0.6608 -1.6813
  429ccc     H412144   4.329   5.522   7.435 -2.8058 -0.5325 -0.5784
  429ccc     H512145   4.576   5.611   7.538  3.1457  0.8108  1.8576
  429ccc     O112146   4.695   5.465   7.618  0.4268 -0.0449  0.9275
  429ccc     O212147   4.566   5.401   7.338  0.0638 -0.1924 -0.2624
  429ccc     O312148   4.308   5.335   7.360 -0.1306  0.1810  0.1044
  429ccc     O412149   4.299   5.283   7.642 -0.0071  0.5251 -0.3014
  429ccc     C612150   4.280   5.506   7.838 -0.4272 -0.2694 -0.4569
  429ccc     H612151   4.313   5.375   7.272 -1.8432  0.4095  0.0745
  429ccc     H712152   4.257   5.241   7.565 -0.1466 -1.6772  0.9022
  429ccc     H812153   4.535   5.485   7.300 -0.3165 -0.5207 -0.6932
  429ccc     H912154   4.301   5.412   7.888  1.1871 -0.5767 -1.6372
  429ccc    H1012155   4.171   5.516   7.828 -0.3423 -0.4238 -1.7997
  429ccc     O512156   4.338   5.623   7.905  0.4245  0.1347  0.2018
  429ccc    H1112157   4.431   5.616   7.932 -0.2873 -0.3774  2.8567
  429ccc     O612158   4.492   5.505   7.706  0.0071  0.2485 -0.0525
  430ccc     C112159   4.548   5.670   6.859  0.2185  0.2515 -0.5081
  430ccc     C212160   4.420   5.599   6.919  0.6705 -0.0481 -0.0253
  430ccc     H112161   4.635   5.604   6.871  1.0783  1.4807  0.2386
  430ccc     H212162   4.403   5.505   6.865 -2.5373 -0.5139  1.5557
  430ccc     C312163   4.439   5.557   7.062  0.4347  0.0866 -0.2063
  430ccc     C412164   4.464   5.688   7.140  0.1250  1.0215  0.2983
  430ccc     C512165   4.576   5.778   7.080 -0.9335 -0.1556  0.4757
  430ccc     H312166   4.370   5.743   7.127 -2.3532 -2.7338  0.8919
  430ccc     H412167   4.536   5.506   7.072 -1.0061 -2.3994  3.4931
  430ccc     H512168   4.673   5.730   7.097 -0.6688  0.0658 -0.3438
  430ccc     O112169   4.573   5.915   7.137 -0.2933  0.3194 -0.0559
  430ccc     O212170   4.490   5.636   7.274 -0.2830 -0.2697  0.1437
  430ccc     O312171   4.342   5.469   7.122  0.1228 -0.1400  0.5289
  430ccc     O412172   4.302   5.682   6.905 -1.0029  0.3370 -0.5480
  430ccc     C612173   4.549   5.701   6.706  0.0781  0.7388 -0.1204
  430ccc     H612174   4.275   5.536   7.145  0.4153  0.7263 -1.0146
  430ccc     H712175   4.244   5.632   6.846  0.1175 -0.3652 -1.0774
  430ccc     H812176   4.454   5.706   7.331 -0.3650 -1.1263  1.1909
  430ccc     H912177   4.545   5.612   6.642  0.8884 -0.3372  1.2868
  430ccc    H1012178   4.636   5.757   6.670  1.0636 -0.8768 -0.3766
  430ccc     O512179   4.432   5.778   6.691  0.1620 -0.2318 -0.0493
  430ccc    H1112180   4.392   5.757   6.777  3.5785  1.7357  2.2739
  430ccc     O612181   4.566   5.793   6.937 -0.5245  0.4389 -0.2003
  431ccc     C112182   9.339   7.433   5.967 -0.5058  0.1897 -0.4396
  431ccc     C212183   9.378   7.553   6.058 -0.2463 -0.0532 -0.0670
  431ccc     H112184   9.234   7.412   5.988 -1.1821  2.0825 -1.6630
  431ccc     H212185   9.311   7.640   6.050  2.5585  2.0893 -2.4956
  431ccc     C312186   9.385   7.519   6.209  0.2909  0.5311  0.1545
  431ccc     C412187   9.459   7.384   6.230  0.1719 -0.0341 -0.1343
  431ccc     C512188   9.402   7.269   6.145 -0.2094 -0.1534  0.0497
  431ccc     H312189   9.563   7.397   6.197  1.3445 -2.3922  2.2743
  431ccc     H412190   9.280   7.500   6.236  0.8916 -2.0060  0.9824
  431ccc     H512191   9.300   7.235   6.166  0.2449 -1.3888  0.3134
  431ccc     O112192   9.491   7.159   6.156 -0.6846  0.2822 -0.3414
  431ccc     O212193   9.445   7.357   6.370 -0.7004 -0.0711  0.5788
  431ccc     O312194   9.431   7.637   6.282  0.0470  0.1108 -0.4483
  431ccc     O412195   9.503   7.599   6.013  0.2918  0.2885 -0.4736
  431ccc     C612196   9.344   7.467   5.823 -0.3557 -0.2616  0.1850
  431ccc     H612197   9.350   7.684   6.308  1.0975  0.3099  2.9005
  431ccc     H712198   9.501   7.544   5.932 -0.3319 -0.4902  0.0438
  431ccc     H812199   9.517   7.292   6.379  0.0410  0.7672  0.9239
  431ccc     H912200   9.275   7.551   5.805 -0.0379  0.3152  1.5323
  431ccc    H1012201   9.302   7.380   5.771  0.9109  0.8854 -2.9551
  431ccc     O512202   9.484   7.491   5.789 -0.6730 -0.2462  0.1602
  431ccc    H1112203   9.484   7.503   5.692  1.1267  1.4386  0.2882
  431ccc     O612204   9.415   7.315   6.012  0.9109 -0.0630  0.0811
  432ccc     C112205  10.265   7.646   6.234  0.0823 -0.6644  0.1170
  432ccc     C212206  10.415   7.635   6.272 -0.1822  0.3718  0.1460
  432ccc     H112207  10.222   7.741   6.270  0.8885  0.7739 -2.4736
  432ccc     H212208  10.472   7.722   6.236 -2.1976  1.0746 -1.5561
  432ccc     C312209  10.427   7.630   6.424  0.3128 -0.4465 -0.3159
  432ccc     C412210  10.350   7.509   6.477  0.1432  0.0852 -0.2208
  432ccc     C512211  10.197   7.529   6.443  1.1286 -0.1687  0.3899
  432ccc     H312212  10.366   7.415   6.421  1.0276  0.8698 -1.3409
  432ccc     H412213  10.383   7.724   6.461  1.8453 -0.0605  0.6344
  432ccc     H512214  10.149   7.623   6.473 -0.7847 -0.1707 -2.2402
  432ccc     O112215  10.112   7.422   6.487 -0.0892  0.0895  0.0462
  432ccc     O212216  10.383   7.503   6.616 -0.0075 -0.3339  0.5477
  432ccc     O312217  10.567   7.612   6.443 -0.5252  0.3454  0.4475
  432ccc     O412218  10.476   7.509   6.221  0.2774 -0.4096 -0.0132
  432ccc     C612219  10.229   7.632   6.084 -0.0388 -0.7573 -0.2169
  432ccc     H612220  10.571   7.618   6.540 -3.8899  1.2190  0.6536
  432ccc     H712221  10.564   7.506   6.262  0.2090  2.8121  0.6700
  432ccc     H812222  10.318   7.448   6.664 -0.8802  2.6880  3.2130
  432ccc     H912223  10.258   7.729   6.040  1.0541 -0.8253  0.3251
  432ccc    H1012224  10.122   7.609   6.081 -0.5333  1.0597  1.1060
  432ccc     O512225  10.301   7.535   6.026  0.2526 -0.2883  0.0526
  432ccc    H1112226  10.364   7.523   6.100  0.5098 -2.0951 -0.4279
  432ccc     O612227  10.203   7.532   6.299  0.0410 -0.1563  0.1084
  433ccc     C112228  10.248   7.754   7.606  0.0805 -0.1105  0.4169
  433ccc     C212229  10.340   7.869   7.547 -0.3212 -0.2260 -0.5784
  433ccc     H112230  10.289   7.660   7.569 -1.9144 -0.6698 -0.5169
  433ccc     H212231  10.445   7.843   7.565 -0.3296 -1.4095 -2.0447
  433ccc     C312232  10.318   7.889   7.400  0.0116  0.4325  0.2764
  433ccc     C412233  10.167   7.909   7.370 -0.0019 -0.4249  0.0140
  433ccc     C512234  10.087   7.785   7.414  0.5057 -0.3882 -0.5149
  433ccc     H312235  10.138   7.990   7.438  1.0532 -0.8720  1.0453
  433ccc     H412236  10.345   7.794   7.352 -2.1126 -0.2772  0.3559
  433ccc     H512237  10.122   7.703   7.351  3.1929  0.2490  0.0112
  433ccc     O112238   9.945   7.809   7.387  0.0402 -0.3213  0.2384
  433ccc     O212239  10.141   7.941   7.236  0.3506 -0.0951  0.1566
  433ccc     O312240  10.401   7.995   7.346  0.5415 -0.0036 -0.1252
  433ccc     O412241  10.309   7.995   7.611 -0.1313 -0.1894  0.0093
  433ccc     C612242  10.244   7.738   7.762  0.1226 -0.3239  0.8215
  433ccc     H612243  10.404   8.072   7.406 -2.8660  0.4269 -0.2564
  433ccc     H712244  10.381   8.053   7.582 -0.3182 -0.7875 -1.8000
  433ccc     H812245  10.205   8.010   7.212  0.6239 -0.4821 -0.2293
  433ccc     H912246  10.342   7.698   7.791 -0.4268 -1.7155  0.8246
  433ccc    H1012247  10.174   7.660   7.793 -1.9870  0.3250 -1.9285
  433ccc     O512248  10.212   7.869   7.813 -0.0741 -0.6282 -0.3957
  433ccc    H1112249  10.220   7.922   7.732 -0.3267 -1.4638 -0.9870
  433ccc     O612250  10.115   7.770   7.557  0.2928  0.5069 -0.1651
  434ccc     C112251   9.266   8.524   7.591 -0.1270 -0.3973  0.1371
  434ccc     C212252   9.372   8.620   7.534  0.2734 -1.3668 -0.6553
  434ccc     H112253   9.289   8.500   7.696  2.5990  1.3333  0.0443
  434ccc     H212254   9.381   8.707   7.601 -1.9832 -0.6181 -1.2095
  434ccc     C312255   9.514   8.558   7.532  0.4882  0.4443  0.0140
  434ccc     C412256   9.515   8.410   7.490  0.0662  0.6920  0.8273
  434ccc     C512257   9.388   8.328   7.533 -0.8338 -0.6482  0.4390
  434ccc     H312258   9.513   8.417   7.380  1.2342 -3.0246  0.4413
  434ccc     H412259   9.562   8.568   7.630 -2.0538  0.2407  1.3701
  434ccc     H512260   9.397   8.282   7.632 -0.6695 -2.3967 -0.3475
  434ccc     O112261   9.384   8.209   7.440 -0.4582 -0.1697 -0.2454
  434ccc     O212262   9.640   8.346   7.541  0.5687  0.3211 -0.2269
  434ccc     O312263   9.590   8.633   7.438  0.0953  0.2356  0.8350
  434ccc     O412264   9.344   8.667   7.400 -0.2696  0.5275  0.0156
  434ccc     C612265   9.129   8.579   7.573 -0.2315 -0.1367  0.1983
  434ccc     H612266   9.681   8.600   7.432 -0.2125 -0.4122 -1.4811
  434ccc     H712267   9.438   8.674   7.377 -0.5130  2.0525 -0.6741
  434ccc     H812268   9.651   8.263   7.491  0.7256  0.3711 -0.2772
  434ccc     H912269   9.107   8.583   7.465  1.9238 -0.0988 -0.2899
  434ccc    H1012270   9.117   8.679   7.617 -0.0680  0.2164 -0.5446
  434ccc     O512271   9.048   8.494   7.641 -0.6301 -0.2512  0.0965
  434ccc    H1112272   9.026   8.442   7.561  1.6993 -0.4904 -0.4625
  434ccc     O612273   9.276   8.410   7.507 -0.3096  0.5028 -0.0467
  435ccc     C112274   7.266   7.160   5.847 -0.0287 -0.2827 -0.1364
  435ccc     C212275   7.297   7.027   5.774  0.2177  0.0517 -0.0870
  435ccc     H112276   7.232   7.228   5.768  0.4897 -0.4097 -0.4740
  435ccc     H212277   7.196   7.002   5.741 -0.4268  1.4927  0.7002
  435ccc     C312278   7.400   7.040   5.660 -0.0711  0.2560  0.0580
  435ccc     C412279   7.527   7.108   5.718  0.4685 -0.2527 -0.6620
  435ccc     C512280   7.502   7.242   5.807  0.6122 -0.5249 -0.3569
  435ccc     H312281   7.579   7.034   5.780 -1.5637 -2.9211 -1.9798
  435ccc     H412282   7.367   7.128   5.602  4.2376  2.0553 -0.0084
  435ccc     H512283   7.475   7.315   5.729 -1.0212 -0.4333  0.2590
  435ccc     O112284   7.615   7.281   5.887  0.0571 -0.4116  0.7575
  435ccc     O212285   7.620   7.140   5.609  0.0317  0.0032  0.1713
  435ccc     O312286   7.428   6.917   5.583  0.0615 -0.2571  0.5630
  435ccc     O412287   7.351   6.940   5.874 -0.2787  0.5228 -0.2670
  435ccc     C612288   7.153   7.155   5.959  0.4761 -0.4953  0.4172
  435ccc     H612289   7.462   6.849   5.643 -0.9691 -1.5137 -0.2227
  435ccc     H712290   7.301   6.973   5.951  1.1285  0.5855  0.6609
  435ccc     H812291   7.677   7.062   5.600  0.7758  0.6314 -0.8835
  435ccc     H912292   7.052   7.141   5.919  0.1088  1.3095  0.6548
  435ccc    H1012293   7.143   7.247   6.017 -2.6090  0.1850 -1.0043
  435ccc     O512294   7.182   7.043   6.045 -0.0330 -0.0693 -0.4741
  435ccc    H1112295   7.112   7.053   6.112  0.0001  0.6358 -0.5404
  435ccc     O612296   7.390   7.211   5.904  0.0421  0.4461  0.8141
  436ccc     C112297   7.422   7.764   5.005 -0.1574  0.3359  0.4730
  436ccc     C212298   7.510   7.637   5.007 -0.3038  0.7409 -0.5588
  436ccc     H112299   7.466   7.836   4.935  0.0072 -1.6017 -1.5522
  436ccc     H212300   7.510   7.587   4.909 -1.7851 -0.2474 -0.0826
  436ccc     C312301   7.653   7.680   5.048 -0.1292 -0.2719 -0.3503
  436ccc     C412302   7.651   7.772   5.174  0.2792 -0.1531 -0.1324
  436ccc     C512303   7.547   7.879   5.181  0.2434 -1.2716  0.1321
  436ccc     H312304   7.628   7.698   5.252 -1.4778 -0.5155 -0.9407
  436ccc     H412305   7.697   7.737   4.965 -3.0765 -1.2338 -2.7180
  436ccc     H512306   7.588   7.973   5.141 -1.2326  0.0169  1.4921
  436ccc     O112307   7.526   7.915   5.318  0.1766 -0.3510  0.2038
  436ccc     O212308   7.780   7.833   5.191 -0.0844  0.2490 -0.4593
  436ccc     O312309   7.738   7.566   5.063 -0.4752  0.6270  0.1405
  436ccc     O412310   7.456   7.553   5.115  0.3753  0.0368  0.0208
  436ccc     C612311   7.277   7.738   4.961 -0.1524 -0.0935 -0.7638
  436ccc     H612312   7.717   7.536   5.153 -0.3139  0.4234  0.1113
  436ccc     H712313   7.360   7.561   5.099  0.5742  1.9165 -0.5606
  436ccc     H812314   7.840   7.762   5.220 -1.1293  0.2618  1.9034
  436ccc     H912315   7.284   7.728   4.852  0.6163 -1.3287 -0.6080
  436ccc    H1012316   7.228   7.833   4.987  0.4041 -0.1326  0.5013
  436ccc     O512317   7.216   7.628   5.031 -0.5707  0.0702  0.0795
  436ccc    H1112318   7.167   7.665   5.107  0.5719  2.8789 -0.4688
  436ccc     O612319   7.417   7.834   5.136 -0.5231  0.9155  0.6035
  437ccc     C112320   6.681   8.822   6.102  0.1476 -0.6694  0.1124
  437ccc     C212321   6.547   8.889   6.129  0.0190  0.0488  0.4747
  437ccc     H112322   6.666   8.723   6.057 -0.4945  0.2301 -1.7777
  437ccc     H212323   6.495   8.886   6.033 -3.0680 -1.5620  2.0423
  437ccc     C312324   6.475   8.811   6.237 -0.1622  0.2626  1.1089
  437ccc     C412325   6.561   8.776   6.353 -1.0882 -0.2499 -0.1851
  437ccc     C512326   6.700   8.715   6.311 -0.2264  0.7501  0.1788
  437ccc     H312327   6.578   8.871   6.406 -1.6736 -0.2224 -0.0447
  437ccc     H412328   6.438   8.712   6.209  0.1147  0.0538  1.4709
  437ccc     H512329   6.673   8.626   6.253  1.7153 -0.9209  1.7085
  437ccc     O112330   6.788   8.694   6.423 -0.0619  0.1585  0.2725
  437ccc     O212331   6.488   8.686   6.435 -0.0084 -0.2400 -0.5695
  437ccc     O312332   6.367   8.885   6.290 -0.6910  0.1449  0.4416
  437ccc     O412333   6.568   9.026   6.167 -0.0369 -0.1065  0.5323
  437ccc     C612334   6.767   8.894   5.995 -0.1394  0.5360  0.0478
  437ccc     H612335   6.314   8.913   6.213  3.4817  1.4218 -2.2946
  437ccc     H712336   6.646   9.037   6.110 -1.5827  0.9055 -1.4903
  437ccc     H812337   6.556   8.631   6.478  0.4625  1.2319  0.6644
  437ccc     H912338   6.715   8.882   5.899 -1.3310  1.5968  0.5348
  437ccc    H1012339   6.865   8.846   5.980 -0.7107 -0.5250 -0.3930
  437ccc     O512340   6.783   9.025   6.037 -0.2376 -0.1474  0.0796
  437ccc    H1112341   6.825   9.079   5.967 -0.4991 -2.4146 -1.9428
  437ccc     O612342   6.763   8.806   6.217  0.3345  0.3508 -0.2082
  438ccc     C112343   7.065   9.088   7.095  0.8676 -0.3323 -0.2841
  438ccc     C212344   7.031   9.261   6.993  0.6649 -0.2351 -0.1010
  438ccc     H112345   7.093   9.131   7.192  0.6111 -0.8079  0.0049
  438ccc     H212346   7.019   9.336   7.071  0.5105 -1.1429  0.7723
  438ccc     C312347   7.168   9.319   6.856 -0.3746  0.8480 -0.0476
  438ccc     C412348   7.331   9.200   6.818  0.3146  0.3909 -0.1998
  438ccc     C512349   7.354   9.034   6.924 -0.0134  0.3911 -0.3273
  438ccc     H312350   7.322   9.174   6.711 -0.4573  1.8683 -0.5179
  438ccc     H412351   7.212   9.413   6.893 -1.3482  1.5363 -0.6152
  438ccc     H512352   7.437   9.057   6.992 -1.9290  2.9178  1.3570
  438ccc     O112353   7.381   8.927   6.832  0.0069  0.4110 -0.1688
  438ccc     O212354   7.458   9.274   6.825 -0.9110 -0.2003  0.0158
  438ccc     O312355   7.125   9.361   6.734  0.9676 -0.4536  0.1521
  438ccc     O412356   6.899   9.275   6.949  0.1672 -0.6676 -0.3591
  438ccc     C612357   6.932   9.010   7.121 -0.4515 -0.3707  0.0309
  438ccc     H612358   7.088   9.280   6.695 -3.5938  0.6519  1.5471
  438ccc     H712359   6.904   9.352   6.890  2.4297 -0.0291  0.5703
  438ccc     H812360   7.461   9.340   6.755 -0.1507  0.4747  0.6708
  438ccc     H912361   6.906   8.954   7.031 -1.1961 -1.3798  0.8543
  438ccc    H1012362   6.850   9.082   7.138 -1.3691 -0.5593 -3.0450
  438ccc     O512363   6.956   8.938   7.244  0.2736  0.3522 -0.2061
  438ccc    H1112364   6.901   8.858   7.247 -1.2423  1.3701  0.2911
  438ccc     O612365   7.212   8.987   7.045 -0.4182  0.4622  0.3542
  439ccc     C112366   7.362   4.514   5.940  0.0078 -0.5766 -0.4525
  439ccc     C212367   7.277   4.612   5.856 -0.1429 -0.2317 -0.1838
  439ccc     H112368   7.320   4.413   5.944  1.9655 -1.4128  0.0554
  439ccc     H212369   7.261   4.578   5.753 -0.2022  0.7343 -0.4970
  439ccc     C312370   7.139   4.627   5.917  1.1118 -0.1078  0.1666
  439ccc     C412371   7.134   4.670   6.067 -0.3045  0.1175  0.0315
  439ccc     C512372   7.229   4.571   6.138  0.5657  0.6061 -1.0761
  439ccc     H312373   7.178   4.771   6.062 -1.0402  0.4040 -3.7392
  439ccc     H412374   7.102   4.523   5.912 -0.9432  0.5677  0.2252
  439ccc     H512375   7.180   4.474   6.129  3.5528 -1.3293  1.4590
  439ccc     O112376   7.233   4.608   6.279  0.2749 -0.1457 -0.2164
  439ccc     O212377   6.997   4.669   6.116 -0.1297  0.2983 -0.0770
  439ccc     O312378   7.058   4.719   5.835 -0.1675 -0.6405 -0.1374
  439ccc     O412379   7.351   4.734   5.863  0.3199  0.2197 -0.0106
  439ccc     C612380   7.506   4.499   5.880 -0.5192  0.2520 -0.7515
  439ccc     H612381   6.969   4.716   5.874  0.2678 -1.7726  0.8391
  439ccc     H712382   7.306   4.797   5.804  1.4331  0.9895 -0.0623
  439ccc     H812383   6.994   4.717   6.201 -1.3982 -0.2859  0.2446
  439ccc     H912384   7.553   4.598   5.868 -0.5300  0.4429  0.6261
  439ccc    H1012385   7.501   4.447   5.783  0.7522 -0.5037 -0.4370
  439ccc     O512386   7.580   4.419   5.974  0.7912 -0.0775 -0.4951
  439ccc    H1112387   7.570   4.466   6.058 -1.4731 -0.3963 -0.5397
  439ccc     O612388   7.357   4.560   6.078 -0.2545 -0.0487 -0.0593
  440ccc     C112389   6.778   4.572   7.276 -0.2581  0.3523  0.8303
  440ccc     C212390   6.787   4.500   7.412  0.2279 -0.2075 -0.0051
  440ccc     H112391   6.710   4.515   7.212  0.7355  0.1755 -0.0990
  440ccc     H212392   6.688   4.497   7.458 -0.6753 -0.8472 -1.9004
  440ccc     C312393   6.839   4.356   7.388 -0.5402  0.0373  0.1325
  440ccc     C412394   6.972   4.347   7.323 -0.0589  0.1027  1.2263
  440ccc     C512395   6.962   4.419   7.187 -0.0675 -0.3786  0.0725
  440ccc     H312396   7.048   4.398   7.383 -1.1879  0.4432  2.3978
  440ccc     H412397   6.772   4.307   7.317  0.5523 -2.9813  1.0240
  440ccc     H512398   6.897   4.352   7.130  0.4646 -0.5774 -0.2954
  440ccc     O112399   7.101   4.435   7.128  0.2719  0.5386  0.1008
  440ccc     O212400   7.008   4.209   7.305  0.4881  0.0496 -0.2996
  440ccc     O312401   6.842   4.290   7.514  0.1916 -0.4155 -0.1680
  440ccc     O412402   6.886   4.572   7.491 -0.9038  0.3599 -0.3728
  440ccc     C612403   6.735   4.723   7.276 -0.1732  0.2167  0.2583
  440ccc     H612404   6.910   4.343   7.558  1.4131 -2.2361  0.2434
  440ccc     H712405   6.873   4.664   7.462  0.8540  0.4926 -0.8745
  440ccc     H812406   7.102   4.213   7.282  0.3487  1.7735 -0.6982
  440ccc     H912407   6.634   4.729   7.319  0.1164 -1.2914  1.2526
  440ccc    H1012408   6.734   4.767   7.176  1.3660  0.0085  0.1379
  440ccc     O512409   6.819   4.793   7.361  0.6473 -0.6064  0.2606
  440ccc    H1112410   6.835   4.880   7.319  1.1978 -1.5306 -1.5313
  440ccc     O612411   6.904   4.552   7.199 -0.0098 -0.4215 -0.5833
  441ccc     C112412   7.791   4.153   6.337 -0.3261  0.5033 -0.0562
  441ccc     C212413   7.800   4.096   6.483  0.3777 -0.1259  0.6689
  441ccc     H112414   7.800   4.067   6.269  1.5058 -0.9923  1.9539
  441ccc     H212415   7.713   4.036   6.511 -2.7294  3.1280 -1.1095
  441ccc     C312416   7.939   4.017   6.493  0.2339 -0.7471  0.1701
  441ccc     C412417   8.059   4.090   6.427  0.1879 -0.3602 -0.1268
  441ccc     C512418   8.027   4.160   6.292 -0.4769  0.7091  0.5124
  441ccc     H312419   8.097   4.170   6.491  0.8456 -0.5885 -0.2211
  441ccc     H412420   7.926   3.942   6.414  0.1538 -0.0408 -0.5006
  441ccc     H512421   8.011   4.089   6.209 -0.6136  0.6769  0.5658
  441ccc     O112422   8.131   4.254   6.269  0.3363 -0.1744  0.4096
  441ccc     O212423   8.165   3.996   6.408  0.6666  0.3455 -0.1446
  441ccc     O312424   7.959   3.954   6.622  0.3014  0.1594  0.3659
  441ccc     O412425   7.819   4.208   6.567  0.4333 -0.5003  0.1985
  441ccc     C612426   7.662   4.230   6.303  0.4726 -0.1539  0.1402
  441ccc     H612427   8.024   3.883   6.612  2.5316  1.7391  2.3853
  441ccc     H712428   7.884   4.188   6.637 -0.1238  3.2242  2.1018
  441ccc     H812429   8.214   4.004   6.492  1.6745  0.5020 -0.7357
  441ccc     H912430   7.573   4.168   6.287  0.3919  0.6284 -3.2560
  441ccc    H1012431   7.686   4.271   6.204 -0.4289 -0.6580 -0.2905
  441ccc     O512432   7.644   4.335   6.402  0.0581 -0.3059  0.5082
  441ccc    H1112433   7.720   4.320   6.461 -0.6266 -0.5264  1.3601
  441ccc     O612434   7.908   4.237   6.309 -0.7031  0.9265  0.0415
  442ccc     C112435   8.155   4.769   5.436  0.6006  0.3692  0.2288
  442ccc     C212436   8.150   4.901   5.357 -0.2700  0.0533 -0.2859
  442ccc     H112437   8.056   4.748   5.477 -0.0610 -3.3104 -2.7329
  442ccc     H212438   8.067   4.893   5.285 -2.2894 -1.6113  2.0461
  442ccc     C312439   8.113   5.009   5.453  0.8851 -0.6857  0.0809
  442ccc     C412440   8.217   5.029   5.563  0.2104  0.8148  1.0087
  442ccc     C512441   8.244   4.895   5.639 -0.4940  1.2361  0.2397
  442ccc     H312442   8.310   5.057   5.513 -1.0208  1.4810 -1.0470
  442ccc     H412443   8.019   4.979   5.501  1.3034  0.2930  1.5605
  442ccc     H512444   8.167   4.875   5.714 -2.0278  0.7019 -1.4041
  442ccc     O112445   8.376   4.905   5.708  0.3947  0.3840 -0.0639
  442ccc     O212446   8.177   5.133   5.657 -0.3596  0.5016  0.5767
  442ccc     O312447   8.086   5.131   5.371  0.0615 -0.0127  0.5355
  442ccc     O412448   8.277   4.926   5.298  0.4496  0.1898  0.1354
  442ccc     C612449   8.200   4.638   5.355  0.2763 -0.6360 -0.0860
  442ccc     H612450   8.041   5.190   5.434 -0.1300 -0.8163  1.1597
  442ccc     H712451   8.301   4.832   5.299  0.2687  0.1283  1.8705
  442ccc     H812452   8.231   5.207   5.625  0.4902  0.5346  1.9658
  442ccc     H912453   8.138   4.615   5.268  2.3355  0.3585 -1.9212
  442ccc    H1012454   8.203   4.552   5.423 -1.6943 -1.7611 -1.3221
  442ccc     O512455   8.329   4.664   5.307  0.1971  0.5588 -0.4785
  442ccc    H1112456   8.369   4.575   5.311  0.0646  0.5105  2.6532
  442ccc     O612457   8.253   4.784   5.545 -0.7844 -0.0454 -0.1196
  443ccc     C112458   7.947   6.804   5.474 -0.4069  0.3316  0.0621
  443ccc     C212459   7.835   6.907   5.481  0.5022  0.2191 -0.3143
  443ccc     H112460   7.981   6.815   5.371  1.1709  2.5776  0.7527
  443ccc     H212461   7.873   7.007   5.460  1.0225  0.1799  0.4010
  443ccc     C312462   7.721   6.864   5.379  0.1936 -0.6470  0.0799
  443ccc     C412463   7.688   6.709   5.394  0.3443 -0.7240 -0.4688
  443ccc     C512464   7.807   6.612   5.398  0.4909 -0.4687 -0.1498
  443ccc     H312465   7.642   6.710   5.493  0.5294  1.0129 -0.3694
  443ccc     H412466   7.758   6.868   5.276  2.5530  0.5480  0.8919
  443ccc     H512467   7.849   6.597   5.297  0.5676 -1.0925 -0.0313
  443ccc     O112468   7.776   6.477   5.455 -0.3196 -0.4159  0.1203
  443ccc     O212469   7.587   6.669   5.295 -0.0897  0.2147 -0.1127
  443ccc     O312470   7.599   6.941   5.381 -0.4035 -0.7259 -0.5921
  443ccc     O412471   7.766   6.903   5.608 -0.3790  0.2800  0.4990
  443ccc     C612472   8.062   6.834   5.569  1.2412  0.6049  0.1495
  443ccc     H612473   7.568   6.946   5.473  0.0634  0.1326 -0.4682
  443ccc     H712474   7.839   6.903   5.673 -0.2827  0.1034  0.3904
  443ccc     H812475   7.543   6.597   5.344 -2.4526  0.8163 -1.2469
  443ccc     H912476   8.118   6.909   5.511 -0.3423  1.1994 -0.6733
  443ccc    H1012477   8.124   6.743   5.573  0.0584 -0.4284 -2.9208
  443ccc     O512478   8.015   6.866   5.699  0.8744 -0.4146 -0.3729
  443ccc    H1112479   8.036   6.782   5.741 -0.7828 -1.0439 -0.7099
  443ccc     O612480   7.901   6.670   5.496 -0.3889  0.1067 -0.5084
  444ccc     C112481   8.183   5.445   5.291 -0.7892 -0.3749  0.1583
  444ccc     C212482   8.140   5.373   5.164  0.0374 -0.5810  0.4403
  444ccc     H112483   8.145   5.386   5.376 -2.3419 -0.9856 -0.9115
  444ccc     H212484   8.172   5.268   5.156 -2.1851 -1.2742  0.0621
  444ccc     C312485   7.982   5.367   5.157 -0.8537 -0.5639 -0.3376
  444ccc     C412486   7.922   5.510   5.167 -0.3588 -0.4275  0.2802
  444ccc     C512487   7.984   5.583   5.293  0.2678  0.0370 -0.9525
  444ccc     H312488   7.944   5.565   5.075  0.3830 -1.0857  0.0586
  444ccc     H412489   7.954   5.298   5.238 -1.3454 -1.7714 -1.4784
  444ccc     H512490   7.936   5.549   5.385 -0.0099 -1.0394 -1.4749
  444ccc     O112491   7.957   5.719   5.273 -0.1328  0.3485  0.6656
  444ccc     O212492   7.780   5.508   5.173 -0.2038 -0.0388 -0.2045
  444ccc     O312493   7.939   5.299   5.031 -0.0876 -0.2798  0.0588
  444ccc     O412494   8.197   5.445   5.055  0.1442 -0.0922  0.1061
  444ccc     C612495   8.338   5.456   5.300  0.8834  0.5356 -0.0113
  444ccc     H612496   7.900   5.367   4.973 -0.1319 -0.8936 -0.6493
  444ccc     H712497   8.153   5.405   4.978  1.2500  0.6838 -0.9768
  444ccc     H812498   7.763   5.459   5.256  1.6421  1.0636  0.9198
  444ccc     H912499   8.385   5.504   5.213  1.3304 -1.1343 -0.7277
  444ccc    H1012500   8.366   5.351   5.291 -1.4385 -0.2355  1.0434
  444ccc     O512501   8.366   5.523   5.422  0.7007  0.6133 -0.0296
  444ccc    H1112502   8.411   5.606   5.398 -0.8284  1.3993 -0.3294
  444ccc     O612503   8.126   5.576   5.305 -0.6358  0.0547  0.4633
  445ccc     C112504   8.435   6.131   5.712 -0.3991  0.5190  0.6906
  445ccc     C212505   8.431   6.271   5.654 -0.0461 -0.1814 -0.6568
  445ccc     H112506   8.364   6.074   5.652 -1.8730  4.2453 -1.4831
  445ccc     H212507   8.469   6.282   5.551  0.0212 -1.3341 -0.7704
  445ccc     C312508   8.284   6.328   5.659 -0.0258  0.2961  0.5350
  445ccc     C412509   8.242   6.334   5.811  0.3255 -0.0259 -0.6381
  445ccc     C512510   8.252   6.194   5.879  0.1826  0.3353  0.2469
  445ccc     H312511   8.307   6.409   5.857 -1.4404  0.5870  0.9648
  445ccc     H412512   8.218   6.256   5.609  1.7451 -1.9862  1.3340
  445ccc     H512513   8.174   6.136   5.828  0.1849 -0.0893  0.7135
  445ccc     O112514   8.237   6.200   6.020  0.0991  0.0014  0.5656
  445ccc     O212515   8.107   6.388   5.811  0.3450 -0.3199 -0.0639
  445ccc     O312516   8.277   6.457   5.590  0.6529 -0.6629 -0.4150
  445ccc     O412517   8.521   6.352   5.723 -0.0408  0.1222  0.0591
  445ccc     C612518   8.570   6.057   5.705  0.3024 -0.1510 -0.6692
  445ccc     H612519   8.287   6.449   5.494  3.0571 -0.9542 -0.1975
  445ccc     H712520   8.576   6.275   5.746 -0.7482 -0.7312 -0.9884
  445ccc     H812521   8.121   6.474   5.768 -1.2947 -0.1886 -0.3965
  445ccc     H912522   8.608   6.056   5.602  1.6394 -1.1240 -0.1970
  445ccc    H1012523   8.566   5.954   5.743 -0.3907 -0.2824 -1.0904
  445ccc     O512524   8.661   6.130   5.780  0.3410 -0.8750 -0.7804
  445ccc    H1112525   8.658   6.096   5.871 -1.2707 -1.8475 -1.1686
  445ccc     O612526   8.381   6.138   5.850 -0.5056  0.1266  0.3568
  446ccc     C112527   8.865   5.609   6.686 -0.4326 -0.9570  0.9831
  446ccc     C212528   8.941   5.485   6.628 -0.2911  0.5364  0.1164
  446ccc     H112529   8.827   5.584   6.786  2.9061  0.1702  2.6656
  446ccc     H212530   9.021   5.472   6.702  0.3818  1.9205 -0.3360
  446ccc     C312531   8.839   5.364   6.639 -0.2465  0.1506  0.8269
  446ccc     C412532   8.717   5.393   6.554  0.0970 -0.0228 -0.4828
  446ccc     C512533   8.649   5.523   6.591 -0.2651  0.0393 -0.3027
  446ccc     H312534   8.755   5.391   6.451  2.0972 -0.6212  0.2268
  446ccc     H412535   8.805   5.375   6.742 -1.0687  2.3543  0.3694
  446ccc     H512536   8.598   5.520   6.688  0.2880 -0.4850 -0.0202
  446ccc     O112537   8.554   5.546   6.485  0.1320  0.2511 -0.1259
  446ccc     O212538   8.625   5.283   6.580  0.3728 -0.2638  0.1202
  446ccc     O312539   8.896   5.225   6.615  0.0133 -0.1813  0.1090
  446ccc     O412540   8.995   5.503   6.504  0.0617 -0.4256  0.2234
  446ccc     C612541   8.954   5.739   6.691  0.5838  0.1839 -0.5629
  446ccc     H612542   8.823   5.163   6.633  0.1105 -0.3217  0.0180
  446ccc     H712543   9.069   5.564   6.521 -1.9863  2.1214  0.6330
  446ccc     H812544   8.573   5.276   6.498 -0.5680  1.8022  0.4975
  446ccc     H912545   8.958   5.773   6.587 -0.2315  1.2536 -0.2629
  446ccc    H1012546   9.052   5.723   6.735  0.1756 -0.4853  0.1217
  446ccc     O512547   8.875   5.842   6.761 -0.1251  0.5525 -0.7157
  446ccc    H1112548   8.827   5.892   6.693 -0.6616 -0.4931 -1.1419
  446ccc     O612549   8.747   5.627   6.599 -0.9135 -0.4190 -0.2985
  447ccc     C112550   5.002  10.318  10.705  0.0018 -0.4846  0.8806
  447ccc     C212551   5.075  10.392  10.592 -0.1517  0.2614 -0.0411
  447ccc     H112552   5.041  10.356  10.800  1.2794  0.0541  0.1567
  447ccc     H212553   5.050  10.499  10.596 -0.7082  0.1981 -1.3565
  447ccc     C312554   5.228  10.364  10.612 -0.2707  0.1616 -0.1556
  447ccc     C412555   5.259  10.212  10.623 -0.0160 -0.2588 -0.3202
  447ccc     C512556   5.179  10.137  10.736  0.4037 -0.5364  0.0237
  447ccc     H312557   5.236  10.153  10.533 -1.4147 -1.2683  0.6395
  447ccc     H412558   5.267  10.406  10.706 -0.0254 -0.0036 -0.1834
  447ccc     H512559   5.215  10.160  10.837  1.1980  0.9524 -0.5687
  447ccc     O112560   5.190   9.992  10.725 -0.4762  0.8098  0.2915
  447ccc     O212561   5.400  10.202  10.656 -0.0960  0.3066  0.1974
  447ccc     O312562   5.312  10.426  10.516 -0.3345 -0.1164  0.0942
  447ccc     O412563   5.023  10.342  10.466  0.2603  0.5310  0.3866
  447ccc     C612564   4.849  10.343  10.706 -0.1834 -0.0283 -0.4237
  447ccc     H612565   5.300  10.523  10.519 -0.4139 -0.1334  0.3565
  447ccc     H712566   4.947  10.296  10.506 -1.1664  2.2026 -0.2614
  447ccc     H812567   5.431  10.285  10.617  2.6435  0.0737  1.6359
  447ccc     H912568   4.830  10.449  10.687  0.9784 -0.1184 -2.3152
  447ccc    H1012569   4.812  10.316  10.805  0.9711  2.0174  0.6251
  447ccc     O512570   4.802  10.263  10.602 -0.2604  0.3524  0.3488
  447ccc    H1112571   4.775  10.178  10.639  0.5353 -0.9396 -1.8626
  447ccc     O612572   5.036  10.174  10.708 -0.5088  0.3426  0.2667
  448ccc     C112573   4.491   9.430  11.342  0.9261 -0.0551 -0.3469
  448ccc     C212574   4.403   9.303  11.326 -0.5131 -0.5869  0.0653
  448ccc     H112575   4.441   9.516  11.297 -3.4949 -1.0497  2.1397
  448ccc     H212576   4.306   9.327  11.372 -0.5483 -3.4664  1.7201
  448ccc     C312577   4.396   9.270  11.180  0.7470  0.1914  0.4076
  448ccc     C412578   4.540   9.266  11.107  0.2819  0.6293  0.5347
  448ccc     C512579   4.634   9.381  11.150  0.4015  1.0161 -0.1290
  448ccc     H312580   4.585   9.168  11.127 -0.6777  0.6160  3.0576
  448ccc     H412581   4.346   9.356  11.134  0.4806  0.3222  0.9334
  448ccc     H512582   4.617   9.464  11.080 -3.8081 -0.8371 -1.6516
  448ccc     O112583   4.763   9.320  11.134  0.0164  0.5064 -0.2516
  448ccc     O212584   4.507   9.264  10.973  0.1198  0.5420  0.4061
  448ccc     O312585   4.330   9.138  11.156 -0.1649  0.4779 -0.1751
  448ccc     O412586   4.469   9.195  11.396  0.2328  0.0131  0.2438
  448ccc     C612587   4.506   9.477  11.488  0.2923  0.6015 -0.0884
  448ccc     H612588   4.393   9.069  11.182  1.2852  1.5651 -0.6859
  448ccc     H712589   4.511   9.258  11.458  0.1450  0.5917 -0.2813
  448ccc     H812590   4.517   9.170  10.951 -1.6830  0.8003 -1.9109
  448ccc     H912591   4.411   9.467  11.542  0.0877 -0.2356 -0.6011
  448ccc    H1012592   4.533   9.584  11.486  2.3190  0.1181 -0.5836
  448ccc     O512593   4.601   9.394  11.554 -0.1184  0.1627  0.3305
  448ccc    H1112594   4.678   9.399  11.495  1.0471 -2.8989  1.3663
  448ccc     O612595   4.620   9.402  11.288 -0.1655 -0.1723 -0.5691
  449ccc     C112596   3.955   9.775   9.679 -0.0319  0.3692  0.3008
  449ccc     C212597   3.863   9.858   9.773 -0.5278  0.5892 -0.6165
  449ccc     H112598   3.884   9.699   9.642 -2.1754  2.6640 -0.5427
  449ccc     H212599   3.776   9.898   9.719 -1.2442  2.2415  1.6235
  449ccc     C312600   3.817   9.760   9.887 -0.4590  0.1970 -0.0173
  449ccc     C412601   3.937   9.695   9.960  0.3169  0.1474 -0.9119
  449ccc     C512602   4.029   9.615   9.855  0.2246  0.1364 -0.1495
  449ccc     H312603   3.998   9.776  10.001 -1.7270  1.1225  0.3247
  449ccc     H412604   3.749   9.683   9.848 -0.7877 -0.3863  1.6297
  449ccc     H512605   3.961   9.538   9.816  1.1486 -1.0228  0.4451
  449ccc     O112606   4.144   9.548   9.921 -0.0927 -0.4386  0.1222
  449ccc     O212607   3.878   9.608  10.055  0.2303 -0.1165 -0.0412
  449ccc     O312608   3.742   9.840   9.982  0.1956  0.1054  0.5681
  449ccc     O412609   3.961   9.957   9.808  0.3619 -0.5559  0.0762
  449ccc     C612610   4.005   9.846   9.554  0.1615 -0.5072 -0.0098
  449ccc     H612611   3.671   9.867   9.922 -0.7923 -2.7275  0.3491
  449ccc     H712612   3.918  10.005   9.880 -0.0205  1.0157 -1.1569
  449ccc     H812613   3.952   9.575  10.109  1.5652  2.3291 -0.2520
  449ccc     H912614   4.098   9.900   9.578  1.0170 -2.1030  0.3939
  449ccc    H1012615   3.932   9.918   9.515  0.3079  0.1966  0.9742
  449ccc     O512616   4.053   9.749   9.457  0.4816 -0.5657 -0.2639
  449ccc    H1112617   4.076   9.806   9.382 -0.4298  2.7802  1.8083
  449ccc     O612618   4.067   9.713   9.752  0.4524 -0.3819 -0.0027
  450ccc     C112619   4.612   9.995  10.262  0.6072 -0.1813 -0.2400
  450ccc     C212620   4.544  10.097  10.353 -0.6694  0.4503 -0.2814
  450ccc     H112621   4.590  10.017  10.156 -2.1635  1.5417  0.6097
  450ccc     H212622   4.584  10.196  10.331  1.9838 -0.5943 -0.6169
  450ccc     C312623   4.394  10.093  10.345  0.2009  0.3661  0.6129
  450ccc     C412624   4.338   9.947  10.355  0.9359  1.1041 -1.1614
  450ccc     C512625   4.407   9.850  10.260  0.4970 -0.5770  0.3011
  450ccc     H312626   4.365   9.914  10.456 -3.7396 -1.9333 -0.6121
  450ccc     H412627   4.368  10.128  10.244  0.8814  0.5298  0.4891
  450ccc     H512628   4.381   9.873  10.156  2.7745 -3.2523 -0.9933
  450ccc     O112629   4.371   9.709  10.294 -0.1983  0.2600 -0.2294
  450ccc     O212630   4.194   9.941  10.348  0.1892  0.0059  0.0292
  450ccc     O312631   4.335  10.173  10.450  0.3002  0.3433  0.2059
  450ccc     O412632   4.581  10.058  10.482 -0.6514 -0.2031  0.3543
  450ccc     C612633   4.768   9.990  10.271  0.1707  0.1684 -0.4948
  450ccc     H612634   4.256  10.219  10.418  1.1494  1.6041 -0.1683
  450ccc     H712635   4.667  10.019  10.462  0.1253 -0.5715  3.7927
  450ccc     H812636   4.184   9.945  10.252  1.3216  0.3170 -0.0960
  450ccc     H912637   4.809  10.089  10.249  1.0554  0.0369  0.4900
  450ccc    H1012638   4.822   9.928  10.198  2.1070  1.6366 -0.3833
  450ccc     O512639   4.806   9.951  10.404 -0.5532  0.0768  0.3834
  450ccc    H1112640   4.902   9.950  10.417 -0.2514  3.1440 -0.8820
  450ccc     O612641   4.552   9.863  10.279 -0.3152 -0.0976  0.2129
  451ccc     C112642   5.738   9.569   9.882  0.6988 -0.0340  0.1808
  451ccc     C212643   5.846   9.550   9.990  0.3765  0.1700  0.1837
  451ccc     H112644   5.687   9.666   9.891 -0.8582 -0.7653 -0.3421
  451ccc     H212645   5.917   9.634   9.994  0.1640  0.3653 -0.1371
  451ccc     C312646   5.778   9.537  10.127  0.0196 -0.1629 -0.0411
  451ccc     C412647   5.660   9.432  10.129 -0.3460  0.6295 -0.4528
  451ccc     C512648   5.562   9.443  10.012 -0.3061 -0.4640 -0.0665
  451ccc     H312649   5.699   9.329  10.137 -2.1312 -0.0013  0.5898
  451ccc     H412650   5.747   9.638  10.156 -1.7846 -0.5340 -0.5378
  451ccc     H512651   5.499   9.533  10.023 -1.2790 -0.9143 -1.6015
  451ccc     O112652   5.492   9.322  10.004  0.1794 -0.2150 -0.1165
  451ccc     O212653   5.585   9.448  10.262 -0.4001  0.8478  0.1029
  451ccc     O312654   5.878   9.497  10.217  0.3564 -0.4884 -0.3635
  451ccc     O412655   5.913   9.426   9.970  0.8862 -0.2121 -0.0412
  451ccc     C612656   5.791   9.574   9.738  0.6550 -0.3572 -0.3001
  451ccc     H612657   5.910   9.418  10.170  0.2207 -1.1813  0.6917
  451ccc     H712658   5.928   9.420   9.874 -2.6352 -1.9094 -0.6774
  451ccc     H812659   5.536   9.364  10.271 -0.4214  0.9598  1.2734
  451ccc     H912660   5.806   9.677   9.702  1.4287 -0.7286 -1.0539
  451ccc    H1012661   5.723   9.531   9.664 -0.0946 -0.4242  0.4032
  451ccc     O512662   5.919   9.508   9.733 -0.1643 -0.1470 -0.8407
  451ccc    H1112663   5.927   9.502   9.636 -0.0658  0.2640 -0.8612
  451ccc     O612664   5.638   9.463   9.891 -0.9261 -0.4018  0.7073
  452ccc     C112665   4.797   9.255   9.183  0.1387  0.2896 -0.2168
  452ccc     C212666   4.826   9.259   9.028 -0.1348  0.3359  0.0410
  452ccc     H112667   4.786   9.359   9.214  0.5989  0.5960 -1.0490
  452ccc     H212668   4.746   9.322   8.986  0.2244  0.4185 -0.5171
  452ccc     C312669   4.957   9.335   8.991  0.1707  0.2273  0.0095
  452ccc     C412670   5.074   9.284   9.082 -0.2061  0.1279 -0.4989
  452ccc     C512671   5.031   9.269   9.230 -0.0402 -0.0047 -0.0107
  452ccc     H312672   5.101   9.183   9.049 -0.8730 -0.2115 -0.0348
  452ccc     H412673   4.926   9.431   9.036 -0.8277  0.1596 -0.4957
  452ccc     H512674   5.006   9.363   9.279 -1.1171 -0.1516 -0.2472
  452ccc     O112675   5.141   9.208   9.305 -0.5729  0.2093 -0.0835
  452ccc     O212676   5.181   9.377   9.070  0.1363  0.0139 -0.5063
  452ccc     O312677   4.994   9.343   8.851 -0.3893 -0.0680  0.0357
  452ccc     O412678   4.832   9.124   8.979 -0.0281  0.1553  0.3682
  452ccc     C612679   4.665   9.171   9.214  0.4969 -0.7064 -0.1000
  452ccc     H612680   5.048   9.264   8.833 -0.8101 -0.6220  1.1012
  452ccc     H712681   4.803   9.128   8.886 -2.3492 -2.0525  0.8809
  452ccc     H812682   5.258   9.323   9.094 -0.3666 -0.5448 -0.1084
  452ccc     H912683   4.696   9.070   9.185 -0.7899 -0.0445 -4.6944
  452ccc    H1012684   4.591   9.218   9.148 -0.4298 -1.9605  0.0068
  452ccc     O512685   4.637   9.180   9.346 -0.4989 -0.3444 -0.8198
  452ccc    H1112686   4.728   9.174   9.380 -1.2006 -0.0924  1.2072
  452ccc     O612687   4.909   9.193   9.243 -0.4647  0.1270  0.3135
  453ccc     C112688   5.388   9.022   9.021 -0.3735 -0.8586  0.1576
  453ccc     C212689   5.487   9.142   9.040  0.0316 -0.0473 -0.2015
  453ccc     H112690   5.447   8.941   8.976  0.1919  0.6464 -1.9896
  453ccc     H212691   5.575   9.104   9.092 -0.7145 -0.7835  0.5398
  453ccc     C312692   5.528   9.196   8.901 -0.0787 -0.0185 -0.8846
  453ccc     C412693   5.404   9.233   8.813 -0.1285  0.6924  0.6093
  453ccc     C512694   5.313   9.106   8.810 -0.5099 -0.4895  0.4066
  453ccc     H312695   5.339   9.310   8.856 -0.1422  0.0840  1.7051
  453ccc     H412696   5.576   9.111   8.851  1.0951  0.0257  0.1042
  453ccc     H512697   5.351   9.029   8.742 -2.5927 -0.0350 -1.4039
  453ccc     O112698   5.186   9.154   8.753  0.0094 -0.3955 -0.9156
  453ccc     O212699   5.448   9.274   8.681  0.2409  0.2226 -0.7613
  453ccc     O312700   5.619   9.311   8.914  0.1771 -0.1296 -0.2845
  453ccc     O412701   5.412   9.247   9.108  0.1694 -0.3162 -0.0626
  453ccc     C612702   5.328   8.977   9.156  0.0368 -0.0177  0.2902
  453ccc     H612703   5.567   9.385   8.951 -1.7429 -1.5177 -0.0268
  453ccc     H712704   5.485   9.295   9.150  0.1826 -0.5671  0.2055
  453ccc     H812705   5.495   9.359   8.688  1.8259 -0.6164 -0.8832
  453ccc     H912706   5.244   9.038   9.192  0.5524 -0.8790  3.2571
  453ccc    H1012707   5.411   8.980   9.228  1.0745  1.3163 -0.9074
  453ccc     O512708   5.283   8.842   9.150  0.8536 -0.7571  0.2320
  453ccc    H1112709   5.186   8.852   9.144  0.9625 -0.7308 -3.2218
  453ccc     O612710   5.278   9.065   8.939  0.1992 -0.0864  0.3827
  454ccc     C112711   4.628   8.589   8.014 -0.2457  0.5249  0.4131
  454ccc     C212712   4.474   8.468   8.053  0.1359  0.6769 -0.1598
  454ccc     H112713   4.654   8.569   7.909  2.9194 -0.9428  1.3587
  454ccc     H212714   4.431   8.424   7.963  1.3229 -1.8032  0.4038
  454ccc     C312715   4.490   8.319   8.183 -0.1391 -0.3838  0.0753
  454ccc     C412716   4.663   8.294   8.281  0.2634  0.3177  0.0391
  454ccc     C512717   4.820   8.417   8.234  0.0830  0.4086  0.5746
  454ccc     H312718   4.637   8.327   8.382  0.4455  0.3001  0.0917
  454ccc     H412719   4.473   8.226   8.128  0.5085  0.2018 -1.1544
  454ccc     H512720   4.880   8.347   8.175  0.6821  1.7383 -0.4341
  454ccc     O112721   4.910   8.441   8.347 -0.7716 -0.1140 -0.1646
  454ccc     O212722   4.694   8.155   8.310 -0.2209 -0.0802 -0.4232
  454ccc     O312723   4.374   8.314   8.269 -0.0510 -0.3389  0.2566
  454ccc     O412724   4.366   8.546   8.104  0.0038  0.5684  0.0235
  454ccc     C612725   4.602   8.739   7.999  0.1655 -0.8128 -0.9963
  454ccc     H612726   4.302   8.278   8.213 -0.7143 -1.0020  1.4978
  454ccc     H712727   4.331   8.480   8.167  2.2733 -0.6108  0.1557
  454ccc     H812728   4.636   8.123   8.381 -2.2078  2.1098 -0.9429
  454ccc     H912729   4.527   8.769   8.074 -1.1391 -0.5008 -2.3793
  454ccc    H1012730   4.571   8.768   7.898  0.1392 -1.2827 -1.1236
  454ccc     O512731   4.738   8.787   8.020  0.7196 -0.1977  0.0481
  454ccc    H1112732   4.764   8.709   8.072 -0.4007 -0.1010  0.7882
  454ccc     O612733   4.792   8.561   8.111 -0.0850 -0.0534 -0.3953
  455ccc     C112734   8.622   7.412   9.953 -0.0494  0.4691 -0.7180
  455ccc     C212735   8.749   7.470  10.013  0.5637 -0.3844 -0.2149
  455ccc     H112736   8.583   7.494   9.891 -0.7411 -0.2210 -1.2102
  455ccc     H212737   8.819   7.507   9.937  0.0711  1.1741  0.0477
  455ccc     C312738   8.710   7.604  10.100 -0.7957 -0.3166  0.0818
  455ccc     C412739   8.607   7.570  10.204 -0.5703  0.3453 -0.0603
  455ccc     C512740   8.490   7.492  10.148 -0.1940  0.6000 -0.3015
  455ccc     H312741   8.654   7.502  10.277 -1.8693 -0.4101  0.0972
  455ccc     H412742   8.657   7.672  10.032  0.7499  0.2986 -0.5549
  455ccc     H512743   8.431   7.567  10.093 -0.4749  0.0705 -0.7390
  455ccc     O112744   8.412   7.439  10.259  0.2626  0.1348 -0.5347
  455ccc     O212745   8.570   7.685  10.285  0.1719  0.2524 -0.1122
  455ccc     O312746   8.826   7.671  10.152  0.5444 -0.1998 -0.0669
  455ccc     O412747   8.811   7.366  10.099  0.1073  0.6142  0.1818
  455ccc     C612748   8.634   7.295   9.853 -0.6510 -0.0578 -0.8065
  455ccc     H612749   8.849   7.615  10.228  0.0360 -2.5713 -1.5461
  455ccc     H712750   8.779   7.287  10.053 -0.5141  0.7242  0.4100
  455ccc     H812751   8.493   7.656  10.336  0.5655 -2.3453 -0.7996
  455ccc     H912752   8.675   7.335   9.760 -3.3354  0.5553 -1.8217
  455ccc    H1012753   8.536   7.252   9.827 -0.3677 -0.7925 -0.6962
  455ccc     O512754   8.713   7.193   9.905 -0.0412  0.0963  0.7834
  455ccc    H1112755   8.678   7.109   9.870 -0.4047  1.1176 -1.4120
  455ccc     O612756   8.532   7.381  10.064 -0.1953 -0.4487  0.1135
  456ccc     C112757   8.424   6.760  11.067  0.2791 -0.3180 -0.0873
  456ccc     C212758   8.555   6.837  11.092 -0.0233 -0.0253  0.2205
  456ccc     H112759   8.442   6.671  11.006 -1.6256 -0.8080 -0.0059
  456ccc     H212760   8.622   6.757  11.123 -1.0397 -0.7070  0.7191
  456ccc     C312761   8.618   6.903  10.966 -0.1093  0.7240  0.0401
  456ccc     C412762   8.509   6.993  10.902 -0.4415 -0.0221 -0.4623
  456ccc     C512763   8.383   6.905  10.869 -0.6836 -0.4972 -0.3100
  456ccc     H312764   8.489   7.073  10.974  1.3816  0.3378 -0.3222
  456ccc     H412765   8.640   6.826  10.891 -2.2985  0.6736 -0.6162
  456ccc     H512766   8.398   6.818  10.804 -1.1021  0.4653 -1.7419
  456ccc     O112767   8.279   6.988  10.820  0.2738  0.1047 -0.0629
  456ccc     O212768   8.563   7.045  10.773 -0.6097 -0.5098  0.0645
  456ccc     O312769   8.728   6.984  10.988 -0.1546 -0.1151 -0.1030
  456ccc     O412770   8.531   6.931  11.195 -0.2907  0.2819 -0.0684
  456ccc     C612771   8.362   6.712  11.196  0.2078  0.0161 -0.4360
  456ccc     H612772   8.792   6.939  11.045 -1.1449 -0.8020  0.4896
  456ccc     H712773   8.618   6.947  11.235  0.7040  0.5802 -2.2175
  456ccc     H812774   8.653   7.080  10.787 -0.7624  0.7563 -1.6885
  456ccc     H912775   8.333   6.794  11.263  1.8643  0.0742  0.2781
  456ccc    H1012776   8.424   6.644  11.256 -0.7418  0.3810  1.0074
  456ccc     O512777   8.250   6.637  11.152 -0.2316 -0.2912  0.3244
  456ccc    H1112778   8.169   6.690  11.141 -1.8019 -2.9181 -2.4738
  456ccc     O612779   8.340   6.855  11.000  0.3068 -0.0396  0.4312
  457ccc     C112780   7.545   8.139  12.218 -0.4378  0.0310 -0.5309
  457ccc     C212781   7.567   8.081  12.360  0.6510  0.4805 -0.1197
  457ccc     H112782   7.471   8.218  12.236  1.6454  1.7620  0.9718
  457ccc     H212783   7.604   8.156  12.431  0.4159  1.5302 -1.0655
  457ccc     C312784   7.434   8.021  12.421 -0.3319  0.3197  0.8932
  457ccc     C412785   7.372   7.928  12.315 -0.0627  0.2407  0.5688
  457ccc     C512786   7.365   7.990  12.168 -0.1803 -0.1226 -0.3914
  457ccc     H312787   7.431   7.835  12.309 -1.2412 -0.4881 -0.2405
  457ccc     H412788   7.374   8.111  12.440  3.4621  3.1229  0.9027
  457ccc     H512789   7.297   8.075  12.183  0.8043  0.5610  0.4153
  457ccc     O112790   7.316   7.892  12.071 -0.0436 -0.3263 -0.9393
  457ccc     O212791   7.236   7.892  12.349  0.2903 -0.5212 -0.3156
  457ccc     O312792   7.461   7.950  12.544 -0.5779 -0.1779  0.4156
  457ccc     O412793   7.674   7.988  12.339  0.0435  0.0320 -0.0321
  457ccc     C612794   7.669   8.202  12.157  0.4244 -0.3315 -0.1456
  457ccc     H612795   7.375   7.937  12.588  0.1072  1.6890  2.5134
  457ccc     H712796   7.717   8.015  12.256  2.0755 -2.6202  0.0188
  457ccc     H812797   7.226   7.900  12.446 -1.5100 -1.6855 -0.3527
  457ccc     H912798   7.722   8.261  12.232 -0.0643  0.8477 -0.7057
  457ccc    H1012799   7.628   8.266  12.078 -1.6188 -0.6949  0.5715
  457ccc     O512800   7.757   8.100  12.112 -0.1001 -0.1774  0.1362
  457ccc    H1112801   7.716   8.075  12.027 -2.1114 -0.0852  1.0120
  457ccc     O612802   7.495   8.044  12.129  0.6928  0.2131 -0.5279
  458ccc     C112803   6.710   7.368  11.851 -0.0160 -0.7718  0.1859
  458ccc     C212804   6.757   7.297  11.974  0.4235 -0.4448 -0.3861
  458ccc     H112805   6.789   7.351  11.777  0.3260  0.3291  0.2717
  458ccc     H212806   6.780   7.197  11.937  1.8087  0.9896 -3.8314
  458ccc     C312807   6.884   7.362  12.037  0.9724  0.5662  0.0128
  458ccc     C412808   6.871   7.513  12.044  0.6046 -0.2521  0.5235
  458ccc     C512809   6.810   7.567  11.911 -0.6282 -0.9759  0.2095
  458ccc     H312810   6.802   7.541  12.125 -0.4594 -1.5230  0.0963
  458ccc     H412811   6.974   7.338  11.979  0.9695  2.5108 -0.8502
  458ccc     H512812   6.877   7.538  11.829 -0.3233  3.2083 -1.2668
  458ccc     O112813   6.793   7.709  11.932 -0.1096  0.0678 -0.1517
  458ccc     O212814   7.002   7.573  12.054  0.1351  0.5545 -0.1046
  458ccc     O312815   6.903   7.287  12.165 -0.2929  0.7245 -0.0129
  458ccc     O412816   6.646   7.303  12.063 -0.1195  0.1055 -0.0475
  458ccc     C612817   6.586   7.290  11.805 -0.8679  0.1518  0.5282
  458ccc     H612818   6.996   7.294  12.193  0.0950 -0.1445 -0.9807
  458ccc     H712819   6.682   7.263  12.144  2.0952  1.0230 -0.5136
  458ccc     H812820   6.990   7.668  12.070 -1.7271  0.6915 -1.8152
  458ccc     H912821   6.495   7.352  11.809  0.1356  2.2474 -3.3996
  458ccc    H1012822   6.585   7.195  11.859  2.8340 -0.3628 -0.0907
  458ccc     O512823   6.606   7.260  11.662  0.3404 -0.9767  0.3190
  458ccc    H1112824   6.518   7.260  11.622 -0.2242  1.9971  1.3598
  458ccc     O612825   6.683   7.506  11.879 -0.1144 -0.2146 -0.1440
  459ccc     C112826   8.034   8.812   8.775 -0.7162 -0.0226 -0.5094
  459ccc     C212827   8.085   8.818   8.627 -0.4404  0.0196 -0.0835
  459ccc     H112828   8.094   8.879   8.838 -2.4262  0.5815  0.5653
  459ccc     H212829   8.079   8.916   8.579  0.6251 -0.5303 -1.4001
  459ccc     C312830   8.230   8.781   8.620  0.6160 -0.1473  0.1376
  459ccc     C412831   8.263   8.649   8.705  0.4835 -0.2404 -0.2140
  459ccc     C512832   8.191   8.640   8.850  0.3885 -0.1530  0.3806
  459ccc     H312833   8.221   8.573   8.638  1.6103  1.0899 -2.5222
  459ccc     H412834   8.271   8.865   8.678 -0.4662 -1.9625  3.8348
  459ccc     H512835   8.234   8.716   8.916  1.1883  0.6600 -1.0334
  459ccc     O112836   8.197   8.504   8.908 -0.3517 -0.4053  0.0727
  459ccc     O212837   8.410   8.642   8.717 -0.2401  0.0558 -0.2868
  459ccc     O312838   8.280   8.775   8.487  0.2139  0.8301 -0.4572
  459ccc     O412839   8.006   8.730   8.558  1.0775  0.0780  0.3730
  459ccc     C612840   7.887   8.866   8.795 -0.3314 -0.0514  0.9979
  459ccc     H612841   8.287   8.687   8.446  1.7876  0.8272 -0.2540
  459ccc     H712842   7.920   8.731   8.604  0.1617 -1.1536 -1.2309
  459ccc     H812843   8.437   8.628   8.624 -0.8593 -1.4462 -0.2696
  459ccc     H912844   7.873   8.970   8.762 -1.1502 -0.0267  1.4150
  459ccc    H1012845   7.862   8.860   8.902 -1.5754  0.3917  0.7419
  459ccc     O512846   7.799   8.784   8.710  0.5003  0.3092 -0.9440
  459ccc    H1112847   7.710   8.790   8.749 -0.3417 -1.8529 -2.3392
  459ccc     O612848   8.050   8.678   8.833  0.2939 -0.0592 -0.2965
  460ccc     C112849   8.867   8.701   9.591  0.1454  1.0880 -0.4663
  460ccc     C212850   8.901   8.814   9.695  0.3826 -0.0666 -0.3859
  460ccc     H112851   8.902   8.737   9.494 -2.3950  3.2957 -0.6610
  460ccc     H212852   9.006   8.845   9.703 -0.0325  0.8326  2.7213
  460ccc     C312853   8.814   8.937   9.663  0.1934  0.9426 -0.0010
  460ccc     C412854   8.665   8.901   9.653  0.3935  0.7923  0.1877
  460ccc     C512855   8.646   8.797   9.533  0.1756  0.1609 -0.4426
  460ccc     H312856   8.635   8.858   9.749 -1.5599 -0.4586 -0.9255
  460ccc     H412857   8.850   8.955   9.560  0.7290 -1.5428 -0.3137
  460ccc     H512858   8.678   8.835   9.436 -0.2396 -0.9612 -1.0416
  460ccc     O112859   8.505   8.763   9.518  0.0606  0.1433  0.8880
  460ccc     O212860   8.597   9.031   9.633 -0.9748 -0.0600 -0.3106
  460ccc     O312861   8.832   9.050   9.745 -0.0625 -0.2725 -0.5609
  460ccc     O412862   8.869   8.765   9.824  0.5750 -0.1356 -0.2715
  460ccc     C612863   8.932   8.567   9.616 -0.2758 -1.2539 -0.9669
  460ccc     H612864   8.745   9.092   9.738 -0.2369 -0.8981 -2.7559
  460ccc     H712865   8.877   8.848   9.874 -0.6670  0.3782 -0.8915
  460ccc     H812866   8.522   9.006   9.575  0.0486 -2.1121 -0.8520
  460ccc     H912867   8.897   8.526   9.712 -3.2761  1.1937 -0.8603
  460ccc    H1012868   9.039   8.582   9.635 -0.5684 -1.4322  1.0709
  460ccc     O512869   8.909   8.484   9.506  0.0924  0.0898 -0.4873
  460ccc    H1112870   8.886   8.545   9.434 -0.0065  0.5722 -0.0588
  460ccc     O612871   8.722   8.680   9.573 -0.1762  0.2283 -0.0015
  461ccc     C112872   6.513   9.262   9.971  0.2640  0.0568  0.1256
  461ccc     C212873   6.371   9.199   9.984  0.7725 -0.0528 -1.0754
  461ccc     H112874   6.515   9.304   9.870 -0.0700 -0.3934 -0.0714
  461ccc     H212875   6.291   9.271   9.962 -1.1076 -1.2060  1.3697
  461ccc     C312876   6.357   9.090   9.877 -0.5907  0.4540  0.3915
  461ccc     C412877   6.470   8.981   9.884 -0.0296  0.2553 -0.3842
  461ccc     C512878   6.617   9.045   9.886 -0.3715 -0.5109 -0.0624
  461ccc     H312879   6.443   8.917   9.968 -3.4557  0.3500 -1.2714
  461ccc     H412880   6.370   9.144   9.782 -1.1737  0.3953  0.2748
  461ccc     H512881   6.640   9.075   9.783  0.3005 -4.2397 -1.1255
  461ccc     O112882   6.710   8.940   9.924 -0.1393 -0.0170 -0.3071
  461ccc     O212883   6.450   8.891   9.774  0.1324  0.1551  0.0723
  461ccc     O312884   6.222   9.027   9.866 -0.0716  0.2649 -0.3189
  461ccc     O412885   6.361   9.144  10.119 -0.2092 -0.0660  0.1146
  461ccc     C612886   6.541   9.372  10.068  0.1526 -0.1262 -0.1214
  461ccc     H612887   6.217   8.957   9.800  0.3712 -1.4509  1.3716
  461ccc     H712888   6.406   9.209  10.177 -0.4554 -1.2694  1.7382
  461ccc     H812889   6.495   8.806   9.785  0.6524  0.3621 -0.3916
  461ccc     H912890   6.460   9.446  10.064 -0.1112 -0.3759  0.4855
  461ccc    H1012891   6.643   9.410  10.054  0.9267 -2.7252 -2.2827
  461ccc     O512892   6.532   9.322  10.202 -0.1232  0.4422 -0.2641
  461ccc    H1112893   6.528   9.406  10.251  3.2204  0.9345 -0.6505
  461ccc     O612894   6.617   9.161   9.973 -0.0525 -0.0670 -0.3339
  462ccc     C112895   6.714   9.446  10.657 -0.4456  0.3429  0.3788
  462ccc     C212896   6.806   9.425  10.776 -0.9494  0.4200  0.4229
  462ccc     H112897   6.672   9.346  10.640 -0.3520  0.6982 -2.5258
  462ccc     H212898   6.750   9.365  10.849 -0.9623  0.5925  0.5551
  462ccc     C312899   6.935   9.345  10.742  0.2063  0.5194  0.6562
  462ccc     C412900   6.995   9.379  10.600  0.4501 -0.5755 -0.5963
  462ccc     C512901   6.879   9.391  10.495  0.4268 -0.1387  0.6758
  462ccc     H312902   7.040   9.479  10.607 -1.2302  0.1168  1.2163
  462ccc     H412903   6.908   9.239  10.739 -1.8034  1.0064  0.0075
  462ccc     H512904   6.838   9.290  10.481 -1.4588  0.6457  0.2961
  462ccc     O112905   6.942   9.432  10.370 -0.2358 -0.1645  0.1953
  462ccc     O212906   7.087   9.274  10.565  0.2868  0.4112 -0.1290
  462ccc     O312907   7.026   9.364  10.855  0.5993  0.2587 -0.0233
  462ccc     O412908   6.845   9.562  10.815  0.5614  0.0532 -0.1018
  462ccc     C612909   6.582   9.523  10.684  0.5284  0.2364 -0.1611
  462ccc     H612910   6.987   9.444  10.894 -0.3429  0.1713 -0.7574
  462ccc     H712911   6.768   9.613  10.784  0.8850  0.9928  0.5917
  462ccc     H812912   7.150   9.329  10.515 -0.5220  0.7776 -0.7553
  462ccc     H912913   6.527   9.463  10.758  0.2543 -1.0895 -1.3886
  462ccc    H1012914   6.523   9.523  10.591  0.3476 -2.3589 -0.1077
  462ccc     O512915   6.595   9.657  10.726  0.0077 -0.2901 -0.3781
  462ccc    H1112916   6.533   9.703  10.666 -0.6499  2.3737  2.1088
  462ccc     O612917   6.780   9.486  10.539 -0.5151 -0.4990  0.3366
  463ccc     C112918   5.110   5.997   8.594  0.7756 -0.0826 -0.0198
  463ccc     C212919   4.986   5.961   8.498  0.1371 -0.5447 -0.4865
  463ccc     H112920   5.070   6.018   8.693  2.5397 -0.9499  0.9295
  463ccc     H212921   4.936   5.873   8.541  0.0658 -0.6274 -0.7382
  463ccc     C312922   4.885   6.080   8.484 -0.3182  0.9331 -0.1515
  463ccc     C412923   4.955   6.207   8.440 -0.5304  0.3312  0.3728
  463ccc     C512924   5.081   6.232   8.538 -0.3874 -0.0038  0.2515
  463ccc     H312925   4.997   6.190   8.340 -0.2822  1.2799  0.3046
  463ccc     H412926   4.836   6.105   8.579 -2.4935  0.0095 -0.9511
  463ccc     H512927   5.056   6.260   8.641 -2.2182 -0.6905  0.0375
  463ccc     O112928   5.151   6.342   8.477  0.4920 -0.3697  0.5629
  463ccc     O212929   4.856   6.314   8.438  0.1368 -0.4620 -0.5924
  463ccc     O312930   4.787   6.038   8.381 -0.3137  0.2161 -0.5926
  463ccc     O412931   5.040   5.932   8.367  0.7514 -0.3863 -0.1836
  463ccc     C612932   5.220   5.893   8.607 -0.2127 -0.5825 -0.2908
  463ccc     H612933   4.710   6.097   8.389  0.2661  0.8054  0.9548
  463ccc     H712934   4.958   5.915   8.318 -0.9838  1.1786  1.9912
  463ccc     H812935   4.907   6.386   8.397  1.0639  0.1115  1.4219
  463ccc     H912936   5.277   5.870   8.516  1.6485  1.3397  0.3179
  463ccc    H1012937   5.187   5.797   8.649  0.2868 -1.3695 -1.6079
  463ccc     O512938   5.310   5.941   8.702  0.0698  0.6227 -0.4049
  463ccc    H1112939   5.255   5.958   8.781  0.1384 -0.2666 -0.1564
  463ccc     O612940   5.170   6.120   8.548 -0.6177  0.0888 -0.0384
  464ccc     C112941   6.313   6.599   8.222 -0.9738  0.5538  0.1772
  464ccc     C212942   6.396   6.619   8.355  0.2948 -0.1790 -0.4316
  464ccc     H112943   6.339   6.687   8.162  2.5183 -0.7799 -0.5045
  464ccc     H212944   6.502   6.643   8.341  1.0155 -1.9507  1.5004
  464ccc     C312945   6.328   6.729   8.443  0.5812 -0.2303  0.0234
  464ccc     C412946   6.174   6.716   8.452  0.0530 -0.7114 -0.1952
  464ccc     C512947   6.113   6.697   8.308 -0.3428 -0.8842 -0.1333
  464ccc     H312948   6.151   6.621   8.502 -0.6828 -0.3228  0.2309
  464ccc     H412949   6.352   6.829   8.406 -2.0048  0.8586  1.0443
  464ccc     H512950   6.131   6.792   8.255  1.1278 -1.5844 -0.9492
  464ccc     O112951   5.970   6.680   8.323 -0.1809  0.2991 -0.3080
  464ccc     O212952   6.121   6.840   8.512 -1.0939  0.2337  0.3435
  464ccc     O312953   6.374   6.712   8.574  0.2898 -0.0529 -0.3093
  464ccc     O412954   6.392   6.491   8.426 -0.3676 -0.0039  0.1066
  464ccc     C612955   6.373   6.481   8.132 -0.4579  0.3412  0.6273
  464ccc     H612956   6.471   6.719   8.573  0.3253 -0.3219  0.4671
  464ccc     H712957   6.384   6.528   8.516  2.7192  1.1931 -0.0008
  464ccc     H812958   6.185   6.873   8.577 -0.6716 -0.7601  0.4568
  464ccc     H912959   6.354   6.388   8.188  0.9627 -0.4745 -0.1677
  464ccc    H1012960   6.481   6.487   8.113 -0.3044 -0.3096  1.2299
  464ccc     O512961   6.297   6.485   8.017 -0.6239 -0.0179  0.3194
  464ccc    H1112962   6.206   6.476   8.049 -0.2798 -2.9841  0.7225
  464ccc     O612963   6.173   6.584   8.237 -0.2020 -0.5698 -0.4867
  465ccc     C112964   4.861   8.470   8.880 -0.3968  0.2444 -0.5185
  465ccc     C212965   4.725   8.387   8.892 -0.2059 -0.0775 -0.4702
  465ccc     H112966   4.866   8.513   8.779  0.0877 -0.2901 -0.7314
  465ccc     H212967   4.632   8.444   8.881 -0.3524  0.0543  1.1977
  465ccc     C312968   4.724   8.280   8.777  0.3827 -0.0774  0.3234
  465ccc     C412969   4.859   8.202   8.785  0.0259  0.4680  0.6939
  465ccc     C512970   4.985   8.283   8.771  0.3221 -0.3699  0.6673
  465ccc     H312971   4.861   8.161   8.887 -0.9584  1.4530  1.1351
  465ccc     H412972   4.724   8.340   8.685 -1.2808  1.0021  0.9929
  465ccc     H512973   4.988   8.332   8.673 -3.7666 -0.7230  0.2013
  465ccc     O112974   5.101   8.201   8.788  0.1614  0.3130 -0.3882
  465ccc     O212975   4.847   8.099   8.685 -0.2572  0.5615  0.1281
  465ccc     O312976   4.607   8.199   8.768  0.2815 -0.4138  0.5450
  465ccc     O412977   4.725   8.325   9.020  0.0507  0.5287 -0.1267
  465ccc     C612978   4.883   8.584   8.974  0.3032  0.6150  0.4497
  465ccc     H612979   4.610   8.136   8.841  0.9256 -1.7074 -0.5575
  465ccc     H712980   4.654   8.259   9.006 -0.6080  0.6981  2.0030
  465ccc     H812981   4.760   8.058   8.699  0.2186 -0.1841  0.9418
  465ccc     H912982   4.895   8.561   9.081  1.7045  0.3558  0.2531
  465ccc    H1012983   4.794   8.649   8.969 -0.7424 -0.5570  2.4511
  465ccc     O512984   4.995   8.654   8.936 -0.9946  0.0802  0.4104
  465ccc    H1112985   5.064   8.586   8.947 -2.4576 -1.6844 -0.6906
  465ccc     O612986   4.978   8.388   8.879  0.4475 -0.5058 -0.0859
  466ccc     C112987   5.498   8.464   7.811 -0.0366 -0.4517  0.7627
  466ccc     C212988   5.418   8.393   7.702  0.6897 -0.5072  0.4398
  466ccc     H112989   5.598   8.421   7.803  0.6741  0.5625  3.2196
  466ccc     H212990   5.471   8.397   7.606 -1.1163  1.2850 -0.5923
  466ccc     C312991   5.399   8.243   7.731 -0.0332 -0.1368 -0.5443
  466ccc     C412992   5.334   8.237   7.878  0.2563  0.0996  0.0962
  466ccc     C512993   5.423   8.298   7.987 -0.4186 -0.3796 -0.2230
  466ccc     H312994   5.239   8.291   7.887  0.1295 -0.2029  0.5943
  466ccc     H412995   5.499   8.199   7.727  0.0114  0.0242 -1.4243
  466ccc     H512996   5.516   8.239   7.992 -0.0716  0.0709 -1.0560
  466ccc     O112997   5.356   8.290   8.119  0.5410 -0.0440  0.0549
  466ccc     O212998   5.310   8.096   7.904  0.1791  0.3143  0.3304
  466ccc     O312999   5.313   8.195   7.627  0.0864  0.2473 -0.2731
  466ccc     O413000   5.289   8.462   7.695  0.0079 -0.2787  0.4999
  466ccc     C613001   5.521   8.616   7.785 -0.0295 -0.6253 -0.1455
  466ccc     H613002   5.322   8.099   7.637  0.4545  0.1613 -1.3242
  466ccc     H713003   5.237   8.387   7.662  0.0650 -0.0042 -0.2417
  466ccc     H813004   5.250   8.079   7.979 -0.7180  0.0233 -0.4318
  466ccc     H913005   5.434   8.669   7.826 -0.5656 -1.7242  0.1860
  466ccc    H1013006   5.536   8.633   7.678 -1.1261  0.6754 -0.1141
  466ccc     O513007   5.642   8.637   7.855  0.5345  0.0307 -0.5674
  466ccc    H1113008   5.613   8.630   7.948  0.6186 -0.6292 -0.5857
  466ccc     O613009   5.444   8.439   7.945 -0.0141  0.2235 -0.1036
  467ccc     C113010   5.706   4.916  10.558  0.0106 -0.1050 -0.4133
  467ccc     C213011   5.845   4.865  10.515 -0.1700  0.4635  0.3302
  467ccc     H113012   5.647   4.837  10.606 -3.5345  2.6059  0.1322
  467ccc     H213013   5.892   4.818  10.603 -1.6443  0.5206  1.1793
  467ccc     C313014   5.833   4.749  10.410 -0.5175  0.0480 -0.6184
  467ccc     C413015   5.755   4.798  10.279 -0.0192 -0.0415  0.0277
  467ccc     C513016   5.619   4.866  10.312  0.3414 -0.3633  0.0273
  467ccc     H313017   5.823   4.862  10.222 -0.7967  0.1224 -0.7321
  467ccc     H413018   5.781   4.669  10.463  2.6863 -1.1822  0.9498
  467ccc     H513019   5.546   4.788  10.335  0.7651 -0.3783  1.3580
  467ccc     O113020   5.563   4.942  10.206  0.3578 -0.3325  0.2792
  467ccc     O213021   5.748   4.678  10.203 -0.2938  0.1332  0.0057
  467ccc     O313022   5.953   4.685  10.369  0.1531  0.1571  0.1746
  467ccc     O413023   5.934   4.972  10.469  0.4891 -0.3070 -0.7688
  467ccc     C613024   5.721   5.030  10.666  0.5020 -0.1096 -0.5314
  467ccc     H613025   5.912   4.623  10.306 -1.0087 -1.8126  2.7007
  467ccc     H713026   6.025   4.961  10.501 -0.1684  1.1673  1.8814
  467ccc     H813027   5.709   4.699  10.116 -2.3880  0.3493  0.9126
  467ccc     H913028   5.760   5.125  10.628 -0.5358  1.0196  1.0730
  467ccc    H1013029   5.787   5.002  10.749 -0.9998  2.4448  1.7249
  467ccc     O513030   5.594   5.043  10.726 -0.4102  0.6362 -0.1735
  467ccc    H1113031   5.597   5.098  10.806 -1.4510 -0.3637  0.5625
  467ccc     O613032   5.627   4.954  10.434 -0.3354  0.2698  0.1399
  468ccc     C113033   4.675   5.379   9.985 -0.5250  0.1057 -0.0587
  468ccc     C213034   4.618   5.475  10.084 -0.2140  0.0248  0.2033
  468ccc     H113035   4.655   5.280  10.027  2.5235 -0.2749  0.7169
  468ccc     H213036   4.521   5.440  10.125 -1.5871 -0.4293 -3.1302
  468ccc     C313037   4.700   5.474  10.216  0.3744 -0.0707 -0.3199
  468ccc     C413038   4.851   5.491  10.192 -0.2569 -0.1789 -0.0467
  468ccc     C513039   4.896   5.398  10.083 -0.4429 -0.2684 -0.0617
  468ccc     H313040   4.876   5.594  10.164 -0.6285 -0.2134 -0.5245
  468ccc     H413041   4.686   5.372  10.252 -1.2962 -0.2195 -1.3176
  468ccc     H513042   4.899   5.296  10.124  2.2203  0.6840  2.4454
  468ccc     O113043   5.033   5.435  10.056 -0.2089 -0.3758  0.0518
  468ccc     O213044   4.921   5.462  10.320  0.3604  0.0942  0.7050
  468ccc     O313045   4.656   5.574  10.312  0.4142  0.0247  0.4932
  468ccc     O413046   4.603   5.597  10.017  0.1458  0.0279  0.0895
  468ccc     C613047   4.608   5.378   9.849 -0.2537 -0.6643 -0.2528
  468ccc     H613048   4.564   5.546  10.330  0.4913 -0.4634  0.1346
  468ccc     H713049   4.688   5.615   9.973  0.7580  1.0946  1.5932
  468ccc     H813050   4.892   5.534  10.379  1.6842  1.8373 -0.6686
  468ccc     H913051   4.642   5.472   9.803 -0.5075  0.8845  2.4953
  468ccc    H1013052   4.500   5.392   9.852 -0.0773  0.9947 -0.5440
  468ccc     O513053   4.656   5.259   9.779 -0.0422  0.2310 -0.3644
  468ccc    H1113054   4.600   5.196   9.827 -1.2791  0.6511 -1.2330
  468ccc     O613055   4.821   5.404   9.962 -1.1025 -0.0640 -0.1334
  469ccc     C113056   5.223   6.701  10.466  0.3636 -0.1799 -0.3891
  469ccc     C213057   5.139   6.623  10.572 -0.0103  0.7391  0.3418
  469ccc     H113058   5.288   6.773  10.517  2.2385 -1.1166 -1.3357
  469ccc     H213059   5.208   6.584  10.647 -1.2692 -0.0860  1.1112
  469ccc     C313060   5.046   6.729  10.634 -0.3087  0.7023 -0.4019
  469ccc     C413061   4.948   6.795  10.535 -0.5088  0.5796  0.0694
  469ccc     C513062   5.045   6.857  10.421  0.5624  0.7596  1.0346
  469ccc     H313063   4.881   6.716  10.499  0.6871 -0.5820  0.3042
  469ccc     H413064   5.117   6.802  10.675 -0.4886  0.1067  1.0186
  469ccc     H513065   5.111   6.937  10.459 -1.1285  2.9315 -0.3460
  469ccc     O113066   4.959   6.917  10.323  0.1679  0.2743 -0.1639
  469ccc     O213067   4.869   6.905  10.595  0.3810  0.4376 -0.1033
  469ccc     O313068   4.971   6.677  10.748 -0.0243  0.2271  0.2625
  469ccc     O413069   5.072   6.507  10.518  0.1184  0.6687 -0.1697
  469ccc     C613070   5.328   6.617  10.387  0.1611 -0.0414 -0.1849
  469ccc     H613071   4.909   6.607  10.722  2.9485 -3.4917  2.2485
  469ccc     H713072   5.000   6.484  10.579 -1.1420 -0.2145 -1.9285
  469ccc     H813073   4.785   6.858  10.605  1.0174 -0.8203 -0.5106
  469ccc     H913074   5.279   6.532  10.338  1.7408 -1.3653  0.4427
  469ccc    H1013075   5.403   6.576  10.456  0.6926  0.5576 -0.3955
  469ccc     O513076   5.376   6.705  10.290  0.0408  0.4096  0.0145
  469ccc    H1113077   5.297   6.763  10.292 -0.5249 -0.3605  1.0269
  469ccc     O613078   5.125   6.754  10.365 -0.0351 -0.7636  0.3711
  470ccc     C113079   4.294   6.350   9.643 -0.6261  0.0476  0.4034
  470ccc     C213080   4.208   6.458   9.581  0.0759  0.4848 -0.1276
  470ccc     H113081   4.235   6.292   9.715  0.7628 -0.7594  0.9399
  470ccc     H213082   4.127   6.402   9.532  1.2366  1.3929 -3.3998
  470ccc     C313083   4.153   6.551   9.689 -0.0222 -0.3454 -0.3992
  470ccc     C413084   4.272   6.611   9.770 -0.3324  0.4032  0.7968
  470ccc     C513085   4.372   6.501   9.821 -0.2135 -0.0267  0.1619
  470ccc     H313086   4.326   6.672   9.697 -2.0263  1.2272  0.1904
  470ccc     H413087   4.103   6.488   9.764  0.2795  1.3758  1.3303
  470ccc     H513088   4.326   6.455   9.909 -2.4850  0.5995 -0.6086
  470ccc     O113089   4.493   6.573   9.868 -0.0534  0.3162  0.2364
  470ccc     O213090   4.213   6.699   9.874 -0.4165 -0.3177 -0.8121
  470ccc     O313091   4.057   6.647   9.632 -0.5979  0.2007  0.5872
  470ccc     O413092   4.291   6.522   9.477  0.3286  0.0887 -0.4105
  470ccc     C613093   4.347   6.242   9.534  0.7763 -0.1888  0.1613
  470ccc     H613094   4.089   6.673   9.544 -1.7545  2.5180  0.7784
  470ccc     H713095   4.233   6.594   9.444 -1.8875 -0.4061  2.1221
  470ccc     H813096   4.277   6.712   9.946 -2.1833 -0.0389  0.7821
  470ccc     H913097   4.267   6.189   9.481  2.1967  0.4266 -2.8798
  470ccc    H1013098   4.402   6.168   9.593  1.9247  0.8528  0.4612
  470ccc     O513099   4.443   6.302   9.453  1.0062 -0.4056 -0.3265
  470ccc    H1113100   4.417   6.395   9.464 -0.7580 -0.9208  0.2839
  470ccc     O613101   4.411   6.405   9.716  0.5743  0.0375  0.0221
  471ccc     C113102   4.421   7.613  11.710  0.0787 -0.0419  0.1581
  471ccc     C213103   4.300   7.605  11.621  0.6233 -0.3752  0.5354
  471ccc     H113104   4.452   7.717  11.721 -1.7608  0.5424  0.1674
  471ccc     H213105   4.222   7.670  11.661 -0.4928 -2.6609  2.3038
  471ccc     C313106   4.341   7.661  11.484  0.1137 -0.7799  0.2580
  471ccc     C413107   4.448   7.572  11.428 -0.5453  0.4309  0.7762
  471ccc     C513108   4.578   7.564  11.525  0.0386 -0.2106 -0.2234
  471ccc     H313109   4.409   7.470  11.428  2.7845 -0.9643  0.5014
  471ccc     H413110   4.394   7.756  11.499 -0.6543 -0.4442  0.8948
  471ccc     H513111   4.639   7.655  11.527 -1.1077  0.5792  1.4013
  471ccc     O113112   4.658   7.451  11.480 -0.6516  0.2419 -0.3335
  471ccc     O213113   4.488   7.615  11.298 -0.4882 -0.4170  0.5968
  471ccc     O313114   4.226   7.680  11.394 -0.6299  0.6689  0.5233
  471ccc     O413115   4.248   7.472  11.616  0.6054  0.0918  0.6844
  471ccc     C613116   4.392   7.559  11.846  0.1125  0.3614  0.6749
  471ccc     H613117   4.269   7.694  11.308 -0.0644  1.5300  0.9277
  471ccc     H713118   4.157   7.474  11.579  0.8213  2.5245  0.1483
  471ccc     H813119   4.514   7.533  11.252  0.9398 -0.1440  0.8553
  471ccc     H913120   4.312   7.613  11.898  0.9465  1.3015  1.0040
  471ccc    H1013121   4.482   7.569  11.908  0.4512 -0.6125  0.3679
  471ccc     O513122   4.368   7.417  11.841 -0.0365 -0.0211 -0.0961
  471ccc    H1113123   4.315   7.414  11.760 -0.3496 -0.4951  0.1183
  471ccc     O613124   4.529   7.532  11.655  0.1261  0.7640  0.2915
  472ccc     C113125   4.870   7.954  11.830  0.3382 -0.5129  0.4239
  472ccc     C213126   4.849   7.982  11.674  1.4440  0.0125  0.5822
  472ccc     H113127   4.933   8.034  11.868  0.4855 -1.1134  1.4735
  472ccc     H213128   4.838   8.091  11.668  0.7528 -0.0843 -0.0463
  472ccc     C313129   4.968   7.942  11.576 -0.4194  0.3032 -0.5863
  472ccc     C413130   5.054   7.816  11.635  0.0758 -0.7164  0.2022
  472ccc     C513131   5.069   7.821  11.785  0.5737 -0.0093  0.3122
  472ccc     H313132   5.011   7.720  11.604 -1.6443 -0.1617  0.7517
  472ccc     H413133   5.032   8.031  11.574  2.1798 -1.4434  0.1470
  472ccc     H513134   5.144   7.896  11.812  0.1396  0.7961 -0.6812
  472ccc     O113135   5.128   7.690  11.810 -0.7167 -0.4270  0.3008
  472ccc     O213136   5.187   7.839  11.580  0.2391  0.3869 -0.0937
  472ccc     O313137   4.910   7.921  11.444  0.2192 -0.0963  0.3570
  472ccc     O413138   4.731   7.914  11.630  0.4948 -0.3467  0.3806
  472ccc     C613139   4.743   7.960  11.910 -0.9507  0.0194  0.1914
  472ccc     H613140   4.883   8.004  11.403 -1.0657  0.2920  1.8576
  472ccc     H713141   4.770   7.885  11.545 -0.0941 -1.9476  0.6108
  472ccc     H813142   5.176   7.836  11.484 -0.9655  2.7594 -0.1132
  472ccc     H913143   4.701   8.059  11.887 -0.1586  0.1227 -0.9306
  472ccc    H1013144   4.767   7.941  12.016 -1.4173  0.0795  0.3101
  472ccc     O513145   4.656   7.854  11.867 -0.5794  0.1488  0.4031
  472ccc    H1113146   4.671   7.874  11.773 -0.3222 -0.8531  0.2258
  472ccc     O613147   4.938   7.829  11.845  0.1580  0.1379  0.6637
  473ccc     C113148   5.839   7.631  11.909 -0.6766 -0.4107  0.1470
  473ccc     C213149   5.919   7.609  12.043 -0.1243 -0.2319 -0.2845
  473ccc     H113150   5.816   7.529  11.878  1.0499 -1.3459  1.7897
  473ccc     H213151   5.869   7.540  12.112  2.7035 -1.2744  0.8987
  473ccc     C313152   6.059   7.540  12.006  0.2471  0.2572 -0.0617
  473ccc     C413153   6.138   7.611  11.891  0.0754  0.0394  0.8066
  473ccc     C513154   6.048   7.639  11.772 -0.9326 -0.1224  0.8110
  473ccc     H313155   6.165   7.710  11.928 -1.3333  0.4375  0.8080
  473ccc     H413156   6.032   7.442  11.963 -2.1541  0.6719  0.3809
  473ccc     H513157   6.035   7.549  11.712  2.8751 -0.1612 -0.2096
  473ccc     O113158   6.114   7.735  11.682 -0.5086 -0.0939  0.2169
  473ccc     O213159   6.246   7.524  11.844 -0.1534  0.3635 -0.3717
  473ccc     O313160   6.137   7.505  12.122 -0.0096  0.1208 -0.5737
  473ccc     O413161   5.944   7.738  12.110  0.5217  0.0463  0.5069
  473ccc     C613162   5.711   7.710  11.927 -0.2726 -0.1765 -0.2521
  473ccc     H613163   6.226   7.483  12.091  0.3315  1.1010 -0.3243
  473ccc     H713164   5.983   7.715  12.197 -0.7506  1.0456  1.3868
  473ccc     H813165   6.272   7.550  11.754 -0.5397  1.4989 -0.1760
  473ccc     H913166   5.641   7.654  11.989  0.0733 -1.5862 -1.0996
  473ccc    H1013167   5.670   7.731  11.828 -0.4643 -2.7715 -0.7838
  473ccc     O513168   5.738   7.836  11.987 -0.1622 -0.4837  0.0277
  473ccc    H1113169   5.831   7.812  12.006 -0.4634 -0.7950  1.1425
  473ccc     O613170   5.925   7.707  11.812  0.1735  0.2768 -0.0977
  474ccc     C113171   6.581   7.585  11.484  1.0965 -0.3861  0.5476
  474ccc     C213172   6.721   7.642  11.466  0.6713  0.2836  0.2829
  474ccc     H113173   6.589   7.475  11.490  3.2369 -0.2037  1.9883
  474ccc     H213174   6.796   7.584  11.522  0.2380  1.5636  2.3310
  474ccc     C313175   6.774   7.631  11.320 -0.6064 -0.3042 -0.2251
  474ccc     C413176   6.669   7.637  11.205 -0.7289 -0.0478  0.5747
  474ccc     C513177   6.532   7.590  11.252  0.5285  0.2528  0.4752
  474ccc     H313178   6.659   7.741  11.173 -2.3844 -0.0742  0.8977
  474ccc     H413179   6.810   7.529  11.306 -1.2969 -0.6264  0.2883
  474ccc     H513180   6.522   7.481  11.253 -2.2988  0.3569 -2.3188
  474ccc     O113181   6.433   7.640  11.155 -0.2241 -0.0161  1.3180
  474ccc     O213182   6.718   7.557  11.091  0.2437 -0.0368  0.2093
  474ccc     O313183   6.881   7.727  11.298 -0.1293  0.1239  0.5940
  474ccc     O413184   6.728   7.780  11.499 -0.0936  0.1728  0.0906
  474ccc     C613185   6.522   7.627  11.623 -0.3978  0.1526 -0.2866
  474ccc     H613186   6.925   7.704  11.215 -0.8604  1.7266 -0.2931
  474ccc     H713187   6.805   7.812  11.450 -1.3573  2.0822 -0.7668
  474ccc     H813188   6.650   7.563  11.022 -0.8507 -0.3155  1.2327
  474ccc     H913189   6.524   7.737  11.630 -3.1005  0.2480  0.3113
  474ccc    H1013190   6.586   7.575  11.695 -0.7152  0.2001  0.0314
  474ccc     O513191   6.381   7.588  11.625 -0.0015  0.1171 -0.2882
  474ccc    H1113192   6.356   7.631  11.542 -1.4780  0.5299  0.3458
  474ccc     O613193   6.493   7.637  11.377 -0.1017 -0.4958 -0.2893
  475ccc     C113194   5.122   5.645   9.660  0.2683 -0.3982  0.2409
  475ccc     C213195   4.989   5.689   9.596  0.2282 -0.0374 -0.0171
  475ccc     H113196   5.113   5.541   9.693  1.0025  0.1792  2.4152
  475ccc     H213197   4.972   5.628   9.506  2.0065  0.6495 -0.8837
  475ccc     C313198   4.880   5.667   9.704  0.1574 -0.2825  0.0031
  475ccc     C413199   4.916   5.740   9.833  0.7334  0.7072 -0.1756
  475ccc     C513200   5.057   5.723   9.880  0.6834  0.1643  0.0858
  475ccc     H313201   4.894   5.845   9.810  1.3944  0.9389  0.2168
  475ccc     H413202   4.869   5.560   9.727  1.2800 -0.9540 -2.2712
  475ccc     H513203   5.063   5.630   9.939 -1.0893  0.1127  0.2171
  475ccc     O113204   5.097   5.834   9.964 -0.0867  0.6788 -0.3779
  475ccc     O213205   4.823   5.696   9.936 -0.6381  0.3930  0.0847
  475ccc     O313206   4.751   5.705   9.648  0.0790  0.2305 -0.5502
  475ccc     O413207   4.999   5.826   9.575 -0.0976  0.0854 -0.4056
  475ccc     C613208   5.236   5.654   9.558  0.1399 -0.2479  0.7406
  475ccc     H613209   4.675   5.683   9.705  1.3022  0.7556  1.3589
  475ccc     H713210   4.905   5.850   9.570 -0.1270  1.2233  3.1406
  475ccc     H813211   4.816   5.769   9.999 -0.7443  0.4637 -0.0083
  475ccc     H913212   5.216   5.598   9.466 -0.2601  2.4994 -0.9696
  475ccc    H1013213   5.320   5.601   9.604  1.7838  0.6873 -1.0527
  475ccc     O513214   5.287   5.786   9.528 -0.5431  0.0671  0.3132
  475ccc    H1113215   5.316   5.818   9.615  0.8780  0.3774 -0.2340
  475ccc     O613216   5.151   5.714   9.773 -0.4503  0.3035  0.5520
  476ccc     C113217   4.856   6.235  10.635 -0.0736  0.2995 -0.1406
  476ccc     C213218   4.798   6.103  10.686 -0.1394 -0.3151 -0.3511
  476ccc     H113219   4.817   6.251  10.533 -1.3769 -3.4747 -0.3760
  476ccc     H213220   4.690   6.117  10.697  0.0144 -0.5352  2.1376
  476ccc     C313221   4.828   5.978  10.598  0.1474 -0.2851 -0.5755
  476ccc     C413222   4.984   5.962  10.596 -0.3252  0.0174 -0.1516
  476ccc     C513223   5.051   6.104  10.562 -0.5733 -0.0950 -0.6288
  476ccc     H313224   5.024   5.926  10.691  1.3973  1.5385 -0.2529
  476ccc     H413225   4.798   6.005  10.496  0.3404  1.1596 -0.2610
  476ccc     H513226   5.031   6.119  10.455 -0.2186  1.3705 -0.5200
  476ccc     O113227   5.195   6.086  10.600  0.7171  0.6966 -0.3699
  476ccc     O213228   5.018   5.869  10.491  0.4019 -0.3626 -0.4831
  476ccc     O313229   4.755   5.859  10.638 -0.4799  0.1974 -0.7977
  476ccc     O413230   4.840   6.074  10.821 -0.2700  0.3590 -0.3455
  476ccc     C613231   4.826   6.355  10.727  0.0110 -0.5276  0.4296
  476ccc     H613232   4.661   5.878  10.647 -0.1535  1.3969  0.3864
  476ccc     H713233   4.796   5.993  10.851  0.0214  0.2959 -0.0718
  476ccc     H813234   4.989   5.779  10.513  1.0212 -1.2186 -2.8317
  476ccc     H913235   4.912   6.377  10.791 -0.4770 -0.0458  0.9313
  476ccc    H1013236   4.739   6.344  10.793 -0.8731  0.1010 -0.5855
  476ccc     O513237   4.816   6.461  10.634 -0.1723  0.1467  0.5123
  476ccc    H1113238   4.726   6.468  10.599 -0.2518  1.1305  0.8730
  476ccc     O613239   5.000   6.216  10.637 -0.4860  0.0050  0.1921
  477ccc     C113240   6.532   4.944  10.373 -0.5661 -0.1132  0.4619
  477ccc     C213241   6.484   4.860  10.250 -0.4718 -0.0580 -0.2884
  477ccc     H113242   6.584   4.879  10.444 -1.5697 -1.6593 -0.1664
  477ccc     H213243   6.570   4.824  10.192  1.1174  2.8648  0.0327
  477ccc     C313244   6.402   4.744  10.296  0.8639 -0.1535  0.1481
  477ccc     C413245   6.281   4.801  10.379  0.4182  0.3388 -0.4462
  477ccc     C513246   6.323   4.909  10.482  0.2744 -0.0118  0.1103
  477ccc     H313247   6.206   4.845  10.312 -1.1961  1.7557  2.1249
  477ccc     H413248   6.461   4.690  10.371  0.3058 -0.7687  0.1534
  477ccc     H513249   6.355   4.863  10.576 -3.3474 -1.3865  0.8185
  477ccc     O113250   6.208   4.982  10.521 -0.1968  0.0469  0.0466
  477ccc     O213251   6.211   4.698  10.449  0.0532  0.4271  0.0373
  477ccc     O313252   6.363   4.652  10.183  0.1788 -0.0572 -0.3841
  477ccc     O413253   6.405   4.947  10.172  0.6406  0.3702  0.5399
  477ccc     C613254   6.630   5.061  10.332  0.5266 -0.6066 -0.2329
  477ccc     H613255   6.297   4.594  10.225  0.7594  0.6289  1.6201
  477ccc     H713256   6.435   5.029  10.215  1.6493 -0.4958  1.5846
  477ccc     H813257   6.121   4.710  10.414 -0.5818  0.1192  1.5300
  477ccc     H913258   6.722   5.025  10.284  1.1280  0.4576  0.0859
  477ccc    H1013259   6.649   5.110  10.429 -2.9580 -1.0158  0.7675
  477ccc     O513260   6.557   5.149  10.241 -0.1446 -0.2552  0.0190
  477ccc    H1113261   6.624   5.218  10.227 -1.3398  0.8213 -0.5582
  477ccc     O613262   6.416   5.005  10.428 -0.3393  0.5962 -0.0638
  478ccc     C113263   6.028   5.837  11.428  0.7670 -0.0360 -0.1662
  478ccc     C213264   6.086   5.972  11.378  0.4522 -0.8371  0.7472
  478ccc     H113265   6.113   5.781  11.468  2.6829  2.2006 -0.9235
  478ccc     H213266   6.139   6.020  11.461  1.1543  1.1858 -0.7895
  478ccc     C313267   6.175   5.949  11.256  0.1958 -0.6365 -0.1610
  478ccc     C413268   6.108   5.865  11.144 -0.6358  0.0409  0.5989
  478ccc     C513269   6.045   5.734  11.201 -0.3941 -0.3817  0.0738
  478ccc     H313270   6.031   5.928  11.099 -0.9615 -0.6484  0.1700
  478ccc     H413271   6.254   5.885  11.297  1.0808  1.6895  2.0621
  478ccc     H513272   6.131   5.672  11.229  0.0579  0.3356  0.3101
  478ccc     O113273   5.961   5.680  11.090  0.2935 -0.1275 -0.7248
  478ccc     O213274   6.209   5.849  11.045 -0.5879  0.3702  0.1520
  478ccc     O313275   6.239   6.072  11.203 -0.2116  0.0156 -0.2714
  478ccc     O413276   5.979   6.054  11.341  0.5583  0.4961  0.4653
  478ccc     C613277   5.928   5.856  11.546  0.3648 -0.3961 -0.1230
  478ccc     H613278   6.333   6.071  11.228 -0.1943  0.4459 -0.3090
  478ccc     H713279   6.020   6.142  11.341  1.0132  0.2973 -0.3952
  478ccc     H813280   6.240   5.939  11.027 -0.2727  0.7306  2.1923
  478ccc     H913281   5.822   5.859  11.516  0.6892 -0.3680 -1.2730
  478ccc    H1013282   5.944   5.949  11.601  0.2483 -1.3384  1.5843
  478ccc     O513283   5.947   5.740  11.626  0.5971  0.0583 -0.0745
  478ccc    H1113284   6.035   5.755  11.666  0.8944  1.9962 -1.3131
  478ccc     O613285   5.965   5.761  11.318 -0.1154 -0.0516 -0.3321
  479ccc     C113286   5.250   9.319   6.840  0.1373  0.3332  0.3273
  479ccc     C213287   5.266   9.458   6.786  0.0638 -0.0436 -0.1298
  479ccc     H113288   5.328   9.298   6.914  0.9407  1.8056 -0.0621
  479ccc     H213289   5.301   9.527   6.864 -0.0630 -1.1673  0.9572
  479ccc     C313290   5.389   9.459   6.691  0.0121 -0.7658 -0.8944
  479ccc     C413291   5.372   9.351   6.580  0.1104 -0.0265 -0.2693
  479ccc     C513292   5.346   9.207   6.637  0.0471 -0.3276  0.4839
  479ccc     H313293   5.278   9.379   6.530 -0.7203 -2.4674 -0.2301
  479ccc     H413294   5.471   9.417   6.751 -1.2511 -0.5477  1.0562
  479ccc     H513295   5.441   9.170   6.678 -0.7546 -0.4464  2.3427
  479ccc     O113296   5.291   9.123   6.529  0.0664 -0.3447 -0.0188
  479ccc     O213297   5.480   9.361   6.474 -0.1175  0.6584  0.2763
  479ccc     O313298   5.429   9.594   6.643  0.4352 -0.5447  0.4763
  479ccc     O413299   5.143   9.503   6.732  0.4526 -0.0812  0.3070
  479ccc     C613300   5.124   9.290   6.934  0.2942 -0.5571  0.3922
  479ccc     H613301   5.525   9.587   6.635  0.3372 -0.9881 -0.4105
  479ccc     H713302   5.170   9.583   6.684  0.8073  0.8337  1.9468
  479ccc     H813303   5.455   9.441   6.423  0.4097  0.9629  0.4869
  479ccc     H913304   5.137   9.351   7.025  0.1316  0.2684 -0.1337
  479ccc    H1013305   5.128   9.189   6.977  0.4527 -1.3084 -1.3112
  479ccc     O513306   5.001   9.319   6.859  0.0038 -0.1385 -0.4830
  479ccc    H1113307   5.040   9.392   6.808 -1.3285  1.4243  0.6229
  479ccc     O613308   5.241   9.218   6.733 -0.3404  0.1116 -0.7284
  480ccc     C113309   5.491   8.213   5.851  0.1607 -0.1015  0.4011
  480ccc     C213310   5.402   8.241   5.720  0.7462  0.2716  0.1498
  480ccc     H113311   5.447   8.128   5.905 -3.3455  0.3744 -1.4258
  480ccc     H213312   5.394   8.146   5.666  1.6652 -0.0235  0.5204
  480ccc     C313313   5.262   8.285   5.761 -0.5566  0.1969  0.4590
  480ccc     C413314   5.258   8.418   5.848 -0.2102  0.4157 -0.1067
  480ccc     C513315   5.347   8.384   5.972  0.2061  0.4538  0.7536
  480ccc     H313316   5.307   8.495   5.788  1.8671 -0.0698  0.8860
  480ccc     H413317   5.225   8.198   5.817  0.3178 -1.7883 -1.8951
  480ccc     H513318   5.288   8.307   6.025  0.6004  0.4889  1.2480
  480ccc     O113319   5.359   8.505   6.054 -0.1615  0.2866 -0.9096
  480ccc     O213320   5.126   8.450   5.886  0.0627  0.2037 -0.0470
  480ccc     O313321   5.182   8.294   5.636  0.0569  0.1886  0.1561
  480ccc     O413322   5.468   8.341   5.641  0.0528 -0.7375 -0.6724
  480ccc     C613323   5.638   8.184   5.820 -0.2416  0.3483  0.6102
  480ccc     H613324   5.215   8.375   5.592 -2.4945 -0.1504 -2.7179
  480ccc     H713325   5.453   8.304   5.552 -0.4589  0.0182 -0.9206
  480ccc     H813326   5.072   8.377   5.850  0.6368 -1.1206  1.6840
  480ccc     H913327   5.633   8.104   5.744 -1.4275  1.2112 -0.2421
  480ccc    H1013328   5.677   8.144   5.915 -2.5128  1.9831  2.3181
  480ccc     O513329   5.695   8.308   5.778 -0.6335  0.0065  0.0271
  480ccc    H1113330   5.625   8.356   5.730  0.0075 -0.9328 -1.9427
  480ccc     O613331   5.475   8.332   5.941  0.0636  0.3510  0.0807
  481ccc     C113332   5.995   8.605   6.248 -0.7050  0.6811 -0.6824
  481ccc     C213333   5.896   8.622   6.134 -0.0966  0.4278  0.3397
  481ccc     H113334   6.094   8.584   6.206 -0.7286 -2.3252  0.4787
  481ccc     H213335   5.934   8.686   6.053 -0.8515 -1.0237 -1.2235
  481ccc     C313336   5.862   8.488   6.065 -0.0389 -0.1495 -0.0429
  481ccc     C413337   5.826   8.371   6.165  0.3687 -0.6600  0.3235
  481ccc     C513338   5.934   8.362   6.284  0.2586 -0.6516  0.0499
  481ccc     H313339   5.733   8.403   6.213  1.2274  2.2598  0.2463
  481ccc     H413340   5.957   8.459   6.020  1.2952  2.1556  1.1117
  481ccc     H513341   6.031   8.328   6.248 -0.5258 -1.4634 -1.3927
  481ccc     O113342   5.902   8.273   6.397  0.0797 -0.2899 -0.1566
  481ccc     O213343   5.817   8.245   6.094  0.6635  0.1938 -0.3794
  481ccc     O313344   5.753   8.498   5.969 -0.5534  0.2633 -0.2407
  481ccc     O413345   5.771   8.677   6.183 -0.6131 -0.0052  0.0980
  481ccc     C613346   6.011   8.732   6.329 -0.5802  0.3413  0.1460
  481ccc     H613347   5.745   8.413   5.922 -0.0969  0.7256 -1.1982
  481ccc     H713348   5.723   8.687   6.099  0.9151 -0.7893 -0.9247
  481ccc     H813349   5.766   8.180   6.145  1.2601 -0.8828 -1.0991
  481ccc     H913350   5.921   8.750   6.391 -0.5909 -0.7781  0.4660
  481ccc    H1013351   6.015   8.821   6.265  1.0779 -0.5752 -1.0949
  481ccc     O513352   6.126   8.724   6.420  0.7260 -0.5327  0.2718
  481ccc    H1113353   6.078   8.682   6.493 -0.9880 -1.5477 -1.3392
  481ccc     O613354   5.952   8.496   6.342  0.2051 -0.2198 -0.0288
  482ccc     C113355   5.248   7.664   7.011  0.3351 -0.7894 -0.8131
  482ccc     C213356   5.256   7.586   7.147 -0.3059 -0.4209  0.2560
  482ccc     H113357   5.226   7.589   6.934  0.1615 -0.8404 -0.7130
  482ccc     H213358   5.163   7.536   7.176  0.6474 -3.3149 -1.3389
  482ccc     C313359   5.364   7.476   7.139  0.7715 -0.4344 -0.0515
  482ccc     C413360   5.495   7.542   7.088 -1.3820 -0.2785  0.0279
  482ccc     C513361   5.484   7.631   6.963  0.1963 -0.5148 -0.2818
  482ccc     H313362   5.537   7.599   7.172  1.5492  0.2227 -1.6212
  482ccc     H413363   5.327   7.407   7.062 -1.5107  1.9993 -1.2816
  482ccc     H513364   5.474   7.567   6.874  1.2858 -1.8267  0.5136
  482ccc     O113365   5.607   7.709   6.952 -0.3172  0.1027 -0.3787
  482ccc     O213366   5.592   7.436   7.066 -0.0567 -0.0754  0.3779
  482ccc     O313367   5.381   7.418   7.269  0.0046  0.3959 -0.1115
  482ccc     O413368   5.298   7.678   7.243  0.0551  0.5065  0.5212
  482ccc     C613369   5.143   7.774   7.007  0.0634  0.0700  0.3424
  482ccc     H613370   5.441   7.342   7.255 -0.6825  0.4490 -4.5523
  482ccc     H713371   5.313   7.619   7.319  0.8351  0.8621  0.6445
  482ccc     H813372   5.647   7.442   7.146 -2.0927  0.3962  1.8410
  482ccc     H913373   5.041   7.737   6.993 -0.1910  0.9897 -0.3435
  482ccc    H1013374   5.167   7.848   6.930 -0.3102 -1.6735 -1.5174
  482ccc     O513375   5.135   7.848   7.127  0.2360 -0.2349  0.2369
  482ccc    H1113376   5.205   7.801   7.176  0.8835  0.0492 -0.3954
  482ccc     O613377   5.380   7.730   6.980  0.5221 -0.0498 -0.1806
  483ccc     C113378   6.786   9.187   7.960  0.3100 -0.2565  0.0648
  483ccc     C213379   6.673   9.225   8.048 -0.2693 -0.7636  0.5792
  483ccc     H113380   6.863   9.264   7.974  0.5877 -0.4932 -0.1409
  483ccc     H213381   6.724   9.231   8.145  1.0603 -1.0859 -0.0773
  483ccc     C313382   6.608   9.353   8.011 -0.2824  0.1966 -0.5669
  483ccc     C413383   6.569   9.360   7.857  0.7170  0.2602 -0.4691
  483ccc     C513384   6.685   9.309   7.760 -0.2270 -0.2645 -0.0831
  483ccc     H313385   6.480   9.299   7.839  0.4942 -0.0646  1.5001
  483ccc     H413386   6.688   9.427   8.024  1.7038 -2.0005  0.4818
  483ccc     H513387   6.754   9.394   7.764 -1.8077  1.1220 -1.2924
  483ccc     O113388   6.627   9.295   7.626  0.0571  0.5658  0.3799
  483ccc     O213389   6.539   9.501   7.832 -0.4009 -0.1942  0.7577
  483ccc     O313390   6.499   9.380   8.108  0.1186 -0.6614  0.4867
  483ccc     O413391   6.583   9.115   8.052  0.1665 -0.0206 -0.5762
  483ccc     C613392   6.850   9.047   7.985 -0.7079 -0.1706  0.4648
  483ccc     H613393   6.479   9.475   8.115  3.0927  0.0015  1.2600
  483ccc     H713394   6.614   9.067   7.972 -0.3602 -0.5060 -0.4951
  483ccc     H813395   6.475   9.494   7.759  0.9403 -0.8074 -0.3962
  483ccc     H913396   6.781   8.968   7.956  0.4121 -1.3537  0.9398
  483ccc    H1013397   6.883   9.029   8.088  0.9352  2.0389  0.4122
  483ccc     O513398   6.965   9.039   7.899 -0.0637 -0.3181 -0.7211
  483ccc    H1113399   7.029   9.096   7.945  0.3436 -0.8442 -0.6145
  483ccc     O613400   6.739   9.187   7.818 -0.0994  0.4942 -0.5129
  484ccc     C113401   6.212  10.055   6.996  0.2454  0.5208  0.4013
  484ccc     C213402   6.112  10.004   7.102  0.8418 -0.2595 -0.4179
  484ccc     H113403   6.155  10.070   6.903 -0.9138  1.1212  1.1754
  484ccc     H213404   6.020  10.062   7.090  0.6087 -0.9757 -2.4491
  484ccc     C313405   6.067   9.856   7.073  0.1854 -0.0450  0.1843
  484ccc     C413406   6.186   9.759   7.042  0.6509  0.2509 -0.2091
  484ccc     C513407   6.297   9.831   6.961  0.1069  0.6302 -0.2457
  484ccc     H313408   6.231   9.742   7.141 -2.2109  2.2249  1.5903
  484ccc     H413409   6.014   9.869   6.978  0.9706  2.1571  0.0032
  484ccc     H513410   6.262   9.830   6.857  1.7556 -2.1528 -0.8686
  484ccc     O113411   6.417   9.756   6.967  0.4931 -0.3176 -0.2266
  484ccc     O213412   6.127   9.641   6.976 -0.2576  0.4142 -0.4761
  484ccc     O313413   5.983   9.812   7.182  0.1507  0.4542  0.5643
  484ccc     O413414   6.165  10.009   7.233 -0.1970  0.0285 -0.4346
  484ccc     C613415   6.261  10.199   7.014  0.4571 -0.0203  0.0077
  484ccc     H613416   5.898   9.788   7.140  1.7218  0.3612 -2.8842
  484ccc     H713417   6.092   9.985   7.292 -0.0598  1.3714  0.3319
  484ccc     H813418   6.117   9.582   7.053  0.5048  1.7246  0.6725
  484ccc     H913419   6.169  10.259   7.016 -0.7780 -1.7698 -1.4051
  484ccc    H1013420   6.318  10.234   6.927  1.0677  1.5564  0.9797
  484ccc     O513421   6.335  10.207   7.131  0.1675 -0.0587  0.2444
  484ccc    H1113422   6.284  10.140   7.180 -0.5961  0.9955  0.9362
  484ccc     O613423   6.323   9.962   7.008  0.2450  0.2463 -0.7890
  485ccc     C113424   7.536   8.204   6.539 -0.3891  0.2861  0.4838
  485ccc     C213425   7.656   8.213   6.627 -0.2239  0.1102 -0.2534
  485ccc     H113426   7.533   8.300   6.488 -2.0124 -0.3472 -0.6894
  485ccc     H213427   7.739   8.240   6.561  1.3885 -2.8111  0.4506
  485ccc     C313428   7.642   8.311   6.740 -0.0191 -0.3014 -0.7289
  485ccc     C413429   7.511   8.290   6.818 -0.0538 -0.4820 -0.0098
  485ccc     C513430   7.386   8.283   6.720  0.6567 -0.3110  0.3275
  485ccc     H313431   7.514   8.192   6.868 -0.2403  1.5461  4.4051
  485ccc     H413432   7.638   8.416   6.707  1.3350 -0.7749 -2.5668
  485ccc     H513433   7.362   8.380   6.676 -0.4661 -0.9531 -0.5447
  485ccc     O113434   7.270   8.240   6.796  0.6512 -0.5633  0.7431
  485ccc     O213435   7.503   8.402   6.910  0.5200 -0.7646  0.2135
  485ccc     O313436   7.754   8.296   6.829 -0.1680 -0.0313  0.1372
  485ccc     O413437   7.680   8.086   6.682 -0.7912 -0.0033  0.0612
  485ccc     C613438   7.544   8.094   6.426 -0.5500 -0.4988  0.0409
  485ccc     H613439   7.723   8.264   6.916  0.9564  2.8700  1.7316
  485ccc     H713440   7.747   8.107   6.750 -0.4349 -1.1039  0.0707
  485ccc     H813441   7.440   8.366   6.975 -0.7497  0.2538 -0.4101
  485ccc     H913442   7.531   7.999   6.479  1.5194 -0.2133  1.1360
  485ccc    H1013443   7.642   8.094   6.376 -1.8448  1.8683 -2.7921
  485ccc     O513444   7.443   8.111   6.329 -0.4224  0.0542  0.0107
  485ccc    H1113445   7.377   8.045   6.357  0.2451 -1.0327 -0.8777
  485ccc     O613446   7.420   8.187   6.614  0.5589 -0.3034 -0.3046
  486ccc     C113447   7.484   8.380   5.775  0.2523 -0.1407  0.1749
  486ccc     C213448   7.450   8.500   5.682  0.3158  0.0040 -0.4528
  486ccc     H113449   7.498   8.292   5.712  1.8206  0.0970  0.1486
  486ccc     H213450   7.542   8.512   5.622  0.2271  2.5355 -0.2050
  486ccc     C313451   7.321   8.476   5.609  0.0110 -0.7778  0.2233
  486ccc     C413452   7.205   8.426   5.689 -0.0135 -0.2242  0.5688
  486ccc     C513453   7.243   8.329   5.802 -0.3498 -0.4818 -0.0348
  486ccc     H313454   7.173   8.519   5.737 -1.7209  1.3233 -3.1570
  486ccc     H413455   7.346   8.388   5.549 -1.0679  0.8558 -2.8161
  486ccc     H513456   7.253   8.226   5.768  0.5709 -0.7495  0.9801
  486ccc     O113457   7.139   8.336   5.905 -0.1176  0.4568  0.2645
  486ccc     O213458   7.094   8.372   5.609 -0.5872 -1.1592  0.5271
  486ccc     O313459   7.298   8.574   5.506  0.2600  0.8365 -0.1377
  486ccc     O413460   7.437   8.617   5.760 -0.1387 -0.2595 -0.3488
  486ccc     C613461   7.611   8.409   5.859  0.2300  0.4840  0.4958
  486ccc     H613462   7.236   8.638   5.545  0.0505  0.0467  0.8501
  486ccc     H713463   7.486   8.682   5.706 -1.3245 -0.3528 -1.6070
  486ccc     H813464   7.141   8.343   5.529 -0.4040  0.9868 -0.2062
  486ccc     H913465   7.587   8.495   5.924 -2.4692  0.8497 -0.8466
  486ccc    H1013466   7.700   8.428   5.797  0.3601 -0.3657  0.4082
  486ccc     O513467   7.634   8.284   5.926  0.5250 -0.6367 -0.0771
  486ccc    H1113468   7.580   8.298   6.005 -0.2637 -2.1274 -0.3164
  486ccc     O613469   7.370   8.365   5.862 -0.4316 -0.2550 -0.3605
  487ccc     C113470   4.374   9.493   9.056 -0.2087  0.1070 -0.7013
  487ccc     C213471   4.261   9.532   8.967  0.3398 -0.1128 -0.2626
  487ccc     H113472   4.438   9.582   9.054  0.2440 -0.2098 -0.7273
  487ccc     H213473   4.211   9.623   9.001 -1.9283 -0.9601 -1.1675
  487ccc     C313474   4.313   9.557   8.824 -0.2076  0.2422  0.1140
  487ccc     C413475   4.384   9.429   8.766  0.2103  0.0274  0.0824
  487ccc     C513476   4.483   9.366   8.868  0.5312 -0.5963  0.2940
  487ccc     H313477   4.299   9.365   8.739  0.9337 -0.3165 -1.4886
  487ccc     H413478   4.389   9.635   8.836  1.1580 -1.3979  3.3112
  487ccc     H513479   4.576   9.423   8.858  0.6900 -0.8449  0.3516
  487ccc     O113480   4.502   9.229   8.823  0.1909  0.3931  0.4718
  487ccc     O213481   4.448   9.464   8.639  0.0792 -0.1178 -0.0145
  487ccc     O313482   4.209   9.603   8.728 -0.1542 -0.0762  0.4302
  487ccc     O413483   4.170   9.428   8.979  0.2280  0.2087  0.0791
  487ccc     C613484   4.321   9.469   9.201 -0.5479 -0.4258 -0.0171
  487ccc     H613485   4.137   9.537   8.734  1.0010 -1.4829 -0.4399
  487ccc     H713486   4.199   9.384   9.060  0.2454  1.3244  0.6960
  487ccc     H813487   4.485   9.553   8.632 -0.0862 -0.1564 -2.0132
  487ccc     H913488   4.267   9.560   9.232  1.6805  1.4335 -1.2938
  487ccc    H1013489   4.409   9.467   9.265  0.8848  0.4670 -1.8691
  487ccc     O513490   4.244   9.349   9.211  0.0544 -0.7260  0.4120
  487ccc    H1113491   4.257   9.317   9.302 -1.5037 -0.5576  0.7271
  487ccc     O613492   4.444   9.373   9.008  0.4082  0.1440 -0.3307
  488ccc     C113493   4.391   8.176   9.138 -0.9466 -0.6364  0.5554
  488ccc     C213494   4.261   8.150   9.210  0.3991  0.4970 -0.0155
  488ccc     H113495   4.465   8.189   9.218 -0.2190  0.7229 -0.3045
  488ccc     H213496   4.281   8.065   9.276 -1.3509 -0.2815 -0.4419
  488ccc     C313497   4.219   8.276   9.292 -0.5311 -0.2583 -0.2504
  488ccc     C413498   4.213   8.405   9.197  0.4490 -0.5583  0.2688
  488ccc     C513499   4.354   8.417   9.126  0.6079  0.6234  0.0169
  488ccc     H313500   4.140   8.362   9.128  1.7784  1.1693 -2.3900
  488ccc     H413501   4.303   8.306   9.357  0.3056  0.2107 -1.5237
  488ccc     H513502   4.434   8.424   9.200 -0.1640  2.2817  0.7371
  488ccc     O113503   4.364   8.536   9.039 -0.2509  0.6163  0.7427
  488ccc     O213504   4.171   8.528   9.255 -0.0385  0.0644 -0.3986
  488ccc     O313505   4.101   8.262   9.374 -0.6816 -0.0919 -0.2632
  488ccc     O413506   4.169   8.109   9.106 -0.0476 -0.0921 -0.0608
  488ccc     C613507   4.437   8.064   9.045 -1.2444  0.8475  0.2960
  488ccc     H613508   4.100   8.350   9.416 -0.1423  0.1292 -0.7066
  488ccc     H713509   4.095   8.061   9.147  0.4790 -1.7546 -0.9720
  488ccc     H813510   4.074   8.515   9.251 -0.0032 -0.0735 -0.8483
  488ccc     H913511   4.381   8.046   8.952 -0.0116  0.5739 -0.4204
  488ccc    H1013512   4.430   7.972   9.104  3.0752 -0.1269 -0.3323
  488ccc     O513513   4.574   8.087   9.003 -0.1118 -0.0032 -0.2890
  488ccc    H1113514   4.617   8.026   9.064 -1.4274  0.7059  1.4331
  488ccc     O613515   4.380   8.293   9.053 -0.3912 -0.7698  0.5931
  489ccc     C113516   4.191   8.157   7.748 -0.3236 -0.4730 -0.4499
  489ccc     C213517   4.230   8.238   7.874  0.5901 -0.3646 -0.6521
  489ccc     H113518   4.084   8.166   7.723  0.0529 -1.9593 -2.9587
  489ccc     H213519   4.204   8.344   7.868  2.4237  0.0593 -1.9414
  489ccc     C313520   4.142   8.187   7.992 -0.2638  0.3152  0.3621
  489ccc     C413521   4.168   8.029   8.010 -0.2922  0.2006 -0.1560
  489ccc     C513522   4.149   7.949   7.875  0.0244  0.0446 -0.4082
  489ccc     H313523   4.272   8.016   8.040 -0.3418  4.4108  2.7987
  489ccc     H413524   4.040   8.209   7.957 -1.0090  1.0165  2.7644
  489ccc     H513525   4.042   7.939   7.856 -0.0176  2.4981 -2.0520
  489ccc     O113526   4.202   7.811   7.880  0.7798  0.0129 -0.4357
  489ccc     O213527   4.086   7.983   8.120  0.1167  0.1890 -0.7568
  489ccc     O313528   4.163   8.266   8.109 -0.7727  0.6262  0.2487
  489ccc     O413529   4.367   8.199   7.891  0.4325 -0.1479  0.1625
  489ccc     C613530   4.248   8.216   7.620 -0.0556 -0.2335  0.4868
  489ccc     H613531   4.092   8.251   8.174 -0.7519  2.1944  0.6776
  489ccc     H713532   4.385   8.192   7.795  0.7282  4.0543 -0.2807
  489ccc     H813533   4.146   7.975   8.197 -1.7436  1.0654  0.8657
  489ccc     H913534   4.207   8.315   7.601 -0.2031 -0.3955 -0.0414
  489ccc    H1013535   4.208   8.160   7.535 -1.9449 -0.3237  1.3713
  489ccc     O513536   4.389   8.235   7.629 -0.6907 -0.4151  0.3140
  489ccc    H1113537   4.418   8.199   7.543  0.9000  1.3605  0.0307
  489ccc     O613538   4.220   8.016   7.762  0.0953  0.1750  0.2048
  490ccc     C113539   4.202   7.675   7.033  0.5896  0.5207 -0.3357
  490ccc     C213540   4.304   7.728   6.933  0.1573  0.2367 -0.1943
  490ccc     H113541   4.209   7.738   7.123  0.7937 -1.4580  1.0948
  490ccc     H213542   4.285   7.835   6.914  1.5094  0.1272 -2.5853
  490ccc     C313543   4.439   7.725   7.009 -0.4811  0.6803 -0.2190
  490ccc     C413544   4.480   7.584   7.066  0.8989  0.6436 -0.3334
  490ccc     C513545   4.362   7.540   7.163 -0.0601  0.3021  0.4185
  490ccc     H313546   4.461   7.517   6.981  2.4193  1.1924 -1.1211
  490ccc     H413547   4.432   7.805   7.083  1.0795  2.3560 -1.7598
  490ccc     H513548   4.345   7.607   7.247  0.7992 -1.3442  1.9749
  490ccc     O113549   4.391   7.404   7.197 -0.2709 -0.1056 -0.2490
  490ccc     O213550   4.611   7.576   7.114 -0.4336  0.2686  0.3427
  490ccc     O313551   4.543   7.759   6.913  0.0763  0.4510  0.5428
  490ccc     O413552   4.315   7.651   6.817  0.1965 -0.0984  0.0664
  490ccc     C613553   4.051   7.661   6.976 -0.5958  0.3318 -0.3935
  490ccc     H613554   4.627   7.744   6.960 -0.4491 -1.4252  0.9647
  490ccc     H713555   4.406   7.670   6.790  0.1912 -1.2806 -0.8832
  490ccc     H813556   4.649   7.494   7.078  1.1636  0.4327  1.5668
  490ccc     H913557   4.036   7.753   6.918 -0.9256  0.4933 -0.0524
  490ccc    H1013558   3.979   7.649   7.057  1.0627 -1.9866  0.8712
  490ccc     O513559   4.050   7.566   6.878  0.1209  0.6520  0.1471
  490ccc    H1113560   4.127   7.596   6.826  0.9198 -2.5755 -0.7206
  490ccc     O613561   4.236   7.544   7.083 -0.5514 -0.8627 -0.2237
  491ccc     C113562   6.144  10.592   9.142 -0.0065 -0.0475 -0.3879
  491ccc     C213563   6.138  10.708   9.045 -0.2519  0.8204  0.4832
  491ccc     H113564   6.244  10.557   9.169 -0.8794 -1.5981  1.0354
  491ccc     H213565   6.192  10.797   9.081  0.0693  0.5922  0.5793
  491ccc     C313566   6.196  10.678   8.910 -0.4031 -0.0930 -0.1454
  491ccc     C413567   6.122  10.559   8.855 -0.3812 -0.5195  0.7879
  491ccc     C513568   6.107  10.439   8.950 -0.2488 -0.2923 -0.5616
  491ccc     H313569   6.020  10.589   8.826 -0.4343 -0.1928  1.2839
  491ccc     H413570   6.303  10.654   8.920 -0.4408  0.4629  2.0062
  491ccc     H513571   6.205  10.392   8.964 -0.2439 -0.5636 -1.4414
  491ccc     O113572   6.010  10.345   8.908 -0.6113  0.4851 -0.2297
  491ccc     O213573   6.195  10.529   8.730 -0.4831  0.3019  0.4257
  491ccc     O313574   6.181  10.800   8.836  0.6939 -0.1532 -0.6695
  491ccc     O413575   6.006  10.757   9.027 -0.5588 -0.1692 -0.0244
  491ccc     C613576   6.088  10.642   9.280  0.3312 -0.6270 -0.0800
  491ccc     H613577   6.220  10.790   8.748  0.3461 -1.6833 -0.6878
  491ccc     H713578   6.026  10.805   8.945  1.3000 -1.8722 -0.6529
  491ccc     H813579   6.143  10.486   8.660  1.2316  0.4725 -1.0090
  491ccc     H913580   5.981  10.663   9.266  0.6657  0.7301 -0.7160
  491ccc    H1013581   6.139  10.734   9.310 -1.3471  0.1457  0.5420
  491ccc     O513582   6.108  10.532   9.365 -0.3720 -0.6828 -0.2738
  491ccc    H1113583   6.164  10.463   9.325  0.0672 -1.5548  1.7113
  491ccc     O613584   6.069  10.486   9.091  0.4023  0.6168  0.1600
  492ccc     C113585   5.950   9.343   8.689  0.3976  0.0443  0.4290
  492ccc     C213586   6.068   9.247   8.713  0.1201 -0.0171  0.6760
  492ccc     H113587   5.979   9.422   8.619 -1.2334  1.2565  1.0449
  492ccc     H213588   6.082   9.186   8.623 -0.4427  1.5678 -0.5415
  492ccc     C313589   6.196   9.329   8.761 -0.0183 -0.5934  0.2851
  492ccc     C413590   6.162   9.409   8.892 -0.4933 -0.0780  0.3174
  492ccc     C513591   6.034   9.501   8.857 -0.1987 -0.1677  0.2546
  492ccc     H313592   6.126   9.341   8.970  0.8573 -0.9643  0.2040
  492ccc     H413593   6.218   9.403   8.682  1.9025  0.0082  1.3352
  492ccc     H513594   6.045   9.575   8.776 -3.0686  0.3330  0.2036
  492ccc     O113595   5.996   9.574   8.976 -0.3052 -0.0123 -0.1064
  492ccc     O213596   6.277   9.475   8.943  0.2925  0.5865  0.2093
  492ccc     O313597   6.316   9.244   8.770  0.0882 -0.1855  0.4143
  492ccc     O413598   6.025   9.163   8.821  0.0598  0.3119  0.5062
  492ccc     C613599   5.821   9.273   8.643 -0.5207 -1.2953  0.5636
  492ccc     H613600   6.295   9.156   8.805  1.9481 -1.3662 -1.2219
  492ccc     H713601   6.085   9.088   8.806 -0.3844  0.5827 -4.1131
  492ccc     H813602   6.254   9.544   9.007  1.7565  0.4584  0.9169
  492ccc     H913603   5.763   9.226   8.723 -2.5122  1.2865  0.7898
  492ccc    H1013604   5.845   9.193   8.573 -1.1097 -0.8625 -0.1478
  492ccc     O513605   5.750   9.382   8.579  0.2787 -0.0707  0.0511
  492ccc    H1113606   5.707   9.417   8.659 -0.4772 -0.4637 -0.1774
  492ccc     O613607   5.932   9.413   8.817 -0.0929  0.1174  0.0719
  493ccc     C113608   5.887   9.821   7.660 -0.5759 -0.5777  0.4785
  493ccc     C213609   6.010   9.828   7.563 -0.3623  0.3789  0.3799
  493ccc     H113610   5.906   9.743   7.734 -3.3395 -0.1649  1.7520
  493ccc     H213611   6.101   9.848   7.621 -0.3331  2.0233 -0.1742
  493ccc     C313612   6.024   9.697   7.486 -0.1061  0.6945  0.3277
  493ccc     C413613   5.886   9.640   7.435  0.2855  0.6013 -0.7009
  493ccc     C513614   5.770   9.651   7.540 -0.6761 -0.0531  0.0283
  493ccc     H313615   5.845   9.696   7.350 -1.1232  0.5991 -0.0423
  493ccc     H413616   6.059   9.625   7.561 -1.9349  0.4581  0.9877
  493ccc     H513617   5.782   9.573   7.617  0.6884 -0.6386 -0.7360
  493ccc     O113618   5.648   9.622   7.470  0.3854  0.1395  0.0248
  493ccc     O213619   5.918   9.499   7.401  0.2245  0.0222 -0.4360
  493ccc     O313620   6.121   9.709   7.374 -0.3889 -0.8552  0.0843
  493ccc     O413621   5.983   9.930   7.471 -0.1206  0.2712 -0.1001
  493ccc     C613622   5.863   9.957   7.731 -0.3522 -0.8876 -0.0249
  493ccc     H613623   6.067   9.750   7.304 -1.9645 -0.9037  1.2145
  493ccc     H713624   6.002  10.019   7.505  1.1001  0.1518 -0.4367
  493ccc     H813625   5.836   9.447   7.389 -1.1324  2.0923 -0.6054
  493ccc     H913626   5.828  10.038   7.667  1.7830 -0.6281 -0.9703
  493ccc    H1013627   5.959   9.995   7.768 -0.1354 -0.6835 -0.7699
  493ccc     O513628   5.776   9.927   7.838 -0.1497 -0.5263 -0.1257
  493ccc    H1113629   5.741   9.840   7.813 -0.7892  0.6924 -4.3380
  493ccc     O613630   5.766   9.789   7.595 -0.3177 -0.0156  1.0129
  494ccc     C113631   5.322   9.086   7.442  0.0884 -0.4767  0.2401
  494ccc     C213632   5.265   9.003   7.325 -0.3087 -0.1703 -0.2603
  494ccc     H113633   5.302   9.045   7.542  1.2485  1.3090  1.2698
  494ccc     H213634   5.300   8.900   7.334 -0.3665 -0.3812 -2.0830
  494ccc     C313635   5.111   9.009   7.332  1.1081  0.4694  0.4202
  494ccc     C413636   5.055   9.158   7.327  0.3324 -0.9557 -0.3979
  494ccc     C513637   5.130   9.242   7.436  0.5226  0.2089  0.1049
  494ccc     H313638   5.086   9.197   7.229 -1.1322  0.5461 -0.3137
  494ccc     H413639   5.072   8.966   7.425 -0.5246 -1.3836 -1.0376
  494ccc     H513640   5.097   9.210   7.536 -1.0590 -1.5485 -0.9151
  494ccc     O113641   5.099   9.378   7.408 -0.3327  0.8510 -0.4768
  494ccc     O213642   4.913   9.155   7.348 -0.3338  0.0240 -0.0502
  494ccc     O313643   5.058   8.924   7.227 -0.0694  0.6285 -0.4946
  494ccc     O413644   5.311   9.060   7.201 -0.2963  0.6309  0.2786
  494ccc     C613645   5.479   9.093   7.431  0.5909 -0.2644 -0.8084
  494ccc     H613646   5.011   8.841   7.249  0.9688  0.6123  1.9867
  494ccc     H713647   5.255   9.014   7.136  0.8149  0.3465 -0.5119
  494ccc     H813648   4.887   9.067   7.316 -0.2359 -1.1198  2.7196
  494ccc     H913649   5.531   8.996   7.430  1.1371  0.0237 -0.8217
  494ccc    H1013650   5.519   9.140   7.522  0.9113 -3.3764  0.8033
  494ccc     O513651   5.513   9.163   7.314  0.5741 -0.0123 -0.0167
  494ccc    H1113652   5.435   9.132   7.263  0.0809 -2.1097  1.8717
  494ccc     O613653   5.273   9.225   7.435  0.4619 -0.3911 -0.1588
  495ccc     C113654   4.740   5.088   8.991  0.3739 -0.6010 -0.4751
  495ccc     C213655   4.686   4.949   8.962 -0.5465  0.2721 -0.3494
  495ccc     H113656   4.687   5.155   8.923 -1.0927 -0.0231  1.1814
  495ccc     H213657   4.580   4.947   8.987 -0.2286 -1.1565  1.0096
  495ccc     C313658   4.725   4.911   8.817 -0.0069 -0.5717 -0.3760
  495ccc     C413659   4.868   4.938   8.783  0.2047 -0.0652 -0.5024
  495ccc     C513660   4.920   5.078   8.832  0.8718  0.3012 -0.4558
  495ccc     H313661   4.918   4.861   8.844 -1.6693 -1.9006 -1.1485
  495ccc     H413662   4.663   4.972   8.750 -1.6712 -1.2325  0.4944
  495ccc     H513663   4.880   5.160   8.771  1.5355  0.4583 -0.6836
  495ccc     O113664   5.067   5.070   8.824  0.2213 -0.2235 -0.0282
  495ccc     O213665   4.899   4.910   8.642  0.0208 -1.1950  0.1664
  495ccc     O313666   4.704   4.774   8.791  0.0990 -0.6754 -0.2227
  495ccc     O413667   4.754   4.862   9.051  0.3147 -0.0056 -0.1301
  495ccc     C613668   4.707   5.145   9.124  1.2366 -0.4409 -0.0146
  495ccc     H613669   4.611   4.764   8.817 -0.5431  0.3646 -1.9423
  495ccc     H713670   4.738   4.772   9.018 -0.7367 -0.2362  0.9509
  495ccc     H813671   4.868   4.991   8.598 -1.3606 -2.8336 -2.0751
  495ccc     H913672   4.599   5.134   9.143  1.0123 -1.9251 -1.8473
  495ccc    H1013673   4.721   5.253   9.134 -0.2698 -0.1790 -0.4336
  495ccc     O513674   4.773   5.070   9.225  0.6675 -0.3204 -0.0310
  495ccc    H1113675   4.781   4.987   9.175  0.9478  0.2744 -1.0023
  495ccc     O613676   4.880   5.105   8.963 -0.2491  0.0981 -0.3828
  496ccc     C113677   4.497   5.722   8.267  0.5445  0.0255 -0.4370
  496ccc     C213678   4.522   5.743   8.115  1.0169 -0.5266 -0.3488
  496ccc     H113679   4.488   5.824   8.307 -2.6821 -0.5601  0.5512
  496ccc     H213680   4.439   5.803   8.075  1.6533  0.4892 -0.1877
  496ccc     C313681   4.653   5.820   8.095  0.3793 -0.1297 -0.4792
  496ccc     C413682   4.776   5.751   8.167  0.5094  0.3329 -0.0296
  496ccc     C513683   4.746   5.721   8.316  0.3318  0.5505 -0.8988
  496ccc     H313684   4.789   5.657   8.111  0.5831  0.7708 -0.7642
  496ccc     H413685   4.637   5.914   8.150 -0.1881 -0.7982  0.5333
  496ccc     H513686   4.767   5.810   8.376 -1.0179  0.3536 -0.0685
  496ccc     O113687   4.834   5.611   8.355 -0.1095  0.2745 -0.1010
  496ccc     O213688   4.900   5.830   8.161 -0.0669 -0.2717 -0.3833
  496ccc     O313689   4.670   5.849   7.951 -0.2761 -0.3309 -0.3354
  496ccc     O413690   4.538   5.603   8.065 -0.3987  0.3871  0.1989
  496ccc     C613691   4.373   5.641   8.305 -0.0882  0.9084 -0.3324
  496ccc     H613692   4.761   5.827   7.925 -0.1899  0.2454 -0.5430
  496ccc     H713693   4.500   5.548   8.136 -0.2188  0.6021  0.4653
  496ccc     H813694   4.914   5.826   8.065 -0.9126 -3.6279 -0.4761
  496ccc     H913695   4.279   5.689   8.275 -1.4276 -1.2424  0.1658
  496ccc    H1013696   4.368   5.629   8.414 -0.0716 -0.7290 -0.4774
  496ccc     O513697   4.365   5.508   8.247 -0.8062 -0.2160 -0.0266
  496ccc    H1113698   4.275   5.487   8.217 -0.4032  0.0836 -1.4957
  496ccc     O613699   4.614   5.669   8.337 -0.0182  0.1939  0.3544
  497ccc     C113700   6.556   5.122   7.577 -0.4391 -0.7938  0.7298
  497ccc     C213701   6.554   5.171   7.429 -0.3440  0.2913  0.2989
  497ccc     H113702   6.455   5.093   7.607 -0.5484 -3.2010 -1.6389
  497ccc     H213703   6.486   5.106   7.374 -0.8565 -1.9802  3.3695
  497ccc     C313704   6.488   5.310   7.412  0.3089  0.1468  0.4899
  497ccc     C413705   6.546   5.410   7.513 -0.7587  0.2416  0.3285
  497ccc     C513706   6.535   5.350   7.660 -0.3231 -0.1572 -0.5375
  497ccc     H313707   6.654   5.412   7.495 -0.8749 -0.7814 -0.5701
  497ccc     H413708   6.383   5.298   7.440 -0.1628  0.7514 -0.9084
  497ccc     H513709   6.434   5.325   7.695  0.5280  0.6301  2.7334
  497ccc     O113710   6.603   5.440   7.749 -0.2647  0.0100  0.5609
  497ccc     O213711   6.470   5.535   7.500  0.3124  0.3876  0.4413
  497ccc     O313712   6.498   5.347   7.267 -0.0785 -0.2337 -0.4003
  497ccc     O413713   6.688   5.172   7.383  0.0095  0.4604 -0.0295
  497ccc     C613714   6.641   4.998   7.598  0.3685  0.6525 -0.1263
  497ccc     H613715   6.562   5.420   7.267  0.4478 -0.6696 -1.7221
  497ccc     H713716   6.671   5.127   7.299 -2.8002 -0.3436  0.8411
  497ccc     H813717   6.544   5.598   7.501  0.4919  0.1808  0.3164
  497ccc     H913718   6.746   5.013   7.570  0.8922  0.3759  1.5288
  497ccc    H1013719   6.590   4.921   7.539 -3.1408  1.9848  0.9516
  497ccc     O513720   6.646   4.976   7.735 -0.7813 -0.5233 -0.2700
  497ccc    H1113721   6.708   5.045   7.765 -0.1105 -0.6405 -1.3551
  497ccc     O613722   6.613   5.233   7.662  0.2621  0.0167  0.6712
  498ccc     C113723   7.061   5.426   8.014  0.1130 -0.1381 -0.5809
  498ccc     C213724   6.993   5.469   7.885 -0.1077  0.0939  0.0525
  498ccc     H113725   7.150   5.373   7.978 -1.2521 -0.9402 -3.0097
  498ccc     H213726   7.051   5.536   7.820 -0.1019  0.4384  0.4053
  498ccc     C313727   6.954   5.347   7.798 -0.2742 -0.0820 -0.3539
  498ccc     C413728   6.882   5.239   7.876  0.0340  0.4227  0.6594
  498ccc     C513729   6.951   5.206   8.009  0.3737  0.3177  0.4977
  498ccc     H313730   6.783   5.283   7.894 -1.3050 -1.5489 -1.4205
  498ccc     H413731   7.051   5.299   7.781 -1.3450 -2.8865  0.7829
  498ccc     H513732   7.038   5.140   7.995  0.3879  0.4388  0.0083
  498ccc     O113733   6.857   5.123   8.079  0.4341  0.0840  0.3281
  498ccc     O213734   6.880   5.125   7.793  0.0456 -0.3362 -0.1881
  498ccc     O313735   6.892   5.382   7.670  0.3752 -0.0973 -0.0124
  498ccc     O413736   6.871   5.543   7.924 -0.0176 -0.0793  0.6672
  498ccc     C613737   7.101   5.538   8.123  0.0499  1.1546  0.1835
  498ccc     H613738   6.886   5.299   7.619 -0.9879  1.0113 -1.7380
  498ccc     H713739   6.797   5.524   7.864  0.3206 -1.2808  0.6022
  498ccc     H813740   6.970   5.113   7.758  0.5031 -1.1034  1.1768
  498ccc     H913741   7.198   5.580   8.095  0.0856 -0.1650 -1.9074
  498ccc    H1013742   7.115   5.500   8.225 -1.0707 -0.0350 -0.0864
  498ccc     O513743   7.004   5.635   8.122  0.2352  0.1680 -0.7155
  498ccc    H1113744   6.935   5.585   8.075  0.4847 -0.5456 -0.3382
  498ccc     O613745   6.976   5.326   8.082 -0.2481  0.3257 -0.0208
  499ccc     C113746   5.001   5.300   7.422  0.7984 -0.7323  0.8564
  499ccc     C213747   4.930   5.161   7.432 -0.2211  1.0503  0.4028
  499ccc     H113748   4.945   5.381   7.470 -0.5120 -0.1949 -1.4270
  499ccc     H213749   4.918   5.124   7.535  0.0557 -0.3152 -0.0391
  499ccc     C313750   4.789   5.167   7.377 -0.6471  0.4450 -0.2197
  499ccc     C413751   4.795   5.204   7.226  0.1892 -0.2239 -0.0539
  499ccc     C513752   4.866   5.338   7.214 -1.2081  0.1785  0.2384
  499ccc     H313753   4.861   5.137   7.169  1.0069 -1.7138  2.4709
  499ccc     H413754   4.732   5.244   7.431 -4.3397 -1.5713 -0.8883
  499ccc     H513755   4.804   5.410   7.269  1.0491  1.7592  0.8674
  499ccc     O113756   4.884   5.366   7.075  0.5009 -0.5239 -0.4589
  499ccc     O213757   4.661   5.200   7.172 -0.4630 -0.4700  0.1195
  499ccc     O313758   4.718   5.048   7.404 -0.1278 -0.5688  0.2111
  499ccc     O413759   5.008   5.062   7.359 -0.0380  0.1839 -0.4925
  499ccc     C613760   5.145   5.324   7.467  1.0584  0.0163 -0.0693
  499ccc     H613761   4.676   5.064   7.490 -1.1659  0.4894 -0.4479
  499ccc     H713762   5.094   5.101   7.384  0.1473  0.3373 -1.3618
  499ccc     H813763   4.616   5.258   7.236 -1.0239 -0.0147 -0.6693
  499ccc     H913764   5.146   5.365   7.569  4.7686  0.3433 -0.1049
  499ccc    H1013765   5.192   5.408   7.414  2.6806 -0.5160  0.4707
  499ccc     O513766   5.219   5.200   7.474  0.0024  0.9563 -0.3295
  499ccc    H1113767   5.311   5.221   7.500  0.4077 -1.1780  0.1407
  499ccc     O613768   4.997   5.338   7.282 -0.1812 -0.0832  0.2798
  500ccc     C113769   5.307   5.087   6.482  0.3396 -0.2841  0.2908
  500ccc     C213770   5.305   5.060   6.336  0.3869  0.6844 -0.1149
  500ccc     H113771   5.203   5.074   6.517  0.4533 -0.5078  0.5523
  500ccc     H213772   5.271   4.956   6.327 -0.6495  1.1486 -2.1537
  500ccc     C313773   5.205   5.153   6.263 -0.4132 -0.6449 -0.8737
  500ccc     C413774   5.236   5.305   6.302 -0.2669  0.3123  0.6638
  500ccc     C513775   5.257   5.324   6.451  0.1271 -0.6452 -0.0993
  500ccc     H313776   5.328   5.333   6.250 -0.0786  0.5834  1.1363
  500ccc     H413777   5.108   5.129   6.308 -0.5840  2.4934  0.6989
  500ccc     H513778   5.164   5.320   6.508  0.4036 -0.5034  0.3637
  500ccc     O113779   5.328   5.449   6.471  0.6562  0.0652  0.2130
  500ccc     O213780   5.120   5.386   6.249 -0.5628  0.1238  0.7584
  500ccc     O313781   5.188   5.127   6.123  0.2360  0.3404  0.1807
  500ccc     O413782   5.439   5.066   6.290  0.2072 -0.4279  0.3026
  500ccc     C613783   5.395   4.998   6.570 -0.4248  0.5835  0.2215
  500ccc     H613784   5.125   5.195   6.094 -0.4527 -0.8124 -1.1069
  500ccc     H713785   5.429   5.044   6.195 -4.1495 -1.1180  0.7123
  500ccc     H813786   5.157   5.476   6.256  1.0688 -0.4827  0.3617
  500ccc     H913787   5.366   4.895   6.544 -0.3748  0.4658  0.6186
  500ccc    H1013788   5.384   5.023   6.676  2.1918 -0.4476  0.8356
  500ccc     O513789   5.529   5.023   6.529 -0.0440 -0.1933  0.5423
  500ccc    H1113790   5.506   5.052   6.439 -0.2523 -0.0650  0.6352
  500ccc     O613791   5.346   5.222   6.500 -0.4428 -0.0582 -0.1690
  501ccc     C113792   5.165   5.552   5.804 -0.0368  0.5408 -0.1241
  501ccc     C213793   5.091   5.676   5.860  0.1156  0.2108  0.8355
  501ccc     H113794   5.101   5.466   5.829  0.0964  0.6928  0.7615
  501ccc     H213795   4.988   5.679   5.823  0.1270 -1.8869  0.5393
  501ccc     C313796   5.091   5.667   6.014  0.2471 -0.1317 -0.1588
  501ccc     C413797   5.232   5.645   6.080 -0.2472 -0.6846  0.5512
  501ccc     C513798   5.295   5.520   6.014  0.4203  0.2467  0.8641
  501ccc     H313799   5.286   5.735   6.048 -0.9312 -0.9816 -1.6274
  501ccc     H413800   5.037   5.575   6.038 -0.3368  0.2264 -0.0954
  501ccc     H513801   5.254   5.426   6.052  0.6365 -1.1698 -2.1425
  501ccc     O113802   5.433   5.516   6.049 -0.1260  0.5127 -0.5642
  501ccc     O213803   5.213   5.627   6.223 -0.2437  0.0902 -0.2146
  501ccc     O313804   5.026   5.784   6.077 -0.0197  0.5855  0.1170
  501ccc     O413805   5.167   5.790   5.814 -0.1547  0.0998  0.3514
  501ccc     C613806   5.186   5.557   5.653 -0.0807 -0.2193  0.2922
  501ccc     H613807   5.078   5.862   6.052 -0.3810  0.6504 -0.4716
  501ccc     H713808   5.101   5.847   5.771 -0.6056 -1.2870 -0.8751
  501ccc     H813809   5.220   5.717   6.260  2.4285 -0.4802  0.9334
  501ccc     H913810   5.282   5.601   5.625 -1.6230  2.8491 -0.6195
  501ccc    H1013811   5.096   5.609   5.618 -0.0745  0.7668  1.6825
  501ccc     O513812   5.168   5.421   5.598 -0.6328 -0.1155 -0.0129
  501ccc    H1113813   5.220   5.438   5.518  0.7556 -0.7361  0.7285
  501ccc     O613814   5.293   5.536   5.871  0.3119  0.1834  0.3814
  502ccc     C113815   6.581   5.420   6.284 -0.3018  0.0484 -0.5518
  502ccc     C213816   6.660   5.367   6.158  0.4808 -0.2436 -0.9724
  502ccc     H113817   6.589   5.345   6.364 -1.0468  1.3055  0.7508
  502ccc     H213818   6.762   5.357   6.197 -0.4873 -0.4820  1.7100
  502ccc     C313819   6.606   5.225   6.126  0.8512 -0.0627  0.7127
  502ccc     C413820   6.454   5.233   6.097 -0.0793  0.3468  0.6523
  502ccc     C513821   6.386   5.288   6.227  0.1047  0.4765 -0.5381
  502ccc     H313822   6.443   5.305   6.015 -1.3949 -0.7138 -0.1513
  502ccc     H413823   6.614   5.157   6.212  0.5346 -0.2128  0.6246
  502ccc     H513824   6.403   5.213   6.305 -0.9951  0.0160 -0.7202
  502ccc     O113825   6.242   5.294   6.198  0.3939  0.3305  0.3782
  502ccc     O213826   6.400   5.106   6.066  0.3073  0.5170  0.1200
  502ccc     O313827   6.678   5.168   6.015  0.0512  0.4314  0.2204
  502ccc     O413828   6.647   5.462   6.049 -0.2546  0.1373 -0.2392
  502ccc     C613829   6.605   5.564   6.340 -0.3935 -0.2196 -0.3632
  502ccc     H613830   6.647   5.076   6.008 -1.3566  0.7266  2.0236
  502ccc     H713831   6.728   5.446   5.997 -1.3401 -1.8616 -1.4330
  502ccc     H813832   6.411   5.110   5.969  2.5824  3.6792  0.3492
  502ccc     H913833   6.703   5.554   6.387 -1.7752 -2.5094  2.3370
  502ccc    H1013834   6.525   5.589   6.411  2.4144 -1.5874  3.5823
  502ccc     O513835   6.609   5.655   6.232  0.0017 -0.1918  0.0123
  502ccc    H1113836   6.599   5.585   6.165 -0.2746 -0.7781  0.6562
  502ccc     O613837   6.440   5.422   6.255  0.0115  0.2586  0.2743
  503ccc     C113838   4.504   7.902   9.897  0.4670 -0.7249  0.3526
  503ccc     C213839   4.405   7.983   9.801 -0.1287 -0.6583 -0.3561
  503ccc     H113840   4.539   7.981   9.965 -2.3865 -0.4787  1.7099
  503ccc     H213841   4.350   8.053   9.864  1.2394  0.1763 -0.0353
  503ccc     C313842   4.495   8.070   9.704  0.6415 -0.2507  0.4716
  503ccc     C413843   4.604   7.991   9.628 -0.0889 -0.2474 -0.2819
  503ccc     C513844   4.692   7.918   9.731  0.0322 -0.8719 -0.6848
  503ccc     H313845   4.545   7.920   9.569 -0.4981  0.5959 -0.9048
  503ccc     H413846   4.534   8.148   9.771 -0.5736 -0.0749  1.0095
  503ccc     H513847   4.754   7.995   9.777  1.6094 -2.8475  0.7054
  503ccc     O113848   4.781   7.822   9.665  0.1208  0.5027 -0.0343
  503ccc     O213849   4.672   8.089   9.544 -0.4191  0.2074  0.1388
  503ccc     O313850   4.409   8.141   9.610 -0.6146 -0.4703  0.0026
  503ccc     O413851   4.313   7.901   9.739  0.4382 -0.0373  0.2225
  503ccc     C613852   4.429   7.788   9.977  0.3569  0.6917  0.1967
  503ccc     H613853   4.475   8.182   9.552  1.6095 -3.4241  0.2199
  503ccc     H713854   4.262   7.951   9.674  0.5747  0.0679  0.1945
  503ccc     H813855   4.733   8.030   9.496  0.0343 -0.6013  1.6440
  503ccc     H913856   4.345   7.821  10.039  0.8747 -1.0046  1.8719
  503ccc    H1013857   4.494   7.736  10.048 -2.7291 -0.2115  2.5955
  503ccc     O513858   4.375   7.692   9.883  0.2472 -0.0094  0.5125
  503ccc    H1113859   4.356   7.750   9.807  1.0361 -2.4500 -1.6954
  503ccc     O613860   4.612   7.838   9.823 -0.0964 -0.1540 -0.0599
  504ccc     C113861   5.185   7.987  10.013 -0.4323 -0.1374 -0.1771
  504ccc     C213862   5.356   8.020  10.114 -0.6100  0.2982 -0.2682
  504ccc     H113863   5.111   7.947  10.084 -0.8457 -0.5702 -0.8450
  504ccc     H213864   5.341   7.988  10.218  2.4070  1.2772  0.5849
  504ccc     C313865   5.525   7.915  10.063 -0.3731 -0.3232  0.9127
  504ccc     C413866   5.516   7.781   9.906 -0.0267 -0.9323 -0.1374
  504ccc     C513867   5.329   7.758   9.812 -0.5962  0.4981 -0.0896
  504ccc     H313868   5.593   7.819   9.837  0.5739  0.2416  1.1237
  504ccc     H413869   5.561   7.852  10.144  1.8466  1.4964  1.4253
  504ccc     H513870   5.285   7.663   9.845 -2.9185  1.3117 -0.6272
  504ccc     O113871   5.339   7.730   9.673 -0.1992  0.3442 -0.0536
  504ccc     O213872   5.571   7.648   9.950  0.0753 -0.2376 -0.2305
  504ccc     O313873   5.622   8.021  10.037  0.4599 -0.3280 -0.9035
  504ccc     O413874   5.397   8.157  10.117 -0.0680 -0.0174  0.2522
  504ccc     C613875   5.121   8.121   9.975 -0.8300  0.9556  0.2977
  504ccc     H613876   5.702   7.967  10.021 -0.4387 -1.3162 -2.3394
  504ccc     H713877   5.489   8.144  10.086  0.7705  2.5638  1.4202
  504ccc     H813878   5.576   7.646  10.047 -1.0367 -2.6026 -0.1518
  504ccc     H913879   5.186   8.186   9.914 -0.7891  0.1442 -0.5517
  504ccc    H1013880   5.085   8.178  10.061 -1.8052  2.5390 -1.1047
  504ccc     O513881   5.008   8.094   9.898 -0.0662  0.1316  0.3598
  504ccc    H1113882   5.047   8.008   9.875 -0.8970 -0.6567  1.8103
  504ccc     O613883   5.185   7.864   9.868  0.3544 -0.4179 -0.0190
  505ccc     C113884   4.065   5.982   8.140 -0.3099 -0.6578  0.1691
  505ccc     C213885   4.063   6.135   8.081 -0.1414  0.2782 -0.3237
  505ccc     H113886   3.962   5.952   8.159 -1.4867  1.5451 -2.1255
  505ccc     H213887   4.009   6.135   7.986 -0.4348  3.0137 -0.2318
  505ccc     C313888   3.988   6.222   8.188 -0.0795  0.5098 -0.2579
  505ccc     C413889   4.064   6.208   8.329 -0.2487  0.0018 -0.4450
  505ccc     C513890   4.083   6.060   8.375  0.4509 -0.2084 -0.6192
  505ccc     H313891   4.166   6.244   8.314 -0.3932  1.8786  2.3558
  505ccc     H413892   3.889   6.175   8.195  1.6089 -3.3890  0.2697
  505ccc     H513893   3.983   6.025   8.400  0.5388 -0.2495 -0.3190
  505ccc     O113894   4.179   6.065   8.488  0.4038 -0.2140 -0.0829
  505ccc     O213895   4.003   6.292   8.429 -0.1615  0.2147 -0.9466
  505ccc     O313896   3.970   6.358   8.145 -0.0742 -0.2191  0.2969
  505ccc     O413897   4.194   6.183   8.064 -0.0657 -0.4563 -0.1367
  505ccc     C613898   4.136   5.885   8.049  0.8922 -0.0720  0.6047
  505ccc     H613899   3.993   6.410   8.224 -1.4481 -1.5028  1.6143
  505ccc     H713900   4.190   6.270   8.021  1.6177 -1.7569 -3.1944
  505ccc     H813901   3.908   6.305   8.411 -0.7070  0.6263  1.8528
  505ccc     H913902   4.244   5.904   8.051  1.0397 -0.6641 -0.6558
  505ccc    H1013903   4.098   5.904   7.948 -0.2113 -1.4020  0.7468
  505ccc     O513904   4.113   5.742   8.080  0.3860  0.0971  0.8091
  505ccc    H1113905   4.164   5.685   8.020 -1.2459 -0.2363 -0.3416
  505ccc     O613906   4.137   5.976   8.274  0.6813 -0.4537  0.1812
  506ccc     C113907   5.127   5.562   9.122 -0.2645 -0.0951  0.2997
  506ccc     C213908   5.177   5.687   9.198 -0.0015 -0.0946 -0.3378
  506ccc     H113909   5.213   5.521   9.069  1.6580  2.4353  1.2737
  506ccc     H213910   5.270   5.661   9.250  0.7685  0.0532 -1.6230
  506ccc     C313911   5.212   5.805   9.105  0.1730  0.3923  0.1868
  506ccc     C413912   5.102   5.825   9.000 -0.3111 -0.0925  0.2436
  506ccc     C513913   5.063   5.695   8.925  0.3835  0.1792 -0.7345
  506ccc     H313914   5.012   5.846   9.058  0.1171 -0.4509  1.0510
  506ccc     H413915   5.300   5.779   9.044  0.1446 -0.2756  0.4211
  506ccc     H513916   5.158   5.661   8.882  0.2117 -0.4550 -0.6153
  506ccc     O113917   4.961   5.718   8.834 -0.0129 -0.7582 -0.3793
  506ccc     O213918   5.142   5.932   8.907 -0.5448 -0.4184  0.3288
  506ccc     O313919   5.238   5.920   9.190 -0.3101  0.2023 -0.0604
  506ccc     O413920   5.075   5.724   9.296  0.0687  0.0491 -0.0188
  506ccc     C613921   5.066   5.444   9.206  0.1061 -0.1031 -0.3336
  506ccc     H613922   5.307   5.966   9.139 -0.6066  0.4351 -0.2510
  506ccc     H713923   5.003   5.662   9.280  1.5696 -2.1613  1.2616
  506ccc     H813924   5.120   6.016   8.950  2.2540  0.2813  0.5852
  506ccc     H913925   5.138   5.410   9.282 -2.0192 -0.3649  1.6415
  506ccc    H1013926   5.058   5.358   9.138  0.5421  0.5244 -1.2066
  506ccc     O513927   4.937   5.478   9.258 -0.0922 -0.8176 -0.2213
  506ccc    H1113928   4.900   5.405   9.312  1.5754  0.1875  2.5365
  506ccc     O613929   5.025   5.597   9.028  0.0301 -0.4804  0.8815
  507ccc     C113930   4.401   6.882   7.478  0.2642 -0.6484  0.3393
  507ccc     C213931   4.413   6.745   7.411 -0.1246  0.0455  0.3365
  507ccc     H113932   4.445   6.875   7.578  1.9105 -0.0091 -0.2957
  507ccc     H213933   4.513   6.701   7.405  0.2178  0.9692 -0.9272
  507ccc     C313934   4.335   6.648   7.494  0.3061  0.0828  0.2049
  507ccc     C413935   4.185   6.688   7.497 -0.3672 -0.1287  0.0501
  507ccc     C513936   4.182   6.835   7.565 -0.2337 -0.8543 -0.5766
  507ccc     H313937   4.143   6.688   7.396  0.6141 -1.5248 -0.3913
  507ccc     H413938   4.379   6.659   7.594  1.1412 -0.0842 -0.1300
  507ccc     H513939   4.219   6.836   7.669 -0.8608 -2.2754 -0.3147
  507ccc     O113940   4.046   6.874   7.577 -0.3370 -0.2053  0.4113
  507ccc     O213941   4.114   6.592   7.586 -0.1011  0.1359 -0.0624
  507ccc     O313942   4.363   6.512   7.441 -0.2165 -0.1790 -0.2370
  507ccc     O413943   4.359   6.757   7.284  0.3283  0.1873  0.3976
  507ccc     C613944   4.485   6.990   7.415  0.3239 -0.2027  0.2994
  507ccc     H613945   4.455   6.493   7.466 -0.2912 -1.0224 -0.5546
  507ccc     H713946   4.395   6.845   7.264 -0.2194  0.0927 -1.1223
  507ccc     H813947   4.155   6.506   7.573  2.1293  1.4261 -2.3759
  507ccc     H913948   4.587   6.977   7.453  1.0884  1.0293 -1.2071
  507ccc    H1013949   4.450   7.089   7.447 -0.0194 -0.1820 -0.1252
  507ccc     O513950   4.499   6.980   7.275  0.5959  0.2598  0.2995
  507ccc    H1113951   4.536   7.069   7.263  0.6683  0.2011  0.0807
  507ccc     O613952   4.264   6.927   7.489 -0.3639  0.3894  0.0346
  508ccc     C113953   3.597   6.608   7.924  0.5229 -0.4531  0.6066
  508ccc     C213954   3.722   6.520   7.933 -0.6119  0.1978 -0.3001
  508ccc     H113955   3.518   6.551   7.874 -0.2311  0.6472  0.4963
  508ccc     H213956   3.700   6.424   7.980  0.3222  0.0895 -0.0567
  508ccc     C313957   3.783   6.488   7.794 -0.8444  0.0575 -0.7011
  508ccc     C413958   3.805   6.621   7.715  0.4033  0.2174 -0.5488
  508ccc     C513959   3.673   6.705   7.704 -0.3563 -0.3311 -0.2784
  508ccc     H313960   3.878   6.685   7.766 -0.1957 -0.0115  0.6261
  508ccc     H413961   3.707   6.429   7.743  0.0307  0.5408 -2.6297
  508ccc     H513962   3.602   6.648   7.642  1.5478 -0.5941 -2.3796
  508ccc     O113963   3.689   6.834   7.645  0.5437 -0.3300  0.0717
  508ccc     O213964   3.863   6.580   7.590  0.4433  0.1459  0.7447
  508ccc     O313965   3.910   6.418   7.805  0.4761  0.1611  0.3515
  508ccc     O413966   3.818   6.596   8.009 -0.0336 -0.0603 -0.2195
  508ccc     C613967   3.532   6.653   8.057 -0.6161  0.3512 -0.0750
  508ccc     H613968   3.935   6.399   7.713  1.8806 -0.7443  0.8973
  508ccc     H713969   3.765   6.645   8.075  1.5326  1.5795 -0.1142
  508ccc     H813970   3.960   6.572   7.599  0.1757 -2.1140  2.4020
  508ccc     H913971   3.457   6.584   8.095  0.0910  0.2352  1.1500
  508ccc    H1013972   3.474   6.745   8.041 -1.0561  0.1266  0.2087
  508ccc     O513973   3.627   6.678   8.160 -0.5347 -0.1958 -0.0357
  508ccc    H1113974   3.574   6.663   8.239 -1.2526 -1.3269 -0.7008
  508ccc     O613975   3.631   6.725   7.843  0.4034 -0.4729 -0.1991
  509ccc     C113976   5.001   7.157   7.138  0.3038 -0.3957 -0.6426
  509ccc     C213977   4.923   7.261   7.059  0.4442  0.3815 -0.2866
  509ccc     H113978   4.976   7.062   7.090 -3.0683  0.1085 -0.1456
  509ccc     H213979   4.949   7.246   6.953  2.9594 -2.6996  0.6163
  509ccc     C313980   4.766   7.248   7.077 -0.3805  0.2489 -0.2360
  509ccc     C413981   4.732   7.247   7.222  0.1240 -0.0630 -0.7558
  509ccc     C513982   4.821   7.154   7.316 -0.3811  0.0574 -0.2410
  509ccc     H313983   4.759   7.343   7.266  0.4590 -1.8734  3.4111
  509ccc     H413984   4.742   7.147   7.040 -1.6082  1.2104 -2.1991
  509ccc     H513985   4.788   7.050   7.304  2.3441 -0.7722 -1.2604
  509ccc     O113986   4.799   7.201   7.451 -0.3049  0.4722 -0.0172
  509ccc     O213987   4.595   7.212   7.245  0.2726  0.1484 -0.3325
  509ccc     O313988   4.688   7.347   6.998  0.5080  0.6918 -0.4604
  509ccc     O413989   4.960   7.390   7.096 -1.1046  0.0347 -0.3734
  509ccc     C613990   5.147   7.186   7.123 -0.2177 -0.0903 -0.1999
  509ccc     H613991   4.713   7.335   6.905  1.2232 -0.8620 -0.1021
  509ccc     H713992   4.928   7.454   7.031  1.8118  0.6255 -1.3379
  509ccc     H813993   4.536   7.283   7.215 -0.6135 -0.5554 -0.3190
  509ccc     H913994   5.179   7.282   7.166 -0.4684 -0.1899  0.2047
  509ccc    H1013995   5.168   7.191   7.015 -1.7048  2.2279 -0.4321
  509ccc     O513996   5.233   7.091   7.172 -0.1292  0.1743  0.1174
  509ccc    H1113997   5.197   7.079   7.261 -0.7424  0.8842 -0.0227
  509ccc     O613998   4.962   7.165   7.282 -0.1904  0.1225  0.2831
  510ccc     C113999   4.531   6.549   7.994  0.1973 -0.4403  0.0024
  510ccc     C214000   4.431   6.447   7.935  0.4185 -0.4047 -0.7414
  510ccc     H114001   4.535   6.553   8.104  1.2956 -0.3332 -0.0260
  510ccc     H214002   4.439   6.355   7.993 -2.6132 -0.2708  0.0599
  510ccc     C314003   4.284   6.489   7.966 -0.3052 -0.2652 -0.1280
  510ccc     C414004   4.256   6.628   7.924  0.5568 -0.2878  0.0379
  510ccc     C514005   4.365   6.732   7.976  0.0072  0.4947  0.3118
  510ccc     H314006   4.265   6.629   7.815 -0.9712 -2.0189 -0.1557
  510ccc     H414007   4.274   6.497   8.075 -2.5521 -1.0452 -0.2269
  510ccc     H514008   4.349   6.746   8.083  0.3565 -1.1732  0.6119
  510ccc     O114009   4.330   6.857   7.920  0.2072  0.5558  0.1379
  510ccc     O214010   4.121   6.659   7.958  0.5965  0.2703 -0.1552
  510ccc     O314011   4.185   6.395   7.910 -0.4135 -0.2266 -0.3590
  510ccc     O414012   4.444   6.439   7.790  0.0252 -0.3507 -0.5698
  510ccc     C614013   4.672   6.513   7.956 -1.0268  0.9555 -0.1015
  510ccc     H614014   4.194   6.382   7.814 -0.8676 -0.4186 -0.3755
  510ccc     H714015   4.537   6.467   7.782 -0.0023 -0.1173 -0.1314
  510ccc     H814016   4.102   6.751   7.933  1.3672  0.1358 -1.3269
  510ccc     H914017   4.695   6.418   8.006  1.3195  1.4677 -0.1040
  510ccc    H1014018   4.743   6.588   7.994  1.4053 -1.5449  0.5740
  510ccc     O514019   4.691   6.492   7.820 -0.0503  0.3973  0.1991
  510ccc    H1114020   4.786   6.469   7.822 -0.3692 -0.9734  0.7441
  510ccc     O614021   4.496   6.681   7.940  0.0223 -0.5397 -0.1305
  511ccc     C114022   9.579   6.418  10.812 -0.4527 -0.2227 -0.1810
  511ccc     C214023   9.487   6.470  10.928  0.5082 -0.1725  0.7898
  511ccc     H114024   9.605   6.315  10.841 -1.3093 -0.2960  0.3660
  511ccc     H214025   9.394   6.415  10.944 -0.2375  0.4800 -1.0336
  511ccc     C314026   9.553   6.461  11.073 -0.8444  0.9283 -0.0973
  511ccc     C414027   9.695   6.529  11.061  0.2520 -0.1565  0.3754
  511ccc     C514028   9.778   6.471  10.943 -0.7567 -0.1042  0.0289
  511ccc     H314029   9.667   6.633  11.039 -0.5224 -0.3335  0.5304
  511ccc     H414030   9.569   6.353  11.083 -0.3336  1.0187  0.0359
  511ccc     H514031   9.815   6.371  10.966 -1.1567 -0.5129 -1.0572
  511ccc     O114032   9.895   6.550  10.929 -0.0211 -0.3047 -0.4388
  511ccc     O214033   9.769   6.506  11.187  0.0222 -0.0131 -0.0761
  511ccc     O314034   9.475   6.523  11.176 -0.4433  0.1208  0.3817
  511ccc     O414035   9.458   6.606  10.895  0.2224  0.6708 -0.1032
  511ccc     C614036   9.517   6.421  10.669 -0.6373  0.0243 -0.6564
  511ccc     H614037   9.425   6.448  11.214 -0.3803 -1.5276 -2.4722
  511ccc     H714038   9.453   6.591  10.799  1.0678 -2.8896  0.2344
  511ccc     H814039   9.757   6.410  11.191 -0.4607 -0.1095 -2.2825
  511ccc     H914040   9.433   6.351  10.673  0.3714 -1.1912  0.2058
  511ccc    H1014041   9.596   6.391  10.600  1.9788 -0.2260  2.2312
  511ccc     O514042   9.466   6.554  10.639 -1.0347 -0.6029 -0.0335
  511ccc    H1114043   9.493   6.570  10.547  0.1918  0.0333  0.4178
  511ccc     O614044   9.703   6.486  10.817  0.4378  0.0261  0.0180
  512ccc     C114045  10.171   5.661  10.360  0.2697  0.3033  0.7077
  512ccc     C214046  10.261   5.537  10.396  0.2494  0.2032  0.0439
  512ccc     H114047  10.234   5.743  10.325 -1.5250  0.6709 -2.0003
  512ccc     H214048  10.325   5.526  10.308 -0.2713 -1.0410 -0.1954
  512ccc     C314049  10.356   5.564  10.524  0.3544 -0.2683  1.4590
  512ccc     C414050  10.279   5.637  10.640  0.2332 -0.8455  0.5813
  512ccc     C514051  10.188   5.750  10.581 -0.2316 -0.2002  1.0498
  512ccc     H314052  10.210   5.563  10.682 -1.0616 -1.1218 -1.8419
  512ccc     H414053  10.442   5.620  10.484  0.0376 -0.6921  0.1445
  512ccc     H514054  10.244   5.831  10.531 -1.7800  0.6817  0.6851
  512ccc     O114055  10.109   5.821  10.686 -0.6871 -0.5101  0.1445
  512ccc     O214056  10.372   5.680  10.742 -0.1975 -0.1995 -0.0831
  512ccc     O314057  10.397   5.434  10.573 -0.6788  0.0664  0.2548
  512ccc     O414058  10.185   5.416  10.430  0.2045  0.4241 -0.2152
  512ccc     C614059  10.070   5.643  10.239 -0.3413 -0.1306  0.1162
  512ccc     H614060  10.472   5.446  10.635 -0.9323 -1.4282  0.8875
  512ccc     H714061  10.227   5.386  10.513  2.8918 -0.2313 -1.6798
  512ccc     H814062  10.431   5.745  10.700 -2.0369  0.7494 -1.3702
  512ccc     H914063   9.987   5.574  10.256 -0.3458 -0.6035 -1.6431
  512ccc    H1014064  10.130   5.594  10.161  0.0914  0.8887 -0.2070
  512ccc     O514065  10.031   5.774  10.188 -0.5295 -0.5060  0.0172
  512ccc    H1114066   9.941   5.780  10.224 -0.5179 -1.1702  0.1831
  512ccc     O614067  10.101   5.704  10.475 -0.2531  0.2141 -0.1153
  513ccc     C114068   9.865   7.856  11.678  0.4193  0.7652 -0.1992
  513ccc     C214069   9.873   8.005  11.629 -0.2081 -0.3043 -0.4611
  513ccc     H114070   9.934   7.826  11.758  0.9557  1.3464 -0.4454
  513ccc     H214071   9.861   8.068  11.718 -0.0558  0.1861 -0.7880
  513ccc     C314072  10.010   8.039  11.569 -0.0252  0.0323 -0.9322
  513ccc     C414073  10.039   7.948  11.456 -0.0956  0.5537  0.7849
  513ccc     C514074  10.020   7.798  11.499  0.1818 -0.2607 -0.4325
  513ccc     H314075   9.959   7.969  11.384  0.2149 -0.5868  0.0831
  513ccc     H414076  10.081   8.010  11.647 -0.2461 -1.0598 -1.1118
  513ccc     H514077  10.097   7.772  11.572 -0.0659  0.6638  0.1723
  513ccc     O114078  10.041   7.720  11.379 -0.4929 -0.4745  0.2041
  513ccc     O214079  10.179   7.975  11.416 -0.0533 -0.3741  0.0887
  513ccc     O314080  10.021   8.179  11.535 -0.4751  0.2531 -0.0657
  513ccc     O414081   9.771   8.029  11.539 -0.3831  0.3540  0.3368
  513ccc     C614082   9.724   7.802  11.723  0.5124 -0.3313 -0.0510
  513ccc     H614083  10.112   8.213  11.527 -0.5247  1.1842  2.2827
  513ccc     H714084   9.700   7.966  11.560 -0.8988  0.7834 -0.0670
  513ccc     H814085  10.162   8.035  11.342  0.2401  0.8467  0.9740
  513ccc     H914086   9.695   7.845  11.820  1.2836 -2.5532  1.2420
  513ccc    H1014087   9.734   7.693  11.729 -4.2885 -0.9394  0.5250
  513ccc     O514088   9.631   7.833  11.613  0.1497 -0.7842 -0.2798
  513ccc    H1114089   9.548   7.788  11.637  0.2001 -0.5646  0.2981
  513ccc     O614090   9.893   7.773  11.561  0.0439 -0.2709 -0.5289
  514ccc     C114091  10.199   7.565  11.838 -0.0979  0.7518  0.3589
  514ccc     C214092  10.238   7.713  11.867  0.2429 -0.2067  0.5239
  514ccc     H114093  10.222   7.500  11.924  2.1560 -0.2527 -0.8996
  514ccc     H214094  10.217   7.735  11.972 -0.9660  0.6758  0.1063
  514ccc     C314095  10.397   7.730  11.859  0.3977  0.3031  0.0317
  514ccc     C414096  10.452   7.664  11.729  0.4822 -0.6154 -0.7729
  514ccc     C514097  10.390   7.523  11.709  0.2656  0.4069  0.4485
  514ccc     H314098  10.423   7.728  11.645  1.1142 -1.3200 -1.5410
  514ccc     H414099  10.444   7.686  11.947 -0.6711  0.8054  0.8809
  514ccc     H514100  10.427   7.463  11.793 -0.5730 -0.2658  0.3513
  514ccc     O114101  10.424   7.469  11.576  0.1715  0.5316 -0.9204
  514ccc     O214102  10.602   7.659  11.741  0.4454  0.0924  0.3725
  514ccc     O314103  10.429   7.877  11.870 -0.0684 -0.0492 -0.5922
  514ccc     O414104  10.196   7.813  11.772  0.6258 -0.2738 -0.5415
  514ccc     C614105  10.053   7.548  11.834 -0.0881 -0.0819  0.5796
  514ccc     H614106  10.522   7.883  11.843 -0.0665 -1.2052 -0.9247
  514ccc     H714107  10.267   7.879  11.780 -0.8059  1.2489  0.2479
  514ccc     H814108  10.619   7.590  11.807  0.1910 -1.7822 -1.4299
  514ccc     H914109  10.007   7.576  11.738 -1.4028 -1.0175  0.9008
  514ccc    H1014110  10.006   7.605  11.915  0.7672 -1.0439  1.7903
  514ccc     O514111  10.034   7.409  11.851  0.2903  0.6473 -0.6374
  514ccc    H1114112  10.029   7.385  11.757  1.1478  2.3547 -1.1432
  514ccc     O614113  10.250   7.516  11.718  0.1568  0.8096  0.4024
  515ccc     C114114  11.141   6.704   8.647  0.1837  0.0224  0.1066
  515ccc     C214115  11.021   6.802   8.623 -0.8906 -0.1749  0.0003
  515ccc     H114116  11.093   6.613   8.683  0.7114  0.8328  3.1271
  515ccc     H214117  10.957   6.754   8.548 -0.2163  1.2385 -1.5444
  515ccc     C314118  10.951   6.844   8.750  0.0253  0.4829 -1.3480
  515ccc     C414119  11.046   6.882   8.865  0.8374  0.0864 -0.4161
  515ccc     C514120  11.162   6.780   8.881  0.0647 -0.0885  0.5256
  515ccc     H314121  11.088   6.978   8.834  0.2778  0.5064  0.1070
  515ccc     H414122  10.887   6.757   8.770  0.5818  0.1886 -0.8294
  515ccc     H514123  11.111   6.688   8.909 -0.0059 -0.4971 -0.8471
  515ccc     O114124  11.258   6.828   8.974  0.2642 -0.2373  0.1071
  515ccc     O214125  10.963   6.895   8.980 -0.8515  0.3274 -0.0048
  515ccc     O314126  10.871   6.955   8.715  0.0244 -0.2397  0.6912
  515ccc     O414127  11.056   6.923   8.563 -0.2936  0.3991  0.1270
  515ccc     C614128  11.222   6.679   8.514 -0.3263 -0.8421 -0.1388
  515ccc     H614129  10.834   6.997   8.795 -0.4139  0.8809 -0.0638
  515ccc     H714130  10.986   6.977   8.604  1.3536  1.6023  1.5284
  515ccc     H814131  10.889   6.831   8.979  1.1781 -2.1749 -0.0574
  515ccc     H914132  11.162   6.624   8.440  0.5430  1.5844 -2.8163
  515ccc    H1014133  11.308   6.618   8.546 -0.3154 -0.0014  1.5757
  515ccc     O514134  11.269   6.805   8.463  0.3450  0.4411 -0.0322
  515ccc    H1114135  11.185   6.854   8.469 -0.5954 -1.2275  1.7439
  515ccc     O614136  11.224   6.756   8.752  0.2963 -0.2820 -0.1595
  516ccc     C114137  10.745   5.992   9.117  0.1578 -0.3129  0.6227
  516ccc     C214138  10.614   6.044   9.180 -0.3133 -0.0700 -0.3348
  516ccc     H114139  10.764   5.891   9.155 -1.6052 -1.1272 -0.5106
  516ccc     H214140  10.546   5.959   9.161  0.4530 -0.2774 -2.4755
  516ccc     C314141  10.633   6.082   9.331  0.1541  0.4950  0.4655
  516ccc     C414142  10.762   6.172   9.351 -0.5746  0.2777 -0.3301
  516ccc     C514143  10.884   6.109   9.274 -0.5336  0.3303  0.8823
  516ccc     H314144  10.740   6.261   9.290 -1.4335  0.7675  0.6784
  516ccc     H414145  10.643   5.988   9.388  2.1107  0.2721 -0.1913
  516ccc     H514146  10.915   6.019   9.328 -1.8904  0.3261  1.7002
  516ccc     O114147  10.996   6.200   9.277  0.4181 -0.6864 -0.4323
  516ccc     O214148  10.794   6.201   9.495 -0.8156 -0.1951  0.6385
  516ccc     O314149  10.511   6.157   9.380  0.3276  0.6611 -0.2457
  516ccc     O414150  10.549   6.170   9.130 -0.3395 -0.1159  0.2429
  516ccc     C614151  10.727   5.978   8.958 -1.0327  0.1384 -0.8821
  516ccc     H614152  10.506   6.134   9.475  1.3600  0.2482 -0.2680
  516ccc     H714153  10.499   6.197   9.209 -2.9976  0.4197 -1.4950
  516ccc     H814154  10.813   6.296   9.500 -1.5012  0.0737 -1.1983
  516ccc     H914155  10.692   5.877   8.934 -0.9381 -0.1219  0.0117
  516ccc    H1014156  10.824   5.992   8.910 -0.6368 -2.1307 -0.8497
  516ccc     O514157  10.617   6.054   8.900  0.8283  0.9949 -0.5571
  516ccc    H1114158  10.579   6.111   8.969 -0.3525 -0.3040 -0.1114
  516ccc     O614159  10.852   6.082   9.132  0.1846 -0.8885 -0.0048
  517ccc     C114160  11.278   7.791   8.960  0.4542 -0.4937 -0.3422
  517ccc     C214161  11.163   7.713   9.021 -0.0529  0.3440  0.0293
  517ccc     H114162  11.297   7.751   8.860  1.0467  0.1576 -0.4964
  517ccc     H214163  11.085   7.707   8.943  2.1456  0.9605 -2.3446
  517ccc     C314164  11.207   7.572   9.051 -0.2679 -0.0892 -0.7478
  517ccc     C414165  11.330   7.579   9.144 -0.0381 -0.1712 -0.1580
  517ccc     C514166  11.439   7.659   9.063  0.1499  0.0342 -0.5079
  517ccc     H314167  11.310   7.642   9.232 -1.0626 -1.2344  0.3938
  517ccc     H414168  11.235   7.535   8.952  0.5529 -1.1172 -0.1520
  517ccc     H514169  11.451   7.607   8.968 -0.1691 -0.6821 -0.1585
  517ccc     O114170  11.561   7.675   9.141 -0.3037  0.5045  0.4829
  517ccc     O214171  11.377   7.446   9.178 -0.2294 -0.5444 -0.0226
  517ccc     O314172  11.109   7.483   9.107 -0.5348  0.3697  0.0346
  517ccc     O414173  11.120   7.775   9.143  0.6335 -0.5133  0.0276
  517ccc     C614174  11.244   7.939   8.931 -0.2759 -0.8335  0.8501
  517ccc     H614175  11.142   7.392   9.099  0.3641  0.5534  1.3169
  517ccc     H714176  11.024   7.763   9.132  0.6559 -0.8358  0.1787
  517ccc     H814177  11.468   7.466   9.206 -0.6029  0.5346  0.5027
  517ccc     H914178  11.152   7.955   8.873  0.3704 -0.2315 -0.0510
  517ccc    H1014179  11.314   7.993   8.865 -2.0498  2.7391  1.6552
  517ccc     O514180  11.238   8.011   9.055 -0.1056  0.3964 -0.2212
  517ccc    H1114181  11.231   7.933   9.113 -2.6037  0.6006 -0.1471
  517ccc     O614182  11.393   7.794   9.041 -0.5302 -0.5194 -0.2544
  518ccc     C114183  11.923   6.748   9.061 -0.0532 -0.2498  0.3465
  518ccc     C214184  11.871   6.629   9.137  0.1615  0.1399  0.0667
  518ccc     H114185  12.020   6.767   9.107  0.5250 -1.6759 -0.2222
  518ccc     H214186  11.943   6.549   9.118 -1.6452 -1.4083 -0.5680
  518ccc     C314187  11.844   6.649   9.281  0.0466 -0.1695 -0.0825
  518ccc     C414188  11.752   6.775   9.298  0.7243  0.2957 -0.8837
  518ccc     C514189  11.805   6.892   9.218 -0.0953 -0.5262  0.3063
  518ccc     H314190  11.656   6.753   9.248  2.4222 -0.4100 -4.1559
  518ccc     H414191  11.936   6.673   9.336 -0.9836  1.9409  0.8506
  518ccc     H514192  11.900   6.930   9.256  0.5041  1.0732 -2.5454
  518ccc     O114193  11.709   6.998   9.213  0.4722 -0.5484 -0.3841
  518ccc     O214194  11.741   6.815   9.433  0.1659  0.4329 -0.7861
  518ccc     O314195  11.790   6.530   9.340 -0.0055 -0.1229  0.3195
  518ccc     O414196  11.748   6.588   9.077 -0.4612 -0.1306  0.0414
  518ccc     C614197  11.938   6.712   8.911 -0.8548 -0.0340  0.0265
  518ccc     H614198  11.792   6.525   9.437 -2.7031 -0.2132  0.4403
  518ccc     H714199  11.716   6.539   9.155 -0.5635 -1.9068 -1.0670
  518ccc     H814200  11.646   6.824   9.453  0.5221 -0.1040  1.4894
  518ccc     H914201  11.994   6.618   8.905  0.7861  0.6333  2.8688
  518ccc    H1014202  11.997   6.789   8.859 -0.8991  2.5608  3.4664
  518ccc     O514203  11.811   6.697   8.852 -0.2121 -0.5063 -0.1534
  518ccc    H1114204  11.767   6.656   8.928 -1.1234 -1.1163 -0.9821
  518ccc     O614205  11.828   6.851   9.084  0.3666 -0.0130  0.2053
  519ccc     C114206   9.327   5.574   9.774 -0.3768 -0.2108 -0.2533
  519ccc     C214207   9.282   5.493   9.650  0.1098 -0.7336 -0.4907
  519ccc     H114208   9.410   5.514   9.812  0.7503  1.0488 -0.6690
  519ccc     H214209   9.369   5.468   9.589  0.3646  1.4956 -1.1511
  519ccc     C314210   9.216   5.357   9.681 -0.5177 -0.9933  0.0856
  519ccc     C414211   9.093   5.380   9.776 -0.0905 -0.1279  0.1157
  519ccc     C514212   9.142   5.458   9.901 -1.1164  0.1032 -0.0898
  519ccc     H314213   9.014   5.442   9.733  1.3107 -0.2167 -2.8937
  519ccc     H414214   9.292   5.293   9.728 -0.0657 -0.9064 -0.5030
  519ccc     H514215   9.213   5.393   9.953  0.4173 -1.2550 -3.6104
  519ccc     O114216   9.026   5.487   9.981 -0.2380  0.4599  0.4807
  519ccc     O214217   9.040   5.247   9.809  0.3465  0.2160  0.3689
  519ccc     O314218   9.189   5.296   9.549 -0.1650  0.3400  0.1270
  519ccc     O414219   9.193   5.584   9.586  0.4728  0.9814  0.2061
  519ccc     C614220   9.387   5.712   9.753  0.8640  0.0820  0.1428
  519ccc     H614221   9.124   5.359   9.515 -1.5451 -0.2080  1.6131
  519ccc     H714222   9.223   5.669   9.621  1.6893  0.2373  1.0615
  519ccc     H814223   8.950   5.270   9.840 -1.2498 -3.7581 -0.6875
  519ccc     H914224   9.486   5.711   9.706  1.3165  0.6724  1.0445
  519ccc    H1014225   9.404   5.758   9.852 -1.3441  0.3919  0.4457
  519ccc     O514226   9.303   5.800   9.681  0.3614  0.1364 -0.3789
  519ccc    H1114227   9.341   5.890   9.681 -1.0834  0.7906 -1.3379
  519ccc     O614228   9.211   5.583   9.863 -0.1546  0.3407 -0.8732
  520ccc     C114229   8.738   6.477  10.289  0.0724  0.7139  0.1736
  520ccc     C214230   8.785   6.511  10.151  0.3706  0.4670  0.0284
  520ccc     H114231   8.797   6.540  10.358 -1.0706  1.6618  0.3165
  520ccc     H214232   8.778   6.620  10.139 -0.7975  0.5784  1.4400
  520ccc     C314233   8.930   6.458  10.120  0.4267 -0.4961 -0.7402
  520ccc     C414234   8.954   6.314  10.168  0.1100 -0.2238 -0.5033
  520ccc     C514235   8.903   6.292  10.319  0.1185 -0.1317 -0.0910
  520ccc     H314236   8.894   6.243  10.109 -0.9568 -0.3108  0.6494
  520ccc     H414237   8.993   6.518  10.186 -2.3960  2.0119 -0.1237
  520ccc     H514238   8.962   6.344  10.396 -1.0779 -0.0474  0.7961
  520ccc     O114239   8.911   6.154  10.346  0.0456  0.4213 -0.0304
  520ccc     O214240   9.101   6.280  10.151  0.3969  0.3358  0.8363
  520ccc     O314241   8.970   6.470   9.981  0.0454 -0.0822  0.0907
  520ccc     O414242   8.693   6.451  10.064  0.0530 -0.6287  0.4663
  520ccc     C614243   8.587   6.512  10.316 -0.4063  0.6195  0.0666
  520ccc     H614244   9.067   6.462   9.988 -0.0763 -1.5453  0.6349
  520ccc     H714245   8.736   6.453   9.977 -1.2178  1.0865 -0.1752
  520ccc     H814246   9.094   6.272  10.054  0.2367  1.3443  0.7571
  520ccc     H914247   8.579   6.617  10.288  2.0414  1.2944  1.5736
  520ccc    H1014248   8.553   6.503  10.420 -1.0628 -0.7961 -0.2401
  520ccc     O514249   8.514   6.414  10.242  0.4254 -0.4351 -0.5401
  520ccc    H1114250   8.577   6.407  10.169  0.7107  0.5669 -0.4083
  520ccc     O614251   8.766   6.339  10.327 -0.5918  0.4766  0.4834
  521ccc     C114252   8.063   4.709   9.974  0.3539 -0.5512 -0.5091
  521ccc     C214253   7.930   4.652   9.994  0.2515  1.3215  0.0465
  521ccc     H114254   8.135   4.629   9.954 -0.2610 -1.5273  1.0451
  521ccc     H214255   7.898   4.597   9.905  1.3619  0.0783  0.3851
  521ccc     C314256   7.936   4.546  10.103 -0.3180 -0.5047  0.3777
  521ccc     C414257   7.998   4.598  10.239  0.0420 -0.0148 -0.5970
  521ccc     C514258   8.128   4.680  10.212  1.0056 -0.1619  1.2491
  521ccc     H314259   7.927   4.671  10.280 -0.6397 -0.8266 -0.3157
  521ccc     H414260   8.012   4.481  10.057  0.2428  2.0273 -2.5770
  521ccc     H514261   8.214   4.616  10.190  0.6483 -0.2380  0.0445
  521ccc     O114262   8.162   4.756  10.323  0.0996 -0.1776 -0.6049
  521ccc     O214263   8.018   4.490  10.333  0.3536  0.2189 -0.1715
  521ccc     O314264   7.812   4.472  10.110  0.0524 -0.1594  0.3977
  521ccc     O414265   7.837   4.750  10.028  0.6775 -0.4171  0.0379
  521ccc     C614266   8.075   4.819   9.870 -0.2591 -0.0794 -0.6958
  521ccc     H614267   7.740   4.530  10.078 -2.2976 -2.0444  1.8557
  521ccc     H714268   7.885   4.824   9.985  0.5408 -0.4209 -0.1239
  521ccc     H814269   8.060   4.537  10.407  1.4711  0.2082 -0.7802
  521ccc     H914270   8.098   4.779   9.770 -1.9751  0.3161 -1.2702
  521ccc    H1014271   8.153   4.887   9.905  0.3947 -1.2285  0.1727
  521ccc     O514272   7.956   4.900   9.852 -0.4020  0.5262 -0.2702
  521ccc    H1114273   7.980   4.990   9.825 -0.6240  1.4196  2.2177
  521ccc     O614274   8.098   4.771  10.103 -0.0398 -0.1019 -0.2048
  522ccc     C114275   8.635   4.349   9.876  0.4123 -0.4879 -0.0721
  522ccc     C214276   8.551   4.219   9.876  0.0839  0.3809  0.9659
  522ccc     H114277   8.662   4.360   9.982  1.4922 -1.0463 -0.2703
  522ccc     H214278   8.618   4.139   9.912  0.8311 -0.3157 -1.7561
  522ccc     C314279   8.428   4.233   9.961  0.9141 -0.2506 -0.0684
  522ccc     C414280   8.339   4.354   9.913  0.6084 -0.0377  0.7626
  522ccc     C514281   8.425   4.477   9.912 -0.4119  0.2762  0.4955
  522ccc     H314282   8.313   4.329   9.810 -1.0809 -0.1046  1.1827
  522ccc     H414283   8.460   4.253  10.064  0.7924 -0.9362  0.1033
  522ccc     H514284   8.443   4.495  10.018 -1.4979 -1.4097  0.9976
  522ccc     O114285   8.357   4.588   9.855  0.3232 -0.3078  0.0220
  522ccc     O214286   8.233   4.383  10.005  0.0867 -0.3674 -0.3017
  522ccc     O314287   8.354   4.108   9.974 -0.1869  0.3668  0.2324
  522ccc     O414288   8.513   4.188   9.742 -0.3032  0.2804 -0.2776
  522ccc     C614289   8.766   4.343   9.783  1.0943  0.0555 -0.2067
  522ccc     H614290   8.262   4.126  10.001 -0.3659 -1.1572  0.7438
  522ccc     H714291   8.457   4.109   9.746 -0.8373  0.3208 -3.9578
  522ccc     H814292   8.152   4.368   9.953 -1.1359  2.5918  0.5066
  522ccc     H914293   8.825   4.268   9.837  0.8345  0.7837  1.1412
  522ccc    H1014294   8.818   4.440   9.780  0.5173  0.3585 -0.6415
  522ccc     O514295   8.736   4.304   9.651  0.0336  0.1508  0.0029
  522ccc    H1114296   8.648   4.269   9.673 -0.7648  0.5698 -2.2835
  522ccc     O614297   8.549   4.455   9.834  0.1125 -0.2756 -0.0684
  523ccc     C114298   9.441   6.372   8.777  0.2745  0.2701  0.5175
  523ccc     C214299   9.441   6.480   8.662 -0.2236  0.5577 -0.1146
  523ccc     H114300   9.532   6.314   8.759  0.8985  1.1826  0.7119
  523ccc     H214301   9.538   6.531   8.665  0.1607 -0.1397 -0.6360
  523ccc     C314302   9.404   6.417   8.524  0.0930 -0.2192 -0.5670
  523ccc     C414303   9.285   6.320   8.534 -0.3142  0.1787 -0.1529
  523ccc     C514304   9.310   6.210   8.641  0.0876 -0.2929 -0.6899
  523ccc     H314305   9.208   6.383   8.580  0.8650  0.0871  2.0872
  523ccc     H414306   9.498   6.365   8.500  2.5804  3.0005  1.3081
  523ccc     H514307   9.399   6.150   8.621  0.7787  0.8306 -1.0225
  523ccc     O114308   9.188   6.125   8.656 -0.8064 -0.0144 -0.2807
  523ccc     O214309   9.250   6.264   8.411  0.0300  0.0457  0.6403
  523ccc     O314310   9.372   6.516   8.422  1.0273  0.2064  0.8838
  523ccc     O414311   9.336   6.580   8.690 -0.8995  0.0050 -0.1392
  523ccc     C614312   9.445   6.440   8.913  0.0282  0.0890  0.3354
  523ccc     H614313   9.394   6.472   8.338 -1.6404  1.5969 -0.6643
  523ccc     H714314   9.327   6.633   8.608 -1.9807  1.2515  0.7314
  523ccc     H814315   9.154   6.257   8.426 -0.2085  1.9805  0.2968
  523ccc     H914316   9.360   6.508   8.918 -0.0933  0.0166 -0.6005
  523ccc    H1014317   9.540   6.493   8.926 -0.1328  0.4128  0.1703
  523ccc     O514318   9.424   6.343   9.016 -0.0100 -0.0839 -0.8533
  523ccc    H1114319   9.487   6.271   8.998  1.4837  0.4053  1.7797
  523ccc     O614320   9.324   6.283   8.769 -0.1687  0.2567 -0.3825
  524ccc     C114321   9.024   5.992   8.088  0.1363  0.6196  0.5829
  524ccc     C214322   9.064   6.110   8.187  0.0417 -0.6705  0.7553
  524ccc     H114323   8.930   6.019   8.038  0.5556  2.3987  0.6704
  524ccc     H214324   9.076   6.205   8.134  1.9412 -1.4176 -0.2490
  524ccc     C314325   8.956   6.134   8.295  0.2631  0.5663 -0.0841
  524ccc     C414326   8.934   5.996   8.364 -0.4914 -0.1294 -0.2413
  524ccc     C514327   8.893   5.883   8.261 -0.5194  0.4536  0.4515
  524ccc     H314328   9.028   5.958   8.406 -0.2018 -0.4948 -1.1977
  524ccc     H414329   8.868   6.172   8.242  0.5046  0.3407 -0.6631
  524ccc     H514330   8.800   5.906   8.207 -0.7928 -1.2420  0.1393
  524ccc     O114331   8.881   5.753   8.334  0.3168 -0.2203 -0.7898
  524ccc     O214332   8.834   6.011   8.463  0.6478  0.1457  0.1681
  524ccc     O314333   8.989   6.228   8.400 -0.0415 -0.2991  0.5662
  524ccc     O414334   9.192   6.067   8.241  0.1543 -0.1788  0.4567
  524ccc     C614335   9.126   5.966   7.972  0.2845 -0.2015  0.5724
  524ccc     H614336   8.929   6.198   8.471 -0.6563 -0.8146 -0.1554
  524ccc     H714337   9.224   6.135   8.303 -0.7178  2.0763 -1.4195
  524ccc     H814338   8.817   5.920   8.494 -0.0028  0.6641  1.3494
  524ccc     H914339   9.132   6.050   7.902 -0.3868 -0.3559  0.3197
  524ccc    H1014340   9.096   5.886   7.902 -0.8921 -0.7585  1.6522
  524ccc     O514341   9.256   5.935   8.029  0.0814  0.3060 -0.0641
  524ccc    H1114342   9.233   5.975   8.115 -1.0651  1.9918 -1.1049
  524ccc     O614343   9.004   5.872   8.163  0.2940 -0.6898  0.2495
  525ccc     C114344   9.976   4.964   7.693  0.1867  0.0851 -0.0055
  525ccc     C214345  10.032   4.844   7.604  0.4787 -0.1343 -0.1392
  525ccc     H114346  10.063   5.029   7.714  2.4840 -1.7610 -2.9167
  525ccc     H214347  10.077   4.896   7.518 -1.9506  0.1336 -1.3489
  525ccc     C314348  10.124   4.751   7.690 -0.4435 -0.2544  0.1677
  525ccc     C414349  10.058   4.716   7.823 -0.0269 -0.0471 -0.1071
  525ccc     C514350  10.002   4.835   7.900 -0.7228  0.4396 -0.0181
  525ccc     H314351   9.968   4.654   7.810  0.0046 -0.1960  0.3360
  525ccc     H414352  10.218   4.805   7.707 -0.9456  1.2201 -1.4599
  525ccc     H514353  10.083   4.891   7.947 -0.6516 -0.5133  1.0500
  525ccc     O114354   9.923   4.783   8.006 -0.0286  0.3647  0.9741
  525ccc     O214355  10.163   4.644   7.894 -0.2465 -0.2806  0.1214
  525ccc     O314356  10.150   4.635   7.616 -0.7293 -0.0137 -0.0209
  525ccc     O414357   9.915   4.765   7.565 -0.0511 -0.1674  0.5525
  525ccc     C614358   9.875   5.047   7.623 -0.9224 -0.4437  0.4100
  525ccc     H614359  10.059   4.620   7.585 -0.5684 -0.8704 -0.0849
  525ccc     H714360   9.846   4.833   7.572  1.2020  1.3256 -0.7567
  525ccc     H814361  10.202   4.572   7.841  0.3553 -0.6773  1.0633
  525ccc     H914362   9.931   5.096   7.542  0.5980 -0.2724  1.5158
  525ccc    H1014363   9.840   5.122   7.695  1.9639 -0.2365  1.7546
  525ccc     O514364   9.768   4.963   7.582  0.5200  0.2038  0.1202
  525ccc    H1114365   9.700   5.025   7.552 -0.7660 -1.3979 -0.4502
  525ccc     O614366   9.917   4.914   7.817  0.0308 -0.0105 -0.2498
  526ccc     C114367   9.377   4.190   8.161 -0.5034  0.5804 -0.6783
  526ccc     C214368   9.303   4.142   8.031  0.3569 -0.0594 -0.2741
  526ccc     H114369   9.317   4.152   8.245  0.4619 -1.1607 -0.7347
  526ccc     H214370   9.290   4.033   8.044  1.7046 -0.2339 -0.2281
  526ccc     C314371   9.158   4.212   8.026 -0.3950  0.3518  0.3339
  526ccc     C414372   9.164   4.369   8.050 -0.5583  0.3068  0.8317
  526ccc     C514373   9.241   4.394   8.185 -0.5094 -1.1388  0.2330
  526ccc     H314374   9.219   4.426   7.973  0.8190 -0.2771  1.3446
  526ccc     H414375   9.101   4.158   8.104  1.2886 -2.1793 -0.0680
  526ccc     H514376   9.186   4.359   8.273 -0.5436  1.2803  1.2521
  526ccc     O114377   9.258   4.540   8.202 -0.2894  0.2618 -0.0070
  526ccc     O214378   9.029   4.415   8.067  0.2008  1.1923 -0.4006
  526ccc     O314379   9.093   4.177   7.903  0.4485 -0.9707  0.4061
  526ccc     O414380   9.370   4.170   7.910 -0.1947 -0.7112  0.0185
  526ccc     C614381   9.525   4.140   8.174  0.3896  0.1168  0.5208
  526ccc     H614382   9.115   4.241   7.833 -1.6295 -0.4837  0.1334
  526ccc     H714383   9.319   4.117   7.847 -1.4073 -0.4717  0.7561
  526ccc     H814384   9.021   4.512   8.062  2.5128  1.5298  0.9465
  526ccc     H914385   9.584   4.202   8.244 -0.8624  0.7395  1.0625
  526ccc    H1014386   9.582   4.151   8.081  1.6035  1.4340  1.3601
  526ccc     O514387   9.513   4.005   8.221  0.0720 -0.6897  0.0526
  526ccc    H1114388   9.524   3.954   8.138  0.0360 -1.6817  0.6490
  526ccc     O614389   9.371   4.332   8.171 -0.2507  0.0001 -0.1390
  527ccc     C114390   7.260   8.966  10.751 -0.3060 -0.4294  0.4726
  527ccc     C214391   7.239   9.104  10.823  0.2926  0.1090 -0.0689
  527ccc     H114392   7.159   8.924  10.739 -0.9362  1.5935 -2.2474
  527ccc     H214393   7.159   9.152  10.765  1.2383  0.4688 -1.1277
  527ccc     C314394   7.189   9.094  10.971 -0.5524 -0.1984  0.1640
  527ccc     C414395   7.283   9.005  11.054  0.2721 -0.4898 -0.3899
  527ccc     C514396   7.312   8.872  10.982 -0.0847  0.8728  0.4058
  527ccc     H314397   7.374   9.059  11.080  0.4428 -0.3549 -1.2717
  527ccc     H414398   7.090   9.048  10.972 -2.2547  3.1296 -0.6114
  527ccc     H514399   7.224   8.806  10.984  0.7837 -0.3317  0.3446
  527ccc     O114400   7.419   8.798  11.042 -0.3359  0.3737  0.1819
  527ccc     O214401   7.214   8.969  11.175  0.2735 -0.3683  0.4392
  527ccc     O314402   7.168   9.226  11.032 -0.0633  0.2543 -0.0094
  527ccc     O414403   7.359   9.178  10.811  0.0321  0.2224  0.5540
  527ccc     C614404   7.315   8.974  10.607 -0.0046 -0.4570 -0.1863
  527ccc     H614405   7.101   9.274  10.982 -0.2513 -1.5816 -1.6374
  527ccc     H714406   7.398   9.137  10.732  0.5188  1.0012  0.3829
  527ccc     H814407   7.203   9.056  11.217  2.2334  0.2164 -0.1809
  527ccc     H914408   7.253   9.039  10.545 -2.4725 -0.9040  1.7006
  527ccc    H1014409   7.308   8.873  10.563 -0.5666 -0.3857 -0.2648
  527ccc     O514410   7.453   9.021  10.611  0.6354 -0.1768 -0.3717
  527ccc    H1114411   7.512   8.944  10.621 -0.1373 -0.9023 -1.1980
  527ccc     O614412   7.346   8.891  10.841 -0.0112  0.4003 -0.0009
  528ccc     C114413   7.059   8.160  10.272  0.2444  0.1900  0.3336
  528ccc     C214414   6.911   8.111  10.293 -0.9051  0.0302  0.0731
  528ccc     H114415   7.123   8.087  10.324 -1.6017 -1.7752  0.0221
  528ccc     H214416   6.886   8.016  10.245 -2.5708 -0.1520  1.2386
  528ccc     C314417   6.870   8.109  10.441  0.7076  0.1633  1.0277
  528ccc     C414418   6.885   8.257  10.503  0.4210  0.4983  0.7224
  528ccc     C514419   7.032   8.310  10.473  0.0218  0.2565 -0.5995
  528ccc     H314420   6.814   8.323  10.451  2.2325  0.2509 -2.3051
  528ccc     H414421   6.942   8.040  10.486  1.0515 -0.9551 -1.1205
  528ccc     H514422   7.100   8.252  10.535 -3.5015 -2.8893  0.6962
  528ccc     O114423   7.041   8.448  10.512 -0.5015 -0.5014  0.3707
  528ccc     O214424   6.863   8.250  10.641  0.2659 -0.0250 -0.4950
  528ccc     O314425   6.728   8.067  10.445 -0.1592  0.4474 -1.0107
  528ccc     O414426   6.827   8.202  10.220  0.3771 -0.1351  0.0831
  528ccc     C614427   7.107   8.166  10.122 -0.5706  0.6687  0.3458
  528ccc     H614428   6.684   8.125  10.381 -0.1230  0.6915 -0.8139
  528ccc     H714429   6.891   8.221  10.150  0.6335 -0.9131  0.0934
  528ccc     H814430   6.773   8.285  10.651  0.6964  1.0610 -0.2739
  528ccc     H914431   7.126   8.070  10.072 -1.1777  0.5873  0.2719
  528ccc    H1014432   7.204   8.216  10.130  0.4387 -1.3800  1.8467
  528ccc     O514433   7.015   8.244  10.051  0.0645  0.4415 -0.4368
  528ccc    H1114434   7.060   8.273   9.970 -0.2556  2.8331  0.1592
  528ccc     O614435   7.082   8.295  10.329  0.1985 -0.7589 -0.5642
  529ccc     C114436   8.783   9.196  10.270  0.8799 -0.0731  0.0620
  529ccc     C214437   8.856   9.133  10.147 -0.5167  0.1683  0.4270
  529ccc     H114438   8.855   9.206  10.352  1.3198 -0.8797 -0.2156
  529ccc     H214439   8.945   9.194  10.127 -2.1517  1.8021 -2.7519
  529ccc     C314440   8.893   8.981  10.159 -0.0140  0.0742 -0.5285
  529ccc     C414441   8.773   8.904  10.223 -0.5660  0.4287 -0.6704
  529ccc     C514442   8.709   8.972  10.350 -0.5608 -0.0711  0.1514
  529ccc     H314443   8.688   8.891  10.155 -2.1346 -1.7155  1.5225
  529ccc     H414444   8.980   8.970  10.226  0.3864 -1.2545 -1.2319
  529ccc     H514445   8.785   8.974  10.429  0.1297 -2.2646 -0.4001
  529ccc     O114446   8.592   8.894  10.397  0.4050  0.7787 -0.6744
  529ccc     O214447   8.830   8.778  10.270  0.1275  0.3281 -0.4361
  529ccc     O314448   8.929   8.928  10.033  0.0820 -0.3717  0.3837
  529ccc     O414449   8.770   9.149  10.035 -0.3915 -0.0757 -0.6307
  529ccc     C614450   8.724   9.333  10.236  0.0447 -0.2833 -0.3693
  529ccc     H614451   9.024   8.939  10.020 -0.2011  2.9517  0.1983
  529ccc     H714452   8.794   9.084   9.966 -1.4313 -0.0175 -1.0645
  529ccc     H814453   8.875   8.742  10.192 -0.3001  1.2143 -1.1138
  529ccc     H914454   8.639   9.317  10.170  0.0831 -0.2773 -0.4192
  529ccc    H1014455   8.812   9.385  10.196  2.3330 -0.9573  3.2843
  529ccc     O514456   8.695   9.391  10.357  0.3907 -0.1871 -0.0349
  529ccc    H1114457   8.663   9.482  10.346  1.8731  0.2213 -1.3234
  529ccc     O614458   8.673   9.111  10.324 -0.3164 -0.3010 -0.3204
  530ccc     C114459   7.932   9.240   9.920  0.1405  0.1874 -0.1631
  530ccc     C214460   7.917   9.213   9.767  0.0185  0.1171 -0.3070
  530ccc     H114461   8.041   9.238   9.929  0.2505  0.9936 -1.1451
  530ccc     H214462   7.976   9.285   9.709 -1.0189  0.3809 -1.0525
  530ccc     C314463   7.936   9.063   9.724 -0.3834  0.0330  0.5764
  530ccc     C414464   7.850   8.978   9.823  0.3063 -0.4134 -0.3517
  530ccc     C514465   7.894   9.000   9.967  0.1214  0.0385 -0.7965
  530ccc     H314466   7.744   9.006   9.818  0.0764 -1.0502  0.5681
  530ccc     H414467   8.039   9.029   9.738  0.4111  1.1213 -2.0141
  530ccc     H514468   7.995   8.959   9.978 -0.1968 -0.0895  2.4864
  530ccc     O114469   7.805   8.918  10.053 -0.6213  0.2066 -0.0260
  530ccc     O214470   7.852   8.839   9.790 -0.5161  0.5694  0.5850
  530ccc     O314471   7.901   9.056   9.581 -0.5893  0.2638 -0.2039
  530ccc     O414472   7.786   9.249   9.736  0.3381  0.2461  0.2340
  530ccc     C614473   7.895   9.377   9.971  0.6597  0.5751  0.8167
  530ccc     H614474   7.827   9.119   9.574 -0.4154  0.3492 -1.7221
  530ccc     H714475   7.759   9.310   9.807  0.9854  3.3158 -1.9198
  530ccc     H814476   7.819   8.826   9.700  0.3251  0.3424  0.3040
  530ccc     H914477   7.940   9.443   9.896 -0.8556 -0.3516 -0.9898
  530ccc    H1014478   7.941   9.395  10.069 -1.0885 -0.8373  1.9660
  530ccc     O514479   7.752   9.387   9.957  0.5464  0.9581  0.2203
  530ccc    H1114480   7.716   9.448  10.024  0.7974  1.1975  0.1414
  530ccc     O614481   7.874   9.133  10.009 -0.0763  0.1124  0.1517
  531ccc     C114482   8.723   7.261  12.016  0.0380 -0.1856  0.3521
  531ccc     C214483   8.869   7.246  11.979  0.1384 -0.5652 -0.1120
  531ccc     H114484   8.654   7.248  11.932 -0.5422 -1.3824  0.9766
  531ccc     H214485   8.870   7.157  11.916 -0.5046 -0.0682 -0.8448
  531ccc     C314486   8.935   7.354  11.895  0.1191 -0.5872 -0.1988
  531ccc     C414487   8.900   7.490  11.950  0.9408 -0.1835  0.0981
  531ccc     C514488   8.746   7.500  11.992 -0.1686  0.5834  0.4900
  531ccc     H314489   8.963   7.509  12.037 -0.4496 -0.1261  1.1317
  531ccc     H414490   8.899   7.347  11.792  0.9492 -0.8450 -0.4776
  531ccc     H514491   8.689   7.496  11.898  0.0808 -0.2921  0.3667
  531ccc     O114492   8.736   7.634  12.053  0.0054 -0.2002  0.1259
  531ccc     O214493   8.924   7.595  11.843 -0.2662 -0.4002 -0.7541
  531ccc     O314494   9.080   7.328  11.895 -0.0580  0.2279 -0.0686
  531ccc     O414495   8.951   7.237  12.093 -0.4974  0.1682  0.2312
  531ccc     C614496   8.679   7.157  12.119  0.0549 -0.3744  0.2651
  531ccc     H614497   9.101   7.253  11.837  0.9204 -0.3422  0.9768
  531ccc     H714498   9.037   7.251  12.049 -0.0474 -2.7930 -0.0165
  531ccc     H814499   8.963   7.666  11.896  0.5367 -1.9895  0.8924
  531ccc     H914500   8.728   7.176  12.216 -1.2186  0.5628  0.7486
  531ccc    H1014501   8.712   7.063  12.073 -1.8640 -0.8861 -0.1256
  531ccc     O514502   8.542   7.174  12.129 -0.3267  0.1305 -0.0853
  531ccc    H1114503   8.542   7.253  12.185 -0.4052  0.0797 -0.0120
  531ccc     O614504   8.712   7.389  12.080 -0.3495 -0.0255  0.5539
  532ccc     C114505   8.587   8.130  13.016 -0.3606  0.7875 -0.1642
  532ccc     C214506   8.433   8.115  13.001 -0.0318 -0.3836 -0.7943
  532ccc     H114507   8.600   8.237  13.036 -0.3278  0.5762  1.0227
  532ccc     H214508   8.380   8.151  13.090 -0.4366 -1.0228 -0.7682
  532ccc     C314509   8.393   8.206  12.880 -0.5880 -0.2140  0.0009
  532ccc     C414510   8.482   8.172  12.753 -1.0671 -0.3175  0.2573
  532ccc     C514511   8.633   8.184  12.785 -0.1744  0.4872  0.2298
  532ccc     H314512   8.451   8.070  12.730  0.0802 -0.7387  0.4876
  532ccc     H414513   8.415   8.311  12.901  0.9016 -0.0813 -1.9184
  532ccc     H514514   8.658   8.288  12.808 -3.4898  1.5316 -0.2583
  532ccc     O114515   8.708   8.139  12.668  0.3967  0.8364  0.7846
  532ccc     O214516   8.450   8.266  12.650 -0.3819  0.0941 -0.1302
  532ccc     O314517   8.250   8.195  12.853  0.4907  0.4315  0.0085
  532ccc     O414518   8.398   7.982  12.967 -0.0224  0.5870 -0.3295
  532ccc     C614519   8.653   8.051  13.128  0.1996 -0.0520  0.0449
  532ccc     H614520   8.238   8.218  12.759 -0.4550 -3.1494 -0.9130
  532ccc     H714521   8.319   7.963  13.020 -0.7513 -0.7942 -1.8444
  532ccc     H814522   8.492   8.232  12.569  1.7328 -2.3737  1.8171
  532ccc     H914523   8.629   8.086  13.229  0.3724  0.0687  0.0452
  532ccc    H1014524   8.762   8.055  13.116 -0.1019  0.9968 -3.3273
  532ccc     O514525   8.608   7.924  13.110 -0.3361  0.0926  0.0399
  532ccc    H1114526   8.534   7.950  13.053 -0.7117  0.2771  0.6025
  532ccc     O614527   8.658   8.097  12.896 -0.2291  0.2590  0.2658
  533ccc     C114528   9.995   8.996  11.171  0.7418 -0.3515 -0.6543
  533ccc     C214529  10.050   9.121  11.237 -0.0019 -0.2969 -0.3322
  533ccc     H114530   9.990   9.019  11.064 -0.4156  0.6627 -0.4107
  533ccc     H214531  10.139   9.147  11.178 -0.7166  2.3410 -0.4150
  533ccc     C314532   9.957   9.242  11.232  0.8932 -0.1480  0.5979
  533ccc     C414533   9.823   9.215  11.299  0.1047 -0.2171  0.5577
  533ccc     C514534   9.760   9.092  11.232  0.2526 -0.1036 -0.3742
  533ccc     H314535   9.845   9.183  11.402  0.7429  3.0422  1.5539
  533ccc     H414536   9.934   9.266  11.128 -0.2896  1.8021  1.2657
  533ccc     H514537   9.721   9.114  11.132 -2.6256  2.0301  1.0551
  533ccc     O114538   9.638   9.058  11.313  0.2007  0.4001 -0.2307
  533ccc     O214539   9.739   9.332  11.302 -0.2910 -0.5299  0.6853
  533ccc     O314540  10.027   9.355  11.287  0.2494  0.1136 -0.4251
  533ccc     O414541  10.088   9.093  11.375 -0.4689 -0.2787 -0.1496
  533ccc     C614542  10.084   8.870  11.173  0.0312  0.2599 -0.5597
  533ccc     H614543  10.062   9.317  11.369  0.1434 -0.7188 -0.7515
  533ccc     H714544  10.091   8.996  11.381  0.8961 -0.4107 -2.0772
  533ccc     H814545   9.800   9.406  11.322 -1.3792  1.3720 -2.2891
  533ccc     H914546  10.177   8.890  11.118 -1.1701 -0.5746 -3.0516
  533ccc    H1014547  10.039   8.790  11.112  2.3739 -1.3915 -0.2608
  533ccc     O514548  10.109   8.830  11.314  0.1752  0.0695 -0.2663
  533ccc    H1114549  10.049   8.756  11.335 -0.1343  1.1677  3.2599
  533ccc     O614550   9.857   8.981  11.231 -0.2430  0.3942 -0.0940
  534ccc     C114551   9.154   9.071  11.933  1.3591  0.5030 -1.0842
  534ccc     C214552   9.231   9.187  11.976 -0.9385  0.0908  0.0095
  534ccc     H114553   9.205   8.988  11.985 -0.4705  0.5506  0.9103
  534ccc     H214554   9.242   9.177  12.085  1.3857 -0.9556 -0.2421
  534ccc     C314555   9.371   9.197  11.902 -0.4249  0.0741 -0.1421
  534ccc     C414556   9.364   9.180  11.749  0.8284 -0.3041  0.7255
  534ccc     C514557   9.272   9.059  11.714 -0.5458 -0.9479  0.4531
  534ccc     H314558   9.320   9.274  11.712 -0.5317  0.1221  3.2020
  534ccc     H414559   9.430   9.106  11.922  1.3660  0.8857 -1.3938
  534ccc     H514560   9.325   8.964  11.729  2.2016  0.5327  0.7952
  534ccc     O114561   9.231   9.063  11.577  0.2495 -0.3086  0.1074
  534ccc     O214562   9.500   9.170  11.692 -0.7402  0.1236 -0.3167
  534ccc     O314563   9.458   9.307  11.937  0.4124 -0.5103 -0.4582
  534ccc     O414564   9.165   9.306  11.960  0.0279 -0.4300 -0.3082
  534ccc     C614565   9.019   9.078  12.002  0.0563 -0.0484  0.6655
  534ccc     H614566   9.452   9.370  11.863 -0.0408  1.0421  0.8765
  534ccc     H714567   9.230   9.370  11.992 -0.3425  0.2126 -0.8096
  534ccc     H814568   9.491   9.210  11.603  1.1160 -0.3887 -0.7900
  534ccc     H914569   8.947   9.142  11.950 -0.0262 -2.0466 -1.9023
  534ccc    H1014570   9.021   9.112  12.106 -1.6249 -0.7462  0.9616
  534ccc     O514571   8.955   8.946  12.007 -0.5164 -0.2471  0.2368
  534ccc    H1114572   8.876   8.974  12.056 -0.2521 -1.2677  1.2784
  534ccc     O614573   9.146   9.066  11.790  0.1501  0.0287  0.4898
  535ccc     C114574   7.186   5.161   9.527 -0.4392 -0.1606 -0.3934
  535ccc     C214575   7.195   5.005   9.527  0.3319  0.0237  0.7610
  535ccc     H114576   7.123   5.202   9.446 -0.0941 -0.7746 -0.9859
  535ccc     H214577   7.091   4.973   9.538  0.9920 -2.6588  0.0150
  535ccc     C314578   7.245   4.958   9.391 -0.0740 -0.0058 -0.6113
  535ccc     C414579   7.383   5.019   9.352  0.0777 -0.0993  0.5657
  535ccc     C514580   7.392   5.174   9.380 -0.2431  0.4536 -0.1035
  535ccc     H314581   7.461   4.965   9.407  0.3108 -1.2280 -0.8099
  535ccc     H414582   7.175   4.995   9.315 -1.0766  0.6823  0.5944
  535ccc     H514583   7.341   5.223   9.296 -0.6866  0.8229  0.3742
  535ccc     O114584   7.538   5.201   9.395  0.3873  0.1223  0.1435
  535ccc     O214585   7.405   4.984   9.215  0.0070 -0.3058  0.4362
  535ccc     O314586   7.251   4.815   9.395  0.1825  0.2506  0.7812
  535ccc     O414587   7.279   4.945   9.632 -0.5668 -0.1240  0.3051
  535ccc     C614588   7.144   5.229   9.659  0.1790 -0.6569  0.4902
  535ccc     H614589   7.303   4.794   9.315 -0.0593  1.6992  0.2116
  535ccc     H714590   7.274   4.855   9.596  2.0636  0.2047 -1.0598
  535ccc     H814591   7.497   5.013   9.204  0.4972 -0.8643  2.5910
  535ccc     H914592   7.040   5.212   9.690  0.2001  0.0777  0.9893
  535ccc    H1014593   7.174   5.333   9.650  1.8545 -1.2670 -1.8576
  535ccc     O514594   7.221   5.169   9.761 -0.5407 -0.1564 -0.5663
  535ccc    H1114595   7.261   5.094   9.713 -0.4213 -0.2725 -0.2880
  535ccc     O614596   7.327   5.201   9.502 -0.0662 -0.7761  0.3979
  536ccc     C114597   7.904   5.467   8.668  0.1394  0.2210 -0.0923
  536ccc     C214598   7.758   5.433   8.642 -0.1037 -0.6931 -0.2812
  536ccc     H114599   7.963   5.383   8.631 -1.2366 -0.1039 -1.6338
  536ccc     H214600   7.731   5.414   8.538 -3.6945 -2.0167  0.7559
  536ccc     C314601   7.714   5.304   8.716  0.6389 -0.2041 -1.0591
  536ccc     C414602   7.733   5.321   8.869  0.5936 -0.2922 -0.7947
  536ccc     C514603   7.874   5.375   8.900  0.1287  0.2223  0.3006
  536ccc     H314604   7.657   5.394   8.898  0.5173  0.6483 -3.1730
  536ccc     H414605   7.775   5.220   8.681 -2.7415 -2.7509 -1.3069
  536ccc     H514606   7.942   5.289   8.903  1.9450  1.6032  1.5346
  536ccc     O114607   7.870   5.431   9.033  0.4623 -0.1244 -0.0638
  536ccc     O214608   7.702   5.188   8.931 -0.0318  0.1703 -0.3934
  536ccc     O314609   7.578   5.270   8.697  1.0344  0.6848  0.2297
  536ccc     O414610   7.689   5.544   8.701  0.3996  0.3961  0.0854
  536ccc     C614611   7.950   5.592   8.591 -0.1270  0.6246  0.3016
  536ccc     H614612   7.569   5.212   8.619  1.6563  1.4440 -0.4168
  536ccc     H714613   7.753   5.610   8.671  1.4416 -1.0363 -0.9970
  536ccc     H814614   7.748   5.127   8.872 -1.3906 -1.7528  0.4389
  536ccc     H914615   7.969   5.556   8.489 -1.3311 -0.8509  0.5664
  536ccc    H1014616   8.043   5.620   8.644  0.0539  1.0208 -0.2183
  536ccc     O514617   7.864   5.707   8.607 -0.3518  0.2529  0.5112
  536ccc    H1114618   7.921   5.785   8.599 -1.3797  1.0072  0.5035
  536ccc     O614619   7.915   5.482   8.814 -0.1689  0.1045  0.1889
  537ccc     C114620   6.978   6.946  10.934  0.0673  0.3342 -1.0782
  537ccc     C214621   6.933   7.090  10.891  0.2062  0.3492  0.2045
  537ccc     H114622   7.035   6.962  11.027 -0.6215  0.1535 -0.6147
  537ccc     H214623   6.888   7.143  10.976  0.7046 -0.6990  1.1448
  537ccc     C314624   7.045   7.179  10.848 -0.3796 -0.1782 -0.0726
  537ccc     C414625   7.134   7.105  10.747  0.3811  0.4558  0.3705
  537ccc     C514626   7.171   6.962  10.791 -0.9223 -0.4040  0.2817
  537ccc     H314627   7.072   7.089  10.658 -2.3588  0.4067  2.1822
  537ccc     H414628   7.104   7.194  10.939  1.2920  0.1338 -1.1715
  537ccc     H514629   7.239   6.957  10.877 -0.8260 -0.3864  0.2068
  537ccc     O114630   7.243   6.909  10.675  0.2562 -0.5115  1.0118
  537ccc     O214631   7.260   7.175  10.721  0.6444 -0.0375 -0.2436
  537ccc     O314632   6.999   7.304  10.788 -0.1414 -0.0559  0.0008
  537ccc     O414633   6.841   7.075  10.779 -0.4633 -0.1536  0.5882
  537ccc     C614634   6.859   6.852  10.964  0.0610  0.1337  0.2886
  537ccc     H614635   6.964   7.354  10.863 -0.2212 -0.0258 -0.0566
  537ccc     H714636   6.848   7.158  10.729 -2.2194 -1.6860 -2.5205
  537ccc     H814637   7.232   7.248  10.662 -0.1341  0.6972  0.9880
  537ccc     H914638   6.811   6.814  10.873 -0.3139 -2.3147  1.4112
  537ccc    H1014639   6.795   6.907  11.033  0.2256  0.1500  0.4278
  537ccc     O514640   6.904   6.747  11.040 -0.1873  0.0349  0.1461
  537ccc    H1114641   6.840   6.675  11.023 -0.7188  0.5700 -0.1174
  537ccc     O614642   7.050   6.887  10.823  0.2440 -0.4155  0.3099
  538ccc     C114643   7.180   6.652   9.662 -0.0143 -0.7501 -0.3178
  538ccc     C214644   7.279   6.527   9.612  0.2683 -0.7089  0.3847
  538ccc     H114645   7.231   6.722   9.595  0.5189 -0.7936  0.0401
  538ccc     H214646   7.230   6.469   9.533  1.7590 -0.1891 -0.9622
  538ccc     C314647   7.412   6.581   9.551  0.2527 -0.4707  0.1452
  538ccc     C414648   7.498   6.654   9.652 -0.0564 -0.0561 -0.6229
  538ccc     C514649   7.405   6.752   9.733 -0.2082 -0.1291  0.1626
  538ccc     H314650   7.541   6.583   9.724  1.7768  0.6619 -0.9356
  538ccc     H414651   7.386   6.661   9.481 -1.0312  0.0002  1.1261
  538ccc     H514652   7.392   6.846   9.678  0.2478 -0.4018 -0.4125
  538ccc     O114653   7.480   6.795   9.844  0.5160 -0.2183  0.3660
  538ccc     O214654   7.603   6.718   9.581  0.0306  0.2236 -0.0148
  538ccc     O314655   7.483   6.477   9.478 -0.1563  0.0463 -0.3379
  538ccc     O414656   7.321   6.455   9.732 -0.1648  0.2215 -0.3334
  538ccc     C614657   6.919   6.682   9.669 -0.3948 -0.3743 -0.2429
  538ccc     H614658   7.577   6.484   9.500 -0.7320 -1.2386  3.2864
  538ccc     H714659   7.381   6.381   9.712  1.8344  1.7288 -0.1755
  538ccc     H814660   7.638   6.779   9.649 -1.9687  0.0205  1.2911
  538ccc     H914661   6.861   6.632   9.748  2.0436 -0.6958  1.4489
  538ccc    H1014662   6.854   6.650   9.587  1.6126 -0.9080 -1.7069
  538ccc     O514663   6.836   6.806   9.685 -0.0858  0.6607  0.1938
  538ccc    H1114664   6.849   6.832   9.777 -0.4047 -0.9642  0.7425
  538ccc     O614665   7.275   6.695   9.767 -0.8297  0.4454  0.0543
  539ccc     C114666   9.577   6.513  12.325  0.2787  0.5811 -0.6998
  539ccc     C214667   9.597   6.553  12.179 -0.0376  0.3795  0.2532
  539ccc     H114668   9.579   6.403  12.333 -2.6774  0.3111 -2.1668
  539ccc     H214669   9.698   6.540  12.141  2.0615  1.3330  4.8220
  539ccc     C314670   9.499   6.471  12.093  0.1844  0.1114  0.6432
  539ccc     C414671   9.352   6.501  12.131  0.2855 -0.4455  0.0375
  539ccc     C514672   9.329   6.483  12.280  0.5229 -0.5230 -0.6615
  539ccc     H314673   9.334   6.605  12.101  1.4031 -0.4179 -0.6140
  539ccc     H414674   9.524   6.366  12.113 -0.8783 -0.3518 -0.3628
  539ccc     H514675   9.323   6.376  12.301 -0.9951 -0.4691 -0.7474
  539ccc     O114676   9.201   6.540  12.326 -0.3153  0.1699 -0.2664
  539ccc     O214677   9.269   6.401  12.058  0.1639 -0.1122  0.1198
  539ccc     O314678   9.511   6.504  11.952 -0.7864 -0.4442 -0.3200
  539ccc     O414679   9.561   6.690  12.170 -0.3859 -0.0795 -0.1159
  539ccc     C614680   9.671   6.578  12.431 -0.3741 -0.0565 -0.2484
  539ccc     H614681   9.452   6.446  11.901  1.7254 -1.9075 -1.7485
  539ccc     H714682   9.578   6.724  12.080  0.4515 -1.7269 -0.6087
  539ccc     H814683   9.299   6.311  12.078  0.3194 -0.7872 -2.6914
  539ccc     H914684   9.770   6.548  12.395 -1.0765 -1.5024 -1.0745
  539ccc    H1014685   9.654   6.541  12.533  1.4043 -3.3577 -0.9926
  539ccc     O514686   9.651   6.721  12.424 -0.4844 -0.5200  0.0588
  539ccc    H1114687   9.579   6.712  12.359 -1.5138 -2.4797  1.3515
  539ccc     O614688   9.436   6.548  12.360  0.7545 -0.4088  0.3092
  540ccc     C114689   8.377   7.062  12.779 -0.7605 -0.2000 -0.9789
  540ccc     C214690   8.240   7.032  12.849  0.8040  0.3176 -0.2811
  540ccc     H114691   8.370   7.133  12.695  2.6943 -1.2037 -2.3011
  540ccc     H214692   8.195   7.124  12.888 -1.6636 -0.3052 -1.4110
  540ccc     C314693   8.150   6.973  12.742  0.1674  0.0499 -0.2160
  540ccc     C414694   8.213   6.848  12.667  0.5324  0.1789  0.0921
  540ccc     C514695   8.357   6.871  12.631 -0.1421  0.0517  0.4349
  540ccc     H314696   8.214   6.757  12.729 -0.2752 -0.4791 -0.8348
  540ccc     H414697   8.124   7.054  12.673 -0.8631  1.0607  1.3115
  540ccc     H514698   8.375   6.927  12.539  0.1205 -0.5532  0.1126
  540ccc     O114699   8.425   6.747  12.608  0.3718 -0.3167 -0.4876
  540ccc     O214700   8.145   6.829  12.544  1.0652 -0.2320 -0.0319
  540ccc     O314701   8.024   6.931  12.807  0.4407 -0.2714  0.1049
  540ccc     O414702   8.243   6.938  12.958 -0.6669  0.0245  0.1032
  540ccc     C614703   8.468   7.125  12.888  0.1829  0.1621 -0.2861
  540ccc     H614704   7.985   6.857  12.756 -0.4489  0.7818 -0.8111
  540ccc     H714705   8.151   6.907  12.964 -0.3604 -1.2485 -1.2777
  540ccc     H814706   8.176   6.745  12.509 -0.2826  0.2023 -2.4569
  540ccc     H914707   8.571   7.087  12.881 -0.0041 -0.3080 -0.4905
  540ccc    H1014708   8.419   7.114  12.985 -0.7850  1.3366 -0.6103
  540ccc     O514709   8.469   7.271  12.870  0.1180 -0.3804 -0.4282
  540ccc    H1114710   8.385   7.295  12.913  0.5366  2.2520 -0.9124
  540ccc     O614711   8.430   6.940  12.736  0.4149 -0.1720  0.3886
  541ccc     C114712   7.137   6.342  11.435  0.7699 -0.6059 -0.0506
  541ccc     C214713   7.028   6.316  11.543  0.2863 -0.2824 -0.1044
  541ccc     H114714   7.133   6.261  11.360  1.8808 -1.5374  0.8521
  541ccc     H214715   6.929   6.300  11.497 -0.2241 -1.9308  1.4413
  541ccc     C314716   7.068   6.192  11.625 -0.5039  0.2514 -0.2558
  541ccc     C414717   7.210   6.201  11.679 -0.0684 -0.1415  0.2869
  541ccc     C514718   7.314   6.234  11.568  0.1779  0.2489  0.7133
  541ccc     H314719   7.203   6.287  11.746 -1.2061 -1.0128  1.3315
  541ccc     H414720   7.061   6.111  11.551 -5.8450 -0.2805  0.4714
  541ccc     H514721   7.327   6.140  11.513 -0.8966 -0.0624  0.9829
  541ccc     O114722   7.440   6.267  11.618 -0.0765 -0.0738 -0.4019
  541ccc     O214723   7.231   6.075  11.738 -0.0795  0.6859  0.0345
  541ccc     O314724   6.969   6.156  11.727 -0.5702  0.3965 -0.2593
  541ccc     O414725   7.026   6.429  11.635  0.3582  0.4195 -0.3397
  541ccc     C614726   7.133   6.475  11.349 -0.1079 -0.0751 -0.2289
  541ccc     H614727   6.992   6.063  11.744 -1.2670  0.3426  0.4539
  541ccc     H714728   7.073   6.485  11.570  0.8777 -0.9231 -1.1607
  541ccc     H814729   7.250   6.016  11.663 -1.5350 -0.1161  0.2608
  541ccc     H914730   7.057   6.469  11.270  1.0369 -0.4655 -1.3362
  541ccc    H1014731   7.226   6.498  11.295 -0.5691  1.2193 -0.5218
  541ccc     O514732   7.088   6.578  11.427  0.4200 -0.3173 -0.0402
  541ccc    H1114733   7.058   6.651  11.370 -2.2240 -1.9750 -0.9989
  541ccc     O614734   7.267   6.339  11.486  0.1392 -0.3331  0.1359
  542ccc     C114735   7.698   6.925  12.396 -0.6269 -0.9359 -0.8398
  542ccc     C214736   7.798   6.907  12.511 -0.2614 -0.2371 -0.5798
  542ccc     H114737   7.597   6.932  12.437  0.3853 -0.3145  1.7344
  542ccc     H214738   7.772   6.976  12.593 -0.6178  1.3955 -2.0109
  542ccc     C314739   7.791   6.763  12.565 -0.4073  0.7241 -0.2062
  542ccc     C414740   7.788   6.650  12.458  0.6495  0.7024  0.2258
  542ccc     C514741   7.676   6.687  12.357  0.6516  0.3424 -0.3062
  542ccc     H314742   7.882   6.639  12.401  0.9442  1.8533  0.4550
  542ccc     H414743   7.691   6.768  12.610 -1.3698  2.8922 -2.3595
  542ccc     H514744   7.578   6.686  12.408  0.3304  1.9541 -0.8328
  542ccc     O114745   7.684   6.600  12.241  0.5097 -0.3624  1.1674
  542ccc     O214746   7.758   6.520  12.522  0.3973  0.8904  0.3673
  542ccc     O314747   7.900   6.734  12.661 -0.0701 -0.0397 -0.5671
  542ccc     O414748   7.932   6.936  12.462 -0.1895  0.0927 -0.7964
  542ccc     C614749   7.715   7.062  12.320 -0.4665  0.9535 -0.0262
  542ccc     H614750   7.897   6.639  12.681  0.3256 -0.5985 -2.8262
  542ccc     H714751   7.990   6.883  12.519 -1.3797  1.5731  1.9754
  542ccc     H814752   7.838   6.464  12.521 -0.8005 -0.9967  2.0412
  542ccc     H914753   7.775   7.045  12.230 -1.0844 -1.3897 -0.0758
  542ccc    H1014754   7.755   7.149  12.373 -0.1701  1.0905 -0.4670
  542ccc     O514755   7.579   7.094  12.289 -0.6847  0.5871 -0.1685
  542ccc    H1114756   7.575   7.191  12.285 -1.1308  0.5909  0.3155
  542ccc     O614757   7.705   6.818  12.303 -0.0827  0.0559 -0.3540
  543ccc     C114758   9.773   9.537   5.846  0.1932 -0.6251  0.6132
  543ccc     C214759   9.806   9.587   5.699  0.1323 -0.3422  0.0336
  543ccc     H114760   9.868   9.552   5.899  0.5409 -0.3581 -0.0768
  543ccc     H214761   9.845   9.690   5.706 -1.7485  0.4147  0.0202
  543ccc     C314762   9.904   9.489   5.626  0.3988 -0.1574  0.1499
  543ccc     C414763   9.888   9.341   5.657  0.3226  0.5084 -0.2885
  543ccc     C514764   9.862   9.313   5.809 -0.1120  0.2289 -0.2179
  543ccc     H314765   9.796   9.307   5.608  1.0999 -3.4736  0.6391
  543ccc     H414766  10.007   9.517   5.651 -0.2746  0.2700  2.6795
  543ccc     H514767   9.947   9.347   5.868 -0.2289  1.9489 -0.9701
  543ccc     O114768   9.848   9.169   5.825 -0.2280  0.0341  0.4458
  543ccc     O214769  10.002   9.266   5.606  0.5092  0.5372  0.0392
  543ccc     O314770   9.881   9.514   5.483  0.4390 -0.2623 -0.2683
  543ccc     O414771   9.681   9.587   5.632 -0.2043  0.5493  0.0165
  543ccc     C614772   9.665   9.623   5.921  0.0303  0.2047 -0.5103
  543ccc     H614773   9.954   9.469   5.437  1.1218 -2.0746  2.4152
  543ccc     H714774   9.708   9.548   5.547 -1.6649 -1.3189  0.3163
  543ccc     H814775  10.011   9.192   5.668  1.3942 -0.6492 -1.4577
  543ccc     H914776   9.698   9.728   5.913 -1.2806  0.8577  1.7086
  543ccc    H1014777   9.654   9.606   6.029  3.1615  0.0092 -0.1510
  543ccc     O514778   9.540   9.597   5.856 -0.0972 -0.2760 -0.4522
  543ccc    H1114779   9.575   9.565   5.771  3.0320  2.1322 -0.2352
  543ccc     O614780   9.754   9.396   5.846  0.3644  0.3115  0.4487
  544ccc     C114781   9.896   8.294   6.665 -0.3816 -0.3931 -0.2360
  544ccc     C214782   9.844   8.170   6.606  0.1460  0.1130 -0.6157
  544ccc     H114783   9.821   8.334   6.734 -2.6764 -1.8210 -1.7483
  544ccc     H214784   9.815   8.110   6.693  1.4242 -1.2125 -1.0545
  544ccc     C314785   9.725   8.185   6.503 -0.3770  0.6948  0.0461
  544ccc     C414786   9.762   8.293   6.396  0.2161 -0.1671  0.3827
  544ccc     C514787   9.809   8.420   6.463  0.7446  0.3655  0.5073
  544ccc     H314788   9.851   8.249   6.350 -0.4617  0.5756 -1.8158
  544ccc     H414789   9.632   8.205   6.557  1.1086  1.8093  2.3687
  544ccc     H514790   9.723   8.462   6.518  0.0542 -0.0897 -0.1971
  544ccc     O114791   9.858   8.514   6.359  0.2940 -0.5826 -0.2529
  544ccc     O214792   9.659   8.312   6.300 -0.3932  0.3823  0.2916
  544ccc     O314793   9.710   8.057   6.446  0.1071 -0.3107 -0.1441
  544ccc     O414794   9.949   8.098   6.542  0.0718  0.1210  0.1665
  544ccc     C614795  10.024   8.264   6.747  0.6734 -0.2909 -0.8346
  544ccc     H614796   9.624   8.029   6.481 -0.9276  2.8784  0.1194
  544ccc     H714797   9.897   8.019   6.520  1.0011 -0.6054  0.5540
  544ccc     H814798   9.667   8.407   6.279 -0.0128  0.3852  0.4390
  544ccc     H914799  10.106   8.244   6.677  1.2829  2.0509 -0.8604
  544ccc    H1014800  10.002   8.176   6.808 -1.1337  1.0212  0.5555
  544ccc     O514801  10.061   8.370   6.831  0.0682  0.2527  0.1480
  544ccc    H1114802  10.110   8.437   6.778 -0.2884  0.2204 -0.2231
  544ccc     O614803   9.914   8.395   6.560 -0.2646  0.2905  0.6694
  545ccc     C114804   9.625   9.895   7.551 -0.4086  0.1414  0.6516
  545ccc     C214805   9.661   9.925   7.702 -0.2270  0.3278 -0.3596
  545ccc     H114806   9.579   9.795   7.547  0.8104 -0.4256  0.0227
  545ccc     H214807   9.570   9.913   7.762 -1.5261 -3.1868 -2.6864
  545ccc     C314808   9.772   9.829   7.754 -0.6279 -0.1889  0.7388
  545ccc     C414809   9.890   9.818   7.656  0.1451 -0.0182 -0.2191
  545ccc     C514810   9.847   9.794   7.508  0.1337  0.1846  0.0498
  545ccc     H314811   9.933   9.918   7.651  0.0704  0.0080 -0.3383
  545ccc     H414812   9.726   9.729   7.755  1.2750 -1.1166  1.5779
  545ccc     H514813   9.808   9.692   7.505 -1.3538  0.7584 -0.7167
  545ccc     O114814   9.961   9.808   7.416  0.0970  0.5273 -0.1229
  545ccc     O214815   9.974   9.710   7.708  0.1178  0.3386 -0.5253
  545ccc     O314816   9.817   9.865   7.881  0.4124 -0.3809  0.5667
  545ccc     O414817   9.713  10.058   7.710  0.7612  0.0660 -0.6432
  545ccc     C614818   9.511   9.981   7.502 -0.1680  0.3413 -0.5459
  545ccc     H614819   9.819   9.787   7.939  3.1206 -0.2768  0.7222
  545ccc     H714820   9.674  10.092   7.628  0.4191  0.9040 -0.1471
  545ccc     H814821  10.016   9.751   7.784  1.3992  0.9153 -1.5163
  545ccc     H914822   9.418   9.964   7.557  0.4065  2.8743  1.4120
  545ccc    H1014823   9.490   9.951   7.399 -1.0782 -0.5213 -0.1221
  545ccc     O514824   9.548  10.124   7.515 -0.1554 -0.2034 -0.8221
  545ccc    H1114825   9.460  10.157   7.490 -1.0770 -0.8470  1.3823
  545ccc     O614826   9.746   9.894   7.471 -0.3454  0.4443 -0.1548
  546ccc     C114827  10.290  10.154   7.937  0.2732 -0.2912 -0.4792
  546ccc     C214828  10.286  10.074   8.075 -0.1899 -1.0857 -0.0127
  546ccc     H114829  10.188  10.184   7.911 -0.0979 -2.4947 -1.7564
  546ccc     H214830  10.264  10.147   8.154  1.7875 -0.4197 -0.0122
  546ccc     C314831  10.181   9.978   8.060 -0.1222  0.4632  0.1237
  546ccc     C414832  10.213   9.887   7.943 -0.4068  0.6201  0.3306
  546ccc     C514833  10.252   9.950   7.806  0.2679  1.1832 -0.0419
  546ccc     H314834  10.302   9.832   7.977 -1.4412 -0.8067  0.8198
  546ccc     H414835  10.085  10.027   8.040 -0.5817  0.1013  1.3486
  546ccc     H514836  10.163   9.981   7.750 -0.0088  0.6877  0.1185
  546ccc     O114837  10.336   9.857   7.735 -0.0330 -0.4338  0.3167
  546ccc     O214838  10.103   9.799   7.923 -0.4757  0.1266 -0.0666
  546ccc     O314839  10.171   9.892   8.171 -0.0483 -0.1742 -0.0310
  546ccc     O414840  10.414  10.021   8.088  0.6832  0.2999  0.3025
  546ccc     C614841  10.368  10.288   7.939  0.4438  0.0759 -0.6559
  546ccc     H614842  10.244   9.898   8.235 -2.0341 -2.6318  2.7414
  546ccc     H714843  10.475  10.089   8.055  2.6123 -0.5992  1.7776
  546ccc     H814844  10.071   9.764   8.007  0.6123 -0.7175  0.0228
  546ccc     H914845  10.319  10.353   8.012  1.2986 -0.9979  0.9260
  546ccc    H1014846  10.363  10.335   7.840 -0.7620  2.1029  0.2844
  546ccc     O514847  10.502  10.262   7.972 -0.5043  0.3296 -0.1787
  546ccc    H1114848  10.545  10.342   8.007 -2.1273  1.7627 -1.2763
  546ccc     O614849  10.338  10.067   7.828  0.0651 -0.0845 -0.2658
  547ccc     C114850   9.972   7.203   7.323 -0.6054 -0.1401 -1.1679
  547ccc     C214851   9.961   6.999   7.298 -0.7210  0.0491 -0.2952
  547ccc     H114852   9.968   7.217   7.432  2.1123 -1.8546 -0.7448
  547ccc     H214853   9.968   6.955   7.398 -0.8385 -1.1321 -0.7915
  547ccc     C314854   9.791   6.930   7.217 -0.3360  0.4142 -0.0608
  547ccc     C414855   9.657   7.053   7.142  0.7268 -0.0350  0.0416
  547ccc     C514856   9.678   7.252   7.166  0.2192 -0.0145  0.6441
  547ccc     H314857   9.672   7.042   7.034  0.6675  0.4454 -0.0155
  547ccc     H414858   9.741   6.886   7.305 -1.0038 -0.0168 -0.6496
  547ccc     H514859   9.595   7.261   7.237 -1.4217 -2.8697 -0.7415
  547ccc     O114860   9.644   7.324   7.041 -0.3846 -0.3589  0.0049
  547ccc     O214861   9.523   7.009   7.177 -0.6324 -0.1064  0.1939
  547ccc     O314862   9.815   6.802   7.149 -0.1751  0.1180 -1.0045
  547ccc     O414863  10.070   6.946   7.216  0.1194 -0.5518 -0.2027
  547ccc     C614864  10.106   7.270   7.303 -0.1178  0.3117 -0.4205
  547ccc     H614865   9.729   6.765   7.124 -1.2457  3.0124 -2.0093
  547ccc     H714866  10.018   6.934   7.135 -0.4893 -0.9462  0.2361
  547ccc     H814867   9.540   6.945   7.248  0.6726  1.3365  1.2713
  547ccc     H914868  10.137   7.253   7.199 -0.4845 -1.5665 -0.2447
  547ccc    H1014869  10.192   7.233   7.359  0.3304  0.4199 -1.0311
  547ccc     O514870  10.088   7.405   7.328 -0.1488 -0.2076  0.2343
  547ccc    H1114871  10.062   7.404   7.422 -0.5365  1.1999  0.1641
  547ccc     O614872   9.839   7.319   7.244  0.2805 -0.2516  0.3796
  548ccc     C114873   9.965   7.940   6.185 -0.2698  0.3482  0.1954
  548ccc     C214874   9.822   7.944   6.128  1.1936  0.3654 -0.0439
  548ccc     H114875  10.016   7.864   6.123 -0.8276  1.7682 -2.1243
  548ccc     H214876   9.842   7.965   6.022  1.4496  3.4738  0.5183
  548ccc     C314877   9.742   7.807   6.139  0.0514 -1.1025 -0.1153
  548ccc     C414878   9.753   7.759   6.287 -0.1667  0.4539 -0.2268
  548ccc     C514879   9.886   7.781   6.358 -0.6444  0.0151  0.3319
  548ccc     H314880   9.682   7.810   6.352  0.0567  1.5779 -0.8299
  548ccc     H414881   9.799   7.738   6.075  0.3608 -1.7988  0.8809
  548ccc     H514882   9.959   7.702   6.335 -0.5701  0.5831 -1.5512
  548ccc     O114883   9.863   7.781   6.502  0.4854 -0.1592  0.9970
  548ccc     O214884   9.712   7.620   6.276  0.2829 -0.7733  0.2526
  548ccc     O314885   9.606   7.819   6.098  0.7912 -0.2465  0.7268
  548ccc     O414886   9.741   8.053   6.179  0.0764  0.6638 -0.0346
  548ccc     C614887  10.050   8.068   6.167  1.0689 -0.3080  0.1919
  548ccc     H614888   9.576   7.727   6.094 -0.7482  0.2764 -1.1538
  548ccc     H714889   9.752   8.050   6.276  1.9862 -1.0637 -0.2453
  548ccc     H814890   9.616   7.632   6.269  0.0696 -2.6165 -0.7033
  548ccc     H914891   9.997   8.153   6.213  1.4005 -0.0042  0.0190
  548ccc    H1014892  10.060   8.088   6.060  2.1409  1.8792  0.6506
  548ccc     O514893  10.176   8.032   6.216  0.1342 -0.4856  0.2132
  548ccc    H1114894  10.179   8.044   6.312 -1.2414 -1.1041  0.3535
  548ccc     O614895   9.957   7.911   6.323 -0.1398  0.7064 -0.2007
  549ccc     C114896   8.183   8.524   6.930 -0.1999 -0.8184 -1.5291
  549ccc     C214897   8.044   8.483   6.871  0.5777  0.2602  0.2187
  549ccc     H114898   8.191   8.633   6.916 -0.2913 -0.3314  1.4032
  549ccc     H214899   7.966   8.547   6.915  2.6257  2.1834  1.2936
  549ccc     C314900   8.051   8.494   6.717  0.5079 -0.3237 -0.1919
  549ccc     C414901   8.167   8.415   6.655 -0.2188 -0.3844  0.0067
  549ccc     C514902   8.309   8.444   6.723 -0.2747 -0.4498 -0.1552
  549ccc     H314903   8.147   8.308   6.668 -0.0274 -0.3998  0.1758
  549ccc     H414904   8.075   8.598   6.692  1.2455 -0.1551  1.1401
  549ccc     H514905   8.339   8.546   6.694  2.7503 -0.6144  1.8764
  549ccc     O114906   8.405   8.351   6.673 -0.2874 -0.0511 -0.6205
  549ccc     O214907   8.165   8.447   6.512 -0.2747  0.2991  0.1303
  549ccc     O314908   7.924   8.456   6.656  0.1196  0.6544 -0.1021
  549ccc     O414909   8.010   8.349   6.908 -0.2951 -0.3404  0.7931
  549ccc     C614910   8.202   8.505   7.085  0.3175 -0.0664 -0.0248
  549ccc     H614911   7.860   8.514   6.701 -1.2349 -0.3493 -0.6645
  549ccc     H714912   7.920   8.338   6.872 -0.7449 -1.1887  2.0851
  549ccc     H814913   8.070   8.445   6.491  0.1797  2.9253 -2.9915
  549ccc     H914914   8.213   8.400   7.114  1.5550  0.3148  0.9685
  549ccc    H1014915   8.107   8.537   7.129  1.0996  1.9544  0.3422
  549ccc     O514916   8.304   8.596   7.140  1.0208 -0.6917  0.0197
  549ccc    H1114917   8.327   8.555   7.225  0.1979 -1.0249  0.0959
  549ccc     O614918   8.297   8.447   6.874  0.2048 -0.1979  0.6324
  550ccc     C114919   9.291   7.989   6.209 -0.4241 -0.1222  0.0549
  550ccc     C214920   9.412   8.089   6.190  0.5174 -0.2130  0.4169
  550ccc     H114921   9.296   7.925   6.120  2.5538  0.7995 -0.5432
  550ccc     H214922   9.502   8.029   6.174  0.0693 -0.5505 -0.9777
  550ccc     C314923   9.389   8.175   6.064  0.2296  0.9240 -0.1334
  550ccc     C414924   9.249   8.244   6.069  0.0473  0.1032  0.2617
  550ccc     C514925   9.132   8.142   6.091 -0.6628  0.2657  0.2775
  550ccc     H314926   9.253   8.314   6.153  1.5848  0.0012  0.2930
  550ccc     H414927   9.379   8.100   5.984  1.4270 -0.3350  0.8535
  550ccc     H514928   9.116   8.076   6.005  0.3383  1.0693 -0.5509
  550ccc     O114929   9.006   8.212   6.101  0.0584  0.3890  0.6433
  550ccc     O214930   9.238   8.297   5.937  0.4410 -0.4932  0.1346
  550ccc     O314931   9.489   8.272   6.039 -0.3409  0.3562 -0.5417
  550ccc     O414932   9.432   8.173   6.307  0.0846 -0.6210 -0.0815
  550ccc     C614933   9.296   7.905   6.338  0.0911 -0.1260  0.2294
  550ccc     H614934   9.439   8.338   5.988  0.5956  2.4231  1.0815
  550ccc     H714935   9.517   8.222   6.301  0.6026 -1.2726  1.3664
  550ccc     H814936   9.157   8.350   5.935 -0.3818 -1.7115 -1.5116
  550ccc     H914937   9.266   7.962   6.427  2.7861  2.3804 -0.2968
  550ccc    H1014938   9.401   7.875   6.353 -0.0621 -2.0455 -2.0097
  550ccc     O514939   9.206   7.790   6.318  0.4191 -0.0116 -0.6718
  550ccc    H1114940   9.161   7.806   6.233  0.1763  0.1286 -0.5146
  550ccc     O614941   9.166   8.064   6.209  0.0109  0.1337  0.9798
  551ccc     C114942  10.683   7.695  10.548 -0.5256  0.7596 -0.0319
  551ccc     C214943  10.714   7.719  10.700  0.3035 -0.0363 -0.9580
  551ccc     H114944  10.693   7.587  10.530 -3.3714 -0.0388  2.4091
  551ccc     H214945  10.669   7.634  10.751 -1.3204  1.9509  1.1301
  551ccc     C314946  10.861   7.707  10.735  0.1260  0.2353 -0.5066
  551ccc     C414947  10.951   7.772  10.622  0.0738  0.2154 -0.1633
  551ccc     C514948  10.916   7.722  10.476  0.0134 -0.7729  0.3959
  551ccc     H314949  10.930   7.880  10.614  3.2617  0.9749  0.2614
  551ccc     H414950  10.899   7.605  10.744  3.6659  1.5380  1.1393
  551ccc     H514951  10.930   7.614  10.483  1.2188 -0.6172  0.5066
  551ccc     O114952  10.994   7.791  10.372 -0.0079  0.1006  0.0465
  551ccc     O214953  11.089   7.753  10.665  0.2044  0.1186  0.0593
  551ccc     O314954  10.881   7.769  10.862  0.5530 -0.3814  0.0226
  551ccc     O414955  10.652   7.837  10.744 -0.2871 -0.5615  0.2717
  551ccc     C614956  10.543   7.723  10.505  0.4038  0.3051  0.9978
  551ccc     H614957  10.800   7.822  10.862 -0.9803 -2.4825 -2.6025
  551ccc     H714958  10.643   7.900  10.670 -0.6317 -1.6088 -0.6110
  551ccc     H814959  11.108   7.818  10.734  1.4773 -0.4759  0.2997
  551ccc     H914960  10.479   7.690  10.587  0.6860 -0.1686  1.0328
  551ccc    H1014961  10.522   7.660  10.418  0.4898 -0.7849  1.7527
  551ccc     O514962  10.524   7.858  10.469 -0.2477  0.4923  0.3615
  551ccc    H1114963  10.515   7.835  10.375  1.7743  2.7935 -0.4983
  551ccc     O614964  10.772   7.755  10.457 -0.6717  0.2673 -0.1469
  552ccc     C114965  11.236   8.911  10.152  0.0392 -0.8280  0.0525
  552ccc     C214966  11.347   8.935  10.258  0.3079 -0.0736  0.0483
  552ccc     H114967  11.145   8.900  10.213 -0.7729  0.9269 -0.7557
  552ccc     H214968  11.320   9.027  10.311 -0.2949  0.4387 -1.0995
  552ccc     C314969  11.357   8.815  10.351 -0.3501  0.5299  0.8658
  552ccc     C414970  11.370   8.683  10.273  0.2134  0.1860 -0.4378
  552ccc     C514971  11.276   8.666  10.155  0.3030  0.2772  0.6273
  552ccc     H314972  11.472   8.669  10.236 -0.2406 -1.8448 -1.0442
  552ccc     H414973  11.259   8.821  10.401  0.1998  2.1667  1.7948
  552ccc     H514974  11.174   8.657  10.193  0.5547 -0.9324  1.0530
  552ccc     O114975  11.315   8.548  10.075 -0.1552  0.1835 -0.3336
  552ccc     O214976  11.342   8.574  10.378  0.5080  0.1396 -0.1369
  552ccc     O314977  11.465   8.835  10.445  0.3832 -0.3089  0.0906
  552ccc     O414978  11.467   8.951  10.188  0.1794 -0.4302  1.0506
  552ccc     C614979  11.222   9.017  10.050 -0.2590 -0.0056 -0.7144
  552ccc     H614980  11.466   8.758  10.505 -0.8566 -1.5192 -1.3487
  552ccc     H714981  11.434   8.990  10.106  0.1521 -1.4181  0.5677
  552ccc     H814982  11.380   8.497  10.332 -1.4170 -0.2678 -1.1471
  552ccc     H914983  11.187   9.102  10.109 -1.5523 -0.8246 -0.2503
  552ccc    H1014984  11.138   8.996   9.982 -0.7825 -0.7969  0.1445
  552ccc     O514985  11.347   9.045   9.988  0.0516  0.2726 -0.7297
  552ccc    H1114986  11.313   9.052   9.897 -1.2526 -1.7881 -0.4495
  552ccc     O614987  11.278   8.788  10.074  0.1408  0.0712  0.0693
  553ccc     C114988  11.511   7.810   8.543 -0.5429 -0.0357  0.2644
  553ccc     C214989  11.659   7.866   8.565 -0.7243 -0.3807 -0.8155
  553ccc     H114990  11.497   7.823   8.435 -1.8485  0.2165  0.4556
  553ccc     H214991  11.730   7.815   8.498 -0.0293  0.7480 -0.9581
  553ccc     C314992  11.670   8.020   8.522 -0.4218 -0.5598  0.1957
  553ccc     C414993  11.566   8.111   8.586  1.0487  0.1316  0.0835
  553ccc     C514994  11.425   8.039   8.563 -0.5985  0.4924 -0.3383
  553ccc     H314995  11.601   8.126   8.690  2.9503 -0.8996 -0.3500
  553ccc     H414996  11.650   8.017   8.414 -0.4692  0.5654  0.1594
  553ccc     H514997  11.397   8.039   8.457 -0.8056 -0.8318 -0.2964
  553ccc     O114998  11.320   8.117   8.632  0.2467  0.1817 -0.0794
  553ccc     O214999  11.577   8.244   8.525 -0.6436 -0.5830  0.4456
  553ccc     O315000  11.808   8.064   8.554 -0.0466  0.5193  0.7056
  553ccc     O415001  11.699   7.839   8.700  0.5776 -0.1558 -0.0076
  553ccc     C615002  11.478   7.664   8.583  0.7313  0.2901  0.2316
  553ccc     H615003  11.873   7.998   8.526 -0.4507 -0.3460  1.7003
  553ccc     H715004  11.738   7.918   8.741  1.5164 -0.2667 -0.6305
  553ccc     H815005  11.554   8.224   8.433  0.7027 -1.1785  0.2214
  553ccc     H915006  11.539   7.597   8.521  0.3111 -0.0287  0.1541
  553ccc    H1015007  11.373   7.635   8.570  0.7140  0.3514  0.2389
  553ccc     O515008  11.522   7.649   8.715 -0.2641 -0.0467  0.1495
  553ccc    H1115009  11.589   7.717   8.730 -0.4108 -0.3382  2.5823
  553ccc     O615010  11.426   7.901   8.610  0.4509  0.4773 -0.8472
  554ccc     C115011  11.492   8.968   8.214  0.3130  0.5010  0.6116
  554ccc     C215012  11.609   8.910   8.132 -0.4487 -0.1069  0.1188
  554ccc     H115013  11.525   9.050   8.279 -2.9761  1.4575  1.2572
  554ccc     H215014  11.650   8.994   8.074  1.0077 -1.1689 -0.4415
  554ccc     C315015  11.720   8.851   8.225  0.4073  0.2612 -1.0330
  554ccc     C415016  11.653   8.733   8.305 -0.2378  0.6014 -0.4225
  554ccc     C515017  11.536   8.776   8.386  0.1927 -0.1785  0.6201
  554ccc     H315018  11.621   8.665   8.225 -0.8654  0.7378 -0.2911
  554ccc     H415019  11.754   8.921   8.302 -0.1311 -1.5189  0.9032
  554ccc     H515020  11.566   8.837   8.472 -1.0141 -1.5692  2.0698
  554ccc     O115021  11.472   8.650   8.433 -0.2492  0.1914  0.0974
  554ccc     O215022  11.756   8.670   8.383  0.2356 -0.2161 -0.4035
  554ccc     O315023  11.840   8.805   8.155  0.1974  0.0352  0.0223
  554ccc     O415024  11.551   8.811   8.043  0.1459 -0.1654 -0.8696
  554ccc     C615025  11.382   9.038   8.124 -0.0294 -0.2613 -0.3822
  554ccc     H615026  11.918   8.845   8.196  0.1111  0.3532 -0.1198
  554ccc     H715027  11.620   8.748   8.014  1.9907  1.8949 -1.2001
  554ccc     H815028  11.830   8.644   8.325 -1.4859 -2.4893 -1.7494
  554ccc     H915029  11.430   9.111   8.057 -0.6262  1.7839  1.3272
  554ccc    H1015030  11.305   9.091   8.180 -0.2951 -2.6505  1.6816
  554ccc     O515031  11.315   8.937   8.057 -0.0191 -0.3803  0.1270
  554ccc    H1115032  11.392   8.880   8.039 -1.0521 -0.8873 -3.5576
  554ccc     O615033  11.446   8.856   8.298 -0.1062  0.0124  0.2074
  555ccc     C115034   9.941   6.549   8.873  0.0206 -0.4595 -0.4079
  555ccc     C215035   9.814   6.621   8.917 -0.4355 -0.1854  0.2302
  555ccc     H115036   9.997   6.535   8.966  0.5086  1.6657 -0.3244
  555ccc     H215037   9.768   6.556   8.992  2.3684 -0.6362  1.6666
  555ccc     C315038   9.844   6.761   8.984  0.8550 -0.0339 -0.0208
  555ccc     C415039   9.900   6.855   8.868  0.3266 -0.6312 -0.5889
  555ccc     C515040  10.030   6.787   8.808 -0.4116 -0.1896  0.1648
  555ccc     H315041   9.817   6.860   8.796  0.7617  0.9299 -0.9979
  555ccc     H415042   9.925   6.745   9.056  1.6588 -0.3256 -0.9724
  555ccc     H515043  10.112   6.802   8.879 -0.4477  1.6162 -0.1265
  555ccc     O115044  10.074   6.850   8.686 -0.0244  0.1235 -0.2521
  555ccc     O215045   9.931   6.986   8.928 -0.1675 -0.3077 -0.1311
  555ccc     O315046   9.724   6.813   9.054  0.2682  0.0528  0.1738
  555ccc     O415047   9.730   6.629   8.802 -0.0598 -0.0845 -0.6950
  555ccc     C615048   9.927   6.404   8.808 -0.3298 -0.2368 -0.2298
  555ccc     H615049   9.664   6.820   8.978  0.5512  1.9385  0.0618
  555ccc     H715050   9.767   6.557   8.749 -1.1377  0.3101 -2.0324
  555ccc     H815051   9.929   7.057   8.862  2.3391  0.8386  0.8685
  555ccc     H915052   9.923   6.316   8.873 -0.0457 -1.4070 -1.7442
  555ccc    H1015053  10.021   6.381   8.756 -0.8295 -1.4598 -0.6239
  555ccc     O515054   9.817   6.395   8.726 -0.3178 -0.1969 -0.3251
  555ccc    H1115055   9.829   6.305   8.692  1.6398  0.8905 -2.8834
  555ccc     O615056  10.006   6.641   8.778  0.1249  0.5066  0.1780
  556ccc     C115057  10.870   6.373   8.845  0.2133 -0.1957  0.0479
  556ccc     C215058  11.013   6.319   8.824 -0.3570  0.4868 -0.3721
  556ccc     H115059  10.791   6.299   8.827 -0.9951  1.1676 -0.4101
  556ccc     H215060  11.029   6.238   8.895 -2.1511 -1.8309 -2.3933
  556ccc     C315061  11.022   6.258   8.677 -0.5659 -0.1134 -0.5256
  556ccc     C415062  10.985   6.369   8.573  1.1845  0.4044 -0.4373
  556ccc     C515063  10.849   6.439   8.615  0.5893 -0.5767  0.7066
  556ccc     H315064  11.063   6.446   8.572  2.4134 -0.7417  0.9464
  556ccc     H415065  10.941   6.184   8.674 -2.0356  1.4256 -1.4800
  556ccc     H515066  10.770   6.365   8.601  0.4078 -0.2884  0.1479
  556ccc     O115067  10.828   6.559   8.541 -0.1989  1.0437 -0.5476
  556ccc     O215068  10.979   6.308   8.442  0.8343  0.9444 -0.1324
  556ccc     O315069  11.160   6.203   8.649 -0.2957  0.5093 -0.1641
  556ccc     O415070  11.103   6.430   8.843 -0.0253  0.2352 -0.3382
  556ccc     C615071  10.847   6.413   8.995  0.5790  0.2062  0.7548
  556ccc     H615072  11.149   6.106   8.650  1.7793  0.2194  1.1223
  556ccc     H715073  11.188   6.385   8.827  0.0719  0.7172 -1.2176
  556ccc     H815074  10.957   6.382   8.383  0.1706  0.4707 -0.4901
  556ccc     H915075  10.897   6.338   9.056 -1.3630 -1.7405  0.0929
  556ccc    H1015076  10.740   6.422   9.015  0.4730  1.0151 -0.0623
  556ccc     O515077  10.913   6.535   9.005  0.2309  0.3277  0.0749
  556ccc    H1115078  10.985   6.519   8.940 -0.4766  0.6001 -0.7961
  556ccc     O615079  10.849   6.480   8.747  0.2406  0.2872  0.2368
  557ccc     C115080  10.620   7.372   7.519  0.4052 -0.3198 -0.0849
  557ccc     C215081  10.473   7.326   7.515 -1.6779  0.2328  0.3092
  557ccc     H115082  10.665   7.318   7.435  1.5071  2.2114 -1.2292
  557ccc     H215083  10.428   7.334   7.415 -0.2230  0.3405 -0.3532
  557ccc     C315084  10.468   7.175   7.542 -0.3848 -0.1019 -0.2104
  557ccc     C415085  10.542   7.135   7.671  0.3493 -0.4193 -0.1944
  557ccc     C515086  10.690   7.191   7.672  0.0829 -0.3218 -0.4062
  557ccc     H315087  10.484   7.188   7.747 -0.9286 -2.0907  0.0614
  557ccc     H415088  10.525   7.130   7.460  4.0056  2.1903  1.3226
  557ccc     H515089  10.754   7.150   7.592  0.5381 -3.8403  1.5629
  557ccc     O115090  10.753   7.163   7.804  0.3262  0.0273 -0.0749
  557ccc     O215091  10.535   6.990   7.693  0.2187 -0.2793 -0.3664
  557ccc     O315092  10.325   7.134   7.544 -0.2043 -0.3349  0.3979
  557ccc     O415093  10.394   7.397   7.609  0.2038 -0.5962  0.4590
  557ccc     C615094  10.633   7.525   7.485  0.2562 -0.9289 -0.4714
  557ccc     H615095  10.320   7.049   7.497 -0.7813 -0.4887  0.7294
  557ccc     H715096  10.311   7.347   7.609 -2.3702  3.2613  2.0936
  557ccc     H815097  10.449   6.977   7.737  0.7855 -1.2678  0.5167
  557ccc     H915098  10.599   7.543   7.382  0.2723 -0.6311 -0.4243
  557ccc    H1015099  10.740   7.550   7.494  0.2044 -1.4251  2.5490
  557ccc     O515100  10.550   7.598   7.572  0.5428 -0.1897 -0.3672
  557ccc    H1115101  10.483   7.529   7.589  0.3115 -0.5571 -2.5325
  557ccc     O615102  10.689   7.335   7.642 -0.4161  0.1534 -0.4305
  558ccc     C115103  11.341   6.385   8.247 -0.3599  0.1633  0.1984
  558ccc     C215104  11.477   6.458   8.244 -0.4951 -1.1273  0.5729
  558ccc     H115105  11.337   6.309   8.168 -0.3030  0.3482  0.0164
  558ccc     H215106  11.564   6.393   8.228 -1.0194 -2.1261  1.6084
  558ccc     C315107  11.495   6.556   8.126  0.3365 -0.2739  1.4408
  558ccc     C415108  11.376   6.654   8.112 -0.2050 -0.4383  0.1317
  558ccc     C515109  11.243   6.569   8.122  0.1061 -0.4043 -0.3808
  558ccc     H315110  11.368   6.717   8.201 -2.6638  0.6425 -0.7641
  558ccc     H415111  11.492   6.508   8.028  1.1416  1.9691  0.2544
  558ccc     H515112  11.223   6.515   8.029 -0.5333  1.6309 -1.4961
  558ccc     O115113  11.136   6.662   8.142 -0.0094 -0.1469  0.2142
  558ccc     O215114  11.398   6.729   7.988 -0.6931 -0.0495  1.0539
  558ccc     O315115  11.628   6.625   8.137  0.4377  0.0196  0.7315
  558ccc     O415116  11.493   6.527   8.366  0.2924  0.4442  0.0744
  558ccc     C615117  11.326   6.301   8.380  0.1341  0.0230 -0.2465
  558ccc     H615118  11.667   6.646   8.051  1.6374 -1.6635  0.8063
  558ccc     H715119  11.428   6.484   8.425 -0.6096  0.5667 -0.8139
  558ccc     H815120  11.431   6.813   8.025 -1.7109  0.1117  1.6403
  558ccc     H915121  11.414   6.235   8.378  0.7475  0.7881  0.6183
  558ccc    H1015122  11.243   6.230   8.385  0.8807 -0.7887  1.8266
  558ccc     O515123  11.319   6.372   8.501  0.1338  0.3668 -0.2621
  558ccc    H1115124  11.277   6.312   8.566 -2.6017  2.5604  0.1858
  558ccc     O615125  11.242   6.474   8.234  0.4688  0.3651  0.1787
  559ccc     C115126   7.125   8.897   9.171  0.1905 -0.2077 -0.0843
  559ccc     C215127   7.206   8.874   9.044  0.3335  0.6588  0.9127
  559ccc     H115128   7.055   8.980   9.153 -0.9552 -0.6495  1.9769
  559ccc     H215129   7.143   8.834   8.964  1.8598 -1.4407  0.6840
  559ccc     C315130   7.277   9.009   8.998  0.5116 -0.0598 -0.3309
  559ccc     C415131   7.347   9.069   9.123  0.2897  0.3453  0.3790
  559ccc     C515132   7.266   9.072   9.252 -1.6727  0.7405  0.2827
  559ccc     H315133   7.434   9.005   9.140  1.4044  1.8906  0.6714
  559ccc     H415134   7.199   9.085   8.982  0.3351 -0.4515 -1.4069
  559ccc     H515135   7.195   9.155   9.246 -0.5575  1.6914 -0.0632
  559ccc     O115136   7.352   9.109   9.368 -0.2772 -0.5997  0.5435
  559ccc     O215137   7.390   9.201   9.095 -0.1190 -0.1240 -0.0073
  559ccc     O315138   7.364   8.993   8.887 -0.3269  0.0532  0.0605
  559ccc     O415139   7.304   8.774   9.077 -0.2399  0.2707  0.8336
  559ccc     C615140   7.044   8.777   9.231 -0.7912 -0.4060 -0.0335
  559ccc     H615141   7.308   8.994   8.807 -1.2748  0.6135  0.7167
  559ccc     H715142   7.346   8.733   8.999 -3.4217 -1.7432 -0.0048
  559ccc     H815143   7.431   9.197   9.007  1.8482 -2.3933  0.8891
  559ccc     H915144   6.981   8.733   9.153  0.6034  1.0347 -2.0388
  559ccc    H1015145   6.991   8.801   9.324 -0.2450 -0.7612  0.3749
  559ccc     O515146   7.136   8.670   9.262  0.2072  1.0174  0.5426
  559ccc    H1115147   7.215   8.708   9.220 -0.5073  0.3621 -1.5482
  559ccc     O615148   7.210   8.941   9.281  0.4887  0.1703 -0.1811
  560ccc     C115149   7.294   9.736  10.231 -0.1232  1.7303 -0.4737
  560ccc     C215150   7.368   9.746  10.365 -0.0076 -0.2868 -0.4051
  560ccc     H115151   7.187   9.728  10.252 -0.0783 -1.9955 -0.9900
  560ccc     H215152   7.335   9.834  10.422  0.1634  0.5421 -1.5300
  560ccc     C315153   7.332   9.627  10.458  0.3376  0.4725 -0.3092
  560ccc     C415154   7.366   9.498  10.382 -0.1586 -0.1573 -0.5918
  560ccc     C515155   7.306   9.491  10.237  0.0141  0.1657 -0.0462
  560ccc     H315156   7.475   9.498  10.390 -0.1388  1.4579 -0.5423
  560ccc     H415157   7.226   9.644  10.483  0.6606 -0.3443  1.9193
  560ccc     H515158   7.200   9.464  10.247  0.8210 -3.1958  0.3622
  560ccc     O115159   7.366   9.389  10.160  0.4321  0.3711 -0.0479
  560ccc     O215160   7.301   9.391  10.461 -0.0217  0.2036  0.7646
  560ccc     O315161   7.400   9.629  10.584 -0.0262  0.3114  0.1165
  560ccc     O415162   7.507   9.743  10.340  0.4932  0.1440  0.4496
  560ccc     C615163   7.319   9.858  10.139 -0.1036  0.5168  0.4602
  560ccc     H615164   7.364   9.560  10.642 -1.7113  1.1042  0.0596
  560ccc     H715165   7.554   9.770  10.420  0.4860  2.0864 -0.1439
  560ccc     H815166   7.376   9.330  10.450  0.3926  1.0577 -1.8043
  560ccc     H915167   7.295   9.949  10.195 -2.2226 -0.3878  1.1298
  560ccc    H1015168   7.252   9.857  10.052 -0.2255 -0.1018  0.5589
  560ccc     O515169   7.446   9.856  10.091  0.1347  0.5093 -0.2218
  560ccc    H1115170   7.484   9.804  10.165  1.3457 -2.9348 -2.9952
  560ccc     O615171   7.330   9.612  10.162 -0.2341 -0.7987 -0.2709
  561ccc     C115172   7.533   8.054   8.151  0.2247  1.2296 -0.1807
  561ccc     C215173   7.633   7.989   8.055  0.1695  0.4161  0.1649
  561ccc     H115174   7.453   8.098   8.091 -1.3411 -1.8896 -0.5834
  561ccc     H215175   7.572   7.933   7.983 -1.0840  2.2746 -0.3047
  561ccc     C315176   7.701   8.106   7.974  0.6656  0.9246 -0.1441
  561ccc     C415177   7.758   8.207   8.070  0.5319  0.2260  0.2240
  561ccc     C515178   7.647   8.259   8.166 -0.2884 -0.4675  0.1136
  561ccc     H315179   7.829   8.155   8.135 -0.3159 -2.4391 -0.8486
  561ccc     H415180   7.620   8.156   7.920 -0.3356 -0.6261 -0.1550
  561ccc     H515181   7.572   8.313   8.106 -1.1911 -2.5755 -0.7605
  561ccc     O115182   7.707   8.346   8.267 -0.2243 -0.4190 -0.1009
  561ccc     O215183   7.822   8.312   7.996 -0.0309 -0.3753  0.1677
  561ccc     O315184   7.795   8.053   7.882  0.7970  0.6634  0.0950
  561ccc     O415185   7.730   7.917   8.125 -0.2274  0.8124  0.2572
  561ccc     C615186   7.475   7.950   8.242  0.3690  0.0559  0.0422
  561ccc     H615187   7.753   8.020   7.801  0.7947  0.2271  0.2708
  561ccc     H715188   7.763   7.851   8.062 -1.8109 -0.7114  0.9449
  561ccc     H815189   7.898   8.273   7.951 -0.0831  1.2609 -1.4555
  561ccc     H915190   7.555   7.915   8.308 -1.0290  0.2088  1.8975
  561ccc    H1015191   7.432   7.865   8.188  2.3620 -0.9344 -0.0790
  561ccc     O515192   7.372   8.014   8.325 -0.1737  0.1176  0.5555
  561ccc    H1115193   7.303   8.039   8.261  0.0161  0.8351  0.6243
  561ccc     O615194   7.593   8.146   8.235 -0.4783 -0.4188  0.0188
  562ccc     C115195   8.466   8.069   8.592  0.2554 -0.2562  0.3496
  562ccc     C215196   8.508   8.195   8.512 -0.1090  0.8671 -0.1938
  562ccc     H115197   8.471   7.988   8.518  0.8834 -0.1576  0.2780
  562ccc     H215198   8.607   8.180   8.466 -1.2201 -1.6790 -1.9944
  562ccc     C315199   8.416   8.227   8.396  0.2295 -0.2727 -0.3716
  562ccc     C415200   8.270   8.222   8.444  0.2633  0.5413 -0.2876
  562ccc     C515201   8.234   8.099   8.531 -0.1186 -0.3401  0.1025
  562ccc     H315202   8.264   8.312   8.508  3.1229 -0.2956  1.3342
  562ccc     H415203   8.432   8.144   8.327  0.5266 -0.7256  0.2399
  562ccc     H515204   8.219   8.007   8.473 -0.3523 -1.4453  1.8346
  562ccc     O115205   8.101   8.132   8.584 -0.2317  0.2408  0.3898
  562ccc     O215206   8.179   8.234   8.337  0.6376 -0.1055  0.2408
  562ccc     O315207   8.462   8.347   8.323  0.5945  0.9777 -0.3726
  562ccc     O415208   8.507   8.295   8.608  0.1511 -0.0299  0.1387
  562ccc     C615209   8.553   8.030   8.720 -0.1188  0.3767 -0.4144
  562ccc     H615210   8.558   8.329   8.318  0.5081  0.2698  0.3761
  562ccc     H715211   8.517   8.237   8.686  2.4742 -0.8654 -0.6772
  562ccc     H815212   8.095   8.206   8.378  0.7327  0.3781  0.7644
  562ccc     H915213   8.654   7.994   8.696 -0.4738 -1.0124  0.0924
  562ccc    H1015214   8.503   7.947   8.771  0.5813  0.4196  0.3647
  562ccc     O515215   8.565   8.143   8.798 -0.6610  0.6925 -0.1026
  562ccc    H1115216   8.541   8.099   8.881 -0.0287 -1.8520 -1.1924
  562ccc     O615217   8.329   8.082   8.631  0.8770  0.3399 -0.1204
  563ccc     C115218   9.047  10.266   8.154 -0.4146  0.3893 -0.2539
  563ccc     C215219   9.150  10.159   8.134  0.6183 -0.4384 -0.5786
  563ccc     H115220   9.103  10.358   8.178  1.3659 -0.9118  0.7996
  563ccc     H215221   9.226  10.185   8.059  1.0096  0.6351  0.1709
  563ccc     C315222   9.227  10.128   8.264 -0.0095 -0.2225 -0.1891
  563ccc     C415223   9.130  10.109   8.385 -0.3614 -0.1708 -0.1708
  563ccc     C515224   9.030  10.227   8.396  0.1579 -0.5527  0.3472
  563ccc     H315225   9.055  10.031   8.368 -1.2877  0.2060  1.9454
  563ccc     H415226   9.292  10.215   8.280 -1.1592  1.0871 -2.0845
  563ccc     H515227   9.078  10.325   8.405 -0.3318 -0.3202  0.4927
  563ccc     O115228   8.929  10.202   8.501 -0.5064 -0.0510  0.5565
  563ccc     O215229   9.215  10.089   8.501 -0.1942 -0.3822  0.0820
  563ccc     O315230   9.298  10.001   8.250 -0.4377  0.3645  0.2942
  563ccc     O415231   9.082  10.040   8.107  0.6162 -0.3322  0.3450
  563ccc     C615232   8.963  10.291   8.030  0.2266  0.8965  0.4350
  563ccc     H615233   9.363  10.000   8.323  0.3613  2.2297 -0.3408
  563ccc     H715234   9.157   9.979   8.119 -0.3594 -1.8997 -1.0070
  563ccc     H815235   9.173  10.018   8.552 -2.0810  1.1585  0.8060
  563ccc     H915236   9.029  10.330   7.951 -0.6819 -0.4747 -1.0694
  563ccc    H1015237   8.893  10.372   8.054 -0.4482  0.0338  1.4827
  563ccc     O515238   8.888  10.176   7.986 -0.0347 -0.0525  0.2307
  563ccc    H1115239   8.939  10.105   8.029  0.3851  0.9087  1.3444
  563ccc     O615240   8.962  10.236   8.267  0.8681  0.0275 -0.6025
  564ccc     C115241   8.592  10.204   9.453 -0.1147  0.2040 -0.3519
  564ccc     C215242   8.593  10.128   9.594  0.1410  0.6572 -0.2915
  564ccc     H115243   8.502  10.192   9.391  0.3438  2.5740 -1.5856
  564ccc     H215244   8.503  10.149   9.653  0.5664  2.7446 -0.2905
  564ccc     C315245   8.601   9.977   9.570 -0.4081 -0.2185  0.4807
  564ccc     C415246   8.714   9.938   9.475  0.1412 -0.4546  0.4187
  564ccc     C515247   8.706  10.024   9.345  0.2776  0.3961  0.9894
  564ccc     H315248   8.801   9.982   9.525  0.0736 -0.9573  1.0018
  564ccc     H415249   8.511   9.935   9.523  0.0701 -0.5565 -0.1424
  564ccc     H515250   8.616  10.001   9.287  0.9512  0.5597 -0.1637
  564ccc     O115251   8.815  10.002   9.253 -0.9326  0.5478  0.6917
  564ccc     O215252   8.720   9.796   9.443 -0.0642  0.0621 -0.5060
  564ccc     O315253   8.620   9.898   9.689  0.1770  0.0391 -0.2190
  564ccc     O415254   8.713  10.171   9.663 -0.4979  0.3674  0.0863
  564ccc     C615255   8.600  10.358   9.472  0.7829 -0.1234 -1.0982
  564ccc     H615256   8.586   9.812   9.661 -1.1600  0.6400 -0.5443
  564ccc     H715257   8.724  10.259   9.624 -4.2054  0.4725 -1.1353
  564ccc     H815258   8.794   9.762   9.496  1.3517  2.2071 -0.9795
  564ccc     H915259   8.513  10.372   9.538  2.2609  1.3377  0.6553
  564ccc    H1015260   8.589  10.416   9.380 -0.2944  3.0864  0.8764
  564ccc     O515261   8.722  10.403   9.537  0.2990 -0.1605 -0.2827
  564ccc    H1115262   8.760  10.473   9.480  1.5081 -0.6535 -0.1181
  564ccc     O615263   8.708  10.162   9.377  0.4710 -0.3363 -0.4213
  565ccc     C115264   7.586   9.665   7.017  0.3338  0.0801  0.3591
  565ccc     C215265   7.535   9.521   7.025  0.5492 -0.7726  0.1659
  565ccc     H115266   7.651   9.655   6.930  0.4560 -0.3542  0.4965
  565ccc     H215267   7.494   9.487   6.929  1.2454 -0.4301 -0.2585
  565ccc     C315268   7.648   9.426   7.047 -0.4774  0.5011 -0.4210
  565ccc     C415269   7.733   9.457   7.173 -0.5258  0.2221 -0.2721
  565ccc     C515270   7.776   9.604   7.174  0.1418 -0.5483 -0.6772
  565ccc     H315271   7.669   9.435   7.260 -1.8277 -2.7410 -1.8303
  565ccc     H415272   7.713   9.422   6.959 -0.3557  0.0665 -0.3151
  565ccc     H515273   7.862   9.631   7.111 -0.1081  1.0802 -0.3669
  565ccc     O115274   7.806   9.652   7.311 -0.4706 -0.1433 -0.3345
  565ccc     O215275   7.836   9.364   7.181 -0.2046 -0.3674 -0.0957
  565ccc     O315276   7.584   9.297   7.047  0.1156 -0.1101 -0.0115
  565ccc     O415277   7.438   9.509   7.132 -0.4105 -0.3891  0.1730
  565ccc     C615278   7.479   9.764   6.995  0.2827 -0.2384 -0.5390
  565ccc     H615279   7.552   9.277   6.958 -3.1210 -0.2418  1.0355
  565ccc     H715280   7.440   9.413   7.143 -0.1277 -0.5898 -1.4461
  565ccc     H815281   7.787   9.280   7.187 -1.0604  0.0817 -0.7099
  565ccc     H915282   7.421   9.720   6.912  2.2717 -3.1355 -0.5387
  565ccc    H1015283   7.516   9.863   6.966 -0.8896  0.5895  0.6792
  565ccc     O515284   7.402   9.774   7.116  0.1471 -0.1787 -0.2122
  565ccc    H1115285   7.438   9.688   7.147  0.7349  0.1271 -0.0348
  565ccc     O615286   7.670   9.701   7.133 -0.3334 -0.1984 -0.0337
  566ccc     C115287   7.404   9.489   8.075  0.5371  0.1730 -0.0741
  566ccc     C215288   7.389   9.522   8.223  0.3003 -0.4280  0.3982
  566ccc     H115289   7.429   9.382   8.073  0.4313  0.1420  0.2060
  566ccc     H215290   7.309   9.466   8.273 -0.9084  0.7499 -0.1453
  566ccc     C315291   7.521   9.511   8.299  0.4181 -0.1108  0.1508
  566ccc     C415292   7.650   9.552   8.223  0.4609  0.0532 -0.0398
  566ccc     C515293   7.645   9.509   8.080  0.7985  0.1993 -0.1392
  566ccc     H315294   7.662   9.661   8.221 -0.6113  0.1729 -0.6379
  566ccc     H415295   7.526   9.405   8.324  2.3880  0.2833  1.7560
  566ccc     H515296   7.640   9.399   8.080 -0.2685  0.2051  1.9803
  566ccc     O115297   7.757   9.557   7.998 -0.1308 -0.9789 -0.7253
  566ccc     O215298   7.761   9.489   8.287 -0.2879  0.1552 -0.2870
  566ccc     O315299   7.506   9.587   8.422  0.1365 -0.2448  0.0178
  566ccc     O415300   7.342   9.657   8.230 -0.0896  0.6660  0.1277
  566ccc     C615301   7.269   9.514   8.004 -0.2056  0.0195 -0.1387
  566ccc     H615302   7.556   9.535   8.487  1.4127  0.7372 -0.1439
  566ccc     H715303   7.384   9.671   8.317  1.1348 -2.3069  0.1452
  566ccc     H815304   7.771   9.553   8.359 -4.2901  0.3627  0.3148
  566ccc     H915305   7.262   9.618   7.971  2.3709 -0.0563 -1.1148
  566ccc    H1015306   7.189   9.486   8.074 -0.5103 -1.1917 -0.9317
  566ccc     O515307   7.259   9.423   7.893 -0.2954 -0.0016  0.1739
  566ccc    H1115308   7.342   9.441   7.844 -1.0948  2.0731 -0.5353
  566ccc     O615309   7.515   9.548   8.016 -0.1768 -0.6566  0.0469
  567ccc     C115310  10.781   8.190  11.039 -0.2119  0.3387  0.3546
  567ccc     C215311  10.687   8.109  11.127  0.1919  0.3262  0.1942
  567ccc     H115312  10.751   8.295  11.046  2.2649  1.1132  0.3715
  567ccc     H215313  10.688   8.146  11.230  0.5171 -0.2593  0.4081
  567ccc     C315314  10.543   8.131  11.065  0.2808  0.0061  0.7503
  567ccc     C415315  10.546   8.096  10.914 -0.3780  0.0377 -0.9878
  567ccc     C515316  10.650   8.183  10.833  0.8074  0.5896  0.2097
  567ccc     H315317  10.581   7.992  10.919  1.3544  0.6267  1.9805
  567ccc     H415318  10.518   8.238  11.078  1.3295  0.3608 -0.0537
  567ccc     H515319  10.633   8.289  10.854  0.0130  0.3426  0.8634
  567ccc     O115320  10.664   8.142  10.689  0.2707  0.5667 -0.0761
  567ccc     O215321  10.413   8.112  10.861  0.2916  0.1516  0.0498
  567ccc     O315322  10.455   8.049  11.132  0.0205  0.2238 -0.0550
  567ccc     O415323  10.710   7.967  11.113  0.3784  0.1666 -0.1655
  567ccc     C615324  10.918   8.187  11.095 -0.3904  0.0846 -0.0740
  567ccc     H615325  10.385   8.023  11.070  0.7172  0.7976 -1.1341
  567ccc     H715326  10.627   7.935  11.152 -0.0373  1.1558 -0.1931
  567ccc     H815327  10.400   8.065  10.777  1.5622  0.8425 -0.5589
  567ccc     H915328  10.928   8.229  11.196  3.6764  2.2177 -1.1392
  567ccc    H1015329  10.986   8.246  11.032 -0.2230 -0.4462 -0.3980
  567ccc     O515330  10.965   8.053  11.097  0.0907  0.2447 -0.1377
  567ccc    H1115331  10.884   7.999  11.092  0.1411  0.2913 -2.5137
  567ccc     O615332  10.776   8.155  10.894 -0.0123  0.0457  0.0141
  568ccc     C115333  10.389   7.500  10.195  0.3218 -0.3104  0.6820
  568ccc     C215334  10.522   7.417  10.188 -0.2020  0.4388 -0.4461
  568ccc     H115335  10.328   7.474  10.108  2.2207  0.0680 -0.8146
  568ccc     H215336  10.500   7.310  10.174  1.3459  0.1846 -1.1923
  568ccc     C315337  10.609   7.459  10.066 -1.1663  0.2849 -0.1317
  568ccc     C415338  10.639   7.616  10.063 -0.4348  0.8677  0.4307
  568ccc     C515339  10.499   7.693  10.085 -0.6040 -0.0030  0.1908
  568ccc     H315340  10.706   7.645  10.144 -1.7840  0.4469  1.7422
  568ccc     H415341  10.562   7.436   9.970  1.0377 -2.5807 -0.6547
  568ccc     H515342  10.451   7.682   9.987 -0.0870 -1.5754  0.0993
  568ccc     O115343  10.526   7.837  10.103  0.4764 -0.3766 -0.4629
  568ccc     O215344  10.684   7.645   9.930  0.2233 -0.2899 -0.3182
  568ccc     O315345  10.735   7.390  10.075 -0.0113  0.0858  0.1126
  568ccc     O415346  10.595   7.429  10.310 -0.6178 -0.2402  0.2324
  568ccc     C615347  10.296   7.462  10.310 -0.3252 -0.7378 -0.6356
  568ccc     H615348  10.748   7.351   9.987  0.0109  1.5367 -0.5718
  568ccc     H715349  10.684   7.414  10.274 -1.0001 -0.9624 -0.4142
  568ccc     H815350  10.773   7.610   9.911  0.2192  0.6680 -2.4750
  568ccc     H915351  10.253   7.363  10.291 -0.5783 -0.9515  0.9483
  568ccc    H1015352  10.213   7.534  10.300  0.5844  0.2259 -1.4053
  568ccc     O515353  10.369   7.473  10.437  0.0078 -0.2005  0.4810
  568ccc    H1115354  10.460   7.460  10.404 -0.1225 -2.4126  0.8450
  568ccc     O615355  10.426   7.639  10.198  0.3847  0.1648  0.2129
  569ccc     C115356  10.340   9.177  10.917 -0.2309 -0.0395 -0.6680
  569ccc     C215357  10.362   9.323  10.964 -0.0586 -0.6549  1.2202
  569ccc     H115358  10.379   9.175  10.815 -0.5045  1.7423 -0.8433
  569ccc     H215359  10.465   9.342  10.931 -1.0085  0.3732 -1.4767
  569ccc     C315360  10.270   9.420  10.883 -0.0297 -0.9063 -0.7073
  569ccc     C415361  10.117   9.368  10.886 -0.2053 -0.3481  0.2981
  569ccc     C515362  10.110   9.218  10.842  0.3181 -0.5055  0.4336
  569ccc     H315363  10.092   9.370  10.993  0.3087 -2.2446  0.4928
  569ccc     H415364  10.302   9.406  10.779  1.3999  0.3853 -0.4681
  569ccc     H515365  10.139   9.208  10.737 -1.6678  1.7399 -0.4235
  569ccc     O115366   9.975   9.174  10.854  0.0118 -0.5106 -0.2352
  569ccc     O215367  10.024   9.448  10.809 -0.2324 -0.4130 -0.2139
  569ccc     O315368  10.292   9.562  10.926 -0.0347  0.7281 -0.5760
  569ccc     O415369  10.345   9.335  11.097 -0.0610  0.2330  0.1699
  569ccc     C615370  10.423   9.069  10.995  0.0793  0.9718  0.1658
  569ccc     H615371  10.286   9.552  11.023  3.5055 -1.2059 -0.3740
  569ccc     H715372  10.350   9.245  11.133  0.7253  1.0706  2.3065
  569ccc     H815373   9.941   9.412  10.844  0.0136 -0.2583  0.5511
  569ccc     H915374  10.529   9.083  10.970  0.0640  4.5798  1.5565
  569ccc    H1015375  10.386   8.970  10.967 -1.1825  0.9257  1.8643
  569ccc     O515376  10.406   9.088  11.134 -0.5838  0.5313 -0.2709
  569ccc    H1115377  10.399   9.000  11.176 -0.1016  0.7293  0.2430
  569ccc     O615378  10.199   9.137  10.926 -0.2357 -0.6570 -0.2558
  570ccc     C115379   9.703   8.497  11.517 -0.0577 -0.3918  0.6411
  570ccc     C215380   9.744   8.355  11.475  0.2271 -0.2036  0.5463
  570ccc     H115381   9.607   8.483  11.568 -2.1364  0.8271 -2.6176
  570ccc     H215382   9.746   8.297  11.568 -0.5524  0.8217  1.2329
  570ccc     C315383   9.641   8.288  11.378  0.1371 -0.1867  0.0388
  570ccc     C415384   9.600   8.382  11.262  0.1768  0.2679 -0.0002
  570ccc     C515385   9.589   8.526  11.302  0.9123  0.4107  0.4985
  570ccc     H315386   9.681   8.374  11.189  0.6442  1.9614  0.2842
  570ccc     H415387   9.550   8.285  11.440 -1.1758 -0.1034 -1.7850
  570ccc     H515388   9.490   8.529  11.348  0.1557  1.7963 -1.1009
  570ccc     O115389   9.598   8.607  11.183 -0.4481  0.0235  0.1851
  570ccc     O215390   9.481   8.333  11.191 -0.2027 -0.7221  0.2295
  570ccc     O315391   9.681   8.152  11.336 -0.1806 -0.6446 -0.1968
  570ccc     O415392   9.873   8.353  11.420 -0.0925 -0.1190  0.4080
  570ccc     C615393   9.808   8.563  11.613  0.1931 -0.2629 -0.6144
  570ccc     H615394   9.722   8.109  11.413  0.8300 -0.5277 -0.6557
  570ccc     H715395   9.915   8.278  11.465 -0.5989 -0.6891 -0.0557
  570ccc     H815396   9.503   8.243  11.161 -0.8223 -0.7717 -0.0768
  570ccc     H915397   9.887   8.609  11.553  0.1444  0.8535  0.1651
  570ccc    H1015398   9.853   8.492  11.683  0.2698  0.6357  0.2638
  570ccc     O515399   9.737   8.668  11.676  0.3015  0.5659  0.5900
  570ccc    H1115400   9.718   8.729  11.603 -0.2455 -0.7435 -0.4192
  570ccc     O615401   9.684   8.573  11.396  0.3116  0.0296  0.2658
  571ccc     C115402  10.417   8.886   8.468  0.0516  0.9937 -0.4312
  571ccc     C215403  10.542   8.838   8.400 -0.2495  0.7391 -0.1151
  571ccc     H115404  10.432   8.994   8.477  2.2472  0.8328 -1.4845
  571ccc     H215405  10.558   8.895   8.307  1.1115 -0.0777 -0.3952
  571ccc     C315406  10.671   8.849   8.484  0.2898 -0.0665  0.1102
  571ccc     C415407  10.641   8.800   8.633 -0.2385 -0.5513 -0.3779
  571ccc     C515408  10.509   8.857   8.682  0.4768  0.2622 -0.0200
  571ccc     H315409  10.633   8.691   8.622  0.7447 -0.9954  2.5240
  571ccc     H415410  10.703   8.954   8.498  2.7133 -0.6229 -0.7311
  571ccc     H515411  10.504   8.966   8.687 -2.3743  0.1747  1.5952
  571ccc     O115412  10.492   8.807   8.818  0.4825 -0.0834  0.5438
  571ccc     O215413  10.764   8.827   8.705  0.0694 -0.4345 -0.7683
  571ccc     O315414  10.777   8.779   8.423 -0.1387  0.5605  0.0274
  571ccc     O415415  10.536   8.710   8.353 -0.3148  0.2026 -0.1897
  571ccc     C615416  10.291   8.865   8.377 -0.0087 -0.4266 -0.1399
  571ccc     H615417  10.859   8.796   8.473  0.4381 -2.6639  0.3861
  571ccc     H715418  10.627   8.686   8.331 -0.3102 -0.4718  0.5377
  571ccc     H815419  10.739   8.889   8.775 -0.8821  1.8726 -3.0097
  571ccc     H915420  10.245   8.767   8.393 -0.7294 -0.1929 -0.7172
  571ccc    H1015421  10.315   8.890   8.272 -0.5523  1.3604  0.1190
  571ccc     O515422  10.189   8.951   8.414 -0.5073 -0.2731 -0.2587
  571ccc    H1115423  10.155   8.901   8.490  2.2823 -1.0746  0.5852
  571ccc     O615424  10.399   8.820   8.598  0.4499  0.5859 -0.8973
  572ccc     C115425  11.104   8.877   9.347  0.2535  0.7380  0.2619
  572ccc     C215426  11.013   8.987   9.406  0.0685 -0.0732 -0.3396
  572ccc     H115427  11.151   8.914   9.255 -0.9443 -1.3149 -1.2603
  572ccc     H215428  11.071   9.080   9.410  0.7407 -0.3450 -2.4699
  572ccc     C315429  10.891   9.003   9.320 -0.0135 -0.8485  0.1173
  572ccc     C415430  10.814   8.878   9.299  0.3016  0.3239 -0.5692
  572ccc     C515431  10.908   8.780   9.232  0.9216  0.1573 -0.5112
  572ccc     H315432  10.791   8.829   9.395 -0.3542 -0.0929 -0.9308
  572ccc     H415433  10.918   9.047   9.222  0.0200 -0.2876  0.3719
  572ccc     H515434  10.944   8.804   9.131 -0.6241  2.2857 -0.6117
  572ccc     O115435  10.836   8.658   9.220  0.1785  0.1912 -0.1556
  572ccc     O215436  10.698   8.897   9.212  0.1686 -0.0958  0.1266
  572ccc     O315437  10.807   9.101   9.386  0.0507  0.3208 -0.8188
  572ccc     O415438  10.965   8.955   9.531  0.0346  0.1359  0.4316
  572ccc     C615439  11.217   8.832   9.446 -0.9607 -0.1662  0.4000
  572ccc     H615440  10.719   9.092   9.346  0.3329 -0.9256 -1.2132
  572ccc     H715441  10.892   9.020   9.529 -1.2788 -1.2790 -0.9278
  572ccc     H815442  10.651   8.813   9.225  0.1777  0.1399  1.8686
  572ccc     H915443  11.293   8.911   9.445 -2.1551  1.1583 -3.2370
  572ccc    H1015444  11.257   8.736   9.411  0.3589  1.0514 -1.6507
  572ccc     O515445  11.163   8.813   9.575  0.2135  0.3610  0.6831
  572ccc    H1115446  11.077   8.858   9.570  0.8318  1.4458 -1.9738
  572ccc     O615447  11.020   8.757   9.323 -0.1016 -0.0519 -0.1203
  573ccc     C115448  10.639  10.248  10.380  0.2043 -0.3733  0.2658
  573ccc     C215449  10.533  10.300  10.286  0.5166 -0.2196 -0.3056
  573ccc     H115450  10.727  10.306  10.348 -0.2472 -0.2106 -0.7280
  573ccc     H215451  10.532  10.409  10.282 -1.6042 -0.1956 -0.4442
  573ccc     C315452  10.578  10.249  10.141  0.2574 -0.1354 -0.3771
  573ccc     C415453  10.597  10.094  10.134  1.2672 -0.0495  0.9348
  573ccc     C515454  10.694  10.049  10.243 -0.1098  0.1785 -0.5349
  573ccc     H315455  10.503  10.047  10.164  1.2585 -1.7840 -1.5173
  573ccc     H415456  10.678  10.291  10.125 -1.0097  2.4748 -1.9287
  573ccc     H515457  10.796  10.085  10.223 -1.4353  3.7874 -1.5563
  573ccc     O115458  10.700   9.906  10.254  0.5741 -0.0151 -0.8169
  573ccc     O215459  10.638  10.044  10.005  0.2953  0.2747  0.0041
  573ccc     O315460  10.487  10.306  10.044  0.2546 -0.0558  0.2027
  573ccc     O415461  10.402  10.254  10.320  0.0208  0.2457  0.3436
  573ccc     C615462  10.603  10.292  10.518 -0.1006  0.7549 -0.9055
  573ccc     H615463  10.484  10.402  10.057 -2.5709 -0.1932  1.3956
  573ccc     H715464  10.342  10.313  10.271 -0.9760 -0.6670  0.4329
  573ccc     H815465  10.633   9.947  10.011 -0.2658  0.3656  1.4370
  573ccc     H915466  10.522  10.229  10.556 -1.0522  1.8189 -1.1035
  573ccc    H1015467  10.572  10.397  10.511  0.4797  0.7956 -4.7410
  573ccc     O515468  10.715  10.270  10.607 -0.2650  0.2935 -0.0444
  573ccc    H1115469  10.767  10.353  10.608 -0.4343  0.4036  1.2510
  573ccc     O615470  10.653  10.105  10.372  0.3024  0.3820 -0.4754
  574ccc     C115471  11.277   8.983  10.831 -0.8093 -0.0970  0.7024
  574ccc     C215472  11.425   9.027  10.838 -0.2913 -0.1433  0.1296
  574ccc     H115473  11.281   8.881  10.790  1.9625  1.0145 -2.2708
  574ccc     H215474  11.479   8.951  10.896 -1.3890 -0.3093  0.9582
  574ccc     C315475  11.493   9.040  10.697 -0.1231 -0.6930 -0.0914
  574ccc     C415476  11.402   9.114  10.597 -0.4466  0.7741  0.0172
  574ccc     C515477  11.259   9.051  10.592 -0.1935  0.2972  0.7151
  574ccc     H315478  11.387   9.211  10.645 -3.0626  0.4255  0.0559
  574ccc     H415479  11.501   8.937  10.661 -0.1446 -0.6084 -0.3403
  574ccc     H515480  11.268   8.947  10.559  1.6579  0.8618 -0.7084
  574ccc     O115481  11.187   9.132  10.495  0.2052  0.2634  0.4478
  574ccc     O215482  11.474   9.122  10.471 -0.2013 -0.3144  0.0216
  574ccc     O315483  11.622   9.103  10.704  0.2882  0.4269  0.3331
  574ccc     O415484  11.436   9.158  10.903 -0.0066  0.1187  0.1457
  574ccc     C615485  11.199   8.987  10.965 -0.3198  0.0789  0.2639
  574ccc     H615486  11.653   9.115  10.613 -1.1884 -1.3361 -0.4699
  574ccc     H715487  11.352   9.153  10.951  0.4304  4.4299  1.7715
  574ccc     H815488  11.449   9.202  10.422  2.0514  0.4707  0.0206
  574ccc     H915489  11.258   8.913  11.020  1.4261  0.0230 -1.5477
  574ccc    H1015490  11.098   8.952  10.941 -0.9221 -0.3887  3.2098
  574ccc     O515491  11.203   9.125  11.015 -0.0224 -0.6569  0.4461
  574ccc    H1115492  11.116   9.163  10.991 -0.0420  1.0212  2.9047
  574ccc     O615493  11.213   9.058  10.729 -0.4923 -0.4317  0.1041
  575ccc     C115494   6.141   4.850   6.228  0.5668 -0.2105 -0.0705
  575ccc     C215495   6.103   4.780   6.093  0.2158  0.1593 -0.1566
  575ccc     H115496   6.184   4.946   6.199 -1.0563  0.1209 -1.4943
  575ccc     H215497   6.029   4.840   6.038 -0.2338 -2.2205 -2.3344
  575ccc     C315498   6.233   4.756   6.016  0.2908  0.3751 -0.0508
  575ccc     C415499   6.342   4.681   6.097 -0.0858 -0.2579 -0.3646
  575ccc     C515500   6.361   4.747   6.242 -0.0764 -0.0516  0.1534
  575ccc     H315501   6.305   4.581   6.123  1.0171 -0.8407 -0.9515
  575ccc     H415502   6.280   4.851   5.987 -0.9629  0.8296 -0.6540
  575ccc     H515503   6.412   4.844   6.241 -0.0701 -0.0503 -0.7954
  575ccc     O115504   6.437   4.652   6.318  0.3002 -0.0068  0.3158
  575ccc     O215505   6.458   4.672   6.016 -0.2215 -0.1262  0.2878
  575ccc     O315506   6.204   4.676   5.893  0.1952  0.3335 -0.2576
  575ccc     O415507   6.049   4.656   6.128 -0.1254 -0.4149  0.2450
  575ccc     C615508   6.017   4.890   6.308  0.5336 -0.4203  0.2102
  575ccc     H615509   6.275   4.704   5.833  0.2793  1.2908  0.2556
  575ccc     H715510   6.015   4.683   6.215 -0.7318 -0.1215 -0.0823
  575ccc     H815511   6.469   4.577   5.998  0.0102 -0.0600  0.0787
  575ccc     H915512   5.978   4.985   6.268  1.2599  0.7663  2.1635
  575ccc    H1015513   6.044   4.913   6.412 -3.4330  1.7191  0.9772
  575ccc     O515514   5.904   4.794   6.310 -0.2501  0.9359  0.0092
  575ccc    H1115515   5.849   4.832   6.381 -0.6383 -0.1081  0.2847
  575ccc     O615516   6.227   4.762   6.301 -0.3749  0.2928 -0.0689
  576ccc     C115517   6.866   3.891   6.601 -0.3015  0.4891  0.5256
  576ccc     C215518   6.790   3.920   6.470  0.0360  0.2247  0.7621
  576ccc     H115519   6.827   3.795   6.637  1.2715 -0.3373  0.1150
  576ccc     H215520   6.786   3.826   6.413  2.4418  0.2576  0.4265
  576ccc     C315521   6.640   3.957   6.499 -0.0323  0.5250  0.0836
  576ccc     C415522   6.627   4.071   6.615 -0.2606 -0.0232  0.2519
  576ccc     C515523   6.718   4.029   6.739  0.1219 -0.3668 -0.2224
  576ccc     H315524   6.657   4.168   6.574  1.0224 -0.9825 -1.2207
  576ccc     H415525   6.582   3.868   6.526 -0.0295  0.7709  0.9233
  576ccc     H515526   6.673   3.943   6.789  0.6157  0.6432  2.1273
  576ccc     O115527   6.730   4.137   6.828  0.4097 -0.0595  0.2690
  576ccc     O215528   6.490   4.061   6.667 -0.2117 -0.2500  0.1361
  576ccc     O315529   6.583   4.018   6.379 -0.0814 -0.5983 -0.4032
  576ccc     O415530   6.853   4.015   6.385 -0.1329 -0.2225  0.4731
  576ccc     C615531   7.024   3.863   6.583 -0.1169 -0.6887  0.2178
  576ccc     H615532   6.637   3.988   6.304 -0.9558  0.6792 -1.5960
  576ccc     H715533   6.906   3.965   6.321  0.2843  0.4895  0.2446
  576ccc     H815534   6.447   4.122   6.605  0.4712 -0.1374 -0.2437
  576ccc     H915535   7.073   3.954   6.546 -1.6035  1.2116  2.6071
  576ccc    H1015536   7.035   3.776   6.518 -1.9722  0.1624 -1.3101
  576ccc     O515537   7.083   3.831   6.708  0.2665  0.0065  0.0287
  576ccc    H1115538   7.035   3.897   6.762  2.1850  0.3921  1.3582
  576ccc     O615539   6.854   3.996   6.701  0.2881 -0.6161  0.7959
  577ccc     C115540   8.326   5.242   6.199  0.0245 -0.5563 -0.4830
  577ccc     C215541   8.317   5.333   6.074  0.2087  0.0758 -0.6944
  577ccc     H115542   8.386   5.154   6.172  0.6208 -0.1467 -0.5262
  577ccc     H215543   8.407   5.378   6.032  0.9075 -0.1616  0.4889
  577ccc     C315544   8.257   5.250   5.961  0.2405 -0.2633  0.1071
  577ccc     C415545   8.129   5.168   5.992  0.1055  0.7722  0.4640
  577ccc     C515546   8.131   5.112   6.138 -0.0855  0.1166  0.4931
  577ccc     H315547   8.044   5.236   5.983  1.6295  2.6454 -0.5641
  577ccc     H415548   8.342   5.184   5.942  0.5692  1.0914 -4.0696
  577ccc     H515549   8.189   5.019   6.150 -1.0857 -0.3925  1.5451
  577ccc     O115550   8.001   5.089   6.186  0.5513  0.3778 -0.2369
  577ccc     O215551   8.120   5.061   5.892 -0.7035 -0.1660  0.2329
  577ccc     O315552   8.235   5.338   5.847 -0.2037 -0.4302  0.9621
  577ccc     O415553   8.232   5.445   6.108  0.3786 -0.0029  0.1584
  577ccc     C615554   8.382   5.321   6.321 -0.1894 -0.0878 -0.3405
  577ccc     H615555   8.322   5.371   5.816 -0.4452  0.9683  1.6731
  577ccc     H715556   8.228   5.477   6.016 -0.3506 -2.2220 -0.6263
  577ccc     H815557   8.150   5.094   5.805 -0.8508 -0.8004 -0.0652
  577ccc     H915558   8.308   5.351   6.396 -0.3853  0.8141 -0.8834
  577ccc    H1015559   8.433   5.409   6.278  0.9700 -1.0211 -0.9412
  577ccc     O515560   8.474   5.233   6.384 -0.0232 -0.2184 -0.1847
  577ccc    H1115561   8.418   5.159   6.411  0.0245 -0.6968 -1.3484
  577ccc     O615562   8.194   5.203   6.236  0.4141  0.1180  0.1801
  578ccc     C115563   8.119   4.248   6.895  0.6985  0.6368  0.0210
  578ccc     C215564   8.194   4.351   7.057 -0.1119  0.0196  0.1480
  578ccc     H115565   8.211   4.193   6.873 -0.7687 -1.0148 -2.4159
  578ccc     H215566   8.292   4.301   7.055 -0.3099 -0.3619 -0.4807
  578ccc     C315567   8.249   4.547   7.028 -0.2130 -0.0622  0.1255
  578ccc     C415568   8.241   4.633   6.840  0.6033  0.3739 -0.3397
  578ccc     C515569   8.170   4.515   6.682 -0.2477 -0.4241 -0.8839
  578ccc     H315570   8.202   4.736   6.844  0.5969  0.3186  2.1089
  578ccc     H415571   8.356   4.525   7.027 -0.2967 -0.4539 -0.3475
  578ccc     H515572   8.268   4.501   6.634 -0.1484  0.6505 -1.0080
  578ccc     O115573   8.088   4.576   6.588 -0.0414 -0.5106 -0.6216
  578ccc     O215574   8.370   4.677   6.800 -0.0221  0.2145  0.1469
  578ccc     O315575   8.245   4.636   7.140 -0.1331  0.0947  0.0087
  578ccc     O415576   8.147   4.321   7.186  0.7933  0.1666 -0.5446
  578ccc     C615577   8.061   4.106   6.907  0.6013  0.5182  0.5408
  578ccc     H615578   8.252   4.588   7.224  0.0420 -1.4598 -0.8620
  578ccc     H715579   8.091   4.396   7.212  0.4946  0.8009 -2.8304
  578ccc     H815580   8.420   4.596   6.780 -0.5171  0.2101 -1.2373
  578ccc     H915581   8.051   4.073   7.011 -1.0146  0.1055  0.2788
  578ccc    H1015582   8.125   4.027   6.865 -0.3183 -1.0151  1.8867
  578ccc     O515583   7.931   4.095   6.838  0.1196  0.7496 -0.2270
  578ccc    H1115584   7.953   4.037   6.763  4.0102 -0.7717  1.7877
  578ccc     O615585   8.108   4.331   6.725  0.0109  0.2650 -0.3289
  579ccc     C115586   7.734   5.200   5.775  0.0640  0.1230 -0.3459
  579ccc     C215587   7.872   5.223   5.709 -0.2737 -0.5762 -0.1510
  579ccc     H115588   7.690   5.113   5.724  2.0549 -0.7141 -0.7055
  579ccc     H215589   7.937   5.134   5.707  0.2403 -0.1967 -2.3445
  579ccc     C315590   7.849   5.263   5.562 -0.2244  0.2782  0.0833
  579ccc     C415591   7.736   5.368   5.542 -0.0872  0.2263 -0.2608
  579ccc     C515592   7.604   5.338   5.627  0.0864 -0.5244 -0.3724
  579ccc     H315593   7.768   5.465   5.583 -0.9413  0.9060 -1.1885
  579ccc     H415594   7.814   5.170   5.515 -1.7246  0.5451  0.6224
  579ccc     H515595   7.557   5.246   5.590 -1.1989 -0.2659  0.5768
  579ccc     O115596   7.522   5.467   5.625  0.5317  0.1962 -0.7251
  579ccc     O215597   7.706   5.394   5.406  0.4359 -0.6365  0.8341
  579ccc     O315598   7.973   5.317   5.509 -0.2560  0.2895 -0.5996
  579ccc     O415599   7.937   5.329   5.777 -0.1530  0.0781  0.0548
  579ccc     C615600   7.737   5.162   5.922 -0.3176  0.5983  0.0654
  579ccc     H615601   8.006   5.382   5.573 -1.1750 -0.1394  0.3418
  579ccc     H715602   8.033   5.309   5.770 -0.3306 -1.1409  0.6637
  579ccc     H815603   7.670   5.311   5.370 -0.0800  0.0436 -0.2454
  579ccc     H915604   7.769   5.248   5.983  1.5938  0.0222 -0.0573
  579ccc    H1015605   7.813   5.083   5.933 -0.0548  0.2150 -3.3828
  579ccc     O515606   7.614   5.111   5.954 -0.2038  0.3172  0.2305
  579ccc    H1115607   7.574   5.160   6.028  1.5485 -0.1173  1.5439
  579ccc     O615608   7.652   5.319   5.763  0.1894  0.0533 -0.6612
  580ccc     C115609   7.242   6.570   5.929  0.0655 -0.7462  0.1995
  580ccc     C215610   7.136   6.670   5.883  0.1272  0.4312  0.2333
  580ccc     H115611   7.334   6.629   5.922 -1.0061  1.1464  1.2612
  580ccc     H215612   7.166   6.768   5.923  0.0344  0.9984 -1.0187
  580ccc     C315613   7.143   6.693   5.727  0.2849 -0.9449 -0.1380
  580ccc     C415614   7.156   6.562   5.647 -0.7074  0.8565 -0.1615
  580ccc     C515615   7.270   6.474   5.712 -0.0937  0.6821  0.6843
  580ccc     H315616   7.064   6.504   5.663 -1.6684  2.5305  0.7183
  580ccc     H415617   7.243   6.735   5.708 -0.2015 -0.3874 -1.5842
  580ccc     H515618   7.366   6.526   5.703 -0.0307  0.6023  0.8841
  580ccc     O115619   7.270   6.343   5.639 -0.3769 -0.2693 -0.0511
  580ccc     O215620   7.183   6.592   5.506 -0.0570  0.3337  0.6487
  580ccc     O315621   7.043   6.793   5.677 -0.2636  0.4767  0.2130
  580ccc     O415622   7.004   6.625   5.924  0.3507 -0.5130  0.0713
  580ccc     C615623   7.241   6.545   6.078  0.3999 -0.2524 -0.1520
  580ccc     H615624   7.008   6.761   5.592 -0.3052 -1.9731  1.0862
  580ccc     H715625   6.980   6.692   5.990 -0.3999  1.0648 -1.6955
  580ccc     H815626   7.124   6.542   5.447  2.1391 -1.0330 -0.5429
  580ccc     H915627   7.162   6.470   6.091  1.4401 -1.1590  1.2978
  580ccc    H1015628   7.209   6.636   6.130  1.1859  0.0461 -0.1773
  580ccc     O515629   7.359   6.509   6.129 -0.4788  0.2951 -0.1179
  580ccc    H1115630   7.379   6.420   6.095  2.0599  0.9374 -0.5457
  580ccc     O615631   7.240   6.452   5.849  0.4349 -0.2204 -0.0078
  581ccc     C115632   7.096   7.765   6.352  1.0917  0.6588 -0.0025
  581ccc     C215633   7.058   7.796   6.503  0.0568 -0.7987  0.3570
  581ccc     H115634   7.001   7.765   6.296  1.8684  0.2857 -1.3616
  581ccc     H215635   6.998   7.887   6.510  2.1672  0.6053  1.2775
  581ccc     C315636   6.980   7.672   6.558  0.2716 -0.1972  0.0392
  581ccc     C415637   7.056   7.539   6.528 -0.3783  0.1018 -0.5548
  581ccc     C515638   7.088   7.520   6.384  0.4439 -0.0603  1.6026
  581ccc     H315639   7.158   7.545   6.569  0.2142  2.8942 -2.1987
  581ccc     H415640   6.886   7.672   6.502 -0.9347  2.2388  1.9130
  581ccc     H515641   6.988   7.505   6.342  0.0968 -1.2378  2.7861
  581ccc     O115642   7.172   7.407   6.363 -0.1623  0.5264 -0.4234
  581ccc     O215643   6.969   7.425   6.573 -0.2805 -0.6307 -0.0482
  581ccc     O315644   6.978   7.691   6.702 -0.1712  0.2073  0.1249
  581ccc     O415645   7.173   7.812   6.585 -0.0486  0.3807  0.5028
  581ccc     C615646   7.176   7.869   6.281  0.3803 -0.1477  0.1036
  581ccc     H615647   6.900   7.655   6.746  0.6373  0.0565  1.4854
  581ccc     H715648   7.137   7.791   6.673  2.4016  2.2480  2.1056
  581ccc     H815649   7.006   7.402   6.660 -1.5229 -1.8172  0.1933
  581ccc     H915650   7.117   7.951   6.237  1.2940 -0.4747 -1.8615
  581ccc    H1015651   7.231   7.824   6.197 -0.2382 -0.6552 -0.0374
  581ccc     O515652   7.268   7.915   6.370  0.0554 -0.3684  0.3513
  581ccc    H1115653   7.236   7.865   6.447 -0.4750  0.2110  0.5257
  581ccc     O615654   7.160   7.640   6.332  0.0087  0.4240 -0.0921
  582ccc     C115655   8.298   7.121   6.499  0.8569  0.0632 -0.7050
  582ccc     C215656   8.321   7.216   6.380  0.2006 -0.0628 -0.3092
  582ccc     H115657   8.371   7.040   6.489 -0.6960 -1.8822  2.2528
  582ccc     H215658   8.418   7.267   6.385 -0.6674  1.6506 -0.1827
  582ccc     C315659   8.302   7.140   6.242  0.1310  0.6001  0.4189
  582ccc     C415660   8.163   7.064   6.239  0.6641  0.0921 -0.3874
  582ccc     C515661   8.120   6.999   6.375 -0.1874 -0.0742  0.5561
  582ccc     H315662   8.082   7.134   6.213  0.2760 -0.8047 -1.7006
  582ccc     H415663   8.386   7.069   6.243  0.1667  0.6248 -0.5081
  582ccc     H515664   8.177   6.907   6.383  1.9708  1.2718  1.4986
  582ccc     O115665   7.983   6.967   6.394  0.1953  0.2883  0.0255
  582ccc     O215666   8.171   6.962   6.133  0.1542  0.4881 -0.0061
  582ccc     O315667   8.308   7.227   6.126 -0.2153 -0.3734 -0.0300
  582ccc     O415668   8.214   7.317   6.387 -0.2107 -0.5084  0.0513
  582ccc     C615669   8.317   7.188   6.638 -0.3138  0.2665 -0.0342
  582ccc     H615670   8.387   7.197   6.077  1.3376 -0.2648  2.2268
  582ccc     H715671   8.236   7.384   6.320 -3.2595 -0.5685 -1.1782
  582ccc     H815672   8.169   7.003   6.045 -0.4667 -0.9602 -0.6963
  582ccc     H915673   8.271   7.287   6.630 -1.5619 -0.2818  0.0901
  582ccc    H1015674   8.424   7.197   6.658  0.0158 -1.5640 -0.6932
  582ccc     O515675   8.254   7.101   6.729 -0.1853  0.4836 -0.2648
  582ccc    H1115676   8.163   7.083   6.701 -0.7450  1.6594  0.6928
  582ccc     O615677   8.160   7.079   6.487 -0.3804  0.2012  0.0415
  583ccc     C115678   6.590   5.753   9.647 -0.3094 -0.0568  0.0410
  583ccc     C215679   6.478   5.853   9.603  0.5096 -0.0646  1.1929
  583ccc     H115680   6.618   5.773   9.751 -0.9948 -0.1343  0.2431
  583ccc     H215681   6.389   5.854   9.667 -0.7712 -1.3555 -0.4424
  583ccc     C315682   6.530   6.000   9.598  0.1013 -0.1580 -0.1050
  583ccc     C415683   6.668   6.014   9.525 -0.2331 -0.3654 -0.6009
  583ccc     C515684   6.767   5.903   9.571 -0.1312 -0.0726 -0.2717
  583ccc     H315685   6.646   6.008   9.418 -2.0366 -2.5073 -0.1891
  583ccc     H415686   6.551   6.024   9.703  1.4724  1.0271 -0.6271
  583ccc     H515687   6.804   5.923   9.672  0.3389 -0.6808 -0.3195
  583ccc     O115688   6.879   5.917   9.477 -0.3633 -0.4598  0.5740
  583ccc     O215689   6.711   6.145   9.572  0.1443  0.4022  0.0943
  583ccc     O315690   6.422   6.091   9.556 -0.6478 -0.4058  0.5306
  583ccc     O415691   6.428   5.815   9.476 -0.1401 -0.4759  0.1439
  583ccc     C615692   6.542   5.610   9.651 -0.2883  0.8919  0.0484
  583ccc     H615693   6.430   6.094   9.459 -3.7016 -2.4060  0.0644
  583ccc     H715694   6.451   5.720   9.474  0.9390 -0.3230  2.6422
  583ccc     H815695   6.706   6.190   9.486 -0.1087  2.7824  1.2696
  583ccc     H915696   6.451   5.597   9.710  0.0910 -1.6029  0.1818
  583ccc    H1015697   6.618   5.548   9.701 -0.3281  1.0154  0.2607
  583ccc     O515698   6.501   5.569   9.515  0.1211  0.3396  0.1674
  583ccc    H1115699   6.459   5.483   9.531  1.4485 -0.4581 -0.4952
  583ccc     O615700   6.713   5.772   9.568  0.2885 -0.3819 -0.5015
  584ccc     C115701   6.911   6.480   8.795 -0.0050  0.5879  0.1861
  584ccc     C215702   7.022   6.456   8.692  0.3322  0.5305  0.3772
  584ccc     H115703   6.973   6.496   8.884  0.6932 -0.8178 -0.0093
  584ccc     H215704   7.087   6.544   8.684 -0.7739  1.3405  0.1437
  584ccc     C315705   7.109   6.332   8.720 -0.0137  0.0494 -0.3306
  584ccc     C415706   7.009   6.211   8.741  0.3255  0.0177  0.6196
  584ccc     C515707   6.903   6.237   8.849 -0.0138  0.1282 -0.2990
  584ccc     H315708   6.963   6.185   8.645 -2.0700  1.7756  1.1866
  584ccc     H415709   7.169   6.336   8.812  0.7243 -1.2981 -0.7286
  584ccc     H515710   6.947   6.236   8.950 -1.2670  1.6125  0.2913
  584ccc     O115711   6.805   6.129   8.849 -0.1526 -0.4283  0.1889
  584ccc     O215712   7.088   6.098   8.793  0.4268  0.1121 -0.0016
  584ccc     O315713   7.213   6.309   8.624 -0.1034  0.2259  0.4122
  584ccc     O415714   6.954   6.445   8.568 -0.6079 -0.3034 -0.2229
  584ccc     C615715   6.802   6.587   8.778 -0.3407 -0.2000  0.3533
  584ccc     H615716   7.256   6.228   8.654  0.2374  0.4374  0.4968
  584ccc     H715717   6.881   6.505   8.587 -0.3701 -0.2183  0.4353
  584ccc     H815718   7.039   6.017   8.770  2.8764 -0.7019 -3.0275
  584ccc     H915719   6.841   6.687   8.755  1.5742 -1.1904 -1.0910
  584ccc    H1015720   6.741   6.590   8.869 -0.3581  0.6389  0.3192
  584ccc     O515721   6.717   6.550   8.662  0.1267 -0.9066 -0.0968
  584ccc    H1115722   6.654   6.486   8.699 -3.2090  2.7318  1.2098
  584ccc     O615723   6.833   6.358   8.823 -0.2719 -0.3102  0.2092
  585ccc     C115724   5.905   5.375   7.656 -0.0860 -0.7056 -0.4796
  585ccc     C215725   5.905   5.280   7.536 -0.2402  0.0350 -0.0380
  585ccc     H115726   5.973   5.460   7.643 -1.3107  0.8167  2.1604
  585ccc     H215727   5.887   5.337   7.444 -3.7546 -1.5171 -0.4679
  585ccc     C315728   6.044   5.208   7.521 -0.0671 -0.0995 -0.0804
  585ccc     C415729   6.090   5.140   7.658 -0.3426  0.1339 -0.4119
  585ccc     C515730   6.082   5.244   7.770  0.3178  0.0926  0.2378
  585ccc     H315731   6.025   5.057   7.686  0.1799  0.4329  1.8867
  585ccc     H415732   6.117   5.286   7.500  0.4066 -0.9573 -1.8356
  585ccc     H515733   6.150   5.327   7.746 -1.1725  1.9909  2.1879
  585ccc     O115734   6.114   5.181   7.898 -0.3129 -0.1487 -0.2424
  585ccc     O215735   6.220   5.079   7.644 -0.3886 -0.8952  0.1308
  585ccc     O315736   6.050   5.113   7.414  0.4423  0.0600 -0.5320
  585ccc     O415737   5.799   5.185   7.551  0.0362 -0.2423  0.1966
  585ccc     C615738   5.771   5.446   7.674  0.5158 -1.1832  0.1237
  585ccc     H615739   6.103   5.160   7.347  1.0049 -0.1665 -0.2461
  585ccc     H715740   5.812   5.127   7.474  0.1381  0.1020 -0.0482
  585ccc     H815741   6.263   5.067   7.731  3.0712  0.9759 -1.1150
  585ccc     H915742   5.742   5.498   7.582  0.5590 -0.0148  0.7500
  585ccc    H1015743   5.780   5.531   7.742 -1.9527  1.5082 -2.5792
  585ccc     O515744   5.672   5.348   7.713 -0.1201 -0.7381 -0.2101
  585ccc    H1115745   5.713   5.271   7.671  1.1673  0.5900 -1.5231
  585ccc     O615746   5.945   5.295   7.767  0.7426 -0.2146 -0.4589
  586ccc     C115747   5.812   4.100   8.532  0.0071 -0.1471  0.7014
  586ccc     C215748   5.934   4.022   8.668  0.0536 -0.0048 -0.4799
  586ccc     H115749   5.785   4.015   8.469 -0.2539 -1.5795  2.6647
  586ccc     H215750   5.940   3.915   8.646 -0.1888 -0.1061 -0.0598
  586ccc     C315751   6.131   4.071   8.660 -0.0109  0.4920 -0.4510
  586ccc     C415752   6.199   4.196   8.523  0.6218 -0.0536  0.1253
  586ccc     C515753   6.065   4.280   8.394 -0.4878 -0.1516 -0.1531
  586ccc     H315754   6.253   4.274   8.578  1.6441  0.0055 -0.9354
  586ccc     H415755   6.169   3.971   8.635 -0.1153  0.4678 -0.5139
  586ccc     H515756   6.104   4.249   8.296  1.3857 -1.4292  0.9355
  586ccc     O115757   6.086   4.424   8.387 -0.2480  0.7142  0.9152
  586ccc     O215758   6.313   4.129   8.454 -0.1321 -0.0583  0.0191
  586ccc     O315759   6.185   4.094   8.786 -0.0190  0.0290 -0.2209
  586ccc     O415760   5.877   4.036   8.796 -0.2080  0.8327 -0.0918
  586ccc     C615761   5.670   4.123   8.595  0.1518 -0.1845 -1.0234
  586ccc     H615762   6.278   4.117   8.771 -0.0127 -0.9923 -1.9881
  586ccc     H715763   5.934   3.983   8.854 -0.2164 -0.9201 -1.5849
  586ccc     H815764   6.342   4.188   8.382  0.7384 -1.3384 -0.7282
  586ccc     H915765   5.677   4.196   8.676  0.8137 -0.8455 -0.4654
  586ccc    H1015766   5.640   4.029   8.642 -1.3253  1.7897  2.3468
  586ccc     O515767   5.583   4.158   8.485 -0.4492 -0.1878  1.3800
  586ccc    H1115768   5.496   4.135   8.521 -0.4031 -1.0349  0.9771
  586ccc     O615769   5.883   4.229   8.408 -0.2461  0.7386  0.2067
  587ccc     C115770   7.318   7.618   9.347  0.3007 -0.2879 -0.3057
  587ccc     C215771   7.417   7.681   9.239  0.1029 -0.6098  0.2112
  587ccc     H115772   7.362   7.548   9.420 -3.4208 -1.9985  0.5693
  587ccc     H215773   7.503   7.729   9.288 -1.5763  0.0309  2.7064
  587ccc     C315774   7.479   7.564   9.150  0.1735  0.2716 -0.6617
  587ccc     C415775   7.375   7.460   9.104 -0.0149  0.5679  0.5120
  587ccc     C515776   7.279   7.421   9.215  1.1586  0.0040  0.0143
  587ccc     H315777   7.323   7.496   9.015 -1.0077 -2.9942 -0.5031
  587ccc     H415778   7.551   7.510   9.212  0.3062  0.5087 -0.6113
  587ccc     H515779   7.329   7.360   9.292  0.4845 -0.4838  0.0767
  587ccc     O115780   7.164   7.344   9.157  0.0025  0.2138 -0.0131
  587ccc     O215781   7.444   7.350   9.058 -0.5239 -0.1633 -0.1708
  587ccc     O315782   7.542   7.615   9.035  0.0587 -0.0199  0.2364
  587ccc     O415783   7.344   7.769   9.156  0.0268  0.0950  0.1100
  587ccc     C615784   7.234   7.717   9.434 -0.4065  0.4902  0.0292
  587ccc     H615785   7.606   7.684   9.061  0.7217 -0.3962 -0.3678
  587ccc     H715786   7.410   7.788   9.088  1.7725  1.3907  2.0470
  587ccc     H815787   7.496   7.375   8.980 -0.9483 -0.1471 -0.4475
  587ccc     H915788   7.292   7.803   9.469 -2.7697  1.6760  1.2030
  587ccc    H1015789   7.189   7.661   9.517 -2.8140 -0.2108 -1.6355
  587ccc     O515790   7.125   7.770   9.359 -0.4897  0.3985  0.2774
  587ccc    H1115791   7.139   7.730   9.271  0.3654  2.0681 -0.3704
  587ccc     O615792   7.220   7.538   9.277 -0.4214 -0.5063  0.1939
  588ccc     C115793   7.019   6.472   9.680 -0.3803  1.0070 -0.3563
  588ccc     C215794   7.051   6.579   9.841 -0.6003 -0.2115 -0.9196
  588ccc     H115795   7.098   6.396   9.686 -1.2785 -0.0053 -1.0131
  588ccc     H215796   7.147   6.544   9.880 -0.9446 -0.4637 -0.2711
  588ccc     C315797   7.058   6.783   9.831 -0.7707  0.3903  0.5627
  588ccc     C415798   7.072   6.867   9.645 -0.5369  0.4961 -0.2901
  588ccc     C515799   7.053   6.750   9.489 -0.0855 -0.0370  0.4790
  588ccc     H315800   7.000   6.949   9.641 -0.1054  1.0672  2.1230
  588ccc     H415801   7.147   6.822   9.883 -1.1501  0.2747  1.3107
  588ccc     H515802   7.145   6.761   9.431 -0.3641  2.3971  0.3832
  588ccc     O115803   6.951   6.810   9.403  0.3449 -0.2549  0.2605
  588ccc     O215804   7.182   6.963   9.634  0.0143 -0.1653  0.3068
  588ccc     O315805   6.951   6.839   9.915 -0.2519  0.1100  0.0250
  588ccc     O415806   6.952   6.540   9.942 -0.0673 -0.1283 -0.2449
  588ccc     C615807   6.896   6.379   9.689  0.2603  0.1323  0.1243
  588ccc     H615808   6.963   6.801  10.003  0.3435  0.8355  0.2650
  588ccc     H715809   6.972   6.592  10.021 -0.3719  2.9435 -2.0612
  588ccc     H815810   7.171   7.018   9.713 -3.3309  1.1054 -0.8997
  588ccc     H915811   6.807   6.426   9.646 -0.6058 -1.5394  0.0033
  588ccc    H1015812   6.873   6.353   9.793  1.5849  3.3573  1.3547
  588ccc     O515813   6.935   6.272   9.605 -0.3304 -0.3447 -0.7013
  588ccc    H1115814   6.850   6.225   9.598 -0.4382 -0.3075  0.1528
  588ccc     O615815   7.033   6.565   9.513 -0.2474  0.1520  0.2139
  589ccc     C115816   6.894   7.554   7.702 -0.8875  0.7513  0.4036
  589ccc     C215817   6.963   7.538   7.558 -0.8806  0.1414 -1.0331
  589ccc     H115818   6.971   7.523   7.774  0.5369 -0.5827 -1.6150
  589ccc     H215819   7.063   7.583   7.558 -0.5659 -0.5432 -1.9031
  589ccc     C315820   6.985   7.398   7.515 -0.3816 -0.0033  0.5829
  589ccc     C415821   6.859   7.311   7.540 -0.4329 -0.4918 -0.0543
  589ccc     C515822   6.806   7.327   7.686  0.0195 -0.4724  0.2522
  589ccc     H315823   6.776   7.335   7.472 -1.2960 -2.2819  0.3156
  589ccc     H415824   7.069   7.360   7.574  0.0560  1.6173  1.0490
  589ccc     H515825   6.866   7.285   7.768 -0.0807 -0.6547  0.2331
  589ccc     O115826   6.675   7.269   7.692 -0.3972 -0.3614 -0.2165
  589ccc     O215827   6.896   7.172   7.520 -0.1790  0.2708  0.0636
  589ccc     O315828   7.017   7.408   7.371  0.6370  0.1739 -0.2328
  589ccc     O415829   6.880   7.597   7.463 -0.1371 -0.2608 -0.4682
  589ccc     C615830   6.848   7.696   7.738 -0.5343  0.3186  0.4447
  589ccc     H615831   7.024   7.322   7.326  1.3482 -1.1026  2.1193
  589ccc     H715832   6.913   7.537   7.393  1.6722 -1.9081  1.6324
  589ccc     H815833   6.920   7.170   7.425  0.0306  0.6856  0.1048
  589ccc     H915834   6.752   7.714   7.688 -0.3217 -2.0942 -0.9633
  589ccc    H1015835   6.917   7.778   7.715  0.2388 -0.7303 -1.1016
  589ccc     O515836   6.821   7.687   7.875 -0.1198 -0.4346  0.5787
  589ccc    H1115837   6.793   7.595   7.886  1.9110 -1.0031  1.4912
  589ccc     O615838   6.788   7.464   7.723 -0.5435 -0.8587 -0.4505
  590ccc     C115839   5.637   7.512   7.519 -0.3805  0.3824  0.5092
  590ccc     C215840   5.572   7.616   7.609 -0.1995  0.2831  0.2672
  590ccc     H115841   5.565   7.445   7.470 -0.5315  0.4814  0.5956
  590ccc     H215842   5.487   7.664   7.560  0.3946 -0.0365 -1.1362
  590ccc     C315843   5.538   7.567   7.753 -0.0763 -0.2469  0.2989
  590ccc     C415844   5.638   7.470   7.812 -1.0180  0.6939 -0.2908
  590ccc     C515845   5.684   7.358   7.712  0.0462  0.4785  0.6594
  590ccc     H315846   5.728   7.529   7.837  0.1748 -0.3277 -1.9521
  590ccc     H415847   5.447   7.508   7.733  0.0426 -0.3774  0.1440
  590ccc     H515848   5.603   7.287   7.692 -0.4124  0.5458  2.1664
  590ccc     O115849   5.797   7.288   7.770  0.9487  0.5125  0.0642
  590ccc     O215850   5.584   7.413   7.937 -0.4259  0.5095  0.3324
  590ccc     O315851   5.504   7.677   7.850 -0.8518  0.1268 -0.3951
  590ccc     O415852   5.666   7.724   7.631 -0.0002 -0.2878  0.4668
  590ccc     C615853   5.707   7.582   7.392 -0.4226  0.5042 -0.4410
  590ccc     H615854   5.484   7.628   7.932  0.6515 -0.4132 -0.3290
  590ccc     H715855   5.613   7.776   7.693 -0.9211 -0.4767 -0.1433
  590ccc     H815856   5.654   7.355   7.972 -0.0754  1.4312  1.2094
  590ccc     H915857   5.804   7.626   7.417 -0.8684  1.1164  0.2837
  590ccc    H1015858   5.637   7.657   7.353 -0.4049  0.1462 -1.1705
  590ccc     O515859   5.725   7.485   7.295  0.1684  0.1592 -0.0664
  590ccc    H1115860   5.765   7.411   7.343 -1.7994  0.0231  1.4550
  590ccc     O615861   5.729   7.427   7.594 -0.0465  0.0931 -0.7569
  591ccc     C115862   9.935   6.785   7.728  0.5694  0.6931 -0.4932
  591ccc     C215863   9.912   6.712   7.600  0.0091  0.2818  0.3370
  591ccc     H115864   9.996   6.730   7.801 -1.4990 -0.0987  0.7248
  591ccc     H215865  10.013   6.689   7.563 -1.5314 -1.4066 -3.2088
  591ccc     C315866   9.850   6.572   7.621  0.1828  0.4464 -0.5872
  591ccc     C415867   9.710   6.593   7.699 -0.1205  0.2235  0.5256
  591ccc     C515868   9.734   6.684   7.820  0.0442  0.4191 -0.3620
  591ccc     H315869   9.640   6.651   7.638  1.8202  2.2869  0.1124
  591ccc     H415870   9.909   6.498   7.676  0.8697 -0.6598 -2.7158
  591ccc     H515871   9.790   6.629   7.896 -0.3154  1.3430  0.5904
  591ccc     O115872   9.607   6.720   7.876  0.6713  0.3298 -0.0582
  591ccc     O215873   9.657   6.462   7.732  0.1631  0.0863  0.4760
  591ccc     O315874   9.808   6.524   7.493  0.4736 -0.1338  0.6963
  591ccc     O415875   9.853   6.789   7.495 -0.3450  1.0622 -0.3960
  591ccc     C615876  10.008   6.918   7.705 -0.5990  0.1135 -0.4648
  591ccc     H615877   9.843   6.434   7.486 -0.8254 -0.5242 -2.8534
  591ccc     H715878   9.803   6.721   7.447  0.4290  0.1468  0.0783
  591ccc     H815879   9.626   6.419   7.650  0.2289 -1.1557  1.0746
  591ccc     H915880   9.941   6.984   7.647 -0.9019  1.4724  1.3399
  591ccc    H1015881  10.099   6.898   7.647 -1.5969 -2.5124 -1.2560
  591ccc     O515882  10.042   6.978   7.831  0.0556 -0.1527  0.2648
  591ccc    H1115883   9.952   7.009   7.855  1.2946  2.3171  2.1324
  591ccc     O615884   9.802   6.804   7.785  0.1630 -0.1678 -0.4026
  592ccc     C115885   9.345   7.770   8.473  0.3132  0.3621 -0.1669
  592ccc     C215886   9.318   7.891   8.382  0.4271  0.0830  0.6542
  592ccc     H115887   9.430   7.793   8.539 -0.6871  0.9542  0.9607
  592ccc     H215888   9.302   7.978   8.446  1.2813  1.1839 -0.5693
  592ccc     C315889   9.448   7.917   8.293  0.4359 -0.2608 -0.1881
  592ccc     C415890   9.481   7.793   8.211 -0.3912  0.4021 -0.6931
  592ccc     C515891   9.494   7.667   8.311  0.2524  0.8565  0.0145
  592ccc     H315892   9.389   7.772   8.157 -1.0991  0.0169  0.6227
  592ccc     H415893   9.525   7.944   8.365  0.2943  0.3605 -0.2653
  592ccc     H515894   9.588   7.676   8.367  1.4572  1.7569 -2.0596
  592ccc     O115895   9.488   7.552   8.223  0.3219 -0.3145 -0.2635
  592ccc     O215896   9.601   7.814   8.126 -0.1737 -0.4867  0.2485
  592ccc     O315897   9.420   8.035   8.197  0.4014  0.1452 -0.1792
  592ccc     O415898   9.201   7.882   8.304 -0.3556 -0.7527  0.4232
  592ccc     C615899   9.223   7.743   8.560 -0.1807 -0.0352  0.3355
  592ccc     H615900   9.478   8.027   8.119 -0.4549  2.1311 -1.0976
  592ccc     H715901   9.213   7.957   8.244  1.1522 -1.6977 -0.5434
  592ccc     H815902   9.669   7.836   8.191  0.1540 -1.9829  0.4362
  592ccc     H915903   9.141   7.703   8.499 -0.4478  1.6454 -0.4695
  592ccc    H1015904   9.194   7.837   8.608 -2.3154 -0.1569 -0.6274
  592ccc     O515905   9.266   7.652   8.664 -0.0851 -0.1506  0.6546
  592ccc    H1115906   9.283   7.564   8.626  1.9374  1.5233 -2.8522
  592ccc     O615907   9.379   7.658   8.396 -0.6331 -0.3665  0.2424
  593ccc     C115908   9.872   6.494   6.841  0.9151 -0.4672  0.0616
  593ccc     C215909   9.800   6.395   6.933  0.2579  0.0271  0.0193
  593ccc     H115910   9.944   6.549   6.902  0.5652  1.5883 -1.2654
  593ccc     H215911   9.877   6.334   6.981  2.9505  1.5374 -2.0783
  593ccc     C315912   9.725   6.473   7.043  0.0783 -0.6841 -0.3174
  593ccc     C415913   9.630   6.583   6.988  0.4369 -0.3677  0.2589
  593ccc     C515914   9.698   6.668   6.879  0.0443  0.2633  0.1596
  593ccc     H315915   9.542   6.531   6.949 -1.4138  2.5963  0.1653
  593ccc     H415916   9.803   6.513   7.108 -1.1044  0.0932  0.6697
  593ccc     H515917   9.758   6.744   6.931 -0.8397  2.0329 -1.3083
  593ccc     O115918   9.592   6.744   6.812  0.1650 -0.3847  0.2402
  593ccc     O215919   9.579   6.662   7.101  0.1830 -0.1072  0.6184
  593ccc     O315920   9.651   6.385   7.122 -0.2976 -0.3194  0.1756
  593ccc     O415921   9.706   6.321   6.850 -0.0219  0.2169 -0.5745
  593ccc     C615922   9.955   6.420   6.735 -0.2904  0.4216 -0.1511
  593ccc     H615923   9.704   6.304   7.131  0.0093  0.0058  1.4504
  593ccc     H715924   9.749   6.329   6.763 -0.4043  0.9171 -0.7097
  593ccc     H815925   9.574   6.598   7.174  1.6223  0.3126  1.1225
  593ccc     H915926  10.024   6.344   6.773  0.1835  0.1661 -1.4555
  593ccc    H1015927  10.007   6.501   6.684  0.3663  0.2634  0.2591
  593ccc     O515928   9.851   6.365   6.646 -0.4747  0.4101  0.3965
  593ccc    H1115929   9.885   6.390   6.558  1.4333 -0.8770  0.6924
  593ccc     O615930   9.771   6.588   6.781 -0.8205  0.3864 -0.0656
  594ccc     C115931   8.872   7.451   6.558 -0.4643  0.0574 -0.3024
  594ccc     C215932   8.933   7.601   6.564 -0.8638  0.2443 -0.0750
  594ccc     H115933   8.864   7.402   6.656 -1.0914  1.2586  0.2658
  594ccc     H215934   8.889   7.668   6.640  0.3593  0.6889  0.2597
  594ccc     C315935   9.083   7.587   6.604 -0.5257  0.2648  0.0214
  594ccc     C415936   9.155   7.481   6.516  0.4854  0.8653  0.0093
  594ccc     C515937   9.088   7.341   6.508  0.4731  0.5628  0.2278
  594ccc     H315938   9.143   7.527   6.417  1.4042  0.2376 -0.4182
  594ccc     H415939   9.085   7.548   6.706  0.3585 -1.8584 -0.7432
  594ccc     H515940   9.095   7.292   6.606  1.1998  0.5506  0.1769
  594ccc     O115941   9.160   7.259   6.413  0.7321 -0.5561  0.0109
  594ccc     O215942   9.295   7.470   6.550  0.0215 -0.4158 -0.1501
  594ccc     O315943   9.147   7.716   6.581 -0.1658  0.0245 -0.0869
  594ccc     O415944   8.919   7.660   6.440 -0.0925  0.4224  0.0731
  594ccc     C615945   8.722   7.468   6.512 -0.6996  0.6477  0.1720
  594ccc     H615946   9.165   7.728   6.486  0.3118  1.2529  0.1419
  594ccc     H715947   8.948   7.749   6.466 -0.6919  0.8148 -0.5501
  594ccc     H815948   9.337   7.411   6.486 -2.3762 -1.9771 -0.4019
  594ccc     H915949   8.726   7.473   6.402  2.3222 -1.2384  0.0773
  594ccc    H1015950   8.684   7.561   6.555 -0.5151  0.5270  0.6028
  594ccc     O515951   8.632   7.366   6.557 -0.1471  0.1499 -0.3716
  594ccc    H1115952   8.564   7.420   6.601 -0.0582  0.3472 -0.4710
  594ccc     O615953   8.952   7.363   6.466  0.1420 -0.3450  0.1172
  595ccc     C115954   8.910   4.666   7.558  0.7507 -0.0728  0.0688
  595ccc     C215955   8.839   4.529   7.608 -0.1433  0.1580 -0.1121
  595ccc     H115956   8.940   4.644   7.455 -3.9649 -3.1320 -0.9912
  595ccc     H215957   8.777   4.497   7.523  0.7097  0.0482 -0.7090
  595ccc     C315958   8.942   4.417   7.637 -0.4061  0.0174 -0.5391
  595ccc     C415959   9.055   4.470   7.724  0.7114  0.7965 -0.1303
  595ccc     C515960   9.116   4.609   7.684  0.5794  0.2944  0.0407
  595ccc     H315961   9.023   4.482   7.828  0.4000  1.4662 -0.2995
  595ccc     H415962   8.997   4.396   7.545  2.6486  2.8076  0.4581
  595ccc     H515963   9.176   4.594   7.594  0.1567  0.2685 -0.2378
  595ccc     O115964   9.204   4.657   7.792  0.2673  0.2519 -0.3290
  595ccc     O215965   9.154   4.360   7.733  0.5893 -0.2252  0.3383
  595ccc     O315966   8.882   4.299   7.697  0.2619  0.0356 -0.3037
  595ccc     O415967   8.766   4.553   7.724 -0.1027 -0.1586 -0.5123
  595ccc     C615968   8.795   4.775   7.547 -0.0760 -0.9135 -0.3244
  595ccc     H615969   8.942   4.224   7.679 -0.5460 -0.9498  0.9734
  595ccc     H715970   8.764   4.471   7.777 -0.3927  0.9107  1.2214
  595ccc     H815971   9.207   4.354   7.651 -0.2960 -1.3509 -0.1776
  595ccc     H915972   8.717   4.742   7.477 -1.7668  0.5693  0.7605
  595ccc    H1015973   8.840   4.871   7.517 -0.8054  0.6885  3.2167
  595ccc     O515974   8.733   4.802   7.674 -0.3891  0.3185  0.5402
  595ccc    H1115975   8.736   4.711   7.709 -0.4254 -0.4007 -1.2009
  595ccc     O615976   9.010   4.711   7.648  0.2455 -0.2811  0.1355
  596ccc     C115977  10.027   5.549   8.008 -0.2088 -0.9373 -0.5081
  596ccc     C215978  10.123   5.505   7.901 -0.2205  0.2181  0.2672
  596ccc     H115979  10.080   5.530   8.102 -1.8183 -2.6646  0.1018
  596ccc     H215980  10.223   5.551   7.906 -0.3874  0.4474  2.5921
  596ccc     C315981  10.158   5.354   7.929  0.0391 -0.8403 -0.3460
  596ccc     C415982  10.023   5.271   7.932  0.2078 -0.1879 -0.9053
  596ccc     C515983   9.923   5.330   8.039  0.8528  0.6960 -0.2103
  596ccc     H315984   9.966   5.267   7.838  0.4241 -1.0771 -1.0091
  596ccc     H415985  10.208   5.365   8.026  2.9021 -0.0108 -1.7912
  596ccc     H515986   9.963   5.321   8.141 -1.9378  0.9989  0.9884
  596ccc     O115987   9.798   5.252   8.028 -0.2548  0.6146 -0.4511
  596ccc     O215988  10.054   5.134   7.965  0.1148 -0.4456  0.0904
  596ccc     O315989  10.256   5.297   7.846  0.3608  0.0537 -0.5923
  596ccc     O415990  10.061   5.521   7.775 -0.2166  0.7839 -0.3863
  596ccc     C615991   9.991   5.694   8.002 -0.6280 -0.4567 -0.5551
  596ccc     H615992  10.275   5.215   7.894  1.9401  0.8145  0.1644
  596ccc     H715993  10.134   5.493   7.716  0.4472 -0.7790  1.1005
  596ccc     H815994   9.972   5.091   7.936 -1.3287  2.3666 -0.3470
  596ccc     H915995  10.081   5.756   8.005 -0.5610 -0.6021  2.0502
  596ccc    H1015996   9.926   5.721   8.086 -1.0644  2.3075 -1.6612
  596ccc     O515997   9.922   5.709   7.879 -0.1056 -0.2046 -0.0612
  596ccc    H1115998   9.957   5.629   7.835 -0.2880 -0.4831  0.2876
  596ccc     O615999   9.904   5.466   8.005  0.0783 -0.2057  0.3188
  597ccc     C116000   9.735   4.331   7.536 -0.1617  1.1533  0.0066
  597ccc     C216001   9.656   4.207   7.489  0.7719  0.5401 -0.2602
  597ccc     H116002   9.733   4.327   7.646 -0.5011  0.2678 -0.0231
  597ccc     H216003   9.697   4.121   7.544 -1.1113  0.3745  1.0204
  597ccc     C316004   9.499   4.208   7.530 -0.0984 -0.2935 -0.0589
  597ccc     C416005   9.429   4.338   7.469 -0.1636 -0.5833 -0.4363
  597ccc     C516006   9.516   4.462   7.520 -0.5720 -0.0070 -0.1070
  597ccc     H316007   9.449   4.338   7.361  3.1738 -0.5712  0.0678
  597ccc     H416008   9.489   4.213   7.639  0.6611 -0.7484  0.0410
  597ccc     H516009   9.520   4.477   7.629 -0.1927  2.2741 -0.3836
  597ccc     O116010   9.465   4.590   7.464 -0.0143  0.5365  0.2595
  597ccc     O216011   9.293   4.341   7.513  0.0271 -0.0751  0.1863
  597ccc     O316012   9.426   4.092   7.474  0.1337 -0.0045 -0.8737
  597ccc     O416013   9.666   4.191   7.348  0.5510  0.1542 -0.0840
  597ccc     C616014   9.875   4.350   7.478 -0.1680  0.0821 -0.0070
  597ccc     H616015   9.481   4.012   7.480 -0.4895 -0.3313  0.8875
  597ccc     H716016   9.574   4.188   7.316  0.4900  0.0143  0.0962
  597ccc     H816017   9.246   4.284   7.450  1.4204  0.4382 -1.3736
  597ccc     H916018   9.875   4.368   7.370  1.4226  0.2560 -0.0032
  597ccc    H1016019   9.934   4.259   7.487 -1.7754 -0.9880  0.0707
  597ccc     O516020   9.931   4.461   7.546  0.2264 -0.3475  0.0252
  597ccc    H1116021   9.866   4.532   7.533 -0.4550 -0.6383  1.5784
  597ccc     O616022   9.658   4.448   7.493  0.4409  0.4720  0.2400
  598ccc     C116023   8.938   4.822   6.673 -0.0714 -0.5421  0.4955
  598ccc     C216024   8.793   4.874   6.679 -0.1637  0.7972  0.0535
  598ccc     H116025   8.935   4.731   6.611  0.0587  0.7658 -1.5030
  598ccc     H216026   8.751   4.877   6.577 -1.1297 -0.6836  0.3767
  598ccc     C316027   8.689   4.785   6.753  0.9301 -0.4483 -0.8226
  598ccc     C416028   8.739   4.737   6.891  0.6492  0.1996 -0.9426
  598ccc     C516029   8.889   4.696   6.877  0.0723 -0.0204  0.0237
  598ccc     H316030   8.735   4.827   6.954  1.4302  1.4623 -2.5931
  598ccc     H416031   8.664   4.697   6.692  0.6897  0.0603 -1.4741
  598ccc     H516032   8.886   4.597   6.830  0.3525 -0.5803  1.1490
  598ccc     O116033   8.949   4.673   7.002 -0.0263  0.1698  0.1231
  598ccc     O216034   8.660   4.624   6.944 -0.5793 -0.2273  0.0013
  598ccc     O316035   8.565   4.857   6.774  0.1289 -0.2763 -0.1944
  598ccc     O416036   8.788   4.995   6.743 -0.0188 -0.5478 -0.2897
  598ccc     C616037   9.045   4.916   6.612 -0.0524 -0.1600 -0.3563
  598ccc     H616038   8.490   4.799   6.797  0.0100 -0.0305  0.0442
  598ccc     H716039   8.692   5.000   6.755  0.3430  1.9229  2.8741
  598ccc     H816040   8.581   4.661   6.987 -2.3839 -0.9316 -2.4958
  598ccc     H916041   9.054   5.011   6.667 -0.2162 -0.6406  0.5242
  598ccc    H1016042   9.013   4.942   6.511 -4.4160 -0.6409  0.7000
  598ccc     O516043   9.173   4.849   6.610  0.0631  0.1459 -0.3463
  598ccc    H1116044   9.181   4.811   6.699  2.8406  0.5483 -0.3601
  598ccc     O616045   8.968   4.794   6.814  0.3237  0.5407 -0.0646
  599ccc     C116046   7.946   4.446   7.023 -0.4318  0.7484  0.5617
  599ccc     C216047   8.051   4.480   6.896  0.0397  0.5049 -0.6416
  599ccc     H116048   7.849   4.491   6.998  0.2957  0.9954 -2.1237
  599ccc     H216049   7.975   4.424   6.839 -0.6859  0.4766  0.3351
  599ccc     C316050   7.972   4.631   6.872 -0.3158  0.8891 -0.3782
  599ccc     C416051   7.974   4.723   6.994  0.5469 -0.3311 -0.4825
  599ccc     C516052   7.924   4.659   7.128 -0.1216 -0.2119 -0.7156
  599ccc     H316053   8.070   4.776   7.008  0.4551 -0.0992 -0.7078
  599ccc     H416054   7.867   4.604   6.857  0.2495 -2.4899  0.8021
  599ccc     H516055   7.815   4.660   7.136 -0.0201 -0.6884  1.0879
  599ccc     O116056   7.967   4.735   7.242  0.6598 -0.1332 -0.1092
  599ccc     O216057   7.878   4.828   6.961  0.1164 -0.0062  1.2169
  599ccc     O316058   7.985   4.720   6.759 -0.0262  0.4403  0.1623
  599ccc     O416059   8.270   4.408   6.853  0.0928 -0.1548  0.5751
  599ccc     C616060   7.887   4.309   7.060 -0.0906  0.2419  0.4664
  599ccc     H616061   8.007   4.669   6.679  1.2422  0.9340  0.1754
  599ccc     H716062   8.245   4.324   6.810 -1.6025 -0.0580  1.3047
  599ccc     H816063   7.897   4.833   6.866  1.9920 -0.5672  1.5318
  599ccc     H916064   7.967   4.241   7.090 -0.2857  0.5230  1.6826
  599ccc    H1016065   7.820   4.274   6.981 -0.8983  0.7451  0.9038
  599ccc     O516066   7.803   4.323   7.174 -0.0117 -0.7620  0.0069
  599ccc    H1116067   7.765   4.236   7.194  1.5415 -1.6415 -0.6581
  599ccc     O616068   7.972   4.524   7.144 -0.2462  0.1076  0.6439
  600ccc     C116069   7.185   5.233   7.386 -0.0522 -0.7300 -0.4406
  600ccc     C216070   7.040   5.194   7.339  0.3074 -0.7867 -0.4102
  600ccc     H116071   7.240   5.255   7.294 -1.7055 -1.7962 -1.7280
  600ccc     H216072   7.004   5.271   7.270  1.8047 -1.1159 -1.6312
  600ccc     C316073   7.047   5.061   7.267  0.1518 -0.4661  0.2307
  600ccc     C416074   7.110   4.947   7.346 -0.6116  0.2903 -0.0699
  600ccc     C516075   7.245   4.996   7.402 -0.5518 -0.2614 -0.1357
  600ccc     H316076   7.048   4.932   7.436 -2.2967 -0.4648 -1.2973
  600ccc     H416077   7.109   5.084   7.180 -2.5614 -0.3297 -1.8366
  600ccc     H516078   7.317   4.999   7.320  0.2435 -0.5918  0.5367
  600ccc     O116079   7.291   4.903   7.504 -0.3083 -0.1494  0.2376
  600ccc     O216080   7.110   4.827   7.261 -0.7166 -0.0505  0.3336
  600ccc     O316081   6.916   5.021   7.223  1.1552  0.2635 -0.2507
  600ccc     O416082   6.957   5.188   7.454  0.4104  0.2718 -0.5329
  600ccc     C616083   7.183   5.362   7.476  0.1557  0.6309  0.1168
  600ccc     H616084   6.884   5.077   7.150  1.4637 -1.3176 -1.6401
  600ccc     H716085   6.870   5.159   7.420  0.8172 -0.7500 -0.7214
  600ccc     H816086   7.016   4.823   7.238 -0.6533 -0.1135  0.0856
  600ccc     H916087   7.153   5.320   7.574  0.5260  1.6284  0.6656
  600ccc    H1016088   7.109   5.436   7.445  1.1266  0.8568 -1.7889
  600ccc     O516089   7.308   5.425   7.476 -0.4143 -0.0388  0.1811
  600ccc    H1116090   7.362   5.377   7.411 -1.0904  2.3186 -2.2657
  600ccc     O616091   7.247   5.130   7.464  0.2712  0.0732  0.3042
  601ccc     C116092   5.980   4.254   8.614 -0.1758 -0.3302  0.3382
  601ccc     C216093   5.856   4.364   8.620 -0.1547  0.6061 -0.9908
  601ccc     H116094   5.973   4.221   8.718  1.2182  0.0280  0.5679
  601ccc     H216095   5.759   4.330   8.583 -0.4529  0.3792 -0.0331
  601ccc     C316096   5.835   4.410   8.767  0.0110  0.0032  0.0162
  601ccc     C416097   5.959   4.488   8.823  0.9598  0.3429  0.2120
  601ccc     C516098   6.087   4.412   8.792  0.1865 -0.0402  0.6715
  601ccc     H316099   5.968   4.584   8.770 -0.3588  0.8761  0.8938
  601ccc     H416100   5.815   4.321   8.829 -2.6785 -0.4684 -1.3664
  601ccc     H516101   6.088   4.328   8.863 -1.8043 -0.2859  0.4711
  601ccc     O116102   6.193   4.512   8.808  0.5267 -0.2215  0.0188
  601ccc     O216103   5.935   4.507   8.957  0.0090  0.5290 -0.5977
  601ccc     O316104   5.715   4.495   8.765  0.6624 -0.1220  0.3288
  601ccc     O416105   5.884   4.482   8.548  0.4852  0.1098  0.0344
  601ccc     C616106   6.027   4.053   8.448  0.7655 -0.0290  0.2134
  601ccc     H616107   5.746   4.555   8.695  0.5050 -0.2293  0.1655
  601ccc     H716108   5.939   4.445   8.476 -1.7872 -0.2435 -1.6010
  601ccc     H816109   5.847   4.548   8.958 -1.7714 -2.9303 -0.6583
  601ccc     H916110   5.971   3.958   8.450  1.2250 -0.4331 -2.3373
  601ccc    H1016111   6.125   4.002   8.451  0.6094 -0.3493 -0.0061
  601ccc     O516112   6.025   4.042   8.303  0.2729  0.0410  0.1093
  601ccc    H1116113   5.935   4.077   8.288  0.4535 -0.1123 -1.5811
  601ccc     O616114   6.080   4.362   8.657  0.0937 -0.5780 -0.1093
  602ccc     C116115   6.791   3.966   8.938  0.5139 -0.0849  1.1191
  602ccc     C216116   6.752   3.931   9.081  0.5722  0.4627  0.5423
  602ccc     H116117   6.897   3.946   8.916  0.0755 -0.5761 -0.7482
  602ccc     H216118   6.757   3.823   9.098  0.2166  0.3052 -0.2879
  602ccc     C316119   6.844   4.008   9.178 -0.1291  0.2126 -0.1786
  602ccc     C416120   6.854   4.167   9.154 -0.0271 -0.0006 -0.2533
  602ccc     C516121   6.881   4.180   8.999  0.3094  0.2344 -0.0891
  602ccc     H316122   6.752   4.203   9.169 -0.8074 -1.8130 -0.9575
  602ccc     H416123   6.945   3.967   9.164  0.1297  0.9909 -0.6711
  602ccc     H516124   6.978   4.133   8.982 -0.3411 -1.7141  1.2772
  602ccc     O116125   6.871   4.322   8.965  0.1097  0.1172  0.1130
  602ccc     O216126   6.960   4.229   9.225 -0.5862 -0.4507  0.3433
  602ccc     O316127   6.814   3.982   9.313 -0.3805  0.2500  0.0799
  602ccc     O416128   6.610   3.965   9.100 -0.3739  0.5297 -0.3248
  602ccc     C616129   6.712   3.890   8.827 -0.2262  0.6434 -0.0063
  602ccc     H616130   6.893   3.965   9.367 -2.1038  1.9639  3.4640
  602ccc     H716131   6.580   3.951   9.009  0.5161  0.4066 -0.6058
  602ccc     H816132   6.943   4.226   9.321  1.7845 -3.6377  0.8257
  602ccc     H916133   6.726   3.782   8.837 -1.0644  0.6185  1.0493
  602ccc    H1016134   6.757   3.907   8.728  0.1149  0.2768  0.0837
  602ccc     O516135   6.577   3.927   8.838 -0.5251  0.4214  0.2689
  602ccc    H1116136   6.528   3.902   8.757  0.1516 -1.0437  0.2861
  602ccc     O616137   6.783   4.110   8.922  0.7934 -0.1333  0.0894
  603ccc     C116138   8.887   3.720   7.564  0.2904 -0.2921 -0.1909
  603ccc     C216139   8.964   3.850   7.544 -0.2928 -0.4088  0.2606
  603ccc     H116140   8.780   3.744   7.554  0.0296 -1.0656  0.5755
  603ccc     H216141   8.919   3.890   7.452 -5.3796 -1.8965  1.7175
  603ccc     C316142   8.941   3.955   7.654  0.0675  0.0367 -0.3358
  603ccc     C416143   8.964   3.894   7.797 -0.0412  0.0748 -0.3157
  603ccc     C516144   8.888   3.758   7.802 -0.4957 -0.2564  0.1774
  603ccc     H316145   9.071   3.878   7.814  0.3317  0.2476 -2.2582
  603ccc     H416146   8.835   3.981   7.658  0.3918  1.2350  0.9595
  603ccc     H516147   8.782   3.783   7.790 -0.1607  2.6248  2.2695
  603ccc     O116148   8.913   3.695   7.929  0.2436 -0.2313  0.2724
  603ccc     O216149   8.912   3.982   7.904 -0.1698  0.2618 -0.0028
  603ccc     O316150   9.019   4.077   7.648 -0.3371 -0.3911  0.1882
  603ccc     O416151   9.107   3.825   7.536 -0.2298 -0.2313  0.4097
  603ccc     C616152   8.916   3.611   7.455  1.1000 -0.5171 -0.1374
  603ccc     H616153   9.111   4.056   7.673  0.1252  2.7911  1.5763
  603ccc     H716154   9.137   3.880   7.462 -1.0952  0.6122  0.6649
  603ccc     H816155   8.971   4.058   7.896  1.3764 -0.7531  1.2795
  603ccc     H916156   8.901   3.651   7.354  1.7927  2.1581  0.7270
  603ccc    H1016157   8.838   3.534   7.461 -1.4650  1.9011 -0.1191
  603ccc     O516158   9.044   3.560   7.472  0.0280 -0.5342 -0.4802
  603ccc    H1116159   9.078   3.630   7.530 -0.8965  0.0695 -0.6469
  603ccc     O616160   8.916   3.673   7.692 -0.2057  0.2843 -0.2731
  604ccc     C116161   8.681   3.776   8.915  0.2197 -0.3612  0.2193
  604ccc     C216162   8.745   3.773   9.058  0.2013 -0.4439  0.0682
  604ccc     H116163   8.632   3.678   8.900  0.6739 -0.7201  1.0485
  604ccc     H216164   8.666   3.759   9.134  0.5236 -0.2962  0.4328
  604ccc     C316165   8.851   3.661   9.075  0.4263  0.8314  0.0670
  604ccc     C416166   8.953   3.667   8.958 -0.3097 -0.5448 -0.4005
  604ccc     C516167   8.877   3.680   8.819  0.3630 -0.1543 -0.3570
  604ccc     H316168   9.013   3.758   8.968  1.2700 -1.4901 -0.9422
  604ccc     H416169   8.796   3.567   9.068  0.5853  0.7780 -0.5456
  604ccc     H516170   8.830   3.583   8.797 -1.0350  0.1520  1.1575
  604ccc     O116171   8.982   3.716   8.726  0.5147  0.0559 -0.2607
  604ccc     O216172   9.047   3.558   8.974  0.1163  0.7495  0.7375
  604ccc     O316173   8.919   3.678   9.203  0.1863 -0.3321 -0.5879
  604ccc     O416174   8.800   3.904   9.086  0.5401 -0.3761 -0.0171
  604ccc     C616175   8.566   3.881   8.884 -0.4040  0.4002 -0.5564
  604ccc     H616176   8.994   3.618   9.193  0.0813 -0.8636  1.3682
  604ccc     H716177   8.867   3.903   9.157  0.6337 -1.1628 -0.1130
  604ccc     H816178   9.117   3.571   8.908 -1.5954 -0.8575 -1.5494
  604ccc     H916179   8.503   3.892   8.973 -0.3092  0.2201 -0.4674
  604ccc    H1016180   8.508   3.880   8.791 -0.8459  2.6377 -0.3693
  604ccc     O516181   8.643   3.997   8.873  0.3197 -0.3280 -0.4112
  604ccc    H1116182   8.698   3.997   8.953  1.6526  2.2619 -1.1951
  604ccc     O616183   8.787   3.785   8.820 -0.0631 -0.0535 -0.2187
  605ccc     C116184   7.416   4.203   9.453  0.1168 -0.4046 -0.5935
  605ccc     C216185   7.285   4.224   9.375  0.3716  0.2290  0.1583
  605ccc     H116186   7.443   4.295   9.506 -0.8387  1.0823 -2.6060
  605ccc     H216187   7.211   4.260   9.446  0.3872 -0.3060  0.4522
  605ccc     C316188   7.313   4.334   9.270 -0.9671 -0.1238 -0.3150
  605ccc     C416189   7.446   4.320   9.189  0.2676  0.2634  0.1029
  605ccc     C516190   7.567   4.260   9.273 -0.5405  0.0481  0.3364
  605ccc     H316191   7.420   4.246   9.112 -2.6480 -0.7545  1.9203
  605ccc     H416192   7.317   4.423   9.335 -2.4716  0.9226 -1.5604
  605ccc     H516193   7.626   4.338   9.323 -0.2283 -0.9466  1.5591
  605ccc     O116194   7.643   4.191   9.170 -0.2906  0.2777 -0.3820
  605ccc     O216195   7.484   4.450   9.126 -0.2019 -0.1902  0.1133
  605ccc     O316196   7.197   4.354   9.189  0.7956  0.1345  0.1553
  605ccc     O416197   7.237   4.097   9.321  0.0405 -0.0522 -0.1914
  605ccc     C616198   7.397   4.108   9.570  0.2982  0.0238 -1.0542
  605ccc     H616199   7.135   4.282   9.208  0.3113  0.3601 -0.5137
  605ccc     H716200   7.242   4.098   9.224  0.0930 -1.1532 -0.2063
  605ccc     H816201   7.562   4.440   9.069 -0.9412  0.0613 -0.9974
  605ccc     H916202   7.346   4.013   9.550  1.2343 -0.6971 -0.1341
  605ccc    H1016203   7.327   4.156   9.638 -0.1057 -1.9593  0.0053
  605ccc     O516204   7.519   4.082   9.645 -0.0872 -0.1898 -0.4095
  605ccc    H1116205   7.502   4.141   9.719  0.0297  0.7083 -1.0778
  605ccc     O616206   7.522   4.160   9.370 -0.7772  0.2936  0.2220
  606ccc     C116207   7.821   4.221   9.783  0.1355 -0.5896  0.7489
  606ccc     C216208   7.927   4.232   9.894  0.0582 -0.1230 -0.5024
  606ccc     H116209   7.738   4.166   9.830 -0.6622  0.6245  0.7849
  606ccc     H216210   7.873   4.277   9.978 -1.4789  0.3240 -1.6627
  606ccc     C316211   7.983   4.097   9.940  0.0526 -0.0960  0.3895
  606ccc     C416212   8.018   3.997   9.818  0.2064  0.4990 -0.5234
  606ccc     C516213   7.912   4.003   9.704  0.3768 -0.5833 -0.2465
  606ccc     H316214   8.113   4.036   9.780  0.2859  1.2176  0.3845
  606ccc     H416215   7.897   4.061   9.999 -0.7118 -2.1256 -1.7753
  606ccc     H516216   7.829   3.941   9.738 -0.4734  0.6439 -0.0197
  606ccc     O116217   7.971   3.936   9.589  0.0964  0.7197  0.0531
  606ccc     O216218   8.032   3.861   9.865  0.2992  0.2838  0.1424
  606ccc     O316219   8.095   4.121  10.026 -0.0375  0.0156  0.4056
  606ccc     O416220   8.030   4.317   9.847 -0.2663  0.3164  0.0253
  606ccc     C616221   7.761   4.358   9.728 -0.1561  0.2441 -0.3295
  606ccc     H616222   8.070   4.184  10.096  0.7202 -0.1536  0.8277
  606ccc     H716223   7.971   4.371   9.791 -0.5575  0.2564  0.2714
  606ccc     H816224   8.122   3.873   9.900 -0.5491  3.4727  1.5689
  606ccc     H916225   7.697   4.399   9.808  0.4125 -0.2976  0.4179
  606ccc    H1016226   7.692   4.331   9.647  1.0856 -0.6906 -1.1033
  606ccc     O516227   7.870   4.452   9.700  0.3368 -0.0985  0.0047
  606ccc    H1116228   7.875   4.454   9.603 -0.2199 -1.3413 -0.0614
  606ccc     O616229   7.883   4.145   9.675 -0.0738  0.1045 -0.0856
  607ccc     C116230   9.647   8.453   5.508 -0.5637 -0.1406  0.3308
  607ccc     C216231   9.537   8.348   5.536 -0.2384  0.0408 -0.6445
  607ccc     H116232   9.741   8.417   5.552  0.7850 -0.7141 -2.7900
  607ccc     H216233   9.564   8.242   5.535 -1.5011 -0.2937 -2.1880
  607ccc     C316234   9.486   8.353   5.686 -0.2837  0.3438 -0.0913
  607ccc     C416235   9.465   8.498   5.740  0.3407  0.3415 -0.1040
  607ccc     C516236   9.582   8.597   5.696 -0.2771  0.9220 -0.2702
  607ccc     H316237   9.371   8.531   5.696 -0.7708 -1.1779  0.9981
  607ccc     H416238   9.573   8.322   5.744 -1.3227 -1.8989  0.3735
  607ccc     H516239   9.675   8.569   5.747 -0.2333  2.4136  0.5355
  607ccc     O116240   9.543   8.735   5.722  0.5805  0.3623 -0.6020
  607ccc     O216241   9.439   8.490   5.884  0.1264 -0.3710 -0.3842
  607ccc     O316242   9.373   8.262   5.712 -0.1197 -0.4992  0.1306
  607ccc     O416243   9.428   8.371   5.455 -0.2085 -0.4794 -0.1084
  607ccc     C616244   9.683   8.481   5.363  0.2082  0.9298 -0.6626
  607ccc     H616245   9.319   8.289   5.788 -0.4367 -1.1393  0.1403
  607ccc     H716246   9.363   8.316   5.503  1.9123 -1.2545  2.0602
  607ccc     H816247   9.383   8.568   5.900 -2.1013 -1.8342 -0.5802
  607ccc     H916248   9.713   8.386   5.316  1.3505  0.1102  1.5707
  607ccc    H1016249   9.769   8.549   5.357  0.9797 -0.0336 -0.9415
  607ccc     O516250   9.569   8.523   5.292 -0.2440  0.1250  0.3646
  607ccc    H1116251   9.507   8.489   5.358 -0.1209 -0.3112  0.2568
  607ccc     O616252   9.601   8.582   5.554 -0.0566  0.2219 -0.1512
  608ccc     C116253   9.834   9.559   4.864 -0.0372  0.2990  1.1721
  608ccc     C216254   9.926   9.470   4.773 -0.3598 -0.6004 -0.7189
  608ccc     H116255   9.898   9.638   4.907  0.5047  0.8433 -0.5294
  608ccc     H216256   9.979   9.535   4.703 -1.5233  1.3640  0.1285
  608ccc     C316257  10.041   9.409   4.854 -0.2953 -0.3285  0.3738
  608ccc     C416258   9.976   9.323   4.963 -0.7394  0.3818 -0.1596
  608ccc     C516259   9.867   9.394   5.050 -0.5125  0.0406  0.1959
  608ccc     H316260   9.922   9.237   4.919  0.0287 -1.2807  1.9658
  608ccc     H416261  10.089   9.493   4.906  1.6563 -0.1161 -1.6667
  608ccc     H516262   9.910   9.469   5.116 -0.7090 -0.2061  0.6114
  608ccc     O116263   9.789   9.284   5.118 -0.0504 -0.5599  0.0355
  608ccc     O216264  10.084   9.262   5.042 -0.3128 -0.2041  0.9419
  608ccc     O316265  10.138   9.348   4.766  0.1602  0.0958 -0.6795
  608ccc     O416266   9.858   9.361   4.706 -0.1776 -0.2297 -0.5035
  608ccc     C616267   9.726   9.635   4.785 -0.1324 -0.3594  0.0430
  608ccc     H616268  10.185   9.299   4.836 -1.2295  0.7258  0.7768
  608ccc     H716269   9.930   9.313   4.662  0.6026  0.7481 -0.3253
  608ccc     H816270  10.056   9.171   5.064 -1.0415  0.4845  3.1424
  608ccc     H916271   9.773   9.712   4.723 -0.8766 -1.9990 -2.7120
  608ccc    H1016272   9.646   9.673   4.850 -1.2476 -1.1478 -0.8376
  608ccc     O516273   9.671   9.544   4.693 -0.4026  0.4063 -0.1707
  608ccc    H1116274   9.727   9.466   4.706 -0.7330 -0.9740 -4.8609
  608ccc     O616275   9.778   9.473   4.965 -0.2387 -0.3920 -0.4098
  609ccc     C116276  10.283   9.471   7.441  0.2047  0.8617 -0.3097
  609ccc     C216277  10.175   9.448   7.551  0.3280 -0.2840 -0.4373
  609ccc     H116278  10.274   9.573   7.402 -2.1913  0.3960 -1.1614
  609ccc     H216279  10.195   9.514   7.637 -0.9152 -0.3910 -0.0436
  609ccc     C316280  10.034   9.483   7.491 -0.1373 -0.3702  0.4813
  609ccc     C416281   9.999   9.390   7.367  0.2414  0.3804  0.2879
  609ccc     C516282  10.118   9.401   7.262 -0.0628  0.3677 -0.1351
  609ccc     H316283   9.984   9.289   7.406 -0.1260  0.2820 -0.1094
  609ccc     H416284  10.060   9.586   7.465  0.4634 -0.3805  1.0249
  609ccc     H516285  10.121   9.498   7.212 -0.0781  0.6587  0.4270
  609ccc     O116286  10.099   9.295   7.166 -0.0396 -0.0464  0.2328
  609ccc     O216287   9.876   9.436   7.306  0.1822 -0.1617 -0.0585
  609ccc     O316288   9.944   9.481   7.605 -0.5755 -0.3078  0.3521
  609ccc     O416289  10.180   9.314   7.591 -0.0506  0.5928 -0.2014
  609ccc     C616290  10.421   9.444   7.488 -0.0623  0.4789  0.1912
  609ccc     H616291   9.961   9.565   7.651 -2.0959  0.8074 -1.0317
  609ccc     H716292  10.272   9.301   7.561 -0.5624  0.5478 -1.8840
  609ccc     H816293   9.803   9.399   7.358  1.9202  0.0050  2.6671
  609ccc     H916294  10.452   9.520   7.561  1.0509 -0.2723  0.5517
  609ccc    H1016295  10.493   9.437   7.405 -1.7944 -1.6744 -1.2474
  609ccc     O516296  10.436   9.313   7.548  0.5898 -0.1144  0.0276
  609ccc    H1116297  10.512   9.320   7.608  0.7957  1.4351 -0.3854
  609ccc     O616298  10.246   9.375   7.333 -0.2189  0.0132 -0.6815
  610ccc     C116299  10.242   8.508   7.376  0.8514  0.3421  0.8062
  610ccc     C216300  10.173   8.399   7.464 -0.3323 -0.8329  0.3048
  610ccc     H116301  10.240   8.601   7.434 -0.1057  1.1992 -0.5465
  610ccc     H216302  10.234   8.394   7.554  0.3702 -0.7164 -0.1619
  610ccc     C316303  10.036   8.445   7.506  0.1750 -0.3266  0.1684
  610ccc     C416304   9.955   8.465   7.377 -0.1494  0.5676  0.6361
  610ccc     C516305  10.020   8.568   7.279  0.3321  0.5026  0.4255
  610ccc     H316306   9.959   8.368   7.326  2.7526  2.2456 -2.7776
  610ccc     H416307  10.050   8.539   7.560  0.3559 -0.3482  0.1623
  610ccc     H516308  10.016   8.665   7.329  0.7903  0.7116  0.0664
  610ccc     O116309   9.956   8.561   7.148  0.7464 -0.5892 -0.1096
  610ccc     O216310   9.817   8.509   7.407 -0.0365  0.0623 -0.4501
  610ccc     O316311   9.970   8.352   7.592  1.0644  0.0467  0.1168
  610ccc     O416312  10.178   8.283   7.390 -0.1359  0.2643  0.0556
  610ccc     C616313  10.389   8.468   7.323  0.1939  0.7811 -0.1959
  610ccc     H616314   9.974   8.261   7.558  2.7181 -0.3786  1.3237
  610ccc     H716315  10.260   8.299   7.339 -0.8709  1.4653 -0.7829
  610ccc     H816316   9.798   8.456   7.486 -2.9801 -1.6957 -2.1511
  610ccc     H916317  10.458   8.477   7.408  0.7380  1.8601 -0.7384
  610ccc    H1016318  10.420   8.542   7.248  1.4649  3.2116  2.5378
  610ccc     O516319  10.398   8.342   7.256  0.3747 -0.0343 -0.1850
  610ccc    H1116320  10.367   8.374   7.169 -1.9282  0.4884  0.7529
  610ccc     O616321  10.163   8.537   7.258  0.2054  0.1876  0.3742
  611ccc     C116322   7.437   9.111   7.593  0.2057 -0.7095 -0.1206
  611ccc     C216323   7.419   9.230   7.682  0.1395 -0.2879 -0.3689
  611ccc     H116324   7.545   9.100   7.576  0.1044  0.5801 -1.9431
  611ccc     H216325   7.476   9.232   7.776  1.7173  0.8781 -1.2895
  611ccc     C316326   7.474   9.366   7.624 -0.3659 -0.2484  0.4963
  611ccc     C416327   7.412   9.395   7.482  0.5497  0.1611 -0.6059
  611ccc     C516328   7.427   9.266   7.394 -0.2850  0.9571 -0.0657
  611ccc     H316329   7.305   9.402   7.506  1.1855 -0.1159  2.8482
  611ccc     H416330   7.582   9.353   7.615 -0.2285  0.3231  1.2527
  611ccc     H516331   7.533   9.247   7.371 -0.5671 -0.4713 -0.2525
  611ccc     O116332   7.345   9.278   7.272 -0.0035  0.2724 -0.3598
  611ccc     O216333   7.465   9.516   7.410  0.3786  0.1073 -0.4647
  611ccc     O316334   7.448   9.475   7.715  0.2643  0.0892 -0.1133
  611ccc     O416335   7.278   9.235   7.708 -0.0772 -0.3864 -0.0338
  611ccc     C616336   7.390   8.975   7.644  0.3323  0.2494  0.1494
  611ccc     H616337   7.487   9.557   7.682 -0.7633  1.1713  1.2083
  611ccc     H716338   7.266   9.311   7.767  1.3769 -1.3970  1.6279
  611ccc     H816339   7.408   9.528   7.333  0.4339  3.8584 -0.0968
  611ccc     H916340   7.285   8.981   7.675  0.9877 -0.4527  2.7827
  611ccc    H1016341   7.449   8.939   7.729  1.3663  0.2063 -0.5670
  611ccc     O516342   7.387   8.887   7.531  0.5657  0.1323  0.2233
  611ccc    H1116343   7.304   8.904   7.485 -0.4666 -1.5292  1.3443
  611ccc     O616344   7.379   9.146   7.462 -0.3118 -0.1997  0.1144
  612ccc     C116345   6.387   8.964   6.734  0.2421  0.0325 -0.6447
  612ccc     C216346   6.283   9.060   6.677  0.3632  0.3357 -0.0302
  612ccc     H116347   6.419   8.986   6.836  0.1396  0.5353 -0.7194
  612ccc     H216348   6.202   9.077   6.749  0.4336  0.6944 -0.0322
  612ccc     C316349   6.348   9.197   6.634 -0.3291 -0.7839 -0.2518
  612ccc     C416350   6.484   9.170   6.561  0.2822  0.5281  0.0444
  612ccc     C516351   6.575   9.070   6.632  0.0674 -0.2124  0.0644
  612ccc     H316352   6.457   9.120   6.467  2.1198  0.0247 -0.2458
  612ccc     H416353   6.380   9.254   6.722 -2.5352  3.3959 -1.8530
  612ccc     H516354   6.598   9.120   6.726  3.1250 -1.9160  0.3317
  612ccc     O116355   6.687   9.036   6.545 -0.5778  1.0105 -0.1101
  612ccc     O216356   6.553   9.297   6.539  0.0756 -0.4784 -0.3445
  612ccc     O316357   6.259   9.288   6.569 -0.3276  0.2013 -0.7155
  612ccc     O416358   6.237   8.996   6.564 -0.4928  0.1494 -0.0419
  612ccc     C616359   6.314   8.825   6.777 -0.0357 -0.2268 -0.3598
  612ccc     H616360   6.177   9.288   6.623 -0.4918 -0.6945 -0.9524
  612ccc     H716361   6.149   9.032   6.544 -0.0180  0.7671 -1.1512
  612ccc     H816362   6.489   9.352   6.490  0.2629  1.1701  1.1748
  612ccc     H916363   6.219   8.848   6.826  0.8605 -1.2411  2.0070
  612ccc    H1016364   6.373   8.773   6.854 -0.6940 -1.4374 -0.6512
  612ccc     O516365   6.296   8.743   6.663  0.3910 -0.4542 -0.1946
  612ccc    H1116366   6.274   8.653   6.692  0.0191 -0.0865  0.6889
  612ccc     O616367   6.501   8.953   6.649  0.2735 -0.0647 -0.7807
  613ccc     C116368   7.979   8.583   8.120 -0.0989 -0.1118 -0.0875
  613ccc     C216369   8.054   8.595   8.252  0.6288  0.5077  0.4118
  613ccc     H116370   7.988   8.477   8.092  0.8500  0.2503 -1.2402
  613ccc     H216371   7.998   8.527   8.318 -1.4467  1.0766 -0.6695
  613ccc     C316372   8.195   8.543   8.227 -0.6007  0.1571  0.6434
  613ccc     C416373   8.268   8.619   8.116  0.4749 -0.1551  0.0903
  613ccc     C516374   8.178   8.629   7.985  0.1513  0.1091  0.2055
  613ccc     H316375   8.279   8.722   8.152 -0.0581 -0.4918  1.2687
  613ccc     H416376   8.179   8.442   8.187 -2.0771  0.3949  0.5737
  613ccc     H516377   8.174   8.530   7.938  2.5143 -0.7310  1.5933
  613ccc     O116378   8.239   8.730   7.903 -0.9857  0.0176  0.6367
  613ccc     O216379   8.401   8.567   8.089 -0.2236  0.1551 -0.4076
  613ccc     O316380   8.264   8.531   8.353 -0.3180  0.3601 -0.3309
  613ccc     O416381   8.038   8.728   8.292  0.1520  0.0360 -0.6423
  613ccc     C616382   7.836   8.636   8.122 -0.1722 -0.6948  0.9235
  613ccc     H616383   8.334   8.464   8.342  0.0290  0.4714  0.9743
  613ccc     H716384   8.046   8.732   8.389 -2.3250  1.7536 -0.4216
  613ccc     H816385   8.446   8.584   8.173 -0.4230 -1.2493  0.0172
  613ccc     H916386   7.844   8.744   8.109 -0.4002 -1.0540 -3.7864
  613ccc    H1016387   7.790   8.598   8.214 -1.0300 -0.0312  0.7818
  613ccc     O516388   7.770   8.586   8.009  0.1519 -0.0786 -0.5939
  613ccc    H1116389   7.804   8.494   8.012  0.0806 -0.0800  1.3855
  613ccc     O616390   8.046   8.668   8.022 -0.0060  0.2538  0.1156
  614ccc     C116391   8.234   9.543   7.298  0.5143  0.3749  0.5609
  614ccc     C216392   8.361   9.489   7.231  0.6128 -0.7792  0.0042
  614ccc     H116393   8.255   9.651   7.302 -0.8338  0.8703 -2.4760
  614ccc     H216394   8.388   9.569   7.161 -2.1087 -0.0576 -0.3468
  614ccc     C316395   8.480   9.489   7.322 -0.4194 -0.3737  0.2343
  614ccc     C416396   8.459   9.433   7.462 -0.1168 -0.8011  0.0912
  614ccc     C516397   8.324   9.483   7.524  0.3423 -0.5104 -0.3107
  614ccc     H316398   8.441   9.324   7.457  2.3502 -1.2362 -0.3763
  614ccc     H416399   8.495   9.597   7.341  0.1029 -0.4033 -0.0116
  614ccc     H516400   8.327   9.588   7.556  0.1309  0.0359 -2.0103
  614ccc     O116401   8.298   9.395   7.640 -0.5606  0.2142 -0.8037
  614ccc     O216402   8.572   9.461   7.547  0.5161 -0.8250 -0.0823
  614ccc     O316403   8.601   9.424   7.263 -0.0732  0.1684  0.8970
  614ccc     O416404   8.336   9.357   7.179 -0.0578 -0.3010  0.7577
  614ccc     C616405   8.102   9.527   7.220 -0.2305  0.1921  0.4012
  614ccc     H616406   8.665   9.422   7.337  0.5350 -0.5546  0.3600
  614ccc     H716407   8.238   9.355   7.183 -0.1308 -4.6927  1.4678
  614ccc     H816408   8.534   9.439   7.634 -0.6118 -2.6251 -0.9718
  614ccc     H916409   8.118   9.604   7.144  2.3581  1.0351  1.6538
  614ccc    H1016410   8.023   9.552   7.292  1.1294  2.0587  1.3537
  614ccc     O516411   8.076   9.397   7.159  0.1051  0.1276 -0.7086
  614ccc    H1116412   7.979   9.393   7.163 -0.0144 -0.2513 -2.7841
  614ccc     O616413   8.215   9.478   7.428  0.0528 -0.0482  0.6940
  615ccc     C116414   7.816   6.631   6.106  0.5746  0.5582  0.2602
  615ccc     C216415   7.882   6.614   5.962  0.6994  0.7240 -0.0496
  615ccc     H116416   7.795   6.737   6.118  0.3306  0.7457 -1.5518
  615ccc     H216417   7.831   6.669   5.882 -1.9336 -1.0997  0.2821
  615ccc     C316418   8.021   6.680   5.967  0.0892  0.1900  0.0274
  615ccc     C416419   8.106   6.619   6.082  0.6354 -0.1321  0.9843
  615ccc     C516420   8.036   6.650   6.219 -0.6544 -0.3128  0.6703
  615ccc     H316421   8.116   6.511   6.070 -1.2919 -0.6025  2.8844
  615ccc     H416422   8.013   6.785   5.995 -1.0334 -0.5443  2.8058
  615ccc     H516423   8.036   6.760   6.225  2.7642  0.0590 -2.1599
  615ccc     O116424   8.109   6.601   6.335 -0.2856 -0.3353 -0.0269
  615ccc     O216425   8.239   6.679   6.079 -0.0709 -0.2441 -0.6070
  615ccc     O316426   8.080   6.663   5.831  0.1014 -0.5019  0.1924
  615ccc     O416427   7.887   6.475   5.932 -0.4026 -0.3273  0.4657
  615ccc     C616428   7.679   6.560   6.115 -0.0094 -0.3279  0.0559
  615ccc     H616429   8.175   6.681   5.844  0.3114 -1.3288 -0.1458
  615ccc     H716430   7.975   6.461   5.892 -0.1072  2.5450 -0.1122
  615ccc     H816431   8.233   6.773   6.104  1.2911  0.0101 -1.1416
  615ccc     H916432   7.689   6.456   6.147  1.0440 -0.1164  0.4266
  615ccc    H1016433   7.630   6.560   6.016  0.0301 -0.1655  0.0361
  615ccc     O516434   7.594   6.633   6.205  0.0220  0.1638  0.2217
  615ccc    H1116435   7.508   6.589   6.191 -0.8086  1.7350  0.1483
  615ccc     O616436   7.908   6.589   6.214 -0.4405  0.1709  0.0391
  616ccc     C116437   8.683   6.121   6.943  0.6013 -0.1183  0.4940
  616ccc     C216438   8.831   6.111   6.969 -0.0600 -0.0865 -0.9143
  616ccc     H116439   8.658   6.082   6.844 -0.2214 -1.7160  1.2970
  616ccc     H216440   8.858   6.005   6.965 -1.1674 -0.5445  1.6899
  616ccc     C316441   8.911   6.203   6.869 -0.1793  0.1455 -0.0096
  616ccc     C416442   8.864   6.350   6.872  0.3961 -0.4933  0.3107
  616ccc     C516443   8.705   6.351   6.859 -0.9232 -0.2271  0.1733
  616ccc     H316444   8.885   6.396   6.970  1.5905  0.4557 -0.3643
  616ccc     H416445   8.894   6.161   6.769  1.1874  0.0733 -0.2412
  616ccc     H516446   8.680   6.328   6.754 -0.6358  0.5143 -0.0666
  616ccc     O116447   8.667   6.489   6.887  0.1299  0.2442  0.7504
  616ccc     O216448   8.931   6.420   6.770 -0.0510 -0.4966 -0.1239
  616ccc     O316449   9.054   6.185   6.893 -0.2580 -0.4669 -0.6937
  616ccc     O416450   8.851   6.160   7.100 -0.0014 -0.0869  0.5130
  616ccc     C616451   8.603   6.049   7.056  0.4616  0.0087  0.1779
  616ccc     H616452   9.079   6.238   6.971  1.1239 -0.5893 -1.0311
  616ccc     H716453   8.915   6.103   7.146 -0.1576 -0.7239 -0.0442
  616ccc     H816454   9.022   6.431   6.804 -0.6996  1.8804  1.0950
  616ccc     H916455   8.579   6.109   7.144 -1.5154 -1.2223  0.5593
  616ccc    H1016456   8.663   5.966   7.095 -1.5554 -2.2962 -1.2277
  616ccc     O516457   8.481   6.001   7.001  0.4323 -0.5144 -0.8117
  616ccc    H1116458   8.425   5.966   7.071  0.2852  0.5603 -0.3689
  616ccc     O616459   8.641   6.260   6.948  0.6959  0.1651 -0.1721
  617ccc     C116460   9.288   7.856   5.364  0.0922 -0.2316  0.1602
  617ccc     C216461   9.403   7.761   5.413 -0.6166 -0.0813  0.2169
  617ccc     H116462   9.255   7.904   5.457 -1.8649 -0.8682 -0.1605
  617ccc     H216463   9.482   7.823   5.458  0.9675 -0.6180 -1.6665
  617ccc     C316464   9.347   7.653   5.511  0.0339 -0.8260  1.0655
  617ccc     C416465   9.223   7.581   5.445 -0.0094  0.4959 -0.3284
  617ccc     C516466   9.121   7.681   5.390 -0.1899 -0.3440 -1.1749
  617ccc     H316467   9.262   7.523   5.361 -0.4201  0.0466 -0.2139
  617ccc     H416468   9.310   7.709   5.598 -1.7735  1.1622 -0.8698
  617ccc     H516469   9.077   7.736   5.474  0.8048  1.1496 -1.5836
  617ccc     O116470   9.022   7.599   5.323 -0.2025 -0.4403 -0.4053
  617ccc     O216471   9.166   7.493   5.541 -0.5482  0.2051 -0.0218
  617ccc     O316472   9.456   7.566   5.536 -1.3283  0.0357 -0.3012
  617ccc     O416473   9.457   7.699   5.294  0.4157  0.2530 -0.0749
  617ccc     C616474   9.328   7.967   5.266  0.0471  0.1934  0.0997
  617ccc     H616475   9.496   7.557   5.448  1.8362 -3.8126  1.2110
  617ccc     H716476   9.438   7.767   5.226 -2.2923 -0.8592 -0.5468
  617ccc     H816477   9.169   7.409   5.491 -1.5779  2.1905 -3.7384
  617ccc     H916478   9.397   8.044   5.301 -0.4522  1.0055 -0.6597
  617ccc    H1016479   9.234   8.016   5.234 -1.6067 -0.4279  3.5212
  617ccc     O516480   9.373   7.905   5.147  0.2451 -0.0582 -0.0975
  617ccc    H1116481   9.382   7.985   5.091 -2.1089  1.0267  0.9253
  617ccc     O616482   9.178   7.783   5.307 -0.7480  0.1047 -0.0362
  618ccc     C116483   7.989   7.357   5.533 -0.6990  0.7099 -1.0089
  618ccc     C216484   7.857   7.355   5.460  0.0114  0.3971  0.2489
  618ccc     H116485   7.977   7.434   5.610 -0.6683  0.7175 -1.0118
  618ccc     H216486   7.777   7.333   5.531  0.1558 -0.4831  0.1517
  618ccc     C316487   7.833   7.489   5.387  0.3644  0.0775 -0.0152
  618ccc     C416488   7.963   7.526   5.301 -0.1372  0.9122 -0.1986
  618ccc     C516489   8.094   7.514   5.380 -0.3633 -0.2087 -0.1837
  618ccc     H316490   7.969   7.455   5.217  0.6745 -1.6763  1.9045
  618ccc     H416491   7.823   7.573   5.457 -2.5836  0.1259 -0.3637
  618ccc     H516492   8.091   7.602   5.445 -0.3103 -1.6347  1.8588
  618ccc     O116493   8.198   7.515   5.288 -0.1146 -0.2674  0.0640
  618ccc     O216494   7.957   7.662   5.259  0.4810  0.6344  0.0902
  618ccc     O316495   7.710   7.482   5.308  0.7321  0.4847  0.3094
  618ccc     O416496   7.856   7.255   5.363  0.2142 -0.2369  0.0420
  618ccc     C616497   8.027   7.222   5.608 -0.0315 -0.4810 -0.3908
  618ccc     H616498   7.645   7.432   5.361  0.4458 -0.0378 -0.5070
  618ccc     H716499   7.766   7.251   5.325  0.9105 -2.1143 -1.5948
  618ccc     H816500   8.046   7.668   5.220  0.2683  2.7471 -0.2235
  618ccc     H916501   8.049   7.135   5.545 -0.9341 -3.0566  2.6141
  618ccc    H1016502   7.940   7.200   5.672  0.9968 -0.5706  1.0150
  618ccc     O516503   8.134   7.249   5.691  0.5833 -0.4026 -0.0259
  618ccc    H1116504   8.209   7.229   5.632  1.0886  0.3653  0.3373
  618ccc     O616505   8.099   7.383   5.444 -0.1809  0.1557  0.2347
  619ccc     C116506   7.881   8.309   7.379  0.1169  0.1059 -0.3508
  619ccc     C216507   7.977   8.232   7.472  0.1594  0.2593 -0.1029
  619ccc     H116508   7.830   8.381   7.445 -2.5526 -3.2976  1.6288
  619ccc     H216509   8.038   8.303   7.530 -3.2873  3.0615  0.4259
  619ccc     C316510   7.898   8.151   7.579 -0.6546 -0.0431  0.5619
  619ccc     C416511   7.794   8.063   7.511 -0.6298 -0.5234 -0.1527
  619ccc     C516512   7.700   8.156   7.428 -0.1821  0.6469  0.8120
  619ccc     H316513   7.845   7.994   7.443  0.2229  2.0565 -2.3229
  619ccc     H416514   7.852   8.233   7.636  2.4506  3.3770 -1.4385
  619ccc     H516515   7.647   8.227   7.492 -0.1674  0.7164  0.7474
  619ccc     O116516   7.611   8.059   7.367 -0.2740  0.3170  0.1830
  619ccc     O216517   7.723   7.999   7.619 -0.1015  0.4096 -0.3450
  619ccc     O316518   7.986   8.080   7.667 -0.2110 -0.0262  0.4775
  619ccc     O416519   8.056   8.142   7.392 -0.3906 -0.3390  0.4922
  619ccc     C616520   7.960   8.368   7.262  0.2401 -0.0929  0.1342
  619ccc     H616521   7.980   7.986   7.643 -1.9672  0.1037  0.2563
  619ccc     H716522   8.135   8.136   7.447 -0.8241  0.7385  1.2617
  619ccc     H816523   7.681   7.917   7.588 -2.0560  1.7166 -1.4673
  619ccc     H916524   7.969   8.302   7.174  1.2728 -0.3701  0.4437
  619ccc    H1016525   8.062   8.396   7.289  0.8746 -1.4587 -0.7426
  619ccc     O516526   7.879   8.481   7.229  0.2937  0.4263  0.9023
  619ccc    H1116527   7.818   8.486   7.305 -0.1644 -3.0004  0.8840
  619ccc     O616528   7.777   8.223   7.328 -0.6552 -0.0761 -0.7346
  620ccc     C116529   6.685   7.773   7.192  0.2460  0.0210 -0.0186
  620ccc     C216530   6.568   7.750   7.091  0.1043  0.2357 -1.1425
  620ccc     H116531   6.721   7.875   7.174  1.8147 -0.3791  0.6507
  620ccc     H216532   6.502   7.837   7.091  0.8342  0.8840  1.6786
  620ccc     C316533   6.618   7.715   6.949  1.1735 -0.4339 -0.2935
  620ccc     C416534   6.730   7.615   6.953 -0.6907  0.1820 -0.8480
  620ccc     C516535   6.852   7.672   7.031 -0.3678  0.1385  0.2240
  620ccc     H316536   6.688   7.528   7.004 -0.2411 -0.2784 -1.2440
  620ccc     H416537   6.650   7.809   6.903  0.9786 -0.1764  0.0887
  620ccc     H516538   6.890   7.773   7.011  1.7582 -0.8483 -1.1139
  620ccc     O116539   6.968   7.576   7.023 -0.0969  0.2004  0.0861
  620ccc     O216540   6.770   7.591   6.818  0.3357 -0.0173  0.4088
  620ccc     O316541   6.502   7.663   6.872  0.4295 -0.2528  0.2233
  620ccc     O416542   6.494   7.636   7.130  0.0817  0.1858  0.3874
  620ccc     C616543   6.643   7.769   7.339  0.0124 -0.0295  0.3986
  620ccc     H616544   6.543   7.654   6.784 -0.0073 -0.0856  0.0041
  620ccc     H716545   6.466   7.614   7.040  1.7743 -1.7937  0.2999
  620ccc     H816546   6.719   7.513   6.790  1.1987 -0.3883 -0.1937
  620ccc     H916547   6.623   7.664   7.363  0.3948  0.1261  1.4364
  620ccc    H1016548   6.544   7.816   7.342 -0.3995 -0.8274 -0.2614
  620ccc     O516549   6.746   7.827   7.420 -0.3038 -0.5530 -0.8207
  620ccc    H1116550   6.804   7.749   7.424 -2.4021 -2.1836  0.4906
  620ccc     O616551   6.795   7.678   7.167  0.3009  0.2373  0.0723
  621ccc     C116552   7.283   7.243   5.126  0.6727 -0.0894 -0.1864
  621ccc     C216553   7.420   7.171   5.134 -0.7055 -0.6088  0.7007
  621ccc     H116554   7.294   7.340   5.076 -0.1591 -0.2024 -0.6046
  621ccc     H216555   7.468   7.172   5.035  0.2169  1.6212  1.1144
  621ccc     C316556   7.517   7.252   5.228  0.2554  0.3315  0.0706
  621ccc     C416557   7.446   7.276   5.364 -0.8516  0.4292 -0.0920
  621ccc     C516558   7.309   7.355   5.344 -0.5805  0.7808  0.0777
  621ccc     H316559   7.412   7.177   5.396  1.2914  0.3966  2.3581
  621ccc     H416560   7.535   7.347   5.177  0.5481  0.1823 -0.1006
  621ccc     H516561   7.335   7.451   5.298 -1.1921  0.2436 -1.4464
  621ccc     O116562   7.250   7.372   5.470  0.2935  0.4463 -0.1606
  621ccc     O216563   7.542   7.334   5.459 -0.0390 -0.1947  0.6584
  621ccc     O316564   7.634   7.180   5.250 -0.0112  0.2418  0.8695
  621ccc     O416565   7.393   7.042   5.182 -0.0710  0.4475  0.4130
  621ccc     C616566   7.176   7.165   5.039  0.0241 -0.0110 -0.1334
  621ccc     H616567   7.614   7.085   5.252  0.2047  0.0893 -1.5592
  621ccc     H716568   7.296   7.037   5.175 -0.2069  3.2000 -1.0348
  621ccc     H816569   7.571   7.262   5.518 -1.0593  0.7333  2.3944
  621ccc     H916570   7.225   7.141   4.944  0.5547  2.7451 -0.6489
  621ccc    H1016571   7.084   7.220   5.014 -0.7119 -0.5137  1.3819
  621ccc     O516572   7.134   7.059   5.122 -0.2428 -0.4888  0.5273
  621ccc    H1116573   7.063   7.019   5.069 -0.6126 -0.6751  1.1651
  621ccc     O616574   7.224   7.275   5.255  0.1656  0.2872 -0.6041
  622ccc     C116575   6.656   7.123   6.254  0.4706 -0.2991 -0.4233
  622ccc     C216576   6.529   7.166   6.342 -0.4499  0.0418 -0.3039
  622ccc     H116577   6.727   7.080   6.326 -0.7239  0.9625  1.6112
  622ccc     H216578   6.490   7.074   6.387  1.3990  0.2056  1.8060
  622ccc     C316579   6.579   7.267   6.450  0.9721  0.2368  0.1860
  622ccc     C416580   6.637   7.396   6.377  0.3195  0.4297  0.6439
  622ccc     C516581   6.754   7.346   6.283  0.2832 -0.1228  0.2901
  622ccc     H316582   6.566   7.435   6.303 -1.0338 -0.5702  1.3773
  622ccc     H416583   6.659   7.214   6.502  0.4998 -1.4677 -0.7393
  622ccc     H516584   6.837   7.306   6.342  1.8210 -0.0742 -1.7086
  622ccc     O116585   6.802   7.452   6.200 -0.3602 -0.9265 -0.7736
  622ccc     O216586   6.684   7.494   6.471 -0.1117  0.2389 -0.1786
  622ccc     O316587   6.468   7.300   6.538 -0.4862  0.1690 -0.4372
  622ccc     O416588   6.427   7.224   6.260  0.2829  0.0333  0.4971
  622ccc     C616589   6.624   7.024   6.142  0.2786  0.1959 -0.5716
  622ccc     H616590   6.418   7.366   6.488 -0.8042 -1.5259 -2.5379
  622ccc     H716591   6.340   7.195   6.292 -0.1067 -0.7097 -1.1433
  622ccc     H816592   6.763   7.461   6.516  0.8591  2.4276 -0.1591
  622ccc     H916593   6.561   7.074   6.068 -0.0886 -0.8003 -0.9450
  622ccc    H1016594   6.571   6.940   6.187 -0.9153  2.2528  2.1543
  622ccc     O516595   6.752   6.981   6.096 -0.0036  0.1001 -0.3666
  622ccc    H1116596   6.771   7.049   6.029 -2.6763 -0.0660 -1.4354
  622ccc     O616597   6.716   7.245   6.195 -0.0569 -0.2645  0.0517
  623ccc     C116598  10.398   5.872   7.583  0.1824  0.2913 -0.0008
  623ccc     C216599  10.351   5.731   7.622 -0.0059  0.1388 -0.3081
  623ccc     H116600  10.397   5.883   7.474  1.2664 -0.5895 -0.1150
  623ccc     H216601  10.253   5.705   7.581  0.0704 -0.7882  0.0660
  623ccc     C316602  10.442   5.614   7.566 -0.0869 -0.5560 -0.4532
  623ccc     C416603  10.582   5.637   7.624 -0.0984 -0.2084 -1.0144
  623ccc     C516604  10.634   5.776   7.583 -0.5154 -0.6697 -0.0036
  623ccc     H316605  10.580   5.624   7.733  0.2318  2.1127 -0.6726
  623ccc     H416606  10.442   5.641   7.459  0.7626  0.2305 -0.2697
  623ccc     H516607  10.642   5.773   7.474  0.4620 -2.3714  0.0832
  623ccc     O116608  10.772   5.805   7.630  0.1416  0.1492 -0.6271
  623ccc     O216609  10.669   5.546   7.571  0.0026 -0.2371 -0.1278
  623ccc     O316610  10.387   5.487   7.594  0.7570  0.2320 -0.0151
  623ccc     O416611  10.362   5.736   7.763 -0.0563  0.1176 -0.0569
  623ccc     C616612  10.308   5.987   7.632 -0.0854 -0.1267 -0.7535
  623ccc     H616613  10.445   5.445   7.660 -0.6140 -0.6231  0.6679
  623ccc     H716614  10.329   5.827   7.774 -0.9745 -0.3930  2.0122
  623ccc     H816615  10.755   5.551   7.616  0.8702  0.0344 -1.7394
  623ccc     H916616  10.211   5.983   7.580  0.0863 -0.2646 -1.0681
  623ccc    H1016617  10.357   6.084   7.614  1.4181 -0.9161 -1.1380
  623ccc     O516618  10.294   5.988   7.774  0.3245  0.4392  0.3928
  623ccc    H1116619  10.247   6.070   7.795  3.0679  1.9651  1.0232
  623ccc     O616620  10.540   5.889   7.619  0.5181  0.0556  0.5391
  624ccc     C116621  11.787   6.430   7.839 -0.2051 -0.1437  0.9838
  624ccc     C216622  11.800   6.577   7.790  0.6054 -0.0828  0.8436
  624ccc     H116623  11.818   6.369   7.752 -2.4520 -1.6897  1.1716
  624ccc     H216624  11.903   6.605   7.761 -0.8606  1.9321 -3.1282
  624ccc     C316625  11.710   6.591   7.665 -0.4525 -1.3375  0.0104
  624ccc     C416626  11.568   6.562   7.705  0.7821 -0.8139  0.5188
  624ccc     C516627  11.555   6.414   7.758 -0.3160 -0.2505  0.1213
  624ccc     H316628  11.542   6.631   7.787  0.3911  2.0641 -1.8769
  624ccc     H416629  11.751   6.517   7.595  0.6924 -0.4874 -0.2517
  624ccc     H516630  11.594   6.356   7.674 -2.2387  2.5361 -2.9311
  624ccc     O116631  11.415   6.396   7.803 -0.3136  0.4096 -0.0305
  624ccc     O216632  11.472   6.582   7.598  0.0467  0.0176 -0.4683
  624ccc     O316633  11.729   6.738   7.623 -0.7582 -0.2459  0.3293
  624ccc     O416634  11.749   6.657   7.898 -0.3546 -0.5144 -0.2293
  624ccc     C616635  11.871   6.395   7.963 -0.1682 -0.6963 -0.8351
  624ccc     H616636  11.677   6.774   7.697 -2.3815 -3.1292  0.7026
  624ccc     H716637  11.820   6.722   7.909  0.3769 -1.5719  1.8427
  624ccc     H816638  11.387   6.599   7.641 -0.5514 -0.1280 -1.5571
  624ccc     H916639  11.815   6.415   8.055 -1.6424 -4.1467 -0.8559
  624ccc    H1016640  11.962   6.456   7.962 -0.9887  0.6470  0.8000
  624ccc     O516641  11.911   6.251   7.965 -0.2472 -0.1006 -0.3614
  624ccc    H1116642  12.004   6.242   7.992 -0.2235  1.2080  0.0636
  624ccc     O616643  11.645   6.403   7.868 -0.0792  0.2613  0.0779
  625ccc     C116644  10.468   7.185   9.210 -0.3813 -0.0625  0.3680
  625ccc     C216645  10.605   7.252   9.246  0.0048 -0.4215  0.2930
  625ccc     H116646  10.412   7.186   9.305  0.8279  0.6688  1.1105
  625ccc     H216647  10.582   7.348   9.295 -2.0774 -0.5536 -0.3462
  625ccc     C316648  10.688   7.165   9.341 -0.4177  0.2056  0.4267
  625ccc     C416649  10.691   7.014   9.297 -0.5301 -0.6625  0.0310
  625ccc     C516650  10.557   6.956   9.261  0.5901 -0.0770  0.3540
  625ccc     H316651  10.749   7.001   9.205  0.3215 -4.9262  0.9553
  625ccc     H416652  10.642   7.173   9.441 -1.0067  0.3190  0.1482
  625ccc     H516653  10.487   6.955   9.345 -2.7686  0.7493 -2.1822
  625ccc     O116654  10.565   6.828   9.203  0.5477  0.0102  0.3156
  625ccc     O216655  10.745   6.936   9.402  0.1270 -0.2608 -0.1976
  625ccc     O316656  10.818   7.228   9.348  0.1626 -0.1950 -0.2133
  625ccc     O416657  10.677   7.266   9.120  0.1857  0.3421 -0.3166
  625ccc     C616658  10.389   7.250   9.097  0.0589  0.4070  0.0737
  625ccc     H616659  10.872   7.203   9.271  2.1116  0.8404  0.7442
  625ccc     H716660  10.754   7.323   9.139  0.5569 -0.3845  0.3804
  625ccc     H816661  10.842   6.929   9.400  0.0754 -1.0440 -0.2821
  625ccc     H916662  10.420   7.215   8.998 -0.4200  0.2124 -0.0141
  625ccc    H1016663  10.405   7.358   9.094 -0.1460  0.4354  0.0048
  625ccc     O516664  10.252   7.213   9.123 -0.2494  0.2525 -0.0291
  625ccc    H1116665  10.240   7.123   9.088 -1.2448  0.0470  0.8006
  625ccc     O616666  10.496   7.051   9.170 -0.0394  0.0721  0.0012
  626ccc     C116667  10.272   5.950   9.587 -0.8526  0.3154 -0.1368
  626ccc     C216668  10.342   5.811   9.565  0.0124 -0.0601 -0.3507
  626ccc     H116669  10.170   5.949   9.628 -1.4803 -0.4837 -1.6504
  626ccc     H216670  10.336   5.745   9.653 -1.4873  0.1334 -0.2828
  626ccc     C316671  10.262   5.729   9.461  0.6272 -0.4183  0.3559
  626ccc     C416672  10.250   5.815   9.330  0.5657  0.1623 -0.7924
  626ccc     C516673  10.190   5.952   9.354 -0.2390  0.1376  0.1474
  626ccc     H316674  10.355   5.837   9.309  1.3921  0.1810  2.7757
  626ccc     H416675  10.160   5.733   9.502 -0.2933  0.0989 -1.8594
  626ccc     H516676  10.082   5.938   9.367 -0.2312 -0.9857 -0.8810
  626ccc     O116677  10.209   6.033   9.231 -0.5949 -0.1700 -0.7425
  626ccc     O216678  10.179   5.748   9.223  0.0323 -0.3117 -0.3928
  626ccc     O316679  10.299   5.591   9.428 -0.3105 -0.1559 -0.5781
  626ccc     O416680  10.478   5.824   9.532 -0.3359  0.6485 -0.2209
  626ccc     C616681  10.360   6.042   9.685 -0.1343  0.5808  0.1825
  626ccc     H616682  10.392   5.585   9.400  0.7045  1.4125  2.0541
  626ccc     H716683  10.490   5.913   9.570 -0.2369  0.0462  1.2322
  626ccc     H816684  10.217   5.778   9.138 -0.4563  0.1647 -0.4410
  626ccc     H916685  10.370   5.992   9.783 -2.0696  0.5999  0.4468
  626ccc    H1016686  10.303   6.131   9.717 -2.2657 -1.1132  1.4319
  626ccc     O516687  10.482   6.074   9.627  0.1946 -0.0826 -0.7851
  626ccc    H1116688  10.515   6.155   9.671  0.3936 -0.1699 -0.7699
  626ccc     O616689  10.259   6.024   9.460 -0.6447  0.0838 -0.0947
  627ccc     C116690  11.154   6.952   7.452  0.7610  0.1241 -0.6782
  627ccc     C216691  11.052   6.843   7.492 -0.3096  0.1360  0.4731
  627ccc     H116692  11.239   6.905   7.401  2.2727  0.1066  1.7012
  627ccc     H216693  11.004   6.803   7.401  2.2282  0.1283 -0.9422
  627ccc     C316694  11.134   6.734   7.562 -0.4817  0.3083  0.4649
  627ccc     C416695  11.193   6.786   7.696 -0.0455 -0.1426 -0.0541
  627ccc     C516696  11.282   6.910   7.666 -0.6202  0.4485  0.7635
  627ccc     H316697  11.112   6.809   7.766  0.5409  0.9080  0.3054
  627ccc     H416698  11.224   6.710   7.503 -0.4131  0.6505  0.4280
  627ccc     H516699  11.373   6.882   7.611 -1.4817 -0.9176 -0.0255
  627ccc     O116700  11.315   6.977   7.790  0.2140  0.1196 -0.0304
  627ccc     O216701  11.272   6.680   7.749 -0.1994  0.2333 -0.3757
  627ccc     O316702  11.065   6.609   7.578 -0.4413 -0.0197  0.0010
  627ccc     O416703  10.956   6.904   7.575  0.5659 -0.6677  0.1111
  627ccc     C616704  11.092   7.067   7.370 -0.4428  0.2674  0.1243
  627ccc     H616705  11.104   6.553   7.648 -1.2338 -0.2919  0.2359
  627ccc     H716706  10.949   6.997   7.547 -3.5522 -1.0265 -0.5982
  627ccc     H816707  11.315   6.711   7.831  0.4136 -1.1362 -0.1542
  627ccc     H916708  11.052   7.014   7.283  0.2276 -2.5852  1.4474
  627ccc    H1016709  11.173   7.134   7.338 -0.3657  1.3673  2.4477
  627ccc     O516710  11.005   7.147   7.449 -0.0139  0.0636  0.3551
  627ccc    H1116711  11.056   7.229   7.465 -0.5697  0.1397  1.8383
  627ccc     O616712  11.202   6.999   7.584  0.2840 -0.1511  0.6599
  628ccc     C116713  11.502   7.029   8.774  0.0899 -0.3362 -0.2353
  628ccc     C216714  11.592   6.906   8.736  1.2340 -0.5181  0.2239
  628ccc     H116715  11.399   6.991   8.780  0.1395 -0.8812 -2.0557
  628ccc     H216716  11.572   6.840   8.822  0.3818  0.1632  0.5640
  628ccc     C316717  11.554   6.833   8.602 -0.4026 -0.4397  0.0656
  628ccc     C416718  11.553   6.937   8.487  0.0892 -0.1937 -0.0849
  628ccc     C516719  11.463   7.062   8.527 -0.1535  0.2020  0.2795
  628ccc     H316720  11.657   6.973   8.486  0.1389 -0.2406  1.2594
  628ccc     H416721  11.448   6.808   8.618 -0.3760 -0.2983  0.4771
  628ccc     H516722  11.358   7.032   8.528 -0.1870  0.2666 -0.8725
  628ccc     O116723  11.474   7.170   8.421  0.2118  0.4688 -0.1620
  628ccc     O216724  11.519   6.868   8.366 -0.4385  0.1087 -0.2580
  628ccc     O316725  11.632   6.714   8.579 -0.2383  0.2881 -0.4915
  628ccc     O416726  11.729   6.936   8.735  0.6958 -0.8949 -0.1825
  628ccc     C616727  11.542   7.100   8.906 -0.5333  0.4637  0.0940
  628ccc     H616728  11.594   6.651   8.643 -0.2558  2.1892  1.4700
  628ccc     H716729  11.761   6.852   8.773  0.5678 -0.2567  1.4326
  628ccc     H816730  11.423   6.858   8.378 -0.3843 -0.6353 -0.4112
  628ccc     H916731  11.646   7.132   8.895 -0.4931  0.2195 -0.2306
  628ccc    H1016732  11.546   7.037   8.995  0.9228  1.3882  0.7247
  628ccc     O516733  11.452   7.205   8.935 -0.2795  0.6092  0.0923
  628ccc    H1116734  11.489   7.285   8.894  0.0952  0.6687  0.5370
  628ccc     O616735  11.503   7.118   8.660 -0.5926  0.1979  0.7403
  629ccc     C116736  11.739   8.472   8.042  1.1434 -0.0950  0.2084
  629ccc     C216737  11.780   8.325   8.041  0.5333  0.0731  0.1377
  629ccc     H116738  11.777   8.518   8.134 -0.4891  2.0882 -0.1281
  629ccc     H216739  11.887   8.319   8.068  0.8600  1.2218 -0.8390
  629ccc     C316740  11.708   8.240   8.151  0.2954  0.0376  0.7593
  629ccc     C416741  11.556   8.268   8.151  0.9215  0.4563  0.2556
  629ccc     C516742  11.518   8.418   8.135 -1.1316  0.2667 -0.2184
  629ccc     H316743  11.510   8.223   8.062  0.7113  1.4257 -0.1333
  629ccc     H416744  11.747   8.266   8.250  0.8769 -2.0509  1.1195
  629ccc     H516745  11.539   8.465   8.232 -0.5658  0.7958 -0.5896
  629ccc     O116746  11.384   8.445   8.101  0.5926 -0.1302  0.1871
  629ccc     O216747  11.489   8.210   8.271  0.1165 -0.1841 -0.0354
  629ccc     O316748  11.736   8.099   8.133  0.3667  0.3447 -0.5092
  629ccc     O416749  11.747   8.259   7.922 -0.1653  0.0651  0.0128
  629ccc     C616750  11.786   8.548   7.917 -0.0616 -0.2256 -0.8603
  629ccc     H616751  11.818   8.079   8.181 -0.8090 -2.4296  0.5980
  629ccc     H716752  11.743   8.171   7.963 -0.4933 -0.2284 -0.6225
  629ccc     H816753  11.401   8.177   8.247 -0.0935  0.1946  0.2106
  629ccc     H916754  11.728   8.512   7.831  0.2700  2.5709 -2.3474
  629ccc    H1016755  11.889   8.524   7.887 -0.4969 -1.6977 -1.2901
  629ccc     O516756  11.763   8.685   7.939 -0.3653  0.6109 -0.2445
  629ccc    H1116757  11.794   8.712   8.027  0.2790 -0.3475 -0.1658
  629ccc     O616758  11.594   8.483   8.034 -0.6887 -0.5635  0.4784
  630ccc     C116759  10.899   8.458   7.165  0.8491  0.2151  0.2801
  630ccc     C216760  10.766   8.390   7.148  1.0212 -0.5913  0.5555
  630ccc     H116761  10.975   8.393   7.120 -0.2866 -1.5311  0.7780
  630ccc     H216762  10.744   8.358   7.046 -2.7825 -0.4102  1.1690
  630ccc     C316763  10.751   8.259   7.224  0.5205 -0.3053 -0.0104
  630ccc     C416764  10.793   8.278   7.377 -0.0328 -0.0733 -0.0654
  630ccc     C516765  10.933   8.352   7.386 -0.3128 -0.1275 -0.3802
  630ccc     H316766  10.716   8.348   7.412  1.1490  0.5109  1.4577
  630ccc     H416767  10.823   8.193   7.175  1.3720  1.5588 -1.3868
  630ccc     H516768  11.014   8.282   7.361  0.2699  0.0941  0.8138
  630ccc     O116769  10.954   8.401   7.530 -0.1770 -0.3108 -0.1273
  630ccc     O216770  10.791   8.152   7.450  0.6876 -0.1432  0.1739
  630ccc     O316771  10.619   8.208   7.213  0.2559 -0.3101 -0.1636
  630ccc     O416772  10.667   8.484   7.196 -0.3055  0.6142  0.4062
  630ccc     C616773  10.918   8.591   7.097  0.9627  0.3798  0.0721
  630ccc     H616774  10.556   8.282   7.214 -0.1661 -0.6483  1.5720
  630ccc     H716775  10.701   8.574   7.180 -2.1137  1.0646 -1.3092
  630ccc     H816776  10.784   8.175   7.544 -0.9929  0.3772 -0.0484
  630ccc     H916777  10.900   8.581   6.990 -0.0101 -0.3758  0.2932
  630ccc    H1016778  11.024   8.615   7.114  0.2443  1.8741  3.2168
  630ccc     O516779  10.818   8.688   7.135  0.5049  0.6882  0.3032
  630ccc    H1116780  10.847   8.761   7.078  1.4802  0.5962  0.6644
  630ccc     O616781  10.926   8.473   7.305  0.3530 -0.5583  0.2542
  631ccc     C116782   8.711   5.139   5.593 -0.6024 -0.1129 -0.0498
  631ccc     C216783   8.573   5.177   5.537  0.2354 -0.2448 -0.2029
  631ccc     H116784   8.707   5.058   5.667  1.4631 -1.5239 -1.3760
  631ccc     H216785   8.520   5.088   5.501 -0.8707  0.2497  0.1745
  631ccc     C316786   8.488   5.249   5.646  0.0619 -0.2010  0.6168
  631ccc     C416787   8.568   5.372   5.700 -1.0015 -0.4411  0.0818
  631ccc     C516788   8.710   5.335   5.741 -0.5049 -0.0199  0.2972
  631ccc     H316789   8.583   5.446   5.619 -0.7825 -1.5891 -0.9570
  631ccc     H416790   8.463   5.168   5.716 -1.4160  0.0911  0.4687
  631ccc     H516791   8.711   5.274   5.832 -0.5672 -2.4081 -1.2162
  631ccc     O116792   8.773   5.469   5.766 -0.0339  0.5448  0.5387
  631ccc     O216793   8.483   5.428   5.807 -0.2874 -0.1166 -0.2750
  631ccc     O316794   8.359   5.303   5.584  0.3530  0.1806  0.2067
  631ccc     O416795   8.601   5.265   5.426 -0.5909 -0.3405 -0.9172
  631ccc     C616796   8.794   5.073   5.473 -0.1897 -0.6974  0.2574
  631ccc     H616797   8.373   5.383   5.530 -0.2954  0.9585  1.1602
  631ccc     H716798   8.579   5.209   5.349  0.6755 -1.3734 -0.5454
  631ccc     H816799   8.517   5.519   5.821 -0.8603  0.0752 -0.1054
  631ccc     H916800   8.821   5.152   5.403 -2.2313 -0.6352 -0.5293
  631ccc    H1016801   8.740   5.001   5.410 -2.1232  1.2895 -0.4663
  631ccc     O516802   8.904   5.006   5.536  0.6774 -0.6553  0.1020
  631ccc    H1116803   8.952   5.072   5.588  1.2848 -0.7074 -0.3823
  631ccc     O616804   8.783   5.259   5.639  0.4908  0.0563  0.2209
  632ccc     C116805   8.774   6.351   6.343 -0.0543  0.7817  0.1393
  632ccc     C216806   8.626   6.370   6.288  0.3338 -1.2744  0.0775
  632ccc     H116807   8.855   6.388   6.280  1.5147  1.5089  2.4583
  632ccc     H216808   8.607   6.473   6.256 -2.1131 -1.6260  0.2024
  632ccc     C316809   8.597   6.291   6.157  0.0666 -0.4135 -0.5701
  632ccc     C416810   8.635   6.145   6.176 -0.1394 -0.4726 -0.4145
  632ccc     C516811   8.774   6.126   6.251  0.1215  0.2953  0.7024
  632ccc     H316812   8.565   6.101   6.248  0.4062 -1.1013 -0.2627
  632ccc     H416813   8.668   6.328   6.081 -0.4989  0.1116 -0.8509
  632ccc     H516814   8.859   6.151   6.186  1.3607 -0.2531  2.0656
  632ccc     O116815   8.776   5.981   6.290  0.4996 -0.4011 -0.1291
  632ccc     O216816   8.635   6.084   6.045  0.0710  0.5129  0.0971
  632ccc     O316817   8.465   6.306   6.104  0.1579 -0.0657  0.1287
  632ccc     O416818   8.535   6.338   6.394  0.0622 -0.3210  0.4398
  632ccc     C616819   8.794   6.417   6.482 -0.0618 -0.4583 -0.3058
  632ccc     H616820   8.460   6.226   6.049 -0.1400  1.6200 -2.4632
  632ccc     H716821   8.453   6.372   6.354 -0.1948 -1.9527 -0.5273
  632ccc     H816822   8.618   5.991   6.067 -0.1256  0.6847  0.7002
  632ccc     H916823   8.740   6.353   6.553 -1.0319 -0.0298 -0.6441
  632ccc    H1016824   8.747   6.516   6.489  2.0326  0.7109 -1.5671
  632ccc     O516825   8.939   6.432   6.506  0.0691 -0.4472  0.4715
  632ccc    H1116826   8.941   6.459   6.600 -3.6609 -0.2479  0.6308
  632ccc     O616827   8.782   6.206   6.367  0.1907 -0.5343 -0.0829
  633ccc     C116828  10.522   6.085   5.610 -0.5528 -0.2849  0.3996
  633ccc     C216829  10.594   6.220   5.593 -0.3970  0.7788  0.5301
  633ccc     H116830  10.555   6.019   5.529  1.0048 -1.4311  1.8878
  633ccc     H216831  10.700   6.189   5.588 -0.6054 -0.1099  1.3262
  633ccc     C316832  10.559   6.268   5.451  0.4517 -0.1066 -0.3853
  633ccc     C416833  10.402   6.276   5.426 -0.3878  0.5981 -0.4944
  633ccc     C516834  10.332   6.137   5.465  0.5484  0.3053 -0.0779
  633ccc     H316835  10.367   6.353   5.496  0.3505  2.3397 -1.9631
  633ccc     H416836  10.602   6.212   5.366 -0.1586  1.5124 -1.8205
  633ccc     H516837  10.361   6.065   5.387 -0.2071 -1.8151  1.4959
  633ccc     O116838  10.186   6.150   5.464 -0.1356  0.2666 -0.0744
  633ccc     O216839  10.376   6.327   5.287 -0.1441  0.1814 -0.0239
  633ccc     O316840  10.608   6.402   5.427 -0.2415  0.5567  0.5670
  633ccc     O416841  10.558   6.307   5.696 -0.4686 -0.4491  0.0856
  633ccc     C616842  10.560   5.999   5.730  0.0249 -0.6742 -0.4295
  633ccc     H616843  10.640   6.436   5.513  0.1712  0.3267  0.5078
  633ccc     H716844  10.561   6.252   5.776  0.6285 -1.4060 -0.5717
  633ccc     H816845  10.286   6.365   5.291 -0.6967 -1.0350 -0.4458
  633ccc     H916846  10.505   6.034   5.818 -1.3083 -0.0275 -1.4849
  633ccc    H1016847  10.667   6.012   5.751 -0.3433 -0.2503  1.3603
  633ccc     O516848  10.525   5.866   5.703  0.0840  0.0622 -0.0799
  633ccc    H1116849  10.531   5.822   5.789 -1.4737  0.5423  0.3096
  633ccc     O616850  10.381   6.085   5.591 -0.1917 -0.6110 -0.2370
  634ccc     C116851   9.761   6.608   4.664  0.6023 -0.5461 -0.5971
  634ccc     C216852   9.770   6.760   4.712  0.4035  0.4220  0.1945
  634ccc     H116853   9.661   6.588   4.623 -0.3084 -0.4391  1.4518
  634ccc     H216854   9.769   6.820   4.620 -0.6734  0.9405  0.5296
  634ccc     C316855   9.641   6.797   4.795 -0.6633  0.6985  0.2479
  634ccc     C416856   9.632   6.703   4.914  0.3760 -0.1433  0.2423
  634ccc     C516857   9.655   6.549   4.883 -0.1383  0.5490 -0.4148
  634ccc     H316858   9.706   6.740   4.987  1.9725  0.1161 -1.4247
  634ccc     H416859   9.555   6.789   4.728  1.2479 -1.7096 -2.1390
  634ccc     H516860   9.564   6.503   4.843  0.5078 -0.3087 -0.9258
  634ccc     O116861   9.704   6.498   5.016  0.4499  0.5325  0.4355
  634ccc     O216862   9.504   6.724   4.976 -0.3829 -0.1293  0.3330
  634ccc     O316863   9.656   6.938   4.839  0.7721  0.3929  0.0574
  634ccc     O416864   9.891   6.769   4.783 -0.7645 -0.3085 -0.0904
  634ccc     C616865   9.881   6.560   4.574 -0.4909  0.1015 -0.7693
  634ccc     H616866   9.726   6.943   4.906 -1.6794  0.2032  2.8716
  634ccc     H716867   9.948   6.706   4.736  1.1911 -0.6185  2.4844
  634ccc     H816868   9.508   6.806   5.027  0.2544 -1.0916  1.8929
  634ccc     H916869   9.882   6.608   4.475 -2.4406  0.1402 -0.8187
  634ccc    H1016870   9.874   6.451   4.563  2.0437 -0.1752 -0.2595
  634ccc     O516871  10.005   6.590   4.639 -0.7149 -0.2711 -0.6070
  634ccc    H1116872  10.071   6.564   4.572  2.6517 -1.1156  2.6220
  634ccc     O616873   9.761   6.533   4.782 -0.2905  0.0973 -0.1297
  635ccc     C116874  10.501   8.522   6.216 -0.3441  0.1569  0.7903
  635ccc     C216875  10.437   8.485   6.354 -0.1507 -0.1978  0.2146
  635ccc     H116876  10.478   8.626   6.193 -3.1986 -0.9610 -2.2926
  635ccc     H216877  10.471   8.554   6.432  1.9821  0.5939 -1.3158
  635ccc     C316878  10.284   8.500   6.344 -0.3865  0.1835  0.1295
  635ccc     C416879  10.231   8.410   6.232 -0.6886  0.4996  1.0592
  635ccc     C516880  10.307   8.432   6.094  0.1812 -0.1488 -0.2631
  635ccc     H316881  10.251   8.308   6.266 -0.2484  0.9135  2.0860
  635ccc     H416882  10.263   8.603   6.312 -1.0563 -0.5924 -2.1203
  635ccc     H516883  10.270   8.525   6.049  0.9403 -1.0487 -2.8860
  635ccc     O116884  10.280   8.324   6.002  0.0810 -0.3042 -0.4600
  635ccc     O216885  10.092   8.422   6.216  0.1552 -0.3800  0.5504
  635ccc     O316886  10.212   8.472   6.462 -0.3048  0.1735 -0.0781
  635ccc     O416887  10.476   8.346   6.369  0.3284  0.0215 -0.3595
  635ccc     C616888  10.654   8.532   6.213 -0.3996  0.3175 -0.1219
  635ccc     H616889  10.264   8.413   6.518 -2.1448 -1.3177  0.1548
  635ccc     H716890  10.557   8.344   6.315  1.1611  1.1173  0.7917
  635ccc     H816891  10.058   8.446   6.304 -1.3630  0.2949 -0.1841
  635ccc     H916892  10.691   8.620   6.268  1.6837  0.8709 -2.2281
  635ccc    H1016893  10.680   8.546   6.107 -1.4997  1.2516 -0.2878
  635ccc     O516894  10.710   8.407   6.256 -0.1185  0.6064 -0.0694
  635ccc    H1116895  10.706   8.361   6.170 -0.6872 -0.5012  0.5173
  635ccc     O616896  10.453   8.438   6.106  0.0722 -0.6223 -1.0316
  636ccc     C116897  10.070   8.618   5.777  0.1166  0.7385 -0.5992
  636ccc     C216898  10.071   8.771   5.766  0.4188 -0.1693 -0.0415
  636ccc     H116899  10.175   8.590   5.783 -0.9292 -4.1078 -0.8929
  636ccc     H216900  10.156   8.811   5.823 -0.1115  0.5084  0.2892
  636ccc     C316901  10.086   8.826   5.614  0.9537 -0.4174  0.4761
  636ccc     C416902  10.022   8.730   5.510 -0.5242  0.1989 -0.1454
  636ccc     C516903  10.063   8.583   5.538  0.1210 -0.0954 -0.4537
  636ccc     H316904   9.913   8.734   5.510 -0.5267  0.8589 -1.6383
  636ccc     H416905  10.193   8.837   5.592  0.8511  1.2473  0.6788
  636ccc     H516906  10.170   8.559   5.541 -0.3461 -2.3348  0.3086
  636ccc     O116907  10.004   8.497   5.430 -0.2750 -0.7277  0.1085
  636ccc     O216908  10.076   8.781   5.383 -0.7059 -0.8054 -0.6882
  636ccc     O316909  10.022   8.959   5.607 -0.0506  0.0622  0.4051
  636ccc     O416910   9.950   8.817   5.802 -0.2827 -0.5945 -0.5552
  636ccc     C616911  10.008   8.570   5.915 -0.5013 -0.7491 -0.1919
  636ccc     H616912  10.033   8.987   5.515 -1.3334  0.2721  0.3066
  636ccc     H716913   9.954   8.902   5.755  1.2599 -0.2745  0.0930
  636ccc     H816914  10.004   8.831   5.341 -0.0266  1.1090  0.2757
  636ccc     H916915  10.062   8.626   5.992  0.4521 -0.8264 -0.7829
  636ccc    H1016916  10.032   8.464   5.928 -1.1060 -1.1207 -1.8318
  636ccc     O516917   9.869   8.604   5.911  0.3206  0.6055  0.0809
  636ccc    H1116918   9.884   8.689   5.864  1.5486 -0.4435 -1.5420
  636ccc     O616919  10.013   8.545   5.666  0.0537 -0.1149  0.2144
  637ccc     C116920  10.198   5.709   6.167  0.2216 -0.3781  0.5426
  637ccc     C216921  10.322   5.639   6.232  0.3130 -0.5094 -0.4718
  637ccc     H116922  10.172   5.649   6.079 -1.4332 -2.8708  2.5814
  637ccc     H216923  10.298   5.533   6.250  0.4343 -0.5950 -0.8099
  637ccc     C316924  10.428   5.643   6.117  0.4804 -0.3269 -0.1448
  637ccc     C416925  10.457   5.786   6.064 -0.3798 -0.6719  0.2601
  637ccc     C516926  10.325   5.862   6.028  0.3355 -0.3632 -0.1903
  637ccc     H316927  10.517   5.852   6.128  1.3758 -0.3861 -1.5738
  637ccc     H416928  10.386   5.592   6.030  1.4152 -0.5368 -0.4821
  637ccc     H516929  10.280   5.821   5.936 -0.5518 -2.9329  1.2853
  637ccc     O116930  10.339   6.002   6.006 -0.2612  0.4826 -0.0670
  637ccc     O216931  10.541   5.761   5.949  0.0877  0.4676 -1.1954
  637ccc     O316932  10.551   5.573   6.157 -0.2652  0.7014  0.2559
  637ccc     O416933  10.351   5.708   6.358 -0.1478  0.0407  0.4984
  637ccc     C616934  10.070   5.720   6.246  0.1925  0.0678 -0.1231
  637ccc     H616935  10.589   5.626   6.229  0.2537  0.0435  0.4772
  637ccc     H716936  10.260   5.735   6.376 -0.9807 -0.2321 -2.5938
  637ccc     H816937  10.623   5.733   5.993 -0.9662 -0.3700  0.3011
  637ccc     H916938  10.023   5.622   6.260 -1.6832  1.0635  0.8632
  637ccc    H1016939   9.994   5.787   6.204 -1.3703 -2.0348 -0.7948
  637ccc     O516940  10.110   5.760   6.379 -0.2073  0.1274  0.5166
  637ccc    H1116941  10.087   5.855   6.376 -1.0121 -0.0649  0.1488
  637ccc     O616942  10.234   5.853   6.136 -0.0751  0.2725  0.3764
  638ccc     C116943  10.922   6.644   5.740  0.6946  0.2236 -0.2770
  638ccc     C216944  11.015   6.644   5.862 -0.3907  0.4323  0.1093
  638ccc     H116945  10.945   6.732   5.679 -1.3425  0.6792 -0.4642
  638ccc     H216946  11.121   6.629   5.838 -0.4674  2.9634 -2.2147
  638ccc     C316947  10.990   6.784   5.928 -0.0302 -1.0252 -0.9443
  638ccc     C416948  10.844   6.801   5.979  0.5577  0.0483  0.4399
  638ccc     C516949  10.737   6.755   5.871  0.0513 -0.4641  0.6527
  638ccc     H316950  10.839   6.724   6.057 -2.2591  1.3880  1.7485
  638ccc     H416951  10.999   6.862   5.850  0.8060  0.0213  0.1657
  638ccc     H516952  10.715   6.841   5.807 -0.6405  0.3572  1.9317
  638ccc     O116953  10.613   6.728   5.940 -0.3124  0.5217  0.0671
  638ccc     O216954  10.816   6.939   6.011  0.4145 -0.1091 -0.0187
  638ccc     O316955  11.088   6.803   6.036 -0.1494  0.4379  0.3606
  638ccc     O416956  10.970   6.534   5.947  0.4559  0.2105  0.5845
  638ccc     C616957  10.931   6.513   5.662 -0.3177 -0.8729 -0.3571
  638ccc     H616958  11.170   6.829   5.990  0.0938 -0.4313  0.2854
  638ccc     H716959  11.036   6.539   6.018  0.5143 -1.1188  0.6310
  638ccc     H816960  10.729   6.951   6.053  0.3920  2.7595 -0.6727
  638ccc     H916961  10.911   6.427   5.726 -0.8004 -0.7414 -0.3275
  638ccc    H1016962  11.028   6.499   5.613 -0.9640 -1.2914 -1.5653
  638ccc     O516963  10.843   6.526   5.556  0.4335 -0.2390 -0.2630
  638ccc    H1116964  10.764   6.570   5.594 -1.3366 -1.7093 -1.9949
  638ccc     O616965  10.776   6.642   5.796 -0.4617  0.4459  0.0493
  639ccc     C116966   7.167   6.853  12.124  0.1962 -0.8002  0.6246
  639ccc     C216967   7.286   6.881  12.214 -0.0923  0.7345 -0.5153
  639ccc     H116968   7.171   6.934  12.050 -0.7764 -0.9165  0.4331
  639ccc     H216969   7.382   6.883  12.161  2.8390 -0.2645  4.1872
  639ccc     C316970   7.258   7.016  12.289 -0.5001  0.8543  0.8588
  639ccc     C416971   7.116   7.007  12.365  0.2875 -0.1295 -0.1692
  639ccc     C516972   6.998   6.972  12.267  0.1516 -0.1191 -0.2882
  639ccc     H316973   7.122   6.917  12.428  1.1014 -3.2644 -4.3236
  639ccc     H416974   7.262   7.097  12.215 -0.0761  2.2486  2.3428
  639ccc     H516975   6.988   7.055  12.196  0.9932  0.5465  0.3492
  639ccc     O116976   6.871   6.952  12.330 -0.3284 -0.3635 -0.3581
  639ccc     O216977   7.102   7.132  12.445 -0.1929 -0.0958  0.6626
  639ccc     O316978   7.363   7.029  12.398  0.2643 -0.0729 -0.1759
  639ccc     O416979   7.284   6.777  12.320  0.0789 -0.0184 -0.2100
  639ccc     C616980   7.169   6.719  12.046 -0.5150  0.1016 -0.2879
  639ccc     H616981   7.451   7.032  12.356  0.1348 -1.7874 -0.6243
  639ccc     H716982   7.350   6.798  12.388  1.8976  0.1653 -1.9632
  639ccc     H816983   7.014   7.114  12.482 -1.0614 -0.2641 -1.3263
  639ccc     H916984   7.259   6.704  11.985 -0.2822  0.7102 -0.1051
  639ccc    H1016985   7.081   6.703  11.984  1.3566  1.4075 -3.5513
  639ccc     O516986   7.191   6.625  12.141  0.1410 -0.0814 -0.4474
  639ccc    H1116987   7.222   6.672  12.220 -3.7027 -1.0633  1.9280
  639ccc     O616988   7.034   6.855  12.196 -0.6798  0.2327  0.0823
  640ccc     C116989   6.781   6.368  12.071 -0.3898 -0.1517  0.0884
  640ccc     C216990   6.825   6.350  11.926  0.3666  0.7354  0.3334
  640ccc     H116991   6.765   6.264  12.103 -0.4518 -0.3916 -0.6965
  640ccc     H216992   6.895   6.266  11.922 -1.2869 -0.6382 -1.1358
  640ccc     C316993   6.703   6.304  11.834  0.6526 -0.1648 -0.7146
  640ccc     C416994   6.583   6.399  11.860 -0.0569 -0.0683 -0.2750
  640ccc     C516995   6.539   6.389  12.006 -0.1790 -0.2167 -0.7060
  640ccc     H316996   6.622   6.501  11.850  1.6414 -0.7159 -0.6548
  640ccc     H416997   6.683   6.201  11.866  1.4250  0.3547  1.5818
  640ccc     H516998   6.517   6.286  12.035  0.1728 -0.3396 -0.8683
  640ccc     O116999   6.423   6.472  12.033  0.2870 -0.4374  0.0045
  640ccc     O217000   6.473   6.373  11.772  0.2799 -1.0180  0.6361
  640ccc     O317001   6.734   6.317  11.695 -0.1510 -0.3544  0.1135
  640ccc     O417002   6.884   6.475  11.876 -0.1312 -0.4443  0.3700
  640ccc     C617003   6.894   6.426  12.157  0.0027 -0.2551 -0.0586
  640ccc     H617004   6.825   6.280  11.695  0.3412  0.8137 -0.0124
  640ccc     H717005   6.943   6.434  11.811 -0.7905 -1.3184  0.3106
  640ccc     H817006   6.516   6.404  11.691 -1.2654  3.5215  1.2578
  640ccc     H917007   6.927   6.521  12.114 -0.8965  0.5363  0.9347
  640ccc    H1017008   6.984   6.364  12.157  1.1378  1.1553 -3.5058
  640ccc     O517009   6.841   6.456  12.282 -0.1393  0.3979  0.2775
  640ccc    H1117010   6.751   6.487  12.262 -0.2398  0.0558  0.1936
  640ccc     O617011   6.656   6.437  12.081  0.0092 -0.4078  0.1716
  641ccc     C117012   5.029   7.581  12.350  0.7447  0.2520 -0.0269
  641ccc     C217013   5.026   7.715  12.266  0.5085 -0.3771  0.3626
  641ccc     H117014   5.084   7.603  12.442  1.9253  0.2608 -0.7261
  641ccc     H217015   4.994   7.796  12.333 -0.8635 -0.1227 -0.5681
  641ccc     C317016   5.163   7.765  12.214  0.0724  0.4644  0.2808
  641ccc     C417017   5.247   7.650  12.158 -0.4581 -0.3238  0.2585
  641ccc     C517018   5.237   7.523  12.245  0.5802  0.2722  0.4574
  641ccc     H317019   5.207   7.622  12.060 -0.7028  0.5405  0.0999
  641ccc     H417020   5.207   7.803  12.307  0.1876 -0.4934  0.6344
  641ccc     H517021   5.295   7.556  12.332  2.2099 -1.2638  0.0041
  641ccc     O117022   5.310   7.415  12.187  0.0817  0.2243 -0.2482
  641ccc     O217023   5.385   7.695  12.131  0.1924 -0.1029  0.1558
  641ccc     O317024   5.146   7.872  12.118 -0.4145 -0.2150  0.1171
  641ccc     O417025   4.929   7.707  12.158  0.3405  0.6722  0.1819
  641ccc     C617026   4.894   7.519  12.400 -0.0097  0.2664 -0.4401
  641ccc     H617027   5.237   7.893  12.091 -0.5840 -2.2070 -2.3371
  641ccc     H717028   4.964   7.765  12.088  3.1102 -0.9720  0.0646
  641ccc     H817029   5.410   7.739  12.214 -0.1249  0.0490  0.1716
  641ccc     H917030   4.825   7.493  12.318  0.5493  1.0375 -1.1795
  641ccc    H1017031   4.851   7.590  12.472  0.7865 -0.8826  1.2273
  641ccc     O517032   4.936   7.404  12.485  0.3377 -0.1192 -0.1211
  641ccc    H1117033   4.956   7.335  12.420  0.6700 -1.6526  1.5407
  641ccc     O617034   5.104   7.482  12.273  0.2940 -0.1307 -0.2810
  642ccc     C117035   5.100   6.857  11.297 -0.7043  0.3191  1.1918
  642ccc     C217036   4.974   6.774  11.289  0.9978 -1.0598 -0.0354
  642ccc     H117037   5.183   6.795  11.260 -0.7459  0.1598  1.3658
  642ccc     H217038   4.968   6.744  11.184 -0.9677 -0.3609 -0.1623
  642ccc     C317039   4.992   6.650  11.388  0.3626 -0.1577 -0.1579
  642ccc     C417040   5.021   6.694  11.533  0.1991 -0.3222 -0.3879
  642ccc     C517041   5.143   6.794  11.540 -0.1077  0.6125  0.0472
  642ccc     H317042   4.930   6.749  11.560 -0.5382 -2.3107  1.4303
  642ccc     H417043   5.084   6.596  11.362  0.6881  0.8577 -1.1983
  642ccc     H517044   5.229   6.730  11.517  0.0329  0.9731 -0.4203
  642ccc     O117045   5.165   6.844  11.678  0.4148 -0.5883  1.0376
  642ccc     O217046   5.049   6.585  11.621  0.1032  0.1057 -0.4105
  642ccc     O317047   4.879   6.556  11.390  0.0428  0.0734 -0.0819
  642ccc     O417048   4.852   6.851  11.320  0.2982  0.6757  0.1522
  642ccc     C617049   5.116   6.982  11.204  0.6027 -0.4739 -0.5884
  642ccc     H617050   4.884   6.521  11.299 -0.1799  1.1008 -0.5068
  642ccc     H717051   4.846   6.920  11.251  0.2684  0.8351  0.3151
  642ccc     H817052   5.064   6.618  11.712 -0.4192 -1.6960  0.3670
  642ccc     H917053   5.057   7.060  11.253  0.1406 -0.1616 -1.6167
  642ccc    H1017054   5.072   6.969  11.104 -0.1332  0.8707 -0.4651
  642ccc     O517055   5.247   7.030  11.201 -0.3424  0.2441 -0.0392
  642ccc    H1117056   5.244   7.117  11.158 -4.1640 -0.2025 -1.0344
  642ccc     O617057   5.123   6.896  11.433  0.4801 -0.2156 -0.4580
  643ccc     C117058   6.988   7.871  12.694 -0.2416 -0.2785  0.3292
  643ccc     C217059   7.025   7.816  12.835  0.2855  0.8027 -0.4425
  643ccc     H117060   6.889   7.914  12.713 -1.0676 -0.5346 -2.8315
  643ccc     H217061   7.019   7.903  12.902 -1.8308  0.0923  0.3873
  643ccc     C317062   6.916   7.713  12.890  0.3659  0.2258 -0.8505
  643ccc     C417063   6.884   7.607  12.777  0.3906 -0.7026 -0.4898
  643ccc     C517064   6.852   7.667  12.640 -0.1805 -0.3425  0.8263
  643ccc     H317065   6.976   7.552  12.751  0.9212 -0.8275  1.5018
  643ccc     H417066   6.820   7.765  12.894  0.4177  0.2690 -0.0917
  643ccc     H517067   6.754   7.715  12.648 -0.5222 -0.5507 -1.5082
  643ccc     O117068   6.851   7.570  12.538 -0.2408  0.7494  0.2562
  643ccc     O217069   6.773   7.520  12.810 -0.0942 -0.0694  0.6750
  643ccc     O317070   6.941   7.649  13.015  1.0392  0.0825 -0.1260
  643ccc     O417071   7.160   7.757  12.836  0.7755  0.2998  0.4440
  643ccc     C617072   7.087   7.977  12.639 -0.7307  0.1558  0.9098
  643ccc     H617073   6.945   7.728  13.072 -1.0623 -0.6332  1.1231
  643ccc     H717074   7.171   7.745  12.932 -1.8243 -1.6211  0.6246
  643ccc     H817075   6.811   7.456  12.873 -0.2365 -1.1060 -0.2570
  643ccc     H917076   7.091   8.055  12.716 -0.4359  0.3506  0.6958
  643ccc    H1017077   7.055   8.015  12.541 -0.1509 -1.4148  0.0624
  643ccc     O517078   7.211   7.906  12.627  0.3547 -0.4274 -0.1569
  643ccc    H1117079   7.191   7.846  12.701  0.9471  0.9992  1.2033
  643ccc     O617080   6.964   7.758  12.606 -0.2869  0.0505  0.4596
  644ccc     C117081   5.707   7.479  12.441  0.1532  0.8067  0.0911
  644ccc     C217082   5.586   7.547  12.371  0.4034  1.2336  0.4360
  644ccc     H117083   5.703   7.489  12.550 -0.1205 -0.3785  0.2068
  644ccc     H217084   5.493   7.497  12.400 -0.1467  2.3945  0.7630
  644ccc     C317085   5.587   7.696  12.415  0.3682  0.2662 -0.5941
  644ccc     C417086   5.722   7.756  12.372 -0.1240  0.1700  0.0483
  644ccc     C517087   5.843   7.678  12.429  0.1966  0.3783 -0.1270
  644ccc     H317088   5.724   7.754  12.262 -1.3777 -0.5540  0.0298
  644ccc     H417089   5.598   7.704  12.523 -0.3436  2.0392 -0.6224
  644ccc     H517090   5.844   7.691  12.538  1.6017 -3.9354  0.5857
  644ccc     O117091   5.972   7.724  12.378 -0.6217  0.1329 -0.4721
  644ccc     O217092   5.726   7.892  12.420 -0.7578 -0.4723 -0.4574
  644ccc     O317093   5.477   7.769  12.364 -0.1400 -0.1552 -0.0258
  644ccc     O417094   5.609   7.537  12.229 -0.2856 -0.1920  0.6161
  644ccc     C617095   5.698   7.323  12.415  0.0885 -0.7755  0.2999
  644ccc     H617096   5.492   7.860  12.393 -1.6525  0.6478 -1.5794
  644ccc     H717097   5.533   7.587  12.195  0.6236  0.7493 -0.0744
  644ccc     H817098   5.770   7.944  12.351  0.4697 -1.7939 -0.7228
  644ccc     H917099   5.594   7.296  12.436 -0.0409 -1.2998 -0.9297
  644ccc    H1017100   5.768   7.266  12.477  0.1250 -0.5491  0.4708
  644ccc     O517101   5.729   7.301  12.280  0.4122  0.0461  0.1719
  644ccc    H1117102   5.700   7.389  12.250 -1.9764  0.0258  2.0994
  644ccc     O617103   5.834   7.541  12.401 -0.6952 -0.2048  0.0946
  645ccc     C117104   4.789   8.988  11.544 -0.5721  0.1866 -0.5384
  645ccc     C217105   4.780   9.132  11.488  0.5883 -0.5114 -0.8575
  645ccc     H117106   4.790   8.975  11.653  1.6569 -1.0271 -0.6546
  645ccc     H217107   4.688   9.178  11.526  1.4976  0.9158 -0.3305
  645ccc     C317108   4.894   9.218  11.547 -0.7135 -0.3920 -0.1930
  645ccc     C417109   5.037   9.160  11.515 -0.0024 -0.1618  1.0820
  645ccc     C517110   5.036   9.014  11.569  0.0661 -0.2901  0.1345
  645ccc     H317111   5.043   9.156  11.406  0.0780 -1.6055  1.1160
  645ccc     H417112   4.890   9.218  11.657 -1.0863 -1.0329 -0.2068
  645ccc     H517113   5.047   9.024  11.678 -0.5208 -0.5843  0.2252
  645ccc     O117114   5.159   8.952  11.533 -0.4718  0.5247 -0.3151
  645ccc     O217115   5.149   9.243  11.571  0.1930  0.3154 -0.0035
  645ccc     O317116   4.878   9.356  11.502 -0.2712  0.0109 -0.4969
  645ccc     O417117   4.783   9.140  11.348 -0.8406 -0.0019  0.0207
  645ccc     C617118   4.683   8.898  11.483  0.0472 -0.3516  0.0631
  645ccc     H617119   4.907   9.412  11.576 -2.0324  1.6928 -0.9802
  645ccc     H717120   4.789   9.235  11.329 -1.1524  0.3423  1.5468
  645ccc     H817121   5.142   9.331  11.529  1.5739 -0.3676 -1.7705
  645ccc     H917122   4.586   8.929  11.523  0.8475  0.8284  1.1635
  645ccc    H1017123   4.709   8.795  11.511  0.3842 -0.3854 -0.3564
  645ccc     O517124   4.700   8.903  11.342  0.2172  0.0976  0.1010
  645ccc    H1117125   4.752   8.985  11.341  0.2374  0.1330  1.6532
  645ccc     O617126   4.921   8.938  11.516 -0.0205  0.6489  0.5761
  646ccc     C117127   5.884   8.298  12.150  0.5114  0.1507 -0.3285
  646ccc     C217128   5.907   8.378  12.284  0.3279  0.6269 -0.3368
  646ccc     H117129   5.961   8.326  12.077 -0.0722 -1.1351 -1.4763
  646ccc     H217130   6.015   8.373  12.305  0.4191  1.8906 -0.3865
  646ccc     C317131   5.865   8.537  12.267  0.0710  0.5723  0.3028
  646ccc     C417132   5.722   8.546  12.207  0.0118  0.2054 -0.3140
  646ccc     C517133   5.710   8.461  12.072  0.3058 -0.4880 -0.4235
  646ccc     H317134   5.658   8.493  12.278 -0.4306  1.4379  0.2451
  646ccc     H417135   5.937   8.573  12.192 -1.5278 -0.9368 -2.1247
  646ccc     H517136   5.762   8.500  11.984  0.1238  3.7376  1.0716
  646ccc     O117137   5.568   8.457  12.045  0.0058 -0.2864 -0.3087
  646ccc     O217138   5.691   8.684  12.189 -0.0371  0.0085  0.0363
  646ccc     O317139   5.885   8.618  12.387  0.2255 -0.1820 -0.1276
  646ccc     O417140   5.840   8.313  12.386  0.3973 -0.7334  0.5161
  646ccc     C617141   5.906   8.141  12.163  0.8580  0.0811  0.1850
  646ccc     H617142   5.975   8.600  12.417 -0.3891  0.1133  2.0650
  646ccc     H717143   5.858   8.364  12.467 -0.4225  1.9424 -0.8520
  646ccc     H817144   5.607   8.690  12.140 -0.9047  0.1805  1.4606
  646ccc     H917145   6.008   8.121  12.200  1.1948 -1.5299 -1.5131
  646ccc    H1017146   5.878   8.097  12.067 -0.0173  3.6988 -1.3991
  646ccc     O517147   5.820   8.086  12.261 -0.0375  0.6949 -0.0137
  646ccc    H1117148   5.813   8.169  12.311 -1.2570 -0.4828  1.9371
  646ccc     O617149   5.749   8.324  12.090 -0.5379  0.7193 -0.1717
  647ccc     C117150   6.770   6.044  10.617  0.2076  0.3285  0.3849
  647ccc     C217151   6.649   5.993  10.696  0.5504  0.0422 -0.4242
  647ccc     H117152   6.762   5.987  10.524  0.1462 -0.3535  0.7934
  647ccc     H217153   6.568   6.003  10.623  0.7103 -1.5433 -0.8498
  647ccc     C317154   6.657   5.842  10.736 -1.2586  0.8160 -0.2251
  647ccc     C417155   6.795   5.808  10.803  0.0307 -0.3020 -0.0328
  647ccc     C517156   6.907   5.859  10.703 -0.6558  0.4583 -0.3095
  647ccc     H317157   6.810   5.864  10.896  0.2571  0.4683 -0.5249
  647ccc     H417158   6.661   5.785  10.643 -1.6282  0.8779 -0.2808
  647ccc     H517159   6.909   5.799  10.612  2.7899  0.2333 -0.2301
  647ccc     O117160   7.039   5.828  10.765 -0.4064 -0.0298 -0.1372
  647ccc     O217161   6.814   5.660  10.811 -0.0949 -0.0818 -0.2536
  647ccc     O317162   6.542   5.801  10.823  0.1224 -0.2580  0.2979
  647ccc     O417163   6.642   6.069  10.813 -0.5504 -0.3017  0.3689
  647ccc     C617164   6.777   6.196  10.580 -0.0482  0.0964 -0.0508
  647ccc     H617165   6.541   5.854  10.904  0.5675 -0.8002  0.6724
  647ccc     H717166   6.680   6.155  10.788  0.6905 -0.7476  0.6171
  647ccc     H817167   6.724   5.627  10.829 -0.9183  0.6277 -2.7060
  647ccc     H917168   6.703   6.234  10.509  1.5831  0.5163 -1.6028
  647ccc    H1017169   6.875   6.227  10.542  0.6910 -1.6429  0.3324
  647ccc     O517170   6.772   6.264  10.706  0.0346  0.5856 -0.2549
  647ccc    H1117171   6.746   6.355  10.685 -3.8160 -0.1196  0.7463
  647ccc     O617172   6.895   6.002  10.679  0.0909  0.2438 -0.4381
  648ccc     C117173   6.848   6.729  10.341 -0.5940 -0.3043 -0.4745
  648ccc     C217174   6.761   6.807  10.443  0.1786 -0.3275 -0.9409
  648ccc     H117175   6.782   6.668  10.278 -0.6385 -1.4119  0.6041
  648ccc     H217176   6.669   6.851  10.403 -0.2080  0.3875  0.6342
  648ccc     C317177   6.717   6.722  10.563  0.2355 -0.1743 -0.0248
  648ccc     C417178   6.820   6.619  10.618 -0.2031 -0.3373  0.2644
  648ccc     C517179   6.890   6.543  10.508  0.0044 -0.7639  0.4904
  648ccc     H317180   6.899   6.671  10.674 -1.4095  1.1021  0.6933
  648ccc     H417181   6.633   6.665  10.521  0.2668 -0.2108 -0.0382
  648ccc     H517182   6.822   6.472  10.459 -0.0969 -0.8386  0.7398
  648ccc     O117183   6.999   6.467  10.569 -0.7829 -0.5054 -0.3234
  648ccc     O217184   6.751   6.520  10.693 -0.6589 -0.2941  0.6307
  648ccc     O317185   6.657   6.806  10.666  0.1247 -0.2446 -0.1776
  648ccc     O417186   6.842   6.913  10.505  0.2038 -0.2988  0.5898
  648ccc     C617187   6.930   6.821  10.255  0.1288 -0.2549  0.1912
  648ccc     H617188   6.605   6.743  10.719 -1.3809 -0.3248 -1.6699
  648ccc     H717189   6.788   6.922  10.585  0.0665 -0.3910  0.5071
  648ccc     H817190   6.698   6.554  10.767  0.7465 -1.4490  2.2603
  648ccc     H917191   7.014   6.863  10.312  1.9949 -1.5173 -1.4996
  648ccc    H1017192   6.870   6.902  10.210 -0.4661 -0.8834 -0.1570
  648ccc     O517193   6.983   6.738  10.152 -0.0089  0.5681 -0.1600
  648ccc    H1117194   7.057   6.691  10.193  1.9162  1.5148 -2.3049
  648ccc     O617195   6.944   6.643  10.411  0.6833 -0.1228 -0.0600
  649ccc     C117196   8.863   5.473  11.715  0.6339 -0.0786  0.2746
  649ccc     C217197   8.940   5.506  11.580  0.5629  0.4848  0.3334
  649ccc     H117198   8.901   5.380  11.761 -3.2325 -1.4326  1.1448
  649ccc     H217199   9.048   5.518  11.585  0.6118  0.5462 -0.7576
  649ccc     C317200   8.913   5.392  11.483 -0.2861  0.0571  0.4637
  649ccc     C417201   8.766   5.341  11.470  0.6171  0.1965 -0.1139
  649ccc     C517202   8.703   5.320  11.605  0.5269 -0.0167 -0.1151
  649ccc     H317203   8.711   5.426  11.427 -0.5328 -1.0061 -1.1361
  649ccc     H417204   8.973   5.311  11.525  0.3257  0.5400  0.5377
  649ccc     H517205   8.733   5.225  11.650  0.7619  0.5488  0.9587
  649ccc     O117206   8.561   5.316  11.576  0.8358 -0.2586  0.4766
  649ccc     O217207   8.758   5.228  11.379  0.3130  0.2558  0.2261
  649ccc     O317208   8.964   5.423  11.358 -0.0285 -0.5308  0.7153
  649ccc     O417209   8.873   5.629  11.534 -0.4172  0.3706 -0.2068
  649ccc     C617210   8.869   5.571  11.837 -0.0461  0.4881  0.0760
  649ccc     H617211   8.945   5.343  11.306  1.3999 -0.5552  0.1958
  649ccc     H717212   8.854   5.673  11.619  0.0270 -0.1434  0.1634
  649ccc     H817213   8.666   5.211  11.354  0.5765  1.2438 -1.5670
  649ccc     H917214   8.961   5.559  11.897 -0.3124  0.8294  0.5646
  649ccc    H1017215   8.788   5.534  11.901  0.0601 -0.7356 -0.4638
  649ccc     O517216   8.837   5.699  11.792  0.7177  0.0325 -0.2003
  649ccc    H1117217   8.740   5.698  11.794  0.6797  0.0383 -1.1421
  649ccc     O617218   8.725   5.439  11.686  0.6299  0.1235 -0.5174
  650ccc     C117219   7.559   5.127  11.191 -0.5473 -0.4788 -0.4215
  650ccc     C217220   7.476   5.214  11.101 -0.3471  0.2200  0.0989
  650ccc     H117221   7.485   5.093  11.265 -0.7125  1.1720  0.2176
  650ccc     H217222   7.408   5.150  11.043 -0.6277  0.4401  0.1869
  650ccc     C317223   7.404   5.320  11.188  0.2806  0.9668 -0.3554
  650ccc     C417224   7.504   5.406  11.270  0.0688 -0.0098  0.1461
  650ccc     C517225   7.611   5.315  11.345  0.1942  0.3667 -0.0814
  650ccc     H317226   7.565   5.465  11.201  2.4243 -2.8852 -0.4577
  650ccc     H417227   7.345   5.270  11.266  1.0256  2.2094  1.0710
  650ccc     H517228   7.561   5.261  11.426 -0.5221 -0.4893 -1.0758
  650ccc     O117229   7.720   5.398  11.392 -0.0320  0.2055  0.1343
  650ccc     O217230   7.432   5.481  11.376 -0.6802  0.0529 -0.3983
  650ccc     O317231   7.336   5.417  11.110 -0.4061  0.4279  0.2722
  650ccc     O417232   7.569   5.269  11.009  0.3378  0.3384 -0.3463
  650ccc     C617233   7.609   4.999  11.122  0.1880 -0.1127 -0.3754
  650ccc     H617234   7.305   5.490  11.167  0.2758  1.2013 -0.3163
  650ccc     H717235   7.508   5.312  10.946 -2.1206 -0.3883  1.4069
  650ccc     H817236   7.370   5.543  11.336  0.3367  1.0011 -0.5523
  650ccc     H917237   7.687   5.028  11.050  0.8494  2.7821  1.3201
  650ccc    H1017238   7.525   4.950  11.071 -0.4090  0.6704 -0.1763
  650ccc     O517239   7.652   4.912  11.229 -0.4110  0.4259 -0.0869
  650ccc    H1117240   7.709   4.964  11.288  2.5745 -0.2605 -2.1491
  650ccc     O617241   7.660   5.210  11.261 -0.3100 -0.1804 -0.1157
  651ccc     C117242   7.825   8.296  11.142  0.5875  0.0611 -0.2458
  651ccc     C217243   7.729   8.390  11.229  0.2593  0.3718 -0.5200
  651ccc     H117244   7.908   8.260  11.203 -0.5453  1.1645  2.0959
  651ccc     H217245   7.684   8.329  11.308 -0.1573  1.0485 -0.2327
  651ccc     C317246   7.814   8.505  11.288 -0.0086  0.0855 -0.1548
  651ccc     C417247   7.880   8.579  11.176 -0.4066 -0.4316 -0.1600
  651ccc     C517248   7.957   8.497  11.072 -0.0833 -0.3424 -0.1164
  651ccc     H317249   7.803   8.637  11.124  0.2327  1.4317  0.8551
  651ccc     H417250   7.892   8.455  11.347 -1.4172 -1.9319  0.1210
  651ccc     H517251   8.054   8.466  11.113 -0.1887  1.8528  2.0132
  651ccc     O117252   7.974   8.578  10.954  0.1935 -0.8558 -0.4332
  651ccc     O217253   7.978   8.676  11.229  0.3930  0.3736  0.0601
  651ccc     O317254   7.733   8.586  11.378  0.3218 -0.1024 -0.5148
  651ccc     O417255   7.620   8.425  11.137  0.4361 -0.5438 -0.2293
  651ccc     C617256   7.754   8.172  11.080 -0.5489  0.0027  0.4328
  651ccc     H617257   7.787   8.650  11.426  1.6775 -0.3374 -1.6513
  651ccc     H717258   7.563   8.479  11.194 -0.0932  0.2241 -1.4465
  651ccc     H817259   8.003   8.727  11.151 -0.4304 -0.3213 -0.6870
  651ccc     H917260   7.705   8.117  11.162  1.3444 -1.4231  0.6616
  651ccc    H1017261   7.835   8.115  11.031 -2.7096  0.1700 -3.8593
  651ccc     O517262   7.659   8.216  10.986  0.0991 -0.8935 -0.0141
  651ccc    H1117263   7.645   8.305  11.023  1.6834 -0.2458 -0.8588
  651ccc     O617264   7.886   8.376  11.034  0.4513  0.4264  0.1418
  652ccc     C117265   8.907   8.233  10.347  0.2039 -0.2783 -0.1462
  652ccc     C217266   8.882   8.147  10.212 -0.0300 -0.0065 -0.4117
  652ccc     H117267   8.994   8.198  10.404  0.0364  0.7205  0.7495
  652ccc     H217268   8.974   8.157  10.154  0.1364  2.1724  0.1287
  652ccc     C317269   8.860   7.997  10.252  0.7157 -0.4693 -0.0199
  652ccc     C417270   8.747   7.979  10.357  0.0596 -0.4769  0.0349
  652ccc     C517271   8.762   8.086  10.473  0.5214 -0.2585  0.2785
  652ccc     H317272   8.651   8.011  10.315  0.6582  3.1171  1.0340
  652ccc     H417273   8.959   7.969  10.291  1.3774 -0.0007 -1.2838
  652ccc     H517274   8.840   8.040  10.535 -0.2004 -1.5397  0.2819
  652ccc     O117275   8.635   8.084  10.550  1.0452 -0.3218 -0.0909
  652ccc     O217276   8.740   7.845  10.407 -0.3641 -0.3586 -0.3496
  652ccc     O317277   8.831   7.927  10.121 -0.3246  0.7030 -0.7758
  652ccc     O417278   8.769   8.193  10.141 -0.0881  0.4131  0.2373
  652ccc     C617279   8.924   8.387  10.330  0.3183  0.0074 -0.2187
  652ccc     H617280   8.830   7.831  10.130  0.6031  0.0900 -5.0276
  652ccc     H717281   8.759   8.119  10.080 -0.2359 -0.3959  1.2247
  652ccc     H817282   8.682   7.798  10.344  2.0742 -3.8989 -0.2717
  652ccc     H917283   8.825   8.430  10.310  0.3559  0.1222 -0.1604
  652ccc    H1017284   8.992   8.404  10.245  1.9949  0.8061  1.2127
  652ccc     O517285   8.968   8.438  10.451 -0.5394 -0.3480  0.0051
  652ccc    H1117286   8.944   8.374  10.521  0.3382  1.0130  1.6455
  652ccc     O617287   8.797   8.213  10.436 -0.4664 -0.5360 -0.4035
  653ccc     C117288   7.293   7.576  12.462 -0.0631 -0.0015 -0.2308
  653ccc     C217289   7.223   7.439  12.440  0.1162  0.0427 -0.9124
  653ccc     H117290   7.217   7.652  12.443 -0.1726  0.0181  0.2786
  653ccc     H217291   7.133   7.428  12.503 -0.6063 -1.6390 -2.1630
  653ccc     C317292   7.182   7.433  12.292  0.5921 -0.0039  0.2040
  653ccc     C417293   7.292   7.475  12.190 -0.1749 -0.7778 -0.3085
  653ccc     C517294   7.375   7.600  12.230  0.3098 -0.0667  0.4686
  653ccc     H317295   7.368   7.395  12.196 -2.3030 -2.7818  2.4308
  653ccc     H417296   7.106   7.510  12.278  0.4781  0.1394  1.5125
  653ccc     H517297   7.325   7.695  12.207  3.0095  1.2565 -0.2966
  653ccc     O117298   7.502   7.581  12.153  0.7576  0.0394 -0.7537
  653ccc     O217299   7.237   7.486  12.057 -0.2608 -0.5617 -0.3237
  653ccc     O317300   7.136   7.304  12.258  0.3048 -0.1648  0.3808
  653ccc     O417301   7.329   7.335  12.470 -0.0326 -0.1290  0.6809
  653ccc     C617302   7.327   7.599  12.613 -0.0282 -0.0566 -0.0216
  653ccc     H617303   7.135   7.241  12.333 -3.0933 -0.3949  0.2960
  653ccc     H717304   7.396   7.390  12.515  1.4004 -0.2648 -1.1451
  653ccc     H817305   7.143   7.512  12.055 -0.3281 -0.7813 -2.2475
  653ccc     H917306   7.242   7.582  12.680  0.4580 -0.9434  0.3878
  653ccc    H1017307   7.362   7.702  12.625  2.0355 -0.4062 -2.1972
  653ccc     O517308   7.423   7.496  12.654  0.5152 -0.3573  0.3352
  653ccc    H1117309   7.430   7.505  12.751 -2.1282 -0.3991  0.6032
  653ccc     O617310   7.404   7.588  12.369  0.5219 -0.3862 -0.2168
  654ccc     C117311   7.998   8.147  12.449  0.3835 -0.5149 -0.2384
  654ccc     C217312   8.042   8.136  12.599  0.5447  0.0865  0.3595
  654ccc     H117313   7.908   8.084  12.448 -0.7323  1.0292 -1.1998
  654ccc     H217314   7.968   8.163  12.675 -0.9383  0.4963 -1.1815
  654ccc     C317315   8.086   7.986  12.618 -0.7769  0.6157 -0.1510
  654ccc     C417316   8.189   7.938  12.518  0.2678 -0.1535  0.9769
  654ccc     C517317   8.146   7.963  12.368 -0.4087  0.0788 -0.5463
  654ccc     H317318   8.284   7.991  12.531  1.2362 -1.4527 -0.4477
  654ccc     H417319   8.002   7.918  12.603 -0.0487 -0.2667 -0.3128
  654ccc     H517320   8.057   7.900  12.356 -0.0754 -0.7155  0.9151
  654ccc     O117321   8.254   7.933  12.268 -0.4972 -0.4728 -0.3553
  654ccc     O217322   8.210   7.795  12.536 -0.4515 -0.2814 -0.6591
  654ccc     O317323   8.132   7.963  12.752 -0.2203  0.0334  0.4177
  654ccc     O417324   8.154   8.219  12.610  0.1246  0.3545 -0.5693
  654ccc     C617325   7.962   8.296  12.414 -0.5068  0.2277  0.4744
  654ccc     H617326   8.177   8.045  12.776 -1.7017  1.7720 -2.2479
  654ccc     H717327   8.141   8.283  12.538  2.4364  1.8633  0.2418
  654ccc     H817328   8.271   7.801  12.613 -1.9005  0.5378  0.4736
  654ccc     H917329   7.890   8.325  12.492 -2.6602  1.7238 -1.9259
  654ccc    H1017330   7.919   8.293  12.313 -2.7935 -2.5622  1.3920
  654ccc     O517331   8.084   8.373  12.414  0.1147  0.2573 -0.3284
  654ccc    H1117332   8.059   8.463  12.386 -1.5709  0.9366  2.8480
  654ccc     O617333   8.105   8.100  12.358  0.3153 -0.4279 -0.1218
  655ccc     C117334   5.124   6.129   7.863 -0.4139  0.1100 -0.4579
  655ccc     C217335   5.039   6.245   7.824  0.2540 -0.2407  0.6424
  655ccc     H117336   5.076   6.075   7.944  0.8356 -1.6470 -0.8183
  655ccc     H217337   4.940   6.201   7.803  0.1539 -0.0635  0.7386
  655ccc     C317338   5.027   6.350   7.933  0.0613 -0.4543 -0.2404
  655ccc     C417339   5.167   6.393   7.985  0.2812  0.4015 -0.2581
  655ccc     C517340   5.256   6.270   8.014 -0.1667  0.2215  0.4926
  655ccc     H317341   5.220   6.450   7.907  0.4981  1.6211  0.7550
  655ccc     H417342   4.977   6.307   8.020 -0.0017  0.4476  0.1791
  655ccc     H517343   5.224   6.214   8.103 -2.1693 -1.4682 -1.1948
  655ccc     O117344   5.390   6.330   8.027 -0.1930  0.1154  0.0367
  655ccc     O217345   5.166   6.474   8.106  0.4382  0.0264 -0.0675
  655ccc     O317346   4.954   6.460   7.892  0.3812 -0.2048  0.4525
  655ccc     O417347   5.075   6.294   7.694 -0.0305  0.6880  0.3309
  655ccc     C617348   5.142   6.027   7.746 -0.9447 -0.0213 -0.4631
  655ccc     H617349   4.987   6.535   7.944  2.4799  0.6099 -1.8403
  655ccc     H717350   5.008   6.362   7.675 -2.2135 -0.5986  2.7291
  655ccc     H817351   5.254   6.513   8.121 -0.1655  1.2675  0.4170
  655ccc     H917352   5.217   6.061   7.675 -0.7214 -1.8423 -1.1698
  655ccc    H1017353   5.045   6.018   7.695 -0.2759  0.5415 -1.8827
  655ccc     O517354   5.182   5.903   7.804 -0.3209  0.0445 -0.0801
  655ccc    H1117355   5.237   5.917   7.884  0.7888  0.9492 -0.9647
  655ccc     O617356   5.255   6.173   7.907 -0.6803 -0.1223  0.0802
  656ccc     C117357   6.300   6.591   7.390  0.2199  0.4469 -0.3889
  656ccc     C217358   6.450   6.604   7.445 -0.2982  0.0647  0.5659
  656ccc     H117359   6.263   6.695   7.389 -3.2323 -0.6432  0.3217
  656ccc     H217360   6.495   6.678   7.377 -1.8764  1.5193  1.0254
  656ccc     C317361   6.455   6.650   7.595 -0.0094 -0.5102 -0.0675
  656ccc     C417362   6.356   6.573   7.686 -0.1063  0.1504  0.1300
  656ccc     C517363   6.213   6.580   7.625 -1.0283  0.6693  0.3786
  656ccc     H317364   6.380   6.467   7.691  2.2729  0.6093 -0.3019
  656ccc     H417365   6.425   6.756   7.597  0.6133 -0.2838  3.0809
  656ccc     H517366   6.166   6.679   7.631  0.0327  1.3570 -1.6853
  656ccc     O117367   6.134   6.491   7.710  0.3223  0.6679  0.1184
  656ccc     O217368   6.366   6.633   7.817  0.4243  0.0146  0.6467
  656ccc     O317369   6.581   6.639   7.666 -0.0114 -0.1045 -0.7706
  656ccc     O417370   6.522   6.478   7.451  0.1209 -0.2362  0.9574
  656ccc     C617371   6.285   6.527   7.255 -0.3738 -0.3146 -0.3591
  656ccc     H617372   6.566   6.641   7.762  1.6822  0.8230 -0.4836
  656ccc     H717373   6.605   6.494   7.499  1.2660  1.7223 -1.4547
  656ccc     H817374   6.344   6.562   7.880  2.3054 -0.2188  1.0993
  656ccc     H917375   6.353   6.577   7.185  0.8426  0.7769  1.5279
  656ccc    H1017376   6.182   6.539   7.220 -0.3875  0.4526 -0.0768
  656ccc     O517377   6.320   6.387   7.254  0.2185 -0.4060 -0.5020
  656ccc    H1117378   6.401   6.389   7.308 -0.6485 -0.6804  0.8279
  656ccc     O617379   6.214   6.524   7.485 -0.2185 -0.2487  0.2392
  657ccc     C117380   5.253   6.467   8.996 -0.8249 -0.1692  0.6496
  657ccc     C217381   5.170   6.343   8.959 -0.4013  0.4114  0.4798
  657ccc     H117382   5.337   6.424   9.051 -0.7923 -0.0238  0.7147
  657ccc     H217383   5.222   6.291   8.877 -0.7342  1.1439 -0.2100
  657ccc     C317384   5.132   6.262   9.082 -0.5434 -0.1154  0.3104
  657ccc     C417385   5.081   6.356   9.193 -0.1722 -0.4444  0.0846
  657ccc     C517386   5.167   6.481   9.218 -0.2180  0.2062 -0.2609
  657ccc     H317387   4.980   6.392   9.168 -0.7454 -0.0477  2.6730
  657ccc     H417388   5.229   6.227   9.120  0.2024  1.5543  0.0745
  657ccc     H517389   5.268   6.455   9.250 -0.1095  0.5499 -0.3247
  657ccc     O117390   5.108   6.570   9.323 -0.2963 -0.0558  0.3509
  657ccc     O217391   5.071   6.282   9.319 -0.0378  0.4581 -0.3934
  657ccc     O317392   5.054   6.144   9.053  0.4534 -0.5941 -0.3927
  657ccc     O417393   5.055   6.397   8.906  0.0456 -0.0704  0.2214
  657ccc     C617394   5.300   6.554   8.880 -0.1317 -0.4544  0.0573
  657ccc     H617395   5.043   6.108   9.143  2.0310  0.3208  0.2164
  657ccc     H717396   5.089   6.483   8.875 -1.7624  0.8491  0.6531
  657ccc     H817397   5.014   6.324   9.385 -1.9017 -0.1333 -1.5396
  657ccc     H917398   5.363   6.489   8.818  0.1841 -2.3209  2.2111
  657ccc    H1017399   5.367   6.631   8.920  0.2549 -1.5601  1.6104
  657ccc     O517400   5.191   6.603   8.808 -0.1721  0.2279 -0.6275
  657ccc    H1117401   5.224   6.688   8.772 -1.2915  1.1546  0.4735
  657ccc     O617402   5.178   6.549   9.094 -0.0536 -0.5630  0.2296
  658ccc     C117403   4.615   7.404   8.955  0.2751 -0.0673 -0.0839
  658ccc     C217404   4.662   7.530   8.884 -0.2453 -0.9017  0.2192
  658ccc     H117405   4.592   7.437   9.057  0.4705 -1.0197  0.2765
  658ccc     H217406   4.581   7.604   8.884 -1.9914 -2.7554  0.4828
  658ccc     C317407   4.788   7.590   8.953 -0.3107 -0.4979 -0.0051
  658ccc     C417408   4.908   7.487   8.954 -0.6596 -0.4312  0.7347
  658ccc     C517409   4.851   7.352   9.018  0.3634  0.1970 -0.2110
  658ccc     H317410   4.940   7.468   8.850 -0.8961 -1.3131  0.8142
  658ccc     H417411   4.770   7.603   9.060 -0.9111  1.4492 -0.3060
  658ccc     H517412   4.835   7.370   9.125  0.6193 -1.3361  0.1056
  658ccc     O117413   4.937   7.241   8.992 -0.2815 -0.0317 -0.4596
  658ccc     O217414   5.017   7.544   9.033  0.2168  0.3261 -0.1372
  658ccc     O317415   4.833   7.718   8.894  0.6683 -0.0801 -0.1178
  658ccc     O417416   4.705   7.506   8.752 -0.1737 -0.3127 -0.5284
  658ccc     C617417   4.490   7.342   8.896 -0.1088 -0.7476  0.6466
  658ccc     H617418   4.918   7.733   8.939  1.7020 -3.6605 -0.5718
  658ccc     H717419   4.736   7.591   8.713  0.0750 -0.0820  0.1623
  658ccc     H817420   5.079   7.469   9.042 -3.3618 -2.7884  1.3156
  658ccc     H917421   4.516   7.255   8.834 -1.0266  0.0519 -0.9348
  658ccc    H1017422   4.435   7.416   8.836 -1.7430 -2.3526  0.0320
  658ccc     O517423   4.412   7.294   8.999  0.6600 -0.0792  0.0727
  658ccc    H1117424   4.475   7.238   9.047  0.9243 -1.6078 -1.9372
  658ccc     O617425   4.727   7.313   8.953 -0.0596 -0.2186  0.2259
  659ccc     C117426   7.368   4.612  10.113 -0.0305  0.1388  0.1343
  659ccc     C217427   7.395   4.468  10.112 -0.0273  0.3534  0.5282
  659ccc     H117428   7.321   4.633  10.210 -0.0363 -1.0289  0.3992
  659ccc     H217429   7.476   4.451  10.184  1.6002  4.4165 -0.0772
  659ccc     C317430   7.259   4.386  10.124 -0.6992 -0.1308  0.1040
  659ccc     C417431   7.157   4.442  10.013 -0.8701  0.5010 -0.1901
  659ccc     C517432   7.147   4.594  10.013  0.3841 -0.8298 -0.6760
  659ccc     H317433   7.192   4.416   9.912 -1.7450 -0.5230 -0.2430
  659ccc     H417434   7.207   4.405  10.219 -2.0094  0.8313 -0.7739
  659ccc     H517435   7.101   4.629  10.107  0.9910 -2.9403  0.4744
  659ccc     O117436   7.073   4.646   9.897  0.2057 -0.3958  0.7978
  659ccc     O217437   7.035   4.384  10.045 -0.0626 -0.5548  0.5337
  659ccc     O317438   7.272   4.242  10.113 -0.5812  0.0259  0.8111
  659ccc     O417439   7.444   4.431   9.984 -0.1400  0.0570 -0.6081
  659ccc     C617440   7.490   4.698  10.110  0.2856 -0.2960 -0.0132
  659ccc     H617441   7.299   4.202  10.197  1.1723  0.6561  0.5815
  659ccc     H717442   7.504   4.506   9.967  0.3305  0.2144  1.4553
  659ccc     H817443   7.057   4.292  10.068 -0.7172 -1.2207 -1.3654
  659ccc     H917444   7.520   4.728  10.211  0.9884  0.1670 -0.3478
  659ccc    H1017445   7.465   4.795  10.066 -3.5818 -1.6480 -1.1368
  659ccc     O517446   7.600   4.633  10.043  0.5476 -0.2913  0.2932
  659ccc    H1117447   7.657   4.709  10.020 -0.6470  0.6755  0.4553
  659ccc     O617448   7.280   4.651  10.011 -0.0109  0.6156 -0.4274
  660ccc     C117449   6.336   4.653   9.141 -0.6660 -0.0335  0.2196
  660ccc     C217450   6.324   4.509   9.108 -0.1428 -0.1063  0.1840
  660ccc     H117451   6.407   4.692   9.067 -2.3899  0.5771 -1.1552
  660ccc     H217452   6.292   4.509   9.003  1.1094 -1.1140 -0.2174
  660ccc     C317453   6.463   4.446   9.123  0.1502  0.0824  0.2057
  660ccc     C417454   6.524   4.469   9.261 -0.4227 -0.6271 -0.8060
  660ccc     C517455   6.536   4.617   9.293  0.0385  0.1809 -0.4845
  660ccc     H317456   6.447   4.431   9.330 -1.3629 -0.5094 -1.7639
  660ccc     H417457   6.528   4.483   9.042  0.3052 -0.1668  0.2157
  660ccc     H517458   6.602   4.663   9.219  0.5653  1.8509  0.9358
  660ccc     O117459   6.594   4.643   9.423 -0.2869 -0.4826  0.6300
  660ccc     O217460   6.645   4.391   9.267  0.0415  0.0567 -0.5500
  660ccc     O317461   6.461   4.306   9.096  0.3425  0.0752 -0.1741
  660ccc     O417462   6.235   4.460   9.207  0.3802  0.5409 -0.1402
  660ccc     C617463   6.213   4.748   9.126  0.7570  0.1429 -0.0140
  660ccc     H617464   6.548   4.279   9.132  0.0997  1.0946  1.2575
  660ccc     H717465   6.188   4.542   9.229 -1.8350 -0.3947 -1.1149
  660ccc     H817466   6.708   4.430   9.331 -0.8903 -0.9231  1.0335
  660ccc     H917467   6.157   4.719   9.037 -0.7509  1.1990  0.5462
  660ccc    H1017468   6.248   4.852   9.127  0.5145  0.2730 -1.9552
  660ccc     O517469   6.131   4.714   9.239 -0.0479  0.3731 -0.4219
  660ccc    H1117470   6.058   4.776   9.227  0.9374  1.1809 -3.0612
  660ccc     O617471   6.404   4.675   9.268 -0.3650 -0.0423 -0.0196
  661ccc     C117472   6.391   4.294   9.576  0.7456  0.2805  0.2351
  661ccc     C217473   6.452   4.228   9.708 -0.2701 -0.2049  0.2998
  661ccc     H117474   6.468   4.319   9.503  1.8796 -0.7953  1.0233
  661ccc     H217475   6.511   4.142   9.674 -0.7906 -1.5724  2.6026
  661ccc     C317476   6.546   4.337   9.772 -0.7857 -0.3147  0.8484
  661ccc     C417477   6.463   4.462   9.793  0.7026  0.5199  0.0186
  661ccc     C517478   6.408   4.523   9.664 -0.1948 -0.7043  0.4076
  661ccc     H317479   6.375   4.437   9.852  1.2301 -0.4588  0.4107
  661ccc     H417480   6.620   4.366   9.696  0.0549 -0.4538  1.5931
  661ccc     H517481   6.492   4.555   9.602 -0.9439  0.2282 -0.1458
  661ccc     O117482   6.319   4.628   9.693  0.2379 -0.0258 -0.5745
  661ccc     O217483   6.550   4.560   9.859 -0.1815 -0.1165  0.2671
  661ccc     O317484   6.624   4.301   9.889 -0.1626  0.0501 -0.9097
  661ccc     O417485   6.346   4.182   9.795  0.2270 -0.0093  0.1278
  661ccc     C617486   6.280   4.200   9.515  0.3462 -0.2538  0.3907
  661ccc     H617487   6.683   4.376   9.904 -0.3084 -0.1526  0.8195
  661ccc     H717488   6.386   4.114   9.852 -0.5292 -0.4875  0.1064
  661ccc     H817489   6.504   4.645   9.849  1.7743  1.0412  0.5461
  661ccc     H917490   6.201   4.191   9.591  1.2915  0.4578  1.5046
  661ccc    H1017491   6.323   4.100   9.505 -0.7378 -0.8668  1.4999
  661ccc     O517492   6.239   4.254   9.394  0.2878 -0.1179 -0.1601
  661ccc    H1117493   6.191   4.333   9.425  0.0230  0.0135 -0.8829
  661ccc     O617494   6.323   4.419   9.602  0.0270  0.4847 -0.3004
  662ccc     C117495   5.579   4.301  10.034  0.5251  0.5891 -0.0630
  662ccc     C217496   5.633   4.212   9.915  0.5840 -0.1257  0.2928
  662ccc     H117497   5.471   4.316  10.027  0.8778  2.5387 -2.5502
  662ccc     H217498   5.576   4.119   9.902 -0.9283  0.7896  0.1769
  662ccc     C317499   5.604   4.291   9.785 -1.0612 -0.5126 -0.6654
  662ccc     C417500   5.648   4.440   9.799  0.3943 -0.3649 -0.4103
  662ccc     C517501   5.598   4.515   9.924 -0.5574 -0.4532  0.5080
  662ccc     H317502   5.757   4.449   9.799  0.5042 -1.4611  0.2335
  662ccc     H417503   5.495   4.302   9.772 -1.5242 -1.8328  1.5528
  662ccc     H517504   5.490   4.531   9.922 -0.6043 -0.8017 -0.7983
  662ccc     O117505   5.689   4.630   9.940  0.3053  0.6245  0.4581
  662ccc     O217506   5.597   4.509   9.680 -0.5735 -0.0466 -0.1649
  662ccc     O317507   5.662   4.232   9.667 -0.3274 -0.0362  0.0692
  662ccc     O417508   5.772   4.188   9.930 -0.4733 -0.2690 -0.4782
  662ccc     C617509   5.593   4.223  10.168  0.3610 -0.3547  0.1621
  662ccc     H617510   5.625   4.142   9.659  0.6751 -0.3949 -0.6680
  662ccc     H717511   5.785   4.106   9.878  1.1233 -1.2240  1.2840
  662ccc     H817512   5.500   4.516   9.684 -0.6430  0.7571  5.3996
  662ccc     H917513   5.696   4.240  10.202 -0.2629  2.2629  0.9256
  662ccc    H1017514   5.562   4.118  10.153  0.2570 -0.4014  0.6616
  662ccc     O517515   5.500   4.270  10.268  0.2496 -0.3187  0.6287
  662ccc    H1117516   5.537   4.256  10.357 -2.0460 -0.0280  1.6903
  662ccc     O617517   5.644   4.432  10.034 -0.1015 -0.2037  0.3973
  663ccc     C117518   8.629   4.944  10.923  0.0422  0.0408  0.0377
  663ccc     C217519   8.613   4.799  10.967 -0.8587  0.3049 -0.4208
  663ccc     H117520   8.572   4.995  11.001 -0.6024  2.2021 -1.7459
  663ccc     H217521   8.653   4.788  11.068 -1.3598  0.0941 -0.2392
  663ccc     C317522   8.461   4.757  10.964 -0.3307 -1.3889 -0.1208
  663ccc     C417523   8.394   4.795  10.827 -1.1229  0.0375  0.6344
  663ccc     C517524   8.424   4.948  10.792 -0.4207  0.8837 -0.0919
  663ccc     H317525   8.441   4.745  10.741 -0.6651  3.0995 -1.0441
  663ccc     H417526   8.418   4.821  11.041 -0.8008  0.6335 -1.9486
  663ccc     H517527   8.373   5.019  10.858 -0.3734 -0.3417  1.3220
  663ccc     O117528   8.384   4.964  10.660 -0.2227 -0.1126  0.6514
  663ccc     O217529   8.255   4.764  10.834 -0.1226 -0.1093  0.0612
  663ccc     O317530   8.430   4.621  10.993  0.2655  0.4976  0.1619
  663ccc     O417531   8.684   4.724  10.879  0.2790  0.2106 -0.3440
  663ccc     C617532   8.768   5.018  10.944 -0.0784  0.5198 -0.1929
  663ccc     H617533   8.492   4.565  10.943 -0.2847  0.3470 -0.3605
  663ccc     H717534   8.758   4.783  10.855 -0.4581  1.9998  1.4576
  663ccc     H817535   8.220   4.772  10.744 -0.9468  0.9854  0.4573
  663ccc     H917536   8.800   5.018  11.049  0.9395  0.8142 -0.4880
  663ccc    H1017537   8.756   5.124  10.920 -1.8829  0.2221 -0.7517
  663ccc     O517538   8.866   4.959  10.856  0.4825 -0.7469 -0.6026
  663ccc    H1117539   8.878   5.023  10.785 -0.3896 -0.9530 -0.9474
  663ccc     O617540   8.569   4.965  10.798  0.1712  0.2455  0.2479
  664ccc     C117541   8.498   5.959  11.208 -1.2780 -0.0541 -0.1499
  664ccc     C217542   8.658   5.974  11.217  0.4476 -0.4622 -0.0140
  664ccc     H117543   8.452   5.942  11.306 -1.4203  0.8674 -0.0451
  664ccc     H217544   8.690   6.050  11.289  0.3420 -2.3439  2.1444
  664ccc     C317545   8.717   5.842  11.275 -0.3122 -0.0940 -0.6778
  664ccc     C417546   8.673   5.720  11.179 -0.2630 -0.5197  0.6272
  664ccc     C517547   8.519   5.723  11.151 -0.6309  1.4720  0.1402
  664ccc     H317548   8.730   5.720  11.085 -0.4809  1.0048  0.4634
  664ccc     H417549   8.684   5.819  11.377 -0.5085 -2.2928 -1.1938
  664ccc     H517550   8.465   5.684  11.237  0.3172  0.4508  0.2975
  664ccc     O117551   8.501   5.641  11.036 -0.4154 -0.1279 -0.8533
  664ccc     O217552   8.706   5.593  11.242 -0.4783 -0.0087 -0.4235
  664ccc     O317553   8.866   5.866  11.281  0.3343  0.4691  0.4137
  664ccc     O417554   8.686   6.015  11.082  0.5581 -0.4105  0.0663
  664ccc     C617555   8.427   6.082  11.142  0.3994 -0.1204 -0.3246
  664ccc     H617556   8.889   5.960  11.278  2.5246 -0.0276  0.0782
  664ccc     H717557   8.601   6.044  11.043  0.6177 -0.3332 -0.0066
  664ccc     H817558   8.684   5.519  11.184  0.8486  0.4348 -1.5694
  664ccc     H917559   8.454   6.178  11.189 -1.8026 -0.2001  1.2029
  664ccc    H1017560   8.318   6.071  11.148  0.4214 -0.2644 -0.1951
  664ccc     O517561   8.457   6.097  10.999  0.3362  0.7611 -0.6729
  664ccc    H1117562   8.390   6.161  10.968 -0.5104  0.0997 -0.2571
  664ccc     O617563   8.472   5.851  11.116 -0.3041  0.6586  0.2034
  665ccc     C117564   7.037   4.299   9.701 -0.7839 -0.0084  0.4229
  665ccc     C217565   6.930   4.316   9.591 -0.4112  0.5073 -0.5855
  665ccc     H117566   7.017   4.356   9.793  3.1014  0.9160  0.8869
  665ccc     H217567   6.835   4.282   9.633  0.3714 -0.1830  0.6961
  665ccc     C317568   6.917   4.464   9.547  0.1012  0.4210 -0.6721
  665ccc     C417569   7.051   4.524   9.499 -0.0196  0.3698 -0.3581
  665ccc     C517570   7.154   4.498   9.617 -0.0694  0.0202  0.1993
  665ccc     H317571   7.081   4.455   9.419 -2.4029 -0.1857 -0.8489
  665ccc     H417572   6.902   4.516   9.643  0.5669 -1.3213  0.4021
  665ccc     H517573   7.117   4.565   9.697 -0.2323 -0.9598  0.9620
  665ccc     O117574   7.290   4.533   9.582  0.0578  0.3347  0.1808
  665ccc     O217575   7.020   4.657   9.453  0.1713  0.3960  0.0337
  665ccc     O317576   6.823   4.485   9.443 -0.2156  0.0272 -0.2881
  665ccc     O417577   6.974   4.234   9.488 -0.6805  0.2055  0.3695
  665ccc     C617578   7.064   4.151   9.754 -0.2018  0.0328  1.0522
  665ccc     H617579   6.855   4.566   9.400  1.3422 -1.0356 -1.2037
  665ccc     H717580   7.020   4.165   9.538  0.7289  0.0399 -1.0687
  665ccc     H817581   7.103   4.702   9.429  0.5076  0.4049  1.1719
  665ccc     H917582   6.973   4.120   9.807 -0.4429 -0.9223  0.1147
  665ccc    H1017583   7.154   4.145   9.817  0.2387 -0.6673  0.3780
  665ccc     O517584   7.090   4.065   9.641 -0.2736 -0.0971 -0.6569
  665ccc    H1117585   7.079   3.977   9.681  0.2454  0.2442  0.2455
  665ccc     O617586   7.159   4.363   9.653 -0.2808 -0.5352  0.3258
  666ccc     C117587   8.089   4.468   9.027 -0.6800 -0.3030  0.1552
  666ccc     C217588   8.039   4.490   8.880 -0.3114  0.0972 -0.2411
  666ccc     H117589   8.099   4.361   9.049  0.6307 -0.0831  0.7219
  666ccc     H217590   8.105   4.436   8.811  0.3481  1.1433 -0.4520
  666ccc     C317591   7.904   4.422   8.859 -0.3902 -0.4991 -0.3098
  666ccc     C417592   7.795   4.471   8.969  0.2354 -0.0961  0.5058
  666ccc     C517593   7.860   4.453   9.114 -0.3698 -0.1391 -0.0350
  666ccc     H317594   7.776   4.579   8.958 -0.1293 -0.2691 -0.7683
  666ccc     H417595   7.919   4.314   8.872  1.5834 -0.0277  2.0393
  666ccc     H517596   7.884   4.350   9.143  1.7341  0.4241  0.3664
  666ccc     O117597   7.768   4.503   9.217 -0.1112 -0.1721  0.0221
  666ccc     O217598   7.671   4.404   8.947 -0.3735 -0.5992 -0.2306
  666ccc     O317599   7.868   4.455   8.723  0.1868  0.0937 -0.4033
  666ccc     O417600   8.040   4.630   8.857 -0.6577  0.3117 -0.6595
  666ccc     C617601   8.224   4.533   9.061  0.2237 -0.1084  0.2998
  666ccc     H617602   7.809   4.381   8.704 -0.5536  0.3652  0.7466
  666ccc     H717603   8.009   4.635   8.765  0.6800 -1.6365 -1.2776
  666ccc     H817604   7.636   4.419   8.858 -0.7335 -0.2924 -0.0391
  666ccc     H917605   8.302   4.492   8.996  1.5675  0.6128  1.4060
  666ccc    H1017606   8.239   4.495   9.164 -1.2819  0.8287  0.8968
  666ccc     O517607   8.224   4.668   9.041  0.6833 -0.3060 -0.4884
  666ccc    H1117608   8.140   4.677   8.993  0.0810  0.9287  0.7327
  666ccc     O617609   7.990   4.523   9.113 -0.5402 -0.5357 -0.2493
  667ccc     C117610   5.512   6.411  11.240 -0.1216 -0.3999  0.3739
  667ccc     C217611   5.565   6.359  11.373 -0.5563 -0.2026 -0.0495
  667ccc     H117612   5.414   6.367  11.219  0.5223 -1.0211 -1.6400
  667ccc     H217613   5.489   6.369  11.450 -0.7050  0.0489 -0.2280
  667ccc     C317614   5.594   6.205  11.365 -0.5703 -0.1627  0.2174
  667ccc     C417615   5.702   6.176  11.248 -0.4349  0.8589  0.1867
  667ccc     C517616   5.639   6.232  11.123  0.3253 -0.1358  0.2772
  667ccc     H317617   5.792   6.240  11.251  0.8947 -0.7391 -2.1405
  667ccc     H417618   5.494   6.176  11.330  0.3882 -1.9543 -1.2046
  667ccc     H517619   5.545   6.179  11.106 -0.1486  1.0862 -1.1210
  667ccc     O117620   5.733   6.214  11.009 -0.4126 -0.2776  0.1430
  667ccc     O217621   5.732   6.030  11.231 -0.2966 -0.1286  0.0868
  667ccc     O317622   5.626   6.139  11.488  0.0192 -0.3352 -0.3919
  667ccc     O417623   5.683   6.433  11.402 -0.0945  0.1681 -0.3520
  667ccc     C617624   5.477   6.560  11.239 -0.3394 -0.3281  0.3045
  667ccc     H617625   5.710   6.168  11.528  0.4866 -1.6393 -0.3801
  667ccc     H717626   5.704   6.391  11.487 -2.0409 -1.7583 -0.7293
  667ccc     H817627   5.818   6.015  11.272 -0.3510 -0.7641 -0.0269
  667ccc     H917628   5.570   6.617  11.256 -0.4814  0.0749 -0.2378
  667ccc    H1017629   5.402   6.576  11.317  0.4951  0.8170  0.9089
  667ccc     O517630   5.413   6.583  11.116  0.1253 -0.4537  0.0151
  667ccc    H1117631   5.457   6.521  11.056 -1.8561 -1.2661 -0.7023
  667ccc     O617632   5.609   6.372  11.132  0.2314 -0.5133  0.2202
  668ccc     C117633   5.035   5.488  10.649  0.6139 -0.1596  0.6186
  668ccc     C217634   5.031   5.364  10.742  0.3287  0.6521  0.2328
  668ccc     H117635   5.036   5.460  10.543 -1.3266  1.5145  0.0815
  668ccc     H217636   4.953   5.301  10.696  0.1654  0.7242  0.4100
  668ccc     C317637   5.167   5.296  10.723 -0.1627 -0.2422 -0.3204
  668ccc     C417638   5.282   5.389  10.772 -0.1562  0.2986  0.0374
  668ccc     C517639   5.275   5.516  10.690  0.6668  0.1608 -0.3047
  668ccc     H317640   5.275   5.410  10.880  0.3251 -0.7596  0.2893
  668ccc     H417641   5.181   5.267  10.618 -0.3473 -2.0378  0.1177
  668ccc     H517642   5.307   5.487  10.589  0.2472  1.6228 -0.8835
  668ccc     O117643   5.382   5.601  10.726  0.1430 -0.1800 -0.0955
  668ccc     O217644   5.402   5.305  10.753 -0.4856  0.0381 -0.2452
  668ccc     O317645   5.173   5.177  10.801 -0.0467 -0.2160 -0.4406
  668ccc     O417646   4.994   5.382  10.877 -0.2356  0.5750  0.4610
  668ccc     C617647   4.900   5.565  10.675  0.2022 -0.5625 -0.2613
  668ccc     H617648   5.269   5.163  10.792 -0.3076 -2.1591 -0.6908
  668ccc     H717649   5.002   5.290  10.909 -0.2706  0.5722  0.4612
  668ccc     H817650   5.469   5.360  10.797 -0.5384  1.7723 -2.2062
  668ccc     H917651   4.903   5.634  10.760 -0.6669 -0.6122 -0.1816
  668ccc    H1017652   4.812   5.500  10.686  0.6563 -0.8266  2.5012
  668ccc     O517653   4.884   5.653  10.559  0.3921 -0.5827 -0.1868
  668ccc    H1117654   4.840   5.735  10.588 -0.2895 -0.9485 -0.1947
  668ccc     O617655   5.141   5.577  10.685 -0.6542  0.4042 -0.4725
  669ccc     C117656   6.281   4.417  11.081 -0.3263  0.2591 -0.2578
  669ccc     C217657   6.202   4.394  11.205 -0.3779  0.2034  0.1748
  669ccc     H117658   6.335   4.332  11.039  1.0329  1.7516 -1.6826
  669ccc     H217659   6.146   4.301  11.189 -0.0659 -0.2615  1.6066
  669ccc     C317660   6.295   4.371  11.329  0.6002  0.2000 -0.9329
  669ccc     C417661   6.395   4.483  11.347  0.3681 -0.2086  0.0653
  669ccc     C517662   6.470   4.510  11.217  0.4030 -0.4355  0.7277
  669ccc     H317663   6.345   4.575  11.379 -0.4213 -0.6071 -0.0006
  669ccc     H417664   6.349   4.278  11.306  1.5199 -0.7172  3.9085
  669ccc     H517665   6.537   4.425  11.202  0.5580  0.0918 -1.9271
  669ccc     O117666   6.552   4.624  11.230 -0.2483 -0.1509  0.0767
  669ccc     O217667   6.493   4.442  11.448  0.2864  0.6596  0.2198
  669ccc     O317668   6.223   4.351  11.456  0.6552 -0.4077  0.2090
  669ccc     O417669   6.100   4.494  11.225 -0.1890 -0.1783 -0.3503
  669ccc     C617670   6.185   4.471  10.968  0.0434 -0.7152  0.5297
  669ccc     H617671   6.176   4.265  11.457  2.3444 -1.5310 -2.8591
  669ccc     H717672   6.041   4.462  11.295 -0.4925  0.3428 -0.3676
  669ccc     H817673   6.471   4.492  11.529  0.2222 -0.0426  0.6531
  669ccc     H917674   6.121   4.554  11.003  1.3152  0.0506  1.1026
  669ccc    H1017675   6.115   4.391  10.942 -0.2475 -0.2695 -0.0792
  669ccc     O517676   6.273   4.505  10.858 -0.2930  0.0958  0.2620
  669ccc    H1117677   6.357   4.492  10.905  0.3216  1.2988 -0.4507
  669ccc     O617678   6.382   4.519  11.110  0.7830  0.3068  0.1605
  670ccc     C117679   6.352   4.291  10.288 -0.1470  0.2743  0.3818
  670ccc     C217680   6.198   4.317  10.300 -0.4690  0.3415 -0.0059
  670ccc     H117681   6.365   4.185  10.311 -1.4990  0.1112  0.4570
  670ccc     H217682   6.155   4.249  10.225  2.5521  1.9515 -3.5284
  670ccc     C317683   6.148   4.288  10.447 -0.4647 -0.2785 -0.2841
  670ccc     C417684   6.240   4.359  10.554  0.0402  0.3801 -0.2625
  670ccc     C517685   6.392   4.342  10.525  0.0442 -0.1694  0.0334
  670ccc     H317686   6.219   4.466  10.543 -1.6773  0.1124  0.2008
  670ccc     H417687   6.163   4.183  10.473 -0.9650 -0.7611 -1.8235
  670ccc     H517688   6.408   4.236  10.548 -0.5108 -1.3018 -4.1036
  670ccc     O117689   6.464   4.444  10.605  0.2694  0.2381  0.9864
  670ccc     O217690   6.204   4.306  10.685 -0.2625 -0.1316  0.4007
  670ccc     O317691   6.010   4.313  10.460  0.1950 -0.2865 -0.2030
  670ccc     O417692   6.173   4.454  10.270 -0.4857 -0.4380  0.7941
  670ccc     C617693   6.401   4.311  10.138  0.0786 -0.0714 -0.2235
  670ccc     H617694   6.016   4.391  10.518  0.5085 -2.4846  2.9865
  670ccc     H717695   6.077   4.464  10.261 -0.8008 -1.2799  2.7080
  670ccc     H817696   6.222   4.379  10.746 -0.6468 -0.6648  1.1843
  670ccc     H917697   6.435   4.411  10.108 -0.1515  0.2035  0.4176
  670ccc    H1017698   6.323   4.277  10.069 -2.5688  2.3772  1.3587
  670ccc     O517699   6.517   4.229  10.132 -0.4334 -0.2115 -0.7436
  670ccc    H1117700   6.539   4.253  10.040  0.9581  1.5393 -0.0071
  670ccc     O617701   6.427   4.362  10.384  0.0859 -0.0099  0.3992
  671ccc     C117702   7.390  10.862   8.038  0.0205 -0.2687  0.2803
  671ccc     C217703   7.396  10.943   7.903 -0.4230 -0.6372  0.2520
  671ccc     H117704   7.416  10.758   8.012  0.7754 -0.4450  1.6783
  671ccc     H217705   7.498  10.934   7.862 -1.2060 -1.9685 -1.5169
  671ccc     C317706   7.296  10.893   7.798  0.5031  0.7708 -0.0939
  671ccc     C417707   7.153  10.882   7.856 -0.1703 -0.2462 -0.2719
  671ccc     C517708   7.152  10.808   7.996  0.2134 -0.7150  0.2372
  671ccc     H317709   7.118  10.983   7.881 -2.0677 -1.0113  0.3761
  671ccc     H417710   7.323  10.788   7.784 -0.8214  0.1606  1.5708
  671ccc     H517711   7.175  10.701   7.987 -2.0262 -1.2543  0.3061
  671ccc     O117712   7.021  10.813   8.060 -0.2201 -0.1376  0.6332
  671ccc     O217713   7.068  10.814   7.754  0.0515 -0.4099  0.3877
  671ccc     O317714   7.311  10.958   7.669  0.4418 -0.7346  0.3443
  671ccc     O417715   7.364  11.077   7.935 -0.1048  0.3083 -0.4281
  671ccc     C617716   7.483  10.911   8.147  0.0299  0.0402 -0.7601
  671ccc     H617717   7.405  10.969   7.649  0.3378 -2.5586 -1.5296
  671ccc     H717718   7.373  11.118   7.847  0.8400 -1.8820 -1.4267
  671ccc     H817719   6.981  10.791   7.792 -0.5173 -1.1921 -1.3059
  671ccc     H917720   7.430  10.992   8.200 -1.0749  0.1732 -2.0238
  671ccc    H1017721   7.580  10.944   8.111  1.4505 -1.5184  1.3637
  671ccc     O517722   7.501  10.784   8.219  0.0793 -0.0773 -0.0087
  671ccc    H1117723   7.440  10.718   8.181  1.6384 -2.3882  1.1882
  671ccc     O617724   7.250  10.866   8.083 -0.2145 -0.0715 -0.0590
  672ccc     C117725   6.076  10.675   7.936  0.1196  0.2978 -0.4251
  672ccc     C217726   6.103  10.717   7.787  0.2267  0.4640  0.2423
  672ccc     H117727   6.091  10.770   7.988  0.4792  0.0800 -0.1274
  672ccc     H217728   6.046  10.806   7.756 -2.4128 -0.9205  0.8983
  672ccc     C317729   6.253  10.753   7.765  0.0251  0.6407 -0.8000
  672ccc     C417730   6.350  10.652   7.836  0.2073 -0.1408  0.3225
  672ccc     C517731   6.304  10.643   7.987  0.6684  0.4542  0.5889
  672ccc     H317732   6.329  10.554   7.792 -2.7722  1.5775 -2.5257
  672ccc     H417733   6.266  10.848   7.818 -0.7664 -1.2382  3.1674
  672ccc     H517734   6.315  10.737   8.043 -0.1434 -1.4529  4.3398
  672ccc     O117735   6.391  10.549   8.051  0.1878 -0.0466 -0.0415
  672ccc     O217736   6.487  10.684   7.826 -0.1482  0.0689  0.0344
  672ccc     O317737   6.269  10.771   7.625 -0.7909 -0.1880 -0.1361
  672ccc     O417738   6.068  10.598   7.707  0.4681  0.5469 -0.5821
  672ccc     C617739   5.933  10.633   7.972 -0.5615 -0.1470 -0.2987
  672ccc     H617740   6.366  10.765   7.618 -0.7880 -0.5568  0.1897
  672ccc     H717741   6.009  10.549   7.768  2.1551 -2.6205 -1.2877
  672ccc     H817742   6.541  10.614   7.865  1.3269 -0.6828 -3.0192
  672ccc     H917743   5.866  10.711   7.936 -0.9188 -0.4953 -0.3860
  672ccc    H1017744   5.920  10.622   8.080 -0.1827  2.9194  0.1377
  672ccc     O517745   5.909  10.507   7.897 -0.1367 -0.0434 -0.1189
  672ccc    H1117746   5.820  10.482   7.928  1.2288 -3.5096  1.5502
  672ccc     O617747   6.177  10.586   7.991 -0.4830  0.3220 -0.1706
  673ccc     C117748   6.666  10.831   9.158 -0.6723 -0.4035  0.6021
  673ccc     C217749   6.743  10.962   9.142  0.7627  0.1666 -0.1409
  673ccc     H117750   6.668  10.799   9.263 -0.1840 -1.9186  0.1608
  673ccc     H217751   6.705  11.027   9.221  1.8033 -0.8940  1.2890
  673ccc     C317752   6.897  10.942   9.158  0.0006 -0.0031 -0.5324
  673ccc     C417753   6.943  10.831   9.055 -0.0469  0.1713 -0.2526
  673ccc     C517754   6.859  10.701   9.084 -0.3474  0.7607 -0.4945
  673ccc     H317755   6.912  10.865   8.955 -0.9301 -0.2610 -0.1279
  673ccc     H417756   6.917  10.905   9.259  1.2860  1.1475 -0.3387
  673ccc     H517757   6.878  10.674   9.189  0.1229 -0.7557 -0.9452
  673ccc     O117758   6.905  10.590   8.996 -0.0176  0.0240 -0.4923
  673ccc     O217759   7.086  10.824   9.057  0.2833 -0.2783 -0.3179
  673ccc     O317760   6.971  11.067   9.153  0.1227  0.4458 -0.2197
  673ccc     O417761   6.720  11.016   9.008  0.2006 -0.0964 -0.3132
  673ccc     C617762   6.515  10.838   9.120 -0.0894  0.0413  1.0752
  673ccc     H617763   7.056  11.045   9.193 -0.6059  1.0654  1.7798
  673ccc     H717764   6.754  11.107   9.018 -1.2491  0.3762  0.6140
  673ccc     H817765   7.126  10.885   8.993  1.4725 -0.2179  0.4443
  673ccc     H917766   6.496  10.809   9.016  0.9473 -0.6763  1.0702
  673ccc    H1017767   6.462  10.933   9.137 -0.6373 -0.2262  0.8817
  673ccc     O517768   6.446  10.743   9.194  0.3079  0.1219 -0.1799
  673ccc    H1117769   6.406  10.792   9.268  2.1855 -1.2661  1.8836
  673ccc     O617770   6.717  10.732   9.069  0.0097 -0.0134  0.0220
  674ccc     C117771   7.359  10.380   8.270 -0.0908  0.2776  0.3855
  674ccc     C217772   7.268  10.299   8.173  0.8032 -0.6714 -0.8324
  674ccc     H117773   7.438  10.310   8.303 -1.3124 -1.3595 -0.0480
  674ccc     H217774   7.321  10.286   8.077  0.1311 -2.5250 -1.0040
  674ccc     C317775   7.242  10.168   8.250 -0.3884 -0.0895 -0.4953
  674ccc     C417776   7.181  10.197   8.389  0.2870  0.2050  0.1108
  674ccc     C517777   7.252  10.309   8.468 -0.5700 -0.6247  0.0604
  674ccc     H317778   7.076  10.229   8.388  0.3371  0.3626 -0.7135
  674ccc     H417779   7.333  10.107   8.259 -0.7061 -0.5158 -0.1370
  674ccc     H517780   7.348  10.278   8.511  0.0270  0.1775 -0.6806
  674ccc     O117781   7.157  10.349   8.570  0.2286 -0.1174  0.0702
  674ccc     O217782   7.195  10.067   8.465 -0.5429 -0.4537  0.0666
  674ccc     O317783   7.146  10.094   8.171 -0.0600  0.1459  0.4574
  674ccc     O417784   7.150  10.378   8.148  0.2194  0.2431  0.0108
  674ccc     C617785   7.427  10.492   8.209 -0.2694  0.3228  0.1388
  674ccc     H617786   7.193  10.016   8.137  2.0794  1.2220  0.7899
  674ccc     H717787   7.077  10.315   8.144 -0.4131  1.0055 -1.4065
  674ccc     H817788   7.143  10.003   8.413 -0.4470 -0.2443 -0.2932
  674ccc     H917789   7.494  10.459   8.128  3.3688 -0.1160  3.0632
  674ccc    H1017790   7.493  10.544   8.280 -1.5360 -0.4132  1.9331
  674ccc     O517791   7.326  10.584   8.169  0.3659  0.5307 -0.0228
  674ccc    H1117792   7.254  10.528   8.203  0.6751 -0.7223 -1.3407
  674ccc     O617793   7.271  10.413   8.377  0.2472  0.2026  0.2455
  675ccc     C117794   7.463   9.542  11.082 -0.2791 -0.2352 -0.3355
  675ccc     C217795   7.518   9.605  11.213  0.3847 -1.1107 -0.3264
  675ccc     H117796   7.551   9.545  11.016  1.3819  2.9004  1.7678
  675ccc     H217797   7.608   9.551  11.245  1.4827  1.2362  0.7397
  675ccc     C317798   7.563   9.751  11.190  0.1942  0.0374  0.1593
  675ccc     C417799   7.449   9.834  11.115 -0.0706 -0.4001 -0.1348
  675ccc     C517800   7.381   9.760  10.992  0.2108  0.0652 -0.3091
  675ccc     H317801   7.369   9.855  11.187 -0.7413  1.0660 -1.2553
  675ccc     H417802   7.643   9.753  11.116 -2.8408 -2.8748 -3.5972
  675ccc     H517803   7.442   9.775  10.902 -0.6098  0.7554 -0.7626
  675ccc     O117804   7.252   9.832  10.981 -0.5952  0.0627 -0.6055
  675ccc     O217805   7.501   9.962  11.067  0.2231  0.0335  0.4758
  675ccc     O317806   7.616   9.804  11.319  0.1454  0.2473 -0.3790
  675ccc     O417807   7.414   9.600  11.306  0.2226  0.0341 -0.5589
  675ccc     C617808   7.421   9.394  11.088 -0.3355 -0.0759  0.2770
  675ccc     H617809   7.666   9.887  11.306 -3.6844  2.9330  0.2852
  675ccc     H717810   7.366   9.525  11.266 -1.4066 -0.2675  1.7877
  675ccc     H817811   7.499  10.024  11.142  1.7748  1.5731 -0.6748
  675ccc     H917812   7.506   9.335  11.123  1.0927  1.6539 -0.1324
  675ccc    H1017813   7.400   9.357  10.987 -0.7220  0.7079  0.0616
  675ccc     O517814   7.313   9.389  11.185  0.6086  0.6047  0.1110
  675ccc    H1117815   7.246   9.333  11.143 -0.4155  0.3919  1.9204
  675ccc     O617816   7.351   9.623  11.029  0.3058 -0.3546  0.1027
  676ccc     C117817   7.684  10.235  10.651  0.5882  1.3073 -0.2242
  676ccc     C217818   7.767  10.306  10.547 -0.1757  0.5121 -0.0180
  676ccc     H117819   7.738  10.143  10.677  2.2267  1.5180 -2.5787
  676ccc     H217820   7.872  10.297  10.579  0.2475  0.4571 -1.3672
  676ccc     C317821   7.766  10.236  10.409 -0.3889  0.6564  0.5335
  676ccc     C417822   7.620  10.206  10.359 -0.5164 -0.0117  0.7345
  676ccc     C517823   7.544  10.133  10.469 -0.1902  0.3829 -0.1863
  676ccc     H317824   7.566  10.299  10.339 -2.0987 -0.7523  1.4660
  676ccc     H417825   7.807  10.135  10.422 -1.3538  0.1916  0.0679
  676ccc     H517826   7.573  10.028  10.474 -2.1098 -0.2615 -1.4441
  676ccc     O117827   7.407  10.134  10.416  0.6656  0.5937 -0.5634
  676ccc     O217828   7.626  10.120  10.248  0.1036  0.0319  0.4340
  676ccc     O317829   7.845  10.320  10.319  0.4269  0.4170 -0.3296
  676ccc     O417830   7.736  10.447  10.531  0.7348 -0.2979  0.3165
  676ccc     C617831   7.683  10.320  10.776 -0.6347  0.0406  0.7051
  676ccc     H617832   7.868  10.276  10.235  1.4252 -0.3588  0.3388
  676ccc     H717833   7.802  10.486  10.472  1.7248 -0.6618  1.1485
  676ccc     H817834   7.541  10.132  10.200 -0.2811 -0.5657  0.9539
  676ccc     H917835   7.625  10.409  10.747 -0.5126  0.0462  0.4833
  676ccc    H1017836   7.782  10.349  10.811 -0.3110  1.8405 -1.5097
  676ccc     O517837   7.607  10.250  10.876  0.5325 -0.0017 -0.9019
  676ccc    H1117838   7.685  10.211  10.920  1.8215  1.0960 -2.1053
  676ccc     O617839   7.555  10.205  10.600  0.3280  0.4109 -0.4742
  677ccc     C117840   8.038   9.890  10.178  0.1070 -0.4547  0.4660
  677ccc     C217841   7.948  10.014  10.175  0.3019 -0.3544  0.1193
  677ccc     H117842   8.136   9.919  10.219  0.5868 -1.8970  0.3687
  677ccc     H217843   7.944  10.048  10.279  0.0998 -2.9415  1.0420
  677ccc     C317844   7.993  10.131  10.080  0.5706  0.2274  0.6152
  677ccc     C417845   8.018  10.071   9.937  0.2915 -0.6670 -0.3616
  677ccc     C517846   8.103   9.944   9.941 -0.0391 -0.3766  0.0045
  677ccc     H317847   7.917  10.037   9.909  0.7629 -0.3347 -2.5911
  677ccc     H417848   8.093  10.166  10.108  1.5900 -3.1607  1.7799
  677ccc     H517849   8.206   9.970   9.968 -0.0763 -0.3955  0.1667
  677ccc     O117850   8.111   9.888   9.814 -0.0253  0.0650 -0.5926
  677ccc     O217851   8.068  10.177   9.852  0.2034 -0.1293 -0.7435
  677ccc     O317852   7.900  10.244  10.088 -0.0780 -0.6349  0.2343
  677ccc     O417853   7.812   9.976  10.134  0.6986 -0.3103  0.4241
  677ccc     C617854   7.985   9.776  10.266 -0.2489  0.7097  1.3178
  677ccc     H617855   7.827  10.225  10.026  0.5401 -0.7624 -0.4657
  677ccc     H717856   7.744  10.031  10.177 -0.7783 -2.8391  1.5353
  677ccc     H817857   7.995  10.238   9.833  0.7403  0.2654 -1.6027
  677ccc     H917858   7.909   9.726  10.205  0.1809  1.2065  0.3618
  677ccc    H1017859   7.945   9.817  10.360 -1.8374  3.5793 -0.4546
  677ccc     O517860   8.103   9.698  10.289 -0.4010  0.2313  0.2277
  677ccc    H1117861   8.079   9.644  10.366  0.5666 -0.4533  0.0621
  677ccc     O617862   8.051   9.849  10.038  0.3129 -0.2693 -0.1318
  678ccc     C117863   7.709   9.886   8.856 -0.5099 -0.0359 -0.3954
  678ccc     C217864   7.837   9.965   8.812  0.3549 -0.1738  0.0090
  678ccc     H117865   7.626   9.954   8.879  0.8245  2.0053 -1.2846
  678ccc     H217866   7.812  10.026   8.724 -2.3844 -1.4241 -0.2020
  678ccc     C317867   7.884  10.054   8.926 -0.1981 -0.2640 -0.0872
  678ccc     C417868   7.896   9.965   9.056  0.4592  0.3473  0.5661
  678ccc     C517869   7.759   9.894   9.085 -1.2887  0.4936  0.7061
  678ccc     H317870   7.959   9.879   9.029 -1.5071 -0.1200 -3.2816
  678ccc     H417871   7.799  10.123   8.931 -1.3324 -1.6313  0.3293
  678ccc     H517872   7.686   9.971   9.114 -0.1352  1.4558  1.1427
  678ccc     O117873   7.788   9.802   9.197 -0.0665  0.2653  0.0079
  678ccc     O217874   7.955  10.034   9.168 -0.1841 -0.4508  0.2193
  678ccc     O317875   8.007  10.118   8.886 -0.2000  0.0422  0.2656
  678ccc     O417876   7.951   9.870   8.786  0.1336  0.3972 -0.1770
  678ccc     C617877   7.652   9.789   8.750  0.4870  0.4249  0.5031
  678ccc     H617878   7.986  10.208   8.917  0.5090  0.1371  0.4808
  678ccc     H717879   8.022   9.912   8.734 -1.0655  0.0395 -2.2382
  678ccc     H817880   7.899  10.112   9.183  2.0060  1.2886 -0.0775
  678ccc     H917881   7.607   9.839   8.663 -0.8316 -2.3468 -0.5149
  678ccc    H1017882   7.578   9.718   8.790  0.7693 -1.4902 -2.1359
  678ccc     O517883   7.763   9.708   8.708 -0.3721  0.1534  0.0447
  678ccc    H1117884   7.833   9.756   8.756  1.0130  0.3207 -1.9868
  678ccc     O617885   7.726   9.809   8.975 -0.0378 -0.3647 -0.2366
  679ccc     C117886   4.967   8.326  12.095 -0.0961 -0.0078 -1.5278
  679ccc     C217887   4.839   8.335  12.179  0.7880 -0.6309  0.3242
  679ccc     H117888   5.029   8.411  12.126  0.9055 -0.8177 -1.2761
  679ccc     H217889   4.864   8.335  12.285  0.3140  2.7466  0.5331
  679ccc     C317890   4.760   8.463  12.145  1.0401  0.5069  0.0543
  679ccc     C417891   4.747   8.480  11.992  0.5863  0.4124  0.0568
  679ccc     C517892   4.889   8.469  11.924 -0.4528 -0.0492  0.0588
  679ccc     H317893   4.685   8.395  11.961  0.3655 -0.3170  2.2983
  679ccc     H417894   4.811   8.551  12.189  2.0693  0.0692 -0.2351
  679ccc     H517895   4.958   8.545  11.962  1.0823 -2.0995  1.6512
  679ccc     O117896   4.856   8.474  11.787  0.1561 -0.3192  0.1357
  679ccc     O217897   4.687   8.616  11.980  0.6654  0.9913  0.2927
  679ccc     O317898   4.628   8.470  12.206 -0.6593 -0.1846  0.6809
  679ccc     O417899   4.759   8.221  12.139  0.7324 -0.7108  0.1331
  679ccc     C617900   5.051   8.193  12.122  0.3636  0.2396  0.3694
  679ccc     H617901   4.632   8.454  12.302 -3.5466 -1.0256  0.7773
  679ccc     H717902   4.824   8.159  12.103  1.3527  0.4375 -0.7683
  679ccc     H817903   4.611   8.615  12.041  0.6258 -0.1829  0.2551
  679ccc     H917904   5.093   8.205  12.223 -1.1125  1.3182  0.8871
  679ccc    H1017905   5.134   8.176  12.052 -0.8036 -1.4069 -0.6933
  679ccc     O517906   4.961   8.079  12.121 -0.1124  0.0065 -0.4869
  679ccc    H1117907   5.029   8.013  12.140  1.1699  1.6969  1.1725
  679ccc     O617908   4.948   8.343  11.956 -0.5915 -0.4089  0.5018
  680ccc     C117909   4.317   8.700  10.885  0.8408 -0.0376  0.2837
  680ccc     C217910   4.412   8.810  10.840 -0.8394  0.0732  0.6881
  680ccc     H117911   4.217   8.737  10.912 -0.2497 -1.6588 -1.2921
  680ccc     H217912   4.379   8.857  10.746  2.9353 -0.1175 -0.9110
  680ccc     C317913   4.438   8.919  10.948 -0.9330 -0.1288 -0.0418
  680ccc     C417914   4.478   8.849  11.081 -0.2288 -0.1971  0.7500
  680ccc     C517915   4.393   8.727  11.122  0.7446 -0.3756 -0.0239
  680ccc     H317916   4.580   8.808  11.072 -0.1913 -0.8783  3.3456
  680ccc     H417917   4.341   8.963  10.976 -0.3996  1.2539 -0.2972
  680ccc     H517918   4.303   8.762  11.173  0.1635 -1.9802  0.1275
  680ccc     O117919   4.479   8.645  11.206  0.4000 -0.1602  0.9361
  680ccc     O217920   4.490   8.947  11.183 -0.3893  0.4345  0.2449
  680ccc     O317921   4.537   9.016  10.908  0.2196 -0.0916  0.3949
  680ccc     O417922   4.536   8.749  10.810  0.3332 -0.0027 -0.6564
  680ccc     C617923   4.298   8.594  10.782  0.6797  0.5401 -0.6428
  680ccc     H617924   4.582   8.964  10.839  2.2716  0.7633  1.0038
  680ccc     H717925   4.506   8.658  10.794  2.1361 -0.7731  0.0389
  680ccc     H817926   4.564   8.924  11.242 -0.3204  0.3479  0.1262
  680ccc     H917927   4.264   8.643  10.690 -1.4519 -1.2680 -0.8923
  680ccc    H1017928   4.216   8.527  10.810  0.8316 -0.2157 -1.8992
  680ccc     O517929   4.415   8.522  10.753  0.0900 -0.3993 -0.0378
  680ccc    H1117930   4.389   8.488  10.665 -0.6121  0.7544 -0.2950
  680ccc     O617931   4.364   8.636  11.004 -0.3222 -0.3076  0.5092
  681ccc     C117932   4.451  10.055  11.073  0.3201  0.7121 -0.4646
  681ccc     C217933   4.394   9.991  10.948 -0.1194 -0.0146  0.0619
  681ccc     H117934   4.453  10.164  11.067  0.0200  0.7009 -0.8180
  681ccc     H217935   4.294  10.029  10.926 -0.8870 -0.8459  1.9445
  681ccc     C317936   4.481  10.035  10.826 -0.1571 -0.4105  0.1745
  681ccc     C417937   4.633  10.012  10.860  0.0749 -0.3458 -0.5924
  681ccc     C517938   4.688  10.055  11.001  0.2818  0.0539 -0.6904
  681ccc     H317939   4.645   9.903  10.865 -0.6356 -0.3756  0.9403
  681ccc     H417940   4.451  10.140  10.816  0.4073 -0.3922 -1.7617
  681ccc     H517941   4.702  10.164  11.005  1.4555 -0.1144  2.0484
  681ccc     O117942   4.816   9.992  11.021  0.2773 -0.3733 -0.0456
  681ccc     O217943   4.712  10.044  10.746  0.4593  0.3863  0.4573
  681ccc     O317944   4.446   9.977  10.699 -0.4748  0.3261 -0.4955
  681ccc     O417945   4.377   9.852  10.958  0.6405 -0.2850  0.2892
  681ccc     C617946   4.363  10.022  11.195 -0.1619  0.3323 -0.4289
  681ccc     H617947   4.484  10.031  10.627 -1.4254  1.0279 -0.4877
  681ccc     H717948   4.374   9.832  10.862 -0.1930  1.2629 -0.0484
  681ccc     H817949   4.715   9.962  10.694  0.7466  0.5092  0.2766
  681ccc     H917950   4.335   9.916  11.205 -0.9894  0.5597 -0.2834
  681ccc    H1017951   4.267  10.071  11.178 -0.1273  1.5882  2.3413
  681ccc     O517952   4.431  10.079  11.307  0.4456 -0.2585  0.7620
  681ccc    H1117953   4.500  10.016  11.336  0.8253  0.2041  0.8771
  681ccc     O617954   4.588  10.009  11.093 -0.5461  0.3357 -0.5308
  682ccc     C117955   5.668  10.308  11.633 -0.6273 -0.1138 -0.4856
  682ccc     C217956   5.643  10.171  11.695  0.1824 -0.1252  0.2904
  682ccc     H117957   5.627  10.396  11.685  0.7163  1.8191 -2.5024
  682ccc     H217958   5.665  10.161  11.802 -1.1868 -0.3742  0.5684
  682ccc     C317959   5.493  10.138  11.687 -0.1504  0.0711  0.1333
  682ccc     C417960   5.446  10.141  11.534  0.7031 -0.6282  0.0041
  682ccc     C517961   5.487  10.277  11.468  0.1390 -0.5855  0.3219
  682ccc     H317962   5.507  10.063  11.488 -1.1794 -2.6717  0.7988
  682ccc     H417963   5.436  10.209  11.747 -0.8589 -0.4548  0.0992
  682ccc     H517964   5.415  10.353  11.500 -0.2360  0.2088 -2.2387
  682ccc     O117965   5.473  10.258  11.327 -0.0787 -0.5096 -0.2659
  682ccc     O217966   5.308  10.098  11.528 -0.0316  0.2313 -0.4559
  682ccc     O317967   5.455  10.009  11.735 -0.5006 -0.0194  0.2300
  682ccc     O417968   5.717  10.071  11.623 -0.0073 -0.0936  0.5466
  682ccc     C617969   5.821  10.343  11.635 -0.7738  0.7157  0.9281
  682ccc     H617970   5.383   9.975  11.678  0.4239 -0.7797 -0.5408
  682ccc     H717971   5.761  10.003  11.677  2.1372  0.6290 -0.2037
  682ccc     H817972   5.300  10.060  11.438  0.0338  1.9469 -1.2202
  682ccc     H917973   5.882  10.273  11.577 -0.2179  1.4948  0.5625
  682ccc    H1017974   5.847  10.343  11.742 -0.3629 -1.9406  0.9011
  682ccc     O517975   5.824  10.473  11.581  0.8280  0.0468 -0.4641
  682ccc    H1117976   5.795  10.487  11.490  1.6791  1.3004 -0.5731
  682ccc     O617977   5.628  10.302  11.490  0.0479  0.7060 -0.4415
  683ccc     C117978   7.438   8.078  10.669  0.5076 -0.1116 -0.1870
  683ccc     C217979   7.557   7.976  10.676  0.2879 -0.6486  0.5507
  683ccc     H117980   7.483   8.172  10.701  0.5251 -0.6069  1.3742
  683ccc     H217981   7.646   8.015  10.626  0.5590 -2.2863 -0.3489
  683ccc     C317982   7.607   7.947  10.819 -0.1299 -0.2210 -0.5258
  683ccc     C417983   7.479   7.925  10.913 -0.3800  0.4952 -0.2225
  683ccc     C517984   7.372   8.035  10.898 -0.2514 -0.6340 -0.2909
  683ccc     H317985   7.433   7.833  10.874  0.5866  0.3267 -1.0152
  683ccc     H417986   7.669   8.033  10.845  1.0571 -1.3234  0.4206
  683ccc     H517987   7.407   8.133  10.932 -2.0856  0.3996 -1.2632
  683ccc     O117988   7.257   7.992  10.976  0.1158  0.4587  0.0098
  683ccc     O217989   7.526   7.921  11.052  0.0084  0.1350  0.3100
  683ccc     O317990   7.683   7.826  10.809 -0.0477 -0.2427  0.1227
  683ccc     O417991   7.518   7.851  10.621  0.2996  0.3446  0.0935
  683ccc     C617992   7.375   8.098  10.530  0.1151  0.3080  0.6425
  683ccc     H617993   7.733   7.824  10.892  2.2804 -0.5505 -1.1871
  683ccc     H717994   7.594   7.801  10.655  0.7553  0.6528 -0.4530
  683ccc     H817995   7.453   7.957  11.105 -1.4887 -0.6057 -1.1265
  683ccc     H917996   7.459   8.148  10.481  0.4204 -1.3509 -0.5865
  683ccc    H1017997   7.290   8.168  10.536 -0.5595 -0.3719 -0.6987
  683ccc     O517998   7.332   7.971  10.477 -0.2577 -0.1819 -0.3170
  683ccc    H1117999   7.374   7.916  10.545  1.0211  0.2349 -0.7259
  683ccc     O618000   7.330   8.051  10.760  0.7168  0.2443  0.2764
  684ccc     C118001   6.247   8.327  10.869 -0.1314 -0.3103  0.1644
  684ccc     C218002   6.273   8.236  10.745  0.3655  0.0252  0.4454
  684ccc     H118003   6.222   8.423  10.822 -0.0799 -0.2382  0.2829
  684ccc     H218004   6.189   8.220  10.676  0.9690  1.4615 -0.6894
  684ccc     C318005   6.398   8.286  10.671 -0.3089 -0.0838  0.1567
  684ccc     C418006   6.518   8.307  10.768 -0.3623 -0.5285 -0.0149
  684ccc     C518007   6.479   8.405  10.884 -0.2770 -0.1693 -0.0479
  684ccc     H318008   6.540   8.214  10.822 -0.5120 -0.7078 -0.2634
  684ccc     H418009   6.386   8.386  10.627  1.3741  0.3842  0.6744
  684ccc     H518010   6.447   8.500  10.840  0.3224  1.2162  2.3453
  684ccc     O118011   6.585   8.424  10.977 -0.7707  0.1421 -0.4613
  684ccc     O218012   6.631   8.351  10.687 -0.0022 -0.0005  0.3693
  684ccc     O318013   6.440   8.186  10.571 -0.1898 -0.8712  0.5302
  684ccc     O418014   6.299   8.106  10.795 -0.2949  0.3287 -0.3835
  684ccc     C618015   6.135   8.288  10.968  0.1452 -0.4017  0.6816
  684ccc     H618016   6.489   8.123  10.627  0.3765 -1.8005 -0.9629
  684ccc     H718017   6.233   8.116  10.865  1.6284  2.7591  1.2293
  684ccc     H818018   6.603   8.442  10.672  0.4417  0.0899  0.0875
  684ccc     H918019   6.045   8.346  10.941  1.0754  0.1959 -1.3530
  684ccc    H1018020   6.166   8.330  11.064  0.0074  2.3713 -0.3888
  684ccc     O518021   6.117   8.146  10.973  0.3518  0.1470  0.3544
  684ccc    H1118022   6.022   8.125  10.981  0.1860  0.7724  0.0519
  684ccc     O618023   6.367   8.341  10.952  0.1460 -0.2625 -0.0469
  685ccc     C118024   5.822   8.018  12.727 -0.5198  0.0460 -0.4333
  685ccc     C218025   5.861   7.978  12.870 -0.0359 -0.5148 -0.4171
  685ccc     H118026   5.796   7.923  12.679  2.4747 -1.9106  1.5257
  685ccc     H218027   5.778   7.924  12.916 -0.3563  1.1633  1.0937
  685ccc     C318028   5.986   7.883  12.886 -0.2238 -0.1298 -0.3080
  685ccc     C418029   6.110   7.932  12.800 -0.8267 -0.2320  0.2012
  685ccc     C518030   6.053   7.966  12.658  0.2621 -0.5771 -0.8927
  685ccc     H318031   6.150   8.019  12.855  0.9476  0.0599 -1.4475
  685ccc     H418032   5.952   7.790  12.839  0.2226  0.0788 -1.0600
  685ccc     H518033   6.014   7.877  12.608 -1.1618 -1.3565  1.4551
  685ccc     O118034   6.165   8.024  12.586  0.2721  0.8433 -0.2630
  685ccc     O218035   6.221   7.832  12.787 -0.0793 -0.2595 -0.0409
  685ccc     O318036   6.014   7.855  13.024 -0.1106  0.0546  0.4065
  685ccc     O418037   5.895   8.096  12.951 -0.0883 -0.0769  0.6958
  685ccc     C618038   5.717   8.129  12.706  0.0755  0.0879  0.3322
  685ccc     H618039   5.943   7.795  13.051 -0.9231 -0.1045 -1.8811
  685ccc     H718040   5.898   8.052  13.038 -0.1655 -1.8188 -0.1219
  685ccc     H818041   6.285   7.862  12.720  0.1140 -1.2937 -0.3420
  685ccc     H918042   5.756   8.230  12.725 -1.9871  0.9919  0.0860
  685ccc    H1018043   5.629   8.117  12.771 -0.8423  1.3618 -0.5982
  685ccc     O518044   5.656   8.105  12.582 -0.5782  0.3465  0.2821
  685ccc    H1118045   5.690   8.021  12.546 -1.2725  1.2555 -2.7261
  685ccc     O618046   5.946   8.068  12.667 -0.4403 -0.1291  0.1437
  686ccc     C118047   6.827   8.280  12.852  0.0922  0.0964  0.4732
  686ccc     C218048   6.758   8.182  12.952 -0.2709 -0.3051  0.6878
  686ccc     H118049   6.773   8.375  12.846  1.3788  0.7367 -3.1095
  686ccc     H218050   6.757   8.227  13.052  1.0393 -0.1635  0.6586
  686ccc     C318051   6.617   8.138  12.907 -0.4228 -0.6414 -0.2927
  686ccc     C418052   6.612   8.089  12.762  0.0657  0.2736  0.3296
  686ccc     C518053   6.697   8.171  12.665 -0.0379  0.0009 -0.1360
  686ccc     H318054   6.656   7.990  12.743 -1.6794 -0.5980  0.6272
  686ccc     H418055   6.566   8.234  12.896  1.3230  0.4695  0.7523
  686ccc     H518056   6.629   8.257  12.654 -0.5584 -0.4680 -0.6820
  686ccc     O118057   6.725   8.088  12.544 -0.4155 -0.1723 -0.3698
  686ccc     O218058   6.470   8.091  12.723 -0.3847  0.0492 -0.1822
  686ccc     O318059   6.549   8.064  13.002  0.2651  0.2333 -0.3043
  686ccc     O418060   6.842   8.066  12.949  0.5162  0.1929 -0.3896
  686ccc     C618061   6.967   8.324  12.885  0.0683 -0.3163  0.7371
  686ccc     H618062   6.541   7.975  12.963 -3.0649  0.0252  0.5461
  686ccc     H718063   6.928   8.112  12.954  0.9281 -0.6146  0.3130
  686ccc     H818064   6.463   8.011  12.668 -0.3374  0.3097 -0.5713
  686ccc     H918065   6.959   8.382  12.977  1.1105  0.1124  0.5737
  686ccc    H1018066   7.003   8.383  12.800  0.2343 -1.1036  0.2517
  686ccc     O518067   7.053   8.209  12.896 -0.2438  0.1617 -0.3545
  686ccc    H1118068   7.142   8.248  12.885 -0.0045  0.0561  1.0034
  686ccc     O618069   6.826   8.215  12.718 -0.2121 -0.1808 -0.6774
  687ccc     C118070   6.777   7.271   6.897  0.2554  0.7580 -0.2852
  687ccc     C218071   6.877   7.156   6.888 -0.2163 -0.3011 -0.6898
  687ccc     H118072   6.842   7.359   6.898  0.6094  0.5020  0.1349
  687ccc     H218073   6.946   7.180   6.806 -0.5708  1.0971 -0.6096
  687ccc     C318074   6.967   7.147   7.019 -0.5647 -0.2050 -0.8936
  687ccc     C418075   6.884   7.148   7.150  0.0815  0.2532  0.6071
  687ccc     C518076   6.778   7.260   7.153  0.6737  0.1428  0.8368
  687ccc     H318077   6.828   7.053   7.151 -1.9574  1.3752  0.0556
  687ccc     H418078   7.038   7.231   7.015  1.6370 -1.9670 -1.1183
  687ccc     H518079   6.821   7.360   7.162  0.7463  0.6362 -3.1832
  687ccc     O118080   6.684   7.241   7.263 -0.3131 -0.9237  0.0851
  687ccc     O218081   6.982   7.159   7.262  0.8939 -0.1376  0.2875
  687ccc     O318082   7.044   7.020   6.997  0.2838  0.0292 -0.2064
  687ccc     O418083   6.798   7.044   6.872  0.0341  0.8081 -0.1307
  687ccc     C618084   6.678   7.263   6.779 -0.3256  0.2244 -0.2787
  687ccc     H618085   7.120   7.052   6.945 -0.8473  2.9165 -0.2236
  687ccc     H718086   6.862   6.972   6.883  0.5373  0.9960 -1.6212
  687ccc     H818087   7.058   7.105   7.233  0.6670  0.0692 -0.7357
  687ccc     H918088   6.602   7.189   6.806 -1.0724  0.9678 -0.3250
  687ccc    H1018089   6.736   7.233   6.691  2.6174 -0.7929  1.8196
  687ccc     O518090   6.627   7.385   6.763  0.1997 -0.1212 -0.1918
  687ccc    H1118091   6.565   7.374   6.689  0.7422  0.6478 -0.7807
  687ccc     O618092   6.707   7.265   7.022  0.4646  0.7963 -0.2706
  688ccc     C118093   5.806   6.881   7.154 -0.0517  0.6536  0.1136
  688ccc     C218094   5.686   6.910   7.063 -0.4619  0.2528  0.3686
  688ccc     H118095   5.764   6.823   7.238  0.6674 -2.0307 -1.2762
  688ccc     H218096   5.635   6.821   7.026 -1.9837  1.1603  0.1864
  688ccc     C318097   5.577   6.992   7.141  0.9458 -0.1711 -0.9631
  688ccc     C418098   5.635   7.126   7.203  0.5606  0.0442 -0.2320
  688ccc     C518099   5.762   7.093   7.287  0.5279  0.3512 -0.4191
  688ccc     H318100   5.670   7.192   7.122 -0.1815 -0.3135 -0.8628
  688ccc     H418101   5.536   6.926   7.219  0.5836  0.2762 -0.7750
  688ccc     H518102   5.727   7.043   7.378 -0.5994  1.2408 -0.3388
  688ccc     O118103   5.836   7.213   7.323 -0.7262  0.2994 -0.7647
  688ccc     O218104   5.540   7.196   7.288 -0.0993  0.0071 -0.0511
  688ccc     O318105   5.464   7.019   7.054 -0.3354  0.3359 -0.8111
  688ccc     O418106   5.734   6.979   6.947  0.0641  0.1199 -0.1789
  688ccc     C618107   5.921   6.804   7.086 -0.0794  0.2013  0.4215
  688ccc     H618108   5.400   7.063   7.113  0.2614 -2.4243  2.2271
  688ccc     H718109   5.664   6.971   6.880 -0.1758 -0.9343  0.1863
  688ccc     H818110   5.514   7.133   7.357  1.5412 -1.9057 -1.0644
  688ccc     H918111   5.978   6.872   7.021 -0.7166  2.7840  2.4175
  688ccc    H1018112   5.893   6.721   7.020  0.0329  0.2380  0.3264
  688ccc     O518113   6.002   6.734   7.177 -0.6011 -0.0077  0.9344
  688ccc    H1118114   5.944   6.693   7.244 -1.0882  0.7001  0.9488
  688ccc     O618115   5.852   7.009   7.212  0.3032 -0.7992  0.2890
  689ccc     C118116   7.529   7.563   7.442 -0.4846 -0.5563 -0.2546
  689ccc     C218117   7.434   7.516   7.327 -0.7270 -0.0214  0.1197
  689ccc     H118118   7.626   7.524   7.407 -0.7335 -1.9900  0.5710
  689ccc     H218119   7.479   7.551   7.234 -0.7043  0.2302  0.2233
  689ccc     C318120   7.421   7.360   7.316 -0.0771 -0.0672 -0.4168
  689ccc     C418121   7.379   7.307   7.457  0.6631  0.2541 -0.5583
  689ccc     C518122   7.482   7.356   7.571 -0.2747 -0.5763 -0.2902
  689ccc     H318123   7.288   7.364   7.475  0.0562 -0.9254  0.2465
  689ccc     H418124   7.515   7.315   7.282 -1.1510 -0.6850 -2.7436
  689ccc     H518125   7.584   7.324   7.546 -0.0873  0.6153 -1.1821
  689ccc     O118126   7.445   7.307   7.709 -0.1463 -0.9655  0.3629
  689ccc     O218127   7.367   7.166   7.459  0.5393 -0.3676  0.7092
  689ccc     O318128   7.307   7.343   7.226  0.3505  0.5588 -0.0331
  689ccc     O418129   7.306   7.573   7.347  0.5491 -0.1851  0.6021
  689ccc     C618130   7.537   7.717   7.455 -0.8433  0.6238 -0.2036
  689ccc     H618131   7.273   7.251   7.231 -0.5992  0.9004  0.0405
  689ccc     H718132   7.255   7.518   7.285 -2.4496  2.6315  0.2653
  689ccc     H818133   7.305   7.135   7.527 -1.1590  0.9624 -0.1674
  689ccc     H918134   7.443   7.763   7.488 -0.7279  0.7086  0.0110
  689ccc    H1018135   7.571   7.758   7.359  2.1280 -2.2970 -0.5544
  689ccc     O518136   7.630   7.752   7.553  0.5685  0.2773 -0.1719
  689ccc    H1118137   7.676   7.670   7.580  0.2014 -0.0547 -0.5419
  689ccc     O618138   7.494   7.503   7.568  0.4434 -0.1355 -0.4476
  690ccc     C118139   7.273   6.394   8.051 -0.3461  0.0146 -0.3827
  690ccc     C218140   7.179   6.320   8.152  0.1761  0.7092  0.7288
  690ccc     H118141   7.367   6.341   8.068 -0.4788 -0.3270 -0.6986
  690ccc     H218142   7.184   6.214   8.122 -0.6406  0.6614  0.7413
  690ccc     C318143   7.216   6.330   8.301 -0.1970  0.4939  0.1508
  690ccc     C418144   7.222   6.481   8.333  0.4305 -0.0599  0.2523
  690ccc     C518145   7.301   6.564   8.228 -0.7732  0.0689 -0.5513
  690ccc     H318146   7.121   6.522   8.334 -0.3379 -1.7250 -1.4937
  690ccc     H418147   7.319   6.292   8.313 -0.4383 -0.3061 -0.2520
  690ccc     H518148   7.408   6.558   8.252 -0.2573  0.6540 -2.5279
  690ccc     O118149   7.253   6.701   8.240 -0.2832 -0.5269 -0.4211
  690ccc     O218150   7.292   6.500   8.462  0.3713  0.7288 -0.0821
  690ccc     O318151   7.121   6.255   8.374  0.3878  0.4261  0.0446
  690ccc     O418152   7.048   6.376   8.125  0.3411 -0.7506  0.3087
  690ccc     C618153   7.243   6.386   7.901 -0.6354 -0.0352  0.1935
  690ccc     H618154   7.135   6.276   8.468 -0.1753 -1.1864  0.5277
  690ccc     H718155   6.985   6.331   8.183 -0.9289 -0.0443 -0.4791
  690ccc     H818156   7.248   6.435   8.520  0.4294 -1.1589 -2.0050
  690ccc     H918157   7.238   6.279   7.874  1.6829 -0.0088 -0.5216
  690ccc    H1018158   7.320   6.427   7.835  2.2255 -0.7669  2.8513
  690ccc     O518159   7.125   6.459   7.878  0.3088 -0.2275 -0.0582
  690ccc    H1118160   7.095   6.452   7.970  0.1082 -2.2791 -0.2196
  690ccc     O618161   7.289   6.529   8.091 -0.2073  0.2559  0.6524
  691ccc     C118162   4.430   8.978   7.750  0.3576  0.5018 -0.3323
  691ccc     C218163   4.311   9.026   7.831 -0.6270  0.8259  0.4451
  691ccc     H118164   4.499   8.932   7.822  1.9795  1.5833 -1.1211
  691ccc     H218165   4.264   8.952   7.897  2.7629  1.1701  3.5332
  691ccc     C318166   4.346   9.133   7.936  0.9492 -0.4148  0.5324
  691ccc     C418167   4.432   9.239   7.868 -0.6729 -0.3472 -0.2070
  691ccc     C518168   4.544   9.197   7.770 -0.0752 -0.2079 -0.0294
  691ccc     H318169   4.363   9.295   7.803 -2.4244  0.1098  1.8952
  691ccc     H418170   4.414   9.097   8.014  2.7192 -0.9666 -1.1956
  691ccc     H518171   4.634   9.158   7.818 -0.3326 -0.0894  0.5491
  691ccc     O118172   4.576   9.313   7.689 -0.6460 -0.3025  0.8727
  691ccc     O218173   4.493   9.320   7.973 -0.4098 -0.2607  0.5202
  691ccc     O318174   4.227   9.194   7.990  0.1360  0.6741  0.1846
  691ccc     O418175   4.204   9.075   7.744 -0.1979 -0.3170  0.2086
  691ccc     C618176   4.395   8.870   7.643  0.0598  0.0976 -0.5653
  691ccc     H618177   4.244   9.236   8.076 -0.5993  1.2082  0.0803
  691ccc     H718178   4.148   9.136   7.796 -0.3800  0.3501 -0.7205
  691ccc     H818179   4.527   9.401   7.931 -1.4291 -0.1766 -0.1620
  691ccc     H918180   4.328   8.901   7.562 -1.8226 -1.0416  0.4819
  691ccc    H1018181   4.332   8.793   7.691 -2.3671  1.5362 -1.2546
  691ccc     O518182   4.523   8.807   7.599  0.8143  0.4976 -0.1754
  691ccc    H1118183   4.505   8.749   7.523  1.5811 -0.7546  0.5456
  691ccc     O618184   4.493   9.088   7.677  0.1224 -0.5426 -0.7409
  692ccc     C118185   4.358   9.750   8.084 -0.1409 -0.1484  0.7053
  692ccc     C218186   4.272   9.754   8.212 -0.0608 -0.2388  0.7460
  692ccc     H118187   4.321   9.665   8.025 -0.9900  0.3556  0.5005
  692ccc     H218188   4.169   9.778   8.183  0.3310  0.6600  0.0271
  692ccc     C318189   4.283   9.614   8.282  1.0025  1.0666  0.3595
  692ccc     C418190   4.425   9.582   8.321 -0.0508  0.2869 -0.1205
  692ccc     C518191   4.524   9.590   8.196  0.2620  0.2063  0.4716
  692ccc     H318192   4.462   9.650   8.398 -0.8025 -0.1793  0.6609
  692ccc     H418193   4.249   9.541   8.208  0.6406 -0.3861  1.8999
  692ccc     H518194   4.515   9.499   8.136  0.4786  0.2998  0.2954
  692ccc     O118195   4.657   9.599   8.254 -0.7194  0.1631 -0.2777
  692ccc     O218196   4.419   9.441   8.368  0.0514 -0.0247 -0.1305
  692ccc     O318197   4.187   9.593   8.392 -0.2499 -0.2590 -0.1827
  692ccc     O418198   4.321   9.859   8.296 -0.5737  0.2674 -0.6226
  692ccc     C618199   4.340   9.869   7.989  0.8054  0.5160  0.1401
  692ccc     H618200   4.184   9.496   8.401 -0.3608 -0.2984 -0.6237
  692ccc     H718201   4.359   9.908   8.220  0.1165  1.7136  0.5987
  692ccc     H818202   4.423   9.444   8.465 -0.9175 -1.6525  0.0017
  692ccc     H918203   4.234   9.865   7.963  0.6323 -2.1669  0.9810
  692ccc    H1018204   4.393   9.851   7.895 -3.1958 -1.3536 -2.0201
  692ccc     O518205   4.377   9.984   8.066 -0.3303 -0.7503 -0.2985
  692ccc    H1118206   4.369  10.067   8.015  0.2547 -0.9641 -0.7440
  692ccc     O618207   4.493   9.719   8.113  0.1051 -0.4660  0.0231
  693ccc     C118208   5.894  10.433   8.367 -0.4657  0.3062 -0.0106
  693ccc     C218209   5.787  10.369   8.455  0.6094  0.3983 -0.3821
  693ccc     H118210   5.849  10.509   8.301 -1.3034 -0.1798 -0.0209
  693ccc     H218211   5.734  10.443   8.517  0.6400 -0.0299  0.1665
  693ccc     C318212   5.678  10.310   8.371  0.2870  0.1366  0.4290
  693ccc     C418213   5.734  10.195   8.272  0.2380 -0.1006  0.1795
  693ccc     C518214   5.846  10.267   8.190 -0.5469  0.3680 -0.1204
  693ccc     H318215   5.775  10.110   8.327  0.2573 -0.3835 -0.2674
  693ccc     H418216   5.638  10.384   8.300  0.6063  0.1636  0.2743
  693ccc     H518217   5.784  10.339   8.136 -3.8412 -2.3460 -0.3248
  693ccc     O118218   5.908  10.182   8.095  0.7564  0.2147 -0.3666
  693ccc     O218219   5.622  10.156   8.178 -0.2229  0.4463  0.4287
  693ccc     O318220   5.582  10.247   8.461 -0.3355 -0.3826  0.2260
  693ccc     O418221   5.843  10.268   8.545  0.0510 -0.1272  0.2482
  693ccc     C618222   6.014  10.506   8.424  0.3406  0.5792 -0.2722
  693ccc     H618223   5.518  10.192   8.411 -1.2220 -0.4047  1.3296
  693ccc     H718224   5.765  10.244   8.598 -0.0178 -0.4876 -0.0118
  693ccc     H818225   5.646  10.074   8.132 -1.3617 -0.1805  0.9115
  693ccc     H918226   5.977  10.598   8.470  0.1866 -0.1147  1.0441
  693ccc    H1018227   6.078  10.529   8.338 -1.6199 -0.1058 -1.9938
  693ccc     O518228   6.065  10.429   8.530 -0.3509  0.1808  0.1680
  693ccc    H1118229   6.010  10.348   8.527 -0.0729 -0.1952  3.0468
  693ccc     O618230   5.943  10.325   8.276  0.0986 -1.1274 -0.2225
  694ccc     C118231   6.452  10.282   7.441  0.5717 -0.8522  0.5271
  694ccc     C218232   6.332  10.383   7.426 -0.1601 -0.1399  0.9714
  694ccc     H118233   6.442  10.207   7.362  0.6672  0.1441 -0.4449
  694ccc     H218234   6.341  10.411   7.321 -0.0046  0.5012  1.1489
  694ccc     C318235   6.191  10.324   7.438 -0.8010  0.1036 -0.5647
  694ccc     C418236   6.186  10.242   7.563 -0.6061 -0.6482  0.1990
  694ccc     C518237   6.307  10.139   7.574 -1.1049  0.2701  0.2111
  694ccc     H318238   6.207  10.311   7.645  2.5876 -2.4719  1.0988
  694ccc     H418239   6.183  10.256   7.353 -1.6441  1.1009 -1.3037
  694ccc     H518240   6.306  10.073   7.487 -0.2485  0.7355 -0.1659
  694ccc     O118241   6.302  10.063   7.698  0.1436 -0.0120  0.3222
  694ccc     O218242   6.059  10.170   7.583 -0.7295  0.0515 -0.2638
  694ccc     O318243   6.094  10.426   7.428  0.6509  0.0694  0.4530
  694ccc     O418244   6.345  10.491   7.515  0.3531 -0.9751  0.0255
  694ccc     C618245   6.597  10.335   7.434 -0.0440 -0.1872  0.0121
  694ccc     H618246   6.050  10.402   7.345  2.8734  0.0469 -0.7731
  694ccc     H718247   6.437  10.485   7.547  0.7061  1.3364 -0.3124
  694ccc     H818248   6.023  10.195   7.670  0.7389 -2.0889  1.0499
  694ccc     H918249   6.609  10.391   7.340  1.4872 -1.2982 -0.4959
  694ccc    H1018250   6.670  10.254   7.426 -1.3065 -1.2788 -0.8221
  694ccc     O518251   6.610  10.423   7.545 -0.0280  0.0965  0.0841
  694ccc    H1118252   6.700  10.452   7.524  1.0473 -2.0517  1.3251
  694ccc     O618253   6.437  10.207   7.560 -0.2446 -0.0345  0.1771
  695ccc     C118254   4.996   9.252  10.412 -0.5979  0.0449 -0.1128
  695ccc     C218255   5.162   9.309  10.327 -0.1877 -0.3475  0.5887
  695ccc     H118256   4.953   9.346  10.449  2.9502  2.0624 -0.6505
  695ccc     H218257   5.175   9.418  10.322  1.8890 -0.5029  1.6948
  695ccc     C318258   5.344   9.238  10.401  0.3024  0.5951  0.0701
  695ccc     C418259   5.336   9.089  10.537 -1.1591 -0.0601 -0.1268
  695ccc     C518260   5.164   9.036  10.623 -0.2766  0.6427 -0.0299
  695ccc     H318261   5.380   9.006  10.480 -0.1252  0.4543 -0.1094
  695ccc     H418262   5.387   9.325  10.452  1.1721 -0.2159  0.7421
  695ccc     H518263   5.171   9.074  10.726  2.2967 -0.7946  0.3939
  695ccc     O118264   5.147   8.889  10.633 -0.3366  0.0031  0.5332
  695ccc     O218265   5.441   9.109  10.630  0.9789 -0.6171  0.0360
  695ccc     O318266   5.446   9.216  10.295 -0.0423 -0.7017  0.4148
  695ccc     O418267   5.154   9.268  10.192 -0.3549  0.4609  0.2207
  695ccc     C618268   4.892   9.208  10.318 -0.5642 -0.3622 -0.2066
  695ccc     H618269   5.474   9.123  10.286 -0.8076 -1.5361  4.4032
  695ccc     H718270   5.227   9.203  10.187 -2.2576 -1.8062  0.2309
  695ccc     H818271   5.450   9.026  10.680  0.4031  0.1016  1.4110
  695ccc     H918272   4.924   9.146  10.233 -0.8550  0.8726 -1.2519
  695ccc    H1018273   4.837   9.292  10.274 -2.3606 -0.5342  1.5553
  695ccc     O518274   4.808   9.128  10.396  0.3110  0.4402  0.3939
  695ccc    H1118275   4.878   9.104  10.459  1.0989  0.5481 -0.4172
  695ccc     O618276   5.003   9.119  10.550  0.0322  0.7012  0.0016
  696ccc     C118277   5.209   8.164  10.975  0.8357  0.4909  0.2595
  696ccc     C218278   5.322   8.268  10.942 -0.5579  0.3118  1.0116
  696ccc     H118279   5.228   8.074  10.916 -1.2542 -1.9886  3.0537
  696ccc     H218280   5.419   8.217  10.931 -0.7046 -0.1019  1.5595
  696ccc     C318281   5.304   8.361  10.815 -0.3698 -0.7890 -0.2776
  696ccc     C418282   5.154   8.371  10.774 -0.9898 -0.1425 -0.2696
  696ccc     C518283   5.064   8.247  10.801 -0.1168  0.6628  0.1381
  696ccc     H318284   5.119   8.452  10.839  1.8752  1.9170 -1.0911
  696ccc     H418285   5.356   8.306  10.735 -1.7816 -0.2528 -1.6147
  696ccc     H518286   5.086   8.161  10.737  0.7117  0.8143  0.1977
  696ccc     O118287   4.928   8.278  10.775  0.5269  0.2500  0.4829
  696ccc     O218288   5.137   8.403  10.632 -0.1184  0.2048  0.2945
  696ccc     O318289   5.369   8.491  10.836  0.0998  0.1264 -0.0410
  696ccc     O418290   5.343   8.359  11.051  0.5556  0.1700 -0.0555
  696ccc     C618291   5.196   8.132  11.124  0.3052 -0.5113 -0.1693
  696ccc     H618292   5.340   8.553  10.767 -0.0235  0.2779  0.1479
  696ccc     H718293   5.379   8.436  11.004 -0.9641  1.6638  1.0943
  696ccc     H818294   5.041   8.419  10.624 -0.2320  0.5034  1.8206
  696ccc     H918295   5.138   8.210  11.176  0.2296 -1.5170  1.3242
  696ccc    H1018296   5.296   8.108  11.161 -0.0269 -1.5849  0.0608
  696ccc     O518297   5.122   8.007  11.125 -0.4973 -0.2030  0.0693
  696ccc    H1118298   5.062   8.021  11.049  1.1153  2.0549 -0.8725
  696ccc     O618299   5.081   8.215  10.938 -0.3874 -0.0755 -0.3293
  697ccc     C118300   4.445   6.927   9.179 -1.0226  0.1160  0.4802
  697ccc     C218301   4.301   6.972   9.149  0.2363  0.3690 -0.1043
  697ccc     H118302   4.462   6.834   9.123 -1.0688  1.3829 -1.7459
  697ccc     H218303   4.280   6.981   9.042  0.0946 -1.0910 -0.2172
  697ccc     C318304   4.197   6.863   9.214 -0.3129 -0.6306  0.9008
  697ccc     C418305   4.220   6.839   9.363 -1.2207 -0.3408 -0.3515
  697ccc     C518306   4.376   6.818   9.395 -0.8648 -0.4012  0.4277
  697ccc     H318307   4.184   6.927   9.419 -0.9950  0.9642 -2.1614
  697ccc     H418308   4.231   6.772   9.163  1.4558  0.2892  0.3172
  697ccc     H518309   4.395   6.715   9.363 -1.8186  0.0882 -1.8459
  697ccc     O118310   4.389   6.834   9.536 -0.0313 -0.1344 -0.2752
  697ccc     O218311   4.142   6.726   9.402 -0.6850  0.2307  0.6138
  697ccc     O318312   4.063   6.879   9.178 -0.1759  0.1248 -0.3602
  697ccc     O418313   4.285   7.094   9.214  0.9252  0.1304 -0.1181
  697ccc     C618314   4.557   7.021   9.123 -0.4116  0.0602  0.8841
  697ccc     H618315   4.057   6.893   9.082  1.7423 -1.0168 -0.6798
  697ccc     H718316   4.208   7.144   9.183  0.8556 -0.4595 -0.9009
  697ccc     H818317   4.055   6.765   9.383  0.3408  2.6125  0.4183
  697ccc     H918318   4.552   7.018   9.013 -0.3988 -0.9377  0.9008
  697ccc    H1018319   4.650   6.975   9.161 -0.1088 -1.9019 -1.8770
  697ccc     O518320   4.538   7.141   9.180  0.2960 -0.1773  0.4650
  697ccc    H1118321   4.450   7.134   9.221 -0.0197 -1.5052 -0.3732
  697ccc     O618322   4.457   6.909   9.322  0.4459  0.1087  0.0644
  698ccc     C118323   4.479   6.376  10.176 -0.2309 -0.1309  0.6791
  698ccc     C218324   4.500   6.366  10.333 -0.8602 -0.0437  0.2275
  698ccc     H118325   4.575   6.400  10.129 -0.0789  0.1360  1.1176
  698ccc     H218326   4.572   6.287  10.359 -0.6150  0.5840  1.5285
  698ccc     C318327   4.557   6.499  10.379 -0.5283  0.3045 -0.5944
  698ccc     C418328   4.462   6.618  10.340  0.6363  0.1472 -0.7072
  698ccc     C518329   4.430   6.618  10.184  0.0260 -0.2274 -0.1952
  698ccc     H318330   4.372   6.606  10.402  1.8863  0.4122  1.2377
  698ccc     H418331   4.656   6.509  10.333 -0.1106  0.0107  0.2162
  698ccc     H518332   4.513   6.650  10.120  0.1572  1.5379  0.7767
  698ccc     O118333   4.308   6.699  10.147 -0.0006 -0.1005  0.2341
  698ccc     O218334   4.536   6.740  10.368  0.1990 -0.0028 -0.5807
  698ccc     O318335   4.585   6.485  10.526  0.0744 -0.4137 -0.1365
  698ccc     O418336   4.377   6.348  10.395  0.8132  0.1167  0.3427
  698ccc     C618337   4.440   6.244  10.118 -0.3340  0.0764  0.2682
  698ccc     H618338   4.498   6.487  10.569 -0.0295 -0.2610 -0.3478
  698ccc     H718339   4.329   6.280  10.345  0.6801 -1.8473  2.9209
  698ccc     H818340   4.626   6.727  10.333  0.1458 -0.6606 -0.5006
  698ccc     H918341   4.522   6.176  10.145 -0.7463 -0.8673 -0.7927
  698ccc    H1018342   4.442   6.238  10.008 -3.4507 -1.9433  0.1934
  698ccc     O518343   4.312   6.199  10.167 -0.0058 -0.4408  0.4449
  698ccc    H1118344   4.242   6.240  10.114 -1.1067 -0.4447  1.8347
  698ccc     O618345   4.393   6.482  10.153  0.0663  0.3127 -0.4791
  699ccc     C118346   5.306  10.225  10.073 -0.5727  0.2983  0.3019
  699ccc     C218347   5.254  10.323  10.184  0.5501  0.2665  0.5108
  699ccc     H118348   5.329  10.285   9.984 -0.6577 -0.3648 -0.1732
  699ccc     H218349   5.317  10.412  10.190 -0.0852  0.7363  0.2978
  699ccc     C318350   5.109  10.377  10.148  0.5123  0.1360  0.8210
  699ccc     C418351   5.016  10.258  10.116 -0.2656 -0.5700 -0.0856
  699ccc     C518352   5.075  10.171  10.008 -0.2001  0.1544 -0.3945
  699ccc     H318353   5.010  10.191  10.202 -0.2366 -4.2435 -2.7196
  699ccc     H418354   5.134  10.433  10.057  0.6781 -0.4877  0.4718
  699ccc     H518355   5.082  10.220   9.910  0.0682 -0.3178 -0.6142
  699ccc     O118356   4.984  10.062   9.989 -0.2456 -0.4970 -0.0839
  699ccc     O218357   4.883  10.297  10.071  0.2062 -0.4693  0.1158
  699ccc     O318358   5.061  10.461  10.255 -0.5943 -0.3970 -0.0234
  699ccc     O418359   5.255  10.242  10.307 -0.3470  0.2452 -0.0014
  699ccc     C618360   5.424  10.138  10.105 -0.3192  0.2880 -0.1922
  699ccc     H618361   5.050  10.411  10.337  0.1811  0.0907  0.3925
  699ccc     H718362   5.223  10.297  10.381  0.1924  2.1132 -1.0937
  699ccc     H818363   4.840  10.329  10.152 -1.5909  0.0989 -1.0122
  699ccc     H918364   5.500  10.211  10.137 -1.1790  1.1534 -0.0589
  699ccc    H1018365   5.473  10.099  10.015  1.4258  0.7680  0.5053
  699ccc     O518366   5.397  10.052  10.219  0.6648 -0.0204  0.8902
  699ccc    H1118367   5.330  10.111  10.258 -0.0827 -1.9429  2.7066
  699ccc     O618368   5.208  10.128  10.036 -0.0842  0.1996  0.6599
  700ccc     C118369   4.704   9.410  10.698 -0.7174 -0.6570  0.1117
  700ccc     C218370   4.574   9.483  10.722  0.3765 -0.0732 -0.3390
  700ccc     H118371   4.764   9.447  10.782 -1.9969  2.2113 -0.1151
  700ccc     H218372   4.547   9.442  10.819  1.7191 -0.6472 -0.1822
  700ccc     C318373   4.595   9.638  10.725 -0.4243  0.0262  0.1067
  700ccc     C418374   4.677   9.680  10.600  0.3280 -0.3638  0.2849
  700ccc     C518375   4.803   9.594  10.585 -0.8268 -0.3742 -0.3202
  700ccc     H318376   4.617   9.662  10.510  0.9624 -0.1187 -0.1996
  700ccc     H418377   4.653   9.664  10.814 -1.3664  1.1148  0.4322
  700ccc     H518378   4.865   9.607  10.675 -1.8693  0.6900  0.2728
  700ccc     O118379   4.872   9.624  10.464 -0.0289  0.1355 -0.4207
  700ccc     O218380   4.712   9.814  10.614  0.0329 -0.2191 -0.1060
  700ccc     O318381   4.468   9.709  10.721  0.0330  0.1064  0.8045
  700ccc     O418382   4.485   9.448  10.620  0.2124  0.0082  0.1210
  700ccc     C618383   4.699   9.256  10.685 -0.0786 -0.9199  0.1445
  700ccc     H618384   4.490   9.799  10.690  0.8090 -0.9141 -1.8737
  700ccc     H718385   4.525   9.364  10.591  1.0768 -0.4357  2.3900
  700ccc     H818386   4.754   9.842  10.531  0.7806  0.1965  0.4064
  700ccc     H918387   4.665   9.214  10.780 -1.7606  0.7595  0.3418
  700ccc    H1018388   4.804   9.224  10.679 -0.0170 -1.1281  1.9758
  700ccc     O518389   4.628   9.219  10.565  0.3473 -0.7710 -0.1886
  700ccc    H1118390   4.699   9.191  10.504 -0.7798 -0.9005 -1.4794
  700ccc     O618391   4.769   9.458  10.579 -0.3440  0.0026  0.1843
  701ccc     C118392   3.536   8.442   9.245 -0.2042 -0.3082  0.4143
  701ccc     C218393   3.542   8.311   9.342  0.4333 -0.8335 -0.2756
  701ccc     H118394   3.522   8.409   9.141  0.4832 -0.8922  0.4969
  701ccc     H218395   3.448   8.255   9.331  0.4227 -0.7253 -0.7703
  701ccc     C318396   3.666   8.222   9.305  0.2611 -0.5265 -0.6749
  701ccc     C418397   3.794   8.303   9.287  0.2463 -0.3871  0.4266
  701ccc     C518398   3.775   8.435   9.212  0.1954  0.1197  0.6305
  701ccc     H318399   3.832   8.318   9.389 -0.2390 -1.2481  0.7464
  701ccc     H418400   3.642   8.168   9.212  1.5525 -0.5908 -0.9806
  701ccc     H518401   3.775   8.425   9.103  1.8604 -4.1979  0.8466
  701ccc     O118402   3.884   8.527   9.242 -0.0327 -0.1272 -0.1444
  701ccc     O218403   3.892   8.226   9.211  0.3908  0.3670 -0.8480
  701ccc     O318404   3.681   8.120   9.404  0.1357  0.4406  0.3862
  701ccc     O418405   3.564   8.362   9.473 -0.4291  0.0053  0.3547
  701ccc     C618406   3.422   8.542   9.264 -0.8745  0.2077  0.4376
  701ccc     H618407   3.594   8.077   9.400  0.7038 -0.6892 -2.9473
  701ccc     H718408   3.535   8.294   9.535  1.2575 -0.4302  0.6844
  701ccc     H818409   3.956   8.196   9.278 -1.9755  2.0354  2.3628
  701ccc     H918410   3.442   8.607   9.349 -0.5779 -0.4720  0.8876
  701ccc    H1018411   3.323   8.495   9.271 -1.3355  0.6903 -1.9138
  701ccc     O518412   3.421   8.632   9.153 -0.0950  0.4140  0.0154
  701ccc    H1118413   3.505   8.617   9.107  1.1777  0.1442  2.2870
  701ccc     O618414   3.659   8.512   9.256 -0.6457 -0.3394 -0.5249
  702ccc     C118415   4.229   8.923   8.397  0.2974  0.5431 -0.0741
  702ccc     C218416   4.293   9.030   8.311  0.3448  0.2396 -0.7551
  702ccc     H118417   4.130   8.906   8.352  0.3912  1.9095 -0.8547
  702ccc     H218418   4.288   8.995   8.207  0.8118 -2.3746  0.0357
  702ccc     C318419   4.213   9.166   8.329  0.3240 -0.3646 -0.5543
  702ccc     C418420   4.201   9.219   8.473  0.4329  0.3208  0.1386
  702ccc     C518421   4.133   9.097   8.546  0.4739 -0.3202  0.0289
  702ccc     H318422   4.304   9.228   8.507  1.1576  0.4536 -1.9587
  702ccc     H418423   4.108   9.151   8.302  0.7883 -0.9843 -2.1459
  702ccc     H518424   4.037   9.083   8.495  0.6881  1.0416 -0.8125
  702ccc     O118425   4.120   9.123   8.687 -0.6202 -0.6370 -0.1001
  702ccc     O218426   4.119   9.338   8.482 -0.1498  0.2293  0.4732
  702ccc     O318427   4.269   9.267   8.239 -0.0910 -0.2563  0.2184
  702ccc     O418428   4.425   9.051   8.354 -0.0825  0.5541  0.1171
  702ccc     C618429   4.306   8.793   8.417  0.0686 -0.2419 -0.2300
  702ccc     H618430   4.330   9.324   8.287 -1.1628  1.5815 -0.4945
  702ccc     H718431   4.461   9.090   8.272  0.9219 -2.0582 -0.7913
  702ccc     H818432   4.098   9.360   8.574 -3.4460  0.2210 -0.1804
  702ccc     H918433   4.384   8.806   8.493  0.5262  1.6474 -0.9527
  702ccc    H1018434   4.360   8.774   8.324  1.1245 -3.5454  0.9185
  702ccc     O518435   4.218   8.688   8.446 -0.3820  0.2679  0.8900
  702ccc    H1118436   4.280   8.616   8.467  1.2313  1.3217 -0.0821
  702ccc     O618437   4.214   8.981   8.525 -0.3797 -0.8041 -0.7452
  703ccc     C118438  11.871   8.230   8.993  0.7194  0.8798  0.0788
  703ccc     C218439  12.013   8.184   8.981 -0.3739  0.0884 -0.4462
  703ccc     H118440  11.860   8.339   9.001  2.1292  1.0592 -0.1483
  703ccc     H218441  12.069   8.241   8.905  0.8652 -0.2127  0.2227
  703ccc     C318442  12.095   8.193   9.110  0.3430 -0.3920 -0.4327
  703ccc     C418443  12.024   8.135   9.236  0.0300  0.7822 -0.4095
  703ccc     C518444  11.873   8.188   9.237  0.3184 -0.0402  0.1481
  703ccc     H318445  12.015   8.026   9.226  0.2064  0.4734  2.2422
  703ccc     H418446  12.112   8.299   9.135 -0.4450 -0.2911 -0.3055
  703ccc     H518447  11.888   8.295   9.253 -0.0806  0.2127 -1.0934
  703ccc     O118448  11.785   8.123   9.337 -0.1114 -0.4773 -0.4281
  703ccc     O218449  12.099   8.167   9.356  0.5585  0.3219 -0.5324
  703ccc     O318450  12.218   8.115   9.099 -0.3907 -0.1479  0.4019
  703ccc     O418451  12.007   8.045   8.947 -0.9983 -0.4303  0.7730
  703ccc     C618452  11.779   8.200   8.873  0.1359  0.0690 -0.0451
  703ccc     H618453  12.259   8.115   9.188 -0.9036 -1.5408  0.6551
  703ccc     H718454  11.921   8.028   8.904 -1.3234 -0.1049  1.2870
  703ccc     H818455  12.048   8.172   9.439  1.4919 -0.7299  0.1495
  703ccc     H918456  11.827   8.247   8.786  2.3918  0.6839  1.4253
  703ccc    H1018457  11.685   8.254   8.887  0.8101  0.5912  3.4908
  703ccc     O518458  11.759   8.057   8.865  0.5496  0.3054 -0.1020
  703ccc    H1118459  11.702   8.042   8.943 -1.0819 -1.3146 -1.4863
  703ccc     O618460  11.809   8.174   9.111 -0.0716 -0.1773 -0.9066
  704ccc     C118461  11.295   7.655  10.156 -0.6555 -0.5169 -0.1514
  704ccc     C218462  11.186   7.561  10.213 -0.9069 -0.4410 -0.3134
  704ccc     H118463  11.268   7.759  10.178  0.7221  0.3160 -2.1138
  704ccc     H218464  11.175   7.599  10.315 -0.4686  0.9445 -0.7648
  704ccc     C318465  11.053   7.558  10.138 -0.0239 -0.0861  0.4007
  704ccc     C418466  11.079   7.553   9.983  0.4357 -0.2278  0.3328
  704ccc     C518467  11.182   7.661   9.935  0.1706  0.2274 -0.0476
  704ccc     H318468  11.136   7.461   9.963  1.6433  0.1856  1.7181
  704ccc     H418469  10.995   7.644  10.173 -0.5136 -0.9160  1.7402
  704ccc     H518470  11.144   7.763   9.943 -2.2221 -0.6505  0.6312
  704ccc     O118471  11.202   7.644   9.788  0.5063  0.6036 -0.9782
  704ccc     O218472  10.956   7.552   9.920  0.1281 -0.0518  0.1556
  704ccc     O318473  10.981   7.435  10.168 -0.6272  0.9276 -0.2597
  704ccc     O418474  11.225   7.424  10.223 -0.3272 -0.1411 -0.0931
  704ccc     C618475  11.437   7.631  10.217  0.1752 -0.0724 -0.4350
  704ccc     H618476  10.908   7.433  10.104 -0.5389 -2.4435 -0.3901
  704ccc     H718477  11.137   7.383  10.214  0.5047 -2.5156  1.6142
  704ccc     H818478  10.969   7.522   9.828 -2.5432 -2.1871  0.3594
  704ccc     H918479  11.462   7.530  10.183 -2.2196 -0.5158 -1.0662
  704ccc    H1018480  11.424   7.631  10.326 -0.1578 -0.6230 -0.4694
  704ccc     O518481  11.522   7.736  10.171  0.0999  0.3286 -0.2175
  704ccc    H1118482  11.527   7.797  10.247  1.7470 -1.2117  1.0194
  704ccc     O618483  11.303   7.644  10.014  0.5012  0.1599  0.0178
  705ccc     C118484   9.941   9.375  10.363 -0.1203  0.5647  0.5869
  705ccc     C218485   9.824   9.264  10.352  0.0364 -1.0458 -0.3192
  705ccc     H118486   9.909   9.467  10.312 -1.9934  0.2148  1.0697
  705ccc     H218487   9.724   9.307  10.365  0.6651  1.0189 -1.8143
  705ccc     C318488   9.823   9.202  10.208 -0.6275  0.2695 -0.2603
  705ccc     C418489   9.959   9.144  10.166 -0.5116  0.9559  0.0316
  705ccc     C518490  10.063   9.251  10.173  0.1541  0.5440 -0.9021
  705ccc     H318491   9.985   9.065  10.238  2.3397  0.9606 -0.8655
  705ccc     H418492   9.802   9.287  10.142 -2.3605 -0.4138 -0.6423
  705ccc     H518493  10.045   9.312  10.084  0.3064  1.4960 -0.3064
  705ccc     O118494  10.202   9.190  10.164 -0.2337  0.8685 -0.0583
  705ccc     O218495   9.952   9.085  10.032 -0.0496  0.5037 -0.1097
  705ccc     O318496   9.716   9.108  10.190 -0.1196  0.2197 -0.7174
  705ccc     O418497   9.854   9.165  10.449 -0.0564 -0.0343  0.1301
  705ccc     C618498   9.979   9.417  10.509  0.2204  0.2876  0.8403
  705ccc     H618499   9.704   9.076  10.281 -2.2138  1.6343 -0.4424
  705ccc     H718500   9.780   9.105  10.467 -1.6050  2.0954  1.4036
  705ccc     H818501   9.858   9.057  10.026 -0.8712  2.3925  2.4600
  705ccc     H918502  10.082   9.381  10.521  0.1814 -0.9745 -1.8879
  705ccc    H1018503   9.924   9.370  10.591  0.6320 -0.0495  0.9268
  705ccc     O518504   9.974   9.558  10.524  0.6629  0.2194  0.0431
  705ccc    H1118505   9.885   9.574  10.487  0.9011 -0.3710 -0.8103
  705ccc     O618506  10.068   9.322  10.305 -0.4001 -0.4666  0.5712
  706ccc     C118507  10.303   8.402  10.438  0.4670 -0.5385 -0.2433
  706ccc     C218508  10.274   8.347  10.581  0.5175  0.1533  0.1250
  706ccc     H118509  10.383   8.342  10.394  0.5320 -1.2840  0.8437
  706ccc     H218510  10.266   8.238  10.565  0.4622 -0.1577  2.0735
  706ccc     C318511  10.380   8.377  10.687 -0.7680 -0.2101  0.6233
  706ccc     C418512  10.441   8.521  10.670  0.8542 -0.1323 -0.2690
  706ccc     C518513  10.462   8.574  10.525  0.1371 -0.0681 -0.1906
  706ccc     H318514  10.363   8.582  10.716  3.9857  2.7923  1.6510
  706ccc     H418515  10.466   8.310  10.679  1.5311  2.5468  0.7124
  706ccc     H518516  10.551   8.523  10.489 -0.4263 -1.2259  0.0260
  706ccc     O118517  10.465   8.716  10.527 -0.1719 -0.9304 -0.4886
  706ccc     O218518  10.563   8.538  10.743  0.8461  0.4521 -0.4462
  706ccc     O318519  10.325   8.350  10.822  0.6493 -0.1242 -0.2127
  706ccc     O418520  10.146   8.404  10.630  0.2075 -0.1007  0.9211
  706ccc     C618521  10.187   8.384  10.340 -0.0407  0.1488 -0.2142
  706ccc     H618522  10.350   8.258  10.838 -0.4249 -0.3556  0.2622
  706ccc     H718523  10.136   8.362  10.717 -1.7403 -2.1663 -0.2101
  706ccc     H818524  10.544   8.502  10.831 -0.3851 -0.4779 -1.0573
  706ccc     H918525  10.172   8.277  10.321 -0.0249  0.4383 -2.0311
  706ccc    H1018526  10.217   8.440  10.250  0.1085  0.7917  0.2284
  706ccc     O518527  10.066   8.436  10.383 -0.5776 -0.1182  0.4007
  706ccc    H1118528  10.086   8.427  10.478  0.2660 -3.1310  0.0668
  706ccc     O618529  10.342   8.539  10.451 -0.1596 -0.0469  0.1817
  707ccc     C118530  10.010   9.181   7.985  0.7986 -0.3192 -0.7750
  707ccc     C218531   9.989   9.221   7.837  0.4445 -0.8016 -0.0149
  707ccc     H118532   9.968   9.080   7.993 -1.7984  0.8453  2.7738
  707ccc     H218533  10.040   9.153   7.769 -1.3402 -1.2791 -0.9334
  707ccc     C318534   9.837   9.235   7.808  0.5455  0.2300  0.2059
  707ccc     C418535   9.772   9.339   7.907  0.1081  0.1132 -0.2196
  707ccc     C518536   9.803   9.307   8.054  0.2897  0.5048  0.4848
  707ccc     H318537   9.818   9.435   7.878 -0.6375 -0.1196 -2.3529
  707ccc     H418538   9.794   9.136   7.828  0.9461  0.0812  0.3474
  707ccc     H518539   9.746   9.216   8.074  0.6158  0.2609  0.2987
  707ccc     O118540   9.753   9.406   8.147 -1.1249 -0.4578  0.5534
  707ccc     O218541   9.625   9.336   7.889 -0.1194 -0.0217 -0.4615
  707ccc     O318542   9.821   9.261   7.665 -0.5021 -0.5845  0.0342
  707ccc     O418543  10.058   9.348   7.823  0.2187 -0.4018 -0.4708
  707ccc     C618544  10.153   9.186   8.027 -0.2514  0.4718 -0.1666
  707ccc     H618545   9.868   9.343   7.641 -1.7907 -0.2471 -1.5401
  707ccc     H718546  10.080   9.355   7.729  1.1384 -0.6520 -0.2882
  707ccc     H818547   9.592   9.245   7.903 -3.9824  1.1628 -0.6366
  707ccc     H918548  10.184   9.287   8.057  1.7043  0.0886 -0.7598
  707ccc    H1018549  10.221   9.153   7.947  0.8886  1.3543  0.3990
  707ccc     O518550  10.168   9.113   8.148  0.7062  0.0705  0.0616
  707ccc    H1118551  10.248   9.146   8.191 -0.0884  0.7408  1.0652
  707ccc     O618552   9.945   9.279   8.069 -0.4064  0.0896 -0.4350
  708ccc     C118553   9.590  10.370   8.308 -0.2404 -0.1565 -0.2103
  708ccc     C218554   9.586  10.376   8.152 -0.7728 -0.1761 -0.6526
  708ccc     H118555   9.697  10.378   8.332 -0.2086 -0.6064 -0.1890
  708ccc     H218556   9.625  10.474   8.122 -3.2872  0.7604 -1.1252
  708ccc     C318557   9.678  10.269   8.088 -0.4442  0.2310  0.0715
  708ccc     C418558   9.657  10.129   8.156  0.4451  0.1148  0.0867
  708ccc     C518559   9.642  10.135   8.313  0.0179 -0.4845  0.1033
  708ccc     H318560   9.560  10.101   8.113 -0.8516  4.3137 -0.2140
  708ccc     H418561   9.781  10.290   8.118 -0.2404 -0.3242 -0.2252
  708ccc     H518562   9.739  10.162   8.357  1.2438  0.3883 -2.8519
  708ccc     O118563   9.582  10.008   8.363  0.1906  0.9145  0.2628
  708ccc     O218564   9.762  10.040   8.113 -0.0078  0.3126  0.6439
  708ccc     O318565   9.666  10.262   7.940 -0.1332  0.1992 -0.1915
  708ccc     O418566   9.452  10.364   8.105  0.5910  0.2254 -0.5543
  708ccc     C618567   9.511  10.484   8.381  0.0099 -0.4566 -0.0641
  708ccc     H618568   9.668  10.353   7.905  2.3822  0.9256  1.5363
  708ccc     H718569   9.410  10.391   8.189  0.7929  1.3355 -0.8005
  708ccc     H818570   9.771   9.967   8.177 -2.0228 -1.2735 -0.7712
  708ccc     H918571   9.552  10.581   8.354  2.3398 -1.0147  1.1976
  708ccc    H1018572   9.510  10.475   8.490 -1.4730 -3.0230 -0.2146
  708ccc     O518573   9.373  10.465   8.348  0.0059  0.3281  0.2419
  708ccc    H1118574   9.335  10.429   8.430  0.4534  2.9542  1.7252
  708ccc     O618575   9.552  10.244   8.352  0.0571  0.2280 -0.3477
  709ccc     C118576   8.648   9.012   8.256 -0.0518 -0.1456  0.9251
  709ccc     C218577   8.549   8.897   8.281  0.3867  0.6247 -0.2506
  709ccc     H118578   8.680   9.013   8.151  1.2023 -1.7649  1.2531
  709ccc     H218579   8.472   8.900   8.204  1.1240 -2.4101 -1.2585
  709ccc     C318580   8.619   8.759   8.264  0.1829  0.4208 -0.4751
  709ccc     C418581   8.742   8.743   8.355 -0.5960  0.3062  0.1328
  709ccc     C518582   8.832   8.868   8.324  0.2302  0.0587 -0.4797
  709ccc     H318583   8.724   8.751   8.463  0.7124 -1.9554  0.5765
  709ccc     H418584   8.637   8.739   8.158 -3.7247 -0.8904 -1.0401
  709ccc     H518585   8.853   8.863   8.216 -1.5379 -0.7616 -0.8229
  709ccc     O118586   8.956   8.870   8.402  0.1876  0.0616 -0.1953
  709ccc     O218587   8.814   8.616   8.335 -0.3893 -0.2417  0.0816
  709ccc     O318588   8.524   8.654   8.291  0.0774 -0.1230 -0.4139
  709ccc     O418589   8.491   8.913   8.413  0.0412  0.3235  0.0479
  709ccc     C618590   8.582   9.150   8.272  0.0951  0.0917 -0.6051
  709ccc     H618591   8.559   8.605   8.367  2.0225  2.9153  0.8141
  709ccc     H718592   8.409   8.861   8.412  1.3647 -1.9000  0.4014
  709ccc     H818593   8.878   8.618   8.408  0.3401 -0.6637 -0.5313
  709ccc     H918594   8.581   9.168   8.381 -0.0801 -0.4873 -0.5060
  709ccc    H1018595   8.479   9.136   8.239 -0.1592 -0.3076  0.3012
  709ccc     O518596   8.644   9.253   8.192  0.7072 -0.2851  0.3477
  709ccc    H1118597   8.737   9.225   8.180  0.5845  0.1387 -1.8732
  709ccc     O618598   8.765   8.996   8.342 -0.1365  0.9105 -0.2454
  710ccc     C118599   8.989   9.774   8.830 -0.2984  0.2800 -0.0862
  710ccc     C218600   9.065   9.805   8.959  0.0928 -0.0020 -0.6233
  710ccc     H118601   8.882   9.776   8.854 -0.2241  0.7913  0.2153
  710ccc     H218602   9.025   9.898   9.003  2.2435 -0.3525  2.3484
  710ccc     C318603   9.057   9.689   9.059  0.2414 -0.3101  0.0488
  710ccc     C418604   9.099   9.551   8.999  0.2344 -0.3453  0.5030
  710ccc     C518605   9.008   9.529   8.872 -0.1309  0.3813 -0.8800
  710ccc     H318606   9.201   9.569   8.963 -0.4878  1.0512 -0.9462
  710ccc     H418607   8.954   9.674   9.095  0.5034 -0.7190  0.6365
  710ccc     H518608   8.901   9.526   8.894  0.0021  2.3570  0.2485
  710ccc     O118609   9.059   9.400   8.807 -0.5209  0.0598 -1.1709
  710ccc     O218610   9.075   9.450   9.093  0.2100  0.4075  0.1921
  710ccc     O318611   9.133   9.726   9.177  0.0734 -0.1885  0.0940
  710ccc     O418612   9.208   9.821   8.930  0.2444 -0.5796 -0.2773
  710ccc     C618613   9.003   9.873   8.709 -0.0651  0.1809  0.0274
  710ccc     H618614   9.122   9.647   9.233  0.5480 -1.4560 -1.5114
  710ccc     H718615   9.248   9.821   9.018 -1.9037  2.4862  0.8907
  710ccc     H818616   9.085   9.364   9.048 -3.1734  1.2634 -2.5423
  710ccc     H918617   8.980   9.977   8.738 -0.0724 -0.2747  1.7652
  710ccc    H1018618   8.927   9.843   8.636 -1.0592 -0.6914  1.3690
  710ccc     O518619   9.137   9.877   8.667  0.1245  0.1862  0.0271
  710ccc    H1118620   9.177   9.837   8.746  2.3073  1.1533 -0.4979
  710ccc     O618621   9.024   9.640   8.782 -0.0390 -0.4715  0.1469
  711ccc     C118622  10.006   5.665   8.769 -0.0033  0.0333 -0.4233
  711ccc     C218623  10.124   5.681   8.867  0.2918  0.0406  0.0938
  711ccc     H118624  10.009   5.742   8.692 -0.6556  2.4687  1.8348
  711ccc     H218625  10.211   5.660   8.804 -0.2207 -1.1185 -0.2468
  711ccc     C318626  10.122   5.830   8.910  0.0801 -0.4376  0.3994
  711ccc     C418627   9.987   5.868   8.980 -0.2304 -0.3891 -0.0622
  711ccc     C518628   9.866   5.827   8.890  0.3724 -0.0236  0.2180
  711ccc     H318629   9.980   5.808   9.072  0.0304  3.3045  2.5780
  711ccc     H418630  10.132   5.889   8.817 -0.2381  0.1091  0.7055
  711ccc     H518631   9.850   5.885   8.799 -1.0432  1.4301  1.3471
  711ccc     O118632   9.748   5.832   8.973 -0.1250  0.0384 -0.2067
  711ccc     O218633  10.005   6.010   9.014 -0.0651 -0.7229 -0.0171
  711ccc     O318634  10.241   5.863   8.986  0.4136 -0.3462 -0.3942
  711ccc     O418635  10.111   5.584   8.968  0.1021 -0.0552 -0.1939
  711ccc     C618636   9.987   5.527   8.710 -0.1346  0.0431 -0.1798
  711ccc     H618637  10.305   5.880   8.915 -0.3996  1.2405 -0.7819
  711ccc     H718638  10.052   5.513   8.937 -2.0786 -0.3924  4.0261
  711ccc     H818639  10.092   6.014   9.058 -1.4170  1.2398  2.7560
  711ccc     H918640  10.064   5.516   8.632 -0.0042 -2.9553  0.2735
  711ccc    H1018641   9.888   5.536   8.664 -0.6306  1.3000  1.0634
  711ccc     O518642  10.005   5.421   8.809 -0.1096  0.4738 -0.3307
  711ccc    H1118643   9.956   5.345   8.773  0.6956 -0.9263  1.4279
  711ccc     O618644   9.883   5.688   8.847 -0.5870 -0.0770  0.5535
  712ccc     C118645   8.627   5.676   9.338  0.5412  0.2576  0.5652
  712ccc     C218646   8.609   5.564   9.438 -0.7927  0.1487  0.3269
  712ccc     H118647   8.625   5.628   9.240 -0.7121  2.6047 -0.6348
  712ccc     H218648   8.520   5.508   9.406 -0.8539 -0.0795  0.8844
  712ccc     C318649   8.739   5.475   9.453  0.2803 -0.0165 -0.3778
  712ccc     C418650   8.862   5.568   9.465  0.6858 -0.3224  0.2222
  712ccc     C518651   8.868   5.650   9.336 -0.6423  0.0872  0.4328
  712ccc     H318652   8.843   5.640   9.545 -1.7699  1.5733 -1.8724
  712ccc     H418653   8.744   5.406   9.367 -1.6559 -0.2938 -0.3143
  712ccc     H518654   8.848   5.589   9.248 -3.0715  0.3042  0.7850
  712ccc     O118655   8.996   5.715   9.328  0.4464  0.3153 -0.3332
  712ccc     O218656   8.972   5.482   9.487  0.4539  0.3588  0.0119
  712ccc     O318657   8.717   5.399   9.574 -0.2271 -0.4058  0.5719
  712ccc     O418658   8.586   5.625   9.568 -0.2599  0.7663  0.1883
  712ccc     C618659   8.513   5.780   9.347 -0.7496  0.5707 -0.2696
  712ccc     H618660   8.773   5.324   9.551  1.9173  1.5608 -1.1766
  712ccc     H718661   8.629   5.554   9.618 -0.3953 -0.9542 -2.0030
  712ccc     H818662   9.050   5.537   9.507  1.1307 -0.5314 -0.0983
  712ccc     H918663   8.524   5.840   9.438  1.3958 -0.2336  0.0500
  712ccc    H1018664   8.408   5.748   9.353 -1.1040  1.7592  0.2921
  712ccc     O518665   8.535   5.865   9.240 -0.1306 -0.3030  0.1501
  712ccc    H1118666   8.618   5.904   9.272  1.4990 -2.3931 -1.2854
  712ccc     O618667   8.756   5.737   9.348  0.1968 -0.5405  0.9688
  713ccc     C118668  11.356   6.988   9.305 -0.3138  0.1305  0.6123
  713ccc     C218669  11.338   7.123   9.230 -0.1345  0.2896 -0.0590
  713ccc     H118670  11.405   6.917   9.237 -1.8312 -0.6902  0.3074
  713ccc     H218671  11.433   7.135   9.175  1.2662 -1.3149  1.8558
  713ccc     C318672  11.220   7.117   9.137  0.1209  0.0502 -0.4460
  713ccc     C418673  11.093   7.082   9.214  0.3157 -0.7080 -0.5573
  713ccc     C518674  11.116   6.942   9.277  0.3051  0.1461  0.1470
  713ccc     H318675  11.088   7.152   9.298  0.5188 -1.4796  0.1162
  713ccc     H418676  11.241   7.031   9.073 -0.1642 -1.6023  1.5684
  713ccc     H518677  11.141   6.875   9.194  0.0851 -0.0074  0.2050
  713ccc     O118678  11.001   6.895   9.351  0.4574  0.0217 -0.4205
  713ccc     O218679  10.975   7.097   9.131 -0.0592  0.5678  0.0705
  713ccc     O318680  11.210   7.238   9.057 -0.2039 -0.2112 -0.0707
  713ccc     O418681  11.326   7.232   9.329  0.0240  0.4270  0.3106
  713ccc     C618682  11.457   7.017   9.412 -0.2971 -0.2250  0.1687
  713ccc     H618683  11.300   7.260   9.028  0.0679 -0.9874  0.1533
  713ccc     H718684  11.338   7.308   9.269  0.0672  0.0094 -0.2250
  713ccc     H818685  10.985   7.019   9.075 -0.3064 -0.1406  0.9916
  713ccc     H918686  11.419   7.087   9.488 -0.8277  0.4026 -0.6592
  713ccc    H1018687  11.542   7.067   9.365 -0.6677 -1.0110 -1.4025
  713ccc     O518688  11.495   6.889   9.470 -0.7423  0.0959  0.0449
  713ccc    H1118689  11.414   6.854   9.510 -2.0394  1.5919 -1.1547
  713ccc     O618690  11.237   6.932   9.363  0.6889  0.3792  0.4145
  714ccc     C118691  11.270   5.989   9.804 -0.2308 -0.3043 -0.5417
  714ccc     C218692  11.258   5.889   9.687 -0.5132 -0.4500  0.2564
  714ccc     H118693  11.213   5.944   9.886 -0.1363  0.9213  0.2173
  714ccc     H218694  11.296   5.792   9.721  1.2595  0.8192  2.1859
  714ccc     C318695  11.111   5.878   9.644 -0.1001  0.5579 -0.3243
  714ccc     C418696  11.045   6.017   9.614 -0.2942  0.5238 -0.6308
  714ccc     C518697  11.074   6.111   9.736 -0.1125 -0.6466  0.1917
  714ccc     H318698  11.095   6.061   9.527  0.1218  0.6008 -0.3583
  714ccc     H418699  11.060   5.834   9.731  2.2193 -1.2044  0.2526
  714ccc     H518700  11.014   6.070   9.818  0.0440  0.3338  0.8157
  714ccc     O118701  11.018   6.237   9.702  0.2625 -0.2109  0.2569
  714ccc     O218702  10.903   5.991   9.597  0.0266 -0.3020  0.3079
  714ccc     O318703  11.102   5.784   9.532  0.1458  0.0003  0.6505
  714ccc     O418704  11.337   5.929   9.580 -0.1297 -0.2800 -0.0801
  714ccc     C618705  11.416   6.004   9.845  0.0990 -0.2463  0.6764
  714ccc     H618706  11.009   5.760   9.518  0.0897  1.0937 -1.2179
  714ccc     H718707  11.334   5.848   9.525 -0.2669 -0.7042  0.5455
  714ccc     H818708  10.868   6.080   9.576 -1.4213 -0.5173  1.6308
  714ccc     H918709  11.465   6.083   9.787 -0.9588 -0.2406 -0.2265
  714ccc    H1018710  11.469   5.910   9.823  2.6920  1.1582  0.5192
  714ccc     O518711  11.422   6.048   9.983  0.3323 -0.0285 -0.4683
  714ccc    H1118712  11.359   6.121   9.992 -0.0526 -0.3412 -0.6280
  714ccc     O618713  11.211   6.118   9.767 -0.0421  0.3604  0.3469
  715ccc     C118714   8.224   7.980   8.120  0.9227 -0.1179 -0.4978
  715ccc     C218715   8.103   8.047   8.050  0.3677  0.0218  0.1379
  715ccc     H118716   8.285   8.050   8.177  0.6021  0.7718 -1.2366
  715ccc     H218717   8.030   8.085   8.122 -0.2085 -1.1121  0.1642
  715ccc     C318718   8.150   8.161   7.955 -0.6544  0.2469  1.1390
  715ccc     C418719   8.262   8.104   7.857  0.7638  0.1275 -0.1008
  715ccc     C518720   8.362   8.011   7.921 -0.2950 -0.0607 -0.0835
  715ccc     H318721   8.210   8.037   7.786 -0.2389  0.8892 -0.0997
  715ccc     H418722   8.205   8.225   8.025 -3.4386  1.5218  2.3340
  715ccc     H518723   8.443   8.067   7.970  0.1566 -2.1248  1.7135
  715ccc     O118724   8.422   7.929   7.820 -0.3274 -0.0657  0.1001
  715ccc     O218725   8.316   8.218   7.787 -0.4845 -0.1515  0.2440
  715ccc     O318726   8.045   8.224   7.877 -0.0016 -0.1139  0.2460
  715ccc     O418727   8.033   7.946   7.983  0.0543  0.5206  0.1311
  715ccc     C618728   8.173   7.875   8.218  0.4764  0.3480  0.5348
  715ccc     H618729   8.021   8.158   7.810  2.3812 -0.5380 -0.2952
  715ccc     H718730   7.948   7.978   7.948  0.1714 -0.4998 -1.1592
  715ccc     H818731   8.359   8.272   7.856 -1.3001 -1.1181  1.5463
  715ccc     H918732   8.126   7.790   8.168 -1.7114  1.4906  0.5009
  715ccc    H1018733   8.093   7.916   8.281 -1.2557 -1.6149 -0.2469
  715ccc     O518734   8.279   7.835   8.303 -0.3665  0.0654 -0.7086
  715ccc    H1118735   8.226   7.780   8.363 -1.1220  1.9011  0.3775
  715ccc     O618736   8.305   7.923   8.015 -0.1032  0.0643  0.5088
  716ccc     C118737   7.908   7.128   8.004  0.0124  0.0026 -0.0831
  716ccc     C218738   7.880   7.045   7.875 -0.1152  0.2831 -0.3002
  716ccc     H118739   7.825   7.196   8.026  0.0088  0.2958 -0.9757
  716ccc     H218740   7.783   6.994   7.886  0.1241 -0.3091 -0.8742
  716ccc     C318741   7.877   7.139   7.753  0.1829  0.2017 -0.2646
  716ccc     C418742   7.993   7.248   7.749 -0.0837  0.3490  0.5762
  716ccc     C518743   8.020   7.309   7.884  0.2241 -0.9418  0.5479
  716ccc     H318744   8.081   7.190   7.718  0.2643  0.9944  0.3290
  716ccc     H418745   7.786   7.200   7.757  0.5343  0.8594 -1.8003
  716ccc     H518746   7.938   7.376   7.913  1.2963  0.6367 -0.0011
  716ccc     O118747   8.147   7.371   7.881  0.3393 -0.6443 -0.0181
  716ccc     O218748   7.970   7.349   7.647  0.1193  0.0983 -0.2980
  716ccc     O318749   7.887   7.063   7.634  0.1547 -0.0455  0.0035
  716ccc     O418750   7.983   6.945   7.864  0.1629  0.2180  0.2586
  716ccc     C618751   7.938   7.038   8.124  0.7150 -0.5228 -0.2457
  716ccc     H618752   7.800   7.073   7.591 -0.1518 -0.2789  0.5522
  716ccc     H718753   7.973   6.927   7.768 -0.0693 -4.2246  0.8754
  716ccc     H818754   7.998   7.303   7.567  0.6337 -0.1382  0.0138
  716ccc     H918755   8.032   6.984   8.111 -0.0873 -2.0807  0.2673
  716ccc    H1018756   7.851   6.973   8.140 -0.4725  1.6612  3.3605
  716ccc     O518757   7.953   7.124   8.235  0.3063 -0.4747 -0.1119
  716ccc    H1118758   7.958   7.068   8.314  1.6766  0.6213  0.6329
  716ccc     O618759   8.024   7.210   7.985 -0.0758  0.3930  0.3631
  717ccc     C118760   9.044   8.252   8.138  0.1579  0.3509  0.0513
  717ccc     C218761   8.950   8.314   8.238  0.1300 -0.0914 -0.5649
  717ccc     H118762   9.036   8.297   8.038 -1.6927  0.3595  0.1707
  717ccc     H218763   8.973   8.421   8.242  0.7398 -0.1435 -2.0115
  717ccc     C318764   8.800   8.293   8.215  0.0830 -0.1660 -0.2419
  717ccc     C418765   8.767   8.141   8.202  0.5852 -0.5250  0.0236
  717ccc     C518766   8.864   8.080   8.102 -0.4754  0.2754  0.1595
  717ccc     H318767   8.790   8.096   8.299  0.4768 -0.4231  0.0966
  717ccc     H418768   8.779   8.331   8.114 -0.9113 -0.6515 -0.2372
  717ccc     H518769   8.844   8.121   8.002 -2.9385 -1.1196  0.0120
  717ccc     O118770   8.832   7.940   8.106 -0.0900 -0.1219  0.1333
  717ccc     O218771   8.628   8.118   8.162 -0.1555 -0.0988 -0.3632
  717ccc     O318772   8.720   8.368   8.318  0.3523  0.9211 -0.3723
  717ccc     O418773   8.983   8.255   8.365 -0.0354  0.0707 -0.2347
  717ccc     C618774   9.195   8.272   8.169  0.5525  0.2286  0.0397
  717ccc     H618775   8.751   8.460   8.319 -2.8691  2.1235 -0.2159
  717ccc     H718776   9.075   8.230   8.345  0.4522  2.2234 -0.9709
  717ccc     H818777   8.607   8.025   8.180  2.2070 -0.8914 -1.4028
  717ccc     H918778   9.231   8.376   8.161 -0.5483  0.7737  1.6658
  717ccc    H1018779   9.242   8.222   8.084 -1.7375 -1.0746 -0.5352
  717ccc     O518780   9.235   8.207   8.290  0.0564  0.4182 -0.2895
  717ccc    H1118781   9.314   8.152   8.277 -0.1537  0.7428 -4.1753
  717ccc     O618782   9.005   8.112   8.130 -0.0832  0.1411  0.6686
  718ccc     C118783   9.837   8.089   7.735  0.4084  0.1605 -0.8350
  718ccc     C218784   9.943   8.056   7.845  0.3836  0.1147 -0.2403
  718ccc     H118785   9.823   8.198   7.726 -1.7703  0.2649  2.1512
  718ccc     H218786  10.039   8.091   7.804  1.0557 -0.5768  0.7213
  718ccc     C318787   9.893   8.127   7.978 -1.1599 -0.2324  0.4430
  718ccc     C418788   9.750   8.092   8.016 -0.3941 -0.2536 -0.9012
  718ccc     C518789   9.654   8.106   7.896 -0.5075 -0.0339  0.1772
  718ccc     H318790   9.750   7.989   8.053 -0.4104 -0.2321 -0.8401
  718ccc     H418791   9.900   8.235   7.961  0.6806  0.1276  2.9744
  718ccc     H518792   9.644   8.214   7.878  1.2661 -0.0947 -1.5932
  718ccc     O118793   9.525   8.052   7.929  0.4693 -0.3645 -0.3971
  718ccc     O218794   9.707   8.182   8.124 -0.8392 -0.2119  0.1654
  718ccc     O318795   9.986   8.099   8.078  0.0237  0.1209 -0.5115
  718ccc     O418796   9.952   7.913   7.860  0.2283 -0.3669  0.5943
  718ccc     C618797   9.859   8.026   7.598  0.8449  0.5133  0.2098
  718ccc     H618798  10.042   8.026   8.046 -1.9363 -2.1544  0.8829
  718ccc     H718799  10.042   7.888   7.836 -0.2395 -1.4198 -0.1359
  718ccc     H818800   9.780   8.173   8.188 -3.4296  1.1402  3.6606
  718ccc     H918801   9.762   8.018   7.546  1.7875 -0.3831 -1.4775
  718ccc    H1018802   9.894   7.923   7.597  1.8225  0.8333  0.4256
  718ccc     O518803   9.939   8.110   7.523 -0.1341 -0.1442  0.4507
  718ccc    H1118804   9.932   8.079   7.431 -1.1214 -1.8566  1.0622
  718ccc     O618805   9.712   8.034   7.783  0.2918  0.7876 -0.4519
  719ccc     C118806   7.661   7.272  11.952  0.7305 -0.2316  0.4761
  719ccc     C218807   7.566   7.153  11.939  0.8932  0.0153 -0.0808
  719ccc     H118808   7.638   7.322  12.047  1.7155 -0.2420  0.7308
  719ccc     H218809   7.568   7.084  12.024  0.5789 -0.5916 -0.5556
  719ccc     C318810   7.424   7.212  11.938  0.5921 -0.0588 -0.3533
  719ccc     C418811   7.398   7.314  11.823 -0.2316 -0.1181  0.2686
  719ccc     C518812   7.511   7.422  11.822  0.1112 -0.7412  1.1057
  719ccc     H318813   7.401   7.259  11.729  1.0895  3.6806 -2.1626
  719ccc     H418814   7.414   7.271  12.030  0.8790  1.2126 -1.1113
  719ccc     H518815   7.500   7.487  11.910 -0.9446 -1.0419  1.2093
  719ccc     O118816   7.518   7.498  11.695 -0.7824 -0.1271  0.3914
  719ccc     O218817   7.257   7.359  11.835 -0.2546 -0.1459  0.3835
  719ccc     O318818   7.323   7.107  11.944  0.1730 -0.0110 -0.3815
  719ccc     O418819   7.590   7.091  11.811  0.3515  0.3104  1.0237
  719ccc     C618820   7.811   7.243  11.959 -0.1162  0.2526  0.5616
  719ccc     H618821   7.233   7.143  11.928 -0.0704 -0.0070  0.8930
  719ccc     H718822   7.511   7.034  11.802 -0.4844  1.4181  1.1219
  719ccc     H818823   7.253   7.412  11.917 -0.7699 -0.4283  0.5540
  719ccc     H918824   7.838   7.226  12.064  1.0343 -0.8659  0.1058
  719ccc    H1018825   7.872   7.328  11.927  0.1181 -0.3586 -0.6770
  719ccc     O518826   7.835   7.130  11.873  0.2417  0.1559  0.0159
  719ccc    H1118827   7.749   7.126  11.827 -1.6147 -0.2637  3.2190
  719ccc     O618828   7.641   7.355  11.835  0.5537 -0.1053  0.3895
  720ccc     C118829   6.943   7.929  11.044 -0.9141  0.2563 -0.2803
  720ccc     C218830   6.895   8.087  10.933  0.3581  0.0495 -0.1975
  720ccc     H118831   6.859   7.907  11.110 -1.5389 -2.5204 -1.8262
  720ccc     H218832   6.792   8.113  10.957  0.5624 -1.2136  2.4751
  720ccc     C318833   6.998   8.257  10.965 -0.1570  0.9903  0.0742
  720ccc     C418834   7.155   8.265  11.091  0.3451  0.5821  0.2818
  720ccc     C518835   7.197   8.099  11.201 -0.1043 -0.8180  0.0984
  720ccc     H318836   7.242   8.270  11.024  1.0698  1.5057  1.2626
  720ccc     H418837   6.921   8.317  11.016 -0.4642 -0.0572  0.8808
  720ccc     H518838   7.168   8.122  11.304 -1.0904  3.7327 -0.9889
  720ccc     O118839   7.335   8.068  11.226 -0.0813 -0.0650 -0.2515
  720ccc     O218840   7.164   8.391  11.163 -0.0915  0.2932  0.2068
  720ccc     O318841   7.030   8.334  10.843 -0.7135  0.5894 -0.2341
  720ccc     O418842   6.909   8.035  10.797 -0.3724  0.3682 -0.2471
  720ccc     C618843   6.957   7.797  10.974 -0.1938 -0.3252  0.7080
  720ccc     H618844   6.963   8.307  10.778 -0.4570 -1.4618  0.2969
  720ccc     H718845   6.905   8.106  10.730  1.8519  2.0177  1.2227
  720ccc     H818846   7.073   8.410  11.191 -0.0794  0.0391  0.4269
  720ccc     H918847   7.026   7.813  10.890  0.7980 -0.4679  1.4779
  720ccc    H1018848   6.864   7.755  10.934 -0.1334  0.9291 -0.8950
  720ccc     O518849   7.015   7.701  11.051  0.3751  0.2191  0.0742
  720ccc    H1118850   7.097   7.741  11.085 -0.7616  1.5700  1.3777
  720ccc     O618851   7.092   7.946  11.167 -0.6045  0.0149 -0.6007
  721ccc     C118852   8.716   9.638  11.166 -0.3559 -0.2668  0.5903
  721ccc     C218853   8.802   9.724  11.261 -0.0633 -0.7669  0.4125
  721ccc     H118854   8.631   9.701  11.134 -1.0689 -2.1565 -1.5018
  721ccc     H218855   8.832   9.812  11.203  0.8267 -1.6435 -0.5033
  721ccc     C318856   8.713   9.770  11.381 -0.2034  0.1939 -0.1728
  721ccc     C418857   8.612   9.658  11.440 -0.3407 -0.0545  0.0315
  721ccc     C518858   8.558   9.559  11.335  0.7187  0.4062  0.9047
  721ccc     H318859   8.679   9.593  11.498 -0.8338  0.3938  1.1283
  721ccc     H418860   8.649   9.853  11.348  0.8778  1.4090  0.7009
  721ccc     H518861   8.475   9.614  11.289  0.4286  0.5457  1.5733
  721ccc     O118862   8.493   9.452  11.405  0.2488  0.0803 -0.5605
  721ccc     O218863   8.507   9.712  11.525 -0.6680 -0.3171 -0.1208
  721ccc     O318864   8.802   9.824  11.490 -0.9324 -0.3294 -0.3968
  721ccc     O418865   8.910   9.660  11.313 -0.3461  0.0945  0.1524
  721ccc     C618866   8.801   9.590  11.051 -0.1668  0.1017 -0.0954
  721ccc     H618867   8.756   9.827  11.576 -1.6605  1.8299 -0.7836
  721ccc     H718868   8.911   9.695  11.404  2.2802 -0.7573  0.5249
  721ccc     H818869   8.520   9.671  11.612 -2.1905  2.4630  1.5679
  721ccc     H918870   8.888   9.536  11.091  1.6569  3.4271  0.7706
  721ccc    H1018871   8.852   9.679  11.013  1.8997 -1.1256 -0.3792
  721ccc     O518872   8.721   9.529  10.950  0.3306  0.1488 -0.0399
  721ccc    H1118873   8.765   9.442  10.952  0.0009 -0.0518 -1.0606
  721ccc     O618874   8.660   9.527  11.242  0.1300 -0.2109  0.6014
  722ccc     C118875   8.270   9.523  10.592 -0.2534  0.5399  0.2809
  722ccc     C218876   8.413   9.460  10.608 -0.1036 -0.7581  0.4136
  722ccc     H118877   8.277   9.628  10.562  0.8059  0.2237 -0.6167
  722ccc     H218878   8.460   9.467  10.509 -1.1485  2.9429  0.0325
  722ccc     C318879   8.494   9.541  10.711  0.6994  0.0455 -0.0395
  722ccc     C418880   8.427   9.532  10.846 -0.3981  0.1731 -0.2635
  722ccc     C518881   8.270   9.551  10.848  0.3070 -0.1368 -0.1270
  722ccc     H318882   8.456   9.439  10.896  2.0171  0.5089 -0.8749
  722ccc     H418883   8.500   9.645  10.677  0.6472 -0.0888 -0.4643
  722ccc     H518884   8.255   9.660  10.857  0.4674 -0.1023 -0.2606
  722ccc     O118885   8.210   9.488  10.973 -0.2758  0.2460  0.5252
  722ccc     O218886   8.481   9.635  10.930 -0.2334  0.2031  0.4549
  722ccc     O318887   8.621   9.479  10.708  0.1659 -0.0687  0.1815
  722ccc     O418888   8.407   9.326  10.641 -0.3409  0.0788  0.3630
  722ccc     C618889   8.188   9.451  10.484  0.2694 -0.3177 -0.4411
  722ccc     H618890   8.668   9.513  10.786  0.5424 -2.8102  1.2604
  722ccc     H718891   8.501   9.308  10.623 -0.1432  1.8418 -0.6280
  722ccc     H818892   8.565   9.595  10.957 -0.2222 -1.2035 -1.4008
  722ccc     H918893   8.174   9.347  10.515  3.1827 -0.9207 -0.8196
  722ccc    H1018894   8.243   9.455  10.389  0.7411  0.1121 -0.1582
  722ccc     O518895   8.071   9.531  10.480  0.7703 -0.1588 -0.0313
  722ccc    H1118896   8.051   9.535  10.575 -1.6014 -0.5288 -0.4649
  722ccc     O618897   8.209   9.501  10.720  0.0478  0.0772  0.2077
  723ccc     C118898   9.372   7.119  11.756 -0.1591  0.0722 -0.7155
  723ccc     C218899   9.498   6.962  11.741 -0.0116 -0.2145  0.4219
  723ccc     H118900   9.408   7.184  11.675  2.3974  0.8681  0.9170
  723ccc     H218901   9.558   6.982  11.651 -0.2092 -1.1712  0.0675
  723ccc     C318902   9.625   6.923  11.893  0.5580  0.1013  0.5953
  723ccc     C418903   9.620   7.035  12.060 -0.0185  0.8672 -0.1345
  723ccc     C518904   9.496   7.191  12.071 -0.0351 -0.6343 -0.1203
  723ccc     H318905   9.593   6.960  12.136  2.8761 -0.6871 -0.4977
  723ccc     H418906   9.723   6.942  11.848  0.1525  0.1214 -0.3157
  723ccc     H518907   9.569   7.272  12.060  2.1708 -2.6830 -1.6367
  723ccc     O118908   9.432   7.228  12.197  0.5376  0.4948  1.0958
  723ccc     O218909   9.760   7.070  12.091  0.2084 -0.6258  0.2344
  723ccc     O318910   9.609   6.785  11.922  0.5190  0.1025  0.2333
  723ccc     O418911   9.432   6.833  11.703  0.3122 -0.3033  0.1887
  723ccc     C618912   9.228   7.088  11.715  0.2528  0.4434  0.1351
  723ccc     H618913   9.531   6.750  11.876 -0.0552  0.1872  1.1153
  723ccc     H718914   9.445   6.825  11.607  0.5648 -2.0574  0.3277
  723ccc     H818915   9.752   7.125  12.171 -1.1693 -0.4111 -0.0186
  723ccc     H918916   9.171   7.041  11.796 -1.9769  1.7685 -0.5859
  723ccc    H1018917   9.229   7.020  11.629  1.1605  1.3894 -0.6196
  723ccc     O518918   9.158   7.204  11.676 -0.0989  0.3378 -0.4919
  723ccc    H1118919   9.108   7.181  11.596  1.5858  2.6527 -2.3708
  723ccc     O618920   9.374   7.218  11.926  0.3039  0.1191 -0.4066
  724ccc     C118921   9.502   7.772  13.078  0.3121 -0.5148 -0.0938
  724ccc     C218922   9.477   7.922  13.094  0.3160 -0.6842 -0.5056
  724ccc     H118923   9.604   7.749  13.111 -0.4669 -0.1589  2.7815
  724ccc     H218924   9.501   7.956  13.195 -0.2343 -1.3174 -0.1556
  724ccc     C318925   9.572   8.008  12.998  0.3618  0.4481  0.0235
  724ccc     C418926   9.587   7.957  12.852  0.0574 -0.2800  0.0470
  724ccc     C518927   9.573   7.805  12.836 -0.0422 -0.0835 -0.0899
  724ccc     H318928   9.506   8.004  12.795 -0.8916 -0.1700  1.4335
  724ccc     H418929   9.668   7.993  13.047  0.7782  2.5978 -0.0176
  724ccc     H518930   9.669   7.753  12.844 -0.2324 -0.3246  0.8889
  724ccc     O118931   9.514   7.775  12.702 -0.0197 -0.1333 -0.3850
  724ccc     O218932   9.715   8.007  12.806  0.1354 -0.0082  0.1064
  724ccc     O318933   9.544   8.154  13.000  0.0897  0.4043  0.0314
  724ccc     O418934   9.342   7.947  13.052  0.5705 -0.2187 -0.3425
  724ccc     C618935   9.408   7.688  13.162  0.0743  0.4398  0.3684
  724ccc     H618936   9.629   8.198  12.983 -0.0072 -0.1096 -2.0478
  724ccc     H718937   9.349   8.023  12.992 -1.6532  0.1392 -0.2621
  724ccc     H818938   9.712   8.104  12.807  1.8181  0.0886  1.4814
  724ccc     H918939   9.415   7.714  13.269 -0.6454 -0.9120  0.7748
  724ccc    H1018940   9.446   7.586  13.151  0.6534  0.8262 -1.4607
  724ccc     O518941   9.277   7.691  13.109  0.1928  0.0094 -0.2400
  724ccc    H1118942   9.276   7.783  13.077 -0.2526 -0.0135 -0.2891
  724ccc     O618943   9.484   7.743  12.938 -0.9833  0.2932  0.3519
  725ccc     C118944  10.584   8.063  11.642 -0.2197 -0.8293  0.2184
  725ccc     C218945  10.601   8.131  11.504 -0.5935 -0.0715  0.3189
  725ccc     H118946  10.517   7.977  11.633 -1.3896  0.1562 -0.8063
  725ccc     H218947  10.634   8.057  11.430 -1.4616 -0.2900  0.1440
  725ccc     C318948  10.458   8.174  11.450  0.3896  0.5834  0.1770
  725ccc     C418949  10.380   8.266  11.550  0.8956  0.0720 -0.6384
  725ccc     C518950  10.384   8.193  11.689 -0.1895 -0.4251  0.2576
  725ccc     H318951  10.437   8.360  11.551 -1.2011  1.6650 -4.9625
  725ccc     H418952  10.392   8.088  11.435  1.7773 -0.4169 -0.3483
  725ccc     H518953  10.328   8.099  11.692  0.6469 -0.8984  1.8285
  725ccc     O118954  10.319   8.278  11.789 -0.0186 -0.1905 -0.4086
  725ccc     O218955  10.247   8.303  11.504  0.1674 -0.5480  0.5071
  725ccc     O318956  10.469   8.235  11.324  0.1767  1.5313 -0.4241
  725ccc     O418957  10.690   8.245  11.510 -0.1623 -0.2532 -0.1340
  725ccc     C618958  10.713   8.017  11.709  0.3697 -0.5830  0.5810
  725ccc     H618959  10.456   8.166  11.257 -0.9581 -0.8994  2.0801
  725ccc     H718960  10.780   8.211  11.496 -0.0030 -0.0982  0.4647
  725ccc     H818961  10.256   8.374  11.439  0.8630 -0.4933  0.6541
  725ccc     H918962  10.786   8.098  11.716  0.1684 -0.4291  0.9193
  725ccc    H1018963  10.768   7.947  11.644  0.6188 -0.1188  0.2870
  725ccc     O518964  10.677   7.949  11.830 -0.3837  0.4987  0.0070
  725ccc    H1118965  10.756   7.906  11.865 -1.8017 -0.9520  1.6373
  725ccc     O618966  10.523   8.161  11.727 -0.0118  0.5196 -0.1385
  726ccc     C118967   9.995   7.429  12.394  0.2285  0.2577  0.2725
  726ccc     C218968  10.133   7.402  12.451 -0.3586  0.3164 -0.1623
  726ccc     H118969   9.973   7.345  12.328 -2.1596 -0.1271  1.4284
  726ccc     H218970  10.127   7.294  12.472  2.0513 -0.3105 -2.1810
  726ccc     C318971  10.246   7.419  12.343  0.6011  0.4297 -0.5577
  726ccc     C418972  10.237   7.560  12.278 -0.2142 -0.0053 -0.1424
  726ccc     C518973  10.095   7.598  12.235  0.3968 -0.1516 -0.1749
  726ccc     H318974  10.265   7.635  12.353 -1.6518  0.0935  0.3180
  726ccc     H418975  10.227   7.344  12.265  0.4647 -0.1384  0.0154
  726ccc     H518976  10.072   7.535  12.147  0.1722  0.9606 -0.9391
  726ccc     O118977  10.081   7.739  12.199 -0.4340  0.3962 -0.3548
  726ccc     O218978  10.327   7.556  12.161  0.2223  0.0017 -0.3843
  726ccc     O318979  10.375   7.409  12.400 -0.0092  0.0607 -0.2172
  726ccc     O418980  10.165   7.482  12.563 -0.1587 -0.0240  0.1628
  726ccc     C618981   9.880   7.432  12.501 -0.0303  0.0294 -0.0498
  726ccc     H618982  10.390   7.314  12.412 -0.9775  0.0838  1.4533
  726ccc     H718983  10.236   7.428  12.602 -0.0934 -0.9131 -1.1329
  726ccc     H818984  10.411   7.575  12.206  0.3957 -0.4557 -0.5093
  726ccc     H918985   9.888   7.512  12.575  0.8196  2.0516 -2.1947
  726ccc    H1018986   9.875   7.344  12.566 -0.2992  1.1581  1.5053
  726ccc     O518987   9.753   7.451  12.433  0.7115 -0.1165  0.8135
  726ccc    H1118988   9.740   7.548  12.433 -0.4583 -0.1031 -2.8151
  726ccc     O618989   9.995   7.565  12.336 -0.6886  0.3923  0.2097
  727ccc     C118990  10.954   7.662  11.452 -0.1641 -0.1026 -0.4554
  727ccc     C218991  10.994   7.803  11.409  0.4473 -0.1054 -1.1625
  727ccc     H118992  11.041   7.600  11.477 -0.9508 -0.7624  0.7175
  727ccc     H218993  11.064   7.839  11.486 -0.5006  0.4916 -0.5472
  727ccc     C318994  11.074   7.793  11.277  0.1483  0.2824  0.0786
  727ccc     C418995  10.993   7.722  11.170 -0.0556 -0.6259 -0.2838
  727ccc     C518996  10.946   7.580  11.214  0.1773 -0.5963 -0.8862
  727ccc     H318997  10.899   7.775  11.153 -0.1079 -1.1700 -1.9369
  727ccc     H418998  11.158   7.723  11.290  1.4525  1.2911 -2.2299
  727ccc     H518999  11.032   7.511  11.220  0.9838  0.4016 -0.7800
  727ccc     O119000  10.854   7.537  11.106 -0.3447 -0.5915  0.1803
  727ccc     O219001  11.072   7.717  11.050  0.4307 -0.3530 -0.0132
  727ccc     O319002  11.136   7.922  11.246 -0.0447  0.3810 -0.6467
  727ccc     O419003  10.882   7.885  11.398 -0.3602  0.1379  0.2226
  727ccc     C619004  10.873   7.673  11.582  0.4227 -0.3619 -0.0210
  727ccc     H619005  11.069   7.975  11.199 -0.7392 -0.4456 -0.6136
  727ccc     H719006  10.817   7.835  11.451 -2.3736  2.0922 -0.2173
  727ccc     H819007  11.004   7.723  10.980  1.2808  0.0475 -0.8293
  727ccc     H919008  10.920   7.756  11.637 -0.4811 -0.2884  0.6545
  727ccc    H1019009  10.866   7.583  11.645 -0.1979  1.1903  2.2484
  727ccc     O519010  10.741   7.723  11.541  0.8034  0.7184  0.2949
  727ccc    H1119011  10.684   7.711  11.619 -0.4801  2.9453 -0.2025
  727ccc     O619012  10.881   7.596  11.345  0.4112  0.5616 -0.6172
  728ccc     C119013   9.923   8.150  10.865  0.7010  0.4090 -0.2519
  728ccc     C219014   9.922   8.279  10.948 -0.5372  0.5022  0.1339
  728ccc     H119015   9.835   8.096  10.901  1.0801 -1.8548 -2.3821
  728ccc     H219016   9.822   8.322  10.931 -1.7927 -2.5275 -0.8464
  728ccc     C319017   9.957   8.249  11.098 -0.1962 -0.2211  0.6741
  728ccc     C419018  10.099   8.180  11.101  0.1948 -0.0239  0.6279
  728ccc     C519019  10.075   8.042  11.034  0.2911  0.1551 -0.2783
  728ccc     H319020  10.175   8.237  11.047  0.1130 -0.1045  0.4295
  728ccc     H419021   9.875   8.186  11.136 -0.9657  0.5107  0.2531
  728ccc     H519022   9.990   7.997  11.087  0.7729 -0.2401  0.1710
  728ccc     O119023  10.198   7.960  11.043 -0.2536 -0.6678 -0.3437
  728ccc     O219024  10.144   8.166  11.235 -0.2485 -1.0465  0.0339
  728ccc     O319025   9.955   8.374  11.173 -0.0413 -0.2107 -0.5522
  728ccc     O419026  10.018   8.369  10.901  0.2339  0.1572 -0.2061
  728ccc     C619027   9.897   8.169  10.715 -0.1332  0.7877  0.3997
  728ccc     H619028   9.935   8.364  11.268  2.6344  0.0203  0.1166
  728ccc     H719029  10.044   8.409  10.985  0.6734 -0.5892  0.0257
  728ccc     H819030  10.169   8.257  11.260 -2.5999 -0.7852  1.7879
  728ccc     H919031   9.988   8.191  10.658  0.4796  0.9117  1.3876
  728ccc    H1019032   9.819   8.244  10.698  0.9075  1.3483 -2.3061
  728ccc     O519033   9.854   8.038  10.661 -0.2388  0.1609 -0.4301
  728ccc    H1119034   9.929   7.976  10.660 -0.8889 -0.6882  0.7069
  728ccc     O619035  10.049   8.068  10.889 -0.6169  0.1730 -0.6392
  729ccc     C119036  10.720   6.340   9.924 -0.4766  0.8197 -0.2973
  729ccc     C219037  10.853   6.304   9.992 -0.7232 -0.1088  0.5130
  729ccc     H119038  10.740   6.412   9.844  1.3995 -0.6190 -1.1848
  729ccc     H219039  10.923   6.261   9.920  1.6282  0.9229  2.0511
  729ccc     C319040  10.923   6.434  10.047  0.3286 -0.5794 -0.4080
  729ccc     C419041  10.823   6.504  10.142 -0.7660 -0.1275 -0.3850
  729ccc     C519042  10.689   6.532  10.075  0.1182 -0.0887  0.6084
  729ccc     H319043  10.807   6.443  10.233  0.1648  0.1582 -0.0234
  729ccc     H419044  10.939   6.500   9.961  1.7106  0.0410  0.2994
  729ccc     H519045  10.701   6.618  10.008  1.4909 -0.7372 -0.0371
  729ccc     O119046  10.595   6.573  10.178  0.4318 -0.7451 -0.3570
  729ccc     O219047  10.886   6.622  10.188 -0.4346 -0.0986 -0.7052
  729ccc     O319048  11.043   6.389  10.111 -0.3574 -0.2262 -0.5588
  729ccc     O419049  10.827   6.213  10.099  0.7724 -0.4764  0.7876
  729ccc     C619050  10.650   6.213   9.867 -0.7359  0.3723  0.5025
  729ccc     H619051  11.087   6.471  10.140 -1.7798  0.0919  0.8535
  729ccc     H719052  10.915   6.193  10.135  0.6231 -1.5700  0.5931
  729ccc     H819053  10.856   6.641  10.279  0.8048  0.4034 -0.3664
  729ccc     H919054  10.598   6.161   9.949 -0.0351 -2.0206 -0.5056
  729ccc    H1019055  10.725   6.142   9.830  0.1357 -0.0060  2.8284
  729ccc     O519056  10.557   6.268   9.773 -0.0396 -0.2010  0.0359
  729ccc    H1119057  10.485   6.304   9.827  0.3379  1.7634 -0.6910
  729ccc     O619058  10.631   6.409  10.018 -0.0815 -0.3974  0.6720
  730ccc     C119059  10.016   7.176   9.456  0.1211  0.2657 -0.1062
  730ccc     C219060   9.899   7.079   9.416 -0.3895 -0.2908  0.1934
  730ccc     H119061  10.038   7.233   9.365 -0.5624  0.7925  0.0510
  730ccc     H219062   9.824   7.136   9.359  0.8766  1.8976  0.5658
  730ccc     C319063   9.933   6.968   9.310 -0.4785 -0.4413  0.0615
  730ccc     C419064  10.059   6.892   9.346 -0.2129  0.0328  0.8519
  730ccc     C519065  10.172   6.998   9.394  0.8558 -0.4502  0.5907
  730ccc     H319066  10.039   6.835   9.437  1.8824 -2.6544 -0.2202
  730ccc     H419067   9.946   7.009   9.209  0.8226 -0.6463  0.1382
  730ccc     H519068  10.215   7.050   9.307  0.2454  0.0866  0.6083
  730ccc     O119069  10.292   6.932   9.457  0.6857 -0.7469 -0.3907
  730ccc     O219070  10.108   6.797   9.240 -0.3567 -0.0054 -0.4325
  730ccc     O319071   9.824   6.877   9.309 -0.2272  0.3614 -0.1768
  730ccc     O419072   9.840   7.019   9.531  0.0404  0.0644  0.5170
  730ccc     C619073   9.979   7.273   9.568  0.1443 -0.2692  0.2021
  730ccc     H619074   9.796   6.861   9.217  2.5989  1.0536 -1.2636
  730ccc     H719075   9.791   6.943   9.495 -0.8736  1.4796 -1.4282
  730ccc     H819076  10.080   6.707   9.264 -2.6519  0.4666 -1.1057
  730ccc     H919077   9.958   7.219   9.662  0.0384 -0.6810 -0.0554
  730ccc    H1019078   9.884   7.325   9.551 -0.2319 -0.6544  1.0458
  730ccc     O519079  10.077   7.374   9.587  0.0016 -0.1236  0.1439
  730ccc    H1119080  10.083   7.377   9.684  1.8068 -2.8330  0.2095
  730ccc     O619081  10.127   7.092   9.493 -0.7853 -0.1346  0.1919
  731ccc     C119082   9.209   8.585  11.750  0.1024 -0.3783 -0.0363
  731ccc     C219083   9.324   8.695  11.767  0.0840  0.1575  0.0809
  731ccc     H119084   9.119   8.642  11.775  1.8334  1.4300  2.5908
  731ccc     H219085   9.312   8.778  11.696 -0.6682 -0.8868 -1.0401
  731ccc     C319086   9.328   8.738  11.914 -0.6471 -0.3426 -0.3479
  731ccc     C419087   9.347   8.616  12.008 -0.2322  0.0210 -0.5673
  731ccc     C519088   9.252   8.505  11.979 -0.0160 -0.1576 -0.7554
  731ccc     H319089   9.447   8.574  11.993  0.5650  1.4940  0.4075
  731ccc     H419090   9.228   8.780  11.933 -2.1522 -4.2181  1.1426
  731ccc     H519091   9.153   8.526  12.021 -0.5572 -1.0749 -1.5286
  731ccc     O119092   9.299   8.386  12.042  0.2141  0.4905 -0.1593
  731ccc     O219093   9.329   8.660  12.146 -0.7688  0.2431 -0.3150
  731ccc     O319094   9.437   8.839  11.923  0.1268 -0.4605  0.3782
  731ccc     O419095   9.449   8.626  11.737  0.1827 -0.1493  0.3271
  731ccc     C619096   9.199   8.536  11.602 -0.5681 -0.2315 -0.0868
  731ccc     H619097   9.454   8.873  12.013  0.9675  0.0204  0.0413
  731ccc     H719098   9.415   8.577  11.661  0.6689  2.4236 -1.7314
  731ccc     H819099   9.249   8.715  12.143 -0.0235  1.3340 -0.7846
  731ccc     H919100   9.125   8.595  11.546 -0.1842  1.1261  0.7858
  731ccc    H1019101   9.158   8.434  11.602 -0.6962 -0.1896  0.8428
  731ccc     O519102   9.328   8.522  11.541 -0.3527  0.2927 -0.1086
  731ccc    H1119103   9.310   8.459  11.469  0.2553  0.7238 -0.6492
  731ccc     O619104   9.237   8.477  11.847 -0.3869 -0.6284 -0.0951
  732ccc     C119105   9.616   8.628  12.790 -0.2424 -0.6199  0.1743
  732ccc     C219106   9.736   8.637  12.887 -0.4985 -0.3037  0.1150
  732ccc     H119107   9.535   8.600  12.859  0.4957 -1.9442  0.5476
  732ccc     H219108   9.720   8.715  12.962  4.5022  2.2866 -1.0733
  732ccc     C319109   9.769   8.501  12.946 -0.3722  0.8662  0.2177
  732ccc     C419110   9.766   8.381  12.847 -0.3028 -0.3364  0.0533
  732ccc     C519111   9.641   8.381  12.759 -0.0601 -0.7305  0.0480
  732ccc     H319112   9.851   8.396  12.780  0.2021  2.2230  1.1232
  732ccc     H419113   9.687   8.478  13.016  0.9252 -1.8460  0.9750
  732ccc     H519114   9.552   8.359  12.819 -0.8743  1.8711 -0.0604
  732ccc     O119115   9.649   8.279  12.657  0.0768  0.1242 -1.1093
  732ccc     O219116   9.764   8.263  12.928 -0.6273  0.8147  0.1032
  732ccc     O319117   9.896   8.507  13.013 -0.2221  0.3727  0.0491
  732ccc     O419118   9.847   8.680  12.806  0.0540 -0.3269 -0.2022
  732ccc     C619119   9.587   8.756  12.709  0.1000  0.2786 -0.4084
  732ccc     H619120   9.964   8.529  12.948  0.0462 -0.6625 -0.0400
  732ccc     H719121   9.909   8.722  12.868 -1.7955  1.4366  0.5629
  732ccc     H819122   9.850   8.276  12.973 -1.7630  1.7589  2.1592
  732ccc     H919123   9.647   8.764  12.618 -0.0532  0.0589 -0.5311
  732ccc    H1019124   9.602   8.848  12.767 -2.9676 -0.0343  1.1065
  732ccc     O519125   9.447   8.744  12.678 -0.0356  0.3219  0.4621
  732ccc    H1119126   9.443   8.737  12.581 -0.4075 -0.1793  0.5098
  732ccc     O619127   9.639   8.518  12.693  0.2104 -0.1231 -0.0877
  733ccc     C119128   9.099   6.819  11.201 -0.1446  0.1708  0.1544
  733ccc     C219129   9.226   6.788  11.127 -0.4586  0.9031  0.2104
  733ccc     H119130   9.095   6.928  11.206  3.1062  0.3211  2.6409
  733ccc     H219131   9.217   6.848  11.035 -0.4917  0.5377 -0.0260
  733ccc     C319132   9.354   6.830  11.215  0.0805  0.0382  0.0596
  733ccc     C419133   9.336   6.782  11.358 -0.1862 -0.5207  0.0106
  733ccc     C519134   9.198   6.816  11.423 -0.3599 -0.2652  1.0561
  733ccc     H319135   9.348   6.673  11.354 -1.6411 -0.6548 -2.5103
  733ccc     H419136   9.356   6.939  11.229 -1.3679  0.0171  0.5385
  733ccc     H519137   9.196   6.925  11.435 -0.7474 -0.1359 -0.0461
  733ccc     O119138   9.186   6.743  11.550 -0.1385 -0.6729  0.6443
  733ccc     O219139   9.448   6.827  11.442  0.3355  0.5119 -0.2276
  733ccc     O319140   9.478   6.792  11.154 -0.7249  0.4172  0.4355
  733ccc     O419141   9.237   6.649  11.092  0.1513 -0.4790 -0.3504
  733ccc     C619142   8.977   6.771  11.120 -0.2057 -0.1968  0.3458
  733ccc     H619143   9.477   6.699  11.125  1.1721  1.2559 -2.9246
  733ccc     H719144   9.323   6.635  11.050 -0.1193  2.7771 -2.3579
  733ccc     H819145   9.520   6.770  11.409  1.9985  1.5383  1.3758
  733ccc     H919146   8.949   6.668  11.146  0.5134 -0.3253  0.6321
  733ccc    H1019147   8.990   6.783  11.012 -2.5856  0.4433  0.0619
  733ccc     O519148   8.869   6.853  11.159  0.1277 -0.2143 -0.7472
  733ccc    H1119149   8.892   6.891  11.246 -1.5530  2.7702 -1.4644
  733ccc     O619150   9.099   6.758  11.334  0.0294 -0.2504  0.2186
  734ccc     C119151   8.110   6.701  12.175 -0.7615 -0.4910  0.2998
  734ccc     C219152   8.042   6.829  12.109 -0.9061  0.1679  0.0147
  734ccc     H119153   8.089   6.712  12.282 -0.7749 -1.1506  0.3699
  734ccc     H219154   7.934   6.842  12.129 -0.7563 -0.1678  1.0960
  734ccc     C319155   8.105   6.962  12.167 -0.3952 -0.3194  0.6407
  734ccc     C419156   8.250   6.958  12.144  0.1432 -0.3842  0.6603
  734ccc     C519157   8.309   6.830  12.202 -0.4504  0.3310  0.1501
  734ccc     H319158   8.262   6.964  12.035 -2.6079 -0.8515  0.2332
  734ccc     H419159   8.097   6.955  12.276  0.7374 -1.4811  0.6811
  734ccc     H519160   8.284   6.830  12.309  0.5784 -0.7632  0.4145
  734ccc     O119161   8.448   6.831  12.171 -0.4761  0.3452 -0.2919
  734ccc     O219162   8.303   7.080  12.210  0.7074  0.0933 -0.0066
  734ccc     O319163   8.037   7.072  12.101  0.1608 -0.1592 -0.3850
  734ccc     O419164   8.060   6.823  11.969 -0.2970  0.1951  0.4294
  734ccc     C619165   8.053   6.569  12.131  0.0895  0.5261 -0.8136
  734ccc     H619166   8.069   7.156  12.137 -1.9467  0.0258  1.2541
  734ccc     H719167   8.047   6.729  11.949  1.2916  0.3052 -1.3998
  734ccc     H819168   8.388   7.096  12.164  1.3381  0.5133  1.2591
  734ccc     H919169   7.954   6.542  12.170  1.7328 -0.7467  2.9408
  734ccc    H1019170   8.121   6.491  12.169  1.2303  0.7793 -2.2573
  734ccc     O519171   8.053   6.570  11.994 -0.2981 -0.2093  0.2228
  734ccc    H1119172   8.011   6.485  11.973 -0.1176  0.1043 -1.5751
  734ccc     O619173   8.247   6.710  12.154  0.0225 -0.3436  0.1077
  735ccc     C119174   6.744  10.991   9.947  0.5118 -0.1234 -0.7213
  735ccc     C219175   6.633  10.988  10.056  0.3158  0.5992  0.0632
  735ccc     H119176   6.710  11.050   9.861 -0.3735 -2.5376 -2.1166
  735ccc     H219177   6.602  11.091  10.081  2.8507  1.4493  0.0197
  735ccc     C319178   6.510  10.908  10.000  0.5116  0.4132 -0.3478
  735ccc     C419179   6.552  10.763   9.954  0.3158 -0.5531  0.7979
  735ccc     C519180   6.676  10.766   9.862  0.1078  0.4969  0.3237
  735ccc     H319181   6.587  10.706  10.041  0.6869  0.5209  1.3674
  735ccc     H419182   6.480  10.974   9.917 -1.1186  1.1304  0.7664
  735ccc     H519183   6.651  10.795   9.759 -0.8765  1.4726  0.8128
  735ccc     O119184   6.723  10.640   9.860 -0.0233  0.1252  0.3350
  735ccc     O219185   6.440  10.692   9.894  0.6702  0.2555  0.0287
  735ccc     O319186   6.397  10.903  10.091 -0.2879 -0.2798 -0.0428
  735ccc     O419187   6.690  10.939  10.173  0.0516 -0.3714  0.6987
  735ccc     C619188   6.879  11.063   9.987  0.3934  0.2866  0.4348
  735ccc     H619189   6.354  10.989  10.079 -0.6685 -0.1520  1.9793
  735ccc     H719190   6.780  10.966  10.147 -0.5869  1.4062  0.1804
  735ccc     H819191   6.384  10.670   9.970  0.8217 -0.4255 -0.0508
  735ccc     H919192   6.854  11.170   9.986  1.2124  0.4790 -0.9022
  735ccc    H1019193   6.956  11.054   9.910 -0.2778  1.2461 -0.3869
  735ccc     O519194   6.922  11.033  10.118  0.1352  0.4095  0.7585
  735ccc    H1119195   7.007  11.080  10.129 -0.2888  1.6830 -0.9476
  735ccc     O619196   6.780  10.860   9.912 -0.7151  0.1392 -0.2449
  736ccc     C119197   7.789  10.295   9.604 -0.1269  0.1235 -0.5226
  736ccc     C219198   7.839  10.289   9.453 -0.0766  0.0698 -0.9928
  736ccc     H119199   7.807  10.198   9.654  1.3271  0.8612  0.4446
  736ccc     H219200   7.930  10.228   9.457 -0.2639 -0.2855 -1.8095
  736ccc     C319201   7.743  10.207   9.362  0.1135  0.2631 -1.2302
  736ccc     C419202   7.597  10.256   9.386  0.0861  0.2890  0.1760
  736ccc     C519203   7.555  10.259   9.540 -0.1958  0.4300 -0.4697
  736ccc     H319204   7.589  10.357   9.345 -1.3791  0.2829  0.3991
  736ccc     H419205   7.751  10.102   9.391 -1.6666  0.2743 -0.6038
  736ccc     H519206   7.566  10.159   9.581 -0.2443 -0.0074 -1.4875
  736ccc     O119207   7.420  10.320   9.563 -0.1642  0.4198  0.4772
  736ccc     O219208   7.506  10.167   9.313  0.0030  0.3475  0.3903
  736ccc     O319209   7.771  10.223   9.222  0.1718 -0.2763 -0.3409
  736ccc     O419210   7.866  10.418   9.390 -0.3514 -0.5191  0.1781
  736ccc     C619211   7.881  10.390   9.690  0.1440  0.2116 -0.1650
  736ccc     H619212   7.771  10.319   9.206  1.0386  0.0792  1.5894
  736ccc     H719213   7.953  10.396   9.354  0.9547 -1.3213  3.4687
  736ccc     H819214   7.415  10.195   9.294  0.1748  0.6489 -0.0073
  736ccc     H919215   7.850  10.494   9.678 -3.3977 -0.7544 -0.8624
  736ccc    H1019216   7.985  10.375   9.658 -0.1233 -1.5568 -0.3189
  736ccc     O519217   7.863  10.348   9.826  0.3156  0.2695 -0.7741
  736ccc    H1119218   7.777  10.387   9.850 -0.3885  0.5341 -3.4789
  736ccc     O619219   7.649  10.344   9.613  0.3044  0.4039 -0.1728
  737ccc     C119220   6.437  10.300   9.620  0.0632  0.5977 -0.0631
  737ccc     C219221   6.497  10.439   9.637  0.1808 -0.5334 -0.1938
  737ccc     H119222   6.422  10.271   9.516  0.9509 -3.0639  0.6757
  737ccc     H219223   6.583  10.452   9.570 -1.4858  0.6512 -2.2382
  737ccc     C319224   6.391  10.546   9.596 -0.1738 -0.2907  0.7882
  737ccc     C419225   6.257  10.529   9.663  0.7692  0.0116 -0.3296
  737ccc     C519226   6.209  10.379   9.661 -0.1389 -0.8280 -0.1800
  737ccc     H319227   6.267  10.534   9.772 -0.5816 -1.2536 -0.1186
  737ccc     H419228   6.388  10.558   9.487 -1.7649  2.3637  1.0351
  737ccc     H519229   6.174  10.367   9.558  2.0539  0.4033 -1.1402
  737ccc     O119230   6.098  10.357   9.756 -0.5909  0.3433 -0.3765
  737ccc     O219231   6.167  10.630   9.608 -0.4077  0.1201 -0.0557
  737ccc     O319232   6.455  10.669   9.641  0.2212  0.0506 -0.3142
  737ccc     O419233   6.532  10.451   9.772 -0.1765  0.5001  0.2014
  737ccc     C619234   6.531  10.178   9.664  0.2016  0.7781 -0.5155
  737ccc     H619235   6.417  10.684   9.730 -2.0377 -0.0741 -1.2028
  737ccc     H719236   6.551  10.546   9.780  0.0761  0.3527  1.5099
  737ccc     H819237   6.153  10.610   9.514  1.5080  1.3189 -0.6427
  737ccc     H919238   6.625  10.179   9.607  1.5011  0.2625  1.5283
  737ccc    H1019239   6.486  10.079   9.653  1.4387  0.2354 -0.8661
  737ccc     O519240   6.564  10.194   9.799 -0.0170  0.4220  0.3042
  737ccc    H1119241   6.570  10.289   9.819 -2.4211  0.5194  0.8569
  737ccc     O619242   6.320  10.290   9.698  0.2035  0.0526  0.4428
  738ccc     C119243   5.794   9.791  10.671 -0.0251  0.2333  0.9402
  738ccc     C219244   5.728   9.648  10.670  0.1019 -0.5995  0.0980
  738ccc     H119245   5.709   9.860  10.683 -0.1207  0.1077  0.9835
  738ccc     H219246   5.678   9.621  10.764 -0.5159 -0.1069 -0.0828
  738ccc     C319247   5.617   9.641  10.566  0.3602 -0.1562 -0.2990
  738ccc     C419248   5.669   9.694  10.429  0.0370  0.0748  0.2366
  738ccc     C519249   5.738   9.833  10.435  0.1271  0.1776 -0.1190
  738ccc     H319250   5.754   9.629  10.404  0.9555  0.6589  1.6938
  738ccc     H419251   5.533   9.706  10.593  0.0583 -0.9032  0.6211
  738ccc     H519252   5.660   9.907  10.451 -0.9920 -1.0529  0.3026
  738ccc     O119253   5.803   9.860  10.308  0.2204  0.8095 -0.3835
  738ccc     O219254   5.564   9.692  10.333  0.3900  0.4884 -0.3754
  738ccc     O319255   5.562   9.502  10.549  0.4864  0.4546  0.3718
  738ccc     O419256   5.835   9.555  10.664 -1.1440  0.6753 -0.2305
  738ccc     C619257   5.900   9.808  10.780  0.8623  0.1431  0.4184
  738ccc     H619258   5.624   9.447  10.498 -1.7215 -1.8349 -0.0431
  738ccc     H719259   5.810   9.496  10.591 -1.5600  0.2983  0.2091
  738ccc     H819260   5.562   9.598  10.306 -0.9187  0.1099  0.8942
  738ccc     H919261   5.854   9.793  10.878  1.0594  1.3372  0.7107
  738ccc    H1019262   5.938   9.911  10.773  0.4819  0.3184  0.8457
  738ccc     O519263   5.999   9.710  10.778 -1.1307 -0.0172 -0.0793
  738ccc    H1119264   5.959   9.637  10.729  2.9828 -2.5116 -0.2020
  738ccc     O619265   5.847   9.824  10.535  0.2745  0.6687  0.0829
  739ccc     C119266   7.095   9.841   6.748 -0.1319  0.1457 -0.4425
  739ccc     C219267   6.952   9.858   6.697  0.6564  0.3087 -0.1716
  739ccc     H119268   7.153   9.762   6.701  1.4983 -0.7550  2.7819
  739ccc     H219269   6.940   9.897   6.595  2.1489 -0.8825 -0.8484
  739ccc     C319270   6.893   9.713   6.686 -1.1319  0.2131 -1.0065
  739ccc     C419271   6.901   9.635   6.822  0.4126  0.7221 -0.0139
  739ccc     C519272   7.031   9.646   6.893 -0.3460 -0.2266  0.0286
  739ccc     H319273   6.831   9.685   6.891  0.2891 -1.5368  1.6049
  739ccc     H419274   6.951   9.653   6.614 -0.0352 -1.1406  0.9204
  739ccc     H519275   7.098   9.579   6.838 -2.7609 -0.1738 -3.2965
  739ccc     O119276   7.020   9.608   7.034 -0.4366  0.4555 -0.8551
  739ccc     O219277   6.865   9.497   6.805 -0.4129  0.0912  0.5558
  739ccc     O319278   6.758   9.709   6.634  0.0380 -0.4199  0.0885
  739ccc     O419279   6.888   9.935   6.797 -0.2479  0.1812  0.1471
  739ccc     C619280   7.178   9.971   6.754 -0.4766  0.4894 -0.0068
  739ccc     H619281   6.707   9.756   6.703  1.0937  0.1418  0.5087
  739ccc     H719282   6.811   9.984   6.763  0.9976  1.1409 -1.4445
  739ccc     H819283   6.771   9.492   6.783 -0.3866  1.1741  0.1300
  739ccc     H919284   7.191  10.015   6.655 -1.7342  0.6710 -0.1062
  739ccc    H1019285   7.279   9.936   6.775 -1.0361 -1.5136 -0.5003
  739ccc     O519286   7.136  10.052   6.867  0.1791 -0.0569 -0.5565
  739ccc    H1119287   7.041  10.031   6.873  0.0130  0.4856 -1.1943
  739ccc     O619288   7.079   9.787   6.887 -0.1167 -0.1578  0.0501
  740ccc     C119289   6.906  10.370   7.701  0.3847  0.3995  0.1126
  740ccc     C219290   6.918  10.396   7.853  0.1148 -0.2980 -1.0780
  740ccc     H119291   6.803  10.339   7.678  0.5034 -0.4665  0.6932
  740ccc     H219292   6.849  10.470   7.894  0.5010 -0.1348 -0.7112
  740ccc     C319293   6.907  10.258   7.922 -0.0717  0.2706 -0.8268
  740ccc     C419294   7.013  10.158   7.868  0.3381  0.2444  0.2704
  740ccc     C519295   6.976  10.133   7.720  0.0626  0.1332 -0.5434
  740ccc     H319296   7.114  10.200   7.868 -0.0069  1.1060 -0.4228
  740ccc     H419297   6.812  10.221   7.881  0.2891 -2.4746  0.5323
  740ccc     H519298   6.871  10.101   7.717  0.4844 -1.8112  2.0642
  740ccc     O119299   7.065  10.042   7.665 -0.1923  0.1009  0.4488
  740ccc     O219300   7.001  10.036   7.944  0.5738 -0.0158  0.6053
  740ccc     O319301   6.908  10.251   8.070 -0.1983  0.2251  0.1106
  740ccc     O419302   7.046  10.451   7.877 -0.6072  0.1440 -0.0519
  740ccc     C619303   6.950  10.496   7.614 -0.1840 -0.2295 -0.4310
  740ccc     H619304   6.824  10.277   8.112  0.0648 -0.9515  1.4536
  740ccc     H719305   7.071  10.432   7.969 -1.2173 -0.9112 -0.0841
  740ccc     H819306   7.016  10.078   8.030  0.8210  2.7768 -0.6951
  740ccc     H919307   7.056  10.492   7.589 -0.0010  2.7202 -0.4765
  740ccc    H1019308   6.941  10.590   7.670  2.9234 -1.0323  1.6491
  740ccc     O519309   6.866  10.486   7.496  0.5113 -0.5195 -0.1698
  740ccc    H1119310   6.906  10.547   7.432 -0.5581 -0.6022 -0.9498
  740ccc     O619311   6.998  10.261   7.657  0.1392 -0.5969 -0.0678
  741ccc     C119312   6.048   8.997   8.315 -0.1230  0.0919  0.1851
  741ccc     C219313   6.196   8.948   8.304  0.6481  0.0861  0.1153
  741ccc     H119314   5.992   8.975   8.223 -0.0216  2.1240 -0.4012
  741ccc     H219315   6.204   8.841   8.281 -2.1776 -0.2866  0.4501
  741ccc     C319316   6.275   9.002   8.187 -0.2260  0.2203 -0.5508
  741ccc     C419317   6.251   9.154   8.192 -0.2818  0.2873 -0.1551
  741ccc     C519318   6.110   9.213   8.224  0.2491 -0.5943 -0.4452
  741ccc     H319319   6.322   9.186   8.269 -0.6651 -1.4057  0.9631
  741ccc     H419320   6.241   8.963   8.090  1.8184 -0.1702 -1.1408
  741ccc     H519321   6.047   9.206   8.134  1.0480 -2.4582 -0.9234
  741ccc     O119322   6.138   9.350   8.272 -0.6568  0.6266  0.4687
  741ccc     O219323   6.299   9.207   8.066 -0.2115  0.0998  0.0738
  741ccc     O319324   6.417   8.964   8.200 -0.0911 -0.7959  0.0487
  741ccc     O419325   6.257   8.961   8.425  0.0621 -0.0905 -0.0581
  741ccc     C619326   5.970   8.929   8.433 -0.5039 -0.2728  0.1786
  741ccc     H619327   6.461   9.025   8.137 -1.0833  0.3308  0.4049
  741ccc     H719328   6.346   8.961   8.384 -1.2423  0.2513 -3.1760
  741ccc     H819329   6.373   9.269   8.080 -0.7344  0.4323  1.4593
  741ccc     H919330   5.932   9.007   8.500  1.9752  1.2507 -0.0693
  741ccc    H1019331   6.039   8.871   8.494 -0.4321  0.9704  1.3161
  741ccc     O519332   5.857   8.858   8.390  0.3511 -0.0835  0.0753
  741ccc    H1119333   5.796   8.924   8.353 -1.9269 -0.8105  2.2622
  741ccc     O619334   6.049   9.138   8.332 -0.4649  0.2471  0.1212
  742ccc     C119335   5.572   9.542   8.239 -0.4886  0.2917 -0.4722
  742ccc     C219336   5.632   9.548   8.095  0.8160  0.4103  0.1174
  742ccc     H119337   5.468   9.577   8.235 -0.8820 -0.9185 -1.1726
  742ccc     H219338   5.566   9.491   8.029  1.1447  1.9469 -1.6382
  742ccc     C319339   5.646   9.685   8.030  0.1689 -0.2375  0.0917
  742ccc     C419340   5.694   9.789   8.135 -0.3597 -0.0010  0.3948
  742ccc     C519341   5.630   9.778   8.271  0.2185  0.0526  1.0083
  742ccc     H319342   5.798   9.763   8.157 -0.2136  0.2169 -0.0195
  742ccc     H419343   5.548   9.726   8.001  0.5034  0.2499 -0.3615
  742ccc     H519344   5.528   9.816   8.263  0.6821  1.3499  1.0150
  742ccc     O119345   5.699   9.864   8.370  0.0336 -0.0050 -0.1610
  742ccc     O219346   5.687   9.920   8.080  0.2831  0.5117  0.3394
  742ccc     O319347   5.722   9.682   7.903  0.1390  0.5558  0.2976
  742ccc     O419348   5.755   9.491   8.101 -0.0110  0.2180  0.4550
  742ccc     C619349   5.561   9.407   8.317 -0.4923  0.0603  0.3873
  742ccc     H619350   5.785   9.607   7.911 -2.4241 -2.0649 -1.7400
  742ccc     H719351   5.753   9.441   8.184  2.6509  0.4430  0.7488
  742ccc     H819352   5.723   9.919   7.989  0.4413  3.5646  0.2689
  742ccc     H919353   5.491   9.343   8.263 -0.3928 -0.1588  0.5189
  742ccc    H1019354   5.518   9.427   8.416  0.0263  0.6423  0.5059
  742ccc     O519355   5.692   9.353   8.334 -0.4973  0.2903  0.9127
  742ccc    H1119356   5.713   9.378   8.425  1.1847  1.1050  0.3451
  742ccc     O619357   5.632   9.644   8.324  0.4148 -0.2697  0.4979
  743ccc     C119358   9.521  10.522   9.235 -0.1064  0.4159 -0.2831
  743ccc     C219359   9.675  10.534   9.213  0.3819  0.0221 -0.1154
  743ccc     H119360   9.492  10.611   9.293  0.8358  1.0807 -0.8065
  743ccc     H219361   9.687  10.635   9.170  0.0179  0.1069 -0.0280
  743ccc     C319362   9.750  10.530   9.345  0.3929 -0.4905  0.2893
  743ccc     C419363   9.699  10.430   9.443 -0.4548  0.2319  0.7485
  743ccc     C519364   9.541  10.425   9.454 -0.2638 -0.7762 -0.4243
  743ccc     H319365   9.730  10.335   9.396  3.2318  1.0872  1.1571
  743ccc     H419366   9.715  10.617   9.403 -0.9181 -0.7651 -0.0697
  743ccc     H519367   9.507  10.521   9.495 -1.2557 -0.1698 -2.5138
  743ccc     O119368   9.503  10.313   9.531  0.1855 -0.8102  0.6823
  743ccc     O219369   9.768  10.453   9.568  0.0376  0.4128 -0.1535
  743ccc     O319370   9.894  10.537   9.338 -0.3054 -0.1824 -0.4424
  743ccc     O419371   9.715  10.435   9.119  0.4525 -0.1706 -0.2485
  743ccc     C619372   9.442  10.527   9.102 -0.6785 -0.2110  0.3249
  743ccc     H619373   9.913  10.619   9.290 -2.6247 -0.3088 -1.7296
  743ccc     H719374   9.808  10.457   9.103  0.7460 -0.5394  0.8462
  743ccc     H819375   9.863  10.436   9.552  0.0035 -0.3667  0.4059
  743ccc     H919376   9.465  10.618   9.045 -0.6107  1.2053  2.5096
  743ccc    H1019377   9.333  10.526   9.113 -0.7831  0.5264 -0.5086
  743ccc     O519378   9.476  10.422   9.013 -0.0847 -0.1714 -0.0030
  743ccc    H1119379   9.568  10.402   9.038 -0.1072 -0.8123 -0.4192
  743ccc     O619380   9.480  10.411   9.326 -0.3877  0.0236  0.0009
  744ccc     C119381  10.060  10.232   9.886  0.0779  0.3017  0.3654
  744ccc     C219382  10.203  10.197   9.926  0.4679 -0.1546 -0.6085
  744ccc     H119383   9.991  10.208   9.968 -0.7296  0.5700 -0.2287
  744ccc     H219384  10.233  10.268  10.003 -0.3311 -1.6630  1.1604
  744ccc     C319385  10.193  10.055   9.988 -0.2320 -0.1685 -0.0973
  744ccc     C419386  10.119   9.951   9.895 -0.3797  0.3552  0.1121
  744ccc     C519387  10.000  10.014   9.804  0.5294 -0.2480  0.7801
  744ccc     H319388  10.191   9.931   9.815  0.1416  2.7655 -0.0717
  744ccc     H419389  10.130  10.060  10.077 -0.4240 -1.9823 -0.0880
  744ccc     H519390   9.902  10.010   9.855  0.8062  1.2676  1.5038
  744ccc     O119391   9.993   9.936   9.685 -0.7397  0.7222  0.4103
  744ccc     O219392  10.075   9.834   9.969 -0.2037  0.0681  0.1732
  744ccc     O319393  10.321   9.999  10.023 -0.2085 -0.6545 -0.0937
  744ccc     O419394  10.283  10.211   9.809  0.1449 -0.7731 -0.6327
  744ccc     C619395  10.047  10.381   9.852 -0.2103 -0.2218 -0.2278
  744ccc     H619396  10.310   9.912  10.063  0.4233 -0.8136 -0.2625
  744ccc     H719397  10.234  10.282   9.765 -0.4511 -0.7931 -0.0260
  744ccc     H819398  10.010   9.877  10.028  0.4259 -1.0850  1.7436
  744ccc     H919399  10.081  10.441   9.937  0.9624  2.8851 -2.6804
  744ccc    H1019400   9.942  10.409   9.833 -0.4695 -1.5674 -0.8776
  744ccc     O519401  10.130  10.419   9.747  0.1768 -0.0911  0.1555
  744ccc    H1119402  10.092  10.403   9.659 -1.4726 -2.1917  1.1734
  744ccc     O619403  10.018  10.158   9.771 -0.6280 -0.5655  0.1937
  745ccc     C119404   8.382  10.111  11.030  0.2715  0.1143 -0.1857
  745ccc     C219405   8.249  10.151  11.107 -0.3209  0.5076 -0.1238
  745ccc     H119406   8.463  10.108  11.104  1.7750 -0.5319 -1.7973
  745ccc     H219407   8.245  10.110  11.208 -0.6271  0.2569 -0.2365
  745ccc     C319408   8.249  10.303  11.142 -0.0807  0.1262  0.3986
  745ccc     C419409   8.293  10.389  11.019 -0.3691 -0.4073 -0.0378
  745ccc     C519410   8.424  10.341  10.955 -0.0953  0.7710 -0.6558
  745ccc     H319411   8.213  10.381  10.944 -1.7883  0.3307  1.3493
  745ccc     H419412   8.324  10.319  11.220  0.7979  1.2549 -0.6548
  745ccc     H519413   8.506  10.351  11.027 -0.5860 -1.8248  0.3814
  745ccc     O119414   8.459  10.414  10.834  0.4531  0.0033 -0.0680
  745ccc     O219415   8.300  10.531  11.058 -0.4613 -0.2538 -0.5141
  745ccc     O319416   8.112  10.337  11.187 -0.3844  0.1843 -0.7271
  745ccc     O419417   8.133  10.132  11.029 -0.1217 -0.0162 -0.3527
  745ccc     C619418   8.366   9.965  10.987 -0.4035  0.4119 -0.2986
  745ccc     H619419   8.123  10.433  11.192  4.3140 -0.1326 -0.1230
  745ccc     H719420   8.090  10.215  11.056  0.3209 -0.2373  1.1255
  745ccc     H819421   8.335  10.584  10.984 -0.4998  0.4382 -0.0406
  745ccc     H919422   8.325   9.966  10.885 -0.8576  1.8811 -0.1223
  745ccc    H1019423   8.286   9.915  11.044 -2.2287 -0.5050 -3.3938
  745ccc     O519424   8.490   9.891  10.986 -0.3229 -0.6865 -0.1019
  745ccc    H1119425   8.471   9.795  10.984 -0.0725 -0.7252 -1.4100
  745ccc     O619426   8.412  10.201  10.917  0.3379 -0.2741 -0.3273
  746ccc     C119427   7.968  10.816  10.253 -0.6137 -0.0417  0.5455
  746ccc     C219428   7.859  10.711  10.252  0.3813  0.3319 -0.0539
  746ccc     H119429   7.965  10.874  10.160  0.3230  0.4188  0.7905
  746ccc     H219430   7.758  10.754  10.248 -0.6907 -1.8351  1.4762
  746ccc     C319431   7.881  10.614  10.135  0.5167 -0.4556 -0.6897
  746ccc     C419432   8.022  10.556  10.148  0.5333 -0.1649  0.9226
  746ccc     C519433   8.130  10.663  10.158 -0.4645  0.0222  0.0562
  746ccc     H319434   8.027  10.504  10.244 -0.6145  0.3867  1.3069
  746ccc     H419435   7.886  10.667  10.039  0.0869 -3.9844 -2.8294
  746ccc     H519436   8.136  10.711  10.060  1.3355 -1.3521 -0.5607
  746ccc     O119437   8.259  10.609  10.193  0.3544 -0.4439  0.3471
  746ccc     O219438   8.037  10.473  10.032 -0.5367  0.3790 -0.3957
  746ccc     O319439   7.775  10.516  10.136 -0.2357 -0.5525 -0.2253
  746ccc     O419440   7.877  10.637  10.376 -0.2527 -0.1790  0.6542
  746ccc     C619441   7.957  10.926  10.368  0.5732  0.1872  0.6677
  746ccc     H619442   7.770  10.475  10.224 -1.5417 -1.6030 -0.7562
  746ccc     H719443   7.922  10.698  10.437  0.5079 -0.3440  0.2695
  746ccc     H819444   7.970  10.402  10.035  0.2741 -0.3767  1.6129
  746ccc     H919445   7.854  10.962  10.371 -0.1019 -0.6912 -4.2529
  746ccc    H1019446   8.024  11.013  10.360  0.6984  0.0413  0.0806
  746ccc     O519447   7.988  10.858  10.487 -0.1898 -0.2004 -0.0458
  746ccc    H1119448   8.057  10.913  10.529  1.3677 -2.1086  0.0050
  746ccc     O619449   8.099  10.766  10.257 -0.0191 -0.3647  0.4078
  747ccc     C119450   9.032   8.946   7.163 -1.4429 -0.4049  0.0934
  747ccc     C219451   9.055   9.073   7.070  0.0347  0.6158  0.1885
  747ccc     H119452   8.998   8.865   7.097 -0.3485 -2.3002  1.7621
  747ccc     H219453   9.111   9.032   6.985 -2.7908 -1.1582 -0.9547
  747ccc     C319454   8.926   9.125   7.008 -0.2991  0.2687 -0.0831
  747ccc     C419455   8.824   9.153   7.113 -0.6042 -0.2813  0.1551
  747ccc     C519456   8.808   9.037   7.215  0.0051  0.4103 -0.4792
  747ccc     H319457   8.855   9.244   7.166 -3.2990  1.3795 -0.8727
  747ccc     H419458   8.895   9.040   6.946  0.3282  1.3436 -1.9543
  747ccc     H519459   8.753   8.952   7.172 -0.8543  0.8425 -0.2593
  747ccc     O119460   8.732   9.083   7.329  0.3461  0.0547  0.2755
  747ccc     O219461   8.711   9.191   7.041  0.4156  0.6795 -0.4144
  747ccc     O319462   8.932   9.246   6.930  0.7766 -0.2882  0.6387
  747ccc     O419463   9.120   9.170   7.155 -0.6549 -0.4371 -0.2754
  747ccc     C619464   9.155   8.894   7.237  0.0943 -0.3652  0.8013
  747ccc     H619465   8.969   9.223   6.843  1.8913  0.2271  0.9665
  747ccc     H719466   9.176   9.215   7.088 -0.3876 -0.3577  0.0007
  747ccc     H819467   8.757   9.217   6.959  0.5685 -1.3209 -1.0113
  747ccc     H919468   9.174   8.959   7.323 -1.3634  2.3590 -0.8136
  747ccc    H1019469   9.247   8.893   7.178 -0.9630  0.5322 -0.9319
  747ccc     O519470   9.114   8.763   7.269 -0.1130 -0.3753 -0.0774
  747ccc    H1119471   9.184   8.730   7.328 -1.5131 -1.7366  0.8915
  747ccc     O619472   8.933   8.981   7.262  0.7643 -0.0242  0.0227
  748ccc     C119473   9.430   9.098   7.450 -0.5586  0.0611 -0.2734
  748ccc     C219474   9.556   9.183   7.486 -0.6019  0.0706 -0.4368
  748ccc     H119475   9.426   9.090   7.340  0.5661 -0.9934 -0.2644
  748ccc     H219476   9.641   9.141   7.430 -0.6061 -0.3578 -0.1263
  748ccc     C319477   9.539   9.326   7.431 -0.3085 -0.1735 -0.1177
  748ccc     C419478   9.416   9.397   7.475  0.4719 -0.0515 -0.5227
  748ccc     C519479   9.287   9.308   7.442 -1.1686  0.1213 -0.2818
  748ccc     H319480   9.423   9.406   7.584 -0.5009 -0.1519 -0.4480
  748ccc     H419481   9.524   9.311   7.323 -2.1036 -0.1522  0.0908
  748ccc     H519482   9.272   9.317   7.334 -1.5473  0.1874 -0.2243
  748ccc     O119483   9.184   9.359   7.523 -0.5316 -0.3319  0.0046
  748ccc     O219484   9.404   9.528   7.400 -0.3870  0.5225 -0.3751
  748ccc     O319485   9.659   9.399   7.449  0.0210  0.2759  0.2169
  748ccc     O419486   9.575   9.189   7.628 -0.5005 -0.4763 -0.7686
  748ccc     C619487   9.436   8.963   7.518  0.1312 -0.0651  0.3557
  748ccc     H619488   9.650   9.455   7.527  3.0870 -0.1656  1.0281
  748ccc     H719489   9.671   9.204   7.637 -0.8847  0.9981  1.5032
  748ccc     H819490   9.366   9.583   7.471 -1.2549 -0.7008  0.1474
  748ccc     H919491   9.518   8.903   7.475 -1.5837 -1.0211 -1.7906
  748ccc    H1019492   9.350   8.900   7.490 -0.0663  0.0501  0.7046
  748ccc     O519493   9.454   8.962   7.657 -0.5333 -0.0581 -0.1382
  748ccc    H1119494   9.503   9.044   7.673  1.7874 -1.2449 -0.7255
  748ccc     O619495   9.312   9.168   7.485 -0.8443  0.4233 -0.5064
  749ccc     C119496   7.657  10.552   8.772 -0.6510 -0.0156 -0.4729
  749ccc     C219497   7.663  10.576   8.925 -0.1090 -0.5360  0.0965
  749ccc     H119498   7.608  10.454   8.770  1.2521 -1.0165 -0.7195
  749ccc     H219499   7.562  10.576   8.967 -0.4417  0.6240 -0.6459
  749ccc     C319500   7.757  10.478   8.994 -0.2838  0.5128  0.3069
  749ccc     C419501   7.899  10.468   8.930 -0.0620 -0.4271 -0.3140
  749ccc     C519502   7.886  10.447   8.783  0.0142 -0.3172 -0.0676
  749ccc     H319503   7.949  10.564   8.943  1.3944 -1.4633  2.5625
  749ccc     H419504   7.717  10.377   8.981  1.6412 -0.5481  1.9908
  749ccc     H519505   7.850  10.345   8.770  0.3296 -0.3459 -0.8006
  749ccc     O119506   8.011  10.455   8.709 -0.3404  0.2858 -0.0668
  749ccc     O219507   7.976  10.355   8.989 -0.9671  0.2970  0.4432
  749ccc     O319508   7.771  10.499   9.138 -0.7496 -0.1923  0.1353
  749ccc     O419509   7.725  10.706   8.936  0.7702 -0.1848  0.0726
  749ccc     C619510   7.584  10.661   8.697 -0.2401 -0.1831  0.9736
  749ccc     H619511   7.768  10.594   9.157  1.7579 -0.1208  0.5112
  749ccc     H719512   7.718  10.738   9.028  0.2156 -0.0856 -0.0043
  749ccc     H819513   8.007  10.372   9.080  0.7976  0.4204 -0.1328
  749ccc     H919514   7.645  10.750   8.684 -1.3737  0.3191 -1.4784
  749ccc    H1019515   7.491  10.691   8.747 -0.8987  0.6760 -0.6907
  749ccc     O519516   7.562  10.606   8.562 -0.2884 -0.4831 -0.5845
  749ccc    H1119517   7.636  10.644   8.512  0.1532  2.9616  2.2815
  749ccc     O619518   7.792  10.543   8.721 -0.1134 -0.1524 -0.1631
  750ccc     C119519   7.568  10.003   7.797 -0.4374  0.2672  0.7852
  750ccc     C219520   7.424  10.010   7.853  0.0354 -0.0057  0.3369
  750ccc     H119521   7.583   9.899   7.768  1.5202  0.2649  1.6462
  750ccc     H219522   7.350   9.982   7.777  1.2395  0.0060 -0.8683
  750ccc     C319523   7.421   9.905   7.977  0.1803 -0.5560  1.0167
  750ccc     C419524   7.538   9.926   8.077  0.5131 -0.9109 -0.3517
  750ccc     C519525   7.678   9.934   8.005  0.9575  0.1140 -0.1751
  750ccc     H319526   7.526  10.029   8.114 -0.4512 -1.8461  2.1299
  750ccc     H419527   7.427   9.808   7.927 -1.1086 -0.8869  1.4863
  750ccc     H519528   7.700   9.839   7.957  1.3094  0.8530 -1.5250
  750ccc     O119529   7.788   9.974   8.096 -0.3583  0.2782  0.8559
  750ccc     O219530   7.530   9.830   8.187  0.3124 -0.6628  0.3757
  750ccc     O319531   7.298   9.906   8.055  0.6901 -0.5657  0.6455
  750ccc     O419532   7.399  10.149   7.892  0.6204 -0.1071 -0.2580
  750ccc     C619533   7.584  10.103   7.680 -0.5766  0.2480 -1.2102
  750ccc     H619534   7.233   9.869   7.993  0.7328  2.2680 -1.3169
  750ccc     H719535   7.358  10.192   7.815 -2.2172 -1.2991  0.4525
  750ccc     H819536   7.439   9.797   8.185 -0.1850  0.6532  0.2478
  750ccc     H919537   7.608  10.206   7.709  0.1979 -0.3594  0.4171
  750ccc    H1019538   7.490  10.113   7.624 -1.8477 -0.2134  0.7654
  750ccc     O519539   7.694  10.044   7.608  0.3948 -0.1782  0.6517
  750ccc    H1119540   7.687  10.077   7.516 -2.7242 -0.3951  0.7051
  750ccc     O619541   7.661  10.032   7.900  0.2696 -0.2965  0.1502
  751ccc     C119542   7.624   7.650  12.900  0.3773 -0.1942 -1.0608
  751ccc     C219543   7.780   7.649  12.905  0.3500 -0.3420  0.1006
  751ccc     H119544   7.592   7.661  12.795 -0.8941  2.9083 -0.4346
  751ccc     H219545   7.825   7.576  12.837  0.9536  0.1373 -0.0300
  751ccc     C319546   7.845   7.788  12.869 -0.2815  0.5025 -0.6223
  751ccc     C419547   7.785   7.893  12.964  0.0711 -0.7398  0.2190
  751ccc     C519548   7.630   7.897  12.954 -0.0224 -0.4012 -0.3200
  751ccc     H319549   7.810   7.862  13.066  0.8864  2.8441  1.2620
  751ccc     H419550   7.815   7.816  12.768 -0.4340  2.7883 -0.0017
  751ccc     H519551   7.600   7.944  12.861  1.4316 -1.2931 -1.2871
  751ccc     O119552   7.589   7.977  13.070  0.2076 -0.0375  0.1674
  751ccc     O219553   7.838   8.020  12.922 -0.1960 -0.1041 -0.1090
  751ccc     O319554   7.991   7.786  12.885  0.0031 -0.3019  0.3452
  751ccc     O419555   7.819   7.616  13.036  0.1761 -0.5492  0.6858
  751ccc     C619556   7.557   7.516  12.950 -0.9645 -0.2107  0.5204
  751ccc     H619557   8.020   7.866  12.837  1.4401 -0.1645  1.3739
  751ccc     H719558   7.915   7.606  13.024  0.6459  1.6305  2.0320
  751ccc     H819559   7.867   8.066  13.003  1.0534  0.7870 -1.0290
  751ccc     H919560   7.574   7.505  13.058  0.4363  2.3641  0.6647
  751ccc    H1019561   7.617   7.437  12.905  0.6795  0.9187  0.6469
  751ccc     O519562   7.418   7.516  12.915  0.6119  0.2048 -0.5635
  751ccc    H1119563   7.379   7.590  12.964  1.5278  0.5035 -0.2751
  751ccc     O619564   7.577   7.767  12.982 -0.0231 -0.0660  0.2467
  752ccc     C119565   7.966   8.309  13.019  0.0240  0.5312  1.0758
  752ccc     C219566   8.079   8.417  13.010 -1.0032  0.4613 -0.0286
  752ccc     H119567   7.989   8.232  12.944  0.8218  0.7143  1.1285
  752ccc     H219568   8.173   8.362  13.020 -1.9232 -1.0402  0.8329
  752ccc     C319569   8.071   8.485  12.868  0.2078  0.1813  0.0892
  752ccc     C419570   7.937   8.552  12.858  0.5892  0.2017  0.9038
  752ccc     C519571   7.827   8.444  12.872 -0.5731  1.5899 -0.1028
  752ccc     H319572   7.921   8.620  12.942  0.9186  1.2213  0.1561
  752ccc     H419573   8.075   8.411  12.787  1.0669 -0.5546  0.7836
  752ccc     H519574   7.833   8.364  12.797 -1.3576 -0.2553  1.7148
  752ccc     O119575   7.698   8.505  12.870  0.9087  0.2955 -0.1167
  752ccc     O219576   7.906   8.614  12.732 -0.6000  0.5576 -0.0407
  752ccc     O319577   8.181   8.580  12.860  0.1181  0.5008  0.2460
  752ccc     O419578   8.068   8.500  13.121 -0.1541 -0.2294 -0.2930
  752ccc     C619579   7.964   8.238  13.155 -0.4606  0.6583  0.3170
  752ccc     H619580   8.248   8.543  12.800  0.0805 -1.4616  1.3355
  752ccc     H719581   8.117   8.573  13.080  1.1175 -0.3468  0.9373
  752ccc     H819582   7.963   8.692  12.727  0.1499 -0.0396 -1.2665
  752ccc     H919583   7.937   8.310  13.233  0.1536  1.2857 -0.0329
  752ccc    H1019584   8.061   8.196  13.185 -1.7378 -0.5212  3.1162
  752ccc     O519585   7.867   8.138  13.148  0.6056 -0.7988 -0.5439
  752ccc    H1119586   7.791   8.167  13.201  0.2080 -1.9735 -0.4361
  752ccc     O619587   7.842   8.376  12.996 -0.1104  0.2229 -0.1711
  753ccc     C119588   5.664   8.220  11.350  0.0021  0.2387 -0.4115
  753ccc     C219589   5.577   8.350  11.328 -0.1227 -0.4426 -0.0150
  753ccc     H119590   5.662   8.186  11.454  1.8728 -1.5399 -0.8765
  753ccc     H219591   5.585   8.413  11.417  3.5139  0.2127 -0.6525
  753ccc     C319592   5.648   8.445  11.228  0.1890  0.3072 -0.3305
  753ccc     C419593   5.796   8.482  11.264 -0.2475 -0.3341 -0.2148
  753ccc     C519594   5.861   8.377  11.352 -0.5099  1.1691 -0.9123
  753ccc     H319595   5.846   8.478  11.166 -0.9654 -2.6259 -0.5431
  753ccc     H419596   5.592   8.538  11.239  0.8395  0.8111 -1.1572
  753ccc     H519597   5.852   8.391  11.461 -0.6772 -1.0283 -0.6051
  753ccc     O119598   6.003   8.364  11.324  0.5120  0.4324  0.2420
  753ccc     O219599   5.797   8.617  11.318 -0.1988 -0.1457  0.1622
  753ccc     O319600   5.635   8.388  11.093 -0.2028  0.7693 -0.0428
  753ccc     O419601   5.439   8.317  11.307 -0.4066 -0.0731 -0.3842
  753ccc     C619602   5.613   8.103  11.273  0.2660  0.2089 -0.1871
  753ccc     H619603   5.620   8.294  11.109 -0.6278  0.5279 -1.6485
  753ccc     H719604   5.424   8.303  11.212 -0.7016  1.8870 -0.6647
  753ccc     H819605   5.890   8.637  11.339  0.1983  2.0300 -2.9418
  753ccc     H919606   5.512   8.078  11.308  1.2322 -1.6437  1.4482
  753ccc    H1019607   5.677   8.015  11.286  0.7295  0.5922  0.1207
  753ccc     O519608   5.611   8.142  11.127 -0.0126  0.3469  0.3996
  753ccc    H1119609   5.553   8.074  11.089  0.2672  1.7015 -2.7625
  753ccc     O619610   5.807   8.245  11.322 -0.0500 -0.4214 -0.8281
  754ccc     C119611   6.505   7.640  10.801 -0.0133 -0.6314 -0.0154
  754ccc     C219612   6.587   7.659  10.677  0.3917 -0.5053 -0.2616
  754ccc     H119613   6.407   7.679  10.770  0.3452  1.0130  0.8295
  754ccc     H219614   6.552   7.594  10.596 -0.7785 -1.6086  1.0767
  754ccc     C319615   6.604   7.807  10.632  0.3403  1.0943  0.2153
  754ccc     C419616   6.647   7.895  10.749 -0.1151  0.3344  0.0324
  754ccc     C519617   6.559   7.865  10.881 -0.1707 -0.6001 -0.5388
  754ccc     H319618   6.751   7.866  10.765 -0.1957  1.1791  2.5225
  754ccc     H419619   6.501   7.834  10.606  0.3176  1.8631  1.0387
  754ccc     H519620   6.453   7.891  10.864  0.2088 -0.0019 -2.1863
  754ccc     O119621   6.610   7.945  10.993  0.3861  0.4614  0.1067
  754ccc     O219622   6.629   8.037  10.707 -0.3731  0.2508  0.3879
  754ccc     O319623   6.690   7.814  10.515  0.6168 -0.5320 -0.5844
  754ccc     O419624   6.725   7.614  10.712 -0.1446  0.0151 -0.1209
  754ccc     C619625   6.494   7.498  10.840 -0.6279 -0.1369  0.3921
  754ccc     H619626   6.704   7.907  10.490  1.6207 -1.1418 -2.5019
  754ccc     H719627   6.782   7.682  10.671 -0.4436  0.9465  0.9614
  754ccc     H819628   6.709   8.068  10.660  1.7815  1.5117  4.4104
  754ccc     H919629   6.451   7.447  10.754  0.5407 -1.3915  0.5161
  754ccc    H1019630   6.435   7.484  10.932 -0.3190 -2.0768  0.3420
  754ccc     O519631   6.623   7.443  10.863 -0.2662  0.1143 -0.1004
  754ccc    H1119632   6.675   7.494  10.799 -1.6594  1.1932 -0.4218
  754ccc     O619633   6.559   7.726  10.909  0.2518  0.2890  0.0948
  755ccc     C119634   6.684  10.111  10.831 -0.2437  0.1280  0.2133
  755ccc     C219635   6.672  10.066  10.688  0.5685 -0.2088 -0.0638
  755ccc     H119636   6.615  10.055  10.895 -1.7569  2.7916  1.0633
  755ccc     H219637   6.708   9.964  10.669  2.0217  0.4117 -0.7633
  755ccc     C319638   6.521  10.078  10.648 -0.2702 -0.1828 -0.3978
  755ccc     C419639   6.468  10.221  10.672 -0.4635  0.0316  0.1720
  755ccc     C519640   6.507  10.284  10.812  0.2189 -0.1766  0.0459
  755ccc     H319641   6.514  10.290  10.600  1.9733 -1.8920 -0.2710
  755ccc     H419642   6.468  10.016  10.722 -0.5823  1.3700  0.7327
  755ccc     H519643   6.440  10.237  10.885 -0.6991  3.4743  1.7525
  755ccc     O119644   6.489  10.426  10.819 -0.1411  0.2079  0.4432
  755ccc     O219645   6.324  10.225  10.665 -0.3946 -0.1639  0.2007
  755ccc     O319646   6.490  10.026  10.512 -0.2204  0.2648 -0.0094
  755ccc     O419647   6.752  10.156  10.611  0.5672  0.5097  0.2773
  755ccc     C619648   6.825  10.087  10.888  0.7731  0.1266 -0.6577
  755ccc     H619649   6.550  10.065  10.446  2.5473 -1.7586  1.0555
  755ccc     H719650   6.823  10.180  10.673 -0.5887  1.1431  1.3957
  755ccc     H819651   6.295  10.317  10.652  2.5259  0.6690 -1.3939
  755ccc     H919652   6.856   9.982  10.888  0.1733 -0.1015  1.7180
  755ccc    H1019653   6.834  10.126  10.990  2.6770 -0.7829 -0.4270
  755ccc     O519654   6.922  10.160  10.821 -0.1111  0.4449 -0.4107
  755ccc    H1119655   7.001  10.149  10.877 -0.3971 -0.8000 -0.2146
  755ccc     O619656   6.644  10.249  10.839 -0.7051 -0.3070  0.2399
  756ccc     C119657   5.695  10.210  11.083  0.7298 -0.0401  0.6590
  756ccc     C219658   5.666  10.349  11.020  0.3517 -0.1295  0.2393
  756ccc     H119659   5.622  10.181  11.160  0.9795 -2.7270 -0.0034
  756ccc     H219660   5.566  10.350  10.975 -0.1006 -1.1834  1.1697
  756ccc     C319661   5.669  10.463  11.125 -0.6215  0.0750  0.0743
  756ccc     C419662   5.798  10.461  11.209 -0.2031 -0.0463 -0.2753
  756ccc     C519663   5.841  10.321  11.247 -0.8700  0.5009 -0.4133
  756ccc     H319664   5.878  10.508  11.150 -2.3991  3.6461 -0.6342
  756ccc     H419665   5.588  10.433  11.193  0.0087 -0.4529  0.6003
  756ccc     H519666   5.785  10.279  11.332  1.0917  1.4923  1.4838
  756ccc     O119667   5.982  10.313  11.292 -0.1087  0.3409 -0.0030
  756ccc     O219668   5.779  10.547  11.327 -0.1906 -0.4462  0.0174
  756ccc     O319669   5.626  10.585  11.078 -0.8647 -0.2739 -0.0918
  756ccc     O419670   5.759  10.364  10.919 -0.0824  0.4968  0.3089
  756ccc     C619671   5.687  10.100  10.970  0.3754 -0.0479 -0.6521
  756ccc     H619672   5.694  10.614  11.015 -0.5758  2.0213  1.1832
  756ccc     H719673   5.711  10.406  10.846 -1.0032 -0.6090  0.2619
  756ccc     H819674   5.761  10.631  11.282 -2.3078 -0.8764 -0.0429
  756ccc     H919675   5.784  10.098  10.918 -0.0542  0.7130 -1.5060
  756ccc    H1019676   5.617  10.115  10.887  1.6314 -1.2687 -1.9900
  756ccc     O519677   5.657   9.972  11.030  0.3789 -0.3581 -0.4017
  756ccc    H1119678   5.711   9.978  11.111 -1.7741  0.1420  1.1001
  756ccc     O619679   5.826  10.224  11.136  0.8178  0.1232 -0.1366
  757ccc     C119680   5.754   8.955  10.484 -0.5166  0.2798 -0.3160
  757ccc     C219681   5.821   9.014  10.364 -0.1735 -0.8412 -0.3620
  757ccc     H119682   5.647   8.971  10.465 -0.5527  0.8405  0.3076
  757ccc     H219683   5.768   8.975  10.276 -0.0904  2.4491 -2.0546
  757ccc     C319684   5.799   9.167  10.349 -0.6624  0.9848  0.3448
  757ccc     C419685   5.830   9.244  10.485  0.2776  0.2231  0.6481
  757ccc     C519686   5.760   9.175  10.604  0.1595 -0.1761  0.1065
  757ccc     H319687   5.938   9.233  10.500  0.6432 -1.7424 -2.5165
  757ccc     H419688   5.693   9.174  10.323 -1.3331 -0.2386  2.5108
  757ccc     H519689   5.653   9.193  10.589  0.6419  2.5667 -0.5646
  757ccc     O119690   5.800   9.233  10.725 -0.0081 -0.8800 -0.2593
  757ccc     O219691   5.789   9.379  10.463  0.2071  0.2722 -0.0958
  757ccc     O319692   5.886   9.222  10.248 -0.5708  0.3847  0.8912
  757ccc     O419693   5.961   8.975  10.363 -0.7432 -0.1058 -0.0143
  757ccc     C619694   5.798   8.807  10.507 -0.7289 -0.3072  0.1252
  757ccc     H619695   5.925   9.153  10.192  0.0959  2.2411 -1.0511
  757ccc     H719696   5.995   8.986  10.273 -1.0806  0.7311 -0.0494
  757ccc     H819697   5.828   9.397  10.376  2.4597 -2.0023  0.3324
  757ccc     H919698   5.880   8.801  10.580  1.6418  1.9371 -2.1327
  757ccc    H1019699   5.828   8.767  10.409 -1.4665  1.3588 -0.8293
  757ccc     O519700   5.684   8.728  10.545  0.3459 -0.7085 -0.2471
  757ccc    H1119701   5.723   8.639  10.556  0.5084 -0.3605  2.7924
  757ccc     O619702   5.786   9.032  10.605  0.5886  0.0535 -0.1198
  758ccc     C119703   5.580   9.523  11.724 -0.1184 -0.2457 -0.3654
  758ccc     C219704   5.526   9.652  11.793  1.0261 -0.0239  0.2465
  758ccc     H119705   5.649   9.472  11.793  0.1596 -1.7826 -1.7306
  758ccc     H219706   5.487   9.623  11.891 -1.1036 -0.1295 -0.5869
  758ccc     C319707   5.645   9.744  11.827  0.1196  1.1334 -0.0333
  758ccc     C419708   5.718   9.771  11.696  0.3171 -0.2247  0.8387
  758ccc     C519709   5.759   9.639  11.605  0.6970 -0.1534 -0.9144
  758ccc     H319710   5.647   9.835  11.641 -0.9266 -0.1271  2.4933
  758ccc     H419711   5.698   9.678  11.897 -0.0772  1.0827  0.0659
  758ccc     H519712   5.833   9.579  11.659  0.5494 -0.2316 -0.7969
  758ccc     O119713   5.808   9.679  11.472  0.3117 -0.2372 -0.2808
  758ccc     O219714   5.832   9.850  11.735 -0.5889 -0.4964 -0.0306
  758ccc     O319715   5.611   9.870  11.895 -0.5065  0.0355 -0.0695
  758ccc     O419716   5.429   9.723  11.724  0.2472  0.5911  0.0249
  758ccc     C619717   5.477   9.414  11.692  0.5772 -0.2326  0.1626
  758ccc     H619718   5.559   9.918  11.828  1.6548 -0.0667 -1.9352
  758ccc     H719719   5.379   9.763  11.797  0.5070 -1.1781  1.2422
  758ccc     H819720   5.872   9.799  11.807 -1.3523 -2.1393 -0.7255
  758ccc     H919721   5.448   9.427  11.587  0.5687 -0.2964  0.1575
  758ccc    H1019722   5.384   9.426  11.750  0.0706 -0.1409 -0.6584
  758ccc     O519723   5.534   9.290  11.702 -0.1712  0.5630  0.0737
  758ccc    H1119724   5.509   9.247  11.618 -0.1363 -0.3804  0.5338
  758ccc     O619725   5.652   9.546  11.600 -0.5661 -0.4068  0.2849
  759ccc     C119726   9.245   9.014  10.457  0.2292  0.7159 -0.6079
  759ccc     C219727   9.317   8.884  10.501  0.6942 -0.7986 -0.4845
  759ccc     H119728   9.235   9.005  10.349  0.9705  1.6172 -0.7613
  759ccc     H219729   9.259   8.795  10.473 -2.4619  0.6818  0.9425
  759ccc     C319730   9.463   8.882  10.451 -0.0283  0.0096  0.2985
  759ccc     C419731   9.539   9.012  10.488 -0.4033  0.7150  0.3296
  759ccc     C519732   9.459   9.135  10.437  0.0747 -0.4638  0.1819
  759ccc     H319733   9.556   9.029  10.595  1.4169 -1.6425  0.5185
  759ccc     H419734   9.461   8.877  10.341  1.5261  1.2517  0.1720
  759ccc     H519735   9.458   9.136  10.328 -1.3498 -1.0050  0.1596
  759ccc     O119736   9.514   9.253  10.486  0.1820 -0.3727 -0.2164
  759ccc     O219737   9.667   8.993  10.423 -0.1360 -1.1195  0.1388
  759ccc     O319738   9.537   8.769  10.493 -0.3857 -0.1537 -0.3310
  759ccc     O419739   9.323   8.894  10.643 -0.2020  0.5314  0.1957
  759ccc     C619740   9.099   9.041  10.504 -0.2342  0.3381 -0.1388
  759ccc     H619741   9.519   8.753  10.587  1.6232  0.1340  0.1444
  759ccc     H719742   9.238   8.940  10.655 -1.3388 -0.9158 -1.7161
  759ccc     H819743   9.666   8.902  10.387  0.5116 -1.1909  0.2907
  759ccc     H919744   9.032   8.973  10.450 -0.8769  1.2840 -0.5700
  759ccc    H1019745   9.069   9.141  10.468  0.5088  0.2544 -1.0496
  759ccc     O519746   9.091   9.033  10.646  0.0489  1.0413  0.2173
  759ccc    H1119747   8.997   9.039  10.667 -0.4640 -1.3990 -0.9528
  759ccc     O619748   9.323   9.127  10.486  0.0452 -0.1209  0.0618
  760ccc     C119749   9.932   9.441   9.441  0.1475 -0.7364  0.0619
  760ccc     C219750  10.055   9.284   9.460 -0.3144 -1.3792  0.6757
  760ccc     H119751   9.980   9.508   9.369  0.3978  0.3361  1.2041
  760ccc     H219752  10.132   9.319   9.391 -3.1077  0.4100 -1.7724
  760ccc     C319753  10.146   9.251   9.643 -0.7107  0.6107 -0.2435
  760ccc     C419754  10.079   9.358   9.804 -0.4721 -0.0313  0.2089
  760ccc     C519755   9.962   9.519   9.775 -0.2937 -0.1087  0.7162
  760ccc     H319756  10.013   9.293   9.863 -0.0875 -1.2930 -0.6992
  760ccc     H419757  10.247   9.289   9.624 -0.2823 -0.5438 -0.3789
  760ccc     H519758  10.037   9.597   9.791 -0.0592 -0.1215 -0.2399
  760ccc     O119759   9.878   9.535   9.891 -0.3749  0.1722 -0.0699
  760ccc     O219760  10.196   9.392   9.885 -0.2428 -0.2530 -0.1179
  760ccc     O319761  10.185   9.113   9.671 -0.7156 -0.1390 -0.4992
  760ccc     O419762  10.012   9.170   9.385 -0.0972 -0.1629  0.3383
  760ccc     C619763   9.811   9.404   9.360  0.5687  0.3368  0.1995
  760ccc     H619764  10.162   9.089   9.762 -0.1862 -1.0087 -0.5811
  760ccc     H719765  10.093   9.117   9.382  0.0188  0.0503 -1.1263
  760ccc     H819766  10.157   9.452   9.950  0.4972  1.0882 -0.8646
  760ccc     H919767   9.760   9.309   9.382  0.4423 -0.6601 -3.6969
  760ccc    H1019768   9.833   9.397   9.252 -0.9723  0.6634 -0.1569
  760ccc     O519769   9.719   9.511   9.395  0.2643 -0.1268  0.6075
  760ccc    H1119770   9.767   9.549   9.471  1.4597  0.8140 -0.5732
  760ccc     O619771   9.892   9.552   9.595  0.0991  0.5348  0.6339
  761ccc     C119772  10.007   9.931  11.048  0.7938 -0.4898 -0.0427
  761ccc     C219773  10.115   9.820  11.052 -0.5158 -0.3416 -0.0802
  761ccc     H119774  10.000   9.979  11.147  0.3103 -0.4203 -0.1070
  761ccc     H219775  10.204   9.875  11.084 -1.4118  1.3861 -0.4420
  761ccc     C319776  10.072   9.715  11.157 -0.5691 -0.3643  0.3216
  761ccc     C419777   9.926   9.668  11.134  0.5275  0.2274  0.1086
  761ccc     C519778   9.824   9.785  11.111  0.7040 -0.3344 -0.3251
  761ccc     H319779   9.925   9.619  11.036  0.4328 -0.2302  0.3376
  761ccc     H419780  10.081   9.757  11.258  0.3520 -2.2386  1.0748
  761ccc     H519781   9.791   9.838  11.201  1.1476  1.4608 -1.1953
  761ccc     O119782   9.703   9.736  11.039 -0.3424 -0.2079 -0.3406
  761ccc     O219783   9.895   9.586  11.250 -0.9358 -0.7566  0.2754
  761ccc     O319784  10.159   9.603  11.160 -0.1061  0.0809  0.5871
  761ccc     O419785  10.127   9.763  10.920  0.0906 -0.1792 -0.2661
  761ccc     C619786  10.026  10.045  10.951 -0.8144 -0.3971 -0.2694
  761ccc     H619787  10.186   9.589  11.252 -1.9894  1.0880  1.3539
  761ccc     H719788  10.194   9.695  10.932  1.3050  1.1019  0.5166
  761ccc     H819789   9.967   9.521  11.259 -1.2182 -1.3075 -1.1336
  761ccc     H919790  10.113  10.105  10.981 -0.2370 -1.5160  0.3525
  761ccc    H1019791   9.939  10.112  10.957 -0.7995 -0.4026  0.0371
  761ccc     O519792  10.050   9.988  10.817 -0.0793  0.0706  0.5710
  761ccc    H1119793  10.084   9.899  10.835  2.6336  0.9338  0.0805
  761ccc     O619794   9.886   9.874  11.016  0.0793  0.0452  0.2039
  762ccc     C119795   9.820  10.085  10.293  0.5826 -0.0584 -0.3747
  762ccc     C219796   9.955  10.085  10.368  0.5083 -0.8942  0.0780
  762ccc     H119797   9.776  10.183  10.313 -0.3423 -0.5272 -0.0555
  762ccc     H219798  10.017  10.170  10.337  1.7432 -1.0277  2.0029
  762ccc     C319799   9.933  10.114  10.520  0.7459  0.7397 -0.1904
  762ccc     C419800   9.823  10.025  10.581  0.7821  0.0701 -0.3511
  762ccc     C519801   9.697  10.011  10.489  0.3649 -0.2620  0.3988
  762ccc     H319802   9.869   9.926  10.573  2.9196  0.9100  0.4614
  762ccc     H419803   9.900  10.217  10.532 -2.6692 -0.5256  3.2784
  762ccc     H519804   9.638  10.103  10.488  0.0604 -0.4136 -1.9271
  762ccc     O119805   9.606   9.909  10.526  0.6803 -0.3368 -0.0403
  762ccc     O219806   9.793  10.072  10.714 -0.2725 -0.0022 -0.0217
  762ccc     O319807  10.064  10.097  10.583  0.0928 -0.4454 -0.6702
  762ccc     O419808  10.024   9.962  10.340  0.1282  0.1720 -0.0811
  762ccc     C619809   9.818  10.070  10.138  0.8506  0.1028 -0.4596
  762ccc     H619810  10.055  10.064  10.674 -0.4040  2.2012  0.3472
  762ccc     H719811  10.118   9.985  10.349  0.2040 -0.4908  1.0668
  762ccc     H819812   9.871  10.048  10.768 -0.4058  1.4397  0.8706
  762ccc     H919813   9.837  10.165  10.087 -3.8172  1.2544 -0.5298
  762ccc    H1019814   9.719  10.032  10.110  0.4789  0.6209  0.1136
  762ccc     O519815   9.908   9.968  10.111  0.0688  0.6272  0.8847
  762ccc    H1119816   9.945   9.949  10.199  0.6615 -0.4398  0.4382
  762ccc     O619817   9.737   9.978  10.353 -0.5067 -0.2870 -0.2781
  763ccc     C119818   7.287  10.231   9.926  0.2928 -0.1708  0.2146
  763ccc     C219819   7.415  10.172   9.986 -0.0195 -0.4833 -0.5201
  763ccc     H119820   7.305  10.230   9.818  2.3536  2.1122  0.4470
  763ccc     H219821   7.435  10.066   9.963  1.2948 -0.0064 -1.6668
  763ccc     C319822   7.532  10.259   9.934 -0.0171 -0.2385 -0.7457
  763ccc     C419823   7.521  10.411   9.974  0.7780 -1.1101  0.0710
  763ccc     C519824   7.381  10.463   9.920  0.2377  0.3035 -0.2097
  763ccc     H319825   7.527  10.418  10.083  1.1379 -1.0008  0.0443
  763ccc     H419826   7.511  10.262   9.826  0.6059 -1.6951 -0.9284
  763ccc     H519827   7.384  10.469   9.810 -1.4228  1.1283 -0.2313
  763ccc     O119828   7.354  10.597   9.963  0.1601  0.4245  0.1662
  763ccc     O219829   7.626  10.493   9.925 -0.1988  0.1769 -0.7643
  763ccc     O319830   7.659  10.198   9.970  0.0338  0.0997 -0.0765
  763ccc     O419831   7.399  10.182  10.122  0.1365  0.5667  0.0222
  763ccc     C619832   7.162  10.150   9.960 -0.1711 -0.3127  0.5855
  763ccc     H619833   7.645  10.102   9.967  0.1996  0.0296  0.9461
  763ccc     H719834   7.303  10.196  10.129 -0.0125 -1.0000  1.7376
  763ccc     H819835   7.691  10.499   9.997 -1.5827  0.1470  0.5353
  763ccc     H919836   7.173  10.052   9.911 -0.5983 -1.0672  1.9608
  763ccc    H1019837   7.070  10.196   9.922  0.5744  3.0798  2.4725
  763ccc     O519838   7.142  10.147  10.100  0.1222 -0.1197  0.6934
  763ccc    H1119839   7.063  10.204  10.105  0.2325  0.4158 -2.0205
  763ccc     O619840   7.272  10.375   9.958 -0.0673 -0.1441  0.3878
  764ccc     C119841   6.333  10.430  10.318  0.5172 -0.2683 -0.0169
  764ccc     C219842   6.261  10.539  10.239  0.0302  0.3781  0.1473
  764ccc     H119843   6.287  10.419  10.416 -1.5044  1.7885 -0.6530
  764ccc     H219844   6.163  10.506  10.202  0.5993 -1.4432  0.1619
  764ccc     C319845   6.251  10.672  10.326  1.2983  0.1937  0.8910
  764ccc     C419846   6.389  10.718  10.382  0.4793  0.2327  0.1298
  764ccc     C519847   6.471  10.593  10.439 -0.4049 -0.4202 -0.0030
  764ccc     H319848   6.437  10.748  10.288 -0.0735 -0.9402 -0.5591
  764ccc     H419849   6.184  10.649  10.409 -1.1369 -0.7370 -1.2014
  764ccc     H519850   6.430  10.566  10.536 -1.9327 -1.5624 -0.9197
  764ccc     O119851   6.620  10.634  10.445  0.6280 -0.1706  0.3309
  764ccc     O219852   6.382  10.833  10.475 -0.1024  0.1596  0.2316
  764ccc     O319853   6.191  10.776  10.250 -0.3982  0.1638 -1.0153
  764ccc     O419854   6.333  10.568  10.123 -0.8069 -0.4002 -0.0351
  764ccc     C619855   6.342  10.290  10.250 -0.8383 -0.1906 -0.4438
  764ccc     H619856   6.260  10.811  10.191  0.4211  0.4933  0.1195
  764ccc     H719857   6.354  10.478  10.093 -0.0245 -0.3040  0.1869
  764ccc     H819858   6.360  10.907  10.416 -1.2791  1.1774  1.8631
  764ccc     H919859   6.253  10.229  10.273  1.6058 -3.2973  1.7072
  764ccc    H1019860   6.407  10.217  10.301  0.9602  0.3798 -1.8400
  764ccc     O519861   6.369  10.301  10.103 -0.4097  0.1051 -0.4203
  764ccc    H1119862   6.402  10.212  10.081 -1.2226 -0.7772  1.6187
  764ccc     O619863   6.461  10.476  10.352  0.0814 -0.4505 -0.5366
  765ccc     C119864   7.163  10.420  10.803 -1.4938 -0.2213 -0.0948
  765ccc     C219865   7.190  10.564  10.768  0.3875 -0.2953  0.0770
  765ccc     H119866   7.099  10.385  10.721  0.6395 -0.6495 -1.6695
  765ccc     H219867   7.223  10.572  10.664 -1.4768  1.8031 -0.4452
  765ccc     C319868   7.056  10.644  10.773 -0.0017  0.1541  0.7218
  765ccc     C419869   6.990  10.619  10.904 -0.3166  0.1183  0.2917
  765ccc     C519870   6.974  10.471  10.949  0.0590 -0.5810  0.1823
  765ccc     H319871   7.060  10.667  10.974  1.4288  0.9300 -1.8864
  765ccc     H419872   6.991  10.611  10.691  0.1187  0.0657  0.6621
  765ccc     H519873   6.901  10.421  10.883  1.2027  0.0641 -1.6375
  765ccc     O119874   6.931  10.466  11.086  0.0600 -0.4102  0.1164
  765ccc     O219875   6.859  10.688  10.919 -0.5016  0.5101 -0.0290
  765ccc     O319876   7.089  10.781  10.765  0.4049 -0.1144  0.1425
  765ccc     O419877   7.286  10.618  10.848 -0.7604  0.2499 -0.2891
  765ccc     C619878   7.280  10.324  10.808 -0.1768  0.4807  0.2904
  765ccc     H619879   7.178  10.783  10.805 -0.1683 -2.3403  1.6834
  765ccc     H719880   7.349  10.547  10.867  0.4418  1.4718  0.4374
  765ccc     H819881   6.857  10.696  11.016  3.2330 -1.4633  0.4018
  765ccc     H919882   7.327  10.314  10.710 -1.4654 -1.4573 -0.1891
  765ccc    H1019883   7.247  10.222  10.830  0.4253 -0.2135 -1.8150
  765ccc     O519884   7.371  10.356  10.908  0.3386 -0.1267 -0.5431
  765ccc    H1119885   7.447  10.297  10.894 -0.1396 -0.8087 -0.3075
  765ccc     O619886   7.097  10.411  10.934 -0.2191  0.6538  0.2901
  766ccc     C119887   7.051   9.635  11.685 -0.1819 -0.1360 -0.0158
  766ccc     C219888   7.196   9.590  11.721  0.3697  0.4015  0.4642
  766ccc     H119889   7.030   9.608  11.581  1.6981  0.9839 -0.7517
  766ccc     H219890   7.186   9.481  11.718 -1.5370  0.5205  0.9805
  766ccc     C319891   7.293   9.639  11.612  0.0741 -0.6146  0.2436
  766ccc     C419892   7.289   9.798  11.608 -0.0071  0.0709  0.1244
  766ccc     C519893   7.143   9.845  11.593  1.1933  0.2395  0.8576
  766ccc     H319894   7.344   9.833  11.697  1.1395  0.2815 -0.6403
  766ccc     H419895   7.244   9.606  11.520  0.1432 -2.7797  0.9279
  766ccc     H519896   7.107   9.833  11.490  1.9205  2.7417  0.2615
  766ccc     O119897   7.141   9.986  11.614  0.4511  0.5005  0.2266
  766ccc     O219898   7.362   9.852  11.495 -0.2247 -0.4963 -0.6215
  766ccc     O319899   7.429   9.590  11.623  0.1221 -0.7318  0.5046
  766ccc     O419900   7.234   9.632  11.848 -0.1026 -0.1255 -0.8294
  766ccc     C619901   6.949   9.578  11.784  0.0420  0.1097  0.7860
  766ccc     H619902   7.439   9.512  11.680  3.0200 -0.2338  0.8420
  766ccc     H719903   7.151   9.615  11.897 -0.3608 -2.1642 -1.8647
  766ccc     H819904   7.375   9.948  11.508  0.8014 -0.6625 -0.3473
  766ccc     H919905   6.942   9.470  11.766 -0.2982  0.4976 -1.7939
  766ccc    H1019906   6.847   9.616  11.768  0.0644  0.1500  0.7416
  766ccc     O519907   6.987   9.605  11.917 -0.0100 -0.0589  0.1965
  766ccc    H1119908   6.913   9.570  11.970  1.6088 -2.5189  1.0234
  766ccc     O619909   7.044   9.781  11.682 -0.2055 -0.8701 -0.0936
  767SOL     OW19910   7.329   0.297   6.458  0.0121  0.1909  0.1682
  767SOL    HW119911   7.243   0.261   6.436  0.6158 -1.1118 -0.1850
  767SOL    HW219912   7.350   0.257   6.543  1.3689 -1.6418 -0.9494
  768SOL     OW19913   4.781  10.998   8.659 -0.3616  0.1751  0.5261
  768SOL    HW119914   4.755  11.078   8.705  0.9887  0.8413  0.1747
  768SOL    HW219915   4.868  10.977   8.694  0.6797  0.6654 -1.6492
  769SOL     OW19916   1.561  14.019  12.153  0.3990 -0.1323  0.3452
  769SOL    HW119917   1.519  13.981  12.230 -0.0105 -0.4016 -0.0122
  769SOL    HW219918   1.519  14.104  12.142  0.0352 -0.3506  0.0605
  770SOL     OW19919   9.535  13.908  10.225 -0.1981  0.0646 -0.5935
  770SOL    HW119920   9.567  13.982  10.173 -0.8892  0.1370 -0.9248
  770SOL    HW219921   9.611  13.850  10.233  0.4364  0.9486 -0.0584
  771SOL     OW19922   9.058  13.487   7.454  0.1503  0.7624 -0.4147
  771SOL    HW119923   9.099  13.451   7.533 -1.3698  1.2600  0.6529
  771SOL    HW219924   9.103  13.443   7.381  2.1456  0.8988  0.6812
  772SOL     OW19925  13.447  12.194   8.068  0.0361 -0.0861  0.0696
  772SOL    HW119926  13.522  12.249   8.045 -1.1003  1.3075 -0.4479
  772SOL    HW219927  13.391  12.195   7.990 -1.6976  0.9521  1.2552
  773SOL     OW19928   2.564  11.061   3.923 -0.4920  0.5689 -0.0253
  773SOL    HW119929   2.589  11.136   3.977 -0.0188  0.9030 -0.6968
  773SOL    HW219930   2.586  10.984   3.976  3.1198  0.7794 -0.9528
  774SOL     OW19931   8.194  11.438   3.511 -0.5270 -0.1461  0.3072
  774SOL    HW119932   8.171  11.441   3.418  0.4304 -1.1835  0.0138
  774SOL    HW219933   8.114  11.407   3.554 -1.5589  2.0201  0.0952
  775SOL     OW19934   6.458   1.346  12.302 -0.5810 -0.2337 -0.2624
  775SOL    HW119935   6.389   1.379  12.244  0.4410  0.3144 -1.2064
  775SOL    HW219936   6.442   1.390  12.386  0.4483  2.3757 -1.3469
  776SOL     OW19937   0.574  10.598  10.231 -0.1638 -0.4396 -0.4351
  776SOL    HW119938   0.529  10.536  10.287  0.0058  1.0607  1.4645
  776SOL    HW219939   0.507  10.628  10.169 -0.9798 -0.4833  0.4118
  777SOL     OW19940   8.930  13.664   8.484 -0.2165  0.7892  0.0819
  777SOL    HW119941   9.006  13.679   8.539 -0.7685 -1.4380  1.6085
  777SOL    HW219942   8.856  13.698   8.534 -0.6921 -0.9815  0.6454
  778SOL     OW19943  13.418   0.115   4.785 -0.2493  0.5993  0.1171
  778SOL    HW119944  13.347   0.169   4.818  0.6879  2.2164 -0.4114
  778SOL    HW219945  13.381   0.027   4.780 -1.9797  1.2713  0.5261
  779SOL     OW19946   5.891   8.847   6.723 -0.3784 -0.5021  0.5866
  779SOL    HW119947   5.885   8.838   6.628 -0.1695  1.8588  0.2914
  779SOL    HW219948   5.896   8.757   6.755 -2.6241 -1.4726 -1.4501
  780SOL     OW19949   5.932   0.719   8.262  0.3457 -0.2966  0.0803
  780SOL    HW119950   5.865   0.775   8.301  0.8510 -1.1739  2.3653
  780SOL    HW219951   5.946   0.756   8.175 -2.6935  0.2421 -0.2925
  781SOL     OW19952   6.767   6.093   2.464 -0.0978  0.0884 -0.2307
  781SOL    HW119953   6.675   6.084   2.438 -0.2629  0.4724  0.1989
  781SOL    HW219954   6.800   6.003   2.466 -0.7884 -0.1624  0.7414
  782SOL     OW19955   9.911   2.023  10.200 -0.5668  0.3909 -0.2201
  782SOL    HW119956   9.865   2.031  10.283 -0.8340 -1.1182 -0.1990
  782SOL    HW219957   9.897   1.932  10.173  0.9979  0.3550 -1.0355
  783SOL     OW19958   5.647  13.124  12.854  0.3753  0.1449 -0.3837
  783SOL    HW119959   5.604  13.049  12.896  0.5690  0.2004 -0.0851
  783SOL    HW219960   5.738  13.120  12.883 -0.1996  2.1652  2.0718
  784SOL     OW19961  13.093  11.002   6.974  0.9286  0.2608 -0.1107
  784SOL    HW119962  13.004  11.011   6.941  0.3146  1.9227  1.8020
  784SOL    HW219963  13.103  10.907   6.988 -0.7180  0.0779  0.0755
  785SOL     OW19964   5.876   2.307   6.134  0.3452 -0.7859  0.4679
  785SOL    HW119965   5.866   2.226   6.183  1.0899  0.1181  2.1770
  785SOL    HW219966   5.962   2.340   6.158 -1.1664  2.1693  2.4454
  786SOL     OW19967   6.377   3.407  10.000 -0.3224  0.1814 -0.2713
  786SOL    HW119968   6.414   3.345   9.938 -1.0776  0.2697 -0.8333
  786SOL    HW219969   6.285   3.416   9.972 -0.2376  1.5098 -0.1745
  787SOL     OW19970   2.372   8.201   7.040 -0.3421 -0.4643  0.0982
  787SOL    HW119971   2.441   8.175   6.980  0.7681  0.2658  1.0221
  787SOL    HW219972   2.368   8.131   7.105  1.3899  0.6835  1.5411
  788SOL     OW19973   1.309  13.045   8.371 -0.2897  0.6043  0.1779
  788SOL    HW119974   1.248  13.028   8.299 -3.0207  3.0006  1.7476
  788SOL    HW219975   1.312  12.962   8.419 -0.4597 -0.2481 -1.2098
  789SOL     OW19976   8.507   4.943   4.777  0.6546 -0.0140 -0.0390
  789SOL    HW119977   8.440   4.986   4.830  1.7450  0.2861  1.1357
  789SOL    HW219978   8.497   4.850   4.798 -1.4063 -0.3791 -2.2400
  790SOL     OW19979   0.484   1.157  12.598 -0.1621 -0.0102 -0.2504
  790SOL    HW119980   0.566   1.167  12.647 -0.8095  1.9376  0.5626
  790SOL    HW219981   0.419   1.202  12.652 -1.8058 -1.5702 -0.8442
  791SOL     OW19982   8.570   0.577   1.162  0.1939 -0.4928  0.0904
  791SOL    HW119983   8.649   0.523   1.158 -0.5054 -1.4549 -1.3962
  791SOL    HW219984   8.523   0.545   1.239  1.0238 -0.1966  0.7425
  792SOL     OW19985   9.027  10.330   6.973 -0.3610 -0.2560  0.2410
  792SOL    HW119986   8.957  10.395   6.975  0.3077  0.6197 -1.6849
  792SOL    HW219987   9.099  10.374   6.929  1.7527 -0.8596  2.8391
  793SOL     OW19988   4.768   9.831   9.532  0.3025  0.1503  0.1129
  793SOL    HW119989   4.791   9.899   9.468 -0.4865 -0.7941 -1.2367
  793SOL    HW219990   4.849   9.817   9.581  1.0412  0.7001 -0.8956
  794SOL     OW19991   5.866   1.738   3.449 -0.4885 -0.8118  0.0298
  794SOL    HW119992   5.909   1.821   3.429 -0.6145 -0.2091  2.0558
  794SOL    HW219993   5.937   1.681   3.479 -0.4712 -1.3325 -0.9372
  795SOL     OW19994  12.904   0.717  10.537 -0.2462  0.4229 -0.4963
  795SOL    HW119995  12.853   0.677  10.608 -2.5772 -2.0182 -3.2829
  795SOL    HW219996  12.984   0.665  10.533 -1.1562 -0.9891 -1.0668
  796SOL     OW19997  12.014   8.229   8.582 -0.0304 -0.1596  0.1847
  796SOL    HW119998  11.975   8.316   8.578 -0.2174 -0.2551 -0.1224
  796SOL    HW219999  11.939   8.169   8.581  0.1233 -0.3487 -0.5081
  797SOL     OW20000  13.755   5.269   8.300 -0.2283 -0.1679 -0.1436
  797SOL    HW120001  13.662   5.295   8.302  0.1163  1.4931 -2.0148
  797SOL    HW220002  13.768   5.235   8.212  0.8289 -0.9534  0.3027
  798SOL     OW20003   3.831   9.124   8.352 -0.4954  0.3609 -0.5780
  798SOL    HW120004   3.853   9.145   8.262 -1.8978 -0.3706 -1.1320
  798SOL    HW220005   3.779   9.198   8.382  1.9667  1.7737  0.5069
  799SOL     OW20006   1.712   4.777   2.354 -0.5455 -0.0898 -0.0484
  799SOL    HW120007   1.745   4.764   2.265 -1.7046 -1.7758 -0.2659
  799SOL    HW220008   1.617   4.778   2.344 -0.6865 -0.1975  1.1638
  800SOL     OW20009   1.572   0.690   4.280  0.0765  0.4173 -0.6431
  800SOL    HW120010   1.493   0.728   4.242  0.7533  1.3860 -1.1419
  800SOL    HW220011   1.541   0.630   4.347 -1.1033  0.1161 -1.4334
  801SOL     OW20012   0.644   3.297  11.580 -0.6175  0.5730 -0.3938
  801SOL    HW120013   0.623   3.224  11.523  2.0725  0.7510 -1.7612
  801SOL    HW220014   0.677   3.257  11.661 -0.6595  0.2928 -0.5183
  802SOL     OW20015   3.486  12.438   5.359  0.4999  0.6302 -0.0067
  802SOL    HW120016   3.519  12.363   5.310  0.3364 -0.2716  1.1998
  802SOL    HW220017   3.455  12.400   5.442  2.0471  2.2137  1.4023
  803SOL     OW20018  10.297  13.649  10.497 -0.3218 -0.8016  0.1021
  803SOL    HW120019  10.353  13.628  10.572  0.0680  2.2796  0.8432
  803SOL    HW220020  10.268  13.565  10.464  4.0311 -2.6189  0.2182
  804SOL     OW20021  10.748   1.839  11.111 -0.3831  0.1571 -0.4836
  804SOL    HW120022  10.786   1.797  11.188 -1.2009 -2.0336 -1.1818
  804SOL    HW220023  10.813   1.829  11.043 -0.3319  0.6222 -0.5082
  805SOL     OW20024   1.223  11.029   8.008  0.6620 -0.5114 -0.7923
  805SOL    HW120025   1.127  11.024   8.005  0.6693 -0.3232 -2.4818
  805SOL    HW220026   1.246  10.988   8.091 -0.9159  0.1711  0.0391
  806SOL     OW20027  11.523   4.040   8.845 -0.3508  0.0575  0.1006
  806SOL    HW120028  11.609   4.040   8.803 -0.0173  0.6207  0.7745
  806SOL    HW220029  11.498   4.132   8.848  0.2743  0.2100  2.4053
  807SOL     OW20030  10.537   6.482  12.752  0.5495 -0.0142 -0.9533
  807SOL    HW120031  10.483   6.421  12.803 -0.6023  1.1623 -0.7207
  807SOL    HW220032  10.554   6.555  12.811  2.5484 -0.4048 -0.9785
  808SOL     OW20033   2.471  10.088  12.045 -0.5685  1.1563  0.0319
  808SOL    HW120034   2.458  10.030  11.970  3.3833 -0.4381  0.3465
  808SOL    HW220035   2.476  10.176  12.006 -0.4325  0.5740 -1.3313
  809SOL     OW20036   8.471  12.327   0.877  0.0844  0.1322 -0.1568
  809SOL    HW120037   8.492  12.368   0.794  0.6437 -0.6107 -0.3997
  809SOL    HW220038   8.481  12.233   0.861  0.2881 -0.0220  0.7608
  810SOL     OW20039   7.379   4.479   1.761 -0.2645 -0.7246 -0.5501
  810SOL    HW120040   7.357   4.500   1.852  0.4230  0.1592 -0.5690
  810SOL    HW220041   7.299   4.497   1.712  0.0543  1.1709 -0.4459
  811SOL     OW20042  11.797   8.618   0.911 -0.1402  0.1094 -0.0203
  811SOL    HW120043  11.871   8.638   0.853  0.2214 -0.8718  0.0914
  811SOL    HW220044  11.805   8.682   0.982 -0.8160  1.5888 -1.2141
  812SOL     OW20045   0.479   4.164  11.525 -0.1092  0.2859  0.5047
  812SOL    HW120046   0.404   4.148  11.582 -0.1143 -0.5804  0.2691
  812SOL    HW220047   0.506   4.077  11.496 -0.5707  0.7331 -1.3991
  813SOL     OW20048  10.848   8.747   2.048 -0.0887 -0.0166 -0.3787
  813SOL    HW120049  10.803   8.712   2.124 -2.2895  0.0944 -1.5533
  813SOL    HW220050  10.785   8.740   1.977  1.5444  0.7707 -2.0019
  814SOL     OW20051   9.173   3.988   1.698 -0.4385 -0.1093  0.3674
  814SOL    HW120052   9.108   3.995   1.628 -1.6492 -0.1398  1.4417
  814SOL    HW220053   9.124   3.951   1.772  0.5545  0.7867  1.5168
  815SOL     OW20054   6.465  10.414   6.059  0.4067 -0.0227  0.5525
  815SOL    HW120055   6.449  10.499   6.020  2.2534 -0.5687 -1.5653
  815SOL    HW220056   6.480  10.433   6.152  1.4645  2.0712  0.0152
  816SOL     OW20057   0.362   1.403   5.577  0.5554 -0.4630 -0.3431
  816SOL    HW120058   0.328   1.488   5.606 -0.8617 -0.6894 -1.2603
  816SOL    HW220059   0.451   1.400   5.613 -0.1451  0.4262  1.6190
  817SOL     OW20060   4.862   2.403  10.360  0.4104  0.1136 -0.6296
  817SOL    HW120061   4.891   2.489  10.328  0.6359  0.3473  0.1856
  817SOL    HW220062   4.767   2.411  10.367  0.6199  1.3770  2.3732
  818SOL     OW20063   0.181   3.148  10.908 -0.3840  0.3670 -0.5442
  818SOL    HW120064   0.132   3.230  10.903  0.4649  0.8845 -0.6103
  818SOL    HW220065   0.268   3.174  10.939 -0.2719 -0.5849 -0.0227
  819SOL     OW20066   8.729   4.500   4.719  0.4199 -0.4733  0.0252
  819SOL    HW120067   8.747   4.449   4.640  0.4748  0.9009 -0.8798
  819SOL    HW220068   8.808   4.552   4.732  0.5033 -0.8624  1.1349
  820SOL     OW20069   5.878  12.968   9.765  0.0813 -0.1218  0.2453
  820SOL    HW120070   5.960  13.001   9.800  0.7817 -0.1194 -1.3420
  820SOL    HW220071   5.898  12.879   9.734 -0.3444  0.0867 -0.6715
  821SOL     OW20072   5.390   2.175   1.710  0.2772  0.6412  0.0075
  821SOL    HW120073   5.429   2.105   1.658 -0.5198  0.6437 -0.6039
  821SOL    HW220074   5.296   2.163   1.700  0.1258  1.8719 -0.2021
  822SOL     OW20075   0.357   9.424  12.203 -0.0029  0.3229 -0.0006
  822SOL    HW120076   0.421   9.417  12.132 -0.0584 -0.3893  0.0186
  822SOL    HW220077   0.278   9.458  12.160  0.2638  0.8334 -0.0923
  823SOL     OW20078   3.519   6.191   5.242  0.1351  0.2363  0.2292
  823SOL    HW120079   3.532   6.141   5.162 -2.0614 -1.6366  0.9472
  823SOL    HW220080   3.607   6.204   5.277  1.1785  1.3999 -2.5850
  824SOL     OW20081   1.680  11.372   8.160 -0.1105  0.1723 -0.1818
  824SOL    HW120082   1.743  11.322   8.212  1.2568  1.9700  0.0089
  824SOL    HW220083   1.637  11.307   8.105  1.1273 -1.2692  0.4758
  825SOL     OW20084   7.450   6.441   2.383  0.2806 -0.2647 -0.1253
  825SOL    HW120085   7.475   6.521   2.428  0.5490  0.2501 -1.1604
  825SOL    HW220086   7.473   6.456   2.291 -1.5951 -0.6878 -0.7205
  826SOL     OW20087   3.035   0.164  13.534 -0.1929 -0.0291  0.0314
  826SOL    HW120088   3.092   0.241  13.525  0.0810 -0.4075 -1.7425
  826SOL    HW220089   3.086   0.103  13.588  1.2172 -0.4286 -1.6530
  827SOL     OW20090   9.585  13.908   1.099  0.0755 -0.6682 -0.3892
  827SOL    HW120091   9.497  13.923   1.134  0.3944 -1.6640  0.9079
  827SOL    HW220092   9.616  13.995   1.074 -2.0771 -0.5036 -2.9291
  828SOL     OW20093   6.576  13.777  10.661  0.1808 -0.2754  0.2473
  828SOL    HW120094   6.536  13.862  10.643  0.7850 -0.4263 -2.1190
  828SOL    HW220095   6.521  13.739  10.729 -2.0924  0.6306 -0.9941
  829SOL     OW20096   0.609   2.262   3.614 -0.3947 -0.0128 -0.3736
  829SOL    HW120097   0.646   2.205   3.681 -2.1751 -0.7408  0.0506
  829SOL    HW220098   0.676   2.267   3.546 -0.3892 -3.1106 -0.7265
  830SOL     OW20099   1.650  11.327   2.116  0.0514  1.1258 -0.1236
  830SOL    HW120100   1.738  11.291   2.104 -0.9721 -1.8492  0.4430
  830SOL    HW220101   1.642  11.339   2.210 -0.2217  1.1217 -0.1453
  831SOL     OW20102   8.961  10.045   3.166 -0.1460 -0.4804 -1.0018
  831SOL    HW120103   9.008  10.118   3.206 -0.0421 -1.1283  0.1227
  831SOL    HW220104   8.960  10.065   3.073  2.1382 -0.3118 -1.0480
  832SOL     OW20105  11.313   4.089   4.353 -0.3203  0.4177 -0.1458
  832SOL    HW120106  11.320   4.178   4.319 -0.5632  0.8703  0.9496
  832SOL    HW220107  11.370   4.088   4.429  0.0027 -0.4984 -0.3858
  833SOL     OW20108  11.781   8.957   0.588  0.2769  0.6302  0.1249
  833SOL    HW120109  11.812   9.012   0.659 -2.5585  2.3361  0.1929
  833SOL    HW220110  11.803   9.006   0.508  0.7155  0.2210 -0.0089
  834SOL     OW20111  11.857   9.401   6.966  0.4965 -0.2397  0.0988
  834SOL    HW120112  11.910   9.478   6.944 -0.2276 -0.1906 -1.6699
  834SOL    HW220113  11.919   9.340   7.005  1.7048  0.1536 -1.1008
  835SOL     OW20114  13.241   9.669   6.943  0.0388  0.0713  0.1593
  835SOL    HW120115  13.335   9.689   6.945  0.2671 -0.7318 -1.0483
  835SOL    HW220116  13.226   9.634   6.855 -1.4872  0.5735  0.1881
  836SOL     OW20117   0.304   5.790   8.910  0.4894 -0.2400 -0.2855
  836SOL    HW120118   0.387   5.836   8.898  0.5323  0.4394  2.1827
  836SOL    HW220119   0.314   5.709   8.859  1.6030  1.0068 -2.1746
  837SOL     OW20120   9.734   0.059   0.662 -0.0695  0.0969 -0.3840
  837SOL    HW120121   9.658   0.116   0.651 -0.9762 -0.7763  0.9629
  837SOL    HW220122   9.807   0.109   0.627 -1.3001  0.8285 -2.0562
  838SOL     OW20123   5.568  13.411  14.033 -0.2996  0.0496 -0.4721
  838SOL    HW120124   5.556  13.506  14.037 -1.6856 -0.1525  1.8080
  838SOL    HW220125   5.663  13.399  14.037  0.0389  1.3158 -2.6605
  839SOL     OW20126   4.384  11.740   0.048  0.2870  0.2437  0.5729
  839SOL    HW120127   4.426  11.793  -0.020 -1.6211  1.1883  0.0843
  839SOL    HW220128   4.424  11.653   0.037  1.5919  0.9179 -0.3109
  840SOL     OW20129  13.985   3.114   1.157 -0.1239  0.3036  0.3062
  840SOL    HW120130  14.005   3.120   1.064 -0.9058 -0.8144  0.0592
  840SOL    HW220131  13.963   3.204   1.182  0.5634  0.7032 -0.4624
  841SOL     OW20132   1.970   4.548   6.937  0.3858  0.2785  0.4068
  841SOL    HW120133   2.057   4.545   6.895 -0.3211  0.6757 -1.1645
  841SOL    HW220134   1.921   4.477   6.895 -0.3503  0.6859  0.5657
  842SOL     OW20135   5.103   6.227   6.229  0.3140  0.2282  0.0220
  842SOL    HW120136   5.094   6.182   6.313  1.4875 -1.1867 -0.5503
  842SOL    HW220137   5.017   6.265   6.213 -0.5210 -1.1569  0.9510
  843SOL     OW20138   5.996  11.613   9.630  0.1197 -0.3162 -0.4209
  843SOL    HW120139   5.901  11.616   9.630  0.0891  0.7762 -2.8272
  843SOL    HW220140   6.018  11.529   9.672 -1.8326 -0.3593  0.6315
  844SOL     OW20141   5.052   8.245  13.285  0.2764 -0.1723 -0.3897
  844SOL    HW120142   4.991   8.318  13.299  1.4638  0.8991 -0.5362
  844SOL    HW220143   5.084   8.257  13.196 -0.5856 -1.7526 -0.9454
  845SOL     OW20144  13.602   2.612   9.765 -0.1046  0.1853 -0.2370
  845SOL    HW120145  13.660   2.687   9.756 -1.9775  1.6702 -0.6494
  845SOL    HW220146  13.655   2.545   9.808  1.7950  1.5327 -0.3691
  846SOL     OW20147  13.250  11.931   4.594  0.0904 -0.2073  0.2773
  846SOL    HW120148  13.158  11.957   4.596 -0.1938 -1.1636  0.2787
  846SOL    HW220149  13.284  11.970   4.513 -0.2205  0.4254  0.4422
  847SOL     OW20150  13.653   6.369   7.085 -0.0494  0.1696  0.1617
  847SOL    HW120151  13.711   6.356   7.010 -0.6566  0.3907 -0.3625
  847SOL    HW220152  13.598   6.444   7.060  0.6513  1.1251  1.4114
  848SOL     OW20153   7.712   8.993   2.672 -0.1753 -0.0977 -0.2752
  848SOL    HW120154   7.795   9.042   2.670  0.2876 -0.1184  4.8457
  848SOL    HW220155   7.735   8.909   2.710 -2.6805  0.8797  4.0036
  849SOL     OW20156  10.148   7.926   1.869  0.2923  0.0683  0.0770
  849SOL    HW120157  10.073   7.880   1.907 -0.1562  0.7081 -0.0073
  849SOL    HW220158  10.203   7.856   1.832 -0.5881 -0.3731 -0.4364
  850SOL     OW20159   3.488  10.779   3.776 -0.1972 -0.3807  0.0982
  850SOL    HW120160   3.506  10.714   3.845  0.2747 -1.4512 -0.9957
  850SOL    HW220161   3.545  10.753   3.704 -1.6208 -0.0692 -1.1827
  851SOL     OW20162   5.483   4.458   7.837  0.0929  0.3013 -0.1911
  851SOL    HW120163   5.560   4.462   7.893  1.0639  1.4089 -1.5301
  851SOL    HW220164   5.423   4.523   7.874  0.0582 -0.0924  0.4606
  852SOL     OW20165   8.624   5.355  11.981  0.4616 -0.1653  0.1100
  852SOL    HW120166   8.648   5.388  12.067 -0.5884 -1.8274  1.0884
  852SOL    HW220167   8.671   5.272  11.973 -0.0641 -0.4070 -0.5991
  853SOL     OW20168   7.504  13.636   8.881 -0.0539 -0.3245  0.0507
  853SOL    HW120169   7.576  13.586   8.921  0.3260  0.2017  0.0289
  853SOL    HW220170   7.500  13.717   8.931  0.7241  0.5504 -1.2474
  854SOL     OW20171  12.773   8.468   5.821  0.7839 -0.0629 -0.1516
  854SOL    HW120172  12.834   8.428   5.883  1.1914  0.1950 -0.3848
  854SOL    HW220173  12.740   8.395   5.769 -1.5552 -0.7015  2.0337
  855SOL     OW20174   2.893   2.599  13.119 -0.2378  0.6581  0.0741
  855SOL    HW120175   2.916   2.554  13.200 -1.5173 -1.7100 -0.7866
  855SOL    HW220176   2.821   2.547  13.082  0.9977  1.0026 -3.1066
  856SOL     OW20177  12.290   2.941   3.893 -0.0689 -0.0205  0.1315
  856SOL    HW120178  12.260   3.005   3.829  0.0352 -1.8657 -1.8762
  856SOL    HW220179  12.385   2.950   3.894 -0.2045  2.1498  2.4817
  857SOL     OW20180   0.750   9.034   7.359  0.4698  0.0891  0.3144
  857SOL    HW120181   0.671   9.089   7.358  0.3899 -0.0017  0.9977
  857SOL    HW220182   0.724   8.958   7.411  0.5798 -0.5990 -0.6167
  858SOL     OW20183   3.725   6.198   3.610 -0.5943  0.4687  0.4662
  858SOL    HW120184   3.658   6.145   3.567 -1.9199  0.6582  2.1708
  858SOL    HW220185   3.806   6.177   3.564 -1.9199  0.9192 -2.2972
  859SOL     OW20186   4.080   1.211   1.121  1.0833  0.4282 -0.1065
  859SOL    HW120187   4.006   1.216   1.180 -3.0110 -0.9610 -4.4957
  859SOL    HW220188   4.081   1.295   1.075  0.6316 -0.3854 -1.6725
  860SOL     OW20189   4.018   4.140   2.749 -0.2198 -0.0029 -0.3919
  860SOL    HW120190   3.956   4.194   2.700  0.3480 -0.3994 -1.5666
  860SOL    HW220191   4.102   4.186   2.741 -0.1026 -0.1005  0.1804
  861SOL     OW20192   9.571  12.115   8.429  0.3183  0.4899  0.4775
  861SOL    HW120193   9.637  12.073   8.373  0.9730  1.0632  0.8094
  861SOL    HW220194   9.577  12.208   8.407 -0.2933  0.5649  0.6089
  862SOL     OW20195   2.411   5.705   4.041  0.3386 -0.2985  0.0863
  862SOL    HW120196   2.335   5.735   4.091  1.4723 -0.2202  1.8760
  862SOL    HW220197   2.380   5.629   3.993 -1.1164  0.3349 -0.0312
  863SOL     OW20198   5.054   8.169   1.091 -0.2919 -0.1744 -0.0609
  863SOL    HW120199   5.051   8.263   1.107 -0.9243 -0.5224  2.1727
  863SOL    HW220200   4.973   8.136   1.130  0.4501 -1.7849  0.1789
  864SOL     OW20201   6.097   2.942   8.868 -0.0078 -0.0333 -0.1924
  864SOL    HW120202   6.166   2.883   8.839  0.9507  1.0448 -0.1927
  864SOL    HW220203   6.123   3.028   8.834 -0.7671  0.5967  0.7566
  865SOL     OW20204  13.566   6.118   7.140 -0.3668  0.1513  1.0797
  865SOL    HW120205  13.582   6.206   7.104  0.1299  1.5455  4.3593
  865SOL    HW220206  13.646   6.069   7.121  0.2919  1.1641  1.1608
  866SOL     OW20207  13.174  12.663   1.278  0.1866 -0.0323  0.4606
  866SOL    HW120208  13.164  12.694   1.368 -1.3870  0.9305 -0.0092
  866SOL    HW220209  13.129  12.728   1.225  2.9276  0.6127 -1.2852
  867SOL     OW20210  13.870  11.734   8.907 -0.0329 -0.4797  0.0043
  867SOL    HW120211  13.897  11.678   8.834 -1.0528  1.3593 -1.8911
  867SOL    HW220212  13.919  11.815   8.896 -1.8241  0.6751 -0.0457
  868SOL     OW20213   4.516  10.642  14.021  0.0459  0.2378  0.7915
  868SOL    HW120214   4.424  10.666  14.032 -0.0392 -0.4592  1.7502
  868SOL    HW220215   4.530  10.644  13.926 -0.0335  3.6014  0.7434
  869SOL     OW20216   6.682   2.809   6.448 -0.1313  0.4636 -0.4677
  869SOL    HW120217   6.675   2.900   6.476  1.9862  0.1123  1.4863
  869SOL    HW220218   6.652   2.758   6.524 -0.4035 -0.4916 -1.1955
  870SOL     OW20219   1.874   3.412   0.053 -0.3422  0.1640 -0.0503
  870SOL    HW120220   1.863   3.505   0.076 -2.6294  0.4333 -1.8427
  870SOL    HW220221   1.908   3.414  -0.036  1.7162 -0.7892  0.6682
  871SOL     OW20222   2.824   5.228  11.741  0.4550  0.2439  0.6027
  871SOL    HW120223   2.833   5.144  11.697  0.9422  0.9538 -0.7154
  871SOL    HW220224   2.737   5.226  11.782  0.0128 -0.4639 -0.3624
  872SOL     OW20225   7.318   9.142   3.455  0.6439  0.3190 -0.3713
  872SOL    HW120226   7.325   9.133   3.550  1.0638 -3.6519 -0.6356
  872SOL    HW220227   7.224   9.135   3.437  0.6909 -0.4487 -0.3334
  873SOL     OW20228   5.416   6.127   5.533 -0.0611 -0.0404 -0.2796
  873SOL    HW120229   5.327   6.154   5.557 -0.0979 -0.2782 -0.1414
  873SOL    HW220230   5.432   6.050   5.587  0.4696  0.3651  0.1430
  874SOL     OW20231  10.285  12.687   5.843 -0.8132 -0.1225  0.7159
  874SOL    HW120232  10.309  12.760   5.786  0.3916 -1.3435 -0.4099
  874SOL    HW220233  10.290  12.723   5.932 -0.1682  1.1436  0.1870
  875SOL     OW20234  10.765   9.663   5.922 -0.0578  0.1663  0.1886
  875SOL    HW120235  10.714   9.583   5.908 -0.1344  0.0347  1.1057
  875SOL    HW220236  10.800   9.685   5.836  0.3875 -1.1384  0.0132
  876SOL     OW20237   0.520   0.767   0.719  0.5041 -0.2719 -0.4212
  876SOL    HW120238   0.574   0.705   0.669 -0.3968 -2.0894  0.7444
  876SOL    HW220239   0.535   0.744   0.810 -3.5775 -2.2363 -0.0331
  877SOL     OW20240  12.430   0.690   5.699  0.6196 -0.0881 -0.0274
  877SOL    HW120241  12.414   0.596   5.707  0.4548  0.0407  1.3681
  877SOL    HW220242  12.431   0.706   5.605  0.4067 -1.4439 -0.2813
  878SOL     OW20243  12.534   8.728  11.306 -0.1653 -0.8826  0.1537
  878SOL    HW120244  12.565   8.661  11.245  1.5281 -0.1890  0.1821
  878SOL    HW220245  12.558   8.695  11.393  1.1965 -0.0502  0.1357
  879SOL     OW20246   5.097  10.992   7.571 -0.1368  0.0681  0.2542
  879SOL    HW120247   5.093  10.998   7.476  1.2842 -3.2608 -0.1590
  879SOL    HW220248   5.020  11.039   7.602 -0.6343  1.2338 -2.5182
  880SOL     OW20249   8.542   1.343   2.503 -0.5387 -0.0418 -0.7060
  880SOL    HW120250   8.592   1.341   2.422 -0.1478  3.0215 -0.6492
  880SOL    HW220251   8.561   1.428   2.542 -1.4516 -0.9957  2.1660
  881SOL     OW20252   9.155   6.957   9.689  0.6307 -0.1505  0.2160
  881SOL    HW120253   9.094   7.003   9.746 -0.1727 -0.2688 -0.5261
  881SOL    HW220254   9.126   6.980   9.600  1.9394  0.1453 -0.1483
  882SOL     OW20255   3.520   0.106  13.088  0.0001  0.1898  0.0564
  882SOL    HW120256   3.524   0.142  13.176  1.0324  0.3278 -0.0347
  882SOL    HW220257   3.597   0.050  13.081  0.0631  0.3677 -0.8404
  883SOL     OW20258  11.639   0.974   6.195 -0.0970  0.1886  0.1892
  883SOL    HW120259  11.566   0.943   6.143 -0.0854  0.2443  0.1393
  883SOL    HW220260  11.699   0.899   6.201  1.4888  1.0792 -2.6593
  884SOL     OW20261   2.834  11.627   4.605  0.5591  0.2884  0.1845
  884SOL    HW120262   2.777  11.554   4.583  0.2222  1.0502 -1.6538
  884SOL    HW220263   2.919  11.603   4.569  0.7861  0.2515  0.7288
  885SOL     OW20264   7.033   1.754  10.164  0.3739  0.4392  0.5274
  885SOL    HW120265   7.091   1.683  10.136  0.3661  0.3274  0.7957
  885SOL    HW220266   6.969   1.712  10.221 -0.3829  0.4402 -0.3039
  886SOL     OW20267   8.756   4.201  10.854  0.3225 -0.4481 -0.8368
  886SOL    HW120268   8.758   4.107  10.839  2.1917 -0.6406  0.3114
  886SOL    HW220269   8.806   4.214  10.935 -0.2908  1.4846 -0.7090
  887SOL     OW20270   6.243  11.062   9.222  0.3507 -0.0337  0.1954
  887SOL    HW120271   6.321  11.118   9.213 -1.1082  2.2608  0.9501
  887SOL    HW220272   6.229  11.027   9.135  0.3040  2.3310 -0.8368
  888SOL     OW20273   7.010  12.923   8.701  0.2458  0.4631 -0.0885
  888SOL    HW120274   6.950  12.956   8.634  0.3113  0.6422 -0.0600
  888SOL    HW220275   7.035  13.001   8.752 -1.1961  0.0764  1.2728
  889SOL     OW20276   1.435   6.546   1.888 -0.3221  0.1253  0.1072
  889SOL    HW120277   1.397   6.577   1.970  0.6494 -0.6179  0.8681
  889SOL    HW220278   1.399   6.458   1.876 -1.0104  0.5015 -0.6449
  890SOL     OW20279   0.501   9.400  12.900 -0.2584 -0.0610 -0.3074
  890SOL    HW120280   0.588   9.431  12.928 -0.2250 -0.7356  0.3524
  890SOL    HW220281   0.507   9.397  12.804 -0.0116  1.2279 -0.3567
  891SOL     OW20282   4.451   8.163   1.602  0.2184 -0.6314 -0.2276
  891SOL    HW120283   4.519   8.133   1.541 -0.3039  1.8554 -2.2048
  891SOL    HW220284   4.373   8.113   1.577  0.7583 -1.9371  0.6102
  892SOL     OW20285   8.800  13.200   2.607 -0.2243  0.0278  0.1452
  892SOL    HW120286   8.783  13.198   2.512  0.1402 -1.3492  0.0972
  892SOL    HW220287   8.895  13.191   2.615  0.3525  4.2887  0.5475
  893SOL     OW20288   8.569   2.572  13.198  0.3618 -0.3224  0.4589
  893SOL    HW120289   8.563   2.494  13.144  0.6724 -0.6395  0.8800
  893SOL    HW220290   8.658   2.604  13.186  0.3328 -0.2095  0.5296
  894SOL     OW20291  12.016  10.891   6.430  0.0212 -0.0921 -0.1144
  894SOL    HW120292  12.052  10.926   6.348 -0.5664 -2.0040 -1.2576
  894SOL    HW220293  12.043  10.800   6.431  1.7538  0.3117  2.9093
  895SOL     OW20294   4.819   2.206   2.946 -0.0491  0.0704 -0.5169
  895SOL    HW120295   4.771   2.198   3.028  0.1883 -1.8084 -0.5051
  895SOL    HW220296   4.756   2.180   2.878  0.2676 -0.1125 -0.7441
  896SOL     OW20297   2.345   5.838   9.440 -0.7442  0.4003  0.0238
  896SOL    HW120298   2.292   5.826   9.361 -2.0054  2.8004  0.3995
  896SOL    HW220299   2.418   5.778   9.430 -3.0763 -2.5125 -0.9229
  897SOL     OW20300  10.052   1.731  10.627 -0.1326 -0.3527  0.3412
  897SOL    HW120301  10.097   1.784  10.561 -0.6281 -0.6174 -0.2178
  897SOL    HW220302   9.959   1.748  10.612 -0.2272  0.4491  1.7030
  898SOL     OW20303  11.400   0.004   1.987 -0.6458  0.1412 -0.3515
  898SOL    HW120304  11.391  -0.090   2.001 -0.1790  0.3496  1.5417
  898SOL    HW220305  11.407   0.013   1.892  0.2290 -1.8080 -0.5228
  899SOL     OW20306   7.247   0.889   6.798  0.0376 -0.4665 -0.1621
  899SOL    HW120307   7.323   0.876   6.854  0.8200 -0.3059 -1.1633
  899SOL    HW220308   7.266   0.838   6.720 -0.5180  0.2173 -0.7529
  900SOL     OW20309  12.091  13.568  13.061 -0.4030  0.3408 -0.0473
  900SOL    HW120310  12.092  13.501  13.129  0.1087  0.6345  0.2319
  900SOL    HW220311  12.130  13.645  13.101 -0.1678  0.5407 -0.6453
  901SOL     OW20312   8.965   5.657  11.118 -0.2044  0.2792  0.1215
  901SOL    HW120313   9.016   5.624  11.043 -2.2509  2.2100 -2.3102
  901SOL    HW220314   8.987   5.750  11.122 -1.8658  0.6917  0.4029
  902SOL     OW20315   2.485   0.611  10.523 -0.1919 -0.4778  0.0664
  902SOL    HW120316   2.475   0.579  10.613  0.9470 -0.1375  0.3236
  902SOL    HW220317   2.400   0.594  10.483 -1.6181  1.6668  1.9408
  903SOL     OW20318   5.763   4.272  13.619 -0.0816 -0.2668 -0.1141
  903SOL    HW120319   5.767   4.183  13.583  1.3666  0.4650 -1.8894
  903SOL    HW220320   5.722   4.323  13.550 -0.4843  0.5633  0.7190
  904SOL     OW20321   0.747   7.118  13.833  0.1789 -0.1034 -0.6857
  904SOL    HW120322   0.797   7.174  13.774 -0.4160 -0.4576 -1.5362
  904SOL    HW220323   0.721   7.043  13.780  0.0736 -0.6904  0.1652
  905SOL     OW20324  11.256   8.293   7.315 -0.3971  0.1191  0.0998
  905SOL    HW120325  11.284   8.241   7.390 -0.4499  0.4656  0.3645
  905SOL    HW220326  11.215   8.371   7.353 -1.1537 -0.0765 -0.2770
  906SOL     OW20327  12.485   8.641   9.892  0.2827  0.0781  0.3499
  906SOL    HW120328  12.561   8.609   9.843 -0.2347 -0.2435 -0.2755
  906SOL    HW220329  12.410   8.618   9.836 -0.2993  0.0327  1.1312
  907SOL     OW20330  13.189  12.776  12.791  0.4169 -0.1741 -0.3477
  907SOL    HW120331  13.216  12.742  12.706 -0.1668  0.4983 -0.8075
  907SOL    HW220332  13.095  12.792  12.782  0.6847  1.6466 -0.1942
  908SOL     OW20333  12.433  12.883   8.202  0.5379  0.6616  0.6000
  908SOL    HW120334  12.434  12.957   8.263  0.9801 -0.1893  1.6604
  908SOL    HW220335  12.512  12.833   8.224  0.0974 -0.2747  0.0911
  909SOL     OW20336  10.983   5.048   4.586 -0.1655  0.2359 -0.6289
  909SOL    HW120337  11.077   5.064   4.597 -0.4335  1.7386 -0.2758
  909SOL    HW220338  10.975   5.005   4.501  0.7708  0.9435 -1.0888
  910SOL     OW20339   4.134   9.760   3.336 -0.0704  0.2704 -0.2655
  910SOL    HW120340   4.084   9.835   3.304 -1.2034  0.4769  1.7924
  910SOL    HW220341   4.224   9.790   3.338 -0.1765  0.7379 -1.7387
  911SOL     OW20342   5.608   8.550  10.245 -0.0300 -0.1829  0.3932
  911SOL    HW120343   5.645   8.567  10.158  1.8139  0.1709  1.1851
  911SOL    HW220344   5.599   8.455  10.250  0.6726 -0.2711  0.1062
  912SOL     OW20345   6.879   0.195   3.879 -0.4123 -0.0310  0.7822
  912SOL    HW120346   6.804   0.207   3.822  0.7803 -0.4117 -0.9484
  912SOL    HW220347   6.841   0.179   3.966 -2.2784  0.5051  0.1125
  913SOL     OW20348   0.812  11.674   2.970  0.5167 -0.2847  0.0742
  913SOL    HW120349   0.860  11.754   2.950  0.0182 -0.7910 -3.7841
  913SOL    HW220350   0.868  11.604   2.937 -1.4339 -1.0700 -1.8150
  914SOL     OW20351   3.802   4.005   7.954  0.0353 -0.4351 -0.8053
  914SOL    HW120352   3.729   4.059   7.985 -0.0787 -1.0349  0.0012
  914SOL    HW220353   3.867   4.011   8.024  1.3044  1.0623 -2.0262
  915SOL     OW20354  10.164  10.768   4.699  0.5437 -0.3750  0.8127
  915SOL    HW120355  10.191  10.818   4.623  0.7306 -0.2598  0.9539
  915SOL    HW220356  10.078  10.734   4.676 -1.2904  2.9529  2.0614
  916SOL     OW20357   9.906   0.910   6.955 -0.0007 -0.4156  0.0797
  916SOL    HW120358  10.001   0.918   6.950 -0.0578  0.1755 -0.1495
  916SOL    HW220359   9.885   0.929   7.046 -0.0751  1.5500 -0.3163
  917SOL     OW20360   3.168  13.983   3.592 -0.1676  0.2644 -0.5871
  917SOL    HW120361   3.257  14.019   3.595 -1.1396  2.7714  0.3206
  917SOL    HW220362   3.159  13.936   3.674 -0.1687  1.3177  0.0307
  918SOL     OW20363  11.402   1.712   5.021 -0.5552 -0.0856  0.0020
  918SOL    HW120364  11.316   1.743   5.051 -0.3813  0.2912  0.1232
  918SOL    HW220365  11.455   1.708   5.101 -1.2720 -3.2315  0.4551
  919SOL     OW20366  12.363   0.357   9.733  0.0708  0.6910 -0.1125
  919SOL    HW120367  12.458   0.349   9.725  0.1355 -0.1927  1.2189
  919SOL    HW220368  12.339   0.425   9.670  1.5543  0.7661 -0.6247
  920SOL     OW20369   8.806  10.399   0.945 -0.2474  0.2209 -0.5851
  920SOL    HW120370   8.859  10.356   1.012 -1.8624  0.0452  0.6402
  920SOL    HW220371   8.730  10.342   0.934 -0.1669  0.3994 -2.3935
  921SOL     OW20372   5.794   3.021  11.085 -0.1532  0.1388 -0.0291
  921SOL    HW120373   5.732   3.010  11.157 -0.0194  0.5908  0.1554
  921SOL    HW220374   5.771   3.105  11.045  1.6607  1.3790  1.3587
  922SOL     OW20375  12.386   1.968   5.580  0.0366 -0.3532 -0.1247
  922SOL    HW120376  12.338   1.900   5.626  2.6928 -2.3317 -0.0384
  922SOL    HW220377  12.423   2.022   5.650 -0.2502 -0.1671 -0.1170
  923SOL     OW20378   4.309   5.624   8.944  0.1948 -0.0596 -0.5875
  923SOL    HW120379   4.365   5.683   8.893  0.4294 -0.0978 -0.3767
  923SOL    HW220380   4.265   5.681   9.006  1.8001 -0.3099  0.8643
  924SOL     OW20381  10.667   3.989   3.432 -0.0264  0.1983 -0.9281
  924SOL    HW120382  10.720   4.032   3.498  0.5849 -0.3536 -1.0439
  924SOL    HW220383  10.580   4.027   3.441  0.5957  1.7657 -1.3250
  925SOL     OW20384  12.482   3.538   3.658 -0.3142  0.4149 -0.1784
  925SOL    HW120385  12.523   3.585   3.585 -0.0009  0.8944  0.2950
  925SOL    HW220386  12.540   3.464   3.674 -2.3503 -2.0063 -2.9121
  926SOL     OW20387   2.114  11.114  10.962  0.2480  0.0899  0.2467
  926SOL    HW120388   2.171  11.158  11.026  1.6896 -0.2321 -0.7576
  926SOL    HW220389   2.052  11.182  10.935  1.2915  1.0096  0.0694
  927SOL     OW20390   0.162   1.740   9.759  0.3801  0.1615 -0.2531
  927SOL    HW120391   0.223   1.678   9.719 -2.3829 -2.6167 -0.5429
  927SOL    HW220392   0.170   1.724   9.853  0.4637  0.1120 -0.2686
  928SOL     OW20393   7.235   7.769  13.875  0.4765 -0.1076 -0.2502
  928SOL    HW120394   7.183   7.688  13.877  0.0273  0.1897  0.4783
  928SOL    HW220395   7.171   7.839  13.886  0.9796  0.2886  0.2527
  929SOL     OW20396  12.924   5.201   5.252  0.8385  0.1230 -0.2024
  929SOL    HW120397  12.980   5.258   5.304  0.4752  1.5732 -1.3373
  929SOL    HW220398  12.906   5.251   5.172 -2.1153 -0.2090  0.1300
  930SOL     OW20399   6.005   4.946  13.894 -0.4106 -0.4106 -0.1311
  930SOL    HW120400   6.019   5.025  13.946 -1.1802 -0.6005  0.3938
  930SOL    HW220401   6.092   4.908  13.882 -0.1684 -0.0801  0.5673
  931SOL     OW20402  13.280   4.737   3.952  0.0124  0.1925  0.3014
  931SOL    HW120403  13.351   4.799   3.935 -0.8369  0.7837 -1.2840
  931SOL    HW220404  13.202   4.791   3.956 -0.3625 -0.4177  2.3355
  932SOL     OW20405   3.880   1.083   2.704 -0.2427 -0.4305  0.3227
  932SOL    HW120406   3.848   1.164   2.664  0.5180 -0.1196  0.3200
  932SOL    HW220407   3.960   1.064   2.656 -0.8070 -1.6010 -0.1798
  933SOL     OW20408   7.683   1.725   3.876  0.1305  0.0329  0.2354
  933SOL    HW120409   7.730   1.644   3.856 -0.4719 -0.2158 -0.2118
  933SOL    HW220410   7.708   1.784   3.805 -1.6572 -0.7046 -1.0782
  934SOL     OW20411   6.462   5.395   4.002  0.3032 -0.0288 -0.2276
  934SOL    HW120412   6.371   5.417   3.984  0.4040  1.8142  1.1277
  934SOL    HW220413   6.462   5.365   4.093  1.2401  2.0044  0.5328
  935SOL     OW20414   1.755   9.730   7.905 -0.3751  0.2555 -0.5307
  935SOL    HW120415   1.806   9.811   7.911 -1.7254  1.0921  0.3888
  935SOL    HW220416   1.714   9.733   7.819 -0.4974  0.6179 -0.4614
  936SOL     OW20417  11.499   6.933   8.106  0.4806 -0.2218  0.7362
  936SOL    HW120418  11.502   6.921   8.201 -1.3163  0.1734  0.8678
  936SOL    HW220419  11.589   6.958   8.082  1.4526 -2.2364  2.0259
  937SOL     OW20420   3.124   0.352   6.168 -0.1810  0.0020 -0.3273
  937SOL    HW120421   3.100   0.397   6.249  1.1252  0.8409 -0.3661
  937SOL    HW220422   3.129   0.259   6.193 -1.4780  0.0244  0.1113
  938SOL     OW20423  12.149   3.851   8.570 -0.8493  1.1807 -0.3598
  938SOL    HW120424  12.186   3.765   8.551 -1.9835  1.1786 -2.9991
  938SOL    HW220425  12.181   3.907   8.499 -2.9241  2.0409 -0.6965
  939SOL     OW20426  12.192  12.039  10.915 -0.4607  0.1994  0.5753
  939SOL    HW120427  12.224  11.959  10.873 -1.7291 -0.1741  0.3052
  939SOL    HW220428  12.205  12.024  11.008  0.1934  0.0875  0.4786
  940SOL     OW20429   9.198   5.484  12.339 -0.0523 -0.3904 -0.0284
  940SOL    HW120430   9.131   5.433  12.384 -0.0665 -0.7812 -0.4794
  940SOL    HW220431   9.269   5.492  12.403 -0.5613  0.1054  0.4853
  941SOL     OW20432   9.575  10.733  13.310  0.2767 -0.1031 -0.0510
  941SOL    HW120433   9.487  10.768  13.322 -0.2652 -1.7912  1.4710
  941SOL    HW220434   9.571  10.683  13.228  0.9807  2.9103 -2.0829
  942SOL     OW20435   7.069  11.756  12.468 -0.4984  0.2370 -0.2328
  942SOL    HW120436   7.157  11.720  12.459 -0.7140 -0.7892  1.3546
  942SOL    HW220437   7.032  11.710  12.543 -3.1206 -0.8182 -2.0056
  943SOL     OW20438   6.513   5.349  12.080  0.3452  0.1883 -0.3609
  943SOL    HW120439   6.498   5.351  12.175  2.1085  2.0841 -0.0520
  943SOL    HW220440   6.597   5.393  12.068 -0.2892  0.8955 -2.8960
  944SOL     OW20441  10.877   9.260   4.186 -0.2421 -0.5344 -0.0026
  944SOL    HW120442  10.871   9.199   4.259 -0.5993  0.1745  0.5716
  944SOL    HW220443  10.949   9.318   4.208 -0.1831 -0.4737 -0.3375
  945SOL     OW20444   0.174   5.524   4.122 -0.3962 -0.2552 -0.4556
  945SOL    HW120445   0.260   5.505   4.158 -0.4701 -1.3167 -0.8065
  945SOL    HW220446   0.191   5.546   4.030 -0.5379 -1.0569 -0.6864
  946SOL     OW20447   3.407   8.124   3.347  0.1747 -0.0918  0.5343
  946SOL    HW120448   3.394   8.133   3.442 -0.6093 -0.4335  0.4653
  946SOL    HW220449   3.382   8.033   3.328  0.8498 -0.1926  0.0778
  947SOL     OW20450   3.058   1.769   6.742  0.1184 -0.1565 -0.3000
  947SOL    HW120451   3.059   1.861   6.768  1.2273 -0.5145  1.0161
  947SOL    HW220452   2.987   1.730   6.794 -0.3068 -0.0773 -0.8079
  948SOL     OW20453   0.147   3.246   5.342 -0.2023 -0.3877 -0.2265
  948SOL    HW120454   0.160   3.174   5.280  0.5663  0.6809 -1.3663
  948SOL    HW220455   0.196   3.220   5.420  0.6279 -0.8194 -0.8769
  949SOL     OW20456   9.943  10.892  13.212 -0.2287  0.7879 -0.6679
  949SOL    HW120457   9.933  10.975  13.165 -0.1967  0.7636 -0.7181
  949SOL    HW220458   9.888  10.830  13.163 -1.1334  1.0322  0.0083
  950SOL     OW20459   9.065   1.516   6.076  0.3279 -0.0689 -0.8100
  950SOL    HW120460   9.060   1.437   6.130  1.5770  0.2363 -0.2125
  950SOL    HW220461   9.151   1.553   6.096 -0.3179  1.5731 -0.9065
  951SOL     OW20462   6.443  11.251  11.802  0.5582 -0.1875  0.6030
  951SOL    HW120463   6.412  11.206  11.881  1.1253  1.4308  1.8113
  951SOL    HW220464   6.521  11.298  11.830  0.5431  0.7681 -0.8146
  952SOL     OW20465  11.391   5.154   5.953  0.0416  0.1990  0.8902
  952SOL    HW120466  11.378   5.226   5.892 -1.2326  0.6787  1.6883
  952SOL    HW220467  11.316   5.096   5.939 -0.5940  0.6087  2.3676
  953SOL     OW20468   7.883  11.754   1.873  0.4440 -0.1787 -0.6300
  953SOL    HW120469   7.844  11.749   1.786 -0.5106 -0.0912 -0.2188
  953SOL    HW220470   7.967  11.709   1.865  0.3307 -0.2301 -1.5743
  954SOL     OW20471  13.654  11.333   7.272  0.0309  0.3657  0.2180
  954SOL    HW120472  13.600  11.255   7.264  0.7704 -0.2962  1.4895
  954SOL    HW220473  13.617  11.381   7.345 -0.4297  1.2310 -0.5682
  955SOL     OW20474   6.947   1.878   0.452  0.1574 -0.1549  0.6680
  955SOL    HW120475   6.959   1.838   0.366  3.5434  1.8638  0.0248
  955SOL    HW220476   7.004   1.828   0.510  0.6572  0.6826  0.9137
  956SOL     OW20477   6.033   2.916  10.729 -0.0890  0.5685  0.8425
  956SOL    HW120478   6.102   2.857  10.701  0.9756  1.1873  2.0839
  956SOL    HW220479   6.078   2.999  10.747 -1.5591  1.8812 -1.0980
  957SOL     OW20480   3.597   3.488   3.372 -0.3920  0.1749  0.4099
  957SOL    HW120481   3.653   3.565   3.377 -0.8641  0.7572 -1.9762
  957SOL    HW220482   3.519   3.518   3.325 -0.7388 -1.6566 -0.2600
  958SOL     OW20483   1.723   1.420   6.937 -0.0249  0.3809  0.2676
  958SOL    HW120484   1.627   1.424   6.927 -0.1529 -0.8785  0.8368
  958SOL    HW220485   1.755   1.414   6.847 -0.5455 -0.0368  0.0987
  959SOL     OW20486   4.531   1.737  11.664  0.1394  0.3640 -0.6065
  959SOL    HW120487   4.550   1.666  11.724 -1.2713  1.2985  1.0367
  959SOL    HW220488   4.605   1.797  11.672  0.8150 -0.3747 -1.1944
  960SOL     OW20489  13.783   9.243   6.031 -0.1162 -0.0209  0.0909
  960SOL    HW120490  13.755   9.313   6.090 -0.9211  1.1300 -1.6009
  960SOL    HW220491  13.710   9.232   5.970  0.9863 -0.6618 -1.1692
  961SOL     OW20492  11.782   2.680  12.517  0.5400 -0.8127 -0.7180
  961SOL    HW120493  11.776   2.653  12.425  1.0076 -2.2063 -0.3499
  961SOL    HW220494  11.872   2.660  12.543  0.2623 -0.9283  0.1983
  962SOL     OW20495  11.949   8.507   1.846 -0.2987 -0.5540 -0.4670
  962SOL    HW120496  11.891   8.583   1.854  0.9769  0.6883 -2.0342
  962SOL    HW220497  12.006   8.512   1.923  0.9841  1.2660 -1.4404
  963SOL     OW20498  14.014   1.650   0.342 -0.0311 -0.9280 -0.5234
  963SOL    HW120499  13.965   1.731   0.356  0.9231 -0.5325  0.7484
  963SOL    HW220500  14.088   1.677   0.286  0.2772 -0.9167 -0.1135
  964SOL     OW20501  11.526   1.100  12.007 -0.7020 -0.0399  0.0213
  964SOL    HW120502  11.480   1.162  12.065 -0.1583  2.0721 -1.6573
  964SOL    HW220503  11.616   1.133  12.003 -0.0145 -1.8257  0.2043
  965SOL     OW20504   4.145  12.868  12.141  0.2254 -0.0024  0.2557
  965SOL    HW120505   4.063  12.903  12.106 -1.4185 -0.7338  3.0030
  965SOL    HW220506   4.189  12.943  12.181  0.1969  0.1448  0.0089
  966SOL     OW20507  11.404  12.001  11.238  0.2367  0.1512  0.3230
  966SOL    HW120508  11.474  12.064  11.254  0.6443  0.1013 -1.1216
  966SOL    HW220509  11.323  12.047  11.262  0.5637  1.1032 -0.3594
  967SOL     OW20510   0.178   7.107   3.744 -0.2457 -0.1476 -0.2143
  967SOL    HW120511   0.269   7.098   3.772 -0.5215 -2.5301  0.0554
  967SOL    HW220512   0.143   7.018   3.744 -1.8092  0.3311 -2.9662
  968SOL     OW20513   7.883   0.639  14.087 -0.9001 -0.3276  0.2864
  968SOL    HW120514   7.910   0.727  14.114 -1.5945  0.0092 -0.0904
  968SOL    HW220515   7.803   0.622  14.137 -0.5321 -0.9252  0.6810
  969SOL     OW20516   6.479   8.724   4.326  0.1917 -0.4280  0.2931
  969SOL    HW120517   6.397   8.674   4.326  0.4615 -0.8905 -0.4906
  969SOL    HW220518   6.467   8.791   4.259 -0.1153  0.4803  1.2489
  970SOL     OW20519  11.822  13.171  11.269 -0.1864 -0.4124  0.0684
  970SOL    HW120520  11.832  13.250  11.216 -0.1824 -1.0632 -0.9330
  970SOL    HW220521  11.912  13.144  11.288 -0.1466 -1.1406 -1.0878
  971SOL     OW20522   0.035   2.638   0.500  0.7213 -0.1585 -0.0829
  971SOL    HW120523  -0.003   2.701   0.439  0.1357 -0.8835 -0.4774
  971SOL    HW220524   0.008   2.668   0.586  0.1370 -0.0801 -0.2923
  972SOL     OW20525   1.464  11.971  13.255 -0.0984 -0.2166 -0.1085
  972SOL    HW120526   1.488  12.015  13.337  0.6125 -0.6469 -0.0785
  972SOL    HW220527   1.482  12.036  13.187  1.9962 -0.7907 -0.1626
  973SOL     OW20528   9.491  12.546   4.167  0.2747  0.1434  0.3690
  973SOL    HW120529   9.407  12.549   4.213  0.4859 -1.5507  0.9072
  973SOL    HW220530   9.507  12.637   4.142 -1.0743  0.7082  1.4179
  974SOL     OW20531  13.815  13.657   8.710 -0.2747  0.1312 -0.6243
  974SOL    HW120532  13.786  13.706   8.787  0.9626  0.2038 -0.1745
  974SOL    HW220533  13.783  13.568   8.725  1.3061 -0.2474  0.8030
  975SOL     OW20534   1.386   5.072  12.394 -0.0632 -0.7095  0.1262
  975SOL    HW120535   1.463   5.108  12.439 -0.3573 -0.9643  0.8483
  975SOL    HW220536   1.399   5.097  12.303  0.2924  0.2727  0.4220
  976SOL     OW20537   2.976   2.069   6.917 -0.0244 -0.4454 -0.0054
  976SOL    HW120538   3.033   2.084   6.992  0.7168  0.7157 -0.7599
  976SOL    HW220539   2.937   2.155   6.899 -2.4744 -1.2919  0.7993
  977SOL     OW20540   1.768  13.408   0.715  0.2039  0.6437 -0.2256
  977SOL    HW120541   1.770  13.347   0.641  1.1770 -1.1591  1.2145
  977SOL    HW220542   1.837  13.472   0.694  0.0351  0.5455 -1.1596
  978SOL     OW20543   6.513   8.886  10.773  0.1943  0.1906  0.7285
  978SOL    HW120544   6.463   8.935  10.838 -0.5438 -1.1110  1.1739
  978SOL    HW220545   6.575   8.834  10.824 -0.7915 -1.2908  0.4771
  979SOL     OW20546  13.315   6.635  13.834 -0.4109 -0.1202 -0.4211
  979SOL    HW120547  13.230   6.608  13.798 -1.5507  2.0428  0.4801
  979SOL    HW220548  13.376   6.625  13.761 -1.8774  0.4182 -1.7706
  980SOL     OW20549  10.837   5.692   3.100 -0.2371 -0.0515 -0.1798
  980SOL    HW120550  10.839   5.596   3.108 -0.2816 -0.2237 -1.9497
  980SOL    HW220551  10.746   5.713   3.079 -0.0500  0.2864 -0.6801
  981SOL     OW20552   7.452   4.396  11.432 -0.4659  0.4698  0.4943
  981SOL    HW120553   7.542   4.366  11.425 -0.5241  0.6418 -1.8374
  981SOL    HW220554   7.402   4.317  11.452 -0.0094 -0.0276 -0.2637
  982SOL     OW20555   7.350   8.743   8.215  0.2211 -0.5309 -0.2950
  982SOL    HW120556   7.348   8.805   8.142  1.5526 -0.1598 -0.0562
  982SOL    HW220557   7.353   8.657   8.174 -2.1748 -0.5147 -0.6290
  983SOL     OW20558   1.179   7.768   0.314  0.1901  0.0796 -0.3962
  983SOL    HW120559   1.177   7.774   0.219  1.0058 -0.2516 -0.4359
  983SOL    HW220560   1.198   7.676   0.332  1.6465  0.4393  0.0567
  984SOL     OW20561   0.161   3.142  10.097 -0.3114  0.2782  0.4091
  984SOL    HW120562   0.099   3.069  10.108  0.2786 -0.2657  0.1749
  984SOL    HW220563   0.201   3.152  10.183  0.6598 -0.6460  0.0806
  985SOL     OW20564   7.261   2.312   1.310  0.3709 -0.4732  0.4013
  985SOL    HW120565   7.287   2.245   1.247  0.7719 -0.6171  0.7146
  985SOL    HW220566   7.310   2.290   1.390 -0.7557 -0.7903  1.0303
  986SOL     OW20567   4.338   0.169   0.418 -0.3832 -0.0742  0.4224
  986SOL    HW120568   4.326   0.106   0.347  2.8717 -0.2037 -0.1584
  986SOL    HW220569   4.290   0.247   0.389 -0.5233 -0.6878 -1.1063
  987SOL     OW20570   6.458  11.261   0.601 -0.0663 -0.2698  0.2338
  987SOL    HW120571   6.416  11.207   0.534  1.2600  0.4972 -1.2937
  987SOL    HW220572   6.404  11.340   0.606  0.4504  0.1761 -0.8252
  988SOL     OW20573  12.483  11.958   2.917  0.1022 -0.4846 -0.2406
  988SOL    HW120574  12.497  12.011   2.995 -0.0610 -0.5411 -0.1707
  988SOL    HW220575  12.566  11.912   2.903  0.7191  0.8468 -1.1173
  989SOL     OW20576  13.192   0.774   3.552  0.6285  0.3087 -0.2672
  989SOL    HW120577  13.103   0.741   3.566  0.3199 -0.7378 -3.7835
  989SOL    HW220578  13.248   0.700   3.573  0.8335  1.0870  2.3402
  990SOL     OW20579  11.690   0.446  12.565  0.7121  0.0229  0.8715
  990SOL    HW120580  11.634   0.521  12.589  0.3271 -0.0023  0.1026
  990SOL    HW220581  11.646   0.408  12.489  1.2939 -0.5608  0.8242
  991SOL     OW20582   2.877   3.021   4.343  0.1648 -0.2362  0.3354
  991SOL    HW120583   2.849   3.105   4.379 -1.1486  0.5243 -2.2794
  991SOL    HW220584   2.802   2.963   4.356 -0.6954  0.2969 -1.7943
  992SOL     OW20585   3.759   2.053   0.811  0.5632  0.7315 -0.5320
  992SOL    HW120586   3.719   2.140   0.814 -0.2291  0.4426 -1.9559
  992SOL    HW220587   3.769   2.034   0.718 -0.7296 -1.3478 -0.3128
  993SOL     OW20588  12.643   9.678   0.819  0.0257 -0.0683 -0.1769
  993SOL    HW120589  12.648   9.683   0.914 -0.9521  0.5591 -0.1484
  993SOL    HW220590  12.601   9.594   0.801 -0.2371  0.0360 -0.0432
  994SOL     OW20591  10.176   0.169  13.057 -0.4355 -0.1542 -0.0817
  994SOL    HW120592  10.119   0.204  12.988  0.0286  0.8500  0.0392
  994SOL    HW220593  10.258   0.147  13.012 -0.9029 -1.6766 -0.2708
  995SOL     OW20594   6.235   6.572   2.600  0.5367 -0.1700  0.0667
  995SOL    HW120595   6.153   6.532   2.631  0.3690  1.0188  1.2431
  995SOL    HW220596   6.216   6.666   2.599  1.5024  0.0232 -0.8676
  996SOL     OW20597  13.891   0.869   7.058  0.3289  0.6554  0.5630
  996SOL    HW120598  13.835   0.935   7.100  0.1347 -0.2819  1.8417
  996SOL    HW220599  13.974   0.875   7.106  0.5192  0.3970  0.2678
  997SOL     OW20600   4.677   0.203   1.665  0.2663 -1.0262 -0.5900
  997SOL    HW120601   4.687   0.237   1.576  0.0962 -1.7109 -0.8778
  997SOL    HW220602   4.584   0.216   1.685  0.5011  0.0693 -0.1063
  998SOL     OW20603   3.914  12.652   0.136 -0.4360  0.7325  0.3701
  998SOL    HW120604   3.940  12.731   0.089 -0.0118  1.0077  1.0420
  998SOL    HW220605   3.995  12.621   0.177 -0.8041  0.5514  0.9816
  999SOL     OW20606  12.544  10.575  11.063  0.0272 -0.2236  0.9361
  999SOL    HW120607  12.459  10.565  11.021  0.0689  0.5310  0.6588
  999SOL    HW220608  12.607  10.554  10.995  0.1011  1.2369  0.5198
 1000SOL     OW20609   9.986   4.397   5.975  0.2597 -0.2460 -0.1729
 1000SOL    HW120610   9.892   4.382   5.963 -0.2720  1.4595  1.3884
 1000SOL    HW220611   9.999   4.488   5.947  1.5259 -0.5478 -0.6360
 1001SOL     OW20612  11.260  12.940  10.612  0.1670  0.4692 -0.0402
 1001SOL    HW120613  11.231  13.031  10.624 -0.3510  0.1194  1.4987
 1001SOL    HW220614  11.236  12.920  10.521  0.0438  1.7715 -0.3266
 1002SOL     OW20615  11.000  10.178   1.287 -0.0734  0.0156 -0.7565
 1002SOL    HW120616  10.937  10.107   1.281  1.7223 -1.7246 -0.3795
 1002SOL    HW220617  11.020  10.200   1.196  1.8354 -2.4267 -1.0548
 1003SOL     OW20618   4.132   4.867   1.386 -0.3217  0.6301  0.3652
 1003SOL    HW120619   4.127   4.843   1.294  0.2201 -0.2585  0.5476
 1003SOL    HW220620   4.040   4.872   1.415 -0.4850  0.4882 -0.1225
 1004SOL     OW20621   2.382   6.077  11.455  0.3941 -0.1164  0.5649
 1004SOL    HW120622   2.455   6.139  11.449  1.4984 -1.4623 -0.5477
 1004SOL    HW220623   2.367   6.047  11.366 -0.7291 -0.7838  0.9448
 1005SOL     OW20624   5.645  10.098   0.994 -0.3046  0.4269 -0.6109
 1005SOL    HW120625   5.558  10.074   1.025  0.2162 -1.3741 -0.4498
 1005SOL    HW220626   5.701  10.024   1.018  1.3682  1.7135 -0.3429
 1006SOL     OW20627   0.046  12.881  12.109 -0.0435  0.2839 -0.3239
 1006SOL    HW120628   0.021  12.790  12.093  0.4218  0.1809 -0.4642
 1006SOL    HW220629   0.023  12.927  12.028 -0.7533  0.3925 -0.0676
 1007SOL     OW20630  12.250  12.162  13.200 -0.4778 -0.4266  0.0283
 1007SOL    HW120631  12.217  12.080  13.237  0.3693 -1.0286 -0.5177
 1007SOL    HW220632  12.239  12.226  13.271 -1.8003 -0.8323  0.2265
 1008SOL     OW20633   3.707  12.062   4.985 -0.0762 -0.3263 -0.3519
 1008SOL    HW120634   3.728  12.053   5.078  0.6117  0.7401 -0.3845
 1008SOL    HW220635   3.677  12.152   4.976 -2.8217 -1.1703 -0.6979
 1009SOL     OW20636   2.841   6.353  13.892  0.0907 -0.2547  0.2688
 1009SOL    HW120637   2.775   6.362  13.961 -0.3005 -0.1621 -0.1110
 1009SOL    HW220638   2.841   6.260  13.871  1.0583 -0.4729  1.2136
 1010SOL     OW20639   0.293   9.480   2.128  0.0880 -0.0694 -0.4589
 1010SOL    HW120640   0.383   9.485   2.158  0.3734 -0.3931 -1.2338
 1010SOL    HW220641   0.294   9.522   2.042 -0.7071  0.8474 -0.0320
 1011SOL     OW20642   4.987  10.445   6.753 -0.3576 -0.4909  0.5461
 1011SOL    HW120643   4.968  10.538   6.764  0.3702 -0.5583  2.9754
 1011SOL    HW220644   5.069  10.443   6.703 -0.6640  0.1307 -0.0013
 1012SOL     OW20645  12.870  12.001   1.595  0.4725 -0.1528 -0.0860
 1012SOL    HW120646  12.800  11.993   1.661 -0.6668  0.1508 -1.2087
 1012SOL    HW220647  12.854  12.086   1.554 -0.0790 -1.1366 -2.0594
 1013SOL     OW20648   5.357   9.817  13.078 -0.5516  0.2140  0.3107
 1013SOL    HW120649   5.388   9.780  13.160 -1.0875 -0.2130  0.3259
 1013SOL    HW220650   5.391   9.759  13.010 -2.8201 -1.3761  0.4276
 1014SOL     OW20651  10.673   0.869   5.417 -0.0258 -0.5845  0.0577
 1014SOL    HW120652  10.747   0.841   5.364  0.1513  0.9021 -0.5064
 1014SOL    HW220653  10.712   0.911   5.493 -0.2910 -0.0052 -0.1257
 1015SOL     OW20654   4.474   5.743  12.565  0.6421  0.1591  1.0758
 1015SOL    HW120655   4.506   5.820  12.518 -0.0314 -1.3262 -2.1255
 1015SOL    HW220656   4.546   5.680  12.560  0.2261 -0.3381  1.2052
 1016SOL     OW20657   5.097   3.508  13.891 -0.4147 -0.0357  0.0068
 1016SOL    HW120658   5.035   3.456  13.943 -1.5122  1.6265  0.4333
 1016SOL    HW220659   5.179   3.505  13.940 -1.2923  1.0972  1.6430
 1017SOL     OW20660   3.190   5.792   9.599  0.5885  0.2752 -0.5747
 1017SOL    HW120661   3.106   5.801   9.644  0.9996 -0.0894  0.2832
 1017SOL    HW220662   3.193   5.701   9.571  1.1723 -0.0200  0.3915
 1018SOL     OW20663   5.034   4.744   2.835  0.2026  0.6470  0.0217
 1018SOL    HW120664   5.057   4.799   2.910 -0.1735  0.6930  0.1018
 1018SOL    HW220665   5.111   4.749   2.778  0.9765 -0.3477  0.9532
 1019SOL     OW20666   6.297   2.812   3.310  0.3097 -0.5614  0.3071
 1019SOL    HW120667   6.219   2.841   3.356  0.2882 -3.2536  2.2206
 1019SOL    HW220668   6.363   2.879   3.328 -0.5692 -0.0421  1.7526
 1020SOL     OW20669   7.795  10.690  11.841  0.0246  0.3082  0.0748
 1020SOL    HW120670   7.865  10.679  11.777 -1.0759 -0.5575 -1.0220
 1020SOL    HW220671   7.832  10.656  11.922  0.7777 -0.3929 -0.5445
 1021SOL     OW20672   7.176   0.646  10.201 -0.2128 -0.1049 -0.1080
 1021SOL    HW120673   7.092   0.602  10.189 -0.1343 -0.1197 -0.6337
 1021SOL    HW220674   7.241   0.580  10.177 -0.1335  0.8744 -2.9581
 1022SOL     OW20675   6.128   1.979  11.618 -0.1125 -0.3247 -0.0330
 1022SOL    HW120676   6.194   1.981  11.549  0.6016 -1.0394  0.5931
 1022SOL    HW220677   6.110   2.071  11.639 -1.3721 -0.0495 -2.0873
 1023SOL     OW20678   2.513   2.725  11.299 -0.4031  0.0475  0.6828
 1023SOL    HW120679   2.443   2.789  11.292  0.3959  0.9157  0.3846
 1023SOL    HW220680   2.469   2.640  11.297 -1.3641  0.5310 -0.9692
 1024SOL     OW20681   4.664   5.141   1.401  0.1383 -0.6037 -0.0421
 1024SOL    HW120682   4.648   5.064   1.347  1.6658 -1.2916  0.4383
 1024SOL    HW220683   4.731   5.113   1.464 -1.8128  0.0646  2.4730
 1025SOL     OW20684   0.003   7.219   6.160 -0.7896 -0.1697  0.2316
 1025SOL    HW120685  -0.058   7.146   6.166 -0.0243 -0.7745  1.1449
 1025SOL    HW220686   0.030   7.235   6.251 -0.1195  0.5233 -0.0744
 1026SOL     OW20687  11.156   6.075  12.516 -0.6316 -0.0700  0.3259
 1026SOL    HW120688  11.217   6.020  12.565 -0.1655  1.3292  1.3839
 1026SOL    HW220689  11.109   6.014  12.459 -1.1876 -1.7866  2.5028
 1027SOL     OW20690   3.785   1.276   0.426  0.4897 -0.0868  0.0403
 1027SOL    HW120691   3.791   1.315   0.513 -2.3817  2.8855 -0.8576
 1027SOL    HW220692   3.698   1.302   0.394 -0.1041 -4.2102 -2.3422
 1028SOL     OW20693   5.432   8.257  13.697 -0.1201 -0.0211 -0.2577
 1028SOL    HW120694   5.525   8.259  13.677  0.3118  0.6403  1.6387
 1028SOL    HW220695   5.392   8.317  13.634  0.8365  0.2869 -0.5791
 1029SOL     OW20696   1.135   2.586   3.750  0.3821 -0.3894  0.6520
 1029SOL    HW120697   1.134   2.496   3.719 -2.3609 -0.8448  1.7196
 1029SOL    HW220698   1.100   2.637   3.677  1.0184 -0.3141  0.3934
 1030SOL     OW20699   9.505   4.914   9.836 -0.2035 -0.2358  0.6624
 1030SOL    HW120700   9.503   4.875   9.748 -1.1170  0.8586  0.1732
 1030SOL    HW220701   9.412   4.926   9.858  0.0039  2.4612  0.3953
 1031SOL     OW20702   4.181  13.565  13.772  0.4269 -0.6711  0.2288
 1031SOL    HW120703   4.186  13.472  13.795  2.2767 -0.6641  0.0295
 1031SOL    HW220704   4.162  13.566  13.678  0.7581 -0.8560  0.1589
 1032SOL     OW20705   1.594   0.122   1.646 -0.1832  0.8938  0.0765
 1032SOL    HW120706   1.530   0.076   1.591  0.3824  1.6051 -1.2322
 1032SOL    HW220707   1.678   0.081   1.624  0.2398  2.0875 -0.6404
 1033SOL     OW20708  13.644  14.056   4.755  0.1648 -0.4244  0.0058
 1033SOL    HW120709  13.664  14.046   4.662  0.1337 -0.1439 -0.0319
 1033SOL    HW220710  13.562  14.105   4.757 -1.5522 -3.1140  0.1156
 1034SOL     OW20711   0.160   0.813   9.328 -0.0891  0.3157  0.3061
 1034SOL    HW120712   0.090   0.846   9.385 -1.4150 -2.5149  0.5015
 1034SOL    HW220713   0.115   0.757   9.265  1.9136 -0.7510 -0.2652
 1035SOL     OW20714   2.286   0.744   3.547  0.0481 -0.2085 -0.5432
 1035SOL    HW120715   2.313   0.736   3.455 -1.5409 -1.5419 -0.9325
 1035SOL    HW220716   2.211   0.803   3.544  1.3407  1.5530  0.2261
 1036SOL     OW20717  13.704   7.225   1.893 -0.0179 -0.5122  1.3211
 1036SOL    HW120718  13.769   7.187   1.834 -1.6137 -0.2751 -0.6963
 1036SOL    HW220719  13.671   7.151   1.943 -0.0331 -1.0771  0.4980
 1037SOL     OW20720   5.377   5.297   0.563  0.7623  0.2337  0.0022
 1037SOL    HW120721   5.388   5.259   0.476  0.0511  0.4340 -0.1871
 1037SOL    HW220722   5.450   5.359   0.572 -0.5182  2.0992 -1.4991
 1038SOL     OW20723  13.848   4.984   5.229 -0.1058  0.6331  0.5025
 1038SOL    HW120724  13.848   5.079   5.234  0.4686  0.6531  0.1738
 1038SOL    HW220725  13.777   4.962   5.169  0.1010  0.8810  0.1641
 1039SOL     OW20726  11.822   6.236   9.508  0.4524  0.4016  0.4190
 1039SOL    HW120727  11.828   6.331   9.499 -0.2046  0.4082 -0.0169
 1039SOL    HW220728  11.743   6.222   9.560 -0.3030  0.0563 -0.7696
 1040SOL     OW20729   7.935  10.150   3.225 -0.1004 -0.2724 -0.4009
 1040SOL    HW120730   7.980  10.191   3.300  0.0870 -2.7648  0.9471
 1040SOL    HW220731   7.854  10.117   3.262 -0.1736 -1.2379 -1.3970
 1041SOL     OW20732   5.799   1.557   9.195  0.3027 -0.0610  0.0156
 1041SOL    HW120733   5.764   1.552   9.284 -0.6547  1.9054 -0.2076
 1041SOL    HW220734   5.879   1.609   9.204  1.3215 -1.5712 -0.0074
 1042SOL     OW20735   2.838   8.045  12.883  0.2890 -1.0343 -0.0987
 1042SOL    HW120736   2.746   8.021  12.871  0.0479 -0.0506 -0.2899
 1042SOL    HW220737   2.843   8.136  12.854  1.4366 -1.2378 -0.5804
 1043SOL     OW20738   3.624  13.787   8.939  0.1083  0.2723 -0.0462
 1043SOL    HW120739   3.574  13.740   8.872 -0.2179  1.1449 -0.4271
 1043SOL    HW220740   3.638  13.722   9.008 -0.2904 -0.3966 -0.5824
 1044SOL     OW20741   7.385   3.381  12.756 -0.5524 -0.7202 -0.2660
 1044SOL    HW120742   7.416   3.386  12.666 -2.0104 -0.9640 -0.8103
 1044SOL    HW220743   7.363   3.472  12.779 -1.4075 -0.8260 -0.6289
 1045SOL     OW20744  14.014   2.643   4.509  0.0693 -0.0741  0.2680
 1045SOL    HW120745  14.071   2.587   4.561  0.4116 -0.1504 -0.1819
 1045SOL    HW220746  14.029   2.616   4.419 -0.5950 -0.0136  0.1353
 1046SOL     OW20747   3.450   9.835   2.983  0.3010  0.3720  0.5307
 1046SOL    HW120748   3.362   9.817   3.015  0.0068 -0.3231 -0.6094
 1046SOL    HW220749   3.457   9.930   2.987 -0.2406  0.3941  1.2746
 1047SOL     OW20750   0.381   7.574   2.217  0.1545 -0.2002 -0.4166
 1047SOL    HW120751   0.463   7.542   2.179 -0.4628 -0.1558 -1.8490
 1047SOL    HW220752   0.401   7.587   2.310  1.1922 -2.0910 -0.3370
 1048SOL     OW20753   2.869   6.957  10.363 -0.0633  0.0541  0.0098
 1048SOL    HW120754   2.863   7.017  10.437 -0.7267 -0.2231  0.1845
 1048SOL    HW220755   2.828   6.876  10.393  0.9301 -0.5378 -0.1885
 1049SOL     OW20756  13.025  11.592   1.334 -0.2695  0.1916 -0.1397
 1049SOL    HW120757  12.941  11.622   1.301 -1.3544 -1.3041  1.1467
 1049SOL    HW220758  13.044  11.651   1.407 -0.3524  0.3121 -0.2144
 1050SOL     OW20759   0.034   8.302  11.853  0.9290  0.7690  0.3197
 1050SOL    HW120760  -0.030   8.285  11.784  0.6797 -1.4767  1.0223
 1050SOL    HW220761   0.028   8.396  11.869 -1.7678  0.7343 -0.0628
 1051SOL     OW20762   5.734   6.977   5.479 -0.1575  0.1412 -0.1497
 1051SOL    HW120763   5.666   7.023   5.528 -0.7649 -0.5116 -0.3478
 1051SOL    HW220764   5.745   6.895   5.527  1.1101  0.5971  0.3657
 1052SOL     OW20765   7.338   0.806   4.903 -0.6304  0.1374 -0.3327
 1052SOL    HW120766   7.345   0.850   4.818 -0.9499  1.4521  0.2990
 1052SOL    HW220767   7.366   0.716   4.886  0.1296  0.6004 -1.6513
 1053SOL     OW20768   6.800  13.232   3.506  0.7769  0.0117  0.0974
 1053SOL    HW120769   6.732  13.297   3.487 -1.2576 -1.5393  1.6180
 1053SOL    HW220770   6.799  13.224   3.601  3.0473 -0.2023  0.1582
 1054SOL     OW20771  12.065   4.603   0.877 -0.1270  0.1524  0.3311
 1054SOL    HW120772  12.039   4.695   0.876  1.5657  0.6609 -0.8835
 1054SOL    HW220773  11.999   4.559   0.822 -1.1979  0.5342  1.2851
 1055SOL     OW20774   4.434   4.190   5.283  0.3235  0.6048 -0.2903
 1055SOL    HW120775   4.451   4.098   5.261 -1.7583 -0.1000  0.8274
 1055SOL    HW220776   4.507   4.215   5.340  0.7700 -0.4314 -0.3863
 1056SOL     OW20777   4.335   8.352   5.021  0.0201  0.0693 -0.0368
 1056SOL    HW120778   4.382   8.269   5.029  1.0047  0.7587  2.7528
 1056SOL    HW220779   4.397   8.412   4.979 -0.0158 -0.1372 -0.3859
 1057SOL     OW20780   3.508   5.684   8.933 -0.0330  0.3510  0.1452
 1057SOL    HW120781   3.498   5.615   8.867 -0.0096  0.7507 -0.2834
 1057SOL    HW220782   3.419   5.700   8.965 -0.0865  0.3689 -0.0115
 1058SOL     OW20783   6.085   3.694  12.913  0.2125  0.1630 -0.2075
 1058SOL    HW120784   6.040   3.743  12.844  0.7843  0.8411 -0.1122
 1058SOL    HW220785   6.046   3.727  12.994  0.7419  0.6240 -0.1334
 1059SOL     OW20786   6.050   7.368   5.494 -0.2120 -0.1196 -0.0683
 1059SOL    HW120787   6.070   7.459   5.471 -1.2093  0.2967  0.5920
 1059SOL    HW220788   5.954   7.363   5.488 -0.4825 -0.2430  2.7756
 1060SOL     OW20789   3.804  11.433   1.675  0.1759  0.0859  0.2894
 1060SOL    HW120790   3.883  11.431   1.621 -0.1978 -1.1092 -0.2480
 1060SOL    HW220791   3.732  11.430   1.612 -0.2675 -1.0649  0.8262
 1061SOL     OW20792   3.148   1.064   4.615  0.1029 -0.4844 -0.0605
 1061SOL    HW120793   3.223   1.122   4.601  0.0239 -0.7639 -1.8053
 1061SOL    HW220794   3.145   1.052   4.710  2.1035 -0.2473  0.0788
 1062SOL     OW20795   4.065  10.248   6.410  0.2828 -0.0575  0.3685
 1062SOL    HW120796   4.053  10.330   6.457  1.6078 -1.6552  3.8890
 1062SOL    HW220797   3.987  10.197   6.430  0.3644 -0.3762 -0.1053
 1063SOL     OW20798  11.679  13.684  13.986 -0.3408 -0.3078 -0.5024
 1063SOL    HW120799  11.591  13.649  13.971 -0.0909 -0.5664 -1.4296
 1063SOL    HW220800  11.733  13.607  14.002 -0.1526 -0.2031 -0.6264
 1064SOL     OW20801   2.215   6.052  13.723  0.6999 -0.4780  0.3914
 1064SOL    HW120802   2.163   6.073  13.645  1.9750 -2.2742 -1.0463
 1064SOL    HW220803   2.303   6.084  13.702  1.4342 -2.3851  0.3380
 1065SOL     OW20804   6.705  10.913  13.020  0.6456  0.5363  0.2003
 1065SOL    HW120805   6.643  10.893  12.950 -0.5537 -1.5500  1.7375
 1065SOL    HW220806   6.791  10.903  12.979 -0.0122 -1.1139 -0.9140
 1066SOL     OW20807   8.257  13.677  13.249 -0.3032 -0.2873  0.1821
 1066SOL    HW120808   8.180  13.628  13.219  0.2222 -1.6701  0.9922
 1066SOL    HW220809   8.221  13.749  13.301 -1.0643 -0.7796  0.3543
 1067SOL     OW20810   5.652   1.171   1.451  0.3722 -0.4756 -0.4424
 1067SOL    HW120811   5.577   1.132   1.407 -0.9205  1.0912  0.2528
 1067SOL    HW220812   5.702   1.213   1.380  0.4450 -1.2889 -0.8786
 1068SOL     OW20813   0.208   7.751   6.162  0.1361  0.1811  0.2083
 1068SOL    HW120814   0.179   7.762   6.253  0.1766 -1.2817  0.4358
 1068SOL    HW220815   0.280   7.687   6.169  0.5734  0.5575 -0.7869
 1069SOL     OW20816   4.871  12.092   4.204  0.3071  0.1297 -0.7008
 1069SOL    HW120817   4.787  12.048   4.208  0.0044  0.6994 -0.6431
 1069SOL    HW220818   4.869  12.153   4.278  0.9186 -0.1150 -0.4774
 1070SOL     OW20819   9.663   9.695   3.857 -0.2612 -0.5971 -0.2214
 1070SOL    HW120820   9.602   9.757   3.896 -0.2454 -0.5290 -0.3031
 1070SOL    HW220821   9.745   9.710   3.903 -0.4946 -1.2063  0.4047
 1071SOL     OW20822  11.023   5.376   5.600 -0.0740 -0.0565 -0.0342
 1071SOL    HW120823  11.023   5.347   5.509 -0.3198 -0.6035  0.1287
 1071SOL    HW220824  11.054   5.299   5.649  0.2135  0.2853  0.3241
 1072SOL     OW20825  12.589   8.692   5.898  0.4361  0.0886 -0.6189
 1072SOL    HW120826  12.514   8.643   5.863 -0.7407  2.3110 -1.3907
 1072SOL    HW220827  12.664   8.635   5.880 -0.8382 -1.4496 -1.4185
 1073SOL     OW20828  12.252   5.089  10.021 -0.0513  0.4540  0.1697
 1073SOL    HW120829  12.302   5.169  10.002 -0.1757  0.4063 -0.3706
 1073SOL    HW220830  12.320   5.024  10.040  0.1382  0.2327 -1.1687
 1074SOL     OW20831   6.552  10.517   9.259 -0.2356  0.0636  0.3132
 1074SOL    HW120832   6.539  10.587   9.196  0.0732  1.1238  1.4034
 1074SOL    HW220833   6.615  10.551   9.322  1.7107 -2.0208 -0.3699
 1075SOL     OW20834   4.308  11.796   3.587 -0.4587  0.1918 -0.0787
 1075SOL    HW120835   4.291  11.710   3.550  0.9758 -0.1872  0.1033
 1075SOL    HW220836   4.326  11.852   3.512  0.6418 -0.1541 -0.0856
 1076SOL     OW20837   8.583   7.123  11.661  0.4721  0.2394  0.0021
 1076SOL    HW120838   8.532   7.170  11.727  1.9847 -0.0428  1.4426
 1076SOL    HW220839   8.590   7.185  11.588  0.3097  1.2985  0.8543
 1077SOL     OW20840   3.049   7.766   4.968 -0.2110  0.4124  0.7424
 1077SOL    HW120841   3.071   7.837   4.908 -0.0094  0.4729  0.8898
 1077SOL    HW220842   3.025   7.810   5.050 -1.7906  0.4074  0.3155
 1078SOL     OW20843   3.892  11.048   1.414  0.4212  0.1254 -0.1218
 1078SOL    HW120844   3.886  10.991   1.337 -1.4354  0.7381 -0.4630
 1078SOL    HW220845   3.816  11.025   1.467  2.3246 -1.2543  2.2949
 1079SOL     OW20846  13.419   5.673   9.195 -0.8885 -0.0543  0.3538
 1079SOL    HW120847  13.379   5.755   9.223  0.0391  0.6290 -0.2447
 1079SOL    HW220848  13.385   5.659   9.107  2.1860  2.0315 -1.3497
 1080SOL     OW20849   8.030   9.789   9.289  0.3490 -0.6176 -0.5006
 1080SOL    HW120850   7.945   9.764   9.253  1.1548 -1.6852 -1.7364
 1080SOL    HW220851   8.047   9.876   9.254 -0.6337  0.0139  0.5195
 1081SOL     OW20852  12.537   1.053   5.756 -0.1506 -0.2424  0.2595
 1081SOL    HW120853  12.625   1.086   5.774 -1.0486  2.7141 -0.3708
 1081SOL    HW220854  12.485   1.083   5.830 -1.0788 -0.0343 -0.4648
 1082SOL     OW20855   8.369   2.155   5.133  0.5264  0.1110 -0.1474
 1082SOL    HW120856   8.312   2.231   5.141  0.6229  0.4337 -1.9668
 1082SOL    HW220857   8.369   2.136   5.039  1.1814 -1.6175  0.1768
 1083SOL     OW20858   4.033  12.164   2.359 -0.1225 -0.0339 -0.3616
 1083SOL    HW120859   3.980  12.171   2.280 -0.4451  0.4207 -0.1089
 1083SOL    HW220860   4.027  12.072   2.384 -0.0723 -0.1657 -0.8239
 1084SOL     OW20861  14.001  10.221   5.026  0.0040 -0.7507  0.6938
 1084SOL    HW120862  13.974  10.287   5.089  0.3971  0.6117 -0.5273
 1084SOL    HW220863  13.919  10.183   4.993 -0.2705 -0.0406  0.5504
 1085SOL     OW20864   1.349   2.120  10.734 -0.0330 -0.2678  0.2714
 1085SOL    HW120865   1.415   2.185  10.709 -0.1932 -0.6454 -1.1813
 1085SOL    HW220866   1.348   2.057  10.663 -0.6619 -1.2883  1.1476
 1086SOL     OW20867  13.650   0.645  11.765  0.2250  0.1724 -0.4636
 1086SOL    HW120868  13.692   0.561  11.783  0.1954  0.0367 -1.0172
 1086SOL    HW220869  13.653   0.691  11.849  1.1731  0.0321 -0.4014
 1087SOL     OW20870   4.945   1.865   3.457 -0.2168 -0.5026 -0.2272
 1087SOL    HW120871   5.002   1.796   3.492  0.3722  0.1411  0.1163
 1087SOL    HW220872   4.885   1.819   3.399 -0.1381 -1.3708  0.3543
 1088SOL     OW20873   4.697   1.209   5.199  0.1928 -0.3046 -0.0132
 1088SOL    HW120874   4.788   1.220   5.228  0.3104 -0.0447 -0.4674
 1088SOL    HW220875   4.661   1.141   5.256  0.7477 -0.5863  0.0055
 1089SOL     OW20876   9.942   0.854   4.503  0.0751 -0.5800 -0.4701
 1089SOL    HW120877   9.850   0.877   4.515  0.2367  0.4595 -1.1179
 1089SOL    HW220878   9.980   0.861   4.591 -0.4156 -0.8194 -0.2345
 1090SOL     OW20879  10.368   8.210  12.854 -0.4290 -0.4405  0.0490
 1090SOL    HW120880  10.391   8.246  12.768  2.4106 -1.8205  0.1119
 1090SOL    HW220881  10.359   8.287  12.911 -2.2352  0.4859 -1.3807
 1091SOL     OW20882   4.737  11.272   6.890  0.1404  0.0992  0.0132
 1091SOL    HW120883   4.747  11.315   6.975 -0.7241 -0.3321  0.3428
 1091SOL    HW220884   4.644  11.251   6.884  0.4110 -1.0324 -0.4840
 1092SOL     OW20885   9.187  13.387   8.553 -1.3776  0.4456 -0.1846
 1092SOL    HW120886   9.162  13.356   8.639 -0.4340  1.5890  0.5382
 1092SOL    HW220887   9.163  13.316   8.493 -0.4127 -1.1345  1.2285
 1093SOL     OW20888   1.554   7.181  11.647  0.0261 -0.2089 -0.0697
 1093SOL    HW120889   1.649   7.186  11.642  0.1359 -0.8566  1.1375
 1093SOL    HW220890   1.524   7.229  11.570  1.2680  2.2078  0.8572
 1094SOL     OW20891   4.281   1.855   3.958 -0.3525  0.0611  0.0232
 1094SOL    HW120892   4.252   1.911   4.031 -0.8571 -0.4598  0.2281
 1094SOL    HW220893   4.236   1.892   3.881 -0.3493  0.1963  0.0852
 1095SOL     OW20894   0.199   7.666  13.671  0.2904 -0.1273 -0.1258
 1095SOL    HW120895   0.226   7.753  13.702 -0.7423  0.3005 -0.3681
 1095SOL    HW220896   0.108   7.679  13.642  1.0004 -0.6165 -2.7918
 1096SOL     OW20897  10.476  11.120  12.222  0.3182  0.3673  0.3139
 1096SOL    HW120898  10.413  11.074  12.167 -0.8558  1.7627  0.4215
 1096SOL    HW220899  10.511  11.053  12.280  0.9282 -0.9662 -1.5033
 1097SOL     OW20900   1.033  10.033   2.556  0.5937  0.3782  0.0848
 1097SOL    HW120901   0.942  10.061   2.567  0.2577 -1.0020  1.0404
 1097SOL    HW220902   1.085  10.112   2.572 -0.4227  1.3448 -1.0992
 1098SOL     OW20903   8.152   1.820  13.183  0.1418 -0.2220  0.6017
 1098SOL    HW120904   8.110   1.818  13.097 -0.6041 -0.0994  0.9589
 1098SOL    HW220905   8.241   1.789  13.166  0.1087  0.1098 -0.2725
 1099SOL     OW20906  10.222   4.382   1.994  0.3368  0.3375 -0.9258
 1099SOL    HW120907  10.290   4.319   2.018  0.0841  0.8132  1.2472
 1099SOL    HW220908  10.269   4.460   1.967  0.7465  0.8712  1.1292
 1100SOL     OW20909   3.204   9.293   5.852  0.6460 -0.1790 -0.0430
 1100SOL    HW120910   3.245   9.225   5.799  1.0633 -1.2911  1.6307
 1100SOL    HW220911   3.112   9.266   5.857 -0.2282  1.7741 -2.9529
 1101SOL     OW20912   3.294   7.087   3.889 -0.3089 -0.9307 -0.6425
 1101SOL    HW120913   3.365   7.104   3.828  2.0746 -0.4028  2.0964
 1101SOL    HW220914   3.227   7.151   3.866  0.6562 -0.4628 -2.3685
 1102SOL     OW20915   0.563   8.042  12.338 -0.2562  0.1771  0.8347
 1102SOL    HW120916   0.477   8.078  12.318 -0.0396  0.4641  0.4094
 1102SOL    HW220917   0.546   7.977  12.406 -0.6788  0.8896  1.4143
 1103SOL     OW20918   1.854   6.580   9.175 -0.0226 -0.2605 -0.1589
 1103SOL    HW120919   1.785   6.616   9.119  0.2652  1.3478  0.4455
 1103SOL    HW220920   1.929   6.569   9.117 -0.3225 -0.5147 -0.4990
 1104SOL     OW20921   2.544   3.076  11.526  0.5194  0.4021 -0.1534
 1104SOL    HW120922   2.486   3.020  11.474  2.4619 -0.7793 -1.1908
 1104SOL    HW220923   2.496   3.158  11.536 -1.0609 -0.3001 -1.4858
 1105SOL     OW20924   4.065   6.554  12.997 -0.1475  0.0687 -0.5823
 1105SOL    HW120925   4.143   6.562  13.053  0.7865 -1.7246 -1.5232
 1105SOL    HW220926   4.054   6.641  12.959  0.6042  0.6932  0.5559
 1106SOL     OW20927  11.123   5.829   2.863  0.8164 -0.2414  0.2364
 1106SOL    HW120928  11.174   5.771   2.806  0.5472 -0.1557 -0.0999
 1106SOL    HW220929  11.032   5.811   2.839  0.7670  1.5445 -1.1314
 1107SOL     OW20930   1.138   9.947   6.931 -0.7930  0.2420  0.3497
 1107SOL    HW120931   1.140  10.041   6.912  0.3524  0.0211 -0.7712
 1107SOL    HW220932   1.230   9.925   6.948 -0.7658 -0.9995 -1.2025
 1108SOL     OW20933   3.222  14.031   4.533  0.0201 -0.3908 -0.5590
 1108SOL    HW120934   3.166  14.003   4.606  1.0185 -0.4028  0.2210
 1108SOL    HW220935   3.225  14.126   4.539  1.8377 -0.4734  0.7908
 1109SOL     OW20936   7.994   9.159   6.406  0.4184  0.1046  0.4926
 1109SOL    HW120937   7.964   9.245   6.376  1.4349  0.1377 -0.4760
 1109SOL    HW220938   7.969   9.098   6.337 -0.0937 -0.3548  1.0691
 1110SOL     OW20939  11.772   9.422   6.254  0.2917 -0.0562  0.6964
 1110SOL    HW120940  11.808   9.508   6.236  0.2363 -0.0453  0.6346
 1110SOL    HW220941  11.760   9.382   6.167 -1.4535  0.6019  0.5923
 1111SOL     OW20942   8.388   9.146   4.536  0.0925 -0.0982 -0.5383
 1111SOL    HW120943   8.420   9.191   4.614  0.6266  0.1900 -0.9159
 1111SOL    HW220944   8.442   9.067   4.530 -0.1407 -0.2639 -0.4563
 1112SOL     OW20945   5.636  12.763   2.872 -0.1946 -0.1636 -0.0528
 1112SOL    HW120946   5.683  12.789   2.793 -0.7871  0.3748 -0.2322
 1112SOL    HW220947   5.560  12.714   2.840 -0.2670 -0.2161  0.1949
 1113SOL     OW20948  13.292  11.496  12.709 -0.0559 -0.5628 -0.0514
 1113SOL    HW120949  13.259  11.429  12.649  0.2622 -0.6290 -0.1541
 1113SOL    HW220950  13.349  11.551  12.656  1.1035 -1.2680  0.4066
 1114SOL     OW20951   0.016   8.045   3.254  0.1672  0.4868  0.3591
 1114SOL    HW120952   0.038   8.138   3.258  0.9061  0.2669  2.1063
 1114SOL    HW220953   0.038   8.011   3.340 -1.5652 -1.0115  0.2665
 1115SOL     OW20954   9.658   8.310   0.166 -0.2126 -0.0412  0.2540
 1115SOL    HW120955   9.570   8.337   0.139  0.1674  1.7831  0.6980
 1115SOL    HW220956   9.661   8.216   0.149 -2.0746 -0.0439 -0.2274
 1116SOL     OW20957  12.662   8.545   8.103  0.1516  0.3910  0.3292
 1116SOL    HW120958  12.724   8.475   8.080 -0.3183 -0.5820  1.8755
 1116SOL    HW220959  12.645   8.532   8.196 -1.4750  1.3680  0.1955
 1117SOL     OW20960   6.024   8.169   5.946 -0.2121  0.3827  0.2313
 1117SOL    HW120961   6.072   8.095   5.982 -0.9859 -0.2888 -0.1028
 1117SOL    HW220962   5.961   8.192   6.014 -0.8664 -0.1201 -0.1985
 1118SOL     OW20963   0.916   0.381   7.311 -0.0866 -0.6232 -0.3818
 1118SOL    HW120964   0.970   0.431   7.249  0.9193  2.5241  2.6762
 1118SOL    HW220965   0.854   0.445   7.345 -0.1909 -1.9971  2.2596
 1119SOL     OW20966   0.361   5.549  10.081  0.7338 -0.0107  0.1423
 1119SOL    HW120967   0.371   5.644  10.075  1.3089 -0.1702 -2.2878
 1119SOL    HW220968   0.435   5.521  10.135  1.2618  0.8157 -0.1406
 1120SOL     OW20969  10.290   1.748   7.254  0.2472 -0.4886  0.4471
 1120SOL    HW120970  10.332   1.681   7.308 -0.8116 -1.0026  0.6565
 1120SOL    HW220971  10.211   1.773   7.302 -0.1217 -0.1367 -0.3131
 1121SOL     OW20972  11.823   3.673   1.823  0.3302  0.1097 -0.2916
 1121SOL    HW120973  11.880   3.611   1.869  0.8941 -0.1520 -1.3020
 1121SOL    HW220974  11.735   3.651   1.852  0.3067 -2.4083 -1.9443
 1122SOL     OW20975   0.478  10.892   7.774  0.2184 -0.0051  0.0985
 1122SOL    HW120976   0.456  10.880   7.682  0.6804  0.0154 -0.0177
 1122SOL    HW220977   0.403  10.938   7.811 -0.4104 -0.8956 -0.0422
 1123SOL     OW20978   2.920  10.222   3.843 -0.0281  0.4471 -0.4046
 1123SOL    HW120979   2.826  10.207   3.854  0.0316 -0.4563 -1.0009
 1123SOL    HW220980   2.930  10.317   3.848 -0.9222  0.5313  0.0328
 1124SOL     OW20981  13.261   2.617   3.223  0.0994 -0.4071 -0.0314
 1124SOL    HW120982  13.209   2.574   3.291  1.2674 -0.6331  0.7564
 1124SOL    HW220983  13.242   2.711   3.235 -0.7421 -0.5365 -0.2957
 1125SOL     OW20984   3.852   2.272   1.509 -0.5001 -0.5754  0.0658
 1125SOL    HW120985   3.782   2.324   1.469 -0.7509 -1.5757 -0.8702
 1125SOL    HW220986   3.925   2.278   1.446  0.1408  0.1619  0.8590
 1126SOL     OW20987   1.637  12.143   7.115  0.4360 -0.1926  0.4292
 1126SOL    HW120988   1.590  12.193   7.048  0.5741 -0.4096  0.1737
 1126SOL    HW220989   1.600  12.175   7.198  0.5523  0.3635  0.2678
 1127SOL     OW20990   1.136   6.543   6.617 -0.9787  0.1146  0.5534
 1127SOL    HW120991   1.150   6.638   6.617  1.0394 -0.1362  0.3390
 1127SOL    HW220992   1.137   6.519   6.525 -0.6776 -0.1992  0.6360
 1128SOL     OW20993  12.742   8.026   0.956  0.4107 -0.7312  0.3985
 1128SOL    HW120994  12.796   8.086   1.008 -0.4443 -2.1713  3.1925
 1128SOL    HW220995  12.652   8.048   0.981  0.0660 -2.7889  1.1669
 1129SOL     OW20996  13.083  10.570  12.500 -0.2527  0.3253  0.5905
 1129SOL    HW120997  13.055  10.490  12.455  0.5743 -0.0352  0.6927
 1129SOL    HW220998  13.113  10.540  12.586 -1.1325  0.9132  1.1259
 1130SOL     OW20999  10.583   3.487   0.383 -0.1075  0.0661 -0.0533
 1130SOL    HW121000  10.671   3.476   0.346  0.9941  0.0079  2.4399
 1130SOL    HW221001  10.571   3.582   0.387  0.0831  0.0849  0.1226
 1131SOL     OW21002   4.260   5.345   4.518 -0.1964  0.2342  0.3513
 1131SOL    HW121003   4.180   5.306   4.552 -0.5720  0.0212 -0.7444
 1131SOL    HW221004   4.254   5.438   4.543 -0.3902  0.0550  0.9729
 1132SOL     OW21005   6.257   8.483   6.785 -0.0421  0.1471 -0.1219
 1132SOL    HW121006   6.237   8.482   6.879 -1.2495  0.0132 -0.3634
 1132SOL    HW221007   6.307   8.403   6.770  1.6283  0.9923  0.6876
 1133SOL     OW21008  11.697   4.735   9.743 -0.3109  0.3634  0.1302
 1133SOL    HW121009  11.680   4.641   9.737 -0.9303  0.3676  1.6033
 1133SOL    HW221010  11.707   4.762   9.651  1.6918 -1.4274 -0.2717
 1134SOL     OW21011   4.825   6.980   3.698  0.3197 -0.0585 -0.0633
 1134SOL    HW121012   4.742   6.982   3.745 -0.1954  0.2987 -0.9684
 1134SOL    HW221013   4.842   6.887   3.683 -0.5159 -0.0984 -0.8853
 1135SOL     OW21014   8.455  13.328  12.869 -0.0918  0.2976  0.2452
 1135SOL    HW121015   8.536  13.355  12.825 -0.3181 -0.9179 -0.9574
 1135SOL    HW221016   8.412  13.268  12.808 -1.3448  0.0130  1.3482
 1136SOL     OW21017   6.789   0.064   9.580  0.4175  0.6586 -0.1309
 1136SOL    HW121018   6.724   0.107   9.524  0.4234  0.0184 -0.6389
 1136SOL    HW221019   6.744   0.052   9.664  0.2896  1.3016 -0.0990
 1137SOL     OW21020   9.683   5.913  10.768  0.3392 -0.4687  0.9355
 1137SOL    HW121021   9.717   5.878  10.850  0.2023 -2.0494  0.3713
 1137SOL    HW221022   9.693   5.840  10.706  0.2141  0.6050 -0.3822
 1138SOL     OW21023   3.180   2.426   4.836 -0.1427  0.0755 -0.3997
 1138SOL    HW121024   3.117   2.354   4.827 -1.1527  1.0697 -1.8838
 1138SOL    HW221025   3.161   2.463   4.922 -0.0463 -1.0025  0.1080
 1139SOL     OW21026   6.666   8.563   2.375  0.0093 -0.6818 -0.8221
 1139SOL    HW121027   6.601   8.535   2.440  0.9708  0.5246  0.7412
 1139SOL    HW221028   6.662   8.659   2.378  2.9275 -0.4976  0.5314
 1140SOL     OW21029   3.489   8.745  14.008 -0.1062 -0.0317  0.4532
 1140SOL    HW121030   3.431   8.767  14.082 -0.0854  0.8103  0.2269
 1140SOL    HW221031   3.433   8.752  13.931  0.3099  0.8895  0.2220
 1141SOL     OW21032   2.678   7.680   0.740 -0.0115 -0.5571 -0.3940
 1141SOL    HW121033   2.597   7.639   0.712 -0.7155 -0.1106  0.8999
 1141SOL    HW221034   2.745   7.641   0.685 -1.0021 -1.5068 -0.9635
 1142SOL     OW21035   4.642  12.362   2.987  0.3591  0.1654  0.0448
 1142SOL    HW121036   4.696  12.321   3.055 -0.1465 -0.1690  0.2539
 1142SOL    HW221037   4.607  12.441   3.029  1.5519  0.9911 -0.4450
 1143SOL     OW21038  11.035   8.237   8.114 -0.3268  0.3351  0.3805
 1143SOL    HW121039  11.031   8.324   8.075  1.3236 -0.5414 -2.0031
 1143SOL    HW221040  10.983   8.182   8.055  0.4497 -0.6719  0.5940
 1144SOL     OW21041   0.648   7.990   3.114 -0.4849 -0.2698  0.4280
 1144SOL    HW121042   0.662   7.897   3.131 -1.3357 -0.6933 -0.9718
 1144SOL    HW221043   0.561   8.008   3.150 -0.2130  0.0575  0.9296
 1145SOL     OW21044   5.774  13.155   0.143  0.6055  0.7288  0.2246
 1145SOL    HW121045   5.724  13.186   0.219 -0.1184 -0.1685  0.1252
 1145SOL    HW221046   5.819  13.076   0.175 -0.3614 -0.1305 -0.4966
 1146SOL     OW21047  10.305   8.839   1.320  0.1713  0.2989  0.3477
 1146SOL    HW121048  10.345   8.903   1.379 -2.1634  1.8477  0.3655
 1146SOL    HW221049  10.377   8.811   1.263  1.4488  2.3063  0.8720
 1147SOL     OW21050  11.007  11.855  12.577  0.5755 -0.0743 -0.2651
 1147SOL    HW121051  10.931  11.811  12.541  0.3913  0.4118 -0.4745
 1147SOL    HW221052  11.075  11.844  12.510  0.3887  0.3697 -0.5339
 1148SOL     OW21053   7.170   7.441   1.048 -0.1830 -0.4475  0.1403
 1148SOL    HW121054   7.148   7.461   1.139  0.2538  0.3846  0.0774
 1148SOL    HW221055   7.086   7.418   1.008 -0.3393 -1.1007  0.8159
 1149SOL     OW21056   5.963  11.178   0.472 -0.1976  0.1024 -0.2960
 1149SOL    HW121057   5.893  11.201   0.532  1.1252  0.1508  1.3032
 1149SOL    HW221058   5.995  11.094   0.504  0.3849  0.0208 -1.0681
 1150SOL     OW21059   6.552  13.564   3.047  0.0599  0.8024  0.1207
 1150SOL    HW121060   6.508  13.642   3.081  1.0698  1.1014  0.7690
 1150SOL    HW221061   6.640  13.567   3.085 -0.1614 -1.1211  0.9143
 1151SOL     OW21062   0.147   7.176   0.502 -0.4269 -0.0200  0.0023
 1151SOL    HW121063   0.185   7.109   0.558  1.1233 -0.2615 -1.2748
 1151SOL    HW221064   0.222   7.219   0.461 -1.4347  1.5368 -0.3185
 1152SOL     OW21065  11.270   0.102   8.522  0.0600 -0.1593 -0.2971
 1152SOL    HW121066  11.240   0.014   8.544  1.0735 -0.3940  0.2139
 1152SOL    HW221067  11.347   0.088   8.467  0.6019  0.3825  0.2942
 1153SOL     OW21068  10.180   4.445  11.995 -0.3792  0.1315 -0.4439
 1153SOL    HW121069  10.163   4.361  12.038  1.3894 -1.0658 -1.9230
 1153SOL    HW221070  10.268   4.469  12.023  1.2013 -1.1030 -3.8049
 1154SOL     OW21071   0.143   3.286   9.477 -0.4471 -0.1314  0.3413
 1154SOL    HW121072   0.077   3.238   9.527 -1.5757  0.1363 -0.8592
 1154SOL    HW221073   0.140   3.247   9.390 -0.6815  1.4447 -0.3800
 1155SOL     OW21074   4.461   1.590  11.953  0.3008  0.7871  0.3607
 1155SOL    HW121075   4.475   1.672  12.001 -2.0943  0.0199  2.5871
 1155SOL    HW221076   4.367   1.575  11.959  0.4847 -1.4063 -1.2900
 1156SOL     OW21077  10.799   2.191   3.701 -0.1644 -0.1779 -0.1193
 1156SOL    HW121078  10.719   2.148   3.671  0.6898 -0.6986 -1.7833
 1156SOL    HW221079  10.775   2.230   3.785 -2.3356  0.2308 -0.8562
 1157SOL     OW21080   8.617   9.989   1.224 -0.6290 -0.0034 -0.2969
 1157SOL    HW121081   8.607  10.003   1.318  1.6855  0.6663 -0.0883
 1157SOL    HW221082   8.637   9.895   1.215 -0.0139  0.0987 -0.0215
 1158SOL     OW21083  11.226   8.703   6.947  0.5383 -0.1870  0.4980
 1158SOL    HW121084  11.258   8.781   6.993  1.9552  0.0691 -0.8310
 1158SOL    HW221085  11.302   8.672   6.898 -0.4542 -1.4638 -0.2905
 1159SOL     OW21086   6.880   8.964   2.557 -0.2719 -0.3632 -0.3893
 1159SOL    HW121087   6.932   9.041   2.582 -0.9444  0.0690 -0.3021
 1159SOL    HW221088   6.934   8.889   2.583  2.1631 -0.0709 -3.8625
 1160SOL     OW21089   2.957   2.060   1.186  0.4304 -0.3889  0.9104
 1160SOL    HW121090   2.955   2.000   1.111  2.8370 -0.4229  0.8187
 1160SOL    HW221091   2.886   2.030   1.243 -3.0520  0.9419 -2.2371
 1161SOL     OW21092   3.924  11.125   9.899  0.1378  0.0941  0.4123
 1161SOL    HW121093   3.859  11.192   9.878 -0.5607 -0.4871  0.6894
 1161SOL    HW221094   3.897  11.048   9.848  1.1520  0.1283 -0.2048
 1162SOL     OW21095  13.859   2.640  13.686 -0.5731  0.0315  0.2276
 1162SOL    HW121096  13.895   2.565  13.639  0.1542 -0.2850  1.2489
 1162SOL    HW221097  13.799   2.602  13.750 -0.8559  0.3854  0.1747
 1163SOL     OW21098   7.440   3.411   6.707  0.5820 -0.3117  0.2300
 1163SOL    HW121099   7.402   3.381   6.790 -0.0436 -1.3652 -0.4221
 1163SOL    HW221100   7.525   3.367   6.703  1.7333  1.6718  1.4603
 1164SOL     OW21101  12.063  12.331  11.663 -0.1500 -0.3643 -0.2870
 1164SOL    HW121102  12.097  12.242  11.670  1.2533  0.2884  3.5589
 1164SOL    HW221103  12.138  12.383  11.633 -0.3676 -0.1898 -0.5286
 1165SOL     OW21104  13.891  11.607  12.569  0.1746 -0.2197  0.2791
 1165SOL    HW121105  13.918  11.594  12.660 -0.6839 -1.4174  0.3805
 1165SOL    HW221106  13.863  11.520  12.539  1.3210 -0.0594 -1.4314
 1166SOL     OW21107  11.918   2.996   5.031  0.3910  0.1221 -0.2469
 1166SOL    HW121108  12.006   2.960   5.020  0.1060 -0.2251 -1.5657
 1166SOL    HW221109  11.879   2.943   5.100  1.1181  0.0978  0.1537
 1167SOL     OW21110   8.627   0.435   4.964  0.0267 -0.1053  0.1964
 1167SOL    HW121111   8.702   0.427   4.906 -0.4510  1.6018 -0.7230
 1167SOL    HW221112   8.663   0.472   5.045  0.3105 -0.1325  0.0815
 1168SOL     OW21113   5.009   4.594   4.385 -0.0401  0.5392 -0.1758
 1168SOL    HW121114   5.004   4.637   4.300  0.1710  1.4813  0.2642
 1168SOL    HW221115   5.011   4.667   4.448 -0.2387 -0.1345  0.6333
 1169SOL     OW21116   6.462   8.701   4.900  0.1381  0.0726  0.1075
 1169SOL    HW121117   6.385   8.741   4.940  0.1948 -0.3774  0.6894
 1169SOL    HW221118   6.515   8.670   4.975  0.9550  0.5066 -0.2737
 1170SOL     OW21119   4.833   8.371   3.917  0.6786  0.3223  0.2342
 1170SOL    HW121120   4.911   8.417   3.888  0.7623  0.2084  0.2774
 1170SOL    HW221121   4.790   8.342   3.837  0.1313  1.2775  0.1646
 1171SOL     OW21122   2.363   7.917  12.388 -0.0563  0.1594  0.0290
 1171SOL    HW121123   2.272   7.891  12.399 -0.4916  0.5047 -2.3109
 1171SOL    HW221124   2.372   7.996  12.441 -1.1978  0.2884  0.0547
 1172SOL     OW21125   3.180   7.678  10.051 -0.1477  0.0995 -0.1017
 1172SOL    HW121126   3.172   7.654  10.143 -1.4472  1.1808  0.0899
 1172SOL    HW221127   3.200   7.595  10.007 -0.1894 -0.5515  1.0534
 1173SOL     OW21128   7.488   6.655   6.685 -0.4131  0.3940 -0.1613
 1173SOL    HW121129   7.566   6.666   6.631 -1.7505  0.4128 -2.2062
 1173SOL    HW221130   7.481   6.561   6.698  0.8638  0.4875  1.5419
 1174SOL     OW21131  13.765   4.809   5.926 -0.1296  0.1193 -0.1639
 1174SOL    HW121132  13.829   4.777   5.862 -0.2123  0.8957 -0.6414
 1174SOL    HW221133  13.799   4.781   6.010  1.2202  1.1430 -0.3441
 1175SOL     OW21134   0.734   0.528  12.202 -0.4099 -0.2165  1.0963
 1175SOL    HW121135   0.693   0.533  12.288  0.7599  1.3188  1.6311
 1175SOL    HW221136   0.740   0.620  12.173  0.3818 -0.5983 -0.0296
 1176SOL     OW21137   2.216   2.858  11.871 -0.5588 -0.5301  0.0983
 1176SOL    HW121138   2.157   2.793  11.909 -2.0279 -0.3675 -1.7449
 1176SOL    HW221139   2.204   2.936  11.925 -1.7715 -0.6195 -0.0207
 1177SOL     OW21140   9.789   6.161  10.473 -0.7245  0.0663  0.3522
 1177SOL    HW121141   9.799   6.256  10.467 -0.0819 -0.1001 -2.4446
 1177SOL    HW221142   9.700   6.144  10.443 -1.4964 -0.1797  2.5400
 1178SOL     OW21143   1.321  12.018   4.997 -0.7109 -0.8753 -0.4314
 1178SOL    HW121144   1.406  11.990   5.031 -0.8316 -1.3544 -0.5163
 1178SOL    HW221145   1.333  12.019   4.902 -0.3057  0.6806 -0.3952
 1179SOL     OW21146   2.792   6.927  13.383 -0.3754  0.7363 -0.1127
 1179SOL    HW121147   2.821   7.008  13.341  1.1954  0.6556  0.7219
 1179SOL    HW221148   2.836   6.857  13.333  0.8242  0.5995  1.0730
 1180SOL     OW21149   4.693  14.014  11.583  0.3390  0.0581 -0.5798
 1180SOL    HW121150   4.603  14.022  11.552  0.1657 -0.9854 -0.3709
 1180SOL    HW221151   4.745  14.002  11.504  0.0039 -1.6998 -0.5722
 1181SOL     OW21152   2.503   8.963  13.395  0.0458 -0.4581  0.2388
 1181SOL    HW121153   2.520   9.049  13.357 -2.9653  0.4798  0.7625
 1181SOL    HW221154   2.450   8.980  13.473  0.0467 -2.7619  0.8408
 1182SOL     OW21155  11.456   9.310  11.803  0.7705 -0.2981  0.6346
 1182SOL    HW121156  11.432   9.282  11.892 -0.9769  1.2928  0.7373
 1182SOL    HW221157  11.511   9.387  11.817  0.5642 -0.0982  0.3585
 1183SOL     OW21158   2.559  11.823   4.055  0.4241 -0.1234 -0.7150
 1183SOL    HW121159   2.574  11.786   4.142 -0.6903  0.2271 -0.3615
 1183SOL    HW221160   2.474  11.865   4.061  0.6664  0.5531 -1.7690
 1184SOL     OW21161   5.708   1.413   4.071  0.8836 -0.1270 -0.3992
 1184SOL    HW121162   5.788   1.367   4.099  2.3358  1.3844 -1.8265
 1184SOL    HW221163   5.730   1.449   3.985 -1.7424 -0.5631 -1.3417
 1185SOL     OW21164   0.662   3.472   1.318 -0.1509  0.5764 -0.5860
 1185SOL    HW121165   0.629   3.395   1.271 -1.9392  0.7808  0.2799
 1185SOL    HW221166   0.684   3.439   1.405  0.1673  0.8317 -0.5672
 1186SOL     OW21167   4.305   0.223   7.739  0.0589 -0.2262 -0.0972
 1186SOL    HW121168   4.334   0.132   7.748 -1.2259 -0.5360  1.2512
 1186SOL    HW221169   4.241   0.219   7.668  1.6477  0.0809 -1.6161
 1187SOL     OW21170  12.705   3.855   4.540 -0.2188  0.1355  0.4256
 1187SOL    HW121171  12.624   3.812   4.516  0.7002 -0.4208 -2.0262
 1187SOL    HW221172  12.686   3.949   4.534 -0.7375  0.0080  0.0810
 1188SOL     OW21173   6.930   5.078  13.130  0.3466  0.4119  0.0005
 1188SOL    HW121174   6.852   5.034  13.097  0.4600 -0.3264  0.6651
 1188SOL    HW221175   6.928   5.165  13.091 -0.2450  0.0382 -0.8233
 1189SOL     OW21176   3.841  13.776   8.744 -0.3602 -0.0254 -0.3746
 1189SOL    HW121177   3.918  13.774   8.801 -0.5902 -2.2819 -0.0433
 1189SOL    HW221178   3.766  13.777   8.804 -0.6518  2.7960 -0.6925
 1190SOL     OW21179   4.061  11.433   6.810 -0.4389  0.1843 -0.4435
 1190SOL    HW121180   4.116  11.496   6.763 -0.2394  1.3105  1.2105
 1190SOL    HW221181   4.122  11.384   6.865 -0.9785  1.0656  0.9926
 1191SOL     OW21182   0.587   0.647  13.381 -0.1732  0.3983 -0.1204
 1191SOL    HW121183   0.622   0.582  13.441 -0.7219  1.5894  1.5683
 1191SOL    HW221184   0.509   0.605  13.343 -0.4790  0.0183  0.8926
 1192SOL     OW21185   7.754   3.298   7.239 -0.1951  0.4983  0.3981
 1192SOL    HW121186   7.701   3.229   7.278  1.7964 -1.9476 -0.8844
 1192SOL    HW221187   7.712   3.316   7.155  0.8943 -1.4999 -0.6582
 1193SOL     OW21188   6.881   8.701   7.330 -0.0565  0.6084  1.1609
 1193SOL    HW121189   6.926   8.669   7.408  1.1908 -1.5263 -0.3449
 1193SOL    HW221190   6.875   8.625   7.272  0.5526  2.4583 -1.5342
 1194SOL     OW21191   8.159   1.496   7.342  0.3299 -0.1129  0.3633
 1194SOL    HW121192   8.231   1.555   7.320  0.5276 -0.5502 -0.1857
 1194SOL    HW221193   8.128   1.463   7.258 -1.5318  1.2349  0.4598
 1195SOL     OW21194  11.252  12.536   9.158 -0.0420  0.0772  0.4318
 1195SOL    HW121195  11.179  12.589   9.127  0.7382 -0.1978 -2.0864
 1195SOL    HW221196  11.329  12.574   9.116  1.0793 -0.6017  1.7934
 1196SOL     OW21197   5.040   1.720   8.120  0.0197 -0.0965 -0.2814
 1196SOL    HW121198   5.022   1.811   8.143 -0.4768 -0.2927  0.1205
 1196SOL    HW221199   4.973   1.698   8.054  1.1496  0.3238 -1.6191
 1197SOL     OW21200   5.662   3.577   7.489  0.0251 -0.0437 -0.4555
 1197SOL    HW121201   5.710   3.554   7.409 -0.3086  2.6011 -1.5188
 1197SOL    HW221202   5.573   3.596   7.459 -0.6802 -1.0025  0.9031
 1198SOL     OW21203  12.853   6.733   8.138  0.3303  0.3449 -0.1253
 1198SOL    HW121204  12.941   6.713   8.168  0.1245 -1.7431 -0.7607
 1198SOL    HW221205  12.838   6.674   8.064 -1.7880  0.2211  0.3209
 1199SOL     OW21206  12.610   7.156   9.015 -0.3406 -0.1696 -0.7106
 1199SOL    HW121207  12.671   7.171   9.087 -0.7729 -2.1392  0.1422
 1199SOL    HW221208  12.659   7.180   8.937  0.9371 -0.1117  0.0724
 1200SOL     OW21209   9.661   0.892   1.549  0.0321 -0.5312 -0.7652
 1200SOL    HW121210   9.584   0.909   1.603  1.0230  2.1246 -0.0402
 1200SOL    HW221211   9.639   0.927   1.463 -0.7293 -2.7823 -1.5508
 1201SOL     OW21212   7.326   3.250  13.053 -0.2668  0.3010 -0.0062
 1201SOL    HW121213   7.389   3.178  13.041 -1.2423 -0.4160 -0.9872
 1201SOL    HW221214   7.345   3.310  12.981  0.6943  1.1905  0.9371
 1202SOL     OW21215   2.585   8.734   0.368 -0.3575  0.6069 -0.0261
 1202SOL    HW121216   2.584   8.797   0.441  1.4188  0.9628 -0.2748
 1202SOL    HW221217   2.549   8.783   0.294  1.4359  1.5452 -0.3395
 1203SOL     OW21218   0.598   8.699   9.123  0.3446 -0.3502  0.0233
 1203SOL    HW121219   0.530   8.678   9.059  1.0404 -0.2381 -0.7659
 1203SOL    HW221220   0.553   8.753   9.189 -0.1813  0.2886 -0.8349
 1204SOL     OW21221   6.660   2.580   7.049 -1.1071 -0.3149  0.2005
 1204SOL    HW121222   6.688   2.588   6.958 -2.2525 -0.5153 -0.1851
 1204SOL    HW221223   6.735   2.542   7.094 -0.3557  0.2427 -0.5578
 1205SOL     OW21224   2.553   6.557   9.672 -0.0288  0.6559 -0.1974
 1205SOL    HW121225   2.469   6.512   9.664 -0.5077  1.5189 -0.0865
 1205SOL    HW221226   2.532   6.650   9.669  1.0820  0.9003 -1.8302
 1206SOL     OW21227  10.575   1.792   7.675  0.1301  0.2555 -0.1284
 1206SOL    HW121228  10.598   1.837   7.593 -0.0281  0.2268 -0.1901
 1206SOL    HW221229  10.525   1.715   7.646 -1.2882  1.0753  0.0642
 1207SOL     OW21230   3.605   3.951   6.667 -0.4656 -0.7668 -0.4426
 1207SOL    HW121231   3.513   3.946   6.639 -0.8600 -3.3730  1.0245
 1207SOL    HW221232   3.645   3.871   6.631  1.0024 -0.1548 -0.2342
 1208SOL     OW21233   7.845   0.307   3.379 -0.8222 -0.5808 -0.2237
 1208SOL    HW121234   7.932   0.314   3.339 -0.8796 -0.4258 -0.3193
 1208SOL    HW221235   7.830   0.392   3.419 -0.0329 -1.2556  1.6329
 1209SOL     OW21236  13.749  12.599   3.960  0.2812 -0.0996 -0.3742
 1209SOL    HW121237  13.694  12.667   3.923 -0.3207  0.2839  1.1250
 1209SOL    HW221238  13.838  12.630   3.948  0.0346  0.6937 -0.2152
 1210SOL     OW21239  10.034   3.749  13.368 -0.4454 -0.1803 -0.2701
 1210SOL    HW121240  10.052   3.842  13.382 -1.4488  0.3550 -2.2326
 1210SOL    HW221241  10.007   3.717  13.454  3.0831  0.5068  1.2737
 1211SOL     OW21242   5.034   4.425  11.005 -0.1842  0.1078  0.2728
 1211SOL    HW121243   5.071   4.431  10.917  0.0793  0.5406  0.4073
 1211SOL    HW221244   5.101   4.378  11.055  0.6351  1.6623  0.7336
 1212SOL     OW21245   2.020   3.732   3.716  0.3676  0.5331 -0.6660
 1212SOL    HW121246   1.952   3.799   3.719  0.8274  0.9955 -0.3997
 1212SOL    HW221247   2.030   3.712   3.623 -0.5596  0.0179 -0.6589
 1213SOL     OW21248   4.564   8.499  13.331 -0.2073  0.2033  0.1524
 1213SOL    HW121249   4.472   8.489  13.355  0.4560  1.8349  4.2995
 1213SOL    HW221250   4.569   8.585  13.289 -0.7245 -0.4853 -1.3528
 1214SOL     OW21251   0.511   0.107   4.772  0.3944  0.2082  0.4871
 1214SOL    HW121252   0.512   0.153   4.855  1.0063  0.2305  0.4690
 1214SOL    HW221253   0.514   0.014   4.796 -1.7131  0.0982  0.5572
 1215SOL     OW21254   6.242   6.319  12.809 -0.3521 -0.6075 -0.3764
 1215SOL    HW121255   6.307   6.259  12.846  0.6796 -0.2702 -1.5814
 1215SOL    HW221256   6.218   6.280  12.725 -0.7984 -0.0963 -0.4925
 1216SOL     OW21257   6.703   4.617   1.787  0.2244  0.3297  0.2445
 1216SOL    HW121258   6.629   4.567   1.820  0.3931 -0.1157 -0.0512
 1216SOL    HW221259   6.666   4.673   1.719  0.1673  0.0536  0.0459
 1217SOL     OW21260   3.650  12.503   8.648 -0.1949 -0.1857 -0.7341
 1217SOL    HW121261   3.601  12.476   8.570 -0.0419  0.0144 -0.9012
 1217SOL    HW221262   3.740  12.510   8.618  0.2012 -2.0265 -0.0716
 1218SOL     OW21263   2.716  11.257  11.880 -0.0666 -0.2938 -0.0209
 1218SOL    HW121264   2.774  11.251  11.804 -3.0063  2.9829 -2.8821
 1218SOL    HW221265   2.755  11.325  11.935 -0.2073  0.5881 -0.9826
 1219SOL     OW21266   7.968   3.426   2.656 -0.3536 -0.0227 -0.0971
 1219SOL    HW121267   7.906   3.497   2.639 -2.7028 -1.6628  0.9812
 1219SOL    HW221268   7.958   3.367   2.581  0.5213  0.0699 -0.2973
 1220SOL     OW21269   4.800   8.415   1.753  0.1421  0.4998 -0.2562
 1220SOL    HW121270   4.844   8.496   1.728 -1.5028  1.3999 -0.3698
 1220SOL    HW221271   4.781   8.425   1.846  0.3544  0.0115 -0.1525
 1221SOL     OW21272  10.215  11.222  10.786  0.4522 -0.3115 -0.6397
 1221SOL    HW121273  10.230  11.305  10.832  0.3907 -0.1488 -0.9089
 1221SOL    HW221274  10.274  11.226  10.711  1.1672 -0.9413 -0.1296
 1222SOL     OW21275  10.613   1.265  13.496 -0.0398  0.1434 -0.1506
 1222SOL    HW121276  10.694   1.307  13.524  0.1832 -1.0772  1.1087
 1222SOL    HW221277  10.557   1.266  13.573 -1.3106  1.0754 -1.0329
 1223SOL     OW21278   7.078  10.091   6.414 -0.4367 -0.3862 -0.2447
 1223SOL    HW121279   7.036  10.006   6.401  0.6837 -1.4541  2.5296
 1223SOL    HW221280   7.010  10.147   6.450 -0.3429 -1.2152  1.3102
 1224SOL     OW21281   7.107  11.992   1.129  0.1791 -0.3305  0.1217
 1224SOL    HW121282   7.090  12.053   1.057 -0.6258 -0.9793 -0.2557
 1224SOL    HW221283   7.153  12.045   1.195  3.2180 -0.2771 -1.8251
 1225SOL     OW21284   0.430   1.460   2.978  0.3666  0.4433  0.3880
 1225SOL    HW121285   0.456   1.460   3.070 -0.5817  1.8085  0.6907
 1225SOL    HW221286   0.335   1.447   2.980  0.2212  1.2887 -0.3272
 1226SOL     OW21287  12.195   1.954   5.876  0.7479 -0.3590  0.2813
 1226SOL    HW121288  12.199   1.894   5.951  0.3764  0.8863  1.3314
 1226SOL    HW221289  12.142   2.027   5.907  0.2439 -0.0082 -1.3577
 1227SOL     OW21290   0.428   6.098   0.948 -0.1224  0.2846  0.2283
 1227SOL    HW121291   0.509   6.069   0.989 -0.5274 -1.5834 -0.2036
 1227SOL    HW221292   0.449   6.183   0.909  1.4443  0.1066  0.6382
 1228SOL     OW21293   2.212   6.908   8.215 -0.4252  0.6650 -0.1614
 1228SOL    HW121294   2.290   6.952   8.248  0.0728 -1.0715  1.1484
 1228SOL    HW221295   2.208   6.826   8.265 -1.3821 -0.7014 -2.3319
 1229SOL     OW21296  13.702   1.345   6.626 -0.5497 -0.5404  0.2555
 1229SOL    HW121297  13.632   1.411   6.617 -0.7760 -0.7115  0.7581
 1229SOL    HW221298  13.693   1.291   6.547 -0.7422 -0.3344  0.1329
 1230SOL     OW21299   6.890   6.188  12.730  0.1482 -0.5872  0.3127
 1230SOL    HW121300   6.830   6.239  12.676 -0.6109 -1.3413  0.4264
 1230SOL    HW221301   6.864   6.208  12.820 -0.3132 -1.3479  0.3548
 1231SOL     OW21302  10.876   0.237   7.714 -0.5300  0.8838 -0.4393
 1231SOL    HW121303  10.823   0.314   7.694 -2.5308  0.5163  2.7151
 1231SOL    HW221304  10.964   0.271   7.727 -0.6829  2.0804 -2.2181
 1232SOL     OW21305   5.264  13.450   2.457 -0.0298  0.1025  0.7336
 1232SOL    HW121306   5.207  13.487   2.390  0.1338 -0.0139  0.5304
 1232SOL    HW221307   5.349  13.493   2.444  0.5304 -1.2369 -0.3195
 1233SOL     OW21308   8.249  10.909   6.389  0.0510 -0.2672  0.5524
 1233SOL    HW121309   8.247  11.004   6.387 -1.2225 -0.2942 -0.1190
 1233SOL    HW221310   8.172  10.884   6.441 -0.2154 -0.9412 -0.1463
 1234SOL     OW21311   7.866  11.323   9.983 -0.3586 -0.1644 -0.8381
 1234SOL    HW121312   7.927  11.397   9.978  2.2324 -2.2166 -3.0795
 1234SOL    HW221313   7.798  11.342   9.919 -0.1938  0.6395 -0.7807
 1235SOL     OW21314   1.533  11.611   1.999  0.6686  0.1369  0.0182
 1235SOL    HW121315   1.585  11.550   2.053 -2.1744 -1.1680  1.4962
 1235SOL    HW221316   1.568  11.600   1.911  2.2710 -1.3226  0.7662
 1236SOL     OW21317  11.151   7.635   4.032 -0.2526  0.2167 -0.0763
 1236SOL    HW121318  11.226   7.614   4.088  0.2818 -1.2825 -1.2785
 1236SOL    HW221319  11.149   7.731   4.028  1.2248  0.2859  0.4784
 1237SOL     OW21320   5.360   4.474  12.055  0.0419 -1.1065 -0.3174
 1237SOL    HW121321   5.409   4.522  11.988  0.5358 -0.7572  0.2885
 1237SOL    HW221322   5.356   4.384  12.022  0.7672 -1.0601 -0.5548
 1238SOL     OW21323  13.189   8.663   1.920  0.5745 -0.5441 -0.1956
 1238SOL    HW121324  13.269   8.700   1.957  0.5135 -0.4489 -0.1573
 1238SOL    HW221325  13.164   8.594   1.981  0.3139 -0.1940  0.1024
 1239SOL     OW21326   5.542   0.050   8.254  0.3142  0.4812 -0.3122
 1239SOL    HW121327   5.585  -0.006   8.189  1.1232  0.4012  0.2645
 1239SOL    HW221328   5.450   0.049   8.230  0.5951  0.4651 -1.4602
 1240SOL     OW21329   1.559   6.640  11.445  0.2598 -0.0239 -0.4944
 1240SOL    HW121330   1.615   6.716  11.460 -0.8885  0.3995  2.0727
 1240SOL    HW221331   1.615   6.565  11.464  0.1937  0.3830  1.5281
 1241SOL     OW21332   9.825   9.966   3.470  0.3418  0.1875  0.1075
 1241SOL    HW121333   9.812   9.872   3.486 -1.5202  0.0089 -2.0833
 1241SOL    HW221334   9.764  10.009   3.530  0.4368 -0.0303  0.3655
 1242SOL     OW21335   6.627   4.097  13.651  0.0432 -0.1419  0.4395
 1242SOL    HW121336   6.719   4.073  13.646  0.2367  0.7325 -0.5616
 1242SOL    HW221337   6.625   4.175  13.708  0.2541  1.2203 -1.3226
 1243SOL     OW21338   2.873   4.378   7.264 -0.3404 -0.3821 -0.1416
 1243SOL    HW121339   2.929   4.335   7.199  2.5633  1.1266  1.1642
 1243SOL    HW221340   2.898   4.339   7.347 -0.9015  0.6921  0.5543
 1244SOL     OW21341   4.577  13.920   7.629  0.5312  0.2113 -0.6309
 1244SOL    HW121342   4.664  13.945   7.598  0.0673  1.8704 -0.6958
 1244SOL    HW221343   4.553  13.845   7.575  2.0222 -0.4603 -0.4153
 1245SOL     OW21344   9.162   5.940   5.185  0.3124  0.3144  0.0048
 1245SOL    HW121345   9.194   6.025   5.154 -1.0777  0.4135 -1.2615
 1245SOL    HW221346   9.136   5.956   5.276 -0.2816  1.3519 -0.3314
 1246SOL     OW21347   3.815   4.141  13.285  0.1905  0.1054  0.1737
 1246SOL    HW121348   3.874   4.139  13.361  0.2839  0.1523  0.1021
 1246SOL    HW221349   3.727   4.150  13.324  0.2351  0.0907  0.2784
 1247SOL     OW21350   4.789   8.818   0.101  0.5462  0.0430  0.0826
 1247SOL    HW121351   4.848   8.863   0.040 -0.0478 -0.7895 -1.1461
 1247SOL    HW221352   4.711   8.798   0.050  0.4732 -1.6791  0.7798
 1248SOL     OW21353   8.569   6.645   4.537 -0.1168  0.3426 -0.7854
 1248SOL    HW121354   8.569   6.566   4.591 -1.0029 -0.9320 -2.5411
 1248SOL    HW221355   8.534   6.713   4.594 -0.6008 -0.8429  0.3793
 1249SOL     OW21356  11.726  12.777   0.607 -0.5166  0.1908  0.6910
 1249SOL    HW121357  11.639  12.805   0.579 -1.4135 -1.8621  1.2978
 1249SOL    HW221358  11.754  12.714   0.542  0.2658  0.3623  0.8460
 1250SOL     OW21359   5.023   9.661  13.673 -0.8355  0.6251  0.2177
 1250SOL    HW121360   5.104   9.618  13.698  0.5275  0.9608 -3.1213
 1250SOL    HW221361   4.954   9.602  13.704  0.7870 -1.2528  0.4489
 1251SOL     OW21362   4.188   3.947   0.127 -0.1046  0.4183 -0.2313
 1251SOL    HW121363   4.148   3.949   0.040 -1.5969 -0.3132  0.3965
 1251SOL    HW221364   4.280   3.968   0.112  0.0524 -1.3625 -2.2005
 1252SOL     OW21365   4.141  12.589   5.093  0.3613 -0.2776  0.3435
 1252SOL    HW121366   4.187  12.659   5.048  1.5276 -0.6012  0.9774
 1252SOL    HW221367   4.208  12.522   5.107 -0.1919 -0.5720  1.7206
 1253SOL     OW21368   6.273   0.022  11.494  0.0311 -0.1356  0.0106
 1253SOL    HW121369   6.266  -0.069  11.466  1.5982 -0.0471 -0.7810
 1253SOL    HW221370   6.362   0.049  11.468 -0.8239  2.0048 -0.9921
 1254SOL     OW21371  12.771   6.808  13.250  0.8836 -0.1202 -0.4656
 1254SOL    HW121372  12.837   6.868  13.217  0.7510  0.1956 -0.1722
 1254SOL    HW221373  12.807   6.721  13.236  0.6771 -0.0091 -1.7434
 1255SOL     OW21374   7.969   0.459   6.640  0.3959  0.4491 -0.6068
 1255SOL    HW121375   8.001   0.484   6.553 -1.0334 -0.0053 -1.2882
 1255SOL    HW221376   7.958   0.364   6.636 -1.9082  0.6615 -0.7617
 1256SOL     OW21377   7.081   5.292  11.210  0.0010 -0.1303  0.2437
 1256SOL    HW121378   7.150   5.328  11.154  0.0076 -0.2373  0.1813
 1256SOL    HW221379   7.041   5.224  11.156 -0.2281  0.0088  0.2371
 1257SOL     OW21380  10.704   3.088   3.895 -0.3452 -0.5013 -0.1096
 1257SOL    HW121381  10.754   3.014   3.929 -0.8161 -1.1300 -0.7570
 1257SOL    HW221382  10.716   3.084   3.800 -0.2349  0.3555 -0.1399
 1258SOL     OW21383   3.269   3.500   8.865 -0.4051  0.2755  0.3015
 1258SOL    HW121384   3.356   3.476   8.834 -1.0876 -1.1645 -0.6011
 1258SOL    HW221385   3.236   3.421   8.909 -2.5693 -0.4745 -2.4064
 1259SOL     OW21386   4.119   6.675   2.239  0.6488  1.0036  0.2619
 1259SOL    HW121387   4.057   6.616   2.196  1.0499  0.2357  0.7271
 1259SOL    HW221388   4.102   6.760   2.198  0.1824  0.5446 -0.5407
 1260SOL     OW21389   7.406   8.394   3.227 -0.5900  0.2483 -0.3341
 1260SOL    HW121390   7.428   8.397   3.320 -0.6607 -0.7985 -0.2725
 1260SOL    HW221391   7.318   8.357   3.225  0.0930 -1.4226 -0.8973
 1261SOL     OW21392   5.606  12.495   8.766 -0.4798  0.3460  0.0470
 1261SOL    HW121393   5.579  12.534   8.850  1.2552  2.3083 -0.2151
 1261SOL    HW221394   5.658  12.419   8.791 -0.6904  0.4133  0.7368
 1262SOL     OW21395  12.045  11.903  10.245  0.1917 -0.8807 -0.6507
 1262SOL    HW121396  11.968  11.857  10.278  0.2695 -0.5296  0.0594
 1262SOL    HW221397  12.011  11.988  10.215  0.4098 -0.3192  0.5878
 1263SOL     OW21398   2.121   6.204   1.615 -0.0462  0.0557  0.0864
 1263SOL    HW121399   2.202   6.208   1.563  0.3135  0.5587  0.6716
 1263SOL    HW221400   2.133   6.129   1.673  1.2689  1.7684  2.1813
 1264SOL     OW21401   6.467   7.964   1.064  0.0026  0.7774 -0.6315
 1264SOL    HW121402   6.542   8.023   1.059  0.9003 -0.2871 -0.0710
 1264SOL    HW221403   6.428   7.982   1.150  2.3250 -1.7686  1.1041
 1265SOL     OW21404  12.851   1.294   1.624  0.3445 -0.1746  0.1147
 1265SOL    HW121405  12.860   1.304   1.719  0.6709 -1.0484  0.1895
 1265SOL    HW221406  12.922   1.347   1.587  1.6540 -1.6114  0.4619
 1266SOL     OW21407   7.048   1.400  12.655 -0.1194  0.2824  0.1251
 1266SOL    HW121408   6.985   1.381  12.586 -0.3909 -0.4634  0.5786
 1266SOL    HW221409   7.020   1.484  12.691 -0.9608 -0.1272  0.4376
 1267SOL     OW21410   0.019   4.593  11.622  0.0211  0.6643  0.2071
 1267SOL    HW121411   0.093   4.547  11.663 -0.2944  1.5527  1.8424
 1267SOL    HW221412  -0.058   4.558  11.666 -0.6172 -0.4149 -1.6329
 1268SOL     OW21413   9.822  10.290  12.669 -0.2819 -0.2921 -0.1944
 1268SOL    HW121414   9.901  10.327  12.709 -0.6740  0.0175  0.2969
 1268SOL    HW221415   9.805  10.210  12.719 -0.2221 -0.4151 -0.3689
 1269SOL     OW21416  11.759  11.180   5.271 -0.4355 -0.4180 -0.4144
 1269SOL    HW121417  11.831  11.232   5.236  0.2110 -0.2950  1.0319
 1269SOL    HW221418  11.742  11.115   5.204  0.5791 -0.0345 -1.0688
 1270SOL     OW21419  11.287  11.339   9.362  0.1172 -1.3200  0.6611
 1270SOL    HW121420  11.239  11.271   9.315  0.4171 -0.9120 -0.2537
 1270SOL    HW221421  11.285  11.415   9.304  2.1978 -1.4065  0.3885
 1271SOL     OW21422  10.319  11.308  10.074  0.3435  0.5626  0.1937
 1271SOL    HW121423  10.410  11.304  10.043  1.0555 -2.8171  2.1535
 1271SOL    HW221424  10.286  11.220  10.062 -1.3535  0.6946  3.0328
 1272SOL     OW21425   9.258  12.869   8.161  0.2871 -0.0404 -0.4900
 1272SOL    HW121426   9.241  12.961   8.140 -0.8752  0.3852  2.0121
 1272SOL    HW221427   9.245  12.823   8.078  0.3294  1.9617 -1.6652
 1273SOL     OW21428  11.318   2.849   8.695  0.0975  0.5929  0.2450
 1273SOL    HW121429  11.245   2.793   8.668  0.3555 -0.0164  0.7888
 1273SOL    HW221430  11.292   2.884   8.780  1.1176 -0.9411  1.2349
 1274SOL     OW21431   2.144   7.176   3.455  0.1019  0.2843 -0.5351
 1274SOL    HW121432   2.233   7.148   3.475  0.2630  0.6620 -0.6980
 1274SOL    HW221433   2.155   7.261   3.411 -0.3854  0.8528  0.4007
 1275SOL     OW21434   0.807  12.315   7.234 -0.0924 -0.7608 -0.0873
 1275SOL    HW121435   0.786  12.398   7.191 -0.6724 -0.6984  0.3056
 1275SOL    HW221436   0.733  12.300   7.293  0.7183 -0.8214  0.9279
 1276SOL     OW21437   2.703   6.277   5.772 -0.2255 -0.0645  0.2259
 1276SOL    HW121438   2.745   6.332   5.705 -1.8722  0.3216 -0.5407
 1276SOL    HW221439   2.763   6.203   5.783  1.8503  1.6231  0.9716
 1277SOL     OW21440  10.830   9.952   1.222 -0.0013 -0.4898 -0.1878
 1277SOL    HW121441  10.784   9.974   1.141  0.5079  0.3210 -0.2725
 1277SOL    HW221442  10.762   9.922   1.282 -0.4798 -0.3895 -0.6814
 1278SOL     OW21443   4.485   6.093  11.998 -0.1273 -0.2446  0.4168
 1278SOL    HW121444   4.449   6.099  11.909 -0.2959 -1.0223  0.4333
 1278SOL    HW221445   4.553   6.161  12.000 -0.3137 -0.0313 -0.2139
 1279SOL     OW21446   2.744   9.202   2.730  0.0952 -0.1830 -0.2723
 1279SOL    HW121447   2.650   9.192   2.720 -0.0542 -0.0889  0.8639
 1279SOL    HW221448   2.782   9.130   2.679 -0.4795  0.9606 -2.4091
 1280SOL     OW21449   7.795   5.400   1.937 -0.3888 -0.0580 -0.2353
 1280SOL    HW121450   7.823   5.330   1.877  1.0957  0.5851 -0.3380
 1280SOL    HW221451   7.700   5.388   1.946 -0.5180 -0.6618 -2.0700
 1281SOL     OW21452   4.673   8.086   3.301  0.4001 -0.0572  0.0960
 1281SOL    HW121453   4.662   8.168   3.252 -1.3086 -1.1257 -1.4332
 1281SOL    HW221454   4.624   8.101   3.383 -0.3051  0.3090 -0.3790
 1282SOL     OW21455   4.197  11.969   6.507  0.2325  0.4193 -0.8474
 1282SOL    HW121456   4.288  11.998   6.508  0.5338 -0.4980 -0.8179
 1282SOL    HW221457   4.181  11.942   6.417 -0.0636  0.7524 -0.8936
 1283SOL     OW21458  11.721   3.493  12.681 -1.0640  0.0851  0.3367
 1283SOL    HW121459  11.725   3.561  12.614  1.3784 -0.0401  0.2745
 1283SOL    HW221460  11.640   3.446  12.662 -1.4163  1.2476 -1.3101
 1284SOL     OW21461  10.894   4.411   5.802 -0.0749 -0.3917  0.8382
 1284SOL    HW121462  10.805   4.425   5.771 -0.3526  0.0266  1.7958
 1284SOL    HW221463  10.914   4.488   5.855  0.4817 -0.9420  1.4557
 1285SOL     OW21464  11.599   4.457   8.370  0.5831  0.4047  0.5552
 1285SOL    HW121465  11.540   4.461   8.295 -0.8392  1.9633  1.6788
 1285SOL    HW221466  11.685   4.482   8.334  0.0448  0.5826 -0.6551
 1286SOL     OW21467   2.314   3.969  12.689 -0.0464  0.3335  0.3325
 1286SOL    HW121468   2.374   4.035  12.723  1.5948 -1.6695  1.5583
 1286SOL    HW221469   2.343   3.954  12.599  1.3469 -0.5806  0.8969
 1287SOL     OW21470   8.417  13.578  13.013 -0.0916  0.5107 -0.3842
 1287SOL    HW121471   8.349  13.545  13.072 -0.1969  0.1651 -0.6975
 1287SOL    HW221472   8.409  13.524  12.934  0.0771  0.9443 -0.7002
 1288SOL     OW21473  13.973   4.206   1.827  0.2309 -0.1901 -0.0479
 1288SOL    HW121474  14.059   4.218   1.865  0.8193 -0.3849 -1.2556
 1288SOL    HW221475  13.942   4.122   1.862  0.5973 -0.1926  0.2698
 1289SOL     OW21476   1.771   7.465   8.603 -0.3285  0.0725  0.3796
 1289SOL    HW121477   1.730   7.490   8.686  1.1858 -0.3859  1.3160
 1289SOL    HW221478   1.716   7.394   8.570 -1.2652  0.6325  0.6990
 1290SOL     OW21479   0.014   8.873   5.225  0.2991 -0.4219 -0.1035
 1290SOL    HW121480  -0.080   8.861   5.240  0.3925 -1.6220 -0.4360
 1290SOL    HW221481   0.034   8.956   5.268 -0.7014 -0.6578  0.8522
 1291SOL     OW21482   5.001   6.339   3.009  0.1913  0.1250 -0.1726
 1291SOL    HW121483   4.983   6.432   2.992  2.2707  0.6858  0.4656
 1291SOL    HW221484   4.992   6.297   2.924 -0.1201  1.0110 -0.5959
 1292SOL     OW21485  11.301  13.436   7.939  0.1416 -0.2706 -0.0788
 1292SOL    HW121486  11.251  13.439   8.021 -1.2229  0.0160 -0.8881
 1292SOL    HW221487  11.380  13.387   7.961 -0.3666 -0.5110  1.3215
 1293SOL     OW21488   2.584   7.008  12.830 -0.2646 -0.0789  0.2264
 1293SOL    HW121489   2.526   7.061  12.884 -0.8793  1.6506 -1.9498
 1293SOL    HW221490   2.597   7.060  12.751  3.5363 -0.8213  0.1738
 1294SOL     OW21491   4.039   8.034   1.773  0.7384  0.1019 -0.5759
 1294SOL    HW121492   3.991   8.022   1.855  0.5501  0.0628 -0.6921
 1294SOL    HW221493   4.130   8.012   1.795  1.1577  2.4482  0.2442
 1295SOL     OW21494   4.912  12.833  11.068  0.1327  0.2228  0.2018
 1295SOL    HW121495   4.864  12.811  11.148  0.6173  1.0340  0.7387
 1295SOL    HW221496   4.857  12.802  10.997 -1.0866  0.9322  0.8140
 1296SOL     OW21497   0.454  11.519   8.911  0.0008  0.3275 -0.0407
 1296SOL    HW121498   0.458  11.429   8.876  0.4348 -0.0086  0.8555
 1296SOL    HW221499   0.383  11.560   8.862 -1.1390 -0.9326  0.4808
 1297SOL     OW21500   0.141   3.178   9.208 -0.3564  0.4276  0.2940
 1297SOL    HW121501   0.189   3.123   9.146  1.7506  1.0295  1.2727
 1297SOL    HW221502   0.060   3.130   9.226  0.0256 -0.8421 -1.1591
 1298SOL     OW21503   6.559  10.703   6.975 -0.3415  0.4091  0.0610
 1298SOL    HW121504   6.639  10.671   6.933 -0.7326 -0.3916 -0.1016
 1298SOL    HW221505   6.524  10.767   6.913  0.2919  0.9358  0.2425
 1299SOL     OW21506   2.766   1.340   4.121 -0.1080 -0.6191  0.6915
 1299SOL    HW121507   2.792   1.263   4.071 -1.7877  0.1154 -1.4699
 1299SOL    HW221508   2.845   1.394   4.124  0.6597 -1.7175  0.8825
 1300SOL     OW21509   5.685   5.015   2.954 -0.0865  0.0383 -0.0459
 1300SOL    HW121510   5.764   4.970   2.986  1.7879  0.9092 -3.0556
 1300SOL    HW221511   5.701   5.108   2.973  0.2765  0.3683 -1.7687
 1301SOL     OW21512   8.908   9.164   3.758  0.4402  0.7778 -0.5751
 1301SOL    HW121513   8.874   9.093   3.813 -0.3685  0.3261 -1.6335
 1301SOL    HW221514   8.835   9.226   3.753  0.2844  0.5204 -1.6328
 1302SOL     OW21515   8.948   8.359   9.075  0.1412 -0.1349  0.2980
 1302SOL    HW121516   9.016   8.406   9.027 -0.9456 -0.2993 -1.4811
 1302SOL    HW221517   8.907   8.302   9.010 -3.0874  1.4530  0.7036
 1303SOL     OW21518  11.561   1.157  10.832 -0.1129 -0.1122 -0.1968
 1303SOL    HW121519  11.595   1.245  10.850 -1.4826  0.5175 -0.5550
 1303SOL    HW221520  11.639   1.102  10.829  0.6821  0.8520  1.3052
 1304SOL     OW21521  11.048   5.906   8.967  0.6164  0.6546  0.6332
 1304SOL    HW121522  11.030   5.966   9.039  0.6807  0.9374  0.4179
 1304SOL    HW221523  11.071   5.824   9.009  1.2445  0.9863  0.9469
 1305SOL     OW21524   0.108   2.445  10.825 -0.0072  0.0046  0.2249
 1305SOL    HW121525   0.172   2.382  10.860 -2.0238 -2.8197 -0.7608
 1305SOL    HW221526   0.066   2.481  10.903  2.1816  1.3717  0.8639
 1306SOL     OW21527   8.079   3.100   4.205 -0.0413 -0.0476  0.0957
 1306SOL    HW121528   7.987   3.074   4.215 -0.0186 -0.2189 -0.1291
 1306SOL    HW221529   8.088   3.177   4.261 -0.5166  0.4436 -0.4992
 1307SOL     OW21530   9.294   8.439   2.160 -0.4128  0.2781  0.7066
 1307SOL    HW121531   9.230   8.380   2.120 -0.3287 -0.2455  1.3191
 1307SOL    HW221532   9.372   8.385   2.171  0.6502  1.2651 -1.2947
 1308SOL     OW21533   8.953   7.302  11.249 -0.4528  0.2824 -0.2986
 1308SOL    HW121534   8.879   7.253  11.213  0.5538 -1.4368 -0.1467
 1308SOL    HW221535   8.985   7.353  11.175 -1.2002  0.2990 -0.6211
 1309SOL     OW21536   6.662  11.581   7.114 -0.2858 -0.3267  0.2451
 1309SOL    HW121537   6.616  11.645   7.168  0.1549  0.8650 -0.7452
 1309SOL    HW221538   6.607  11.502   7.118 -0.4998 -0.1259  2.0098
 1310SOL     OW21539  11.361   5.440  12.560 -0.1109  0.4108  0.5548
 1310SOL    HW121540  11.319   5.362  12.594  1.7749 -1.4360 -1.0897
 1310SOL    HW221541  11.294   5.480  12.504  0.0718 -2.4685 -2.0227
 1311SOL     OW21542   5.320   0.114   9.062 -0.0782  0.1427  0.1469
 1311SOL    HW121543   5.395   0.117   9.121  1.5540 -0.1920 -1.7789
 1311SOL    HW221544   5.303   0.205   9.040 -0.5934  0.2559  0.9977
 1312SOL     OW21545   1.379   3.143   4.614  0.0760 -0.3984  0.0722
 1312SOL    HW121546   1.437   3.159   4.688  1.8234  2.9173 -1.7800
 1312SOL    HW221547   1.308   3.206   4.625  0.6923  0.5892 -1.3066
 1313SOL     OW21548   6.485   0.494   2.712 -0.4821  0.8713  0.2781
 1313SOL    HW121549   6.498   0.519   2.803  0.6271  1.5500 -0.0490
 1313SOL    HW221550   6.560   0.532   2.666 -0.6097 -0.1295 -0.7932
 1314SOL     OW21551   1.849   4.792  12.091  0.0789  0.1518 -0.4465
 1314SOL    HW121552   1.834   4.727  12.159  3.1047  0.8262  1.0430
 1314SOL    HW221553   1.927   4.760  12.045 -0.6352  0.8278 -2.1958
 1315SOL     OW21554   5.528   0.281   5.564 -0.3760 -0.1658 -1.0012
 1315SOL    HW121555   5.615   0.321   5.570 -0.6388  0.2745  0.2116
 1315SOL    HW221556   5.517   0.261   5.471  0.4598  1.0457 -1.3867
 1316SOL     OW21557   9.534  12.965   1.261 -0.5869 -0.5580 -0.0144
 1316SOL    HW121558   9.519  12.900   1.192  0.2349  0.1571 -0.8918
 1316SOL    HW221559   9.447  12.978   1.300 -1.2074 -0.5189 -1.3254
 1317SOL     OW21560   5.205   5.094   3.849 -0.0607  0.0242  0.3629
 1317SOL    HW121561   5.298   5.073   3.842  0.0185  0.6939 -1.0378
 1317SOL    HW221562   5.175   5.049   3.928  1.2208 -1.0437  0.2640
 1318SOL     OW21563   8.480  11.557   4.189 -0.3567 -0.2749 -0.6522
 1318SOL    HW121564   8.529  11.583   4.268 -1.2816 -0.6454  0.0651
 1318SOL    HW221565   8.507  11.620   4.122  0.7235 -0.1746 -0.1382
 1319SOL     OW21566   1.025  10.991   3.468  0.0111 -0.1682  0.0813
 1319SOL    HW121567   0.970  11.066   3.490  0.6414 -0.2793  2.2586
 1319SOL    HW221568   0.964  10.919   3.454 -0.5549  0.5352 -1.2171
 1320SOL     OW21569   8.285   0.770   1.081  0.0232  0.0440  0.3504
 1320SOL    HW121570   8.302   0.821   1.002  1.7577 -2.4742 -1.0209
 1320SOL    HW221571   8.274   0.680   1.050 -1.1881 -0.7434  2.8169
 1321SOL     OW21572   4.930   1.497   2.423 -0.3340 -0.2910  0.3084
 1321SOL    HW121573   4.991   1.458   2.487 -2.0781 -1.9468  1.0631
 1321SOL    HW221574   4.947   1.591   2.428  2.8407 -0.7297 -0.2876
 1322SOL     OW21575   9.852   4.011   4.160  0.3101  0.3754  0.0152
 1322SOL    HW121576   9.925   3.972   4.208  0.6859 -0.6819 -1.3538
 1322SOL    HW221577   9.890   4.091   4.121  0.6042  0.1138 -0.2475
 1323SOL     OW21578  12.039   9.852  11.764  0.0481  0.4466 -0.1147
 1323SOL    HW121579  11.988   9.814  11.835  0.1310  0.9496  0.2250
 1323SOL    HW221580  11.988   9.928  11.736  0.6295  0.9884  0.2681
 1324SOL     OW21581   0.712   7.439   9.697 -0.0410  0.2628  0.4128
 1324SOL    HW121582   0.663   7.521   9.695 -1.5174 -0.5788 -1.1064
 1324SOL    HW221583   0.753   7.434   9.610  0.5819 -0.3065  0.7290
 1325SOL     OW21584   8.177  13.067  12.847 -0.5515  0.4348 -0.3818
 1325SOL    HW121585   8.086  13.090  12.826 -1.7278 -1.3483  2.2059
 1325SOL    HW221586   8.194  13.112  12.930  0.3131 -0.6219  0.0298
 1326SOL     OW21587  12.146   7.139  13.025  0.2232  0.3750  0.1227
 1326SOL    HW121588  12.186   7.070  12.972  0.8133  0.3894  0.5404
 1326SOL    HW221589  12.056   7.108  13.040  0.4783 -0.3004  0.2971
 1327SOL     OW21590   5.581   6.550   3.976 -0.2835 -0.0933  0.1253
 1327SOL    HW121591   5.623   6.573   3.894 -0.5551 -2.1444 -0.6449
 1327SOL    HW221592   5.489   6.572   3.964 -0.0560  1.2188  0.5645
 1328SOL     OW21593   5.673   8.432   2.003 -0.6012  0.4630 -0.2917
 1328SOL    HW121594   5.687   8.424   1.909 -0.4385  0.2653 -0.2521
 1328SOL    HW221595   5.760   8.452   2.039 -0.2993 -1.2411  0.0105
 1329SOL     OW21596  11.595   4.419   5.184  0.1186 -0.2015  0.1303
 1329SOL    HW121597  11.526   4.485   5.194 -0.3219 -0.4028 -1.3473
 1329SOL    HW221598  11.664   4.447   5.244 -2.1904 -1.3599  3.6426
 1330SOL     OW21599   4.069   1.667  12.192 -0.5400  0.3102 -0.1928
 1330SOL    HW121600   3.984   1.677  12.236 -0.1862 -0.0129  0.5845
 1330SOL    HW221601   4.102   1.583  12.224  0.1831  0.5447 -0.3166
 1331SOL     OW21602   8.454   1.981  13.018  0.1836  0.0858 -0.3826
 1331SOL    HW121603   8.402   1.976  13.098  1.6884 -0.7061  0.5890
 1331SOL    HW221604   8.506   2.061  13.029  2.0442 -1.1684  0.5458
 1332SOL     OW21605   4.522   4.232   2.537 -0.2366 -0.1507  0.4436
 1332SOL    HW121606   4.461   4.283   2.484 -0.1927  0.7025  1.1826
 1332SOL    HW221607   4.589   4.296   2.563  0.4806 -0.8667  0.3993
 1333SOL     OW21608  13.680   2.404  12.671 -0.3466  0.1946  0.0437
 1333SOL    HW121609  13.649   2.482  12.625 -0.4573 -0.9098 -1.8682
 1333SOL    HW221610  13.776   2.414  12.672 -0.3743  0.4771  0.0421
 1334SOL     OW21611   3.312  12.696  11.996 -0.3682 -0.0681  0.2020
 1334SOL    HW121612   3.328  12.659  12.082 -0.6076 -0.8272 -0.0736
 1334SOL    HW221613   3.272  12.625  11.946 -0.4163  0.4234 -0.4744
 1335SOL     OW21614   7.829   9.000   0.421  0.4925 -0.1104  0.5611
 1335SOL    HW121615   7.761   8.986   0.487  0.9690  0.8899  1.3007
 1335SOL    HW221616   7.900   9.044   0.469  1.7356 -1.2773 -0.1494
 1336SOL     OW21617   9.739   3.108  10.287  0.3503 -0.1136 -0.1486
 1336SOL    HW121618   9.671   3.074  10.229  0.8504 -3.5996  1.0417
 1336SOL    HW221619   9.809   3.137  10.229  0.3664 -2.4008 -1.3886
 1337SOL     OW21620   2.667   4.275   8.525  0.2680  0.6063  0.6391
 1337SOL    HW121621   2.721   4.341   8.569  1.1291  0.9121 -0.8310
 1337SOL    HW221622   2.725   4.234   8.461 -0.1299 -1.9237  1.7948
 1338SOL     OW21623   9.719  14.034  10.038 -0.4242  0.0593 -0.6084
 1338SOL    HW121624   9.699  14.106   9.978 -0.2966 -0.1956 -0.9640
 1338SOL    HW221625   9.809  14.051  10.066 -0.3975  0.0456 -0.6849
 1339SOL     OW21626  10.805   8.872  12.325  0.0421  0.5269  0.1046
 1339SOL    HW121627  10.720   8.912  12.308 -0.3387  0.1338  1.0416
 1339SOL    HW221628  10.786   8.792  12.373  0.9864  0.9589  1.2579
 1340SOL     OW21629   7.822  13.423   4.596 -0.0379 -0.2784 -0.2592
 1340SOL    HW121630   7.899  13.479   4.602  0.3513 -0.7987 -0.3753
 1340SOL    HW221631   7.754  13.470   4.645  0.3820  0.1218 -0.0583
 1341SOL     OW21632   6.380  12.438   5.176  0.1046  0.2786 -0.3473
 1341SOL    HW121633   6.353  12.485   5.097 -1.6819 -1.5190 -0.9120
 1341SOL    HW221634   6.304  12.445   5.234  0.0189 -1.3519 -0.2243
 1342SOL     OW21635   0.520  11.313  10.331 -0.7899  0.0706  0.4635
 1342SOL    HW121636   0.536  11.236  10.385 -1.5654 -0.6910 -0.3763
 1342SOL    HW221637   0.485  11.378  10.393  0.9039  0.1510  1.3848
 1343SOL     OW21638  12.249   3.233  13.384  0.5879 -0.3680 -0.0795
 1343SOL    HW121639  12.250   3.175  13.308 -0.6566 -0.8385  0.2488
 1343SOL    HW221640  12.309   3.304  13.360 -2.1600  1.2698 -2.8930
 1344SOL     OW21641  12.088   6.448   6.859  0.2484 -0.0281 -0.5418
 1344SOL    HW121642  12.142   6.370   6.846 -0.8173 -0.9746  0.4365
 1344SOL    HW221643  12.012   6.416   6.909  0.5734  1.9283  1.3490
 1345SOL     OW21644   6.521   6.172   2.340  0.1164 -0.0699 -0.2175
 1345SOL    HW121645   6.461   6.174   2.266 -0.9902  1.6351  0.6451
 1345SOL    HW221646   6.582   6.244   2.323 -0.5318  0.7555  0.7648
 1346SOL     OW21647   1.441   0.260   9.362  0.1208  0.3173 -0.1187
 1346SOL    HW121648   1.389   0.337   9.341 -0.9805 -0.2347  0.5213
 1346SOL    HW221649   1.459   0.220   9.277 -2.7555 -0.9117 -0.2381
 1347SOL     OW21650  10.009   4.791   6.534  0.2618  0.0319  0.7476
 1347SOL    HW121651  10.070   4.864   6.544 -1.3993  1.4209  1.1770
 1347SOL    HW221652   9.944   4.803   6.604 -1.6830 -0.1420 -0.9200
 1348SOL     OW21653  11.545   2.454  12.391  0.9318  0.3582  0.8290
 1348SOL    HW121654  11.459   2.416  12.374  2.1099 -1.2520 -2.0422
 1348SOL    HW221655  11.578   2.406  12.467  0.2403 -0.6789  0.4886
 1349SOL     OW21656   0.604   6.685   0.475  0.6296 -0.6481  0.4235
 1349SOL    HW121657   0.521   6.702   0.431  0.8582  0.0885  0.2571
 1349SOL    HW221658   0.670   6.720   0.415  0.9682  0.0611  1.1897
 1350SOL     OW21659   9.747   2.397   0.894  0.3388 -0.0951 -0.0701
 1350SOL    HW121660   9.778   2.321   0.944 -0.4947  0.5606  1.5024
 1350SOL    HW221661   9.821   2.458   0.894  0.0551  0.2652  1.1492
 1351SOL     OW21662   0.015   0.438   9.865  0.0470  0.4822 -0.4507
 1351SOL    HW121663   0.001   0.432   9.770 -0.3266  0.6239 -0.4074
 1351SOL    HW221664  -0.060   0.391   9.903  1.2066 -1.2985 -0.2482
 1352SOL     OW21665   8.672   6.877   2.850 -0.4013 -0.2307 -0.1572
 1352SOL    HW121666   8.692   6.787   2.876  1.9500  0.4781  0.7547
 1352SOL    HW221667   8.614   6.910   2.918  2.0041  0.1409  1.8503
 1353SOL     OW21668   9.210  11.105   6.735  0.1825 -0.5057 -0.2287
 1353SOL    HW121669   9.123  11.079   6.765  1.0837 -0.3959  2.8545
 1353SOL    HW221670   9.207  11.201   6.736  0.5205 -0.4932  0.6317
 1354SOL     OW21671   4.198  11.325   3.928  0.3433  0.1883 -0.1157
 1354SOL    HW121672   4.209  11.235   3.896 -1.0826  0.4815 -1.5639
 1354SOL    HW221673   4.195  11.378   3.849 -0.8729  1.2633  0.6140
 1355SOL     OW21674   7.034   8.672   2.397 -0.0704  0.1394 -0.3057
 1355SOL    HW121675   7.040   8.578   2.412  0.5577  0.4364  1.6950
 1355SOL    HW221676   7.018   8.708   2.485  0.4231  1.9435 -0.9225
 1356SOL     OW21677   6.500   9.521   5.799  0.1932 -0.1981  0.9734
 1356SOL    HW121678   6.503   9.576   5.877  0.9326  0.8322  0.2416
 1356SOL    HW221679   6.590   9.523   5.765  0.2657 -1.9334  0.9766
 1357SOL     OW21680  12.855   5.116  11.555 -0.0633  0.0701 -0.1881
 1357SOL    HW121681  12.928   5.054  11.545 -0.7683 -0.9581  0.8002
 1357SOL    HW221682  12.827   5.134  11.465  0.0877 -1.1391 -0.5032
 1358SOL     OW21683   5.086  12.159   0.285  0.6505  0.1162  0.3025
 1358SOL    HW121684   5.069  12.161   0.191  1.3560  2.3176  0.1693
 1358SOL    HW221685   5.104  12.067   0.304  1.3681 -0.2628 -1.8883
 1359SOL     OW21686  10.652   5.911  11.814  0.6029  0.4606 -0.4781
 1359SOL    HW121687  10.612   5.894  11.729 -1.0121 -0.5286  0.4336
 1359SOL    HW221688  10.746   5.912  11.797  0.2883  1.1063 -2.3968
 1360SOL     OW21689   2.548   6.281   1.132 -0.2557  0.0031  0.4672
 1360SOL    HW121690   2.624   6.249   1.181  0.0505 -1.8647 -1.1408
 1360SOL    HW221691   2.477   6.222   1.157 -0.7674  0.6901  0.6571
 1361SOL     OW21692   5.366  10.152   6.247 -0.6126  0.1888 -0.5734
 1361SOL    HW121693   5.280  10.173   6.210 -0.4320  1.3269 -0.3755
 1361SOL    HW221694   5.428  10.203   6.195 -0.0149 -0.8013 -0.8639
 1362SOL     OW21695   7.300  13.891  12.737 -0.1645 -0.0615  0.3469
 1362SOL    HW121696   7.304  13.969  12.681 -0.4727 -0.7287 -0.6208
 1362SOL    HW221697   7.372  13.903  12.799  1.1658  0.0016 -1.1395
 1363SOL     OW21698   3.056   9.873   4.097 -0.2614  0.3864 -0.3337
 1363SOL    HW121699   2.964   9.892   4.115 -0.2519  0.0268  0.1085
 1363SOL    HW221700   3.090   9.954   4.058 -1.0012  0.1819 -1.4171
 1364SOL     OW21701   7.864   5.099   1.195 -0.0140  0.2823  0.2128
 1364SOL    HW121702   7.853   5.177   1.250  0.3898  1.5166 -1.3617
 1364SOL    HW221703   7.777   5.060   1.191  0.3889 -1.2845  3.6336
 1365SOL     OW21704   0.996   0.202   5.140  0.1077  0.2577 -0.3397
 1365SOL    HW121705   0.927   0.264   5.119  1.1386  0.6684 -2.8186
 1365SOL    HW221706   0.973   0.169   5.227 -2.3902  1.4373 -0.4740
 1366SOL     OW21707   1.684   0.114   1.999 -0.3548 -0.0868  0.9548
 1366SOL    HW121708   1.642   0.028   2.001 -0.2896 -0.1147  1.2715
 1366SOL    HW221709   1.617   0.175   2.029 -0.2676 -0.0877  1.1526
 1367SOL     OW21710   4.561   8.435   0.011  0.3361 -0.5049 -0.3194
 1367SOL    HW121711   4.584   8.402  -0.075  1.2681 -1.4792  0.2793
 1367SOL    HW221712   4.468   8.417   0.020  0.4611 -1.3828 -0.6989
 1368SOL     OW21713   9.676   1.618   6.597 -0.1484  0.1386  0.2602
 1368SOL    HW121714   9.695   1.711   6.601  0.4016  0.3225 -3.3684
 1368SOL    HW221715   9.585   1.613   6.568 -0.1516 -0.4740  0.3499
 1369SOL     OW21716   7.562   3.861   3.475  0.4528 -0.0061  0.3107
 1369SOL    HW121717   7.510   3.929   3.517 -0.6628 -0.6192 -0.0266
 1369SOL    HW221718   7.637   3.849   3.533  0.0648  0.7001  0.9797
 1370SOL     OW21719   4.047   9.430  12.612 -0.1420  0.1071  0.7576
 1370SOL    HW121720   4.082   9.512  12.648  1.9486  0.2316 -1.3470
 1370SOL    HW221721   4.111   9.364  12.638  0.7923  0.0094 -1.5314
 1371SOL     OW21722  10.564   2.570   1.819 -0.5479  0.8133 -0.2187
 1371SOL    HW121723  10.619   2.531   1.887  0.8582  2.2529 -0.4656
 1371SOL    HW221724  10.596   2.529   1.738 -1.6067 -0.2277 -0.1359
 1372SOL     OW21725  12.969   7.798   2.266 -0.2578  0.4386  0.8829
 1372SOL    HW121726  12.987   7.891   2.257  0.6659  0.1116 -1.2663
 1372SOL    HW221727  13.056   7.758   2.273 -0.3984 -0.4887 -1.5854
 1373SOL     OW21728   5.044   4.469  10.742 -0.1532 -0.1586 -0.0557
 1373SOL    HW121729   5.112   4.406  10.717  0.1380  0.4801 -0.9301
 1373SOL    HW221730   5.013   4.505  10.659 -2.1921 -1.0486  0.2463
 1374SOL     OW21731   8.342   0.446   9.825  0.1134 -0.1443  0.1344
 1374SOL    HW121732   8.311   0.480   9.909 -0.2065 -2.2553  0.9417
 1374SOL    HW221733   8.314   0.511   9.761 -0.5887  1.0044  1.5344
 1375SOL     OW21734   6.204   2.420  10.736  0.3515 -0.4774 -0.4123
 1375SOL    HW121735   6.135   2.389  10.795  0.1834 -0.7187 -0.7373
 1375SOL    HW221736   6.164   2.419  10.649  0.7829 -0.6730 -0.6108
 1376SOL     OW21737  11.245   5.179   7.797  0.4383  0.2050  0.1943
 1376SOL    HW121738  11.300   5.193   7.721  0.4103  1.0346  0.3186
 1376SOL    HW221739  11.156   5.194   7.766  0.5887  3.5091  0.9866
 1377SOL     OW21740  11.403   4.541   4.424  0.3054 -0.0200  0.9112
 1377SOL    HW121741  11.444   4.468   4.471  0.5586  1.0622  2.4363
 1377SOL    HW221742  11.475   4.580   4.374  0.4672  0.0487  1.1998
 1378SOL     OW21743   2.405   6.167   1.599 -0.2028  0.5213  0.2085
 1378SOL    HW121744   2.434   6.255   1.622 -0.5190  0.1085  2.4577
 1378SOL    HW221745   2.486   6.116   1.594  0.1314  1.2032 -2.7260
 1379SOL     OW21746   0.842   8.962  10.382  0.1024  0.0879 -0.5297
 1379SOL    HW121747   0.936   8.966  10.363  0.4346 -2.4610  0.2210
 1379SOL    HW221748   0.813   8.881  10.340 -1.6643  0.5927 -0.3308
 1380SOL     OW21749   4.927   1.827   0.857  0.1859 -0.1170  0.0022
 1380SOL    HW121750   4.855   1.821   0.794  0.4344 -1.2110 -0.1945
 1380SOL    HW221751   5.006   1.827   0.803  0.3579  0.6779  0.2369
 1381SOL     OW21752  10.225  13.258   0.580 -0.2671 -0.0441  0.0758
 1381SOL    HW121753  10.316  13.231   0.574 -0.6561 -1.3431 -0.3794
 1381SOL    HW221754  10.227  13.338   0.632  1.1530  0.1235 -0.1928
 1382SOL     OW21755   6.995   8.399   0.342  0.4835  0.2943  0.3885
 1382SOL    HW121756   6.986   8.421   0.435  0.3570 -0.2292  0.5045
 1382SOL    HW221757   7.088   8.377   0.332  0.5334  0.5175  0.3508
 1383SOL     OW21758   0.773  11.370   7.264 -0.0375  0.0439  0.2846
 1383SOL    HW121759   0.716  11.437   7.226 -0.3250 -0.1356  0.3996
 1383SOL    HW221760   0.726  11.288   7.250  1.5815 -0.5574 -2.5085
 1384SOL     OW21761   8.461   6.533   4.012 -0.1132  0.2516 -0.1453
 1384SOL    HW121762   8.453   6.547   4.107  1.1958 -1.0449  0.1995
 1384SOL    HW221763   8.510   6.609   3.981  0.6223  0.0413  0.4579
 1385SOL     OW21764   4.274   2.921   7.216  0.1703 -0.1754 -0.2683
 1385SOL    HW121765   4.333   2.997   7.215 -0.5579  0.4324  0.9063
 1385SOL    HW221766   4.329   2.848   7.244  0.6946  0.0668 -0.6396
 1386SOL     OW21767   5.005  11.905  10.748  0.0605 -0.1928  0.2247
 1386SOL    HW121768   4.959  11.988  10.733  0.9856  0.6188  1.6611
 1386SOL    HW221769   5.027  11.874  10.661  1.6641  2.2201 -0.3407
 1387SOL     OW21770   4.884   2.297   0.874 -0.6130  0.6391 -0.3551
 1387SOL    HW121771   4.798   2.267   0.903  0.3434 -0.5313  1.4578
 1387SOL    HW221772   4.895   2.258   0.787 -1.2860 -0.4941  0.0445
 1388SOL     OW21773   8.708   1.384   1.380 -0.3787  0.1907  0.2951
 1388SOL    HW121774   8.671   1.361   1.295  0.0852 -0.3465  0.2337
 1388SOL    HW221775   8.728   1.300   1.422  1.4737  0.4361  0.0038
 1389SOL     OW21776   1.324   3.592  11.008 -0.1553  0.0512  0.4705
 1389SOL    HW121777   1.355   3.659  10.947 -0.9752 -0.7313 -0.8678
 1389SOL    HW221778   1.253   3.634  11.056 -2.6877 -0.5802 -2.3900
 1390SOL     OW21779   9.565   8.979   1.993 -0.1815 -0.3218 -0.8508
 1390SOL    HW121780   9.609   8.958   1.910  1.1016 -1.3800  0.0465
 1390SOL    HW221781   9.518   9.060   1.975  1.2280  0.2565 -2.2146
 1391SOL     OW21782  12.955   4.210   2.216  0.5633  0.8127 -0.0478
 1391SOL    HW121783  13.049   4.221   2.211  0.9160 -1.2705  0.7125
 1391SOL    HW221784  12.925   4.278   2.277  1.8426  0.3459  1.1383
 1392SOL     OW21785   7.934   0.355   4.103 -0.0445 -0.1756  0.0676
 1392SOL    HW121786   7.968   0.266   4.116  0.1044 -0.1126  0.1062
 1392SOL    HW221787   7.891   0.377   4.186  2.2732  0.8423  1.0810
 1393SOL     OW21788   6.372   3.951  10.456  0.3356 -0.0372  0.2112
 1393SOL    HW121789   6.282   3.924  10.475  0.5563 -0.3971  0.7895
 1393SOL    HW221790   6.426   3.899  10.517  0.9351  0.1439 -0.1537
 1394SOL     OW21791   3.215   8.633  10.246 -0.4212 -0.4104  0.2387
 1394SOL    HW121792   3.295   8.634  10.195 -0.0925 -0.6922  0.7434
 1394SOL    HW221793   3.243   8.616  10.336 -1.0617 -0.7168  0.3905
 1395SOL     OW21794   1.845   1.237  12.621  0.7240 -0.1710 -0.1642
 1395SOL    HW121795   1.774   1.195  12.669 -0.7995  1.9340 -0.3888
 1395SOL    HW221796   1.925   1.203  12.660 -0.4358 -0.6895  1.8778
 1396SOL     OW21797   3.567   6.960   2.941  0.3817  0.2010  0.1027
 1396SOL    HW121798   3.610   6.965   3.026  1.0385  0.9875 -0.2701
 1396SOL    HW221799   3.504   7.031   2.941  0.5383  0.3431 -0.1495
 1397SOL     OW21800  12.211   4.909   7.846 -0.4695 -0.5979 -0.7392
 1397SOL    HW121801  12.258   4.982   7.806  0.5235 -0.8492 -0.0637
 1397SOL    HW221802  12.169   4.864   7.773  0.3691 -0.3828 -1.3689
 1398SOL     OW21803   5.438   7.221   2.840 -0.5155 -0.2680  0.0736
 1398SOL    HW121804   5.472   7.265   2.762 -0.9841 -0.4099 -0.2201
 1398SOL    HW221805   5.446   7.128   2.821 -0.2626 -0.3055  0.3618
 1399SOL     OW21806   1.016   4.532   0.191  0.1575 -0.0912  0.0985
 1399SOL    HW121807   1.035   4.518   0.098 -0.9901  1.5065 -0.4371
 1399SOL    HW221808   0.932   4.490   0.205 -0.0754  0.3929  0.1839
 1400SOL     OW21809   7.335   2.932  13.862  0.0239 -0.5722  0.1856
 1400SOL    HW121810   7.253   2.914  13.816  0.6987 -1.0523 -0.8869
 1400SOL    HW221811   7.343   2.861  13.926 -0.1985 -0.7640  0.0038
 1401SOL     OW21812  12.674   3.239   2.244 -0.1709 -0.0406  0.1916
 1401SOL    HW121813  12.684   3.306   2.311 -0.9259  1.5025 -1.1658
 1401SOL    HW221814  12.614   3.175   2.283 -0.2377  0.5843  1.1541
 1402SOL     OW21815   9.118  11.121   0.767 -0.2875 -0.3169 -0.4686
 1402SOL    HW121816   9.115  11.162   0.853 -0.2798 -0.9631 -0.1530
 1402SOL    HW221817   9.176  11.177   0.715 -1.7195  1.1023 -0.6123
 1403SOL     OW21818   9.456   2.995   5.089  0.2431 -0.4196  0.0200
 1403SOL    HW121819   9.370   2.958   5.068 -1.1174  3.2547 -1.8204
 1403SOL    HW221820   9.449   3.022   5.181 -0.7568  0.1172 -0.1935
 1404SOL     OW21821  12.218  10.123   9.019 -0.1191  0.2096 -0.5032
 1404SOL    HW121822  12.160  10.133   9.094  2.2882  0.0054  1.5510
 1404SOL    HW221823  12.244  10.031   9.021 -0.7285 -0.0319 -2.2117
 1405SOL     OW21824  10.287   9.442  12.523 -0.1861 -0.0884  0.0130
 1405SOL    HW121825  10.276   9.536  12.507  1.2751  0.1750  0.4396
 1405SOL    HW221826  10.243   9.426  12.606 -1.2867  0.0139 -0.5371
 1406SOL     OW21827   9.856  12.555   8.594 -0.5831 -0.0761 -0.1544
 1406SOL    HW121828   9.870  12.461   8.594  0.1117  0.0088  1.0277
 1406SOL    HW221829   9.846  12.578   8.686 -2.1903  0.8189 -0.5113
 1407SOL     OW21830   5.524  10.427   6.215 -0.4728 -0.1237 -0.6395
 1407SOL    HW121831   5.574  10.504   6.192 -0.0162 -1.0181 -2.9080
 1407SOL    HW221832   5.433  10.457   6.218 -0.0430  1.2200  2.1992
 1408SOL     OW21833  10.699  13.389   3.056  0.0247 -0.2616 -0.1900
 1408SOL    HW121834  10.675  13.313   3.004  0.4642 -0.0050 -0.7707
 1408SOL    HW221835  10.617  13.435   3.070 -0.3778 -1.2526  0.8420
 1409SOL     OW21836   3.930   8.233  11.954  0.0154  0.0783  0.0377
 1409SOL    HW121837   3.885   8.154  11.982 -1.2664  0.7521 -0.0614
 1409SOL    HW221838   4.001   8.202  11.898 -1.8856 -0.9307 -1.9691
 1410SOL     OW21839   5.582   3.432   0.782  0.6173  0.3725 -0.4391
 1410SOL    HW121840   5.619   3.478   0.857 -0.8652  0.3052  0.3548
 1410SOL    HW221841   5.648   3.442   0.713  1.0230  2.3526  0.1802
 1411SOL     OW21842   5.288   0.608   5.561 -0.1896  0.3747  0.4646
 1411SOL    HW121843   5.365   0.648   5.521  1.7706  0.8599  4.2106
 1411SOL    HW221844   5.232   0.681   5.585 -1.2428  0.1091 -1.0903
 1412SOL     OW21845  10.146   4.911   7.182 -0.3876 -0.0579  0.0602
 1412SOL    HW121846  10.234   4.927   7.148  0.3343  0.0332  1.8441
 1412SOL    HW221847  10.128   4.985   7.240 -1.6289 -0.1018 -0.2325
 1413SOL     OW21848  14.003  13.686  11.082  0.1087 -0.2708 -0.2506
 1413SOL    HW121849  14.040  13.758  11.132 -1.4459  0.7097 -0.4661
 1413SOL    HW221850  14.009  13.714  10.990 -1.5012  0.1037 -0.2628
 1414SOL     OW21851   2.897  10.626   4.402  0.3301 -0.0787  0.0186
 1414SOL    HW121852   2.887  10.607   4.495 -0.0874 -1.4595 -0.2933
 1414SOL    HW221853   2.980  10.674   4.396  0.5450 -0.3062  1.0532
 1415SOL     OW21854   8.734   7.557   9.631  0.2865 -0.4952 -0.0571
 1415SOL    HW121855   8.753   7.547   9.538 -1.7416  2.8825 -0.9911
 1415SOL    HW221856   8.639   7.563   9.637  0.3303 -0.9179  2.3022
 1416SOL     OW21857  11.683  12.388   0.638 -0.1717 -0.3559 -0.4099
 1416SOL    HW121858  11.778  12.396   0.647 -0.1052  1.6785 -2.2919
 1416SOL    HW221859  11.649  12.416   0.723  0.8703 -0.9618  0.2326
 1417SOL     OW21860  13.960   4.051   0.210 -0.3237  0.3061  0.3112
 1417SOL    HW121861  13.932   4.013   0.293 -0.9108  1.5992  0.7325
 1417SOL    HW221862  13.913   4.001   0.143  0.1217 -0.7115  0.7433
 1418SOL     OW21863  12.401   5.057   0.192  0.5324  0.4147  0.2752
 1418SOL    HW121864  12.465   5.023   0.254  0.2506 -1.4702 -0.4196
 1418SOL    HW221865  12.324   5.003   0.205 -0.9762  2.5770  1.0335
 1419SOL     OW21866  10.731   5.014   2.243 -0.1587 -0.4743 -0.6164
 1419SOL    HW121867  10.771   5.099   2.222 -0.4553 -0.2017 -0.0951
 1419SOL    HW221868  10.699   4.982   2.158 -0.6656  0.2677 -0.7183
 1420SOL     OW21869   9.780   8.886   0.998 -0.0030 -0.4405  0.0095
 1420SOL    HW121870   9.712   8.844   1.051 -0.0836  1.7968  1.7952
 1420SOL    HW221871   9.738   8.965   0.963  1.4062  0.5088  0.4015
 1421SOL     OW21872   4.955   0.270   8.178 -0.1357  0.0119  0.4707
 1421SOL    HW121873   4.972   0.182   8.212  4.4153 -0.1659 -1.5434
 1421SOL    HW221874   4.919   0.255   8.091  0.8697  0.0709  0.0319
 1422SOL     OW21875   3.127   6.640   3.480 -0.7130  0.1403  0.2263
 1422SOL    HW121876   3.048   6.598   3.515 -1.4212  0.8522 -0.4700
 1422SOL    HW221877   3.161   6.578   3.415  0.0997 -0.7807  1.4730
 1423SOL     OW21878   2.730   3.969  12.435  0.5089 -0.8731  0.3195
 1423SOL    HW121879   2.743   4.017  12.517  2.5809 -1.6373  0.4924
 1423SOL    HW221880   2.770   4.025  12.368  0.6571 -1.1771  0.1502
 1424SOL     OW21881   3.236  10.367   1.220  0.3616 -0.4123  0.3472
 1424SOL    HW121882   3.248  10.443   1.163  0.4509 -0.8860 -0.2816
 1424SOL    HW221883   3.307  10.308   1.197  0.3615 -0.6422  0.9114
 1425SOL     OW21884   7.101   6.866   1.678 -0.8942  0.0853  0.1879
 1425SOL    HW121885   7.189   6.830   1.668 -0.5861  0.7565  0.3840
 1425SOL    HW221886   7.090   6.923   1.602 -0.8282  0.6510  0.5938
 1426SOL     OW21887   6.405   9.786   0.469  0.2765  0.5140  0.0686
 1426SOL    HW121888   6.425   9.693   0.480  1.7629  0.6133 -1.3940
 1426SOL    HW221889   6.418   9.824   0.556  0.8056 -0.4522  0.4216
 1427SOL     OW21890  12.402   5.615   4.768 -0.4228 -0.1634  0.0512
 1427SOL    HW121891  12.449   5.544   4.811  0.9830 -0.8551 -2.4309
 1427SOL    HW221892  12.446   5.694   4.798 -2.5228 -0.0787  3.4985
 1428SOL     OW21893  13.650   7.289   7.048  0.3086 -0.4721 -0.6070
 1428SOL    HW121894  13.633   7.327   7.134  1.6775 -1.6153  0.2107
 1428SOL    HW221895  13.690   7.360   6.998  0.3491 -0.0560  0.0073
 1429SOL     OW21896  12.127   0.238  13.891  0.4298 -0.2509  0.2456
 1429SOL    HW121897  12.070   0.167  13.919  0.4676 -0.7561 -0.8817
 1429SOL    HW221898  12.095   0.262  13.804  1.5964 -0.1833 -0.1874
 1430SOL     OW21899   7.173   3.206   8.611 -0.5618 -0.5498  0.0126
 1430SOL    HW121900   7.087   3.248   8.604  0.1874  1.0371 -0.2314
 1430SOL    HW221901   7.178   3.177   8.702 -1.3849 -0.7172  0.0096
 1431SOL     OW21902  12.184   9.906   6.421 -0.1199 -0.1878 -0.0908
 1431SOL    HW121903  12.134   9.955   6.356  0.5844  0.8412  0.1062
 1431SOL    HW221904  12.250   9.859   6.371 -0.4570 -0.5017 -0.2390
 1432SOL     OW21905  10.743   5.415  12.171 -0.8342 -0.0569 -0.5228
 1432SOL    HW121906  10.774   5.377  12.254 -0.4043 -0.7291 -0.9789
 1432SOL    HW221907  10.718   5.505  12.193  1.3025  0.4787 -0.0694
 1433SOL     OW21908  10.950  14.004   3.421  0.0092 -0.9521  0.3279
 1433SOL    HW121909  10.892  14.080   3.415  1.1656 -0.0844 -0.0885
 1433SOL    HW221910  10.893  13.934   3.454 -1.5921 -0.4768 -1.2574
 1434SOL     OW21911   2.002   0.015   9.662 -0.0787 -0.2104 -0.5328
 1434SOL    HW121912   1.914   0.003   9.627  0.4174  1.4603 -2.5344
 1434SOL    HW221913   2.054  -0.056   9.623  0.0464  0.5016 -1.7144
 1435SOL     OW21914   4.434   7.591   4.441  0.5461  0.0035  0.3997
 1435SOL    HW121915   4.394   7.534   4.506  1.1270 -0.9349 -0.0435
 1435SOL    HW221916   4.421   7.546   4.357  0.2060  0.9722 -0.0793
 1436SOL     OW21917   2.439   6.799   9.657 -0.1039 -0.2047 -0.3121
 1436SOL    HW121918   2.404   6.882   9.689  0.0145 -0.1075 -0.4318
 1436SOL    HW221919   2.432   6.805   9.561  0.2878 -0.1583 -0.3408
 1437SOL     OW21920   6.531   7.691   1.182 -0.7748 -0.6670  0.3842
 1437SOL    HW121921   6.530   7.777   1.139 -1.9949 -0.9472 -0.1640
 1437SOL    HW221922   6.624   7.668   1.187 -0.5426 -0.0836 -0.9879
 1438SOL     OW21923  11.068   1.300   0.535  0.0662 -0.2217  0.8217
 1438SOL    HW121924  11.040   1.266   0.620  2.5301 -2.4375  0.8609
 1438SOL    HW221925  11.092   1.223   0.484  0.6228  1.1656 -1.1596
 1439SOL     OW21926   8.972   6.926  10.077 -0.1680  0.5193  0.0202
 1439SOL    HW121927   8.956   6.897   9.987 -0.6932 -1.6498  0.7582
 1439SOL    HW221928   8.895   6.977  10.100  0.2500  1.6374 -0.9369
 1440SOL     OW21929   3.667   9.004   8.604  0.2474 -0.0000 -0.2804
 1440SOL    HW121930   3.676   8.916   8.568 -0.6644  0.4960 -1.8250
 1440SOL    HW221931   3.696   9.062   8.533 -1.3494  1.0148 -0.1407
 1441SOL     OW21932   5.684   2.844   0.298 -0.0211  0.1842 -0.7478
 1441SOL    HW121933   5.768   2.888   0.284 -0.1595 -0.0624 -2.5189
 1441SOL    HW221934   5.624   2.886   0.238 -1.8845  2.0245  2.1654
 1442SOL     OW21935   7.674   7.542   7.045  0.8820  0.5781  0.1625
 1442SOL    HW121936   7.723   7.620   7.019  0.2524  0.8512 -0.2397
 1442SOL    HW221937   7.662   7.492   6.964  0.4471  0.5500  0.2380
 1443SOL     OW21938   6.407  14.027   5.790 -0.5300  0.0593  0.4854
 1443SOL    HW121939   6.496  14.049   5.764 -1.1077  0.5789 -1.1818
 1443SOL    HW221940   6.415  13.945   5.839  0.5825 -1.4552 -2.0768
 1444SOL     OW21941   1.002   0.243  11.049 -0.3465  0.1507 -0.0625
 1444SOL    HW121942   0.969   0.160  11.014  0.9522 -0.4585  0.0679
 1444SOL    HW221943   0.962   0.250  11.135  1.0879 -1.4313  0.8070
 1445SOL     OW21944   1.673   8.712   2.462  0.2355  0.2656  0.4837
 1445SOL    HW121945   1.636   8.726   2.375 -0.3576  0.6078  0.7773
 1445SOL    HW221946   1.726   8.790   2.478 -1.2803  1.2029  1.2226
 1446SOL     OW21947  12.141   9.961   4.915  0.0549 -0.1090 -0.1012
 1446SOL    HW121948  12.178  10.048   4.927 -0.5142  0.2239 -0.6831
 1446SOL    HW221949  12.190   9.924   4.841 -0.6439  0.2750 -0.7753
 1447SOL     OW21950   6.496   0.365   5.686  0.7248 -0.3283 -0.1539
 1447SOL    HW121951   6.587   0.392   5.704  1.4321 -1.3878 -1.9221
 1447SOL    HW221952   6.464   0.332   5.770  1.1349  2.2098  1.1113
 1448SOL     OW21953   0.912   2.616  13.050  0.3163 -0.3034 -0.6956
 1448SOL    HW121954   0.904   2.693  12.993  0.3644 -0.8223 -1.4199
 1448SOL    HW221955   0.822   2.591  13.069  0.2883  0.7090  0.6412
 1449SOL     OW21956   5.904   8.427   3.911  0.0302 -0.0649 -0.1307
 1449SOL    HW121957   5.853   8.504   3.889  1.1139  1.0263  1.0439
 1449SOL    HW221958   5.854   8.383   3.980 -0.4316 -0.2783 -0.5892
 1450SOL     OW21959   2.156  12.082   8.254 -0.4292  0.1347 -0.1554
 1450SOL    HW121960   2.248  12.105   8.242 -0.4045  2.4515  3.1835
 1450SOL    HW221961   2.157  12.012   8.319 -1.0310  0.1156 -0.1598
 1451SOL     OW21962  10.715   5.151  11.601 -0.6192  0.7896 -0.0424
 1451SOL    HW121963  10.727   5.179  11.692 -0.0717  1.0039 -0.1759
 1451SOL    HW221964  10.709   5.056  11.605  2.3957  0.4943 -0.0492
 1452SOL     OW21965  10.439   7.854   8.949  0.0735  0.3957  0.6207
 1452SOL    HW121966  10.457   7.892   8.863  0.4818 -0.0217  0.5146
 1452SOL    HW221967  10.412   7.928   9.003  0.5825  0.7877  0.3482
 1453SOL     OW21968   6.437   1.311   5.168 -0.4202 -0.5885 -0.2926
 1453SOL    HW121969   6.348   1.322   5.134 -0.6820 -1.5301  0.0646
 1453SOL    HW221970   6.441   1.220   5.197  0.5307 -0.4409  0.0820
 1454SOL     OW21971   7.974   7.804   7.627 -0.1402  0.0209  0.1559
 1454SOL    HW121972   8.037   7.758   7.682  0.0801 -1.2500 -1.0760
 1454SOL    HW221973   7.906   7.738   7.609 -0.5956  0.6432 -0.4513
 1455SOL     OW21974   1.043   0.566   5.776  0.0548  0.0144 -0.3285
 1455SOL    HW121975   1.052   0.657   5.750  2.3524 -0.2411 -0.6268
 1455SOL    HW221976   1.080   0.563   5.865  0.6617 -0.7383 -0.5952
 1456SOL     OW21977  11.374   5.586   0.999 -0.5463  0.2498  0.0988
 1456SOL    HW121978  11.311   5.534   1.048 -2.0250 -1.3165 -3.1762
 1456SOL    HW221979  11.457   5.540   1.009 -0.9518 -0.3848  0.5701
 1457SOL     OW21980   0.082   2.302   7.274  0.2537 -0.3280 -0.0874
 1457SOL    HW121981   0.153   2.241   7.294  0.6216  0.1439  0.0671
 1457SOL    HW221982   0.075   2.358   7.351 -0.3480 -0.4280 -0.0650
 1458SOL     OW21983   0.014   4.756   4.218 -0.2135  0.0422  0.0586
 1458SOL    HW121984   0.026   4.697   4.292  0.2812  0.5522  0.3880
 1458SOL    HW221985  -0.012   4.698   4.146  1.6210 -0.7823 -0.0043
 1459SOL     OW21986   3.221   7.866   6.768 -0.1041 -0.1982 -0.0055
 1459SOL    HW121987   3.308   7.836   6.743 -0.5688 -1.1575 -0.5464
 1459SOL    HW221988   3.219   7.858   6.863  0.1334 -0.9441 -0.0562
 1460SOL     OW21989   3.566   1.995   5.780 -0.5290  0.7428  0.8269
 1460SOL    HW121990   3.550   1.954   5.695 -0.6425  1.3635  0.5454
 1460SOL    HW221991   3.479   2.013   5.815 -0.4892  0.1542  1.2452
 1461SOL     OW21992   1.307  11.261  11.228  0.4669  0.1859 -0.5786
 1461SOL    HW121993   1.312  11.322  11.155  0.3844 -0.6549 -1.3015
 1461SOL    HW221994   1.238  11.200  11.204 -2.9707  2.5372  2.2836
 1462SOL     OW21995   9.856   8.587   2.011  0.0667  0.5649  0.3120
 1462SOL    HW121996   9.786   8.530   1.980 -0.3635  0.7406  0.9336
 1462SOL    HW221997   9.845   8.668   1.962 -1.6416  1.4470  2.0284
 1463SOL     OW21998   9.236   8.967  12.269  0.1525 -0.2284  0.0365
 1463SOL    HW121999   9.330   8.985  12.273 -0.0369  1.0472 -0.6581
 1463SOL    HW222000   9.229   8.872  12.268  1.5540 -0.3614 -1.8517
 1464SOL     OW22001   9.273  13.507   2.265  0.3316  0.0412  0.0095
 1464SOL    HW122002   9.338  13.559   2.217 -0.2969  1.3008  0.4575
 1464SOL    HW222003   9.258  13.557   2.346  0.1270 -1.1628  0.7400
 1465SOL     OW22004  12.817   7.924   0.571  0.3888 -0.2052 -0.3453
 1465SOL    HW122005  12.868   7.987   0.623  2.1519 -1.9732  0.2200
 1465SOL    HW222006  12.770   7.872   0.636  0.1193 -0.4156 -0.7046
 1466SOL     OW22007  14.038   7.406   4.247  0.2592  0.4500 -0.2162
 1466SOL    HW122008  14.017   7.497   4.267  0.4672  0.4408  0.0642
 1466SOL    HW222009  13.987   7.385   4.169 -2.1676 -0.1121  1.4182
 1467SOL     OW22010   4.087  12.923   6.447  0.4023 -0.0290  0.3646
 1467SOL    HW122011   4.084  12.827   6.443  1.1618 -0.0749  0.7974
 1467SOL    HW222012   4.111  12.950   6.359 -0.5585 -0.1876  0.0345
 1468SOL     OW22013   5.109   5.918   3.813  0.0763 -0.4415  0.0572
 1468SOL    HW122014   5.048   5.895   3.883 -0.3093  0.2603 -0.0369
 1468SOL    HW222015   5.106   5.844   3.753  0.9815 -1.4054  1.1411
 1469SOL     OW22016  12.803  13.271   2.909 -0.4395  0.5830 -0.6902
 1469SOL    HW122017  12.735  13.210   2.880 -0.3018  0.5788 -1.0093
 1469SOL    HW222018  12.770  13.305   2.992 -0.0519 -0.6700  0.0070
 1470SOL     OW22019   2.307  11.732   9.094  0.1414  0.3820  0.2045
 1470SOL    HW122020   2.303  11.689   9.180  0.5541  1.1135  0.5914
 1470SOL    HW222021   2.249  11.807   9.102 -2.3864 -1.2619 -1.1827
 1471SOL     OW22022  10.095   0.813  12.919  0.4233 -0.1882  0.0079
 1471SOL    HW122023  10.108   0.907  12.913  0.0970 -0.0461  1.2398
 1471SOL    HW222024  10.146   0.777  12.846 -1.0666  1.0410 -1.7186
 1472SOL     OW22025   3.950   2.064   2.109 -0.1372 -0.3293  0.3485
 1472SOL    HW122026   3.992   2.050   2.024  2.7900  1.3073  1.3821
 1472SOL    HW222027   3.973   2.154   2.132 -2.4954 -0.0790  2.0707
 1473SOL     OW22028  12.829  11.691   7.280  0.5038  0.0422 -0.1903
 1473SOL    HW122029  12.921  11.712   7.265 -0.0929  1.4260 -2.4607
 1473SOL    HW222030  12.786  11.776   7.291 -0.5654 -0.5626  0.4950
 1474SOL     OW22031   9.805   1.059   1.210  0.4767 -0.6745 -0.3211
 1474SOL    HW122032   9.800   0.964   1.203  0.3943 -0.7454  0.5266
 1474SOL    HW222033   9.725   1.084   1.257  0.6061 -0.2142 -0.3383
 1475SOL     OW22034   5.885   4.567   0.319 -0.1749 -0.3559  0.0640
 1475SOL    HW122035   5.961   4.518   0.351  0.7769  1.2363  0.3609
 1475SOL    HW222036   5.833   4.584   0.398  0.4873  0.7384  0.2826
 1476SOL     OW22037  12.138   5.688   1.091 -0.2476 -0.3501 -0.0865
 1476SOL    HW122038  12.166   5.597   1.100  1.8691  0.1806 -0.6289
 1476SOL    HW222039  12.061   5.685   1.035  0.2955 -1.7379 -0.7941
 1477SOL     OW22040   7.178  12.515  12.504 -0.2560 -0.2934  0.0844
 1477SOL    HW122041   7.261  12.502  12.459 -0.6373  0.1074 -0.7584
 1477SOL    HW222042   7.158  12.608  12.492 -0.2576 -0.1288  1.2822
 1478SOL     OW22043  11.607  11.885   8.370 -0.1324  0.7764 -0.2644
 1478SOL    HW122044  11.513  11.869   8.376 -0.1561  1.0858  0.2036
 1478SOL    HW222045  11.618  11.975   8.399 -0.0046  1.6751 -2.8372
 1479SOL     OW22046   2.885   9.289   2.455 -0.4603  0.2144  0.0199
 1479SOL    HW122047   2.808   9.248   2.494 -0.8234  0.5142 -0.3740
 1479SOL    HW222048   2.865   9.295   2.362  0.2750 -0.2098 -0.1739
 1480SOL     OW22049   0.719  13.322   4.333  0.0264 -0.3290  0.5479
 1480SOL    HW122050   0.728  13.240   4.283  2.3562 -0.6494  1.3764
 1480SOL    HW222051   0.753  13.301   4.420 -1.3388  0.9882  1.4545
 1481SOL     OW22052   9.610  11.906  12.384  0.5773 -0.5503 -0.0518
 1481SOL    HW122053   9.634  11.827  12.432 -0.1405 -2.5399 -2.6758
 1481SOL    HW222054   9.517  11.918  12.403 -0.0563 -2.1274 -1.7670
 1482SOL     OW22055   7.526   5.693   9.150 -0.1741 -0.4846 -0.5531
 1482SOL    HW122056   7.604   5.666   9.100 -0.7929 -1.5547 -0.9801
 1482SOL    HW222057   7.494   5.771   9.104  1.0298  0.3810  0.0429
 1483SOL     OW22058   5.883   4.149   5.629  0.1908 -0.2480  0.3806
 1483SOL    HW122059   5.839   4.065   5.615  0.1454  0.1746 -2.4853
 1483SOL    HW222060   5.813   4.214   5.626  0.6028  0.1618 -1.0768
 1484SOL     OW22061  10.103   0.174   0.805 -0.0969  0.1309  0.1495
 1484SOL    HW122062  10.152   0.149   0.883 -0.2146  0.3741  0.3007
 1484SOL    HW222063  10.027   0.222   0.838  0.4373  1.2091 -0.1720
 1485SOL     OW22064   2.724  12.784   9.255 -0.6692 -0.5127 -0.1716
 1485SOL    HW122065   2.789  12.853   9.268 -0.1924 -0.7853 -1.0181
 1485SOL    HW222066   2.756  12.711   9.309 -0.6558 -0.4029 -0.0311
 1486SOL     OW22067  11.681   8.708  10.017  0.0758  0.9151  0.3186
 1486SOL    HW122068  11.697   8.750  10.102  1.8740  1.8924 -0.4503
 1486SOL    HW222069  11.623   8.768   9.971 -0.4030  0.6873  0.6187
 1487SOL     OW22070   3.874   8.717  10.953 -0.3800 -0.1725 -0.1170
 1487SOL    HW122071   3.868   8.805  10.990  0.9446 -0.5321  1.0599
 1487SOL    HW222072   3.785   8.682  10.958 -0.7559  0.8017  0.1604
 1488SOL     OW22073   4.560   4.042   9.422  0.1670  0.5349  0.1550
 1488SOL    HW122074   4.533   4.111   9.482  0.2609 -0.5563  1.5053
 1488SOL    HW222075   4.491   3.976   9.428 -0.1310  0.6600 -1.4264
 1489SOL     OW22076   9.446   2.034   0.037  0.5624  0.1364 -0.4661
 1489SOL    HW122077   9.485   2.100   0.094  1.9233 -0.5491 -0.5584
 1489SOL    HW222078   9.363   2.011   0.079  1.3205 -0.0198  0.9998
 1490SOL     OW22079   3.921   8.105  13.173 -0.1094 -0.3142 -0.0921
 1490SOL    HW122080   3.932   8.161  13.250  2.3183 -1.0382  0.1412
 1490SOL    HW222081   3.935   8.016  13.205  1.3051 -0.6027 -1.4151
 1491SOL     OW22082   3.025   1.288   4.792 -0.2976  0.6318 -0.1811
 1491SOL    HW122083   3.053   1.203   4.827 -2.0484  0.1657  0.1561
 1491SOL    HW222084   3.105   1.341   4.792  0.5240 -0.5472  1.0032
 1492SOL     OW22085   0.010  13.304   5.676 -0.1281  0.5535 -0.0890
 1492SOL    HW122086  -0.020  13.217   5.653  1.4443  0.2235 -1.0260
 1492SOL    HW222087  -0.031  13.362   5.612 -1.4442  0.5857  0.7405
 1493SOL     OW22088  11.223  10.821   2.386 -0.6640 -0.0567 -0.0365
 1493SOL    HW122089  11.282  10.891   2.357  0.7389 -1.2960 -0.2923
 1493SOL    HW222090  11.226  10.826   2.482 -0.1305 -0.1126 -0.0481
 1494SOL     OW22091   2.564   5.019  11.207 -0.1211  0.3151 -0.4290
 1494SOL    HW122092   2.632   5.009  11.274 -1.1555 -1.6088  0.3865
 1494SOL    HW222093   2.559   4.934  11.164 -2.6876  0.0729  0.1943
 1495SOL     OW22094  10.684   2.004   4.951 -0.5456  0.1248 -0.0385
 1495SOL    HW122095  10.661   1.953   5.029 -0.8539  0.4231  0.0691
 1495SOL    HW222096  10.659   1.948   4.877 -2.2728  0.7120  0.0687
 1496SOL     OW22097   4.345   2.408   4.307 -0.7889 -0.5207 -0.1960
 1496SOL    HW122098   4.318   2.459   4.384 -0.7007  1.0236 -1.1569
 1496SOL    HW222099   4.420   2.357   4.338 -0.8500 -0.0440  0.7826
 1497SOL     OW22100  11.773  10.650  12.312 -0.2388 -0.2978  0.3800
 1497SOL    HW122101  11.802  10.738  12.336 -1.4081  0.5619 -1.1720
 1497SOL    HW222102  11.707  10.628  12.378 -1.0153  0.6427 -0.0532
 1498SOL     OW22103   1.994  10.235  13.050 -0.1535  0.3687  0.1990
 1498SOL    HW122104   2.073  10.181  13.047 -0.4612 -0.0318 -2.4407
 1498SOL    HW222105   2.012  10.299  13.119  1.7703 -0.7386  0.8078
 1499SOL     OW22106  12.147   7.895   0.663  0.7265 -0.1303  0.2078
 1499SOL    HW122107  12.087   7.935   0.600 -0.1874  0.3254  1.3175
 1499SOL    HW222108  12.235   7.917   0.631  0.2629  2.0598  0.2966
 1500SOL     OW22109  13.060  12.228  14.072  0.4339 -0.5179 -0.4703
 1500SOL    HW122110  13.005  12.176  14.130 -0.0987  0.3762 -0.1642
 1500SOL    HW222111  13.006  12.242  13.994  0.9352 -1.2317 -0.9569
 1501SOL     OW22112  13.522   8.411  13.985 -0.2371  0.4239 -0.5624
 1501SOL    HW122113  13.472   8.370  14.056  1.8436 -3.1733 -0.9690
 1501SOL    HW222114  13.605   8.435  14.025  0.4049 -0.2883 -1.4304
 1502SOL     OW22115   2.336  12.980   8.579  0.2831 -0.0929  0.5814
 1502SOL    HW122116   2.372  13.051   8.632  0.1752 -0.3834  1.0477
 1502SOL    HW222117   2.282  12.930   8.640  0.3062 -0.5377  0.2386
 1503SOL     OW22118   8.116   6.191  12.627 -0.0040 -0.4142 -0.6924
 1503SOL    HW122119   8.203   6.153  12.642  0.4095  0.7337 -0.0166
 1503SOL    HW222120   8.070   6.126  12.573  0.6935 -1.8103  0.3148
 1504SOL     OW22121   8.084   0.052   2.066 -0.3459  0.1901 -0.6271
 1504SOL    HW122122   8.109   0.007   1.985 -0.5253  0.6905 -0.9673
 1504SOL    HW222123   8.013   0.110   2.040  0.0253  0.8343 -0.2479
 1505SOL     OW22124  10.575   4.561   8.027 -0.4298  0.0211  0.3368
 1505SOL    HW122125  10.584   4.466   8.020 -0.8639 -0.1132  1.3420
 1505SOL    HW222126  10.654   4.589   8.073 -1.2598 -0.1465  1.9445
 1506SOL     OW22127  10.014   7.241   4.567 -0.4315 -0.0317 -0.2006
 1506SOL    HW122128  10.062   7.305   4.620 -1.9148  1.1140 -0.1703
 1506SOL    HW222129  10.024   7.273   4.477 -0.3133 -0.3452 -0.2987
 1507SOL     OW22130   2.151  12.025   7.134 -0.0398  0.4842  0.1392
 1507SOL    HW122131   2.063  12.038   7.100  0.3173  0.9254 -0.6184
 1507SOL    HW222132   2.202  12.098   7.099  1.1572 -0.9691 -1.2775
 1508SOL     OW22133  13.113  11.331  11.177 -0.0411 -0.4771  0.0201
 1508SOL    HW122134  13.123  11.363  11.267  0.3243 -0.1575 -0.1300
 1508SOL    HW222135  13.030  11.284  11.177 -0.6790  0.5967  0.2182
 1509SOL     OW22136   9.737   0.647   5.920  0.9545  0.5868  0.0123
 1509SOL    HW122137   9.694   0.681   5.842  0.5540  0.8547  0.3490
 1509SOL    HW222138   9.825   0.685   5.918  1.4441 -0.5564 -1.0742
 1510SOL     OW22139  13.100  12.983  11.036 -0.5569 -0.2605 -0.0136
 1510SOL    HW122140  13.053  13.004  10.955 -1.4515  2.6300  1.1184
 1510SOL    HW222141  13.184  13.029  11.027 -0.1462 -0.9553  0.2100
 1511SOL     OW22142  13.462  10.661  12.878 -0.1024  0.3524  0.0058
 1511SOL    HW122143  13.396  10.621  12.935 -0.5028 -0.1291 -0.7831
 1511SOL    HW222144  13.538  10.603  12.885 -0.8272 -0.8487 -1.4767
 1512SOL     OW22145  12.178   8.030  13.508  0.2291  0.3268 -0.1388
 1512SOL    HW122146  12.188   7.990  13.421 -0.7776 -0.4766  0.1032
 1512SOL    HW222147  12.254   8.087  13.516  1.0111 -0.5471 -1.0342
 1513SOL     OW22148   0.572   7.230  10.198  0.1085 -0.0631  0.2766
 1513SOL    HW122149   0.593   7.149  10.153  1.3082  0.5299 -0.2817
 1513SOL    HW222150   0.556   7.293  10.128 -1.1156  0.1332  0.7000
 1514SOL     OW22151   2.939   3.246   0.092  0.2502 -0.3836 -0.4932
 1514SOL    HW122152   2.915   3.154   0.083 -0.5567 -0.4532  1.8199
 1514SOL    HW222153   2.864   3.294   0.056 -0.7724 -0.6604  1.1457
 1515SOL     OW22154   4.098   4.317   6.600 -0.0413  0.1174 -0.3990
 1515SOL    HW122155   4.111   4.304   6.506 -2.0243 -1.9871 -0.4563
 1515SOL    HW222156   4.164   4.260   6.641 -0.6744 -0.7554 -0.5652
 1516SOL     OW22157  13.188  11.687  11.447 -0.3276  0.4895 -0.4828
 1516SOL    HW122158  13.116  11.730  11.401  0.1869  1.7010 -0.1948
 1516SOL    HW222159  13.145  11.630  11.511 -1.0433 -0.6880 -1.9307
 1517SOL     OW22160   7.784   1.085  13.417  0.1583 -0.4369 -0.1591
 1517SOL    HW122161   7.851   1.017  13.425  1.8638  1.1866  0.1428
 1517SOL    HW222162   7.831   1.162  13.386 -1.4340  1.0041  0.7964
 1518SOL     OW22163  10.508   4.894   4.372 -0.0506 -0.1798 -0.2344
 1518SOL    HW122164  10.577   4.954   4.345 -0.0505 -0.2768 -0.4450
 1518SOL    HW222165  10.501   4.831   4.301  1.2644 -1.5784  0.7978
 1519SOL     OW22166   6.395   7.392   6.057  0.2355 -0.3579 -0.2105
 1519SOL    HW122167   6.394   7.333   6.132 -2.2952  0.6374  0.6578
 1519SOL    HW222168   6.319   7.366   6.004  1.4776 -0.4892 -2.0072
 1520SOL     OW22169   1.888  11.947   2.604 -0.8192 -0.4389  0.2717
 1520SOL    HW122170   1.795  11.924   2.609 -0.6770 -1.2518 -0.5187
 1520SOL    HW222171   1.919  11.944   2.694 -1.9009  1.4114  0.7694
 1521SOL     OW22172   5.910   6.465   3.260  0.2853  0.2894 -0.1270
 1521SOL    HW122173   5.945   6.546   3.298 -0.7937 -0.1639  1.9729
 1521SOL    HW222174   5.958   6.396   3.305 -0.3940 -0.2681 -0.2502
 1522SOL     OW22175   0.374   2.655   8.865 -0.1411 -0.0125  0.1035
 1522SOL    HW122176   0.357   2.711   8.940  0.9271 -0.6712  0.8619
 1522SOL    HW222177   0.349   2.708   8.789 -2.5344  0.1613  0.9591
 1523SOL     OW22178  11.466   0.687   7.877 -0.1973  0.2752 -0.1108
 1523SOL    HW122179  11.440   0.628   7.948 -1.4016 -0.5980 -1.2163
 1523SOL    HW222180  11.544   0.646   7.839  0.6423  0.9136  0.8733
 1524SOL     OW22181  10.774  12.965   1.705 -0.3538  0.3790 -0.4355
 1524SOL    HW122182  10.729  12.922   1.632  0.4321 -1.3176  0.0302
 1524SOL    HW222183  10.704  12.988   1.766 -0.9853  1.5082 -1.5375
 1525SOL     OW22184   6.892  13.188   8.743  0.1529  0.1093  0.5143
 1525SOL    HW122185   6.890  13.213   8.651 -0.6816  0.7023  0.6768
 1525SOL    HW222186   6.955  13.247   8.783  0.2137  0.1245  0.3953
 1526SOL     OW22187   3.616   5.879   1.674  0.4457  0.2947  0.4644
 1526SOL    HW122188   3.550   5.828   1.721  1.2088 -1.1486  0.0143
 1526SOL    HW222189   3.655   5.818   1.612 -0.3232  2.0572 -1.8946
 1527SOL     OW22190   2.672  12.169   6.935 -0.1542  0.6150  0.2708
 1527SOL    HW122191   2.758  12.208   6.945 -0.5071  1.2538  0.9233
 1527SOL    HW222192   2.613  12.243   6.923 -0.6160  0.1870 -0.1695
 1528SOL     OW22193   5.908  13.886   2.715  0.3779  0.3946 -0.1453
 1528SOL    HW122194   5.933  13.963   2.766  0.3587  2.0126 -2.4172
 1528SOL    HW222195   5.992  13.843   2.695  0.4874  0.4701  0.1386
 1529SOL     OW22196   9.862  10.584  13.945 -0.4454 -0.0353 -0.0024
 1529SOL    HW122197   9.828  10.517  13.886 -0.1259 -0.2127  0.0113
 1529SOL    HW222198   9.882  10.537  14.026  0.3937 -0.0449 -0.2127
 1530SOL     OW22199   3.697  10.034   2.151 -0.8425 -0.1967  0.5428
 1530SOL    HW122200   3.648  10.031   2.233 -0.6465  1.2263  0.7459
 1530SOL    HW222201   3.785  10.003   2.174 -0.6947  0.5079  0.9533
 1531SOL     OW22202  13.413   4.181  12.348  0.9178  0.4766 -0.2594
 1531SOL    HW122203  13.480   4.210  12.408 -1.3946  0.5095  2.5214
 1531SOL    HW222204  13.408   4.086  12.361 -0.6601  0.6792  0.8735
 1532SOL     OW22205   9.318   2.144   9.067  0.2478  0.1948  0.0504
 1532SOL    HW122206   9.284   2.058   9.040 -0.9337  0.1442  1.5483
 1532SOL    HW222207   9.412   2.129   9.080  0.3728 -0.4105 -1.3862
 1533SOL     OW22208   8.350  11.186  12.626 -0.2227 -0.0029 -0.0887
 1533SOL    HW122209   8.362  11.128  12.551  1.1041 -0.1025  0.1784
 1533SOL    HW222210   8.428  11.172  12.680 -1.3632 -0.2809  1.5548
 1534SOL     OW22211   5.226   0.234   4.188 -0.1206  0.2866  0.3705
 1534SOL    HW122212   5.299   0.207   4.245 -0.0636 -1.3252 -0.4148
 1534SOL    HW222213   5.155   0.174   4.210 -0.1152 -0.3411 -1.1773
 1535SOL     OW22214   7.308   3.716   3.676 -0.2558 -0.0426 -0.2557
 1535SOL    HW122215   7.224   3.736   3.718 -0.4702  1.9694 -1.5230
 1535SOL    HW222216   7.294   3.738   3.584  1.1438 -1.3876 -0.8198
 1536SOL     OW22217   7.881   3.822   4.196 -0.1938  0.0242 -0.4914
 1536SOL    HW122218   7.923   3.738   4.177 -0.2297  0.3035 -1.9417
 1536SOL    HW222219   7.874   3.825   4.291  2.1130 -0.5024 -0.2510
 1537SOL     OW22220  10.737   2.084   7.016 -0.3377  0.5463  0.1344
 1537SOL    HW122221  10.824   2.096   7.055 -0.9368 -0.6349  1.9416
 1537SOL    HW222222  10.707   2.000   7.050 -2.0868  0.8093 -0.6820
 1538SOL     OW22223   5.546  12.524   9.044 -0.4300 -0.5713  0.0889
 1538SOL    HW122224   5.557  12.481   9.129  1.1601 -0.5472 -0.0757
 1538SOL    HW222225   5.608  12.596   9.044  0.0831 -0.9613 -1.3314
 1539SOL     OW22226   5.301  13.442   9.202  0.3505 -0.1998 -0.2529
 1539SOL    HW122227   5.381  13.494   9.207  0.7720 -0.8459 -0.1627
 1539SOL    HW222228   5.233  13.500   9.237  0.8701  0.1730  0.1580
 1540SOL     OW22229   5.499   0.367  10.100  0.2500  0.2494 -0.3709
 1540SOL    HW122230   5.489   0.272  10.111  0.7387  0.3917  1.7727
 1540SOL    HW222231   5.462   0.385  10.014  1.7338 -2.1311 -1.6137
 1541SOL     OW22232   7.623   6.250   2.819  0.2995 -0.1367  0.4301
 1541SOL    HW122233   7.591   6.329   2.775 -0.2414 -0.2137  0.6698
 1541SOL    HW222234   7.544   6.212   2.858  0.0729 -2.2118 -1.8414
 1542SOL     OW22235  13.481   0.234   3.690 -0.2906 -0.1097 -0.2488
 1542SOL    HW122236  13.535   0.290   3.746  0.8424 -0.3733 -1.0235
 1542SOL    HW222237  13.543   0.201   3.625 -1.3790 -0.5694 -1.0661
 1543SOL     OW22238  13.453   7.618   5.368 -0.4219 -0.4252 -0.2521
 1543SOL    HW122239  13.370   7.576   5.348 -1.2932  0.7245  0.7682
 1543SOL    HW222240  13.444   7.707   5.334 -0.5950  0.4720  1.9546
 1544SOL     OW22241   4.396  13.790   6.897  0.5335 -0.1999  0.1083
 1544SOL    HW122242   4.440  13.873   6.916  0.4265  0.0793 -0.8362
 1544SOL    HW222243   4.366  13.759   6.983  1.2663  0.3370  0.5770
 1545SOL     OW22244   4.928  10.752   5.724  0.3625 -0.1242 -0.4690
 1545SOL    HW122245   4.864  10.698   5.770 -1.6457  0.9674 -1.8273
 1545SOL    HW222246   5.005  10.752   5.781 -1.2198 -0.5792  1.8052
 1546SOL     OW22247   0.069  10.321   6.146  0.0410 -0.0286 -0.0563
 1546SOL    HW122248   0.014  10.291   6.219  0.9193 -0.7183  0.3435
 1546SOL    HW222249   0.157  10.292   6.170  0.1882 -1.2379 -1.9056
 1547SOL     OW22250   3.704  13.580   9.775 -0.2818  0.7632  0.0861
 1547SOL    HW122251   3.774  13.610   9.833 -0.7140  0.2070  0.9250
 1547SOL    HW222252   3.729  13.491   9.753 -1.6004 -0.1170  1.8914
 1548SOL     OW22253   6.533   7.279   2.861 -0.0788  0.2580 -0.0970
 1548SOL    HW122254   6.550   7.356   2.807 -2.3109  1.9204  1.3595
 1548SOL    HW222255   6.571   7.301   2.946 -0.9682 -0.0990  0.4059
 1549SOL     OW22256   9.076   5.695   4.800 -0.4713  0.3423  0.2993
 1549SOL    HW122257   9.103   5.635   4.869 -0.3681 -0.4158 -0.3775
 1549SOL    HW222258   8.990   5.726   4.827 -0.6505 -0.3347  0.5259
 1550SOL     OW22259  10.295  11.719   9.793 -0.0813 -0.5060 -0.2162
 1550SOL    HW122260  10.386  11.690   9.781  0.5625  1.7300 -1.3485
 1550SOL    HW222261  10.264  11.670   9.869  2.4089 -0.6261  0.8159
 1551SOL     OW22262  12.710   2.663   2.020  0.0122  0.4385  0.2934
 1551SOL    HW122263  12.685   2.736   2.077  0.3619  0.8591 -0.0841
 1551SOL    HW222264  12.806   2.664   2.020  0.0295 -0.4138  0.7774
 1552SOL     OW22265  13.626  10.987   1.216 -0.2162  0.3440  0.0828
 1552SOL    HW122266  13.683  10.961   1.289  0.3286  0.2895 -0.3580
 1552SOL    HW222267  13.638  11.082   1.210  0.1249  0.2788 -0.2594
 1553SOL     OW22268  10.401  12.185   6.634  0.2631  0.4059 -0.0634
 1553SOL    HW122269  10.475  12.147   6.587 -1.2281 -4.0926  0.7371
 1553SOL    HW222270  10.424  12.176   6.726 -0.2854  1.2671  0.1715
 1554SOL     OW22271   1.772  13.577  12.522 -0.6717  0.5974  0.7284
 1554SOL    HW122272   1.681  13.552  12.503  0.1758 -0.1039 -3.1511
 1554SOL    HW222273   1.804  13.616  12.441  2.3754  1.3994  2.1700
 1555SOL     OW22274   0.463   2.028   4.425 -0.0542 -0.1885 -0.4806
 1555SOL    HW122275   0.497   1.998   4.340  1.4987 -1.9522  0.6752
 1555SOL    HW222276   0.540   2.053   4.475 -0.8510 -0.0391  0.7302
 1556SOL     OW22277   6.286   1.764  10.396  0.1068 -0.1818 -0.2045
 1556SOL    HW122278   6.237   1.726  10.324 -0.1336 -0.4133  0.0786
 1556SOL    HW222279   6.378   1.753  10.371  0.0292  0.9558 -1.0996
 1557SOL     OW22280   5.686   4.237   4.381 -0.2176  0.2800  0.1684
 1557SOL    HW122281   5.691   4.184   4.461  0.7710  0.1953  0.0569
 1557SOL    HW222282   5.745   4.195   4.320  0.6415  1.5382  0.0975
 1558SOL     OW22283   0.318   3.359  11.308  0.0709 -0.2682  0.2098
 1558SOL    HW122284   0.253   3.429  11.313 -3.1572 -3.0596  1.1228
 1558SOL    HW222285   0.351   3.350  11.398  1.3049  0.6753 -0.1149
 1559SOL     OW22286   1.054  11.034   6.059  0.3631 -0.2879  0.3295
 1559SOL    HW122287   1.140  11.075   6.053 -0.0380  0.6300  0.6406
 1559SOL    HW222288   0.992  11.105   6.042 -0.3889 -0.5251  1.8822
 1560SOL     OW22289   5.093   2.446   2.005  0.4473  0.2862  0.4154
 1560SOL    HW122290   5.094   2.381   2.075 -0.6985 -0.5374 -0.3010
 1560SOL    HW222291   5.184   2.473   1.996  1.6504 -3.6237 -1.3988
 1561SOL     OW22292   4.025   3.342   9.234  0.2439  0.1149 -0.3059
 1561SOL    HW122293   3.981   3.387   9.163  0.1655 -2.8294 -2.2665
 1561SOL    HW222294   4.109   3.315   9.197  2.2507  2.3412  2.1900
 1562SOL     OW22295   5.147  10.185   6.129 -0.1216  0.3416  0.3405
 1562SOL    HW122296   5.074  10.193   6.190  0.4235  1.8801  0.8534
 1562SOL    HW222297   5.125  10.245   6.058  0.3927  0.4226  0.2457
 1563SOL     OW22298   7.328   6.160   1.095  0.1432 -0.2399 -1.0085
 1563SOL    HW122299   7.240   6.166   1.056 -0.5488 -1.6281  0.2202
 1563SOL    HW222300   7.316   6.194   1.184  0.4926 -1.7882 -0.3506
 1564SOL     OW22301  12.472  13.115   2.313  0.0727 -0.0716 -0.3788
 1564SOL    HW122302  12.422  13.122   2.231 -0.3878 -0.0066 -0.0953
 1564SOL    HW222303  12.537  13.186   2.307 -0.7952  0.7589 -0.1192
 1565SOL     OW22304   4.847  11.704   4.905 -0.3200  0.1949  0.3301
 1565SOL    HW122305   4.770  11.746   4.942 -0.6217 -0.4770  0.4756
 1565SOL    HW222306   4.836  11.713   4.810  0.0436  1.1844  0.3701
 1566SOL     OW22307   6.640  11.590  13.009 -0.2242 -0.4398  0.3055
 1566SOL    HW122308   6.578  11.655  13.044  0.5543 -0.5015  1.8891
 1566SOL    HW222309   6.726  11.624  13.034  0.2944 -1.2440 -0.3410
 1567SOL     OW22310   4.159   6.521   8.599  0.1336  0.3470 -0.6286
 1567SOL    HW122311   4.236   6.490   8.648 -0.3073 -2.3045 -1.4557
 1567SOL    HW222312   4.096   6.546   8.667  0.4406 -0.9204  0.1603
 1568SOL     OW22313   7.962   7.931  13.304  0.1305  0.6066 -0.8202
 1568SOL    HW122314   8.015   7.962  13.376 -1.3609 -0.2496  0.7328
 1568SOL    HW222315   7.927   8.010  13.263 -1.3172  1.1142  1.2508
 1569SOL     OW22316   3.935   8.452  12.145  0.1229  0.0242  0.3608
 1569SOL    HW122317   3.881   8.509  12.090  3.1461  1.8507 -0.9481
 1569SOL    HW222318   3.943   8.371  12.095  0.8380  0.7715 -0.7791
 1570SOL     OW22319   7.558   4.360   0.892  0.5105 -0.4937 -0.2145
 1570SOL    HW122320   7.649   4.388   0.892 -0.0362  1.5016 -1.4668
 1570SOL    HW222321   7.509   4.440   0.872 -1.7675 -0.7799  3.3095
 1571SOL     OW22322   7.633   7.062   4.098  0.5293  0.7786  0.2935
 1571SOL    HW122323   7.541   7.044   4.120  0.3920 -0.3353 -1.0869
 1571SOL    HW222324   7.631   7.144   4.049  0.3331  0.9518  0.5850
 1572SOL     OW22325   6.112   8.122   1.915  0.1151 -0.5922 -0.1813
 1572SOL    HW122326   6.088   8.151   2.003  1.6098  1.2201 -0.3097
 1572SOL    HW222327   6.162   8.042   1.929  0.6134 -0.1491  0.6690
 1573SOL     OW22328   4.788   1.173   7.759  0.4710  0.1532 -0.3593
 1573SOL    HW122329   4.756   1.093   7.717 -2.7346  1.6355 -1.0591
 1573SOL    HW222330   4.752   1.170   7.847 -0.5389  1.2400 -0.7137
 1574SOL     OW22331  11.542   2.006   3.906  0.1657  0.2770  0.2766
 1574SOL    HW122332  11.619   1.999   3.962  0.2528  0.1420  0.1376
 1574SOL    HW222333  11.507   2.094   3.925  1.0909  0.8628 -0.6092
 1575SOL     OW22334   0.611   9.517   4.907  0.2793 -0.1516 -0.0479
 1575SOL    HW122335   0.666   9.558   4.974  1.9213 -0.5755 -1.0840
 1575SOL    HW222336   0.653   9.433   4.890 -0.3745 -0.2480 -1.2731
 1576SOL     OW22337   0.141   0.401   0.604 -0.4723 -0.0119  0.7894
 1576SOL    HW122338   0.220   0.449   0.577 -1.1494  1.2312  0.9003
 1576SOL    HW222339   0.110   0.359   0.524 -0.3310  0.4690  0.4748
 1577SOL     OW22340   0.376   8.297  10.803  0.0925  0.8826 -0.1531
 1577SOL    HW122341   0.470   8.315  10.800  0.2199  0.1444 -2.4034
 1577SOL    HW222342   0.360   8.270  10.893  3.1638 -4.4616 -0.7486
 1578SOL     OW22343   1.776   8.689   9.278  0.1294 -0.8352  0.3164
 1578SOL    HW122344   1.805   8.606   9.240 -0.0807 -0.4055 -0.8421
 1578SOL    HW222345   1.689   8.670   9.312  0.7508 -1.5035  1.5908
 1579SOL     OW22346   0.672   5.671  13.183  0.0146 -0.0428  0.0628
 1579SOL    HW122347   0.696   5.643  13.271 -0.9191 -0.8432  0.0700
 1579SOL    HW222348   0.743   5.731  13.157  1.2010 -1.1228  0.6842
 1580SOL     OW22349   7.923  13.258   7.264 -0.5159 -0.0677  0.5430
 1580SOL    HW122350   8.002  13.220   7.225 -1.2668  0.6253 -1.7544
 1580SOL    HW222351   7.852  13.199   7.239 -1.0764  0.5918  0.5334
 1581SOL     OW22352  13.993  10.183   0.566  0.6674  0.1188 -0.3562
 1581SOL    HW122353  13.903  10.166   0.591  1.3870 -1.8544  1.1580
 1581SOL    HW222354  14.023  10.103   0.523  1.8939  0.4509 -0.1783
 1582SOL     OW22355   0.237   0.283   1.358 -0.2338  0.2594 -0.3443
 1582SOL    HW122356   0.194   0.338   1.422 -0.1944  0.6143 -0.6190
 1582SOL    HW222357   0.330   0.287   1.380 -0.2984 -0.2220  0.0317
 1583SOL     OW22358   5.205   8.042   3.663  0.1710 -0.2341 -0.4433
 1583SOL    HW122359   5.130   7.987   3.688  1.3403 -1.7276 -0.0634
 1583SOL    HW222360   5.236   8.005   3.581  1.5135 -0.7502  0.2591
 1584SOL     OW22361  10.449   4.521   2.846 -0.1846 -0.2463  0.0095
 1584SOL    HW122362  10.532   4.482   2.818  0.4576  2.1512 -1.8113
 1584SOL    HW222363  10.474   4.588   2.909 -1.1473 -1.8826  2.2317
 1585SOL     OW22364   1.806   9.283   8.208  0.6671  0.1233  0.8103
 1585SOL    HW122365   1.759   9.332   8.276 -0.6355  0.1117 -0.0395
 1585SOL    HW222366   1.740   9.268   8.140  0.8930 -3.0808  1.1482
 1586SOL     OW22367   5.267   3.101   5.638 -0.4173  0.3683 -0.4576
 1586SOL    HW122368   5.185   3.103   5.687 -0.5203 -0.6521 -0.5714
 1586SOL    HW222369   5.278   3.009   5.612  1.7004  0.0762  1.1478
 1587SOL     OW22370   2.267   8.573   5.005 -0.2942 -0.2008 -0.5534
 1587SOL    HW122371   2.278   8.607   5.094  0.8242  0.0970 -0.7842
 1587SOL    HW222372   2.289   8.480   5.011  1.5788  0.1781 -0.8138
 1588SOL     OW22373   0.173   7.725  11.573  0.0270  0.2549 -0.5939
 1588SOL    HW122374   0.184   7.764  11.487  0.7452  2.9796  0.6191
 1588SOL    HW222375   0.249   7.755  11.624 -0.6607 -0.7757  1.1526
 1589SOL     OW22376   4.244  11.444   3.179 -0.0955 -0.6990 -0.2827
 1589SOL    HW122377   4.291  11.499   3.117 -0.8271 -1.0400 -1.1657
 1589SOL    HW222378   4.309  11.383   3.213  0.1355 -1.0776 -1.3799
 1590SOL     OW22379   4.607  12.491   1.646  0.5751 -0.4265  0.5579
 1590SOL    HW122380   4.564  12.408   1.627 -1.8241  0.7469  0.4659
 1590SOL    HW222381   4.696  12.467   1.672  0.6336 -2.8615 -1.4957
 1591SOL     OW22382   8.781   1.656   9.841 -0.4640  0.6924  0.3255
 1591SOL    HW122383   8.844   1.650   9.769 -1.5916  1.4579 -0.7859
 1591SOL    HW222384   8.776   1.568   9.876 -1.4671 -0.2683 -2.0040
 1592SOL     OW22385   6.922   8.379   8.377  0.0702 -0.0557 -0.1285
 1592SOL    HW122386   6.972   8.455   8.408  0.5707 -0.3424 -0.2315
 1592SOL    HW222387   6.988   8.314   8.354 -0.3363 -0.2756 -0.6940
 1593SOL     OW22388  11.449   0.094   7.648 -0.2227 -0.2014  0.4450
 1593SOL    HW122389  11.537   0.129   7.656 -0.4780  0.5154  0.1925
 1593SOL    HW222390  11.461  -0.001   7.645  0.6464 -0.0854 -0.7438
 1594SOL     OW22391   8.212   4.214   3.879  0.3303 -0.3816 -0.2035
 1594SOL    HW122392   8.136   4.192   3.934  0.3503  1.9729  0.8678
 1594SOL    HW222393   8.274   4.256   3.938  1.3216  0.1960 -1.5945
 1595SOL     OW22394  14.092   1.268   9.404  0.4812  0.0529 -0.3478
 1595SOL    HW122395  14.110   1.288   9.496  1.6112 -1.1430 -0.2852
 1595SOL    HW222396  14.001   1.238   9.403  1.1980 -2.3752  0.8307
 1596SOL     OW22397   0.476   0.393   1.438 -0.0793  0.2196 -0.1963
 1596SOL    HW122398   0.514   0.356   1.518  3.6261  1.7588 -1.0437
 1596SOL    HW222399   0.425   0.469   1.468  0.1048 -0.0325  0.7822
 1597SOL     OW22400   2.128   9.882   1.878 -0.5081 -0.4400  0.3127
 1597SOL    HW122401   2.182   9.955   1.909  2.0648 -1.3352 -1.7135
 1597SOL    HW222402   2.101   9.907   1.790 -2.3285 -0.6339  0.7705
 1598SOL     OW22403   1.666  11.849  10.082  0.0635 -0.5205  0.2635
 1598SOL    HW122404   1.712  11.881  10.004 -0.3690 -0.0818  0.1841
 1598SOL    HW222405   1.644  11.928  10.131 -0.7361 -0.7078  0.2224
 1599SOL     OW22406  12.933   1.599  12.398 -0.2822 -0.4455 -0.0897
 1599SOL    HW122407  12.980   1.587  12.315 -1.9955 -2.4521 -0.8673
 1599SOL    HW222408  12.981   1.544  12.460 -0.0338 -0.3313 -0.1761
 1600SOL     OW22409   4.712   6.779   0.503  0.3952  0.8142  0.5392
 1600SOL    HW122410   4.649   6.777   0.575 -1.4302  2.3752 -0.9227
 1600SOL    HW222411   4.660   6.770   0.424  2.1185  1.2255 -0.7158
 1601SOL     OW22412   3.814   2.557  12.516 -0.2930 -0.2590  0.0515
 1601SOL    HW122413   3.830   2.502  12.440 -0.4568 -1.0473  0.5785
 1601SOL    HW222414   3.751   2.508  12.568 -0.9298  0.7199  0.2219
 1602SOL     OW22415   7.609   6.767   1.935 -0.5593  0.9144  0.2128
 1602SOL    HW122416   7.699   6.757   1.965 -0.7413  0.2215  0.5166
 1602SOL    HW222417   7.590   6.860   1.949  0.8181  1.5913 -1.8202
 1603SOL     OW22418   1.630   8.738   5.194  0.1654 -0.0614  0.4273
 1603SOL    HW122419   1.544   8.702   5.214  0.4366 -0.7209  0.4318
 1603SOL    HW222420   1.614   8.800   5.122 -0.5716  1.1421  1.5934
 1604SOL     OW22421   9.573   1.557   2.789 -0.0994 -0.0424 -0.6339
 1604SOL    HW122422   9.534   1.480   2.747 -0.2131 -1.5284  1.9756
 1604SOL    HW222423   9.660   1.528   2.817  0.1629  1.0181 -0.3174
 1605SOL     OW22424   8.646   2.638   9.606 -0.4450 -0.2199  0.2202
 1605SOL    HW122425   8.720   2.594   9.565  0.3043  0.9691  0.2388
 1605SOL    HW222426   8.580   2.643   9.537 -0.2267 -0.6417 -0.0211
 1606SOL     OW22427   9.497   1.871  11.633  0.5345 -0.5827 -0.1151
 1606SOL    HW122428   9.589   1.892  11.615  0.9837 -2.2020  0.1524
 1606SOL    HW222429   9.481   1.907  11.720  0.6986  0.3393 -0.4591
 1607SOL     OW22430   6.046  11.779   4.903 -0.0725  0.3257 -0.2542
 1607SOL    HW122431   5.958  11.751   4.879  0.8386 -3.0754 -0.1040
 1607SOL    HW222432   6.047  11.778   4.999  0.9165 -2.9436 -0.1908
 1608SOL     OW22433   0.768  12.173  10.397 -0.7534 -0.3977 -0.1133
 1608SOL    HW122434   0.838  12.238  10.390 -0.6978 -0.5279 -0.8666
 1608SOL    HW222435   0.691  12.224  10.424 -0.3856 -0.2500  0.6819
 1609SOL     OW22436   5.235   5.217   2.509 -0.4725  0.1672  0.1150
 1609SOL    HW122437   5.247   5.259   2.594 -0.3354 -1.8044  1.1248
 1609SOL    HW222438   5.307   5.251   2.455 -0.2984  1.1042  0.9089
 1610SOL     OW22439   1.718   0.149   1.060  0.5589  0.0029 -0.3668
 1610SOL    HW122440   1.672   0.082   1.110 -0.0075  1.7718  1.6364
 1610SOL    HW222441   1.652   0.180   0.996 -1.7270  3.1875  3.0925
 1611SOL     OW22442   5.598   6.584   0.249  0.1402 -0.3974  0.0981
 1611SOL    HW122443   5.522   6.591   0.191  0.0870 -0.6507  0.1343
 1611SOL    HW222444   5.656   6.521   0.205  0.1183 -0.5578  0.2974
 1612SOL     OW22445   8.603   9.793   5.098  0.0767 -0.0358 -1.0000
 1612SOL    HW122446   8.511   9.767   5.094  0.1622 -0.2421 -1.6040
 1612SOL    HW222447   8.618   9.812   5.191 -0.6753  0.3619 -0.9531
 1613SOL     OW22448   7.657   2.719  10.474  0.1215  0.2373  0.5904
 1613SOL    HW122449   7.711   2.793  10.501  0.1354  0.8697 -1.0331
 1613SOL    HW222450   7.688   2.646  10.526  3.8825  0.1093 -1.5310
 1614SOL     OW22451   0.645  12.971  11.148 -0.1804 -0.2463  0.5274
 1614SOL    HW122452   0.559  12.931  11.162 -0.9519  0.5287 -1.6032
 1614SOL    HW222453   0.675  12.935  11.065  1.1974  0.1662  0.8165
 1615SOL     OW22454   4.113  10.552   7.795  0.4806  0.2705  0.5166
 1615SOL    HW122455   4.036  10.594   7.834 -0.3230 -1.0929  0.4557
 1615SOL    HW222456   4.184  10.572   7.855 -0.6788 -1.6079  2.6852
 1616SOL     OW22457   3.513  13.336   5.351 -0.6278 -0.0269  0.6015
 1616SOL    HW122458   3.540  13.423   5.321 -2.5943  0.6275  0.6076
 1616SOL    HW222459   3.594  13.295   5.381  0.8055  0.7658 -1.8774
 1617SOL     OW22460  11.282   0.901   2.692  0.3837 -0.2976 -0.8171
 1617SOL    HW122461  11.211   0.919   2.630 -1.5959  1.1128  1.6480
 1617SOL    HW222462  11.251   0.826   2.742 -1.3860  2.4772  2.7369
 1618SOL     OW22463  11.402  11.034   2.298 -0.1543 -0.3134  0.0826
 1618SOL    HW122464  11.431  11.053   2.209  0.4946 -2.8954 -0.3368
 1618SOL    HW222465  11.482  11.024   2.348 -0.5174  1.3402  1.0763
 1619SOL     OW22466   2.269   6.790  10.463  0.4298 -0.1006 -0.0420
 1619SOL    HW122467   2.198   6.821  10.406  1.1471  0.3647 -0.6893
 1619SOL    HW222468   2.339   6.855  10.453  0.0811  0.8104  2.4446
 1620SOL     OW22469  13.252   8.447   8.022  0.2142 -0.7721  0.1089
 1620SOL    HW122470  13.177   8.389   8.009  0.9712 -1.5080 -1.2444
 1620SOL    HW222471  13.241   8.516   7.957  1.8135 -2.1176 -1.7234
 1621SOL     OW22472   6.825   5.830   5.073 -0.0944  0.1317  0.1161
 1621SOL    HW122473   6.793   5.814   4.984 -1.9757 -1.9160  1.0662
 1621SOL    HW222474   6.920   5.817   5.067 -0.3017 -0.9367 -1.4134
 1622SOL     OW22475  10.790   3.400  13.666 -0.2761 -0.6590  0.0123
 1622SOL    HW122476  10.770   3.323  13.720 -0.7327 -1.8288 -1.7426
 1622SOL    HW222477  10.755   3.474  13.716 -1.2002 -1.7382  1.0387
 1623SOL     OW22478  12.540  13.290  12.978  0.6895  0.1294  0.3175
 1623SOL    HW122479  12.525  13.346  13.055  2.3761 -0.3190  1.0360
 1623SOL    HW222480  12.485  13.328  12.910  1.3029  2.3188  0.9374
 1624SOL     OW22481   4.241   3.741   6.549 -0.1325 -0.6652 -0.4433
 1624SOL    HW122482   4.189   3.686   6.490 -1.4164 -2.6180  2.2875
 1624SOL    HW222483   4.176   3.792   6.598  0.2987 -2.7897  2.6896
 1625SOL     OW22484   3.534  11.518   4.659 -0.3624  0.2695 -0.4214
 1625SOL    HW122485   3.580  11.551   4.736 -1.5876  0.7923  0.1165
 1625SOL    HW222486   3.560  11.426   4.652  1.2272  0.7040 -0.5128
 1626SOL     OW22487   8.272   4.384   2.305  0.3376  0.2939 -0.0312
 1626SOL    HW122488   8.191   4.352   2.344  0.5828  0.3540  0.5328
 1626SOL    HW222489   8.341   4.349   2.361  0.7783 -0.7008 -1.1294
 1627SOL     OW22490  13.968  10.739   9.725 -0.5164  0.5330 -0.0101
 1627SOL    HW122491  13.938  10.732   9.634  0.6460 -1.8468 -0.2890
 1627SOL    HW222492  13.889  10.727   9.777 -1.2656  2.3389 -0.6688
 1628SOL     OW22493   4.970  12.341   4.947  0.2636 -1.3058 -0.2873
 1628SOL    HW122494   4.900  12.382   4.896  0.3476  0.4714  0.9419
 1628SOL    HW222495   4.962  12.248   4.928 -0.0616 -0.7949 -3.0816
 1629SOL     OW22496   0.432   2.421   6.555  0.3899  0.3157 -0.2917
 1629SOL    HW122497   0.503   2.410   6.619 -0.1119  0.1042  0.2358
 1629SOL    HW222498   0.443   2.347   6.495 -1.0463 -1.3898  1.4042
 1630SOL     OW22499   3.217  10.726   1.344 -0.5147 -0.2306  0.5435
 1630SOL    HW122500   3.275  10.779   1.399 -0.7716 -0.8146  1.3977
 1630SOL    HW222501   3.192  10.784   1.273 -1.1279  0.9423  1.6789
 1631SOL     OW22502   7.211  13.458  13.973 -0.1701 -0.4523 -0.4943
 1631SOL    HW122503   7.239  13.548  13.956  1.0266 -1.0362 -1.8587
 1631SOL    HW222504   7.266  13.429  14.045  2.0621 -1.1978 -2.3812
 1632SOL     OW22505   9.332   1.380   6.501  0.5088  0.2190 -0.5764
 1632SOL    HW122506   9.333   1.305   6.561  1.5576  1.8493  1.5567
 1632SOL    HW222507   9.341   1.341   6.414  1.3684 -2.1093  0.4733
 1633SOL     OW22508  13.983  13.459   1.297  0.4223  0.6626  0.6470
 1633SOL    HW122509  13.975  13.363   1.290 -0.4102  0.7473  0.4186
 1633SOL    HW222510  13.932  13.493   1.224  2.3224  1.2491 -0.4715
 1634SOL     OW22511  12.331   9.548   0.941  0.1315  0.1523 -0.2161
 1634SOL    HW122512  12.324   9.633   0.898 -0.4894 -0.4548 -1.3518
 1634SOL    HW222513  12.386   9.496   0.883  0.0374 -0.4081  0.1894
 1635SOL     OW22514   8.536   8.655   5.350  0.2236  0.0382 -0.0145
 1635SOL    HW122515   8.527   8.724   5.415  0.4554  0.2086 -0.1644
 1635SOL    HW222516   8.579   8.697   5.275 -0.0965 -0.1423 -0.3020
 1636SOL     OW22517  12.840   6.303  10.661  0.0264 -0.0190  0.1914
 1636SOL    HW122518  12.865   6.378  10.714  1.7120  1.2370 -2.1791
 1636SOL    HW222519  12.811   6.238  10.724  0.8339  1.7379  2.5373
 1637SOL     OW22520   8.378   7.062   9.022 -0.0446 -0.4055 -0.4105
 1637SOL    HW122521   8.376   7.049   8.927 -0.9030  0.2296 -0.4926
 1637SOL    HW222522   8.389   6.974   9.058  0.5280 -0.6249 -1.0956
 1638SOL     OW22523  12.952   8.081   9.663 -0.3037  0.0377  0.4095
 1638SOL    HW122524  12.930   8.084   9.570  1.7606  1.0043 -0.1211
 1638SOL    HW222525  12.898   8.011   9.699  0.4460 -1.8948 -1.9816
 1639SOL     OW22526   2.696   4.968  13.248  0.0421  0.2845  0.6983
 1639SOL    HW122527   2.688   5.017  13.166 -1.6553  0.8906  1.1976
 1639SOL    HW222528   2.677   5.032  13.316  0.0138 -0.5515  1.4925
 1640SOL     OW22529  12.824   4.869   9.324 -0.2485  0.5236  0.3994
 1640SOL    HW122530  12.802   4.782   9.359 -0.0432 -0.4431 -1.7365
 1640SOL    HW222531  12.854   4.918   9.401  1.4619 -1.8861  1.4324
 1641SOL     OW22532   6.135   4.101  11.793  0.5496  0.5374  0.3471
 1641SOL    HW122533   6.045   4.124  11.772  0.5997  0.5286  0.1194
 1641SOL    HW222534   6.188   4.165  11.745  0.7189 -0.5206 -0.9480
 1642SOL     OW22535   8.367   7.938   0.139 -0.0562 -0.0118  0.3000
 1642SOL    HW122536   8.429   8.011   0.129  0.1102 -0.0084  1.2754
 1642SOL    HW222537   8.422   7.864   0.163 -0.2272 -0.4770 -0.6732
 1643SOL     OW22538  12.815   2.122  11.689 -0.2798  0.2642 -0.0624
 1643SOL    HW122539  12.869   2.054  11.648 -1.1467  0.7773 -2.1998
 1643SOL    HW222540  12.789   2.085  11.773  2.6910 -0.3194  0.6988
 1644SOL     OW22541   9.101   8.846  10.842  0.3594 -0.6497 -0.1411
 1644SOL    HW122542   9.106   8.783  10.770  0.4018  1.0067 -1.6658
 1644SOL    HW222543   9.094   8.931  10.799 -2.6798  0.2398  1.7829
 1645SOL     OW22544   9.032   6.459   3.477  0.6855  0.4977  0.6552
 1645SOL    HW122545   9.056   6.505   3.557  2.6043 -1.6929  1.4404
 1645SOL    HW222546   9.097   6.488   3.412  0.1528  1.0068  0.3387
 1646SOL     OW22547   8.010  10.202  11.986 -0.1630  0.0598  0.0886
 1646SOL    HW122548   8.086  10.161  11.945 -0.3944 -1.0446  0.7424
 1646SOL    HW222549   8.026  10.195  12.080 -1.4924 -1.0420  0.2682
 1647SOL     OW22550   2.145   6.397   3.951  0.1784  0.1673  0.0848
 1647SOL    HW122551   2.198   6.317   3.960 -0.8106 -0.3665  1.4999
 1647SOL    HW222552   2.099   6.404   4.034  0.2487  2.2447 -0.0072
 1648SOL     OW22553   4.314  11.263   2.854 -0.0119  0.5566 -0.3526
 1648SOL    HW122554   4.385  11.201   2.835  0.1761 -0.0913  2.1464
 1648SOL    HW222555   4.352  11.349   2.832  1.5687  0.2209  0.8469
 1649SOL     OW22556   3.034   6.421   6.459 -0.0055 -0.0183  0.1263
 1649SOL    HW122557   2.980   6.421   6.380 -2.7316 -0.5790  1.8384
 1649SOL    HW222558   3.090   6.344   6.449 -0.7111 -0.4101 -1.0096
 1650SOL     OW22559   3.064  10.447   2.169 -0.2828 -0.0580 -0.6910
 1650SOL    HW122560   3.009  10.524   2.154 -0.2030  0.1598  0.1257
 1650SOL    HW222561   3.036  10.413   2.254 -0.2752 -0.8985 -1.0157
 1651SOL     OW22562   7.870   6.827   1.419  0.2734  0.0199  0.5530
 1651SOL    HW122563   7.833   6.781   1.343 -0.5311 -1.5085  1.8127
 1651SOL    HW222564   7.842   6.918   1.408 -1.8554 -0.6223  0.2175
 1652SOL     OW22565   7.729   8.985   0.141  0.0010  0.4496  0.5596
 1652SOL    HW122566   7.810   8.974   0.090 -0.5241  0.0824 -0.2127
 1652SOL    HW222567   7.759   9.008   0.229  0.9867 -0.6325  0.5353
 1653SOL     OW22568   7.534   7.562  10.493 -0.0644 -0.4877  0.0939
 1653SOL    HW122569   7.531   7.652  10.527 -0.0849 -0.5140  0.1613
 1653SOL    HW222570   7.442   7.535  10.490 -0.1187 -0.2308 -0.6631
 1654SOL     OW22571   2.459  12.822   3.306 -0.1952  0.3975 -0.2656
 1654SOL    HW122572   2.512  12.878   3.363  2.2276 -2.4704  0.5600
 1654SOL    HW222573   2.368  12.848   3.324  0.6523  1.8147  2.4709
 1655SOL     OW22574   5.795   3.466  11.428 -0.0439 -0.5565 -0.3930
 1655SOL    HW122575   5.795   3.392  11.368 -0.0451 -0.3058 -0.7012
 1655SOL    HW222576   5.825   3.429  11.511  1.9799 -0.5032 -1.0375
 1656SOL     OW22577   7.424  12.042  12.170  0.2876 -0.2020  0.2122
 1656SOL    HW122578   7.336  12.074  12.189  0.5343  1.9638 -1.7952
 1656SOL    HW222579   7.418  12.009  12.080  1.5631  0.2109 -0.0387
 1657SOL     OW22580   7.254   3.282   6.573  1.1913  0.0531 -0.3612
 1657SOL    HW122581   7.320   3.331   6.623  0.0786  2.2227 -0.8973
 1657SOL    HW222582   7.203   3.349   6.528 -0.6181 -1.6282 -0.9621
 1658SOL     OW22583  14.075  12.386   3.277 -0.1476  0.2406  0.0825
 1658SOL    HW122584  14.128  12.379   3.198  0.1565  0.4102  0.2732
 1658SOL    HW222585  14.088  12.303   3.322 -1.5215 -0.4899 -0.7911
 1659SOL     OW22586  10.621  12.145   4.121 -0.1239 -1.0328  0.2048
 1659SOL    HW122587  10.673  12.220   4.091 -1.6290 -0.2190 -0.4542
 1659SOL    HW222588  10.649  12.073   4.066  0.1854 -0.5676 -0.2538
 1660SOL     OW22589   7.731  14.019  12.043 -0.1790  0.0461  0.5237
 1660SOL    HW122590   7.664  14.009  12.110  0.2677  0.5112  1.0528
 1660SOL    HW222591   7.706  14.098  11.995  1.2161  1.5954  2.2189
 1661SOL     OW22592   0.773   9.375  12.075  0.2622  0.4097  0.0226
 1661SOL    HW122593   0.678   9.366  12.069  0.4269 -2.3756  0.5261
 1661SOL    HW222594   0.799   9.314  12.144  2.6602 -0.9869 -1.9441
 1662SOL     OW22595   2.979  11.086   9.523  0.1987 -0.5114  0.0036
 1662SOL    HW122596   2.967  11.177   9.552 -2.7607 -1.2357  1.5224
 1662SOL    HW222597   3.049  11.052   9.579 -0.4887  0.1392  1.3215
 1663SOL     OW22598   0.140   7.519   9.403  0.5407 -0.2803 -0.1969
 1663SOL    HW122599   0.113   7.603   9.441  1.5852  0.5353 -1.2080
 1663SOL    HW222600   0.224   7.500   9.443 -0.3004 -1.5597  1.0490
 1664SOL     OW22601   6.976   5.664   3.912 -0.1558 -0.0418  0.0236
 1664SOL    HW122602   6.941   5.743   3.870  0.8301  0.3599 -0.0910
 1664SOL    HW222603   7.001   5.692   4.000  0.3934 -0.1564 -0.0876
 1665SOL     OW22604   0.994   6.974   2.165 -0.0209  0.2224 -0.3671
 1665SOL    HW122605   1.052   7.049   2.149  1.9522 -1.0256  0.5588
 1665SOL    HW222606   1.001   6.921   2.086 -1.2247  0.8738 -0.9233
 1666SOL     OW22607  11.924   0.805  11.035 -0.3024 -0.1215 -0.0665
 1666SOL    HW122608  11.841   0.850  11.054 -0.1817  0.2020 -0.2987
 1666SOL    HW222609  11.992   0.868  11.057 -0.1443  0.0069 -0.8980
 1667SOL     OW22610   9.787   1.289   2.209 -0.3539  0.4634  0.4520
 1667SOL    HW122611   9.714   1.258   2.156  0.6187  1.6673 -1.7512
 1667SOL    HW222612   9.786   1.233   2.286 -1.6668 -1.6435 -0.9744
 1668SOL     OW22613   8.629   3.138  10.906  0.1190 -0.3161  0.0100
 1668SOL    HW122614   8.627   3.232  10.889  1.8135 -0.1888  0.3089
 1668SOL    HW222615   8.551   3.121  10.959 -0.1267  0.9460  0.0724
 1669SOL     OW22616  10.792   3.175   5.651 -0.0914 -0.0352  0.4407
 1669SOL    HW122617  10.713   3.209   5.610 -0.2781 -0.5490  0.3672
 1669SOL    HW222618  10.840   3.133   5.580  0.0435 -0.0948  0.5664
 1670SOL     OW22619   3.168  10.485   9.470  0.1606  0.0481 -1.0017
 1670SOL    HW122620   3.113  10.492   9.392  0.0567  2.2613 -0.8088
 1670SOL    HW222621   3.139  10.558   9.525  1.8010 -0.0850  0.0939
 1671SOL     OW22622   7.472   0.746  10.706  0.6910 -0.5144  0.0511
 1671SOL    HW122623   7.461   0.768  10.613 -1.4180 -2.5249 -0.2924
 1671SOL    HW222624   7.561   0.773  10.727  1.7020 -1.1147 -2.9159
 1672SOL     OW22625   2.653   1.118   8.516 -0.2756  0.1382 -0.4301
 1672SOL    HW122626   2.689   1.094   8.602 -0.9953  0.2924 -0.0786
 1672SOL    HW222627   2.581   1.057   8.502  0.7754 -0.8871 -1.6339
 1673SOL     OW22628   7.960   4.057   4.912  0.5432 -0.0947  0.1908
 1673SOL    HW122629   7.982   4.057   4.819 -1.4164 -0.8079 -0.3227
 1673SOL    HW222630   8.019   3.993   4.951  0.8249 -0.3963 -0.7010
 1674SOL     OW22631   3.245   7.487  13.924  0.3601  0.8543  0.5010
 1674SOL    HW122632   3.222   7.456  13.836 -0.0048  1.5913  0.3286
 1674SOL    HW222633   3.222   7.414  13.982  1.9840 -0.2225 -0.1443
 1675SOL     OW22634  12.564   4.010  13.979  0.2171 -0.0766  0.2428
 1675SOL    HW122635  12.587   3.920  13.999 -0.9378 -0.2173  1.0484
 1675SOL    HW222636  12.611   4.062  14.044 -1.3657 -0.3386  1.6754
 1676SOL     OW22637   1.784  11.564  13.554 -0.4241  0.3480 -0.0492
 1676SOL    HW122638   1.716  11.555  13.620 -0.2498 -0.6542  0.0078
 1676SOL    HW222639   1.737  11.563  13.470 -0.3723 -4.7416 -0.3514
 1677SOL     OW22640   3.159   4.228   2.600  0.1453 -0.0024 -0.1637
 1677SOL    HW122641   3.144   4.314   2.561  1.0268 -0.3888 -1.4525
 1677SOL    HW222642   3.084   4.175   2.572 -0.6270  0.4482  1.0079
 1678SOL     OW22643   1.942   8.868   0.556 -0.6891 -0.1275  0.1769
 1678SOL    HW122644   1.914   8.803   0.620 -1.9330  0.6380  0.4451
 1678SOL    HW222645   2.006   8.822   0.502  1.4845 -0.4340  2.7703
 1679SOL     OW22646   2.601  12.144   0.302 -0.3795  0.6323  0.2420
 1679SOL    HW122647   2.632  12.152   0.212 -1.5543  0.5219 -0.1947
 1679SOL    HW222648   2.568  12.231   0.324 -0.8062  0.4637  0.2801
 1680SOL     OW22649   7.886   8.767   2.000 -0.1502  0.0106 -0.3174
 1680SOL    HW122650   7.931   8.840   2.043  1.0538 -0.3792 -0.8782
 1680SOL    HW222651   7.819   8.809   1.947  1.1918  0.8276 -1.4334
 1681SOL     OW22652   1.290  13.555   0.947 -0.3417  0.5949 -0.4399
 1681SOL    HW122653   1.358  13.542   0.880 -0.3126 -0.0772 -0.2881
 1681SOL    HW222654   1.214  13.586   0.898 -0.7792 -1.2577 -1.0313
 1682SOL     OW22655   0.215  12.390   1.899 -0.1039  0.0504  0.0309
 1682SOL    HW122656   0.197  12.482   1.921 -0.8742 -0.5376  2.0485
 1682SOL    HW222657   0.302  12.374   1.936 -0.1550 -0.1495  0.0626
 1683SOL     OW22658   4.288  10.835   0.311  0.4910 -0.6063  0.8313
 1683SOL    HW122659   4.282  10.890   0.233 -0.9871 -0.2872  1.1407
 1683SOL    HW222660   4.382  10.828   0.328  0.7432  1.4809  0.5526
 1684SOL     OW22661   4.339   0.158   2.489  0.0717 -0.8644  0.4521
 1684SOL    HW122662   4.403   0.087   2.493  1.6967  0.2783 -2.3625
 1684SOL    HW222663   4.381   0.226   2.436 -2.3066  1.2705  1.0810
 1685SOL     OW22664   0.114   8.605   9.849  0.1872 -0.2562 -0.1346
 1685SOL    HW122665   0.028   8.629   9.885  1.3204  2.8079  0.8851
 1685SOL    HW222666   0.168   8.586   9.925  0.8708 -0.4008 -0.6495
 1686SOL     OW22667   8.846   5.720   0.016 -0.7354 -0.0032 -0.1275
 1686SOL    HW122668   8.864   5.699   0.107 -1.6101 -0.0411  0.0444
 1686SOL    HW222669   8.799   5.803   0.020  0.9627  1.0358 -0.6740
 1687SOL     OW22670   8.308  12.782   8.327 -0.5972 -0.2487 -0.1419
 1687SOL    HW122671   8.259  12.801   8.407  1.2702  1.9882  0.5915
 1687SOL    HW222672   8.341  12.693   8.338  0.6844  0.4554  2.2072
 1688SOL     OW22673   1.311   0.840  12.041 -0.0177 -0.2258  0.5065
 1688SOL    HW122674   1.364   0.870  11.967  0.0216  1.0013  1.0010
 1688SOL    HW222675   1.353   0.879  12.118  0.0534 -1.6433  1.2112
 1689SOL     OW22676  12.534  12.863   1.028 -0.0022  0.0691  0.2213
 1689SOL    HW122677  12.442  12.861   1.002 -0.7098  1.0493  2.4021
 1689SOL    HW222678  12.546  12.949   1.069  1.6809 -0.3287  0.6541
 1690SOL     OW22679   6.846   6.201   0.227 -0.4409 -0.0349  0.1898
 1690SOL    HW122680   6.846   6.119   0.275  3.2180 -0.0590  0.4722
 1690SOL    HW222681   6.849   6.269   0.295  1.7556  0.0343  0.1131
 1691SOL     OW22682  10.970   8.021   0.023  0.0792  0.3648  0.1337
 1691SOL    HW122683  10.925   8.076   0.088 -2.4645 -1.5554  0.1825
 1691SOL    HW222684  10.920   8.034  -0.057 -0.7460 -1.8655  0.1912
 1692SOL     OW22685  10.138  13.683   1.372  0.5300 -0.4424  0.3917
 1692SOL    HW122686  10.166  13.689   1.463  2.3304 -3.5074  0.1778
 1692SOL    HW222687  10.219  13.677   1.322 -0.4462 -0.1783 -1.3039
 1693SOL     OW22688  12.131   2.267   7.049  0.1718  0.6335 -0.1697
 1693SOL    HW122689  12.102   2.305   7.132  2.4610  1.4395  0.3433
 1693SOL    HW222690  12.197   2.203   7.074 -0.8017 -0.8788 -1.2789
 1694SOL     OW22691  11.459  13.734   2.759 -0.2454  0.4059  0.2743
 1694SOL    HW122692  11.409  13.772   2.686 -2.2153 -0.1493  1.2679
 1694SOL    HW222693  11.503  13.658   2.721 -0.9623  0.3293 -0.4414
 1695SOL     OW22694   2.251   2.456   1.039  0.1411  0.4436 -0.0338
 1695SOL    HW122695   2.252   2.436   0.945 -0.0477 -0.7371  0.1978
 1695SOL    HW222696   2.261   2.370   1.081  0.4033  0.9869  1.0237
 1696SOL     OW22697   2.482   6.852   2.011 -0.3326 -0.1072 -1.0480
 1696SOL    HW122698   2.570   6.853   1.973  0.8344  0.0735  1.3983
 1696SOL    HW222699   2.479   6.931   2.065 -1.8866 -0.2745 -0.8659
 1697SOL     OW22700   7.648   3.467  11.567  0.4439  0.0715 -0.2555
 1697SOL    HW122701   7.723   3.416  11.598  0.2988  0.3105  0.5007
 1697SOL    HW222702   7.657   3.466  11.471 -0.1204 -2.2382 -0.3265
 1698SOL     OW22703   6.054   1.782   1.160  0.4193 -0.2972  0.0497
 1698SOL    HW122704   6.044   1.846   1.090  1.0914  0.5076  0.6630
 1698SOL    HW222705   5.972   1.786   1.209  0.6897  0.5534  0.4450
 1699SOL     OW22706   2.645   0.829   2.948 -0.0571 -0.2359 -0.3336
 1699SOL    HW122707   2.557   0.831   2.910 -0.2564 -0.6242  0.0947
 1699SOL    HW222708   2.636   0.775   3.027  0.4570  0.1571 -0.0024
 1700SOL     OW22709   0.971  12.849   4.529  0.3189  0.3141 -0.3715
 1700SOL    HW122710   0.955  12.904   4.605 -2.7918  1.4529 -1.6695
 1700SOL    HW222711   1.028  12.901   4.473  1.1149  0.2430  0.3618
 1701SOL     OW22712   4.109  11.571   4.486 -0.1066 -0.0208 -0.3111
 1701SOL    HW122713   4.095  11.540   4.397 -0.5643 -0.3048 -0.1437
 1701SOL    HW222714   4.107  11.666   4.479  2.1505  0.0456 -0.9665
 1702SOL     OW22715   5.396  10.590   8.785 -0.4933 -0.0576 -0.4206
 1702SOL    HW122716   5.314  10.543   8.801 -0.7203 -0.2415 -1.9750
 1702SOL    HW222717   5.424  10.560   8.698  0.3010  1.3061 -0.6606
 1703SOL     OW22718  12.660   6.778   6.437  0.8836  0.1706 -0.8644
 1703SOL    HW122719  12.732   6.836   6.462  1.3088 -0.4196 -0.7019
 1703SOL    HW222720  12.614   6.825   6.367 -0.5555  2.0497  1.1914
 1704SOL     OW22721  13.019   5.099   7.989  0.0948  0.6517  0.6371
 1704SOL    HW122722  13.042   5.120   7.898  0.0353  0.1397  0.5044
 1704SOL    HW222723  13.094   5.052   8.023  0.2515  1.1281  0.9588
 1705SOL     OW22724  12.368   8.111   0.641  0.4594 -0.1584  0.3897
 1705SOL    HW122725  12.368   8.183   0.704  1.4272 -0.3658  0.6465
 1705SOL    HW222726  12.393   8.151   0.558  0.0142 -0.0360  0.3074
 1706SOL     OW22727   4.700  11.213  10.778  0.9210 -0.0332  0.0659
 1706SOL    HW122728   4.628  11.209  10.841  0.4105 -1.1832 -0.5590
 1706SOL    HW222729   4.747  11.293  10.800 -0.5938  0.7883  0.4485
 1707SOL     OW22730   4.682   0.696   4.343 -0.0870 -0.2888  0.0396
 1707SOL    HW122731   4.736   0.721   4.268 -1.1960 -0.8253 -0.9591
 1707SOL    HW222732   4.744   0.655   4.404  0.4824 -1.9827 -1.5868
 1708SOL     OW22733   4.584   2.287   9.096  0.1217  0.3778 -0.1848
 1708SOL    HW122734   4.623   2.200   9.088 -0.7139  0.0344 -0.6253
 1708SOL    HW222735   4.617   2.321   9.179  0.0233 -0.5762  0.2523
 1709SOL     OW22736   7.289   9.716  13.762 -0.6508  1.0037 -0.5042
 1709SOL    HW122737   7.231   9.787  13.732 -1.0906  0.5175 -0.8167
 1709SOL    HW222738   7.331   9.685  13.682 -0.4229  0.9383 -0.3593
 1710SOL     OW22739   5.574   8.410   2.553 -0.5043  0.4971  0.2105
 1710SOL    HW122740   5.585   8.328   2.601  1.3531  0.4814 -0.1480
 1710SOL    HW222741   5.662   8.445   2.545 -1.1401  2.0301 -0.5384
 1711SOL     OW22742   9.472   7.175   3.918 -0.4946 -0.1379 -0.3948
 1711SOL    HW122743   9.567   7.184   3.926 -0.5698  0.1344  0.2572
 1711SOL    HW222744   9.454   7.188   3.825 -0.0360  1.1745 -0.3086
 1712SOL     OW22745   2.122   7.693   9.193 -0.4334  0.0087  0.0720
 1712SOL    HW122746   2.107   7.677   9.100 -1.0284 -1.3911  0.3825
 1712SOL    HW222747   2.109   7.788   9.203  0.3528  0.3066 -1.3765
 1713SOL     OW22748   7.958  13.768   7.146 -0.0940 -0.2809 -0.4756
 1713SOL    HW122749   7.957  13.694   7.206 -1.2527 -0.7294 -1.0153
 1713SOL    HW222750   7.896  13.831   7.184  1.0998  0.5497  0.1316
 1714SOL     OW22751   7.434   2.348   4.719 -0.2897  0.7497  0.2591
 1714SOL    HW122752   7.494   2.394   4.661 -0.9128  3.0923  1.3429
 1714SOL    HW222753   7.480   2.267   4.742  1.5519  1.5147 -0.5474
 1715SOL     OW22754   7.418   5.913  13.561 -0.2571  0.0780 -1.1618
 1715SOL    HW122755   7.374   5.832  13.533  1.6739 -0.5970 -2.4954
 1715SOL    HW222756   7.447   5.895  13.650  0.6922 -0.9657 -1.6626
 1716SOL     OW22757   8.175  13.300   1.762  0.3301  0.1350 -0.5199
 1716SOL    HW122758   8.178  13.207   1.739  1.1110  0.2077 -0.7544
 1716SOL    HW222759   8.088  13.313   1.800 -0.5188 -0.2886 -2.2209
 1717SOL     OW22760   0.243  11.025   2.259 -0.1920  0.1338 -0.1788
 1717SOL    HW122761   0.170  11.017   2.199  0.2887  0.1561 -0.7795
 1717SOL    HW222762   0.321  11.021   2.203  0.2510  0.6600  0.3801
 1718SOL     OW22763  10.499   2.763  13.062 -0.1448 -0.0066  0.3225
 1718SOL    HW122764  10.524   2.721  12.980  1.7347  0.3976  0.6483
 1718SOL    HW222765  10.501   2.692  13.126 -0.0784 -0.0264  0.2988
 1719SOL     OW22766   1.344   5.462  10.020 -0.4341  0.2989 -0.4593
 1719SOL    HW122767   1.332   5.368  10.022 -1.4211  0.4277  0.2822
 1719SOL    HW222768   1.361   5.482   9.928 -0.1249 -0.6044 -0.6019
 1720SOL     OW22769  13.680   0.881   1.133 -0.5752 -0.0368 -1.0057
 1720SOL    HW122770  13.771   0.908   1.118 -0.1786 -0.7202  0.0628
 1720SOL    HW222771  13.666   0.810   1.070 -0.4523  0.2120 -1.3211
 1721SOL     OW22772   0.097   4.209   9.823 -0.4812 -0.3060 -0.4221
 1721SOL    HW122773   0.176   4.243   9.780 -0.4124 -1.8637 -1.6519
 1721SOL    HW222774   0.101   4.115   9.807 -0.7919 -0.9229  2.5607
 1722SOL     OW22775   2.466   2.745   6.398  0.4736 -0.2539  0.0398
 1722SOL    HW122776   2.508   2.670   6.439 -1.8126 -1.6019  0.1164
 1722SOL    HW222777   2.376   2.742   6.430 -1.3609 -1.0709 -4.4167
 1723SOL     OW22778  12.870   5.659   7.602 -0.1860 -0.4704 -0.0951
 1723SOL    HW122779  12.791   5.606   7.592 -1.4988  1.0968  1.1394
 1723SOL    HW222780  12.879   5.705   7.518 -1.8976  0.9295  0.4300
 1724SOL     OW22781   7.214   8.862   5.065 -0.1539 -0.1672 -0.0493
 1724SOL    HW122782   7.235   8.908   4.984 -0.5105 -1.1305 -0.7066
 1724SOL    HW222783   7.185   8.776   5.037 -0.0442 -0.6063  1.1253
 1725SOL     OW22784   1.236   9.711   4.695 -0.1293  0.1975  0.4076
 1725SOL    HW122785   1.310   9.663   4.657  0.7606  0.1024  2.1514
 1725SOL    HW222786   1.192   9.751   4.620  1.4515 -0.0798 -0.7210
 1726SOL     OW22787   0.307  13.654   0.784 -0.1927  0.0416 -0.2809
 1726SOL    HW122788   0.310  13.594   0.710  0.2235 -0.0399 -0.2014
 1726SOL    HW222789   0.382  13.629   0.838 -0.8673 -0.3385  0.5050
 1727SOL     OW22790  12.757   0.716   0.773 -0.5286 -0.8264 -0.4280
 1727SOL    HW122791  12.795   0.775   0.708 -0.6675 -0.4821 -0.2036
 1727SOL    HW222792  12.812   0.727   0.851 -0.9678 -0.4651 -0.1616
 1728SOL     OW22793  11.951  13.262  11.649 -0.3632  0.6120 -0.1191
 1728SOL    HW122794  11.917  13.274  11.738  0.0508  1.5480 -0.0661
 1728SOL    HW222795  11.879  13.288  11.592  0.0092  1.9546 -0.0150
 1729SOL     OW22796   0.118  10.601  12.613  0.2794 -0.1810 -0.0000
 1729SOL    HW122797   0.126  10.671  12.548  0.0783 -0.8754 -0.8005
 1729SOL    HW222798   0.059  10.636  12.679  0.1228  0.3786 -0.4270
 1730SOL     OW22799   0.615   5.208   4.987 -0.2604  0.1084 -0.0099
 1730SOL    HW122800   0.538   5.168   5.029  0.0005  0.0996  0.4675
 1730SOL    HW222801   0.654   5.136   4.938 -0.5352  0.1016 -0.2200
 1731SOL     OW22802   5.880   6.571  13.270  0.5182  0.2052  0.1368
 1731SOL    HW122803   5.962   6.601  13.231  0.8428  1.0937  1.4308
 1731SOL    HW222804   5.905   6.497  13.326  0.7027  1.3635  1.6404
 1732SOL     OW22805   1.577   2.560   3.052  0.5409  0.4877  0.3349
 1732SOL    HW122806   1.552   2.609   3.130 -0.5066 -0.8597  0.8914
 1732SOL    HW222807   1.573   2.624   2.981 -2.1748  0.9700  0.8086
 1733SOL     OW22808   0.814   2.424   2.185 -0.1900  0.0912  0.1989
 1733SOL    HW122809   0.841   2.349   2.238 -0.3713 -0.0910  0.0345
 1733SOL    HW222810   0.883   2.489   2.199 -0.0432 -0.0955  0.3589
 1734SOL     OW22811  11.038  11.501   1.587 -0.1146  0.9623  0.0135
 1734SOL    HW122812  11.116  11.513   1.641  0.6198  0.5277 -0.9211
 1734SOL    HW222813  10.965  11.515   1.647  0.6579 -0.5130  1.3840
 1735SOL     OW22814   4.043   2.182   0.627  0.1523 -0.2172  0.0334
 1735SOL    HW122815   3.953   2.174   0.596 -0.1728 -2.0587  1.2818
 1735SOL    HW222816   4.038   2.162   0.721  1.7801  0.1854  0.2404
 1736SOL     OW22817   1.303   0.923   9.495  0.5373 -0.3777  0.5504
 1736SOL    HW122818   1.377   0.977   9.522  0.5243 -0.2623  0.3592
 1736SOL    HW222819   1.335   0.877   9.418  0.5327 -0.6084  0.6877
 1737SOL     OW22820   1.633  12.691   3.473 -0.1841 -0.5346  0.1857
 1737SOL    HW122821   1.707  12.720   3.420  1.2797 -1.2131  1.7483
 1737SOL    HW222822   1.606  12.608   3.434 -0.5318  0.0016 -0.7433
 1738SOL     OW22823   0.381   2.714  11.455  0.1736  0.1490 -0.0543
 1738SOL    HW122824   0.400   2.643  11.393 -1.3942 -0.0251 -0.3742
 1738SOL    HW222825   0.333   2.778  11.403  1.5614  1.4632  0.2364
 1739SOL     OW22826   5.077  11.247   8.800 -0.4816  0.0388 -0.2315
 1739SOL    HW122827   5.054  11.301   8.875 -0.6644  1.5233 -1.2975
 1739SOL    HW222828   4.998  11.245   8.746 -0.1921 -0.5432 -0.6598
 1740SOL     OW22829  10.623  11.740   5.678 -0.4494 -0.0153 -0.0058
 1740SOL    HW122830  10.673  11.694   5.610  1.1898  0.2048  1.0076
 1740SOL    HW222831  10.537  11.699   5.676  0.3341 -1.7355 -0.5217
 1741SOL     OW22832   4.709   0.343   7.737  0.1273 -0.2757  0.1935
 1741SOL    HW122833   4.760   0.413   7.778  1.6739 -0.5219 -1.1941
 1741SOL    HW222834   4.657   0.388   7.670  1.7799 -0.4952 -1.3011
 1742SOL     OW22835   7.617   8.869   1.989  0.0631  0.2150  0.1948
 1742SOL    HW122836   7.617   8.871   2.085 -1.2691  1.1682  0.2078
 1742SOL    HW222837   7.578   8.784   1.967  1.4103 -0.4983  0.4627
 1743SOL     OW22838   2.273  13.613   5.999 -0.1908  0.1872  0.2056
 1743SOL    HW122839   2.262  13.647   5.910 -0.1712  1.0124  0.5112
 1743SOL    HW222840   2.239  13.682   6.055 -0.9917 -0.6803  0.8117
 1744SOL     OW22841   4.777   0.197  11.646 -0.4819  0.1546 -0.3263
 1744SOL    HW122842   4.779   0.103  11.628  1.1073  0.4546 -1.9183
 1744SOL    HW222843   4.803   0.238  11.564  0.9078  1.9074  0.9196
 1745SOL     OW22844   3.876   2.291   4.055  0.3376 -0.4859 -0.4599
 1745SOL    HW122845   3.939   2.296   3.983 -0.6924  0.7275 -1.3133
 1745SOL    HW222846   3.906   2.358   4.117 -0.4433  0.5710 -1.1798
 1746SOL     OW22847   6.089   0.878  11.315  0.0368  0.5519  0.3451
 1746SOL    HW122848   6.133   0.819  11.377  1.1006  0.3944 -0.5384
 1746SOL    HW222849   5.997   0.852  11.319  0.1990  0.0909  1.3519
 1747SOL     OW22850   7.630   7.416   9.498  0.5190 -0.2689 -0.0285
 1747SOL    HW122851   7.678   7.435   9.417  0.7128 -1.5556 -0.2281
 1747SOL    HW222852   7.686   7.449   9.568  0.7756  0.0142 -0.3629
 1748SOL     OW22853   3.847  13.812  11.653 -0.5624 -0.2652  0.2849
 1748SOL    HW122854   3.758  13.836  11.679 -0.1669 -1.8213  3.6668
 1748SOL    HW222855   3.846  13.716  11.650  0.8352 -0.2874 -0.4022
 1749SOL     OW22856  14.033   5.358   0.291 -1.0141 -0.4167  0.6612
 1749SOL    HW122857  14.001   5.294   0.354 -0.7255 -0.6570  0.5688
 1749SOL    HW222858  13.962   5.367   0.227 -1.6351  0.4294  1.4477
 1750SOL     OW22859   4.657   0.626   6.640  0.5982 -0.5682 -0.1058
 1750SOL    HW122860   4.750   0.603   6.643  0.6947 -0.0937  1.1998
 1750SOL    HW222861   4.634   0.645   6.731 -1.0783 -1.8170 -0.2128
 1751SOL     OW22862  12.682   2.504   4.639  0.7104 -0.1686  0.0222
 1751SOL    HW122863  12.717   2.453   4.712  0.9038 -0.1287 -0.0411
 1751SOL    HW222864  12.629   2.442   4.589  2.4458 -0.7968 -1.1060
 1752SOL     OW22865  13.526   6.723   2.881 -0.0128  0.5894  0.1860
 1752SOL    HW122866  13.596   6.680   2.929  1.1215  1.3077 -0.7626
 1752SOL    HW222867  13.480   6.652   2.836 -0.3830  0.0346  1.3922
 1753SOL     OW22868   2.445  13.077   7.268  0.1830  0.4613 -0.3537
 1753SOL    HW122869   2.455  12.990   7.231 -1.0456 -0.3669  1.1155
 1753SOL    HW222870   2.356  13.103   7.244  0.3211  1.0488 -0.2503
 1754SOL     OW22871  12.698   6.760   5.551 -0.2675 -0.2918  0.0533
 1754SOL    HW122872  12.673   6.791   5.639  1.3108 -0.8786  0.7489
 1754SOL    HW222873  12.678   6.834   5.493 -2.8187 -0.4441  0.6172
 1755SOL     OW22874   6.073  11.960  12.717 -0.5896  0.0369  0.2062
 1755SOL    HW122875   6.004  11.938  12.780 -0.0603  1.7105  1.4776
 1755SOL    HW222876   6.137  11.890  12.726 -0.4565  0.3007  1.7085
 1756SOL     OW22877   5.450   0.032   3.239 -0.5853  0.1501  0.0775
 1756SOL    HW122878   5.413   0.005   3.155 -0.5299 -0.7684  0.3443
 1756SOL    HW222879   5.375   0.061   3.291 -0.8693 -1.0955  0.3875
 1757SOL     OW22880  11.503  13.506  11.515  0.1822  0.3625 -0.2261
 1757SOL    HW122881  11.450  13.526  11.592  0.9268 -0.3305  0.4802
 1757SOL    HW222882  11.525  13.592  11.478  0.4726  0.7343  0.7825
 1758SOL     OW22883  13.929  12.684   5.497 -0.8099  0.4029  0.2354
 1758SOL    HW122884  13.920  12.610   5.437 -1.6664 -0.9002  1.8702
 1758SOL    HW222885  14.014  12.722   5.476 -1.1446  0.1053 -1.8664
 1759SOL     OW22886   4.157   2.141  10.028  0.3124 -0.3271 -0.5885
 1759SOL    HW122887   4.239   2.100   9.999  0.7328 -0.3456  0.5803
 1759SOL    HW222888   4.127   2.192   9.952  1.2751 -0.5113 -1.1056
 1760SOL     OW22889   5.288   6.416   4.388 -0.0269  0.0757  0.4892
 1760SOL    HW122890   5.205   6.442   4.428 -0.2738 -0.6322  0.4477
 1760SOL    HW222891   5.263   6.373   4.306  0.2913 -1.2641  1.0559
 1761SOL     OW22892   6.427   3.479   6.942 -0.3961  0.0474  0.1158
 1761SOL    HW122893   6.418   3.500   7.035  0.1314 -0.2730  0.2414
 1761SOL    HW222894   6.416   3.563   6.897  1.5328  0.5952  0.6063
 1762SOL     OW22895   7.734   5.554  12.750  0.2199  0.0986 -0.1898
 1762SOL    HW122896   7.683   5.624  12.794  0.8485 -0.1156  0.9239
 1762SOL    HW222897   7.676   5.478  12.752 -0.4585  0.5692 -1.3839
 1763SOL     OW22898   3.219   4.475  13.974 -0.5735 -0.4851 -0.0105
 1763SOL    HW122899   3.253   4.386  13.981  0.0759 -0.1915  0.6190
 1763SOL    HW222900   3.238   4.515  14.058  1.3594  1.0126 -1.0740
 1764SOL     OW22901   1.529   5.738  10.778 -0.2957  0.3625 -0.5921
 1764SOL    HW122902   1.444   5.694  10.782 -0.0406 -0.0748  0.2963
 1764SOL    HW222903   1.535   5.786  10.861 -0.3737  1.7297 -1.3482
 1765SOL     OW22904   3.802  12.332   4.700  0.3374 -0.4106 -0.0878
 1765SOL    HW122905   3.859  12.261   4.673  0.6331 -0.4676  0.6695
 1765SOL    HW222906   3.840  12.410   4.660 -1.2639 -0.9009 -2.8730
 1766SOL     OW22907  10.377  12.373  12.953 -0.2112  0.4835  0.1353
 1766SOL    HW122908  10.293  12.388  12.995  0.0248  0.4018  0.6508
 1766SOL    HW222909  10.384  12.441  12.887 -1.8699 -1.0677 -1.7798
 1767SOL     OW22910   6.639   5.581   7.253 -0.5881  0.1745  0.9791
 1767SOL    HW122911   6.640   5.642   7.327 -0.3650 -0.1709  1.2651
 1767SOL    HW222912   6.639   5.637   7.176 -1.6543  0.5389  1.2397
 1768SOL     OW22913  12.063  13.435   8.518  0.4584 -0.0306  0.5623
 1768SOL    HW122914  12.114  13.416   8.597 -0.0687  0.2256  0.9730
 1768SOL    HW222915  11.972  13.423   8.545  0.2817 -0.1127 -0.0577
 1769SOL     OW22916   7.673  12.282   4.402 -0.6985 -0.1129  1.0245
 1769SOL    HW122917   7.638  12.198   4.374 -0.9468 -0.2167  1.6171
 1769SOL    HW222918   7.678  12.275   4.498 -1.7183  0.9118  1.1840
 1770SOL     OW22919   6.171   1.195   8.838  0.0043  0.3575 -0.2155
 1770SOL    HW122920   6.169   1.289   8.819 -1.9134  0.0865 -1.7188
 1770SOL    HW222921   6.136   1.154   8.758  5.0513 -2.0513 -1.6422
 1771SOL     OW22922   6.496   0.461  10.199  0.1155 -0.1215  0.0125
 1771SOL    HW122923   6.540   0.536  10.237  0.2796 -0.3497  0.2772
 1771SOL    HW222924   6.437   0.498  10.133 -1.7044  0.4986  1.8693
 1772SOL     OW22925   3.060   6.629   7.825  0.3899 -0.0922 -0.4266
 1772SOL    HW122926   3.028   6.601   7.739  0.1399 -0.1649 -0.3112
 1772SOL    HW222927   2.980   6.650   7.874  0.2402 -3.4967  1.0408
 1773SOL     OW22928   1.640   8.091   7.586 -0.2449  0.1706  0.2181
 1773SOL    HW122929   1.723   8.046   7.601 -0.9847 -1.1361  0.6140
 1773SOL    HW222930   1.661   8.184   7.589  1.0797 -0.1369  1.0468
 1774SOL     OW22931  11.095   3.829  12.023  0.5062 -0.3292 -0.3014
 1774SOL    HW122932  11.132   3.742  12.006 -0.1523 -0.5617 -0.5535
 1774SOL    HW222933  11.105   3.841  12.118 -1.9061 -1.8725  0.2252
 1775SOL     OW22934   9.119   0.095   5.051  0.3600 -0.2022  0.1659
 1775SOL    HW122935   9.105   0.011   5.093  1.3280 -1.2209 -1.4609
 1775SOL    HW222936   9.197   0.131   5.092  0.2103 -0.2941  0.5354
 1776SOL     OW22937   7.799   0.050   8.837  0.7528 -0.2531  0.4483
 1776SOL    HW122938   7.850  -0.011   8.783  2.1649  1.3096 -0.0510
 1776SOL    HW222939   7.808   0.016   8.926  0.9997 -1.1296  0.0995
 1777SOL     OW22940   8.006   4.430   1.760 -0.3237 -0.1954 -0.1805
 1777SOL    HW122941   7.945   4.503   1.766  0.7677  0.8330 -0.9809
 1777SOL    HW222942   7.994   4.381   1.841 -2.0372  0.0885 -0.2352
 1778SOL     OW22943   7.620   6.334  13.358 -0.0554  0.2835  0.7008
 1778SOL    HW122944   7.566   6.410  13.336  0.4950  0.3865 -0.3743
 1778SOL    HW222945   7.575   6.261  13.315 -0.3422  0.0662  1.3623
 1779SOL     OW22946   6.325   5.362  11.897 -0.2744  0.0400  0.2602
 1779SOL    HW122947   6.281   5.283  11.866  2.4276 -0.6266 -2.3440
 1779SOL    HW222948   6.377   5.333  11.972 -1.0548 -0.0874  0.7628
 1780SOL     OW22949   4.209  10.472   0.588 -0.1289  0.3817  0.3387
 1780SOL    HW122950   4.290  10.481   0.539  0.0605 -0.1060  0.5571
 1780SOL    HW222951   4.175  10.561   0.595 -1.4215  0.2715 -2.7497
 1781SOL     OW22952   6.891  13.330   6.507 -0.2381 -0.4902 -0.2173
 1781SOL    HW122953   6.890  13.247   6.461  0.1024 -0.4995 -0.2134
 1781SOL    HW222954   6.812  13.329   6.561 -1.4135  0.1194 -1.8352
 1782SOL     OW22955  10.458   4.986   3.849 -0.6996 -0.8924  0.1423
 1782SOL    HW122956  10.381   5.039   3.826  0.3013  1.2502  1.4708
 1782SOL    HW222957  10.533   5.041   3.826  0.3836 -1.2841  2.4428
 1783SOL     OW22958   1.820   3.541   9.537  0.3226  0.0792  0.3844
 1783SOL    HW122959   1.827   3.631   9.569  1.6599  0.9806 -2.1026
 1783SOL    HW222960   1.869   3.489   9.600  1.3880  1.4496  0.7343
 1784SOL     OW22961   8.896   2.362   7.910  0.5838 -0.2754  0.2807
 1784SOL    HW122962   8.949   2.425   7.861  1.5620 -1.4659 -0.2546
 1784SOL    HW222963   8.822   2.413   7.943  0.3872  0.7623 -1.6348
 1785SOL     OW22964  13.970   6.955   5.529  0.1331 -0.1669  0.0539
 1785SOL    HW122965  13.942   7.033   5.575  0.9747  1.4336 -1.9809
 1785SOL    HW222966  14.011   6.988   5.449  1.5015 -2.6530 -0.3670
 1786SOL     OW22967   1.088   6.371   2.239  0.1748 -0.4429 -0.1497
 1786SOL    HW122968   1.010   6.345   2.288  0.6943 -0.5435  0.6635
 1786SOL    HW222969   1.061   6.446   2.188  0.1751  1.2044  2.1116
 1787SOL     OW22970   5.867   7.756  10.533  0.4908  0.1667 -0.4489
 1787SOL    HW122971   5.772   7.764  10.522 -0.4475 -1.4155  4.3230
 1787SOL    HW222972   5.887   7.809  10.609  3.7406  1.2433 -1.8956
 1788SOL     OW22973   3.596   9.730   8.720 -0.2755  0.2271  0.0157
 1788SOL    HW122974   3.666   9.761   8.776  0.1469  0.0844 -0.4268
 1788SOL    HW222975   3.556   9.658   8.769  0.0863  0.1064  0.1378
 1789SOL     OW22976   5.807   8.220  14.091  0.2684 -0.0584 -0.0289
 1789SOL    HW122977   5.747   8.186  14.158 -1.5055  0.4869 -1.2716
 1789SOL    HW222978   5.757   8.288  14.047  1.4221 -0.3357 -1.8437
 1790SOL     OW22979   3.799   0.834   2.968  0.1599  0.0389  0.0275
 1790SOL    HW122980   3.844   0.917   2.982 -0.3180  0.3389 -0.1868
 1790SOL    HW222981   3.755   0.816   3.051  2.5769 -1.4600  1.0652
 1791SOL     OW22982   3.639  12.295   6.890  0.2759  0.6270  0.3151
 1791SOL    HW122983   3.555  12.336   6.913  0.8013  1.6983  0.3306
 1791SOL    HW222984   3.703  12.366   6.894  1.2487 -0.2392  0.6096
 1792SOL     OW22985   5.648   7.247   1.513 -0.1155  0.1852 -0.2553
 1792SOL    HW122986   5.726   7.261   1.568 -0.1381 -0.8999  0.0826
 1792SOL    HW222987   5.671   7.172   1.458 -0.5154  0.5638 -0.9458
 1793SOL     OW22988  11.449  13.694   9.123  0.5135  0.2077 -0.3156
 1793SOL    HW122989  11.522  13.633   9.113 -0.3153 -0.7383 -0.7200
 1793SOL    HW222990  11.487  13.779   9.103  1.6095 -0.2005 -0.0934
 1794SOL     OW22991   9.241   7.953   0.578 -0.0063  0.2059  0.3245
 1794SOL    HW122992   9.310   8.015   0.599  0.2426  0.3420 -0.8680
 1794SOL    HW222993   9.233   7.899   0.657  1.4794  0.1636  0.4705
 1795SOL     OW22994   6.659  11.684   2.678  0.2394  0.0916  0.2748
 1795SOL    HW122995   6.712  11.605   2.684  0.9654  0.5952  0.6748
 1795SOL    HW222996   6.630  11.701   2.768 -0.6179 -0.1867  0.0574
 1796SOL     OW22997  13.618   8.173  13.870  0.9461  0.1486 -0.5027
 1796SOL    HW122998  13.687   8.153  13.933 -1.7727 -1.6872  2.1596
 1796SOL    HW222999  13.584   8.258  13.897  1.3373  0.4865 -1.0517
 1797SOL     OW23000   9.930   1.149   3.850 -0.4058 -0.2801 -0.1690
 1797SOL    HW123001   9.850   1.137   3.799  0.1216 -1.3369 -0.7680
 1797SOL    HW223002   9.949   1.063   3.886  0.7263 -0.1483 -0.4253
 1798SOL     OW23003   4.763   4.910  11.087 -0.1856 -0.0176 -0.7211
 1798SOL    HW123004   4.691   4.856  11.056 -0.5903 -0.0249  0.1829
 1798SOL    HW223005   4.756   4.906  11.183  0.0855  1.2262 -0.6387
 1799SOL     OW23006   6.380   7.323  11.565 -0.0549  0.1295 -0.0653
 1799SOL    HW123007   6.299   7.295  11.605  1.0616 -0.0372  2.2225
 1799SOL    HW223008   6.373   7.419  11.561 -0.0342  0.1827  0.9356
 1800SOL     OW23009   9.972   5.436   0.954  0.3472 -0.3669 -0.0449
 1800SOL    HW123010  10.009   5.523   0.944 -1.3806  0.5345  0.9431
 1800SOL    HW223011   9.907   5.428   0.884 -0.0300 -0.5497  0.3165
 1801SOL     OW23012  12.099   5.280  13.965  0.1489 -0.3640 -0.9375
 1801SOL    HW123013  12.151   5.334  14.024 -0.2054 -1.5053  0.4804
 1801SOL    HW223014  12.085   5.335  13.888  0.2990  1.3297  0.1983
 1802SOL     OW23015   0.494   2.436  12.806  0.0763  0.1002  0.4587
 1802SOL    HW123016   0.540   2.380  12.744  2.3556  0.4440  1.7416
 1802SOL    HW223017   0.418   2.469  12.757 -0.2100 -2.4306 -0.9603
 1803SOL     OW23018   5.729   1.889   4.242 -0.0771 -0.8113 -0.1118
 1803SOL    HW123019   5.760   1.883   4.333  0.6166  0.1663 -0.2666
 1803SOL    HW223020   5.671   1.965   4.241  0.1388 -0.6507 -0.5484
 1804SOL     OW23021   5.952  11.673   2.351  0.2225  0.1086 -0.0854
 1804SOL    HW123022   5.977  11.730   2.424  0.9998 -0.0360 -0.2200
 1804SOL    HW223023   5.989  11.587   2.374 -1.6862 -0.5830  0.5356
 1805SOL     OW23024   2.138  11.932   5.745  0.3242  0.2975 -0.4935
 1805SOL    HW123025   2.165  11.950   5.836 -0.0553  0.2096 -0.3632
 1805SOL    HW223026   2.173  11.845   5.727  0.5560  0.3890 -0.4956
 1806SOL     OW23027   0.767   1.420   0.056  0.5641 -0.7718 -0.1387
 1806SOL    HW123028   0.690   1.463   0.017  0.5738 -1.1562 -0.5862
 1806SOL    HW223029   0.771   1.455   0.145 -0.7839 -1.5821  0.2613
 1807SOL     OW23030   0.907   9.332   0.010 -0.5148 -0.1331 -0.0319
 1807SOL    HW123031   0.892   9.408  -0.047 -0.8125 -0.7677 -0.8218
 1807SOL    HW223032   0.922   9.370   0.096 -1.6751  0.7809 -0.2010
 1808SOL     OW23033   0.759   8.570   2.708 -0.0799  0.1848 -0.3894
 1808SOL    HW123034   0.811   8.490   2.719  0.1451  0.3496 -0.2426
 1808SOL    HW223035   0.818   8.640   2.734 -0.2688  0.4019 -0.5457
 1809SOL     OW23036  12.117   9.428   2.272 -0.0548 -0.4150  0.5857
 1809SOL    HW123037  12.049   9.457   2.332 -0.6124 -1.0472  0.2772
 1809SOL    HW223038  12.095   9.337   2.253  1.3548 -0.8943  1.1279
 1810SOL     OW23039   5.109   1.339   5.012  0.1272 -0.3167 -0.0444
 1810SOL    HW123040   5.067   1.367   4.930  0.0795  1.7214  0.6126
 1810SOL    HW223041   5.163   1.414   5.038  1.9485 -1.7876  0.6413
 1811SOL     OW23042   3.651  11.202   6.435  0.4325  0.6329  0.1090
 1811SOL    HW123043   3.738  11.166   6.455 -0.7388 -1.3822  1.9552
 1811SOL    HW223044   3.667  11.262   6.362  3.5419  1.2247  1.1307
 1812SOL     OW23045  10.947   3.223   0.783  0.0867  0.1879  0.7132
 1812SOL    HW123046  10.879   3.217   0.850 -0.5841  0.9924  0.1249
 1812SOL    HW223047  10.922   3.299   0.731 -0.5333 -1.5385 -1.6730
 1813SOL     OW23048  10.717   5.398   5.122  0.7733 -0.0719 -0.9031
 1813SOL    HW123049  10.790   5.394   5.184  0.7598 -0.1227 -0.8902
 1813SOL    HW223050  10.654   5.334   5.155 -1.2470  2.8725  1.6105
 1814SOL     OW23051  11.157   0.992   0.136 -0.1953 -0.4528  0.1251
 1814SOL    HW123052  11.118   0.972   0.051 -0.8505  0.6076  0.1611
 1814SOL    HW223053  11.105   1.064   0.171  0.9785  0.1305  0.7643
 1815SOL     OW23054  12.249  13.224   4.048 -0.1491  0.1638 -0.0343
 1815SOL    HW123055  12.184  13.178   4.101 -1.6033  1.1665 -0.8990
 1815SOL    HW223056  12.264  13.166   3.973 -0.9685  0.4802 -0.4481
 1816SOL     OW23057   9.637   6.915   2.745  0.7423 -0.2007  0.4253
 1816SOL    HW123058   9.706   6.975   2.773 -0.3203  0.5145  1.6471
 1816SOL    HW223059   9.683   6.838   2.712  2.1201  0.4206  0.8383
 1817SOL     OW23060   6.848   7.819   3.303  0.1047  0.3054  0.3754
 1817SOL    HW123061   6.881   7.760   3.371  1.1649  0.3284 -0.1134
 1817SOL    HW223062   6.926   7.859   3.265 -0.5892  2.5273  1.1188
 1818SOL     OW23063   1.833  12.998  12.715  0.3634 -0.1324 -0.4191
 1818SOL    HW123064   1.882  13.073  12.749 -0.8275  0.0736  0.9492
 1818SOL    HW223065   1.775  13.037  12.649 -0.5235  0.2439  0.5585
 1819SOL     OW23066   6.782  14.052  10.754  0.9931  0.2778 -0.3745
 1819SOL    HW123067   6.782  13.969  10.802  0.6300  0.3117 -0.3129
 1819SOL    HW223068   6.872  14.084  10.761  1.4539 -0.7230 -1.4694
 1820SOL     OW23069   0.177   7.806  11.968  0.4149 -0.0594 -0.1708
 1820SOL    HW123070   0.101   7.758  11.934  1.3180 -1.5200 -0.2318
 1820SOL    HW223071   0.216   7.847  11.891 -1.3582  2.3392  0.1152
 1821SOL     OW23072   9.376   0.048  13.716  0.2824 -0.2034  0.1134
 1821SOL    HW123073   9.289   0.074  13.744 -0.1288  0.8386 -1.9386
 1821SOL    HW223074   9.413   0.126  13.675  1.2684 -1.2514 -1.0850
 1822SOL     OW23075   9.582   2.987  10.091 -0.0775  0.2026 -0.1414
 1822SOL    HW123076   9.489   2.997  10.071  0.4358  2.9909 -1.6116
 1822SOL    HW223077   9.620   2.955  10.009  0.3218 -0.6650  0.3727
 1823SOL     OW23078   2.602   2.555   4.575  0.4824  0.2733 -0.2789
 1823SOL    HW123079   2.538   2.486   4.595 -1.0447  2.1336  1.6566
 1823SOL    HW223080   2.678   2.534   4.630  0.6741 -0.6829 -0.8802
 1824SOL     OW23081   8.021   7.293   4.269  0.0171 -0.2947  0.1823
 1824SOL    HW123082   7.966   7.215   4.267 -0.4662  0.0478 -1.6665
 1824SOL    HW223083   7.996   7.338   4.350 -2.2804 -0.2775 -0.4568
 1825SOL     OW23084   8.798   5.881   4.153 -0.4338 -0.2801  0.5328
 1825SOL    HW123085   8.888   5.909   4.168 -0.0919 -0.5350 -0.9176
 1825SOL    HW223086   8.803   5.822   4.079 -1.9055  0.3831 -0.1306
 1826SOL     OW23087   3.625  10.421   2.280 -0.0598  0.2608 -0.2635
 1826SOL    HW123088   3.659  10.377   2.358 -0.8646 -1.2176 -0.7210
 1826SOL    HW223089   3.530  10.419   2.291 -0.1278  2.3819 -0.0564
 1827SOL     OW23090  11.937  12.476  13.038  0.3246  0.2512 -0.0283
 1827SOL    HW123091  11.879  12.439  13.103  1.7885 -1.5090  0.3426
 1827SOL    HW223092  11.980  12.549  13.083  4.3647 -3.2838  2.6936
 1828SOL     OW23093  13.390  12.619  13.114  0.3397 -0.1768  0.5663
 1828SOL    HW123094  13.344  12.622  13.198  1.6723 -0.4258  1.3276
 1828SOL    HW223095  13.340  12.556  13.062  0.1386 -0.8772  1.5744
 1829SOL     OW23096   3.525   3.298   3.760  0.6797 -0.0412  0.0994
 1829SOL    HW123097   3.488   3.386   3.754  2.1060  0.8062  2.3970
 1829SOL    HW223098   3.575   3.288   3.679 -1.0732  0.4470 -1.0957
 1830SOL     OW23099   3.690   0.877  11.518  0.5839 -0.5600 -0.1321
 1830SOL    HW123100   3.610   0.891  11.466  0.2530  0.0622  0.5265
 1830SOL    HW223101   3.661   0.881  11.609  1.4336  0.1115  0.1220
 1831SOL     OW23102   4.890   2.935  10.751 -0.3575  0.4431 -0.4710
 1831SOL    HW123103   4.906   3.028  10.734 -0.8044  0.5349 -0.4072
 1831SOL    HW223104   4.934   2.890  10.679  0.3677  0.6737 -0.1769
 1832SOL     OW23105   7.938  10.185  11.357  0.3067 -0.2926  0.1628
 1832SOL    HW123106   7.967  10.233  11.280 -2.1682  1.1245 -0.0074
 1832SOL    HW223107   7.938  10.250  11.428 -0.3089 -0.7692  0.6218
 1833SOL     OW23108  12.951   0.265  12.915 -0.9371  0.6548 -0.4381
 1833SOL    HW123109  12.997   0.188  12.884 -1.4821 -0.3571  1.1300
 1833SOL    HW223110  12.950   0.325  12.840  0.3443 -0.4515 -1.3820
 1834SOL     OW23111   5.330   1.447   5.691  0.4488  0.8700  0.2775
 1834SOL    HW123112   5.395   1.448   5.762  0.3125  0.6085  0.4079
 1834SOL    HW223113   5.246   1.458   5.736  0.3466  0.5200  0.1757
 1835SOL     OW23114   7.888  13.654   8.848 -1.0241  0.4635 -0.5177
 1835SOL    HW123115   7.883  13.638   8.754 -3.7037 -0.5001 -0.2751
 1835SOL    HW223116   7.892  13.750   8.856  0.3381  0.5214 -1.5898
 1836SOL     OW23117   8.990  11.419  12.345 -0.5462 -0.1759  0.0943
 1836SOL    HW123118   9.016  11.511  12.351 -1.0160  0.0419 -0.9519
 1836SOL    HW223119   8.979  11.403  12.251  0.6987 -1.6332  0.1483
 1837SOL     OW23120   5.080   0.127  13.769  0.6251  0.1217  0.1598
 1837SOL    HW123121   4.998   0.081  13.790  0.8205 -0.1143  0.4096
 1837SOL    HW223122   5.113   0.157  13.853  0.0288  1.5488 -0.0834
 1838SOL     OW23123   4.976   2.701   7.774  0.2309  0.6979 -0.6956
 1838SOL    HW123124   5.038   2.689   7.846 -0.0009 -0.9151 -0.7260
 1838SOL    HW223125   4.954   2.794   7.776 -0.4056  0.5585  1.8297
 1839SOL     OW23126   9.821   4.086  13.746  0.5003 -0.6243 -0.4178
 1839SOL    HW123127   9.805   3.999  13.782  0.4800 -0.4298  0.0452
 1839SOL    HW223128   9.910   4.082  13.711 -0.0211 -1.2926 -1.7785
 1840SOL     OW23129  13.332  12.721  12.526  0.1485 -0.1134  0.2533
 1840SOL    HW123130  13.400  12.662  12.494  2.4428  2.4615 -0.0789
 1840SOL    HW223131  13.357  12.807  12.490 -2.4515  1.2333  1.4059
 1841SOL     OW23132   5.767   3.775  11.388 -0.3091 -0.6486 -0.3776
 1841SOL    HW123133   5.839   3.802  11.446 -1.0724  0.0830  0.2610
 1841SOL    HW223134   5.749   3.685  11.413 -0.2235 -0.5381  0.1020
 1842SOL     OW23135  12.721   0.301   6.040  0.0191  0.0487 -0.0145
 1842SOL    HW123136  12.686   0.221   6.000 -0.0068 -0.1003  0.2980
 1842SOL    HW223137  12.807   0.276   6.074 -0.4476 -0.1654  1.0795
 1843SOL     OW23138   2.174  12.967   4.672 -0.4937  0.3837 -0.7629
 1843SOL    HW123139   2.159  12.873   4.681 -1.1738  0.5518 -0.1058
 1843SOL    HW223140   2.267  12.979   4.694 -0.9001  0.1345  1.2514
 1844SOL     OW23141  12.408   4.507   9.166  0.4151 -0.0753  0.3049
 1844SOL    HW123142  12.333   4.511   9.225  1.0888  1.8000  1.1142
 1844SOL    HW223143  12.438   4.598   9.159  0.5657 -0.2315 -2.6808
 1845SOL     OW23144   9.379  10.408   3.885 -0.0512 -0.9639  0.8181
 1845SOL    HW123145   9.384  10.450   3.970  0.0288 -0.5946  0.6340
 1845SOL    HW223146   9.304  10.450   3.842  0.3993 -0.5786  0.4028
 1846SOL     OW23147   5.896  10.959   6.326 -0.0814 -0.5213 -0.2158
 1846SOL    HW123148   5.844  10.878   6.326  0.1004 -0.6605  1.1477
 1846SOL    HW223149   5.831  11.029   6.314 -0.3840 -0.7953 -0.2083
 1847SOL     OW23150   3.976  10.026  13.444 -0.3363 -0.0739 -0.2953
 1847SOL    HW123151   3.937   9.949  13.402 -0.8661  0.3205 -0.5465
 1847SOL    HW223152   4.063  10.034  13.404 -0.4877 -0.2309 -0.6574
 1848SOL     OW23153  11.242   6.712   4.825  0.2033  0.2458  0.0390
 1848SOL    HW123154  11.231   6.789   4.769  1.0780  1.2675  1.2013
 1848SOL    HW223155  11.268   6.748   4.910  0.7413 -1.3438  0.5881
 1849SOL     OW23156  10.339   1.683   2.457  0.2235  0.4078  0.3654
 1849SOL    HW123157  10.275   1.679   2.387  2.1178  0.1844 -1.4513
 1849SOL    HW223158  10.424   1.673   2.413  1.4192 -2.0396  2.9007
 1850SOL     OW23159  13.820   5.547   0.527 -0.2901 -0.3085  0.6551
 1850SOL    HW123160  13.800   5.585   0.613 -1.3123 -2.0781  1.2655
 1850SOL    HW223161  13.911   5.517   0.534  0.2924  1.3031  0.3999
 1851SOL     OW23162  10.471  11.548   0.006 -0.3371 -0.3778  0.4638
 1851SOL    HW123163  10.422  11.624  -0.025 -1.4094  0.1471  3.1897
 1851SOL    HW223164  10.456  11.481  -0.061 -1.4563  1.0065 -0.7351
 1852SOL     OW23165   3.381   8.781  13.742  0.0338 -0.1115  0.0751
 1852SOL    HW123166   3.457   8.828  13.709  0.0454  1.3131  1.9220
 1852SOL    HW223167   3.307   8.839  13.722 -0.3079 -0.5720  0.0034
 1853SOL     OW23168   0.210   9.800   2.691  0.3187  0.4581  0.2204
 1853SOL    HW123169   0.148   9.757   2.750 -1.3314  1.1557 -0.9318
 1853SOL    HW223170   0.160   9.873   2.653  1.2930  0.0384 -2.0216
 1854SOL     OW23171   0.601   0.982   5.035 -0.0664  0.1927 -0.0300
 1854SOL    HW123172   0.644   0.911   5.082 -0.0251 -0.0628 -0.4510
 1854SOL    HW223173   0.633   0.976   4.946 -0.4618  0.4182 -0.1928
 1855SOL     OW23174   6.633   8.834  13.038  0.1588  0.7082  0.3702
 1855SOL    HW123175   6.608   8.836  12.945  0.5162  1.4175  0.2856
 1855SOL    HW223176   6.711   8.779  13.040  1.4250  2.4275 -0.0776
 1856SOL     OW23177   6.658   7.724   0.819  0.4237  0.2098 -0.4076
 1856SOL    HW123178   6.578   7.693   0.777  0.5233 -0.3936 -0.1745
 1856SOL    HW223179   6.679   7.656   0.883  2.7763 -1.2897 -2.5244
 1857SOL     OW23180  11.885   7.308   5.524 -0.2389  0.1997 -0.2461
 1857SOL    HW123181  11.847   7.396   5.530  0.0280  0.2512  1.1415
 1857SOL    HW223182  11.814   7.250   5.553 -0.2816 -0.0084 -0.7595
 1858SOL     OW23183   1.751   4.682   7.350  0.6064  0.0420 -0.3334
 1858SOL    HW123184   1.829   4.639   7.314  0.8061  1.1677 -1.3240
 1858SOL    HW223185   1.759   4.673   7.444  0.6429 -2.0484 -0.4974
 1859SOL     OW23186   7.196  10.528  12.973 -0.0947  0.7670  0.6969
 1859SOL    HW123187   7.249  10.488  13.042  2.2061  0.0583 -1.3364
 1859SOL    HW223188   7.222  10.620  12.973 -1.1757  1.0965  1.6596
 1860SOL     OW23189  11.778   0.659  11.575  0.1622  0.3466 -0.0779
 1860SOL    HW123190  11.694   0.641  11.617  0.3110 -0.6327 -0.1686
 1860SOL    HW223191  11.765   0.741  11.527 -0.2235  1.1273  1.2954
 1861SOL     OW23192   2.005  10.861   7.013 -0.4525  0.1679 -0.5490
 1861SOL    HW123193   1.935  10.901   7.063  0.2164  0.9136 -0.1854
 1861SOL    HW223194   2.031  10.927   6.950  0.2137  0.0695 -0.3890
 1862SOL     OW23195   1.089  13.673   7.438 -0.1650 -0.3483 -0.1882
 1862SOL    HW123196   1.050  13.624   7.511 -0.2262  0.5207  0.3814
 1862SOL    HW223197   1.099  13.762   7.472  1.6929 -0.3803 -0.5518
 1863SOL     OW23198   6.604  11.944   0.156  0.5539  0.5231  0.2988
 1863SOL    HW123199   6.511  11.925   0.144  0.3010  1.6127  0.4285
 1863SOL    HW223200   6.637  11.958   0.068  1.1279 -2.0507  0.0285
 1864SOL     OW23201   8.164   0.182   3.033 -0.0032 -0.0904 -0.3468
 1864SOL    HW123202   8.126   0.269   3.042  2.1100  1.0119 -1.2001
 1864SOL    HW223203   8.138   0.153   2.946  0.2907  0.2290 -0.5425
 1865SOL     OW23204   4.534   1.344   9.318  0.4101 -0.2353  0.0400
 1865SOL    HW123205   4.592   1.324   9.245  0.8419 -1.8092  0.7832
 1865SOL    HW223206   4.503   1.259   9.350 -1.2020  0.4888  0.5619
 1866SOL     OW23207   1.317  11.574   6.144  0.4559  0.7913 -0.4384
 1866SOL    HW123208   1.330  11.665   6.120  1.4121  0.8900  0.3856
 1866SOL    HW223209   1.240  11.546   6.094 -0.8301  2.4932  0.4956
 1867SOL     OW23210   2.676   8.104  12.046 -0.0774  0.4110  0.8356
 1867SOL    HW123211   2.730   8.116  11.968 -0.3699 -0.5058  0.4712
 1867SOL    HW223212   2.618   8.181  12.047 -0.8382 -0.0917 -0.5057
 1868SOL     OW23213  10.237   6.411   2.338  0.2572  0.0227 -0.2836
 1868SOL    HW123214  10.259   6.471   2.409  0.8461 -0.1766 -0.2923
 1868SOL    HW223215  10.144   6.393   2.350  1.0379 -3.1206  2.9074
 1869SOL     OW23216  12.001  10.793   0.968  0.4563 -0.2377 -0.0206
 1869SOL    HW123217  11.944  10.777   0.893  0.3124 -1.7666  0.3967
 1869SOL    HW223218  11.941  10.799   1.043  0.5855  1.4192  0.0030
 1870SOL     OW23219   1.112  12.014   4.371 -0.0251  0.1176 -0.2221
 1870SOL    HW123220   1.172  11.948   4.407  0.0935  0.3643  0.0446
 1870SOL    HW223221   1.057  11.966   4.309  0.7099 -0.0409 -0.7665
 1871SOL     OW23222  10.745  10.408   1.231 -0.1958 -0.1201  0.2048
 1871SOL    HW123223  10.825  10.403   1.284 -0.7175  0.2729  1.0468
 1871SOL    HW223224  10.711  10.319   1.230  0.7967 -0.5140 -1.0432
 1872SOL     OW23225   8.707   2.598   7.119  0.0360 -0.5795  0.1673
 1872SOL    HW123226   8.698   2.513   7.162  0.2050 -0.5449  0.2706
 1872SOL    HW223227   8.695   2.579   7.026 -1.8065 -0.4415  0.3371
 1873SOL     OW23228  14.081   4.293   0.196 -0.0174  0.8644  0.1990
 1873SOL    HW123229  14.102   4.302   0.289  0.3912  3.1593 -0.0658
 1873SOL    HW223230  14.054   4.201   0.187  0.8980  0.3119  2.3633
 1874SOL     OW23231   5.409  13.614  13.258  0.2911  0.6242  0.7277
 1874SOL    HW123232   5.382  13.546  13.196  0.1747  0.5833  0.8223
 1874SOL    HW223233   5.466  13.569  13.320  1.8662  1.0298 -0.3710
 1875SOL     OW23234   6.552   8.296   1.852  0.1474  0.7084 -0.3210
 1875SOL    HW123235   6.474   8.261   1.809  1.2058 -2.2365 -0.0973
 1875SOL    HW223236   6.607   8.329   1.780 -0.2910  0.5841 -0.7163
 1876SOL     OW23237   4.064  10.690   9.911 -0.5474  0.3774 -0.5086
 1876SOL    HW123238   4.008  10.631   9.962 -2.5402 -0.2858 -3.2456
 1876SOL    HW223239   4.112  10.632   9.852  0.9079  1.2032 -0.1772
 1877SOL     OW23240   7.799   1.274  12.229 -0.4579  0.3276  0.3824
 1877SOL    HW123241   7.829   1.261  12.139  0.3696  1.1299  0.5211
 1877SOL    HW223242   7.704   1.265  12.225 -0.3588 -0.5018 -0.4104
 1878SOL     OW23243  11.648  11.493  11.826 -0.5386  0.4587 -0.4380
 1878SOL    HW123244  11.704  11.417  11.840 -1.2299  0.1221  0.5657
 1878SOL    HW223245  11.568  11.457  11.788 -0.8986  0.6706  0.1144
 1879SOL     OW23246   7.753   2.018   0.816 -0.0900  0.1809  0.4896
 1879SOL    HW123247   7.820   1.957   0.848 -0.4409 -0.4789 -0.0049
 1879SOL    HW223248   7.684   1.961   0.782 -0.0821  0.8543 -0.7005
 1880SOL     OW23249   1.690  10.275   6.862  0.5084 -0.3058  0.3885
 1880SOL    HW123250   1.667  10.193   6.818  0.6539 -0.4150  0.5119
 1880SOL    HW223251   1.633  10.278   6.939 -0.3427  0.2980 -0.2473
 1881SOL     OW23252  13.637  12.004  13.738  0.0261 -0.3927  0.2195
 1881SOL    HW123253  13.563  12.026  13.682  1.0887 -1.0120 -1.5169
 1881SOL    HW223254  13.690  12.084  13.740  0.7543 -0.8118 -0.9805
 1882SOL     OW23255   6.820   6.346   2.616 -0.3906  0.0528  0.1815
 1882SOL    HW123256   6.776   6.348   2.702  0.2764 -0.8757  0.5570
 1882SOL    HW223257   6.806   6.257   2.584  0.4326  0.0201 -0.1059
 1883SOL     OW23258   2.159   7.473   0.097  0.0430  0.5240 -0.0078
 1883SOL    HW123259   2.066   7.481   0.116  0.1571  3.3916 -0.2172
 1883SOL    HW223260   2.199   7.548   0.140  2.2705 -0.5397 -0.0808
 1884SOL     OW23261  12.449  13.689   3.156 -0.0343 -0.1157  0.5822
 1884SOL    HW123262  12.465  13.646   3.240 -1.9069 -1.0690  0.5033
 1884SOL    HW223263  12.482  13.627   3.091  0.6015  0.2262  0.5712
 1885SOL     OW23264   2.848  11.259  13.767 -0.3212 -0.3508  0.2232
 1885SOL    HW123265   2.808  11.299  13.690  0.0974  1.2736  0.7968
 1885SOL    HW223266   2.841  11.165  13.752 -1.1521 -0.0798 -1.3141
 1886SOL     OW23267   0.607   5.772   7.570  0.2487  0.3108 -0.2279
 1886SOL    HW123268   0.523   5.819   7.576 -1.0778 -1.9163 -0.4782
 1886SOL    HW223269   0.632   5.782   7.478 -1.0493 -1.0772 -0.7700
 1887SOL     OW23270  12.086   2.013   8.398  0.3237  0.1369 -0.4037
 1887SOL    HW123271  12.110   2.006   8.490 -1.9229 -0.2116  0.2163
 1887SOL    HW223272  12.110   1.928   8.360 -0.7433 -0.5549  0.4051
 1888SOL     OW23273  11.042   7.283   0.482  0.1825  0.1020 -0.5452
 1888SOL    HW123274  10.962   7.324   0.515 -0.4114 -1.1802 -0.3376
 1888SOL    HW223275  11.106   7.354   0.481 -0.1623  0.5648  2.0127
 1889SOL     OW23276  10.323   7.762   9.281 -0.1019  0.0937 -0.4624
 1889SOL    HW123277  10.381   7.789   9.353  0.8133  1.0921 -1.5409
 1889SOL    HW223278  10.355   7.675   9.256 -1.2702 -0.8625  1.1675
 1890SOL     OW23279   1.684   9.214   5.061 -0.6358 -0.0555 -0.0608
 1890SOL    HW123280   1.665   9.207   4.967 -2.0004  0.9998  0.1137
 1890SOL    HW223281   1.658   9.129   5.096  1.6902 -1.1998 -0.8712
 1891SOL     OW23282   4.946   1.831   6.472 -0.0374 -0.0639  0.3291
 1891SOL    HW123283   4.898   1.912   6.455  0.4927 -0.0829 -1.3534
 1891SOL    HW223284   4.896   1.763   6.426  0.2737 -0.4809  0.5928
 1892SOL     OW23285  10.786  12.377   3.712 -0.1070 -0.0211 -0.5458
 1892SOL    HW123286  10.834  12.386   3.630  2.0095  0.2313  0.6546
 1892SOL    HW223287  10.844  12.415   3.778 -0.9189 -1.8732  1.3372
 1893SOL     OW23288  12.400   3.529   9.889  0.3968 -0.9065 -0.3627
 1893SOL    HW123289  12.489   3.492   9.886  0.7928 -0.1765  1.2117
 1893SOL    HW223290  12.352   3.470   9.947  0.9332  0.7282  1.8727
 1894SOL     OW23291   6.296   2.322   3.541 -0.1012 -0.6213 -0.4110
 1894SOL    HW123292   6.245   2.371   3.476 -1.9049 -1.5396  0.2521
 1894SOL    HW223293   6.343   2.257   3.490  1.0226  0.6868 -1.1167
 1895SOL     OW23294   8.597  10.135   7.507 -0.0342  0.7407 -0.1788
 1895SOL    HW123295   8.586  10.045   7.538  0.4564  0.5370 -0.5847
 1895SOL    HW223296   8.514  10.178   7.528 -0.7572 -0.1529 -1.1162
 1896SOL     OW23297   3.106  13.366   1.478 -0.0416  0.0755  0.3163
 1896SOL    HW123298   3.105  13.279   1.519 -1.3684  0.5772  1.4365
 1896SOL    HW223299   3.196  13.378   1.450  0.1390 -1.7434 -0.0400
 1897SOL     OW23300   7.673   7.123   7.242  0.5078 -0.0719 -0.2959
 1897SOL    HW123301   7.651   7.100   7.332  2.6785  0.3413  0.3998
 1897SOL    HW223302   7.689   7.039   7.199  1.0972 -0.2034  0.1687
 1898SOL     OW23303   3.135   1.146   3.325 -0.4066 -0.1756  0.0893
 1898SOL    HW123304   3.072   1.074   3.314 -0.5190  0.1614 -1.8875
 1898SOL    HW223305   3.200   1.112   3.386 -2.1379 -0.7643  1.7100
 1899SOL     OW23306  12.366   7.442   1.361 -0.6671  0.0053  0.2677
 1899SOL    HW123307  12.388   7.369   1.418  1.7022 -0.2611 -0.8604
 1899SOL    HW223308  12.435   7.443   1.295 -0.9471  2.9024 -0.1179
 1900SOL     OW23309   8.938  10.645  12.455 -0.4451  0.0037 -0.3085
 1900SOL    HW123310   8.971  10.573  12.508  0.9758  0.8557  0.0070
 1900SOL    HW223311   8.854  10.613  12.421 -0.5991 -1.1951  1.0823
 1901SOL     OW23312   1.369   2.705  11.113  0.2955  0.0927  0.4868
 1901SOL    HW123313   1.396   2.625  11.067  0.8365 -0.9545  2.5431
 1901SOL    HW223314   1.440   2.767  11.096  1.1836 -0.7500  1.0874
 1902SOL     OW23315  12.289   8.296   8.658 -0.0958  0.2182  0.1649
 1902SOL    HW123316  12.265   8.348   8.735  1.3989  2.7002 -0.9401
 1902SOL    HW223317  12.207   8.289   8.608 -0.4544  1.0539  0.6041
 1903SOL     OW23318   1.191   6.043   3.784  0.1426  0.5193  0.3595
 1903SOL    HW123319   1.204   5.984   3.859 -0.4824  0.6080  0.5441
 1903SOL    HW223320   1.265   6.104   3.788  1.1005 -0.5773 -0.1559
 1904SOL     OW23321   8.520   1.038   7.139  0.2346  0.5223  0.3386
 1904SOL    HW123322   8.543   1.078   7.055  1.0934  1.4123  0.9713
 1904SOL    HW223323   8.454   0.973   7.117  0.4186  0.7586 -1.0244
 1905SOL     OW23324  11.088   2.150   6.856  0.2355 -0.3223  0.0677
 1905SOL    HW123325  11.073   2.163   6.950  1.5055  0.3930  0.1960
 1905SOL    HW223326  11.091   2.055   6.845 -0.2372 -0.4197  0.6819
 1906SOL     OW23327   5.506   0.115  12.625 -0.1334  0.4991 -0.8226
 1906SOL    HW123328   5.587   0.064  12.626  0.0136  0.6003  2.2190
 1906SOL    HW223329   5.436   0.051  12.627 -0.1395  0.4244 -2.4092
 1907SOL     OW23330  12.106   0.813  11.857  0.4493 -0.1220  0.4928
 1907SOL    HW123331  12.076   0.772  11.938  0.6882 -0.5732  0.3602
 1907SOL    HW223332  12.163   0.884  11.886 -0.9170  0.9043  0.7472
 1908SOL     OW23333   9.245  13.236  10.483  0.3183 -0.1893  0.5473
 1908SOL    HW123334   9.297  13.312  10.454 -1.2961  1.3546  1.4667
 1908SOL    HW223335   9.274  13.220  10.573 -0.6255  0.5802  1.0101
 1909SOL     OW23336  11.440   1.314   6.727  0.0216 -0.3219 -0.1506
 1909SOL    HW123337  11.405   1.401   6.741  1.9895  0.3534  1.0671
 1909SOL    HW223338  11.443   1.275   6.815 -0.8114 -1.6307 -0.6746
 1910SOL     OW23339   4.436   1.410  13.936 -0.2411 -0.0520 -0.0237
 1910SOL    HW123340   4.450   1.481  13.874  1.7827  1.6205  2.1822
 1910SOL    HW223341   4.402   1.453  14.014  0.0924 -1.6513  1.0420
 1911SOL     OW23342   0.278   3.784   9.227  0.0299  0.2035  0.1909
 1911SOL    HW123343   0.298   3.867   9.185  0.1237 -1.3991 -3.2532
 1911SOL    HW223344   0.183   3.780   9.231 -0.0756 -0.5050 -1.9989
 1912SOL     OW23345  10.089   2.778   8.053  0.2718 -0.3367 -0.0462
 1912SOL    HW123346  10.144   2.727   8.112  2.8054  1.7103 -0.4370
 1912SOL    HW223347  10.076   2.861   8.099  0.1568  0.3426 -1.2634
 1913SOL     OW23348   0.816   0.469   1.018 -0.0776  0.0949 -0.0791
 1913SOL    HW123349   0.878   0.533   1.053 -0.1346  0.5102 -0.7211
 1913SOL    HW223350   0.821   0.396   1.078  0.4792  0.4376  0.3012
 1914SOL     OW23351   7.216  13.672   1.847  0.2218 -0.2695  0.1296
 1914SOL    HW123352   7.183  13.761   1.834  0.6258 -0.3001 -1.2266
 1914SOL    HW223353   7.141  13.616   1.827  0.8137 -0.3139 -2.2379
 1915SOL     OW23354   1.883   1.527   7.456  0.3880 -0.4205 -0.5565
 1915SOL    HW123355   1.895   1.514   7.550 -0.1554  1.2866 -0.2030
 1915SOL    HW223356   1.884   1.439   7.419  2.9211 -1.0188  0.7272
 1916SOL     OW23357   2.758  10.711  10.621  0.1837 -0.1124 -0.0660
 1916SOL    HW123358   2.725  10.786  10.572  1.4538 -0.4816 -1.5741
 1916SOL    HW223359   2.691  10.694  10.687 -2.5539 -0.6780 -2.7524
 1917SOL     OW23360  13.165   7.465   5.016  0.2796 -0.1404  0.2103
 1917SOL    HW123361  13.261   7.459   5.021  0.3155 -0.8258 -1.0378
 1917SOL    HW223362  13.135   7.380   5.046  0.1585 -0.7193 -1.4662
 1918SOL     OW23363   3.380   2.090   9.045 -0.1198 -0.0764 -0.1583
 1918SOL    HW123364   3.361   2.151   8.973 -0.7965  1.0388  0.9323
 1918SOL    HW223365   3.294   2.060   9.075  0.1153  0.1284  0.7355
 1919SOL     OW23366  11.660   9.948  12.609  0.3892 -0.4016  0.3556
 1919SOL    HW123367  11.614   9.890  12.549 -0.9740  1.5610 -0.6095
 1919SOL    HW223368  11.656   9.904  12.693 -1.4017 -1.3030 -0.1586
 1920SOL     OW23369   5.844   0.904  11.042  0.5447 -0.3517 -0.0507
 1920SOL    HW123370   5.937   0.914  11.019  1.1326  0.7661  2.4239
 1920SOL    HW223371   5.822   0.987  11.086 -0.5480 -1.9633  2.6885
 1921SOL     OW23372   7.604   9.261   0.396  0.4872 -0.1044 -0.2901
 1921SOL    HW123373   7.581   9.182   0.446 -0.1819 -0.4567 -1.1342
 1921SOL    HW223374   7.698   9.270   0.408  0.2686  0.1602  1.5189
 1922SOL     OW23375   0.374  11.401   8.374 -0.5631 -0.0221 -0.1413
 1922SOL    HW123376   0.380  11.411   8.279  0.2598 -0.6175 -0.1667
 1922SOL    HW223377   0.325  11.478   8.403 -0.1387  0.5773 -0.9587
 1923SOL     OW23378   0.302  14.060   2.394  0.2238 -0.3727  0.0533
 1923SOL    HW123379   0.297  13.970   2.362 -0.7123 -0.8065  1.3367
 1923SOL    HW223380   0.340  14.052   2.482  0.8469  0.5759 -0.1088
 1924SOL     OW23381   7.953  12.696   6.195  0.0006  0.3572 -0.2213
 1924SOL    HW123382   7.866  12.732   6.180  0.3708  1.3490 -0.0612
 1924SOL    HW223383   7.988  12.681   6.107  1.4358  4.3807 -0.5211
 1925SOL     OW23384   7.253  13.132   3.789  0.0006  0.2307 -0.2847
 1925SOL    HW123385   7.209  13.071   3.730 -0.6420 -0.4637  0.8683
 1925SOL    HW223386   7.247  13.217   3.745 -2.9109  0.2708 -0.0570
 1926SOL     OW23387   4.148   2.056  13.778 -0.0669 -0.1770  0.2527
 1926SOL    HW123388   4.134   2.145  13.748 -0.7838 -0.3391  0.0781
 1926SOL    HW223389   4.148   2.062  13.874 -0.0382  0.0182  0.2407
 1927SOL     OW23390  11.915   0.678   2.407 -0.7845  0.6705 -0.6766
 1927SOL    HW123391  11.909   0.594   2.362 -1.8420  0.0243  0.5985
 1927SOL    HW223392  11.877   0.662   2.493 -0.9577  2.4397 -0.3798
 1928SOL     OW23393   8.286   0.631   2.540 -0.7369  0.5094  0.4563
 1928SOL    HW123394   8.216   0.645   2.476 -1.2486 -1.6936  0.4533
 1928SOL    HW223395   8.241   0.593   2.616  0.1754  1.0044  1.2558
 1929SOL     OW23396  10.356   6.294  13.392 -0.3129  0.4423  0.5043
 1929SOL    HW123397  10.280   6.343  13.362 -1.5451 -0.7986  1.4848
 1929SOL    HW223398  10.324   6.242  13.466  1.5352  0.0262  1.0719
 1930SOL     OW23399   5.665   8.488  13.154 -0.6317  0.2357 -0.7028
 1930SOL    HW123400   5.657   8.440  13.071  0.6295 -1.1082 -0.0807
 1930SOL    HW223401   5.717   8.565  13.131  0.9716 -0.8608 -0.9327
 1931SOL     OW23402   2.975   0.161   3.727 -0.0417 -0.1539 -0.0203
 1931SOL    HW123403   2.978   0.066   3.739 -0.3867 -0.3448 -1.2670
 1931SOL    HW223404   2.948   0.195   3.812  2.5025 -0.9626  1.2056
 1932SOL     OW23405  12.572   6.885  11.914 -0.0607 -0.2673  0.2053
 1932SOL    HW123406  12.479   6.869  11.902 -0.0549 -0.2863  0.1824
 1932SOL    HW223407  12.591   6.962  11.859  0.3222 -1.3692 -1.2809
 1933SOL     OW23408   0.982  11.386  11.207 -0.2768  0.7048  0.0041
 1933SOL    HW123409   0.891  11.399  11.181 -0.3607 -1.7446 -1.1537
 1933SOL    HW223410   1.032  11.441  11.146 -0.9305  1.6341  0.2866
 1934SOL     OW23411   1.619   7.246   8.555  0.0784  0.4022 -0.1007
 1934SOL    HW123412   1.560   7.233   8.629  0.6222 -0.9150  0.1168
 1934SOL    HW223413   1.664   7.163   8.544  0.8633  0.9361 -1.1784
 1935SOL     OW23414  12.432   7.444   8.730  0.6057 -0.0993 -0.3015
 1935SOL    HW123415  12.521   7.425   8.757  0.4411 -1.5629 -0.6987
 1935SOL    HW223416  12.395   7.495   8.803  1.7056  0.3897 -0.0729
 1936SOL     OW23417   7.675   1.088   5.997 -0.2114  0.5756 -0.4781
 1936SOL    HW123418   7.707   1.049   5.915 -0.8808 -1.1929  0.0436
 1936SOL    HW223419   7.755   1.106   6.047  0.1458 -1.3872 -0.2374
 1937SOL     OW23420   5.205   4.060   1.188 -0.2575  0.4296  0.1501
 1937SOL    HW123421   5.161   4.115   1.253 -1.0096 -0.9217  0.8405
 1937SOL    HW223422   5.298   4.067   1.210 -0.3564  1.2627  0.3329
 1938SOL     OW23423   6.850   3.113   3.829  0.5359  0.2206  0.6757
 1938SOL    HW123424   6.946   3.110   3.834  0.6779 -0.2224 -1.3056
 1938SOL    HW223425   6.821   3.041   3.885  1.4455 -0.5880  0.1384
 1939SOL     OW23426   4.105  13.180   5.245 -0.0887 -0.1976  0.8959
 1939SOL    HW123427   4.141  13.205   5.160  1.2932 -0.0271  1.5156
 1939SOL    HW223428   4.055  13.257   5.274  1.0071  0.4749  1.0752
 1940SOL     OW23429   3.622   5.365  11.665 -0.0004  0.3465 -0.1168
 1940SOL    HW123430   3.714   5.383  11.646  0.5268 -1.1081  0.8793
 1940SOL    HW223431   3.620   5.274  11.692 -1.7703  0.3112 -0.2143
 1941SOL     OW23432  13.348   3.901  13.853  0.4766  0.1246 -0.2609
 1941SOL    HW123433  13.396   3.844  13.792 -1.7090 -1.9190 -0.2169
 1941SOL    HW223434  13.324   3.843  13.925 -1.6173  1.1463 -0.0720
 1942SOL     OW23435   1.178   1.172   9.168 -0.4758 -0.3359  0.0646
 1942SOL    HW123436   1.191   1.077   9.173  1.0171 -0.4058 -3.1820
 1942SOL    HW223437   1.267   1.208   9.164 -1.0461  1.0947 -0.1776
 1943SOL     OW23438  10.155   9.126  10.512 -0.3687  0.1820  0.0067
 1943SOL    HW123439  10.207   9.203  10.534 -1.9189  0.4368  3.4456
 1943SOL    HW223440  10.069   9.161  10.486 -0.5053 -0.3585 -0.2940
 1944SOL     OW23441   2.824   1.487   8.796  0.2977 -0.2955 -0.1169
 1944SOL    HW123442   2.792   1.409   8.841  1.2234  0.6945  2.4390
 1944SOL    HW223443   2.758   1.554   8.814  0.7882  0.1685 -0.0189
 1945SOL     OW23444   9.183  11.365   7.567  0.3992 -0.4447 -0.2129
 1945SOL    HW123445   9.211  11.442   7.518  0.6155 -1.3218 -1.5380
 1945SOL    HW223446   9.088  11.365   7.560  0.3967 -0.2845 -0.1807
 1946SOL     OW23447  10.524   8.054   0.919 -0.1620 -0.0016  0.3310
 1946SOL    HW123448  10.558   8.092   1.000  0.3366 -0.4146  0.3257
 1946SOL    HW223449  10.435   8.087   0.912 -0.0656  0.3769  0.8283
 1947SOL     OW23450   8.477  11.388   7.629 -0.2951  1.0634 -0.8881
 1947SOL    HW123451   8.468  11.458   7.564 -1.0352  1.8677  0.0542
 1947SOL    HW223452   8.390  11.349   7.635 -0.3428  1.2742 -0.0871
 1948SOL     OW23453   3.439   2.432  12.977 -0.3280  0.1039 -0.4763
 1948SOL    HW123454   3.360   2.486  12.973 -0.0691  0.5373  0.2151
 1948SOL    HW223455   3.448   2.409  13.070  0.6483  0.4835 -0.4731
 1949SOL     OW23456   2.347  12.913   2.880  0.4711  0.8242  0.1960
 1949SOL    HW123457   2.380  12.855   2.948  2.5989  1.2193 -0.4488
 1949SOL    HW223458   2.419  12.973   2.862 -0.1342  0.9241 -2.2026
 1950SOL     OW23459   2.564   8.022  12.779  0.3958  0.3595 -0.3793
 1950SOL    HW123460   2.496   8.074  12.737 -0.3966 -0.7478 -0.5187
 1950SOL    HW223461   2.583   7.952  12.717 -0.4291 -1.0162  0.8624
 1951SOL     OW23462   4.606   0.944   8.835 -0.1292  0.2323  0.8937
 1951SOL    HW123463   4.536   0.946   8.769 -0.9046 -0.3440  1.6696
 1951SOL    HW223464   4.670   0.882   8.800 -0.1174  0.5705  0.2956
 1952SOL     OW23465   7.484  13.801   4.490  0.1981  0.1762 -0.1788
 1952SOL    HW123466   7.572  13.766   4.480 -0.4638 -1.1302 -1.9693
 1952SOL    HW223467   7.485  13.882   4.439  0.4629  0.3440  0.0934
 1953SOL     OW23468   9.367   4.904   9.466 -0.3246  0.5640 -0.3652
 1953SOL    HW123469   9.332   4.817   9.484 -0.0124  0.1371 -1.7880
 1953SOL    HW223470   9.460   4.898   9.487 -0.3386  0.6088 -0.2885
 1954SOL     OW23471  13.698   1.754   9.072  0.0105  0.0586  0.1014
 1954SOL    HW123472  13.638   1.680   9.085 -0.1806 -0.3940 -2.7866
 1954SOL    HW223473  13.643   1.822   9.032  0.6251  1.0763  0.9383
 1955SOL     OW23474   5.662   1.419  10.171 -0.2447 -0.3282  0.9076
 1955SOL    HW123475   5.697   1.506  10.186  1.8574 -0.8273 -0.6950
 1955SOL    HW223476   5.712   1.362  10.229 -0.0168 -0.7541  0.3019
 1956SOL     OW23477  12.913   7.759   2.695 -0.2259  0.1386 -0.0298
 1956SOL    HW123478  13.003   7.771   2.663 -0.0808 -0.7940  0.0014
 1956SOL    HW223479  12.862   7.745   2.615 -0.2289 -0.0260  0.0019
 1957SOL     OW23480  10.696  12.187   7.439 -0.5377  0.3412 -0.3004
 1957SOL    HW123481  10.765  12.139   7.393 -1.1690 -1.4291  0.4778
 1957SOL    HW223482  10.742  12.240   7.504  0.1834  0.7063 -1.0923
 1958SOL     OW23483   8.513   9.802   9.236  0.6886  0.2732 -0.0592
 1958SOL    HW123484   8.570   9.783   9.310 -0.5951  0.4610  1.0214
 1958SOL    HW223485   8.426   9.772   9.265  0.4737 -1.4109 -2.2052
 1959SOL     OW23486   8.277  11.081   5.607 -0.2342 -0.4084 -0.1293
 1959SOL    HW123487   8.365  11.044   5.595 -0.6205 -1.4222  0.0981
 1959SOL    HW223488   8.242  11.035   5.683 -0.6793  0.5593  0.2791
 1960SOL     OW23489   8.278   4.032   2.146  0.2456  0.3154 -0.6302
 1960SOL    HW123490   8.276   4.055   2.238  0.4952 -2.9493  0.3179
 1960SOL    HW223491   8.187   4.009   2.125  0.5776 -1.2532 -0.4652
 1961SOL     OW23492  11.393   3.357   7.348  0.2963  0.0075 -0.6626
 1961SOL    HW123493  11.445   3.289   7.390 -0.3708 -0.1143 -0.0254
 1961SOL    HW223494  11.391   3.429   7.411 -2.7043 -1.0705  0.6332
 1962SOL     OW23495  11.579   3.654   6.138 -0.0619 -0.2010 -0.6091
 1962SOL    HW123496  11.512   3.722   6.136 -0.0179 -0.0817  0.9846
 1962SOL    HW223497  11.549   3.589   6.074 -0.4675  0.9563 -1.6205
 1963SOL     OW23498  10.051   6.112   1.762 -0.1905 -0.0308  0.1356
 1963SOL    HW123499  10.043   6.171   1.837 -0.4357  0.1094 -0.0020
 1963SOL    HW223500  10.138   6.073   1.773 -0.8039 -1.1481  1.3220
 1964SOL     OW23501   4.351   1.026   4.033  0.1109 -0.0568  0.2315
 1964SOL    HW123502   4.365   1.079   4.112  1.5069 -2.5914  1.8211
 1964SOL    HW223503   4.423   0.964   4.033 -1.5502 -2.1192 -1.3663
 1965SOL     OW23504   4.135  12.329   7.893 -0.2627 -0.7610 -0.0302
 1965SOL    HW123505   4.117  12.421   7.913 -1.2002 -1.1396  0.9758
 1965SOL    HW223506   4.212  12.331   7.837  1.6002  0.4962  2.4045
 1966SOL     OW23507  12.701   1.599   4.816 -0.4112  0.4978 -0.0825
 1966SOL    HW123508  12.743   1.526   4.771  0.0741 -0.6490  2.0732
 1966SOL    HW223509  12.626   1.621   4.762 -0.4271 -1.4497 -0.9326
 1967SOL     OW23510   9.210  12.257   2.492  0.3737  0.2143  0.3116
 1967SOL    HW123511   9.233  12.278   2.401  0.4386 -1.5729 -0.1215
 1967SOL    HW223512   9.212  12.341   2.537 -0.0306  1.2125 -1.4191
 1968SOL     OW23513   6.682   5.584   4.171  0.1535 -0.2716 -0.1029
 1968SOL    HW123514   6.715   5.496   4.191  1.6192  0.0267 -1.0721
 1968SOL    HW223515   6.600   5.590   4.219  0.0587 -2.1463  0.0415
 1969SOL     OW23516   7.539   4.136  12.181 -0.0121  0.5603 -0.5315
 1969SOL    HW123517   7.592   4.160  12.257 -0.0011 -0.3662 -0.2323
 1969SOL    HW223518   7.566   4.197  12.112  0.3750  1.0500  0.0453
 1970SOL     OW23519   4.572   9.529   2.550 -0.1831 -0.4259  0.2814
 1970SOL    HW123520   4.579   9.590   2.476  0.0861  2.5423  2.5503
 1970SOL    HW223521   4.663   9.513   2.576 -0.2888 -1.1315  0.2191
 1971SOL     OW23522   8.080   8.026   1.610  0.3038 -0.4979 -0.1306
 1971SOL    HW123523   8.076   7.931   1.622  0.5075 -0.5760 -0.6621
 1971SOL    HW223524   8.168   8.043   1.575 -0.1847 -0.2649 -1.2923
 1972SOL     OW23525   1.956  12.914   9.420 -0.3746 -0.3382  0.2270
 1972SOL    HW123526   2.050  12.931   9.415 -0.7609  1.6239 -1.5911
 1972SOL    HW223527   1.950  12.820   9.439  1.9113 -0.3233  1.4183
 1973SOL     OW23528   3.352  13.264   3.619 -0.3875 -0.1702  0.4513
 1973SOL    HW123529   3.298  13.318   3.562 -0.8758 -0.4065  0.6881
 1973SOL    HW223530   3.342  13.175   3.584 -0.5160 -0.2821  0.7704
 1974SOL     OW23531   9.493   7.011   2.155  0.5077 -0.1976 -0.2876
 1974SOL    HW123532   9.494   7.094   2.202  2.7276 -0.6452  0.5776
 1974SOL    HW223533   9.448   6.950   2.214  2.1163 -0.4399  0.7511
 1975SOL     OW23534   9.411   9.589   4.942 -0.0253 -0.4620  0.1226
 1975SOL    HW123535   9.445   9.562   4.857  1.7926  2.0099 -0.0271
 1975SOL    HW223536   9.428   9.514   4.999  0.2002 -1.5468 -1.3115
 1976SOL     OW23537   8.372  10.023   2.652 -0.1035 -0.0311 -0.1621
 1976SOL    HW123538   8.457  10.009   2.612  0.4662 -0.5230  1.1549
 1976SOL    HW223539   8.309  10.000   2.583  0.8306 -0.7349 -0.8062
 1977SOL     OW23540   3.137   1.070  10.993 -0.2385  0.7289  0.2366
 1977SOL    HW123541   3.131   1.155  10.949  2.0091  0.5358 -0.6121
 1977SOL    HW223542   3.188   1.087  11.072 -0.1588  0.2423  0.2942
 1978SOL     OW23543   8.751   3.313  12.254 -0.1505 -0.2320 -0.0973
 1978SOL    HW123544   8.773   3.220  12.254  0.1519 -0.1683  0.8799
 1978SOL    HW223545   8.772   3.343  12.343 -0.6309  0.6761 -0.2776
 1979SOL     OW23546   5.836  12.630  13.170 -0.7021 -0.1805  0.4011
 1979SOL    HW123547   5.906  12.603  13.111 -0.6215  1.6056 -0.4057
 1979SOL    HW223548   5.755  12.614  13.121 -0.6199  1.6794 -0.4576
 1980SOL     OW23549   1.744   7.473  12.161  0.3794 -0.3671  0.6680
 1980SOL    HW123550   1.691   7.393  12.157 -0.5663  0.3147 -1.3757
 1980SOL    HW223551   1.789   7.476  12.076  1.3025  0.7053  1.1652
 1981SOL     OW23552  11.728   7.106   6.846  0.1245  0.5036  0.2180
 1981SOL    HW123553  11.760   7.018   6.865 -0.5688  0.4956  1.4526
 1981SOL    HW223554  11.795   7.165   6.879  0.1674  0.4534  0.2194
 1982SOL     OW23555  13.327  12.921   6.987  0.2840  0.4314 -0.2597
 1982SOL    HW123556  13.281  13.005   6.979  1.2186  0.8209 -2.0255
 1982SOL    HW223557  13.318  12.897   7.079 -2.4873  1.0284 -0.2905
 1983SOL     OW23558  12.712  11.834   2.861  0.2324 -0.1734 -0.1814
 1983SOL    HW123559  12.741  11.804   2.775  2.1284 -0.0241  0.3430
 1983SOL    HW223560  12.736  11.763   2.920  0.6252  0.4581  0.4471
 1984SOL     OW23561   7.144   4.896  11.736  0.2981 -0.3452  0.4344
 1984SOL    HW123562   7.177   4.810  11.761  0.6203 -0.2329  0.4019
 1984SOL    HW223563   7.053   4.897  11.766  0.5237 -0.4029  1.1496
 1985SOL     OW23564   6.002   6.297  12.994  0.3237 -0.5043  0.3376
 1985SOL    HW123565   5.930   6.350  12.959 -0.0732 -0.8621  0.6127
 1985SOL    HW223566   6.069   6.301  12.926 -0.2492 -0.7896 -0.2600
 1986SOL     OW23567   0.566   4.336  10.321 -0.2572 -0.3440 -0.0050
 1986SOL    HW123568   0.561   4.268  10.388 -1.9258 -0.0579  0.1890
 1986SOL    HW223569   0.502   4.401  10.348  1.0117  1.1389 -0.4110
 1987SOL     OW23570   1.722  14.010  12.610  0.1484 -0.5011  0.0328
 1987SOL    HW123571   1.702  13.946  12.677 -4.6334  1.2940  0.7779
 1987SOL    HW223572   1.681  13.975  12.530 -4.2257  1.9203  0.8407
 1988SOL     OW23573   6.016   2.188   0.730 -0.1656  0.1878  0.0106
 1988SOL    HW123574   5.962   2.139   0.668 -0.0211  0.8714 -0.6587
 1988SOL    HW223575   6.061   2.254   0.677  2.4299 -1.2166  0.3085
 1989SOL     OW23576  13.419   9.706  13.808  0.2022 -0.3159 -0.5685
 1989SOL    HW123577  13.370   9.772  13.857  0.8931 -0.0434 -0.2279
 1989SOL    HW223578  13.390   9.717  13.717  0.4151  0.5555 -0.5364
 1990SOL     OW23579   1.993  10.900   4.927  0.3783  0.0897  0.2328
 1990SOL    HW123580   2.047  10.852   4.865  1.0740  2.0485 -0.7445
 1990SOL    HW223581   1.915  10.924   4.877  1.0864  1.9592 -0.0403
 1991SOL     OW23582   8.916  10.092  11.268  0.3602  0.2591  0.1741
 1991SOL    HW123583   8.931  10.175  11.223 -0.0850  0.7440  0.9006
 1991SOL    HW223584   8.839  10.055  11.226  0.5983  0.1794 -0.1950
 1992SOL     OW23585  13.742   5.396   8.764  0.0313 -0.2240 -0.2731
 1992SOL    HW123586  13.802   5.389   8.690 -0.7889 -0.3798 -0.9352
 1992SOL    HW223587  13.729   5.306   8.794  0.8871 -0.1047  0.5051
 1993SOL     OW23588   0.282   3.622  11.693  0.3615  0.3455  0.1432
 1993SOL    HW123589   0.310   3.562  11.624  0.8857 -0.2386  0.8495
 1993SOL    HW223590   0.352   3.686  11.699  0.2273  0.5054  0.0049
 1994SOL     OW23591   5.490  11.269  12.849  0.2900 -0.3382 -0.0109
 1994SOL    HW123592   5.422  11.323  12.889  0.7612  0.4058 -0.1921
 1994SOL    HW223593   5.495  11.191  12.904 -0.0899  0.0056  0.5164
 1995SOL     OW23594   4.771   0.730   1.308 -0.1284  0.6220  0.0203
 1995SOL    HW123595   4.816   0.660   1.355  1.1396  0.8038 -0.8641
 1995SOL    HW223596   4.791   0.809   1.359  2.4741  1.0589 -1.4880
 1996SOL     OW23597   5.217   3.223   7.096 -0.1336  0.1083  0.0860
 1996SOL    HW123598   5.141   3.275   7.070  0.7021  1.2891 -0.0851
 1996SOL    HW223599   5.240   3.258   7.182  0.3387 -0.1135  0.0481
 1997SOL     OW23600   3.440   0.988  10.156 -0.1123 -0.0096  0.3932
 1997SOL    HW123601   3.378   0.945  10.097 -0.0787  0.3500  0.0948
 1997SOL    HW223602   3.429   1.081  10.139  1.7521  0.0234 -0.9696
 1998SOL     OW23603  13.655   1.166   8.006  0.1241 -0.2584 -0.0208
 1998SOL    HW123604  13.647   1.225   7.931  1.6690 -0.4584 -0.3907
 1998SOL    HW223605  13.710   1.213   8.068 -2.0199  0.3542  1.5305
 1999SOL     OW23606  12.932   1.408   3.530 -0.4335  0.0552 -0.2949
 1999SOL    HW123607  12.952   1.501   3.520 -3.4472  0.8695  0.2761
 1999SOL    HW223608  12.872   1.389   3.458 -0.3552 -1.2939 -0.0184
 2000SOL     OW23609   5.450  11.361   6.054  0.1355 -0.0741 -0.8413
 2000SOL    HW123610   5.524  11.406   6.095 -0.2473 -1.4649  1.5847
 2000SOL    HW223611   5.490  11.308   5.985  1.4406 -0.6362  0.2778
 2001SOL     OW23612   2.731   5.226   4.644  0.0196 -0.1851 -0.5510
 2001SOL    HW123613   2.737   5.246   4.738  0.2176  1.3175 -0.8580
 2001SOL    HW223614   2.665   5.287   4.611  0.9116  0.2362 -1.6146
 2002SOL     OW23615   6.599  12.481  11.990  0.1485 -0.2309  0.1683
 2002SOL    HW123616   6.643  12.397  12.006  0.6701 -0.1062 -0.5388
 2002SOL    HW223617   6.660  12.529  11.934 -0.1062  0.6585  0.6309
 2003SOL     OW23618  12.367   1.923   4.175 -0.5092 -0.0052  0.0791
 2003SOL    HW123619  12.455   1.903   4.143 -0.9750 -1.0374 -0.6204
 2003SOL    HW223620  12.381   1.952   4.266  0.7394  2.0104 -0.6774
 2004SOL     OW23621   4.203   7.189   6.098  0.3163 -0.2433 -0.1305
 2004SOL    HW123622   4.138   7.125   6.128 -0.5757  0.0589 -1.3592
 2004SOL    HW223623   4.239   7.150   6.018 -0.2622  0.7881 -0.9106
 2005SOL     OW23624   7.503  13.329   2.757 -0.3730 -0.0602 -0.3357
 2005SOL    HW123625   7.535  13.341   2.847 -1.7291  0.0069  0.1725
 2005SOL    HW223626   7.428  13.388   2.751  0.5973  1.0547 -2.0330
 2006SOL     OW23627  11.451   6.756  14.023 -0.1722  0.0004 -0.4365
 2006SOL    HW123628  11.514   6.794  14.083  1.7296  0.2614 -2.4786
 2006SOL    HW223629  11.459   6.661  14.036 -1.3593  0.0713  1.1708
 2007SOL     OW23630   2.490   1.938   8.919 -0.3159  0.3238 -0.0550
 2007SOL    HW123631   2.569   1.965   8.968  1.7464 -2.5418 -1.5397
 2007SOL    HW223632   2.430   1.908   8.987  1.3795 -0.9484  0.9783
 2008SOL     OW23633   8.165   2.626  10.296 -0.0637 -0.3382 -0.0247
 2008SOL    HW123634   8.097   2.591  10.237  0.0414  0.1196 -0.4277
 2008SOL    HW223635   8.133   2.713  10.320  0.9203  0.3758 -1.1628
 2009SOL     OW23636  13.597  12.626   7.690  0.0284  0.2411 -0.2707
 2009SOL    HW123637  13.672  12.619   7.630 -1.3832 -1.4395 -1.9472
 2009SOL    HW223638  13.637  12.632   7.777  2.1197 -1.0269 -1.0648
 2010SOL     OW23639   7.333   4.118  11.423  0.2275  0.6009  0.4024
 2010SOL    HW123640   7.358   4.033  11.387  0.5180 -1.2280  4.4118
 2010SOL    HW223641   7.245   4.104  11.457  0.3508  1.8612  1.2889
 2011SOL     OW23642   6.832   9.136   1.439 -0.4622 -0.0063  0.5470
 2011SOL    HW123643   6.833   9.196   1.364  2.3501  2.6041  2.4100
 2011SOL    HW223644   6.773   9.177   1.501  0.3298  0.0598  1.2720
 2012SOL     OW23645   1.939  10.308   6.778  0.3960  0.3354 -0.1812
 2012SOL    HW123646   1.953  10.352   6.693  1.6847  2.6498  1.1297
 2012SOL    HW223647   1.844  10.304   6.787  0.2395  0.5873 -1.4524
 2013SOL     OW23648   5.269  13.346   1.904 -0.5563 -0.0414 -0.0830
 2013SOL    HW123649   5.297  13.411   1.839 -1.4016  1.1637  0.7232
 2013SOL    HW223650   5.313  13.371   1.984 -0.7685 -0.5595  0.2000
 2014SOL     OW23651   6.303   0.601   9.958 -0.0035 -0.4425  0.2636
 2014SOL    HW123652   6.238   0.569   9.895 -0.6225  2.8893 -1.0146
 2014SOL    HW223653   6.387   0.591   9.913 -0.1555 -0.4855 -0.0146
 2015SOL     OW23654   9.597   9.014   1.375  0.2227 -0.1957 -0.2529
 2015SOL    HW123655   9.643   9.043   1.454  1.7447 -0.5369 -0.9638
 2015SOL    HW223656   9.667   8.989   1.315 -0.7597  2.3483 -2.6509
 2016SOL     OW23657   3.285   0.138   1.679  0.4690 -0.2610 -0.1214
 2016SOL    HW123658   3.210   0.089   1.646 -0.2940  1.1232 -0.5292
 2016SOL    HW223659   3.353   0.072   1.692 -0.5204 -1.4144 -0.6106
 2017SOL     OW23660   7.472   2.822   5.795 -0.3337 -0.0492 -0.9170
 2017SOL    HW123661   7.423   2.872   5.730 -1.5568  0.3328  0.2414
 2017SOL    HW223662   7.404   2.778   5.847  0.5201  0.6718  0.8922
 2018SOL     OW23663  10.932   9.896   3.667 -0.2054 -0.2297  0.2045
 2018SOL    HW123664  10.906   9.957   3.598  0.9492 -1.2050 -1.1380
 2018SOL    HW223665  10.946   9.952   3.743  0.8724  1.2195 -0.9902
 2019SOL     OW23666   0.485   0.630  11.073 -0.7432 -0.4228 -0.2736
 2019SOL    HW123667   0.503   0.572  11.147  0.1096 -0.5421 -0.5668
 2019SOL    HW223668   0.408   0.680  11.101 -0.7291 -0.8057  0.4961
 2020SOL     OW23669   9.414   4.794   6.775 -0.2939  0.2343  0.2782
 2020SOL    HW123670   9.488   4.847   6.748 -0.1980  0.0884  0.2525
 2020SOL    HW223671   9.453   4.714   6.811 -0.3918  0.6168  1.2806
 2021SOL     OW23672   3.904   8.911   2.608  0.1451 -0.2792  0.1177
 2021SOL    HW123673   3.874   8.942   2.693  1.2340  0.6003  0.1968
 2021SOL    HW223674   3.979   8.855   2.629  0.0700 -0.5139 -0.2338
 2022SOL     OW23675  12.301   1.545  10.765 -0.2642  0.3697  0.0078
 2022SOL    HW123676  12.212   1.510  10.763 -0.5020  0.9579  0.0216
 2022SOL    HW223677  12.351   1.487  10.709 -1.1455  1.3569 -1.8728
 2023SOL     OW23678   4.134   8.576  10.064 -0.0552 -0.1887  0.3537
 2023SOL    HW123679   4.077   8.512  10.106 -1.6685  1.1902  0.3509
 2023SOL    HW223680   4.129   8.654  10.120  2.8682 -0.3907  1.0661
 2024SOL     OW23681   3.441  13.152   1.730 -0.4693 -0.6245  0.3285
 2024SOL    HW123682   3.409  13.149   1.820  1.1434  1.6992  1.0769
 2024SOL    HW223683   3.462  13.061   1.709 -0.5370 -1.1810  2.4296
 2025SOL     OW23684   2.850   9.624   5.429  0.1481 -0.7013  0.4977
 2025SOL    HW123685   2.865   9.694   5.492  0.0995 -1.1534  1.0202
 2025SOL    HW223686   2.921   9.634   5.365  0.9081 -0.9611  1.2799
 2026SOL     OW23687   4.514  13.232  12.523 -0.0692 -0.1768 -0.1706
 2026SOL    HW123688   4.608  13.219  12.534 -0.2444 -1.5323 -0.0704
 2026SOL    HW223689   4.497  13.211  12.431 -0.4967 -1.6657  0.2092
 2027SOL     OW23690   0.031  10.040   3.625 -0.0486  0.3033  0.6086
 2027SOL    HW123691   0.082  10.041   3.543  0.0966  0.2046  0.6976
 2027SOL    HW223692  -0.008  10.127   3.629  0.1388  0.3921  0.5542
 2028SOL     OW23693  13.572  10.728  13.909 -0.5696  0.6257  0.9920
 2028SOL    HW123694  13.539  10.649  13.953  2.2177 -1.3738 -0.2163
 2028SOL    HW223695  13.654  10.748  13.952  0.3790  0.8540 -0.8106
 2029SOL     OW23696  12.847   2.845   2.392  0.1306 -0.5310 -0.5113
 2029SOL    HW123697  12.800   2.888   2.463  2.2696  0.2724  0.5109
 2029SOL    HW223698  12.900   2.778   2.434  0.5298 -0.8575 -1.4926
 2030SOL     OW23699   5.850  12.080   5.320 -0.1710 -0.3017  0.1380
 2030SOL    HW123700   5.781  12.123   5.270 -0.7992 -1.1281  0.2750
 2030SOL    HW223701   5.817  11.992   5.335  0.7794 -0.6090  0.4867
 2031SOL     OW23702   9.027  12.737   4.431  0.0846 -0.0607 -0.4493
 2031SOL    HW123703   9.111  12.702   4.459  0.5215  0.2480 -1.3273
 2031SOL    HW223704   9.004  12.687   4.353 -0.1499  0.3873 -0.6765
 2032SOL     OW23705  13.653   2.154  12.985 -0.0443  0.5774 -0.3533
 2032SOL    HW123706  13.691   2.137  12.899 -1.1745  1.0046 -0.9424
 2032SOL    HW223707  13.600   2.232  12.974 -0.9946  0.0796  0.4850
 2033SOL     OW23708   0.944   6.477   0.505  0.0785  0.0245 -0.1559
 2033SOL    HW123709   0.860   6.464   0.549 -0.6747  0.0412 -1.5371
 2033SOL    HW223710   0.970   6.391   0.475  1.4794 -0.2996  1.7748
 2034SOL     OW23711  10.145  12.468   1.183  0.1718 -0.2728  0.6077
 2034SOL    HW123712  10.158  12.481   1.277  1.1558 -5.8744  1.6178
 2034SOL    HW223713  10.230  12.440   1.150 -0.3617  0.7015 -1.8219
 2035SOL     OW23714  13.734   3.776   9.271  0.2507  0.5922 -0.1923
 2035SOL    HW123715  13.711   3.840   9.204 -0.4951  0.3559 -0.1668
 2035SOL    HW223716  13.825   3.753   9.252 -0.9470 -2.2248 -3.4010
 2036SOL     OW23717   2.204  12.057   9.618  0.0373  0.2757  0.6714
 2036SOL    HW123718   2.168  11.969   9.604  2.5542 -0.4956 -1.8417
 2036SOL    HW223719   2.127  12.114   9.622 -1.5991 -1.7748  0.2605
 2037SOL     OW23720  10.674   7.818   0.803 -0.1547  0.1078 -0.1627
 2037SOL    HW123721  10.672   7.897   0.858 -1.8075 -0.6677  0.9725
 2037SOL    HW223722  10.690   7.747   0.864 -0.6672 -0.6474 -0.8968
 2038SOL     OW23723   9.077   1.204   2.840 -0.7352 -0.6095  0.1387
 2038SOL    HW123724   8.990   1.201   2.880 -0.0537 -0.5392  1.7091
 2038SOL    HW223725   9.136   1.170   2.908  0.9226  2.5544  0.4666
 2039SOL     OW23726   9.232   0.612  10.304 -0.2597 -0.1223  0.0718
 2039SOL    HW123727   9.237   0.549  10.375 -0.8732  0.1703  0.3852
 2039SOL    HW223728   9.319   0.611  10.264 -0.4608 -1.6631 -0.3719
 2040SOL     OW23729   6.657  13.424  13.443  0.5506 -0.1771 -0.3488
 2040SOL    HW123730   6.737  13.374  13.428  0.6565  0.1370 -0.8544
 2040SOL    HW223731   6.658  13.491  13.375  0.6663  0.8391  0.6298
 2041SOL     OW23732   4.371   7.639   2.509 -0.0894 -0.5520  0.3465
 2041SOL    HW123733   4.412   7.593   2.582  0.9355  0.2044  0.2863
 2041SOL    HW223734   4.363   7.729   2.540  1.0756 -0.0451 -0.7084
 2042SOL     OW23735  10.614   5.176   0.344 -0.0338 -0.2506  0.0390
 2042SOL    HW123736  10.634   5.083   0.335 -0.1416 -0.2199 -0.5336
 2042SOL    HW223737  10.634   5.213   0.258 -1.4579 -0.0095 -0.2091
 2043SOL     OW23738   5.175   2.822  13.192 -0.1166  0.0456 -0.0273
 2043SOL    HW123739   5.110   2.880  13.231  1.5390  0.0874  2.9843
 2043SOL    HW223740   5.181   2.749  13.253  2.0929 -0.3061 -0.5786
 2044SOL     OW23741   6.946  13.861   8.495  0.3524  0.2348  0.0283
 2044SOL    HW123742   7.022  13.815   8.530 -0.5227 -1.2827  0.0360
 2044SOL    HW223743   6.883  13.862   8.567  0.0170  0.6433 -0.2617
 2045SOL     OW23744   2.384  11.858  13.373  0.5055  0.0667  0.6565
 2045SOL    HW123745   2.432  11.941  13.366  2.3058 -1.0392 -0.9599
 2045SOL    HW223746   2.292  11.883  13.362  1.1349  1.6750 -1.9650
 2046SOL     OW23747   1.649  10.690   7.693  0.7144  0.3761  0.8630
 2046SOL    HW123748   1.631  10.772   7.741 -1.8293  0.3853  0.0605
 2046SOL    HW223749   1.613  10.622   7.750 -0.6349  0.2155 -0.1407
 2047SOL     OW23750  10.659  10.963   9.243  0.0350  0.5380  0.3351
 2047SOL    HW123751  10.708  10.984   9.322 -0.5290  1.1783  0.5211
 2047SOL    HW223752  10.613  10.882   9.264 -0.8524  1.1976  1.0078
 2048SOL     OW23753   1.331   4.838   4.847 -0.3450 -0.0223  0.3775
 2048SOL    HW123754   1.337   4.886   4.929  0.7676 -1.8068  1.4277
 2048SOL    HW223755   1.331   4.746   4.873  1.2059 -0.6823 -1.6497
 2049SOL     OW23756   6.051  12.648   1.186 -0.0008 -0.2522  0.8877
 2049SOL    HW123757   6.104  12.726   1.174 -0.8105  0.5102  2.1201
 2049SOL    HW223758   6.035  12.616   1.097  1.6350  0.0702  0.4383
 2050SOL     OW23759   7.164  11.569   6.655  0.2801  0.0216  0.3517
 2050SOL    HW123760   7.171  11.499   6.591  0.9535 -0.4002  0.8691
 2050SOL    HW223761   7.248  11.568   6.702 -0.3525  0.0150  1.5298
 2051SOL     OW23762   2.325   4.988   9.320  0.0749 -0.1164  0.1075
 2051SOL    HW123763   2.277   4.981   9.403 -0.6364 -1.4484 -0.3907
 2051SOL    HW223764   2.380   4.910   9.317  0.0297 -0.1208 -0.7126
 2052SOL     OW23765  11.874   9.964   7.743 -0.2528 -0.2082 -0.4474
 2052SOL    HW123766  11.797   9.914   7.718 -2.3151  1.4339  2.1239
 2052SOL    HW223767  11.857  10.052   7.709 -0.5990  0.6944  1.8692
 2053SOL     OW23768   1.379   6.128   8.718  0.4394  0.7275 -0.4263
 2053SOL    HW123769   1.357   6.138   8.625  2.0011 -1.0070 -1.0503
 2053SOL    HW223770   1.360   6.036   8.737  1.5979  0.6736  0.5506
 2054SOL     OW23771   2.853   4.500   8.563 -0.0406  0.4795  0.0097
 2054SOL    HW123772   2.930   4.483   8.618  1.4515  1.9805 -1.4703
 2054SOL    HW223773   2.836   4.593   8.575  1.1505  1.1766 -2.9248
 2055SOL     OW23774   9.334  13.505   1.916  0.0878 -0.5088  0.1527
 2055SOL    HW123775   9.303  13.462   1.836 -0.3785 -0.9057  0.5367
 2055SOL    HW223776   9.282  13.585   1.922  0.2921 -0.3579 -0.0648
 2056SOL     OW23777   3.327   3.577   8.355 -0.3695 -0.0656  0.5320
 2056SOL    HW123778   3.326   3.653   8.296 -1.1905  0.6206  1.3995
 2056SOL    HW223779   3.259   3.519   8.319 -0.9689  0.4152  0.8581
 2057SOL     OW23780  12.454   4.546  11.267 -0.1433  0.0030 -0.3833
 2057SOL    HW123781  12.546   4.521  11.279  0.3825  2.0139  0.1939
 2057SOL    HW223782  12.408   4.508  11.341  0.9002  1.9237  1.3534
 2058SOL     OW23783  10.560   7.214   5.876 -0.3470  1.0244  0.3026
 2058SOL    HW123784  10.511   7.140   5.912  2.0480 -1.9134 -2.0462
 2058SOL    HW223785  10.612   7.246   5.950 -0.9793 -0.0207  1.2255
 2059SOL     OW23786   3.467   2.575   7.945  0.8718 -0.1368 -0.3188
 2059SOL    HW123787   3.526   2.500   7.942  1.0020 -0.0089 -1.0572
 2059SOL    HW223788   3.405   2.559   7.873  0.0738 -0.2163  0.3741
 2060SOL     OW23789   7.339   3.376   9.943 -0.4634  0.1047  0.0150
 2060SOL    HW123790   7.260   3.402   9.991 -0.0129  0.9964  0.3042
 2060SOL    HW223791   7.313   3.299   9.893 -0.6684 -1.5793  2.5534
 2061SOL     OW23792   4.524  13.816   2.739  1.1518  0.7255 -0.0078
 2061SOL    HW123793   4.610  13.834   2.775  1.1137 -1.1406  1.1378
 2061SOL    HW223794   4.525  13.722   2.719 -0.6538  0.6246  0.1757
 2062SOL     OW23795  10.391  12.741   3.168 -0.5553  0.1074 -0.4600
 2062SOL    HW123796  10.450  12.727   3.094 -0.4520  0.4664 -0.4468
 2062SOL    HW223797  10.383  12.655   3.208  1.4562  0.3658  0.6586
 2063SOL     OW23798   1.035   5.178   1.166  0.2332  0.0672 -0.0447
 2063SOL    HW123799   1.127   5.201   1.157  0.2303 -0.4027 -1.5583
 2063SOL    HW223800   1.030   5.086   1.142 -0.6480  0.1231 -0.1246
 2064SOL     OW23801   2.539   4.181   2.756 -0.5128  0.1598 -0.0891
 2064SOL    HW123802   2.568   4.142   2.674 -0.6201 -1.1290  0.4692
 2064SOL    HW223803   2.595   4.259   2.766 -0.3925  0.2443 -1.2858
 2065SOL     OW23804   4.701   2.315  10.113 -0.2695 -0.1297  0.9141
 2065SOL    HW123805   4.754   2.394  10.127 -0.4279 -0.0554  1.0875
 2065SOL    HW223806   4.611   2.345  10.116 -0.3211 -0.0997 -0.2997
 2066SOL     OW23807  10.629   2.688  13.832 -0.7200 -0.5131  0.6999
 2066SOL    HW123808  10.610   2.780  13.851  1.5627  0.1534  0.1021
 2066SOL    HW223809  10.579   2.668  13.753 -1.1138  0.2768  0.7452
 2067SOL     OW23810  10.527   2.897   3.615  0.1712  0.3406 -0.1283
 2067SOL    HW123811  10.577   2.841   3.674  1.8035  0.4477 -1.3334
 2067SOL    HW223812  10.497   2.969   3.670 -0.8958 -1.0333  1.1729
 2068SOL     OW23813   1.140   5.917   5.705 -0.4053 -0.0163 -0.1304
 2068SOL    HW123814   1.196   5.927   5.628 -1.1018 -0.6013 -0.7270
 2068SOL    HW223815   1.056   5.887   5.670 -1.5057  2.0150  0.6231
 2069SOL     OW23816   4.539   9.781   6.173 -0.1574  0.0376  0.7769
 2069SOL    HW123817   4.467   9.823   6.221 -2.6150 -2.4466 -0.4523
 2069SOL    HW223818   4.562   9.705   6.226  1.5317  0.6900  1.0496
 2070SOL     OW23819   5.993  10.706  10.061 -0.0479  0.1637  0.1622
 2070SOL    HW123820   5.933  10.779  10.052  1.0186  1.1791  1.0001
 2070SOL    HW223821   6.055  10.734  10.129  0.8659 -1.1858 -0.0768
 2071SOL     OW23822   7.937   9.648  12.624  0.4433 -0.2284 -0.2827
 2071SOL    HW123823   7.946   9.743  12.635  1.7842 -0.4293  0.5188
 2071SOL    HW223824   8.026   9.615  12.624 -0.0274 -1.6535  1.0763
 2072SOL     OW23825  12.599  11.118   8.806 -0.4127 -0.1027  0.9610
 2072SOL    HW123826  12.531  11.184   8.792 -1.2084 -1.2286 -1.0253
 2072SOL    HW223827  12.668  11.141   8.744 -0.7363 -1.1107  0.1801
 2073SOL     OW23828  13.388   8.534  12.079 -0.2747 -0.1167 -0.1112
 2073SOL    HW123829  13.306   8.516  12.032 -0.1054  1.0966 -0.8942
 2073SOL    HW223830  13.363   8.531  12.172 -0.9242 -1.0242 -0.2907
 2074SOL     OW23831   8.207  13.997   6.054 -0.0033  0.2140  0.1237
 2074SOL    HW123832   8.115  14.007   6.078 -0.1736  0.9648 -0.8039
 2074SOL    HW223833   8.251  13.973   6.136 -1.1593 -1.0940  0.3900
 2075SOL     OW23834  11.227   1.748   2.004  0.0828  0.1716  0.5460
 2075SOL    HW123835  11.308   1.699   1.996  0.6871  1.1006  0.7836
 2075SOL    HW223836  11.230   1.812   1.932 -2.2372 -2.2000 -1.9067
 2076SOL     OW23837   6.141   2.987   9.510 -0.4779  0.0879  0.3102
 2076SOL    HW123838   6.145   3.048   9.583 -0.4255  0.5656 -0.0900
 2076SOL    HW223839   6.069   2.928   9.532  0.1554 -0.3654  1.2057
 2077SOL     OW23840   7.262  14.075   6.551 -0.2992  0.2066  0.3909
 2077SOL    HW123841   7.221  14.023   6.620  0.9247 -0.5139  0.6110
 2077SOL    HW223842   7.354  14.082   6.578 -0.2064  1.6068 -0.1739
 2078SOL     OW23843   8.542   3.243   0.387 -0.0087  0.3302 -0.2315
 2078SOL    HW123844   8.605   3.171   0.396 -1.3646 -0.8280  0.3169
 2078SOL    HW223845   8.581   3.315   0.436  0.0145 -0.9873  1.7980
 2079SOL     OW23846   5.592   4.537   3.784  0.5300 -0.2894 -0.0019
 2079SOL    HW123847   5.591   4.442   3.767 -1.4639 -0.5160  0.9779
 2079SOL    HW223848   5.677   4.566   3.753  1.2599 -2.4302 -0.2206
 2080SOL     OW23849   7.907  13.090  11.292  0.1322  0.3377 -0.1385
 2080SOL    HW123850   7.885  13.097  11.199  0.6602 -1.1299 -0.4079
 2080SOL    HW223851   7.926  13.180  11.319  0.6914  0.7036 -1.6390
 2081SOL     OW23852   9.437  12.682   5.690  0.1704 -0.5262 -0.5146
 2081SOL    HW123853   9.348  12.648   5.702 -0.2172  0.8561  0.9096
 2081SOL    HW223854   9.480  12.668   5.774 -0.0681  2.4416  0.2306
 2082SOL     OW23855   7.725   0.392  10.461 -0.2286  0.4276  0.1449
 2082SOL    HW123856   7.710   0.469  10.406 -2.2020  0.3266  0.4900
 2082SOL    HW223857   7.665   0.326  10.428 -1.1199  0.2001  2.0855
 2083SOL     OW23858  12.494   8.414  12.491 -0.1504  0.5138  0.1193
 2083SOL    HW123859  12.417   8.383  12.537 -1.0482  1.5831 -0.6224
 2083SOL    HW223860  12.465   8.430  12.401  1.7577 -2.3894 -1.1767
 2084SOL     OW23861  12.331  10.809  11.335  0.0917 -0.5632 -0.4392
 2084SOL    HW123862  12.419  10.772  11.350 -0.3197 -1.0458  0.9596
 2084SOL    HW223863  12.347  10.901  11.317  0.9088 -0.6685 -0.3202
 2085SOL     OW23864  13.162  12.315  10.169 -0.0718 -0.2375  0.0586
 2085SOL    HW123865  13.092  12.275  10.118  0.1638 -2.8039  1.5725
 2085SOL    HW223866  13.117  12.354  10.245 -0.0045 -0.4078  0.1855
 2086SOL     OW23867  11.284  12.035   8.143  0.5499  0.2977 -0.5038
 2086SOL    HW123868  11.233  12.009   8.066 -0.5259 -0.2765  0.3715
 2086SOL    HW223869  11.372  12.003   8.126 -0.0306 -1.1886 -0.8412
 2087SOL     OW23870  11.544   8.956  11.113  0.4648  0.1378  0.4787
 2087SOL    HW123871  11.566   8.914  11.197  1.7107  1.5325  0.8961
 2087SOL    HW223872  11.621   9.009  11.092  0.2084 -0.2233 -1.6078
 2088SOL     OW23873  12.650   5.029  11.045  0.3044  0.1875  0.0909
 2088SOL    HW123874  12.722   5.056  10.987 -0.0404 -0.1087 -0.4891
 2088SOL    HW223875  12.592   5.105  11.049 -0.1373 -0.0916 -0.7040
 2089SOL     OW23876   7.883  13.278  13.641 -0.4508  0.4132 -0.0386
 2089SOL    HW123877   7.971  13.258  13.673 -0.1416  0.0431 -1.0737
 2089SOL    HW223878   7.833  13.302  13.720  1.0233  2.3765  0.3825
 2090SOL     OW23879   7.001   5.880  12.572 -0.0053  0.1767  0.0245
 2090SOL    HW123880   7.090   5.880  12.609 -0.3104  0.5073  0.7778
 2090SOL    HW223881   6.989   5.790  12.540 -0.0332 -0.3779  1.4952
 2091SOL     OW23882  13.258   1.699   5.928 -0.6621  0.0467 -0.2450
 2091SOL    HW123883  13.223   1.686   5.840 -0.9086  0.1211 -0.1593
 2091SOL    HW223884  13.335   1.643   5.933 -0.4138  0.3531 -0.6494
 2092SOL     OW23885   3.439  13.107   9.639  0.1682  0.0795 -0.1673
 2092SOL    HW123886   3.387  13.066   9.709 -2.2158  0.4093 -1.6471
 2092SOL    HW223887   3.527  13.071   9.651 -0.8990 -2.3989  1.0313
 2093SOL     OW23888  12.372   3.640  10.571  0.7830 -0.8370 -0.4439
 2093SOL    HW123889  12.415   3.725  10.575  0.6246 -0.7748  0.0626
 2093SOL    HW223890  12.308   3.648  10.500  0.6876 -0.4945 -0.3183
 2094SOL     OW23891   7.352  12.951  11.364  0.3141  0.5561 -0.0268
 2094SOL    HW123892   7.315  12.872  11.325 -0.9231  0.8089  0.5855
 2094SOL    HW223893   7.374  12.925  11.454 -0.5446  1.0200  0.3285
 2095SOL     OW23894  13.560  11.769   4.675 -0.3840  0.1854 -0.0704
 2095SOL    HW123895  13.607  11.810   4.748  1.3518  1.7979 -1.9254
 2095SOL    HW223896  13.628  11.721   4.627 -1.6434 -1.5704 -0.1698
 2096SOL     OW23897  13.436   5.905   7.237 -0.1116  0.0016  0.2614
 2096SOL    HW123898  13.490   5.839   7.193  0.3994  1.1860 -0.9706
 2096SOL    HW223899  13.485   5.987   7.225 -2.7156  1.3727 -1.9657
 2097SOL     OW23900   4.525  10.659  13.233  0.3394  0.2182 -0.5077
 2097SOL    HW123901   4.576  10.598  13.286 -0.3185 -0.5135 -0.6939
 2097SOL    HW223902   4.482  10.715  13.297 -1.0988 -1.1756 -0.1752
 2098SOL     OW23903   6.125   1.513   2.285 -0.7844 -0.5298 -0.3554
 2098SOL    HW123904   6.200   1.542   2.233 -1.0760 -1.7368 -1.5216
 2098SOL    HW223905   6.088   1.594   2.322  0.2221  0.2253 -0.9583
 2099SOL     OW23906   2.440  12.996  10.269  0.0629 -0.5968 -0.0041
 2099SOL    HW123907   2.524  13.036  10.247  0.5132 -0.0049  2.4666
 2099SOL    HW223908   2.377  13.068  10.262  0.1676 -0.4639  0.3955
 2100SOL     OW23909   8.209  10.657   1.515  0.5832  0.1001 -0.5400
 2100SOL    HW123910   8.166  10.697   1.439  1.0579  2.4222  0.3182
 2100SOL    HW223911   8.140  10.608   1.558 -0.1595  0.2958 -1.4613
 2101SOL     OW23912  13.366  13.627   6.868  0.0789 -0.1093  0.1028
 2101SOL    HW123913  13.357  13.674   6.785  0.3754  0.7022  0.5286
 2101SOL    HW223914  13.360  13.534   6.843 -0.3563  0.1370 -0.7583
 2102SOL     OW23915   3.244  13.251   5.375 -0.3029 -0.2649 -0.0052
 2102SOL    HW123916   3.330  13.293   5.376 -0.6689  0.6591 -2.1351
 2102SOL    HW223917   3.209  13.266   5.462  1.0338  0.7921  0.3831
 2103SOL     OW23918   2.939  12.988  12.445 -0.5616 -0.1137  0.2043
 2103SOL    HW123919   2.860  13.041  12.455 -0.9916 -0.9098  1.2221
 2103SOL    HW223920   2.998  13.021  12.513 -0.4500 -0.2829  0.1906
 2104SOL     OW23921   1.734   5.429   7.051 -0.1033 -0.7403  0.1178
 2104SOL    HW123922   1.817   5.421   7.098 -0.2691  1.7666  0.9652
 2104SOL    HW223923   1.759   5.431   6.958  1.0276  1.6882  0.4039
 2105SOL     OW23924   1.630   1.485   2.528  0.2227  0.5708 -0.6006
 2105SOL    HW123925   1.651   1.429   2.602  0.0772  0.2299 -0.8143
 2105SOL    HW223926   1.616   1.425   2.455 -2.5433  0.6427 -0.2536
 2106SOL     OW23927   8.895   4.730   4.815 -0.9156 -0.0164 -0.2305
 2106SOL    HW123928   8.969   4.697   4.866  0.3413  0.2370 -1.8244
 2106SOL    HW223929   8.935   4.778   4.743 -2.6526  1.6673 -0.1682
 2107SOL     OW23930   3.101  12.282   1.024 -0.4216  0.0350 -0.1458
 2107SOL    HW123931   3.189  12.321   1.031 -0.9415  1.4794 -1.1674
 2107SOL    HW223932   3.066  12.288   1.113  0.6946 -1.0864  0.4097
 2108SOL     OW23933   0.856   8.771  11.261 -0.2774  0.4197  0.1465
 2108SOL    HW123934   0.875   8.677  11.263 -0.8868  0.2811 -0.2318
 2108SOL    HW223935   0.931   8.812  11.305  0.2458 -0.2001 -0.1495
 2109SOL     OW23936   0.759  13.599   8.350  0.4242 -0.1027  0.1437
 2109SOL    HW123937   0.845  13.572   8.381  1.2785 -1.9498 -3.2466
 2109SOL    HW223938   0.698  13.536   8.388  1.1178 -1.0556 -0.2954
 2110SOL     OW23939   2.481  13.490  12.450  0.3934  0.3597 -0.0460
 2110SOL    HW123940   2.400  13.540  12.438  0.7173  1.2000  1.0662
 2110SOL    HW223941   2.551  13.551  12.426  0.7438  0.0354  0.1280
 2111SOL     OW23942  11.091   6.252   1.293 -0.0930  0.4253 -0.3784
 2111SOL    HW123943  11.027   6.256   1.364  0.3605 -0.7835  0.1410
 2111SOL    HW223944  11.116   6.159   1.289  0.5459  0.6272 -1.5322
 2112SOL     OW23945  13.163   0.985   5.229  0.0004 -0.2641  0.2875
 2112SOL    HW123946  13.096   0.966   5.295 -1.0774  0.9428 -0.4038
 2112SOL    HW223947  13.239   0.935   5.257 -0.0448  1.0290  3.0963
 2113SOL     OW23948  12.384   6.506   4.991 -0.1573  0.1431 -0.7907
 2113SOL    HW123949  12.382   6.443   4.920 -0.0612 -0.7487 -0.0169
 2113SOL    HW223950  12.354   6.458   5.068 -1.4954  1.4156 -0.4623
 2114SOL     OW23951  12.871   2.209   6.824 -0.0716 -0.2260 -0.0733
 2114SOL    HW123952  12.784   2.202   6.785  0.0578  1.2164 -0.6625
 2114SOL    HW223953  12.878   2.131   6.879 -1.3195 -0.9044 -0.8216
 2115SOL     OW23954   3.740   6.214  12.710  0.0383 -0.3021  0.3887
 2115SOL    HW123955   3.708   6.137  12.758  0.8664  0.1292  1.6875
 2115SOL    HW223956   3.835   6.211  12.720  0.1965  0.0822 -0.8386
 2116SOL     OW23957   7.329   8.998   1.509 -0.1813 -0.3394 -0.2688
 2116SOL    HW123958   7.321   8.941   1.433  1.8688 -1.7697  0.4708
 2116SOL    HW223959   7.257   8.973   1.567 -0.9819 -0.1370 -1.1549
 2117SOL     OW23960   5.798   2.214  13.663 -0.2900 -0.3419 -0.4403
 2117SOL    HW123961   5.880   2.262  13.660 -0.4439  0.1882  1.8485
 2117SOL    HW223962   5.808   2.152  13.735 -1.2788 -1.5297 -1.2585
 2118SOL     OW23963   3.686   6.049   6.627 -0.4086 -0.1608  0.5579
 2118SOL    HW123964   3.775   6.031   6.597 -0.3380  0.9397  0.0559
 2118SOL    HW223965   3.692   6.134   6.671 -1.3780  0.4335 -0.3981
 2119SOL     OW23966  11.021   7.111   4.240 -0.0310  0.5993 -0.3848
 2119SOL    HW123967  11.033   7.118   4.145  0.3045  1.8574 -0.2736
 2119SOL    HW223968  11.032   7.201   4.272  0.6426  0.0804  0.9296
 2120SOL     OW23969   4.952   9.969   7.286  0.8711  0.5967  0.1265
 2120SOL    HW123970   4.880  10.031   7.292  0.2430  0.3591 -3.2407
 2120SOL    HW223971   4.912   9.887   7.259  2.0137 -0.6539  1.9524
 2121SOL     OW23972  10.128   3.092   4.346 -0.3921  1.0800  0.1390
 2121SOL    HW123973  10.062   3.159   4.335 -2.2370 -0.9642 -2.6874
 2121SOL    HW223974  10.173   3.088   4.262  0.2897 -0.5809  0.5322
 2122SOL     OW23975   8.747   6.355  13.847  0.6634  0.1376 -0.7943
 2122SOL    HW123976   8.661   6.395  13.850  0.1474 -0.9501 -0.2638
 2122SOL    HW223977   8.738   6.283  13.784  0.4955 -1.4130  0.9062
 2123SOL     OW23978  10.625   8.455  13.037  0.4495 -0.6487 -0.3424
 2123SOL    HW123979  10.529   8.456  13.034  0.4487 -1.2825 -0.8531
 2123SOL    HW223980  10.646   8.381  13.093  0.6393 -0.7922 -0.6011
 2124SOL     OW23981   6.306   6.788   1.397  0.2948  0.3568  0.3308
 2124SOL    HW123982   6.214   6.814   1.399 -0.0106 -0.4599 -1.2614
 2124SOL    HW223983   6.318   6.748   1.311  1.7251 -1.0536  1.1188
 2125SOL     OW23984  12.936   7.362   2.722 -0.1801  0.3379  0.3478
 2125SOL    HW123985  12.873   7.295   2.748 -0.7612  0.6562 -0.2141
 2125SOL    HW223986  12.909   7.440   2.771 -0.4524  0.5730 -0.1721
 2126SOL     OW23987   4.992   6.806   6.784  0.0415 -0.8643  0.3559
 2126SOL    HW123988   5.061   6.762   6.834 -1.1104 -1.9696  1.0211
 2126SOL    HW223989   5.008   6.780   6.693  1.3234  0.0395  0.2936
 2127SOL     OW23990  12.902   3.361  13.991  0.1935 -0.9610 -0.6064
 2127SOL    HW123991  12.930   3.287  13.937 -0.2499 -0.9644 -0.8390
 2127SOL    HW223992  12.889   3.323  14.078  0.3952 -1.0680 -0.6234
 2128SOL     OW23993  13.417   1.385   0.092 -0.2582  0.0973 -0.6798
 2128SOL    HW123994  13.331   1.352   0.116 -1.4678  1.7116 -2.4617
 2128SOL    HW223995  13.435   1.347   0.006  0.6260  0.1220 -0.5233
 2129SOL     OW23996  12.317   8.594   0.796  0.0001  0.1878 -0.2921
 2129SOL    HW123997  12.248   8.589   0.730  0.5165  0.0540 -0.8301
 2129SOL    HW223998  12.335   8.688   0.806  1.0241  0.1566 -1.5303
 2130SOL     OW23999   0.822   0.932   4.867 -0.1320 -0.3187  0.0877
 2130SOL    HW124000   0.844   1.023   4.887 -2.4704  0.5843 -1.1052
 2130SOL    HW224001   0.905   0.893   4.838  1.0222  1.2369  1.1124
 2131SOL     OW24002  12.634   7.130  10.006  0.0015  0.3021 -0.3412
 2131SOL    HW124003  12.628   7.085   9.921 -1.2600  0.0400 -0.1378
 2131SOL    HW224004  12.676   7.213   9.985 -1.7768  0.9745 -1.5727
 2132SOL     OW24005   8.272   0.316   0.294  0.1690  0.3069  0.6237
 2132SOL    HW124006   8.362   0.331   0.263  0.1892 -0.4890  0.2818
 2132SOL    HW224007   8.238   0.404   0.310  0.0285  0.8317 -2.0426
 2133SOL     OW24008   1.824   0.631   0.592  0.3480 -0.8759  0.0634
 2133SOL    HW124009   1.884   0.685   0.541 -0.3982  1.5804  1.5766
 2133SOL    HW224010   1.879   0.589   0.658  0.5967  0.6190  0.8521
 2134SOL     OW24011  11.887   2.655   0.350  0.2134  0.0545 -0.3454
 2134SOL    HW124012  11.835   2.587   0.307 -0.1215 -1.1221  1.7405
 2134SOL    HW224013  11.975   2.644   0.315  0.0632 -1.1957 -0.3719
 2135SOL     OW24014   6.630  12.766   0.049  0.2122  0.5646 -0.4095
 2135SOL    HW124015   6.537  12.752   0.032 -0.4141 -2.2137  3.8495
 2135SOL    HW224016   6.675  12.707  -0.011 -0.9578 -0.0717 -0.6883
 2136SOL     OW24017   0.980   4.575   2.428  0.0478  0.6471 -0.0217
 2136SOL    HW124018   0.918   4.502   2.427  0.4003  0.3446 -0.6607
 2136SOL    HW224019   0.991   4.596   2.521  0.5892 -0.6797  0.2337
 2137SOL     OW24020   0.545   8.490  13.158  0.3378  0.0633 -0.8038
 2137SOL    HW124021   0.491   8.475  13.236  1.4683 -1.4284 -0.2493
 2137SOL    HW224022   0.584   8.404  13.140 -1.3777 -0.2104 -4.1998
 2138SOL     OW24023   6.728  10.646   7.188 -0.1109 -0.2344  0.8003
 2138SOL    HW124024   6.693  10.618   7.103  0.8094 -1.0657  0.6764
 2138SOL    HW224025   6.668  10.714   7.218 -0.0662  0.5779 -0.8475
 2139SOL     OW24026  13.731   3.271   3.672 -0.0774  0.3456  0.0745
 2139SOL    HW124027  13.706   3.179   3.685 -0.0816  0.4493  0.8782
 2139SOL    HW224028  13.794   3.288   3.742  1.5324  0.3707 -1.3214
 2140SOL     OW24029   9.068   1.814  13.726  0.4642 -0.2364 -0.0487
 2140SOL    HW124030   9.159   1.839  13.715 -0.0743  1.2865 -1.6474
 2140SOL    HW224031   9.050   1.824  13.819  1.5752  0.8067  0.0724
 2141SOL     OW24032   1.419   2.757   2.040 -0.2809  0.4186 -0.3875
 2141SOL    HW124033   1.469   2.680   2.012 -0.4877  0.6821 -1.5001
 2141SOL    HW224034   1.441   2.766   2.133  0.6570 -0.2896 -0.5189
 2142SOL     OW24035   7.463  13.021   3.479  0.1772  0.5276  0.6359
 2142SOL    HW124036   7.372  13.033   3.506  0.5128  1.9382  1.2367
 2142SOL    HW224037   7.460  12.954   3.411 -1.2934  0.4812  0.7331
 2143SOL     OW24038  10.908  11.379   7.127 -0.4697 -0.0979 -0.4412
 2143SOL    HW124039  10.973  11.348   7.191  0.7484 -0.5862 -1.8604
 2143SOL    HW224040  10.960  11.417   7.056 -1.8398  1.8258 -0.4805
 2144SOL     OW24041   3.426  11.456   1.110  0.5997  0.7652 -0.4103
 2144SOL    HW124042   3.472  11.484   1.189  0.4565 -0.5098  0.1404
 2144SOL    HW224043   3.359  11.395   1.141  0.2220  0.6213 -1.4702
 2145SOL     OW24044   3.857   1.402   5.822  0.3494  0.4166  0.0311
 2145SOL    HW124045   3.809   1.324   5.797  0.9909 -0.1008  0.3758
 2145SOL    HW224046   3.929   1.407   5.759  0.4505  0.5885  0.1589
 2146SOL     OW24047   6.284   2.045  11.905 -0.3487 -0.1770  0.4852
 2146SOL    HW124048   6.281   2.079  11.994 -0.0320 -0.8399  0.7510
 2146SOL    HW224049   6.371   2.007  11.896 -0.6277 -0.7535  0.1302
 2147SOL     OW24050   0.142   6.067   8.908 -0.0968 -0.1317  0.3714
 2147SOL    HW124051   0.066   6.021   8.873  0.4884 -0.2500 -0.7675
 2147SOL    HW224052   0.144   6.041   9.001 -1.9058  0.5201  0.6508
 2148SOL     OW24053   1.468   6.752  12.020 -0.5435 -0.0682 -0.2167
 2148SOL    HW124054   1.471   6.841  11.983 -2.8889  0.6502  1.0577
 2148SOL    HW224055   1.415   6.702  11.958 -0.6674 -0.1121 -0.0748
 2149SOL     OW24056  12.747  12.500   0.146 -0.4261 -0.0634  0.4451
 2149SOL    HW124057  12.804  12.445   0.093 -0.5545 -0.4131  0.6682
 2149SOL    HW224058  12.684  12.439   0.186 -0.3296  0.1907  0.9970
 2150SOL     OW24059   0.756   1.193  10.769 -0.0965 -0.2487 -0.3763
 2150SOL    HW124060   0.688   1.142  10.725  0.1393 -0.3100 -0.6739
 2150SOL    HW224061   0.729   1.284  10.758  0.0065 -0.2594 -0.7233
 2151SOL     OW24062   3.838   2.107  11.675 -0.9431 -0.1555  0.4812
 2151SOL    HW124063   3.881   2.176  11.724 -0.4453  0.2674 -0.5295
 2151SOL    HW224064   3.885   2.027  11.700 -0.0252  0.1968 -0.0618
 2152SOL     OW24065  12.631  13.199  11.495  0.4343 -0.0822  0.5785
 2152SOL    HW124066  12.569  13.140  11.453  0.7290 -0.1471  0.2330
 2152SOL    HW224067  12.709  13.145  11.510  1.0989  0.4970 -0.7206
 2153SOL     OW24068   7.173   6.663  11.084 -0.4615  0.2385  0.1421
 2153SOL    HW124069   7.147   6.646  10.993 -0.3525 -2.6092  0.5668
 2153SOL    HW224070   7.112   6.731  11.113 -0.7168  0.9876 -1.9376
 2154SOL     OW24071   8.577  12.646   2.162 -0.1638 -0.2177  0.5541
 2154SOL    HW124072   8.571  12.739   2.183  3.0994 -0.2276  2.0904
 2154SOL    HW224073   8.612  12.643   2.073 -2.4909 -0.1125 -0.4566
 2155SOL     OW24074   6.080  11.564  14.091  0.3926  1.0078 -0.5166
 2155SOL    HW124075   6.120  11.650  14.076 -0.5508  1.2150 -2.0415
 2155SOL    HW224076   5.986  11.578  14.079  0.1602 -0.1217 -0.1758
 2156SOL     OW24077  11.947   7.868  10.538  0.3170 -0.2360  0.2238
 2156SOL    HW124078  11.883   7.799  10.557  0.9204 -0.2422  2.4850
 2156SOL    HW224079  12.016   7.824  10.488 -0.2965 -0.7793 -0.1547
 2157SOL     OW24080  12.829   9.919   0.242  0.2856  0.5185  0.0032
 2157SOL    HW124081  12.869   9.894   0.159  1.9426  2.1816  0.2353
 2157SOL    HW224082  12.854   9.850   0.304 -0.5984 -0.5002 -0.7353
 2158SOL     OW24083   1.147   5.395  13.858  0.1203  0.3659  0.0948
 2158SOL    HW124084   1.229   5.406  13.907 -0.7990  0.6976  1.6033
 2158SOL    HW224085   1.174   5.353  13.776  1.8615  0.9231  0.3367
 2159SOL     OW24086  11.277   9.373   5.814 -1.0230  0.1478 -0.1206
 2159SOL    HW124087  11.340   9.424   5.762  0.2814 -0.5810  0.7065
 2159SOL    HW224088  11.246   9.434   5.881 -1.3142  0.5506 -0.6142
 2160SOL     OW24089   3.437   7.103   3.611  0.3652 -0.6176 -0.1806
 2160SOL    HW124090   3.376   7.093   3.538  0.3393 -1.1908 -0.0868
 2160SOL    HW224091   3.472   7.015   3.624  1.0730 -0.3276 -0.1109
 2161SOL     OW24092   3.074   2.443   4.161 -0.1222 -0.0816 -0.1253
 2161SOL    HW124093   3.008   2.512   4.166 -0.8476 -0.6810 -1.1340
 2161SOL    HW224094   3.025   2.365   4.134  1.0146 -0.4961 -1.0597
 2162SOL     OW24095   0.839  11.714   8.332  0.0573  0.4048  0.2212
 2162SOL    HW124096   0.920  11.703   8.281 -0.9608  2.4372 -2.0578
 2162SOL    HW224097   0.791  11.632   8.319  0.7552  0.0763 -0.3771
 2163SOL     OW24098   1.245   4.636  13.772 -0.3190  0.8379  0.3095
 2163SOL    HW124099   1.246   4.565  13.708  0.7544 -1.2399  2.4517
 2163SOL    HW224100   1.334   4.669  13.773 -0.1759  0.4598  1.0875
 2164SOL     OW24101   1.492  12.112  11.865 -0.2815 -0.1057  0.1728
 2164SOL    HW124102   1.498  12.016  11.865 -0.4139 -0.1204  1.0366
 2164SOL    HW224103   1.492  12.136  11.957 -1.7784  0.6189  0.0211
 2165SOL     OW24104   7.747   4.526  11.673  0.2917  0.7799  0.1887
 2165SOL    HW124105   7.835   4.489  11.671 -0.1320 -0.2238 -0.3303
 2165SOL    HW224106   7.758   4.615  11.637  0.9075  0.2571 -0.9787
 2166SOL     OW24107   1.773   4.130   7.291 -0.2845 -0.5552  0.0117
 2166SOL    HW124108   1.703   4.171   7.240 -1.8145 -2.7031  0.2553
 2166SOL    HW224109   1.836   4.099   7.225 -2.2498 -3.3250 -0.7393
 2167SOL     OW24110   3.310   3.441   7.587  0.3552 -0.0556 -0.2731
 2167SOL    HW124111   3.253   3.378   7.544 -0.4507  0.4026  0.1039
 2167SOL    HW224112   3.323   3.406   7.675  2.2230 -1.1335 -0.9294
 2168SOL     OW24113  10.560   7.817  11.309  0.3867 -0.1265  0.3111
 2168SOL    HW124114  10.623   7.782  11.372  0.0062  1.8239  1.8718
 2168SOL    HW224115  10.475   7.800  11.349  0.1170  0.6800  0.0892
 2169SOL     OW24116   0.508   2.423   7.979 -0.0793  0.1290  0.0113
 2169SOL    HW124117   0.462   2.382   8.051 -0.8486 -0.4114 -0.7620
 2169SOL    HW224118   0.441   2.437   7.912  1.1814 -2.8607 -2.1101
 2170SOL     OW24119   2.570  12.861   5.021 -0.2248 -0.3331  0.0678
 2170SOL    HW124120   2.652  12.816   5.042 -0.0875  0.1050  0.4718
 2170SOL    HW224121   2.573  12.942   5.072  0.4477  1.1293 -2.1257
 2171SOL     OW24122   1.163   7.128  11.462  0.4729  0.4430 -0.8028
 2171SOL    HW124123   1.191   7.176  11.540 -0.7667 -0.9316  0.5308
 2171SOL    HW224124   1.188   7.037  11.479 -0.0034  0.0816 -1.9345
 2172SOL     OW24125   0.799  12.694   1.534 -0.1965  0.2869 -0.3171
 2172SOL    HW124126   0.837  12.712   1.448 -1.2414  1.0448 -0.6432
 2172SOL    HW224127   0.732  12.761   1.545 -0.8206 -0.4640  0.6172
 2173SOL     OW24128   0.432   8.769  13.650  0.3669 -0.1654  0.2936
 2173SOL    HW124129   0.394   8.711  13.716 -0.5040 -0.5000 -0.4736
 2173SOL    HW224130   0.360   8.824  13.622  0.5355 -0.5187 -0.8877
 2174SOL     OW24131  11.346  12.474  13.108  0.4003  0.3617 -0.1818
 2174SOL    HW124132  11.372  12.408  13.172 -1.2301 -0.3291 -0.1920
 2174SOL    HW224133  11.346  12.556  13.158 -1.3081 -0.2294  0.8912
 2175SOL     OW24134   0.470   8.031   0.096  0.0649  0.2395 -0.1863
 2175SOL    HW124135   0.537   8.056   0.031  1.3516 -0.5258  0.8019
 2175SOL    HW224136   0.493   8.082   0.174 -0.8266  0.3382  0.0197
 2176SOL     OW24137  12.533   6.893   6.226  0.1058  0.1154 -0.2697
 2176SOL    HW124138  12.480   6.972   6.237  0.7183  0.7399 -1.6537
 2176SOL    HW224139  12.485   6.842   6.160 -0.3273 -0.7379  0.6667
 2177SOL     OW24140   6.450   7.699  13.523 -0.0616  0.5950  0.2939
 2177SOL    HW124141   6.507   7.717  13.448 -0.5095  1.0158  0.0517
 2177SOL    HW224142   6.400   7.621  13.496 -0.9569  1.3505 -0.2700
 2178SOL     OW24143   9.443   8.617   3.224  0.3626 -0.7571  0.3638
 2178SOL    HW124144   9.418   8.661   3.143  0.8966  0.5478  0.8800
 2178SOL    HW224145   9.446   8.524   3.201 -0.3378 -0.4979 -0.8763
 2179SOL     OW24146   9.477   5.178   9.563 -0.7102 -0.2146  0.2303
 2179SOL    HW124147   9.559   5.128   9.565 -0.8962 -0.5257  0.2870
 2179SOL    HW224148   9.503   5.266   9.538 -0.1327  0.1477  1.9629
 2180SOL     OW24149  13.387  12.264   1.554 -0.2330  0.1907  0.0492
 2180SOL    HW124150  13.433  12.330   1.502  1.1590 -0.8619 -0.1192
 2180SOL    HW224151  13.300  12.258   1.513 -0.0009  1.1131 -0.6210
 2181SOL     OW24152   9.182   1.587   0.675 -0.8602  0.0148 -0.1601
 2181SOL    HW124153   9.226   1.669   0.698 -1.0029 -0.2422  1.0867
 2181SOL    HW224154   9.214   1.567   0.587  1.3012 -0.0193  0.5827
 2182SOL     OW24155   0.686   2.836   6.431 -0.2620 -0.4455  0.4534
 2182SOL    HW124156   0.743   2.784   6.488 -0.6655 -1.4263 -0.0075
 2182SOL    HW224157   0.710   2.927   6.449  1.7880 -0.8245 -0.0507
 2183SOL     OW24158   6.499  12.710   4.549 -0.6241 -0.0837 -0.4734
 2183SOL    HW124159   6.591  12.723   4.571 -0.3399 -0.1374 -1.5932
 2183SOL    HW224160   6.493  12.732   4.456 -1.8800  0.6100 -0.2515
 2184SOL     OW24161   4.178  11.215   4.560 -0.4813 -0.1894  0.4549
 2184SOL    HW124162   4.262  11.230   4.603 -0.5415 -0.3857  0.6433
 2184SOL    HW224163   4.145  11.303   4.541  0.7629 -0.1056 -1.6280
 2185SOL     OW24164   2.642   9.165   0.690  0.0735  0.4757  0.4486
 2185SOL    HW124165   2.563   9.150   0.743  0.7730  0.4426  1.5150
 2185SOL    HW224166   2.621   9.242   0.638 -0.2591  1.1762  1.5731
 2186SOL     OW24167  13.286   4.523  10.444  0.6506 -0.4959 -0.1442
 2186SOL    HW124168  13.215   4.489  10.389  1.4667 -2.5869  0.0098
 2186SOL    HW224169  13.306   4.450  10.504  3.3316 -0.1840 -0.5835
 2187SOL     OW24170  12.100   0.821   2.630 -0.0064 -0.1244 -0.2676
 2187SOL    HW124171  12.032   0.823   2.562 -1.6181 -1.5325  1.1858
 2187SOL    HW224172  12.105   0.911   2.662 -1.3583 -0.0030 -0.3164
 2188SOL     OW24173   4.762   2.043  11.984 -0.2596 -0.1457 -0.0763
 2188SOL    HW124174   4.757   2.131  12.020  0.0469  0.8847 -2.3312
 2188SOL    HW224175   4.670   2.015  11.976 -0.3680  0.0507  0.4703
 2189SOL     OW24176   0.875  11.741   6.061  0.2231 -0.1841 -0.1119
 2189SOL    HW124177   0.917  11.657   6.045  1.1010 -0.3562  2.5173
 2189SOL    HW224178   0.805  11.722   6.123  0.0682  0.9224  0.0805
 2190SOL     OW24179   2.899   7.945   3.698  0.8534 -0.0620 -0.4077
 2190SOL    HW124180   2.957   7.896   3.756  1.4879 -0.5162 -1.4015
 2190SOL    HW224181   2.957   8.003   3.649  0.1475  1.5219  0.5441
 2191SOL     OW24182   2.793  11.307   1.189  0.1709  0.2695 -0.1810
 2191SOL    HW124183   2.827  11.329   1.276  2.2006  2.1133 -1.3480
 2191SOL    HW224184   2.863  11.333   1.129 -1.2937 -0.6873 -2.4005
 2192SOL     OW24185   2.271   3.755  10.925 -0.2785 -0.2056  0.7109
 2192SOL    HW124186   2.223   3.698  10.865 -0.0998  0.5817 -0.1852
 2192SOL    HW224187   2.333   3.696  10.969 -1.0096 -0.9471  0.7867
 2193SOL     OW24188   4.155  12.987   1.838 -0.3012 -0.6193  0.7953
 2193SOL    HW124189   4.152  13.083   1.835  2.2310 -0.5076 -1.0824
 2193SOL    HW224190   4.240  12.967   1.877  0.4755 -1.9982 -1.3979
 2194SOL     OW24191   7.658   0.506  11.722  0.0711  0.2435 -0.2323
 2194SOL    HW124192   7.610   0.489  11.641 -0.4256 -1.7237  0.4230
 2194SOL    HW224193   7.726   0.439  11.724 -0.2616 -0.0832  1.2277
 2195SOL     OW24194  11.313   2.347   1.045 -0.6974 -0.1691  0.1464
 2195SOL    HW124195  11.220   2.368   1.038 -0.9533 -1.3220 -0.0146
 2195SOL    HW224196  11.345   2.349   0.955 -1.2480 -2.6940 -0.1729
 2196SOL     OW24197   5.276   1.466   0.097  0.0617 -0.0327  0.5246
 2196SOL    HW124198   5.231   1.499   0.175 -0.2671 -1.7796  1.1161
 2196SOL    HW224199   5.355   1.425   0.131 -0.8642 -2.2506  0.1918
 2197SOL     OW24200   0.530  12.361  12.120 -0.3998 -0.2441  0.2780
 2197SOL    HW124201   0.508  12.384  12.030  0.9190  0.6753  0.1532
 2197SOL    HW224202   0.467  12.409  12.173 -1.6628 -1.3887 -0.1599
 2198SOL     OW24203   5.000  10.074   9.580  0.4221 -0.3455 -0.1403
 2198SOL    HW124204   4.990  10.072   9.485  0.9436 -2.7349 -0.2170
 2198SOL    HW224205   5.042   9.991   9.601 -0.1157 -0.0859  2.2457
 2199SOL     OW24206   2.591   2.952   2.796  0.3837  0.0520 -0.2623
 2199SOL    HW124207   2.642   2.926   2.873 -0.1763  1.0510  0.4825
 2199SOL    HW224208   2.504   2.972   2.832  0.0582  0.3278 -1.1962
 2200SOL     OW24209   2.612   5.949  13.873 -0.1684 -0.4049 -0.4242
 2200SOL    HW124210   2.681   5.897  13.913 -0.1252  1.1172  1.6121
 2200SOL    HW224211   2.531   5.902  13.894  0.0048 -0.6025 -0.1967
 2201SOL     OW24212   8.275   1.197   0.230  0.0131  0.0737 -0.2947
 2201SOL    HW124213   8.251   1.124   0.287 -0.8820 -0.9610 -1.9055
 2201SOL    HW224214   8.209   1.264   0.247  0.0765 -0.0048  0.2695
 2202SOL     OW24215   7.248  11.851  10.645 -0.4451 -0.2796  0.3412
 2202SOL    HW124216   7.308  11.919  10.612 -1.7215  0.5135 -0.4437
 2202SOL    HW224217   7.304  11.793  10.696  1.2689 -0.3550 -1.4577
 2203SOL     OW24218  12.980  12.427   3.294  0.3402 -0.1824 -0.2930
 2203SOL    HW124219  12.908  12.476   3.254 -0.0056 -0.1073  0.4013
 2203SOL    HW224220  12.936  12.362   3.349  0.8050 -0.5026 -0.2954
 2204SOL     OW24221   5.471  10.066   5.833 -0.3109 -0.8246  0.4378
 2204SOL    HW124222   5.556  10.104   5.811 -0.8084  0.7176  1.1087
 2204SOL    HW224223   5.438  10.119   5.904 -1.6480 -1.7028  0.5055
 2205SOL     OW24224   9.079  11.497   1.510 -1.1197  0.0108  1.1456
 2205SOL    HW124225   9.040  11.565   1.565  1.2546  2.6053 -0.1188
 2205SOL    HW224226   9.011  11.476   1.446 -0.7536  4.3893 -1.0387
 2206SOL     OW24227   7.963  12.424   4.741  0.0513  0.2945 -0.1272
 2206SOL    HW124228   7.914  12.507   4.742  0.4546  0.5518 -0.9314
 2206SOL    HW224229   7.910  12.365   4.795 -1.1240  0.5805 -0.9163
 2207SOL     OW24230  13.057  12.872   1.116 -0.2492  0.0244  0.0258
 2207SOL    HW124231  13.119  12.939   1.145  0.4738 -0.2083 -0.9283
 2207SOL    HW224232  12.999  12.918   1.056  0.5244 -0.2798 -0.9799
 2208SOL     OW24233   7.372  13.210   6.400  0.0409 -0.6614  0.0158
 2208SOL    HW124234   7.332  13.206   6.486  0.1519  0.2472  0.1268
 2208SOL    HW224235   7.340  13.292   6.362  0.2025 -0.9180 -0.6984
 2209SOL     OW24236   8.719  10.646   7.321 -0.0662 -0.2408  0.2537
 2209SOL    HW124237   8.712  10.697   7.240 -0.4883  0.3387  0.6397
 2209SOL    HW224238   8.658  10.574   7.309 -0.6676  0.2461  0.3369
 2210SOL     OW24239  12.337   0.620   0.860 -0.1017 -0.1779 -1.3183
 2210SOL    HW124240  12.356   0.714   0.861 -1.2296  0.0949  0.8748
 2210SOL    HW224241  12.418   0.579   0.891 -0.0035  0.1707 -1.1090
 2211SOL     OW24242   3.201   2.291  13.495 -0.0996 -0.2358 -0.2582
 2211SOL    HW124243   3.268   2.222  13.499  0.2379  0.0668 -0.6704
 2211SOL    HW224244   3.121   2.246  13.469 -0.4457 -0.8794  1.7335
 2212SOL     OW24245  10.918   7.387   5.830  0.6174 -0.4747  0.4430
 2212SOL    HW124246  10.892   7.474   5.862 -1.2037 -0.1062 -1.7514
 2212SOL    HW224247  10.849   7.329   5.861  0.7283 -0.7520  0.1726
 2213SOL     OW24248   1.795   8.692   7.156 -0.5651 -0.5369 -0.7843
 2213SOL    HW124249   1.886   8.662   7.159 -1.0341 -1.9610  1.1420
 2213SOL    HW224250   1.788   8.741   7.074  2.3147  0.8738 -0.2992
 2214SOL     OW24251  12.340  13.513   8.473 -0.8797 -0.2224  0.0701
 2214SOL    HW124252  12.250  13.489   8.497 -0.5648 -0.7447  0.7669
 2214SOL    HW224253  12.395  13.447   8.516 -0.1471  0.2182 -0.1694
 2215SOL     OW24254   1.854   8.464   0.464  0.1209  0.2244  0.1797
 2215SOL    HW124255   1.922   8.411   0.504  0.6637  1.0162  0.3364
 2215SOL    HW224256   1.888   8.486   0.377  0.0151  0.5247  0.2123
 2216SOL     OW24257  11.383  13.973   8.008  0.3551 -0.3108 -0.1851
 2216SOL    HW124258  11.364  13.984   7.914 -0.3218  0.7270  0.0585
 2216SOL    HW224259  11.469  14.013   8.019  0.1781  0.0923 -0.2595
 2217SOL     OW24260   8.550   1.800  10.761 -0.7692  0.3110  0.2110
 2217SOL    HW124261   8.529   1.877  10.815 -0.6206 -0.1812  0.9826
 2217SOL    HW224262   8.631   1.825  10.716  1.0753 -0.5101  2.8456
 2218SOL     OW24263  12.622   8.215   5.355  0.0217 -0.3042 -0.1111
 2218SOL    HW124264  12.591   8.130   5.324  0.3694  0.0191 -1.4448
 2218SOL    HW224265  12.711   8.222   5.320  0.2624  0.2947  0.6007
 2219SOL     OW24266   3.887   4.267   5.523  0.8472  0.4327 -0.1265
 2219SOL    HW124267   3.897   4.349   5.571  0.7719  0.3465  0.0389
 2219SOL    HW224268   3.927   4.283   5.438  0.4009  0.7975 -0.2674
 2220SOL     OW24269   2.906  12.352  13.989 -0.5515 -0.0485 -0.2654
 2220SOL    HW124270   2.963  12.429  13.982  0.4431 -0.7131  0.2455
 2220SOL    HW224271   2.850  12.370  14.064  0.5882 -0.3685  0.6973
 2221SOL     OW24272  11.002  12.136  12.607  0.4862 -0.4315 -0.7621
 2221SOL    HW124273  11.003  12.040  12.612  1.6946 -0.4427 -0.9842
 2221SOL    HW224274  10.994  12.166  12.697  1.0221 -0.7358 -0.6144
 2222SOL     OW24275  13.217   6.997   5.319 -0.5223  0.5305 -0.3792
 2222SOL    HW124276  13.250   6.993   5.229 -0.0246  0.8560 -0.2118
 2222SOL    HW224277  13.139   6.941   5.318  0.1766 -0.4751 -0.7237
 2223SOL     OW24278  13.354  11.041   3.649 -0.2207 -0.0365  0.3092
 2223SOL    HW124279  13.407  11.073   3.722 -1.0718  0.4452  0.7274
 2223SOL    HW224280  13.263  11.050   3.679 -0.5853  0.2582 -0.8469
 2224SOL     OW24281   9.933   5.752   1.348 -0.7874  0.0744  0.1132
 2224SOL    HW124282   9.901   5.841   1.354 -2.1749 -0.4927  2.0796
 2224SOL    HW224283   9.974   5.735   1.433  0.8448 -0.7014 -0.7659
 2225SOL     OW24284  10.173   6.696  12.875 -0.5093  0.3698 -0.0472
 2225SOL    HW124285  10.093   6.714  12.924 -2.5468 -1.1247 -2.5530
 2225SOL    HW224286  10.184   6.773  12.818 -0.3756  0.4017  0.0209
 2226SOL     OW24287   7.763  11.575   3.182 -0.2972 -0.0342 -0.4551
 2226SOL    HW124288   7.812  11.646   3.141 -1.1075  0.7300 -0.1490
 2226SOL    HW224289   7.776  11.500   3.125 -0.3099  0.6534 -1.3782
 2227SOL     OW24290   4.012   8.989  14.023 -0.1431  0.6154 -0.1019
 2227SOL    HW124291   3.962   8.922  14.070 -1.0031 -0.7299 -2.7386
 2227SOL    HW224292   3.958   9.068  14.031  0.9602  1.2049  3.1803
 2228SOL     OW24293   7.818   1.459   9.114  0.0641 -1.1972 -0.6599
 2228SOL    HW124294   7.877   1.471   9.189 -1.1926  1.8465  0.0099
 2228SOL    HW224295   7.750   1.400   9.147 -0.6077  0.2903  0.7899
 2229SOL     OW24296   1.757   7.259   2.513  0.7645  0.3988  0.4217
 2229SOL    HW124297   1.662   7.270   2.511  0.5765 -0.6393  1.8068
 2229SOL    HW224298   1.792   7.347   2.503 -0.3873  0.9786  1.2994
 2230SOL     OW24299   3.780   3.356   6.384 -0.0210  0.6469 -0.5460
 2230SOL    HW124300   3.731   3.435   6.406  0.9367  0.9177  0.7613
 2230SOL    HW224301   3.804   3.367   6.292 -0.2574  1.6858 -0.4945
 2231SOL     OW24302   7.465  11.697   9.285 -0.0777  0.2554  0.2109
 2231SOL    HW124303   7.449  11.774   9.230  1.9464  0.3328 -0.3813
 2231SOL    HW224304   7.525  11.643   9.233  0.3233 -0.6338  1.5377
 2232SOL     OW24305  14.007   8.738  12.808 -0.0953  0.3048 -0.5629
 2232SOL    HW124306  13.921   8.743  12.766  0.1453  0.1395 -1.0857
 2232SOL    HW224307  14.056   8.812  12.773  0.6038 -0.6613 -1.7375
 2233SOL     OW24308   6.598  13.854  13.212  0.4440 -0.5765 -0.1791
 2233SOL    HW124309   6.606  13.865  13.117  0.3374 -1.9628 -0.3725
 2233SOL    HW224310   6.561  13.936  13.243  1.4901  0.3181 -1.1894
 2234SOL     OW24311  12.668   4.188   0.045  0.2433 -1.0631  0.2881
 2234SOL    HW124312  12.732   4.210   0.113  3.6036 -0.6974 -2.6793
 2234SOL    HW224313  12.634   4.272   0.016  0.3099 -1.0524  0.2387
 2235SOL     OW24314   5.470   2.041   7.164  0.0898  0.2840  0.1655
 2235SOL    HW124315   5.486   1.969   7.225 -0.2064 -1.0326 -1.2368
 2235SOL    HW224316   5.381   2.070   7.184 -0.1488 -0.3978  0.1290
 2236SOL     OW24317   1.359   9.680  10.007  0.1897 -0.4942 -0.1096
 2236SOL    HW124318   1.278   9.666  10.055  1.0925 -1.7678  1.1336
 2236SOL    HW224319   1.375   9.774  10.013  0.3373 -0.6092  2.2672
 2237SOL     OW24320   9.768   8.285   3.036  0.4052  0.1585  0.4182
 2237SOL    HW124321   9.795   8.321   2.952 -1.2909 -0.3046 -0.3648
 2237SOL    HW224322   9.691   8.232   3.016 -2.2572  2.8204  2.6604
 2238SOL     OW24323   7.385   4.867   4.186 -0.2457 -0.2235 -0.1005
 2238SOL    HW124324   7.312   4.806   4.199  0.5924 -1.4482 -0.9183
 2238SOL    HW224325   7.360   4.919   4.110 -1.5252  1.3776  1.3372
 2239SOL     OW24326   1.004   4.128   9.953  0.2199  0.0911 -0.4725
 2239SOL    HW124327   1.073   4.122  10.020 -0.0162  1.7344 -0.0329
 2239SOL    HW224328   0.944   4.057   9.973 -0.4881  1.2536  1.8585
 2240SOL     OW24329   3.925  12.769   5.465 -0.1663  0.5268  0.3324
 2240SOL    HW124330   3.911  12.809   5.379 -0.5415 -0.4105 -0.0589
 2240SOL    HW224331   3.838  12.766   5.505  0.1376  1.7708  1.1288
 2241SOL     OW24332  13.694   5.932   0.880 -0.0726  0.3320  0.0668
 2241SOL    HW124333  13.598   5.926   0.879 -0.0959  0.6788 -1.3201
 2241SOL    HW224334  13.723   5.857   0.827  0.3902  0.7328 -0.2454
 2242SOL     OW24335   7.096   6.321   7.176 -0.1551  0.1198  0.2296
 2242SOL    HW124336   7.070   6.242   7.128 -0.0286  0.4411 -0.3798
 2242SOL    HW224337   7.093   6.391   7.110 -1.7618  0.9227  1.0713
 2243SOL     OW24338   1.894   2.350  10.876  0.4302  0.6356  0.0517
 2243SOL    HW124339   1.914   2.436  10.838  1.0625 -0.0645 -1.2255
 2243SOL    HW224340   1.875   2.294  10.801 -1.2085 -0.0608  0.9294
 2244SOL     OW24341   1.982  12.316  12.635  0.3484 -0.0962  0.4379
 2244SOL    HW124342   1.929  12.250  12.590  0.3260 -0.3537  0.8365
 2244SOL    HW224343   2.058  12.328  12.578  1.3764 -1.9587  1.2962
 2245SOL     OW24344   1.927  11.125   6.221 -0.0076  0.2943 -0.2121
 2245SOL    HW124345   1.978  11.051   6.254  0.3463  0.8436  0.5121
 2245SOL    HW224346   1.979  11.160   6.148  1.2152  1.4897  1.1757
 2246SOL     OW24347   9.022   7.191   5.628 -0.6097 -0.0781  0.3264
 2246SOL    HW124348   9.010   7.115   5.685  1.1954  0.5631  1.6750
 2246SOL    HW224349   9.002   7.266   5.684  0.2932  0.5319 -0.1522
 2247SOL     OW24350   8.225   7.124  11.535 -0.0309 -0.2619 -0.1575
 2247SOL    HW124351   8.295   7.187  11.550  1.0402 -0.8798 -2.1661
 2247SOL    HW224352   8.227   7.109  11.440 -3.8441  0.7909 -0.5759
 2248SOL     OW24353   8.414   2.808   4.497  0.2171 -0.0006  0.3745
 2248SOL    HW124354   8.342   2.860   4.460 -1.2681 -2.2260 -0.0976
 2248SOL    HW224355   8.424   2.840   4.586 -1.4625  0.3261  0.4836
 2249SOL     OW24356   1.005   1.897   5.480 -0.0907  0.2071 -0.0793
 2249SOL    HW124357   1.021   1.831   5.412  0.2276  0.1082  0.0900
 2249SOL    HW224358   0.918   1.931   5.461 -1.4926 -2.2659  1.4879
 2250SOL     OW24359   7.533   4.686   1.633  0.1641  0.1058 -0.5123
 2250SOL    HW124360   7.539   4.597   1.598 -0.4366  0.2281 -0.9244
 2250SOL    HW224361   7.563   4.678   1.724 -2.6281 -1.0904  0.4156
 2251SOL     OW24362   6.674   6.203   6.770  0.6462 -0.0086  0.0287
 2251SOL    HW124363   6.662   6.233   6.861 -2.0012  1.2749 -0.6368
 2251SOL    HW224364   6.688   6.284   6.720 -0.8775 -0.3821 -1.0589
 2252SOL     OW24365   1.543   8.938   5.996  0.3388 -0.3174  0.4960
 2252SOL    HW124366   1.606   8.881   6.039 -0.2244 -1.9547 -0.7203
 2252SOL    HW224367   1.457   8.905   6.024  0.0016 -0.2065 -0.3661
 2253SOL     OW24368   6.787   1.172   5.311 -0.5893 -0.1098  0.2198
 2253SOL    HW124369   6.723   1.160   5.241  0.0413  1.1942 -0.6240
 2253SOL    HW224370   6.739   1.220   5.379 -0.4634  1.1461 -0.5423
 2254SOL     OW24371   1.850  12.839   1.593  0.3698 -0.1352  0.5446
 2254SOL    HW124372   1.821  12.800   1.675  0.4646 -1.7290 -0.1452
 2254SOL    HW224373   1.770  12.848   1.541 -0.0137  2.7101  1.4782
 2255SOL     OW24374   8.508   4.644   3.226  0.8733 -0.1124  0.5720
 2255SOL    HW124375   8.569   4.699   3.276  0.8213 -0.1274  0.6514
 2255SOL    HW224376   8.466   4.705   3.166  1.6722 -0.2670 -0.1700
 2256SOL     OW24377  12.612  11.480   6.254 -0.2578  0.3077 -0.4537
 2256SOL    HW124378  12.678  11.516   6.195  0.2128  0.4303  0.1362
 2256SOL    HW224379  12.530  11.520   6.226 -0.0465  0.3371 -1.0436
 2257SOL     OW24380   8.437   6.488   1.224  0.1204  0.4577  0.4000
 2257SOL    HW124381   8.352   6.458   1.193 -1.2549  1.5039  2.8704
 2257SOL    HW224382   8.453   6.436   1.303  0.7756  1.7205  1.1261
 2258SOL     OW24383   5.212   3.803   8.230  0.5563 -0.3910 -0.3600
 2258SOL    HW124384   5.303   3.772   8.226  1.0028  1.0043 -1.7734
 2258SOL    HW224385   5.219   3.898   8.236 -0.8341 -0.2803 -0.1873
 2259SOL     OW24386   2.583   2.302  10.265 -0.2038  0.2930 -0.2022
 2259SOL    HW124387   2.576   2.351  10.347  1.8537 -0.0813  0.2400
 2259SOL    HW224388   2.569   2.367  10.196 -3.1215  0.4130  0.3758
 2260SOL     OW24389  13.601   8.341   0.861 -0.0823 -0.3278  0.2549
 2260SOL    HW124390  13.594   8.378   0.950  0.6210 -0.2439  0.2824
 2260SOL    HW224391  13.637   8.254   0.874  2.1439  0.4699 -0.0642
 2261SOL     OW24392   6.126   0.816   9.078 -0.1084  0.0363  0.6993
 2261SOL    HW124393   6.099   0.902   9.110 -0.9988  0.2177 -0.4716
 2261SOL    HW224394   6.082   0.807   8.994 -0.7844 -1.9534  1.2136
 2262SOL     OW24395   4.995   8.250   0.212 -0.1035 -0.0657  0.0079
 2262SOL    HW124396   5.031   8.211   0.133 -0.1171  2.6128 -1.4661
 2262SOL    HW224397   4.917   8.297   0.182 -0.6030  0.3086  1.7746
 2263SOL     OW24398   1.031  13.172   1.456 -0.2853 -0.0522  0.0169
 2263SOL    HW124399   0.959  13.224   1.493 -0.5972 -0.6681  0.2797
 2263SOL    HW224400   1.054  13.110   1.525  0.9699  0.5897  0.1926
 2264SOL     OW24401   2.656   0.118   8.514 -0.0756  0.8004  0.2150
 2264SOL    HW124402   2.724   0.110   8.581 -0.3511  1.7778  0.6432
 2264SOL    HW224403   2.700   0.098   8.432  0.3909  0.0775  0.6312
 2265SOL     OW24404   2.756   6.602   5.805  0.0232  0.1486 -0.2067
 2265SOL    HW124405   2.808   6.587   5.726  0.2237  1.2684 -0.2981
 2265SOL    HW224406   2.677   6.550   5.792  0.9266 -1.2786 -0.2399
 2266SOL     OW24407   2.100   2.992   8.557  0.0562  0.1234 -0.2320
 2266SOL    HW124408   2.132   3.031   8.638 -0.0057 -0.4090  0.0497
 2266SOL    HW224409   2.076   3.067   8.502 -0.9661  0.4657  0.6690
 2267SOL     OW24410   3.920   7.796  10.005  0.0349 -0.3095  0.2235
 2267SOL    HW124411   3.862   7.851   9.951 -0.9346  0.2527  1.7736
 2267SOL    HW224412   3.861   7.737  10.051  0.7378 -0.1631  1.3555
 2268SOL     OW24413  14.074  10.222   2.213  0.1931 -0.3485  0.6395
 2268SOL    HW124414  14.016  10.190   2.282 -0.2018  0.4493  0.6940
 2268SOL    HW224415  14.133  10.283   2.257 -1.2174  1.5727  0.0256
 2269SOL     OW24416   5.701   1.459   1.960  0.5143  0.1683  0.1245
 2269SOL    HW124417   5.682   1.411   1.879 -1.5239 -0.2098  0.7693
 2269SOL    HW224418   5.736   1.393   2.019 -0.3612 -0.1211  0.3400
 2270SOL     OW24419   0.211   7.366   8.927  0.4300  0.0237  0.1310
 2270SOL    HW124420   0.156   7.406   8.994 -0.1474 -1.1405  0.3823
 2270SOL    HW224421   0.300   7.370   8.963  0.1938 -0.1409  0.7424
 2271SOL     OW24422   3.958   8.699   4.037 -0.8867  0.1255 -0.0349
 2271SOL    HW124423   3.871   8.718   4.003 -0.3203  0.5128 -1.3527
 2271SOL    HW224424   4.017   8.720   3.964  0.3501  0.3889  1.0026
 2272SOL     OW24425   9.194  10.987   0.490  0.5743  0.4801 -0.1701
 2272SOL    HW124426   9.183  10.990   0.395 -0.4900 -1.4487 -0.1509
 2272SOL    HW224427   9.124  11.043   0.524 -0.5576 -0.7258 -0.4687
 2273SOL     OW24428  11.331   6.485   2.311  0.8107 -0.2914 -0.2321
 2273SOL    HW124429  11.413   6.485   2.360  0.7715  0.5985 -0.1420
 2273SOL    HW224430  11.266   6.452   2.373  0.7761  0.7516  0.3165
 2274SOL     OW24431   0.625   8.718   2.319 -0.4410  0.1267  0.1022
 2274SOL    HW124432   0.608   8.624   2.310 -0.0402  0.1533 -1.0580
 2274SOL    HW224433   0.539   8.759   2.313 -0.5467 -0.1151 -0.0426
 2275SOL     OW24434   7.230   9.947   5.017 -0.0021  0.1396  0.1628
 2275SOL    HW124435   7.298   9.959   4.950  1.1384 -1.3826  0.9824
 2275SOL    HW224436   7.248  10.015   5.081  1.2017 -0.6490  0.6943
 2276SOL     OW24437   3.274   4.387  10.173  0.6145  0.0462  0.0528
 2276SOL    HW124438   3.285   4.473  10.213  2.2081  0.3599 -0.9758
 2276SOL    HW224439   3.364   4.354  10.164  0.2887 -0.2611 -2.6384
 2277SOL     OW24440   0.741   7.956  11.223 -0.3661 -0.2246  0.0579
 2277SOL    HW124441   0.711   8.046  11.227 -0.7576 -0.3783  0.7908
 2277SOL    HW224442   0.810   7.951  11.289 -0.6688 -0.5686  0.3569
 2278SOL     OW24443   1.048   5.147   2.682  0.2944  0.1537 -0.0794
 2278SOL    HW124444   1.036   5.242   2.680 -0.7420  0.0244 -0.4253
 2278SOL    HW224445   0.971   5.112   2.638 -0.3840 -0.9580  1.8922
 2279SOL     OW24446   9.935  12.118   5.893  0.1747  0.3097  0.0974
 2279SOL    HW124447  10.006  12.146   5.950  0.3039 -0.2083  0.2010
 2279SOL    HW224448   9.904  12.198   5.851  0.2393  0.6593  0.7095
 2280SOL     OW24449   3.236   4.237   1.864  0.0044 -0.1317 -0.2067
 2280SOL    HW124450   3.200   4.266   1.947  0.6308  0.5330 -0.1520
 2280SOL    HW224451   3.197   4.296   1.799  0.4081  0.1048 -0.2370
 2281SOL     OW24452   5.234   1.980   1.904  0.6413 -0.4291 -0.4411
 2281SOL    HW124453   5.193   2.040   1.842  0.0146  0.4947  0.8320
 2281SOL    HW224454   5.187   1.897   1.891 -3.0206  0.9734  2.1101
 2282SOL     OW24455   5.048   6.315   0.325 -0.6024  0.2361  0.2787
 2282SOL    HW124456   5.037   6.275   0.411 -0.5217 -2.1520 -0.7344
 2282SOL    HW224457   5.142   6.308   0.306 -0.9497 -1.7510 -1.0381
 2283SOL     OW24458   3.805  10.552   9.948 -0.5954 -0.5191 -0.7294
 2283SOL    HW124459   3.819  10.582  10.038 -0.1494 -4.0228  0.5051
 2283SOL    HW224460   3.710  10.541   9.941 -0.5151 -1.6211 -0.1723
 2284SOL     OW24461  11.023  12.213   8.123 -0.2685 -0.1576 -0.0028
 2284SOL    HW124462  11.094  12.149   8.134 -0.4602 -0.3461  0.1388
 2284SOL    HW224463  11.029  12.269   8.200 -0.2592 -0.1567 -0.0039
 2285SOL     OW24464   1.302   3.866   9.927  0.2203  0.1429 -0.3385
 2285SOL    HW124465   1.334   3.914   9.851 -0.9476  1.8148  0.1653
 2285SOL    HW224466   1.209   3.850   9.909  0.1845 -0.4118  0.2689
 2286SOL     OW24467   9.155   3.018   3.577  0.2829  0.0413 -0.5979
 2286SOL    HW124468   9.184   3.100   3.617  1.8939  0.1323 -1.8432
 2286SOL    HW224469   9.230   2.960   3.582 -0.8287 -1.3870  0.2241
 2287SOL     OW24470   3.023   3.968   8.855 -0.4421  0.4648 -0.5930
 2287SOL    HW124471   3.032   3.890   8.800  0.1001  0.6638 -0.7954
 2287SOL    HW224472   2.949   4.016   8.817 -1.8049 -0.7004  0.4705
 2288SOL     OW24473   8.869   7.825  12.938 -0.4840 -0.9225 -0.8755
 2288SOL    HW124474   8.792   7.870  12.974 -0.7892 -1.3738 -0.9438
 2288SOL    HW224475   8.863   7.736  12.975  1.1728 -0.3904  0.8289
 2289SOL     OW24476   3.282   0.782  10.717 -0.7183  0.2986  0.0536
 2289SOL    HW124477   3.299   0.796  10.810  1.9010  0.0732 -0.3230
 2289SOL    HW224478   3.226   0.705  10.714 -1.6349  0.8696  1.4430
 2290SOL     OW24479   1.905  11.548   1.208 -0.7316  0.2770  0.5933
 2290SOL    HW124480   1.822  11.568   1.165 -1.1789 -0.2752  1.1809
 2290SOL    HW224481   1.893  11.575   1.299 -0.1788  0.4221  0.6292
 2291SOL     OW24482  12.345   8.143  12.424  0.4460 -0.0456 -0.5109
 2291SOL    HW124483  12.329   8.158  12.331  2.6617  1.3702 -0.7425
 2291SOL    HW224484  12.400   8.064  12.426 -0.9833 -1.0665 -0.2349
 2292SOL     OW24485   9.707   0.715   8.808 -0.2060  0.4814  0.5424
 2292SOL    HW124486   9.778   0.657   8.784  0.0941  2.4165 -4.2417
 2292SOL    HW224487   9.627   0.668   8.783 -0.3261  0.3706  1.0947
 2293SOL     OW24488   5.009  13.794   7.131 -0.8393  0.2648 -0.2635
 2293SOL    HW124489   5.044  13.760   7.213  0.5322 -0.2629 -1.0168
 2293SOL    HW224490   4.961  13.720   7.093 -0.6350  0.1885 -0.3785
 2294SOL     OW24491   7.084   1.344  13.982  0.5950 -0.3457  0.1512
 2294SOL    HW124492   7.013   1.302  14.031 -1.1528  1.2920 -0.8382
 2294SOL    HW224493   7.057   1.436  13.974  2.7840  0.3080 -0.3894
 2295SOL     OW24494  13.830   7.092   0.133  0.0816  0.2578 -0.6163
 2295SOL    HW124495  13.910   7.089   0.185  0.1526 -1.1333 -0.7798
 2295SOL    HW224496  13.760   7.077   0.196  0.2523 -2.9057 -1.0351
 2296SOL     OW24497   7.348   7.688   2.897 -0.5139  0.2868 -0.1192
 2296SOL    HW124498   7.311   7.614   2.945 -0.2770 -1.2593 -2.1873
 2296SOL    HW224499   7.283   7.757   2.906 -1.5821 -0.7477  0.4250
 2297SOL     OW24500   0.222  11.656   8.426 -0.9262  0.0650  0.2291
 2297SOL    HW124501   0.158  11.599   8.383 -1.8987  1.2072  0.1031
 2297SOL    HW224502   0.242  11.723   8.361  1.6332 -1.1085 -0.3205
 2298SOL     OW24503   8.753  11.886   1.625 -0.1628  0.7737 -0.3616
 2298SOL    HW124504   8.840  11.916   1.599  0.0078  2.2279  1.7077
 2298SOL    HW224505   8.693  11.933   1.567  0.3440  0.8236 -0.8554
 2299SOL     OW24506   8.625   2.243   1.193  0.0803  0.0046  0.2292
 2299SOL    HW124507   8.704   2.283   1.157  1.3269 -1.3677  1.3035
 2299SOL    HW224508   8.590   2.192   1.120  0.7264 -0.1233 -0.0032
 2300SOL     OW24509   6.155   6.217   4.579 -0.2637 -0.2063 -0.1802
 2300SOL    HW124510   6.190   6.270   4.507 -0.8094  2.1087  1.1538
 2300SOL    HW224511   6.209   6.240   4.654 -1.2369 -0.7174  0.6994
 2301SOL     OW24512   4.628  10.339  11.305  0.2608  0.1169  0.3039
 2301SOL    HW124513   4.691  10.302  11.367  2.4283  1.5108 -0.9402
 2301SOL    HW224514   4.591  10.263  11.261  0.4152 -0.7734  1.6378
 2302SOL     OW24515  12.772   5.694  11.112 -0.5670 -0.2624 -0.0267
 2302SOL    HW124516  12.798   5.603  11.121  1.8191  0.5164  2.4419
 2302SOL    HW224517  12.850   5.738  11.078 -2.4591  0.6037 -3.7093
 2303SOL     OW24518  13.324   8.767  12.582 -0.0894  0.7768 -0.3980
 2303SOL    HW124519  13.240   8.724  12.593  0.0961  0.2587 -0.9285
 2303SOL    HW224520  13.308   8.859  12.602 -0.7776  0.6745 -0.4811
 2304SOL     OW24521   0.797   3.979   0.418 -0.8953 -0.1660 -0.1880
 2304SOL    HW124522   0.848   3.973   0.337  0.5063 -1.0781  0.7220
 2304SOL    HW224523   0.806   4.070   0.445 -0.6602 -0.0571 -0.6200
 2305SOL     OW24524  12.952   7.329   7.042  0.3658 -0.2906  0.0273
 2305SOL    HW124525  12.875   7.274   7.055  1.2781 -0.9829  3.1606
 2305SOL    HW224526  12.917   7.418   7.037 -0.7633 -0.7446 -0.4566
 2306SOL     OW24527  10.888   2.195   9.686 -0.2084 -0.4568 -0.1666
 2306SOL    HW124528  10.848   2.257   9.625  0.3819 -1.0299 -1.1612
 2306SOL    HW224529  10.882   2.238   9.771 -1.0312  0.3741 -0.6209
 2307SOL     OW24530   1.861  11.665   6.621 -0.7542  0.0466 -0.3278
 2307SOL    HW124531   1.939  11.626   6.582 -0.9880  0.7170 -1.4909
 2307SOL    HW224532   1.794  11.598   6.612 -0.9897  0.4472 -1.7469
 2308SOL     OW24533   1.145   1.523   3.252  0.6236  0.1769  0.0109
 2308SOL    HW124534   1.184   1.558   3.172  0.4835 -0.9582 -0.5837
 2308SOL    HW224535   1.142   1.597   3.312  0.5935  1.0981 -1.0816
 2309SOL     OW24536  13.122   7.544   7.214  0.5808  0.0980 -0.1989
 2309SOL    HW124537  13.043   7.561   7.163 -0.0300  0.4619  0.8270
 2309SOL    HW224538  13.127   7.448   7.219  0.8167  0.0471 -1.1603
 2310SOL     OW24539   7.497   2.343   0.693  0.6053  0.1808  0.1428
 2310SOL    HW124540   7.481   2.407   0.762 -0.3158 -0.7351  0.8104
 2310SOL    HW224541   7.427   2.278   0.704  2.5595 -1.9683  0.7261
 2311SOL     OW24542   8.479   0.998   0.089 -0.1302  0.0709 -0.1661
 2311SOL    HW124543   8.563   0.988   0.133  0.5681  0.3059 -1.4005
 2311SOL    HW224544   8.496   0.975  -0.003 -1.6741 -1.0130 -0.2190
 2312SOL     OW24545   1.520   0.612   3.900 -0.2252 -0.0366 -0.1577
 2312SOL    HW124546   1.575   0.562   3.961 -1.6117  0.4093  1.5539
 2312SOL    HW224547   1.558   0.700   3.900 -0.1553 -0.0667 -0.0024
 2313SOL     OW24548  12.085  11.607  11.022 -0.1955  1.0483  0.4519
 2313SOL    HW124549  12.054  11.599  11.112  0.0689 -0.2236  0.4459
 2313SOL    HW224550  12.016  11.655  10.977 -1.1960  0.0773  0.9122
 2314SOL     OW24551   1.884   7.974   3.748 -0.4649 -0.2012 -0.2289
 2314SOL    HW124552   1.929   7.912   3.690 -1.0353  1.3346 -2.4015
 2314SOL    HW224553   1.792   7.948   3.744 -0.7468  0.8694 -1.3522
 2315SOL     OW24554   2.960   7.206   0.725  0.0638 -0.2995  0.0358
 2315SOL    HW124555   3.020   7.280   0.716  1.6730 -1.4213  1.0636
 2315SOL    HW224556   2.874   7.247   0.739  0.7331  1.3526 -0.4461
 2316SOL     OW24557   0.861  13.271  10.391  0.2780 -0.1713 -0.1718
 2316SOL    HW124558   0.776  13.247  10.355  0.5478  1.9576 -2.4880
 2316SOL    HW224559   0.844  13.355  10.435  0.6214 -1.2126  2.0723
 2317SOL     OW24560   0.677   6.301   5.187  0.0216  0.4279 -0.0866
 2317SOL    HW124561   0.700   6.394   5.184 -0.1689  0.4821  0.0685
 2317SOL    HW224562   0.614   6.290   5.116  0.0283  0.4230 -0.0916
 2318SOL     OW24563  10.598  12.318   2.830 -0.2925 -0.0710  0.1326
 2318SOL    HW124564  10.526  12.290   2.887 -1.8901  1.6056 -0.9154
 2318SOL    HW224565  10.564  12.306   2.742  0.1534  1.9850 -0.3741
 2319SOL     OW24566   8.057   1.353  13.372 -0.9469  0.2544 -0.2025
 2319SOL    HW124567   8.114   1.376  13.445  1.1176  1.6869 -2.1028
 2319SOL    HW224568   7.970   1.382  13.399 -0.2840  0.5905  1.7231
 2320SOL     OW24569  12.003   0.692  13.081  0.3706  0.4250 -0.1448
 2320SOL    HW124570  12.016   0.642  13.001 -1.9288 -0.9635  0.2740
 2320SOL    HW224571  12.080   0.750  13.085  2.4647 -2.0690 -1.3473
 2321SOL     OW24572   9.411   0.164   0.079 -0.0347  0.1190  0.2883
 2321SOL    HW124573   9.474   0.092   0.077  0.9820  0.9547 -1.9166
 2321SOL    HW224574   9.462   0.240   0.108 -0.6735  0.3113  0.9365
 2322SOL     OW24575   3.271   9.613   0.293  0.2229 -0.1293  0.0733
 2322SOL    HW124576   3.243   9.530   0.330 -2.1322  1.9241  3.5639
 2322SOL    HW224577   3.363   9.621   0.319  0.2660 -1.3414  0.3248
 2323SOL     OW24578   8.923  11.662   6.796  0.0155  0.0979 -0.3263
 2323SOL    HW124579   9.014  11.654   6.767 -0.2132 -0.3966 -0.9350
 2323SOL    HW224580   8.886  11.729   6.737  0.9315  3.1519  2.3018
 2324SOL     OW24581   1.679  12.288   8.927 -0.2254 -0.7527 -0.1085
 2324SOL    HW124582   1.626  12.349   8.876  2.5445  2.2707  0.3407
 2324SOL    HW224583   1.748  12.260   8.868  0.3089 -1.0075  0.6150
 2325SOL     OW24584   1.037  12.550   9.913 -0.6948  0.1917 -0.3908
 2325SOL    HW124585   1.028  12.615   9.983 -0.7858 -0.8861  0.6517
 2325SOL    HW224586   1.109  12.493   9.943  0.7122  0.9193 -2.2082
 2326SOL     OW24587   0.692   4.016  10.813  0.3760 -0.3692 -0.4336
 2326SOL    HW124588   0.735   4.101  10.805 -0.5992  0.1378 -0.4566
 2326SOL    HW224589   0.617   4.021  10.753 -0.5580 -0.6634  0.6617
 2327SOL     OW24590   9.309  10.645   9.598  0.1111  0.1717 -0.0170
 2327SOL    HW124591   9.276  10.656   9.687  1.5403  0.9033  0.4579
 2327SOL    HW224592   9.234  10.613   9.548 -0.5456 -0.8712  1.5712
 2328SOL     OW24593   0.883   6.540  10.474 -0.0507  0.2043 -0.4449
 2328SOL    HW124594   0.914   6.477  10.539 -0.6718  0.8607  0.5163
 2328SOL    HW224595   0.881   6.491  10.392  2.2972 -0.2080 -0.3230
 2329SOL     OW24596   5.308   6.235  12.237  0.0651  0.2407  0.5166
 2329SOL    HW124597   5.403   6.240  12.233  0.0016  1.2513 -0.6205
 2329SOL    HW224598   5.284   6.174  12.167 -0.1722  1.6784 -0.7403
 2330SOL     OW24599  10.897   4.836  12.386 -0.2013 -0.2183 -0.2262
 2330SOL    HW124600  10.861   4.894  12.318 -0.4270 -0.5694 -0.4068
 2330SOL    HW224601  10.843   4.852  12.463  0.6352  0.8771  0.1707
 2331SOL     OW24602   7.411  12.781   5.450  0.1424 -0.0496  0.1773
 2331SOL    HW124603   7.346  12.826   5.396 -0.3998 -0.7018  0.2791
 2331SOL    HW224604   7.389  12.806   5.540 -0.6733 -1.1589  0.2985
 2332SOL     OW24605   7.242   3.993   0.999  0.3486 -0.1618 -0.0920
 2332SOL    HW124606   7.192   4.043   0.935 -1.2679 -0.6239  0.7450
 2332SOL    HW224607   7.323   4.042   1.010  0.0922  0.6279 -1.4937
 2333SOL     OW24608   6.450   2.487   1.155 -0.0305 -0.3352  0.1070
 2333SOL    HW124609   6.390   2.543   1.204 -1.0176  0.7361 -2.1950
 2333SOL    HW224610   6.537   2.508   1.191 -0.5809  1.3028  0.5686
 2334SOL     OW24611   3.355   9.001   3.728 -0.0025  0.3465 -0.1581
 2334SOL    HW124612   3.341   9.084   3.683 -1.9448 -0.3515 -0.9747
 2334SOL    HW224613   3.329   9.018   3.819 -0.4586  0.6338 -0.3373
 2335SOL     OW24614   0.107   9.999   3.104 -0.0223  0.0912 -0.4137
 2335SOL    HW124615   0.069  10.014   3.018 -1.0330  3.0916  0.4521
 2335SOL    HW224616   0.188   9.950   3.086  0.1912  1.2684 -3.1335
 2336SOL     OW24617  13.344   6.704   3.820  0.3101 -0.3400 -0.2335
 2336SOL    HW124618  13.290   6.696   3.742 -1.5343  3.5718  0.3902
 2336SOL    HW224619  13.288   6.677   3.892  0.3617  0.4633  0.1191
 2337SOL     OW24620   7.441   9.635   3.138 -0.2189  1.2756  0.1332
 2337SOL    HW124621   7.424   9.711   3.195  0.0471  1.2250  0.2827
 2337SOL    HW224622   7.367   9.633   3.077 -2.0689 -0.3945  2.2853
 2338SOL     OW24623   4.547  10.357   6.729  0.7868 -0.3154  0.2404
 2338SOL    HW124624   4.612  10.290   6.708  0.3251 -0.5401 -0.4933
 2338SOL    HW224625   4.593  10.440   6.718  0.6729 -0.4372 -1.3085
 2339SOL     OW24626  13.762  11.025   3.939 -0.1870 -0.5204  0.8602
 2339SOL    HW124627  13.714  10.952   3.902 -0.4639 -0.3805  0.9430
 2339SOL    HW224628  13.704  11.061   4.006  0.4628 -1.0148  1.7069
 2340SOL     OW24629   8.681  13.514   7.683 -0.2230  0.1159 -0.3256
 2340SOL    HW124630   8.624  13.543   7.612 -0.7843 -0.6533 -0.2120
 2340SOL    HW224631   8.662  13.574   7.755 -0.9574 -0.1729 -0.2673
 2341SOL     OW24632  12.709   3.463   4.454 -0.1023 -0.4480  0.5895
 2341SOL    HW124633  12.697   3.423   4.368  0.3713 -0.4742  0.5335
 2341SOL    HW224634  12.803   3.479   4.460 -0.3323  1.1073  0.4047
 2342SOL     OW24635  11.557   2.064   2.516 -0.3964  0.2888 -0.0420
 2342SOL    HW124636  11.484   2.119   2.541 -0.5380 -0.2274  0.7415
 2342SOL    HW224637  11.594   2.106   2.439 -2.0771  0.0567 -1.0192
 2343SOL     OW24638   6.575   9.988   2.988  0.1195  0.1976  0.1689
 2343SOL    HW124639   6.611  10.030   3.066 -0.2335  1.8116 -0.4864
 2343SOL    HW224640   6.480  10.000   2.997 -0.0125 -0.7351  0.0941
 2344SOL     OW24641  10.910  11.777   0.850  0.9128 -0.4488  0.0697
 2344SOL    HW124642  10.916  11.801   0.758  2.7735  0.1517  0.3133
 2344SOL    HW224643  10.990  11.727   0.867  1.1909  0.4728  1.6441
 2345SOL     OW24644  10.989   3.488  11.744  0.0482 -0.4986  0.5039
 2345SOL    HW124645  10.915   3.458  11.796 -0.2954 -0.2613  0.1611
 2345SOL    HW224646  10.994   3.427  11.671 -0.7514  0.3399 -0.2788
 2346SOL     OW24647   1.205   7.719   5.616  0.0082  0.1418 -0.7036
 2346SOL    HW124648   1.273   7.785   5.602 -0.4604  0.7139 -0.3155
 2346SOL    HW224649   1.129   7.752   5.570 -0.6513  0.5737  0.6680
 2347SOL     OW24650   4.185   1.207   9.598 -0.2978  0.7649 -0.0659
 2347SOL    HW124651   4.166   1.297   9.623 -1.8660  0.9938 -1.7968
 2347SOL    HW224652   4.257   1.214   9.535  1.0531  0.5601  1.4082
 2348SOL     OW24653  11.110  10.286   6.896  0.7281 -0.1229 -0.2955
 2348SOL    HW124654  11.171  10.235   6.949  0.2812 -1.4718 -1.0209
 2348SOL    HW224655  11.074  10.223   6.833 -0.6603  0.8481 -0.5339
 2349SOL     OW24656  13.614   3.120  12.289  0.4167 -0.0765  0.1552
 2349SOL    HW124657  13.643   3.051  12.348  1.5291  0.1992 -0.0335
 2349SOL    HW224658  13.529   3.091  12.256  0.3822 -0.8359  0.8924
 2350SOL     OW24659   0.172  10.681   7.903 -0.5001 -0.3399 -0.0616
 2350SOL    HW124660   0.088  10.667   7.861  0.4638 -2.1316 -1.5213
 2350SOL    HW224661   0.192  10.597   7.946  0.4672  0.1163  0.4100
 2351SOL     OW24662  10.981  10.751   1.976 -0.3614 -0.2851  0.6634
 2351SOL    HW124663  11.061  10.727   2.023 -0.3696 -1.4059  0.1423
 2351SOL    HW224664  10.968  10.680   1.913 -2.3650 -0.7075  1.4748
 2352SOL     OW24665  10.830   1.735   4.732 -0.4640  0.0994 -0.4282
 2352SOL    HW124666  10.738   1.755   4.746 -0.9163 -0.8663 -1.7650
 2352SOL    HW224667  10.835   1.706   4.640  1.0011 -0.7251 -0.1336
 2353SOL     OW24668   3.183  13.624   1.566 -0.4855  0.4759  0.0679
 2353SOL    HW124669   3.140  13.539   1.566 -1.7659  1.0275 -1.9210
 2353SOL    HW224670   3.117  13.684   1.529  1.1105  1.8810 -0.6799
 2354SOL     OW24671   0.283   3.642  12.217  0.4513 -0.3568 -0.5252
 2354SOL    HW124672   0.267   3.605  12.130 -1.6410  1.3098 -0.9278
 2354SOL    HW224673   0.199   3.678  12.243  0.9770 -0.9611  2.3150
 2355SOL     OW24674   0.803   3.690   0.561  0.6823 -0.7148  0.0838
 2355SOL    HW124675   0.799   3.598   0.535 -0.7759 -0.8346  0.6518
 2355SOL    HW224676   0.719   3.707   0.603  0.9029  0.9049 -0.0702
 2356SOL     OW24677   1.840   5.498   9.565  0.4540  0.1400 -0.2871
 2356SOL    HW124678   1.864   5.454   9.646  1.1396  0.1938 -0.4520
 2356SOL    HW224679   1.915   5.554   9.545 -0.0203  0.6906 -0.5645
 2357SOL     OW24680   3.689   0.472   7.059  0.3611  0.2489 -0.3479
 2357SOL    HW124681   3.733   0.390   7.083  2.7684  1.0539 -1.6943
 2357SOL    HW224682   3.629   0.489   7.132  0.4140 -2.2278  0.3773
 2358SOL     OW24683   5.135   8.861   5.127  0.7797  0.3604 -0.0842
 2358SOL    HW124684   5.158   8.887   5.038  1.1737  0.2917 -0.0048
 2358SOL    HW224685   5.039   8.853   5.126  0.8290 -0.2615 -0.6764
 2359SOL     OW24686  12.579   0.879   7.973  0.8183 -0.1529 -0.7581
 2359SOL    HW124687  12.582   0.835   8.058  1.0481 -1.5136 -1.4452
 2359SOL    HW224688  12.559   0.970   7.994 -1.9143 -0.9451  0.6215
 2360SOL     OW24689  13.755  10.025   8.297  0.1746  0.3456 -0.4508
 2360SOL    HW124690  13.749  10.109   8.252 -1.5544  0.6655  0.3243
 2360SOL    HW224691  13.803   9.969   8.235 -3.7187  0.1738 -3.7556
 2361SOL     OW24692  12.727  10.147   1.401 -0.0026 -0.6729 -0.4251
 2361SOL    HW124693  12.775  10.192   1.331 -1.2557 -0.1872 -0.9944
 2361SOL    HW224694  12.645  10.119   1.360 -0.8454 -0.2320  0.8806
 2362SOL     OW24695   8.571   8.542   8.530 -0.3965 -0.3634  0.0292
 2362SOL    HW124696   8.630   8.551   8.605  0.1651  0.6839 -0.5092
 2362SOL    HW224697   8.554   8.448   8.524  1.7463 -0.8026 -0.1695
 2363SOL     OW24698   0.160   1.226  12.962 -0.7485 -0.9280  0.0347
 2363SOL    HW124699   0.074   1.269  12.968  0.3548  1.6482 -1.1853
 2363SOL    HW224700   0.147   1.158  12.896 -1.7575 -0.2112 -0.5498
 2364SOL     OW24701  11.281  12.120   1.286 -0.2644  0.5772  0.1744
 2364SOL    HW124702  11.271  12.211   1.314  0.5270  0.7659 -0.1272
 2364SOL    HW224703  11.376  12.109   1.275 -0.4132 -0.0749 -0.4892
 2365SOL     OW24704   1.685   5.040   7.085  0.0929  0.3473 -0.0929
 2365SOL    HW124705   1.741   5.094   7.141 -0.9362 -0.7492  2.1182
 2365SOL    HW224706   1.733   4.959   7.074  0.4818  0.7132 -1.2159
 2366SOL     OW24707   5.539   3.856   4.256 -0.3996 -0.0554 -0.5267
 2366SOL    HW124708   5.469   3.908   4.296  1.0139  0.1020  1.9778
 2366SOL    HW224709   5.586   3.918   4.200 -1.5723  0.1010 -1.3733
 2367SOL     OW24710   4.057  11.975  13.981 -0.2163 -0.4879  0.1780
 2367SOL    HW124711   4.106  11.903  13.941 -0.5473  0.5446 -2.2634
 2367SOL    HW224712   4.124  12.033  14.018  0.3506 -0.0093 -1.5265
 2368SOL     OW24713   2.349   5.259   1.404 -0.0698  0.0945  0.3865
 2368SOL    HW124714   2.416   5.226   1.344 -0.7180 -0.2663 -0.1425
 2368SOL    HW224715   2.377   5.349   1.424  1.6275 -0.6664  1.7181
 2369SOL     OW24716   4.174   5.123   1.138  0.9947  0.4282  0.1058
 2369SOL    HW124717   4.208   5.034   1.125 -0.1909 -0.1385  0.6797
 2369SOL    HW224718   4.134   5.145   1.054  0.1919 -0.0997  0.3367
 2370SOL     OW24719  11.619   8.904  11.699 -0.2022 -0.5397  0.1355
 2370SOL    HW124720  11.692   8.874  11.645 -0.3312 -1.9595  0.7128
 2370SOL    HW224721  11.561   8.949  11.638 -0.6316 -2.5950 -1.0645
 2371SOL     OW24722  13.244  13.868   0.037 -0.1877  0.5521  0.1192
 2371SOL    HW124723  13.218  13.858  -0.054  0.2939  3.0814 -0.3541
 2371SOL    HW224724  13.248  13.962   0.051  1.6627  0.2495  2.2002
 2372SOL     OW24725  12.580  12.110  13.084  0.0317 -0.1683  0.2119
 2372SOL    HW124726  12.515  12.141  13.147  0.7628 -0.0038  0.9090
 2372SOL    HW224727  12.664  12.134  13.123  0.5703 -1.6151  0.0185
 2373SOL     OW24728  11.719   4.830  13.977 -0.8364 -0.2509 -0.4640
 2373SOL    HW124729  11.741   4.872  14.060  0.4552 -0.8644 -0.4910
 2373SOL    HW224730  11.679   4.901  13.926  0.3029  0.6940 -0.1047
 2374SOL     OW24731   2.185   8.896  12.123  0.4255  0.1223  0.2460
 2374SOL    HW124732   2.154   8.951  12.051  0.8782  0.9781  0.6859
 2374SOL    HW224733   2.197   8.810  12.084 -0.6314  0.2423 -0.3796
 2375SOL     OW24734   1.541  11.507   7.093  0.1022  0.1298  0.0653
 2375SOL    HW124735   1.617  11.513   7.150 -0.1583  0.9142  0.3337
 2375SOL    HW224736   1.472  11.472   7.149  0.0296  0.2519  0.0524
 2376SOL     OW24737   3.469   4.635  12.497  0.0633  0.2054 -0.0927
 2376SOL    HW124738   3.389   4.671  12.534  0.4751  0.0132  1.0018
 2376SOL    HW224739   3.522   4.611  12.572  0.8242 -0.4063 -0.8076
 2377SOL     OW24740   2.113   6.165  12.717 -0.3562 -0.0934  0.2711
 2377SOL    HW124741   2.192   6.115  12.737  0.8302  1.6213  0.1112
 2377SOL    HW224742   2.105   6.162  12.622 -1.2745 -1.3818  0.3738
 2378SOL     OW24743  11.582  10.125   8.141 -0.5416 -0.6017  0.0015
 2378SOL    HW124744  11.493  10.092   8.145 -0.7650  0.0294  0.3605
 2378SOL    HW224745  11.603  10.128   8.048 -1.5877  1.0643 -0.2099
 2379SOL     OW24746   9.805   1.853   6.613 -0.2384  0.0074  0.0044
 2379SOL    HW124747   9.873   1.834   6.679  2.4827 -1.0227 -2.8282
 2379SOL    HW224748   9.845   1.919   6.556 -2.3562  0.6416 -0.8181
 2380SOL     OW24749   6.587   9.326   2.986 -0.8608  0.1781  0.0039
 2380SOL    HW124750   6.524   9.315   2.915 -0.5847  0.0962 -0.2290
 2380SOL    HW224751   6.644   9.249   2.980 -0.3857  0.5404 -0.1432
 2381SOL     OW24752   5.978   2.079   9.498 -0.2056  0.4473 -0.4530
 2381SOL    HW124753   6.050   2.045   9.444 -0.6362 -0.1177 -0.6805
 2381SOL    HW224754   6.022   2.119   9.574  0.3290 -0.2547 -0.3840
 2382SOL     OW24755  13.505  12.671  12.148  0.1983  0.0050 -0.2261
 2382SOL    HW124756  13.527  12.643  12.237  1.8923 -1.7696 -1.1184
 2382SOL    HW224757  13.434  12.613  12.121 -0.5757  0.7927  0.0646
 2383SOL     OW24758  12.261   9.217  10.996 -0.0472  0.4056  0.2685
 2383SOL    HW124759  12.292   9.308  10.989 -0.4350  0.5925  0.9270
 2383SOL    HW224760  12.185   9.222  11.053 -0.1018 -0.3314  0.2632
 2384SOL     OW24761   8.597  13.044   0.911  0.0085  0.3890 -0.2434
 2384SOL    HW124762   8.509  13.011   0.930  0.3454 -2.1199 -2.4887
 2384SOL    HW224763   8.583  13.117   0.851 -0.5259 -0.0908 -0.7047
 2385SOL     OW24764  10.831   9.753   4.745 -0.0705  0.4572  0.5807
 2385SOL    HW124765  10.784   9.751   4.662  1.0590  1.0254 -0.1053
 2385SOL    HW224766  10.845   9.661   4.767 -1.8980  0.2609  1.0681
 2386SOL     OW24767   4.231   2.570   6.042 -0.1497  0.6323  0.1977
 2386SOL    HW124768   4.305   2.555   6.101 -0.2103  0.5389  0.2499
 2386SOL    HW224769   4.167   2.617   6.095 -0.6891 -0.4700  0.5561
 2387SOL     OW24770   5.480  10.922  11.848  0.1167 -0.4546 -0.0429
 2387SOL    HW124771   5.474  10.839  11.800 -0.6821 -1.3793  1.5528
 2387SOL    HW224772   5.393  10.960  11.841  0.0561 -0.4930  0.5008
 2388SOL     OW24773   2.527   0.527   2.809 -0.6208 -0.3407 -0.3348
 2388SOL    HW124774   2.548   0.435   2.795 -2.0329 -0.8350  0.6782
 2388SOL    HW224775   2.543   0.568   2.723  0.9003 -1.3222 -0.5623
 2389SOL     OW24776   3.027  10.024  11.940 -0.0920  0.7573 -0.7725
 2389SOL    HW124777   2.975  10.074  12.003  0.0299 -0.5811  0.4164
 2389SOL    HW224778   2.972   9.948  11.919  1.0094 -0.2470 -0.1264
 2390SOL     OW24779   0.003  11.672  11.478 -0.0966 -0.3906  0.4056
 2390SOL    HW124780   0.035  11.729  11.408  1.2024  0.7662  1.8557
 2390SOL    HW224781   0.014  11.583  11.444 -0.3165  0.1513 -1.1639
 2391SOL     OW24782   2.831   7.234   4.397  0.0248 -0.8078  0.7594
 2391SOL    HW124783   2.759   7.296   4.386  0.6421 -0.1921  0.0122
 2391SOL    HW224784   2.808   7.183   4.475 -0.6430  0.1723  1.2283
 2392SOL     OW24785  11.677  12.649   7.488  0.0234 -0.5780 -0.7405
 2392SOL    HW124786  11.592  12.655   7.531  0.2793  1.1894 -0.3922
 2392SOL    HW224787  11.730  12.597   7.549 -0.2673 -0.0499 -0.0168
 2393SOL     OW24788   9.265   3.241   3.664  0.4814 -0.0517 -0.4931
 2393SOL    HW124789   9.215   3.321   3.680  0.6426 -0.2021  0.8953
 2393SOL    HW224790   9.356   3.269   3.666  0.5458 -0.2934  0.2156
 2394SOL     OW24791  11.651   9.995   1.068 -0.0458  0.2034  0.0505
 2394SOL    HW124792  11.653  10.083   1.029  2.0637 -0.2872 -1.0593
 2394SOL    HW224793  11.737   9.984   1.108 -1.0750 -0.5421  2.1800
 2395SOL     OW24794   0.927  11.011  13.724 -0.1568  0.0140  0.4958
 2395SOL    HW124795   0.843  10.991  13.766  0.5441 -2.4737  0.8819
 2395SOL    HW224796   0.954  11.094  13.762 -1.9542  0.3534  1.1220
 2396SOL     OW24797   3.471   2.097  11.388  0.4351  0.3229  0.6637
 2396SOL    HW124798   3.472   2.077  11.294 -2.0566  1.2362  0.3854
 2396SOL    HW224799   3.557   2.136  11.404  0.6642  0.8079 -1.3991
 2397SOL     OW24800  11.334   2.438  13.049  0.1672 -0.0833  0.0069
 2397SOL    HW124801  11.273   2.512  13.055 -0.3340 -0.4410 -0.5616
 2397SOL    HW224802  11.280   2.365  13.019  1.1852  0.0282 -2.3984
 2398SOL     OW24803   8.799  10.394  12.927 -0.0877 -0.1537 -0.2464
 2398SOL    HW124804   8.778  10.465  12.989  0.0890 -1.1281  0.9648
 2398SOL    HW224805   8.853  10.334  12.978  1.3057 -0.2756 -1.7866
 2399SOL     OW24806   1.676  10.765   2.478 -0.4926  0.1099  0.5170
 2399SOL    HW124807   1.758  10.812   2.485  0.7104 -2.0628  2.7606
 2399SOL    HW224808   1.615  10.813   2.534 -0.4512  1.0927 -0.2614
 2400SOL     OW24809   4.087   0.103  10.349 -0.4616 -0.0229  0.4550
 2400SOL    HW124810   4.011   0.158  10.367  0.2265  1.3525 -0.5957
 2400SOL    HW224811   4.148   0.162  10.305  1.5671 -0.8720  2.0062
 2401SOL     OW24812   0.543   8.501   8.513  0.3703 -0.6276 -0.1458
 2401SOL    HW124813   0.536   8.509   8.418  0.1287  0.2095 -0.0664
 2401SOL    HW224814   0.488   8.426   8.534 -0.1651 -0.3765 -0.6007
 2402SOL     OW24815   0.419  13.947  12.561 -0.1330  0.0088  0.5950
 2402SOL    HW124816   0.444  13.894  12.636 -2.6303  1.0082  2.2729
 2402SOL    HW224817   0.395  14.032  12.598  1.5021  1.5929 -1.7414
 2403SOL     OW24818  12.874   1.879   3.314  0.0493 -0.4213 -0.4111
 2403SOL    HW124819  12.852   1.971   3.321  1.4838  0.0271 -1.3450
 2403SOL    HW224820  12.955   1.877   3.262  0.1758 -2.1794 -0.2239
 2404SOL     OW24821   8.636   4.024   1.332 -0.3122  0.1514 -0.0228
 2404SOL    HW124822   8.620   4.103   1.281  0.8507 -0.7554 -1.9017
 2404SOL    HW224823   8.550   3.999   1.366 -1.0328  1.1319 -1.0579
 2405SOL     OW24824   2.875  12.663   3.952 -0.5025 -0.7715 -0.1895
 2405SOL    HW124825   2.855  12.735   4.011 -0.6766 -1.1168  0.1754
 2405SOL    HW224826   2.897  12.590   4.009  0.2417 -0.8479 -0.5667
 2406SOL     OW24827  12.345  11.583   4.035 -0.3659  0.3015  0.1689
 2406SOL    HW124828  12.314  11.516   3.974 -0.5947 -0.3942  1.0443
 2406SOL    HW224829  12.265  11.629   4.062 -0.7470 -1.6398  2.6038
 2407SOL     OW24830   7.249   4.181   6.318 -0.9612  0.2546  0.0729
 2407SOL    HW124831   7.254   4.177   6.222 -0.2266  1.0290  0.0675
 2407SOL    HW224832   7.156   4.183   6.337 -1.1086  0.9267 -0.6661
 2408SOL     OW24833   4.114  13.433   7.230  0.2571  0.1294  0.3483
 2408SOL    HW124834   4.134  13.353   7.181  3.7819  2.0779 -1.8236
 2408SOL    HW224835   4.077  13.493   7.165 -1.7506  0.5776  1.7930
 2409SOL     OW24836   9.954   5.112  10.234  0.8221  0.2282 -0.2859
 2409SOL    HW124837   9.931   5.197  10.271 -0.5807 -0.1162 -0.2952
 2409SOL    HW224838   9.993   5.065  10.308  1.9929  1.0047 -0.3908
 2410SOL     OW24839  13.139   2.470   3.411  0.7424 -0.4113  0.1325
 2410SOL    HW124840  13.061   2.417   3.428  0.9343 -0.8529 -0.3519
 2410SOL    HW224841  13.180   2.480   3.497  0.3439 -0.4769  0.3347
 2411SOL     OW24842   6.202  10.120   0.741 -0.6082 -0.2666 -0.9158
 2411SOL    HW124843   6.161  10.055   0.797 -1.6721  1.5113  0.4831
 2411SOL    HW224844   6.293  10.091   0.732 -0.9625 -1.7251 -0.0682
 2412SOL     OW24845   0.378  11.884  11.245  0.5716 -0.5168 -0.1182
 2412SOL    HW124846   0.362  11.927  11.329 -0.6866 -0.4162 -0.3911
 2412SOL    HW224847   0.334  11.939  11.180  0.3349 -1.3314 -0.6658
 2413SOL     OW24848  10.151   3.579  10.748 -0.2477  0.2192 -0.2712
 2413SOL    HW124849  10.147   3.655  10.806 -0.7184  0.6255 -0.8245
 2413SOL    HW224850  10.232   3.535  10.771 -0.1784  0.6596  0.3444
 2414SOL     OW24851   3.315   2.967   2.300 -0.2627  0.4484  0.2013
 2414SOL    HW124852   3.398   3.013   2.288  0.5044 -0.4495  1.7795
 2414SOL    HW224853   3.325   2.886   2.250  0.0781  0.0609  0.8767
 2415SOL     OW24854  10.981   0.537   3.682  0.2416 -0.3091  0.5492
 2415SOL    HW124855  11.002   0.464   3.624  0.4657 -0.1245  0.3962
 2415SOL    HW224856  11.049   0.535   3.750 -0.2702 -0.7919  1.0600
 2416SOL     OW24857  13.992   0.985  13.968  0.3280  0.1735  0.1108
 2416SOL    HW124858  13.978   0.893  13.990 -0.3877  0.6525  1.8513
 2416SOL    HW224859  14.063   0.984  13.904 -0.4677 -1.6562 -0.7985
 2417SOL     OW24860  12.749   8.175   1.267  1.0236 -0.3233 -0.2628
 2417SOL    HW124861  12.789   8.089   1.283  0.1425 -0.5979  0.6132
 2417SOL    HW224862  12.655   8.156   1.259  0.8567  0.5266 -0.3564
 2418SOL     OW24863  11.795  11.861   1.984 -0.5048  0.8143 -0.2786
 2418SOL    HW124864  11.878  11.899   2.012 -0.4743  0.3000  0.3576
 2418SOL    HW224865  11.729  11.908   2.035 -0.4208 -0.4072  1.0024
 2419SOL     OW24866   9.732   5.375  11.735 -0.4690 -0.0444  0.0972
 2419SOL    HW124867   9.772   5.288  11.742 -0.5514 -0.1787 -0.9693
 2419SOL    HW224868   9.807   5.436  11.733 -0.3674 -0.1821 -0.3518
 2420SOL     OW24869  11.336   6.844   2.221  0.2024 -0.3677 -0.3764
 2420SOL    HW124870  11.295   6.796   2.293 -0.4619 -1.4007 -1.4146
 2420SOL    HW224871  11.379   6.918   2.263 -0.4426 -0.7727  1.0475
 2421SOL     OW24872   5.283  12.755   7.834  0.8111 -0.5848  1.0104
 2421SOL    HW124873   5.206  12.810   7.822  0.0088 -1.6897  0.9446
 2421SOL    HW224874   5.286  12.739   7.929  0.7029 -0.8869  0.9649
 2422SOL     OW24875   1.038   4.522  12.593  0.6385  0.0641  0.1770
 2422SOL    HW124876   1.009   4.478  12.673 -2.2217 -1.3197 -1.4632
 2422SOL    HW224877   0.960   4.563  12.558  1.6579  0.1699 -2.1704
 2423SOL     OW24878  12.671   5.442   2.246  0.1564  0.0278 -0.1336
 2423SOL    HW124879  12.597   5.386   2.273  0.3542 -0.1766 -0.0167
 2423SOL    HW224880  12.743   5.381   2.231  0.3466  0.2449 -0.1007
 2424SOL     OW24881   2.973  11.985   9.664  0.2930  0.0363 -0.4444
 2424SOL    HW124882   2.916  12.042   9.716  0.2018 -0.6726  0.2573
 2424SOL    HW224883   3.045  12.042   9.637  0.3916  0.4094  0.5477
 2425SOL     OW24884  11.927  12.908   1.538  0.7897  0.4135  0.5682
 2425SOL    HW124885  11.976  12.866   1.608  1.1275 -0.8493 -0.3965
 2425SOL    HW224886  11.856  12.847   1.517 -0.6821  1.7821  1.3022
 2426SOL     OW24887   3.630  10.262   6.762 -0.1421  0.9226 -0.0209
 2426SOL    HW124888   3.665  10.202   6.696 -0.9294 -0.2674  0.6177
 2426SOL    HW224889   3.652  10.222   6.846 -1.9450  0.7349  0.4070
 2427SOL     OW24890   6.833  10.952   5.367 -0.2308 -0.3345 -0.0755
 2427SOL    HW124891   6.818  11.045   5.349 -1.2118 -0.3721  0.5210
 2427SOL    HW224892   6.818  10.909   5.283 -1.1311 -0.1026 -0.0396
 2428SOL     OW24893   7.162   7.429  13.592 -0.3714 -0.4405  0.4405
 2428SOL    HW124894   7.173   7.524  13.600  1.2823 -0.6474  1.0620
 2428SOL    HW224895   7.236   7.402  13.539 -0.9359 -1.3738  0.1208
 2429SOL     OW24896   6.484   5.325   2.534 -0.4305  0.4743  0.1926
 2429SOL    HW124897   6.444   5.401   2.492 -1.4781  0.2384  0.7260
 2429SOL    HW224898   6.578   5.343   2.530 -0.4211  0.3003 -2.5277
 2430SOL     OW24899   0.320  10.714   3.074  0.6971  0.1366  0.4635
 2430SOL    HW124900   0.325  10.645   3.139 -2.9904 -1.4848 -0.6902
 2430SOL    HW224901   0.350  10.674   2.993 -1.7216 -0.3833 -0.2747
 2431SOL     OW24902  11.721   5.750   2.825 -0.2395  0.1949 -0.2842
 2431SOL    HW124903  11.646   5.795   2.863  1.2970  0.8221  2.2675
 2431SOL    HW224904  11.687   5.665   2.797 -1.9915  0.6651  0.3014
 2432SOL     OW24905   4.542   8.191  11.104 -0.6803  0.0595  0.1666
 2432SOL    HW124906   4.488   8.213  11.180 -0.9056  1.0309 -0.2519
 2432SOL    HW224907   4.494   8.229  11.030  0.2331  0.3373 -0.2947
 2433SOL     OW24908  12.878   6.642   9.861 -0.0396  0.4876 -0.0143
 2433SOL    HW124909  12.930   6.672   9.786  0.2926  0.1610  0.0852
 2433SOL    HW224910  12.940   6.596   9.917 -0.6811 -1.1926 -0.6038
 2434SOL     OW24911  10.331   4.221  13.646  0.0244 -0.2061  0.6134
 2434SOL    HW124912  10.392   4.183  13.583 -0.0887  0.9436 -0.2138
 2434SOL    HW224913  10.347   4.172  13.727 -1.4806 -3.3456 -0.8434
 2435SOL     OW24914   8.400   2.355  12.077  0.2460 -0.0716  0.5192
 2435SOL    HW124915   8.416   2.313  11.993 -1.6497  2.0944 -1.0597
 2435SOL    HW224916   8.458   2.431  12.078 -0.2092  0.2777  0.8802
 2436SOL     OW24917  12.212  11.368  10.103 -0.0446  0.3813  0.1959
 2436SOL    HW124918  12.282  11.341  10.043 -0.3836 -0.1667  0.0358
 2436SOL    HW224919  12.141  11.396  10.045  0.9808  3.6354  0.3159
 2437SOL     OW24920  11.472  10.936   8.906 -0.3148  0.1885  0.2231
 2437SOL    HW124921  11.380  10.924   8.883 -0.3332  0.2550  0.2622
 2437SOL    HW224922  11.501  11.008   8.850 -0.6098  0.9936  1.0816
 2438SOL     OW24923   3.397   8.891  10.151 -0.2402 -0.0388  0.2427
 2438SOL    HW124924   3.443   8.808  10.137 -1.3714 -1.3146  3.1588
 2438SOL    HW224925   3.308   8.874  10.122 -0.5286  0.0506  1.0496
 2439SOL     OW24926   6.527  11.527  13.410 -0.4194  0.1366 -0.0003
 2439SOL    HW124927   6.448  11.560  13.453  0.2182  0.5659  0.8959
 2439SOL    HW224928   6.590  11.598  13.419 -0.4833  0.5700 -2.4098
 2440SOL     OW24929   2.351  13.706   1.794 -0.1591 -0.2748 -0.0484
 2440SOL    HW124930   2.283  13.649   1.829  0.8897 -1.0866  0.7142
 2440SOL    HW224931   2.415  13.647   1.756  1.1995  0.3268  1.1927
 2441SOL     OW24932  11.074   8.401   4.418  0.7339 -0.6513  0.7828
 2441SOL    HW124933  11.125   8.480   4.438  0.4142  0.3420 -1.8331
 2441SOL    HW224934  11.084   8.390   4.323 -1.1843 -2.3868  0.7202
 2442SOL     OW24935   8.168   0.284   4.394 -0.4006 -0.1705 -0.1556
 2442SOL    HW124936   8.207   0.339   4.326 -1.4420  0.0508 -0.5999
 2442SOL    HW224937   8.243   0.248   4.442  0.3237  1.8335  0.3263
 2443SOL     OW24938   0.644   8.988  11.465 -0.4337 -0.0763  0.1385
 2443SOL    HW124939   0.608   8.899  11.465  0.2664 -0.3754 -0.4324
 2443SOL    HW224940   0.735   8.976  11.494  0.2309  0.1813 -1.6726
 2444SOL     OW24941   4.348   9.658   3.582 -0.0817 -0.4219  0.4960
 2444SOL    HW124942   4.299   9.711   3.644 -1.8614 -0.3902 -0.8731
 2444SOL    HW224943   4.386   9.588   3.635 -1.5731 -0.4149  1.6278
 2445SOL     OW24944  10.475  11.860  11.886  0.4307  0.1217  0.5618
 2445SOL    HW124945  10.525  11.794  11.839 -0.2639 -1.9783  2.6108
 2445SOL    HW224946  10.384  11.844  11.862  0.3266  1.0531  0.2740
 2446SOL     OW24947   2.037   5.181   2.916 -0.1467 -0.2392 -0.2044
 2446SOL    HW124948   1.971   5.124   2.876  1.3945  0.7879 -4.8581
 2446SOL    HW224949   2.113   5.125   2.929  0.5281  0.1165 -2.3397
 2447SOL     OW24950   1.307   4.767   5.503  0.5626 -0.5099 -0.6147
 2447SOL    HW124951   1.343   4.715   5.431  2.7016 -0.6321  0.4919
 2447SOL    HW224952   1.347   4.732   5.582 -1.6962 -0.3414  0.7048
 2448SOL     OW24953  11.415  12.817   5.193 -0.0241  0.1727 -0.2115
 2448SOL    HW124954  11.508  12.828   5.210 -0.2325  2.5964 -0.3139
 2448SOL    HW224955  11.382  12.772   5.270  1.1981 -0.7068 -0.1654
 2449SOL     OW24956   4.277  13.844   7.210 -1.1023  0.3888 -0.1289
 2449SOL    HW124957   4.317  13.903   7.274  0.2970 -0.3874 -0.2479
 2449SOL    HW224958   4.267  13.897   7.131  0.3390  0.4513 -0.2997
 2450SOL     OW24959  12.993   5.560   2.202  0.3322 -0.3444  0.0414
 2450SOL    HW124960  13.060   5.495   2.181 -0.2807 -0.8576 -0.3990
 2450SOL    HW224961  13.021   5.598   2.285  1.3305 -0.3117 -0.3021
 2451SOL     OW24962  11.744  10.935  11.730 -0.6706  0.2054 -0.3749
 2451SOL    HW124963  11.827  10.959  11.770 -0.3734 -0.8410 -0.3533
 2451SOL    HW224964  11.755  10.953  11.637 -0.0335 -0.9396 -0.5348
 2452SOL     OW24965   6.703   5.604   2.484  0.2394 -0.0801 -0.4034
 2452SOL    HW124966   6.612   5.609   2.456  0.4321 -0.4623 -1.1126
 2452SOL    HW224967   6.753   5.592   2.403  0.7968 -1.3221  0.0928
 2453SOL     OW24968   9.011   1.659   8.846  0.0735  0.6159  0.1238
 2453SOL    HW124969   8.968   1.726   8.899 -1.2159 -1.2409  1.5801
 2453SOL    HW224970   9.090   1.636   8.895 -0.2522  0.0707  0.4057
 2454SOL     OW24971   1.195   8.368  10.235  0.1632  0.1265 -0.0021
 2454SOL    HW124972   1.238   8.370  10.320 -0.2910 -0.2528  0.2411
 2454SOL    HW224973   1.267   8.372  10.172  0.5331 -0.1369  0.3991
 2455SOL     OW24974   3.140  13.331  12.512 -0.3854 -0.2690  0.2849
 2455SOL    HW124975   3.102  13.318  12.425 -0.7865  0.1608  0.3874
 2455SOL    HW224976   3.220  13.380  12.496  0.0953 -1.1002  0.0737
 2456SOL     OW24977  12.494  11.390   8.190 -0.0087 -0.3124  0.4204
 2456SOL    HW124978  12.450  11.474   8.198  0.3780 -0.0752  0.0983
 2456SOL    HW224979  12.490  11.353   8.278  0.8137  0.5546  0.8484
 2457SOL     OW24980   4.980   3.694   7.884 -0.1048  0.0445  0.0487
 2457SOL    HW124981   5.007   3.776   7.843 -0.8463 -0.9508 -2.6303
 2457SOL    HW224982   5.049   3.675   7.948  0.8622  1.9395 -0.3769
 2458SOL     OW24983   7.711   6.515   4.366 -0.1553  0.0462 -0.4777
 2458SOL    HW124984   7.710   6.460   4.444  0.1892 -1.8405 -1.7415
 2458SOL    HW224985   7.619   6.535   4.349 -0.1392  2.9826  1.9880
 2459SOL     OW24986   6.915  10.023   3.592 -0.4823 -0.1437 -0.5591
 2459SOL    HW124987   6.924  10.115   3.567 -0.1655 -0.0014  0.0606
 2459SOL    HW224988   6.898  10.025   3.686 -0.8632 -0.7054 -0.6082
 2460SOL     OW24989   7.737   1.688   8.985  0.2977  0.5419  0.5845
 2460SOL    HW124990   7.646   1.693   9.012  0.4996  0.1532  1.3660
 2460SOL    HW224991   7.776   1.623   9.044  0.4879 -1.2479 -1.3938
 2461SOL     OW24992   4.973   2.571  12.819 -0.3238 -0.0286  0.1226
 2461SOL    HW124993   4.994   2.658  12.853  0.4967  0.8459 -2.3836
 2461SOL    HW224994   5.057   2.524  12.820 -0.1797  0.1764 -1.0415
 2462SOL     OW24995   8.299   7.228   9.845  0.0282 -0.0534  0.0886
 2462SOL    HW124996   8.271   7.298   9.904  0.6721 -0.9879  1.5427
 2462SOL    HW224997   8.276   7.147   9.891  0.5536 -0.8099 -0.9459
 2463SOL     OW24998   5.660  10.009   4.592 -0.2871 -0.2816  0.6192
 2463SOL    HW124999   5.642  10.091   4.546 -0.9694  0.1914  1.6789
 2463SOL    HW225000   5.600   9.946   4.551  0.7550 -0.4606 -0.6966
 2464SOL     OW25001   1.285   6.084  13.476  0.1530 -0.0458 -0.2725
 2464SOL    HW125002   1.241   6.009  13.516 -1.6318  1.1727  0.1460
 2464SOL    HW225003   1.244   6.093  13.390  1.4453 -0.4390 -0.9688
 2465SOL     OW25004   7.152  10.434  12.656  0.7071  0.2009  0.1119
 2465SOL    HW125005   7.073  10.395  12.694  1.9842 -0.5933  2.1147
 2465SOL    HW225006   7.134  10.439  12.562 -0.7658 -2.2756  0.1739
 2466SOL     OW25007   9.800   8.150   0.799 -0.6055 -0.6295  0.5076
 2466SOL    HW125008   9.767   8.235   0.830 -0.3191  0.5858 -2.1821
 2466SOL    HW225009   9.809   8.097   0.878  1.0126  2.4541  2.6302
 2467SOL     OW25010   3.318   5.471   0.877  0.6567  0.0773 -0.1138
 2467SOL    HW125011   3.392   5.418   0.847  0.7568  0.3257 -0.3118
 2467SOL    HW225012   3.241   5.429   0.840  0.8529  0.9866 -1.6489
 2468SOL     OW25013   5.861   0.911  11.604  0.1044  0.1453  0.5329
 2468SOL    HW125014   5.927   0.935  11.669  1.2502  1.0082 -0.8857
 2468SOL    HW225015   5.853   0.989  11.548 -1.0947 -0.4438 -0.1522
 2469SOL     OW25016   2.507  11.389  13.427 -0.7512 -0.3088 -0.1405
 2469SOL    HW125017   2.419  11.421  13.408 -0.9235 -0.6553  0.0655
 2469SOL    HW225018   2.535  11.345  13.347 -0.3173  0.7808 -0.5984
 2470SOL     OW25019   5.980  10.983   4.691 -0.1045 -0.3538  0.1695
 2470SOL    HW125020   6.066  11.025   4.682 -0.4246  0.2965  0.0448
 2470SOL    HW225021   5.925  11.051   4.730 -0.5789 -0.7509  0.1989
 2471SOL     OW25022   6.968   1.474   2.686 -0.2819  0.0167  0.1357
 2471SOL    HW125023   6.955   1.507   2.774  1.3078 -1.0516  0.8135
 2471SOL    HW225024   6.880   1.449   2.656 -0.7508 -0.2697  1.6779
 2472SOL     OW25025   1.293  11.388   8.907  0.1362 -0.1018  0.1825
 2472SOL    HW125026   1.201  11.401   8.932 -0.1372 -1.8536  0.2383
 2472SOL    HW225027   1.289  11.320   8.839  1.4810 -1.2289  1.1928
 2473SOL     OW25028   8.511  10.254   6.522  0.0301  0.9550 -0.2013
 2473SOL    HW125029   8.471  10.312   6.587  0.2029  3.0286 -1.8383
 2473SOL    HW225030   8.523  10.171   6.568 -3.2350  1.1677  1.2994
 2474SOL     OW25031   9.233   1.639  13.031 -0.1879 -0.0914  0.2816
 2474SOL    HW125032   9.232   1.613  13.123  1.0741  0.6312  0.5215
 2474SOL    HW225033   9.323   1.668  13.015 -0.6857  0.9258 -0.8557
 2475SOL     OW25034  11.434  10.093  11.770  0.3456  0.0344 -0.0132
 2475SOL    HW125035  11.514  10.144  11.777  0.5149 -0.2350  0.0335
 2475SOL    HW225036  11.452  10.028  11.702 -0.2032  0.6427 -0.7528
 2476SOL     OW25037   1.915   3.017   3.097 -0.4773  0.5159 -0.1532
 2476SOL    HW125038   1.917   3.049   3.007  0.9465  1.0183  0.0206
 2476SOL    HW225039   1.891   3.094   3.150  0.9364  0.8433  0.0734
 2477SOL     OW25040   7.891   4.890   3.806 -0.1716  0.5612  0.1149
 2477SOL    HW125041   7.846   4.816   3.847  0.6095  0.4397  0.7841
 2477SOL    HW225042   7.933   4.852   3.729  0.0368  0.3569  0.3284
 2478SOL     OW25043  12.823  11.174   7.205  0.4476  0.0240  0.4850
 2478SOL    HW125044  12.898  11.230   7.184 -1.1013  2.1904  0.3994
 2478SOL    HW225045  12.748  11.234   7.204 -1.5150 -2.3018 -0.9461
 2479SOL     OW25046   8.630   8.403   2.968  0.6159 -0.2638 -0.1592
 2479SOL    HW125047   8.685   8.351   2.910  1.6178 -0.0825  0.6165
 2479SOL    HW225048   8.583   8.339   3.021  0.0982 -0.4151 -0.7774
 2480SOL     OW25049   2.801  12.088   9.875  0.9999  0.3334  0.0748
 2480SOL    HW125050   2.733  12.024   9.895  0.8645 -0.0668 -1.4726
 2480SOL    HW225051   2.842  12.108   9.959 -1.8168  1.5470  1.2646
 2481SOL     OW25052  12.755  10.042   7.411 -0.3742  0.6793  0.0798
 2481SOL    HW125053  12.710  10.108   7.464  0.6590  1.4059  0.0633
 2481SOL    HW225054  12.684  10.002   7.359 -1.4011 -0.0178  1.9188
 2482SOL     OW25055   2.448   3.660  13.442  0.1833  0.0938  0.2083
 2482SOL    HW125056   2.500   3.675  13.364 -1.1263  0.2309 -0.6707
 2482SOL    HW225057   2.480   3.724  13.506 -0.0340  1.3014 -0.8600
 2483SOL     OW25058   4.331   1.009   2.357  0.3161 -0.1173  0.1758
 2483SOL    HW125059   4.391   1.047   2.420  1.3056 -0.5176 -0.5110
 2483SOL    HW225060   4.377   1.012   2.273 -1.0859  0.6815 -0.6190
 2484SOL     OW25061   8.728   1.032   5.754 -0.0364  0.2039 -0.4477
 2484SOL    HW125062   8.747   1.118   5.792  0.8074 -0.1216 -0.1019
 2484SOL    HW225063   8.812   0.987   5.754 -0.3806 -0.4540 -1.0653
 2485SOL     OW25064   1.424  11.688  10.054  0.2324 -0.0293 -0.0566
 2485SOL    HW125065   1.433  11.632  10.131  1.6868  0.0355 -0.1450
 2485SOL    HW225066   1.502  11.744  10.056 -0.4324  0.9480 -0.7958
 2486SOL     OW25067  12.239   2.349   7.490  0.3946  0.1489 -0.0778
 2486SOL    HW125068  12.202   2.284   7.549 -0.0959 -0.7830 -1.3780
 2486SOL    HW225069  12.183   2.347   7.412  1.3467  0.9299 -0.8260
 2487SOL     OW25070   0.522  11.243   8.925  0.2007  0.2163 -0.0234
 2487SOL    HW125071   0.569  11.160   8.934 -0.7785 -0.2714  0.8781
 2487SOL    HW225072   0.590  11.310   8.930  1.1148 -0.5239 -1.5732
 2488SOL     OW25073   6.922   9.023   0.475  0.3060  0.2730 -0.5641
 2488SOL    HW125074   6.892   8.933   0.469 -0.9665  0.6681 -0.4931
 2488SOL    HW225075   7.018   9.017   0.476  0.4365 -0.8397 -4.5870
 2489SOL     OW25076   4.830   5.025  11.924  0.1439 -0.7058 -0.2154
 2489SOL    HW125077   4.869   5.066  11.847 -0.4462  0.7418  0.2279
 2489SOL    HW225078   4.898   5.030  11.991 -0.0653 -0.0563 -0.0436
 2490SOL     OW25079   5.928  10.574   9.746  0.8713  0.4925  0.0799
 2490SOL    HW125080   5.960  10.490   9.778  2.4620  0.7330 -0.7730
 2490SOL    HW225081   6.001  10.609   9.694  0.3132  2.4659  0.5399
 2491SOL     OW25082  11.689  13.496   6.837 -0.1172  0.8319 -0.1249
 2491SOL    HW125083  11.779  13.498   6.869 -0.5028  1.2773  1.0011
 2491SOL    HW225084  11.636  13.518   6.914 -1.2319 -0.0406 -0.6176
 2492SOL     OW25085   8.011   1.296  11.576  0.4395 -0.1120  0.0306
 2492SOL    HW125086   7.927   1.258  11.602  0.9293 -0.6716  0.8450
 2492SOL    HW225087   8.003   1.389  11.597  0.1493 -0.2265  0.4312
 2493SOL     OW25088   6.044   3.494   5.823  0.1003 -0.3811 -0.6926
 2493SOL    HW125089   6.009   3.553   5.890 -0.1158 -1.1430 -0.1182
 2493SOL    HW225090   6.066   3.551   5.750  2.2052  0.7783  0.7358
 2494SOL     OW25091  13.409   4.816  11.445  0.3826  0.3467  0.4350
 2494SOL    HW125092  13.393   4.893  11.391  0.0281 -0.2255 -0.2862
 2494SOL    HW225093  13.499   4.792  11.427  0.4226  0.4587  0.4861
 2495SOL     OW25094   8.689   1.708   8.842 -0.2935 -0.8247  0.8488
 2495SOL    HW125095   8.762   1.730   8.901  2.1327 -0.8803 -1.8877
 2495SOL    HW225096   8.660   1.793   8.808  0.2988 -0.9633 -0.0254
 2496SOL     OW25097  10.297  10.483  12.049 -0.0928  0.7459 -0.1495
 2496SOL    HW125098  10.252  10.433  12.117  1.1475 -1.3389 -0.7727
 2496SOL    HW225099  10.390  10.470  12.067  0.2596  1.1550 -1.5321
 2497SOL     OW25100   0.324  13.852  12.226 -0.1705  0.8299 -0.1373
 2497SOL    HW125101   0.407  13.869  12.271 -0.6643  1.1923  0.6667
 2497SOL    HW225102   0.278  13.936  12.228 -0.1774  0.8839 -1.4291
 2498SOL     OW25103   5.441   0.842   7.719 -0.2718 -0.1004  0.2654
 2498SOL    HW125104   5.444   0.832   7.624 -0.7514  0.2964  0.2080
 2498SOL    HW225105   5.407   0.931   7.734 -0.3289 -0.2052  0.8046
 2499SOL     OW25106  14.018   0.181   7.317  0.0132 -0.3838 -0.3629
 2499SOL    HW125107  14.027   0.218   7.405  0.8227 -0.0258 -0.5901
 2499SOL    HW225108  13.963   0.104   7.329 -1.0877  0.4639  0.2419
 2500SOL     OW25109  11.547  13.291   5.682 -0.0518  0.5228  0.2080
 2500SOL    HW125110  11.511  13.212   5.722  0.2265 -0.3736 -1.2321
 2500SOL    HW225111  11.523  13.362   5.742 -3.9853 -0.0324 -0.4269
 2501SOL     OW25112  13.868   3.876   5.227  0.0458 -0.3724 -0.4743
 2501SOL    HW125113  13.847   3.784   5.210  0.3144 -0.7643  1.1258
 2501SOL    HW225114  13.792   3.910   5.275  0.8427 -0.3999  0.8734
 2502SOL     OW25115   4.282   5.142   8.371 -0.3949  0.0544 -0.0462
 2502SOL    HW125116   4.246   5.203   8.435 -0.3163 -1.1716  1.1887
 2502SOL    HW225117   4.214   5.137   8.303 -1.7272 -0.6955  1.2738
 2503SOL     OW25118   8.655   5.456   6.959  0.2640 -0.5287  0.2246
 2503SOL    HW125119   8.601   5.442   7.037 -0.7657  0.2190 -0.3284
 2503SOL    HW225120   8.654   5.551   6.947 -0.3374 -0.6997 -1.1981
 2504SOL     OW25121  12.646   9.528   2.190 -0.0624  0.2909  0.3511
 2504SOL    HW125122  12.553   9.554   2.192  0.0791  0.7637  0.8813
 2504SOL    HW225123  12.693   9.609   2.173  0.3257  0.2249  1.1048
 2505SOL     OW25124   7.171   2.216   3.893  0.2038  0.4100  0.6173
 2505SOL    HW125125   7.218   2.254   3.967 -0.6041  0.4676  1.1120
 2505SOL    HW225126   7.092   2.178   3.932 -0.2846  0.5353 -0.2237
 2506SOL     OW25127   7.489  10.363   2.018 -0.1721  0.6850  0.2426
 2506SOL    HW125128   7.553  10.391   1.953 -0.7148  1.5395  0.0576
 2506SOL    HW225129   7.540  10.342   2.095  0.7805 -2.7459 -1.1248
 2507SOL     OW25130  11.061   7.800   0.621  0.2999  0.7422  0.2262
 2507SOL    HW125131  11.038   7.746   0.546  1.1155 -1.3209  1.3846
 2507SOL    HW225132  10.982   7.850   0.640  0.2519  1.7909 -2.3078
 2508SOL     OW25133   3.433   4.435  11.702  0.0748  0.3947 -0.1136
 2508SOL    HW125134   3.483   4.369  11.750  0.2701 -0.1354 -1.0404
 2508SOL    HW225135   3.473   4.438  11.615 -1.2452  0.2484 -0.7502
 2509SOL     OW25136   7.338   6.815   2.327 -0.1899  0.0781  0.1933
 2509SOL    HW125137   7.264   6.872   2.308 -1.6597 -1.3078  1.4097
 2509SOL    HW225138   7.404   6.839   2.263 -2.1308  0.5880 -1.7432
 2510SOL     OW25139   2.952  11.911   0.669 -0.1413 -0.4400  0.4165
 2510SOL    HW125140   2.983  11.984   0.616  2.8941 -1.0446  1.1582
 2510SOL    HW225141   2.911  11.851   0.607  0.1823  0.4424 -0.6815
 2511SOL     OW25142   1.223   9.902  10.899  0.4495  0.2424 -0.2409
 2511SOL    HW125143   1.166   9.834  10.863 -1.5313  1.7366 -0.0995
 2511SOL    HW225144   1.245   9.871  10.987 -1.4525  0.2999  0.2966
 2512SOL     OW25145   7.058   5.662   5.026 -0.2888 -0.0593 -0.3540
 2512SOL    HW125146   7.121   5.614   5.080  0.6499  0.4537 -0.9612
 2512SOL    HW225147   6.993   5.596   5.000  0.1404 -0.6581  0.0723
 2513SOL     OW25148  11.051   3.297  10.928 -1.1585  0.3508  0.6404
 2513SOL    HW125149  11.040   3.291  10.833  1.4303 -0.0957  0.2966
 2513SOL    HW225150  10.998   3.372  10.953 -2.3989  0.1098 -1.0525
 2514SOL     OW25151   3.452  11.402   0.683 -0.0525 -0.2229 -0.4685
 2514SOL    HW125152   3.481  11.334   0.622  2.3696 -1.1918  1.5577
 2514SOL    HW225153   3.506  11.478   0.662  2.2374 -1.1482  1.4849
 2515SOL     OW25154  11.867   2.255   9.184  0.0959  0.5497  0.8238
 2515SOL    HW125155  11.857   2.184   9.121 -1.3523 -0.3268  1.9568
 2515SOL    HW225156  11.786   2.253   9.236 -0.0943  3.1706  0.7912
 2516SOL     OW25157   3.426  12.933   3.887  0.8135  0.4661 -0.2985
 2516SOL    HW125158   3.332  12.948   3.883  0.5126 -1.1194  0.1772
 2516SOL    HW225159   3.452  12.918   3.797  0.4837  0.2348 -0.3576
 2517SOL     OW25160   3.487   0.200   8.982  0.0011  0.2199 -0.2158
 2517SOL    HW125161   3.513   0.112   8.957  2.7751  1.1742 -1.0693
 2517SOL    HW225162   3.462   0.192   9.074  1.6678 -1.2382  0.1806
 2518SOL     OW25163   3.773  10.957  10.983  0.0917 -0.0886 -0.2458
 2518SOL    HW125164   3.719  10.923  11.054  0.7247 -0.6523 -0.0244
 2518SOL    HW225165   3.748  11.049  10.976  0.6690  0.2210  1.3402
 2519SOL     OW25166  10.674   5.602   1.131  0.3003 -0.0217 -0.4631
 2519SOL    HW125167  10.672   5.508   1.109  0.3923 -0.6017  1.7387
 2519SOL    HW225168  10.751   5.611   1.187  0.1330  1.3151 -0.4358
 2520SOL     OW25169  11.371   9.763   9.139 -0.4748  0.5069  0.5768
 2520SOL    HW125170  11.385   9.676   9.177  1.5595  0.3712 -0.3425
 2520SOL    HW225171  11.406   9.756   9.050 -2.2587  1.6930 -0.2926
 2521SOL     OW25172   5.444   0.915   3.487 -0.1647  0.2540 -0.2722
 2521SOL    HW125173   5.375   0.867   3.440  1.2635 -0.9532 -1.2767
 2521SOL    HW225174   5.475   0.980   3.423  1.4759 -1.0874 -0.9239
 2522SOL     OW25175   2.802  12.214   9.143 -0.0472 -0.8602 -0.2778
 2522SOL    HW125176   2.801  12.149   9.214 -1.4027 -1.5499 -0.8946
 2522SOL    HW225177   2.895  12.223   9.120  0.4670 -0.3603  1.7956
 2523SOL     OW25178  13.099   9.827  12.734 -0.4466 -0.3394  0.0216
 2523SOL    HW125179  13.081   9.806  12.826  1.0668 -1.0831  0.1767
 2523SOL    HW225180  13.014   9.819  12.690 -0.6333 -3.3648  0.7373
 2524SOL     OW25181   9.274   9.012   2.638  0.1072  0.5680  0.3835
 2524SOL    HW125182   9.324   8.930   2.648 -0.1280  0.3881  0.1135
 2524SOL    HW225183   9.270   9.025   2.543 -2.0932 -0.5068  0.2595
 2525SOL     OW25184   7.350  12.081   4.562 -0.6554 -0.3425 -0.0936
 2525SOL    HW125185   7.308  12.165   4.581  0.2642 -0.1605  1.2930
 2525SOL    HW225186   7.296  12.041   4.494 -0.7892  1.6372 -1.2265
 2526SOL     OW25187  13.654   6.175  11.845  0.0172 -0.4823  0.1794
 2526SOL    HW125188  13.720   6.111  11.871  0.0137  0.3603  2.5022
 2526SOL    HW225189  13.690   6.259  11.874 -1.9062  0.0322  1.2217
 2527SOL     OW25190  13.724   1.090   1.886 -0.0664  0.2483  0.3860
 2527SOL    HW125191  13.817   1.096   1.864 -0.2767 -0.5719 -0.8308
 2527SOL    HW225192  13.709   1.163   1.946  1.1425  0.9870 -0.1717
 2528SOL     OW25193   4.852   3.884   1.989 -0.2025  0.4106 -0.2423
 2528SOL    HW125194   4.855   3.867   2.083  0.8378 -0.5653 -0.4232
 2528SOL    HW225195   4.936   3.926   1.970 -0.1325  0.0301 -0.8192
 2529SOL     OW25196  11.171  12.535  11.517 -0.6244  0.4200  0.2402
 2529SOL    HW125197  11.090  12.515  11.564 -1.1474  0.4402 -0.6322
 2529SOL    HW225198  11.232  12.465  11.542 -1.1493 -0.0080  0.3315
 2530SOL     OW25199   6.225   7.697   0.008  0.2923 -0.0482  0.0866
 2530SOL    HW125200   6.204   7.745  -0.072 -0.3834 -0.4825 -0.0044
 2530SOL    HW225201   6.192   7.753   0.079 -0.1680 -0.1986 -0.0028
 2531SOL     OW25202   0.745   6.725   1.778 -0.0702 -0.3908 -0.2870
 2531SOL    HW125203   0.822   6.782   1.785 -0.2423  0.0657 -1.7554
 2531SOL    HW225204   0.675   6.783   1.748 -0.8587 -0.9117  0.5135
 2532SOL     OW25205   4.413   9.753   7.304  0.5326  0.2287  1.1774
 2532SOL    HW125206   4.404   9.818   7.234  1.7672  0.0193  0.8075
 2532SOL    HW225207   4.495   9.707   7.284  0.5286 -0.3224  2.3665
 2533SOL     OW25208   0.879   9.658  12.565  0.2874  0.1250 -0.1656
 2533SOL    HW125209   0.911   9.568  12.574  1.6537  0.6005 -0.0031
 2533SOL    HW225210   0.837   9.660  12.479 -2.8708 -1.5280  1.1312
 2534SOL     OW25211   0.231  12.395   8.985  0.2648  0.3579 -0.8589
 2534SOL    HW125212   0.156  12.411   8.928  0.3285 -3.0576 -2.1763
 2534SOL    HW225213   0.283  12.330   8.938  1.3305 -1.2574  2.2479
 2535SOL     OW25214  12.882   3.127   2.768  0.3263  0.4523 -0.2232
 2535SOL    HW125215  12.969   3.090   2.784 -0.6295 -1.9418 -0.1255
 2535SOL    HW225216  12.845   3.138   2.856 -0.2497 -0.6260 -0.3172
 2536SOL     OW25217  11.309  11.297  11.350 -0.6859  0.3190  0.1320
 2536SOL    HW125218  11.246  11.319  11.419 -0.2682 -1.4043  1.1476
 2536SOL    HW225219  11.374  11.367  11.353 -1.2910  0.8642  0.7232
 2537SOL     OW25220   0.260  14.019   4.674 -0.1736  0.7326  0.2341
 2537SOL    HW125221   0.354  14.031   4.657 -0.2609  1.2054  0.0482
 2537SOL    HW225222   0.241  14.082   4.744 -0.7849  2.2307 -1.2038
 2538SOL     OW25223   2.474   7.882   6.981 -0.4372 -0.0216  0.1360
 2538SOL    HW125224   2.392   7.896   7.029 -0.0068  1.4782  0.4683
 2538SOL    HW225225   2.542   7.889   7.048 -0.0562 -2.6499  0.1285
 2539SOL     OW25226   0.110  12.890   7.287  0.7346 -0.1607 -0.0205
 2539SOL    HW125227   0.136  12.930   7.369 -0.7322 -0.1688  0.4719
 2539SOL    HW225228   0.015  12.880   7.293  0.6557 -0.6567 -1.4923
 2540SOL     OW25229   6.542   8.575   0.383  0.1411 -0.5787 -0.0536
 2540SOL    HW125230   6.544   8.633   0.307  0.8761 -1.5479 -0.8016
 2540SOL    HW225231   6.491   8.499   0.353 -0.8434 -0.3288  0.9186
 2541SOL     OW25232  13.982   4.539   7.362  0.5533  0.0567 -0.1449
 2541SOL    HW125233  13.978   4.494   7.278  1.6303  0.3622 -0.3838
 2541SOL    HW225234  13.935   4.483   7.422  1.6001 -1.2538 -0.4944
 2542SOL     OW25235   6.484   1.004  10.634  0.6084 -0.3647 -0.6295
 2542SOL    HW125236   6.477   0.999  10.729 -0.6003  0.6366 -0.6444
 2542SOL    HW225237   6.578   1.003  10.617  0.8375 -1.1732  0.5173
 2543SOL     OW25238   0.955  11.041   1.117  0.5266  0.3600 -0.0573
 2543SOL    HW125239   0.962  10.997   1.202 -1.9263 -2.0474 -0.9607
 2543SOL    HW225240   0.868  11.080   1.117 -0.0654 -0.8302 -1.9107
 2544SOL     OW25241   8.236   2.236   0.835  0.4874  1.0902  0.1558
 2544SOL    HW125242   8.235   2.320   0.787  0.8444  0.5621 -0.8009
 2544SOL    HW225243   8.218   2.171   0.768 -2.4873  0.5727  1.3021
 2545SOL     OW25244   4.798   8.984   3.819  0.3315 -0.2028  0.3393
 2545SOL    HW125245   4.774   9.044   3.889 -1.6176 -1.4374  0.8082
 2545SOL    HW225246   4.832   8.906   3.864 -2.2108 -1.5611  0.0777
 2546SOL     OW25247  11.112   1.144   4.849 -0.2933 -0.1356 -0.3920
 2546SOL    HW125248  11.034   1.110   4.806 -0.4520 -1.3540  0.8064
 2546SOL    HW225249  11.140   1.073   4.908  1.2651  0.5721 -0.2280
 2547SOL     OW25250   1.925   5.250   5.264  0.1140  0.1289 -0.4664
 2547SOL    HW125251   1.874   5.294   5.195  1.8806  1.8173 -0.7938
 2547SOL    HW225252   1.893   5.290   5.345 -1.6873 -1.5738 -0.2681
 2548SOL     OW25253   4.413   0.417  10.855  0.5288  0.4554 -0.0560
 2548SOL    HW125254   4.488   0.372  10.894  1.4515  1.7825 -0.2114
 2548SOL    HW225255   4.409   0.382  10.766 -0.4424 -1.2263  0.5916
 2549SOL     OW25256   6.095  13.083   9.901  0.0280  0.2639  0.4004
 2549SOL    HW125257   6.159  13.068   9.971  0.0673 -0.8291  0.1476
 2549SOL    HW225258   6.081  13.178   9.902  1.4053  0.4955  0.6791
 2550SOL     OW25259  13.892   9.405   5.859  0.3610 -0.3135 -0.3575
 2550SOL    HW125260  13.983   9.377   5.848  0.8987  0.1659  2.2107
 2550SOL    HW225261  13.862   9.359   5.938 -1.7222 -0.6165 -1.2401
 2551SOL     OW25262  13.543  10.253   6.331 -0.7098  0.2293  0.3531
 2551SOL    HW125263  13.452  10.257   6.300 -1.0261 -0.6329  1.1395
 2551SOL    HW225264  13.539  10.200   6.410  0.3909  0.7351  0.7672
 2552SOL     OW25265  13.873  13.555   9.413  0.0372 -0.5433  0.4127
 2552SOL    HW125266  13.908  13.488   9.471  1.8373  0.8372  1.0188
 2552SOL    HW225267  13.847  13.508   9.334  0.0297 -2.0983  1.3057
 2553SOL     OW25268  12.325  13.246   0.141 -0.1152  0.0047  0.3567
 2553SOL    HW125269  12.410  13.291   0.144 -0.4940  0.7125  2.6816
 2553SOL    HW225270  12.347  13.154   0.128  1.0274  0.1995  0.7595
 2554SOL     OW25271   8.835   6.129   5.071  0.1748  0.0759  0.4543
 2554SOL    HW125272   8.818   6.101   5.161  2.5011  0.2301  1.0045
 2554SOL    HW225273   8.906   6.193   5.079 -0.1617  0.7565 -1.4350
 2555SOL     OW25274   2.525  13.447   8.805 -0.0568 -0.0072 -0.3935
 2555SOL    HW125275   2.500  13.539   8.812 -1.8506 -0.5415  1.2579
 2555SOL    HW225276   2.550  13.423   8.894 -2.4351 -1.7847 -0.1009
 2556SOL     OW25277   5.849   5.113   9.279 -0.3102 -0.1325 -0.0155
 2556SOL    HW125278   5.905   5.141   9.207 -1.5018  0.6764 -0.6732
 2556SOL    HW225279   5.881   5.161   9.355 -0.1669  0.3892 -0.4033
 2557SOL     OW25280   8.890  10.203   1.173 -0.4794  0.6184  0.1846
 2557SOL    HW125281   8.947  10.127   1.178 -1.1287  0.1034 -0.1990
 2557SOL    HW225282   8.948  10.277   1.193 -0.1435 -0.0924  2.0580
 2558SOL     OW25283   2.546   5.171   9.360  0.0110  0.5833 -0.6368
 2558SOL    HW125284   2.460   5.155   9.321  0.3221  1.8742 -1.9546
 2558SOL    HW225285   2.608   5.129   9.300  0.3225 -0.3052  0.2806
 2559SOL     OW25286   0.748   1.663   0.539 -0.6757  0.0774  0.1155
 2559SOL    HW125287   0.734   1.624   0.453 -0.6921  0.7575 -0.1934
 2559SOL    HW225288   0.808   1.603   0.583 -0.6505 -0.2617 -0.3760
 2560SOL     OW25289   1.028  12.317   8.176  0.1924  0.3909 -0.1930
 2560SOL    HW125290   1.026  12.284   8.266  1.3137 -0.1041 -0.3386
 2560SOL    HW225291   1.055  12.408   8.185  2.1185 -0.1502 -0.1298
 2561SOL     OW25292   3.095   0.352   2.170  0.8331  0.0574  0.0027
 2561SOL    HW125293   3.055   0.382   2.088  1.4251  1.1556  0.0950
 2561SOL    HW225294   3.038   0.281   2.200 -0.0959  0.4743 -0.7185
 2562SOL     OW25295   6.524   7.849  13.749  0.8232 -0.3711 -0.4422
 2562SOL    HW125296   6.515   7.793  13.826  0.3840 -0.0358 -0.2439
 2562SOL    HW225297   6.487   7.797  13.677 -1.2478  0.3304  0.0590
 2563SOL     OW25298   6.095   4.380  12.502  0.1080 -0.2412  0.1711
 2563SOL    HW125299   6.121   4.391  12.594 -0.6690 -2.1709  0.6848
 2563SOL    HW225300   6.177   4.373  12.455  0.5656  2.5476  0.3928
 2564SOL     OW25301   1.529   0.877   9.878  0.0165  0.2383  0.4857
 2564SOL    HW125302   1.576   0.838   9.804  0.6045 -2.1726  2.0318
 2564SOL    HW225303   1.460   0.814   9.898 -1.1457  1.6197  1.0464
 2565SOL     OW25304  12.263   9.916   2.781 -0.3886 -0.1230  0.1097
 2565SOL    HW125305  12.252   9.821   2.772 -2.3307  0.1616 -1.2036
 2565SOL    HW225306  12.346   9.926   2.827  0.0454 -2.4427 -0.0254
 2566SOL     OW25307   1.906  12.802  12.874  0.0214  0.1606  0.4341
 2566SOL    HW125308   1.890  12.872  12.811 -0.8745 -0.2826  0.1498
 2566SOL    HW225309   1.926  12.726  12.820 -2.1845 -0.5889  0.5859
 2567SOL     OW25310   0.561  11.596  12.941  0.2930 -0.7844  0.0854
 2567SOL    HW125311   0.569  11.548  12.859  1.7023 -1.6353  0.6822
 2567SOL    HW225312   0.503  11.542  12.995  3.0513 -2.7787  1.3157
 2568SOL     OW25313   1.397  12.759   4.014  0.0059 -0.5867  0.0555
 2568SOL    HW125314   1.354  12.730   4.094  0.0874  0.5305  0.5298
 2568SOL    HW225315   1.405  12.854   4.025  0.7956 -0.5322 -0.9024
 2569SOL     OW25316   3.428   2.429   3.645  0.0936  0.5400  0.0592
 2569SOL    HW125317   3.399   2.426   3.736  2.8435  1.6217  1.0622
 2569SOL    HW225318   3.499   2.365   3.640 -1.8492 -1.6850 -2.1892
 2570SOL     OW25319   2.524  10.476  11.312  1.1274 -0.0938 -0.8388
 2570SOL    HW125320   2.544  10.507  11.224  0.1836 -0.0221 -1.0277
 2570SOL    HW225321   2.540  10.382  11.308  1.2891 -0.0612 -1.0197
 2571SOL     OW25322   0.742   5.864   6.819 -0.0854 -1.0301  0.7300
 2571SOL    HW125323   0.822   5.824   6.854  1.5817  0.5813 -1.0553
 2571SOL    HW225324   0.716   5.926   6.887  0.5241 -1.1373  1.0766
 2572SOL     OW25325  10.774  13.281   1.942 -0.3669 -0.2780  0.6408
 2572SOL    HW125326  10.718  13.310   1.870 -1.1278 -0.3368  1.1945
 2572SOL    HW225327  10.837  13.352   1.953 -0.8208  0.1502  0.5209
 2573SOL     OW25328   4.627  12.718   5.843 -0.1796 -0.0762  0.3895
 2573SOL    HW125329   4.536  12.746   5.841 -0.5414 -1.2216  0.2103
 2573SOL    HW225330   4.662  12.742   5.757 -0.5708 -0.4333  0.1263
 2574SOL     OW25331   7.380  11.338  11.924 -0.6930  0.4205  0.6559
 2574SOL    HW125332   7.351  11.408  11.983  1.7013  0.7976  1.5040
 2574SOL    HW225333   7.396  11.264  11.982 -0.5420  0.0660  0.1610
 2575SOL     OW25334   6.697   0.544   4.160  0.5003 -0.4519 -0.0969
 2575SOL    HW125335   6.690   0.565   4.067  0.2566  0.5476  0.1336
 2575SOL    HW225336   6.787   0.566   4.183  0.7485 -1.2992 -0.2288
 2576SOL     OW25337  13.478   5.287   7.503 -0.8281  0.2318  0.4086
 2576SOL    HW125338  13.415   5.326   7.563  1.2184  1.0541  2.1570
 2576SOL    HW225339  13.545   5.248   7.560  0.3093 -0.5075 -1.3339
 2577SOL     OW25340  13.222   1.078  12.172  0.1025 -0.3125  0.0910
 2577SOL    HW125341  13.291   1.134  12.207  0.5750 -0.2424 -0.9185
 2577SOL    HW225342  13.265   1.026  12.104 -1.1059  0.7319 -1.5717
 2578SOL     OW25343   3.741  10.894  12.973  0.1652  0.0458 -0.4135
 2578SOL    HW125344   3.693  10.907  13.055 -0.9613 -0.4852 -0.9678
 2578SOL    HW225345   3.709  10.964  12.916 -0.2269 -0.5370 -0.9086
 2579SOL     OW25346  13.757   4.571  10.033 -0.7837 -0.0893 -0.0260
 2579SOL    HW125347  13.831   4.615   9.991  0.2273 -1.2569  0.4736
 2579SOL    HW225348  13.752   4.486   9.988 -2.5858  0.4144 -0.8588
 2580SOL     OW25349   2.504   8.533   6.533  0.4524  0.3274 -0.1510
 2580SOL    HW125350   2.590   8.566   6.506  0.9633  0.2299  1.2742
 2580SOL    HW225351   2.518   8.500   6.622 -0.6769 -1.2367 -0.5051
 2581SOL     OW25352   6.589   5.992   2.732 -0.0854  0.2257  0.9235
 2581SOL    HW125353   6.529   5.994   2.657  1.1255 -1.9908 -0.2129
 2581SOL    HW225354   6.550   5.930   2.793 -0.3378  0.9249  1.4832
 2582SOL     OW25355   6.154   6.069   0.502  0.3318  0.4558  0.2955
 2582SOL    HW125356   6.159   6.092   0.595  1.4242  0.7281  0.1775
 2582SOL    HW225357   6.138   5.975   0.502 -0.4238  0.5740  0.7550
 2583SOL     OW25358   6.286   9.472   0.122 -0.2772 -0.0945 -0.3617
 2583SOL    HW125359   6.216   9.441   0.180  0.0898  1.4813  0.9941
 2583SOL    HW225360   6.240   9.509   0.047 -0.8351 -0.4908 -0.2224
 2584SOL     OW25361  13.599  10.515   1.558  0.2696  0.6882 -0.3377
 2584SOL    HW125362  13.659  10.552   1.622 -0.1504  0.4326  0.2127
 2584SOL    HW225363  13.655  10.463   1.500  0.4865 -0.3743  0.7669
 2585SOL     OW25364   0.420   1.914   9.471  0.3544  0.1846 -0.3383
 2585SOL    HW125365   0.429   1.821   9.490 -0.3680 -0.0315 -0.9552
 2585SOL    HW225366   0.464   1.959   9.543  1.3594 -0.6415 -0.4203
 2586SOL     OW25367   1.099   0.911   6.248 -0.1997 -0.1352 -0.7483
 2586SOL    HW125368   1.070   0.925   6.159  0.0668  1.2141 -0.6336
 2586SOL    HW225369   1.019   0.895   6.298 -0.5011  0.7485 -0.9387
 2587SOL     OW25370  13.143  11.563   6.638  0.0015 -0.2098  0.5951
 2587SOL    HW125371  13.206  11.495   6.615  0.5857  0.4917  0.0601
 2587SOL    HW225372  13.091  11.525   6.708  0.3625 -1.1781  0.3561
 2588SOL     OW25373  13.737   2.403   8.933  0.1032  0.0625 -0.0366
 2588SOL    HW125374  13.750   2.349   9.011 -1.0810  0.8448  0.7305
 2588SOL    HW225375  13.642   2.409   8.923  0.1992  1.8676 -0.1719
 2589SOL     OW25376   1.337   1.055   9.973  0.6244  0.0898 -0.1195
 2589SOL    HW125377   1.317   1.068  10.066  2.0624 -0.2094  0.2601
 2589SOL    HW225378   1.420   1.007   9.973  1.1866  0.9892 -1.5687
 2590SOL     OW25379   1.005   5.431  10.655  0.0423 -0.3470  0.4135
 2590SOL    HW125380   0.914   5.435  10.626  0.5416 -0.0764 -1.2343
 2590SOL    HW225381   1.046   5.367  10.596  0.8339 -0.7895  1.4077
 2591SOL     OW25382   6.048   5.359  11.439  0.4303  0.4148  0.3225
 2591SOL    HW125383   6.057   5.284  11.380 -1.2716  1.0619 -0.8450
 2591SOL    HW225384   5.979   5.332  11.501  1.4282  0.1651  1.3516
 2592SOL     OW25385   1.992   0.004   2.301 -0.3267 -0.4872  0.3919
 2592SOL    HW125386   1.985   0.097   2.277  1.3463 -0.4510 -0.1339
 2592SOL    HW225387   1.918  -0.012   2.359 -1.1886  0.9368 -0.2641
 2593SOL     OW25388  12.462   4.521   9.952  0.2111 -0.2161  0.4724
 2593SOL    HW125389  12.510   4.581   9.894  0.5023 -0.1747  0.7514
 2593SOL    HW225390  12.462   4.437   9.906  0.1289 -0.0947  0.2505
 2594SOL     OW25391  12.206  11.102   3.392  0.3405 -0.1098  0.0686
 2594SOL    HW125392  12.181  11.146   3.473 -1.6095 -1.5782  0.3542
 2594SOL    HW225393  12.128  11.107   3.337  1.0240 -0.7128 -0.9902
 2595SOL     OW25394  10.968   1.697  13.800  0.7025  0.5169  0.0040
 2595SOL    HW125395  11.006   1.745  13.726 -1.1588  1.0169 -0.6945
 2595SOL    HW225396  10.978   1.605  13.777 -1.7552  0.6374 -2.0311
 2596SOL     OW25397   0.487   3.169   3.818  0.4796  0.0424  0.2294
 2596SOL    HW125398   0.397   3.157   3.788  0.2286  0.7085  0.7029
 2596SOL    HW225399   0.485   3.248   3.872  0.9638 -0.9539  1.7893
 2597SOL     OW25400   4.438   2.262  10.332 -0.1238 -0.6168  0.7679
 2597SOL    HW125401   4.343   2.250  10.337 -0.0256 -0.9734  2.5875
 2597SOL    HW225402   4.455   2.285  10.241 -1.7242 -2.5936 -0.1066
 2598SOL     OW25403   2.715   9.194   8.458  0.6073  0.6985 -0.5536
 2598SOL    HW125404   2.800   9.213   8.418  0.9309  0.5393  0.0568
 2598SOL    HW225405   2.674   9.280   8.469  0.0659  0.6898 -2.1727
 2599SOL     OW25406   1.224   2.786  12.148 -0.0697  0.0890  0.2074
 2599SOL    HW125407   1.237   2.793  12.243  2.1386 -0.4052 -0.0080
 2599SOL    HW225408   1.129   2.784  12.137 -0.3923 -1.2596  2.5377
 2600SOL     OW25409  11.241   4.745   8.737  0.2548 -0.6295  0.4180
 2600SOL    HW125410  11.261   4.773   8.827 -0.0977 -0.7646  0.5391
 2600SOL    HW225411  11.146   4.742   8.733  0.2750 -1.0953  0.1819
 2601SOL     OW25412   4.771  11.517   5.199 -0.0846 -0.0442 -0.3121
 2601SOL    HW125413   4.781  11.612   5.209  0.0811 -0.0462 -0.4585
 2601SOL    HW225414   4.723  11.490   5.278 -1.4545  0.3738 -0.9566
 2602SOL     OW25415   9.189   9.739   1.946 -0.1282 -0.5380  0.4755
 2602SOL    HW125416   9.279   9.736   1.980 -0.0743  2.1278  0.8239
 2602SOL    HW225417   9.200   9.737   1.851  0.3317 -0.1638  0.5126
 2603SOL     OW25418   7.312  11.423  12.218  0.4954  0.0765  0.6328
 2603SOL    HW125419   7.318  11.494  12.153 -0.0392  2.2421  2.7903
 2603SOL    HW225420   7.250  11.361  12.180  1.2809  0.4973 -1.5261
 2604SOL     OW25421  12.452   0.695   9.278  0.4568  0.0706 -0.1450
 2604SOL    HW125422  12.407   0.779   9.274  0.0206 -0.1947 -2.4069
 2604SOL    HW225423  12.421   0.647   9.201  2.0483 -1.4587  0.0849
 2605SOL     OW25424   8.785   1.557  12.070  0.3937 -0.6543  0.0739
 2605SOL    HW125425   8.728   1.498  12.119  0.1637 -0.9826 -0.5731
 2605SOL    HW225426   8.864   1.506  12.053  0.2736 -0.7114 -0.3191
 2606SOL     OW25427   3.474   9.165   4.896 -0.0636  0.1115  0.9071
 2606SOL    HW125428   3.564   9.188   4.914  0.9545 -1.9184 -1.0036
 2606SOL    HW225429   3.429   9.248   4.882  1.8454  1.1253  0.5680
 2607SOL     OW25430   3.609  11.297  13.918 -0.0991 -0.0230  0.1996
 2607SOL    HW125431   3.564  11.360  13.975 -0.7104 -0.6546  0.4276
 2607SOL    HW225432   3.603  11.336  13.831  0.4624  0.7448  0.4966
 2608SOL     OW25433  11.097  10.019   4.384  0.6135  0.3636 -0.4654
 2608SOL    HW125434  11.096   9.924   4.380 -0.7740  0.3595 -0.5774
 2608SOL    HW225435  11.188  10.043   4.365  1.0334 -0.9342 -0.1919
 2609SOL     OW25436   2.326  11.814   8.525 -0.2267  0.2159  0.0439
 2609SOL    HW125437   2.354  11.725   8.502 -1.9784 -0.2075 -0.6028
 2609SOL    HW225438   2.407  11.858   8.552  0.5626 -1.8192  1.2483
 2610SOL     OW25439  11.572  12.534   6.344 -0.4433 -0.0830 -0.2277
 2610SOL    HW125440  11.517  12.488   6.407 -0.5825  1.0416  0.5051
 2610SOL    HW225441  11.660  12.500   6.360 -0.8034 -1.4356 -0.9816
 2611SOL     OW25442   1.212   2.921   4.269 -0.0230  0.7179 -0.4804
 2611SOL    HW125443   1.120   2.946   4.269 -0.0286  0.7040 -0.1044
 2611SOL    HW225444   1.247   2.959   4.188 -0.3290  0.8288 -0.5632
 2612SOL     OW25445   1.185   3.167   8.841  0.3587 -0.3473  0.2994
 2612SOL    HW125446   1.176   3.214   8.758 -0.2819  2.2562  1.7235
 2612SOL    HW225447   1.261   3.110   8.829  1.5263  1.4598 -1.4414
 2613SOL     OW25448  12.819  11.995   3.057 -0.7655 -0.0107  0.0863
 2613SOL    HW125449  12.809  12.090   3.056  2.9330  0.5110 -1.4901
 2613SOL    HW225450  12.796  11.967   2.969  0.6876 -0.1712 -0.2624
 2614SOL     OW25451   1.026  11.823  13.448  0.5262 -0.2794  0.6330
 2614SOL    HW125452   1.108  11.778  13.464  0.5060 -0.3495  0.5422
 2614SOL    HW225453   1.033  11.853  13.357  0.6628  0.1606  0.7891
 2615SOL     OW25454   8.918   0.083   9.593 -0.0022  0.1116 -0.8101
 2615SOL    HW125455   8.896   0.169   9.629 -4.8159 -0.9051 -0.6860
 2615SOL    HW225456   8.973   0.042   9.660  2.5006  2.9711 -0.9177
 2616SOL     OW25457   3.700   1.596   3.074  0.1663  0.7592  0.2140
 2616SOL    HW125458   3.650   1.671   3.041 -1.5952  0.1086  1.2783
 2616SOL    HW225459   3.674   1.523   3.017  1.3950  0.7804 -0.4182
 2617SOL     OW25460   6.919   3.206   2.697  0.6499  0.3072 -0.4273
 2617SOL    HW125461   6.949   3.272   2.635 -1.2210  0.0336 -1.7127
 2617SOL    HW225462   6.870   3.144   2.644 -0.7397 -0.1333  1.2686
 2618SOL     OW25463  12.703   6.338  11.176 -0.1790  0.0194  0.0449
 2618SOL    HW125464  12.717   6.267  11.114 -2.3188  0.9282 -1.6386
 2618SOL    HW225465  12.766   6.405  11.151  0.3006 -0.3850  0.1610
 2619SOL     OW25466   0.414  13.417   7.012  0.6772 -0.1916 -0.1326
 2619SOL    HW125467   0.338  13.473   6.998  1.1480  0.8514  1.2278
 2619SOL    HW225468   0.384  13.353   7.077  1.3763  1.2023  1.6261
 2620SOL     OW25469   5.876  12.264   0.776  0.6110  0.6484  0.1447
 2620SOL    HW125470   5.912  12.247   0.689  0.4200 -0.8244  0.3403
 2620SOL    HW225471   5.781  12.257   0.764  0.5983  0.1607  0.5315
 2621SOL     OW25472   0.154   6.276  11.220  0.1357 -0.2455  0.4068
 2621SOL    HW125473   0.204   6.300  11.298 -2.6132 -0.0473  2.2563
 2621SOL    HW225474   0.195   6.325  11.149  3.5561 -1.4183  1.3863
 2622SOL     OW25475   5.022   4.546   2.118 -0.5332 -0.4151 -0.6206
 2622SOL    HW125476   5.012   4.521   2.026  0.7219  0.9552 -1.1624
 2622SOL    HW225477   5.004   4.640   2.120 -1.2833 -0.5664  0.6751
 2623SOL     OW25478   4.874  10.671   3.543  0.3759  0.1198 -0.2993
 2623SOL    HW125479   4.868  10.607   3.472  0.6016 -0.5534  0.2787
 2623SOL    HW225480   4.962  10.707   3.535  1.0597 -1.2474  0.7092
 2624SOL     OW25481  12.708   3.435   6.052 -0.6277  0.2494 -0.1024
 2624SOL    HW125482  12.754   3.366   6.004 -0.0247 -1.0913  2.2371
 2624SOL    HW225483  12.748   3.516   6.022  2.1140 -0.7475  0.5506
 2625SOL     OW25484  13.299   3.570   3.038 -0.8713  0.4001  0.2887
 2625SOL    HW125485  13.239   3.584   3.111 -1.0024  0.3539  0.1891
 2625SOL    HW225486  13.253   3.606   2.962 -1.2985 -0.7695 -0.0147
 2626SOL     OW25487   9.381   8.050   4.502 -0.2420  0.6314  0.3120
 2626SOL    HW125488   9.402   8.141   4.524 -1.3193  1.0565 -0.2938
 2626SOL    HW225489   9.359   8.053   4.408 -0.9720 -0.1193  0.4507
 2627SOL     OW25490   5.254   1.828   7.874 -0.1326  0.4510 -0.0027
 2627SOL    HW125491   5.227   1.912   7.912  2.0307  1.0108  0.4092
 2627SOL    HW225492   5.235   1.836   7.781 -2.5399  0.2871  0.4180
 2628SOL     OW25493   0.087   4.179   0.515  0.5963 -0.5685 -0.4011
 2628SOL    HW125494   0.152   4.122   0.475  2.5484  0.6636  0.8830
 2628SOL    HW225495   0.116   4.190   0.605 -1.0939  0.4968  0.0653
 2629SOL     OW25496  13.597  11.797   4.225 -0.1616  0.2997  0.2801
 2629SOL    HW125497  13.622  11.711   4.190 -0.0300 -0.1120  1.3583
 2629SOL    HW225498  13.519  11.780   4.277  0.0544  0.7818  0.7643
 2630SOL     OW25499   4.385   8.599  13.896 -0.0091 -0.3409 -0.3715
 2630SOL    HW125500   4.447   8.526  13.890 -1.9020 -2.1063  0.5672
 2630SOL    HW225501   4.327   8.587  13.821 -1.5176 -1.0052  0.8533
 2631SOL     OW25502  10.638   5.326   1.042  0.2561 -0.4965 -0.1854
 2631SOL    HW125503  10.605   5.297   0.957 -0.1892 -1.9637  0.4584
 2631SOL    HW225504  10.564   5.316   1.102  1.0953 -1.3861  0.7622
 2632SOL     OW25505   3.740   8.030  12.904  0.0987 -0.1634  0.9131
 2632SOL    HW125506   3.675   8.077  12.957 -2.0759  1.6245 -2.8914
 2632SOL    HW225507   3.807   8.096  12.884  0.3165 -0.4943  0.5396
 2633SOL     OW25508   8.793   8.951   2.403  0.7505 -0.2361 -0.0806
 2633SOL    HW125509   8.728   8.907   2.458  1.2488 -1.7812 -0.6627
 2633SOL    HW225510   8.818   9.029   2.453 -1.3602  0.2883  0.2510
 2634SOL     OW25511  11.877   7.745   2.383  0.1639  0.0896  0.2043
 2634SOL    HW125512  11.816   7.812   2.413  0.8428  1.1805 -0.7548
 2634SOL    HW225513  11.938   7.734   2.457 -0.9180 -0.7078  1.0038
 2635SOL     OW25514   7.104   5.543   1.859  0.4788  0.2431 -0.0628
 2635SOL    HW125515   7.054   5.611   1.902  0.1005 -0.3534  0.4544
 2635SOL    HW225516   7.085   5.463   1.908  1.2706 -0.1557 -0.3751
 2636SOL     OW25517  10.175   3.200   2.934 -0.0155 -0.4627 -0.7001
 2636SOL    HW125518  10.236   3.263   2.895  3.4362 -3.0638 -0.0560
 2636SOL    HW225519  10.156   3.235   3.021 -0.9847  1.2646 -1.5562
 2637SOL     OW25520   8.046   4.701   0.771 -0.4572 -0.0283  0.5511
 2637SOL    HW125521   8.093   4.727   0.692 -0.0778 -2.0545  0.0676
 2637SOL    HW225522   8.103   4.729   0.843 -0.7472  1.7084  0.1536
 2638SOL     OW25523   5.946   0.468  12.347  0.0238 -0.2858  0.5528
 2638SOL    HW125524   5.921   0.429  12.263 -0.2007  1.0090  0.0011
 2638SOL    HW225525   6.041   0.477  12.342 -0.0876  0.7103  0.0110
 2639SOL     OW25526   3.909   9.698  11.959  0.1702  0.2543 -0.0472
 2639SOL    HW125527   4.001   9.675  11.975  0.9000  1.2334 -2.3877
 2639SOL    HW225528   3.904   9.792  11.975 -0.7046  0.0425  1.0543
 2640SOL     OW25529  13.405   0.632   5.529 -0.4887 -0.2500  0.6101
 2640SOL    HW125530  13.464   0.587   5.470 -0.0661  1.1476 -0.0737
 2640SOL    HW225531  13.342   0.565   5.557  0.1060 -1.2299 -0.3686
 2641SOL     OW25532   5.961   1.742   4.716  0.1481  0.3029  0.2180
 2641SOL    HW125533   6.022   1.677   4.751 -0.4955 -0.6145 -0.3073
 2641SOL    HW225534   5.883   1.734   4.772 -0.4934 -0.4381 -0.7568
 2642SOL     OW25535   3.567   2.454  13.791  0.3817  0.1592  0.0479
 2642SOL    HW125536   3.491   2.463  13.734 -0.1702  0.7963  0.8478
 2642SOL    HW225537   3.554   2.521  13.858  1.0880 -0.4634  0.8289
 2643SOL     OW25538   8.994  11.709  11.893 -0.8065 -0.5114 -0.6160
 2643SOL    HW125539   9.044  11.747  11.820 -1.7588  2.3774  0.1057
 2643SOL    HW225540   8.903  11.712  11.864 -1.1652  0.4187  0.5235
 2644SOL     OW25541   0.503  11.364   0.293 -0.1900 -0.5228  0.7096
 2644SOL    HW125542   0.488  11.459   0.294 -0.0276 -0.4964  0.6797
 2644SOL    HW225543   0.420  11.327   0.263 -0.0413 -0.3521  0.0912
 2645SOL     OW25544   1.191   9.733  13.790  0.3037 -0.0713 -0.7637
 2645SOL    HW125545   1.213   9.812  13.839 -1.3283  0.8784 -1.4635
 2645SOL    HW225546   1.126   9.762  13.726 -1.4599 -2.2265 -0.0981
 2646SOL     OW25547   0.030   5.240  12.991 -0.1101 -0.1438  0.4820
 2646SOL    HW125548   0.032   5.293  13.072  0.5386  0.1646  0.2784
 2646SOL    HW225549  -0.005   5.300  12.925 -1.5072 -0.6773  0.7130
 2647SOL     OW25550   5.752   9.647   0.355  0.0087  0.5598  0.3705
 2647SOL    HW125551   5.711   9.572   0.312 -0.1064 -0.1267  1.6379
 2647SOL    HW225552   5.680   9.689   0.402  0.1369  1.2937 -0.0753
 2648SOL     OW25553  10.544   1.116   8.620  0.1985 -0.3073 -0.1674
 2648SOL    HW125554  10.460   1.129   8.664 -0.2849 -2.1184 -0.4937
 2648SOL    HW225555  10.591   1.054   8.675  0.4281 -0.9771 -1.0985
 2649SOL     OW25556  13.276  11.646   3.712 -0.3919 -0.2184 -0.0447
 2649SOL    HW125557  13.303  11.559   3.683  0.6463  0.1267 -0.1493
 2649SOL    HW225558  13.192  11.631   3.756 -0.1117 -1.3078  0.1599
 2650SOL     OW25559  13.624  10.523   2.207 -0.3433  0.0082 -0.0189
 2650SOL    HW125560  13.531  10.540   2.218 -0.5317 -0.2585 -1.1335
 2650SOL    HW225561  13.656  10.506   2.296 -1.1699  0.9937  0.4856
 2651SOL     OW25562  11.261  11.054   7.429  0.6269 -0.2486 -0.4329
 2651SOL    HW125563  11.281  11.043   7.336  0.0383  0.4453 -0.6478
 2651SOL    HW225564  11.200  10.982   7.449  0.8183 -0.4480 -0.5593
 2652SOL     OW25565   0.277   2.350   1.023  0.2653 -0.0395 -0.6603
 2652SOL    HW125566   0.290   2.443   1.039 -3.0515  0.8191 -2.1442
 2652SOL    HW225567   0.317   2.335   0.938  1.7463 -0.2917  0.0463
 2653SOL     OW25568   6.997   0.618   6.937  0.0036  0.7013  0.0705
 2653SOL    HW125569   7.086   0.589   6.920  0.6005  2.9036 -0.9411
 2653SOL    HW225570   6.952   0.608   6.853 -0.2890  0.9194  0.1972
 2654SOL     OW25571   9.890  11.709   6.606  0.1401  0.6702  0.0438
 2654SOL    HW125572   9.866  11.640   6.543  0.8568 -0.2305  0.7233
 2654SOL    HW225573   9.836  11.784   6.582  0.2480  0.2723 -1.5013
 2655SOL     OW25574  10.774   6.800   7.752 -0.4320 -0.2846 -0.2655
 2655SOL    HW125575  10.855   6.825   7.708  0.1292 -1.4227  0.0629
 2655SOL    HW225576  10.729   6.882   7.771  0.4540  0.3352 -0.8141
 2656SOL     OW25577  12.074   1.904   6.836  0.4843  0.5803  0.1529
 2656SOL    HW125578  12.155   1.855   6.850  0.2737  0.5718  1.5445
 2656SOL    HW225579  12.016   1.873   6.906 -0.6168  0.8206 -0.6280
 2657SOL     OW25580   9.631  11.353   2.122 -0.1688  0.2643 -0.3461
 2657SOL    HW125581   9.604  11.295   2.193  1.2286 -2.2304 -1.7305
 2657SOL    HW225582   9.589  11.318   2.044  1.6535  0.3239 -1.4202
 2658SOL     OW25583  14.029  13.156   6.258  0.4080 -0.3149 -0.2199
 2658SOL    HW125584  14.089  13.207   6.203  3.7618 -2.3791  1.2005
 2658SOL    HW225585  14.016  13.211   6.335  1.4587 -0.3128 -0.0335
 2659SOL     OW25586   9.127   0.517   6.992 -0.2655 -0.5348  0.7261
 2659SOL    HW125587   9.223   0.519   6.988 -0.2293 -2.0299  0.1334
 2659SOL    HW225588   9.101   0.609   6.988  1.1209 -0.1336  0.1191
 2660SOL     OW25589   4.587   6.903   6.004  0.1927 -0.0932 -0.5024
 2660SOL    HW125590   4.681   6.906   5.991  0.0103  2.1081 -1.6548
 2660SOL    HW225591   4.575   6.920   6.098  0.9068  1.0127 -0.5934
 2661SOL     OW25592   4.880   3.090   7.150 -0.4943 -0.3696  0.6919
 2661SOL    HW125593   4.838   3.166   7.109  1.3881  1.6539  2.1927
 2661SOL    HW225594   4.840   3.084   7.236 -1.6447 -2.0690  0.0786
 2662SOL     OW25595  10.640   3.206   3.325  0.3037  0.3823 -0.3513
 2662SOL    HW125596  10.586   3.228   3.401  0.7011 -1.1517  0.4159
 2662SOL    HW225597  10.587   3.229   3.249 -0.4905  1.0338  0.3867
 2663SOL     OW25598   9.122   7.559   4.232  0.3020 -0.2199  0.4252
 2663SOL    HW125599   9.069   7.506   4.292  0.7238  1.7319  2.7009
 2663SOL    HW225600   9.175   7.614   4.290 -0.3422  2.9182 -1.7439
 2664SOL     OW25601   5.078   4.683  13.350 -0.0453  0.3873 -0.0633
 2664SOL    HW125602   5.129   4.700  13.429 -0.3765 -0.6005  0.3832
 2664SOL    HW225603   5.011   4.751  13.350  0.1716  0.6046  0.3226
 2665SOL     OW25604   0.750   1.527   9.555 -0.7107  0.0995 -0.2813
 2665SOL    HW125605   0.791   1.450   9.516  2.3308  1.3927 -0.0004
 2665SOL    HW225606   0.741   1.588   9.482 -0.1417  0.5582  0.0196
 2666SOL     OW25607  13.284   7.534   6.896  0.1760 -0.3300 -0.0238
 2666SOL    HW125608  13.234   7.454   6.910 -1.1111  0.5518  0.6521
 2666SOL    HW225609  13.310   7.562   6.984  1.3578 -0.4609 -0.3267
 2667SOL     OW25610  13.227  10.742   0.033  0.6687 -0.1088 -0.1088
 2667SOL    HW125611  13.247  10.664   0.084 -0.4534  1.5658  3.2101
 2667SOL    HW225612  13.310  10.790   0.028  0.5337  0.3746  1.5596
 2668SOL     OW25613   0.091   6.878   0.824 -0.1793  0.0913  0.1490
 2668SOL    HW125614   0.044   6.917   0.898 -0.5015  0.7892 -0.4049
 2668SOL    HW225615   0.183   6.878   0.851 -0.4603 -1.3131  1.2590
 2669SOL     OW25616   2.091  13.354  11.837  0.0557 -0.1871 -0.2380
 2669SOL    HW125617   2.017  13.303  11.869  0.0530 -0.4338 -0.6252
 2669SOL    HW225618   2.150  13.360  11.912  1.2762 -3.0011 -0.8250
 2670SOL     OW25619  14.063  13.254   1.671  0.3481 -0.2782  0.2264
 2670SOL    HW125620  14.000  13.302   1.724  0.9797  0.7369  0.0681
 2670SOL    HW225621  14.041  13.162   1.686  0.7254 -0.0356  2.5029
 2671SOL     OW25622   8.908   3.613  10.672  0.3363 -0.1443  0.6345
 2671SOL    HW125623   8.975   3.615  10.740  0.0875 -0.3924  0.8871
 2671SOL    HW225624   8.887   3.520  10.662 -0.1390 -0.0494  0.7223
 2672SOL     OW25625   7.535   0.656   1.439 -0.1808 -0.2518 -0.1988
 2672SOL    HW125626   7.619   0.611   1.437  0.3938  0.7487  0.7194
 2672SOL    HW225627   7.552   0.740   1.396 -1.0803 -0.5932 -1.3010
 2673SOL     OW25628   2.145  12.342   5.301  0.0319 -0.7260 -0.0849
 2673SOL    HW125629   2.160  12.424   5.253 -2.1687 -0.7101 -0.8601
 2673SOL    HW225630   2.157  12.273   5.235  1.4466 -1.0456  0.4661
 2674SOL     OW25631  11.733  10.335   0.712 -0.8109 -0.6782 -0.5113
 2674SOL    HW125632  11.734  10.404   0.646  1.8944 -0.5366 -0.4471
 2674SOL    HW225633  11.823  10.302   0.714 -0.5695 -0.2714  3.4964
 2675SOL     OW25634  10.903   1.121   0.295 -0.7459  0.3365  0.3284
 2675SOL    HW125635  10.883   1.146   0.386 -0.2938  0.6402  0.3491
 2675SOL    HW225636  10.821   1.084   0.262 -0.4715 -1.3392  1.3744
 2676SOL     OW25637   4.603  14.080   1.198 -0.1880 -0.1703  0.0342
 2676SOL    HW125638   4.542  14.074   1.271  0.0027 -1.8696  0.1069
 2676SOL    HW225639   4.553  14.118   1.126 -1.0963 -0.7507  0.3450
 2677SOL     OW25640  11.123  13.896   0.524 -0.0721 -0.2641 -0.6929
 2677SOL    HW125641  11.032  13.874   0.545  0.1212  1.0304  2.0037
 2677SOL    HW225642  11.173  13.818   0.548 -0.1584  0.2923  1.6221
 2678SOL     OW25643   7.585   0.337   0.534 -0.0395 -0.1739 -0.0929
 2678SOL    HW125644   7.666   0.330   0.483 -0.7180  0.9769 -1.3736
 2678SOL    HW225645   7.518   0.297   0.479 -0.4980 -0.4381  0.6393
 2679SOL     OW25646  11.244   5.942  13.969  0.0348 -0.4055 -0.1439
 2679SOL    HW125647  11.293   6.013  14.011 -1.0177  0.7465 -0.8063
 2679SOL    HW225648  11.172   5.924  14.029  1.1641 -2.0380  0.7853
 2680SOL     OW25649   0.636  14.031  11.542  0.1546  0.1088  0.2528
 2680SOL    HW125650   0.582  14.042  11.463  0.6573 -0.6588 -0.2068
 2680SOL    HW225651   0.708  13.975  11.515  0.3575 -0.1391  1.2577
 2681SOL     OW25652   8.442   3.629   2.495 -0.0285  0.0027 -0.1556
 2681SOL    HW125653   8.353   3.653   2.472  0.4626  1.5620 -0.5223
 2681SOL    HW225654   8.497   3.694   2.451  1.3726 -1.6603 -0.9842
 2682SOL     OW25655  13.329   6.554  10.056  0.3883 -0.4088  0.1860
 2682SOL    HW125656  13.303   6.464  10.039 -1.6877 -0.1051  1.3657
 2682SOL    HW225657  13.248   6.604  10.048  1.3632  1.2518  0.2560
 2683SOL     OW25658  13.979   0.758   9.689 -0.2656  0.3441 -0.1672
 2683SOL    HW125659  13.909   0.695   9.671  0.0495 -0.4130  1.1316
 2683SOL    HW225660  14.034   0.757   9.611 -1.6226  0.8728 -1.1670
 2684SOL     OW25661  10.740  13.554   9.666 -0.6728  0.2625 -0.2238
 2684SOL    HW125662  10.816  13.497   9.667 -2.2325 -1.9420  0.3204
 2684SOL    HW225663  10.741  13.595   9.580  2.4889  2.3460  0.6493
 2685SOL     OW25664   3.012   7.403  11.518 -0.1462 -0.0824  0.0037
 2685SOL    HW125665   3.095   7.372  11.553 -0.2175  0.2872  0.4984
 2685SOL    HW225666   3.015   7.379  11.425 -0.0142 -1.1837  0.2771
 2686SOL     OW25667   9.921  13.406   3.671  0.1237  0.1128  0.2824
 2686SOL    HW125668   9.857  13.401   3.601 -1.3746 -1.5754  1.6654
 2686SOL    HW225669  10.006  13.409   3.627 -0.7928 -0.2560 -1.5768
 2687SOL     OW25670   0.797   8.413   9.556  0.7061 -0.0615  0.1870
 2687SOL    HW125671   0.743   8.430   9.633 -1.3459 -2.2138 -0.6387
 2687SOL    HW225672   0.771   8.325   9.528  2.3345  0.1321 -2.1866
 2688SOL     OW25673   8.792  11.620   0.543 -0.2110 -0.4965  0.0319
 2688SOL    HW125674   8.857  11.550   0.533  0.7542  0.1014  1.6119
 2688SOL    HW225675   8.825  11.691   0.489 -0.6363 -0.8832 -0.7501
 2689SOL     OW25676  10.946  12.867   4.584  0.2324  0.0482  0.2021
 2689SOL    HW125677  10.866  12.833   4.623  0.8771 -0.5205  1.0450
 2689SOL    HW225678  11.001  12.892   4.658  0.4586  1.3697 -0.3725
 2690SOL     OW25679   9.711   2.390   3.330  0.3948  0.2284  0.6450
 2690SOL    HW125680   9.666   2.314   3.367 -0.7021  0.4728 -0.1633
 2690SOL    HW225681   9.668   2.465   3.371  0.0840  0.4593 -0.0854
 2691SOL     OW25682   5.969   5.192  13.437 -0.1925  0.0858  0.3676
 2691SOL    HW125683   6.064   5.197  13.451 -0.5054 -0.1713  3.2873
 2691SOL    HW225684   5.957   5.112  13.385  1.1034 -1.1765  1.8860
 2692SOL     OW25685   2.844   4.077   6.835  0.7191 -0.3266 -0.2717
 2692SOL    HW125686   2.812   3.991   6.807  0.1446 -0.5392  0.9407
 2692SOL    HW225687   2.805   4.139   6.772  2.0334 -1.0133 -1.8256
 2693SOL     OW25688   2.680  12.847   1.465  0.5840 -0.1931  0.1064
 2693SOL    HW125689   2.735  12.905   1.412 -0.4714  0.1556 -0.6234
 2693SOL    HW225690   2.741  12.808   1.528  1.8146 -0.3932 -1.1561
 2694SOL     OW25691   5.180   3.487   3.125  0.1620  0.0267  0.2833
 2694SOL    HW125692   5.242   3.551   3.160 -0.6309 -0.1096  2.0246
 2694SOL    HW225693   5.097   3.508   3.168 -0.7066 -0.6177 -1.0080
 2695SOL     OW25694   5.301   1.522   3.536 -0.0899  0.6182 -1.0053
 2695SOL    HW125695   5.279   1.441   3.490  1.0963 -0.9119  0.9848
 2695SOL    HW225696   5.395   1.515   3.553 -0.2624  1.6722  0.5539
 2696SOL     OW25697   6.254   0.120  12.124 -0.2816  0.4915 -0.1422
 2696SOL    HW125698   6.203   0.167  12.190  0.8659  1.2308  0.2467
 2696SOL    HW225699   6.237   0.167  12.043 -2.9252 -1.3238 -0.7871
 2697SOL     OW25700  12.882   1.208   0.781  0.5584  0.5134 -0.2090
 2697SOL    HW125701  12.869   1.232   0.873 -0.8065 -2.0477  0.3343
 2697SOL    HW225702  12.924   1.285   0.743  0.9709  1.7463  2.4856
 2698SOL     OW25703  13.154   5.096   2.799 -0.1353  0.3363  0.6420
 2698SOL    HW125704  13.073   5.128   2.838 -1.1965  0.8787 -1.8079
 2698SOL    HW225705  13.223   5.145   2.843 -1.3855  2.3278  0.5148
 2699SOL     OW25706   1.875   7.926   3.272  0.0520 -0.4473  0.2737
 2699SOL    HW125707   1.906   7.904   3.184  1.2680 -0.5216  0.7007
 2699SOL    HW225708   1.865   7.841   3.315 -1.0610 -0.4446  0.0647
 2700SOL     OW25709   7.610   4.846   2.311 -0.4158 -0.5052  0.3572
 2700SOL    HW125710   7.529   4.878   2.272 -0.6952  0.3602  1.5802
 2700SOL    HW225711   7.594   4.850   2.405  0.7361 -1.1762  0.5964
 2701SOL     OW25712   5.424   5.019   3.044 -0.1441 -0.1871  0.1754
 2701SOL    HW125713   5.503   5.001   2.994  1.0754  0.9619  1.6320
 2701SOL    HW225714   5.425   4.953   3.114  0.1528  0.5543  0.8764
 2702SOL     OW25715  12.240  13.812  13.178 -0.2727  0.2946 -0.0623
 2702SOL    HW125716  12.303  13.838  13.110 -0.8282  0.1450 -0.6433
 2702SOL    HW225717  12.294  13.794  13.255  0.2969  1.3834 -0.1764
 2703SOL     OW25718   2.034   1.434   8.614 -0.4097  0.2382  0.2312
 2703SOL    HW125719   2.103   1.369   8.631 -0.0364  0.0213 -1.8772
 2703SOL    HW225720   2.081   1.515   8.596 -0.6263  0.0281 -1.4841
 2704SOL     OW25721  12.332   2.376   0.723 -0.9802 -0.3794  1.0204
 2704SOL    HW125722  12.255   2.377   0.667  1.2157 -1.1637 -2.3297
 2704SOL    HW225723  12.381   2.298   0.695  2.2030  1.3926  1.1659
 2705SOL     OW25724   4.499   3.747   3.765 -0.2263 -0.0762 -0.0427
 2705SOL    HW125725   4.541   3.773   3.683  1.8356 -1.2399  0.5936
 2705SOL    HW225726   4.529   3.658   3.780  0.1005  0.3830  2.3880
 2706SOL     OW25727   7.108   4.224   3.268 -0.1881 -0.5104  0.1526
 2706SOL    HW125728   7.020   4.195   3.248 -0.7766  2.2500 -1.7248
 2706SOL    HW225729   7.161   4.196   3.194 -0.3546  1.1964 -0.6669
 2707SOL     OW25730   0.791   6.141   3.039  0.0190  0.1481  0.4459
 2707SOL    HW125731   0.853   6.077   3.073  0.1460 -0.8975 -1.5864
 2707SOL    HW225732   0.710   6.091   3.025  0.4908  0.0255 -2.3437
 2708SOL     OW25733   8.351   9.461  13.178  0.3002  0.4159 -0.3313
 2708SOL    HW125734   8.318   9.487  13.264 -0.0421  0.2800 -0.4211
 2708SOL    HW225735   8.392   9.376  13.192 -0.7477 -0.1322 -0.5183
 2709SOL     OW25736   3.317  13.448   0.182 -0.0608  0.1062  0.1947
 2709SOL    HW125737   3.408  13.420   0.188 -0.7871 -2.7209 -0.4532
 2709SOL    HW225738   3.281  13.430   0.269 -0.3159  0.0052  0.0675
 2710SOL     OW25739   7.168   2.740  13.680 -0.0544 -0.1832 -0.0291
 2710SOL    HW125740   7.091   2.791  13.705 -0.2146 -0.8587  0.9182
 2710SOL    HW225741   7.162   2.733  13.584 -1.3024 -0.4271  0.0491
 2711SOL     OW25742   7.232   7.690   4.137  0.2932  0.1387  0.3468
 2711SOL    HW125743   7.250   7.780   4.165  1.8537  0.1788 -0.6720
 2711SOL    HW225744   7.155   7.698   4.081  0.2507  0.8133  0.4880
 2712SOL     OW25745   7.783  11.306   0.602  0.2364 -0.0839  0.6995
 2712SOL    HW125746   7.855  11.282   0.544 -0.2692  0.1249 -0.0329
 2712SOL    HW225747   7.728  11.228   0.605 -2.2901  1.2616 -3.0034
 2713SOL     OW25748   1.801   3.149  13.850  0.7980  0.4295  0.0267
 2713SOL    HW125749   1.714   3.145  13.890  0.6222  0.5315 -0.3426
 2713SOL    HW225750   1.813   3.242  13.830  1.4320  0.5768  1.0416
 2714SOL     OW25751   4.156   5.105  13.845  1.0728  0.0760  0.6423
 2714SOL    HW125752   4.066   5.073  13.847  1.7572 -1.9595  1.2820
 2714SOL    HW225753   4.173   5.126  13.753 -0.8759  3.2358  0.8583
 2715SOL     OW25754   2.543   0.226   7.108  0.3039  0.0959 -0.8053
 2715SOL    HW125755   2.590   0.271   7.037  0.1415 -0.8893 -1.5622
 2715SOL    HW225756   2.546   0.134   7.084 -3.4993  0.0550 -1.8824
 2716SOL     OW25757   9.477  11.234   3.784 -0.1792  0.8370 -0.2053
 2716SOL    HW125758   9.453  11.165   3.723 -1.1755  0.6934  0.3370
 2716SOL    HW225759   9.521  11.300   3.730 -2.9356  1.7398 -1.5360
 2717SOL     OW25760  10.967   0.151  12.970 -0.1318  0.3997 -0.2337
 2717SOL    HW125761  11.022   0.204  12.913  0.2653  0.3177  0.0632
 2717SOL    HW225762  10.897   0.209  12.997  0.0832  0.6581 -0.2288
 2718SOL     OW25763   3.457   7.946   4.172 -0.2897 -0.2466 -0.3910
 2718SOL    HW125764   3.499   8.011   4.228  0.4506  1.4184 -2.7316
 2718SOL    HW225765   3.431   7.994   4.093 -0.6497 -2.5766 -1.8077
 2719SOL     OW25766   2.938   2.219   4.076  0.1852  0.4783  0.4912
 2719SOL    HW125767   2.924   2.130   4.044 -1.9755  1.0585 -0.3346
 2719SOL    HW225768   2.921   2.213   4.170  1.5149 -0.2316  0.7153
 2720SOL     OW25769   5.397   7.477   3.728  0.0297 -0.0725 -0.1201
 2720SOL    HW125770   5.310   7.437   3.734  0.0196 -0.0874 -0.3595
 2720SOL    HW225771   5.413   7.486   3.634  0.4517 -0.4259 -0.0813
 2721SOL     OW25772   6.167   9.494  10.586 -0.2509  0.3763  0.3045
 2721SOL    HW125773   6.104   9.479  10.656  0.6470 -0.6800  0.9315
 2721SOL    HW225774   6.187   9.587  10.590 -0.8585  0.4835  0.8760
 2722SOL     OW25775   0.547   3.676   9.891 -0.3006  0.2005 -0.1048
 2722SOL    HW125776   0.572   3.660   9.800 -0.6745  0.1150 -0.1945
 2722SOL    HW225777   0.455   3.699   9.886 -0.1525  0.8662  0.1860
 2723SOL     OW25778   1.774   5.442   6.122  0.1779 -0.0449 -0.1458
 2723SOL    HW125779   1.842   5.464   6.058  0.8950 -1.0958  0.2442
 2723SOL    HW225780   1.723   5.523   6.131  0.1535  0.1711 -1.9258
 2724SOL     OW25781   3.493   8.258  11.331  0.3091 -0.7204 -0.3963
 2724SOL    HW125782   3.557   8.324  11.306  1.6514 -1.1793  1.5588
 2724SOL    HW225783   3.424   8.308  11.375  0.7067 -0.4862 -0.0304
 2725SOL     OW25784  12.063   8.480   6.980 -0.2390  0.3587 -0.3022
 2725SOL    HW125785  12.069   8.387   7.000 -0.9976  0.2726 -0.4481
 2725SOL    HW225786  12.104   8.524   7.055 -1.0622 -0.0430  0.3898
 2726SOL     OW25787   5.607   8.758   0.188  0.3875 -0.3252  0.1023
 2726SOL    HW125788   5.651   8.842   0.200  1.8423 -1.0623  0.0713
 2726SOL    HW225789   5.522   8.769   0.230  0.5439  1.1640  0.0695
 2727SOL     OW25790   2.773   4.777   5.267  0.0543 -0.2517  0.1307
 2727SOL    HW125791   2.809   4.806   5.351 -0.7553 -1.3010  0.8782
 2727SOL    HW225792   2.846   4.734   5.223  0.2217 -0.6533  0.7807
 2728SOL     OW25793  10.856  13.209   9.222  0.0977 -0.0637  0.2190
 2728SOL    HW125794  10.930  13.166   9.178 -0.3095 -0.9443  0.3788
 2728SOL    HW225795  10.833  13.281   9.163  0.1456 -0.6754 -0.5724
 2729SOL     OW25796  11.716  12.005  11.805 -0.9212  0.2013  0.3656
 2729SOL    HW125797  11.809  11.987  11.796 -0.7762  1.4945 -1.2986
 2729SOL    HW225798  11.712  12.086  11.857 -1.0086  0.9520 -0.7744
 2730SOL     OW25799   3.390   8.434  13.537  0.2466 -0.1286  0.6399
 2730SOL    HW125800   3.483   8.458  13.529  0.1484  0.1182  0.2235
 2730SOL    HW225801   3.364   8.410  13.448 -0.3618  0.8140  0.5492
 2731SOL     OW25802   8.752  13.350  10.766 -0.7196  0.3020  0.2320
 2731SOL    HW125803   8.787  13.272  10.724  0.8590  0.5606  0.9824
 2731SOL    HW225804   8.774  13.422  10.706  0.5592  0.5292  0.9326
 2732SOL     OW25805  13.556  10.361   0.239 -0.4087 -0.2491 -0.1399
 2732SOL    HW125806  13.608  10.441   0.243  1.5301 -1.4289 -0.6496
 2732SOL    HW225807  13.593  10.311   0.166 -2.3831 -1.0942 -0.6415
 2733SOL     OW25808  11.484   5.823  13.823 -0.1509 -0.5829 -0.0880
 2733SOL    HW125809  11.547   5.855  13.887 -0.6537  0.9493 -0.3031
 2733SOL    HW225810  11.399   5.838  13.864 -0.5013  0.8690 -1.2616
 2734SOL     OW25811   0.696   5.493  13.757  0.7140 -0.0480 -0.3967
 2734SOL    HW125812   0.790   5.492  13.737  0.9343 -0.7947  0.6031
 2734SOL    HW225813   0.688   5.553  13.831  0.8885 -2.3142  1.5712
 2735SOL     OW25814  12.625   7.991  10.285  0.2878 -0.4163  0.3307
 2735SOL    HW125815  12.661   7.984  10.197 -2.4806  0.0210 -0.9419
 2735SOL    HW225816  12.647   8.080  10.314 -0.5343  0.1715 -0.7921
 2736SOL     OW25817   7.354   5.033   3.675  0.1840 -0.0659 -0.1357
 2736SOL    HW125818   7.282   5.090   3.647  0.7225  0.2052 -1.0161
 2736SOL    HW225819   7.426   5.057   3.618  0.8422 -0.6574  0.4373
 2737SOL     OW25820  11.287   0.880  13.130 -0.0095  0.2338  0.0435
 2737SOL    HW125821  11.316   0.888  13.221  0.5872  1.1277 -0.2155
 2737SOL    HW225822  11.271   0.970  13.102  0.6366  0.0283 -0.9990
 2738SOL     OW25823  11.474   8.798   7.527 -0.2142  0.4225  0.2561
 2738SOL    HW125824  11.445   8.727   7.470  0.5704  0.3870 -0.1064
 2738SOL    HW225825  11.554   8.765   7.567 -0.3703  0.7320  0.8312
 2739SOL     OW25826   6.548   7.727   4.371 -0.0148  0.0267 -0.4684
 2739SOL    HW125827   6.620   7.766   4.420  0.8373  0.1202 -1.7625
 2739SOL    HW225828   6.579   7.640   4.347 -0.7791 -0.3630 -0.0872
 2740SOL     OW25829  10.054   0.467   9.225 -0.2316 -0.1282 -0.5268
 2740SOL    HW125830  10.097   0.387   9.194  1.0676  0.9298 -1.5905
 2740SOL    HW225831  10.066   0.465   9.319 -0.7439 -1.4665 -0.4652
 2741SOL     OW25832  12.361  10.200   6.206  0.3351  0.2281  0.5261
 2741SOL    HW125833  12.428  10.133   6.222 -0.4550 -1.0746 -1.2822
 2741SOL    HW225834  12.372  10.223   6.114 -1.7079 -0.0816  0.1445
 2742SOL     OW25835  13.835  10.333  10.293 -0.5900  0.2463 -0.4027
 2742SOL    HW125836  13.868  10.310  10.379 -2.2057  2.7232  1.0179
 2742SOL    HW225837  13.782  10.258  10.266  0.1670 -0.6716  0.5946
 2743SOL     OW25838  14.045   3.563   4.928  0.1585  0.6741  0.1663
 2743SOL    HW125839  14.134   3.588   4.953 -0.8712  2.5555  2.2851
 2743SOL    HW225840  14.007   3.642   4.890 -1.4748  0.8556  1.9979
 2744SOL     OW25841  13.757   6.586   3.642 -0.4613  0.3665  0.3318
 2744SOL    HW125842  13.718   6.596   3.729 -0.3198  1.7565  0.2603
 2744SOL    HW225843  13.763   6.492   3.629  0.8169  0.1149  2.4212
 2745SOL     OW25844  10.948   3.196   7.578 -0.0900  0.1901  0.2485
 2745SOL    HW125845  10.878   3.139   7.545 -0.0538  1.4059 -2.1174
 2745SOL    HW225846  11.024   3.139   7.586 -0.0752 -0.2166 -2.0089
 2746SOL     OW25847  13.882   2.805  13.902  0.4207  0.2455 -0.7737
 2746SOL    HW125848  13.874   2.772  13.812  1.6746 -1.0298 -0.4497
 2746SOL    HW225849  13.927   2.889  13.892  0.5172  0.1358 -1.3421
 2747SOL     OW25850   7.815   0.721  10.540 -0.4166 -0.2000 -0.4983
 2747SOL    HW125851   7.725   0.708  10.510 -0.3849 -0.8196 -0.3407
 2747SOL    HW225852   7.861   0.641  10.513 -0.2077 -0.4267  0.4846
 2748SOL     OW25853   6.429  13.208   4.646  0.0979  0.3621  0.0597
 2748SOL    HW125854   6.396  13.293   4.674 -2.7944 -0.1765 -1.3300
 2748SOL    HW225855   6.359  13.146   4.669  1.1275 -1.2780 -1.0062
 2749SOL     OW25856   9.503   0.737  11.154  0.0688 -0.3582  0.7283
 2749SOL    HW125857   9.495   0.681  11.077 -2.0928  0.4107  0.3373
 2749SOL    HW225858   9.583   0.706  11.198  0.6306 -1.6615 -1.1016
 2750SOL     OW25859   9.704   3.287  10.811 -0.1774 -0.3958 -0.4845
 2750SOL    HW125860   9.736   3.332  10.733 -1.5807  1.6430  0.0168
 2750SOL    HW225861   9.626   3.241  10.781 -0.7396  0.4209 -0.3295
 2751SOL     OW25862   6.844   5.317   2.799 -0.1579 -0.2979  0.1677
 2751SOL    HW125863   6.886   5.396   2.834 -0.3571  0.3181 -0.9173
 2751SOL    HW225864   6.765   5.307   2.852  0.6980 -0.7505  1.4081
 2752SOL     OW25865   1.134  10.479   9.668  0.6313  0.1305  0.1181
 2752SOL    HW125866   1.100  10.491   9.756  0.8045  0.8530  0.0915
 2752SOL    HW225867   1.184  10.559   9.650  0.9803 -0.2091 -0.4559
 2753SOL     OW25868   7.569   1.588   7.336  0.2195 -0.0513 -0.1423
 2753SOL    HW125869   7.616   1.594   7.420 -0.0772  1.4571 -0.0589
 2753SOL    HW225870   7.627   1.632   7.274 -0.7287  1.1713 -0.1838
 2754SOL     OW25871   9.964   3.091   0.146  0.3710  0.0933 -0.4318
 2754SOL    HW125872   9.886   3.146   0.139  0.9131  0.9243 -0.0185
 2754SOL    HW225873   9.949   3.021   0.082  0.0073  1.1274 -1.5189
 2755SOL     OW25874  11.399   9.719  13.272 -0.2090 -0.3805  0.1443
 2755SOL    HW125875  11.455   9.645  13.250 -1.6484 -2.1100  1.8743
 2755SOL    HW225876  11.447   9.766  13.339  0.1687 -0.5097 -0.0338
 2756SOL     OW25877   6.641   1.919   2.325 -0.1446 -0.3388 -0.1299
 2756SOL    HW125878   6.609   1.989   2.382 -0.9351 -1.1610  0.4576
 2756SOL    HW225879   6.577   1.915   2.254  1.1561  1.0948 -1.4684
 2757SOL     OW25880  10.721   5.350   1.345 -0.7803  0.3179 -0.0849
 2757SOL    HW125881  10.630   5.331   1.320 -0.7470 -0.2830  0.2155
 2757SOL    HW225882  10.714   5.408   1.421 -0.9699 -1.1173  1.0487
 2758SOL     OW25883   1.924  11.805   2.841  0.3457 -0.1170  0.4709
 2758SOL    HW125884   1.877  11.849   2.912  0.6291 -0.4031  0.8400
 2758SOL    HW225885   1.952  11.722   2.879  0.1493 -0.4508 -0.1027
 2759SOL     OW25886  11.792  12.153  13.026  0.5977  0.1605  0.0540
 2759SOL    HW125887  11.870  12.130  12.976 -0.1813  0.7950 -1.5111
 2759SOL    HW225888  11.735  12.076  13.019 -0.3327  0.9508 -1.7849
 2760SOL     OW25889   3.669   9.609   6.785 -0.2230  0.3462  0.2828
 2760SOL    HW125890   3.734   9.666   6.826  0.5619 -1.1580  1.2062
 2760SOL    HW225891   3.630   9.560   6.858  0.6235 -1.8129 -0.6288
 2761SOL     OW25892   1.240  13.823   1.088 -0.7386  0.3047  0.4595
 2761SOL    HW125893   1.240  13.727   1.083  0.3080  0.2981  0.5209
 2761SOL    HW225894   1.282  13.843   1.171 -1.3668  0.8198  0.6594
 2762SOL     OW25895   6.115   8.271   5.353 -0.0923 -0.4719  0.0571
 2762SOL    HW125896   6.030   8.306   5.381 -0.2005 -0.8560  0.2167
 2762SOL    HW225897   6.177   8.302   5.419 -0.5548 -2.4828  1.5340
 2763SOL     OW25898  12.036   1.396   6.016 -0.5237 -0.1648 -0.1854
 2763SOL    HW125899  11.986   1.465   6.059 -0.0334  1.6538 -2.3695
 2763SOL    HW225900  12.127   1.414   6.040 -0.4317 -0.3576 -0.3889
 2764SOL     OW25901   2.614  11.724   3.797  0.7329 -0.4095 -0.4702
 2764SOL    HW125902   2.602  11.781   3.873  1.2403  0.3600 -0.9464
 2764SOL    HW225903   2.706  11.737   3.772  0.6528 -0.8818 -1.0394
 2765SOL     OW25904  13.180  13.461   7.948 -0.3433  0.0679  0.4468
 2765SOL    HW125905  13.096  13.503   7.966  0.1869  1.5858 -0.4563
 2765SOL    HW225906  13.169  13.420   7.862 -0.9638 -2.0403  1.4588
 2766SOL     OW25907   8.023   8.428   0.620 -0.1976 -0.3999  0.1655
 2766SOL    HW125908   8.021   8.510   0.569 -0.0510  0.1670  1.0454
 2766SOL    HW225909   8.081   8.371   0.570  0.6657  0.4616  0.1497
 2767SOL     OW25910  12.252   2.229  13.802  0.3391 -0.0552 -0.4700
 2767SOL    HW125911  12.238   2.167  13.730 -0.0782  1.4951 -1.7968
 2767SOL    HW225912  12.332   2.275  13.778  0.6360 -0.0458  0.4919
 2768SOL     OW25913   0.325  11.600   6.121 -0.1977  0.0139 -0.5374
 2768SOL    HW125914   0.409  11.577   6.083  0.5610  1.8453 -0.0754
 2768SOL    HW225915   0.310  11.690   6.093 -0.4071  0.8653  2.0687
 2769SOL     OW25916  11.210   9.396   0.293 -0.1219 -0.1333  0.6627
 2769SOL    HW125917  11.173   9.448   0.365 -1.0364  0.2893 -0.0897
 2769SOL    HW225918  11.150   9.321   0.286 -1.3529  0.9291 -1.0536
 2770SOL     OW25919  13.224   4.894  10.219  0.4224 -0.2510  0.3760
 2770SOL    HW125920  13.239   4.906  10.126  0.6400 -0.7583  0.3390
 2770SOL    HW225921  13.302   4.848  10.250  1.0213  1.1950  1.0991
 2771SOL     OW25922  13.960   5.775   7.956  0.7611  0.1404 -0.3401
 2771SOL    HW125923  13.919   5.733   8.032  0.1704  0.3017 -0.5674
 2771SOL    HW225924  13.887   5.806   7.904  1.0734 -1.7072 -1.9894
 2772SOL     OW25925   9.557   1.234  10.284  0.2132  0.3724 -0.2890
 2772SOL    HW125926   9.522   1.164  10.229  2.0902 -2.2150  1.5910
 2772SOL    HW225927   9.652   1.224  10.279  0.4802  0.9155  2.2639
 2773SOL     OW25928  12.886   3.574  10.258  0.1748  0.0899 -0.3097
 2773SOL    HW125929  12.814   3.513  10.274  0.7566 -1.3496 -2.7094
 2773SOL    HW225930  12.932   3.579  10.341 -1.5684 -0.4698  0.7368
 2774SOL     OW25931  13.120   0.784  10.844 -0.1864 -0.2103  0.4268
 2774SOL    HW125932  13.027   0.767  10.852 -0.0792 -1.0469  0.0610
 2774SOL    HW225933  13.141   0.761  10.753  0.8138 -2.4135  1.1336
 2775SOL     OW25934   9.592   2.708   8.284 -0.3819  0.0457  0.1795
 2775SOL    HW125935   9.676   2.671   8.310 -0.2794  1.5893  2.3412
 2775SOL    HW225936   9.553   2.641   8.228  1.7632 -1.2090  0.0668
 2776SOL     OW25937  14.061  10.604   5.857  0.2826  0.0505 -0.1101
 2776SOL    HW125938  13.975  10.642   5.841 -0.1834 -0.3305  1.3860
 2776SOL    HW225939  14.050  10.551   5.936  2.1979  1.1022  0.9439
 2777SOL     OW25940  10.551   1.075   6.867  0.1116  0.1801  0.1424
 2777SOL    HW125941  10.612   1.131   6.819  1.0000 -0.0326  0.9952
 2777SOL    HW225942  10.606   1.004   6.902 -0.9632 -1.1753 -0.8110
 2778SOL     OW25943   3.308  13.292  13.119 -0.1781 -0.5468  0.2966
 2778SOL    HW125944   3.267  13.346  13.051  0.2906  0.2410  0.6211
 2778SOL    HW225945   3.291  13.340  13.200 -3.2837 -2.9132  1.2056
 2779SOL     OW25946   6.764  11.399   7.533 -0.2183 -0.1180  0.2575
 2779SOL    HW125947   6.842  11.391   7.589  0.6060  3.2497 -0.1761
 2779SOL    HW225948   6.709  11.463   7.579 -0.9350  0.4007 -1.2722
 2780SOL     OW25949   6.560   8.663   3.631 -0.1822 -1.1252  0.3901
 2780SOL    HW125950   6.545   8.568   3.635 -0.9053 -1.0208  0.1858
 2780SOL    HW225951   6.627   8.673   3.563 -1.4078 -1.3601 -0.8920
 2781SOL     OW25952  10.209  12.419  12.647  0.1475 -0.3729 -0.2178
 2781SOL    HW125953  10.172  12.496  12.605 -1.9141 -0.5747  1.0908
 2781SOL    HW225954  10.148  12.399  12.719  1.7515 -1.9743  0.7813
 2782SOL     OW25955  11.892   0.375  10.470 -0.5813  0.4484  0.0006
 2782SOL    HW125956  11.978   0.383  10.429 -0.5004 -1.4001 -0.3053
 2782SOL    HW225957  11.907   0.320  10.547 -1.1340  1.9667  1.2385
 2783SOL     OW25958  11.585  13.167   1.431  0.0229  0.3068  0.6690
 2783SOL    HW125959  11.613  13.244   1.481 -0.1337  1.6096 -1.1317
 2783SOL    HW225960  11.651  13.157   1.363 -0.9059 -0.0260 -0.2134
 2784SOL     OW25961   7.553  13.880   7.241 -0.4087  0.3874  0.3684
 2784SOL    HW125962   7.504  13.839   7.312 -0.1593  1.8233  1.4101
 2784SOL    HW225963   7.645  13.863   7.261 -0.3746 -0.6717 -0.5661
 2785SOL     OW25964   9.995   1.222   4.352 -0.4079 -0.5122  0.0651
 2785SOL    HW125965   9.899   1.218   4.345 -0.6900 -0.4695  2.7084
 2785SOL    HW225966  10.025   1.138   4.318 -1.3692 -0.5270 -0.8109
 2786SOL     OW25967  11.662   0.034   7.371  0.3366 -0.0381  0.5756
 2786SOL    HW125968  11.603  -0.037   7.344  1.7386 -1.2504  0.5322
 2786SOL    HW225969  11.706   0.060   7.290 -1.8349  2.6277  0.1023
 2787SOL     OW25970  13.235  10.775   5.703  0.6036  0.2790  0.2549
 2787SOL    HW125971  13.254  10.735   5.618 -0.2559 -1.3258  0.7764
 2787SOL    HW225972  13.314  10.824   5.725  1.6779 -1.0543 -0.4853
 2788SOL     OW25973  12.008  12.047   4.480  0.0347 -1.0256 -0.1721
 2788SOL    HW125974  12.065  11.970   4.476  0.3136 -0.9400  1.4149
 2788SOL    HW225975  11.933  12.018   4.531 -0.5052 -0.6143 -0.7200
 2789SOL     OW25976   4.076   5.507  10.521  0.0410  0.1377  0.2278
 2789SOL    HW125977   4.052   5.564  10.449  0.5686  0.2586  0.1449
 2789SOL    HW225978   4.001   5.511  10.581 -0.6902 -0.4892 -0.6175
 2790SOL     OW25979   3.926   7.712   3.183 -0.2420  0.1682  0.2305
 2790SOL    HW125980   3.894   7.718   3.093 -0.9045 -1.3809  0.3355
 2790SOL    HW225981   3.984   7.788   3.193 -2.0869  1.7901 -0.7030
 2791SOL     OW25982  12.168   9.293   3.060  0.4180 -0.0473  0.0056
 2791SOL    HW125983  12.148   9.220   3.001 -0.2898  0.6328 -0.6032
 2791SOL    HW225984  12.154   9.257   3.148  0.9546 -0.9069 -0.2408
 2792SOL     OW25985   5.180   1.664   6.654 -0.0953  0.0876 -0.4489
 2792SOL    HW125986   5.110   1.648   6.717  0.8724  1.0934  0.9632
 2792SOL    HW225987   5.236   1.586   6.660  0.2982  0.4135  0.4194
 2793SOL     OW25988   2.675  13.393   9.999  0.8555  0.2892  0.0821
 2793SOL    HW125989   2.758  13.374   9.957  0.8704  1.4143 -0.4515
 2793SOL    HW225990   2.682  13.485  10.026 -0.3038  0.4958 -0.2237
 2794SOL     OW25991   8.377   9.551   4.891 -0.4786 -0.6891 -0.2168
 2794SOL    HW125992   8.323   9.579   4.966  0.0877 -0.7012  0.2046
 2794SOL    HW225993   8.318   9.497   4.838 -0.4905 -1.9192  0.9869
 2795SOL     OW25994   0.789   4.104  13.135 -0.0562 -1.1372  0.2241
 2795SOL    HW125995   0.813   4.162  13.207  1.2089 -0.5656 -0.6074
 2795SOL    HW225996   0.696   4.088  13.146 -0.3440  0.7116  0.7530
 2796SOL     OW25997   4.646  10.270   3.872  0.2920 -0.3593 -0.3062
 2796SOL    HW125998   4.585  10.328   3.918  0.0119 -0.1862 -0.8924
 2796SOL    HW225999   4.720  10.325   3.849 -0.5632  0.1295 -2.0662
 2797SOL     OW26000  10.669   4.095  12.975 -0.7080 -0.0880 -0.4459
 2797SOL    HW126001  10.678   4.024  13.039 -0.2821  0.1471 -0.2442
 2797SOL    HW226002  10.659   4.051  12.891 -2.9863 -0.4629 -0.0569
 2798SOL     OW26003   0.654  12.572  11.539 -0.3319  0.1582 -0.3300
 2798SOL    HW126004   0.705  12.610  11.468 -0.8204  0.4074 -0.5528
 2798SOL    HW226005   0.718  12.523  11.591 -0.0157 -0.2348 -1.0730
 2799SOL     OW26006   2.815   3.098   1.541 -0.1887 -0.1936 -0.1438
 2799SOL    HW126007   2.858   3.101   1.456 -1.8546 -1.1708 -1.0695
 2799SOL    HW226008   2.803   3.190   1.565 -0.2074  0.1065 -1.2457
 2800SOL     OW26009  13.657   3.907   9.059 -0.2981 -0.3254 -0.1053
 2800SOL    HW126010  13.561   3.911   9.059 -0.3608 -1.4436  0.4256
 2800SOL    HW226011  13.681   3.889   8.968 -0.6276 -0.5872 -0.1420
 2801SOL     OW26012  13.472   2.833   7.381 -0.0351  0.8760  0.1010
 2801SOL    HW126013  13.502   2.815   7.292 -1.6351  1.9836 -0.7170
 2801SOL    HW226014  13.384   2.870   7.370  0.2107  2.2198  2.0612
 2802SOL     OW26015   0.176  11.132   9.094 -0.1576  0.2600  0.0775
 2802SOL    HW126016   0.094  11.179   9.106  0.0507  0.4838  0.6910
 2802SOL    HW226017   0.200  11.103   9.183  0.4423  0.2279 -0.0875
 2803SOL     OW26018   0.209   8.300   4.978  0.2923  0.5783  0.3784
 2803SOL    HW126019   0.286   8.247   4.960  0.1146  0.3435  0.3007
 2803SOL    HW226020   0.152   8.287   4.902  0.6471  1.6177 -0.0800
 2804SOL     OW26021  11.335   5.603   3.464 -0.6729  0.3254 -0.4737
 2804SOL    HW126022  11.359   5.647   3.545  3.1040  0.0069 -1.2325
 2804SOL    HW226023  11.311   5.515   3.491 -2.4222  1.0488  0.4950
 2805SOL     OW26024   8.476   4.772   7.106  0.1660  0.0770 -0.1363
 2805SOL    HW126025   8.463   4.854   7.059  1.6337 -0.3968 -1.4200
 2805SOL    HW226026   8.387   4.738   7.118 -0.4431  1.6713  0.1339
 2806SOL     OW26027  10.997  10.160   0.991  0.1746 -0.2224  0.0052
 2806SOL    HW126028  11.091  10.146   0.979  0.1560  0.7575 -1.5883
 2806SOL    HW226029  10.980  10.243   0.947 -1.2196  0.2972  1.4489
 2807SOL     OW26030   3.266   0.488   2.370  0.2271 -0.3859  0.5902
 2807SOL    HW126031   3.244   0.443   2.288 -1.1495  0.4111  0.5016
 2807SOL    HW226032   3.182   0.507   2.411  0.7861  1.4936  0.9634
 2808SOL     OW26033   4.333   8.299   0.839  0.3225 -0.1219  0.3744
 2808SOL    HW126034   4.401   8.361   0.812  1.0876 -0.6036  1.1673
 2808SOL    HW226035   4.267   8.354   0.882  0.0517  0.3827 -0.6465
 2809SOL     OW26036   1.302   3.070   2.959 -0.0250 -0.0918  0.6325
 2809SOL    HW126037   1.328   3.051   2.868  0.8692  2.0823  0.3636
 2809SOL    HW226038   1.373   3.034   3.012  1.0657  1.3878  0.2255
 2810SOL     OW26039  10.146   5.376  13.134 -0.1768 -0.1640  0.0602
 2810SOL    HW126040  10.100   5.439  13.189 -0.2744  0.2986 -0.5477
 2810SOL    HW226041  10.114   5.291  13.164 -0.9337  0.1242  0.0917
 2811SOL     OW26042  13.776   4.095   7.008 -0.6008 -0.3412 -0.4506
 2811SOL    HW126043  13.730   4.179   7.012  0.3318  0.1688 -0.0825
 2811SOL    HW226044  13.824   4.098   6.925  3.8243  1.9351  1.8487
 2812SOL     OW26045   9.588   5.552   0.825 -0.5242 -0.3012 -0.2871
 2812SOL    HW126046   9.584   5.555   0.920 -1.7351 -1.0811 -0.2965
 2812SOL    HW226047   9.618   5.464   0.805 -0.6306 -0.2564 -0.6470
 2813SOL     OW26048   9.791  13.259   7.998 -0.2293  0.4012  0.2798
 2813SOL    HW126049   9.885  13.254   8.011  0.6192 -1.2608 -4.4648
 2813SOL    HW226050   9.775  13.348   7.966  0.2854 -0.1178 -1.5153
 2814SOL     OW26051   1.137  13.303  10.826 -0.3510  0.3317 -0.0323
 2814SOL    HW126052   1.148  13.398  10.832  0.8144  0.3079 -1.1965
 2814SOL    HW226053   1.135  13.285  10.732  1.6735 -0.9790  0.0999
 2815SOL     OW26054  13.235   0.625   7.647  0.6214  0.4398  0.7020
 2815SOL    HW126055  13.148   0.586   7.631  0.0616  2.0066 -0.2834
 2815SOL    HW226056  13.251   0.609   7.740  0.6876 -2.5826  0.2735
 2816SOL     OW26057   8.683   0.203   0.538 -0.1663 -0.0844  0.0891
 2816SOL    HW126058   8.735   0.223   0.461 -0.0935  0.5325  0.2898
 2816SOL    HW226059   8.592   0.205   0.507 -0.0920 -0.8270 -0.1885
 2817SOL     OW26060   0.030   7.384  13.246 -0.2733 -0.0492  0.1647
 2817SOL    HW126061   0.032   7.302  13.295  1.3317 -0.9861 -1.3335
 2817SOL    HW226062   0.056   7.359  13.157 -0.3747  1.9964 -0.4894
 2818SOL     OW26063   0.053   9.053   5.748  0.5835  0.1242  0.1756
 2818SOL    HW126064   0.103   9.121   5.793  0.5518  0.4522 -0.2694
 2818SOL    HW226065   0.025   9.095   5.666  3.0752 -1.2835 -1.5599
 2819SOL     OW26066   8.904  12.886   0.185 -0.5783 -0.5483  0.4378
 2819SOL    HW126067   8.830  12.944   0.171 -0.2566 -0.0649  0.7059
 2819SOL    HW226068   8.940  12.912   0.270 -0.0725 -0.7371  0.2888
 2820SOL     OW26069  10.614  11.043   6.611 -0.5367  0.4780 -0.4530
 2820SOL    HW126070  10.539  11.103   6.613 -0.7029  0.2707  1.1580
 2820SOL    HW226071  10.688  11.098   6.585 -0.9626  1.0573 -0.4660
 2821SOL     OW26072   5.644   1.442  12.252 -0.0392  0.6410 -0.2820
 2821SOL    HW126073   5.565   1.488  12.281  0.9183  2.5677 -0.5870
 2821SOL    HW226074   5.703   1.445  12.328 -0.0149 -0.2140 -0.2636
 2822SOL     OW26075   9.460   8.770  13.063 -0.6489  0.0952  0.1636
 2822SOL    HW126076   9.381   8.717  13.056 -0.6078 -0.2303  1.7137
 2822SOL    HW226077   9.446   8.843  13.003 -1.0212 -1.2565 -1.4747
 2823SOL     OW26078  12.456   0.414   0.364  0.0894 -0.2471  0.1567
 2823SOL    HW126079  12.409   0.330   0.364 -0.5778  0.0837  1.8521
 2823SOL    HW226080  12.444   0.448   0.453  0.1524  1.7573 -0.5424
 2824SOL     OW26081  13.780   0.648  13.606  0.4058 -0.2545 -0.4885
 2824SOL    HW126082  13.748   0.558  13.605 -0.3719  0.0054  0.1015
 2824SOL    HW226083  13.710   0.699  13.566  1.0806  0.0204 -1.3366
 2825SOL     OW26084   7.258  12.301  13.881 -0.0244 -0.4997 -0.6802
 2825SOL    HW126085   7.193  12.315  13.950  1.0022 -0.2438  0.2676
 2825SOL    HW226086   7.213  12.248  13.816 -1.4286  0.3196 -0.4250
 2826SOL     OW26087   6.682   8.666   2.069 -0.5117  0.2487 -0.4345
 2826SOL    HW126088   6.709   8.681   2.159 -0.6856 -0.7085 -0.2092
 2826SOL    HW226089   6.691   8.571   2.057 -0.4782  0.3677 -1.4248
 2827SOL     OW26090   3.728  13.225   7.170 -0.4373  0.4552  0.3249
 2827SOL    HW126091   3.671  13.268   7.106 -1.3890 -3.8045 -2.0400
 2827SOL    HW226092   3.677  13.228   7.252 -1.9234  0.8751 -0.5765
 2828SOL     OW26093   9.130   0.024   9.816  0.6078 -0.2029  0.1480
 2828SOL    HW126094   9.188  -0.048   9.792 -0.3890 -1.1564  0.5403
 2828SOL    HW226095   9.098   0.002   9.903  1.2465  1.3523  0.8169
 2829SOL     OW26096   4.293   4.503   7.297 -0.0158  0.6344  0.3412
 2829SOL    HW126097   4.279   4.410   7.314 -0.4549  0.6129 -0.1251
 2829SOL    HW226098   4.219   4.529   7.242  0.7142  0.9892 -0.4910
 2830SOL     OW26099   4.309  11.499   9.748 -0.1426 -0.4352 -0.3527
 2830SOL    HW126100   4.218  11.502   9.779 -0.5398 -3.2951 -0.9353
 2830SOL    HW226101   4.361  11.494   9.828 -0.8225 -2.6563  0.0289
 2831SOL     OW26102   4.837   5.127  13.654 -0.5057 -0.4088 -0.0421
 2831SOL    HW126103   4.845   5.172  13.738 -1.0029 -1.0304  0.3501
 2831SOL    HW226104   4.827   5.197  13.589  0.1436  0.0854  0.3802
 2832SOL     OW26105   9.438   2.620   5.888 -0.3517 -0.6042 -0.4911
 2832SOL    HW126106   9.448   2.710   5.918 -0.4733 -0.8292  0.2369
 2832SOL    HW226107   9.451   2.625   5.793  1.4424 -0.0847 -0.2509
 2833SOL     OW26108   1.800  13.980   6.239 -0.2322 -0.0316  0.7732
 2833SOL    HW126109   1.870  13.996   6.176 -0.6010 -0.0399  0.3552
 2833SOL    HW226110   1.812  13.888   6.265  0.7116  0.3427  1.7142
 2834SOL     OW26111   9.525   4.107   3.611 -0.0682  0.5963  0.2205
 2834SOL    HW126112   9.501   4.181   3.667  1.7799  0.4293  1.2839
 2834SOL    HW226113   9.472   4.034   3.644 -1.0987  1.1669 -0.1361
 2835SOL     OW26114   0.058  12.950  12.365 -0.0173  0.3690  0.0236
 2835SOL    HW126115  -0.001  12.895  12.417  2.0683 -0.6024  1.4587
 2835SOL    HW226116   0.052  12.913  12.276  0.6719 -1.6628  0.7655
 2836SOL     OW26117   2.725   1.693   6.745  0.4279  0.2407  0.5245
 2836SOL    HW126118   2.640   1.673   6.783  0.8582  0.2681  1.5271
 2836SOL    HW226119   2.720   1.660   6.655 -0.7025  0.4324  0.5091
 2837SOL     OW26120   1.162  13.151   2.366 -0.3110 -0.2076 -0.1452
 2837SOL    HW126121   1.089  13.176   2.310 -0.3824  0.3801  0.1987
 2837SOL    HW226122   1.127  13.083   2.423 -0.7620  0.4869  0.4147
 2838SOL     OW26123   5.754   7.590   0.169 -0.5289 -0.0115  0.1486
 2838SOL    HW126124   5.771   7.663   0.108 -1.0705  0.4689  0.5642
 2838SOL    HW226125   5.827   7.530   0.155 -1.4444 -0.7068 -2.1448
 2839SOL     OW26126   5.324   0.833   0.548 -0.7802  0.3830  0.3515
 2839SOL    HW126127   5.413   0.811   0.521 -1.1024 -0.0543 -0.3961
 2839SOL    HW226128   5.326   0.927   0.566 -0.4335  0.6061 -0.7757
 2840SOL     OW26129   1.868   3.153  11.343 -0.2921  0.1181 -0.9167
 2840SOL    HW126130   1.789   3.174  11.293  0.0430  1.5649 -0.8822
 2840SOL    HW226131   1.931   3.123  11.277 -0.6035 -0.2609 -1.0456
 2841SOL     OW26132   1.389   9.947   0.721 -0.0391 -0.4179 -0.1266
 2841SOL    HW126133   1.448   9.948   0.797 -1.4989 -0.2035  1.0547
 2841SOL    HW226134   1.401  10.033   0.680  0.0136 -0.1228  0.4888
 2842SOL     OW26135  13.743   7.436   0.377  0.7273 -0.3738 -0.3030
 2842SOL    HW126136  13.683   7.465   0.446  1.1700  0.8063 -0.3916
 2842SOL    HW226137  13.689   7.382   0.319 -0.1641  0.3669 -0.1853
 2843SOL     OW26138  11.110   3.318  12.108 -0.4302 -0.3777 -0.1187
 2843SOL    HW126139  11.087   3.227  12.129  0.1867 -0.7324 -0.9295
 2843SOL    HW226140  11.162   3.311  12.028  0.4410  0.6077  0.3496
 2844SOL     OW26141   2.145   7.960   9.475 -0.1391  0.0764 -0.2755
 2844SOL    HW126142   2.191   8.042   9.455 -1.6822  0.8385 -0.8537
 2844SOL    HW226143   2.081   7.984   9.542 -0.1359 -0.8351  0.0715
 2845SOL     OW26144  12.002   8.508   4.973 -0.0400 -0.0864 -0.1226
 2845SOL    HW126145  12.052   8.576   4.929 -0.9089  0.7559  0.1688
 2845SOL    HW226146  11.994   8.438   4.907  2.0764 -0.5703  0.0374
 2846SOL     OW26147   9.538   6.925   5.214  0.1681 -0.0820 -0.2787
 2846SOL    HW126148   9.572   6.962   5.295 -2.1256  0.3000  0.5771
 2846SOL    HW226149   9.515   7.001   5.160 -2.2311 -0.1616  0.4874
 2847SOL     OW26150   9.954   3.378   4.961 -0.9957  0.1166  0.0626
 2847SOL    HW126151   9.906   3.460   4.975 -0.3171  0.2879  1.6489
 2847SOL    HW226152   9.904   3.312   5.010 -0.0682  0.1451  1.0841
 2848SOL     OW26153   3.579   5.335   4.390  0.5886 -0.3281  0.2749
 2848SOL    HW126154   3.634   5.310   4.316  0.7149 -1.2504  0.6630
 2848SOL    HW226155   3.492   5.301   4.368 -0.1603  2.1301 -0.8708
 2849SOL     OW26156  11.623   7.134  12.009  0.4342 -0.2388 -0.0422
 2849SOL    HW126157  11.627   7.208  12.070 -1.8566 -0.8796  1.0456
 2849SOL    HW226158  11.707   7.089  12.019  2.7204  3.1784 -2.1922
 2850SOL     OW26159   1.870   8.928   5.955 -0.2047 -0.0860  0.2575
 2850SOL    HW126160   1.862   8.897   5.865 -0.0571  1.3327 -0.2634
 2850SOL    HW226161   1.854   8.850   6.008  1.5679 -1.3868 -0.9954
 2851SOL     OW26162  13.419   7.533  11.773  0.0495 -0.1999 -0.1305
 2851SOL    HW126163  13.454   7.452  11.810 -0.4555 -1.0882 -1.5223
 2851SOL    HW226164  13.462   7.541  11.687 -0.6552  0.4666 -0.4311
 2852SOL     OW26165  13.846   1.856  12.582 -0.2505  0.1804 -0.3865
 2852SOL    HW126166  13.840   1.814  12.496  0.2450  1.3946 -1.0305
 2852SOL    HW226167  13.871   1.785  12.641 -3.9354 -1.4723 -0.5516
 2853SOL     OW26168  10.094  13.517   6.812 -0.5549 -0.6904  0.0988
 2853SOL    HW126169  10.147  13.583   6.768 -0.2200 -0.1821  1.2228
 2853SOL    HW226170  10.150  13.440   6.816 -1.0156 -1.1394 -1.3885
 2854SOL     OW26171   6.651  12.009   4.216  0.0373  0.2919 -0.2569
 2854SOL    HW126172   6.647  11.937   4.279 -1.0253 -0.7909 -1.5208
 2854SOL    HW226173   6.607  12.082   4.262  1.5488  0.3387  1.2132
 2855SOL     OW26174  11.501  11.221  13.346  0.5081  0.0734 -0.0314
 2855SOL    HW126175  11.580  11.255  13.305  1.2470 -1.1619  0.3366
 2855SOL    HW226176  11.441  11.206  13.273  0.7408  0.6594 -0.3482
 2856SOL     OW26177   3.116  11.566   8.662 -0.2263 -0.3632 -0.1422
 2856SOL    HW126178   3.112  11.471   8.668  0.7859 -0.4861 -1.1107
 2856SOL    HW226179   3.209  11.587   8.662 -0.3799  0.5013 -1.5060
 2857SOL     OW26180   0.571  10.224   9.697 -0.5445 -0.0879  0.1584
 2857SOL    HW126181   0.545  10.296   9.754 -0.2618 -0.5586  0.8902
 2857SOL    HW226182   0.505  10.157   9.711  1.0673 -1.3869  2.2090
 2858SOL     OW26183   4.555  11.725   3.351  0.1215 -0.0684 -0.3601
 2858SOL    HW126184   4.534  11.659   3.417  1.2179 -0.7567 -0.6672
 2858SOL    HW226185   4.488  11.793   3.362 -0.1283 -0.5103  0.9686
 2859SOL     OW26186   8.890   6.747   9.828 -0.5607 -0.5166 -0.0532
 2859SOL    HW126187   8.844   6.722   9.748  0.5408 -0.5677 -0.6887
 2859SOL    HW226188   8.962   6.686   9.835 -1.1602 -1.0935  1.5022
 2860SOL     OW26189  10.791   4.711   0.538 -0.7259 -0.0303  0.0971
 2860SOL    HW126190  10.847   4.677   0.468  0.3254 -0.9765  1.3294
 2860SOL    HW226191  10.841   4.784   0.575 -0.1177 -1.0263  1.3553
 2861SOL     OW26192   4.449   1.060   2.127  0.5480  0.4808  0.6135
 2861SOL    HW126193   4.411   1.113   2.057  1.5428  0.0158 -0.3056
 2861SOL    HW226194   4.530   1.107   2.150  2.8421 -1.8131 -1.9896
 2862SOL     OW26195   4.854   3.475   8.012 -0.2227  0.2129  0.0140
 2862SOL    HW126196   4.922   3.539   7.994  0.7710 -0.6525  0.5748
 2862SOL    HW226197   4.821   3.498   8.099 -1.5387  1.3655 -0.7390
 2863SOL     OW26198   5.388   1.830   2.691 -0.2155  0.4673  0.4147
 2863SOL    HW126199   5.443   1.896   2.650  0.0723  1.8959  2.9222
 2863SOL    HW226200   5.302   1.871   2.700 -0.9125 -0.6572 -0.7620
 2864SOL     OW26201   6.603  10.741   8.776 -0.0468  0.4015 -0.0893
 2864SOL    HW126202   6.696  10.716   8.772  0.1105  1.0982 -2.8607
 2864SOL    HW226203   6.555  10.659   8.765  0.1621  0.0061  1.5637
 2865SOL     OW26204  13.563  14.025   0.703 -0.3475  0.0558  0.3592
 2865SOL    HW126205  13.583  14.000   0.793  0.2680 -0.1853  0.1632
 2865SOL    HW226206  13.572  14.121   0.702  2.0059 -0.1073  0.0314
 2866SOL     OW26207   9.727   4.790   2.689  0.0647  0.1425  0.0483
 2866SOL    HW126208   9.721   4.873   2.736 -0.8018  0.2385 -0.2146
 2866SOL    HW226209   9.663   4.734   2.731  1.8232 -0.9910  1.3469
 2867SOL     OW26210   3.180   2.002   4.103 -0.6673 -0.5844 -0.1021
 2867SOL    HW126211   3.090   2.026   4.082 -0.2217  0.3015 -1.1678
 2867SOL    HW226212   3.232   2.076   4.070  0.5431 -1.6620 -0.6851
 2868SOL     OW26213   1.247   4.877   2.156  0.6878  0.2853  0.5186
 2868SOL    HW126214   1.250   4.963   2.199  2.0071  0.2191  0.5763
 2868SOL    HW226215   1.333   4.839   2.172  2.6607  1.5419 -4.7844
 2869SOL     OW26216   1.860   7.349   5.090 -0.0807 -0.6503 -0.3058
 2869SOL    HW126217   1.922   7.279   5.069 -0.0479 -0.8581  0.4697
 2869SOL    HW226218   1.914   7.422   5.119 -0.0151  0.2038 -2.3783
 2870SOL     OW26219   4.812   7.856   3.228  0.0850 -0.2299  0.1568
 2870SOL    HW126220   4.785   7.797   3.298  0.0405 -1.3657 -0.7899
 2870SOL    HW226221   4.767   7.938   3.246 -0.6135 -0.7834  0.9657
 2871SOL     OW26222   5.731   0.885  11.993  0.1714  0.0043  0.0973
 2871SOL    HW126223   5.684   0.945  12.050  0.5754  0.0372  0.3995
 2871SOL    HW226224   5.823   0.912  12.000  0.5795 -1.5235  1.3686
 2872SOL     OW26225   4.575  13.391   7.100  0.2692 -0.2345 -0.5881
 2872SOL    HW126226   4.485  13.423   7.091 -0.1282 -0.5353  1.6997
 2872SOL    HW226227   4.574  13.306   7.056 -0.1975  0.3270 -1.7043
 2873SOL     OW26228   1.265   3.106   0.972 -0.0253  0.5560 -0.0992
 2873SOL    HW126229   1.181   3.148   0.986  0.2492  0.7441  1.1414
 2873SOL    HW226230   1.309   3.112   1.057  1.8395  1.7871 -1.0778
 2874SOL     OW26231   0.282   7.265   0.759 -0.5906 -0.4249 -0.0355
 2874SOL    HW126232   0.237   7.219   0.830 -0.5046 -0.1365  0.2128
 2874SOL    HW226233   0.240   7.351   0.756 -2.3234 -1.2779 -2.0320
 2875SOL     OW26234  13.900  12.891   2.460  0.0087 -0.1084 -0.4232
 2875SOL    HW126235  13.852  12.860   2.537  1.1493  0.1587  0.4338
 2875SOL    HW226236  13.872  12.835   2.389 -0.6866 -0.7085  0.3105
 2876SOL     OW26237   5.407   5.352  13.097 -0.3448 -0.7864  0.1790
 2876SOL    HW126238   5.357   5.392  13.168 -1.3648 -0.4931 -0.6745
 2876SOL    HW226239   5.347   5.353  13.022  0.8939 -0.5868 -0.8387
 2877SOL     OW26240   4.209   4.839   7.015 -0.6695 -0.3366  0.3189
 2877SOL    HW126241   4.137   4.890   6.977 -0.1268 -0.3789 -0.8168
 2877SOL    HW226242   4.179   4.748   7.012  0.3728 -0.7150 -2.6494
 2878SOL     OW26243   6.567   0.039  11.555 -0.0142 -0.0951  0.3903
 2878SOL    HW126244   6.568  -0.013  11.635 -0.4195 -2.1203 -0.8618
 2878SOL    HW226245   6.606  -0.018  11.489 -2.0150  0.5218 -1.4236
 2879SOL     OW26246   5.238   3.142   6.469 -0.3342 -0.3083  0.2598
 2879SOL    HW126247   5.314   3.094   6.502 -0.1932 -0.2209  0.0716
 2879SOL    HW226248   5.177   3.074   6.441  0.5286 -0.4162 -1.5199
 2880SOL     OW26249   0.867  13.628   4.853 -0.2412  0.4012  0.5909
 2880SOL    HW126250   0.907  13.650   4.769 -0.0799  1.1542  0.8608
 2880SOL    HW226251   0.838  13.537   4.842 -0.8226  0.7007 -0.5134
 2881SOL     OW26252   4.278  11.764   8.863  0.6008  0.0101 -0.5076
 2881SOL    HW126253   4.209  11.741   8.925 -1.5500  0.4460 -2.5867
 2881SOL    HW226254   4.350  11.704   8.884  0.1430  0.4062  2.5667
 2882SOL     OW26255   0.738  12.552  10.052 -0.0212 -0.3485 -0.1971
 2882SOL    HW126256   0.826  12.585  10.070  0.0793 -0.3387 -0.6977
 2882SOL    HW226257   0.680  12.619  10.089  0.1724 -0.6461  0.6655
 2883SOL     OW26258   6.563   3.544   3.591 -0.0823 -0.5632  0.1129
 2883SOL    HW126259   6.566   3.484   3.665  0.4658 -1.1195 -0.3445
 2883SOL    HW226260   6.638   3.519   3.537  1.5488  1.9526  0.9851
 2884SOL     OW26261   1.724   8.542  10.590  0.1965  0.1486 -0.6240
 2884SOL    HW126262   1.808   8.499  10.605  1.4686  1.9815 -2.1045
 2884SOL    HW226263   1.699   8.518  10.501 -0.1385  0.7174 -0.6943
 2885SOL     OW26264   9.217   3.276  13.012 -0.0844 -0.1584 -0.1502
 2885SOL    HW126265   9.278   3.235  13.073  1.1424  0.3933 -0.9798
 2885SOL    HW226266   9.133   3.275  13.059  0.8936  0.6333  1.7234
 2886SOL     OW26267   3.864   0.485   0.625 -0.3144 -0.0325 -0.3430
 2886SOL    HW126268   3.845   0.391   0.614  0.9623 -0.2440 -0.8985
 2886SOL    HW226269   3.826   0.506   0.711 -0.2743 -1.1559 -0.0236
 2887SOL     OW26270   2.358   2.727   2.418 -0.0637 -0.2734 -0.5152
 2887SOL    HW126271   2.339   2.660   2.483  0.5182  0.8915  0.9075
 2887SOL    HW226272   2.416   2.685   2.355 -0.2361 -1.2754 -0.0161
 2888SOL     OW26273   7.570  11.771   2.800  0.1590  0.6308 -0.6135
 2888SOL    HW126274   7.535  11.762   2.888  0.3889  0.6049 -0.5250
 2888SOL    HW226275   7.543  11.858   2.772  1.7138  1.4175  0.2131
 2889SOL     OW26276   5.235  10.517   0.659  0.1557  1.3447  0.3220
 2889SOL    HW126277   5.187  10.454   0.713  0.1848 -0.6544 -1.8324
 2889SOL    HW226278   5.181  10.596   0.662 -3.5382 -0.7984 -2.0098
 2890SOL     OW26279  11.812  11.093   2.605  0.1061  0.0042  0.4860
 2890SOL    HW126280  11.765  11.130   2.531 -0.8253 -0.6612  0.7275
 2890SOL    HW226281  11.841  11.169   2.656 -1.5855  0.4440  0.8636
 2891SOL     OW26282   5.834   1.179   4.676 -0.8484  0.0947  0.1692
 2891SOL    HW126283   5.769   1.112   4.697 -2.1540  1.9584  2.4056
 2891SOL    HW226284   5.791   1.233   4.610  0.0586 -0.9464 -1.3435
 2892SOL     OW26285   1.635  13.205   2.222  0.5307  0.2894  0.2882
 2892SOL    HW126286   1.608  13.160   2.142 -0.7953  0.1100  0.8083
 2892SOL    HW226287   1.651  13.135   2.285  2.1213  0.4015  0.0513
 2893SOL     OW26288   1.665  11.175   6.566 -0.8316  0.3823 -0.2482
 2893SOL    HW126289   1.587  11.162   6.621  0.2752  0.5226  1.4388
 2893SOL    HW226290   1.670  11.095   6.513 -0.9094 -0.6655  1.2345
 2894SOL     OW26291  13.992  13.103  10.725  0.8133 -0.0804 -0.0165
 2894SOL    HW126292  13.946  13.020  10.723 -2.3663  1.5502 -1.3053
 2894SOL    HW226293  13.986  13.132  10.816  0.6459 -0.5905  0.1364
 2895SOL     OW26294   9.466   0.564   8.710 -0.0956  0.4237 -0.1511
 2895SOL    HW126295   9.472   0.473   8.738 -0.9770 -0.4625 -2.6123
 2895SOL    HW226296   9.386   0.597   8.751 -1.1198 -0.6968 -1.1873
 2896SOL     OW26297  11.241   6.355  13.668  0.2374  0.1865  0.3931
 2896SOL    HW126298  11.290   6.345  13.586 -1.0259 -1.3237 -0.2188
 2896SOL    HW226299  11.302   6.324  13.735  0.1831 -1.7356 -0.3667
 2897SOL     OW26300  13.063   0.486   5.798 -0.2576  0.5040 -0.7057
 2897SOL    HW126301  13.106   0.401   5.801 -0.8616  0.2189  0.7578
 2897SOL    HW226302  12.987   0.476   5.855  0.4293  2.4177  0.6532
 2898SOL     OW26303   3.056   6.718   9.614  0.0019 -0.0257  0.5597
 2898SOL    HW126304   2.967   6.682   9.608 -0.5495  1.2315  0.8460
 2898SOL    HW226305   3.046   6.796   9.668  1.4379 -0.3315  1.3048
 2899SOL     OW26306   2.619   3.934   8.511  0.1929  0.2023 -0.0792
 2899SOL    HW126307   2.653   3.900   8.428  1.5470  0.8857  0.1630
 2899SOL    HW226308   2.573   3.860   8.550 -1.0811  0.0731 -1.7429
 2900SOL     OW26309   9.938   0.197   9.760 -0.3622  0.1487  0.3897
 2900SOL    HW126310   9.934   0.216   9.854 -0.5307  1.1075  0.1963
 2900SOL    HW226311  10.031   0.206   9.738  0.0682 -2.2527  0.8712
 2901SOL     OW26312   1.290   4.426   7.031 -0.0471  0.5789 -1.1673
 2901SOL    HW126313   1.242   4.481   7.094  1.3317  0.2077  0.2831
 2901SOL    HW226314   1.293   4.340   7.073  3.6832  1.0842 -0.0982
 2902SOL     OW26315  12.716   0.679  12.379  0.0869 -0.0339 -0.6167
 2902SOL    HW126316  12.784   0.728  12.332 -1.0601  0.3726 -1.9500
 2902SOL    HW226317  12.670   0.631  12.310  0.0250 -1.5724  0.4607
 2903SOL     OW26318   4.607   6.025   1.324  0.1991  0.6632 -0.2076
 2903SOL    HW126319   4.543   5.960   1.352  0.6673 -0.3363 -1.3669
 2903SOL    HW226320   4.554   6.097   1.289 -0.3078  0.0233 -0.7833
 2904SOL     OW26321  11.407   4.491  12.528  0.0879 -0.1165 -0.2990
 2904SOL    HW126322  11.483   4.549  12.530 -0.2699  0.3754 -0.7037
 2904SOL    HW226323  11.440   4.408  12.562  0.7239  0.1856 -0.1544
 2905SOL     OW26324   4.518   9.275   4.747 -0.4526 -0.1566 -0.2361
 2905SOL    HW126325   4.582   9.337   4.712 -1.4610  1.8537  1.2899
 2905SOL    HW226326   4.569   9.219   4.807  0.1397  0.4937 -0.1176
 2906SOL     OW26327   2.268   7.955  13.449  0.0373 -0.6791  0.3612
 2906SOL    HW126328   2.332   7.963  13.519  0.3995  2.7169 -0.1863
 2906SOL    HW226329   2.319   7.930  13.372  0.0306 -1.8511  0.7151
 2907SOL     OW26330   1.904  12.481   4.515 -0.6174  0.4174  0.3269
 2907SOL    HW126331   1.872  12.391   4.507 -0.7367  0.4206  0.7370
 2907SOL    HW226332   1.927  12.506   4.426 -1.3667  0.2698  0.0832
 2908SOL     OW26333  13.792   8.065   7.353  0.0170  0.3936  0.3912
 2908SOL    HW126334  13.813   8.127   7.423 -0.5153 -0.6388  1.4916
 2908SOL    HW226335  13.865   8.003   7.354 -0.8613 -0.6637  1.2748
 2909SOL     OW26336   0.313   1.584   9.152  0.5224  0.3404  1.0527
 2909SOL    HW126337   0.220   1.600   9.163  0.0716  0.2060 -1.8196
 2909SOL    HW226338   0.349   1.667   9.122  1.6007  0.6994  3.1454
 2910SOL     OW26339  13.478   8.480   1.626 -0.0736  0.5395 -0.1245
 2910SOL    HW126340  13.389   8.495   1.659 -1.0784 -2.8703 -0.9235
 2910SOL    HW226341  13.477   8.519   1.539  0.6783  4.2112  1.3385
 2911SOL     OW26342   9.015   1.634   5.114 -0.1648  0.5403 -0.3257
 2911SOL    HW126343   8.935   1.648   5.165 -0.8387  0.9286 -1.4545
 2911SOL    HW226344   9.077   1.595   5.176 -2.7866 -4.8088 -0.5914
 2912SOL     OW26345   9.023  13.448   0.699 -0.1481 -0.3347  0.0663
 2912SOL    HW126346   9.092  13.504   0.662 -1.5236 -0.1253 -2.4218
 2912SOL    HW226347   8.948  13.462   0.641 -1.7036 -1.9916  1.5638
 2913SOL     OW26348   1.260   5.892   4.010 -0.3830 -0.0226  0.5196
 2913SOL    HW126349   1.275   5.816   4.066  2.2289 -1.1504 -1.5031
 2913SOL    HW226350   1.340   5.944   4.018 -0.8664  0.9305 -0.4887
 2914SOL     OW26351   1.460   1.637   6.673  0.0793 -0.2162  0.1154
 2914SOL    HW126352   1.398   1.564   6.672 -0.8584  0.5732  0.3279
 2914SOL    HW226353   1.424   1.699   6.736 -0.0645  1.2292 -1.3290
 2915SOL     OW26354  12.966  11.653  13.391  0.2788 -0.8762  0.2097
 2915SOL    HW126355  13.007  11.657  13.478 -0.0950 -0.8791  0.3895
 2915SOL    HW226356  12.995  11.732  13.347 -0.6727 -0.1498  0.8550
 2916SOL     OW26357  13.630   4.501   6.874 -0.2332  0.5377  0.9634
 2916SOL    HW126358  13.537   4.486   6.861 -0.0455 -0.3110  0.5432
 2916SOL    HW226359  13.659   4.427   6.927  0.8085 -0.9688 -1.5346
 2917SOL     OW26360   6.180   4.564   5.214  0.1793  1.1531  0.0354
 2917SOL    HW126361   6.102   4.604   5.252  0.4127  2.3367 -0.6751
 2917SOL    HW226362   6.203   4.622   5.141  2.0352  1.1080  0.5582
 2918SOL     OW26363   1.296  10.552   3.859  0.5593 -0.1850 -0.3080
 2918SOL    HW126364   1.267  10.470   3.820  0.9626  0.7168 -2.6424
 2918SOL    HW226365   1.392  10.549   3.853  0.5776  0.4494 -0.4327
 2919SOL     OW26366   4.081   1.789  14.015 -0.5821  0.3200 -0.2576
 2919SOL    HW126367   4.115   1.764  13.929 -0.0998  1.3353 -0.3820
 2919SOL    HW226368   4.110   1.879  14.027 -0.7828  0.2508  0.9067
 2920SOL     OW26369   7.422   3.788   4.831 -0.2027  0.3750 -0.2490
 2920SOL    HW126370   7.375   3.777   4.913  1.0935 -2.1076  0.2448
 2920SOL    HW226371   7.365   3.748   4.765  0.6754 -1.7876  0.2093
 2921SOL     OW26372  13.431   0.688   0.761  0.0678 -0.2129  0.3934
 2921SOL    HW126373  13.397   0.599   0.765  0.2426 -0.2702  0.6264
 2921SOL    HW226374  13.378   0.731   0.694  1.3131 -1.0485 -1.1776
 2922SOL     OW26375   1.472   4.518   9.544  0.5114  0.0443 -0.1985
 2922SOL    HW126376   1.397   4.545   9.491  0.3074  1.6781  0.8738
 2922SOL    HW226377   1.545   4.516   9.483  0.2312  1.6377 -0.6310
 2923SOL     OW26378   2.296   9.553   5.148 -0.4458  0.1375  0.2021
 2923SOL    HW126379   2.338   9.474   5.182  1.3007  0.2214 -1.6116
 2923SOL    HW226380   2.296   9.613   5.223 -0.0388 -0.9000  1.0672
 2924SOL     OW26381   0.884   1.970   7.520  0.1129 -0.1141  0.1696
 2924SOL    HW126382   0.860   1.964   7.613 -1.3212 -1.5933 -0.2522
 2924SOL    HW226383   0.891   2.064   7.503 -1.7672  0.2758  1.2640
 2925SOL     OW26384   4.630   0.861  10.107 -0.4916  0.1654 -0.1419
 2925SOL    HW126385   4.653   0.833  10.196  0.8834 -0.5220 -0.6822
 2925SOL    HW226386   4.585   0.786  10.069 -4.3918  1.6550  1.0540
 2926SOL     OW26387  12.939   3.804  13.457  0.5721 -0.0383 -0.2291
 2926SOL    HW126388  12.871   3.811  13.524  1.0172 -0.1268  0.2378
 2926SOL    HW226389  13.006   3.748  13.496 -0.2567 -2.1581 -1.6691
 2927SOL     OW26390   9.935   1.902   9.467  0.3713  0.0996 -0.1939
 2927SOL    HW126391   9.942   1.813   9.502  2.0595  0.9698  1.8594
 2927SOL    HW226392   9.899   1.953   9.539 -0.8663  1.0943 -1.4461
 2928SOL     OW26393  13.324   1.229   7.400 -0.4588 -0.3636 -0.5479
 2928SOL    HW126394  13.341   1.141   7.369  2.5507  0.6047 -2.0120
 2928SOL    HW226395  13.408   1.275   7.393 -1.0182  1.7651  3.2929
 2929SOL     OW26396   5.487  10.437   3.395  0.4997  0.2404  0.3763
 2929SOL    HW126397   5.548  10.495   3.349  1.6563 -1.2615 -0.0410
 2929SOL    HW226398   5.533  10.412   3.475  0.9218 -1.7248 -0.4218
 2930SOL     OW26399   5.261   4.235  11.034  0.1646 -0.3850  0.1623
 2930SOL    HW126400   5.334   4.278  10.990  0.4082  0.8800  1.6938
 2930SOL    HW226401   5.299   4.201  11.115 -0.7680 -0.3774  0.6169
 2931SOL     OW26402   0.397   6.942   9.800 -0.1924 -0.1426  0.3592
 2931SOL    HW126403   0.324   6.974   9.747  1.0898 -0.3037 -1.6510
 2931SOL    HW226404   0.431   7.021   9.843 -0.5309  0.2306 -0.0404
 2932SOL     OW26405   2.236   0.500   4.298 -0.1518 -0.2842  0.2069
 2932SOL    HW126406   2.218   0.555   4.375  0.6869  2.4612 -1.4436
 2932SOL    HW226407   2.167   0.523   4.236  0.9112 -0.2010 -0.9681
 2933SOL     OW26408   0.051   5.638   8.167 -0.1228 -0.5492 -0.3842
 2933SOL    HW126409  -0.012   5.707   8.188  0.0989 -0.2848 -0.5812
 2933SOL    HW226410   0.061   5.589   8.249  1.6291  1.1908  0.5135
 2934SOL     OW26411  12.358   7.791   5.718 -0.0875  0.4816 -0.4839
 2934SOL    HW126412  12.301   7.789   5.795  0.3569  0.8585 -0.1420
 2934SOL    HW226413  12.443   7.761   5.750  0.4084  1.7722 -0.5573
 2935SOL     OW26414   7.227   7.533   0.440  0.1196  0.0422 -0.0186
 2935SOL    HW126415   7.151   7.590   0.455 -0.2303 -0.8794  1.9924
 2935SOL    HW226416   7.189   7.455   0.399  0.0586 -0.1477  0.3905
 2936SOL     OW26417  12.692  13.306   8.259  0.1361 -0.1424 -0.5202
 2936SOL    HW126418  12.667  13.337   8.172 -1.3122  0.6659  0.1661
 2936SOL    HW226419  12.693  13.210   8.251 -1.9906 -0.1685 -0.9189
 2937SOL     OW26420   9.275   4.162  11.245 -0.4594 -0.6751  0.5279
 2937SOL    HW126421   9.226   4.107  11.184 -2.5194  1.3578  0.2096
 2937SOL    HW226422   9.271   4.250  11.208  1.9995 -0.0884  1.4237
 2938SOL     OW26423  12.836   9.718   4.425 -0.7571 -0.4979 -0.0894
 2938SOL    HW126424  12.901   9.785   4.404 -1.1491 -0.3921 -1.0233
 2938SOL    HW226425  12.830   9.719   4.520 -0.6776  0.7188 -0.0866
 2939SOL     OW26426   7.005  11.170  12.757 -0.0293 -0.3622  0.0311
 2939SOL    HW126427   7.095  11.169  12.723 -0.1436  0.7241 -0.3415
 2939SOL    HW226428   6.960  11.101  12.708  0.2761 -0.0456 -0.7090
 2940SOL     OW26429   4.724   8.208   0.926 -0.0318  0.6519 -0.3064
 2940SOL    HW126430   4.730   8.231   1.019  0.2912 -1.6151  0.2781
 2940SOL    HW226431   4.802   8.248   0.887  1.1326 -0.3686  0.8736
 2941SOL     OW26432   8.356   3.413   5.651  0.3689  0.5697  0.2855
 2941SOL    HW126433   8.423   3.373   5.595  2.5871  2.1977  1.6207
 2941SOL    HW226434   8.320   3.484   5.598  0.4766  0.3668 -0.0607
 2942SOL     OW26435   9.928   6.203   6.186  0.2575 -0.6121 -0.0765
 2942SOL    HW126436   9.872   6.267   6.143  1.0652 -1.0800 -1.9599
 2942SOL    HW226437   9.924   6.126   6.130  1.6299 -1.1540  0.5103
 2943SOL     OW26438   0.834   6.585   4.014  0.0684  0.1126  0.2445
 2943SOL    HW126439   0.785   6.529   4.074  0.1932  0.3095  0.5359
 2943SOL    HW226440   0.797   6.672   4.028 -0.4400  0.0282 -0.5435
 2944SOL     OW26441  13.165   9.408  10.333  0.0242  0.3828  0.3220
 2944SOL    HW126442  13.074   9.409  10.301  0.5795 -1.0185 -1.4027
 2944SOL    HW226443  13.203   9.488  10.297  0.2235 -0.4255 -1.3012
 2945SOL     OW26444   2.663   2.478   3.097 -0.1497 -0.0081 -0.3395
 2945SOL    HW126445   2.605   2.524   3.037 -2.7868  0.1505  2.0968
 2945SOL    HW226446   2.706   2.548   3.147  0.3570 -0.1594 -0.5578
 2946SOL     OW26447  12.753   0.439   6.324 -0.6414  0.0110 -0.2528
 2946SOL    HW126448  12.765   0.437   6.229  1.5415  1.4693 -0.0851
 2946SOL    HW226449  12.823   0.382   6.357 -0.4385  0.7038  0.5169
 2947SOL     OW26450   4.527   3.005  10.510 -0.6283  0.3842  0.4102
 2947SOL    HW126451   4.602   3.043  10.465 -0.5521 -0.0677  0.1442
 2947SOL    HW226452   4.473   2.968  10.440  0.1735 -1.5520  0.7286
 2948SOL     OW26453  11.247  13.412   7.399 -0.5201  0.1566 -0.6257
 2948SOL    HW126454  11.256  13.496   7.444  0.2817  0.0193 -0.5056
 2948SOL    HW226455  11.161  13.380   7.424 -0.2722  0.2945  0.4462
 2949SOL     OW26456  13.455   3.312   1.850 -0.1092 -0.2527 -0.7094
 2949SOL    HW126457  13.464   3.403   1.820  3.5705  0.2114  1.2055
 2949SOL    HW226458  13.416   3.319   1.937  2.5566 -0.1204  0.5689
 2950SOL     OW26459   5.396   4.762   4.819 -0.3178 -0.1982  0.3420
 2950SOL    HW126460   5.367   4.746   4.908 -0.5867  1.7271  0.6489
 2950SOL    HW226461   5.344   4.837   4.790 -2.3138 -2.4651 -2.4918
 2951SOL     OW26462  11.520   4.460  11.755 -0.4549  0.0847  0.8214
 2951SOL    HW126463  11.467   4.385  11.784 -3.0009  1.2354 -0.4969
 2951SOL    HW226464  11.597   4.421  11.715 -1.7204 -1.8643  0.1557
 2952SOL     OW26465   5.824   0.327   8.730  0.0846 -0.6390  0.5548
 2952SOL    HW126466   5.786   0.389   8.667  1.4348 -0.2105  0.1075
 2952SOL    HW226467   5.890   0.279   8.679  1.8125  0.3002  1.7793
 2953SOL     OW26468  12.534   3.766   2.160 -0.1901  0.4575 -0.0452
 2953SOL    HW126469  12.521   3.823   2.084 -0.9181  0.3850  0.0253
 2953SOL    HW226470  12.479   3.690   2.143 -1.4465  1.0542  1.1955
 2954SOL     OW26471   0.810   7.816   6.187 -0.4636 -0.7327 -0.3689
 2954SOL    HW126472   0.812   7.899   6.140 -2.3399  0.5753  1.6438
 2954SOL    HW226473   0.899   7.807   6.223 -0.1880  0.3127 -0.7504
 2955SOL     OW26474   9.804   9.930   5.376  0.0494 -0.1467 -0.0241
 2955SOL    HW126475   9.808   9.845   5.334 -0.9561  0.5319 -1.6074
 2955SOL    HW226476   9.877   9.980   5.337 -0.2515  0.1620 -0.1987
 2956SOL     OW26477  14.033   4.950   7.814 -0.0406 -0.9080 -0.0759
 2956SOL    HW126478  13.942   4.978   7.804 -0.0230 -0.3085  1.1704
 2956SOL    HW226479  14.027   4.868   7.863  0.0916 -0.6096  0.4543
 2957SOL     OW26480   9.475   2.406  12.342 -0.3284 -0.0851  0.6296
 2957SOL    HW126481   9.523   2.325  12.324 -0.8064  0.1829 -2.3700
 2957SOL    HW226482   9.495   2.462  12.267 -1.5170  1.8705  1.7073
 2958SOL     OW26483   6.624   3.107   2.591  0.1880  0.4313  0.3975
 2958SOL    HW126484   6.539   3.125   2.630  0.2056  0.0232  0.6383
 2958SOL    HW226485   6.627   3.161   2.512  0.0458  1.0672  0.8207
 2959SOL     OW26486  13.116   9.224   8.529 -0.8864 -0.3657 -0.2513
 2959SOL    HW126487  13.066   9.266   8.600 -1.0632  0.4420 -0.8459
 2959SOL    HW226488  13.138   9.138   8.564 -0.5953  0.1833  0.9635
 2960SOL     OW26489   1.050   3.330   2.228 -0.2496 -0.1184  0.5643
 2960SOL    HW126490   0.993   3.381   2.169  0.5240 -1.8847 -1.8741
 2960SOL    HW226491   1.133   3.377   2.226 -0.1673 -0.2779  0.0646
 2961SOL     OW26492   9.096   5.319   0.555  0.2686 -0.3338  0.3906
 2961SOL    HW126493   9.007   5.287   0.569  0.0647  0.4001  0.8619
 2961SOL    HW226494   9.152   5.243   0.569 -0.3719 -1.2588 -1.7444
 2962SOL     OW26495  13.905   0.879  13.474 -0.7514 -0.4575 -0.4131
 2962SOL    HW126496  13.898   0.973  13.491 -2.3592 -0.7308  0.7152
 2962SOL    HW226497  13.893   0.838  13.560  0.3347 -1.6954 -0.8209
 2963SOL     OW26498   6.966   4.582   1.587 -0.4198 -0.2775 -0.6748
 2963SOL    HW126499   7.002   4.668   1.569 -1.9098  0.7234  0.8307
 2963SOL    HW226500   6.933   4.588   1.677 -1.0676 -2.2434 -0.7321
 2964SOL     OW26501  11.449   4.829   8.260 -0.1338 -0.0508  0.7627
 2964SOL    HW126502  11.501   4.749   8.262  0.0669  0.0874  1.3187
 2964SOL    HW226503  11.478   4.875   8.181 -0.9945 -1.0102 -0.1211
 2965SOL     OW26504   5.965   7.667   8.083 -0.2100  0.2268 -0.0915
 2965SOL    HW126505   5.885   7.719   8.090  0.2931  0.8663  1.1398
 2965SOL    HW226506   5.972   7.621   8.167  1.1771  0.8871  0.1862
 2966SOL     OW26507   1.038  11.968   8.483 -0.5321  0.1167 -0.0715
 2966SOL    HW126508   1.027  11.961   8.578  0.9100 -1.8002  0.0182
 2966SOL    HW226509   1.100  11.899   8.461 -1.3018  0.1012 -2.5144
 2967SOL     OW26510   9.129   8.396   4.958 -0.3956  0.6403 -0.3209
 2967SOL    HW126511   9.205   8.426   4.908 -0.4955 -1.1340 -1.6450
 2967SOL    HW226512   9.162   8.385   5.048  0.4772  1.4370 -0.5334
 2968SOL     OW26513   0.114  13.675   6.307 -0.2644  0.3566  0.3370
 2968SOL    HW126514   0.164  13.709   6.381  0.7167  1.7083 -0.8939
 2968SOL    HW226515   0.179  13.655   6.240 -1.2804  1.3455 -1.0062
 2969SOL     OW26516   8.494   2.229  11.858  0.4549 -0.5394 -0.7759
 2969SOL    HW126517   8.462   2.150  11.900 -0.7093  1.0632  1.6222
 2969SOL    HW226518   8.589   2.219  11.855  0.3820 -1.7167  0.1640
 2970SOL     OW26519   8.660  10.890  11.130  0.1014 -0.2061 -0.4028
 2970SOL    HW126520   8.657  10.945  11.207  1.1979 -0.3719 -0.2177
 2970SOL    HW226521   8.586  10.918  11.077 -1.5426 -1.0673  1.3432
 2971SOL     OW26522   6.243   0.024   2.202  0.1746  0.3368 -0.0266
 2971SOL    HW126523   6.231   0.119   2.194 -0.0122  0.4795  1.6288
 2971SOL    HW226524   6.171  -0.005   2.257 -0.3074 -0.9436 -1.2762
 2972SOL     OW26525   2.915   3.065   2.697  0.1435 -0.1235  0.8749
 2972SOL    HW126526   3.008   3.041   2.698  0.4333  0.9417  2.3311
 2972SOL    HW226527   2.874   2.998   2.642  1.9069 -0.0276 -0.6450
 2973SOL     OW26528   7.273  12.296   3.866  0.2606 -0.2467 -0.6736
 2973SOL    HW126529   7.287  12.285   3.960  2.7266 -0.5329 -1.0099
 2973SOL    HW226530   7.349  12.346   3.836 -0.2163 -0.6008 -2.5979
 2974SOL     OW26531   2.434   8.666   5.643 -0.2130 -0.0584  0.3513
 2974SOL    HW126532   2.495   8.739   5.636 -0.2733 -0.0977 -0.9812
 2974SOL    HW226533   2.349   8.707   5.658 -0.1219  0.1008  0.4270
 2975SOL     OW26534   8.980   5.775   5.069 -0.4264 -0.0339  0.6756
 2975SOL    HW126535   8.949   5.833   5.000 -0.0993  1.2477  1.5729
 2975SOL    HW226536   9.042   5.828   5.119  0.3563 -1.3598  1.1596
 2976SOL     OW26537   4.517  13.452   3.487 -0.2469 -0.3691 -0.2219
 2976SOL    HW126538   4.521  13.357   3.496 -0.3429 -0.2237  2.0911
 2976SOL    HW226539   4.593  13.484   3.536 -0.4203  0.7659 -0.6575
 2977SOL     OW26540  12.408   3.252   9.695 -0.4523 -0.5189 -0.0655
 2977SOL    HW126541  12.329   3.293   9.731  0.0291  0.4819 -0.1283
 2977SOL    HW226542  12.481   3.300   9.735  0.1236  0.9551 -2.6595
 2978SOL     OW26543   4.431  11.173   6.788 -0.4436  0.9013  0.6074
 2978SOL    HW126544   4.398  11.246   6.841 -0.4106  1.1979  0.2176
 2978SOL    HW226545   4.417  11.201   6.698 -0.5375  0.3756  0.4585
 2979SOL     OW26546   7.331   0.751  11.601 -0.4845 -0.0255 -0.1896
 2979SOL    HW126547   7.339   0.846  11.603 -0.0062 -0.0707  0.2896
 2979SOL    HW226548   7.252   0.733  11.652  0.4412  0.0218  1.3188
 2980SOL     OW26549   6.915  11.364   3.218 -0.3030  0.2266 -0.4699
 2980SOL    HW126550   7.004  11.394   3.198 -0.2556 -0.5746 -1.5258
 2980SOL    HW226551   6.920  11.333   3.308  0.5773 -0.1315 -0.6326
 2981SOL     OW26552   6.850  13.844   7.237 -0.6066  0.3795 -0.2050
 2981SOL    HW126553   6.820  13.871   7.150  0.3660 -0.8574 -0.9490
 2981SOL    HW226554   6.936  13.805   7.222 -0.7664 -0.5809  1.2123
 2982SOL     OW26555   4.725   3.311  12.020 -0.4173 -0.2672 -0.2771
 2982SOL    HW126556   4.819   3.316  12.034 -0.3702  1.2257 -0.9208
 2982SOL    HW226557   4.697   3.236  12.072  1.0342 -0.3825  0.3963
 2983SOL     OW26558  11.907   9.704  11.516 -0.2713  0.1055  0.1910
 2983SOL    HW126559  11.891   9.641  11.586 -2.3689  1.0475  0.6179
 2983SOL    HW226560  11.891   9.655  11.435 -0.5478 -0.2604  0.4642
 2984SOL     OW26561   1.595  10.267   1.656  0.2399 -0.1355 -0.0470
 2984SOL    HW126562   1.682  10.256   1.619  0.5465  2.3369 -0.2615
 2984SOL    HW226563   1.605  10.246   1.749  0.6657 -1.3735 -0.3572
 2985SOL     OW26564  11.187  13.901   8.493  0.0094  0.3000  0.2269
 2985SOL    HW126565  11.153  13.866   8.411 -0.3961  0.3640  0.3634
 2985SOL    HW226566  11.137  13.855   8.561  0.4404  0.1410  0.4449
 2986SOL     OW26567   0.609   7.662   9.081 -0.0928  0.3400  0.3576
 2986SOL    HW126568   0.591   7.745   9.124 -0.7099 -0.4547  1.7170
 2986SOL    HW226569   0.594   7.678   8.988  1.4973  2.1905  0.3553
 2987SOL     OW26570   6.569  11.615   0.462 -0.4580 -0.3628 -0.3694
 2987SOL    HW126571   6.645  11.603   0.405 -0.6924  0.3363 -0.8393
 2987SOL    HW226572   6.502  11.559   0.423  0.2523 -2.2590  0.9588
 2988SOL     OW26573  11.365   5.943   4.610 -0.6426  0.6478 -0.3308
 2988SOL    HW126574  11.342   5.942   4.703  0.0491 -1.0063 -0.1431
 2988SOL    HW226575  11.453   5.980   4.607 -1.2683  2.2088 -0.5293
 2989SOL     OW26576   9.372   6.133  11.031 -0.1167 -0.4655 -0.0914
 2989SOL    HW126577   9.332   6.205  11.080  0.8499  1.3567 -1.8287
 2989SOL    HW226578   9.432   6.091  11.094 -1.7825 -0.7603  1.3775
 2990SOL     OW26579  12.376   6.043   3.442 -0.2399 -0.0874  0.0531
 2990SOL    HW126580  12.470   6.025   3.445  0.0942  1.3596 -0.8474
 2990SOL    HW226581  12.362   6.113   3.506 -0.7631 -0.4674  0.3678
 2991SOL     OW26582  11.104   2.809  11.137 -0.1985 -0.3462  0.4755
 2991SOL    HW126583  11.158   2.740  11.174 -0.7170 -1.2137 -0.3320
 2991SOL    HW226584  11.044   2.763  11.078 -0.8479  0.7478  0.2614
 2992SOL     OW26585  13.459   5.116  11.059  0.4402  0.9606 -0.7281
 2992SOL    HW126586  13.536   5.068  11.089 -1.3115 -1.3602  0.4091
 2992SOL    HW226587  13.386   5.054  11.071 -1.9280  3.7168  0.2476
 2993SOL     OW26588   4.595   0.261  11.888  0.1713  0.6086 -0.3783
 2993SOL    HW126589   4.603   0.239  11.795  1.7835 -0.8969  0.0722
 2993SOL    HW226590   4.571   0.178  11.930 -0.4877  1.2599  0.5881
 2994SOL     OW26591  10.715   0.715   1.793  0.3832 -0.2045  0.1075
 2994SOL    HW126592  10.691   0.626   1.817 -0.2952 -0.0662 -0.0486
 2994SOL    HW226593  10.767   0.746   1.868  0.4360 -0.6467  0.2605
 2995SOL     OW26594   6.924   2.140   9.573 -0.2116  0.2959 -0.2191
 2995SOL    HW126595   7.003   2.100   9.609  0.7656 -0.7583 -3.1943
 2995SOL    HW226596   6.883   2.184   9.647  2.2384 -0.5839  1.8046
 2996SOL     OW26597   3.982   0.522   9.583  0.0373  0.0954 -0.3296
 2996SOL    HW126598   4.057   0.567   9.623  0.3526  0.1007 -0.9112
 2996SOL    HW226599   4.008   0.430   9.581 -1.4411 -0.5123  2.7713
 2997SOL     OW26600  12.826   5.631   6.873 -0.1643 -0.5875  0.1935
 2997SOL    HW126601  12.735   5.607   6.885 -0.0720 -0.5877  0.9175
 2997SOL    HW226602  12.839   5.631   6.778 -0.9886 -0.2972  0.0770
 2998SOL     OW26603   1.662   7.380   1.792  0.8405 -0.1452 -0.1939
 2998SOL    HW126604   1.665   7.410   1.701 -2.0100  0.8042 -0.0776
 2998SOL    HW226605   1.723   7.306   1.795  2.6980  1.1637 -2.2842
 2999SOL     OW26606   2.398   0.624  13.591 -0.1795 -0.1083 -0.1636
 2999SOL    HW126607   2.439   0.678  13.659 -1.3273 -0.8982  1.2026
 2999SOL    HW226608   2.449   0.643  13.512  3.0640 -1.2988  1.4650
 3000SOL     OW26609  12.761  11.585   8.881  0.1228 -0.1375 -0.1849
 3000SOL    HW126610  12.723  11.591   8.794 -2.1541  1.1281  0.8175
 3000SOL    HW226611  12.761  11.675   8.914  0.4756 -0.6500  1.3192
 3001SOL     OW26612   9.429  10.634   7.486  0.2803  0.5247  0.5470
 3001SOL    HW126613   9.369  10.563   7.465  1.5732  0.2504 -2.9944
 3001SOL    HW226614   9.407  10.703   7.423  1.7303  1.5881  1.1503
 3002SOL     OW26615  10.209  10.558  10.981 -0.0158 -0.2854  0.3799
 3002SOL    HW126616  10.215  10.487  10.917  2.5196  0.2806 -0.1112
 3002SOL    HW226617  10.269  10.624  10.949  0.0925  0.7170  2.5158
 3003SOL     OW26618   1.548   1.524   8.787 -0.1222 -0.1818 -0.7704
 3003SOL    HW126619   1.511   1.610   8.768 -0.0930 -0.3291 -1.5400
 3003SOL    HW226620   1.474   1.475   8.824 -0.4762 -0.1945 -1.4657
 3004SOL     OW26621   8.733   5.827  12.581  0.3376  0.4200  0.8771
 3004SOL    HW126622   8.708   5.871  12.500 -1.4189 -0.7951  0.6971
 3004SOL    HW226623   8.771   5.744  12.552  2.4184  1.1718  1.2539
 3005SOL     OW26624   2.059   7.745   8.890  0.3920 -0.0686  0.3453
 3005SOL    HW126625   1.966   7.730   8.874  0.7372 -0.3418 -1.6807
 3005SOL    HW226626   2.095   7.767   8.804  2.0205  1.0705  1.2643
 3006SOL     OW26627   3.486   5.755   6.352 -0.4139 -0.2534 -0.6515
 3006SOL    HW126628   3.427   5.778   6.280  0.2637  0.1235 -1.0949
 3006SOL    HW226629   3.473   5.825   6.416  0.4989  0.5609 -1.3220
 3007SOL     OW26630   7.906   1.664   5.653 -0.7693  0.0662 -0.1043
 3007SOL    HW126631   7.903   1.657   5.748 -1.2487 -0.3779 -0.1450
 3007SOL    HW226632   7.815   1.651   5.625 -0.3282 -2.1523 -0.7620
 3008SOL     OW26633   9.709   5.876   3.816 -0.4222  0.0900  0.2860
 3008SOL    HW126634   9.778   5.913   3.873  1.0979 -0.3699 -1.1713
 3008SOL    HW226635   9.632   5.930   3.835  0.0502  0.0867  2.6019
 3009SOL     OW26636  10.534   9.986  12.683 -0.7906 -0.1017  0.3122
 3009SOL    HW126637  10.506   9.905  12.640  0.6903 -0.5955  0.2275
 3009SOL    HW226638  10.628   9.976  12.695 -0.3471  2.0799 -0.7111
 3010SOL     OW26639   2.350   7.600   3.915 -0.3125 -0.0374  0.0539
 3010SOL    HW126640   2.296   7.555   3.850  1.0701 -0.8192 -0.6199
 3010SOL    HW226641   2.438   7.563   3.902  1.0834  3.2572 -0.9302
 3011SOL     OW26642  11.290   3.938  10.142  0.6456 -0.0253  0.8051
 3011SOL    HW126643  11.337   3.970  10.065 -0.4453  0.2573  0.2253
 3011SOL    HW226644  11.280   4.016  10.197 -0.0275  0.1486  0.4471
 3012SOL     OW26645   1.937   9.004  11.884  0.6205  0.1886 -0.1376
 3012SOL    HW126646   1.970   9.074  11.940  0.0278  1.6303 -1.5082
 3012SOL    HW226647   1.852   9.035  11.855  0.1669 -1.2972 -0.4922
 3013SOL     OW26648   1.527   4.097  10.575 -0.2250 -0.6474  0.1650
 3013SOL    HW126649   1.536   4.013  10.530 -0.1099 -0.9093  0.6734
 3013SOL    HW226650   1.534   4.076  10.668  0.8190  0.0470  0.2631
 3014SOL     OW26651   7.936   3.073   0.700  0.3393  0.3862  0.1474
 3014SOL    HW126652   8.025   3.066   0.665 -0.3992  0.0382 -1.8090
 3014SOL    HW226653   7.933   3.012   0.773  1.4327 -0.3574 -0.4116
 3015SOL     OW26654   6.544   2.089   6.241  0.4276 -0.1531  0.4174
 3015SOL    HW126655   6.484   2.106   6.314 -1.7879 -0.6929 -1.1636
 3015SOL    HW226656   6.524   2.159   6.178  0.5532 -1.0539 -0.6504
 3016SOL     OW26657   2.806   8.153   8.168  0.1299  0.0158 -0.3065
 3016SOL    HW126658   2.866   8.182   8.099 -0.7793  1.6222 -0.4906
 3016SOL    HW226659   2.828   8.209   8.243 -2.4999  2.2912 -1.0462
 3017SOL     OW26660   4.962  12.961  12.248  0.2844  0.1990  0.2136
 3017SOL    HW126661   4.988  13.027  12.183 -0.3493  0.8385  0.5938
 3017SOL    HW226662   5.036  12.956  12.308  1.0750 -0.7429 -0.8085
 3018SOL     OW26663  12.344   3.223  11.514  0.3085  0.2475 -0.3292
 3018SOL    HW126664  12.373   3.312  11.533  4.9545 -1.3309  1.4552
 3018SOL    HW226665  12.294   3.196  11.591  0.5841  0.7371  0.0267
 3019SOL     OW26666   3.727   4.534   0.930  0.0933 -0.5667  0.1121
 3019SOL    HW126667   3.701   4.539   0.838  0.7672 -2.3335 -0.2052
 3019SOL    HW226668   3.777   4.453   0.937  2.6421  0.9957  1.4033
 3020SOL     OW26669   9.982  10.453   2.586  0.2411  0.5710 -0.5609
 3020SOL    HW126670  10.049  10.521   2.575  1.2822 -0.3091  0.0820
 3020SOL    HW226671   9.927  10.485   2.657  1.3417  0.3136  0.4482
 3021SOL     OW26672  10.132   6.980   0.505 -0.1113  0.7102  0.4344
 3021SOL    HW126673  10.226   6.972   0.489 -0.1817  0.9250 -0.1027
 3021SOL    HW226674  10.126   7.036   0.582  0.1749  1.8997 -0.3696
 3022SOL     OW26675  12.698   8.365   0.919  0.0034 -0.0204  0.0356
 3022SOL    HW126676  12.770   8.306   0.899 -0.2423  0.0334 -1.1038
 3022SOL    HW226677  12.725   8.412   0.998  0.6548 -0.9001  0.3397
 3023SOL     OW26678  11.990   3.579   4.957 -0.0568 -0.5429  0.1282
 3023SOL    HW126679  11.947   3.654   4.915 -0.2592 -0.7075  0.0418
 3023SOL    HW226680  12.020   3.613   5.042  1.3424  0.1104 -0.5847
 3024SOL     OW26681   0.022   9.174  13.009 -0.8288 -0.2172 -0.2436
 3024SOL    HW126682  -0.018   9.122  13.079 -0.9379  0.3965  0.1505
 3024SOL    HW226683   0.116   9.167  13.026 -0.8727  0.3254  0.2559
 3025SOL     OW26684   6.744   1.783  10.711  0.1824 -0.3630  0.3037
 3025SOL    HW126685   6.699   1.731  10.777  0.5313 -0.7232  0.2587
 3025SOL    HW226686   6.675   1.809  10.650 -0.1231 -0.1217  0.7451
 3026SOL     OW26687  12.895   6.221  12.556 -0.0028 -0.3516 -0.1220
 3026SOL    HW126688  12.854   6.278  12.491 -0.3745  0.4428  0.7806
 3026SOL    HW226689  12.822   6.190  12.610  0.3718 -0.4278  0.3496
 3027SOL     OW26690   7.623   9.902   5.298  0.3249 -0.2658  0.1979
 3027SOL    HW126691   7.552   9.852   5.257 -0.1864 -0.0383  0.7888
 3027SOL    HW226692   7.700   9.881   5.246  0.0378 -1.3517  0.1839
 3028SOL     OW26693  10.199   1.027   6.280  0.0386 -0.0973  0.0092
 3028SOL    HW126694  10.239   1.060   6.361  1.3915 -0.1216 -0.6328
 3028SOL    HW226695  10.237   1.081   6.211 -2.0587  0.7922 -0.5367
 3029SOL     OW26696   9.876  12.903  10.728 -0.7948  0.2882  0.0828
 3029SOL    HW126697   9.970  12.915  10.743 -0.3817 -1.7140 -0.4901
 3029SOL    HW226698   9.867  12.905  10.633 -1.3376  0.4654  0.1362
 3030SOL     OW26699  13.817  12.453   2.940 -0.3906  0.1182 -0.4136
 3030SOL    HW126700  13.903  12.484   2.970 -0.3656  0.5538 -0.9249
 3030SOL    HW226701  13.808  12.488   2.852 -0.7750 -0.5646 -0.6518
 3031SOL     OW26702   7.889   3.036   8.607 -0.0437 -1.1612  0.1330
 3031SOL    HW126703   7.946   2.991   8.670  2.0846  1.0297 -0.0592
 3031SOL    HW226704   7.804   2.992   8.616  0.9195 -2.7860  2.4591
 3032SOL     OW26705   1.691   6.849   3.098  0.5868 -0.2685 -0.6463
 3032SOL    HW126706   1.614   6.864   3.042  1.9423 -1.2397 -2.9211
 3032SOL    HW226707   1.731   6.935   3.107 -0.5098  0.1785  0.2414
 3033SOL     OW26708   1.650   1.186   6.573  0.9832  0.0208  0.1376
 3033SOL    HW126709   1.708   1.134   6.627  1.5603 -0.4656 -0.9119
 3033SOL    HW226710   1.684   1.275   6.580  1.1160 -0.0565  0.4784
 3034SOL     OW26711   2.151  10.138   1.056  0.6875  0.3829  0.0498
 3034SOL    HW126712   2.142  10.192   0.978  1.2806  0.4507  0.0243
 3034SOL    HW226713   2.204  10.191   1.116 -1.7336  1.3782  1.4698
 3035SOL     OW26714   5.505  10.624  11.758  0.0904 -0.5991 -0.9595
 3035SOL    HW126715   5.558  10.623  11.679  0.1348 -1.6993 -0.9276
 3035SOL    HW226716   5.425  10.577  11.734 -0.4857  0.2473 -0.7418
 3036SOL     OW26717  10.388   5.384   3.627  0.4277 -0.3240 -0.5496
 3036SOL    HW126718  10.413   5.467   3.586  3.2792 -1.0461 -0.4366
 3036SOL    HW226719  10.367   5.327   3.553 -2.5716  0.6452 -0.6157
 3037SOL     OW26720   8.681  10.292   8.201  0.3920  0.2845  0.1001
 3037SOL    HW126721   8.765  10.325   8.233 -0.0243  0.2610  1.2695
 3037SOL    HW226722   8.695  10.198   8.189  0.3548  0.1694  0.9191
 3038SOL     OW26723   4.656  10.852   2.985  0.2290 -0.4234  0.2304
 3038SOL    HW126724   4.618  10.775   2.942  0.6203  0.2142 -1.3525
 3038SOL    HW226725   4.750  10.834   2.987  0.4185  0.3308 -0.9036
 3039SOL     OW26726   9.814   6.174  13.721 -0.1075 -0.0517  0.3156
 3039SOL    HW126727   9.817   6.089  13.766  0.1050 -0.1801  0.0595
 3039SOL    HW226728   9.905   6.202  13.717 -0.1313 -0.0226 -0.0092
 3040SOL     OW26729   5.772   2.771   5.439  0.1582  0.1641 -0.2824
 3040SOL    HW126730   5.723   2.792   5.359 -0.2797 -2.5087 -0.8271
 3040SOL    HW226731   5.706   2.736   5.498  0.7786  0.4497  0.5998
 3041SOL     OW26732   1.130   8.806   7.853  0.2745  0.1201  0.2287
 3041SOL    HW126733   1.072   8.804   7.929 -1.0688  2.7534 -0.5995
 3041SOL    HW226734   1.202   8.864   7.878  1.3163 -1.1668  0.3699
 3042SOL     OW26735   0.047  11.334   0.324  0.0468  0.6897 -0.1150
 3042SOL    HW126736   0.072  11.427   0.323  1.3034  0.3573 -0.9622
 3042SOL    HW226737   0.069  11.304   0.412  1.2021  0.7872 -0.3642
 3043SOL     OW26738   3.958   9.234   0.773  0.0629  0.0562  0.0026
 3043SOL    HW126739   3.923   9.314   0.734  2.3271  1.2268  0.1441
 3043SOL    HW226740   3.961   9.171   0.701 -0.1459  0.6698 -0.5535
 3044SOL     OW26741   2.848   4.850   8.923  0.4082 -0.4613 -0.1726
 3044SOL    HW126742   2.927   4.796   8.913  1.2899  0.9420 -1.2683
 3044SOL    HW226743   2.776   4.791   8.903  1.0835 -1.9771  1.5185
 3045SOL     OW26744   2.020   5.506   7.523  0.3800  0.6210  0.4638
 3045SOL    HW126745   2.026   5.431   7.583 -0.7496  0.3026  0.2110
 3045SOL    HW226746   1.935   5.494   7.480  0.8706  1.2335 -0.6822
 3046SOL     OW26747   6.220  11.149  12.909  0.1348  0.1252 -0.5025
 3046SOL    HW126748   6.297  11.205  12.907 -0.2631  0.6722 -0.8558
 3046SOL    HW226749   6.183  11.162  12.997 -0.0728  0.5947 -0.6511
 3047SOL     OW26750   7.224   1.329   5.183  0.1145 -0.0210 -0.0039
 3047SOL    HW126751   7.310   1.289   5.196 -0.0202  0.2346  2.0562
 3047SOL    HW226752   7.232   1.379   5.102  1.2788 -1.5661 -0.8852
 3048SOL     OW26753   0.051   1.338  10.478 -0.5312 -0.0030 -0.4112
 3048SOL    HW126754  -0.007   1.412  10.466 -0.4709  0.1068 -0.0452
 3048SOL    HW226755   0.139   1.375  10.470 -0.5046 -0.0561 -0.3649
 3049SOL     OW26756   1.842  12.010   0.383  0.0246 -0.1479 -0.4498
 3049SOL    HW126757   1.817  12.090   0.429  0.2747 -0.2416 -0.1492
 3049SOL    HW226758   1.853  12.037   0.292  0.5539  0.2524 -0.2691
 3050SOL     OW26759  10.688   7.940   7.318 -0.6333  0.2392 -0.1021
 3050SOL    HW126760  10.713   8.027   7.350 -2.2499  0.5107  0.4947
 3050SOL    HW226761  10.699   7.883   7.394 -1.2745  0.2677  0.0193
 3051SOL     OW26762   5.275  10.136   3.077 -0.1961 -0.3865  0.3456
 3051SOL    HW126763   5.230  10.111   3.158 -1.0721 -0.4647 -0.1560
 3051SOL    HW226764   5.302  10.053   3.038 -0.3987 -0.3879  0.2074
 3052SOL     OW26765   6.786  10.935   6.489 -0.0171  0.0485 -0.0680
 3052SOL    HW126766   6.707  10.966   6.533 -0.9972 -1.2241 -0.8751
 3052SOL    HW226767   6.850  10.925   6.560 -1.0536 -0.3542  0.8462
 3053SOL     OW26768   2.425   9.602  13.631 -0.2333  0.0035 -0.7275
 3053SOL    HW126769   2.394   9.681  13.586 -2.1670 -0.8162 -0.9335
 3053SOL    HW226770   2.350   9.542  13.628  0.3129 -0.9029  1.6497
 3054SOL     OW26771  13.971   3.571   1.923  0.1836  0.2773 -0.0425
 3054SOL    HW126772  14.056   3.530   1.941 -0.6953 -1.8003 -0.3616
 3054SOL    HW226773  13.910   3.526   1.981 -0.8924  0.9720 -0.6006
 3055SOL     OW26774   1.232  13.335   2.999 -0.3269  0.4941 -0.2098
 3055SOL    HW126775   1.244  13.269   3.066 -2.0000 -0.4413 -0.7653
 3055SOL    HW226776   1.151  13.380   3.024 -0.7265  0.4361 -1.3516
 3056SOL     OW26777   2.732   7.895   1.623  0.1816  0.0692  0.4483
 3056SOL    HW126778   2.680   7.857   1.694  0.3486 -1.2062 -0.0663
 3056SOL    HW226779   2.808   7.933   1.666  0.8188 -1.6279  0.8985
 3057SOL     OW26780   0.145   1.356   9.639 -0.0967 -0.0409  0.0017
 3057SOL    HW126781   0.107   1.420   9.698  1.1203  0.2318  0.5313
 3057SOL    HW226782   0.178   1.287   9.697 -1.5476 -1.2737 -0.5648
 3058SOL     OW26783   8.189   8.777  13.853  0.3136  0.1110  0.4620
 3058SOL    HW126784   8.253   8.711  13.879 -0.4074 -0.5871  0.4906
 3058SOL    HW226785   8.105   8.733  13.859 -0.3763  1.5567  2.2142
 3059SOL     OW26786  12.796   1.102  12.497 -0.5983 -0.2279 -0.5830
 3059SOL    HW126787  12.799   1.146  12.582  0.4394 -0.1545 -0.6349
 3059SOL    HW226788  12.778   1.010  12.518 -1.0112 -0.0938 -0.3375
 3060SOL     OW26789   9.980  10.400   0.043  0.1499  0.1908  0.1537
 3060SOL    HW126790  10.053  10.451   0.077 -0.1183 -0.2391  1.4082
 3060SOL    HW226791  10.009  10.309   0.050 -0.8733 -0.0517  1.6273
 3061SOL     OW26792  10.301   2.322  10.592  0.0955 -0.1475  0.1770
 3061SOL    HW126793  10.213   2.323  10.553  0.1422 -2.2840 -0.1040
 3061SOL    HW226794  10.285   2.320  10.686 -0.1897 -1.1874  0.1154
 3062SOL     OW26795   7.076  12.836   9.047  0.0237 -0.0490  0.0621
 3062SOL    HW126796   7.099  12.793   8.965  1.6817 -0.0906  0.5072
 3062SOL    HW226797   6.989  12.804   9.068  0.4874 -1.7978 -0.5399
 3063SOL     OW26798   3.432   1.131   0.880  0.3567 -0.2668  0.3628
 3063SOL    HW126799   3.453   1.053   0.828 -2.2632  1.8105 -4.4875
 3063SOL    HW226800   3.504   1.191   0.862 -1.0510  0.8342 -2.0812
 3064SOL     OW26801   7.105  13.687   7.326  0.0390 -0.2912  0.2961
 3064SOL    HW126802   7.058  13.662   7.405  2.0486  1.7585  2.2993
 3064SOL    HW226803   7.175  13.623   7.318  0.3619  0.0102  0.7004
 3065SOL     OW26804   2.126  13.392  13.191  0.1237 -0.2854 -0.2376
 3065SOL    HW126805   2.214  13.389  13.153 -0.1643 -0.1615 -0.9317
 3065SOL    HW226806   2.084  13.466  13.147  0.1135  0.5299  1.0965
 3066SOL     OW26807   7.452   0.464   2.537 -0.0481  0.4574 -0.1625
 3066SOL    HW126808   7.452   0.410   2.459 -0.0514 -0.2334  0.3036
 3066SOL    HW226809   7.399   0.415   2.600  3.2980 -1.0958  1.6852
 3067SOL     OW26810   6.864   1.643   9.099 -0.5085  0.0442  0.3879
 3067SOL    HW126811   6.926   1.715   9.109 -0.1138 -0.2365 -0.0128
 3067SOL    HW226812   6.779   1.686   9.092 -0.2070  0.5123 -0.5383
 3068SOL     OW26813   2.172  10.396   9.454 -0.5090  0.6122  0.0333
 3068SOL    HW126814   2.169  10.487   9.424  0.6703 -0.5118 -4.1599
 3068SOL    HW226815   2.262  10.384   9.484 -0.4487  0.6523 -0.1282
 3069SOL     OW26816   1.604   9.972  13.941 -0.1061 -0.4672 -0.0716
 3069SOL    HW126817   1.646   9.890  13.913 -0.3038 -0.8298  0.6869
 3069SOL    HW226818   1.637   9.987  14.030  1.3017  1.2069 -0.8021
 3070SOL     OW26819  13.295   7.119  12.434  0.2835  0.0585  0.6926
 3070SOL    HW126820  13.340   7.203  12.430 -0.2853  0.3579  0.4383
 3070SOL    HW226821  13.245   7.123  12.516  0.1202  0.0400  0.5944
 3071SOL     OW26822  12.133   5.906   3.769  0.2785  0.3597  0.3037
 3071SOL    HW126823  12.071   5.837   3.745  0.0715 -0.3481  2.5875
 3071SOL    HW226824  12.209   5.891   3.714 -0.8823  0.1703 -1.3191
 3072SOL     OW26825   1.925   4.061   2.323 -0.2619 -0.1348  0.0734
 3072SOL    HW126826   1.968   4.079   2.239  1.1561 -1.5821  0.4447
 3072SOL    HW226827   1.972   4.115   2.386 -1.7845  1.4942 -0.1189
 3073SOL     OW26828   4.770  12.163   5.869 -0.2386  0.3990 -0.3173
 3073SOL    HW126829   4.703  12.231   5.860  0.2358  0.8214 -0.7323
 3073SOL    HW226830   4.853  12.210   5.859  0.1049 -0.1835 -0.2352
 3074SOL     OW26831   8.606   7.861   3.019  0.0070 -0.3964  0.0036
 3074SOL    HW126832   8.699   7.862   2.997  0.2759 -0.9328  1.0428
 3074SOL    HW226833   8.601   7.906   3.104 -1.0092  1.7716 -1.1362
 3075SOL     OW26834  12.420   0.305   4.907  0.0249 -0.0483  0.3969
 3075SOL    HW126835  12.468   0.382   4.878  0.2625 -0.0314  0.8286
 3075SOL    HW226836  12.348   0.296   4.844 -0.7509  1.2597  1.0681
 3076SOL     OW26837   3.643   8.512  13.572  0.2620  0.0872 -0.6741
 3076SOL    HW126838   3.693   8.468  13.503  2.1394  1.7667 -0.4708
 3076SOL    HW226839   3.709   8.539  13.636 -0.9895  1.7718 -0.0259
 3077SOL     OW26840   8.470   6.983   4.160  0.1770 -0.3198 -0.3307
 3077SOL    HW126841   8.493   6.890   4.154  1.3539  0.0060 -1.2320
 3077SOL    HW226842   8.460   6.999   4.254  1.0550 -1.1131 -0.0871
 3078SOL     OW26843   1.689   5.718  10.077 -0.4847  0.5396  0.0252
 3078SOL    HW126844   1.617   5.735  10.137 -2.1303  0.2398 -1.7891
 3078SOL    HW226845   1.732   5.803  10.067 -2.1147  1.3133 -0.7472
 3079SOL     OW26846  13.303   8.061   9.415  0.1144 -0.1802  0.4163
 3079SOL    HW126847  13.378   8.010   9.446  0.2099  0.5762  1.4715
 3079SOL    HW226848  13.340   8.118   9.346  0.5101  0.1625  0.9026
 3080SOL     OW26849  10.353   3.967   4.285 -0.3991  0.0432 -0.6388
 3080SOL    HW126850  10.374   3.879   4.252 -2.0407 -1.2132  1.4134
 3080SOL    HW226851  10.349   3.956   4.380  0.2713  2.6007 -0.2435
 3081SOL     OW26852  10.311   2.561   5.382  0.2202  0.0326  0.3352
 3081SOL    HW126853  10.246   2.623   5.416 -1.5434 -1.9741  0.7602
 3081SOL    HW226854  10.308   2.573   5.287  0.1145  0.7579  0.4189
 3082SOL     OW26855   4.325   2.127   5.807  0.4025  0.5200  0.0498
 3082SOL    HW126856   4.335   2.092   5.718  1.0468  1.0779 -0.1125
 3082SOL    HW226857   4.413   2.120   5.845  1.3205  4.3539 -0.9319
 3083SOL     OW26858  13.030   1.273   8.741  0.4860  0.2919  0.3181
 3083SOL    HW126859  12.937   1.253   8.739  0.1094  1.9465 -0.3593
 3083SOL    HW226860  13.055   1.285   8.649  1.4266 -0.3391  0.4702
 3084SOL     OW26861  13.597   1.175  11.198  0.0414 -0.4386 -0.4003
 3084SOL    HW126862  13.549   1.155  11.117 -1.5968 -1.7472  0.8231
 3084SOL    HW226863  13.651   1.098  11.214  1.1763  0.2540 -0.7573
 3085SOL     OW26864  11.251   9.383   4.400  0.0105 -0.8395 -0.1890
 3085SOL    HW126865  11.342   9.411   4.390  0.6630 -2.7273  0.0725
 3085SOL    HW226866  11.230   9.405   4.491  0.4089 -0.9278 -0.0710
 3086SOL     OW26867   5.332   5.167   2.836  0.1386 -0.2016 -0.6043
 3086SOL    HW126868   5.418   5.187   2.801  1.0699 -1.9762  0.4942
 3086SOL    HW226869   5.349   5.116   2.915 -1.9165  0.0238  0.0559
 3087SOL     OW26870   7.619   6.701   2.446  0.1052 -0.0349 -0.1472
 3087SOL    HW126871   7.692   6.697   2.384 -0.0727  1.5076 -0.5093
 3087SOL    HW226872   7.638   6.778   2.501 -0.8474 -0.0690  0.2545
 3088SOL     OW26873   3.472  12.266  13.446 -0.1531  0.1862  0.2081
 3088SOL    HW126874   3.425  12.272  13.363 -1.7571  0.3621  1.0898
 3088SOL    HW226875   3.564  12.270  13.422 -0.5064 -1.8243 -1.7261
 3089SOL     OW26876   2.634   2.438   1.362  0.0045 -0.0472 -0.0461
 3089SOL    HW126877   2.675   2.424   1.276  1.3767  3.0862 -0.0411
 3089SOL    HW226878   2.708   2.440   1.423 -0.8906 -1.4484  1.1493
 3090SOL     OW26879  10.685   3.345   3.937  0.0867 -0.1663 -0.6017
 3090SOL    HW126880  10.708   3.255   3.916  1.2249  0.3804 -1.8267
 3090SOL    HW226881  10.706   3.354   4.030 -0.1821 -1.1871 -0.4315
 3091SOL     OW26882   2.578   9.437   2.211 -0.0681  0.3121  0.2482
 3091SOL    HW126883   2.575   9.347   2.178  1.9447 -0.2855  1.5112
 3091SOL    HW226884   2.671   9.456   2.220 -0.4821  1.8153  1.8731
 3092SOL     OW26885   6.942   4.485   0.536  0.0698 -0.3472 -0.3550
 3092SOL    HW126886   6.975   4.560   0.487 -0.4693  0.7182  0.8378
 3092SOL    HW226887   6.951   4.411   0.476 -0.1674  0.8086 -1.8770
 3093SOL     OW26888   4.607   3.834  11.215  0.0376 -0.4345  0.4431
 3093SOL    HW126889   4.595   3.928  11.199 -0.5389 -0.6063 -0.2020
 3093SOL    HW226890   4.701   3.823  11.226  0.2013  0.0808 -0.4009
 3094SOL     OW26891   8.599   7.248   9.441  0.4948 -0.1192  0.6385
 3094SOL    HW126892   8.692   7.251   9.420  0.5194  1.7255  0.8306
 3094SOL    HW226893   8.571   7.339   9.440 -0.5887 -0.3024  3.6767
 3095SOL     OW26894  11.223   9.619   9.752  0.1190 -0.0878  0.2765
 3095SOL    HW126895  11.140   9.667   9.749  1.0854  1.6219 -1.8326
 3095SOL    HW226896  11.286   9.676   9.708  1.9114 -2.3161 -0.2714
 3096SOL     OW26897   4.368   7.780  13.197 -0.4235 -0.1916  0.0779
 3096SOL    HW126898   4.366   7.809  13.289 -0.7455 -1.5726  0.5241
 3096SOL    HW226899   4.392   7.688  13.202 -3.2427 -1.0773 -1.0280
 3097SOL     OW26900   1.956  10.448   3.876  0.6156  0.3891 -0.3407
 3097SOL    HW126901   1.995  10.463   3.962 -0.0484 -0.6593  0.1655
 3097SOL    HW226902   1.994  10.366   3.846 -0.1187  0.0842 -0.4637
 3098SOL     OW26903   2.133   4.309   2.704  0.3375  0.2107 -0.6696
 3098SOL    HW126904   2.120   4.307   2.609 -0.7484 -0.7923 -0.5227
 3098SOL    HW226905   2.076   4.240   2.737  0.6582  0.5910  0.7242
 3099SOL     OW26906   7.916   2.546   2.777  0.0491  0.2436 -0.1761
 3099SOL    HW126907   7.943   2.524   2.688  2.3681  0.9302  0.2853
 3099SOL    HW226908   7.886   2.463   2.814 -2.2761  0.1834 -1.9535
 3100SOL     OW26909   0.334   9.784  11.257 -0.0674  0.1933  0.1333
 3100SOL    HW126910   0.341   9.718  11.326  0.7609 -1.0204 -1.0561
 3100SOL    HW226911   0.269   9.847  11.290 -0.8084 -1.1488  1.3563
 3101SOL     OW26912   6.087   3.214   5.311  0.0021  0.0738  0.1741
 3101SOL    HW126913   6.027   3.287   5.294  0.9941  1.0678  0.8248
 3101SOL    HW226914   6.031   3.136   5.309 -1.2060  0.9164  0.1473
 3102SOL     OW26915   5.159   0.211   2.116  0.0470  0.1238  0.4970
 3102SOL    HW126916   5.164   0.158   2.196 -0.1235  2.0199  1.8504
 3102SOL    HW226917   5.215   0.286   2.134  0.2535  0.4426 -1.3270
 3103SOL     OW26918  11.907   4.453   8.315  0.2623 -0.0113  0.3446
 3103SOL    HW126919  11.961   4.466   8.393 -1.0061 -0.6881  1.3851
 3103SOL    HW226920  11.905   4.358   8.302 -1.8792 -0.1549  1.2830
 3104SOL     OW26921   0.354  10.951   9.778  0.1405  0.3540  0.9935
 3104SOL    HW126922   0.348  10.889   9.705  3.3650  0.3691  0.5742
 3104SOL    HW226923   0.264  10.961   9.808 -0.9488 -1.8041 -1.1836
 3105SOL     OW26924   1.211   2.302   3.046  0.2518 -0.1263  0.7777
 3105SOL    HW126925   1.299   2.306   3.008 -0.1872 -0.3741 -0.3006
 3105SOL    HW226926   1.176   2.390   3.033  0.1542 -0.1719  0.7330
 3106SOL     OW26927  12.702   0.334   1.526  0.1938  0.0916 -0.1377
 3106SOL    HW126928  12.751   0.257   1.556  2.8962  1.8505  0.3010
 3106SOL    HW226929  12.685   0.384   1.605  1.7599  1.6691 -0.7141
 3107SOL     OW26930  11.715   1.786   3.811 -0.1457  0.3342 -0.2070
 3107SOL    HW126931  11.636   1.832   3.841  0.2634 -0.0674  1.6302
 3107SOL    HW226932  11.788   1.839   3.844  0.3394 -1.6384  2.2023
 3108SOL     OW26933  12.311   5.868  11.631 -0.0978 -0.0662  0.5003
 3108SOL    HW126934  12.257   5.946  11.618 -0.0043  0.2240  1.7242
 3108SOL    HW226935  12.356   5.855  11.548 -0.0195  1.2610  0.3208
 3109SOL     OW26936   5.841  11.176  10.639  0.4937  0.1665 -0.1940
 3109SOL    HW126937   5.882  11.182  10.553  1.2487  0.7935  0.2013
 3109SOL    HW226938   5.904  11.126  10.692  1.1527  1.8150  0.6353
 3110SOL     OW26939   8.206   6.393   9.235  0.6254 -0.1162  0.0320
 3110SOL    HW126940   8.205   6.298   9.245  0.5505  0.0584  1.8925
 3110SOL    HW226941   8.114   6.420   9.243  0.6532  0.1302 -0.4108
 3111SOL     OW26942   3.625  11.692  13.408  0.1145  0.0134  0.2144
 3111SOL    HW126943   3.596  11.602  13.391  1.3859 -0.3603 -0.0572
 3111SOL    HW226944   3.717  11.693  13.381 -0.2587  1.7893 -1.1713
 3112SOL     OW26945   0.506  13.295   0.830  0.2773  0.0371 -0.5475
 3112SOL    HW126946   0.576  13.230   0.828  2.0532  1.6980  2.1142
 3112SOL    HW226947   0.446  13.265   0.898 -0.2514 -0.0296 -1.0261
 3113SOL     OW26948   5.432   4.251  12.315 -0.2705 -0.1470 -0.2087
 3113SOL    HW126949   5.418   4.158  12.332  0.4358 -0.0634  0.8762
 3113SOL    HW226950   5.517   4.255  12.271 -0.2104  0.0090 -0.0791
 3114SOL     OW26951   1.195   3.027  12.837 -0.1097 -0.3431 -0.9015
 3114SOL    HW126952   1.195   3.094  12.905 -1.7576  0.4290 -1.5988
 3114SOL    HW226953   1.208   2.944  12.883  1.2911  0.3825  0.0491
 3115SOL     OW26954   1.008  12.145   0.266 -0.2183 -0.1148 -0.2404
 3115SOL    HW126955   1.058  12.227   0.272 -0.7671  0.1898  0.1683
 3115SOL    HW226956   0.975  12.131   0.354  2.2647 -2.3152  0.4855
 3116SOL     OW26957   4.367  10.597   3.124 -0.2308  0.2382  0.4043
 3116SOL    HW126958   4.397  10.512   3.092 -0.8891 -1.2166  3.3219
 3116SOL    HW226959   4.448  10.647   3.136  0.2389 -0.2717 -0.5135
 3117SOL     OW26960   5.324   8.025   2.294  0.2173  0.3370 -0.0430
 3117SOL    HW126961   5.304   7.995   2.205 -0.5819 -1.0607  0.5802
 3117SOL    HW226962   5.372   8.107   2.281 -0.0000  0.2329 -1.7552
 3118SOL     OW26963   0.061   0.028   2.654  0.0278 -0.0731 -0.2570
 3118SOL    HW126964   0.103   0.086   2.591  0.3351 -1.0919 -1.0229
 3118SOL    HW226965   0.015   0.086   2.714  0.3751  0.9499 -0.9626
 3119SOL     OW26966   9.237   1.648  10.253  0.2461  0.1532 -0.5707
 3119SOL    HW126967   9.291   1.646  10.173 -0.0466 -2.1004 -0.7619
 3119SOL    HW226968   9.290   1.605  10.319 -0.3346  0.1686 -0.0872
 3120SOL     OW26969   1.544   6.612  13.413  0.0499 -0.5944  0.2906
 3120SOL    HW126970   1.512   6.689  13.460  0.5531 -0.3948  0.3083
 3120SOL    HW226971   1.561   6.547  13.482 -0.2869 -0.6917  0.2835
 3121SOL     OW26972   9.379   5.975   6.819 -0.3867  0.1141  1.0757
 3121SOL    HW126973   9.402   6.021   6.900 -1.4903  0.3234  1.2810
 3121SOL    HW226974   9.294   5.935   6.837 -0.4305 -0.2251  0.1711
 3122SOL     OW26975   8.961  14.026   7.317  0.6021 -0.2914 -0.3250
 3122SOL    HW126976   8.877  14.008   7.360  1.0834  0.0833  0.8005
 3122SOL    HW226977   8.944  14.009   7.225 -0.5713 -0.7376 -0.0495
 3123SOL     OW26978   8.153  12.791   1.457  0.4459 -0.0750  0.0995
 3123SOL    HW126979   8.103  12.781   1.538 -1.4016  0.7372 -0.8556
 3123SOL    HW226980   8.211  12.715   1.454  0.6470 -0.0641  2.2089
 3124SOL     OW26981  13.591  12.217  12.943  0.4884  0.8010  0.8898
 3124SOL    HW126982  13.680  12.191  12.919  0.2362 -0.3838  1.1591
 3124SOL    HW226983  13.556  12.141  12.990 -1.4037  0.3286 -1.0916
 3125SOL     OW26984  11.789  10.935  12.064  0.5064 -0.3520 -0.2825
 3125SOL    HW126985  11.844  10.863  12.033 -1.5227 -1.7754 -0.7930
 3125SOL    HW226986  11.709  10.892  12.094 -0.7650  1.7134 -0.5529
 3126SOL     OW26987  12.982   4.500   7.875 -0.0671 -0.0170 -0.1579
 3126SOL    HW126988  13.023   4.543   7.800 -1.0643 -0.8236 -1.1998
 3126SOL    HW226989  12.976   4.569   7.941 -2.1086  1.6691 -1.9414
 3127SOL     OW26990  10.128  11.723   9.542 -0.3690 -0.5363  0.3527
 3127SOL    HW126991  10.065  11.771   9.596  0.3078 -0.2075  0.8742
 3127SOL    HW226992  10.192  11.689   9.605  1.0281  0.7570 -0.3039
 3128SOL     OW26993   1.730   8.556   2.092 -0.0211 -0.2596  0.0219
 3128SOL    HW126994   1.807   8.542   2.147 -0.3027 -1.0434  0.2199
 3128SOL    HW226995   1.701   8.645   2.114  2.5702  1.3187 -2.2082
 3129SOL     OW26996  11.078   1.147  12.431  0.3346  0.2283 -0.1887
 3129SOL    HW126997  11.040   1.059  12.436  0.5650 -0.0094 -2.0993
 3129SOL    HW226998  11.059   1.177  12.343  1.0349  1.7623  0.1448
 3130SOL     OW26999   2.554   9.399   0.572 -0.0008  0.1479  0.1851
 3130SOL    HW127000   2.524   9.484   0.603  1.6410  1.8655 -2.5577
 3130SOL    HW227001   2.496   9.379   0.499 -0.8534 -1.5589  1.2466
 3131SOL     OW27002   8.333  11.511   5.078  0.1509  0.1687  0.3226
 3131SOL    HW127003   8.328  11.544   4.989 -0.3921 -0.0752  0.2617
 3131SOL    HW227004   8.356  11.419   5.068  0.3659  0.2073  0.4477
 3132SOL     OW27005  10.625   3.457   2.203 -0.0327 -0.2780  0.2720
 3132SOL    HW127006  10.594   3.502   2.124  1.2274 -0.3456 -0.2782
 3132SOL    HW227007  10.680   3.522   2.247  2.3042 -1.4067 -0.8401
 3133SOL     OW27008   6.498  12.807   6.213 -0.0680 -0.2601  0.1152
 3133SOL    HW127009   6.435  12.756   6.161 -0.8218 -1.4602  2.0744
 3133SOL    HW227010   6.459  12.894   6.219 -0.4742 -0.3902 -0.4715
 3134SOL     OW27011  10.340   1.377   3.032 -0.2853  0.2391 -0.3490
 3134SOL    HW127012  10.434   1.396   3.035  0.6040 -3.1231  3.2055
 3134SOL    HW227013  10.298   1.457   3.063  1.4566  1.5877 -1.3148
 3135SOL     OW27014   5.886   1.956   5.665  0.0016 -0.1076  0.0883
 3135SOL    HW127015   5.887   2.049   5.689 -1.1790 -0.2949  0.9490
 3135SOL    HW227016   5.836   1.914   5.734  1.9573 -1.6772  0.6610
 3136SOL     OW27017   0.775   1.955   5.326  0.4566  0.5518 -0.2144
 3136SOL    HW127018   0.766   1.883   5.264  1.6974  1.2405 -1.2188
 3136SOL    HW227019   0.767   2.034   5.273 -0.1006  1.1753  0.7559
 3137SOL     OW27020   2.728   7.387   5.184 -0.5766  0.3133 -0.0391
 3137SOL    HW127021   2.643   7.371   5.143 -0.6797  0.6419  0.0350
 3137SOL    HW227022   2.740   7.314   5.245 -1.4909  1.0120  1.0209
 3138SOL     OW27023   0.102   9.833   5.936 -0.2875 -0.2191 -0.3619
 3138SOL    HW127024   0.099   9.768   5.866 -1.4439  0.9233 -1.4149
 3138SOL    HW227025   0.044   9.903   5.907  0.0472  0.7889  1.2551
 3139SOL     OW27026   4.478   5.900  10.700 -0.2819  0.5677  0.1485
 3139SOL    HW127027   4.436   5.830  10.751 -1.6130  0.5122 -0.9733
 3139SOL    HW227028   4.484   5.973  10.761 -1.5577  0.4063  0.4964
 3140SOL     OW27029   1.776   5.916   6.580  0.1497  0.3390  0.3614
 3140SOL    HW127030   1.791   5.998   6.628 -0.3976  1.9669 -2.0637
 3140SOL    HW227031   1.850   5.911   6.519  0.3152 -1.1554  0.6513
 3141SOL     OW27032   1.557   1.778   7.340  0.3411 -1.1106 -0.1661
 3141SOL    HW127033   1.473   1.806   7.304 -0.2716  0.6729  2.3013
 3141SOL    HW227034   1.620   1.842   7.307 -0.0477 -0.0606  1.0191
 3142SOL     OW27035   0.137   2.791   0.940  0.3378 -0.5625 -0.1152
 3142SOL    HW127036   0.120   2.823   1.029  1.2153  0.3122 -0.2438
 3142SOL    HW227037   0.163   2.869   0.891  1.0872 -1.2362 -0.8201
 3143SOL     OW27038   3.671   8.162   2.902  0.2135  0.0466  0.5014
 3143SOL    HW127039   3.708   8.118   2.826  1.9776  2.3874 -0.1051
 3143SOL    HW227040   3.645   8.249   2.870 -1.8935  0.0295  1.9279
 3144SOL     OW27041   0.868   9.527  10.553 -0.1381  0.0697  0.0105
 3144SOL    HW127042   0.944   9.481  10.588  0.9914  2.0800  0.3755
 3144SOL    HW227043   0.836   9.471  10.482  2.5427 -0.2160 -1.0748
 3145SOL     OW27044   5.000   9.138   6.452 -0.7914 -0.6076 -0.0065
 3145SOL    HW127045   5.091   9.110   6.455 -0.8577 -1.2587 -2.0078
 3145SOL    HW227046   5.003   9.233   6.461 -0.0942 -0.7694  1.6965
 3146SOL     OW27047  11.607  11.483  13.212  0.8184 -0.0873 -1.1740
 3146SOL    HW127048  11.544  11.517  13.276  1.2472 -0.1878 -0.6820
 3146SOL    HW227049  11.685  11.465  13.265  0.2779 -2.8364 -1.2022
 3147SOL     OW27050   2.016  12.107  10.033  0.1200  0.0201 -0.1070
 3147SOL    HW127051   2.088  12.169  10.045  0.2386  0.4989 -2.7784
 3147SOL    HW227052   2.060  12.021  10.031  0.2783  0.0660  0.8139
 3148SOL     OW27053   7.965   8.638   5.158 -0.2196  0.0605  0.0616
 3148SOL    HW127054   7.905   8.707   5.186  0.4664  0.5347  0.3846
 3148SOL    HW227055   8.035   8.684   5.111  0.6781 -0.2958  1.0023
 3149SOL     OW27056  11.932   9.766   0.338 -0.1555 -0.2945 -0.4356
 3149SOL    HW127057  12.020   9.729   0.332 -0.1107 -0.4976  1.0284
 3149SOL    HW227058  11.874   9.695   0.311  0.1015 -0.3333 -0.8879
 3150SOL     OW27059   2.596   7.658   3.287  0.3714  0.3692  0.1703
 3150SOL    HW127060   2.557   7.705   3.361 -2.2137  0.1682 -0.9924
 3150SOL    HW227061   2.686   7.692   3.284  0.8999 -0.1998  3.8504
 3151SOL     OW27062   0.949   4.328   1.355  0.4762  0.4593  0.4013
 3151SOL    HW127063   0.858   4.299   1.348  0.9401 -0.9482 -0.4219
 3151SOL    HW227064   0.950   4.392   1.426 -0.6627 -1.5859  2.3816
 3152SOL     OW27065   2.683  11.845  13.113  0.3669 -0.2553  0.1066
 3152SOL    HW127066   2.688  11.766  13.166 -0.5751 -0.9684 -0.8168
 3152SOL    HW227067   2.688  11.917  13.175  0.1957 -1.0512  1.0550
 3153SOL     OW27068   5.655   4.469  11.391  0.4808 -0.3061 -0.1690
 3153SOL    HW127069   5.641   4.563  11.380  0.0856 -0.1133  1.7034
 3153SOL    HW227070   5.750   4.458  11.389  0.5773  0.2979  0.6010
 3154SOL     OW27071   0.146   3.329   1.749 -0.3120 -0.1643 -0.2174
 3154SOL    HW127072   0.185   3.320   1.662  0.2031  0.1828 -0.0232
 3154SOL    HW227073   0.083   3.257   1.754  0.5002 -0.9064 -0.4335
 3155SOL     OW27074   2.501   5.210   1.894  0.4021 -0.0395  0.0969
 3155SOL    HW127075   2.445   5.205   1.817  1.9643  0.5676 -1.1275
 3155SOL    HW227076   2.575   5.263   1.866  2.0013 -1.4800  1.4115
 3156SOL     OW27077  10.660   0.895   3.648  0.4227  0.0507 -0.2127
 3156SOL    HW127078  10.592   0.941   3.696  0.8773  0.8216 -0.2753
 3156SOL    HW227079  10.613   0.837   3.588 -0.1648  0.3070 -0.0041
 3157SOL     OW27080   1.051   2.415   6.131 -0.1719  0.1051  0.2432
 3157SOL    HW127081   1.103   2.486   6.094 -1.0920  1.4079  1.3469
 3157SOL    HW227082   0.966   2.421   6.087 -0.1158 -0.6106  0.0228
 3158SOL     OW27083   7.602   4.349   1.632 -0.3342 -0.3194  0.1686
 3158SOL    HW127084   7.512   4.358   1.666  0.3907  1.5323  1.8359
 3158SOL    HW227085   7.652   4.316   1.706  0.2269 -2.4331 -1.0763
 3159SOL     OW27086  11.806   5.101   4.829  0.1458  0.2679  0.1141
 3159SOL    HW127087  11.790   5.066   4.917 -0.0827 -1.9629 -0.7536
 3159SOL    HW227088  11.719   5.114   4.792  0.1097 -2.6543 -1.1375
 3160SOL     OW27089  10.434  11.261   5.762  0.2070  0.9855 -0.3266
 3160SOL    HW127090  10.507  11.310   5.800 -1.5861  2.8653  0.8985
 3160SOL    HW227091  10.427  11.183   5.817 -1.0782  2.6989  2.1283
 3161SOL     OW27092  11.378   6.179   1.585  0.5184 -0.1818 -0.3977
 3161SOL    HW127093  11.362   6.271   1.566  0.9972  0.2722  1.2535
 3161SOL    HW227094  11.307   6.154   1.644  0.1001 -1.0302 -1.2278
 3162SOL     OW27095   1.655   9.036  11.413 -0.6955  0.0378 -0.7319
 3162SOL    HW127096   1.568   9.076  11.404 -0.0076  1.3785 -1.8291
 3162SOL    HW227097   1.715   9.111  11.414  0.4382 -0.8693  0.1629
 3163SOL     OW27098   0.334   2.569   8.515  0.5175 -0.0774 -0.0314
 3163SOL    HW127099   0.340   2.491   8.461  0.9326 -0.6465  0.8233
 3163SOL    HW227100   0.247   2.564   8.555  1.5801 -1.7150  2.3564
 3164SOL     OW27101   8.383   8.881   5.964 -0.3478  0.4445 -0.3721
 3164SOL    HW127102   8.349   8.959   5.921  1.0817  0.7233 -1.0762
 3164SOL    HW227103   8.412   8.911   6.049 -0.2137  0.5895 -0.4678
 3165SOL     OW27104   2.946  11.702   1.741 -0.0471 -0.0797 -0.4851
 3165SOL    HW127105   2.996  11.647   1.801  1.4015  0.2159 -1.3781
 3165SOL    HW227106   3.010  11.735   1.679 -1.4992 -0.4104 -2.2623
 3166SOL     OW27107   5.849  11.615   8.365 -0.2528  0.3420  0.1317
 3166SOL    HW127108   5.837  11.697   8.316  0.7699  0.6374  0.3442
 3166SOL    HW227109   5.867  11.644   8.454  1.7260 -0.0146 -0.1029
 3167SOL     OW27110   2.219  10.572  10.950  0.3042  0.3706  0.1840
 3167SOL    HW127111   2.171  10.551  11.030 -0.7449 -1.7006 -0.9108
 3167SOL    HW227112   2.302  10.525  10.959 -0.5945 -1.4965 -0.7082
 3168SOL     OW27113  11.458   1.475  12.693  0.3755  0.5770  0.0730
 3168SOL    HW127114  11.433   1.397  12.742  0.6417 -0.5034 -1.4170
 3168SOL    HW227115  11.379   1.528  12.689 -0.7382 -1.0369 -1.3906
 3169SOL     OW27116   3.358   4.002   6.302 -0.2673  0.0409  0.4792
 3169SOL    HW127117   3.302   4.063   6.253  0.2466  0.2027  0.0803
 3169SOL    HW227118   3.311   3.919   6.301  0.5671 -0.4866 -1.9499
 3170SOL     OW27119   2.055   1.605   2.179  0.0404  0.3912 -0.5748
 3170SOL    HW127120   2.146   1.620   2.153  0.8375 -1.0269  1.1715
 3170SOL    HW227121   2.046   1.648   2.264 -1.7482  2.7502 -1.8530
 3171SOL     OW27122  13.545   5.499  12.063 -0.1023 -0.2760  0.3740
 3171SOL    HW127123  13.501   5.540  12.137 -1.3678  0.8059 -0.8925
 3171SOL    HW227124  13.474   5.455  12.015  0.7255 -1.2109 -0.0267
 3172SOL     OW27125   2.663  13.864  13.588 -0.0010  0.0086  0.4823
 3172SOL    HW127126   2.722  13.850  13.662 -0.2785  1.0937  0.9242
 3172SOL    HW227127   2.589  13.913  13.625  0.3303  1.4815 -0.6964
 3173SOL     OW27128   4.297   0.272   6.545  0.2190 -0.1683 -0.2052
 3173SOL    HW127129   4.229   0.288   6.480 -2.0775 -0.8764  1.8705
 3173SOL    HW227130   4.358   0.345   6.535 -1.7157  1.4034 -1.1209
 3174SOL     OW27131   3.170   4.545   7.273  0.3528 -0.0228  0.1309
 3174SOL    HW127132   3.088   4.538   7.322 -1.0255 -0.6175 -2.0730
 3174SOL    HW227133   3.212   4.460   7.283  1.0614  0.4769  1.7597
 3175SOL     OW27134  13.478   4.479   8.040  0.2505 -0.2523  0.2376
 3175SOL    HW127135  13.468   4.395   8.085 -2.6937 -0.7736 -1.1771
 3175SOL    HW227136  13.477   4.457   7.947 -0.9692  1.3600 -0.1820
 3176SOL     OW27137   7.575   4.336  11.799  0.6430 -0.1549 -0.6194
 3176SOL    HW127138   7.640   4.387  11.751  1.0516  0.3417  0.4407
 3176SOL    HW227139   7.576   4.250  11.757  1.0272  0.2520 -1.4589
 3177SOL     OW27140   9.566  12.372  12.435 -0.6719 -0.0755  0.1382
 3177SOL    HW127141   9.490  12.318  12.454  0.3749 -0.6810  2.9974
 3177SOL    HW227142   9.642  12.316  12.454  0.4831  1.2685 -0.2863
 3178SOL     OW27143   2.182  10.607   3.735  0.8339  0.3165  0.2848
 3178SOL    HW127144   2.088  10.593   3.729  0.5807  0.7777  2.5299
 3178SOL    HW227145   2.212  10.606   3.644 -1.3023  0.0486 -0.4652
 3179SOL     OW27146  12.024   6.118   3.417  0.0775  0.2169  0.0160
 3179SOL    HW127147  12.033   6.209   3.389 -2.5848  0.7198  0.5443
 3179SOL    HW227148  12.008   6.123   3.511 -1.4067 -0.6524 -0.1518
 3180SOL     OW27149  10.634  10.089  11.699 -0.2013 -0.8934  0.3123
 3180SOL    HW127150  10.625  10.008  11.749  0.2799 -0.3571  1.3050
 3180SOL    HW227151  10.583  10.154  11.748  0.4762 -0.2997  0.2537
 3181SOL     OW27152  11.155   8.455   2.586  0.0169 -0.7872 -0.3300
 3181SOL    HW127153  11.077   8.428   2.635 -0.1329  0.0222 -0.1018
 3181SOL    HW227154  11.160   8.550   2.599  0.5394 -0.7004 -1.0787
 3182SOL     OW27155   9.100  12.814  10.390  0.4712 -0.5318 -0.3126
 3182SOL    HW127156   9.022  12.826  10.335 -0.6613 -0.0520  1.3218
 3182SOL    HW227157   9.102  12.892  10.445  1.4270 -1.1154  0.4941
 3183SOL     OW27158   3.518   6.678  10.061 -0.8401  0.3852  0.2450
 3183SOL    HW127159   3.531   6.756  10.006 -2.9871  0.4249 -0.3077
 3183SOL    HW227160   3.424   6.677  10.079 -0.3628 -0.2556  3.0524
 3184SOL     OW27161  11.674   2.155   3.171  0.1597  0.0007 -0.1531
 3184SOL    HW127162  11.630   2.091   3.227  0.8209 -1.5033 -1.2823
 3184SOL    HW227163  11.613   2.171   3.100  0.1171  0.4137 -0.0270
 3185SOL     OW27164   8.700   1.538   8.626  0.1585  0.1034 -0.0691
 3185SOL    HW127165   8.680   1.579   8.710  0.6958 -1.9502  1.1262
 3185SOL    HW227166   8.795   1.526   8.628  0.6637  2.5846 -2.2690
 3186SOL     OW27167   7.921   2.504   3.267  0.2661 -0.0483 -0.1417
 3186SOL    HW127168   7.844   2.517   3.322  0.7813 -2.1601  1.1518
 3186SOL    HW227169   7.891   2.526   3.178 -1.7399 -0.5693  0.3699
 3187SOL     OW27170   0.489   9.152  11.326  0.8754  0.1387  0.0900
 3187SOL    HW127171   0.541   9.097  11.384  0.0055 -0.7718  0.0357
 3187SOL    HW227172   0.402   9.113  11.327 -0.7091  3.2619  2.4838
 3188SOL     OW27173   8.854  11.748  10.943 -0.2336  0.3784  0.2515
 3188SOL    HW127174   8.861  11.653  10.952 -2.6166  0.0033 -0.8480
 3188SOL    HW227175   8.922  11.772  10.881 -0.4347 -0.8456 -0.4809
 3189SOL     OW27176  12.195  11.798  12.358 -0.0526  0.3560  0.8332
 3189SOL    HW127177  12.164  11.754  12.437  1.2660 -0.0738  1.1403
 3189SOL    HW227178  12.199  11.728  12.292  0.2530  0.4029  0.8006
 3190SOL     OW27179   3.378  13.484  12.555 -0.2641  0.1958  0.1130
 3190SOL    HW127180   3.360  13.491  12.649 -1.4649  0.1411 -0.0951
 3190SOL    HW227181   3.396  13.574  12.528 -0.5665  0.3097  0.2803
 3191SOL     OW27182   9.827   5.981   1.652  0.6114  0.4986 -0.0273
 3191SOL    HW127183   9.781   5.955   1.732  1.1977 -0.6202 -0.0269
 3191SOL    HW227184   9.894   6.042   1.682 -0.2555  1.4061  0.0965
 3192SOL     OW27185  13.173   6.761   4.636 -0.1399  0.0062  0.6742
 3192SOL    HW127186  13.246   6.779   4.577 -0.1924 -1.0631  0.2646
 3192SOL    HW227187  13.177   6.831   4.701 -0.2225  1.3503 -0.7088
 3193SOL     OW27188  12.103   0.320   4.412 -0.5655  0.1236 -0.1453
 3193SOL    HW127189  12.159   0.253   4.372  0.8983  1.0476  0.2884
 3193SOL    HW227190  12.038   0.270   4.461  0.9410 -1.0079  0.7881
 3194SOL     OW27191  12.524   1.062   8.967  0.2495  0.0611  0.0658
 3194SOL    HW127192  12.543   0.994   8.903  1.2613  0.3438  0.0486
 3194SOL    HW227193  12.541   1.021   9.052 -0.2695 -0.0561  0.1150
 3195SOL     OW27194   8.824  13.620   8.903  0.3294 -0.4819  0.0053
 3195SOL    HW127195   8.836  13.687   8.836  1.4146 -0.7241 -0.0636
 3195SOL    HW227196   8.912  13.602   8.935 -0.1645 -0.3855  1.4911
 3196SOL     OW27197   3.080   2.828   8.407 -0.5153 -0.0561 -0.2813
 3196SOL    HW127198   3.042   2.818   8.494 -0.2302  0.8972 -0.0336
 3196SOL    HW227199   3.167   2.866   8.423 -0.1911 -0.5049 -0.9379
 3197SOL     OW27200   1.884  10.396   8.198  0.5050  0.0479  0.1633
 3197SOL    HW127201   1.866  10.303   8.212  1.1236  0.1731  2.0926
 3197SOL    HW227202   1.932  10.399   8.115 -0.5631 -1.1976 -0.5439
 3198SOL     OW27203   7.678  12.849   5.548  1.0236 -0.1905 -0.0236
 3198SOL    HW127204   7.593  12.823   5.513  0.4426  1.5231  0.0321
 3198SOL    HW227205   7.720  12.896   5.476  0.7304  1.4293  0.8355
 3199SOL     OW27206   9.523  13.803   7.493  0.0020 -0.2087  0.0386
 3199SOL    HW127207   9.487  13.891   7.487  0.2164 -0.1718 -0.8704
 3199SOL    HW227208   9.460  13.747   7.447  0.9804 -0.1614 -1.4450
 3200SOL     OW27209   8.221  11.353   4.389  0.1521  0.3065 -0.3012
 3200SOL    HW127210   8.181  11.268   4.369  0.4126  0.1585 -0.1849
 3200SOL    HW227211   8.231  11.394   4.303  0.2390  0.1262 -0.3777
 3201SOL     OW27212   3.341   7.474   3.782 -0.1466 -0.2203  0.2767
 3201SOL    HW127213   3.420   7.433   3.817 -0.1120 -0.7339 -0.4024
 3201SOL    HW227214   3.271   7.411   3.798 -0.1094 -0.5201 -0.6865
 3202SOL     OW27215   5.669   2.495   2.104  0.1915 -0.2043  0.2193
 3202SOL    HW127216   5.746   2.543   2.073 -1.2283  0.8184 -2.0058
 3202SOL    HW227217   5.652   2.431   2.035 -1.8580  0.7106 -0.1931
 3203SOL     OW27218  11.632   9.764   0.015 -0.6137 -0.3292  0.1856
 3203SOL    HW127219  11.593   9.792  -0.068 -1.2971 -0.1689  0.5553
 3203SOL    HW227220  11.722   9.798   0.012 -0.2139 -1.4081 -1.0415
 3204SOL     OW27221  12.949  11.226   7.850 -0.3910 -0.0001 -0.3240
 3204SOL    HW127222  12.927  11.313   7.885 -0.9907 -0.9188  1.7005
 3204SOL    HW227223  12.885  11.167   7.889  1.1631 -1.6482 -0.1223
 3205SOL     OW27224   3.910  10.241  12.290  0.3176  0.1805  0.9038
 3205SOL    HW127225   3.992  10.277  12.326 -0.8582  2.6279  1.3064
 3205SOL    HW227226   3.894  10.292  12.211 -0.0190 -1.3950 -0.0837
 3206SOL     OW27227   0.956   6.033  12.181  0.0526 -0.2434  0.1227
 3206SOL    HW127228   0.863   6.036  12.205 -0.0688  2.0141 -0.3986
 3206SOL    HW227229   0.998   5.987  12.254 -1.5060 -1.7703  0.1148
 3207SOL     OW27230  10.983  10.353  13.109 -0.2449 -0.0208  0.0647
 3207SOL    HW127231  10.968  10.354  13.204  1.3961 -0.5572  0.3544
 3207SOL    HW227232  11.034  10.431  13.091  0.3712 -0.4782 -0.2055
 3208SOL     OW27233  10.667  12.251  10.278  0.6933  0.2437 -0.5240
 3208SOL    HW127234  10.666  12.286  10.188 -0.4569  0.7847 -0.3161
 3208SOL    HW227235  10.622  12.167  10.272 -1.1004  1.1240 -0.1619
 3209SOL     OW27236   7.960   8.061   4.254 -0.2589 -0.1378 -0.1310
 3209SOL    HW127237   7.868   8.090   4.252  0.0399  0.7999 -1.8740
 3209SOL    HW227238   8.009   8.132   4.213  0.9871 -1.5257 -1.1433
 3210SOL     OW27239  11.225   6.588   5.415 -0.0900 -0.6300  0.2763
 3210SOL    HW127240  11.240   6.532   5.339 -1.8596 -0.2450 -0.4053
 3210SOL    HW227241  11.243   6.532   5.490 -1.4768 -2.0420 -0.3888
 3211SOL     OW27242  10.106   0.086   2.511 -0.0588  0.0236  0.2535
 3211SOL    HW127243  10.191   0.072   2.553  0.6679 -1.0395 -1.4312
 3211SOL    HW227244  10.083   0.001   2.475  0.0825  1.1027 -2.6627
 3212SOL     OW27245   3.669   0.441  11.109  0.1195  0.3083  0.2663
 3212SOL    HW127246   3.741   0.395  11.067  0.4401  1.4780 -0.5179
 3212SOL    HW227247   3.610   0.372  11.139 -0.2317 -0.6228 -2.3108
 3213SOL     OW27248  10.870  10.941   8.936  0.1304  0.9817  0.0623
 3213SOL    HW127249  10.834  10.856   8.910 -0.5573  0.5275  2.2582
 3213SOL    HW227250  10.801  11.004   8.915 -0.1910  0.7103  0.3057
 3214SOL     OW27251   1.446   5.720   5.220 -0.0304 -0.3627  0.4443
 3214SOL    HW127252   1.371   5.711   5.278 -1.0341  0.0863 -0.7444
 3214SOL    HW227253   1.506   5.778   5.266 -0.1963 -1.0857  1.6059
 3215SOL     OW27254  13.689   5.254  11.878  0.5472  0.4920  0.1049
 3215SOL    HW127255  13.683   5.295  11.791  0.4202  0.9555  0.3287
 3215SOL    HW227256  13.602   5.265  11.916  0.4812 -0.0869  0.1273
 3216SOL     OW27257   3.675   2.311   8.923 -0.9488  0.2501  0.3308
 3216SOL    HW127258   3.693   2.219   8.905  0.5381  0.7913 -1.2548
 3216SOL    HW227259   3.714   2.358   8.849 -3.4292  2.0403  0.0250
 3217SOL     OW27260   7.733   2.306   5.182 -0.3498 -0.1294  0.1242
 3217SOL    HW127261   7.667   2.315   5.251  0.8735  2.5644  1.0559
 3217SOL    HW227262   7.806   2.260   5.224  0.9858  2.7560  1.2341
 3218SOL     OW27263  10.642   1.397   0.421 -0.3161  0.2307 -0.7958
 3218SOL    HW127264  10.682   1.443   0.494 -2.7493  1.5631 -0.2101
 3218SOL    HW227265  10.674   1.442   0.343  0.8448 -0.0354 -0.4985
 3219SOL     OW27266  13.334   6.873   2.008 -0.0326 -0.0262 -0.0519
 3219SOL    HW127267  13.260   6.899   2.063  0.9031 -1.1798  1.8779
 3219SOL    HW227268  13.329   6.777   2.005  1.5964 -0.1690  0.5212
 3220SOL     OW27269   3.383   8.484   5.618 -0.3410  0.2891  0.5991
 3220SOL    HW127270   3.458   8.430   5.642  0.6707  1.2052 -0.3714
 3220SOL    HW227271   3.315   8.422   5.592  0.3731 -0.5339  0.6831
 3221SOL     OW27272   4.926   7.743   1.721  0.1780  0.7536 -0.0663
 3221SOL    HW127273   4.988   7.735   1.649 -1.3120  0.1271 -1.3402
 3221SOL    HW227274   4.868   7.815   1.695 -2.2374 -1.3734 -1.0598
 3222SOL     OW27275  12.493   0.957   9.465  0.0272  0.9647  0.7869
 3222SOL    HW127276  12.527   1.032   9.417 -0.5763  0.3110 -0.7394
 3222SOL    HW227277  12.407   0.940   9.425  0.2243 -0.6207  0.9769
 3223SOL     OW27278   3.951   4.475   5.039 -0.3314  0.9732 -0.0659
 3223SOL    HW127279   3.916   4.477   5.128  1.8273 -1.0555  0.9454
 3223SOL    HW227280   3.884   4.429   4.988 -0.3038 -0.5589  1.2148
 3224SOL     OW27281   5.152   7.119  12.618 -0.1643  0.5600  0.3161
 3224SOL    HW127282   5.230   7.074  12.585 -0.4351  0.5790 -0.3661
 3224SOL    HW227283   5.079   7.072  12.578 -0.4422  2.5122 -1.6532
 3225SOL     OW27284  11.263   0.571  10.439 -0.2722  0.1305  0.3292
 3225SOL    HW127285  11.207   0.544  10.366 -1.4250  0.0982  1.1926
 3225SOL    HW227286  11.227   0.655  10.467 -0.9423 -0.6488  1.9319
 3226SOL     OW27287  13.670   4.260   0.495  0.4318 -0.4597 -0.0918
 3226SOL    HW127288  13.612   4.200   0.541  1.3270 -0.7945  0.6247
 3226SOL    HW227289  13.631   4.270   0.408 -0.1580 -1.4465  0.0540
 3227SOL     OW27290   7.163   8.899   3.790 -0.3138 -0.3102  0.3971
 3227SOL    HW127291   7.225   8.972   3.782 -0.4826 -0.3203 -1.6482
 3227SOL    HW227292   7.123   8.911   3.876 -0.1856  1.8988  0.2101
 3228SOL     OW27293   1.539   3.209  12.063 -0.1137 -0.5034 -0.1100
 3228SOL    HW127294   1.479   3.182  12.132 -0.4705  0.5522  0.0005
 3228SOL    HW227295   1.626   3.191  12.099 -0.2139  1.5879  1.3298
 3229SOL     OW27296   3.198   9.129   3.919 -0.6593  0.4320 -0.2002
 3229SOL    HW127297   3.116   9.177   3.910 -0.1513  1.1390 -1.2197
 3229SOL    HW227298   3.258   9.191   3.962 -0.2019  0.4892 -0.9021
 3230SOL     OW27299  11.441   6.346  13.850 -0.8255  0.4106 -0.4029
 3230SOL    HW127300  11.479   6.387  13.928 -0.9809 -0.5677  0.1927
 3230SOL    HW227301  11.510   6.289  13.817 -0.7176  0.9107 -1.0611
 3231SOL     OW27302   8.258   3.391  13.903 -0.0565 -0.5988  0.9190
 3231SOL    HW127303   8.298   3.360  13.822  0.2452  1.0348  0.3914
 3231SOL    HW227304   8.296   3.478  13.916  1.2001 -1.4425  3.7243
 3232SOL     OW27305   4.940   8.753   7.523 -0.4953  0.4227  0.3678
 3232SOL    HW127306   4.886   8.692   7.572 -0.4901  0.4676  0.4296
 3232SOL    HW227307   4.927   8.838   7.566 -0.2435  0.4011  0.4912
 3233SOL     OW27308   2.570  10.702   3.416 -0.7114 -0.2318  0.7972
 3233SOL    HW127309   2.594  10.760   3.345 -0.3130  1.1176  1.9870
 3233SOL    HW227310   2.595  10.615   3.386  0.7523  0.4849 -0.1507
 3234SOL     OW27311   9.039   6.224   7.751  0.4105  0.2085 -0.1838
 3234SOL    HW127312   9.071   6.313   7.735 -1.1792  0.6383 -1.1626
 3234SOL    HW227313   8.978   6.207   7.679 -0.6159 -1.0149  0.9263
 3235SOL     OW27314   5.489   0.631   4.031 -0.1792  0.2293  0.1957
 3235SOL    HW127315   5.476   0.724   4.014 -0.7852 -0.0735 -1.1547
 3235SOL    HW227316   5.506   0.625   4.125  0.4083  1.7490  0.2042
 3236SOL     OW27317   2.102  12.622   7.459  0.0020  0.5306 -0.0676
 3236SOL    HW127318   2.097  12.530   7.485  0.5135  0.6640  0.5263
 3236SOL    HW227319   2.076  12.670   7.538 -2.5371  0.8678 -0.9967
 3237SOL     OW27320  13.299   1.805  13.893 -0.5225  0.8786  0.3989
 3237SOL    HW127321  13.282   1.820  13.800  1.9538  0.2136 -0.2518
 3237SOL    HW227322  13.328   1.890  13.926  0.7374  0.6395 -0.0275
 3238SOL     OW27323  10.799  10.544   1.023  0.2397  0.2727 -0.2073
 3238SOL    HW127324  10.775  10.496   1.102 -0.0009  1.8862  0.7645
 3238SOL    HW227325  10.884  10.509   0.998  0.7840  0.3991  1.3641
 3239SOL     OW27326  11.982   5.091   7.771 -0.1467 -0.1707 -0.3971
 3239SOL    HW127327  12.044   5.086   7.844  0.2996 -2.7054 -0.8737
 3239SOL    HW227328  12.032   5.132   7.700 -0.5840  2.3130  0.6228
 3240SOL     OW27329  13.096   7.245   1.998  0.3249  0.3708  0.5450
 3240SOL    HW127330  13.108   7.188   2.074  1.6681 -0.9696 -0.6092
 3240SOL    HW227331  13.178   7.237   1.949 -0.4288  1.3497 -0.9464
 3241SOL     OW27332   8.479   4.172   6.804  0.6942 -0.5113 -0.2499
 3241SOL    HW127333   8.559   4.180   6.752  0.4367 -1.5485 -0.8364
 3241SOL    HW227334   8.509   4.177   6.895  1.4094 -0.7200 -0.4662
 3242SOL     OW27335   1.387   5.818  11.598  0.1413  0.0087 -0.4456
 3242SOL    HW127336   1.419   5.893  11.647 -0.3519  0.1672 -0.3686
 3242SOL    HW227337   1.362   5.754  11.664  1.0114 -0.4225 -0.5124
 3243SOL     OW27338   6.389  10.492  11.897  0.1394  0.6636 -0.4183
 3243SOL    HW127339   6.458  10.556  11.916 -0.7439  1.6786 -0.4829
 3243SOL    HW227340   6.411  10.459  11.810  0.6222  0.8725 -0.3813
 3244SOL     OW27341   1.232  13.429   4.137  0.3828  0.5050  0.1421
 3244SOL    HW127342   1.281  13.382   4.070  1.8314  1.1929  0.6702
 3244SOL    HW227343   1.142  13.432   4.104  1.0698  0.9197 -1.8278
 3245SOL     OW27344   0.953   8.217   6.002 -0.5130 -0.2592  0.1557
 3245SOL    HW127345   0.874   8.191   6.049  1.6040 -0.1764  4.1977
 3245SOL    HW227346   1.016   8.147   6.021  2.2182  2.5709  2.5848
 3246SOL     OW27347   3.876  12.287   3.702  0.7492  0.4409 -0.0751
 3246SOL    HW127348   3.843  12.200   3.726  0.7266  0.6534  0.6941
 3246SOL    HW227349   3.882  12.334   3.785 -1.4026  1.9307 -0.6759
 3247SOL     OW27350   6.343  12.193  10.722  0.0429 -0.1346  0.2656
 3247SOL    HW127351   6.282  12.257  10.759  0.8637  0.6547  0.3049
 3247SOL    HW227352   6.360  12.132  10.794  0.6813  0.6847  0.8393
 3248SOL     OW27353   9.089  13.054  12.368 -0.2142 -0.2827 -0.3609
 3248SOL    HW127354   9.181  13.050  12.391  0.3394  1.6433 -2.0066
 3248SOL    HW227355   9.054  13.127  12.419 -1.4153 -2.2904  1.8755
 3249SOL     OW27356   1.301   8.270   7.514  0.0534  0.1119  0.4758
 3249SOL    HW127357   1.258   8.307   7.437  1.9165  1.1979 -0.1104
 3249SOL    HW227358   1.368   8.335   7.537  0.2520 -0.7028  2.3593
 3250SOL     OW27359   4.438   1.914   7.698 -0.2334  0.3881  0.4218
 3250SOL    HW127360   4.529   1.904   7.725 -0.3439 -2.5170  0.0585
 3250SOL    HW227361   4.432   2.004   7.666  2.6941  0.4619 -0.1959
 3251SOL     OW27362  10.523   2.980   5.997  0.0097  0.3437 -0.0237
 3251SOL    HW127363  10.524   2.977   5.902 -0.5690  1.3111 -0.0724
 3251SOL    HW227364  10.430   2.987   6.020  0.1496  0.2169  0.6073
 3252SOL     OW27365   8.097  10.143  13.750  0.0196  0.2194  0.2297
 3252SOL    HW127366   8.049  10.111  13.673  2.3736 -2.5866 -0.2482
 3252SOL    HW227367   8.028  10.168  13.812 -1.9944 -0.3235 -1.6583
 3253SOL     OW27368  13.788   4.357   4.145 -0.4097 -0.2159 -0.5858
 3253SOL    HW127369  13.730   4.310   4.085 -0.9674 -0.3986  0.0782
 3253SOL    HW227370  13.747   4.443   4.155  0.7287  0.5326 -1.9742
 3254SOL     OW27371   9.014   9.781   1.174 -0.3633 -0.6783  0.2027
 3254SOL    HW127372   8.922   9.757   1.187 -0.8251  0.9075  0.1016
 3254SOL    HW227373   9.053   9.774   1.261 -0.4210 -1.9069  0.1455
 3255SOL     OW27374   8.209  12.106  12.794  0.4263 -0.4388 -0.4264
 3255SOL    HW127375   8.136  12.044  12.785 -0.5138  0.1779  2.1849
 3255SOL    HW227376   8.168  12.188  12.822  2.0813 -0.0100  0.8953
 3256SOL     OW27377  11.844   3.769  13.756  0.1925  0.0960  0.1342
 3256SOL    HW127378  11.858   3.713  13.832  1.7304 -0.1401 -0.2895
 3256SOL    HW227379  11.894   3.727  13.686 -0.4850  0.7812 -0.7861
 3257SOL     OW27380   8.712  12.459  10.455  0.1400  0.0185  0.5954
 3257SOL    HW127381   8.783  12.516  10.485  1.2022 -1.3922  0.8448
 3257SOL    HW227382   8.733  12.444  10.362 -0.9093  1.1079  0.1504
 3258SOL     OW27383   7.776  10.934   5.283  0.1408 -0.3597 -0.2373
 3258SOL    HW127384   7.735  10.878   5.349 -0.3455  1.7081  1.3280
 3258SOL    HW227385   7.869  10.911   5.285 -0.1481 -1.5739 -0.1558
 3259SOL     OW27386   6.586   4.003   1.474  0.1672 -0.4792 -0.2568
 3259SOL    HW127387   6.624   4.090   1.464 -2.2962  0.4334 -2.8928
 3259SOL    HW227388   6.608   3.978   1.564  0.7092  2.9762  0.7229
 3260SOL     OW27389  10.112  12.692   3.335 -0.2336 -0.0385  0.1380
 3260SOL    HW127390  10.045  12.731   3.390 -0.5536  0.2122 -0.4169
 3260SOL    HW227391  10.175  12.654   3.396 -0.7237 -0.0083  0.6666
 3261SOL     OW27392  12.690   6.311   4.612 -0.3997  0.2780 -0.3362
 3261SOL    HW127393  12.775   6.347   4.590  0.5131 -1.0792  0.8035
 3261SOL    HW227394  12.707   6.218   4.629 -2.1980 -0.1412 -0.6228
 3262SOL     OW27395   9.919  11.703   5.792 -0.0044  0.8829 -0.4572
 3262SOL    HW127396   9.897  11.610   5.797 -2.0142  1.2880 -0.7884
 3262SOL    HW227397   9.986  11.708   5.724 -0.7108 -0.2039 -1.2749
 3263SOL     OW27398   9.036  12.538  12.842 -0.7734 -0.4347 -0.2955
 3263SOL    HW127399   9.069  12.450  12.825  0.0828 -0.2375  0.2672
 3263SOL    HW227400   9.114  12.590  12.862 -1.2227  0.5524 -1.0085
 3264SOL     OW27401   0.625   4.960  13.667 -0.2973 -0.0517 -0.4135
 3264SOL    HW127402   0.550   5.004  13.627  0.7051  1.4032 -0.7862
 3264SOL    HW227403   0.675   5.031  13.707  1.4227 -0.8389 -1.0753
 3265SOL     OW27404  13.322   4.127   4.591 -0.2708  0.2789  0.1865
 3265SOL    HW127405  13.371   4.206   4.614  3.6838 -1.6629 -0.6447
 3265SOL    HW227406  13.325   4.124   4.495 -0.6524 -0.6808  0.1913
 3266SOL     OW27407  10.115   6.766   4.341  0.0169 -0.6879  0.4566
 3266SOL    HW127408  10.119   6.672   4.357  1.3539 -0.6724  0.3242
 3266SOL    HW227409  10.111   6.774   4.245  1.5653 -0.6139  0.3608
 3267SOL     OW27410   9.117   3.284   5.373 -0.2498 -0.0314 -0.0798
 3267SOL    HW127411   9.157   3.255   5.455 -1.1651 -0.5148  0.2196
 3267SOL    HW227412   9.183   3.338   5.331 -0.0080  0.7897  1.3002
 3268SOL     OW27413   0.054  10.932  10.317 -0.4649  0.3799 -0.0465
 3268SOL    HW127414  -0.041  10.943  10.307 -0.5176 -0.5308 -0.7048
 3268SOL    HW227415   0.084  10.906  10.230  0.4064  0.7065  0.1483
 3269SOL     OW27416  11.290  13.663  12.490 -0.1773 -0.2865 -0.0097
 3269SOL    HW127417  11.202  13.691  12.464 -0.3359 -0.7812 -0.0269
 3269SOL    HW227418  11.283  13.644  12.584  0.0414  0.1618  0.0997
 3270SOL     OW27419  12.468  12.706   3.801 -0.4940  0.2480  0.6288
 3270SOL    HW127420  12.500  12.723   3.712  3.4121  0.5171  1.9246
 3270SOL    HW227421  12.472  12.611   3.809  0.8937  0.3311  1.0573
 3271SOL     OW27422  14.000   0.747   5.243 -0.1133 -0.2820 -0.4829
 3271SOL    HW127423  14.088   0.782   5.250 -0.0168 -0.2841 -1.5402
 3271SOL    HW227424  14.012   0.655   5.217 -0.4234  0.0217 -1.7992
 3272SOL     OW27425  13.687   6.508   3.243 -0.7034 -0.1783 -0.0646
 3272SOL    HW127426  13.599   6.475   3.259  0.4365 -3.0791  0.8491
 3272SOL    HW227427  13.695   6.509   3.147 -1.5500 -0.3786 -0.1447
 3273SOL     OW27428  11.881  10.587   3.905 -0.4766  0.0784  0.5580
 3273SOL    HW127429  11.966  10.619   3.875 -0.8384  1.7471  1.1963
 3273SOL    HW227430  11.821  10.660   3.888 -1.9203 -1.2564 -0.4050
 3274SOL     OW27431  13.671   8.156   1.154  0.0258 -0.2557 -0.0956
 3274SOL    HW127432  13.656   8.134   1.062  1.0947 -1.1800 -0.0803
 3274SOL    HW227433  13.650   8.249   1.160  1.1378  0.1357 -1.5704
 3275SOL     OW27434   1.828  10.706   3.198  0.0259  0.1382  0.1769
 3275SOL    HW127435   1.859  10.769   3.133  0.4437 -0.2728 -0.0300
 3275SOL    HW227436   1.806  10.759   3.275 -0.1519  0.5904 -0.1806
 3276SOL     OW27437   8.559   2.054   7.950  0.1552  0.1024 -0.2918
 3276SOL    HW127438   8.595   1.968   7.925 -1.5987 -1.4038  1.9458
 3276SOL    HW227439   8.497   2.075   7.880 -1.4684 -1.8905  0.4502
 3277SOL     OW27440  11.975   9.684  12.861 -0.1744  0.1344  0.3310
 3277SOL    HW127441  12.021   9.736  12.928 -0.8449  1.0461  0.1073
 3277SOL    HW227442  11.951   9.604  12.907  1.3041 -0.2174  0.5535
 3278SOL     OW27443   7.054  10.922   6.056  0.3825 -0.4845 -0.0930
 3278SOL    HW127444   7.017  10.936   6.144 -0.6373 -0.8143 -0.4516
 3278SOL    HW227445   7.047  10.828   6.042  1.9989 -0.6444  0.0831
 3279SOL     OW27446   3.473   9.582   9.348 -0.6375  0.7352  0.3654
 3279SOL    HW127447   3.385   9.547   9.363 -0.8630  1.2199  0.1857
 3279SOL    HW227448   3.515   9.516   9.293 -1.1664  0.9007 -0.2426
 3280SOL     OW27449   1.302   2.402   4.529  0.2003 -0.2812  0.0615
 3280SOL    HW127450   1.341   2.413   4.616  0.6406 -0.3861 -0.1212
 3280SOL    HW227451   1.277   2.491   4.503 -0.2934 -0.2954  0.4549
 3281SOL     OW27452   3.009   1.306   9.517  0.7190 -0.2978 -0.1706
 3281SOL    HW127453   3.018   1.390   9.563  0.4395  0.3244 -1.2283
 3281SOL    HW227454   3.098   1.271   9.515  1.4430  1.4265 -2.3782
 3282SOL     OW27455   4.528  13.571  10.083 -0.0892 -0.0749  0.3076
 3282SOL    HW127456   4.578  13.604  10.158 -2.2685  0.4312  1.6222
 3282SOL    HW227457   4.500  13.649  10.036 -0.1143 -0.3337 -0.1134
 3283SOL     OW27458   5.847   2.002   8.045  0.4800 -0.6212  0.4091
 3283SOL    HW127459   5.859   2.073   8.108  0.3783 -1.7826  1.7893
 3283SOL    HW227460   5.897   2.030   7.968  2.0478  0.0886  1.6132
 3284SOL     OW27461   2.245  10.332   4.746 -0.1089  0.3511  0.0911
 3284SOL    HW127462   2.163  10.283   4.757  0.0653 -0.1893 -0.9253
 3284SOL    HW227463   2.312  10.265   4.734 -0.0057  0.7773 -2.2897
 3285SOL     OW27464   6.895  12.158  11.241  0.1904 -0.6256  0.3628
 3285SOL    HW127465   6.908  12.131  11.150 -1.9042 -1.1896  0.1626
 3285SOL    HW227466   6.956  12.103  11.291  1.5605 -0.1195 -0.6979
 3286SOL     OW27467  11.262   5.070   6.387 -0.0598 -0.3183  0.0762
 3286SOL    HW127468  11.312   5.151   6.381 -1.3346  0.5007  0.2050
 3286SOL    HW227469  11.266   5.032   6.299  0.7459 -0.2554  0.0795
 3287SOL     OW27470  13.831   5.688   8.202 -0.2731  0.0829 -0.0276
 3287SOL    HW127471  13.809   5.626   8.272 -0.6772 -0.5325 -0.6806
 3287SOL    HW227472  13.761   5.677   8.138  0.4635  0.1227 -0.8534
 3288SOL     OW27473  12.338  10.731   8.030  0.5179 -0.6849 -0.6752
 3288SOL    HW127474  12.431  10.756   8.031  0.5972 -0.5208  3.5457
 3288SOL    HW227475  12.291  10.813   8.015  1.0362 -0.2129  0.2159
 3289SOL     OW27476   6.204   6.212   0.061  0.1870  0.0639  0.0083
 3289SOL    HW127477   6.172   6.223   0.151  2.3297 -0.5534  0.8957
 3289SOL    HW227478   6.176   6.124   0.036  0.1016  0.0160  0.2716
 3290SOL     OW27479  10.795   3.046  13.338  0.2993  0.1681 -0.0872
 3290SOL    HW127480  10.747   3.089  13.267 -0.0423 -1.6178 -0.9955
 3290SOL    HW227481  10.771   2.954  13.331  1.2245 -0.2468  1.6011
 3291SOL     OW27482  12.509   1.500  11.166 -0.3041  0.3027  0.2504
 3291SOL    HW127483  12.527   1.438  11.236 -1.3308 -0.8547 -0.4788
 3291SOL    HW227484  12.568   1.574  11.184  1.2773 -1.0512  0.8750
 3292SOL     OW27485   8.553   1.991   6.770 -0.3454 -0.1495 -0.5654
 3292SOL    HW127486   8.617   2.025   6.707  0.4603 -1.3553 -0.4353
 3292SOL    HW227487   8.473   1.979   6.720  0.1421 -0.6177 -1.2474
 3293SOL     OW27488   1.212  10.500  12.135  0.8106 -0.1534  0.2041
 3293SOL    HW127489   1.185  10.577  12.185 -3.3676  0.0872 -1.9731
 3293SOL    HW227490   1.210  10.429  12.199 -0.9306  0.6857  1.1550
 3294SOL     OW27491   6.910   0.872   4.080 -0.2323  0.7628  0.7189
 3294SOL    HW127492   6.834   0.866   4.138 -0.3259  0.2159  0.5472
 3294SOL    HW227493   6.889   0.943   4.019 -0.9905  0.0559  0.1278
 3295SOL     OW27494  13.224  12.183   0.374 -0.3132 -0.3929  0.5759
 3295SOL    HW127495  13.224  12.235   0.454  4.0261  2.1549 -0.7380
 3295SOL    HW227496  13.195  12.243   0.306 -0.4875 -1.3985 -0.2591
 3296SOL     OW27497   9.285   6.813   8.535 -0.1831  0.2329  0.0209
 3296SOL    HW127498   9.192   6.794   8.550 -0.4478  1.9783  0.8566
 3296SOL    HW227499   9.287   6.906   8.510  1.2538 -0.0464 -1.0782
 3297SOL     OW27500   7.987   3.299   2.923 -0.1799  0.0394  0.0959
 3297SOL    HW127501   7.974   3.341   2.838 -2.3782 -0.1243  0.3000
 3297SOL    HW227502   8.074   3.328   2.951  0.0566  1.1109 -1.6233
 3298SOL     OW27503   8.933  13.346   4.792 -0.0080  0.1208  0.0541
 3298SOL    HW127504   9.014  13.396   4.799  0.9686 -1.0471 -1.9774
 3298SOL    HW227505   8.941  13.278   4.859  0.7095  0.0262 -0.1144
 3299SOL     OW27506  12.406  13.103   8.374 -0.4779 -0.7859  0.0061
 3299SOL    HW127507  12.331  13.157   8.349 -1.1652 -1.2261  1.0312
 3299SOL    HW227508  12.456  13.157   8.435 -0.7392 -1.0082  0.4215
 3300SOL     OW27509   9.237  13.339   2.858 -0.8922 -0.2046  0.1084
 3300SOL    HW127510   9.194  13.425   2.858 -0.0808  0.2551  2.3956
 3300SOL    HW227511   9.264  13.326   2.948  3.4643 -0.6106 -1.0333
 3301SOL     OW27512   3.049  12.125  13.971  0.1714  0.3215 -0.0438
 3301SOL    HW127513   2.994  12.197  14.001 -0.7421 -0.5853  0.5268
 3301SOL    HW227514   3.135  12.164  13.958  0.8168  0.8181  4.1227
 3302SOL     OW27515  10.909   9.015  13.706  0.2529 -0.3145  0.2439
 3302SOL    HW127516  10.973   8.943  13.710  0.3667 -0.2131  0.2703
 3302SOL    HW227517  10.957   9.091  13.738  0.4498  0.0034 -0.7696
 3303SOL     OW27518   7.625   5.842  12.603 -0.4706  0.4332 -0.2972
 3303SOL    HW127519   7.673   5.819  12.523 -1.3540 -0.8520 -0.4897
 3303SOL    HW227520   7.640   5.935  12.614  1.8182  0.1389 -0.5068
 3304SOL     OW27521   0.833   7.899  13.948  0.3105 -0.2643  0.8869
 3304SOL    HW127522   0.908   7.956  13.928 -0.7666  0.8274 -0.2563
 3304SOL    HW227523   0.831   7.837  13.875 -1.1457  1.1044 -0.3371
 3305SOL     OW27524   3.290   7.372   3.107  0.1316  0.2442  0.3938
 3305SOL    HW127525   3.254   7.401   3.023  0.6623 -0.4497 -0.0917
 3305SOL    HW227526   3.362   7.313   3.083 -0.0376 -0.3705  1.3360
 3306SOL     OW27527  11.247   0.357   3.069 -0.4237 -0.1209  0.2677
 3306SOL    HW127528  11.184   0.411   3.020 -0.3226 -0.4125 -0.1842
 3306SOL    HW227529  11.199   0.277   3.089  0.1406 -0.8077 -1.0347
 3307SOL     OW27530   7.227  11.213   6.841 -0.0529  0.1454  0.2180
 3307SOL    HW127531   7.305  11.268   6.828  0.6814 -0.7488  0.7241
 3307SOL    HW227532   7.168  11.268   6.892  0.7139  0.4546  0.8095
 3308SOL     OW27533   8.335  12.501   0.477 -0.0436  0.2447  0.6859
 3308SOL    HW127534   8.407  12.454   0.520 -0.8145 -0.1016  1.6319
 3308SOL    HW227535   8.258  12.448   0.495 -0.4641  0.2999 -0.8211
 3309SOL     OW27536   2.280  10.136   9.989  0.1070 -0.1479  0.1016
 3309SOL    HW127537   2.364  10.167  10.024 -1.4055  3.6996  0.8691
 3309SOL    HW227538   2.230  10.112  10.067 -0.5658  0.6889 -0.0654
 3310SOL     OW27539  13.462   8.058  10.922  0.1848  0.6184 -0.2803
 3310SOL    HW127540  13.453   8.025  10.832  1.4169  1.5898 -0.7976
 3310SOL    HW227541  13.393   8.014  10.971 -0.6353  0.2026 -1.7447
 3311SOL     OW27542   6.423   3.775  13.412  0.1846  0.1557  0.1805
 3311SOL    HW127543   6.330   3.795  13.403  0.7416  2.5477 -1.4648
 3311SOL    HW227544   6.438   3.701  13.354 -0.7093 -0.4274  0.6725
 3312SOL     OW27545   7.876   8.350  13.499 -0.1786  0.2573  0.4671
 3312SOL    HW127546   7.858   8.433  13.543 -0.8363  0.3140  0.1142
 3312SOL    HW227547   7.815   8.288  13.540  0.5248 -0.1268  0.9449
 3313SOL     OW27548  10.814   4.503  11.560 -0.0574  0.2819  0.2001
 3313SOL    HW127549  10.890   4.527  11.508 -0.1411  1.3764  0.5562
 3313SOL    HW227550  10.843   4.430  11.614  0.8677  0.9266  0.5988
 3314SOL     OW27551   0.406   9.338   3.090  0.4824  0.3766 -0.0037
 3314SOL    HW127552   0.450   9.296   3.016  0.0295  0.7687 -0.5081
 3314SOL    HW227553   0.430   9.286   3.166  1.2974  0.2128 -0.3696
 3315SOL     OW27554  10.845   7.331  11.749  0.4087  0.4566 -0.4439
 3315SOL    HW127555  10.907   7.263  11.723  0.4827  0.6470 -0.7600
 3315SOL    HW227556  10.784   7.338  11.676 -0.3765 -0.1796  0.1301
 3316SOL     OW27557  11.468  13.787  11.628  0.0769 -0.5713  0.2404
 3316SOL    HW127558  11.419  13.814  11.706 -0.1210 -0.7339  0.1725
 3316SOL    HW227559  11.443  13.850  11.561 -1.5262 -1.7666 -0.3357
 3317SOL     OW27560   4.141   3.114   9.965  0.0802 -0.2927  0.8140
 3317SOL    HW127561   4.081   3.163   9.909 -0.9600 -1.7579  0.5912
 3317SOL    HW227562   4.216   3.094   9.908 -0.0354 -0.0104  0.5588
 3318SOL     OW27563   1.633   3.575   4.462 -0.6058 -0.3738  0.0162
 3318SOL    HW127564   1.599   3.485   4.453  1.7408 -1.1863 -1.8565
 3318SOL    HW227565   1.712   3.576   4.408  0.3544  2.3970  1.2940
 3319SOL     OW27566  12.161  12.572   7.842 -1.0432 -0.1105  0.1577
 3319SOL    HW127567  12.171  12.632   7.916 -2.5807  0.6383 -0.2076
 3319SOL    HW227568  12.180  12.486   7.879  1.3173  0.5559  0.6660
 3320SOL     OW27569   1.021  13.476   3.125  0.6793 -0.1305  0.1021
 3320SOL    HW127570   0.930  13.502   3.106  0.1487 -0.7149  1.7006
 3320SOL    HW227571   1.073  13.553   3.103 -0.0748 -0.0804 -1.6862
 3321SOL     OW27572   8.483   7.172   0.140  0.0073  0.8042  0.0767
 3321SOL    HW127573   8.402   7.152   0.187  0.3239 -1.0860 -0.1066
 3321SOL    HW227574   8.549   7.117   0.182  0.5533 -0.0183 -1.7468
 3322SOL     OW27575   9.228  11.303   6.153  0.0049 -0.3137  0.5680
 3322SOL    HW127576   9.315  11.320   6.188 -0.0080 -2.4019  1.7523
 3322SOL    HW227577   9.169  11.349   6.212  0.2631  1.0244 -0.1792
 3323SOL     OW27578  10.691   9.960   9.446 -0.4265 -0.4489  0.2025
 3323SOL    HW127579  10.743   9.909   9.384  0.5764  2.6007 -1.6575
 3323SOL    HW227580  10.603   9.961   9.407  0.3697  2.1356 -1.8674
 3324SOL     OW27581   4.855   5.672  12.881  0.0487  0.1212  0.3170
 3324SOL    HW127582   4.947   5.676  12.855  0.1397  0.1509  0.6393
 3324SOL    HW227583   4.810   5.732  12.822  0.2727  0.2818  0.3101
 3325SOL     OW27584  11.922   0.364   7.997 -0.1097  0.0957 -0.0996
 3325SOL    HW127585  11.848   0.315   7.961  0.5801 -1.3521  0.3290
 3325SOL    HW227586  11.998   0.328   7.951  0.5428 -0.1182  1.0948
 3326SOL     OW27587  11.667   7.342   6.629 -0.6608  0.3187  0.1205
 3326SOL    HW127588  11.655   7.434   6.604 -1.6215  0.0070 -0.6260
 3326SOL    HW227589  11.606   7.294   6.572  1.0357 -0.9458 -0.6987
 3327SOL     OW27590   4.461  12.385   7.041  0.4114  0.3783 -0.0957
 3327SOL    HW127591   4.460  12.302   6.993  0.0673 -0.4206  1.2523
 3327SOL    HW227592   4.514  12.368   7.118 -1.4414  0.7181  1.3356
 3328SOL     OW27593   9.917  10.556   3.510  0.1455  0.0618 -0.4589
 3328SOL    HW127594   9.908  10.633   3.454  0.0302  1.7196  1.6822
 3328SOL    HW227595  10.006  10.525   3.495  0.7053  1.5238 -0.3478
 3329SOL     OW27596   8.331   6.777   3.495  0.3179 -0.6116  0.4945
 3329SOL    HW127597   8.355   6.817   3.578 -1.4156  0.3411  0.5842
 3329SOL    HW227598   8.390   6.702   3.486  0.8937 -0.4173  2.3131
 3330SOL     OW27599  13.628   9.084   5.211 -0.1258  0.2152 -0.0373
 3330SOL    HW127600  13.629   9.123   5.123 -1.0869 -0.9242 -0.5851
 3330SOL    HW227601  13.538   9.055   5.223  0.1262 -0.1393  1.1166
 3331SOL     OW27602   3.114   3.231   7.493  0.1265 -0.0262  0.0253
 3331SOL    HW127603   3.092   3.303   7.434 -0.3029  1.5830  2.0397
 3331SOL    HW227604   3.053   3.240   7.566  1.2459 -1.3614  1.1882
 3332SOL     OW27605   9.885   8.937   2.127 -0.0872  1.3047  0.7131
 3332SOL    HW127606   9.901   8.926   2.033  0.2447 -0.3511  0.9342
 3332SOL    HW227607   9.961   8.987   2.158  0.5625  0.5707  0.3509
 3333SOL     OW27608   8.171   0.681  11.650  0.1372  0.3939  0.1641
 3333SOL    HW127609   8.144   0.705  11.739  1.4538  1.1415  0.3876
 3333SOL    HW227610   8.230   0.751  11.623  0.2833 -0.1773 -1.0479
 3334SOL     OW27611   6.613   3.307   2.419  0.4964  0.3040  0.1877
 3334SOL    HW127612   6.668   3.352   2.355  0.8077 -0.1326  0.1427
 3334SOL    HW227613   6.527   3.301   2.377  1.1470 -1.6181 -0.9828
 3335SOL     OW27614  13.390  10.128   1.519  0.0989  0.4677  0.3560
 3335SOL    HW127615  13.321  10.083   1.569 -1.7442  2.3971 -0.2844
 3335SOL    HW227616  13.416  10.064   1.452 -3.5551  0.6871 -1.5340
 3336SOL     OW27617   4.446   5.061   8.820 -0.1039 -0.3743 -0.4300
 3336SOL    HW127618   4.368   5.016   8.788 -1.1385  1.9507 -1.4144
 3336SOL    HW227619   4.439   5.149   8.784  2.0479  0.4620  1.0027
 3337SOL     OW27620  13.055   5.148   7.371 -0.3671 -0.8770 -0.5421
 3337SOL    HW127621  13.019   5.228   7.333  0.4685 -0.6697 -0.9337
 3337SOL    HW227622  13.063   5.167   7.464  1.4878  0.2006 -0.8602
 3338SOL     OW27623   3.705   0.740  10.798  0.0028  0.3105  0.0438
 3338SOL    HW127624   3.781   0.768  10.746  1.3961  0.1265  1.8689
 3338SOL    HW227625   3.704   0.645  10.790 -1.4450  0.4306 -1.7759
 3339SOL     OW27626  11.071   9.656   2.391 -0.0637 -0.3247  0.1697
 3339SOL    HW127627  11.017   9.683   2.317  0.7483  1.7017  0.2553
 3339SOL    HW227628  11.009   9.619   2.454 -0.8718 -1.2579 -1.1281
 3340SOL     OW27629   8.628  10.197   2.523 -0.0999 -0.2483  0.2666
 3340SOL    HW127630   8.679  10.149   2.589  0.0740 -1.2120 -0.5426
 3340SOL    HW227631   8.689  10.262   2.488 -0.2065  0.2924  1.0733
 3341SOL     OW27632   2.579   0.487  10.229  0.5014  0.3093  0.6771
 3341SOL    HW127633   2.535   0.430  10.292 -0.0972 -1.7828 -1.4685
 3341SOL    HW227634   2.563   0.445  10.144  1.8543  2.5915 -0.8072
 3342SOL     OW27635  10.490   5.179   4.069  0.3705  0.0581 -0.2305
 3342SOL    HW127636  10.412   5.131   4.042  1.1227 -2.4297  1.6159
 3342SOL    HW227637  10.489   5.259   4.016 -3.0229 -0.1757 -0.7430
 3343SOL     OW27638   8.405   5.227   1.728  0.2279  0.3498 -0.1444
 3343SOL    HW127639   8.331   5.171   1.705  0.6800 -0.7749  0.9894
 3343SOL    HW227640   8.437   5.261   1.644 -0.1370 -1.0213 -0.8779
 3344SOL     OW27641   9.341  11.201   0.104 -0.2274  0.0178  0.1610
 3344SOL    HW127642   9.371  11.289   0.082 -0.6239  0.1775  0.2402
 3344SOL    HW227643   9.403  11.143   0.062  1.1497  0.3301  1.6457
 3345SOL     OW27644   1.524   1.700   0.956  0.2685 -0.3199 -0.3154
 3345SOL    HW127645   1.511   1.686   0.862  1.4178 -0.7989 -0.4175
 3345SOL    HW227646   1.575   1.625   0.985  0.9822  0.4245  0.4378
 3346SOL     OW27647  13.937   2.186   3.613 -0.2237 -0.4926  0.2282
 3346SOL    HW127648  14.029   2.172   3.592 -0.0551  0.8851 -0.0463
 3346SOL    HW227649  13.892   2.181   3.529  0.0654  2.0768 -0.1610
 3347SOL     OW27650   4.150  11.602  13.945 -0.2366 -0.1318 -0.1584
 3347SOL    HW127651   4.114  11.641  14.024 -1.8510 -0.5212 -0.6577
 3347SOL    HW227652   4.180  11.677  13.893  1.9252  0.0724  1.2506
 3348SOL     OW27653  12.725   5.106  13.036  0.5750 -0.0684 -0.9467
 3348SOL    HW127654  12.725   5.125  13.130  2.0159 -1.6044 -0.5865
 3348SOL    HW227655  12.636   5.124  13.008  0.1281  0.4684  0.7064
 3349SOL     OW27656   0.642   1.470   1.949  0.1909 -0.0249  0.2629
 3349SOL    HW127657   0.637   1.557   1.909  0.1439  0.0422  0.4139
 3349SOL    HW227658   0.729   1.438   1.925  0.0894 -0.0663 -0.0582
 3350SOL     OW27659  10.512  11.182  12.546 -0.0964  0.3020 -0.2528
 3350SOL    HW127660  10.541  11.176  12.455  0.4756 -0.3593 -0.0408
 3350SOL    HW227661  10.456  11.105  12.559  0.7836 -0.2732  0.2689
 3351SOL     OW27662   2.785   7.605  10.553 -0.1390  0.3196 -0.7999
 3351SOL    HW127663   2.854   7.583  10.616 -0.1648  0.4846 -0.7107
 3351SOL    HW227664   2.703   7.595  10.603 -0.1379  0.8592 -0.6790
 3352SOL     OW27665   9.947  10.670  11.685 -0.3966 -0.7594  0.2700
 3352SOL    HW127666   9.882  10.626  11.741 -0.5084 -0.6319  0.2403
 3352SOL    HW227667   9.895  10.728  11.629 -0.2833 -0.8740  0.0458
 3353SOL     OW27668   9.400   6.689   3.688 -0.1410  0.1088  0.1573
 3353SOL    HW127669   9.367   6.776   3.712  0.1054 -0.0804  1.2271
 3353SOL    HW227670   9.494   6.694   3.703  0.0179 -0.0435 -0.7517
 3354SOL     OW27671   9.507   7.931   2.032 -0.1512 -0.3141  0.0259
 3354SOL    HW127672   9.600   7.950   2.024 -0.3807  0.4463 -0.9523
 3354SOL    HW227673   9.485   7.954   2.123  0.5051 -0.0665  0.1238
 3355SOL     OW27674   4.063   1.490  10.089 -0.4921 -0.6742  0.4251
 3355SOL    HW127675   4.095   1.580  10.096 -1.8232 -0.2482  1.7926
 3355SOL    HW227676   4.124   1.438  10.141  0.9457 -0.7979 -1.3086
 3356SOL     OW27677   5.977   1.712  10.776  0.5032  0.1532 -0.5892
 3356SOL    HW127678   6.069   1.736  10.765  0.6427 -0.4079 -0.6866
 3356SOL    HW227679   5.951   1.676  10.692  0.1414  0.4682 -0.6147
 3357SOL     OW27680   9.044   6.583   6.154 -0.1100  0.4653  0.4680
 3357SOL    HW127681   9.078   6.571   6.243  0.7106  2.2292  0.4488
 3357SOL    HW227682   9.062   6.501   6.109 -0.9286 -0.6266  2.0285
 3358SOL     OW27683  13.547   4.077   4.304  0.3833 -0.5986 -0.2238
 3358SOL    HW127684  13.458   4.110   4.294  0.4935 -0.2754 -0.1298
 3358SOL    HW227685  13.572   4.048   4.216  0.5794  0.3084 -0.4729
 3359SOL     OW27686  13.747  13.120   1.556 -0.1607 -0.4169 -0.6847
 3359SOL    HW127687  13.733  13.112   1.650  0.7743 -0.7805 -0.5682
 3359SOL    HW227688  13.748  13.030   1.523 -0.2356 -0.3055 -0.9973
 3360SOL     OW27689   8.383   1.950   8.362  0.5538  0.0888 -0.0006
 3360SOL    HW127690   8.455   2.005   8.329  0.8151  0.7624  1.6321
 3360SOL    HW227691   8.345   1.912   8.283  0.7227  2.1812 -1.1685
 3361SOL     OW27692   2.639   3.654   1.226  0.8862 -0.5983  0.1212
 3361SOL    HW127693   2.715   3.607   1.261  0.8059 -1.9199 -1.3794
 3361SOL    HW227694   2.570   3.588   1.221  0.6474 -0.2767 -1.6544
 3362SOL     OW27695   0.176  13.081  10.896 -0.2689  0.5003 -0.1485
 3362SOL    HW127696   0.107  13.148  10.894 -2.0108 -1.2267 -0.5361
 3362SOL    HW227697   0.191  13.060  10.804 -2.1757 -1.9275 -0.0166
 3363SOL     OW27698   2.466   7.334   5.068 -0.0518 -0.3087  0.5137
 3363SOL    HW127699   2.434   7.349   4.979 -1.5368 -0.5984  0.9735
 3363SOL    HW227700   2.405   7.270   5.105 -1.6437  2.3946  2.9267
 3364SOL     OW27701  13.592   9.782  11.100 -0.6362  0.2261 -0.4446
 3364SOL    HW127702  13.666   9.839  11.118 -0.5247  0.0255 -0.2681
 3364SOL    HW227703  13.611   9.702  11.148 -1.4692  0.5487  0.4397
 3365SOL     OW27704  11.414  10.452  14.070 -0.0125 -0.0258  0.1879
 3365SOL    HW127705  11.340  10.448  14.009 -0.6044 -1.5367  0.9760
 3365SOL    HW227706  11.404  10.538  14.113 -0.7057  0.2249 -0.4436
 3366SOL     OW27707   8.073   9.747   4.874 -0.1183 -0.4016 -0.3335
 3366SOL    HW127708   7.984   9.713   4.871 -0.3461  0.2035 -0.4892
 3366SOL    HW227709   8.107   9.718   4.959 -0.7308  0.0326  0.0672
 3367SOL     OW27710  13.664   0.393  13.598  0.1590 -0.1703  0.2549
 3367SOL    HW127711  13.577   0.355  13.612 -1.5695  1.9361 -3.3624
 3367SOL    HW227712  13.705   0.336  13.533  1.1514 -0.5528  1.1699
 3368SOL     OW27713  13.884   0.873   3.130 -0.1654 -0.0989 -0.0976
 3368SOL    HW127714  13.811   0.911   3.180  0.1727  0.0448  0.2865
 3368SOL    HW227715  13.930   0.947   3.093  0.0700 -0.1676  0.0568
 3369SOL     OW27716   3.429   8.172   0.098  0.2642  0.7391  0.6117
 3369SOL    HW127717   3.447   8.080   0.078 -0.3431  0.0731  2.8753
 3369SOL    HW227718   3.366   8.200   0.031  1.7216  0.0694 -1.1285
 3370SOL     OW27719   2.804   6.500  10.713  0.5788  0.0516  0.4229
 3370SOL    HW127720   2.833   6.443  10.642 -1.3860  0.7042 -1.0187
 3370SOL    HW227721   2.883   6.545  10.742  1.8394 -2.0046  0.3348
 3371SOL     OW27722   4.259   1.383  10.268  0.1732 -0.3616 -0.5929
 3371SOL    HW127723   4.237   1.341  10.351 -0.4776 -0.2966 -0.7287
 3371SOL    HW227724   4.311   1.317  10.222  0.6718 -0.3387 -0.0780
 3372SOL     OW27725   3.069   9.727  11.874 -0.0356 -0.6785  0.1859
 3372SOL    HW127726   3.134   9.669  11.835 -0.7047 -1.3802  0.0741
 3372SOL    HW227727   3.019   9.761  11.800  0.3319  0.0210  0.2554
 3373SOL     OW27728   4.277  13.053   4.747 -0.2296  0.6108  0.4789
 3373SOL    HW127729   4.254  13.133   4.701 -0.5329  0.5180  0.4650
 3373SOL    HW227730   4.290  12.988   4.678  1.6310  1.0344  0.3923
 3374SOL     OW27731  13.019   4.517  10.645  0.8795  0.7675 -0.7420
 3374SOL    HW127732  13.004   4.437  10.594  2.2079  1.1005 -1.7278
 3374SOL    HW227733  12.969   4.504  10.725  0.7495 -0.8884 -1.0507
 3375SOL     OW27734   5.740   9.840   4.276 -0.1979 -0.7784  0.2416
 3375SOL    HW127735   5.670   9.819   4.214 -0.4665  1.4122 -0.3010
 3375SOL    HW227736   5.821   9.832   4.225 -0.2102 -1.3330  0.3039
 3376SOL     OW27737  13.467   8.411   9.551 -0.4150  0.4298  0.2072
 3376SOL    HW127738  13.462   8.505   9.531  1.2599  1.0638  2.2832
 3376SOL    HW227739  13.452   8.407   9.646  1.5776 -1.1213  0.5241
 3377SOL     OW27740   4.101   2.044   4.449 -0.2496 -0.7092  0.5917
 3377SOL    HW127741   4.116   2.131   4.412  1.2070 -0.5716  1.4533
 3377SOL    HW227742   4.128   2.051   4.541  1.4122 -2.4680  0.3022
 3378SOL     OW27743  10.299   1.639   6.543 -0.0852  0.4360  0.0830
 3378SOL    HW127744  10.368   1.574   6.529  0.7008  1.0830  0.7663
 3378SOL    HW227745  10.329   1.689   6.620  0.0083  2.4397 -1.1691
 3379SOL     OW27746   4.604   7.331  13.662  0.3561  0.6696 -0.4563
 3379SOL    HW127747   4.653   7.395  13.610  1.0424  0.8359  0.3738
 3379SOL    HW227748   4.608   7.250  13.610  1.4455  0.7015 -0.4492
 3380SOL     OW27749   2.284  12.946  12.036  0.3228 -0.1889 -0.2706
 3380SOL    HW127750   2.279  12.866  11.983  0.4651  0.1187 -0.7572
 3380SOL    HW227751   2.281  13.017  11.972 -0.9243  0.2300  0.2124
 3381SOL     OW27752   2.198   9.595   9.487  0.5560 -0.3737 -0.6402
 3381SOL    HW127753   2.128   9.580   9.552 -1.3041 -1.6778 -2.7835
 3381SOL    HW227754   2.236   9.679   9.512 -2.1413  0.6639  0.3589
 3382SOL     OW27755   1.695  13.799  11.274  0.1395  0.0258 -0.0406
 3382SOL    HW127756   1.607  13.834  11.258 -1.9998 -3.3090  2.9769
 3382SOL    HW227757   1.699  13.719  11.222 -0.5870 -2.2695  3.1787
 3383SOL     OW27758   4.387  11.270   2.383 -0.4916 -0.0269 -0.2928
 3383SOL    HW127759   4.321  11.309   2.440 -0.8300 -0.8416 -0.1145
 3383SOL    HW227760   4.466  11.322   2.399 -1.3571  1.7483 -1.4071
 3384SOL     OW27761  11.459   1.645  13.427 -0.1393 -0.5393  0.2010
 3384SOL    HW127762  11.454   1.732  13.466 -1.3513 -1.3996  2.1071
 3384SOL    HW227763  11.379   1.601  13.456  0.8914 -2.6114  0.0769
 3385SOL     OW27764  10.095   4.981  10.460 -0.3660  0.2750  0.1133
 3385SOL    HW127765  10.171   5.004  10.513  0.5500 -0.0469 -1.0347
 3385SOL    HW227766  10.021   4.989  10.521  0.4702  1.3661  1.0461
 3386SOL     OW27767  13.005  12.179   9.998  0.1756  0.0618  0.4183
 3386SOL    HW127768  12.921  12.133   9.994 -0.7282  1.3579  2.7725
 3386SOL    HW227769  13.069  12.113   9.972 -1.5631 -0.7780 -2.1376
 3387SOL     OW27770   8.753   4.192  11.501 -0.5207  0.4237  0.4666
 3387SOL    HW127771   8.804   4.259  11.455  0.1572 -0.6309 -0.3545
 3387SOL    HW227772   8.812   4.158  11.567 -0.2311 -0.5743 -0.2749
 3388SOL     OW27773   0.164   8.581   3.457  0.0629  0.1797  0.1366
 3388SOL    HW127774   0.198   8.610   3.541  1.4742 -0.7690 -0.0763
 3388SOL    HW227775   0.097   8.647   3.434 -0.3976  0.4081  1.9932
 3389SOL     OW27776  11.148  11.586  10.560 -0.4727 -0.9334 -0.4546
 3389SOL    HW127777  11.205  11.534  10.504  0.4653 -0.1610 -0.2440
 3389SOL    HW227778  11.119  11.524  10.628  2.3967 -0.7485  1.0958
 3390SOL     OW27779   3.245  13.089  10.666  0.5069 -0.2393  0.0040
 3390SOL    HW127780   3.274  13.030  10.596  0.0705  1.9551 -2.1807
 3390SOL    HW227781   3.150  13.077  10.668  0.5615 -0.6334  0.5994
 3391SOL     OW27782  12.497   0.927   1.587  0.1754  0.3767 -0.0193
 3391SOL    HW127783  12.518   0.843   1.547 -0.0575 -0.1550  0.9593
 3391SOL    HW227784  12.404   0.920   1.610  0.2739  0.7148  0.4987
 3392SOL     OW27785   3.910   3.388   5.090  0.2280  0.4681 -0.0935
 3392SOL    HW127786   3.940   3.468   5.046  1.3873  0.1141  0.0133
 3392SOL    HW227787   3.974   3.375   5.160  0.4508 -0.9263 -0.5391
 3393SOL     OW27788   6.037   0.782  12.598 -0.1908 -0.3218 -0.1117
 3393SOL    HW127789   6.008   0.868  12.567  0.6100 -0.4641 -1.3529
 3393SOL    HW227790   6.127   0.774  12.564  0.2748 -1.0437  1.2363
 3394SOL     OW27791   1.983   8.860   9.191 -0.0876  0.1209  0.3220
 3394SOL    HW127792   1.889   8.840   9.188  0.4937 -2.8779 -1.6171
 3394SOL    HW227793   2.017   8.805   9.261  0.6506 -1.3487 -1.1291
 3395SOL     OW27794   5.841  10.403   7.561  0.2711 -0.5675  0.2899
 3395SOL    HW127795   5.935  10.407   7.546  0.0721 -1.3805 -1.4297
 3395SOL    HW227796   5.831  10.335   7.628  1.0150  1.1163  2.1933
 3396SOL     OW27797   3.514   7.611   8.467  0.3412 -0.4708 -0.1675
 3396SOL    HW127798   3.507   7.522   8.500 -1.9737 -0.4967 -0.5082
 3396SOL    HW227799   3.444   7.618   8.402 -0.5264  1.9636  0.8578
 3397SOL     OW27800   2.612  11.328   5.136  0.1249  0.5025  0.5776
 3397SOL    HW127801   2.651  11.410   5.168  1.1050  0.2514  0.0717
 3397SOL    HW227802   2.674  11.260   5.161 -0.8748 -0.1601  1.3467
 3398SOL     OW27803  11.952   2.756   1.546 -0.1066  0.4321  0.1655
 3398SOL    HW127804  11.918   2.735   1.459  2.1830 -1.3897 -0.3818
 3398SOL    HW227805  11.903   2.700   1.606  0.4335 -0.6178 -0.3549
 3399SOL     OW27806  12.931   6.228  13.510  0.6394 -0.1981 -0.2936
 3399SOL    HW127807  12.865   6.168  13.544 -1.6557  1.7415 -1.0400
 3399SOL    HW227808  12.950   6.197  13.422 -0.6422  0.1981 -0.7303
 3400SOL     OW27809  10.790   7.725   2.218 -0.0555  0.5123 -0.2764
 3400SOL    HW127810  10.795   7.642   2.266  3.4442  0.4687 -0.4559
 3400SOL    HW227811  10.765   7.789   2.285  1.8618 -0.0056  1.0010
 3401SOL     OW27812  11.459  13.994   0.988 -0.2715  0.1514  0.0356
 3401SOL    HW127813  11.393  13.933   1.021 -1.2106  1.8281  1.4150
 3401SOL    HW227814  11.542  13.949   1.002 -0.8209 -0.2091  2.4807
 3402SOL     OW27815   8.032   4.016  11.543  0.6695  0.7010  0.1243
 3402SOL    HW127816   8.032   3.920  11.534 -0.0493  0.8444 -2.0934
 3402SOL    HW227817   7.940   4.041  11.529  0.6589  1.6732  1.7176
 3403SOL     OW27818  10.520   2.644   5.766 -0.2152 -0.2622  0.5894
 3403SOL    HW127819  10.603   2.611   5.801  0.3387  0.4351 -0.0322
 3403SOL    HW227820  10.543   2.727   5.723 -0.8942 -0.9619 -1.2225
 3404SOL     OW27821  14.084   8.106  12.496 -0.2215 -0.4665 -0.0293
 3404SOL    HW127822  13.995   8.115  12.530 -0.6563 -0.7555 -1.0521
 3404SOL    HW227823  14.073   8.069  12.409  0.7940  1.1560 -0.8955
 3405SOL     OW27824   8.126   6.804   2.930 -0.5970 -0.3735  0.0702
 3405SOL    HW127825   8.141   6.740   2.999  0.4772  1.0020  1.1494
 3405SOL    HW227826   8.125   6.889   2.974  1.1807  0.6531 -1.7044
 3406SOL     OW27827   1.069  12.995   9.514 -0.4031 -0.0166  0.1619
 3406SOL    HW127828   0.993  12.975   9.569 -1.3858  0.8205 -0.8333
 3406SOL    HW227829   1.065  13.090   9.502  1.1642  0.1301  0.5655
 3407SOL     OW27830   5.418   1.461  11.181 -0.2300  0.4139 -0.0038
 3407SOL    HW127831   5.439   1.518  11.256 -0.0732  0.4425 -0.0682
 3407SOL    HW227832   5.367   1.390  11.219 -0.6779  0.7476  0.0319
 3408SOL     OW27833   4.869  11.188   9.414 -0.1385  0.4733 -0.2759
 3408SOL    HW127834   4.799  11.206   9.477  0.8299  1.0527  0.6546
 3408SOL    HW227835   4.841  11.107   9.371 -0.3670 -0.4787  1.5703
 3409SOL     OW27836  12.963   1.219   7.653  0.2750  0.0571 -0.1495
 3409SOL    HW127837  13.016   1.286   7.695 -0.0094 -0.1145  0.4846
 3409SOL    HW227838  12.901   1.268   7.599 -1.0164  0.4003  1.5608
 3410SOL     OW27839   1.467  12.226  13.826 -0.6935  0.4469  0.5207
 3410SOL    HW127840   1.439  12.286  13.756 -0.8084  1.2866  1.2637
 3410SOL    HW227841   1.561  12.242  13.834 -0.1643 -1.4294 -1.0828
 3411SOL     OW27842   2.333   7.764  12.703  0.0614 -0.0976 -0.1800
 3411SOL    HW127843   2.412   7.807  12.672  0.1173  0.9903  1.3132
 3411SOL    HW227844   2.321   7.799  12.792 -2.0216 -0.2977 -0.3329
 3412SOL     OW27845   3.776  13.622   0.162  0.0791 -0.1834  0.2891
 3412SOL    HW127846   3.871  13.628   0.170 -0.0812  1.8579  1.3466
 3412SOL    HW227847   3.755  13.531   0.180  1.8312 -0.6569  0.0328
 3413SOL     OW27848  11.827   2.863   3.298  0.1743 -0.2498 -0.8035
 3413SOL    HW127849  11.770   2.790   3.320 -0.2820 -0.1125 -1.5371
 3413SOL    HW227850  11.779   2.941   3.327  0.2334 -0.1712 -0.9161
 3414SOL     OW27851  12.038  12.510  13.775 -0.4598 -0.0074 -0.3053
 3414SOL    HW127852  11.982  12.539  13.702 -0.8621 -0.4371 -0.1720
 3414SOL    HW227853  11.979  12.459  13.831 -0.1590  0.3706  0.3504
 3415SOL     OW27854   8.009   2.902   1.153  0.2484 -0.6326  0.1231
 3415SOL    HW127855   8.042   2.972   1.096  1.7128 -2.0124 -0.8275
 3415SOL    HW227856   8.060   2.911   1.233  0.2203 -0.4310  0.1193
 3416SOL     OW27857   8.813  12.639   6.005  0.1795  0.1837  0.3088
 3416SOL    HW127858   8.758  12.716   5.989  2.5027  1.5722 -1.7563
 3416SOL    HW227859   8.756  12.565   5.985 -0.8048  1.5680 -2.6132
 3417SOL     OW27860   0.693   9.425   3.330 -0.1839 -0.3238  0.6246
 3417SOL    HW127861   0.745   9.420   3.251  0.3710 -0.3791  0.9876
 3417SOL    HW227862   0.715   9.346   3.379  1.1422  0.7132  1.8280
 3418SOL     OW27863   9.597   6.218   9.850 -0.4075  0.2632 -0.1667
 3418SOL    HW127864   9.519   6.232   9.904 -0.3814  0.3170 -0.1431
 3418SOL    HW227865   9.670   6.231   9.910 -0.3936 -1.8467  0.3317
 3419SOL     OW27866   1.508  12.877  10.911  0.1863  0.5546  0.3396
 3419SOL    HW127867   1.451  12.850  10.983  0.7551 -0.2255  0.5142
 3419SOL    HW227868   1.451  12.925  10.852 -0.2543  1.3730  1.3953
 3420SOL     OW27869   8.689   2.084  13.823 -0.3843 -0.5836 -0.0422
 3420SOL    HW127870   8.671   2.018  13.756 -2.7567  0.7255 -0.8017
 3420SOL    HW227871   8.603   2.120  13.846  0.7417  1.9277  0.6433
 3421SOL     OW27872  12.066   8.489   2.620 -0.2416  0.1918  0.7344
 3421SOL    HW127873  12.060   8.398   2.589 -0.0940 -0.1201  1.5845
 3421SOL    HW227874  12.109   8.482   2.706  0.3602  1.1292  0.5246
 3422SOL     OW27875   0.356   7.933   0.630  0.0185  0.5825  0.4417
 3422SOL    HW127876   0.315   7.847   0.636 -0.4048  0.7971  0.7502
 3422SOL    HW227877   0.288   7.994   0.661  0.5705  0.9443  0.9841
 3423SOL     OW27878   8.563   9.170   3.938  0.4362  0.3322 -0.0626
 3423SOL    HW127879   8.482   9.143   3.983  0.0699 -0.2576 -1.0386
 3423SOL    HW227880   8.536   9.185   3.848  1.4960 -0.2612 -0.4937
 3424SOL     OW27881   5.739   1.235   0.178 -0.5599  0.3007  0.0605
 3424SOL    HW127882   5.806   1.292   0.216 -1.8297  0.6933  1.7919
 3424SOL    HW227883   5.769   1.146   0.199  1.5020  0.1615 -2.7747
 3425SOL     OW27884   3.253  10.432  11.697  0.2996  0.3487 -0.2432
 3425SOL    HW127885   3.314  10.501  11.670  0.3537 -0.6762 -2.9658
 3425SOL    HW227886   3.193  10.422  11.623  0.1896 -2.4209  0.1220
 3426SOL     OW27887   6.619   1.143  12.387 -0.2820 -0.0398  0.3543
 3426SOL    HW127888   6.562   1.215  12.359  1.2411  1.8541  1.8905
 3426SOL    HW227889   6.564   1.089  12.443 -1.5334 -0.3153 -1.0605
 3427SOL     OW27890   2.095   5.496   5.066  0.5650 -0.0242 -0.2677
 3427SOL    HW127891   2.031   5.441   5.110  1.1395 -0.5786 -0.0981
 3427SOL    HW227892   2.160   5.434   5.032 -0.0102  0.3470 -2.1712
 3428SOL     OW27893  10.493   4.598   0.486  0.1522  0.0320 -0.2856
 3428SOL    HW127894  10.494   4.677   0.540  0.0029  0.2580 -0.6095
 3428SOL    HW227895  10.579   4.597   0.444  0.3732 -0.2910  0.1577
 3429SOL     OW27896   1.363  10.640   7.245  0.3775  0.3981  0.9929
 3429SOL    HW127897   1.389  10.700   7.175  1.3282  0.3465  1.2938
 3429SOL    HW227898   1.374  10.690   7.326 -1.3325  0.6687  1.0914
 3430SOL     OW27899   1.223   7.352   6.800 -0.0763 -0.4802 -0.3180
 3430SOL    HW127900   1.211   7.421   6.865  2.6826  1.9631 -2.1785
 3430SOL    HW227901   1.260   7.279   6.850  1.6049  1.1770  1.0057
 3431SOL     OW27902  11.537  10.645   8.762 -0.0988 -0.3083  0.1616
 3431SOL    HW127903  11.524  10.647   8.667 -0.0995  0.6236  0.1712
 3431SOL    HW227904  11.610  10.705   8.777 -0.4319 -0.0588  0.7979
 3432SOL     OW27905   3.588   9.534  11.045  0.2985  0.0854 -0.2597
 3432SOL    HW127906   3.495   9.513  11.046  0.2209  0.4013 -0.5536
 3432SOL    HW227907   3.633   9.450  11.052 -0.0097 -0.0346  0.2973
 3433SOL     OW27908   0.671   2.148   3.136  0.5602  0.6175  0.1343
 3433SOL    HW127909   0.687   2.075   3.077 -2.4625  0.8509 -1.1500
 3433SOL    HW227910   0.700   2.225   3.088  0.1543  0.5974 -0.1510
 3434SOL     OW27911  13.704   5.106   3.014  0.8533 -0.2017 -0.2007
 3434SOL    HW127912  13.726   5.198   3.001 -0.2386 -0.1001 -1.5729
 3434SOL    HW227913  13.736   5.063   2.934 -0.3420 -0.6788 -0.4445
 3435SOL     OW27914   6.137   2.906  12.932 -0.2841  0.2133  0.8855
 3435SOL    HW127915   6.162   2.902  13.025 -1.4897  1.4899  1.2939
 3435SOL    HW227916   6.215   2.939  12.888  0.9620 -2.1927  1.1209
 3436SOL     OW27917   8.204   7.000   3.971  0.0240  0.3783 -0.4263
 3436SOL    HW127918   8.197   6.910   3.939 -0.0746 -0.4114  1.6562
 3436SOL    HW227919   8.113   7.031   3.973 -0.4033 -0.7576  2.0877
 3437SOL     OW27920  10.562  12.297   8.640  0.5490  0.0027  0.4010
 3437SOL    HW127921  10.483  12.273   8.687  0.1776  0.2290 -0.0941
 3437SOL    HW227922  10.549  12.388   8.615  0.2309 -0.4226 -1.1097
 3438SOL     OW27923   4.630   6.632   5.470  0.3904  0.0553 -0.0202
 3438SOL    HW127924   4.572   6.559   5.450  0.4997 -0.2582  0.7774
 3438SOL    HW227925   4.707   6.618   5.414 -0.1751  0.3371 -0.8967
 3439SOL     OW27926  11.611   0.545   9.284 -0.2931 -0.2666 -0.0342
 3439SOL    HW127927  11.631   0.522   9.193 -0.4706 -0.4281 -0.0341
 3439SOL    HW227928  11.628   0.465   9.333 -1.6554 -0.6466 -0.1408
 3440SOL     OW27929  13.726   9.539  13.075  0.2496 -0.5055 -1.1407
 3440SOL    HW127930  13.754   9.480  13.005  0.7491 -0.4139 -1.0252
 3440SOL    HW227931  13.708   9.481  13.149  0.0748 -0.5703 -1.2334
 3441SOL     OW27932   6.931  10.128   4.113 -0.1045  0.1930 -0.0716
 3441SOL    HW127933   7.017  10.108   4.149 -0.1630 -0.6930 -0.3934
 3441SOL    HW227934   6.876  10.144   4.190 -0.4557 -2.5844  0.3708
 3442SOL     OW27935   6.579   5.868  13.020 -0.4450  0.0837 -0.4013
 3442SOL    HW127936   6.493   5.864  13.061 -0.5953 -0.6833 -0.7670
 3442SOL    HW227937   6.639   5.837  13.087 -0.4750  0.4024 -0.2217
 3443SOL     OW27938  11.576   0.623   3.398  0.3395  0.0570 -0.1339
 3443SOL    HW127939  11.528   0.540   3.399 -1.2008  0.8648 -1.8215
 3443SOL    HW227940  11.548   0.668   3.478 -1.3816  0.3126 -0.8566
 3444SOL     OW27941  10.190  14.067  12.168  0.0171 -0.3611 -0.5399
 3444SOL    HW127942  10.114  14.016  12.139  0.2621 -0.7263 -0.5477
 3444SOL    HW227943  10.257  14.001  12.185  1.0542  0.0911 -2.5981
 3445SOL     OW27944   5.830  12.381  12.584  0.0515  0.1178  0.5917
 3445SOL    HW127945   5.752  12.333  12.611 -0.9835 -0.4925 -3.0215
 3445SOL    HW227946   5.889  12.313  12.551 -0.3627  0.9813 -2.1409
 3446SOL     OW27947   7.379   6.487   9.994  0.7259  0.4656 -0.3052
 3446SOL    HW127948   7.353   6.494   9.902  1.6709  1.5652 -0.5236
 3446SOL    HW227949   7.469   6.454   9.990  0.7082  0.3537  0.2341
 3447SOL     OW27950   2.154  13.519   1.878  0.3087  0.3024 -0.0910
 3447SOL    HW127951   2.183  13.512   1.969  0.5528 -0.0409 -0.1934
 3447SOL    HW227952   2.109  13.437   1.861 -2.2429  1.4579  0.5778
 3448SOL     OW27953   2.639   1.259   4.957  0.4273 -0.0232  0.1202
 3448SOL    HW127954   2.544   1.251   4.947  0.1843  0.7047  1.5865
 3448SOL    HW227955   2.673   1.250   4.868 -1.1171  1.0087 -0.6252
 3449SOL     OW27956   9.801   1.635   8.024  0.0474 -0.0830 -0.1027
 3449SOL    HW127957   9.760   1.717   7.996 -0.3415 -0.4395 -0.5928
 3449SOL    HW227958   9.892   1.658   8.039  0.6448 -0.1227 -2.9899
 3450SOL     OW27959   5.565  12.645  12.187 -0.2883 -0.0353 -0.0884
 3450SOL    HW127960   5.554  12.703  12.263 -1.3294  0.3514 -0.5136
 3450SOL    HW227961   5.644  12.595  12.206  0.2215  1.0095  0.6380
 3451SOL     OW27962   7.279  11.390  13.150 -0.9154 -0.3653 -0.2373
 3451SOL    HW127963   7.240  11.421  13.233 -1.4855 -1.4180 -0.0999
 3451SOL    HW227964   7.246  11.452  13.085 -0.8027  0.2296  0.2573
 3452SOL     OW27965   4.718   8.087  12.421  0.3686  0.3097  0.0588
 3452SOL    HW127966   4.724   8.084  12.326 -0.6354 -0.4677 -0.0013
 3452SOL    HW227967   4.754   8.004  12.451 -1.0215 -0.2746  0.2159
 3453SOL     OW27968   1.711  13.516  12.890  0.3826  0.7191 -0.4170
 3453SOL    HW127969   1.675  13.453  12.827 -1.4642 -0.5075  1.7347
 3453SOL    HW227970   1.636  13.570  12.914  1.3606  2.0330 -0.2187
 3454SOL     OW27971   4.040   6.449   5.761 -0.6286 -0.1237 -0.0213
 3454SOL    HW127972   3.990   6.526   5.789 -0.3253 -0.6195  2.0483
 3454SOL    HW227973   4.122   6.484   5.727 -0.0356  0.4688  1.9020
 3455SOL     OW27974   6.316  13.004  11.146  0.2324 -0.2105  0.0775
 3455SOL    HW127975   6.292  13.021  11.237  0.9248 -1.4223  0.5131
 3455SOL    HW227976   6.408  12.977  11.150  0.6531  0.9475 -1.1449
 3456SOL     OW27977   1.738   9.916  10.713 -0.1616 -1.1459 -0.0061
 3456SOL    HW127978   1.777   9.994  10.751 -3.0738 -0.0131  0.9439
 3456SOL    HW227979   1.778   9.843  10.760 -0.2864 -0.0032  1.9747
 3457SOL     OW27980   9.034  11.730   3.762 -0.0754  0.3043  0.3427
 3457SOL    HW127981   8.986  11.647   3.765  0.4682 -0.0222  0.1203
 3457SOL    HW227982   9.100  11.717   3.694  0.4875  0.6565  0.8144
 3458SOL     OW27983   4.922   0.470   2.708 -0.5051  0.3443  0.0990
 3458SOL    HW127984   5.006   0.450   2.666  0.4564 -0.3343  2.1916
 3458SOL    HW227985   4.910   0.564   2.694 -0.4386  0.1059 -1.9330
 3459SOL     OW27986   5.029   9.116  13.728  0.5216 -0.2887  0.2046
 3459SOL    HW127987   4.993   9.027  13.726 -2.3263  0.7283  1.5932
 3459SOL    HW227988   4.996   9.157  13.648 -2.4241  0.9196  1.9049
 3460SOL     OW27989  13.843   9.157   9.896 -0.0275  0.2587  0.0960
 3460SOL    HW127990  13.865   9.170   9.988 -0.0888  1.4857 -0.0480
 3460SOL    HW227991  13.926   9.134   9.854  0.3018  1.1823  0.2100
 3461SOL     OW27992   8.782  11.640  11.713 -0.1250  0.1402  0.2065
 3461SOL    HW127993   8.842  11.661  11.642  0.2813 -0.1584  0.4521
 3461SOL    HW227994   8.748  11.553  11.691 -0.8897  0.5428 -0.2088
 3462SOL     OW27995  10.836   4.957  10.898 -0.3238  0.1418 -0.9319
 3462SOL    HW127996  10.856   4.906  10.820 -1.4757  0.5631 -1.5324
 3462SOL    HW227997  10.873   5.044  10.880 -1.5755  0.5751 -1.5323
 3463SOL     OW27998   3.405  12.507   8.823 -0.1328 -0.1796  0.1270
 3463SOL    HW127999   3.457  12.470   8.752 -0.5868  0.2712 -0.4640
 3463SOL    HW228000   3.394  12.599   8.798 -2.5125 -0.5846 -0.6153
 3464SOL     OW28001   1.369   0.548   5.762 -0.1914 -0.1601 -0.0127
 3464SOL    HW128002   1.302   0.503   5.710  0.3117  0.3434 -1.1402
 3464SOL    HW228003   1.361   0.511   5.850  0.1401 -2.3930 -0.8544
 3465SOL     OW28004  11.235   1.172   4.393  0.0342 -0.2722  0.7372
 3465SOL    HW128005  11.235   1.082   4.361  0.2240  0.1575 -0.5506
 3465SOL    HW228006  11.165   1.214   4.343  0.1939  0.3869  1.0620
 3466SOL     OW28007   0.196  10.081   7.699 -0.2885  0.1439  0.0657
 3466SOL    HW128008   0.106  10.102   7.675 -0.7097 -3.0651 -1.7332
 3466SOL    HW228009   0.250  10.132   7.639 -1.0132  0.4174 -0.3639
 3467SOL     OW28010   7.594   3.418  14.076  0.4341  0.3754 -0.0795
 3467SOL    HW128011   7.670   3.375  14.115 -0.8712 -1.4241  0.5952
 3467SOL    HW228012   7.590   3.382  13.987  0.4270  0.5241 -0.1390
 3468SOL     OW28013  11.501   5.289   3.356 -0.3927 -0.3973 -0.7081
 3468SOL    HW128014  11.528   5.376   3.328  1.5665 -0.6635  0.1245
 3468SOL    HW228015  11.529   5.284   3.448 -2.6191 -1.0769 -0.0196
 3469SOL     OW28016   5.459   7.676   8.163 -0.7150  0.3115 -0.5575
 3469SOL    HW128017   5.422   7.625   8.235  1.7191  1.2050  1.4712
 3469SOL    HW228018   5.406   7.755   8.160 -0.7289  0.3498  0.4041
 3470SOL     OW28019   5.019   9.459  12.012  0.4525  0.0351  0.3343
 3470SOL    HW128020   5.043   9.383  12.065  1.2852  0.2247  0.2450
 3470SOL    HW228021   5.072   9.531  12.047 -0.5060  0.6454  0.5888
 3471SOL     OW28022   4.364   4.409   2.426 -0.0582 -0.2969  0.0320
 3471SOL    HW128023   4.368   4.445   2.515 -1.8069  0.9587 -0.3482
 3471SOL    HW228024   4.389   4.482   2.370  1.7431 -1.2763 -0.5237
 3472SOL     OW28025   3.978  13.398   6.413  0.3858  0.0006  0.4567
 3472SOL    HW128026   3.908  13.414   6.349  0.0427 -0.3035  0.7481
 3472SOL    HW228027   3.971  13.471   6.475  0.8526  0.4083  0.0384
 3473SOL     OW28028   0.965   9.831   9.340 -0.2626  0.5002 -0.3890
 3473SOL    HW128029   0.932   9.876   9.418  0.2373  0.3586 -0.0951
 3473SOL    HW228030   0.926   9.744   9.344  0.7098  0.0799  0.3531
 3474SOL     OW28031   5.106  10.524  13.782 -0.0933 -0.0763 -0.1680
 3474SOL    HW128032   5.157  10.451  13.748  0.7299  0.2497  0.3291
 3474SOL    HW228033   5.162  10.601  13.771 -1.1380  0.5789 -1.1346
 3475SOL     OW28034   7.783  13.631   2.509  0.3809 -0.0822 -0.2906
 3475SOL    HW128035   7.719  13.700   2.492  1.1110  0.6869  0.0171
 3475SOL    HW228036   7.747  13.554   2.464 -0.2932  0.5728 -0.9120
 3476SOL     OW28037  12.249  13.701   5.231  0.2722  0.4082  0.0053
 3476SOL    HW128038  12.157  13.719   5.212  0.2798  0.4490  0.0079
 3476SOL    HW228039  12.259  13.725   5.323  0.0507 -0.4770  0.2794
 3477SOL     OW28040   7.259   9.370   5.446 -0.4269  0.3635 -0.2923
 3477SOL    HW128041   7.222   9.288   5.480 -1.1667  0.4116 -0.9555
 3477SOL    HW228042   7.297   9.346   5.362 -0.0441  0.5692 -0.1783
 3478SOL     OW28043   7.447   8.513   4.057 -0.0301  0.7595 -0.1742
 3478SOL    HW128044   7.372   8.534   4.111  0.6269  0.0625  1.0519
 3478SOL    HW228045   7.515   8.486   4.119  0.2746 -1.5698 -1.4157
 3479SOL     OW28046   0.409   5.523  13.974  0.1062  0.2723  0.3403
 3479SOL    HW128047   0.502   5.515  13.997  0.3798 -2.8623 -1.2922
 3479SOL    HW228048   0.363   5.500  14.054  0.8322 -1.0002  0.4231
 3480SOL     OW28049   0.249   8.958   0.262  0.2584  0.5430  0.0403
 3480SOL    HW128050   0.327   8.913   0.229  1.0136  1.5988  0.3266
 3480SOL    HW228051   0.279   9.001   0.342 -0.3908  1.6877 -0.3174
 3481SOL     OW28052  13.469   6.394   2.012 -0.3736  0.0529 -0.5374
 3481SOL    HW128053  13.404   6.341   2.057  0.5607  1.6262  2.9663
 3481SOL    HW228054  13.505   6.452   2.079  3.0957  0.8021 -2.7450
 3482SOL     OW28055   1.907   6.320   2.749  0.0658 -0.1962 -0.2153
 3482SOL    HW128056   1.905   6.408   2.786 -1.5836  0.0339 -0.7758
 3482SOL    HW228057   1.948   6.266   2.817  0.4452  0.8715  0.4201
 3483SOL     OW28058  13.558  11.576  13.341  0.1389  0.2702 -0.4965
 3483SOL    HW128059  13.496  11.503  13.338  0.9974 -0.5973  1.1478
 3483SOL    HW228060  13.514  11.643  13.392 -0.1937  0.4297 -0.9931
 3484SOL     OW28061   4.665   6.006   6.118  0.4609  0.0761  0.2573
 3484SOL    HW128062   4.660   6.012   6.022  1.5159 -1.0263  0.1009
 3484SOL    HW228063   4.662   6.096   6.148  1.6612  0.5545 -0.9278
 3485SOL     OW28064   1.819   5.053  13.874 -0.2935  0.5500 -0.4534
 3485SOL    HW128065   1.866   5.126  13.834  2.5056 -1.8486 -1.8818
 3485SOL    HW228066   1.866   5.035  13.956 -1.3561  0.7188  0.2132
 3486SOL     OW28067   6.015  11.125   1.274 -0.4030 -0.2131 -0.1016
 3486SOL    HW128068   6.063  11.202   1.245 -1.9898 -0.0956 -2.7308
 3486SOL    HW228069   6.045  11.055   1.216 -0.8877 -0.9527  0.5163
 3487SOL     OW28070  13.996   9.089   6.102 -0.8418 -0.3067 -0.1090
 3487SOL    HW128071  13.973   9.032   6.175 -1.3572 -0.1273 -0.1306
 3487SOL    HW228072  13.918   9.142   6.086 -1.1547 -1.1089 -1.5065
 3488SOL     OW28073   8.465  12.733  12.458  0.6838 -0.0659 -0.2513
 3488SOL    HW128074   8.505  12.702  12.377  0.1872 -1.4955  0.0219
 3488SOL    HW228075   8.501  12.676  12.526 -0.7913 -0.5438  0.1777
 3489SOL     OW28076  12.078  13.904   7.436 -0.3754 -0.3271  0.1927
 3489SOL    HW128077  12.029  13.929   7.357 -0.9394  0.3364  0.7439
 3489SOL    HW228078  12.160  13.868   7.402 -0.4482  0.2969 -0.6931
 3490SOL     OW28079   2.673  13.443   5.374  0.0506  0.8379  0.1467
 3490SOL    HW128080   2.712  13.529   5.356  0.8257  0.4071 -0.2514
 3490SOL    HW228081   2.745  13.392   5.411 -0.9270  1.0179  2.5006
 3491SOL     OW28082   2.542  13.929   6.338 -0.1873 -0.5590 -0.2104
 3491SOL    HW128083   2.459  13.896   6.302 -0.4934 -1.3357  1.1179
 3491SOL    HW228084   2.515  14.002   6.394  0.0324 -0.6946  0.0748
 3492SOL     OW28085   3.043   9.188  10.387  0.1880  0.2493 -0.1307
 3492SOL    HW128086   3.134   9.200  10.359  0.0720 -0.0314 -0.6391
 3492SOL    HW228087   3.048   9.188  10.482  0.7517  0.0512 -0.1508
 3493SOL     OW28088  12.080   8.491  12.522  0.3541  0.1587  0.2283
 3493SOL    HW128089  12.089   8.396  12.522 -1.4494 -0.0479  0.2423
 3493SOL    HW228090  12.070   8.514  12.430  1.0382  0.3774  0.2030
 3494SOL     OW28091   4.401   3.298   7.109  0.3180  0.2713  0.5712
 3494SOL    HW128092   4.372   3.366   7.170 -0.4971  0.8723 -0.4646
 3494SOL    HW228093   4.345   3.308   7.033  0.0281 -1.7149  0.4729
 3495SOL     OW28094   5.446   5.514   2.675 -0.5886  0.0405  0.0597
 3495SOL    HW128095   5.443   5.585   2.739 -0.9146 -0.6830  0.8563
 3495SOL    HW228096   5.357   5.479   2.672 -1.3966  1.9528 -3.0104
 3496SOL     OW28097  12.083   2.046  11.904  0.0445  0.0565  0.1258
 3496SOL    HW128098  12.116   1.994  11.831 -0.5945 -0.8631  0.4563
 3496SOL    HW228099  12.157   2.055  11.963  0.1622 -0.5258  0.0741
 3497SOL     OW28100   5.432   2.105   0.717  0.8283  0.0666  0.4531
 3497SOL    HW128101   5.390   2.092   0.802  0.3641 -0.0143  0.2147
 3497SOL    HW228102   5.503   2.041   0.716  0.6752 -0.1121  0.6769
 3498SOL     OW28103   6.700   5.183   5.209  0.5776 -0.4209 -0.2401
 3498SOL    HW128104   6.617   5.154   5.249  1.8274 -1.0258  2.1124
 3498SOL    HW228105   6.751   5.103   5.200  1.5924  0.1792  0.0622
 3499SOL     OW28106   4.293   8.768  11.976  0.2781 -1.2155 -0.1762
 3499SOL    HW128107   4.201   8.773  12.000  0.7225  0.0360  1.4544
 3499SOL    HW228108   4.329   8.697  12.029  0.7355 -0.0722  1.1165
 3500SOL     OW28109   3.870   9.400  12.403  0.1128 -0.2649  0.2589
 3500SOL    HW128110   3.913   9.432  12.324 -0.5287  0.8548  0.3331
 3500SOL    HW228111   3.932   9.418  12.474  1.3766 -2.7323 -0.1319
 3501SOL     OW28112   8.800   7.406  13.670 -0.4080  0.2633  0.3697
 3501SOL    HW128113   8.764   7.454  13.745 -2.6633 -1.1018  0.2723
 3501SOL    HW228114   8.881   7.367  13.703 -1.6565 -0.8249  2.3738
 3502SOL     OW28115   6.150   9.635  12.797 -0.3360  0.5057 -0.1769
 3502SOL    HW128116   6.089   9.628  12.872 -0.5688  1.4896 -0.2602
 3502SOL    HW228117   6.231   9.597  12.829 -0.4500  0.8714  0.5719
 3503SOL     OW28118   6.447   9.833  11.676  0.1692 -0.4708  0.2533
 3503SOL    HW128119   6.538   9.833  11.707  0.5786 -0.8417 -0.9039
 3503SOL    HW228120   6.396   9.807  11.753  0.9674  0.3623  1.0874
 3504SOL     OW28121   7.418  11.176   5.134 -0.0204  0.1286  0.6781
 3504SOL    HW128122   7.504  11.193   5.173  1.1029 -0.1613 -1.4781
 3504SOL    HW228123   7.406  11.081   5.144 -0.6714  0.3346  2.0232
 3505SOL     OW28124   0.452   0.587   6.061 -0.0817  0.6500 -0.1383
 3505SOL    HW128125   0.483   0.497   6.073 -0.7699  0.2792 -1.0137
 3505SOL    HW228126   0.441   0.621   6.150  1.1518  0.2221  0.1989
 3506SOL     OW28127   9.537  12.977  12.756  0.2123 -0.4242  0.2176
 3506SOL    HW128128   9.525  13.071  12.771  0.5934 -0.6371  2.1587
 3506SOL    HW228129   9.631  12.967  12.743  0.0378 -0.4197 -1.1823
 3507SOL     OW28130  11.499   7.145   1.331  0.3583  0.4458  0.0824
 3507SOL    HW128131  11.522   7.066   1.381  1.5154 -0.0332 -1.1576
 3507SOL    HW228132  11.450   7.199   1.394 -1.8403 -1.8722  0.5474
 3508SOL     OW28133   2.274   8.665   8.790  0.8389 -0.2611 -0.0338
 3508SOL    HW128134   2.209   8.710   8.736 -0.7790 -1.4943  0.7817
 3508SOL    HW228135   2.269   8.709   8.875 -0.4273 -1.5796  0.6304
 3509SOL     OW28136   0.981   8.332   1.407 -0.8559  0.1753  0.0158
 3509SOL    HW128137   1.067   8.337   1.365 -0.2569 -0.5855  1.1047
 3509SOL    HW228138   0.975   8.413   1.458  0.1591 -0.6994  1.6167
 3510SOL     OW28139  11.318   0.261  11.669  0.4675 -0.1471 -0.4703
 3510SOL    HW128140  11.299   0.203  11.743  1.0541 -0.4060 -0.5207
 3510SOL    HW228141  11.233   0.271  11.625 -0.0601  0.6436  0.6645
 3511SOL     OW28142   8.525  10.481   8.789 -0.1178  0.0804  0.0992
 3511SOL    HW128143   8.442  10.459   8.831 -0.7530  1.4456 -0.3671
 3511SOL    HW228144   8.504  10.490   8.696  0.3509  1.2657  0.0897
 3512SOL     OW28145   0.028  13.370  13.084 -0.0933 -0.0309 -0.6260
 3512SOL    HW128146   0.005  13.426  13.158  2.4324  0.1233  0.1516
 3512SOL    HW228147   0.106  13.323  13.114  0.0017 -1.2390 -2.6044
 3513SOL     OW28148   8.232  12.975  10.591  0.1377  0.6265  0.2218
 3513SOL    HW128149   8.144  12.962  10.556  0.1280 -0.6934  0.6857
 3513SOL    HW228150   8.226  13.057  10.640 -0.0808  2.0361 -2.0062
 3514SOL     OW28151   9.954   9.402   4.126 -0.4198  0.0100  0.2309
 3514SOL    HW128152  10.020   9.391   4.057 -1.7205  0.5071 -1.1564
 3514SOL    HW228153   9.871   9.387   4.081 -1.3892  1.6107  1.4185
 3515SOL     OW28154   0.369   9.523  11.831  0.3290  0.2261  0.4908
 3515SOL    HW128155   0.415   9.511  11.748  0.5317  0.0619  0.6252
 3515SOL    HW228156   0.278   9.504  11.811  0.1190  1.6826 -0.0465
 3516SOL     OW28157   4.598   3.554   4.497 -0.0959 -0.2839 -0.6367
 3516SOL    HW128158   4.556   3.523   4.417 -0.1664 -1.9896  0.0067
 3516SOL    HW228159   4.570   3.491   4.564 -1.6226  2.1671  1.1933
 3517SOL     OW28160   3.028  12.311   6.202  0.4413  0.2850  0.1240
 3517SOL    HW128161   2.992  12.390   6.161  3.3429  1.0205 -1.2792
 3517SOL    HW228162   2.970  12.240   6.173 -2.8952  1.8483  2.2849
 3518SOL     OW28163  10.824   6.638  10.447 -0.2591  0.4332  0.2794
 3518SOL    HW128164  10.804   6.581  10.521 -1.2107  0.3968  0.0101
 3518SOL    HW228165  10.757   6.706  10.450  0.8816  1.5785  0.6135
 3519SOL     OW28166  11.619  12.874   2.544  0.3028  0.0993  0.4062
 3519SOL    HW128167  11.565  12.953   2.540 -0.0698 -0.1791 -0.0613
 3519SOL    HW228168  11.674  12.887   2.622  0.0300  0.6795  0.5065
 3520SOL     OW28169  12.863   3.118   5.652 -0.0339  0.1288  0.3777
 3520SOL    HW128170  12.934   3.118   5.588 -0.2215  2.2339  0.1042
 3520SOL    HW228171  12.904   3.091   5.734  0.8995  0.5397  0.0525
 3521SOL     OW28172   4.023  14.079   8.822  0.0725  0.0257 -0.3053
 3521SOL    HW128173   4.054  14.137   8.892  2.4168  0.8792 -1.9568
 3521SOL    HW228174   3.940  14.045   8.856  0.8736  0.7131  2.7052
 3522SOL     OW28175  13.407  12.335   2.640 -0.2706  0.1149 -0.5205
 3522SOL    HW128176  13.481  12.353   2.582 -0.1280  0.7604 -0.1474
 3522SOL    HW228177  13.343  12.291   2.584  0.5609 -0.8399 -0.7412
 3523SOL     OW28178  12.899   3.259  10.612 -0.8279 -0.0784  0.2120
 3523SOL    HW128179  12.939   3.337  10.575 -0.5856 -0.0021  0.6256
 3523SOL    HW228180  12.954   3.237  10.688 -1.7547  0.2413  1.0098
 3524SOL     OW28181   5.479   2.145   7.495  0.2863 -0.1675  0.4613
 3524SOL    HW128182   5.477   2.071   7.434 -1.1439 -0.0643  0.3627
 3524SOL    HW228183   5.556   2.128   7.550 -0.2602 -1.9549  0.7186
 3525SOL     OW28184   6.504   6.051  11.267 -0.0216  0.2357  0.6084
 3525SOL    HW128185   6.532   6.004  11.346 -0.1430  0.6014  0.8733
 3525SOL    HW228186   6.550   6.135  11.271 -0.1278  0.3076  0.3559
 3526SOL     OW28187   8.051   6.629   9.860  0.1388  0.4820 -0.6412
 3526SOL    HW128188   8.063   6.545   9.905  0.6850  0.7820 -0.2221
 3526SOL    HW228189   7.957   6.646   9.867 -0.1747 -0.6218 -1.6965
 3527SOL     OW28190  11.339   2.619   3.817 -0.1138 -0.4561  0.3231
 3527SOL    HW128191  11.296   2.534   3.821  2.0893 -1.6003  0.8136
 3527SOL    HW228192  11.320   2.659   3.902  0.4029 -1.2741  0.8396
 3528SOL     OW28193   9.527   1.825   6.288  0.1788 -0.0041  0.1825
 3528SOL    HW128194   9.539   1.765   6.361  1.7558  0.0733  0.0166
 3528SOL    HW228195   9.594   1.800   6.225 -1.2257 -0.1325 -1.3003
 3529SOL     OW28196   0.208   4.578   6.047  0.1044 -0.1927 -0.6748
 3529SOL    HW128197   0.243   4.589   6.136  0.3220 -1.0691 -0.6437
 3529SOL    HW228198   0.198   4.483   6.037  1.4357 -0.2184 -2.1038
 3530SOL     OW28199   0.257  10.626   4.155  0.2334 -0.0460  0.3568
 3530SOL    HW128200   0.186  10.621   4.219  1.3820  0.0937  1.6950
 3530SOL    HW228201   0.284  10.535   4.141  0.2195 -0.0491  0.3485
 3531SOL     OW28202  13.248  13.969   8.495  0.0014  0.1804  0.2158
 3531SOL    HW128203  13.266  13.969   8.401  0.6947 -1.3454  0.3173
 3531SOL    HW228204  13.165  13.921   8.503 -0.5839  1.1869  0.3158
 3532SOL     OW28205   5.811   0.584   5.213 -0.0356 -0.2330 -0.0785
 3532SOL    HW128206   5.781   0.575   5.122  1.0287  1.6822 -0.6823
 3532SOL    HW228207   5.846   0.673   5.218 -2.6076  0.7778  3.0093
 3533SOL     OW28208   3.654  10.428  10.525  0.5252  0.1056  0.0088
 3533SOL    HW128209   3.588  10.457  10.589 -0.0222  3.5252 -1.9167
 3533SOL    HW228210   3.728  10.399  10.579 -0.8706  0.3595  2.1861
 3534SOL     OW28211   7.610  11.901   7.047  0.2816  0.0026 -0.2540
 3534SOL    HW128212   7.635  11.809   7.032  0.4972 -0.0723  0.5310
 3534SOL    HW228213   7.620  11.913   7.141  1.0017  1.0572 -0.4535
 3535SOL     OW28214   7.087  11.471   4.426 -0.4690 -0.2481 -0.1598
 3535SOL    HW128215   7.137  11.461   4.344 -0.1759 -0.8742  0.0911
 3535SOL    HW228216   6.999  11.492   4.397 -0.1322  0.5968 -0.6190
 3536SOL     OW28217   2.641   2.188  10.639 -0.2162  0.7017  0.1684
 3536SOL    HW128218   2.562   2.142  10.669 -0.2386  0.2801 -0.5122
 3536SOL    HW228219   2.709   2.162  10.701 -0.7142  1.4827  1.0766
 3537SOL     OW28220   4.630   1.374  11.949  0.7641 -0.5278 -0.1281
 3537SOL    HW128221   4.667   1.372  12.037 -2.6447  0.1011  1.5056
 3537SOL    HW228222   4.563   1.443  11.953 -1.1874 -2.0905 -2.4310
 3538SOL     OW28223  11.391   1.471   9.409  0.2875 -0.0477  0.4971
 3538SOL    HW128224  11.365   1.425   9.329 -0.2014 -0.2789  0.7802
 3538SOL    HW228225  11.400   1.562   9.383  2.0444 -0.3891 -0.2538
 3539SOL     OW28226   3.475   3.961   9.126  0.5883  1.0201 -0.5451
 3539SOL    HW128227   3.502   3.884   9.076  0.3855  0.5648  0.0324
 3539SOL    HW228228   3.388   3.982   9.093 -0.4298 -0.5198  0.9777
 3540SOL     OW28229  11.822   2.061   8.335 -0.2711  0.1836  0.1776
 3540SOL    HW128230  11.910   2.059   8.372 -0.9664  1.6752  2.0870
 3540SOL    HW228231  11.810   2.151   8.305 -0.4749 -0.4885 -1.9595
 3541SOL     OW28232   1.092   5.550   8.299  0.1391  0.3321  0.2024
 3541SOL    HW128233   1.095   5.645   8.289  1.2403  0.4607  1.5759
 3541SOL    HW228234   1.110   5.534   8.391  0.4618 -1.2421 -0.1004
 3542SOL     OW28235   8.940   9.775  13.670  0.5188  0.2894 -0.8403
 3542SOL    HW128236   8.860   9.804  13.715 -0.0353 -0.4536 -1.3402
 3542SOL    HW228237   8.998   9.747  13.741 -0.3885 -0.9616 -0.5665
 3543SOL     OW28238  12.027   3.482   3.623  0.5733 -0.9596  0.6692
 3543SOL    HW128239  12.110   3.434   3.625  2.0186  1.3484  0.8831
 3543SOL    HW228240  11.980   3.447   3.548  2.2357 -1.5817 -0.1258
 3544SOL     OW28241   6.411  12.419   1.646  0.1251  0.5562 -0.7327
 3544SOL    HW128242   6.413  12.485   1.715  1.7188  0.3733 -0.5773
 3544SOL    HW228243   6.331  12.438   1.598 -2.3702 -0.7522  2.5218
 3545SOL     OW28244  10.277   8.086  12.596  0.0454 -0.2212  0.3806
 3545SOL    HW128245  10.241   8.054  12.513  1.2449  0.2005 -0.3202
 3545SOL    HW228246  10.317   8.009  12.636  2.5493  0.2060 -1.1030
 3546SOL     OW28247  11.826   0.036   1.984  0.2030  0.3264  0.0104
 3546SOL    HW128248  11.741   0.078   1.992  0.0358 -0.3193  2.6576
 3546SOL    HW228249  11.883   0.085   2.044  1.4804  0.2025 -1.0529
 3547SOL     OW28250   4.526   9.558   7.859  0.0177 -0.2718  0.1807
 3547SOL    HW128251   4.441   9.600   7.844  0.3493 -0.0333 -1.1927
 3547SOL    HW228252   4.570   9.561   7.774  2.2425  1.4546  1.2672
 3548SOL     OW28253  11.463   2.505   2.503  0.2092 -0.2760 -0.6804
 3548SOL    HW128254  11.490   2.441   2.437  2.3543  1.6938 -1.8859
 3548SOL    HW228255  11.419   2.574   2.452 -0.5617  0.0084  0.3392
 3549SOL     OW28256  12.411   4.923   4.009 -0.6253  0.5122  0.0185
 3549SOL    HW128257  12.334   4.943   3.957 -1.0874  0.7039  0.7540
 3549SOL    HW228258  12.443   4.840   3.975 -0.9984  0.5664 -0.4695
 3550SOL     OW28259   3.197  13.564  13.269  0.2030 -0.3486  0.3640
 3550SOL    HW128260   3.254  13.641  13.264  0.7923 -0.6656  1.8517
 3550SOL    HW228261   3.212  13.528  13.356  0.2695 -2.4120 -0.4433
 3551SOL     OW28262   0.689  13.698  12.911 -0.1513 -0.5424 -0.1961
 3551SOL    HW128263   0.700  13.651  12.994 -0.0401  1.0227  0.7282
 3551SOL    HW228264   0.749  13.655  12.851 -0.6359 -2.0662  0.3663
 3552SOL     OW28265   3.824   0.116   6.611 -0.5958  0.4066  0.5781
 3552SOL    HW128266   3.912   0.134   6.643  0.0255  0.1453 -0.9038
 3552SOL    HW228267   3.778   0.080   6.687  1.1654 -1.3653  0.8993
 3553SOL     OW28268   1.003   1.678   7.164 -0.0513 -0.5902  0.0627
 3553SOL    HW128269   0.975   1.612   7.227  1.4614  0.2924  1.7462
 3553SOL    HW228270   1.091   1.652   7.139 -0.6962 -1.0357 -1.9005
 3554SOL     OW28271   0.412   9.956  13.387  0.2036  0.0080  0.2490
 3554SOL    HW128272   0.395  10.038  13.341  0.4251 -0.8536 -1.4692
 3554SOL    HW228273   0.489   9.974  13.441  0.1069  0.9960  0.0759
 3555SOL     OW28274   6.653  13.909   5.167  0.2968  0.1515  0.8068
 3555SOL    HW128275   6.626  13.971   5.234 -1.0634 -0.2379  0.6390
 3555SOL    HW228276   6.742  13.937   5.143  0.3185  1.0490  1.8618
 3556SOL     OW28277  10.509   2.066   2.594  0.0700 -0.0350  0.1348
 3556SOL    HW128278  10.584   2.054   2.652  0.6975 -0.1150 -0.6788
 3556SOL    HW228279  10.488   1.977   2.564  0.1533  0.0820 -0.2654
 3557SOL     OW28280  11.110   0.320   7.129 -0.4112 -0.1975  0.4945
 3557SOL    HW128281  11.157   0.362   7.201  0.9487  0.5495 -0.7998
 3557SOL    HW228282  11.131   0.372   7.052 -0.6833 -1.8059 -0.7258
 3558SOL     OW28283   9.775   6.710   1.154  0.2172  0.1631 -0.3020
 3558SOL    HW128284   9.732   6.624   1.162  1.6896 -0.8320 -2.2984
 3558SOL    HW228285   9.846   6.708   1.218  1.2023 -0.7562 -1.3972
 3559SOL     OW28286   1.873  10.100  13.874  0.4087 -0.2135  0.4050
 3559SOL    HW128287   1.884  10.126  13.966 -1.2329 -0.1040  0.6064
 3559SOL    HW228288   1.801  10.037  13.875 -1.1661  1.4018 -1.0001
 3560SOL     OW28289   7.624   4.392   4.567  0.4098 -0.0450 -0.2227
 3560SOL    HW128290   7.642   4.398   4.661 -1.5619 -0.3499  0.2190
 3560SOL    HW228291   7.536   4.354   4.562 -0.4988  2.0769 -2.1310
 3561SOL     OW28292   1.710   1.980   7.232  0.2162 -0.1932  0.2062
 3561SOL    HW128293   1.741   2.031   7.307 -0.1399  1.4201 -0.7100
 3561SOL    HW228294   1.788   1.964   7.180  0.1155  0.7351 -0.2545
 3562SOL     OW28295   9.582   7.793   0.501  0.1038  0.1497 -0.3076
 3562SOL    HW128296   9.596   7.731   0.573 -3.3842  0.5427  0.9071
 3562SOL    HW228297   9.631   7.871   0.528 -0.1477 -0.1368  1.0730
 3563SOL     OW28298   7.204   0.915   1.511  0.4094 -0.7257  0.0569
 3563SOL    HW128299   7.283   0.960   1.539  0.1865 -2.0415  3.1148
 3563SOL    HW228300   7.234   0.828   1.484  0.0600 -1.2349  1.2412
 3564SOL     OW28301  13.684  11.203   4.837 -0.6426 -0.1513  0.3263
 3564SOL    HW128302  13.739  11.124   4.844 -0.2291  0.2700  2.3567
 3564SOL    HW228303  13.747  11.275   4.836 -1.0774  0.2217 -0.0957
 3565SOL     OW28304   1.830   8.559   6.167  0.2264  0.2164 -0.2556
 3565SOL    HW128305   1.865   8.541   6.254 -0.5400  1.2365  0.2873
 3565SOL    HW228306   1.817   8.472   6.128 -0.6093 -0.3162  1.1341
 3566SOL     OW28307   2.067   4.548   0.568 -0.6767 -0.2114  0.1659
 3566SOL    HW128308   2.135   4.484   0.588 -0.9032 -0.5091 -0.0018
 3566SOL    HW228309   2.073   4.612   0.638 -0.1323 -0.1612  0.0786
 3567SOL     OW28310   6.343   7.641   2.397 -0.1881  0.2282  0.0368
 3567SOL    HW128311   6.277   7.601   2.453  0.0600  1.2504  1.1063
 3567SOL    HW228312   6.375   7.569   2.342 -2.2575 -0.2632 -0.6204
 3568SOL     OW28313   0.063   3.692  12.827 -0.3178 -0.0644  0.1547
 3568SOL    HW128314  -0.008   3.675  12.765 -1.0713  2.3225  0.2655
 3568SOL    HW228315   0.044   3.779  12.861 -0.0613 -1.2932  3.9175
 3569SOL     OW28316  12.913  13.023  11.624  0.1855  0.6630  0.1490
 3569SOL    HW128317  12.848  13.024  11.695  2.1494  0.6307  2.0571
 3569SOL    HW228318  12.955  12.938  11.632  0.2106  0.5236 -1.3243
 3570SOL     OW28319   2.357   8.066  11.881 -0.6433 -0.4325 -0.5176
 3570SOL    HW128320   2.338   8.022  11.798  0.6753 -0.9924 -0.5526
 3570SOL    HW228321   2.381   7.995  11.941  1.1620  0.1725 -0.4728
 3571SOL     OW28322   5.327  11.417   0.242 -0.1985  0.5810 -0.1933
 3571SOL    HW128323   5.322  11.435   0.148  1.5296  2.2042 -0.0342
 3571SOL    HW228324   5.419  11.432   0.264 -0.6359  0.5482  1.8185
 3572SOL     OW28325  13.316  10.789  13.135 -0.5633  0.4177 -0.2256
 3572SOL    HW128326  13.224  10.763  13.135 -0.4298 -0.1288  1.0290
 3572SOL    HW228327  13.324  10.853  13.206  0.1894 -0.2096  0.2750
 3573SOL     OW28328   9.230  10.653   2.001  0.0450 -0.3866  0.1795
 3573SOL    HW128329   9.171  10.591   2.042 -0.2132 -1.3761 -1.6048
 3573SOL    HW228330   9.312  10.605   1.991 -0.2248 -0.5520 -1.4228
 3574SOL     OW28331   3.413   1.213   6.613  0.6720  0.4818 -0.3872
 3574SOL    HW128332   3.362   1.134   6.592  0.5797  0.5950 -0.5963
 3574SOL    HW228333   3.503   1.190   6.591  1.1198 -0.5363  2.1456
 3575SOL     OW28334   4.119   8.352  12.519  0.2255 -0.2857 -0.1196
 3575SOL    HW128335   4.153   8.400  12.595  1.2152  0.0845 -0.7793
 3575SOL    HW228336   4.192   8.348  12.458 -0.4116 -1.0085 -0.8634
 3576SOL     OW28337   5.174  13.058   6.361 -0.5557 -0.2193 -0.0532
 3576SOL    HW128338   5.141  13.147   6.372 -0.0366  0.2416 -1.8057
 3576SOL    HW228339   5.213  13.035   6.445 -1.2671  0.9682  0.6160
 3577SOL     OW28340   1.134  11.136   5.584  0.0906  0.4349  0.4665
 3577SOL    HW128341   1.201  11.078   5.546  0.8093  1.4671  0.1257
 3577SOL    HW228342   1.089  11.081   5.649  0.6410 -0.5533  0.0355
 3578SOL     OW28343   8.057  11.811   6.000 -0.6494  0.1923  0.1759
 3578SOL    HW128344   7.961  11.802   6.000 -0.6314  0.0144 -0.2693
 3578SOL    HW228345   8.072  11.906   6.001 -0.8394  0.2719 -1.5817
 3579SOL     OW28346  13.911   0.948  11.039 -0.1703  0.1144 -0.2876
 3579SOL    HW128347  13.959   0.879  11.085  0.3127  0.6103 -0.0384
 3579SOL    HW228348  13.820   0.934  11.065 -0.6312 -2.4037 -2.7253
 3580SOL     OW28349  12.308  13.805   7.333  0.2736  0.0341  0.2473
 3580SOL    HW128350  12.366  13.862   7.283 -0.1248  0.6751  0.5045
 3580SOL    HW228351  12.278  13.739   7.271 -2.6770  2.5621 -1.2518
 3581SOL     OW28352   4.630   4.734   0.035  0.1670 -0.1860  0.6645
 3581SOL    HW128353   4.638   4.826   0.062  0.3042 -0.2243  0.7567
 3581SOL    HW228354   4.546   4.729  -0.010 -0.0285 -0.1056  1.0193
 3582SOL     OW28355   4.375   0.689   1.040 -0.1127  0.2853  0.1249
 3582SOL    HW128356   4.428   0.764   1.016 -0.9021  0.8767  0.1720
 3582SOL    HW228357   4.313   0.724   1.105  0.5256 -0.7584  1.3380
 3583SOL     OW28358   7.364   3.220   5.767  0.5844 -0.2289  0.3316
 3583SOL    HW128359   7.287   3.235   5.823  0.8867  1.1887  0.4005
 3583SOL    HW228360   7.343   3.265   5.685  1.3234  0.1331  0.3373
 3584SOL     OW28361   1.306   2.766  13.726  0.2928 -0.2473  0.2695
 3584SOL    HW128362   1.211   2.753  13.721  0.2372  0.2037  0.0783
 3584SOL    HW228363   1.333   2.782  13.635  0.4463  0.2884  0.4021
 3585SOL     OW28364  13.960   9.671   5.814 -0.2277 -0.1101  0.2686
 3585SOL    HW128365  13.928   9.581   5.818 -1.3662  0.1469 -1.7813
 3585SOL    HW228366  14.021   9.672   5.740 -0.7999  0.9460 -0.2107
 3586SOL     OW28367  10.165   8.577  11.966 -0.3824 -0.2097 -0.0393
 3586SOL    HW128368  10.164   8.530  12.050  0.0554  1.1734  0.7680
 3586SOL    HW228369  10.077   8.614  11.958 -0.5502 -0.6839 -0.3944
 3587SOL     OW28370   7.323   2.875  12.320  0.3006  0.0262  0.4822
 3587SOL    HW128371   7.297   2.854  12.230 -0.1565  1.1814  0.3199
 3587SOL    HW228372   7.282   2.807  12.373 -2.2500  1.1631  0.1190
 3588SOL     OW28373   2.773   1.274   7.468 -0.0183  0.3617 -0.6403
 3588SOL    HW128374   2.710   1.297   7.537  0.6261  0.3054 -0.0266
 3588SOL    HW228375   2.858   1.298   7.504  0.3397  0.2227 -1.3755
 3589SOL     OW28376   1.017   9.505   7.728  0.5912  0.0618 -0.3112
 3589SOL    HW128377   0.967   9.488   7.808 -2.0185 -0.4383 -1.9289
 3589SOL    HW228378   0.981   9.587   7.694 -0.3936 -1.1561 -2.3812
 3590SOL     OW28379   0.833   5.807  10.269  0.1999 -0.6027 -0.2128
 3590SOL    HW128380   0.868   5.891  10.237  1.6283 -1.3804 -0.8238
 3590SOL    HW228381   0.900   5.743  10.244 -0.5406 -1.8352  0.8421
 3591SOL     OW28382   1.020   2.332  12.132 -0.6387  0.0868  0.2939
 3591SOL    HW128383   0.951   2.328  12.199  0.5375 -1.0328  1.5042
 3591SOL    HW228384   1.087   2.270  12.163  0.0437 -0.3213 -1.8326
 3592SOL     OW28385   1.959   6.150   3.642 -0.3552 -0.2215  0.3168
 3592SOL    HW128386   1.895   6.105   3.695 -1.1065  0.7082  0.2283
 3592SOL    HW228387   1.923   6.149   3.553 -1.2438  1.9664  0.5770
 3593SOL     OW28388  11.847   3.800   4.620  0.3691 -0.0790 -0.4223
 3593SOL    HW128389  11.759   3.778   4.590  0.6753 -0.6371 -0.9469
 3593SOL    HW228390  11.899   3.722   4.599  1.3037  0.7980 -1.4968
 3594SOL     OW28391   5.518   7.765  13.107 -0.1964 -0.3479 -0.3359
 3594SOL    HW128392   5.512   7.835  13.173 -0.4044 -1.4951  0.9096
 3594SOL    HW228393   5.427   7.748  13.083 -0.2384 -0.9921  0.2547
 3595SOL     OW28394  11.868  11.749  10.915  0.3180  0.0682  0.0232
 3595SOL    HW128395  11.843  11.798  10.993 -0.5017  2.3734 -1.5703
 3595SOL    HW228396  11.889  11.816  10.850  1.1850 -1.7547 -1.6958
 3596SOL     OW28397  13.110   4.898  11.193  0.4674  0.1633  0.4257
 3596SOL    HW128398  13.194   4.872  11.155  0.9739 -0.3155  1.8144
 3596SOL    HW228399  13.132   4.951  11.269 -0.4316 -1.0076  1.5575
 3597SOL     OW28400   6.939   0.364   4.803  0.1922 -0.1634 -0.2128
 3597SOL    HW128401   7.019   0.415   4.814  0.4057 -0.3031 -1.0803
 3597SOL    HW228402   6.915   0.337   4.892  1.2601 -0.3529  0.0274
 3598SOL     OW28403  12.163   5.079  13.578  0.0107  0.4234  0.0754
 3598SOL    HW128404  12.164   5.051  13.670  1.7707  0.7602  0.1867
 3598SOL    HW228405  12.254   5.102  13.559 -0.2553  0.0060 -1.8712
 3599SOL     OW28406  11.308  11.815   4.631 -0.6313 -0.5495 -0.0532
 3599SOL    HW128407  11.316  11.820   4.536 -2.7001  0.9261 -0.2232
 3599SOL    HW228408  11.233  11.871   4.652  0.0022 -0.5018  2.4917
 3600SOL     OW28409   0.371   2.389  12.104 -0.2615 -0.0258  0.0874
 3600SOL    HW128410   0.289   2.351  12.136 -0.9763 -0.1107 -1.7465
 3600SOL    HW228411   0.344   2.456  12.042  1.0602 -0.5224 -1.0638
 3601SOL     OW28412   4.192   5.938   1.137  0.0470  0.1393  0.0481
 3601SOL    HW128413   4.151   5.948   1.223  0.8773  0.5012  0.4099
 3601SOL    HW228414   4.219   6.027   1.113  0.9456 -0.1498 -0.0230
 3602SOL     OW28415   5.044   8.399   3.187  0.3676 -0.1691 -0.1404
 3602SOL    HW128416   4.963   8.352   3.208 -0.0472  0.8943  0.7688
 3602SOL    HW228417   5.015   8.487   3.163  1.2910  0.5316  1.1962
 3603SOL     OW28418   6.383   1.243   0.603 -0.2172 -0.7638  0.0461
 3603SOL    HW128419   6.432   1.258   0.683 -0.3403 -1.2849  0.2241
 3603SOL    HW228420   6.298   1.210   0.633 -0.0296 -1.5976 -0.3120
 3604SOL     OW28421   7.875   6.991   9.017 -0.4584  0.2794  0.1616
 3604SOL    HW128422   7.898   6.929   9.086 -1.7336  1.2517  1.5372
 3604SOL    HW228423   7.798   6.952   8.975  0.7136 -0.6341 -1.1933
 3605SOL     OW28424   3.422   5.990   5.782 -0.2018 -0.1928  0.5009
 3605SOL    HW128425   3.402   5.904   5.746  1.6525 -0.8104  0.8487
 3605SOL    HW228426   3.486   6.028   5.722 -1.7623  1.4471 -0.2367
 3606SOL     OW28427  13.456   8.769   5.233 -0.0048 -0.2141 -0.3345
 3606SOL    HW128428  13.412   8.688   5.260 -0.0194 -0.1886 -0.2816
 3606SOL    HW228429  13.388   8.819   5.186  0.0142 -0.2485 -0.3990
 3607SOL     OW28430  13.557   4.736   7.584 -0.2612  0.2323 -0.5024
 3607SOL    HW128431  13.531   4.644   7.579  0.8214 -0.0684 -1.0173
 3607SOL    HW228432  13.609   4.750   7.505  1.1605  0.7676  0.4859
 3608SOL     OW28433  13.214   3.850   1.270 -0.1517  0.2405  0.3908
 3608SOL    HW128434  13.242   3.894   1.350 -1.4683  3.2260 -0.6502
 3608SOL    HW228435  13.272   3.885   1.202  0.8171 -2.0894 -0.1015
 3609SOL     OW28436   1.673   3.662   3.142  0.0202  0.4998  0.0338
 3609SOL    HW128437   1.589   3.675   3.098  1.0886 -0.7569 -2.5680
 3609SOL    HW228438   1.706   3.579   3.107  1.8526  0.3919  1.8274
 3610SOL     OW28439   1.849   4.026  11.129 -0.0943  0.0249  0.4145
 3610SOL    HW128440   1.817   3.981  11.207 -1.1177 -2.9597 -1.5314
 3610SOL    HW228441   1.943   4.034  11.142 -0.4169  0.9888  2.5363
 3611SOL     OW28442  10.167  11.097  11.219  0.6068 -0.3467  0.1832
 3611SOL    HW128443  10.261  11.077  11.220  0.0449 -3.6194 -1.1334
 3611SOL    HW228444  10.134  11.054  11.140 -1.8929  1.5804  0.0467
 3612SOL     OW28445  11.745   8.640   2.382 -0.1041 -0.1205  0.2528
 3612SOL    HW128446  11.700   8.604   2.458 -1.5437 -0.7286 -0.8361
 3612SOL    HW228447  11.711   8.729   2.373  0.7047  0.2521  0.8038
 3613SOL     OW28448   3.568   2.444   6.639  0.5774  0.0376 -0.5584
 3613SOL    HW128449   3.618   2.501   6.699  0.0950 -0.7501  0.6221
 3613SOL    HW228450   3.626   2.433   6.564  0.6267  2.2065 -0.9072
 3614SOL     OW28451   6.709   3.634   8.206  0.4725  0.1115  0.1717
 3614SOL    HW128452   6.657   3.661   8.282  0.3951  0.6229 -0.0583
 3614SOL    HW228453   6.780   3.581   8.243  0.6353  0.6419  0.6319
 3615SOL     OW28454  13.107   9.469  13.991 -0.0294  0.0101  0.9772
 3615SOL    HW128455  13.200   9.470  14.013  0.2484 -0.0084 -0.1108
 3615SOL    HW228456  13.084   9.376  13.992  0.8911 -0.3908 -2.1844
 3616SOL     OW28457   2.065   8.724   7.191  0.2121  0.4868 -0.4666
 3616SOL    HW128458   2.093   8.804   7.146  2.7830 -0.0580 -0.0010
 3616SOL    HW228459   2.142   8.667   7.189 -1.2694 -1.6595 -0.0208
 3617SOL     OW28460   4.806   4.400   7.122  0.5627  0.3724 -0.2837
 3617SOL    HW128461   4.886   4.368   7.081 -0.2421 -0.2132 -1.4463
 3617SOL    HW228462   4.735   4.368   7.066 -0.4797  1.1007  0.5653
 3618SOL     OW28463  13.968   6.252  11.206 -0.5406 -0.2316  0.4055
 3618SOL    HW128464  14.059   6.250  11.235 -0.5237 -0.2799  0.3488
 3618SOL    HW228465  13.943   6.345  11.209 -0.4172 -0.1915  0.1931
 3619SOL     OW28466   6.406  10.875   0.163  0.3884 -0.3792  0.2857
 3619SOL    HW128467   6.333  10.858   0.103 -0.5859 -1.0429  1.5980
 3619SOL    HW228468   6.450  10.790   0.170  1.2256 -0.0110 -0.3966
 3620SOL     OW28469  13.476   8.128   7.046  0.2867  0.0594  0.5501
 3620SOL    HW128470  13.468   8.037   7.072  0.6240 -0.3938 -0.8560
 3620SOL    HW228471  13.386   8.156   7.028  0.1243  0.1833  1.4995
 3621SOL     OW28472  12.885   5.766   8.684  0.2738  0.5051  0.1378
 3621SOL    HW128473  12.814   5.813   8.727 -0.0753  1.7388 -1.6371
 3621SOL    HW228474  12.860   5.674   8.688 -0.3524  0.7156  1.4014
 3622SOL     OW28475   8.825   9.245   4.186 -0.0829 -0.5162 -0.0351
 3622SOL    HW128476   8.864   9.329   4.211  1.2632 -1.7365  2.3565
 3622SOL    HW228477   8.731   9.263   4.178  0.2123  1.2508  0.1972
 3623SOL     OW28478   8.806  12.136   6.805  0.0948  0.1539 -0.6976
 3623SOL    HW128479   8.728  12.180   6.838 -0.7840  0.0412 -2.5343
 3623SOL    HW228480   8.773  12.059   6.759  1.4570 -1.1675  0.4394
 3624SOL     OW28481   1.139   2.939   9.020 -0.3442 -0.1276  0.3584
 3624SOL    HW128482   1.124   2.878   9.092 -1.4264 -0.1151  0.1665
 3624SOL    HW228483   1.099   3.021   9.050  0.7132  0.3751  0.4363
 3625SOL     OW28484  12.263   4.841   2.279 -0.3917  0.0069  0.5050
 3625SOL    HW128485  12.254   4.839   2.374 -0.3070  0.8961  0.5395
 3625SOL    HW228486  12.204   4.772   2.248 -1.5916  0.7061  1.1336
 3626SOL     OW28487  12.877   9.912   1.423  0.6071  0.3744 -0.4473
 3626SOL    HW128488  12.824   9.992   1.423 -0.0662 -0.0600 -1.3252
 3626SOL    HW228489  12.895   9.895   1.331  0.4717 -0.6649 -0.2890
 3627SOL     OW28490  13.818  10.949   4.789 -0.3703  0.6592  0.2937
 3627SOL    HW128491  13.774  10.885   4.844  0.9574 -0.1880  0.4148
 3627SOL    HW228492  13.911  10.935   4.804  0.0286  0.8919 -1.6053
 3628SOL     OW28493   7.161   3.873  13.132  0.4049  0.1841 -0.4165
 3628SOL    HW128494   7.122   3.959  13.149 -0.8809  0.1268 -2.6405
 3628SOL    HW228495   7.180   3.873  13.038  0.9283 -1.7495 -0.3651
 3629SOL     OW28496   1.843   5.139   9.558  0.3531  0.1636  0.1930
 3629SOL    HW128497   1.814   5.193   9.484  0.5073 -1.2301 -0.9249
 3629SOL    HW228498   1.781   5.067   9.560 -0.7148  1.0493  2.5775
 3630SOL     OW28499   9.759   4.154   3.443 -0.4892  0.1976  0.3209
 3630SOL    HW128500   9.813   4.230   3.421 -0.0671 -0.4832 -1.1372
 3630SOL    HW228501   9.805   4.113   3.516  0.6407 -0.0082 -0.4743
 3631SOL     OW28502   5.894   3.312  10.592 -0.2842  0.0045  0.0404
 3631SOL    HW128503   5.838   3.384  10.620 -0.5947 -0.6398  1.1494
 3631SOL    HW228504   5.833   3.240  10.572 -0.1417  0.6273 -3.1056
 3632SOL     OW28505  13.990   5.786   3.523  0.0378  0.3737  0.5026
 3632SOL    HW128506  14.085   5.796   3.520 -0.0733  1.1301 -0.6464
 3632SOL    HW228507  13.975   5.735   3.603  1.3629  0.6813  0.9791
 3633SOL     OW28508  11.330   2.145  11.782 -0.0487 -0.2381  0.2084
 3633SOL    HW128509  11.303   2.163  11.872  0.1887 -0.6391  0.3633
 3633SOL    HW228510  11.425   2.131  11.787  0.0639  0.3547 -0.2048
 3634SOL     OW28511   5.116   0.467  10.710 -0.1780  0.0463  0.3924
 3634SOL    HW128512   5.130   0.424  10.794  1.0306  0.3593  0.3686
 3634SOL    HW228513   5.199   0.511  10.690  0.2474 -1.5913 -1.8785
 3635SOL     OW28514   1.736   4.392   3.441  0.5582  0.0208 -0.4047
 3635SOL    HW128515   1.759   4.299   3.444 -0.9501 -0.4766 -2.1652
 3635SOL    HW228516   1.641   4.393   3.425  0.6060  1.8496 -0.8460
 3636SOL     OW28517   2.498  11.272  10.109  0.0903  0.3185  0.2698
 3636SOL    HW128518   2.408  11.271  10.142  0.1528 -1.8365  0.5433
 3636SOL    HW228519   2.500  11.203  10.042  1.3072  0.9950 -0.4256
 3637SOL     OW28520   4.650  14.071   8.240  0.1976  0.4731 -0.2527
 3637SOL    HW128521   4.616  14.042   8.156  1.0105 -1.4877  0.0482
 3637SOL    HW228522   4.572  14.079   8.296 -0.1397 -0.2265 -0.6189
 3638SOL     OW28523   3.722  13.089   4.712  0.4898  0.0972  0.2742
 3638SOL    HW128524   3.666  13.161   4.682  0.3058 -0.6252 -1.1861
 3638SOL    HW228525   3.752  13.047   4.632 -1.8669 -3.3824  1.0031
 3639SOL     OW28526   9.456   6.603   2.699 -0.1081 -0.2509  0.0675
 3639SOL    HW128527   9.472   6.618   2.792  1.4728  1.3586 -0.4318
 3639SOL    HW228528   9.525   6.542   2.673 -1.1434 -1.5054  0.1058
 3640SOL     OW28529  10.800   0.542   9.511  0.0674  0.1866  0.1387
 3640SOL    HW128530  10.749   0.619   9.488  1.0727  0.3355 -1.7654
 3640SOL    HW228531  10.748   0.468   9.477  0.5823  0.2602 -0.8229
 3641SOL     OW28532   4.147  12.262   9.468  0.5808  0.1382 -0.1398
 3641SOL    HW128533   4.052  12.260   9.458  0.4565  0.6700  0.8111
 3641SOL    HW228534   4.169  12.355   9.468  1.4154  0.0184 -2.8852
 3642SOL     OW28535   4.658   9.765   2.982 -0.3407  0.3522 -0.0006
 3642SOL    HW128536   4.710   9.773   3.061 -0.3737  0.3408  0.0221
 3642SOL    HW228537   4.715   9.719   2.920 -0.7476 -0.7013  0.4048
 3643SOL     OW28538  13.297   0.853   8.961 -0.7447  0.1041 -0.4642
 3643SOL    HW128539  13.322   0.876   9.050 -0.4845 -0.9611 -0.2603
 3643SOL    HW228540  13.230   0.918   8.938 -0.1045  1.0007  0.1299
 3644SOL     OW28541   7.207   5.278   2.780  0.0717  0.4585  0.1281
 3644SOL    HW128542   7.301   5.261   2.792  0.2765  0.6192 -1.0982
 3644SOL    HW228543   7.195   5.369   2.807 -0.2187 -0.2325  2.5990
 3645SOL     OW28544   0.855   5.306  12.416  0.3478 -0.0107  0.4456
 3645SOL    HW128545   0.767   5.274  12.434  0.5588  0.4350  2.4646
 3645SOL    HW228546   0.885   5.345  12.498  1.5141  2.0494 -0.8423
 3646SOL     OW28547   4.598   2.228  10.557  0.5359  0.0446 -0.1008
 3646SOL    HW128548   4.670   2.166  10.567  1.2574  0.9505  0.5928
 3646SOL    HW228549   4.555   2.204  10.475  1.0732 -1.0742 -0.0631
 3647SOL     OW28550  11.180  10.778  10.127 -0.0688 -0.2800  0.4598
 3647SOL    HW128551  11.218  10.791  10.040 -1.0404 -0.6931 -0.0479
 3647SOL    HW228552  11.231  10.835  10.185  0.6364 -0.0561 -0.3647
 3648SOL     OW28553   3.309   2.228   7.535  0.2099  0.5765 -0.1026
 3648SOL    HW128554   3.295   2.165   7.464  0.9010  1.7788 -1.3531
 3648SOL    HW228555   3.221   2.246   7.568  0.0944 -2.7366  1.9264
 3649SOL     OW28556   4.768   2.192  13.313 -0.5094  0.5898  0.2838
 3649SOL    HW128557   4.780   2.194  13.218 -1.1570  0.5779  0.1979
 3649SOL    HW228558   4.736   2.103  13.332 -3.2461  1.4403  0.1320
 3650SOL     OW28559   2.280   3.787   2.637 -0.6731 -0.3419  0.2749
 3650SOL    HW128560   2.322   3.735   2.706 -1.1309  0.4382  1.1703
 3650SOL    HW228561   2.265   3.872   2.678 -1.3404  0.0037 -0.6669
 3651SOL     OW28562   2.034   2.894   9.107  0.4929  0.4941  0.0510
 3651SOL    HW128563   2.057   2.837   9.181 -0.7044 -0.3135 -0.1665
 3651SOL    HW228564   1.941   2.912   9.119  0.3943  0.7496 -0.9951
 3652SOL     OW28565  12.806   1.118  10.425 -0.3184  0.2699  0.1193
 3652SOL    HW128566  12.766   1.034  10.449  0.8658  0.0202  1.3460
 3652SOL    HW228567  12.739   1.162  10.373 -0.4135 -2.0731 -1.9384
 3653SOL     OW28568   2.328   1.998   5.245 -0.4153 -0.6291  0.0815
 3653SOL    HW128569   2.383   1.954   5.179  0.6360  1.5092 -0.5729
 3653SOL    HW228570   2.254   2.032   5.195 -0.2152 -0.0024  0.2042
 3654SOL     OW28571  12.624  13.158   0.455 -0.2450  0.2786 -0.5647
 3654SOL    HW128572  12.692  13.191   0.514 -1.2997 -0.2326  0.9874
 3654SOL    HW228573  12.546  13.149   0.510 -1.0227 -1.1211 -1.8187
 3655SOL     OW28574   6.251   3.775   0.098 -0.0692 -0.3676 -0.5884
 3655SOL    HW128575   6.241   3.802   0.189 -2.1984 -2.5737 -0.0383
 3655SOL    HW228576   6.321   3.709   0.100 -0.9628 -1.3399 -0.2595
 3656SOL     OW28577   8.909   0.120   4.166 -0.1644 -0.5896 -0.6927
 3656SOL    HW128578   8.899   0.027   4.144 -1.9225 -0.6328  0.0851
 3656SOL    HW228579   8.914   0.164   4.082 -0.8413 -1.2679 -1.1064
 3657SOL     OW28580  10.037   2.592   0.095  0.2076 -0.3135 -0.1902
 3657SOL    HW128581  10.112   2.535   0.109 -0.4990 -0.8994  1.5392
 3657SOL    HW228582  10.036   2.608   0.001  3.1818  0.6783 -0.1853
 3658SOL     OW28583  12.359   5.176  12.774 -0.1230 -0.3535 -0.1430
 3658SOL    HW128584  12.314   5.151  12.693  0.8869  0.2311 -0.8974
 3658SOL    HW228585  12.356   5.272  12.775  2.3678 -0.1965 -0.9838
 3659SOL     OW28586  10.569  10.111   6.268  0.4429 -0.0969 -0.1377
 3659SOL    HW128587  10.609  10.135   6.351  3.0716 -1.1373 -0.9927
 3659SOL    HW228588  10.643  10.088   6.211 -1.3692 -2.3925 -1.7979
 3660SOL     OW28589   3.834   1.182  11.336 -0.6646  0.1403 -0.1860
 3660SOL    HW128590   3.870   1.113  11.391  0.2250 -1.0972 -2.2189
 3660SOL    HW228591   3.750   1.204  11.376  0.3042 -0.0755  2.1091
 3661SOL     OW28592   0.317   1.202   0.575 -0.2939 -0.3025 -0.3250
 3661SOL    HW128593   0.308   1.272   0.510 -2.4037  0.2066  0.4357
 3661SOL    HW228594   0.350   1.128   0.525  0.9852  0.9041 -1.3664
 3662SOL     OW28595  12.101   6.109   6.664 -0.1047  0.2457  0.4738
 3662SOL    HW128596  12.035   6.081   6.728 -1.3954  3.4831  0.7795
 3662SOL    HW228597  12.078   6.063   6.584 -2.0289  0.3823  0.8937
 3663SOL     OW28598  10.946   5.968   1.989  0.1322  0.5491  0.2042
 3663SOL    HW128599  10.905   5.996   1.907 -0.3127  2.7994  1.1133
 3663SOL    HW228600  10.989   6.047   2.022 -1.4168  0.3036  3.1541
 3664SOL     OW28601  12.320   0.004   6.241  0.1609  0.0582 -0.3451
 3664SOL    HW128602  12.260   0.066   6.201 -0.6137 -1.0943 -1.0070
 3664SOL    HW228603  12.266  -0.047   6.300  0.7793 -0.0518  0.1347
 3665SOL     OW28604   4.441  12.025  13.565 -0.0427  0.3849  0.0998
 3665SOL    HW128605   4.377  11.979  13.511  0.8303  1.3137 -1.8191
 3665SOL    HW228606   4.400  12.109  13.587  0.4266  0.9320 -1.0348
 3666SOL     OW28607   5.188   1.901   3.646  0.3266 -0.4731 -0.5096
 3666SOL    HW128608   5.139   1.962   3.702  1.6007  0.3494 -0.2544
 3666SOL    HW228609   5.159   1.921   3.557  0.2949  0.1054 -0.3733
 3667SOL     OW28610   4.804   7.311   8.392  0.5960 -0.2694  0.1949
 3667SOL    HW128611   4.741   7.243   8.368  1.0504 -0.4572 -0.4852
 3667SOL    HW228612   4.805   7.308   8.488 -0.3145 -0.3592  0.2113
 3668SOL     OW28613   8.442  10.370   5.419 -0.4973  0.0122  0.3833
 3668SOL    HW128614   8.369  10.424   5.449  0.7358  1.3195  1.1580
 3668SOL    HW228615   8.403  10.308   5.358 -2.1635  0.9955  0.4031
 3669SOL     OW28616   5.342   1.154   0.388 -0.2062  0.3770  0.4839
 3669SOL    HW128617   5.326   1.239   0.428  2.3332  1.3690 -0.4206
 3669SOL    HW228618   5.414   1.116   0.438  0.5382  0.0224 -0.7988
 3670SOL     OW28619   4.872   2.644   6.856 -0.1981 -0.2682 -0.3555
 3670SOL    HW128620   4.872   2.606   6.944  0.7364  0.7394  0.1075
 3670SOL    HW228621   4.869   2.738   6.870  1.2339 -0.0335 -1.3383
 3671SOL     OW28622  10.509   5.180  10.594  0.1573 -0.0647  0.1370
 3671SOL    HW128623  10.470   5.264  10.572  1.7154  0.6413 -0.0242
 3671SOL    HW228624  10.603   5.195  10.591  0.4658 -1.4857  1.3711
 3672SOL     OW28625  13.551   3.998   1.210  0.0312 -0.0143  0.3673
 3672SOL    HW128626  13.480   3.978   1.148 -2.8183 -0.1644  3.4218
 3672SOL    HW228627  13.550   4.093   1.218 -0.4852 -0.0738  1.0904
 3673SOL     OW28628   2.874   1.509   9.907  0.0503 -0.5274  0.7709
 3673SOL    HW128629   2.895   1.581   9.966 -0.3236 -0.7044  1.1286
 3673SOL    HW228630   2.931   1.522   9.831  0.2899 -0.1029  1.0214
 3674SOL     OW28631   6.227   0.824   1.344  0.9276  0.4367  0.1559
 3674SOL    HW128632   6.187   0.878   1.413  0.5164 -0.5752  0.7227
 3674SOL    HW228633   6.271   0.754   1.392 -0.9077 -1.3396 -0.6445
 3675SOL     OW28634   3.831   6.968  13.605 -0.1085 -0.3374 -0.4193
 3675SOL    HW128635   3.923   6.965  13.578 -0.2875  0.4621 -1.1490
 3675SOL    HW228636   3.783   6.995  13.526 -0.9711 -0.7401 -0.0484
 3676SOL     OW28637   3.779  13.236   4.949 -0.8206 -0.4467 -0.1656
 3676SOL    HW128638   3.792  13.188   4.867  0.3561 -0.5166  0.0483
 3676SOL    HW228639   3.843  13.307   4.946 -0.2505 -0.8763  1.0057
 3677SOL     OW28640   8.349   8.581   2.822  0.2981 -0.1286 -0.0222
 3677SOL    HW128641   8.362   8.661   2.872 -0.1088  0.0785 -0.2458
 3677SOL    HW228642   8.300   8.608   2.745  0.1188 -0.5972 -0.0779
 3678SOL     OW28643   0.129   7.235   1.003 -0.5208 -0.0094  0.2681
 3678SOL    HW128644   0.038   7.208   1.015 -0.1227 -0.5590  2.6390
 3678SOL    HW228645   0.180   7.157   1.027  0.6226 -0.1483 -2.2796
 3679SOL     OW28646   5.925  10.852   3.381  0.4374  0.2155  0.0962
 3679SOL    HW128647   5.997  10.861   3.318  0.9552  0.2761  0.6840
 3679SOL    HW228648   5.903  10.942   3.405  0.3582  0.1876  0.1269
 3680SOL     OW28649   4.432   8.841  13.565  0.0576  0.1123 -0.1772
 3680SOL    HW128650   4.368   8.892  13.514 -0.5611  0.7244  1.1438
 3680SOL    HW228651   4.512   8.893  13.562 -0.5335  1.1450  1.0536
 3681SOL     OW28652   4.361   9.958   0.490  0.0550 -0.5945  0.6009
 3681SOL    HW128653   4.319  10.044   0.493  1.3695  0.1262 -0.5481
 3681SOL    HW228654   4.419   9.962   0.414 -1.7194 -3.3982 -1.1043
 3682SOL     OW28655   0.935   9.929  10.202 -0.3295  0.4368 -0.6667
 3682SOL    HW128656   0.985   9.875  10.142 -1.1068 -1.1200  0.0293
 3682SOL    HW228657   0.994   9.943  10.277 -0.0889  0.6739 -0.8968
 3683SOL     OW28658   6.090   9.987   6.145  0.1755  0.2282 -0.2400
 3683SOL    HW128659   6.050  10.026   6.223  1.6252 -0.0816  0.6991
 3683SOL    HW228660   6.183   9.986   6.164  0.3687 -2.0417 -0.9718
 3684SOL     OW28661   7.889  12.722  10.825 -0.1949 -0.1787 -0.3791
 3684SOL    HW128662   7.817  12.703  10.764 -1.0220  0.8441  0.2447
 3684SOL    HW228663   7.961  12.749  10.769 -0.9380  0.7234 -0.9347
 3685SOL     OW28664   6.145   8.546   4.821 -0.1899 -0.5859  0.2455
 3685SOL    HW128665   6.149   8.635   4.785  0.0848 -1.4095 -1.9012
 3685SOL    HW228666   6.051   8.529   4.830 -0.2668  0.5962  2.6685
 3686SOL     OW28667  10.467  10.815   3.353  0.1201  0.2133  0.2525
 3686SOL    HW128668  10.538  10.767   3.395  0.0255  0.5111  0.7698
 3686SOL    HW228669  10.388  10.785   3.398 -0.1779 -0.6526 -0.8087
 3687SOL     OW28670   6.716   4.319  10.293  0.4275  0.2523  0.3401
 3687SOL    HW128671   6.696   4.263  10.218  1.1386  0.5870 -0.1065
 3687SOL    HW228672   6.630   4.345  10.327  0.0932  0.2728 -0.4961
 3688SOL     OW28673   0.857  13.313   7.414  0.5032  0.3671  0.4914
 3688SOL    HW128674   0.827  13.222   7.418  1.5582 -0.0616 -0.5693
 3688SOL    HW228675   0.785  13.361   7.373  0.4884 -0.2702 -0.2562
 3689SOL     OW28676  13.427   1.252  13.917 -0.7057  0.2128 -0.0801
 3689SOL    HW128677  13.367   1.280  13.848 -1.2905 -1.2003 -0.1735
 3689SOL    HW228678  13.459   1.166  13.888 -0.0051  0.1500  0.8209
 3690SOL     OW28679  13.608  12.188   8.414  0.4900  0.6309  0.2433
 3690SOL    HW128680  13.624  12.100   8.378 -0.4891  0.2595  0.6695
 3690SOL    HW228681  13.683  12.204   8.471  1.4055  0.6822 -0.9356
 3691SOL     OW28682  12.910   7.037  13.139 -0.4648 -0.2220 -0.0806
 3691SOL    HW128683  12.973   7.059  13.208 -0.4391 -1.9521  0.4848
 3691SOL    HW228684  12.876   7.122  13.109  0.8374  0.6442  0.8135
 3692SOL     OW28685   9.957   1.071  11.375 -0.1317 -0.3583  0.2494
 3692SOL    HW128686   9.976   1.165  11.383  0.7452 -0.4703 -0.3385
 3692SOL    HW228687   9.882   1.068  11.315 -0.7431 -0.0021  0.9745
 3693SOL     OW28688   1.097   1.434   9.690  0.0363 -0.1069  0.0560
 3693SOL    HW128689   1.124   1.514   9.736  1.1843 -0.5194  0.1372
 3693SOL    HW228690   1.118   1.451   9.598 -0.3850 -0.0479 -0.0317
 3694SOL     OW28691   1.336   5.596   6.356 -0.7808 -0.0817  0.4726
 3694SOL    HW128692   1.262   5.657   6.350  0.5757  1.5568 -0.5606
 3694SOL    HW228693   1.412   5.649   6.332  0.9417 -1.3911  2.7386
 3695SOL     OW28694   7.704   9.819   1.206  0.3639 -0.3057  0.1201
 3695SOL    HW128695   7.797   9.831   1.222  0.6589 -1.6865 -0.4127
 3695SOL    HW228696   7.699   9.770   1.124 -0.7667 -1.2751  0.7297
 3696SOL     OW28697   8.476  11.969   1.568  0.1729 -0.0152  0.1642
 3696SOL    HW128698   8.495  12.018   1.649  0.3222 -0.3280  0.3177
 3696SOL    HW228699   8.383  11.987   1.551  0.3146  0.6175  0.0194
 3697SOL     OW28700   7.714  12.841   0.621 -0.1171  0.3626  0.1972
 3697SOL    HW128701   7.703  12.888   0.539 -0.0922  0.8599  0.4724
 3697SOL    HW228702   7.627  12.809   0.643  0.0511 -0.6480 -0.5272
 3698SOL     OW28703   5.584   8.408   1.282  0.3162  0.4171  0.5042
 3698SOL    HW128704   5.592   8.317   1.255  2.0333  0.4348  0.8301
 3698SOL    HW228705   5.560   8.455   1.202  1.6220 -0.0418 -0.1955
 3699SOL     OW28706   1.992   1.801   2.372  0.0197  0.2836  0.3976
 3699SOL    HW128707   1.921   1.825   2.432  0.6724  0.7507  0.9956
 3699SOL    HW228708   2.025   1.885   2.340  0.8737  0.1142  0.8020
 3700SOL     OW28709   7.023   3.435  13.444  0.1099  0.0520  0.5473
 3700SOL    HW128710   6.928   3.443  13.435  0.3145  0.4496 -1.7606
 3700SOL    HW228711   7.053   3.396  13.362  2.0381  0.7907  0.8283
 3701SOL     OW28712   3.176   8.999   7.603 -0.4840 -0.0718  0.3805
 3701SOL    HW128713   3.254   8.956   7.639 -1.5982 -4.4515 -1.6590
 3701SOL    HW228714   3.172   8.968   7.512 -5.3823 -1.6472  0.8158
 3702SOL     OW28715  11.645  12.620   8.576  0.2905 -0.0236 -0.3485
 3702SOL    HW128716  11.643  12.681   8.503  1.5953  2.2349  1.3812
 3702SOL    HW228717  11.736  12.616   8.603 -0.1306 -0.9021  1.0854
 3703SOL     OW28718   0.533   5.845   2.482 -0.3033  0.0442  0.4868
 3703SOL    HW128719   0.604   5.781   2.482 -1.1218 -0.9072  1.7069
 3703SOL    HW228720   0.470   5.812   2.419 -0.9314 -0.6166  1.4402
 3704SOL     OW28721   4.302  13.419  11.725 -0.0593  0.0732 -0.0434
 3704SOL    HW128722   4.303  13.412  11.629 -1.3071 -2.4063  0.0457
 3704SOL    HW228723   4.394  13.423  11.750  0.2846  2.3065 -1.3618
 3705SOL     OW28724   2.832   1.425   1.930  0.4522 -0.6258  0.1525
 3705SOL    HW128725   2.920   1.389   1.941  0.4118 -0.5731  0.6543
 3705SOL    HW228726   2.812   1.412   1.837  0.7077 -1.2733  0.1882
 3706SOL     OW28727   5.422   7.882   8.877  0.3122 -0.0309  0.2137
 3706SOL    HW128728   5.452   7.860   8.788  0.1634 -0.2558  0.2180
 3706SOL    HW228729   5.332   7.911   8.865  0.0216 -0.8282  0.3813
 3707SOL     OW28730   2.877   0.392  11.890  0.4360  0.3662 -0.3931
 3707SOL    HW128731   2.885   0.315  11.833  1.6968 -0.3088  0.6378
 3707SOL    HW228732   2.964   0.432  11.888  0.0264  1.2889 -0.2351
 3708SOL     OW28733   0.104   3.663   4.639 -0.1961  0.0111 -0.2877
 3708SOL    HW128734   0.061   3.743   4.671  1.6290  1.1318 -0.4548
 3708SOL    HW228735   0.168   3.642   4.708 -0.1746 -0.8987 -0.5803
 3709SOL     OW28736   2.373  11.033  11.471  0.1219  0.3890  0.2739
 3709SOL    HW128737   2.404  10.966  11.411 -0.5109  0.1233  0.2398
 3709SOL    HW228738   2.387  11.115  11.424  2.3346  0.4433  0.9172
 3710SOL     OW28739   6.507   1.347   3.620 -0.1484  0.8167 -0.1892
 3710SOL    HW128740   6.528   1.263   3.580 -0.6708  1.2172 -1.3669
 3710SOL    HW228741   6.433   1.330   3.678  0.5230  0.2526  0.5210
 3711SOL     OW28742   4.698   5.683   1.372 -0.2347  0.4117 -0.0238
 3711SOL    HW128743   4.642   5.737   1.316 -1.2949 -0.8736 -0.2572
 3711SOL    HW228744   4.651   5.679   1.455 -0.1361 -0.0667  0.0144
 3712SOL     OW28745  11.536   1.214   5.843  0.0671  0.1920  0.9435
 3712SOL    HW128746  11.550   1.308   5.851 -1.3721  0.4736  0.4736
 3712SOL    HW228747  11.445   1.206   5.813  0.9456 -1.2185 -1.6436
 3713SOL     OW28748   5.369   4.199   0.266 -0.4606 -0.0738  0.2426
 3713SOL    HW128749   5.335   4.186   0.355 -0.6030 -0.9454  0.0717
 3713SOL    HW228750   5.395   4.291   0.263 -1.4907  0.2492  0.8351
 3714SOL     OW28751  12.730  11.362  10.868 -0.7233 -0.2697 -0.0192
 3714SOL    HW128752  12.802  11.411  10.829  0.2911 -1.2979  0.5388
 3714SOL    HW228753  12.685  11.323  10.793 -0.0642 -0.4994 -0.2983
 3715SOL     OW28754   7.529  13.792   9.952  0.9630 -0.0603 -0.7247
 3715SOL    HW128755   7.475  13.737   9.895 -0.1713 -0.9629  1.1259
 3715SOL    HW228756   7.572  13.730  10.012 -0.0225  0.9763  1.1495
 3716SOL     OW28757  10.164   3.279   6.689 -0.2847 -0.3736  0.1077
 3716SOL    HW128758  10.257   3.260   6.700 -0.2682 -0.6171 -0.4196
 3716SOL    HW228759  10.133   3.301   6.777  0.1090 -1.0126  0.4095
 3717SOL     OW28760   0.192   1.316   5.327  0.0687  0.2782 -0.2093
 3717SOL    HW128761   0.165   1.408   5.323  0.0718  0.2748 -0.3366
 3717SOL    HW228762   0.253   1.311   5.400 -1.1760  0.0452  0.8431
 3718SOL     OW28763   0.623  13.807   2.629 -0.0078 -0.3521  0.2441
 3718SOL    HW128764   0.606  13.744   2.560 -2.4716  0.1320  0.3322
 3718SOL    HW228765   0.568  13.882   2.608  1.3062  0.9625  1.2498
 3719SOL     OW28766   2.913   5.668   6.503  0.6486  0.0115  0.1295
 3719SOL    HW128767   2.863   5.698   6.428 -1.7312 -2.9409  0.3635
 3719SOL    HW228768   2.880   5.720   6.576 -0.5227 -0.3705 -0.1059
 3720SOL     OW28769  11.900  11.775   9.022 -0.5278 -0.0881  0.4788
 3720SOL    HW128770  11.850  11.756   9.101 -0.5557 -1.7899  0.1049
 3720SOL    HW228771  11.837  11.817   8.963 -1.3644 -1.5344  0.2832
 3721SOL     OW28772   6.192   2.517  12.613 -0.3183  0.2468  0.4317
 3721SOL    HW128773   6.273   2.497  12.567 -0.3317  0.6124  0.2495
 3721SOL    HW228774   6.153   2.589  12.564 -1.3079 -0.6507 -0.1521
 3722SOL     OW28775   3.690   9.574  10.324  0.2903 -0.1400  0.1977
 3722SOL    HW128776   3.615   9.601  10.377  0.0155 -0.4740 -0.0205
 3722SOL    HW228777   3.748   9.529  10.385 -0.0081 -0.4913  0.2182
 3723SOL     OW28778   1.370   3.130   2.285 -0.4650  0.1786 -0.0846
 3723SOL    HW128779   1.381   3.067   2.213 -0.2176 -0.3043  0.3654
 3723SOL    HW228780   1.379   3.077   2.364 -1.6960  0.5328  0.3063
 3724SOL     OW28781   9.786   1.448   4.267 -0.2340  0.2496 -0.0920
 3724SOL    HW128782   9.745   1.362   4.255 -0.3022  0.1508  0.7896
 3724SOL    HW228783   9.825   1.467   4.182  0.6143 -1.0924 -0.0427
 3725SOL     OW28784  14.036   1.443  13.525 -0.2988 -0.6616  0.3849
 3725SOL    HW128785  13.994   1.444  13.439 -0.4326 -0.1868  0.4560
 3725SOL    HW228786  14.003   1.521  13.570 -0.6899 -1.2093  1.0906
 3726SOL     OW28787  12.025   1.306   0.764 -0.4789 -0.0078  0.4996
 3726SOL    HW128788  11.957   1.308   0.698 -0.6087 -0.8955  0.5943
 3726SOL    HW228789  12.088   1.242   0.732  0.5923  1.1806  0.1500
 3727SOL     OW28790   0.686   0.170  11.894 -0.6933  0.0631  0.4196
 3727SOL    HW128791   0.746   0.244  11.902  0.3717 -0.9087  2.0581
 3727SOL    HW228792   0.673   0.140  11.984  0.2278 -2.7330 -0.2725
 3728SOL     OW28793   3.978  10.556   9.263  0.4442 -0.0335  0.2026
 3728SOL    HW128794   3.911  10.531   9.199  1.3113  0.8674 -1.1107
 3728SOL    HW228795   3.930  10.605   9.330 -0.6175 -1.7412  0.7466
 3729SOL     OW28796   9.092  11.613   8.883 -0.1422 -0.4710 -0.0492
 3729SOL    HW128797   9.103  11.682   8.949 -0.3350 -0.0644 -0.4311
 3729SOL    HW228798   9.035  11.549   8.924 -1.7166  0.6272 -0.4352
 3730SOL     OW28799   3.141   1.149   6.377  0.5052 -0.6249 -0.2459
 3730SOL    HW128800   3.148   1.081   6.444 -1.2330  0.0495  0.6817
 3730SOL    HW228801   3.058   1.194   6.397  2.2270  2.7306  0.0711
 3731SOL     OW28802   4.335  12.574   4.475 -0.7148  0.4173  0.5289
 3731SOL    HW128803   4.290  12.490   4.488  0.4063 -0.2643  0.2029
 3731SOL    HW228804   4.322  12.594   4.382 -0.6230  0.3769  0.5070
 3732SOL     OW28805  12.781   5.791  11.875  0.3703 -0.2955  0.0523
 3732SOL    HW128806  12.835   5.742  11.937  0.6111  1.5873  1.4053
 3732SOL    HW228807  12.731   5.723  11.828  1.2138 -1.8538  1.3131
 3733SOL     OW28808   6.589  12.650   8.179  0.0977  0.2245 -0.1900
 3733SOL    HW128809   6.548  12.731   8.150  1.3755  1.5203  1.4150
 3733SOL    HW228810   6.594  12.658   8.274 -1.0207 -2.4086  0.1952
 3734SOL     OW28811   7.049  10.890   3.106  0.5511  0.1804 -0.3825
 3734SOL    HW128812   7.094  10.882   3.190  1.6932  0.3298 -0.9603
 3734SOL    HW228813   7.108  10.849   3.043 -2.2187 -4.1505 -0.5810
 3735SOL     OW28814   5.212   6.800   2.058 -0.2793  0.3177  0.1630
 3735SOL    HW128815   5.182   6.868   2.118 -2.0043 -0.9995  0.8916
 3735SOL    HW228816   5.143   6.794   1.992 -0.0621 -0.6037  0.0065
 3736SOL     OW28817   2.765   9.906   7.304 -0.3967 -0.4682 -0.3739
 3736SOL    HW128818   2.728   9.921   7.217  0.6646  1.0315 -0.6059
 3736SOL    HW228819   2.695   9.931   7.364 -0.0418  1.7297 -0.8089
 3737SOL     OW28820   2.463   8.042   3.704  0.5017  0.3035 -0.0032
 3737SOL    HW128821   2.368   8.035   3.694  0.3864  2.4244 -0.9423
 3737SOL    HW228822   2.480   8.005   3.790 -1.3564  1.0391  0.7503
 3738SOL     OW28823   3.468  11.362  12.462  0.5227 -0.0983 -0.9040
 3738SOL    HW128824   3.449  11.361  12.556  2.1692 -2.0703 -0.5079
 3738SOL    HW228825   3.383  11.355  12.420 -0.1945  0.1554  0.4654
 3739SOL     OW28826   4.680   0.154   1.954 -0.3792 -0.2483 -0.6220
 3739SOL    HW128827   4.758   0.109   1.989  0.6291  0.8693 -1.3750
 3739SOL    HW228828   4.687   0.143   1.860 -1.8121 -1.1724 -0.6486
 3740SOL     OW28829   9.506   2.654   2.553  0.0163 -0.1157  0.4138
 3740SOL    HW128830   9.568   2.661   2.480 -0.1905  0.2692  0.2759
 3740SOL    HW228831   9.538   2.579   2.604 -0.4772 -1.1031 -0.6720
 3741SOL     OW28832   1.058   4.846   7.217 -0.3850 -0.4846 -0.5362
 3741SOL    HW128833   0.969   4.823   7.190 -0.6959 -0.4827  0.4435
 3741SOL    HW228834   1.077   4.928   7.170 -1.0911 -0.2230 -0.3779
 3742SOL     OW28835  11.488  12.367  10.106 -0.0697  0.4091 -0.2026
 3742SOL    HW128836  11.567  12.321  10.135  0.0884 -1.0362 -2.6914
 3742SOL    HW228837  11.435  12.299  10.065 -1.7146  1.7452 -0.3830
 3743SOL     OW28838  12.173   1.876   7.799 -0.1296  0.5638  0.0540
 3743SOL    HW128839  12.084   1.846   7.821 -0.7152  0.6187 -1.9520
 3743SOL    HW228840  12.225   1.795   7.797  0.0929  0.6251  2.0518
 3744SOL     OW28841  12.281   5.999   0.732  0.0614  0.3892 -0.2639
 3744SOL    HW128842  12.343   5.935   0.766 -0.2382  0.1522 -0.1619
 3744SOL    HW228843  12.284   6.071   0.795  0.0897  0.2968 -0.1600
 3745SOL     OW28844   6.941  11.332  10.452 -0.2662  0.1725  0.3241
 3745SOL    HW128845   6.950  11.237  10.445  0.2054 -0.1358  3.7257
 3745SOL    HW228846   7.030  11.365  10.464 -0.4435  1.0751 -0.6323
 3746SOL     OW28847   2.464   7.657   0.105 -0.0684  0.1663  0.5420
 3746SOL    HW128848   2.488   7.686   0.017 -2.2807 -0.9681 -0.5100
 3746SOL    HW228849   2.395   7.717   0.133 -0.2195 -0.1991  0.9821
 3747SOL     OW28850   9.679  10.067  11.706  0.0596  0.2234  0.0738
 3747SOL    HW128851   9.595  10.031  11.733  0.1826  1.2213  1.9731
 3747SOL    HW228852   9.656  10.149  11.660 -0.0187  1.0444  1.5140
 3748SOL     OW28853  11.866   3.549   0.234  0.4518 -0.2510 -0.7549
 3748SOL    HW128854  11.805   3.477   0.217  0.4768 -0.4143 -0.1750
 3748SOL    HW228855  11.946   3.524   0.189  0.0216  0.0781 -1.7269
 3749SOL     OW28856   0.208  10.087   8.288  0.0815  0.2820  1.0267
 3749SOL    HW128857   0.215   9.999   8.251 -1.8232  0.3312  0.4459
 3749SOL    HW228858   0.250  10.080   8.374 -0.6928 -1.4072  1.3123
 3750SOL     OW28859  10.794   3.702   0.508 -0.4571  0.2093 -0.4239
 3750SOL    HW128860  10.773   3.769   0.573  0.3507  0.5656 -0.5071
 3750SOL    HW228861  10.730   3.715   0.438  0.3978  1.6830 -0.9776
 3751SOL     OW28862   3.924   4.347  12.660  0.0844 -0.0816  0.2259
 3751SOL    HW128863   3.829   4.350  12.644  0.0279  0.3786  0.6098
 3751SOL    HW228864   3.964   4.348  12.574 -0.2837 -1.4642  0.0115
 3752SOL     OW28865  12.661   3.503  13.970  0.1611  0.7926 -0.0058
 3752SOL    HW128866  12.747   3.470  13.997  0.0546 -0.6636 -1.2921
 3752SOL    HW228867  12.673   3.530  13.879 -0.3057  2.4046  0.3712
 3753SOL     OW28868   5.224  10.225  12.854  0.5226  0.0477  0.3638
 3753SOL    HW128869   5.251  10.272  12.775 -1.2716 -1.9505 -1.5545
 3753SOL    HW228870   5.306  10.202  12.897  1.6625 -0.4477 -1.9297
 3754SOL     OW28871   3.155  11.524   8.319 -0.0109 -0.2906 -0.2059
 3754SOL    HW128872   3.178  11.464   8.248 -1.0008  0.0043 -0.8050
 3754SOL    HW228873   3.135  11.467   8.393  2.5245 -0.5612  0.3561
 3755SOL     OW28874   6.581   1.610  10.830  0.6046  0.0708  0.1116
 3755SOL    HW128875   6.594   1.574  10.918  0.7964 -2.9123 -0.9923
 3755SOL    HW228876   6.604   1.537  10.771 -2.8324  0.6938 -2.3578
 3756SOL     OW28877   5.709  14.033   4.911  0.0109  0.1710 -0.0296
 3756SOL    HW128878   5.614  14.044   4.923  0.4067  2.0820  2.3112
 3756SOL    HW228879   5.739  13.998   4.995  1.3182 -1.3419 -1.0687
 3757SOL     OW28880  12.151  10.823  11.608 -0.2657 -0.0927 -0.3043
 3757SOL    HW128881  12.182  10.818  11.518 -0.2327 -0.9997 -0.2582
 3757SOL    HW228882  12.222  10.785  11.660 -0.3378  0.3053  0.0868
 3758SOL     OW28883  11.772  14.045   4.146  0.1653 -0.5221  0.4263
 3758SOL    HW128884  11.719  14.106   4.197 -1.4742 -1.1736 -0.4541
 3758SOL    HW228885  11.720  13.966   4.140  0.8006 -0.8642 -1.2757
 3759SOL     OW28886   2.563   7.533   7.858  0.2101 -0.3947 -0.2118
 3759SOL    HW128887   2.481   7.485   7.871 -0.2689  0.7254  1.1872
 3759SOL    HW228888   2.626   7.490   7.917 -0.7598  1.8215  2.7124
 3760SOL     OW28889   6.622   0.740  12.858 -0.1187 -0.3058 -0.0558
 3760SOL    HW128890   6.610   0.812  12.796  2.6152 -1.5685 -2.2870
 3760SOL    HW228891   6.537   0.696  12.860 -0.6425  0.5041 -2.0202
 3761SOL     OW28892   2.431   8.854  12.257  0.3790  0.0060 -0.0547
 3761SOL    HW128893   2.464   8.789  12.196 -0.2265 -0.7661  0.4056
 3761SOL    HW228894   2.341   8.870  12.228  0.6277  0.8920 -0.3591
 3762SOL     OW28895  13.545  12.418   8.587 -0.1672 -0.1663  0.0849
 3762SOL    HW128896  13.450  12.429   8.600  0.0899 -0.9861  3.8359
 3762SOL    HW228897  13.552  12.365   8.508 -2.7128  1.2243 -1.2047
 3763SOL     OW28898   0.445  13.958   9.204  0.2435 -0.4405  0.0800
 3763SOL    HW128899   0.373  13.921   9.255 -0.8268 -0.1035 -1.1236
 3763SOL    HW228900   0.474  13.886   9.148  0.5780 -0.4609  0.2766
 3764SOL     OW28901   0.343   4.260   4.130 -0.0584 -0.0322 -0.3983
 3764SOL    HW128902   0.280   4.278   4.199  0.1315 -0.6636 -0.0502
 3764SOL    HW228903   0.300   4.290   4.050 -0.9237 -0.7209 -0.2095
 3765SOL     OW28904   4.342   9.776   1.646  0.9550  0.3151  0.5795
 3765SOL    HW128905   4.400   9.721   1.593 -1.2883 -0.9127 -0.8067
 3765SOL    HW228906   4.261   9.782   1.594 -0.0099  2.3286  2.1571
 3766SOL     OW28907   3.479   4.442   3.612  0.0151  0.0606 -0.2338
 3766SOL    HW128908   3.425   4.440   3.533  0.9006 -0.8795 -0.8382
 3766SOL    HW228909   3.423   4.404   3.680 -0.6866  0.7003 -0.4370
 3767SOL     OW28910   8.140  13.674   3.158  0.2205  0.1315 -0.5674
 3767SOL    HW128911   8.061  13.623   3.175  0.1066  0.9151  1.5763
 3767SOL    HW228912   8.117  13.731   3.085 -0.7651 -0.5493 -0.8042
 3768SOL     OW28913   1.236   9.923  11.443 -0.3469  0.1824 -0.0396
 3768SOL    HW128914   1.145   9.924  11.475 -0.4292 -0.8419 -0.2097
 3768SOL    HW228915   1.289   9.939  11.520 -0.6414 -0.0287  0.2080
 3769SOL     OW28916  11.478   3.913   4.803 -0.1643  0.0624 -0.1176
 3769SOL    HW128917  11.573   3.906   4.791 -0.2870 -1.3354 -0.4572
 3769SOL    HW228918  11.463   3.878   4.890 -0.4678 -0.6923 -0.4682
 3770SOL     OW28919  13.053   6.581  13.737 -0.6262  0.2134  0.3143
 3770SOL    HW128920  13.032   6.621  13.821  1.9575 -1.1487  1.7257
 3770SOL    HW228921  13.021   6.492  13.744  0.9038 -0.3586  0.5222
 3771SOL     OW28922   3.455   8.947  10.750  0.0675 -0.0168  0.3676
 3771SOL    HW128923   3.436   8.928  10.842  0.3413  0.9663  0.6384
 3771SOL    HW228924   3.524   8.884  10.727  0.1785 -0.1045  0.9145
 3772SOL     OW28925   2.363   2.047  11.877 -0.5256 -0.3828  0.2229
 3772SOL    HW128926   2.425   2.113  11.908  1.0581 -1.2454 -0.9322
 3772SOL    HW228927   2.324   2.086  11.798 -1.3749  0.0950  0.8602
 3773SOL     OW28928   7.150  11.799  12.166  0.4095 -0.1568  0.1781
 3773SOL    HW128929   7.069  11.841  12.136  1.0952  0.5383 -0.7846
 3773SOL    HW228930   7.138  11.787  12.260 -1.3014 -1.1994 -0.1257
 3774SOL     OW28931   4.453  12.965   4.090 -0.4591 -0.2416  0.2643
 3774SOL    HW128932   4.478  12.948   3.999  1.1788 -1.6670  0.9286
 3774SOL    HW228933   4.484  12.889   4.139 -2.5616 -0.1845  1.8558
 3775SOL     OW28934   4.285   1.014   1.169 -0.2029  0.5305 -0.0154
 3775SOL    HW128935   4.230   1.091   1.153  0.7242  1.3699  0.7490
 3775SOL    HW228936   4.224   0.949   1.205 -0.7857  1.3001  0.4132
 3776SOL     OW28937   9.543   6.729  13.469 -0.2270  0.5170 -0.2237
 3776SOL    HW128938   9.452   6.757  13.459  0.1171  1.6986 -0.2181
 3776SOL    HW228939   9.546   6.691  13.557 -1.4272 -2.6101 -1.3659
 3777SOL     OW28940   6.234   5.902  12.522  0.0408  0.0064  0.3376
 3777SOL    HW128941   6.189   5.957  12.459  1.0743  0.5656  0.0581
 3777SOL    HW228942   6.286   5.841  12.469  2.0796  1.4374  0.5654
 3778SOL     OW28943   6.281  12.794   3.082 -0.4240 -0.3904  0.0647
 3778SOL    HW128944   6.261  12.856   3.152 -0.2901 -1.4658  1.0907
 3778SOL    HW228945   6.369  12.819   3.052 -0.3276 -0.1534  0.5396
 3779SOL     OW28946  10.869   2.746  10.436 -0.1268 -0.3297  0.1542
 3779SOL    HW128947  10.835   2.835  10.432  1.1209  0.3443  2.3890
 3779SOL    HW228948  10.955   2.751  10.395  0.5961 -0.0777  1.6126
 3780SOL     OW28949   4.263  10.550   4.297  0.4894 -0.4458  0.3434
 3780SOL    HW128950   4.357  10.557   4.280  0.2533  1.3901 -0.5431
 3780SOL    HW228951   4.223  10.559   4.210 -0.5419  1.0228  0.9238
 3781SOL     OW28952   3.360  10.903  14.059  0.4735 -0.3443 -0.1055
 3781SOL    HW128953   3.411  10.964  14.006  1.8762 -1.5641 -0.2316
 3781SOL    HW228954   3.353  10.824  14.005  0.4149 -0.9952  0.8267
 3782SOL     OW28955   1.909  10.413   7.043 -0.1118 -0.2437  0.6454
 3782SOL    HW128956   1.942  10.388   6.957 -0.4029  0.0656  0.4430
 3782SOL    HW228957   1.894  10.330   7.089 -0.6475 -0.4297  0.1423
 3783SOL     OW28958   4.012   6.502   1.237 -0.3938  0.1494 -0.3647
 3783SOL    HW128959   4.097   6.464   1.258 -0.6969 -2.2103 -2.9352
 3783SOL    HW228960   4.032   6.580   1.185  0.2407 -0.8059 -1.5980
 3784SOL     OW28961   9.252   0.664   8.858  0.3414  0.3879  0.4925
 3784SOL    HW128962   9.285   0.736   8.911  0.7984 -0.6565  1.6641
 3784SOL    HW228963   9.159   0.683   8.845  0.4860  1.2336  0.6830
 3785SOL     OW28964  12.631  12.618   1.756 -0.0677 -0.1380  0.1561
 3785SOL    HW128965  12.632  12.560   1.680  0.0669  0.4075 -0.2626
 3785SOL    HW228966  12.714  12.601   1.801  1.9348  2.5784 -2.1612
 3786SOL     OW28967  11.410   9.883  13.651 -0.0383 -0.3300  0.0323
 3786SOL    HW128968  11.426   9.974  13.675  1.4320 -0.6790  0.4992
 3786SOL    HW228969  11.441   9.876  13.561  1.0881 -0.6375  0.4180
 3787SOL     OW28970   3.156  12.037   6.711 -0.4956  0.1123  0.2302
 3787SOL    HW128971   3.091  12.104   6.688 -0.4989 -0.5453 -1.8894
 3787SOL    HW228972   3.154  12.034   6.807  0.0189  3.6083  0.4847
 3788SOL     OW28973   2.388  10.934   2.588 -0.6525 -0.1966 -0.2180
 3788SOL    HW128974   2.356  10.966   2.504  0.8051  0.1745 -0.6486
 3788SOL    HW228975   2.483  10.927   2.577 -0.5731 -1.4821  0.9423
 3789SOL     OW28976  11.879   4.539   9.911 -0.2890 -0.3184 -0.4065
 3789SOL    HW128977  11.885   4.444   9.918 -1.3423 -0.2963  1.0789
 3789SOL    HW228978  11.948   4.562   9.848  0.4565 -1.9804 -0.2513
 3790SOL     OW28979   1.122   9.970   7.913 -0.1101  0.2403  0.2902
 3790SOL    HW128980   1.046   9.997   7.862 -0.7126  0.6920  1.4061
 3790SOL    HW228981   1.184  10.043   7.906 -0.0354  0.1392 -0.1037
 3791SOL     OW28982  13.605   5.084   5.007 -0.8137  0.1123 -0.2610
 3791SOL    HW128983  13.552   5.108   5.082 -0.7129  2.0553 -0.7714
 3791SOL    HW228984  13.685   5.135   5.016  1.2484 -3.0041  0.6762
 3792SOL     OW28985   2.411   7.856   0.519 -0.6743 -0.5091 -0.4404
 3792SOL    HW128986   2.444   7.780   0.472  0.2050 -0.6982  0.4583
 3792SOL    HW228987   2.489   7.906   0.543 -1.1919  0.2929 -0.3624
 3793SOL     OW28988   0.051   2.989  10.707 -0.4501 -0.1216 -0.3392
 3793SOL    HW128989   0.095   3.048  10.768  1.3352 -0.9232 -0.7987
 3793SOL    HW228990   0.022   2.916  10.762 -0.9716  0.2773 -0.0794
 3794SOL     OW28991  10.041   1.027   2.118 -0.0939  0.4034 -0.5963
 3794SOL    HW128992  10.088   1.070   2.046 -0.3852  2.3642  0.3100
 3794SOL    HW228993   9.958   1.000   2.080  0.4537 -0.1732 -1.4098
 3795SOL     OW28994   2.865  12.387  10.439 -0.1093  0.4244  0.2465
 3795SOL    HW128995   2.902  12.449  10.501 -2.0882  2.5455 -0.5764
 3795SOL    HW228996   2.771  12.391  10.454 -0.3405 -2.6629  0.3469
 3796SOL     OW28997   5.787   4.512   6.276 -0.2637  0.0677  0.7965
 3796SOL    HW128998   5.853   4.569   6.316  0.6208  0.4042 -1.0361
 3796SOL    HW228999   5.709   4.567   6.270  0.5264  1.1047 -0.7787
 3797SOL     OW29000  12.906  12.985   4.522  0.9651 -0.7703  0.8916
 3797SOL    HW129001  12.955  13.046   4.466 -0.2206 -0.8172 -0.2488
 3797SOL    HW229002  12.871  13.039   4.592  0.7303 -0.3002  0.4216
 3798SOL     OW29003   7.730  10.883   6.680  0.3259 -0.5820  0.3153
 3798SOL    HW129004   7.812  10.931   6.694 -1.3871  2.2147  1.6184
 3798SOL    HW229005   7.751  10.818   6.613  3.3111  0.7779 -0.2218
 3799SOL     OW29006   0.249  10.639   5.757 -0.2602 -0.3609  0.1602
 3799SOL    HW129007   0.197  10.632   5.837 -0.5836  0.7726  0.0670
 3799SOL    HW229008   0.315  10.570   5.765 -0.5765 -0.5586  1.1842
 3800SOL     OW29009  11.391   2.589   6.338  0.2405 -0.0988 -0.2045
 3800SOL    HW129010  11.448   2.647   6.388  1.3211 -0.3509 -1.1051
 3800SOL    HW229011  11.365   2.521   6.400  0.9415  0.0109  0.2190
 3801SOL     OW29012   5.640   4.024   0.564  0.1007 -0.0111  0.3192
 3801SOL    HW129013   5.671   4.109   0.533 -1.2402  0.1232 -0.7412
 3801SOL    HW229014   5.545   4.034   0.571  0.0646 -0.9836  1.6268
 3802SOL     OW29015  10.749  13.224   2.821  0.2599 -0.5890 -0.1333
 3802SOL    HW129016  10.802  13.164   2.874 -2.3466 -1.5596  1.6110
 3802SOL    HW229017  10.716  13.170   2.749 -0.6185 -0.8274  0.4210
 3803SOL     OW29018  13.223   8.524   9.651 -0.0525  0.4565 -0.1517
 3803SOL    HW129019  13.211   8.431   9.634 -0.9633  0.6162 -0.4199
 3803SOL    HW229020  13.270   8.556   9.574 -1.0469  0.4966 -0.7529
 3804SOL     OW29021   5.198  13.711   0.483 -0.0258 -0.1588  0.1320
 3804SOL    HW129022   5.108  13.689   0.456 -0.1488 -1.2820  1.3321
 3804SOL    HW229023   5.194  13.803   0.507 -0.9422 -0.2633  0.4237
 3805SOL     OW29024   7.644   9.838  11.618 -0.2568  0.0012 -0.0607
 3805SOL    HW129025   7.642   9.933  11.617  0.5405  0.0389  0.6176
 3805SOL    HW229026   7.673   9.815  11.706 -0.1076 -0.8571 -0.3168
 3806SOL     OW29027   1.854   4.223  11.532  0.5430 -0.0840  0.3618
 3806SOL    HW129028   1.832   4.131  11.545  0.7004  0.0003  1.2774
 3806SOL    HW229029   1.916   4.223  11.459  1.0660 -0.7725  0.7989
 3807SOL     OW29030   2.506   2.370  13.289  0.4005  0.2257 -0.2703
 3807SOL    HW129031   2.534   2.400  13.376  0.3162  0.7690 -0.4224
 3807SOL    HW229032   2.490   2.277  13.299 -0.2860  0.4140  0.4832
 3808SOL     OW29033  10.187   5.084   4.062  0.6463 -0.3713  0.7495
 3808SOL    HW129034  10.183   5.056   3.971 -0.7441 -0.8051  0.9176
 3808SOL    HW229035  10.137   5.165   4.064  0.7311 -0.3269  1.1164
 3809SOL     OW29036   0.521   8.784   3.748  0.4148 -0.0229 -0.4464
 3809SOL    HW129037   0.605   8.798   3.704  0.5464  1.2983  0.1820
 3809SOL    HW229038   0.500   8.868   3.787 -0.1342 -0.8986  1.2736
 3810SOL     OW29039   5.485  11.697   0.975  0.2708 -0.0824  0.4850
 3810SOL    HW129040   5.445  11.782   0.994  0.7402  0.1520  0.4368
 3810SOL    HW229041   5.513  11.703   0.884 -1.2433 -0.9198 -0.0811
 3811SOL     OW29042   6.929   2.004  10.211  0.2486  0.0427 -0.5405
 3811SOL    HW129043   6.946   1.911  10.197  0.5954 -0.0584  0.5115
 3811SOL    HW229044   7.009   2.048  10.183  1.2699 -0.2215  1.7178
 3812SOL     OW29045   0.979  11.855   2.855 -0.1058  0.0899  0.4715
 3812SOL    HW129046   1.030  11.920   2.904  1.1940 -0.2769 -0.3286
 3812SOL    HW229047   1.008  11.866   2.764 -0.8980 -0.6685  0.1162
 3813SOL     OW29048   6.626  10.543   4.234 -0.0195 -0.0360  0.5439
 3813SOL    HW129049   6.632  10.592   4.152 -1.9431 -0.6394 -0.0085
 3813SOL    HW229050   6.633  10.610   4.302  1.6135  0.4712 -0.0649
 3814SOL     OW29051   3.629   6.515  12.284 -0.1762  0.3873 -0.4786
 3814SOL    HW129052   3.567   6.512  12.357  2.5165 -0.9686  1.9642
 3814SOL    HW229053   3.648   6.423  12.265 -2.3274  0.5446 -4.5127
 3815SOL     OW29054   9.122  10.296  12.395 -0.0990  0.1065  0.0448
 3815SOL    HW129055   9.172  10.269  12.317 -0.3863  1.3619 -0.6110
 3815SOL    HW229056   9.034  10.264  12.379  0.1409 -0.8151  0.5056
 3816SOL     OW29057   7.197   1.208   1.200 -0.3708  0.1038  0.0001
 3816SOL    HW129058   7.130   1.271   1.173 -0.5182 -0.5349 -1.1697
 3816SOL    HW229059   7.148   1.128   1.221 -0.1597  0.2710  1.2087
 3817SOL     OW29060   1.135   1.650   2.455  0.1848 -0.0645  0.2622
 3817SOL    HW129061   1.050   1.607   2.456  0.5859 -0.8603  1.2352
 3817SOL    HW229062   1.178   1.615   2.377 -0.4469  0.5074 -0.3577
 3818SOL     OW29063   3.362   7.555   0.673  0.1843 -0.1692 -0.0120
 3818SOL    HW129064   3.373   7.594   0.759 -0.8840  0.2284 -0.0483
 3818SOL    HW229065   3.432   7.594   0.620  0.7664 -0.3265  0.6268
 3819SOL     OW29066   5.637  11.247   4.300 -0.2276 -0.0776  0.3733
 3819SOL    HW129067   5.615  11.250   4.393 -0.3980 -0.5983  0.3567
 3819SOL    HW229068   5.707  11.181   4.295  0.0519  0.2286  0.1805
 3820SOL     OW29069  12.671   3.835  12.549  0.7595 -0.3546 -0.3221
 3820SOL    HW129070  12.748   3.892  12.547  1.5325 -1.3876 -0.8299
 3820SOL    HW229071  12.668   3.803  12.639  0.9470 -0.3389 -0.3090
 3821SOL     OW29072   0.287   3.993  12.509 -0.2447 -0.1179 -0.2925
 3821SOL    HW129073   0.207   3.967  12.556 -1.0292  2.2979 -0.1712
 3821SOL    HW229074   0.343   3.916  12.514 -1.0384 -0.6462  2.9805
 3822SOL     OW29075   7.646   9.983   8.406 -0.5465  0.0698 -0.3936
 3822SOL    HW129076   7.694  10.051   8.358 -0.0372 -0.6320 -0.9062
 3822SOL    HW229077   7.610   9.927   8.338 -3.1084  1.1847 -0.0764
 3823SOL     OW29078   5.694   7.973   5.092  0.2208  0.0193 -0.1216
 3823SOL    HW129079   5.709   7.919   5.014  1.8228 -1.3497  1.0710
 3823SOL    HW229080   5.770   7.957   5.148 -1.0401  0.6800  1.8953
 3824SOL     OW29081   0.606   6.795   4.731 -0.0224 -0.5568 -0.5922
 3824SOL    HW129082   0.696   6.827   4.733  0.4740 -1.8845  1.3255
 3824SOL    HW229083   0.615   6.700   4.733 -1.3572 -0.7747  3.3611
 3825SOL     OW29084   4.958   4.709   9.972  0.4962  0.2681 -0.3348
 3825SOL    HW129085   4.995   4.687   9.886 -0.3757 -0.0505 -0.6455
 3825SOL    HW229086   4.931   4.800   9.964 -0.4472 -0.0306 -0.7329
 3826SOL     OW29087   8.416  11.325   1.939 -0.0062 -0.2120  0.9138
 3826SOL    HW129088   8.366  11.272   2.002 -0.1545 -0.0974  0.8933
 3826SOL    HW229089   8.440  11.404   1.988 -0.7094  0.1889  0.6295
 3827SOL     OW29090   3.544   1.384   0.368 -0.2850  0.1087 -0.3318
 3827SOL    HW129091   3.502   1.307   0.330  1.8433 -1.9928  1.2868
 3827SOL    HW229092   3.471   1.438   0.399 -1.8530 -1.7415 -0.5982
 3828SOL     OW29093  12.481   2.544   1.993  0.2175  0.4711  0.2378
 3828SOL    HW129094  12.482   2.461   1.946 -1.7966  1.1436 -1.1513
 3828SOL    HW229095  12.573   2.564   2.008  0.8083 -1.2582 -0.7843
 3829SOL     OW29096  11.102  12.736   7.874 -0.0725 -0.5531 -0.3746
 3829SOL    HW129097  11.014  12.748   7.839 -0.1785 -1.1116 -0.3083
 3829SOL    HW229098  11.158  12.739   7.796 -0.2956 -1.6437 -0.6038
 3830SOL     OW29099   3.345   8.340  11.822 -0.1167 -0.0903  0.4509
 3830SOL    HW129100   3.417   8.350  11.884 -0.5301  0.8345  0.7926
 3830SOL    HW229101   3.374   8.388  11.744 -0.9138  1.4276  1.0697
 3831SOL     OW29102   6.261   2.684  10.375  0.3606 -0.1516 -0.1266
 3831SOL    HW129103   6.194   2.735  10.329  1.3077 -0.0369 -1.4429
 3831SOL    HW229104   6.242   2.698  10.467 -0.1054  1.6537 -0.4603
 3832SOL     OW29105   2.490  13.735  11.785 -0.6376  0.3650 -0.3144
 3832SOL    HW129106   2.405  13.747  11.827  0.6030 -1.4604  3.1207
 3832SOL    HW229107   2.539  13.814  11.807 -0.5741  0.1972  0.1602
 3833SOL     OW29108   0.564   1.357   5.308 -0.2801 -0.0208 -0.1340
 3833SOL    HW129109   0.567   1.451   5.324  0.7796  0.1260 -1.0897
 3833SOL    HW229110   0.556   1.349   5.213 -0.6039 -0.9035 -0.0465
 3834SOL     OW29111   3.194   3.847   8.381 -0.6406 -0.2943  0.2188
 3834SOL    HW129112   3.220   3.936   8.404 -0.2887 -0.8687  2.2098
 3834SOL    HW229113   3.227   3.834   8.292  0.1826  1.2022  0.2788
 3835SOL     OW29114  13.328   9.915   9.910 -0.1757  0.5759 -1.2634
 3835SOL    HW129115  13.351   9.944   9.822  0.5370 -0.5021 -1.4561
 3835SOL    HW229116  13.336   9.819   9.907 -1.4710  0.4060 -0.3966
 3836SOL     OW29117   3.705   7.550   6.965 -0.6333 -0.0950  0.4469
 3836SOL    HW129118   3.668   7.636   6.982 -1.9311 -0.5231 -0.1238
 3836SOL    HW229119   3.638   7.503   6.915  0.1955 -1.3130  0.4088
 3837SOL     OW29120   7.200   9.627   0.619  0.2828 -0.8902  0.1505
 3837SOL    HW129121   7.201   9.540   0.580  0.6863 -1.3783  1.2009
 3837SOL    HW229122   7.135   9.676   0.568  2.4476 -0.7165 -2.7020
 3838SOL     OW29123  11.257   0.576  11.636 -0.2022  0.2405  0.5342
 3838SOL    HW129124  11.239   0.615  11.550  1.7064  0.3838  0.1444
 3838SOL    HW229125  11.190   0.508  11.646 -0.9702  0.7816 -0.6892
 3839SOL     OW29126   2.023   2.925   6.003  0.1297 -0.1681  0.1083
 3839SOL    HW129127   1.983   2.905   6.088 -1.6255 -1.5846 -0.9903
 3839SOL    HW229128   1.973   2.873   5.940  1.1966  1.0671 -1.8468
 3840SOL     OW29129   0.434   7.750  11.785 -0.3639 -0.1330 -0.2294
 3840SOL    HW129130   0.481   7.697  11.720 -0.9200 -1.0105  0.0549
 3840SOL    HW229131   0.408   7.687  11.853 -0.2391  0.6788  0.5893
 3841SOL     OW29132   7.419   4.365  13.965 -0.3706 -0.3227 -0.1870
 3841SOL    HW129133   7.455   4.284  14.003 -1.6773 -0.6187  0.4903
 3841SOL    HW229134   7.478   4.385  13.892  2.9705  0.9131  2.5598
 3842SOL     OW29135   0.138   6.996  14.053 -0.2285  0.1386  0.1402
 3842SOL    HW129136   0.166   6.929  13.991 -0.0026  1.2524 -1.0155
 3842SOL    HW229137   0.063   7.038  14.010 -1.4027 -0.4018  1.5606
 3843SOL     OW29138  12.603   7.287   1.933 -0.1824  0.0427  0.3773
 3843SOL    HW129139  12.589   7.354   2.000 -0.2931 -0.2891  0.6882
 3843SOL    HW229140  12.525   7.293   1.877  0.1799  0.7087 -0.0600
 3844SOL     OW29141   7.758  10.706   4.817  0.2375 -0.2113 -0.2969
 3844SOL    HW129142   7.784  10.672   4.732  0.6680 -0.0582 -0.2309
 3844SOL    HW229143   7.706  10.784   4.798  0.3306 -0.1798 -0.4227
 3845SOL     OW29144  13.085  12.360   4.128 -0.1066  0.3094  0.3646
 3845SOL    HW129145  13.145  12.306   4.077 -2.1863 -0.1685 -1.7108
 3845SOL    HW229146  13.089  12.447   4.088 -0.6110  0.3364  0.3586
 3846SOL     OW29147   0.366   0.367   8.983 -0.1381  0.3234 -0.0122
 3846SOL    HW129148   0.390   0.294   9.041  0.8658  2.0115  1.8062
 3846SOL    HW229149   0.436   0.369   8.917 -0.4064 -0.5763 -0.3495
 3847SOL     OW29150  11.459   8.920  13.518 -0.1920 -0.1371 -0.2804
 3847SOL    HW129151  11.435   8.920  13.425  0.6343  0.6944 -0.5174
 3847SOL    HW229152  11.447   8.830  13.546 -0.5881 -0.3723 -1.1614
 3848SOL     OW29153   8.067   2.151   7.844 -0.1237  0.5503  0.1058
 3848SOL    HW129154   7.996   2.088   7.830  1.1072 -1.4032  2.0261
 3848SOL    HW229155   8.101   2.130   7.931  1.6855  2.5830 -0.0231
 3849SOL     OW29156   5.083   9.942   2.314  0.0928  0.0819 -0.5057
 3849SOL    HW129157   5.052  10.030   2.336  0.4279  0.5167 -1.7142
 3849SOL    HW229158   5.067   9.934   2.220  0.4692 -0.9861 -0.4826
 3850SOL     OW29159  13.168   3.047   0.591 -0.0049 -0.0181  0.4511
 3850SOL    HW129160  13.152   3.118   0.528 -1.6468 -0.7153  0.0267
 3850SOL    HW229161  13.150   2.967   0.541 -0.4125 -0.6246  1.5484
 3851SOL     OW29162   2.492   1.980   7.687 -1.1696 -0.2645 -0.4985
 3851SOL    HW129163   2.407   1.984   7.731 -1.1509  0.4600 -0.5165
 3851SOL    HW229164   2.517   1.887   7.691 -1.0838 -0.2008  1.1690
 3852SOL     OW29165  13.448   1.368   5.267  0.5560 -0.3913  0.2722
 3852SOL    HW129166  13.355   1.345   5.270  0.7082 -1.3775 -1.1318
 3852SOL    HW229167  13.488   1.296   5.218  2.2812 -0.6082  1.8960
 3853SOL     OW29168   2.720   5.805   8.444  1.1617 -0.6121  0.1556
 3853SOL    HW129169   2.673   5.772   8.521  0.5082  1.3156  0.6539
 3853SOL    HW229170   2.811   5.815   8.474  0.7522  0.9390  1.0180
 3854SOL     OW29171   1.036  12.180  11.162 -0.1962 -0.0202 -0.0346
 3854SOL    HW129172   1.030  12.122  11.238  1.4853  1.1241  1.0401
 3854SOL    HW229173   1.089  12.131  11.099  1.1185  0.2453  0.8175
 3855SOL     OW29174   3.060   3.767  12.288  0.0192 -0.0621 -0.6976
 3855SOL    HW129175   3.152   3.792  12.285  0.0034 -0.0502 -1.2836
 3855SOL    HW229176   3.041   3.757  12.381  1.0530 -1.6717 -0.6066
 3856SOL     OW29177   6.757   0.974  11.076  0.2331  0.7484 -0.2014
 3856SOL    HW129178   6.816   0.910  11.036 -0.5006 -1.7142  2.3503
 3856SOL    HW229179   6.814   1.045  11.104  2.4510 -2.0473  3.2774
 3857SOL     OW29180  10.794   4.830  13.719  0.3531 -0.5674  0.3785
 3857SOL    HW129181  10.794   4.920  13.688  0.0325 -0.8809 -0.5600
 3857SOL    HW229182  10.742   4.782  13.655 -0.9270 -1.1148  1.7771
 3858SOL     OW29183  12.716   0.702   1.169 -0.3814  0.2647 -0.0510
 3858SOL    HW129184  12.700   0.795   1.153  3.4681  0.8045 -2.0499
 3858SOL    HW229185  12.756   0.699   1.256 -2.0009  0.2045  0.7155
 3859SOL     OW29186   2.959   6.356   8.244  0.1708  0.2345  0.2165
 3859SOL    HW129187   3.052   6.373   8.259  0.1105  1.0509 -0.2268
 3859SOL    HW229188   2.957   6.267   8.208  0.9243  0.6505 -0.9547
 3860SOL     OW29189   0.654  12.555  11.120  0.6341  0.1218  0.5052
 3860SOL    HW129190   0.571  12.522  11.155  0.9993 -1.0538  0.3227
 3860SOL    HW229191   0.628  12.622  11.056 -0.1775 -0.3025  0.3677
 3861SOL     OW29192   9.585   5.124  12.372 -0.3597 -0.0015 -0.0299
 3861SOL    HW129193   9.659   5.113  12.432 -0.8149 -1.6700  0.2941
 3861SOL    HW229194   9.578   5.219  12.359  1.2210  0.2419  0.6842
 3862SOL     OW29195  11.280  10.643   8.884  0.6420  0.0266 -0.3226
 3862SOL    HW129196  11.286  10.651   8.979 -0.2551  1.1712 -0.3509
 3862SOL    HW229197  11.371  10.655   8.854  0.5577  2.4945  0.2206
 3863SOL     OW29198   2.236  10.945   0.709 -0.0512 -0.2469 -0.1256
 3863SOL    HW129199   2.195  10.863   0.682  1.2179 -1.1790  0.6652
 3863SOL    HW229200   2.256  10.990   0.627 -1.5041 -0.3403 -0.5478
 3864SOL     OW29201   5.559   2.571   2.507 -0.0872  0.3264  0.3362
 3864SOL    HW129202   5.591   2.495   2.458 -0.6300 -2.6540  4.1674
 3864SOL    HW229203   5.488   2.606   2.454  0.3107 -1.7028 -1.6772
 3865SOL     OW29204   0.844   6.259   8.057 -0.1234 -0.9977  0.4686
 3865SOL    HW129205   0.753   6.273   8.081 -0.5002 -0.8523 -0.9531
 3865SOL    HW229206   0.846   6.171   8.019  0.1703 -0.7184 -0.1809
 3866SOL     OW29207   4.533   5.734   2.315  0.1604  0.1285  0.2296
 3866SOL    HW129208   4.536   5.769   2.226 -3.1297  1.4773  0.4935
 3866SOL    HW229209   4.492   5.648   2.306 -1.2696  0.7501  0.4656
 3867SOL     OW29210  12.890  10.992  13.008  0.1492  0.2623  0.0773
 3867SOL    HW129211  12.823  11.055  12.983 -1.4296 -0.1793  2.7355
 3867SOL    HW229212  12.954  11.043  13.058 -0.5239  0.0270  1.2303
 3868SOL     OW29213  12.474   2.237   5.430 -0.6528  0.2960 -0.0115
 3868SOL    HW129214  12.424   2.155   5.435  0.3856 -0.3055  1.1447
 3868SOL    HW229215  12.533   2.233   5.505 -1.5245  2.7652  0.9010
 3869SOL     OW29216   3.950   7.601   0.151  0.1124  0.4002  0.5189
 3869SOL    HW129217   3.869   7.615   0.102  1.1922  0.6521 -1.2639
 3869SOL    HW229218   4.017   7.587   0.084  1.2841 -1.4222  1.9581
 3870SOL     OW29219   1.881  10.152  10.219 -0.3199 -0.5226 -0.1895
 3870SOL    HW129220   1.870  10.173  10.126  0.3490  1.9721  0.2407
 3870SOL    HW229221   1.791  10.147  10.253 -0.5519  0.7357 -0.5570
 3871SOL     OW29222   1.971  11.713   9.149  0.3250 -0.1455  0.4754
 3871SOL    HW129223   1.878  11.732   9.159  0.1717 -1.3096  1.4769
 3871SOL    HW229224   1.986  11.714   9.054 -0.8626 -0.6906  0.2735
 3872SOL     OW29225  10.330  13.721   8.603  0.3865  0.2419 -0.0310
 3872SOL    HW129226  10.380  13.647   8.636 -1.0947  0.1441  2.2459
 3872SOL    HW229227  10.243  13.711   8.643 -0.7589  1.6361 -1.9849
 3873SOL     OW29228   0.236   2.078   6.635 -0.1635 -0.7137  0.7171
 3873SOL    HW129229   0.183   2.003   6.609 -0.1276 -0.4906 -0.0244
 3873SOL    HW229230   0.295   2.093   6.561  0.0977 -0.1963  1.0193
 3874SOL     OW29231  12.945  11.428   6.210  0.0068 -0.3402  0.0241
 3874SOL    HW129232  12.918  11.338   6.229  1.2017 -0.6359  0.3680
 3874SOL    HW229233  13.039  11.430   6.226  0.0242  0.9533 -0.0741
 3875SOL     OW29234   1.101  12.606   9.377  0.3398  0.4886  0.4206
 3875SOL    HW129235   1.036  12.564   9.434  2.2974  0.5637  2.9054
 3875SOL    HW229236   1.051  12.666   9.323 -1.5594  1.7435  3.3366
 3876SOL     OW29237  11.521   5.023   7.717  0.0629  0.1768 -0.1780
 3876SOL    HW129238  11.525   4.934   7.683  0.0877 -0.2498  0.9274
 3876SOL    HW229239  11.506   5.077   7.639  1.0776 -0.6779 -0.9992
 3877SOL     OW29240   5.524  12.804   6.978 -0.1472 -0.0356  0.0060
 3877SOL    HW129241   5.616  12.810   6.954  0.1289 -3.1260 -0.0517
 3877SOL    HW229242   5.486  12.743   6.916 -2.1217  0.6433  0.4478
 3878SOL     OW29243   3.649   2.723   1.195  0.1476  0.2087  0.4560
 3878SOL    HW129244   3.561   2.738   1.159  0.3061  2.7774  0.9513
 3878SOL    HW229245   3.676   2.640   1.157 -2.1949 -0.2998 -0.2984
 3879SOL     OW29246  10.522  11.875   8.189  0.0025 -0.3612 -0.2491
 3879SOL    HW129247  10.512  11.788   8.150 -0.2119 -0.1701 -0.6242
 3879SOL    HW229248  10.581  11.921   8.129 -1.5437  0.4492 -1.2166
 3880SOL     OW29249  13.827   0.407   9.445  0.5987 -0.0608  0.5362
 3880SOL    HW129250  13.819   0.417   9.540 -1.1968 -0.9676  0.5249
 3880SOL    HW229251  13.852   0.495   9.414 -0.1441  0.6041  1.7277
 3881SOL     OW29252   3.728   7.488   4.192  0.2411 -0.4758  0.2667
 3881SOL    HW129253   3.674   7.565   4.212  0.4183 -0.3154  0.1368
 3881SOL    HW229254   3.799   7.491   4.257  1.1769  0.4044 -0.7351
 3882SOL     OW29255   9.156   6.187   3.405 -1.1016  0.4282 -0.1591
 3882SOL    HW129256   9.103   6.266   3.416  0.5348  1.8447 -1.8465
 3882SOL    HW229257   9.127   6.150   3.322 -1.0002 -0.0635  0.0229
 3883SOL     OW29258   0.209   8.732   7.582  0.1796  0.7272 -0.1666
 3883SOL    HW129259   0.162   8.673   7.641  1.5536 -1.2226 -0.9117
 3883SOL    HW229260   0.165   8.816   7.592 -1.0429 -0.0787  1.9362
 3884SOL     OW29261  12.579   2.459   0.868 -0.1659  0.3805 -0.2792
 3884SOL    HW129262  12.513   2.425   0.807 -0.1662  1.2380 -0.7690
 3884SOL    HW229263  12.581   2.553   0.851  0.9758  0.4060 -0.0631
 3885SOL     OW29264   4.488   8.068   2.824  0.0579 -1.0208  0.3066
 3885SOL    HW129265   4.458   8.086   2.913  3.1936 -1.2921  1.5345
 3885SOL    HW229266   4.580   8.093   2.824 -0.1181  0.1970 -3.2964
 3886SOL     OW29267  10.295  13.167  10.262 -0.0279 -0.1490 -0.1876
 3886SOL    HW129268  10.324  13.092  10.210  1.4496  0.0647  0.2701
 3886SOL    HW229269  10.279  13.236  10.198  0.7225 -0.2135 -0.4523
 3887SOL     OW29270  10.884  13.105   0.116 -0.1006 -0.4482 -0.4405
 3887SOL    HW129271  10.884  13.200   0.124  0.8437 -0.2914 -1.8719
 3887SOL    HW229272  10.976  13.080   0.116 -0.3437 -1.4473  0.5468
 3888SOL     OW29273  12.134   8.804   3.201  0.0662  0.4632 -0.4747
 3888SOL    HW129274  12.149   8.892   3.166  0.5033 -0.0389 -1.5986
 3888SOL    HW229275  12.125   8.749   3.123 -1.4113 -0.2978  0.2090
 3889SOL     OW29276   6.715   2.116   5.382 -0.2165  0.6430 -0.3594
 3889SOL    HW129277   6.746   2.101   5.471  1.0019  0.0913 -0.8632
 3889SOL    HW229278   6.752   2.044   5.331 -0.3176  1.3444 -1.4453
 3890SOL     OW29279   3.056   7.161   9.478  0.2358  0.3289  0.0872
 3890SOL    HW129280   2.982   7.103   9.462  1.3217 -0.4608 -2.5698
 3890SOL    HW229281   3.022   7.227   9.539 -2.3310 -0.5489 -0.2919
 3891SOL     OW29282   8.529   3.674   6.415  0.0558  0.1862  0.3440
 3891SOL    HW129283   8.530   3.579   6.428  1.5633 -0.1964 -2.0347
 3891SOL    HW229284   8.437   3.699   6.427 -0.1765 -1.3115  2.3063
 3892SOL     OW29285   0.434  12.047   2.597  0.6950 -0.3226 -0.1458
 3892SOL    HW129286   0.350  12.065   2.555  1.4336  0.7470 -1.2203
 3892SOL    HW229287   0.494  12.114   2.563  1.7656 -0.4678  1.3157
 3893SOL     OW29288   4.045  10.333   7.062 -1.4027  0.3435  0.1100
 3893SOL    HW129289   3.986  10.373   7.125 -0.5337  1.5386  0.2044
 3893SOL    HW229290   4.117  10.396   7.053 -0.8653 -0.4016 -1.0883
 3894SOL     OW29291   7.409   6.369   8.870 -0.0510 -0.6438 -0.0052
 3894SOL    HW129292   7.376   6.421   8.797  1.0352  0.0873  0.0015
 3894SOL    HW229293   7.437   6.434   8.935  2.4529 -1.1335 -0.4799
 3895SOL     OW29294   1.463   6.839   6.388 -0.4881  0.4849 -0.1641
 3895SOL    HW129295   1.510   6.912   6.429 -0.3751  0.8572 -0.9424
 3895SOL    HW229296   1.462   6.771   6.455  1.0234  0.5248 -0.0491
 3896SOL     OW29297  12.965   2.945   1.749 -0.0119 -0.3316 -0.0038
 3896SOL    HW129298  12.933   3.029   1.714 -0.6945 -0.3451  0.5613
 3896SOL    HW229299  13.058   2.961   1.768 -0.2491  0.4498  0.5492
 3897SOL     OW29300   6.276   1.756  12.074  0.3533  0.3382 -0.3619
 3897SOL    HW129301   6.298   1.815  12.003 -0.2676 -0.2635 -1.0727
 3897SOL    HW229302   6.194   1.791  12.111 -1.9255 -1.8039 -2.9284
 3898SOL     OW29303  12.588   6.037   1.470 -0.2841  0.1164 -0.2133
 3898SOL    HW129304  12.655   5.987   1.518 -0.6153 -1.1191 -0.9934
 3898SOL    HW229305  12.617   6.128   1.478  0.4761 -0.1965  1.0437
 3899SOL     OW29306   3.541  11.366  10.836 -0.3244  0.0570  0.3569
 3899SOL    HW129307   3.498  11.432  10.782  0.1388  0.4431  0.4513
 3899SOL    HW229308   3.548  11.290  10.779 -1.5369 -0.1752  0.4827
 3900SOL     OW29309   9.680   4.799   7.097 -0.7782 -0.3377  0.4468
 3900SOL    HW129310   9.696   4.740   7.024  0.6803  0.4026  0.1077
 3900SOL    HW229311   9.695   4.746   7.175  1.8998 -0.1965  0.1529
 3901SOL     OW29312  12.518   8.238  13.844 -0.0675 -0.8027 -0.5129
 3901SOL    HW129313  12.437   8.219  13.796  0.0811 -2.2058 -0.2584
 3901SOL    HW229314  12.490   8.256  13.934 -0.0855 -1.6827 -0.3326
 3902SOL     OW29315   6.062  12.671   5.413  0.0544 -0.4871 -0.5995
 3902SOL    HW129316   6.046  12.667   5.319 -1.0237  0.5115 -0.4746
 3902SOL    HW229317   6.051  12.763   5.435 -0.7242 -0.8674  0.6788
 3903SOL     OW29318   2.264  11.918   3.117  0.1600 -0.4090 -0.2801
 3903SOL    HW129319   2.354  11.923   3.084  0.8993 -0.7002  1.5683
 3903SOL    HW229320   2.247  11.824   3.126 -1.1612 -0.4825 -2.5807
 3904SOL     OW29321   4.430  13.835  11.714  0.3308  0.3234 -0.2679
 3904SOL    HW129322   4.435  13.882  11.630  2.1926  1.1917  0.2685
 3904SOL    HW229323   4.498  13.768  11.708  0.0043 -0.0637  0.3016
 3905SOL     OW29324  10.389  12.403   3.827  0.3348  0.5129  0.2125
 3905SOL    HW129325  10.439  12.477   3.793  0.5171  0.3273  0.0674
 3905SOL    HW229326  10.388  12.415   3.922 -1.1509  1.6448  0.0709
 3906SOL     OW29327   2.879   7.450   6.735 -0.8074  0.3734 -0.1902
 3906SOL    HW129328   2.974   7.446   6.734 -0.7589 -1.6588  2.0925
 3906SOL    HW229329   2.858   7.499   6.815 -1.6406 -0.6291  0.2342
 3907SOL     OW29330   1.588   8.047   2.438 -0.1632 -0.3271 -0.5160
 3907SOL    HW129331   1.533   8.066   2.363  1.6158  1.6177 -1.4118
 3907SOL    HW229332   1.652   8.118   2.441  0.4094 -0.8184  2.3114
 3908SOL     OW29333  12.050  13.894   1.293  0.1942  0.1423  0.1588
 3908SOL    HW129334  11.966  13.937   1.305 -0.3523 -0.6010 -0.8057
 3908SOL    HW229335  12.106  13.960   1.252 -0.8939 -0.2726 -2.1109
 3909SOL     OW29336   0.659   3.964  10.289 -0.1609 -0.0540 -0.2841
 3909SOL    HW129337   0.616   4.028  10.232 -0.2070 -1.4198 -1.8327
 3909SOL    HW229338   0.720   3.918  10.232  0.7439 -0.6086  1.0735
 3910SOL     OW29339   1.738   2.760   9.291  0.4853 -0.1465  0.1503
 3910SOL    HW129340   1.714   2.808   9.211  1.4901  1.0955  0.5667
 3910SOL    HW229341   1.678   2.795   9.358  0.8799  0.1720  0.3414
 3911SOL     OW29342   9.928  12.416   9.303 -0.0528 -0.3985  0.4377
 3911SOL    HW129343   9.852  12.459   9.341 -0.7046 -0.5694 -0.6369
 3911SOL    HW229344   9.905  12.402   9.211  1.2208 -0.5845  0.1232
 3912SOL     OW29345   9.235  10.867  11.578 -0.3318 -0.2638 -0.0199
 3912SOL    HW129346   9.165  10.931  11.587 -0.0749  0.0727 -0.3392
 3912SOL    HW229347   9.193  10.790  11.538 -0.9013 -0.7791  1.5043
 3913SOL     OW29348   5.151  13.442   9.999 -0.0377 -0.0497  0.0921
 3913SOL    HW129349   5.195  13.366  10.037 -0.3308 -0.1940  0.1406
 3913SOL    HW229350   5.152  13.508  10.068  1.9885  0.7060 -0.5829
 3914SOL     OW29351  12.036   6.031   1.451  0.4492 -0.7022  0.2589
 3914SOL    HW129352  12.009   5.983   1.373  1.4674 -0.2202 -0.4110
 3914SOL    HW229353  12.129   6.050   1.437  0.0690  1.6053  0.3930
 3915SOL     OW29354  13.846   0.716  13.873  0.2113 -0.3720  0.1344
 3915SOL    HW129355  13.842   0.625  13.901 -1.0282 -0.3917 -0.0381
 3915SOL    HW229356  13.845   0.712  13.777  1.7888 -0.2128  0.0811
 3916SOL     OW29357   1.330  13.927  12.340  0.5611  0.5153 -0.1022
 3916SOL    HW129358   1.259  13.983  12.308 -0.0744 -0.0457  0.2970
 3916SOL    HW229359   1.324  13.934  12.435  2.4820  2.2341 -0.0366
 3917SOL     OW29360   1.950   6.213   8.368 -0.3720 -0.1882  0.0569
 3917SOL    HW129361   1.925   6.305   8.374  1.5675  0.4918 -1.3026
 3917SOL    HW229362   2.041   6.215   8.341  0.6033 -2.5185  2.7078
 3918SOL     OW29363   0.753   2.678   3.154 -0.2494  0.3304  0.1320
 3918SOL    HW129364   0.828   2.736   3.166  0.9497 -0.9688 -0.8303
 3918SOL    HW229365   0.781   2.594   3.189 -2.2176  0.4225  2.1847
 3919SOL     OW29366  11.988   4.177  13.935 -0.3925  0.2555  0.3895
 3919SOL    HW129367  11.897   4.152  13.952 -1.1626  1.6598 -1.4349
 3919SOL    HW229368  12.032   4.093  13.921 -1.4827 -0.4340  0.8936
 3920SOL     OW29369   5.018  11.331   3.336 -0.3797  0.4059  0.0348
 3920SOL    HW129370   5.110  11.305   3.332 -0.5114 -0.1545  0.6477
 3920SOL    HW229371   4.979  11.291   3.259  0.5120  3.2377 -2.0578
 3921SOL     OW29372   5.407   4.033   0.075  0.1298 -0.2772  0.0428
 3921SOL    HW129373   5.378   4.086   0.150 -1.5127 -0.4244 -0.4595
 3921SOL    HW229374   5.327   4.010   0.030  1.1035  0.0109 -1.9310
 3922SOL     OW29375   2.127   4.903   7.471 -0.2675  0.2656  0.2808
 3922SOL    HW129376   2.172   4.976   7.429  0.6419  1.3471  2.9247
 3922SOL    HW229377   2.193   4.834   7.477 -0.3469  0.1725  0.0918
 3923SOL     OW29378   1.058  12.131   9.158 -0.8859 -0.3907  0.6675
 3923SOL    HW129379   1.090  12.085   9.080 -0.1199 -0.5052  1.0447
 3923SOL    HW229380   1.100  12.086   9.231  0.0131  1.0097  1.0396
 3924SOL     OW29381   3.230   5.265  13.870  0.3970  0.3863  0.0371
 3924SOL    HW129382   3.252   5.294  13.782  0.9643 -0.4902 -0.1216
 3924SOL    HW229383   3.307   5.217  13.900  0.7589  1.8318  1.5511
 3925SOL     OW29384  13.615   3.796   0.589  0.6454  0.0049 -0.4388
 3925SOL    HW129385  13.651   3.739   0.521  1.1533  1.0189 -1.0491
 3925SOL    HW229386  13.692   3.832   0.633  0.3219 -0.4100  0.4907
 3926SOL     OW29387   8.633   3.888   6.889 -0.1875  0.5172 -0.3348
 3926SOL    HW129388   8.565   3.853   6.946  0.6060 -0.2692  0.1771
 3926SOL    HW229389   8.588   3.912   6.809 -0.5282 -4.9337 -2.2187
 3927SOL     OW29390   2.297   2.191   0.977  0.9265 -0.5575  0.2116
 3927SOL    HW129391   2.308   2.225   0.888  0.5317  1.6254  0.9392
 3927SOL    HW229392   2.235   2.119   0.967  0.8872 -0.3614 -1.2837
 3928SOL     OW29393   2.811  12.573   6.247  0.0465 -0.1641 -0.3589
 3928SOL    HW129394   2.840  12.572   6.338 -1.2037 -0.8471  0.0411
 3928SOL    HW229395   2.771  12.659   6.235  0.8017  0.1816 -0.4689
 3929SOL     OW29396   2.767   0.077   1.170 -0.2143  0.1502  0.0505
 3929SOL    HW129397   2.744   0.159   1.214  0.8618 -0.8703  2.7523
 3929SOL    HW229398   2.705   0.013   1.205  0.3404 -0.6169 -0.3399
 3930SOL     OW29399   6.478   9.366   5.337 -0.2705  0.0067  0.3146
 3930SOL    HW129400   6.483   9.412   5.253 -0.5840  0.0140  0.2989
 3930SOL    HW229401   6.570   9.358   5.365 -0.0953 -0.7984 -0.4618
 3931SOL     OW29402  12.088   2.861   6.023 -0.0481  0.0222 -0.1778
 3931SOL    HW129403  12.050   2.946   6.047 -0.8975 -0.4805  0.2815
 3931SOL    HW229404  12.018   2.816   5.977  0.2210 -0.6553  0.0750
 3932SOL     OW29405   2.649  13.483  13.137  0.0001  0.3603 -0.0043
 3932SOL    HW129406   2.705  13.558  13.118  1.3424 -0.7929 -0.8214
 3932SOL    HW229407   2.710  13.414  13.164 -1.2713 -0.1784  1.6591
 3933SOL     OW29408   0.172   3.379  12.316  0.5692 -0.0755 -0.1449
 3933SOL    HW129409   0.163   3.322  12.239  0.5010  0.0774 -0.2525
 3933SOL    HW229410   0.195   3.464  12.279  0.9808 -0.1068  0.0359
 3934SOL     OW29411   4.002   7.523   8.998 -0.1202  0.1759 -0.1276
 3934SOL    HW129412   3.952   7.445   8.977 -0.6100  0.3095  0.5059
 3934SOL    HW229413   3.944   7.573   9.057  0.6067  0.5044  0.3186
 3935SOL     OW29414   5.238  13.200   9.108 -0.4437  0.1537  0.4620
 3935SOL    HW129415   5.254  13.290   9.135 -0.2026  0.1909  0.2053
 3935SOL    HW229416   5.254  13.147   9.186  1.2563  0.1580  0.1611
 3936SOL     OW29417   7.184  10.750   2.343 -0.0653 -0.3313  0.2084
 3936SOL    HW129418   7.279  10.757   2.342  0.1145 -2.1190 -1.0282
 3936SOL    HW229419   7.160  10.745   2.250 -1.3084 -0.4991  0.5220
 3937SOL     OW29420   8.162   3.561   0.509  0.0154 -0.9917  0.1440
 3937SOL    HW129421   8.247   3.573   0.552 -1.0128 -0.7102  2.1978
 3937SOL    HW229422   8.129   3.479   0.544 -0.3762 -1.3564 -1.0324
 3938SOL     OW29423   0.586   2.943  12.993  0.6671 -0.2306  0.2121
 3938SOL    HW129424   0.668   2.894  12.988  1.8371  1.2984  2.5376
 3938SOL    HW229425   0.611   3.034  12.979 -0.8352  0.1637 -0.1055
 3939SOL     OW29426  11.967  14.064   8.248  0.6063 -0.2792  0.1010
 3939SOL    HW129427  12.055  14.098   8.230  0.7785 -0.8830 -0.2279
 3939SOL    HW229428  11.982  13.976   8.283  0.1246 -0.4940 -0.2226
 3940SOL     OW29429  10.891   0.168   4.664 -0.2898  0.7781  0.0104
 3940SOL    HW129430  10.902   0.113   4.741 -2.1969  0.9228  0.4468
 3940SOL    HW229431  10.980   0.190   4.636  0.7371 -3.7821 -1.1613
 3941SOL     OW29432   2.959  13.299  10.166 -0.4633  0.0551 -0.1760
 3941SOL    HW129433   2.980  13.393  10.170 -0.5886  0.1155 -0.7864
 3941SOL    HW229434   2.942  13.283  10.073 -2.8392 -0.0555  0.2282
 3942SOL     OW29435   9.471   1.680   5.254  0.1140 -0.1730 -0.6376
 3942SOL    HW129436   9.405   1.713   5.194 -1.5540  0.5383  1.4558
 3942SOL    HW229437   9.528   1.755   5.271 -1.1050  0.4920  0.7688
 3943SOL     OW29438   7.456  12.463  12.439  0.0611  0.8811  0.4453
 3943SOL    HW129439   7.461  12.538  12.380  0.4344 -0.3383 -1.1401
 3943SOL    HW229440   7.540  12.418  12.429 -1.1815 -1.3673 -0.9369
 3944SOL     OW29441  11.355   3.061   3.411  0.3422  0.2630 -0.3852
 3944SOL    HW129442  11.279   3.119   3.415  1.2295  1.4025  0.2838
 3944SOL    HW229443  11.317   2.975   3.390 -1.1116  0.8310 -0.2386
 3945SOL     OW29444  10.339   7.377   5.798 -0.5896 -0.1036  0.6292
 3945SOL    HW129445  10.419   7.324   5.795 -0.4297  0.1565 -0.9409
 3945SOL    HW229446  10.338   7.414   5.886  3.5659  3.5711 -0.4663
 3946SOL     OW29447   1.341  13.680   3.734 -0.1091 -0.2139  0.2026
 3946SOL    HW129448   1.296  13.714   3.811  0.0023  1.4939 -0.4264
 3946SOL    HW229449   1.282  13.700   3.661 -0.1080 -1.5853 -0.2060
 3947SOL     OW29450   6.931  10.784   4.843 -0.4416  0.2698  0.0830
 3947SOL    HW129451   6.852  10.732   4.860 -0.2128 -0.0034  0.3310
 3947SOL    HW229452   6.899  10.873   4.831 -0.5183  0.8359  3.5705
 3948SOL     OW29453   9.489  12.028   7.014 -0.2086  0.1498  0.1693
 3948SOL    HW129454   9.463  12.078   7.091 -0.9747  0.9930 -0.6218
 3948SOL    HW229455   9.577  11.996   7.036 -1.1929 -1.4049  2.2344
 3949SOL     OW29456   0.231  12.830  11.006 -0.5252 -0.0766 -0.0573
 3949SOL    HW129457   0.146  12.787  11.018  0.5562 -2.1677  0.5348
 3949SOL    HW229458   0.209  12.918  10.977 -2.9026 -0.4312  0.4767
 3950SOL     OW29459   9.719   4.591   6.892  0.1055  0.2962  0.0142
 3950SOL    HW129460   9.626   4.578   6.877 -0.2548  0.6623  1.6696
 3950SOL    HW229461   9.746   4.516   6.944  0.8996 -0.1302 -0.9790
 3951SOL     OW29462   6.247  13.370   5.333  0.6805  0.1051 -0.2195
 3951SOL    HW129463   6.332  13.413   5.343  0.1006  1.9488 -2.3508
 3951SOL    HW229464   6.186  13.441   5.314 -1.1421 -1.2958  0.1243
 3952SOL     OW29465  12.572   1.567   8.914  0.1378  0.3137 -0.5169
 3952SOL    HW129466  12.493   1.542   8.962  0.5106 -0.6042 -0.3638
 3952SOL    HW229467  12.643   1.558   8.977  0.2090  2.8346 -0.1145
 3953SOL     OW29468   0.880  11.534   1.751  0.3338  0.2255 -0.5628
 3953SOL    HW129469   0.843  11.622   1.748 -0.0644  0.1970  1.5591
 3953SOL    HW229470   0.805  11.477   1.767  0.7271 -0.3768 -0.8180
 3954SOL     OW29471   6.857  11.323  10.755  0.1649  0.0808 -0.1102
 3954SOL    HW129472   6.901  11.388  10.810 -2.3017  0.2111  1.9012
 3954SOL    HW229473   6.842  11.369  10.671  2.2557  0.5595 -0.2680
 3955SOL     OW29474   3.385  12.559   6.274 -0.2912 -0.3087  0.3091
 3955SOL    HW129475   3.438  12.520   6.343 -0.5096  0.5260  0.9722
 3955SOL    HW229476   3.303  12.582   6.317 -0.1881  0.8212 -0.0618
 3956SOL     OW29477   1.852   6.645   9.985  0.3274 -0.0836 -0.5248
 3956SOL    HW129478   1.940   6.608   9.978 -0.7954 -3.1892  0.1298
 3956SOL    HW229479   1.843   6.669  10.077  0.2739 -0.3753 -0.4531
 3957SOL     OW29480  12.597   5.154   7.994  0.3491 -0.4805  0.1150
 3957SOL    HW129481  12.638   5.138   7.908 -1.2502  0.3589 -0.8511
 3957SOL    HW229482  12.604   5.249   8.006  1.5998 -0.7149  1.5027
 3958SOL     OW29483  11.978   6.649  13.478  0.1210  0.2751  0.3879
 3958SOL    HW129484  12.047   6.688  13.425  1.6100 -1.4566  0.9534
 3958SOL    HW229485  11.964   6.710  13.550  0.7766  0.8355  0.0449
 3959SOL     OW29486   8.718   7.801   5.542 -0.2143 -0.4249  0.2739
 3959SOL    HW129487   8.744   7.892   5.533 -0.3161 -0.3630  0.6125
 3959SOL    HW229488   8.626   7.805   5.568  0.0116 -0.6045  1.1407
 3960SOL     OW29489  10.007   5.985   3.664 -0.1581 -0.0145  0.1179
 3960SOL    HW129490   9.989   5.893   3.647  0.3835  0.0552 -0.8960
 3960SOL    HW229491   9.923   6.030   3.649 -0.4405 -0.3425  0.6917
 3961SOL     OW29492   8.769   7.631   2.776  0.9284 -0.4602 -0.2759
 3961SOL    HW129493   8.855   7.629   2.735  0.9245 -0.1954 -0.2975
 3961SOL    HW229494   8.749   7.539   2.793  1.3030 -0.5101 -0.0843
 3962SOL     OW29495   1.151   8.345   2.807  0.0717  0.4376 -0.5922
 3962SOL    HW129496   1.144   8.250   2.819  0.1588  0.1952 -2.1979
 3962SOL    HW229497   1.190   8.377   2.888 -1.7750 -0.6299  0.7624
 3963SOL     OW29498   8.484   3.789  13.726 -0.0532 -0.2599  0.1446
 3963SOL    HW129499   8.476   3.710  13.673  1.5051  0.3152 -1.0582
 3963SOL    HW229500   8.409   3.843  13.701 -0.8449 -1.1361  0.6010
 3964SOL     OW29501   3.676   4.012   0.835  0.2097  0.1182  0.1748
 3964SOL    HW129502   3.667   3.930   0.787 -1.5361  0.9862 -1.1105
 3964SOL    HW229503   3.753   3.999   0.891  0.5775 -2.0011 -0.7196
 3965SOL     OW29504   5.691  10.832  12.848  0.1738 -0.1885 -0.3447
 3965SOL    HW129505   5.615  10.781  12.876 -0.0286  0.6759  0.7725
 3965SOL    HW229506   5.726  10.784  12.773 -2.5549  0.3660 -2.1099
 3966SOL     OW29507  14.042  13.461   7.602  0.4029  0.0680  0.2262
 3966SOL    HW129508  13.976  13.527   7.622 -0.8816 -0.6928 -1.3085
 3966SOL    HW229509  14.120  13.489   7.651 -1.0381  0.9475  2.1513
 3967SOL     OW29510  13.760   6.586   7.368  0.2002 -0.4337  0.4806
 3967SOL    HW129511  13.799   6.627   7.445 -0.3064  0.9789  0.0274
 3967SOL    HW229512  13.670   6.565   7.394 -0.9195  2.5588 -0.4214
 3968SOL     OW29513   2.712   8.314  10.225  0.1848 -0.1310  0.2713
 3968SOL    HW129514   2.756   8.294  10.143  3.1890  0.7925  1.5076
 3968SOL    HW229515   2.760   8.389  10.261 -1.1619 -0.3296  2.7326
 3969SOL     OW29516  13.262   1.374   8.327  0.3437 -0.2695  0.1686
 3969SOL    HW129517  13.199   1.323   8.378  0.2526  0.1066  0.4360
 3969SOL    HW229518  13.256   1.338   8.238 -0.1767 -0.3084  0.2161
 3970SOL     OW29519  10.515   4.218   2.465 -0.1933  0.4642 -0.4346
 3970SOL    HW129520  10.590   4.213   2.524  0.9081  3.0219 -1.4420
 3970SOL    HW229521  10.502   4.128   2.435  1.7993 -0.2405  0.5900
 3971SOL     OW29522   5.526  11.797   4.635  0.8157  0.0172 -0.4085
 3971SOL    HW129523   5.433  11.815   4.624  0.4099 -2.1566 -1.0508
 3971SOL    HW229524   5.568  11.836   4.559  0.4580  1.0565 -0.0876
 3972SOL     OW29525   2.334   1.712   3.659 -0.0840  0.1886  0.4306
 3972SOL    HW129526   2.304   1.751   3.577  1.1680  2.3046  0.9017
 3972SOL    HW229527   2.302   1.622   3.656 -2.7074  1.0531 -0.9776
 3973SOL     OW29528   3.985   0.394   7.336  0.8239  0.3983  0.2733
 3973SOL    HW129529   3.906   0.362   7.379  0.8990  0.5702  0.5458
 3973SOL    HW229530   3.954   0.450   7.266  0.6951 -0.0332 -0.0193
 3974SOL     OW29531  11.792  11.335   0.504  0.4912  0.4336 -0.7251
 3974SOL    HW129532  11.775  11.255   0.454  1.3803 -0.5121  0.4344
 3974SOL    HW229533  11.884  11.329   0.529  0.1201  0.9414  0.8677
 3975SOL     OW29534  11.758   9.017   3.975 -0.0698  0.3106 -0.4174
 3975SOL    HW129535  11.672   9.040   3.942 -0.5242 -0.1794  0.3976
 3975SOL    HW229536  11.747   9.011   4.070  1.3141  2.1907 -0.0777
 3976SOL     OW29537   1.273   1.887   5.461  0.0662  0.1722  0.5269
 3976SOL    HW129538   1.192   1.906   5.509 -0.3230  0.4303 -0.2213
 3976SOL    HW229539   1.245   1.839   5.383  0.7936 -1.1544  1.0514
 3977SOL     OW29540   2.022   6.698   3.564  0.2712 -0.1832 -0.5323
 3977SOL    HW129541   2.016   6.792   3.583  0.0950  0.0362 -1.6108
 3977SOL    HW229542   2.047   6.694   3.472  0.4338 -1.2037 -0.4555
 3978SOL     OW29543   2.042   6.296  11.842  0.2862 -0.7906 -0.4201
 3978SOL    HW129544   1.959   6.301  11.890 -1.1699 -1.5891 -2.6856
 3978SOL    HW229545   2.090   6.225  11.884 -0.7678 -1.2066  0.1184
 3979SOL     OW29546   5.640   4.238   3.229 -0.0041 -0.7163 -0.3926
 3979SOL    HW129547   5.735   4.243   3.215  0.0016 -1.8443 -0.9468
 3979SOL    HW229548   5.603   4.255   3.143 -0.2433 -1.4336 -0.4401
 3980SOL     OW29549   6.867  10.233   7.293  0.1138  0.4859 -0.4192
 3980SOL    HW129550   6.911  10.275   7.366 -0.0860  0.7765 -0.4635
 3980SOL    HW229551   6.859  10.302   7.227 -0.0191  0.3195 -0.5782
 3981SOL     OW29552  12.147   6.505   5.396  0.6900 -0.4241  0.6143
 3981SOL    HW129553  12.078   6.453   5.438  0.5148 -0.1442  0.6733
 3981SOL    HW229554  12.105   6.589   5.376  0.0843 -1.2528 -2.0935
 3982SOL     OW29555   4.452   8.163  13.309  0.4056 -0.3657  0.1453
 3982SOL    HW129556   4.408   8.200  13.385  0.8184  0.8925 -0.2012
 3982SOL    HW229557   4.545   8.164  13.332  0.3796 -1.9224  0.4207
 3983SOL     OW29558  14.070  13.538   5.256 -0.7027 -0.1809  0.5144
 3983SOL    HW129559  14.016  13.617   5.260 -0.2405  0.1628  0.1629
 3983SOL    HW229560  14.154  13.568   5.220 -0.4708 -0.8053  0.5148
 3984SOL     OW29561   6.108   1.370  12.625 -0.4886 -0.9763  0.4785
 3984SOL    HW129562   6.180   1.344  12.567 -1.8862 -2.5396 -0.6477
 3984SOL    HW229563   6.094   1.463  12.606 -0.8860 -1.4439 -1.7122
 3985SOL     OW29564   7.566  11.022   1.698  0.4285  0.4611 -0.7140
 3985SOL    HW129565   7.528  11.110   1.701  1.4549  0.9023  0.2351
 3985SOL    HW229566   7.500  10.967   1.740 -0.7781  0.5191 -2.4307
 3986SOL     OW29567   2.684  11.039   8.705  0.3943  0.4216 -0.1886
 3986SOL    HW129568   2.699  11.083   8.622  0.0986  0.9779  0.0452
 3986SOL    HW229569   2.618  10.973   8.686  2.0500 -1.1014 -0.9167
 3987SOL     OW29570  14.088  13.216   7.463 -0.3911 -0.6814 -0.2649
 3987SOL    HW129571  14.079  13.299   7.510 -0.3932 -0.1593 -1.1635
 3987SOL    HW229572  14.176  13.186   7.484 -0.1021 -0.0564 -0.5576
 3988SOL     OW29573   2.915   1.203   6.815 -0.2364 -0.0780 -0.6120
 3988SOL    HW129574   2.991   1.146   6.823  0.5419  0.9618 -0.3230
 3988SOL    HW229575   2.855   1.173   6.884 -0.4935 -1.4782 -1.4178
 3989SOL     OW29576   0.539   4.012   6.656 -0.2601 -0.0817  0.4816
 3989SOL    HW129577   0.489   4.094   6.649 -0.6429 -0.4076 -0.8245
 3989SOL    HW229578   0.475   3.944   6.636 -0.0821 -0.7756  2.0862
 3990SOL     OW29579   2.898   8.446   5.162 -0.6535  0.2284  0.6617
 3990SOL    HW129580   2.958   8.481   5.096  0.8984  2.3447  2.9918
 3990SOL    HW229581   2.811   8.474   5.133 -0.0515  0.7895 -0.6794
 3991SOL     OW29582   7.944  10.269   7.271 -0.2746  0.0474 -0.2467
 3991SOL    HW129583   8.029  10.257   7.313 -0.0942  1.0242 -0.3217
 3991SOL    HW229584   7.906  10.346   7.313 -2.4278 -1.9891  1.8499
 3992SOL     OW29585   9.329   2.165   5.085  0.2074  0.4585  0.2797
 3992SOL    HW129586   9.276   2.110   5.142 -1.7570  2.3644  0.3990
 3992SOL    HW229587   9.334   2.249   5.129  1.8015  0.9059 -0.6464
 3993SOL     OW29588   0.478   1.722   4.634 -0.2798  0.5429 -0.1728
 3993SOL    HW129589   0.531   1.709   4.555 -2.4484  2.0460 -2.0357
 3993SOL    HW229590   0.468   1.635   4.671  0.1984 -0.3505 -2.0123
 3994SOL     OW29591   0.078   2.897  12.016  0.0924  0.3870  0.1069
 3994SOL    HW129592   0.030   2.879  11.936  0.3417  1.1052 -0.2187
 3994SOL    HW229593   0.084   2.813  12.061 -0.5922  0.1007 -0.3270
 3995SOL     OW29594   9.381   5.958   4.366  0.4289  0.2183  0.6545
 3995SOL    HW129595   9.460   5.918   4.402 -0.2682  0.6401  2.8016
 3995SOL    HW229596   9.325   5.972   4.442 -2.5188 -1.7758 -0.9826
 3996SOL     OW29597  12.182   8.726   5.269  0.7434 -0.4808  0.3032
 3996SOL    HW129598  12.129   8.649   5.291 -1.8916  1.1465  0.0393
 3996SOL    HW229599  12.127   8.778   5.210  3.0182  0.9298 -0.7219
 3997SOL     OW29600   3.517   9.057   8.348 -0.2786  0.2455 -0.6353
 3997SOL    HW129601   3.518   9.150   8.374 -1.1018  0.1112 -0.0680
 3997SOL    HW229602   3.514   9.059   8.253  2.5416  0.7583 -0.8009
 3998SOL     OW29603   2.476  11.471  10.783 -0.6313  0.3315  0.2906
 3998SOL    HW129604   2.451  11.379  10.796 -1.0916  0.3483 -0.4203
 3998SOL    HW229605   2.462  11.512  10.868 -0.4819 -0.2384  0.5981
 3999SOL     OW29606   6.705   6.649   5.224 -0.2348  0.2606 -0.2865
 3999SOL    HW129607   6.613   6.624   5.212 -0.1319 -0.1947 -0.1734
 3999SOL    HW229608   6.702   6.741   5.251 -0.5691  0.7078 -1.7883
 4000SOL     OW29609   8.251  13.910   0.432 -0.5587  0.4676  0.3119
 4000SOL    HW129610   8.302  13.890   0.354 -1.0574 -1.0180  0.3293
 4000SOL    HW229611   8.195  13.983   0.406 -1.3992 -0.6076 -1.0473
 4001SOL     OW29612   9.262  11.410   1.698 -0.2506 -0.3107 -0.4706
 4001SOL    HW129613   9.315  11.359   1.637 -0.7302  0.1443 -1.2728
 4001SOL    HW229614   9.172  11.402   1.666 -0.3025  1.3258 -0.8572
 4002SOL     OW29615  11.305   6.785  13.033  0.0403 -0.2888 -0.0585
 4002SOL    HW129616  11.378   6.844  13.051  1.3322 -0.4938 -3.9024
 4002SOL    HW229617  11.237   6.842  12.996  0.0497 -0.7229 -0.7623
 4003SOL     OW29618  13.688   7.919  13.742  0.5268 -0.5930  0.8768
 4003SOL    HW129619  13.660   7.987  13.803 -0.3631 -1.1214  1.0865
 4003SOL    HW229620  13.665   7.953  13.656 -1.2031 -1.1626  1.0628
 4004SOL     OW29621   8.885   7.568   6.202  0.1332 -0.5569 -0.0019
 4004SOL    HW129622   8.894   7.608   6.288 -1.7750  0.5038 -0.2451
 4004SOL    HW229623   8.931   7.627   6.142  0.6272 -0.7900  0.1391
 4005SOL     OW29624   8.945   2.626  10.387 -0.7803  0.4122 -0.3611
 4005SOL    HW129625   8.903   2.709  10.407 -0.8969  0.7582 -1.9164
 4005SOL    HW229626   8.873   2.564  10.375 -0.6841 -0.0579  1.2592
 4006SOL     OW29627   0.031   4.956  12.415 -0.1422 -0.0905  0.1341
 4006SOL    HW129628   0.126   4.944  12.418  0.0372  1.2932  2.2498
 4006SOL    HW229629   0.012   5.013  12.489 -2.5073  0.6348 -0.9448
 4007SOL     OW29630   9.852   8.155   3.280  0.0376 -0.2783  0.3337
 4007SOL    HW129631   9.836   8.222   3.213  1.8188 -2.0535 -2.0329
 4007SOL    HW229632   9.765   8.129   3.310 -0.7653  1.2980 -0.5190
 4008SOL     OW29633   1.491   7.684  11.448  0.0634 -0.0746  0.1862
 4008SOL    HW129634   1.510   7.599  11.487 -2.1001 -0.1924  1.1200
 4008SOL    HW229635   1.473   7.742  11.522  1.6946  1.2985 -0.4250
 4009SOL     OW29636   0.552   9.672   0.439  0.6639 -0.0330 -0.1995
 4009SOL    HW129637   0.623   9.618   0.404  1.2286 -0.4114  1.4226
 4009SOL    HW229638   0.569   9.676   0.533 -1.7277 -0.5606  0.3455
 4010SOL     OW29639   4.176   5.729   9.159 -0.0012 -0.3072  0.3599
 4010SOL    HW129640   4.173   5.816   9.199 -0.1447 -0.0249 -0.2582
 4010SOL    HW229641   4.224   5.675   9.222  0.3053  0.2817  0.6333
 4011SOL     OW29642  12.565   2.748   8.960  0.5643 -0.2544 -0.2350
 4011SOL    HW129643  12.483   2.713   8.925  1.7698 -0.7805 -2.7435
 4011SOL    HW229644  12.572   2.835   8.922  1.1113 -0.1597  0.0697
 4012SOL     OW29645  13.133   9.877   4.529  0.0336 -0.0819  0.6150
 4012SOL    HW129646  13.137   9.892   4.435 -2.6135  0.8408  0.5439
 4012SOL    HW229647  13.212   9.919   4.564  0.2812  0.9324 -1.0588
 4013SOL     OW29648  11.928   5.396   1.858 -0.2322 -0.6459  0.3046
 4013SOL    HW129649  12.021   5.375   1.859  0.3324  1.5255 -0.4077
 4013SOL    HW229650  11.908   5.412   1.765 -1.4157 -1.3884  0.4044
 4014SOL     OW29651   6.825   9.273   2.817  0.4261 -0.2054 -0.1757
 4014SOL    HW129652   6.869   9.355   2.840 -0.5551  0.2542  0.1103
 4014SOL    HW229653   6.889   9.205   2.835  1.2280  0.4935 -0.3441
 4015SOL     OW29654   6.162   7.581   2.669  0.1209  0.1709  0.2998
 4015SOL    HW129655   6.187   7.616   2.755 -0.1555 -0.7357  0.7615
 4015SOL    HW229656   6.148   7.488   2.684  0.6350 -0.1135 -0.8608
 4016SOL     OW29657   1.924   0.388  13.925  0.1687  0.5121  0.1621
 4016SOL    HW129658   1.967   0.318  13.876 -0.0330  1.7931 -1.9751
 4016SOL    HW229659   1.831   0.365  13.922  0.1685  0.5287  0.0211
 4017SOL     OW29660   1.521   8.405   4.424  0.0196 -0.6358 -0.2129
 4017SOL    HW129661   1.515   8.490   4.380  1.1942  0.2453  1.2406
 4017SOL    HW229662   1.611   8.378   4.410  0.3101 -0.5137  1.2802
 4018SOL     OW29663  13.447   1.158   2.465  0.0123 -0.0069 -1.0359
 4018SOL    HW129664  13.386   1.224   2.432 -0.9353 -0.1133  0.4323
 4018SOL    HW229665  13.431   1.081   2.410  0.4586  0.6766 -2.1429
 4019SOL     OW29666   6.899   4.077   8.140 -0.1198  0.0157  0.1627
 4019SOL    HW129667   6.858   4.140   8.199 -0.9992  0.7538 -1.2123
 4019SOL    HW229668   6.830   4.053   8.079  0.8118 -0.6570 -0.6474
 4020SOL     OW29669  11.399   5.467   8.969  0.1620  0.1368 -0.1961
 4020SOL    HW129670  11.462   5.517   9.021  0.2568  0.6915 -0.8400
 4020SOL    HW229671  11.452   5.427   8.900 -0.0084 -0.3914 -0.0263
 4021SOL     OW29672  11.673  11.232   2.981 -0.4335  0.5834 -0.3355
 4021SOL    HW129673  11.715  11.304   2.935  0.4635  1.0734  1.1691
 4021SOL    HW229674  11.642  11.271   3.063 -1.1863 -0.4433 -0.1121
 4022SOL     OW29675  10.142  10.320  13.877 -0.5508 -0.1214  0.2736
 4022SOL    HW129676  10.181  10.260  13.941  0.2900  1.3313  1.1837
 4022SOL    HW229677  10.086  10.377  13.930  0.9589  1.7740 -0.0797
 4023SOL     OW29678   6.124  12.463  10.103 -0.1522 -0.6773  0.4073
 4023SOL    HW129679   6.126  12.388  10.044 -2.1822 -0.7810  0.3834
 4023SOL    HW229680   6.031  12.484  10.112 -0.1596 -1.6547  4.7827
 4024SOL     OW29681  13.540   6.759  12.706  0.4448  0.2835 -0.1420
 4024SOL    HW129682  13.623   6.759  12.659  1.0724 -0.6553  0.9334
 4024SOL    HW229683  13.475   6.738  12.638  0.7781  2.9325 -1.4043
 4025SOL     OW29684   8.999   7.184  10.909 -0.0668  0.5481  0.0747
 4025SOL    HW129685   9.084   7.200  10.949 -0.3036 -0.8976  1.2192
 4025SOL    HW229686   8.950   7.266  10.922  1.0880  1.3587 -0.5176
 4026SOL     OW29687   9.420  10.719  11.309 -0.2540  0.2881  0.2487
 4026SOL    HW129688   9.446  10.768  11.387  0.9655 -0.3777  0.2892
 4026SOL    HW229689   9.498  10.721  11.253  0.4620 -3.0108  0.9663
 4027SOL     OW29690   5.822   1.101   9.964  0.4959 -0.0056 -0.3141
 4027SOL    HW129691   5.832   1.124  10.057  0.6009 -0.1612 -0.2870
 4027SOL    HW229692   5.809   1.006   9.964 -0.5994  0.1416 -0.3824
 4028SOL     OW29693   0.980   4.237   8.226  0.5944 -0.3663  0.1916
 4028SOL    HW129694   0.977   4.150   8.185  0.1442  0.0933 -0.7686
 4028SOL    HW229695   1.045   4.285   8.175 -0.1904  0.3076 -0.1827
 4029SOL     OW29696   2.942  13.507   0.346 -0.2803  0.0169  0.3479
 4029SOL    HW129697   3.017  13.548   0.389 -1.6889  2.1573  0.9321
 4029SOL    HW229698   2.873  13.507   0.412 -1.7336  1.0319 -1.0856
 4030SOL     OW29699   1.263   8.781   1.785  0.1024  0.0861  0.2344
 4030SOL    HW129700   1.231   8.691   1.796 -2.4348  0.8763  0.0025
 4030SOL    HW229701   1.196   8.835   1.827 -0.3671  2.0559 -2.7794
 4031SOL     OW29702   1.236   0.093   2.932  0.2941  0.2254  0.3298
 4031SOL    HW129703   1.277   0.136   2.857  0.6488  1.0309  0.9683
 4031SOL    HW229704   1.254   0.151   3.006 -0.9435 -0.0163  0.8545
 4032SOL     OW29705   8.910   2.098   2.596 -0.2746  0.7765 -0.2471
 4032SOL    HW129706   8.897   2.189   2.569 -0.3334  0.5715 -0.9248
 4032SOL    HW229707   9.005   2.084   2.589 -0.2435  0.8405  0.0410
 4033SOL     OW29708   5.177  10.388   2.123  0.2181  0.1932 -0.1791
 4033SOL    HW129709   5.139  10.415   2.040  0.2517  2.0766  0.3595
 4033SOL    HW229710   5.126  10.436   2.189  1.8914  0.8357  0.7016
 4034SOL     OW29711  12.591  11.055  10.323  0.2244  0.3552 -0.2086
 4034SOL    HW129712  12.517  11.076  10.267  0.7944  3.1374 -0.0767
 4034SOL    HW229713  12.654  11.010  10.266 -0.0606  1.2722 -1.2641
 4035SOL     OW29714   4.363   3.998  13.644  0.3150  0.4406 -0.2438
 4035SOL    HW129715   4.281   3.950  13.630  1.2414 -1.1365 -0.4932
 4035SOL    HW229716   4.426   3.954  13.587  1.1626  2.1529 -0.6680
 4036SOL     OW29717   6.646   3.237   6.776 -0.4434 -0.0667 -0.0206
 4036SOL    HW129718   6.635   3.282   6.692  0.8731 -0.0795 -0.2198
 4036SOL    HW229719   6.584   3.281   6.835 -0.8865  0.4062 -0.8170
 4037SOL     OW29720   1.585   6.874   3.396 -0.0007  0.0976 -0.2543
 4037SOL    HW129721   1.568   6.823   3.317 -2.2251 -0.7214  0.6856
 4037SOL    HW229722   1.599   6.963   3.365  1.2355 -0.5577 -1.7013
 4038SOL     OW29723  10.790   9.068   2.425 -0.0185 -0.4273  0.4074
 4038SOL    HW129724  10.820   9.156   2.401  2.1874 -0.6349  2.1385
 4038SOL    HW229725  10.698   9.080   2.450  0.4511  1.5581  1.3671
 4039SOL     OW29726  10.206   5.244   2.274 -0.1701  0.4228  0.2543
 4039SOL    HW129727  10.261   5.166   2.276 -0.4366  0.2496  0.9487
 4039SOL    HW229728  10.255   5.309   2.326  0.8077  1.2436 -1.5956
 4040SOL     OW29729   3.238   7.209   4.908 -0.0692  0.4516  0.2385
 4040SOL    HW129730   3.246   7.114   4.918  1.2537  0.6086  0.7558
 4040SOL    HW229731   3.249   7.244   4.996  0.3334  1.1478 -0.0801
 4041SOL     OW29732  12.223   1.370   2.555 -0.3722  0.0861 -0.6765
 4041SOL    HW129733  12.254   1.427   2.484 -0.0765 -1.5407 -1.8993
 4041SOL    HW229734  12.129   1.359   2.536 -0.3246 -0.2268 -0.7291
 4042SOL     OW29735  10.282   0.705   2.966 -0.4003  0.2143  0.3838
 4042SOL    HW129736  10.191   0.679   2.977 -0.3922  0.9388  2.5175
 4042SOL    HW229737  10.300   0.688   2.873 -2.0285 -1.9712  0.3896
 4043SOL     OW29738   3.575   3.855   3.353  0.6657  0.1164 -0.2457
 4043SOL    HW129739   3.659   3.848   3.309  0.3014 -1.7810 -0.7206
 4043SOL    HW229740   3.594   3.832   3.444  0.7018 -0.0033 -0.2841
 4044SOL     OW29741   2.517   3.789   3.489 -0.1873  0.2329  0.2205
 4044SOL    HW129742   2.549   3.704   3.458 -0.6575  0.2463 -0.3178
 4044SOL    HW229743   2.593   3.847   3.482  0.2205 -0.2032  0.8751
 4045SOL     OW29744   3.558   4.832   8.859 -0.1251 -0.2887 -0.2250
 4045SOL    HW129745   3.568   4.753   8.912 -1.1700  1.1262  2.2593
 4045SOL    HW229746   3.478   4.817   8.809 -0.6998 -0.5780  0.7478
 4046SOL     OW29747   1.857   1.707  10.543  0.2255  0.0734 -0.5136
 4046SOL    HW129748   1.921   1.637  10.554 -0.0163  0.0383  0.8105
 4046SOL    HW229749   1.773   1.668  10.567  0.0007  0.6574 -0.3186
 4047SOL     OW29750   8.527   1.706   4.813  0.2638 -0.3315  0.1412
 4047SOL    HW129751   8.613   1.712   4.855 -0.9295  1.7237  2.5697
 4047SOL    HW229752   8.495   1.620   4.839  0.7770 -0.2890  0.9764
 4048SOL     OW29753   6.556   4.983   0.650  0.9586 -0.3258 -0.0186
 4048SOL    HW129754   6.644   4.955   0.625  0.9435  0.0663 -0.5170
 4048SOL    HW229755   6.504   4.903   0.647  1.3398 -0.6028  0.4896
 4049SOL     OW29756  11.378   2.275  11.045  0.0198 -0.4957  0.5289
 4049SOL    HW129757  11.405   2.196  10.999 -0.8251 -0.0606 -0.7845
 4049SOL    HW229758  11.458   2.309  11.085  0.8712 -0.7206 -0.9251
 4050SOL     OW29759   0.503   4.144   8.140  0.0569  0.5223 -0.3670
 4050SOL    HW129760   0.439   4.123   8.072  0.2096  1.9010 -0.9676
 4050SOL    HW229761   0.584   4.103   8.111 -0.5593 -1.5403  0.5710
 4051SOL     OW29762   2.432  13.811  13.099 -0.0573 -0.0665 -0.0987
 4051SOL    HW129763   2.495  13.801  13.171 -0.6696  0.3424  0.5057
 4051SOL    HW229764   2.455  13.741  13.038 -0.0162 -0.9180  0.8590
 4052SOL     OW29765   7.981   6.022   3.696  0.4300 -0.0356 -0.8435
 4052SOL    HW129766   7.919   5.977   3.638  1.3439 -0.3332 -1.6299
 4052SOL    HW229767   7.993   6.108   3.656  2.0468 -0.6957 -1.8744
 4053SOL     OW29768   0.814  10.581   5.363 -0.2663  0.3522  0.2280
 4053SOL    HW129769   0.859  10.660   5.332  0.4275 -0.4653 -0.8985
 4053SOL    HW229770   0.812  10.523   5.287 -0.5866 -0.8009  1.0992
 4054SOL     OW29771   4.620   9.067   1.035 -0.0367  0.0611  0.7004
 4054SOL    HW129772   4.576   9.009   1.098 -0.0369  0.9137  1.5183
 4054SOL    HW229773   4.688   9.111   1.087  1.0721 -0.4228 -0.2915
 4055SOL     OW29774   8.891   5.666   4.387  0.2355 -0.3491 -0.3670
 4055SOL    HW129775   8.833   5.742   4.382 -0.0848 -0.6491 -1.7572
 4055SOL    HW229776   8.833   5.593   4.409  0.0872 -0.6043 -1.5093
 4056SOL     OW29777   3.395   5.494   5.969 -0.1119  0.3121  0.2930
 4056SOL    HW129778   3.423   5.493   6.060 -1.1838 -0.3844  0.6317
 4056SOL    HW229779   3.473   5.523   5.921 -0.2214  3.1596  1.6272
 4057SOL     OW29780   0.849   7.910  10.075 -0.3164  0.6182 -0.0761
 4057SOL    HW129781   0.768   7.872  10.109 -0.5854  0.4625 -0.8772
 4057SOL    HW229782   0.820   7.984  10.022  0.2495  2.8103  2.4559
 4058SOL     OW29783   4.442   0.390  12.736 -0.1201  0.1541  0.1310
 4058SOL    HW129784   4.358   0.369  12.697  0.1359 -0.7398  0.0269
 4058SOL    HW229785   4.497   0.313  12.718  0.2320  0.0324  1.5885
 4059SOL     OW29786   6.691   5.178  11.399 -0.0018 -0.0553  0.1811
 4059SOL    HW129787   6.640   5.114  11.448  0.0994 -0.7884 -0.6353
 4059SOL    HW229788   6.705   5.250  11.460  0.5610 -1.1493  1.3864
 4060SOL     OW29789  12.955   0.257   9.280 -0.0926  0.1458  0.2739
 4060SOL    HW129790  12.979   0.248   9.188 -2.4496  0.1191 -0.4009
 4060SOL    HW229791  12.980   0.173   9.320 -0.0559 -0.2529 -0.5808
 4061SOL     OW29792   5.298   0.731  11.470  0.1526 -0.4480  0.2056
 4061SOL    HW129793   5.259   0.671  11.406  0.7501 -0.3758 -0.2324
 4061SOL    HW229794   5.279   0.818  11.436  0.6840 -0.4131 -0.0059
 4062SOL     OW29795   1.912   0.706   4.789 -0.4775 -0.3768 -0.0299
 4062SOL    HW129796   1.988   0.717   4.847 -0.3869 -0.6873 -0.0869
 4062SOL    HW229797   1.923   0.773   4.722 -0.9376  0.4346  0.6846
 4063SOL     OW29798   8.791   2.022   1.293 -0.3240 -0.0114  0.0213
 4063SOL    HW129799   8.747   2.095   1.250 -0.0660 -1.9832 -4.0237
 4063SOL    HW229800   8.728   1.990   1.357 -1.9754  1.3653 -0.8375
 4064SOL     OW29801  12.081   1.700  13.058  0.0636  0.1995  0.0167
 4064SOL    HW129802  12.108   1.791  13.071 -0.7195  0.4214  0.1199
 4064SOL    HW229803  12.065   1.667  13.147 -0.4929  0.2267 -0.0690
 4065SOL     OW29804  11.689   2.447   7.994 -0.3125  0.2057 -0.1397
 4065SOL    HW129805  11.659   2.460   7.904 -0.5883 -0.2080 -0.1079
 4065SOL    HW229806  11.784   2.435   7.986 -0.3207  0.2769 -0.3611
 4066SOL     OW29807   2.521   6.124   6.206  0.4895  0.3128 -0.4847
 4066SOL    HW129808   2.602   6.118   6.257  1.4459 -0.3418 -1.9763
 4066SOL    HW229809   2.535   6.201   6.150 -0.9638  1.6287  0.9014
 4067SOL     OW29810   7.115  11.165  12.374  0.2769  0.5242  0.0571
 4067SOL    HW129811   7.031  11.121  12.389  0.5039  0.2916  0.6648
 4067SOL    HW229812   7.103  11.251  12.414  0.3519  0.4630  0.2128
 4068SOL     OW29813   8.999  11.431   2.444  0.4739  0.2913 -0.0251
 4068SOL    HW129814   8.913  11.447   2.481  1.0938  0.7606  1.2446
 4068SOL    HW229815   9.022  11.343   2.475 -0.0726 -0.3924 -1.4472
 4069SOL     OW29816   1.379   9.372   2.128  0.2395 -0.1600 -0.3893
 4069SOL    HW129817   1.443   9.414   2.071 -1.0590  0.2778 -1.5683
 4069SOL    HW229818   1.337   9.444   2.174  0.1837 -0.4031 -0.0528
 4070SOL     OW29819   9.957  10.138   5.250  0.4030  0.0414 -0.1594
 4070SOL    HW129820   9.933  10.183   5.331 -1.0674  0.1243 -0.6177
 4070SOL    HW229821   9.946  10.204   5.182  1.8414  0.0367 -0.4348
 4071SOL     OW29822  11.623   9.596   1.374 -0.6169  0.5144 -0.5791
 4071SOL    HW129823  11.654   9.542   1.302  0.7748 -1.8824  1.6483
 4071SOL    HW229824  11.563   9.539   1.423 -0.2378  1.4546  1.0568
 4072SOL     OW29825   8.661  10.219   3.508 -0.8734 -0.3120 -0.0328
 4072SOL    HW129826   8.604  10.291   3.535 -0.8924  0.1414 -1.2303
 4072SOL    HW229827   8.737  10.262   3.469  0.0474 -0.9179  1.0217
 4073SOL     OW29828  13.813  11.201  10.646 -0.0032  0.2910 -1.0662
 4073SOL    HW129829  13.885  11.138  10.652 -1.4237 -1.3121  0.4927
 4073SOL    HW229830  13.768  11.177  10.565  0.9620  1.0842 -1.8700
 4074SOL     OW29831   0.960   9.445  11.349 -0.0601  0.0766  0.3532
 4074SOL    HW129832   1.028   9.421  11.411 -0.9225 -0.0007  1.2982
 4074SOL    HW229833   0.995   9.522  11.303  0.7393 -0.0898  0.6763
 4075SOL     OW29834   8.083  11.122  11.394 -0.1912 -0.5117 -0.4375
 4075SOL    HW129835   8.068  11.177  11.471  2.7961 -1.3722  0.9152
 4075SOL    HW229836   8.070  11.181  11.320  0.1676  1.2827  0.8560
 4076SOL     OW29837   3.207   9.645  11.545 -0.0018 -0.0914  0.3658
 4076SOL    HW129838   3.164   9.562  11.524  2.2561 -1.3677  0.5207
 4076SOL    HW229839   3.191   9.700  11.468  0.5842 -1.5721 -0.8631
 4077SOL     OW29840   2.932  12.113   5.053 -0.0228  0.0773 -0.0022
 4077SOL    HW129841   2.980  12.125   5.134  0.6137 -0.7422 -0.2421
 4077SOL    HW229842   2.892  12.198   5.035 -0.0651  0.2972  1.0916
 4078SOL     OW29843   4.181   8.728   1.758  0.6076  0.2885  0.6040
 4078SOL    HW129844   4.144   8.813   1.780  0.8305  0.1769  1.4441
 4078SOL    HW229845   4.241   8.708   1.830  2.1515  0.3615 -0.5972
 4079SOL     OW29846   0.826   3.507   2.382  0.0078 -0.0558  0.3330
 4079SOL    HW129847   0.783   3.493   2.298  1.8115  2.0477 -1.0553
 4079SOL    HW229848   0.786   3.588   2.415  2.2614  1.5908 -0.6925
 4080SOL     OW29849   8.000   9.389   2.536  0.2086 -0.1934  0.0387
 4080SOL    HW129850   7.996   9.461   2.598  0.3283 -0.9287  0.9167
 4080SOL    HW229851   7.953   9.318   2.579  0.1233 -0.6571 -0.7994
 4081SOL     OW29852   6.182   1.377   5.060 -0.4456 -0.2375 -0.0347
 4081SOL    HW129853   6.149   1.466   5.047  0.1316  0.1594  1.1541
 4081SOL    HW229854   6.118   1.337   5.120  1.0960  0.5095  2.2188
 4082SOL     OW29855   3.463  13.768   3.170  0.3035 -0.1845  0.5100
 4082SOL    HW129856   3.538  13.724   3.211 -0.6031 -2.5358 -0.1919
 4082SOL    HW229857   3.473  13.750   3.076  0.4795  2.1474  0.0216
 4083SOL     OW29858   0.776   2.281   4.369  0.1816 -0.0629  0.0998
 4083SOL    HW129859   0.861   2.255   4.405  0.9077  0.8771 -0.8379
 4083SOL    HW229860   0.712   2.233   4.420  1.3816 -4.0282 -1.6826
 4084SOL     OW29861  10.378  11.686   1.522 -0.2018  0.3566 -0.3329
 4084SOL    HW129862  10.384  11.671   1.617 -2.1124  2.0111  0.1218
 4084SOL    HW229863  10.408  11.776   1.509 -1.4992  0.7221 -1.0248
 4085SOL     OW29864   5.063   6.461  13.632  0.0328 -0.4371 -0.8306
 4085SOL    HW129865   5.058   6.554  13.650  0.9148 -0.6500  0.7199
 4085SOL    HW229866   5.098   6.455  13.543  0.8321  0.6984 -0.6085
 4086SOL     OW29867  13.553   2.436   5.109 -0.7543 -0.1988  0.1819
 4086SOL    HW129868  13.470   2.475   5.136 -0.8770  0.3725 -0.9883
 4086SOL    HW229869  13.578   2.380   5.183 -1.8322  0.1471  0.8279
 4087SOL     OW29870   9.598   9.298  10.760  0.4329 -0.6416  0.2777
 4087SOL    HW129871   9.557   9.220  10.794 -1.9879  0.6760  0.5813
 4087SOL    HW229872   9.559   9.310  10.673 -0.4940  1.0529  0.8756
 4088SOL     OW29873   1.004  12.144   2.801  0.1484  0.0833  0.2525
 4088SOL    HW129874   0.923  12.188   2.826  0.2556  1.7754 -2.0277
 4088SOL    HW229875   1.067  12.170   2.869 -0.6848  0.4835  0.8985
 4089SOL     OW29876   7.692  12.512   5.941  0.2202  0.1659  0.0865
 4089SOL    HW129877   7.726  12.457   6.010 -0.1627 -1.5336 -1.0109
 4089SOL    HW229878   7.685  12.599   5.980  2.1024 -0.2546  1.4737
 4090SOL     OW29879  10.090   4.679   2.089  0.3327  0.2606  0.2914
 4090SOL    HW129880  10.121   4.749   2.147  0.5935 -0.5844  1.2027
 4090SOL    HW229881  10.145   4.687   2.011  1.4021  0.1367  1.0102
 4091SOL     OW29882   2.101   0.431   0.090  0.2025 -0.3150 -0.3423
 4091SOL    HW129883   2.039   0.486   0.042  0.3417 -0.4353 -0.6715
 4091SOL    HW229884   2.075   0.341   0.066  1.1632 -0.3488 -1.3559
 4092SOL     OW29885   7.504  10.494   0.755 -0.1878  0.1556  0.2580
 4092SOL    HW129886   7.438  10.501   0.824  0.4020 -0.0018  0.8423
 4092SOL    HW229887   7.473  10.555   0.687  0.2448  1.8332  1.5059
 4093SOL     OW29888   4.121   9.949  10.085 -0.5013  0.0716 -0.0077
 4093SOL    HW129889   4.046  10.009  10.084 -1.5844 -1.2238 -1.6560
 4093SOL    HW229890   4.170   9.970  10.005  0.0183 -0.1474  0.2482
 4094SOL     OW29891   8.059   5.816  10.999 -0.0011  0.0654 -0.4330
 4094SOL    HW129892   8.078   5.761  11.076  0.4145  1.0259  0.1801
 4094SOL    HW229893   7.964   5.817  10.993 -0.0507  0.1474  0.2154
 4095SOL     OW29894   8.319   0.338   2.303 -0.0198  0.5745  0.0305
 4095SOL    HW129895   8.259   0.295   2.363 -1.1905  1.4270 -0.4906
 4095SOL    HW229896   8.401   0.347   2.353  0.4899 -2.6394 -0.0148
 4096SOL     OW29897   1.103  10.851  10.150  0.6175 -0.0482 -0.1086
 4096SOL    HW129898   1.101  10.759  10.174  1.5293  0.0159  0.2689
 4096SOL    HW229899   1.193  10.878  10.167  0.7072  0.5882 -1.4268
 4097SOL     OW29900   7.440   6.323   5.011 -0.3581 -0.5111  0.0299
 4097SOL    HW129901   7.366   6.299   5.067 -1.3069  0.9844 -0.5095
 4097SOL    HW229902   7.401   6.334   4.924 -0.2735  3.6961  0.3550
 4098SOL     OW29903   0.201   9.105  10.921  0.3203  0.1967  0.1014
 4098SOL    HW129904   0.289   9.114  10.886 -0.0410  0.2202 -0.8412
 4098SOL    HW229905   0.202   9.023  10.971  0.6304 -0.2828 -0.6770
 4099SOL     OW29906   1.679   4.003   1.952  0.7615 -0.0007 -0.4922
 4099SOL    HW129907   1.714   3.922   1.916 -1.8022 -1.7488  0.6826
 4099SOL    HW229908   1.628   4.041   1.881  2.4044  0.9477 -1.2195
 4100SOL     OW29909  12.339   0.049   4.849  0.2684  0.3162 -0.1848
 4100SOL    HW129910  12.344   0.069   4.942 -0.5209 -1.6998  0.3439
 4100SOL    HW229911  12.251   0.077   4.822 -0.9988 -2.4358  0.6522
 4101SOL     OW29912   4.412  13.477  10.484 -0.2428 -0.2051 -0.3715
 4101SOL    HW129913   4.506  13.486  10.495  0.0432 -1.5402 -1.3882
 4101SOL    HW229914   4.374  13.533  10.552  1.2598  0.9231 -0.4119
 4102SOL     OW29915   1.015   5.074   8.687 -0.4491 -0.0731 -0.2018
 4102SOL    HW129916   1.072   5.117   8.752 -0.0634 -0.8972  0.0157
 4102SOL    HW229917   0.970   5.146   8.644  1.7052  0.7280 -1.2904
 4103SOL     OW29918   1.743   9.284   5.712 -0.6349  0.0743  0.6682
 4103SOL    HW129919   1.664   9.239   5.680  0.2637 -1.1623  0.1067
 4103SOL    HW229920   1.743   9.267   5.806 -0.2063 -1.3435  0.4449
 4104SOL     OW29921  11.682   4.050  10.840  0.2172 -0.0416 -0.4626
 4104SOL    HW129922  11.715   4.135  10.812  0.4129  0.0088 -0.0835
 4104SOL    HW229923  11.732   4.029  10.919 -0.9030  0.2205  0.3558
 4105SOL     OW29924  11.557  11.391   5.922 -0.4875  0.5308  0.1840
 4105SOL    HW129925  11.650  11.408   5.909 -0.6190 -0.1423 -2.2634
 4105SOL    HW229926  11.554  11.318   5.983  0.7203 -0.5872 -1.0130
 4106SOL     OW29927  10.524   3.327   7.006  0.1541  0.3054  0.1986
 4106SOL    HW129928  10.601   3.358   6.958 -0.9266  0.1218 -1.7483
 4106SOL    HW229929  10.524   3.232   6.993  0.3595  0.1217  1.4119
 4107SOL     OW29930   4.760  12.949   4.222 -0.1978 -0.1539 -0.3439
 4107SOL    HW129931   4.811  12.972   4.300  0.5519 -1.7704 -0.3249
 4107SOL    HW229932   4.693  12.888   4.254 -1.2798  0.8507 -0.6203
 4108SOL     OW29933   8.360   3.118   4.910 -0.2942 -0.5019  0.3589
 4108SOL    HW129934   8.453   3.100   4.895  0.0148 -0.1693  1.7460
 4108SOL    HW229935   8.329   3.153   4.826  1.8810  3.5366  1.0008
 4109SOL     OW29936  12.870   1.334   7.239  0.0269 -0.0203  0.3678
 4109SOL    HW129937  12.935   1.283   7.287 -1.3438 -0.2213  2.0983
 4109SOL    HW229938  12.813   1.370   7.307  0.0590  2.6181 -0.8965
 4110SOL     OW29939  11.693   7.763   2.072  0.0754  0.5157 -0.2172
 4110SOL    HW129940  11.645   7.751   2.154  0.4149 -0.7053 -0.1813
 4110SOL    HW229941  11.702   7.858   2.064  1.1299  0.6439  1.7980
 4111SOL     OW29942   4.863   8.122  12.889  0.1960 -0.1982 -0.3704
 4111SOL    HW129943   4.917   8.045  12.906  0.3553  0.4755  2.9010
 4111SOL    HW229944   4.790   8.090  12.836 -0.5731 -3.0073  2.1520
 4112SOL     OW29945   1.179   5.442  10.304  0.2019  0.6291  0.0996
 4112SOL    HW129946   1.243   5.513  10.299  0.4475  0.5300  1.3169
 4112SOL    HW229947   1.095   5.482  10.281  0.7532  0.6281 -2.1140
 4113SOL     OW29948   8.293   7.679   0.866  0.0300 -0.1956 -0.4913
 4113SOL    HW129949   8.366   7.740   0.861  0.2316 -0.3986 -0.0163
 4113SOL    HW229950   8.329   7.596   0.834 -0.1669 -0.1400 -0.8664
 4114SOL     OW29951   7.862  13.705   8.222  0.6342 -0.4271  0.5158
 4114SOL    HW129952   7.790  13.705   8.159  2.1145  2.2646 -1.3522
 4114SOL    HW229953   7.930  13.651   8.180  0.6170 -0.9476  1.1434
 4115SOL     OW29954   1.486   7.041  12.622 -0.3414  0.1773  0.1604
 4115SOL    HW129955   1.485   7.105  12.694 -2.0246  0.6171 -0.2107
 4115SOL    HW229956   1.526   6.963  12.660 -2.1515  0.0382  1.9255
 4116SOL     OW29957   4.320   4.525   6.904 -0.4866 -0.0265 -0.0300
 4116SOL    HW129958   4.235   4.536   6.946 -0.2222 -0.7548  0.7202
 4116SOL    HW229959   4.322   4.433   6.878 -0.0644  0.0717 -0.3580
 4117SOL     OW29960   3.563   5.399   2.483  0.0200 -0.0476 -0.2249
 4117SOL    HW129961   3.619   5.475   2.467 -0.9935  0.6790 -0.4325
 4117SOL    HW229962   3.617   5.324   2.460  0.8489  0.6435 -0.5855
 4118SOL     OW29963  12.926   9.334  10.545 -0.2819 -0.1122  0.3923
 4118SOL    HW129964  12.908   9.318  10.452  0.9703 -0.9938  0.2760
 4118SOL    HW229965  13.011   9.378  10.546  0.1776 -0.9974  1.1545
 4119SOL     OW29966  12.148   6.308   3.791 -0.4719 -0.6190 -0.6509
 4119SOL    HW129967  12.145   6.242   3.860  1.1283 -0.0634  0.0142
 4119SOL    HW229968  12.128   6.390   3.836  1.4683 -0.1185 -0.5817
 4120SOL     OW29969   0.790   6.111  10.596  0.4637 -1.1220 -0.0810
 4120SOL    HW129970   0.850   6.042  10.567 -0.8057 -3.2936  2.0921
 4120SOL    HW229971   0.703   6.073  10.586 -0.5360  1.2348 -1.2933
 4121SOL     OW29972   3.999   7.037   6.234 -0.4034  0.2593  0.8436
 4121SOL    HW129973   4.019   7.016   6.325  1.6802  0.1952  0.4190
 4121SOL    HW229974   4.027   6.960   6.184  2.1470  1.7012 -0.1799
 4122SOL     OW29975   3.314   5.775   2.924 -0.0141 -0.1275 -0.1164
 4122SOL    HW129976   3.387   5.723   2.892  1.1184  1.2697  0.0835
 4122SOL    HW229977   3.342   5.866   2.911 -1.3412  0.4382  0.7918
 4123SOL     OW29978   5.066   3.875   0.743  0.1140 -0.3109  0.2960
 4123SOL    HW129979   5.071   3.870   0.647  0.9332 -2.2247  0.4060
 4123SOL    HW229980   5.140   3.931   0.768 -0.9276  1.3846 -0.2227
 4124SOL     OW29981   4.109   8.453   3.683  0.4137 -0.5508  0.0085
 4124SOL    HW129982   4.034   8.502   3.648  1.1962  0.2944 -0.5409
 4124SOL    HW229983   4.070   8.387   3.740 -0.7802 -0.5223 -0.7374
 4125SOL     OW29984   6.384   3.060  11.888 -0.0995  0.1562  0.1551
 4125SOL    HW129985   6.311   3.121  11.898  0.0161  0.0688  1.7379
 4125SOL    HW229986   6.344   2.973  11.893 -0.0095  0.1024 -0.0412
 4126SOL     OW29987  13.375   5.850   4.107  0.5255  0.0853 -0.1153
 4126SOL    HW129988  13.451   5.861   4.050  0.5327 -0.9626 -0.3210
 4126SOL    HW229989  13.315   5.921   4.082  0.6731 -0.1629 -1.1782
 4127SOL     OW29990   9.289  13.602  11.085 -0.3370 -0.0453 -0.0794
 4127SOL    HW129991   9.259  13.613  10.995 -1.1176 -0.9065  0.0647
 4127SOL    HW229992   9.325  13.513  11.088  1.3517  0.6050  0.0144
 4128SOL     OW29993  12.804   0.396  13.115 -0.1227  0.1964  0.1332
 4128SOL    HW129994  12.818   0.487  13.088 -3.4299  0.5513 -0.8412
 4128SOL    HW229995  12.833   0.344  13.041 -1.7325  0.7467 -0.9451
 4129SOL     OW29996   1.701   7.986  13.310 -0.0223  0.4518  0.7132
 4129SOL    HW129997   1.673   8.024  13.227 -1.5605 -2.6291 -0.3605
 4129SOL    HW229998   1.796   7.995  13.311 -0.0503  1.2685 -1.0075
 4130SOL     OW29999  13.334  10.563  11.575 -0.3184 -0.4357 -0.1769
 4130SOL    HW130000  13.375  10.477  11.567 -0.1432 -0.7233  2.7473
 4130SOL    HW230001  13.303  10.583  11.487  0.6300 -2.9725 -1.1769
 4131SOL     OW30002  11.019   7.411   3.041 -0.0330  0.1639 -0.7741
 4131SOL    HW130003  10.986   7.426   2.952  1.5910  0.7468 -1.3075
 4131SOL    HW230004  11.096   7.356   3.029  0.6475  0.8739  0.2017
 4132SOL     OW30005   8.854  10.000   4.304 -0.5293 -0.4176  0.0718
 4132SOL    HW130006   8.816  10.072   4.255 -0.6072  0.7219  1.7453
 4132SOL    HW230007   8.937  10.034   4.337 -0.1779 -1.3727  0.2140
 4133SOL     OW30008   3.471   4.031   2.979  0.1571 -0.1797  0.2283
 4133SOL    HW130009   3.432   4.100   2.925  0.8506  1.3600  1.5911
 4133SOL    HW230010   3.412   3.956   2.969  0.7481 -0.3516 -3.3386
 4134SOL     OW30011  13.021   9.288  11.012 -0.1121  0.2162 -0.0832
 4134SOL    HW130012  13.029   9.318  11.102 -2.3810  0.5516  0.0632
 4134SOL    HW230013  13.111   9.284  10.980  0.7013  0.6465  1.9988
 4135SOL     OW30014  13.988   1.236  12.895  0.0895  0.1707 -0.8148
 4135SOL    HW130015  13.951   1.323  12.876 -1.3758 -0.8559 -3.0253
 4135SOL    HW230016  13.962   1.182  12.821 -0.6160 -2.6683  1.3242
 4136SOL     OW30017  10.948   4.641   5.993  0.5860 -0.4568 -0.0868
 4136SOL    HW130018  10.958   4.624   6.086 -1.4063  0.5410  0.3627
 4136SOL    HW230019  10.962   4.735   5.984 -1.6295 -0.0911 -0.3464
 4137SOL     OW30020  10.642   7.541   2.726  0.8540  0.0444 -0.5229
 4137SOL    HW130021  10.574   7.554   2.791  0.0732 -1.8516 -0.8867
 4137SOL    HW230022  10.596   7.548   2.642  1.4286  0.3230 -0.8209
 4138SOL     OW30023   0.085  11.511   3.132 -0.3262 -0.0914  0.3569
 4138SOL    HW130024   0.088  11.489   3.038 -1.3075 -1.1514  0.5577
 4138SOL    HW230025   0.177  11.507   3.160 -0.2575 -2.2830 -0.0206
 4139SOL     OW30026   5.094   5.040  10.166 -0.1748 -0.3613 -0.4919
 4139SOL    HW130027   5.158   4.978  10.133 -0.1966 -0.0768 -1.0679
 4139SOL    HW230028   5.139   5.085  10.237  0.5068  0.3391 -1.3591
 4140SOL     OW30029  12.060   7.154   0.495  0.2114  0.3980 -0.2785
 4140SOL    HW130030  12.093   7.103   0.420 -0.9566 -0.4805 -0.2190
 4140SOL    HW230031  12.130   7.217   0.513  0.6265  0.4695 -1.9541
 4141SOL     OW30032  10.747   3.821   2.706  0.3881 -0.0351  0.1011
 4141SOL    HW130033  10.711   3.825   2.618 -0.4708 -2.2189  0.2836
 4141SOL    HW230034  10.690   3.877   2.758 -0.9348 -1.0379 -0.2078
 4142SOL     OW30035  11.091   9.602   8.502  0.7022 -0.6699 -0.5581
 4142SOL    HW130036  11.141   9.547   8.442  1.6281 -0.0377 -0.3854
 4142SOL    HW230037  11.148   9.615   8.577 -0.0698 -0.6559  0.0401
 4143SOL     OW30038   6.006   1.801   8.999 -0.0878  0.0125 -0.0487
 4143SOL    HW130039   5.915   1.791   8.973 -0.2425  1.9691 -0.3549
 4143SOL    HW230040   6.056   1.781   8.920 -0.3719  1.4541 -0.6098
 4144SOL     OW30041  13.888   9.310   0.438 -0.4502 -0.0438 -0.2819
 4144SOL    HW130042  13.935   9.315   0.355 -0.4967  0.8867 -0.2579
 4144SOL    HW230043  13.823   9.380   0.434 -0.2369  0.2307  0.6647
 4145SOL     OW30044  11.909  12.907  12.470  0.1560  0.3244  0.5995
 4145SOL    HW130045  11.998  12.874  12.483  0.0465  0.7085  2.5260
 4145SOL    HW230046  11.897  12.973  12.538 -1.5763  0.3400  0.3293
 4146SOL     OW30047   0.929  10.099   1.410  0.3351 -0.0416 -0.3146
 4146SOL    HW130048   0.921  10.010   1.445 -0.0038  0.5077  1.0766
 4146SOL    HW230049   0.909  10.156   1.484  0.3790  1.2045 -1.2237
 4147SOL     OW30050   8.360  10.228  13.632  0.0234 -0.2896 -0.1620
 4147SOL    HW130051   8.294  10.291  13.602  0.1323  0.2461  0.7027
 4147SOL    HW230052   8.351  10.154  13.572 -1.8309 -0.5250  0.3311
 4148SOL     OW30053   8.354   2.325   0.109 -0.2008 -0.2041 -0.0702
 4148SOL    HW130054   8.262   2.298   0.119 -0.2142  0.1884  1.0109
 4148SOL    HW230055   8.359   2.361   0.021 -1.1338 -0.0652 -0.0802
 4149SOL     OW30056  13.082   3.628   6.089 -1.1121  0.2187 -0.5632
 4149SOL    HW130057  13.095   3.665   6.002  1.7508 -0.0223 -0.3385
 4149SOL    HW230058  13.114   3.538   6.081 -2.3184 -0.3185  0.3687
 4150SOL     OW30059  11.001  12.610   6.242 -0.3641  0.0360  0.1503
 4150SOL    HW130060  11.031  12.566   6.163 -0.6527  1.4153 -0.7635
 4150SOL    HW230061  10.910  12.632   6.224 -0.9886 -1.1830  1.5888
 4151SOL     OW30062   1.435   1.032  11.867 -0.1166 -0.0820  0.5531
 4151SOL    HW130063   1.382   1.069  11.797  2.0971  0.2207 -1.0803
 4151SOL    HW230064   1.444   1.103  11.931 -0.8541  0.1769  0.3766
 4152SOL     OW30065   3.570  10.167   7.035 -0.0645  0.2835 -0.0024
 4152SOL    HW130066   3.476  10.167   7.057  0.1411  0.3027  0.9344
 4152SOL    HW230067   3.604  10.244   7.081  0.2283  0.9085 -1.2212
 4153SOL     OW30068   1.231   7.884   4.194 -0.4500  0.5085  0.0757
 4153SOL    HW130069   1.272   7.936   4.125  1.0242 -0.3936  0.2300
 4153SOL    HW230070   1.295   7.816   4.214 -1.7963 -0.6034  0.7620
 4154SOL     OW30071   6.247   5.284  12.782 -0.3466 -0.4504  0.0686
 4154SOL    HW130072   6.237   5.222  12.854 -2.2606  0.2217  0.4357
 4154SOL    HW230073   6.158   5.302  12.752  0.2145  1.2976 -0.7428
 4155SOL     OW30074   0.424  10.965   8.043 -0.0364  0.5835  0.5181
 4155SOL    HW130075   0.475  10.888   8.017 -1.8629 -0.4600 -0.1343
 4155SOL    HW230076   0.386  10.942   8.127 -0.4136  0.8623  0.4284
 4156SOL     OW30077   9.907  10.130   0.255  0.2556  0.9026 -0.4575
 4156SOL    HW130078   9.919  10.109   0.348 -1.3480 -0.0931 -0.4419
 4156SOL    HW230079   9.882  10.222   0.254 -2.9497  0.1791  0.4677
 4157SOL     OW30080   4.990  13.026   5.777 -0.0393 -0.1044 -0.1216
 4157SOL    HW130081   5.084  13.028   5.764  0.0357  0.2557  0.4539
 4157SOL    HW230082   4.978  12.993   5.866 -0.3994  1.1257  0.3122
 4158SOL     OW30083   1.276   9.388   6.950  0.3002  0.3882  1.0737
 4158SOL    HW130084   1.257   9.337   7.028 -1.4840  0.8022  0.9604
 4158SOL    HW230085   1.316   9.326   6.889 -0.7233 -0.5872  1.3663
 4159SOL     OW30086   2.352   9.639   5.397  0.2948 -0.0189 -0.7925
 4159SOL    HW130087   2.439   9.602   5.390  0.6176  0.3024  1.0798
 4159SOL    HW230088   2.299   9.570   5.436  0.5058  0.8286  1.1105
 4160SOL     OW30089   1.118   0.398   0.656 -0.4377  0.0500 -0.3697
 4160SOL    HW130090   1.149   0.479   0.696 -2.2188 -0.5737  2.6308
 4160SOL    HW230091   1.189   0.335   0.669  0.1384  0.5889 -0.8532
 4161SOL     OW30092   8.314   0.475   6.474 -0.0492 -0.6210 -0.2969
 4161SOL    HW130093   8.353   0.545   6.526 -1.3300  3.3718 -4.1537
 4161SOL    HW230094   8.374   0.401   6.485  3.4253  2.1517  1.2948
 4162SOL     OW30095   9.527   5.389  12.312 -0.2923 -0.1068  0.2771
 4162SOL    HW130096   9.453   5.425  12.361  0.4108  1.6731  0.1145
 4162SOL    HW230097   9.500   5.396  12.220 -0.3643 -0.5112  0.2658
 4163SOL     OW30098  12.534  13.139   9.304  0.1896  0.1230  0.1317
 4163SOL    HW130099  12.470  13.211   9.303 -0.7343 -0.4417  3.8091
 4163SOL    HW230100  12.608  13.174   9.354  0.3573 -0.9822  0.6907
 4164SOL     OW30101   3.440   6.759  11.700 -0.7498  0.2653  0.3013
 4164SOL    HW130102   3.497   6.781  11.627 -1.2748 -0.2495 -0.2717
 4164SOL    HW230103   3.492   6.698  11.753 -0.7103 -0.0856 -0.1375
 4165SOL     OW30104  13.136  13.297   3.943 -0.1606 -0.1492 -0.4228
 4165SOL    HW130105  13.085  13.355   3.998 -0.7708 -1.5358  0.5385
 4165SOL    HW230106  13.220  13.341   3.932 -0.4374  0.6854  0.6569
 4166SOL     OW30107   1.250  13.059  12.733  0.0000 -0.0760  0.9606
 4166SOL    HW130108   1.252  12.971  12.695 -1.0395 -0.5642  1.9855
 4166SOL    HW230109   1.203  13.112  12.668 -0.4525 -0.5615  0.8877
 4167SOL     OW30110   0.789   8.172   5.253  0.1232  1.0206 -0.0352
 4167SOL    HW130111   0.725   8.224   5.203 -2.1240 -1.2452  0.3105
 4167SOL    HW230112   0.814   8.101   5.194  0.5507  0.5880  0.6553
 4168SOL     OW30113   8.778   1.072   9.588 -0.4900 -0.3208 -0.1395
 4168SOL    HW130114   8.844   1.054   9.655 -0.4677  1.1370  0.2454
 4168SOL    HW230115   8.805   1.155   9.549 -1.2684 -0.4678 -1.0185
 4169SOL     OW30116   0.460   9.467   3.722 -0.2429  0.1949  0.0518
 4169SOL    HW130117   0.421   9.380   3.720 -1.0032  0.5066  0.4136
 4169SOL    HW230118   0.512   9.469   3.802  1.3619 -0.5509 -0.9223
 4170SOL     OW30119  12.127  11.267   2.978  0.0260 -0.1673  0.2365
 4170SOL    HW130120  12.141  11.229   2.891 -0.2195  0.9313 -0.2994
 4170SOL    HW230121  12.213  11.263   3.020  0.0893 -0.9407  0.0494
 4171SOL     OW30122  11.365   9.745   4.129 -0.0337  0.0314  0.2163
 4171SOL    HW130123  11.309   9.786   4.195 -0.8576 -0.7367  0.0194
 4171SOL    HW230124  11.448   9.728   4.175 -0.3041  0.2686  0.8080
 4172SOL     OW30125   7.229   8.533   5.040  0.8725  0.4461 -0.4006
 4172SOL    HW130126   7.143   8.536   4.997  0.8740  3.7745 -0.3623
 4172SOL    HW230127   7.209   8.533   5.133  0.9434 -0.1751 -0.3779
 4173SOL     OW30128   9.942   8.038  10.349 -0.5240 -0.0240  0.1064
 4173SOL    HW130129   9.884   8.072  10.281 -0.3239  2.6625  1.1277
 4173SOL    HW230130   9.889   8.043  10.429 -0.0769 -1.1162  0.4825
 4174SOL     OW30131   9.619   0.258   1.376 -0.0863  0.5243 -0.0177
 4174SOL    HW130132   9.656   0.199   1.310 -1.1909 -0.0966 -0.1229
 4174SOL    HW230133   9.566   0.201   1.432 -0.3927  1.2733  0.4799
 4175SOL     OW30134   8.272  11.777   8.472 -0.1482 -0.3829  0.1651
 4175SOL    HW130135   8.352  11.830   8.478  0.6005 -1.3982 -0.4438
 4175SOL    HW230136   8.217  11.809   8.544  0.2627  1.1966 -0.1771
 4176SOL     OW30137   9.188  13.873   0.719  0.0120 -0.3691 -0.4662
 4176SOL    HW130138   9.209  13.966   0.717  0.8225 -0.5431 -0.2741
 4176SOL    HW230139   9.104  13.867   0.673 -0.1665  0.4808 -0.2755
 4177SOL     OW30140   2.897  10.767   2.332  0.0008  0.3888 -0.3103
 4177SOL    HW130141   2.968  10.802   2.386  0.7375 -0.4957 -0.6805
 4177SOL    HW230142   2.864  10.842   2.283 -0.6718  1.2105  1.3375
 4178SOL     OW30143   9.962   5.571  11.071 -0.5692 -0.0384  0.0975
 4178SOL    HW130144   9.979   5.509  11.000  0.4703  0.3873 -0.0352
 4178SOL    HW230145   9.976   5.520  11.151  0.4084  0.0449 -0.0114
 4179SOL     OW30146   9.119   5.100   1.278 -0.3387 -0.5092  0.5761
 4179SOL    HW130147   9.120   5.087   1.183  1.4686 -1.5331  0.6694
 4179SOL    HW230148   9.161   5.021   1.313 -0.4577  0.0992  2.1869
 4180SOL     OW30149   7.013  10.707  11.557 -0.3457 -0.5916 -0.1412
 4180SOL    HW130150   7.010  10.702  11.653 -0.6868 -0.4149 -0.1406
 4180SOL    HW230151   6.949  10.642  11.527 -1.9633  0.9214 -0.1926
 4181SOL     OW30152  12.091   8.477   0.688  0.0916  0.6590  0.0594
 4181SOL    HW130153  12.039   8.401   0.664  1.1627  0.5704 -2.2320
 4181SOL    HW230154  12.027   8.544   0.712 -0.9864 -0.0969 -0.6155
 4182SOL     OW30155   1.872   8.221  10.204  0.2870 -0.2626  0.8868
 4182SOL    HW130156   1.829   8.139  10.178  1.7486 -1.5132  2.2336
 4182SOL    HW230157   1.814   8.257  10.271  0.7840 -1.4270  1.9811
 4183SOL     OW30158   9.916   0.035  12.403 -0.5734 -0.2472 -0.4252
 4183SOL    HW130159   9.924   0.130  12.408 -1.0138 -0.0848 -2.1879
 4183SOL    HW230160   9.985   0.002  12.461 -0.8439  1.1221  0.7292
 4184SOL     OW30161   1.205   2.563   3.273  0.1692 -0.0602  0.2789
 4184SOL    HW130162   1.159   2.601   3.347 -0.8050 -0.6875  0.0036
 4184SOL    HW230163   1.270   2.504   3.313 -0.0185 -0.0247  0.6394
 4185SOL     OW30164   1.566   0.784   8.646 -0.0406  0.4308  0.4496
 4185SOL    HW130165   1.537   0.861   8.598 -0.6487  0.5211  0.9435
 4185SOL    HW230166   1.502   0.716   8.624  1.0042 -0.2057 -0.6963
 4186SOL     OW30167   3.340  12.334  12.220  0.0070 -0.2138  0.5441
 4186SOL    HW130168   3.423  12.293  12.244  0.0299  0.2358  1.2731
 4186SOL    HW230169   3.282  12.315  12.294 -0.4778 -0.3514  0.1312
 4187SOL     OW30170   5.960  11.268   2.472  0.3162 -0.2757  0.1399
 4187SOL    HW130171   5.889  11.205   2.455 -0.3130  0.1344  1.1111
 4187SOL    HW230172   6.006  11.231   2.548 -0.1745  0.5137  0.8362
 4188SOL     OW30173  13.557   9.896  11.537 -0.3980  0.2584  0.0650
 4188SOL    HW130174  13.559   9.950  11.616 -1.0501  0.5157 -0.0918
 4188SOL    HW230175  13.638   9.917  11.491  0.1922 -0.2029  0.8663
 4189SOL     OW30176  10.156   9.173  12.153 -0.1937  0.3509  0.1220
 4189SOL    HW130177  10.189   9.098  12.104 -2.3358 -1.0243  0.6723
 4189SOL    HW230178  10.229   9.199  12.209  0.6181 -1.2922 -0.1172
 4190SOL     OW30179  13.669   6.744   1.564  0.2565  0.4560 -0.3145
 4190SOL    HW130180  13.639   6.781   1.481  1.1780  2.7491  0.2666
 4190SOL    HW230181  13.635   6.804   1.631 -0.2531 -1.1921  0.9618
 4191SOL     OW30182   4.597  10.277   4.888  0.4253 -0.0095  0.0546
 4191SOL    HW130183   4.678  10.227   4.884  0.8462  0.7282 -1.8002
 4191SOL    HW230184   4.531  10.213   4.918  1.2918 -1.1765 -0.4453
 4192SOL     OW30185   2.454   5.319   3.428 -0.2946  0.2350 -0.1219
 4192SOL    HW130186   2.372   5.317   3.479 -0.4192 -1.5590 -0.3393
 4192SOL    HW230187   2.498   5.237   3.450 -0.5540 -0.8599 -3.2228
 4193SOL     OW30188   3.975   4.186   5.260 -0.8005  0.1525  0.6913
 4193SOL    HW130189   3.974   4.095   5.231 -0.2732  0.8034 -1.5255
 4193SOL    HW230190   3.896   4.225   5.223 -1.2232  0.5418  1.9383
 4194SOL     OW30191   4.714   6.900   3.268  0.3737  0.2118  0.5518
 4194SOL    HW130192   4.630   6.880   3.310  0.0758 -1.6082 -0.8069
 4194SOL    HW230193   4.726   6.994   3.283 -1.4407  0.3388  1.5638
 4195SOL     OW30194  11.657  13.137   0.060 -0.4691  0.2720  0.6805
 4195SOL    HW130195  11.728  13.084   0.024 -0.5538  0.1419  0.7038
 4195SOL    HW230196  11.701  13.198   0.120 -0.4316 -0.1565  1.0913
 4196SOL     OW30197  13.072   9.550   1.759  0.1325  0.1119  0.5263
 4196SOL    HW130198  13.100   9.607   1.830  1.1306  0.6287 -0.2487
 4196SOL    HW230199  13.028   9.608   1.697 -1.0320 -0.3902  0.8648
 4197SOL     OW30200  10.712  13.174   4.288  0.9403 -0.3546 -0.0843
 4197SOL    HW130201  10.700  13.246   4.349  0.8071 -0.2759 -0.2048
 4197SOL    HW230202  10.765  13.211   4.217  1.3836 -0.5353  0.1455
 4198SOL     OW30203   9.560   3.597   6.990  0.4633 -0.2943  0.5627
 4198SOL    HW130204   9.633   3.644   7.028 -0.2259 -0.1641  1.7784
 4198SOL    HW230205   9.501   3.579   7.063 -1.2009  0.4632 -0.5113
 4199SOL     OW30206   7.643   1.594   4.375 -0.9560  0.1095 -0.1589
 4199SOL    HW130207   7.684   1.537   4.311 -1.4017  1.4026 -1.6811
 4199SOL    HW230208   7.554   1.560   4.384 -0.7668 -0.3216  0.0992
 4200SOL     OW30209   0.601  10.078   6.636 -0.3853 -0.1686 -0.0460
 4200SOL    HW130210   0.687  10.041   6.618  0.2110  0.2772  1.7613
 4200SOL    HW230211   0.595  10.081   6.731 -2.1825  0.3266 -0.1404
 4201SOL     OW30212   4.296   2.896  10.393  0.0263  0.4869 -0.0822
 4201SOL    HW130213   4.247   2.942  10.460  1.0997  0.1748  0.9510
 4201SOL    HW230214   4.266   2.933  10.310 -1.4079  0.7853  0.5582
 4202SOL     OW30215   8.915  12.685   1.825 -0.1118 -0.1351 -0.5381
 4202SOL    HW130216   8.967  12.755   1.786 -0.4407 -0.5780 -1.7968
 4202SOL    HW230217   8.906  12.620   1.756  0.6861 -1.7126  0.7849
 4203SOL     OW30218  10.980   2.021  11.749 -0.3467  0.1258 -0.3101
 4203SOL    HW130219  11.047   1.956  11.726  0.8286  0.9554  0.6218
 4203SOL    HW230220  10.897   1.973  11.745  0.5353 -1.6335  0.9421
 4204SOL     OW30221   7.040   1.438   6.434 -0.0378 -0.0661  0.1772
 4204SOL    HW130222   7.058   1.436   6.340 -0.2991  1.6548  0.0619
 4204SOL    HW230223   6.944   1.435   6.440 -0.0387  0.2667  0.3612
 4205SOL     OW30224   7.528   8.394   0.415  0.3309 -0.2343  0.0759
 4205SOL    HW130225   7.507   8.467   0.357  1.5756  0.5664  0.5952
 4205SOL    HW230226   7.588   8.432   0.480  2.7828 -2.1983 -0.8895
 4206SOL     OW30227   5.644   2.899   3.257  0.1546  0.5457  0.5272
 4206SOL    HW130228   5.735   2.917   3.233 -0.3799  2.1915 -0.4328
 4206SOL    HW230229   5.645   2.894   3.352  1.2256  0.7383  0.5402
 4207SOL     OW30230   4.902   2.207   7.379  0.1282  0.1497  0.0779
 4207SOL    HW130231   4.983   2.246   7.347  1.3226 -3.4473 -1.9572
 4207SOL    HW230232   4.844   2.206   7.302 -0.7461  0.1346  0.7256
 4208SOL     OW30233   4.367  10.223   6.362  0.1807 -0.0479  0.4919
 4208SOL    HW130234   4.272  10.212   6.368  0.4144 -1.9806  1.2209
 4208SOL    HW230235   4.383  10.308   6.404 -1.2611  0.5902 -0.1669
 4209SOL     OW30236   2.623   1.910   6.207 -0.3573 -0.5454 -0.1210
 4209SOL    HW130237   2.693   1.932   6.268 -0.0938 -0.3548 -0.4914
 4209SOL    HW230238   2.558   1.864   6.261 -0.9718  1.1777  0.7126
 4210SOL     OW30239   9.221   5.584   1.427  0.3974 -0.1623  0.2066
 4210SOL    HW130240   9.272   5.665   1.419 -1.6899  1.1878 -0.1137
 4210SOL    HW230241   9.242   5.534   1.349  0.9383  0.5325 -0.0983
 4211SOL     OW30242   8.234   0.287  14.012  0.7978  0.0633 -0.2566
 4211SOL    HW130243   8.144   0.315  13.997  0.5776  0.4395  1.6327
 4211SOL    HW230244   8.285   0.333  13.945 -0.4513 -0.5835 -1.7083
 4212SOL     OW30245   0.972   0.398  10.783 -0.2514 -0.0654 -0.8658
 4212SOL    HW130246   0.916   0.422  10.709 -1.7313  2.6110  0.9362
 4212SOL    HW230247   0.911   0.389  10.856  1.1711 -2.4954  0.1253
 4213SOL     OW30248   8.878   1.463   1.072  0.0880  0.3316 -0.3082
 4213SOL    HW130249   8.840   1.378   1.090 -1.7444  1.1717  0.0243
 4213SOL    HW230250   8.968   1.445   1.048 -0.2358 -1.6763 -0.1301
 4214SOL     OW30251   6.560   2.755   3.109 -0.1915 -0.3269  0.4319
 4214SOL    HW130252   6.557   2.837   3.059  0.4107 -0.9533 -0.6710
 4214SOL    HW230253   6.598   2.779   3.193  0.3056  0.4681 -0.0103
 4215SOL     OW30254   2.194   5.290   9.883  0.1884  0.4456  0.3475
 4215SOL    HW130255   2.199   5.305   9.788 -1.6004 -1.9396 -0.2369
 4215SOL    HW230256   2.100   5.280   9.901  0.5655 -0.1669  2.1774
 4216SOL     OW30257  14.089   2.188   9.479 -0.1043  0.5692  0.3511
 4216SOL    HW130258  14.148   2.252   9.438  0.7461 -0.1459  0.4379
 4216SOL    HW230259  14.028   2.164   9.409 -0.0136  0.9698  0.1288
 4217SOL     OW30260   9.549  10.113  10.820  0.2455 -0.0334  0.2996
 4217SOL    HW130261   9.632  10.099  10.775  0.5991 -0.8879  1.1773
 4217SOL    HW230262   9.573  10.116  10.913 -1.0467 -3.9602  0.9540
 4218SOL     OW30263  11.291   9.037   9.732  0.1713 -0.2987 -0.7286
 4218SOL    HW130264  11.353   9.076   9.671  0.3859 -1.8620 -1.5640
 4218SOL    HW230265  11.243   8.973   9.680  0.0189 -1.3271  0.6199
 4219SOL     OW30266   4.911  12.372   7.833 -0.0127 -0.1418  0.6554
 4219SOL    HW130267   4.892  12.334   7.919  0.8131  0.4422  1.1152
 4219SOL    HW230268   4.999  12.409   7.843  0.3100 -0.5519 -0.6166
 4220SOL     OW30269   2.184   8.041   0.592 -0.2988  0.3564  0.1251
 4220SOL    HW130270   2.149   7.961   0.631 -1.9722 -0.2146 -2.3656
 4220SOL    HW230271   2.270   8.015   0.558 -0.8575 -0.4458 -0.7270
 4221SOL     OW30272   3.084   2.480   1.838 -0.0515 -0.3540 -0.1137
 4221SOL    HW130273   3.142   2.449   1.769  0.1637 -0.6076  0.1746
 4221SOL    HW230274   3.044   2.400   1.872  1.1781 -0.4358  1.2435
 4222SOL     OW30275  10.075   8.174  10.112  0.6139  0.1402  0.5069
 4222SOL    HW130276  10.125   8.241  10.065  0.9819 -1.4491 -1.5011
 4222SOL    HW230277   9.990   8.214  10.127  1.2537  1.5349  0.6240
 4223SOL     OW30278   2.735  11.991   3.935  0.4517 -0.3128  0.4585
 4223SOL    HW130279   2.675  11.966   4.004  0.7808  1.2721  1.3655
 4223SOL    HW230280   2.820  11.955   3.962  0.3837 -0.5343  0.3765
 4224SOL     OW30281   1.447   7.727   4.195  0.4396 -0.1450 -0.1767
 4224SOL    HW130282   1.487   7.753   4.111 -2.2407  0.6241 -1.3164
 4224SOL    HW230283   1.522   7.709   4.252  2.3852  0.0233 -2.4935
 4225SOL     OW30284   5.631   6.478   2.065  0.6703 -0.3707 -0.3636
 4225SOL    HW130285   5.669   6.412   2.123  0.0026  1.5516  2.4964
 4225SOL    HW230286   5.537   6.462   2.068  0.5607  0.2633 -0.2113
 4226SOL     OW30287   8.621   0.964  11.519  0.2340  0.2541  0.8115
 4226SOL    HW130288   8.694   0.902  11.522 -1.2399 -1.6190  0.0684
 4226SOL    HW230289   8.615   0.989  11.427  0.4703  1.1141  1.0203
 4227SOL     OW30290   9.913   4.510   8.067 -0.1504  0.4536 -0.4324
 4227SOL    HW130291   9.828   4.525   8.025 -0.2641  2.5802  0.4654
 4227SOL    HW230292   9.969   4.579   8.034  0.6675  0.2441  0.4800
 4228SOL     OW30293   6.822  12.602  12.509  0.0952 -0.3656  0.1147
 4228SOL    HW130294   6.782  12.568  12.429 -0.6414 -0.4303  0.5027
 4228SOL    HW230295   6.849  12.691  12.486  3.3248 -1.5935 -1.3443
 4229SOL     OW30296   0.068   2.166   6.852  0.1582  0.5113  0.1755
 4229SOL    HW130297   0.132   2.118   6.801  0.4225  0.1313  0.8528
 4229SOL    HW230298  -0.017   2.135   6.820  0.3099 -1.0754  1.1749
 4230SOL     OW30299   6.463   9.588   4.860  0.3329  0.0829 -0.7596
 4230SOL    HW130300   6.373   9.614   4.841  0.1424  0.6817  0.7871
 4230SOL    HW230301   6.500   9.565   4.775 -1.4047 -0.6004 -1.3752
 4231SOL     OW30302   3.596   3.890  11.074  0.0297 -0.3650  0.4464
 4231SOL    HW130303   3.603   3.900  11.169  0.5981 -0.8816  0.4657
 4231SOL    HW230304   3.595   3.795  11.060  1.7664 -0.3256 -0.1693
 4232SOL     OW30305   8.141   1.728   2.038  0.4327  0.0069  0.3825
 4232SOL    HW130306   8.077   1.798   2.049  1.2440  1.0215 -0.9841
 4232SOL    HW230307   8.164   1.731   1.945  0.8851 -1.7457  0.3956
 4233SOL     OW30308   9.421  12.732  12.141 -0.2981  0.2536  0.2209
 4233SOL    HW130309   9.378  12.816  12.157 -0.2596  0.2136  0.5433
 4233SOL    HW230310   9.486  12.726  12.211 -0.0948  0.0958  0.0153
 4234SOL     OW30311   9.714  12.926   0.473 -0.0625 -0.3368 -0.5794
 4234SOL    HW130312   9.670  13.009   0.488 -0.1319 -0.6748  1.2672
 4234SOL    HW230313   9.708  12.879   0.556  0.1944 -2.1006 -1.4898
 4235SOL     OW30314   6.310  10.048   3.011  0.0974  0.1042 -0.4449
 4235SOL    HW130315   6.317  10.133   3.055 -0.6178  0.6470 -1.3479
 4235SOL    HW230316   6.217  10.026   3.016 -0.0878  0.4136 -2.0860
 4236SOL     OW30317   3.318  12.149   1.572  0.2256  0.0612  0.1003
 4236SOL    HW130318   3.322  12.054   1.564  1.7089  0.1285 -0.4080
 4236SOL    HW230319   3.279  12.165   1.658 -2.1841 -0.9491 -0.7369
 4237SOL     OW30320   0.308   6.719   3.681 -0.1064 -0.2004  0.4107
 4237SOL    HW130321   0.273   6.631   3.667 -0.2261 -0.1311  0.2689
 4237SOL    HW230322   0.235   6.777   3.663  0.3839  0.0012 -1.1246
 4238SOL     OW30323   9.128   6.885   0.226 -0.2524 -0.0934 -0.2888
 4238SOL    HW130324   9.121   6.810   0.286 -0.2933 -0.9430 -1.3214
 4238SOL    HW230325   9.064   6.867   0.158 -0.6069  1.1473 -0.3051
 4239SOL     OW30326   0.030   5.552   6.332 -0.1914  0.2495 -0.6884
 4239SOL    HW130327   0.000   5.638   6.360 -0.0926  0.2746 -0.6604
 4239SOL    HW230328   0.125   5.555   6.341 -0.3235 -0.7544  1.8656
 4240SOL     OW30329   1.465   5.991   2.130  0.3078 -0.0353 -0.1192
 4240SOL    HW130330   1.532   6.049   2.093 -0.1346 -0.2842 -1.3620
 4240SOL    HW230331   1.492   5.903   2.103  1.7380 -0.6470  2.9198
 4241SOL     OW30332  10.815   4.085   8.794  0.4166  0.3288 -0.4675
 4241SOL    HW130333  10.871   4.011   8.771  0.3821  0.2186 -0.1975
 4241SOL    HW230334  10.854   4.120   8.875 -0.3750 -0.2414  0.1704
 4242SOL     OW30335   6.718  10.810  12.028 -0.3070 -0.1436 -0.0567
 4242SOL    HW130336   6.661  10.818  12.104 -0.1628 -0.8505  0.1317
 4242SOL    HW230337   6.662  10.771  11.960 -0.4038  0.3772 -0.2824
 4243SOL     OW30338  12.795   3.142   3.870 -0.3978 -0.6957  0.0672
 4243SOL    HW130339  12.890   3.143   3.866 -0.3670 -0.3092  0.7309
 4243SOL    HW230340  12.775   3.150   3.964 -1.0817 -0.4607 -0.0960
 4244SOL     OW30341   0.011   2.643   2.641  0.1590 -0.5690 -0.2110
 4244SOL    HW130342  -0.005   2.673   2.551 -1.1938 -0.3041  0.0920
 4244SOL    HW230343  -0.038   2.561   2.647  1.4867 -1.3795 -0.1559
 4245SOL     OW30344   5.302  13.642   0.837  0.2089 -0.4339  0.6919
 4245SOL    HW130345   5.270  13.732   0.848  0.1906 -0.5932  2.1177
 4245SOL    HW230346   5.231  13.597   0.792 -1.0603 -0.4258  2.5629
 4246SOL     OW30347   3.813   1.690  13.247 -0.0785  0.1609 -0.2851
 4246SOL    HW130348   3.848   1.727  13.166  1.2388  1.3199  0.7533
 4246SOL    HW230349   3.889   1.684  13.305 -1.3050  1.2959  1.5520
 4247SOL     OW30350   4.509   4.178   1.170 -0.6793 -0.0390  0.6976
 4247SOL    HW130351   4.580   4.117   1.152  0.5465  1.1283  1.3932
 4247SOL    HW230352   4.503   4.182   1.265  0.3134  2.0193  0.7324
 4248SOL     OW30353   6.643   7.613   1.867  0.3998  0.3545 -0.1520
 4248SOL    HW130354   6.590   7.546   1.825 -1.4080  1.6361 -0.0152
 4248SOL    HW230355   6.583   7.656   1.928  1.7360  1.5373  0.3735
 4249SOL     OW30356  10.657   0.587   5.460  0.2839 -0.8029  0.2552
 4249SOL    HW130357  10.577   0.568   5.511 -0.6247 -0.3417 -0.9629
 4249SOL    HW230358  10.647   0.678   5.433  1.3921 -0.6466  0.3528
 4250SOL     OW30359   1.254   0.102   5.100  0.0016  0.5358  0.6869
 4250SOL    HW130360   1.263   0.017   5.144 -1.2000 -0.1627 -0.3504
 4250SOL    HW230361   1.161   0.123   5.108  0.3703  2.0689  1.4352
 4251SOL     OW30362   0.777   0.655   4.737  0.5257  0.5297  0.1495
 4251SOL    HW130363   0.862   0.613   4.750  0.6083  0.5337 -0.3624
 4251SOL    HW230364   0.736   0.653   4.823  0.4965 -0.6891  0.1315
 4252SOL     OW30365   6.381   4.816   8.101  0.0723 -0.2857 -0.3497
 4252SOL    HW130366   6.302   4.862   8.128 -0.3949 -2.3102  2.0742
 4252SOL    HW230367   6.444   4.833   8.172  1.8744  1.2357 -2.1913
 4253SOL     OW30368   7.041   9.967   6.096 -0.1574 -0.7720 -0.3313
 4253SOL    HW130369   7.014   9.940   6.184 -0.2756 -1.7758 -0.6661
 4253SOL    HW230370   7.136   9.958   6.096  0.0312  0.8816  0.2228
 4254SOL     OW30371  11.695   3.005   1.949  0.0512 -0.1872  0.1471
 4254SOL    HW130372  11.707   2.924   1.997 -0.4119 -1.1156 -1.2368
 4254SOL    HW230373  11.776   3.017   1.901 -0.8433 -1.3596 -1.7876
 4255SOL     OW30374   8.958   8.707   0.846 -0.9742 -0.0350  0.6051
 4255SOL    HW130375   8.868   8.675   0.841 -0.7924 -0.6270  0.8805
 4255SOL    HW230376   8.985   8.687   0.936 -0.9606  1.2326  0.8909
 4256SOL     OW30377   2.280   5.025   3.176 -0.1349  0.2654 -0.6564
 4256SOL    HW130378   2.252   5.008   3.086 -0.9703  0.5605 -0.4687
 4256SOL    HW230379   2.297   5.119   3.178 -0.5183  0.3349 -0.4146
 4257SOL     OW30380  13.381  11.675  14.030 -0.0147  0.0213 -0.7134
 4257SOL    HW130381  13.367  11.764  13.998 -1.1558 -0.3691 -1.3511
 4257SOL    HW230382  13.430  11.686  14.111 -1.1425  1.3082 -0.1699
 4258SOL     OW30383   0.053   0.503   7.591 -0.1393 -0.2353 -0.7157
 4258SOL    HW130384   0.043   0.557   7.512  0.5241 -0.6200 -1.0796
 4258SOL    HW230385   0.012   0.554   7.661  0.7912  0.9081 -0.9732
 4259SOL     OW30386   0.488   3.444   3.218  0.2909  0.3530 -0.1846
 4259SOL    HW130387   0.533   3.522   3.250  0.4267  0.3368 -0.3376
 4259SOL    HW230388   0.533   3.421   3.137 -0.0466  0.3847 -0.3856
 4260SOL     OW30389  12.467   1.807   2.799 -0.2426  0.8145  0.2516
 4260SOL    HW130390  12.400   1.850   2.852  0.9909  1.2016  1.5599
 4260SOL    HW230391  12.505   1.877   2.746  0.4404  0.9897  0.9542
 4261SOL     OW30392   1.488   6.933   8.057 -0.1028  0.0828  0.6585
 4261SOL    HW130393   1.535   6.850   8.043  0.2533  0.3092  0.4909
 4261SOL    HW230394   1.490   6.976   7.971 -1.9116 -0.5539  0.2464
 4262SOL     OW30395  11.726  13.180   3.694  0.6262  0.3834  0.5097
 4262SOL    HW130396  11.776  13.101   3.674  0.3896 -0.5991  3.3316
 4262SOL    HW230397  11.635  13.153   3.688  0.5260  0.6933  0.5974
 4263SOL     OW30398   0.178   7.170   6.430  0.1683  0.4751  0.0178
 4263SOL    HW130399   0.234   7.152   6.505 -0.2121  1.0672  0.4495
 4263SOL    HW230400   0.091   7.140   6.457  0.0345  0.6639 -0.1945
 4264SOL     OW30401  10.744  11.781   8.882  0.1702  0.4973  0.2426
 4264SOL    HW130402  10.739  11.809   8.791 -0.0180  0.6824  0.3090
 4264SOL    HW230403  10.653  11.763   8.907  0.2418  0.2583  0.3352
 4265SOL     OW30404   2.680   5.777  12.291  0.1237 -0.2117 -0.2179
 4265SOL    HW130405   2.658   5.760  12.383  1.3253 -1.6278 -0.1520
 4265SOL    HW230406   2.665   5.871  12.280 -0.2289 -0.0512  1.3779
 4266SOL     OW30407   3.943   1.289  11.738  0.3318  0.0647  0.4047
 4266SOL    HW130408   4.032   1.306  11.710  0.3930 -1.1872 -0.2649
 4266SOL    HW230409   3.919   1.208  11.692 -0.6963 -0.3027  1.5324
 4267SOL     OW30410  10.959  12.233   0.979  0.3529  0.5817  0.5911
 4267SOL    HW130411  10.946  12.145   1.015  0.8098 -0.3805 -1.4291
 4267SOL    HW230412  10.874  12.276   0.989  0.4335  0.3674  2.6526
 4268SOL     OW30413   2.805   1.743   4.675  0.0130 -0.3003 -0.8646
 4268SOL    HW130414   2.809   1.648   4.667  1.0448 -0.4409  0.9697
 4268SOL    HW230415   2.713   1.761   4.694 -0.1133 -0.9747 -0.8014
 4269SOL     OW30416  12.605  10.792   1.433 -0.2101 -0.1428 -0.1358
 4269SOL    HW130417  12.700  10.776   1.429 -0.2654 -0.3784 -0.4605
 4269SOL    HW230418  12.594  10.877   1.390  0.3889  2.1191  3.6630
 4270SOL     OW30419   6.463   1.935   4.531 -0.5450 -0.2064 -0.4755
 4270SOL    HW130420   6.481   2.015   4.483  0.7683 -0.7810 -1.0109
 4270SOL    HW230421   6.400   1.960   4.598 -1.4897  0.8777 -1.7204
 4271SOL     OW30422   2.705   0.734   5.916 -0.4079 -0.0851 -0.3884
 4271SOL    HW130423   2.744   0.652   5.883  1.2552  0.8633 -0.9002
 4271SOL    HW230424   2.640   0.757   5.850  0.5808  0.0696 -1.3333
 4272SOL     OW30425   5.327   2.074   3.997 -0.6848 -0.2141 -0.2108
 4272SOL    HW130426   5.275   2.142   3.954 -0.6353 -0.7175 -1.0851
 4272SOL    HW230427   5.375   2.032   3.926 -0.0271 -0.5777  0.4352
 4273SOL     OW30428  13.755   6.297   7.339 -0.6875  0.2494  0.0131
 4273SOL    HW130429  13.711   6.307   7.254  0.1992  1.1743 -0.3685
 4273SOL    HW230430  13.804   6.379   7.350 -3.5220  1.7403  3.0768
 4274SOL     OW30431  13.794   0.982   2.820 -0.6113 -0.1380 -0.2570
 4274SOL    HW130432  13.798   0.887   2.832 -1.2790 -0.2701 -1.0199
 4274SOL    HW230433  13.738   1.013   2.891 -0.8738 -0.3802 -0.3598
 4275SOL     OW30434  11.037   0.257   6.353 -0.3837  0.7535 -0.6785
 4275SOL    HW130435  10.953   0.219   6.381 -0.1311 -0.2111 -1.1941
 4275SOL    HW230436  11.082   0.185   6.310  1.3782  0.8038  0.9612
 4276SOL     OW30437   7.013  11.033   2.075  0.1921  0.6342  0.0795
 4276SOL    HW130438   7.013  10.954   2.129 -1.0700  1.0041  0.6423
 4276SOL    HW230439   6.955  11.093   2.121  0.6918  1.6879 -0.6456
 4277SOL     OW30440   6.388  12.460   5.928  0.9505 -0.4399  0.5419
 4277SOL    HW130441   6.334  12.400   5.876 -1.4334  1.6844  0.3447
 4277SOL    HW230442   6.421  12.523   5.864  1.2258 -0.0489  1.0647
 4278SOL     OW30443   4.133  12.788   9.194  0.2295 -0.0626 -0.0211
 4278SOL    HW130444   4.193  12.796   9.120  2.0910 -0.6045  1.3472
 4278SOL    HW230445   4.103  12.877   9.211  1.0524  0.2948 -0.4056
 4279SOL     OW30446   4.410   6.975   5.032 -0.0019 -0.0499  0.4208
 4279SOL    HW130447   4.355   7.042   4.992  0.3600  1.5944  2.5002
 4279SOL    HW230448   4.467   6.945   4.961 -0.0875  1.9521 -0.5617
 4280SOL     OW30449  13.027   3.378   7.531  0.3366 -0.3490 -0.2371
 4280SOL    HW130450  13.063   3.304   7.482  1.0316 -2.0250  2.6447
 4280SOL    HW230451  12.982   3.339   7.606 -0.5398  2.1044  0.6375
 4281SOL     OW30452   3.720  13.621   2.761 -0.7084  0.3247  0.1450
 4281SOL    HW130453   3.685  13.578   2.682 -2.4746  2.8026 -0.5239
 4281SOL    HW230454   3.790  13.677   2.728 -0.9487  0.8030  0.4485
 4282SOL     OW30455  11.543   0.445   0.142 -0.6794  0.1836 -0.0555
 4282SOL    HW130456  11.574   0.394   0.217 -1.8905  0.0409  0.3656
 4282SOL    HW230457  11.531   0.380   0.073  1.0422  0.3997 -0.6064
 4283SOL     OW30458   3.082   4.628   4.014 -0.3161  0.4819 -0.1156
 4283SOL    HW130459   3.010   4.609   3.955 -0.8973  0.6676  0.5105
 4283SOL    HW230460   3.161   4.614   3.962 -0.8084  0.6904 -0.9444
 4284SOL     OW30461   2.164   3.782   9.955 -0.3993  0.2480 -0.0459
 4284SOL    HW130462   2.254   3.808   9.972  0.4286 -1.4460 -1.4672
 4284SOL    HW230463   2.116   3.864   9.949  0.7506  1.1457  2.0520
 4285SOL     OW30464  13.887   5.946   5.779  0.0995  0.4752  0.3320
 4285SOL    HW130465  13.873   5.908   5.866  0.1868 -0.8082 -0.1974
 4285SOL    HW230466  13.799   5.953   5.742  0.2221 -1.0761 -0.3165
 4286SOL     OW30467   9.242  13.932  10.792  0.0441  0.0630 -0.3595
 4286SOL    HW130468   9.324  13.891  10.818  0.1268 -1.0166 -2.1550
 4286SOL    HW230469   9.184  13.858  10.773 -0.6634  0.8077 -1.1314
 4287SOL     OW30470   8.622  13.018  13.662 -0.4574  0.1317  0.3656
 4287SOL    HW130471   8.617  12.923  13.658  0.2260  0.0611  0.9625
 4287SOL    HW230472   8.686  13.042  13.596  0.0282  0.1068  0.8272
 4288SOL     OW30473   5.822  11.390   6.009  0.4106  0.0861  0.4242
 4288SOL    HW130474   5.864  11.412   5.925  1.1884 -1.6431  0.3320
 4288SOL    HW230475   5.868  11.313   6.040  0.7925  1.2217  2.9599
 4289SOL     OW30476   8.141   9.268   6.054  0.1291 -0.2443 -0.2406
 4289SOL    HW130477   8.060   9.320   6.055 -0.5890 -1.1248 -3.2804
 4289SOL    HW230478   8.200   9.314   6.114 -1.8913  1.6214  0.4327
 4290SOL     OW30479  11.839   4.888   8.105 -0.4943  0.7580 -0.7889
 4290SOL    HW130480  11.932   4.871   8.087 -0.8128  0.1835 -1.9330
 4290SOL    HW230481  11.815   4.820   8.169 -0.7116 -0.6325 -2.2830
 4291SOL     OW30482   7.526  13.675  11.904  1.3045 -0.1608  0.0157
 4291SOL    HW130483   7.573  13.682  11.821 -0.1450 -0.3885 -0.8523
 4291SOL    HW230484   7.435  13.660  11.879  1.0817 -1.9162  1.6474
 4292SOL     OW30485   4.738  11.901   0.099 -0.1784  0.3121 -0.2668
 4292SOL    HW130486   4.702  11.840   0.164 -1.1057 -1.9906 -2.7225
 4292SOL    HW230487   4.813  11.942   0.142 -2.6709  1.5289  3.3749
 4293SOL     OW30488   9.670  10.716  12.525 -0.0400  0.2572 -0.3145
 4293SOL    HW130489   9.696  10.690  12.437  0.9515  1.1283 -0.3036
 4293SOL    HW230490   9.703  10.646  12.581 -0.2258 -0.0500 -0.5871
 4294SOL     OW30491  12.161   2.481  10.277 -0.3747 -0.2038  0.2070
 4294SOL    HW130492  12.231   2.546  10.270 -3.3457  3.3592  0.7184
 4294SOL    HW230493  12.144   2.455  10.187  3.0015 -3.0716  0.1811
 4295SOL     OW30494   3.884   9.614   3.179 -0.8611 -0.5452 -0.3074
 4295SOL    HW130495   3.978   9.617   3.196 -0.8424  0.0799 -0.4850
 4295SOL    HW230496   3.855   9.704   3.191 -1.2661 -0.5406 -1.2173
 4296SOL     OW30497  13.713  12.662  12.562 -0.3680  0.3556  0.3420
 4296SOL    HW130498  13.675  12.740  12.522  0.1713  0.0660 -0.7721
 4296SOL    HW230499  13.681  12.663  12.652  1.0110  2.8043  0.8785
 4297SOL     OW30500  13.446  12.687   1.849  0.3193 -0.0738 -0.9935
 4297SOL    HW130501  13.386  12.659   1.917  1.0575  0.1583 -0.2290
 4297SOL    HW230502  13.410  12.650   1.768  0.0037 -1.2501 -0.3361
 4298SOL     OW30503   3.540   0.791   1.582  0.1819 -0.3367 -0.2435
 4298SOL    HW130504   3.626   0.779   1.541  1.5805  0.0814  2.3376
 4298SOL    HW230505   3.485   0.724   1.542  2.1912 -1.7869 -0.7579
 4299SOL     OW30506  13.126   4.338   9.673 -0.7225  0.1608 -0.0201
 4299SOL    HW130507  13.208   4.298   9.644  0.7106  2.0213  1.2566
 4299SOL    HW230508  13.132   4.342   9.768 -1.3790  2.0962 -0.0002
 4300SOL     OW30509  13.793   0.158  13.513 -0.3280  0.3582 -0.6012
 4300SOL    HW130510  13.883   0.185  13.531 -0.6095  0.8699  0.0963
 4300SOL    HW230511  13.760   0.128  13.598 -0.6712 -0.2712 -0.9471
 4301SOL     OW30512   3.673   3.878  11.837 -0.5463 -0.4991  0.3264
 4301SOL    HW130513   3.726   3.885  11.758 -2.2856 -0.7425 -0.9107
 4301SOL    HW230514   3.696   3.957  11.888  1.0771 -0.6836 -0.0745
 4302SOL     OW30515   0.801   2.693   5.927 -0.0027  0.1073  0.0499
 4302SOL    HW130516   0.813   2.599   5.942 -1.2466  0.0647  0.9438
 4302SOL    HW230517   0.711   2.710   5.954  0.2344  1.5824 -0.0088
 4303SOL     OW30518  10.292   5.952   0.375  0.9208 -0.5355 -0.5984
 4303SOL    HW130519  10.358   6.019   0.355  1.9891 -1.6113 -0.7923
 4303SOL    HW230520  10.343   5.879   0.410  0.1178 -2.2351 -2.7397
 4304SOL     OW30521   2.354  11.169   8.700 -0.4882 -0.4315 -0.6459
 4304SOL    HW130522   2.313  11.127   8.775  0.0871  0.6137  0.2755
 4304SOL    HW230523   2.377  11.256   8.730 -1.2764  0.4303 -2.3877
 4305SOL     OW30524  10.391  13.121  12.263  0.2790 -0.1907  0.7055
 4305SOL    HW130525  10.323  13.105  12.197  0.1241  0.9497  0.5750
 4305SOL    HW230526  10.351  13.090  12.345 -0.4409  0.5301  0.6424
 4306SOL     OW30527   1.123  11.246  10.299  0.3196  0.1238  1.0457
 4306SOL    HW130528   1.187  11.286  10.241 -0.5491  1.4772  0.9663
 4306SOL    HW230529   1.065  11.197  10.241  1.0348 -0.7979  1.0816
 4307SOL     OW30530  13.623   6.706   8.313  0.6813 -0.1886  0.2208
 4307SOL    HW130531  13.565   6.658   8.253  0.7994 -1.4734  1.0793
 4307SOL    HW230532  13.684   6.640   8.345  1.6417  0.8227  0.5239
 4308SOL     OW30533  10.797   8.058   5.289 -0.0492  0.8732 -0.4091
 4308SOL    HW130534  10.787   7.969   5.256 -1.2818  0.1998  1.5852
 4308SOL    HW230535  10.807   8.112   5.211 -1.1185 -0.7940 -1.7716
 4309SOL     OW30536   7.260  13.383   0.467  0.2773  0.3924  0.6993
 4309SOL    HW130537   7.178  13.389   0.418 -0.8197 -0.3559  2.3398
 4309SOL    HW230538   7.299  13.470   0.460 -1.1010  1.0251  0.6058
 4310SOL     OW30539   3.315   6.705   9.704 -0.1274  0.1255 -0.5322
 4310SOL    HW130540   3.224   6.714   9.675 -0.2000  1.4538  0.0535
 4310SOL    HW230541   3.345   6.794   9.717  0.9444 -0.3351  0.2711
 4311SOL     OW30542   8.759   4.104  12.615 -0.6975  0.0189  0.4886
 4311SOL    HW130543   8.841   4.064  12.586  1.1535  3.7172 -0.0068
 4311SOL    HW230544   8.759   4.091  12.710  0.1371 -0.6198  0.4093
 4312SOL     OW30545  11.946   8.510   6.423 -0.7276 -0.3703 -0.6089
 4312SOL    HW130546  12.002   8.489   6.497 -0.1988 -1.6507 -1.3530
 4312SOL    HW230547  11.956   8.605   6.412  3.5178 -0.8237 -2.4105
 4313SOL     OW30548   1.501   9.098  12.971  0.5159  0.0899  0.1413
 4313SOL    HW130549   1.489   9.142  13.055  0.5389  0.7916 -0.2156
 4313SOL    HW230550   1.426   9.126  12.919  0.7272 -0.0002 -0.2154
 4314SOL     OW30551   3.349   4.235   2.832 -0.1630  0.0485  0.4381
 4314SOL    HW130552   3.364   4.328   2.816 -0.2795 -0.1823 -1.2193
 4314SOL    HW230553   3.265   4.217   2.790 -1.0108 -0.4621  2.2583
 4315SOL     OW30554   2.876   4.578   5.661 -0.0721  0.0786 -0.2315
 4315SOL    HW130555   2.922   4.586   5.744 -0.1071  1.3383 -0.3091
 4315SOL    HW230556   2.843   4.488   5.660 -3.1649  0.9423  2.7812
 4316SOL     OW30557   8.559   4.388  11.543  0.2323  0.1741  0.7078
 4316SOL    HW130558   8.628   4.330  11.511 -0.1904 -0.3942  0.8076
 4316SOL    HW230559   8.483   4.366  11.490 -0.4143 -0.6102  1.9182
 4317SOL     OW30560  12.731   2.817  11.748  0.0014 -0.8027  0.3388
 4317SOL    HW130561  12.639   2.841  11.735  0.1594 -0.3304  0.0557
 4317SOL    HW230562  12.762   2.879  11.814  0.4920 -0.0059 -0.6076
 4318SOL     OW30563   0.729  13.750  13.286 -0.6444 -0.0446 -0.1186
 4318SOL    HW130564   0.757  13.693  13.214 -1.5780 -1.2361  0.4288
 4318SOL    HW230565   0.635  13.734  13.295 -0.3193 -1.1188  2.3295
 4319SOL     OW30566   7.948  10.644  12.570 -0.0371  0.6113 -0.4197
 4319SOL    HW130567   8.039  10.619  12.585 -0.7180 -0.2740  3.0500
 4319SOL    HW230568   7.936  10.725  12.620 -0.8634  1.4601 -1.9254
 4320SOL     OW30569   1.471   6.705   9.529 -0.2224 -0.4439 -0.5827
 4320SOL    HW130570   1.407   6.639   9.552 -0.1521 -0.6518 -0.9788
 4320SOL    HW230571   1.444   6.783   9.578 -0.6485 -0.5909 -0.5806
 4321SOL     OW30572   3.252  11.015   3.283  0.1846 -0.1933  0.2586
 4321SOL    HW130573   3.305  10.980   3.354 -0.3476 -1.5448  0.0076
 4321SOL    HW230574   3.301  11.091   3.251 -0.1831  1.2952  2.9129
 4322SOL     OW30575  10.815   8.002   2.789  0.0369 -0.2990 -0.7217
 4322SOL    HW130576  10.720   8.011   2.785  0.0359 -0.4630 -1.2011
 4322SOL    HW230577  10.842   8.065   2.855 -0.4151 -0.3215 -0.5099
 4323SOL     OW30578  12.254   8.203   3.323  0.1735 -0.6361 -0.6394
 4323SOL    HW130579  12.162   8.183   3.339  0.0178  1.3801  1.6346
 4323SOL    HW230580  12.300   8.163   3.397  1.0474 -1.0138 -1.3779
 4324SOL     OW30581  13.082   5.109   6.410 -0.8909 -0.2221  0.0102
 4324SOL    HW130582  13.096   5.035   6.470 -1.3265 -0.4332 -0.1410
 4324SOL    HW230583  13.148   5.097   6.342 -0.6270 -0.1842  0.2572
 4325SOL     OW30584   0.884   2.485  13.501  0.3462 -0.3745 -0.3406
 4325SOL    HW130585   0.875   2.464  13.408  1.4730  0.0939 -0.5700
 4325SOL    HW230586   0.858   2.405  13.546  0.6129 -0.8938 -1.0892
 4326SOL     OW30587   7.001   9.213  12.997 -0.5925 -0.2309 -0.0911
 4326SOL    HW130588   6.926   9.156  12.980 -0.6191 -0.1081 -0.3860
 4326SOL    HW230589   7.064   9.191  12.928 -1.9657  2.5361 -2.4100
 4327SOL     OW30590   2.629   7.152   4.626 -0.0527 -0.1846 -0.4627
 4327SOL    HW130591   2.675   7.225   4.668  0.3286 -0.9047  0.4042
 4327SOL    HW230592   2.572   7.193   4.561  1.1362  0.8000 -0.9179
 4328SOL     OW30593   1.067   7.550  13.956  0.4331  0.1295  0.0097
 4328SOL    HW130594   1.160   7.562  13.939  0.8755 -2.2234  0.4356
 4328SOL    HW230595   1.042   7.626  14.009  1.8309  1.3313 -0.9859
 4329SOL     OW30596   3.540   7.911  12.749  0.2193 -0.0499 -0.0438
 4329SOL    HW130597   3.618   7.949  12.788  0.4305  0.1720 -0.6811
 4329SOL    HW230598   3.495   7.868  12.823 -0.4344  2.0560  0.8746
 4330SOL     OW30599   8.103  11.557   1.755 -0.2518  0.3915 -0.6322
 4330SOL    HW130600   8.063  11.530   1.672 -0.6187 -1.8168  0.1959
 4330SOL    HW230601   8.096  11.480   1.811  1.3965  1.3213  0.9545
 4331SOL     OW30602   7.401   5.948   6.945  0.2437 -0.3103 -0.4353
 4331SOL    HW130603   7.426   5.869   6.897  1.0047 -0.1640 -0.2804
 4331SOL    HW230604   7.355   5.916   7.022  0.3994 -0.5967 -0.4596
 4332SOL     OW30605   3.002   5.866   8.374 -0.0104  0.0704  0.3959
 4332SOL    HW130606   3.088   5.827   8.392 -1.0340 -1.7767  1.5394
 4332SOL    HW230607   3.015   5.960   8.393  1.5794 -0.2722  1.2219
 4333SOL     OW30608  10.337   9.044   4.365 -0.6395 -0.2373 -0.2291
 4333SOL    HW130609  10.407   9.068   4.305 -0.3471  0.0477  0.2188
 4333SOL    HW230610  10.259   9.087   4.329 -0.6997 -0.9877 -1.0224
 4334SOL     OW30611   4.727   3.335   7.025 -0.4986  0.3732  0.1130
 4334SOL    HW130612   4.643   3.314   7.066 -0.3053 -0.4992  0.0793
 4334SOL    HW230613   4.756   3.415   7.069 -0.6462 -0.1388  1.1695
 4335SOL     OW30614   0.284  12.164   5.827  0.0744 -0.0465 -0.2489
 4335SOL    HW130615   0.368  12.120   5.840  0.2770  0.3711 -0.1116
 4335SOL    HW230616   0.259  12.194   5.915 -0.4247 -0.5290 -0.2176
 4336SOL     OW30617   7.721   5.189   0.589 -0.0342  0.2755 -0.7268
 4336SOL    HW130618   7.740   5.118   0.650 -0.6636 -1.2765 -2.2576
 4336SOL    HW230619   7.662   5.247   0.638  0.4923 -0.2480  0.5593
 4337SOL     OW30620   9.440  11.083   8.045 -0.2291 -0.3563  0.3800
 4337SOL    HW130621   9.361  11.133   8.064 -0.6188 -0.9144  0.2626
 4337SOL    HW230622   9.467  11.111   7.958  0.5811  0.9499  1.0296
 4338SOL     OW30623   6.258   5.351   9.220 -0.1779 -1.2476 -0.4327
 4338SOL    HW130624   6.241   5.320   9.131 -0.0907 -0.6807 -0.6519
 4338SOL    HW230625   6.321   5.288   9.255  1.3024 -0.4350 -1.4613
 4339SOL     OW30626   0.444   0.859   4.076 -0.0611  0.1895  0.5716
 4339SOL    HW130627   0.403   0.945   4.083 -0.2295  0.3107 -1.3433
 4339SOL    HW230628   0.387   0.801   4.127 -0.9350  0.9149  0.4479
 4340SOL     OW30629   0.324   2.667   0.754 -0.2237  0.6900 -0.0057
 4340SOL    HW130630   0.362   2.582   0.776 -2.9963 -0.7797 -0.3554
 4340SOL    HW230631   0.278   2.693   0.834 -1.9666  0.2595 -0.8128
 4341SOL     OW30632   7.027   8.786  13.538 -0.4152  0.5629  0.0316
 4341SOL    HW130633   6.963   8.806  13.607 -1.0689  1.1220 -0.7147
 4341SOL    HW230634   6.975   8.750  13.466  0.2249  0.2162 -0.2683
 4342SOL     OW30635   2.522   6.785   2.710 -0.9329  0.5263 -0.4040
 4342SOL    HW130636   2.464   6.815   2.780 -1.9248 -2.7253  0.3059
 4342SOL    HW230637   2.487   6.825   2.631 -1.9371  1.4601  0.4794
 4343SOL     OW30638   5.779  11.095   2.618 -0.4995 -0.7126  0.4665
 4343SOL    HW130639   5.709  11.076   2.681 -1.2032  0.1911 -0.0128
 4343SOL    HW230640   5.853  11.123   2.672 -0.7036 -1.0811  0.9477
 4344SOL     OW30641   0.471  11.471   5.511 -0.0492  0.6250 -0.0218
 4344SOL    HW130642   0.385  11.489   5.548  0.6662  1.5913  1.2301
 4344SOL    HW230643   0.498  11.553   5.470  0.3274  0.3642 -0.3117
 4345SOL     OW30644   8.050   6.827   9.576  0.6189 -0.3145 -0.7026
 4345SOL    HW130645   8.142   6.852   9.566  0.1347  1.4909 -1.0694
 4345SOL    HW230646   8.050   6.763   9.647  1.9023  1.6817  1.2556
 4346SOL     OW30647  12.117  11.086  10.813  0.3550 -0.0958 -0.1250
 4346SOL    HW130648  12.211  11.095  10.796  0.4012  1.0986  0.6989
 4346SOL    HW230649  12.094  11.003  10.771  1.5136  0.2028 -1.4272
 4347SOL     OW30650   0.987  11.209  12.989 -0.1313  0.2440 -0.2094
 4347SOL    HW130651   1.068  11.255  12.965  1.7995 -1.4810  2.4790
 4347SOL    HW230652   0.945  11.266  13.054 -0.1426  0.2930 -0.2598
 4348SOL     OW30653  13.090   0.499   2.166 -0.5935  0.0350  0.2532
 4348SOL    HW130654  13.149   0.500   2.090  1.9329  0.7078  2.0781
 4348SOL    HW230655  13.017   0.554   2.140  0.8940  1.4571 -1.2136
 4349SOL     OW30656   0.983   7.959  10.330 -0.3362 -0.3395 -0.0368
 4349SOL    HW130657   0.953   7.954  10.239  0.9495 -0.6909 -0.4662
 4349SOL    HW230658   0.987   7.868  10.359  0.7944 -0.3431 -0.1687
 4350SOL     OW30659   5.546   4.552  10.322  0.4573 -0.2003  0.7222
 4350SOL    HW130660   5.633   4.575  10.288 -1.0711  0.8297 -2.8766
 4350SOL    HW230661   5.527   4.467  10.282 -1.0609  0.6430 -0.4426
 4351SOL     OW30662   2.738   1.177   3.476 -0.3848 -0.5279 -0.0523
 4351SOL    HW130663   2.644   1.165   3.489 -0.3749  0.2310  0.8420
 4351SOL    HW230664   2.745   1.258   3.425 -0.2305 -0.9124 -0.6522
 4352SOL     OW30665  10.794   2.939   2.141  0.2830  0.0615  0.5543
 4352SOL    HW130666  10.717   2.921   2.086  0.9817  0.3033 -0.5478
 4352SOL    HW230667  10.829   2.852   2.161 -1.4282 -0.1812  2.8471
 4353SOL     OW30668   4.562   3.149  12.807  0.5209  0.3219 -1.1315
 4353SOL    HW130669   4.597   3.197  12.882 -1.1172  1.8774 -1.3075
 4353SOL    HW230670   4.600   3.191  12.730 -0.1942  0.7744 -1.2521
 4354SOL     OW30671   1.405  10.127   1.495  0.4247  0.2299 -0.5368
 4354SOL    HW130672   1.451  10.186   1.554 -0.5476  0.0360  0.4402
 4354SOL    HW230673   1.469  10.106   1.427  2.6302 -1.8125  1.9372
 4355SOL     OW30674   0.636  11.653  11.026  0.1397 -0.6265 -0.7126
 4355SOL    HW130675   0.592  11.738  11.027  1.2473 -0.0177  0.7660
 4355SOL    HW230676   0.650  11.633  10.934  0.0857  0.9360 -1.0813
 4356SOL     OW30677  14.009   5.415   8.606  0.3027  0.3854 -0.2174
 4356SOL    HW130678  13.960   5.355   8.549 -0.4831  1.1960 -0.4118
 4356SOL    HW230679  14.097   5.377   8.611  0.3019  0.1367 -1.7205
 4357SOL     OW30680   5.048   2.902   8.087  0.0840 -0.0672 -0.0972
 4357SOL    HW130681   5.097   2.832   8.045  0.4687 -0.2204  0.5784
 4357SOL    HW230682   4.998   2.859   8.156  0.4449  0.3330  0.4269
 4358SOL     OW30683   9.165   6.312   3.003  0.4077 -0.5351 -0.0026
 4358SOL    HW130684   9.184   6.403   2.979 -0.1174  0.0253  1.5343
 4358SOL    HW230685   9.213   6.299   3.085 -0.9969 -1.0252  0.7781
 4359SOL     OW30686   7.623   8.855   7.913 -0.1658  0.0498 -0.1092
 4359SOL    HW130687   7.660   8.780   7.960  0.6359  1.1541  1.1214
 4359SOL    HW230688   7.528   8.838   7.911 -0.1381 -0.3966  1.3000
 4360SOL     OW30689   6.500   1.626   5.103 -0.0372 -0.1492  0.5749
 4360SOL    HW130690   6.472   1.549   5.054 -0.1533  0.4732 -0.3752
 4360SOL    HW230691   6.440   1.631   5.177 -1.4964  0.2867 -0.5873
 4361SOL     OW30692  11.326   3.505  10.905  0.6525  0.5201  0.3819
 4361SOL    HW130693  11.302   3.439  10.971 -2.7868 -1.0883 -2.1148
 4361SOL    HW230694  11.266   3.578  10.921 -0.8600 -0.2595 -1.3236
 4362SOL     OW30695  11.318   7.130   1.128  0.5517  0.6745 -0.0102
 4362SOL    HW130696  11.396   7.142   1.182  1.9724  0.5394 -1.9279
 4362SOL    HW230697  11.289   7.219   1.108 -1.3063  0.7919  2.6209
 4363SOL     OW30698   4.486  13.601  13.283 -0.3635 -0.6564  0.8628
 4363SOL    HW130699   4.402  13.617  13.239  0.0615  0.4621  0.4157
 4363SOL    HW230700   4.464  13.542  13.355 -1.4061 -0.9709  0.3188
 4364SOL     OW30701   0.640   3.228  13.010  0.1543  0.0907  0.4680
 4364SOL    HW130702   0.679   3.281  12.941  0.0425 -2.4316 -1.6745
 4364SOL    HW230703   0.551   3.264  13.020 -0.1462 -0.0214 -1.3983
 4365SOL     OW30704  12.312   8.985   2.084  0.1484  0.0570  0.5393
 4365SOL    HW130705  12.320   8.980   1.989  1.5299  1.1483  0.5755
 4365SOL    HW230706  12.305   8.893   2.112  1.1076 -0.3566 -0.5066
 4366SOL     OW30707   2.894  11.054   1.490 -0.2506 -0.3597 -0.1758
 4366SOL    HW130708   2.961  11.045   1.423  1.1744  0.7812  1.0077
 4366SOL    HW230709   2.812  11.032   1.446  0.9388 -2.4705 -1.5052
 4367SOL     OW30710   4.171   9.529  11.795  0.3163 -0.5199  0.6937
 4367SOL    HW130711   4.246   9.484  11.756  1.5450  1.3631  0.7488
 4367SOL    HW230712   4.154   9.482  11.877  1.3117 -1.0994  0.5796
 4368SOL     OW30713   2.727  12.840   1.010 -0.1366  0.5816 -0.0166
 4368SOL    HW130714   2.736  12.866   0.919 -1.7917 -0.6596 -0.5981
 4368SOL    HW230715   2.641  12.873   1.037  0.8487  2.0508  1.5434
 4369SOL     OW30716   1.338   2.589   7.372 -0.2283  0.1319 -0.1988
 4369SOL    HW130717   1.257   2.573   7.323  1.0163 -1.5599 -1.8643
 4369SOL    HW230718   1.394   2.637   7.311  0.2852  0.6788  0.6861
 4370SOL     OW30719   8.638   0.313   3.480 -0.0448  0.0582  0.2318
 4370SOL    HW130720   8.661   0.403   3.457 -1.5763  0.3178 -0.4536
 4370SOL    HW230721   8.721   0.272   3.503  0.8837  1.2398 -0.8446
 4371SOL     OW30722   6.501  13.892   7.551  0.1245 -0.0382  0.4488
 4371SOL    HW130723   6.584  13.905   7.597  0.3758 -2.7684  0.9731
 4371SOL    HW230724   6.436  13.887   7.620  0.0857 -1.3402  0.3510
 4372SOL     OW30725   6.099   0.647   6.673 -0.1548  0.0925 -0.1138
 4372SOL    HW130726   6.163   0.688   6.732  0.0125 -1.3507  0.7380
 4372SOL    HW230727   6.044   0.720   6.643  0.7636  1.0825  0.5594
 4373SOL     OW30728   8.117  12.134   8.064 -0.3418 -0.7150 -0.0652
 4373SOL    HW130729   8.051  12.199   8.089 -0.6646 -0.2087 -2.0659
 4373SOL    HW230730   8.147  12.097   8.147 -0.4659  1.6666  1.1265
 4374SOL     OW30731   2.499   9.419   6.526 -0.3239  0.5732  0.3472
 4374SOL    HW130732   2.429   9.354   6.517  0.1557 -0.0198  0.7449
 4374SOL    HW230733   2.457   9.503   6.507 -1.4758  0.3939  1.8840
 4375SOL     OW30734   5.995  11.140   8.257  0.0352  0.2570 -0.3451
 4375SOL    HW130735   6.048  11.207   8.214  1.0165 -0.5972 -0.5045
 4375SOL    HW230736   6.033  11.131   8.344 -0.8650  0.7630  0.1109
 4376SOL     OW30737   9.227   6.078   6.402  0.1924 -0.0652 -0.1641
 4376SOL    HW130738   9.286   6.004   6.412  0.9861  0.6278  0.4978
 4376SOL    HW230739   9.211   6.108   6.491  1.7948  1.9970 -0.4958
 4377SOL     OW30740   6.986   5.634   4.210 -0.1182  0.3232  0.5404
 4377SOL    HW130741   6.891   5.634   4.201 -0.0709  1.0270 -0.1880
 4377SOL    HW230742   7.004   5.690   4.286 -0.2785  0.5731  0.3963
 4378SOL     OW30743   0.851  10.563  11.737  0.1380  0.7898 -0.1827
 4378SOL    HW130744   0.944  10.558  11.713  0.4600  1.4662  0.8470
 4378SOL    HW230745   0.843  10.645  11.786 -0.9106  0.5025  0.1581
 4379SOL     OW30746   4.765  10.006  13.595  0.3351 -0.0976 -0.0864
 4379SOL    HW130747   4.791   9.955  13.672 -0.6372 -1.4804 -0.6210
 4379SOL    HW230748   4.777   9.946  13.522  0.1174  0.7929 -0.8704
 4380SOL     OW30749  12.177   4.924  11.868  0.0935  0.6442  0.7209
 4380SOL    HW130750  12.127   4.848  11.896  2.1843 -1.2281 -0.3548
 4380SOL    HW230751  12.237   4.942  11.941  2.0046 -1.0223 -0.3460
 4381SOL     OW30752  13.615  10.253   1.788  0.2104 -0.0276 -0.2760
 4381SOL    HW130753  13.696  10.269   1.740  0.9895 -2.7732 -0.0237
 4381SOL    HW230754  13.556  10.214   1.723  0.3672 -1.3271  0.3247
 4382SOL     OW30755   7.323   2.916   5.567  0.1545  0.2931 -0.2492
 4382SOL    HW130756   7.324   2.839   5.510 -1.1379  0.0971 -0.0509
 4382SOL    HW230757   7.253   2.971   5.532  0.1415  0.7245  0.4327
 4383SOL     OW30758  10.654   9.487  14.031 -0.2370  0.2583 -0.5896
 4383SOL    HW130759  10.604   9.409  14.006 -0.5273 -0.2656  1.4554
 4383SOL    HW230760  10.592   9.559  14.020 -0.7638 -0.1152 -0.1552
 4384SOL     OW30761   0.669  12.792   0.397 -0.1736 -0.2479  0.0097
 4384SOL    HW130762   0.605  12.723   0.416  1.2502 -2.1982 -1.7258
 4384SOL    HW230763   0.747  12.766   0.446  0.2636  0.3231 -0.3653
 4385SOL     OW30764   2.360   6.623   4.594 -0.0215 -0.1385 -0.2688
 4385SOL    HW130765   2.397   6.626   4.682 -0.6794  1.3348  0.0027
 4385SOL    HW230766   2.406   6.692   4.546  0.6530 -1.2281 -1.2314
 4386SOL     OW30767   6.837   9.075   6.330 -0.3152  0.1358  0.2637
 4386SOL    HW130768   6.794   9.013   6.272 -1.8819  0.4570  1.0499
 4386SOL    HW230769   6.806   9.053   6.418  2.0451 -0.3756  1.0462
 4387SOL     OW30770   8.555   5.056   3.387  0.1044 -0.3008 -0.3217
 4387SOL    HW130771   8.586   4.974   3.350 -0.5207 -0.3977 -0.6406
 4387SOL    HW230772   8.621   5.080   3.452  0.0303 -1.3263  0.1496
 4388SOL     OW30773   1.836   3.336   3.754 -0.1899 -0.5180 -0.2073
 4388SOL    HW130774   1.864   3.418   3.795  0.3263 -1.1674  0.7714
 4388SOL    HW230775   1.804   3.282   3.827 -1.3822 -0.8659 -0.9444
 4389SOL     OW30776   8.457  10.884   1.250  0.0946  0.2949 -0.0400
 4389SOL    HW130777   8.486  10.801   1.289  1.3377  1.2100  1.0680
 4389SOL    HW230778   8.365  10.891   1.276  0.2254 -0.2957  0.6177
 4390SOL     OW30779   6.064   5.053   1.668 -0.0905  0.0331 -0.3824
 4390SOL    HW130780   6.061   5.146   1.647 -0.6405  0.9237  3.0300
 4390SOL    HW230781   6.145   5.042   1.719  0.2619 -1.4997 -1.2069
 4391SOL     OW30782   8.912   3.799   1.726  0.8810  0.0025  0.5668
 4391SOL    HW130783   8.824   3.765   1.707  0.5210  1.0292  0.3397
 4391SOL    HW230784   8.971   3.726   1.706  0.0389 -0.8928  1.2925
 4392SOL     OW30785  13.344   0.402   8.249  0.5418 -0.6597 -0.3216
 4392SOL    HW130786  13.253   0.412   8.275  0.4671 -1.4632 -0.2433
 4392SOL    HW230787  13.393   0.452   8.314  0.1586 -0.2155 -0.3725
 4393SOL     OW30788   0.810  11.631  13.314 -0.7580  0.9145 -0.2993
 4393SOL    HW130789   0.749  11.705  13.307 -1.2583  0.6254  0.8158
 4393SOL    HW230790   0.856  11.645  13.396 -0.5825  0.1898 -0.2633
 4394SOL     OW30791   7.044  13.046  10.120 -0.3557 -0.2004  0.1541
 4394SOL    HW130792   7.008  13.099  10.192  1.7133 -0.7548  1.7016
 4394SOL    HW230793   7.100  12.982  10.164  0.0737 -1.3272 -1.9207
 4395SOL     OW30794  13.829   7.678  12.995 -0.2654 -0.9610  0.5345
 4395SOL    HW130795  13.738   7.665  12.968 -0.1808  0.8321 -0.8237
 4395SOL    HW230796  13.880   7.670  12.915  0.3060  1.6965  0.5145
 4396SOL     OW30797   2.542   8.343   7.884  0.2119  0.1658 -0.1231
 4396SOL    HW130798   2.475   8.339   7.816  0.3159 -1.0521 -0.1846
 4396SOL    HW230799   2.597   8.266   7.868  0.4614  0.0636  1.1101
 4397SOL     OW30800   3.172  13.049   4.594 -0.5103  0.2904  0.1124
 4397SOL    HW130801   3.219  13.061   4.511 -2.6273  0.5362 -1.1295
 4397SOL    HW230802   3.156  13.138   4.625 -1.2734  0.2572 -0.1659
 4398SOL     OW30803   2.828   9.473   4.723  0.1322 -0.0188  0.0724
 4398SOL    HW130804   2.827   9.539   4.653  0.5946  1.3652  1.3329
 4398SOL    HW230805   2.842   9.523   4.803 -1.4974 -1.4361  1.3155
 4399SOL     OW30806  12.992   8.089  12.845 -0.0408  0.2266  0.1747
 4399SOL    HW130807  13.070   8.112  12.794 -0.8048  0.6716 -0.8283
 4399SOL    HW230808  13.010   8.000  12.877  0.9676  0.4118  0.1367
 4400SOL     OW30809   7.027  13.901   8.959 -0.0422  0.4165 -0.2460
 4400SOL    HW130810   7.112  13.930   8.927 -0.4793  0.9698 -0.9390
 4400SOL    HW230811   7.008  13.958   9.033  0.1504  0.3474 -0.1437
 4401SOL     OW30812   2.201  12.479   0.131  0.3331 -1.1219 -0.5703
 4401SOL    HW130813   2.219  12.543   0.200 -0.1940 -3.2141  1.6364
 4401SOL    HW230814   2.106  12.484   0.118  0.3518 -1.1412 -0.7178
 4402SOL     OW30815   0.921   6.808  10.406  0.3175 -0.4747 -0.5429
 4402SOL    HW130816   0.920   6.713  10.416 -0.3588 -0.4894 -0.6784
 4402SOL    HW230817   0.861   6.839  10.474  0.2541 -0.1665 -0.7402
 4403SOL     OW30818   8.937   1.958   3.172  0.3666 -0.3069 -0.7218
 4403SOL    HW130819   9.012   2.007   3.204  0.3474 -0.8784  0.2262
 4403SOL    HW230820   8.967   1.867   3.168  0.0795 -0.3764 -1.4489
 4404SOL     OW30821  13.959   6.089   0.725 -0.1480  0.2667 -0.3927
 4404SOL    HW130822  14.034   6.103   0.666  0.5328  0.4260  0.4914
 4404SOL    HW230823  13.992   6.029   0.792 -0.9454  0.0132 -0.2167
 4405SOL     OW30824   8.062   7.688   2.377 -0.0535 -0.4274  0.1581
 4405SOL    HW130825   8.033   7.597   2.375  1.2501 -0.8442 -0.7866
 4405SOL    HW230826   7.988   7.736   2.414 -0.0357 -2.1170  2.5688
 4406SOL     OW30827  10.364  12.444   3.455 -0.2340  0.4243 -0.0915
 4406SOL    HW130828  10.423  12.480   3.521  0.0578  2.1764 -1.2520
 4406SOL    HW230829  10.415  12.442   3.375 -1.0098 -0.3780 -0.5823
 4407SOL     OW30830   0.373  10.364   4.264  0.4664 -0.3515 -0.4817
 4407SOL    HW130831   0.425  10.407   4.196  0.9357 -0.0333  0.0644
 4407SOL    HW230832   0.351  10.279   4.228 -0.3152  0.2634 -1.5099
 4408SOL     OW30833   6.128   2.228   2.776 -0.4159  0.2622 -0.5427
 4408SOL    HW130834   6.143   2.294   2.844 -2.5399 -0.0709  0.3084
 4408SOL    HW230835   6.107   2.148   2.824 -0.5868 -0.3415 -1.5930
 4409SOL     OW30836   0.652   2.544   6.887 -0.2725 -0.0506 -0.3116
 4409SOL    HW130837   0.562   2.552   6.916  0.1122 -1.4189  1.4274
 4409SOL    HW230838   0.657   2.459   6.843  0.2516 -0.1746 -0.0275
 4410SOL     OW30839   6.369   7.068   6.661  0.0611  0.2506  0.1947
 4410SOL    HW130840   6.381   7.155   6.622 -0.2862 -0.8801 -2.6707
 4410SOL    HW230841   6.457   7.030   6.662  0.0293  0.1788  0.2821
 4411SOL     OW30842  13.734  13.565  10.860  0.3290  0.0017 -0.0822
 4411SOL    HW130843  13.774  13.581  10.774  0.1462 -0.0629 -0.1795
 4411SOL    HW230844  13.716  13.471  10.860  0.5968 -0.0492  0.1431
 4412SOL     OW30845   4.171   7.751  13.026 -0.3170  0.4353 -0.2259
 4412SOL    HW130846   4.246   7.750  13.086  0.2597  0.4541 -0.9339
 4412SOL    HW230847   4.099   7.785  13.079 -0.3899 -1.6489  1.1022
 4413SOL     OW30848   6.176   1.392   4.242 -0.1154  0.2903  0.0950
 4413SOL    HW130849   6.210   1.481   4.232 -0.5966  0.6743  1.5467
 4413SOL    HW230850   6.209   1.364   4.328  1.5497 -1.6619 -1.0896
 4414SOL     OW30851   7.219   3.041   6.455  0.6286 -0.1974 -0.6333
 4414SOL    HW130852   7.252   3.123   6.491  1.0969 -0.6348 -0.0515
 4414SOL    HW230853   7.275   2.973   6.493 -1.2882 -1.0370  0.8900
 4415SOL     OW30854   0.423  13.808   4.029 -0.2062  0.6839 -0.2269
 4415SOL    HW130855   0.493  13.861   4.066  0.2635 -0.7924  1.1113
 4415SOL    HW230856   0.372  13.778   4.105 -0.2150 -1.0673 -0.8691
 4416SOL     OW30857   0.482   8.492  10.381 -0.0994 -0.0889 -0.7580
 4416SOL    HW130858   0.493   8.420  10.443  0.2395  0.1671 -0.5121
 4416SOL    HW230859   0.387   8.507  10.378 -0.4764 -2.3161 -2.8738
 4417SOL     OW30860   1.333  12.919   0.888  0.5034 -0.3374  0.2717
 4417SOL    HW130861   1.246  12.903   0.925  0.0537  1.5321  0.1503
 4417SOL    HW230862   1.393  12.880   0.951 -0.3307  0.8173  1.8584
 4418SOL     OW30863   6.451  13.101  11.413  0.7723  0.2902 -0.7365
 4418SOL    HW130864   6.484  13.184  11.448 -0.9181  0.6534  0.1239
 4418SOL    HW230865   6.469  13.037  11.482  1.2223  0.1376 -0.9955
 4419SOL     OW30866  10.853  13.058   8.936 -0.5889 -0.1530 -0.2091
 4419SOL    HW130867  10.759  13.061   8.953 -0.6145  0.4968 -0.4081
 4419SOL    HW230868  10.877  12.966   8.944 -1.5180 -0.5449 -1.5986
 4420SOL     OW30869  10.430   3.837   2.789 -0.2982  0.3093  0.1444
 4420SOL    HW130870  10.432   3.746   2.819  3.1250  0.5092  0.9857
 4420SOL    HW230871  10.436   3.889   2.869 -1.3998  1.2848 -0.3712
 4421SOL     OW30872  11.669   2.580   2.645  0.3372  1.0623  0.4132
 4421SOL    HW130873  11.585   2.548   2.613 -0.0778  1.5380  0.9972
 4421SOL    HW230874  11.729   2.567   2.572 -0.0699  0.0300  0.2447
 4422SOL     OW30875   3.675   3.709   2.295 -0.2733  0.7640 -0.5667
 4422SOL    HW130876   3.607   3.680   2.355 -0.0544  3.1878  1.0013
 4422SOL    HW230877   3.629   3.726   2.213 -0.9174 -0.7966 -0.5529
 4423SOL     OW30878   7.880  12.652   4.493  0.2179  0.0842 -0.5003
 4423SOL    HW130879   7.859  12.701   4.414 -0.6537 -1.0826 -1.0195
 4423SOL    HW230880   7.938  12.582   4.463 -0.1997 -0.4250 -0.1292
 4424SOL     OW30881  10.533   6.809   6.624 -0.1552  0.2294 -0.5611
 4424SOL    HW130882  10.551   6.902   6.632 -0.8014  0.3399 -0.3146
 4424SOL    HW230883  10.464   6.792   6.689  0.0755 -0.4512 -0.4834
 4425SOL     OW30884   8.940   7.214   1.683 -0.4885  0.5975 -0.4062
 4425SOL    HW130885   8.986   7.233   1.602 -1.6867 -1.6176 -1.7204
 4425SOL    HW230886   9.009   7.196   1.747  0.4676  0.6891 -1.3936
 4426SOL     OW30887  10.853   1.475   5.051 -0.5982 -0.1770  0.1905
 4426SOL    HW130888  10.817   1.445   5.134 -2.9303 -2.0746 -1.3424
 4426SOL    HW230889  10.935   1.427   5.041 -0.0125  0.4717  1.5583
 4427SOL     OW30890   3.912   7.102   0.018  0.5479 -0.5270 -0.5095
 4427SOL    HW130891   3.843   7.132  -0.041 -0.2058 -1.0572  0.0822
 4427SOL    HW230892   3.910   7.165   0.091 -0.0895 -1.1867  0.0556
 4428SOL     OW30893  11.824   9.624  12.428  0.8178  0.1135 -0.5914
 4428SOL    HW130894  11.793   9.613  12.517  1.1245 -2.2311 -0.6996
 4428SOL    HW230895  11.896   9.687  12.435 -0.5195  1.5720  0.4481
 4429SOL     OW30896   8.027   2.854   0.077  0.1363  0.8744 -0.1250
 4429SOL    HW130897   8.004   2.928   0.022 -1.2370  1.3391  1.0076
 4429SOL    HW230898   8.089   2.890   0.141  1.3943  0.4349 -1.0494
 4430SOL     OW30899   4.340   8.806   0.229  0.6440  0.2919  0.2211
 4430SOL    HW130900   4.326   8.840   0.141  1.9043  1.9686  0.6182
 4430SOL    HW230901   4.343   8.711   0.218 -1.2211  0.3428 -1.2115
 4431SOL     OW30902   9.238   1.513   3.503  0.0008  0.2887 -0.2804
 4431SOL    HW130903   9.155   1.561   3.495  1.0746  2.2402 -0.3360
 4431SOL    HW230904   9.273   1.511   3.415 -1.1808 -2.9888 -0.8194
 4432SOL     OW30905   7.947   2.128   3.046  0.4078  0.4830 -0.3277
 4432SOL    HW130906   8.024   2.082   3.079  0.4618 -0.7397 -2.0558
 4432SOL    HW230907   7.877   2.103   3.106  0.7836 -0.5898 -0.3113
 4433SOL     OW30908   1.854  10.209   2.254  0.6129 -0.0517 -0.0995
 4433SOL    HW130909   1.800  10.282   2.286  1.3519  0.4581  0.0075
 4433SOL    HW230910   1.915  10.250   2.193  0.7229 -0.6641 -0.4027
 4434SOL     OW30911   4.283  11.226  12.686 -0.2762  0.2104  0.2790
 4434SOL    HW130912   4.316  11.298  12.631  0.3113 -1.4406 -1.6376
 4434SOL    HW230913   4.331  11.236  12.769  2.3042  0.1608 -1.0838
 4435SOL     OW30914  13.989   2.362  10.362 -0.1230 -0.2208  0.5524
 4435SOL    HW130915  14.012   2.405  10.444 -0.2343 -1.5881  1.3285
 4435SOL    HW230916  14.070   2.319  10.334  0.0763  0.7254 -0.3851
 4436SOL     OW30917   3.159   8.398   2.078  0.5008 -0.1019 -0.4694
 4436SOL    HW130918   3.064   8.404   2.074  0.4500 -0.7898 -0.4102
 4436SOL    HW230919   3.185   8.474   2.129  0.1245  1.0259 -1.9032
 4437SOL     OW30920   1.004   2.266   4.478 -0.0985  0.0413 -0.0915
 4437SOL    HW130921   0.989   2.330   4.547  0.3304  0.7301 -0.6254
 4437SOL    HW230922   1.083   2.296   4.433  0.6647 -1.3747  0.2288
 4438SOL     OW30923  12.601   0.384  12.884  0.0129 -0.3275 -0.1303
 4438SOL    HW130924  12.625   0.380  12.976 -0.5824  1.6557  0.1676
 4438SOL    HW230925  12.679   0.417  12.840 -0.7358  2.2013  0.2525
 4439SOL     OW30926   2.237   6.544  13.738 -0.1789  0.7494 -0.1334
 4439SOL    HW130927   2.187   6.479  13.787  3.2068 -2.7173 -0.6949
 4439SOL    HW230928   2.292   6.588  13.803  0.6103 -0.1526 -0.1614
 4440SOL     OW30929   2.109  12.542   6.886 -0.1674 -0.1562 -0.1708
 4440SOL    HW130930   2.088  12.547   6.979 -1.5793  1.5474 -0.5325
 4440SOL    HW230931   2.103  12.632   6.855  2.1972 -0.3877 -1.5437
 4441SOL     OW30932   8.093  10.956  11.975  0.3155  0.2592  0.5031
 4441SOL    HW130933   8.189  10.949  11.976  0.4013  1.2962  0.5205
 4441SOL    HW230934   8.072  11.011  12.050 -0.2608  0.3925  0.2486
 4442SOL     OW30935  10.728   8.024  13.469  0.2478 -0.2184 -0.4810
 4442SOL    HW130936  10.809   7.979  13.443  0.5329  0.1267 -0.2140
 4442SOL    HW230937  10.751   8.068  13.551  0.0866  0.6986 -0.9161
 4443SOL     OW30938   9.575   9.743   1.053 -0.1971  0.3839  0.2325
 4443SOL    HW130939   9.494   9.693   1.062  0.3468 -0.3251  1.5242
 4443SOL    HW230940   9.615   9.740   1.140  2.1218 -0.8764 -0.7891
 4444SOL     OW30941   8.897   2.128   4.920  0.0902  0.1864 -0.4373
 4444SOL    HW130942   8.870   2.111   4.830  0.0975 -0.3754 -0.3390
 4444SOL    HW230943   8.869   2.050   4.968  0.8516  0.1065 -0.1174
 4445SOL     OW30944  10.875  11.815   6.401 -0.2306 -0.3953  0.0459
 4445SOL    HW130945  10.967  11.814   6.429 -0.4338 -1.1024  0.7160
 4445SOL    HW230946  10.835  11.885   6.453  0.2167  0.8869 -1.2646
 4446SOL     OW30947   3.827   9.539  11.356 -0.6357 -0.2213 -0.8522
 4446SOL    HW130948   3.849   9.490  11.435  1.5314  0.2788 -1.0983
 4446SOL    HW230949   3.746   9.498  11.324 -2.1102  0.1600  2.0848
 4447SOL     OW30950   7.568  10.397   7.414  0.1675  0.2209 -0.5572
 4447SOL    HW130951   7.510  10.323   7.395 -0.2834  0.3891  0.1149
 4447SOL    HW230952   7.549  10.461   7.345 -1.4351  0.8232  0.3664
 4448SOL     OW30953   5.170  13.061   6.891  0.1927 -0.1783  0.1698
 4448SOL    HW130954   5.208  12.986   6.936  0.0909 -0.8363 -0.8168
 4448SOL    HW230955   5.080  13.067   6.924  1.1046  1.4994  2.6573
 4449SOL     OW30956  13.224   0.255  11.032 -0.0024 -0.4804  0.2372
 4449SOL    HW130957  13.225   0.230  10.939  2.0851  0.0122  0.0853
 4449SOL    HW230958  13.246   0.348  11.032  1.1182 -0.7279  1.2603
 4450SOL     OW30959   0.080   8.318   3.373  0.9795  0.1500 -0.3206
 4450SOL    HW130960   0.093   8.403   3.414 -0.2159  0.1002  0.2253
 4450SOL    HW230961   0.166   8.276   3.375  1.6282  1.4108 -0.7916
 4451SOL     OW30962   9.898   9.352  12.832 -0.1900 -0.2037 -0.0241
 4451SOL    HW130963   9.910   9.437  12.790  1.2631  0.5204  1.7360
 4451SOL    HW230964   9.848   9.370  12.912  1.9547 -0.5826  1.4940
 4452SOL     OW30965  12.015   0.232   7.136  0.0338  0.0119 -0.5060
 4452SOL    HW130966  11.939   0.188   7.098  0.7256 -2.1487  0.4727
 4452SOL    HW230967  12.072   0.251   7.061  0.3228 -2.0538 -0.8672
 4453SOL     OW30968  10.841   1.599  11.536  0.4112  0.5363 -0.0114
 4453SOL    HW130969  10.852   1.510  11.570  0.9243  0.7561  0.4011
 4453SOL    HW230970  10.749   1.619  11.553  0.3957  0.2401  0.2611
 4454SOL     OW30971   9.881   1.520  13.660 -0.4426  0.3104  0.3308
 4454SOL    HW130972   9.867   1.441  13.713 -1.5020  0.7003  0.6525
 4454SOL    HW230973   9.901   1.588  13.724 -0.6027  0.5421  0.1311
 4455SOL     OW30974   5.581  10.783   7.218  0.1039 -0.4644 -0.0078
 4455SOL    HW130975   5.503  10.728   7.219 -0.6266  0.4620 -1.6201
 4455SOL    HW230976   5.598  10.803   7.310  0.5966 -3.5570  0.6806
 4456SOL     OW30977  13.482   7.806   2.209 -0.1265  0.2151  0.7664
 4456SOL    HW130978  13.515   7.731   2.257 -0.7634 -0.7704 -0.2871
 4456SOL    HW230979  13.478   7.777   2.118 -1.2560  1.2097  0.4665
 4457SOL     OW30980   2.714  11.421   0.140  0.1701 -0.3138  0.2605
 4457SOL    HW130981   2.713  11.348   0.078 -1.2168  0.2574 -0.4280
 4457SOL    HW230982   2.806  11.448   0.144  0.3786 -0.7424 -1.1036
 4458SOL     OW30983   3.876   3.184   7.453  0.2491  0.2629  0.1390
 4458SOL    HW130984   3.802   3.124   7.462 -0.8057  1.5833  0.5639
 4458SOL    HW230985   3.840   3.270   7.475  1.6903  1.0773 -0.5496
 4459SOL     OW30986   7.633   7.991   2.152 -0.3829 -0.8282 -0.0540
 4459SOL    HW130987   7.619   8.085   2.143 -2.9412 -1.2817 -1.6936
 4459SOL    HW230988   7.683   7.967   2.074  1.7245 -0.6509  1.1740
 4460SOL     OW30989  12.028  13.804   8.313  0.1102 -0.0796 -0.3767
 4460SOL    HW130990  12.068  13.723   8.283  0.9054  0.5013 -0.9401
 4460SOL    HW230991  11.950  13.777   8.361  1.3531 -1.2667  1.0567
 4461SOL     OW30992  11.378   4.075  11.603 -0.2804 -0.2861  0.5450
 4461SOL    HW130993  11.400   4.015  11.532 -0.9114  0.2630 -0.1189
 4461SOL    HW230994  11.395   4.162  11.568  0.5609 -0.0600  1.4798
 4462SOL     OW30995   9.353  12.713  10.325  0.3901 -0.3851 -0.3114
 4462SOL    HW130996   9.312  12.678  10.246 -0.0087 -2.6375  0.8328
 4462SOL    HW230997   9.282  12.756  10.372  0.2439 -0.6193 -0.3190
 4463SOL     OW30998  12.854   7.202   9.133 -0.4360 -0.7073  0.1645
 4463SOL    HW130999  12.860   7.292   9.101  0.6564 -0.9523 -0.3931
 4463SOL    HW231000  12.867   7.148   9.054  0.3515 -1.3378  0.7075
 4464SOL     OW31001   0.864  10.276  12.956 -0.6210  0.3213  0.0139
 4464SOL    HW131002   0.860  10.197  12.902 -0.0134 -0.5376  1.1955
 4464SOL    HW231003   0.773  10.302  12.968 -1.1062 -2.0906  2.2877
 4465SOL     OW31004  12.858   4.017  12.511 -0.3612 -0.3700 -0.9399
 4465SOL    HW131005  12.936   4.020  12.456 -0.4897  0.2200 -1.0968
 4465SOL    HW231006  12.851   4.105  12.548 -0.3131 -0.7442 -0.0275
 4466SOL     OW31007  11.384   2.312   5.152  0.2338 -0.7264  0.3348
 4466SOL    HW131008  11.454   2.295   5.089  0.4481 -1.7933  0.8408
 4466SOL    HW231009  11.303   2.298   5.103  0.3286  1.1224 -0.4249
 4467SOL     OW31010   4.075   6.539   8.308  0.0109  0.1382  0.0605
 4467SOL    HW131011   4.116   6.624   8.294 -0.0905  0.2614  0.4860
 4467SOL    HW231012   4.107   6.511   8.394  1.6475 -1.1728 -0.9114
 4468SOL     OW31013   1.348   3.932  13.050  0.5822 -0.8033 -0.0585
 4468SOL    HW131014   1.288   3.898  13.116 -0.2535  0.6967  0.0113
 4468SOL    HW231015   1.381   3.854  13.005 -0.7216 -1.7258  0.5112
 4469SOL     OW31016   5.210  11.541   5.182  0.0211  0.5037 -0.4061
 4469SOL    HW131017   5.139  11.511   5.125  0.3346  0.2640 -0.6661
 4469SOL    HW231018   5.166  11.596   5.247 -0.4408  0.1381 -0.4065
 4470SOL     OW31019  10.607   7.394   0.320  0.0853  0.5848  0.5486
 4470SOL    HW131020  10.532   7.426   0.370  0.7766  2.6091  0.3549
 4470SOL    HW231021  10.631   7.466   0.263  2.4927  0.1861  0.9487
 4471SOL     OW31022   5.458  10.334   9.193 -0.2217 -0.1459  0.1556
 4471SOL    HW131023   5.539  10.383   9.204 -2.0326  3.1120  0.0638
 4471SOL    HW231024   5.395  10.376   9.251 -2.2871 -1.4937 -0.9561
 4472SOL     OW31025   2.567   4.422   5.088  0.4841  0.2978 -0.1105
 4472SOL    HW131026   2.530   4.506   5.114 -3.0248 -0.4160 -2.1789
 4472SOL    HW231027   2.558   4.421   4.993 -0.0578 -2.5735 -0.0991
 4473SOL     OW31028   7.838   9.114   5.623 -0.0503 -0.0244  0.1520
 4473SOL    HW131029   7.825   9.064   5.704  0.3269 -0.5193 -0.0842
 4473SOL    HW231030   7.833   9.049   5.553 -0.0419  0.3490 -0.2009
 4474SOL     OW31031   8.921  13.759  11.253  0.4123 -0.2055  0.1453
 4474SOL    HW131032   8.842  13.738  11.202 -0.1423 -0.8043  1.2163
 4474SOL    HW231033   8.965  13.827  11.202 -0.7007  0.0015 -0.5783
 4475SOL     OW31034  13.716  11.556  13.849 -0.0694 -0.1481 -0.0165
 4475SOL    HW131035  13.705  11.494  13.920  0.0089  0.4642  0.5459
 4475SOL    HW231036  13.627  11.574  13.819 -0.1432 -0.0273  0.2684
 4476SOL     OW31037  12.798  11.957   5.727  0.2367  0.6161 -0.1497
 4476SOL    HW131038  12.764  11.978   5.640 -2.1482 -1.8459  0.0323
 4476SOL    HW231039  12.840  11.872   5.717  0.3133  0.4879  1.0273
 4477SOL     OW31040   2.317   7.416   2.712  0.0411  0.3543 -0.0368
 4477SOL    HW131041   2.376   7.392   2.784 -0.4974 -0.4802  0.1518
 4477SOL    HW231042   2.363   7.486   2.666  0.3649  0.9741  1.1620
 4478SOL     OW31043   1.746  13.439   9.638  0.3912  0.0924 -0.3462
 4478SOL    HW131044   1.654  13.428   9.613  0.2169 -1.5437  0.8405
 4478SOL    HW231045   1.795  13.406   9.562 -0.1068 -2.9092  0.4945
 4479SOL     OW31046  11.039   1.716   3.167  0.0658  0.0625  0.2535
 4479SOL    HW131047  11.099   1.784   3.134  0.0840 -0.0342  0.0885
 4479SOL    HW231048  11.079   1.687   3.249  0.9912 -0.9944 -0.5438
 4480SOL     OW31049   7.672   3.526  12.825  0.0589  0.8228 -0.1022
 4480SOL    HW131050   7.732   3.600  12.812  0.2350  0.4815 -1.4087
 4480SOL    HW231051   7.586   3.566  12.834  0.1476  1.1938 -0.8450
 4481SOL     OW31052   5.943   2.159   0.163  0.1898  0.0538  0.3186
 4481SOL    HW131053   5.894   2.238   0.139  0.3647 -0.3216 -1.4124
 4481SOL    HW231054   5.877   2.101   0.202 -0.7976 -0.4089 -1.8900
 4482SOL     OW31055   2.643   4.954   2.491  0.0289 -0.2473  0.6805
 4482SOL    HW131056   2.730   4.984   2.516 -0.0353  0.0246  0.5849
 4482SOL    HW231057   2.583   5.002   2.548 -0.0869 -0.0209  0.3717
 4483SOL     OW31058   1.803   2.135   2.436 -0.1915  0.2407 -0.3975
 4483SOL    HW131059   1.726   2.131   2.380 -0.2909  0.8876 -0.3083
 4483SOL    HW231060   1.769   2.129   2.525  0.0871 -2.8482 -0.3812
 4484SOL     OW31061   5.354  12.554   8.211  0.7565 -0.0745  0.3415
 4484SOL    HW131062   5.389  12.618   8.274 -0.4328 -0.6786  1.6714
 4484SOL    HW231063   5.265  12.583   8.195  0.5009 -0.8871  0.2572
 4485SOL     OW31064   2.722   2.251   2.927 -0.1229  0.1154 -0.2890
 4485SOL    HW131065   2.797   2.285   2.878 -0.6536  0.9150 -0.5682
 4485SOL    HW231066   2.718   2.306   3.005  0.3353 -0.7432  0.3480
 4486SOL     OW31067   4.578  13.185  12.264  0.6104  0.4448 -0.7579
 4486SOL    HW131068   4.606  13.268  12.224 -0.6093 -0.0504 -2.7760
 4486SOL    HW231069   4.659  13.146  12.297  1.7519  0.8951 -2.8390
 4487SOL     OW31070   6.601   3.318   6.473  0.0179  0.2473  0.5513
 4487SOL    HW131071   6.680   3.346   6.426  0.7207 -0.2991  1.3825
 4487SOL    HW231072   6.545   3.396   6.473  0.3365  0.4989 -0.4791
 4488SOL     OW31073   7.879   7.739   2.735  0.1122  0.6004 -0.1696
 4488SOL    HW131074   7.968   7.767   2.714  0.4735 -0.0782  0.4119
 4488SOL    HW231075   7.850   7.799   2.803  0.4035  0.3747  0.1567
 4489SOL     OW31076  13.864  12.599   6.374  0.1137 -0.3080 -0.0278
 4489SOL    HW131077  13.775  12.596   6.408  0.3768  0.7000  0.8120
 4489SOL    HW231078  13.903  12.676   6.416  1.9090 -1.6600  0.9033
 4490SOL     OW31079   3.504   4.981   4.400  0.3114  0.0738  0.5000
 4490SOL    HW131080   3.425   4.994   4.451  0.4389  2.0959  0.2549
 4490SOL    HW231081   3.473   4.966   4.311  0.1647 -1.5852  0.7874
 4491SOL     OW31082  10.741   9.979   7.032 -0.2835 -0.0123 -0.4039
 4491SOL    HW131083  10.697  10.059   7.003  1.0573  0.0757 -2.4804
 4491SOL    HW231084  10.808  10.009   7.093 -1.2150  0.1644  0.5600
 4492SOL     OW31085   5.437   4.349  11.799  0.1110 -0.3144 -0.2628
 4492SOL    HW131086   5.436   4.317  11.710  2.2245 -3.4212  0.6718
 4492SOL    HW231087   5.522   4.393  11.808  1.4151 -2.8811  0.9748
 4493SOL     OW31088  13.339   9.134   3.084  0.4571  0.1915  0.2531
 4493SOL    HW131089  13.414   9.115   3.141  2.2195  0.5118 -1.8450
 4493SOL    HW231090  13.291   9.203   3.130  1.3188 -0.1525  1.7300
 4494SOL     OW31091  12.125   6.926   8.605  0.0941 -0.5264  0.1285
 4494SOL    HW131092  12.044   6.880   8.584 -0.2648  0.2520 -0.1984
 4494SOL    HW231093  12.113   7.014   8.570 -0.0146  0.4564  2.4289
 4495SOL     OW31094  11.265  11.083  10.165  0.1217 -0.2265  0.0227
 4495SOL    HW131095  11.173  11.061  10.147  0.2937 -1.3506  0.4119
 4495SOL    HW231096  11.315  11.017  10.118  0.7933  1.0416 -1.1032
 4496SOL     OW31097   3.237   1.215   9.233  0.2337  0.1067  0.5893
 4496SOL    HW131098   3.183   1.138   9.215  0.8861 -0.0763 -0.6828
 4496SOL    HW231099   3.314   1.180   9.277  0.3933  0.0603  0.2772
 4497SOL     OW31100  13.329   8.725  10.521  0.1130  0.0834 -0.0461
 4497SOL    HW131101  13.248   8.770  10.497  0.1256 -0.0556 -0.3438
 4497SOL    HW231102  13.374   8.787  10.579 -0.4433 -0.0482  0.5395
 4498SOL     OW31103   7.172  10.558   1.189 -0.1068 -0.5217 -0.1389
 4498SOL    HW131104   7.185  10.653   1.189 -0.2445 -0.5001 -0.4671
 4498SOL    HW231105   7.251  10.523   1.148  0.2015 -0.5914  0.4985
 4499SOL     OW31106  10.760  13.044   3.528 -0.0777 -0.8547  0.8232
 4499SOL    HW131107  10.717  12.991   3.595  0.6843 -1.3680  0.9308
 4499SOL    HW231108  10.712  13.025   3.447 -1.2259  0.0419  1.2801
 4500SOL     OW31109   1.687   7.497   6.890 -0.1203  0.2182 -0.7781
 4500SOL    HW131110   1.757   7.522   6.831 -1.3455  0.9938 -1.9563
 4500SOL    HW231111   1.683   7.402   6.885 -0.3830  0.2874 -2.1838
 4501SOL     OW31112   0.929  12.021   4.859  0.0767  0.2649 -0.5506
 4501SOL    HW131113   0.877  12.096   4.886 -1.2879 -0.5135 -0.8650
 4501SOL    HW231114   0.962  12.044   4.772 -1.1443  0.1524 -1.0672
 4502SOL     OW31115   8.020  12.051   2.138 -0.4157  0.0734 -0.3091
 4502SOL    HW131116   7.939  12.002   2.148 -1.1606  1.2865 -0.2019
 4502SOL    HW231117   8.086  11.997   2.181 -1.1979 -0.8233 -0.1975
 4503SOL     OW31118  12.597  10.652   7.072  0.5379 -0.2853 -0.0320
 4503SOL    HW131119  12.538  10.596   7.123  0.2294 -0.3242 -0.4228
 4503SOL    HW231120  12.676  10.599   7.060 -0.5805 -1.5955 -2.3363
 4504SOL     OW31121   3.117   0.944  14.068  0.1623 -0.3342 -0.1829
 4504SOL    HW131122   3.090   0.868  14.120  0.3191 -0.4254 -0.2338
 4504SOL    HW231123   3.035   0.982  14.036  0.1277 -1.1238 -1.0608
 4505SOL     OW31124   3.848   9.420   6.625  0.6172  0.0235 -0.1607
 4505SOL    HW131125   3.876   9.388   6.711 -2.1943 -1.1755  0.4120
 4505SOL    HW231126   3.789   9.492   6.644  1.0857  0.6924 -1.1785
 4506SOL     OW31127   4.014   5.427  12.979 -0.2920 -0.0405  0.1664
 4506SOL    HW131128   4.001   5.409  12.886  0.0531  0.5716 -0.0052
 4506SOL    HW231129   3.934   5.393  13.021 -0.3992 -0.4252 -0.3318
 4507SOL     OW31130   1.655  10.504   8.847 -0.1080 -0.0040  0.0995
 4507SOL    HW131131   1.679  10.420   8.807  0.4216  0.1539  0.0699
 4507SOL    HW231132   1.702  10.569   8.794 -0.4516  0.3050  0.1740
 4508SOL     OW31133  11.537  11.538   5.590  0.0116  0.2989  0.2308
 4508SOL    HW131134  11.591  11.588   5.650  0.3124  1.5446 -1.0135
 4508SOL    HW231135  11.592  11.465   5.562  0.4822  0.6625  0.1995
 4509SOL     OW31136   0.994   5.090   8.066  0.4258  0.1867  0.2557
 4509SOL    HW131137   1.073   5.121   8.020  1.2999 -1.3450  0.6482
 4509SOL    HW231138   0.969   5.164   8.122  0.6900  1.2421 -0.9496
 4510SOL     OW31139   6.703   3.200   2.959 -0.2762  0.5545 -0.2464
 4510SOL    HW131140   6.781   3.158   2.924  0.0611  0.7586  0.2407
 4510SOL    HW231141   6.681   3.268   2.896  0.6025  1.2337  0.1727
 4511SOL     OW31142  12.509  10.390   2.318 -0.2836 -0.5607 -0.2455
 4511SOL    HW131143  12.500  10.321   2.253 -0.3873  1.0061 -2.0021
 4511SOL    HW231144  12.544  10.347   2.396  3.5082 -1.9984 -2.4926
 4512SOL     OW31145   2.136   3.024   6.736 -0.2369 -0.4078  0.1312
 4512SOL    HW131146   2.144   3.090   6.804  0.7632 -0.3680 -0.0160
 4512SOL    HW231147   2.168   2.943   6.777  1.6036 -0.1218 -0.6560
 4513SOL     OW31148  13.440   0.575  12.431  0.3759 -0.4832 -0.5441
 4513SOL    HW131149  13.447   0.486  12.399 -0.5682 -0.6913 -0.1922
 4513SOL    HW231150  13.363   0.575  12.488 -0.8881  1.0394 -2.1427
 4514SOL     OW31151   1.780   6.266   3.130 -0.4189  0.3214  0.0626
 4514SOL    HW131152   1.789   6.319   3.209 -0.2838 -0.8347  0.8481
 4514SOL    HW231153   1.869   6.256   3.097 -0.5415  1.3342 -0.6145
 4515SOL     OW31154  12.714  12.634  12.559 -0.0856  0.1107 -0.7678
 4515SOL    HW131155  12.707  12.540  12.544 -1.5596  0.1421 -0.4017
 4515SOL    HW231156  12.807  12.653  12.544  0.3304 -1.4599 -0.4436
 4516SOL     OW31157   4.097   1.050   9.211 -0.0023  0.5163  0.1516
 4516SOL    HW131158   4.135   0.992   9.277  0.4880  1.1918  0.4693
 4516SOL    HW231159   4.143   1.133   9.222  0.7071  0.4056 -1.6071
 4517SOL     OW31160   2.594   8.641   1.370 -0.4793 -0.4104 -0.0008
 4517SOL    HW131161   2.680   8.676   1.393 -0.1789 -1.8945  1.2710
 4517SOL    HW231162   2.549   8.629   1.453 -2.2575  1.0444 -0.6794
 4518SOL     OW31163  10.712   1.151  13.999  0.1664  0.4450  0.2300
 4518SOL    HW131164  10.750   1.239  13.998 -0.5307  0.7601  0.2063
 4518SOL    HW231165  10.725   1.121  14.089  2.7412 -0.5166 -0.3815
 4519SOL     OW31166   5.101   4.674   6.151  0.1764 -0.0405 -0.0821
 4519SOL    HW131167   5.165   4.667   6.222 -1.4640  1.5568  1.7052
 4519SOL    HW231168   5.134   4.743   6.094  1.0939 -0.7535 -0.4324
 4520SOL     OW31169   7.339  12.476  12.853  0.1692 -0.1015  0.4626
 4520SOL    HW131170   7.324  12.382  12.845  1.9416 -0.5168  1.4601
 4520SOL    HW231171   7.310  12.512  12.769 -0.0501 -1.6098 -0.1393
 4521SOL     OW31172   8.343   7.927   3.298  0.4127 -0.0138 -0.3328
 4521SOL    HW131173   8.437   7.924   3.318  0.2955  0.6302  0.3855
 4521SOL    HW231174   8.308   7.845   3.333  0.2703  0.9500  1.9448
 4522SOL     OW31175   5.082  12.667  10.167 -0.0526  0.0052  0.3947
 4522SOL    HW131176   4.994  12.668  10.127 -0.7059  0.1558  1.7897
 4522SOL    HW231177   5.113  12.757  10.157 -0.2449  0.0639  0.2963
 4523SOL     OW31178   2.248   2.905   1.073 -0.2486 -0.2642 -0.5597
 4523SOL    HW131179   2.160   2.881   1.044 -0.4437  0.0420 -0.2299
 4523SOL    HW231180   2.246   2.894   1.168 -0.3754  1.1284 -0.3803
 4524SOL     OW31181   6.476   0.995   4.305 -0.2565 -0.1936 -0.5100
 4524SOL    HW131182   6.400   1.006   4.247 -0.2816  0.8660 -0.2911
 4524SOL    HW231183   6.462   1.057   4.376  0.6701 -0.1975 -0.3036
 4525SOL     OW31184   3.969   3.403   8.251  0.1985 -0.5109  0.2434
 4525SOL    HW131185   4.052   3.361   8.270 -0.2108 -1.7429 -0.5852
 4525SOL    HW231186   3.970   3.417   8.156 -0.2315  0.1460  0.3236
 4526SOL     OW31187  13.495  12.839   4.468  0.1425 -0.5722 -0.2344
 4526SOL    HW131188  13.439  12.844   4.390 -0.6440 -1.0227  0.2892
 4526SOL    HW231189  13.507  12.745   4.482  0.5971 -0.4838 -0.0292
 4527SOL     OW31190   4.897   5.574   0.191 -0.0789 -0.9961 -0.1506
 4527SOL    HW131191   4.845   5.618   0.258  2.4859  2.4196 -0.1272
 4527SOL    HW231192   4.971   5.536   0.239  0.7615 -0.1967 -0.7737
 4528SOL     OW31193   2.038   6.362   1.282  0.2171  0.4712  0.6715
 4528SOL    HW131194   2.005   6.357   1.372  1.6271 -2.7002  1.1635
 4528SOL    HW231195   2.129   6.389   1.291 -0.1269  1.8950  0.0063
 4529SOL     OW31196   8.068   1.012   0.787 -0.2299 -0.2109  0.2882
 4529SOL    HW131197   8.126   1.054   0.723  0.1162  1.9965  1.8999
 4529SOL    HW231198   8.125   0.953   0.836  0.9078  2.2425  2.1311
 4530SOL     OW31199   5.372  11.534   2.708  0.0675 -0.2924  0.3446
 4530SOL    HW131200   5.383  11.570   2.620 -0.1382  0.0926  0.4728
 4530SOL    HW231201   5.411  11.447   2.703 -1.0316 -0.7747 -0.4629
 4531SOL     OW31202  13.757   3.181   7.211 -0.1319  0.1917 -0.1796
 4531SOL    HW131203  13.766   3.120   7.284 -0.5321  1.4194  0.9356
 4531SOL    HW231204  13.832   3.161   7.155  0.0401 -0.9570  0.4184
 4532SOL     OW31205  12.983  11.487   2.814 -0.2811 -0.3533  0.6436
 4532SOL    HW131206  12.908  11.459   2.762 -0.2751  0.8569 -0.0613
 4532SOL    HW231207  13.050  11.509   2.749 -0.2552  1.1457  1.1319
 4533SOL     OW31208   5.696   9.823   6.250  0.4972 -0.2672  0.1111
 4533SOL    HW131209   5.701   9.823   6.154  2.4306 -1.3605  0.1666
 4533SOL    HW231210   5.692   9.916   6.274  0.0382  0.0153 -1.0205
 4534SOL     OW31211   7.219   0.753  10.458 -0.0102  0.1441  0.2076
 4534SOL    HW131212   7.223   0.715  10.370 -0.5540 -0.5976  0.4854
 4534SOL    HW231213   7.290   0.816  10.461 -0.6473  0.9770 -1.1388
 4535SOL     OW31214   4.326   9.273   0.730 -0.2374  0.2356  0.1930
 4535SOL    HW131215   4.272   9.294   0.654 -0.8256  0.8618  0.7633
 4535SOL    HW231216   4.276   9.205   0.776 -0.8355  1.1863  1.0017
 4536SOL     OW31217  12.451  10.328  13.634 -0.3287  0.1390  0.3986
 4536SOL    HW131218  12.460  10.410  13.683  1.0870 -0.4304  1.1614
 4536SOL    HW231219  12.446  10.355  13.543  1.9656  1.0492  0.4699
 4537SOL     OW31220   0.604   3.262   0.692 -0.3026 -0.0688 -0.0435
 4537SOL    HW131221   0.525   3.295   0.650 -0.1586  0.3323 -0.0036
 4537SOL    HW231222   0.635   3.335   0.746 -0.1735 -0.3865  0.3180
 4538SOL     OW31223   1.648  12.209   6.716 -0.0302 -0.1902  0.0021
 4538SOL    HW131224   1.719  12.257   6.759  0.5835 -0.0721 -1.1182
 4538SOL    HW231225   1.673  12.117   6.725 -0.0367 -0.1803  0.1242
 4539SOL     OW31226   5.731   3.028   6.102 -0.2723 -0.4803  0.2171
 4539SOL    HW131227   5.799   2.974   6.141 -0.1069 -1.2982 -1.1349
 4539SOL    HW231228   5.650   2.998   6.143 -0.0737 -1.1077  0.1597
 4540SOL     OW31229   8.380   0.768  13.724 -0.3049  0.0380 -0.2058
 4540SOL    HW131230   8.341   0.813  13.649  0.2485  0.7100 -0.1039
 4540SOL    HW231231   8.469   0.804  13.729 -0.4981  0.3774  1.0777
 4541SOL     OW31232   0.204   4.995  12.910  0.1514  0.2509  0.0922
 4541SOL    HW131233   0.235   5.085  12.899 -1.3715  0.6250 -1.6355
 4541SOL    HW231234   0.118   5.004  12.952 -0.2267 -0.3407 -0.5306
 4542SOL     OW31235   6.895  11.080   2.987  0.6323  0.0218 -0.5260
 4542SOL    HW131236   6.943  11.014   3.036 -0.8313 -0.6113  0.1313
 4542SOL    HW231237   6.856  11.032   2.914  1.8128  0.7246 -1.6586
 4543SOL     OW31238   7.387   6.638   4.061 -0.0428  0.3420  0.3120
 4543SOL    HW131239   7.372   6.713   4.119  1.2495  0.3365  0.6753
 4543SOL    HW231240   7.399   6.677   3.974  0.1573  0.5190  0.4177
 4544SOL     OW31241   6.857   6.647  13.060  0.1447 -0.4476 -0.2485
 4544SOL    HW131242   6.941   6.603  13.064  0.8959  0.8684 -0.8966
 4544SOL    HW231243   6.851   6.681  12.970  0.2277  1.8921  0.5702
 4545SOL     OW31244   3.959   2.356   9.610 -0.1306 -0.6540  0.4486
 4545SOL    HW131245   3.956   2.333   9.517 -1.0704 -2.4369  0.8828
 4545SOL    HW231246   3.947   2.451   9.611 -1.2352 -0.7376 -1.1886
 4546SOL     OW31247   0.565  11.158   7.907  0.1106  0.2244  0.0878
 4546SOL    HW131248   0.609  11.125   7.829 -0.3159  0.5139 -0.2795
 4546SOL    HW231249   0.506  11.087   7.933  0.5611 -0.0409  0.3987
 4547SOL     OW31250   2.645   5.919   5.566  0.4201  0.1557  0.7418
 4547SOL    HW131251   2.607   5.864   5.634  1.9867  0.6191  2.0379
 4547SOL    HW231252   2.692   5.858   5.509 -1.2945 -0.2950 -0.2970
 4548SOL     OW31253   0.349   1.618   5.763 -0.1305 -0.2446  0.6681
 4548SOL    HW131254   0.289   1.581   5.829 -0.7364 -0.5646 -0.0456
 4548SOL    HW231255   0.431   1.571   5.776  0.6489  1.5201  2.9509
 4549SOL     OW31256   1.932   0.034   8.869 -0.8465  0.0729  0.4037
 4549SOL    HW131257   1.995   0.070   8.931 -1.2547 -0.1805  0.9692
 4549SOL    HW231258   1.955  -0.059   8.861 -0.3214  0.2649 -0.4101
 4550SOL     OW31259   6.794   9.623   6.381 -0.2293 -0.0947  0.4626
 4550SOL    HW131260   6.784   9.639   6.475 -0.0790 -1.7776  0.7858
 4550SOL    HW231261   6.776   9.530   6.370  0.5470 -0.0966 -1.0697
 4551SOL     OW31262  14.074   0.444   3.272 -0.1418 -0.5264  0.2625
 4551SOL    HW131263  14.009   0.476   3.210 -0.7964 -1.5195  0.4124
 4551SOL    HW231264  14.038   0.464   3.358 -0.3164 -1.1937  0.3485
 4552SOL     OW31265  12.793   7.009   2.971 -0.3635  0.1005  0.6499
 4552SOL    HW131266  12.719   6.979   3.024  0.2379 -0.1877  1.3466
 4552SOL    HW231267  12.863   7.023   3.035  0.2015  0.3001 -0.0091
 4553SOL     OW31268   8.439   3.028   7.427 -0.3127  0.5430 -0.2251
 4553SOL    HW131269   8.453   3.123   7.426  0.7633  0.4067 -1.8571
 4553SOL    HW231270   8.346   3.018   7.446 -0.3311  1.8895  0.5932
 4554SOL     OW31271   0.887   7.049   4.106  0.0805 -0.1414 -0.0735
 4554SOL    HW131272   0.882   7.106   4.030 -0.3483 -1.0917 -0.7755
 4554SOL    HW231273   0.841   6.969   4.079  1.0420 -0.9845  0.7259
 4555SOL     OW31274  11.162  11.196   6.964 -0.2427  0.1658  0.2771
 4555SOL    HW131275  11.110  11.276   6.966 -1.2157 -0.3766 -1.2609
 4555SOL    HW231276  11.238  11.215   7.018 -0.9983  1.7319  0.8426
 4556SOL     OW31277   9.483   6.509  12.817 -0.1916 -0.2619 -0.0063
 4556SOL    HW131278   9.451   6.475  12.733 -0.5850  1.1213 -0.4512
 4556SOL    HW231279   9.444   6.452  12.882 -0.1880 -1.1376 -0.7540
 4557SOL     OW31280   1.179   5.233  10.478  0.1531 -0.7947 -0.4795
 4557SOL    HW131281   1.104   5.173  10.470 -0.2290 -0.1570 -2.0889
 4557SOL    HW231282   1.175   5.286  10.399  0.8030  1.0100  0.6511
 4558SOL     OW31283   2.671   2.682   7.173 -0.3479  0.1277  0.2157
 4558SOL    HW131284   2.640   2.668   7.262  1.3904 -2.7514  0.5031
 4558SOL    HW231285   2.764   2.702   7.183 -0.3840  1.0349 -0.9451
 4559SOL     OW31286  10.819   4.935  12.961  0.0962  0.8303  0.3478
 4559SOL    HW131287  10.905   4.911  12.927 -0.7462 -0.2910 -1.1229
 4559SOL    HW231288  10.757   4.887  12.906 -1.4403  0.4932  2.2740
 4560SOL     OW31289  13.139  11.527  12.379 -0.5361 -0.0201  0.2219
 4560SOL    HW131290  13.149  11.469  12.454  0.7303 -0.6037 -0.3776
 4560SOL    HW231291  13.046  11.519  12.355 -0.7137 -0.6205  1.0815
 4561SOL     OW31292  11.128  12.796  12.706 -0.6585  0.0958  0.7589
 4561SOL    HW131293  11.177  12.860  12.654 -0.9214  0.9912  1.5800
 4561SOL    HW231294  11.164  12.711  12.680 -0.7723  0.5079 -0.8686
 4562SOL     OW31295  11.575   0.441   5.905 -0.2237  0.5843  0.1163
 4562SOL    HW131296  11.519   0.504   5.950  0.4740  0.7336  0.8159
 4562SOL    HW231297  11.537   0.431   5.818 -0.6401  1.5801  0.1764
 4563SOL     OW31298   9.784   1.217   9.529 -0.1743 -0.3366  0.1186
 4563SOL    HW131299   9.775   1.208   9.434  1.0361  0.8431 -0.1298
 4563SOL    HW231300   9.696   1.242   9.558 -0.0687  1.5433 -0.9987
 4564SOL     OW31301  12.312   7.158   4.947 -0.2796  0.2766 -0.1531
 4564SOL    HW131302  12.274   7.236   4.987  0.4961  0.6545 -0.1503
 4564SOL    HW231303  12.252   7.087   4.972 -0.7574  0.7929  0.1966
 4565SOL     OW31304  12.307   4.892   8.265 -0.1677 -0.0816 -0.0685
 4565SOL    HW131305  12.232   4.871   8.210 -0.3095 -1.3428  0.5596
 4565SOL    HW231306  12.339   4.976   8.232 -0.7232 -0.4207 -1.5377
 4566SOL     OW31307   0.313  12.971   3.665  0.4407  0.3254  0.0674
 4566SOL    HW131308   0.284  12.902   3.605 -0.7340  1.2595 -0.4889
 4566SOL    HW231309   0.403  12.948   3.686  0.2576 -1.0751 -0.5358
 4567SOL     OW31310  11.580  13.515   7.319 -0.1343  0.5827  0.3305
 4567SOL    HW131311  11.633  13.573   7.373  2.3706  0.1147 -1.4367
 4567SOL    HW231312  11.589  13.429   7.359  1.4641  0.2961 -0.5561
 4568SOL     OW31313   1.575   6.000  13.036  0.2056  0.3379 -0.2112
 4568SOL    HW131314   1.589   5.984  13.129 -0.5516 -0.8942 -0.2760
 4568SOL    HW231315   1.602   5.919  12.994 -1.2820  0.1377 -0.8580
 4569SOL     OW31316  11.517   2.839  11.181 -0.6413 -0.1123  0.8358
 4569SOL    HW131317  11.537   2.750  11.210 -0.8524 -0.5085 -0.1767
 4569SOL    HW231318  11.597   2.889  11.199 -0.2031 -0.7187  0.6173
 4570SOL     OW31319   5.158  11.641   5.616 -0.2769  0.1651 -0.0762
 4570SOL    HW131320   5.218  11.576   5.653  0.6046  0.2971 -1.2388
 4570SOL    HW231321   5.118  11.596   5.542 -1.7282  0.0418  0.7447
 4571SOL     OW31322   2.831   2.727   3.103  0.0792 -0.4287 -0.2852
 4571SOL    HW131323   2.899   2.742   3.169  0.7220  0.0568 -1.0390
 4571SOL    HW231324   2.764   2.793   3.120  0.1348 -0.4553  0.0264
 4572SOL     OW31325   3.017   2.651  12.281 -0.1358 -0.2577 -0.3416
 4572SOL    HW131326   3.102   2.686  12.310 -0.4926 -0.2985  0.8016
 4572SOL    HW231327   2.953   2.706  12.326 -0.7082 -0.6907 -0.6300
 4573SOL     OW31328   5.945   7.515  13.321  0.1050 -0.1175 -0.1793
 4573SOL    HW131329   5.878   7.493  13.386  0.2607  0.8623  0.3384
 4573SOL    HW231330   5.931   7.608  13.302  1.6539  0.2607  0.3613
 4574SOL     OW31331   5.708   3.147  10.494 -0.6640  0.3893 -0.5853
 4574SOL    HW131332   5.634   3.207  10.485 -1.7966 -0.8667 -0.0314
 4574SOL    HW231333   5.680   3.067  10.451 -0.5410 -0.8526  1.5013
 4575SOL     OW31334   8.815   0.287   7.136 -0.0570  0.2852 -0.7775
 4575SOL    HW131335   8.888   0.315   7.191 -1.6748  0.6761  1.3188
 4575SOL    HW231336   8.779   0.368   7.100  0.3069  0.1267 -1.5129
 4576SOL     OW31337  13.629   1.362   2.836  0.1382 -0.2540  0.7532
 4576SOL    HW131338  13.582   1.372   2.919 -0.6489 -1.0400  0.4138
 4576SOL    HW231339  13.616   1.271   2.812  3.2539 -1.0124  1.4810
 4577SOL     OW31340   8.110   4.784   3.057 -0.3210 -0.4080 -0.8445
 4577SOL    HW131341   8.032   4.838   3.070  0.0021 -0.4096  1.5957
 4577SOL    HW231342   8.118   4.733   3.138  2.2228 -0.3807 -0.9847
 4578SOL     OW31343   5.931   9.738  12.213  0.3996 -0.1255  0.3604
 4578SOL    HW131344   5.901   9.721  12.302  0.2666 -0.1787  0.3063
 4578SOL    HW231345   6.012   9.687  12.205  0.6042  0.1708  0.5674
 4579SOL     OW31346  11.169  11.850  13.404  0.1563 -0.1854  0.3338
 4579SOL    HW131347  11.177  11.757  13.382  1.1987  0.2832 -1.4413
 4579SOL    HW231348  11.140  11.892  13.323  0.0100  1.0881  1.0157
 4580SOL     OW31349   4.453  12.015  12.193 -0.4445  0.5485  0.2812
 4580SOL    HW131350   4.413  12.094  12.232 -0.6358  0.5980 -0.0110
 4580SOL    HW231351   4.530  12.048  12.148  0.6953  0.2835  1.9353
 4581SOL     OW31352   6.635  13.475   1.983 -0.5729  0.3868  0.2291
 4581SOL    HW131353   6.589  13.450   1.903 -0.9826 -0.9201  0.8337
 4581SOL    HW231354   6.723  13.437   1.973 -1.1397 -1.2631  1.0719
 4582SOL     OW31355   4.374  11.676  12.891 -0.0709 -0.1091  0.1020
 4582SOL    HW131356   4.369  11.729  12.971 -1.5889  0.2306 -0.1751
 4582SOL    HW231357   4.462  11.640  12.891  0.9883  2.3133  0.3704
 4583SOL     OW31358   8.356   9.185  12.683 -0.5012  0.2550  0.7361
 4583SOL    HW131359   8.371   9.255  12.746  0.0640 -0.8465  1.8603
 4583SOL    HW231360   8.442   9.143  12.672 -0.3557  0.9995 -1.5101
 4584SOL     OW31361   5.718   8.061   7.637 -0.1323  0.1811 -0.5269
 4584SOL    HW131362   5.789   7.998   7.646 -1.6426 -1.8330 -2.0030
 4584SOL    HW231363   5.651   8.032   7.699 -0.7035  0.5283 -0.9701
 4585SOL     OW31364   1.403   8.422   3.001 -0.2976  0.5246  0.1617
 4585SOL    HW131365   1.435   8.475   3.074 -0.0635  1.1950 -0.4057
 4585SOL    HW231366   1.471   8.431   2.934  0.8134 -2.2434  0.7888
 4586SOL     OW31367   1.934   7.730   4.393 -0.3099  0.2640 -0.0339
 4586SOL    HW131368   1.979   7.660   4.440  0.1707 -0.5694 -1.6754
 4586SOL    HW231369   1.995   7.757   4.325  0.0599  3.2338  1.3292
 4587SOL     OW31370  12.933   2.989   7.769  0.1331 -0.0047  0.1527
 4587SOL    HW131371  12.858   2.932   7.750 -0.1289  0.1823  0.6176
 4587SOL    HW231372  12.998   2.930   7.808  0.1477 -0.1256 -0.0515
 4588SOL     OW31373   7.740   3.715   7.299  0.2437 -0.5244 -0.0928
 4588SOL    HW131374   7.709   3.780   7.361  0.7162  0.7938 -1.1714
 4588SOL    HW231375   7.661   3.685   7.254  0.0106 -0.7894  0.4853
 4589SOL     OW31376   6.721   4.146   1.139  1.3371 -0.2827  0.0560
 4589SOL    HW131377   6.734   4.222   1.081  0.1662  0.0200  0.1637
 4589SOL    HW231378   6.752   4.176   1.225  1.2038 -0.0412  0.0212
 4590SOL     OW31379   4.271  12.367   1.737  0.3025  0.0921 -0.3470
 4590SOL    HW131380   4.227  12.292   1.776 -0.1222  1.6795  2.5185
 4590SOL    HW231381   4.257  12.357   1.643 -1.5213 -2.2787  0.0797
 4591SOL     OW31382  12.841   8.192   4.648 -0.0559  0.1818  0.2155
 4591SOL    HW131383  12.872   8.208   4.737  0.0637  0.6032  0.0972
 4591SOL    HW231384  12.762   8.138   4.659  1.7339 -2.6076  0.4736
 4592SOL     OW31385  12.012  10.957  11.136 -0.2111  0.1831  0.3201
 4592SOL    HW131386  12.002  10.892  11.067 -0.7050  1.5543 -0.9474
 4592SOL    HW231387  11.923  10.977  11.163 -0.0279 -0.1813  1.2222
 4593SOL     OW31388   6.975   2.728   2.194 -0.0582 -0.0591 -0.3683
 4593SOL    HW131389   7.018   2.700   2.114  1.5583  0.1526  0.3744
 4593SOL    HW231390   7.028   2.802   2.225 -1.6625  0.9903 -0.0087
 4594SOL     OW31391   3.851  11.369   8.988  0.2399 -0.3994  1.0180
 4594SOL    HW131392   3.915  11.375   9.058  1.7019  0.0437 -0.2917
 4594SOL    HW231393   3.880  11.433   8.923 -1.4579 -0.2911  0.3008
 4595SOL     OW31394   6.157   8.921   4.374  0.7384 -0.2430 -0.2634
 4595SOL    HW131395   6.200   8.847   4.417  2.8851  2.2595  2.3814
 4595SOL    HW231396   6.208   8.936   4.295  0.6457 -1.2258 -0.5182
 4596SOL     OW31397   0.320   3.842  13.208 -0.2154 -0.3059  0.1981
 4596SOL    HW131398   0.329   3.803  13.121  2.0899 -1.2211  0.7814
 4596SOL    HW231399   0.297   3.933  13.190 -2.3922 -1.0411 -1.2623
 4597SOL     OW31400  13.617   8.516   2.462 -0.4550 -0.1842 -0.6284
 4597SOL    HW131401  13.547   8.455   2.485 -0.8055  0.8972  1.3649
 4597SOL    HW231402  13.573   8.600   2.449  0.4290  0.5230  0.6826
 4598SOL     OW31403   4.258  11.546   9.483  0.4400  0.1352 -0.4450
 4598SOL    HW131404   4.290  11.523   9.570  0.9407 -0.2610 -0.7288
 4598SOL    HW231405   4.330  11.523   9.424 -0.1029 -0.1161 -1.0233
 4599SOL     OW31406   6.503  13.844   2.050 -0.0514 -1.2356  0.0664
 4599SOL    HW131407   6.521  13.821   2.141  0.6721 -0.5731  0.1004
 4599SOL    HW231408   6.561  13.788   1.999  1.6125  0.3337  0.1439
 4600SOL     OW31409   3.498   5.335  11.161  0.2510  0.3454  0.2961
 4600SOL    HW131410   3.520   5.284  11.239  1.6736  1.0011  0.3608
 4600SOL    HW231411   3.434   5.399  11.192 -0.6520 -0.6079  0.4733
 4601SOL     OW31412  12.983   3.972   2.967 -0.0662 -0.0657 -0.3275
 4601SOL    HW131413  13.065   4.018   2.949 -0.4487  1.5270  1.6759
 4601SOL    HW231414  12.919   4.042   2.981 -2.2792 -1.2071 -3.5519
 4602SOL     OW31415  11.332   5.371   0.729  0.4402 -0.4277  0.1253
 4602SOL    HW131416  11.292   5.384   0.815 -0.8584 -0.3964 -0.4535
 4602SOL    HW231417  11.392   5.297   0.741 -1.0547 -1.6155  0.6639
 4603SOL     OW31418   0.884   6.731   0.400  0.1172  0.2778  0.1278
 4603SOL    HW131419   0.924   6.652   0.438  0.3474  1.2643  2.1102
 4603SOL    HW231420   0.954   6.770   0.347  0.8993  0.4947  1.2706
 4604SOL     OW31421  10.491   1.558  13.592 -0.1837  0.0659  0.3927
 4604SOL    HW131422  10.555   1.578  13.660 -0.2900  2.2988 -0.0912
 4604SOL    HW231423  10.409   1.544  13.638 -0.1305  0.9691  0.7656
 4605SOL     OW31424   8.916  10.587   8.207 -0.2621 -0.0520  0.0786
 4605SOL    HW131425   8.889  10.596   8.115  0.4365 -1.7775 -0.3401
 4605SOL    HW231426   9.008  10.613   8.207  0.2952 -1.9025 -0.1311
 4606SOL     OW31427   3.792  12.514  12.825  0.3324 -0.3644 -0.3500
 4606SOL    HW131428   3.801  12.420  12.811 -0.9305 -0.3837 -1.1872
 4606SOL    HW231429   3.779  12.550  12.737  0.2372  0.5201  0.0175
 4607SOL     OW31430   7.796   7.293   6.689 -0.4312  0.1933 -0.2596
 4607SOL    HW131431   7.855   7.331   6.624 -0.2098 -0.6573 -0.5688
 4607SOL    HW231432   7.853   7.242   6.746 -0.7564  0.0850 -0.0324
 4608SOL     OW31433  14.029  11.260   4.213 -0.1434  0.4612  0.0119
 4608SOL    HW131434  13.946  11.283   4.255 -0.0914  0.3687  0.1656
 4608SOL    HW231435  14.089  11.246   4.286  0.0383  0.6465 -0.1029
 4609SOL     OW31436   6.866   2.525   9.272 -0.0289  0.2362  0.1540
 4609SOL    HW131437   6.833   2.440   9.302  0.7423  0.3724  1.4419
 4609SOL    HW231438   6.929   2.502   9.203  0.7243 -0.2992  0.9972
 4610SOL     OW31439  10.454   1.553   7.650  0.2901  0.2583  0.2236
 4610SOL    HW131440  10.426   1.524   7.737 -0.0487  0.7531  0.2827
 4610SOL    HW231441  10.540   1.513   7.639  0.6521  0.7505  1.0828
 4611SOL     OW31442   1.950   4.378  10.594 -0.1138 -0.1226  0.9355
 4611SOL    HW131443   2.030   4.340  10.557  1.6936 -0.3808  4.6614
 4611SOL    HW231444   1.879   4.335  10.546  1.9355 -1.6075 -0.9784
 4612SOL     OW31445  10.516  12.982   8.224  0.1442  0.1965  0.4151
 4612SOL    HW131446  10.427  13.002   8.252  0.0115  1.6438 -0.9075
 4612SOL    HW231447  10.569  12.990   8.303 -0.9667 -1.5166  1.4108
 4613SOL     OW31448   5.053   6.944   6.070  0.5984  0.2786  0.0151
 4613SOL    HW131449   5.076   6.887   5.997  1.8010  1.0878 -0.2771
 4613SOL    HW231450   4.970   6.984   6.044  1.0397  0.5990 -0.9445
 4614SOL     OW31451  12.942   3.319   9.118  0.0017  0.2389  0.2953
 4614SOL    HW131452  13.033   3.347   9.114 -0.0705  1.2899  3.5779
 4614SOL    HW231453  12.908   3.337   9.030  2.7856  0.1837 -0.9073
 4615SOL     OW31454   2.094   1.417   7.272  0.3198 -0.3446  0.1933
 4615SOL    HW131455   2.115   1.467   7.193  0.3560  0.0365  0.4436
 4615SOL    HW231456   2.166   1.435   7.332  0.2079 -0.4997  0.3770
 4616SOL     OW31457   5.207   5.377   2.713 -0.3138 -0.8866  0.4546
 4616SOL    HW131458   5.205   5.317   2.787  0.5864  1.1696  2.2712
 4616SOL    HW231459   5.121   5.367   2.671 -0.7382 -2.2867  1.6022
 4617SOL     OW31460  10.673   3.756  12.434  0.4550  0.7132  0.1716
 4617SOL    HW131461  10.593   3.710  12.407  0.2742  0.7363  0.6606
 4617SOL    HW231462  10.702   3.709  12.512  0.6097  1.0529  0.3185
 4618SOL     OW31463   6.922  13.322   2.994  0.2448  0.2441  0.1698
 4618SOL    HW131464   7.007  13.346   3.030  0.5075 -0.6187  0.1456
 4618SOL    HW231465   6.916  13.371   2.911  1.4368 -0.9194 -0.6455
 4619SOL     OW31466   0.964   2.896   8.785 -0.5643  0.6575 -0.4667
 4619SOL    HW131467   0.874   2.917   8.812 -0.0041  1.2568  1.0549
 4619SOL    HW231468   1.016   2.908   8.864  0.7659 -0.3951 -1.1408
 4620SOL     OW31469   2.100   3.044   9.852  0.4925  0.1676  0.3328
 4620SOL    HW131470   2.087   2.987   9.927 -1.6948 -1.4922 -1.1793
 4620SOL    HW231471   2.031   3.110   9.859  0.9244  0.6316  0.3043
 4621SOL     OW31472  10.985  13.749  10.839 -0.4402 -0.3263 -0.1218
 4621SOL    HW131473  11.070  13.713  10.865  0.4053  0.7275 -1.2826
 4621SOL    HW231474  10.937  13.674  10.805  0.0788 -0.9103  0.3881
 4622SOL     OW31475  11.669  12.507  10.253  0.1365 -0.1320  0.4152
 4622SOL    HW131476  11.732  12.491  10.324 -0.3743 -1.1382  0.6542
 4622SOL    HW231477  11.686  12.438  10.190 -0.6426 -0.3376  0.4241
 4623SOL     OW31478  11.337   5.480   7.855 -0.0112 -0.4620  0.0098
 4623SOL    HW131479  11.366   5.561   7.896 -0.1910  0.0767 -0.8936
 4623SOL    HW231480  11.418   5.437   7.826  0.0142  0.1439 -0.8621
 4624SOL     OW31481   3.172   0.321  13.152  0.0771  0.0057  0.1648
 4624SOL    HW131482   3.235   0.260  13.191  2.2400  1.7028 -0.5388
 4624SOL    HW231483   3.221   0.401  13.137 -2.5143  1.7724  0.4435
 4625SOL     OW31484   0.662   5.301   3.424  0.1250 -0.0869  0.3829
 4625SOL    HW131485   0.617   5.375   3.464  1.3347  0.4763  0.7692
 4625SOL    HW231486   0.693   5.335   3.340  1.3858  0.1293  0.9103
 4626SOL     OW31487   0.910   0.888   7.095  0.9525  0.1744 -0.7497
 4626SOL    HW131488   0.959   0.958   7.138 -1.2908  1.6550 -0.4450
 4626SOL    HW231489   0.895   0.920   7.006  0.8954 -0.4408 -0.9676
 4627SOL     OW31490   6.432   4.922  13.276  0.3439 -0.3373 -0.1382
 4627SOL    HW131491   6.466   4.833  13.284 -2.5214 -1.4634  0.4535
 4627SOL    HW231492   6.510   4.977  13.282  1.8862 -2.5400  4.0733
 4628SOL     OW31493   8.180   4.746   1.323 -0.9683  0.5313  0.2129
 4628SOL    HW131494   8.220   4.827   1.353 -0.9760  0.0337  1.6361
 4628SOL    HW231495   8.253   4.695   1.289 -0.7183  0.5212  0.7498
 4629SOL     OW31496   4.832  12.596  11.177 -0.2131  0.4549 -0.5058
 4629SOL    HW131497   4.766  12.633  11.236 -0.1595 -0.5238  0.1969
 4629SOL    HW231498   4.891  12.547  11.234  1.8339  2.2242 -0.9532
 4630SOL     OW31499  11.761   2.171   0.429  0.6574  0.0808 -0.0204
 4630SOL    HW131500  11.847   2.188   0.391  0.6422  0.4317  0.1014
 4630SOL    HW231501  11.743   2.248   0.483  0.3351 -0.0622  0.0769
 4631SOL     OW31502   1.064  12.912   1.580  0.2239  0.0517 -0.2290
 4631SOL    HW131503   0.979  12.907   1.536 -0.0882  1.5266  0.1473
 4631SOL    HW231504   1.048  12.876   1.667 -0.1848  0.8734  0.0471
 4632SOL     OW31505   5.105  12.299   7.246  0.1897 -0.7412  0.2044
 4632SOL    HW131506   5.068  12.348   7.173  0.1483  0.9428  1.3157
 4632SOL    HW231507   5.039  12.232   7.266 -0.9339  0.3646  0.2844
 4633SOL     OW31508  12.840   2.331   8.946 -0.3295 -0.1147 -0.5268
 4633SOL    HW131509  12.819   2.276   9.021  1.0943  0.7606  0.5505
 4633SOL    HW231510  12.826   2.420   8.975  0.1597  0.2396 -1.3191
 4634SOL     OW31511   2.511   3.789  13.201 -0.2355  0.4748  0.2560
 4634SOL    HW131512   2.428   3.784  13.152  0.4715  1.7865 -1.1649
 4634SOL    HW231513   2.508   3.873  13.246  1.0867  1.4672 -1.3783
 4635SOL     OW31514  13.004   7.500  13.724 -0.4328 -0.1710  0.7272
 4635SOL    HW131515  13.094   7.503  13.754 -0.3831  0.4248  0.5256
 4635SOL    HW231516  12.958   7.563  13.781 -0.9739 -1.3681  1.6571
 4636SOL     OW31517   2.286   3.023   9.064  0.1327  0.2703  0.2301
 4636SOL    HW131518   2.221   2.954   9.047 -0.1713  0.2068  1.5547
 4636SOL    HW231519   2.262   3.094   9.004 -0.1711 -0.3836 -0.4326
 4637SOL     OW31520   3.536  13.057   9.965 -0.4390  0.8091 -0.0337
 4637SOL    HW131521   3.590  13.071  10.042 -1.0961 -2.2822  1.1720
 4637SOL    HW231522   3.597  13.026   9.898 -0.3515 -0.4698  0.6030
 4638SOL     OW31523  12.718   2.941   2.636 -1.0101 -0.4129  0.0949
 4638SOL    HW131524  12.624   2.948   2.647 -1.4114 -0.7897 -2.3708
 4638SOL    HW231525  12.752   3.027   2.663 -2.1917  0.1099 -0.0063
 4639SOL     OW31526   6.096   7.378  14.056 -0.0948  0.2801 -0.1163
 4639SOL    HW131527   6.063   7.409  14.141 -1.1432  2.0961 -1.1180
 4639SOL    HW231528   6.126   7.289  14.073 -2.5743 -0.3267  1.6214
 4640SOL     OW31529   8.584  12.865   7.940  0.0512 -0.6049 -0.2830
 4640SOL    HW131530   8.492  12.844   7.958 -0.2054 -0.2040 -1.0636
 4640SOL    HW231531   8.608  12.807   7.868  0.0734  0.0513 -0.8146
 4641SOL     OW31532   9.216  12.324   3.131  0.2999 -0.2594 -0.1254
 4641SOL    HW131533   9.225  12.404   3.078  0.6437  1.3377  2.2049
 4641SOL    HW231534   9.145  12.344   3.192  0.5367 -1.6808  0.6450
 4642SOL     OW31535   5.577  12.001   8.326  0.0878  0.0993  0.0208
 4642SOL    HW131536   5.498  12.026   8.375 -0.5391  0.3829 -1.1176
 4642SOL    HW231537   5.608  12.082   8.288  0.1762 -0.2295 -0.6161
 4643SOL     OW31538  11.520  10.132   4.492 -0.3952 -0.5937  0.5807
 4643SOL    HW131539  11.601  10.170   4.458 -1.0060 -0.4451 -0.7950
 4643SOL    HW231540  11.548  10.076   4.564  1.1614 -2.0236 -1.0413
 4644SOL     OW31541   9.345   3.808   3.105  0.6481 -0.3818 -0.0917
 4644SOL    HW131542   9.403   3.755   3.051  0.8667 -0.6538  0.4089
 4644SOL    HW231543   9.293   3.858   3.041 -1.9208 -3.5606 -0.7615
 4645SOL     OW31544  12.094   8.307   4.809 -0.4115  0.3223 -0.5061
 4645SOL    HW131545  12.126   8.293   4.720  0.3315  1.2208 -0.3966
 4645SOL    HW231546  12.166   8.276   4.864 -1.2827 -1.2450 -0.1678
 4646SOL     OW31547   6.638   1.599  12.461  0.6381 -0.5615 -0.3122
 4646SOL    HW131548   6.683   1.684  12.462  1.8066 -1.1445 -1.2746
 4646SOL    HW231549   6.640   1.571  12.370 -1.2998 -0.8472 -0.3105
 4647SOL     OW31550   8.348   3.356   0.240 -0.7408  0.8956 -0.1387
 4647SOL    HW131551   8.424   3.320   0.285 -1.5900 -1.0787 -0.2179
 4647SOL    HW231552   8.364   3.451   0.240  1.7199  0.5582 -0.1992
 4648SOL     OW31553   6.805  13.036  13.656 -0.2479 -0.5073  0.6694
 4648SOL    HW131554   6.747  12.999  13.590  1.2582 -0.5900 -0.6395
 4648SOL    HW231555   6.850  12.960  13.694  0.4052 -0.3071  0.3133
 4649SOL     OW31556   9.222   0.894  11.065  0.4585 -0.0285 -0.0449
 4649SOL    HW131557   9.316   0.883  11.076  0.4118 -1.0718 -0.5791
 4649SOL    HW231558   9.212   0.934  10.979  0.3897 -0.4322 -0.2256
 4650SOL     OW31559   5.173   2.713   5.188 -0.6271  0.7860 -0.0765
 4650SOL    HW131560   5.237   2.753   5.247 -0.9263 -0.4926  1.1707
 4650SOL    HW231561   5.101   2.687   5.245 -1.7173  1.0830 -1.2780
 4651SOL     OW31562  12.206   9.690   0.328  0.4234 -0.1710  0.3920
 4651SOL    HW131563  12.259   9.766   0.306  0.1794 -0.2274 -0.4468
 4651SOL    HW231564  12.230   9.625   0.262 -1.2921  0.0963 -0.5624
 4652SOL     OW31565  10.701   1.933   0.983  0.4884  0.2580 -0.2740
 4652SOL    HW131566  10.686   1.958   1.074 -0.1517  1.1215 -0.5938
 4652SOL    HW231567  10.622   1.886   0.957  0.6993 -0.0485 -0.3656
 4653SOL     OW31568   7.516   3.887   9.029  0.3856 -0.0980  0.1202
 4653SOL    HW131569   7.554   3.801   9.009  0.8279 -0.3433  1.8753
 4653SOL    HW231570   7.508   3.888   9.124 -2.6380  0.5363 -0.0358
 4654SOL     OW31571   0.160   8.695   0.487 -0.0737 -0.6569 -0.2567
 4654SOL    HW131572   0.083   8.737   0.448 -0.8606 -1.6674  0.1759
 4654SOL    HW231573   0.140   8.690   0.580  1.3911  0.8801  0.1905
 4655SOL     OW31574   5.926  11.079   9.100 -0.3315  0.0066 -0.4662
 4655SOL    HW131575   5.889  11.048   9.017 -1.5701  1.9205 -0.6878
 4655SOL    HW231576   5.865  11.145   9.131  0.1554 -0.5826  1.9717
 4656SOL     OW31577   8.614  12.040  10.357  0.1802 -0.2069 -0.2374
 4656SOL    HW131578   8.582  12.100  10.289 -0.6612  1.6630  1.6813
 4656SOL    HW231579   8.704  12.068  10.375  0.2824 -0.4680 -0.3360
 4657SOL     OW31580   3.912   0.044  13.484  0.2337 -0.2971 -0.2375
 4657SOL    HW131581   3.966  -0.034  13.475 -1.8047 -1.6709 -1.3189
 4657SOL    HW231582   3.916   0.086  13.398  0.2417  0.0433 -0.0731
 4658SOL     OW31583   3.390   1.238   4.993 -0.0953 -0.4616  0.0759
 4658SOL    HW131584   3.340   1.167   5.031  0.0774 -0.0303  1.1444
 4658SOL    HW231585   3.479   1.205   4.987  0.3712  0.2266  2.2579
 4659SOL     OW31586   3.706   3.581   8.878  0.6445 -0.3463  0.3536
 4659SOL    HW131587   3.753   3.631   8.811 -0.3113 -1.6486 -1.3611
 4659SOL    HW231588   3.766   3.578   8.952  0.8081  3.1670  0.5094
 4660SOL     OW31589  10.546   2.635  10.835 -0.1493  0.4241 -0.1039
 4660SOL    HW131590  10.600   2.713  10.823  0.0169  0.4979  1.0292
 4660SOL    HW231591  10.459   2.670  10.855 -0.3637  0.3059 -0.7963
 4661SOL     OW31592   3.577   6.437   3.542 -0.1976 -0.5469 -0.4250
 4661SOL    HW131593   3.635   6.366   3.572 -1.1482 -1.1928 -0.0807
 4661SOL    HW231594   3.587   6.437   3.447  0.7880 -0.2674 -0.3430
 4662SOL     OW31595   9.044   0.331   7.331  0.3183 -0.3215  0.0553
 4662SOL    HW131596   9.119   0.334   7.272 -0.9616  0.0534 -1.6254
 4662SOL    HW231597   9.019   0.239   7.332  1.0404 -0.5198  0.9659
 4663SOL     OW31598   7.946   1.664  12.741  0.1475  0.3792  0.6088
 4663SOL    HW131599   7.927   1.583  12.695 -1.8174  1.8171 -1.3082
 4663SOL    HW231600   7.990   1.719  12.676  1.0217  1.0722  1.7253
 4664SOL     OW31601  13.543  10.504   1.909 -0.1652  0.9202 -0.7115
 4664SOL    HW131602  13.592  10.422   1.897  3.1829  1.8383  3.9175
 4664SOL    HW231603  13.597  10.571   1.868 -0.1796  1.3374 -0.0740
 4665SOL     OW31604   0.576  10.556   8.020 -0.5675 -0.0788 -0.2335
 4665SOL    HW131605   0.507  10.536   7.956 -0.7844 -0.4383  0.1039
 4665SOL    HW231606   0.645  10.492   8.001 -0.3894  0.1811 -0.4715
 4666SOL     OW31607   2.290  12.458   9.596  0.0397 -0.1038  0.0418
 4666SOL    HW131608   2.319  12.420   9.513  0.5489  0.6549 -0.1399
 4666SOL    HW231609   2.272  12.383   9.652 -1.5910 -0.6761 -1.1710
 4667SOL     OW31610   7.931   6.562   7.517 -0.0025 -0.0217  0.2528
 4667SOL    HW131611   8.016   6.581   7.556 -0.5191  0.6098  1.1405
 4667SOL    HW231612   7.933   6.469   7.497  1.3376  0.2254 -0.9086
 4668SOL     OW31613   6.046  13.720  12.815 -0.1733 -0.4344  0.0195
 4668SOL    HW131614   6.003  13.657  12.758  2.1455 -1.3193 -0.8646
 4668SOL    HW231615   6.108  13.766  12.757  0.6147  0.2463  1.3630
 4669SOL     OW31616   6.734   8.600   4.242  0.4547  0.1472  0.5865
 4669SOL    HW131617   6.693   8.539   4.181 -0.1251  1.5944 -0.5453
 4669SOL    HW231618   6.660   8.647   4.281  0.8995  0.2993  1.2658
 4670SOL     OW31619   9.242   9.513  12.147  0.5023  0.3626 -0.2177
 4670SOL    HW131620   9.326   9.538  12.186 -1.3120  0.6982  3.9958
 4670SOL    HW231621   9.210   9.593  12.105  2.4224  0.0660 -2.4471
 4671SOL     OW31622   3.576   5.202  11.376 -0.2658 -0.0652 -0.1821
 4671SOL    HW131623   3.572   5.118  11.421  0.4114  0.1012  0.1934
 4671SOL    HW231624   3.589   5.266  11.445  0.0649  0.2635 -0.5432
 4672SOL     OW31625   9.828   0.386   9.070  0.5948 -0.5311  0.2048
 4672SOL    HW131626   9.901   0.393   9.132  1.3354  0.7473 -0.7706
 4672SOL    HW231627   9.755   0.354   9.123  1.7708 -1.5470  1.2729
 4673SOL     OW31628   6.789   4.930   3.331  0.4610  0.3169  0.5871
 4673SOL    HW131629   6.822   4.851   3.372  0.2771  0.2743  0.6561
 4673SOL    HW231630   6.847   4.946   3.257  0.2872 -0.0769  0.3642
 4674SOL     OW31631   7.907  12.121   3.454 -0.0603  0.3306  0.0610
 4674SOL    HW131632   7.917  12.043   3.400  0.3435  0.9122 -0.7251
 4674SOL    HW231633   7.876  12.189   3.393 -0.9062  0.6651  0.8230
 4675SOL     OW31634  12.003   6.818  13.698  0.3667 -0.2481  0.0560
 4675SOL    HW131635  12.066   6.887  13.677  0.6423 -0.2517  0.8335
 4675SOL    HW231636  12.029   6.788  13.786 -2.9736  2.4383  2.2450
 4676SOL     OW31637   4.149   4.365  11.375 -0.4765 -1.0117  0.4411
 4676SOL    HW131638   4.132   4.274  11.397 -1.7259 -1.1300 -0.8678
 4676SOL    HW231639   4.211   4.362  11.302  0.7892 -0.7367  1.4719
 4677SOL     OW31640   2.034  11.643   1.774 -0.6327  0.5948  0.4734
 4677SOL    HW131641   1.960  11.583   1.766 -0.6153  0.3176  2.1845
 4677SOL    HW231642   2.025  11.682   1.861  1.2518  0.5197  0.7444
 4678SOL     OW31643   7.310  10.808   2.913 -0.4243 -0.3748 -0.3910
 4678SOL    HW131644   7.239  10.762   2.867 -0.5792  0.6058 -1.1823
 4678SOL    HW231645   7.320  10.890   2.864  1.1909 -0.4519 -0.2180
 4679SOL     OW31646   5.845  13.612   9.082  0.5067  0.3041 -0.0429
 4679SOL    HW131647   5.852  13.559   9.162  1.7379  1.9453  1.0144
 4679SOL    HW231648   5.882  13.557   9.013  0.7365 -0.6257  0.7933
 4680SOL     OW31649   7.133  13.628  11.457  0.0123 -0.1359 -0.2933
 4680SOL    HW131650   7.092  13.649  11.541 -0.6968 -0.2044 -0.6218
 4680SOL    HW231651   7.061  13.628  11.394  0.8885  2.9768 -1.4853
 4681SOL     OW31652  13.158   1.237   0.133 -0.2586  0.4492 -0.0338
 4681SOL    HW131653  13.106   1.207   0.207 -0.8456  0.6164 -0.3687
 4681SOL    HW231654  13.212   1.161   0.109  1.0907  0.8707  1.5265
 4682SOL     OW31655   9.671   3.081  12.222 -0.4814  0.3026 -0.5747
 4682SOL    HW131656   9.724   3.037  12.289 -1.3012  1.7135  1.0790
 4682SOL    HW231657   9.670   3.019  12.149  1.1260 -0.9569  0.3777
 4683SOL     OW31658   9.502   4.401   7.848 -0.6323  0.1007  0.6425
 4683SOL    HW131659   9.411   4.431   7.856 -0.7751  0.0072 -0.4533
 4683SOL    HW231660   9.499   4.308   7.871 -1.0472 -0.1992 -0.5458
 4684SOL     OW31661   3.106   0.461   0.814  0.6136 -0.0813 -0.4475
 4684SOL    HW131662   3.169   0.399   0.848  1.1249  0.5370 -0.2486
 4684SOL    HW231663   3.023   0.414   0.814  1.2774 -1.3512 -1.9518
 4685SOL     OW31664   9.938   9.760   2.872  0.1659  0.2545  0.1939
 4685SOL    HW131665   9.961   9.670   2.850  0.6203  0.5963 -0.8076
 4685SOL    HW231666  10.022   9.805   2.881  0.0107  1.2735 -2.4430
 4686SOL     OW31667  12.841   2.755  13.576 -0.1595  0.0319  0.6044
 4686SOL    HW131668  12.790   2.759  13.495 -0.5341  0.9192  0.8645
 4686SOL    HW231669  12.814   2.833  13.625  1.2077  0.3625  0.8955
 4687SOL     OW31670   5.086   3.346  11.883  0.0536 -0.0490 -0.0976
 4687SOL    HW131671   5.056   3.304  11.803 -1.3135  0.3729  0.1683
 4687SOL    HW231672   5.078   3.278  11.950  0.1873 -0.0857 -0.1180
 4688SOL     OW31673  10.019   0.152  11.930 -0.1798 -0.0932  0.3990
 4688SOL    HW131674  10.098   0.206  11.932  0.0570 -0.3765 -0.8352
 4688SOL    HW231675   9.948   0.213  11.913  0.1454 -0.1920 -1.5165
 4689SOL     OW31676   6.937   8.614   7.745  0.0401  0.3956  0.1906
 4689SOL    HW131677   6.900   8.552   7.807  0.5545 -1.2975 -1.1072
 4689SOL    HW231678   6.862   8.648   7.696 -0.0827 -1.3336 -0.9233
 4690SOL     OW31679   7.026  12.142   3.472 -0.1547  0.2208  0.0427
 4690SOL    HW131680   7.065  12.170   3.389  0.6378 -0.0064  0.3223
 4690SOL    HW231681   7.102  12.124   3.528 -0.5906  3.3276  1.8545
 4691SOL     OW31682   2.129  11.922  13.280  0.1673 -0.4556  0.1328
 4691SOL    HW131683   2.039  11.950  13.297 -0.4053 -0.8884 -1.9555
 4691SOL    HW231684   2.162  11.982  13.214  0.9347 -1.1502 -0.1412
 4692SOL     OW31685   2.055   5.639   9.497 -0.0122 -0.1455 -0.3992
 4692SOL    HW131686   2.037   5.717   9.445 -0.5678  1.2098  1.6808
 4692SOL    HW231687   2.100   5.672   9.575 -0.8443 -1.8065  0.8491
 4693SOL     OW31688   6.743  10.860   5.930  0.4087  0.5180  0.6339
 4693SOL    HW131689   6.776  10.905   6.008  2.1003 -1.2621  1.0286
 4693SOL    HW231690   6.771  10.914   5.857  0.9470  0.9588  1.1608
 4694SOL     OW31691   6.280   9.163  13.339  0.5002 -0.0993 -1.0701
 4694SOL    HW131692   6.362   9.207  13.360  0.5755 -0.3056 -0.9238
 4694SOL    HW231693   6.219   9.233  13.319  0.5817  0.0760 -0.7121
 4695SOL     OW31694   2.541   6.258  11.915 -0.6022 -0.3629 -0.1206
 4695SOL    HW131695   2.616   6.255  11.974 -0.8553 -0.5940  0.1933
 4695SOL    HW231696   2.564   6.326  11.851 -1.2107  1.4438  1.4744
 4696SOL     OW31697  12.333   9.798   0.821 -0.1396 -0.2229 -0.1884
 4696SOL    HW131698  12.389   9.852   0.765 -0.6408  1.6382  0.9823
 4696SOL    HW231699  12.250   9.794   0.775 -0.6170  1.4749  0.4276
 4697SOL     OW31700   0.998   6.220  10.979  0.3412  0.1046 -0.0349
 4697SOL    HW131701   1.007   6.251  10.888 -0.7841  1.7924  0.3840
 4697SOL    HW231702   1.051   6.140  10.982  1.2318  0.5613 -1.9018
 4698SOL     OW31703   2.003   6.215   2.965 -0.0530  0.6172 -0.2156
 4698SOL    HW131704   2.022   6.134   3.012 -0.3287  1.1744  0.8659
 4698SOL    HW231705   2.085   6.264   2.967 -0.3962  1.1790  0.7855
 4699SOL     OW31706  11.883   5.901   4.312 -0.7176  0.7798  0.1605
 4699SOL    HW131707  11.794   5.872   4.294 -1.0577  2.6732 -1.4631
 4699SOL    HW231708  11.907   5.855   4.393 -2.2391 -1.6318 -0.6428
 4700SOL     OW31709   1.143  11.471   4.108  0.0036  0.4588  0.1639
 4700SOL    HW131710   1.218  11.479   4.167  1.3675 -2.2470 -1.0217
 4700SOL    HW231711   1.070  11.449   4.164  0.5674  0.9442  1.1197
 4701SOL     OW31712  12.474   6.704  10.285 -0.3645  0.4303 -0.2127
 4701SOL    HW131713  12.518   6.619  10.288  0.4838  0.8913  0.8184
 4701SOL    HW231714  12.513   6.749  10.211  0.3277  0.5252  0.2060
 4702SOL     OW31715  12.212  10.286  14.067  0.2160 -0.0631  0.4803
 4702SOL    HW131716  12.116  10.280  14.067  0.1426  0.7486 -0.7144
 4702SOL    HW231717  12.241  10.204  14.027  0.0966 -0.8887  2.0251
 4703SOL     OW31718   5.998   4.885  12.322  0.6480  1.1171 -0.1205
 4703SOL    HW131719   5.903   4.885  12.309  0.5804  2.2157  0.2786
 4703SOL    HW231720   6.034   4.877  12.234  0.1837  0.7147 -0.2764
 4704SOL     OW31721  12.158   0.177   6.441 -0.0514 -0.2199 -0.4623
 4704SOL    HW131722  12.076   0.145   6.402  0.1663 -2.0457  0.4560
 4704SOL    HW231723  12.197   0.232   6.374 -1.9846  0.6465 -0.9557
 4705SOL     OW31724  12.459  12.897   5.774 -0.3561 -0.1253 -0.3993
 4705SOL    HW131725  12.466  12.872   5.682 -0.0758 -1.0047 -0.1470
 4705SOL    HW231726  12.371  12.868   5.799 -1.2569  1.9654 -0.9144
 4706SOL     OW31727   1.368  10.993  10.802  0.2907 -0.2959  0.0728
 4706SOL    HW131728   1.309  11.051  10.851  0.3902 -0.8242  0.8408
 4706SOL    HW231729   1.313  10.920  10.776  0.9428 -1.7536  2.4411
 4707SOL     OW31730  10.869  13.666   3.135  0.2164 -0.5270 -0.3686
 4707SOL    HW131731  10.918  13.634   3.059  0.7230 -0.6263 -0.0034
 4707SOL    HW231732  10.910  13.623   3.210  0.9042  0.9493  0.1399
 4708SOL     OW31733  13.892   9.829   0.694 -0.1515 -0.5515 -0.0633
 4708SOL    HW131734  13.805   9.828   0.655 -0.3021 -0.4887  0.2703
 4708SOL    HW231735  13.949   9.862   0.624 -0.6548  1.0073  0.2435
 4709SOL     OW31736   8.941   5.349   5.236  0.2418  0.4148 -0.4517
 4709SOL    HW131737   8.969   5.370   5.325 -1.6149  1.5674 -0.0976
 4709SOL    HW231738   8.902   5.429   5.203 -0.4125 -0.4124 -1.7818
 4710SOL     OW31739   9.646   0.007   5.828  0.2809  0.0134 -0.2116
 4710SOL    HW131740   9.596   0.060   5.891  0.5727 -0.5133  0.4670
 4710SOL    HW231741   9.592  -0.071   5.815 -0.0210  0.3411 -1.0117
 4711SOL     OW31742   7.225   9.678   4.945 -0.4592  0.2580 -0.0900
 4711SOL    HW131743   7.224   9.770   4.974  1.9182 -0.0362  1.2171
 4711SOL    HW231744   7.290   9.676   4.875 -0.1285 -0.4926  0.2308
 4712SOL     OW31745   6.303   5.203   1.567  0.4215 -0.0046  0.0134
 4712SOL    HW131746   6.355   5.202   1.487 -0.3106  0.9464 -0.4866
 4712SOL    HW231747   6.222   5.248   1.543 -0.6329 -1.4051  0.7864
 4713SOL     OW31748   6.480  11.291   7.413  0.0820 -0.5350  0.0545
 4713SOL    HW131749   6.553  11.229   7.424 -0.4172 -0.8991  1.5504
 4713SOL    HW231750   6.447  11.304   7.501 -1.1846  0.2288 -0.5145
 4714SOL     OW31751   4.829   9.545   3.441 -0.2036 -0.5244  0.3371
 4714SOL    HW131752   4.782   9.520   3.361 -1.2387  0.7450  0.5199
 4714SOL    HW231753   4.762   9.543   3.509  0.6896 -1.6675  1.2113
 4715SOL     OW31754   1.650   0.227   9.544  0.3996 -0.0451  0.7094
 4715SOL    HW131755   1.588   0.244   9.473 -2.4865 -0.6057  2.8899
 4715SOL    HW231756   1.668   0.133   9.537  1.3831  0.1788 -0.1283
 4716SOL     OW31757  10.939  12.570   9.239  0.3062  0.0545 -0.0936
 4716SOL    HW131758  10.853  12.559   9.279  0.5276 -0.1787  0.3288
 4716SOL    HW231759  10.933  12.526   9.154  0.5355 -1.5434  0.6768
 4717SOL     OW31760   6.212   3.973  13.391  0.2966  0.1980 -0.4287
 4717SOL    HW131761   6.149   3.946  13.458 -0.1508  1.7692 -0.1821
 4717SOL    HW231762   6.221   4.067  13.403  1.5723  0.2287 -1.4397
 4718SOL     OW31763   7.796  12.233  11.975 -0.3619 -0.6734 -0.0386
 4718SOL    HW131764   7.764  12.291  12.044 -1.4024 -0.4520 -0.6734
 4718SOL    HW231765   7.764  12.146  11.999  2.0222 -1.2277  1.4280
 4719SOL     OW31766   6.604   0.867   9.055  0.0120 -0.1390  0.1466
 4719SOL    HW131767   6.563   0.906   8.978  1.2512  1.2874  0.1617
 4719SOL    HW231768   6.698   0.880   9.042  0.2595  0.0538  1.8349
 4720SOL     OW31769   9.061   1.259  12.498  0.5280 -0.0895  0.1426
 4720SOL    HW131770   9.007   1.336  12.517 -1.3822 -1.1933 -0.5174
 4720SOL    HW231771   9.091   1.273  12.408  0.7719  0.2127  0.2701
 4721SOL     OW31772   2.543   9.824  10.071 -0.2118 -0.0389  0.1119
 4721SOL    HW131773   2.560   9.772   9.992 -1.2758  1.0531 -0.8628
 4721SOL    HW231774   2.454   9.802  10.096  0.1023 -0.3436  1.0177
 4722SOL     OW31775   3.513   2.235  12.833  0.1632  0.0678  0.2144
 4722SOL    HW131776   3.436   2.199  12.790  0.5601 -0.6767  0.1134
 4722SOL    HW231777   3.478   2.298  12.896 -0.6565 -1.3753  1.2794
 4723SOL     OW31778   5.995  10.125   6.370  0.3034 -0.0637 -0.2828
 4723SOL    HW131779   5.974  10.217   6.359  1.1389  0.1355 -0.2646
 4723SOL    HW231780   6.019  10.117   6.463 -1.0534 -0.5736  0.0500
 4724SOL     OW31781   8.988  12.054  11.567 -0.1087 -0.1054 -0.0957
 4724SOL    HW131782   9.060  12.055  11.504 -0.8895 -0.1230 -1.0181
 4724SOL    HW231783   9.012  11.987  11.631  1.5927  1.2155  0.7318
 4725SOL     OW31784   3.824   3.391  12.957  0.3922  0.0802 -0.1877
 4725SOL    HW131785   3.795   3.481  12.941  2.4678  1.1115  1.3274
 4725SOL    HW231786   3.869   3.367  12.876  1.1155  1.0068 -0.0880
 4726SOL     OW31787  12.424   7.413  10.224  0.0313 -0.3268  0.0255
 4726SOL    HW131788  12.336   7.451  10.230 -0.0339 -0.1124 -1.6677
 4726SOL    HW231789  12.483   7.481  10.256 -0.3363 -0.0296  0.0736
 4727SOL     OW31790   1.292   8.609   2.776 -0.1133 -0.2245 -0.0801
 4727SOL    HW131791   1.377   8.598   2.735 -0.6675 -0.3055 -1.2378
 4727SOL    HW231792   1.296   8.552   2.854 -0.0436 -2.3820 -1.5678
 4728SOL     OW31793   6.995   7.894   2.072 -0.0540 -0.3178 -0.3833
 4728SOL    HW131794   6.984   7.980   2.032  1.3452 -0.3763 -0.9378
 4728SOL    HW231795   7.023   7.838   2.000 -0.3163 -1.1008  0.1104
 4729SOL     OW31796  10.704  12.718   3.404  0.9498  0.3853  0.6783
 4729SOL    HW131797  10.775  12.671   3.363  0.7050  0.8847 -0.3487
 4729SOL    HW231798  10.655  12.652   3.453 -0.0029 -0.6538 -1.5661
 4730SOL     OW31799   1.996   1.548   5.192 -0.1857 -0.1137  0.3073
 4730SOL    HW131800   1.991   1.553   5.288  0.1240 -0.7048  0.3556
 4730SOL    HW231801   1.914   1.586   5.162 -0.2383  0.1773  0.8046
 4731SOL     OW31802   1.703   0.261   7.915 -0.1960  0.0614 -0.4345
 4731SOL    HW131803   1.783   0.269   7.863  0.1585  1.7538  0.3216
 4731SOL    HW231804   1.700   0.340   7.968 -1.7039 -0.5838  0.5218
 4732SOL     OW31805  13.852  11.809   8.094  0.2176 -0.6379 -0.5481
 4732SOL    HW131806  13.806  11.788   8.012 -0.5815 -0.9759 -0.0190
 4732SOL    HW231807  13.945  11.814   8.068 -0.1152  0.2053 -1.6518
 4733SOL     OW31808   3.544   8.668  11.074 -0.3013 -0.2102 -0.0135
 4733SOL    HW131809   3.586   8.605  11.016  1.9374  0.1524  1.1034
 4733SOL    HW231810   3.451   8.643  11.073 -0.1057 -1.0867 -2.5558
 4734SOL     OW31811  13.204  14.000  13.108 -0.1225  0.2673  0.6244
 4734SOL    HW131812  13.217  13.966  13.020 -2.5609 -0.2533  0.3740
 4734SOL    HW231813  13.130  14.060  13.100  1.2931  2.2925  1.8855
 4735SOL     OW31814  11.053  11.908   8.472 -0.2236  0.4253 -0.2582
 4735SOL    HW131815  10.972  11.958   8.459 -0.4959  0.3358  0.9372
 4735SOL    HW231816  11.121  11.961   8.432 -0.6261  1.3687  0.2841
 4736SOL     OW31817   8.107   3.096   6.592 -0.1966 -0.4463 -0.2169
 4736SOL    HW131818   8.065   3.175   6.559  0.2484 -0.1409 -0.0524
 4736SOL    HW231819   8.036   3.046   6.633 -0.6453 -0.5543 -1.1122
 4737SOL     OW31820  13.911   6.203   6.468  0.1243  0.1294  0.3447
 4737SOL    HW131821  13.938   6.263   6.398  0.0583  1.0659  1.0947
 4737SOL    HW231822  13.816   6.212   6.472  0.0699 -0.3601  0.1725
 4738SOL     OW31823   2.970   9.820   8.410 -0.1895  0.3887 -0.0497
 4738SOL    HW131824   2.957   9.737   8.456  0.6715  0.5682  0.5455
 4738SOL    HW231825   3.008   9.795   8.326 -3.6729 -0.1018 -1.6186
 4739SOL     OW31826   8.958   0.826   2.831  0.6006 -0.4780 -0.7272
 4739SOL    HW131827   8.901   0.749   2.836  0.3700 -0.3128 -0.8026
 4739SOL    HW231828   8.972   0.851   2.923  1.5260 -1.2293 -0.6488
 4740SOL     OW31829  10.452   1.028  13.150 -0.3734 -0.3839  0.4448
 4740SOL    HW131830  10.413   0.949  13.189 -0.0638 -0.2520  1.0305
 4740SOL    HW231831  10.506   1.065  13.220 -0.9494  0.6571  0.3497
 4741SOL     OW31832  11.791  13.663  10.133 -0.5774 -0.6435 -0.2327
 4741SOL    HW131833  11.818  13.755  10.133 -0.0504 -0.7706  1.5661
 4741SOL    HW231834  11.758  13.648  10.044  0.6582  0.8820 -0.9939
 4742SOL     OW31835   2.535  13.533   1.460  0.0001 -0.3675  0.0074
 4742SOL    HW131836   2.513  13.478   1.535  0.3969 -0.3662  0.1250
 4742SOL    HW231837   2.462  13.519   1.399 -0.5453 -0.0188  0.5719
 4743SOL     OW31838  12.823   7.907   1.298  0.2168  0.0886  0.3925
 4743SOL    HW131839  12.858   7.905   1.387  0.9546  0.3288  0.1204
 4743SOL    HW231840  12.785   7.820   1.285 -0.3239  0.2084  1.0978
 4744SOL     OW31841   7.895   3.729  10.595 -0.3893  0.3416  0.1317
 4744SOL    HW131842   7.799   3.727  10.601 -0.3107 -1.4880  1.8249
 4744SOL    HW231843   7.923   3.787  10.665 -0.2530  0.2898  0.1213
 4745SOL     OW31844   5.977   6.253  13.944 -0.0879 -0.1214  0.3321
 4745SOL    HW131845   6.036   6.271  14.017 -0.6097 -0.9996  0.9957
 4745SOL    HW231846   5.902   6.311  13.958 -0.2464 -0.3835  0.5648
 4746SOL     OW31847  12.147   8.404  11.682  0.3938 -0.3351 -0.4385
 4746SOL    HW131848  12.238   8.406  11.710 -0.2427  0.0128  1.7805
 4746SOL    HW231849  12.114   8.491  11.701 -0.5881 -0.6792 -0.5151
 4747SOL     OW31850  13.286  12.296   4.559 -0.3834  0.2833  0.1587
 4747SOL    HW131851  13.327  12.287   4.473 -0.8560 -0.4383  0.0001
 4747SOL    HW231852  13.196  12.322   4.540 -0.6577 -0.4661  0.4040
 4748SOL     OW31853   2.634   5.661   4.428  0.1654 -0.2332 -0.1835
 4748SOL    HW131854   2.652   5.738   4.481  2.2105  1.0629 -2.5314
 4748SOL    HW231855   2.717   5.612   4.430 -0.0459 -0.6556 -1.3499
 4749SOL     OW31856   2.556   0.754   6.995  0.4226  0.2136 -0.1317
 4749SOL    HW131857   2.487   0.730   7.058  1.1350  2.0756  1.4682
 4749SOL    HW231858   2.637   0.724   7.036  0.7611 -0.2434 -1.1001
 4750SOL     OW31859   6.367   3.588   4.771 -0.2587  0.1326 -0.2271
 4750SOL    HW131860   6.419   3.660   4.807  0.8388  0.3002 -2.0200
 4750SOL    HW231861   6.310   3.629   4.707 -2.6106 -0.0807  1.6091
 4751SOL     OW31862   2.280   6.311   7.710 -0.5599 -0.1435  1.0226
 4751SOL    HW131863   2.368   6.290   7.741  0.0709 -0.9199 -1.1316
 4751SOL    HW231864   2.284   6.301   7.615 -2.4253  1.9406  0.6273
 4752SOL     OW31865   7.578   1.885   2.485 -0.3125 -0.1882  0.5539
 4752SOL    HW131866   7.630   1.858   2.409 -0.0326  2.0308 -0.1269
 4752SOL    HW231867   7.516   1.813   2.499  1.2086 -1.7256 -0.2467
 4753SOL     OW31868   7.992  13.569   6.882  0.1002  0.2533 -0.1531
 4753SOL    HW131869   7.971  13.606   6.968 -2.4468 -2.2957  0.4352
 4753SOL    HW231870   7.927  13.606   6.823  0.9654  0.8780 -0.7543
 4754SOL     OW31871   8.022  13.521   4.361 -0.0169 -0.3061 -0.3332
 4754SOL    HW131872   7.955  13.455   4.379 -1.2860  0.6247 -1.4148
 4754SOL    HW231873   8.051  13.502   4.272  0.4426 -0.1102 -0.2258
 4755SOL     OW31874   6.532  11.565   9.470  0.3508 -0.1297  0.3650
 4755SOL    HW131875   6.437  11.568   9.478  0.1671 -1.3942 -0.8425
 4755SOL    HW231876   6.553  11.635   9.408  0.2356  0.3304  0.8466
 4756SOL     OW31877   8.131   7.620   8.377 -0.1749 -0.1811 -0.0591
 4756SOL    HW131878   8.142   7.528   8.354 -1.1654  0.1035 -1.9211
 4756SOL    HW231879   8.052   7.623   8.431  0.1013 -0.4657  0.3622
 4757SOL     OW31880  13.109   7.859   7.362  0.1062 -0.2083  0.3930
 4757SOL    HW131881  13.144   7.813   7.286  0.5909  1.8132 -0.6902
 4757SOL    HW231882  13.186   7.901   7.402 -0.5543  1.4929 -0.0197
 4758SOL     OW31883   5.722   9.466  12.019  0.0740 -0.0754  0.0050
 4758SOL    HW131884   5.779   9.474  12.096 -0.0331  0.5127  0.0266
 4758SOL    HW231885   5.754   9.388  11.973  0.7613  0.1371  0.1248
 4759SOL     OW31886  13.511  10.136  10.360  0.5583 -0.3955  0.2959
 4759SOL    HW131887  13.498  10.120  10.266  1.3278 -1.8677  0.3942
 4759SOL    HW231888  13.606  10.134  10.371  0.5375  1.1771  0.9027
 4760SOL     OW31889   1.277   4.020  12.800  0.2290  0.2206 -0.1098
 4760SOL    HW131890   1.273   3.967  12.879 -1.7764  1.8532  0.9791
 4760SOL    HW231891   1.337   3.972  12.742  1.3375 -1.3023  2.1469
 4761SOL     OW31892  13.797  10.631  11.520  0.4573 -0.0965 -0.2077
 4761SOL    HW131893  13.771  10.723  11.524  0.8936  0.1470 -1.8900
 4761SOL    HW231894  13.889  10.631  11.546  0.1148 -0.2589  1.0425
 4762SOL     OW31895   3.193   2.870   1.484 -0.1464  0.3653 -0.0058
 4762SOL    HW131896   3.164   2.897   1.397  1.3696 -1.0973 -1.0343
 4762SOL    HW231897   3.289   2.880   1.481 -0.1131  0.9729  1.7616
 4763SOL     OW31898   9.362   5.320   3.732 -0.0036 -0.3508 -0.7799
 4763SOL    HW131899   9.270   5.326   3.757 -0.3981  0.3467 -2.3029
 4763SOL    HW231900   9.393   5.410   3.726  1.0672 -0.5892  0.6366
 4764SOL     OW31901   8.393   9.723   3.047  0.0739  0.3896 -0.3112
 4764SOL    HW131902   8.311   9.674   3.044 -0.3628  1.1385 -1.5837
 4764SOL    HW231903   8.457   9.666   3.003 -0.0484  0.2984 -0.3715
 4765SOL     OW31904   4.967   9.442   4.898 -0.0486 -0.2693 -0.1021
 4765SOL    HW131905   4.890   9.479   4.856 -0.7693 -0.3643  1.0862
 4765SOL    HW231906   4.932   9.380   4.962  1.0272 -0.5385  0.2500
 4766SOL     OW31907   1.482  12.602   8.544  0.3017 -0.2501  0.0722
 4766SOL    HW131908   1.497  12.696   8.544 -0.5761 -0.0572  1.7290
 4766SOL    HW231909   1.402  12.590   8.493  0.5111 -0.1219 -0.2873
 4767SOL     OW31910   3.758  10.916   5.368  0.0507  0.6128  0.5395
 4767SOL    HW131911   3.758  10.939   5.275 -1.0499  2.8002  1.0056
 4767SOL    HW231912   3.782  10.824   5.371 -0.5671  0.3202 -1.9503
 4768SOL     OW31913   8.585  12.969   2.247  0.2173 -0.3956 -0.4568
 4768SOL    HW131914   8.565  12.936   2.334 -0.7167 -0.6025 -0.7412
 4768SOL    HW231915   8.500  12.991   2.209  0.8078  3.1299 -0.0241
 4769SOL     OW31916   1.678   9.507  12.014  0.0388  0.0454  0.2582
 4769SOL    HW131917   1.681   9.449  12.090  0.9643 -1.0165 -0.5639
 4769SOL    HW231918   1.745   9.573  12.031 -0.8656  0.7695  1.0959
 4770SOL     OW31919   2.281   8.418   3.850  0.1033 -0.2445 -0.2821
 4770SOL    HW131920   2.329   8.361   3.910 -1.3256 -4.1875 -2.5180
 4770SOL    HW231921   2.313   8.395   3.763 -1.4273  1.5514 -1.4077
 4771SOL     OW31922   6.083   8.304   3.389  0.1382 -0.1725  0.0485
 4771SOL    HW131923   6.108   8.222   3.346  3.0815 -0.6831  2.4497
 4771SOL    HW231924   5.989   8.295   3.405  0.3540 -3.0832  0.2154
 4772SOL     OW31925  13.984   8.570   5.571  0.1264  0.2017 -0.1643
 4772SOL    HW131926  14.050   8.607   5.512  1.5245  0.0230  1.2324
 4772SOL    HW231927  14.003   8.609   5.656 -1.0619 -0.4939  0.4490
 4773SOL     OW31928   8.190  10.840   5.750 -0.4801 -0.6303  0.0877
 4773SOL    HW131929   8.137  10.781   5.698 -0.1537 -0.5104 -0.3863
 4773SOL    HW231930   8.266  10.788   5.776 -0.0682 -0.3611 -0.5393
 4774SOL     OW31931   1.978  11.858   3.132  0.0789  0.4092  0.5678
 4774SOL    HW131932   2.037  11.840   3.206  0.6887  1.9635  0.5039
 4774SOL    HW231933   1.932  11.776   3.117  2.4675 -0.9782  0.4085
 4775SOL     OW31934   9.921   5.346  10.344 -0.7106 -0.1848  0.4026
 4775SOL    HW131935  10.011   5.371  10.367 -0.1474 -1.4922 -0.2692
 4775SOL    HW231936   9.866   5.408  10.392  0.5510  0.8036  0.6299
 4776SOL     OW31937  10.663   3.738   1.274 -0.4478  0.1175  0.6763
 4776SOL    HW131938  10.675   3.748   1.368 -0.5344 -0.3496  0.7393
 4776SOL    HW231939  10.639   3.646   1.262  0.0649  0.0425  0.1477
 4777SOL     OW31940  12.037  13.501   5.836  0.3477 -0.8107  0.0310
 4777SOL    HW131941  12.090  13.497   5.757 -0.6348  1.0936 -0.7930
 4777SOL    HW231942  12.052  13.417   5.879 -0.0428 -2.4311 -2.7569
 4778SOL     OW31943   6.976   0.084  14.028 -0.1522 -0.3054 -0.2941
 4778SOL    HW131944   6.972   0.097  13.933 -0.9922  0.9004 -0.1195
 4778SOL    HW231945   7.066   0.055  14.044  0.1679 -0.0004 -1.4060
 4779SOL     OW31946   1.970   3.948   0.711  0.2334  0.5161  0.2031
 4779SOL    HW131947   2.005   3.861   0.731  0.7196  0.6197 -0.1718
 4779SOL    HW231948   1.885   3.931   0.670 -0.1920  0.2608  1.1711
 4780SOL     OW31949   7.241   6.642   2.492 -0.2844  0.0098 -0.6440
 4780SOL    HW131950   7.193   6.581   2.437 -0.0007  0.1983 -1.1050
 4780SOL    HW231951   7.280   6.705   2.431  2.9469 -1.7533 -0.6170
 4781SOL     OW31952  13.378   8.345   6.859  0.1578 -0.4322  0.0175
 4781SOL    HW131953  13.338   8.393   6.787 -0.9391 -0.2057  0.7481
 4781SOL    HW231954  13.437   8.283   6.816  0.5947  0.6492 -0.9948
 4782SOL     OW31955   6.292  12.740   9.174 -0.1541  0.5096  0.0861
 4782SOL    HW131956   6.383  12.738   9.203 -0.2354  0.8743  0.3716
 4782SOL    HW231957   6.295  12.772   9.084  0.1854 -1.4825 -0.6569
 4783SOL     OW31958   0.433   6.730   6.287 -0.2843 -0.1594  0.3020
 4783SOL    HW131959   0.500   6.682   6.335  0.7703  2.6113  1.8419
 4783SOL    HW231960   0.351   6.704   6.328  0.0627 -1.7722  0.0254
 4784SOL     OW31961   3.366   3.996  11.282 -0.4087  0.5574  0.1265
 4784SOL    HW131962   3.337   3.908  11.258  0.2407  0.3676  0.0190
 4784SOL    HW231963   3.421   3.983  11.359  2.9639  0.3299 -2.0873
 4785SOL     OW31964   4.368   0.018  12.437 -0.1574 -0.6350  0.1022
 4785SOL    HW131965   4.383  -0.044  12.366  0.5246  0.3139 -0.6195
 4785SOL    HW231966   4.343   0.100  12.393  2.0935  0.5092  0.7848
 4786SOL     OW31967  11.963  10.106   9.138 -0.4962 -0.2415  0.5428
 4786SOL    HW131968  11.873  10.094   9.109  0.0140 -0.5400 -1.0161
 4786SOL    HW231969  11.978  10.201   9.131  0.2405 -0.4751 -2.3228
 4787SOL     OW31970   9.307  11.442   0.359 -0.0427  0.0193  0.5408
 4787SOL    HW131971   9.281  11.441   0.267  1.2314  2.6190  0.0783
 4787SOL    HW231972   9.324  11.350   0.379 -0.6093 -0.6558 -1.7411
 4788SOL     OW31973   7.766   2.979   3.980 -0.1914 -0.1484  0.3062
 4788SOL    HW131974   7.774   2.984   4.075 -0.6631 -0.9495  0.3950
 4788SOL    HW231975   7.719   2.897   3.964  2.7453 -1.7658 -0.7737
 4789SOL     OW31976  11.786  10.007   6.730  0.4926 -0.4916  0.2284
 4789SOL    HW131977  11.806  10.045   6.816 -3.7393  1.3121  0.6587
 4789SOL    HW231978  11.749   9.921   6.750  1.9534 -1.2345 -0.0960
 4790SOL     OW31979  12.212  13.371   8.759 -0.2681 -0.2892  0.2530
 4790SOL    HW131980  12.264  13.406   8.832  0.4157 -0.9309  0.0874
 4790SOL    HW231981  12.149  13.313   8.801 -1.0546  0.6917  0.4802
 4791SOL     OW31982   6.083   9.158  10.815  0.3641 -0.2503  0.0715
 4791SOL    HW131983   6.098   9.123  10.727 -1.3522 -0.1648 -0.2766
 4791SOL    HW231984   5.989   9.173  10.820  0.5028  0.2958  1.7323
 4792SOL     OW31985  11.558   8.529   5.173 -0.5495 -0.3904 -0.3454
 4792SOL    HW131986  11.494   8.501   5.239 -0.9673 -1.1516 -1.0579
 4792SOL    HW231987  11.511   8.593   5.120 -1.0264 -1.5876 -1.4044
 4793SOL     OW31988   8.449   1.576   2.018 -0.1076  0.0811  0.5630
 4793SOL    HW131989   8.439   1.501   1.960 -1.5499  0.2533  0.5628
 4793SOL    HW231990   8.371   1.575   2.073  0.4753  0.8417  1.4420
 4794SOL     OW31991   2.041  11.140   6.533 -0.6877  0.6138  0.5878
 4794SOL    HW131992   2.006  11.143   6.444 -0.3638 -0.1028  0.4327
 4794SOL    HW231993   2.116  11.080   6.527  1.5674  3.2052  0.5487
 4795SOL     OW31994  12.961   9.474   7.444 -0.0177  0.0105 -0.4538
 4795SOL    HW131995  12.912   9.555   7.453 -0.8894 -0.5597  0.0303
 4795SOL    HW231996  13.039   9.499   7.394 -0.1690  1.1781 -0.1383
 4796SOL     OW31997  12.599   7.446  11.002 -0.0569 -0.6490 -0.2559
 4796SOL    HW131998  12.507   7.456  10.978  0.0377 -0.6166 -0.6042
 4796SOL    HW231999  12.625   7.362  10.966 -0.1475 -0.9937  0.4748
 4797SOL     OW32000   3.682   2.485   9.756 -0.0132 -0.1276  0.0738
 4797SOL    HW132001   3.742   2.447   9.821 -1.0333 -0.6427  0.7492
 4797SOL    HW232002   3.596   2.446   9.777 -0.7182  1.0963 -0.4430
 4798SOL     OW32003   1.617   2.465  12.701  0.3430  0.0749  0.2903
 4798SOL    HW132004   1.609   2.445  12.607  0.6983  1.3958 -0.0489
 4798SOL    HW232005   1.562   2.400  12.744 -1.2683  0.5302 -0.9594
 4799SOL     OW32006   6.770   4.508   2.317 -0.0113  0.2952 -0.4517
 4799SOL    HW132007   6.684   4.545   2.297  1.4926  3.0232 -2.6281
 4799SOL    HW232008   6.802   4.476   2.233  1.8105  1.0154 -0.0693
 4800SOL     OW32009  13.833  10.200  11.376 -0.8917 -0.9391  0.0778
 4800SOL    HW132010  13.854  10.236  11.290 -2.1851 -0.3651 -0.0211
 4800SOL    HW232011  13.795  10.114  11.357  1.1717 -1.9626  0.2555
 4801SOL     OW32012   3.852   9.693   3.739  0.4854 -0.2123  0.2096
 4801SOL    HW132013   3.831   9.786   3.739  0.6129 -0.1828  0.2821
 4801SOL    HW232014   3.804   9.657   3.664 -0.1065 -0.2135  0.5857
 4802SOL     OW32015   1.157  12.634   2.601 -0.3259  0.2217 -0.3901
 4802SOL    HW132016   1.214  12.647   2.677 -1.3029 -2.8720  1.0873
 4802SOL    HW232017   1.196  12.560   2.554 -0.7203  0.9429 -1.9198
 4803SOL     OW32018   0.626   6.877   4.446 -0.1633 -0.0088  0.1120
 4803SOL    HW132019   0.545   6.927   4.446 -1.1910 -1.6258 -0.1196
 4803SOL    HW232020   0.646   6.862   4.538  0.3744  1.1384  0.1977
 4804SOL     OW32021   2.220   1.119  11.793 -0.3771 -0.1438 -0.6162
 4804SOL    HW132022   2.217   1.210  11.822  0.3821  0.6619 -2.8693
 4804SOL    HW232023   2.211   1.068  11.873  0.5979  1.9074  0.8769
 4805SOL     OW32024   1.429   6.502  14.078  0.3493 -0.7134 -0.5596
 4805SOL    HW132025   1.456   6.549  14.157 -0.2074 -0.0223 -0.7714
 4805SOL    HW232026   1.442   6.410  14.099  0.1639 -0.5357  0.3611
 4806SOL     OW32027   6.248  10.658  12.480  0.2381  0.0913  0.1876
 4806SOL    HW132028   6.304  10.583  12.459  0.1723 -0.0562  0.5386
 4806SOL    HW232029   6.229  10.698  12.395  0.7885  0.0828  0.0520
 4807SOL     OW32030   1.276   9.235   8.639 -0.9196 -0.1246  0.1259
 4807SOL    HW132031   1.248   9.327   8.647  2.3877  1.0240  0.1413
 4807SOL    HW232032   1.368   9.236   8.664 -0.4679 -3.2927 -0.9720
 4808SOL     OW32033   7.144   1.421  10.802  0.1772  0.0582 -0.1229
 4808SOL    HW132034   7.091   1.389  10.730  0.3963  0.0753 -0.2923
 4808SOL    HW232035   7.120   1.514  10.810  0.2609  0.0922 -0.2683
 4809SOL     OW32036   0.622   6.660  12.503 -0.1276 -0.5301 -0.0040
 4809SOL    HW132037   0.623   6.657  12.407  0.8298 -1.6154  0.0169
 4809SOL    HW232038   0.661   6.744  12.525  0.1162 -0.4941 -0.5605
 4810SOL     OW32039   3.021   9.740  12.609  0.0820 -0.1825  0.4601
 4810SOL    HW132040   2.992   9.765  12.521 -0.8410  2.0806  1.3394
 4810SOL    HW232041   3.008   9.645  12.612 -2.3094  0.0067 -1.0136
 4811SOL     OW32042   4.858   9.488   6.111 -0.4714 -0.1581 -0.1803
 4811SOL    HW132043   4.874   9.398   6.137 -0.0755 -0.0522 -0.0573
 4811SOL    HW232044   4.938   9.515   6.067 -0.2052  0.4586  0.6621
 4812SOL     OW32045  12.338   3.624   3.888 -0.5165 -0.1100  0.2417
 4812SOL    HW132046  12.362   3.582   3.971  0.5593  0.7271  0.3823
 4812SOL    HW232047  12.406   3.597   3.827 -0.8640 -0.0753 -0.1670
 4813SOL     OW32048   1.798   0.486   7.161 -0.2791 -0.5780 -0.3356
 4813SOL    HW132049   1.812   0.391   7.167 -0.1379 -0.4599  1.8848
 4813SOL    HW232050   1.719   0.502   7.212 -1.2692  0.3312 -2.0869
 4814SOL     OW32051   8.711   3.658   3.858  0.0297 -0.1231  0.1934
 4814SOL    HW132052   8.750   3.621   3.778 -1.4947 -0.4115 -0.4433
 4814SOL    HW232053   8.653   3.727   3.826  1.2795  1.4848  1.2419
 4815SOL     OW32054   4.329  13.704   0.567  0.0206 -0.2272  0.0104
 4815SOL    HW132055   4.368  13.622   0.599  0.5154 -0.0373 -0.0887
 4815SOL    HW232056   4.268  13.677   0.499  1.9365 -0.3858 -1.7636
 4816SOL     OW32057  12.469  10.633   9.259 -0.1146  0.6883  0.0121
 4816SOL    HW132058  12.508  10.684   9.330  0.0251 -0.8269  1.0755
 4816SOL    HW232059  12.375  10.644   9.270 -0.0872  1.7646 -0.6071
 4817SOL     OW32060   6.749   6.376   5.412  0.4791  0.0399 -0.0349
 4817SOL    HW132061   6.708   6.461   5.430 -0.4673 -0.4884  0.3529
 4817SOL    HW232062   6.685   6.330   5.358  1.5443  0.0458 -1.3507
 4818SOL     OW32063  12.131   1.777   3.731 -0.9837  0.6169 -0.2650
 4818SOL    HW132064  12.080   1.805   3.807 -0.2932 -0.3286  0.5756
 4818SOL    HW232065  12.174   1.857   3.701 -2.5000  1.3240 -0.6711
 4819SOL     OW32066   8.274  13.151   3.194  0.0350  0.5128 -0.3185
 4819SOL    HW132067   8.258  13.239   3.228  0.5141  0.7082 -0.5945
 4819SOL    HW232068   8.271  13.095   3.272 -2.2238  0.4812 -0.3558
 4820SOL     OW32069   9.561   2.536  10.105  0.5466  0.0597  0.2196
 4820SOL    HW132070   9.551   2.479  10.182 -0.7228  1.9547  1.5373
 4820SOL    HW232071   9.473   2.568  10.087  0.4376 -1.7220 -3.2619
 4821SOL     OW32072  11.674   3.312   6.194  0.1766  0.7805  0.1604
 4821SOL    HW132073  11.611   3.373   6.156 -0.0993  0.1504 -0.4054
 4821SOL    HW232074  11.702   3.258   6.121  1.1077  0.8148  0.4829
 4822SOL     OW32075  12.770   4.420   6.949  0.3708 -0.3945 -0.5344
 4822SOL    HW132076  12.733   4.334   6.928 -0.9276 -0.2927  1.1069
 4822SOL    HW232077  12.806   4.410   7.037 -0.9256  1.0254  0.2124
 4823SOL     OW32078   7.623   3.628   9.026 -0.0295  0.3280  0.2891
 4823SOL    HW132079   7.601   3.545   8.983  0.1291  1.5061 -2.2147
 4823SOL    HW232080   7.716   3.621   9.044  0.1896  0.3270 -0.7980
 4824SOL     OW32081   8.273   2.437  13.381  0.0242 -0.0384  0.4101
 4824SOL    HW132082   8.323   2.357  13.368  0.9103  0.4726  0.6042
 4824SOL    HW232083   8.238   2.458  13.294 -1.7274 -1.5911  0.6819
 4825SOL     OW32084   6.053   5.600   2.139 -0.4135  0.1870  0.3462
 4825SOL    HW132085   6.111   5.523   2.140 -0.2572  0.2056 -1.7375
 4825SOL    HW232086   6.104   5.668   2.095 -1.7909  0.3458 -1.1324
 4826SOL     OW32087   8.640   8.203   1.168  0.2266  0.3121 -0.1518
 4826SOL    HW132088   8.679   8.288   1.189 -0.6454  0.3461  1.5132
 4826SOL    HW232089   8.715   8.145   1.156  0.8526  0.6884  1.6133
 4827SOL     OW32090  14.050   6.553   5.912  0.4204 -0.5400 -0.4010
 4827SOL    HW132091  14.139   6.518   5.921 -0.1267 -1.9963 -0.4371
 4827SOL    HW232092  14.058   6.621   5.845  1.5567 -0.4673 -0.2119
 4828SOL     OW32093   6.182   3.338   0.159  1.0341 -0.3633 -0.1411
 4828SOL    HW132094   6.228   3.381   0.231  0.5829  0.3396 -0.2630
 4828SOL    HW232095   6.230   3.366   0.080 -1.6533  3.4447 -0.6994
 4829SOL     OW32096   2.121   9.180  12.879 -0.2950 -0.2560 -0.0448
 4829SOL    HW132097   2.208   9.218  12.893 -0.3397 -0.7287  1.9007
 4829SOL    HW232098   2.060   9.251  12.900 -0.4704  0.5845 -2.9612
 4830SOL     OW32099   3.844   6.350   3.165  0.3131  0.3032  0.4378
 4830SOL    HW132100   3.910   6.348   3.095 -0.5378  0.3473 -0.3758
 4830SOL    HW232101   3.886   6.303   3.238  1.1232  0.0472 -0.1715
 4831SOL     OW32102  10.674  13.381   3.740  0.6663 -0.1942 -0.1749
 4831SOL    HW132103  10.648  13.434   3.664  0.1289 -0.8330 -0.4515
 4831SOL    HW232104  10.761  13.347   3.717  0.3289 -0.7317 -0.7121
 4832SOL     OW32105   2.371   4.624  10.574  0.1742  0.2048 -0.3057
 4832SOL    HW132106   2.440   4.602  10.636  0.2205  1.1300 -0.0291
 4832SOL    HW232107   2.324   4.696  10.614 -1.4646 -0.9146 -0.1226
 4833SOL     OW32108  12.385  12.266  10.743 -0.3456 -0.4353  0.0295
 4833SOL    HW132109  12.317  12.244  10.805 -0.0795  0.8645  0.8181
 4833SOL    HW232110  12.340  12.312  10.672 -0.2072  1.4263  1.0782
 4834SOL     OW32111   2.796  10.671  13.641 -0.1356 -0.0193  0.1900
 4834SOL    HW132112   2.721  10.722  13.673  0.0514  0.0155  0.5745
 4834SOL    HW232113   2.775  10.581  13.667  0.2395  0.0752  0.8332
 4835SOL     OW32114   7.353  11.561   6.851 -0.4993 -0.1502  0.3882
 4835SOL    HW132115   7.402  11.483   6.827 -0.6042 -0.7796  2.1109
 4835SOL    HW232116   7.415  11.613   6.903 -0.0964  1.4438 -1.5343
 4836SOL     OW32117  12.477   1.520   8.637 -0.2279 -0.5908  0.6354
 4836SOL    HW132118  12.471   1.427   8.660  2.0481 -0.8297  0.4167
 4836SOL    HW232119  12.526   1.559   8.709  0.6071  0.0435 -0.2591
 4837SOL     OW32120   1.499   1.008   8.495 -0.1944 -0.2219  0.0191
 4837SOL    HW132121   1.471   1.031   8.407 -3.6685  1.3773  1.3487
 4837SOL    HW232122   1.510   1.092   8.540 -2.5013 -0.8848  2.0839
 4838SOL     OW32123   4.519   5.298   4.087  0.2015  1.3635  0.1303
 4838SOL    HW132124   4.593   5.306   4.148  0.8658  0.7028 -0.5541
 4838SOL    HW232125   4.524   5.376   4.032  0.7493  1.0390 -0.2863
 4839SOL     OW32126   7.538   1.684   3.181 -0.3458  0.3827  0.3360
 4839SOL    HW132127   7.551   1.765   3.132  1.9951 -0.9896 -1.5501
 4839SOL    HW232128   7.582   1.699   3.265  0.1040  1.0411 -0.0109
 4840SOL     OW32129  10.322   2.543  13.154  0.0164  0.9815 -0.1700
 4840SOL    HW132130  10.252   2.599  13.120  1.1623  1.9143 -1.0438
 4840SOL    HW232131  10.305   2.458  13.113 -1.4793  0.7704  0.8219
 4841SOL     OW32132   7.019  13.230   9.670  0.0032  0.1414  0.1261
 4841SOL    HW132133   7.045  13.201   9.582 -2.5522  1.0968 -1.0608
 4841SOL    HW232134   6.925  13.249   9.662  0.2305  2.9059  2.3431
 4842SOL     OW32135   1.809   8.482   4.109 -0.1252 -0.1175  0.6833
 4842SOL    HW132136   1.853   8.546   4.053 -0.2849  0.9037  1.6676
 4842SOL    HW232137   1.737   8.449   4.056 -0.3479  0.9197  0.3035
 4843SOL     OW32138  12.059   0.883   9.653  0.6510 -0.0455  0.2589
 4843SOL    HW132139  12.013   0.809   9.692  0.5533 -0.5141 -0.7082
 4843SOL    HW232140  11.991   0.934   9.609  0.9766 -0.4976 -0.7955
 4844SOL     OW32141   6.977  12.251   1.244 -0.2652 -0.3183 -0.6145
 4844SOL    HW132142   6.890  12.272   1.210 -0.4700 -0.9450 -0.4894
 4844SOL    HW232143   7.018  12.336   1.260 -1.2132 -0.0075  0.2742
 4845SOL     OW32144   0.206   0.127   8.569 -0.3928 -0.1610  0.7050
 4845SOL    HW132145   0.194   0.070   8.493  1.2062 -1.1132  1.1056
 4845SOL    HW232146   0.166   0.079   8.641  0.3789 -0.5035  0.9207
 4846SOL     OW32147   4.136   8.510   4.491 -0.4612 -0.3987 -0.3592
 4846SOL    HW132148   4.091   8.589   4.462  0.0853  0.2060  0.3927
 4846SOL    HW232149   4.210   8.500   4.431 -1.3256 -1.1486 -1.3272
 4847SOL     OW32150   8.737  12.333   2.726  0.4656  0.7265 -0.4697
 4847SOL    HW132151   8.665  12.272   2.737  1.4157 -0.1679  1.2365
 4847SOL    HW232152   8.813  12.278   2.708  0.6973  1.6758 -2.7356
 4848SOL     OW32153   0.144   2.990   9.677  0.0070 -0.3637 -0.2137
 4848SOL    HW132154   0.066   2.984   9.621 -0.6455 -1.5867  0.7551
 4848SOL    HW232155   0.217   2.995   9.615 -0.8036  0.3553 -1.1533
 4849SOL     OW32156  12.540   9.863  10.575 -0.0978 -0.2280  0.0727
 4849SOL    HW132157  12.597   9.940  10.572  0.2479 -0.5157 -1.3681
 4849SOL    HW232158  12.599   9.789  10.562 -0.5832 -0.6621  0.2833
 4850SOL     OW32159   3.595  10.366  13.227  0.4366 -0.4750  0.1084
 4850SOL    HW132160   3.664  10.303  13.207 -0.7057 -1.8887  0.4537
 4850SOL    HW232161   3.641  10.449  13.239  2.0639 -1.3722  0.3461
 4851SOL     OW32162   8.097  12.154   3.923 -0.3437 -0.1605 -0.0141
 4851SOL    HW132163   8.150  12.177   3.847  0.0755  0.1597  0.3756
 4851SOL    HW232164   8.086  12.059   3.918  0.1945 -0.2140 -0.1373
 4852SOL     OW32165   0.439   2.211   9.549  0.4761  0.2211  0.1358
 4852SOL    HW132166   0.524   2.168   9.537  0.6861  0.9321 -1.0455
 4852SOL    HW232167   0.414   2.240   9.461 -0.8303  0.3399  0.5261
 4853SOL     OW32168   7.641   4.409   4.075 -0.8307 -0.2226 -0.3976
 4853SOL    HW132169   7.579   4.463   4.026 -0.4791  0.1251 -0.4654
 4853SOL    HW232170   7.715   4.467   4.091 -0.5643 -0.6072 -0.2305
 4854SOL     OW32171   4.568   9.970   9.780 -0.0352 -0.1710 -0.1091
 4854SOL    HW132172   4.555   9.897   9.841 -2.3390  1.7165  1.8973
 4854SOL    HW232173   4.656  10.003   9.799  0.7007 -1.8604 -0.4551
 4855SOL     OW32174  13.746   0.898  13.258 -0.3232 -0.0800 -0.0963
 4855SOL    HW132175  13.809   0.896  13.329 -1.2978 -0.1498  0.7846
 4855SOL    HW232176  13.729   0.991  13.244 -0.1350 -0.0665 -0.2480
 4856SOL     OW32177  10.992  13.519  13.074  0.2158  0.3334 -0.3543
 4856SOL    HW132178  10.926  13.539  13.141 -1.5030  1.2509 -2.2232
 4856SOL    HW232179  10.961  13.564  12.995  3.0936  0.7959 -1.3512
 4857SOL     OW32180   3.266  13.912  11.232  0.1056 -0.3111  0.0598
 4857SOL    HW132181   3.225  13.847  11.289  1.4162 -0.8952  0.3857
 4857SOL    HW232182   3.358  13.886  11.228  0.6836  1.5462  0.2217
 4858SOL     OW32183  12.809   3.185  10.352  0.3851  0.2641  0.7056
 4858SOL    HW132184  12.821   3.183  10.447 -1.1411 -0.5585  0.9058
 4858SOL    HW232185  12.772   3.272  10.335 -1.5593 -0.4214  1.1967
 4859SOL     OW32186   9.317  12.854   0.359 -0.1814 -0.3176 -0.5220
 4859SOL    HW132187   9.308  12.896   0.444 -0.3991 -1.7263  0.1738
 4859SOL    HW232188   9.271  12.913   0.298  0.0503  0.7430  0.3033
 4860SOL     OW32189   7.514   3.197  12.299 -0.0192 -0.1590  0.1719
 4860SOL    HW132190   7.447   3.168  12.237  0.0525 -0.7531  0.3592
 4860SOL    HW232191   7.570   3.256  12.248 -0.6028  0.2350 -0.0201
 4861SOL     OW32192   7.167   4.780   3.810 -0.1049 -0.0511  0.6066
 4861SOL    HW132193   7.213   4.835   3.873  0.0294 -0.0455  0.5028
 4861SOL    HW232194   7.115   4.721   3.863  0.1526 -0.1707  0.7255
 4862SOL     OW32195  10.239   2.883  13.972  0.0413 -0.2895  0.1573
 4862SOL    HW132196  10.223   2.795  13.940 -1.6100  0.0853 -0.1573
 4862SOL    HW232197  10.279   2.871  14.058  1.3096 -1.3115 -0.5467
 4863SOL     OW32198   4.754   8.067  10.738 -0.4097 -0.4189 -0.1832
 4863SOL    HW132199   4.801   8.147  10.764 -0.9572 -0.5817  1.3931
 4863SOL    HW232200   4.681   8.099  10.685  0.5201 -0.0504 -1.3059
 4864SOL     OW32201   7.696   0.749   1.839  0.0250  0.2912  0.0645
 4864SOL    HW132202   7.745   0.817   1.885  1.3223 -0.2621 -0.4395
 4864SOL    HW232203   7.645   0.796   1.773  0.7874  0.7964 -0.1729
 4865SOL     OW32204   5.418   5.017   1.910 -0.1183  0.0184  0.2705
 4865SOL    HW132205   5.389   5.086   1.851  2.3650  0.4811 -0.5156
 4865SOL    HW232206   5.367   4.940   1.884  0.8147  0.2382 -2.4589
 4866SOL     OW32207  13.359  13.623  13.105 -0.1412  0.1390  0.2316
 4866SOL    HW132208  13.403  13.541  13.126 -0.2185  0.4016  1.5227
 4866SOL    HW232209  13.420  13.668  13.046 -0.1981 -0.9146 -0.6655
 4867SOL     OW32210   8.025   0.721   8.211  0.0503 -0.1193  0.2757
 4867SOL    HW132211   8.070   0.678   8.139  0.9140  0.0206  0.7214
 4867SOL    HW232212   8.083   0.710   8.286 -0.9077 -0.3995  0.9916
 4868SOL     OW32213   6.654   1.491   8.190 -0.1327  0.2950 -0.1968
 4868SOL    HW132214   6.740   1.488   8.232 -0.1143 -2.0577 -0.2760
 4868SOL    HW232215   6.671   1.527   8.103  1.1470 -1.7446 -0.8766
 4869SOL     OW32216   1.022   2.282  13.028 -0.1927  0.6094 -0.3641
 4869SOL    HW132217   0.995   2.190  13.031  0.0990  0.5506  0.7475
 4869SOL    HW232218   1.117   2.280  13.037 -0.1714  1.0179 -0.4734
 4870SOL     OW32219   5.228   6.688   2.385  0.1637 -0.0815 -0.5600
 4870SOL    HW132220   5.282   6.615   2.416  1.3110 -1.3138 -4.8191
 4870SOL    HW232221   5.253   6.761   2.441 -0.6375 -2.6371  3.5705
 4871SOL     OW32222   1.690   4.057   7.570 -0.6636 -0.5082  0.0002
 4871SOL    HW132223   1.595   4.064   7.558 -0.6926 -1.7829 -0.7321
 4871SOL    HW232224   1.727   4.077   7.484  0.0199  3.5407  1.0500
 4872SOL     OW32225   0.568   4.214   2.279 -0.2976  0.5279  0.2216
 4872SOL    HW132226   0.650   4.220   2.328  1.6160 -0.0294 -2.6727
 4872SOL    HW232227   0.557   4.121   2.262 -0.2754  0.7844 -1.3159
 4873SOL     OW32228  13.835   8.746   2.749  0.0526  0.2122 -0.0329
 4873SOL    HW132229  13.825   8.665   2.700  0.1899  1.1375 -1.6708
 4873SOL    HW232230  13.747   8.783   2.753 -0.0041  0.0123  0.6779
 4874SOL     OW32231   8.700   0.824   5.921  0.1870 -0.0127  0.4619
 4874SOL    HW132232   8.689   0.905   5.871  1.0050  1.2395  2.2236
 4874SOL    HW232233   8.615   0.810   5.963 -0.5518 -1.1502 -1.2974
 4875SOL     OW32234   2.043   3.448   6.347  0.6642 -0.0487  0.1647
 4875SOL    HW132235   2.026   3.496   6.428  0.6709 -2.5727  1.7844
 4875SOL    HW232236   1.959   3.447   6.302  0.7653  1.7524 -0.1216
 4876SOL     OW32237   2.258  10.154   3.090  0.3257 -0.7740  0.0755
 4876SOL    HW132238   2.264  10.135   3.183 -1.6791 -4.0564 -0.2878
 4876SOL    HW232239   2.284  10.073   3.047  0.7004  0.4824 -2.2303
 4877SOL     OW32240   0.930  12.815   2.176  0.0958 -0.2016 -0.2105
 4877SOL    HW132241   1.001  12.768   2.219 -0.5396 -0.2084  0.8621
 4877SOL    HW232242   0.898  12.755   2.109  0.9562 -0.2744 -0.5683
 4878SOL     OW32243  12.518   7.662  12.219 -0.0390  0.3985 -0.5084
 4878SOL    HW132244  12.475   7.611  12.288  1.4397 -2.8567 -1.8275
 4878SOL    HW232245  12.558   7.736  12.266 -0.2499 -0.9358  1.9159
 4879SOL     OW32246   6.150  11.308   1.153  0.3679  0.0608  0.2274
 4879SOL    HW132247   6.244  11.320   1.167  0.0388  1.4556  1.5136
 4879SOL    HW232248   6.140  11.308   1.058  1.7982 -1.4334  0.0404
 4880SOL     OW32249   9.626   1.858   8.336  0.1760  0.2345 -0.3205
 4880SOL    HW132250   9.585   1.778   8.302 -3.0643  1.0919  1.1350
 4880SOL    HW232251   9.662   1.832   8.421 -0.5449  0.1789 -0.0170
 4881SOL     OW32252  12.739   3.137   8.654  0.1605 -0.2378  0.6923
 4881SOL    HW132253  12.678   3.115   8.583 -0.4970 -0.9719  1.4720
 4881SOL    HW232254  12.762   3.228   8.637 -1.6453  0.2717  0.7303
 4882SOL     OW32255   8.810   2.638   0.574 -0.1413  0.4109 -0.3698
 4882SOL    HW132256   8.850   2.652   0.489 -0.4167  0.4247 -0.4962
 4882SOL    HW232257   8.750   2.565   0.561 -1.2073  1.2881 -0.5238
 4883SOL     OW32258   0.536  12.121  10.192  0.2912 -0.1950 -0.0262
 4883SOL    HW132259   0.562  12.182  10.123 -0.1096  0.0948  0.0806
 4883SOL    HW232260   0.599  12.137  10.262 -0.7645  1.2261  0.6370
 4884SOL     OW32261   3.415  13.985   8.319 -0.3953 -0.2559  0.1778
 4884SOL    HW132262   3.460  14.034   8.251  0.1446 -0.7335  0.1749
 4884SOL    HW232263   3.424  13.893   8.292 -0.7616 -0.4031  0.5435
 4885SOL     OW32264  13.811   7.511  13.229 -0.1575  0.0908  0.4385
 4885SOL    HW132265  13.885   7.451  13.234 -0.4097 -0.3644 -0.9552
 4885SOL    HW232266  13.834   7.573  13.160 -0.4481  0.8579  1.0084
 4886SOL     OW32267   9.163   5.119   9.312  0.2795  0.1433  0.1587
 4886SOL    HW132268   9.094   5.170   9.269  2.5999  1.2527 -2.5700
 4886SOL    HW232269   9.157   5.032   9.272 -1.2263 -0.7156  2.0391
 4887SOL     OW32270   3.861   2.381  12.294  0.5974 -0.0001  0.2516
 4887SOL    HW132271   3.952   2.372  12.264  1.5670  0.5278  2.7191
 4887SOL    HW232272   3.828   2.292  12.297  1.2254 -0.2563 -0.1917
 4888SOL     OW32273   2.569   3.039   7.018 -0.4930 -0.0252  0.2368
 4888SOL    HW132274   2.651   3.080   6.990 -0.4825 -1.7559 -2.5996
 4888SOL    HW232275   2.586   3.013   7.109  1.9108  0.1280 -0.0924
 4889SOL     OW32276  13.457   9.000   7.827  0.0450 -0.1790  0.0961
 4889SOL    HW132277  13.467   8.932   7.761 -1.5971 -0.1980 -0.1843
 4889SOL    HW232278  13.371   9.039   7.808 -0.3936 -0.0640  2.0963
 4890SOL     OW32279   8.516   0.491   0.319 -0.6900 -0.0726 -0.1406
 4890SOL    HW132280   8.492   0.521   0.407 -2.0335 -0.8031 -0.2400
 4890SOL    HW232281   8.587   0.429   0.333  0.3066  1.1096  0.2695
 4891SOL     OW32282   2.375   0.721   3.307  0.3410  0.3330 -0.0972
 4891SOL    HW132283   2.355   0.648   3.249  2.7946 -0.1270 -0.4913
 4891SOL    HW232284   2.467   0.742   3.288  0.5458  1.6571  2.0083
 4892SOL     OW32285   8.370   6.676  13.756  0.1842  0.5160  0.4141
 4892SOL    HW132286   8.285   6.714  13.733  0.8102  2.4535  1.1124
 4892SOL    HW232287   8.405   6.735  13.822  1.3405 -1.2178  1.4185
 4893SOL     OW32288   0.517   2.009   6.004  0.0632 -0.2669  0.1198
 4893SOL    HW132289   0.481   1.952   5.936  0.0547  0.1802 -0.2562
 4893SOL    HW232290   0.476   2.095   5.988 -0.8624 -0.4345  1.4194
 4894SOL     OW32291  10.416   3.340  10.534 -0.5032  0.2404  0.2178
 4894SOL    HW132292  10.433   3.420  10.484 -0.1076  0.0893  0.1072
 4894SOL    HW232293  10.426   3.270  10.470  1.3139 -0.0544  0.7846
 4895SOL     OW32294   5.722   9.330   2.490 -0.8233 -0.0474 -0.4609
 4895SOL    HW132295   5.711   9.362   2.401 -1.6427 -0.2727 -0.4477
 4895SOL    HW232296   5.717   9.409   2.545  1.0359  0.2773 -0.6822
 4896SOL     OW32297  12.751   0.011   6.426  0.1698 -0.4464  0.2858
 4896SOL    HW132298  12.682  -0.040   6.384  0.1932  0.1128 -0.4611
 4896SOL    HW232299  12.831  -0.012   6.378  0.0502  0.8649 -0.6129
 4897SOL     OW32300   4.632   7.203   1.384 -0.5249  0.1748 -0.2859
 4897SOL    HW132301   4.607   7.241   1.469 -0.8052 -0.0273 -0.2756
 4897SOL    HW232302   4.664   7.115   1.406 -0.4005  0.2012 -0.3655
 4898SOL     OW32303   5.089  10.705   7.914  0.2679 -0.4417 -0.1285
 4898SOL    HW132304   5.079  10.794   7.949 -0.6921 -1.5058  2.6167
 4898SOL    HW232305   5.051  10.709   7.827  1.1421  2.0271 -0.4957
 4899SOL     OW32306   3.983   2.198   1.743  0.2709  0.5046  0.7233
 4899SOL    HW132307   4.058   2.188   1.684 -0.4433  0.4669 -0.2181
 4899SOL    HW232308   3.908   2.206   1.684 -0.3626  1.4335  1.6221
 4900SOL     OW32309  13.097   9.643  13.777 -0.7720  0.0824 -0.3549
 4900SOL    HW132310  13.134   9.590  13.707 -1.3133 -0.9641  0.1173
 4900SOL    HW232311  13.076   9.580  13.846 -1.8183  0.8574  0.0673
 4901SOL     OW32312  10.339   2.509   3.864 -0.2371  0.3942  0.6652
 4901SOL    HW132313  10.314   2.536   3.775 -0.1385 -1.1309  0.1510
 4901SOL    HW232314  10.299   2.574   3.921 -4.0005 -0.9409 -0.1905
 4902SOL     OW32315   4.064   1.541  13.609  0.8850  0.0831  0.2092
 4902SOL    HW132316   4.095   1.530  13.699  1.5945  0.0743 -0.0354
 4902SOL    HW232317   3.985   1.486  13.604  1.5411 -0.9099  0.4626
 4903SOL     OW32318   9.128   1.890   2.440  0.0383 -0.4151  0.0569
 4903SOL    HW132319   9.206   1.855   2.395 -0.2399 -0.2107 -0.6004
 4903SOL    HW232320   9.086   1.946   2.374  0.2869  0.8878  0.9730
 4904SOL     OW32321   0.841  12.162   5.207 -0.5440 -0.4620  0.1202
 4904SOL    HW132322   0.799  12.208   5.280 -1.2540 -1.7862  0.5914
 4904SOL    HW232323   0.795  12.077   5.203 -0.4810 -0.4492 -1.8244
 4905SOL     OW32324   7.746   5.829   2.098  0.0061  0.0189  0.3409
 4905SOL    HW132325   7.788   5.785   2.024 -0.6701 -1.9907  1.0884
 4905SOL    HW232326   7.800   5.807   2.174 -0.1555  0.7765  0.6901
 4906SOL     OW32327  12.585   1.419   1.658 -0.0386 -0.7525  0.2876
 4906SOL    HW132328  12.510   1.365   1.634  0.1868 -0.8020 -0.3245
 4906SOL    HW232329  12.633   1.431   1.576 -1.3612  2.3779 -0.1713
 4907SOL     OW32330   6.821   1.952  11.154  0.1165 -0.4951 -0.4928
 4907SOL    HW132331   6.859   1.933  11.241  0.8367  1.3107 -0.3793
 4907SOL    HW232332   6.738   1.996  11.173  0.7574  0.8305 -0.6907
 4908SOL     OW32333  13.625   9.793  12.190 -0.2440 -0.3057 -0.4838
 4908SOL    HW132334  13.542   9.803  12.144 -0.6097 -1.0866 -0.0140
 4908SOL    HW232335  13.690   9.834  12.132 -1.0979  1.3581 -0.3313
 4909SOL     OW32336  11.966   1.947   3.898  0.4420 -0.1982  0.1783
 4909SOL    HW132337  12.030   1.931   3.969  0.3157  1.7115  0.7710
 4909SOL    HW232338  11.950   2.041   3.902 -1.5397 -0.4661 -0.7383
 4910SOL     OW32339   7.706  13.766  13.120 -0.1984 -0.0498 -0.2969
 4910SOL    HW132340   7.786  13.817  13.127  0.8409 -1.4681 -1.1817
 4910SOL    HW232341   7.652  13.814  13.058  0.2083  0.6313 -0.1332
 4911SOL     OW32342  11.079  13.902   7.024 -0.0952  0.8215  0.3017
 4911SOL    HW132343  11.018  13.944   6.963 -0.5979  1.1241  0.9947
 4911SOL    HW232344  11.028  13.889   7.104 -1.3202 -4.7304 -0.9450
 4912SOL     OW32345   3.061  10.544  11.269  0.4152 -0.0227  0.5896
 4912SOL    HW132346   3.012  10.626  11.257 -1.0246 -1.1602 -2.8153
 4912SOL    HW232347   3.004  10.491  11.325  0.5269  0.6464  1.3637
 4913SOL     OW32348   8.844   5.311   0.568  0.8356 -0.2360 -0.3985
 4913SOL    HW132349   8.789   5.356   0.633  0.5267  1.5322 -1.8219
 4913SOL    HW232350   8.789   5.240   0.536 -0.0543  0.5236 -0.6330
 4914SOL     OW32351   6.812  13.511   7.079 -0.0173 -0.1119  0.3581
 4914SOL    HW132352   6.729  13.542   7.114 -0.8317 -0.4864 -1.1425
 4914SOL    HW232353   6.855  13.468   7.152 -1.4203 -0.4604  1.0053
 4915SOL     OW32354   9.657   3.620  10.533  0.2081 -0.2433  0.1835
 4915SOL    HW132355   9.593   3.570  10.582  1.4497 -1.2738  0.8245
 4915SOL    HW232356   9.742   3.583  10.558  0.9772 -0.0295 -1.8526
 4916SOL     OW32357   8.341   0.418   7.144 -0.4454  0.2072 -0.3733
 4916SOL    HW132358   8.379   0.505   7.128 -1.8231  0.9635  0.2981
 4916SOL    HW232359   8.247   0.431   7.137 -0.7326 -1.0216  0.7524
 4917SOL     OW32360   9.348   2.438   1.343  0.0495 -0.0040  0.5817
 4917SOL    HW132361   9.430   2.401   1.310  0.2977 -0.2039  1.3903
 4917SOL    HW232362   9.375   2.500   1.411 -0.4437  0.4345  0.3886
 4918SOL     OW32363   0.436  10.745  10.041  0.7518 -0.5062  0.1591
 4918SOL    HW132364   0.453  10.788   9.957  1.8904  0.2186  0.7369
 4918SOL    HW232365   0.362  10.794  10.078  0.4458 -0.6297 -0.2813
 4919SOL     OW32366  12.906   6.734   3.700 -0.4951 -0.2704 -0.2136
 4919SOL    HW132367  12.856   6.714   3.621  0.5810  1.6741 -1.4775
 4919SOL    HW232368  12.840   6.743   3.769 -1.7708  0.8083 -1.5073
 4920SOL     OW32369   7.005   8.804  11.149 -0.5693  0.4862 -0.1847
 4920SOL    HW132370   7.034   8.743  11.082 -1.1764 -0.1359  0.1009
 4920SOL    HW232371   7.083   8.855  11.171  0.0353 -0.4154 -0.1926
 4921SOL     OW32372  13.413   0.680  10.412  0.4149  0.4904  0.3574
 4921SOL    HW132373  13.367   0.749  10.460  1.5037  1.7570 -0.3520
 4921SOL    HW232374  13.500   0.677  10.451  1.1475  1.1799 -1.1405
 4922SOL     OW32375  13.616   0.899   4.966  0.0676  0.3233  0.6467
 4922SOL    HW132376  13.627   0.895   4.871  0.7386 -0.4713  0.7426
 4922SOL    HW232377  13.705   0.908   5.000 -0.0830 -0.2482  1.2211
 4923SOL     OW32378   1.545   8.114   0.412 -0.5839 -0.6197 -0.0277
 4923SOL    HW132379   1.570   8.040   0.358  0.1433 -1.6496  1.6327
 4923SOL    HW232380   1.456   8.092   0.443 -0.7504 -0.3337 -0.2971
 4924SOL     OW32381  10.181   0.227  12.299 -0.1839  0.0286 -0.0189
 4924SOL    HW132382  10.202   0.161  12.232 -2.6009 -0.5882 -0.2528
 4924SOL    HW232383  10.212   0.189  12.381 -2.3625 -1.9425  0.0000
 4925SOL     OW32384  13.525   4.036   3.268 -0.2491 -0.0731 -0.1401
 4925SOL    HW132385  13.619   4.017   3.271  0.2737  1.9933 -1.0832
 4925SOL    HW232386  13.492   3.982   3.197  0.2293 -0.7772  0.1570
 4926SOL     OW32387   2.450   5.285  12.814 -0.0275 -0.0708  0.4443
 4926SOL    HW132388   2.478   5.375  12.796 -1.3468  0.4241  0.7410
 4926SOL    HW232389   2.492   5.263  12.898  0.5777  0.1300  0.2013
 4927SOL     OW32390  10.355  12.855   7.556 -0.7322  0.0690 -0.0531
 4927SOL    HW132391  10.407  12.831   7.480  0.7077  1.1198  0.5553
 4927SOL    HW232392  10.301  12.928   7.527  0.9762  1.5282  0.3165
 4928SOL     OW32393  13.240   6.073   3.719 -0.3616  0.2158  0.6264
 4928SOL    HW132394  13.241   5.977   3.712  0.9525  0.2647 -0.1579
 4928SOL    HW232395  13.226   6.090   3.813  0.3261 -0.7510  0.9155
 4929SOL     OW32396   8.593  12.242   8.121 -0.1106 -0.2870 -0.7363
 4929SOL    HW132397   8.609  12.293   8.200 -0.9012 -0.2850 -0.5735
 4929SOL    HW232398   8.625  12.154   8.142 -0.1662 -0.2450 -0.4764
 4930SOL     OW32399   4.235   9.614   4.051 -0.1603 -0.8324 -0.1127
 4930SOL    HW132400   4.143   9.589   4.047 -1.4767  3.1762  0.0573
 4930SOL    HW232401   4.257   9.641   3.962  0.5171 -0.8419  0.0437
 4931SOL     OW32402  12.894   6.431   0.993 -0.0980  0.0508  0.2226
 4931SOL    HW132403  12.918   6.515   1.033 -1.1851  0.5911 -0.2171
 4931SOL    HW232404  12.891   6.370   1.066  1.2108  0.2546  0.4838
 4932SOL     OW32405   9.929  13.159  10.156 -0.3560  0.2568 -0.1634
 4932SOL    HW132406   9.877  13.233  10.127  0.8201  1.0674 -0.2891
 4932SOL    HW232407   9.906  13.147  10.248 -1.2393  0.1598 -0.3882
 4933SOL     OW32408  11.595   0.213   1.922 -0.5942 -0.4477 -0.3087
 4933SOL    HW132409  11.501   0.207   1.942 -0.7721  0.8205 -0.6340
 4933SOL    HW232410  11.600   0.202   1.827 -0.6355  1.1176 -0.5311
 4934SOL     OW32411   3.837   7.212   5.216 -0.3509 -0.7418  0.0919
 4934SOL    HW132412   3.882   7.297   5.213 -0.5430 -0.6457 -0.1799
 4934SOL    HW232413   3.896   7.152   5.171 -1.4127 -0.1634 -2.2469
 4935SOL     OW32414  12.900   3.029   8.827 -0.4089  0.5660  0.8040
 4935SOL    HW132415  12.854   3.027   8.911  0.0119 -2.2577  1.0705
 4935SOL    HW232416  12.850   3.091   8.774 -2.2817  0.4049  2.2778
 4936SOL     OW32417   0.010  12.668  11.070  0.0764  0.2898 -0.1898
 4936SOL    HW132418  -0.025  12.581  11.048  2.0947 -0.7694  0.5239
 4936SOL    HW232419  -0.045  12.699  11.141 -1.9617  0.5512 -1.7942
 4937SOL     OW32420   5.980   1.636   7.443 -0.1591 -0.2800  0.1737
 4937SOL    HW132421   5.956   1.722   7.410  4.4286  0.5205 -1.9295
 4937SOL    HW232422   5.988   1.648   7.537  1.7090  2.1536 -0.1881
 4938SOL     OW32423  10.430   9.698  13.841 -0.2956  0.2427 -0.2041
 4938SOL    HW132424  10.437   9.639  13.766  0.2545  0.2519 -0.1669
 4938SOL    HW232425  10.515   9.741  13.846  0.4339 -1.2536  1.6569
 4939SOL     OW32426   2.191   5.432   8.605  0.1394  0.2784  0.0883
 4939SOL    HW132427   2.194   5.390   8.691  0.1389 -0.9730 -0.5067
 4939SOL    HW232428   2.105   5.472   8.601 -0.5403 -1.1243  0.0170
 4940SOL     OW32429   9.313   8.857   0.269 -0.0728  0.5276 -0.6795
 4940SOL    HW132430   9.358   8.836   0.187  0.0947 -0.1729 -0.4121
 4940SOL    HW232431   9.354   8.939   0.299  0.8514  0.0335 -0.5696
 4941SOL     OW32432   0.785   5.081   9.667  0.1551  0.5953 -0.2903
 4941SOL    HW132433   0.721   5.148   9.690  1.0192  1.0721  0.8510
 4941SOL    HW232434   0.773   5.013   9.733  0.3157  0.3511 -0.5133
 4942SOL     OW32435   2.233   8.729   5.946 -0.4218 -0.0382 -0.4506
 4942SOL    HW132436   2.325   8.724   5.972  0.3161  1.3655 -2.5050
 4942SOL    HW232437   2.185   8.732   6.028  1.4838  0.8814  0.7028
 4943SOL     OW32438   2.416   5.968   0.591 -0.1610 -0.2003  0.8320
 4943SOL    HW132439   2.335   5.978   0.641 -1.6321  1.4010 -1.6644
 4943SOL    HW232440   2.400   5.893   0.534  0.6565 -0.7107  1.2642
 4944SOL     OW32441   3.729   1.700   1.999 -0.4946  0.1403 -0.4590
 4944SOL    HW132442   3.699   1.771   2.056 -0.3166 -0.9566  1.0785
 4944SOL    HW232443   3.819   1.685   2.026 -0.6872 -0.9902 -0.4114
 4945SOL     OW32444   5.556   9.045   3.296  0.0432  0.3753  0.1695
 4945SOL    HW132445   5.643   9.015   3.320 -0.5396 -0.6344  1.1189
 4945SOL    HW232446   5.514   9.068   3.379 -0.4215  1.3896 -0.3159
 4946SOL     OW32447   8.835   6.534   4.125 -0.0930 -0.1022 -0.0389
 4946SOL    HW132448   8.774   6.473   4.083 -0.8692  0.1898  0.6431
 4946SOL    HW232449   8.914   6.530   4.071 -1.2412  0.6813 -1.8537
 4947SOL     OW32450  10.626   4.681  10.101 -0.2391 -0.5808  0.3438
 4947SOL    HW132451  10.546   4.668  10.049  0.6589 -0.1452 -1.2249
 4947SOL    HW232452  10.605   4.753  10.160 -0.9196 -0.2767 -0.2587
 4948SOL     OW32453   3.427  13.533   7.300 -0.1758  0.0252 -0.0855
 4948SOL    HW132454   3.518  13.526   7.270 -0.1060  0.9117 -0.0834
 4948SOL    HW232455   3.375  13.524   7.220 -0.1244 -0.9965 -0.0266
 4949SOL     OW32456   7.267   3.251   7.282 -0.1168  0.1077  0.3361
 4949SOL    HW132457   7.179   3.240   7.318  0.1053  1.0487  1.2090
 4949SOL    HW232458   7.319   3.287   7.354  0.1338  2.8676 -1.1089
 4950SOL     OW32459   5.208  11.241   5.797  0.7107  0.1984  0.4861
 4950SOL    HW132460   5.291  11.277   5.767  0.6252 -0.3556 -0.4319
 4950SOL    HW232461   5.170  11.310   5.852  1.6749  0.5309  0.7459
 4951SOL     OW32462  13.120   6.123   5.010  1.0559 -0.3595  0.2741
 4951SOL    HW132463  13.103   6.140   5.103  2.3248  0.2158  0.4159
 4951SOL    HW232464  13.166   6.039   5.009  1.7412  0.0128  0.2388
 4952SOL     OW32465   3.959  11.733  12.858 -0.3294  0.1511 -0.1667
 4952SOL    HW132466   3.997  11.762  12.941  0.7626  1.0413 -0.9345
 4952SOL    HW232467   3.890  11.672  12.883 -0.1964  0.5875  1.3994
 4953SOL     OW32468   8.487   1.847   6.461 -0.4105  0.2655  0.9359
 4953SOL    HW132469   8.443   1.785   6.404 -0.7961  0.9437  0.4806
 4953SOL    HW232470   8.521   1.794   6.533  0.8322 -0.7260 -0.3374
 4954SOL     OW32471  11.351  11.587  11.128  0.0421 -0.2664  0.0356
 4954SOL    HW132472  11.302  11.669  11.133 -1.4032 -1.0773 -0.2239
 4954SOL    HW232473  11.336  11.556  11.039  2.0747  0.0474 -0.4700
 4955SOL     OW32474   4.536   8.320   9.452  0.2085  0.1866 -0.2238
 4955SOL    HW132475   4.508   8.411   9.465  3.6177  1.0779  2.1843
 4955SOL    HW232476   4.602   8.326   9.382  0.0743 -0.5434 -0.4188
 4956SOL     OW32477   3.373   2.462   1.322  0.4066  0.6106 -0.5861
 4956SOL    HW132478   3.333   2.501   1.244  3.2354  2.0592 -1.4394
 4956SOL    HW232479   3.394   2.537   1.378  2.7678  0.0709 -0.6509
 4957SOL     OW32480  10.119   6.190  14.081 -0.3772 -0.5803 -0.5081
 4957SOL    HW132481  10.110   6.105  14.038 -0.6150 -0.0471 -1.5263
 4957SOL    HW232482  10.152   6.248  14.013 -0.2526  0.1573  0.1717
 4958SOL     OW32483   0.350   8.376   3.983  0.1014  0.2919 -0.3781
 4958SOL    HW132484   0.324   8.421   3.902 -1.2962  0.3479  0.0742
 4958SOL    HW232485   0.368   8.286   3.954  0.2737  0.4770 -0.8622
 4959SOL     OW32486   6.609   5.735   1.513 -0.0024  0.3396  0.1649
 4959SOL    HW132487   6.667   5.717   1.439 -0.1500  1.1508 -0.1598
 4959SOL    HW232488   6.660   5.709   1.590  1.6222  2.7982  0.0556
 4960SOL     OW32489   8.450   9.265   1.108  0.0053  0.0029  0.0907
 4960SOL    HW132490   8.508   9.291   1.037  0.1332 -0.0197  0.1855
 4960SOL    HW232491   8.430   9.173   1.091 -0.8531  0.2932 -0.5236
 4961SOL     OW32492   1.901  11.641   5.847 -0.3252  0.5635 -0.1222
 4961SOL    HW132493   1.850  11.687   5.781  0.4076  2.1130  0.3346
 4961SOL    HW232494   1.864  11.553   5.850 -1.0175  0.7630 -1.8722
 4962SOL     OW32495   8.410  12.615   9.898  0.5558 -0.2398 -0.5554
 4962SOL    HW132496   8.460  12.613   9.816 -0.2891 -0.3281 -1.0831
 4962SOL    HW232497   8.328  12.657   9.874 -0.7352 -2.5247 -0.3502
 4963SOL     OW32498  12.648  12.202   3.304  0.1998  0.3763 -0.0349
 4963SOL    HW132499  12.678  12.272   3.363 -0.6422  1.0836 -0.4235
 4963SOL    HW232500  12.675  12.231   3.217  0.3494 -0.0643 -0.1370
 4964SOL     OW32501   0.971   7.556   3.405  0.0137  0.0250 -0.7256
 4964SOL    HW132502   0.930   7.578   3.489 -1.2807  1.6491 -1.7019
 4964SOL    HW232503   1.058   7.595   3.410  0.0343 -0.0936 -0.0566
 4965SOL     OW32504   2.293   2.438   3.681  0.6955  0.4025  0.6469
 4965SOL    HW132505   2.337   2.401   3.758  1.1934  2.3482  1.3491
 4965SOL    HW232506   2.201   2.441   3.705  1.1282  3.5723  2.3981
 4966SOL     OW32507  12.974   2.641   2.498 -0.7178  0.2823  0.0185
 4966SOL    HW132508  13.058   2.607   2.529  0.3840  0.2966 -2.6519
 4966SOL    HW232509  12.934   2.566   2.453 -0.7413  1.0176 -1.2415
 4967SOL     OW32510   6.014   6.395   1.208  0.1339 -0.1282 -0.5045
 4967SOL    HW132511   6.085   6.391   1.144 -0.0603  1.3448 -0.8544
 4967SOL    HW232512   5.941   6.434   1.161  0.1137  1.3922  0.6934
 4968SOL     OW32513  13.178  10.363   8.742  0.2794  0.1564 -0.4879
 4968SOL    HW132514  13.163  10.391   8.652  0.6952  0.4215 -0.4755
 4968SOL    HW232515  13.090  10.357   8.780  0.1176  0.2831 -0.8401
 4969SOL     OW32516   9.351   1.515   4.899  0.3689 -0.3814  0.3545
 4969SOL    HW132517   9.421   1.485   4.956  1.6076 -1.0526 -1.4328
 4969SOL    HW232518   9.395   1.548   4.821 -1.2089  1.4190  0.1284
 4970SOL     OW32519   8.205   3.967   5.989 -0.0993  0.2173 -0.2744
 4970SOL    HW132520   8.233   4.037   6.049  1.5631  1.0758 -1.9465
 4970SOL    HW232521   8.264   3.894   6.008 -1.5252 -0.6361  1.1370
 4971SOL     OW32522   0.543  11.628   9.524  0.4481  0.1603 -0.0109
 4971SOL    HW132523   0.504  11.695   9.582  0.6002  0.6227 -0.4379
 4971SOL    HW232524   0.599  11.678   9.465 -0.8116 -0.1188 -1.5015
 4972SOL     OW32525   8.726  11.918  12.918 -0.3400 -0.3610 -0.3757
 4972SOL    HW132526   8.707  11.825  12.935 -1.4107 -0.1390 -0.2781
 4972SOL    HW232527   8.688  11.964  12.993 -0.2763  0.1939 -0.6790
 4973SOL     OW32528   6.277  11.123   2.820  0.0702  0.3271  0.4735
 4973SOL    HW132529   6.361  11.081   2.802  0.2425  0.8165  0.0904
 4973SOL    HW232530   6.268  11.190   2.751 -1.2527 -0.5953 -0.2973
 4974SOL     OW32531   3.425  14.032  11.964  0.4516 -0.1290 -0.1803
 4974SOL    HW132532   3.344  13.999  12.001  0.1561  1.1616  0.3611
 4974SOL    HW232533   3.403  14.054  11.873  0.2149  0.1433 -0.0571
 4975SOL     OW32534   9.322   4.843   4.336 -0.0039  0.1259  0.2670
 4975SOL    HW132535   9.376   4.889   4.272  1.4018 -1.9459 -0.1157
 4975SOL    HW232536   9.366   4.856   4.420 -1.4804  2.2683  0.7953
 4976SOL     OW32537   3.363   8.774   8.631  0.2788 -0.3039  0.2883
 4976SOL    HW132538   3.407   8.806   8.710  0.0148  1.5086 -0.2572
 4976SOL    HW232539   3.423   8.708   8.596  1.6819  0.7614  0.5822
 4977SOL     OW32540   2.174   2.450   9.654  0.0648 -0.5441  0.1446
 4977SOL    HW132541   2.112   2.509   9.697  0.0092 -0.2878 -0.2815
 4977SOL    HW232542   2.161   2.466   9.560  1.2405  0.0000  0.0573
 4978SOL     OW32543  12.211   8.785   6.704 -0.7057 -0.0302  0.3907
 4978SOL    HW132544  12.158   8.711   6.732 -1.4327 -0.1883 -1.3204
 4978SOL    HW232545  12.149   8.856   6.691 -0.4543 -0.0482 -1.0575
 4979SOL     OW32546   6.869   9.045   1.806  0.1296  0.6201  0.3520
 4979SOL    HW132547   6.820   8.975   1.763 -0.7688  1.6261 -0.3209
 4979SOL    HW232548   6.874   9.018   1.897 -0.5289 -0.1511  0.1731
 4980SOL     OW32549   8.060   2.081  10.512  0.2525  0.1214 -0.4882
 4980SOL    HW132550   8.028   2.001  10.471  2.3653  0.2878 -2.6737
 4980SOL    HW232551   8.021   2.081  10.599  0.0872 -3.2278 -0.4528
 4981SOL     OW32552  11.064   9.300   6.900  0.1466  0.6798  0.0051
 4981SOL    HW132553  11.077   9.211   6.933 -0.6632  0.0511 -1.2667
 4981SOL    HW232554  11.119   9.355   6.956  0.1259 -0.5241  1.2636
 4982SOL     OW32555   0.745   5.436  11.579 -0.0371 -0.5992  0.5695
 4982SOL    HW132556   0.796   5.512  11.609  0.1136 -0.9830  1.3194
 4982SOL    HW232557   0.668   5.474  11.538  0.2648 -0.0273  0.5129
 4983SOL     OW32558   3.063   0.700   0.094 -0.0395 -0.4858  0.2004
 4983SOL    HW132559   2.998   0.647   0.141  1.5931 -2.4195  0.3978
 4983SOL    HW232560   3.131   0.638   0.068  1.4891  1.3650 -0.4707
 4984SOL     OW32561   7.171   4.164  12.846  0.2393 -0.3089  0.4752
 4984SOL    HW132562   7.216   4.241  12.811  0.8649  0.4899  2.8367
 4984SOL    HW232563   7.234   4.093  12.837  0.1947 -0.2479 -0.4203
 4985SOL     OW32564   4.304   2.191   2.235  0.1736 -0.2405  0.2290
 4985SOL    HW132565   4.247   2.205   2.310 -0.3830  0.5279 -0.3268
 4985SOL    HW232566   4.294   2.269   2.181 -0.9370 -1.5814 -1.6277
 4986SOL     OW32567   1.984   6.746   8.851 -0.0234  0.0839  0.0095
 4986SOL    HW132568   2.058   6.793   8.889 -0.7414  0.5615  0.8534
 4986SOL    HW232569   2.000   6.654   8.872  0.3360  0.1793  0.1596
 4987SOL     OW32570   6.204   4.923   2.610  0.1744 -0.1028 -0.1604
 4987SOL    HW132571   6.288   4.942   2.652  0.6186 -0.2581 -0.9639
 4987SOL    HW232572   6.212   4.962   2.522 -1.3892  1.7588  0.4516
 4988SOL     OW32573  11.848   7.244   3.533  0.5674  0.0600  0.5669
 4988SOL    HW132574  11.910   7.207   3.470 -1.0684  0.3598 -1.3246
 4988SOL    HW232575  11.871   7.337   3.538 -1.0421  0.7001 -1.9517
 4989SOL     OW32576   7.846   0.896   3.462 -0.2634  0.6347  0.2956
 4989SOL    HW132577   7.842   0.943   3.545  1.1707 -0.6569  1.1217
 4989SOL    HW232578   7.931   0.918   3.425 -0.5463  0.5290 -0.4536
 4990SOL     OW32579   4.137   8.048  13.916 -0.1296  0.0076  0.2502
 4990SOL    HW132580   4.080   8.031  13.841 -0.3542 -0.9205  0.6245
 4990SOL    HW232581   4.078   8.047  13.992  0.4604 -1.7105  0.7298
 4991SOL     OW32582   9.034   4.887   2.909  0.2388 -0.1550 -0.3468
 4991SOL    HW132583   9.112   4.936   2.883  0.0990  0.5486  0.4986
 4991SOL    HW232584   9.035   4.808   2.855  1.0041  0.3196 -1.0301
 4992SOL     OW32585   0.765   6.099   2.077  0.2194  0.5802  0.6350
 4992SOL    HW132586   0.765   6.014   2.120  0.4784  0.0774 -0.3386
 4992SOL    HW232587   0.857   6.115   2.056 -0.1097 -0.2860 -1.8156
 4993SOL     OW32588   4.769   0.989   8.547  0.0743  0.0929 -0.3373
 4993SOL    HW132589   4.839   0.925   8.562  1.3450  1.6763  0.8046
 4993SOL    HW232590   4.689   0.936   8.542  1.2330 -1.7059 -0.9449
 4994SOL     OW32591   6.049   9.292  12.102 -0.0841  0.0511 -0.0978
 4994SOL    HW132592   6.093   9.376  12.093 -0.7952  0.5666  0.9274
 4994SOL    HW232593   6.103   9.242  12.164 -0.6292  0.4813  0.7465
 4995SOL     OW32594   3.025   6.480  11.870  0.3841 -0.1739 -0.2069
 4995SOL    HW132595   3.060   6.489  11.781  1.5211 -1.1028  0.1102
 4995SOL    HW232596   2.931   6.492  11.860  0.4693 -0.4129 -1.5722
 4996SOL     OW32597  10.762  13.341   5.748  0.5665  0.0529  0.2336
 4996SOL    HW132598  10.686  13.386   5.710  1.2035  2.2734  1.3889
 4996SOL    HW232599  10.734  13.316   5.836  0.6169 -0.7839  0.0233
 4997SOL     OW32600   5.987   2.364   9.648  0.3106 -0.2569  0.2912
 4997SOL    HW132601   6.057   2.299   9.639 -0.1883 -1.3060  2.9437
 4997SOL    HW232602   6.030   2.448   9.636  1.8756 -0.9179  1.0158
 4998SOL     OW32603   3.479   2.400  10.733 -0.4711 -0.1383  1.0594
 4998SOL    HW132604   3.573   2.412  10.728 -0.4798  0.0342  1.3243
 4998SOL    HW232605   3.459   2.397  10.826 -0.5886 -1.2665  1.0161
 4999SOL     OW32606   7.498   5.245   6.169 -0.3512 -0.1915  0.2166
 4999SOL    HW132607   7.566   5.291   6.219  0.0044  0.2205 -0.6059
 4999SOL    HW232608   7.465   5.178   6.228  0.4930 -0.1301  0.7771
 5000SOL     OW32609   9.776  12.932  13.499  0.6226  0.1977 -0.2041
 5000SOL    HW132610   9.855  12.973  13.464  1.2711 -0.1399  0.8082
 5000SOL    HW232611   9.808  12.874  13.569 -0.5561  0.3850  0.5212
 5001SOL     OW32612   1.593   4.209   5.650 -0.6839 -0.0517  0.2948
 5001SOL    HW132613   1.608   4.199   5.556  0.1904 -0.4436  0.4704
 5001SOL    HW232614   1.562   4.299   5.659  0.3340  0.3754 -0.2553
 5002SOL     OW32615   5.639   0.449   7.741  0.1689 -0.5291 -0.0086
 5002SOL    HW132616   5.616   0.507   7.813  0.3548  0.8660 -1.0429
 5002SOL    HW232617   5.588   0.369   7.758  0.3955 -0.3438  1.7722
 5003SOL     OW32618   8.178   1.189  13.140 -0.0727  0.2087 -0.3372
 5003SOL    HW132619   8.202   1.260  13.080  0.6566 -0.5866 -1.0219
 5003SOL    HW232620   8.159   1.233  13.223 -1.1470  1.3372 -1.1526
 5004SOL     OW32621  12.323   9.700  11.886  0.0736  0.4318 -0.0725
 5004SOL    HW132622  12.363   9.625  11.843 -0.2627  0.7845 -1.0364
 5004SOL    HW232623  12.329   9.681  11.979 -0.7385 -1.1657 -0.3149
 5005SOL     OW32624   4.578   5.096  12.593  0.0198 -0.0223 -0.0831
 5005SOL    HW132625   4.494   5.142  12.591 -0.1770 -0.3671 -2.4000
 5005SOL    HW232626   4.556   5.008  12.625 -0.3070  0.2197  0.3661
 5006SOL     OW32627   4.416   7.507  13.979 -0.6509 -0.0018 -0.3055
 5006SOL    HW132628   4.470   7.428  13.980 -1.7653 -0.8255 -1.6344
 5006SOL    HW232629   4.330   7.477  13.949 -1.1286  1.6979 -0.7359
 5007SOL     OW32630   1.871   0.909   4.061 -0.3739  0.2475  0.3046
 5007SOL    HW132631   1.863   0.814   4.047 -0.2180  0.2778  0.0034
 5007SOL    HW232632   1.875   0.918   4.156 -0.1043 -0.0727  0.3275
 5008SOL     OW32633   8.925   6.221   8.672  0.2306  0.0028 -0.1036
 5008SOL    HW132634   8.893   6.221   8.762  1.6001  0.2077  0.4109
 5008SOL    HW232635   9.016   6.190   8.679  0.6095  0.7832 -1.3170
 5009SOL     OW32636   5.956   9.239  12.890  0.6398 -0.2443  0.2763
 5009SOL    HW132637   5.918   9.155  12.915  2.6151 -0.7802  1.6964
 5009SOL    HW232638   5.974   9.283  12.972 -1.7273  2.3322 -0.4277
 5010SOL     OW32639  11.410   1.061  12.430 -0.4613  0.1541 -0.0736
 5010SOL    HW132640  11.434   1.037  12.520 -2.7401  0.5506  0.6972
 5010SOL    HW232641  11.322   1.025  12.419 -0.8842  1.5499 -1.5674
 5011SOL     OW32642  12.250   9.032   0.313 -0.0556  0.3023 -0.6183
 5011SOL    HW132643  12.269   9.116   0.354 -0.5467 -0.8302  2.1644
 5011SOL    HW232644  12.224   9.054   0.224  1.5667  2.9180 -0.5489
 5012SOL     OW32645  12.542   5.803   8.562  0.2691  0.3506 -0.6855
 5012SOL    HW132646  12.478   5.874   8.566  0.9203  0.9182  0.1468
 5012SOL    HW232647  12.614   5.838   8.510  0.6307  0.3453 -0.2010
 5013SOL     OW32648   9.594   3.978   5.989  0.4382  0.4925 -0.7108
 5013SOL    HW132649   9.650   3.901   5.978 -0.6524 -0.7899  1.7557
 5013SOL    HW232650   9.505   3.946   5.970  0.2870  2.0839 -3.0232
 5014SOL     OW32651   2.734   2.568   9.064 -0.2997  0.5437  0.1620
 5014SOL    HW132652   2.693   2.588   8.980  1.1882  1.2374 -0.4323
 5014SOL    HW232653   2.819   2.612   9.061  0.2862 -0.4104  1.5483
 5015SOL     OW32654   3.986   7.535   3.372  0.6444 -0.2578  0.2487
 5015SOL    HW132655   3.969   7.587   3.451  1.1443 -0.9679  0.8371
 5015SOL    HW232656   3.955   7.590   3.300  2.8088  1.6863  0.6814
 5016SOL     OW32657   9.642  12.400  10.014 -0.6761 -0.1125  0.6109
 5016SOL    HW132658   9.720  12.442  10.048  0.5785 -0.5947 -1.4740
 5016SOL    HW232659   9.631  12.321  10.067  1.1404 -0.7953  0.0307
 5017SOL     OW32660   6.030   5.225  13.730 -0.1556  0.2421 -0.2251
 5017SOL    HW132661   5.990   5.138  13.722 -0.6599  0.3136  1.2495
 5017SOL    HW232662   5.962   5.279  13.769  0.3299  1.1936 -0.6616
 5018SOL     OW32663   3.690   1.359  11.643 -0.1022 -0.0408  0.1071
 5018SOL    HW132664   3.690   1.450  11.616  0.3500 -0.7223 -2.4477
 5018SOL    HW232665   3.773   1.346  11.688 -0.2508  0.8191  0.6405
 5019SOL     OW32666  12.945  11.263  13.558  0.2885 -0.3313 -0.0598
 5019SOL    HW132667  13.015  11.213  13.599  0.1348 -1.0170 -0.5941
 5019SOL    HW232668  12.919  11.328  13.623  0.6930 -0.7676  0.5428
 5020SOL     OW32669   6.052   0.191  11.420 -0.7542  0.0047  0.1554
 5020SOL    HW132670   6.128   0.143  11.453 -0.1387 -0.1754 -1.4287
 5020SOL    HW232671   6.001   0.211  11.498  1.0476  0.3660  1.3027
 5021SOL     OW32672   3.371   2.695   8.868  0.4957  0.4518  1.2838
 5021SOL    HW132673   3.452   2.742   8.849  0.8528 -0.7292 -0.4198
 5021SOL    HW232674   3.390   2.644   8.946  1.3777  0.2487  0.9451
 5022SOL     OW32675   5.544  13.580  12.807 -0.4530  0.0776 -0.5403
 5022SOL    HW132676   5.629  13.537  12.809 -0.1784  0.6330  0.7664
 5022SOL    HW232677   5.481  13.509  12.798  0.1238 -0.3642 -1.2194
 5023SOL     OW32678   3.520  11.224   2.604  0.3808 -0.0395 -0.0178
 5023SOL    HW132679   3.505  11.315   2.580  0.7405  0.2233  0.7139
 5023SOL    HW232680   3.606  11.204   2.567 -0.1510 -0.4217 -1.0900
 5024SOL     OW32681  10.533  10.583  11.123  0.6400  0.0414 -0.5261
 5024SOL    HW132682  10.541  10.678  11.128  0.6722  0.0317 -0.3675
 5024SOL    HW232683  10.494  10.558  11.207 -0.3120  0.0127 -0.9656
 5025SOL     OW32684  11.796  11.467   4.125 -0.1154 -0.4131 -0.5877
 5025SOL    HW132685  11.796  11.536   4.059  3.6228 -0.8789 -1.3101
 5025SOL    HW232686  11.704  11.448   4.141 -1.2016  1.8503 -3.4033
 5026SOL     OW32687   1.807   3.292   9.324  0.6029  0.4513  0.1413
 5026SOL    HW132688   1.715   3.270   9.339  0.6744  0.2132  0.2424
 5026SOL    HW232689   1.811   3.387   9.335  0.0694  0.6824 -1.4958
 5027SOL     OW32690   4.138   7.643  10.545 -0.1317 -0.1243  0.2947
 5027SOL    HW132691   4.081   7.567  10.534 -1.0154  0.2840  1.7688
 5027SOL    HW232692   4.081   7.711  10.580  0.7168  1.1262 -0.6436
 5028SOL     OW32693   8.275   5.437   3.836  0.3101  0.1986 -0.4583
 5028SOL    HW132694   8.277   5.506   3.769 -1.1159  0.2467 -0.4841
 5028SOL    HW232695   8.224   5.367   3.796  0.0466 -0.0571  0.3204
 5029SOL     OW32696  12.408   4.140   4.881 -0.5557 -0.3109 -0.0551
 5029SOL    HW132697  12.335   4.079   4.882 -0.7902 -0.0368 -0.2153
 5029SOL    HW232698  12.485   4.086   4.865 -0.4158 -0.9076  2.2789
 5030SOL     OW32699  13.664   6.773  10.940 -0.3483  0.7925  0.8016
 5030SOL    HW132700  13.647   6.842  10.875 -1.2846 -0.5588 -0.4493
 5030SOL    HW232701  13.672   6.693  10.888  0.5637 -0.0874  2.2337
 5031SOL     OW32702  13.338   2.582   9.032  0.0516  0.0053  0.5861
 5031SOL    HW132703  13.283   2.625   8.966  0.9153  1.3114  0.6852
 5031SOL    HW232704  13.276   2.547   9.096 -0.7014  2.4394  1.3073
 5032SOL     OW32705  10.793   0.136   6.437  0.0312 -0.0431 -0.1928
 5032SOL    HW132706  10.801   0.096   6.351  0.6613 -0.4378  0.0396
 5032SOL    HW232707  10.817   0.067   6.498  0.0561  0.3716  0.2757
 5033SOL     OW32708   9.487  12.518   0.506  0.4101 -0.3015  0.0383
 5033SOL    HW132709   9.532  12.471   0.576  0.2373  0.9198  1.0105
 5033SOL    HW232710   9.426  12.455   0.470  0.5385 -0.9796  0.9645
 5034SOL     OW32711   5.227   1.124   2.342 -0.4464  0.3875 -0.1251
 5034SOL    HW132712   5.257   1.061   2.276  0.4519  0.2935  0.3619
 5034SOL    HW232713   5.302   1.137   2.399 -1.0826  0.7911  0.6411
 5035SOL     OW32714   6.080   1.341  12.167 -0.3699 -0.1692 -0.2181
 5035SOL    HW132715   5.989   1.349  12.137  0.0363 -0.2798 -1.5660
 5035SOL    HW232716   6.093   1.246  12.178 -0.0838 -0.2473 -1.1680
 5036SOL     OW32717   4.767   9.509   1.073  0.1590  0.4036 -0.0822
 5036SOL    HW132718   4.850   9.501   1.119 -1.0862  0.2827  2.3211
 5036SOL    HW232719   4.785   9.478   0.984  2.1228 -1.8352  0.9881
 5037SOL     OW32720   0.581  12.351   4.705  0.3226 -0.3236  0.0439
 5037SOL    HW132721   0.502  12.357   4.651 -1.0630  0.0041  1.9861
 5037SOL    HW232722   0.563  12.280   4.766  0.7027  0.9749  1.7477
 5038SOL     OW32723   3.971   8.004   4.256 -0.0279 -0.3712  0.3216
 5038SOL    HW132724   3.939   8.083   4.300 -1.1327  0.6127 -2.1083
 5038SOL    HW232725   3.991   7.944   4.328  1.7073  2.3542  2.3259
 5039SOL     OW32726   2.724  12.072   3.279 -0.5048  0.1739  0.3057
 5039SOL    HW132727   2.797  12.033   3.326  0.4190  2.2716  0.7496
 5039SOL    HW232728   2.651  12.069   3.341 -0.3931 -0.6063  0.4077
 5040SOL     OW32729  13.944   2.162   9.245 -0.5528  0.0796  0.0316
 5040SOL    HW132730  13.907   2.090   9.194  1.8617 -0.2615 -1.3858
 5040SOL    HW232731  13.885   2.236   9.230 -0.1947 -0.1321 -2.9987
 5041SOL     OW32732  10.168  12.257  12.429  0.0848 -0.2695  0.1960
 5041SOL    HW132733  10.192  12.296  12.513  1.3770 -0.8765  0.1323
 5041SOL    HW232734  10.113  12.323  12.386 -0.5059  0.0898  1.4638
 5042SOL     OW32735   4.874   8.091   6.845 -0.3972  0.1625 -0.0575
 5042SOL    HW132736   4.912   8.116   6.929  0.0104  1.6837 -0.6567
 5042SOL    HW232737   4.948   8.092   6.784 -1.1225  2.0311 -1.0083
 5043SOL     OW32738   9.031   4.696  13.177 -0.1345 -0.2507 -0.2312
 5043SOL    HW132739   8.943   4.728  13.158 -0.2337  0.1881  0.9307
 5043SOL    HW232740   9.031   4.606  13.144 -0.1775  0.5310 -2.6067
 5044SOL     OW32741   7.357  12.700  12.253  0.1312 -0.3655 -0.1815
 5044SOL    HW132742   7.406  12.762  12.307  0.6491  0.7665 -1.8673
 5044SOL    HW232743   7.265  12.720  12.271  0.2839  1.1216 -0.8641
 5045SOL     OW32744   9.345   3.479  13.257  0.4752  0.0153  0.6374
 5045SOL    HW132745   9.300   3.559  13.229 -0.7662 -0.4302  1.3284
 5045SOL    HW232746   9.426   3.479  13.205 -0.6147  0.4585 -1.1586
 5046SOL     OW32747   8.236  13.571  10.969  0.1760 -0.5685  0.1174
 5046SOL    HW132748   8.311  13.523  10.934 -1.1125 -1.8384 -1.0247
 5046SOL    HW232749   8.247  13.660  10.936  1.8340 -0.3955  1.0388
 5047SOL     OW32750   8.544   8.077   2.685  0.0326 -0.0255 -0.1241
 5047SOL    HW132751   8.498   8.005   2.640  1.4487 -0.9410 -0.1805
 5047SOL    HW232752   8.491   8.094   2.763 -0.4180 -1.0478 -0.1833
 5048SOL     OW32753   1.854   2.656   8.011 -0.1579 -0.2141 -0.0346
 5048SOL    HW132754   1.885   2.595   8.078  0.1194 -1.2982 -1.1255
 5048SOL    HW232755   1.763   2.630   7.995 -0.0957 -0.2236 -0.3747
 5049SOL     OW32756   3.308   5.287   4.324 -0.4214  0.3145 -0.0116
 5049SOL    HW132757   3.255   5.366   4.336 -1.3755  0.0963 -2.2368
 5049SOL    HW232758   3.262   5.219   4.373 -0.5562  0.7604  0.4862
 5050SOL     OW32759   5.725  13.667   7.188  0.3689  0.4019  0.6566
 5050SOL    HW132760   5.658  13.735   7.182 -1.5278 -1.4970 -1.8258
 5050SOL    HW232761   5.676  13.586   7.201  2.3743 -0.8152  1.0464
 5051SOL     OW32762  11.830  10.871   4.887  0.3403  0.2613 -0.1708
 5051SOL    HW132763  11.865  10.894   4.801 -0.9755 -0.3974 -0.9221
 5051SOL    HW232764  11.883  10.797   4.916  0.4891  0.1895 -0.6302
 5052SOL     OW32765   3.593  12.182   4.259  0.0591  0.0250 -0.2978
 5052SOL    HW132766   3.584  12.104   4.314  1.7860  0.8749  1.3121
 5052SOL    HW232767   3.517  12.236   4.280  0.4116  0.0839  0.9205
 5053SOL     OW32768   3.601  11.871   9.179  0.3468  0.0995  0.1353
 5053SOL    HW132769   3.564  11.940   9.123  0.7494 -1.6211 -2.3884
 5053SOL    HW232770   3.695  11.886   9.176  0.3572  0.1640  0.6314
 5054SOL     OW32771  10.345   6.233   9.963  0.0476  0.0183 -0.2719
 5054SOL    HW132772  10.267   6.184   9.936 -1.1493  1.3158  0.6777
 5054SOL    HW232773  10.329   6.255  10.055  1.4451  0.4799 -0.1214
 5055SOL     OW32774   2.646   1.646  11.462  0.4149  0.0971  0.3897
 5055SOL    HW132775   2.622   1.714  11.399  0.8198  2.1578  2.2992
 5055SOL    HW232776   2.727   1.609  11.427 -0.4988 -0.3389 -1.3463
 5056SOL     OW32777   7.407  12.466   2.245  0.0669  0.4267  0.5653
 5056SOL    HW132778   7.398  12.490   2.337  0.3740 -1.9494  1.2627
 5056SOL    HW232779   7.325  12.492   2.204 -0.4231  0.6829  1.6974
 5057SOL     OW32780  13.657   4.523   8.250 -0.2908 -0.1560 -0.2350
 5057SOL    HW132781  13.629   4.502   8.161  0.0565  2.0591 -0.9125
 5057SOL    HW232782  13.654   4.618   8.255  0.6105 -0.1762  1.8374
 5058SOL     OW32783   6.096   2.271   9.177 -0.1801  0.1086 -0.2528
 5058SOL    HW132784   6.095   2.366   9.190 -1.2101 -0.1218  1.6018
 5058SOL    HW232785   6.034   2.256   9.106  1.9579  0.9877 -2.4792
 5059SOL     OW32786   8.515   6.151   9.539  0.1576  0.1507 -0.3111
 5059SOL    HW132787   8.507   6.243   9.516 -2.1147  0.6393  2.0090
 5059SOL    HW232788   8.557   6.151   9.625 -1.3893 -0.8008  0.4946
 5060SOL     OW32789  11.468   8.951   8.813 -0.3296 -0.3973  0.0545
 5060SOL    HW132790  11.558   8.975   8.837 -0.3566  0.4542 -0.6226
 5060SOL    HW232791  11.467   8.856   8.813  0.0564 -0.4383  1.9532
 5061SOL     OW32792   3.337   2.600   5.925 -0.1788  0.3616 -0.1181
 5061SOL    HW132793   3.347   2.667   5.993  0.6058 -0.3527  0.4912
 5061SOL    HW232794   3.369   2.641   5.845  0.4305  0.6634  0.2796
 5062SOL     OW32795  11.022  12.735   2.643  0.0915 -0.1295  0.6206
 5062SOL    HW132796  11.058  12.822   2.628 -0.0777 -0.4143 -2.0074
 5062SOL    HW232797  11.031  12.691   2.558 -2.3381 -1.7320  1.0981
 5063SOL     OW32798   1.482  12.105   7.668 -0.2243 -0.5210  0.1357
 5063SOL    HW132799   1.394  12.116   7.634 -0.8459 -0.7864  1.5946
 5063SOL    HW232800   1.474  12.119   7.763  1.3674 -0.1355  0.2556
 5064SOL     OW32801   9.270   6.825  13.618 -0.2957  0.4479  0.0872
 5064SOL    HW132802   9.315   6.909  13.623  2.4089 -0.8793 -0.1067
 5064SOL    HW232803   9.252   6.803  13.710 -0.2105  0.8339  0.2016
 5065SOL     OW32804  11.668   0.632   7.670  0.0791  0.0423  0.0632
 5065SOL    HW132805  11.748   0.685   7.670  1.2528 -1.5944  2.0646
 5065SOL    HW232806  11.643   0.628   7.578  0.5564  3.0557 -0.3149
 5066SOL     OW32807   2.984   4.912  10.627  0.3420  0.3795  0.0256
 5066SOL    HW132808   2.978   5.002  10.661 -0.9737  0.1591  0.4204
 5066SOL    HW232809   2.974   4.922  10.533 -0.2111  0.6169  0.1058
 5067SOL     OW32810   0.240  11.515  11.919  0.3364  0.3465 -0.2524
 5067SOL    HW132811   0.292  11.486  11.845  0.7830 -1.5276  0.7301
 5067SOL    HW232812   0.161  11.461  11.916 -0.2351  1.1517 -0.0814
 5068SOL     OW32813   2.006   1.602   8.116  0.0818 -0.0026 -0.3429
 5068SOL    HW132814   1.980   1.549   8.042 -0.1978 -2.1049  1.1709
 5068SOL    HW232815   2.085   1.648   8.086 -0.7578  0.2456 -2.3209
 5069SOL     OW32816  11.749   0.417   9.064 -0.5143  0.5153  0.3731
 5069SOL    HW132817  11.800   0.488   9.025  0.7561 -0.4078  0.3063
 5069SOL    HW232818  11.677   0.403   9.003  1.6650 -1.2160 -2.0286
 5070SOL     OW32819   0.747   2.422   5.124  0.5085  0.3826 -0.3587
 5070SOL    HW132820   0.667   2.475   5.119 -0.2242 -0.5481  0.8199
 5070SOL    HW232821   0.787   2.448   5.207  0.4240 -0.4912 -0.0326
 5071SOL     OW32822  11.270   0.778   9.780  0.3976  0.0143  0.5659
 5071SOL    HW132823  11.257   0.709   9.715  0.0204  0.0041  0.6495
 5071SOL    HW232824  11.363   0.797   9.777  0.3873 -0.0174  0.0513
 5072SOL     OW32825   1.690   5.363  12.016 -0.5376  0.3092  0.0918
 5072SOL    HW132826   1.622   5.355  11.949 -1.0715  3.7566  0.0527
 5072SOL    HW232827   1.652   5.324  12.094 -0.3444 -2.7552 -1.2032
 5073SOL     OW32828   9.483   4.631  10.112 -0.0524 -0.2323 -0.1887
 5073SOL    HW132829   9.542   4.664  10.179 -1.5723 -0.2725  1.2337
 5073SOL    HW232830   9.408   4.596  10.160 -2.6945  2.5457 -1.9073
 5074SOL     OW32831  13.850   7.822   5.803 -0.2014 -0.8735 -0.0596
 5074SOL    HW132832  13.818   7.844   5.891 -0.0115  1.1722 -0.4430
 5074SOL    HW232833  13.915   7.754   5.818  0.1458 -0.2659  1.4518
 5075SOL     OW32834   6.299  14.027  13.571 -0.2574  0.1907 -0.6612
 5075SOL    HW132835   6.253  14.110  13.583 -0.3576  0.1509 -0.7763
 5075SOL    HW232836   6.312  13.994  13.660  1.3019  1.1597 -0.4876
 5076SOL     OW32837  11.012   7.120   5.981 -0.0373 -0.6644 -0.9077
 5076SOL    HW132838  10.944   7.068   6.023 -0.5913 -1.0633 -2.2482
 5076SOL    HW232839  10.994   7.112   5.887 -0.0985  1.8828 -1.1793
 5077SOL     OW32840   2.525   7.667   9.364 -0.4981  0.3253 -0.4219
 5077SOL    HW132841   2.530   7.587   9.417  0.2518 -0.5202 -1.7051
 5077SOL    HW232842   2.615   7.687   9.342 -0.7608  0.9749 -0.9402
 5078SOL     OW32843   3.568  10.381  11.718  0.1146  0.2475 -0.7485
 5078SOL    HW132844   3.573  10.316  11.789  0.5779 -1.7301 -2.4813
 5078SOL    HW232845   3.475  10.387  11.698 -0.0881  1.2852  0.3798
 5079SOL     OW32846   9.276   0.197   3.450  0.0950 -0.6751  0.1717
 5079SOL    HW132847   9.332   0.123   3.473 -0.1419 -1.0597 -0.4421
 5079SOL    HW232848   9.187   0.161   3.451 -0.0126 -0.4300 -0.2234
 5080SOL     OW32849   6.368  13.020   4.916 -0.3375 -0.1363  0.1721
 5080SOL    HW132850   6.440  12.981   4.965 -1.3434 -2.2719  0.0550
 5080SOL    HW232851   6.329  13.084   4.976  0.9865  0.2811  0.6118
 5081SOL     OW32852   0.948   9.981  13.418 -0.1265  0.6317 -0.0904
 5081SOL    HW132853   0.862   9.945  13.441 -0.0562  0.5909  0.1059
 5081SOL    HW232854   0.933  10.027  13.335 -0.8390  2.5446  1.0476
 5082SOL     OW32855   4.732   3.550   0.156  0.1700 -0.5091 -0.2207
 5082SOL    HW132856   4.819   3.591   0.150  1.0313 -2.3365 -4.9738
 5082SOL    HW232857   4.748   3.463   0.191  0.6478 -1.3891 -2.4669
 5083SOL     OW32858   5.563   3.439   4.635 -0.0736 -0.0710 -0.5129
 5083SOL    HW132859   5.585   3.368   4.575 -0.9384 -1.6819  0.9918
 5083SOL    HW232860   5.484   3.479   4.597  1.2490  1.1648 -2.1663
 5084SOL     OW32861  10.317   4.318   1.037 -0.0691 -0.0794 -0.1863
 5084SOL    HW132862  10.230   4.293   1.069  0.2791 -0.0785  0.7864
 5084SOL    HW232863  10.330   4.407   1.070  0.5530 -0.3101  0.1994
 5085SOL     OW32864  11.800   3.030  13.279 -0.1696  0.3777  0.0254
 5085SOL    HW132865  11.846   3.113  13.267 -0.0597  0.2688 -0.3069
 5085SOL    HW232866  11.799   2.990  13.193 -2.0991  0.9893 -0.2980
 5086SOL     OW32867   1.126  12.556   0.600  0.1015  0.6730 -0.7521
 5086SOL    HW132868   1.134  12.562   0.695 -0.0031  1.6687 -0.7921
 5086SOL    HW232869   1.112  12.463   0.583  0.7928  0.3878  0.1451
 5087SOL     OW32870   1.998  11.470  13.892 -0.2933 -0.5302 -0.0247
 5087SOL    HW132871   2.076  11.472  13.947 -0.1618  2.2954 -0.1627
 5087SOL    HW232872   2.030  11.494  13.805 -1.1855 -0.2849 -0.2946
 5088SOL     OW32873   3.123   9.238   2.567 -0.2217  0.0520  0.0329
 5088SOL    HW132874   3.064   9.285   2.508 -0.5552  0.4359  0.6519
 5088SOL    HW232875   3.083   9.249   2.654 -0.3576 -1.4501  0.1918
 5089SOL     OW32876  12.612   4.551  12.257 -0.7487  0.0412  0.4640
 5089SOL    HW132877  12.566   4.495  12.194  0.1832  1.1105 -1.2541
 5089SOL    HW232878  12.558   4.548  12.336 -0.8640 -3.0507  0.3920
 5090SOL     OW32879   4.482  10.847  10.094  0.2497 -0.1709  0.8641
 5090SOL    HW132880   4.490  10.811  10.182 -0.1793 -2.4748  0.0363
 5090SOL    HW232881   4.572  10.869  10.069  0.7051 -1.5930  1.1094
 5091SOL     OW32882   2.602   3.992   4.438  0.2333  0.1309 -0.0815
 5091SOL    HW132883   2.516   3.982   4.479 -0.0969  1.4613 -0.4145
 5091SOL    HW232884   2.583   4.020   4.349  0.9682 -1.8746 -0.9331
 5092SOL     OW32885   9.549   2.991   9.662  0.0290 -0.1794  0.5061
 5092SOL    HW132886   9.589   3.032   9.738  1.9109 -0.7911 -0.0890
 5092SOL    HW232887   9.497   3.061   9.621  2.0228  1.2556  0.2886
 5093SOL     OW32888   4.348   9.036  11.881  0.0600 -0.3897  0.2170
 5093SOL    HW132889   4.340   8.944  11.905 -1.6034 -0.8065 -1.5465
 5093SOL    HW232890   4.264   9.056  11.839  0.2812  2.0177  0.7827
 5094SOL     OW32891   2.278   3.336   0.816  0.8332 -0.2282  0.2078
 5094SOL    HW132892   2.313   3.251   0.844  0.3057 -1.4451 -2.4686
 5094SOL    HW232893   2.224   3.315   0.740  0.7196  2.5406 -0.5697
 5095SOL     OW32894   1.472   2.249   0.268  0.4495 -0.0361  0.1534
 5095SOL    HW132895   1.474   2.163   0.310 -0.7074 -0.9759 -1.6011
 5095SOL    HW232896   1.437   2.232   0.180  0.5932  2.1696 -0.3817
 5096SOL     OW32897  13.591   4.817   7.835 -0.5078 -0.1299  0.1865
 5096SOL    HW132898  13.661   4.761   7.869 -0.3206  0.2199  0.3859
 5096SOL    HW232899  13.563   4.773   7.755 -0.3317 -0.4837  0.3142
 5097SOL     OW32900   2.805  12.518  12.613  0.0862 -0.2620  0.5284
 5097SOL    HW132901   2.712  12.534  12.602  0.1613 -0.7813 -1.1347
 5097SOL    HW232902   2.845  12.605  12.613 -0.1649 -0.1072 -1.4434
 5098SOL     OW32903   0.640   1.875   4.794  0.0558 -0.1454 -0.4358
 5098SOL    HW132904   0.590   1.816   4.850  0.8598 -0.3346  0.0976
 5098SOL    HW232905   0.597   1.870   4.709 -0.4318 -0.7991 -0.1571
 5099SOL     OW32906   2.769   1.055   7.036 -0.3318 -0.2627 -0.0470
 5099SOL    HW132907   2.725   1.045   7.120 -0.4435 -0.8252 -0.1713
 5099SOL    HW232908   2.840   0.991   7.038  0.7926  0.9557  0.3461
 5100SOL     OW32909  10.395   4.640   5.517 -0.7823  0.0315 -0.2073
 5100SOL    HW132910  10.374   4.548   5.500  1.0144 -1.0719  2.7366
 5100SOL    HW232911  10.390   4.649   5.612  1.5506  2.3083 -0.1709
 5101SOL     OW32912   1.215   7.932   9.674 -0.4518 -0.1834 -0.0509
 5101SOL    HW132913   1.137   7.890   9.639  0.7519 -2.0467 -0.6093
 5101SOL    HW232914   1.186   7.971   9.757 -1.9237 -0.9271 -0.1879
 5102SOL     OW32915  10.019  13.088   0.055  0.6451 -0.6266  0.4426
 5102SOL    HW132916  10.063  13.173   0.049 -1.5577  0.5117 -0.9167
 5102SOL    HW232917  10.013  13.058  -0.036 -1.0265 -0.8986  0.6163
 5103SOL     OW32918   5.032  12.757   8.896  0.1573  0.0995  0.4281
 5103SOL    HW132919   5.000  12.841   8.861  1.9507  0.2662 -1.0040
 5103SOL    HW232920   4.957  12.720   8.943 -1.1821  1.7480 -0.2956
 5104SOL     OW32921   7.251   3.058   0.100 -0.1716  0.3626 -0.0467
 5104SOL    HW132922   7.208   3.037   0.017  1.8341  0.4386 -1.1664
 5104SOL    HW232923   7.329   3.002   0.102 -0.9638 -0.8133  2.5750
 5105SOL     OW32924   2.567   7.516  10.714  0.1032 -0.9358  0.4334
 5105SOL    HW132925   2.486   7.468  10.727 -1.3136  0.6996 -1.7116
 5105SOL    HW232926   2.604   7.525  10.802 -1.0226 -3.3639  1.2173
 5106SOL     OW32927  12.917   1.407  11.052 -0.0479 -0.3370 -1.1634
 5106SOL    HW132928  13.003   1.435  11.019  1.3793 -0.5952  1.9678
 5106SOL    HW232929  12.918   1.312  11.042  0.4375 -0.4277 -0.3947
 5107SOL     OW32930  14.091   5.743   9.975 -0.0106 -0.2241 -0.5723
 5107SOL    HW132931  14.018   5.702   9.929 -1.3881  2.4982 -1.0241
 5107SOL    HW232932  14.160   5.750   9.909 -0.2971 -0.4743 -0.9010
 5108SOL     OW32933   0.663   5.406   5.582  0.3758  0.4735 -0.4215
 5108SOL    HW132934   0.604   5.481   5.595  0.4833  0.8651 -2.0410
 5108SOL    HW232935   0.616   5.348   5.522  1.5184  0.6792 -1.5430
 5109SOL     OW32936   0.393  12.469   6.503  0.1029  0.2285  0.2750
 5109SOL    HW132937   0.328  12.535   6.476 -0.6404 -0.3243  0.6654
 5109SOL    HW232938   0.375  12.455   6.596  1.9935  1.3909  0.8710
 5110SOL     OW32939  11.551   6.489  14.070 -0.1424 -0.0960 -0.1251
 5110SOL    HW132940  11.637   6.446  14.076 -0.0550  0.2209  1.1528
 5110SOL    HW232941  11.498   6.444  14.136 -0.6585  0.3880 -0.2091
 5111SOL     OW32942   5.937   3.099  10.270  0.1898 -0.1831  0.0308
 5111SOL    HW132943   5.851   3.057  10.266  0.4188 -0.7952  1.0775
 5111SOL    HW232944   5.968   3.099  10.179  0.0563 -2.0602 -0.0594
 5112SOL     OW32945  13.290  10.251   6.154 -0.3412  0.0798  0.1921
 5112SOL    HW132946  13.212  10.197   6.167  0.3364 -1.2441 -0.9790
 5112SOL    HW232947  13.297  10.261   6.059  1.1226 -0.1705  0.2464
 5113SOL     OW32948  12.681   6.766   3.865 -0.3879 -0.0004  0.5174
 5113SOL    HW132949  12.587   6.780   3.861 -0.3439  0.2615  0.3008
 5113SOL    HW232950  12.705   6.785   3.955 -0.4085  0.8564  0.3558
 5114SOL     OW32951  11.343   4.907  13.399  0.2110  0.3108  0.1037
 5114SOL    HW132952  11.347   4.812  13.403  1.4682  0.3341 -0.1679
 5114SOL    HW232953  11.417   4.932  13.342  1.6481  1.5745  2.3794
 5115SOL     OW32954  10.894   0.123   1.790 -0.0016  0.0368  0.0249
 5115SOL    HW132955  10.934   0.198   1.835 -0.4109 -0.2107  0.8224
 5115SOL    HW232956  10.883   0.057   1.859  1.3492 -1.1837 -0.8547
 5116SOL     OW32957   6.448   5.348   3.509 -0.2397 -0.3732 -0.0516
 5116SOL    HW132958   6.384   5.351   3.438 -0.5015  0.6774  0.2016
 5116SOL    HW232959   6.470   5.440   3.525 -0.2849 -0.5684  1.3084
 5117SOL     OW32960   8.305   5.018   4.532 -0.4635  0.3788 -0.4517
 5117SOL    HW132961   8.379   4.991   4.586  1.0761 -0.8179 -2.9481
 5117SOL    HW232962   8.307   5.114   4.535  1.9923  0.4346 -1.3519
 5118SOL     OW32963   4.191   5.990  10.847  0.3954 -0.0182  0.1170
 5118SOL    HW132964   4.281   5.991  10.879  0.1908 -0.6616  0.7499
 5118SOL    HW232965   4.183   6.068  10.793  1.0424  0.5651  0.8529
 5119SOL     OW32966  10.942   7.322   5.565  0.6277  0.1980  0.0459
 5119SOL    HW132967  10.855   7.310   5.528  0.6527  0.8047 -0.2233
 5119SOL    HW232968  10.927   7.348   5.656  0.5446 -0.2896  0.1735
 5120SOL     OW32969  10.565   7.546  12.565  0.4342 -0.4539 -0.0035
 5120SOL    HW132970  10.592   7.462  12.603  1.5406 -0.0643  0.1022
 5120SOL    HW232971  10.503   7.522  12.496 -0.0528 -1.2881  0.7065
 5121SOL     OW32972  13.319  11.311   4.934 -0.7044 -0.1772 -0.2278
 5121SOL    HW132973  13.361  11.336   4.852 -0.2397 -1.5170 -0.4185
 5121SOL    HW232974  13.273  11.229   4.914  1.8555 -2.1935  1.5288
 5122SOL     OW32975   8.139   4.260   3.110 -0.5562 -0.2165 -0.3863
 5122SOL    HW132976   8.093   4.284   3.190 -1.1785 -2.3505 -0.0459
 5122SOL    HW232977   8.070   4.232   3.050 -0.0198  0.4761 -1.3568
 5123SOL     OW32978   8.409   8.286  13.808  0.3263 -0.1494 -0.1709
 5123SOL    HW132979   8.407   8.302  13.714 -0.1489 -0.8490 -0.2935
 5123SOL    HW232980   8.496   8.314  13.836  0.8875 -1.0073 -1.0155
 5124SOL     OW32981   1.764  13.517   1.003 -0.4589  0.3734 -0.4854
 5124SOL    HW132982   1.739  13.439   0.952  0.2565  0.1843 -0.5673
 5124SOL    HW232983   1.855  13.500   1.027  0.1367  1.7688 -1.6319
 5125SOL     OW32984   2.305   9.279   7.322  0.9244 -0.5927  0.4216
 5125SOL    HW132985   2.217   9.306   7.348  0.7558  0.2238 -0.8810
 5125SOL    HW232986   2.349   9.361   7.300  1.7226 -1.0695  0.1933
 5126SOL     OW32987   5.914   4.063  12.503  0.3698 -0.0775  0.5251
 5126SOL    HW132988   5.873   4.009  12.435  0.3405  1.0094 -0.3690
 5126SOL    HW232989   5.842   4.083  12.564  0.6630 -2.0675  1.5976
 5127SOL     OW32990   2.901   3.699   9.454  0.1566 -0.2704  0.2444
 5127SOL    HW132991   2.967   3.736   9.513  1.0316 -1.6044  0.1528
 5127SOL    HW232992   2.836   3.768   9.444  1.6973  1.2161  0.0948
 5128SOL     OW32993   8.618   9.132  10.904 -0.4012  0.2406 -0.2112
 5128SOL    HW132994   8.546   9.144  10.967  0.7206  1.2851  0.9502
 5128SOL    HW232995   8.578   9.146  10.819 -1.6337  0.5634  0.3916
 5129SOL     OW32996   6.263  10.548   2.232  0.1297 -0.2686 -0.0252
 5129SOL    HW132997   6.346  10.540   2.185  0.3330  0.7895  0.1370
 5129SOL    HW232998   6.197  10.560   2.163  0.1991 -0.4643 -0.1244
 5130SOL     OW32999   4.700   9.891   4.550 -0.7928 -0.3386  0.1898
 5130SOL    HW133000   4.769   9.909   4.486 -0.4988 -1.5627  0.1396
 5130SOL    HW233001   4.728   9.811   4.594 -1.7026 -0.3109  0.8568
 5131SOL     OW33002  12.032  11.762   7.105  0.3976 -0.2842  0.3580
 5131SOL    HW133003  11.946  11.802   7.116  0.7697  1.6053 -2.5523
 5131SOL    HW233004  12.013  11.671   7.083 -0.8451  0.0362  0.0189
 5132SOL     OW33005   0.470  12.614   0.477  0.1139  0.0413 -0.3432
 5132SOL    HW133006   0.411  12.685   0.504 -0.2841 -0.6568  0.7243
 5132SOL    HW233007   0.418  12.534   0.487  0.9126 -0.5031 -0.3859
 5133SOL     OW33008   9.043   6.324   5.110  0.3288 -0.0177  0.5780
 5133SOL    HW133009   9.114   6.386   5.127  1.1949 -0.6208 -0.6568
 5133SOL    HW233010   8.974   6.376   5.069  1.0317  0.1687 -0.4094
 5134SOL     OW33011   8.736   3.925  13.375  0.0799 -0.5125  0.5112
 5134SOL    HW133012   8.705   3.956  13.460  1.1975 -0.3890  0.8901
 5134SOL    HW233013   8.812   3.871  13.395 -0.1803 -1.2379 -0.3519
 5135SOL     OW33014   0.709   5.026   1.731  0.2982  0.3107  0.7140
 5135SOL    HW133015   0.623   5.015   1.691 -0.6355  0.0480  2.6661
 5135SOL    HW233016   0.752   4.940   1.721 -1.2507 -0.8506  3.1115
 5136SOL     OW33017   6.913   0.863   5.110  0.5966  0.0631  0.2434
 5136SOL    HW133018   6.930   0.919   5.186 -0.7539 -0.1784  0.7295
 5136SOL    HW233019   6.998   0.821   5.092  0.8630 -0.0962  1.7751
 5137SOL     OW33020   8.965  11.453  12.036  0.6852 -0.5642 -0.0865
 5137SOL    HW133021   9.045  11.407  12.012 -0.9041 -2.1703 -2.8810
 5137SOL    HW233022   8.969  11.535  11.988  0.9007 -0.4150  0.1895
 5138SOL     OW33023   2.212  13.170   7.144 -0.2855 -0.6539 -0.1529
 5138SOL    HW133024   2.151  13.137   7.210 -0.6889 -1.0154 -0.6961
 5138SOL    HW233025   2.156  13.217   7.082 -0.1210 -1.6085 -1.0540
 5139SOL     OW33026   9.128   4.287   1.958  0.1381 -0.1646 -0.1578
 5139SOL    HW133027   9.209   4.334   1.937 -1.2862  2.6329  0.1898
 5139SOL    HW233028   9.124   4.216   1.894  1.8532  0.8605 -1.4954
 5140SOL     OW33029   6.140   3.375  10.365 -0.0524  0.2837 -0.2336
 5140SOL    HW133030   6.119   3.308  10.431 -0.8392  0.3663 -0.3865
 5140SOL    HW233031   6.194   3.439  10.412 -2.5681  1.6309  1.0765
 5141SOL     OW33032   9.426   2.275   0.420 -0.2596 -0.4786  0.0148
 5141SOL    HW133033   9.505   2.274   0.474  0.5324 -1.6792 -1.0964
 5141SOL    HW233034   9.374   2.201   0.453 -1.3728  0.8435  1.3307
 5142SOL     OW33035  13.287   7.620   1.327 -0.6386  0.1228 -0.0512
 5142SOL    HW133036  13.370   7.652   1.364  1.0435 -2.8504 -0.8943
 5142SOL    HW233037  13.281   7.662   1.241 -0.4633  1.0081  0.3595
 5143SOL     OW33038   3.837   2.315   1.151 -0.2754 -0.0367  0.0629
 5143SOL    HW133039   3.772   2.348   1.213 -0.3967  1.5667 -0.8607
 5143SOL    HW233040   3.885   2.248   1.200 -1.5698 -0.1352  1.2674
 5144SOL     OW33041  12.201   8.025   1.505  0.1175  0.5273  0.3665
 5144SOL    HW133042  12.165   8.008   1.417  2.0607  0.4956 -0.4686
 5144SOL    HW233043  12.125   8.050   1.557 -1.4552 -1.6286 -0.7444
 5145SOL     OW33044   8.261  11.001   2.303 -0.4566 -0.2435  0.2418
 5145SOL    HW133045   8.232  10.913   2.282  0.2535 -0.2302 -0.8702
 5145SOL    HW233046   8.194  11.035   2.362 -0.8785 -1.4197  0.4650
 5146SOL     OW33047   1.042  13.691   9.098 -0.8736  0.1173  0.1865
 5146SOL    HW133048   1.063  13.757   9.165 -0.4125 -0.1585  0.3165
 5146SOL    HW233049   0.947  13.693   9.092 -1.0537 -1.0254  2.0432
 5147SOL     OW33050   9.308  11.771  13.641 -0.0548 -0.1896  0.9059
 5147SOL    HW133051   9.235  11.832  13.649 -0.3769 -0.6053  1.2037
 5147SOL    HW233052   9.357  11.801  13.565 -0.5933  0.0366  0.6469
 5148SOL     OW33053   0.646   6.701  11.228  0.0046 -0.0347 -0.3516
 5148SOL    HW133054   0.674   6.648  11.153  0.2978 -0.7141  0.2219
 5148SOL    HW233055   0.603   6.638  11.286 -1.3171  0.7091 -0.4977
 5149SOL     OW33056   0.821   1.160   5.166 -0.2969  0.2135 -0.5641
 5149SOL    HW133057   0.756   1.092   5.182  1.7481 -1.7704 -0.3090
 5149SOL    HW233058   0.774   1.226   5.115 -2.5082 -1.0798 -0.3173
 5150SOL     OW33059  13.592   8.782   3.979 -0.2217  0.2536  0.9589
 5150SOL    HW133060  13.514   8.832   3.957  0.4956  1.1091  0.2802
 5150SOL    HW233061  13.658   8.812   3.917  0.8223 -0.0071  1.9157
 5151SOL     OW33062   3.745  10.120   4.304 -0.5485 -0.4617 -0.3141
 5151SOL    HW133063   3.761  10.116   4.398 -0.9779 -1.0130 -0.2605
 5151SOL    HW233064   3.735  10.028   4.277 -0.3431 -0.3167 -0.9118
 5152SOL     OW33065   1.617  12.067  10.251 -0.0059 -0.3305  0.7154
 5152SOL    HW133066   1.708  12.093  10.264 -0.8989  3.4367  0.6972
 5152SOL    HW233067   1.568  12.123  10.312 -2.5644  1.1071 -2.3488
 5153SOL     OW33068   0.183   4.460  11.398  0.3795  0.4065  0.1938
 5153SOL    HW133069   0.247   4.428  11.462  0.2097 -0.5759 -0.1065
 5153SOL    HW233070   0.101   4.465  11.448  0.4692  0.6417  0.3167
 5154SOL     OW33071  12.360  12.321  11.051 -0.1697  0.8374 -0.0754
 5154SOL    HW133072  12.418  12.304  11.125 -1.1360 -0.2841  0.4595
 5154SOL    HW233073  12.353  12.236  11.006  0.0004  1.3767 -1.1674
 5155SOL     OW33074   2.583   6.149  12.831  0.1575 -0.2114 -0.5265
 5155SOL    HW133075   2.502   6.099  12.839 -0.0317 -0.3878 -2.8433
 5155SOL    HW233076   2.588   6.199  12.912 -1.9421 -0.6548 -0.0546
 5156SOL     OW33077   3.096  12.299   1.332 -0.1641  0.1832  0.0697
 5156SOL    HW133078   3.043  12.347   1.395 -2.2419 -0.1473 -1.3430
 5156SOL    HW233079   3.113  12.215   1.374  0.0890  0.6457  0.9192
 5157SOL     OW33080   1.430   6.991  11.795 -0.5750 -1.0843  0.0541
 5157SOL    HW133081   1.343   7.024  11.821  0.1972  1.0042  0.1617
 5157SOL    HW233082   1.470   7.064  11.749  1.1196 -2.0444 -0.0500
 5158SOL     OW33083   3.341   3.812   4.538 -0.5283  0.4214 -0.2507
 5158SOL    HW133084   3.394   3.753   4.593 -2.0441 -2.3076 -1.5382
 5158SOL    HW233085   3.391   3.819   4.457 -1.2860 -0.7801 -0.8401
 5159SOL     OW33086   3.717   8.892  14.058  0.1921 -0.0917  0.4007
 5159SOL    HW133087   3.662   8.970  14.064  0.7869  0.4631 -0.9752
 5159SOL    HW233088   3.662   8.827  14.014 -0.1867 -0.3498  1.2406
 5160SOL     OW33089   6.800   6.273  13.999  0.2316 -0.2915 -0.0042
 5160SOL    HW133090   6.894   6.260  14.008  0.4497  1.0663 -0.0349
 5160SOL    HW233091   6.791   6.321  13.917 -0.5820 -1.2121 -0.4714
 5161SOL     OW33092   6.587  13.178  11.034  0.3138 -0.2371  0.1063
 5161SOL    HW133093   6.571  13.104  10.975 -0.0208 -0.4506  0.4607
 5161SOL    HW233094   6.670  13.156  11.078  1.2802  0.5610 -1.2518
 5162SOL     OW33095  12.340   7.257   3.757 -0.3247 -0.0780 -0.3662
 5162SOL    HW133096  12.289   7.177   3.769  0.1467 -0.0786  2.3213
 5162SOL    HW233097  12.367   7.281   3.846  1.2563  1.9468 -1.3218
 5163SOL     OW33098   4.626   4.376   1.618  0.2570 -0.3269 -0.2709
 5163SOL    HW133099   4.608   4.338   1.704  0.0360 -0.8993 -0.5628
 5163SOL    HW233100   4.671   4.305   1.571 -0.2447 -0.2578 -0.8581
 5164SOL     OW33101   3.477   5.806  11.725 -0.2851 -0.6378 -0.1236
 5164SOL    HW133102   3.453   5.739  11.788 -0.1300  0.2886  0.9619
 5164SOL    HW233103   3.510   5.879  11.778  2.7198 -0.9290 -1.4026
 5165SOL     OW33104   5.014   2.662   9.225  0.2018 -0.1234  1.1197
 5165SOL    HW133105   5.092   2.676   9.280 -0.0246  0.9554  1.1897
 5165SOL    HW233106   5.049   2.653   9.137  0.3929  0.8662  1.0775
 5166SOL     OW33107  13.090   2.712   1.384  0.4352 -0.4701 -0.0243
 5166SOL    HW133108  13.141   2.712   1.466  0.2862 -1.1742  0.0719
 5166SOL    HW233109  13.154   2.692   1.316  0.6066  0.3570 -0.1233
 5167SOL     OW33110  12.209   4.134   5.981 -0.6370 -0.1430  0.0905
 5167SOL    HW133111  12.172   4.219   5.960 -0.5697 -0.4495 -1.4265
 5167SOL    HW233112  12.209   4.087   5.897  2.3285 -0.4574  0.1524
 5168SOL     OW33113  13.176  11.373   6.328 -0.3465 -0.1083 -0.0414
 5168SOL    HW133114  13.198  11.362   6.420 -0.5354  0.0852  0.0291
 5168SOL    HW233115  13.209  11.294   6.285  0.7721  0.3238 -0.0017
 5169SOL     OW33116   9.584   4.829   7.784  0.1873  0.2095 -0.5271
 5169SOL    HW133117   9.540   4.907   7.818  0.4959  0.0104  0.3533
 5169SOL    HW233118   9.642   4.863   7.715  1.5194  0.9924  0.9311
 5170SOL     OW33119   9.973   2.029   8.777 -0.1695  0.2858 -0.4438
 5170SOL    HW133120   9.941   1.975   8.704 -1.2414  0.3705 -0.0520
 5170SOL    HW233121   9.919   2.107   8.774  0.4739  0.7509 -0.1727
 5171SOL     OW33122   8.724   3.015   0.430 -0.2371  0.1121 -1.0611
 5171SOL    HW133123   8.817   3.035   0.435  0.1862 -1.5360 -1.4614
 5171SOL    HW233124   8.714   2.970   0.346 -0.6092 -3.0936  0.5311
 5172SOL     OW33125   8.430  11.849   5.116  0.2932  0.1255  0.5571
 5172SOL    HW133126   8.423  11.756   5.136 -0.6083  0.2984  1.1298
 5172SOL    HW233127   8.482  11.885   5.187  2.6092 -0.2659 -0.8256
 5173SOL     OW33128  11.526   1.581  11.604 -0.4321  0.7235  0.3499
 5173SOL    HW133129  11.472   1.597  11.682 -2.6106  1.2553 -1.1719
 5173SOL    HW233130  11.474   1.615  11.531  1.1902 -0.4227 -1.4413
 5174SOL     OW33131   5.364   7.973   2.562 -0.4764 -0.1278  0.0180
 5174SOL    HW133132   5.332   8.000   2.476 -2.0458 -0.9006  0.3240
 5174SOL    HW233133   5.337   7.882   2.570  1.4438 -0.6907  0.5231
 5175SOL     OW33134   5.232   4.143   1.758 -0.0587 -0.2896  0.0429
 5175SOL    HW133135   5.300   4.200   1.794 -0.0892 -1.3211  1.8078
 5175SOL    HW233136   5.280   4.079   1.705  0.0341  0.8558 -1.3296
 5176SOL     OW33137   1.688  10.758  10.986 -0.1567 -0.0179  0.4701
 5176SOL    HW133138   1.598  10.737  10.961 -0.0673 -0.1988  0.3028
 5176SOL    HW233139   1.737  10.759  10.904 -0.2506  1.3037  0.4187
 5177SOL     OW33140   0.567   6.796   8.919  0.1634 -0.2381  0.3453
 5177SOL    HW133141   0.511   6.719   8.931  0.3752 -0.6053 -0.8867
 5177SOL    HW233142   0.554   6.847   8.998  1.0527 -2.1866  1.8399
 5178SOL     OW33143   1.419  10.212  10.100  0.1782 -0.5110  0.0085
 5178SOL    HW133144   1.497  10.167  10.132 -0.3368 -1.7478 -0.4055
 5178SOL    HW233145   1.440  10.233  10.008  1.3282  2.2825  0.7904
 5179SOL     OW33146   6.053  12.769   5.838  0.0998  0.4848 -0.0026
 5179SOL    HW133147   5.984  12.833   5.823 -2.1873 -1.7661  0.2441
 5179SOL    HW233148   6.090  12.752   5.752  0.8796  2.2109 -0.0442
 5180SOL     OW33149   8.954   9.721  13.414 -0.0324 -0.7227  0.1365
 5180SOL    HW133150   8.952   9.735  13.509 -1.4036 -0.4716  0.0893
 5180SOL    HW233151   8.886   9.656  13.399 -2.0376  1.5127 -1.0034
 5181SOL     OW33152   4.744   9.728   0.581 -0.0034  0.1349  0.0304
 5181SOL    HW133153   4.690   9.686   0.514 -1.1041  0.1132  0.8973
 5181SOL    HW233154   4.697   9.808   0.603  1.3475  1.1387 -0.5847
 5182SOL     OW33155   0.390  13.421  13.502 -0.3582 -0.5532  0.0002
 5182SOL    HW133156   0.369  13.355  13.567 -0.2958  0.0693  0.6619
 5182SOL    HW233157   0.307  13.465  13.484 -0.2699 -0.3501  0.0835
 5183SOL     OW33158  12.517   9.063   0.305 -0.0402 -0.5037 -0.1535
 5183SOL    HW133159  12.435   9.053   0.354 -1.3378  0.0084 -2.1165
 5183SOL    HW233160  12.575   8.998   0.343 -0.8700  0.0442  2.2254
 5184SOL     OW33161   7.413   5.460   7.968  0.5373 -0.0641  0.8003
 5184SOL    HW133162   7.414   5.535   7.908  1.0053 -0.8594 -0.2187
 5184SOL    HW233163   7.467   5.487   8.042 -0.5768  1.1775  1.1933
 5185SOL     OW33164  12.797   6.590   0.328 -0.2109 -0.2367 -0.5179
 5185SOL    HW133165  12.843   6.515   0.365 -0.1279  0.7328  1.5362
 5185SOL    HW233166  12.707   6.560   0.314 -0.3440 -0.5788  0.9059
 5186SOL     OW33167  11.179   4.721   1.800 -0.0982  0.1497 -0.3893
 5186SOL    HW133168  11.161   4.727   1.894  0.4170 -0.3183 -0.2544
 5186SOL    HW233169  11.274   4.714   1.794 -0.0943  0.6246 -0.9742
 5187SOL     OW33170   7.994  11.295   8.255 -0.2720 -0.3809 -0.0938
 5187SOL    HW133171   8.040  11.344   8.323  0.6231 -0.1873 -0.8107
 5187SOL    HW233172   7.904  11.286   8.288 -1.0615  3.3789 -0.6540
 5188SOL     OW33173   1.038  11.809   7.272 -0.1041  0.3494  0.5416
 5188SOL    HW133174   1.124  11.776   7.299 -1.0276 -3.2492 -0.4091
 5188SOL    HW233175   1.056  11.865   7.197  1.4288  0.1015  0.6859
 5189SOL     OW33176   5.786   1.377   3.323 -0.3167 -0.7609 -1.1020
 5189SOL    HW133177   5.730   1.381   3.400  1.0443  0.1261 -0.1169
 5189SOL    HW233178   5.844   1.303   3.338  1.7259  0.9500  0.0744
 5190SOL     OW33179   1.699   8.500   8.292 -0.0624 -0.1588 -0.1380
 5190SOL    HW133180   1.668   8.591   8.291 -0.4963 -0.2512  1.5848
 5190SOL    HW233181   1.635   8.452   8.240 -1.0628  0.1949  0.7144
 5191SOL     OW33182   6.890   7.802   5.840 -0.0150 -0.0867 -0.0017
 5191SOL    HW133183   6.958   7.735   5.837  0.4924  0.4269 -0.1010
 5191SOL    HW233184   6.906   7.857   5.763 -1.7819 -1.1332 -1.1728
 5192SOL     OW33185   1.115  11.381   5.453  0.2636  0.1532 -0.0222
 5192SOL    HW133186   1.114  11.289   5.482 -2.8287  0.9264  3.0581
 5192SOL    HW233187   1.147  11.429   5.529 -1.2386  1.8416 -0.3937
 5193SOL     OW33188  12.378  14.010   7.160  0.8421  0.0866 -0.4957
 5193SOL    HW133189  12.349  13.976   7.075 -0.7521  0.5386 -0.1621
 5193SOL    HW233190  12.416  14.095   7.141  0.4852  0.1871 -0.7561
 5194SOL     OW33191  12.759   5.771   1.128 -0.3432  0.1988 -0.0226
 5194SOL    HW133192  12.771   5.747   1.220 -0.7811  0.5828  0.1370
 5194SOL    HW233193  12.781   5.864   1.124  0.5147 -0.0114 -0.4808
 5195SOL     OW33194  13.175   5.501   5.091 -0.4074 -0.0409 -0.7024
 5195SOL    HW133195  13.200   5.508   4.999 -2.3749 -0.0969 -1.2789
 5195SOL    HW233196  13.191   5.588   5.127  2.0371 -0.4610 -0.5940
 5196SOL     OW33197   2.383   9.144  10.427 -0.0957  0.5966 -0.5852
 5196SOL    HW133198   2.316   9.212  10.435 -0.2492  0.5408 -1.3360
 5196SOL    HW233199   2.439   9.173  10.355 -0.8477 -0.6201 -1.7104
 5197SOL     OW33200   6.577  12.712   9.180  0.7032  0.1269  0.6402
 5197SOL    HW133201   6.617  12.746   9.260  1.0767 -1.1560  1.0161
 5197SOL    HW233202   6.570  12.618   9.194 -0.4861  0.0523 -0.3003
 5198SOL     OW33203   5.480   7.806   0.046 -0.2081  0.1532  0.0389
 5198SOL    HW133204   5.454   7.894   0.019  0.1889 -0.0170 -0.9243
 5198SOL    HW233205   5.566   7.793   0.006 -0.7243 -1.0724 -0.7103
 5199SOL     OW33206   8.747  12.920  12.883  0.3033  0.3785 -0.1904
 5199SOL    HW133207   8.759  12.827  12.901  0.0113  0.4141  0.2123
 5199SOL    HW233208   8.712  12.956  12.964  1.6689  1.1050  0.0974
 5200SOL     OW33209   3.877  11.431   7.136  0.5900 -0.0478 -0.1997
 5200SOL    HW133210   3.854  11.433   7.043 -0.0068  2.7312 -0.0616
 5200SOL    HW233211   3.826  11.358   7.172  0.4294 -0.8309 -1.9214
 5201SOL     OW33212  12.001  10.138  12.077 -0.3776  0.1701 -0.0862
 5201SOL    HW133213  11.910  10.145  12.104  0.1796  0.2979  1.8921
 5201SOL    HW233214  12.024  10.225  12.046 -0.4330  0.6427  1.1555
 5202SOL     OW33215   6.576   2.588   3.545 -0.0221 -0.1593  0.6527
 5202SOL    HW133216   6.627   2.572   3.624  1.7330 -0.8425 -0.5485
 5202SOL    HW233217   6.640   2.585   3.474 -1.4996  0.6477 -0.7875
 5203SOL     OW33218  13.465   7.577   6.218 -0.3557  0.6188  0.3597
 5203SOL    HW133219  13.411   7.599   6.141  0.3056  3.6438  0.6323
 5203SOL    HW233220  13.552   7.611   6.196 -0.1824  1.6451  2.4373
 5204SOL     OW33221   5.918  13.692   3.100  0.4123 -0.3768 -0.0961
 5204SOL    HW133222   5.998  13.674   3.051  0.1722 -1.4992 -0.1138
 5204SOL    HW233223   5.885  13.605   3.125  0.1799  0.1389  1.4948
 5205SOL     OW33224  12.540   2.565   5.377  0.1372  0.2827 -0.7362
 5205SOL    HW133225  12.544   2.583   5.471 -0.2296  0.7460 -0.8057
 5205SOL    HW233226  12.466   2.506   5.367  1.3363 -1.3169 -0.5084
 5206SOL     OW33227   9.566  11.854   7.381  0.2856  0.4843  0.1383
 5206SOL    HW133228   9.647  11.904   7.370  1.2897 -1.0127  0.4184
 5206SOL    HW233229   9.497  11.920   7.378  1.5609  1.9112  0.7718
 5207SOL     OW33230   8.868  12.080  12.470  0.4152  0.2908  0.5016
 5207SOL    HW133231   8.836  12.064  12.559 -0.6670  0.1489  0.1103
 5207SOL    HW233232   8.790  12.069  12.415  1.3496 -1.0273 -0.6163
 5208SOL     OW33233   2.483   0.450  12.718 -0.3668 -0.5497  0.0850
 5208SOL    HW133234   2.542   0.483  12.786  0.0233 -0.4979 -0.2798
 5208SOL    HW233235   2.464   0.360  12.745  2.4831 -1.7551 -1.4591
 5209SOL     OW33236   7.510  13.692   5.464 -0.0884  0.0159 -0.2717
 5209SOL    HW133237   7.542  13.624   5.524 -0.6416 -0.0558 -0.0512
 5209SOL    HW233238   7.477  13.644   5.389  1.7005  0.1564 -1.1957
 5210SOL     OW33239   5.770   3.554   0.616  0.0008 -0.4002 -0.3375
 5210SOL    HW133240   5.750   3.635   0.663  1.2479 -2.1124  3.5921
 5210SOL    HW233241   5.865   3.555   0.606 -0.0234 -1.1475 -0.7050
 5211SOL     OW33242  12.117   5.719  11.996  0.0085 -0.1082 -0.5721
 5211SOL    HW133243  12.067   5.744  11.918  0.8694  0.9159 -0.8288
 5211SOL    HW233244  12.198   5.771  11.990  1.2862 -1.9903 -0.3845
 5212SOL     OW33245  10.557   8.575   5.751 -0.1785  0.3801 -0.3060
 5212SOL    HW133246  10.557   8.486   5.786  0.1566  0.2306 -0.6884
 5212SOL    HW233247  10.504   8.624   5.814  0.6848  0.1867  0.6080
 5213SOL     OW33248   0.152  10.614   1.743  0.1087 -0.0556  0.5942
 5213SOL    HW133249   0.223  10.642   1.801 -0.9126 -0.3243  2.0493
 5213SOL    HW233250   0.193  10.552   1.683  1.3016  0.5436  0.7608
 5214SOL     OW33251   0.425   4.871   3.873  0.5800 -0.6413 -0.5064
 5214SOL    HW133252   0.463   4.879   3.961  0.3658  1.1105 -0.5324
 5214SOL    HW233253   0.433   4.778   3.852  1.5609 -0.9274  0.9490
 5215SOL     OW33254  12.646   6.563   4.683  0.0650 -0.0974  0.2612
 5215SOL    HW133255  12.644   6.478   4.641  3.6347 -1.4902  2.3862
 5215SOL    HW233256  12.733   6.598   4.662  0.4982  0.8308  3.1256
 5216SOL     OW33257   0.921   8.667   0.043 -0.5616  0.1867  0.0501
 5216SOL    HW133258   0.855   8.668   0.112 -0.3529  0.3686  0.2508
 5216SOL    HW233259   0.950   8.576   0.039  0.0899  0.3378  0.8573
 5217SOL     OW33260  13.477  10.868  13.708  0.0822  0.0992 -0.2437
 5217SOL    HW133261  13.529  10.831  13.780  0.1432  0.8152  0.0960
 5217SOL    HW233262  13.537  10.928  13.664 -0.5254  1.1995  0.3670
 5218SOL     OW33263  13.237   2.014  11.038  0.1108 -0.1488  0.5795
 5218SOL    HW133264  13.290   2.051  10.969 -1.3171  0.8430 -0.0376
 5218SOL    HW233265  13.184   1.947  10.995 -1.5489  1.1886  0.4188
 5219SOL     OW33266   7.392   4.612  11.713 -0.1501 -0.4095 -0.5722
 5219SOL    HW133267   7.440   4.692  11.693 -0.3420 -0.2832 -0.5306
 5219SOL    HW233268   7.411   4.553  11.640 -0.6165 -0.0531 -0.9868
 5220SOL     OW33269  13.032  12.223  11.102 -0.0170 -0.0518  0.6764
 5220SOL    HW133270  13.019  12.167  11.025  1.6497  1.4108 -0.7573
 5220SOL    HW233271  13.122  12.205  11.129 -0.1155  0.5303  1.3911
 5221SOL     OW33272  12.415   9.980   0.615  0.2267 -0.7114 -1.0181
 5221SOL    HW133273  12.384  10.049   0.556 -1.4452 -2.1826 -1.9420
 5221SOL    HW233274  12.488   9.940   0.567  1.8876  0.9662 -0.0434
 5222SOL     OW33275   0.634  14.053  13.375  0.3895 -0.0231 -0.4340
 5222SOL    HW133276   0.605  14.051  13.284 -0.0144 -0.6331 -0.3052
 5222SOL    HW233277   0.581  13.985  13.418  0.1968  0.6107  0.3664
 5223SOL     OW33278   8.623   0.883  13.047 -0.0629  0.0876  0.1909
 5223SOL    HW133279   8.681   0.958  13.062  0.6629 -0.0013 -1.7803
 5223SOL    HW233280   8.536   0.921  13.039  0.2338  0.6826 -0.3375
 5224SOL     OW33281  13.114   8.458   5.762  0.0824 -0.2928  0.3435
 5224SOL    HW133282  13.072   8.498   5.839  0.3567 -0.3240  0.5092
 5224SOL    HW233283  13.083   8.511   5.688 -0.3265 -0.3744  0.4533
 5225SOL     OW33284  13.644  10.208   2.084  0.5947 -0.5815  0.0979
 5225SOL    HW133285  13.728  10.214   2.129  0.5625  0.8579 -0.0070
 5225SOL    HW233286  13.666  10.222   1.991  0.2405 -0.1445  0.0769
 5226SOL     OW33287  11.803   5.014   0.068  0.4162  0.5481 -0.3279
 5226SOL    HW133288  11.843   4.958   0.134  0.4152  1.4229  0.4348
 5226SOL    HW233289  11.717   5.037   0.104 -0.3109 -0.3543 -1.4205
 5227SOL     OW33290   6.378   8.075   2.812  0.4442  0.4974 -0.1163
 5227SOL    HW133291   6.339   8.129   2.881 -1.2357  0.8920 -1.3062
 5227SOL    HW233292   6.318   8.001   2.804  1.2970 -0.1769 -0.3297
 5228SOL     OW33293   5.710   2.928   7.929 -0.0061 -0.1310 -0.2440
 5228SOL    HW133294   5.730   2.966   8.015 -0.8782  1.5684 -0.7379
 5228SOL    HW233295   5.776   2.966   7.871 -0.2374 -0.2072 -0.5613
 5229SOL     OW33296   1.413  11.907   3.071 -0.4646  0.4114  0.5265
 5229SOL    HW133297   1.398  11.823   3.114 -1.0027  0.4164  0.3567
 5229SOL    HW233298   1.369  11.971   3.126  1.4798  0.8622  1.6700
 5230SOL     OW33299   7.140   9.851   5.569  0.4363  0.0426 -0.2130
 5230SOL    HW133300   7.162   9.878   5.480  1.5204 -1.3609 -0.3992
 5230SOL    HW233301   7.192   9.908   5.626 -1.8424  2.4416 -0.3061
 5231SOL     OW33302  10.395   6.596   3.328 -0.3566 -0.5446 -0.7576
 5231SOL    HW133303  10.432   6.513   3.298 -0.0194 -0.4691 -0.5501
 5231SOL    HW233304  10.364   6.578   3.416 -0.4059 -0.4861 -0.7630
 5232SOL     OW33305   5.857   5.736   2.811 -0.7235 -0.1445  0.3657
 5232SOL    HW133306   5.842   5.799   2.882  3.0998  0.4321  0.8856
 5232SOL    HW233307   5.882   5.655   2.855  0.0284 -0.2771 -0.2795
 5233SOL     OW33308   2.949   8.873   8.166  0.0537 -0.0090 -0.3954
 5233SOL    HW133309   2.941   8.841   8.256 -3.9268 -3.1936 -1.6059
 5233SOL    HW233310   2.914   8.962   8.169 -0.0635 -0.0825  1.1543
 5234SOL     OW33311   1.734   0.111   3.759  0.2743  0.1802 -0.4778
 5234SOL    HW133312   1.747   0.158   3.841 -0.1479 -0.2814 -0.1438
 5234SOL    HW233313   1.681   0.035   3.783  1.4142 -0.7826 -0.9006
 5235SOL     OW33314  11.595   5.924   7.777  0.1054  0.7026 -0.2925
 5235SOL    HW133315  11.659   5.992   7.797  0.7282  0.1843 -0.4808
 5235SOL    HW233316  11.648   5.850   7.746 -0.5290  0.0352  0.1824
 5236SOL     OW33317   9.972  11.133   2.814  0.4209 -0.1284 -0.1307
 5236SOL    HW133318  10.058  11.168   2.794  0.2623 -0.4398 -1.4970
 5236SOL    HW233319   9.964  11.056   2.757 -1.1473  0.4920 -0.8207
 5237SOL     OW33320  12.314   9.124   8.133  0.1833 -0.1744 -0.1751
 5237SOL    HW133321  12.355   9.210   8.138  1.0934 -0.6529  1.1780
 5237SOL    HW233322  12.239   9.136   8.074  1.2860  1.1198 -1.3825
 5238SOL     OW33323   9.573   3.382   4.924 -0.4657  0.0048  0.0802
 5238SOL    HW133324   9.533   3.367   5.010 -0.5089  1.0098  0.2466
 5238SOL    HW233325   9.503   3.365   4.861 -1.4302  2.4762  0.3970
 5239SOL     OW33326   6.305   5.206  13.260  0.5223  0.3387  0.3932
 5239SOL    HW133327   6.390   5.164  13.267  1.3873  1.9190 -0.1109
 5239SOL    HW233328   6.273   5.209  13.351  0.6455 -0.9052  0.4991
 5240SOL     OW33329   3.956   1.893   0.286  0.1064  0.4153  0.0484
 5240SOL    HW133330   3.871   1.937   0.277  0.3310  0.7294 -0.5948
 5240SOL    HW233331   3.934   1.801   0.298 -0.3168  0.2737 -1.5353
 5241SOL     OW33332   1.066  11.242   0.478  0.2434  0.1729  0.4128
 5241SOL    HW133333   1.105  11.169   0.527  1.5412 -0.8962 -2.0375
 5241SOL    HW233334   1.035  11.203   0.397 -1.1206  2.0038 -0.0225
 5242SOL     OW33335   0.010   1.534   5.342 -0.0522  0.4197 -0.0365
 5242SOL    HW133336  -0.019   1.484   5.418  1.9468 -1.7558 -0.5669
 5242SOL    HW233337  -0.046   1.504   5.270  1.0377 -1.1089 -0.3201
 5243SOL     OW33338  10.766   1.888  10.417  0.2099  0.3815  0.0901
 5243SOL    HW133339  10.761   1.968  10.364  1.6454 -0.6091 -1.6731
 5243SOL    HW233340  10.860   1.876  10.433 -0.1403  0.2706  2.3471
 5244SOL     OW33341   5.048   8.024   0.859  0.5099  0.3543  0.4370
 5244SOL    HW133342   5.112   8.075   0.809  0.6792  1.3933  1.6747
 5244SOL    HW233343   5.040   8.069   0.943  0.9922 -1.8873  1.7838
 5245SOL     OW33344   2.842   9.154   2.165  0.2665 -0.1937 -0.2115
 5245SOL    HW133345   2.910   9.204   2.121  2.1359  0.2480  2.8771
 5245SOL    HW233346   2.868   9.063   2.155 -0.6742 -0.3125 -1.9801
 5246SOL     OW33347   4.282   5.576   5.267 -0.7693  0.2053  0.0517
 5246SOL    HW133348   4.315   5.521   5.337 -1.0755 -0.4520 -0.3088
 5246SOL    HW233349   4.192   5.545   5.252 -0.0588 -1.0581 -1.9922
 5247SOL     OW33350   6.993  13.478   4.545  0.5639  0.4882  0.1703
 5247SOL    HW133351   6.969  13.509   4.458  0.3405  0.0136  0.0633
 5247SOL    HW233352   6.934  13.404   4.562  0.3806  0.7788  0.8550
 5248SOL     OW33353   2.343   1.096   2.261 -0.2933 -0.0848  0.2490
 5248SOL    HW133354   2.435   1.117   2.243  0.1090 -2.7307 -1.4714
 5248SOL    HW233355   2.297   1.179   2.254  1.7411  1.0390 -0.6038
 5249SOL     OW33356  10.760   1.236   6.781  0.5230 -0.3963  0.5297
 5249SOL    HW133357  10.819   1.233   6.706  0.9442 -0.7697  0.8745
 5249SOL    HW233358  10.817   1.227   6.857  0.0960 -0.0443  0.8946
 5250SOL     OW33359  12.444   1.642  13.996 -0.3148 -0.3691  0.0130
 5250SOL    HW133360  12.492   1.644  14.079 -2.1405  1.0323  1.1126
 5250SOL    HW233361  12.403   1.555  13.995  0.8278 -0.9300 -0.1380
 5251SOL     OW33362  11.129   0.334   7.776  0.2175  0.1570 -0.3101
 5251SOL    HW133363  11.178   0.293   7.848  4.4883  0.2579 -2.8427
 5251SOL    HW233364  11.136   0.428   7.794  0.4956  0.1485 -0.3579
 5252SOL     OW33365  12.521   6.592   0.296 -0.2651  0.1770  0.0177
 5252SOL    HW133366  12.512   6.567   0.204 -0.7711  0.5509 -0.0435
 5252SOL    HW233367  12.464   6.530   0.343  1.9607 -1.7043  0.4005
 5253SOL     OW33368   9.571   5.247   4.463  0.2641 -0.1271 -0.2535
 5253SOL    HW133369   9.546   5.339   4.456 -0.9153 -0.4334 -0.3322
 5253SOL    HW233370   9.559   5.212   4.375 -2.1063 -0.9997  0.3476
 5254SOL     OW33371  13.799  10.970  13.676  0.2977 -0.6756 -0.1379
 5254SOL    HW133372  13.767  11.059  13.687 -0.1380 -0.7418 -0.8201
 5254SOL    HW233373  13.837  10.947  13.761 -0.9649 -0.4056  0.5137
 5255SOL     OW33374  13.302   0.322   5.619  0.8617  0.5628  0.8354
 5255SOL    HW133375  13.320   0.262   5.692 -0.5814 -2.8638 -1.3721
 5255SOL    HW233376  13.364   0.296   5.551 -0.8021  0.4881 -0.7275
 5256SOL     OW33377   0.987  12.181  13.694  0.2536 -0.9704 -0.2676
 5256SOL    HW133378   0.912  12.211  13.642  0.3684 -2.3226 -1.2631
 5256SOL    HW233379   1.003  12.091  13.665  2.0159 -0.8596  0.2043
 5257SOL     OW33380  10.252   2.101   8.777 -0.8650 -0.5284  0.2781
 5257SOL    HW133381  10.284   2.062   8.696 -1.7860  0.4467 -0.5758
 5257SOL    HW233382  10.167   2.060   8.792 -0.3840 -1.2495  1.1799
 5258SOL     OW33383  12.205   8.241  12.218  0.2556  0.5478  0.0769
 5258SOL    HW133384  12.124   8.210  12.258  0.1389 -0.1592 -0.6857
 5258SOL    HW233385  12.179   8.272  12.132  0.4306  2.4806  0.6638
 5259SOL     OW33386   3.750  11.909   1.981  0.1404 -0.6635  0.1303
 5259SOL    HW133387   3.710  11.832   1.941  0.5802  0.3115 -2.4097
 5259SOL    HW233388   3.790  11.956   1.908  2.2177  0.6119  1.9521
 5260SOL     OW33389  13.956   3.806   6.237  0.0755  0.6530  0.5166
 5260SOL    HW133390  14.018   3.734   6.249 -1.1992 -0.5599  0.2483
 5260SOL    HW233391  13.955   3.821   6.142 -0.4811  0.2227  0.4452
 5261SOL     OW33392   4.313  10.242  12.199 -0.6677 -0.6012  0.0247
 5261SOL    HW133393   4.393  10.246  12.147 -0.3296  0.2125  0.5826
 5261SOL    HW233394   4.243  10.262  12.138 -0.4404 -1.2341 -0.4517
 5262SOL     OW33395   6.500   4.667  13.647  0.4852  0.3551 -0.7780
 5262SOL    HW133396   6.541   4.642  13.730 -1.7315  0.0384  0.2941
 5262SOL    HW233397   6.502   4.588  13.594  1.5292  0.4404 -0.8837
 5263SOL     OW33398   2.490   5.730   8.993  0.1976 -0.2251  0.2111
 5263SOL    HW133399   2.492   5.791   9.066  0.9439 -1.4360  1.2333
 5263SOL    HW233400   2.493   5.786   8.915 -0.2824  1.0670  1.0894
 5264SOL     OW33401   1.464   4.859   4.362  0.3956 -0.1992 -0.1098
 5264SOL    HW133402   1.451   4.953   4.353  2.5007 -0.0236 -1.9028
 5264SOL    HW233403   1.381   4.827   4.399 -0.3317  2.3236  0.6043
 5265SOL     OW33404   8.004   0.753   4.485  0.0454 -0.2602 -0.1245
 5265SOL    HW133405   7.951   0.676   4.506  0.3326 -0.7682 -1.1693
 5265SOL    HW233406   8.078   0.749   4.546 -0.9781  0.3336  1.1974
 5266SOL     OW33407  13.586  12.440   1.995 -0.1633  0.4036  0.6887
 5266SOL    HW133408  13.495  12.452   2.025 -0.1820  1.3523  0.2914
 5266SOL    HW233409  13.578  12.426   1.901  0.0770  0.0478  0.7219
 5267SOL     OW33410   6.105   9.131  13.731 -0.2688  0.4789 -0.4530
 5267SOL    HW133411   6.169   9.146  13.800  0.1724 -0.0624 -0.7356
 5267SOL    HW233412   6.081   9.039  13.740  1.5698 -0.2759 -2.4687
 5268SOL     OW33413   8.749  12.001   2.151 -0.1047 -0.2140 -0.5507
 5268SOL    HW133414   8.772  12.002   2.059 -0.8851  0.6132 -0.7524
 5268SOL    HW233415   8.832  11.985   2.197  0.5224  0.7183 -1.3344
 5269SOL     OW33416   9.111   8.929   8.917 -0.2482 -0.5245  0.1729
 5269SOL    HW133417   9.166   8.851   8.910 -0.9098 -1.1566  1.5583
 5269SOL    HW233418   9.039   8.913   8.856  0.2443 -0.4338 -0.4392
 5270SOL     OW33419   3.065   8.155   9.733 -0.1649 -0.4842 -0.1663
 5270SOL    HW133420   3.125   8.095   9.689  1.8834  0.6822  0.9075
 5270SOL    HW233421   3.081   8.142   9.826 -0.2294  1.1468  0.1120
 5271SOL     OW33422  10.712  10.157  11.404  0.2971  0.5440 -0.7770
 5271SOL    HW133423  10.807  10.167  11.412  0.2554  1.4234 -1.2301
 5271SOL    HW233424  10.686  10.227  11.344 -0.5373 -0.1810 -1.2881
 5272SOL     OW33425   8.655   3.155   5.040 -0.5986  0.2241  0.0402
 5272SOL    HW133426   8.612   3.105   5.109  0.3227 -0.5711  0.0579
 5272SOL    HW233427   8.734   3.191   5.081  0.6325 -1.3114 -0.8850
 5273SOL     OW33428  13.943   3.745  13.070  0.0248 -0.4063 -0.0105
 5273SOL    HW133429  13.894   3.764  12.991 -0.4489 -0.6844  0.2080
 5273SOL    HW233430  13.881   3.762  13.142 -0.1643 -1.9228  0.2216
 5274SOL     OW33431  10.601  10.420   4.664  0.5395  0.3176 -0.0572
 5274SOL    HW133432  10.515  10.405   4.704 -0.0910 -0.2122 -1.5290
 5274SOL    HW233433  10.663  10.385   4.728 -0.4583 -0.9671  0.2690
 5275SOL     OW33434   6.117   2.166   5.737  0.2024 -0.3166  0.0224
 5275SOL    HW133435   6.176   2.217   5.792  0.1056  1.6354 -1.5800
 5275SOL    HW233436   6.170   2.139   5.662  0.2547 -2.6799  0.8358
 5276SOL     OW33437   6.035   2.501   7.274  0.6410  0.5251  0.0268
 5276SOL    HW133438   6.057   2.589   7.305  0.1080  0.6822 -0.0271
 5276SOL    HW233439   5.994   2.515   7.189  0.2077  0.2616  0.1856
 5277SOL     OW33440   1.327   8.735   7.618  0.5852 -0.1147  0.2291
 5277SOL    HW133441   1.303   8.738   7.525  1.8453  0.2693 -0.0962
 5277SOL    HW233442   1.309   8.645   7.644 -2.6871  0.4617  0.4550
 5278SOL     OW33443  10.764   3.612   2.880  0.0535 -0.0360 -0.2199
 5278SOL    HW133444  10.736   3.679   2.943 -0.1353 -0.2198 -0.1035
 5278SOL    HW233445  10.785   3.660   2.801  1.0330  0.2830  0.2159
 5279SOL     OW33446  13.088   4.232   9.267 -0.9512 -0.3093 -0.5713
 5279SOL    HW133447  13.090   4.295   9.194  0.1603 -0.6565 -0.8565
 5279SOL    HW233448  13.030   4.273   9.332 -2.8177 -0.4626 -2.0438
 5280SOL     OW33449   0.010   1.347   4.877 -0.2871 -0.2379 -0.3423
 5280SOL    HW133450   0.068   1.415   4.843 -0.1667  0.5834  1.3801
 5280SOL    HW233451  -0.078   1.385   4.872 -0.2776 -0.1442  0.1553
 5281SOL     OW33452   9.525  12.807  12.969  0.2434 -0.3758 -0.0271
 5281SOL    HW133453   9.577  12.852  13.035  1.7606  0.1042 -1.4755
 5281SOL    HW233454   9.536  12.860  12.890 -3.1217  0.2136 -0.2563
 5282SOL     OW33455   7.838   1.273   5.768 -0.5113 -0.4716 -0.1324
 5282SOL    HW133456   7.860   1.273   5.675  2.8316 -0.0071  0.5273
 5282SOL    HW233457   7.906   1.219   5.809  0.0206  1.8647  2.3438
 5283SOL     OW33458  12.030   6.184  13.082  0.0224  0.0053  0.0039
 5283SOL    HW133459  12.069   6.119  13.140  1.1415  0.8385  0.2340
 5283SOL    HW233460  12.100   6.205  13.019 -0.3317  0.9119 -0.1074
 5284SOL     OW33461   6.402   0.107   6.301 -0.4672 -0.4932 -0.3054
 5284SOL    HW133462   6.357   0.118   6.385  3.6055  0.1692  2.0224
 5284SOL    HW233463   6.369   0.179   6.246 -3.8623 -1.4447  0.2181
 5285SOL     OW33464   7.713  10.374  13.511  0.0499  0.1857  0.5676
 5285SOL    HW133465   7.739  10.312  13.443  2.8497  3.4079 -1.6377
 5285SOL    HW233466   7.634  10.416  13.476 -0.5625 -0.5368  1.0396
 5286SOL     OW33467   8.613   7.324  12.658  0.1089 -0.0924 -0.5521
 5286SOL    HW133468   8.618   7.246  12.603  0.4222 -0.8841  0.5624
 5286SOL    HW233469   8.565   7.295  12.736  0.4651  0.7615 -0.0025
 5287SOL     OW33470   9.014   4.920   4.660 -0.0312 -0.4067  0.0204
 5287SOL    HW133471   9.101   4.945   4.690 -0.5836  0.3197  1.0977
 5287SOL    HW233472   9.028   4.883   4.573  1.3969 -0.7448  0.3750
 5288SOL     OW33473  11.832  12.362   8.321 -0.2980 -0.1743  0.2567
 5288SOL    HW133474  11.916  12.337   8.358 -0.0087 -0.9604 -0.8940
 5288SOL    HW233475  11.769  12.346   8.391  0.3443 -0.7514  0.7133
 5289SOL     OW33476   3.132   2.057   0.848  0.5016  0.3988  0.1680
 5289SOL    HW133477   3.148   2.110   0.927  1.2316  1.2213 -0.5140
 5289SOL    HW233478   3.173   1.972   0.868  0.9638  0.7053  0.5453
 5290SOL     OW33479   3.604   3.469   0.306  0.0921  0.1561  0.3489
 5290SOL    HW133480   3.697   3.481   0.328 -0.0170 -0.0785  0.9583
 5290SOL    HW233481   3.566   3.428   0.384 -0.3915 -0.3526 -0.1487
 5291SOL     OW33482   3.391   5.000   4.719  0.1933  0.2682 -0.4877
 5291SOL    HW133483   3.369   4.936   4.786 -0.1101  0.3430 -0.5135
 5291SOL    HW233484   3.486   5.007   4.722  0.0695  1.8093  1.3522
 5292SOL     OW33485   1.109  12.613  12.800  0.2229 -0.0508  0.4598
 5292SOL    HW133486   1.079  12.704  12.799  3.1046  1.0384 -1.5815
 5292SOL    HW233487   1.124  12.593  12.892 -0.7889  1.4060  0.9750
 5293SOL     OW33488   2.139   7.460   2.196  0.2249 -0.0968  0.1108
 5293SOL    HW133489   2.217   7.481   2.248  1.2558  0.9747 -1.7768
 5293SOL    HW233490   2.072   7.521   2.228  0.8479  0.5682  0.1746
 5294SOL     OW33491   8.011   6.553   7.852  0.5474  0.4361  0.4203
 5294SOL    HW133492   8.011   6.457   7.853 -0.2917  0.4280  0.1403
 5294SOL    HW233493   8.075   6.575   7.784  1.4222  0.0962  1.1177
 5295SOL     OW33494   8.328  10.562   2.911  0.1242  0.3435  0.3243
 5295SOL    HW133495   8.406  10.505   2.911 -1.1993 -1.5724 -0.5419
 5295SOL    HW233496   8.318  10.588   3.002  1.7477  0.5993  0.4598
 5296SOL     OW33497   2.755   0.850  10.724 -0.0076 -0.3600  0.4902
 5296SOL    HW133498   2.794   0.771  10.688  0.4953  0.0304  0.1590
 5296SOL    HW233499   2.824   0.916  10.717 -0.9490  0.5436 -0.7883
 5297SOL     OW33500  12.089   2.767   3.891 -0.1344 -0.1964 -0.2076
 5297SOL    HW133501  12.169   2.817   3.877  1.8981 -2.6632  1.5219
 5297SOL    HW233502  12.070   2.728   3.805 -0.3351  1.4749 -0.9621
 5298SOL     OW33503  10.659   4.187   3.182  0.6375 -0.2211  0.0036
 5298SOL    HW133504  10.588   4.192   3.247  0.2139  0.8208 -0.5247
 5298SOL    HW233505  10.695   4.099   3.194  0.5840 -0.0536  1.6694
 5299SOL     OW33506   3.736   7.599  12.864 -0.0032  0.4953  0.4413
 5299SOL    HW133507   3.678   7.652  12.919 -1.4477 -0.0558 -0.4940
 5299SOL    HW233508   3.685   7.521  12.844 -0.2263  1.4067 -3.0537
 5300SOL     OW33509   5.037  12.102   9.262  0.4831 -1.0694  0.4746
 5300SOL    HW133510   4.979  12.028   9.243  0.0571 -0.9797  1.3928
 5300SOL    HW233511   5.095  12.069   9.331  3.3184 -2.0675 -2.1210
 5301SOL     OW33512   2.349   9.086  12.541  0.1909 -0.2321  0.1581
 5301SOL    HW133513   2.261   9.107  12.572 -0.2161  0.5409 -1.4017
 5301SOL    HW233514   2.358   8.992  12.556 -1.5666 -0.6645 -1.1644
 5302SOL     OW33515   7.826   0.787   2.539 -0.1520 -0.4546 -0.0379
 5302SOL    HW133516   7.887   0.753   2.473  0.2673  0.0189  0.0901
 5302SOL    HW233517   7.789   0.866   2.498 -0.6251 -0.6975 -0.0841
 5303SOL     OW33518  12.650   9.563   0.521 -0.2933 -0.1829 -0.1488
 5303SOL    HW133519  12.731   9.570   0.571 -1.0776  1.5343  0.9763
 5303SOL    HW233520  12.667   9.494   0.457  2.1867  0.3991 -0.2107
 5304SOL     OW33521   2.233   2.041   7.742 -1.1027  0.6391 -0.4163
 5304SOL    HW133522   2.275   2.115   7.787 -2.5116  1.5232 -0.4994
 5304SOL    HW233523   2.140   2.059   7.748 -1.4501 -0.8053 -1.0543
 5305SOL     OW33524   3.019   2.338   9.579 -0.1840  0.0027 -0.2263
 5305SOL    HW133525   2.971   2.353   9.660 -0.7884 -0.9113 -0.3974
 5305SOL    HW233526   3.047   2.247   9.585  0.4243  0.1514 -0.7089
 5306SOL     OW33527   0.027   6.146   2.195  0.0162  0.1894 -0.4625
 5306SOL    HW133528  -0.029   6.093   2.138 -0.4297  0.9885 -0.7952
 5306SOL    HW233529  -0.023   6.155   2.276  0.9948 -1.6153  0.3952
 5307SOL     OW33530   9.165   0.773   1.831  0.1046 -0.3627 -0.2324
 5307SOL    HW133531   9.086   0.739   1.787 -1.1961  0.8626  1.0706
 5307SOL    HW233532   9.194   0.701   1.887 -0.8487 -0.3991  0.2330
 5308SOL     OW33533  10.212   1.330  13.508  0.0238  0.2953 -0.2337
 5308SOL    HW133534  10.241   1.395  13.571  0.2923 -0.0315 -0.0171
 5308SOL    HW233535  10.140   1.284  13.551 -0.7786  1.0538 -0.7397
 5309SOL     OW33536  10.629   3.817  12.777  0.0290 -0.6843 -0.1485
 5309SOL    HW133537  10.722   3.803  12.759  0.4858  1.7499  0.0418
 5309SOL    HW233538  10.594   3.728  12.788  1.8600 -1.8061 -2.3172
 5310SOL     OW33539  13.635   0.829   1.609 -0.5816  0.4872  0.8407
 5310SOL    HW133540  13.603   0.903   1.660 -1.2570  1.1339 -0.4592
 5310SOL    HW233541  13.619   0.753   1.665 -3.0164  0.9609  0.9069
 5311SOL     OW33542   9.785   0.285   3.237  0.4218 -0.2584 -0.0145
 5311SOL    HW133543   9.762   0.319   3.323  1.3493 -1.1499  0.6126
 5311SOL    HW233544   9.791   0.190   3.249 -1.0371 -0.5892 -1.4598
 5312SOL     OW33545   0.987   6.063   4.813  0.0369  0.2070 -0.6686
 5312SOL    HW133546   1.028   5.999   4.871 -0.0542  0.8897  0.1575
 5312SOL    HW233547   0.930   6.011   4.756 -0.9454 -0.3272  0.7605
 5313SOL     OW33548   0.159   5.485   1.155  0.2741 -0.0558 -0.4550
 5313SOL    HW133549   0.242   5.532   1.147  0.4091 -0.1264  0.4597
 5313SOL    HW233550   0.118   5.520   1.234 -0.0037 -0.8906 -0.2177
 5314SOL     OW33551  13.484   7.340  12.470 -0.2117  0.3624  0.2796
 5314SOL    HW133552  13.454   7.346  12.560  0.4106  0.1772  0.5011
 5314SOL    HW233553  13.576   7.317  12.476 -0.3847 -0.6034 -0.4114
 5315SOL     OW33554   4.328   6.001  13.046 -0.1856  0.6307 -0.4288
 5315SOL    HW133555   4.318   6.057  12.969 -3.6469 -1.2550 -1.5435
 5315SOL    HW233556   4.381   5.928  13.015 -0.5848  0.4483 -0.6864
 5316SOL     OW33557   7.377   6.275   3.205  0.3285  0.1421  0.0703
 5316SOL    HW133558   7.385   6.314   3.119 -0.5236  1.0066  0.3666
 5316SOL    HW233559   7.289   6.237   3.206 -0.0218  0.9398  0.8631
 5317SOL     OW33560   4.903   3.260  10.775  0.6964 -0.1382  0.3018
 5317SOL    HW133561   4.997   3.244  10.782  0.6541  0.1072  1.7829
 5317SOL    HW233562   4.881   3.307  10.855 -0.7668 -0.5424  0.1621
 5318SOL     OW33563   2.169   1.990   3.410 -0.1703 -0.1735  0.1321
 5318SOL    HW133564   2.227   1.923   3.374 -0.0273  1.1375 -2.2971
 5318SOL    HW233565   2.227   2.049   3.458  0.5497  0.8890 -1.9171
 5319SOL     OW33566   6.185   8.004   8.759  0.2429 -0.2616  0.0658
 5319SOL    HW133567   6.277   8.011   8.736 -0.1550  0.9677 -1.3291
 5319SOL    HW233568   6.161   7.915   8.733  0.8072 -0.2578 -0.5082
 5320SOL     OW33569  13.093  12.756   9.508  0.4784 -0.3566 -0.3201
 5320SOL    HW133570  13.106  12.792   9.420 -1.3371 -1.1021 -0.9335
 5320SOL    HW233571  13.034  12.818   9.550  1.2667 -0.0550  0.3694
 5321SOL     OW33572   7.741   9.923   4.922  0.4106 -0.1988  0.2590
 5321SOL    HW133573   7.739   9.885   5.010  1.4492 -1.0501 -0.0673
 5321SOL    HW233574   7.745   9.847   4.863  1.0624  0.3932 -0.4707
 5322SOL     OW33575  12.047   2.080   6.619  0.1394  0.2709  0.1770
 5322SOL    HW133576  12.058   2.012   6.686  1.4559  1.9330  1.7759
 5322SOL    HW233577  12.089   2.157   6.657  0.1154  1.5565 -2.2318
 5323SOL     OW33578  10.176   3.050   9.906  0.2359  0.3603 -0.0871
 5323SOL    HW133579  10.177   2.956   9.923  0.7146  0.2901 -0.4559
 5323SOL    HW233580  10.260   3.082   9.940 -0.1393  0.7406  0.4900
 5324SOL     OW33581  13.921   0.038   3.165 -0.2174  0.5185  0.3150
 5324SOL    HW133582  13.872   0.109   3.124  0.3260  1.6458  1.5436
 5324SOL    HW233583  13.869  -0.041   3.149 -0.4361  1.0355 -1.7819
 5325SOL     OW33584  13.357   0.568  11.740  0.1521  0.3353 -0.2423
 5325SOL    HW133585  13.372   0.498  11.803  0.3225  0.8007  0.2448
 5325SOL    HW233586  13.445   0.591  11.709 -0.0419 -0.9573 -1.8405
 5326SOL     OW33587   0.252   8.872   4.286  0.5438 -0.1970  0.1152
 5326SOL    HW133588   0.259   8.818   4.207 -1.7984  0.8787 -0.9341
 5326SOL    HW233589   0.230   8.960   4.253  0.3084  0.4648  1.9311
 5327SOL     OW33590  13.859  12.704   9.742 -0.1194  0.3473 -0.4726
 5327SOL    HW133591  13.920  12.686   9.813 -0.6097 -0.1619 -0.1764
 5327SOL    HW233592  13.773  12.686   9.779 -0.2782 -2.0008 -1.7936
 5328SOL     OW33593   7.044   5.951   1.438  0.5883 -0.3489  0.5228
 5328SOL    HW133594   6.984   5.962   1.364  1.7105  0.8771 -0.2584
 5328SOL    HW233595   6.990   5.969   1.515  0.0492  1.4157 -0.1959
 5329SOL     OW33596   2.484   8.475  12.273  0.0391  0.2571 -0.3010
 5329SOL    HW133597   2.523   8.393  12.241  0.5002  1.1795 -2.2116
 5329SOL    HW233598   2.552   8.513  12.328  0.8223  0.5454 -1.4354
 5330SOL     OW33599  12.227  10.320   2.080  0.2099  0.1002 -0.0722
 5330SOL    HW133600  12.298  10.293   2.138  1.0513  3.3741  0.6204
 5330SOL    HW233601  12.164  10.364   2.137 -1.4602 -0.9830 -0.9753
 5331SOL     OW33602   7.135  14.023   2.355 -0.0273  0.5463 -0.6514
 5331SOL    HW133603   7.062  14.040   2.295 -1.1685  1.7504  1.0045
 5331SOL    HW233604   7.160  13.933   2.337 -0.3411  0.8540 -2.9010
 5332SOL     OW33605   7.253   2.191   0.806 -0.9074  0.2377 -0.0835
 5332SOL    HW133606   7.176   2.242   0.779 -2.0375 -1.8283 -1.0252
 5332SOL    HW233607   7.217   2.105   0.830  1.1051 -0.7791 -0.5319
 5333SOL     OW33608  10.000   3.204   9.784  0.0855  0.0149 -0.2495
 5333SOL    HW133609  10.059   3.151   9.838 -0.6367 -0.6664 -0.0980
 5333SOL    HW233610   9.999   3.290   9.826  1.1115  0.0928 -0.3712
 5334SOL     OW33611   3.562   2.426   5.797  0.3368  0.0248 -0.5386
 5334SOL    HW133612   3.563   2.514   5.758 -1.9018 -0.1870 -1.2515
 5334SOL    HW233613   3.493   2.430   5.863 -2.0583 -1.9126 -2.6830
 5335SOL     OW33614   4.303   7.909   4.028  0.0433  0.1404 -0.0787
 5335SOL    HW133615   4.236   7.977   4.038 -0.4084 -0.2523 -0.3997
 5335SOL    HW233616   4.327   7.885   4.117 -0.7518 -0.2135  0.0444
 5336SOL     OW33617   0.850   0.797  10.681  0.3164 -0.4159 -0.3177
 5336SOL    HW133618   0.918   0.730  10.674  0.9285  0.2391 -0.8319
 5336SOL    HW233619   0.788   0.761  10.744  0.0636 -1.9504 -1.3857
 5337SOL     OW33620   5.003  13.033   3.033  0.0094 -0.1829  0.3834
 5337SOL    HW133621   5.006  13.053   3.127  0.9848  1.5684  0.0209
 5337SOL    HW233622   4.917  12.993   3.020  0.2130 -1.2879  2.1598
 5338SOL     OW33623  12.779   1.694   0.787 -0.0884 -0.0576  0.1325
 5338SOL    HW133624  12.806   1.645   0.710  0.3419 -1.7525  1.3092
 5338SOL    HW233625  12.858   1.738   0.818  0.0916 -0.5988  0.4531
 5339SOL     OW33626   4.258   1.427   7.104  0.8454  0.3266  0.1573
 5339SOL    HW133627   4.331   1.473   7.146 -0.9916  1.1845  2.6061
 5339SOL    HW233628   4.271   1.444   7.010  2.2106  2.8904  0.7193
 5340SOL     OW33629   2.797   0.605   2.259 -0.2330 -0.0349  0.3991
 5340SOL    HW133630   2.777   0.683   2.310 -0.0124 -0.1287  0.6311
 5340SOL    HW233631   2.735   0.607   2.186  1.4116  1.7509 -1.0555
 5341SOL     OW33632   6.232  12.019   0.688  0.3122 -0.8281  0.0979
 5341SOL    HW133633   6.298  12.080   0.722 -0.3131 -0.8594  1.4276
 5341SOL    HW233634   6.283  11.953   0.641  1.0873  0.0595 -0.3559
 5342SOL     OW33635  10.996  12.494   8.941  0.3636  0.5305  0.4852
 5342SOL    HW133636  11.026  12.483   8.851 -0.9984  1.2730 -0.0952
 5342SOL    HW233637  10.960  12.408   8.965  0.1114  0.5155  0.0688
 5343SOL     OW33638   2.287   0.497   0.598  0.2650  0.4621 -0.4797
 5343SOL    HW133639   2.256   0.511   0.508  2.5362 -2.4618 -1.8918
 5343SOL    HW233640   2.379   0.521   0.595  0.1836  1.1141  1.3626
 5344SOL     OW33641  10.161  12.838  13.601  0.2804 -0.0636  0.0663
 5344SOL    HW133642  10.199  12.918  13.565 -0.3849  0.1100 -0.2752
 5344SOL    HW233643  10.153  12.856  13.695 -1.0972  0.8122 -0.1881
 5345SOL     OW33644   0.818  12.935  10.115 -0.0501  0.0961 -0.5265
 5345SOL    HW133645   0.802  13.018  10.071  1.2278 -0.0099 -1.2469
 5345SOL    HW233646   0.876  12.957  10.188  1.2856 -0.3023 -1.4349
 5346SOL     OW33647  14.037   5.379   6.910 -0.2718  0.1299  0.6555
 5346SOL    HW133648  13.964   5.385   6.972 -0.5852 -0.7806  0.3862
 5346SOL    HW233649  14.114   5.398   6.963 -0.6980  1.2771  0.9087
 5347SOL     OW33650   9.262  13.498   4.551 -0.5761 -0.2319 -0.1278
 5347SOL    HW133651   9.208  13.439   4.603 -0.5010  0.1464  0.3886
 5347SOL    HW233652   9.352  13.467   4.566 -0.4665  0.4513  0.7434
 5348SOL     OW33653  12.651   8.840   0.387 -0.1286 -0.0847  0.3237
 5348SOL    HW133654  12.706   8.784   0.332  1.5079 -0.1807  1.9402
 5348SOL    HW233655  12.712   8.877   0.451 -1.4209  2.4410  0.1993
 5349SOL     OW33656   1.004  12.683   9.078  0.0285  0.4291 -0.0725
 5349SOL    HW133657   0.915  12.647   9.079  0.2863 -0.5213  3.5907
 5349SOL    HW233658   1.055  12.616   9.032 -0.3511 -1.6653  2.3577
 5350SOL     OW33659  10.023   5.683   7.531  0.0376 -0.2874  0.6524
 5350SOL    HW133660   9.948   5.659   7.477  1.3997  0.2940 -1.6125
 5350SOL    HW233661  10.018   5.625   7.607 -2.3639 -0.6343  0.3036
 5351SOL     OW33662   1.010   6.201   0.444  0.0688  0.0274  0.2134
 5351SOL    HW133663   0.968   6.135   0.499 -0.1539  0.0622  0.0857
 5351SOL    HW233664   0.998   6.168   0.354  1.3538 -0.5669  0.2449
 5352SOL     OW33665  10.760  12.766   5.501 -0.4946 -0.1411  0.3318
 5352SOL    HW133666  10.836  12.823   5.511 -1.4450  1.2587 -0.1947
 5352SOL    HW233667  10.749  12.758   5.406 -0.8974 -0.4852  0.4052
 5353SOL     OW33668  12.535   4.419   2.636 -0.4167 -0.0239  0.5873
 5353SOL    HW133669  12.471   4.412   2.565 -0.7050 -1.2206  0.9323
 5353SOL    HW233670  12.499   4.364   2.706  0.5430  0.0222  1.1354
 5354SOL     OW33671   0.188   0.665   1.784  0.2631 -0.5452 -0.1642
 5354SOL    HW133672   0.219   0.751   1.813  0.7062 -0.0870 -1.8414
 5354SOL    HW233673   0.099   0.682   1.752  1.2738 -0.0366 -3.0340
 5355SOL     OW33674  12.943   4.490  13.637  0.4522 -0.6752  0.2686
 5355SOL    HW133675  12.981   4.576  13.657  0.8396 -1.0209  1.0792
 5355SOL    HW233676  12.967   4.435  13.712  0.4499 -1.5706 -0.3683
 5356SOL     OW33677  13.900  11.351  11.207 -0.3202  0.3253  0.2272
 5356SOL    HW133678  13.812  11.371  11.239 -0.3523  2.2432 -0.8853
 5356SOL    HW233679  13.887  11.322  11.117  0.2457  2.4853 -0.6196
 5357SOL     OW33680  10.776  13.671   1.666 -0.5696 -0.2715 -0.2983
 5357SOL    HW133681  10.776  13.690   1.573  0.4999  1.0575 -0.0602
 5357SOL    HW233682  10.784  13.575   1.671  1.0772 -0.2462 -1.5821
 5358SOL     OW33683   8.964   2.940   6.986  0.2804  0.3378  0.4205
 5358SOL    HW133684   9.007   3.021   7.014 -0.0367  0.5335  0.3473
 5358SOL    HW233685   8.902   2.968   6.918  1.2366 -0.1569 -0.6958
 5359SOL     OW33686   7.374   0.439  10.238 -0.7358  0.3774  0.0951
 5359SOL    HW133687   7.441   0.410  10.300 -0.1422  1.0600 -0.2201
 5359SOL    HW233688   7.311   0.366  10.235 -1.2070  0.6337  2.1044
 5360SOL     OW33689  13.507   0.089  12.764  0.2166 -0.4351 -0.3798
 5360SOL    HW133690  13.512  -0.003  12.790 -0.8686 -0.2608  0.5097
 5360SOL    HW233691  13.524   0.138  12.844 -0.4179  0.1340 -0.5801
 5361SOL     OW33692   3.857  13.893   5.773  0.9097 -0.4440  0.5010
 5361SOL    HW133693   3.895  13.953   5.709 -1.0524  1.0600  0.6615
 5361SOL    HW233694   3.861  13.940   5.856 -1.1517 -0.2224  0.5358
 5362SOL     OW33695   5.392   9.212   4.037 -0.1787 -0.2601 -0.3502
 5362SOL    HW133696   5.412   9.306   4.035 -0.8102 -0.0611  1.0563
 5362SOL    HW233697   5.447   9.174   3.969 -0.9553  1.3177 -1.9340
 5363SOL     OW33698   7.072   3.184   7.486 -0.0086 -0.5934 -0.7494
 5363SOL    HW133699   7.042   3.147   7.569 -0.2498 -0.9219 -0.9771
 5363SOL    HW233700   7.049   3.276   7.491  2.1297 -0.0771  0.5317
 5364SOL     OW33701   5.201   5.595  13.656  0.4178  0.4158  0.0442
 5364SOL    HW133702   5.252   5.514  13.663  0.5794  0.3408 -1.6283
 5364SOL    HW233703   5.245   5.645  13.587 -0.3220  1.4591  0.2996
 5365SOL     OW33704   5.807   9.348   1.747  0.1473  0.4209  0.0414
 5365SOL    HW133705   5.847   9.431   1.719  0.5646  1.4620  3.3461
 5365SOL    HW233706   5.713   9.366   1.748  0.1362  0.4204 -0.4074
 5366SOL     OW33707  13.926  13.151  12.866  0.2093 -0.1680 -0.4438
 5366SOL    HW133708  13.942  13.083  12.801  1.4310  0.6087 -1.0045
 5366SOL    HW233709  13.982  13.224  12.839  0.6064  0.2570  1.3675
 5367SOL     OW33710   2.611   9.816   5.237  0.0007  0.5057 -0.1618
 5367SOL    HW133711   2.577   9.788   5.322  1.9948 -1.7360  0.0173
 5367SOL    HW233712   2.534   9.834   5.185 -1.2900  1.6701  2.0021
 5368SOL     OW33713   4.001   6.347   7.255 -0.1912 -0.1120 -0.0606
 5368SOL    HW133714   4.061   6.311   7.190  1.8154  1.3016  0.9272
 5368SOL    HW233715   4.027   6.439   7.264 -2.6394  0.6217  0.2916
 5369SOL     OW33716   6.215  13.902   3.809 -0.0230 -0.0607  0.3862
 5369SOL    HW133717   6.247  13.979   3.856  0.3070  0.8564 -1.2621
 5369SOL    HW233718   6.121  13.899   3.827 -0.2185  1.3048 -0.2845
 5370SOL     OW33719   6.328   8.739  12.590 -0.1902 -0.1834  0.0194
 5370SOL    HW133720   6.329   8.737  12.685 -0.6273  3.7340  0.2579
 5370SOL    HW233721   6.419   8.752  12.565 -0.3462  1.0375  0.0607
 5371SOL     OW33722   6.615   7.948   7.622 -0.2559 -0.1285 -0.7537
 5371SOL    HW133723   6.670   7.917   7.550 -0.5068  0.0231 -1.0158
 5371SOL    HW233724   6.527   7.952   7.584 -0.4835 -0.5716 -0.2789
 5372SOL     OW33725   7.995   9.143   0.628  0.2527 -0.2857 -0.3529
 5372SOL    HW133726   7.957   9.208   0.687  1.3704 -0.7827  0.9544
 5372SOL    HW233727   8.035   9.194   0.558 -1.6217  0.2917 -1.0536
 5373SOL     OW33728  11.626   3.231  11.339  0.0579  0.1075  0.0038
 5373SOL    HW133729  11.543   3.275  11.358  0.5048  0.4694  1.2243
 5373SOL    HW233730  11.687   3.302  11.320  0.0929 -0.1596 -0.9196
 5374SOL     OW33731   2.557   4.378   7.253 -0.1429 -0.0497 -0.4622
 5374SOL    HW133732   2.515   4.326   7.184 -0.5864 -1.1222  0.5764
 5374SOL    HW233733   2.650   4.377   7.230 -0.4582  0.9492 -1.8857
 5375SOL     OW33734  12.331   1.882   1.063 -0.7935  0.0656  0.5387
 5375SOL    HW133735  12.353   1.924   0.980 -4.4613  0.1591 -0.5432
 5375SOL    HW233736  12.342   1.950   1.129 -0.7115  0.8817 -0.3043
 5376SOL     OW33737   4.990   7.372   4.187 -0.5794 -0.4320 -0.0136
 5376SOL    HW133738   4.947   7.445   4.231  0.2755 -0.1305  0.3519
 5376SOL    HW233739   4.919   7.314   4.160 -1.4391  1.4051 -1.9559
 5377SOL     OW33740   0.321   9.290   6.446  0.2307  0.4508  0.5346
 5377SOL    HW133741   0.358   9.373   6.478  0.3958  0.2488  0.8747
 5377SOL    HW233742   0.345   9.226   6.513 -0.1837  0.1911  0.4379
 5378SOL     OW33743  12.983   8.105   1.821 -0.4739 -0.0832 -0.4060
 5378SOL    HW133744  12.891   8.082   1.809 -0.6310  0.5226 -0.3941
 5378SOL    HW233745  12.982   8.199   1.842  0.1601 -0.0112 -0.6584
 5379SOL     OW33746   2.186   4.989   0.652 -0.2058  0.4504 -0.3754
 5379SOL    HW133747   2.175   5.079   0.682  0.1841  0.2274  0.4773
 5379SOL    HW233748   2.132   4.983   0.574 -0.4249  1.3576 -0.3072
 5380SOL     OW33749   3.872   9.453   2.142 -0.0473  0.3382 -0.0044
 5380SOL    HW133750   3.956   9.493   2.165 -0.3363  2.2828 -2.0596
 5380SOL    HW233751   3.846   9.406   2.222  2.6327  0.2389  0.9049
 5381SOL     OW33752   3.542   9.197   3.312 -0.0572  0.4855  0.0601
 5381SOL    HW133753   3.617   9.251   3.290  0.9964 -0.8080  0.3386
 5381SOL    HW233754   3.468   9.239   3.270  0.8051  1.8544 -0.1266
 5382SOL     OW33755   7.599   1.622  11.582  0.0848  0.2845 -0.6258
 5382SOL    HW133756   7.593   1.649  11.490 -1.4327  0.3833 -0.5146
 5382SOL    HW233757   7.588   1.703  11.632  3.1289  0.6154 -0.3142
 5383SOL     OW33758   0.423   3.883   5.112 -0.4833 -0.4237  0.0176
 5383SOL    HW133759   0.498   3.880   5.171 -1.3095  0.3947  1.1479
 5383SOL    HW233760   0.443   3.818   5.044  0.1440 -1.9596  1.6066
 5384SOL     OW33761   3.656   9.319   2.715  0.3995  0.1737  0.5211
 5384SOL    HW133762   3.750   9.312   2.730  0.3717  1.2442  1.3128
 5384SOL    HW233763   3.645   9.298   2.622  1.5583  1.1810  0.1389
 5385SOL     OW33764   7.894   2.144   2.386  0.0432  0.1256 -0.0558
 5385SOL    HW133765   7.883   2.234   2.356  2.8982  1.0010  1.1410
 5385SOL    HW233766   7.819   2.097   2.351 -1.6273  2.9914 -0.5772
 5386SOL     OW33767   7.798   9.121   2.109 -0.3119 -0.0714  0.7177
 5386SOL    HW133768   7.873   9.061   2.110 -1.1808 -1.2152 -0.1939
 5386SOL    HW233769   7.812   9.178   2.185  1.8735  0.2496  0.1517
 5387SOL     OW33770   1.503  13.283   5.478  0.5654 -0.2029  0.6843
 5387SOL    HW133771   1.558  13.204   5.471  0.3588 -0.2431 -0.9197
 5387SOL    HW233772   1.530  13.337   5.404 -0.6069  0.3850  0.6708
 5388SOL     OW33773  10.500   6.692   0.948 -0.4779  0.0309  0.7125
 5388SOL    HW133774  10.471   6.603   0.931 -0.1554 -0.0793  0.7194
 5388SOL    HW233775  10.422   6.738   0.978 -0.8670 -0.0025 -0.1949
 5389SOL     OW33776  12.433  11.629   7.051  0.7335  0.4169  0.0207
 5389SOL    HW133777  12.446  11.720   7.024  3.1157  1.0368  2.6852
 5389SOL    HW233778  12.360  11.633   7.113 -0.6450  0.0538 -1.5139
 5390SOL     OW33779   1.040   5.558   9.857 -0.0026  0.3182 -0.0639
 5390SOL    HW133780   1.072   5.648   9.855 -1.4394  0.8528  0.3429
 5390SOL    HW233781   1.118   5.505   9.836  0.7140  1.6710 -0.9828
 5391SOL     OW33782   4.013   2.927   1.136  0.1916  0.1016  0.4372
 5391SOL    HW133783   4.085   2.896   1.191 -1.2368 -0.4484  2.0959
 5391SOL    HW233784   4.050   2.930   1.047  1.3158 -3.5681  0.6169
 5392SOL     OW33785   3.192  13.905  12.077 -0.6071 -0.2599 -0.1484
 5392SOL    HW133786   3.157  13.971  12.138  0.1454  1.1810 -1.2180
 5392SOL    HW233787   3.231  13.839  12.134  1.1519  1.6369  0.9978
 5393SOL     OW33788   1.521  10.470  11.373  0.3325  0.0425  0.8667
 5393SOL    HW133789   1.583  10.478  11.301  0.5960 -1.7144  0.8514
 5393SOL    HW233790   1.504  10.376  11.380 -0.4053  0.2567  2.4985
 5394SOL     OW33791  11.330   3.915  13.967 -0.1087 -0.0710  0.2170
 5394SOL    HW133792  11.354   3.825  13.990 -1.2338 -0.0243  1.7393
 5394SOL    HW233793  11.405   3.968  13.993  0.9599 -0.6142 -1.5465
 5395SOL     OW33794  12.717   3.930   3.167  0.2491 -0.6475 -0.2249
 5395SOL    HW133795  12.671   3.878   3.101 -1.3589 -0.3379  0.6070
 5395SOL    HW233796  12.698   3.886   3.250 -1.3830  1.3610  0.5377
 5396SOL     OW33797   6.416  10.195   0.439 -0.3592  0.5264  0.3056
 5396SOL    HW133798   6.376  10.127   0.384 -1.7609 -1.2326  3.2341
 5396SOL    HW233799   6.493  10.152   0.477 -0.1804  1.2462  0.7636
 5397SOL     OW33800  12.031   1.090  12.819 -0.3266  0.3467 -0.2433
 5397SOL    HW133801  11.972   1.054  12.886 -1.9327 -2.1388 -2.7546
 5397SOL    HW233802  11.974   1.144  12.764  0.7872  1.6630 -0.1656
 5398SOL     OW33803   3.682   4.806   3.853 -0.7130 -0.4252  0.2709
 5398SOL    HW133804   3.764   4.801   3.902 -0.2936  0.2010 -0.3402
 5398SOL    HW233805   3.693   4.745   3.780 -0.9202 -0.5920  0.3811
 5399SOL     OW33806   1.030   0.833   5.712  0.1829  0.0533  0.1572
 5399SOL    HW133807   1.085   0.854   5.788  1.2529  0.1006 -0.6065
 5399SOL    HW233808   0.975   0.910   5.700  2.3789  1.5330 -1.1481
 5400SOL     OW33809   5.213   5.605   1.822 -0.1675 -0.1492 -0.5861
 5400SOL    HW133810   5.246   5.525   1.781 -0.5048 -1.7560  2.0799
 5400SOL    HW233811   5.286   5.636   1.876 -0.6061  0.4030 -0.3012
 5401SOL     OW33812   8.727   8.023   3.803  0.1956 -0.3831 -0.0074
 5401SOL    HW133813   8.766   7.972   3.732 -1.1440 -1.7831  0.2078
 5401SOL    HW233814   8.690   8.100   3.760  1.1928 -0.1599 -0.5097
 5402SOL     OW33815  11.087  12.457  12.969 -0.3612  0.1357  0.3573
 5402SOL    HW133816  11.086  12.551  12.949  0.1483 -0.2456 -1.6812
 5402SOL    HW233817  11.170  12.444  13.015  0.8717  0.3234 -1.6653
 5403SOL     OW33818   4.158   4.519  11.593  0.0603  0.6013 -0.0432
 5403SOL    HW133819   4.136   4.461  11.666  0.0126  0.4521 -0.1745
 5403SOL    HW233820   4.153   4.463  11.515 -0.2418  0.8449 -0.2002
 5404SOL     OW33821  12.767   6.595   8.651 -0.7612 -0.4506  0.3819
 5404SOL    HW133822  12.749   6.591   8.557  0.2643  0.3167  0.1252
 5404SOL    HW233823  12.822   6.518   8.669 -0.0228 -0.0007  0.1089
 5405SOL     OW33824   8.750   8.995  11.535  0.2790 -0.4561  0.4855
 5405SOL    HW133825   8.713   8.920  11.488  0.9449 -0.9520  0.7259
 5405SOL    HW233826   8.759   9.063  11.469 -0.7573 -0.4267  0.3595
 5406SOL     OW33827   0.994   6.326   2.942  0.0583 -0.2692 -0.0492
 5406SOL    HW133828   1.059   6.319   3.012  1.6102  0.7512 -1.3179
 5406SOL    HW233829   0.936   6.251   2.955  2.2417 -1.9877  0.4051
 5407SOL     OW33830   7.158   0.830  13.354  0.0298 -0.1679  0.3318
 5407SOL    HW133831   7.145   0.918  13.318 -0.6031 -0.0800  0.7417
 5407SOL    HW233832   7.210   0.844  13.433 -1.6981  0.1020  1.4891
 5408SOL     OW33833   0.053   7.940   7.582 -0.4231  0.5464 -0.0284
 5408SOL    HW133834   0.067   7.916   7.674 -2.4636 -1.0874 -0.0759
 5408SOL    HW233835   0.015   8.028   7.586  2.7693  2.0446  0.4197
 5409SOL     OW33836   9.389  12.821  12.534  0.2088 -0.5246 -0.2958
 5409SOL    HW133837   9.438  12.844  12.613 -0.9436 -0.2887  0.3664
 5409SOL    HW233838   9.375  12.904  12.489 -1.6667 -0.1976  0.7669
 5410SOL     OW33839   3.571  12.088  11.720 -0.4570 -0.4266 -0.3970
 5410SOL    HW133840   3.633  12.048  11.781 -0.2109 -0.4621 -0.6688
 5410SOL    HW233841   3.506  12.130  11.776  0.4304  0.5816 -0.1026
 5411SOL     OW33842   0.838   4.332  13.387  0.1284  0.4077  0.6186
 5411SOL    HW133843   0.763   4.374  13.427 -0.0372 -0.0914  0.8468
 5411SOL    HW233844   0.903   4.402  13.377 -0.8215  1.1309 -0.7816
 5412SOL     OW33845   5.027  13.313  12.234  0.4340  0.4952  0.2429
 5412SOL    HW133846   5.036  13.404  12.206 -0.0438 -0.0833 -2.0421
 5412SOL    HW233847   4.974  13.317  12.313  0.5008  2.1980  0.2462
 5413SOL     OW33848  13.369   7.979   4.984 -0.8422 -0.2305  0.5215
 5413SOL    HW133849  13.462   7.962   4.964 -1.2266 -1.7393 -0.1381
 5413SOL    HW233850  13.321   7.928   4.919 -2.1701  1.5194  0.0472
 5414SOL     OW33851   1.951   2.949   4.527  0.1354  0.4432 -0.3618
 5414SOL    HW133852   1.918   2.865   4.558  0.0052  0.1979 -1.1525
 5414SOL    HW233853   2.040   2.955   4.562  0.6637 -0.6684 -1.4546
 5415SOL     OW33854   3.034  12.715   4.385 -0.3342 -0.1399 -0.0144
 5415SOL    HW133855   2.992  12.669   4.312 -1.7829 -0.3956  0.9316
 5415SOL    HW233856   3.116  12.747   4.349  1.3504 -4.3265 -0.5270
 5416SOL     OW33857  10.655   9.751  10.739  0.2060  0.1693  0.1494
 5416SOL    HW133858  10.582   9.740  10.800 -0.8274 -0.0587 -1.0921
 5416SOL    HW233859  10.636   9.833  10.693  0.2522 -0.3280 -0.7888
 5417SOL     OW33860  13.410  13.125   2.609 -0.2735 -0.4799  0.0302
 5417SOL    HW133861  13.328  13.170   2.589 -0.8161 -1.8829 -1.0809
 5417SOL    HW233862  13.464  13.139   2.530  0.0288 -0.7344  0.1920
 5418SOL     OW33863  13.560   2.361   8.389 -0.1408  0.3477  0.4619
 5418SOL    HW133864  13.468   2.345   8.411  0.1082 -1.1505  0.5702
 5418SOL    HW233865  13.589   2.427   8.452 -0.9744  0.3605  0.8488
 5419SOL     OW33866  13.926   5.142   4.345  0.0665  0.1419 -0.0891
 5419SOL    HW133867  13.854   5.148   4.283  0.2668 -0.6066 -0.4037
 5419SOL    HW233868  13.924   5.052   4.376  0.5928  0.2338  0.2339
 5420SOL     OW33869   2.553   1.339   4.490  0.0337  0.1245  0.2267
 5420SOL    HW133870   2.561   1.429   4.458  1.3294 -0.5092 -1.3422
 5420SOL    HW233871   2.470   1.338   4.538 -0.2711  2.0148 -0.1945
 5421SOL     OW33872   3.968  11.776   5.244  0.6202 -0.3671  0.2731
 5421SOL    HW133873   4.005  11.712   5.304 -0.6170 -0.7632  0.6521
 5421SOL    HW233874   3.934  11.845   5.301  1.4823  0.3947 -0.1054
 5422SOL     OW33875   7.644   4.620  12.691 -0.2182 -0.2239  0.1427
 5422SOL    HW133876   7.676   4.681  12.624  0.2001 -1.2758 -0.6447
 5422SOL    HW233877   7.692   4.644  12.770 -0.0887  0.4902 -0.1465
 5423SOL     OW33878   0.045   5.519   2.716 -0.7348 -0.1310 -0.0109
 5423SOL    HW133879   0.106   5.557   2.652 -0.3371 -0.5710  0.1109
 5423SOL    HW233880   0.094   5.515   2.798 -0.4177 -1.8688 -0.2522
 5424SOL     OW33881  10.341   7.925   3.687 -0.4528 -0.5024  0.8991
 5424SOL    HW133882  10.385   7.842   3.668 -1.3064 -1.2001  1.8704
 5424SOL    HW233883  10.269   7.901   3.746 -0.9214  0.8830  0.9209
 5425SOL     OW33884  12.873   4.461   2.895 -0.0237  0.0415 -0.1032
 5425SOL    HW133885  12.816   4.537   2.887  0.9697  0.7541 -0.7600
 5425SOL    HW233886  12.961   4.498   2.905  0.2978 -1.0123  1.3246
 5426SOL     OW33887   6.141   2.627  10.966 -0.5002 -0.4192  0.6123
 5426SOL    HW133888   6.097   2.555  10.922 -0.0806 -1.8991  2.4628
 5426SOL    HW233889   6.075   2.696  10.972 -1.2685 -1.0707 -0.2285
 5427SOL     OW33890   2.108   6.895   2.064 -0.3023 -0.1269  0.2272
 5427SOL    HW133891   2.076   6.868   1.978  0.1896  1.6183 -0.5426
 5427SOL    HW233892   2.128   6.988   2.055 -1.1362  0.3477  2.5166
 5428SOL     OW33893   1.199  10.951   1.747  0.6865 -0.1169 -0.0030
 5428SOL    HW133894   1.122  10.913   1.792  2.0516 -0.7639  1.9411
 5428SOL    HW233895   1.178  11.044   1.738 -0.7616 -0.4560 -0.5286
 5429SOL     OW33896   2.928  12.252   0.803  0.3094  0.7762  0.1237
 5429SOL    HW133897   2.998  12.258   0.868  1.3323  2.0496 -1.0173
 5429SOL    HW233898   2.847  12.259   0.853  1.0406  0.7590  1.3431
 5430SOL     OW33899   6.472   4.767   0.984 -0.3670 -0.2031  0.0051
 5430SOL    HW133900   6.565   4.758   0.964 -0.3619 -2.7070  0.8088
 5430SOL    HW233901   6.429   4.771   0.899  0.4175  0.3739 -0.3747
 5431SOL     OW33902  14.062  13.070   9.444  0.1290 -0.3995  0.1350
 5431SOL    HW133903  13.984  13.029   9.481 -1.9392  1.8855 -1.4064
 5431SOL    HW233904  14.059  13.049   9.351 -0.7413  2.6115 -0.6232
 5432SOL     OW33905   2.160   0.112   1.362  0.1284  0.4559  0.0277
 5432SOL    HW133906   2.226   0.068   1.415  1.3562 -0.2986 -2.0175
 5432SOL    HW233907   2.208   0.184   1.319 -0.3494 -0.0163 -1.3751
 5433SOL     OW33908   9.426  13.343   5.352  0.1835  0.4884  0.0226
 5433SOL    HW133909   9.421  13.436   5.376  0.3007  0.7520 -0.9541
 5433SOL    HW233910   9.505  13.312   5.396 -0.6402  0.4691  1.5644
 5434SOL     OW33911   1.211   0.254   3.408  0.4809  0.2344  0.1407
 5434SOL    HW133912   1.151   0.182   3.426  0.7228 -0.1883 -0.6738
 5434SOL    HW233913   1.163   0.311   3.349  0.4519  0.5095  0.4302
 5435SOL     OW33914  10.965   0.121   6.999  0.1934 -0.6855 -0.1757
 5435SOL    HW133915  10.933   0.077   7.078  0.8200  1.1510  1.1827
 5435SOL    HW233916  11.050   0.157   7.025 -0.0201  0.7885 -1.3659
 5436SOL     OW33917  13.638   7.892   4.992  0.3119  0.3626  0.2160
 5436SOL    HW133918  13.633   7.837   4.914  1.4613 -0.8966  0.9960
 5436SOL    HW233919  13.659   7.979   4.958 -1.7294  0.4200 -1.0504
 5437SOL     OW33920   4.672   2.891  11.442  0.1304 -0.3486  0.0517
 5437SOL    HW133921   4.653   2.953  11.372 -2.2688 -0.8304  0.1982
 5437SOL    HW233922   4.598   2.899  11.502  0.4749 -2.3257  0.8135
 5438SOL     OW33923   9.891   4.724   1.456  0.1196  0.1933  0.2631
 5438SOL    HW133924   9.818   4.776   1.491  0.7828  0.6202  1.0203
 5438SOL    HW233925   9.872   4.635   1.483  0.0965  0.3669  0.8338
 5439SOL     OW33926   9.917   9.334   2.156 -0.3626 -0.0090  0.4175
 5439SOL    HW133927   9.964   9.250   2.151  0.9636  0.7460 -0.6542
 5439SOL    HW233928   9.979   9.398   2.120 -1.9882  1.1609 -0.4242
 5440SOL     OW33929   7.292   7.457   4.540 -0.1577  0.1807 -0.0521
 5440SOL    HW133930   7.278   7.400   4.615  0.9311 -1.6182 -1.1465
 5440SOL    HW233931   7.242   7.416   4.469  2.1680 -0.5908 -1.3550
 5441SOL     OW33932   4.394  13.838   6.617 -0.7152  0.1715  0.2278
 5441SOL    HW133933   4.425  13.834   6.708  1.9856  0.3063 -0.6199
 5441SOL    HW233934   4.368  13.929   6.604  0.5948  0.5748  0.3635
 5442SOL     OW33935  12.701  12.604   7.248 -0.3488 -0.2183  0.0754
 5442SOL    HW133936  12.631  12.564   7.196  0.1031  0.1869 -0.8703
 5442SOL    HW233937  12.657  12.672   7.300 -0.8338 -0.7552  0.3786
 5443SOL     OW33938   7.076   9.623   4.324  0.7174 -0.1901  0.3659
 5443SOL    HW133939   7.045   9.692   4.265 -0.9845 -1.7582 -0.7035
 5443SOL    HW233940   7.025   9.636   4.404  0.2797 -0.2874  0.1072
 5444SOL     OW33941   4.678   5.410   4.313  0.0263  0.1202 -0.3411
 5444SOL    HW133942   4.616   5.362   4.368 -2.1035  1.2994 -1.5477
 5444SOL    HW233943   4.710   5.480   4.370 -0.4186  0.0078  0.0614
 5445SOL     OW33944   1.533   3.798  10.577  0.1544  0.2121  0.0600
 5445SOL    HW133945   1.447   3.760  10.593 -0.1235  0.1364 -1.5037
 5445SOL    HW233946   1.595   3.728  10.596 -0.2065 -0.1590 -0.1320
 5446SOL     OW33947  13.885   8.675  14.020 -0.3031  0.1765 -0.1779
 5446SOL    HW133948  13.917   8.765  14.027  0.4707 -0.2259  2.5055
 5446SOL    HW233949  13.809   8.681  13.962  0.2760  2.3768 -0.8191
 5447SOL     OW33950   1.076  13.057   4.397  0.1846 -0.5147 -0.1203
 5447SOL    HW133951   1.027  13.065   4.316 -0.6043  0.1564  0.4076
 5447SOL    HW233952   1.156  13.106   4.382 -1.5727  2.8893  0.7194
 5448SOL     OW33953  10.742   3.951   2.982  0.5999  0.0169  0.5011
 5448SOL    HW133954  10.647   3.959   2.992  0.3490 -1.4107 -0.4158
 5448SOL    HW233955  10.773   3.923   3.068  0.3606  1.5233  1.1147
 5449SOL     OW33956   0.516   7.172  11.039 -0.2973  0.4062  0.4846
 5449SOL    HW133957   0.603   7.181  11.078  0.9418  1.7520 -2.2869
 5449SOL    HW233958   0.505   7.078  11.027 -0.7480 -0.0814  3.8306
 5450SOL     OW33959   1.883   0.657   3.257 -0.3128 -0.0625 -0.4946
 5450SOL    HW133960   1.896   0.579   3.203 -0.4557 -1.2308  1.1065
 5450SOL    HW233961   1.926   0.637   3.340 -0.8110  1.3540  0.1385
 5451SOL     OW33962   1.526  11.732   5.915  0.1590  0.5734 -0.1557
 5451SOL    HW133963   1.461  11.749   5.983  2.3033  0.0422  2.1355
 5451SOL    HW233964   1.540  11.638   5.917 -1.0338  0.2410 -2.6904
 5452SOL     OW33965   6.093   9.873  13.052 -0.3211 -0.3893 -0.3843
 5452SOL    HW133966   6.102   9.845  13.143 -0.9424 -0.5221 -0.3571
 5452SOL    HW233967   6.033   9.809  13.014  1.8994 -1.8949 -1.5801
 5453SOL     OW33968   0.793  13.990   0.248  0.5655  0.4239  0.3294
 5453SOL    HW133969   0.754  13.918   0.297  0.5169 -0.1476 -0.5299
 5453SOL    HW233970   0.764  14.069   0.293 -1.1309 -0.0110  0.0407
 5454SOL     OW33971   3.709  13.974  13.942  0.3705  0.7104  0.4838
 5454SOL    HW133972   3.798  13.988  13.972 -0.3567  0.9646  2.7472
 5454SOL    HW233973   3.665  13.931  14.016 -1.0726 -0.5735 -1.0394
 5455SOL     OW33974  10.004  10.153  12.399 -0.2262  0.5261  0.8723
 5455SOL    HW133975   9.973  10.243  12.404  0.0168  0.7764 -1.2427
 5455SOL    HW233976   9.929  10.103  12.365  0.7822  0.7037 -1.8581
 5456SOL     OW33977   3.761   0.776   9.194  0.1008 -0.2572 -0.2310
 5456SOL    HW133978   3.779   0.851   9.250 -2.3980  0.8701 -0.7872
 5456SOL    HW233979   3.744   0.703   9.254  2.3663 -0.3893  0.3154
 5457SOL     OW33980   4.678   4.803   4.462 -0.2172 -1.1033 -0.7245
 5457SOL    HW133981   4.773   4.810   4.470 -0.5106  2.8872  2.1330
 5457SOL    HW233982   4.656   4.866   4.393 -0.8582  0.9639  1.2230
 5458SOL     OW33983   7.495   0.563  11.171 -0.1732 -0.9366 -0.7255
 5458SOL    HW133984   7.536   0.619  11.105  4.4873 -1.3433  1.4716
 5458SOL    HW233985   7.509   0.474  11.139  0.2979 -1.0721 -0.1571
 5459SOL     OW33986   8.264  12.479   5.362 -0.3203 -0.1160 -0.6467
 5459SOL    HW133987   8.236  12.397   5.403 -2.6233  1.2734  0.7163
 5459SOL    HW233988   8.305  12.528   5.433 -2.0310  1.2627 -0.5528
 5460SOL     OW33989   1.551   3.299   4.448 -0.1453 -0.1045  0.1445
 5460SOL    HW133990   1.512   3.262   4.527  0.3761 -0.3002  0.3137
 5460SOL    HW233991   1.480   3.297   4.383 -0.3485 -0.6848  0.3772
 5461SOL     OW33992   5.548   1.480   9.420 -0.2419 -0.8765 -0.0823
 5461SOL    HW133993   5.544   1.384   9.414  2.5143 -1.0439 -0.3332
 5461SOL    HW233994   5.553   1.498   9.514  3.3854 -1.3515 -0.0505
 5462SOL     OW33995   7.615  12.132   9.839 -0.3406 -0.5423 -0.3543
 5462SOL    HW133996   7.607  12.047   9.882  0.9092  0.1506  1.3752
 5462SOL    HW233997   7.584  12.195   9.904  1.3826  0.5259 -0.5005
 5463SOL     OW33998  12.304   6.139   4.179 -0.2595 -0.6105 -0.4185
 5463SOL    HW133999  12.291   6.198   4.105  0.2320 -0.8968 -0.7382
 5463SOL    HW234000  12.229   6.080   4.176  0.1390 -1.0981 -1.1487
 5464SOL     OW34001   1.078   1.606  11.722  0.4859  0.6710  0.0796
 5464SOL    HW134002   1.020   1.588  11.647  1.0913 -0.0312 -0.2226
 5464SOL    HW234003   1.040   1.556  11.794 -0.0142  1.2320  0.2154
 5465SOL     OW34004   1.911   5.679  11.647  0.1432 -0.1224 -0.0479
 5465SOL    HW134005   1.858   5.749  11.686 -0.5584 -0.5855 -0.1470
 5465SOL    HW234006   1.873   5.598  11.681  1.8407 -0.4513  1.2086
 5466SOL     OW34007  11.355  10.422  11.842  0.2818  0.1315  0.4234
 5466SOL    HW134008  11.418  10.410  11.771 -0.5625  0.5075 -0.4204
 5466SOL    HW234009  11.291  10.485  11.807  0.6624  1.5107  2.0623
 5467SOL     OW34010   9.191   1.910   4.710  1.0728 -0.1421 -0.0571
 5467SOL    HW134011   9.248   1.957   4.770  1.1674  0.5814 -0.6952
 5467SOL    HW234012   9.165   1.830   4.757  1.5962  0.1387  0.7077
 5468SOL     OW34013  12.963   5.763   7.068 -0.5342  0.3234 -0.3437
 5468SOL    HW134014  12.923   5.850   7.068 -2.3812 -0.4196 -2.3841
 5468SOL    HW234015  12.926   5.720   6.990  0.2112 -2.3332  0.6686
 5469SOL     OW34016   0.286   6.540   6.500 -0.4566 -0.6519 -0.6556
 5469SOL    HW134017   0.232   6.617   6.483 -1.7004 -1.0337  1.2229
 5469SOL    HW234018   0.304   6.544   6.594  0.3305 -2.1045 -0.7138
 5470SOL     OW34019   2.918   3.572   0.525  0.1537  0.5223 -0.2158
 5470SOL    HW134020   2.958   3.645   0.478 -0.2285 -0.0933 -1.5248
 5470SOL    HW234021   2.903   3.505   0.458 -0.6516 -0.2783  0.7341
 5471SOL     OW34022   9.058  11.977   3.833  0.6024  0.1245 -0.0172
 5471SOL    HW134023   9.153  11.977   3.841  0.7012 -1.7077 -0.9010
 5471SOL    HW234024   9.035  11.888   3.809 -1.5021  0.0595  1.8612
 5472SOL     OW34025   8.296   3.382  13.598 -0.4506  0.9742  0.1902
 5472SOL    HW134026   8.391   3.385  13.586 -0.4334  0.0765  0.0173
 5472SOL    HW234027   8.272   3.470  13.626  0.5697  0.9174  1.2868
 5473SOL     OW34028   8.557   7.803   4.549 -0.7988 -0.1958 -0.7339
 5473SOL    HW134029   8.512   7.882   4.578 -2.0093 -1.2768  0.4789
 5473SOL    HW234030   8.517   7.784   4.464 -0.6845  0.3409 -0.9135
 5474SOL     OW34031  12.052   4.820  10.040  0.2406  0.3799  0.2781
 5474SOL    HW134032  12.128   4.769  10.069 -1.5397 -2.6622  0.0715
 5474SOL    HW234033  12.007   4.844  10.121 -0.3302 -0.8010  0.3286
 5475SOL     OW34034   3.692   5.520   5.601 -0.0448  0.0643  0.1861
 5475SOL    HW134035   3.769   5.577   5.602  1.3745 -1.7358 -0.5126
 5475SOL    HW234036   3.639   5.552   5.528 -0.0621  1.4125  0.7595
 5476SOL     OW34037   4.824   6.439   3.811  0.3389 -0.0371 -0.6134
 5476SOL    HW134038   4.799   6.382   3.884 -0.6175 -0.6244 -1.3767
 5476SOL    HW234039   4.799   6.389   3.733  0.1583  1.1316 -1.3155
 5477SOL     OW34040   8.323  10.288   3.512 -0.2013  0.4107  0.3864
 5477SOL    HW134041   8.279  10.335   3.583 -1.5691 -1.4518  0.8664
 5477SOL    HW234042   8.348  10.204   3.551 -0.4449 -0.4176 -1.1567
 5478SOL     OW34043   4.723   2.331   5.344 -0.0292 -0.1531  0.2354
 5478SOL    HW134044   4.761   2.375   5.268 -0.3312  1.5340  1.0185
 5478SOL    HW234045   4.713   2.240   5.316 -0.8031  0.5480 -2.0060
 5479SOL     OW34046  12.138   6.998   4.446 -0.1336  0.6952  0.2835
 5479SOL    HW134047  12.187   6.917   4.435 -1.3950 -0.0904  0.3033
 5479SOL    HW234048  12.137   7.036   4.358 -1.7537 -0.6392 -0.3187
 5480SOL     OW34049   4.046   0.835   5.238  0.4294 -0.3166 -0.1138
 5480SOL    HW134050   4.098   0.811   5.161 -2.5934 -3.8498 -1.3809
 5480SOL    HW234051   4.085   0.784   5.309  0.3528 -0.8295 -0.4324
 5481SOL     OW34052  13.267   5.254   5.064  0.0289  0.3182  0.2155
 5481SOL    HW134053  13.333   5.242   5.132 -0.9322 -0.1682  1.0776
 5481SOL    HW234054  13.222   5.335   5.088  0.3870  0.7221 -0.4443
 5482SOL     OW34055   0.375   7.843   2.006  0.6539  0.5898  0.2063
 5482SOL    HW134056   0.399   7.785   2.078  1.1160  0.7499  0.1868
 5482SOL    HW234057   0.453   7.896   1.991  0.1638  1.3693  0.3682
 5483SOL     OW34058   5.893   5.142   0.656 -0.1132  0.0023  0.1180
 5483SOL    HW134059   5.842   5.214   0.693 -0.9035  0.5498 -1.9077
 5483SOL    HW234060   5.829   5.088   0.611  0.8654 -0.2097 -1.0789
 5484SOL     OW34061   2.321   0.809   4.432  0.3367 -0.1572  0.2951
 5484SOL    HW134062   2.366   0.892   4.418 -0.9022  0.5571  0.4657
 5484SOL    HW234063   2.250   0.808   4.369 -0.8947 -0.1575  1.6233
 5485SOL     OW34064   9.608   8.741   2.141  0.6225 -0.1704  0.1802
 5485SOL    HW134065   9.701   8.735   2.164  0.8081  0.1743 -0.4664
 5485SOL    HW234066   9.604   8.811   2.076  0.1666 -1.3905 -1.1669
 5486SOL     OW34067  13.980   2.508   6.582  0.4652  0.3040 -0.1496
 5486SOL    HW134068  14.034   2.429   6.585 -0.7166 -0.4959  0.7919
 5486SOL    HW234069  13.892   2.478   6.604 -0.0211  1.8757  0.1666
 5487SOL     OW34070   6.937   3.298   4.502  0.0493  0.4497 -0.2670
 5487SOL    HW134071   6.894   3.332   4.581  2.6131 -0.0891  1.4966
 5487SOL    HW234072   6.945   3.204   4.517 -0.4387  0.1411 -1.7491
 5488SOL     OW34073   9.693   3.242   6.564  0.9966  0.1297 -0.1417
 5488SOL    HW134074   9.726   3.331   6.553 -0.2338  0.6639  0.3895
 5488SOL    HW234075   9.768   3.193   6.600  1.4385  1.1364  0.3372
 5489SOL     OW34076   6.245  13.201   9.653 -0.0690  0.1604 -0.0724
 5489SOL    HW134077   6.299  13.278   9.665  1.3494 -0.7375 -0.4469
 5489SOL    HW234078   6.274  13.140   9.721 -0.6046 -0.3464 -0.2861
 5490SOL     OW34079   1.069  10.455   1.578 -0.0102 -0.0770 -0.4070
 5490SOL    HW134080   1.002  10.392   1.604 -1.3486  1.7729  0.8952
 5490SOL    HW234081   1.118  10.411   1.509 -1.3434 -2.2311 -0.0635
 5491SOL     OW34082   2.508  12.755   0.693  0.1658 -0.4244  0.2560
 5491SOL    HW134083   2.468  12.786   0.611 -0.9137  1.4790  1.4377
 5491SOL    HW234084   2.453  12.792   0.762  1.3680 -1.5388  1.8736
 5492SOL     OW34085   2.546   0.772  10.246 -0.0498  0.5518 -0.2704
 5492SOL    HW134086   2.607   0.788  10.318  0.5679 -0.7209 -0.4808
 5492SOL    HW234087   2.566   0.683  10.217 -2.9860 -0.5195  0.6187
 5493SOL     OW34088   2.688  11.893   4.929  0.2370  0.1022 -0.0833
 5493SOL    HW134089   2.708  11.805   4.895  1.3554  0.5773 -0.7106
 5493SOL    HW234090   2.731  11.896   5.014  0.8178  0.2805 -0.3765
 5494SOL     OW34091  11.723  10.093   8.993 -0.2436  0.7106  0.3471
 5494SOL    HW134092  11.760  10.139   8.918  0.8088 -0.8263 -0.1465
 5494SOL    HW234093  11.628  10.093   8.978 -0.0542  0.4614 -0.9932
 5495SOL     OW34094   4.649  11.391  13.169 -0.5780 -0.3186 -0.0605
 5495SOL    HW134095   4.662  11.337  13.247 -0.9714 -0.3745 -0.0320
 5495SOL    HW234096   4.560  11.426  13.179  0.4348  2.2330  1.1151
 5496SOL     OW34097  13.131   0.178   6.721  0.3419  0.2364  0.5747
 5496SOL    HW134098  13.226   0.192   6.725  0.0256  3.9139 -0.6766
 5496SOL    HW234099  13.094   0.260   6.753 -2.3477  0.1131 -1.8278
 5497SOL     OW34100  12.842   9.581  12.874 -0.4638  0.0879 -0.3542
 5497SOL    HW134101  12.916   9.633  12.842  0.8209 -0.7003  1.2018
 5497SOL    HW234102  12.859   9.492  12.841 -0.9304 -0.0187 -0.3099
 5498SOL     OW34103   4.543   5.994  12.455  0.1264 -0.6291  0.1534
 5498SOL    HW134104   4.579   6.008  12.367  0.1534  1.8483  0.4910
 5498SOL    HW234105   4.507   6.078  12.479  1.3182 -0.8482  3.0825
 5499SOL     OW34106   1.793   1.986   5.361  0.1808 -0.4583  0.4229
 5499SOL    HW134107   1.719   1.928   5.375 -0.2908  0.1157  0.3400
 5499SOL    HW234108   1.786   2.050   5.432  1.4433 -1.2449  1.3062
 5500SOL     OW34109   2.482   5.078  12.058  0.3593 -0.4883  0.0220
 5500SOL    HW134110   2.464   5.102  12.149  0.8307  0.3122 -0.0737
 5500SOL    HW234111   2.568   5.036  12.061 -0.3917 -2.0662  0.1649
 5501SOL     OW34112  12.343  12.336   3.591  0.0875  0.1247 -0.1305
 5501SOL    HW134113  12.385  12.259   3.551  1.2768  1.2512 -1.1292
 5501SOL    HW234114  12.385  12.344   3.677  2.2829  1.4191 -1.2323
 5502SOL     OW34115  13.420   1.405  12.109 -0.0911 -0.6328  0.0169
 5502SOL    HW134116  13.447   1.353  12.033 -0.2515  1.6733 -1.7404
 5502SOL    HW234117  13.326   1.392  12.114  0.1278 -2.0277  0.8398
 5503SOL     OW34118   9.966   2.081   2.502  0.4016  0.3385 -0.0058
 5503SOL    HW134119   9.950   1.998   2.546 -1.2861  0.3233 -0.5662
 5503SOL    HW234120  10.042   2.065   2.446  2.0472  0.1097  2.1944
 5504SOL     OW34121   9.056   0.849   0.207  0.0842 -0.7505  0.3104
 5504SOL    HW134122   9.151   0.841   0.208  0.0446 -1.2519  0.9352
 5504SOL    HW234123   9.036   0.915   0.273  0.0235 -0.2137 -0.2340
 5505SOL     OW34124  12.130   0.422   3.548 -0.7094 -0.0928 -0.2412
 5505SOL    HW134125  12.189   0.479   3.500 -0.3379  0.1028  0.4409
 5505SOL    HW234126  12.064   0.480   3.586 -2.0134 -0.4092 -1.9004
 5506SOL     OW34127  12.123   1.869   4.095  0.5700 -0.1859 -0.5521
 5506SOL    HW134128  12.134   1.782   4.057 -1.5404 -2.9515  4.2568
 5506SOL    HW234129  12.210   1.890   4.131  0.7580 -1.0347 -0.4807
 5507SOL     OW34130  13.046   8.424   2.743  0.0897 -0.0429  0.0354
 5507SOL    HW134131  12.999   8.474   2.810 -1.1560  0.5911 -1.2615
 5507SOL    HW234132  13.014   8.334   2.754 -0.6493  0.1889 -0.1432
 5508SOL     OW34133   5.961   7.707   2.094  0.2950  0.0755  0.0959
 5508SOL    HW134134   5.969   7.722   2.188  0.5748 -1.0344  0.2665
 5508SOL    HW234135   5.873   7.672   2.083  0.6924 -0.9776  0.1312
 5509SOL     OW34136   9.247   1.386  12.297  0.4691 -0.8835  0.4266
 5509SOL    HW134137   9.274   1.316  12.237  0.0859 -0.9391  0.3179
 5509SOL    HW234138   9.329   1.417  12.335  0.7024 -0.9685  0.0047
 5510SOL     OW34139   1.875   7.452  13.833 -0.0205  0.1566 -0.2883
 5510SOL    HW134140   1.932   7.377  13.816 -0.3849  0.0875 -1.2692
 5510SOL    HW234141   1.933   7.528  13.826 -0.0147  0.0836 -1.2264
 5511SOL     OW34142   9.045  12.916   9.954  0.6816  1.0934  0.5248
 5511SOL    HW134143   9.000  12.832   9.963  2.1787  0.3207  1.1710
 5511SOL    HW234144   8.981  12.981   9.984 -0.6865  0.2625 -0.5055
 5512SOL     OW34145   6.445   0.227   5.917 -0.2720  0.2901  0.2875
 5512SOL    HW134146   6.402   0.241   6.002  0.4615 -0.3481  0.7747
 5512SOL    HW234147   6.474   0.136   5.920  0.2645  0.4329 -0.4252
 5513SOL     OW34148   2.368   4.792   6.868  0.1989  0.3883  0.3080
 5513SOL    HW134149   2.283   4.831   6.890 -0.7324 -1.7189  0.6766
 5513SOL    HW234150   2.363   4.774   6.774  1.4199  2.8860 -0.3096
 5514SOL     OW34151   9.708   2.937   2.062  0.1405 -0.5930  0.0871
 5514SOL    HW134152   9.697   2.842   2.074 -0.7053 -0.5224 -0.0911
 5514SOL    HW234153   9.628   2.975   2.099  1.3269  0.2050  1.9696
 5515SOL     OW34154   9.258   6.908   5.968  0.1084  0.2616  0.5802
 5515SOL    HW134155   9.255   6.875   6.058  1.5628 -0.1966  0.4979
 5515SOL    HW234156   9.352   6.909   5.946 -0.2520 -0.2028 -1.1346
 5516SOL     OW34157   6.105   2.955   3.483  0.2133 -0.0444 -0.4614
 5516SOL    HW134158   6.180   3.001   3.521  0.5886  0.1576 -1.4112
 5516SOL    HW234159   6.072   2.900   3.554  1.2020 -0.0683  0.0020
 5517SOL     OW34160   5.607   3.031  10.056  0.2772 -0.1742 -0.1307
 5517SOL    HW134161   5.648   3.106  10.014 -0.8366  0.9882  0.7744
 5517SOL    HW234162   5.628   2.957  10.000  0.8315  0.9251 -1.4156
 5518SOL     OW34163  10.552   6.758  12.068 -0.0614 -0.6403  0.1598
 5518SOL    HW134164  10.593   6.744  12.154  0.4196  0.7436  0.1966
 5518SOL    HW234165  10.582   6.845  12.042  1.8037 -1.9600 -2.5599
 5519SOL     OW34166   8.368   2.888   6.613 -0.0372 -0.1065 -0.5451
 5519SOL    HW134167   8.334   2.808   6.572  3.1179 -2.0148  0.2602
 5519SOL    HW234168   8.311   2.901   6.690 -0.3047 -1.8905 -0.4044
 5520SOL     OW34169  12.761  13.659   7.108  0.2510  0.0961 -0.2316
 5520SOL    HW134170  12.721  13.729   7.057  1.6004  1.0944  0.0316
 5520SOL    HW234171  12.800  13.601   7.043  0.2529  0.2914 -0.4070
 5521SOL     OW34172   2.101  13.386   5.033 -0.4878 -0.1365 -0.2579
 5521SOL    HW134173   2.177  13.352   5.080 -0.2578  1.6254  0.7265
 5521SOL    HW234174   2.139  13.432   4.958 -0.7190 -0.7995 -0.7977
 5522SOL     OW34175   6.482   8.487   4.710  0.2431 -0.0199  0.7370
 5522SOL    HW134176   6.509   8.549   4.778 -0.4276 -0.0961  1.0761
 5522SOL    HW234177   6.403   8.525   4.672  0.0987 -0.4271  0.6190
 5523SOL     OW34178   2.645   9.838   6.541  0.2054 -0.1663  0.8270
 5523SOL    HW134179   2.609   9.907   6.597 -0.3696  2.5284 -2.4769
 5523SOL    HW234180   2.568   9.789   6.511  0.0904  0.5488 -0.1074
 5524SOL     OW34181   8.460  10.589   2.389 -0.1596  0.0710  0.4951
 5524SOL    HW134182   8.489  10.615   2.302 -1.3470  1.4904  0.4659
 5524SOL    HW234183   8.540  10.567   2.436  0.3965 -2.3924 -1.4081
 5525SOL     OW34184  11.264  12.668   3.870 -0.2124 -0.8855  0.0061
 5525SOL    HW134185  11.209  12.682   3.948 -0.3705 -2.0826  0.1309
 5525SOL    HW234186  11.261  12.751   3.823  0.9544  0.3116  1.9409
 5526SOL     OW34187   4.328   7.294   4.492  0.2794  0.4312 -0.4980
 5526SOL    HW134188   4.297   7.327   4.576  1.0089  1.8985 -0.7561
 5526SOL    HW234189   4.268   7.224   4.468  0.7446 -0.8215  1.7889
 5527SOL     OW34190  13.477   7.639   9.419 -0.4055  0.2947 -0.4828
 5527SOL    HW134191  13.396   7.638   9.469 -1.1052 -0.9531 -1.5924
 5527SOL    HW234192  13.521   7.557   9.443 -0.4629 -0.0221 -1.4270
 5528SOL     OW34193   3.846   9.789   1.944 -0.1424 -0.3660 -0.1446
 5528SOL    HW134194   3.755   9.762   1.931 -0.1688 -1.3221  1.6497
 5528SOL    HW234195   3.895   9.707   1.949  0.5270  0.0647  0.6930
 5529SOL     OW34196   9.216  10.934   8.734  0.1679  0.3286  0.0305
 5529SOL    HW134197   9.195  10.857   8.680  1.7710 -1.4152  1.7214
 5529SOL    HW234198   9.131  10.972   8.756 -0.7834 -1.7140  0.1272
 5530SOL     OW34199  12.700   2.996   7.374  1.0333 -0.0426  0.1803
 5530SOL    HW134200  12.778   2.961   7.416 -0.3891 -1.4254  1.8326
 5530SOL    HW234201  12.640   3.015   7.447 -0.9975 -1.1762 -1.0872
 5531SOL     OW34202   9.817   4.076   0.631  0.3008  0.2177 -0.9278
 5531SOL    HW134203   9.737   4.040   0.669  0.8652 -0.8808 -0.7386
 5531SOL    HW234204   9.869   4.000   0.608  1.9757  0.9023  0.3866
 5532SOL     OW34205   4.536   9.748   2.372 -0.4058  0.4048 -0.1412
 5532SOL    HW134206   4.460   9.774   2.320 -0.1683  1.3622 -0.0231
 5532SOL    HW234207   4.609   9.747   2.310 -0.0848  1.7333  0.1728
 5533SOL     OW34208   1.559  12.098   2.609 -0.1546  0.4374  0.0406
 5533SOL    HW134209   1.622  12.086   2.681 -2.4031 -0.7166  1.9804
 5533SOL    HW234210   1.510  12.176   2.633  1.8657  2.7408 -2.6534
 5534SOL     OW34211   9.753   9.563   2.248 -0.0913  0.8412  0.0349
 5534SOL    HW134212   9.712   9.598   2.327 -0.9379  1.7368 -0.7740
 5534SOL    HW234213   9.814   9.632   2.220  1.2589 -0.0484  0.6518
 5535SOL     OW34214   6.506   3.232   9.843  0.1384 -0.0229 -0.1316
 5535SOL    HW134215   6.520   3.243   9.749 -2.3102  2.3535 -0.3539
 5535SOL    HW234216   6.590   3.202   9.877  1.5986  0.7050 -2.8399
 5536SOL     OW34217  13.237   5.142   7.131 -0.2787 -0.3338  0.0883
 5536SOL    HW134218  13.309   5.153   7.194 -1.1067  2.3488  0.6700
 5536SOL    HW234219  13.163   5.112   7.184 -0.5905  0.5525  0.1673
 5537SOL     OW34220   2.211   5.434  12.062  0.9200  0.1860 -0.3019
 5537SOL    HW134221   2.125   5.405  12.094  1.1487 -0.5429 -0.3237
 5537SOL    HW234222   2.191   5.488  11.986  0.4680  0.2288 -0.1565
 5538SOL     OW34223   7.277   4.169   7.282  0.0989  0.1449  0.5546
 5538SOL    HW134224   7.349   4.228   7.301 -0.1462  0.2861  1.0615
 5538SOL    HW234225   7.316   4.081   7.284 -0.0314  0.0855  2.4098
 5539SOL     OW34226  13.455  10.927   5.733  0.8088 -0.2501 -0.1979
 5539SOL    HW134227  13.531  10.912   5.676  1.2611 -0.6967  0.5024
 5539SOL    HW234228  13.489  10.979   5.805  0.7777 -1.5598  0.8045
 5540SOL     OW34229   1.341   9.352   7.377 -0.3724 -0.3185 -0.0837
 5540SOL    HW134230   1.376   9.270   7.414 -0.0916 -0.0967  0.1556
 5540SOL    HW234231   1.338   9.412   7.452  1.5354  0.5841 -0.6506
 5541SOL     OW34232   0.485   1.180   9.992 -0.7937  0.2944 -0.4631
 5541SOL    HW134233   0.446   1.264   9.964 -1.3259  0.1132 -0.2833
 5541SOL    HW234234   0.559   1.168   9.933  0.6069  1.9370  0.8660
 5542SOL     OW34235   2.053   7.793  10.681 -0.1564  0.2348  0.7638
 5542SOL    HW134236   2.089   7.720  10.732  0.3151  0.4941  0.8055
 5542SOL    HW234237   2.104   7.869  10.709  0.2355  0.3488 -0.2245
 5543SOL     OW34238   7.914   5.806   1.021  0.2425  0.1601  0.3988
 5543SOL    HW134239   7.928   5.724   1.069 -0.2851 -0.5368 -0.5936
 5543SOL    HW234240   7.827   5.836   1.050 -1.3712 -1.7086 -2.0124
 5544SOL     OW34241  12.913   3.248  12.460  0.1304 -0.8689  0.1113
 5544SOL    HW134242  12.922   3.343  12.471 -0.4185 -1.0211  2.1871
 5544SOL    HW234243  12.881   3.238  12.370  0.6604  0.8671 -0.3175
 5545SOL     OW34244   8.655  10.084   7.910  0.0006 -0.0014  0.0225
 5545SOL    HW134245   8.694  10.003   7.877 -1.0895 -1.5470  2.3056
 5545SOL    HW234246   8.730  10.138   7.936  0.7075 -0.6433 -0.6091
 5546SOL     OW34247   0.703   4.015   8.030 -0.0388  0.1708  0.2785
 5546SOL    HW134248   0.719   3.996   7.937  0.3762  0.8720  0.2004
 5546SOL    HW234249   0.786   3.995   8.073 -0.5574 -1.2344  0.6872
 5547SOL     OW34250   8.159  12.404   6.217  0.1755 -0.7497 -0.2357
 5547SOL    HW134251   8.185  12.322   6.259  1.8026 -0.8347 -1.3369
 5547SOL    HW234252   8.218  12.470   6.254  1.2931 -0.7358 -1.9179
 5548SOL     OW34253  14.090   2.899   4.516 -0.3418  0.8434 -0.3316
 5548SOL    HW134254  14.068   2.806   4.516 -1.7735  1.1539 -1.7264
 5548SOL    HW234255  14.117   2.918   4.426  0.5323  1.6642  0.0809
 5549SOL     OW34256   5.237   4.076  10.796 -0.3814 -0.3786 -0.1558
 5549SOL    HW134257   5.243   4.156  10.745 -2.0884 -1.2288 -1.8213
 5549SOL    HW234258   5.225   4.105  10.887 -0.0081  1.1998 -0.5897
 5550SOL     OW34259  11.461  10.064   8.938  0.4772  0.3791  0.2139
 5550SOL    HW134260  11.367  10.051   8.922 -0.1897  2.5391  1.8010
 5550SOL    HW234261  11.493  10.108   8.860  0.1443 -0.2254 -0.2715
 5551SOL     OW34262  10.752  10.249  10.886  0.5780  0.1773 -0.4783
 5551SOL    HW134263  10.721  10.267  10.797 -0.1210 -1.0365 -0.4909
 5551SOL    HW234264  10.802  10.328  10.910 -1.0213  1.4433 -1.1295
 5552SOL     OW34265   4.892   0.953   4.652  0.3357  0.3214  0.0183
 5552SOL    HW134266   4.879   0.970   4.559  0.5834  0.7159  0.0550
 5552SOL    HW234267   4.950   1.023   4.682  2.0010 -0.9920  0.0110
 5553SOL     OW34268   0.384   3.710   3.025 -0.3917 -0.0704  0.0034
 5553SOL    HW134269   0.309   3.695   3.083 -0.1123  0.6310  0.5632
 5553SOL    HW234270   0.380   3.803   3.003  1.1934  0.3571  1.3258
 5554SOL     OW34271  11.582   2.697   0.010  0.3550  0.7075  0.3241
 5554SOL    HW134272  11.498   2.691  -0.035  0.7300  2.8001 -0.8298
 5554SOL    HW234273  11.579   2.629   0.077 -1.6791 -0.1814 -0.5740
 5555SOL     OW34274   9.698   9.427   4.006 -0.1350 -0.7257  0.4195
 5555SOL    HW134275   9.671   9.519   4.010 -0.5195 -0.7877 -0.5578
 5555SOL    HW234276   9.668   9.390   4.089 -1.1543 -0.2715  0.2713
 5556SOL     OW34277  12.284  10.544   1.315 -0.5198  0.1177  0.5396
 5556SOL    HW134278  12.274  10.575   1.405 -2.9959  1.9276 -0.2486
 5556SOL    HW234279  12.201  10.501   1.296  0.7592 -2.1528 -0.2691
 5557SOL     OW34280   4.514   7.451   8.562  0.2115 -0.0863 -0.0752
 5557SOL    HW134281   4.585   7.451   8.626 -0.1954  1.1144  0.3912
 5557SOL    HW234282   4.556   7.426   8.479  1.5880  2.3608 -0.2110
 5558SOL     OW34283  10.730   3.518   4.548 -0.2678 -0.1836 -0.5500
 5558SOL    HW134284  10.791   3.456   4.506 -1.1622 -0.5116 -1.4064
 5558SOL    HW234285  10.767   3.531   4.636  0.5610 -1.0530 -0.7396
 5559SOL     OW34286  12.097   3.971   5.192  0.1242 -0.3754 -0.0717
 5559SOL    HW134287  12.068   4.019   5.115  3.2947  0.4030 -0.9179
 5559SOL    HW234288  12.064   4.021   5.266  0.1759  0.9865 -0.9453
 5560SOL     OW34289   3.985   2.470  11.970 -0.3365 -0.5371 -0.4240
 5560SOL    HW134290   4.038   2.526  12.026 -1.7160  0.4414 -0.0342
 5560SOL    HW234291   4.040   2.453  11.893  1.0729 -0.8044  0.6071
 5561SOL     OW34292  10.700   7.590   0.620 -0.4956  0.3426  0.2729
 5561SOL    HW134293  10.689   7.655   0.690 -0.7965  0.8237 -0.2142
 5561SOL    HW234294  10.650   7.625   0.546  0.6409  0.3497 -0.5169
 5562SOL     OW34295  11.132  10.381   2.137  0.1270  0.5458  0.3779
 5562SOL    HW134296  11.110  10.422   2.220  0.5579  1.8053 -0.1168
 5562SOL    HW234297  11.047  10.353   2.101  0.0281 -1.0349  1.7192
 5563SOL     OW34298   7.336  10.644   5.743 -0.3625  0.1913 -0.0499
 5563SOL    HW134299   7.356  10.622   5.834 -0.0306 -0.2794 -0.2294
 5563SOL    HW234300   7.406  10.602   5.693 -0.1160  1.0723 -0.4674
 5564SOL     OW34301   2.530   1.222  13.344  0.0068  0.2908  0.1488
 5564SOL    HW134302   2.590   1.164  13.391  0.6952  2.5347  2.2668
 5564SOL    HW234303   2.580   1.252  13.268  0.5742  0.0752  0.4329
 5565SOL     OW34304   2.867  10.012   2.073  0.6238  0.4816  0.1113
 5565SOL    HW134305   2.881   9.973   2.160 -0.7466  2.2878  1.2168
 5565SOL    HW234306   2.955  10.016   2.035  1.4378  0.7122  1.9020
 5566SOL     OW34307   4.842  14.055   7.982  0.0848 -0.3428 -0.5239
 5566SOL    HW134308   4.831  14.068   8.077  2.5769  0.8579 -0.3056
 5566SOL    HW234309   4.780  14.115   7.942 -0.3600 -0.1954  0.3666
 5567SOL     OW34310  13.712  13.968   7.105 -0.1335 -0.2305 -0.2760
 5567SOL    HW134311  13.776  13.915   7.058 -1.0746 -1.6443 -0.0153
 5567SOL    HW234312  13.660  14.010   7.037  0.3249  0.0166 -0.4806
 5568SOL     OW34313   1.822   6.056  13.555  0.4278 -0.3813 -0.1742
 5568SOL    HW134314   1.733   6.084  13.536 -0.0049 -1.5888  0.0100
 5568SOL    HW234315   1.858   6.126  13.610 -1.0351 -0.7549  1.3323
 5569SOL     OW34316  13.463   3.614  12.466  0.2379  0.4548  0.4320
 5569SOL    HW134317  13.411   3.537  12.490  0.2146  0.8001  1.5267
 5569SOL    HW234318  13.421   3.687  12.511  1.7938  0.7103  1.5549
 5570SOL     OW34319   4.041  13.585   3.169  0.0996  0.0299  0.2470
 5570SOL    HW134320   3.984  13.655   3.137 -2.1941 -1.9619 -0.2792
 5570SOL    HW234321   4.038  13.594   3.264  0.8703  1.3752  0.1758
 5571SOL     OW34322   2.941   6.741   6.094 -0.0672  0.4417  0.0427
 5571SOL    HW134323   2.929   6.793   6.174 -0.3348 -2.3794  1.9818
 5571SOL    HW234324   3.033   6.715   6.095 -0.6224 -1.6411  0.8403
 5572SOL     OW34325  11.905   0.382   5.389 -0.3737 -0.3937  0.3384
 5572SOL    HW134326  11.823   0.393   5.437 -0.3406  0.1840  0.2695
 5572SOL    HW234327  11.949   0.466   5.397 -0.0510 -0.5159 -0.1151
 5573SOL     OW34328  14.083   9.818   9.930  0.1046  0.4662  0.0940
 5573SOL    HW134329  14.104   9.728   9.955  0.4578  0.4906 -0.1103
 5573SOL    HW234330  14.077   9.815   9.835 -1.7594  0.2545  0.1802
 5574SOL     OW34331   9.541   3.218   1.882  0.2426 -0.1272 -0.1479
 5574SOL    HW134332   9.607   3.159   1.847  2.3005  1.9592 -0.0762
 5574SOL    HW234333   9.520   3.276   1.809  0.5097  0.8681  0.5413
 5575SOL     OW34334   4.324   1.153   7.980  0.2277 -0.6953  0.1837
 5575SOL    HW134335   4.244   1.126   7.934 -0.7531  0.7337  0.9681
 5575SOL    HW234336   4.313   1.117   8.069 -0.5006  1.0846  0.8640
 5576SOL     OW34337   7.261   4.783  12.318  0.0638 -0.0343  0.2462
 5576SOL    HW134338   7.312   4.702  12.306 -1.0390 -0.5640 -1.1489
 5576SOL    HW234339   7.302   4.846  12.257 -1.3804 -0.7117 -1.5207
 5577SOL     OW34340   7.143  11.575  11.522 -0.4930  0.3230 -0.2640
 5577SOL    HW134341   7.177  11.506  11.578 -0.9307  0.3520  0.0369
 5577SOL    HW234342   7.075  11.533  11.469 -0.3239  0.3764 -0.5303
 5578SOL     OW34343  13.794   6.719   3.410  0.2273  0.2208  0.7694
 5578SOL    HW134344  13.748   6.652   3.360 -2.7799  1.6375  1.3934
 5578SOL    HW234345  13.794   6.687   3.500 -1.3314  1.0390  1.0906
 5579SOL     OW34346   8.714   5.060   1.416 -0.1403  0.1519 -0.6224
 5579SOL    HW134347   8.657   5.008   1.360 -1.6271  0.9845  0.0453
 5579SOL    HW234348   8.789   5.003   1.434 -0.7102 -0.9513 -1.6058
 5580SOL     OW34349  11.537  12.993   8.695  0.3700 -0.1960 -0.1381
 5580SOL    HW134350  11.454  12.964   8.657  0.4019  0.0258 -0.3795
 5580SOL    HW234351  11.536  12.958   8.784  0.2200 -0.5775 -0.2891
 5581SOL     OW34352   1.471   7.415   5.489 -0.5064  0.4321 -0.3518
 5581SOL    HW134353   1.483   7.401   5.395  0.2114  1.0524 -0.3590
 5581SOL    HW234354   1.544   7.472   5.514  0.0843 -0.7718  0.8258
 5582SOL     OW34355   2.402   2.650  12.407  0.1395 -0.2786  0.3548
 5582SOL    HW134356   2.335   2.626  12.472 -0.1060  1.9869  1.0326
 5582SOL    HW234357   2.377   2.601  12.329 -1.6296 -0.4200  0.9440
 5583SOL     OW34358   9.707  11.054  12.428 -0.0141  0.3195  0.3404
 5583SOL    HW134359   9.761  10.976  12.414 -1.7771 -0.8759 -0.1669
 5583SOL    HW234360   9.666  11.071  12.343 -1.1687  0.5807  0.9238
 5584SOL     OW34361   0.232  13.016  12.574  0.8478 -0.0555 -0.1019
 5584SOL    HW134362   0.165  13.003  12.507 -0.5715 -1.8174  1.5454
 5584SOL    HW234363   0.313  12.986  12.532  0.5474  1.4104 -1.8732
 5585SOL     OW34364   7.248  12.835  14.022  0.0104 -0.0886 -0.3633
 5585SOL    HW134365   7.212  12.747  14.010  2.3473 -1.1804  0.2304
 5585SOL    HW234366   7.343  12.824  14.020  0.3938  2.5855 -1.2898
 5586SOL     OW34367  10.902   8.236   5.475  0.1928 -0.0568 -0.1401
 5586SOL    HW134368  10.872   8.172   5.411 -3.6130 -1.1935  2.4371
 5586SOL    HW234369  10.853   8.316   5.455  0.6026  0.2534  0.0701
 5587SOL     OW34370  13.222   0.681  12.126  0.2070  0.4622  0.1026
 5587SOL    HW134371  13.242   0.715  12.039  0.9190 -0.2539 -0.0311
 5587SOL    HW234372  13.259   0.593  12.126  1.4291  0.9232  1.5730
 5588SOL     OW34373  10.642   5.833   4.727  0.2494  0.2148 -0.4591
 5588SOL    HW134374  10.732   5.813   4.699  0.8800 -0.4122  1.7694
 5588SOL    HW234375  10.591   5.833   4.646  1.6643 -2.6025 -1.5043
 5589SOL     OW34376   8.842   2.693   8.723 -0.1820  0.3529  0.5531
 5589SOL    HW134377   8.841   2.757   8.652  0.3177  0.5469  0.7158
 5589SOL    HW234378   8.787   2.732   8.791 -0.7625  0.1109  0.2340
 5590SOL     OW34379   8.593  11.038   9.622 -0.2378 -0.2975 -0.0812
 5590SOL    HW134380   8.653  11.008   9.554 -0.0983  0.5441 -0.3390
 5590SOL    HW234381   8.526  10.970   9.627  0.6877 -1.2224  0.1589
 5591SOL     OW34382   2.596   8.797   4.804  0.0616 -0.0208 -0.0045
 5591SOL    HW134383   2.687   8.777   4.827  0.5783  1.4434 -0.6412
 5591SOL    HW234384   2.551   8.713   4.808  1.6252 -0.9173 -0.4924
 5592SOL     OW34385   3.629   1.674   1.240 -0.2867 -0.2505  0.6703
 5592SOL    HW134386   3.534   1.676   1.237 -0.4563  0.3625  3.4017
 5592SOL    HW234387   3.652   1.582   1.230 -1.0959 -0.3293 -0.6649
 5593SOL     OW34388  11.107  10.859   5.511  0.4078  0.2259 -0.0502
 5593SOL    HW134389  11.126  10.938   5.561  0.5668 -0.5505  1.1386
 5593SOL    HW234390  11.018  10.873   5.478 -0.3594  0.0678  1.8437
 5594SOL     OW34391   4.062   1.552   8.103 -0.0260 -0.4458  0.5237
 5594SOL    HW134392   4.062   1.598   8.187 -0.1598 -0.4413  0.5205
 5594SOL    HW234393   4.006   1.476   8.117 -2.0960  0.8598 -0.2850
 5595SOL     OW34394  11.468   8.424   7.009 -0.1550 -0.2926  0.2533
 5595SOL    HW134395  11.529   8.416   6.936 -0.5290 -0.1348 -0.0812
 5595SOL    HW234396  11.504   8.493   7.064 -0.5616  0.5082 -0.4719
 5596SOL     OW34397  12.497  12.348  10.096 -0.5957  0.0843  0.1449
 5596SOL    HW134398  12.445  12.420  10.060 -0.4571 -0.5251 -1.3400
 5596SOL    HW234399  12.490  12.278  10.031  2.6396  0.2043 -0.4950
 5597SOL     OW34400  10.846   9.375   9.352  0.1105  0.7770 -0.0929
 5597SOL    HW134401  10.820   9.288   9.383  0.4598  0.5292 -0.4884
 5597SOL    HW234402  10.908   9.358   9.282 -0.5949  1.3255 -0.8761
 5598SOL     OW34403   1.877  12.400   3.293 -0.7355 -0.0767 -0.2874
 5598SOL    HW134404   1.803  12.427   3.346 -0.8177  0.2490 -0.5611
 5598SOL    HW234405   1.954  12.421   3.346 -0.7987  0.7400 -0.5160
 5599SOL     OW34406   4.497  10.868  11.131 -0.0760 -0.3568 -0.4714
 5599SOL    HW134407   4.548  10.901  11.205 -0.7850 -0.3929  0.0575
 5599SOL    HW234408   4.469  10.781  11.158 -0.2923 -0.3948 -0.8044
 5600SOL     OW34409   6.929   5.008  12.589  0.2389 -0.5508  0.1462
 5600SOL    HW134410   6.949   4.981  12.500  0.3833  1.2152 -0.3859
 5600SOL    HW234411   6.886   5.093  12.580 -0.5978 -0.7611  1.7159
 5601SOL     OW34412   2.600   1.510   7.467 -0.2292 -0.7791  0.2579
 5601SOL    HW134413   2.583   1.425   7.507  1.9704 -1.0584  0.6925
 5601SOL    HW234414   2.642   1.490   7.383 -1.1125 -0.1121 -0.3747
 5602SOL     OW34415   4.673   1.943   7.137 -0.1042  0.2207 -0.2985
 5602SOL    HW134416   4.676   2.029   7.178 -0.0643  0.0110  0.1419
 5602SOL    HW234417   4.713   1.884   7.201 -0.3986 -0.1709 -0.4716
 5603SOL     OW34418   5.685   5.870   2.532  0.4079 -0.2453  0.1180
 5603SOL    HW134419   5.632   5.874   2.612  0.6100  0.1721  0.2331
 5603SOL    HW234420   5.728   5.785   2.537  0.4753 -0.1917  0.4936
 5604SOL     OW34421   4.805  12.001   2.258 -0.3070  0.1873  0.3921
 5604SOL    HW134422   4.819  11.954   2.340  0.4555  0.9143  0.7008
 5604SOL    HW234423   4.889  11.996   2.213 -0.5017  0.4276 -0.0047
 5605SOL     OW34424   2.234  13.913  10.486  0.5479  0.6243 -0.1098
 5605SOL    HW134425   2.166  13.965  10.445  0.4335 -0.6208 -1.5917
 5605SOL    HW234426   2.266  13.967  10.559 -1.7457  1.3708  0.4063
 5606SOL     OW34427   8.549  12.071   7.772 -0.3540 -0.1765  0.2871
 5606SOL    HW134428   8.466  12.116   7.753  0.4450  0.7030 -1.3374
 5606SOL    HW234429   8.584  12.050   7.686 -0.2639 -3.2115  0.9630
 5607SOL     OW34430   5.803  11.473  12.486 -0.2420 -0.2232  0.2554
 5607SOL    HW134431   5.741  11.523  12.433  0.0241 -0.3294 -0.1635
 5607SOL    HW234432   5.786  11.382  12.462 -1.8707 -0.5032  2.2279
 5608SOL     OW34433  10.855   0.739   2.348 -0.6637 -0.1948 -0.8071
 5608SOL    HW134434  10.837   0.675   2.279 -0.8850 -0.1427 -0.7973
 5608SOL    HW234435  10.779   0.797   2.349  0.5104  1.5007 -2.3957
 5609SOL     OW34436   6.320   1.476   3.883  0.0642 -0.1586  0.0366
 5609SOL    HW134437   6.365   1.486   3.966  0.6642  0.6865 -0.3838
 5609SOL    HW234438   6.322   1.382   3.866  0.2952 -0.2905  0.7752
 5610SOL     OW34439   1.788   2.538   0.917 -0.3874 -0.1342  0.4066
 5610SOL    HW134440   1.694   2.552   0.913 -0.7162 -2.1055  0.2016
 5610SOL    HW234441   1.798   2.443   0.915  1.5955  0.0246  0.7537
 5611SOL     OW34442   7.483   6.902   6.847 -0.6370  0.0251 -0.0869
 5611SOL    HW134443   7.499   6.815   6.811  0.2203  0.4652 -0.8310
 5611SOL    HW234444   7.511   6.962   6.777 -2.7600  0.9140 -0.2514
 5612SOL     OW34445   7.478  11.614   6.351 -0.2513 -1.0413 -0.7348
 5612SOL    HW134446   7.392  11.640   6.384  0.0456 -1.5657  0.4984
 5612SOL    HW234447   7.507  11.689   6.299 -0.3073  0.2815  1.0423
 5613SOL     OW34448   7.319   4.133   2.321 -0.0199 -0.4763  0.1774
 5613SOL    HW134449   7.336   4.201   2.256 -0.1753 -0.2588  0.3636
 5613SOL    HW234450   7.329   4.177   2.406 -1.6881 -0.2663  0.3138
 5614SOL     OW34451   4.894  12.463   6.342 -0.0145  0.0494 -0.0545
 5614SOL    HW134452   4.858  12.379   6.370 -1.1154  0.2734 -0.7582
 5614SOL    HW234453   4.900  12.457   6.247 -1.1791  1.1680 -0.2263
 5615SOL     OW34454  12.851  12.435   6.842 -0.3181  0.9029 -0.1617
 5615SOL    HW134455  12.862  12.524   6.808 -0.8019  0.6444 -1.0388
 5615SOL    HW234456  12.933  12.415   6.887  1.5537  0.2258 -3.5870
 5616SOL     OW34457   0.487   5.602   5.620 -0.1457  0.0036 -0.1764
 5616SOL    HW134458   0.528   5.642   5.696  0.6151  1.6105 -1.3651
 5616SOL    HW234459   0.393   5.616   5.632 -0.4249 -2.9387  2.1513
 5617SOL     OW34460   5.060  12.725   5.981  0.1739  0.3493  0.3974
 5617SOL    HW134461   5.063  12.777   6.062 -0.5287  0.1334  0.5664
 5617SOL    HW234462   5.141  12.748   5.935  0.5430  0.5360  1.1226
 5618SOL     OW34463   5.282   4.093   4.658 -0.1059 -0.6276 -0.0277
 5618SOL    HW134464   5.304   4.161   4.594 -1.3860  0.6321  0.8220
 5618SOL    HW234465   5.355   4.092   4.719 -0.7456  1.1411  0.8475
 5619SOL     OW34466  11.578  11.823   7.224 -0.0723  0.0455  0.1210
 5619SOL    HW134467  11.530  11.770   7.160  1.5048 -0.5838 -0.6086
 5619SOL    HW234468  11.649  11.863   7.174  0.3112  0.7639  1.1916
 5620SOL     OW34469   2.156   2.122   0.356 -0.0694  0.1631 -0.5206
 5620SOL    HW134470   2.136   2.198   0.301  1.0467  1.5345  0.8886
 5620SOL    HW234471   2.183   2.054   0.293  0.1947  1.3508 -1.7479
 5621SOL     OW34472  11.245   2.221  14.052 -0.5063  0.5933  0.4000
 5621SOL    HW134473  11.169   2.244  14.106 -1.9592  0.6764 -1.5892
 5621SOL    HW234474  11.268   2.302  14.007  0.6625  0.5116  0.8043
 5622SOL     OW34475   9.997   2.618  11.120  0.3437  0.3562  0.2835
 5622SOL    HW134476  10.077   2.583  11.158 -0.6428 -0.4337  1.7193
 5622SOL    HW234477   9.997   2.711  11.144  0.6813  0.2922  0.5352
 5623SOL     OW34478   8.186   2.259  12.210 -0.7518  0.3687  0.1244
 5623SOL    HW134479   8.135   2.328  12.168 -0.1797  1.8732  1.7620
 5623SOL    HW234480   8.277   2.279  12.188 -0.5785  0.1083  0.5847
 5624SOL     OW34481   3.458   5.987   3.912  0.0124  0.2058  0.0207
 5624SOL    HW134482   3.529   5.923   3.907 -0.1688  0.0576 -0.7989
 5624SOL    HW234483   3.502   6.072   3.912  0.2052  0.1060  0.0031
 5625SOL     OW34484   9.272  12.727   7.895  0.2954 -0.8586 -0.1101
 5625SOL    HW134485   9.202  12.774   7.849 -1.5306 -0.9751  2.3283
 5625SOL    HW234486   9.351  12.750   7.848 -0.9388  2.0562 -1.0282
 5626SOL     OW34487   8.585   6.538   9.723  0.1945  0.3076 -0.7045
 5626SOL    HW134488   8.623   6.618   9.687  1.3728 -0.6395 -1.6998
 5626SOL    HW234489   8.661   6.486   9.748 -0.5569 -0.3921  0.1584
 5627SOL     OW34490   8.748   0.525   7.409  0.3346 -0.2885 -0.1106
 5627SOL    HW134491   8.773   0.497   7.497  1.4327  0.0190 -0.3070
 5627SOL    HW234492   8.689   0.599   7.422 -0.3388 -0.9007  0.3725
 5628SOL     OW34493   6.056  11.359   8.997 -0.1963  0.5021 -0.0586
 5628SOL    HW134494   5.998  11.295   9.037  0.8609 -1.4756 -1.5105
 5628SOL    HW234495   6.001  11.437   8.986 -1.1018  0.4439  3.1328
 5629SOL     OW34496   3.642  12.482   0.424 -0.4250 -0.4037  0.6709
 5629SOL    HW134497   3.737  12.482   0.438 -0.1992 -0.7926 -0.7559
 5629SOL    HW234498   3.631  12.498   0.331 -1.8025  0.3147  0.9353
 5630SOL     OW34499   5.092  12.098   7.727 -0.1988  0.7693  1.1835
 5630SOL    HW134500   5.140  12.144   7.659  0.1958 -0.1851  0.8008
 5630SOL    HW234501   5.062  12.167   7.787  1.8095  1.3715  1.5454
 5631SOL     OW34502  11.602   7.503   7.495 -0.1686 -0.7040  0.4255
 5631SOL    HW134503  11.698   7.510   7.500 -0.2311  1.1591 -0.2039
 5631SOL    HW234504  11.585   7.473   7.406 -0.1795 -1.3684  0.6435
 5632SOL     OW34505   3.003   8.237   4.770 -0.3514 -0.2199  0.2595
 5632SOL    HW134506   3.007   8.333   4.767  1.2662 -0.2724  0.1982
 5632SOL    HW234507   2.970   8.217   4.858 -0.4072  0.3845  0.3810
 5633SOL     OW34508  12.011   4.657   1.612 -0.4057  0.2580 -0.5366
 5633SOL    HW134509  11.941   4.714   1.643 -0.7928 -0.1491 -0.6495
 5633SOL    HW234510  12.064   4.639   1.690 -0.8985 -0.0968 -0.2803
 5634SOL     OW34511  11.473   2.817   0.390  0.0788 -0.0701 -0.1288
 5634SOL    HW134512  11.536   2.753   0.423 -0.0688  0.0052  0.3014
 5634SOL    HW234513  11.527   2.883   0.346  0.2382 -0.4346 -0.4862
 5635SOL     OW34514   7.555  12.559   3.394 -0.1452  0.1002  0.7719
 5635SOL    HW134515   7.584  12.479   3.436 -1.0455 -0.9235 -0.4939
 5635SOL    HW234516   7.461  12.548   3.382 -0.7887  2.3740  2.7217
 5636SOL     OW34517  13.308   2.882   7.040 -0.2371 -0.9238 -0.0924
 5636SOL    HW134518  13.281   2.824   6.969  0.6164 -3.4957  1.5456
 5636SOL    HW234519  13.403   2.874   7.043  0.0111  1.2572 -0.2909
 5637SOL     OW34520   1.470  12.310   0.994 -0.4616  0.0693  0.4174
 5637SOL    HW134521   1.413  12.243   0.956  0.1891 -0.4641  0.3737
 5637SOL    HW234522   1.548  12.309   0.940 -0.5464  1.0486  0.2644
 5638SOL     OW34523   5.631   0.477   2.889 -0.1557 -0.6154  0.2957
 5638SOL    HW134524   5.593   0.434   2.812  0.0595 -0.5737  0.1650
 5638SOL    HW234525   5.565   0.466   2.957 -0.8836  0.4229 -0.2171
 5639SOL     OW34526   3.762   0.105   4.249 -0.6385  0.1538  0.5064
 5639SOL    HW134527   3.740   0.021   4.211  0.2461  0.8750 -1.7785
 5639SOL    HW234528   3.706   0.168   4.204 -0.6287  0.9124  1.5040
 5640SOL     OW34529   1.741   4.038   6.469  0.2172  0.0043 -0.0314
 5640SOL    HW134530   1.790   4.118   6.488 -0.2963 -0.1234  2.0745
 5640SOL    HW234531   1.790   3.996   6.397  0.5618  2.1029 -1.0808
 5641SOL     OW34532   0.421   3.224   1.618  0.1257  1.4298 -0.2105
 5641SOL    HW134533   0.377   3.256   1.539 -0.7609  1.1912  0.1718
 5641SOL    HW234534   0.478   3.154   1.586 -0.1958  1.3633 -0.6538
 5642SOL     OW34535   6.921  12.631  10.535 -0.0175 -0.5968  0.2289
 5642SOL    HW134536   6.916  12.538  10.512 -0.6878 -0.7491  0.9470
 5642SOL    HW234537   6.830  12.658  10.544  0.1737  0.1646 -0.0701
 5643SOL     OW34538  13.904  12.788   7.049 -0.1203 -0.1097  0.0419
 5643SOL    HW134539  13.864  12.790   6.962 -0.9899  1.2530  0.4399
 5643SOL    HW234540  13.901  12.695   7.074 -1.1049 -0.3396 -0.8278
 5644SOL     OW34541   0.397   3.035  13.403  0.3253 -0.0079 -0.1213
 5644SOL    HW134542   0.470   3.081  13.361 -0.3233  0.0388 -1.2380
 5644SOL    HW234543   0.320   3.088  13.382 -0.3922 -1.4172 -1.1759
 5645SOL     OW34544   9.920   9.505   1.733  0.0122 -0.1353  0.5802
 5645SOL    HW134545   9.971   9.581   1.762  0.3364 -0.4468  0.8379
 5645SOL    HW234546   9.873   9.536   1.656 -0.8757  0.7151  1.4286
 5646SOL     OW34547   1.771   4.674  10.066  0.3443 -0.7246  0.5391
 5646SOL    HW134548   1.686   4.633  10.048  0.0823  1.0233 -3.2085
 5646SOL    HW234549   1.748   4.760  10.101  0.6890 -1.0882  1.6938
 5647SOL     OW34550   9.819   4.829   5.184  0.3595  0.7564  0.2753
 5647SOL    HW134551   9.850   4.901   5.130  0.3324  1.2879  0.9539
 5647SOL    HW234552   9.811   4.867   5.272 -1.4925  0.4289  0.2713
 5648SOL     OW34553  12.593   8.791   1.200  0.6713  0.0344  0.1216
 5648SOL    HW134554  12.662   8.780   1.134 -0.8295 -1.3148 -1.2957
 5648SOL    HW234555  12.530   8.850   1.159 -0.1788 -0.6452  0.4323
 5649SOL     OW34556   7.155  12.073   4.350 -0.3637  0.1871 -0.3313
 5649SOL    HW134557   7.079  12.089   4.406  1.1381  4.2450  0.8905
 5649SOL    HW234558   7.173  12.157   4.309  3.0949 -0.7420 -1.0236
 5650SOL     OW34559   2.598  12.449   4.649  0.1540  0.0310  0.2384
 5650SOL    HW134560   2.559  12.537   4.650 -0.2845 -0.1223  2.7004
 5650SOL    HW234561   2.531  12.393   4.688  2.1279 -0.5042  3.2224
 5651SOL     OW34562   1.460   9.476  11.570  0.0933 -0.4389  0.1970
 5651SOL    HW134563   1.503   9.558  11.543  0.3048 -1.0885 -1.5513
 5651SOL    HW234564   1.465   9.477  11.666  0.1516  1.5537  0.2090
 5652SOL     OW34565   8.283   7.071  11.269  0.0840 -0.4728 -0.3689
 5652SOL    HW134566   8.365   7.023  11.255  1.2366  1.7607 -2.0767
 5652SOL    HW234567   8.242   7.073  11.182  0.3445  1.9367 -0.5038
 5653SOL     OW34568   0.660  10.772   8.308  0.3745  0.1291  0.1924
 5653SOL    HW134569   0.606  10.843   8.273  0.1757 -0.5440 -0.9389
 5653SOL    HW234570   0.732  10.763   8.245 -0.3418 -1.5521 -0.4675
 5654SOL     OW34571   7.018   0.716   8.022  0.2622 -0.0177 -0.1020
 5654SOL    HW134572   6.989   0.657   7.952  0.2834  1.6222 -1.5784
 5654SOL    HW234573   6.981   0.679   8.102 -0.6138 -1.4264 -1.1179
 5655SOL     OW34574   4.462   9.258   5.345  0.4871  0.8860  0.5682
 5655SOL    HW134575   4.543   9.285   5.389  0.3390  0.9441  0.8064
 5655SOL    HW234576   4.397   9.252   5.416  0.8675 -1.5659  0.8096
 5656SOL     OW34577   3.401   2.034   0.327  0.9509  0.1846  0.5689
 5656SOL    HW134578   3.374   2.046   0.235 -1.8514 -5.3393  0.2052
 5656SOL    HW234579   3.329   2.072   0.378 -0.2374 -1.3033  0.1061
 5657SOL     OW34580  11.792   3.714  10.638 -0.6467  0.0908 -0.7294
 5657SOL    HW134581  11.853   3.787  10.634 -1.4636  0.7722 -0.9769
 5657SOL    HW234582  11.732   3.735  10.709  0.1168 -1.1658  0.3391
 5658SOL     OW34583   5.773   5.344   2.903  0.2282 -0.3632  0.3587
 5658SOL    HW134584   5.780   5.434   2.936  0.5768 -0.3849  0.3542
 5658SOL    HW234585   5.863   5.312   2.904  0.1559 -0.5819 -0.0104
 5659SOL     OW34586   5.713   1.885  11.078 -0.2414 -0.4868  0.4136
 5659SOL    HW134587   5.682   1.947  11.143  0.3477 -0.2343  0.4578
 5659SOL    HW234588   5.665   1.804  11.097 -0.1430 -0.3890  1.1034
 5660SOL     OW34589  12.209  13.000   9.546 -0.0515  0.1931 -0.3749
 5660SOL    HW134590  12.209  13.001   9.642  0.7673 -0.7063 -0.3568
 5660SOL    HW234591  12.130  12.951   9.524 -0.6776  1.0872 -0.1903
 5661SOL     OW34592   6.293   3.991  12.106  0.0723 -0.0300  0.0015
 5661SOL    HW134593   6.240   3.913  12.126 -1.5575  1.2970  1.0824
 5661SOL    HW234594   6.239   4.065  12.134  2.0235  1.4683  0.0098
 5662SOL     OW34595   8.353  11.487  12.180 -0.0580  0.4400 -0.1708
 5662SOL    HW134596   8.366  11.489  12.275  0.6576  2.1646 -0.2587
 5662SOL    HW234597   8.374  11.397  12.155  2.5289  0.6286  0.9777
 5663SOL     OW34598   0.389   9.841   7.094  0.2629  0.3595  0.4710
 5663SOL    HW134599   0.353   9.853   7.182 -1.7730 -0.3643 -0.2027
 5663SOL    HW234600   0.347   9.761   7.061  0.8946  0.6581 -1.1827
 5664SOL     OW34601   3.084  11.972   8.458 -0.0876  0.0532  0.2645
 5664SOL    HW134602   3.053  12.059   8.433 -0.4703  0.6911  2.6567
 5664SOL    HW234603   3.031  11.911   8.406 -2.9144  1.1921  1.5737
 5665SOL     OW34604   5.908   0.679   7.546  0.0941 -0.0894 -0.6480
 5665SOL    HW134605   5.938   0.634   7.625  1.8060 -0.8029 -1.6440
 5665SOL    HW234606   5.846   0.619   7.505  3.1120 -2.2651 -2.5135
 5666SOL     OW34607   5.326  13.775   8.176 -0.5720 -0.3229  0.5121
 5666SOL    HW134608   5.408  13.791   8.130 -0.2624 -1.2470  0.7301
 5666SOL    HW234609   5.353  13.747   8.264 -1.1511  1.6928  1.3836
 5667SOL     OW34610   1.533   0.298   5.604 -0.5168  0.6265  0.2014
 5667SOL    HW134611   1.475   0.363   5.564 -0.5891 -0.6655 -1.9519
 5667SOL    HW234612   1.619   0.317   5.567 -0.1994  0.5467  0.8940
 5668SOL     OW34613   6.674   3.107   8.327  0.0922  0.0494  0.2736
 5668SOL    HW134614   6.637   3.020   8.339  0.6760 -0.1451  0.6883
 5668SOL    HW234615   6.743   3.096   8.261  0.7094  0.0374  0.9095
 5669SOL     OW34616  13.436   5.519   5.457 -0.2930 -1.1264  0.3452
 5669SOL    HW134617  13.507   5.518   5.521  1.1074 -1.1969 -1.1358
 5669SOL    HW234618  13.417   5.427   5.440  0.0052 -1.1183 -0.0397
 5670SOL     OW34619   0.886   9.003   5.988  0.1151 -0.0224 -0.1698
 5670SOL    HW134620   0.835   8.948   6.048  0.2634  1.0297  0.9817
 5670SOL    HW234621   0.828   9.075   5.966  0.5209  0.3014 -0.1982
 5671SOL     OW34622   5.561   5.980   3.605  0.0135  0.3464  0.2846
 5671SOL    HW134623   5.499   6.010   3.539  0.4864  1.7228  0.4325
 5671SOL    HW234624   5.545   6.037   3.681  1.6806  1.0034  0.1903
 5672SOL     OW34625   1.947   9.155   9.718  0.3284 -0.4844 -0.4153
 5672SOL    HW134626   1.996   9.210   9.780  0.0212 -1.0352  0.3314
 5672SOL    HW234627   2.013   9.122   9.658  0.4838  0.9235 -1.0671
 5673SOL     OW34628   7.391   2.543   3.731  0.3546  0.1423 -0.3464
 5673SOL    HW134629   7.382   2.527   3.637  1.4907 -0.8013 -0.3237
 5673SOL    HW234630   7.324   2.608   3.751  0.0211  0.2801 -1.7878
 5674SOL     OW34631   2.651   4.056   2.974 -0.3598 -0.1515 -0.2288
 5674SOL    HW134632   2.597   4.099   2.908 -1.3514 -1.4075 -0.2761
 5674SOL    HW234633   2.588   4.027   3.040  0.5789  0.7750  1.1167
 5675SOL     OW34634   4.270   8.046  13.133 -0.8040 -0.7580 -0.0886
 5675SOL    HW134635   4.318   7.963  13.125  1.9821  0.7834 -0.5166
 5675SOL    HW234636   4.323   8.098  13.193 -2.1367  0.9592 -0.3551
 5676SOL     OW34637   1.988  12.659  13.925  0.1911  0.1010 -0.0590
 5676SOL    HW134638   1.981  12.722  13.853 -0.6694 -4.4437 -4.5501
 5676SOL    HW234639   2.082  12.643  13.933  0.2321 -0.4279 -1.3507
 5677SOL     OW34640  14.029  11.195   5.258 -0.3203  0.3290  0.0081
 5677SOL    HW134641  13.980  11.186   5.177  0.4342  5.6393 -1.4499
 5677SOL    HW234642  14.121  11.197   5.231 -0.1059  3.7582  0.4864
 5678SOL     OW34643   1.030   1.828   9.885 -0.3338  0.3900  0.1201
 5678SOL    HW134644   1.024   1.751   9.941 -2.2476  1.2426  1.1676
 5678SOL    HW234645   0.994   1.798   9.801  2.5885 -0.9019 -0.8190
 5679SOL     OW34646   5.073   3.654  13.684  0.0156 -0.9011  0.2306
 5679SOL    HW134647   5.063   3.606  13.766  1.1305  0.3091  1.1140
 5679SOL    HW234648   4.983   3.665  13.651 -0.3710 -2.2513  0.7473
 5680SOL     OW34649   3.189   0.107   7.026 -0.4722 -0.6384  0.4969
 5680SOL    HW134650   3.180   0.092   6.932 -0.3748 -1.7926  0.6634
 5680SOL    HW234651   3.140   0.188   7.041 -0.5103 -0.4480 -0.5366
 5681SOL     OW34652  12.121  12.298  12.937 -0.0746  0.2298 -0.2840
 5681SOL    HW134653  12.057  12.361  12.968  0.4399  0.4969  0.2537
 5681SOL    HW234654  12.141  12.243  13.013 -0.4654 -0.5468 -0.7248
 5682SOL     OW34655  12.943  13.833   6.509 -0.5207 -0.2288 -0.5358
 5682SOL    HW134656  12.932  13.759   6.570 -0.4547  0.6159  0.5308
 5682SOL    HW234657  13.008  13.889   6.551 -1.7621  1.2460 -0.5113
 5683SOL     OW34658   1.589   8.230  13.142  0.5295 -0.1814  0.1532
 5683SOL    HW134659   1.597   8.298  13.209  0.2162 -0.2163  0.2287
 5683SOL    HW234660   1.606   8.274  13.060 -2.0633  0.5703 -0.0797
 5684SOL     OW34661   0.999   1.013  10.730  0.1361 -0.0916 -0.1445
 5684SOL    HW134662   0.934   1.082  10.740  0.0285 -0.3929  1.4605
 5684SOL    HW234663   0.947   0.932  10.722  0.1898  0.0650 -3.5565
 5685SOL     OW34664   5.098  11.406  10.785  0.8532  0.6305 -0.1100
 5685SOL    HW134665   5.011  11.404  10.826  1.2959 -0.2461  0.8474
 5685SOL    HW234666   5.090  11.469  10.714 -0.0569  2.0053  1.1385
 5686SOL     OW34667   2.138  13.253   9.749  0.7564 -0.5083  0.4107
 5686SOL    HW134668   2.158  13.291   9.664 -2.2340  0.4896  0.0106
 5686SOL    HW234669   2.185  13.170   9.751  1.6907 -0.0843 -1.7748
 5687SOL     OW34670   6.336   1.503   9.536 -0.1327  0.1639  0.4137
 5687SOL    HW134671   6.409   1.468   9.588  0.6018  0.4859 -0.3704
 5687SOL    HW234672   6.290   1.562   9.596  0.2791 -0.0146  0.9128
 5688SOL     OW34673   1.612   9.914  12.704 -0.0892 -0.4852  0.0013
 5688SOL    HW134674   1.616  10.009  12.715  1.3071 -0.7559  2.7884
 5688SOL    HW234675   1.660   9.897  12.623  0.4596  1.1400 -0.0530
 5689SOL     OW34676  12.637   5.468   6.501  0.4157 -0.7376  0.6736
 5689SOL    HW134677  12.685   5.421   6.432  0.4412 -0.3400  0.4155
 5689SOL    HW234678  12.701   5.530   6.537 -0.3970  1.2062 -1.0090
 5690SOL     OW34679  10.059   9.510   1.063  0.0735 -0.1381  0.1782
 5690SOL    HW134680  10.116   9.432   1.067  0.9489  0.4620 -0.2374
 5690SOL    HW234681  10.001   9.493   0.989  1.8172  0.5910 -1.4455
 5691SOL     OW34682  13.094   6.444   6.079  0.1819  0.5184 -0.1286
 5691SOL    HW134683  13.093   6.458   5.985 -1.2551 -2.0889 -0.5934
 5691SOL    HW234684  13.019   6.495   6.112 -0.4475 -0.0466 -0.6700
 5692SOL     OW34685   2.483   1.818   1.223  0.0789  0.2081  0.2185
 5692SOL    HW134686   2.512   1.855   1.307  1.7887 -1.4931  0.4654
 5692SOL    HW234687   2.440   1.890   1.178 -1.5884  1.0002  2.8463
 5693SOL     OW34688   9.789  11.066   3.851  0.3713 -0.2726  0.2839
 5693SOL    HW134689   9.740  10.992   3.885  0.0361 -0.2865 -0.2158
 5693SOL    HW234690   9.724  11.120   3.806  0.9033 -0.6888 -1.0625
 5694SOL     OW34691   9.549   0.766   8.371 -0.6449  0.7676  0.0647
 5694SOL    HW134692   9.563   0.677   8.338  0.4078  0.3059  1.6332
 5694SOL    HW234693   9.611   0.819   8.320 -0.2495  0.3546  0.1001
 5695SOL     OW34694   6.128  12.819  11.869 -0.0560 -0.0391 -0.2949
 5695SOL    HW134695   6.054  12.832  11.928  0.0357 -0.3606 -0.1035
 5695SOL    HW234696   6.104  12.742  11.818  0.4737 -0.6097  0.2972
 5696SOL     OW34697   7.946   1.441   4.400 -0.0740 -0.1028 -0.3303
 5696SOL    HW134698   7.972   1.354   4.431 -0.8448 -0.2711 -0.1298
 5696SOL    HW234699   7.879   1.469   4.463 -1.2885 -0.2283 -1.5217
 5697SOL     OW34700  11.639   0.567  13.924 -0.2941  0.0896 -0.2143
 5697SOL    HW134701  11.698   0.588  13.996 -0.5512  2.0699 -0.5010
 5697SOL    HW234702  11.551   0.582  13.959 -0.3975  1.9595 -1.1075
 5698SOL     OW34703   4.742   5.124   8.538  0.6281  0.0988 -0.2565
 5698SOL    HW134704   4.726   5.198   8.597  1.5849  0.5500 -0.5284
 5698SOL    HW234705   4.660   5.112   8.491  0.2565  0.5685  0.2600
 5699SOL     OW34706   4.393  11.052  13.159 -0.2102 -0.0063  0.1544
 5699SOL    HW134707   4.352  11.086  13.239 -0.8265  0.8154 -0.4985
 5699SOL    HW234708   4.345  10.972  13.139  0.2983 -0.5156  0.8878
 5700SOL     OW34709   4.517   9.683  13.689 -0.2124 -0.7486 -0.1184
 5700SOL    HW134710   4.568   9.740  13.748 -0.5458 -0.1755 -0.3755
 5700SOL    HW234711   4.476   9.619  13.747 -0.9999  0.1605  0.3517
 5701SOL     OW34712  12.488   0.083  10.883 -0.2594 -0.2275 -0.3058
 5701SOL    HW134713  12.538   0.008  10.851  1.6641  0.8257  0.0740
 5701SOL    HW234714  12.407   0.081  10.833  0.0887 -2.1019 -0.8555
 5702SOL     OW34715  13.322   3.196   2.498 -0.3117  0.1525 -0.4773
 5702SOL    HW134716  13.303   3.262   2.565 -0.0551 -0.3127  0.0568
 5702SOL    HW234717  13.387   3.238   2.442 -1.1161  0.8487 -0.9172
 5703SOL     OW34718   6.203   7.506   5.104 -0.6729 -0.4724  0.7259
 5703SOL    HW134719   6.261   7.490   5.029 -1.9204 -0.6972 -0.2121
 5703SOL    HW234720   6.263   7.513   5.179  0.4465 -2.5783  0.1010
 5704SOL     OW34721   2.773   5.832   2.720  0.0811  0.1777 -0.7289
 5704SOL    HW134722   2.821   5.914   2.711 -0.2427  0.4961  0.2961
 5704SOL    HW234723   2.692   5.846   2.671 -0.2141  0.6762 -0.1068
 5705SOL     OW34724   4.317   1.572   0.041  0.7521 -0.1093 -0.1309
 5705SOL    HW134725   4.226   1.594   0.064  0.7709 -1.1825  1.0458
 5705SOL    HW234726   4.369   1.641   0.084  0.5353  0.2002 -0.3570
 5706SOL     OW34727   9.160   5.760   0.699  0.1176 -0.5721  0.0922
 5706SOL    HW134728   9.231   5.802   0.748 -0.3440 -0.1396  0.3902
 5706SOL    HW234729   9.081   5.806   0.725 -0.0966 -0.0745 -1.3433
 5707SOL     OW34730  12.545  12.297  13.388  0.5284  0.6229  0.4724
 5707SOL    HW134731  12.639  12.282  13.394  0.1488 -1.6652  1.7095
 5707SOL    HW234732  12.509  12.264  13.470 -1.7729 -2.6194 -1.5675
 5708SOL     OW34733  12.106   9.864   5.483 -0.3053 -0.1332  0.5479
 5708SOL    HW134734  12.105   9.789   5.424 -0.3591 -0.6441  1.1931
 5708SOL    HW234735  12.014   9.883   5.500 -0.2911  0.0538  0.4306
 5709SOL     OW34736   1.989   7.495  13.396  0.4101  0.0176  0.1166
 5709SOL    HW134737   2.059   7.559  13.381  0.3609 -0.0796 -0.5701
 5709SOL    HW234738   2.035   7.416  13.427  0.9075 -0.8262 -2.5252
 5710SOL     OW34739   5.483   0.986   3.737  0.1791  0.2065  0.6056
 5710SOL    HW134740   5.474   0.967   3.644 -0.5012  0.2330  0.6602
 5710SOL    HW234741   5.542   1.061   3.741  0.6643 -0.1470  0.2350
 5711SOL     OW34742   9.679   2.646   2.347  0.3312 -0.1606 -0.7226
 5711SOL    HW134743   9.764   2.689   2.357  0.7567 -0.7274 -1.7949
 5711SOL    HW234744   9.653   2.665   2.257  0.2118 -1.5678 -1.0081
 5712SOL     OW34745   0.643  11.269   8.417 -0.1076  1.2055 -0.8932
 5712SOL    HW134746   0.556  11.302   8.439 -1.0282 -2.2137  1.4551
 5712SOL    HW234747   0.701  11.311   8.481 -0.9744 -0.2099  0.9391
 5713SOL     OW34748   1.670  12.402   8.100 -0.2708  0.2253  0.5334
 5713SOL    HW134749   1.737  12.338   8.125 -0.9548 -0.0085  1.8522
 5713SOL    HW234750   1.607  12.400   8.172 -2.3894 -0.5030 -1.2200
 5714SOL     OW34751   0.693   2.778  10.615  0.0622 -0.0901 -0.0170
 5714SOL    HW134752   0.780   2.739  10.605  0.4370  1.2159 -2.7916
 5714SOL    HW234753   0.636   2.723  10.562 -0.4686  0.0886  0.3568
 5715SOL     OW34754  13.066  10.019   9.922  0.5742  0.6114 -0.0071
 5715SOL    HW134755  13.161  10.016   9.907  0.2123  0.9673 -2.7873
 5715SOL    HW234756  13.044   9.930   9.950  1.6529  0.4423  0.3899
 5716SOL     OW34757   2.097   0.042   2.681  0.0760 -0.2282 -0.6689
 5716SOL    HW134758   2.136   0.026   2.595  1.4306  0.5737 -0.2349
 5716SOL    HW234759   2.169   0.030   2.743 -0.9755 -1.2227  0.4153
 5717SOL     OW34760  12.585  10.790   8.019 -0.2938 -0.0514 -0.0924
 5717SOL    HW134761  12.644  10.808   8.092 -0.1092 -0.7674 -0.0624
 5717SOL    HW234762  12.629  10.723   7.967 -1.9431 -2.1907  1.0636
 5718SOL     OW34763   8.090  10.836   7.414 -0.0415 -0.3172  0.2655
 5718SOL    HW134764   8.178  10.866   7.437  0.0791  0.8730 -1.5684
 5718SOL    HW234765   8.079  10.755   7.464  0.9428  0.9789  2.7983
 5719SOL     OW34766  11.648   2.874   5.271  0.5095  0.2471  0.4352
 5719SOL    HW134767  11.579   2.812   5.295 -0.7254  0.2240 -2.7349
 5719SOL    HW234768  11.730   2.828   5.293 -0.4136 -1.1490  1.1155
 5720SOL     OW34769  11.782   3.594  13.168 -0.3697  0.0848  0.5141
 5720SOL    HW134770  11.775   3.687  13.146 -0.6173  0.3734  1.7325
 5720SOL    HW234771  11.729   3.550  13.101  2.6592  0.3794 -2.3888
 5721SOL     OW34772   0.201   0.060  11.557 -0.1877  0.1797  0.6220
 5721SOL    HW134773   0.153   0.049  11.475 -1.3036  0.5593  1.2208
 5721SOL    HW234774   0.142   0.028  11.625  0.6181  0.1324  1.3282
 5722SOL     OW34775  11.934   3.076  11.664 -0.3165 -0.2450  0.7735
 5722SOL    HW134776  11.869   3.101  11.599  0.7088 -0.0562 -0.2113
 5722SOL    HW234777  11.887   3.077  11.747 -1.6443 -0.4516  0.0517
 5723SOL     OW34778   5.175   5.831   1.256  0.3615 -0.1216  0.2552
 5723SOL    HW134779   5.140   5.919   1.239 -0.4587 -0.9560 -2.9063
 5723SOL    HW234780   5.114   5.793   1.319  0.2814  1.2574  1.0551
 5724SOL     OW34781  10.298   9.611   2.724 -0.8086  0.9022  0.5032
 5724SOL    HW134782  10.333   9.698   2.709 -2.3623  1.6004  0.7018
 5724SOL    HW234783  10.281   9.607   2.818 -0.7247  0.3772  0.5033
 5725SOL     OW34784   9.948  11.500   9.837  0.3449 -0.3411 -0.1202
 5725SOL    HW134785  10.018  11.530   9.896 -1.0529 -0.6199  1.7507
 5725SOL    HW234786   9.891  11.447   9.891 -0.4819 -1.4920 -2.0016
 5726SOL     OW34787  10.858  11.589   8.671 -0.0763 -0.1975  0.9128
 5726SOL    HW134788  10.887  11.498   8.678 -1.4231 -0.5765  2.1619
 5726SOL    HW234789  10.827  11.610   8.759  1.9000  2.0980  1.1797
 5727SOL     OW34790   3.516   2.979   8.799 -0.2579  0.3835 -0.5629
 5727SOL    HW134791   3.451   3.007   8.735 -1.3759 -1.5862 -0.3555
 5727SOL    HW234792   3.529   3.056   8.855 -1.2812  1.2775 -1.5033
 5728SOL     OW34793   0.648  11.339   4.380  0.3684  0.5113  0.4530
 5728SOL    HW134794   0.626  11.400   4.450  0.4787  0.4857  0.5093
 5728SOL    HW234795   0.730  11.373   4.343 -0.9462  1.9636 -1.2964
 5729SOL     OW34796   7.516   9.890   7.386 -0.7680 -0.4938 -0.3648
 5729SOL    HW134797   7.466   9.881   7.305  0.6905  0.1321 -1.3674
 5729SOL    HW234798   7.606   9.868   7.362 -0.5673 -1.9940  1.4873
 5730SOL     OW34799  11.840   2.179   5.635 -0.4473  0.0846  0.5114
 5730SOL    HW134800  11.896   2.256   5.629 -0.9592  0.5226  1.3015
 5730SOL    HW234801  11.813   2.162   5.544  0.3545  0.3162  0.2285
 5731SOL     OW34802  11.675   8.393   6.390 -0.2122  0.2010 -0.2233
 5731SOL    HW134803  11.752   8.418   6.441 -0.1993 -0.9806  0.3822
 5731SOL    HW234804  11.690   8.431   6.304  1.0382  0.0380 -0.1046
 5732SOL     OW34805   4.490   3.459  12.869 -0.0376  0.6650  0.0015
 5732SOL    HW134806   4.412   3.462  12.814 -0.0628 -1.3667 -0.1678
 5732SOL    HW234807   4.549   3.524  12.832 -1.2404  1.4959 -0.4990
 5733SOL     OW34808   9.077   3.316   0.702 -0.3894 -0.5354  0.0986
 5733SOL    HW134809   9.080   3.409   0.723  1.0891 -0.0737 -1.8601
 5733SOL    HW234810   9.053   3.313   0.609  1.4065 -1.9817 -0.3847
 5734SOL     OW34811  10.571   9.106   7.450 -0.3616  0.6683  0.3318
 5734SOL    HW134812  10.530   9.036   7.398 -1.7529 -0.1299  2.3665
 5734SOL    HW234813  10.516   9.182   7.434 -0.9856  0.3387  0.8602
 5735SOL     OW34814   2.024   5.280   1.652  0.0160  0.2312 -0.5054
 5735SOL    HW134815   1.994   5.260   1.564  0.1681  1.4793 -0.8705
 5735SOL    HW234816   1.948   5.265   1.708 -0.7151  1.3688 -1.1401
 5736SOL     OW34817   1.849   9.006   1.816 -0.1577  0.4812  0.3117
 5736SOL    HW134818   1.760   8.974   1.803 -1.3543  2.3098  3.0098
 5736SOL    HW234819   1.890   8.940   1.872  0.1693 -0.2376 -0.7319
 5737SOL     OW34820   6.923  12.527  13.737 -0.5560  0.1344 -0.0017
 5737SOL    HW134821   6.934  12.621  13.723  0.3055 -0.0223 -0.4813
 5737SOL    HW234822   6.934  12.488  13.650 -0.0267 -0.4724  0.3223
 5738SOL     OW34823   7.095   4.593   3.126  0.3215 -0.2528  0.3460
 5738SOL    HW134824   7.051   4.622   3.206 -0.1935 -0.0336 -0.0110
 5738SOL    HW234825   7.059   4.505   3.110 -0.5653  0.2212 -0.3557
 5739SOL     OW34826  11.068   4.727  12.862  0.0967 -0.1277 -0.2515
 5739SOL    HW134827  11.007   4.653  12.863  1.2148 -1.0796 -0.7409
 5739SOL    HW234828  11.140   4.698  12.807  0.8912  1.0652  0.1275
 5740SOL     OW34829  12.806   2.616   6.987  0.2262 -0.0916 -0.3320
 5740SOL    HW134830  12.880   2.562   6.959  0.9833  1.3725 -1.2410
 5740SOL    HW234831  12.818   2.627   7.081  0.1000 -1.4070 -0.1380
 5741SOL     OW34832   4.227   8.035   0.176  0.5477  0.6898  0.1986
 5741SOL    HW134833   4.300   8.023   0.237 -0.6076 -1.7481  1.2473
 5741SOL    HW234834   4.213   7.948   0.139 -0.2064  1.6605 -1.9424
 5742SOL     OW34835  10.046   6.621   7.222 -0.4745  0.2692 -0.1523
 5742SOL    HW134836  10.138   6.646   7.208  0.2061 -2.1477 -0.3420
 5742SOL    HW234837   9.997   6.699   7.197  1.5172  1.7395  0.2319
 5743SOL     OW34838   6.925   7.443   5.183 -0.0122  0.6100 -0.6401
 5743SOL    HW134839   7.002   7.491   5.153 -1.0080  0.6580 -3.4096
 5743SOL    HW234840   6.863   7.512   5.207 -0.1356  0.6396 -1.0366
 5744SOL     OW34841  13.010   3.930  10.323  0.2310  0.0543  0.3138
 5744SOL    HW134842  13.069   3.871  10.369 -0.8542  0.1040  1.8131
 5744SOL    HW234843  13.058   3.953  10.243  1.4762 -1.3066  0.6206
 5745SOL     OW34844  13.946   4.209   4.778  0.2846 -0.0312 -0.1561
 5745SOL    HW134845  13.891   4.206   4.856  1.9213  0.5395  1.0763
 5745SOL    HW234846  14.036   4.202   4.811  1.4028  4.8045 -1.4415
 5746SOL     OW34847   3.866   3.612  11.981  0.8365  0.4761  0.1270
 5746SOL    HW134848   3.933   3.546  11.997 -0.0642 -0.8079 -1.1189
 5746SOL    HW234849   3.852   3.609  11.886 -2.2401 -0.6175  0.5125
 5747SOL     OW34850   3.498   9.065  14.010 -0.5298  0.0513 -0.4137
 5747SOL    HW134851   3.474   9.156  14.028 -0.5992 -0.1277  0.4387
 5747SOL    HW234852   3.414   9.017  14.013 -0.5922  0.0589 -1.5717
 5748SOL     OW34853   3.964   3.996   8.186 -0.2762  0.2527 -0.2823
 5748SOL    HW134854   3.960   3.910   8.227 -1.8729  1.2531  1.8902
 5748SOL    HW234855   4.016   4.049   8.247 -0.7701  1.2175 -0.6761
 5749SOL     OW34856   9.399   8.404   0.072  0.9806 -0.3334 -0.2738
 5749SOL    HW134857   9.383   8.428   0.163  0.6688 -0.0535 -0.3986
 5749SOL    HW234858   9.341   8.330   0.056 -0.3576  0.7824 -0.7719
 5750SOL     OW34859   2.158   3.575   9.135  0.6901  0.1061 -0.3540
 5750SOL    HW134860   2.176   3.650   9.078  0.4679 -1.4568 -2.6378
 5750SOL    HW234861   2.068   3.587   9.164  0.7523  0.8641 -0.4684
 5751SOL     OW34862   8.850   1.229   9.180 -0.4662 -0.0311  0.5596
 5751SOL    HW134863   8.772   1.203   9.131 -0.1859 -0.2136  0.2059
 5751SOL    HW234864   8.877   1.312   9.142 -0.2264 -0.1909  0.3742
 5752SOL     OW34865   9.148   8.595   1.704 -0.0261  0.4048  0.2141
 5752SOL    HW134866   9.213   8.528   1.724  0.5449  0.8081 -0.2903
 5752SOL    HW234867   9.068   8.563   1.747  0.0474 -0.9527 -0.5821
 5753SOL     OW34868   3.076   8.185  11.103  0.6974  0.2376 -0.4165
 5753SOL    HW134869   3.048   8.105  11.060  1.3197 -1.7651  2.5917
 5753SOL    HW234870   3.171   8.187  11.093  1.0403 -1.0712  1.9490
 5754SOL     OW34871   8.573   5.643   0.070  0.0568 -0.4062 -0.3505
 5754SOL    HW134872   8.544   5.677   0.155  0.6275  0.3970 -0.4600
 5754SOL    HW234873   8.494   5.642   0.017  0.1411  1.6450 -0.6088
 5755SOL     OW34874   9.445   2.580   3.785 -0.4041 -0.3304  0.1782
 5755SOL    HW134875   9.520   2.598   3.728 -1.1328  2.6642  0.0392
 5755SOL    HW234876   9.415   2.493   3.757  0.4810  0.1487 -2.6356
 5756SOL     OW34877  11.620   9.030  13.307  0.1361  0.3030  0.5555
 5756SOL    HW134878  11.601   9.025  13.401  0.9759 -0.5008  0.7046
 5756SOL    HW234879  11.550   8.980  13.266  0.8642 -1.1082  0.9467
 5757SOL     OW34880  11.173  10.134  12.505  0.2677 -0.0987  0.1441
 5757SOL    HW134881  11.080  10.126  12.488  0.2720 -0.7948  0.4389
 5757SOL    HW234882  11.215  10.101  12.426  0.2734  1.0624 -0.3606
 5758SOL     OW34883  10.704  10.768   3.534 -0.3017 -0.0555 -0.0759
 5758SOL    HW134884  10.789  10.800   3.505 -0.3976  0.5404  0.2817
 5758SOL    HW234885  10.716  10.674   3.545 -0.5442 -0.5496 -3.1018
 5759SOL     OW34886   3.112   7.257   6.461 -0.2623  0.0079  0.0346
 5759SOL    HW134887   3.189   7.281   6.512 -0.8492 -0.5937  1.2279
 5759SOL    HW234888   3.046   7.233   6.526 -1.5132  0.6336 -0.9537
 5760SOL     OW34889   0.370   6.927  10.444  0.2682 -0.4227  0.3931
 5760SOL    HW134890   0.284   6.894  10.417  0.0442 -0.2070  0.8454
 5760SOL    HW234891   0.431   6.857  10.420  0.0359 -0.3732 -0.3808
 5761SOL     OW34892   1.351   9.970   3.096  0.0652  0.1139  0.0733
 5761SOL    HW134893   1.267  10.005   3.066 -0.1203 -0.0727  0.3699
 5761SOL    HW234894   1.392   9.933   3.018  1.2400  2.8758 -0.7799
 5762SOL     OW34895   9.325   2.219   8.245 -0.0550  0.0992  0.0728
 5762SOL    HW134896   9.308   2.284   8.176 -2.4001 -1.1383 -0.6436
 5762SOL    HW234897   9.332   2.136   8.197 -1.9771 -0.8247  1.2930
 5763SOL     OW34898   4.299   5.144  12.383 -0.3206  0.3969 -0.2522
 5763SOL    HW134899   4.212   5.140  12.344 -0.0849 -1.5884 -0.6773
 5763SOL    HW234900   4.323   5.236  12.378 -2.0606  0.8607 -0.8548
 5764SOL     OW34901  11.025  11.630   1.330  0.0043 -0.1734 -0.9615
 5764SOL    HW134902  11.041  11.585   1.413  0.0233  0.0747 -0.8289
 5764SOL    HW234903  11.104  11.682   1.315  0.5472 -1.2127 -1.7901
 5765SOL     OW34904   7.675   1.518  11.299  0.3705 -0.4058  0.6281
 5765SOL    HW134905   7.718   1.512  11.384  2.0043 -1.6813 -0.2297
 5765SOL    HW234906   7.729   1.463  11.241  0.0715  1.4294 -1.5228
 5766SOL     OW34907   5.151  12.314   2.627  0.0810 -0.1882  0.5387
 5766SOL    HW134908   5.183  12.264   2.702  2.7849 -1.8974 -1.5372
 5766SOL    HW234909   5.085  12.257   2.586 -0.2012  0.0147  0.7092
 5767SOL     OW34910   5.049   5.821  11.025  0.0111 -0.1433  0.7924
 5767SOL    HW134911   5.117   5.825  10.957 -1.6768  0.4133 -0.9590
 5767SOL    HW234912   5.048   5.729  11.051  0.3931 -0.4776 -0.2931
 5768SOL     OW34913   9.821  12.849  10.427 -0.0164 -0.9364  0.1411
 5768SOL    HW134914   9.831  12.875  10.336 -0.0883 -1.0600  0.0990
 5768SOL    HW234915   9.872  12.768  10.435 -0.5923 -1.3124  0.0407
 5769SOL     OW34916   0.005  13.807  10.545  0.2650 -0.3879  0.3159
 5769SOL    HW134917   0.064  13.871  10.585  1.5739 -1.7946  0.7097
 5769SOL    HW234918   0.039  13.795  10.457 -0.9899  0.6654 -0.3473
 5770SOL     OW34919  10.499  10.894   6.944 -0.0071 -0.4823  0.3680
 5770SOL    HW134920  10.438  10.836   6.990 -0.6182 -0.4076 -0.3230
 5770SOL    HW234921  10.515  10.850   6.860  1.2092 -0.6954  0.6952
 5771SOL     OW34922   2.713   3.779   7.377  0.0016 -0.8348 -0.3643
 5771SOL    HW134923   2.724   3.875   7.375  0.6092 -0.9031 -0.6004
 5771SOL    HW234924   2.723   3.756   7.469  1.5917 -0.8456 -0.5096
 5772SOL     OW34925   1.377   9.834   5.816 -0.1292  0.6053  0.0173
 5772SOL    HW134926   1.396   9.922   5.784 -1.9965  1.9724  2.3169
 5772SOL    HW234927   1.441   9.819   5.885  1.0903 -0.5107 -1.2876
 5773SOL     OW34928   2.812   7.451   5.991 -0.0251 -0.3432  0.3971
 5773SOL    HW134929   2.855   7.535   5.976  0.5441 -0.2527  2.2560
 5773SOL    HW234930   2.735   7.472   6.043 -0.6583 -0.8461 -0.3072
 5774SOL     OW34931   4.538   6.267   5.224 -0.4320  0.0672 -0.0042
 5774SOL    HW134932   4.510   6.176   5.239  0.4694 -0.3819 -0.9257
 5774SOL    HW234933   4.490   6.293   5.145  1.5033 -0.6488 -1.4934
 5775SOL     OW34934   4.473   8.468   5.953 -0.0112 -0.2023 -0.0137
 5775SOL    HW134935   4.510   8.409   5.887  1.7287  0.9319 -0.1323
 5775SOL    HW234936   4.518   8.551   5.938  1.1524 -0.1454  3.1605
 5776SOL     OW34937  11.128  12.717  13.418 -0.6597  0.4618  0.2565
 5776SOL    HW134938  11.198  12.749  13.360 -2.0164  1.2570 -0.9980
 5776SOL    HW234939  11.174  12.688  13.496  1.0617  1.2273 -0.4196
 5777SOL     OW34940   3.342   9.110   7.157  0.7488  0.1105  0.1203
 5777SOL    HW134941   3.334   9.122   7.063  2.9329 -2.3719 -0.4950
 5777SOL    HW234942   3.314   9.193   7.194 -0.6215  1.0096 -2.6583
 5778SOL     OW34943   3.629  13.807  12.840  0.1336  0.4158 -0.2029
 5778SOL    HW134944   3.622  13.875  12.773  0.3681  0.2745 -0.3700
 5778SOL    HW234945   3.539  13.775  12.850 -0.0460  0.9970  0.1371
 5779SOL     OW34946   0.950   8.038   2.492  0.0291  0.1150  0.2730
 5779SOL    HW134947   0.870   8.077   2.457  1.1584  0.1630 -2.5018
 5779SOL    HW234948   0.920   7.980   2.562 -2.1449  2.1245  1.1384
 5780SOL     OW34949   8.525  13.213   0.224 -0.3026  0.4058  0.0351
 5780SOL    HW134950   8.556  13.267   0.151 -2.0673  2.6747  0.8455
 5780SOL    HW234951   8.517  13.274   0.297  0.4347 -1.5933  1.9123
 5781SOL     OW34952  12.277   2.419   0.996 -0.5010 -0.4072  0.0607
 5781SOL    HW134953  12.310   2.424   0.907 -2.0612  4.0437 -0.4817
 5781SOL    HW234954  12.229   2.336   0.999  0.6829 -1.3233 -2.7434
 5782SOL     OW34955   4.515   3.712   6.585  0.3131 -0.5238  0.3741
 5782SOL    HW134956   4.425   3.744   6.580  0.1890 -1.0100 -0.8899
 5782SOL    HW234957   4.508   3.617   6.576  0.9563 -0.5626  0.1951
 5783SOL     OW34958   3.831   4.684   5.817  0.5290  0.1905  0.2895
 5783SOL    HW134959   3.906   4.625   5.816  0.0667 -0.4439 -1.5102
 5783SOL    HW234960   3.857   4.756   5.760 -0.6288 -0.6678 -1.4312
 5784SOL     OW34961  12.430  10.391   3.686  0.8416  0.1597  0.2310
 5784SOL    HW134962  12.452  10.465   3.743 -0.3871 -0.2049  1.2263
 5784SOL    HW234963  12.345  10.413   3.648  0.7008 -0.5084  0.1428
 5785SOL     OW34964   7.823   9.295   1.580  0.0972  1.0465  0.3703
 5785SOL    HW134965   7.793   9.234   1.512 -0.4709  2.1239 -0.3914
 5785SOL    HW234966   7.846   9.240   1.654  2.3289 -0.3292 -1.2455
 5786SOL     OW34967   8.337   3.331   8.909  0.7152  0.2386  0.5606
 5786SOL    HW134968   8.377   3.247   8.888  0.7768  0.0187  1.4912
 5786SOL    HW234969   8.400   3.373   8.968  0.7175  0.9713  0.0459
 5787SOL     OW34970   7.629   7.393   3.559  0.1977  0.3257  0.4440
 5787SOL    HW134971   7.607   7.486   3.554 -0.0676  0.2814  0.7657
 5787SOL    HW234972   7.552   7.349   3.521 -0.8619  0.1022  2.6968
 5788SOL     OW34973   4.065  11.181   7.001 -0.0689  0.4325  0.2014
 5788SOL    HW134974   4.020  11.207   7.082  1.3891 -1.2906  1.6638
 5788SOL    HW234975   4.067  11.085   7.005  0.0496  0.3096 -1.9099
 5789SOL     OW34976   3.517  13.853  10.240 -0.1373 -0.2088  0.5118
 5789SOL    HW134977   3.438  13.854  10.185 -0.2144 -2.6459  0.4853
 5789SOL    HW234978   3.585  13.893  10.185  0.1182 -3.6973 -2.0150
 5790SOL     OW34979  10.373  13.240  11.765 -0.0254 -0.3285  0.2572
 5790SOL    HW134980  10.333  13.318  11.729 -0.5167 -0.2434  0.9689
 5790SOL    HW234981  10.462  13.266  11.787 -0.4091  0.2640  1.1940
 5791SOL     OW34982   0.755   6.157   0.748 -0.3095  0.0815  0.3120
 5791SOL    HW134983   0.713   6.192   0.827 -0.3056  0.7882  0.0064
 5791SOL    HW234984   0.737   6.223   0.681  0.8754  0.1633  0.0567
 5792SOL     OW34985   2.985   9.355  11.817 -0.1272 -0.0067 -0.4276
 5792SOL    HW134986   2.928   9.381  11.745  0.1465  0.3682 -0.5162
 5792SOL    HW234987   2.926   9.341  11.891 -0.2839  0.9441 -0.3618
 5793SOL     OW34988   0.018  13.737   4.330  0.3665 -0.3771  0.2351
 5793SOL    HW134989  -0.035  13.809   4.295  0.1208 -0.5054  0.3482
 5793SOL    HW234990   0.014  13.669   4.263  1.4348  0.0946 -0.3505
 5794SOL     OW34991  13.924   4.510  11.778 -0.2064 -0.2111  0.4289
 5794SOL    HW134992  13.888   4.469  11.857 -1.0028 -0.7609 -0.1991
 5794SOL    HW234993  13.942   4.600  11.804 -1.0908 -0.2004  1.0500
 5795SOL     OW34994   2.604   0.796  11.525  0.4445  0.1047  0.4271
 5795SOL    HW134995   2.561   0.803  11.439 -0.6516  2.6466  1.0937
 5795SOL    HW234996   2.559   0.724  11.569  1.9669 -2.2272 -1.5365
 5796SOL     OW34997   0.379   3.317  13.112  0.4431  0.0926 -0.6999
 5796SOL    HW134998   0.361   3.391  13.055 -0.1655  1.8672  1.6506
 5796SOL    HW234999   0.367   3.351  13.200  2.4206 -2.2053  0.5849
 5797SOL     OW35000   9.028  12.441   9.943 -0.1885 -0.0087  0.8886
 5797SOL    HW135001   9.084  12.472   9.872 -2.0355  0.8653 -0.2663
 5797SOL    HW235002   9.084  12.382   9.994  1.0591 -1.0862 -1.5704
 5798SOL     OW35003  12.669   9.064  12.106  0.2203 -0.0690  0.0609
 5798SOL    HW135004  12.581   9.035  12.080 -0.3254  1.4974  0.0893
 5798SOL    HW235005  12.723   8.985  12.096 -1.1030 -0.9788 -0.2954
 5799SOL     OW35006   1.848  10.652  11.667 -0.0052 -0.1300 -0.0049
 5799SOL    HW135007   1.835  10.569  11.622 -2.8858  0.2572 -0.0536
 5799SOL    HW235008   1.837  10.718  11.600  0.9013  0.3644  0.3099
 5800SOL     OW35009   3.289   5.059   8.828 -0.0468  0.4414 -0.3521
 5800SOL    HW135010   3.231   5.136   8.829  2.0205  2.1157  2.0513
 5800SOL    HW235011   3.281   5.022   8.915  2.5035  0.8264  0.1253
 5801SOL     OW35012   0.669   7.221   5.564  0.1461  0.0700  0.4467
 5801SOL    HW135013   0.659   7.136   5.608  0.6869  0.8083  2.0583
 5801SOL    HW235014   0.713   7.200   5.482  2.7080 -0.9874  1.9652
 5802SOL     OW35015   0.764   9.091   9.802 -0.0071 -0.0596 -0.5119
 5802SOL    HW135016   0.833   9.079   9.867 -0.5930  1.6159  0.4947
 5802SOL    HW235017   0.715   9.008   9.803  1.5628 -1.0257 -0.7842
 5803SOL     OW35018   4.405   3.162   7.739  0.0207 -0.2351  0.1934
 5803SOL    HW135019   4.324   3.164   7.790 -0.2122 -0.4641 -0.1674
 5803SOL    HW235020   4.467   3.113   7.794  0.5574  1.6901  1.4037
 5804SOL     OW35021  13.519   9.217   0.700  0.2795  1.0112  0.0680
 5804SOL    HW135022  13.452   9.160   0.739 -0.3551  2.3261  0.9706
 5804SOL    HW235023  13.470   9.296   0.674  1.0884  1.0589 -1.3942
 5805SOL     OW35024   1.691   9.300   1.600 -0.5000  0.0998  0.6917
 5805SOL    HW135025   1.695   9.231   1.534 -0.2784 -0.6299  1.4614
 5805SOL    HW235026   1.781   9.312   1.628  0.2765  3.7092 -2.4115
 5806SOL     OW35027   2.965  12.246   6.700 -0.5108 -0.2061  0.3719
 5806SOL    HW135028   2.879  12.281   6.677  0.3192  1.8364  0.1995
 5806SOL    HW235029   3.025  12.320   6.691  1.4565 -1.7873 -0.4757
 5807SOL     OW35030   5.326   9.766   0.520  0.3518  0.4103  0.1671
 5807SOL    HW135031   5.296   9.678   0.501 -1.0226  0.9873 -0.4546
 5807SOL    HW235032   5.405   9.777   0.466  0.3788 -0.3356  0.0480
 5808SOL     OW35033   8.360   6.162   6.790 -0.3143 -0.0331  0.0039
 5808SOL    HW135034   8.392   6.118   6.869  0.1014  0.7205  0.2603
 5808SOL    HW235035   8.265   6.154   6.794 -0.3267  0.5251  0.8868
 5809SOL     OW35036   3.265   6.467  12.292 -0.3979 -0.0677  0.2647
 5809SOL    HW135037   3.182   6.509  12.311 -2.0534 -2.5548 -0.9569
 5809SOL    HW235038   3.244   6.397  12.230  2.4221 -1.5055  0.7272
 5810SOL     OW35039   8.438  14.002   7.731  0.6656  0.2085 -0.0265
 5810SOL    HW135040   8.529  13.983   7.758  0.5994 -0.4423 -0.2477
 5810SOL    HW235041   8.442  14.089   7.693  0.6775  1.4256  2.5594
 5811SOL     OW35042   1.399  13.225  13.789 -0.6636  0.7537 -0.0550
 5811SOL    HW135043   1.388  13.242  13.883 -1.7968  1.0513 -0.2300
 5811SOL    HW235044   1.358  13.300  13.746  0.6001  1.0477 -0.7992
 5812SOL     OW35045   2.029   2.194   9.621  0.2569  0.2160 -0.4321
 5812SOL    HW135046   2.033   2.159   9.710 -2.8447  2.0150  0.5553
 5812SOL    HW235047   2.065   2.282   9.628  0.4406  0.1977 -1.0781
 5813SOL     OW35048   6.177   2.657  13.891  0.0331 -0.0319  0.2847
 5813SOL    HW135049   6.151   2.665  13.983 -0.9082 -1.0170  0.1303
 5813SOL    HW235050   6.239   2.583  13.890 -1.0402 -0.9612 -0.0458
 5814SOL     OW35051   1.698  11.644   6.353  0.1605  0.3177 -0.4516
 5814SOL    HW135052   1.645  11.640   6.432  0.8200  1.2874  0.0547
 5814SOL    HW235053   1.691  11.556   6.315 -1.1497  0.1984  0.0102
 5815SOL     OW35054   7.433   1.366  10.722 -0.6071 -0.1419 -0.2672
 5815SOL    HW135055   7.456   1.456  10.699  1.7482 -0.3363  1.0820
 5815SOL    HW235056   7.357   1.376  10.780  0.2341  1.0710  0.6883
 5816SOL     OW35057   4.465   4.447   3.049 -0.2674  0.5229  0.2150
 5816SOL    HW135058   4.514   4.492   3.119 -1.5402 -0.2389  1.6467
 5816SOL    HW235059   4.459   4.356   3.078 -0.3559  0.0633 -1.1739
 5817SOL     OW35060   8.576  11.468   5.892  0.0446  0.1071 -0.1895
 5817SOL    HW135061   8.608  11.432   5.974 -0.1753  0.4190  0.0358
 5817SOL    HW235062   8.494  11.420   5.875 -0.7830  1.1781  0.6305
 5818SOL     OW35063  12.368   8.645  10.947  0.5123  0.1097 -0.5087
 5818SOL    HW135064  12.404   8.699  10.877 -0.5960  0.7366 -0.6153
 5818SOL    HW235065  12.306   8.703  10.992  1.1574 -0.2972  0.9550
 5819SOL     OW35066   7.745   1.094   8.158 -0.1117 -0.2179  0.7436
 5819SOL    HW135067   7.655   1.125   8.146  0.6107  1.3419 -1.0922
 5819SOL    HW235068   7.734   1.007   8.197 -2.4947 -0.7130 -0.7621
 5820SOL     OW35069   2.310   2.207  11.645  0.3690  0.5162  0.2561
 5820SOL    HW135070   2.367   2.281  11.666  1.2579  0.0953 -0.5791
 5820SOL    HW235071   2.281   2.224  11.555 -0.3736  0.4428  0.4787
 5821SOL     OW35072   7.840   2.255  12.782 -0.4417 -0.0285  0.0922
 5821SOL    HW135073   7.823   2.191  12.714 -0.0029 -1.1656  1.0113
 5821SOL    HW235074   7.776   2.325  12.767 -0.1981 -0.1385 -1.5909
 5822SOL     OW35075   2.324   6.877  11.198  0.8510 -0.5032 -0.5024
 5822SOL    HW135076   2.330   6.872  11.103 -0.4700  0.3382 -0.6593
 5822SOL    HW235077   2.231   6.865  11.217  0.8605  0.7900  0.5600
 5823SOL     OW35078   5.399  10.243   4.688 -0.2725 -0.1752 -0.3548
 5823SOL    HW135079   5.452  10.194   4.751  0.6071 -1.6691 -2.1394
 5823SOL    HW235080   5.450  10.323   4.671  0.5182 -0.7300 -0.6763
 5824SOL     OW35081   3.072   7.230   5.685  0.3837  0.2800  0.6654
 5824SOL    HW135082   3.072   7.134   5.682  0.0358  0.2938 -0.1092
 5824SOL    HW235083   2.980   7.253   5.699  0.1228  0.5237 -1.1968
 5825SOL     OW35084  13.428   9.925   9.626  0.0030 -0.1462  0.2730
 5825SOL    HW135085  13.343   9.921   9.583 -0.1114  1.9002  0.1878
 5825SOL    HW235086  13.440   9.839   9.665 -1.9836 -0.5631  0.0532
 5826SOL     OW35087  12.188   5.114  10.913 -0.2677  0.0026 -0.2498
 5826SOL    HW135088  12.263   5.172  10.898 -0.0545 -0.2647 -0.2366
 5826SOL    HW235089  12.116   5.172  10.937  0.0522  0.2291  0.1716
 5827SOL     OW35090  11.845   8.184   2.668 -0.4361  0.6891 -0.6718
 5827SOL    HW135091  11.837   8.183   2.573  1.3461  0.9081 -0.8687
 5827SOL    HW235092  11.927   8.138   2.686 -0.8370  0.4712  0.7759
 5828SOL     OW35093  10.121  12.058  10.079 -0.0682 -0.0018  0.3526
 5828SOL    HW135094  10.182  12.046  10.007 -0.1090  1.3831  0.0481
 5828SOL    HW235095  10.093  11.970  10.102 -0.1565 -0.4840 -1.4223
 5829SOL     OW35096  12.696   2.491  13.382  0.6177  0.3015  0.4168
 5829SOL    HW135097  12.659   2.492  13.471 -0.4472 -1.1449  0.0198
 5829SOL    HW235098  12.689   2.582  13.353 -1.6165  0.3020  0.8000
 5830SOL     OW35099   0.800  10.586   4.577  0.1364  0.0226  0.0744
 5830SOL    HW135100   0.767  10.625   4.496  1.3577 -0.6023 -0.7706
 5830SOL    HW235101   0.752  10.504   4.585 -1.1030  0.7961  0.8500
 5831SOL     OW35102  13.999  12.181   0.516  0.4201 -0.2024 -0.4288
 5831SOL    HW135103  13.988  12.161   0.609  0.4308 -0.2420 -0.4361
 5831SOL    HW235104  13.941  12.119   0.471 -0.1303  0.2928 -0.4129
 5832SOL     OW35105   5.989   3.609   9.489 -0.2254 -0.2025 -0.1267
 5832SOL    HW135106   6.058   3.675   9.488  1.3237 -1.7202 -2.3283
 5832SOL    HW235107   6.027   3.534   9.534 -0.8100 -0.7037 -0.4392
 5833SOL     OW35108  10.038   3.634   8.374 -0.8867 -0.5565 -0.4836
 5833SOL    HW135109   9.962   3.602   8.421 -0.4928  0.0442  0.6188
 5833SOL    HW235110  10.012   3.720   8.341  0.0638  0.8255  2.0997
 5834SOL     OW35111   8.857   5.453   1.823 -0.1731  0.2668  0.4175
 5834SOL    HW135112   8.846   5.492   1.737 -0.0779  1.2830  0.8453
 5834SOL    HW235113   8.786   5.389   1.830 -1.7100  1.8936  0.5056
 5835SOL     OW35114   9.837   4.301   2.331  0.0300 -0.0534 -0.9836
 5835SOL    HW135115   9.887   4.319   2.410  1.0333  1.9441 -2.0172
 5835SOL    HW235116   9.902   4.296   2.261 -1.0708  1.4025 -2.1699
 5836SOL     OW35117   5.912   7.805   4.681 -0.4951  0.4485 -0.0207
 5836SOL    HW135118   5.987   7.806   4.622  1.4799  1.6333  2.3218
 5836SOL    HW235119   5.857   7.877   4.651  1.1323  1.8918  0.3259
 5837SOL     OW35120  13.396  12.021   4.374 -0.4913  0.2426  0.6791
 5837SOL    HW135121  13.395  12.111   4.340  0.5720  0.2313  0.6004
 5837SOL    HW235122  13.485  12.008   4.405 -1.2034 -0.0257  2.7842
 5838SOL     OW35123   9.173  13.039  10.818  0.1555 -0.1460 -0.2387
 5838SOL    HW135124   9.198  13.132  10.820 -0.0292 -0.0006 -2.3719
 5838SOL    HW235125   9.078  13.040  10.826  0.2824 -0.3774  2.3290
 5839SOL     OW35126  12.043   0.423   3.907  0.0959 -0.1838  0.3181
 5839SOL    HW135127  12.017   0.450   3.995  0.4493  1.8055 -0.1167
 5839SOL    HW235128  12.114   0.483   3.884 -0.3208 -0.3123 -1.4991
 5840SOL     OW35129   8.454   4.926  11.466  0.2458  0.1709  0.3894
 5840SOL    HW135130   8.481   4.839  11.434  0.8521  0.7631 -0.7768
 5840SOL    HW235131   8.463   4.920  11.561  2.1386 -0.4758  0.2213
 5841SOL     OW35132   4.508   4.282   8.761  0.0575  0.1800 -0.1473
 5841SOL    HW135133   4.529   4.214   8.697 -1.1625  1.0128 -1.4903
 5841SOL    HW235134   4.461   4.236   8.830 -0.5642 -0.3952 -0.9332
 5842SOL     OW35135  12.309   6.535   1.507  0.3181 -0.3870 -0.2232
 5842SOL    HW135136  12.389   6.582   1.531  0.8189 -1.4826  0.3481
 5842SOL    HW235137  12.259   6.530   1.589 -0.8451  1.1792 -0.7862
 5843SOL     OW35138   1.520   5.784   3.540 -0.0980  0.1748  0.0033
 5843SOL    HW135139   1.591   5.768   3.477  1.8240  1.4947  1.7125
 5843SOL    HW235140   1.518   5.879   3.551 -0.7818  0.0156  1.4814
 5844SOL     OW35141   4.865  10.872   2.449 -0.3494  0.1837  0.0232
 5844SOL    HW135142   4.960  10.859   2.442 -0.5848 -1.4550 -0.5769
 5844SOL    HW235143   4.831  10.786   2.472 -1.4069  1.4045  3.8399
 5845SOL     OW35144  12.858   0.193   2.288  0.1768  0.0777 -0.3759
 5845SOL    HW135145  12.921   0.123   2.304 -0.5579 -0.4105  0.5016
 5845SOL    HW235146  12.888   0.265   2.344  0.6304  0.2758 -0.8725
 5846SOL     OW35147   9.280   8.626   4.648  0.5065  0.6882  0.5746
 5846SOL    HW135148   9.232   8.708   4.656  1.2377  1.3123 -0.9564
 5846SOL    HW235149   9.220   8.566   4.604 -0.0855  0.3384  1.8405
 5847SOL     OW35150   1.882   5.118  11.236  0.1859 -0.2973  0.1970
 5847SOL    HW135151   1.949   5.059  11.202  1.3501  0.0915  1.7153
 5847SOL    HW235152   1.931   5.192  11.273 -1.1766  1.0222 -0.5202
 5848SOL     OW35153   0.288   3.012   5.261  0.2463 -0.2284  0.1408
 5848SOL    HW135154   0.258   2.922   5.246  0.7382 -0.3020 -0.4970
 5848SOL    HW235155   0.360   3.023   5.197 -0.2451  0.8331 -0.2451
 5849SOL     OW35156   8.135   3.835   3.273  0.5770  0.2068  0.1043
 5849SOL    HW135157   8.099   3.775   3.339  1.5192 -0.4079  0.0747
 5849SOL    HW235158   8.161   3.778   3.201 -0.5453  0.8794 -0.8835
 5850SOL     OW35159   9.191   9.693   4.378 -0.8878 -0.2507 -0.1614
 5850SOL    HW135160   9.097   9.701   4.393 -0.3758  0.9100  3.0249
 5850SOL    HW235161   9.230   9.700   4.465  2.2234  0.2869 -1.4873
 5851SOL     OW35162  10.835   4.912   8.649 -0.3792  0.2354 -0.4385
 5851SOL    HW135163  10.808   5.001   8.668 -0.9808 -0.1831  0.7160
 5851SOL    HW235164  10.897   4.889   8.718  0.8481  0.2055 -1.4882
 5852SOL     OW35165   9.439  11.819   8.985  0.4664  0.5922  0.1912
 5852SOL    HW135166   9.520  11.824   9.034  0.9355  0.6933 -0.5858
 5852SOL    HW235167   9.419  11.909   8.961  0.7537  0.4463 -0.6196
 5853SOL     OW35168   8.974  11.077   6.866  0.3230  0.4397  0.4578
 5853SOL    HW135169   8.966  11.117   6.952 -0.4094 -2.6638  1.9766
 5853SOL    HW235170   8.884  11.059   6.839  0.5682  1.0320 -0.7957
 5854SOL     OW35171  12.372   1.628  13.551 -0.0739  0.0566  0.7367
 5854SOL    HW135172  12.448   1.637  13.609  1.5219 -1.7631 -0.9426
 5854SOL    HW235173  12.333   1.544  13.576 -0.0454 -0.1909 -0.0254
 5855SOL     OW35174  11.589  11.917   9.680  0.0384  0.2136 -0.1476
 5855SOL    HW135175  11.651  11.854   9.642  0.5991  0.2491  0.6847
 5855SOL    HW235176  11.637  11.999   9.685 -0.2794  0.3982 -0.0646
 5856SOL     OW35177   1.754   6.272  12.963  0.9029  0.5290 -0.0377
 5856SOL    HW135178   1.785   6.183  12.981  1.0860  0.3880 -1.0293
 5856SOL    HW235179   1.823   6.311  12.909  0.5108  1.0506 -0.1650
 5857SOL     OW35180   4.958   2.097   9.761 -0.1146  0.5816 -0.1354
 5857SOL    HW135181   5.023   2.051   9.708  0.0658 -0.3420  0.8472
 5857SOL    HW235182   4.882   2.038   9.763  0.1598  0.2344  1.2277
 5858SOL     OW35183   9.686   0.887   9.900  0.2668  0.6454 -0.0689
 5858SOL    HW135184   9.630   0.851   9.832 -0.2299  0.2562  0.5322
 5858SOL    HW235185   9.772   0.848   9.884  0.2110  0.7483 -0.6140
 5859SOL     OW35186   2.991   1.512   4.128 -0.0222  0.4568  0.1063
 5859SOL    HW135187   3.072   1.536   4.082 -0.1542  0.1955 -0.2634
 5859SOL    HW235188   3.021   1.459   4.202  0.3029  1.9660  1.1004
 5860SOL     OW35189   5.788  13.098   5.763 -0.3949 -0.9415 -0.3933
 5860SOL    HW135190   5.793  13.067   5.673  1.2234 -0.6408 -0.4459
 5860SOL    HW235191   5.801  13.192   5.757  0.0924 -0.9664  0.1717
 5861SOL     OW35192  13.037  13.944  13.363  0.6020 -0.3227  0.2333
 5861SOL    HW135193  13.112  13.895  13.330  0.9616  0.7561 -0.6129
 5861SOL    HW235194  13.048  14.032  13.327 -0.2910  0.2500  1.3005
 5862SOL     OW35195   3.450   5.928   4.376 -0.1155  0.0016 -0.4653
 5862SOL    HW135196   3.544   5.938   4.362 -0.2010 -1.0912 -2.0628
 5862SOL    HW235197   3.436   5.833   4.373 -1.3832  0.1913 -1.0770
 5863SOL     OW35198   1.521   5.087   2.564  0.0232  0.3822 -0.1488
 5863SOL    HW135199   1.611   5.119   2.568  0.1828  0.2385 -1.8043
 5863SOL    HW235200   1.470   5.154   2.608  0.7399  1.3606 -0.7636
 5864SOL     OW35201  11.027   4.484   1.631 -0.1121 -0.3358  0.5290
 5864SOL    HW135202  11.044   4.406   1.579  0.6939  0.8934 -1.1479
 5864SOL    HW235203  10.975   4.453   1.705 -3.4563 -1.8235 -2.1945
 5865SOL     OW35204   0.990   9.121  11.065  0.0940  0.0263 -0.1967
 5865SOL    HW135205   0.958   9.131  11.155 -0.3410  0.1812 -0.3649
 5865SOL    HW235206   1.053   9.191  11.054 -0.7342  0.7517 -0.3977
 5866SOL     OW35207  12.876   8.908   8.156 -0.2788  0.2418 -0.1935
 5866SOL    HW135208  12.923   8.851   8.216  1.0434  0.3136 -1.0949
 5866SOL    HW235209  12.902   8.997   8.183  1.6323  0.2473 -1.7737
 5867SOL     OW35210   1.413   5.522   5.567 -0.6657  0.1754  0.0968
 5867SOL    HW135211   1.327   5.504   5.605 -0.9077  0.4087 -0.3293
 5867SOL    HW235212   1.427   5.616   5.583 -0.6880  0.2345 -0.2271
 5868SOL     OW35213   2.010  11.607   0.860 -0.0266  0.2572  0.5409
 5868SOL    HW135214   2.026  11.522   0.819 -0.1475 -0.4332  1.8826
 5868SOL    HW235215   1.925  11.598   0.903 -1.3721  1.9715 -1.5712
 5869SOL     OW35216   7.778   9.424  12.499 -0.2799 -0.1803  0.2115
 5869SOL    HW135217   7.857   9.375  12.479 -0.5472 -0.7655  0.5432
 5869SOL    HW235218   7.808   9.501  12.547 -0.0621 -1.6923  2.7048
 5870SOL     OW35219   4.520   5.760  12.876  0.2911 -0.3123 -0.0331
 5870SOL    HW135220   4.481   5.710  12.804 -0.9966 -1.4640  1.4270
 5870SOL    HW235221   4.585   5.701  12.914  1.7656  0.6841 -0.8361
 5871SOL     OW35222   8.659  10.417   3.045  0.1023 -0.3835  0.3950
 5871SOL    HW135223   8.682  10.493   3.098 -1.4525 -0.4847  1.2922
 5871SOL    HW235224   8.620  10.453   2.966  0.4926 -0.2485  0.2623
 5872SOL     OW35225  10.906   6.513   3.971 -0.3854  0.0238 -0.4832
 5872SOL    HW135226  10.954   6.538   4.050  0.2222 -1.8099 -0.2170
 5872SOL    HW235227  10.959   6.545   3.899 -0.4144  0.8033 -0.1665
 5873SOL     OW35228   8.370  11.919   3.616  0.0823 -0.1300 -0.5253
 5873SOL    HW135229   8.427  11.994   3.600  1.9718 -0.6753  2.6321
 5873SOL    HW235230   8.376  11.905   3.710 -2.0649 -2.8340 -0.6773
 5874SOL     OW35231   9.431   0.609   4.695  0.5557 -0.3601 -0.2213
 5874SOL    HW135232   9.495   0.552   4.653  0.5088  0.0659 -0.8899
 5874SOL    HW235233   9.391   0.658   4.623  0.1023  0.0136  0.2706
 5875SOL     OW35234   4.723  11.935  11.268 -0.3725 -0.2132 -0.4712
 5875SOL    HW135235   4.732  12.006  11.332 -0.0217  1.0177 -1.8262
 5875SOL    HW235236   4.774  11.964  11.193 -0.3317 -1.8643 -1.1273
 5876SOL     OW35237  13.673  13.831  13.759  0.1824 -0.1390  0.0677
 5876SOL    HW135238  13.733  13.905  13.751 -0.5795  0.5960  0.9306
 5876SOL    HW235239  13.658  13.803  13.668  1.9160 -0.4494 -0.1638
 5877SOL     OW35240   2.420   0.607   7.453  0.3131  0.2002  0.1431
 5877SOL    HW135241   2.409   0.619   7.358  0.9929  0.9099  0.1424
 5877SOL    HW235242   2.412   0.512   7.466  4.2826 -0.5090 -1.2302
 5878SOL     OW35243   2.591  13.860   4.518 -0.1345 -0.0388  0.2423
 5878SOL    HW135244   2.682  13.884   4.502  0.1462 -1.5162 -0.5538
 5878SOL    HW235245   2.552  13.857   4.430 -1.4499  2.2825  0.6522
 5879SOL     OW35246  12.977   3.936  12.181 -0.3532 -0.2350 -0.1858
 5879SOL    HW135247  12.903   3.941  12.121 -0.5803 -0.8606  0.0298
 5879SOL    HW235248  13.024   3.857  12.155  1.1779  0.9931 -1.3577
 5880SOL     OW35249   3.617   2.090   9.942  1.0177 -0.3625 -0.3721
 5880SOL    HW135250   3.603   1.997   9.958 -0.0380 -0.3292 -1.0647
 5880SOL    HW235251   3.543   2.118   9.888  2.1926  0.5020 -1.6238
 5881SOL     OW35252   4.133   2.483  14.074 -0.3867 -0.1590 -0.2477
 5881SOL    HW135253   4.099   2.413  14.018 -3.7049  0.7338  0.4435
 5881SOL    HW235254   4.155   2.554  14.012  0.0783 -0.6990 -0.7132
 5882SOL     OW35255   9.128   2.692   1.591 -0.0906 -0.1250  0.1745
 5882SOL    HW135256   9.093   2.775   1.623 -0.6902 -0.6004  0.8045
 5882SOL    HW235257   9.070   2.667   1.520  0.4023  0.2388 -0.3678
 5883SOL     OW35258   7.836   6.160  12.479 -0.1981 -0.0966  0.7291
 5883SOL    HW135259   7.887   6.241  12.476  0.4594 -0.5373 -0.4546
 5883SOL    HW235260   7.783   6.162  12.399 -1.9812  0.2798  1.8496
 5884SOL     OW35261  10.068  13.677   2.203 -0.5062 -0.1958  0.0831
 5884SOL    HW135262  10.050  13.599   2.255 -1.3713 -1.1908 -1.6000
 5884SOL    HW235263   9.985  13.697   2.160  0.1089  0.6866 -0.7493
 5885SOL     OW35264   3.539  11.256   7.432  0.0727  0.3885 -0.3517
 5885SOL    HW135265   3.611  11.268   7.494 -0.8333  0.5701  0.6996
 5885SOL    HW235266   3.466  11.305   7.471 -1.0954 -1.1388 -0.5591
 5886SOL     OW35267  12.891   5.601   3.583 -0.3917 -0.3371  0.1501
 5886SOL    HW135268  12.941   5.569   3.508  0.6205 -1.9671  1.4650
 5886SOL    HW235269  12.807   5.628   3.545  1.2223  2.1760 -2.0844
 5887SOL     OW35270   2.719  13.017  12.796 -0.4273 -0.4010 -0.4813
 5887SOL    HW135271   2.644  12.962  12.817 -0.9964  0.3468 -0.5162
 5887SOL    HW235272   2.701  13.100  12.840 -0.4755  0.3764 -1.9100
 5888SOL     OW35273   7.141  13.292   7.249  0.2349 -0.0120  0.0508
 5888SOL    HW135274   7.055  13.319   7.282  0.4794  0.0667  0.6525
 5888SOL    HW235275   7.138  13.310   7.155 -0.6739 -0.7236 -0.0693
 5889SOL     OW35276  12.961   0.265   5.213 -0.2314  0.4219 -0.4129
 5889SOL    HW135277  12.891   0.296   5.155 -1.2707  1.0274  1.0990
 5889SOL    HW235278  13.018   0.340   5.225 -1.1419  0.9465  0.9162
 5890SOL     OW35279   5.560  11.862   7.881 -0.3346  0.4713  0.4332
 5890SOL    HW135280   5.498  11.836   7.949  0.9233 -0.4314  1.2997
 5890SOL    HW235281   5.616  11.927   7.923  0.8136 -0.5076  0.4865
 5891SOL     OW35282  10.212   5.815   9.966 -0.3542  0.1926  0.1933
 5891SOL    HW135283  10.176   5.799  10.053  2.0359  0.0438  1.2573
 5891SOL    HW235284  10.219   5.729   9.927  1.2705 -0.1402  1.0928
 5892SOL     OW35285   8.954   8.638   8.564  0.1264  0.0485  0.1072
 5892SOL    HW135286   9.035   8.590   8.581 -0.4683 -0.8840  0.4094
 5892SOL    HW235287   8.890   8.597   8.623 -0.8118  0.0587 -0.8863
 5893SOL     OW35288   3.160   0.017   1.379 -0.3132 -0.2540 -0.0508
 5893SOL    HW135289   3.248  -0.021   1.378 -1.0579 -2.1886 -2.1224
 5893SOL    HW235290   3.128   0.001   1.468  0.9445 -0.7388  0.3374
 5894SOL     OW35291   6.578   9.526   1.000  0.4991 -0.0738  0.2386
 5894SOL    HW135292   6.550   9.560   0.915  1.7033  1.3838  0.3851
 5894SOL    HW235293   6.598   9.434   0.983 -0.2062 -0.0535 -0.8238
 5895SOL     OW35294  13.125   4.123   7.431 -0.6142 -0.8069 -0.2572
 5895SOL    HW135295  13.064   4.160   7.494  0.0313 -1.8070  1.0087
 5895SOL    HW235296  13.112   4.174   7.351 -0.9755  0.9600  0.8747
 5896SOL     OW35297   3.929  11.227   4.156 -0.2103  0.1330 -0.4370
 5896SOL    HW135298   3.974  11.195   4.234  0.9766  1.4725 -0.5238
 5896SOL    HW235299   3.948  11.161   4.089 -0.8783 -0.8051  0.2712
 5897SOL     OW35300  10.085   5.218   0.680  0.1281  0.0374 -0.5787
 5897SOL    HW135301  10.077   5.165   0.760  0.4308 -0.1389 -0.6615
 5897SOL    HW235302  10.138   5.164   0.622 -3.8987 -2.0727 -2.7604
 5898SOL     OW35303  13.404   6.778   3.374 -0.0409 -0.9177 -0.3110
 5898SOL    HW135304  13.310   6.797   3.379 -0.0084 -0.5054 -1.1319
 5898SOL    HW235305  13.419   6.715   3.444 -0.3348  1.3202  1.8905
 5899SOL     OW35306   7.644   6.873   5.053 -0.0934 -0.1407  0.0965
 5899SOL    HW135307   7.619   6.806   4.989  0.9963 -1.0851  0.6442
 5899SOL    HW235308   7.690   6.939   5.001  0.7677 -0.8931 -0.1138
 5900SOL     OW35309   3.846   8.230  10.419 -0.1056  0.5058 -0.3365
 5900SOL    HW135310   3.844   8.324  10.439  2.0714 -0.0483  3.3825
 5900SOL    HW235311   3.935   8.203  10.439 -1.2844 -2.7665  1.1936
 5901SOL     OW35312   1.713   8.427   3.624 -0.2159  0.2437 -0.3038
 5901SOL    HW135313   1.788   8.446   3.681 -0.1396  0.0154 -0.3288
 5901SOL    HW235314   1.672   8.513   3.610  0.4626  0.4854 -0.8799
 5902SOL     OW35315   1.797   3.142  12.149  0.9345 -0.5802  0.0936
 5902SOL    HW135316   1.843   3.075  12.099  0.9017 -0.6632  0.1750
 5902SOL    HW235317   1.798   3.111  12.239  0.4807 -0.7133  0.0549
 5903SOL     OW35318   4.667   8.397  12.914  0.2968 -0.0990 -0.4426
 5903SOL    HW135319   4.651   8.311  12.876 -1.0100  0.6453 -1.6541
 5903SOL    HW235320   4.580   8.433  12.929  0.8055  0.4679  1.3789
 5904SOL     OW35321   4.304   7.118   8.608  0.3622  0.4594 -0.3434
 5904SOL    HW135322   4.220   7.076   8.591  0.1396  0.1897  1.2303
 5904SOL    HW235323   4.281   7.209   8.626  0.1032 -0.0315  2.1443
 5905SOL     OW35324   2.790   1.488   8.106  0.2684 -0.6996  0.2915
 5905SOL    HW135325   2.733   1.550   8.061  0.3167 -0.1348  0.9824
 5905SOL    HW235326   2.872   1.490   8.057  0.4388  0.1724  0.5904
 5906SOL     OW35327   8.563   7.240   4.506 -0.3724  0.2191  0.0015
 5906SOL    HW135328   8.485   7.288   4.479 -1.0992 -1.2145 -0.5080
 5906SOL    HW235329   8.548   7.151   4.476  1.4441 -0.0962 -0.0482
 5907SOL     OW35330   9.929  12.842   2.858 -0.3946  0.0655 -0.0049
 5907SOL    HW135331   9.969  12.919   2.817 -1.4464  0.5229 -0.2069
 5907SOL    HW235332  10.004  12.787   2.883  0.3348  0.4421 -1.2306
 5908SOL     OW35333   3.798   7.351   8.951 -0.4931 -0.6412  0.1408
 5908SOL    HW135334   3.729   7.311   9.003 -0.4617 -2.7355 -1.2652
 5908SOL    HW235335   3.757   7.427   8.910 -0.9673  0.0810  1.8512
 5909SOL     OW35336   1.648  11.905  13.747  0.2694  0.1779  0.6970
 5909SOL    HW135337   1.561  11.940  13.732 -0.0346  0.6573  3.1699
 5909SOL    HW235338   1.693  11.914  13.663 -1.6194  1.1610 -0.2519
 5910SOL     OW35339   2.145  11.328   3.370  0.1196  0.2307  0.3472
 5910SOL    HW135340   2.074  11.270   3.396  0.3993 -0.6057 -0.6798
 5910SOL    HW235341   2.115  11.416   3.395 -1.1404 -0.1436  0.1940
 5911SOL     OW35342  12.196   0.332   8.167 -0.5021 -0.8990  0.0563
 5911SOL    HW135343  12.196   0.426   8.183  0.0615 -1.0466  0.9513
 5911SOL    HW235344  12.214   0.324   8.073 -0.4435 -0.1291 -0.0053
 5912SOL     OW35345   3.438  10.047  13.344  0.1961 -0.5856  0.0840
 5912SOL    HW135346   3.410  10.087  13.261  1.6646 -1.0411 -0.6642
 5912SOL    HW235347   3.396  10.101  13.411 -1.8067 -0.7715 -0.9235
 5913SOL     OW35348  12.657   2.874  11.076 -0.2014  0.4825  0.2674
 5913SOL    HW135349  12.674   2.882  11.170 -0.7778  0.7564  0.3497
 5913SOL    HW235350  12.597   2.800  11.069  0.4353 -0.0256  0.0402
 5914SOL     OW35351   5.344  11.798   8.981 -0.0974  0.0469 -0.1395
 5914SOL    HW135352   5.280  11.855   9.025 -1.5712  0.4438 -2.6456
 5914SOL    HW235353   5.429  11.836   9.003 -0.5769 -0.5264  3.3405
 5915SOL     OW35354   3.197   9.140  11.317 -0.2414 -0.7371  0.2804
 5915SOL    HW135355   3.234   9.080  11.383 -0.4097  0.2498  1.2951
 5915SOL    HW235356   3.185   9.223  11.363 -1.1043 -0.2341 -0.7916
 5916SOL     OW35357  11.258   2.734   7.548  0.0160 -0.2646  0.1828
 5916SOL    HW135358  11.322   2.666   7.569  0.5597 -0.0094 -0.5676
 5916SOL    HW235359  11.228   2.712   7.459 -2.6492 -1.6627  1.3169
 5917SOL     OW35360   1.806   1.114   0.004 -0.3415 -0.4829  0.6261
 5917SOL    HW135361   1.841   1.039  -0.044 -0.4989 -0.7229  0.8898
 5917SOL    HW235362   1.793   1.083   0.093 -0.3420 -0.1229  0.7542
 5918SOL     OW35363  12.432   3.843   9.454 -0.0498 -0.2680 -0.8272
 5918SOL    HW135364  12.415   3.772   9.391 -0.5100 -1.0309  0.1381
 5918SOL    HW235365  12.367   3.910   9.432 -0.0513 -0.4179 -1.3089
 5919SOL     OW35366   2.880   3.744   2.547  0.0015 -0.5919 -0.0874
 5919SOL    HW135367   2.812   3.755   2.481  1.1795 -1.0044 -1.4020
 5919SOL    HW235368   2.946   3.689   2.506  0.2967 -1.7471  1.8021
 5920SOL     OW35369   5.797  11.800   8.575 -0.5359 -0.0510 -0.4232
 5920SOL    HW135370   5.707  11.772   8.560 -0.3092 -0.1512 -1.6951
 5920SOL    HW235371   5.788  11.877   8.632 -1.2584 -1.4935  1.5107
 5921SOL     OW35372   8.106  10.731   9.125 -0.4507  0.6849  0.1789
 5921SOL    HW135373   8.188  10.716   9.078  0.2043 -1.6387  1.8598
 5921SOL    HW235374   8.133  10.750   9.215 -1.7497  1.4965  0.4300
 5922SOL     OW35375  12.742   4.392   6.551 -0.2520 -0.5302 -0.0003
 5922SOL    HW135376  12.716   4.466   6.606  1.6075  0.7955 -0.7874
 5922SOL    HW235377  12.735   4.426   6.462 -0.6405 -1.7746 -0.4594
 5923SOL     OW35378  13.425   7.385  13.497  0.1750 -0.9172 -0.1189
 5923SOL    HW135379  13.345   7.402  13.449  0.2925 -2.3551 -0.8860
 5923SOL    HW235380  13.461   7.306  13.457  0.7753 -1.6265  1.7020
 5924SOL     OW35381   3.650  13.844  10.651 -0.4049  0.3620  0.5187
 5924SOL    HW135382   3.661  13.828  10.557 -1.5376 -1.0311  0.5841
 5924SOL    HW235383   3.739  13.843  10.686 -0.0355 -0.1134 -0.3954
 5925SOL     OW35384  11.984   4.252   3.121  0.4969 -0.6039 -0.3049
 5925SOL    HW135385  11.929   4.192   3.172  2.6116 -1.7583  0.7241
 5925SOL    HW235386  12.025   4.196   3.055  2.3167 -0.2773  0.5100
 5926SOL     OW35387   2.506   0.467  10.770 -0.5835 -0.5444 -0.1109
 5926SOL    HW135388   2.502   0.505  10.857  1.1260 -1.8076  0.5733
 5926SOL    HW235389   2.489   0.374  10.783  1.9903 -1.1830 -0.7294
 5927SOL     OW35390   5.441  13.296  13.625 -0.2572  0.4129  0.4026
 5927SOL    HW135391   5.529  13.275  13.656  0.3465  0.8171 -0.9569
 5927SOL    HW235392   5.455  13.364  13.559 -1.5375  0.0735 -0.2435
 5928SOL     OW35393   2.554  12.392   1.285 -0.7268 -0.2318  0.5983
 5928SOL    HW135394   2.606  12.471   1.272  0.7290 -1.2296  0.0763
 5928SOL    HW235395   2.601  12.343   1.353 -1.5333 -0.7244  0.8194
 5929SOL     OW35396   2.671   3.595   4.347  0.6586  0.1537  0.2705
 5929SOL    HW135397   2.742   3.627   4.402  0.1014  0.6097  0.7348
 5929SOL    HW235398   2.672   3.652   4.270  0.7540  0.2048  0.3096
 5930SOL     OW35399   4.776   2.971   3.502  0.1413 -0.1153 -0.2526
 5930SOL    HW135400   4.726   2.982   3.421 -1.0368  0.0124  0.4567
 5930SOL    HW235401   4.839   2.902   3.482 -0.4214 -0.3971 -1.1533
 5931SOL     OW35402  11.678   7.312  10.221  0.2341  0.2723 -0.1920
 5931SOL    HW135403  11.743   7.371  10.260  0.1003 -0.8319  1.8302
 5931SOL    HW235404  11.595   7.337  10.263  0.2019 -1.3886  0.7958
 5932SOL     OW35405   0.060   8.736  11.592 -0.1816 -0.3721 -0.4076
 5932SOL    HW135406  -0.018   8.789  11.577 -1.2673 -0.9938  2.4732
 5932SOL    HW235407   0.030   8.645  11.581  0.2233 -0.6004  0.3225
 5933SOL     OW35408   1.625   2.915   3.523  0.1662  0.2412 -0.4473
 5933SOL    HW135409   1.637   3.006   3.548 -3.0509  0.9157 -0.9956
 5933SOL    HW235410   1.593   2.872   3.602  0.8290 -0.2633 -0.4370
 5934SOL     OW35411  13.466   1.003   9.963  0.0512  0.1767 -0.2045
 5934SOL    HW135412  13.483   1.023  10.055 -0.9927  1.8451 -0.3246
 5934SOL    HW235413  13.408   0.927   9.965 -2.3117  1.8942  0.7034
 5935SOL     OW35414   3.878   2.967   2.669 -0.2393  0.1925  0.0269
 5935SOL    HW135415   3.895   2.912   2.746 -1.0141  1.1973  0.9381
 5935SOL    HW235416   3.797   2.932   2.632  0.1025 -0.2537 -0.3122
 5936SOL     OW35417   9.366  13.370  13.708  0.2594 -0.1009 -0.4950
 5936SOL    HW135418   9.346  13.340  13.619 -0.2204  0.2274 -0.5037
 5936SOL    HW235419   9.364  13.465  13.702 -1.9601 -0.0320  0.3105
 5937SOL     OW35420   2.859   4.410   1.797 -0.3538 -0.2322 -0.0477
 5937SOL    HW135421   2.936   4.430   1.743 -1.9917  1.3977 -1.9494
 5937SOL    HW235422   2.818   4.495   1.814 -2.1476 -1.0842  0.1914
 5938SOL     OW35423   2.816  11.840   6.338 -0.4985  0.9574 -0.1133
 5938SOL    HW135424   2.907  11.864   6.353 -0.5901  0.1046  2.2124
 5938SOL    HW235425   2.811  11.748   6.364 -1.4099  0.0306 -3.1323
 5939SOL     OW35426   7.503   9.797   6.614  0.5065 -0.0121 -0.2707
 5939SOL    HW135427   7.462   9.879   6.584 -1.1738 -0.0937  1.5723
 5939SOL    HW235428   7.573   9.825   6.672 -1.3572  0.2725  2.0339
 5940SOL     OW35429  10.412  12.604   1.327 -0.3550  0.1822 -0.0665
 5940SOL    HW135430  10.477  12.619   1.258 -0.5068  0.9177 -0.0561
 5940SOL    HW235431  10.459  12.554   1.394 -0.0931 -0.1886 -0.5216
 5941SOL     OW35432   7.859   8.930   8.283  0.0480 -0.1762  0.2102
 5941SOL    HW135433   7.921   8.858   8.289 -0.3828 -0.4777  1.1084
 5941SOL    HW235434   7.899   8.990   8.220 -0.0147 -1.6111 -1.2664
 5942SOL     OW35435  13.273   2.750   9.323  0.2434  0.1182  0.2824
 5942SOL    HW135436  13.216   2.679   9.293 -0.1065  0.6853 -0.4163
 5942SOL    HW235437  13.226   2.830   9.300  2.0531  0.6620 -1.8783
 5943SOL     OW35438   6.876   0.902   7.716 -0.2258 -0.5027  0.0182
 5943SOL    HW135439   6.826   0.822   7.699 -0.6768 -0.3195  0.4473
 5943SOL    HW235440   6.862   0.956   7.638 -1.0667 -0.2722  0.3167
 5944SOL     OW35441  13.895   8.783   8.518  0.2148 -0.3989 -0.0108
 5944SOL    HW135442  13.986   8.785   8.486  0.6888 -2.7797  1.0503
 5944SOL    HW235443  13.886   8.865   8.566  1.1057  0.8574 -1.8264
 5945SOL     OW35444  13.646   6.420   9.192 -0.5390 -0.8551 -0.3392
 5945SOL    HW135445  13.649   6.439   9.098 -1.4054  1.7498  0.0791
 5945SOL    HW235446  13.559   6.383   9.206 -1.5906  1.4866 -0.2104
 5946SOL     OW35447   8.619  10.349  13.757  0.2071  0.5354  0.1165
 5946SOL    HW135448   8.680  10.287  13.798 -1.3429  0.1913  2.0716
 5946SOL    HW235449   8.550  10.294  13.720  0.1626  0.9948 -0.4900
 5947SOL     OW35450  13.807  10.622   2.526  0.1130  0.4629 -0.0333
 5947SOL    HW135451  13.854  10.680   2.586  0.0963  0.0215  0.4139
 5947SOL    HW235452  13.737  10.677   2.491 -0.4766  0.4593  1.0939
 5948SOL     OW35453  14.006  10.077  13.118  0.0590  0.0755 -0.6569
 5948SOL    HW135454  13.968  10.160  13.091  0.5303  0.4807 -0.1304
 5948SOL    HW235455  13.947  10.044  13.185  0.2125  0.3179 -0.3974
 5949SOL     OW35456  10.596   4.358   1.736 -0.2548  0.0827 -0.5417
 5949SOL    HW135457  10.547   4.407   1.802  1.4319 -1.6655  2.1995
 5949SOL    HW235458  10.530   4.307   1.689 -1.6273  2.2699 -1.1507
 5950SOL     OW35459   3.968   5.457   9.237  0.3398 -0.1745  0.1745
 5950SOL    HW135460   3.996   5.369   9.212  0.6377 -0.0249 -0.0253
 5950SOL    HW235461   3.956   5.503   9.154 -0.5010 -0.2333  0.2603
 5951SOL     OW35462  13.213   8.145   6.283  0.3063 -0.1422  0.1994
 5951SOL    HW135463  13.234   8.065   6.234 -0.3513  0.3276 -0.8785
 5951SOL    HW235464  13.119   8.140   6.299  0.3976  0.0465  0.8373
 5952SOL     OW35465   1.436   0.314   7.833  0.1328  0.3592  0.5427
 5952SOL    HW135466   1.412   0.403   7.858  2.7916  1.2852  0.0478
 5952SOL    HW235467   1.526   0.303   7.863  0.9513 -1.0269 -2.0818
 5953SOL     OW35468   8.869   8.121   0.024  1.2873  0.3164  0.0993
 5953SOL    HW135469   8.871   8.111   0.119  1.5282  0.7144  0.1402
 5953SOL    HW235470   8.932   8.191   0.006 -0.6909  2.1749 -0.0869
 5954SOL     OW35471   6.881   6.657   6.894 -0.0270  0.1039  0.5661
 5954SOL    HW135472   6.825   6.698   6.827  0.0870  0.7033  0.8334
 5954SOL    HW235473   6.844   6.687   6.977  1.1435  1.1381  0.7417
 5955SOL     OW35474   5.103   0.896   6.191  0.2236  0.0248  0.0810
 5955SOL    HW135475   5.155   0.946   6.254  2.8475 -0.9633 -1.1272
 5955SOL    HW235476   5.113   0.944   6.109  0.2762 -0.8443 -0.4348
 5956SOL     OW35477   4.241  11.621   6.701  0.2745 -0.3921  0.3414
 5956SOL    HW135478   4.258  11.627   6.607 -0.4274 -0.3243  0.2116
 5956SOL    HW235479   4.317  11.662   6.742 -1.0265  3.0119 -0.3054
 5957SOL     OW35480  12.300   1.065   5.157  0.2994  0.5242 -0.2218
 5957SOL    HW135481  12.281   1.063   5.251 -0.0577  2.5185 -0.2137
 5957SOL    HW235482  12.253   1.142   5.125 -0.9845 -1.0424 -2.3613
 5958SOL     OW35483  10.382   7.326   2.546 -0.5132  0.0597 -0.1788
 5958SOL    HW135484  10.299   7.362   2.515 -0.4718  0.6290  0.3504
 5958SOL    HW235485  10.377   7.332   2.641 -0.3455 -0.9996 -0.0952
 5959SOL     OW35486  10.308   6.076   1.350  0.1885 -0.1319  0.5041
 5959SOL    HW135487  10.373   6.146   1.353 -1.8422  2.0528 -1.4612
 5959SOL    HW235488  10.229   6.116   1.387 -1.5236 -0.6676 -2.3147
 5960SOL     OW35489  10.776  10.354   6.013  0.5922  0.0749  0.4348
 5960SOL    HW135490  10.756  10.264   6.041 -2.2147  0.5733  0.3416
 5960SOL    HW235491  10.690  10.392   5.993  1.7218  2.7401  0.2872
 5961SOL     OW35492   5.240   0.892   0.868 -0.2427 -0.4086  0.1071
 5961SOL    HW135493   5.275   0.935   0.790  1.6186 -0.7862  0.6824
 5961SOL    HW235494   5.275   0.803   0.865 -1.1958 -0.8247  0.7223
 5962SOL     OW35495   6.404   2.289   5.798  0.0138  0.5649 -0.2922
 5962SOL    HW135496   6.442   2.244   5.722  0.2086  1.1631 -0.5590
 5962SOL    HW235497   6.407   2.382   5.774 -1.4715  0.6401 -0.2585
 5963SOL     OW35498   1.298   6.152   7.073  0.1286 -0.5972  0.2551
 5963SOL    HW135499   1.371   6.142   7.134  0.4224  2.2447  0.4922
 5963SOL    HW235500   1.338   6.143   6.987  0.9420  1.4265  0.3679
 5964SOL     OW35501   6.765  13.581   1.033 -0.2958 -0.0717 -0.0691
 5964SOL    HW135502   6.854  13.581   1.068  0.7581 -2.0975 -2.4094
 5964SOL    HW235503   6.730  13.494   1.055 -0.7844 -0.1748 -1.1918
 5965SOL     OW35504   8.350   9.158   5.934  0.3737  0.5401 -0.2562
 5965SOL    HW135505   8.266   9.193   5.963 -0.3558 -1.2533 -0.0514
 5965SOL    HW235506   8.411   9.231   5.943 -1.0295  1.7071  0.1874
 5966SOL     OW35507   6.923  11.811  13.586 -0.4539  0.2847  0.1033
 5966SOL    HW135508   6.867  11.864  13.642 -0.8093 -0.5044  0.5065
 5966SOL    HW235509   6.919  11.723  13.623 -0.5723 -0.2227 -1.0556
 5967SOL     OW35510   5.610   1.307   3.523  0.0678 -0.1693 -0.2214
 5967SOL    HW135511   5.629   1.229   3.575  0.4622 -0.4758 -0.8254
 5967SOL    HW235512   5.584   1.373   3.588  0.6562 -0.5139  0.3746
 5968SOL     OW35513   9.771   1.259   9.068 -0.2218 -0.1546  0.3342
 5968SOL    HW135514   9.803   1.205   9.140 -1.3698 -0.1695  0.8516
 5968SOL    HW235515   9.805   1.217   8.989  0.0100 -0.8469  0.7956
 5969SOL     OW35516   2.010  13.847   4.010  0.2000 -0.3976  0.7807
 5969SOL    HW135517   2.091  13.837   3.961  0.1615  0.4909  0.5285
 5969SOL    HW235518   2.024  13.925   4.065 -1.5452  1.6311 -1.4599
 5970SOL     OW35519   2.795  11.256   2.293 -0.3700  0.2235  0.0632
 5970SOL    HW135520   2.762  11.331   2.342 -0.0232  0.3809  0.0620
 5970SOL    HW235521   2.776  11.276   2.201 -0.1194  0.3959  0.0469
 5971SOL     OW35522  13.119   4.452   5.521  0.2488  0.0175 -0.1831
 5971SOL    HW135523  13.137   4.542   5.546  0.3373 -0.3396  1.1299
 5971SOL    HW235524  13.065   4.418   5.593 -0.6092 -0.6847 -1.1351
 5972SOL     OW35525   4.227   3.139   0.045 -0.1641  0.4739 -0.0554
 5972SOL    HW135526   4.291   3.206   0.020  1.2598 -0.5966  0.5638
 5972SOL    HW235527   4.165   3.185   0.101  0.1362  1.5237 -0.5678
 5973SOL     OW35528  11.647   4.190  13.475 -0.0472  0.0999 -0.6007
 5973SOL    HW135529  11.707   4.202  13.401  0.0788  0.2533 -0.4713
 5973SOL    HW235530  11.634   4.278  13.511  1.1442 -0.1632  0.5529
 5974SOL     OW35531  13.367   7.239  10.838  0.2428  0.5118  0.2723
 5974SOL    HW135532  13.410   7.319  10.807  0.3546  0.7646  1.0772
 5974SOL    HW235533  13.439   7.184  10.869  0.3630 -0.6637 -1.9046
 5975SOL     OW35534   1.448   9.119  12.018  0.3238 -0.5913 -0.0677
 5975SOL    HW135535   1.428   9.079  11.934  2.2693 -2.1235  0.1426
 5975SOL    HW235536   1.541   9.143  12.012  0.7219 -1.4533  1.8958
 5976SOL     OW35537   0.440  11.569  13.300  0.3333 -0.0977 -0.5635
 5976SOL    HW135538   0.411  11.657  13.277  1.7571  0.7325  0.5913
 5976SOL    HW235539   0.462  11.575  13.393 -0.2393 -1.8912 -0.2793
 5977SOL     OW35540   1.083   5.918  13.879 -0.7544 -0.3920  0.1022
 5977SOL    HW135541   1.121   5.989  13.930  1.5167 -0.4229 -1.4461
 5977SOL    HW235542   1.142   5.844  13.893  0.3048 -0.2534 -2.9146
 5978SOL     OW35543   9.933  13.900   9.745 -0.2779 -0.2590  0.0906
 5978SOL    HW135544  10.016  13.853   9.738 -1.2173 -2.2717  1.3620
 5978SOL    HW235545   9.950  13.971   9.806  0.7305 -0.0250 -0.4365
 5979SOL     OW35546   0.780  10.782   3.945 -0.4131 -0.2303  0.3551
 5979SOL    HW135547   0.848  10.764   3.880 -0.1540  0.7520  0.3346
 5979SOL    HW235548   0.763  10.876   3.936 -0.7402 -0.1829  1.3642
 5980SOL     OW35549   7.125   0.981   5.521  0.5983 -0.0228  0.3426
 5980SOL    HW135550   7.106   1.017   5.434 -2.9518  0.6871  1.2658
 5980SOL    HW235551   7.221   0.981   5.526  0.9060  2.0841 -2.6601
 5981SOL     OW35552  10.477  12.696   2.645 -0.3705  0.6023 -0.2947
 5981SOL    HW135553  10.385  12.674   2.659  0.0367 -0.0940  1.6282
 5981SOL    HW235554  10.485  12.710   2.551 -2.4848  0.9110 -0.4691
 5982SOL     OW35555   4.063   5.238   4.685  0.5634  0.1788 -0.0092
 5982SOL    HW135556   4.034   5.173   4.748  1.9887  0.5910  1.1138
 5982SOL    HW235557   3.990   5.246   4.624 -0.7151 -0.4901  1.3710
 5983SOL     OW35558   3.928   4.389   6.202  0.2962 -0.4060  0.4161
 5983SOL    HW135559   3.922   4.298   6.174  0.4693 -0.9176  1.9189
 5983SOL    HW235560   4.004   4.392   6.260  0.2117  0.6570  0.4968
 5984SOL     OW35561  13.247   2.770   5.370 -0.2697  0.0558  0.0252
 5984SOL    HW135562  13.322   2.717   5.396 -1.1611 -2.0448 -1.3851
 5984SOL    HW235563  13.171   2.721   5.404 -1.1255  0.3921 -1.3130
 5985SOL     OW35564   7.396   9.180  12.258 -0.3029  0.3630  0.3495
 5985SOL    HW135565   7.458   9.144  12.322  0.4965  0.3582 -0.4157
 5985SOL    HW235566   7.416   9.273  12.255  1.1383  0.0402 -1.4523
 5986SOL     OW35567   4.245  12.117   4.098 -0.4775 -0.5487  0.0150
 5986SOL    HW135568   4.233  12.039   4.152 -2.6900 -0.7086 -0.6309
 5986SOL    HW235569   4.232  12.191   4.157  3.2474 -0.4946  1.0222
 5987SOL     OW35570   9.289   1.757   0.333  0.6325 -0.0837 -0.5251
 5987SOL    HW135571   9.210   1.704   0.330  1.1410 -0.8304 -1.4434
 5987SOL    HW235572   9.275   1.826   0.268  0.5385  0.0818 -0.3309
 5988SOL     OW35573   1.441   3.642   5.444 -0.0382 -0.2690 -0.0446
 5988SOL    HW135574   1.359   3.692   5.447  1.6050  2.6035  1.1367
 5988SOL    HW235575   1.442   3.603   5.356 -1.8434  1.0787 -0.7240
 5989SOL     OW35576   3.219  12.139   6.198 -0.6221  0.3578  0.2543
 5989SOL    HW135577   3.176  12.069   6.247 -0.2109  2.0776  3.3336
 5989SOL    HW235578   3.167  12.217   6.217  0.0829  1.2934 -1.4235
 5990SOL     OW35579   1.843  12.764  11.971 -0.2854 -0.1130 -0.0342
 5990SOL    HW135580   1.761  12.717  11.957 -1.0872  1.2740 -0.1099
 5990SOL    HW235581   1.866  12.800  11.886 -0.3845  0.7250  0.2818
 5991SOL     OW35582  10.409   9.713   0.600  0.1071 -0.4533 -0.5825
 5991SOL    HW135583  10.432   9.769   0.675 -0.4937  0.2649 -0.9279
 5991SOL    HW235584  10.466   9.744   0.529  0.1942 -0.6863 -0.6176
 5992SOL     OW35585   3.791  13.175  11.628  0.5590  0.1931  0.0421
 5992SOL    HW135586   3.853  13.143  11.563  0.1607  1.4958 -1.0349
 5992SOL    HW235587   3.840  13.175  11.710  1.2806 -0.8536 -0.3641
 5993SOL     OW35588   6.631   7.408   3.091  0.5146 -0.1574  0.0877
 5993SOL    HW135589   6.696   7.405   3.162  0.3949  1.8868  0.3385
 5993SOL    HW235590   6.645   7.493   3.050  0.0474 -0.9782 -1.8722
 5994SOL     OW35591  12.799   9.174   4.341  0.3055 -0.2173 -0.2950
 5994SOL    HW135592  12.825   9.188   4.250  2.7989 -1.6383  0.1248
 5994SOL    HW235593  12.876   9.197   4.392 -0.8164 -0.1133  1.4422
 5995SOL     OW35594   1.678   2.811   4.935  0.6751  0.3510 -0.5316
 5995SOL    HW135595   1.734   2.883   4.906 -0.6089  1.2825 -0.8108
 5995SOL    HW235596   1.639   2.843   5.016 -0.8375  0.5105 -1.2821
 5996SOL     OW35597  13.155   9.987   2.428 -0.3070 -0.4612  0.1396
 5996SOL    HW135598  13.135   9.894   2.414 -3.5467  0.2321 -0.6883
 5996SOL    HW235599  13.207   9.989   2.508 -1.1002 -2.9077  0.8012
 5997SOL     OW35600   8.613   8.139   4.926 -0.1963 -0.0386 -0.0058
 5997SOL    HW135601   8.683   8.139   4.860 -0.7714  1.7397 -0.6907
 5997SOL    HW235602   8.575   8.227   4.919 -3.4068 -1.3670 -0.6143
 5998SOL     OW35603   4.892   7.606   4.352 -0.0248 -0.4266  0.5641
 5998SOL    HW135604   4.909   7.684   4.299  1.9134 -1.7553 -0.9098
 5998SOL    HW235605   4.872   7.640   4.439  2.1980  1.6910  0.3471
 5999SOL     OW35606   0.416   3.862  14.030 -0.7649 -0.1791  0.0967
 5999SOL    HW135607   0.486   3.799  14.013 -1.0395 -0.3413 -0.4634
 5999SOL    HW235608   0.455   3.948  14.012 -0.1935 -0.1167  1.4947
 6000SOL     OW35609  11.295  13.057   8.089 -0.0866  0.1407  0.1259
 6000SOL    HW135610  11.348  13.127   8.052 -2.5246  2.4621  0.7465
 6000SOL    HW235611  11.338  13.036   8.172  1.0490  0.3903 -0.3780
 6001SOL     OW35612   1.867   6.825  11.321 -1.0650 -0.5876 -0.7696
 6001SOL    HW135613   1.847   6.744  11.368  1.4834 -1.8235 -1.6024
 6001SOL    HW235614   1.857   6.894  11.387 -3.0520 -1.5397  0.0285
 6002SOL     OW35615  13.002   3.823   7.074 -1.0567 -0.4269  0.7418
 6002SOL    HW135616  13.096   3.828   7.094 -1.0912  0.9327  0.6404
 6002SOL    HW235617  12.979   3.732   7.093  1.1925 -2.1028 -3.2141
 6003SOL     OW35618   0.086   8.410   2.140  0.0596  0.1687 -0.1396
 6003SOL    HW135619   0.009   8.362   2.110  0.4266 -1.0723  0.8210
 6003SOL    HW235620   0.079   8.496   2.098 -1.2597 -0.3010 -0.9297
 6004SOL     OW35621   9.708  11.199   0.594 -0.2372  0.5177  0.0512
 6004SOL    HW135622   9.687  11.156   0.512  0.3390 -0.4442  0.3908
 6004SOL    HW235623   9.772  11.266   0.570  0.7385 -0.4622 -0.1592
 6005SOL     OW35624   9.126  10.716   7.199 -0.6147 -0.3394 -0.4286
 6005SOL    HW135625   9.114  10.759   7.114  0.7281 -1.0603 -1.0106
 6005SOL    HW235626   9.200  10.763   7.238 -1.7812  0.5656  0.7446
 6006SOL     OW35627   4.689   7.357   2.025  0.3090 -0.3346 -0.2502
 6006SOL    HW135628   4.637   7.284   1.991  1.4360 -0.6576 -1.3152
 6006SOL    HW235629   4.774   7.318   2.047  1.9937  1.1012 -3.5929
 6007SOL     OW35630   0.697   8.411   0.322 -0.1264 -0.7744 -0.3424
 6007SOL    HW135631   0.779   8.386   0.366  0.2976 -0.4826 -0.9603
 6007SOL    HW235632   0.723   8.478   0.259 -0.9515 -0.1796 -0.0720
 6008SOL     OW35633   1.994  11.762   8.887  1.0682  0.6661 -0.2527
 6008SOL    HW135634   1.982  11.836   8.827  0.4362  1.3549  0.6920
 6008SOL    HW235635   2.074  11.720   8.856  0.5913  0.8060 -1.7611
 6009SOL     OW35636  10.446   5.998   6.308 -0.6463  0.4321 -0.0978
 6009SOL    HW135637  10.425   5.922   6.362 -0.7078  0.6654  0.2169
 6009SOL    HW235638  10.390   5.989   6.231  0.6769 -0.7958 -0.9494
 6010SOL     OW35639   7.874   9.233   4.035 -0.0969 -0.4017 -0.3259
 6010SOL    HW135640   7.902   9.143   4.054 -1.6969 -0.6932  0.9178
 6010SOL    HW235641   7.829   9.261   4.115 -1.0818  0.9026 -1.2942
 6011SOL     OW35642   2.464  11.904   6.778 -0.1810 -0.6766 -0.6054
 6011SOL    HW135643   2.544  11.855   6.759 -0.4757 -0.9687 -1.1080
 6011SOL    HW235644   2.414  11.901   6.697  0.0957  1.0604 -0.8714
 6012SOL     OW35645   0.763   5.361   3.167  0.2618  0.2727 -0.4369
 6012SOL    HW135646   0.843   5.414   3.163  1.1040 -1.0149 -1.4129
 6012SOL    HW235647   0.763   5.310   3.086 -0.5478 -1.1737  0.4192
 6013SOL     OW35648  12.289   5.892   1.920 -0.3562  0.3138  0.1737
 6013SOL    HW135649  12.323   5.869   1.834  1.3237 -0.6000  1.0210
 6013SOL    HW235650  12.364   5.882   1.979 -1.3793  1.1999  1.7033
 6014SOL     OW35651  12.291   8.059   1.929 -0.2586 -0.5225  0.1885
 6014SOL    HW135652  12.207   8.081   1.888 -0.7007 -0.8148  0.9170
 6014SOL    HW235653  12.270   8.045   2.022  0.6159 -0.4803  0.4049
 6015SOL     OW35654   2.710   8.649   3.264  0.0877  0.1301 -0.0326
 6015SOL    HW135655   2.781   8.701   3.301 -0.3321 -0.9298  2.5697
 6015SOL    HW235656   2.633   8.705   3.270  0.4361  0.8188 -1.6407
 6016SOL     OW35657   7.183  13.157   6.032  0.5000 -0.3474  0.2221
 6016SOL    HW135658   7.091  13.168   6.056  0.5031  2.3421 -0.6918
 6016SOL    HW235659   7.184  13.160   5.936  1.5224 -0.8408  0.1995
 6017SOL     OW35660   7.086   3.633   4.275 -0.2220 -0.2908 -0.2799
 6017SOL    HW135661   7.126   3.665   4.194 -0.2477  0.8819  0.1602
 6017SOL    HW235662   7.033   3.558   4.247  1.6101 -1.4079 -0.9957
 6018SOL     OW35663  11.222   7.205   2.493 -0.6814 -0.6323 -0.5743
 6018SOL    HW135664  11.244   7.212   2.400  0.2543 -1.8578 -0.4656
 6018SOL    HW235665  11.300   7.168   2.534 -1.0921 -0.1494  0.7097
 6019SOL     OW35666   3.478   7.246   2.865  0.2000 -0.6771  0.0485
 6019SOL    HW135667   3.500   7.294   2.785 -0.2090 -1.1649 -0.3690
 6019SOL    HW235668   3.399   7.197   2.842  1.0654 -2.2108  0.1842
 6020SOL     OW35669   6.866   9.458   5.083  0.0977  0.5156 -0.0084
 6020SOL    HW135670   6.894   9.496   5.000 -0.8112  0.9171 -0.1408
 6020SOL    HW235671   6.929   9.492   5.147 -0.2892  1.7137 -0.2313
 6021SOL     OW35672   5.508   9.972   7.167 -0.3244  0.3042  0.8090
 6021SOL    HW135673   5.489   9.889   7.122 -0.0055  1.0870 -0.8285
 6021SOL    HW235674   5.574   9.949   7.233 -0.2457 -0.7485  0.3825
 6022SOL     OW35675   0.157   6.435   2.844 -0.2173  0.4472  0.4229
 6022SOL    HW135676   0.171   6.452   2.937  0.4303  0.4483  0.3323
 6022SOL    HW235677   0.230   6.378   2.819 -0.7814 -0.1399  0.0756
 6023SOL     OW35678   2.410   9.295   4.772 -0.8456  0.3680 -0.2362
 6023SOL    HW135679   2.408   9.211   4.818 -0.9725  1.0356  1.0420
 6023SOL    HW235680   2.501   9.305   4.744 -1.0311 -0.6218 -1.2669
 6024SOL     OW35681   8.792  13.809   2.206  0.1103 -0.7384 -0.1519
 6024SOL    HW135682   8.748  13.801   2.121  1.1627  0.2079 -0.8306
 6024SOL    HW235683   8.850  13.884   2.195 -0.9924  0.5354  1.9884
 6025SOL     OW35684  10.395   1.778   4.058  0.0517  0.6525 -0.1816
 6025SOL    HW135685  10.462   1.758   3.993  1.3599  1.0881  0.9969
 6025SOL    HW235686  10.350   1.855   4.023  0.6868  0.8315 -0.6123
 6026SOL     OW35687   6.024  11.320   7.517 -0.4604  0.3126 -0.3544
 6026SOL    HW135688   6.053  11.302   7.607 -2.5674 -0.6738  0.1980
 6026SOL    HW235689   6.091  11.280   7.462 -0.6867 -1.8419  0.8286
 6027SOL     OW35690   8.791   1.287   5.301 -0.1514  1.0408 -0.7506
 6027SOL    HW135691   8.760   1.208   5.346  1.5482  0.6581 -0.1630
 6027SOL    HW235692   8.833   1.338   5.370  0.0226  1.7754 -1.3898
 6028SOL     OW35693   7.984   8.677   4.749  0.0379  1.3347 -0.1008
 6028SOL    HW135694   7.948   8.645   4.832 -3.6353 -1.0176 -2.3484
 6028SOL    HW235695   8.045   8.609   4.721 -0.5742  0.9335 -0.4619
 6029SOL     OW35696   4.798   4.496   9.702 -0.4865  0.4450  0.4514
 6029SOL    HW135697   4.881   4.524   9.739 -0.4746 -0.0252  0.7888
 6029SOL    HW235698   4.747   4.577   9.693  0.0597  0.7620  0.0819
 6030SOL     OW35699   4.052  11.510   2.396 -0.2677  0.1322  0.0253
 6030SOL    HW135700   4.045  11.605   2.402  1.4330  0.2971  0.0890
 6030SOL    HW235701   4.117  11.486   2.462  1.0958 -0.7640 -1.5418
 6031SOL     OW35702   4.795   5.159  12.405  0.1115  0.0834 -0.2478
 6031SOL    HW135703   4.740   5.195  12.336  0.1090 -0.1023 -0.3428
 6031SOL    HW235704   4.740   5.096  12.451 -0.0797  0.6432  0.3121
 6032SOL     OW35705   3.520   1.310   6.291  0.5765  0.2319 -0.1323
 6032SOL    HW135706   3.587   1.303   6.359  0.2853  1.3301  0.3015
 6032SOL    HW235707   3.465   1.383   6.320  0.2747  0.5323 -1.4096
 6033SOL     OW35708   0.831   1.060   4.435 -0.4120  0.1089  0.0595
 6033SOL    HW135709   0.901   1.024   4.490  0.1632  1.5454  0.2903
 6033SOL    HW235710   0.759   1.076   4.497 -0.7577 -0.8209 -0.0827
 6034SOL     OW35711   7.079   0.594  11.967 -0.0440  0.4726 -0.3787
 6034SOL    HW135712   7.154   0.553  11.924  0.1846  0.9515 -0.4433
 6034SOL    HW235713   7.043   0.526  12.023  0.4635  0.2535 -0.3152
 6035SOL     OW35714  11.592   2.831  12.245  0.3283 -0.2734  0.5736
 6035SOL    HW135715  11.606   2.880  12.326 -0.8312  0.1372  0.5416
 6035SOL    HW235716  11.557   2.895  12.183 -1.7744 -1.2160  0.7067
 6036SOL     OW35717   1.892  12.283   4.970 -0.0057  0.2021 -0.5333
 6036SOL    HW135718   1.815  12.330   5.002  0.2250  0.4895 -0.3968
 6036SOL    HW235719   1.877  12.191   4.994 -0.9659  0.0119 -1.7539
 6037SOL     OW35720   2.287   0.842  10.031  0.4586  0.2625  0.2442
 6037SOL    HW135721   2.352   0.912  10.029 -1.2501  1.9819  1.4552
 6037SOL    HW235722   2.209   0.881   9.993 -0.7911 -0.6823  1.7408
 6038SOL     OW35723   7.613   9.270  12.749  0.5755 -0.1254  0.2401
 6038SOL    HW135724   7.589   9.236  12.835  2.7162 -1.2815  0.4452
 6038SOL    HW235725   7.622   9.365  12.762  0.2184 -0.2043  1.1084
 6039SOL     OW35726   5.679   3.916  11.853 -0.3494  0.0450  0.0400
 6039SOL    HW135727   5.703   3.936  11.943  0.4253 -0.6252 -0.0081
 6039SOL    HW235728   5.720   3.986  11.801  2.0434 -1.3648 -0.0928
 6040SOL     OW35729  11.065  10.552   4.289 -0.0051 -0.2742  0.2427
 6040SOL    HW135730  11.023  10.637   4.279 -0.8440 -0.7357 -0.2824
 6040SOL    HW235731  11.013  10.506   4.355 -1.4471 -1.5022 -1.6552
 6041SOL     OW35732   2.123   4.967   6.997 -0.0265  0.1484 -0.6683
 6041SOL    HW135733   2.152   5.030   6.931 -1.1589  1.7322  0.2943
 6041SOL    HW235734   2.085   5.020   7.066  0.5358 -1.5161  0.9889
 6042SOL     OW35735   9.608  13.001   2.649 -0.5499 -0.1650  0.3544
 6042SOL    HW135736   9.566  13.058   2.713  0.1949 -0.0761  0.7751
 6042SOL    HW235737   9.582  12.913   2.676 -0.2487 -0.1282  0.7816
 6043SOL     OW35738   1.059   2.939   7.149 -0.3177  0.3129  0.4334
 6043SOL    HW135739   1.057   2.916   7.241  1.1000  0.2217  0.4706
 6043SOL    HW235740   1.054   2.856   7.102 -2.0510  0.4227  0.3849
 6044SOL     OW35741   5.559  11.267   8.509  0.2695  0.4434  0.4117
 6044SOL    HW135742   5.636  11.302   8.462  0.4443  2.0467  1.7942
 6044SOL    HW235743   5.592  11.244   8.595 -1.0637  2.9084  1.7015
 6045SOL     OW35744   4.268   2.285   7.671 -0.1967  0.5700  0.4282
 6045SOL    HW135745   4.340   2.318   7.725 -0.0364  0.3682  0.3398
 6045SOL    HW235746   4.310   2.224   7.611 -0.4459  0.4430  0.3834
 6046SOL     OW35747   4.180   1.994   5.582 -0.4920 -0.0202  0.2789
 6046SOL    HW135748   4.165   1.917   5.636 -0.2925 -1.6296 -1.8272
 6046SOL    HW235749   4.092   2.028   5.563 -0.7525 -1.1659 -0.6876
 6047SOL     OW35750  12.614   0.264  13.448  0.3472 -0.3216 -0.2332
 6047SOL    HW135751  12.538   0.289  13.395 -0.4322 -0.2864  0.8506
 6047SOL    HW235752  12.627   0.171  13.429  0.4770 -0.1596 -0.9559
 6048SOL     OW35753   9.579   3.554   6.714 -0.5025  0.3472  0.2996
 6048SOL    HW135754   9.583   3.582   6.805 -1.5441  1.2224  0.0896
 6048SOL    HW235755   9.551   3.632   6.666  0.9360  0.1540 -0.9033
 6049SOL     OW35756  12.962  10.225   2.527  0.2438 -0.4152 -0.6101
 6049SOL    HW135757  13.027  10.271   2.581  0.4965 -0.0917 -1.1760
 6049SOL    HW235758  12.878  10.263   2.552  0.4135  0.1002 -0.8038
 6050SOL     OW35759  12.555  13.686   7.944  0.4677  0.1425  0.3509
 6050SOL    HW135760  12.521  13.598   7.927 -0.2901  0.5416 -0.2824
 6050SOL    HW235761  12.645  13.672   7.973 -0.5704 -1.0612  3.3510
 6051SOL     OW35762   6.915   0.772   2.542  0.1586  0.1081  0.0294
 6051SOL    HW135763   7.000   0.767   2.499  1.2539 -0.5985  2.1483
 6051SOL    HW235764   6.932   0.820   2.623 -1.4891  0.0487  0.4479
 6052SOL     OW35765   9.459   8.566  13.963 -0.3324  0.0004 -0.4229
 6052SOL    HW135766   9.526   8.515  13.916  0.2723  0.2783  0.1239
 6052SOL    HW235767   9.438   8.512  14.039  1.4731  1.2240  1.0372
 6053SOL     OW35768   2.760   1.021  10.440  0.1497  0.3185  0.3152
 6053SOL    HW135769   2.826   1.026  10.508  0.3114  0.0992  0.1762
 6053SOL    HW235770   2.701   0.951  10.469  0.1970  0.2511  0.2500
 6054SOL     OW35771   4.488  12.823   7.732 -0.2320  0.2419  0.3186
 6054SOL    HW135772   4.583  12.829   7.717 -0.1370  0.3205  0.9154
 6054SOL    HW235773   4.451  12.891   7.677  0.1157  0.6456  0.5774
 6055SOL     OW35774   2.713   5.995  11.403  0.2354  0.3894 -0.1097
 6055SOL    HW135775   2.804   6.025  11.396  0.5122 -0.5295 -0.6704
 6055SOL    HW235776   2.661   6.075  11.406  1.1314  0.9624  1.4994
 6056SOL     OW35777   6.793   3.792  13.039 -0.5814 -0.2464  0.1923
 6056SOL    HW135778   6.771   3.883  13.059 -1.2420 -0.5116  0.7039
 6056SOL    HW235779   6.864   3.799  12.975 -0.9316  0.6299 -0.1270
 6057SOL     OW35780  13.554   5.937   6.485  0.0646 -0.0667 -0.1229
 6057SOL    HW135781  13.583   6.015   6.437 -1.1345  0.8173  0.5454
 6057SOL    HW235782  13.620   5.871   6.464  0.1338  0.5738 -2.1596
 6058SOL     OW35783   9.548   7.065  13.505 -0.0599  0.1349 -0.4013
 6058SOL    HW135784   9.569   7.039  13.595  0.5214 -2.1543 -1.1428
 6058SOL    HW235785   9.453   7.074  13.505  0.0280  1.5346  0.7390
 6059SOL     OW35786  10.030   3.505   8.132 -0.1213 -0.0586 -0.6461
 6059SOL    HW135787  10.047   3.555   8.211  1.0235  1.1813 -1.6297
 6059SOL    HW235788   9.991   3.568   8.071 -0.4345 -0.8355 -1.2794
 6060SOL     OW35789   0.695  11.708   2.710 -0.8608  0.1439  0.0391
 6060SOL    HW135790   0.735  11.712   2.797  0.5905  1.8852 -0.6606
 6060SOL    HW235791   0.729  11.784   2.664 -0.7170 -1.3228 -2.4380
 6061SOL     OW35792   4.074  14.066   7.446  0.2019 -0.4693 -0.3162
 6061SOL    HW135793   4.049  13.998   7.508 -0.0330 -0.8365 -0.8112
 6061SOL    HW235794   3.999  14.073   7.387  0.0765  0.4627 -0.0645
 6062SOL     OW35795  13.034   1.683   3.988 -0.1184 -0.1178 -0.7186
 6062SOL    HW135796  12.942   1.679   3.964 -0.5865  1.5821  0.5384
 6062SOL    HW235797  13.058   1.775   3.976  0.9533 -0.2059  0.4642
 6063SOL     OW35798  10.329   5.086   5.977  0.0657  0.3542  0.5123
 6063SOL    HW135799  10.403   5.028   5.959  0.9286  1.2287  1.1665
 6063SOL    HW235800  10.280   5.041   6.046  0.0150 -0.1977  0.1226
 6064SOL     OW35801  13.488  13.785   5.157  0.7254 -0.2028 -1.0456
 6064SOL    HW135802  13.550  13.821   5.093 -0.2868 -0.5844 -2.2767
 6064SOL    HW235803  13.413  13.845   5.154  1.4029  0.9176  1.2622
 6065SOL     OW35804  11.447   2.270  10.220  0.5752 -0.7088 -0.4166
 6065SOL    HW135805  11.526   2.312  10.188  0.0453  1.5821  1.0650
 6065SOL    HW235806  11.378   2.297  10.160 -0.2375  2.8135  1.8322
 6066SOL     OW35807   4.475  10.524   0.502  0.4075 -0.2582  0.0316
 6066SOL    HW135808   4.494  10.538   0.595 -1.3764  2.3375  0.0963
 6066SOL    HW235809   4.522  10.595   0.457 -0.4389 -0.2282 -0.8268
 6067SOL     OW35810   7.760   3.678   7.676  0.5928  0.5869  0.2802
 6067SOL    HW135811   7.852   3.689   7.649 -0.1731  1.1966 -2.3495
 6067SOL    HW235812   7.759   3.594   7.721  2.2457  0.0425 -0.6043
 6068SOL     OW35813   5.098  10.838   3.463  0.3955 -0.0846 -0.2978
 6068SOL    HW135814   5.114  10.774   3.394 -1.2944  0.6800 -1.4723
 6068SOL    HW235815   5.018  10.883   3.436  0.0995  0.7700  1.7900
 6069SOL     OW35816   7.796   2.808   1.293  0.1714 -0.0383  0.6258
 6069SOL    HW135817   7.707   2.829   1.263  0.8579 -0.4678 -1.9153
 6069SOL    HW235818   7.853   2.854   1.233  1.7259  0.2569  2.2470
 6070SOL     OW35819   6.819   9.448   8.665  0.2508  0.0366 -0.1122
 6070SOL    HW135820   6.767   9.370   8.647 -0.1523 -0.3270  2.2939
 6070SOL    HW235821   6.897   9.438   8.610 -0.3639 -1.4123 -0.7717
 6071SOL     OW35822   3.662  10.824  10.081  0.0042  0.0208  0.6029
 6071SOL    HW135823   3.668  10.780  10.165  1.7578  0.9379  0.9953
 6071SOL    HW235824   3.725  10.895  10.086 -0.3064  0.4897 -1.2639
 6072SOL     OW35825   6.779  11.684   3.477 -0.6621  0.2159  0.1853
 6072SOL    HW135826   6.847  11.743   3.510  0.0330 -0.5821  0.1949
 6072SOL    HW235827   6.813  11.596   3.493 -0.9296 -0.1953 -1.3401
 6073SOL     OW35828   6.147  10.842   2.835 -0.3019 -0.1907  0.3551
 6073SOL    HW135829   6.186  10.804   2.756  0.0526  0.8007  0.0390
 6073SOL    HW235830   6.137  10.767   2.895 -1.3379 -1.1086 -0.9061
 6074SOL     OW35831   1.723   7.177  10.404 -0.0457 -0.2048  0.2432
 6074SOL    HW135832   1.741   7.241  10.335  0.6656 -2.2886 -1.6126
 6074SOL    HW235833   1.656   7.120  10.368 -2.2048  0.6254  2.6778
 6075SOL     OW35834   0.255   5.275   7.297  0.1809  0.4648  0.2921
 6075SOL    HW135835   0.230   5.259   7.206 -0.1740  1.1886  0.2553
 6075SOL    HW235836   0.209   5.356   7.321  3.1254  2.4288 -0.0888
 6076SOL     OW35837   3.127   9.477   4.629  0.4508 -0.4070  0.2069
 6076SOL    HW135838   3.218   9.467   4.657 -0.0303 -1.1184  1.6234
 6076SOL    HW235839   3.095   9.553   4.678 -0.1014 -1.0230  0.8402
 6077SOL     OW35840   8.549   4.579   0.795  0.3279  0.4509  0.2409
 6077SOL    HW135841   8.562   4.503   0.738 -1.5832 -1.5080  2.1965
 6077SOL    HW235842   8.617   4.572   0.862 -0.2321  0.0586  0.7819
 6078SOL     OW35843   0.419   4.387  11.176 -0.4151 -0.1628 -0.5475
 6078SOL    HW135844   0.480   4.314  11.171 -2.9720 -2.4677 -0.6822
 6078SOL    HW235845   0.406   4.401  11.270  0.5151  0.5775 -0.5119
 6079SOL     OW35846   1.475   3.769   3.895 -0.5333  0.1742  0.0527
 6079SOL    HW135847   1.569   3.752   3.904 -0.5341 -0.0109 -0.2703
 6079SOL    HW235848   1.468   3.823   3.816 -0.7888 -0.7164 -0.5564
 6080SOL     OW35849   8.139  11.613   7.378 -0.1882 -0.5964 -0.0761
 6080SOL    HW135850   8.052  11.595   7.413  0.6439 -1.4912  1.6660
 6080SOL    HW235851   8.182  11.665   7.447  1.3311 -1.9340  0.0376
 6081SOL     OW35852   1.902   7.567   8.264 -0.2914  0.7784  0.2736
 6081SOL    HW135853   1.836   7.625   8.225  0.4302  0.6373 -1.1991
 6081SOL    HW235854   1.976   7.571   8.204  0.5944 -0.0042  1.2834
 6082SOL     OW35855  12.723   0.295  10.498  0.1476  0.2591  0.3133
 6082SOL    HW135856  12.706   0.259  10.585  0.0336 -1.1737 -0.2770
 6082SOL    HW235857  12.794   0.242  10.463 -0.5944  0.0281 -0.9157
 6083SOL     OW35858   6.464   9.850   2.313 -0.0994 -0.0360  0.4323
 6083SOL    HW135859   6.373   9.869   2.291  0.2267  2.1468  0.7478
 6083SOL    HW235860   6.463   9.760   2.345 -2.1818  0.0107  0.6115
 6084SOL     OW35861  11.503   5.269  13.972 -0.1897 -0.0133  0.9278
 6084SOL    HW135862  11.588   5.311  13.960 -1.5654  2.2486 -2.2565
 6084SOL    HW235863  11.497   5.205  13.901 -1.3270  0.2008  0.8107
 6085SOL     OW35864   2.283   7.315   6.982 -0.3729 -0.0224 -0.5751
 6085SOL    HW135865   2.281   7.402   6.941 -0.1512 -0.5298 -1.6817
 6085SOL    HW235866   2.241   7.257   6.919 -0.1287 -0.8058 -0.0345
 6086SOL     OW35867   1.983  13.190   3.372  0.1166  0.3151  0.2438
 6086SOL    HW135868   1.961  13.101   3.344  1.2393  0.3212 -0.7268
 6086SOL    HW235869   2.018  13.180   3.460 -0.8991 -0.0462  0.6146
 6087SOL     OW35870   5.434   2.753   6.587 -0.6609 -0.2600  0.4088
 6087SOL    HW135871   5.447   2.848   6.588 -0.0597 -0.3403  0.5440
 6087SOL    HW235872   5.470   2.725   6.502  0.1608 -0.4989  0.8285
 6088SOL     OW35873  10.566   7.651   6.871 -0.0842  0.3330 -0.1181
 6088SOL    HW135874  10.616   7.691   6.800 -0.1212 -1.3454 -1.1286
 6088SOL    HW235875  10.476   7.680   6.856  0.0237  0.5709 -0.3162
 6089SOL     OW35876  11.261   1.615   7.332  0.0442 -0.2979 -0.3186
 6089SOL    HW135877  11.170   1.644   7.332  0.9391  2.8664 -0.5102
 6089SOL    HW235878  11.262   1.537   7.277 -2.7553 -1.3940  1.0134
 6090SOL     OW35879   5.713   3.381   8.724 -0.1376 -0.1896 -0.6740
 6090SOL    HW135880   5.727   3.474   8.705 -0.6853 -0.2307 -1.3121
 6090SOL    HW235881   5.793   3.338   8.692  1.3299  0.3174  2.0292
 6091SOL     OW35882   0.544   9.197   2.894 -0.5654 -0.4374 -0.2366
 6091SOL    HW135883   0.579   9.116   2.930  0.7306 -0.2345 -0.9877
 6091SOL    HW235884   0.540   9.182   2.800 -0.2362  0.3934 -0.3928
 6092SOL     OW35885   9.114  11.726   8.340  0.3485  0.5649  0.3373
 6092SOL    HW135886   9.194  11.680   8.314  0.1814  0.8329 -0.7048
 6092SOL    HW235887   9.107  11.711   8.434  1.2134 -0.0996  0.3075
 6093SOL     OW35888   0.145  13.797   9.211 -0.5509 -0.4134 -0.4220
 6093SOL    HW135889   0.166  13.722   9.155  2.0563 -0.5854  0.6582
 6093SOL    HW235890   0.216  13.800   9.276 -1.4305  2.0415  0.5602
 6094SOL     OW35891   1.772  10.532  10.454 -0.5256 -0.2171  0.4370
 6094SOL    HW135892   1.782  10.441  10.482  1.3641 -0.2666 -0.2375
 6094SOL    HW235893   1.701  10.530  10.390 -0.1789 -1.3364  0.0637
 6095SOL     OW35894   9.970  13.891   8.491  0.0879 -0.4657  0.1591
 6095SOL    HW135895   9.979  13.973   8.540 -0.2894  0.0435 -0.5971
 6095SOL    HW235896  10.053  13.881   8.445  0.3869 -0.8662  0.7791
 6096SOL     OW35897   1.613   8.214   1.120 -0.4157 -0.1576  0.3842
 6096SOL    HW135898   1.706   8.193   1.114 -0.1584  0.9616  0.1584
 6096SOL    HW235899   1.568   8.130   1.113  0.3940 -0.4281 -3.4177
 6097SOL     OW35900  10.292  11.417   4.360  0.6122 -0.4070  0.5212
 6097SOL    HW135901  10.223  11.409   4.293  0.3081  0.7876  0.6635
 6097SOL    HW235902  10.245  11.412   4.443  0.4310  1.9499  0.6327
 6098SOL     OW35903   1.339   2.064   7.915 -0.5925  0.1880 -0.0937
 6098SOL    HW135904   1.250   2.038   7.891  0.2708 -2.4596 -0.7757
 6098SOL    HW235905   1.363   2.129   7.850 -2.1040  1.2013  0.2969
 6099SOL     OW35906   4.628  12.148  13.842 -0.3487  0.4424 -0.0405
 6099SOL    HW135907   4.680  12.217  13.883 -0.1160  0.3413 -0.1611
 6099SOL    HW235908   4.680  12.068  13.856  0.8141  0.7091 -2.4026
 6100SOL     OW35909   4.739   4.446   1.970  0.1854  0.3409  0.1777
 6100SOL    HW135910   4.721   4.411   2.058 -1.9010  0.5788 -0.1113
 6100SOL    HW235911   4.829   4.418   1.952  0.4604 -0.2288  2.1343
 6101SOL     OW35912  12.979  10.984  11.036  0.0812 -0.4642  0.2167
 6101SOL    HW135913  12.976  10.981  11.131 -0.2855 -1.7683  0.1848
 6101SOL    HW235914  12.902  11.035  11.011  0.4079  0.2405  0.6163
 6102SOL     OW35915   1.056   2.579  11.987  0.7910 -0.0399  0.3302
 6102SOL    HW135916   1.032   2.503  12.040  1.0697 -0.8853 -0.7287
 6102SOL    HW235917   1.142   2.605  12.020  2.2324 -2.2206 -1.3770
 6103SOL     OW35918   4.882   5.023   9.724  0.3421  0.4986 -0.1251
 6103SOL    HW135919   4.893   5.116   9.703 -0.0683  0.8726  1.2739
 6103SOL    HW235920   4.881   5.019   9.819 -2.0401 -0.6421 -0.1136
 6104SOL     OW35921   8.077   7.186  13.121 -0.0637  0.2043  0.7134
 6104SOL    HW135922   8.068   7.106  13.173 -0.1693 -0.7295 -0.6677
 6104SOL    HW235923   8.015   7.175  13.049 -0.5584  1.8573  0.8455
 6105SOL     OW35924  11.826  11.069   7.099  0.6722 -0.1670 -0.0704
 6105SOL    HW135925  11.756  11.011   7.069  0.7380  0.0553 -0.6524
 6105SOL    HW235926  11.889  11.011   7.142 -0.4385 -0.2477  1.5702
 6106SOL     OW35927   3.518  10.693   1.175  0.2365 -0.2228  0.5924
 6106SOL    HW135928   3.552  10.638   1.245  2.0008 -0.1727 -0.1838
 6106SOL    HW235929   3.492  10.775   1.218 -2.3621 -1.5314  1.7486
 6107SOL     OW35930  10.407   2.262   3.387  0.6594  0.1615 -0.1535
 6107SOL    HW135931  10.367   2.226   3.466  1.1956  2.0763  1.0671
 6107SOL    HW235932  10.472   2.197   3.361 -1.1028 -1.5877 -0.4259
 6108SOL     OW35933  10.192   3.703   5.743  0.0392 -0.0548 -0.1875
 6108SOL    HW135934  10.157   3.669   5.661 -0.2796  0.2306 -0.1719
 6108SOL    HW235935  10.177   3.797   5.739  1.3491  0.1603 -0.4391
 6109SOL     OW35936   6.448  10.481   2.030 -0.5584 -0.3215 -0.3271
 6109SOL    HW135937   6.401  10.450   1.953  0.3326  2.1606 -2.0012
 6109SOL    HW235938   6.469  10.401   2.079 -1.1877 -2.0110 -2.6213
 6110SOL     OW35939   3.242   2.217   1.079 -1.1045 -0.3074 -0.0167
 6110SOL    HW135940   3.190   2.278   1.131 -0.8632  0.2958 -0.4693
 6110SOL    HW235941   3.245   2.136   1.131  1.6309  1.1602  2.4036
 6111SOL     OW35942   5.121   3.533   2.154  0.3963 -0.4091  0.7433
 6111SOL    HW135943   5.123   3.437   2.157  0.4972 -0.4266  0.2394
 6111SOL    HW235944   5.208   3.559   2.185  1.7588 -0.6027 -2.4893
 6112SOL     OW35945   9.325   3.399  12.548  0.4767  0.0511 -0.2422
 6112SOL    HW135946   9.393   3.366  12.490  2.2741  0.5279  1.4902
 6112SOL    HW235947   9.329   3.494  12.538  0.4141  0.1075  0.2305
 6113SOL     OW35948   2.541  11.348   5.719 -0.3692  0.6888  0.1659
 6113SOL    HW135949   2.592  11.369   5.641 -1.2120  1.5649 -0.1650
 6113SOL    HW235950   2.590  11.387   5.791  1.6629 -2.0587  0.4638
 6114SOL     OW35951   2.829   6.325  10.503 -0.4273 -0.5622  0.5227
 6114SOL    HW135952   2.831   6.316  10.407 -3.0132  1.6041  0.1730
 6114SOL    HW235953   2.911   6.285  10.532  1.1038 -0.0474 -2.6966
 6115SOL     OW35954   2.767   8.342  12.350  0.4107  0.0607 -0.8449
 6115SOL    HW135955   2.716   8.265  12.377  0.4568  1.3867  4.0797
 6115SOL    HW235956   2.856   8.322  12.379  0.4233  1.8536  0.5174
 6116SOL     OW35957   4.980   8.376   4.266  0.0428 -0.1257  0.2811
 6116SOL    HW135958   4.972   8.471   4.280 -2.5687  0.0642 -1.7126
 6116SOL    HW235959   4.918   8.338   4.328  0.7338 -0.5275  0.7377
 6117SOL     OW35960   2.285  13.844   8.223 -0.2108  0.3067  0.2355
 6117SOL    HW135961   2.313  13.935   8.215  1.0920 -0.1331 -0.5157
 6117SOL    HW235962   2.323  13.800   8.147 -1.5127 -0.7119  0.1284
 6118SOL     OW35963  14.040   1.134   6.146  0.0271 -0.2812  0.4891
 6118SOL    HW135964  14.113   1.071   6.142  0.7968  0.5506  0.9829
 6118SOL    HW235965  14.020   1.140   6.240  0.0400  0.2919  0.4582
 6119SOL     OW35966   2.584   2.065   0.950 -0.1053  0.4003 -0.0802
 6119SOL    HW135967   2.559   2.021   0.868  1.8223 -1.5048  0.2733
 6119SOL    HW235968   2.501   2.095   0.986 -1.2228 -0.3816 -1.8099
 6120SOL     OW35969   3.245  10.849  10.266  0.0575 -0.0703  0.1876
 6120SOL    HW135970   3.229  10.799  10.187 -1.4090 -1.6274  1.4000
 6120SOL    HW235971   3.168  10.835  10.320  0.2364  2.3375  1.2288
 6121SOL     OW35972  12.570   0.018   9.765 -0.1111  0.2544  0.2571
 6121SOL    HW135973  12.620  -0.063   9.766  0.8829  0.5879 -3.6451
 6121SOL    HW235974  12.631   0.084   9.798  0.9819  0.1338 -1.3976
 6122SOL     OW35975  11.902   5.956   5.839  0.3547 -0.2980  0.5265
 6122SOL    HW135976  11.991   5.991   5.853  0.4369 -1.0850  2.2150
 6122SOL    HW235977  11.892   5.954   5.744  1.9073  0.4050  0.3121
 6123SOL     OW35978   7.279  12.296   3.299  0.3999  0.8587 -0.0479
 6123SOL    HW135979   7.287  12.203   3.279 -0.2548  1.0911 -1.4848
 6123SOL    HW235980   7.337  12.310   3.374 -0.7957 -1.0391  1.3108
 6124SOL     OW35981   3.270  13.336   2.798 -0.7941 -0.8395  0.1735
 6124SOL    HW135982   3.204  13.369   2.859 -2.6689 -0.9912 -1.6422
 6124SOL    HW235983   3.353  13.369   2.832 -1.4617 -2.5375  3.8221
 6125SOL     OW35984   9.107  11.438  10.322  0.2678  0.1964  0.0290
 6125SOL    HW135985   9.188  11.390  10.337  0.5783  0.7156  0.0347
 6125SOL    HW235986   9.117  11.477  10.236  0.3226  0.8479  0.3262
 6126SOL     OW35987  12.547  13.374  11.716 -0.7761 -0.1504 -0.1647
 6126SOL    HW135988  12.464  13.406  11.681 -0.2967 -0.2242 -1.4187
 6126SOL    HW235989  12.590  13.330  11.642 -1.0054 -2.9745  1.2368
 6127SOL     OW35990   2.345  10.599   4.751 -0.5649 -0.4164  0.3485
 6127SOL    HW135991   2.304  10.513   4.758  0.7831 -1.2717 -1.3342
 6127SOL    HW235992   2.437  10.580   4.733 -0.1571  1.3965  0.3131
 6128SOL     OW35993  12.222   5.432   1.113  0.4127  0.0762  0.2920
 6128SOL    HW135994  12.209   5.338   1.127  0.9199  0.4849  4.5664
 6128SOL    HW235995  12.317   5.443   1.114  0.3575  0.8648  2.7161
 6129SOL     OW35996  10.489  13.181   6.240  0.5689 -0.5043  0.2733
 6129SOL    HW135997  10.430  13.201   6.312 -0.4715 -1.1654 -0.3767
 6129SOL    HW235998  10.537  13.263   6.226  0.7742 -0.3547  1.6698
 6130SOL     OW35999   7.684  12.110   4.641 -0.4050 -0.0851  0.1671
 6130SOL    HW136000   7.666  12.162   4.719 -1.1410  0.4510 -0.3477
 6130SOL    HW236001   7.714  12.026   4.675  1.1775  0.7743  1.0141
 6131SOL     OW36002   6.442   0.380   1.359 -0.4321 -0.1636  0.3449
 6131SOL    HW136003   6.521   0.367   1.307 -1.4702  0.9909 -1.6507
 6131SOL    HW236004   6.455   0.326   1.437  2.0768 -0.3846 -0.1538
 6132SOL     OW36005   6.236   3.299   9.199  0.1929 -0.0323  0.4399
 6132SOL    HW136006   6.161   3.245   9.178  0.5083 -0.0686 -0.6447
 6132SOL    HW236007   6.281   3.312   9.115  2.1314 -1.1148  1.2267
 6133SOL     OW36008  13.285  11.041   4.836  0.6533 -0.2069  0.3445
 6133SOL    HW136009  13.312  11.020   4.747  0.4346 -0.0475  0.2373
 6133SOL    HW236010  13.343  10.990   4.893 -0.4324 -1.7952  0.0940
 6134SOL     OW36011   7.614  13.034  12.606 -0.6822  0.8541  0.3012
 6134SOL    HW136012   7.545  13.100  12.599 -0.7370  0.7777  0.1151
 6134SOL    HW236013   7.696  13.082  12.593 -0.6054  1.1765  1.8153
 6135SOL     OW36014   0.345   6.860   0.121 -0.0470  0.4405 -0.4040
 6135SOL    HW136015   0.333   6.798   0.049  1.3871  0.8543 -1.0524
 6135SOL    HW236016   0.277   6.925   0.110 -2.2187 -1.4648  0.8594
 6136SOL     OW36017   0.129   9.604  12.040 -0.2127  0.2715  0.3728
 6136SOL    HW136018   0.059   9.666  12.059  0.4139  1.5254 -1.2439
 6136SOL    HW236019   0.208   9.657  12.034  0.7408 -0.9883  1.1093
 6137SOL     OW36020   5.712  11.896  10.301 -0.0166 -0.1960  0.2160
 6137SOL    HW136021   5.665  11.977  10.278  0.7392  0.0193 -0.6219
 6137SOL    HW236022   5.796  11.927  10.334 -0.1298 -0.6155  0.9150
 6138SOL     OW36023   0.719   9.280   4.854  0.1797 -0.3758 -0.0971
 6138SOL    HW136024   0.693   9.197   4.813  0.7017 -0.9091  0.6375
 6138SOL    HW236025   0.801   9.302   4.811  1.0859 -1.2870  1.0898
 6139SOL     OW36026  10.662  11.180   1.518  0.8134  0.0947 -0.6655
 6139SOL    HW136027  10.742  11.194   1.466  1.9437 -2.3717  0.2415
 6139SOL    HW236028  10.656  11.258   1.573  3.0133  0.0882 -0.2982
 6140SOL     OW36029   3.897  11.011   2.988  0.1231 -0.1101 -0.4868
 6140SOL    HW136030   3.844  11.085   2.959 -0.7543 -1.0076 -1.2509
 6140SOL    HW236031   3.982  11.049   3.011 -0.2821  1.1054 -0.9456
 6141SOL     OW36032   9.011   9.339   6.169 -0.6109  0.8316 -0.2362
 6141SOL    HW136033   9.001   9.370   6.259 -0.6822 -0.9678  0.4265
 6141SOL    HW236034   8.966   9.254   6.169  1.7721 -0.4954 -1.2103
 6142SOL     OW36035   1.563   1.171   2.631  0.3690  0.5957  0.2721
 6142SOL    HW136036   1.482   1.209   2.597 -0.2348 -1.4422 -0.6965
 6142SOL    HW236037   1.539   1.082   2.657  2.7586 -0.9913 -2.3991
 6143SOL     OW36038   4.656   1.913  11.402 -0.6279 -0.0591 -0.2053
 6143SOL    HW136039   4.704   1.925  11.484  0.9408 -0.5224 -1.0296
 6143SOL    HW236040   4.589   1.981  11.404  0.9586  1.5780  0.3431
 6144SOL     OW36041   4.530   0.289  12.223  0.8647 -0.0078  0.0590
 6144SOL    HW136042   4.465   0.296  12.154 -0.5439 -0.0257  1.3298
 6144SOL    HW236043   4.495   0.342  12.295  1.6624 -0.9659  1.2108
 6145SOL     OW36044   1.853   4.680  11.007  0.2242 -0.2051  0.0275
 6145SOL    HW136045   1.900   4.761  11.027  0.1757  0.3956 -2.0222
 6145SOL    HW236046   1.915   4.629  10.954  0.2513 -1.5384  1.2766
 6146SOL     OW36047  10.761  12.315   4.790 -0.4647 -0.2902  0.0037
 6146SOL    HW136048  10.825  12.368   4.743 -0.0660 -0.7132  0.0597
 6146SOL    HW236049  10.742  12.242   4.732 -1.6322  0.3285 -0.4201
 6147SOL     OW36050  13.068   3.245   1.470  0.5109 -0.3209 -0.1627
 6147SOL    HW136051  13.100   3.159   1.444  1.1858 -0.3648  0.7491
 6147SOL    HW236052  12.978   3.230   1.500 -0.8032 -0.0660 -3.5190
 6148SOL     OW36053   9.497   4.052   5.318  0.6043 -0.2279 -0.6000
 6148SOL    HW136054   9.576   4.106   5.325  0.5151 -0.0898 -0.6502
 6148SOL    HW236055   9.430   4.102   5.365  0.7951 -0.8353  0.3349
 6149SOL     OW36056   3.242   2.031   7.332  0.0078 -0.2267  0.1641
 6149SOL    HW136057   3.229   1.937   7.345 -1.1338 -0.8584 -4.0139
 6149SOL    HW236058   3.313   2.037   7.268 -1.3662  1.5724 -1.3059
 6150SOL     OW36059   9.939   3.242   1.764  0.3340  0.0593 -0.5211
 6150SOL    HW136060   9.844   3.237   1.756  0.2884 -0.5739  0.2956
 6150SOL    HW236061   9.970   3.157   1.730  0.5051 -0.3092  0.5308
 6151SOL     OW36062  10.928  11.536   1.927 -0.3400 -0.4594  0.3136
 6151SOL    HW136063  10.971  11.622   1.928 -1.2727  0.0718 -1.3940
 6151SOL    HW236064  10.843  11.552   1.967 -0.4043 -0.6687  0.2596
 6152SOL     OW36065   2.564   0.866  12.998 -0.1161  0.0482 -0.4457
 6152SOL    HW136066   2.549   0.802  13.068 -0.1034 -1.8184 -2.0332
 6152SOL    HW236067   2.510   0.835  12.926  2.4628 -0.1906 -2.4425
 6153SOL     OW36068  10.112   3.912   6.055  0.5510 -0.1324 -0.1607
 6153SOL    HW136069  10.148   3.989   6.100  0.6875 -0.2999  0.0204
 6153SOL    HW236070  10.060   3.948   5.984  0.2075  0.1442  0.2244
 6154SOL     OW36071   8.238  12.358  10.758  0.0549 -0.0037  0.3993
 6154SOL    HW136072   8.320  12.326  10.721  0.6302  2.3169 -0.5216
 6154SOL    HW236073   8.196  12.405  10.686 -0.8654  1.0139  1.5535
 6155SOL     OW36074  10.779   7.325   0.652 -0.1482  0.2688  0.6409
 6155SOL    HW136075  10.775   7.296   0.743 -3.3889 -0.9997  0.2186
 6155SOL    HW236076  10.742   7.413   0.653 -0.9315 -0.0542  0.4651
 6156SOL     OW36077   3.320   7.632  11.067  0.8820 -0.4790 -0.8117
 6156SOL    HW136078   3.270   7.608  10.988  2.6140  1.4905 -2.6324
 6156SOL    HW236079   3.411   7.633  11.038  1.5617  0.3995  1.2191
 6157SOL     OW36080   7.362   5.963  13.084  0.1446 -0.1742  0.2392
 6157SOL    HW136081   7.440   5.916  13.054 -2.1907 -2.7114 -2.3019
 6157SOL    HW236082   7.343   6.026  13.014  0.0569  0.7042  1.0242
 6158SOL     OW36083  11.216  12.633   4.412 -0.3231 -0.1976  0.0542
 6158SOL    HW136084  11.270  12.707   4.440  0.9467 -0.7942 -0.7489
 6158SOL    HW236085  11.139  12.674   4.372 -0.6783  0.6633  1.5191
 6159SOL     OW36086   7.056   1.726   4.647  0.2119 -0.6584 -0.1856
 6159SOL    HW136087   7.135   1.738   4.596  1.3697 -1.4567  1.3285
 6159SOL    HW236088   7.063   1.637   4.682 -1.4743 -0.8324 -0.1882
 6160SOL     OW36089  11.484   7.740   4.676  0.2767  0.0824 -0.0970
 6160SOL    HW136090  11.567   7.751   4.629  2.0611 -4.5319  1.4373
 6160SOL    HW236091  11.445   7.662   4.638 -1.9798  0.5180  1.1559
 6161SOL     OW36092  10.388   2.442   9.379  0.3381  0.1299  0.2267
 6161SOL    HW136093  10.395   2.436   9.474 -0.4013 -0.6516  0.2482
 6161SOL    HW236094  10.452   2.379   9.346 -0.1135 -0.3315  0.2295
 6162SOL     OW36095   5.957   8.551   5.073  0.0305 -0.2035 -0.0518
 6162SOL    HW136096   5.934   8.460   5.087  0.7050 -0.5104 -0.8491
 6162SOL    HW236097   5.893   8.583   5.010  0.0755 -0.2594 -0.1260
 6163SOL     OW36098   7.732   1.439   6.798  0.1931 -0.1704  0.1037
 6163SOL    HW136099   7.655   1.433   6.741  0.4554 -1.0160 -0.1790
 6163SOL    HW236100   7.718   1.370   6.863  1.6068 -1.6525 -1.0778
 6164SOL     OW36101   0.725   9.126   9.474 -0.4596 -0.4129 -0.5883
 6164SOL    HW136102   0.700   9.036   9.495  0.8557 -0.4392  1.0338
 6164SOL    HW236103   0.816   9.133   9.502  0.4170  0.6101 -3.3327
 6165SOL     OW36104  11.536   7.107   7.450  0.6710  0.3367  0.2798
 6165SOL    HW136105  11.554   7.106   7.355  1.5856  4.0744  0.2485
 6165SOL    HW236106  11.613   7.149   7.488 -0.1314 -0.1457  2.5745
 6166SOL     OW36107   3.256   6.024   8.957 -0.1073  0.3988 -0.2223
 6166SOL    HW136108   3.340   6.065   8.978  0.8481 -2.7449  2.9778
 6166SOL    HW236109   3.199   6.045   9.031 -0.7396 -1.0158 -0.2796
 6167SOL     OW36110   0.472   9.427  14.026 -0.0547  0.2057 -0.0468
 6167SOL    HW136111   0.517   9.382  13.954 -1.9225 -0.8727 -0.6047
 6167SOL    HW236112   0.537   9.489  14.060  1.6239 -0.8556 -1.1790
 6168SOL     OW36113   6.010  12.942   5.416  0.3010 -0.3451 -0.5115
 6168SOL    HW136114   5.918  12.958   5.438  0.6675  0.7508  0.3398
 6168SOL    HW236115   6.057  13.014   5.459  1.5709 -0.9695 -0.8227
 6169SOL     OW36116   8.013   2.678   1.403  0.0812  0.0839  0.5882
 6169SOL    HW136117   8.037   2.654   1.313  0.1334 -0.7515  0.8107
 6169SOL    HW236118   7.927   2.719   1.395 -0.4345 -1.0106  0.2606
 6170SOL     OW36119   7.098   3.016  12.402  0.1507 -0.1546  0.7135
 6170SOL    HW136120   7.027   3.006  12.339  0.9976  1.1192 -0.4882
 6170SOL    HW236121   7.134   3.103  12.385  1.5399 -0.4825  1.7817
 6171SOL     OW36122   6.060   7.031   2.972  0.1711 -0.3825 -0.5960
 6171SOL    HW136123   6.038   6.972   3.044 -1.9008 -0.5219 -1.3001
 6171SOL    HW236124   6.139   7.077   3.003  0.0317 -1.2870  1.2448
 6172SOL     OW36125   7.187  10.698   4.021  0.1327  0.1626 -0.6058
 6172SOL    HW136126   7.143  10.651   4.091 -0.8110  0.6790 -0.8347
 6172SOL    HW236127   7.250  10.636   3.985  0.8853 -0.0056  0.9167
 6173SOL     OW36128   7.556   3.013  11.318  0.0566  0.1938 -0.0168
 6173SOL    HW136129   7.628   3.063  11.356  0.5694 -1.1205  0.8185
 6173SOL    HW236130   7.478   3.043  11.365  0.4497 -0.2090  0.9131
 6174SOL     OW36131   6.836   3.612   3.414 -0.0932 -0.2158  0.4310
 6174SOL    HW136132   6.882   3.610   3.330  0.5400 -0.2259  0.7668
 6174SOL    HW236133   6.884   3.550   3.469 -0.0705  0.3072  1.0153
 6175SOL     OW36134   5.691   6.297   4.062  0.0312 -0.0637 -0.6099
 6175SOL    HW136135   5.661   6.301   4.152  0.8300 -1.0363 -0.2792
 6175SOL    HW236136   5.661   6.379   4.022 -1.9162 -0.4264  0.0151
 6176SOL     OW36137  13.984  11.540  14.012  0.0251  0.1172 -0.2420
 6176SOL    HW136138  14.014  11.605  13.948 -0.0862 -1.3358 -1.8518
 6176SOL    HW236139  14.031  11.460  13.989 -1.3376 -0.9022  0.3542
 6177SOL     OW36140   7.349   2.302  12.627  0.3616  0.0870 -0.1204
 6177SOL    HW136141   7.295   2.318  12.550 -1.3597 -1.0749  0.7586
 6177SOL    HW236142   7.381   2.213  12.616  0.0437 -0.1162  0.5072
 6178SOL     OW36143  12.669   2.474  10.515  0.1503  0.5151 -0.3481
 6178SOL    HW136144  12.650   2.548  10.458 -0.2355  0.2742 -0.5376
 6178SOL    HW236145  12.709   2.409  10.457 -1.6158 -0.3331 -0.7009
 6179SOL     OW36146   0.521   1.253   6.466  0.0081  0.3996 -0.1353
 6179SOL    HW136147   0.478   1.174   6.434  2.0304 -0.3753 -1.1257
 6179SOL    HW236148   0.464   1.325   6.436 -0.8140 -0.5807 -0.9845
 6180SOL     OW36149   5.258   4.889  13.565 -0.2148  0.3560 -0.3037
 6180SOL    HW136150   5.179   4.877  13.618  0.5929 -1.2441  0.6416
 6180SOL    HW236151   5.238   4.962  13.507 -2.2941  0.1467  0.0747
 6181SOL     OW36152  11.772  11.633   9.270  0.0253  0.2206 -0.1394
 6181SOL    HW136153  11.775  11.574   9.194 -0.9520  1.3009 -1.0609
 6181SOL    HW236154  11.864  11.648   9.293  0.3018 -1.3821 -0.0789
 6182SOL     OW36155   5.763   3.297   6.919  0.1803 -0.0648 -0.5536
 6182SOL    HW136156   5.727   3.208   6.917  0.6023 -0.2495 -3.1704
 6182SOL    HW236157   5.689   3.353   6.896 -0.4993  0.5354  2.6318
 6183SOL     OW36158  12.237   1.372  13.529 -0.5879  0.5538 -0.7555
 6183SOL    HW136159  12.252   1.343  13.440  0.2098  0.0205 -0.4535
 6183SOL    HW236160  12.151   1.336  13.553 -1.0875  1.2150 -1.5029
 6184SOL     OW36161   9.910   2.819   9.789 -0.2326  0.4440 -0.3028
 6184SOL    HW136162   9.933   2.749   9.728 -2.0563  0.4652 -1.0882
 6184SOL    HW236163   9.926   2.899   9.740  0.9625  0.5822  0.2702
 6185SOL     OW36164  13.481  13.588  10.749 -0.4216  0.6316 -0.1341
 6185SOL    HW136165  13.443  13.504  10.773 -1.1164  1.1335  0.5764
 6185SOL    HW236166  13.571  13.583  10.782 -0.3129  0.0076 -0.5012
 6186SOL     OW36167  11.018  11.958  12.899 -0.0425 -0.5055 -0.8776
 6186SOL    HW136168  10.982  11.918  12.820  1.0965  0.7837 -2.0945
 6186SOL    HW236169  10.943  12.001  12.940 -0.4177 -0.1753 -1.8870
 6187SOL     OW36170   2.721   1.259   6.262  0.1466 -0.5555  0.2751
 6187SOL    HW136171   2.641   1.220   6.225  0.0784 -1.1061  0.9676
 6187SOL    HW236172   2.689   1.316   6.332  0.3729 -1.0485  0.7878
 6188SOL     OW36173   3.204  12.628  12.624  0.2704  0.1509  0.4455
 6188SOL    HW136174   3.167  12.542  12.604  2.7940 -0.7855 -0.7464
 6188SOL    HW236175   3.165  12.687  12.559 -0.9193 -0.2277  0.7919
 6189SOL     OW36176  11.604   3.114   3.053 -0.8405  0.2683 -0.5709
 6189SOL    HW136177  11.662   3.143   2.983 -0.2087 -1.9649 -1.0767
 6189SOL    HW236178  11.555   3.192   3.078  0.6858  1.6868 -1.7789
 6190SOL     OW36179   6.208   5.334   5.797 -0.2673  0.2641  0.3341
 6190SOL    HW136180   6.296   5.366   5.818  0.7409 -1.3441 -1.1451
 6190SOL    HW236181   6.210   5.317   5.703 -1.6862 -1.1581  0.5059
 6191SOL     OW36182   0.147   8.776   3.847 -0.2270  0.4848  0.1874
 6191SOL    HW136183   0.064   8.763   3.893 -1.0261  1.9669 -0.7584
 6191SOL    HW236184   0.144   8.868   3.819  1.7554  0.5771  0.1735
 6192SOL     OW36185   6.775   0.296   4.530 -0.4174  0.3402 -0.3524
 6192SOL    HW136186   6.849   0.292   4.591 -1.4555 -0.3309  0.9030
 6192SOL    HW236187   6.741   0.385   4.540 -2.7615 -0.7109  2.8385
 6193SOL     OW36188  14.008  10.536   1.620  0.2438  0.4488 -0.0065
 6193SOL    HW136189  13.941  10.599   1.648 -1.3277 -1.3260  0.4463
 6193SOL    HW236190  14.074  10.539   1.689  0.3769  1.8261 -0.1670
 6194SOL     OW36191   8.266   2.156   3.585  0.0125 -0.2641  0.3860
 6194SOL    HW136192   8.280   2.210   3.507 -0.1819  0.4590  0.8465
 6194SOL    HW236193   8.354   2.140   3.619  0.0105  0.7867  0.9261
 6195SOL     OW36194   9.988   3.867   8.251 -0.0508  0.1548  0.1784
 6195SOL    HW136195   9.989   3.915   8.168  4.7253  0.2185  0.0231
 6195SOL    HW236196  10.041   3.920   8.310  0.5021 -2.0810  1.8202
 6196SOL     OW36197   4.033   6.059   2.536 -0.3808  0.2220  0.6715
 6196SOL    HW136198   3.987   6.115   2.598  0.4971  0.0654  1.4968
 6196SOL    HW236199   4.125   6.066   2.561 -0.0450 -0.1559 -0.3724
 6197SOL     OW36200  10.917   1.807   7.628 -0.8207  0.2966  0.0938
 6197SOL    HW136201  10.891   1.895   7.655 -0.4182  1.0758 -1.9056
 6197SOL    HW236202  10.967   1.774   7.703 -1.0294  1.7432  0.9205
 6198SOL     OW36203   8.036   2.051   4.810  0.2928  0.0999 -0.0315
 6198SOL    HW136204   8.016   2.027   4.720 -0.4112  1.6169 -0.3189
 6198SOL    HW236205   7.958   2.027   4.859  0.5488 -0.4229  0.1289
 6199SOL     OW36206  12.074   8.574   1.607  0.1488  0.3380 -0.2951
 6199SOL    HW136207  12.067   8.543   1.698  0.6040  1.3598  0.1032
 6199SOL    HW236208  12.153   8.628   1.607  0.5604 -0.2358 -1.4849
 6200SOL     OW36209  11.990   6.122   3.678  0.0681 -0.2489 -0.0100
 6200SOL    HW136210  12.040   6.196   3.711  1.2519 -0.5363 -1.0753
 6200SOL    HW236211  12.025   6.046   3.725 -0.9038 -0.2134  0.8261
 6201SOL     OW36212   6.772   7.517  13.624  0.1745  0.3025  0.5082
 6201SOL    HW136213   6.774   7.431  13.667  1.5601 -0.9641 -1.8651
 6201SOL    HW236214   6.708   7.506  13.553  0.0285  1.4040  0.4582
 6202SOL     OW36215   4.626   7.032   0.714  0.2283  0.0002  0.0520
 6202SOL    HW136216   4.606   7.125   0.725  0.5539  0.1324 -0.4635
 6202SOL    HW236217   4.634   7.020   0.619 -1.7578 -0.9627 -0.0439
 6203SOL     OW36218   2.432   8.104  13.947  0.1175  0.3457 -0.0695
 6203SOL    HW136219   2.525   8.129  13.951 -0.2680  1.7581  2.8685
 6203SOL    HW236220   2.385   8.186  13.933 -0.7700  0.0391  0.9648
 6204SOL     OW36221  14.055   3.608   7.288  0.0775 -0.3875 -0.3992
 6204SOL    HW136222  13.963   3.611   7.312  0.8674  6.0420  4.6306
 6204SOL    HW236223  14.061   3.662   7.208 -0.4987  0.2787 -0.0017
 6205SOL     OW36224  11.741   2.265   2.086 -0.0110  0.0401 -0.1517
 6205SOL    HW136225  11.702   2.232   2.005 -2.9417  0.5144  0.9605
 6205SOL    HW236226  11.829   2.292   2.060  0.4335 -2.9760 -2.3939
 6206SOL     OW36227   0.003   6.560   1.332 -0.6761  0.0422 -0.5620
 6206SOL    HW136228  -0.082   6.564   1.288 -1.5626 -1.3863  0.9050
 6206SOL    HW236229  -0.015   6.512   1.413  1.3361  0.6317  0.2758
 6207SOL     OW36230   2.653  13.685  10.060 -0.0783  0.3010  0.5534
 6207SOL    HW136231   2.583  13.670  10.124  0.6852 -0.5738  1.2094
 6207SOL    HW236232   2.715  13.742  10.104  1.2551 -1.5808  1.2635
 6208SOL     OW36233   5.326   0.011   1.143  0.4344 -0.8772  0.3053
 6208SOL    HW136234   5.350   0.103   1.154 -2.1173 -0.1959  0.8394
 6208SOL    HW236235   5.385  -0.022   1.075  0.7656  1.4125 -0.5937
 6209SOL     OW36236  13.527   7.871   6.731  0.5068 -0.1041  0.0777
 6209SOL    HW136237  13.511   7.829   6.646  1.5425  1.3146 -0.8665
 6209SOL    HW236238  13.603   7.827   6.767  1.8748  1.1734 -1.1204
 6210SOL     OW36239   2.417   0.188  14.073  0.3520 -0.5080 -0.0272
 6210SOL    HW136240   2.509   0.188  14.049  0.3236 -0.5070 -0.1356
 6210SOL    HW236241   2.417   0.211  14.166  0.4694 -0.6342  0.0050
 6211SOL     OW36242   6.339   9.759  13.934  0.3314 -0.6489  0.3006
 6211SOL    HW136243   6.318   9.772  13.842 -0.9494 -1.3772  0.4706
 6211SOL    HW236244   6.320   9.667  13.951 -1.1688 -0.1192  1.7043
 6212SOL     OW36245   8.647   2.509   6.194  0.1204 -0.1423  0.1704
 6212SOL    HW136246   8.714   2.530   6.129  1.0517  0.3582  1.2638
 6212SOL    HW236247   8.604   2.592   6.212  1.0150  0.0628  1.4398
 6213SOL     OW36248   2.957   9.628  13.658  0.2094  0.9370 -0.2801
 6213SOL    HW136249   2.898   9.555  13.638  2.1266 -0.7903 -0.0185
 6213SOL    HW236250   2.995   9.652  13.574  2.2570 -0.8877  0.0313
 6214SOL     OW36251  13.045   4.608   1.739 -0.2138  0.4278  0.0836
 6214SOL    HW136252  13.011   4.560   1.815  1.0708  0.8999  0.9852
 6214SOL    HW236253  13.010   4.560   1.663 -1.2937 -0.2189  0.9538
 6215SOL     OW36254   8.686  11.089   6.870 -0.2075 -0.4382  0.1980
 6215SOL    HW136255   8.676  11.181   6.845  2.9434  0.9429  3.1385
 6215SOL    HW236256   8.596  11.055   6.872 -1.5553  2.6988 -0.4975
 6216SOL     OW36257   7.690   1.335   6.497 -0.2596  0.0024 -0.8874
 6216SOL    HW136258   7.635   1.386   6.556  1.9283  0.5611  0.8016
 6216SOL    HW236259   7.698   1.389   6.418  2.1749  2.5624  0.9331
 6217SOL     OW36260   8.644   2.393   2.751  0.6552 -0.6242  0.2467
 6217SOL    HW136261   8.720   2.343   2.782  1.0191  0.9797  2.1169
 6217SOL    HW236262   8.681   2.453   2.686  0.7987 -0.5290  0.4164
 6218SOL     OW36263   0.313  11.015   7.103  0.2089 -0.5557  0.2323
 6218SOL    HW136264   0.256  10.965   7.161 -0.6683  1.0096  0.7685
 6218SOL    HW236265   0.307  10.971   7.019  0.1949 -1.8769  0.9022
 6219SOL     OW36266   6.650  12.052  11.695  0.0699 -0.6160 -0.5421
 6219SOL    HW136267   6.629  12.022  11.607  1.3914 -0.8620 -0.7935
 6219SOL    HW236268   6.743  12.076  11.691 -0.5611  2.2743 -0.0034
 6220SOL     OW36269  10.569  12.339  12.480  0.3914 -0.1752  0.5652
 6220SOL    HW136270  10.508  12.294  12.540 -1.5668  0.8349 -0.5638
 6220SOL    HW236271  10.621  12.396  12.537  1.0880 -1.8655  1.6947
 6221SOL     OW36272  11.903  11.140  13.314 -0.0933  0.6219  0.1653
 6221SOL    HW136273  11.836  11.077  13.290  0.8713 -1.0710  1.6197
 6221SOL    HW236274  11.981  11.112  13.266 -0.2446  2.2956 -1.1619
 6222SOL     OW36275   1.906  13.364  10.364  0.1854 -0.2089  0.5909
 6222SOL    HW136276   1.887  13.393  10.275 -0.6660  1.7869  1.3504
 6222SOL    HW236277   1.834  13.399  10.417  0.9890 -0.7978  2.1585
 6223SOL     OW36278   9.962  11.788   3.958 -0.0180 -0.1583  0.4519
 6223SOL    HW136279   9.888  11.838   3.992 -2.4617 -3.2051  0.0224
 6223SOL    HW236280   9.991  11.837   3.882 -2.6575  0.3900 -0.3097
 6224SOL     OW36281   8.732   2.739   1.221 -0.9715  0.7526  0.2571
 6224SOL    HW136282   8.678   2.804   1.176 -2.0708  0.7456  1.4900
 6224SOL    HW236283   8.669   2.685   1.268  0.0822  0.2442  1.1253
 6225SOL     OW36284  11.817   5.698  13.925 -0.2920 -0.0844  0.0390
 6225SOL    HW136285  11.816   5.695  13.829 -1.3044 -0.8295  0.0652
 6225SOL    HW236286  11.872   5.774  13.945 -1.0430  0.8046 -1.1462
 6226SOL     OW36287   5.791   2.325   7.669 -1.0651  0.1732  0.3483
 6226SOL    HW136288   5.826   2.236   7.664  0.5220  0.7729  0.2630
 6226SOL    HW236289   5.848   2.370   7.730  0.1461  1.9781 -1.9389
 6227SOL     OW36290  11.295   6.370   3.983 -0.2363  0.2165 -0.0552
 6227SOL    HW136291  11.207   6.343   3.956 -0.3967 -0.2020  0.8386
 6227SOL    HW236292  11.353   6.304   3.948 -0.5227 -0.7665  1.2343
 6228SOL     OW36293  11.500  13.119   2.526 -0.2062  0.0360  0.0428
 6228SOL    HW136294  11.521  13.193   2.469  1.0641  0.1328  0.5864
 6228SOL    HW236295  11.406  13.123   2.537 -0.2749  0.9822 -0.7370
 6229SOL     OW36296   4.698   6.326   2.522 -0.2259  0.3057  0.1353
 6229SOL    HW136297   4.713   6.417   2.496 -0.9410  0.1285 -0.9932
 6229SOL    HW236298   4.721   6.275   2.445  0.0017 -0.4690  0.7034
 6230SOL     OW36299   2.052   2.330  13.292  0.3302 -0.2044 -0.2888
 6230SOL    HW136300   2.101   2.313  13.212 -1.0815 -1.8172 -0.8642
 6230SOL    HW236301   2.012   2.246  13.314  0.4690  0.2474  1.9922
 6231SOL     OW36302   3.090  11.250   5.998 -0.3715  0.0346 -0.3938
 6231SOL    HW136303   3.006  11.218   5.965 -0.8218  0.4052  0.3728
 6231SOL    HW236304   3.155  11.204   5.944 -0.9779 -2.1964  0.6497
 6232SOL     OW36305  10.342  11.465   5.209  0.2492  0.4471 -0.3519
 6232SOL    HW136306  10.269  11.510   5.252  0.8842  0.6613  0.5237
 6232SOL    HW236307  10.299  11.404   5.149 -0.6750  0.1501  0.5661
 6233SOL     OW36308  13.156   0.375   7.144 -0.1469 -0.2659  0.3362
 6233SOL    HW136309  13.132   0.284   7.161 -0.8986  0.1784  1.8734
 6233SOL    HW236310  13.108   0.425   7.210  0.1314  1.2671 -0.5718
 6234SOL     OW36311   2.824   6.734   0.792 -0.3196  0.4168 -0.0414
 6234SOL    HW136312   2.909   6.693   0.778 -1.1400 -1.0070 -1.1419
 6234SOL    HW236313   2.833   6.822   0.756  0.5621  0.1384 -0.5199
 6235SOL     OW36314   8.776   6.304   0.012 -0.3853  0.2786  0.5582
 6235SOL    HW136315   8.734   6.335  -0.067  0.5450 -0.5744 -0.2977
 6235SOL    HW236316   8.869   6.323  -0.002 -0.1107 -0.6476  1.0781
 6236SOL     OW36317   1.049   5.944   0.120  0.1685 -0.2937  0.4903
 6236SOL    HW136318   1.042   6.039   0.110  0.3176 -0.4025 -0.6726
 6236SOL    HW236319   1.013   5.927   0.207 -0.4035  0.7616  0.4719
 6237SOL     OW36320   6.339   6.048   5.731 -0.3958  0.2580 -0.2480
 6237SOL    HW136321   6.346   6.038   5.636  0.2058  0.5572 -0.2444
 6237SOL    HW236322   6.252   6.016   5.752 -0.4320 -0.0827 -0.8667
 6238SOL     OW36323   9.944   8.808   3.951  0.4009 -0.2572  0.1292
 6238SOL    HW136324  10.011   8.768   4.007  1.0993  0.4363 -0.1896
 6238SOL    HW236325   9.945   8.756   3.871  1.2373  0.3117 -0.2461
 6239SOL     OW36326  13.673  13.167   8.493  0.1615 -0.2685  0.4486
 6239SOL    HW136327  13.719  13.089   8.523 -0.5817 -0.0483  2.2896
 6239SOL    HW236328  13.600  13.178   8.554 -0.1982  1.4469 -0.2057
 6240SOL     OW36329   1.538   8.309  13.523  0.4356 -0.4265  0.1578
 6240SOL    HW136330   1.565   8.339  13.609  0.5091 -0.5314  0.1717
 6240SOL    HW236331   1.613   8.328  13.466  0.8271 -1.3627  0.3327
 6241SOL     OW36332   7.443   9.936   0.170 -0.2579 -0.1453  0.5636
 6241SOL    HW136333   7.463   9.850   0.134 -0.6855  0.6852 -1.8360
 6241SOL    HW236334   7.363   9.963   0.126  0.6461  2.0785  0.1438
 6242SOL     OW36335   8.745   5.985   6.580  0.2141 -0.1409 -0.3332
 6242SOL    HW136336   8.755   5.983   6.485 -2.5299  0.0651 -0.6912
 6242SOL    HW236337   8.673   6.045   6.596 -0.2867 -1.2015  1.7846
 6243SOL     OW36338  13.859   0.461   5.212 -0.0253 -0.5568  0.1508
 6243SOL    HW136339  13.945   0.438   5.249  1.1935  2.1258 -0.7531
 6243SOL    HW236340  13.837   0.387   5.156  1.7938 -1.2553  0.2754
 6244SOL     OW36341  10.275   6.828  12.595  0.0303  0.3075  0.4502
 6244SOL    HW136342  10.309   6.773  12.524  2.1612  1.8861  0.1700
 6244SOL    HW236343  10.225   6.896  12.549  1.8919  1.6692  0.3304
 6245SOL     OW36344   2.938   6.577   6.649 -0.1272 -0.4486  0.3238
 6245SOL    HW136345   2.965   6.542   6.564  1.0387  0.6537  0.2013
 6245SOL    HW236346   2.919   6.670   6.632  1.6353  0.1977  1.4913
 6246SOL     OW36347   0.136   4.301   6.062 -0.3747 -0.1633 -0.6629
 6246SOL    HW136348   0.081   4.266   5.992 -2.0570  0.5821  0.2230
 6246SOL    HW236349   0.081   4.296   6.141  0.8316  0.6017  0.2718
 6247SOL     OW36350   1.785   0.670  10.671 -0.8051 -0.0727  0.5124
 6247SOL    HW136351   1.814   0.749  10.717 -0.3366  0.2162 -0.2693
 6247SOL    HW236352   1.808   0.685  10.580 -3.9019  0.3959 -0.3020
 6248SOL     OW36353   3.145  11.835   9.944  0.6853 -0.4926  0.3537
 6248SOL    HW136354   3.080  11.777   9.903 -0.2298  0.3386  0.6094
 6248SOL    HW236355   3.145  11.810  10.036 -1.1565  1.1781  0.8690
 6249SOL     OW36356  13.893  12.588   9.401  0.0121  0.4895 -0.2028
 6249SOL    HW136357  13.866  12.566   9.490  2.8217 -1.1126  0.3873
 6249SOL    HW236358  13.834  12.538   9.345  0.9487 -2.0607  0.9462
 6250SOL     OW36359   3.673   0.366  13.667 -0.4800 -0.0032  0.8669
 6250SOL    HW136360   3.736   0.377  13.738  1.4626 -0.6006 -0.6656
 6250SOL    HW236361   3.664   0.271  13.657  0.6866  0.0235 -0.8046
 6251SOL     OW36362  13.160   7.847  10.765 -0.4247  0.0308 -0.4385
 6251SOL    HW136363  13.070   7.865  10.792 -0.3943 -1.0583  0.4539
 6251SOL    HW236364  13.199   7.933  10.750 -1.5097  0.5228 -0.4968
 6252SOL     OW36365   4.199   4.187   5.986  0.1291 -0.0916  0.0167
 6252SOL    HW136366   4.258   4.209   5.915  0.9704  0.4080  0.8391
 6252SOL    HW236367   4.237   4.230   6.063 -0.4892 -0.9940  0.8581
 6253SOL     OW36368   8.134   0.187  11.307  0.6429  0.2011  0.2344
 6253SOL    HW136369   8.057   0.188  11.251  0.3101 -0.1431  0.6846
 6253SOL    HW236370   8.129   0.269  11.357  0.4921  0.1121  0.3661
 6254SOL     OW36371  10.372   0.574   0.790 -0.5493  0.3191 -0.0209
 6254SOL    HW136372  10.299   0.529   0.747 -0.9013  0.6595  0.2153
 6254SOL    HW236373  10.392   0.648   0.733 -0.1601  0.0332 -0.2612
 6255SOL     OW36374  11.521   8.869   9.858 -0.0128  0.5218  0.0938
 6255SOL    HW136375  11.482   8.823   9.784  0.6108 -1.9592  1.2074
 6255SOL    HW236376  11.449   8.919   9.896 -1.5548 -1.9130  0.5859
 6256SOL     OW36377   2.814   6.407  12.538  0.2568  0.1306  0.2347
 6256SOL    HW136378   2.808   6.340  12.607 -1.2274  1.5113  1.5439
 6256SOL    HW236379   2.726   6.445  12.534  0.1200 -0.2881 -2.9174
 6257SOL     OW36380   0.621   3.843  13.025 -0.1030 -0.2671  0.0083
 6257SOL    HW136381   0.628   3.919  13.083  1.2071  0.1559 -0.6621
 6257SOL    HW236382   0.580   3.877  12.945  1.7115  0.0770 -0.8136
 6258SOL     OW36383   6.856  13.956   4.842 -0.0082 -0.3569  0.1891
 6258SOL    HW136384   6.919  14.023   4.868  0.1265 -0.5539  0.3787
 6258SOL    HW236385   6.885  13.928   4.755 -0.3273  0.1446 -0.0775
 6259SOL     OW36386   1.386   9.865   3.357 -0.0540 -0.2629 -0.2357
 6259SOL    HW136387   1.438   9.793   3.321 -0.4129  0.3865 -2.1431
 6259SOL    HW236388   1.338   9.900   3.282 -0.5644  1.4046  0.8274
 6260SOL     OW36389   2.084   7.500   1.252 -0.3589 -0.0041 -0.7518
 6260SOL    HW136390   2.145   7.518   1.324 -1.2186  3.7618 -0.7537
 6260SOL    HW236391   2.111   7.415   1.219  2.3881 -0.2654  1.6982
 6261SOL     OW36392  11.377   4.922   6.171  0.3057  0.1798  0.1756
 6261SOL    HW136393  11.466   4.889   6.185 -0.1869 -0.8864  0.9814
 6261SOL    HW236394  11.365   4.919   6.076  0.9883 -0.0430  0.0889
 6262SOL     OW36395  10.620  13.274   8.272  0.0869 -0.1571 -0.3854
 6262SOL    HW136396  10.547  13.280   8.210  0.9808  1.4184 -1.3578
 6262SOL    HW236397  10.677  13.205   8.236  0.9061  1.1582 -1.7348
 6263SOL     OW36398  12.630   9.153  10.594  0.6318  0.2739 -0.3579
 6263SOL    HW136399  12.574   9.127  10.667 -0.3761 -0.5943 -1.4127
 6263SOL    HW236400  12.719   9.147  10.629  0.1310  0.9598  1.1209
 6264SOL     OW36401  11.046   4.720  13.747 -0.2166 -0.0951  0.2899
 6264SOL    HW136402  10.953   4.739  13.758  0.0357  1.9801 -0.5995
 6264SOL    HW236403  11.049   4.657  13.675 -0.9640 -0.8653  0.9200
 6265SOL     OW36404  11.080   5.598   5.790  0.0332  0.0091  0.1674
 6265SOL    HW136405  11.014   5.532   5.767  0.3545  0.1258 -1.1602
 6265SOL    HW236406  11.116   5.567   5.874 -1.2562 -0.3797  0.6043
 6266SOL     OW36407   5.387   0.142   4.414 -0.1236 -0.5641  0.1197
 6266SOL    HW136408   5.302   0.130   4.457  0.5214  0.3029  1.7130
 6266SOL    HW236409   5.411   0.054   4.385 -1.0272 -1.0174  0.6768
 6267SOL     OW36410   4.439   1.267  11.620 -0.7593 -0.5105 -0.1071
 6267SOL    HW136411   4.430   1.235  11.530 -1.4581  1.3064 -0.7222
 6267SOL    HW236412   4.534   1.275  11.633 -0.6729  0.4595 -1.1671
 6268SOL     OW36413   9.739   3.752   5.186  0.4686  0.1215  0.0426
 6268SOL    HW136414   9.653   3.782   5.216  0.6244 -0.1278  0.7573
 6268SOL    HW236415   9.720   3.692   5.115  0.0743  0.4308 -0.1179
 6269SOL     OW36416   2.721  10.436   9.418  0.0185  0.0838  0.8727
 6269SOL    HW136417   2.794  10.383   9.450 -1.3187 -2.8223 -0.4625
 6269SOL    HW236418   2.763  10.506   9.368  1.8942 -0.1438  2.0087
 6270SOL     OW36419   1.207   5.917   8.504 -0.5579  0.1777 -0.1988
 6270SOL    HW136420   1.219   6.006   8.471 -0.7972  1.4513  2.8069
 6270SOL    HW236421   1.145   5.927   8.577  1.4315 -1.9918  1.9639
 6271SOL     OW36422   0.353  10.053   1.587 -0.5056 -0.3969  0.3270
 6271SOL    HW136423   0.442  10.088   1.586 -0.6421 -0.0368 -0.4510
 6271SOL    HW236424   0.300  10.121   1.628 -0.5205 -0.3389  0.2130
 6272SOL     OW36425  10.988   6.465   3.447 -0.1416  0.2252  0.7755
 6272SOL    HW136426  11.042   6.456   3.526  0.6284 -2.8464  0.0415
 6272SOL    HW236427  10.992   6.379   3.406 -3.4017  0.6767 -0.8080
 6273SOL     OW36428   9.777   8.088   4.610  0.5621 -0.1494  0.5312
 6273SOL    HW136429   9.862   8.044   4.617  0.8379  0.4612  1.1641
 6273SOL    HW236430   9.755   8.082   4.517  0.3741 -1.9866  0.6524
 6274SOL     OW36431  12.072  11.770   4.658 -0.2806 -0.2138 -0.3352
 6274SOL    HW136432  12.154  11.815   4.636 -1.0097  0.5922 -1.5114
 6274SOL    HW236433  12.057  11.791   4.751  0.6246 -0.0249 -0.2271
 6275SOL     OW36434   6.388  12.619  11.501  0.7063 -0.3260  0.2452
 6275SOL    HW136435   6.404  12.531  11.535  0.0684 -0.6207 -0.2070
 6275SOL    HW236436   6.308  12.647  11.545  2.1642  0.9989  2.2307
 6276SOL     OW36437  11.761  13.882   2.736 -0.2083  0.4836  0.1572
 6276SOL    HW136438  11.667  13.865   2.746 -0.0796  0.1986  0.8894
 6276SOL    HW236439  11.790  13.913   2.822  0.2484  1.1793 -0.2364
 6277SOL     OW36440  13.098  12.896   4.935 -0.2728 -0.2989  0.7629
 6277SOL    HW136441  13.095  12.992   4.937 -0.5745 -0.3200  1.5429
 6277SOL    HW236442  13.063  12.869   5.019  0.4804 -1.0842  0.8380
 6278SOL     OW36443   9.680   9.091  12.762 -0.3599  0.3901  0.7345
 6278SOL    HW136444   9.658   9.094  12.669 -1.1033  0.3740  0.8998
 6278SOL    HW236445   9.774   9.108  12.765 -0.6820  2.6545  0.1303
 6279SOL     OW36446   5.512   6.007  12.506  0.0030 -0.1558  0.2130
 6279SOL    HW136447   5.442   6.072  12.514  0.6321  0.7540 -1.2098
 6279SOL    HW236448   5.472   5.932  12.464 -0.0115  0.6082 -1.1979
 6280SOL     OW36449   4.758  10.631  12.974  0.3865 -0.3036  0.6586
 6280SOL    HW136450   4.678  10.582  12.990  0.2699 -0.1027  0.7034
 6280SOL    HW236451   4.731  10.723  12.980  0.6897 -0.2330  1.0504
 6281SOL     OW36452   5.184   5.402  11.213  0.2727 -0.0150 -0.1245
 6281SOL    HW136453   5.101   5.426  11.253  0.6718 -1.0912  1.4436
 6281SOL    HW236454   5.214   5.482  11.169 -1.0347  0.7110  0.2599
 6282SOL     OW36455   8.632   2.907  13.852  0.4097  0.8832  0.4658
 6282SOL    HW136456   8.578   2.949  13.919  1.0138  2.5101 -0.0257
 6282SOL    HW236457   8.570   2.861  13.796 -0.2238  0.7178  1.2872
 6283SOL     OW36458   7.625  11.550  10.451  0.0898 -0.2474 -0.7924
 6283SOL    HW136459   7.690  11.620  10.452 -0.4458  0.2582 -0.9091
 6283SOL    HW236460   7.549  11.588  10.407 -0.8376 -0.3355  0.6627
 6284SOL     OW36461   7.298   6.659  10.769 -0.3889 -0.4072 -0.3258
 6284SOL    HW136462   7.221   6.611  10.798 -0.6359 -1.5994 -2.7317
 6284SOL    HW236463   7.265   6.745  10.744 -0.8873 -0.7574 -0.9011
 6285SOL     OW36464  11.709   7.617   0.766 -0.5191  0.9790  0.2868
 6285SOL    HW136465  11.680   7.669   0.841 -0.7676 -0.8087  1.4651
 6285SOL    HW236466  11.758   7.544   0.804  0.8045  0.9286 -1.3862
 6286SOL     OW36467   4.240   3.612   9.787 -0.0149  0.3276 -0.3927
 6286SOL    HW136468   4.228   3.559   9.708 -1.8814 -1.1383  0.8015
 6286SOL    HW236469   4.168   3.675   9.785 -1.1390 -0.8550  0.9586
 6287SOL     OW36470   6.963   3.666   7.514 -0.4525 -0.3867  0.3428
 6287SOL    HW136471   7.030   3.646   7.580 -1.3933 -1.8815  0.9045
 6287SOL    HW236472   6.953   3.584   7.465 -2.0174 -0.2620  0.4167
 6288SOL     OW36473   5.019  13.564   6.603  0.1479 -0.2969 -0.8095
 6288SOL    HW136474   5.101  13.569   6.555  0.3239  2.4363 -0.3778
 6288SOL    HW236475   5.041  13.523   6.686  0.5461 -1.7991 -1.6284
 6289SOL     OW36476   1.628   3.665   7.623 -0.3048  0.2703 -0.1087
 6289SOL    HW136477   1.658   3.574   7.626 -0.9408  0.0712  0.3966
 6289SOL    HW236478   1.671   3.707   7.697  0.0562  0.4031 -0.3929
 6290SOL     OW36479   2.500   3.128   3.359  0.0652 -0.7591 -0.1236
 6290SOL    HW136480   2.418   3.100   3.399  0.1623 -0.6872  0.1321
 6290SOL    HW236481   2.535   3.193   3.420  0.2231 -0.6573 -0.3205
 6291SOL     OW36482   6.346  11.336   5.357  0.2628  0.1680 -0.0917
 6291SOL    HW136483   6.281  11.272   5.387 -0.4099 -0.9777 -3.4946
 6291SOL    HW236484   6.407  11.284   5.304  0.6817  2.0445 -1.5617
 6292SOL     OW36485  13.268   0.146   2.167  0.5733  0.5264 -0.3926
 6292SOL    HW136486  13.321   0.148   2.247  0.8670 -1.0688 -0.5049
 6292SOL    HW236487  13.259   0.238   2.141  1.5344  0.9731  0.7739
 6293SOL     OW36488   5.607   2.661   6.001  0.3156 -0.2342 -0.2570
 6293SOL    HW136489   5.641   2.603   6.069 -1.8961 -0.9541  0.2827
 6293SOL    HW236490   5.518   2.631   5.985 -0.1786  1.7026 -1.4883
 6294SOL     OW36491  13.901   6.513  12.831 -0.6085 -0.3747 -0.0932
 6294SOL    HW136492  13.908   6.602  12.798 -0.3401 -0.8204 -1.2660
 6294SOL    HW236493  13.985   6.472  12.812 -0.3053 -0.5647  1.4694
 6295SOL     OW36494   4.926   1.924   1.888  0.4287 -0.2295  0.2748
 6295SOL    HW136495   4.915   1.890   1.799 -0.0685  0.6275 -0.0031
 6295SOL    HW236496   4.884   2.010   1.886  2.2898  0.7545  0.7475
 6296SOL     OW36497   4.175  12.313   0.998 -0.0230  0.0410  0.4286
 6296SOL    HW136498   4.239  12.310   0.927 -0.5679 -1.0541 -0.0412
 6296SOL    HW236499   4.135  12.227   0.998 -1.0414  0.4916  1.1519
 6297SOL     OW36500  11.633  10.181  11.420  0.1377 -0.0592 -0.1259
 6297SOL    HW136501  11.586  10.228  11.490  0.3354 -1.1143  0.7395
 6297SOL    HW236502  11.565  10.163  11.355 -0.1714  0.4388  0.0485
 6298SOL     OW36503   5.601  12.402   5.857 -0.8117  0.2501  0.0939
 6298SOL    HW136504   5.641  12.340   5.918  0.8489  1.4485  0.3022
 6298SOL    HW236505   5.575  12.476   5.912 -2.0851  0.0902 -0.2571
 6299SOL     OW36506  11.942  10.221   6.601 -0.1630 -0.2533  0.2547
 6299SOL    HW136507  12.031  10.200   6.628  0.0932 -0.1763 -0.5222
 6299SOL    HW236508  11.887  10.164   6.655  0.2464  0.8571  1.9143
 6300SOL     OW36509   8.706  10.765  14.015  0.3757  0.5235  0.5679
 6300SOL    HW136510   8.756  10.772  13.933  0.2587  0.1016  0.4594
 6300SOL    HW236511   8.737  10.684  14.055 -1.9295 -1.0996 -0.6722
 6301SOL     OW36512   4.832   2.582   6.051 -0.2941  0.1123 -0.5344
 6301SOL    HW136513   4.827   2.616   5.961 -0.5693  0.7288 -0.2918
 6301SOL    HW236514   4.838   2.487   6.040 -1.1031  0.1267 -1.1864
 6302SOL     OW36515   8.211  13.514   7.164 -0.6892  0.2388 -0.7480
 6302SOL    HW136516   8.211  13.490   7.256  0.1593  2.6845 -0.0352
 6302SOL    HW236517   8.235  13.433   7.118 -1.2022 -1.0392  1.1357
 6303SOL     OW36518   6.246   0.730   2.400 -0.4164  0.4655  0.2431
 6303SOL    HW136519   6.316   0.747   2.463 -1.3855  0.8841  1.2555
 6303SOL    HW236520   6.171   0.778   2.436 -1.0561  0.5248 -1.1322
 6304SOL     OW36521  14.008  11.870   5.738  0.0233 -0.0215 -0.2238
 6304SOL    HW136522  14.001  11.827   5.653 -0.1891 -0.9808  0.2668
 6304SOL    HW236523  13.968  11.808   5.800  0.5255  0.4854  0.6286
 6305SOL     OW36524   3.403   1.636  13.439 -0.1160 -0.1369 -0.0848
 6305SOL    HW136525   3.454   1.625  13.519 -0.1431  0.7114  0.0604
 6305SOL    HW236526   3.349   1.713  13.456 -2.4688 -1.7727  0.3023
 6306SOL     OW36527  12.980   4.158   0.617  0.2788 -0.5946 -0.5519
 6306SOL    HW136528  12.900   4.155   0.670  1.3384 -1.4979  1.0625
 6306SOL    HW236529  12.981   4.246   0.580 -0.1384  0.3524  1.5651
 6307SOL     OW36530  12.655   6.521   3.951  0.1272 -0.4391 -0.1370
 6307SOL    HW136531  12.662   6.599   3.895 -1.5712  0.3554  0.6595
 6307SOL    HW236532  12.725   6.463   3.921  0.5517  0.8046 -1.7022
 6308SOL     OW36533   4.761   9.073   2.127 -0.8872 -0.2950  0.2482
 6308SOL    HW136534   4.826   9.124   2.077 -0.4688 -1.2566 -0.2077
 6308SOL    HW236535   4.797   9.070   2.216  1.8433 -4.1520 -0.7618
 6309SOL     OW36536  12.966  12.040   8.084 -0.3531 -0.8601 -0.5524
 6309SOL    HW136537  12.976  12.103   8.156  0.8145 -0.7338 -0.8008
 6309SOL    HW236538  12.930  12.092   8.012 -1.1143 -0.8915 -0.2002
 6310SOL     OW36539   2.398  11.733  11.558  0.4360  0.0031 -0.3396
 6310SOL    HW136540   2.309  11.752  11.586  0.4373 -1.4228  0.7886
 6310SOL    HW236541   2.452  11.797  11.605  0.3305 -1.6631  2.2733
 6311SOL     OW36542   7.707   4.382  12.049  0.2538 -0.5027 -0.3820
 6311SOL    HW136543   7.646   4.384  11.974 -0.7935 -0.7395  0.4404
 6311SOL    HW236544   7.764   4.307  12.032 -0.1719 -0.7387 -0.7894
 6312SOL     OW36545  10.119  13.857   7.366 -0.4162  0.1033 -0.3112
 6312SOL    HW136546  10.102  13.788   7.303  0.2545 -0.1525 -0.2212
 6312SOL    HW236547  10.076  13.935   7.330 -2.4124 -0.6758  0.2871
 6313SOL     OW36548   2.320   5.526   3.864 -0.9206 -0.4123 -0.2370
 6313SOL    HW136549   2.360   5.582   3.798 -0.2224 -0.0153  0.4958
 6313SOL    HW236550   2.266   5.464   3.815  0.5461 -0.9329 -1.2566
 6314SOL     OW36551   8.101   5.920   2.280  0.3527  0.2145 -0.2526
 6314SOL    HW136552   8.126   5.863   2.207  1.1871  0.6435 -0.3092
 6314SOL    HW236553   8.161   5.994   2.275 -0.5507  0.9787 -0.0184
 6315SOL     OW36554  11.692   9.303   4.348 -0.0911  0.2205  0.0086
 6315SOL    HW136555  11.746   9.374   4.314 -0.0747  0.2795  0.1532
 6315SOL    HW236556  11.734   9.223   4.316 -0.6707  0.2970 -0.9619
 6316SOL     OW36557  13.457   3.258   5.912  0.0672 -0.2452 -0.4216
 6316SOL    HW136558  13.376   3.295   5.878  0.2105 -0.5805 -1.1453
 6316SOL    HW236559  13.488   3.322   5.976 -0.4290  0.1851 -0.6092
 6317SOL     OW36560  11.421   1.423  11.286  0.6595 -0.1928 -0.1945
 6317SOL    HW136561  11.473   1.415  11.366  1.4411 -0.3403 -0.7045
 6317SOL    HW236562  11.481   1.461  11.222 -0.0717  0.2894 -0.6048
 6318SOL     OW36563  12.531  12.958   3.797  0.1791  0.2966  0.4917
 6318SOL    HW136564  12.619  12.954   3.834 -0.3802  0.1406  1.8673
 6318SOL    HW236565  12.489  12.877   3.826 -0.1736 -0.0239 -0.8442
 6319SOL     OW36566   1.367   9.136   8.173  0.3800  0.2876  0.1906
 6319SOL    HW136567   1.347   9.085   8.095  2.7980  1.8970 -1.6272
 6319SOL    HW236568   1.423   9.079   8.225 -0.0343 -0.2605  0.0392
 6320SOL     OW36569  13.111   9.177  11.272 -0.2231  0.1577 -0.5092
 6320SOL    HW136570  13.065   9.136  11.345 -0.1697  1.6246  0.4027
 6320SOL    HW236571  13.159   9.106  11.230  1.0486 -0.4955  1.8716
 6321SOL     OW36572   8.751   3.998   0.594  0.7633  0.1633 -0.1749
 6321SOL    HW136573   8.699   3.921   0.573  0.7895  0.1076 -0.0331
 6321SOL    HW236574   8.747   4.052   0.514 -2.2449  1.7205  0.8675
 6322SOL     OW36575   3.424  10.498   4.863 -0.2124 -0.3701 -0.5427
 6322SOL    HW136576   3.476  10.451   4.929  1.0987  2.5767  0.6807
 6322SOL    HW236577   3.489  10.539   4.806 -1.2201  1.4960 -0.4100
 6323SOL     OW36578   2.721  11.385  11.247  0.0513 -0.7185  0.4979
 6323SOL    HW136579   2.790  11.385  11.314 -1.2779  1.7500  2.0184
 6323SOL    HW236580   2.744  11.459  11.191  1.1195 -2.7269 -1.9025
 6324SOL     OW36581   9.413   9.694   3.622 -1.0042 -0.2452  0.3192
 6324SOL    HW136582   9.463   9.629   3.671 -0.6911  1.3596  2.2953
 6324SOL    HW236583   9.340   9.718   3.680 -0.8742  1.4151 -0.1293
 6325SOL     OW36584   3.692   8.719   2.696  0.2615 -0.0561 -0.1733
 6325SOL    HW136585   3.633   8.789   2.670  0.8667  0.5207 -0.0122
 6325SOL    HW236586   3.775   8.741   2.655  0.6623 -0.2639  0.5114
 6326SOL     OW36587   6.332   4.332  12.381 -0.2523 -0.2946  0.3149
 6326SOL    HW136588   6.318   4.257  12.324  0.9419 -0.3163  0.0333
 6326SOL    HW236589   6.423   4.326  12.409 -0.0880  1.1127  0.1910
 6327SOL     OW36590   0.153   9.899  13.521  0.2393 -0.4460 -0.3870
 6327SOL    HW136591   0.242   9.922  13.496  0.5493 -2.4177 -1.2462
 6327SOL    HW236592   0.103   9.903  13.439 -0.2739 -0.2523 -0.0713
 6328SOL     OW36593   4.006   5.820   2.090  0.6702 -0.3611 -0.2628
 6328SOL    HW136594   4.085   5.867   2.061  1.6891 -0.4952  2.0790
 6328SOL    HW236595   3.999   5.840   2.183 -2.0500 -0.4649 -0.3648
 6329SOL     OW36596   0.530  10.330  13.054 -0.0650  0.0833  0.3088
 6329SOL    HW136597   0.516  10.252  13.001  0.4728  0.3900 -0.3136
 6329SOL    HW236598   0.491  10.401  13.003 -0.6238  0.2126  0.9095
 6330SOL     OW36599   1.151   0.554  12.023  0.0050  0.6360  0.3028
 6330SOL    HW136600   1.236   0.533  11.983  0.1554  0.5416  0.6634
 6330SOL    HW236601   1.148   0.649  12.023  1.1960  0.7432  2.4590
 6331SOL     OW36602   1.226   0.566   2.882  0.5040 -0.5196  0.0985
 6331SOL    HW136603   1.219   0.529   2.970  0.4144 -0.1917  0.2318
 6331SOL    HW236604   1.223   0.490   2.824  0.3159 -0.7214  0.3680
 6332SOL     OW36605  13.544   1.918   8.251  0.3780 -0.3985  0.0529
 6332SOL    HW136606  13.573   1.949   8.337  0.4061 -1.0553  0.2863
 6332SOL    HW236607  13.485   1.987   8.220 -0.0434 -0.3918  0.8280
 6333SOL     OW36608   3.245   1.293   6.167 -0.0850  0.6812  0.3990
 6333SOL    HW136609   3.197   1.251   6.238 -0.3216 -0.2798 -0.2988
 6333SOL    HW236610   3.331   1.250   6.168  0.5150  1.8568  1.1616
 6334SOL     OW36611   5.147  14.048   7.904 -0.4582 -0.0707 -0.1797
 6334SOL    HW136612   5.158  14.029   7.997  1.9338 -0.0164 -0.3899
 6334SOL    HW236613   5.055  14.073   7.896 -1.1043 -1.4697  1.8892
 6335SOL     OW36614   0.320  10.848  13.060  0.0887  0.1469  0.2595
 6335SOL    HW136615   0.302  10.934  13.100  1.7582  1.6357 -1.9261
 6335SOL    HW236616   0.297  10.859  12.968 -1.7031 -2.5130  0.3040
 6336SOL     OW36617  11.480  11.939   8.647  0.2453  0.2278 -0.4895
 6336SOL    HW136618  11.400  11.940   8.594  0.1098  2.0121 -0.2858
 6336SOL    HW236619  11.454  11.898   8.729 -0.7459  1.7102 -0.0355
 6337SOL     OW36620  12.605   1.040  11.566 -0.3564 -0.3065  0.1484
 6337SOL    HW136621  12.626   1.023  11.658 -0.7889  0.2567  0.3552
 6337SOL    HW236622  12.677   1.000  11.518  1.2985  1.5996  0.8482
 6338SOL     OW36623  11.904   5.132   7.337 -1.0633 -0.4474  0.3651
 6338SOL    HW136624  11.890   5.195   7.408 -1.8881 -0.5586  0.3204
 6338SOL    HW236625  11.926   5.051   7.382  1.1506  0.1124  0.3874
 6339SOL     OW36626   2.221   2.801   3.793  0.3096 -0.5771 -0.1435
 6339SOL    HW136627   2.185   2.721   3.832 -1.0050 -0.4030 -0.9156
 6339SOL    HW236628   2.293   2.770   3.737  1.6799 -0.9004  1.7134
 6340SOL     OW36629   8.287  12.535   1.510 -0.3849  0.1725 -0.1444
 6340SOL    HW136630   8.225  12.463   1.513  1.3094 -1.3259  1.1537
 6340SOL    HW236631   8.363  12.500   1.465  0.8530  0.7814  1.3790
 6341SOL     OW36632  11.574   7.345   3.785  0.1793  0.5238 -0.0506
 6341SOL    HW136633  11.574   7.287   3.861  0.5032 -1.0970 -1.2213
 6341SOL    HW236634  11.665   7.373   3.777  0.8123 -1.6548 -1.4602
 6342SOL     OW36635   3.510   8.647  10.128 -0.1644  0.1533  0.1369
 6342SOL    HW136636   3.562   8.581  10.174  1.7862  1.6087  0.1330
 6342SOL    HW236637   3.498   8.611  10.040  0.2583 -0.5171  0.3438
 6343SOL     OW36638   3.481   1.568   7.684  0.0054 -0.4941 -0.4204
 6343SOL    HW136639   3.472   1.474   7.695  0.2076 -0.3242  1.7614
 6343SOL    HW236640   3.516   1.598   7.768  0.4961  1.4520 -1.2683
 6344SOL     OW36641   2.295   9.196   2.473 -0.0533 -0.2582  0.3770
 6344SOL    HW136642   2.311   9.215   2.380  2.2334 -0.0751  0.7354
 6344SOL    HW236643   2.238   9.266   2.503 -1.1718 -0.5551 -0.9813
 6345SOL     OW36644   8.410   8.186   3.186 -0.3409 -0.0811 -0.6344
 6345SOL    HW136645   8.369   8.264   3.225  2.4709  0.7573  0.9511
 6345SOL    HW236646   8.401   8.119   3.253  2.1494  0.5874  0.4720
 6346SOL     OW36647  10.189  12.800  12.747  0.1303  0.1295 -0.1447
 6346SOL    HW136648  10.215  12.876  12.694 -0.8605  0.8513  0.3802
 6346SOL    HW236649  10.158  12.736  12.683  0.5410  0.3297 -0.5576
 6347SOL     OW36650  13.209   9.323   6.442  0.5680 -0.3028  0.9730
 6347SOL    HW136651  13.158   9.293   6.367  2.0438 -2.3501  0.7143
 6347SOL    HW236652  13.144   9.333   6.512 -0.4369 -1.1459  0.2086
 6348SOL     OW36653  12.434   4.687   1.927 -0.0276  0.3475 -0.4110
 6348SOL    HW136654  12.431   4.673   2.022  0.6444  1.4345 -0.2120
 6348SOL    HW236655  12.502   4.627   1.896 -0.0033  0.2423 -0.1544
 6349SOL     OW36656  13.035   1.083  11.129  0.1777 -0.4244 -0.1274
 6349SOL    HW136657  12.960   1.090  11.069  0.4075 -0.6143 -0.4367
 6349SOL    HW236658  13.019   1.003  11.178  1.2833 -1.7044 -1.7382
 6350SOL     OW36659   9.173   7.173   4.129  0.1170 -0.4353 -0.1650
 6350SOL    HW136660   9.128   7.144   4.209  2.0599 -0.8933  0.8064
 6350SOL    HW236661   9.200   7.093   4.085  0.3277 -0.1574 -0.5514
 6351SOL     OW36662   9.097   6.373   8.937  0.0517 -0.4080  0.2885
 6351SOL    HW136663   9.126   6.427   9.011 -0.4780  0.4732 -0.1494
 6351SOL    HW236664   9.175   6.364   8.882 -0.0329  0.5066  0.0042
 6352SOL     OW36665   7.062   1.129   2.037  0.0602  0.2291 -0.0694
 6352SOL    HW136666   7.111   1.109   1.957  0.1862  2.3384 -0.5666
 6352SOL    HW236667   6.989   1.183   2.008 -1.5506 -1.3195  0.9210
 6353SOL     OW36668   1.605  10.031   8.815  0.2413  0.2757 -0.1793
 6353SOL    HW136669   1.512  10.042   8.836 -0.0112  0.3163 -1.2747
 6353SOL    HW236670   1.626   9.944   8.846 -0.0573  0.4216  0.4496
 6354SOL     OW36671   5.270  13.937  13.153 -0.1299  0.0768 -0.0574
 6354SOL    HW136672   5.328  13.866  13.122 -0.8043 -0.4698 -0.0853
 6354SOL    HW236673   5.183  13.898  13.152 -0.6675  1.2484 -1.1117
 6355SOL     OW36674   6.634   0.914   8.238 -0.0846 -0.3421  0.2606
 6355SOL    HW136675   6.685   0.911   8.157 -0.3906  1.9067 -0.1008
 6355SOL    HW236676   6.614   0.823   8.258  1.8299 -1.1062 -1.0067
 6356SOL     OW36677   1.978   7.845   3.016  0.1520  0.4809 -0.3580
 6356SOL    HW136678   2.063   7.802   3.006 -0.5218 -0.6320 -1.7188
 6356SOL    HW236679   1.974   7.908   2.944 -0.6600 -0.3559 -1.0644
 6357SOL     OW36680   1.329   0.237   0.708 -0.3011  0.0241 -0.7993
 6357SOL    HW136681   1.266   0.180   0.753  1.6983 -1.0019  0.8976
 6357SOL    HW236682   1.405   0.181   0.694  0.5833  1.4675 -1.9609
 6358SOL     OW36683   4.356   3.567   5.212 -0.0078  0.6501 -0.1359
 6358SOL    HW136684   4.293   3.639   5.217 -0.5604  0.1800 -0.2232
 6358SOL    HW236685   4.391   3.573   5.123  1.0790  1.7348  0.3369
 6359SOL     OW36686   6.148   4.657  13.474 -0.5881  0.0828 -0.3727
 6359SOL    HW136687   6.107   4.717  13.412 -0.2792  0.4071 -0.2647
 6359SOL    HW236688   6.167   4.711  13.551  3.2251  0.8696 -1.6602
 6360SOL     OW36689   5.238  11.643  10.170  0.1326 -0.4565  0.3715
 6360SOL    HW136690   5.199  11.668  10.086  1.4074 -0.6990 -0.3187
 6360SOL    HW236691   5.281  11.723  10.201 -1.8896  0.1772  1.7574
 6361SOL     OW36692  12.504   6.054   0.929 -0.2620  0.2689 -0.1590
 6361SOL    HW136693  12.566   6.126   0.925  0.7643 -0.3701  2.0408
 6361SOL    HW236694  12.484   6.045   1.023  0.7864 -3.1395 -0.1066
 6362SOL     OW36695   0.667   0.854  12.456 -0.1819  0.7268 -0.5461
 6362SOL    HW136696   0.709   0.826  12.375  2.7426 -1.7534  1.5763
 6362SOL    HW236697   0.613   0.780  12.483 -0.2683  1.0742  0.2673
 6363SOL     OW36698   7.129  10.376   1.405 -0.1843 -0.1074 -0.0457
 6363SOL    HW136699   7.115  10.445   1.340 -1.1188  0.4529  0.7176
 6363SOL    HW236700   7.049  10.376   1.458  0.0721 -1.3368  0.3874
 6364SOL     OW36701   8.041  11.757   6.298  0.2238 -0.0497  0.0693
 6364SOL    HW136702   7.960  11.733   6.252 -0.1875  1.1947  0.1226
 6364SOL    HW236703   8.052  11.688   6.363  0.4031 -1.4330 -1.3595
 6365SOL     OW36704  11.309   9.466   8.933 -0.0264 -0.3706 -0.3708
 6365SOL    HW136705  11.265   9.441   9.014  0.1536 -0.9749 -0.4512
 6365SOL    HW236706  11.345   9.384   8.899 -0.1261 -0.1296 -1.0794
 6366SOL     OW36707  10.715   2.815   1.533  0.3683 -0.1852 -0.2377
 6366SOL    HW136708  10.681   2.823   1.444  0.8261  3.0152 -0.2543
 6366SOL    HW236709  10.742   2.724   1.541  2.1064 -0.1647 -4.0333
 6367SOL     OW36710  13.788   2.877  10.634 -0.4972 -0.0774  0.2026
 6367SOL    HW136711  13.762   2.913  10.719 -1.4118  0.3879 -0.2603
 6367SOL    HW236712  13.758   2.942  10.570 -1.8803 -1.4596 -0.6274
 6368SOL     OW36713  11.744   1.903  10.093 -0.3013 -0.1204 -0.0480
 6368SOL    HW136714  11.813   1.872  10.034  0.8566 -0.7096  1.5524
 6368SOL    HW236715  11.662   1.879  10.049  0.5390 -2.1729 -0.5892
 6369SOL     OW36716   8.637   0.823   4.942  0.1539 -0.2525 -0.2562
 6369SOL    HW136717   8.656   0.785   5.028 -1.0983  0.0861  0.1852
 6369SOL    HW236718   8.690   0.903   4.938  1.5614 -1.1619 -0.5357
 6370SOL     OW36719   8.908   4.834  13.524 -0.4198  0.1553  0.4778
 6370SOL    HW136720   8.859   4.762  13.487 -0.3980  0.0485  0.6578
 6370SOL    HW236721   8.845   4.905  13.532  0.0084  0.8431 -1.6221
 6371SOL     OW36722   2.589  12.956  12.532 -0.0074 -0.5790  0.2779
 6371SOL    HW136723   2.633  12.887  12.482 -0.9997 -0.7609 -0.3748
 6371SOL    HW236724   2.557  12.911  12.610  0.2044 -0.6395  0.3301
 6372SOL     OW36725   7.174   0.476  13.370  0.1536 -0.1899 -0.5164
 6372SOL    HW136726   7.262   0.439  13.369  0.5341  0.7044 -1.1637
 6372SOL    HW236727   7.143   0.466  13.280 -0.1604  0.0936 -0.4401
 6373SOL     OW36728   5.348   7.730   2.206  0.2818 -0.0085 -0.5718
 6373SOL    HW136729   5.281   7.764   2.264 -1.4434 -1.4519 -1.6100
 6373SOL    HW236730   5.360   7.799   2.140 -0.7344 -0.0376 -0.7958
 6374SOL     OW36731   0.964   5.571   3.137 -0.0261 -0.1857  0.4586
 6374SOL    HW136732   1.026   5.643   3.144 -1.2525  0.9241  0.2091
 6374SOL    HW236733   0.965   5.530   3.223  0.1115  0.6155  0.8489
 6375SOL     OW36734  12.241   1.623   9.979  0.4931 -0.2458 -0.4792
 6375SOL    HW136735  12.302   1.658  10.043  0.7872  0.0466 -0.9094
 6375SOL    HW236736  12.284   1.544   9.946  2.4674  1.8326 -3.4426
 6376SOL     OW36737   8.972  10.717   9.653 -0.7506  0.1773  0.4278
 6376SOL    HW136738   8.943  10.666   9.577 -0.3895 -0.6709  0.8394
 6376SOL    HW236739   8.923  10.680   9.726 -2.3301  2.0925  0.3974
 6377SOL     OW36740   2.386   4.791   2.022 -0.3324 -0.0418 -0.3356
 6377SOL    HW136741   2.457   4.854   2.010 -0.2835 -0.4053 -2.4436
 6377SOL    HW236742   2.314   4.826   1.969 -1.2667 -0.3566  0.7056
 6378SOL     OW36743   5.067   4.045   1.971 -0.2559 -0.4810  0.7387
 6378SOL    HW136744   5.127   3.975   1.945  1.0674  0.7090  0.4008
 6378SOL    HW236745   5.084   4.115   1.908 -1.4228  0.2049  1.1592
 6379SOL     OW36746  12.898   7.188   9.394  0.1818 -0.3367  0.2282
 6379SOL    HW136747  12.871   7.203   9.303 -0.2079 -0.8710  0.2460
 6379SOL    HW236748  12.900   7.092   9.403  1.3955 -0.3047  0.4462
 6380SOL     OW36749   6.030   7.446   0.242 -0.2792  0.2703 -0.2788
 6380SOL    HW136750   5.968   7.464   0.312 -0.4255 -2.0220  0.2492
 6380SOL    HW236751   6.067   7.361   0.263  3.4732  1.7039 -0.3237
 6381SOL     OW36752   3.750   8.325   4.596 -0.2478  0.3427  0.2624
 6381SOL    HW136753   3.830   8.278   4.571 -0.2588  0.1994  0.4920
 6381SOL    HW236754   3.692   8.315   4.521 -0.7083 -1.0480  0.7729
 6382SOL     OW36755   1.478   6.103   5.697  0.0852  0.0487 -0.3178
 6382SOL    HW136756   1.516   6.134   5.779 -0.5853 -5.2908  2.4216
 6382SOL    HW236757   1.553   6.068   5.648  0.0376  0.0565 -0.3967
 6383SOL     OW36758   6.430   1.130   6.114 -0.4811  0.3132 -0.4504
 6383SOL    HW136759   6.372   1.195   6.075 -0.0880  2.0700  1.7163
 6383SOL    HW236760   6.516   1.148   6.076 -0.6816 -0.0781 -1.1096
 6384SOL     OW36761   6.388   9.719   7.498 -0.2959 -0.0475 -0.5124
 6384SOL    HW136762   6.301   9.720   7.458  0.0206 -0.2195 -1.2238
 6384SOL    HW236763   6.421   9.808   7.485 -0.7341  0.2960  0.6097
 6385SOL     OW36764   1.941  12.325  12.982  0.1509  0.0611 -0.0473
 6385SOL    HW136765   1.920  12.235  12.959  0.0326  0.0426  0.1287
 6385SOL    HW236766   1.968  12.366  12.900 -0.2345 -0.0116 -0.2125
 6386SOL     OW36767   3.865   7.128   8.755 -0.0512  0.6742  0.0389
 6386SOL    HW136768   3.825   7.204   8.797 -1.5260 -0.6117  1.0834
 6386SOL    HW236769   3.792   7.067   8.742  1.3881 -1.4339  1.2300
 6387SOL     OW36770   3.543  10.199   0.379  0.1227 -0.3645  0.2074
 6387SOL    HW136771   3.532  10.258   0.305 -0.5302 -1.6929 -0.7948
 6387SOL    HW236772   3.483  10.232   0.446 -1.1848 -0.6184 -0.8116
 6388SOL     OW36773   7.937   2.011  13.353 -0.3269  0.1520 -0.0424
 6388SOL    HW136774   7.954   2.105  13.362  0.3149 -0.1319  2.2068
 6388SOL    HW236775   7.898   2.003  13.266  2.2781  2.0925 -1.5380
 6389SOL     OW36776   2.987   8.329   6.896  0.0068 -0.2287  0.1326
 6389SOL    HW136777   2.943   8.255   6.939  1.3324 -1.5148 -0.6461
 6389SOL    HW236778   2.936   8.345   6.817  0.8074 -1.6429 -0.7083
 6390SOL     OW36779   0.622   6.428   7.757  0.1048  0.1722  0.0285
 6390SOL    HW136780   0.588   6.394   7.674 -0.2697 -0.5019  0.4488
 6390SOL    HW236781   0.657   6.351   7.803 -0.8095  0.3186  1.0217
 6391SOL     OW36782  13.969   6.176   9.559  0.0406  0.9123  0.0471
 6391SOL    HW136783  13.894   6.227   9.529  0.1955  1.0688 -0.0810
 6391SOL    HW236784  13.931   6.101   9.605 -0.1944  0.9262 -0.1229
 6392SOL     OW36785  11.436   4.050  13.312 -0.0711  0.5518  0.2328
 6392SOL    HW136786  11.461   3.961  13.288  1.3312  1.0393 -0.2418
 6392SOL    HW236787  11.498   4.075  13.381  0.1820  1.4937 -0.3205
 6393SOL     OW36788   6.667   7.646  13.121 -0.2189  0.6175 -0.1208
 6393SOL    HW136789   6.617   7.617  13.044 -0.5871 -1.5626  0.8545
 6393SOL    HW236790   6.758   7.622  13.101 -0.3369 -0.0856  0.1778
 6394SOL     OW36791   6.755  10.774  12.524  0.3294 -0.1762 -0.2209
 6394SOL    HW136792   6.684  10.740  12.470  0.2888 -2.2871  1.0777
 6394SOL    HW236793   6.734  10.745  12.613  0.9124  2.3444  0.8254
 6395SOL     OW36794   8.257   2.762  12.142 -0.0832 -0.4348 -0.3033
 6395SOL    HW136795   8.331   2.724  12.188 -0.4467 -0.6155  0.1420
 6395SOL    HW236796   8.294   2.799  12.062  0.6279  0.2686  0.3359
 6396SOL     OW36797   2.797   8.039   2.453  0.0017  0.2545  0.0972
 6396SOL    HW136798   2.717   8.020   2.404 -0.3206 -0.5706  0.9183
 6396SOL    HW236799   2.767   8.082   2.533  0.4773  1.0361 -0.1302
 6397SOL     OW36800   8.794   2.173  11.889 -0.6231  0.1544 -0.7385
 6397SOL    HW136801   8.803   2.174  11.794 -2.2172  2.9555 -0.9814
 6397SOL    HW236802   8.783   2.265  11.913  0.5702 -0.3699  2.2796
 6398SOL     OW36803  13.542   1.807   2.962  0.7440 -0.0579  0.5465
 6398SOL    HW136804  13.498   1.883   2.924  1.3117 -0.9924 -2.2153
 6398SOL    HW236805  13.549   1.827   3.055  0.6629  3.1427 -0.0454
 6399SOL     OW36806   6.604   8.377  13.590 -0.0180 -0.0452  0.6892
 6399SOL    HW136807   6.659   8.335  13.523 -0.2045 -1.2400  1.2472
 6399SOL    HW236808   6.653   8.455  13.616  0.6333 -0.2106  0.0063
 6400SOL     OW36809  13.438  11.130  12.742 -0.4510  0.8322 -0.3190
 6400SOL    HW136810  13.466  11.212  12.782  0.4619  1.6250 -2.4451
 6400SOL    HW236811  13.489  11.062  12.787 -0.5161  1.5051  0.8071
 6401SOL     OW36812   5.404   5.813  12.355  0.2579  0.3828 -0.2339
 6401SOL    HW136813   5.389   5.722  12.383  0.1083  0.7868  1.0391
 6401SOL    HW236814   5.357   5.820  12.271  1.7124 -1.1974 -1.2440
 6402SOL     OW36815  10.436   8.662   1.139 -0.3959  0.2245 -0.2343
 6402SOL    HW136816  10.344   8.643   1.157 -0.6499  1.6994  0.1880
 6402SOL    HW236817  10.434   8.708   1.055 -0.0025 -0.0368 -0.3865
 6403SOL     OW36818   2.547   1.752  10.845 -0.5124  0.2205 -0.1105
 6403SOL    HW136819   2.592   1.818  10.793 -0.8771 -0.5674 -1.4805
 6403SOL    HW236820   2.603   1.675  10.840 -1.2316 -0.2920 -0.5254
 6404SOL     OW36821   8.214   5.102   0.872 -0.0791 -0.0879  0.7396
 6404SOL    HW136822   8.147   5.169   0.885  0.6810  1.1601 -1.2887
 6404SOL    HW236823   8.172   5.021   0.900 -1.9497  0.8574  0.8694
 6405SOL     OW36824   8.962  13.419   2.412  0.0140 -0.0178 -0.0909
 6405SOL    HW136825   8.947  13.470   2.492  0.4363  1.1856 -0.7504
 6405SOL    HW236826   8.897  13.348   2.417 -1.7709  1.5249  0.0897
 6406SOL     OW36827   6.702  13.598   4.801 -0.0730  0.4384  0.5705
 6406SOL    HW136828   6.741  13.637   4.723  1.1740 -1.7513  0.0299
 6406SOL    HW236829   6.725  13.658   4.872 -2.3742  3.2121 -0.8046
 6407SOL     OW36830   2.564   1.300   7.027 -0.0911  0.7591 -0.6757
 6407SOL    HW136831   2.635   1.244   7.058  0.1308  0.7466 -1.1945
 6407SOL    HW236832   2.608   1.382   7.002 -0.3139  0.8965 -0.6184
 6408SOL     OW36833  10.378  13.255   2.707  0.4282 -0.3697  0.2768
 6408SOL    HW136834  10.388  13.330   2.648 -0.3742  0.4821  1.1818
 6408SOL    HW236835  10.320  13.287   2.776  0.0133 -1.8577  0.6519
 6409SOL     OW36836  12.982  11.580   0.959 -0.0532  0.0451 -0.6319
 6409SOL    HW136837  13.026  11.658   0.925 -0.2050  0.4118 -0.0113
 6409SOL    HW236838  12.909  11.615   1.011 -0.4760 -0.5283 -0.8354
 6410SOL     OW36839   3.749   2.358   6.468 -0.7758  0.3685  0.2577
 6410SOL    HW136840   3.763   2.335   6.560 -0.0313  1.0025  0.3203
 6410SOL    HW236841   3.757   2.275   6.421 -1.1605  0.0389  0.7586
 6411SOL     OW36842   7.993   1.275   2.131  0.0260 -0.2734 -0.3340
 6411SOL    HW136843   8.080   1.236   2.123  0.2962 -0.5444  2.7408
 6411SOL    HW236844   7.994   1.318   2.217 -1.9084  2.3371 -1.4795
 6412SOL     OW36845  13.367   8.455  11.321 -0.3133 -0.2391  0.4316
 6412SOL    HW136846  13.278   8.443  11.353 -0.4438 -1.2526 -0.2518
 6412SOL    HW236847  13.400   8.366  11.309  0.6276  0.1234  0.2410
 6413SOL     OW36848   6.360   3.055   1.059  0.1535  0.1567  0.5199
 6413SOL    HW136849   6.317   3.009   0.988  1.4328 -1.8424  0.9571
 6413SOL    HW236850   6.306   3.039   1.136  0.7433 -0.9236  0.7289
 6414SOL     OW36851   0.119   6.048   4.114  0.0567  0.6561  0.1459
 6414SOL    HW136852   0.189   6.095   4.069 -0.0299  3.1274  2.3478
 6414SOL    HW236853   0.156   5.961   4.129  1.1421  0.6445 -2.0462
 6415SOL     OW36854   1.174   0.869   8.108  0.0110  0.0693 -0.1268
 6415SOL    HW136855   1.086   0.833   8.104 -0.5323  1.1331  1.6226
 6415SOL    HW236856   1.218   0.832   8.031 -1.3100 -2.1269  0.0901
 6416SOL     OW36857  13.535  11.617   6.916  0.0602  0.0622  0.0204
 6416SOL    HW136858  13.548  11.621   7.010  3.6794 -0.1593 -0.3297
 6416SOL    HW236859  13.608  11.565   6.883 -2.4121 -2.0613 -2.7569
 6417SOL     OW36860   0.720   9.964   8.600 -0.9549 -0.1021 -0.7102
 6417SOL    HW136861   0.752   9.910   8.528 -0.6094  0.2919 -0.8513
 6417SOL    HW236862   0.639   9.920   8.629  0.4372 -1.9507  0.6118
 6418SOL     OW36863  10.621   5.803   8.370 -0.3539 -0.3842  0.5112
 6418SOL    HW136864  10.533   5.837   8.355 -0.4950 -0.0624  1.9921
 6418SOL    HW236865  10.612   5.743   8.444  0.9766  1.1777  2.0178
 6419SOL     OW36866   0.631   9.861   2.649  0.4379 -0.7536 -0.1829
 6419SOL    HW136867   0.610   9.768   2.640  1.6705 -0.9426 -1.3706
 6419SOL    HW236868   0.725   9.866   2.634  0.8852  0.3712  2.4609
 6420SOL     OW36869   9.163  13.967   9.204  0.0968 -0.0488  0.0066
 6420SOL    HW136870   9.153  13.913   9.126  0.5388 -0.4880  0.2488
 6420SOL    HW236871   9.168  14.057   9.170 -1.4332 -0.0698 -0.3329
 6421SOL     OW36872  10.727   0.664  12.471  0.1029 -0.4687  0.2011
 6421SOL    HW136873  10.779   0.639  12.547 -1.4288 -1.9752  0.8291
 6421SOL    HW236874  10.758   0.606  12.401 -0.8445 -1.5547  0.6445
 6422SOL     OW36875   4.283   9.393  10.851  0.1899  1.0240 -0.1977
 6422SOL    HW136876   4.223   9.342  10.905 -0.4959  1.7607 -0.2517
 6422SOL    HW236877   4.369   9.354  10.867 -0.5883 -1.8945 -2.2107
 6423SOL     OW36878   0.933   0.664   9.690  0.0690 -0.2150 -0.4680
 6423SOL    HW136879   1.020   0.703   9.682  1.2338 -2.3922  0.6072
 6423SOL    HW236880   0.917   0.659   9.784 -1.2305  0.1017 -0.6489
 6424SOL     OW36881  13.608   4.319   7.069 -0.0276  0.1542  0.4503
 6424SOL    HW136882  13.559   4.393   7.102  0.4819 -0.2380  2.2276
 6424SOL    HW236883  13.546   4.246   7.072 -0.4879  0.4383 -1.1646
 6425SOL     OW36884   4.484   0.042  12.092 -0.5020  0.3743  0.3598
 6425SOL    HW136885   4.452  -0.042  12.125  0.5943 -0.1546  0.0974
 6425SOL    HW236886   4.496   0.096  12.170  0.8660 -0.4466  0.7403
 6426SOL     OW36887  12.234   1.049   5.420  0.3179 -0.5876 -0.6454
 6426SOL    HW136888  12.157   1.106   5.424  0.6795 -0.1589  0.6357
 6426SOL    HW236889  12.218   0.982   5.487  1.5919  0.2285  0.5344
 6427SOL     OW36890   3.986   0.994  13.077  0.0802  0.0380 -0.5282
 6427SOL    HW136891   3.990   1.076  13.125  1.6811 -0.8371  0.9593
 6427SOL    HW236892   3.986   0.926  13.145  1.3935 -1.2347 -1.7198
 6428SOL     OW36893   9.358   7.497   1.784 -0.0909 -0.1677  0.0149
 6428SOL    HW136894   9.436   7.503   1.728 -1.6811 -0.5393 -2.3934
 6428SOL    HW236895   9.347   7.585   1.819 -0.9317  1.0868 -3.0777
 6429SOL     OW36896   8.487   1.195  12.114 -0.2850  0.2034  0.6767
 6429SOL    HW136897   8.530   1.240  12.041 -0.5302  0.7238  0.8451
 6429SOL    HW236898   8.393   1.201  12.093 -0.3046 -0.5138  0.5408
 6430SOL     OW36899   9.909  11.739   0.050  0.0713  1.0397 -0.2652
 6430SOL    HW136900   9.978  11.696   0.101 -0.6105 -1.0273 -0.9857
 6430SOL    HW236901   9.850  11.775   0.115  0.2076  0.0833  0.4138
 6431SOL     OW36902   9.876   4.866  12.348  0.5626 -0.4066  0.3677
 6431SOL    HW136903   9.852   4.873  12.255 -1.4657 -1.0530  0.7892
 6431SOL    HW236904   9.930   4.943  12.365 -0.0220  0.3626 -1.0719
 6432SOL     OW36905   9.957  10.409   6.426 -0.2474 -0.2466 -0.0804
 6432SOL    HW136906   9.984  10.414   6.334 -0.3276  1.5357 -0.0554
 6432SOL    HW236907   9.862  10.414   6.423 -0.1957  1.4513  0.1292
 6433SOL     OW36908   5.074   3.920   5.660  0.5621 -0.2559  0.2922
 6433SOL    HW136909   5.041   3.913   5.750 -2.5956  3.1871 -0.3490
 6433SOL    HW236910   5.002   3.886   5.606 -0.5570  3.6747 -1.0242
 6434SOL     OW36911   6.093   0.920   1.885 -0.3577  0.3426  0.3633
 6434SOL    HW136912   6.021   0.914   1.821  0.0846 -0.0796 -0.1019
 6434SOL    HW236913   6.170   0.939   1.832 -0.1615  1.0967  0.8921
 6435SOL     OW36914  10.075   0.692  13.154  0.2686 -0.6215  0.3507
 6435SOL    HW136915  10.084   0.745  13.075 -1.5388  0.4001  0.7569
 6435SOL    HW236916  10.128   0.614  13.137  1.3298  0.3583 -1.1264
 6436SOL     OW36917  12.829   6.315   6.048  0.5708  0.3274 -0.4846
 6436SOL    HW136918  12.866   6.257   5.981  0.1187 -0.1748 -0.3149
 6436SOL    HW236919  12.747   6.272   6.074  0.7245  0.5217  0.3677
 6437SOL     OW36920  11.660   6.393   5.291 -0.1567  0.2313 -0.0356
 6437SOL    HW136921  11.724   6.418   5.224 -0.1377 -0.0787 -0.1344
 6437SOL    HW236922  11.597   6.465   5.292  0.5312  0.8253  0.4994
 6438SOL     OW36923   2.942   0.544  10.980  0.1521 -0.1571 -0.0218
 6438SOL    HW136924   2.961   0.622  11.032 -1.0353  0.1838 -0.0939
 6438SOL    HW236925   2.847   0.534  10.984  0.0149 -0.1254 -2.1197
 6439SOL     OW36926   1.762  10.779  11.447  0.1477  0.1453 -0.1202
 6439SOL    HW136927   1.673  10.743  11.455 -0.1210  0.4823 -1.3297
 6439SOL    HW236928   1.797  10.738  11.368  1.4379 -0.7005  0.8588
 6440SOL     OW36929   9.076   0.651   3.309  0.3937  0.7202 -0.0393
 6440SOL    HW136930   8.983   0.633   3.296  0.5240 -0.5660  0.6293
 6440SOL    HW236931   9.115   0.635   3.224  0.1576  0.1191 -0.0406
 6441SOL     OW36932   2.759   5.210   0.688 -0.5855  0.0132  0.1910
 6441SOL    HW136933   2.816   5.248   0.622 -0.3720 -1.1213 -0.2968
 6441SOL    HW236934   2.709   5.285   0.723  0.1491  0.7946 -0.3963
 6442SOL     OW36935   0.621   1.556   2.590  0.1837  0.1668 -0.1415
 6442SOL    HW136936   0.587   1.597   2.670 -1.8910  0.6087 -1.1694
 6442SOL    HW236937   0.674   1.483   2.622 -0.5840  0.3238  1.6510
 6443SOL     OW36938   4.094   8.984  11.754  0.2561  0.2502  0.0472
 6443SOL    HW136939   4.027   8.930  11.711  0.3787 -0.4374  0.7099
 6443SOL    HW236940   4.163   8.993  11.688  0.1574 -0.2638 -0.1319
 6444SOL     OW36941  12.884   3.635   2.405  0.3647  0.4792  0.8275
 6444SOL    HW136942  12.879   3.731   2.400 -0.2457  0.4600  0.9936
 6444SOL    HW236943  12.952   3.619   2.471  0.1071  0.8103  1.1868
 6445SOL     OW36944   2.181   4.503   1.272 -0.1160  0.1254 -0.0787
 6445SOL    HW136945   2.242   4.474   1.204 -2.5126 -2.2558 -1.4141
 6445SOL    HW236946   2.197   4.442   1.345 -0.8482 -0.5258 -0.4445
 6446SOL     OW36947   5.910   9.252   6.192 -0.4574  0.0623 -0.2590
 6446SOL    HW136948   5.859   9.281   6.268  0.6286 -1.6159  1.1928
 6446SOL    HW236949   5.985   9.311   6.189 -1.5177  1.4490 -1.3651
 6447SOL     OW36950  12.593  10.170   3.697  0.9382 -0.1906  0.4752
 6447SOL    HW136951  12.533  10.244   3.710  0.7392 -0.0939 -0.8246
 6447SOL    HW236952  12.643  10.165   3.778  0.5478  1.0087  0.8169
 6448SOL     OW36953   3.428  12.125   7.044  0.1947 -0.5113  0.9152
 6448SOL    HW136954   3.447  12.096   6.955  0.8468 -1.2785  1.2845
 6448SOL    HW236955   3.439  12.046   7.098  0.3308  0.0486  1.7372
 6449SOL     OW36956   2.417  12.204   2.391 -0.4362  0.1559 -0.3132
 6449SOL    HW136957   2.360  12.280   2.404 -0.3601  0.1236  0.2612
 6449SOL    HW236958   2.357  12.129   2.385 -0.5173  0.2768 -1.0107
 6450SOL     OW36959   0.845   2.171   1.398  0.1893  0.5076  0.2038
 6450SOL    HW136960   0.801   2.170   1.313  2.7788 -0.5527 -1.2124
 6450SOL    HW236961   0.856   2.078   1.420  0.1571  0.7671  1.4159
 6451SOL     OW36962   9.067   1.066  12.034 -0.3086  0.3473  0.1906
 6451SOL    HW136963   9.024   1.021  11.961 -0.8772 -0.5666  1.0574
 6451SOL    HW236964   8.998   1.119  12.074 -1.1388 -2.2305  2.4712
 6452SOL     OW36965  10.221   5.612   5.361  0.4105 -0.0030 -0.4168
 6452SOL    HW136966  10.162   5.684   5.385 -1.3995 -1.1895 -1.1455
 6452SOL    HW236967  10.302   5.631   5.409 -0.1127  2.3367 -0.3384
 6453SOL     OW36968  13.613   9.318   3.715 -0.2200  0.1478  0.0183
 6453SOL    HW136969  13.617   9.237   3.766  0.3804  0.6928  0.8623
 6453SOL    HW236970  13.536   9.364   3.749 -0.9271 -0.3256 -0.8885
 6454SOL     OW36971   3.833  12.026  12.927  0.0760 -0.0197  0.2632
 6454SOL    HW136972   3.824  11.987  12.841 -1.1787  2.7959 -1.0326
 6454SOL    HW236973   3.881  12.108  12.912  1.1767 -0.1673  2.5061
 6455SOL     OW36974   7.154   2.976   8.198 -0.3470 -0.0450 -0.2964
 6455SOL    HW136975   7.238   2.929   8.202 -0.2645  0.0406 -0.9135
 6455SOL    HW236976   7.111   2.954   8.280  0.2382 -0.1756 -0.0138
 6456SOL     OW36977   7.837   7.073   4.291 -0.0687 -0.1146  0.0712
 6456SOL    HW136978   7.748   7.093   4.262  0.8819  0.7167 -2.5275
 6456SOL    HW236979   7.843   6.978   4.286 -1.1538 -0.2918  1.4961
 6457SOL     OW36980   2.662   2.178   6.606 -0.1261  0.5291 -0.3091
 6457SOL    HW136981   2.711   2.232   6.668 -0.6895  0.7976 -0.0948
 6457SOL    HW236982   2.574   2.215   6.606 -0.9943 -1.3910  1.0838
 6458SOL     OW36983   1.828  13.542  10.850  0.0088 -0.5177 -0.2056
 6458SOL    HW136984   1.749  13.538  10.902  0.8762 -1.0073  1.1310
 6458SOL    HW236985   1.892  13.587  10.905  0.7564 -0.4333 -1.1092
 6459SOL     OW36986   1.755   4.542   2.518 -0.2764  0.3368 -0.0714
 6459SOL    HW136987   1.851   4.538   2.523 -0.2292  0.8318 -0.5191
 6459SOL    HW236988   1.736   4.633   2.495 -0.9220  0.6192  1.4509
 6460SOL     OW36989  11.337   5.252   2.293  0.4904 -0.3152 -0.1462
 6460SOL    HW136990  11.283   5.283   2.220  1.0771  1.4541  0.1099
 6460SOL    HW236991  11.423   5.236   2.254  0.6732  0.1597  0.0503
 6461SOL     OW36992   7.091   1.165   9.225  0.1692  0.0381  0.4238
 6461SOL    HW136993   7.148   1.093   9.199  0.5286  0.2340  0.6715
 6461SOL    HW236994   7.011   1.151   9.174  0.2591 -0.4990  0.4245
 6462SOL     OW36995  10.885   2.629   9.837 -0.7212  0.3686 -0.2130
 6462SOL    HW136996  10.919   2.657   9.921  0.0689 -3.2758  0.8548
 6462SOL    HW236997  10.940   2.673   9.772  1.9803 -0.4601  1.3463
 6463SOL     OW36998   0.391   5.046   8.681 -0.2175  0.3426  0.1341
 6463SOL    HW136999   0.418   4.997   8.758 -1.7761  0.9263  1.1093
 6463SOL    HW237000   0.366   4.980   8.617  3.5448 -0.2553 -0.9640
 6464SOL     OW37001   2.634  13.097   6.163 -0.3255  0.0123 -0.4803
 6464SOL    HW137002   2.578  13.153   6.109  0.1690  1.6329  0.6031
 6464SOL    HW237003   2.690  13.158   6.211 -1.1927 -1.2493  2.3719
 6465SOL     OW37004   8.853   3.577  12.125 -0.5712 -0.6034  0.6596
 6465SOL    HW137005   8.764   3.607  12.108 -0.2431  0.4117  0.6982
 6465SOL    HW237006   8.843   3.483  12.143 -1.4474 -0.8121 -0.7371
 6466SOL     OW37007   3.373  12.990  13.195  0.2910  0.0881 -0.6866
 6466SOL    HW137008   3.359  13.082  13.171  0.4762  0.1498 -0.5554
 6466SOL    HW237009   3.352  12.987  13.288 -1.6322 -0.3938 -1.0814
 6467SOL     OW37010  13.051   8.674   4.726  0.0661  0.6269  0.5412
 6467SOL    HW137011  12.963   8.650   4.754 -0.0350  1.2957  0.8300
 6467SOL    HW237012  13.042   8.763   4.691  0.4710  0.3750 -0.2207
 6468SOL     OW37013  10.241   5.628   2.186  0.2827  0.1271 -0.2260
 6468SOL    HW137014  10.185   5.559   2.149  1.3144 -0.2978 -1.0270
 6468SOL    HW237015  10.231   5.702   2.126 -0.7136  0.6611  0.5568
 6469SOL     OW37016   9.750  11.890   4.598  0.7678  0.1154 -0.2962
 6469SOL    HW137017   9.773  11.903   4.690 -0.1669  0.2196 -0.0660
 6469SOL    HW237018   9.760  11.976   4.557  1.4827  0.0051 -0.3752
 6470SOL     OW37019   3.372   6.634   7.600 -0.3273 -0.7047  0.2761
 6470SOL    HW137020   3.384   6.554   7.548 -0.0173  0.7159 -1.9439
 6470SOL    HW237021   3.289   6.671   7.569  1.6094  2.1107 -2.1189
 6471SOL     OW37022   4.662  10.990   2.210 -0.0117 -0.1754  0.2727
 6471SOL    HW137023   4.693  11.080   2.221  1.7176 -0.2271 -2.9505
 6471SOL    HW237024   4.608  10.993   2.131 -3.2835 -1.3523  2.2614
 6472SOL     OW37025  12.129   5.546  14.067 -0.5626 -0.6491  0.6525
 6472SOL    HW137026  12.208   5.599  14.057 -0.6607 -0.5991  0.1259
 6472SOL    HW237027  12.058   5.602  14.034 -0.7151 -0.9692  0.4308
 6473SOL     OW37028   0.278   4.479   0.188 -0.0581 -0.6679  0.1291
 6473SOL    HW137029   0.287   4.386   0.209  0.3226 -0.4476  0.9763
 6473SOL    HW237030   0.231   4.517   0.262  0.3627 -0.0699  0.1050
 6474SOL     OW37031   5.354   3.673   4.816  0.1482  0.5595  0.0185
 6474SOL    HW137032   5.411   3.608   4.857  1.3291  0.8924 -1.0115
 6474SOL    HW237033   5.285   3.688   4.880 -2.0769 -4.0046 -0.8836
 6475SOL     OW37034   4.761   8.514   6.691 -0.0613 -0.1717  0.0118
 6475SOL    HW137035   4.698   8.446   6.717  0.5864 -0.5346  0.6546
 6475SOL    HW237036   4.719   8.596   6.717 -0.9139 -0.2994 -0.9004
 6476SOL     OW37037   5.714  12.198  10.466  0.7617  0.4441  0.1222
 6476SOL    HW137038   5.756  12.242  10.540  2.1390 -1.2239  0.4096
 6476SOL    HW237039   5.785  12.149  10.424 -0.3821 -0.2309 -1.1233
 6477SOL     OW37040   1.599   7.663   2.347 -0.1647  0.2003  0.2000
 6477SOL    HW137041   1.617   7.697   2.435 -2.2490  1.0243  0.3562
 6477SOL    HW237042   1.662   7.591   2.336  1.3902  1.2718  1.5955
 6478SOL     OW37043   2.299   9.062   5.482  0.4712  0.0125 -0.2076
 6478SOL    HW137044   2.330   9.113   5.407 -0.8398  0.1528 -0.6759
 6478SOL    HW237045   2.205   9.055   5.469  0.4421 -1.3846  0.5666
 6479SOL     OW37046   1.230   9.938  13.333  0.3242  0.4139 -0.6450
 6479SOL    HW137047   1.144   9.961  13.369  1.0754  2.1777  0.1164
 6479SOL    HW237048   1.288  10.008  13.363  1.5662  0.5134 -3.0378
 6480SOL     OW37049   9.083  10.233   3.488 -0.7526 -0.0337 -0.3355
 6480SOL    HW137050   9.120  10.161   3.538 -1.3138 -0.5472 -0.6480
 6480SOL    HW237051   9.159  10.274   3.445 -0.6187 -1.8384 -1.9777
 6481SOL     OW37052   7.318  10.062   3.673 -0.3453  0.6118  0.6041
 6481SOL    HW137053   7.352   9.977   3.699  1.0322  1.3083  1.1793
 6481SOL    HW237054   7.248  10.080   3.736 -1.7034 -0.7170 -0.4331
 6482SOL     OW37055   3.687   5.057  12.780 -0.0551  0.6640  0.2048
 6482SOL    HW137056   3.767   5.079  12.828  0.9668  0.0006 -1.1286
 6482SOL    HW237057   3.718   5.019  12.698 -1.7336 -1.5138  0.4994
 6483SOL     OW37058  13.990   9.310  12.647 -0.0533  0.1320  0.2108
 6483SOL    HW137059  13.907   9.286  12.606 -0.2965  1.7115 -0.2745
 6483SOL    HW237060  13.966   9.349  12.731  0.1932  0.5574  0.0881
 6484SOL     OW37061   4.056  12.220  12.803  0.3377  0.9200  0.1290
 6484SOL    HW137062   4.125  12.166  12.842 -0.8972 -0.5004  0.4834
 6484SOL    HW237063   4.099  12.302  12.780  1.9073  0.4571  1.2259
 6485SOL     OW37064  11.132  11.380   9.829  0.2005 -0.4637 -0.0542
 6485SOL    HW137065  11.223  11.403   9.812 -0.5935  1.0582 -2.9097
 6485SOL    HW237066  11.104  11.332   9.751 -1.4279 -1.0177  0.8095
 6486SOL     OW37067   1.388   8.222   3.437 -0.2734 -0.1494  0.6955
 6486SOL    HW137068   1.357   8.140   3.475  0.3268 -0.8673 -0.3056
 6486SOL    HW237069   1.355   8.290   3.496  1.2087 -1.2275  2.9115
 6487SOL     OW37070   1.170   0.251   2.267  0.2926  0.3933 -0.1629
 6487SOL    HW137071   1.123   0.186   2.319 -0.6862  0.7216 -0.6202
 6487SOL    HW237072   1.145   0.336   2.305  0.7463  0.5534 -0.2171
 6488SOL     OW37073   8.076   5.622  12.536  0.2700  0.3239  0.4958
 6488SOL    HW137074   8.081   5.600  12.442  0.0294  1.4638  0.2021
 6488SOL    HW237075   8.034   5.545  12.575 -0.1354  0.0551 -0.4176
 6489SOL     OW37076   9.816   7.435   2.734  0.2995 -0.4136  0.2023
 6489SOL    HW137077   9.792   7.343   2.739  0.5176 -0.4379  0.8859
 6489SOL    HW237078   9.911   7.436   2.730  0.4447 -0.1723  2.4232
 6490SOL     OW37079   7.096  12.348  11.570 -0.1279  0.1575  0.6144
 6490SOL    HW137080   7.170  12.311  11.618  1.7761  2.6549 -0.1833
 6490SOL    HW237081   7.126  12.352  11.479 -2.0194 -0.5108 -0.0906
 6491SOL     OW37082   9.286  13.092   6.521 -0.3774 -0.2083 -0.2576
 6491SOL    HW137083   9.334  13.016   6.554 -1.5175 -1.2455 -0.8833
 6491SOL    HW237084   9.351  13.143   6.472  0.8013  0.1841  1.6489
 6492SOL     OW37085   5.618   2.793  13.791  0.6542 -0.5510 -0.1064
 6492SOL    HW137086   5.585   2.709  13.759  0.5028 -0.1015 -1.1648
 6492SOL    HW237087   5.639   2.843  13.712  3.5643 -0.6705  0.4540
 6493SOL     OW37088   9.877  12.478   1.192  0.0930 -0.1960 -0.0307
 6493SOL    HW137089   9.962  12.434   1.196  0.5142  0.6078  0.1174
 6493SOL    HW237090   9.824  12.435   1.259  1.2989  1.1522  1.8675
 6494SOL     OW37091   9.911  13.730   6.687 -0.3736 -0.2848  0.1207
 6494SOL    HW137092   9.923  13.698   6.598 -2.6396 -1.2381  0.1035
 6494SOL    HW237093   9.978  13.797   6.697  1.0736 -1.3717 -1.6788
 6495SOL     OW37094   1.366   6.703   8.721 -0.1757  0.2605 -0.0074
 6495SOL    HW137095   1.365   6.678   8.628  0.7704  1.2523 -0.2998
 6495SOL    HW237096   1.276   6.688   8.750 -0.5415  0.1443 -1.1435
 6496SOL     OW37097   7.983   1.864   0.905  0.4526  0.1809 -0.1349
 6496SOL    HW137098   7.911   1.810   0.937  0.7045 -0.9596 -1.3872
 6496SOL    HW237099   8.059   1.837   0.958  1.0375 -2.2197 -1.9830
 6497SOL     OW37100   9.823   6.668  13.035 -0.3418 -0.2394  0.3604
 6497SOL    HW137101   9.896   6.725  13.060 -0.9365  1.0290 -0.6610
 6497SOL    HW237102   9.786   6.639  13.119  1.0528 -0.5628  0.8880
 6498SOL     OW37103   3.282  13.855   6.388  0.3207 -0.4032 -0.3451
 6498SOL    HW137104   3.258  13.770   6.425 -0.6437  0.6354  1.5798
 6498SOL    HW237105   3.229  13.862   6.308 -1.1506 -0.7950  0.5540
 6499SOL     OW37106   1.589   1.553   4.394 -0.6066  0.1818  0.1651
 6499SOL    HW137107   1.630   1.522   4.313 -1.4605 -0.2521 -0.1202
 6499SOL    HW237108   1.508   1.503   4.400 -0.4047 -0.0234  1.4717
 6500SOL     OW37109   0.623   0.113   6.393  0.3486  0.7249  0.2610
 6500SOL    HW137110   0.635   0.205   6.370  0.9085  0.2793 -1.4073
 6500SOL    HW237111   0.532   0.095   6.372  0.6724  0.5023 -1.0354
 6501SOL     OW37112   1.040   2.090   9.688 -0.1260 -0.1809  0.6263
 6501SOL    HW137113   1.047   2.127   9.600  1.0028  1.8915  1.5373
 6501SOL    HW237114   0.959   2.126   9.723  0.0665  0.0014  0.8861
 6502SOL     OW37115   7.079  12.116  13.202  0.3639  0.1930 -0.5232
 6502SOL    HW137116   7.139  12.046  13.176  0.8961  0.5062 -0.1605
 6502SOL    HW237117   7.045  12.088  13.287  0.0173  0.0326 -0.7125
 6503SOL     OW37118   3.237   0.260   3.631 -0.2406  0.0704  0.5567
 6503SOL    HW137119   3.149   0.245   3.666  0.0029 -2.2992  0.3309
 6503SOL    HW237120   3.270   0.172   3.613  1.1262  1.0106 -1.9923
 6504SOL     OW37121   9.573   7.185   1.781 -0.1351 -0.0300 -0.1293
 6504SOL    HW137122   9.508   7.201   1.850  0.0462 -1.0306  0.2974
 6504SOL    HW237123   9.535   7.222   1.702 -1.0568 -0.2649  0.1970
 6505SOL     OW37124  10.365   5.448   8.343 -0.0714  0.0449 -0.0551
 6505SOL    HW137125  10.396   5.373   8.394 -1.7573 -0.6617  0.0253
 6505SOL    HW237126  10.408   5.438   8.258  0.4551 -0.4806  0.2592
 6506SOL     OW37127   8.872  12.036   7.231 -0.3672  0.2285 -0.4501
 6506SOL    HW137128   8.788  12.062   7.192 -0.5784 -0.2147 -0.3003
 6506SOL    HW237129   8.868  11.940   7.235 -1.1948  0.2835  2.4359
 6507SOL     OW37130   7.067  10.824  11.273 -0.3882  0.2773 -0.0405
 6507SOL    HW137131   6.988  10.792  11.230  0.9267 -1.5607 -1.1989
 6507SOL    HW237132   7.139  10.795  11.218  1.2481 -0.0786  2.1309
 6508SOL     OW37133   2.052   1.864   3.616  0.5157  0.1725 -0.2494
 6508SOL    HW137134   2.014   1.878   3.702 -0.4345 -0.2277 -0.5986
 6508SOL    HW237135   2.038   1.947   3.570  0.5053  0.1921 -0.2106
 6509SOL     OW37136  11.896   6.284   2.640 -0.0442 -0.5069  0.3665
 6509SOL    HW137137  11.903   6.354   2.575  1.2552 -1.7428 -0.8758
 6509SOL    HW237138  11.802   6.281   2.661 -0.0722  1.9777  0.9410
 6510SOL     OW37139  10.607  10.539   0.751  0.5848  0.3428  0.1124
 6510SOL    HW137140  10.546  10.540   0.825  0.4647 -0.9363  0.0587
 6510SOL    HW237141  10.656  10.621   0.758  0.5945  0.2280  1.6294
 6511SOL     OW37142  12.672   6.495   6.427  0.2139 -0.3681 -0.2149
 6511SOL    HW137143  12.664   6.590   6.418 -0.6397 -0.4748 -0.6226
 6511SOL    HW237144  12.602   6.470   6.487 -0.2439 -0.8668 -0.9419
 6512SOL     OW37145   2.449   2.397  11.971  0.0990  0.1305  0.0672
 6512SOL    HW137146   2.533   2.397  12.018  0.6688 -1.6776 -0.8454
 6512SOL    HW237147   2.474   2.399  11.878 -0.8637 -0.8011 -0.2235
 6513SOL     OW37148  10.006   2.103   4.063  0.3669  0.7429  0.3457
 6513SOL    HW137149  10.065   2.141   3.998 -0.3859  1.0073 -0.1873
 6513SOL    HW237150   9.933   2.164   4.068 -0.5374 -0.2970 -0.0286
 6514SOL     OW37151   4.347  10.994  10.793 -0.0867  0.6079  0.1260
 6514SOL    HW137152   4.282  11.063  10.776  0.4897  1.0320 -0.4044
 6514SOL    HW237153   4.352  10.990  10.889 -2.0281 -0.5326  0.2117
 6515SOL     OW37154   4.098   5.978   7.306  0.1603  0.1106  0.1802
 6515SOL    HW137155   4.012   6.011   7.280 -0.2828 -0.9729  0.2282
 6515SOL    HW237156   4.158   6.014   7.241 -0.2808  1.0937  0.2974
 6516SOL     OW37157   8.509   0.571   7.568  0.1431  0.3809 -0.0675
 6516SOL    HW137158   8.485   0.518   7.645  1.4751  0.0241  0.1201
 6516SOL    HW237159   8.455   0.536   7.497 -1.1530  0.7555  0.7019
 6517SOL     OW37160   5.865   7.535   0.434 -0.1596  0.0325  0.5026
 6517SOL    HW137161   5.894   7.622   0.463 -0.6717  0.2696  0.3160
 6517SOL    HW237162   5.770   7.541   0.433 -0.2758 -1.0312  2.0571
 6518SOL     OW37163   0.838   5.368   8.822  0.0761  0.3022  1.1593
 6518SOL    HW137164   0.906   5.387   8.886  2.4374  0.5105 -1.2448
 6518SOL    HW237165   0.864   5.416   8.744 -3.5326  1.3595  0.4219
 6519SOL     OW37166   3.670   8.446   1.464  0.9075 -0.8796  0.9698
 6519SOL    HW137167   3.603   8.440   1.532 -0.0841  0.4117  0.1523
 6519SOL    HW237168   3.646   8.379   1.400 -0.7670  0.7379 -0.2304
 6520SOL     OW37169   6.437  11.120   4.034  0.0074 -0.1169  0.0474
 6520SOL    HW137170   6.472  11.193   3.982 -2.6005  0.1969 -1.4442
 6520SOL    HW237171   6.443  11.044   3.976 -2.6388  0.1717 -0.7243
 6521SOL     OW37172   0.891   3.095   6.209  0.1749  0.1069  0.0340
 6521SOL    HW137173   0.898   3.137   6.123  0.4088  1.5559  0.7376
 6521SOL    HW237174   0.981   3.093   6.242 -0.0258  0.3298  0.6041
 6522SOL     OW37175   4.379   2.644  10.874 -0.1493 -0.3386 -0.2505
 6522SOL    HW137176   4.426   2.637  10.957  1.1022 -1.8564 -1.0329
 6522SOL    HW237177   4.407   2.567  10.824 -3.3042 -1.2034 -0.8800
 6523SOL     OW37178  13.534   6.974  10.137  0.4117 -0.1105 -0.4098
 6523SOL    HW137179  13.557   6.997  10.047 -0.8405  1.2184 -0.4266
 6523SOL    HW237180  13.617   6.969  10.183  0.9502  1.0922 -1.2161
 6524SOL     OW37181   8.864  13.582   2.634 -0.1313  0.4664 -0.3091
 6524SOL    HW137182   8.940  13.638   2.651 -0.0313  0.6955 -1.4088
 6524SOL    HW237183   8.808  13.594   2.711  1.0065  0.1570  0.6054
 6525SOL     OW37184  13.931  11.218   6.866  0.0308 -0.1747 -0.5229
 6525SOL    HW137185  13.941  11.204   6.960 -0.8173  0.8955 -0.2601
 6525SOL    HW237186  14.013  11.261   6.840  0.0855 -0.0720 -0.1875
 6526SOL     OW37187   7.890  13.514  12.886  0.0854  0.3072  0.1061
 6526SOL    HW137188   7.827  13.516  12.958 -0.4481  1.3777 -0.3599
 6526SOL    HW237189   7.954  13.581  12.909  0.8102 -0.4540  0.3471
 6527SOL     OW37190  10.428   3.984  13.868  0.1716 -0.1782 -0.6392
 6527SOL    HW137191  10.466   3.898  13.853  1.7396  0.1154  1.2746
 6527SOL    HW237192  10.502   4.045  13.863 -0.3130  0.6423  1.2830
 6528SOL     OW37193   5.250   3.220   2.519 -0.0392  0.3374 -0.3834
 6528SOL    HW137194   5.287   3.172   2.593 -3.3031 -1.3775  0.3408
 6528SOL    HW237195   5.226   3.305   2.556  0.3598  0.3073 -0.0501
 6529SOL     OW37196   2.640   0.892   8.948  0.3665 -0.0782  0.4435
 6529SOL    HW137197   2.648   0.964   8.886 -0.6974 -1.2301 -1.1160
 6529SOL    HW237198   2.552   0.903   8.985  0.0550 -0.7381 -0.0694
 6530SOL     OW37199  10.128  12.038   8.158 -0.1352  0.1014  0.0782
 6530SOL    HW137200  10.036  12.021   8.178 -0.6660  2.0027 -0.5631
 6530SOL    HW237201  10.172  12.034   8.242 -1.3477  2.2209  0.8805
 6531SOL     OW37202   6.107   4.201  12.785 -0.0593  0.1628 -0.2178
 6531SOL    HW137203   6.165   4.127  12.806 -0.2697  0.7378  2.8980
 6531SOL    HW237204   6.048   4.168  12.718  0.7700 -2.0415  0.0701
 6532SOL     OW37205   6.507   5.166   2.060  0.7051 -0.4042 -0.3768
 6532SOL    HW137206   6.435   5.111   2.089  1.4670 -0.4907  1.4847
 6532SOL    HW237207   6.493   5.175   1.966 -2.4413  0.6384  0.0629
 6533SOL     OW37208   4.315   1.469   9.685  0.2167  0.5882 -0.2501
 6533SOL    HW137209   4.391   1.420   9.717 -0.7701 -0.5767  0.4040
 6533SOL    HW237210   4.349   1.557   9.668  1.6458  0.1804  0.2984
 6534SOL     OW37211   1.029   7.847   7.591 -0.1331 -0.5015  0.7170
 6534SOL    HW137212   0.941   7.872   7.620  0.0204 -0.3796  1.0831
 6534SOL    HW237213   1.024   7.848   7.495 -0.0597  1.1481  0.7076
 6535SOL     OW37214   0.882   8.559  13.658  0.3026  0.0578  0.3799
 6535SOL    HW137215   0.867   8.584  13.567  0.6395 -0.2006  0.2536
 6535SOL    HW237216   0.966   8.599  13.681  1.3351 -1.7054 -0.1238
 6536SOL     OW37217  13.155   6.973   6.458 -0.3152  0.2217  0.6998
 6536SOL    HW137218  13.219   7.023   6.406  2.2349 -1.7871  1.7196
 6536SOL    HW237219  13.179   6.991   6.549 -2.0772  0.3989  1.1667
 6537SOL     OW37220   3.909   3.038  13.047 -0.2423 -0.1789  0.2413
 6537SOL    HW137221   3.992   3.071  13.081 -0.5679  0.9194 -0.0168
 6537SOL    HW237222   3.887   2.965  13.106  0.5939 -0.0824  0.6842
 6538SOL     OW37223   3.470  10.798  12.708 -0.0520  0.0225  0.1369
 6538SOL    HW137224   3.396  10.747  12.740 -0.2734  0.2832  0.0387
 6538SOL    HW237225   3.493  10.857  12.780 -0.2379  0.2667 -0.0026
 6539SOL     OW37226   0.267   5.352   5.154 -0.5068 -0.1067  0.0923
 6539SOL    HW137227   0.287   5.316   5.068 -2.0786 -1.0199  0.0847
 6539SOL    HW237228   0.318   5.433   5.158 -0.5496  0.0546 -1.7658
 6540SOL     OW37229   2.189  10.001   9.755 -0.2780 -0.1334  0.0303
 6540SOL    HW137230   2.106   9.962   9.782  0.0052 -0.5715  0.2808
 6540SOL    HW237231   2.220  10.048   9.832  1.5351 -3.0591  1.2549
 6541SOL     OW37232   4.935   2.501  12.254 -0.0094 -0.0293 -0.4610
 6541SOL    HW137233   4.946   2.457  12.338  0.8847 -2.2084 -1.6376
 6541SOL    HW237234   4.991   2.579  12.260  1.2729 -0.9801  0.4248
 6542SOL     OW37235   2.922   3.230   1.308 -0.4372  0.2513  0.1099
 6542SOL    HW137236   3.012   3.198   1.302  0.3032  2.2806 -0.1027
 6542SOL    HW237237   2.885   3.215   1.221 -0.2834 -0.4712  0.1621
 6543SOL     OW37238   4.067   0.109   4.588  0.0839  0.1323 -0.3100
 6543SOL    HW137239   3.992   0.138   4.641  0.2305 -0.3887  0.1901
 6543SOL    HW237240   4.141   0.111   4.648  0.7233  1.7750 -1.1026
 6544SOL     OW37241  12.552   8.554   3.908  0.6439  0.2832  0.2062
 6544SOL    HW137242  12.581   8.465   3.927  0.8515  0.3579  0.2435
 6544SOL    HW237243  12.630   8.599   3.877  0.4816  0.3828 -0.0666
 6545SOL     OW37244  12.818   1.840   4.882  0.4143  0.6178  0.4990
 6545SOL    HW137245  12.804   1.746   4.877 -0.4198  0.7321  0.5424
 6545SOL    HW237246  12.730   1.877   4.893  0.6480  1.4542 -0.2843
 6546SOL     OW37247   1.883   0.218   6.618 -0.4635 -0.3286  0.2313
 6546SOL    HW137248   1.893   0.179   6.531  1.0470 -1.9561  1.0756
 6546SOL    HW237249   1.819   0.162   6.662  1.3728 -1.7086  1.2957
 6547SOL     OW37250   7.589   9.387   3.159 -0.2258  0.3204  0.6184
 6547SOL    HW137251   7.547   9.468   3.187 -1.4311  0.2412 -0.8178
 6547SOL    HW237252   7.526   9.347   3.099  1.3376 -0.5300 -0.5174
 6548SOL     OW37253  12.506  13.316   3.432 -0.5081  0.1943  0.6077
 6548SOL    HW137254  12.535  13.256   3.364  1.0889  1.2228  0.3302
 6548SOL    HW237255  12.522  13.269   3.514  1.5163  0.5077  0.4359
 6549SOL     OW37256   6.394   4.078  14.033  0.6554  0.1967  0.0054
 6549SOL    HW137257   6.368   3.991  14.000  1.1518  0.5118 -1.2884
 6549SOL    HW237258   6.481   4.065  14.068  0.8680  0.2268 -0.4980
 6550SOL     OW37259   4.073  10.910   9.064 -0.0951 -0.2351  0.5228
 6550SOL    HW137260   4.000  10.867   9.108  0.8019 -0.3924  1.9303
 6550SOL    HW237261   4.151  10.864   9.097  0.6642  0.1291 -0.6960
 6551SOL     OW37262  12.086  13.099   7.001 -0.1019 -0.2607  0.7192
 6551SOL    HW137263  12.126  13.056   7.076  0.7481  1.6277  1.4063
 6551SOL    HW237264  12.138  13.178   6.987 -0.3249 -0.4616 -1.7759
 6552SOL     OW37265   6.486  10.265   9.184 -0.0765  0.3818 -0.7219
 6552SOL    HW137266   6.497  10.360   9.197  2.0956  0.4491 -2.4914
 6552SOL    HW237267   6.573  10.229   9.197 -1.2544 -1.8157  2.2787
 6553SOL     OW37268   2.994   0.679   2.974  0.3286  0.1233 -0.3790
 6553SOL    HW137269   3.038   0.688   3.058  0.6975  0.7501 -0.6278
 6553SOL    HW237270   2.991   0.585   2.958 -0.1065 -0.0277  0.5129
 6554SOL     OW37271  12.207   3.133   7.083 -0.1345 -1.0328  0.4307
 6554SOL    HW137272  12.282   3.095   7.129  0.5055 -1.4067 -0.8923
 6554SOL    HW237273  12.174   3.201   7.143  3.8196  2.1381 -0.5606
 6555SOL     OW37274   9.454  12.486   7.221 -0.3990  0.3735 -0.2531
 6555SOL    HW137275   9.479  12.518   7.135  0.4562 -0.4732 -0.3408
 6555SOL    HW237276   9.510  12.410   7.235 -0.5759  0.4566  1.0206
 6556SOL     OW37277   5.863   1.592   7.135  0.6605 -0.2530 -0.1233
 6556SOL    HW137278   5.865   1.507   7.180  0.7465 -0.0726  0.2146
 6556SOL    HW237279   5.843   1.655   7.204 -0.1117 -0.0781 -0.5033
 6557SOL     OW37280   5.393   3.993  12.368  0.8832  0.0150  0.7435
 6557SOL    HW137281   5.307   4.001  12.410  0.9549  2.3654  0.5770
 6557SOL    HW237282   5.388   3.911  12.319 -0.7205 -0.6579  1.9354
 6558SOL     OW37283  10.500   4.988  13.088 -0.0175  0.4904  0.4547
 6558SOL    HW137284  10.460   4.964  13.004  2.3032  2.9841 -1.5417
 6558SOL    HW237285  10.500   4.907  13.138 -1.2449 -1.1970 -2.0512
 6559SOL     OW37286  11.577  11.006   0.551 -0.5106 -0.1802 -0.0737
 6559SOL    HW137287  11.595  11.003   0.645 -1.0933  0.0394  0.0502
 6559SOL    HW237288  11.515  11.077   0.541 -0.5745 -0.3078 -0.6089
 6560SOL     OW37289   5.090   1.129   0.912  0.3781 -0.2065  0.1575
 6560SOL    HW137290   5.123   1.040   0.903 -0.8411 -0.8887  1.8236
 6560SOL    HW237291   5.143   1.168   0.980  0.6555  0.2301 -0.2996
 6561SOL     OW37292   1.168   6.261   3.514  0.1922 -0.1496 -0.8703
 6561SOL    HW137293   1.082   6.292   3.486 -0.2784 -0.3325  0.3175
 6561SOL    HW237294   1.229   6.329   3.484 -0.4952  0.5217 -0.7923
 6562SOL     OW37295   5.780   9.516   3.134 -0.0255 -0.1988 -0.1955
 6562SOL    HW137296   5.831   9.498   3.055  0.4259 -1.9632  0.4393
 6562SOL    HW237297   5.846   9.524   3.203 -0.3404  2.3300 -0.0955
 6563SOL     OW37298  11.621   4.715  10.117  0.7963  0.1734 -0.1150
 6563SOL    HW137299  11.562   4.781  10.155  0.8735 -0.3290  0.9059
 6563SOL    HW237300  11.687   4.767  10.072 -0.6236  0.7486 -1.6503
 6564SOL     OW37301   8.576  10.299   3.868 -0.3834  0.5726  0.7140
 6564SOL    HW137302   8.511  10.352   3.821 -0.9688 -0.9649 -0.3115
 6564SOL    HW237303   8.555  10.209   3.843  0.1210 -0.2261  2.9430
 6565SOL     OW37304   7.721   8.620  11.757 -0.2061 -0.0331 -0.1782
 6565SOL    HW137305   7.789   8.624  11.691 -0.4351  2.0373 -0.3578
 6565SOL    HW237306   7.642   8.596  11.709 -0.1091  0.1433 -0.4284
 6566SOL     OW37307  12.350  12.207   2.274 -0.3839 -0.8812  0.2588
 6566SOL    HW137308  12.415  12.235   2.338  0.1610 -1.4325 -0.0416
 6566SOL    HW237309  12.321  12.288   2.232  0.3565 -0.6545  0.1699
 6567SOL     OW37310   4.393   3.228  12.195  0.8652 -0.3853  0.3392
 6567SOL    HW137311   4.344   3.149  12.219  0.2441 -0.8600 -2.2030
 6567SOL    HW237312   4.483   3.197  12.182  0.9711 -0.3338  0.9188
 6568SOL     OW37313   6.458   5.082   5.790 -0.5957  0.0659 -0.2329
 6568SOL    HW137314   6.508   5.136   5.729 -2.4147 -0.0580 -1.9201
 6568SOL    HW237315   6.515   5.007   5.808  0.7106  1.0149 -0.2996
 6569SOL     OW37316  10.505   2.905  13.893 -0.1338  0.9602 -0.1572
 6569SOL    HW137317  10.510   2.973  13.961 -1.0622 -0.9573  1.9686
 6569SOL    HW237318  10.416   2.870  13.902  0.7051 -1.3285 -0.3222
 6570SOL     OW37319   7.377   5.827  14.033 -0.0584  0.2790 -0.2767
 6570SOL    HW137320   7.313   5.831  13.962  0.4422 -0.0150 -0.7523
 6570SOL    HW237321   7.387   5.733  14.051  0.1797  0.3275 -0.1470
 6571SOL     OW37322  13.330   9.319   6.098 -0.8296 -0.1670  0.2458
 6571SOL    HW137323  13.268   9.250   6.123 -0.7748 -0.1199  0.5143
 6571SOL    HW237324  13.275   9.393   6.073 -0.8893  0.0389  0.9390
 6572SOL     OW37325  13.974   6.761  12.770  0.8090 -0.0995 -0.3682
 6572SOL    HW137326  13.954   6.794  12.682 -0.0715 -0.0921 -0.1771
 6572SOL    HW237327  14.068   6.774  12.780  0.6104  1.7730 -0.5564
 6573SOL     OW37328   4.568   0.078   6.315  0.3909  0.4233  0.1376
 6573SOL    HW137329   4.543   0.013   6.380  0.4484  0.0701 -0.1944
 6573SOL    HW237330   4.517   0.056   6.237 -0.6836  1.6493  0.4710
 6574SOL     OW37331   4.493   9.041  12.882 -0.1694  0.5424 -0.4372
 6574SOL    HW137332   4.462   9.116  12.931 -0.4150  0.0528  0.1687
 6574SOL    HW237333   4.415   8.988  12.866  0.1218  0.0038 -0.1309
 6575SOL     OW37334   0.791   1.962   5.844 -0.4359  0.1139  0.1927
 6575SOL    HW137335   0.697   1.947   5.832 -0.2468 -0.2381 -0.9819
 6575SOL    HW237336   0.821   1.886   5.895 -0.7894  0.2409  0.5949
 6576SOL     OW37337   5.508   3.964   2.687  0.0180  0.3805  0.3537
 6576SOL    HW137338   5.588   4.006   2.655 -0.0140 -0.2353 -0.5741
 6576SOL    HW237339   5.530   3.871   2.690 -1.1859 -0.0168 -1.6173
 6577SOL     OW37340   7.713   8.879   4.259 -0.2735  0.0121 -0.7330
 6577SOL    HW137341   7.766   8.805   4.230 -0.9773 -0.8960  0.2276
 6577SOL    HW237342   7.670   8.848   4.339 -0.9934  1.2802 -0.6024
 6578SOL     OW37343   6.201   3.681  13.668 -0.2223  0.0614  0.4434
 6578SOL    HW137344   6.192   3.636  13.584 -2.5060  0.6823  0.3021
 6578SOL    HW237345   6.223   3.772  13.645  1.7155 -0.3108  0.6472
 6579SOL     OW37346   1.309   8.015   3.601  0.3546 -0.4541  0.2045
 6579SOL    HW137347   1.251   8.050   3.668  2.5274  0.4095  1.7537
 6579SOL    HW237348   1.281   7.924   3.590 -1.0482 -0.1620  1.1175
 6580SOL     OW37349   3.532   9.790  11.842 -0.4891  0.0859 -0.2855
 6580SOL    HW137350   3.480   9.808  11.764 -0.8654  0.6567  0.0852
 6580SOL    HW237351   3.584   9.713  11.819 -1.7458 -0.7134 -0.5459
 6581SOL     OW37352   0.976   1.296   4.566 -0.1801 -0.0656 -0.1488
 6581SOL    HW137353   0.992   1.266   4.476 -0.2067  1.0628 -0.5544
 6581SOL    HW237354   0.918   1.372   4.555 -0.3621 -0.0514  0.8419
 6582SOL     OW37355   3.050   2.932   1.042  0.2110 -0.2542  0.4651
 6582SOL    HW137356   3.128   2.985   1.024 -0.7450  1.0028 -0.1268
 6582SOL    HW237357   3.014   2.912   0.956 -0.9591  0.4937  0.7587
 6583SOL     OW37358   1.098   6.742   0.940  0.8442  0.3516  0.1876
 6583SOL    HW137359   1.129   6.804   1.006  3.3098  0.0529 -0.6007
 6583SOL    HW237360   1.164   6.673   0.938  1.0213  0.4691 -2.7263
 6584SOL     OW37361   9.016   1.801   2.832  0.1478  0.0990  0.0224
 6584SOL    HW137362   8.922   1.786   2.817 -0.1747  1.4534  0.5115
 6584SOL    HW237363   9.020   1.890   2.867  1.3924 -0.7613  2.2718
 6585SOL     OW37364   2.960   3.426  13.813 -0.5803  0.1449  0.1005
 6585SOL    HW137365   2.989   3.494  13.753  0.7065  0.1227  0.6564
 6585SOL    HW237366   3.029   3.422  13.880 -1.1850 -0.9267  0.6954
 6586SOL     OW37367   1.227   1.525   0.776  0.0347 -0.7002 -0.6069
 6586SOL    HW137368   1.176   1.453   0.814  3.5806 -2.1608  1.9899
 6586SOL    HW237369   1.202   1.601   0.827  0.1971 -1.3501  0.4864
 6587SOL     OW37370   7.830   2.763   2.522  0.2539  0.5367 -0.4094
 6587SOL    HW137371   7.875   2.680   2.537 -0.0577  0.2577 -0.9934
 6587SOL    HW237372   7.857   2.818   2.596  1.0066  0.1532 -0.3865
 6588SOL     OW37373   6.806   7.769   2.220  0.1652  0.2028  0.7596
 6588SOL    HW137374   6.828   7.832   2.288 -1.2049  1.4052  0.1322
 6588SOL    HW237375   6.873   7.781   2.153  0.5782  0.1514  1.1588
 6589SOL     OW37376   8.238   6.825   4.206  0.2732 -0.2260 -0.0723
 6589SOL    HW137377   8.258   6.903   4.154 -0.5709  0.7241  0.9826
 6589SOL    HW237378   8.322   6.798   4.242  0.7079 -0.3172 -1.1199
 6590SOL     OW37379   4.615   5.896   2.522  0.0728 -0.0636 -0.2420
 6590SOL    HW137380   4.607   5.871   2.614  0.6417  2.2958  0.5129
 6590SOL    HW237381   4.573   5.825   2.474  0.1109 -1.5395  1.8028
 6591SOL     OW37382   8.314   5.174  11.038 -0.2547  0.0060  0.1082
 6591SOL    HW137383   8.270   5.239  11.092 -0.0952 -1.2536  1.8546
 6591SOL    HW237384   8.245   5.112  11.014  0.2036 -1.1407  1.5742
 6592SOL     OW37385  10.335   9.648  12.282  0.5628  0.5699  0.2940
 6592SOL    HW137386  10.391   9.635  12.205 -0.8266 -0.0494 -0.6435
 6592SOL    HW237387  10.255   9.600  12.262 -0.0749  0.9249  1.8769
 6593SOL     OW37388   8.720   5.735  13.192 -0.3282  0.8710 -0.1755
 6593SOL    HW137389   8.673   5.715  13.111  2.1752  0.1939 -1.5979
 6593SOL    HW237390   8.658   5.713  13.262 -1.5283 -1.6521 -1.8536
 6594SOL     OW37391   3.018   7.661   5.320 -0.2712  0.0186 -0.0265
 6594SOL    HW137392   3.091   7.631   5.375 -1.1642 -0.9398  0.6564
 6594SOL    HW237393   2.940   7.650   5.374 -1.0699 -0.0867 -1.1554
 6595SOL     OW37394   3.089   0.880   0.644 -0.2466  0.0601  0.8736
 6595SOL    HW137395   3.065   0.824   0.570  0.1468  1.0211 -0.0047
 6595SOL    HW237396   3.008   0.922   0.670 -0.5611 -0.9650  1.5914
 6596SOL     OW37397   3.737   6.362   6.021  0.6134 -0.1869  0.0693
 6596SOL    HW137398   3.668   6.417   6.059  0.6868  0.1697 -0.3109
 6596SOL    HW237399   3.758   6.299   6.090  0.7209  0.4343  0.6064
 6597SOL     OW37400   7.678   2.758  12.040  0.0995 -0.1092 -0.0815
 6597SOL    HW137401   7.727   2.700  12.098 -0.7076 -1.1690 -0.4336
 6597SOL    HW237402   7.644   2.826  12.097  0.6783 -0.2337  0.4186
 6598SOL     OW37403   2.547   4.131   7.746  0.1218  0.3232  0.1164
 6598SOL    HW137404   2.540   4.047   7.791 -1.8807  0.8159  0.8544
 6598SOL    HW237405   2.637   4.160   7.762  0.1531 -0.6044  1.8316
 6599SOL     OW37406   0.626   6.650   3.593 -0.2164  0.6214  0.6318
 6599SOL    HW137407   0.585   6.576   3.638  0.0177  0.8386  1.2207
 6599SOL    HW237408   0.572   6.664   3.516  0.4004 -0.8884 -0.1063
 6600SOL     OW37409   7.166   4.117   3.786  0.0983 -0.6265 -0.2690
 6600SOL    HW137410   7.162   4.213   3.792 -0.2609 -0.4456 -2.6175
 6600SOL    HW237411   7.199   4.090   3.872  1.9551  1.7121 -0.1229
 6601SOL     OW37412   5.168   5.437   1.264 -0.4120 -0.0237 -0.0889
 6601SOL    HW137413   5.181   5.481   1.180 -2.0261 -0.6176 -0.6856
 6601SOL    HW237414   5.219   5.489   1.326  0.8019  0.4387 -1.4075
 6602SOL     OW37415  12.311   7.109   5.837  0.5442 -0.0798  0.0374
 6602SOL    HW137416  12.225   7.150   5.845  0.8337  0.6671 -0.5338
 6602SOL    HW237417  12.293   7.015   5.837 -0.4663  0.0728 -1.8596
 6603SOL     OW37418   3.105   5.088   6.852 -0.2421 -0.3393  0.1270
 6603SOL    HW137419   3.183   5.121   6.896 -0.2587 -1.9247  1.4565
 6603SOL    HW237420   3.040   5.158   6.864  0.6832  0.6059 -0.1962
 6604SOL     OW37421  10.079   5.332   4.085 -0.3482 -0.1221 -0.1670
 6604SOL    HW137422   9.987   5.330   4.112 -0.3252  0.4058 -0.0350
 6604SOL    HW237423  10.127   5.347   4.167 -0.1673 -0.0946 -0.2787
 6605SOL     OW37424   8.552   3.673   7.491 -0.0401 -0.2019 -0.1995
 6605SOL    HW137425   8.540   3.609   7.561 -0.3882 -0.8305 -0.8118
 6605SOL    HW237426   8.513   3.631   7.414  0.8801  0.2058 -0.9080
 6606SOL     OW37427   6.949  10.413   2.853  0.4130 -0.0102 -0.4855
 6606SOL    HW137428   6.887  10.455   2.793 -0.6148 -0.6702  0.0752
 6606SOL    HW237429   6.918  10.323   2.861 -0.1377  0.3021  1.8278
 6607SOL     OW37430   0.315   0.993  11.577 -0.1537  0.0249 -0.2374
 6607SOL    HW137431   0.232   0.980  11.623 -0.3716  0.5344 -0.4763
 6607SOL    HW237432   0.327   0.912  11.526  1.0331 -1.3764  2.1056
 6608SOL     OW37433   7.305   8.829  13.562 -0.3404 -0.1496 -0.2165
 6608SOL    HW137434   7.308   8.907  13.617  0.1893 -0.5579  0.3411
 6608SOL    HW237435   7.212   8.819  13.539 -0.6194 -0.1577  0.8646
 6609SOL     OW37436   7.737   5.225   2.702 -0.0283 -0.6290 -0.5535
 6609SOL    HW137437   7.810   5.268   2.746 -0.0479  0.5224 -1.5844
 6609SOL    HW237438   7.761   5.226   2.609 -0.9750 -0.9927 -0.8139
 6610SOL     OW37439   3.740   7.186   9.774  0.2220  0.0794 -0.6913
 6610SOL    HW137440   3.717   7.113   9.831 -1.8135  0.7542 -0.5900
 6610SOL    HW237441   3.836   7.180   9.766  0.2357 -1.8518  0.2775
 6611SOL     OW37442  13.842   3.420   6.346  0.0797  0.5466 -0.2913
 6611SOL    HW137443  13.813   3.483   6.280 -1.0070  0.5459  0.1765
 6611SOL    HW237444  13.782   3.346   6.337  0.7804 -0.0414 -0.2236
 6612SOL     OW37445   1.299   2.447   9.005  0.0594 -0.2464  0.6089
 6612SOL    HW137446   1.381   2.460   9.053  0.1774 -3.0823  1.3955
 6612SOL    HW237447   1.240   2.513   9.040  1.8384  1.5950  0.3296
 6613SOL     OW37448   3.713  11.966   0.835  0.4515  0.3834 -0.1072
 6613SOL    HW137449   3.736  11.874   0.846  0.1237  0.3918  0.6715
 6613SOL    HW237450   3.767  11.995   0.761  0.2441 -0.5371 -0.6463
 6614SOL     OW37451  12.096   2.364  11.022 -0.3300 -0.4429  0.3643
 6614SOL    HW137452  12.081   2.269  11.027  1.2095 -0.7934 -0.9305
 6614SOL    HW237453  12.012   2.403  11.046 -1.1191 -2.1414  0.4814
 6615SOL     OW37454   7.225  12.290   5.349 -1.0809  0.1849 -0.0594
 6615SOL    HW137455   7.311  12.302   5.308  0.0167 -0.7799  1.8284
 6615SOL    HW237456   7.192  12.379   5.362  0.7876  0.7145  1.4752
 6616SOL     OW37457   7.109   2.941   3.515 -0.2642  0.7641 -0.0656
 6616SOL    HW137458   7.184   2.978   3.561  0.1832 -0.0157 -0.1362
 6616SOL    HW237459   7.129   2.955   3.422 -0.9233  1.8804 -0.0563
 6617SOL     OW37460   1.236   0.083  11.053  0.8105 -0.0790 -0.8750
 6617SOL    HW137461   1.319   0.084  11.006  0.7334  0.5362 -1.0039
 6617SOL    HW237462   1.178   0.139  11.001  0.8960  1.1016  0.2628
 6618SOL     OW37463   3.000   2.176   3.119  0.2593 -0.9506  0.0091
 6618SOL    HW137464   3.015   2.236   3.046  0.6144  0.8658  1.5314
 6618SOL    HW237465   3.011   2.089   3.080  0.6006 -0.0444 -2.0571
 6619SOL     OW37466   5.536   3.769   2.290  0.6333 -0.6850 -0.6737
 6619SOL    HW137467   5.516   3.676   2.285  0.9111 -0.7337 -0.9685
 6619SOL    HW237468   5.458   3.813   2.256  0.2200 -0.7712  0.1265
 6620SOL     OW37469   0.545   0.370   9.291  0.0782  0.3178  0.4099
 6620SOL    HW137470   0.533   0.446   9.234  2.3146  0.1953 -0.3566
 6620SOL    HW237471   0.527   0.294   9.235 -1.4008  0.2285  0.9623
 6621SOL     OW37472   8.101  12.740   7.923  0.1348 -0.1009  0.1568
 6621SOL    HW137473   8.012  12.756   7.891  0.4833  0.9807 -0.3014
 6621SOL    HW237474   8.095  12.757   8.017  0.2116  1.6400 -0.1246
 6622SOL     OW37475   9.496   0.497  13.494 -0.0782  0.2609  0.4333
 6622SOL    HW137476   9.530   0.580  13.459  1.4933 -0.8602 -0.8202
 6622SOL    HW237477   9.403   0.498  13.472  0.2986  0.8669 -1.2765
 6623SOL     OW37478   2.975   3.577   3.725  0.3011  0.6075 -0.0051
 6623SOL    HW137479   2.945   3.618   3.644 -1.7052 -0.0489  0.3609
 6623SOL    HW237480   2.943   3.634   3.795 -0.7217 -0.4595  0.4267
 6624SOL     OW37481   6.600  10.829  13.257 -0.2848  0.0360 -0.4632
 6624SOL    HW137482   6.616  10.735  13.258  0.5319  0.1719  0.1353
 6624SOL    HW237483   6.662  10.863  13.193 -1.1410  0.0849 -1.2865
 6625SOL     OW37484   9.114  14.037  13.433 -0.3170  0.2859  0.3582
 6625SOL    HW137485   9.198  14.021  13.391 -1.0493  0.5703 -1.3307
 6625SOL    HW237486   9.050  14.030  13.361 -1.6010  1.3183  1.3487
 6626SOL     OW37487  12.512   4.303   2.094  0.2634  0.1698 -0.1519
 6626SOL    HW137488  12.584   4.360   2.120 -0.1292  0.6334 -0.0856
 6626SOL    HW237489  12.433   4.352   2.114 -0.0612  0.1720 -1.3584
 6627SOL     OW37490   6.091   7.347   2.774 -0.1281  0.2863  0.3489
 6627SOL    HW137491   6.015   7.300   2.808  0.2220 -0.1713  0.5072
 6627SOL    HW237492   6.162   7.284   2.777 -0.1825  0.0283 -1.7489
 6628SOL     OW37493   7.766  13.348  13.877  0.1471 -0.0810  0.9065
 6628SOL    HW137494   7.806  13.282  13.933 -0.2696  0.1093  1.4316
 6628SOL    HW237495   7.700  13.389  13.931 -0.1737  0.1982  0.3165
 6629SOL     OW37496   0.553   8.546   8.234  0.3893  0.7606  0.2987
 6629SOL    HW137497   0.646   8.547   8.210  0.2533  0.6789 -0.2438
 6629SOL    HW237498   0.510   8.594   8.164 -0.0956 -0.0413  0.0273
 6630SOL     OW37499   7.285  11.189  13.666 -0.5739  0.2875 -0.1267
 6630SOL    HW137500   7.190  11.179  13.662 -0.6208 -0.2283  1.5096
 6630SOL    HW237501   7.318  11.100  13.685  0.2737  0.3642 -1.1668
 6631SOL     OW37502   7.976   8.065   0.308  0.1006  0.8871 -0.1121
 6631SOL    HW137503   7.888   8.029   0.319  0.9553 -1.1175  0.5615
 6631SOL    HW237504   8.000   8.097   0.395  0.0413  1.4250 -0.2928
 6632SOL     OW37505   4.679   7.016  13.791  0.3420  0.2588  0.0358
 6632SOL    HW137506   4.663   6.954  13.720 -1.7650 -0.1740  0.8304
 6632SOL    HW237507   4.772   7.006  13.811  0.4235 -1.4114 -0.9832
 6633SOL     OW37508   5.201   2.318   8.731 -0.3959  0.0139 -0.7442
 6633SOL    HW137509   5.234   2.402   8.698  0.7746 -1.1195 -2.6590
 6633SOL    HW237510   5.279   2.265   8.745 -1.1483 -0.9673 -0.1517
 6634SOL     OW37511   4.425   4.409   4.046  0.2869 -0.2391 -0.4674
 6634SOL    HW137512   4.484   4.364   3.985 -0.0154 -1.6053  0.2087
 6634SOL    HW237513   4.343   4.418   3.998  0.2375 -0.7564 -0.4876
 6635SOL     OW37514   7.208   3.092  10.109  0.0577 -0.1756  0.1915
 6635SOL    HW137515   7.130   3.142  10.135  0.0187  0.1426 -0.5165
 6635SOL    HW237516   7.230   3.040  10.186 -0.2520  0.4986  0.7487
 6636SOL     OW37517  12.109  10.345   5.670  0.0577 -0.3116 -0.7506
 6636SOL    HW137518  12.204  10.333   5.664  0.2205  0.9146 -0.8387
 6636SOL    HW237519  12.096  10.439   5.660 -1.0329 -0.2442  0.8726
 6637SOL     OW37520  11.131   8.613   2.263 -0.4470  0.6445 -0.2232
 6637SOL    HW137521  11.085   8.541   2.219  0.0888 -0.5641  1.1171
 6637SOL    HW237522  11.224   8.593   2.251 -0.2883  0.3486  1.3171
 6638SOL     OW37523   9.955   2.754  12.821  0.2229 -0.1946 -0.0716
 6638SOL    HW137524  10.011   2.828  12.798  0.2058  0.0759  0.7316
 6638SOL    HW237525   9.926   2.719  12.737  0.9136  0.1843 -0.4772
 6639SOL     OW37526   8.844   1.056   5.481  0.6777  0.2362  0.4178
 6639SOL    HW137527   8.828   1.024   5.570 -2.3042 -0.2019 -0.1405
 6639SOL    HW237528   8.887   0.983   5.437  1.5320  0.1925  1.2851
 6640SOL     OW37529   2.656   0.506  12.913  0.4927 -0.0008 -0.6236
 6640SOL    HW137530   2.588   0.473  12.972  1.5234  0.7855  1.0701
 6640SOL    HW237531   2.725   0.440  12.917  0.7636  0.2847 -0.5786
 6641SOL     OW37532   2.984   5.572   4.218  0.2919  0.5034  0.0817
 6641SOL    HW137533   3.052   5.575   4.151 -0.0721 -0.2028 -0.3370
 6641SOL    HW237534   2.903   5.558   4.168 -0.0036  0.1271  0.6536
 6642SOL     OW37535   8.546   9.340   3.029  0.6163 -0.3542 -0.9106
 6642SOL    HW137536   8.599   9.261   3.014  1.5680  0.2942 -1.0313
 6642SOL    HW237537   8.578   9.375   3.112  1.3656  0.8095 -1.6628
 6643SOL     OW37538   0.299   6.991   2.142  0.2319 -0.0009  0.5695
 6643SOL    HW137539   0.362   7.023   2.207  1.1321  0.8338 -0.6632
 6643SOL    HW237540   0.220   7.042   2.158  0.2571 -0.2113  1.3726
 6644SOL     OW37541   1.457  10.448   3.360  0.2600 -0.8061  0.0369
 6644SOL    HW137542   1.468  10.450   3.455 -0.7105 -0.9176  0.1717
 6644SOL    HW237543   1.456  10.354   3.339  1.5684 -0.7651 -0.2366
 6645SOL     OW37544  11.624   9.601   4.191  0.2861  0.4027 -0.1037
 6645SOL    HW137545  11.719   9.607   4.192  0.2789  0.5841  0.8633
 6645SOL    HW237546  11.604   9.534   4.126  1.0544  0.6524 -0.5983
 6646SOL     OW37547   4.698   8.919  10.678  0.3745  0.3130  0.1868
 6646SOL    HW137548   4.703   8.904  10.583  0.7840 -0.0905  0.2721
 6646SOL    HW237549   4.631   8.859  10.709  0.8878 -0.2127  0.2881
 6647SOL     OW37550   2.633   3.967  10.898 -0.0806  0.0537 -0.6720
 6647SOL    HW137551   2.539   3.978  10.911 -0.1636  1.2399 -2.0754
 6647SOL    HW237552   2.640   3.904  10.826  0.2440 -1.0027  0.2578
 6648SOL     OW37553  14.069   4.152   1.309  0.0497 -0.1885  0.9966
 6648SOL    HW137554  14.010   4.177   1.380 -1.1876 -1.2797  0.3790
 6648SOL    HW237555  14.122   4.081   1.346  1.2979  1.0254  1.6678
 6649SOL     OW37556   7.324  11.387   2.509  0.6949 -0.1476 -0.3111
 6649SOL    HW137557   7.374  11.315   2.470  0.6388 -0.1910 -0.3037
 6649SOL    HW237558   7.289  11.436   2.435  1.2559  0.2435 -0.3263
 6650SOL     OW37559   1.415   8.590   9.751 -0.2564  0.3482  0.0760
 6650SOL    HW137560   1.343   8.643   9.785 -0.4753 -0.0637  0.2688
 6650SOL    HW237561   1.388   8.568   9.661 -0.8452 -0.6319  0.4779
 6651SOL     OW37562   8.018   6.026   1.201 -0.1955 -0.5888  0.3451
 6651SOL    HW137563   8.014   5.950   1.143 -0.9044 -0.9717  0.8732
 6651SOL    HW237564   7.935   6.023   1.250 -1.0237  1.4548 -0.7882
 6652SOL     OW37565  13.702   5.845  11.568 -0.2135 -0.0671  0.0453
 6652SOL    HW137566  13.668   5.756  11.577  1.7000 -0.7605  0.7840
 6652SOL    HW237567  13.797   5.836  11.575  0.4044  1.5336 -3.7080
 6653SOL     OW37568   0.024   7.336   9.245  0.3278  0.2662 -0.2579
 6653SOL    HW137569   0.065   7.409   9.291 -0.0203  0.6743 -0.5956
 6653SOL    HW237570  -0.070   7.350   9.256  0.1992  0.9164 -1.9174
 6654SOL     OW37571   5.965  12.024  11.026 -0.6511  0.2372 -0.3696
 6654SOL    HW137572   5.873  12.004  11.012 -0.6082 -0.4188  0.2616
 6654SOL    HW237573   5.990  11.973  11.103  0.2771  0.2836 -0.6216
 6655SOL     OW37574  11.961  12.766   8.506  0.0225 -0.0613  0.3320
 6655SOL    HW137575  12.042  12.811   8.486  0.4367 -1.3470 -1.0765
 6655SOL    HW237576  11.935  12.800   8.592  1.6704  0.8694  0.4985
 6656SOL     OW37577  12.675   8.935   9.234 -0.0660  0.1537 -0.6944
 6656SOL    HW137578  12.609   8.866   9.237 -0.7604  0.8232  1.4901
 6656SOL    HW237579  12.626   9.016   9.244  1.0087  0.6846  0.7685
 6657SOL     OW37580  13.468   3.166   3.339  0.2995  0.3377  0.0954
 6657SOL    HW137581  13.459   3.119   3.257 -2.3994  0.5905  0.1614
 6657SOL    HW237582  13.444   3.256   3.318 -1.7716  0.1492  1.3274
 6658SOL     OW37583  11.551   6.294  12.605  0.0470 -0.6840  0.4706
 6658SOL    HW137584  11.496   6.355  12.556  2.6241  1.3991 -0.0812
 6658SOL    HW237585  11.523   6.303  12.696 -2.3295 -1.8329 -0.0821
 6659SOL     OW37586   1.547   8.340   9.893  0.1368  0.4647  0.4942
 6659SOL    HW137587   1.539   8.262   9.837  2.4040  0.4920  0.0318
 6659SOL    HW237588   1.544   8.413   9.831  2.2137  0.5132  0.3785
 6660SOL     OW37589  11.605   7.921   5.160  0.1774  0.1635 -1.0660
 6660SOL    HW137590  11.683   7.896   5.112 -0.4922 -0.9869 -1.5948
 6660SOL    HW237591  11.561   7.985   5.104  1.3341  1.7881 -0.2063
 6661SOL     OW37592   0.941  12.245  12.553  0.1328 -0.3970  0.3993
 6661SOL    HW137593   0.890  12.326  12.546  2.2113  1.0363  0.9414
 6661SOL    HW237594   0.884  12.185  12.601 -0.9947  1.1476  1.0674
 6662SOL     OW37595   4.418   4.860   4.038 -0.2067  0.2305  0.3372
 6662SOL    HW137596   4.429   4.773   4.077  1.4711 -0.2189 -1.0231
 6662SOL    HW237597   4.487   4.866   3.972 -0.6625  2.3782 -0.0257
 6663SOL     OW37598   7.888   3.811   5.350 -0.0046  0.2651 -0.4380
 6663SOL    HW137599   7.901   3.734   5.406 -1.2283  0.0439 -0.4394
 6663SOL    HW237600   7.976   3.833   5.318  0.8021  0.5847  1.8123
 6664SOL     OW37601  13.320   4.454  12.932 -0.8232  0.1792 -0.6765
 6664SOL    HW137602  13.281   4.367  12.935 -0.3875 -0.0060  2.3087
 6664SOL    HW237603  13.256   4.511  12.974 -0.0382  0.8171 -0.3059
 6665SOL     OW37604   4.906   0.390   5.318  0.3876 -0.5176  0.2357
 6665SOL    HW137605   4.954   0.455   5.267  0.6733 -1.2516 -0.4501
 6665SOL    HW237606   4.966   0.364   5.388  0.2347  0.0172  0.5749
 6666SOL     OW37607  11.410   8.731  11.747 -0.2837 -0.3158  0.3223
 6666SOL    HW137608  11.498   8.767  11.754 -0.7314  0.6561  1.2604
 6666SOL    HW237609  11.422   8.642  11.714  0.9646  0.1863 -0.6447
 6667SOL     OW37610  13.500   3.783   9.519 -0.3769  0.0241 -0.4122
 6667SOL    HW137611  13.465   3.799   9.431 -1.5415  0.0535  0.0493
 6667SOL    HW237612  13.557   3.858   9.536 -2.2718  1.4293 -0.0606
 6668SOL     OW37613   2.700   2.648   2.485 -0.1163  0.2603  0.4020
 6668SOL    HW137614   2.792   2.633   2.508  0.1017  1.3039  0.2607
 6668SOL    HW237615   2.655   2.651   2.569  0.0573  0.2320  0.4976
 6669SOL     OW37616  10.485   5.541   6.507 -0.1742  0.1917  0.1721
 6669SOL    HW137617  10.451   5.614   6.456 -1.7630 -0.1517  0.6658
 6669SOL    HW237618  10.575   5.565   6.528 -0.5454  1.8311 -0.0005
 6670SOL     OW37619  12.537  12.705   6.485  0.1461 -0.0140  0.1712
 6670SOL    HW137620  12.573  12.626   6.444  0.8626  0.9556 -1.1793
 6670SOL    HW237621  12.466  12.732   6.426 -0.4840  0.0205  0.9408
 6671SOL     OW37622   6.543  12.951   2.356  0.1921  0.1073  0.0077
 6671SOL    HW137623   6.472  12.950   2.421  0.0268 -0.6294 -0.1718
 6671SOL    HW237624   6.513  13.012   2.289 -1.6653 -2.3235 -1.5496
 6672SOL     OW37625   2.289   2.528  14.051 -0.2006 -0.0829  0.2371
 6672SOL    HW137626   2.288   2.497  13.960  0.7756 -1.6130  0.7284
 6672SOL    HW237627   2.199   2.558  14.066 -0.2421  0.7626 -1.4004
 6673SOL     OW37628  11.840  13.873   5.674  0.1589  0.6815  0.1548
 6673SOL    HW137629  11.828  13.873   5.579 -1.8409  0.6038  0.3631
 6673SOL    HW237630  11.815  13.962   5.701 -1.4928  0.0763  0.7874
 6674SOL     OW37631   3.193   5.396   0.514  0.9812 -0.3513  0.2840
 6674SOL    HW137632   3.200   5.380   0.420 -0.5872 -0.6246  0.1882
 6674SOL    HW237633   3.247   5.474   0.529  3.1507 -1.6383 -0.4147
 6675SOL     OW37634  13.544   3.760  11.748  0.3614 -0.1039  0.3870
 6675SOL    HW137635  13.569   3.837  11.800  1.5909  0.5303 -1.0422
 6675SOL    HW237636  13.606   3.761  11.675 -0.8651 -1.3495 -0.7045
 6676SOL     OW37637   4.488   9.388   5.901 -0.5233  0.2845  0.1712
 6676SOL    HW137638   4.461   9.361   5.813 -1.1936  1.2361  0.0643
 6676SOL    HW237639   4.547   9.462   5.886 -1.2845  0.9860  0.5218
 6677SOL     OW37640   5.496   1.817   7.348  0.1324 -0.0472 -0.3426
 6677SOL    HW137641   5.446   1.751   7.300  1.6519 -1.3792 -0.1895
 6677SOL    HW237642   5.494   1.788   7.438 -0.7444  1.1827  0.0708
 6678SOL     OW37643   6.923   3.653   2.269 -0.3658  0.3958  0.7081
 6678SOL    HW137644   6.852   3.675   2.330 -0.4844  3.7502 -0.4646
 6678SOL    HW237645   7.001   3.650   2.324 -0.6607  2.0698  1.2752
 6679SOL     OW37646   6.719   6.942   2.940  0.0725 -0.0687 -0.0693
 6679SOL    HW137647   6.652   6.962   3.005  0.1339 -0.3569  0.0865
 6679SOL    HW237648   6.676   6.883   2.878  0.2618 -0.5000  0.1990
 6680SOL     OW37649  12.490   6.898  10.814  0.0839 -0.0034 -0.7745
 6680SOL    HW137650  12.511   6.857  10.730  2.8155  1.0623 -0.6970
 6680SOL    HW237651  12.547   6.974  10.820 -2.3760  1.9183  0.6350
 6681SOL     OW37652   3.742   0.487   7.976 -0.8130  0.2268 -0.3681
 6681SOL    HW137653   3.787   0.417   7.930  0.2778  0.4530  0.3257
 6681SOL    HW237654   3.773   0.568   7.934 -2.3337  0.3234 -1.4052
 6682SOL     OW37655  11.520  10.204  12.511 -0.1260 -0.1416  0.1645
 6682SOL    HW137656  11.536  10.114  12.542 -1.6851 -0.3213  0.5040
 6682SOL    HW237657  11.479  10.194  12.426  0.2528  0.2737 -0.0707
 6683SOL     OW37658  11.808  11.621   3.478 -0.0758 -0.1301  0.4144
 6683SOL    HW137659  11.895  11.626   3.517  0.5751  0.7129 -1.0737
 6683SOL    HW237660  11.773  11.710   3.484 -1.1264 -0.6024  1.6012
 6684SOL     OW37661  10.772   1.203  12.065 -0.7487  0.3297  0.1518
 6684SOL    HW137662  10.686   1.191  12.026 -0.3778  0.5048 -0.7323
 6684SOL    HW237663  10.762   1.276  12.125 -1.6157 -0.6871  1.2927
 6685SOL     OW37664   0.312   1.277  11.630 -0.1062 -0.0661  0.1683
 6685SOL    HW137665   0.393   1.298  11.584 -0.2748  0.2895  0.0287
 6685SOL    HW237666   0.322   1.186  11.657  0.5599  0.1285  0.6005
 6686SOL     OW37667   4.796   5.501  13.878 -0.1662 -0.0679  0.4441
 6686SOL    HW137668   4.796   5.405  13.880 -1.8409 -0.0915  0.4257
 6686SOL    HW237669   4.851   5.524  13.803 -0.6354 -1.0503 -0.2163
 6687SOL     OW37670   7.290   2.290   4.138  0.3437 -0.0762 -0.2180
 6687SOL    HW137671   7.320   2.202   4.118 -0.3380 -0.5074  0.5729
 6687SOL    HW237672   7.318   2.306   4.228  0.8201  0.6797 -0.4916
 6688SOL     OW37673   6.500  10.814  12.841  0.1897  0.6979 -0.8052
 6688SOL    HW137674   6.490  10.830  12.747 -1.2651 -0.6758 -0.9247
 6688SOL    HW237675   6.411  10.801  12.873  0.6198  1.7220  0.9093
 6689SOL     OW37676  13.611   4.808   9.983  0.2733 -0.0978 -0.0207
 6689SOL    HW137677  13.574   4.794   9.895  1.3601 -1.4406 -0.3024
 6689SOL    HW237678  13.655   4.725  10.004  0.1000  0.2276  1.7749
 6690SOL     OW37679   4.427  10.434   3.642  0.5757 -0.2612 -0.1878
 6690SOL    HW137680   4.346  10.485   3.632  1.4894  1.5292  1.0203
 6690SOL    HW237681   4.414  10.386   3.724  0.0458 -1.3964 -0.9122
 6691SOL     OW37682   8.795   4.026   5.164  0.6695 -0.3439  0.5119
 6691SOL    HW137683   8.763   3.966   5.231  2.4016 -1.4026  0.4475
 6691SOL    HW237684   8.888   4.036   5.183  1.6637 -2.0453 -2.6537
 6692SOL     OW37685   7.955  14.015   6.253  0.8809  0.8664  0.1539
 6692SOL    HW137686   7.972  13.921   6.259 -0.8925  0.5292  0.3808
 6692SOL    HW237687   7.992  14.051   6.333 -0.0807  0.0708  0.9794
 6693SOL     OW37688   6.807   0.591  10.880  0.0827 -0.5749 -0.0910
 6693SOL    HW137689   6.851   0.622  10.801 -2.0637 -0.0989 -1.1810
 6693SOL    HW237690   6.803   0.496  10.870 -0.2254 -0.5118 -0.5906
 6694SOL     OW37691   7.813   5.379   3.816 -0.3962  0.4226  0.3655
 6694SOL    HW137692   7.815   5.465   3.775 -1.5977  0.5118  0.4623
 6694SOL    HW237693   7.825   5.318   3.744  0.7629  0.6698  0.3372
 6695SOL     OW37694   8.788   9.550   1.359 -0.8379  0.2398  0.5941
 6695SOL    HW137695   8.771   9.460   1.331  0.9357  0.1492 -0.3485
 6695SOL    HW237696   8.701   9.590   1.366 -1.5602 -0.9577 -0.9468
 6696SOL     OW37697   0.975   5.760   4.908 -0.2384 -0.6890 -0.2187
 6696SOL    HW137698   0.961   5.686   4.849  0.7662 -0.7611 -0.3729
 6696SOL    HW237699   0.897   5.814   4.896 -0.7469 -1.4506 -0.4882
 6697SOL     OW37700   7.397   3.522   8.100 -0.0720  0.1138  0.2830
 6697SOL    HW137701   7.351   3.542   8.181  0.1225 -0.8487  0.6447
 6697SOL    HW237702   7.440   3.438   8.117  1.1775  0.6107 -0.3049
 6698SOL     OW37703   5.138  13.603   1.376 -0.6626 -0.3103 -0.0038
 6698SOL    HW137704   5.193  13.539   1.422 -0.0661  0.2321  0.0529
 6698SOL    HW237705   5.082  13.640   1.444  0.7221  1.0239  0.4820
 6699SOL     OW37706  13.144   8.642  13.760 -0.4974  0.4917  0.3609
 6699SOL    HW137707  13.188   8.558  13.771  0.1364  0.9123  1.2010
 6699SOL    HW237708  13.051   8.622  13.766 -0.3520 -0.1625  0.4434
 6700SOL     OW37709  12.154   7.814   9.141 -0.0902 -0.1958 -0.4324
 6700SOL    HW137710  12.122   7.725   9.156 -0.4697  0.0450  0.1930
 6700SOL    HW237711  12.211   7.832   9.215 -0.8236  0.4578 -0.0118
 6701SOL     OW37712   0.002   9.744   3.381  0.1505 -0.2358  0.2878
 6701SOL    HW137713   0.090   9.780   3.394  0.6489 -0.9682 -0.9068
 6701SOL    HW237714  -0.039   9.802   3.317 -0.1495 -0.0591  0.6329
 6702SOL     OW37715   5.074   0.862   7.261  0.1605 -0.5063 -0.3948
 6702SOL    HW137716   5.013   0.923   7.218 -0.6915 -0.9030  0.2232
 6702SOL    HW237717   5.157   0.911   7.266 -0.4493  0.5271 -0.1037
 6703SOL     OW37718   6.613  10.897   1.224 -0.3344  0.4940  0.3415
 6703SOL    HW137719   6.683  10.836   1.202  0.1974  0.9284  0.8235
 6703SOL    HW237720   6.642  10.939   1.304 -0.6393  1.4729 -0.0505
 6704SOL     OW37721  13.273   8.177  12.818 -0.3602  0.3444  0.1538
 6704SOL    HW137722  13.275   8.088  12.852  1.6338  0.1611 -0.3344
 6704SOL    HW237723  13.223   8.226  12.883 -0.1973 -0.8323  1.2071
 6705SOL     OW37724  10.950   0.300   9.695  0.2337  0.4171  0.4952
 6705SOL    HW137725  10.884   0.290   9.627 -0.9384  0.9834  1.5169
 6705SOL    HW237726  11.031   0.270   9.654 -0.2586  1.5524 -1.4233
 6706SOL     OW37727   9.711   2.685  11.368  0.2837  0.5702 -0.2622
 6706SOL    HW137728   9.715   2.764  11.423 -1.0462  0.4323  0.0516
 6706SOL    HW237729   9.686   2.717  11.282 -3.4545  0.2746  0.5477
 6707SOL     OW37730   7.357   7.231  11.003  0.4509  0.3304 -0.3989
 6707SOL    HW137731   7.349   7.203  10.911  2.8059  0.6118 -0.7717
 6707SOL    HW237732   7.410   7.311  10.998 -0.2245  0.8966  1.1611
 6708SOL     OW37733   4.761   6.346   5.368  0.1128 -0.4043 -0.3831
 6708SOL    HW137734   4.713   6.315   5.291 -2.0711  0.4146  0.5762
 6708SOL    HW237735   4.850   6.361   5.336 -0.8047  0.2585 -2.8556
 6709SOL     OW37736   9.912   9.804   8.533 -0.2634 -0.0142 -0.5787
 6709SOL    HW137737  10.006   9.797   8.547 -0.2213 -0.0083 -0.8691
 6709SOL    HW237738   9.874   9.759   8.609 -0.0141 -1.0212 -1.0294
 6710SOL     OW37739   7.485   0.838  10.419  0.4994  0.3813  0.0452
 6710SOL    HW137740   7.541   0.913  10.440  1.1675 -0.6858  2.3018
 6710SOL    HW237741   7.476   0.842  10.323  2.8478  1.7053 -0.2106
 6711SOL     OW37742   4.695   0.109   9.414 -0.1530  0.2296 -0.2618
 6711SOL    HW137743   4.635   0.094   9.341  0.2817  0.7142 -0.7195
 6711SOL    HW237744   4.766   0.162   9.378  0.6992 -0.5527  0.2032
 6712SOL     OW37745   6.464   5.695   1.143  0.0626 -1.2083  0.1248
 6712SOL    HW137746   6.553   5.704   1.177 -0.1569  2.9799  0.0912
 6712SOL    HW237747   6.410   5.679   1.221  0.2813  2.3846  1.2060
 6713SOL     OW37748  11.929   8.447  12.283  0.0511 -0.6182 -0.2403
 6713SOL    HW137749  11.871   8.445  12.359  0.2270 -0.0923 -0.0815
 6713SOL    HW237750  11.896   8.519  12.230 -0.4061 -1.3395 -0.9423
 6714SOL     OW37751  10.078   4.624   0.307 -0.2743  0.0398  0.3359
 6714SOL    HW137752   9.983   4.639   0.310 -0.0896  1.2130  1.3975
 6714SOL    HW237753  10.093   4.552   0.367 -0.5182 -0.3712 -0.0872
 6715SOL     OW37754   7.997  12.145  11.656 -0.2188 -0.2546 -0.0254
 6715SOL    HW137755   7.950  12.156  11.574 -2.3888  0.0332  1.1721
 6715SOL    HW237756   7.992  12.232  11.698 -0.3646 -0.7453  1.0052
 6716SOL     OW37757   9.856  11.935  10.174 -0.0858 -0.4930 -0.3487
 6716SOL    HW137758   9.910  11.959  10.249 -1.1323  0.6707  0.0623
 6716SOL    HW237759   9.817  12.018  10.144 -0.2857 -1.0439 -1.7027
 6717SOL     OW37760  10.464   2.551   4.566  0.2924  0.1965 -0.7939
 6717SOL    HW137761  10.534   2.534   4.504 -0.9623  0.2675 -2.2794
 6717SOL    HW237762  10.414   2.470   4.570  0.8863 -0.1378  0.8956
 6718SOL     OW37763   1.284  11.185   6.016 -0.5111 -0.3964 -0.6858
 6718SOL    HW137764   1.246  11.230   5.941 -0.4070  0.3659 -0.2923
 6718SOL    HW237765   1.378  11.205   6.011 -0.6629  0.6926  0.3153
 6719SOL     OW37766   3.154   1.273  10.488 -0.2164  0.0538 -0.5332
 6719SOL    HW137767   3.228   1.320  10.525  1.7028 -1.8608 -1.6950
 6719SOL    HW237768   3.170   1.181  10.509 -3.3780 -0.2982  0.9399
 6720SOL     OW37769   9.866   7.417   1.733  0.0700 -0.0363 -0.4934
 6720SOL    HW137770   9.949   7.383   1.768 -0.8671 -2.0626 -0.1067
 6720SOL    HW237771   9.798   7.373   1.784 -1.2725  1.0287 -1.2928
 6721SOL     OW37772  10.291   8.949  11.801  0.3231 -0.0457  0.3017
 6721SOL    HW137773  10.351   8.907  11.740  0.4481  0.7154 -0.1045
 6721SOL    HW237774  10.328   9.036  11.815  1.3298 -0.7779  2.8731
 6722SOL     OW37775   8.845   8.206   7.765  0.0579  0.2426 -0.2657
 6722SOL    HW137776   8.776   8.146   7.736  0.0435  0.3008 -0.3505
 6722SOL    HW237777   8.798   8.285   7.793  0.0936  0.3024 -0.3736
 6723SOL     OW37778   1.848   4.079   5.614  0.3592 -0.0224 -0.0054
 6723SOL    HW137779   1.835   4.172   5.595 -1.7642 -0.3005 -0.1731
 6723SOL    HW237780   1.767   4.037   5.584  2.3422 -2.3691 -2.6612
 6724SOL     OW37781   1.468  11.359  13.176  0.5442 -0.5880 -0.1034
 6724SOL    HW137782   1.457  11.294  13.245 -3.1376 -0.9133 -0.7650
 6724SOL    HW237783   1.460  11.309  13.095  1.9567  0.1711 -0.7536
 6725SOL     OW37784   9.599  10.199   5.420 -0.1231 -0.1056 -0.1624
 6725SOL    HW137785   9.648  10.120   5.442  0.6490  0.6746  1.0223
 6725SOL    HW237786   9.654  10.271   5.451 -1.7021  0.8303  0.5711
 6726SOL     OW37787   6.591   2.276   0.895  0.2701  0.1857  0.1699
 6726SOL    HW137788   6.657   2.239   0.837  1.3023 -0.3197  1.6108
 6726SOL    HW237789   6.603   2.371   0.887 -2.0206  0.3582 -3.1130
 6727SOL     OW37790  11.559   7.606   6.083 -0.6781 -0.7494  0.1474
 6727SOL    HW137791  11.623   7.625   6.014 -2.0088 -0.3612 -1.0092
 6727SOL    HW237792  11.492   7.553   6.040 -1.0115 -1.4076  1.4218
 6728SOL     OW37793   5.965  12.448   9.271 -0.0839 -0.0350 -0.6456
 6728SOL    HW137794   5.971  12.484   9.183 -0.3993  0.0151 -0.6459
 6728SOL    HW237795   5.947  12.524   9.327 -2.8400 -0.4097 -0.8778
 6729SOL     OW37796   9.298   6.471  13.882 -0.0977 -0.3688 -0.4658
 6729SOL    HW137797   9.312   6.412  13.956  0.7361 -1.5561 -1.5170
 6729SOL    HW237798   9.236   6.537  13.915  0.9894 -0.2728  1.5731
 6730SOL     OW37799   2.575   9.219   0.280  0.3041 -0.3352 -0.8346
 6730SOL    HW137800   2.619   9.147   0.235  1.8734 -0.3475  0.6390
 6730SOL    HW237801   2.610   9.298   0.240 -3.1208 -0.1884 -4.1170
 6731SOL     OW37802   2.001  10.896   0.937 -1.1898 -0.4471  0.2011
 6731SOL    HW137803   1.959  10.961   0.992 -0.4613 -1.0551  1.5166
 6731SOL    HW237804   2.066  10.945   0.887 -0.9942 -0.0855  0.8071
 6732SOL     OW37805   6.951  12.493   0.161 -0.0948  0.0663  0.4577
 6732SOL    HW137806   6.883  12.514   0.225  0.5314  0.9222  0.8605
 6732SOL    HW237807   6.992  12.577   0.141  1.2453 -0.5187  0.6784
 6733SOL     OW37808   2.696   4.070   7.197  0.0721  0.1640  0.1790
 6733SOL    HW137809   2.620   4.100   7.148 -0.1396 -2.1010 -1.0033
 6733SOL    HW237810   2.679   4.098   7.287 -0.6795  2.3202 -0.5809
 6734SOL     OW37811   2.928   2.730   5.387 -0.1102  0.0544  0.2800
 6734SOL    HW137812   2.918   2.716   5.481 -1.6050  2.2063  0.5110
 6734SOL    HW237813   2.850   2.779   5.361  0.5852  0.1127 -1.9680
 6735SOL     OW37814  13.274  14.053  10.364 -0.0028 -0.3274  0.2298
 6735SOL    HW137815  13.200  14.019  10.312  1.3776 -1.3653 -1.1337
 6735SOL    HW237816  13.287  13.988  10.433  0.2759 -0.6695 -0.1425
 6736SOL     OW37817  11.168   1.970   6.049  0.7454  0.0186 -0.2756
 6736SOL    HW137818  11.078   1.937   6.048  1.0020 -0.7747 -2.0379
 6736SOL    HW237819  11.163   2.053   6.096 -1.0089  0.2148 -0.7439
 6737SOL     OW37820   3.145   1.091   6.983 -0.0067  0.0707  0.2936
 6737SOL    HW137821   3.131   1.000   7.010  0.4664 -0.4829 -1.2182
 6737SOL    HW237822   3.233   1.091   6.945 -0.6452  0.7489 -1.2761
 6738SOL     OW37823  11.574  11.050   6.478 -0.0119 -0.6734  0.4766
 6738SOL    HW137824  11.495  11.007   6.446  1.0515 -2.3950  0.0607
 6738SOL    HW237825  11.634  11.049   6.405 -0.1520  2.3467  0.1581
 6739SOL     OW37826  13.008   2.734   3.783 -0.2207  0.2428  0.4033
 6739SOL    HW137827  13.046   2.803   3.729 -1.1259  0.3513 -0.1147
 6739SOL    HW237828  12.994   2.776   3.868 -0.2029  0.5171  0.2734
 6740SOL     OW37829   6.987   0.285   8.503 -0.6856  0.0054  0.2652
 6740SOL    HW137830   6.984   0.216   8.569  0.9182  0.0949  0.4890
 6740SOL    HW237831   7.043   0.352   8.543  0.5166 -0.0415 -1.2734
 6741SOL     OW37832   9.303   7.511   3.795  0.3327  0.3941 -0.0305
 6741SOL    HW137833   9.314   7.560   3.877  0.8241  1.4513 -0.7134
 6741SOL    HW237834   9.301   7.419   3.823 -0.7629  0.7818  1.2909
 6742SOL     OW37835   9.079   2.464   2.037 -0.3369  0.1264 -0.0808
 6742SOL    HW137836   9.054   2.505   1.954 -1.0763 -1.3690 -0.6255
 6742SOL    HW237837   9.152   2.406   2.015 -0.4142 -0.1376  0.3481
 6743SOL     OW37838   9.846   2.158  11.456 -0.1233 -0.2609  0.5248
 6743SOL    HW137839   9.904   2.169  11.380 -0.5214 -0.5180  0.1813
 6743SOL    HW237840   9.827   2.247  11.485  0.1984 -0.1662  0.4555
 6744SOL     OW37841   2.492   8.379   5.370  0.2776 -0.6714 -0.2494
 6744SOL    HW137842   2.571   8.403   5.418 -0.4739 -0.1065  0.7570
 6744SOL    HW237843   2.420   8.406   5.428 -0.6830  0.8840 -2.0559
 6745SOL     OW37844   1.013   2.704   7.816  0.3658 -0.0606  0.2378
 6745SOL    HW137845   1.003   2.609   7.823 -1.6245 -0.0026 -1.1053
 6745SOL    HW237846   0.928   2.740   7.843  1.4602  1.4682  1.9532
 6746SOL     OW37847   0.059   2.882   4.255  0.1498  0.1492 -0.3105
 6746SOL    HW137848   0.121   2.925   4.196  0.0297 -0.9491 -1.2863
 6746SOL    HW237849  -0.021   2.875   4.203  0.4624 -2.1097 -0.5862
 6747SOL     OW37850  10.113   1.080   9.925 -0.6563 -0.2737  0.5436
 6747SOL    HW137851  10.031   1.113   9.889 -0.5946  1.3768  1.7957
 6747SOL    HW237852  10.093   0.991   9.953 -1.6663 -0.3240 -0.2775
 6748SOL     OW37853   2.428   8.963   6.861 -0.5058  0.1119  0.0203
 6748SOL    HW137854   2.507   8.929   6.818 -0.4431  0.3449 -0.0522
 6748SOL    HW237855   2.454   9.050   6.892  0.1517 -0.8627  2.4816
 6749SOL     OW37856  13.387  11.624  12.313  0.1060  0.0110 -0.8148
 6749SOL    HW137857  13.301  11.591  12.338  0.0400  0.4380 -0.4831
 6749SOL    HW237858  13.435  11.631  12.395 -0.2445  1.8027 -0.7383
 6750SOL     OW37859  12.020  13.623   2.006 -0.0637 -0.0228 -0.4985
 6750SOL    HW137860  11.941  13.677   2.000 -1.3427 -1.7761 -0.0658
 6750SOL    HW237861  11.989  13.533   1.995  1.8111 -0.8049  0.1718
 6751SOL     OW37862   6.849   7.356  12.986  0.1353  0.0577  0.2175
 6751SOL    HW137863   6.864   7.368  13.080  1.3074 -0.7863  0.1637
 6751SOL    HW237864   6.920   7.298  12.958 -1.8248 -2.0580 -0.6434
 6752SOL     OW37865   8.412  12.228   2.179  0.6487 -0.2963 -0.4245
 6752SOL    HW137866   8.392  12.141   2.214 -1.0398  1.1815  2.6385
 6752SOL    HW237867   8.487  12.213   2.121  1.7640 -3.5071  1.5598
 6753SOL     OW37868   2.603  10.347   8.726  0.5475  0.1577 -0.5485
 6753SOL    HW137869   2.684  10.313   8.765  0.3309  1.1455  0.8602
 6753SOL    HW237870   2.537  10.280   8.745  0.5811  0.3432  0.2703
 6754SOL     OW37871  12.263   0.522  13.585 -0.7072  0.2638 -0.0325
 6754SOL    HW137872  12.192   0.466  13.556  0.4618 -0.8199 -0.8879
 6754SOL    HW237873  12.278   0.582  13.512  0.9134 -1.1792 -0.9653
 6755SOL     OW37874   1.630   9.756  11.262 -0.5760  0.3129 -0.0462
 6755SOL    HW137875   1.554   9.706  11.293  0.6253 -0.7594  1.3212
 6755SOL    HW237876   1.644   9.724  11.173 -1.5664  0.3548 -0.2320
 6756SOL     OW37877   2.135   4.903  12.633  0.1712 -0.0317  0.6521
 6756SOL    HW137878   2.092   4.820  12.613 -0.6242  0.7552 -1.1079
 6756SOL    HW237879   2.206   4.880  12.693 -0.2237 -1.9282  0.4352
 6757SOL     OW37880  11.961   0.194   4.148  0.1480 -0.5596  0.1957
 6757SOL    HW137881  11.866   0.198   4.154  0.1119  0.6237 -0.7730
 6757SOL    HW237882  11.990   0.284   4.155  0.9219 -0.4655 -2.7214
 6758SOL     OW37883   0.771   7.936   7.588 -0.3637  0.1325  0.0520
 6758SOL    HW137884   0.725   7.966   7.666 -0.0880 -0.0800  0.3005
 6758SOL    HW237885   0.737   7.990   7.517  1.8373  2.8273  0.8511
 6759SOL     OW37886   1.226   9.852  11.165 -0.3300 -0.0847 -0.4818
 6759SOL    HW137887   1.221   9.868  11.259  0.5649 -1.3785 -0.1841
 6759SOL    HW237888   1.145   9.805  11.144 -0.1031 -0.6245 -0.1679
 6760SOL     OW37889   1.410   8.601   0.802  0.0343 -0.3323 -0.2203
 6760SOL    HW137890   1.471   8.635   0.737  1.1800 -0.5968  0.6869
 6760SOL    HW237891   1.349   8.547   0.751 -0.0938  0.7618 -1.2760
 6761SOL     OW37892  12.722   0.998   4.488 -0.3131  0.4144  0.3000
 6761SOL    HW137893  12.687   1.032   4.406  0.0979 -0.8742 -0.4404
 6761SOL    HW237894  12.816   1.015   4.483 -0.3048  0.4601  0.5760
 6762SOL     OW37895   4.190  13.176   7.851  0.3947 -0.5241  0.4068
 6762SOL    HW137896   4.234  13.208   7.930  2.6475  0.3676 -1.0983
 6762SOL    HW237897   4.135  13.250   7.823  0.5651 -0.3740  0.4648
 6763SOL     OW37898   1.396   9.200   6.771  0.5240  0.1730  0.0812
 6763SOL    HW137899   1.428   9.110   6.763 -0.9819 -0.4406  0.5435
 6763SOL    HW237900   1.392   9.232   6.681  3.3350  0.6746  0.0355
 6764SOL     OW37901   5.985  10.506   3.756  0.5524  0.2237 -0.3797
 6764SOL    HW137902   6.012  10.541   3.671 -1.4931  1.2760 -0.6540
 6764SOL    HW237903   6.011  10.574   3.818  1.3236 -0.1845 -0.2468
 6765SOL     OW37904   0.846   4.533   1.530  0.3461  0.2615 -0.5046
 6765SOL    HW137905   0.862   4.520   1.623 -1.9849  0.2527 -0.0567
 6765SOL    HW237906   0.776   4.598   1.526 -0.1548 -0.3247 -2.2373
 6766SOL     OW37907  10.347   3.303   0.483  0.3361 -0.9564  0.5009
 6766SOL    HW137908  10.435   3.314   0.448  0.0170  0.5110  0.1156
 6766SOL    HW237909  10.292   3.289   0.407  0.0971 -0.9345  0.6681
 6767SOL     OW37910  13.011  13.484   4.103 -0.2827 -0.0586 -0.5212
 6767SOL    HW137911  12.937  13.544   4.108 -0.5873 -0.4867  3.0124
 6767SOL    HW237912  13.054  13.493   4.188  1.2204 -2.9173 -0.8583
 6768SOL     OW37913   5.744   1.109   1.683 -0.0084 -0.1674  0.1879
 6768SOL    HW137914   5.794   1.187   1.706  1.4320 -0.8243 -0.6193
 6768SOL    HW237915   5.704   1.129   1.598 -0.2636 -0.0384  0.3363
 6769SOL     OW37916  13.972   2.848   1.435 -0.0414  0.1976 -0.6500
 6769SOL    HW137917  13.941   2.778   1.377 -0.9044 -0.5721  0.6874
 6769SOL    HW237918  13.902   2.912   1.435  0.6148  0.9428 -1.6243
 6770SOL     OW37919  12.134   2.721  12.233 -0.1049 -0.5488 -0.4596
 6770SOL    HW137920  12.094   2.635  12.229 -1.3579  0.0474 -1.0979
 6770SOL    HW237921  12.062   2.782  12.222  0.4963  0.6562  1.6402
 6771SOL     OW37922   4.991   4.609   8.181  0.2452 -0.3038 -0.0768
 6771SOL    HW137923   5.024   4.695   8.156  0.1196 -0.6925 -1.6790
 6771SOL    HW237924   4.919   4.592   8.120  0.7952 -1.8821 -0.3495
 6772SOL     OW37925   9.161  10.124   6.437 -0.3888  0.0602  0.2458
 6772SOL    HW137926   9.126  10.189   6.498 -2.2541 -0.9340  0.3241
 6772SOL    HW237927   9.174  10.172   6.355  0.6304  1.0521  0.9609
 6773SOL     OW37928  11.897   1.481   7.420  0.0742  0.4407  0.0853
 6773SOL    HW137929  11.971   1.529   7.457  0.8107 -1.2179  0.8756
 6773SOL    HW237930  11.824   1.500   7.479  0.3057  0.7319  0.2779
 6774SOL     OW37931  13.242   8.212  13.325  0.0763  0.0201 -0.3563
 6774SOL    HW137932  13.297   8.220  13.248 -0.2124  0.5929 -0.5071
 6774SOL    HW237933  13.243   8.119  13.346  0.5596 -0.0629 -0.7529
 6775SOL     OW37934   7.136   3.886   5.944  0.5240 -0.1809 -0.0733
 6775SOL    HW137935   7.133   3.925   5.857  0.2320 -0.3831 -0.1559
 6775SOL    HW237936   7.190   3.807   5.933 -0.0212 -0.5457 -0.2149
 6776SOL     OW37937   6.514  10.289   4.642 -0.2830  0.0147  0.3243
 6776SOL    HW137938   6.457  10.212   4.648 -0.4825  0.0444 -0.8858
 6776SOL    HW237939   6.483  10.335   4.564  1.2387  0.1538 -0.2333
 6777SOL     OW37940   6.282   2.810   8.610  0.8547  0.2291  0.3223
 6777SOL    HW137941   6.255   2.725   8.644  1.6106  0.4359  1.4666
 6777SOL    HW237942   6.206   2.839   8.558  0.7564 -1.3125 -0.4561
 6778SOL     OW37943   4.263  10.059   7.559  0.2024 -0.7021 -0.6573
 6778SOL    HW137944   4.241  10.037   7.649 -0.7484 -0.4604 -0.8196
 6778SOL    HW237945   4.197  10.123   7.533  1.6050  0.6961 -0.9094
 6779SOL     OW37946   3.615   8.287  10.697 -0.1047 -0.4605 -0.3799
 6779SOL    HW137947   3.526   8.273  10.663 -0.0317  0.2690 -0.9194
 6779SOL    HW237948   3.639   8.374  10.664 -0.4515  0.8287  2.4631
 6780SOL     OW37949   2.277  13.060   1.428  0.3740  0.0006 -0.4104
 6780SOL    HW137950   2.266  12.978   1.379 -1.4213 -0.8561  1.2605
 6780SOL    HW237951   2.255  13.128   1.365 -0.6086 -0.9892 -1.1966
 6781SOL     OW37952   6.764   2.557   2.033  0.1821  0.2597  0.0524
 6781SOL    HW137953   6.843   2.504   2.032  0.4184  0.5861  0.6802
 6781SOL    HW237954   6.790   2.640   1.993  0.7499  1.1407  2.1036
 6782SOL     OW37955   5.311   6.818   7.510 -0.0655  0.7785 -0.4246
 6782SOL    HW137956   5.311   6.777   7.424  0.6114 -2.7630  1.1042
 6782SOL    HW237957   5.219   6.820   7.536 -0.1426  0.6437 -0.6871
 6783SOL     OW37958   6.657   0.474   6.121  0.4096 -0.1335  0.1864
 6783SOL    HW137959   6.676   0.450   6.030  4.4939 -0.0819  0.8054
 6783SOL    HW237960   6.645   0.390   6.166 -0.6120 -0.2070 -0.2126
 6784SOL     OW37961  13.387  11.271  13.750  0.1431  0.4857 -0.5052
 6784SOL    HW137962  13.401  11.280  13.655 -2.8580  3.4495 -0.9075
 6784SOL    HW237963  13.297  11.237  13.757 -0.0125  1.1589  1.2173
 6785SOL     OW37964   7.458   4.233   3.319 -0.0094  0.3804  0.2216
 6785SOL    HW137965   7.382   4.184   3.287 -0.4371  0.1809  1.4832
 6785SOL    HW237966   7.458   4.313   3.265 -0.9281  0.2452 -0.0097
 6786SOL     OW37967   7.033  12.786   9.738  0.1045 -0.2598 -0.1777
 6786SOL    HW137968   7.049  12.691   9.732 -0.3231 -0.3467  0.0208
 6786SOL    HW237969   6.948  12.793   9.782 -0.0112  0.2095 -0.4691
 6787SOL     OW37970  13.243   8.996  11.139  0.9189 -0.1059  0.3266
 6787SOL    HW137971  13.242   8.903  11.162 -0.4510 -0.4105 -0.8189
 6787SOL    HW237972  13.322   9.006  11.085  0.1162 -1.0324 -1.0721
 6788SOL     OW37973   6.167   5.335   3.651  0.1341  0.0132  0.0923
 6788SOL    HW137974   6.230   5.275   3.692  0.6756  0.1311 -0.5547
 6788SOL    HW237975   6.206   5.422   3.663  0.0265  0.1020 -0.1930
 6789SOL     OW37976   9.518  12.298   0.165 -0.2263  0.2868  0.5889
 6789SOL    HW137977   9.573  12.345   0.227  0.7022 -0.4510  0.3406
 6789SOL    HW237978   9.429  12.328   0.185  0.1624  0.8423  1.5674
 6790SOL     OW37979  10.814   4.737   6.963  0.2578 -0.0169  0.1599
 6790SOL    HW137980  10.768   4.655   6.983 -0.5523  0.8564  2.0984
 6790SOL    HW237981  10.905   4.720   6.986 -0.0529 -0.1433  1.3495
 6791SOL     OW37982   2.435   8.804  12.526  0.2325 -0.1042  0.2947
 6791SOL    HW137983   2.444   8.821  12.433  1.2488 -0.3822  0.3327
 6791SOL    HW237984   2.391   8.720  12.532 -0.5471  0.2801  0.0788
 6792SOL     OW37985   1.103  13.657  13.771 -0.4944 -0.1515  0.5976
 6792SOL    HW137986   1.126  13.575  13.729  0.1867  1.2696 -2.0302
 6792SOL    HW237987   1.169  13.669  13.839 -2.2109 -3.0064  3.0373
 6793SOL     OW37988   8.886   3.920  13.779  0.2121 -0.0619  0.5132
 6793SOL    HW137989   8.850   3.962  13.701  1.6846 -0.8055 -0.6310
 6793SOL    HW237990   8.880   3.826  13.760  0.4905 -0.2598  1.3494
 6794SOL     OW37991   0.065   6.090   4.505 -0.6539  0.3694  0.1643
 6794SOL    HW137992   0.065   6.018   4.443 -1.6418  0.1370  0.4252
 6794SOL    HW237993   0.075   6.168   4.451 -0.9169  0.1286 -0.2353
 6795SOL     OW37994   8.023  13.243   0.764  0.3862 -0.1608  0.4513
 6795SOL    HW137995   7.983  13.167   0.722 -0.8158 -0.7209  2.4900
 6795SOL    HW237996   7.949  13.289   0.804  1.3107  1.1523  0.6944
 6796SOL     OW37997   5.774   1.824   9.554  0.4786 -0.3725 -0.2327
 6796SOL    HW137998   5.836   1.894   9.536  0.4444  0.1640  1.5041
 6796SOL    HW237999   5.688   1.862   9.535  0.3372  0.6275  2.0295
 6797SOL     OW38000   7.159   7.245   0.409 -0.4534  0.0330  0.3464
 6797SOL    HW138001   7.099   7.268   0.480 -0.8325 -0.0898  0.0671
 6797SOL    HW238002   7.104   7.200   0.345  0.1598 -1.1964  0.6456
 6798SOL     OW38003  12.130  13.798  12.313  0.0519 -0.0932  0.3540
 6798SOL    HW138004  12.175  13.715  12.300 -0.2449 -0.4798  1.6109
 6798SOL    HW238005  12.037  13.777  12.307 -0.0185  0.1891  0.4201
 6799SOL     OW38006   7.419   7.005   0.215 -0.6649 -0.0725 -0.3976
 6799SOL    HW138007   7.383   6.928   0.259 -0.4766  0.2922  0.4228
 6799SOL    HW238008   7.447   7.062   0.287  1.0160 -0.0927 -1.0077
 6800SOL     OW38009   7.566  11.193   4.637  0.3951 -0.3142  0.4939
 6800SOL    HW138010   7.517  11.186   4.719 -0.1053 -0.2213  0.2077
 6800SOL    HW238011   7.616  11.112   4.633  1.7836  0.4345  1.7399
 6801SOL     OW38012   5.962   5.023   1.945  0.5876  0.3238  0.1032
 6801SOL    HW138013   5.880   5.014   1.896  0.1498  0.7988  0.7345
 6801SOL    HW238014   6.030   5.005   1.880 -0.0321 -1.0636 -0.1957
 6802SOL     OW38015   6.944  13.874   0.177  0.1139  0.9520 -0.1859
 6802SOL    HW138016   6.871  13.839   0.127  0.1056  1.5527 -0.6089
 6802SOL    HW238017   6.906  13.902   0.260 -0.0170  0.6899 -0.1559
 6803SOL     OW38018   2.545  13.239  12.595  0.3603 -0.0512  0.0151
 6803SOL    HW138019   2.509  13.306  12.536 -1.5275 -2.0269 -1.2258
 6803SOL    HW238020   2.627  13.212  12.553  0.0431 -0.0108 -0.6437
 6804SOL     OW38021   4.492  13.583   7.734 -0.2332 -0.5325 -0.2380
 6804SOL    HW138022   4.502  13.628   7.650  2.8748 -0.1763  0.2080
 6804SOL    HW238023   4.497  13.652   7.800 -3.5021 -0.6848  0.3717
 6805SOL     OW38024   8.269  13.663  12.339  0.0861  0.0650 -0.1049
 6805SOL    HW138025   8.261  13.643  12.246 -2.4176 -0.1043  0.0863
 6805SOL    HW238026   8.308  13.584  12.377 -0.3807 -0.5032 -0.7814
 6806SOL     OW38027   5.129   1.486   7.505 -0.1207  0.1385 -0.3531
 6806SOL    HW138028   5.068   1.551   7.539  1.5892  1.4602  0.3533
 6806SOL    HW238029   5.185   1.464   7.579  0.1199 -1.2294 -0.9114
 6807SOL     OW38030  11.549   3.226  11.066  0.2326 -0.3273 -0.5484
 6807SOL    HW138031  11.559   3.194  11.156  1.8964 -0.7577 -0.8392
 6807SOL    HW238032  11.460   3.259  11.061 -0.0331 -0.7245  1.1271
 6808SOL     OW38033   9.229   3.062  14.071  0.1632  0.0985 -0.1852
 6808SOL    HW138034   9.312   3.051  14.118 -0.3009  0.8140  0.8373
 6808SOL    HW238035   9.164   3.018  14.126 -0.3438  0.6977 -0.2906
 6809SOL     OW38036   4.775   9.013   6.366  0.6680 -0.1374  0.3889
 6809SOL    HW138037   4.854   9.056   6.398 -0.5267  1.9450  0.7354
 6809SOL    HW238038   4.704   9.052   6.417 -0.7750 -0.6281 -1.1514
 6810SOL     OW38039   5.174   1.183   8.854  0.5187 -0.0787  0.2981
 6810SOL    HW138040   5.169   1.099   8.808  1.1887 -0.0256  0.1206
 6810SOL    HW238041   5.209   1.244   8.789 -1.4096  0.7080 -0.0622
 6811SOL     OW38042   2.682  11.126  10.273  0.6038  0.1129  0.6931
 6811SOL    HW138043   2.604  11.168  10.237  0.7219  2.1954  2.6460
 6811SOL    HW238044   2.747  11.132  10.203  0.2964  2.3493  0.5386
 6812SOL     OW38045   6.123  12.208   3.875 -0.1098 -0.0515  0.0977
 6812SOL    HW138046   6.092  12.289   3.915 -2.0490 -0.6341 -0.1610
 6812SOL    HW238047   6.204  12.233   3.830 -0.8547  1.8319 -0.2771
 6813SOL     OW38048   8.059   9.696   6.147 -0.3591  0.1973 -0.1548
 6813SOL    HW138049   8.047   9.701   6.242  0.5598  0.0413 -0.0128
 6813SOL    HW238050   8.039   9.784   6.115 -2.6760 -0.2497 -0.1039
 6814SOL     OW38051   8.209   5.576   8.845  0.9919  0.3019 -0.5052
 6814SOL    HW138052   8.197   5.665   8.878  0.1035  0.3736 -0.9731
 6814SOL    HW238053   8.134   5.562   8.787  0.9155 -0.8777 -0.1545
 6815SOL     OW38054   0.742  13.690   3.689 -0.5561 -0.2853 -0.3965
 6815SOL    HW138055   0.695  13.702   3.607 -0.7701 -0.4801 -0.3018
 6815SOL    HW238056   0.808  13.623   3.671  0.9820  1.3070 -1.0726
 6816SOL     OW38057  13.935  10.747  12.016 -0.1212 -0.8078  0.0704
 6816SOL    HW138058  13.904  10.748  11.926  0.1041 -3.2321 -0.1005
 6816SOL    HW238059  14.017  10.795  12.015 -1.3935  1.4829 -0.4335
 6817SOL     OW38060  13.945   7.411  11.710 -0.4140  0.4883 -0.0719
 6817SOL    HW138061  14.036   7.402  11.681  0.1780  1.0984  1.4830
 6817SOL    HW238062  13.909   7.323  11.702  0.9274 -0.2140  1.1739
 6818SOL     OW38063  12.029   1.142   1.225 -0.6512 -0.2787 -0.4381
 6818SOL    HW138064  12.122   1.166   1.219 -0.2539 -1.7883 -0.7748
 6818SOL    HW238065  11.984   1.206   1.169  0.2648  0.0806 -0.7866
 6819SOL     OW38066   6.340   1.655   5.321 -0.0340 -0.3648 -0.3638
 6819SOL    HW138067   6.320   1.622   5.408  1.6232 -0.6228 -0.0379
 6819SOL    HW238068   6.256   1.685   5.286 -0.5570  0.9939  1.8376
 6820SOL     OW38069   3.073   3.886   3.005 -0.8566  0.3346 -0.2321
 6820SOL    HW138070   2.993   3.868   3.055  0.1930 -1.8716  0.8037
 6820SOL    HW238071   3.042   3.906   2.917 -2.5417 -3.7342 -0.7923
 6821SOL     OW38072   2.763   1.389  11.996  0.0249  0.2735  0.2703
 6821SOL    HW138073   2.839   1.344  11.960 -0.1598  1.2787 -1.4717
 6821SOL    HW238074   2.792   1.418  12.083 -0.0809 -3.6323  1.8151
 6822SOL     OW38075  11.659  12.431   9.188  0.0321  0.6702  0.0787
 6822SOL    HW138076  11.711  12.441   9.268 -1.4152 -3.3414  1.7963
 6822SOL    HW238077  11.703  12.362   9.139 -0.5927  1.2285 -1.3407
 6823SOL     OW38078   4.612   9.623  13.204 -0.1310  1.0071 -0.1416
 6823SOL    HW138079   4.683   9.564  13.179  0.8872  2.1628 -0.1172
 6823SOL    HW238080   4.581   9.590  13.288 -1.0964 -0.7597 -1.1436
 6824SOL     OW38081   7.488   0.336   3.922 -0.1521  0.1269 -0.0925
 6824SOL    HW138082   7.517   0.322   3.833  0.7638 -1.2358  0.3903
 6824SOL    HW238083   7.558   0.302   3.977 -1.6004 -1.0447  1.1343
 6825SOL     OW38084  12.935   9.273  12.501 -0.0937  0.5211  0.1757
 6825SOL    HW138085  12.863   9.327  12.467  0.2823  0.6458 -0.4278
 6825SOL    HW238086  12.915   9.184  12.472  0.1269  0.5975 -0.2206
 6826SOL     OW38087   6.937   5.722  11.576 -0.0681  0.4273 -0.0599
 6826SOL    HW138088   6.868   5.786  11.557 -0.1167  0.7884  1.2142
 6826SOL    HW238089   6.984   5.712  11.493 -1.4670  0.3891 -0.8811
 6827SOL     OW38090  10.182   7.567   4.936  0.1257  0.1296  0.2147
 6827SOL    HW138091  10.266   7.614   4.942  0.9286 -1.2637  0.4187
 6827SOL    HW238092  10.141   7.581   5.022  1.2677 -1.1302  1.0158
 6828SOL     OW38093   4.108   0.715  10.231 -0.7882  0.3328  0.2468
 6828SOL    HW138094   4.113   0.687  10.139  0.0818  1.5030 -0.0874
 6828SOL    HW238095   4.017   0.741  10.243 -0.3559  2.9097 -1.1797
 6829SOL     OW38096  12.778   7.807   8.072  0.4767  0.1263  0.1041
 6829SOL    HW138097  12.832   7.736   8.036  1.2320  0.4054  0.6366
 6829SOL    HW238098  12.754   7.775   8.159  0.4132  0.3176  0.1552
 6830SOL     OW38099   0.654   6.239  13.466  0.0799  0.2927  0.1137
 6830SOL    HW138100   0.709   6.161  13.460 -0.4181 -0.0126 -0.6831
 6830SOL    HW238101   0.567   6.204  13.487  0.0971  0.7400  0.9876
 6831SOL     OW38102   8.510   9.618   5.366  0.0070 -0.1893 -0.0915
 6831SOL    HW138103   8.504   9.564   5.445  0.0834  0.0461  0.0759
 6831SOL    HW238104   8.603   9.624   5.347 -0.0791 -1.6639 -1.1899
 6832SOL     OW38105   8.689   1.434   0.471 -0.5165  0.1888 -0.6352
 6832SOL    HW138106   8.659   1.343   0.471  0.5894 -0.4003  3.5392
 6832SOL    HW238107   8.613   1.483   0.502  0.5982 -0.4392  3.7250
 6833SOL     OW38108   7.833   2.901  10.531 -0.0909  0.3598 -0.0581
 6833SOL    HW138109   7.810   2.952  10.453  1.1242  0.4177 -0.3919
 6833SOL    HW238110   7.910   2.850  10.505  1.5628  1.8180  1.6596
 6834SOL     OW38111  12.940  12.951   8.589 -0.1601 -0.5634 -0.5243
 6834SOL    HW138112  12.988  12.906   8.519 -2.3539 -2.4281 -0.9246
 6834SOL    HW238113  12.894  12.882   8.635  0.7836  0.6850  2.5020
 6835SOL     OW38114  10.778   0.561   2.169  0.5941  0.5257 -0.0208
 6835SOL    HW138115  10.819   0.476   2.184  0.0845  0.1664 -0.6085
 6835SOL    HW238116  10.684   0.544   2.170  0.4023  1.4560  1.9815
 6836SOL     OW38117  12.169   7.272   4.532 -0.2129  0.5719  0.1458
 6836SOL    HW138118  12.163   7.180   4.506 -0.8415  0.4173  0.8009
 6836SOL    HW238119  12.261   7.285   4.554 -0.1469  0.0651  0.1812
 6837SOL     OW38120   3.702   2.729   3.471 -1.0224 -0.1225  0.1055
 6837SOL    HW138121   3.707   2.824   3.464 -0.3374 -0.2722 -3.0382
 6837SOL    HW238122   3.650   2.702   3.395 -1.2339 -2.2720  0.9412
 6838SOL     OW38123   4.739   1.331   1.207 -0.3006 -0.0143 -0.3157
 6838SOL    HW138124   4.776   1.301   1.124  0.5721  1.1993 -0.3938
 6838SOL    HW238125   4.658   1.376   1.183 -0.8581 -0.9943 -0.3350
 6839SOL     OW38126   8.614  10.339   7.786  0.5215  0.2441 -0.4431
 6839SOL    HW138127   8.584  10.387   7.863 -3.0479  1.7002 -2.4926
 6839SOL    HW238128   8.636  10.252   7.819 -0.5786  0.8929  2.2613
 6840SOL     OW38129   6.681  10.353   8.137  0.5435  0.3258 -0.3485
 6840SOL    HW138130   6.663  10.421   8.202 -0.8003 -0.3581  0.0329
 6840SOL    HW238131   6.646  10.387   8.055 -0.6316 -0.1042 -0.0457
 6841SOL     OW38132   0.908   6.644   2.483  0.4497  0.4021  0.3361
 6841SOL    HW138133   0.875   6.556   2.498  0.8331 -0.2095 -2.1167
 6841SOL    HW238134   0.999   6.641   2.513  0.6712 -0.2581 -0.3745
 6842SOL     OW38135   4.069   7.955   3.286  0.0467 -0.1698 -0.0259
 6842SOL    HW138136   4.047   8.018   3.354  0.8203  0.6121 -0.4776
 6842SOL    HW238137   4.108   8.008   3.216  0.9934 -1.1844 -0.2854
 6843SOL     OW38138   1.942   5.718   4.124 -0.4938 -0.4512 -0.1950
 6843SOL    HW138139   1.884   5.663   4.072 -0.3771  0.0800 -0.9094
 6843SOL    HW238140   2.021   5.666   4.136  0.0508 -0.0519 -1.7992
 6844SOL     OW38141  10.753   4.255  11.733  0.0491 -0.2010 -0.0753
 6844SOL    HW138142  10.768   4.162  11.750  1.0248  0.0017  0.2704
 6844SOL    HW238143  10.838   4.296  11.749 -0.2187  0.6710 -0.8145
 6845SOL     OW38144   3.047   2.230   7.634 -0.0771  0.4242 -0.1758
 6845SOL    HW138145   2.996   2.309   7.652 -0.1853 -0.0168  1.7212
 6845SOL    HW238146   2.996   2.160   7.674  1.8709 -0.0542  1.6415
 6846SOL     OW38147   6.183   5.819   1.471 -0.2380  0.0060  0.0645
 6846SOL    HW138148   6.088   5.821   1.468 -0.2148  1.0818 -0.7182
 6846SOL    HW238149   6.207   5.875   1.545 -0.2043  0.9624 -0.6500
 6847SOL     OW38150   8.920  11.470   1.277 -0.2169 -0.0754  0.2615
 6847SOL    HW138151   8.837  11.456   1.324  0.0464 -0.3371  0.6512
 6847SOL    HW238152   8.893  11.487   1.187 -0.7813  1.2809  0.6644
 6848SOL     OW38153   1.678  10.477   0.003  0.0337 -0.1262 -0.2642
 6848SOL    HW138154   1.632  10.529  -0.063 -0.8028  1.1360  1.2602
 6848SOL    HW238155   1.767  10.468  -0.032 -0.4237  0.3519 -1.6337
 6849SOL     OW38156   4.020   3.646   5.036  0.0248  0.4701  0.7002
 6849SOL    HW138157   4.000   3.726   4.987 -1.1499 -0.9989 -1.3789
 6849SOL    HW238158   4.110   3.625   5.010 -0.7428 -0.5553 -1.3481
 6850SOL     OW38159   6.456  13.144  11.820  0.1212  0.2436 -0.1238
 6850SOL    HW138160   6.406  13.186  11.890  1.1120 -1.0756  1.4451
 6850SOL    HW238161   6.390  13.101  11.766 -0.6201  0.5727  0.4966
 6851SOL     OW38162  13.433  13.204   8.025 -0.0025 -0.3964  0.6079
 6851SOL    HW138163  13.460  13.169   8.110  1.4939 -0.7718  0.0038
 6851SOL    HW238164  13.453  13.298   8.031  0.3811 -0.4734  0.5713
 6852SOL     OW38165   0.151   6.496  13.914  0.8362 -0.1718  0.4135
 6852SOL    HW138166   0.102   6.550  13.976 -1.8127  1.6254 -2.8808
 6852SOL    HW238167   0.213   6.557  13.873  0.2738 -0.4263 -0.8862
 6853SOL     OW38168   8.683   0.794   2.114 -0.9485 -0.6578 -0.1898
 6853SOL    HW138169   8.672   0.831   2.027 -0.8257  0.4344  0.2433
 6853SOL    HW238170   8.688   0.870   2.172  1.4212 -1.2355  0.4956
 6854SOL     OW38171   7.274   4.588  13.836 -0.5285  0.7114  0.4571
 6854SOL    HW138172   7.309   4.520  13.894 -2.4042 -0.7975 -0.0902
 6854SOL    HW238173   7.315   4.571  13.751 -1.7498 -0.4710  0.0557
 6855SOL     OW38174   8.369   1.846  13.447  0.5453 -0.2547 -0.0279
 6855SOL    HW138175   8.378   1.858  13.352 -0.4923  4.3413  0.2111
 6855SOL    HW238176   8.459   1.844  13.479  0.9082  0.0717 -0.9793
 6856SOL     OW38177   8.963   0.684   8.740  0.5789 -0.4267  0.6875
 6856SOL    HW138178   8.999   0.759   8.694  0.0365 -0.4665  0.1903
 6856SOL    HW238179   8.945   0.620   8.671  0.6344 -0.8435  1.0565
 6857SOL     OW38180  13.050   2.252   1.352 -0.1139  0.4394 -0.4106
 6857SOL    HW138181  13.009   2.206   1.426  0.8253  2.4215  1.4409
 6857SOL    HW238182  13.013   2.340   1.355  2.0892  1.4301 -0.4734
 6858SOL     OW38183  10.981  13.310  13.872  0.0934  0.5308 -0.0061
 6858SOL    HW138184  11.022  13.234  13.830 -1.3847 -0.9038  1.0113
 6858SOL    HW238185  10.932  13.352  13.801  0.1528 -0.0177 -0.3800
 6859SOL     OW38186   1.275   8.507   3.269  0.8436  0.3485 -0.3428
 6859SOL    HW138187   1.188   8.502   3.229  1.3170 -1.2461 -1.3106
 6859SOL    HW238188   1.268   8.455   3.349  1.1695 -0.7975 -1.0309
 6860SOL     OW38189   3.881   2.893   3.093 -0.1813 -0.7083  0.5505
 6860SOL    HW138190   3.942   2.899   3.166 -0.1697 -2.6592  0.7517
 6860SOL    HW238191   3.807   2.949   3.118  0.3442 -0.4297  1.5093
 6861SOL     OW38192   6.097  14.081   0.122 -0.2446  0.4206 -0.1665
 6861SOL    HW138193   6.137  14.137   0.189  2.8974 -0.3465 -1.2284
 6861SOL    HW238194   6.129  14.117   0.039  0.4939 -1.8970 -0.9562
 6862SOL     OW38195   1.301   6.114  11.971 -0.7839  0.2891 -0.2893
 6862SOL    HW138196   1.323   6.107  12.064 -0.1204  0.2880 -0.4401
 6862SOL    HW238197   1.210   6.086  11.966 -0.3628 -1.2720  0.1491
 6863SOL     OW38198   5.263   3.536  12.021 -0.3441  0.3320  0.1645
 6863SOL    HW138199   5.226   3.454  11.989  1.0299 -0.4876  0.5906
 6863SOL    HW238200   5.226   3.547  12.108  1.6319 -1.4122  1.3315
 6864SOL     OW38201   9.810   1.175  10.354  0.5374  0.3234 -0.3388
 6864SOL    HW138202   9.869   1.120  10.303  2.0507  1.0375  0.5738
 6864SOL    HW238203   9.822   1.147  10.445  0.3385  1.2387 -0.0134
 6865SOL     OW38204  12.993   0.361   1.068 -0.2615  0.4105 -0.0198
 6865SOL    HW138205  12.934   0.417   1.118 -0.2462 -0.5798  1.1562
 6865SOL    HW238206  12.941   0.283   1.049 -0.2312  0.7202 -1.4895
 6866SOL     OW38207   6.881  12.352   2.737 -0.1241  0.4275  0.0210
 6866SOL    HW138208   6.902  12.259   2.726  0.2680  0.1777  2.4331
 6866SOL    HW238209   6.948  12.397   2.686  1.4755 -0.5645  1.1626
 6867SOL     OW38210  12.361   3.310   7.826 -0.2206  0.0878 -0.2845
 6867SOL    HW138211  12.328   3.221   7.811  1.4777 -0.4601 -1.0895
 6867SOL    HW238212  12.408   3.331   7.745  1.6751  0.6363  0.9106
 6868SOL     OW38213  12.034   4.908   7.416 -0.1071 -0.1618  0.2974
 6868SOL    HW138214  12.112   4.963   7.413 -0.0179 -0.2187  1.2550
 6868SOL    HW238215  12.053   4.843   7.483 -0.5933 -0.7819 -0.1531
 6869SOL     OW38216   7.324   3.539   0.171  0.0392  0.2342  0.3422
 6869SOL    HW138217   7.369   3.571   0.093 -0.5017  0.2803  0.0410
 6869SOL    HW238218   7.352   3.448   0.179 -0.5047 -0.0012 -0.3605
 6870SOL     OW38219   5.125  10.163   5.794 -0.2180 -0.2858 -0.6547
 6870SOL    HW138220   5.170  10.121   5.721  0.8314  0.8990 -0.7276
 6870SOL    HW238221   5.195  10.207   5.843 -0.9237 -0.8647  0.9423
 6871SOL     OW38222  11.037   0.609   8.671 -0.0412  0.4691 -0.5693
 6871SOL    HW138223  10.980   0.657   8.611  0.2164  0.5305 -0.7611
 6871SOL    HW238224  11.103   0.569   8.616  0.8857  1.4711 -0.2239
 6872SOL     OW38225   2.533   4.503  12.975 -0.1543  0.6817  0.4445
 6872SOL    HW138226   2.584   4.508  13.056  0.2114  0.4781  0.2317
 6872SOL    HW238227   2.442   4.504  13.003 -0.0356 -0.8105  0.9463
 6873SOL     OW38228  10.647  13.103   0.296  0.0974  0.0272 -0.3233
 6873SOL    HW138229  10.580  13.039   0.274  0.6197 -0.2885 -1.0325
 6873SOL    HW238230  10.727  13.069   0.256  0.4590  0.9438 -0.4137
 6874SOL     OW38231  12.628   2.832  12.011  0.2444  0.0735 -0.2545
 6874SOL    HW138232  12.700   2.894  12.006  0.2778 -0.0428 -1.8957
 6874SOL    HW238233  12.549   2.885  12.000  0.2885 -0.1704 -1.9508
 6875SOL     OW38234   7.473   2.265   6.201  0.4491 -0.1554 -0.0474
 6875SOL    HW138235   7.432   2.181   6.180 -0.0433 -0.1031  0.6646
 6875SOL    HW238236   7.565   2.254   6.177  0.3736 -0.8726 -0.0241
 6876SOL     OW38237  13.751   2.416   1.505 -0.3925  0.2397 -0.0194
 6876SOL    HW138238  13.732   2.363   1.583 -0.4870  1.3797  0.7566
 6876SOL    HW238239  13.746   2.354   1.432 -0.5945 -0.7952  0.8461
 6877SOL     OW38240   5.136   4.938   4.070 -0.0743 -0.7588 -0.3538
 6877SOL    HW138241   5.214   4.884   4.083 -0.0726 -0.4174  1.2013
 6877SOL    HW238242   5.064   4.874   4.065  0.1400 -1.0033 -0.3365
 6878SOL     OW38243  12.805   4.909   7.023  0.1132  0.1270  0.1673
 6878SOL    HW138244  12.809   4.955   7.107  0.7098  1.5502 -0.6225
 6878SOL    HW238245  12.775   4.821   7.046 -0.4308  0.7017  1.7897
 6879SOL     OW38246   6.153   4.355   4.267  0.2289  0.0546  0.7585
 6879SOL    HW138247   6.081   4.359   4.330  1.0453  1.9944  1.6449
 6879SOL    HW238248   6.218   4.299   4.309 -0.3434 -0.9003  0.3916
 6880SOL     OW38249  10.627   3.734   3.914 -0.4386  0.1146 -0.2637
 6880SOL    HW138250  10.682   3.712   3.988 -1.6571  0.7995  0.8886
 6880SOL    HW238251  10.681   3.793   3.861 -0.5089  2.0129  1.6186
 6881SOL     OW38252  11.400  12.667  10.170  0.1836  0.0054  0.3682
 6881SOL    HW138253  11.420  12.636  10.258 -0.3952  0.8410  0.8084
 6881SOL    HW238254  11.453  12.612  10.112  2.4601  1.0387  1.3666
 6882SOL     OW38255   1.639   5.098   3.578  0.5570  0.3160  0.1177
 6882SOL    HW138256   1.608   5.105   3.488 -1.5225  1.8107  0.8631
 6882SOL    HW238257   1.561   5.113   3.632  1.9841  0.8621  2.1813
 6883SOL     OW38258   0.519   1.325  12.399  0.2699  0.0282 -0.0793
 6883SOL    HW138259   0.467   1.314  12.319  0.4085  0.6095 -0.2578
 6883SOL    HW238260   0.468   1.282  12.467  0.4154 -0.9631 -0.5757
 6884SOL     OW38261   6.904   1.735  11.016  0.1873 -0.6692  0.1382
 6884SOL    HW138262   6.874   1.821  11.045  0.4222 -0.8629  0.9818
 6884SOL    HW238263   6.833   1.676  11.039 -0.6180 -0.5230 -1.7490
 6885SOL     OW38264  11.062  12.864  11.082 -0.4570 -0.0937 -0.0857
 6885SOL    HW138265  11.073  12.789  11.139  0.1801 -0.3218 -0.4943
 6885SOL    HW238266  11.025  12.828  11.001  1.2944 -0.2364 -0.8607
 6886SOL     OW38267  11.843   0.452   1.784 -0.1527  0.0624 -0.1504
 6886SOL    HW138268  11.915   0.390   1.771  1.0082  0.6270  2.7953
 6886SOL    HW238269  11.786   0.410   1.848 -2.2968 -0.1586 -2.0700
 6887SOL     OW38270   4.813   9.492   5.228  0.0679 -0.6857  0.3278
 6887SOL    HW138271   4.901   9.518   5.258  0.3055  0.7768 -1.4583
 6887SOL    HW238272   4.754   9.551   5.275  0.3495  0.7803 -1.0787
 6888SOL     OW38273  12.437   7.923   8.173 -0.0714 -0.1510  0.3512
 6888SOL    HW138274  12.426   7.830   8.154 -1.3055  0.1942 -0.7393
 6888SOL    HW238275  12.377   7.967   8.113 -0.1204  1.3101  1.4191
 6889SOL     OW38276  12.621  11.406  12.131 -0.2613 -0.6584  0.2667
 6889SOL    HW138277  12.533  11.428  12.099  0.3678  0.9232 -0.4635
 6889SOL    HW238278  12.635  11.316  12.102 -0.3418  0.1610 -2.6210
 6890SOL     OW38279   9.089   3.297   1.679  0.0980  0.2452  0.0260
 6890SOL    HW138280   9.095   3.315   1.586  0.1477  0.9322  0.1573
 6890SOL    HW238281   9.103   3.202   1.686 -0.2789  0.1308 -0.6909
 6891SOL     OW38282  12.038   6.120   7.640  0.5114 -0.2962 -0.3562
 6891SOL    HW138283  12.107   6.096   7.701 -0.1976 -1.1535  0.1325
 6891SOL    HW238284  12.043   6.053   7.571  1.7609  1.0492 -1.6565
 6892SOL     OW38285   3.243   2.742  12.419 -0.1590 -0.2518  0.4005
 6892SOL    HW138286   3.331   2.779  12.408  0.0794 -1.1058 -0.6811
 6892SOL    HW238287   3.225   2.752  12.513 -0.3827  3.1940  0.1395
 6893SOL     OW38288   2.433  11.398   3.687 -0.2455  0.4550 -0.1032
 6893SOL    HW138289   2.400  11.335   3.623  2.2801 -1.1476  0.0199
 6893SOL    HW238290   2.458  11.474   3.635  0.6142 -0.3426 -0.8893
 6894SOL     OW38291   6.087  11.088   0.234  0.2700  0.2966 -0.4544
 6894SOL    HW138292   6.133  11.171   0.223 -0.3263  0.9740  1.7789
 6894SOL    HW238293   6.044  11.095   0.319 -1.1990 -1.6460 -0.9692
 6895SOL     OW38294   6.381   1.793  10.104  0.3134 -0.1680  0.0568
 6895SOL    HW138295   6.285   1.794  10.110  0.3524  0.3359  0.7410
 6895SOL    HW238296   6.399   1.763  10.015 -0.4606 -1.6959  0.3817
 6896SOL     OW38297  10.379   2.541   3.390  0.5715 -0.4480  0.2782
 6896SOL    HW138298  10.388   2.445   3.387  0.1991 -0.5193  1.2354
 6896SOL    HW238299  10.341   2.563   3.304  1.1526 -1.0962 -0.1586
 6897SOL     OW38300  11.004   7.708   7.519  0.4266  0.3736  0.0268
 6897SOL    HW138301  10.943   7.677   7.452  0.3217 -0.2474  0.4012
 6897SOL    HW238302  10.996   7.804   7.516 -1.7591  0.2961  1.1270
 6898SOL     OW38303   5.479  10.494   7.259 -0.2921  0.1812  0.0822
 6898SOL    HW138304   5.499  10.472   7.350  0.4502  1.5343  0.2775
 6898SOL    HW238305   5.404  10.439   7.237 -0.1405 -0.5664  1.3309
 6899SOL     OW38306  12.356   6.918   6.657  0.0979  0.3182 -0.5525
 6899SOL    HW138307  12.450   6.910   6.672 -0.0738  0.1391  0.5509
 6899SOL    HW238308  12.339   7.012   6.664  0.4755  0.6169 -2.7943
 6900SOL     OW38309   4.105   4.248   3.064 -0.0973 -0.4141  0.2510
 6900SOL    HW138310   4.055   4.301   3.002 -1.1774 -2.4412 -0.6999
 6900SOL    HW238311   4.078   4.280   3.150 -0.3964  0.8265 -0.2831
 6901SOL     OW38312   0.659   4.818   9.474 -0.2541 -0.2600  0.0638
 6901SOL    HW138313   0.593   4.873   9.518 -0.3880 -2.2747  2.6824
 6901SOL    HW238314   0.693   4.763   9.544  1.6221 -1.8122 -1.9528
 6902SOL     OW38315  10.286   0.544  10.556 -0.3978  0.4547  0.0335
 6902SOL    HW138316  10.338   0.623  10.573  2.2799 -0.9702 -0.8432
 6902SOL    HW238317  10.351   0.473  10.554 -2.5609 -1.6484 -0.1848
 6903SOL     OW38318   1.016  10.530  13.798  0.4439  0.1086 -0.2236
 6903SOL    HW138319   1.101  10.554  13.760  0.9300  1.0347  1.3844
 6903SOL    HW238320   0.953  10.553  13.730  1.4806 -0.9411 -1.6010
 6904SOL     OW38321  10.472   4.116   7.639 -0.5436  0.2934 -0.1353
 6904SOL    HW138322  10.482   4.211   7.647 -0.1030  0.2133  0.3006
 6904SOL    HW238323  10.460   4.086   7.729  0.0767 -0.1447 -0.1923
 6905SOL     OW38324   5.932   5.548   0.520 -0.3059 -0.6422 -0.4903
 6905SOL    HW138325   5.927   5.606   0.596  2.0769  1.1418 -1.5516
 6905SOL    HW238326   5.985   5.474   0.549  0.7449  0.1190 -0.4034
 6906SOL     OW38327   3.704   7.548   0.846 -0.4736  0.0525 -0.2728
 6906SOL    HW138328   3.791   7.517   0.873  0.3415  2.3933 -0.0470
 6906SOL    HW238329   3.705   7.541   0.751 -0.7794 -1.6898 -0.1813
 6907SOL     OW38330   3.585   1.393   2.900  0.4246  0.2456 -0.3263
 6907SOL    HW138331   3.619   1.319   2.850  1.0798 -0.3345  0.9363
 6907SOL    HW238332   3.539   1.353   2.974 -0.8829  1.0765 -0.6625
 6908SOL     OW38333  10.142   4.327   5.218 -0.0650  0.4738  0.0913
 6908SOL    HW138334  10.113   4.372   5.138 -0.3940  0.3113  0.1177
 6908SOL    HW238335  10.077   4.353   5.284  1.2088  2.0734  0.7705
 6909SOL     OW38336   9.069  13.055   7.820 -0.3770  0.5474 -0.6719
 6909SOL    HW138337   9.128  13.005   7.763  0.6185  0.9373 -0.0120
 6909SOL    HW238338   9.126  13.120   7.861 -0.8481 -0.4096  1.6208
 6910SOL     OW38339   9.436   4.586  10.652 -0.4334 -0.1960 -0.8521
 6910SOL    HW138340   9.529   4.564  10.650  0.0836  1.7488 -0.2263
 6910SOL    HW238341   9.405   4.553  10.736  0.4495  1.8077  0.3116
 6911SOL     OW38342   4.538   0.325   6.169 -0.1074 -0.2801 -0.1032
 6911SOL    HW138343   4.513   0.242   6.208  1.5075 -0.1947  1.1948
 6911SOL    HW238344   4.454   0.371   6.157 -0.7970 -0.7815  2.2242
 6912SOL     OW38345   7.366  13.194   7.369 -0.1866  0.1569  0.2131
 6912SOL    HW138346   7.288  13.242   7.340 -1.1987 -0.0450  2.4069
 6912SOL    HW238347   7.342  13.101   7.360  0.1338  0.0803  0.1149
 6913SOL     OW38348   0.147   6.385   5.373  0.0871 -0.3968 -0.1853
 6913SOL    HW138349   0.221   6.404   5.432 -1.5735 -0.8619  2.1795
 6913SOL    HW238350   0.095   6.465   5.374 -0.5075 -0.7851 -0.1877
 6914SOL     OW38351  14.009   2.573   3.295 -0.1084  0.4657  0.5037
 6914SOL    HW138352  14.094   2.590   3.254 -0.8859  0.8181 -1.0556
 6914SOL    HW238353  13.958   2.653   3.278 -1.5825 -0.6944 -0.9042
 6915SOL     OW38354  12.229   9.302   3.642  0.1654 -0.2870 -0.3906
 6915SOL    HW138355  12.272   9.311   3.557  0.2842  0.9758 -0.2139
 6915SOL    HW238356  12.263   9.221   3.678  1.0463 -0.2059 -1.0207
 6916SOL     OW38357   3.900   7.794  13.214 -0.3553  0.0261 -0.1082
 6916SOL    HW138358   3.853   7.715  13.238 -0.1025 -0.1129 -0.0646
 6916SOL    HW238359   3.919   7.837  13.297  0.2615 -0.3057 -0.0729
 6917SOL     OW38360  12.259  12.585   1.419 -0.4100 -0.4215 -0.6400
 6917SOL    HW138361  12.288  12.586   1.328 -0.4415  0.2631 -0.6476
 6917SOL    HW238362  12.318  12.646   1.463 -0.3324 -0.8279 -0.1786
 6918SOL     OW38363   0.466   1.190   2.372 -0.1158 -0.5139 -0.4347
 6918SOL    HW138364   0.441   1.275   2.406 -0.7729 -0.7389 -0.3332
 6918SOL    HW238365   0.518   1.209   2.294 -0.4607 -0.0273 -0.5475
 6919SOL     OW38366  11.003   4.250   6.334 -0.1686  0.6832  0.2296
 6919SOL    HW138367  11.032   4.188   6.268 -0.3007  0.8756 -0.0086
 6919SOL    HW238368  11.056   4.229   6.412 -1.1253 -0.5922  0.5641
 6920SOL     OW38369   9.223   4.724   2.679 -0.4200  0.1215  0.1211
 6920SOL    HW138370   9.160   4.705   2.610  0.4681 -0.9459 -0.4169
 6920SOL    HW238371   9.297   4.765   2.634 -0.8671  1.7858  0.8082
 6921SOL     OW38372  10.718   7.106   5.654  0.0765 -0.0263 -0.0680
 6921SOL    HW138373  10.813   7.120   5.646 -0.3664  2.2713 -2.5141
 6921SOL    HW238374  10.697   7.140   5.741  1.2426  1.1557 -0.2176
 6922SOL     OW38375   7.256  13.470   6.443  1.0619  0.2676  0.1539
 6922SOL    HW138376   7.168  13.506   6.449  0.3961 -1.4045  0.6237
 6922SOL    HW238377   7.308  13.542   6.405 -0.6729  0.9437 -1.0593
 6923SOL     OW38378  12.162   6.638  12.034 -0.1779 -0.5850 -0.4198
 6923SOL    HW138379  12.256   6.636  12.021 -0.2830  1.5404 -2.0589
 6923SOL    HW238380  12.131   6.708  11.976 -2.7180 -0.9709  0.3391
 6924SOL     OW38381  12.395  10.389  10.808 -0.0012 -0.0017 -0.5951
 6924SOL    HW138382  12.405  10.461  10.746  0.9668 -1.6372 -2.4223
 6924SOL    HW238383  12.473  10.336  10.797 -0.3615 -0.9952  1.2094
 6925SOL     OW38384  10.150  13.185   9.603  0.0867 -0.1965  0.3901
 6925SOL    HW138385  10.193  13.151   9.681 -1.3893 -1.2227  0.8079
 6925SOL    HW238386  10.221  13.219   9.549  1.4509 -2.1130  0.8739
 6926SOL     OW38387  10.297  10.447   8.483 -0.1043 -0.1903  0.0830
 6926SOL    HW138388  10.283  10.526   8.536  0.5875 -0.2252  0.3214
 6926SOL    HW238389  10.390  10.429   8.491 -0.4031 -1.5619  0.7797
 6927SOL     OW38390   8.058   9.087   1.141 -0.5761 -0.6530  0.5858
 6927SOL    HW138391   7.970   9.102   1.106 -0.3094  0.2693  0.2870
 6927SOL    HW238392   8.092   9.175   1.158 -0.3103 -1.0354  2.1920
 6928SOL     OW38393   6.468   2.816   9.825  0.2487 -0.9508 -0.1533
 6928SOL    HW138394   6.482   2.836   9.732  0.8316 -0.9034 -0.0624
 6928SOL    HW238395   6.390   2.866   9.849  1.3671  0.8613 -0.0680
 6929SOL     OW38396   1.900  12.659   0.832  0.2140 -0.2652  0.1468
 6929SOL    HW138397   1.993  12.665   0.812  0.4519  1.6932  1.5550
 6929SOL    HW238398   1.893  12.583   0.890  0.9449 -0.3508  0.1348
 6930SOL     OW38399   8.604  12.084   3.582 -0.5354  0.1272  0.4401
 6930SOL    HW138400   8.670  12.024   3.617 -1.7870 -0.7933  1.2928
 6930SOL    HW238401   8.635  12.104   3.494  0.6448 -0.6504  0.6552
 6931SOL     OW38402   4.790   3.269   0.178 -0.3193 -0.4785  0.2049
 6931SOL    HW138403   4.731   3.193   0.180 -2.7074  1.2568 -0.1234
 6931SOL    HW238404   4.822   3.276   0.268 -0.3278 -1.6591  0.3178
 6932SOL     OW38405   1.550  12.475   1.724 -0.1202 -0.3381 -0.2781
 6932SOL    HW138406   1.584  12.399   1.771 -0.4306 -1.1163 -1.2823
 6932SOL    HW238407   1.496  12.521   1.789  1.9055  0.3326  1.0285
 6933SOL     OW38408   7.327   0.166   7.078 -0.3276  0.0296 -0.2827
 6933SOL    HW138409   7.266   0.179   7.150 -0.2641 -2.9541  0.4424
 6933SOL    HW238410   7.405   0.127   7.118  1.5961  2.4704 -1.3819
 6934SOL     OW38411   8.153   2.456  10.974 -0.0929 -0.0202  0.1081
 6934SOL    HW138412   8.108   2.373  10.989  0.2186 -0.0265  1.0635
 6934SOL    HW238413   8.096   2.504  10.914  0.0099 -1.1538 -0.9388
 6935SOL     OW38414   6.917   7.116   2.854  0.3120  0.2479  0.3939
 6935SOL    HW138415   6.942   7.062   2.779 -1.6074 -0.1736  0.0066
 6935SOL    HW238416   6.840   7.072   2.891 -1.0933  2.4760  0.2989
 6936SOL     OW38417   4.050   7.955  10.393  0.3594  0.2196  0.1535
 6936SOL    HW138418   3.967   7.981  10.352 -0.4380 -2.0953  0.1108
 6936SOL    HW238419   4.042   7.982  10.484 -0.0440  0.8430 -0.0626
 6937SOL     OW38420  12.451   8.336   4.195 -0.1162  0.7642  0.0467
 6937SOL    HW138421  12.519   8.280   4.232 -1.8006 -0.5808  1.2928
 6937SOL    HW238422  12.481   8.425   4.211  3.0091  0.4102 -2.6345
 6938SOL     OW38423   4.327   6.573   3.387 -0.0324  0.0846 -0.1708
 6938SOL    HW138424   4.380   6.584   3.466 -0.5871 -0.4550  0.2941
 6938SOL    HW238425   4.249   6.626   3.404  0.4182  1.0148 -0.9221
 6939SOL     OW38426   4.541   4.683   9.908  0.8790  0.7463 -0.0984
 6939SOL    HW138427   4.559   4.753   9.845  1.2629  0.0214 -0.8138
 6939SOL    HW238428   4.618   4.682   9.965  1.0935  0.5750 -0.3944
 6940SOL     OW38429  13.146   5.280   5.987 -0.1922  0.7195 -0.6545
 6940SOL    HW138430  13.118   5.363   6.025 -1.4044  0.3364 -0.6944
 6940SOL    HW238431  13.234   5.298   5.953  0.5119  1.3642  1.3421
 6941SOL     OW38432   2.939   0.248   0.717  0.2942 -0.6584  0.4021
 6941SOL    HW138433   3.007   0.181   0.711  1.3901  0.4241  0.1474
 6941SOL    HW238434   2.882   0.219   0.787 -0.3153 -2.7562 -0.8696
 6942SOL     OW38435  12.435   5.280   8.850  0.2679  0.1592 -0.8809
 6942SOL    HW138436  12.518   5.237   8.870  0.0760  0.4735  0.6913
 6942SOL    HW238437  12.460   5.368   8.824  0.5604 -0.4259 -2.7316
 6943SOL     OW38438   3.917   4.302  11.154  0.2170 -0.7131  0.0772
 6943SOL    HW138439   3.881   4.249  11.083  0.9535 -0.7277 -0.2899
 6943SOL    HW238440   4.010   4.281  11.156  0.3723 -0.0242  0.4466
 6944SOL     OW38441   3.317   6.669   4.661  0.1232  0.4994  0.1295
 6944SOL    HW138442   3.280   6.625   4.584 -0.8356  3.0093 -0.9738
 6944SOL    HW238443   3.273   6.754   4.663  1.0975  1.0359  2.7277
 6945SOL     OW38444   9.637   2.446  13.126 -0.0999 -0.3198 -0.3131
 6945SOL    HW138445   9.658   2.534  13.157  1.3210 -1.0713  1.0059
 6945SOL    HW238446   9.715   2.394  13.145 -1.2129 -2.0703 -0.2062
 6946SOL     OW38447  11.039  10.052   0.496 -0.1476  0.2186 -0.2235
 6946SOL    HW138448  11.079  10.004   0.568 -0.2070  0.0928 -0.2740
 6946SOL    HW238449  11.099  10.124   0.478  0.6448 -0.6252 -1.0610
 6947SOL     OW38450  12.873   9.927   5.053  0.2018  0.2591 -0.6595
 6947SOL    HW138451  12.961   9.966   5.058 -0.0971  0.8968 -0.2865
 6947SOL    HW238452  12.853   9.904   5.144 -0.4802  1.1691 -0.5664
 6948SOL     OW38453   4.552   2.649   9.226  0.1762 -0.8101  0.2820
 6948SOL    HW138454   4.569   2.740   9.248  2.2036 -0.7913 -1.0714
 6948SOL    HW238455   4.629   2.601   9.258 -0.4576 -1.9186  0.2182
 6949SOL     OW38456   1.452  12.251   7.325  0.2495  0.4079 -0.2717
 6949SOL    HW138457   1.433  12.336   7.365 -0.0869  0.2913 -0.1834
 6949SOL    HW238458   1.375  12.232   7.272 -0.2380 -0.4612  0.7449
 6950SOL     OW38459  13.959  10.817   2.297 -0.4631 -0.0972  0.5297
 6950SOL    HW138460  13.931  10.906   2.315 -1.2112 -0.2831  0.3240
 6950SOL    HW238461  13.910  10.791   2.219  0.5672 -0.3091 -0.0662
 6951SOL     OW38462   1.509  10.951   1.155  0.1075 -0.0915 -0.1193
 6951SOL    HW138463   1.509  11.042   1.127 -0.7469  0.3297  1.1428
 6951SOL    HW238464   1.450  10.907   1.094  1.3616 -0.0677 -1.4119
 6952SOL     OW38465   1.333   4.182   6.063  0.3998  0.6419  0.3992
 6952SOL    HW138466   1.246   4.218   6.046 -1.6045 -2.5785  2.6209
 6952SOL    HW238467   1.348   4.120   5.992  0.6323  0.8107  0.3007
 6953SOL     OW38468   1.202   3.517   1.603  0.1201 -0.0080  0.0565
 6953SOL    HW138469   1.137   3.485   1.666 -0.2843 -0.2327 -0.4720
 6953SOL    HW238470   1.237   3.437   1.562  0.6937  0.1140  0.3010
 6954SOL     OW38471  10.200   3.553   6.007  0.5039  0.4229 -0.3894
 6954SOL    HW138472  10.199   3.637   5.961  1.0287  0.6319 -0.0296
 6954SOL    HW238473  10.262   3.566   6.079 -0.6857  0.2858  0.7060
 6955SOL     OW38474   5.904   2.948   0.820  0.5386  0.0247  0.3600
 6955SOL    HW138475   5.899   2.913   0.731 -1.2865 -0.8405  0.7494
 6955SOL    HW238476   5.824   2.916   0.862  1.4712  0.2419  2.3807
 6956SOL     OW38477  14.063   5.792   1.101 -0.5071 -0.3051  0.2523
 6956SOL    HW138478  14.005   5.719   1.123 -0.4953 -1.0099 -1.8652
 6956SOL    HW238479  14.141   5.750   1.063 -1.3454  0.7615 -2.9285
 6957SOL     OW38480   5.363   0.267  10.497 -0.1012 -0.1323  0.1461
 6957SOL    HW138481   5.429   0.328  10.463 -0.4426  0.8854  1.2410
 6957SOL    HW238482   5.413   0.190  10.522  0.3866 -0.2120 -0.9881
 6958SOL     OW38483   8.854  10.438  12.100  0.2916  0.4339 -0.3762
 6958SOL    HW138484   8.787  10.447  12.167 -0.5866 -0.1447 -1.1431
 6958SOL    HW238485   8.834  10.508  12.037 -2.2953 -2.1646 -2.7854
 6959SOL     OW38486   1.604   8.204  11.886 -0.0485  0.2042 -0.0039
 6959SOL    HW138487   1.611   8.294  11.852  0.5324 -0.8960 -3.0792
 6959SOL    HW238488   1.515   8.199  11.922  0.0083  2.0604  0.5276
 6960SOL     OW38489   7.745   2.284   6.577 -0.5935 -0.4102  0.3850
 6960SOL    HW138490   7.728   2.377   6.591  2.2524  0.3767 -0.6708
 6960SOL    HW238491   7.810   2.260   6.643 -0.4691 -1.3580 -0.0580
 6961SOL     OW38492  12.836   9.619   9.904 -0.2489  0.4381  0.0777
 6961SOL    HW138493  12.894   9.550   9.872 -0.8651 -0.1115  0.1274
 6961SOL    HW238494  12.773   9.632   9.834 -1.2305 -0.3391  0.7934
 6962SOL     OW38495   9.618   5.828  13.193  0.0164  0.6740  0.6189
 6962SOL    HW138496   9.585   5.875  13.117 -2.6145 -0.6081  0.8624
 6962SOL    HW238497   9.598   5.885  13.267 -1.5087  0.0413  0.7326
 6963SOL     OW38498   4.422  11.423  12.535 -0.3795 -0.0430 -0.2851
 6963SOL    HW138499   4.407  11.514  12.560  0.3995 -0.0778  0.3476
 6963SOL    HW238500   4.440  11.427  12.441  0.0581  0.5114 -0.1853
 6964SOL     OW38501   8.280   3.753   1.879  0.0196 -0.1461 -0.0560
 6964SOL    HW138502   8.196   3.708   1.868  0.0157  0.1719 -1.6476
 6964SOL    HW238503   8.256   3.843   1.902 -0.0479 -0.2656  0.3470
 6965SOL     OW38504  13.656   7.526   4.302 -0.4562  0.0004  0.0272
 6965SOL    HW138505  13.587   7.528   4.236 -0.5702 -2.0102  0.0269
 6965SOL    HW238506  13.638   7.448   4.355  1.3492 -0.1464  0.5181
 6966SOL     OW38507  11.809  10.457   8.780  0.1596 -0.3005 -0.2571
 6966SOL    HW138508  11.731  10.482   8.730 -0.4131 -2.8254 -0.7736
 6966SOL    HW238509  11.845  10.540   8.811 -1.3771  1.1150 -2.0083
 6967SOL     OW38510   0.720   5.979  12.277  0.0444  0.6413 -0.1616
 6967SOL    HW138511   0.699   5.906  12.219  0.5394  2.2964 -2.5894
 6967SOL    HW238512   0.671   5.961  12.357 -0.3791 -1.9730 -0.9161
 6968SOL     OW38513   7.407   8.512  11.260 -0.0460  0.0145 -0.0304
 6968SOL    HW138514   7.344   8.464  11.206  0.0851  1.1026 -1.2104
 6968SOL    HW238515   7.359   8.590  11.288 -0.0884 -0.5002  1.4117
 6969SOL     OW38516   3.424   9.320  13.256  0.0586 -0.4444  0.1674
 6969SOL    HW138517   3.443   9.236  13.299 -0.5811  0.1535  1.7277
 6969SOL    HW238518   3.360   9.361  13.314  0.8953  1.4414 -0.1858
 6970SOL     OW38519   0.476   1.364   6.742  0.2745 -0.0344  0.0749
 6970SOL    HW138520   0.500   1.304   6.671 -2.7089 -1.5236  0.1853
 6970SOL    HW238521   0.442   1.441   6.697  1.7200  0.5652 -0.0543
 6971SOL     OW38522   7.929   1.644   8.535 -0.1270  0.0740  0.5536
 6971SOL    HW138523   7.864   1.576   8.551 -0.0560 -0.3101 -0.7088
 6971SOL    HW238524   7.882   1.713   8.488 -0.0031  0.5417  1.0973
 6972SOL     OW38525   9.208   5.326   2.318  0.4880 -1.2633  0.1470
 6972SOL    HW138526   9.276   5.261   2.335  2.6795  0.0112 -2.9620
 6972SOL    HW238527   9.212   5.385   2.394  1.9422 -1.9573  0.6527
 6973SOL     OW38528   2.683   7.759   2.727  0.8889 -0.3606  0.5395
 6973SOL    HW138529   2.665   7.744   2.820  0.5813 -0.0925  0.5277
 6973SOL    HW238530   2.751   7.696   2.704  0.1341 -1.2437  0.6611
 6974SOL     OW38531   9.294   3.835   1.437  0.2831 -0.3537 -0.0082
 6974SOL    HW138532   9.205   3.799   1.442 -0.2428  0.8310 -0.3796
 6974SOL    HW238533   9.308   3.877   1.522  1.1230 -1.9038  0.6467
 6975SOL     OW38534   3.802  10.905   3.360 -0.7247 -0.3223  0.1632
 6975SOL    HW138535   3.874  10.966   3.347  1.4676 -3.0165 -1.2297
 6975SOL    HW238536   3.761  10.897   3.274 -2.0374  0.3546  0.7034
 6976SOL     OW38537  11.188   8.105   2.187 -0.0343  0.4351 -0.5790
 6976SOL    HW138538  11.192   8.184   2.242 -2.7571 -0.2437  0.7320
 6976SOL    HW238539  11.260   8.051   2.219 -0.7213  0.6354  1.4658
 6977SOL     OW38540   0.561   6.808   3.805 -0.2205 -0.4116 -0.2661
 6977SOL    HW138541   0.472   6.777   3.816  0.5590 -2.4589  0.7722
 6977SOL    HW238542   0.592   6.765   3.725  0.2120 -0.6712  0.0367
 6978SOL     OW38543   7.109   1.627  13.726 -0.0677  0.2877  0.0891
 6978SOL    HW138544   7.106   1.609  13.820  1.7861  0.0705  0.1444
 6978SOL    HW238545   7.198   1.660  13.711  0.7705 -2.5081 -2.0497
 6979SOL     OW38546   7.800   5.034   7.117  0.5534 -0.4214 -0.0453
 6979SOL    HW138547   7.849   5.009   7.195  1.2381  0.8733 -0.0306
 6979SOL    HW238548   7.838   4.981   7.047 -0.1006 -1.6315  0.4765
 6980SOL     OW38549   1.800   8.270   0.743  0.0503  0.3552  0.0527
 6980SOL    HW138550   1.720   8.291   0.696  0.2379 -0.8099 -0.8119
 6980SOL    HW238551   1.868   8.268   0.676  0.0887 -2.7250  0.0522
 6981SOL     OW38552  10.984   7.476   3.894 -0.1693  0.3365  0.0189
 6981SOL    HW138553  11.047   7.530   3.942  0.7063 -0.3129 -0.3729
 6981SOL    HW238554  10.960   7.407   3.955  0.3207 -0.0251 -0.1950
 6982SOL     OW38555  12.949   0.984  12.784  0.2463  0.1353  0.5774
 6982SOL    HW138556  13.010   1.040  12.832  0.4719  0.8325 -0.4808
 6982SOL    HW238557  12.889   1.045  12.742 -0.9548 -0.5314  1.2785
 6983SOL     OW38558  10.521   4.086   1.314 -0.5955 -0.2410 -0.5139
 6983SOL    HW138559  10.597   4.107   1.259 -0.9822  0.3088 -0.8458
 6983SOL    HW238560  10.495   3.998   1.285  0.0369 -0.5254 -0.2506
 6984SOL     OW38561  10.879   3.641  10.048 -0.0384 -0.3163 -0.7311
 6984SOL    HW138562  10.898   3.595  10.130  1.2671 -1.2883 -1.5277
 6984SOL    HW238563  10.907   3.731  10.063  0.8788 -0.6604 -0.3296
 6985SOL     OW38564   0.125   6.933   6.699 -0.6013 -0.2125 -0.2235
 6985SOL    HW138565   0.051   6.951   6.756  0.1083 -1.0163  0.9871
 6985SOL    HW238566   0.200   6.974   6.743  0.4533 -3.1508  0.9020
 6986SOL     OW38567   1.742   6.626  10.908 -0.3111 -0.2583 -0.1063
 6986SOL    HW138568   1.770   6.697  10.967  0.4997 -0.2526 -0.4897
 6986SOL    HW238569   1.804   6.630  10.835 -2.0174  0.5351 -1.5933
 6987SOL     OW38570  12.396  10.293   0.186  0.1124 -0.5651  0.9532
 6987SOL    HW138571  12.344  10.218   0.215 -0.9035  0.1524  1.0463
 6987SOL    HW238572  12.347  10.329   0.113  1.1639 -0.6283  0.1913
 6988SOL     OW38573  10.088   2.822   6.804 -0.6416  0.8711 -0.4796
 6988SOL    HW138574  10.041   2.802   6.885  2.3015 -2.4920  0.6183
 6988SOL    HW238575  10.047   2.767   6.738 -1.2193  1.4896 -0.6458
 6989SOL     OW38576   3.512   4.336  13.494 -0.4683 -0.2240 -0.8207
 6989SOL    HW138577   3.511   4.248  13.457  0.0375 -1.4883  1.8995
 6989SOL    HW238578   3.426   4.345  13.535  0.0296 -0.1172  0.2374
 6990SOL     OW38579   0.705  12.107  13.864 -0.0672 -0.2112 -0.2179
 6990SOL    HW138580   0.668  12.190  13.895  0.0530 -0.0974 -0.3745
 6990SOL    HW238581   0.789  12.100  13.911 -0.0841 -0.2529 -0.1935
 6991SOL     OW38582   0.646  13.793   0.808  0.0995 -0.3068  0.4879
 6991SOL    HW138583   0.593  13.714   0.821 -0.4497 -0.0927 -0.3025
 6991SOL    HW238584   0.715  13.766   0.747 -0.2684 -0.1175 -0.0245
 6992SOL     OW38585   8.053  11.426   2.032  0.2764  0.1847  0.5686
 6992SOL    HW138586   8.088  11.343   2.063  0.6640  0.2334  0.2650
 6992SOL    HW238587   8.098  11.493   2.085  0.0443  0.2079  0.7392
 6993SOL     OW38588  12.559   9.297   6.963  0.0508 -0.1078 -0.4516
 6993SOL    HW138589  12.555   9.211   6.922  1.3613 -1.9497  2.9003
 6993SOL    HW238590  12.623   9.345   6.910  1.0644 -2.0314 -1.0850
 6994SOL     OW38591   1.029   8.120  10.749  0.2512 -0.5055 -0.1996
 6994SOL    HW138592   1.065   8.119  10.660  0.8943  0.7511  0.0196
 6994SOL    HW238593   1.105   8.135  10.805 -0.1829 -1.0567  0.5495
 6995SOL     OW38594  13.526   4.253   0.262  0.3086  0.0084  0.0104
 6995SOL    HW138595  13.529   4.184   0.197 -0.5323  0.2093 -0.2557
 6995SOL    HW238596  13.434   4.278   0.267  0.5794  1.0453  0.1652
 6996SOL     OW38597   4.288  10.827   2.910  0.5451 -0.0365  0.2296
 6996SOL    HW138598   4.291  10.846   2.816  1.5746 -0.0317  0.2528
 6996SOL    HW238599   4.327  10.740   2.918 -1.5168 -0.9954  0.4353
 6997SOL     OW38600  13.744   1.232   6.306  0.2981  0.1611 -0.1079
 6997SOL    HW138601  13.745   1.328   6.307 -0.2846  0.1742 -0.4767
 6997SOL    HW238602  13.676   1.209   6.243 -0.6984 -0.5002  1.1508
 6998SOL     OW38603  12.117   4.631  11.870 -0.0380  0.5007 -0.4301
 6998SOL    HW138604  12.041   4.673  11.910 -0.8100 -0.3427 -0.9762
 6998SOL    HW238605  12.081   4.558  11.820  1.1918 -0.3328 -0.1469
 6999SOL     OW38606  10.440   4.592   7.545 -0.3526  0.1824  0.3562
 6999SOL    HW138607  10.364   4.629   7.589  1.2725  0.3010  3.3339
 6999SOL    HW238608  10.480   4.534   7.610  1.9856 -0.0442 -1.1604
 7000SOL     OW38609   4.363  11.687   6.475  0.2207 -0.4767  0.0259
 7000SOL    HW138610   4.426  11.643   6.418 -1.7773  0.0348 -2.8215
 7000SOL    HW238611   4.383  11.780   6.464  0.6859 -0.4146  1.3031
 7001SOL     OW38612  10.862  10.140   8.593 -0.4212 -0.0078 -0.2679
 7001SOL    HW138613  10.790  10.131   8.655  0.0518 -3.4339 -0.0236
 7001SOL    HW238614  10.921  10.204   8.633 -1.0251 -0.7519  1.9465
 7002SOL     OW38615   1.850   3.778   5.930  0.1608  0.3930 -0.0103
 7002SOL    HW138616   1.805   3.790   5.846  0.3345  1.1505  0.0010
 7002SOL    HW238617   1.788   3.813   5.995 -0.9286 -2.1269  0.4460
 7003SOL     OW38618   0.053   5.561   6.742 -0.0554  0.2987 -0.0666
 7003SOL    HW138619   0.147   5.571   6.731 -0.0557 -0.3517 -0.7088
 7003SOL    HW238620   0.043   5.486   6.801 -0.1907 -0.6116 -1.2237
 7004SOL     OW38621   8.335   4.724   5.025  0.1734  0.3547  0.0983
 7004SOL    HW138622   8.292   4.660   4.969  0.7397 -1.1677  1.3344
 7004SOL    HW238623   8.317   4.695   5.114  2.3717  0.5581  0.6708
 7005SOL     OW38624   5.746   6.791   4.581  0.3997 -0.1462 -0.6507
 7005SOL    HW138625   5.731   6.706   4.623  0.7141 -0.2305 -0.7066
 7005SOL    HW238626   5.823   6.827   4.625  0.7293 -0.2309 -1.1444
 7006SOL     OW38627   3.709   0.665   8.769  0.2763 -0.5251  0.5073
 7006SOL    HW138628   3.771   0.724   8.726 -1.5961  1.0669 -0.1402
 7006SOL    HW238629   3.746   0.650   8.856  1.3928  0.6283  0.2604
 7007SOL     OW38630   9.718   9.302   8.776 -0.5794  0.1363  0.1795
 7007SOL    HW138631   9.774   9.292   8.699 -1.3341 -0.9745 -0.2398
 7007SOL    HW238632   9.661   9.225   8.776 -1.8530  1.0296  0.8111
 7008SOL     OW38633   4.580   0.411   5.669  0.1344 -0.0739  0.4902
 7008SOL    HW138634   4.626   0.444   5.592  0.7731 -1.8631  0.0559
 7008SOL    HW238635   4.641   0.424   5.741  1.2068 -1.9777 -0.0020
 7009SOL     OW38636  11.586  10.213   7.498  0.3320  0.1180 -0.1005
 7009SOL    HW138637  11.520  10.278   7.523 -0.5337 -0.0884 -1.7173
 7009SOL    HW238638  11.542  10.129   7.507  1.1577 -0.2046  1.1005
 7010SOL     OW38639  10.412   2.125  12.348  0.9383 -0.1033 -0.3312
 7010SOL    HW138640  10.335   2.142  12.294  1.0809 -0.5945 -0.6932
 7010SOL    HW238641  10.377   2.117  12.437  0.8836  2.3162 -0.0565
 7011SOL     OW38642  12.884  10.522   5.330  0.3514 -0.4226  0.2820
 7011SOL    HW138643  12.890  10.450   5.392 -0.5647 -0.2778  0.5614
 7011SOL    HW238644  12.974  10.552   5.318  0.7059 -1.4092  0.3933
 7012SOL     OW38645  13.221   0.263   4.873  0.2739  0.3439  0.0465
 7012SOL    HW138646  13.219   0.352   4.907 -3.1448 -0.3375  2.1553
 7012SOL    HW238647  13.182   0.210   4.942 -1.0489 -2.2474 -2.4639
 7013SOL     OW38648  12.992  10.463  14.047  0.4499 -0.2221 -0.4204
 7013SOL    HW138649  13.020  10.544  14.091  1.0292 -0.2623 -0.7166
 7013SOL    HW238650  12.947  10.493  13.968  0.0969 -0.1720 -0.2017
 7014SOL     OW38651   1.921   6.374  12.787 -1.0739  0.7793  0.7940
 7014SOL    HW138652   1.962   6.314  12.725 -0.6449  0.8100  1.0454
 7014SOL    HW238653   1.964   6.458  12.771 -1.6079  1.0007  0.5051
 7015SOL     OW38654   1.033   3.046   6.625 -0.3887 -0.2478  0.1567
 7015SOL    HW138655   1.013   3.106   6.697 -0.6280  0.5779 -0.5731
 7015SOL    HW238656   1.127   3.032   6.630  0.0205  1.8464 -0.8820
 7016SOL     OW38657   3.282  10.231   2.034  0.2844  0.5129 -0.3895
 7016SOL    HW138658   3.368  10.270   2.054  0.5321 -0.7394  1.2463
 7016SOL    HW238659   3.229  10.253   2.111 -0.4685  0.1568 -0.8068
 7017SOL     OW38660  13.999  13.137  11.947  0.2039  0.0250  0.3606
 7017SOL    HW138661  13.906  13.147  11.927  0.3591  0.1368 -0.3444
 7017SOL    HW238662  14.043  13.150  11.863  1.0610  2.5494  1.1116
 7018SOL     OW38663   3.047  13.668  13.037  0.0484 -0.2525 -0.3642
 7018SOL    HW138664   3.102  13.654  13.114  1.3164  0.5584 -1.0930
 7018SOL    HW238665   3.004  13.583  13.023  0.7852 -0.7824  0.4731
 7019SOL     OW38666   3.922   8.340   1.463  0.1926 -0.0220 -0.3710
 7019SOL    HW138667   3.833   8.372   1.447  0.2542  1.8108  2.2409
 7019SOL    HW238668   3.911   8.250   1.493 -0.6866 -0.0937 -0.8865
 7020SOL     OW38669  10.378   6.134   4.019 -0.1756  0.2481 -0.2112
 7020SOL    HW138670  10.381   6.228   4.040 -0.3850  0.1029  0.5172
 7020SOL    HW238671  10.396   6.091   4.103 -1.0130 -0.3682 -0.3384
 7021SOL     OW38672   2.035   7.908   5.740 -0.4903 -0.0618  0.6774
 7021SOL    HW138673   1.968   7.864   5.688  0.7876  0.5669 -1.6168
 7021SOL    HW238674   2.098   7.839   5.761 -0.7761 -0.2210  1.0327
 7022SOL     OW38675   0.054   8.833   6.455  0.0959  0.5147  0.4590
 7022SOL    HW138676   0.075   8.786   6.374 -1.0658  0.9787 -0.1215
 7022SOL    HW238677   0.139   8.842   6.499  0.4091 -2.0223  0.5573
 7023SOL     OW38678   5.238  12.311   8.701 -0.1802 -0.1361  0.1819
 7023SOL    HW138679   5.327  12.276   8.700 -0.0137  0.1839  1.3244
 7023SOL    HW238680   5.247  12.402   8.671 -0.0679 -0.0291  0.5254
 7024SOL     OW38681   9.993   7.685  10.327 -0.2474 -0.1525 -0.2048
 7024SOL    HW138682   9.909   7.640  10.326  0.6412 -1.8945 -0.3710
 7024SOL    HW238683  10.024   7.677  10.417 -0.5886  1.2189  0.0691
 7025SOL     OW38684   6.811  12.821   5.275 -0.0184  0.5424 -0.0071
 7025SOL    HW138685   6.896  12.851   5.243  0.3988  1.5453  1.9060
 7025SOL    HW238686   6.747  12.873   5.225  0.4435 -0.4183 -1.6546
 7026SOL     OW38687   8.306   9.011   1.524  0.2947 -0.2056  0.3076
 7026SOL    HW138688   8.259   9.084   1.564  0.3650 -0.5591  1.0383
 7026SOL    HW238689   8.369   8.984   1.590  1.2023 -0.0504 -0.4825
 7027SOL     OW38690  10.817   7.211  12.932 -0.1032 -0.5780 -0.5500
 7027SOL    HW138691  10.780   7.196  13.018  0.4743 -1.0349 -0.3742
 7027SOL    HW238692  10.855   7.127  12.907 -1.4175 -0.8367 -1.8259
 7028SOL     OW38693   8.876   3.386   5.452 -0.1756 -0.0037  0.4045
 7028SOL    HW138694   8.959   3.337   5.446 -0.3137 -0.5477  2.2301
 7028SOL    HW238695   8.894   3.468   5.407  0.9642 -0.5941 -0.2964
 7029SOL     OW38696   5.843   6.048   4.090  0.2141 -0.1581  0.3926
 7029SOL    HW138697   5.816   6.054   4.182  0.0337  2.1881  0.2382
 7029SOL    HW238698   5.926   6.001   4.093 -0.0813 -0.6637  1.6706
 7030SOL     OW38699   4.173  10.238  11.590  0.0068  0.3005 -0.0517
 7030SOL    HW138700   4.204  10.183  11.662 -0.4077 -2.2589 -1.6845
 7030SOL    HW238701   4.251  10.256  11.538 -0.0106  0.4731 -0.0188
 7031SOL     OW38702   6.567   0.412   0.330  0.0509 -0.5141 -0.2394
 7031SOL    HW138703   6.480   0.426   0.366  0.6836  0.1617  1.1000
 7031SOL    HW238704   6.587   0.493   0.282  0.1686 -0.4414 -0.0673
 7032SOL     OW38705   4.883   6.478   1.039 -0.8787  0.1993  0.1879
 7032SOL    HW138706   4.914   6.388   1.036 -0.5574  0.3327 -1.8895
 7032SOL    HW238707   4.931   6.517   1.112  1.5406 -0.4601 -0.9368
 7033SOL     OW38708   1.298   0.977  13.195  0.7954 -0.1323  0.3939
 7033SOL    HW138709   1.306   1.016  13.282 -1.7248 -0.0379  0.6646
 7033SOL    HW238710   1.317   0.885  13.208 -0.2929 -0.2609  1.2482
 7034SOL     OW38711  10.014   6.559   9.325  0.2268  0.4992 -0.6950
 7034SOL    HW138712   9.960   6.522   9.254  0.1670  1.8834 -1.4043
 7034SOL    HW238713   9.980   6.518   9.404  0.0689 -0.8337 -1.4255
 7035SOL     OW38714   3.480  11.904   7.218  0.5791  0.2016 -0.3399
 7035SOL    HW138715   3.416  11.936   7.282  0.6364 -0.1121 -0.1256
 7035SOL    HW238716   3.565  11.920   7.260  0.6469  0.6256 -0.6283
 7036SOL     OW38717   7.009   2.333   4.966  0.0161 -0.3474 -0.6302
 7036SOL    HW138718   6.919   2.307   4.984  0.6790 -0.9286  2.3081
 7036SOL    HW238719   7.003   2.425   4.941 -1.3900 -0.4384 -0.7114
 7037SOL     OW38720   0.350   0.924  12.503  0.2276  0.2257  0.1335
 7037SOL    HW138721   0.401   1.000  12.529  0.6757 -0.0600  0.0943
 7037SOL    HW238722   0.267   0.961  12.473  0.1670  0.6467  0.7920
 7038SOL     OW38723   9.428   9.623   2.150 -0.2241  0.0730 -0.3087
 7038SOL    HW138724   9.501   9.668   2.193 -0.3363  0.3128 -0.3681
 7038SOL    HW238725   9.461   9.535   2.133 -0.6614 -0.4928  1.5625
 7039SOL     OW38726  12.357   6.171   5.503  0.4295 -0.0566  0.4172
 7039SOL    HW138727  12.430   6.214   5.458 -0.9849  2.4997  0.3373
 7039SOL    HW238728  12.307   6.130   5.433  0.3670  0.5005  0.1256
 7040SOL     OW38729  11.699   9.317   2.975  0.5576  0.2506  0.1097
 7040SOL    HW138730  11.643   9.364   3.036  0.0409  1.5185 -1.2762
 7040SOL    HW238731  11.781   9.367   2.973  0.3100  0.6257 -0.7619
 7041SOL     OW38732   5.877   0.371   3.544  0.7413  0.1683  0.0210
 7041SOL    HW138733   5.883   0.462   3.574  2.7153  0.6169 -1.5118
 7041SOL    HW238734   5.802   0.369   3.485  0.3086  0.6200  0.5407
 7042SOL     OW38735   2.062  11.792   2.288  0.4526 -0.5905  0.4071
 7042SOL    HW138736   2.085  11.803   2.380 -0.1044 -0.7270  0.5641
 7042SOL    HW238737   1.995  11.858   2.272 -0.2649 -1.3115  0.3948
 7043SOL     OW38738   9.646   4.969  11.882  0.3426 -0.3350 -0.4106
 7043SOL    HW138739   9.625   5.059  11.907  0.5606 -0.1924 -0.7385
 7043SOL    HW238740   9.565   4.935  11.844 -0.0005 -0.5627  0.4948
 7044SOL     OW38741  13.072   8.783   7.596  0.3632  0.2605  0.2985
 7044SOL    HW138742  13.074   8.691   7.623  0.0957  0.9965  3.1299
 7044SOL    HW238743  13.163   8.803   7.573  0.2954 -0.8669 -1.0896
 7045SOL     OW38744   4.998  14.063   9.443  0.4241 -0.0856  0.0584
 7045SOL    HW138745   4.943  14.008   9.387 -0.2606 -0.2584  0.8898
 7045SOL    HW238746   4.987  14.027   9.531  0.2694  1.1385  0.5606
 7046SOL     OW38747   2.709  12.563   9.476 -0.6719 -0.2582 -0.3078
 7046SOL    HW138748   2.767  12.491   9.500 -0.4807  0.2090  0.6854
 7046SOL    HW238749   2.688  12.606   9.560 -1.5919  0.2228 -0.7674
 7047SOL     OW38750  11.074   3.276   5.243 -0.1562  0.0457 -0.7283
 7047SOL    HW138751  11.081   3.369   5.268 -0.9848 -0.7042  2.9965
 7047SOL    HW238752  11.147   3.235   5.289 -1.0480 -1.3910 -0.5499
 7048SOL     OW38753   9.137   8.902   3.689  0.0289 -0.0866 -0.3259
 7048SOL    HW138754   9.108   8.811   3.686  0.8591 -0.3548 -3.4698
 7048SOL    HW238755   9.062   8.952   3.656  0.0142  0.2711  0.2230
 7049SOL     OW38756   1.327  10.342  10.816 -0.1613 -0.1595  0.0176
 7049SOL    HW138757   1.245  10.325  10.770  0.4016  0.7222 -1.3994
 7049SOL    HW238758   1.301  10.387  10.896 -1.0637 -0.0442 -0.3254
 7050SOL     OW38759   6.795  12.291  12.025 -0.1193 -1.1323 -0.2378
 7050SOL    HW138760   6.788  12.209  12.074  0.8004 -0.1639  1.6227
 7050SOL    HW238761   6.888  12.296  12.001  0.4493  0.5703  2.0167
 7051SOL     OW38762  12.702   9.542  11.602 -0.4741  0.3987  0.2503
 7051SOL    HW138763  12.723   9.620  11.550 -0.9735  0.9291  0.8168
 7051SOL    HW238764  12.780   9.526  11.655 -0.0438 -0.0164 -0.4965
 7052SOL     OW38765   3.482   4.886  12.708 -0.4067  0.0461  0.1269
 7052SOL    HW138766   3.524   4.966  12.740  0.2157 -0.5993  0.9718
 7052SOL    HW238767   3.414   4.866  12.772 -0.0963 -0.4772  0.2998
 7053SOL     OW38768   6.030  12.525  13.837 -0.2308 -0.3550  0.3252
 7053SOL    HW138769   6.103  12.495  13.784  2.3402  1.9099  2.2419
 7053SOL    HW238770   5.958  12.536  13.776  1.9605  0.2956 -2.3357
 7054SOL     OW38771   1.365   8.395  13.917 -0.2863  0.3483  0.4442
 7054SOL    HW138772   1.370   8.480  13.874  0.3730 -0.0215 -0.2381
 7054SOL    HW238773   1.278   8.393  13.956  0.2607  2.0024  1.9004
 7055SOL     OW38774   4.728   6.599   6.092 -0.3517  0.6003 -0.0320
 7055SOL    HW138775   4.808   6.631   6.051 -1.6537  3.2891 -0.6876
 7055SOL    HW238776   4.714   6.658   6.166 -0.7007 -1.1033  1.3216
 7056SOL     OW38777   5.032   8.383   4.766 -0.0178 -0.1268  1.2057
 7056SOL    HW138778   5.004   8.458   4.713 -0.2956 -0.9101  0.2175
 7056SOL    HW238779   4.981   8.391   4.847 -1.5737 -0.3565  0.2893
 7057SOL     OW38780   0.035  10.689   2.074 -0.3351  0.5898 -0.4586
 7057SOL    HW138781   0.089  10.656   2.002  1.3710 -2.5163  1.9705
 7057SOL    HW238782  -0.050  10.645   2.062 -1.0777  2.3650 -2.0823
 7058SOL     OW38783   2.895  13.696   5.635  0.4016  0.0642  0.6230
 7058SOL    HW138784   2.899  13.644   5.715  0.9393  0.9599  1.1991
 7058SOL    HW238785   2.974  13.750   5.637  1.6163 -1.4791 -1.6611
 7059SOL     OW38786   3.309  13.888   2.822 -0.3088 -0.5376  0.2858
 7059SOL    HW138787   3.342  13.944   2.752 -1.0813 -0.6948 -0.2178
 7059SOL    HW238788   3.225  13.856   2.790 -0.2400 -1.3699  0.8982
 7060SOL     OW38789  12.085   8.263   5.355  0.6857  0.0930  0.0996
 7060SOL    HW138790  12.008   8.207   5.363  1.9086 -1.7673 -0.4736
 7060SOL    HW238791  12.115   8.274   5.446  0.9606 -1.0279  0.1707
 7061SOL     OW38792   2.058  11.361   6.811  0.1524 -0.3246  0.0100
 7061SOL    HW138793   1.976  11.366   6.763  0.1290  0.2238  0.1062
 7061SOL    HW238794   2.099  11.446   6.799 -1.2108  0.9650  3.4104
 7062SOL     OW38795   9.438   9.361   2.819 -0.3027  0.0355  0.0267
 7062SOL    HW138796   9.392   9.365   2.903  0.2523 -1.2673  0.4088
 7062SOL    HW238797   9.368   9.358   2.753 -0.8073 -1.7683  0.5928
 7063SOL     OW38798  10.440  12.222  13.176  0.4042  0.1949 -0.3283
 7063SOL    HW138799  10.448  12.255  13.086 -0.5313  0.7516 -0.2152
 7063SOL    HW238800  10.401  12.294  13.225  1.7594  0.2309  0.7438
 7064SOL     OW38801   1.913  12.494   9.497  0.0892 -0.3494 -0.2803
 7064SOL    HW138802   1.986  12.556   9.498  0.7549 -1.0660 -1.7175
 7064SOL    HW238803   1.852  12.531   9.434 -0.4047 -0.2045  0.2720
 7065SOL     OW38804   2.964  10.769   8.308  0.1421 -0.4198 -0.4657
 7065SOL    HW138805   2.874  10.755   8.338 -0.0830 -0.8715 -1.3350
 7065SOL    HW238806   2.980  10.862   8.324 -0.8653 -0.0868 -1.2846
 7066SOL     OW38807   8.778   1.913  11.961  0.0380 -0.1965 -0.4223
 7066SOL    HW138808   8.780   2.007  11.943  1.3767  0.1743  1.3614
 7066SOL    HW238809   8.867   1.893  11.990 -0.9901 -1.3243  2.2975
 7067SOL     OW38810  11.693   6.219  12.242 -0.0943  0.1678 -0.5926
 7067SOL    HW138811  11.735   6.254  12.320  1.6122  0.1514 -1.4471
 7067SOL    HW238812  11.715   6.281  12.173 -1.2199 -0.0334 -1.1552
 7068SOL     OW38813   5.878  12.145   7.846 -0.3678  0.0500 -0.6023
 7068SOL    HW138814   5.829  12.187   7.776 -1.7727 -0.6818 -0.0953
 7068SOL    HW238815   5.951  12.204   7.863 -1.4074  1.4945 -0.9696
 7069SOL     OW38816   4.992   6.634  12.149 -0.5628  0.0198 -0.1995
 7069SOL    HW138817   5.053   6.610  12.218 -0.1089 -1.1689 -0.9852
 7069SOL    HW238818   4.917   6.671  12.195 -0.5754 -1.3916  0.9974
 7070SOL     OW38819   7.021   0.200   6.374 -0.1167 -0.1366 -0.3227
 7070SOL    HW138820   7.026   0.114   6.331 -0.3801  0.5448 -1.7705
 7070SOL    HW238821   6.981   0.257   6.309 -0.3277  1.0026  0.7766
 7071SOL     OW38822   0.107   3.256   9.850  0.2023 -0.6838  0.0377
 7071SOL    HW138823   0.123   3.210   9.933  1.0987 -1.3640 -0.4951
 7071SOL    HW238824   0.091   3.186   9.786  1.7441 -0.3108 -0.8168
 7072SOL     OW38825   2.756   9.970   4.130 -0.6127 -0.1132 -0.2909
 7072SOL    HW138826   2.722  10.056   4.106 -0.1755  0.2650  0.4385
 7072SOL    HW238827   2.684   9.910   4.110 -1.9103  0.7104  1.5892
 7073SOL     OW38828   8.435  10.201  13.198 -0.1255 -0.2655  0.2613
 7073SOL    HW138829   8.500  10.224  13.264 -2.5265  2.1129  2.0092
 7073SOL    HW238830   8.459  10.255  13.122 -0.6421  1.5675  1.3195
 7074SOL     OW38831  11.934  10.555   8.362 -0.1256  0.3446 -0.6442
 7074SOL    HW138832  11.975  10.559   8.449 -0.4912 -3.7797 -0.0933
 7074SOL    HW238833  12.001  10.516   8.306 -0.9801 -0.0724 -1.3944
 7075SOL     OW38834   6.445  11.555   5.919 -0.2588  0.0459 -0.7852
 7075SOL    HW138835   6.505  11.600   5.859  0.9224 -1.2623 -0.6367
 7075SOL    HW238836   6.411  11.625   5.975  1.3106  0.8137 -0.7299
 7076SOL     OW38837   8.475  12.132   3.846 -0.4102  0.3507  0.5493
 7076SOL    HW138838   8.401  12.193   3.850 -1.0726 -0.4297  0.4571
 7076SOL    HW238839   8.507  12.140   3.756 -0.4329  0.6349  0.5654
 7077SOL     OW38840  12.506   7.578   5.396  0.1952 -0.8807 -0.1839
 7077SOL    HW138841  12.478   7.537   5.314  0.2264 -1.6258  0.1732
 7077SOL    HW238842  12.463   7.526   5.464  1.8539 -1.6014  0.3553
 7078SOL     OW38843   3.815   3.782   0.674  0.2507 -0.4046 -0.3110
 7078SOL    HW138844   3.725   3.750   0.670  0.0494  0.2684 -1.9019
 7078SOL    HW238845   3.855   3.752   0.593  1.0887  0.3566 -0.2000
 7079SOL     OW38846   9.675   9.150   2.195 -0.0302  0.4722 -0.9698
 7079SOL    HW138847   9.646   9.082   2.134  1.3164  0.3292 -1.4838
 7079SOL    HW238848   9.715   9.101   2.267  0.7723  0.6979 -1.2534
 7080SOL     OW38849   7.767  13.897   1.793  0.3961 -0.3937 -0.1356
 7080SOL    HW138850   7.683  13.917   1.834  0.2454 -1.3971  0.0683
 7080SOL    HW238851   7.820  13.860   1.864  0.2496 -1.8267 -0.7409
 7081SOL     OW38852   3.279   9.856   2.335  0.0723 -0.2258  0.1547
 7081SOL    HW138853   3.228   9.916   2.281 -0.1947 -0.3391  0.2791
 7081SOL    HW238854   3.228   9.775   2.335  1.3367 -1.0782 -1.5611
 7082SOL     OW38855   9.293  12.157   9.482 -0.5340 -0.1353  0.1029
 7082SOL    HW138856   9.340  12.106   9.416 -1.6023  1.0948 -1.7118
 7082SOL    HW238857   9.238  12.092   9.527  1.5259 -1.2954  1.1008
 7083SOL     OW38858   4.090  12.824   4.824 -0.3533 -0.0926  0.4029
 7083SOL    HW138859   4.160  12.821   4.889  0.7968 -2.1638 -0.8213
 7083SOL    HW238860   4.116  12.894   4.764  0.4284 -0.5200  0.2322
 7084SOL     OW38861  11.313   5.772   9.366 -0.4809 -0.2298 -0.0822
 7084SOL    HW138862  11.335   5.805   9.278  0.7393  1.2103  0.7229
 7084SOL    HW238863  11.219   5.790   9.376 -0.5279  0.0224 -0.9048
 7085SOL     OW38864   2.293  11.547   7.818 -0.3669  0.3978 -0.0675
 7085SOL    HW138865   2.316  11.492   7.892 -1.4786 -1.4699 -1.0398
 7085SOL    HW238866   2.201  11.571   7.832 -0.9612 -0.9600 -1.3737
 7086SOL     OW38867  13.569   7.758   3.240  0.3031  0.0635 -0.2665
 7086SOL    HW138868  13.586   7.852   3.248 -0.3266  0.2280 -0.7377
 7086SOL    HW238869  13.610   7.733   3.158  1.2311 -0.2719  0.2780
 7087SOL     OW38870  13.638  12.738   5.146  0.3094 -0.0106  0.6190
 7087SOL    HW138871  13.597  12.818   5.178  0.9157  0.1822  0.9415
 7087SOL    HW238872  13.669  12.760   5.058  1.3673  0.4471  1.0813
 7088SOL     OW38873   7.240   0.253  10.512  0.1817  0.0865 -0.9619
 7088SOL    HW138874   7.221   0.332  10.562 -2.2904 -2.1172  1.8824
 7088SOL    HW238875   7.174   0.252  10.443  0.1106  0.3608 -0.9004
 7089SOL     OW38876  14.066   1.387   4.440 -0.2602 -0.6929 -0.3395
 7089SOL    HW138877  13.972   1.374   4.429 -0.3302 -0.0874 -0.4781
 7089SOL    HW238878  14.082   1.477   4.411  0.4354 -0.9365 -0.7438
 7090SOL     OW38879   1.850  10.098   3.248 -0.2975  0.0870 -0.6801
 7090SOL    HW138880   1.793  10.110   3.171 -1.4608  0.0361  0.1396
 7090SOL    HW238881   1.856  10.186   3.286 -0.4774 -0.0579 -0.3185
 7091SOL     OW38882   4.464  13.639   4.625  0.0460 -0.0627  0.1384
 7091SOL    HW138883   4.378  13.680   4.628  0.0869  0.0751 -0.3815
 7091SOL    HW238884   4.502  13.671   4.543  0.5060 -0.2899  0.2619
 7092SOL     OW38885   9.915   5.493  12.137  0.2098  0.3391  0.3275
 7092SOL    HW138886   9.953   5.435  12.071 -0.4187  1.3042 -0.9257
 7092SOL    HW238887   9.832   5.451  12.161 -0.1047  0.5600 -0.3619
 7093SOL     OW38888   3.057   4.092  13.016  0.8617 -1.0375 -0.0965
 7093SOL    HW138889   3.068   4.048  13.101  1.9232  0.8418  0.8184
 7093SOL    HW238890   2.963   4.093  13.001  0.5472 -0.5008  1.6139
 7094SOL     OW38891   3.811  11.788   8.861 -0.1589  0.1882 -0.9506
 7094SOL    HW138892   3.871  11.830   8.799 -0.4413 -0.2489 -1.5340
 7094SOL    HW238893   3.852  11.703   8.880  1.1691  1.2380  1.3653
 7095SOL     OW38894  11.981   2.282   0.268 -0.5398 -0.8397 -0.2467
 7095SOL    HW138895  11.905   2.340   0.263 -0.9757 -1.3032  0.6874
 7095SOL    HW238896  11.988   2.245   0.180 -1.6347 -1.0686 -0.2581
 7096SOL     OW38897   2.828   8.809   5.984  0.2155 -0.2764  0.1039
 7096SOL    HW138898   2.864   8.786   6.069 -0.3073 -0.1987  0.3512
 7096SOL    HW238899   2.780   8.890   5.999  0.6195  0.0621 -0.3963
 7097SOL     OW38900   9.298   4.412   6.530 -0.2542 -0.2842 -0.3267
 7097SOL    HW138901   9.346   4.492   6.511 -0.2253 -0.1846  0.1578
 7097SOL    HW238902   9.317   4.354   6.456 -0.6838  0.3393 -0.9376
 7098SOL     OW38903   1.848   0.564   1.959 -0.1401 -0.2625  0.0939
 7098SOL    HW138904   1.791   0.498   1.918 -0.5309  0.2378 -0.1698
 7098SOL    HW238905   1.827   0.646   1.915  1.2141 -0.1631 -0.4358
 7099SOL     OW38906   8.158   2.433  13.122 -0.1722 -0.2190  0.6660
 7099SOL    HW138907   8.216   2.402  13.052  0.5400  5.0236 -1.4926
 7099SOL    HW238908   8.071   2.399  13.097  0.4771 -0.5064 -1.3784
 7100SOL     OW38909   9.228  12.652   3.365 -0.5545  0.6184  0.5396
 7100SOL    HW138910   9.144  12.644   3.411 -1.5593  0.1039 -1.2901
 7100SOL    HW238911   9.215  12.604   3.283  1.9911 -0.6764  0.7868
 7101SOL     OW38912  13.118   1.782   6.743  0.5005 -0.1497 -0.2474
 7101SOL    HW138913  13.076   1.739   6.818  0.1102 -1.5086 -1.1992
 7101SOL    HW238914  13.057   1.851   6.717 -0.0092 -0.5588 -0.1496
 7102SOL     OW38915   4.758  11.831  12.062 -0.1096 -0.4174  0.3565
 7102SOL    HW138916   4.781  11.883  12.139  0.1421 -0.0203  0.0189
 7102SOL    HW238917   4.680  11.874  12.027  0.7846  0.4743 -0.6069
 7103SOL     OW38918   5.097  12.033  13.418  0.8083  0.2538 -0.1895
 7103SOL    HW138919   5.156  12.075  13.480 -0.3279  0.7372  0.5740
 7103SOL    HW238920   5.100  11.940  13.441 -1.2686  0.6576  2.0943
 7104SOL     OW38921   9.378  12.183   6.830 -0.0821 -0.2246 -0.0271
 7104SOL    HW138922   9.436  12.140   6.893  3.3243  3.1909 -0.4148
 7104SOL    HW238923   9.419  12.167   6.745 -0.5640  0.9441 -0.5082
 7105SOL     OW38924   3.609   1.425   4.901  0.4421  0.2025  0.2759
 7105SOL    HW138925   3.567   1.411   4.816 -0.7472  1.9660  0.5228
 7105SOL    HW238926   3.694   1.464   4.879  0.8931 -0.9499 -0.1300
 7106SOL     OW38927   1.505   9.181   5.604 -0.0387 -0.2345 -0.2507
 7106SOL    HW138928   1.465   9.094   5.613 -0.1155 -0.2820 -0.9777
 7106SOL    HW238929   1.431   9.242   5.609  0.1250 -0.1302  1.3166
 7107SOL     OW38930   4.051   2.640  12.613  0.3317  0.3764  0.3165
 7107SOL    HW138931   3.976   2.596  12.575  1.5332 -1.3915 -0.1480
 7107SOL    HW238932   4.018   2.680  12.693 -1.0518 -0.4557  0.1865
 7108SOL     OW38933   0.124   4.124   5.233  0.5294  0.0758 -0.2147
 7108SOL    HW138934   0.068   4.085   5.300 -0.0829  0.2642 -0.6093
 7108SOL    HW238935   0.212   4.095   5.256  0.4464  0.8469  1.1613
 7109SOL     OW38936  10.914  11.320   8.765  0.3577 -0.3150 -0.5069
 7109SOL    HW138937  10.982  11.290   8.826 -0.9768 -1.7969  0.3343
 7109SOL    HW238938  10.832  11.290   8.804 -0.5673 -1.2848 -2.9907
 7110SOL     OW38939   6.934  10.694   0.307  0.1754 -0.0250  0.2462
 7110SOL    HW138940   6.867  10.654   0.363  1.1154  0.0536  1.4732
 7110SOL    HW238941   6.986  10.620   0.275 -0.3705 -0.0712 -0.5526
 7111SOL     OW38942  11.190  13.543  12.706 -0.6956  0.0588 -0.2489
 7111SOL    HW138943  11.177  13.508  12.794 -0.6190  0.4396 -0.0896
 7111SOL    HW238944  11.147  13.478  12.649 -3.1018  1.1101  0.2483
 7112SOL     OW38945  13.688   4.464   5.373 -0.6559  0.0976  0.5050
 7112SOL    HW138946  13.749   4.399   5.340 -2.2888 -1.7595  0.9505
 7112SOL    HW238947  13.661   4.514   5.296  0.2563 -0.0555  0.0770
 7113SOL     OW38948  13.084  13.549   2.958 -0.0917 -0.4816  0.6068
 7113SOL    HW138949  13.176  13.575   2.958 -0.4196  1.3223  4.4599
 7113SOL    HW238950  13.051  13.580   2.874  2.3452  0.6317 -0.0430
 7114SOL     OW38951   5.758   6.546   1.640 -0.2967 -0.7944 -0.4955
 7114SOL    HW138952   5.681   6.580   1.594  0.2005  0.9786 -0.0943
 7114SOL    HW238953   5.748   6.577   1.730  0.0574 -1.9950 -0.0270
 7115SOL     OW38954   1.851  13.004   4.368  0.4571  0.6267  0.0793
 7115SOL    HW138955   1.783  13.034   4.429 -0.5453  0.3996 -0.8907
 7115SOL    HW238956   1.874  12.917   4.400  0.5004  0.8217  0.5858
 7116SOL     OW38957   1.440   6.704  12.613  0.4193  0.4471  0.4454
 7116SOL    HW138958   1.535   6.694  12.619  0.6778  2.5038  0.2914
 7116SOL    HW238959   1.422   6.706  12.519  0.5129  2.1321  0.4329
 7117SOL     OW38960  12.088   5.264   1.456 -0.6019  0.1060  0.2706
 7117SOL    HW138961  12.167   5.318   1.450  0.1745 -0.9370  0.8093
 7117SOL    HW238962  12.035   5.290   1.380 -1.2695  3.1503  1.5984
 7118SOL     OW38963   4.375   8.320   6.445 -0.2406 -0.3316  0.3700
 7118SOL    HW138964   4.387   8.407   6.407 -1.7615  0.3519  1.3726
 7118SOL    HW238965   4.464   8.290   6.466  0.3150  0.8606 -0.2253
 7119SOL     OW38966   0.929   1.543  11.093 -0.1644  0.6331 -0.0558
 7119SOL    HW138967   0.912   1.576  11.005 -0.3233  1.6369  0.3394
 7119SOL    HW238968   0.949   1.621  11.145 -1.0847  0.1846  1.0356
 7120SOL     OW38969  11.781   7.668  11.539  0.4309  0.3692  0.2827
 7120SOL    HW138970  11.730   7.710  11.470  0.7036  1.7845  0.8963
 7120SOL    HW238971  11.820   7.592  11.497 -0.8092  0.2017 -0.6448
 7121SOL     OW38972   9.127  14.065   1.922 -0.3856  0.1311 -0.7459
 7121SOL    HW138973   9.158  14.084   1.833 -0.0505 -1.1477 -0.9176
 7121SOL    HW238974   9.207  14.056   1.974 -0.5761  0.7710 -0.3269
 7122SOL     OW38975   2.642   4.080   2.459  0.0825  0.0318  0.2341
 7122SOL    HW138976   2.625   4.104   2.368  0.4841 -0.1768  0.1021
 7122SOL    HW238977   2.640   3.984   2.459 -0.3091  0.0392  0.5208
 7123SOL     OW38978  10.162   0.229  10.841 -0.2282  0.1106 -0.6753
 7123SOL    HW138979  10.197   0.144  10.866 -0.3536  0.2501 -0.0185
 7123SOL    HW238980  10.163   0.281  10.921 -0.9455  0.4591 -0.8811
 7124SOL     OW38981   8.203   9.938   2.436 -0.0913  0.6436 -0.7212
 7124SOL    HW138982   8.248   9.936   2.351 -0.4316  0.0352 -0.8942
 7124SOL    HW238983   8.153  10.019   2.434  0.6060  1.0822 -0.7295
 7125SOL     OW38984  13.457   0.019   1.959  0.3932 -0.1101  0.6010
 7125SOL    HW138985  13.426   0.025   2.049  2.0272  0.6118  1.1602
 7125SOL    HW238986  13.545  -0.018   1.967  0.0970 -1.1579 -0.8067
 7126SOL     OW38987  12.768  11.140  11.034  0.5541  0.1557 -0.0881
 7126SOL    HW138988  12.750  11.194  11.110 -0.2452  0.2261 -0.3146
 7126SOL    HW238989  12.796  11.202  10.966  2.6235 -0.0353  0.5123
 7127SOL     OW38990   2.413   0.678  12.403  0.1601  0.3560 -0.1415
 7127SOL    HW138991   2.379   0.760  12.368  0.3635  0.4519 -0.1138
 7127SOL    HW238992   2.473   0.704  12.473  0.1995  0.1833 -0.1103
 7128SOL     OW38993  11.007   0.978   7.378  0.3513 -0.0134  0.1082
 7128SOL    HW138994  10.944   0.987   7.449  0.0664  1.5109 -0.2990
 7128SOL    HW238995  11.091   0.961   7.421  0.2758  1.3928  0.8611
 7129SOL     OW38996   8.974   1.679  10.153  0.3130 -0.4205 -0.7599
 7129SOL    HW138997   8.984   1.723  10.069 -0.1460  0.2752 -0.4597
 7129SOL    HW238998   9.063   1.651  10.176  0.5850  0.1699 -1.0595
 7130SOL     OW38999   5.872  13.679   1.924  0.3363  0.2078 -0.0657
 7130SOL    HW139000   5.917  13.620   1.984  1.3294  1.0866  0.0760
 7130SOL    HW239001   5.931  13.686   1.849 -0.3639  0.0370 -0.6477
 7131SOL     OW39002   8.263  13.392  11.412 -0.3085 -0.1340 -0.4850
 7131SOL    HW139003   8.207  13.423  11.483  0.7734  2.0506 -0.5083
 7131SOL    HW239004   8.226  13.432  11.333  2.1230  2.8303 -0.3093
 7132SOL     OW39005  13.642   0.239   7.291 -0.9184 -0.0329  0.3574
 7132SOL    HW139006  13.579   0.299   7.250  0.8256  1.0465 -0.8528
 7132SOL    HW239007  13.703   0.296   7.337 -0.6363 -1.0553  1.2990
 7133SOL     OW39008   6.484  11.484  13.917 -0.1257 -0.8486  0.4193
 7133SOL    HW139009   6.403  11.443  13.886  0.7625 -2.3411 -0.0399
 7133SOL    HW239010   6.479  11.477  14.013 -0.3482 -1.3339  0.3779
 7134SOL     OW39011  13.968   4.526  12.508  0.1109 -0.2256  0.0517
 7134SOL    HW139012  14.038   4.581  12.544  0.3221 -0.4388 -0.0289
 7134SOL    HW239013  13.889   4.556  12.552  0.0505  0.8656 -0.7412
 7135SOL     OW39014  11.752   6.997   1.190  0.2330  0.0118  0.3380
 7135SOL    HW139015  11.703   6.936   1.135  1.7969 -1.7344  0.7817
 7135SOL    HW239016  11.826   7.025   1.136 -0.8149  2.1428 -0.1081
 7136SOL     OW39017  10.719   5.095  13.317 -0.1117  0.1605 -0.5005
 7136SOL    HW139018  10.738   5.002  13.303  0.1440  0.1628 -0.1732
 7136SOL    HW239019  10.759   5.116  13.402  0.2211  0.6802 -0.7797
 7137SOL     OW39020   5.163  11.846  11.360  0.1061 -0.0509  0.3414
 7137SOL    HW139021   5.214  11.916  11.401 -1.5286  1.4031 -0.0385
 7137SOL    HW239022   5.120  11.802  11.434  1.7867 -1.2663  0.6616
 7138SOL     OW39023   3.755   8.053   2.410 -0.3111 -0.5526  0.4230
 7138SOL    HW139024   3.671   8.083   2.375 -0.2785 -0.7443  0.1701
 7138SOL    HW239025   3.812   8.130   2.404 -0.0664 -0.7937 -0.7533
 7139SOL     OW39026   1.472  10.734  11.655 -0.6000 -0.0311 -0.5306
 7139SOL    HW139027   1.397  10.700  11.606 -1.1748  0.8395 -0.2867
 7139SOL    HW239028   1.452  10.827  11.666  0.9487  0.4244 -1.2624
 7140SOL     OW39029   5.795  12.111  14.014  0.1238  0.6595  0.2653
 7140SOL    HW139030   5.816  12.046  14.082  0.8202  1.3570  0.7273
 7140SOL    HW239031   5.740  12.063  13.952 -1.5373  0.3174  1.9106
 7141SOL     OW39032   1.517  10.582  12.390  0.4473  0.0998  0.0424
 7141SOL    HW139033   1.508  10.494  12.428  0.9521 -0.2722 -0.6732
 7141SOL    HW239034   1.463  10.638  12.446  1.4507 -0.3511  1.5168
 7142SOL     OW39035   3.224   2.277   2.909 -1.0940  0.6062 -0.0180
 7142SOL    HW139036   3.251   2.368   2.926 -0.0482  0.1595  0.8494
 7142SOL    HW239037   3.242   2.231   2.991 -0.6754 -0.6001 -0.7584
 7143SOL     OW39038  14.086   7.043  12.743  0.1424 -0.7155  0.3975
 7143SOL    HW139039  14.143   6.969  12.765 -0.3802 -1.9427 -2.0473
 7143SOL    HW239040  14.147   7.115  12.726  1.0215 -1.8066 -1.4396
 7144SOL     OW39041   8.861   0.477   9.882  0.3242 -0.0078 -0.1072
 7144SOL    HW139042   8.918   0.494   9.957  0.5068  0.6096 -0.3788
 7144SOL    HW239043   8.773   0.494   9.916  0.2966 -0.9176  0.2992
 7145SOL     OW39044   6.636   8.832   2.321  0.4332  0.0454  0.2287
 7145SOL    HW139045   6.682   8.916   2.331  0.4598 -0.1855  2.4670
 7145SOL    HW239046   6.567   8.850   2.258 -0.6553  2.2727  1.9097
 7146SOL     OW39047  12.211   5.258   5.528 -0.3054  0.1178  0.1246
 7146SOL    HW139048  12.211   5.177   5.475 -1.0353 -0.2941  0.7353
 7146SOL    HW239049  12.300   5.263   5.564  1.2513  1.9779 -3.4241
 7147SOL     OW39050   4.691   1.799   8.761  0.3137 -0.6089 -0.0041
 7147SOL    HW139051   4.625   1.801   8.830 -0.2553 -0.7234 -0.5360
 7147SOL    HW239052   4.760   1.858   8.791 -0.5225  0.3504  0.0669
 7148SOL     OW39053  10.013  13.076   4.289  0.2071  0.1797  0.1018
 7148SOL    HW139054  10.020  13.058   4.383  2.9448  1.1362  0.1463
 7148SOL    HW239055   9.919  13.072   4.271 -0.2164 -4.2856  1.9931
 7149SOL     OW39056   4.152  13.459  12.505 -0.3139 -0.0546 -0.4282
 7149SOL    HW139057   4.125  13.387  12.562 -1.3495  1.0078  0.4875
 7149SOL    HW239058   4.070  13.499  12.476  0.2284  0.2839 -1.5542
 7150SOL     OW39059   5.669   0.703  10.997  0.8942 -0.0570  0.2423
 7150SOL    HW139060   5.594   0.737  10.948  1.8830  1.3357 -0.3747
 7150SOL    HW239061   5.722   0.781  11.015  1.6295 -0.8452  1.6767
 7151SOL     OW39062   2.232   0.074   9.896 -0.9408 -0.6542 -0.1104
 7151SOL    HW139063   2.312   0.098   9.850 -0.0425 -2.2791  0.5220
 7151SOL    HW239064   2.196   0.001   9.846 -2.1099  0.1347 -0.4570
 7152SOL     OW39065   5.792  10.810  11.545 -0.5179  0.1983 -0.3152
 7152SOL    HW139066   5.790  10.866  11.623 -0.0499 -1.7860  1.2181
 7152SOL    HW239067   5.716  10.836  11.495 -0.4574  2.0102  0.4597
 7153SOL     OW39068   0.313   2.121  13.020 -0.0985  0.2494  0.2981
 7153SOL    HW139069   0.320   2.073  12.937 -2.6151 -1.1412  0.8029
 7153SOL    HW239070   0.402   2.154  13.036  0.8965 -1.1325 -1.9380
 7154SOL     OW39071   0.379  13.278   1.422 -0.0104 -0.2691 -0.4038
 7154SOL    HW139072   0.402  13.371   1.424  1.1137 -0.4158 -2.9507
 7154SOL    HW239073   0.301  13.274   1.367 -0.0523 -0.8409 -0.3047
 7155SOL     OW39074   1.549   4.221  12.080  0.0482  0.4196 -0.3406
 7155SOL    HW139075   1.555   4.228  11.985  0.7648 -0.4896 -0.3763
 7155SOL    HW239076   1.465   4.262  12.102 -0.1355  0.6150 -1.3599
 7156SOL     OW39077  13.349   9.974   0.775 -0.2297 -0.6224  0.6667
 7156SOL    HW139078  13.283  10.022   0.825  1.2794  0.6971  1.4703
 7156SOL    HW239079  13.372   9.900   0.830 -1.6906 -1.6528 -0.0443
 7157SOL     OW39080   4.194   6.790   2.973 -0.1044 -0.3171 -0.3528
 7157SOL    HW139081   4.211   6.727   2.903 -1.4463  0.2360 -1.2072
 7157SOL    HW239082   4.279   6.830   2.991  0.9169 -2.7343  0.6255
 7158SOL     OW39083   3.465   0.452   2.793 -0.2453 -0.5671 -0.7939
 7158SOL    HW139084   3.482   0.414   2.879  0.1558 -1.4564 -1.2561
 7158SOL    HW239085   3.527   0.525   2.785 -0.6238 -0.1651 -0.1390
 7159SOL     OW39086   0.648  13.894   9.566 -0.0835  0.0305  0.4167
 7159SOL    HW139087   0.674  13.920   9.477  0.1451  0.4352  0.6000
 7159SOL    HW239088   0.731  13.876   9.610 -0.1129  1.0855  0.9319
 7160SOL     OW39089   0.625   8.906  11.083  0.6395  0.1020  0.8201
 7160SOL    HW139090   0.669   8.991  11.077 -0.9343  0.9406  0.4719
 7160SOL    HW239091   0.664   8.863  11.159 -0.7074  2.5193  3.0508
 7161SOL     OW39092   6.805   4.561   1.101  0.1770 -0.3157 -0.1746
 7161SOL    HW139093   6.823   4.636   1.046  0.9242 -0.7313 -0.5238
 7161SOL    HW239094   6.736   4.513   1.056 -1.1852  0.7861  0.6735
 7162SOL     OW39095  12.121   1.036   7.989 -0.3062 -0.0423  0.6460
 7162SOL    HW139096  12.190   1.006   8.048 -0.9137 -0.1836  1.2943
 7162SOL    HW239097  12.063   0.960   7.980 -1.7457  0.8245  2.1290
 7163SOL     OW39098  13.137   5.136   3.580 -0.1993 -0.4859  0.0336
 7163SOL    HW139099  13.130   5.180   3.665  0.2675  0.4512 -0.3896
 7163SOL    HW239100  13.137   5.043   3.601 -0.7916 -0.2839  1.0030
 7164SOL     OW39101   8.930  13.812   5.617  0.0971 -0.1240  0.1708
 7164SOL    HW139102   8.963  13.793   5.529 -0.7790 -4.2323  0.5112
 7164SOL    HW239103   9.006  13.845   5.665  1.7977 -2.0701 -1.0305
 7165SOL     OW39104   6.483   1.302   0.839  0.4130 -0.2244 -0.0299
 7165SOL    HW139105   6.446   1.244   0.906 -1.6580  0.3801 -0.5546
 7165SOL    HW239106   6.578   1.295   0.850  0.1606 -1.0676  2.1563
 7166SOL     OW39107   9.167   6.211  10.709  0.1437 -0.4669  0.3400
 7166SOL    HW139108   9.180   6.279  10.642  1.2299 -0.8973  0.0954
 7166SOL    HW239109   9.254   6.174  10.722 -0.1584 -0.7813  1.5874
 7167SOL     OW39110  10.242  12.672   3.663 -0.4633 -0.3030  0.2751
 7167SOL    HW139111  10.298  12.642   3.592  0.1082 -1.7808  1.3037
 7167SOL    HW239112  10.289  12.648   3.743  0.2948  3.8784  1.2781
 7168SOL     OW39113   8.239  10.705   5.116  0.5229 -0.1354  0.1251
 7168SOL    HW139114   8.184  10.651   5.059 -1.1636 -0.1249  1.6119
 7168SOL    HW239115   8.297  10.753   5.057  0.0821 -1.4251 -1.4185
 7169SOL     OW39116   8.783  12.786   9.137 -0.1654 -0.1354 -0.4847
 7169SOL    HW139117   8.877  12.767   9.145  0.0639  1.5765  1.5810
 7169SOL    HW239118   8.779  12.879   9.113 -1.3604 -0.4009 -1.4537
 7170SOL     OW39119  10.482   1.070  12.861  0.1551 -0.5895  0.1001
 7170SOL    HW139120  10.507   1.161  12.848 -0.1617 -0.7035 -1.5610
 7170SOL    HW239121  10.479   1.059  12.956 -0.1254  1.2025  0.3325
 7171SOL     OW39122  14.022  13.294   0.745 -0.8459 -0.2151  0.1638
 7171SOL    HW139123  13.958  13.291   0.674 -0.3477 -3.0361 -0.3034
 7171SOL    HW239124  13.970  13.295   0.825 -1.4157  0.8988 -0.2005
 7172SOL     OW39125  12.350  10.766   8.864  0.5898  0.1583  0.0646
 7172SOL    HW139126  12.349  10.676   8.897  0.3711 -0.1000 -0.6268
 7172SOL    HW239127  12.270  10.805   8.900 -0.5540 -0.6355 -1.5112
 7173SOL     OW39128   7.411   9.105   3.712 -0.3165  0.1066 -0.3200
 7173SOL    HW139129   7.500   9.117   3.744 -0.2488 -1.1543  0.0051
 7173SOL    HW239130   7.355   9.131   3.785 -0.2899  2.6313 -1.1150
 7174SOL     OW39131  13.387  12.487   9.219 -0.2934 -0.0384  0.5028
 7174SOL    HW139132  13.416  12.568   9.176 -1.6582  0.3149  0.1950
 7174SOL    HW239133  13.306  12.464   9.174  0.6356 -2.2320 -0.1904
 7175SOL     OW39134   1.439  10.853  13.413  0.1603  0.0662  0.1294
 7175SOL    HW139135   1.448  10.943  13.380  1.2394  0.0671  0.4219
 7175SOL    HW239136   1.365  10.858  13.474 -1.4659  0.2019 -1.7454
 7176SOL     OW39137   7.034   5.698   0.961 -0.5057  0.3254  0.1319
 7176SOL    HW139138   6.941   5.716   0.946 -0.6069  0.4879  0.9107
 7176SOL    HW239139   7.037   5.603   0.977 -0.5851  0.3724  0.4308
 7177SOL     OW39140   4.154   3.993   0.778 -0.1912 -0.2155 -0.5847
 7177SOL    HW139141   4.171   4.057   0.708  1.9812 -0.6898 -0.5719
 7177SOL    HW239142   4.198   4.030   0.855  0.4215 -1.3264 -0.3824
 7178SOL     OW39143   0.609   3.077   4.071 -0.5369  0.2417 -0.2181
 7178SOL    HW139144   0.604   3.126   3.990  0.5429  0.4636 -0.1699
 7178SOL    HW239145   0.664   3.001   4.050 -1.4457 -0.4873 -0.0591
 7179SOL     OW39146   2.541  13.629  13.470  0.3206  0.6028  0.2775
 7179SOL    HW139147   2.592  13.684  13.530  1.6736  0.2080 -0.4889
 7179SOL    HW239148   2.557  13.665  13.384  0.0514 -0.1083 -0.0805
 7180SOL     OW39149  10.992   7.071   5.678 -0.3636  0.5213  0.1597
 7180SOL    HW139150  11.059   7.013   5.641 -1.1278 -0.2435 -0.0466
 7180SOL    HW239151  11.013   7.158   5.643  0.6058  0.3187  0.2205
 7181SOL     OW39152  11.386   5.884   6.091 -0.6544  0.1573 -0.2980
 7181SOL    HW139153  11.336   5.962   6.070 -0.0068  0.7437  0.2497
 7181SOL    HW239154  11.446   5.912   6.161  0.5040 -0.4706 -0.9918
 7182SOL     OW39155   6.834   2.920  10.202  0.3593 -0.0796 -0.0548
 7182SOL    HW139156   6.925   2.930  10.231  0.6662 -0.2449 -0.9387
 7182SOL    HW239157   6.836   2.850  10.137  0.4159  2.7428 -3.3914
 7183SOL     OW39158   3.299   5.639  10.411  0.3062  0.8459  0.3580
 7183SOL    HW139159   3.375   5.690  10.439  0.2344  1.4441 -0.4868
 7183SOL    HW239160   3.330   5.592  10.333  0.0673  0.3911  0.5354
 7184SOL     OW39161   1.827  10.732   2.772  0.2478 -0.4205 -0.5497
 7184SOL    HW139162   1.852  10.823   2.756 -0.0620 -0.3647 -0.7402
 7184SOL    HW239163   1.901  10.694   2.818  0.4782 -0.1336 -0.6795
 7185SOL     OW39164   5.266   5.883   6.346 -0.5880  0.2667  0.5750
 7185SOL    HW139165   5.231   5.912   6.430 -1.7927  1.3340 -0.2623
 7185SOL    HW239166   5.264   5.960   6.290 -0.1233 -0.4999 -0.5544
 7186SOL     OW39167   2.081   4.007   1.487 -0.3069 -0.2903  0.2580
 7186SOL    HW139168   2.004   4.038   1.534  0.8340  1.9576  0.7365
 7186SOL    HW239169   2.055   3.920   1.454 -2.5818 -0.1248  1.4283
 7187SOL     OW39170   3.175  13.186  11.195 -0.4332  0.1609 -0.3377
 7187SOL    HW139171   3.127  13.108  11.166  0.5201 -0.3605 -0.5705
 7187SOL    HW239172   3.113  13.233  11.250 -1.3135 -0.3270 -0.8775
 7188SOL     OW39173  10.662  12.872   8.027 -0.0755  0.2285 -0.3718
 7188SOL    HW139174  10.598  12.868   7.956 -0.9571  1.0410  0.3465
 7188SOL    HW239175  10.617  12.917   8.098  0.2241 -1.9592  1.3263
 7189SOL     OW39176   7.205   1.935   0.887  0.1615 -0.3663 -0.1661
 7189SOL    HW139177   7.272   1.869   0.902 -0.5915 -1.1091  0.0009
 7189SOL    HW239178   7.122   1.886   0.886 -0.3118  0.4230 -1.1393
 7190SOL     OW39179   5.548   8.248   3.436  0.3201  0.2129 -0.3578
 7190SOL    HW139180   5.538   8.342   3.426 -0.6407 -0.0151 -1.9797
 7190SOL    HW239181   5.461   8.213   3.413  0.1060 -0.9789  1.9745
 7191SOL     OW39182   9.410   2.088   3.930 -0.7098  0.2159  0.4317
 7191SOL    HW139183   9.447   2.154   3.872  1.2529 -1.6936 -0.6661
 7191SOL    HW239184   9.441   2.113   4.017  1.8474 -0.3240 -0.2299
 7192SOL     OW39185   0.667  10.522   3.465 -0.3259  0.1644 -0.4907
 7192SOL    HW139186   0.683  10.434   3.499  0.3107  0.4650  0.0148
 7192SOL    HW239187   0.703  10.520   3.376  0.3913  0.1293 -0.2080
 7193SOL     OW39188  11.860  12.831   9.140 -0.7465  0.1513  0.2541
 7193SOL    HW139189  11.953  12.845   9.157 -0.6247  0.0797 -0.3241
 7193SOL    HW239190  11.857  12.754   9.083 -1.3601 -1.9094  2.8582
 7194SOL     OW39191   1.184   7.554   9.727  0.1389 -0.0093  0.8854
 7194SOL    HW139192   1.164   7.531   9.818  0.6599 -2.0591  0.5153
 7194SOL    HW239193   1.118   7.620   9.705 -0.8886 -0.4971  2.3009
 7195SOL     OW39194  11.930   8.565   4.578  0.1570 -0.4420 -0.6948
 7195SOL    HW139195  12.018   8.593   4.552 -0.3222  1.0766 -0.7395
 7195SOL    HW239196  11.887   8.645   4.609 -0.6263 -1.4634  1.0073
 7196SOL     OW39197   3.073   3.849   0.486  0.5731  0.2455  0.3505
 7196SOL    HW139198   3.046   3.874   0.398  1.0288  0.5415  0.2961
 7196SOL    HW239199   3.122   3.767   0.474  2.5981  1.4330  0.0438
 7197SOL     OW39200   9.251   7.285  14.088 -0.1416  0.3336 -0.6026
 7197SOL    HW139201   9.221   7.318  14.172  0.7750  0.9528 -0.4988
 7197SOL    HW239202   9.308   7.211  14.110 -1.0246 -0.4226 -0.7652
 7198SOL     OW39203   3.819   0.117   9.039  0.4985  0.0007 -0.1177
 7198SOL    HW139204   3.862   0.038   9.072 -1.4788 -0.0997  2.6474
 7198SOL    HW239205   3.766   0.087   8.965  0.2575 -1.1750  0.5094
 7199SOL     OW39206   3.020   8.531   7.050 -0.2550 -0.1553  0.2227
 7199SOL    HW139207   3.007   8.453   6.996 -0.2903  0.8808 -1.3714
 7199SOL    HW239208   2.934   8.547   7.090 -0.7710  0.0939 -0.9385
 7200SOL     OW39209   7.170   8.379   1.946 -0.3365 -0.1687 -0.2672
 7200SOL    HW139210   7.195   8.392   1.855 -1.4563 -0.9458 -0.7157
 7200SOL    HW239211   7.251   8.353   1.990 -0.1168 -1.6934 -1.4564
 7201SOL     OW39212   6.243   0.874   7.673  0.3420  0.1971 -0.1960
 7201SOL    HW139213   6.310   0.906   7.733 -0.6804  1.5762  0.2780
 7201SOL    HW239214   6.186   0.950   7.658  0.0093 -0.3801 -2.1550
 7202SOL     OW39215   0.205   1.228   4.313  0.4692  0.0359 -0.1237
 7202SOL    HW139216   0.146   1.290   4.270  0.1362 -0.8579 -0.9943
 7202SOL    HW239217   0.257   1.192   4.242  0.3766 -0.9821  0.3031
 7203SOL     OW39218   3.327   6.715  10.641  0.4770 -0.6460 -0.2761
 7203SOL    HW139219   3.297   6.796  10.600  1.4428  0.4781  1.1246
 7203SOL    HW239220   3.277   6.646  10.598 -3.1899  0.9719  1.0424
 7204SOL     OW39221   8.030   4.070   7.386  0.5227  0.0285  0.0080
 7204SOL    HW139222   8.023   4.041   7.477 -0.2051 -1.3943 -0.4694
 7204SOL    HW239223   8.123   4.085   7.372  0.7762 -0.8500  0.6797
 7205SOL     OW39224   8.055   0.127   8.395  0.0690 -0.2740 -0.2138
 7205SOL    HW139225   8.089   0.038   8.387  0.1489 -0.2051 -0.6240
 7205SOL    HW239226   8.044   0.140   8.490 -0.5067 -0.9287 -0.1839
 7206SOL     OW39227  10.144  10.814   9.508 -0.1947 -0.2820  0.4561
 7206SOL    HW139228  10.068  10.864   9.479  0.4325  0.0901 -0.6145
 7206SOL    HW239229  10.180  10.865   9.580 -0.6192 -0.1478  0.5767
 7207SOL     OW39230   4.776   4.583  13.847  0.2108 -0.1108 -0.3383
 7207SOL    HW139231   4.787   4.529  13.925  0.7285  0.1716 -0.2069
 7207SOL    HW239232   4.846   4.555  13.788 -1.5106 -1.9158 -1.6706
 7208SOL     OW39233   2.219  10.374   7.872  0.3789  0.0767 -0.0554
 7208SOL    HW139234   2.215  10.280   7.853  1.4486  0.1316 -0.6006
 7208SOL    HW239235   2.245  10.413   7.788 -0.3842  0.8965  0.0816
 7209SOL     OW39236   8.475   7.948   9.498 -0.0178  0.2229 -0.0051
 7209SOL    HW139237   8.380   7.958   9.511  0.0905 -0.0381  1.0869
 7209SOL    HW239238   8.498   8.017   9.437 -0.5267  1.8457  1.5631
 7210SOL     OW39239   6.610   8.674  10.049  0.1628 -0.8235  0.3065
 7210SOL    HW139240   6.646   8.759  10.074  0.3078 -0.9522  0.5439
 7210SOL    HW239241   6.628   8.617  10.125 -0.7090 -0.8389  0.5165
 7211SOL     OW39242   3.359   4.377   5.177  0.3738  0.0647 -0.5143
 7211SOL    HW139243   3.362   4.373   5.082  1.9816  0.8256 -0.5421
 7211SOL    HW239244   3.266   4.383   5.199 -0.0221 -0.3155 -2.0198
 7212SOL     OW39245   0.194   8.103  14.053  0.1349  0.4020 -0.1231
 7212SOL    HW139246   0.221   8.142  14.136 -1.5086  1.6045 -0.0906
 7212SOL    HW239247   0.227   8.164  13.986 -0.9696  0.9711 -0.1702
 7213SOL     OW39248   3.553   5.959   7.441 -0.0727  0.2841 -0.0224
 7213SOL    HW139249   3.638   5.943   7.481  0.0240 -1.8502 -0.9718
 7213SOL    HW239250   3.573   5.992   7.353 -0.2858  2.0953  0.5563
 7214SOL     OW39251   7.364   2.925   9.914 -0.2043  0.8482 -0.5697
 7214SOL    HW139252   7.313   2.983   9.970  0.2320  0.5021  0.2044
 7214SOL    HW239253   7.318   2.925   9.830 -1.1373  0.9948 -0.0646
 7215SOL     OW39254   4.202   1.717  13.766  0.1110  0.0387  0.6427
 7215SOL    HW139255   4.160   1.731  13.681  0.8524  1.3753  0.4773
 7215SOL    HW239256   4.249   1.798  13.783  0.9125 -0.6507  1.8034
 7216SOL     OW39257   4.844   4.915   6.150 -0.6352 -0.3282 -0.4588
 7216SOL    HW139258   4.831   4.829   6.109 -1.0910 -0.1364 -0.7365
 7216SOL    HW239259   4.869   4.896   6.240 -0.2525 -0.7571 -0.6550
 7217SOL     OW39260  12.426   6.272   8.234  0.0701  0.1050 -0.1255
 7217SOL    HW139261  12.474   6.296   8.155 -0.6995  1.1445 -0.2875
 7217SOL    HW239262  12.413   6.177   8.226  1.7336 -0.1428 -0.2585
 7218SOL     OW39263  12.528   2.382  11.910 -0.1109 -0.3811 -0.3668
 7218SOL    HW139264  12.513   2.466  11.953  0.5162  0.8156 -2.3471
 7218SOL    HW239265  12.596   2.339  11.963  0.0709  0.6728  0.2737
 7219SOL     OW39266   0.647  12.305   5.358  0.0407  0.2450 -0.3561
 7219SOL    HW139267   0.623  12.256   5.436 -0.8892  0.1990 -0.6598
 7219SOL    HW239268   0.574  12.365   5.343  1.5298  2.3661  0.4996
 7220SOL     OW39269   1.785   3.429   6.708  0.0395 -0.1119 -0.3821
 7220SOL    HW139270   1.734   3.503   6.675 -0.3233 -0.0057  0.4008
 7220SOL    HW239271   1.727   3.385   6.769  1.2898  0.7657  1.5468
 7221SOL     OW39272   4.701   9.574   4.989 -0.1984  0.8298 -0.3043
 7221SOL    HW139273   4.657   9.656   5.009 -0.7739  0.2247  1.0306
 7221SOL    HW239274   4.756   9.557   5.065 -0.0013  0.0320 -0.6135
 7222SOL     OW39275   4.479   1.227  12.273  0.3396 -0.0118  0.2935
 7222SOL    HW139276   4.460   1.228  12.367  1.6335 -0.8980  0.5853
 7222SOL    HW239277   4.455   1.139  12.245 -1.2947  0.6490 -0.5143
 7223SOL     OW39278   0.973   6.570   2.026  0.3229  0.3490 -0.1617
 7223SOL    HW139279   0.998   6.662   2.023  0.5473  0.3157  0.5895
 7223SOL    HW239280   0.877   6.572   2.027  0.3279  0.5739 -0.0263
 7224SOL     OW39281   8.413  12.630  12.933  0.3757 -0.0462  0.3568
 7224SOL    HW139282   8.339  12.647  12.875  0.4530  0.0912  0.2957
 7224SOL    HW239283   8.486  12.611  12.874  0.5109  0.3209  0.3971
 7225SOL     OW39284   2.390   3.040  10.398 -0.5511 -0.2861  0.2427
 7225SOL    HW139285   2.483   3.062  10.402  0.0808 -2.5548 -0.1919
 7225SOL    HW239286   2.346   3.116  10.435  1.2972  1.7608 -1.4551
 7226SOL     OW39287  13.803   7.170   1.378 -0.5280  0.5322 -0.1753
 7226SOL    HW139288  13.789   7.145   1.286  0.8771 -0.3870 -0.1712
 7226SOL    HW239289  13.864   7.243   1.374  1.1202 -0.7710  0.0528
 7227SOL     OW39290   3.111  11.239   8.378 -0.1106  0.5658 -0.4438
 7227SOL    HW139291   3.205  11.225   8.371  0.2771  1.1485  2.2420
 7227SOL    HW239292   3.083  11.266   8.291  2.1091 -0.0845 -1.4091
 7228SOL     OW39293   0.167   2.675   3.010  0.0302 -0.5181 -0.0835
 7228SOL    HW139294   0.256   2.669   2.976  0.4773  0.9303  0.7351
 7228SOL    HW239295   0.178   2.695   3.103 -1.0737  2.0124 -0.4073
 7229SOL     OW39296   9.504   1.493   1.821 -0.4259  0.5057  0.1354
 7229SOL    HW139297   9.537   1.566   1.768 -0.4825  0.5818  0.2054
 7229SOL    HW239298   9.576   1.474   1.882  0.3413 -0.7086 -1.0842
 7230SOL     OW39299   9.800   6.937   3.748 -0.5829  0.8310 -0.1025
 7230SOL    HW139300   9.727   6.903   3.800 -0.7097 -1.0571 -1.3931
 7230SOL    HW239301   9.761   6.964   3.665  0.3412 -2.6724 -1.8825
 7231SOL     OW39302  12.979  10.203   4.192 -0.2210 -0.0456  0.1576
 7231SOL    HW139303  12.966  10.213   4.098 -0.4843 -0.8554  0.0930
 7231SOL    HW239304  13.023  10.283   4.220 -0.2694  0.2601 -0.6285
 7232SOL     OW39305  11.998  11.951   9.622  0.1436 -0.0537  0.2996
 7232SOL    HW139306  12.012  11.955   9.528  0.7418  1.7091  0.4240
 7232SOL    HW239307  12.085  11.964   9.660 -0.3698  1.4689  1.0689
 7233SOL     OW39308   0.929   4.827   6.838  0.4645 -0.3724 -0.4862
 7233SOL    HW139309   0.892   4.742   6.861  2.4776 -0.8627  1.3003
 7233SOL    HW239310   0.855   4.887   6.840 -0.6025 -1.6712  0.6544
 7234SOL     OW39311   9.355   3.801   8.334 -0.0602  0.6376 -0.1115
 7234SOL    HW139312   9.272   3.844   8.356 -0.2264  1.9994 -2.9458
 7234SOL    HW239313   9.412   3.873   8.308  1.4791 -0.4438  0.1781
 7235SOL     OW39314   8.965   2.143   4.418 -0.6777  0.0620 -0.6018
 7235SOL    HW139315   9.022   2.195   4.476  1.3194 -1.7844 -0.7920
 7235SOL    HW239316   8.881   2.141   4.464  0.5103 -0.3676  1.7002
 7236SOL     OW39317   9.156   1.464   9.666  0.1329 -0.0514  0.2548
 7236SOL    HW139318   9.135   1.458   9.759  2.1487  2.2721  0.9921
 7236SOL    HW239319   9.241   1.508   9.664 -0.5865  1.4586 -2.7379
 7237SOL     OW39320   5.631  12.974   3.063 -0.4426  0.1378  0.2291
 7237SOL    HW139321   5.626  12.895   3.009 -1.8108  0.1390  0.3109
 7237SOL    HW239322   5.720  12.974   3.098 -0.1363 -0.8718 -0.5031
 7238SOL     OW39323   6.038   8.344  12.819  0.4525  0.2822  0.1672
 7238SOL    HW139324   5.998   8.262  12.846  1.5416 -1.0656 -2.0259
 7238SOL    HW239325   6.129   8.322  12.800  0.0615  1.1477 -3.5163
 7239SOL     OW39326   5.263   8.024  13.748  0.2412  0.0145 -0.3183
 7239SOL    HW139327   5.338   8.069  13.709  1.3415 -2.3658 -1.1995
 7239SOL    HW239328   5.229   7.970  13.676 -2.8814  1.5633 -0.1798
 7240SOL     OW39329   0.945   6.662   8.496 -0.0813 -0.0684  0.0185
 7240SOL    HW139330   0.864   6.666   8.547 -0.7011 -0.5210 -0.8855
 7240SOL    HW239331   0.926   6.712   8.417  0.9379  0.8126  0.3157
 7241SOL     OW39332   2.859   0.818   4.910 -0.0921  0.3150 -0.4724
 7241SOL    HW139333   2.827   0.895   4.957 -2.3340  0.1867 -1.6489
 7241SOL    HW239334   2.888   0.758   4.978 -0.9973  1.0703  0.6068
 7242SOL     OW39335  13.451  13.963  11.701  0.1281 -0.2497 -0.0710
 7242SOL    HW139336  13.412  14.050  11.707  0.7862  0.0068  0.7536
 7242SOL    HW239337  13.474  13.940  11.792 -0.6315 -1.5701 -0.1839
 7243SOL     OW39338   6.041  13.763  11.530  0.5600  0.5104  0.2858
 7243SOL    HW139339   6.131  13.742  11.553  0.8623  0.8354 -0.5539
 7243SOL    HW239340   6.033  13.857  11.549  0.4079  0.4862  0.3405
 7244SOL     OW39341   4.832  13.406   2.894  0.1039  0.4219  0.5176
 7244SOL    HW139342   4.882  13.326   2.878  2.1522  1.6085  0.5372
 7244SOL    HW239343   4.778  13.416   2.815 -1.1394 -1.5716  1.0496
 7245SOL     OW39344   3.956  10.790   1.619 -0.6756  0.2560  0.3442
 7245SOL    HW139345   3.862  10.777   1.603 -0.6310  0.6947 -0.2825
 7245SOL    HW239346   3.966  10.775   1.713 -1.0241 -1.8640  0.1069
 7246SOL     OW39347   0.465  12.991   7.488  0.2133  0.1670  0.2619
 7246SOL    HW139348   0.535  12.926   7.485  0.4100  0.2752  1.7316
 7246SOL    HW239349   0.509  13.075   7.476  0.1372  0.1403 -0.2396
 7247SOL     OW39350   1.374  11.244   9.088 -0.0995  0.2899 -0.3959
 7247SOL    HW139351   1.386  11.164   9.037 -1.7790 -0.7995  0.7945
 7247SOL    HW239352   1.323  11.302   9.031 -0.9705 -0.4613 -0.4034
 7248SOL     OW39353   6.453   3.175   4.411 -0.1705 -0.4545 -0.1084
 7248SOL    HW139354   6.535   3.126   4.408  1.4636  2.0015  0.8636
 7248SOL    HW239355   6.423   3.166   4.502 -0.6694 -0.8446 -0.3077
 7249SOL     OW39356   1.256   6.247   0.538  0.0715  0.3909  0.1546
 7249SOL    HW139357   1.228   6.179   0.599  2.4131 -2.3652 -1.5640
 7249SOL    HW239358   1.183   6.257   0.477 -0.4297 -0.3869  0.6143
 7250SOL     OW39359   4.467   8.531   7.057 -0.4892 -0.1564 -0.0365
 7250SOL    HW139360   4.401   8.509   6.990 -2.2376  1.5196  1.0442
 7250SOL    HW239361   4.454   8.624   7.074  1.9574  0.1519  0.5219
 7251SOL     OW39362   3.884   8.969  11.106 -0.0358 -0.4103 -0.3316
 7251SOL    HW139363   3.835   8.918  11.170  0.1157 -2.1644 -1.5113
 7251SOL    HW239364   3.975   8.964  11.136  0.0469 -1.2987 -0.6964
 7252SOL     OW39365   2.163   8.821   4.581  0.5525  0.1383  0.3077
 7252SOL    HW139366   2.085   8.863   4.546 -0.4058 -2.5687 -1.1674
 7252SOL    HW239367   2.147   8.815   4.676 -0.6332  0.4440  0.1416
 7253SOL     OW39368   9.352  10.029  12.753 -0.0408  0.1232  0.5992
 7253SOL    HW139369   9.409  10.039  12.829  0.0770  1.6935  0.3355
 7253SOL    HW239370   9.413  10.014  12.680 -0.1773 -1.9267  0.8570
 7254SOL     OW39371   8.753   3.012  10.247  0.0357 -0.8226 -0.1975
 7254SOL    HW139372   8.703   2.945  10.200  1.2304 -2.6129  0.9845
 7254SOL    HW239373   8.816   3.044  10.182 -1.2442  0.0143 -1.0946
 7255SOL     OW39374  13.123   3.918   9.069  0.2752  0.0461 -0.1506
 7255SOL    HW139375  13.030   3.941   9.061  0.2660 -0.6447 -3.9320
 7255SOL    HW239376  13.123   3.822   9.075  0.7591  0.0174 -0.6253
 7256SOL     OW39377   2.430   7.620   6.091 -0.6048 -0.5326  0.2427
 7256SOL    HW139378   2.479   7.643   6.170 -0.3078  0.2389 -0.1617
 7256SOL    HW239379   2.384   7.539   6.115  1.2130 -1.5526  0.4918
 7257SOL     OW39380   8.335   0.368  11.785 -0.8073  0.1295 -0.3544
 7257SOL    HW139381   8.343   0.382  11.690 -0.2007 -0.5889 -0.4141
 7257SOL    HW239382   8.372   0.281  11.800  0.5915  0.8888  0.7589
 7258SOL     OW39383  11.300   1.213  10.880  0.1891 -0.2389 -0.2693
 7258SOL    HW139384  11.305   1.301  10.844 -0.5831  0.6685  1.7311
 7258SOL    HW239385  11.381   1.171  10.850  0.3339  0.9479 -1.6668
 7259SOL     OW39386   8.084   5.424  11.878 -0.4461  0.2543 -0.3755
 7259SOL    HW139387   8.102   5.454  11.789 -0.8567 -0.0220 -0.5542
 7259SOL    HW239388   8.072   5.329  11.870 -0.5339  0.2336 -0.0350
 7260SOL     OW39389  12.622   9.988   6.377  0.3652  0.2472  0.4418
 7260SOL    HW139390  12.701   9.937   6.360  0.6604  1.1898 -1.2270
 7260SOL    HW239391  12.551   9.933   6.344  0.6383  0.6875 -0.9308
 7261SOL     OW39392   4.408   4.523  12.051 -0.5393  0.1327 -0.2282
 7261SOL    HW139393   4.421   4.485  11.964 -0.6668  1.7591 -0.9876
 7261SOL    HW239394   4.322   4.564  12.047 -1.4893 -1.5055  1.3737
 7262SOL     OW39395  13.435  13.905  12.811  0.6397  0.0800 -0.2558
 7262SOL    HW139396  13.379  13.854  12.753  0.8841  0.2286 -0.6293
 7262SOL    HW239397  13.479  13.839  12.865 -0.9105  0.0257  1.0072
 7263SOL     OW39398  10.414   8.633   4.987  0.0512  0.0979 -0.1679
 7263SOL    HW139399  10.493   8.616   4.937  0.1223 -0.8796  0.2592
 7263SOL    HW239400  10.426   8.585   5.069  0.2727  2.2811  1.1590
 7264SOL     OW39401  11.347   8.173  12.161  0.1192  0.4324 -0.0387
 7264SOL    HW139402  11.392   8.091  12.179  0.7897  0.7789 -0.1338
 7264SOL    HW239403  11.276   8.149  12.102  0.5763 -0.0114 -0.4128
 7265SOL     OW39404  13.916  10.387   0.939 -0.7404  0.2014  0.2378
 7265SOL    HW139405  13.968  10.307   0.944 -0.4413  0.2020 -1.8635
 7265SOL    HW239406  13.826  10.359   0.954 -0.7297 -0.6899 -1.1997
 7266SOL     OW39407   9.364   9.205   8.112  0.3637 -0.3964  0.2970
 7266SOL    HW139408   9.460   9.200   8.116  0.5937  1.1896 -1.6312
 7266SOL    HW239409   9.336   9.114   8.117  1.8159 -0.7997  2.7141
 7267SOL     OW39410   2.586  11.917   9.956 -0.3506  0.1769  1.0188
 7267SOL    HW139411   2.590  11.825   9.931  0.2856  0.2962  0.6553
 7267SOL    HW239412   2.512  11.952   9.905 -0.9505 -0.2485  1.5845
 7268SOL     OW39413   6.094   4.126   1.045  0.1001 -0.3148 -0.1065
 7268SOL    HW139414   6.111   4.202   1.101  0.6763 -1.3374  1.1730
 7268SOL    HW239415   6.142   4.055   1.087 -1.3252 -1.6367 -0.6250
 7269SOL     OW39416   5.586   1.202   9.767  0.5443  0.3369 -0.0531
 7269SOL    HW139417   5.659   1.162   9.814  2.7971  0.4670 -3.1582
 7269SOL    HW239418   5.562   1.137   9.701  0.0412  1.5768 -1.1274
 7270SOL     OW39419   8.304   0.670   9.244 -0.0419  0.4049  0.2042
 7270SOL    HW139420   8.217   0.665   9.204  0.1006 -0.8240  0.0134
 7270SOL    HW239421   8.327   0.763   9.239 -1.0481  0.6387 -0.3809
 7271SOL     OW39422   4.784   2.690   4.895 -0.2543 -0.8097 -0.1850
 7271SOL    HW139423   4.745   2.705   4.981  0.2567 -0.5094 -0.0037
 7271SOL    HW239424   4.878   2.693   4.910 -0.1458  0.4855 -0.9596
 7272SOL     OW39425   8.420  11.918   0.183 -0.3255 -0.2455 -0.6551
 7272SOL    HW139426   8.499  11.867   0.168  0.3275  0.7996 -0.8606
 7272SOL    HW239427   8.428  11.948   0.274  0.0797  0.7785 -1.0108
 7273SOL     OW39428  10.579   1.562   5.047  0.3305 -0.5414 -0.0319
 7273SOL    HW139429  10.548   1.489   4.993  0.6142 -1.1866  0.6582
 7273SOL    HW239430  10.674   1.562   5.036  0.1978  0.9413 -1.5294
 7274SOL     OW39431   0.349   6.551   9.891  0.1649 -0.2332 -0.3165
 7274SOL    HW139432   0.382   6.568   9.802  0.2012 -0.0181 -0.2618
 7274SOL    HW239433   0.270   6.604   9.897  1.3185  1.4606  0.5374
 7275SOL     OW39434   3.672   6.916   8.701 -0.3134 -0.0045  0.3908
 7275SOL    HW139435   3.658   6.824   8.723 -4.1215  1.0319  3.3162
 7275SOL    HW239436   3.668   6.918   8.605 -1.9146 -2.6884  0.2932
 7276SOL     OW39437   1.643  10.999   3.964  0.2645 -0.2881  0.1548
 7276SOL    HW139438   1.617  10.976   3.874 -1.7143  0.4260  0.4982
 7276SOL    HW239439   1.562  10.995   4.014  1.1777  0.2243  1.7401
 7277SOL     OW39440   7.797   3.882   2.303 -0.1713 -0.7307 -0.0626
 7277SOL    HW139441   7.822   3.841   2.220 -0.3168 -0.5731 -0.1861
 7277SOL    HW239442   7.850   3.837   2.369  2.3941  1.3324 -0.5657
 7278SOL     OW39443   8.166  13.700   0.145 -0.1751  0.0561 -0.1604
 7278SOL    HW139444   8.199  13.626   0.196 -0.7464 -1.3905 -1.7602
 7278SOL    HW239445   8.233  13.715   0.078 -0.5089  0.3370 -0.4355
 7279SOL     OW39446   1.434   8.717  11.008  0.3854  0.0054  0.2291
 7279SOL    HW139447   1.383   8.678  10.936  0.6347  0.6895 -0.3336
 7279SOL    HW239448   1.389   8.800  11.026  2.0455  1.2834 -1.2005
 7280SOL     OW39449   4.595   4.687   9.445  0.1155  0.0265 -0.4964
 7280SOL    HW139450   4.680   4.644   9.436  0.8694  1.0994  1.0714
 7280SOL    HW239451   4.610   4.776   9.411 -0.0237  0.5969  0.8967
 7281SOL     OW39452  13.511   0.825   3.646 -0.3090 -0.0683  0.2038
 7281SOL    HW139453  13.515   0.880   3.568 -2.5367 -0.6821 -0.4396
 7281SOL    HW239454  13.462   0.877   3.710 -0.0300 -0.2421  0.5636
 7282SOL     OW39455   2.892   6.598  13.284  0.2812 -0.3753 -0.5787
 7282SOL    HW139456   2.949   6.671  13.262  2.6787 -2.2923 -1.0872
 7282SOL    HW239457   2.950   6.533  13.323 -1.8103 -1.9379  0.1184
 7283SOL     OW39458   0.999  12.861   3.984 -0.1457  0.0564 -0.0035
 7283SOL    HW139459   0.971  12.847   4.075  1.4840 -0.9620  0.3677
 7283SOL    HW239460   1.050  12.942   3.986  2.5502 -1.5437  0.6698
 7284SOL     OW39461   8.030   4.029   1.996 -0.4972  0.2802  0.1312
 7284SOL    HW139462   8.088   4.014   1.922  2.7181 -0.4713  2.5633
 7284SOL    HW239463   7.997   3.942   2.018  0.1271  0.1712  0.6892
 7285SOL     OW39464   8.531   0.607  13.944 -0.3653 -0.3175 -0.0068
 7285SOL    HW139465   8.521   0.548  13.869 -0.2869 -0.4416  0.0819
 7285SOL    HW239466   8.520   0.695  13.906 -0.3669 -0.3814 -0.1566
 7286SOL     OW39467   5.317   6.227  12.523 -0.1436 -0.0077  0.3260
 7286SOL    HW139468   5.297   6.237  12.430  0.1516  1.5231  0.3980
 7286SOL    HW239469   5.383   6.293  12.541 -1.3106  0.8078  1.9408
 7287SOL     OW39470   7.084  13.580  10.648 -0.4405 -0.2411  0.1695
 7287SOL    HW139471   7.036  13.639  10.588  0.4169  0.5737  0.2652
 7287SOL    HW239472   7.021  13.511  10.669 -0.7321 -0.6277 -1.7812
 7288SOL     OW39473   1.369  13.761  13.537 -0.2169 -1.1924 -0.6096
 7288SOL    HW139474   1.363  13.669  13.563 -1.1745 -0.8044  0.6390
 7288SOL    HW239475   1.290  13.778  13.486 -1.2466 -0.4900  1.1484
 7289SOL     OW39476   0.805   8.562  12.172 -0.0524  0.3891  0.2148
 7289SOL    HW139477   0.724   8.511  12.175  0.0125  0.2460 -0.2457
 7289SOL    HW239478   0.842   8.555  12.260 -0.0202 -0.4119  0.1478
 7290SOL     OW39479   5.208   3.802   1.938 -0.1085 -0.2494  0.3025
 7290SOL    HW139480   5.290   3.765   1.905  0.5684  1.2482  0.2243
 7290SOL    HW239481   5.140   3.743   1.904  0.8923 -1.2521 -0.0267
 7291SOL     OW39482   2.702   4.588   8.371 -0.7526 -0.0023 -0.4386
 7291SOL    HW139483   2.710   4.551   8.283  1.2435  0.6570 -0.5795
 7291SOL    HW239484   2.766   4.539   8.423 -0.2562  1.1523  0.0759
 7292SOL     OW39485   1.894   3.390  12.475 -0.2420 -0.1525 -0.0968
 7292SOL    HW139486   1.908   3.302  12.439 -2.9021 -0.3821 -0.8084
 7292SOL    HW239487   1.821   3.425  12.423  0.9860  2.6452 -0.0689
 7293SOL     OW39488  10.100   9.546  10.062  0.3803 -0.3997  0.1614
 7293SOL    HW139489  10.079   9.569  10.152  1.8610 -1.6365  0.8677
 7293SOL    HW239490  10.110   9.630  10.017 -3.2519  0.2988  0.3297
 7294SOL     OW39491   7.739   9.614  14.038  0.1698  0.4493  0.1534
 7294SOL    HW139492   7.826   9.608  13.997 -0.2062 -1.4812 -0.4300
 7294SOL    HW239493   7.682   9.647  13.968  0.1722  0.4680  0.1602
 7295SOL     OW39494   7.124  10.381   0.819 -0.4688 -0.4709 -0.6961
 7295SOL    HW139495   7.070  10.306   0.843 -0.1019 -1.1064 -1.8082
 7295SOL    HW239496   7.069  10.457   0.839 -0.3029 -0.9263  1.8359
 7296SOL     OW39497  14.066   6.372   4.168 -0.4223  0.1034  0.0304
 7296SOL    HW139498  13.994   6.318   4.137  0.0984  0.1293 -1.2741
 7296SOL    HW239499  14.097   6.327   4.247 -1.2902 -0.3746  0.1140
 7297SOL     OW39500   6.622  10.427  12.865  0.2621 -0.3348 -0.2088
 7297SOL    HW139501   6.648  10.424  12.957  1.1586  1.1910 -0.3705
 7297SOL    HW239502   6.534  10.390  12.863  0.4159 -0.8395  1.1801
 7298SOL     OW39503   7.013   8.438  13.325  0.2556 -0.3849 -0.6943
 7298SOL    HW139504   6.935   8.386  13.343  0.0006  0.3393  0.3839
 7298SOL    HW239505   7.047   8.462  13.412  1.8614 -0.9344 -1.1188
 7299SOL     OW39506  10.889   4.414   1.875 -0.8191 -0.2677  0.4040
 7299SOL    HW139507  10.820   4.453   1.929 -0.2840 -1.4262  2.0008
 7299SOL    HW239508  10.851   4.332   1.844  0.0908 -1.3273  1.9915
 7300SOL     OW39509  11.255   8.855   1.692  0.0998 -0.4700 -0.3357
 7300SOL    HW139510  11.191   8.815   1.751  1.1799 -0.5064  0.8450
 7300SOL    HW239511  11.260   8.793   1.618 -0.7702 -0.7647 -0.1639
 7301SOL     OW39512  11.227   7.460   2.789 -0.0010 -0.5672  0.2649
 7301SOL    HW139513  11.209   7.464   2.695  0.7216  0.5952  0.1500
 7301SOL    HW239514  11.257   7.548   2.811  1.5347 -1.2713  1.2215
 7302SOL     OW39515  11.971   2.525   9.224 -0.2323 -0.3326  0.2211
 7302SOL    HW139516  12.048   2.539   9.168  1.5247 -1.8893  2.0406
 7302SOL    HW239517  11.923   2.454   9.181 -0.7629  0.7496 -1.0131
 7303SOL     OW39518  13.243  13.513   8.541 -0.1781  0.4031 -0.0856
 7303SOL    HW139519  13.320  13.514   8.599 -0.1272 -0.7488 -0.1084
 7303SOL    HW239520  13.279  13.521   8.453 -0.2055  1.4276 -0.0130
 7304SOL     OW39521   7.248  11.167  12.615 -0.1021  0.2212 -0.2698
 7304SOL    HW139522   7.222  11.138  12.527 -1.4034 -0.4611  0.3142
 7304SOL    HW239523   7.325  11.222  12.600 -0.3124  0.1378 -1.8385
 7305SOL     OW39524   4.721  13.179   4.922 -0.1658  0.2600  0.1698
 7305SOL    HW139525   4.669  13.102   4.902  3.1283 -2.4008  0.8874
 7305SOL    HW239526   4.732  13.223   4.838 -1.6642 -0.3177 -0.3605
 7306SOL     OW39527   8.714  13.769   2.493 -0.0762 -0.0472  0.1047
 7306SOL    HW139528   8.727  13.790   2.401 -1.5851 -1.4151 -0.4622
 7306SOL    HW239529   8.788  13.713   2.516 -0.6888 -1.3089 -0.8582
 7307SOL     OW39530   5.033   6.661   6.477 -0.4528 -0.1698  0.2518
 7307SOL    HW139531   4.989   6.701   6.402  0.5959 -1.8754 -1.3824
 7307SOL    HW239532   5.127   6.669   6.458 -0.1636 -3.2098 -0.1982
 7308SOL     OW39533   6.581  11.484   1.394 -0.6267 -0.0456  0.1170
 7308SOL    HW139534   6.545  11.455   1.478  0.1696 -0.0742  0.4548
 7308SOL    HW239535   6.628  11.565   1.415 -0.2478 -0.1642 -0.2645
 7309SOL     OW39536   4.042  10.507   1.961  0.2125 -0.5273  0.0283
 7309SOL    HW139537   4.031  10.580   1.900  2.1182 -0.2787 -0.0858
 7309SOL    HW239538   3.982  10.526   2.033  0.3260  0.9157 -0.2257
 7310SOL     OW39539   6.857  11.969   1.308 -0.1323  0.0316 -0.2610
 7310SOL    HW139540   6.771  11.964   1.266  0.0012  1.1172 -0.7039
 7310SOL    HW239541   6.907  12.029   1.252  0.7859 -0.2705  0.2156
 7311SOL     OW39542   3.113  11.349  10.781 -0.6439  0.3672  0.4703
 7311SOL    HW139543   3.145  11.375  10.695 -2.5627  1.8785  0.1333
 7311SOL    HW239544   3.146  11.260  10.794  1.6357  0.9598 -0.7694
 7312SOL     OW39545  13.530  13.960  10.829 -0.3159  0.0983 -0.3844
 7312SOL    HW139546  13.493  13.893  10.772  0.0724  0.8382 -1.5266
 7312SOL    HW239547  13.490  13.943  10.914  0.2115 -1.9553 -0.4816
 7313SOL     OW39548  13.019  13.625   0.348  0.1271  0.0900 -0.2768
 7313SOL    HW139549  12.999  13.626   0.441 -0.2219  2.0575 -0.3434
 7313SOL    HW239550  13.101  13.674   0.340  1.5175 -2.1769 -0.7672
 7314SOL     OW39551   3.950   7.428  11.275 -0.3486 -0.7969  0.0332
 7314SOL    HW139552   3.973   7.435  11.368  0.3892 -1.2366 -0.1093
 7314SOL    HW239553   3.938   7.518  11.246  1.0377 -0.5566  0.1628
 7315SOL     OW39554   9.799  13.401   8.646 -1.0284 -0.7102  0.8796
 7315SOL    HW139555   9.721  13.446   8.677 -1.3161 -0.5037 -0.1212
 7315SOL    HW239556   9.852  13.469   8.604 -1.4164 -1.2624 -0.5463
 7316SOL     OW39557   2.163   5.591  10.317 -0.0038 -0.1753  0.3544
 7316SOL    HW139558   2.202   5.538  10.387 -0.5140 -0.5563  0.3558
 7316SOL    HW239559   2.189   5.548  10.236 -0.7523 -0.6788  0.3671
 7317SOL     OW39560  11.258   2.693   7.271  0.0032  0.3725 -0.0728
 7317SOL    HW139561  11.238   2.706   7.179 -0.7681  0.5068  0.1049
 7317SOL    HW239562  11.344   2.652   7.272  0.7172  1.7782 -0.7955
 7318SOL     OW39563   4.866  10.926   9.644  0.0456  0.1873  0.5127
 7318SOL    HW139564   4.904  10.918   9.731 -1.7000 -2.0791  1.1633
 7318SOL    HW239565   4.779  10.962   9.659 -0.3125 -0.3277 -0.2854
 7319SOL     OW39566   3.747   4.585  11.814  0.0407 -0.5484  0.6273
 7319SOL    HW139567   3.808   4.536  11.759  0.2224 -0.4934  0.7794
 7319SOL    HW239568   3.719   4.522  11.881 -2.7789 -1.7016 -1.4226
 7320SOL     OW39569   7.793   4.313   8.313  0.2184 -0.5157  0.0599
 7320SOL    HW139570   7.848   4.385   8.345  0.6598 -0.6429 -0.3956
 7320SOL    HW239571   7.820   4.302   8.222  2.1299 -3.0545  0.8143
 7321SOL     OW39572   5.199  10.582  13.480  0.4490  0.1629  0.0410
 7321SOL    HW139573   5.281  10.591  13.431  0.7898 -0.3597  0.5183
 7321SOL    HW239574   5.218  10.620  13.566  0.1199  0.2422  0.0792
 7322SOL     OW39575   9.849   5.511  12.839  0.4967  0.6667 -0.7076
 7322SOL    HW139576   9.836   5.602  12.812  2.1710  0.8761 -0.9056
 7322SOL    HW239577   9.944   5.498  12.835  0.6228 -0.1686  2.1749
 7323SOL     OW39578   9.846  12.966   7.771  0.0758 -0.2061 -0.5443
 7323SOL    HW139579   9.894  13.001   7.846 -0.3490  0.5547 -0.6121
 7323SOL    HW239580   9.847  12.871   7.783  3.1576 -0.3935 -1.5115
 7324SOL     OW39581   4.914   8.695   3.653 -0.0235 -0.1628 -0.0528
 7324SOL    HW139582   4.896   8.685   3.746 -1.5769  0.3351 -0.2727
 7324SOL    HW239583   4.845   8.753   3.621  1.3157  0.8537 -1.2493
 7325SOL     OW39584   1.750   6.236   5.433 -0.3148 -0.0342  0.2776
 7325SOL    HW139585   1.841   6.264   5.425 -0.7464  0.8898 -3.3240
 7325SOL    HW239586   1.701   6.317   5.441 -0.9144 -0.5071  1.7580
 7326SOL     OW39587   2.834  11.972   4.267 -0.0090  0.3429  0.2968
 7326SOL    HW139588   2.878  11.982   4.352 -0.2567  1.4178  0.3137
 7326SOL    HW239589   2.764  12.038   4.269  0.0317  0.4266 -0.7771
 7327SOL     OW39590   2.719   4.553  11.135 -0.0935  0.3362 -0.9166
 7327SOL    HW139591   2.802   4.599  11.121 -0.4104  0.9473 -0.7990
 7327SOL    HW239592   2.709   4.499  11.056  1.1415 -0.8998 -0.2792
 7328SOL     OW39593   2.320   1.982   2.587 -0.8517 -0.8443 -0.0683
 7328SOL    HW139594   2.252   1.990   2.521 -2.5530  1.9152  1.8023
 7328SOL    HW239595   2.377   2.058   2.573 -1.2004 -0.2459  1.5238
 7329SOL     OW39596   5.999   8.876   3.049  0.1323  0.1225  0.1650
 7329SOL    HW139597   6.048   8.952   3.080  0.4328 -0.4988  1.2430
 7329SOL    HW239598   5.982   8.824   3.128  1.1765 -1.6601 -0.7225
 7330SOL     OW39599  10.657   9.764  13.470  1.1190  0.2037  0.0999
 7330SOL    HW139600  10.622   9.700  13.408 -1.1048 -1.1933  2.5951
 7330SOL    HW239601  10.579   9.800  13.514  2.5890  0.4203  2.7236
 7331SOL     OW39602  10.233   9.011  12.818  0.9229 -0.6570 -0.9326
 7331SOL    HW139603  10.240   8.961  12.899 -0.3989 -3.3836 -2.3808
 7331SOL    HW239604  10.155   9.066  12.830  0.2922 -1.6014 -0.6186
 7332SOL     OW39605   9.295  10.352   8.565  0.1406 -0.1992 -0.2005
 7332SOL    HW139606   9.296  10.375   8.658 -2.1605 -0.5022 -0.0320
 7332SOL    HW239607   9.267  10.260   8.564  2.2186 -0.8709 -1.1442
 7333SOL     OW39608   7.643  13.855   2.411  0.1761  0.3141 -0.0234
 7333SOL    HW139609   7.587  13.836   2.335 -0.2164  0.6509  0.1748
 7333SOL    HW239610   7.587  13.908   2.468  0.3384 -0.2620  0.6781
 7334SOL     OW39611  12.062   9.777   6.687 -0.4261 -0.0620 -0.6656
 7334SOL    HW139612  12.064   9.812   6.598  2.0088  1.1177 -0.2557
 7334SOL    HW239613  12.139   9.721   6.693 -0.3578  0.1347  0.7774
 7335SOL     OW39614   0.496   9.104   3.210  0.0041 -0.5473 -0.1889
 7335SOL    HW139615   0.407   9.073   3.229 -0.1555 -1.1175 -1.6792
 7335SOL    HW239616   0.531   9.038   3.150  0.8577  0.4886 -0.8589
 7336SOL     OW39617   3.007  10.852   3.409 -0.2210  0.1668 -0.3186
 7336SOL    HW139618   3.008  10.786   3.340 -1.8362  0.9041 -1.0979
 7336SOL    HW239619   3.047  10.930   3.369 -2.5048  1.0708 -1.0118
 7337SOL     OW39620  10.128  11.118   7.331  0.1115  0.9267 -0.3681
 7337SOL    HW139621  10.202  11.144   7.277  1.7316 -1.9521  0.2684
 7337SOL    HW239622  10.149  11.150   7.418  1.7743 -1.5999  0.2700
 7338SOL     OW39623  12.942  10.826  11.349  0.2167 -0.1590  0.0124
 7338SOL    HW139624  12.888  10.760  11.392  0.1329 -1.1014 -1.4762
 7338SOL    HW239625  12.951  10.795  11.259  0.7759  1.4999 -0.5416
 7339SOL     OW39626   6.700   5.962   1.176  0.0072  0.2149 -0.2069
 7339SOL    HW139627   6.608   5.979   1.154  0.4151 -0.9971 -3.3007
 7339SOL    HW239628   6.702   5.871   1.204  0.2451  0.3244  0.1430
 7340SOL     OW39629   3.054   7.592   7.258  0.0965  0.3212  0.2951
 7340SOL    HW139630   3.139   7.563   7.290  0.4178 -0.5354 -1.2121
 7340SOL    HW239631   2.997   7.592   7.335  1.1904 -0.1523  1.1230
 7341SOL     OW39632   8.860   2.730   5.036 -0.4901 -0.0690 -0.4275
 7341SOL    HW139633   8.835   2.753   4.946  0.4833 -1.0694 -0.9700
 7341SOL    HW239634   8.852   2.812   5.084  0.1882  0.7756 -1.6974
 7342SOL     OW39635   7.620   9.834   4.159 -0.1317  0.2056 -0.3564
 7342SOL    HW139636   7.688   9.873   4.214 -0.9095  1.0935 -0.0088
 7342SOL    HW239637   7.584   9.764   4.212  0.2567 -0.0289 -0.3970
 7343SOL     OW39638  10.443   8.591   2.506 -0.0606 -0.5010  0.0596
 7343SOL    HW139639  10.363   8.589   2.453  0.1770 -1.6075 -0.2854
 7343SOL    HW239640  10.493   8.515   2.477  0.5075 -0.5980  1.2201
 7344SOL     OW39641  12.107   4.762   8.687  0.7064  0.4382  0.0442
 7344SOL    HW139642  12.173   4.755   8.618  0.7346  0.0760  0.1011
 7344SOL    HW239643  12.025   4.781   8.641  0.4141 -1.3450 -0.2664
 7345SOL     OW39644   2.346   1.889   8.481  0.2494  0.1211  0.3546
 7345SOL    HW139645   2.289   1.948   8.431  2.4139  2.0074 -0.0202
 7345SOL    HW239646   2.312   1.893   8.570 -0.6030  0.6991  0.0178
 7346SOL     OW39647  11.423  13.725  13.451  0.5999 -0.4844  0.0256
 7346SOL    HW139648  11.460  13.746  13.537  0.7920  0.5463 -0.3027
 7346SOL    HW239649  11.339  13.684  13.471  0.7334 -0.4455  0.7102
 7347SOL     OW39650   8.735   1.856   3.304 -0.3106 -0.0587 -0.1697
 7347SOL    HW139651   8.759   1.775   3.349 -0.0468  0.7545  1.2051
 7347SOL    HW239652   8.813   1.878   3.252  0.4236  0.3976  1.0788
 7348SOL     OW39653   3.436  10.931   4.043  0.2229  0.5425 -0.4987
 7348SOL    HW139654   3.514  10.961   3.998 -0.4286  0.0638 -2.0015
 7348SOL    HW239655   3.465  10.853   4.091  0.8124  0.7800 -0.4586
 7349SOL     OW39656  11.812   8.353   9.923 -0.1734 -0.0262  0.5271
 7349SOL    HW139657  11.757   8.423   9.959 -0.8109 -0.9073  1.3148
 7349SOL    HW239658  11.901   8.387   9.929 -0.3781  0.3090  1.8711
 7350SOL     OW39659  14.021   2.383   2.700  0.1021  0.2706  0.3234
 7350SOL    HW139660  14.044   2.388   2.793  0.3842  1.1967  0.2170
 7350SOL    HW239661  13.985   2.295   2.688 -2.3490  0.9569  1.8832
 7351SOL     OW39662  12.065  11.948  10.563 -0.6427  0.3148  0.6388
 7351SOL    HW139663  12.016  11.921  10.486  0.1583 -0.0264  0.2371
 7351SOL    HW239664  12.147  11.983  10.529 -0.7694  1.2847  1.2735
 7352SOL     OW39665   1.145   0.228   5.776  0.4291 -0.6296 -0.0343
 7352SOL    HW139666   1.176   0.265   5.859 -0.0312 -0.2447 -0.0317
 7352SOL    HW239667   1.217   0.245   5.714  0.2904  0.1353  0.0051
 7353SOL     OW39668  12.884   8.355   5.267 -0.2312  0.3464  0.7454
 7353SOL    HW139669  12.943   8.326   5.337  0.0430  0.6366  0.6366
 7353SOL    HW239670  12.873   8.449   5.281  0.0525  0.4639  0.2405
 7354SOL     OW39671  10.601  12.904   3.687  0.1455  0.1206 -0.4412
 7354SOL    HW139672  10.634  12.832   3.740  0.9694  0.9882  0.2817
 7354SOL    HW239673  10.540  12.949   3.745  0.1099  0.3625 -0.6639
 7355SOL     OW39674   6.508   2.037   1.481  0.4237  0.3995  0.1004
 7355SOL    HW139675   6.441   1.972   1.503 -0.0452  0.4779 -1.0280
 7355SOL    HW239676   6.587   2.005   1.523 -0.4760  0.7362  2.1789
 7356SOL     OW39677   8.124   7.763   2.986  0.0741 -0.0705  0.1055
 7356SOL    HW139678   8.110   7.670   3.006  1.9280 -0.3353  0.3309
 7356SOL    HW239679   8.219   7.775   2.991 -0.2315  2.3386  2.2885
 7357SOL     OW39680  11.791   4.353   3.496  0.6396 -0.5235  0.0219
 7357SOL    HW139681  11.716   4.295   3.483 -0.9793  0.8176  2.6236
 7357SOL    HW239682  11.801   4.399   3.412 -2.2078  0.0741 -0.0830
 7358SOL     OW39683  13.414   1.034   1.708 -0.3514  0.3257 -0.6463
 7358SOL    HW139684  13.392   0.964   1.647  0.2874 -0.3990 -0.0724
 7358SOL    HW239685  13.424   1.112   1.653 -1.1189 -0.0158 -1.2879
 7359SOL     OW39686   8.309   5.847   2.583  0.0608  1.0720 -0.1044
 7359SOL    HW139687   8.354   5.763   2.588  0.5330  1.1864 -1.6865
 7359SOL    HW239688   8.249   5.838   2.509 -1.7854  1.2909  1.3019
 7360SOL     OW39689   3.692  11.532   7.740  0.6305  0.5037 -0.4343
 7360SOL    HW139690   3.713  11.616   7.699  0.0520  0.5672 -0.6036
 7360SOL    HW239691   3.638  11.554   7.815 -0.1182  0.2414 -0.8880
 7361SOL     OW39692   9.951   0.895   5.878 -0.1809 -0.1719 -0.4047
 7361SOL    HW139693   9.876   0.865   5.827  0.0034 -1.5249  0.0656
 7361SOL    HW239694  10.021   0.905   5.813 -0.6908  0.9222 -0.8166
 7362SOL     OW39695   6.992   4.592   3.910 -0.5341  0.3159 -1.3071
 7362SOL    HW139696   6.903   4.615   3.881 -1.2448 -1.5519 -0.7516
 7362SOL    HW239697   6.980   4.558   3.999  0.8098  0.4318 -1.0583
 7363SOL     OW39698   4.295   0.165   2.932 -0.7807 -0.5209  0.4911
 7363SOL    HW139699   4.223   0.225   2.912 -1.4497 -0.7624  2.0325
 7363SOL    HW239700   4.254   0.096   2.985  0.3438 -1.3541  0.3085
 7364SOL     OW39701   9.067   9.599  11.576 -0.0790 -0.3283 -0.0729
 7364SOL    HW139702   9.114   9.516  11.562  0.6158  0.1901 -0.9166
 7364SOL    HW239703   8.977   9.573  11.591  0.4866 -1.3843  1.9209
 7365SOL     OW39704   9.209   9.303   2.681 -0.1300 -0.5267 -0.6607
 7365SOL    HW139705   9.144   9.358   2.638 -1.4540 -0.3324  1.4380
 7365SOL    HW239706   9.163   9.221   2.698 -0.6004  0.2484  2.5365
 7366SOL     OW39707  13.319   3.288   3.680 -0.1125 -0.0275 -0.0783
 7366SOL    HW139708  13.316   3.374   3.638 -0.9435 -0.0359 -0.0553
 7366SOL    HW239709  13.322   3.307   3.773 -1.3819 -0.0146 -0.0245
 7367SOL     OW39710  11.642   6.324   9.203  0.1114  0.1681  0.3195
 7367SOL    HW139711  11.565   6.372   9.235  0.7415  0.0824  2.0234
 7367SOL    HW239712  11.709   6.338   9.269 -0.1676 -4.5076  1.9506
 7368SOL     OW39713  13.031   7.100  10.021  0.3369  0.3698 -0.2541
 7368SOL    HW139714  12.991   7.014  10.016  0.3759  0.2800  0.7735
 7368SOL    HW239715  13.057   7.110  10.113 -0.9268  2.0379 -0.0208
 7369SOL     OW39716   8.205  13.007   5.844 -0.1776  1.0451  0.3662
 7369SOL    HW139717   8.135  12.961   5.797  1.5518 -0.4073 -0.9273
 7369SOL    HW239718   8.227  13.081   5.788 -0.0484  0.9613  0.3063
 7370SOL     OW39719   1.981  11.728   8.257  0.2316  0.1544  0.5938
 7370SOL    HW139720   2.071  11.753   8.237 -0.0460  2.0311  1.5057
 7370SOL    HW239721   1.944  11.704   8.173  0.9342  1.6111 -0.1721
 7371SOL     OW39722   2.603   7.835  13.939  0.3282 -0.2207  0.4445
 7371SOL    HW139723   2.605   7.805  13.848  0.9879 -0.6138  0.5853
 7371SOL    HW239724   2.634   7.926  13.934 -1.9538  0.6158 -0.0172
 7372SOL     OW39725   4.455   5.099   9.904 -0.0928  0.1583  0.6009
 7372SOL    HW139726   4.460   5.123   9.997  2.4538 -3.5807  1.6733
 7372SOL    HW239727   4.363   5.079   9.889 -1.0977  3.5231  1.3727
 7373SOL     OW39728  13.700   5.426  11.668  0.3270 -0.0130 -0.2908
 7373SOL    HW139729  13.727   5.498  11.724 -0.4193 -0.0408  0.1216
 7373SOL    HW239730  13.682   5.466  11.583 -0.1121  0.2947 -0.0550
 7374SOL     OW39731   5.511  11.149   4.058  0.4637 -0.2847  0.2292
 7374SOL    HW139732   5.543  11.115   3.974  0.3476  0.3088 -0.0646
 7374SOL    HW239733   5.520  11.076   4.119  0.4999 -0.7408 -0.3145
 7375SOL     OW39734   6.044  11.774   4.121 -0.2963  0.6860  0.1950
 7375SOL    HW139735   6.082  11.852   4.081  0.9795  0.2796  0.5875
 7375SOL    HW239736   6.067  11.702   4.062  0.2647  0.3131  0.8559
 7376SOL     OW39737   0.400   8.819  12.137 -0.4157  0.2647 -0.1444
 7376SOL    HW139738   0.316   8.811  12.182  0.0042 -0.9732  0.4834
 7376SOL    HW239739   0.465   8.825  12.208 -0.0323  2.2168 -0.6182
 7377SOL     OW39740  11.818   0.389  11.134  0.6772 -0.4559 -0.5395
 7377SOL    HW139741  11.737   0.392  11.083  0.5361 -0.6179 -0.3265
 7377SOL    HW239742  11.793   0.424  11.219  1.3672  1.7122 -1.1703
 7378SOL     OW39743   1.599   6.892   6.748 -0.1704  0.4523 -0.9711
 7378SOL    HW139744   1.670   6.927   6.801 -0.1211 -2.1745  0.8787
 7378SOL    HW239745   1.630   6.806   6.720 -1.9564 -0.0556 -1.5247
 7379SOL     OW39746  13.752  12.894   7.516  0.3562 -0.2855 -0.3421
 7379SOL    HW139747  13.831  12.842   7.498  0.6778 -0.0593  0.3687
 7379SOL    HW239748  13.786  12.980   7.542 -0.1322 -0.1267 -0.2269
 7380SOL     OW39749  12.419   0.739   9.942  0.0015 -0.5284  0.0350
 7380SOL    HW139750  12.394   0.755   9.850  1.0477 -0.0940 -0.1878
 7380SOL    HW239751  12.477   0.664   9.938  1.2093  0.3708  0.1460
 7381SOL     OW39752   3.603   2.974   7.088 -0.1753  0.6314 -0.3839
 7381SOL    HW139753   3.683   2.942   7.129 -1.2853 -1.0909  0.5431
 7381SOL    HW239754   3.544   2.898   7.088 -0.6080  0.7556 -4.3224
 7382SOL     OW39755   2.879   5.654  12.146  0.4585  0.3848 -0.1122
 7382SOL    HW139756   2.837   5.568  12.139  0.1110  0.6189 -1.1542
 7382SOL    HW239757   2.834   5.696  12.219 -1.9576  1.0307 -1.8432
 7383SOL     OW39758   0.032   7.822   5.048 -0.1844  0.5117  0.1437
 7383SOL    HW139759   0.108   7.879   5.035  0.0902 -0.0660 -0.9047
 7383SOL    HW239760  -0.039   7.882   5.074  0.6551  1.0266  1.3270
 7384SOL     OW39761   8.946  11.730   4.216 -0.1316 -0.4075 -0.2406
 7384SOL    HW139762   8.943  11.809   4.163 -0.2936 -0.2857 -0.0551
 7384SOL    HW239763   8.966  11.762   4.304 -0.3600 -0.5544 -0.1342
 7385SOL     OW39764   0.047  13.002   1.378 -0.1771  0.3708 -0.0468
 7385SOL    HW139765  -0.010  12.982   1.304  0.4415  1.7463 -0.9446
 7385SOL    HW239766   0.136  13.000   1.341  0.1898  0.4660  0.8028
 7386SOL     OW39767   7.783   0.989  12.823 -0.2248  0.0041  0.4275
 7386SOL    HW139768   7.699   1.017  12.858 -1.4517 -2.4608 -0.2960
 7386SOL    HW239769   7.768   0.983  12.728  1.0550  0.4024  0.1855
 7387SOL     OW39770   7.526   4.903  13.987  0.0910 -0.1110 -0.0259
 7387SOL    HW139771   7.620   4.910  13.967  0.0249  0.1119 -0.2671
 7387SOL    HW239772   7.483   4.950  13.916 -0.1627  0.4709  0.4962
 7388SOL     OW39773   2.125  12.616   5.204 -0.2674 -0.3561  0.5778
 7388SOL    HW139774   2.174  12.688   5.243  0.7097  0.6483 -2.2420
 7388SOL    HW239775   2.033  12.641   5.215 -0.1890 -1.0081  3.6222
 7389SOL     OW39776   5.483   5.302  11.653 -0.2036 -0.0168  0.0447
 7389SOL    HW139777   5.507   5.391  11.681 -1.4892  0.9427 -1.6912
 7389SOL    HW239778   5.448   5.314  11.564 -1.8942 -2.0267  0.3724
 7390SOL     OW39779  11.612   4.941   3.651  0.3327  0.3716  0.1295
 7390SOL    HW139780  11.659   4.957   3.733 -1.2946 -1.3598  1.4761
 7390SOL    HW239781  11.541   4.882   3.675  1.9295 -3.3656 -3.1227
 7391SOL     OW39782   8.625  12.965   1.497 -0.0692 -0.4075  0.1494
 7391SOL    HW139783   8.597  12.950   1.407 -2.1258  0.6444  0.5559
 7391SOL    HW239784   8.545  12.953   1.549  1.3726 -2.6191  2.0578
 7392SOL     OW39785  13.740   9.361  10.384 -0.7376 -0.4138 -0.5773
 7392SOL    HW139786  13.750   9.269  10.408 -0.0680 -0.3285 -0.5198
 7392SOL    HW239787  13.645   9.377  10.389 -0.7553 -0.7821  0.6037
 7393SOL     OW39788  10.050   9.154   2.668 -0.5650  0.3488 -0.4763
 7393SOL    HW139789  10.112   9.213   2.710 -0.0452  0.7378 -1.7612
 7393SOL    HW239790  10.002   9.114   2.741  1.9422 -0.8348  0.6179
 7394SOL     OW39791   5.247  10.483   9.324 -0.2319 -0.5733 -0.1657
 7394SOL    HW139792   5.290  10.555   9.278 -1.7042 -0.2133 -1.0459
 7394SOL    HW239793   5.164  10.521   9.355 -0.2127 -1.4012  0.9693
 7395SOL     OW39794   6.443   1.848   4.045 -0.3266  0.4954  0.2391
 7395SOL    HW139795   6.395   1.851   4.128  0.1646  2.2406  0.4958
 7395SOL    HW239796   6.470   1.939   4.029  1.2750 -0.1124 -0.8360
 7396SOL     OW39797  13.883   9.393   6.921  0.8175  0.2245 -0.0797
 7396SOL    HW139798  13.896   9.317   6.978  1.0372 -0.6065 -1.2160
 7396SOL    HW239799  13.793   9.384   6.890  0.9300  0.2860 -0.4268
 7397SOL     OW39800   8.747   3.299   2.772  0.2700  0.1512 -0.1849
 7397SOL    HW139801   8.699   3.303   2.855  2.7089  2.2087  1.2693
 7397SOL    HW239802   8.751   3.206   2.751 -1.8528 -0.3011  1.0780
 7398SOL     OW39803   2.957   9.195   5.844  0.3194  0.1326 -0.0579
 7398SOL    HW139804   2.932   9.195   5.751  0.0010 -2.6533 -0.0674
 7398SOL    HW239805   2.881   9.232   5.889 -0.5402 -0.7668 -0.7342
 7399SOL     OW39806   1.392  12.442   7.751 -0.0068  0.0814 -0.3501
 7399SOL    HW139807   1.410  12.368   7.809  0.0875  0.0211 -0.4558
 7399SOL    HW239808   1.478  12.482   7.737  0.0069 -0.0431 -0.6336
 7400SOL     OW39809  10.470   3.108  10.762  0.1798  0.1530  0.1842
 7400SOL    HW139810  10.512   3.147  10.685  1.2385 -1.3291 -0.0512
 7400SOL    HW239811  10.542   3.069  10.811 -0.8055 -1.9768  0.0768
 7401SOL     OW39812  10.550   4.713  12.426 -0.2424  0.5827  0.5289
 7401SOL    HW139813  10.474   4.664  12.455  0.4979 -1.2910 -0.5593
 7401SOL    HW239814  10.571   4.770  12.500 -2.1837  0.5545  1.1476
 7402SOL     OW39815  11.498   3.602  11.626  1.1735 -0.2639  0.1404
 7402SOL    HW139816  11.476   3.533  11.688 -0.5006 -0.5551 -0.7032
 7402SOL    HW239817  11.500   3.682  11.678 -1.6025 -0.2802  0.4287
 7403SOL     OW39818  10.725   5.721   0.301 -0.3068  0.1144  0.4625
 7403SOL    HW139819  10.711   5.785   0.231 -0.7832 -0.5546 -0.0639
 7403SOL    HW239820  10.805   5.675   0.276 -0.1800  0.2389  0.6386
 7404SOL     OW39821   3.450   6.908  12.428 -0.2027  0.1563  0.4143
 7404SOL    HW139822   3.420   6.838  12.371  0.6007 -0.4359  0.6880
 7404SOL    HW239823   3.386   6.910  12.499 -1.0426  0.7044 -0.3517
 7405SOL     OW39824   8.898   2.092   7.938  0.1132 -0.0755 -0.2535
 7405SOL    HW139825   8.943   2.114   7.856 -0.1566  0.6117 -0.2204
 7405SOL    HW239826   8.877   2.176   7.978  0.0113 -0.4006  0.4045
 7406SOL     OW39827  10.408   1.787  11.894  0.2266 -0.7071 -0.3333
 7406SOL    HW139828  10.466   1.864  11.891 -2.3014  1.2971 -1.4284
 7406SOL    HW239829  10.390   1.767  11.802 -2.0988 -0.1819 -0.0510
 7407SOL     OW39830   8.280   8.560   1.296  0.1921 -0.0720 -0.1806
 7407SOL    HW139831   8.249   8.503   1.225 -1.9744 -0.2030  0.8038
 7407SOL    HW239832   8.226   8.537   1.371 -0.1193  2.6146  0.5209
 7408SOL     OW39833   6.725  10.673   1.600  0.3959 -0.2565 -0.3502
 7408SOL    HW139834   6.640  10.704   1.569  0.3632 -0.2081 -0.2161
 7408SOL    HW239835   6.788  10.728   1.554  0.3007  0.9439  0.8816
 7409SOL     OW39836   7.881   6.431   9.209 -0.2842 -0.6069 -0.1779
 7409SOL    HW139837   7.862   6.355   9.264 -0.6839 -0.5366 -0.2185
 7409SOL    HW239838   7.843   6.410   9.124  1.2443 -1.1633 -0.7540
 7410SOL     OW39839  10.455   4.098   0.971 -0.2238  0.5045  0.0312
 7410SOL    HW139840  10.421   4.184   0.995 -2.4283  0.0973 -1.3612
 7410SOL    HW239841  10.379   4.040   0.974  1.2062 -1.4306  0.9071
 7411SOL     OW39842   1.216   9.561  12.792  0.0429 -0.0700 -0.2371
 7411SOL    HW139843   1.295   9.596  12.834  0.0356  0.0774 -0.3428
 7411SOL    HW239844   1.224   9.589  12.701  0.6752 -1.4340 -0.6259
 7412SOL     OW39845   4.582  12.656   2.846 -0.2235 -0.0757  0.4379
 7412SOL    HW139846   4.591  12.630   2.938 -0.8039 -0.9095  0.2753
 7412SOL    HW239847   4.551  12.746   2.849  0.6253  0.2087  1.0475
 7413SOL     OW39848  10.059  12.113   2.244  0.1129  0.8226  0.1009
 7413SOL    HW139849  10.057  12.063   2.325 -2.2139  1.3514  0.4543
 7413SOL    HW239850  10.050  12.047   2.175 -0.2534  0.5420  0.4124
 7414SOL     OW39851  11.262  11.423   2.201 -0.7391  0.0526 -0.3219
 7414SOL    HW139852  11.223  11.507   2.224 -2.0460  0.1171 -2.5019
 7414SOL    HW239853  11.188  11.366   2.179  0.0939 -1.7945  1.2903
 7415SOL     OW39854  11.339   2.155  13.329  0.4923 -0.6875  0.3534
 7415SOL    HW139855  11.339   2.059  13.327  1.2083 -0.7815  2.3364
 7415SOL    HW239856  11.265   2.180  13.273  1.4133 -2.2886 -1.7134
 7416SOL     OW39857   6.399  11.589  11.820 -0.3342 -0.5650  0.0014
 7416SOL    HW139858   6.412  11.529  11.747  0.0181  0.2522 -0.6296
 7416SOL    HW239859   6.388  11.675  11.778 -0.8268 -0.1920  0.8770
 7417SOL     OW39860   9.638   4.202   4.314 -0.3237  0.4052  0.4420
 7417SOL    HW139861   9.598   4.119   4.289  0.7192  0.1956 -0.6233
 7417SOL    HW239862   9.716   4.208   4.259  0.9840  0.9092  2.2525
 7418SOL     OW39863   7.867   5.244  12.368  0.3854  0.1907  0.1492
 7418SOL    HW139864   7.950   5.290  12.356 -0.9665  2.6784 -0.4316
 7418SOL    HW239865   7.803   5.314  12.384 -2.0784 -1.3679 -2.0861
 7419SOL     OW39866  13.184   3.724   5.442  0.0955 -0.3054  0.4766
 7419SOL    HW139867  13.184   3.637   5.483 -1.7000  0.3380  2.0145
 7419SOL    HW239868  13.094   3.738   5.416  0.0407  1.6069  1.4896
 7420SOL     OW39869   3.504  10.484  12.765  0.2862 -0.9152  0.0252
 7420SOL    HW139870   3.431  10.526  12.810 -0.7221 -0.8560 -1.5884
 7420SOL    HW239871   3.577  10.546  12.775 -0.4490 -0.0065 -0.0746
 7421SOL     OW39872  13.509   8.739   3.175  0.5059  0.9669 -0.5953
 7421SOL    HW139873  13.599   8.766   3.189  0.8057  0.3147 -1.2455
 7421SOL    HW239874  13.491   8.761   3.083 -0.0633  1.2838 -0.4153
 7422SOL     OW39875  11.832   5.859  12.103  0.4276  0.0903 -0.1438
 7422SOL    HW139876  11.798   5.778  12.064  0.2814 -0.0276  0.2171
 7422SOL    HW239877  11.810   5.927  12.040 -0.4087  0.0021  0.0452
 7423SOL     OW39878  10.203   6.737  13.944  0.0398 -0.3823 -0.0102
 7423SOL    HW139879  10.184   6.817  13.894  2.4116  0.2799  0.0215
 7423SOL    HW239880  10.295   6.719  13.925 -0.7991 -4.1141 -1.3582
 7424SOL     OW39881  10.451  13.565   3.041 -0.4821  0.1186 -0.2687
 7424SOL    HW139882  10.467  13.603   3.127 -1.5220 -1.4531  0.6661
 7424SOL    HW239883  10.506  13.617   2.981 -1.1998  2.4739  1.0154
 7425SOL     OW39884   3.973  12.092  13.395  0.1095 -0.5126 -0.5678
 7425SOL    HW139885   4.060  12.057  13.379 -0.3464 -0.5886 -3.3670
 7425SOL    HW239886   3.981  12.140  13.478  3.3264  1.1271 -1.6440
 7426SOL     OW39887   1.685  13.549   3.157  0.3305  0.6097  0.1273
 7426SOL    HW139888   1.717  13.462   3.182  0.7545  0.6192 -0.3777
 7426SOL    HW239889   1.681  13.597   3.240  0.3371  0.1920  0.3750
 7427SOL     OW39890  10.112   0.504   7.912  0.2679 -0.3457 -0.1742
 7427SOL    HW139891  10.183   0.468   7.964 -1.4423 -0.2406  2.4021
 7427SOL    HW239892  10.040   0.443   7.923 -1.0461  1.1596 -0.0197
 7428SOL     OW39893   0.636   2.415   7.505 -0.0505  0.3004  0.2210
 7428SOL    HW139894   0.547   2.379   7.510  0.1498 -0.2156  0.1704
 7428SOL    HW239895   0.624   2.510   7.509 -0.7070  0.3064 -1.3263
 7429SOL     OW39896   1.228  12.170  14.051 -0.7333  0.0392 -0.6648
 7429SOL    HW139897   1.217  12.260  14.082  2.0678  0.0701  0.5383
 7429SOL    HW239898   1.219  12.116  14.130  0.6190 -0.4246 -0.8040
 7430SOL     OW39899  12.012   2.190  10.429 -0.0569 -0.1500  0.6034
 7430SOL    HW139900  12.001   2.285  10.420  0.8245  0.2155  2.7622
 7430SOL    HW239901  11.931   2.153  10.393  1.1539  1.0797 -4.0025
 7431SOL     OW39902   6.061   4.198   7.820  0.9539  0.5251 -0.2270
 7431SOL    HW139903   6.115   4.193   7.742 -0.3825 -1.4623 -1.0949
 7431SOL    HW239904   6.111   4.150   7.887  0.3345 -1.2713 -1.0108
 7432SOL     OW39905   6.832  13.864   2.126  0.1235  0.0837  0.1068
 7432SOL    HW139906   6.845  13.791   2.187  0.3654  0.8272  0.9512
 7432SOL    HW239907   6.787  13.824   2.051 -3.8055 -0.1817  2.3412
 7433SOL     OW39908   2.547   0.405   3.588 -0.4573 -0.4073  0.1959
 7433SOL    HW139909   2.535   0.440   3.500 -0.2368 -2.9841 -0.9268
 7433SOL    HW239910   2.631   0.441   3.617 -0.0831 -0.2586 -1.0245
 7434SOL     OW39911   0.892   5.094   6.080 -0.1731  0.1981 -1.3042
 7434SOL    HW139912   0.865   5.183   6.103  1.7337  0.4800  0.1380
 7434SOL    HW239913   0.971   5.106   6.028  1.0489 -0.6245  0.2652
 7435SOL     OW39914  11.523  12.228   5.577 -0.0558 -0.1278  0.1496
 7435SOL    HW139915  11.517  12.244   5.671 -2.3029 -0.5189  0.1328
 7435SOL    HW239916  11.564  12.306   5.542 -1.4262  1.1392  1.2211
 7436SOL     OW39917   7.097   3.695  13.524 -0.5935  0.4338 -0.5867
 7436SOL    HW139918   7.068   3.604  13.517 -0.4924  0.3960 -0.5117
 7436SOL    HW239919   7.092   3.715  13.617 -4.3631  1.7317 -0.8946
 7437SOL     OW39920   9.704  13.661   1.087 -0.0367 -0.1289  0.1152
 7437SOL    HW139921   9.668  13.749   1.083  2.0000  0.7297 -0.8661
 7437SOL    HW239922   9.695  13.627   0.998 -0.4397 -0.7845  0.3925
 7438SOL     OW39923  12.930   2.391   4.180 -0.3687  0.1269 -0.7685
 7438SOL    HW139924  12.967   2.304   4.165 -1.6879 -0.7488  0.6345
 7438SOL    HW239925  12.944   2.407   4.273 -0.4358  1.2910 -0.9414
 7439SOL     OW39926   4.135  11.133   5.042 -0.2604 -0.0143 -0.3152
 7439SOL    HW139927   4.122  11.123   4.947  1.2119 -0.1891 -0.5387
 7439SOL    HW239928   4.124  11.226   5.058 -0.5119  0.0201 -0.6707
 7440SOL     OW39929   4.428   4.295   4.438 -0.1165 -0.8572  0.2389
 7440SOL    HW139930   4.390   4.267   4.355 -1.3190  1.8610 -0.2369
 7440SOL    HW239931   4.520   4.270   4.432 -0.8616 -3.9153 -0.3238
 7441SOL     OW39932  11.010   8.407   2.132 -0.0885 -0.0719  0.3037
 7441SOL    HW139933  10.917   8.384   2.138 -0.3736  1.2756  1.6506
 7441SOL    HW239934  11.027   8.418   2.039 -1.0547 -1.1294 -0.0213
 7442SOL     OW39935   3.179   2.523  13.770 -0.0436 -0.4725 -0.0119
 7442SOL    HW139936   3.085   2.540  13.776  0.4467  3.4860 -0.6917
 7442SOL    HW239937   3.212   2.539  13.858  0.5957  5.0043 -0.8724
 7443SOL     OW39938   4.771   3.118   9.996  0.3737 -0.3220  0.1550
 7443SOL    HW139939   4.738   3.109   9.906  0.6504 -1.2886  0.1372
 7443SOL    HW239940   4.841   3.182   9.989 -0.3107  0.4217 -0.1189
 7444SOL     OW39941   6.583  10.277   4.188 -0.1418 -0.1195 -0.5793
 7444SOL    HW139942   6.626  10.243   4.266  2.8910  0.9083 -1.6621
 7444SOL    HW239943   6.612  10.368   4.183 -2.4846  0.6661 -1.4866
 7445SOL     OW39944  11.430   7.027   4.162 -0.4605  0.3996 -0.1797
 7445SOL    HW139945  11.445   7.112   4.203  1.5254  0.4072 -0.8043
 7445SOL    HW239946  11.369   6.983   4.220  0.8734  1.0771  1.8585
 7446SOL     OW39947  11.813  10.396   5.893  0.8294 -0.2080 -0.0221
 7446SOL    HW139948  11.825  10.304   5.918  0.4649 -0.8375 -2.0234
 7446SOL    HW239949  11.851  10.402   5.806  2.8749  2.1078  0.9279
 7447SOL     OW39950  14.022  14.079   9.972 -0.4152  0.4816  0.4303
 7447SOL    HW139951  14.103  14.031   9.989  1.9814  3.5422 -1.2474
 7447SOL    HW239952  13.975  14.077  10.055  2.1892 -0.0563  2.0081
 7448SOL     OW39953  13.534  13.936   9.265 -0.3092 -0.3865 -0.3953
 7448SOL    HW139954  13.525  13.868   9.331 -0.6130 -0.4675 -0.5151
 7448SOL    HW239955  13.594  14.000   9.303  0.0940 -0.7971 -0.3467
 7449SOL     OW39956   8.442  11.562   1.716  0.8833  0.1114  0.1252
 7449SOL    HW139957   8.453  11.474   1.752 -2.1941 -0.9006 -1.0543
 7449SOL    HW239958   8.425  11.548   1.623 -1.0870  1.7627  0.1570
 7450SOL     OW39959  11.529   5.294   4.321 -0.2812  0.1257  0.3070
 7450SOL    HW139960  11.597   5.285   4.388  0.2879 -1.8629 -0.4660
 7450SOL    HW239961  11.452   5.253   4.359 -0.2963  0.0493  0.1943
 7451SOL     OW39962   0.428  13.154   3.361 -0.5270  0.2636  0.1117
 7451SOL    HW139963   0.493  13.125   3.426 -2.0638  1.3997  2.2755
 7451SOL    HW239964   0.383  13.073   3.335 -1.0357 -0.0555  1.8256
 7452SOL     OW39965   7.166   1.702   6.221 -0.1112 -0.3665 -0.2192
 7452SOL    HW139966   7.095   1.756   6.254 -0.6204  0.2177 -2.1361
 7452SOL    HW239967   7.236   1.765   6.201  0.7772 -0.8756  1.1222
 7453SOL     OW39968   2.591   3.383   5.134  0.1315  0.5211 -0.0760
 7453SOL    HW139969   2.552   3.351   5.052  0.3031 -0.2846  0.1515
 7453SOL    HW239970   2.592   3.478   5.124 -2.7321  0.6841  0.2570
 7454SOL     OW39971  11.626  13.820  13.298 -0.0394 -0.7335  0.0280
 7454SOL    HW139972  11.652  13.903  13.339  1.7452 -0.8830 -0.7104
 7454SOL    HW239973  11.547  13.794  13.345  0.3569  0.5098  1.4695
 7455SOL     OW39974  11.568   3.632  10.841  0.0657 -0.0248 -0.2370
 7455SOL    HW139975  11.485   3.615  10.885 -0.2126  3.2279  0.7467
 7455SOL    HW239976  11.550   3.708  10.785  2.7166  1.8827  1.3047
 7456SOL     OW39977  13.330  10.496   0.159  0.0708 -0.7190  0.0233
 7456SOL    HW139978  13.400  10.475   0.222 -0.2706  0.1018  0.7039
 7456SOL    HW239979  13.260  10.434   0.178  0.2722 -0.9746 -0.0684
 7457SOL     OW39980   2.282   4.794  11.082  0.3459 -0.1639  0.4523
 7457SOL    HW139981   2.301   4.848  11.005 -0.1026 -1.8843 -0.9409
 7457SOL    HW239982   2.305   4.849  11.157  0.4056  1.7358 -0.8907
 7458SOL     OW39983  12.323   9.478  10.858  0.2335 -0.5901  0.5390
 7458SOL    HW139984  12.411   9.501  10.887 -0.4218  0.3533  1.9119
 7458SOL    HW239985  12.270   9.555  10.879 -0.7464 -0.7651 -1.1518
 7459SOL     OW39986   1.523   8.595   1.599 -0.2051  0.9680 -0.3408
 7459SOL    HW139987   1.568   8.522   1.556 -1.1536 -0.5347  1.0979
 7459SOL    HW239988   1.537   8.580   1.692 -2.0033  1.5682  0.0604
 7460SOL     OW39989   6.557   5.965  11.751 -0.3091 -0.7363  0.3399
 7460SOL    HW139990   6.621   5.957  11.821  0.8593  0.2202 -0.5784
 7460SOL    HW239991   6.486   6.016  11.789  0.5034  0.1410  0.7249
 7461SOL     OW39992   6.237  12.283   0.967  0.1904  0.1299 -0.0106
 7461SOL    HW139993   6.190  12.363   0.945  0.6978  0.6200  0.6562
 7461SOL    HW239994   6.170  12.225   1.004 -0.1398  0.3172 -0.3131
 7462SOL     OW39995   6.024  12.777   6.114  0.6767  0.3225  0.2064
 7462SOL    HW139996   6.008  12.762   6.021 -0.7883  0.3766  0.4261
 7462SOL    HW239997   6.088  12.710   6.138 -0.8764 -1.4461 -0.2833
 7463SOL     OW39998   3.402  13.001  10.384 -0.2200 -0.1576 -0.1681
 7463SOL    HW139999   3.452  13.082  10.383  0.5435 -0.6221 -0.0277
 7463SOL    HW240000   3.311  13.029  10.369  0.0563  0.6984 -0.2978
 7464SOL     OW40001  13.604  13.542  12.689 -0.0698  0.1310 -0.2530
 7464SOL    HW140002  13.561  13.466  12.649 -1.2644 -0.2717  1.6569
 7464SOL    HW240003  13.625  13.599  12.615 -0.9636 -1.1410 -1.5567
 7465SOL     OW40004   2.210  10.694   7.036  0.1784 -0.1660 -0.3302
 7465SOL    HW140005   2.131  10.747   7.049 -0.0636 -0.3137 -1.1869
 7465SOL    HW240006   2.190  10.639   6.961  1.1517 -0.1190 -0.6284
 7466SOL     OW40007   6.871  11.777   5.880  0.3362  0.2207 -0.1815
 7466SOL    HW140008   6.926  11.845   5.917  0.9615  1.0346 -2.4387
 7466SOL    HW240009   6.894  11.775   5.787 -1.7741 -1.0370 -0.7630
 7467SOL     OW40010   9.184  10.032  13.707  0.0306  0.0052  0.6670
 7467SOL    HW140011   9.121   9.961  13.701  0.9519 -0.7417 -0.5479
 7467SOL    HW240012   9.131  10.109  13.727 -0.9257 -1.0900  2.6682
 7468SOL     OW40013  11.541   7.439  11.606 -0.5624 -0.0649  0.2297
 7468SOL    HW140014  11.636   7.452  11.609 -0.3410 -1.4996  0.3380
 7468SOL    HW240015  11.520   7.400  11.691 -1.0852 -0.7111 -0.1862
 7469SOL     OW40016  11.883  13.697  11.964 -0.1793  0.1710 -0.3906
 7469SOL    HW140017  11.828  13.662  11.895  3.1023 -0.5766 -2.8575
 7469SOL    HW240018  11.878  13.792  11.953 -3.4279  0.3803  1.6512
 7470SOL     OW40019   6.345   1.011   1.834 -0.3301  0.4685 -0.2930
 7470SOL    HW140020   6.427   0.967   1.810 -0.3525  0.0066  0.4701
 7470SOL    HW240021   6.360   1.103   1.813  0.2960  0.3470 -0.3846
 7471SOL     OW40022   7.687  13.062   8.270 -0.1661 -0.0057 -0.3288
 7471SOL    HW140023   7.773  13.103   8.261 -0.5725  0.5884 -1.6875
 7471SOL    HW240024   7.629  13.115   8.216 -1.1919 -0.9875 -0.2306
 7472SOL     OW40025   2.424  11.636   6.610 -0.1237  0.0309 -0.0034
 7472SOL    HW140026   2.459  11.554   6.576  0.0357  0.6813 -1.4925
 7472SOL    HW240027   2.368  11.669   6.539 -3.0120 -0.4658  1.8879
 7473SOL     OW40028   1.426   0.774   3.150 -0.1848 -0.1040 -0.0377
 7473SOL    HW140029   1.502   0.801   3.100 -0.6167  1.5586  0.1428
 7473SOL    HW240030   1.460   0.713   3.215  0.4335 -2.0946 -2.0943
 7474SOL     OW40031  12.159  11.531   5.037 -0.4613 -0.0651 -0.0003
 7474SOL    HW140032  12.142  11.615   4.992 -1.5332 -1.0793 -1.5987
 7474SOL    HW240033  12.243  11.544   5.080  0.2310  1.2971 -1.6042
 7475SOL     OW40034   2.872  11.909   0.932 -0.8219 -0.3805  0.5130
 7475SOL    HW140035   2.900  11.887   0.843 -0.9877 -0.1188  0.3961
 7475SOL    HW240036   2.778  11.925   0.925 -0.3899  2.5913  0.1406
 7476SOL     OW40037   0.478   7.967   5.818 -0.3740  0.8166  0.2280
 7476SOL    HW140038   0.405   7.906   5.808 -1.0135  1.5537  0.3422
 7476SOL    HW240039   0.454   8.042   5.763  0.4579  0.9188 -0.0032
 7477SOL     OW40040   3.841   8.090   7.788  0.4477 -0.2577  0.1906
 7477SOL    HW140041   3.835   8.018   7.726  1.0040  0.6045 -0.9049
 7477SOL    HW240042   3.759   8.137   7.779  1.3092  1.0223 -1.4045
 7478SOL     OW40043  10.813   9.883   0.405 -0.2554  0.1606  0.8235
 7478SOL    HW140044  10.795   9.976   0.417 -0.2589  0.2980 -0.2047
 7478SOL    HW240045  10.871   9.861   0.478  1.0756  1.3437  0.1597
 7479SOL     OW40046   8.039   2.825  12.288  0.0249 -0.3464  0.1569
 7479SOL    HW140047   8.043   2.741  12.332  0.0763 -0.8729 -0.8161
 7479SOL    HW240048   8.114   2.824  12.228  0.5215  0.7402  0.7213
 7480SOL     OW40049   2.717   7.336  13.025  0.0677  0.5384 -0.6411
 7480SOL    HW140050   2.726   7.285  12.945 -0.3566  0.8345 -0.8809
 7480SOL    HW240051   2.635   7.308  13.064  0.5390 -0.0081 -0.0058
 7481SOL     OW40052   7.965   9.376   8.051  0.5006  0.4886  0.0271
 7481SOL    HW140053   7.966   9.387   8.146  1.0397  0.5317  0.0172
 7481SOL    HW240054   7.922   9.456   8.019  2.1390  1.4478  0.1176
 7482SOL     OW40055  12.448   4.372   3.060 -0.0601 -0.3853  0.5344
 7482SOL    HW140056  12.469   4.317   3.135 -2.0398 -0.1207  1.3263
 7482SOL    HW240057  12.480   4.459   3.084  0.9967 -0.6698  0.2410
 7483SOL     OW40058  11.798   6.821   3.678 -0.0363  0.0888 -0.2596
 7483SOL    HW140059  11.819   6.852   3.590 -1.5730  0.1815 -0.6256
 7483SOL    HW240060  11.731   6.754   3.664  0.0788 -0.2684  0.8201
 7484SOL     OW40061   5.173   2.289   2.604  0.0630  0.9879 -0.2687
 7484SOL    HW140062   5.257   2.252   2.577  0.6197  1.2035  1.0789
 7484SOL    HW240063   5.132   2.318   2.523  0.5603 -0.6090 -1.1133
 7485SOL     OW40064   0.129   5.087   1.569  0.0387  0.1701  0.0412
 7485SOL    HW140065   0.189   5.128   1.631  0.8949 -1.8385  0.6328
 7485SOL    HW240066   0.093   5.159   1.518  0.5776  1.7236  1.7728
 7486SOL     OW40067   8.609   2.976  11.850  0.2963  0.4993 -0.0662
 7486SOL    HW140068   8.635   2.942  11.935  0.6076  0.8027 -0.0361
 7486SOL    HW240069   8.686   3.024  11.819  0.4706 -0.2657 -0.8649
 7487SOL     OW40070   2.503   3.601   1.609 -0.2018  0.2333 -0.4555
 7487SOL    HW140071   2.549   3.634   1.686 -0.0306  3.5914 -1.8343
 7487SOL    HW240072   2.414   3.584   1.640  0.3464 -0.4107  0.8682
 7488SOL     OW40073  11.510  13.230   8.012  0.3630  0.4002 -0.1704
 7488SOL    HW140074  11.539  13.209   7.924 -0.7475  0.7529 -0.6409
 7488SOL    HW240075  11.579  13.196   8.069  0.1206 -1.6848 -1.0451
 7489SOL     OW40076   6.816   3.613   1.792  0.0316 -0.1692  0.1474
 7489SOL    HW140077   6.863   3.544   1.746  1.4390 -1.4293  3.2263
 7489SOL    HW240078   6.868   3.692   1.777 -0.8262  0.0502 -2.2187
 7490SOL     OW40079  10.183   4.603  12.234  0.2539 -0.0580  0.0823
 7490SOL    HW140080  10.136   4.577  12.314  0.5809  0.1777  0.3548
 7490SOL    HW240081  10.252   4.662  12.265 -0.9448  1.7638 -0.5956
 7491SOL     OW40082   3.153   8.677   9.168 -0.3836 -0.2660 -0.9512
 7491SOL    HW140083   3.249   8.674   9.162 -0.1645  1.1200  1.0094
 7491SOL    HW240084   3.124   8.673   9.077  1.6459  1.4456 -1.7838
 7492SOL     OW40085   3.201  13.114   1.586  0.1678  0.1316 -0.1019
 7492SOL    HW140086   3.284  13.155   1.611  0.6467 -1.1662  0.5311
 7492SOL    HW240087   3.146  13.124   1.664 -0.2751  0.9346 -0.4995
 7493SOL     OW40088   7.104   6.203   0.922 -0.6777  0.4791  0.6488
 7493SOL    HW140089   7.098   6.127   0.863 -0.5422 -0.5761  1.9498
 7493SOL    HW240090   7.045   6.268   0.882 -0.2883 -0.0368 -0.8499
 7494SOL     OW40091  10.897   2.292   2.880 -0.0443  0.1722  0.5949
 7494SOL    HW140092  10.832   2.331   2.822 -0.9161 -1.1519  0.6560
 7494SOL    HW240093  10.884   2.336   2.964 -1.1376 -0.3333  0.7113
 7495SOL     OW40094  10.100   9.862  13.788  0.3726 -0.4367 -0.3739
 7495SOL    HW140095  10.052   9.836  13.867  0.9385 -1.3581 -0.3311
 7495SOL    HW240096  10.065   9.949  13.768 -1.6664 -1.2390 -0.6025
 7496SOL     OW40097   1.474  11.595   9.805 -0.0440 -0.1027 -0.2380
 7496SOL    HW140098   1.544  11.653   9.776  0.0081 -0.8166 -1.6253
 7496SOL    HW240099   1.458  11.621   9.896 -0.4497  2.4664 -0.9788
 7497SOL     OW40100   4.041  12.707   7.626 -0.0055 -0.1617 -0.1442
 7497SOL    HW140101   4.011  12.748   7.546 -1.7346  1.8348  1.4202
 7497SOL    HW240102   4.088  12.776   7.673  1.0726 -1.3160  0.5495
 7498SOL     OW40103  11.395   3.370  11.345  0.0676 -0.0760  0.1285
 7498SOL    HW140104  11.335   3.346  11.415  1.9398 -2.6045  1.0288
 7498SOL    HW240105  11.339   3.406  11.276 -2.2378 -0.7569  1.5397
 7499SOL     OW40106  10.308  13.367   0.010 -0.4349  0.0319 -0.1099
 7499SOL    HW140107  10.262  13.349   0.091  2.0097  1.7236  1.7952
 7499SOL    HW240108  10.353  13.285  -0.011 -2.1025 -0.8179 -0.5850
 7500SOL     OW40109   1.029   0.063   3.520  0.4473  0.6221  0.4870
 7500SOL    HW140110   0.934   0.071   3.528 -0.0999 -1.9812 -1.9653
 7500SOL    HW240111   1.049  -0.027   3.547  1.6576 -0.0410 -2.2494
 7501SOL     OW40112  13.996  11.814  13.089  0.0234  0.0114 -0.0115
 7501SOL    HW140113  14.028  11.897  13.123  1.8281 -1.2000  1.3972
 7501SOL    HW240114  13.920  11.793  13.143 -0.6759  0.8950 -0.6250
 7502SOL     OW40115   4.484  10.102   4.519 -0.0450  0.4522 -0.1194
 7502SOL    HW140116   4.407  10.092   4.574 -1.1049 -3.1092 -1.9490
 7502SOL    HW240117   4.539  10.027   4.541  2.5384  2.3597  0.4237
 7503SOL     OW40118   4.524  11.113   7.381 -0.2932  0.2805  0.1935
 7503SOL    HW140119   4.559  11.078   7.463 -2.1037  0.5349  1.1256
 7503SOL    HW240120   4.515  11.036   7.324  2.3459  0.2896 -0.3822
 7504SOL     OW40121   1.465   8.067  10.252 -0.5491 -0.0220  0.9180
 7504SOL    HW140122   1.491   7.993  10.196  0.7639 -0.0052  1.4683
 7504SOL    HW240123   1.371   8.057  10.262 -0.7463 -0.3385 -0.8497
 7505SOL     OW40124  13.358   0.282  13.546 -0.2316 -0.4975 -0.0251
 7505SOL    HW140125  13.417   0.243  13.611  0.3430 -1.0161 -0.8353
 7505SOL    HW240126  13.273   0.243  13.565  0.2668 -1.9939 -0.6250
 7506SOL     OW40127  13.286   2.749   2.249  0.6981 -0.7341  0.5855
 7506SOL    HW140128  13.253   2.664   2.276  1.6581 -1.7609 -1.3190
 7506SOL    HW240129  13.212   2.809   2.262 -0.5301 -2.1665  0.3804
 7507SOL     OW40130  13.197   7.073   3.857 -0.5859 -0.1249 -0.7085
 7507SOL    HW140131  13.285   7.098   3.827 -0.7171  0.6535 -0.4481
 7507SOL    HW240132  13.138   7.122   3.800 -0.8438  1.5178  0.9016
 7508SOL     OW40133   6.089  13.369   7.139  0.3104 -0.1611  0.1834
 7508SOL    HW140134   6.159  13.407   7.086  0.2715 -1.0313 -0.5138
 7508SOL    HW240135   6.010  13.378   7.085 -0.1846  1.0329  1.0612
 7509SOL     OW40136  11.762   7.223   8.552 -0.0187 -0.3575  0.0151
 7509SOL    HW140137  11.687   7.229   8.493 -0.0302  1.4154  0.1492
 7509SOL    HW240138  11.725   7.194   8.636 -0.0892 -2.2764 -0.6264
 7510SOL     OW40139   7.559  10.733   0.011  0.5395 -0.0197  0.9507
 7510SOL    HW140140   7.651  10.759   0.014  0.2124  1.5385 -0.7828
 7510SOL    HW240141   7.551  10.682  -0.070 -0.2878  0.5788  0.6496
 7511SOL     OW40142  11.920  13.903   6.106  0.0407 -0.0121 -0.1368
 7511SOL    HW140143  11.860  13.841   6.149  1.2050 -0.7307  0.4901
 7511SOL    HW240144  11.947  13.859   6.025 -0.4533  0.4167 -0.5407
 7512SOL     OW40145   8.695   4.187  10.194  0.1319 -0.3294  0.0928
 7512SOL    HW140146   8.733   4.225  10.273  1.1846  2.9492 -1.8320
 7512SOL    HW240147   8.638   4.118  10.227  1.6651 -0.1500  3.5965
 7513SOL     OW40148   7.859   7.826   2.469  0.0809 -0.4337  0.4142
 7513SOL    HW140149   7.832   7.917   2.477 -2.9046 -1.2556  0.9256
 7513SOL    HW240150   7.860   7.793   2.559 -2.2177 -1.6882  0.0530
 7514SOL     OW40151   4.444  13.504   1.581  0.1507 -0.3229  0.1438
 7514SOL    HW140152   4.449  13.477   1.673  0.6115 -0.0284  0.2063
 7514SOL    HW240153   4.506  13.576   1.574 -1.4253  1.0803  0.0882
 7515SOL     OW40154  12.030   7.100   5.655  0.6157 -0.1052 -0.1468
 7515SOL    HW140155  11.992   7.181   5.623  0.8726  0.6337  1.3216
 7515SOL    HW240156  11.998   7.092   5.745  2.4073 -0.4188  0.5158
 7516SOL     OW40157   6.152   5.678   0.027  0.0298  0.3237  0.1423
 7516SOL    HW140158   6.158   5.622   0.104 -0.0983 -0.1842 -0.2055
 7516SOL    HW240159   6.154   5.616  -0.047  0.8402  0.8400 -0.2865
 7517SOL     OW40160   3.753   1.229  10.779  0.0739  0.6326  0.1932
 7517SOL    HW140161   3.826   1.199  10.725  0.0319 -0.7903  0.8495
 7517SOL    HW240162   3.783   1.215  10.869 -1.0305 -0.0848  0.4717
 7518SOL     OW40163   2.011  10.345   0.590 -0.2151 -0.3098 -0.2196
 7518SOL    HW140164   2.073  10.277   0.564 -0.6997 -0.6151 -0.5903
 7518SOL    HW240165   2.031  10.419   0.532  0.3206 -0.1227  0.1935
 7519SOL     OW40166   9.039  12.643   7.412 -0.1766  0.0432 -0.5038
 7519SOL    HW140167   8.999  12.631   7.499  0.9211 -0.4548 -0.0443
 7519SOL    HW240168   9.107  12.575   7.408  1.5192  1.6726 -0.7192
 7520SOL     OW40169   2.081   0.493   5.218  0.5525 -0.1853 -0.0476
 7520SOL    HW140170   2.001   0.544   5.220 -0.3621 -1.5493  2.1671
 7520SOL    HW240171   2.053   0.403   5.235  2.5061 -0.7036  0.8207
 7521SOL     OW40172   1.234  10.899  11.854  0.0704  0.3108  0.3119
 7521SOL    HW140173   1.267  10.817  11.890 -1.9914 -0.1172  1.3480
 7521SOL    HW240174   1.291  10.966  11.893  2.7742 -0.6090 -1.7364
 7522SOL     OW40175   5.947   5.910  13.543  0.8467 -0.5858  0.4449
 7522SOL    HW140176   5.957   5.944  13.632  2.1760 -0.5346  0.2876
 7522SOL    HW240177   5.904   5.980  13.495  1.3943 -0.0652  0.7088
 7523SOL     OW40178  12.325   7.093  12.608 -0.0206 -0.0117  0.4181
 7523SOL    HW140179  12.391   7.106  12.540 -0.2043  0.8247  0.3885
 7523SOL    HW240180  12.352   7.153  12.678 -0.5647  0.0851  0.5452
 7524SOL     OW40181  12.971  13.514   3.503  0.1688  0.0834 -0.4945
 7524SOL    HW140182  13.045  13.562   3.466  0.1455  1.3556  1.0026
 7524SOL    HW240183  12.906  13.512   3.433  0.8738  0.6780 -1.1798
 7525SOL     OW40184   2.847   0.216   3.252 -0.2734 -0.5393 -0.4622
 7525SOL    HW140185   2.812   0.195   3.165 -1.8404 -1.7638  0.4106
 7525SOL    HW240186   2.938   0.188   3.248 -0.4346 -0.9609 -1.5810
 7526SOL     OW40187   3.342  12.104   6.520  0.3617  0.6108 -0.5225
 7526SOL    HW140188   3.298  12.054   6.588  1.6308 -0.2416 -0.3001
 7526SOL    HW240189   3.284  12.179   6.504 -0.7530 -0.0485  0.3078
 7527SOL     OW40190   2.293   6.728   5.575 -0.1884 -0.5570  0.2931
 7527SOL    HW140191   2.237   6.767   5.507  1.3290 -0.7241 -1.1186
 7527SOL    HW240192   2.337   6.803   5.615 -1.8662 -0.3659  1.8773
 7528SOL     OW40193   2.683   0.700   0.026  0.1871  0.1885  0.3842
 7528SOL    HW140194   2.748   0.692  -0.044 -0.6915  0.8880 -0.5477
 7528SOL    HW240195   2.710   0.777   0.075  0.3581  0.1696  0.3183
 7529SOL     OW40196   3.245  12.246   9.355  0.2077 -0.3808 -0.2974
 7529SOL    HW140197   3.234  12.187   9.281  1.7921  0.6577 -1.4064
 7529SOL    HW240198   3.267  12.330   9.316 -1.1859  0.7943  1.2749
 7530SOL     OW40199   7.675  10.241   8.275  0.2569 -0.1788  0.0204
 7530SOL    HW140200   7.653  10.272   8.362  0.3765 -0.7567  0.2616
 7530SOL    HW240201   7.754  10.288   8.251 -0.2383  0.6027 -0.1258
 7531SOL     OW40202   6.256   8.617   2.537 -0.0022 -0.5612  0.0737
 7531SOL    HW140203   6.220   8.635   2.623  0.7834 -0.5835  0.4170
 7531SOL    HW240204   6.191   8.651   2.475 -1.5588 -2.3221  0.6188
 7532SOL     OW40205  10.972   1.212   3.360 -0.2304 -0.4126  0.4115
 7532SOL    HW140206  10.917   1.291   3.370 -0.5079 -0.2675 -1.7278
 7532SOL    HW240207  11.039   1.238   3.297 -0.0990 -1.7833 -0.0306
 7533SOL     OW40208   2.033   7.478   4.460 -0.5936 -0.5130  0.3144
 7533SOL    HW140209   2.026   7.442   4.372  0.4594 -0.6411  0.2627
 7533SOL    HW240210   1.981   7.420   4.515  0.6303 -1.8289  0.1385
 7534SOL     OW40211   4.535   4.508   1.381  0.2141  0.2087 -0.2783
 7534SOL    HW140212   4.516   4.464   1.464 -0.3604 -1.4918 -1.2628
 7534SOL    HW240213   4.453   4.552   1.358  0.8580  2.0750  0.8231
 7535SOL     OW40214   9.293   8.510   4.182  0.1112  0.0458 -0.2564
 7535SOL    HW140215   9.347   8.569   4.234  1.3394  0.2998 -1.7566
 7535SOL    HW240216   9.281   8.433   4.238  1.8849  0.0694  0.2170
 7536SOL     OW40217   7.039  13.854   2.625 -0.3877 -0.0968 -0.0281
 7536SOL    HW140218   6.962  13.903   2.596 -0.1808 -0.3544 -1.0550
 7536SOL    HW240219   7.114  13.910   2.603 -0.1787 -0.6526 -0.7667
 7537SOL     OW40220  10.887   6.158  11.194 -0.1988 -0.1376 -0.4825
 7537SOL    HW140221  10.811   6.205  11.227  0.1384 -0.6208  1.0455
 7537SOL    HW240222  10.949   6.158  11.267 -0.1315 -2.8421 -0.4328
 7538SOL     OW40223  12.147   6.707   7.140 -0.1825 -0.0680 -0.7320
 7538SOL    HW140224  12.149   6.781   7.200  0.6497 -1.0561  0.5201
 7538SOL    HW240225  12.160   6.630   7.196 -1.4311 -1.2158 -1.9255
 7539SOL     OW40226   3.675   0.729   3.825  0.3773 -0.1709 -0.7348
 7539SOL    HW140227   3.585   0.699   3.824  0.6930 -1.3294  1.1066
 7539SOL    HW240228   3.669   0.824   3.831 -0.9442 -0.2777  4.1436
 7540SOL     OW40229  12.565   4.661   4.786 -0.4545 -0.1504 -0.8334
 7540SOL    HW140230  12.493   4.603   4.762 -0.4910 -0.2938 -0.3962
 7540SOL    HW240231  12.523   4.741   4.817 -0.4016  0.1526 -1.5252
 7541SOL     OW40232   1.691  11.925   2.975  0.2422 -0.0347 -0.6235
 7541SOL    HW140233   1.720  12.000   2.924  0.4735  0.6342  0.4442
 7541SOL    HW240234   1.689  11.958   3.066  2.1768 -1.8209  0.1423
 7542SOL     OW40235  11.800   0.627   6.360 -0.2750 -0.2255  0.1170
 7542SOL    HW140236  11.829   0.542   6.325 -1.5675 -0.8426  0.4747
 7542SOL    HW240237  11.877   0.663   6.403 -0.4599 -2.7303  2.8388
 7543SOL     OW40238  12.515  10.310   5.131  0.3996  0.4569 -0.9447
 7543SOL    HW140239  12.551  10.319   5.219 -0.0754  2.1289 -0.8800
 7543SOL    HW240240  12.505  10.401   5.100 -2.3222  0.0399 -1.5358
 7544SOL     OW40241  12.308   9.677   1.503  0.1585  0.1890 -0.2700
 7544SOL    HW140242  12.391   9.684   1.550 -0.0953 -0.3973  0.2747
 7544SOL    HW240243  12.306   9.587   1.469 -0.9812 -0.3712  1.1433
 7545SOL     OW40244   3.803   2.328   5.717 -0.2006  0.5191 -0.9911
 7545SOL    HW140245   3.719   2.366   5.744  0.1321  1.9017 -1.7720
 7545SOL    HW240246   3.811   2.248   5.769 -2.0305  0.3043 -0.9603
 7546SOL     OW40247   9.611   4.096   2.078  0.3876 -0.1304 -0.0208
 7546SOL    HW140248   9.587   4.003   2.077  0.8961 -0.2916 -1.8867
 7546SOL    HW240249   9.707   4.096   2.079  0.3939  0.4121  1.0719
 7547SOL     OW40250   7.540  10.604   1.866  0.1014 -0.5133  0.0088
 7547SOL    HW140251   7.487  10.602   1.786  0.2502 -0.8297 -0.0848
 7547SOL    HW240252   7.476  10.616   1.936 -0.0661 -0.5895 -0.1280
 7548SOL     OW40253   9.905   2.990  11.927 -0.2092 -0.4022 -0.1555
 7548SOL    HW140254   9.954   3.054  11.979  1.7543 -1.1197 -1.0341
 7548SOL    HW240255   9.842   2.952  11.989  0.0493  0.8456  0.9111
 7549SOL     OW40256   0.867   6.800   7.792  0.1878  0.0115  0.1902
 7549SOL    HW140257   0.833   6.804   7.703 -0.0180 -0.2511  0.2557
 7549SOL    HW240258   0.875   6.707   7.811 -1.7987 -0.0039  1.2095
 7550SOL     OW40259  12.523   7.616  11.498  0.0023  0.1120 -0.3851
 7550SOL    HW140260  12.520   7.663  11.581 -0.2762 -1.6607  0.6770
 7550SOL    HW240261  12.433   7.623  11.464 -0.7697 -1.7077  1.0553
 7551SOL     OW40262   1.624   6.750   9.028 -0.6010 -0.0581 -0.7009
 7551SOL    HW140263   1.532   6.774   9.029 -0.8573 -0.5580 -3.4990
 7551SOL    HW240264   1.655   6.776   8.941  2.5178  2.1027  0.8468
 7552SOL     OW40265  10.309  10.856  10.256  0.5944 -0.0290 -0.1395
 7552SOL    HW140266  10.393  10.813  10.241  0.7506  0.6072 -1.2364
 7552SOL    HW240267  10.248  10.785  10.275  0.7450 -0.8340 -2.3304
 7553SOL     OW40268   8.066  11.515   8.896  0.1582 -0.3441 -0.5862
 7553SOL    HW140269   8.155  11.509   8.931  0.4550  0.6877 -1.1260
 7553SOL    HW240270   8.066  11.456   8.821 -0.1669 -1.7536  0.4933
 7554SOL     OW40271   5.158   0.315   2.531 -0.1508  0.2442  0.2176
 7554SOL    HW140272   5.246   0.298   2.497  0.0670  1.2042  0.2813
 7554SOL    HW240273   5.163   0.287   2.623 -0.1883 -0.5514 -0.0096
 7555SOL     OW40274   1.294  13.626  13.988  0.0626  0.1155 -0.0944
 7555SOL    HW140275   1.289  13.536  14.022 -3.9639 -0.5926 -1.9785
 7555SOL    HW240276   1.254  13.680  14.057  0.1827  0.0764  0.0061
 7556SOL     OW40277   4.985   1.085   0.648  0.5860  0.3026 -0.3429
 7556SOL    HW140278   4.894   1.083   0.618  0.8854 -0.9414 -1.2537
 7556SOL    HW240279   4.979   1.094   0.743 -0.4841  0.2408 -0.3959
 7557SOL     OW40280   8.869   0.975   7.791  0.2128 -0.5440 -0.5928
 7557SOL    HW140281   8.800   1.009   7.849 -0.6312  1.1551 -2.4811
 7557SOL    HW240282   8.874   0.882   7.812 -2.3472 -0.6320 -0.0482
 7558SOL     OW40283   9.086   2.254   1.733  0.3279 -0.1901 -0.0960
 7558SOL    HW140284   9.006   2.207   1.754  0.2326  0.1170  0.2477
 7558SOL    HW240285   9.066   2.345   1.753  0.7266 -0.0975 -0.1110
 7559SOL     OW40286   1.426   4.006   7.550 -0.2054 -0.7036  0.0063
 7559SOL    HW140287   1.465   3.926   7.515 -0.5853 -1.0008  0.2561
 7559SOL    HW240288   1.332   3.987   7.554 -0.1872 -0.6529  1.1007
 7560SOL     OW40289   2.077   3.679  11.118  0.1932 -0.4336  0.1069
 7560SOL    HW140290   2.059   3.760  11.167 -2.1096  0.4683 -2.0014
 7560SOL    HW240291   2.122   3.708  11.039 -1.0973 -1.0766 -0.9137
 7561SOL     OW40292   4.046  11.300  12.987  0.3872  0.4966 -0.0167
 7561SOL    HW140293   4.008  11.212  12.986  0.5826  0.4070  0.1893
 7561SOL    HW240294   4.013  11.341  12.908  0.2133  0.2707 -0.0645
 7562SOL     OW40295  10.240  12.308  10.769 -0.3062  0.1916 -0.8861
 7562SOL    HW140296  10.196  12.224  10.761 -1.2447  0.5817 -0.0607
 7562SOL    HW240297  10.230  12.348  10.682 -1.3743  0.1612 -0.7972
 7563SOL     OW40298  12.102   1.363   0.248 -0.3776 -0.5636  0.2285
 7563SOL    HW140299  12.108   1.305   0.172  1.1441 -0.2566  0.0838
 7563SOL    HW240300  12.024   1.333   0.295 -0.7783 -1.3956 -0.9251
 7564SOL     OW40301   7.742   1.258   0.251  0.3094  0.0485 -0.4241
 7564SOL    HW140302   7.673   1.192   0.250  0.9163 -0.6608  1.2215
 7564SOL    HW240303   7.799   1.235   0.178  0.9398 -1.7538  0.5805
 7565SOL     OW40304   4.596   4.741  10.965  0.3263 -0.4031  0.0657
 7565SOL    HW140305   4.644   4.661  10.945 -0.2088 -0.3857 -1.4006
 7565SOL    HW240306   4.519   4.712  11.013  0.8032 -0.6316  0.6927
 7566SOL     OW40307  14.067   4.937   2.753 -0.5308  0.1651 -0.0210
 7566SOL    HW140308  14.120   5.003   2.798 -0.7327  0.2066  0.1569
 7566SOL    HW240309  14.124   4.905   2.682 -0.5661  0.8014 -0.3475
 7567SOL     OW40310   1.661   2.559   8.401  0.3948 -0.6551 -0.1328
 7567SOL    HW140311   1.592   2.514   8.352  0.5332 -0.0619 -0.9101
 7567SOL    HW240312   1.710   2.490   8.444 -1.2845 -1.0353  1.2658
 7568SOL     OW40313  13.535  12.351  14.032 -0.2927 -0.5370 -0.3907
 7568SOL    HW140314  13.604  12.370  14.096 -0.9281 -0.1154  0.1769
 7568SOL    HW240315  13.489  12.434  14.021 -0.7020 -0.8151 -0.7772
 7569SOL     OW40316   1.996   2.986  10.618 -0.4385  0.5311 -0.3915
 7569SOL    HW140317   1.927   3.043  10.653 -1.4021 -0.8164 -0.0298
 7569SOL    HW240318   2.063   2.985  10.687 -0.8836  0.4230  0.0482
 7570SOL     OW40319   9.850   9.392   8.998 -0.2869  0.2801 -0.3887
 7570SOL    HW140320   9.790   9.361   8.930 -0.7084  0.3602 -0.0558
 7570SOL    HW240321   9.811   9.474   9.029  1.2086  1.5783 -1.7935
 7571SOL     OW40322  10.979   2.840   0.238  0.0342  0.5340 -0.1540
 7571SOL    HW140323  10.913   2.833   0.168  0.2442  0.2891 -0.3312
 7571SOL    HW240324  10.962   2.925   0.279  0.4650  1.0676 -1.0601
 7572SOL     OW40325   8.186  11.866  10.310 -0.5280 -0.0397  0.4091
 7572SOL    HW140326   8.122  11.921  10.264 -1.2426  0.1957  1.6488
 7572SOL    HW240327   8.214  11.919  10.384  0.7329 -0.3541  0.1750
 7573SOL     OW40328   1.740  13.972  13.691  0.0997  0.1278  0.1851
 7573SOL    HW140329   1.748  13.922  13.609 -1.8919 -0.1683  0.1155
 7573SOL    HW240330   1.649  14.000  13.692 -0.1143 -0.4626  2.6397
 7574SOL     OW40331   9.833  10.402   1.805 -0.1122  0.0297 -0.5792
 7574SOL    HW140332   9.825  10.496   1.817  2.1752  0.2591 -0.5610
 7574SOL    HW240333   9.866  10.369   1.889 -0.8601 -0.7976 -0.5903
 7575SOL     OW40334  11.213   1.555   4.598  0.0076 -0.1241 -0.3564
 7575SOL    HW140335  11.173   1.605   4.669  2.4742  1.1978  0.2137
 7575SOL    HW240336  11.209   1.464   4.628 -1.4492  0.0880  0.1746
 7576SOL     OW40337   8.375  11.188  13.420  0.7898 -0.0237  0.3553
 7576SOL    HW140338   8.355  11.278  13.447 -1.6530  0.3167 -2.0900
 7576SOL    HW240339   8.379  11.193  13.324  0.7887 -2.4730  0.1820
 7577SOL     OW40340  10.365   1.726   1.386  0.0642  0.2758  0.2608
 7577SOL    HW140341  10.332   1.768   1.465 -0.1997  1.1307 -0.2897
 7577SOL    HW240342  10.455   1.701   1.408 -0.5675 -1.1573  1.4342
 7578SOL     OW40343  12.895   1.979   0.122  0.0354  0.4438 -0.0839
 7578SOL    HW140344  12.830   1.946   0.060  0.4906 -0.1074 -0.2771
 7578SOL    HW240345  12.978   1.945   0.090  0.4635  1.3625 -0.0001
 7579SOL     OW40346   9.172  12.643   5.672 -0.3786 -0.4190 -0.2961
 7579SOL    HW140347   9.104  12.710   5.671 -0.7906 -0.7680 -2.6305
 7579SOL    HW240348   9.134  12.570   5.720 -0.1853  0.7026  1.6536
 7580SOL     OW40349  13.102   8.573  12.619  0.7302  0.5880  0.3831
 7580SOL    HW140350  13.035   8.615  12.565 -1.4568 -1.3726  1.3619
 7580SOL    HW240351  13.095   8.480  12.596  0.2659 -0.2013  3.3437
 7581SOL     OW40352   0.837  12.077  13.436 -0.9407  0.2219  0.0538
 7581SOL    HW140353   0.759  12.022  13.441 -1.5350  1.0011 -0.3800
 7581SOL    HW240354   0.907  12.023  13.472 -1.6431 -0.5580  0.2804
 7582SOL     OW40355   6.690   3.480   7.108 -0.4429  0.1134 -0.5076
 7582SOL    HW140356   6.651   3.398   7.138 -3.0529  1.5010  0.2595
 7582SOL    HW240357   6.683   3.476   7.012  3.1511 -2.1256 -0.8511
 7583SOL     OW40358   4.046   3.991   3.002  0.2818 -0.4257  0.5422
 7583SOL    HW140359   4.023   4.017   2.913  0.4689 -1.0067  0.3178
 7583SOL    HW240360   4.080   4.070   3.043  0.3517 -0.1982  0.0460
 7584SOL     OW40361   3.406   2.275  10.470 -0.5779 -0.2686 -0.0950
 7584SOL    HW140362   3.411   2.192  10.518 -0.4993 -0.6804 -0.8169
 7584SOL    HW240363   3.407   2.251  10.378 -0.8516  0.5182 -0.3153
 7585SOL     OW40364   7.431  10.538  13.457  0.0977 -0.1549 -0.6149
 7585SOL    HW140365   7.473  10.549  13.372  0.2124 -2.3066 -0.8846
 7585SOL    HW240366   7.376  10.616  13.466 -1.2043 -0.5980 -3.4254
 7586SOL     OW40367  11.606   0.415   8.597  0.0500  0.0421 -0.0232
 7586SOL    HW140368  11.685   0.420   8.543 -0.0624  0.9475 -0.1287
 7586SOL    HW240369  11.553   0.348   8.555  0.6720 -0.4371 -0.0694
 7587SOL     OW40370   4.953   7.197   5.101 -0.0426 -0.1682 -0.1382
 7587SOL    HW140371   5.006   7.274   5.078  0.7323 -0.7381 -0.3262
 7587SOL    HW240372   5.000   7.158   5.175 -1.3040  0.4177  0.9920
 7588SOL     OW40373  10.245  12.362   1.931  0.7045  0.4257  0.5106
 7588SOL    HW140374  10.160  12.403   1.916 -0.4075 -1.7958  0.3384
 7588SOL    HW240375  10.294  12.376   1.849 -0.4415 -0.3715 -0.3439
 7589SOL     OW40376  14.064   7.134   0.313  0.8134  0.1436  0.5291
 7589SOL    HW140377  14.111   7.189   0.250  0.3886 -0.6257 -0.5034
 7589SOL    HW240378  14.106   7.151   0.397 -0.6363  3.6598  0.7032
 7590SOL     OW40379   8.534  13.582   7.447 -0.3471 -0.2470  0.1428
 7590SOL    HW140380   8.479  13.654   7.417 -0.4258 -0.3926 -0.0581
 7590SOL    HW240381   8.622  13.604   7.415 -0.2495  0.0765  0.6186
 7591SOL     OW40382  10.106   4.836   5.746 -0.3730  0.2139 -0.1198
 7591SOL    HW140383  10.171   4.881   5.693 -1.7239  0.2235 -1.9107
 7591SOL    HW240384  10.040   4.903   5.765 -0.1288  0.0881  1.2098
 7592SOL     OW40385   0.082   3.011   6.555 -0.1347 -0.3144  0.4399
 7592SOL    HW140386   0.132   2.969   6.485 -0.9775 -0.3387 -0.1754
 7592SOL    HW240387   0.026   2.941   6.590  2.2107 -1.0375  3.0771
 7593SOL     OW40388   3.116   3.426   6.755 -0.3465  0.1815 -0.4256
 7593SOL    HW140389   3.070   3.422   6.839 -2.6788  0.6387 -1.5854
 7593SOL    HW240390   3.159   3.341   6.747 -2.5882 -1.0861 -0.0517
 7594SOL     OW40391  11.380   1.779  10.712 -0.6152  0.0834  0.8312
 7594SOL    HW140392  11.364   1.855  10.656  0.9948  0.4100  0.7730
 7594SOL    HW240393  11.307   1.780  10.775  0.4475  2.9561  2.1975
 7595SOL     OW40394   9.778   5.532  10.479  0.0336 -0.2716  0.5768
 7595SOL    HW140395   9.795   5.559  10.570 -0.9251 -0.3482  0.7898
 7595SOL    HW240396   9.723   5.455  10.487 -1.5798  0.7570 -0.0695
 7596SOL     OW40397  11.276   2.679   7.988  0.0112  0.2674  0.2080
 7596SOL    HW140398  11.322   2.758   8.018  0.5029 -0.2905  0.9444
 7596SOL    HW240399  11.336   2.607   8.007 -0.4558 -0.2984 -0.4131
 7597SOL     OW40400   5.257   1.438   2.396  0.2006 -0.1334 -0.0373
 7597SOL    HW140401   5.213   1.453   2.480  1.2458 -0.3079  0.5502
 7597SOL    HW240402   5.324   1.507   2.391 -0.6303  0.6369 -1.3025
 7598SOL     OW40403   6.444  10.867  12.580 -0.0658 -0.3287 -0.3129
 7598SOL    HW140404   6.366  10.922  12.593  0.4746  0.0530  1.5934
 7598SOL    HW240405   6.410  10.787  12.540 -1.4227 -0.0815  0.2787
 7599SOL     OW40406  12.347   9.286   5.029 -0.0853 -0.0649  0.2074
 7599SOL    HW140407  12.289   9.263   4.956 -1.4065 -2.2006  1.7943
 7599SOL    HW240408  12.289   9.284   5.105  1.4086  1.3244  1.4314
 7600SOL     OW40409   2.339   0.449   9.837 -0.5733  0.5934 -0.8412
 7600SOL    HW140410   2.245   0.431   9.832 -0.5523  0.5133 -0.9384
 7600SOL    HW240411   2.346   0.543   9.822 -0.6791  0.6815 -0.3666
 7601SOL     OW40412   4.294  10.433   7.067 -0.0382 -0.3279 -0.3496
 7601SOL    HW140413   4.283  10.525   7.090  1.9431 -0.2991  0.7288
 7601SOL    HW240414   4.387  10.415   7.082 -0.0486 -2.1365 -1.9576
 7602SOL     OW40415  14.043   9.442   2.055 -0.0323 -0.0358 -0.0000
 7602SOL    HW140416  14.079   9.519   2.098 -1.9256 -1.0204  3.7802
 7602SOL    HW240417  13.977   9.477   1.994  0.1207  1.3739  0.6227
 7603SOL     OW40418  11.571   8.437   5.660 -0.3890 -0.5047 -0.5648
 7603SOL    HW140419  11.568   8.533   5.656  0.9247 -0.4641 -1.0496
 7603SOL    HW240420  11.484   8.412   5.692 -1.1221  0.7874 -1.4285
 7604SOL     OW40421  11.000  11.644  12.187  0.0031  0.1367 -0.1240
 7604SOL    HW140422  10.976  11.644  12.094 -0.2340 -1.2954 -0.0793
 7604SOL    HW240423  11.090  11.677  12.188 -0.5157  1.6651 -0.6854
 7605SOL     OW40424   2.863  13.389   6.212 -1.0838 -0.2883  0.0932
 7605SOL    HW140425   2.876  13.304   6.253  4.3614  0.3124  0.4365
 7605SOL    HW240426   2.864  13.451   6.285 -0.9370  0.2466 -0.3535
 7606SOL     OW40427  11.189  13.285   1.263  0.1630  0.0532  0.2619
 7606SOL    HW140428  11.225  13.336   1.335 -2.0792 -0.5524  1.9250
 7606SOL    HW240429  11.229  13.199   1.272  0.7278  0.2932  0.0795
 7607SOL     OW40430   6.196  13.990   6.367  0.0356  0.4664 -0.1830
 7607SOL    HW140431   6.129  13.972   6.301 -0.4647  1.1198  0.1255
 7607SOL    HW240432   6.156  14.056   6.423  0.2273 -0.4902  1.1251
 7608SOL     OW40433   8.356   4.276  12.096  0.1933 -0.6331 -0.4633
 7608SOL    HW140434   8.327   4.243  12.010 -1.3127  0.7762 -0.5512
 7608SOL    HW240435   8.328   4.209  12.158 -0.9163 -0.5479 -0.8480
 7609SOL     OW40436   1.339  12.475  13.289 -0.3122 -0.5333  0.3183
 7609SOL    HW140437   1.433  12.457  13.285 -0.4465 -1.3445  0.8034
 7609SOL    HW240438   1.329  12.535  13.363 -0.2378 -0.8426  0.5801
 7610SOL     OW40439   8.872   4.177   5.621 -0.4226  0.1559 -0.1656
 7610SOL    HW140440   8.931   4.251   5.608  0.2977 -0.4032 -0.1668
 7610SOL    HW240441   8.808   4.208   5.685  0.8661  0.2377  1.1385
 7611SOL     OW40442   2.374   3.977   0.835 -0.2711 -0.1647  0.0157
 7611SOL    HW140443   2.442   3.966   0.768 -0.6230  1.5200 -0.6613
 7611SOL    HW240444   2.420   3.963   0.918  0.9822  1.1442 -0.4149
 7612SOL     OW40445   0.287  10.830   8.281  0.1878 -0.2712  0.3583
 7612SOL    HW140446   0.327  10.743   8.276  2.5722  0.7187  0.6612
 7612SOL    HW240447   0.309  10.861   8.369 -0.3909  0.7403  0.1579
 7613SOL     OW40448  13.561  12.575   3.062  0.6578 -0.1024 -0.3861
 7613SOL    HW140449  13.547  12.584   2.967  1.7058  0.1962 -0.5200
 7613SOL    HW240450  13.642  12.525   3.070  2.0488  2.1437  0.3148
 7614SOL     OW40451  13.387   4.318   5.047 -0.6698  0.6889  0.0685
 7614SOL    HW140452  13.481   4.306   5.057 -0.5704 -0.4576 -1.7181
 7614SOL    HW240453  13.356   4.347   5.133  1.2337  0.6276  0.8037
 7615SOL     OW40454  12.650   7.845   5.896 -0.4510  0.1146  0.2455
 7615SOL    HW140455  12.597   7.924   5.906  0.2514  0.8551 -1.4733
 7615SOL    HW240456  12.691   7.833   5.982  0.9251  2.7859  0.0747
 7616SOL     OW40457   8.146  13.914   1.407 -0.6021  0.2767  0.4741
 7616SOL    HW140458   8.084  13.895   1.478 -0.6757 -1.2444  0.0293
 7616SOL    HW240459   8.211  13.844   1.413  0.0456  0.8055 -0.2288
 7617SOL     OW40460  13.673   5.856  11.947  0.4587 -0.4927 -0.3920
 7617SOL    HW140461  13.706   5.933  11.994 -0.7183  0.0184 -0.3665
 7617SOL    HW240462  13.586   5.883  11.915 -0.2376 -2.0087  0.1386
 7618SOL     OW40463  12.326  10.281   0.546 -0.4396  0.3578  0.1910
 7618SOL    HW140464  12.418  10.281   0.518  0.0965  3.3678  1.5256
 7618SOL    HW240465  12.278  10.243   0.473  1.6887  0.3302 -1.2666
 7619SOL     OW40466   5.427   7.493   0.324 -0.2149  0.3437  0.2015
 7619SOL    HW140467   5.406   7.400   0.324 -1.2960  0.5480  1.7886
 7619SOL    HW240468   5.510   7.499   0.370 -0.0842  0.1535 -0.0092
 7620SOL     OW40469   1.238   3.357  13.434 -0.2340  0.1699 -0.1472
 7620SOL    HW140470   1.234   3.343  13.529  0.3135  0.3109 -0.0989
 7620SOL    HW240471   1.246   3.269  13.398  0.2769  0.1597 -0.0168
 7621SOL     OW40472  11.912   5.553  13.394 -0.6325  0.7992  0.0631
 7621SOL    HW140473  11.880   5.466  13.417 -0.0998  0.7931  0.8304
 7621SOL    HW240474  11.928   5.548  13.299 -1.0273  0.2026  0.0241
 7622SOL     OW40475  11.963   6.504   5.629 -0.5813  0.0825  0.2236
 7622SOL    HW140476  11.908   6.578   5.603 -1.1183 -0.0466  0.9758
 7622SOL    HW240477  11.949   6.495   5.723 -1.1102 -1.4417  0.0360
 7623SOL     OW40478  11.271   6.832   5.863  0.1997 -0.2141 -0.3875
 7623SOL    HW140479  11.364   6.812   5.851  0.3708  0.0829  0.3617
 7623SOL    HW240480  11.242   6.866   5.778  0.9136  0.2071 -0.4742
 7624SOL     OW40481   2.704  10.002   9.594 -0.0991  0.2685  0.0990
 7624SOL    HW140482   2.619  10.042   9.613  0.0937 -0.2234  2.2159
 7624SOL    HW240483   2.767  10.055   9.642  0.9512  1.0749 -2.0399
 7625SOL     OW40484  10.580   2.240   4.720  0.2592 -0.1295  1.2707
 7625SOL    HW140485  10.631   2.318   4.738  0.4783  0.5309 -1.7402
 7625SOL    HW240486  10.547   2.252   4.631 -2.9390 -1.7401  2.0706
 7626SOL     OW40487   2.255  13.289  10.026  0.4188 -0.5161 -0.3807
 7626SOL    HW140488   2.185  13.275   9.963 -1.4930  0.4172  1.4332
 7626SOL    HW240489   2.258  13.384  10.038  1.2327 -0.6260  0.3904
 7627SOL     OW40490   3.490   2.227   4.566  0.4597 -0.1594  0.3036
 7627SOL    HW140491   3.483   2.149   4.511 -0.3397 -0.6616  1.1022
 7627SOL    HW240492   3.579   2.259   4.551  0.7449 -1.1377 -0.1507
 7628SOL     OW40493  12.518  10.633   3.740  0.3524  0.2247  0.1934
 7628SOL    HW140494  12.464  10.675   3.807  0.1096 -1.3022  0.9926
 7628SOL    HW240495  12.487  10.669   3.657  0.9495  2.4866  0.8845
 7629SOL     OW40496   5.629   9.540  13.708 -0.0906  0.4530 -0.9801
 7629SOL    HW140497   5.702   9.601  13.706 -0.5761  1.0487 -0.7765
 7629SOL    HW240498   5.667   9.458  13.740  0.6658  0.4936 -1.7637
 7630SOL     OW40499   8.039   5.940  13.377  0.2379  0.3377 -0.2276
 7630SOL    HW140500   8.012   6.019  13.330  0.6200 -0.2420 -1.4916
 7630SOL    HW240501   8.134   5.936  13.363  0.7059  1.1747  2.2761
 7631SOL     OW40502   6.636   1.019  12.753  0.0982 -0.4940  0.2327
 7631SOL    HW140503   6.601   1.100  12.716 -1.3951 -1.6140 -0.9199
 7631SOL    HW240504   6.635   1.033  12.847  0.3485  1.0065  0.0322
 7632SOL     OW40505   5.798   1.191  13.806  0.2454  0.2639  0.5177
 7632SOL    HW140506   5.775   1.103  13.836  3.0517 -1.1946 -1.1674
 7632SOL    HW240507   5.759   1.197  13.719  0.3034  0.5668  0.5135
 7633SOL     OW40508   1.029   7.659   7.960 -0.1415 -0.3079 -0.3270
 7633SOL    HW140509   0.955   7.707   7.997 -1.6526 -1.2358 -1.9879
 7633SOL    HW240510   1.011   7.567   7.979  0.4500 -0.5735 -0.9888
 7634SOL     OW40511   0.918   0.647   9.982 -0.1327  0.2051  0.6737
 7634SOL    HW140512   0.945   0.738   9.986 -0.6035  0.4237 -0.5685
 7634SOL    HW240513   0.843   0.641  10.040 -1.5428  1.1806 -0.9544
 7635SOL     OW40514   3.563   8.981   0.401  0.1187  0.4725 -0.1420
 7635SOL    HW140515   3.572   8.891   0.434  3.4181  0.9184  0.5695
 7635SOL    HW240516   3.472   9.004   0.419 -0.7885 -2.6177 -0.1630
 7636SOL     OW40517   2.767  13.539   6.008  0.3557  0.4107 -0.3843
 7636SOL    HW140518   2.844  13.586   5.975  1.1109 -0.5918 -0.1093
 7636SOL    HW240519   2.802  13.477   6.072 -0.7985  0.5685  0.4442
 7637SOL     OW40520   5.503   7.013   6.776 -0.0641 -0.5266  0.0946
 7637SOL    HW140521   5.470   6.929   6.744  0.9570 -0.8030 -0.2934
 7637SOL    HW240522   5.469   7.020   6.865 -0.9113 -0.9223 -0.1925
 7638SOL     OW40523  13.719   4.521   2.872  0.1859  0.4340 -0.0773
 7638SOL    HW140524  13.737   4.599   2.924  0.5777  1.3705 -1.5709
 7638SOL    HW240525  13.651   4.548   2.811  0.7195 -0.2147 -0.9815
 7639SOL     OW40526   1.084   0.111   8.010  0.1509 -0.3579 -0.0468
 7639SOL    HW140527   1.073   0.205   7.999 -1.0881 -0.4888 -0.0751
 7639SOL    HW240528   1.115   0.100   8.100  1.6742  0.1535 -0.4907
 7640SOL     OW40529   8.373   6.887  10.227  0.2583 -0.4031  0.0998
 7640SOL    HW140530   8.434   6.933  10.284 -1.4130  0.2285  1.4881
 7640SOL    HW240531   8.318   6.835  10.287 -1.6631  0.4017 -0.8685
 7641SOL     OW40532   3.659   0.480  12.421 -0.3151  0.4170  0.5869
 7641SOL    HW140533   3.648   0.399  12.371 -0.4293  1.2759 -0.8249
 7641SOL    HW240534   3.737   0.465  12.475  0.5066 -0.1107 -0.7169
 7642SOL     OW40535   1.295  11.676   6.420 -0.2454  0.3836 -0.0268
 7642SOL    HW140536   1.216  11.648   6.467 -1.3924  3.0766 -0.1431
 7642SOL    HW240537   1.281  11.647   6.330  1.2384 -3.3998  0.7676
 7643SOL     OW40538   8.686   3.255  10.369 -0.5075 -0.1041 -0.2251
 7643SOL    HW140539   8.694   3.168  10.330  0.9525  0.5012 -1.3799
 7643SOL    HW240540   8.735   3.313  10.310 -2.1089  1.6618  0.0590
 7644SOL     OW40541   3.654  11.137   8.059  0.2066  0.3850 -0.2410
 7644SOL    HW140542   3.559  11.136   8.044  0.1893  1.3064 -0.2910
 7644SOL    HW240543   3.674  11.050   8.091 -0.6564  0.1612 -0.2694
 7645SOL     OW40544  12.552   5.125   5.206  0.7180 -0.0918 -0.1448
 7645SOL    HW140545  12.590   5.132   5.293  0.5598  0.5833 -0.1291
 7645SOL    HW240546  12.496   5.201   5.198  0.6024 -0.2401 -0.7762
 7646SOL     OW40547   6.283   3.765   8.046  0.6449 -0.1361 -0.2744
 7646SOL    HW140548   6.241   3.782   8.130 -1.2515 -0.2209 -1.1426
 7646SOL    HW240549   6.376   3.782   8.061  0.2761  0.3867  1.6729
 7647SOL     OW40550  13.829   3.763   6.905  0.0490 -0.2086  0.1723
 7647SOL    HW140551  13.850   3.669   6.902 -0.2375 -0.2517 -0.4953
 7647SOL    HW240552  13.806   3.779   6.997 -2.6683 -1.4015 -0.2057
 7648SOL     OW40553   3.477   4.061  13.011 -0.5156 -0.2226  0.4033
 7648SOL    HW140554   3.456   3.971  13.039  1.1868 -0.2947  1.5729
 7648SOL    HW240555   3.572   4.062  13.000 -0.6680  1.0534 -1.0904
 7649SOL     OW40556  12.138   8.113   8.063 -0.0804 -0.2397  0.6000
 7649SOL    HW140557  12.166   8.197   8.099 -1.6024  0.3816  0.4262
 7649SOL    HW240558  12.171   8.113   7.973  0.4023 -0.0799  0.7740
 7650SOL     OW40559  10.669   6.832   4.662 -0.0693 -0.4171 -0.1646
 7650SOL    HW140560  10.653   6.818   4.755  0.0916 -1.3084 -0.2587
 7650SOL    HW240561  10.590   6.799   4.619 -0.2564  0.2377 -0.3311
 7651SOL     OW40562  13.682   2.280  13.740 -0.1283  0.1716  0.3914
 7651SOL    HW140563  13.725   2.202  13.775  1.8019  1.2952  0.7045
 7651SOL    HW240564  13.748   2.319  13.682 -0.5031  2.2734  1.2934
 7652SOL     OW40565   0.085   6.135   4.764  0.2259  1.0664 -0.0773
 7652SOL    HW140566   0.065   6.099   4.678 -2.0991  0.3713  0.6911
 7652SOL    HW240567   0.010   6.189   4.787 -0.4160 -0.7224  2.5207
 7653SOL     OW40568  13.140   5.083   7.649  0.7716 -0.1657 -0.0684
 7653SOL    HW140569  13.170   4.995   7.669  1.1478  0.0854  0.4839
 7653SOL    HW240570  13.214   5.125   7.604  0.5162 -0.1976 -0.5300
 7654SOL     OW40571   0.534  10.037   9.321  0.1145  0.4895  0.2048
 7654SOL    HW140572   0.599  10.082   9.375 -1.0029  1.7817  0.5424
 7654SOL    HW240573   0.461  10.100   9.314 -1.1332 -0.9215 -0.0872
 7655SOL     OW40574   2.468   2.242   9.074 -0.6132  1.1100 -0.6485
 7655SOL    HW140575   2.547   2.264   9.024 -1.4275 -0.8051 -3.0052
 7655SOL    HW240576   2.497   2.179   9.139 -0.1317  0.4988 -1.4344
 7656SOL     OW40577   2.651  10.975   2.496 -0.0998 -0.2692 -0.1458
 7656SOL    HW140578   2.689  10.922   2.566 -2.4276 -0.9661  0.6841
 7656SOL    HW240579   2.706  10.958   2.420  1.1954 -1.2266  0.9668
 7657SOL     OW40580   5.719  10.136   5.763  0.3784 -0.1012  0.6207
 7657SOL    HW140581   5.701  10.218   5.718  0.9746 -0.6413 -0.6879
 7657SOL    HW240582   5.802  10.106   5.725  2.4077  0.7066  4.0448
 7658SOL     OW40583   1.887   4.318   5.497 -0.2261  0.2153  0.1514
 7658SOL    HW140584   1.904   4.315   5.403 -1.1631  2.5296 -0.1809
 7658SOL    HW240585   1.825   4.391   5.507 -1.6592 -1.1838  2.3554
 7659SOL     OW40586   5.798   7.326  13.888 -0.0466  0.2637  0.3601
 7659SOL    HW140587   5.718   7.378  13.874 -0.2816  0.3683  1.8860
 7659SOL    HW240588   5.800   7.312  13.983  0.8789 -1.1508  0.1498
 7660SOL     OW40589   1.476   5.331   6.369 -0.0280 -0.3261  0.4342
 7660SOL    HW140590   1.490   5.401   6.433 -0.4056 -1.0299  1.3035
 7660SOL    HW240591   1.406   5.365   6.313 -3.1075 -1.4767  3.2311
 7661SOL     OW40592   6.128  10.523  11.059  0.0230 -0.0203  0.2464
 7661SOL    HW140593   6.183  10.469  11.002 -0.2935  2.0834 -2.2188
 7661SOL    HW240594   6.155  10.613  11.041 -1.6426  0.8733  1.8372
 7662SOL     OW40595   5.610   0.873   9.038  0.3982 -0.0853 -0.3950
 7662SOL    HW140596   5.521   0.840   9.049  1.4207 -2.3372  2.4308
 7662SOL    HW240597   5.619   0.940   9.105  1.8467 -2.5039  1.9908
 7663SOL     OW40598  14.007  11.018   9.892  0.2281  0.6111 -0.4954
 7663SOL    HW140599  13.913  11.002   9.885  0.3968 -0.3767 -0.6986
 7663SOL    HW240600  14.019  11.058   9.978 -0.2882  0.0247 -0.1463
 7664SOL     OW40601   8.004   1.525   8.279  0.3666  0.1523  0.6012
 7664SOL    HW140602   8.099   1.526   8.268  0.4925  2.4443  1.3205
 7664SOL    HW240603   7.989   1.581   8.356 -1.5467 -0.3531  0.6294
 7665SOL     OW40604   6.003  11.798   6.577  0.4367  0.4992  0.0981
 7665SOL    HW140605   5.988  11.839   6.492  0.0000 -0.4075 -0.2672
 7665SOL    HW240606   5.916  11.784   6.613  0.6070  0.5455  0.5418
 7666SOL     OW40607  12.061   1.052  12.403 -0.0567 -0.2107  0.2517
 7666SOL    HW140608  12.010   1.130  12.420 -0.3929  0.2172 -2.3186
 7666SOL    HW240609  12.003   0.979  12.425 -1.2158  0.2853 -1.0032
 7667SOL     OW40610  13.300   4.750   3.556 -0.0097 -0.4052  0.0846
 7667SOL    HW140611  13.333   4.789   3.475 -0.3226  0.3171  0.3017
 7667SOL    HW240612  13.244   4.817   3.595  1.1161 -0.2364  1.5369
 7668SOL     OW40613   9.086   3.980  12.939  0.0926  0.0199 -0.1279
 7668SOL    HW140614   9.001   3.940  12.918 -0.0296  0.3077 -0.1899
 7668SOL    HW240615   9.151   3.919  12.905 -0.0939  0.5946 -1.5880
 7669SOL     OW40616   8.471  14.018  13.919  0.5134 -0.0800 -0.4674
 7669SOL    HW140617   8.389  14.066  13.909  0.9481  0.4172 -1.7564
 7669SOL    HW240618   8.537  14.072  13.875  1.0896 -1.6403 -1.6102
 7670SOL     OW40619  10.510   5.477   9.798 -0.3116  0.0243  0.1195
 7670SOL    HW140620  10.474   5.409   9.855  0.9559 -0.5579  0.2563
 7670SOL    HW240621  10.497   5.443   9.709 -1.3645  0.4709  0.0865
 7671SOL     OW40622   4.582  10.894   4.377  0.6368  0.3321 -0.5156
 7671SOL    HW140623   4.586  10.817   4.434 -0.0628  0.5782 -0.1095
 7671SOL    HW240624   4.575  10.968   4.438  2.4083  0.8308 -0.8669
 7672SOL     OW40625   5.760  13.138   4.430  0.2878 -0.0947 -0.1792
 7672SOL    HW140626   5.674  13.134   4.473  0.8113 -0.2682  0.8639
 7672SOL    HW240627   5.807  13.062   4.463  1.6508  1.2078  1.0157
 7673SOL     OW40628   0.708   1.113   2.540  0.0187 -0.1237 -0.4237
 7673SOL    HW140629   0.762   1.065   2.477  0.6605 -0.0786  0.0887
 7673SOL    HW240630   0.628   1.134   2.492  0.5285 -0.0331 -1.2434
 7674SOL     OW40631   0.905   8.112  13.325  0.5431  0.1126  0.2947
 7674SOL    HW140632   0.841   8.049  13.358  0.7804 -0.8632 -1.0046
 7674SOL    HW240633   0.914   8.178  13.394 -1.5351  0.0395  0.6769
 7675SOL     OW40634  11.983   9.114   1.749 -0.2532  0.4751  0.6298
 7675SOL    HW140635  12.053   9.157   1.700  0.3133 -2.0724 -1.0432
 7675SOL    HW240636  12.029   9.057   1.812 -0.8913  0.6251  1.2450
 7676SOL     OW40637   5.582   5.560   5.284  0.5000 -0.2323 -0.0026
 7676SOL    HW140638   5.570   5.637   5.340  2.0113  1.6399 -2.0576
 7676SOL    HW240639   5.640   5.503   5.333  1.4778  1.1748  0.5480
 7677SOL     OW40640   4.296   2.994  12.281  0.1286 -0.2907  0.6608
 7677SOL    HW140641   4.251   2.919  12.243  1.1377 -0.5233 -0.1332
 7677SOL    HW240642   4.339   2.959  12.359 -0.6693 -0.1760  1.1539
 7678SOL     OW40643   3.523   4.412   2.173  0.0144 -0.0415  0.6809
 7678SOL    HW140644   3.614   4.392   2.151 -0.0361 -0.2742  0.6807
 7678SOL    HW240645   3.521   4.507   2.184  0.9122 -0.2814  3.6536
 7679SOL     OW40646   8.859   0.326   9.666 -0.1928 -0.5865  0.0064
 7679SOL    HW140647   8.860   0.373   9.750 -0.0401 -0.6067  0.0169
 7679SOL    HW240648   8.773   0.344   9.629 -0.4030 -0.8907  0.3433
 7680SOL     OW40649   9.463  13.459  13.387  0.4250  0.6686 -0.6381
 7680SOL    HW140650   9.537  13.400  13.401  1.0970  1.0667 -2.2727
 7680SOL    HW240651   9.395  13.403  13.348  0.2090  0.5072 -0.0404
 7681SOL     OW40652   8.479   5.794   4.523 -0.0690 -0.5290 -0.0787
 7681SOL    HW140653   8.399   5.843   4.544  1.5385  1.4827  1.7188
 7681SOL    HW240654   8.481   5.722   4.586 -0.1585 -0.2488  0.2410
 7682SOL     OW40655   8.892   5.431   3.968 -0.4872  0.0121 -0.1122
 7682SOL    HW140656   8.814   5.408   3.917 -0.9441  1.8846 -0.3678
 7682SOL    HW240657   8.866   5.416   4.059 -0.4712 -1.1623 -0.2895
 7683SOL     OW40658  11.582   4.433   0.931  0.3589  0.0260 -0.2031
 7683SOL    HW140659  11.521   4.445   1.003  4.3894  2.5781  3.2363
 7683SOL    HW240660  11.640   4.362   0.959  0.3280 -0.9297 -2.3528
 7684SOL     OW40661   9.309   9.529  11.796  0.1023  0.0125 -0.9381
 7684SOL    HW140662   9.382   9.569  11.749  0.0707  0.5551 -0.5300
 7684SOL    HW240663   9.238   9.593  11.789 -0.4822 -0.6928 -1.6950
 7685SOL     OW40664   5.366  13.419   7.424 -0.2978  0.4236 -0.4954
 7685SOL    HW140665   5.368  13.462   7.509 -0.4662  0.6781 -0.6172
 7685SOL    HW240666   5.313  13.340   7.437 -0.7373  0.7173 -0.4779
 7686SOL     OW40667   6.071  12.818   7.383  0.3171 -0.4188 -0.5001
 7686SOL    HW140668   6.032  12.733   7.400 -0.6493  0.6880  3.9162
 7686SOL    HW240669   6.016  12.856   7.314 -1.2650 -2.1151 -0.2454
 7687SOL     OW40670  11.171  12.463  13.953 -0.1053  0.6205  0.2761
 7687SOL    HW140671  11.156  12.464  14.047  4.0627 -1.2667  1.1468
 7687SOL    HW240672  11.158  12.372  13.927  1.9171  0.4585 -0.2866
 7688SOL     OW40673   1.189  13.480  13.073 -0.3285 -0.6986  0.2158
 7688SOL    HW140674   1.263  13.423  13.092  1.7716  1.1599 -1.8065
 7688SOL    HW240675   1.179  13.532  13.153  0.1032 -1.4156  0.7513
 7689SOL     OW40676   4.281  10.137   6.643  0.5216  0.1694  0.4126
 7689SOL    HW140677   4.280  10.219   6.594  3.4731 -0.7250 -1.3542
 7689SOL    HW240678   4.306  10.162   6.732  0.5062  1.2592  0.1154
 7690SOL     OW40679  12.693  10.786  10.425  0.1826 -0.2138  0.1089
 7690SOL    HW140680  12.686  10.722  10.354 -1.0939 -0.5133  0.4686
 7690SOL    HW240681  12.664  10.869  10.385 -1.8647 -0.6458  0.5656
 7691SOL     OW40682   6.198   3.665   0.995  0.9429  0.0392 -0.4797
 7691SOL    HW140683   6.196   3.572   1.018 -0.0451  0.2395  0.3262
 7691SOL    HW240684   6.286   3.679   0.962  1.0988 -1.1956 -0.6563
 7692SOL     OW40685  11.755  11.972   8.892 -0.0255  0.2103  0.0302
 7692SOL    HW140686  11.835  12.017   8.921  0.0767 -0.0616  0.1714
 7692SOL    HW240687  11.697  12.043   8.863  0.1114  0.4411  0.3071
 7693SOL     OW40688  11.073   2.288   8.623  0.3434 -0.1883  0.0608
 7693SOL    HW140689  11.123   2.218   8.582  0.4576  0.2027 -0.4876
 7693SOL    HW240690  11.043   2.252   8.706 -0.6151 -1.3046 -0.7376
 7694SOL     OW40691  12.222   5.562   0.699  0.5604  0.0186  0.4186
 7694SOL    HW140692  12.235   5.532   0.609  0.6382  0.7870  0.1633
 7694SOL    HW240693  12.261   5.650   0.700  0.6517 -0.0262  1.2312
 7695SOL     OW40694  11.197   8.032  11.489  0.2664 -0.0663 -0.3709
 7695SOL    HW140695  11.189   7.992  11.403 -0.6094 -0.2130 -0.2359
 7695SOL    HW240696  11.287   8.063  11.494  0.6213 -0.9826 -0.9340
 7696SOL     OW40697   5.668  10.062   6.663  0.0219 -0.2739  0.1272
 7696SOL    HW140698   5.676   9.997   6.593 -1.3673  1.0486 -1.3631
 7696SOL    HW240699   5.580  10.050   6.697 -0.6935  1.5470 -0.9817
 7697SOL     OW40700   2.108   0.037   7.897 -0.0635  0.2056  0.5751
 7697SOL    HW140701   2.141  -0.052   7.916  0.1640  0.0922 -0.3318
 7697SOL    HW240702   2.172   0.095   7.940  0.7727 -0.0393 -0.3058
 7698SOL     OW40703   9.104   3.591   0.711 -0.3454  0.3899 -0.0850
 7698SOL    HW140704   9.131   3.627   0.795  0.2653 -1.3497  0.5016
 7698SOL    HW240705   9.185   3.580   0.662 -0.6393  0.8212 -0.6964
 7699SOL     OW40706   1.662   2.118   2.693  0.5989  0.5530  0.7484
 7699SOL    HW140707   1.568   2.100   2.693  0.9274 -1.4752  1.5396
 7699SOL    HW240708   1.675   2.179   2.765 -0.3427  2.6043 -0.7276
 7700SOL     OW40709   3.376  12.396  10.523  0.1668  0.1520  0.0913
 7700SOL    HW140710   3.343  12.433  10.605  2.0115  1.2987  0.3650
 7700SOL    HW240711   3.309  12.418  10.459 -1.1606 -0.4957  1.1921
 7701SOL     OW40712   1.658  11.124   6.967  0.2001 -0.0264  0.1013
 7701SOL    HW140713   1.631  11.070   7.041  0.4155 -0.0987  0.1271
 7701SOL    HW240714   1.698  11.201   7.007 -0.3354  0.2761  0.0687
 7702SOL     OW40715  11.566  10.192  10.385  0.1818 -0.3874  0.3420
 7702SOL    HW140716  11.631  10.162  10.450 -1.4029  0.6862  2.5622
 7702SOL    HW240717  11.596  10.280  10.361 -0.5972  0.2836  1.6950
 7703SOL     OW40718  10.338  12.723   4.930  0.2253  0.8144  0.4590
 7703SOL    HW140719  10.348  12.781   4.855 -0.6811  1.0422  0.5011
 7703SOL    HW240720  10.424  12.683   4.941  0.0606 -0.2134 -1.5062
 7704SOL     OW40721   0.348   3.045  13.079 -0.1789 -0.0683  0.5977
 7704SOL    HW140722   0.398   3.028  12.999  0.9905  1.2179  1.0087
 7704SOL    HW240723   0.366   3.137  13.099 -1.6108  0.0423  1.5543
 7705SOL     OW40724  12.132   0.018   1.154  0.0759  0.0669 -0.0160
 7705SOL    HW140725  12.163   0.106   1.135 -0.7652  0.1247 -1.2261
 7705SOL    HW240726  12.185  -0.040   1.099  0.9887 -0.2628  1.1619
 7706SOL     OW40727   2.928   5.552   8.442 -0.1086 -0.2518 -0.0173
 7706SOL    HW140728   2.844   5.509   8.455 -0.3758  0.3389  0.2585
 7706SOL    HW240729   2.906   5.636   8.401  0.3095  0.0870  0.4395
 7707SOL     OW40730   1.708   2.211   8.028  0.0001 -0.4144  0.2273
 7707SOL    HW140731   1.794   2.177   8.003  0.8945  0.1860  2.2563
 7707SOL    HW240732   1.714   2.305   8.009  0.8776  0.1444  2.9020
 7708SOL     OW40733  13.697   2.274   2.060  0.7499 -0.1096 -0.2422
 7708SOL    HW140734  13.649   2.302   2.138 -0.2123 -0.5864 -0.6482
 7708SOL    HW240735  13.744   2.195   2.088  1.1011  0.2103  0.0832
 7709SOL     OW40736  12.194   2.842   1.272  0.0700  0.5541  0.1368
 7709SOL    HW140737  12.195   2.916   1.333  0.2943  0.0527  0.7464
 7709SOL    HW240738  12.150   2.772   1.320 -0.8325  0.5148 -0.7149
 7710SOL     OW40739   1.609   4.970  12.648 -0.1549  0.1708  0.1913
 7710SOL    HW140740   1.536   4.923  12.688  0.6488 -0.1113  1.3747
 7710SOL    HW240741   1.650   4.905  12.590 -0.2198  0.0153  0.3211
 7711SOL     OW40742  13.899   1.576  13.790  0.1641 -0.1433 -0.7685
 7711SOL    HW140743  13.816   1.621  13.804  0.6985  0.2789  1.4669
 7711SOL    HW240744  13.887   1.490  13.829  1.4457  0.7587  1.8935
 7712SOL     OW40745  11.088  13.545   6.080 -0.0618 -0.6547  0.7937
 7712SOL    HW140746  11.090  13.503   5.994  1.1955 -0.0412  0.4969
 7712SOL    HW240747  11.130  13.630   6.065 -1.0343  0.0065  1.7355
 7713SOL     OW40748   2.814   5.235   2.168 -0.3734  0.1341  0.2005
 7713SOL    HW140749   2.798   5.328   2.153 -1.8347 -0.1179 -0.0121
 7713SOL    HW240750   2.750   5.211   2.235 -0.0394 -0.7309  0.2172
 7714SOL     OW40751  11.125   0.529  13.087 -0.3208 -0.2245  0.1664
 7714SOL    HW140752  11.143   0.597  13.152  0.9630 -0.8667  0.5284
 7714SOL    HW240753  11.078   0.462  13.136 -2.6288  0.8459 -0.4553
 7715SOL     OW40754   4.370  12.053  11.460 -0.1277  0.0471 -0.0432
 7715SOL    HW140755   4.311  11.998  11.409  0.3117 -1.4204  0.9678
 7715SOL    HW240756   4.390  12.127  11.403 -0.5689 -0.9576 -1.5348
 7716SOL     OW40757   6.254   2.177   5.384 -0.1872  0.1530 -0.6209
 7716SOL    HW140758   6.302   2.224   5.316  0.0558 -0.5653 -0.9565
 7716SOL    HW240759   6.165   2.212   5.379  0.6165  2.8218  1.1921
 7717SOL     OW40760   2.404   3.582   4.348 -0.0531 -0.0967 -0.4367
 7717SOL    HW140761   2.495   3.594   4.375 -0.5872  0.2530  1.3460
 7717SOL    HW240762   2.401   3.610   4.257  1.2101  1.9299  0.0808
 7718SOL     OW40763   2.327  10.154   3.375 -0.3582 -0.4758  0.1447
 7718SOL    HW140764   2.374  10.187   3.451 -1.4887 -0.8375  1.0326
 7718SOL    HW240765   2.367  10.069   3.356  0.3117 -0.1222 -0.0377
 7719SOL     OW40766  11.296   6.584   2.775 -0.2906 -0.2199 -0.2977
 7719SOL    HW140767  11.207   6.606   2.748 -0.5213 -1.4151 -0.5835
 7719SOL    HW240768  11.332   6.666   2.809 -1.4110  0.3384 -0.4078
 7720SOL     OW40769   5.310   9.348   3.775 -0.3519 -0.4296 -0.8339
 7720SOL    HW140770   5.403   9.329   3.788 -0.4055 -0.4260 -0.4297
 7720SOL    HW240771   5.305   9.383   3.686  0.3808  1.7588 -0.1023
 7721SOL     OW40772   0.685   7.854  11.622  0.2823  0.1639  0.3768
 7721SOL    HW140773   0.590   7.840  11.621  0.4066 -0.7328 -0.1005
 7721SOL    HW240774   0.722   7.766  11.626  1.1190  0.2957 -2.3779
 7722SOL     OW40775   8.656   2.412   7.750  0.0564  0.6294  0.1223
 7722SOL    HW140776   8.718   2.342   7.730 -2.2075 -1.4530 -0.0664
 7722SOL    HW240777   8.673   2.433   7.842  1.0789  0.1697  0.0534
 7723SOL     OW40778   3.921   6.233   6.195 -0.5100 -0.8873  0.0738
 7723SOL    HW140779   3.909   6.142   6.167  0.6129 -0.5362 -1.7090
 7723SOL    HW240780   3.976   6.272   6.127 -2.5369  1.6801 -0.2453
 7724SOL     OW40781  13.406   2.134  10.553  0.5054  0.1858  0.5667
 7724SOL    HW140782  13.336   2.118  10.490 -1.4470  0.8018  2.4826
 7724SOL    HW240783  13.461   2.201  10.511 -1.3033  1.3276 -0.0931
 7725SOL     OW40784   6.045   0.443   3.337  0.0771 -0.2187 -0.2120
 7725SOL    HW140785   6.010   0.427   3.424 -0.8888 -0.2957 -0.6068
 7725SOL    HW240786   6.050   0.357   3.296  3.3982 -0.6379  0.7716
 7726SOL     OW40787  12.311  12.351   1.553  0.1118  0.4682 -0.2639
 7726SOL    HW140788  12.286  12.437   1.520 -0.3179  0.9488  1.2295
 7726SOL    HW240789  12.407  12.355   1.557  0.1986  0.3017 -1.6167
 7727SOL     OW40790   0.056  13.350  12.040 -0.2099  0.2960 -0.0907
 7727SOL    HW140791   0.007  13.270  12.021  0.6104 -0.3863  0.5785
 7727SOL    HW240792   0.130  13.321  12.093 -0.5045  1.6629  1.1181
 7728SOL     OW40793   1.566   8.584  11.398  0.1421  0.0092  0.2976
 7728SOL    HW140794   1.650   8.550  11.368  1.2128  0.5529  2.5327
 7728SOL    HW240795   1.502   8.544  11.339  1.5973 -3.3439  0.7940
 7729SOL     OW40796   7.737   5.932   8.933 -0.1002  0.2819 -0.3591
 7729SOL    HW140797   7.734   5.836   8.929  1.3249  0.2349 -0.8799
 7729SOL    HW240798   7.716   5.960   8.843  1.7825  0.3463 -0.8173
 7730SOL     OW40799   3.500   2.631   1.496  0.1456  0.0746 -1.0857
 7730SOL    HW140800   3.533   2.632   1.586 -0.6862 -1.5174 -0.7245
 7730SOL    HW240801   3.565   2.680   1.446  0.1198  1.8915  0.5328
 7731SOL     OW40802  10.418  11.985   9.529  0.2725  0.2669  0.0357
 7731SOL    HW140803  10.359  12.028   9.590  0.1237  1.4078 -0.8645
 7731SOL    HW240804  10.476  11.933   9.583 -1.5582 -0.9055  0.9509
 7732SOL     OW40805   0.587   7.746   1.687 -0.2685  0.1375 -0.1420
 7732SOL    HW140806   0.571   7.658   1.721  0.3192  0.0464 -0.0895
 7732SOL    HW240807   0.501   7.788   1.687 -0.4162 -0.1507  0.6511
 7733SOL     OW40808   7.542   2.149   2.545  0.2749  0.3966  0.2656
 7733SOL    HW140809   7.555   2.062   2.508 -1.2756  0.8829 -1.5949
 7733SOL    HW240810   7.494   2.134   2.626  1.1834 -0.5304  0.6616
 7734SOL     OW40811   0.220   5.820  11.833  0.2786  0.4169 -0.2137
 7734SOL    HW140812   0.184   5.796  11.918 -1.2534 -0.8094 -1.1479
 7734SOL    HW240813   0.312   5.793  11.838 -0.1409 -1.0011  0.5744
 7735SOL     OW40814   8.073  11.117   3.446 -0.8827  0.2990 -0.2997
 7735SOL    HW140815   8.102  11.123   3.537  3.0039 -0.0253 -1.3403
 7735SOL    HW240816   8.112  11.193   3.403  2.1282 -2.3329 -2.6729
 7736SOL     OW40817   7.249   2.677  12.870 -0.6036  0.2607  0.0040
 7736SOL    HW140818   7.263   2.734  12.946  1.1075 -1.3367  0.9873
 7736SOL    HW240819   7.306   2.712  12.802 -0.7638  0.6260  0.0547
 7737SOL     OW40820   2.189   5.189   5.704 -0.2159  0.0466  0.2361
 7737SOL    HW140821   2.236   5.133   5.765  0.7936  1.4421  0.8063
 7737SOL    HW240822   2.258   5.234   5.654 -1.0083 -0.1036 -1.0286
 7738SOL     OW40823   9.151   2.902   4.608  0.1283  0.8135  0.2898
 7738SOL    HW140824   9.234   2.949   4.616  0.7765 -0.1132 -0.7470
 7738SOL    HW240825   9.143   2.883   4.515 -1.2202  0.8171  0.3921
 7739SOL     OW40826  12.689   9.450   4.062 -0.2587 -0.1170 -0.2675
 7739SOL    HW140827  12.595   9.432   4.070 -0.3273  0.2887 -0.1188
 7739SOL    HW240828  12.695   9.545   4.069 -0.4764  0.6232 -5.8995
 7740SOL     OW40829   0.481   0.039  13.704  0.4291 -0.4438 -0.0908
 7740SOL    HW140830   0.527  -0.042  13.680 -1.3620 -1.5989  0.1674
 7740SOL    HW240831   0.541   0.109  13.678  1.0378 -1.7742 -2.5365
 7741SOL     OW40832   8.220   5.880   3.966  0.3993  0.3238 -0.2438
 7741SOL    HW140833   8.218   5.961   3.916  1.1342  0.1853 -0.5242
 7741SOL    HW240834   8.261   5.904   4.050  0.2720  0.3209 -0.1811
 7742SOL     OW40835   7.719   6.887   7.121 -0.4739  0.5541  0.1405
 7742SOL    HW140836   7.749   6.830   7.051  0.7030 -0.2117  1.2326
 7742SOL    HW240837   7.625   6.897   7.105 -0.1100  1.0849 -1.9953
 7743SOL     OW40838   4.219  12.038   6.763  1.2457 -0.1609 -0.1977
 7743SOL    HW140839   4.225  12.017   6.670  2.3101  0.7353 -0.3609
 7743SOL    HW240840   4.193  11.957   6.805  0.2737 -0.4548 -1.3335
 7744SOL     OW40841   9.513   9.103   3.205  0.1672 -0.6799 -0.4831
 7744SOL    HW140842   9.477   9.073   3.122 -1.1611 -1.1086  0.2065
 7744SOL    HW240843   9.587   9.159   3.182 -1.8563  1.4941 -2.0365
 7745SOL     OW40844  11.978   1.647   6.144  0.7652 -0.0756 -0.7051
 7745SOL    HW140845  11.911   1.657   6.212  0.3250 -1.7656 -0.8464
 7745SOL    HW240846  11.939   1.688   6.066  0.6112  0.4542 -0.3554
 7746SOL     OW40847   8.160   2.070   3.855  0.2918  0.2220  0.9071
 7746SOL    HW140848   8.163   2.147   3.912  4.1801 -0.0794  1.3715
 7746SOL    HW240849   8.161   2.105   3.766 -0.4961  0.6948  1.0826
 7747SOL     OW40850   6.580  11.333   6.868  0.0752  0.2215  0.3022
 7747SOL    HW140851   6.495  11.311   6.830 -0.3761  0.1862  1.3131
 7747SOL    HW240852   6.562  11.350   6.960  1.0312  1.0342  0.3633
 7748SOL     OW40853  11.950   6.138   9.027 -0.1445 -0.4049  0.2793
 7748SOL    HW140854  12.017   6.099   8.972 -0.2560  0.8967 -0.8009
 7748SOL    HW240855  11.955   6.088   9.109  2.4641 -0.0232  0.4322
 7749SOL     OW40856  10.553   0.764   8.756 -0.1292  0.2324  0.1688
 7749SOL    HW140857  10.621   0.822   8.791 -0.0413  0.4215 -0.3144
 7749SOL    HW240858  10.587   0.735   8.671 -0.1930 -0.4956  0.3816
 7750SOL     OW40859   3.711  13.948   4.169 -0.6234  0.0063 -0.0239
 7750SOL    HW140860   3.662  13.886   4.114 -2.0265 -0.1902  1.3722
 7750SOL    HW240861   3.716  13.905   4.255  0.1160  0.9847  0.4440
 7751SOL     OW40862   2.848   0.299   8.926 -0.0401  0.4754  0.6884
 7751SOL    HW140863   2.933   0.257   8.912  0.0143  0.8333 -0.1436
 7751SOL    HW240864   2.784   0.233   8.900  0.0649  1.2434 -1.8284
 7752SOL     OW40865  12.583   0.426  11.160 -0.0757 -0.0769 -0.1905
 7752SOL    HW140866  12.513   0.421  11.225 -0.7093 -0.6828 -0.8936
 7752SOL    HW240867  12.630   0.343  11.168  0.8494  0.4937  0.5648
 7753SOL     OW40868   1.258   2.932   5.492 -0.0965  0.6243 -0.3118
 7753SOL    HW140869   1.302   2.848   5.493  0.9446  1.1484  1.2251
 7753SOL    HW240870   1.324   2.994   5.463 -0.4213  1.1180 -0.0239
 7754SOL     OW40871   3.034  10.557   3.425 -0.0898 -0.0358  0.5875
 7754SOL    HW140872   3.012  10.613   3.351 -1.7739 -1.2392  0.1055
 7754SOL    HW240873   3.123  10.528   3.408  0.5120  1.8190  0.4387
 7755SOL     OW40874   4.881   2.400   8.863 -0.0545  0.1561 -0.2476
 7755SOL    HW140875   4.903   2.483   8.822 -0.5702  1.1177  1.3460
 7755SOL    HW240876   4.959   2.376   8.913 -0.2751  0.2197  0.1301
 7756SOL     OW40877   9.040  12.949   6.372  0.2272 -0.0590 -0.0042
 7756SOL    HW140878   9.054  13.015   6.304 -0.7085  0.9541  0.7531
 7756SOL    HW240879   9.093  12.979   6.446 -1.0991  0.5163  0.7542
 7757SOL     OW40880   0.813   9.407   3.998  0.1094  0.1944  0.5097
 7757SOL    HW140881   0.814   9.431   4.091  0.7225  1.9276  0.0857
 7757SOL    HW240882   0.721   9.410   3.973 -0.0268  0.0210  0.9769
 7758SOL     OW40883   8.456  14.032   5.734 -0.0614  0.4443  0.0618
 7758SOL    HW140884   8.392  14.101   5.717 -1.2321 -0.4459  0.7518
 7758SOL    HW240885   8.526  14.049   5.670 -2.0796  0.0109 -2.4294
 7759SOL     OW40886   6.190  12.189   2.435 -0.3301 -0.0957 -0.0459
 7759SOL    HW140887   6.143  12.230   2.507  2.0479  1.3102  0.8477
 7759SOL    HW240888   6.204  12.099   2.464 -1.4233 -0.2108  0.1626
 7760SOL     OW40889   7.395  12.783   7.457 -0.0248  0.1452  0.5797
 7760SOL    HW140890   7.477  12.734   7.460  0.0132  0.1953  0.3656
 7760SOL    HW240891   7.401  12.835   7.377 -0.9748 -1.0898 -0.3316
 7761SOL     OW40892   7.685   3.882   3.237  0.8151  0.2972  0.2225
 7761SOL    HW140893   7.741   3.804   3.233  1.5424  0.8041  0.4011
 7761SOL    HW240894   7.648   3.879   3.325 -1.3906 -1.3507 -0.6664
 7762SOL     OW40895   8.766   4.092   2.063 -0.4475  1.1100  0.1607
 7762SOL    HW140896   8.786   4.077   1.971  1.6582  1.0911  0.5690
 7762SOL    HW240897   8.796   4.012   2.107  0.9602  2.1188  1.1164
 7763SOL     OW40898  11.373   1.643   8.469  0.8093 -0.1500  0.6661
 7763SOL    HW140899  11.307   1.639   8.539  0.0474 -2.2032 -0.1140
 7763SOL    HW240900  11.457   1.644   8.516  0.3055  1.0547  1.6305
 7764SOL     OW40901  12.090   8.069   7.604  0.0408  0.3046 -0.4157
 7764SOL    HW140902  12.170   8.017   7.593 -0.1561 -0.5495  1.6957
 7764SOL    HW240903  12.025   8.006   7.633 -0.8475  1.3634 -0.0685
 7765SOL     OW40904   6.168  12.795   0.205 -0.0424 -0.0321  0.2236
 7765SOL    HW140905   6.205  12.707   0.195  0.9626  0.4660 -0.6567
 7765SOL    HW240906   6.194  12.821   0.294  0.6495 -0.1818  0.0700
 7766SOL     OW40907  10.074  10.436  11.868  0.1072 -0.1428  0.6138
 7766SOL    HW140908  10.161  10.461  11.900 -0.6931  2.0145  1.2779
 7766SOL    HW240909  10.015  10.502  11.904 -1.6652 -0.8892 -0.7533
 7767SOL     OW40910   8.133   5.517   5.598 -0.2167  0.2695 -0.2270
 7767SOL    HW140911   8.154   5.518   5.505 -1.1592  0.2497 -0.4462
 7767SOL    HW240912   8.210   5.555   5.640  0.5848 -0.5161 -0.9259
 7768SOL     OW40913   3.727   5.383   6.286  0.0041 -0.0339 -0.7398
 7768SOL    HW140914   3.698   5.297   6.254 -0.2786 -0.2856  0.1427
 7768SOL    HW240915   3.806   5.402   6.237  1.6305 -2.0589  0.9186
 7769SOL     OW40916   0.339   1.262   0.015  0.0607 -0.0536  0.6011
 7769SOL    HW140917   0.370   1.212  -0.060 -0.6955  0.7025 -0.2455
 7769SOL    HW240918   0.408   1.326   0.033  0.5675 -0.7159  1.0270
 7770SOL     OW40919   1.279   9.796  11.822 -0.1861 -0.3571  0.4380
 7770SOL    HW140920   1.220   9.779  11.748  0.1548  1.5794 -0.3230
 7770SOL    HW240921   1.280   9.713  11.870 -1.8748 -1.0973 -0.6852
 7771SOL     OW40922  13.344   8.375   0.112 -0.0101 -0.4747 -0.1337
 7771SOL    HW140923  13.266   8.320   0.102 -0.1114 -0.2035 -0.9758
 7771SOL    HW240924  13.318   8.443   0.174 -1.6017  1.5692 -2.7992
 7772SOL     OW40925  11.698   2.731   6.407 -0.0663 -0.2348  0.2684
 7772SOL    HW140926  11.757   2.791   6.360  0.8022 -0.7912  0.6309
 7772SOL    HW240927  11.678   2.777   6.489 -0.9144  0.3711 -0.2631
 7773SOL     OW40928   1.648   7.950   5.489 -0.0478 -0.2462 -0.0127
 7773SOL    HW140929   1.592   7.997   5.428 -1.1368 -2.4214 -0.8152
 7773SOL    HW240930   1.613   7.971   5.576 -0.7355  0.1302 -0.3782
 7774SOL     OW40931   6.129   0.037   2.566  0.3233 -0.4235  0.4038
 7774SOL    HW140932   6.120   0.067   2.657  1.7418 -2.2136  1.1904
 7774SOL    HW240933   6.164   0.114   2.520  0.1020  0.3548  1.4856
 7775SOL     OW40934  10.184  10.013  11.639  0.1635 -0.0774  0.1475
 7775SOL    HW140935  10.240  10.052  11.572  0.2480  0.5639  0.5758
 7775SOL    HW240936  10.133  10.087  11.673  0.7622 -0.2067  1.4046
 7776SOL     OW40937   1.675   2.408   9.615 -0.2818 -0.6156  0.1376
 7776SOL    HW140938   1.625   2.421   9.695  1.2871 -2.7612  1.5739
 7776SOL    HW240939   1.752   2.464   9.625 -0.3888 -0.4027 -0.1923
 7777SOL     OW40940  13.206  11.518   7.831 -0.0232  0.4247 -0.3994
 7777SOL    HW140941  13.124  11.562   7.853 -0.0706 -0.4022  1.2501
 7777SOL    HW240942  13.231  11.554   7.746 -0.8359  2.4793  0.1834
 7778SOL     OW40943   7.792   8.100   1.604 -0.1942  0.2263  0.1709
 7778SOL    HW140944   7.780   8.040   1.677 -0.2058 -0.1073 -0.1041
 7778SOL    HW240945   7.863   8.159   1.632 -1.3777  1.2397  1.1825
 7779SOL     OW40946   9.011   9.486   7.033  0.4503 -0.4260 -0.2761
 7779SOL    HW140947   9.076   9.537   6.984  0.3674 -1.2455 -1.2770
 7779SOL    HW240948   9.010   9.401   6.989 -0.6099 -0.7426  0.3368
 7780SOL     OW40949  10.521   0.568   0.332 -0.3473  0.6303  0.3893
 7780SOL    HW140950  10.568   0.493   0.294 -1.3536  0.0228  0.2935
 7780SOL    HW240951  10.570   0.589   0.411  0.0518 -0.0295  0.3277
 7781SOL     OW40952   0.816  13.476  13.618  0.0890  0.1048 -0.5488
 7781SOL    HW140953   0.847  13.422  13.691  0.4856  0.4848 -0.4266
 7781SOL    HW240954   0.757  13.419  13.569 -1.1848  0.2181  0.7620
 7782SOL     OW40955   2.726  13.231  12.969  0.6493  0.3372 -0.5577
 7782SOL    HW140956   2.803  13.276  13.004  1.6921 -0.1120 -2.2069
 7782SOL    HW240957   2.667  13.302  12.943  0.3415  0.6820  0.9878
 7783SOL     OW40958  11.035   6.044   8.389  0.1417  0.1115 -0.2527
 7783SOL    HW140959  11.121   6.025   8.425  0.5809  2.0680 -0.2045
 7783SOL    HW240960  11.029   6.139   8.388 -2.3510  0.0237  0.5257
 7784SOL     OW40961   7.689   7.399   7.880  0.5703 -0.0639 -0.0920
 7784SOL    HW140962   7.637   7.320   7.875  0.8603 -0.2027 -1.0849
 7784SOL    HW240963   7.673   7.433   7.968 -0.9927 -0.2238 -0.2999
 7785SOL     OW40964   0.261  10.140  10.744 -0.6382  0.2733  0.5121
 7785SOL    HW140965   0.333  10.111  10.688  0.6560  0.0860  2.1988
 7785SOL    HW240966   0.254  10.234  10.728 -0.5489  0.1580 -0.2334
 7786SOL     OW40967   8.725   1.201   0.705  0.3591 -0.2511 -0.2214
 7786SOL    HW140968   8.644   1.174   0.747  1.2224  0.3616  1.9480
 7786SOL    HW240969   8.725   1.296   0.711  0.7172 -0.1669 -1.2726
 7787SOL     OW40970  13.580  13.876   1.420 -0.9479 -0.0616 -0.5350
 7787SOL    HW140971  13.633  13.868   1.499 -0.5747  0.9269 -0.6747
 7787SOL    HW240972  13.523  13.799   1.421  0.6776 -1.3178 -0.5346
 7788SOL     OW40973   1.447   4.667   1.669  0.1412  0.1900 -0.2840
 7788SOL    HW140974   1.378   4.669   1.603  0.7489  1.8809 -0.9429
 7788SOL    HW240975   1.515   4.725   1.634  2.2290 -1.9448  0.0121
 7789SOL     OW40976   6.812   1.248   8.433  0.1913 -0.0672  0.6169
 7789SOL    HW140977   6.810   1.153   8.438  1.4634 -0.2643 -1.6502
 7789SOL    HW240978   6.905   1.271   8.439  0.1415  0.8259 -1.3261
 7790SOL     OW40979   3.737   6.671  12.084 -0.5552 -0.7617  0.0051
 7790SOL    HW140980   3.735   6.631  12.171  0.9398  0.7037  0.7726
 7790SOL    HW240981   3.821   6.717  12.080 -1.7861  1.6012 -1.1031
 7791SOL     OW40982  10.332   4.825  10.377  0.3525  0.4346  0.3731
 7791SOL    HW140983  10.266   4.894  10.368  1.7443  1.9106  1.0402
 7791SOL    HW240984  10.281   4.743  10.373 -1.1847  1.3932 -2.0186
 7792SOL     OW40985  11.040   9.821   1.127  0.2000  0.4231 -0.0209
 7792SOL    HW140986  10.961   9.847   1.173 -0.8854 -0.7316 -1.1520
 7792SOL    HW240987  11.083   9.904   1.104 -0.5622  1.0525  0.7680
 7793SOL     OW40988  14.033   9.558  11.804  0.6761  0.0946  0.1513
 7793SOL    HW140989  13.939   9.563  11.791  0.6273 -0.4754  0.2481
 7793SOL    HW240990  14.053   9.625  11.870  0.1796 -0.5155  0.9400
 7794SOL     OW40991  13.213   8.939   9.898  0.7253 -0.0486  0.2141
 7794SOL    HW140992  13.177   9.021   9.931  1.9854 -0.2511  2.2643
 7794SOL    HW240993  13.289   8.966   9.845  0.1644  0.1619 -0.4971
 7795SOL     OW40994  11.969   5.234   3.058 -0.3240 -0.5985  0.7483
 7795SOL    HW140995  11.876   5.229   3.077 -0.9430  4.6605  0.5448
 7795SOL    HW240996  11.974   5.260   2.966  1.5621 -2.9247  0.1015
 7796SOL     OW40997   6.317   2.676   8.997 -0.5521  0.4925  0.1632
 7796SOL    HW140998   6.348   2.624   9.071  1.4126  1.0150 -0.2320
 7796SOL    HW240999   6.332   2.767   9.024 -1.1700  0.7361 -0.3116
 7797SOL     OW41000  12.474   4.457   5.780  0.0903  0.3489 -0.0917
 7797SOL    HW141001  12.525   4.536   5.799  2.0041 -1.1857  1.6618
 7797SOL    HW241002  12.477   4.407   5.862 -3.1778 -0.4671 -0.3394
 7798SOL     OW41003  12.897   8.124   3.846 -0.2489 -0.4825  0.4215
 7798SOL    HW141004  12.957   8.190   3.882  1.0453  0.3404 -2.8642
 7798SOL    HW241005  12.950   8.046   3.836 -0.5970 -0.7040  0.2980
 7799SOL     OW41006   6.094   5.942   0.066  0.3262  0.2993 -0.6179
 7799SOL    HW141007   6.127   5.856   0.039 -1.9264 -1.0930  0.7589
 7799SOL    HW241008   6.069   5.931   0.157 -0.9080  2.1591 -0.6675
 7800SOL     OW41009   2.181   2.501  12.616 -0.7682  0.1922 -0.2020
 7800SOL    HW141010   2.147   2.565  12.678  0.1571  0.2922  0.2258
 7800SOL    HW241011   2.246   2.452  12.666  0.1009  0.3715 -1.1204
 7801SOL     OW41012   5.148  12.823   9.707  0.1210 -0.3525 -0.1086
 7801SOL    HW141013   5.235  12.802   9.742 -0.3455 -1.5797  0.3675
 7801SOL    HW241014   5.132  12.756   9.641  0.0142  0.5817 -1.0638
 7802SOL     OW41015  10.600   5.825  12.617 -0.2573 -0.4159 -0.3995
 7802SOL    HW141016  10.560   5.826  12.704 -1.0009 -0.2405 -0.7324
 7802SOL    HW241017  10.674   5.765  12.625  0.9403  1.1307  0.8951
 7803SOL     OW41018   1.309   4.528   5.957 -0.2137  0.3430 -0.4194
 7803SOL    HW141019   1.261   4.467   6.013  0.5647  0.8029  0.7916
 7803SOL    HW241020   1.261   4.611   5.967 -0.6387  0.2009 -1.2116
 7804SOL     OW41021   9.077   0.797   6.509 -0.4012 -0.3157 -0.4701
 7804SOL    HW141022   9.011   0.781   6.441 -1.7401 -1.3753  0.9985
 7804SOL    HW241023   9.026   0.823   6.586  0.9622 -0.4204  0.5010
 7805SOL     OW41024   0.133   6.258   7.269  0.4969 -0.4246 -0.3028
 7805SOL    HW141025   0.074   6.254   7.194 -0.8426  0.8080  0.6183
 7805SOL    HW241026   0.076   6.271   7.344  1.7583 -2.1253  1.0477
 7806SOL     OW41027   3.898   2.079   5.789  0.6316 -0.1990 -0.3517
 7806SOL    HW141028   3.851   2.018   5.846  0.3360  1.0787  0.8409
 7806SOL    HW241029   3.893   2.040   5.702 -0.9230 -1.0742  0.0987
 7807SOL     OW41030   7.741  13.675   4.278 -0.0034 -0.0603 -0.1944
 7807SOL    HW141031   7.802  13.668   4.205  1.8727 -0.2166  1.3087
 7807SOL    HW241032   7.682  13.600   4.267  1.0290 -0.8024 -0.8786
 7808SOL     OW41033  13.740   4.623   0.031  0.0109  0.2152  0.0579
 7808SOL    HW141034  13.770   4.549   0.083 -1.6030 -0.1920  0.4921
 7808SOL    HW241035  13.753   4.596  -0.060 -1.7307 -1.1850  0.1735
 7809SOL     OW41036  11.714   1.907   2.765  0.2683 -0.4193  0.5522
 7809SOL    HW141037  11.769   1.944   2.696 -0.4227 -0.2899  0.0622
 7809SOL    HW241038  11.772   1.847   2.812  0.9161 -0.0413  0.2530
 7810SOL     OW41039   9.575   8.515   8.178 -0.1111 -0.3767 -0.0328
 7810SOL    HW141040   9.643   8.580   8.198  1.1737 -1.7422  0.1724
 7810SOL    HW241041   9.551   8.531   8.087  0.3211  0.2536 -0.0363
 7811SOL     OW41042  11.380   4.791  10.706  0.5292  0.0471 -0.1074
 7811SOL    HW141043  11.355   4.797  10.613  0.0329  0.9077  0.0673
 7811SOL    HW241044  11.462   4.741  10.706  1.4107  1.4289 -1.1646
 7812SOL     OW41045  10.407   6.328   3.710  0.3123  0.1490  0.2120
 7812SOL    HW141046  10.376   6.286   3.629 -0.6939  1.1426  0.0562
 7812SOL    HW241047  10.496   6.356   3.690 -0.4514  1.8116 -1.1621
 7813SOL     OW41048  13.197   2.326   2.757 -0.4784  0.2451 -0.0667
 7813SOL    HW141049  13.194   2.332   2.853 -0.6238 -0.8959  0.0074
 7813SOL    HW241050  13.107   2.307   2.731 -0.5084  0.8898 -0.4749
 7814SOL     OW41051   3.055   0.199  10.596  0.7001  0.1268  0.1630
 7814SOL    HW141052   3.089   0.182  10.683 -0.0387 -1.4316  0.1952
 7814SOL    HW241053   3.066   0.116  10.549  3.2175  1.5418 -2.0196
 7815SOL     OW41054  14.010   7.435   2.895  0.5788  0.4401 -0.0125
 7815SOL    HW141055  13.943   7.494   2.860  0.4596 -0.0107 -0.5690
 7815SOL    HW241056  14.069   7.419   2.821  0.6052 -0.1325  0.1231
 7816SOL     OW41057   5.977   3.644  13.807 -0.0163 -0.6385  0.2611
 7816SOL    HW141058   6.060   3.646  13.759 -0.9417 -1.6723 -1.4876
 7816SOL    HW241059   5.938   3.730  13.791  0.4135 -0.3812  0.5655
 7817SOL     OW41060   3.524   9.542   7.014 -0.1069 -0.4610 -0.1276
 7817SOL    HW141061   3.477   9.626   7.016  3.7480  1.8976  0.4351
 7817SOL    HW241062   3.522   9.512   7.105  1.5752  0.9903  0.4344
 7818SOL     OW41063   8.707  10.153   5.673 -0.1869  0.2663 -0.0394
 7818SOL    HW141064   8.702  10.243   5.638  0.6198  0.7559  1.0611
 7818SOL    HW241065   8.730  10.164   5.765 -0.2918 -1.0754  0.1662
 7819SOL     OW41066   0.023   0.478   5.350  0.7089  0.2716 -0.2531
 7819SOL    HW141067   0.082   0.451   5.279  1.5827  0.6500  0.3091
 7819SOL    HW241068   0.076   0.537   5.404 -0.8116  2.3872 -0.9115
 7820SOL     OW41069   9.473   6.037   3.870  0.7136  0.0219 -0.1926
 7820SOL    HW141070   9.460   6.061   3.962  1.1325  0.5899 -0.2734
 7820SOL    HW241071   9.486   6.121   3.825  0.1443 -0.2215 -0.8339
 7821SOL     OW41072   1.825   1.003   9.665 -0.4283  0.0007 -0.2422
 7821SOL    HW141073   1.764   1.014   9.593 -0.1261  0.9950 -0.3640
 7821SOL    HW241074   1.885   1.077   9.658  0.0543 -0.2846  0.5938
 7822SOL     OW41075   6.791  13.057   9.400  0.9118  0.0825 -0.2490
 7822SOL    HW141076   6.723  13.124   9.393  1.2748  0.4481 -0.3324
 7822SOL    HW241077   6.795  13.017   9.314 -0.1120 -0.8546  0.1133
 7823SOL     OW41078   5.574   3.252   1.299  0.1118 -0.2013  0.0027
 7823SOL    HW141079   5.595   3.236   1.391 -0.6857  1.5973  0.5367
 7823SOL    HW241080   5.484   3.219   1.289  0.2774 -0.5975 -0.2018
 7824SOL     OW41081   8.395   8.486   7.375 -0.2764  0.2154 -0.0635
 7824SOL    HW141082   8.462   8.534   7.424  0.3245  0.7064 -1.3326
 7824SOL    HW241083   8.434   8.399   7.362  0.8206  0.9461 -2.0959
 7825SOL     OW41084   2.876  13.338   5.522 -0.1863  0.3376 -0.2659
 7825SOL    HW141085   2.964  13.374   5.536  0.2702 -0.5896 -0.6046
 7825SOL    HW241086   2.887  13.243   5.535 -1.4632  0.3478  1.1689
 7826SOL     OW41087  13.537   0.718   9.118  0.4450  0.0537 -0.0487
 7826SOL    HW141088  13.497   0.632   9.135 -3.1112  1.2535 -1.3816
 7826SOL    HW241089  13.593   0.704   9.041  1.1025 -1.3237  0.6513
 7827SOL     OW41090   1.235   1.867  13.780  0.1955  0.4726  0.2749
 7827SOL    HW141091   1.271   1.802  13.719 -1.6632 -0.4592  0.1056
 7827SOL    HW241092   1.230   1.820  13.863 -0.7228  0.5301  0.2593
 7828SOL     OW41093   0.607  10.269   3.236 -0.4088 -0.3890 -0.2305
 7828SOL    HW141094   0.566  10.304   3.315 -0.5008 -0.6142 -0.1774
 7828SOL    HW241095   0.669  10.336   3.209  0.7494 -0.9755  0.8972
 7829SOL     OW41096   0.134   0.524   9.038 -0.4373  0.1955 -0.5905
 7829SOL    HW141097   0.191   0.448   9.042 -0.2383  0.4030  0.9938
 7829SOL    HW241098   0.172   0.579   8.970  1.4512  0.4634  0.6115
 7830SOL     OW41099   8.248   6.897   8.310 -0.0058  0.4841  0.0661
 7830SOL    HW141100   8.279   6.940   8.231 -0.6186 -1.5251 -1.3539
 7830SOL    HW241101   8.327   6.866   8.353  0.2521 -1.1978 -1.4886
 7831SOL     OW41102   7.949   6.333  11.946 -0.0539 -0.3375  0.0267
 7831SOL    HW141103   7.927   6.255  11.997  2.0150 -0.5626  0.6638
 7831SOL    HW241104   7.867   6.358  11.903 -1.9116 -0.1605  3.3834
 7832SOL     OW41105   7.463   1.901  10.955 -0.0077 -0.5144  0.5604
 7832SOL    HW141106   7.417   1.982  10.933 -0.7258 -0.8291  0.8821
 7832SOL    HW241107   7.402   1.831  10.931  0.8455 -0.9872 -0.2806
 7833SOL     OW41108  11.262   2.331  12.442 -0.0063  0.1349 -0.6782
 7833SOL    HW141109  11.243   2.340  12.535  0.0045  2.8934 -0.8734
 7833SOL    HW241110  11.268   2.236  12.428  0.0156 -0.3537  2.1013
 7834SOL     OW41111  12.058   5.494   3.228  0.3495 -0.4522  0.4490
 7834SOL    HW141112  11.991   5.448   3.176 -1.5683  1.0095  1.4904
 7834SOL    HW241113  12.089   5.564   3.171 -0.3218 -0.0483  0.5717
 7835SOL     OW41114   4.725   8.023  11.192 -0.0130  0.1647  0.4841
 7835SOL    HW141115   4.746   7.944  11.142  2.2177  0.2366  1.1865
 7835SOL    HW241116   4.655   8.065  11.143 -0.8544 -1.9417 -0.2259
 7836SOL     OW41117   1.721  12.145  12.724 -0.0914  0.0412  0.3637
 7836SOL    HW141118   1.698  12.232  12.757  0.4126  0.4646 -0.3883
 7836SOL    HW241119   1.792  12.116  12.781 -0.1930  0.1530  0.5527
 7837SOL     OW41120  10.570   1.579   1.073  0.0370 -0.1051  0.5698
 7837SOL    HW141121  10.626   1.592   1.149 -0.8308  0.9478  1.0721
 7837SOL    HW241122  10.484   1.559   1.110 -0.5896  1.2408 -0.0921
 7838SOL     OW41123   1.670  11.370  10.892  0.3517  0.2965  0.2212
 7838SOL    HW141124   1.656  11.347  10.984  1.0461 -1.3559 -0.0413
 7838SOL    HW241125   1.758  11.337  10.872 -0.0659 -0.0079 -1.2111
 7839SOL     OW41126  11.489   0.893   2.961 -0.3663 -0.2467 -0.0169
 7839SOL    HW141127  11.433   0.858   2.891 -0.5330 -3.0980  1.4175
 7839SOL    HW241128  11.481   0.830   3.032  2.2180  0.9286  1.4473
 7840SOL     OW41129   3.521  10.309   9.143  0.9283 -0.0456 -0.0116
 7840SOL    HW141130   3.611  10.277   9.148  0.3364 -1.6525  3.1194
 7840SOL    HW241131   3.515  10.375   9.213 -0.4307 -0.2583  0.0951
 7841SOL     OW41132   9.863   3.369   7.849  0.1088  0.0247  0.5355
 7841SOL    HW141133   9.875   3.401   7.760 -0.0450  1.4089  0.9845
 7841SOL    HW241134   9.852   3.274   7.840  0.8193  0.0558 -0.8355
 7842SOL     OW41135   1.785  11.499   9.656  0.8839 -0.3695 -0.0843
 7842SOL    HW141136   1.775  11.419   9.605  1.6800 -0.3014 -0.3614
 7842SOL    HW241137   1.869  11.535   9.628  0.3588  0.7663 -0.2416
 7843SOL     OW41138  13.617   3.224  13.508 -0.3784 -0.2903 -0.0999
 7843SOL    HW141139  13.574   3.237  13.423  0.4839  0.2164 -0.4741
 7843SOL    HW241140  13.666   3.305  13.522 -0.9411 -0.1390  1.1550
 7844SOL     OW41141   5.845  13.980   0.906 -0.3187 -0.2583 -0.0560
 7844SOL    HW141142   5.860  13.919   0.834 -0.5244 -0.3323 -0.0358
 7844SOL    HW241143   5.750  13.991   0.909 -0.2594  0.3563 -0.3079
 7845SOL     OW41144   1.577   7.885   6.381  0.3182 -0.0922  0.3673
 7845SOL    HW141145   1.539   7.875   6.294  1.8856 -2.6282 -0.1438
 7845SOL    HW241146   1.502   7.887   6.440 -0.7825  1.6574 -1.0007
 7846SOL     OW41147  12.986   8.077   3.555 -0.0434 -0.2303  0.1121
 7846SOL    HW141148  13.079   8.102   3.553 -0.7567  2.9892  0.5741
 7846SOL    HW241149  12.960   8.092   3.646 -0.9994 -1.1893  0.0028
 7847SOL     OW41150   8.117   6.503   8.780  0.3770  0.2052  0.6473
 7847SOL    HW141151   8.183   6.442   8.813 -0.2085 -0.6059  0.3648
 7847SOL    HW241152   8.100   6.473   8.690 -0.5889  0.2146  0.8218
 7848SOL     OW41153  13.965  11.638  10.150  0.3270  0.2137  0.3771
 7848SOL    HW141154  14.060  11.635  10.149  0.3217  0.0872  0.0896
 7848SOL    HW241155  13.940  11.581  10.224  0.4343 -1.0913 -0.5628
 7849SOL     OW41156  11.203   5.086   1.092 -0.4653  0.0659  0.4351
 7849SOL    HW141157  11.158   5.100   1.009 -1.5872  1.3445  1.2303
 7849SOL    HW241158  11.289   5.126   1.080 -0.3685 -0.3468 -0.3174
 7850SOL     OW41159   4.084   8.736  12.604 -0.8166 -0.0993 -0.2690
 7850SOL    HW141160   4.049   8.748  12.516 -0.7116  1.3000 -0.1469
 7850SOL    HW241161   4.024   8.783  12.660  0.5852  1.3581  0.0760
 7851SOL     OW41162   7.556   9.682  13.071  0.0654  0.1796  0.2902
 7851SOL    HW141163   7.497   9.726  13.011  0.8396  0.3113 -0.3784
 7851SOL    HW241164   7.548   9.731  13.153 -0.2809  0.5686  0.0261
 7852SOL     OW41165   8.186  12.042   6.009 -1.1625  0.0847 -0.0616
 7852SOL    HW141166   8.281  12.032   6.019 -1.4719 -1.7608  1.8755
 7852SOL    HW241167   8.175  12.097   5.932  1.5145  1.9241  0.7386
 7853SOL     OW41168  10.568   9.085   5.890  0.5778 -0.2117 -0.5577
 7853SOL    HW141169  10.595   9.111   5.978  0.5982  0.8435 -0.8554
 7853SOL    HW241170  10.648   9.093   5.838  0.2850  0.4605 -0.9247
 7854SOL     OW41171   5.451  12.891   5.243  0.0279  0.0360  0.8678
 7854SOL    HW141172   5.403  12.853   5.169  1.3072 -1.5610  0.8109
 7854SOL    HW241173   5.383  12.910   5.308 -0.7362 -1.9018  0.6951
 7855SOL     OW41174  13.476   8.190   8.300  0.3675  0.2413 -0.1322
 7855SOL    HW141175  13.478   8.275   8.256 -2.6828  0.0025 -1.0039
 7855SOL    HW241176  13.386   8.159   8.288  1.0186 -2.5569  1.2567
 7856SOL     OW41177  12.138   3.840   3.794  0.5070  0.4778 -0.7706
 7856SOL    HW141178  12.187   3.760   3.811  1.9920  1.0991 -1.8850
 7856SOL    HW241179  12.059   3.810   3.749 -1.8827 -0.8438  3.7263
 7857SOL     OW41180  10.824   5.610   9.034  0.5421  0.2900  0.5679
 7857SOL    HW141181  10.858   5.641   8.950 -0.3751  0.3840  0.2231
 7857SOL    HW241182  10.729   5.624   9.028  0.2487 -1.3988  0.8920
 7858SOL     OW41183  11.461   6.891  10.631  0.2461 -0.1585  0.1138
 7858SOL    HW141184  11.458   6.850  10.544  0.9487  1.4395 -0.6955
 7858SOL    HW241185  11.533   6.846  10.676  0.4332 -0.4102 -0.4307
 7859SOL     OW41186   7.053   2.484   9.057  0.4185 -0.2085 -0.4897
 7859SOL    HW141187   7.118   2.416   9.073  2.3887  1.4944 -0.8304
 7859SOL    HW241188   7.003   2.452   8.981  0.7890 -1.5791 -0.1825
 7860SOL     OW41189   2.550   4.829  10.254  0.1085 -0.4527 -0.2367
 7860SOL    HW141190   2.471   4.881  10.268 -1.2271 -2.2406 -0.7836
 7860SOL    HW241191   2.559   4.823  10.159 -0.5446 -2.2567 -0.2326
 7861SOL     OW41192   7.947   5.045   0.130 -0.6001  0.3646  0.0608
 7861SOL    HW141193   7.937   4.966   0.184  1.0858 -1.1187 -1.6670
 7861SOL    HW241194   7.888   5.109   0.171 -2.2035 -1.8257  1.4100
 7862SOL     OW41195   8.830   4.952   6.343 -0.0851 -0.3973 -0.1523
 7862SOL    HW141196   8.916   4.972   6.307  1.3523 -2.3616  1.8729
 7862SOL    HW241197   8.768   4.997   6.285  2.1903 -0.1088 -2.5501
 7863SOL     OW41198   5.531  12.872   0.647  0.2300  0.6405  0.9160
 7863SOL    HW141199   5.477  12.826   0.583 -0.8535 -0.9670  2.8718
 7863SOL    HW241200   5.469  12.921   0.701  1.0360  1.3294  1.2424
 7864SOL     OW41201   2.951  13.368   0.034  0.0965 -0.3276 -0.4593
 7864SOL    HW141202   2.949  13.397   0.126 -0.5837  1.6258 -1.0261
 7864SOL    HW241203   2.861  13.381   0.004  0.1192 -1.7286 -1.2061
 7865SOL     OW41204  10.894   5.786   4.614 -0.6345  0.0984  0.0703
 7865SOL    HW141205  10.865   5.767   4.525 -0.0462  1.4576 -0.4445
 7865SOL    HW241206  10.974   5.837   4.603 -0.9404  0.9147  1.3405
 7866SOL     OW41207   0.821   4.985   2.563 -0.1018  0.1967 -0.2238
 7866SOL    HW141208   0.756   4.916   2.544  0.7767 -0.9739  0.8555
 7866SOL    HW241209   0.819   5.041   2.485 -1.3652 -0.6319 -0.8311
 7867SOL     OW41210   8.853   7.565   9.347 -0.0029  0.1583 -0.0283
 7867SOL    HW141211   8.777   7.575   9.290 -0.9879  1.1610  1.4044
 7867SOL    HW241212   8.867   7.652   9.385  2.5254  0.2801 -1.0120
 7868SOL     OW41213   2.011   2.068  10.789  0.0771  0.0880 -0.7949
 7868SOL    HW141214   1.949   2.009  10.831  0.1422 -0.4851 -1.5016
 7868SOL    HW241215   2.084   2.073  10.851 -0.1626 -0.1427 -0.4877
 7869SOL     OW41216   5.848   2.664   6.565  1.0473 -0.1144  0.2760
 7869SOL    HW141217   5.862   2.581   6.610  0.8574 -0.5075 -0.3744
 7869SOL    HW241218   5.928   2.679   6.516  1.9338  1.1485  2.0058
 7870SOL     OW41219  11.793   7.401   1.853  0.0361 -0.5897  0.4918
 7870SOL    HW141220  11.869   7.377   1.799 -0.3285 -0.8347  0.0815
 7870SOL    HW241221  11.735   7.325   1.848 -1.3068  0.4774 -1.1184
 7871SOL     OW41222   7.605   6.915  12.833 -0.3589  0.2707  0.3705
 7871SOL    HW141223   7.665   6.841  12.848  0.2108  0.8551  1.0749
 7871SOL    HW241224   7.531   6.897  12.890 -0.1556  0.3177  0.6500
 7872SOL     OW41225  11.673  13.230   8.261 -0.2750 -0.4972  0.0374
 7872SOL    HW141226  11.603  13.291   8.285  0.0784 -0.3273  0.6483
 7872SOL    HW241227  11.683  13.175   8.338  0.1402 -0.6375 -0.1186
 7873SOL     OW41228  11.892   9.601   0.755  0.1934  1.1616  0.3699
 7873SOL    HW141229  11.833   9.667   0.791  0.7163  1.3445  0.9136
 7873SOL    HW241230  11.835   9.526   0.734 -0.3051  1.5398  0.3516
 7874SOL     OW41231   5.891   3.645  11.801  0.1763  0.0313 -0.2084
 7874SOL    HW141232   5.819   3.704  11.825 -0.0438 -0.2906 -0.0638
 7874SOL    HW241233   5.953   3.700  11.755 -1.8835 -0.3548 -3.8347
 7875SOL     OW41234  13.783   0.851  12.479 -0.0447  0.4124 -0.1598
 7875SOL    HW141235  13.779   0.769  12.529 -1.8039  0.0897 -0.7675
 7875SOL    HW241236  13.873   0.854  12.446  0.3870 -0.6788  0.8351
 7876SOL     OW41237  13.415   5.055   8.542  0.0351 -0.6026  0.0425
 7876SOL    HW141238  13.381   4.968   8.561  0.5823 -0.6037  1.0966
 7876SOL    HW241239  13.511   5.044   8.547  0.2136 -0.4883 -2.2968
 7877SOL     OW41240   8.053   3.849  12.546  0.3230  0.1770  0.5857
 7877SOL    HW141241   8.088   3.839  12.635  0.8333 -1.0884  0.2667
 7877SOL    HW241242   8.076   3.767  12.502  1.5127  1.4100 -1.2099
 7878SOL     OW41243   1.549   8.812  10.283 -0.0429 -0.3829  0.1423
 7878SOL    HW141244   1.513   8.740  10.231  0.0763  0.3404 -0.9537
 7878SOL    HW241245   1.641   8.818  10.256 -0.0691  0.2194  0.1865
 7879SOL     OW41246  11.695   3.955   5.725 -0.7258  0.2757  0.4671
 7879SOL    HW141247  11.732   4.043   5.711 -0.8680  0.3570  0.6079
 7879SOL    HW241248  11.767   3.896   5.703 -0.6242  0.4280  0.3864
 7880SOL     OW41249  10.757   6.349   4.190  0.1773  0.5415  0.2276
 7880SOL    HW141250  10.779   6.291   4.117  0.2208 -0.0639  0.7091
 7880SOL    HW241251  10.763   6.437   4.154 -1.8399  0.2187 -1.0820
 7881SOL     OW41252   8.838   1.798   3.646  0.8021 -0.6783  0.0288
 7881SOL    HW141253   8.761   1.771   3.696 -0.1406 -0.7392 -1.3869
 7881SOL    HW241254   8.887   1.854   3.706 -1.6421  1.4648  0.2127
 7882SOL     OW41255   5.859   7.324   9.989 -0.1906 -0.1412  0.2157
 7882SOL    HW141256   5.882   7.232   9.982 -0.4969 -0.3243  1.4701
 7882SOL    HW241257   5.928   7.362  10.043  0.1926  0.4748 -0.6835
 7883SOL     OW41258  13.201   0.990  13.204  0.5062 -0.7027  0.2016
 7883SOL    HW141259  13.107   1.009  13.199  0.5722 -0.5341 -0.4674
 7883SOL    HW241260  13.209   0.929  13.277 -0.1166 -0.6645  0.3084
 7884SOL     OW41261   0.715   2.726   3.992 -0.2977  1.1142 -0.7432
 7884SOL    HW141262   0.706   2.724   3.897 -2.2604  2.8385 -0.6576
 7884SOL    HW241263   0.628   2.702   4.025  0.2908  0.7677  0.6275
 7885SOL     OW41264  13.956  10.426   2.850  0.7286 -0.4087  0.5436
 7885SOL    HW141265  14.051  10.435   2.857  1.3151 -2.1419 -2.7569
 7885SOL    HW241266  13.942  10.397   2.759 -3.2239  2.9015 -0.1917
 7886SOL     OW41267   8.251   7.416   4.158  0.0919  0.2402  0.6546
 7886SOL    HW141268   8.296   7.418   4.073  0.4147  2.3266  0.8208
 7886SOL    HW241269   8.177   7.356   4.145 -0.5043  1.3526 -1.4540
 7887SOL     OW41270  12.059   7.230   7.868 -0.0701 -0.6398  0.0193
 7887SOL    HW141271  11.988   7.235   7.931  0.8225 -0.8815  1.0672
 7887SOL    HW241272  12.051   7.310   7.816 -1.4212 -0.9199 -0.2426
 7888SOL     OW41273  13.307   8.535  13.005  0.2512  0.1084  0.2354
 7888SOL    HW141274  13.260   8.455  13.030  1.0282  0.4555  3.1248
 7888SOL    HW241275  13.269   8.603  13.060  1.8592  1.0594  0.2223
 7889SOL     OW41276   3.342   0.806  10.991  0.3360 -0.2141 -0.5151
 7889SOL    HW141277   3.413   0.764  11.041  0.4631  0.1026 -0.4241
 7889SOL    HW241278   3.354   0.899  11.008  0.4859 -0.0896 -1.2804
 7890SOL     OW41279   3.984   1.782   0.562 -0.1991  0.2346 -0.2526
 7890SOL    HW141280   4.049   1.817   0.501  1.6327 -2.3059  0.0978
 7890SOL    HW241281   3.907   1.764   0.508  0.2568  0.9655 -1.1715
 7891SOL     OW41282   0.830   8.532   6.943  0.0607  0.3460  0.2770
 7891SOL    HW141283   0.882   8.502   6.868  0.1552  0.4309  0.3088
 7891SOL    HW241284   0.894   8.541   7.014  0.4032  2.5492 -0.2386
 7892SOL     OW41285  11.506   1.314   7.603  0.2407 -0.0266  0.2500
 7892SOL    HW141286  11.570   1.249   7.634  1.1759  0.5711 -0.3654
 7892SOL    HW241287  11.466   1.272   7.527  1.6222  0.5022 -0.8151
 7893SOL     OW41288  10.035   5.695   6.684  0.2666 -0.1014 -0.3590
 7893SOL    HW141289   9.943   5.713   6.704  0.6220 -0.1839  1.5711
 7893SOL    HW241290  10.043   5.713   6.590 -1.4015  1.2036 -0.3096
 7894SOL     OW41291   4.026   2.726   9.048 -0.0678 -0.1264  0.4753
 7894SOL    HW141292   4.113   2.731   9.008 -0.3900 -0.2742 -0.2621
 7894SOL    HW241293   3.990   2.814   9.039 -0.2402 -0.2236  0.2149
 7895SOL     OW41294   8.321   7.109   8.760  0.3412  0.2713 -0.1952
 7895SOL    HW141295   8.350   7.040   8.700  0.7774 -0.1036  0.4281
 7895SOL    HW241296   8.226   7.101   8.761  0.2664  0.7752 -1.4036
 7896SOL     OW41297   8.540   1.227   0.395  0.4508  0.2879 -0.8366
 7896SOL    HW141298   8.475   1.232   0.325 -0.9977  0.5699  0.4676
 7896SOL    HW241299   8.532   1.138   0.429  0.4876  0.4325 -0.4435
 7897SOL     OW41300   4.795   6.261  10.250 -0.0953  0.7454 -0.9068
 7897SOL    HW141301   4.839   6.180  10.274 -0.5096  0.4977 -0.9681
 7897SOL    HW241302   4.863   6.328  10.255  0.7503  0.0862 -2.8061
 7898SOL     OW41303   6.885  13.728   9.391 -0.0477 -0.7814  0.3356
 7898SOL    HW141304   6.831  13.803   9.366 -0.7423 -1.1658  0.6581
 7898SOL    HW241305   6.823  13.657   9.407  0.6186 -1.5721 -0.4345
 7899SOL     OW41306   0.289  11.278   9.845 -0.4732 -0.2226 -0.3701
 7899SOL    HW141307   0.340  11.353   9.818  2.8307 -1.0145  2.8624
 7899SOL    HW241308   0.221  11.314   9.903  0.6090  0.4103  0.5468
 7900SOL     OW41309  11.983  11.457  12.420 -0.2292  0.2838  0.4726
 7900SOL    HW141310  12.053  11.498  12.470  0.0426 -0.7745  0.9905
 7900SOL    HW241311  11.930  11.530  12.388  0.9928  1.0980  0.2335
 7901SOL     OW41312   1.416   1.223   2.258 -0.1487 -0.0865 -0.0306
 7901SOL    HW141313   1.406   1.230   2.353  2.6544 -0.8973  0.4015
 7901SOL    HW241314   1.497   1.269   2.238  0.4691 -1.7451 -1.7010
 7902SOL     OW41315  13.798   9.141   3.861  0.4750 -0.2251  0.2706
 7902SOL    HW141316  13.787   9.133   3.956 -0.4830  0.8525  0.2770
 7902SOL    HW241317  13.799   9.051   3.829 -1.0808 -0.5840  1.1366
 7903SOL     OW41318   8.098   6.260   8.511 -0.1016  0.2560 -0.7062
 7903SOL    HW141319   8.066   6.348   8.492 -0.1883  0.2252 -0.7038
 7903SOL    HW241320   8.165   6.273   8.578  1.6412  0.5904 -2.4187
 7904SOL     OW41321   6.019   5.671   4.596 -0.6200 -0.1850 -0.5016
 7904SOL    HW141322   6.027   5.764   4.617  0.4238 -0.3009 -0.3087
 7904SOL    HW241323   6.109   5.639   4.597 -0.9920 -1.2548 -0.3103
 7905SOL     OW41324   8.381   1.024   5.974 -0.2502  0.3365  0.4090
 7905SOL    HW141325   8.348   1.099   5.925 -0.8118  0.2321  0.6175
 7905SOL    HW241326   8.371   1.048   6.066  0.7225  0.4958  0.4824
 7906SOL     OW41327   5.117   4.062   6.753  0.1391 -0.0507 -0.1336
 7906SOL    HW141328   5.208   4.086   6.771  0.7906 -2.6860  0.3767
 7906SOL    HW241329   5.101   3.984   6.806 -2.8313  0.9804  0.7007
 7907SOL     OW41330   4.046   5.690  12.655 -0.7209 -0.2723  0.3910
 7907SOL    HW141331   4.038   5.719  12.746 -1.0780  1.2761 -0.1003
 7907SOL    HW241332   4.126   5.731  12.624 -0.3361 -1.2019  0.1396
 7908SOL     OW41333  13.566   1.229   8.364 -0.2280  0.4298  0.1498
 7908SOL    HW141334  13.485   1.278   8.347  1.3205  2.9255 -0.7451
 7908SOL    HW241335  13.589   1.252   8.454  0.3239  1.1359 -0.1586
 7909SOL     OW41336   7.532   9.618  12.500 -0.8627 -0.0520 -0.0157
 7909SOL    HW141337   7.548   9.619  12.594 -2.5477 -0.3898  0.2966
 7909SOL    HW241338   7.595   9.554  12.466  0.3465  0.6878  0.7373
 7910SOL     OW41339   2.074   3.320   9.438  0.1762 -0.3388 -0.0186
 7910SOL    HW141340   2.017   3.351   9.508  0.8646 -0.4188  0.5831
 7910SOL    HW241341   2.039   3.234   9.415  0.4255 -0.6677  0.7902
 7911SOL     OW41342   3.023   5.699   0.476 -0.1323  0.0127  0.0107
 7911SOL    HW141343   2.937   5.657   0.472  0.4027 -1.4857  2.4486
 7911SOL    HW241344   3.047   5.696   0.568  2.8787 -0.3044 -0.6837
 7912SOL     OW41345   0.713   8.768   5.140  0.3790 -0.3022  0.0072
 7912SOL    HW141346   0.789   8.811   5.102  0.2269  0.3167  0.3938
 7912SOL    HW241347   0.740   8.744   5.229  1.0634 -2.6145 -0.7498
 7913SOL     OW41348   7.010  11.171  13.694 -0.1973  0.0721  0.0650
 7913SOL    HW141349   6.930  11.118  13.698 -0.7945  1.0035  0.8850
 7913SOL    HW241350   6.998  11.227  13.618  0.5689 -1.1313 -0.9852
 7914SOL     OW41351   7.543  10.978   7.581  0.1273 -0.3729  0.1158
 7914SOL    HW141352   7.532  11.001   7.489 -0.7342 -0.6766  0.1273
 7914SOL    HW241353   7.630  11.011   7.605 -0.6731  2.0889 -0.0863
 7915SOL     OW41354   5.970  12.846   2.105 -0.2767 -0.1561 -0.8339
 7915SOL    HW141355   6.049  12.877   2.150 -1.7011  0.9678  1.0746
 7915SOL    HW241356   5.992  12.757   2.075  1.7700  0.2341 -0.6089
 7916SOL     OW41357   3.260  13.999   5.717 -0.4503 -0.2563 -0.1263
 7916SOL    HW141358   3.271  14.070   5.780  2.2065  0.5764 -1.3697
 7916SOL    HW241359   3.233  14.043   5.636  1.8337 -0.4990 -1.0840
 7917SOL     OW41360   6.740   0.785   0.793  0.1851 -0.6374 -0.0149
 7917SOL    HW141361   6.733   0.744   0.707  1.3923 -0.5292 -0.1694
 7917SOL    HW241362   6.705   0.719   0.854 -0.8230 -0.6509 -0.5859
 7918SOL     OW41363   2.270  13.282  10.939  0.1685 -0.1038 -0.9312
 7918SOL    HW141364   2.219  13.290  11.019 -1.4348 -0.6601 -1.8516
 7918SOL    HW241365   2.231  13.208  10.892  1.0056  0.2548 -2.2656
 7919SOL     OW41366   3.300  10.036   9.953  0.7614 -0.1098  0.0172
 7919SOL    HW141367   3.265  10.066   9.870  3.2655  2.8204 -0.1732
 7919SOL    HW241368   3.231  10.055  10.017 -1.9789 -4.1458 -1.3728
 7920SOL     OW41369   0.129  12.840   4.662 -0.6471  0.7023 -0.4202
 7920SOL    HW141370   0.114  12.783   4.737 -3.3599  0.2338 -1.2005
 7920SOL    HW241371   0.211  12.809   4.624  0.0476  0.0272  1.5020
 7921SOL     OW41372   4.737   0.011   0.392  0.0294  0.3892 -0.3742
 7921SOL    HW141373   4.830   0.031   0.400 -0.0993  1.8353 -1.8240
 7921SOL    HW241374   4.695   0.064   0.460  0.1874  0.5768 -0.4220
 7922SOL     OW41375   7.254   4.220  10.835 -0.1404  0.1651  0.1813
 7922SOL    HW141376   7.219   4.235  10.747  2.3887  0.0624 -0.9418
 7922SOL    HW241377   7.190   4.164  10.878 -0.8820 -0.7870 -2.0459
 7923SOL     OW41378  12.674   3.621   7.987  0.5399 -0.0948  0.0789
 7923SOL    HW141379  12.681   3.684   8.058  0.3059  0.1768 -0.1364
 7923SOL    HW241380  12.733   3.654   7.919  0.5535 -0.2047  0.0354
 7924SOL     OW41381   4.467   4.416   9.814  0.5295 -0.2925  0.4924
 7924SOL    HW141382   4.446   4.502   9.775 -0.4376 -1.4397 -1.7447
 7924SOL    HW241383   4.535   4.435   9.878  1.9089  1.9004 -1.4282
 7925SOL     OW41384   3.754   7.567  14.022 -0.1316  0.4754  0.3797
 7925SOL    HW141385   3.729   7.475  14.024 -1.1796  0.7551  0.7165
 7925SOL    HW241386   3.674   7.613  13.997  0.3137  1.3191  0.4826
 7926SOL     OW41387   5.916   9.127  12.435  0.1321  0.0857 -0.7988
 7926SOL    HW141388   6.009   9.141  12.452 -0.1168  0.3154  0.4735
 7926SOL    HW241389   5.888   9.204  12.385  0.3310  0.7170  0.0333
 7927SOL     OW41390  12.246  11.896   4.898  0.1487  0.5774  0.2616
 7927SOL    HW141391  12.290  11.972   4.858  1.3414  0.1696  0.7419
 7927SOL    HW241392  12.316  11.832   4.909 -0.9625 -0.9048 -0.8183
 7928SOL     OW41393  11.032   1.652  10.548  0.6948 -0.2521  0.1340
 7928SOL    HW141394  10.982   1.622  10.472  1.2078 -0.2783 -0.2035
 7928SOL    HW241395  11.046   1.745  10.532  0.1950 -0.1034  0.5509
 7929SOL     OW41396   5.112   1.258  10.255  1.2017 -0.2735 -0.3782
 7929SOL    HW141397   5.164   1.209  10.319  0.1253 -2.2933 -0.9763
 7929SOL    HW241398   5.079   1.334  10.303  1.8430 -0.8043  0.9424
 7930SOL     OW41399  11.025  10.745   9.480 -0.7080 -0.3683  0.2747
 7930SOL    HW141400  10.992  10.656   9.470  0.7040 -0.9639  0.5771
 7930SOL    HW241401  11.118  10.734   9.502 -0.3193  1.1934 -0.3934
 7931SOL     OW41402   0.315   4.850   8.520 -0.3104  0.1311  0.1803
 7931SOL    HW141403   0.319   4.761   8.554 -0.8035  0.6814  1.7559
 7931SOL    HW241404   0.288   4.840   8.429  3.9078 -1.6101 -1.1636
 7932SOL     OW41405   3.079   5.655   2.100  0.7088  0.4473 -0.5347
 7932SOL    HW141406   3.078   5.689   2.190 -1.2678 -1.3305  0.1794
 7932SOL    HW241407   3.014   5.708   2.054 -1.6078 -1.4679  0.3170
 7933SOL     OW41408   1.840   9.659   6.233  0.0192  0.0270  0.3844
 7933SOL    HW141409   1.878   9.741   6.203 -1.3136 -0.0214 -1.6411
 7933SOL    HW241410   1.883   9.592   6.179 -1.4114 -0.2147 -0.5028
 7934SOL     OW41411   4.373  12.760   6.052  0.1435  0.5366  0.3354
 7934SOL    HW141412   4.363  12.666   6.035 -1.1905  0.4279  1.4924
 7934SOL    HW241413   4.319  12.803   5.986  2.2297  0.6452 -1.4069
 7935SOL     OW41414   1.787   4.486   5.868 -0.5889 -0.4961  0.2977
 7935SOL    HW141415   1.824   4.533   5.943 -0.1741  0.1526 -0.3110
 7935SOL    HW241416   1.838   4.405   5.863 -0.2450 -0.2831  0.3664
 7936SOL     OW41417   6.495   3.521   2.257 -0.2732  0.8177  0.1623
 7936SOL    HW141418   6.580   3.491   2.222 -1.0440 -1.5383  0.1138
 7936SOL    HW241419   6.485   3.609   2.222  1.1239  0.2971 -1.7603
 7937SOL     OW41420   9.703   7.165   1.051  0.5684  0.0511  0.2556
 7937SOL    HW141421   9.684   7.099   1.119  0.0985  1.8305  1.9306
 7937SOL    HW241422   9.652   7.136   0.976 -0.2026 -1.1170  1.1849
 7938SOL     OW41423   1.307   1.236   1.291 -0.1641 -0.4478  0.1327
 7938SOL    HW141424   1.218   1.258   1.320 -0.6375 -0.8987 -0.9093
 7938SOL    HW241425   1.316   1.280   1.206  1.0951  0.6540  0.8168
 7939SOL     OW41426  10.350  11.467   6.882  0.2584  0.0488 -0.0484
 7939SOL    HW141427  10.300  11.386   6.878  0.3455  0.0392 -2.0572
 7939SOL    HW241428  10.435  11.445   6.844 -0.5582  1.5753 -3.1465
 7940SOL     OW41429   7.063   1.136   5.325  0.0401 -0.0619 -0.5830
 7940SOL    HW141430   7.122   1.191   5.273  0.0195  0.6613  0.1492
 7940SOL    HW241431   6.976   1.170   5.306 -0.0946 -0.6458 -1.0728
 7941SOL     OW41432   2.131   4.856   8.828  0.5488  0.1032  0.9746
 7941SOL    HW141433   2.113   4.804   8.750 -2.5758  2.3993 -0.0140
 7941SOL    HW241434   2.197   4.919   8.801 -1.2035  1.5131 -0.2416
 7942SOL     OW41435  13.121   9.825   6.237  0.5073  0.2241 -0.1642
 7942SOL    HW141436  13.152   9.787   6.319  0.4425 -0.3540 -0.3983
 7942SOL    HW241437  13.191   9.807   6.174  0.5778  0.7045 -0.2255
 7943SOL     OW41438  13.865  10.701  13.581 -0.4457 -0.4335  0.0044
 7943SOL    HW141439  13.815  10.779  13.604 -0.7682 -0.5884 -0.1658
 7943SOL    HW241440  13.799  10.633  13.568 -0.1443 -0.8505  0.5786
 7944SOL     OW41441  13.974   9.379  12.913 -0.8082 -0.3647 -0.3902
 7944SOL    HW141442  13.905   9.313  12.906  0.0989 -1.3521 -0.0907
 7944SOL    HW241443  14.043   9.337  12.963 -0.5844  1.1297  0.6133
 7945SOL     OW41444   2.258  13.108  11.233 -0.3823  0.1264  0.1157
 7945SOL    HW141445   2.267  13.051  11.157  2.9291  0.0787  0.3945
 7945SOL    HW241446   2.184  13.071  11.282 -0.2114 -2.1497 -1.1956
 7946SOL     OW41447   2.434  12.884  13.186 -0.3513 -0.4606 -0.0807
 7946SOL    HW141448   2.350  12.847  13.159 -1.4381  1.8750 -0.0751
 7946SOL    HW241449   2.418  12.917  13.274  0.2667  0.8978 -0.4575
 7947SOL     OW41450   3.384   0.620   7.365  0.6463  0.4526  0.6370
 7947SOL    HW141451   3.456   0.617   7.428  0.5454 -1.2998  0.7290
 7947SOL    HW241452   3.397   0.543   7.310  0.0838  1.3310 -0.7872
 7948SOL     OW41453   5.022  13.592   3.573 -0.3921  0.8424  0.2295
 7948SOL    HW141454   5.111  13.621   3.551 -0.3337  0.1619 -0.4517
 7948SOL    HW241455   5.006  13.630   3.659  1.4132 -0.8617  1.4149
 7949SOL     OW41456   2.758  11.106   3.139 -0.3262  0.1729  0.8532
 7949SOL    HW141457   2.843  11.110   3.183  0.0010  1.4071  0.1614
 7949SOL    HW241458   2.700  11.159   3.194 -0.8016 -1.0612  1.5854
 7950SOL     OW41459   1.826   7.120   2.151 -0.3065  0.2245 -0.3608
 7950SOL    HW141460   1.921   7.129   2.157 -0.3721  0.0005  2.5741
 7950SOL    HW241461   1.806   7.044   2.205 -2.0488 -1.0462 -2.6244
 7951SOL     OW41462   7.312   8.708   2.340 -0.1540 -0.5299  0.0322
 7951SOL    HW141463   7.220   8.688   2.353  0.0064 -2.1976 -1.1096
 7951SOL    HW241464   7.350   8.705   2.428 -0.8966 -1.4098  0.3299
 7952SOL     OW41465   2.492   3.739   9.216  0.2212 -0.0886  0.1013
 7952SOL    HW141466   2.470   3.652   9.250  0.6387 -0.6335 -0.9804
 7952SOL    HW241467   2.431   3.798   9.260 -0.2695 -0.9658  0.6267
 7953SOL     OW41468  10.646   1.806   1.403  0.2443  0.7943  0.2608
 7953SOL    HW141469  10.697   1.813   1.484 -0.5037  0.1414  0.7952
 7953SOL    HW241470  10.668   1.886   1.355  1.9657  0.4206  0.3536
 7954SOL     OW41471   0.783   4.572  11.609  0.5981  0.8799  0.2099
 7954SOL    HW141472   0.839   4.596  11.683 -0.0791  0.9499  0.7044
 7954SOL    HW241473   0.783   4.650  11.553  1.0554  0.8524  0.1678
 7955SOL     OW41474   1.127   2.312   9.906  0.6848 -0.2480 -0.1261
 7955SOL    HW141475   1.131   2.232   9.957  0.4761  0.8750  1.7341
 7955SOL    HW241476   1.215   2.324   9.872  1.3998  0.0274  1.7198
 7956SOL     OW41477   4.847   3.149   4.165  0.1318  0.5265  0.0347
 7956SOL    HW141478   4.921   3.200   4.132  0.1542  0.1413 -0.5089
 7956SOL    HW241479   4.856   3.064   4.124 -1.0638  0.7201 -0.6578
 7957SOL     OW41480   6.025   4.869  12.044  0.5083 -0.3623  0.1987
 7957SOL    HW141481   5.980   4.889  11.962  1.1219 -1.5447 -0.4583
 7957SOL    HW241482   6.102   4.927  12.044  0.4021 -0.2211  0.0414
 7958SOL     OW41483   9.274  10.431   8.836  0.1857  0.0967 -0.7894
 7958SOL    HW141484   9.340  10.423   8.905  0.8228 -0.3200 -1.4293
 7958SOL    HW241485   9.231  10.515   8.853  1.3980  0.7365 -0.7872
 7959SOL     OW41486   4.998   6.670   2.236  0.9298  0.3251 -0.0699
 7959SOL    HW141487   5.078   6.654   2.286  0.5011 -0.4838  0.3804
 7959SOL    HW241488   5.022   6.651   2.145  1.9428  2.5951 -0.3445
 7960SOL     OW41489   8.778  12.458   4.801 -0.1240  0.4227 -0.0783
 7960SOL    HW141490   8.696  12.423   4.836  1.0825 -0.4295  2.1013
 7960SOL    HW241491   8.769  12.553   4.809 -1.7086  0.4655 -1.9028
 7961SOL     OW41492   0.688   4.097   8.825  0.1458 -0.7042 -0.4754
 7961SOL    HW141493   0.781   4.110   8.846 -0.0812 -1.0668  0.8789
 7961SOL    HW241494   0.668   4.164   8.761  1.1320 -0.0362 -0.1065
 7962SOL     OW41495   4.400  11.459  10.011  0.4030 -0.1925 -0.0475
 7962SOL    HW141496   4.335  11.389  10.009  0.2428 -0.0784 -3.1519
 7962SOL    HW241497   4.452  11.441  10.090  0.1360 -3.6040 -0.4949
 7963SOL     OW41498  13.557  12.207   4.931 -0.5271  0.7012  0.5528
 7963SOL    HW141499  13.583  12.213   4.839 -1.5108  0.0221  0.2232
 7963SOL    HW241500  13.640  12.195   4.978 -0.0760  0.4194 -0.2955
 7964SOL     OW41501   8.254  10.718   4.712  0.0921  0.1129  0.0184
 7964SOL    HW141502   8.298  10.753   4.790  0.1236  1.2539 -0.4911
 7964SOL    HW241503   8.326  10.685   4.659 -0.0303 -1.9613  1.0564
 7965SOL     OW41504  12.708  11.951   4.760 -0.0453  0.8784 -0.0953
 7965SOL    HW141505  12.730  11.904   4.679 -0.3407  1.2547 -0.3991
 7965SOL    HW241506  12.791  11.956   4.808  0.4864  1.9833 -1.0682
 7966SOL     OW41507   8.501   3.546  11.140 -0.2101  0.0997 -0.0054
 7966SOL    HW141508   8.472   3.517  11.054 -0.6235  1.1056 -0.2184
 7966SOL    HW241509   8.430   3.522  11.199 -0.5084  0.5845 -0.1649
 7967SOL     OW41510   7.968   3.563   0.131  0.0465  0.1843 -0.1263
 7967SOL    HW141511   8.053   3.607   0.130  1.2138 -1.8609  1.1989
 7967SOL    HW241512   7.947   3.554   0.224 -2.0953  1.3889 -0.4186
 7968SOL     OW41513   3.107   1.590   7.780  0.1781 -0.3458  0.0151
 7968SOL    HW141514   3.178   1.605   7.718  1.9380  1.4682  2.2275
 7968SOL    HW241515   3.058   1.673   7.781  0.2989 -0.2659  1.1262
 7969SOL     OW41516  12.262   5.442  11.919 -0.3219  0.0957 -0.1422
 7969SOL    HW141517  12.269   5.472  12.010  0.2471  1.2995 -0.5586
 7969SOL    HW241518  12.170   5.452  11.897 -0.2666  0.8571 -0.0411
 7970SOL     OW41519   1.634   0.886   0.529  0.0369  0.1786  0.3701
 7970SOL    HW141520   1.631   0.802   0.575  0.2894  0.9101  1.7862
 7970SOL    HW241521   1.727   0.903   0.515 -0.0204  0.1556 -0.0487
 7971SOL     OW41522  10.909   3.015  10.941  0.1993  0.1058 -0.4401
 7971SOL    HW141523  10.953   2.950  10.996  1.5325  0.4737 -1.0383
 7971SOL    HW241524  10.973   3.086  10.931  0.3855 -0.3476 -3.2011
 7972SOL     OW41525   8.723  13.870   0.760 -0.4778 -0.1438  0.2869
 7972SOL    HW141526   8.784  13.871   0.686 -0.4152  0.8851  0.3483
 7972SOL    HW241527   8.695  13.779   0.765  0.4903 -0.4910 -0.2031
 7973SOL     OW41528   3.584  12.503   6.472 -0.1135  0.1443 -0.2553
 7973SOL    HW141529   3.674  12.514   6.503  0.5843 -1.6065 -1.5414
 7973SOL    HW241530   3.550  12.429   6.521 -0.6322  0.3560 -0.2831
 7974SOL     OW41531   3.595   9.462   0.410  0.1545 -0.4597 -0.3455
 7974SOL    HW141532   3.647   9.416   0.477  1.0458  2.0826  0.8230
 7974SOL    HW241533   3.559   9.537   0.456 -1.7275 -0.2624 -2.0464
 7975SOL     OW41534   5.782   4.154   7.788 -0.0770 -0.0890 -0.5874
 7975SOL    HW141535   5.797   4.060   7.784 -0.7406 -0.2279  0.0367
 7975SOL    HW241536   5.867   4.191   7.811  0.6783 -0.3531 -2.7439
 7976SOL     OW41537   9.849   6.971  11.506 -0.6143  0.6670 -0.1054
 7976SOL    HW141538   9.842   6.886  11.551  0.3447  0.3110 -0.6033
 7976SOL    HW241539   9.817   6.954  11.418 -0.2759  0.7837 -0.2520
 7977SOL     OW41540  10.481   2.564   6.617 -0.7986  0.2140  0.1029
 7977SOL    HW141541  10.573   2.550   6.597 -0.4936  0.5769  1.1738
 7977SOL    HW241542  10.456   2.642   6.568 -0.6867 -0.1875 -0.6012
 7978SOL     OW41543  11.025  10.591   4.928 -0.1666 -0.5275 -0.0407
 7978SOL    HW141544  11.061  10.666   4.976  0.4819  0.9541 -2.6285
 7978SOL    HW241545  11.010  10.625   4.839 -1.1569 -3.1288 -0.9500
 7979SOL     OW41546   2.317   9.186   6.503  0.1024  0.3378  0.4083
 7979SOL    HW141547   2.377   9.162   6.432  0.4372  0.2895  0.7070
 7979SOL    HW241548   2.234   9.145   6.479 -1.1189  3.8460 -2.2514
 7980SOL     OW41549   7.592   5.732   9.403 -0.0764 -0.0599 -0.5888
 7980SOL    HW141550   7.658   5.668   9.429 -1.3230 -0.5270  1.6778
 7980SOL    HW241551   7.564   5.703   9.316  1.0035 -1.2164 -0.5888
 7981SOL     OW41552  11.434  13.304  12.819  0.3600 -0.2296 -0.2308
 7981SOL    HW141553  11.486  13.262  12.887 -0.7060  0.4218  1.0245
 7981SOL    HW241554  11.359  13.341  12.865 -0.6370 -0.1587 -1.8289
 7982SOL     OW41555   6.285  12.216   1.921 -0.3719  0.1253  0.2336
 7982SOL    HW141556   6.258  12.164   1.996  0.9850  0.1257  0.7595
 7982SOL    HW241557   6.381  12.220   1.928 -0.2132  0.1869 -1.4465
 7983SOL     OW41558   9.093   0.532   5.601 -0.9323 -0.1961 -0.5140
 7983SOL    HW141559   9.160   0.464   5.605 -0.6201  0.1464  0.7036
 7983SOL    HW241560   9.030   0.506   5.668 -1.8459 -0.3219 -1.4005
 7984SOL     OW41561   7.069  11.336   9.908 -0.0936  0.1783  0.9622
 7984SOL    HW141562   7.023  11.337   9.992 -0.7935  0.5101  0.5735
 7984SOL    HW241563   7.000  11.343   9.842  0.4885  0.4008  0.3680
 7985SOL     OW41564   3.043  11.225   2.908 -0.5136 -0.5517  0.1012
 7985SOL    HW141565   3.095  11.144   2.906  0.2300 -0.0886 -0.0152
 7985SOL    HW241566   3.017  11.235   2.999  1.6321  0.4215  0.6869
 7986SOL     OW41567   5.264   6.702  13.582  0.3272 -0.0072 -0.0639
 7986SOL    HW141568   5.328   6.690  13.652  0.0383 -1.4824 -0.0126
 7986SOL    HW241569   5.180   6.712  13.627  0.3839  0.9093 -0.1566
 7987SOL     OW41570  10.998  11.051   1.114  0.2374  0.6140 -0.6565
 7987SOL    HW141571  10.972  10.959   1.108  0.2288  0.7185 -3.4546
 7987SOL    HW241572  11.048  11.057   1.195  1.4778 -2.1788 -1.1236
 7988SOL     OW41573   5.229   3.038   9.483  0.2360  0.2151  0.1696
 7988SOL    HW141574   5.216   2.945   9.501  0.4379  0.1747  0.1042
 7988SOL    HW241575   5.255   3.041   9.391  1.5832  0.2214  0.5323
 7989SOL     OW41576   9.276   1.540   3.209 -0.4359  0.0025 -0.4955
 7989SOL    HW141577   9.209   1.473   3.200  0.8907 -1.3077 -0.9535
 7989SOL    HW241578   9.313   1.550   3.122  1.9790 -1.5262  0.2522
 7990SOL     OW41579  11.565   1.381   2.635 -0.4082  0.2051  0.5067
 7990SOL    HW141580  11.591   1.440   2.706 -0.8382  1.8948 -0.6736
 7990SOL    HW241581  11.553   1.439   2.560 -1.0455 -1.3942 -0.6652
 7991SOL     OW41582   5.892   7.949   3.519 -0.4636  0.5899 -0.3249
 7991SOL    HW141583   5.832   7.915   3.453 -1.1808  0.9004  0.1594
 7991SOL    HW241584   5.836   7.974   3.592  0.0724  2.3016 -0.4500
 7992SOL     OW41585   6.558  13.009   3.616  0.5353 -0.6799  0.4154
 7992SOL    HW141586   6.592  13.053   3.695 -1.7435 -1.7693  2.1421
 7992SOL    HW241587   6.635  12.989   3.564  2.0287  1.2134  1.7616
 7993SOL     OW41588   3.668   4.556   4.104 -0.1739  0.4973 -0.2229
 7993SOL    HW141589   3.616   4.503   4.165  0.3539  0.6528  0.3772
 7993SOL    HW241590   3.677   4.640   4.148 -0.6654  0.9613 -0.9967
 7994SOL     OW41591   3.579   2.719  12.005 -0.3463  0.2124 -0.3133
 7994SOL    HW141592   3.653   2.665  12.031 -1.3124 -0.7618  0.4963
 7994SOL    HW241593   3.502   2.665  12.023 -1.3294  1.7297  0.1957
 7995SOL     OW41594   1.009   5.754   4.208  0.3237  0.3075  0.6570
 7995SOL    HW141595   1.096   5.713   4.214  0.3739  0.3687  0.3817
 7995SOL    HW241596   1.005   5.814   4.282  0.2884 -0.1232  1.0112
 7996SOL     OW41597   3.570   7.895   7.577  0.4624  0.3021  0.4122
 7996SOL    HW141598   3.660   7.922   7.561 -0.0048  0.3514 -2.8619
 7996SOL    HW241599   3.517   7.972   7.552 -0.5245 -0.4283  0.1727
 7997SOL     OW41600   6.018  12.412   8.275  0.0964 -0.3325  0.3400
 7997SOL    HW141601   6.098  12.389   8.322 -0.2801 -0.1907  1.0659
 7997SOL    HW241602   6.031  12.504   8.250 -0.0897 -0.1169  1.0056
 7998SOL     OW41603  13.911   7.968   5.091  0.2046  0.1900  0.5503
 7998SOL    HW141604  13.933   8.042   5.148 -1.3104 -0.0850  1.5526
 7998SOL    HW241605  13.855   8.006   5.023  1.9353  0.4999 -0.7631
 7999SOL     OW41606   4.752   0.542  10.723 -0.6522  0.8746  0.1343
 7999SOL    HW141607   4.779   0.512  10.809  1.0286  2.8527  0.3882
 7999SOL    HW241608   4.791   0.629  10.715  0.3347  0.2540 -3.1253
 8000SOL     OW41609   4.110   4.560  13.975 -0.6006  0.4643 -0.5911
 8000SOL    HW141610   4.188   4.504  13.970 -0.1366  0.8100  1.7836
 8000SOL    HW241611   4.044   4.513  13.924 -0.0541 -2.0153  0.8274
 8001SOL     OW41612   9.567   3.891   7.984 -0.1522  0.5921 -0.1129
 8001SOL    HW141613   9.623   3.817   7.960  0.1304  0.4839  0.8455
 8001SOL    HW241614   9.602   3.965   7.934  0.6340  0.4504  0.2197
 8002SOL     OW41615  12.678   7.463   8.508 -0.6265 -1.0012 -0.4319
 8002SOL    HW141616  12.607   7.521   8.482  0.0601 -0.8239 -2.0402
 8002SOL    HW241617  12.643   7.375   8.498 -0.9269 -0.9010 -0.2607
 8003SOL     OW41618   2.989  13.316  11.673 -0.5118 -0.0071 -0.1055
 8003SOL    HW141619   3.071  13.328  11.720 -0.7211  0.3401  0.1782
 8003SOL    HW241620   2.957  13.230  11.701 -0.5700  0.1416  0.2861
 8004SOL     OW41621   4.432   9.327  12.480 -0.3276  0.7068  0.0772
 8004SOL    HW141622   4.358   9.285  12.435 -0.9157  0.3181  1.3634
 8004SOL    HW241623   4.394   9.359  12.562  1.5219 -2.1067  2.1883
 8005SOL     OW41624   8.377  13.506  13.441 -0.4690 -0.2776  0.1342
 8005SOL    HW141625   8.317  13.432  13.433 -0.9408 -0.2367  2.4509
 8005SOL    HW241626   8.346  13.570  13.377 -2.4320 -0.5754  0.7190
 8006SOL     OW41627  11.148  12.297   0.791  0.0303  0.4637  0.0899
 8006SOL    HW141628  11.101  12.253   0.721 -0.4169  0.1441  0.5800
 8006SOL    HW241629  11.113  12.259   0.872  0.3955  0.9589  0.4950
 8007SOL     OW41630   8.424   9.262   1.391  0.2207  0.5159 -0.5791
 8007SOL    HW141631   8.426   9.249   1.296 -2.1650 -0.1109 -0.5884
 8007SOL    HW241632   8.355   9.204   1.422 -1.0136  2.7547  1.1745
 8008SOL     OW41633  10.055  12.235   4.426  0.1844  0.3589  0.0849
 8008SOL    HW141634  10.116  12.162   4.426  2.1034  1.7674  2.5817
 8008SOL    HW241635  10.081  12.288   4.351 -0.9741 -1.2514 -1.5099
 8009SOL     OW41636   3.060   0.470   5.759  0.3425  0.1773 -0.2153
 8009SOL    HW141637   3.103   0.454   5.843  0.6954  1.9308 -0.0297
 8009SOL    HW241638   2.966   0.470   5.780  0.3871 -0.2355  0.0069
 8010SOL     OW41639   1.580   4.871   1.506 -0.3528 -0.1451 -0.2320
 8010SOL    HW141640   1.579   4.965   1.521 -2.5853 -0.3250  1.2823
 8010SOL    HW241641   1.501   4.854   1.454 -0.1364 -1.1921 -0.2499
 8011SOL     OW41642   7.877   4.760   0.264  0.0724 -0.1794  0.8372
 8011SOL    HW141643   7.785   4.781   0.249  0.2158  0.9873  1.4655
 8011SOL    HW241644   7.904   4.820   0.333  0.8736 -1.6393  1.8391
 8012SOL     OW41645   2.784  13.207   2.083  0.1731  0.1115  0.2513
 8012SOL    HW141646   2.802  13.242   1.996 -1.8637 -0.6289 -0.5295
 8012SOL    HW241647   2.768  13.285   2.137  1.3949  0.5706 -0.0135
 8013SOL     OW41648  13.845   7.945  13.427 -0.2998 -0.3597  0.1518
 8013SOL    HW141649  13.836   8.038  13.407 -1.1993 -0.4771 -0.0377
 8013SOL    HW241650  13.766   7.905  13.390 -1.2279 -0.8284  2.4798
 8014SOL     OW41651  12.806   8.760  11.211  0.0170 -0.0201  0.0131
 8014SOL    HW141652  12.854   8.815  11.149 -1.0414 -0.9511 -1.6984
 8014SOL    HW241653  12.717   8.796  11.211 -0.5065 -1.2431 -0.5926
 8015SOL     OW41654  10.284   6.440  14.092 -0.2654 -0.1229 -0.3994
 8015SOL    HW141655  10.361   6.394  14.059  0.3536 -0.6037  1.5511
 8015SOL    HW241656  10.278   6.519  14.038  0.5631 -0.9125 -1.7006
 8016SOL     OW41657   6.469   9.898   4.010 -0.0856 -0.4693 -0.3791
 8016SOL    HW141658   6.498   9.881   4.100  1.6095 -3.0291 -1.2992
 8016SOL    HW241659   6.519   9.975   3.982  0.0973 -0.2434  0.5396
 8017SOL     OW41660   8.703   5.416  13.986  0.0319 -0.0123  0.3264
 8017SOL    HW141661   8.667   5.470  14.056  0.0120 -0.5836  0.7544
 8017SOL    HW241662   8.794   5.401  14.011  0.2866  0.5436 -0.2293
 8018SOL     OW41663   1.454   5.421   2.179  0.1127  0.1631 -0.2754
 8018SOL    HW141664   1.529   5.399   2.234 -0.5550 -0.1349  0.5267
 8018SOL    HW241665   1.400   5.479   2.233  0.1196  0.9790 -1.1141
 8019SOL     OW41666   8.368   4.954   1.438 -0.2280  0.4221  0.2287
 8019SOL    HW141667   8.434   4.945   1.507 -0.2759 -0.4673  0.1744
 8019SOL    HW241668   8.317   5.031   1.463  1.9192  2.2386 -0.6686
 8020SOL     OW41669   8.747  13.364   0.062 -0.2731 -0.1657 -0.0849
 8020SOL    HW141670   8.781  13.446   0.026 -0.1895 -0.3914 -0.5175
 8020SOL    HW241671   8.755  13.301  -0.009  3.0124 -1.4853  1.2820
 8021SOL     OW41672  13.119   4.641   2.335 -0.4803 -0.0940  0.3455
 8021SOL    HW141673  13.072   4.562   2.362 -1.3947  0.0657 -0.7286
 8021SOL    HW241674  13.106   4.646   2.241 -0.6284  1.4549  0.4241
 8022SOL     OW41675   9.202   4.661   9.409 -0.5105  0.3365 -0.0140
 8022SOL    HW141676   9.147   4.645   9.486 -0.6463  1.5195  0.1568
 8022SOL    HW241677   9.157   4.616   9.338 -1.5243  0.9763  0.1949
 8023SOL     OW41678   6.901  10.252   6.545 -0.0441 -0.7073 -0.9478
 8023SOL    HW141679   6.849  10.316   6.497 -1.4345  1.0410  2.4900
 8023SOL    HW241680   6.837  10.185   6.572 -0.3307  0.4971  1.7424
 8024SOL     OW41681   4.650   2.903  13.413 -0.7965 -0.2872  0.0818
 8024SOL    HW141682   4.707   2.893  13.337  0.2043 -0.8936  0.8807
 8024SOL    HW241683   4.571   2.854  13.391 -0.7872  0.0910 -0.8157
 8025SOL     OW41684  12.624   6.213   2.739  0.6283 -0.2004 -0.3298
 8025SOL    HW141685  12.564   6.287   2.751 -0.1405 -0.7942 -0.4703
 8025SOL    HW241686  12.699   6.235   2.795 -1.6432 -1.5503  3.6596
 8026SOL     OW41687   4.005   6.584   3.583 -0.3520 -0.3746  0.1465
 8026SOL    HW141688   4.025   6.648   3.652 -0.4259  0.7444 -0.8352
 8026SOL    HW241689   3.946   6.631   3.523  1.8235 -0.3241 -2.1354
 8027SOL     OW41690   9.774  12.990  13.811  0.0812  0.0041  0.0671
 8027SOL    HW141691   9.704  12.946  13.762 -1.1281  1.7842  0.0938
 8027SOL    HW241692   9.746  13.081  13.816  0.0378 -0.0526  4.1974
 8028SOL     OW41693   0.674   9.479   0.888 -0.0292 -0.2259 -0.9553
 8028SOL    HW141694   0.731   9.553   0.913 -0.7215  0.5872 -1.7363
 8028SOL    HW241695   0.635   9.451   0.971  0.6777 -0.0919 -0.5638
 8029SOL     OW41696  12.685  11.580   6.536  0.0880 -0.3372 -0.2166
 8029SOL    HW141697  12.657  11.547   6.450 -0.2298  0.6246 -0.4951
 8029SOL    HW241698  12.778  11.598   6.525  0.7980 -3.0027  0.5437
 8030SOL     OW41699  12.704   4.289  12.062  0.5121  0.5107  0.2088
 8030SOL    HW141700  12.780   4.318  12.112  1.2897 -1.4920  0.2618
 8030SOL    HW241701  12.685   4.201  12.094 -1.1564  0.5414 -0.5755
 8031SOL     OW41702   8.756   6.226  13.598  0.1467  0.1769 -0.5557
 8031SOL    HW141703   8.725   6.305  13.554 -0.3549 -0.7482 -1.9057
 8031SOL    HW241704   8.740   6.156  13.536 -1.0390 -1.2721  1.2882
 8032SOL     OW41705  11.965   3.080  11.164  0.5126  0.8834  0.6471
 8032SOL    HW141706  12.018   3.110  11.238  0.0227  0.8913  1.0034
 8032SOL    HW241707  11.950   3.158  11.111  2.7262  0.4994 -0.6928
 8033SOL     OW41708  13.397  14.079   7.695  0.0608 -0.3994  0.4299
 8033SOL    HW141709  13.366  13.993   7.725  2.7393 -1.4752  0.4164
 8033SOL    HW241710  13.391  14.075   7.600  0.4198 -0.7079  0.4156
 8034SOL     OW41711   7.420   4.327   0.195  0.0243 -0.5846  0.7440
 8034SOL    HW141712   7.379   4.409   0.223 -0.2172 -0.6779  0.6644
 8034SOL    HW241713   7.460   4.348   0.110 -1.1626 -0.8887  0.0878
 8035SOL     OW41714   0.181   2.089   2.999  0.8219  0.3928  0.6885
 8035SOL    HW141715   0.108   2.121   3.052  1.2219  0.4206  1.2276
 8035SOL    HW241716   0.230   2.168   2.977 -1.4987  1.0272 -3.1661
 8036SOL     OW41717  10.581  13.411   6.164 -0.2016  0.1995  0.3438
 8036SOL    HW141718  10.543  13.476   6.223  0.2974  1.0522 -0.2587
 8036SOL    HW241719  10.548  13.434   6.077  0.6108  0.1430  0.0062
 8037SOL     OW41720  13.666   2.906  12.455 -0.1903  0.3798  0.2064
 8037SOL    HW141721  13.703   2.895  12.542 -0.4631  0.6207  0.3507
 8037SOL    HW241722  13.729   2.862  12.397  0.3035  0.7574  0.4529
 8038SOL     OW41723   4.783   7.569   5.788 -0.4379  0.1334  0.2391
 8038SOL    HW141724   4.802   7.480   5.757  0.5601 -0.0640  1.3729
 8038SOL    HW241725   4.864   7.598   5.830 -1.2606  0.9728  1.3008
 8039SOL     OW41726   1.617  10.710   0.159  0.7842  0.2354 -0.1893
 8039SOL    HW141727   1.626  10.709   0.254  1.5152  0.8649 -0.2362
 8039SOL    HW241728   1.641  10.622   0.132  1.8298  0.3998  0.1331
 8040SOL     OW41729   5.756  13.314  13.474 -0.2439 -0.1858  0.1480
 8040SOL    HW141730   5.846  13.323  13.442 -0.0440  0.6213  0.9041
 8040SOL    HW241731   5.741  13.219  13.477  0.1080 -0.3076 -1.2452
 8041SOL     OW41732   1.828   5.032  13.509  0.2487  0.0885  0.2680
 8041SOL    HW141733   1.816   5.056  13.600 -2.2158 -0.6402  0.2018
 8041SOL    HW241734   1.765   5.085  13.461 -0.4174 -1.4742 -0.6633
 8042SOL     OW41735   7.601  11.148  11.066 -0.2753  0.0520  0.2172
 8042SOL    HW141736   7.636  11.162  11.154 -3.1655  0.4808  1.4200
 8042SOL    HW241737   7.661  11.087  11.025  1.4676  0.2755  2.2817
 8043SOL     OW41738  10.373   5.180  12.425  0.0365 -0.0280  0.4364
 8043SOL    HW141739  10.412   5.194  12.339  0.8275  0.5423  0.8781
 8043SOL    HW241740  10.279   5.179  12.408  0.1758  0.1511 -0.4233
 8044SOL     OW41741   6.682   7.230   0.734  0.3342 -0.5466 -0.0675
 8044SOL    HW141742   6.714   7.172   0.804  1.3609 -1.4041 -1.2002
 8044SOL    HW241743   6.710   7.187   0.653 -0.8074  0.4405 -1.0134
 8045SOL     OW41744   2.505   8.210   6.031  0.1694 -0.1476  0.1921
 8045SOL    HW141745   2.575   8.249   6.085  1.0159 -0.3698 -0.7108
 8045SOL    HW241746   2.552   8.166   5.960 -0.7531 -2.6062  1.0031
 8046SOL     OW41747   8.968   3.098   4.494  0.1322  0.1919 -0.1090
 8046SOL    HW141748   9.049   3.147   4.480  0.3670 -0.5875 -1.7550
 8046SOL    HW241749   8.992   3.006   4.480 -0.9608 -0.0820 -0.3201
 8047SOL     OW41750   7.568  10.886   6.307  0.3185  0.3137 -0.0198
 8047SOL    HW141751   7.641  10.862   6.364  0.6012 -0.2045 -0.5899
 8047SOL    HW241752   7.597  10.966   6.263  0.5307  0.1370 -0.2070
 8048SOL     OW41753  12.830  10.774   1.175 -0.2681 -0.3079 -0.3584
 8048SOL    HW141754  12.806  10.850   1.121  0.3768 -0.5018 -0.9332
 8048SOL    HW241755  12.817  10.699   1.117  0.6076 -0.5035 -0.3189
 8049SOL     OW41756  12.460  13.500  12.361 -0.2580 -0.0991  0.6491
 8049SOL    HW141757  12.466  13.572  12.424 -0.3648  1.0903 -0.6584
 8049SOL    HW241758  12.550  13.468  12.353  0.0929  0.9637  0.0605
 8050SOL     OW41759   7.399   0.925   3.413  0.3062 -0.1423  0.2580
 8050SOL    HW141760   7.384   0.996   3.350 -1.0836  0.0933  0.8063
 8050SOL    HW241761   7.428   0.851   3.360 -1.3926 -0.1280 -0.7811
 8051SOL     OW41762  11.600   3.031   9.974  0.4501 -0.0103  0.0059
 8051SOL    HW141763  11.582   3.086  10.050 -0.0902  0.5020 -0.4898
 8051SOL    HW241764  11.575   2.943  10.001 -1.4177  0.4351 -0.1535
 8052SOL     OW41765  13.558   6.303   1.757  0.3148  0.2335 -0.0402
 8052SOL    HW141766  13.512   6.362   1.697  0.7526  0.4852 -0.1345
 8052SOL    HW241767  13.539   6.337   1.844 -0.1372  0.0014 -0.0465
 8053SOL     OW41768   5.864   2.513   4.068  0.0255 -0.0188  0.3794
 8053SOL    HW141769   5.942   2.476   4.109 -0.1049  1.5156  2.1765
 8053SOL    HW241770   5.794   2.498   4.131 -0.5624  0.9170 -0.0217
 8054SOL     OW41771   9.704   4.513   6.484 -0.2066  0.2387  0.2353
 8054SOL    HW141772   9.714   4.491   6.391  0.4632  1.5484 -0.0356
 8054SOL    HW241773   9.674   4.432   6.525  0.7744 -0.7408 -0.9015
 8055SOL     OW41774   5.690   7.737   0.674 -0.2250  0.0731 -0.2039
 8055SOL    HW141775   5.688   7.817   0.620  0.0773  0.2120 -0.0124
 8055SOL    HW241776   5.779   7.734   0.708 -0.3669 -0.1042  0.1555
 8056SOL     OW41777   9.675  11.771  13.178 -0.3489  0.2015  0.8697
 8056SOL    HW141778   9.673  11.780  13.273  3.0345  0.5641  1.0289
 8056SOL    HW241779   9.701  11.680  13.162 -0.9057  0.1342  0.2466
 8057SOL     OW41780   2.810   3.884  13.390  0.0952  0.2491 -0.2022
 8057SOL    HW141781   2.887   3.841  13.353 -1.1116 -0.0203 -2.5654
 8057SOL    HW241782   2.776   3.821  13.453  1.2363 -0.0209  0.1809
 8058SOL     OW41783  12.487   4.125   3.230 -0.8932  0.3280  0.3077
 8058SOL    HW141784  12.547   4.053   3.211  0.0952  1.0353  0.6767
 8058SOL    HW241785  12.400   4.089   3.211 -0.2224  0.0719 -2.7414
 8059SOL     OW41786  11.288   6.786   7.184 -0.0300  0.4545  0.3211
 8059SOL    HW141787  11.364   6.801   7.240 -0.4296  2.7873  0.3652
 8059SOL    HW241788  11.324   6.750   7.102  1.0575  1.0232  0.5383
 8060SOL     OW41789   6.792   2.983   0.908  0.1497  0.5003  0.6084
 8060SOL    HW141790   6.844   2.903   0.922  1.4958  0.6483 -2.7706
 8060SOL    HW241791   6.708   2.952   0.875 -0.1268  0.4414  1.3469
 8061SOL     OW41792   8.194  11.266   0.844 -0.0097  0.2787 -0.2518
 8061SOL    HW141793   8.117  11.322   0.846  0.7917  1.5130 -1.5897
 8061SOL    HW241794   8.170  11.193   0.788  0.4998  1.8882 -2.6977
 8062SOL     OW41795   8.117  12.341   1.477  0.3457  0.9312 -0.1601
 8062SOL    HW141796   8.061  12.332   1.554  0.4716  1.1308 -0.0473
 8062SOL    HW241797   8.092  12.266   1.421  1.3410 -0.1253  0.7588
 8063SOL     OW41798   2.496  10.519   0.171 -1.0412 -0.4028 -0.8008
 8063SOL    HW141799   2.490  10.439   0.224 -1.3039  0.8894  1.2298
 8063SOL    HW241800   2.567  10.501   0.110  0.4674 -1.4108  1.1153
 8064SOL     OW41801   1.916  13.050   4.086 -0.0335 -0.4696  0.2832
 8064SOL    HW141802   1.882  13.007   4.165 -3.2910 -1.1251 -1.2935
 8064SOL    HW241803   1.889  13.141   4.095 -0.4358 -0.5513 -0.0623
 8065SOL     OW41804  12.354   1.392   0.027 -0.3320  0.0956  0.1932
 8065SOL    HW141805  12.407   1.412   0.104  0.0965 -1.4240  0.3161
 8065SOL    HW241806  12.347   1.297   0.026  1.3748 -0.1257 -2.7078
 8066SOL     OW41807   2.038   6.398   6.559 -0.3375 -0.2656 -0.5240
 8066SOL    HW141808   2.083   6.391   6.475  0.7005  1.3032 -0.1504
 8066SOL    HW241809   2.105   6.375   6.624 -0.6175  0.2129 -0.0563
 8067SOL     OW41810   2.252   7.628  13.357  0.5261 -0.1970 -0.0400
 8067SOL    HW141811   2.311   7.559  13.327  1.5204 -0.1122  1.6047
 8067SOL    HW241812   2.279   7.706  13.308  0.2656 -0.6538 -0.9360
 8068SOL     OW41813   2.706   9.120   3.044 -0.1961  0.5953  0.5147
 8068SOL    HW141814   2.744   9.164   2.968  0.8681  1.1499  1.3346
 8068SOL    HW241815   2.760   9.043   3.056 -1.5002 -0.5035 -0.3663
 8069SOL     OW41816   0.240   3.541  10.860 -0.4515 -0.1436  0.0012
 8069SOL    HW141817   0.306   3.561  10.926 -1.2098 -0.1294  0.7729
 8069SOL    HW241818   0.229   3.623  10.812  0.3306 -0.2412 -0.3572
 8070SOL     OW41819   7.859   0.099   0.777  0.5161  0.1133  0.0979
 8070SOL    HW141820   7.877   0.126   0.687  1.2886 -1.6514 -0.3118
 8070SOL    HW241821   7.782   0.042   0.770  0.2839  0.3584  0.6215
 8071SOL     OW41822  11.695  10.553   4.122  0.2109  0.2702 -0.0390
 8071SOL    HW141823  11.786  10.583   4.114  0.0294  0.5817 -0.9710
 8071SOL    HW241824  11.699  10.460   4.102  0.1779  0.4840 -1.0539
 8072SOL     OW41825  10.409   4.872   9.230  0.3276 -0.0288  0.5114
 8072SOL    HW141826  10.477   4.811   9.200 -0.2366 -0.8096  0.7895
 8072SOL    HW241827  10.327   4.828   9.211 -0.0891  0.5167  0.9977
 8073SOL     OW41828   4.527   7.746   3.762 -0.1610 -0.1468 -0.2696
 8073SOL    HW141829   4.435   7.747   3.789  0.2542 -1.1797  1.2949
 8073SOL    HW241830   4.567   7.819   3.808 -0.1603  0.2231 -0.8495
 8074SOL     OW41831  13.941  10.347  11.581  0.3524 -0.2041 -0.4131
 8074SOL    HW141832  14.017  10.402  11.564 -0.6110  1.4863  0.4881
 8074SOL    HW241833  13.905  10.329  11.494  0.7103  0.5859 -0.7341
 8075SOL     OW41834   0.825   0.089   5.791  0.1586  0.0257  1.0804
 8075SOL    HW141835   0.897   0.047   5.838 -0.6628 -0.1772  2.2018
 8075SOL    HW241836   0.851   0.181   5.785  1.2504 -0.3318  0.0011
 8076SOL     OW41837   1.585   9.922   6.391 -0.1340  0.5857  0.1198
 8076SOL    HW141838   1.530   9.952   6.318 -2.0022  0.5389  1.4462
 8076SOL    HW241839   1.633  10.000   6.418  1.0611  0.4632 -1.5176
 8077SOL     OW41840  12.248   6.216   9.318 -0.4104 -0.1581  0.7881
 8077SOL    HW141841  12.183   6.180   9.378 -1.1751  1.0045  0.6883
 8077SOL    HW241842  12.328   6.221   9.370 -1.3542  1.9849  2.1684
 8078SOL     OW41843   0.881  10.290   4.890 -0.0473 -0.1823  0.9890
 8078SOL    HW141844   0.937  10.339   4.829 -0.8866  0.3197  0.6057
 8078SOL    HW241845   0.916  10.201   4.888  0.9950  0.2081  1.0771
 8079SOL     OW41846   3.370   6.503   6.451 -0.1349  0.3856  0.3179
 8079SOL    HW141847   3.311   6.537   6.518 -1.0889 -0.2061 -0.2128
 8079SOL    HW241848   3.343   6.547   6.370  1.1129  1.2229  0.3191
 8080SOL     OW41849   9.991  13.772   1.870  0.1575  0.3168  0.3753
 8080SOL    HW141850  10.056  13.707   1.898 -0.1990  0.1853  0.9107
 8080SOL    HW241851  10.009  13.848   1.925  1.3237  1.1185 -1.0265
 8081SOL     OW41852   3.210   3.193   6.364 -0.2135  0.6196 -0.0479
 8081SOL    HW141853   3.151   3.145   6.422 -1.1195  0.0377 -1.4139
 8081SOL    HW241854   3.291   3.202   6.415  0.1729 -2.7212  0.1741
 8082SOL     OW41855   5.865  12.528   1.796  0.6089 -0.3086 -0.8365
 8082SOL    HW141856   5.869  12.499   1.887 -1.0533  0.6945 -0.3914
 8082SOL    HW241857   5.940  12.586   1.786  0.5113 -0.0074  0.0792
 8083SOL     OW41858  11.131   9.875   8.746 -0.4567 -0.3914 -0.1475
 8083SOL    HW141859  11.177   9.926   8.679 -1.0593 -0.4353 -0.6056
 8083SOL    HW241860  11.092   9.941   8.803 -0.2981 -0.3508 -0.0844
 8084SOL     OW41861  12.433   9.995   1.475  0.0038  0.0163  0.2883
 8084SOL    HW141862  12.377  10.033   1.407 -1.1115  1.7563  2.0668
 8084SOL    HW241863  12.408  10.041   1.554  2.1484 -1.0665  1.6699
 8085SOL     OW41864   9.549   3.214  12.979 -0.0952  0.6412  0.2171
 8085SOL    HW141865   9.533   3.194  13.071 -0.2977  0.9181  0.2406
 8085SOL    HW241866   9.486   3.282  12.957  1.0548  1.7727  0.3299
 8086SOL     OW41867   2.458   5.768   0.366 -0.7567 -0.2385  0.4246
 8086SOL    HW141868   2.538   5.804   0.404 -1.2990  1.0966  0.3391
 8086SOL    HW241869   2.477   5.760   0.273 -0.1364 -1.6007  0.6352
 8087SOL     OW41870   2.187   7.098   9.126 -0.2147  0.2152  0.6497
 8087SOL    HW141871   2.164   7.057   9.209 -0.8431  0.4222  0.5845
 8087SOL    HW241872   2.206   7.189   9.148 -3.3058  1.0820  0.2142
 8088SOL     OW41873   7.733   9.233   8.313 -0.8468  0.2693  0.4143
 8088SOL    HW141874   7.760   9.323   8.296 -0.8373  0.5736  1.8698
 8088SOL    HW241875   7.750   9.186   8.231  2.4945  0.8145  0.6610
 8089SOL     OW41876  10.445  10.574   9.997 -0.7713  0.0420  0.6961
 8089SOL    HW141877  10.374  10.637   9.982  0.1243  0.7571 -0.7964
 8089SOL    HW241878  10.461  10.536   9.911  0.2245 -0.5904  1.1541
 8090SOL     OW41879   2.741  12.129  11.743  0.1814 -0.1909 -0.1574
 8090SOL    HW141880   2.739  12.205  11.684 -1.8595  0.3303  0.4828
 8090SOL    HW241881   2.829  12.129  11.779  0.5006  1.3681 -0.8393
 8091SOL     OW41882   4.900   4.859   6.411 -0.2636  0.9380 -0.9324
 8091SOL    HW141883   4.892   4.949   6.444  1.5509  1.2457 -1.2076
 8091SOL    HW241884   4.983   4.828   6.448 -0.3907 -0.2782 -1.6305
 8092SOL     OW41885  11.958   0.488   2.967  0.1676  0.5359  0.5307
 8092SOL    HW141886  11.936   0.406   2.923 -0.6678  1.0967 -0.1237
 8092SOL    HW241887  11.885   0.502   3.028 -1.7772  2.7110 -2.0682
 8093SOL     OW41888   2.577   9.347   3.214 -0.2011  0.4775  0.1404
 8093SOL    HW141889   2.535   9.356   3.128  0.9361  1.8369 -0.3108
 8093SOL    HW241890   2.645   9.281   3.199  0.4861  1.2572 -0.2114
 8094SOL     OW41891   6.030  12.160   6.010  0.2945  0.4987 -0.4038
 8094SOL    HW141892   6.069  12.094   5.954  0.5643 -1.0830  1.5397
 8094SOL    HW241893   6.083  12.159   6.090 -1.5861  0.7913  0.9218
 8095SOL     OW41894  12.083   4.833   1.231  0.2454  0.2906 -0.4419
 8095SOL    HW141895  12.171   4.867   1.216  0.2968  0.5810  0.4377
 8095SOL    HW241896  12.025   4.905   1.207  0.3064  0.5621  0.1940
 8096SOL     OW41897  11.156   4.361  13.566  0.1499  0.0873 -0.6419
 8096SOL    HW141898  11.249   4.338  13.567  0.4943  1.2471 -2.5230
 8096SOL    HW241899  11.116   4.295  13.509 -0.5586 -1.4857  1.5320
 8097SOL     OW41900   2.756   1.856   0.461  0.2464 -0.0324  0.4932
 8097SOL    HW141901   2.756   1.887   0.371  0.2408 -1.0726  0.1144
 8097SOL    HW241902   2.713   1.925   0.511 -1.3240 -0.1731 -0.5807
 8098SOL     OW41903  13.017   4.373  11.528 -0.1021  0.0794  0.0022
 8098SOL    HW141904  13.053   4.288  11.554 -1.9926 -0.3995  1.3056
 8098SOL    HW241905  12.978   4.357  11.442 -0.5189 -0.4018  0.2778
 8099SOL     OW41906   8.153   6.292   2.832  0.3238 -0.6285  0.4179
 8099SOL    HW141907   8.151   6.202   2.863  3.1676 -1.5945 -1.7703
 8099SOL    HW241908   8.184   6.343   2.908  2.8104 -2.2185  0.5805
 8100SOL     OW41909  12.431   6.689   5.266  0.4539  0.7229 -0.6092
 8100SOL    HW141910  12.379   6.715   5.342 -2.8494 -0.2380 -2.3347
 8100SOL    HW241911  12.435   6.594   5.272  1.4731  0.7447 -0.8745
 8101SOL     OW41912   2.329  14.033   4.795 -0.2784  0.2244  1.2828
 8101SOL    HW141913   2.268  14.106   4.807 -0.8942  0.4699 -2.2616
 8101SOL    HW241914   2.278  13.955   4.816 -1.1389  0.5557  0.4641
 8102SOL     OW41915  11.402  10.397   2.174  0.8044 -0.0063 -0.5977
 8102SOL    HW141916  11.308  10.389   2.157  1.1416 -0.0763 -2.7108
 8102SOL    HW241917  11.407  10.458   2.248 -0.9296 -1.4680  0.8369
 8103SOL     OW41918   7.372   7.987   1.137 -0.0684  0.1132 -0.7917
 8103SOL    HW141919   7.435   7.989   1.065 -2.3428  0.0713 -2.9147
 8103SOL    HW241920   7.320   8.068   1.127 -0.1563  0.3603  1.1334
 8104SOL     OW41921   6.152   7.245  11.711 -0.2326  0.3963  0.0795
 8104SOL    HW141922   6.149   7.213  11.801 -1.6360 -0.4202 -0.2229
 8104SOL    HW241923   6.061   7.268  11.691  0.0914  0.7397 -1.0628
 8105SOL     OW41924  13.176   8.131  10.625  0.9952 -0.1040  0.2573
 8105SOL    HW141925  13.182   8.173  10.711 -0.4377 -0.8601  0.7492
 8105SOL    HW241926  13.125   8.192  10.572 -1.7382 -1.4360  1.1860
 8106SOL     OW41927  13.874  12.298   6.584 -0.1390 -0.1384 -0.0147
 8106SOL    HW141928  13.794  12.279   6.632 -1.0298  2.5410 -0.2915
 8106SOL    HW241929  13.854  12.376   6.531  2.8120  1.0941  0.4343
 8107SOL     OW41930   1.319   3.644   9.695 -0.0859  0.0415  0.6941
 8107SOL    HW141931   1.406   3.677   9.672 -0.3029  0.8365  1.0133
 8107SOL    HW241932   1.266   3.722   9.709 -0.8827 -0.4417  0.4135
 8108SOL     OW41933  12.524   3.555   5.793 -0.4190 -0.0408 -0.2683
 8108SOL    HW141934  12.536   3.580   5.702 -0.6854  1.0236 -0.0189
 8108SOL    HW241935  12.597   3.597   5.839 -0.2498 -0.6261  0.0101
 8109SOL     OW41936   3.994   0.653   4.948 -0.0814 -0.3944  0.3963
 8109SOL    HW141937   3.947   0.736   4.937  0.2160 -0.0941  1.2979
 8109SOL    HW241938   4.083   0.679   4.972  0.4979 -0.9611 -1.0238
 8110SOL     OW41939  11.524   8.726   0.726  0.5229 -0.1625  0.2999
 8110SOL    HW141940  11.487   8.813   0.740  1.6780  0.3058  0.5438
 8110SOL    HW241941  11.584   8.713   0.799  1.9704 -0.2621 -0.8413
 8111SOL     OW41942   3.115  13.138   6.505  0.1816  0.4100  0.3828
 8111SOL    HW141943   3.023  13.116   6.518  0.9038 -1.7391  2.8045
 8111SOL    HW241944   3.152  13.062   6.460  1.2338  0.0478  1.7783
 8112SOL     OW41945  11.992  10.400   3.145  0.2045  0.1107 -0.6797
 8112SOL    HW141946  12.032  10.487   3.150  0.9311 -0.3023  1.7279
 8112SOL    HW241947  11.906  10.416   3.106  0.4881  1.8381 -0.6825
 8113SOL     OW41948  13.243   0.386   1.485 -0.2032  0.0469  0.8355
 8113SOL    HW141949  13.236   0.362   1.393  2.5102 -0.7667  0.7539
 8113SOL    HW241950  13.245   0.482   1.486  0.5342  0.0445 -0.0385
 8114SOL     OW41951   2.526  11.275  11.669 -0.1909 -0.2926 -0.0810
 8114SOL    HW141952   2.597  11.289  11.731  0.5303 -2.1215 -0.4133
 8114SOL    HW241953   2.536  11.345  11.604  0.8874 -0.1134  0.2664
 8115SOL     OW41954   3.376   6.175   2.602 -0.4619  0.0825 -0.1429
 8115SOL    HW141955   3.407   6.265   2.610 -1.8291  0.5517  0.2080
 8115SOL    HW241956   3.444   6.130   2.553  0.5359  1.1536  0.2209
 8116SOL     OW41957   8.472   5.764   5.409  0.5064 -0.4741 -0.3037
 8116SOL    HW141958   8.539   5.776   5.477 -0.3931 -0.4166  0.5971
 8116SOL    HW241959   8.496   5.826   5.340  0.4112  0.7941  0.7679
 8117SOL     OW41960   8.025  12.062   4.599 -0.1810  0.7165  0.4320
 8117SOL    HW141961   8.062  11.993   4.654  0.3665  1.5406  1.1462
 8117SOL    HW241962   7.931  12.062   4.621 -0.1774  0.2442  0.4624
 8118SOL     OW41963   3.246   0.915  13.525 -0.0977 -0.5512  0.7775
 8118SOL    HW141964   3.284   0.965  13.597 -2.7568  0.2834  1.6914
 8118SOL    HW241965   3.152   0.926  13.534 -0.6962 -3.4135 -0.7192
 8119SOL     OW41966   7.763  13.046  10.006  0.1674 -0.0429  0.0892
 8119SOL    HW141967   7.833  13.036   9.942  1.0678  0.0371  1.0332
 8119SOL    HW241968   7.804  13.092  10.079 -0.3756 -1.5602  1.4123
 8120SOL     OW41969   2.896   8.787   0.467 -0.3152 -0.0761  0.1845
 8120SOL    HW141970   2.874   8.711   0.413  0.4501 -0.3495  0.2317
 8120SOL    HW241971   2.923   8.854   0.405  0.3849 -0.3286  0.2024
 8121SOL     OW41972   2.453   1.522  11.327 -0.0645 -0.3571  0.8127
 8121SOL    HW141973   2.454   1.599  11.270 -1.6089 -0.1277  1.0388
 8121SOL    HW241974   2.508   1.545  11.401 -1.6830  1.1715  1.6166
 8122SOL     OW41975  11.817  12.134  11.182 -0.1113  0.3519 -0.5269
 8122SOL    HW141976  11.816  12.223  11.217  0.6422  0.3996 -0.5985
 8122SOL    HW241977  11.782  12.143  11.093 -0.9464  0.4138 -0.1994
 8123SOL     OW41978  11.091   4.529   6.605  0.3691  0.3810 -0.4079
 8123SOL    HW141979  11.123   4.489   6.686  0.9893  1.3428 -0.1664
 8123SOL    HW241980  10.998   4.543   6.620  0.4137  0.2392  0.0082
 8124SOL     OW41981  13.555  13.660  12.920 -0.2607  0.8076 -0.2398
 8124SOL    HW141982  13.627  13.660  12.984 -0.1991  1.5432 -0.3000
 8124SOL    HW241983  13.585  13.600  12.851 -0.5183 -0.3347  0.6183
 8125SOL     OW41984   6.502   3.352   4.721  0.2417  0.5274 -0.0756
 8125SOL    HW141985   6.441   3.291   4.679  0.7306  0.2073 -0.3234
 8125SOL    HW241986   6.446   3.425   4.750 -0.2882  0.1485 -0.1260
 8126SOL     OW41987   0.059   5.833  10.462 -0.2801 -0.3337  0.5713
 8126SOL    HW141988   0.032   5.779  10.388  0.0354 -1.2713  1.1122
 8126SOL    HW241989  -0.014   5.828  10.524  0.0905 -0.8371  0.9791
 8127SOL     OW41990  12.183  11.038  11.396 -0.0812 -0.1869  0.1001
 8127SOL    HW141991  12.094  11.065  11.371 -0.2635 -0.3625  0.5449
 8127SOL    HW241992  12.209  10.976  11.328 -0.3463 -0.2297  0.0351
 8128SOL     OW41993   8.050  13.200   4.378 -0.0369 -0.2678  0.4537
 8128SOL    HW141994   8.143  13.180   4.365  0.2282  1.0959  0.1212
 8128SOL    HW241995   8.008  13.173   4.296  0.9205  3.9346 -1.6650
 8129SOL     OW41996  12.757  10.792   6.575 -0.0517  0.6092 -0.2827
 8129SOL    HW141997  12.703  10.728   6.528  0.4505 -0.5802  0.7143
 8129SOL    HW241998  12.696  10.835   6.636 -0.5399  1.6183 -1.4403
 8130SOL     OW41999   7.850   8.228   5.768  0.4890 -0.5405 -0.5277
 8130SOL    HW142000   7.781   8.244   5.832  0.5280  0.3083 -0.6877
 8130SOL    HW242001   7.876   8.137   5.783  0.5375 -0.3393  0.7101
 8131SOL     OW42002  10.468   8.043   0.604 -0.2840 -0.0578 -0.1515
 8131SOL    HW142003  10.552   8.039   0.557  0.4768 -0.9580  1.2428
 8131SOL    HW242004  10.489   8.080   0.689 -1.6211  1.3533 -0.3796
 8132SOL     OW42005   6.364  10.079   6.616  0.4103  0.0188 -0.0813
 8132SOL    HW142006   6.398  10.168   6.627 -2.9051  1.5816 -1.1407
 8132SOL    HW242007   6.386  10.057   6.526  1.4075 -0.3654  0.2410
 8133SOL     OW42008   5.656   8.067  10.751  0.1758 -0.2935  0.1141
 8133SOL    HW142009   5.648   8.135  10.684 -0.8117  0.4618  0.9715
 8133SOL    HW242010   5.568   8.029  10.757  0.5911 -1.2969  0.0208
 8134SOL     OW42011  14.089   3.692  10.411  0.0987  0.4492 -0.2664
 8134SOL    HW142012  14.146   3.617  10.399 -0.8158 -0.1463 -1.0896
 8134SOL    HW242013  14.114   3.753  10.341  1.7838  1.5816  1.2200
 8135SOL     OW42014   7.661   5.118   5.059 -0.2824 -0.4036 -0.4593
 8135SOL    HW142015   7.746   5.152   5.029 -0.6935  1.3920  0.2377
 8135SOL    HW242016   7.612   5.100   4.979  0.0829  0.3937 -0.8756
 8136SOL     OW42017  11.281  11.738   5.302 -0.2671 -0.0861  0.0884
 8136SOL    HW142018  11.328  11.783   5.373  2.0448 -0.9070 -0.8050
 8136SOL    HW242019  11.232  11.669   5.346  2.0499 -1.3396  0.8921
 8137SOL     OW42020  10.910   1.528   2.471 -0.0199 -0.4899  0.0589
 8137SOL    HW142021  10.995   1.509   2.511  1.2734  2.6720 -0.9182
 8137SOL    HW242022  10.915   1.489   2.384 -0.3567 -1.8734  0.6226
 8138SOL     OW42023   7.325   4.003   7.959  0.4804  0.0561 -0.4101
 8138SOL    HW142024   7.260   4.057   8.004  0.6673 -0.8196  0.9427
 8138SOL    HW242025   7.298   4.006   7.867 -1.3587 -0.1114  0.0804
 8139SOL     OW42026   3.688   0.362   8.755  0.4012  0.1858  0.2321
 8139SOL    HW142027   3.703   0.456   8.748  0.7585  0.1344  0.2860
 8139SOL    HW242028   3.622   0.353   8.824 -0.4487  0.4626 -0.5278
 8140SOL     OW42029   2.309  13.498   1.299  0.7188  0.3594  0.4866
 8140SOL    HW142030   2.298  13.405   1.281 -0.0838  0.3535  0.9845
 8140SOL    HW242031   2.221  13.535   1.289  1.1095  1.1434 -0.1505
 8141SOL     OW42032   7.975   0.293   7.510 -0.2066 -0.0618 -0.1515
 8141SOL    HW142033   8.062   0.289   7.550 -0.8222 -0.3924  1.1995
 8141SOL    HW242034   7.984   0.359   7.440  0.8093  0.8278  0.7754
 8142SOL     OW42035  10.943   6.291  11.801 -0.0042  0.2522 -0.2171
 8142SOL    HW142036  10.872   6.315  11.741 -0.6948  1.1761  0.9057
 8142SOL    HW242037  10.945   6.363  11.864  2.1938  0.4275 -0.4144
 8143SOL     OW42038   1.554   9.298   0.832  0.5557  0.3885  0.1021
 8143SOL    HW142039   1.547   9.213   0.789  0.7279  1.9460 -3.3239
 8143SOL    HW242040   1.641   9.297   0.872  0.8279 -0.8077 -0.4698
 8144SOL     OW42041  12.897   2.171   0.536 -0.2042  0.2039 -0.0064
 8144SOL    HW142042  12.833   2.194   0.469 -0.5689 -0.5594  0.0606
 8144SOL    HW242043  12.857   2.096   0.582 -0.5837  1.5130  1.9373
 8145SOL     OW42044  12.690   7.332   2.233  0.2025  0.2358 -0.2805
 8145SOL    HW142045  12.698   7.238   2.220 -0.8760  0.1016 -0.0802
 8145SOL    HW242046  12.725   7.347   2.321  1.1338  0.1481 -0.6296
 8146SOL     OW42047   1.218   7.868   0.871  0.5173  0.4822  0.5266
 8146SOL    HW142048   1.283   7.820   0.819  0.5955  0.1842  0.8966
 8146SOL    HW242049   1.143   7.876   0.812 -0.2213 -1.7616  1.0378
 8147SOL     OW42050   3.736   9.687   7.639 -0.5844  0.0658  0.5546
 8147SOL    HW142051   3.658   9.682   7.583 -0.9096 -0.8930  1.0538
 8147SOL    HW242052   3.780   9.767   7.613 -2.0727  0.9681  0.6800
 8148SOL     OW42053   1.556   2.308  10.356  0.2465 -0.0709  0.3185
 8148SOL    HW142054   1.587   2.238  10.414 -0.2792  0.7589  1.6643
 8148SOL    HW242055   1.466   2.323  10.384  0.5660  1.6052  0.5426
 8149SOL     OW42056  11.043  11.348  10.607  0.1250  0.2299  0.6927
 8149SOL    HW142057  10.998  11.364  10.690  0.4220 -0.3358  0.9670
 8149SOL    HW242058  10.991  11.282  10.563 -1.6398  2.4862 -0.8743
 8150SOL     OW42059   7.476  12.348   8.358  0.6912  0.2762 -0.5676
 8150SOL    HW142060   7.472  12.253   8.348 -1.8148  0.1139  0.9794
 8150SOL    HW242061   7.465  12.383   8.269  2.1722 -0.8444 -1.2169
 8151SOL     OW42062   3.946   0.087  12.599  1.0909  0.2048 -0.2937
 8151SOL    HW142063   3.991   0.010  12.566  1.1232 -0.2038  0.6684
 8151SOL    HW242064   3.989   0.105  12.683 -0.3695 -0.0558  0.5354
 8152SOL     OW42065  10.290   4.665  10.699  0.8140  0.3183  0.1270
 8152SOL    HW142066  10.358   4.622  10.648  1.8250  1.6086  0.3126
 8152SOL    HW242067  10.216   4.673  10.640  2.2376  2.5454 -1.5122
 8153SOL     OW42068   7.844   4.860   5.652 -0.2820 -0.6076  0.0565
 8153SOL    HW142069   7.766   4.869   5.708  0.2271  0.4465  0.6236
 8153SOL    HW242070   7.906   4.811   5.706  0.2124  0.4157  0.4258
 8154SOL     OW42071   9.191  13.319   7.290  0.3463  0.5261  0.2836
 8154SOL    HW142072   9.223  13.267   7.363 -1.5509 -1.4506 -0.2046
 8154SOL    HW242073   9.184  13.257   7.217 -2.0472  1.3855 -0.3147
 8155SOL     OW42074   7.582   3.541  11.878  0.1261  0.0978 -0.1677
 8155SOL    HW142075   7.557   3.569  11.790 -0.1680  0.1498 -0.0711
 8155SOL    HW242076   7.677   3.551  11.881  0.5622 -2.6976 -1.4819
 8156SOL     OW42077   2.455   1.895   0.731  0.5223 -0.3847  0.2446
 8156SOL    HW142078   2.496   1.832   0.790  1.3616  0.0347  0.1328
 8156SOL    HW242079   2.422   1.843   0.658  2.5031 -0.5787 -0.5722
 8157SOL     OW42080   0.448  11.519   3.006 -0.8566  0.3253 -0.3985
 8157SOL    HW142081   0.473  11.504   2.915  0.6859 -0.9240  0.1820
 8157SOL    HW242082   0.514  11.473   3.057 -0.8888  2.1217  1.4009
 8158SOL     OW42083   5.786   2.203   9.651  0.4900  0.4527 -0.1834
 8158SOL    HW142084   5.855   2.268   9.637  0.2941  0.7666  0.3073
 8158SOL    HW242085   5.777   2.159   9.567  0.1807  1.4858 -0.6994
 8159SOL     OW42086  13.040  10.483   1.554 -0.8370 -0.2201  0.2754
 8159SOL    HW142087  13.016  10.524   1.472 -1.7109 -3.7554 -1.4264
 8159SOL    HW242088  13.130  10.452   1.540  0.2879  1.9317  1.9836
 8160SOL     OW42089   7.661   1.261   7.899 -0.0527 -0.3354  0.6575
 8160SOL    HW142090   7.742   1.219   7.928  1.6371  3.1672  1.5620
 8160SOL    HW242091   7.689   1.328   7.838 -2.1770  1.4042  1.4429
 8161SOL     OW42092  12.603  11.542   1.050 -0.4120 -0.2819  0.9078
 8161SOL    HW142093  12.642  11.604   1.112  0.1791 -0.6761  0.9352
 8161SOL    HW242094  12.538  11.594   1.003  1.8172  1.0756 -0.8704
 8162SOL     OW42095   0.033  14.053   9.141 -0.2921  0.2169  1.0880
 8162SOL    HW142096   0.083  13.971   9.146 -1.2111 -0.8982 -3.1895
 8162SOL    HW242097  -0.058  14.026   9.151 -0.6142  0.5700 -0.4864
 8163SOL     OW42098   3.603   7.329   1.466 -0.7575 -0.1472  0.0203
 8163SOL    HW142099   3.634   7.258   1.523 -0.0699  1.2291  1.4279
 8163SOL    HW242100   3.681   7.383   1.452 -1.1260  0.0213 -1.5502
 8164SOL     OW42101  11.505   2.715  10.736  1.0062  0.0657 -0.5615
 8164SOL    HW142102  11.560   2.774  10.685  0.3988  0.7314 -0.4804
 8164SOL    HW242103  11.454   2.774  10.792  1.4003 -0.6247  0.5499
 8165SOL     OW42104   0.108  11.772  13.338  0.1407  0.1970 -0.2215
 8165SOL    HW142105   0.198  11.782  13.308  0.5199  0.5467  0.9866
 8165SOL    HW242106   0.086  11.681  13.315  0.2981  0.5165 -1.7602
 8166SOL     OW42107  13.883   8.052   0.718 -0.2486 -0.2374 -0.2213
 8166SOL    HW142108  13.878   8.139   0.678  1.5319  0.1162  0.2315
 8166SOL    HW242109  13.928   7.999   0.653  2.6743  0.3415  1.1503
 8167SOL     OW42110   9.552  12.838   4.892  0.1066 -0.3645  0.9183
 8167SOL    HW142111   9.511  12.756   4.918 -0.5349 -0.0075  1.0555
 8167SOL    HW242112   9.604  12.864   4.968  1.7863 -1.5550  0.2238
 8168SOL     OW42113   6.383   7.399   2.258  0.4630 -0.0930  0.3889
 8168SOL    HW142114   6.428   7.339   2.199  1.6916  0.7117  0.4627
 8168SOL    HW242115   6.318   7.345   2.303  0.6731 -1.0769 -0.4545
 8169SOL     OW42116   5.031  11.102   5.319 -0.1773 -0.0867  0.2320
 8169SOL    HW142117   4.974  11.032   5.288 -1.1588  0.6703  0.2609
 8169SOL    HW242118   5.063  11.072   5.404  0.1360 -0.8757 -0.1601
 8170SOL     OW42119   2.787   8.801   8.687  0.4359 -0.3066 -0.8402
 8170SOL    HW142120   2.865   8.852   8.709  0.8526 -1.4922  0.6119
 8170SOL    HW242121   2.821   8.724   8.641  0.0432 -0.4220 -0.9387
 8171SOL     OW42122   3.587  12.889   4.100  0.1730 -0.9899  0.1690
 8171SOL    HW142123   3.547  12.896   4.014 -0.0256 -0.4033  0.3040
 8171SOL    HW242124   3.514  12.882   4.161  0.1872  1.3622  0.5334
 8172SOL     OW42125   6.371  10.162   5.002 -0.0680  0.0569 -0.3172
 8172SOL    HW142126   6.429  10.089   4.981 -0.2067 -0.2857  0.4586
 8172SOL    HW242127   6.376  10.219   4.926 -0.2398 -0.9403 -1.1064
 8173SOL     OW42128  11.847   3.929   7.910  0.9499  0.2005 -0.1634
 8173SOL    HW142129  11.931   3.909   7.867  0.3137 -1.0926 -0.8652
 8173SOL    HW242130  11.793   3.852   7.893  0.0064  0.5046  1.3061
 8174SOL     OW42131   3.778   2.604   6.750 -0.6029  0.2612  0.1587
 8174SOL    HW142132   3.760   2.610   6.844 -0.3689  0.2057  0.2078
 8174SOL    HW242133   3.873   2.614   6.743  0.0490 -4.0705  0.3209
 8175SOL     OW42134   6.501   5.610   3.467  0.0002 -0.1132 -0.4052
 8175SOL    HW142135   6.514   5.705   3.463  1.5594 -0.3159 -2.5344
 8175SOL    HW242136   6.467   5.587   3.381 -1.1741 -1.4175  0.3682
 8176SOL     OW42137   5.067   4.032   6.190  0.1590 -0.5529 -0.7316
 8176SOL    HW142138   5.089   3.973   6.262  0.2302  0.0325 -0.2618
 8176SOL    HW242139   5.143   4.028   6.132  1.6942  1.5302  0.9301
 8177SOL     OW42140   4.855  13.054   1.714  0.0504  0.3139  0.2692
 8177SOL    HW142141   4.921  13.004   1.761  1.5716 -0.0425 -2.0824
 8177SOL    HW242142   4.815  12.991   1.654  0.3587  1.3513 -1.0815
 8178SOL     OW42143   9.271  10.258   0.127 -0.5862 -0.4774  0.0098
 8178SOL    HW142144   9.358  10.291   0.103 -1.7043  1.9324 -1.1350
 8178SOL    HW242145   9.237  10.323   0.188 -1.7267 -1.1955  0.1617
 8179SOL     OW42146  11.350  10.638  11.132  0.1017 -0.3482 -0.2062
 8179SOL    HW142147  11.444  10.623  11.135  0.2663  0.6129 -0.2180
 8179SOL    HW242148  11.320  10.589  11.056  0.6613 -0.2976 -0.4646
 8180SOL     OW42149   3.287   9.873   5.762  0.0118  0.2894  0.2104
 8180SOL    HW142150   3.280   9.964   5.792  0.3206  0.2396  0.4346
 8180SOL    HW242151   3.304   9.823   5.842  0.4080  0.1025  0.0089
 8181SOL     OW42152  12.110  13.332   3.213  0.1860 -0.0618  0.3572
 8181SOL    HW142153  12.099  13.416   3.169 -0.7774 -0.0715  0.5593
 8181SOL    HW242154  12.194  13.300   3.182  0.2970  0.7104 -0.1704
 8182SOL     OW42155   8.417   1.025   2.256 -0.2048 -0.4108  0.2297
 8182SOL    HW142156   8.508   1.047   2.235  0.2677 -2.6169 -0.3215
 8182SOL    HW242157   8.409   1.043   2.350  0.8449 -0.3087  0.3100
 8183SOL     OW42158   5.977   2.954   0.513  0.3274 -0.1258 -0.2066
 8183SOL    HW142159   5.932   3.026   0.556  0.0092 -1.1510  1.2767
 8183SOL    HW242160   5.958   2.965   0.420 -0.8154  0.9254  0.1327
 8184SOL     OW42161   3.378  11.893   3.951 -0.3666  0.0987  0.4822
 8184SOL    HW142162   3.375  11.894   4.046  1.2067  1.0865  0.5551
 8184SOL    HW242163   3.387  11.800   3.928  0.7111 -0.0329  1.3757
 8185SOL     OW42164   1.469  10.178   3.204 -0.7235  0.0034  0.2060
 8185SOL    HW142165   1.454  10.097   3.154  0.2982 -0.5030  0.7043
 8185SOL    HW242166   1.551  10.213   3.170  0.3197 -0.6666  1.9042
 8186SOL     OW42167   8.401   1.146  11.807 -0.0262 -0.7250  0.5703
 8186SOL    HW142168   8.391   1.224  11.753 -0.9059 -0.1259  1.5443
 8186SOL    HW242169   8.462   1.173  11.876  0.1220 -1.0819  0.5788
 8187SOL     OW42170   9.198   1.126   8.349 -0.0243  0.3537 -0.0299
 8187SOL    HW142171   9.266   1.071   8.387  1.5525  2.7292  0.8245
 8187SOL    HW242172   9.117   1.096   8.390  0.9868 -0.3229  1.5709
 8188SOL     OW42173   5.283   3.385  13.468  0.5926 -0.7203  0.6433
 8188SOL    HW142174   5.187   3.382  13.471  0.5751  0.1857  1.0341
 8188SOL    HW242175   5.306   3.327  13.394 -0.1788 -1.9741  1.3488
 8189SOL     OW42176   9.714  13.848  13.780 -0.5541 -0.1502 -0.2249
 8189SOL    HW142177   9.676  13.936  13.785 -0.2800 -0.0562  0.3832
 8189SOL    HW242178   9.706  13.823  13.688 -1.1994  0.2599 -0.2834
 8190SOL     OW42179  13.061   8.735   2.380  0.4665 -0.1567 -0.3080
 8190SOL    HW142180  13.098   8.672   2.442  0.7807  0.5343  0.2326
 8190SOL    HW242181  13.119   8.812   2.388  0.6251 -0.1313 -1.6135
 8191SOL     OW42182   9.791   2.330  12.663 -0.1114 -0.5831 -0.2972
 8191SOL    HW142183   9.873   2.309  12.617  0.2599 -0.2788  0.2192
 8191SOL    HW242184   9.817   2.390  12.732 -0.9851  0.6508 -1.0063
 8192SOL     OW42185   1.607   3.914   8.891  0.0805 -0.2222 -0.1407
 8192SOL    HW142186   1.642   3.827   8.871  0.1159 -0.1580 -0.3625
 8192SOL    HW242187   1.572   3.906   8.979  1.3090 -0.0917  0.3775
 8193SOL     OW42188   1.605  11.134  12.186  0.2274 -0.2762 -0.0547
 8193SOL    HW142189   1.693  11.100  12.202  0.5589  0.8048  0.5006
 8193SOL    HW242190   1.552  11.102  12.259 -0.5881 -3.2868 -1.7737
 8194SOL     OW42191   3.139   0.400   4.325 -0.2524  0.5376  0.7176
 8194SOL    HW142192   3.154   0.493   4.306  2.2457  0.1746  0.4728
 8194SOL    HW242193   3.064   0.375   4.271  2.2280  1.2174 -3.5191
 8195SOL     OW42194   1.259   4.205  14.066 -0.3645  0.3062 -0.5687
 8195SOL    HW142195   1.171   4.188  14.100 -0.1931  0.6239  0.0442
 8195SOL    HW242196   1.287   4.284  14.111  0.0648  0.4534 -1.0934
 8196SOL     OW42197  10.958   7.568  13.958  0.5022 -0.3799 -0.6399
 8196SOL    HW142198  10.986   7.641  14.013  0.3675 -0.6781 -0.1671
 8196SOL    HW242199  10.994   7.490  14.002  1.5058 -0.5248 -1.6843
 8197SOL     OW42200   8.744   2.443   8.300  0.4741  0.1955  0.3741
 8197SOL    HW142201   8.673   2.473   8.357  1.4936  0.7145  1.4189
 8197SOL    HW242202   8.766   2.355   8.331  1.2498  0.6057  1.0227
 8198SOL     OW42203   8.691   4.593  13.799 -0.6532 -0.6289 -0.3207
 8198SOL    HW142204   8.633   4.645  13.855  0.4250  0.4850 -0.1915
 8198SOL    HW242205   8.667   4.620  13.710 -0.8051 -0.6963 -0.3009
 8199SOL     OW42206   5.293   3.191   5.167 -0.0546 -0.1162  0.3154
 8199SOL    HW142207   5.302   3.274   5.214  0.7320 -0.4211  0.7256
 8199SOL    HW242208   5.205   3.193   5.131 -0.5243  0.3233  1.4380
 8200SOL     OW42209  11.463   5.690  11.244 -0.1011 -0.3296 -0.3390
 8200SOL    HW142210  11.378   5.716  11.279  0.2459  2.7626 -1.4321
 8200SOL    HW242211  11.445   5.664  11.153  0.2276  2.5729 -1.3638
 8201SOL     OW42212   9.141   4.886   0.098  0.2856  0.1712  0.3511
 8201SOL    HW142213   9.175   4.809   0.053  1.6831  1.3230 -0.6582
 8201SOL    HW242214   9.057   4.858   0.134  0.3498 -1.5511 -0.7427
 8202SOL     OW42215   6.706   7.773   0.386 -0.4376  0.0093 -0.3118
 8202SOL    HW142216   6.634   7.792   0.446  1.2663 -2.3502  2.8002
 8202SOL    HW242217   6.772   7.839   0.404 -0.2011 -0.2829 -0.0915
 8203SOL     OW42218  13.795   5.529   6.043 -0.1268 -0.0036  0.4929
 8203SOL    HW142219  13.776   5.622   6.052  0.1809  0.1564 -0.4002
 8203SOL    HW242220  13.714   5.491   6.009  0.6008  0.4639 -2.0450
 8204SOL     OW42221   6.710  12.782   9.417 -0.4424 -0.2431 -0.6295
 8204SOL    HW142222   6.742  12.738   9.496 -3.5069 -0.4654  0.6409
 8204SOL    HW242223   6.769  12.857   9.405  0.8095 -0.8764  1.1501
 8205SOL     OW42224  13.045   4.953   9.153  0.3262 -0.2060 -0.0878
 8205SOL    HW142225  13.005   5.025   9.103  1.3392 -0.3674 -1.2022
 8205SOL    HW242226  12.976   4.923   9.211 -0.4636  0.9601 -0.3691
 8206SOL     OW42227  13.027  13.365  10.257 -0.1236  0.0947  0.6141
 8206SOL    HW142228  13.040  13.322  10.342  0.8032  1.5420  1.2388
 8206SOL    HW242229  12.992  13.451  10.279  1.5704  1.0832 -0.3449
 8207SOL     OW42230  11.554  13.287  11.978 -0.4888  0.5574  0.4135
 8207SOL    HW142231  11.468  13.317  12.008 -1.0370  0.6939 -1.2087
 8207SOL    HW242232  11.614  13.312  12.048 -2.0108 -1.3757  2.5426
 8208SOL     OW42233   3.618   1.576   8.541  0.4506 -0.0889  0.1833
 8208SOL    HW142234   3.673   1.505   8.574 -1.0249 -2.0086 -1.3179
 8208SOL    HW242235   3.675   1.624   8.481  1.5012  0.1318  1.3131
 8209SOL     OW42236   5.959   0.897   9.624  0.0695 -0.6574 -0.0851
 8209SOL    HW142237   5.970   0.833   9.554  0.1369 -0.8485  0.0998
 8209SOL    HW242238   5.890   0.860   9.679 -0.2082 -0.3563 -0.2214
 8210SOL     OW42239   0.060   1.703  11.836  0.2541 -0.1514  0.2689
 8210SOL    HW142240  -0.021   1.701  11.887  0.2972  0.7625  0.3732
 8210SOL    HW242241   0.121   1.754  11.889  0.5350  0.1628 -0.3473
 8211SOL     OW42242   5.455  12.522  12.803 -0.0643  0.6811 -0.6750
 8211SOL    HW142243   5.385  12.502  12.740 -0.1283 -1.6154  0.0231
 8211SOL    HW242244   5.437  12.463  12.877  2.0758  0.7093 -0.0789
 8212SOL     OW42245   3.614   2.674   5.641  0.0146 -0.4425 -0.1834
 8212SOL    HW142246   3.643   2.676   5.550  1.5087 -1.2358  0.2278
 8212SOL    HW242247   3.613   2.766   5.669 -0.8068 -0.1656 -1.0779
 8213SOL     OW42248   1.897  10.895   2.455 -0.2345  0.0216  0.2738
 8213SOL    HW142249   1.960  10.838   2.411 -1.3117 -1.5242  0.6733
 8213SOL    HW242250   1.944  10.929   2.531  0.3690 -0.4706  0.1237
 8214SOL     OW42251   3.553   2.929   4.112  0.5183 -0.4758 -0.2510
 8214SOL    HW142252   3.554   3.024   4.119  2.4275 -0.3664 -1.2581
 8214SOL    HW242253   3.465   2.908   4.082 -0.2903  0.8556  1.1017
 8215SOL     OW42254  10.112   2.209   3.598  0.5583  0.6791 -0.4609
 8215SOL    HW142255  10.076   2.279   3.653  0.2347 -0.2250  0.5112
 8215SOL    HW242256  10.034   2.168   3.560  0.7360  0.6827 -0.8285
 8216SOL     OW42257   1.545   3.349   1.583  0.1378  0.0488  0.3277
 8216SOL    HW142258   1.585   3.351   1.496 -0.7329  1.9920 -0.0813
 8216SOL    HW242259   1.602   3.293   1.635  1.0928 -0.5446 -1.2933
 8217SOL     OW42260   2.213   3.934   4.261 -0.4366  0.2335  0.2916
 8217SOL    HW142261   2.254   3.980   4.188 -3.4734  0.0142 -1.7613
 8217SOL    HW242262   2.140   3.991   4.286  0.1331 -0.0417  2.7711
 8218SOL     OW42263   2.088   9.401   7.451  0.1458  0.0096 -0.5469
 8218SOL    HW142264   2.105   9.465   7.382  2.0044 -0.3296 -0.4568
 8218SOL    HW242265   2.054   9.453   7.524  2.0834  1.0317 -0.2982
 8219SOL     OW42266   1.798   9.696   0.037 -0.0991  0.4482 -0.1272
 8219SOL    HW142267   1.780   9.790   0.039 -0.6483  0.3966 -1.6205
 8219SOL    HW242268   1.825   9.678  -0.053 -0.3845 -0.8827  0.0313
 8220SOL     OW42269   3.710   6.026   4.726 -0.3680 -0.1323  0.2861
 8220SOL    HW142270   3.755   5.990   4.649 -0.4036 -0.6189  0.4915
 8220SOL    HW242271   3.781   6.058   4.782 -0.3362  0.1160  0.1084
 8221SOL     OW42272   3.485  13.649   0.459 -0.1223  0.3455  0.6946
 8221SOL    HW142273   3.413  13.688   0.411  0.1946 -0.6973 -0.7156
 8221SOL    HW242274   3.459  13.654   0.551 -1.9255  0.1108  0.2309
 8222SOL     OW42275   4.552   0.041   2.798 -0.0096  0.1561  0.4259
 8222SOL    HW142276   4.545  -0.003   2.714  0.2976 -0.3789  0.6751
 8222SOL    HW242277   4.463   0.073   2.816 -0.2827 -0.5360  0.3337
 8223SOL     OW42278   2.782   0.605   4.563 -0.2557 -0.2408  0.3396
 8223SOL    HW142279   2.829   0.675   4.518 -0.6013 -0.5890 -0.5902
 8223SOL    HW242280   2.742   0.554   4.492 -0.5317 -1.0035  1.0334
 8224SOL     OW42281   2.915   6.693   8.854  0.5418  0.1022 -0.0520
 8224SOL    HW142282   2.894   6.663   8.942 -1.0418  2.4859  0.4804
 8224SOL    HW242283   2.834   6.732   8.822  1.2969  0.0013 -2.2944
 8225SOL     OW42284   1.770   5.345   9.375  0.2516 -0.4017  0.3775
 8225SOL    HW142285   1.760   5.394   9.293  1.3564 -1.2059 -0.2656
 8225SOL    HW242286   1.793   5.412   9.439  1.8404 -0.0325 -0.5090
 8226SOL     OW42287   6.791   8.851   2.928 -0.0831  0.4631 -0.0462
 8226SOL    HW142288   6.875   8.820   2.962  0.2276  1.4587  0.1278
 8226SOL    HW242289   6.791   8.822   2.836 -0.8698 -2.1082  0.6643
 8227SOL     OW42290  12.213   7.902   0.034 -0.2135 -0.1065  0.6066
 8227SOL    HW142291  12.285   7.935   0.088 -0.7323 -0.0610  1.2934
 8227SOL    HW242292  12.184   7.978  -0.017 -0.1821  0.0319  0.7948
 8228SOL     OW42293   3.499   5.991  11.449  0.2915 -0.2823 -0.5554
 8228SOL    HW142294   3.594   5.997  11.454  0.3285 -1.0988 -0.0587
 8228SOL    HW242295   3.481   5.897  11.441 -0.5397 -0.2720  0.8680
 8229SOL     OW42296  12.809   2.654   3.272 -0.2158 -0.4708 -0.1411
 8229SOL    HW142297  12.847   2.670   3.359 -0.5244  2.2772 -0.4151
 8229SOL    HW242298  12.860   2.581   3.237  0.1083 -1.4507  2.2140
 8230SOL     OW42299  13.072   8.903  13.367  0.6763  0.3111 -0.1821
 8230SOL    HW142300  13.030   8.965  13.308 -0.6757  1.3585  1.7578
 8230SOL    HW242301  13.156   8.944  13.388  0.4295  0.7606 -0.0648
 8231SOL     OW42302  13.859  13.343   1.809  0.7629 -0.2355 -0.5687
 8231SOL    HW142303  13.786  13.388   1.767 -0.0126 -1.0625 -0.1312
 8231SOL    HW242304  13.865  13.383   1.896  0.6276 -0.3784 -0.4928
 8232SOL     OW42305   7.236   1.166   6.980  0.2250 -0.3842  0.0849
 8232SOL    HW142306   7.235   1.071   6.995  2.6081 -0.7195 -1.2366
 8232SOL    HW242307   7.302   1.178   6.911 -0.1173  2.2367  0.1151
 8233SOL     OW42308   8.954   9.922   0.487 -0.0556  0.1738  0.6689
 8233SOL    HW142309   8.862   9.944   0.475 -0.2240 -1.1603 -0.7967
 8233SOL    HW242310   8.998  10.007   0.494 -1.1953  0.8852 -0.3283
 8234SOL     OW42311   8.816  11.806  13.631 -0.8300 -0.1831  0.2506
 8234SOL    HW142312   8.742  11.850  13.674 -0.8983  0.7395 -0.7836
 8234SOL    HW242313   8.789  11.715  13.624 -1.4234 -0.0603  0.8410
 8235SOL     OW42314   8.433  12.369  11.786 -0.5573  0.1664  0.2651
 8235SOL    HW142315   8.395  12.339  11.703 -2.3358 -0.0068  1.0933
 8235SOL    HW242316   8.491  12.441  11.761  1.3091 -1.7918 -1.4312
 8236SOL     OW42317   7.022  10.924   4.076 -0.5354  0.1314  0.0377
 8236SOL    HW142318   7.050  10.835   4.058  0.1319  0.2204  0.5941
 8236SOL    HW242319   7.103  10.972   4.095 -0.8005  1.0566 -1.0551
 8237SOL     OW42320   7.928  11.282   6.779 -0.5259  0.7132  0.1293
 8237SOL    HW142321   7.922  11.281   6.684  2.0462  0.3121 -0.1161
 8237SOL    HW242322   7.998  11.345   6.798 -0.6644  0.4312  1.7077
 8238SOL     OW42323   5.798   9.450   4.964 -0.3049  0.2658  0.0376
 8238SOL    HW142324   5.807   9.501   4.884  0.6358  1.8914  1.1199
 8238SOL    HW242325   5.871   9.389   4.963 -0.7065 -0.2137 -0.6640
 8239SOL     OW42326   3.219   3.240   3.538 -0.3493 -0.1586 -0.2608
 8239SOL    HW142327   3.219   3.144   3.538  0.7210 -0.1797 -0.7706
 8239SOL    HW242328   3.218   3.264   3.445  0.1209  0.3006 -0.1558
 8240SOL     OW42329  13.600   3.031  11.362 -0.3263  0.4292 -0.4858
 8240SOL    HW142330  13.590   2.966  11.432 -1.7012 -1.4928 -2.3539
 8240SOL    HW242331  13.680   3.077  11.385  1.2924 -2.5618  0.4891
 8241SOL     OW42332   3.388   3.809   2.158 -0.1801 -0.3274  0.3182
 8241SOL    HW142333   3.395   3.718   2.187 -1.0136  0.0570  1.8658
 8241SOL    HW242334   3.359   3.856   2.236  1.8015  1.5529  0.0106
 8242SOL     OW42335   3.111   8.632   1.056 -0.0735  0.6929  0.6665
 8242SOL    HW142336   3.155   8.607   0.975  0.8636  2.9065  0.4115
 8242SOL    HW242337   3.133   8.725   1.068  0.6685  0.2435  3.9735
 8243SOL     OW42338   4.221  12.977   7.143 -0.2472  0.0243  0.0741
 8243SOL    HW142339   4.133  13.014   7.136 -0.1613  0.4889  1.2371
 8243SOL    HW242340   4.208  12.889   7.177 -0.2821 -0.0553 -0.1427
 8244SOL     OW42341   5.201   6.283   1.427  0.6018 -0.1139  0.4326
 8244SOL    HW142342   5.284   6.257   1.387  0.2764 -0.2019 -0.1937
 8244SOL    HW242343   5.168   6.202   1.468  1.8064  0.3697  2.4943
 8245SOL     OW42344  11.341   1.063   7.997  0.0409  0.1621 -0.6282
 8245SOL    HW142345  11.395   0.997   7.954 -0.0084  1.0844 -2.1712
 8245SOL    HW242346  11.299   1.016   8.069  1.9151 -0.8739 -0.1516
 8246SOL     OW42347   7.236   2.214   3.625  0.2239  0.3406  0.6980
 8246SOL    HW142348   7.192   2.138   3.586  2.9405 -1.0469  0.1173
 8246SOL    HW242349   7.189   2.229   3.707 -1.3512 -0.9808  0.0979
 8247SOL     OW42350   1.255  11.713   4.453 -0.0836  0.2965 -0.0858
 8247SOL    HW142351   1.298  11.722   4.537 -0.6470 -1.1803  0.3954
 8247SOL    HW242352   1.167  11.681   4.474  0.5684 -2.6106 -1.2772
 8248SOL     OW42353  11.421  12.391  12.706 -0.5953  0.0976  0.2715
 8248SOL    HW142354  11.510  12.364  12.727 -0.5215 -0.1621 -0.3584
 8248SOL    HW242355  11.372  12.308  12.699 -0.8802  0.2368  0.5904
 8249SOL     OW42356   3.301  12.628   5.780  0.7933 -0.6658 -0.7194
 8249SOL    HW142357   3.339  12.625   5.868 -0.0420  0.8516 -0.2647
 8249SOL    HW242358   3.336  12.551   5.735 -0.5687 -2.7923  1.6519
 8250SOL     OW42359   7.658  10.489   6.284  0.1737  0.1156 -0.4620
 8250SOL    HW142360   7.748  10.517   6.302  0.4534 -0.6276 -0.6296
 8250SOL    HW242361   7.657  10.471   6.190 -0.8367  2.4280 -0.9327
 8251SOL     OW42362   3.527   2.325   4.274 -0.4454  0.2677 -0.2302
 8251SOL    HW142363   3.507   2.407   4.318 -0.3098  0.5739 -0.7353
 8251SOL    HW242364   3.603   2.291   4.320  1.4531  1.9552 -1.9377
 8252SOL     OW42365   1.950   2.756   8.328  0.0997  0.0193  0.4147
 8252SOL    HW142366   1.927   2.806   8.406 -0.2477  2.4038 -1.1101
 8252SOL    HW242367   1.903   2.799   8.257  1.3839 -1.2597 -1.3003
 8253SOL     OW42368  11.799   3.117  10.639  0.4932  0.4833 -0.2535
 8253SOL    HW142369  11.851   3.187  10.600 -0.0644  1.1247  0.1193
 8253SOL    HW242370  11.858   3.074  10.701  0.7433  0.8414 -0.2398
 8254SOL     OW42371   7.727  13.033   0.881  0.3798  0.0047  0.1030
 8254SOL    HW142372   7.715  13.102   0.815  1.0762 -1.1156 -1.2447
 8254SOL    HW242373   7.647  12.981   0.875  1.3416 -1.3691 -1.4549
 8255SOL     OW42374  12.572   2.220   2.223  0.6506  0.8135  0.3015
 8255SOL    HW142375  12.505   2.246   2.287  1.1071 -0.8212  1.5244
 8255SOL    HW242376  12.525   2.171   2.157  0.6625 -1.0270  1.5760
 8256SOL     OW42377   0.207   1.294   6.891  0.0040 -0.3660  0.3472
 8256SOL    HW142378   0.302   1.299   6.888 -0.0533  1.1902 -2.2029
 8256SOL    HW242379   0.181   1.366   6.949  0.3807  0.9829 -1.0873
 8257SOL     OW42380  13.724   4.325   7.448 -0.0251  0.3312 -0.5488
 8257SOL    HW142381  13.656   4.353   7.509  0.8674 -0.6373  0.9632
 8257SOL    HW242382  13.699   4.364   7.365 -1.3146  1.6777  0.4152
 8258SOL     OW42383   2.631   7.165   7.437 -0.1990 -0.6036 -0.4846
 8258SOL    HW142384   2.708   7.131   7.392 -1.2411 -0.5100 -2.4355
 8258SOL    HW242385   2.556   7.129   7.389 -1.3705  0.6646  0.2967
 8259SOL     OW42386   5.435   3.423   4.908  0.0736 -0.1088  0.1797
 8259SOL    HW142387   5.503   3.424   4.841 -0.4405  0.7189 -0.3563
 8259SOL    HW242388   5.431   3.333   4.938 -0.4255 -0.7585 -1.6871
 8260SOL     OW42389  11.485  11.184   8.725 -0.1031 -0.2307 -0.1101
 8260SOL    HW142390  11.518  11.225   8.645 -0.5705  0.3144 -0.0274
 8260SOL    HW242391  11.418  11.244   8.757  2.0382  1.0607  2.2849
 8261SOL     OW42392   0.589   9.124   8.364  0.1884  0.6950  0.0699
 8261SOL    HW142393   0.610   9.216   8.378  0.0293  0.6869  0.3646
 8261SOL    HW242394   0.672   9.078   8.376  0.1510  0.7389  0.5139
 8262SOL     OW42395   1.092   0.905  10.968 -0.5725  0.3963  0.2715
 8262SOL    HW142396   1.054   0.941  10.888 -0.5709  1.6121  0.7977
 8262SOL    HW242397   1.025   0.921  11.035 -0.5536 -0.5718  0.5356
 8263SOL     OW42398  11.468   3.953   4.158 -0.2998 -0.5137  0.1788
 8263SOL    HW142399  11.384   3.982   4.193 -0.1805 -0.3700  0.3530
 8263SOL    HW242400  11.515   3.918   4.234  0.0413 -0.0120  0.2059
 8264SOL     OW42401   4.689   0.627   9.068 -0.4415  0.2118 -0.2016
 8264SOL    HW142402   4.694   0.581   9.152  0.5593  0.1774 -0.2672
 8264SOL    HW242403   4.759   0.691   9.071 -2.1286  2.1522  0.0934
 8265SOL     OW42404  13.208  12.878   2.639  0.2303  0.1064 -0.4865
 8265SOL    HW142405  13.173  12.926   2.714 -0.4624 -2.4516  0.9342
 8265SOL    HW242406  13.298  12.910   2.631  0.0442  1.0687  0.8830
 8266SOL     OW42407  10.396   2.024   0.044  0.1823  0.0141 -0.3258
 8266SOL    HW142408  10.372   1.950   0.098 -0.4847 -0.4117 -1.1786
 8266SOL    HW242409  10.452   2.078   0.100  1.1127 -1.3843  0.1258
 8267SOL     OW42410   3.875  10.113   5.806 -0.6498  0.3762  0.1725
 8267SOL    HW142411   3.794  10.163   5.816 -1.0331 -0.5378  2.1539
 8267SOL    HW242412   3.932  10.147   5.875 -0.0767 -0.3416  0.0620
 8268SOL     OW42413   4.475  10.940   7.659  0.3567  0.2357 -0.3449
 8268SOL    HW142414   4.538  10.868   7.661 -0.0421 -0.1602 -1.5501
 8268SOL    HW242415   4.389  10.898   7.654 -0.0844  0.7613  1.6767
 8269SOL     OW42416   4.966   2.782   3.480  0.5276  0.4115 -0.1146
 8269SOL    HW142417   4.942   2.738   3.399 -2.4288 -1.6683  1.6458
 8269SOL    HW242418   5.033   2.726   3.519  1.0625  0.7425 -0.5547
 8270SOL     OW42419   2.941   7.662  12.607  0.2401 -0.6814 -0.2067
 8270SOL    HW142420   2.873   7.643  12.672 -1.3919 -1.8637 -2.1148
 8270SOL    HW242421   3.019   7.617  12.639 -0.8048 -2.0771  0.4729
 8271SOL     OW42422   2.034   9.260   5.576  0.5601  0.0413 -0.2738
 8271SOL    HW142423   1.969   9.328   5.592 -0.6496 -1.3775  1.2935
 8271SOL    HW242424   1.983   9.187   5.540  1.4965 -0.6714 -0.1905
 8272SOL     OW42425  11.811   0.645   5.121 -0.3818 -0.6165 -0.4467
 8272SOL    HW142426  11.726   0.685   5.107 -0.4401 -0.4143  0.4141
 8272SOL    HW242427  11.865   0.714   5.158  0.0671 -0.8302 -0.6895
 8273SOL     OW42428  11.932   0.086  11.764 -0.2189 -0.5586  0.4338
 8273SOL    HW142429  11.934   0.069  11.670 -1.3752  1.3320  0.0120
 8273SOL    HW242430  12.022   0.074  11.793  0.8033  1.7041 -1.5024
 8274SOL     OW42431  12.017   8.929  11.646  0.2617 -0.3183 -0.7644
 8274SOL    HW142432  11.976   8.985  11.712  2.4441  1.1440 -0.5417
 8274SOL    HW242433  12.057   8.858  11.697  0.1118 -0.3842 -0.7377
 8275SOL     OW42434   7.333   8.133  13.761 -0.0641 -0.6412  0.0616
 8275SOL    HW142435   7.261   8.195  13.758  1.0169  0.6619 -0.0773
 8275SOL    HW242436   7.357   8.128  13.854  0.2243 -0.3883  0.0030
 8276SOL     OW42437   2.304   7.554   0.403  0.2902 -0.0739 -0.0663
 8276SOL    HW142438   2.259   7.573   0.484 -0.8797 -0.1194 -0.6851
 8276SOL    HW242439   2.357   7.476   0.423  1.7210  1.1791  1.2335
 8277SOL     OW42440   6.101   1.934  13.700 -0.6435 -0.0249 -0.1096
 8277SOL    HW142441   6.058   1.856  13.734  0.0300 -0.6240 -0.6086
 8277SOL    HW242442   6.046   1.961  13.627  0.2002 -1.2349 -1.2340
 8278SOL     OW42443   2.675   9.252   4.738  0.2117 -0.2127  0.2989
 8278SOL    HW142444   2.742   9.320   4.727  1.0218 -1.0297 -0.0382
 8278SOL    HW242445   2.723   9.178   4.775 -0.3891 -0.9974 -0.4365
 8279SOL     OW42446   9.059   0.839  13.051  0.1677 -0.1128  0.1942
 8279SOL    HW142447   9.039   0.788  12.973 -1.4783 -1.7267  1.5628
 8279SOL    HW242448   9.072   0.774  13.120 -0.2980  1.2617  1.6599
 8280SOL     OW42449  11.634  11.404   3.447 -0.2032 -0.1628  0.0486
 8280SOL    HW142450  11.580  11.428   3.522  2.2279 -0.5593  2.0522
 8280SOL    HW242451  11.691  11.480   3.433  2.0380 -1.5501  1.2202
 8281SOL     OW42452   2.054   2.875   4.983 -0.1561  0.0436  0.2935
 8281SOL    HW142453   1.980   2.909   4.933  0.4377  1.1745  0.1599
 8281SOL    HW242454   2.013   2.823   5.053 -1.0402 -0.0414 -0.2705
 8282SOL     OW42455   3.693   1.999   4.267 -0.6901  0.1222  0.3121
 8282SOL    HW142456   3.655   1.938   4.204  0.4900  1.5147 -1.8878
 8282SOL    HW242457   3.617   2.041   4.308 -1.6195  1.0887 -2.1811
 8283SOL     OW42458  13.695   8.243   5.900 -0.0876 -0.2999  0.0075
 8283SOL    HW142459  13.696   8.213   5.991 -0.3220 -0.7422 -0.1354
 8283SOL    HW242460  13.613   8.209   5.864 -0.0507 -0.0287 -0.3393
 8284SOL     OW42461  11.953   2.508   4.253 -0.6484  0.2742  0.2797
 8284SOL    HW142462  12.010   2.541   4.184 -0.3588  0.7761  0.7523
 8284SOL    HW242463  11.950   2.413   4.238  1.2556  0.0799  0.9200
 8285SOL     OW42464   9.545  12.119   2.649  0.3479  0.0264  0.0303
 8285SOL    HW142465   9.626  12.169   2.647  1.4366 -1.6599 -2.0832
 8285SOL    HW242466   9.491  12.159   2.580 -0.2124  0.4655  0.7099
 8286SOL     OW42467  14.062  12.418  10.992 -0.2287  0.1613  0.2857
 8286SOL    HW142468  14.085  12.339  10.942 -0.7790  0.1220  0.0901
 8286SOL    HW242469  14.075  12.393  11.083  1.0099  0.3059  0.1612
 8287SOL     OW42470   6.008  12.502  12.739  0.7069  0.3947  0.4659
 8287SOL    HW142471   6.080  12.533  12.684  0.3791 -0.7119 -0.6406
 8287SOL    HW242472   5.945  12.466  12.677 -0.6616  1.0338  1.4387
 8288SOL     OW42473   7.265  12.562   3.387 -0.1989  0.0014 -0.1863
 8288SOL    HW142474   7.203  12.598   3.451 -0.5547 -0.7313 -0.1105
 8288SOL    HW242475   7.220  12.486   3.349  0.4304 -0.2085 -0.5377
 8289SOL     OW42476   6.209   1.628   1.496  0.0236  0.1874  0.1448
 8289SOL    HW142477   6.270   1.612   1.568 -0.4966 -1.0534  0.3219
 8289SOL    HW242478   6.145   1.558   1.502 -1.5021  1.5055  0.0266
 8290SOL     OW42479   8.137   1.927   7.114 -0.0366 -0.1144  0.6858
 8290SOL    HW142480   8.078   1.998   7.089 -1.8326 -2.5567 -2.8202
 8290SOL    HW242481   8.213   1.937   7.057  0.5218 -0.0354  1.4307
 8291SOL     OW42482  11.848  11.394  13.334 -0.0836 -0.5451  0.0805
 8291SOL    HW142483  11.933  11.432  13.355 -0.5131 -0.8485  2.5678
 8291SOL    HW242484  11.866  11.301  13.316  0.3113 -0.2370 -1.2422
 8292SOL     OW42485   3.338   6.126  12.219  0.3476 -0.4673 -0.1236
 8292SOL    HW142486   3.415   6.164  12.178  0.0587  0.0536 -0.1919
 8292SOL    HW242487   3.361   6.119  12.312  1.0570 -1.7925 -0.3880
 8293SOL     OW42488   9.911  12.587  11.788 -0.3166  0.0551 -0.8347
 8293SOL    HW142489   9.993  12.631  11.766 -0.3604 -0.2190 -1.5646
 8293SOL    HW242490   9.931  12.493  11.784  0.5881 -0.1681  3.6034
 8294SOL     OW42491   9.649   6.154   6.294  0.4975  0.0519  0.0385
 8294SOL    HW142492   9.668   6.240   6.256 -0.4079  0.6583  0.9302
 8294SOL    HW242493   9.654   6.168   6.388 -2.1611 -0.2441  0.2838
 8295SOL     OW42494  12.712  11.149   4.304 -0.1230 -0.4009 -0.3701
 8295SOL    HW142495  12.656  11.197   4.244 -1.0764 -0.6591  0.2873
 8295SOL    HW242496  12.736  11.069   4.256  1.4778  0.6787 -1.4668
 8296SOL     OW42497   1.001   6.600   4.941 -0.0406 -0.7955  0.4618
 8296SOL    HW142498   1.043   6.541   4.878  2.6048  1.9086 -0.6073
 8296SOL    HW242499   1.074   6.640   4.988 -1.4904  2.5309  0.1684
 8297SOL     OW42500   3.215   2.938   3.685 -0.7321  0.3025  0.3083
 8297SOL    HW142501   3.170   2.904   3.762  0.5691  0.1343  1.0242
 8297SOL    HW242502   3.147   2.947   3.619 -1.7013 -0.4687  1.1781
 8298SOL     OW42503   0.187   8.173  10.635  0.2557  0.1412 -0.2678
 8298SOL    HW142504   0.118   8.237  10.648  0.1900 -0.2142  1.3280
 8298SOL    HW242505   0.254   8.195  10.700  0.5299 -0.9959 -0.1428
 8299SOL     OW42506  10.952  12.156   7.089  0.3385  0.5526  0.5822
 8299SOL    HW142507  11.000  12.178   7.169  1.8128 -0.7163  0.0773
 8299SOL    HW242508  11.014  12.107   7.036 -0.9207  0.5472 -0.9524
 8300SOL     OW42509   9.139   0.656   7.599  0.2556  0.2791  0.0716
 8300SOL    HW142510   9.108   0.565   7.604  1.2008 -0.1013 -0.6170
 8300SOL    HW242511   9.116   0.684   7.511 -0.4353  0.8707  0.4352
 8301SOL     OW42512   9.506   2.988   1.167  0.8926  0.1498  0.7480
 8301SOL    HW142513   9.597   2.956   1.167  0.8957  0.0771 -0.5637
 8301SOL    HW242514   9.457   2.922   1.215  1.1807 -1.0092 -0.4759
 8302SOL     OW42515  12.052   9.481   6.054  0.5905 -0.6232  0.0874
 8302SOL    HW142516  12.032   9.535   6.131 -1.5199 -0.6457 -0.3900
 8302SOL    HW242517  12.042   9.540   5.980 -0.4742 -1.3228 -0.3559
 8303SOL     OW42518   3.095  11.687   3.001 -0.6056  0.2973  0.1336
 8303SOL    HW142519   3.165  11.664   2.941 -0.7704 -0.0114  0.0585
 8303SOL    HW242520   3.099  11.621   3.070 -0.9125  0.1926  0.0536
 8304SOL     OW42521   5.019   6.397  12.398  0.3904 -0.5942  0.0684
 8304SOL    HW142522   5.018   6.324  12.337  0.4696 -1.6211  1.2570
 8304SOL    HW242523   5.107   6.433  12.391  0.4902 -0.8867 -0.1997
 8305SOL     OW42524  10.762  10.486   5.457 -0.0361 -0.4500  0.1580
 8305SOL    HW142525  10.846  10.441   5.464  0.5078  0.1681 -1.8379
 8305SOL    HW242526  10.710  10.452   5.531  1.4979 -1.7999  0.6667
 8306SOL     OW42527  10.344   8.678   0.703  0.0258 -0.1139  0.8005
 8306SOL    HW142528  10.260   8.693   0.659  0.3233 -1.0663 -0.1334
 8306SOL    HW242529  10.378   8.598   0.664  0.7030 -0.5496  2.2159
 8307SOL     OW42530   8.206  12.188   8.596 -0.5074 -0.1458  0.8781
 8307SOL    HW142531   8.279  12.180   8.658 -0.1853  0.0301  0.5227
 8307SOL    HW242532   8.134  12.221   8.649 -0.2033  0.1011  1.1442
 8308SOL     OW42533  11.116   3.742   5.932  0.6277  0.1116 -0.4947
 8308SOL    HW142534  11.198   3.730   5.980  0.9725 -0.0788 -1.1205
 8308SOL    HW242535  11.048   3.712   5.992  0.8686  1.6113  0.5979
 8309SOL     OW42536   4.920   0.348   0.649  0.3083 -0.0001 -0.3517
 8309SOL    HW142537   4.963   0.352   0.734  2.0745 -1.7168 -1.0772
 8309SOL    HW242538   4.827   0.340   0.670  0.5341  1.2402  1.3440
 8310SOL     OW42539   0.329  12.303  13.872  0.1531  0.0615 -0.1705
 8310SOL    HW142540   0.371  12.344  13.795  2.7063 -0.5461  0.7833
 8310SOL    HW242541   0.322  12.211  13.848  0.6596 -0.0718  0.1798
 8311SOL     OW42542  11.087   5.071   0.809  0.0433  0.3233  0.8019
 8311SOL    HW142543  11.030   5.130   0.859 -2.0592 -0.0014 -1.0991
 8311SOL    HW242544  11.068   5.091   0.718 -0.4507 -2.9944  0.0721
 8312SOL     OW42545   7.262   2.382  10.382 -0.0501 -0.2173 -0.2716
 8312SOL    HW142546   7.237   2.389  10.290 -0.5992  1.1696 -0.0429
 8312SOL    HW242547   7.268   2.288  10.399 -0.9226 -0.5038 -1.4671
 8313SOL     OW42548   4.354   9.875   6.338 -0.2477  0.0334  0.3769
 8313SOL    HW142549   4.299   9.803   6.368 -0.1086  0.0031  0.5635
 8313SOL    HW242550   4.295   9.949   6.329 -0.1902  0.1874  1.2526
 8314SOL     OW42551  11.031  13.672   5.373  0.2930  0.0135 -0.3380
 8314SOL    HW142552  11.000  13.641   5.458  1.2022  0.4610  0.1690
 8314SOL    HW242553  11.001  13.605   5.311 -1.4444  0.3049  0.1382
 8315SOL     OW42554   0.758   9.531  10.870 -0.4461 -0.2304  0.4692
 8315SOL    HW142555   0.810   9.586  10.929  1.3456 -1.9851  0.6339
 8315SOL    HW242556   0.708   9.593  10.817 -0.0183  1.4633  1.9592
 8316SOL     OW42557   3.523   0.143   9.556  0.4202 -0.3121 -0.3539
 8316SOL    HW142558   3.521   0.067   9.614  0.6881 -0.1326 -0.1038
 8316SOL    HW242559   3.497   0.216   9.612  0.0035 -0.2458 -0.6335
 8317SOL     OW42560  10.086   0.791  11.793  0.3579  0.4481 -0.3993
 8317SOL    HW142561  10.039   0.721  11.837  1.9707 -0.5327 -0.1650
 8317SOL    HW242562  10.153   0.818  11.856  1.3132  0.5074 -1.4050
 8318SOL     OW42563   2.348  11.553  13.678  0.2792  0.6741  0.0404
 8318SOL    HW142564   2.373  11.627  13.732  0.6881  1.0892 -0.7000
 8318SOL    HW242565   2.252  11.550  13.683  0.3022  0.8166  0.6238
 8319SOL     OW42566   7.819   2.342   2.899 -0.3567 -0.1616 -0.5426
 8319SOL    HW142567   7.732   2.351   2.938 -0.9349 -0.6422 -1.6802
 8319SOL    HW242568   7.854   2.261   2.936 -0.4893 -0.0976 -0.2739
 8320SOL     OW42569  11.267  13.713   5.764 -0.1118  0.1450 -0.4517
 8320SOL    HW142570  11.358  13.733   5.785  0.4214 -0.8934 -1.5830
 8320SOL    HW242571  11.256  13.744   5.674 -1.2057  1.2103  0.0308
 8321SOL     OW42572  11.565  12.847   9.847  0.4616 -0.0035 -0.2194
 8321SOL    HW142573  11.620  12.875   9.773  1.2101  1.1302  0.7310
 8321SOL    HW242574  11.480  12.888   9.830  0.5542  0.0430 -0.5830
 8322SOL     OW42575   3.322   0.072   8.484  0.4685  0.2025  0.0945
 8322SOL    HW142576   3.350   0.001   8.426  1.1112 -0.2667  0.9582
 8322SOL    HW242577   3.403   0.101   8.527  0.1721  1.2997 -0.0695
 8323SOL     OW42578  10.367  12.638  10.326 -0.1872  0.2297 -0.4184
 8323SOL    HW142579  10.427  12.580  10.279 -0.4285 -0.0457 -0.3975
 8323SOL    HW242580  10.298  12.656  10.262 -0.6452 -0.3446 -0.1012
 8324SOL     OW42581   6.132   1.122   3.957 -0.2619  0.2702 -0.1490
 8324SOL    HW142582   6.171   1.035   3.945  1.3889  0.8976  0.2944
 8324SOL    HW242583   6.040   1.112   3.933 -0.5798 -2.0643  1.6699
 8325SOL     OW42584  11.550   0.987  10.022  0.2261 -0.2542  0.4065
 8325SOL    HW142585  11.519   1.062   9.972  0.0777 -1.3204 -1.1906
 8325SOL    HW242586  11.645   0.993  10.019  0.2238  0.4209  1.2096
 8326SOL     OW42587   2.409   6.463   6.259  0.1863 -0.3871 -0.4981
 8326SOL    HW142588   2.346   6.518   6.212  0.2578 -0.7778 -1.0579
 8326SOL    HW242589   2.484   6.457   6.200  1.2652  1.0561  0.6409
 8327SOL     OW42590   8.953   6.419  13.396 -0.0567 -0.1716  0.1095
 8327SOL    HW142591   8.868   6.431  13.439 -0.1003  1.2035 -0.3205
 8327SOL    HW242592   8.939   6.454  13.308  1.0401  0.3327  0.1281
 8328SOL     OW42593   4.678   5.507   0.463 -0.2386 -0.4550  0.2934
 8328SOL    HW142594   4.644   5.544   0.544 -2.7306  0.8767 -1.2369
 8328SOL    HW242595   4.717   5.581   0.417 -2.9711 -0.0438 -1.6596
 8329SOL     OW42596  12.736  12.280   1.827 -0.0108 -0.0852 -0.5907
 8329SOL    HW142597  12.829  12.286   1.804  0.0389  0.7747 -0.2119
 8329SOL    HW242598  12.722  12.188   1.850  0.5886 -0.3581 -1.2859
 8330SOL     OW42599   1.497   7.423   4.699 -0.1412 -0.1020  0.1068
 8330SOL    HW142600   1.537   7.405   4.613 -1.7829 -0.2224 -0.6644
 8330SOL    HW242601   1.566   7.404   4.762  0.1515 -3.0830 -0.9903
 8331SOL     OW42602  11.063   2.928   2.215 -0.2665  0.3853 -0.2379
 8331SOL    HW142603  10.979   2.961   2.182  0.4530  0.9101 -1.6119
 8331SOL    HW242604  11.072   2.842   2.174 -0.7061 -0.2340  0.9219
 8332SOL     OW42605   8.686  11.428   1.394 -0.0451 -0.1205 -0.3444
 8332SOL    HW142606   8.649  11.514   1.375  1.6327  0.3174 -1.9393
 8332SOL    HW242607   8.611  11.369   1.389 -1.2512  1.2269  0.9339
 8333SOL     OW42608  12.302   7.644   4.248 -0.3610 -0.2952 -0.2945
 8333SOL    HW142609  12.294   7.735   4.217 -1.0925 -0.7178 -1.4046
 8333SOL    HW242610  12.285   7.650   4.342  0.2667  0.8030 -0.2298
 8334SOL     OW42611   1.633   6.941   9.225 -0.1873 -0.5779  0.2364
 8334SOL    HW142612   1.709   6.925   9.169  0.2608  1.3011  0.2617
 8334SOL    HW242613   1.597   6.853   9.241 -0.1624 -1.2548 -2.7118
 8335SOL     OW42614   9.897   0.684   2.095 -0.4976  0.2260 -0.2384
 8335SOL    HW142615   9.921   0.726   2.178 -2.8172 -0.5132  0.8916
 8335SOL    HW242616   9.961   0.718   2.032  1.2910  0.8817  1.8002
 8336SOL     OW42617   3.133   8.595   2.291 -0.2386  0.4153 -0.2163
 8336SOL    HW142618   3.057   8.631   2.338  0.5875  1.3046  0.4810
 8336SOL    HW242619   3.189   8.561   2.361 -0.4663 -1.2446 -0.7921
 8337SOL     OW42620  12.503  13.730   9.590 -0.2279 -0.5609  0.2432
 8337SOL    HW142621  12.532  13.645   9.559 -0.0977  0.1056 -1.5351
 8337SOL    HW242622  12.426  13.710   9.645 -0.0579 -1.8244  0.0533
 8338SOL     OW42623   8.665   8.287   0.913 -0.5504 -0.1563 -0.5012
 8338SOL    HW142624   8.598   8.265   0.978 -0.6683 -1.1394 -0.9387
 8338SOL    HW242625   8.674   8.382   0.919 -0.0529 -0.2717  1.4493
 8339SOL     OW42626  12.755   5.566   0.970 -0.2478 -0.0009  0.2756
 8339SOL    HW142627  12.762   5.494   1.032 -1.6992 -0.3880  0.0332
 8339SOL    HW242628  12.757   5.645   1.024 -0.1923 -0.2879  0.6924
 8340SOL     OW42629  10.029   1.647  10.921  0.4507  0.2325  0.0334
 8340SOL    HW142630   9.939   1.636  10.952  0.3210 -0.2422 -0.4905
 8340SOL    HW242631  10.069   1.707  10.983 -0.5242  1.2657 -0.3059
 8341SOL     OW42632   3.391   9.176  12.151 -0.2010  0.2994  0.3184
 8341SOL    HW142633   3.360   9.194  12.240 -1.5576  0.9142 -0.2550
 8341SOL    HW242634   3.359   9.250  12.099  1.0263  0.2253 -0.6036
 8342SOL     OW42635   4.547   0.038  10.304  0.2711  0.0618 -0.0856
 8342SOL    HW142636   4.525   0.078  10.388  0.3862 -1.2334  0.5735
 8342SOL    HW242637   4.598  -0.039  10.326 -0.8223 -1.0543 -1.2836
 8343SOL     OW42638   3.362   9.375   1.506  0.1261  0.3014 -0.1576
 8343SOL    HW142639   3.362   9.281   1.485  0.3895  0.5434 -1.3262
 8343SOL    HW242640   3.382   9.379   1.599  2.1471 -0.7304 -0.4872
 8344SOL     OW42641   9.524   4.277   9.203  0.0862  0.2377  0.2009
 8344SOL    HW142642   9.481   4.275   9.118 -0.8625  1.2882  0.6244
 8344SOL    HW242643   9.461   4.321   9.261 -1.1250 -3.8866  2.4837
 8345SOL     OW42644  11.170  11.130   4.282 -0.1418 -0.0231  0.4132
 8345SOL    HW142645  11.085  11.173   4.274  0.5818  1.1491 -1.8467
 8345SOL    HW242646  11.228  11.198   4.314  0.7329  0.4231 -1.9148
 8346SOL     OW42647   5.151  11.901   0.766 -0.0739 -0.2808  0.5157
 8346SOL    HW142648   5.075  11.953   0.794 -0.2628  0.0920 -0.6151
 8346SOL    HW242649   5.151  11.825   0.823 -1.0308 -0.0521  0.8363
 8347SOL     OW42650  12.353   5.805  10.672  0.4425 -0.1306  0.0136
 8347SOL    HW142651  12.413   5.775  10.604  1.9423 -1.7676  1.9226
 8347SOL    HW242652  12.347   5.900  10.659  2.5515 -0.0701 -0.9620
 8348SOL     OW42653   3.983   2.946   5.477  0.0449  0.2279  0.0160
 8348SOL    HW142654   3.941   3.032   5.479  0.2006  0.3511 -1.2739
 8348SOL    HW242655   4.054   2.952   5.541 -0.4441  0.7814  0.5187
 8349SOL     OW42656  11.025   9.487   1.926 -0.3406  0.0418 -0.5376
 8349SOL    HW142657  10.989   9.549   1.990 -0.5716 -1.0494  0.4289
 8349SOL    HW242658  11.102   9.450   1.969  0.5040  0.5228 -1.5935
 8350SOL     OW42659   5.953   1.051  12.557  0.1683 -0.1044  0.3251
 8350SOL    HW142660   6.030   1.107  12.552 -0.1758  0.3581  0.0979
 8350SOL    HW242661   5.889   1.094  12.500 -0.8212  0.4196  1.7811
 8351SOL     OW42662  12.746   3.739   6.429 -0.2355  0.0760  0.1117
 8351SOL    HW142663  12.658   3.742   6.391 -0.7482  0.4171  1.2612
 8351SOL    HW242664  12.766   3.830   6.451  0.5716  0.0495 -0.4868
 8352SOL     OW42665  13.660   2.523   1.000 -0.5219 -0.0923 -0.1987
 8352SOL    HW142666  13.629   2.433   1.005 -0.9160  0.0587  0.2647
 8352SOL    HW242667  13.731   2.528   1.064 -0.7465  0.0173  0.0442
 8353SOL     OW42668   9.508  13.944   4.188 -0.5212 -0.4709  0.7631
 8353SOL    HW142669   9.508  14.029   4.144 -0.7892  0.5940  2.7040
 8353SOL    HW242670   9.600  13.924   4.203 -0.4925 -0.0301  1.1833
 8354SOL     OW42671   8.672   0.903  13.989  0.4776 -0.1345  0.1066
 8354SOL    HW142672   8.683   0.850  13.910  0.1779  0.6166 -0.4511
 8354SOL    HW242673   8.747   0.879  14.044  1.1254 -0.1140 -0.7366
 8355SOL     OW42674   8.160   1.066   9.077 -0.0547  0.2950  0.3367
 8355SOL    HW142675   8.159   1.014   8.996  1.2423  0.1343  0.4018
 8355SOL    HW242676   8.127   1.152   9.050  0.1431  0.1714 -0.3137
 8356SOL     OW42677  10.247  11.173   8.997  0.3446  0.5125 -0.2447
 8356SOL    HW142678  10.289  11.246   9.041 -0.3803  0.9709 -0.2907
 8356SOL    HW242679  10.153  11.195   8.998 -0.1583 -1.3466  1.5382
 8357SOL     OW42680   2.862   0.868   6.074  0.3409  0.1863  0.4511
 8357SOL    HW142681   2.789   0.813   6.045  1.8962 -2.0608  0.5932
 8357SOL    HW242682   2.938   0.833   6.028  1.3760  2.5188  0.2399
 8358SOL     OW42683   6.974   6.303   5.900 -0.3376  0.0385 -0.5253
 8358SOL    HW142684   6.938   6.295   5.811  1.1822  0.0802 -1.1806
 8358SOL    HW242685   7.007   6.393   5.905 -1.7034  0.5108  0.6211
 8359SOL     OW42686   6.707   3.909   0.276  0.0885  0.0132 -0.1586
 8359SOL    HW142687   6.794   3.939   0.305 -0.2363  0.4829  0.3710
 8359SOL    HW242688   6.721   3.819   0.247  0.6148 -0.1809  0.6394
 8360SOL     OW42689   1.996   3.107  10.311  0.3025 -0.5755 -0.0161
 8360SOL    HW142690   2.033   3.195  10.308 -4.5559  1.7679 -1.2730
 8360SOL    HW242691   1.984   3.089  10.404  0.2638  0.6712  0.2417
 8361SOL     OW42692   3.920   9.847   7.923 -0.2310  0.8614  0.1564
 8361SOL    HW142693   3.933   9.762   7.967  1.3416  1.0712  0.1482
 8361SOL    HW242694   3.835   9.837   7.879  0.8614 -1.5379 -1.6514
 8362SOL     OW42695  11.258   4.635   3.374  0.2778 -0.0982  0.4268
 8362SOL    HW142696  11.217   4.632   3.288  0.5242 -3.8764  0.2499
 8362SOL    HW242697  11.351   4.627   3.356  0.2181 -3.2569  0.9110
 8363SOL     OW42698   6.889   1.245   7.688  0.0657  0.3801 -0.4803
 8363SOL    HW142699   6.883   1.335   7.656  0.2022  0.5336 -0.0775
 8363SOL    HW242700   6.981   1.234   7.712  0.0585  0.1167 -0.5710
 8364SOL     OW42701   2.193   0.830   1.609  0.7891  0.1227  0.1617
 8364SOL    HW142702   2.157   0.743   1.630  0.1728  0.1141 -0.8597
 8364SOL    HW242703   2.126   0.870   1.554  2.1918  0.2382 -1.5563
 8365SOL     OW42704  12.784   1.665   1.842 -0.1784 -0.6323  0.1579
 8365SOL    HW142705  12.767   1.733   1.907  0.6738  0.1287 -0.3993
 8365SOL    HW242706  12.879   1.660   1.836 -0.2257 -1.9030  0.2109
 8366SOL     OW42707  14.064   9.432   5.092  0.1431 -0.5149  0.1704
 8366SOL    HW142708  14.039   9.368   5.025  0.7335 -0.1910 -0.3703
 8366SOL    HW242709  14.000   9.418   5.162 -0.8561 -0.4807 -0.6892
 8367SOL     OW42710   6.720   2.134   8.054 -0.0405  0.0534 -0.4110
 8367SOL    HW142711   6.647   2.158   7.998 -0.0485  1.5864  0.2220
 8367SOL    HW242712   6.698   2.170   8.140  1.3298  0.3028 -0.1436
 8368SOL     OW42713   0.459   2.398   3.795  0.7360 -0.0579 -0.1033
 8368SOL    HW142714   0.519   2.413   3.867  0.5643  0.8573 -0.1291
 8368SOL    HW242715   0.503   2.334   3.739  1.2424 -0.1309  0.3770
 8369SOL     OW42716   0.162   2.174  13.266 -0.2508  0.4718 -0.1138
 8369SOL    HW142717   0.213   2.129  13.199 -0.0672 -0.2107  0.4732
 8369SOL    HW242718   0.172   2.267  13.245  1.5285  0.3729  0.1980
 8370SOL     OW42719   8.535   7.871   7.438  0.0530 -0.2824  0.1938
 8370SOL    HW142720   8.626   7.855   7.416  0.1293 -0.6107  0.7385
 8370SOL    HW242721   8.490   7.789   7.419 -0.3038  0.1541 -0.9421
 8371SOL     OW42722   6.680   9.309   3.510 -0.1889  0.2132  0.2544
 8371SOL    HW142723   6.616   9.350   3.568  0.2749  0.5354  0.5492
 8371SOL    HW242724   6.637   9.304   3.425 -1.0553 -0.6882  0.7284
 8372SOL     OW42725  11.860  10.200   7.588 -0.2215  0.4349  0.2272
 8372SOL    HW142726  11.828  10.205   7.498  0.8861 -0.1726 -0.2181
 8372SOL    HW242727  11.786  10.228   7.642 -1.1507  0.0319 -0.8218
 8373SOL     OW42728   8.662   4.871   2.273 -0.7986 -0.6699 -0.0490
 8373SOL    HW142729   8.573   4.886   2.304 -0.5936 -0.8071  0.6157
 8373SOL    HW242730   8.706   4.828   2.346  0.3274  0.9985  0.3243
 8374SOL     OW42731  11.714  10.649   5.570 -0.0452 -0.1066 -0.2725
 8374SOL    HW142732  11.697  10.679   5.481 -0.2392  0.6184  0.0013
 8374SOL    HW242733  11.664  10.567   5.577 -0.0278 -0.1704 -0.8242
 8375SOL     OW42734   6.546   0.506   4.369  0.1617 -0.1804 -0.4058
 8375SOL    HW142735   6.599   0.521   4.447 -0.3744 -0.4333  0.0165
 8375SOL    HW242736   6.594   0.549   4.299  0.4712  0.3593  0.1259
 8376SOL     OW42737  11.651   8.625  10.929  0.1995  0.8975 -0.0933
 8376SOL    HW142738  11.721   8.689  10.917 -0.4640  1.3229 -2.0822
 8376SOL    HW242739  11.692   8.540  10.914  0.2100  1.1868 -2.0326
 8377SOL     OW42740  13.699   7.162  12.700 -0.9391  0.2698  0.4506
 8377SOL    HW142741  13.729   7.085  12.652  0.8382 -0.7534  2.9805
 8377SOL    HW242742  13.604   7.165  12.683 -0.8810 -1.8328 -0.5528
 8378SOL     OW42743   0.169   5.108   9.048  0.9379 -0.2707 -1.1136
 8378SOL    HW142744   0.258   5.138   9.030  1.3896  0.0613  1.3388
 8378SOL    HW242745   0.181   5.026   9.096 -0.0767 -0.2790 -0.8576
 8379SOL     OW42746   7.609  12.316   4.793  0.1203  0.2705  0.6731
 8379SOL    HW142747   7.659  12.269   4.859 -0.5848 -1.1283  0.2578
 8379SOL    HW242748   7.671  12.379   4.756  1.9927 -2.1474 -0.6203
 8380SOL     OW42749  11.646   5.501   9.947 -0.1730 -0.5497 -0.6746
 8380SOL    HW142750  11.590   5.577   9.964  0.8458  0.5209 -1.8748
 8380SOL    HW242751  11.636   5.446  10.025  1.3664  2.2468  1.7384
 8381SOL     OW42752   0.496   2.200   8.611  0.4022 -0.5985 -0.5245
 8381SOL    HW142753   0.556   2.148   8.664  1.4778  0.8292 -0.2810
 8381SOL    HW242754   0.409   2.176   8.643  0.9761 -0.4448  1.2850
 8382SOL     OW42755  13.791   6.233   1.626  0.5973  0.4419 -0.0537
 8382SOL    HW142756  13.763   6.165   1.564 -1.0527  1.2033 -0.2024
 8382SOL    HW242757  13.710   6.263   1.667  1.6824 -0.2827  2.7930
 8383SOL     OW42758   5.495   1.182   4.484 -0.3673  0.0161 -0.1611
 8383SOL    HW142759   5.582   1.216   4.463 -1.2784  1.9346 -1.0635
 8383SOL    HW242760   5.481   1.111   4.420  1.5648 -2.2639  1.7558
 8384SOL     OW42761   7.348   9.391   3.620 -0.5416  0.3190 -0.1161
 8384SOL    HW142762   7.345   9.366   3.712 -1.4874  0.6819 -0.0387
 8384SOL    HW242763   7.257   9.388   3.591 -0.0810 -1.9353 -1.6345
 8385SOL     OW42764  12.264   8.177   7.231 -0.1001  0.1153  0.0890
 8385SOL    HW142765  12.238   8.254   7.282  0.8211  0.1478  0.5343
 8385SOL    HW242766  12.318   8.126   7.292 -0.1636 -0.5518 -0.4146
 8386SOL     OW42767   0.811   4.661   9.603  0.5891 -0.3118  0.1450
 8386SOL    HW142768   0.843   4.719   9.672  0.3794  0.7919 -0.6477
 8386SOL    HW242769   0.889   4.614   9.573  0.9797  0.3647  0.0698
 8387SOL     OW42770   3.033  12.895   9.204  0.1509 -0.1748  0.0963
 8387SOL    HW142771   3.036  12.973   9.148 -0.0346 -0.1381  0.1379
 8387SOL    HW242772   3.116  12.896   9.251  0.2953 -0.1904 -0.1586
 8388SOL     OW42773   0.948   1.531   7.982 -0.0638 -0.2832  0.9620
 8388SOL    HW142774   0.963   1.588   8.057 -1.7860  0.4673  0.7767
 8388SOL    HW242775   0.868   1.483   8.004 -2.3259  2.0337 -1.5236
 8389SOL     OW42776   4.679  12.911   2.233  0.2492  0.5750  0.0834
 8389SOL    HW142777   4.748  12.886   2.171  0.7913  1.9351  0.0853
 8389SOL    HW242778   4.604  12.858   2.209  0.8641  0.1088 -0.8669
 8390SOL     OW42779   7.838  10.785   0.098  0.4061  0.0608 -0.0976
 8390SOL    HW142780   7.856  10.709   0.153 -0.6762  0.6516  1.1183
 8390SOL    HW242781   7.820  10.856   0.160 -2.2263  0.4350 -1.1570
 8391SOL     OW42782   5.940   4.146   3.254  0.3641  0.1050 -0.0424
 8391SOL    HW142783   6.014   4.095   3.220  0.2705  0.6275 -1.0798
 8391SOL    HW242784   5.931   4.117   3.345  1.1000 -0.8114 -0.2387
 8392SOL     OW42785   6.362  12.340  13.804  0.0996 -0.3686 -0.2594
 8392SOL    HW142786   6.414  12.398  13.747  1.0403 -0.3638  0.5739
 8392SOL    HW242787   6.358  12.385  13.888 -1.6661 -0.1695 -0.4307
 8393SOL     OW42788   4.841   8.521  13.524  0.4633 -0.2725 -0.1115
 8393SOL    HW142789   4.771   8.462  13.498  1.4302 -2.7921  2.4423
 8393SOL    HW242790   4.802   8.577  13.591  0.3699 -0.2657 -0.1718
 8394SOL     OW42791   2.662   8.341  11.257  0.2895 -0.1822  0.1485
 8394SOL    HW142792   2.638   8.429  11.287 -1.0668 -0.0308 -1.2705
 8394SOL    HW242793   2.739   8.355  11.203  1.9909 -0.3067  2.3799
 8395SOL     OW42794  13.675   5.618  11.320  0.4021 -0.3234  0.0790
 8395SOL    HW142795  13.723   5.536  11.309 -0.0339 -0.4024 -1.4799
 8395SOL    HW242796  13.727   5.683  11.273 -1.0195 -0.4460 -1.7958
 8396SOL     OW42797   0.216   4.933   7.362 -0.3023 -0.1598 -0.4576
 8396SOL    HW142798   0.166   4.912   7.441  0.2516  1.0941  0.2578
 8396SOL    HW242799   0.233   5.027   7.369  0.2664 -0.1486 -1.7813
 8397SOL     OW42800  13.579   9.645   6.725 -0.1225  0.6520  0.3577
 8397SOL    HW142801  13.671   9.656   6.700 -0.2460  1.7536  0.3277
 8397SOL    HW242802  13.573   9.685   6.811 -0.1627 -1.2357  1.2856
 8398SOL     OW42803  13.345   0.309  12.448  0.3066 -0.0673  0.3307
 8398SOL    HW142804  13.310   0.232  12.404  1.1644  1.4725 -3.4669
 8398SOL    HW242805  13.269   0.360  12.473 -0.2507 -0.6224 -0.2052
 8399SOL     OW42806  12.122   8.968   0.913 -0.9379  0.2427  0.2741
 8399SOL    HW142807  12.139   8.914   0.990  0.5608 -2.1626 -1.6044
 8399SOL    HW242808  12.189   9.035   0.916 -1.0024  0.2860  1.1367
 8400SOL     OW42809  10.737  13.987   5.305  0.0434 -0.0017  0.2004
 8400SOL    HW142810  10.798  13.933   5.255 -1.1132 -1.3848  0.2205
 8400SOL    HW242811  10.652  13.972   5.264 -1.0917 -1.6860  2.8696
 8401SOL     OW42812   9.737   8.521  13.273 -0.0679 -0.8381 -0.1718
 8401SOL    HW142813   9.768   8.430  13.280  0.2177 -0.7983 -0.8236
 8401SOL    HW242814   9.797   8.562  13.210 -0.2186 -0.2045  0.0890
 8402SOL     OW42815   1.341   0.242   6.297  0.0515 -0.2150  0.4024
 8402SOL    HW142816   1.257   0.195   6.302  0.4668 -0.8308  2.3524
 8402SOL    HW242817   1.321   0.330   6.327 -0.0221 -0.1686  0.2193
 8403SOL     OW42818   8.586   2.583   3.184 -0.1937  0.4987  0.0705
 8403SOL    HW142819   8.627   2.513   3.235 -0.1440  1.4911  1.4496
 8403SOL    HW242820   8.550   2.539   3.107  0.1503 -0.9771  0.7186
 8404SOL     OW42821   6.299  13.724  13.554  0.2046 -0.2889 -0.5175
 8404SOL    HW142822   6.329  13.750  13.641 -0.9877  0.1892 -0.2203
 8404SOL    HW242823   6.267  13.805  13.515  1.4123 -0.3528 -1.7187
 8405SOL     OW42824  13.452   3.036   9.624 -0.4513  0.2440 -0.2824
 8405SOL    HW142825  13.501   3.117   9.610  0.9823 -0.3531  0.9716
 8405SOL    HW242826  13.372   3.047   9.573 -0.1624  2.3159 -0.3703
 8406SOL     OW42827   2.496  13.496   6.158  0.6110  0.1543 -0.8938
 8406SOL    HW142828   2.422  13.502   6.099  0.2035 -0.1021 -0.4150
 8406SOL    HW242829   2.560  13.558   6.122 -0.8594  2.4429  0.1498
 8407SOL     OW42830   0.914   1.892   6.150 -0.1874 -0.0426 -0.0784
 8407SOL    HW142831   0.847   1.960   6.163 -0.6488 -0.5883  0.4565
 8407SOL    HW242832   0.864   1.810   6.147  0.4458 -0.4394  0.1074
 8408SOL     OW42833   7.123  13.017  13.832  0.5283  0.0801 -0.5414
 8408SOL    HW142834   7.071  13.085  13.875 -2.4253 -1.7400 -0.9366
 8408SOL    HW242835   7.167  12.972  13.903  0.9372  1.1340 -0.0982
 8409SOL     OW42836   8.493   2.994   6.387 -0.2586  0.2859  0.5671
 8409SOL    HW142837   8.429   2.981   6.456  0.2307 -1.3408  0.7631
 8409SOL    HW242838   8.564   3.043   6.428 -0.7354  0.8394  0.7355
 8410SOL     OW42839  14.013  14.057  11.417 -0.3210 -0.6252 -0.5670
 8410SOL    HW142840  14.004  14.070  11.511 -0.2400 -0.6607 -0.5547
 8410SOL    HW242841  14.065  14.132  11.387  0.7847 -1.2902 -0.3812
 8411SOL     OW42842   0.046   4.939   8.840 -0.2645 -0.0414 -0.4109
 8411SOL    HW142843   0.097   4.990   8.903 -0.1977 -0.5511 -0.0477
 8411SOL    HW242844   0.058   4.985   8.757 -0.4922  0.7351 -0.0252
 8412SOL     OW42845   4.036  10.442   0.872 -0.0489 -0.3122 -0.4030
 8412SOL    HW142846   4.116  10.463   0.920 -0.2318  1.0988 -0.6699
 8412SOL    HW242847   4.060  10.452   0.780 -0.6472  0.6782 -0.4718
 8413SOL     OW42848   4.351  13.395  11.436 -0.4895 -0.5142 -0.4383
 8413SOL    HW142849   4.440  13.368  11.459 -0.5645  1.2667  2.3685
 8413SOL    HW242850   4.304  13.313  11.421  1.3148 -1.5282 -0.9248
 8414SOL     OW42851   7.106   9.194   1.415  0.1694 -0.5002  0.3899
 8414SOL    HW142852   7.012   9.205   1.408  0.1157 -0.9997  0.3312
 8414SOL    HW242853   7.125   9.207   1.508 -0.1669 -1.9691  0.6867
 8415SOL     OW42854   1.072   3.211   2.468  0.1632 -0.7859  0.3984
 8415SOL    HW142855   1.083   3.248   2.381  0.7443  1.2993  1.2895
 8415SOL    HW242856   0.983   3.234   2.494  0.4702 -0.1314  0.8955
 8416SOL     OW42857  10.878   3.025  13.604 -0.8532  0.1808 -0.2184
 8416SOL    HW142858  10.970   2.998  13.600 -0.5996  1.0229 -0.3732
 8416SOL    HW242859  10.849   3.027  13.513 -1.2552 -0.7873 -0.1278
 8417SOL     OW42860  12.637  10.761   8.564  0.0544  0.2605  0.3130
 8417SOL    HW142861  12.695  10.826   8.604 -1.2653  0.4189  2.0915
 8417SOL    HW242862  12.549  10.797   8.575 -0.4169  0.4915 -3.2041
 8418SOL     OW42863   3.643   9.367   4.689  0.1050  0.0954  0.1853
 8418SOL    HW142864   3.600   9.424   4.752  1.4637  1.5412 -0.1318
 8418SOL    HW242865   3.663   9.287   4.739  0.2058  0.7980  1.2963
 8419SOL     OW42866   8.613   1.515   0.952  0.4451  0.0379  0.4365
 8419SOL    HW142867   8.696   1.561   0.941  0.5265 -0.4297 -1.1576
 8419SOL    HW242868   8.546   1.578   0.925  0.4724 -0.3624 -0.6056
 8420SOL     OW42869   2.363  10.649   5.895  0.3497 -0.1214 -0.7833
 8420SOL    HW142870   2.404  10.689   5.971 -1.2015  2.0554 -1.0033
 8420SOL    HW242871   2.380  10.710   5.823 -0.2784 -0.9169 -1.6472
 8421SOL     OW42872  10.842  11.701   5.314 -0.3614 -0.3426  0.2624
 8421SOL    HW142873  10.858  11.792   5.290 -1.3336  0.3838  2.2048
 8421SOL    HW242874  10.750  11.687   5.294 -0.1730 -0.9671 -0.1908
 8422SOL     OW42875  10.972   9.846   2.982  0.6865  0.1818 -0.1163
 8422SOL    HW142876  11.046   9.840   2.921  0.8038 -1.3521  0.1300
 8422SOL    HW242877  10.952   9.755   3.004 -0.9853  0.5928  0.1924
 8423SOL     OW42878   8.472   9.003   1.206  0.0083  0.7846 -0.0177
 8423SOL    HW142879   8.497   8.910   1.209  0.8667  1.0031 -0.0007
 8423SOL    HW242880   8.377   9.002   1.206 -0.0304 -0.0627  1.6065
 8424SOL     OW42881   1.528  12.203   1.974 -0.7333  0.4455  0.3579
 8424SOL    HW142882   1.504  12.244   2.057  0.1993 -1.0366  1.4302
 8424SOL    HW242883   1.514  12.110   1.989 -0.1834  0.1156 -1.0324
 8425SOL     OW42884   2.245  10.279   5.207  0.3327  0.1960 -0.7001
 8425SOL    HW142885   2.260  10.327   5.288 -0.0277  0.8457 -1.0178
 8425SOL    HW242886   2.326  10.290   5.157  0.2084  0.5695 -0.8206
 8426SOL     OW42887  10.531   9.770   2.173  0.3145  0.0628 -0.4854
 8426SOL    HW142888  10.477   9.706   2.218  0.5788 -0.6169 -1.1077
 8426SOL    HW242889  10.587   9.807   2.242  0.3797 -0.6054 -0.1747
 8427SOL     OW42890   9.583  10.167   4.730  0.3298 -0.4910  0.0501
 8427SOL    HW142891   9.528  10.127   4.798  1.9754  0.3541  2.0020
 8427SOL    HW242892   9.570  10.261   4.742  0.1652 -0.3315 -1.2764
 8428SOL     OW42893   2.483  10.213  14.042  0.2529 -0.3972 -0.1491
 8428SOL    HW142894   2.523  10.162  13.972  0.3728  0.3329 -0.6180
 8428SOL    HW242895   2.483  10.303  14.010 -1.7899 -0.3587 -0.1921
 8429SOL     OW42896  12.398   1.628   1.323 -0.7889 -0.0842 -0.3669
 8429SOL    HW142897  12.436   1.633   1.411  0.0957 -0.2008 -0.7327
 8429SOL    HW242898  12.304   1.627   1.338 -0.7388  2.4467  0.4737
 8430SOL     OW42899  13.991   3.944  11.797  0.5532  0.3054  0.3941
 8430SOL    HW142900  13.985   3.920  11.705 -1.1678 -0.7400  0.7294
 8430SOL    HW242901  14.071   3.901  11.828 -0.1989 -1.5332 -0.0591
 8431SOL     OW42902  12.719   2.592   1.525  0.1381  0.1402 -0.2127
 8431SOL    HW142903  12.734   2.669   1.580  0.9556  0.5190 -0.9397
 8431SOL    HW242904  12.625   2.575   1.532  0.1413  0.4990  0.8653
 8432SOL     OW42905   4.526  11.450   0.786  0.5320 -0.1481 -0.6646
 8432SOL    HW142906   4.477  11.530   0.768 -1.2804 -0.6138  1.6781
 8432SOL    HW242907   4.600  11.478   0.839 -1.3928 -0.1136  2.2460
 8433SOL     OW42908  10.625   1.866   7.425 -0.6968  1.1566 -0.3713
 8433SOL    HW142909  10.609   1.776   7.394 -2.3709  1.3373 -0.0988
 8433SOL    HW242910  10.665   1.910   7.350 -1.5959  0.6753 -1.1484
 8434SOL     OW42911   8.616   3.385   6.340  0.1076 -0.1998  0.3350
 8434SOL    HW142912   8.535   3.337   6.357 -0.1696 -0.0155 -0.4020
 8434SOL    HW242913   8.655   3.339   6.265 -0.0307  0.5526 -0.2071
 8435SOL     OW42914   6.821   8.018   8.114 -0.3344 -0.3940  0.5603
 8435SOL    HW142915   6.851   7.932   8.142 -0.6299 -0.6044  0.2377
 8435SOL    HW242916   6.772   8.002   8.033 -0.8247  0.0139  0.7687
 8436SOL     OW42917   6.218   5.528   7.582  0.4111 -0.1700  0.0487
 8436SOL    HW142918   6.309   5.521   7.553 -0.2225  0.6711 -2.3608
 8436SOL    HW242919   6.194   5.619   7.563 -1.4159 -0.8308 -0.9760
 8437SOL     OW42920   4.150   5.977   6.136 -0.1057 -0.5742  0.8306
 8437SOL    HW142921   4.161   6.026   6.055 -1.3253 -3.1283 -1.0462
 8437SOL    HW242922   4.198   6.027   6.202 -0.7054  2.6637 -0.9973
 8438SOL     OW42923   4.421   0.101  12.699  0.1396  0.8279  0.6043
 8438SOL    HW142924   4.508   0.136  12.681  0.3357 -0.1664 -0.5315
 8438SOL    HW242925   4.408   0.033  12.632 -0.4699 -0.8387  2.3349
 8439SOL     OW42926   3.429  10.544  10.655 -0.5141 -0.0030  0.1384
 8439SOL    HW142927   3.443  10.568  10.747  0.5426 -1.5259  0.4126
 8439SOL    HW242928   3.333  10.541  10.646 -0.6666  1.9097  0.6684
 8440SOL     OW42929  11.838   2.528   2.405 -0.1534 -0.5684 -0.3028
 8440SOL    HW142930  11.787   2.451   2.378 -0.9551  0.4190 -1.7773
 8440SOL    HW242931  11.928   2.496   2.411 -0.6263 -1.8543  0.1765
 8441SOL     OW42932   6.763  11.911   5.132  0.7609  0.0101 -0.7253
 8441SOL    HW142933   6.820  11.845   5.173  0.3460 -0.0850 -0.2924
 8441SOL    HW242934   6.789  11.911   5.040 -0.3906 -2.0193 -1.1233
 8442SOL     OW42935   9.361  12.888   2.842 -0.7161  0.0109 -0.4496
 8442SOL    HW142936   9.428  12.822   2.825  1.4082  2.0708 -0.6419
 8442SOL    HW242937   9.291  12.868   2.779  1.0858 -0.4650 -2.4330
 8443SOL     OW42938  10.043   4.246   9.768  0.3022  0.1100  0.0939
 8443SOL    HW142939   9.959   4.214   9.736  0.8171 -1.3627  0.1385
 8443SOL    HW242940  10.088   4.278   9.689 -0.0030  0.1998 -0.0442
 8444SOL     OW42941  12.994  12.249   2.077  0.0515 -0.1463 -0.3140
 8444SOL    HW142942  12.916  12.293   2.110 -1.4046 -2.6348 -0.1743
 8444SOL    HW242943  13.011  12.179   2.141  1.7787 -0.3033 -0.8884
 8445SOL     OW42944   2.885  13.792   8.901 -0.0886  0.7079  0.2334
 8445SOL    HW142945   2.850  13.803   8.813 -0.0970 -0.9129 -0.0038
 8445SOL    HW242946   2.853  13.867   8.950 -0.5270  1.3480 -1.0137
 8446SOL     OW42947  13.653  10.804   3.807 -0.7055  0.1033  0.1455
 8446SOL    HW142948  13.564  10.830   3.834 -1.4158 -2.1927  0.2532
 8446SOL    HW242949  13.680  10.741   3.874  0.2873 -0.5521 -0.8440
 8447SOL     OW42950   6.166  12.276   7.813 -0.1828 -0.0777 -0.7610
 8447SOL    HW142951   6.184  12.203   7.753  0.9506 -1.6600  1.3679
 8447SOL    HW242952   6.199  12.246   7.898  1.4131  3.3713  0.0305
 8448SOL     OW42953   2.615   5.105  13.457 -0.1202 -0.0945 -0.5130
 8448SOL    HW142954   2.683   5.134  13.517 -0.6356  0.5611 -0.2241
 8448SOL    HW242955   2.557   5.051  13.510 -0.4918  0.3587 -0.4476
 8449SOL     OW42956   7.563   9.746  13.878 -0.1367  0.7608  0.1409
 8449SOL    HW142957   7.601   9.803  13.812  0.0085  1.3449  0.7145
 8449SOL    HW242958   7.468   9.755  13.865 -0.1572  2.0213  0.9261
 8450SOL     OW42959   1.291   0.277   3.132  0.0434 -0.9312 -0.6090
 8450SOL    HW142960   1.384   0.298   3.123 -0.0497 -0.4367 -0.4496
 8450SOL    HW242961   1.271   0.292   3.224 -0.9367  2.1685 -1.2260
 8451SOL     OW42962   2.170   9.842   4.769  0.1008  0.5380 -0.4138
 8451SOL    HW142963   2.173   9.796   4.685  0.3966  0.7222 -0.5082
 8451SOL    HW242964   2.089   9.812   4.810  0.8517 -0.9580  0.0347
 8452SOL     OW42965   9.872  12.513   3.907 -0.1001 -0.3829 -0.0049
 8452SOL    HW142966   9.892  12.586   3.848  0.4322 -0.7120 -0.2444
 8452SOL    HW242967   9.780  12.494   3.893 -0.1049 -0.1070 -0.3408
 8453SOL     OW42968   1.843   6.560  10.546 -0.1304 -0.9305  0.0133
 8453SOL    HW142969   1.902   6.506  10.600 -1.3961  0.0402  2.5082
 8453SOL    HW242970   1.890   6.642  10.534  0.0310 -1.0407 -0.1192
 8454SOL     OW42971   9.131   8.665   3.064 -0.4556  0.0826 -0.5751
 8454SOL    HW142972   9.136   8.599   2.995  1.5524 -2.1540  1.4873
 8454SOL    HW242973   9.075   8.625   3.131 -0.5275  1.1953  0.0572
 8455SOL     OW42974   7.237  11.467   7.946  0.3595 -0.5713  0.1082
 8455SOL    HW142975   7.235  11.563   7.947  0.0192 -0.5780  0.8919
 8455SOL    HW242976   7.145  11.442   7.954  0.2135 -0.9847 -2.0842
 8456SOL     OW42977   6.368   5.348  11.015  0.0095 -0.4658  0.6808
 8456SOL    HW142978   6.368   5.440  10.991  1.7673 -0.4926  0.4909
 8456SOL    HW242979   6.376   5.347  11.110 -0.0577 -0.4345  0.6872
 8457SOL     OW42980   1.111   5.502  12.901 -0.4323 -0.3993  0.0082
 8457SOL    HW142981   1.082   5.514  12.991  0.2311  0.9131  0.0783
 8457SOL    HW242982   1.140   5.590  12.874 -1.1080 -0.6464 -1.6484
 8458SOL     OW42983  11.254  11.840  11.907 -0.3194 -0.1182  0.3812
 8458SOL    HW142984  11.324  11.869  11.964  0.6200  0.4504 -1.0097
 8458SOL    HW242985  11.175  11.880  11.944  0.0580 -0.7121  1.9226
 8459SOL     OW42986   4.353   6.124  13.781 -0.1959  0.3092 -0.0071
 8459SOL    HW142987   4.323   6.168  13.701  0.4127  2.4525  0.8635
 8459SOL    HW242988   4.371   6.196  13.842  0.2802 -1.2222  1.7412
 8460SOL     OW42989   9.476   2.719  12.914 -0.1079 -0.2165 -0.2011
 8460SOL    HW142990   9.489   2.738  12.821  0.5955 -1.2129 -0.3164
 8460SOL    HW242991   9.561   2.736  12.954 -0.6210  1.0668  0.4400
 8461SOL     OW42992   6.067   4.425   2.112  0.2680  0.0558  0.3411
 8461SOL    HW142993   6.143   4.464   2.069 -0.3902  0.9637 -0.0218
 8461SOL    HW242994   6.026   4.497   2.159  0.7953 -0.8568  2.2875
 8462SOL     OW42995   3.249  11.143   5.830 -0.1681 -0.0042 -0.6478
 8462SOL    HW142996   3.296  11.080   5.884 -2.3479 -1.0144  0.1655
 8462SOL    HW242997   3.237  11.100   5.746 -0.4152 -0.1026 -0.5621
 8463SOL     OW42998  13.755   4.698   7.341 -0.4083 -0.2977  0.1882
 8463SOL    HW142999  13.724   4.729   7.256 -1.0075 -1.4865 -0.0550
 8463SOL    HW243000  13.843   4.665   7.325 -0.2530  0.1175  0.1816
 8464SOL     OW43001   6.452   9.791   8.603  0.4789  0.5873  0.0178
 8464SOL    HW143002   6.378   9.848   8.581  1.0826  1.5884  0.4818
 8464SOL    HW243003   6.479   9.820   8.690  1.4411  0.2617 -0.1624
 8465SOL     OW43004   4.000   4.381  10.419  0.8159  0.5040  1.0586
 8465SOL    HW143005   4.040   4.372  10.333 -0.5102 -0.8132  0.5429
 8465SOL    HW243006   3.948   4.301  10.430  3.2057 -0.8007  4.3220
 8466SOL     OW43007   2.749   1.366   9.400 -0.4731  0.0649 -0.2877
 8466SOL    HW143008   2.714   1.295   9.346 -1.0926  2.4882 -3.3955
 8466SOL    HW243009   2.844   1.350   9.402 -0.4082 -0.1467 -2.2619
 8467SOL     OW43010  12.916   9.319   6.588 -0.1078 -0.3363  0.2624
 8467SOL    HW143011  12.966   9.248   6.548 -0.6763 -0.1009 -0.9156
 8467SOL    HW243012  12.857   9.349   6.519 -0.0252  1.1492  0.7896
 8468SOL     OW43013   1.781   8.183   3.148  0.0754 -0.1860 -0.5170
 8468SOL    HW143014   1.727   8.219   3.218  0.1582  0.7969 -0.9466
 8468SOL    HW243015   1.824   8.107   3.188 -0.4670 -0.0956  0.2628
 8469SOL     OW43016   8.328  10.034   5.834  0.4926 -0.8011 -0.5629
 8469SOL    HW143017   8.325  10.126   5.808  3.6219 -0.6143 -0.5849
 8469SOL    HW243018   8.239  10.002   5.818 -0.5042  2.0055 -1.2299
 8470SOL     OW43019   0.100   6.876   0.352  0.3684 -0.6243 -0.4570
 8470SOL    HW143020   0.060   6.789   0.344 -0.2756 -0.5466  1.4383
 8470SOL    HW243021   0.030   6.937   0.329  0.3421 -0.5760 -0.2544
 8471SOL     OW43022  10.393   9.268   9.108 -0.3218  0.4605  0.2189
 8471SOL    HW143023  10.308   9.312   9.119  0.0814  1.1951  0.4490
 8471SOL    HW243024  10.410   9.273   9.014 -1.2454 -1.0635 -0.0683
 8472SOL     OW43025  10.869   2.426   0.296  0.3088 -0.4700 -0.7134
 8472SOL    HW143026  10.948   2.480   0.291  0.4695 -0.7791 -1.5851
 8472SOL    HW243027  10.799   2.488   0.319  0.7162 -0.1170 -0.4160
 8473SOL     OW43028   2.137   0.354   7.349  0.2932 -0.2746 -0.3699
 8473SOL    HW143029   2.206   0.384   7.290 -2.3715  1.3519 -2.9401
 8473SOL    HW243030   2.091   0.286   7.300 -1.8002  0.8682 -0.0810
 8474SOL     OW43031   5.563  10.456   2.419 -0.3650 -0.1573 -0.7730
 8474SOL    HW143032   5.605  10.540   2.403  0.2025 -0.2725  0.0780
 8474SOL    HW243033   5.602  10.424   2.501 -2.7121  0.1471  0.5596
 8475SOL     OW43034   8.532  12.081  13.037 -0.2832  0.5729  0.8711
 8475SOL    HW143035   8.479  12.003  13.051  0.4271  0.3577  2.5310
 8475SOL    HW243036   8.532  12.092  12.942 -0.7367 -1.2131  0.6187
 8476SOL     OW43037   6.946   0.882   8.836 -0.2067 -0.4663 -0.7915
 8476SOL    HW143038   6.880   0.919   8.778 -0.0232 -2.4096 -2.3725
 8476SOL    HW243039   7.029   0.909   8.799 -0.0737  0.9230  0.4601
 8477SOL     OW43040   7.655   6.647   2.885 -0.3170  0.1124  0.0173
 8477SOL    HW143041   7.598   6.699   2.828 -1.6333 -2.1125 -0.8320
 8477SOL    HW243042   7.738   6.694   2.885 -0.9054  1.2950 -2.0806
 8478SOL     OW43043  13.017   3.635  11.505  0.5766  0.3586  0.3411
 8478SOL    HW143044  12.942   3.648  11.563  0.8519 -1.1896  1.1231
 8478SOL    HW243045  13.071   3.712  11.518 -0.1432  0.7780  0.9322
 8479SOL     OW43046   0.810   7.556  10.217  0.4149  0.3696  0.5279
 8479SOL    HW143047   0.864   7.538  10.294  1.5811 -2.0348 -0.7424
 8479SOL    HW243048   0.720   7.549  10.249  0.8695 -1.3280  1.5734
 8480SOL     OW43049  10.238   7.712   4.483  0.2673  0.0918  0.8988
 8480SOL    HW143050  10.300   7.657   4.435  0.8091  1.4810 -0.0368
 8480SOL    HW243051  10.157   7.707   4.432 -0.5165 -1.8430  2.2003
 8481SOL     OW43052  13.719  10.025   5.979 -0.4314 -0.0045 -0.0178
 8481SOL    HW143053  13.808   9.995   5.960 -0.8310 -1.0569 -0.2281
 8481SOL    HW243054  13.710  10.013   6.074  0.4539  2.3293  0.4474
 8482SOL     OW43055  10.645   8.522  11.562  0.1797  0.7733 -0.1739
 8482SOL    HW143056  10.662   8.428  11.571 -2.5114  0.3041  1.1392
 8482SOL    HW243057  10.634   8.553  11.652 -0.4265  2.0392 -0.6534
 8483SOL     OW43058   1.652   4.354   3.961 -0.0532 -0.5280  0.5047
 8483SOL    HW143059   1.613   4.290   3.900  1.7318  0.1288 -1.4300
 8483SOL    HW243060   1.746   4.342   3.951  0.4126  3.1036 -0.8200
 8484SOL     OW43061   0.445  13.720  13.878 -0.1437 -0.1418  0.2714
 8484SOL    HW143062   0.437  13.815  13.891  1.9857  0.0796  0.3658
 8484SOL    HW243063   0.408  13.682  13.958 -1.0517  0.6138  0.2177
 8485SOL     OW43064   5.591   2.882   9.676 -0.3015  0.2018 -0.1283
 8485SOL    HW143065   5.642   2.881   9.595  1.4981 -0.1288  0.9694
 8485SOL    HW243066   5.582   2.975   9.698  0.6534  0.2285  0.1673
 8486SOL     OW43067   1.917  10.379   8.566  0.5301 -0.1905  0.4606
 8486SOL    HW143068   1.856  10.368   8.638 -0.4564  1.9548  0.0456
 8486SOL    HW243069   1.894  10.310   8.503  0.1975 -0.9359  1.3864
 8487SOL     OW43070   0.377   5.929  13.427 -0.0059 -0.0389 -0.1160
 8487SOL    HW143071   0.298   5.893  13.386  1.3395 -1.4401 -1.6659
 8487SOL    HW243072   0.437   5.945  13.353  1.1840  0.9211  1.0074
 8488SOL     OW43073   0.991   4.053   5.507 -0.0373  0.2069 -0.1679
 8488SOL    HW143074   0.989   4.121   5.439  0.6683  0.5518  0.1422
 8488SOL    HW243075   1.032   4.096   5.582  0.5755 -0.6103 -0.0217
 8489SOL     OW43076   9.309   8.386  13.723 -0.1715  0.0517 -0.0638
 8489SOL    HW143077   9.214   8.393  13.723 -0.1574  1.0548  2.2767
 8489SOL    HW243078   9.328   8.309  13.777  0.3520  0.2759  0.0803
 8490SOL     OW43079  13.044  10.085   3.577  0.7180  0.2706  0.2928
 8490SOL    HW143080  13.045   9.989   3.576 -1.7649  0.1619  0.8273
 8490SOL    HW243081  13.128  10.109   3.615  1.5586 -1.6618 -0.1688
 8491SOL     OW43082  11.348  11.308   6.522 -0.0358  0.3142 -0.1428
 8491SOL    HW143083  11.430  11.302   6.572  0.6500 -0.3970 -1.3062
 8491SOL    HW243084  11.291  11.243   6.563  0.1982  0.3747  0.2871
 8492SOL     OW43085  10.685  11.396   1.075  0.3635  0.4562 -0.4484
 8492SOL    HW143086  10.607  11.344   1.057 -0.1578  0.7720  0.8052
 8492SOL    HW243087  10.705  11.439   0.991 -1.1135  0.7710 -0.6658
 8493SOL     OW43088  13.820   0.814   1.404 -0.0116  0.3172 -0.0194
 8493SOL    HW143089  13.755   0.820   1.474 -1.6293 -0.9156 -1.3377
 8493SOL    HW243090  13.775   0.848   1.326  0.0446 -2.6365 -1.4804
 8494SOL     OW43091   8.024   5.909   1.784 -0.1373 -0.3334  0.8314
 8494SOL    HW143092   8.008   5.831   1.729 -0.2274 -1.0655  1.8655
 8494SOL    HW243093   8.025   5.875   1.873  0.4740  0.7695  1.2590
 8495SOL     OW43094  12.010   3.343   9.446 -0.1597  0.3528 -0.2374
 8495SOL    HW143095  12.086   3.327   9.502 -0.0406  2.3574  0.2383
 8495SOL    HW243096  11.979   3.256   9.421 -0.7404 -0.7077  3.6280
 8496SOL     OW43097   5.282  11.139   1.120 -0.3476 -0.0562 -0.2125
 8496SOL    HW143098   5.360  11.170   1.167  0.6104 -1.4574 -0.8396
 8496SOL    HW243099   5.216  11.206   1.139  0.8553  0.9326  0.7122
 8497SOL     OW43100   5.038  12.286  10.721  0.3381  0.3880  0.0282
 8497SOL    HW143101   4.947  12.257  10.728  0.7346 -0.9412 -0.0920
 8497SOL    HW243102   5.053  12.336  10.801 -0.0848 -0.5880  0.7395
 8498SOL     OW43103   3.938   3.455  13.619 -0.2387  0.0937  0.2933
 8498SOL    HW143104   3.854   3.423  13.586 -0.4062 -1.5340  2.1393
 8498SOL    HW243105   4.001   3.431  13.550 -1.1186  0.5016 -0.6820
 8499SOL     OW43106   5.639   9.398   0.277  0.2144 -0.1266  0.3355
 8499SOL    HW143107   5.673   9.364   0.194  0.7666  1.2682 -0.0471
 8499SOL    HW243108   5.674   9.339   0.344  0.9803 -0.4163 -0.3022
 8500SOL     OW43109  11.218  10.171  11.927  1.0612 -0.1829  0.5359
 8500SOL    HW143110  11.241  10.256  11.889  0.1999  0.1711  0.7882
 8500SOL    HW243111  11.268  10.108  11.876 -1.0380  0.1450 -2.1423
 8501SOL     OW43112   4.394   0.338  13.382 -0.1379  0.3979  0.2357
 8501SOL    HW143113   4.404   0.249  13.415  5.2233  1.1487  1.5658
 8501SOL    HW243114   4.413   0.330  13.288  0.8833  0.1300  0.4482
 8502SOL     OW43115   4.417  10.200   8.398  0.0473  0.2506  0.3363
 8502SOL    HW143116   4.378  10.285   8.377  0.7036  0.1178 -1.6842
 8502SOL    HW243117   4.477  10.183   8.325  0.0222 -1.8961  0.7548
 8503SOL     OW43118   7.985   8.477   2.522  0.1788 -0.2014  0.4377
 8503SOL    HW143119   7.942   8.399   2.487 -0.7093  0.3910  0.1781
 8503SOL    HW243120   7.929   8.550   2.494  0.8769  0.5122  0.8592
 8504SOL     OW43121   0.489   9.440   5.222 -0.1512  0.3780  0.3919
 8504SOL    HW143122   0.564   9.443   5.163  0.4865 -1.2015  1.0505
 8504SOL    HW243123   0.414   9.465   5.168  0.8095  1.7717 -0.3252
 8505SOL     OW43124   2.351  11.979   9.394 -0.4958 -0.4666 -0.5054
 8505SOL    HW143125   2.298  12.017   9.464 -0.3446 -0.5114 -0.3663
 8505SOL    HW243126   2.434  12.027   9.397 -0.5672 -0.3193 -0.7961
 8506SOL     OW43127   3.366   3.394  13.909  0.2955  0.6830  0.2979
 8506SOL    HW143128   3.411   3.374  13.991  0.4523  0.2701  0.1153
 8506SOL    HW243129   3.276   3.414  13.935  0.2833  0.3209  0.5500
 8507SOL     OW43130  11.963   6.952  11.362  0.0497  0.1532 -0.0825
 8507SOL    HW143131  12.020   7.013  11.315  1.5771 -0.8506  0.3747
 8507SOL    HW243132  11.949   6.993  11.447  0.6905  0.1001  0.0569
 8508SOL     OW43133  13.078   3.879   6.733 -0.3695 -0.6031  0.1838
 8508SOL    HW143134  13.150   3.927   6.772 -0.2025 -0.6941 -0.0112
 8508SOL    HW243135  13.068   3.800   6.787  0.4615 -1.1869 -0.4992
 8509SOL     OW43136  10.517   1.199   2.453  0.4981 -0.0471 -0.7893
 8509SOL    HW143137  10.566   1.246   2.385  0.1660 -0.5091 -1.3484
 8509SOL    HW243138  10.428   1.193   2.419  0.0521  0.7137  0.1850
 8510SOL     OW43139   1.149  10.165   6.368 -0.1964 -0.0987 -0.5775
 8510SOL    HW143140   1.242  10.143   6.381  0.3348  0.4410 -2.9303
 8510SOL    HW243141   1.108  10.081   6.343  0.0906 -0.0166 -1.3796
 8511SOL     OW43142  13.317  11.751  13.722  0.1057  0.0840  0.5361
 8511SOL    HW143143  13.380  11.680  13.737  0.9283  0.7114  0.1614
 8511SOL    HW243144  13.349  11.823  13.777 -0.7585  0.1491  0.9662
 8512SOL     OW43145  11.559   4.976   2.427  0.2909  0.0522 -0.6100
 8512SOL    HW143146  11.584   5.023   2.348  1.5487 -0.1467 -0.3373
 8512SOL    HW243147  11.546   5.045   2.493  2.2309  0.0576 -0.1823
 8513SOL     OW43148  11.194   4.923   7.711  0.8797  0.1802 -0.0623
 8513SOL    HW143149  11.283   4.888   7.709  0.9307  0.3194 -0.2460
 8513SOL    HW243150  11.205   5.016   7.733  1.0199  0.9394 -2.9557
 8514SOL     OW43151   7.913  11.225   4.469 -0.2491 -0.2022 -0.5253
 8514SOL    HW143152   7.982  11.188   4.413 -0.1358 -0.1309 -0.4338
 8514SOL    HW243153   7.871  11.149   4.509  1.7481 -0.2344  1.8085
 8515SOL     OW43154   7.570   8.492  11.576  0.1769 -0.6875 -0.1371
 8515SOL    HW143155   7.627   8.516  11.502  0.2520  0.6948  0.3393
 8515SOL    HW243156   7.485   8.531  11.554 -0.4892 -2.3491 -0.6215
 8516SOL     OW43157  10.593   0.917   0.517 -0.3301  0.0692 -0.1671
 8516SOL    HW143158  10.684   0.916   0.547 -1.1625 -0.0953  2.6719
 8516SOL    HW243159  10.578   1.007   0.489  0.3520  0.4535  0.6505
 8517SOL     OW43160   4.676   3.662  10.383 -0.1462 -0.3873  0.1484
 8517SOL    HW143161   4.753   3.686  10.434  0.3062 -0.2938 -0.5795
 8517SOL    HW243162   4.705   3.661  10.292 -1.4262  1.4310 -0.3437
 8518SOL     OW43163   1.568   7.880  11.661  0.1218 -0.1476  0.3628
 8518SOL    HW143164   1.525   7.860  11.745  0.5396 -0.0182  0.6118
 8518SOL    HW243165   1.651   7.833  11.666  1.2262  1.7478  1.0457
 8519SOL     OW43166   6.251   8.827   4.996  0.4574 -0.3751  0.1395
 8519SOL    HW143167   6.183   8.780   5.045  1.5236 -1.3884  0.6817
 8519SOL    HW243168   6.266   8.906   5.047 -0.5335  0.0319 -0.1633
 8520SOL     OW43169   3.069   5.407   3.579  0.1271 -0.2804 -0.1257
 8520SOL    HW143170   3.044   5.441   3.665  0.2437 -2.0845  0.6653
 8520SOL    HW243171   3.111   5.481   3.535 -3.5458  1.9581 -0.2900
 8521SOL     OW43172  13.361  10.036   2.247 -0.6621 -0.6069  0.4313
 8521SOL    HW143173  13.418  10.089   2.301  0.7747 -2.4974  0.8814
 8521SOL    HW243174  13.276  10.040   2.290 -0.3787  0.6214  0.9028
 8522SOL     OW43175   9.278   4.037   7.687 -0.4076 -0.0549  0.9318
 8522SOL    HW143176   9.328   4.060   7.609 -1.0981  1.1852  0.8208
 8522SOL    HW243177   9.278   3.942   7.689 -0.1737 -0.1034 -0.4516
 8523SOL     OW43178   9.490  12.001  11.325 -0.4000  0.4627  0.5302
 8523SOL    HW143179   9.531  12.064  11.265  0.7405 -0.7992 -0.0434
 8523SOL    HW243180   9.480  11.921  11.274 -1.3801 -0.0018  1.4054
 8524SOL     OW43181   0.422  13.530   8.679 -0.0289 -0.6471 -0.7698
 8524SOL    HW143182   0.429  13.612   8.630  0.2081 -0.3489 -0.2504
 8524SOL    HW243183   0.330  13.505   8.672  0.2577 -1.3423 -2.5114
 8525SOL     OW43184  10.201  10.949   0.977  0.1288 -0.3296  0.9022
 8525SOL    HW143185  10.230  10.953   0.886  0.5661  4.3165  1.0142
 8525SOL    HW243186  10.281  10.962   1.028 -0.5227  0.4009  1.7716
 8526SOL     OW43187  13.665  12.439   4.416  0.7479 -0.0745 -0.3333
 8526SOL    HW143188  13.591  12.402   4.367  1.2165  0.8742 -1.8482
 8526SOL    HW243189  13.740  12.428   4.357  1.0966  2.2979 -0.4240
 8527SOL     OW43190   2.016   8.487   3.754 -0.4305  0.6080  0.4150
 8527SOL    HW143191   2.055   8.519   3.673  0.9193 -0.8327  0.4531
 8527SOL    HW243192   2.084   8.433   3.794 -1.7853 -0.3745  1.4908
 8528SOL     OW43193   6.783   1.495   4.792 -0.0080 -0.0846  0.0891
 8528SOL    HW143194   6.755   1.586   4.807  2.4227  0.4152  2.2461
 8528SOL    HW243195   6.702   1.449   4.770 -1.2699  2.6379 -1.6072
 8529SOL     OW43196   0.109  10.061  13.734 -0.0925 -0.0691  0.1251
 8529SOL    HW143197   0.163  10.028  13.806  1.4736 -1.8991 -1.7673
 8529SOL    HW243198   0.115   9.994  13.667 -1.2783  1.6750 -1.8436
 8530SOL     OW43199  12.980   2.120   2.708 -0.0051  0.2673 -0.1562
 8530SOL    HW143200  12.930   2.135   2.789 -0.0988  1.0270 -0.3432
 8530SOL    HW243201  13.005   2.028   2.712  1.5456  0.6847  1.6435
 8531SOL     OW43202   3.930  10.501   7.270  0.4015 -0.4123  0.0022
 8531SOL    HW143203   3.931  10.588   7.230  0.8530 -0.2240  0.4251
 8531SOL    HW243204   3.870  10.508   7.344 -0.3589 -0.7380 -0.5581
 8532SOL     OW43205   5.541  10.841  12.108 -0.5989  0.0417 -0.3022
 8532SOL    HW143206   5.634  10.862  12.100 -0.0713 -1.6664  0.9206
 8532SOL    HW243207   5.502  10.879  12.029  1.0599  1.1049 -0.6669
 8533SOL     OW43208  10.216   5.967   3.862  0.4393  0.0804 -0.1142
 8533SOL    HW143209  10.150   5.997   3.800  0.7490  0.3797 -0.3025
 8533SOL    HW243210  10.248   6.047   3.904  1.4993  0.0542 -0.8483
 8534SOL     OW43211   6.097   8.740   2.733 -0.4119  0.2763 -0.0816
 8534SOL    HW143212   6.031   8.732   2.802 -0.0579  0.1376  0.2433
 8534SOL    HW243213   6.075   8.822   2.688 -0.4056  0.5706  0.4450
 8535SOL     OW43214   2.615   4.743  12.877 -0.4914  0.3196 -0.1153
 8535SOL    HW143215   2.606   4.649  12.891 -1.8827  0.4321 -0.1100
 8535SOL    HW243216   2.669   4.773  12.950  0.4697 -0.5478 -0.4450
 8536SOL     OW43217   4.658  13.727  13.463 -0.2610 -0.0436  0.3104
 8536SOL    HW143218   4.753  13.720  13.475 -0.2955 -1.5980 -0.1140
 8536SOL    HW243219   4.635  13.651  13.409 -1.8369 -0.0570  0.9460
 8537SOL     OW43220   7.419  13.634   0.380 -0.0142 -0.4244 -0.0552
 8537SOL    HW143221   7.442  13.624   0.472 -0.6319  3.0591  0.6210
 8537SOL    HW243222   7.503  13.637   0.334  0.4587  0.7027  0.8336
 8538SOL     OW43223   9.655  13.865   5.541 -0.1370 -0.0222  0.1545
 8538SOL    HW143224   9.750  13.855   5.542 -0.1875 -0.6478  1.6676
 8538SOL    HW243225   9.622  13.778   5.564 -1.0580  0.3088  0.1087
 8539SOL     OW43226  13.814   2.921   7.961 -0.4261 -0.7264  0.3078
 8539SOL    HW143227  13.746   2.977   7.922 -0.5256 -0.2129  1.1891
 8539SOL    HW243228  13.890   2.934   7.905 -0.8551 -0.7734 -0.2922
 8540SOL     OW43229   1.780   6.790   3.928  0.4758  0.0925  0.9842
 8540SOL    HW143230   1.775   6.774   3.834  2.0930 -0.5927  0.9827
 8540SOL    HW243231   1.701   6.841   3.948 -1.5943 -2.4724 -0.1380
 8541SOL     OW43232   6.551  10.347   7.066  0.2782 -0.1527  0.1832
 8541SOL    HW143233   6.478  10.289   7.089 -0.1932  0.7144  0.9708
 8541SOL    HW243234   6.520  10.434   7.091  2.0628  0.0836  1.7334
 8542SOL     OW43235   8.240  13.103   1.478 -0.1898  0.3270  0.4388
 8542SOL    HW143236   8.306  13.075   1.541  0.0650  2.4057  1.1656
 8542SOL    HW243237   8.234  13.198   1.489 -2.0832  0.4211 -0.8024
 8543SOL     OW43238  10.667  10.127   1.617  0.3336 -0.3540 -0.6075
 8543SOL    HW143239  10.610  10.160   1.548 -0.5459  1.0207  0.7026
 8543SOL    HW243240  10.733  10.195   1.628 -1.5776  1.2517  2.2197
 8544SOL     OW43241   3.026   5.079   7.940 -0.0768  0.2204  0.1082
 8544SOL    HW143242   2.998   5.099   8.029  0.9465  1.4068  0.1885
 8544SOL    HW243243   3.096   5.142   7.922  1.3365 -1.5066 -0.7092
 8545SOL     OW43244   6.060   0.868   1.560 -0.0320  0.5458 -0.2439
 8545SOL    HW143245   6.023   0.791   1.602  0.4574 -0.4137 -1.5169
 8545SOL    HW243246   5.989   0.901   1.504  0.6380 -0.6741 -1.8730
 8546SOL     OW43247   7.567  11.617   7.779  0.1699 -0.2269  0.2133
 8546SOL    HW143248   7.560  11.521   7.783 -1.0113 -0.2137 -0.8281
 8546SOL    HW243249   7.661  11.633   7.770  0.3067 -1.3750 -0.8228
 8547SOL     OW43250   9.153   0.044   7.479 -0.5861  0.1584  0.0398
 8547SOL    HW143251   9.091  -0.005   7.423 -0.6167 -0.0073  0.2176
 8547SOL    HW243252   9.157  -0.007   7.560  0.5276 -0.3666 -0.3229
 8548SOL     OW43253   8.010  11.882  11.114  0.6092  0.2516 -0.5946
 8548SOL    HW143254   8.079  11.845  11.059 -0.0603 -2.3864  0.2102
 8548SOL    HW243255   8.052  11.956  11.159  2.8009 -1.0048 -0.4246
 8549SOL     OW43256  11.092   6.726   0.202  0.4189  0.1487  0.0308
 8549SOL    HW143257  11.084   6.805   0.256  0.4404 -0.4403  0.9295
 8549SOL    HW243258  11.166   6.678   0.240  0.4301 -0.2878 -0.5246
 8550SOL     OW43259  12.469   9.496  11.778 -0.0960  0.2926  0.2060
 8550SOL    HW143260  12.510   9.492  11.692  1.4962 -1.4374  0.9816
 8550SOL    HW243261  12.427   9.411  11.790  2.0400 -0.5771  2.1731
 8551SOL     OW43262   4.638  10.793  12.520 -0.5615 -0.2280 -0.0295
 8551SOL    HW143263   4.610  10.848  12.593 -0.7944 -0.0815 -0.2248
 8551SOL    HW243264   4.708  10.739  12.555 -1.0364 -0.5429  0.4485
 8552SOL     OW43265  10.116   5.867   5.406 -0.5364  0.6714  0.0370
 8552SOL    HW143266  10.107   5.957   5.375 -2.0308  0.6006  0.1611
 8552SOL    HW243267  10.159   5.874   5.490 -0.4822  1.2605 -0.0401
 8553SOL     OW43268   5.839   4.855   6.919 -0.1098 -0.2120  0.0165
 8553SOL    HW143269   5.909   4.803   6.879 -0.7404  0.2060 -1.7539
 8553SOL    HW243270   5.762   4.837   6.864 -1.1645  0.0434  1.3716
 8554SOL     OW43271  12.939   7.695   7.804 -0.3869  0.1838 -0.2947
 8554SOL    HW143272  12.853   7.662   7.780  0.7669 -1.9866 -1.8959
 8554SOL    HW243273  12.935   7.789   7.789 -2.7315  0.2947  0.6757
 8555SOL     OW43274   4.306   4.685   4.748 -0.5935 -0.2108  0.0869
 8555SOL    HW143275   4.401   4.693   4.736 -0.6518  1.4273  0.5428
 8555SOL    HW243276   4.282   4.760   4.802 -2.1663 -0.5707 -0.0706
 8556SOL     OW43277  12.500   2.979   9.460  0.2217 -0.1171 -0.1718
 8556SOL    HW143278  12.586   2.996   9.500  0.6488  0.9233 -1.4683
 8556SOL    HW243279  12.513   2.900   9.408  0.6481  0.4741 -0.9967
 8557SOL     OW43280   5.251   3.691   7.550 -0.0790  0.6727  0.5453
 8557SOL    HW143281   5.268   3.655   7.637  0.5189 -3.9436 -1.2374
 8557SOL    HW243282   5.333   3.681   7.503 -1.1668  0.3150 -1.3715
 8558SOL     OW43283  10.020   3.092   5.718  0.2127 -0.1213 -0.6443
 8558SOL    HW143284  10.002   3.118   5.628 -0.7898  0.7128 -0.2176
 8558SOL    HW243285  10.042   3.174   5.763 -0.1123 -0.4125  0.0560
 8559SOL     OW43286   9.782   0.726   8.192  0.1926 -0.3319  0.1389
 8559SOL    HW143287   9.803   0.648   8.243  0.3726 -0.0184  0.5487
 8559SOL    HW243288   9.845   0.792   8.222 -0.3117  0.1331  0.1884
 8560SOL     OW43289   7.420   8.634  13.430 -0.3099 -0.1480  0.1653
 8560SOL    HW143290   7.389   8.716  13.469 -2.0971 -0.5318 -0.3612
 8560SOL    HW243291   7.441   8.578  13.504 -2.3531 -0.3884  0.6052
 8561SOL     OW43292   4.097   0.079  13.911  0.2563  0.7007 -0.0348
 8561SOL    HW143293   4.055   0.016  13.969 -1.2156  1.5788 -0.0939
 8561SOL    HW243294   4.171   0.112  13.961  1.3166 -1.3578 -0.1667
 8562SOL     OW43295  13.432   5.456   0.842 -0.7272  0.2976 -0.4598
 8562SOL    HW143296  13.379   5.376   0.829  1.5614 -1.5673  0.9021
 8562SOL    HW243297  13.392   5.498   0.918 -0.5080 -0.9097  0.3583
 8563SOL     OW43298   9.130   3.409   0.960 -0.2589  0.7313 -0.3195
 8563SOL    HW143299   9.205   3.454   0.920  0.0900 -0.4789 -1.0654
 8563SOL    HW243300   9.104   3.345   0.894 -1.7438  0.9033  0.0787
 8564SOL     OW43301   8.668   1.483   4.508 -0.5453 -0.3288  0.6255
 8564SOL    HW143302   8.710   1.568   4.492 -1.1566 -0.2535 -0.6679
 8564SOL    HW243303   8.578   1.494   4.476 -0.7780 -1.3174  0.9112
 8565SOL     OW43304   7.405   7.440  13.377 -0.0566  0.2380  0.3073
 8565SOL    HW143305   7.416   7.493  13.456  0.8341  0.2118  0.2180
 8565SOL    HW243306   7.492   7.404  13.361 -0.3279 -0.0975 -0.4475
 8566SOL     OW43307   7.077  12.774  10.348  0.4557 -0.6914 -0.5251
 8566SOL    HW143308   7.074  12.729  10.263  2.0758 -1.5061 -0.1700
 8566SOL    HW243309   6.988  12.763  10.383  0.2908 -2.0119 -1.2725
 8567SOL     OW43310  12.004  13.021  10.501  0.3390 -0.0609 -0.2135
 8567SOL    HW143311  12.056  12.957  10.453  0.1569 -1.0110  0.8112
 8567SOL    HW243312  11.927  13.036  10.446 -0.1419 -1.5676  0.0019
 8568SOL     OW43313  10.509   4.343   8.348 -0.3894  0.0372 -0.4614
 8568SOL    HW143314  10.528   4.415   8.408 -1.4308  0.1315 -0.2174
 8568SOL    HW243315  10.587   4.289   8.350 -0.0589  0.5185  0.2950
 8569SOL     OW43316   1.192  13.252   1.250 -0.2766  0.3348  0.3306
 8569SOL    HW143317   1.137  13.195   1.304  0.7531  1.0546  2.2619
 8569SOL    HW243318   1.228  13.315   1.312  1.3176  0.9670 -1.1616
 8570SOL     OW43319  10.248   1.835   5.521 -0.0312 -0.8050 -0.6232
 8570SOL    HW143320  10.178   1.795   5.572  0.0165 -1.1975 -0.8655
 8570SOL    HW243321  10.271   1.914   5.570 -1.1856 -0.2415 -0.9427
 8571SOL     OW43322  12.654   2.762   8.425 -0.2108  0.0507  0.2012
 8571SOL    HW143323  12.642   2.715   8.342  1.0613  2.1928 -1.3016
 8571SOL    HW243324  12.742   2.801   8.417 -0.6853  1.5817  1.8995
 8572SOL     OW43325   6.064   7.735   9.212  0.3192 -0.2040  0.6155
 8572SOL    HW143326   5.979   7.693   9.223 -0.1734  0.1267 -1.4595
 8572SOL    HW243327   6.043   7.826   9.194  1.1779  0.0850  1.0440
 8573SOL     OW43328   9.115   0.336  12.103 -0.2680  0.0101 -0.2644
 8573SOL    HW143329   9.161   0.404  12.055  0.2543 -0.2423 -0.1266
 8573SOL    HW243330   9.121   0.259  12.047  0.1350 -0.2209  0.0872
 8574SOL     OW43331   1.491   5.448  13.199 -0.2298  0.2382  0.1423
 8574SOL    HW143332   1.554   5.376  13.202 -0.3688  0.1363  1.3598
 8574SOL    HW243333   1.449   5.441  13.114 -0.4743 -1.3257  0.3761
 8575SOL     OW43334   3.668  12.571  11.344  0.7276 -0.3842 -0.5582
 8575SOL    HW143335   3.598  12.630  11.315  1.8313  0.9971 -0.5438
 8575SOL    HW243336   3.662  12.573  11.440  1.5448  0.7792 -0.4969
 8576SOL     OW43337   4.867   8.900   5.461  0.0948 -0.5118  0.0317
 8576SOL    HW143338   4.926   8.849   5.517 -0.5443 -1.1392  0.1548
 8576SOL    HW243339   4.926   8.945   5.400  0.7505 -0.4105  0.7217
 8577SOL     OW43340   8.796  11.470  10.969  0.3470 -0.0759  0.0873
 8577SOL    HW143341   8.876  11.436  11.010  0.5409 -0.0009 -0.2211
 8577SOL    HW243342   8.728  11.408  10.993  0.7686 -0.8909 -0.7661
 8578SOL     OW43343   6.024   2.257   6.693  0.1144 -0.0225  0.3618
 8578SOL    HW143344   5.951   2.310   6.663  0.3411  1.0187  1.5800
 8578SOL    HW243345   6.042   2.197   6.620 -0.9560  0.7192 -0.5385
 8579SOL     OW43346   1.978  12.212   9.107 -1.3770 -0.0273 -0.1998
 8579SOL    HW143347   1.937  12.140   9.060 -0.8042 -1.5982  1.6131
 8579SOL    HW243348   1.929  12.219   9.189 -0.5158  0.7055  0.2746
 8580SOL     OW43349   0.475   7.149   9.620  0.1091 -0.0478 -0.0495
 8580SOL    HW143350   0.505   7.203   9.547  0.4730 -0.1046  0.0523
 8580SOL    HW243351   0.529   7.177   9.694 -0.9112  0.6789  0.4385
 8581SOL     OW43352  10.580   9.609   1.342  0.1910 -0.2905  0.3941
 8581SOL    HW143353  10.641   9.561   1.286 -0.2480 -0.9045  0.4384
 8581SOL    HW243354  10.611   9.699   1.338  0.3539 -0.3776 -0.5835
 8582SOL     OW43355   2.466   0.313   3.349 -0.3899 -0.8952 -0.5296
 8582SOL    HW143356   2.444   0.221   3.339 -2.3508 -0.2746 -2.8012
 8582SOL    HW243357   2.528   0.331   3.278  1.6068 -0.8471  1.1283
 8583SOL     OW43358  11.729   8.149  10.329  0.2751  0.1704  0.0484
 8583SOL    HW143359  11.637   8.122  10.323 -0.0096  0.4009  2.5625
 8583SOL    HW243360  11.728   8.242  10.307  0.0488 -0.0116 -0.7380
 8584SOL     OW43361   2.667   8.600   5.130  0.1634 -0.4593  0.0564
 8584SOL    HW143362   2.698   8.681   5.089 -0.4482  0.2803  1.0283
 8584SOL    HW243363   2.595   8.627   5.187  0.3887 -1.5854  0.9183
 8585SOL     OW43364  11.041   5.875   3.170 -0.3240  0.1335  0.4304
 8585SOL    HW143365  10.966   5.815   3.163 -1.2416  1.1984  0.7994
 8585SOL    HW243366  11.069   5.889   3.079 -0.8545  0.0702  0.2532
 8586SOL     OW43367  10.745   5.977   5.345  0.1262  0.1347 -0.1180
 8586SOL    HW143368  10.819   5.928   5.310  0.0193 -0.0184 -0.1262
 8586SOL    HW243369  10.762   6.068   5.319 -0.6671 -0.1632 -1.7716
 8587SOL     OW43370   9.738  13.156   1.243 -0.0548  0.1405 -0.0715
 8587SOL    HW143371   9.659  13.103   1.252  0.1476 -0.4153 -1.3640
 8587SOL    HW243372   9.740  13.182   1.151  1.1825  0.2689 -0.0311
 8588SOL     OW43373   0.011  12.257  11.244  0.3379 -0.5029  0.0274
 8588SOL    HW143374  -0.001  12.334  11.300  0.7612 -1.0026  0.8160
 8588SOL    HW243375  -0.074  12.244  11.202 -0.2355 -0.6086  1.1862
 8589SOL     OW43376  10.085  12.553   1.806  0.4505  0.1198  0.0789
 8589SOL    HW143377  10.167  12.600   1.822 -0.3118  1.4336  0.3037
 8589SOL    HW243378  10.034  12.566   1.886 -0.9288  1.4220 -0.9576
 8590SOL     OW43379   2.799  12.896   8.954 -0.4842 -0.1311 -0.3418
 8590SOL    HW143380   2.858  12.821   8.967 -1.8007 -1.0902  0.3465
 8590SOL    HW243381   2.858  12.972   8.948  0.7632 -0.6597  3.0951
 8591SOL     OW43382   8.884   4.594  11.828 -0.2758  0.0447 -0.4743
 8591SOL    HW143383   8.860   4.506  11.855  0.9133 -0.0236  0.4735
 8591SOL    HW243384   8.979   4.590  11.816 -0.0129  1.4874  0.8075
 8592SOL     OW43385   8.880  12.998   0.893  0.1607 -0.0746  0.2477
 8592SOL    HW143386   8.907  12.961   0.977  1.4490 -1.0275 -0.5376
 8592SOL    HW243387   8.788  13.022   0.905  0.0384 -1.1262  1.6148
 8593SOL     OW43388   3.463   6.419   0.746 -0.3175  0.4287 -0.2452
 8593SOL    HW143389   3.436   6.412   0.654 -0.7584 -1.8343 -0.0009
 8593SOL    HW243390   3.547   6.373   0.750 -0.1813  0.7202  0.4474
 8594SOL     OW43391   6.956   4.052  13.612  0.0598  0.4461  0.2567
 8594SOL    HW143392   7.018   4.121  13.637 -0.2381  0.2975  1.4414
 8594SOL    HW243393   6.996   3.971  13.641 -0.7971  0.3720  1.2870
 8595SOL     OW43394  11.800   7.900   1.341  0.3637  0.5424  0.2052
 8595SOL    HW143395  11.856   7.965   1.383  0.7651  0.0618  0.4270
 8595SOL    HW243396  11.831   7.897   1.251 -0.7403  1.8415 -0.2509
 8596SOL     OW43397   8.293   0.597   4.455  0.0714 -0.5659 -0.4057
 8596SOL    HW143398   8.273   0.589   4.362  0.6123  0.1443 -0.5848
 8596SOL    HW243399   8.380   0.637   4.458 -1.0617  2.0300  0.4117
 8597SOL     OW43400   8.776  11.399   0.938 -0.3736 -0.2375 -0.5896
 8597SOL    HW143401   8.728  11.318   0.952  0.7269 -1.0037 -1.0515
 8597SOL    HW243402   8.821  11.386   0.854  0.9419  0.2559  0.0053
 8598SOL     OW43403  13.161   9.199   3.955  0.6500  0.1036  0.2811
 8598SOL    HW143404  13.094   9.214   4.022 -1.2893  0.8440 -1.7336
 8598SOL    HW243405  13.147   9.109   3.926  0.5409  0.2461 -0.1157
 8599SOL     OW43406   4.093   9.137  11.276 -0.6623 -0.6174 -0.3813
 8599SOL    HW143407   4.079   9.043  11.293 -0.0590 -0.6400  0.0008
 8599SOL    HW243408   4.182   9.142  11.244  0.4845  0.1720  2.5902
 8600SOL     OW43409  13.520   5.415   9.196  0.6801 -0.3961 -0.0061
 8600SOL    HW143410  13.598   5.438   9.247  0.0391  1.2291  0.2949
 8600SOL    HW243411  13.483   5.500   9.169 -0.1419 -1.1716 -1.4354
 8601SOL     OW43412   0.976   2.572   0.915  0.0618  0.1849  0.2624
 8601SOL    HW143413   1.064   2.559   0.950 -0.3591 -0.8062  0.9832
 8601SOL    HW243414   0.922   2.509   0.962 -0.8683  0.1270 -0.8494
 8602SOL     OW43415   4.873  14.034   1.643  0.3028  0.2355  0.2622
 8602SOL    HW143416   4.951  14.030   1.588  1.1962  2.2306  1.2715
 8602SOL    HW243417   4.900  14.086   1.719 -1.4764 -0.6498  1.5766
 8603SOL     OW43418   5.479  11.965  10.789  0.0642 -0.2978 -0.2428
 8603SOL    HW143419   5.388  11.993  10.803 -0.2317 -0.6657 -1.3772
 8603SOL    HW243420   5.508  12.014  10.713  1.1628  0.5574  0.6889
 8604SOL     OW43421   1.890   8.465   5.834  0.3000 -0.2455  0.2616
 8604SOL    HW143422   1.849   8.379   5.835  0.0245 -0.1879 -1.5343
 8604SOL    HW243423   1.949   8.465   5.909  0.0594 -1.8634  0.4879
 8605SOL     OW43424   0.338   8.147  10.259  0.3879  0.2171  0.2868
 8605SOL    HW143425   0.322   8.057  10.231  1.1353 -0.7794  2.7165
 8605SOL    HW243426   0.434   8.153  10.266  0.4343  1.6772 -1.1461
 8606SOL     OW43427   7.737  11.744  12.455 -0.3455 -0.5062 -0.5924
 8606SOL    HW143428   7.684  11.681  12.407  1.3112 -1.7026 -0.9205
 8606SOL    HW243429   7.783  11.793  12.386 -0.7051  0.2704 -0.2966
 8607SOL     OW43430  13.267   9.700   5.170  0.0196 -0.1731 -0.1922
 8607SOL    HW143431  13.263   9.646   5.091  0.0088 -0.9780  0.3569
 8607SOL    HW243432  13.223   9.649   5.238 -0.7193  0.8628  0.1511
 8608SOL     OW43433   7.028  10.662   3.348 -0.0860 -0.0439  0.2842
 8608SOL    HW143434   7.039  10.618   3.264 -0.6815 -0.5003  0.4408
 8608SOL    HW243435   7.069  10.748   3.336  2.0357 -0.9930  0.3043
 8609SOL     OW43436   9.294   0.906   9.970  0.0319 -0.1892  0.5134
 8609SOL    HW143437   9.281   0.833   9.910  0.0054  0.2739 -0.0494
 8609SOL    HW243438   9.232   0.889  10.042  1.0528 -1.4967  1.1438
 8610SOL     OW43439   1.422   8.079   2.228 -0.1978  0.1457  0.0175
 8610SOL    HW143440   1.398   7.990   2.205 -0.4501  0.7874 -2.4348
 8610SOL    HW243441   1.350   8.110   2.284 -1.8218 -0.1512 -1.8100
 8611SOL     OW43442  12.673  11.512   7.398  0.1690  0.5417 -0.4472
 8611SOL    HW143443  12.725  11.569   7.342  0.3608  0.7816 -0.0265
 8611SOL    HW243444  12.602  11.568   7.431 -0.0620  0.3490 -0.6126
 8612SOL     OW43445   8.611   8.762   8.818  0.6336  0.3259  0.2763
 8612SOL    HW143446   8.541   8.701   8.796  1.8959 -0.4756 -1.8697
 8612SOL    HW243447   8.610   8.827   8.747  1.6522  0.6249  0.5113
 8613SOL     OW43448   3.624   3.489   6.202 -0.2290  0.1499 -0.0891
 8613SOL    HW143449   3.640   3.420   6.137 -0.9361  0.4796 -0.6268
 8613SOL    HW243450   3.529   3.492   6.211 -0.1013 -0.8741  2.0664
 8614SOL     OW43451   9.129  11.578  11.187 -0.6893  0.2174  0.4118
 8614SOL    HW143452   9.186  11.645  11.149 -0.3769  1.0247  2.2333
 8614SOL    HW243453   9.042  11.619  11.189 -0.4309  0.7555  1.8616
 8615SOL     OW43454  10.236   4.410   7.757 -0.5859 -0.2367 -0.0483
 8615SOL    HW143455  10.188   4.467   7.697 -1.3108  0.9299  1.5671
 8615SOL    HW243456  10.188   4.328   7.756 -1.6271  0.3515  0.2340
 8616SOL     OW43457  11.751   4.657  12.761 -0.0768  0.0334  0.0552
 8616SOL    HW143458  11.692   4.644  12.835 -0.1939 -0.3376 -0.1009
 8616SOL    HW243459  11.698   4.704  12.696  0.4040  1.5116  0.6924
 8617SOL     OW43460  11.579   5.416   7.696 -0.9152  0.4731 -0.5139
 8617SOL    HW143461  11.545   5.488   7.642 -0.8577  0.2141 -0.8912
 8617SOL    HW243462  11.562   5.337   7.645 -0.1933  0.2936 -0.4833
 8618SOL     OW43463   4.968   3.324   5.325 -0.1379  1.0849 -0.0912
 8618SOL    HW143464   4.877   3.334   5.353 -0.0303  0.4420  0.5264
 8618SOL    HW243465   4.984   3.230   5.329  0.7923  1.2518  0.6236
 8619SOL     OW43466   7.165   3.151   4.721 -0.3078  0.1164 -0.0010
 8619SOL    HW143467   7.103   3.089   4.759  0.2568 -0.1542  0.4946
 8619SOL    HW243468   7.211   3.102   4.654 -0.6920  0.3459 -0.4391
 8620SOL     OW43469  12.208   5.135  12.534  0.0540  0.1079 -0.6569
 8620SOL    HW143470  12.153   5.212  12.549  0.6226  0.4255 -0.1595
 8620SOL    HW243471  12.200   5.117  12.440 -1.0099  0.0541 -0.5615
 8621SOL     OW43472   7.736   6.429   9.514  0.0562 -0.0785 -0.1937
 8621SOL    HW143473   7.824   6.467   9.512  0.3014 -0.6635 -0.8872
 8621SOL    HW243474   7.742   6.352   9.457 -0.9797  0.0491 -0.4914
 8622SOL     OW43475  10.417   9.957   5.822  0.0191  0.1571  0.5469
 8622SOL    HW143476  10.372   9.882   5.863  2.4643 -2.8628 -1.7548
 8622SOL    HW243477  10.372   9.967   5.738  0.3876  0.5426  0.3981
 8623SOL     OW43478   9.473   2.800  10.993 -0.4898  0.4170  0.5055
 8623SOL    HW143479   9.424   2.778  11.072 -2.1964  1.6903 -0.1565
 8623SOL    HW243480   9.527   2.875  11.018  0.9610 -0.7665  1.1310
 8624SOL     OW43481  12.181   8.753  13.274  0.2352 -0.4181 -0.0926
 8624SOL    HW143482  12.106   8.775  13.220  0.3496  1.0781  0.3067
 8624SOL    HW243483  12.230   8.688  13.223 -0.8049 -0.6872 -0.7735
 8625SOL     OW43484   9.691   9.127   4.566 -0.5576  0.0654  0.3981
 8625SOL    HW143485   9.757   9.058   4.564 -0.6803 -0.0535  0.4535
 8625SOL    HW243486   9.736   9.203   4.602  0.5907  1.0498 -2.7514
 8626SOL     OW43487  13.356   2.100  13.937 -0.2595  0.5049  0.0474
 8626SOL    HW143488  13.263   2.120  13.947 -0.7554 -0.1502 -2.5440
 8626SOL    HW243489  13.397   2.184  13.917 -0.4058  0.6965  0.5495
 8627SOL     OW43490  11.688   8.453   0.136  0.5827 -0.7520  0.0271
 8627SOL    HW143491  11.783   8.446   0.144  0.4748 -2.3498  0.2597
 8627SOL    HW243492  11.654   8.428   0.222 -0.0675 -0.8010 -0.2325
 8628SOL     OW43493  11.540   2.968   8.212 -0.1598  0.1734  0.1226
 8628SOL    HW143494  11.493   2.907   8.155  1.5202 -1.9468  0.8560
 8628SOL    HW243495  11.508   2.947   8.300  1.1754 -0.4045  0.4913
 8629SOL     OW43496   2.102   2.940  11.388 -0.3784 -0.1789 -0.3648
 8629SOL    HW143497   2.124   2.957  11.480 -2.3324  0.5437  0.0005
 8629SOL    HW243498   2.087   2.846  11.385  1.9708 -0.6191 -0.5062
 8630SOL     OW43499   9.895   3.634   7.646 -0.2037 -0.1442 -0.1667
 8630SOL    HW143500   9.981   3.596   7.665  0.6672  0.7498 -2.0807
 8630SOL    HW243501   9.906   3.728   7.662 -1.2497 -0.1852  0.9095
 8631SOL     OW43502   2.909  12.263   5.531 -0.6891  0.3676 -0.0199
 8631SOL    HW143503   2.870  12.266   5.443 -0.3918 -1.1457 -0.2235
 8631SOL    HW243504   2.929  12.355   5.551 -0.6580  0.7339 -1.5849
 8632SOL     OW43505   7.701   9.785   0.549 -0.1645 -0.0775 -0.0976
 8632SOL    HW143506   7.699   9.773   0.454 -1.1124 -0.1605 -0.0776
 8632SOL    HW243507   7.617   9.826   0.570  0.2286  0.3714  0.6526
 8633SOL     OW43508  10.737   9.564  11.703  0.2184 -0.8097 -0.0118
 8633SOL    HW143509  10.734   9.483  11.652  0.9305 -1.3811  0.8295
 8633SOL    HW243510  10.807   9.615  11.664  0.3801 -0.9952  0.0374
 8634SOL     OW43511  11.268   7.887   6.778 -0.2929  0.0067  0.1396
 8634SOL    HW143512  11.282   7.793   6.788  0.3063 -0.2263 -2.3506
 8634SOL    HW243513  11.228   7.896   6.691  1.0897  2.1500 -0.3382
 8635SOL     OW43514   6.921   0.795  13.952  0.2800  0.2443  0.3419
 8635SOL    HW143515   6.880   0.711  13.973 -0.7398  0.3152 -1.2481
 8635SOL    HW243516   6.904   0.849  14.030 -0.2247 -0.5980  0.8417
 8636SOL     OW43517   0.109  12.768   9.434 -0.1079 -0.7300  0.8012
 8636SOL    HW143518   0.092  12.842   9.492 -0.4371 -0.2559  0.1147
 8636SOL    HW243519   0.198  12.741   9.457  0.6423  0.8870  0.0051
 8637SOL     OW43520   1.796   9.870   1.596  0.1599  0.1745  0.1640
 8637SOL    HW143521   1.868   9.850   1.656 -0.3211  2.3334  1.6020
 8637SOL    HW243522   1.720   9.880   1.653 -0.6611  0.7343 -0.9872
 8638SOL     OW43523  10.835   5.434   7.959  0.3710 -0.3961  0.6407
 8638SOL    HW143524  10.850   5.470   7.872  1.9619  1.0657  1.4535
 8638SOL    HW243525  10.801   5.508   8.010 -2.4348 -1.6900  0.8576
 8639SOL     OW43526   5.313  11.738   1.249  0.3453  0.2432 -0.3944
 8639SOL    HW143527   5.341  11.651   1.223  3.1946  0.9567 -0.0608
 8639SOL    HW243528   5.248  11.763   1.183  0.0766 -1.7748 -0.9626
 8640SOL     OW43529  12.869  13.068  12.494 -0.3450 -0.4440  0.1683
 8640SOL    HW143530  12.938  13.004  12.477 -1.6509 -1.4439 -1.7818
 8640SOL    HW243531  12.793  13.015  12.517 -1.1362  0.4645 -0.2783
 8641SOL     OW43532   3.762   1.169  11.071  0.2828 -0.9214  0.0008
 8641SOL    HW143533   3.818   1.195  11.144  3.6198  0.8413 -2.8895
 8641SOL    HW243534   3.767   1.073  11.070  0.0623 -0.9945  2.0416
 8642SOL     OW43535  12.328   7.276  12.844 -0.4042 -0.1487  0.2816
 8642SOL    HW143536  12.267   7.219  12.891 -0.7674  0.7087  0.8532
 8642SOL    HW243537  12.289   7.363  12.849  0.0117  0.1119 -0.8280
 8643SOL     OW43538   2.248   5.773   3.152 -0.3641 -0.3723 -0.2316
 8643SOL    HW143539   2.221   5.684   3.174  0.0386 -0.2752  0.7436
 8643SOL    HW243540   2.324   5.789   3.208 -0.4101  0.5754 -0.4196
 8644SOL     OW43541  13.536   7.823   0.175 -0.0950  0.1663 -0.0848
 8644SOL    HW143542  13.533   7.870   0.259  0.5947  1.1920 -0.6035
 8644SOL    HW243543  13.621   7.778   0.176 -0.5436 -0.6990  0.2009
 8645SOL     OW43544  11.140   3.728  12.421 -0.1137  0.1226  0.0277
 8645SOL    HW143545  11.141   3.815  12.460  0.5046  0.2161 -0.1845
 8645SOL    HW243546  11.063   3.728  12.364  0.0551  0.6350 -0.2039
 8646SOL     OW43547  12.508   2.290   1.336  0.6309 -0.7912  0.2250
 8646SOL    HW143548  12.470   2.370   1.298  1.7003  0.7103  2.1398
 8646SOL    HW243549  12.576   2.264   1.274  0.3911 -0.1155 -0.3389
 8647SOL     OW43550   9.120   1.016   1.908 -0.3715  0.0249 -0.8261
 8647SOL    HW143551   9.062   0.991   1.980  0.1778 -0.2955 -0.4908
 8647SOL    HW243552   9.144   0.933   1.868 -0.9348  0.2179 -1.5962
 8648SOL     OW43553   4.901   3.614   5.355  0.0011  0.0187 -0.6788
 8648SOL    HW143554   4.863   3.528   5.367  1.9360 -0.9732 -1.2287
 8648SOL    HW243555   4.875   3.641   5.267 -1.8945  0.7404  0.0508
 8649SOL     OW43556   9.897   9.427  12.259  0.0169 -0.3086  0.6319
 8649SOL    HW143557   9.806   9.435  12.288 -0.5727 -1.1921 -0.8935
 8649SOL    HW243558   9.923   9.339  12.285  0.2037 -0.3105  0.4385
 8650SOL     OW43559   5.680   4.326  12.187  0.1127  0.2021 -0.1287
 8650SOL    HW143560   5.762   4.317  12.235  1.5704  1.9369 -2.1522
 8650SOL    HW243561   5.657   4.419  12.195 -1.1943 -0.0724 -0.3691
 8651SOL     OW43562   2.367   5.002  10.191 -0.0498 -0.1977 -0.1022
 8651SOL    HW143563   2.318   5.006  10.109  0.5562  1.3027 -0.4280
 8651SOL    HW243564   2.435   5.069  10.182  2.0157 -2.0835  0.3753
 8652SOL     OW43565   5.376   0.631   1.827 -0.1484  0.6841 -0.0254
 8652SOL    HW143566   5.328   0.557   1.865  1.0490 -0.8555 -1.3602
 8652SOL    HW243567   5.333   0.648   1.744  0.8741  0.0328 -0.7140
 8653SOL     OW43568   2.208  13.227   2.876  0.8481 -0.2340 -0.8373
 8653SOL    HW143569   2.272  13.158   2.855 -0.1936 -0.9238 -1.8600
 8653SOL    HW243570   2.159  13.239   2.795 -1.8178 -1.3120  0.5061
 8654SOL     OW43571  12.725   6.638   3.114  0.1547  0.2582 -0.5383
 8654SOL    HW143572  12.726   6.548   3.083 -0.7704 -0.5795  1.6003
 8654SOL    HW243573  12.643   6.644   3.164  0.2915  2.2356 -0.5011
 8655SOL     OW43574  13.032   2.822   5.651 -0.2639  0.6880 -0.1773
 8655SOL    HW143575  12.943   2.857   5.648 -0.4903  0.1153 -0.2464
 8655SOL    HW243576  13.027   2.741   5.600  0.1417  0.3135  0.3712
 8656SOL     OW43577  10.056  11.423   1.571 -0.3299 -0.0378  0.5224
 8656SOL    HW143578  10.081  11.331   1.573 -1.9121 -0.4977  0.6355
 8656SOL    HW243579   9.962  11.423   1.591 -0.8206  1.4089 -1.4665
 8657SOL     OW43580   4.576   8.698   2.761 -0.0799  0.0041 -0.1489
 8657SOL    HW143581   4.559   8.750   2.683 -3.2654  1.1488  1.1150
 8657SOL    HW243582   4.491   8.656   2.780  1.4326 -2.8665  0.8999
 8658SOL     OW43583   6.398  10.542  13.432  0.2259 -0.6861  0.6488
 8658SOL    HW143584   6.368  10.468  13.484 -0.7088 -0.4896  0.4085
 8658SOL    HW243585   6.320  10.572  13.385  0.9342 -0.5683 -0.5051
 8659SOL     OW43586   7.478   5.336   3.198 -0.1789  0.7713 -0.2226
 8659SOL    HW143587   7.414   5.376   3.256 -0.4898 -0.0641  0.0372
 8659SOL    HW243588   7.474   5.387   3.118 -1.1134  0.7816 -0.1798
 8660SOL     OW43589   2.342  11.260   9.351  0.8821  0.6747  0.5773
 8660SOL    HW143590   2.352  11.323   9.423  2.5843  1.8059 -0.5595
 8660SOL    HW243591   2.432  11.245   9.321  0.6012 -2.5937  0.9753
 8661SOL     OW43592   1.588   5.614   0.456  0.7957  0.7259 -0.0767
 8661SOL    HW143593   1.542   5.685   0.500  1.4886  0.2803  1.4241
 8661SOL    HW243594   1.522   5.573   0.400 -1.1748 -0.9052  3.1736
 8662SOL     OW43595  11.283   8.120   8.151  0.0854  0.4933 -0.0536
 8662SOL    HW143596  11.207   8.176   8.141  1.2708  2.2169  0.0851
 8662SOL    HW243597  11.291   8.074   8.067 -1.7204 -0.6139  0.3282
 8663SOL     OW43598   3.600   6.447  10.699 -0.1387 -0.0749  0.9776
 8663SOL    HW143599   3.543   6.403  10.636  0.3574 -0.7172  0.9707
 8663SOL    HW243600   3.688   6.419  10.675  0.1614  0.6765  1.1729
 8664SOL     OW43601  11.521   0.176  11.250  0.1786 -0.3150 -0.2750
 8664SOL    HW143602  11.435   0.135  11.266  0.7772 -1.1821  0.8578
 8664SOL    HW243603  11.540   0.155  11.158 -0.9179  0.0911 -0.6088
 8665SOL     OW43604   7.560   2.273  11.677 -0.0761 -0.0788  0.4062
 8665SOL    HW143605   7.543   2.179  11.668  1.0359 -0.1067 -2.4095
 8665SOL    HW243606   7.603   2.298  11.595  3.5688  2.0505  2.6859
 8666SOL     OW43607   0.204   3.662   3.243 -0.5392 -0.3848  0.1237
 8666SOL    HW143608   0.189   3.569   3.261  1.4651 -1.1953 -1.8985
 8666SOL    HW243609   0.279   3.686   3.296 -0.1526 -0.3365 -0.4346
 8667SOL     OW43610   8.612   1.442   7.088  0.1095 -0.3301 -0.1087
 8667SOL    HW143611   8.632   1.419   7.179  1.1967 -0.4349 -0.3500
 8667SOL    HW243612   8.592   1.358   7.046  0.4929 -0.4033 -0.1566
 8668SOL     OW43613  11.167   1.626   7.000 -1.2039  0.0570 -0.3723
 8668SOL    HW143614  11.160   1.699   7.062  0.1937  2.3730 -2.7314
 8668SOL    HW243615  11.228   1.565   7.042 -1.5126  0.7700  1.1820
 8669SOL     OW43616   5.532   8.241   2.854 -0.5274 -0.1808  0.2837
 8669SOL    HW143617   5.474   8.187   2.909 -3.0879  1.2740 -0.7823
 8669SOL    HW243618   5.530   8.198   2.768  0.4613 -0.4087  0.3639
 8670SOL     OW43619  10.584   2.580   9.218 -0.3802 -0.2708 -0.2331
 8670SOL    HW143620  10.515   2.556   9.280 -0.9381  2.3328  0.2984
 8670SOL    HW243621  10.565   2.672   9.197  0.5876 -0.6594 -3.2482
 8671SOL     OW43622  12.460   2.877   6.853  0.5048  0.0253 -0.0812
 8671SOL    HW143623  12.433   2.937   6.782  1.9480 -0.4001 -1.0353
 8671SOL    HW243624  12.541   2.915   6.887  1.1912 -1.1220 -0.3829
 8672SOL     OW43625   9.201   6.423  10.433 -0.8726 -0.2202  0.6679
 8672SOL    HW143626   9.223   6.340  10.390  0.8624  0.3591  0.3476
 8672SOL    HW243627   9.228   6.490  10.370 -1.7139  0.6070  1.1644
 8673SOL     OW43628   4.186  11.211   3.507 -0.3764  0.4069 -0.4285
 8673SOL    HW143629   4.235  11.130   3.516 -0.4692  0.5323  1.4935
 8673SOL    HW243630   4.252  11.278   3.493 -0.3528 -0.0832 -3.3040
 8674SOL     OW43631   0.325   0.632   3.599  0.4632  0.3788 -0.6278
 8674SOL    HW143632   0.272   0.680   3.535 -1.2063 -3.3178 -2.3414
 8674SOL    HW243633   0.397   0.594   3.548  0.4244 -0.7341  0.0935
 8675SOL     OW43634  10.078   6.892   5.650 -0.1131  0.9071  0.2871
 8675SOL    HW143635  10.154   6.948   5.665 -1.0399  2.2198  0.2321
 8675SOL    HW243636  10.036   6.885   5.736  1.3074 -1.7746  0.8658
 8676SOL     OW43637   2.190  11.663   5.783  0.3086  0.2932 -0.0810
 8676SOL    HW143638   2.117  11.654   5.845 -0.0137 -0.3151 -0.5428
 8676SOL    HW243639   2.188  11.582   5.732  0.0058  1.1486 -1.4864
 8677SOL     OW43640  13.259   9.027   6.577  0.3006 -0.0393 -0.5121
 8677SOL    HW143641  13.258   8.942   6.622 -0.5897 -0.1034 -0.6432
 8677SOL    HW243642  13.275   9.091   6.646  0.1889 -0.2478 -0.2943
 8678SOL     OW43643   9.935   9.808   3.898 -0.0273 -0.1853 -0.0577
 8678SOL    HW143644   9.954   9.901   3.884 -0.6540 -0.1316 -0.5870
 8678SOL    HW243645  10.020   9.771   3.924  0.2863  0.4809 -0.0910
 8679SOL     OW43646   3.230   8.901  12.650 -0.0064 -0.0814 -0.3912
 8679SOL    HW143647   3.141   8.918  12.619  0.7879  1.1181 -2.1980
 8679SOL    HW243648   3.230   8.808  12.671 -1.7854 -0.0211  0.0835
 8680SOL     OW43649   7.346   6.205   2.847 -0.1210 -0.3565  0.2351
 8680SOL    HW143650   7.278   6.204   2.780  1.7855 -0.2076 -1.8284
 8680SOL    HW243651   7.349   6.296   2.877  0.1606 -0.0111 -0.7916
 8681SOL     OW43652  11.281  11.562   6.504 -0.6894 -0.0577 -0.3321
 8681SOL    HW143653  11.290  11.468   6.489 -1.3113  0.0337 -1.3541
 8681SOL    HW243654  11.339  11.602   6.439  1.7693  0.2591  1.8743
 8682SOL     OW43655  10.205  10.565  11.602  0.1158 -0.0920 -0.0236
 8682SOL    HW143656  10.130  10.600  11.650  0.1600 -0.1765  0.1082
 8682SOL    HW243657  10.250  10.508  11.665  1.0700  1.0230  0.3469
 8683SOL     OW43658   9.328   7.743   1.921 -0.1583 -0.4360  0.4343
 8683SOL    HW143659   9.387   7.806   1.964  0.3503  0.1931 -1.1297
 8683SOL    HW243660   9.244   7.789   1.915  0.3368  0.3295 -1.1360
 8684SOL     OW43661   4.806   5.551   3.419  0.2889  0.1833 -0.7742
 8684SOL    HW143662   4.714   5.577   3.422  0.4938  1.0067 -1.1557
 8684SOL    HW243663   4.819   5.497   3.497 -0.2044  1.1519  0.0033
 8685SOL     OW43664   0.339   2.825  11.749  0.2044  0.4359 -0.2567
 8685SOL    HW143665   0.266   2.879  11.719  1.4749  1.7636 -1.1162
 8685SOL    HW243666   0.378   2.791  11.669 -1.5433 -3.3080  0.2645
 8686SOL     OW43667   7.048   3.847   8.123  0.7651  0.2873  0.3234
 8686SOL    HW143668   7.000   3.926   8.148  0.6847 -0.1502  1.6367
 8686SOL    HW243669   7.061   3.855   8.028 -2.1860  0.2798 -0.1788
 8687SOL     OW43670  14.073  12.648  11.685 -0.2627 -0.3042  0.1641
 8687SOL    HW143671  13.994  12.605  11.717 -0.5653 -0.4119 -0.7080
 8687SOL    HW243672  14.145  12.593  11.715 -0.3003  1.0333  3.0535
 8688SOL     OW43673   2.619  13.474   8.515  0.5323 -0.4851  0.3508
 8688SOL    HW143674   2.560  13.532   8.467  0.1925  0.0755  1.4214
 8688SOL    HW243675   2.576  13.458   8.599  0.6100 -2.3216  0.0903
 8689SOL     OW43676  12.584   7.690  11.760  0.2225  0.2586 -0.1951
 8689SOL    HW143677  12.581   7.620  11.825  2.6168  0.0638 -0.1927
 8689SOL    HW243678  12.584   7.771  11.812  3.3188  0.0913  0.2456
 8690SOL     OW43679  12.018   1.566   9.521  0.2712  0.6178 -0.2972
 8690SOL    HW143680  12.097   1.616   9.540  1.7345 -1.3515 -0.8807
 8690SOL    HW243681  12.026   1.487   9.575 -0.7829 -0.0974 -1.1434
 8691SOL     OW43682  11.975   7.778   0.055 -0.2702 -0.1783 -0.2702
 8691SOL    HW143683  11.926   7.831   0.118  2.4651  0.7540  1.2219
 8691SOL    HW243684  12.055   7.827   0.040  1.2568 -2.6921 -0.8108
 8692SOL     OW43685   7.791  13.408   0.563 -0.6884 -0.5643 -0.0023
 8692SOL    HW143686   7.701  13.435   0.545 -1.0016  0.4041  2.5328
 8692SOL    HW243687   7.844  13.463   0.506 -1.6563 -1.3946 -1.7976
 8693SOL     OW43688   5.069  10.173   6.498  0.5471 -0.4787 -0.4271
 8693SOL    HW143689   5.058  10.119   6.420 -0.1862  0.4242 -0.9684
 8693SOL    HW243690   5.086  10.261   6.463  1.0216 -0.2232  0.4337
 8694SOL     OW43691   5.329   1.072   4.721 -0.0866  0.1146 -1.0590
 8694SOL    HW143692   5.336   1.078   4.816  0.3383 -1.6524 -0.9374
 8694SOL    HW243693   5.413   1.104   4.687 -0.4934  1.4069 -0.9090
 8695SOL     OW43694  10.570   3.212  13.464 -0.0324  0.3148 -0.0278
 8695SOL    HW143695  10.605   3.212  13.553  0.3617  2.3967 -0.1451
 8695SOL    HW243696  10.637   3.167  13.412  0.3190  0.2106  0.5099
 8696SOL     OW43697   4.914  10.007   5.795 -0.3263 -0.9099  0.8402
 8696SOL    HW143698   4.844  10.052   5.747 -0.1332 -2.1916 -0.7592
 8696SOL    HW243699   4.987  10.068   5.792 -0.4406 -0.7988 -0.2141
 8697SOL     OW43700   0.653   5.065   7.222  0.0292  0.0849  0.6663
 8697SOL    HW143701   0.670   5.128   7.152  1.2790 -0.5496  0.3598
 8697SOL    HW243702   0.628   5.118   7.297 -1.6055  0.7606 -0.3111
 8698SOL     OW43703   9.751   3.413   8.968 -0.5865  0.2971  0.0098
 8698SOL    HW143704   9.687   3.365   8.916 -0.6373  0.7885 -0.3844
 8698SOL    HW243705   9.718   3.408   9.058 -1.6370  1.2627 -0.3032
 8699SOL     OW43706   2.620   5.096   9.722 -0.1870 -0.1709  0.3534
 8699SOL    HW143707   2.689   5.160   9.704 -1.7049  0.8450 -2.5963
 8699SOL    HW243708   2.653   5.013   9.686  0.0487 -0.0017  0.1836
 8700SOL     OW43709  11.506  11.124  10.306 -0.7634 -0.8632  0.1461
 8700SOL    HW143710  11.414  11.125  10.280 -0.2258  0.9188 -1.9864
 8700SOL    HW243711  11.533  11.215  10.299 -0.1507 -0.1546  6.1790
 8701SOL     OW43712   3.708  10.039   9.370 -0.4389  0.0307 -0.4888
 8701SOL    HW143713   3.762  10.051   9.448 -0.8720 -0.9595 -0.0239
 8701SOL    HW243714   3.678   9.948   9.375 -0.3179 -0.1055 -1.9129
 8702SOL     OW43715   4.219   3.494  11.264 -0.8956 -0.4214  0.3960
 8702SOL    HW143716   4.190   3.570  11.315  0.1264 -0.1119  0.5196
 8702SOL    HW243717   4.312   3.509  11.248 -0.5175 -1.9488  0.9704
 8703SOL     OW43718   1.918  13.128  12.401  0.0620 -0.0825  0.4258
 8703SOL    HW143719   1.835  13.154  12.441 -0.1494  1.9463 -1.1571
 8703SOL    HW243720   1.892  13.069  12.330  0.2842 -2.0037  1.8551
 8704SOL     OW43721  11.810  12.424   0.197  0.6430  0.6856  0.3026
 8704SOL    HW143722  11.767  12.369   0.262  1.4348  0.4394  0.6312
 8704SOL    HW243723  11.857  12.491   0.248 -0.5312  1.8593 -0.0959
 8705SOL     OW43724   5.542   6.567   3.669 -0.7097  0.1589  0.1521
 8705SOL    HW143725   5.523   6.496   3.609 -1.6360  0.0967  0.4971
 8705SOL    HW243726   5.456   6.600   3.696 -0.3243  2.0042 -0.6948
 8706SOL     OW43727   6.015   2.621  13.672  0.1128 -1.0092 -0.3170
 8706SOL    HW143728   6.061   2.613  13.756  1.0291  1.7028 -0.4466
 8706SOL    HW243729   5.949   2.688  13.688  0.9605  0.2954 -1.9717
 8707SOL     OW43730  12.160  11.160   2.735  0.2226 -0.5159 -0.2760
 8707SOL    HW143731  12.166  11.170   2.640 -1.2019  0.3267 -0.3074
 8707SOL    HW243732  12.091  11.094   2.748 -0.1000 -0.1050  0.1708
 8708SOL     OW43733   7.103  10.454   5.722  0.4067  0.2748 -0.0786
 8708SOL    HW143734   7.115  10.463   5.816 -3.2234  0.4799  0.4838
 8708SOL    HW243735   7.093  10.543   5.690 -0.0743  0.1194 -0.3715
 8709SOL     OW43736   3.786   0.257   3.432  0.0021  0.3366 -0.3157
 8709SOL    HW143737   3.741   0.207   3.364  0.0922 -0.3772  0.1491
 8709SOL    HW243738   3.736   0.339   3.438  0.5995  0.8709 -1.9635
 8710SOL     OW43739   5.248   3.239   0.602  0.3879 -0.4700 -0.1988
 8710SOL    HW143740   5.257   3.311   0.665 -1.7222  0.5779 -0.9795
 8710SOL    HW243741   5.155   3.218   0.603  0.4883 -1.2159 -2.0895
 8711SOL     OW43742  12.866   1.431   9.778 -0.0288  0.0271 -0.0801
 8711SOL    HW143743  12.857   1.336   9.774  2.4261 -0.2387 -1.2030
 8711SOL    HW243744  12.831   1.462   9.695 -0.0333  0.0147 -0.0827
 8712SOL     OW43745   3.700   9.273   5.008  0.5151 -1.0277 -0.2481
 8712SOL    HW143746   3.782   9.319   4.992  0.6109  0.0152  2.6486
 8712SOL    HW243747   3.703   9.249   5.101 -3.0019  0.3271  0.4010
 8713SOL     OW43748   5.927   2.255   3.935  0.0122  0.0479 -0.0219
 8713SOL    HW143749   5.879   2.337   3.943  0.2884  0.2575 -0.4885
 8713SOL    HW243750   6.005   2.277   3.886 -0.6130 -0.7652 -1.4634
 8714SOL     OW43751   5.040   1.183   9.131 -0.3225  0.2928 -0.0137
 8714SOL    HW143752   5.058   1.195   9.038  2.0899 -1.6808  0.0800
 8714SOL    HW243753   5.123   1.204   9.174 -0.0467 -2.8376  1.2357
 8715SOL     OW43754  11.884   9.097   0.803 -0.2772  0.3254  0.1350
 8715SOL    HW143755  11.943   9.172   0.796 -0.2669  0.2446 -0.7030
 8715SOL    HW243756  11.937   9.030   0.846  0.5430 -0.0208 -1.3344
 8716SOL     OW43757   4.900   9.806   5.216 -0.5573  0.4109  0.7453
 8716SOL    HW143758   4.921   9.880   5.159 -0.1766  0.1174  0.5011
 8716SOL    HW243759   4.985   9.769   5.239 -0.7856 -0.9237 -0.4193
 8717SOL     OW43760   0.962  13.649   5.399  0.1531  0.0134  0.1917
 8717SOL    HW143761   0.974  13.559   5.432  0.2786  0.1442  0.5155
 8717SOL    HW243762   0.997  13.647   5.310 -1.9800 -0.8268 -0.6771
 8718SOL     OW43763   2.682   9.447   1.339 -0.0709  0.1332  0.3671
 8718SOL    HW143764   2.601   9.473   1.296  0.7136  1.5850 -0.3407
 8718SOL    HW243765   2.657   9.376   1.398 -1.8102  0.4549  0.0715
 8719SOL     OW43766   7.193   8.665   4.143 -0.3456 -0.0742 -0.0290
 8719SOL    HW143767   7.115   8.634   4.096  0.3205 -1.0363 -0.5438
 8719SOL    HW243768   7.164   8.670   4.235 -1.0828 -0.1839 -0.2437
 8720SOL     OW43769  12.207   7.911   5.157  0.2764  0.1953  0.4060
 8720SOL    HW143770  12.222   7.821   5.127  2.2475  0.4917  0.3934
 8720SOL    HW243771  12.125   7.906   5.207  1.1076 -1.9313  1.6813
 8721SOL     OW43772   9.067   7.158   3.471 -0.1652  0.1050  0.8091
 8721SOL    HW143773   9.014   7.097   3.419 -0.0806 -0.0819  0.9396
 8721SOL    HW243774   9.030   7.244   3.452  0.0250  0.0678  0.2459
 8722SOL     OW43775   7.375   4.500  12.304  0.3096 -0.2725  0.1843
 8722SOL    HW143776   7.354   4.421  12.253 -1.4596  0.4919 -0.3381
 8722SOL    HW243777   7.443   4.471  12.365 -0.3115 -2.2240  0.0433
 8723SOL     OW43778  11.973   2.885   1.079 -0.2651 -0.0628  0.1659
 8723SOL    HW143779  12.018   2.838   1.148 -0.3639 -1.6181 -0.7801
 8723SOL    HW243780  12.019   2.860   0.999 -1.3656  0.1390 -0.5482
 8724SOL     OW43781   2.551   7.913  11.622 -0.9007 -0.1038 -0.3426
 8724SOL    HW143782   2.611   7.898  11.550 -1.4167 -0.2500 -0.7467
 8724SOL    HW243783   2.563   7.838  11.680 -0.1089  0.2705 -0.0006
 8725SOL     OW43784   1.064  11.031   8.944  0.4309  0.1749  0.9012
 8725SOL    HW143785   1.127  10.965   8.974  0.5102 -0.0835  0.1896
 8725SOL    HW243786   0.995  10.980   8.901  0.6170  0.5639  0.1211
 8726SOL     OW43787  11.074  11.161  12.514  0.4122 -0.0738 -0.0596
 8726SOL    HW143788  11.128  11.229  12.554 -0.0363  0.3140 -0.1161
 8726SOL    HW243789  10.986  11.178  12.547  0.3431 -0.7943  0.1518
 8727SOL     OW43790   8.826   3.251   3.125  0.2154  0.0469  0.0647
 8727SOL    HW143791   8.826   3.160   3.154  1.5568 -0.2113 -0.6797
 8727SOL    HW243792   8.734   3.277   3.127 -0.2829 -1.5828 -0.5263
 8728SOL     OW43793   5.070  13.010   1.882  0.3246  0.3203  0.0195
 8728SOL    HW143794   5.135  12.942   1.863  1.8047  1.5253  0.5820
 8728SOL    HW243795   5.029  12.983   1.964  1.0690  0.2155  0.3613
 8729SOL     OW43796   0.927  10.993  12.481 -0.1871  0.1050 -0.0094
 8729SOL    HW143797   0.847  10.942  12.472  1.7445 -2.8861 -1.9402
 8729SOL    HW243798   0.946  10.993  12.575 -0.2029 -3.0188  0.0728
 8730SOL     OW43799   9.777   2.715   0.057  0.8737 -0.2320  0.0933
 8730SOL    HW143800   9.754   2.704   0.150  1.3233  0.3649  0.2799
 8730SOL    HW243801   9.858   2.664   0.047  0.1823 -1.3004 -0.2697
 8731SOL     OW43802   2.611  12.408  10.487  0.2991  0.4393  0.2663
 8731SOL    HW143803   2.577  12.337  10.432  0.6564  0.4314  0.0483
 8731SOL    HW243804   2.541  12.473  10.488 -0.0640  0.0501  0.5362
 8732SOL     OW43805  11.820   3.787   9.951  0.0930  0.1555 -0.1940
 8732SOL    HW143806  11.744   3.732   9.930 -0.5126  0.1635  1.8197
 8732SOL    HW243807  11.807   3.866   9.899  0.2168 -0.9429 -2.0030
 8733SOL     OW43808  13.379  11.945  11.159  0.0278  0.2125  0.1786
 8733SOL    HW143809  13.389  11.924  11.252 -0.0291  0.2803  0.1998
 8733SOL    HW243810  13.464  11.925  11.121 -0.5350 -1.8282 -0.1475
 8734SOL     OW43811   4.739   4.431   4.753  0.3033 -0.3719  0.1608
 8734SOL    HW143812   4.716   4.432   4.660 -0.8432  2.5421  0.3746
 8734SOL    HW243813   4.659   4.402   4.797  0.0740  0.4982  0.3394
 8735SOL     OW43814   3.055   2.797  11.054 -0.1818 -0.0497  0.1160
 8735SOL    HW143815   3.017   2.849  10.983 -0.8323  0.9864  1.1840
 8735SOL    HW243816   3.030   2.844  11.134  1.4586 -0.5723  0.9807
 8736SOL     OW43817  12.663   7.520   3.076  0.1307 -0.5253  0.1932
 8736SOL    HW143818  12.731   7.530   3.009  1.0583 -0.2504  1.1424
 8736SOL    HW243819  12.583   7.501   3.027  0.3388  1.6581 -1.1478
 8737SOL     OW43820  13.153   6.424  11.476 -0.7496 -0.1538 -0.0472
 8737SOL    HW143821  13.191   6.337  11.465  0.9049  0.5789 -0.2856
 8737SOL    HW243822  13.150   6.461  11.388 -1.2548  0.1143  0.0771
 8738SOL     OW43823   0.118   7.838   7.862 -0.5512 -0.1828  0.4038
 8738SOL    HW143824   0.199   7.813   7.816 -1.9387 -0.5978 -2.0085
 8738SOL    HW243825   0.096   7.761   7.914 -0.2083 -0.6714 -0.1540
 8739SOL     OW43826   3.792   1.043   0.668 -0.1615 -0.1481 -0.0935
 8739SOL    HW143827   3.754   0.958   0.645 -0.9648  0.4911 -1.2305
 8739SOL    HW243828   3.729   1.107   0.635  0.6358  0.9019  0.3730
 8740SOL     OW43829  13.323   8.840   7.364  0.5437 -0.1181  0.2812
 8740SOL    HW143830  13.389   8.771   7.369  0.0121 -0.7316 -0.7978
 8740SOL    HW243831  13.256   8.805   7.305 -0.1204  1.0068  0.3415
 8741SOL     OW43832  12.140  13.707  11.193 -0.0565  0.2008 -0.3199
 8741SOL    HW143833  12.107  13.642  11.132  0.1551  1.3353 -1.6947
 8741SOL    HW243834  12.217  13.744  11.150 -1.7422  3.3179 -0.9639
 8742SOL     OW43835   1.656   9.792   8.925  0.0325 -0.5250  0.2676
 8742SOL    HW143836   1.631   9.710   8.884  1.5428 -0.2981 -1.2146
 8742SOL    HW243837   1.716   9.766   8.995  0.3545 -0.7022 -0.0715
 8743SOL     OW43838  10.982   8.088   5.764  0.3945  0.5080 -0.6455
 8743SOL    HW143839  10.990   8.008   5.817 -0.2443  0.6577 -0.3120
 8743SOL    HW243840  11.012   8.158   5.821  1.5898  0.4460 -1.1606
 8744SOL     OW43841   1.765  11.332   7.125 -0.2902  0.1153 -0.2116
 8744SOL    HW143842   1.757  11.314   7.219  1.3847 -2.4368 -0.4374
 8744SOL    HW243843   1.855  11.362   7.114 -0.5674  0.6970 -0.9865
 8745SOL     OW43844   8.573   4.848  12.503  0.0736  0.0325 -0.2800
 8745SOL    HW143845   8.614   4.915  12.448 -2.1060  1.7047  0.0005
 8745SOL    HW243846   8.527   4.897  12.571 -0.1931 -1.8532  0.9786
 8746SOL     OW43847   8.186   3.931   5.433  0.2996  0.2567 -0.0896
 8746SOL    HW143848   8.218   3.923   5.522 -0.8585  0.8556  0.3989
 8746SOL    HW243849   8.265   3.943   5.380  1.2502 -2.7810  0.4702
 8747SOL     OW43850   5.826   3.425   3.361  0.4979  0.1329 -0.3437
 8747SOL    HW143851   5.814   3.477   3.440  0.7485  1.4435 -1.1356
 8747SOL    HW243852   5.799   3.336   3.386  0.1532  0.6127  1.0706
 8748SOL     OW43853  13.856  12.485  11.755 -0.3270  0.5363  0.0536
 8748SOL    HW143854  13.784  12.487  11.818 -0.8014  0.2231 -0.4614
 8748SOL    HW243855  13.813  12.475  11.670  0.4011 -1.9382 -0.0895
 8749SOL     OW43856   5.335  13.260   4.392  0.0823  0.1134  0.3988
 8749SOL    HW143857   5.265  13.214   4.345 -0.1089 -1.5375  2.1668
 8749SOL    HW243858   5.302  13.349   4.402  0.5806  0.8514 -3.3923
 8750SOL     OW43859  13.606   8.671   8.199 -0.1064  0.6190 -0.0043
 8750SOL    HW143860  13.513   8.684   8.179 -0.0928  1.4069  0.4120
 8750SOL    HW243861  13.634   8.755   8.236  0.7781  0.3945 -0.1561
 8751SOL     OW43862   1.852   8.386   2.276 -0.3209 -0.0326 -0.3814
 8751SOL    HW143863   1.793   8.326   2.231 -0.7703 -0.8431  1.2293
 8751SOL    HW243864   1.818   8.392   2.365  0.7460  1.2393 -0.0176
 8752SOL     OW43865   8.574   0.667   2.316 -0.6726 -0.1809  0.2374
 8752SOL    HW143866   8.628   0.717   2.255 -2.6399  0.0231 -1.4442
 8752SOL    HW243867   8.599   0.576   2.300  0.5178  0.0262  0.8692
 8753SOL     OW43868   2.616   3.798  10.644  0.1825 -0.1982  0.0726
 8753SOL    HW143869   2.637   3.705  10.640  0.5668 -0.1420  0.6195
 8753SOL    HW243870   2.521   3.802  10.634  0.3296 -0.5043 -1.8950
 8754SOL     OW43871   2.928  10.800  11.228  0.2419 -0.4468  0.0000
 8754SOL    HW143872   2.843  10.842  11.222 -0.8806 -2.4485  1.0178
 8754SOL    HW243873   2.991  10.872  11.220 -1.4374  0.8757 -2.6535
 8755SOL     OW43874   3.159   8.067  12.858 -0.5259 -0.4226  0.0599
 8755SOL    HW143875   3.106   8.131  12.905 -0.9205 -0.9955  0.4162
 8755SOL    HW243876   3.099   8.029  12.794 -0.2183 -0.2452 -0.3393
 8756SOL     OW43877   0.665   0.578   0.535 -0.0072 -0.2968 -0.0407
 8756SOL    HW143878   0.733   0.613   0.478 -0.2752 -0.7008 -0.6068
 8756SOL    HW243879   0.687   0.486   0.546  0.8958  0.0774  1.7343
 8757SOL     OW43880   0.441  11.205   2.453 -0.4908 -0.3521 -0.3390
 8757SOL    HW143881   0.416  11.194   2.361  1.0355 -1.1164 -0.6939
 8757SOL    HW243882   0.495  11.284   2.454  1.4909 -1.6488 -0.5632
 8758SOL     OW43883  14.016   7.668  12.780  0.2525 -0.0290 -0.5672
 8758SOL    HW143884  14.103   7.704  12.800 -0.5699  2.0016 -0.4166
 8758SOL    HW243885  14.017   7.655  12.685  1.3993 -2.0487 -0.3416
 8759SOL     OW43886   1.611  12.847   4.285  0.7319 -0.9273 -0.2858
 8759SOL    HW143887   1.538  12.832   4.345  0.3895  2.0244  0.1896
 8759SOL    HW243888   1.677  12.890   4.339  0.4082  1.8331 -1.9033
 8760SOL     OW43889  12.151  11.877  11.188  0.8884  0.3047 -0.1592
 8760SOL    HW143890  12.119  11.792  11.219  1.5544 -1.1523 -3.0738
 8760SOL    HW243891  12.074  11.918  11.147  0.8625  0.5698  0.1476
 8761SOL     OW43892  11.299   7.769   7.735  0.4664 -0.5949 -0.2540
 8761SOL    HW143893  11.325   7.753   7.645  2.3410 -1.6581  0.4126
 8761SOL    HW243894  11.273   7.682   7.768 -0.5963 -0.1509  0.1407
 8762SOL     OW43895   2.251   9.657  12.251  0.2414 -0.1623 -0.0608
 8762SOL    HW143896   2.253   9.745  12.213 -0.8927  0.8531  2.0788
 8762SOL    HW243897   2.312   9.606  12.197  0.5291  1.7844 -1.6690
 8763SOL     OW43898   9.312  11.292  13.144 -0.6118 -0.7206  0.5660
 8763SOL    HW143899   9.378  11.240  13.097 -0.5389 -0.5461  0.4751
 8763SOL    HW243900   9.354  11.315  13.226  0.0996  0.8623 -0.2013
 8764SOL     OW43901   9.905   9.114   8.934  0.0554 -0.1197 -0.4886
 8764SOL    HW143902   9.886   9.207   8.917  3.0741  0.5068 -1.0190
 8764SOL    HW243903   9.883   9.101   9.026 -0.3173  1.1531 -0.3766
 8765SOL     OW43904   0.103   1.066   2.870  0.2145 -0.1906  0.3401
 8765SOL    HW143905   0.139   0.994   2.819 -2.0509 -1.4710  0.3871
 8765SOL    HW243906   0.170   1.134   2.868  1.7202 -1.6382 -1.1656
 8766SOL     OW43907  13.397   2.599   4.632 -0.0478  0.1600  0.1490
 8766SOL    HW143908  13.429   2.545   4.560 -0.3562  0.0233  0.1155
 8766SOL    HW243909  13.381   2.537   4.703  1.8327  0.4622  0.9129
 8767SOL     OW43910   1.841   4.294  12.244 -0.7495 -0.2456  0.1742
 8767SOL    HW143911   1.789   4.219  12.216 -0.8940 -0.4144  0.8831
 8767SOL    HW243912   1.911   4.257  12.298 -0.6931  0.1060  0.3491
 8768SOL     OW43913   5.251   7.881   4.586  0.4162 -0.5739  0.1668
 8768SOL    HW143914   5.298   7.965   4.584 -1.2802  0.4620 -2.1049
 8768SOL    HW243915   5.176   7.896   4.528 -0.0197 -3.6484 -0.1969
 8769SOL     OW43916   1.660  11.815   8.368 -0.3938 -0.1574  0.1753
 8769SOL    HW143917   1.569  11.843   8.355 -0.9517 -1.7871  0.3994
 8769SOL    HW243918   1.654  11.738   8.425  1.1965  0.1728  0.8365
 8770SOL     OW43919   9.402  11.151  12.333 -0.5281  0.2982 -0.4297
 8770SOL    HW143920   9.380  11.096  12.258  1.0962 -0.8167 -0.1544
 8770SOL    HW243921   9.448  11.092  12.392 -0.0598  1.6216  0.5601
 8771SOL     OW43922  10.517  11.781   4.324 -0.0107  0.4610 -0.0174
 8771SOL    HW143923  10.492  11.762   4.234 -0.0509  1.1217 -0.1508
 8771SOL    HW243924  10.596  11.729   4.339 -1.0838 -1.1629  0.2084
 8772SOL     OW43925   6.703  12.106   6.887  0.2346  0.0391 -0.0232
 8772SOL    HW143926   6.711  12.011   6.876 -0.2029  0.1190 -1.2119
 8772SOL    HW243927   6.773  12.142   6.831 -1.1999  0.4525 -1.6454
 8773SOL     OW43928   0.695   3.396   3.455  0.4154 -0.1641 -0.2165
 8773SOL    HW143929   0.677   3.487   3.436 -0.0105 -0.3357 -0.6438
 8773SOL    HW243930   0.690   3.351   3.371  2.8690 -0.2393 -0.4063
 8774SOL     OW43931   0.377  13.727   1.090 -0.0262  0.5972  0.1930
 8774SOL    HW143932   0.318  13.740   1.164 -0.8419 -0.5026 -0.2337
 8774SOL    HW243933   0.445  13.794   1.101  0.4513 -0.1929  2.4853
 8775SOL     OW43934   0.698  11.439   5.280  0.0771  0.1395 -0.5707
 8775SOL    HW143935   0.609  11.432   5.314 -0.1332 -2.1392 -1.4433
 8775SOL    HW243936   0.708  11.363   5.222  2.4232  0.6188 -0.8915
 8776SOL     OW43937   1.219  11.993   0.154  0.1147  0.0136  0.7333
 8776SOL    HW143938   1.150  12.035   0.206  0.9625  2.2902  0.1220
 8776SOL    HW243939   1.300  12.022   0.194  0.7477 -0.5218 -0.1302
 8777SOL     OW43940   0.100   1.817   2.907  0.4559  0.6582 -0.1048
 8777SOL    HW143941   0.142   1.892   2.948 -0.5930  0.7402  0.8622
 8777SOL    HW243942   0.105   1.748   2.973  2.8233 -0.6599 -1.5583
 8778SOL     OW43943   9.794   0.738  13.880  0.1698 -0.2014 -0.1680
 8778SOL    HW143944   9.868   0.712  13.826  0.5512 -0.2214  0.3692
 8778SOL    HW243945   9.796   0.834  13.878 -1.2196 -0.1373 -2.1253
 8779SOL     OW43946   5.407   0.837   7.029 -0.5310  0.1306  0.5119
 8779SOL    HW143947   5.455   0.842   7.112 -0.3204 -1.8639  0.5586
 8779SOL    HW243948   5.460   0.778   6.975 -1.8780 -0.4681 -0.1802
 8780SOL     OW43949   8.873   1.655   8.087 -0.0320  0.2214  0.5628
 8780SOL    HW143950   8.867   1.671   8.181 -0.2766  1.4455  0.3679
 8780SOL    HW243951   8.967   1.652   8.069  0.0189 -1.1614  1.0054
 8781SOL     OW43952   1.470  13.426   3.713 -0.1145 -0.0295 -0.2249
 8781SOL    HW143953   1.524  13.453   3.788 -0.5009  0.1780 -0.0143
 8781SOL    HW243954   1.414  13.502   3.697  0.1473  0.0225 -0.8970
 8782SOL     OW43955  11.725   4.565   7.156 -0.7342 -0.0193 -0.5909
 8782SOL    HW143956  11.703   4.637   7.097  0.3403 -0.1737 -1.2030
 8782SOL    HW243957  11.728   4.488   7.099  0.0250 -0.2174 -0.2932
 8783SOL     OW43958   8.205   4.456  11.152 -1.0684 -0.8420 -0.3724
 8783SOL    HW143959   8.282   4.399  11.156  0.6778  1.3669 -0.7311
 8783SOL    HW243960   8.148   4.425  11.223  1.1779 -1.1261  1.4172
 8784SOL     OW43961   2.722   5.079   4.339 -0.1149 -0.5252 -0.4398
 8784SOL    HW143962   2.747   4.992   4.308  0.6843  0.1346 -1.7251
 8784SOL    HW243963   2.800   5.133   4.325  0.3339 -0.1380  2.8056
 8785SOL     OW43964   9.617  10.386  10.329 -0.1992  0.0879  0.2301
 8785SOL    HW143965   9.590  10.472  10.296  0.1587 -0.1693 -0.7574
 8785SOL    HW243966   9.539  10.332  10.325 -0.1945  0.1020 -0.0528
 8786SOL     OW43967  13.870   7.903   8.396 -0.1132  0.1482  0.7225
 8786SOL    HW143968  13.856   7.838   8.465  2.4629  0.0711  1.2540
 8786SOL    HW243969  13.916   7.855   8.327 -0.6140  0.7949 -0.0834
 8787SOL     OW43970   2.891   5.878   8.116  0.0009 -0.0895  0.4622
 8787SOL    HW143971   2.903   5.852   8.208 -1.7555  0.3012  0.8323
 8787SOL    HW243972   2.816   5.827   8.086 -0.9648  1.5363 -0.0132
 8788SOL     OW43973   6.547  13.996   3.302  0.7037  0.2518  0.3405
 8788SOL    HW143974   6.590  13.936   3.241 -0.3665 -0.7989  0.5743
 8788SOL    HW243975   6.477  14.036   3.251 -0.3196 -0.7781  0.9063
 8789SOL     OW43976   2.842   6.884   4.776  0.5428  0.1284 -0.4760
 8789SOL    HW143977   2.760   6.918   4.814  0.3026  1.7719 -2.2858
 8789SOL    HW243978   2.911   6.925   4.829  0.2233 -0.1542  0.1767
 8790SOL     OW43979   3.710   9.247   1.946 -0.3429 -0.7730 -0.6626
 8790SOL    HW143980   3.618   9.220   1.945 -1.3594  2.2710 -0.3345
 8790SOL    HW243981   3.712   9.322   2.005  2.5777 -1.2858  0.0490
 8791SOL     OW43982   5.545  12.528   9.718  0.1316 -0.0345  0.1369
 8791SOL    HW143983   5.461  12.519   9.672  0.6952  0.2550 -0.9806
 8791SOL    HW243984   5.607  12.551   9.650  0.9372  0.7951  1.1193
 8792SOL     OW43985   9.363   5.024   1.657 -0.0435  0.3229  0.2333
 8792SOL    HW143986   9.270   5.015   1.636 -0.5276  1.9615  1.4894
 8792SOL    HW243987   9.377   5.118   1.661  1.5777  0.0896  0.5498
 8793SOL     OW43988   9.923   2.008   2.069 -0.5872  0.0156  0.7023
 8793SOL    HW143989   9.949   2.099   2.061 -1.8671  0.3440 -0.0304
 8793SOL    HW243990   9.848   1.999   2.010  0.3270 -1.8443 -0.2582
 8794SOL     OW43991   0.931   5.912  12.647  0.0554 -0.4469  0.1419
 8794SOL    HW143992   0.897   5.839  12.698  1.2269 -1.0549  0.0920
 8794SOL    HW243993   0.992   5.956  12.707 -1.9531  1.6111  0.8058
 8795SOL     OW43994   1.405   8.572   5.221 -0.1398 -0.4781 -0.3325
 8795SOL    HW143995   1.455   8.500   5.260 -1.4027 -0.6554  1.0838
 8795SOL    HW243996   1.400   8.550   5.128 -0.0442 -1.9616 -0.0199
 8796SOL     OW43997  11.007  12.450  13.555  0.2216 -0.0315 -0.1791
 8796SOL    HW143998  10.996  12.453  13.460 -0.2047 -0.7735 -0.1621
 8796SOL    HW243999  11.092  12.407  13.568  1.0732  1.5493 -0.2336
 8797SOL     OW44000  10.511   6.036   3.064 -0.0225  0.1249  0.1711
 8797SOL    HW144001  10.603   6.052   3.041 -0.1795 -0.9472 -1.4182
 8797SOL    HW244002  10.466   6.118   3.043  0.3817  0.2305 -0.3225
 8798SOL     OW44003   7.323   7.743  13.423 -0.0428  0.0604 -0.0328
 8798SOL    HW144004   7.334   7.776  13.512  0.3547  2.9486 -1.0649
 8798SOL    HW244005   7.409   7.750  13.384 -0.4217 -0.2671 -0.9538
 8799SOL     OW44006   0.949   2.116  11.266  0.0288  0.2163  0.1113
 8799SOL    HW144007   0.994   2.036  11.293  0.3309  0.2774 -0.2052
 8799SOL    HW244008   0.858   2.102  11.291 -0.3441 -1.0839 -1.8003
 8800SOL     OW44009   0.307   4.091   6.311 -0.0287  0.6714 -0.1892
 8800SOL    HW144010   0.220   4.076   6.273  0.4516  0.5467 -1.2709
 8800SOL    HW244011   0.357   4.131   6.240  0.5372  1.6090  0.7178
 8801SOL     OW44012   9.590   4.884   5.006 -0.5289 -0.0250  0.1528
 8801SOL    HW144013   9.556   4.945   5.071  0.7623 -0.8823  1.7212
 8801SOL    HW244014   9.632   4.815   5.057  0.8308 -0.5889 -1.5943
 8802SOL     OW44015  13.061   3.868  10.880  0.4076 -0.7030 -0.2613
 8802SOL    HW144016  13.094   3.858  10.790  0.6148  1.0732 -0.4223
 8802SOL    HW244017  13.049   3.963  10.890  1.3017 -0.7796  1.9090
 8803SOL     OW44018  13.233   3.006  11.055  0.0341  0.3960 -0.5197
 8803SOL    HW144019  13.271   2.918  11.057 -0.6330  0.1149  0.5485
 8803SOL    HW244020  13.263   3.043  10.972  1.9893 -0.0919 -0.0834
 8804SOL     OW44021  11.454   7.515   4.540 -0.1997 -0.2160 -0.2890
 8804SOL    HW144022  11.518   7.460   4.494  0.4360  0.0568  0.2528
 8804SOL    HW244023  11.369   7.481   4.512  0.1824 -0.8424 -0.7184
 8805SOL     OW44024   2.040  11.458   6.108  0.0167 -0.2978 -0.4926
 8805SOL    HW144025   2.018  11.392   6.173  0.3918 -0.9088 -0.9716
 8805SOL    HW244026   2.135  11.469   6.115 -0.3095  2.1689  1.4148
 8806SOL     OW44027  12.408   9.373   8.181 -0.1149 -0.2313  0.2769
 8806SOL    HW144028  12.464   9.356   8.257  1.5661 -0.8788 -1.0478
 8806SOL    HW244029  12.465   9.417   8.118 -1.3953  0.0515 -0.7279
 8807SOL     OW44030   2.580   1.961   0.210  0.5102  0.3722  0.0058
 8807SOL    HW144031   2.573   1.904   0.133 -0.9131  0.8211 -0.2212
 8807SOL    HW244032   2.490   1.984   0.230  0.8409  0.0748  1.9722
 8808SOL     OW44033   5.935  11.681   6.875 -0.2215  0.5864  0.0121
 8808SOL    HW144034   5.963  11.636   6.955 -0.1558  0.1754 -0.2397
 8808SOL    HW244035   5.893  11.761   6.906 -0.1854  0.4361  0.4584
 8809SOL     OW44036   2.822  10.229   8.840 -0.0307  0.0423 -0.5864
 8809SOL    HW144037   2.857  10.176   8.911  0.2311 -0.2133 -0.9036
 8809SOL    HW244038   2.865  10.314   8.851  0.8734 -0.3365 -1.1081
 8810SOL     OW44039  13.812   1.570   4.796  0.3491  0.6286 -0.0608
 8810SOL    HW144040  13.736   1.613   4.835 -0.8734 -2.5685  1.5280
 8810SOL    HW244041  13.775   1.515   4.727  1.2539 -0.6268  0.4137
 8811SOL     OW44042   2.265  12.457   5.991 -0.1786  0.2886 -0.0643
 8811SOL    HW144043   2.295  12.542   6.021 -0.2788  0.6369 -0.9312
 8811SOL    HW244044   2.288  12.397   6.062 -0.0277  1.0172  0.5091
 8812SOL     OW44045   6.891   9.129   4.868 -0.1643 -0.1343 -0.0431
 8812SOL    HW144046   6.900   9.036   4.850  0.9700 -0.4110  1.6680
 8812SOL    HW244047   6.838   9.163   4.796 -0.6381 -2.0966 -0.6784
 8813SOL     OW44048   6.143  10.736   6.864 -0.0110 -0.2389 -0.2862
 8813SOL    HW144049   6.221  10.758   6.814 -0.7462  0.7397 -1.0344
 8813SOL    HW244050   6.132  10.808   6.926 -0.3002 -0.3925 -0.1515
 8814SOL     OW44051  13.097   1.832   7.664 -0.4177  0.3882  0.3157
 8814SOL    HW144052  13.076   1.892   7.735 -1.0462  0.2593  0.2406
 8814SOL    HW244053  13.146   1.762   7.705 -0.8404  0.2794  0.6339
 8815SOL     OW44054  11.524   5.530  11.799  0.5250  0.2007  0.3895
 8815SOL    HW144055  11.520   5.589  11.724  1.2614 -0.1388  0.0759
 8815SOL    HW244056  11.617   5.512  11.811  0.2681 -1.9407 -0.3634
 8816SOL     OW44057   3.382  12.845  12.566  0.6817  0.1564 -0.2887
 8816SOL    HW144058   3.318  12.894  12.619  1.9611  0.7113  0.7881
 8816SOL    HW244059   3.368  12.753  12.590  0.0136  0.2227 -0.3919
 8817SOL     OW44060  11.782   1.166  11.080  0.3152  0.2526  0.1181
 8817SOL    HW144061  11.863   1.211  11.105  0.8807 -0.5383 -0.2357
 8817SOL    HW244062  11.805   1.073  11.081 -0.0918  0.1026 -1.6958
 8818SOL     OW44063   8.495  11.304   0.836 -0.5193  0.0570  0.9252
 8818SOL    HW144064   8.402  11.314   0.817 -0.3174  0.2830  0.0119
 8818SOL    HW244065   8.538  11.365   0.777  0.2686 -0.6905  0.7075
 8819SOL     OW44066   0.500   1.360   9.158 -0.1156 -0.0807 -0.2730
 8819SOL    HW144067   0.509   1.365   9.253  0.8567 -0.0289 -0.3533
 8819SOL    HW244068   0.424   1.415   9.138  0.3477  0.8246  0.3806
 8820SOL     OW44069  11.304  12.564   7.269 -0.7578  0.3916  0.6343
 8820SOL    HW144070  11.312  12.578   7.364  1.0416  1.0426  0.4444
 8820SOL    HW244071  11.343  12.642   7.230 -0.4320 -0.3656 -0.6318
 8821SOL     OW44072  10.416  12.094  10.431  0.3678 -0.6502  0.6671
 8821SOL    HW144073  10.435  12.185  10.453 -1.2564 -0.3507  0.9250
 8821SOL    HW244074  10.421  12.091  10.335 -2.6578  0.5057  0.3817
 8822SOL     OW44075  10.430   8.651   4.009  0.2366 -0.4494 -0.4087
 8822SOL    HW144076  10.450   8.621   4.098  1.2920  1.0059 -0.1203
 8822SOL    HW244077  10.404   8.572   3.962 -1.4807 -1.0910  1.4719
 8823SOL     OW44078   9.923  10.207  11.423 -0.1012 -0.2052 -0.0334
 8823SOL    HW144079   9.830  10.226  11.421  0.2179  1.4129 -1.7652
 8823SOL    HW244080   9.928  10.112  11.411 -1.4868 -0.0907 -1.8843
 8824SOL     OW44081   1.577   3.336  12.427 -0.1976 -0.1863 -0.2096
 8824SOL    HW144082   1.559   3.243  12.438 -0.4453  0.0108  1.1961
 8824SOL    HW244083   1.533   3.378  12.501  1.1735  0.9038  0.0283
 8825SOL     OW44084   8.121   8.601   6.094  0.3348 -0.1001  0.2259
 8825SOL    HW144085   8.081   8.663   6.033  0.2937 -0.3445 -0.0000
 8825SOL    HW244086   8.162   8.656   6.160 -1.4389  0.1624  1.1782
 8826SOL     OW44087  13.305   0.510   2.830  0.4696  0.3154  0.2404
 8826SOL    HW144088  13.224   0.548   2.864 -0.2649 -0.4326 -0.6212
 8826SOL    HW244089  13.323   0.435   2.887  0.0866 -0.0202 -0.0765
 8827SOL     OW44090   6.733  12.828  10.407  0.7184  0.1175  0.0770
 8827SOL    HW144091   6.723  12.913  10.366 -1.8355  0.2674  0.8425
 8827SOL    HW244092   6.643  12.798  10.422  1.5544 -2.0547  1.1613
 8828SOL     OW44093   2.296   7.363   4.150 -0.0164  0.3550  0.0251
 8828SOL    HW144094   2.271   7.376   4.058  0.7086 -1.3810 -0.4727
 8828SOL    HW244095   2.391   7.352   4.147  0.2061  1.7174  1.1968
 8829SOL     OW44096   0.392   6.204   2.771 -0.6663 -0.9440  0.5042
 8829SOL    HW144097   0.433   6.245   2.847 -0.3479 -0.6496  0.1798
 8829SOL    HW244098   0.424   6.114   2.772  1.6848 -0.2187 -0.8839
 8830SOL     OW44099   6.758   5.593   4.544  0.0524  0.6855  0.2196
 8830SOL    HW144100   6.788   5.509   4.509 -0.5325 -0.0941  1.5136
 8830SOL    HW244101   6.839   5.643   4.556  0.7925 -0.8486  2.2824
 8831SOL     OW44102   6.020   1.945  11.219 -0.2008 -0.2114  0.3354
 8831SOL    HW144103   5.979   1.873  11.267 -1.9973  1.7028  1.8572
 8831SOL    HW244104   5.978   1.943  11.133  1.2537 -2.1536 -0.4055
 8832SOL     OW44105   7.215   0.594   2.983  0.1385  0.6424  0.2777
 8832SOL    HW144106   7.244   0.672   3.031  0.6328  1.5949 -1.4897
 8832SOL    HW244107   7.231   0.615   2.891 -0.9162 -1.0613 -0.3387
 8833SOL     OW44108  12.034   0.058   8.610 -0.1266  0.4754 -0.0117
 8833SOL    HW144109  12.074   0.006   8.680  0.8887  2.2364  0.7710
 8833SOL    HW244110  12.073   0.022   8.529 -1.9614 -2.1573  0.1354
 8834SOL     OW44111   4.583   9.129   2.572 -0.0324  0.3690 -0.5396
 8834SOL    HW144112   4.668   9.094   2.544  0.1112  1.2756 -1.2909
 8834SOL    HW244113   4.561   9.194   2.505 -1.6793 -0.3807 -0.7635
 8835SOL     OW44114  13.517  12.941   4.721  0.0469  0.7495 -0.0930
 8835SOL    HW144115  13.490  13.032   4.730 -2.5376  0.0065  0.6228
 8835SOL    HW244116  13.515  12.924   4.627  1.0877  1.5555 -0.2716
 8836SOL     OW44117  11.362   3.228   1.574  0.1584  0.1698  0.1688
 8836SOL    HW144118  11.347   3.142   1.534 -1.5071 -0.1108  1.2829
 8836SOL    HW244119  11.380   3.209   1.666 -0.7562  1.0153  0.5435
 8837SOL     OW44120   5.223   0.796  13.820 -0.1305  0.6683  0.0823
 8837SOL    HW144121   5.174   0.847  13.756 -0.4672  0.8371  0.4694
 8837SOL    HW244122   5.269   0.862  13.872  0.0383  0.5395  0.0961
 8838SOL     OW44123   9.795   5.794   6.903 -0.3873 -0.0304 -0.0187
 8838SOL    HW144124   9.867   5.742   6.937  0.5136  1.1873 -0.0034
 8838SOL    HW244125   9.790   5.869   6.962  1.2266  2.1581 -2.4997
 8839SOL     OW44126  12.681   9.213   1.848 -0.2102  0.4291  0.3019
 8839SOL    HW144127  12.761   9.256   1.816 -0.6141  0.7200 -0.3288
 8839SOL    HW244128  12.679   9.129   1.802  0.5325 -0.2616  1.4699
 8840SOL     OW44129  12.630   0.989  11.130 -0.3579  0.2244 -0.3048
 8840SOL    HW144130  12.536   0.973  11.137 -0.3815  0.8348  1.3536
 8840SOL    HW244131  12.670   0.908  11.163 -0.3834  0.8664  1.4452
 8841SOL     OW44132  12.343  13.806   0.399 -0.1096 -0.2728  0.1043
 8841SOL    HW144133  12.274  13.741   0.384 -0.0252 -0.2586 -0.3547
 8841SOL    HW244134  12.298  13.891   0.395  0.0787 -0.2076 -1.1690
 8842SOL     OW44135   0.639   9.933   8.306 -0.5201 -0.2834 -0.5671
 8842SOL    HW144136   0.681   9.859   8.263 -0.2434 -0.1293 -0.5653
 8842SOL    HW244137   0.551   9.902   8.328 -0.4255 -0.5880 -0.6185
 8843SOL     OW44138  11.130  13.180  10.643  0.2531 -0.0309  0.0996
 8843SOL    HW144139  11.060  13.209  10.585  0.4069  0.6498  0.2490
 8843SOL    HW244140  11.185  13.258  10.655  1.2949 -0.6647 -0.3883
 8844SOL     OW44141   5.043   2.786   4.958 -0.1277 -0.4332  0.3897
 8844SOL    HW144142   5.094   2.754   5.033 -1.7699 -1.1467  1.2485
 8844SOL    HW244143   5.026   2.878   4.978 -1.1890 -0.8063  1.2880
 8845SOL     OW44144   4.757   4.094  10.418  0.3422  0.5497  0.1253
 8845SOL    HW144145   4.791   4.149  10.348 -1.0243  0.6931 -0.4606
 8845SOL    HW244146   4.710   4.154  10.476 -0.0095  0.1997  0.2123
 8846SOL     OW44147  10.875   2.525   8.618  0.0755 -0.3321 -0.1803
 8846SOL    HW144148  10.810   2.471   8.573  0.9583 -0.8379 -0.8959
 8846SOL    HW244149  10.954   2.471   8.619  0.9209  0.8549 -0.7166
 8847SOL     OW44150   3.337   0.273  11.731 -0.7623 -0.7581  0.3815
 8847SOL    HW144151   3.405   0.337  11.754 -2.3231  0.4996  1.7030
 8847SOL    HW244152   3.324   0.286  11.637  0.0895 -0.3059  0.3131
 8848SOL     OW44153   9.221  11.681   6.668 -0.2130 -0.2696 -0.2452
 8848SOL    HW144154   9.253  11.768   6.645  1.8322 -0.9019  0.0054
 8848SOL    HW244155   9.242  11.671   6.761  0.3432 -1.3393 -0.4755
 8849SOL     OW44156  10.193  11.400   4.042  0.5272  0.2220 -0.0720
 8849SOL    HW144157  10.147  11.422   3.960 -0.2558  1.3123  0.6339
 8849SOL    HW244158  10.185  11.479   4.095 -0.6989 -1.1072  1.8509
 8850SOL     OW44159   3.040   9.245  13.388 -0.1309 -0.5750  0.5633
 8850SOL    HW144160   2.964   9.199  13.424  0.0576 -0.8628  0.5976
 8850SOL    HW244161   3.004   9.299  13.318 -0.4099 -0.4928  0.7657
 8851SOL     OW44162   6.870   9.897   7.057 -0.2088 -0.1365 -0.2527
 8851SOL    HW144163   6.936   9.829   7.072 -2.7704 -2.7366  0.1032
 8851SOL    HW244164   6.878   9.918   6.964  2.6912  1.5386  0.2444
 8852SOL     OW44165   1.135  10.032   8.962  0.0298 -0.1449 -0.0513
 8852SOL    HW144166   1.047  10.041   8.924  0.7460 -2.5791 -2.5957
 8852SOL    HW244167   1.158   9.941   8.949  2.1881 -0.0991  2.4754
 8853SOL     OW44168   6.255   9.712   3.832  0.3511  0.4872 -0.6044
 8853SOL    HW144169   6.219   9.673   3.912  0.3311 -0.1886 -0.9290
 8853SOL    HW244170   6.350   9.701   3.841  0.2897 -0.6893 -1.2012
 8854SOL     OW44171   6.441   6.212  10.947 -0.0815  0.2608  0.5175
 8854SOL    HW144172   6.346   6.209  10.947 -0.0917 -0.4204  2.0693
 8854SOL    HW244173   6.468   6.132  10.902 -0.1942  1.3285 -1.5653
 8855SOL     OW44174  10.108   1.384  10.774  0.2379  0.3207 -0.1085
 8855SOL    HW144175  10.166   1.317  10.738 -0.0368  0.3760 -0.6631
 8855SOL    HW244176  10.020   1.348  10.761 -0.0525  1.6460 -2.2715
 8856SOL     OW44177   3.733  12.351   1.554 -0.5706  0.1677 -0.2816
 8856SOL    HW144178   3.654  12.400   1.532 -0.9633 -0.6751 -0.7915
 8856SOL    HW244179   3.773  12.401   1.625 -1.7538  0.4071  0.2388
 8857SOL     OW44180  13.482   3.583   5.545  0.6436  0.3377 -0.0478
 8857SOL    HW144181  13.539   3.644   5.497 -0.0858  0.9683 -0.1367
 8857SOL    HW244182  13.532   3.560   5.623  2.1012 -1.1443 -1.3229
 8858SOL     OW44183  12.751   3.400   2.433 -0.2499 -0.4423 -0.2653
 8858SOL    HW144184  12.777   3.485   2.396  1.9706 -1.2926 -0.8191
 8858SOL    HW244185  12.831   3.366   2.474 -1.2894 -1.9288  0.6088
 8859SOL     OW44186   4.712   0.922  11.070  0.2643 -0.8073 -0.1700
 8859SOL    HW144187   4.705   0.946  11.163  0.1819  1.9105 -0.8080
 8859SOL    HW244188   4.623   0.935  11.036  0.8929  1.1234 -1.2022
 8860SOL     OW44189   6.525  10.434   2.678 -0.5076  0.1803 -0.2293
 8860SOL    HW144190   6.558  10.423   2.767 -1.5308 -0.1902  0.1204
 8860SOL    HW244191   6.431  10.418   2.685 -0.3843 -1.4881 -1.6697
 8861SOL     OW44192   8.720  12.189   1.529  0.9561  0.3697  0.7876
 8861SOL    HW144193   8.674  12.190   1.612 -1.4040  1.0326 -0.4524
 8861SOL    HW244194   8.756  12.277   1.520  0.6363  0.4988  0.7942
 8862SOL     OW44195   1.372  11.549  12.586  0.3526  0.4241 -0.4120
 8862SOL    HW144196   1.287  11.581  12.617 -0.5205 -0.0219 -2.1959
 8862SOL    HW244197   1.413  11.625  12.545  0.2299  0.3349 -0.7050
 8863SOL     OW44198   4.617  12.236  13.540 -0.1085  0.2173 -0.4688
 8863SOL    HW144199   4.668  12.214  13.618 -0.3977  0.4696 -0.2043
 8863SOL    HW244200   4.561  12.160  13.525 -0.6619  0.5089  0.0766
 8864SOL     OW44201   8.902  11.603   6.423 -0.1527  0.5150 -0.1179
 8864SOL    HW144202   8.871  11.653   6.347  1.9788  0.2733 -1.2251
 8864SOL    HW244203   8.997  11.601   6.413 -0.0003 -1.7778  1.1544
 8865SOL     OW44204   1.649   5.906   4.624 -0.2714  0.2002 -0.2834
 8865SOL    HW144205   1.737   5.897   4.660 -0.3847 -1.0513 -0.2609
 8865SOL    HW244206   1.599   5.834   4.664 -1.3257  0.9270 -0.2423
 8866SOL     OW44207   7.014  11.233  11.114 -0.1851 -0.8534  0.6926
 8866SOL    HW144208   6.994  11.324  11.134 -2.6838 -1.2119  0.1183
 8866SOL    HW244209   7.102  11.236  11.076 -0.1497  1.2762  0.8257
 8867SOL     OW44210   8.949   7.095  13.509  0.7324  0.4432 -0.2061
 8867SOL    HW144211   8.866   7.139  13.493  1.0406  1.8764  1.7546
 8867SOL    HW244212   9.015   7.151  13.468  0.9871  1.0685  1.0014
 8868SOL     OW44213  11.215   6.553  12.453  0.0157  0.1843  0.1721
 8868SOL    HW144214  11.293   6.595  12.417 -0.7888  0.0314 -1.9184
 8868SOL    HW244215  11.231   6.459  12.443  0.1894  0.0969  1.1858
 8869SOL     OW44216   4.381  10.481  11.730 -0.4156 -0.0392  0.1676
 8869SOL    HW144217   4.419  10.549  11.673  0.4623 -1.0299 -0.4655
 8869SOL    HW244218   4.288  10.481  11.708 -0.5614  1.4346  0.6898
 8870SOL     OW44219   0.680   8.196  12.841 -0.2943 -0.0155  0.7250
 8870SOL    HW144220   0.731   8.277  12.832  0.8307 -0.7951 -0.2432
 8870SOL    HW244221   0.597   8.224  12.881  0.3999  1.4729  1.1930
 8871SOL     OW44222   2.947   2.103  13.945 -0.5859  0.4048  0.1040
 8871SOL    HW144223   2.937   2.163  13.871 -2.4368 -2.7138 -2.4528
 8871SOL    HW244224   2.858   2.087  13.975 -0.4050 -2.2131 -0.4651
 8872SOL     OW44225  13.100  13.954   5.949 -0.0779  0.3189 -0.4501
 8872SOL    HW144226  13.084  13.900   6.027 -1.8139  0.4404 -0.6683
 8872SOL    HW244227  13.186  13.927   5.917  0.5362  0.0498  1.3220
 8873SOL     OW44228  12.507   7.595   3.332  0.1299 -0.9725  0.3628
 8873SOL    HW144229  12.497   7.671   3.391  1.0467 -0.8333  0.3440
 8873SOL    HW244230  12.439   7.534   3.362 -0.6452 -0.1482  0.3680
 8874SOL     OW44231   4.699  11.992   9.760 -0.0939 -0.5169  0.2458
 8874SOL    HW144232   4.628  12.005   9.823  0.5008  0.1433  0.8034
 8874SOL    HW244233   4.753  11.923   9.798  1.8849  1.8313  2.0039
 8875SOL     OW44234   0.367   9.189   8.070 -0.5298  0.3150  0.4655
 8875SOL    HW144235   0.284   9.144   8.056  0.5987 -1.9184  0.5042
 8875SOL    HW244236   0.355   9.236   8.153 -2.1507  1.0872 -0.1760
 8876SOL     OW44237  11.954  11.633   5.725  0.1739  0.0029 -0.3505
 8876SOL    HW144238  11.993  11.716   5.751 -0.0949 -0.4484  1.6203
 8876SOL    HW244239  12.024  11.568   5.741 -0.0199 -0.2977 -0.7146
 8877SOL     OW44240   3.714   3.006  12.194 -0.4004  0.6705 -0.9000
 8877SOL    HW144241   3.625   2.976  12.178 -0.9065  1.1613  0.7125
 8877SOL    HW244242   3.711   3.100  12.176 -1.1217  1.3414  2.1537
 8878SOL     OW44243   8.867   0.498   3.601 -0.2124  0.1383  0.1393
 8878SOL    HW144244   8.812   0.473   3.675 -0.5312  0.2116 -0.0668
 8878SOL    HW244245   8.956   0.496   3.635 -0.2941 -0.4952  0.3419
 8879SOL     OW44246   3.414  10.629   1.652 -0.3502  0.1417  0.1293
 8879SOL    HW144247   3.341  10.588   1.606 -0.1943  0.9724 -0.8822
 8879SOL    HW244248   3.372  10.692   1.711 -0.4574  2.1965 -1.9827
 8880SOL     OW44249   7.582  11.134   5.523 -0.0377 -0.0747  0.0672
 8880SOL    HW144250   7.503  11.143   5.577 -0.0755  1.4683 -0.1993
 8880SOL    HW244251   7.639  11.205   5.552  0.3032  0.2460 -1.3090
 8881SOL     OW44252   1.104   1.599   1.928  0.6910  0.6991 -0.0361
 8881SOL    HW144253   1.108   1.693   1.909  0.6930  0.8888  0.8530
 8881SOL    HW244254   1.167   1.559   1.869 -1.4853  0.8780 -2.6363
 8882SOL     OW44255   7.491   5.268   2.819  0.0196  0.1149 -0.4109
 8882SOL    HW144256   7.487   5.357   2.784  1.8628  0.1326 -0.6503
 8882SOL    HW244257   7.570   5.231   2.781  1.3963 -0.3406  2.6427
 8883SOL     OW44258   4.788   5.328  13.488  0.2978 -0.5223  0.5547
 8883SOL    HW144259   4.801   5.366  13.402 -0.5731 -0.9618  0.2111
 8883SOL    HW244260   4.716   5.379  13.526 -0.3129 -1.2607  0.4233
 8884SOL     OW44261  13.267  10.273  12.348 -0.6607  0.4679  0.1695
 8884SOL    HW144262  13.341  10.330  12.328 -0.6982  0.1282 -1.0000
 8884SOL    HW244263  13.257  10.280  12.443  0.5242  0.9343  0.2801
 8885SOL     OW44264   4.414   8.001   2.253  0.6336  0.3667 -0.4097
 8885SOL    HW144265   4.460   8.083   2.234  0.4017  1.0771  1.8242
 8885SOL    HW244266   4.330   8.029   2.288  0.3782 -0.8516 -0.0143
 8886SOL     OW44267   1.968   3.434   8.623 -0.0095  0.0312 -0.3526
 8886SOL    HW144268   1.936   3.416   8.711 -1.7868  0.4152 -0.8678
 8886SOL    HW244269   2.019   3.515   8.632 -0.2247  0.0988  0.3061
 8887SOL     OW44270   7.960   1.939   2.055  0.1211 -0.1732 -0.4207
 8887SOL    HW144271   8.019   1.985   2.115 -0.4032  0.9231 -0.7190
 8887SOL    HW244272   7.952   1.998   1.980  0.1324 -1.1609 -1.2216
 8888SOL     OW44273  13.487   0.081   8.182  0.1106  0.0109  0.0200
 8888SOL    HW144274  13.399   0.044   8.185 -0.1262  0.5069 -0.6214
 8888SOL    HW244275  13.501   0.103   8.090  1.0759 -0.4559  0.0373
 8889SOL     OW44276   0.080   5.302  11.531  0.4274  0.1443  0.0935
 8889SOL    HW144277   0.106   5.245  11.459  1.8343  1.4952 -0.5378
 8889SOL    HW244278   0.153   5.297  11.593  0.3408  0.8225  0.2599
 8890SOL     OW44279  12.242   0.823   2.058 -0.1811  0.3072  0.1792
 8890SOL    HW144280  12.233   0.796   2.149 -1.5575 -0.4339 -0.1432
 8890SOL    HW244281  12.182   0.766   2.010  1.7112 -0.4268 -1.4317
 8891SOL     OW44282   6.000   6.769   6.784  0.5594  0.0801  0.2062
 8891SOL    HW144283   6.083   6.726   6.807 -0.2100 -3.1366 -2.2302
 8891SOL    HW244284   6.026   6.846   6.734  2.0526  0.0570  0.8954
 8892SOL     OW44285   0.714   1.340   6.282 -0.0200  0.6712 -0.2992
 8892SOL    HW144286   0.660   1.414   6.255  0.7898  1.2654 -0.3082
 8892SOL    HW244287   0.654   1.282   6.328 -0.7263  1.1883 -0.5574
 8893SOL     OW44288   6.765   0.516  12.720 -0.2689 -0.0758  0.2097
 8893SOL    HW144289   6.858   0.510  12.740  0.0840 -0.6272 -1.4293
 8893SOL    HW244290   6.735   0.595  12.765  1.2440  0.7361 -0.1714
 8894SOL     OW44291   4.289   8.933   4.618  0.0106 -0.2424 -0.4920
 8894SOL    HW144292   4.284   8.842   4.649  3.1633 -0.3783 -0.0364
 8894SOL    HW244293   4.262   8.929   4.527 -0.5383 -1.5102 -0.2996
 8895SOL     OW44294  12.848  10.741   8.817 -0.3657  0.4485  0.3404
 8895SOL    HW144295  12.855  10.832   8.846 -1.0453  0.2641  1.1439
 8895SOL    HW244296  12.782  10.742   8.748 -0.3424  0.5744  0.3205
 8896SOL     OW44297   4.489   1.882   4.913 -0.1228  0.0355 -0.5330
 8896SOL    HW144298   4.437   1.961   4.925  1.2192  0.8965 -0.0816
 8896SOL    HW244299   4.434   1.824   4.860 -1.8524  0.5378  0.6325
 8897SOL     OW44300   3.594   7.367   0.226  0.0334 -0.0070 -0.1562
 8897SOL    HW144301   3.557   7.365   0.315  1.5213 -2.1129  0.5012
 8897SOL    HW244302   3.550   7.441   0.184 -0.6692  1.1319  2.3485
 8898SOL     OW44303   8.881  12.988   9.583 -0.4816 -0.0907 -0.7167
 8898SOL    HW144304   8.971  12.972   9.554 -0.7643 -1.2008 -0.9996
 8898SOL    HW244305   8.879  13.082   9.602  1.2781 -0.3585  1.1278
 8899SOL     OW44306   8.025   9.206   1.830  0.0324  0.3007  0.1554
 8899SOL    HW144307   8.060   9.208   1.919 -1.2900  3.9876  0.7934
 8899SOL    HW244308   7.936   9.172   1.841 -0.8372  2.5568  0.6979
 8900SOL     OW44309   7.066   8.621  13.876 -0.7146  0.2129  0.5630
 8900SOL    HW144310   7.148   8.629  13.924  0.0222 -1.1676 -0.3914
 8900SOL    HW244311   7.030   8.537  13.906 -0.2207 -0.6991 -1.2478
 8901SOL     OW44312  10.772  11.538   6.011  0.6534 -0.0728 -0.3690
 8901SOL    HW144313  10.750  11.455   5.968  1.2517 -1.2293  1.4372
 8901SOL    HW244314  10.691  11.568   6.050  0.8725 -0.9800  0.8306
 8902SOL     OW44315   4.501   5.437   8.924 -0.3502 -0.6792 -0.1193
 8902SOL    HW144316   4.568   5.454   8.990  0.1486 -0.1164 -0.7599
 8902SOL    HW244317   4.420   5.469   8.963 -0.0854 -0.4639  0.2634
 8903SOL     OW44318  11.273   3.494   4.154  0.2180  0.0430  0.1803
 8903SOL    HW144319  11.212   3.528   4.089 -0.3351 -1.1746  0.0383
 8903SOL    HW244320  11.261   3.551   4.230  0.5767  1.2234 -0.6274
 8904SOL     OW44321  12.399   4.686  10.578  0.6710  0.5388  0.4622
 8904SOL    HW144322  12.487   4.676  10.614  0.1938 -1.5052  1.1432
 8904SOL    HW244323  12.390   4.615  10.516 -0.3627  1.0012  0.0606
 8905SOL     OW44324  12.344  12.886   1.287  0.0194 -0.7108  0.0904
 8905SOL    HW144325  12.330  12.978   1.309 -1.0642 -0.6729 -0.7118
 8905SOL    HW244326  12.388  12.850   1.364  1.7146  0.7625 -0.1045
 8906SOL     OW44327   8.634   0.088   6.506 -0.0767 -0.9634 -0.4988
 8906SOL    HW144328   8.720   0.121   6.531  0.2186 -2.2480  0.2700
 8906SOL    HW244329   8.635  -0.004   6.531 -1.1617 -1.3725 -1.8216
 8907SOL     OW44330   1.583   2.995   2.549  0.3501  0.2717 -0.5328
 8907SOL    HW144331   1.665   2.945   2.545  0.2365 -0.2043  1.8747
 8907SOL    HW244332   1.607   3.083   2.522  1.3126 -0.1980 -1.3030
 8908SOL     OW44333   4.108  10.125   7.225 -0.2261 -0.2099  0.1489
 8908SOL    HW144334   4.087  10.192   7.160  2.1697 -0.2962 -0.8511
 8908SOL    HW244335   4.193  10.153   7.260 -0.3580 -1.4353  1.5043
 8909SOL     OW44336   0.104   7.993   9.012  0.0687 -0.4905 -0.2461
 8909SOL    HW144337   0.154   8.012   8.933  1.5979 -0.9748  0.5714
 8909SOL    HW244338   0.043   8.066   9.020  0.3273 -0.1144 -1.5173
 8910SOL     OW44339   2.018  11.302  12.500  0.1518  0.0818  0.3833
 8910SOL    HW144340   2.109  11.320  12.475  0.5641 -2.5621 -0.2576
 8910SOL    HW244341   1.972  11.293  12.417 -0.1136 -1.2096  0.6621
 8911SOL     OW44342   3.704  11.539   2.314  0.6112 -0.1354  0.0165
 8911SOL    HW144343   3.663  11.622   2.289 -1.1326 -1.3565 -1.4242
 8911SOL    HW244344   3.644  11.501   2.379  2.1052  0.3093  1.7257
 8912SOL     OW44345  10.390   5.228   5.434  0.0614  0.1106  0.8389
 8912SOL    HW144346  10.394   5.245   5.339  0.5869  1.2008  1.0415
 8912SOL    HW244347  10.477   5.195   5.456 -0.9041 -3.0478  0.4705
 8913SOL     OW44348   6.416  13.175   0.941 -0.0202 -0.3671  0.6332
 8913SOL    HW144349   6.404  13.103   0.880 -0.2606 -0.5342  0.8743
 8913SOL    HW244350   6.432  13.132   1.025 -0.8506 -0.1432  0.9165
 8914SOL     OW44351   8.401   0.019   3.458 -0.0720 -0.0279 -0.2280
 8914SOL    HW144352   8.415   0.004   3.551 -0.2743  0.1957 -0.1601
 8914SOL    HW244353   8.488   0.034   3.422 -0.1392  1.6446  0.2357
 8915SOL     OW44354  10.037   9.761   5.246  0.7057 -0.5182  0.0772
 8915SOL    HW144355   9.979   9.727   5.179  1.5861 -0.4088 -0.7711
 8915SOL    HW244356  10.099   9.817   5.198  1.5818 -0.7318  0.9183
 8916SOL     OW44357  12.270   8.151  13.791  0.4147  0.1861  0.1775
 8916SOL    HW144358  12.292   8.065  13.755  0.0567  0.1087  0.1420
 8916SOL    HW244359  12.208   8.133  13.862 -0.6418  0.5014 -0.6475
 8917SOL     OW44360  12.804   4.245   4.325 -0.6632  0.1188 -0.4238
 8917SOL    HW144361  12.836   4.245   4.416 -0.1946 -1.1215 -0.5714
 8917SOL    HW244362  12.734   4.310   4.325 -0.9218 -0.1108  0.9239
 8918SOL     OW44363  13.184  10.290   6.783  0.1916 -0.4590  0.8536
 8918SOL    HW144364  13.233  10.361   6.822 -2.0069  0.6489  1.7994
 8918SOL    HW244365  13.209  10.212   6.833 -0.9297  0.5470  3.1085
 8919SOL     OW44366   0.606   4.635   7.124  0.1271  0.0089 -0.0855
 8919SOL    HW144367   0.642   4.577   7.191  0.1804 -0.6238 -0.6434
 8919SOL    HW244368   0.682   4.681   7.089 -0.1311  2.0513  1.8077
 8920SOL     OW44369  13.224  11.689  11.095  0.3574 -1.1909  0.3201
 8920SOL    HW144370  13.244  11.695  11.002  2.1173 -1.9851  0.5925
 8920SOL    HW244371  13.238  11.778  11.128 -1.1804 -0.6948 -0.2972
 8921SOL     OW44372   4.802  11.631   6.829 -0.3216  0.6947 -0.2111
 8921SOL    HW144373   4.847  11.712   6.853 -0.5902  0.7598  0.0833
 8921SOL    HW244374   4.711  11.657   6.814 -0.9312  0.1224  2.0601
 8922SOL     OW44375   4.931   1.763   2.444  0.0453 -0.1059  0.7284
 8922SOL    HW144376   4.898   1.797   2.361 -0.3664 -0.1459  0.8724
 8922SOL    HW244377   4.884   1.814   2.510 -0.6238 -0.9788  0.9455
 8923SOL     OW44378   9.382  11.603   5.174  0.2241  0.3746 -0.3844
 8923SOL    HW144379   9.432  11.670   5.127 -1.4206  1.0873 -1.2176
 8923SOL    HW244380   9.409  11.612   5.265  1.0160  1.2631 -0.6907
 8924SOL     OW44381   6.962   7.127   0.266 -0.6133 -0.1482 -0.6359
 8924SOL    HW144382   6.946   7.033   0.253  0.5833 -0.2724 -1.3877
 8924SOL    HW244383   6.908   7.170   0.200  1.1641 -0.5092 -2.4415
 8925SOL     OW44384   5.556   4.639  12.849 -0.2743  0.4654  0.0223
 8925SOL    HW144385   5.587   4.721  12.886  2.1914 -0.1394 -0.4583
 8925SOL    HW244386   5.471   4.623  12.890 -1.0079  3.4049 -0.1891
 8926SOL     OW44387  10.713   4.840  11.558  0.2013  0.0114  0.5567
 8926SOL    HW144388  10.697   4.831  11.464 -0.6119  0.5018  0.6373
 8926SOL    HW244389  10.808   4.830  11.567  0.2343 -0.5186 -0.2543
 8927SOL     OW44390   9.252  13.364   6.887  0.0836 -0.1051  0.1239
 8927SOL    HW144391   9.335  13.412   6.890 -0.4877  0.9064  0.6713
 8927SOL    HW244392   9.257  13.302   6.959  0.9213 -1.0546 -0.7202
 8928SOL     OW44393   1.277   1.960  10.494  1.0243  0.2731  0.0446
 8928SOL    HW144394   1.218   2.032  10.468  0.0889 -0.1099  1.0025
 8928SOL    HW244395   1.299   1.916  10.412 -1.1132 -0.3628 -0.2665
 8929SOL     OW44396   2.899   5.918  13.011 -0.2940 -0.2118  0.2141
 8929SOL    HW144397   2.869   5.884  12.927 -0.8980  0.7653  0.0160
 8929SOL    HW244398   2.836   5.987  13.033  0.7010  0.5637  0.7454
 8930SOL     OW44399   7.897   1.048   5.202 -0.2716  0.0067 -0.4566
 8930SOL    HW144400   7.860   0.965   5.169  0.4849  0.9269 -4.0526
 8930SOL    HW244401   7.978   1.022   5.244 -0.3761 -1.1690 -0.9214
 8931SOL     OW44402  12.128  10.090   7.525 -0.0280 -0.4206 -0.2136
 8931SOL    HW144403  12.136  10.114   7.433  2.5939 -0.8157 -0.1605
 8931SOL    HW244404  12.035  10.070   7.537 -0.2466 -1.4866 -3.0373
 8932SOL     OW44405  12.208   2.604   5.908  0.1236 -0.4537 -0.5814
 8932SOL    HW144406  12.180   2.695   5.904 -1.8184 -1.0198 -0.7167
 8932SOL    HW244407  12.127   2.553   5.905  1.1617 -2.1985 -0.5948
 8933SOL     OW44408  13.536   0.466   6.978  0.0189  0.4157  0.5811
 8933SOL    HW144409  13.494   0.456   7.063  1.4053 -0.7722  1.1630
 8933SOL    HW244410  13.608   0.527   6.995  0.8744 -0.5513  0.4954
 8934SOL     OW44411  13.556   0.511   5.976 -0.5042  0.4055 -0.0972
 8934SOL    HW144412  13.534   0.574   6.045 -0.4497 -0.6658  0.9284
 8934SOL    HW244413  13.585   0.565   5.903  1.9409  1.5433  1.5685
 8935SOL     OW44414   0.958   6.521   4.279  0.4607  0.0897 -0.2239
 8935SOL    HW144415   0.995   6.540   4.192  1.5405  0.2912  0.2659
 8935SOL    HW244416   0.967   6.426   4.288  0.6933  0.1170 -0.1752
 8936SOL     OW44417  10.787   3.277  12.197  0.0629  0.2047 -0.0001
 8936SOL    HW144418  10.748   3.198  12.159  1.3154 -0.2186 -0.4486
 8936SOL    HW244419  10.876   3.280  12.161  0.7571  0.6662  1.6445
 8937SOL     OW44420  12.229  13.038   6.405  0.0177 -0.3667  0.4519
 8937SOL    HW144421  12.236  12.943   6.397 -0.6981 -0.5214  1.4127
 8937SOL    HW244422  12.167  13.063   6.337  0.4422 -0.5380 -0.0059
 8938SOL     OW44423   9.515  13.192   9.239  0.6032 -0.1164 -0.1822
 8938SOL    HW144424   9.438  13.234   9.278  0.7691  1.0504 -1.0409
 8938SOL    HW244425   9.590  13.237   9.278  0.8010 -0.0249 -0.6514
 8939SOL     OW44426  13.705  10.953   9.860  0.4608  0.8260  0.1526
 8939SOL    HW144427  13.663  10.903   9.791 -1.5496  0.0928  1.8010
 8939SOL    HW244428  13.654  11.034   9.866  1.7631  1.7210 -0.4075
 8940SOL     OW44429   1.720  13.862   4.678  0.5698 -0.8088  0.0876
 8940SOL    HW144430   1.734  13.956   4.662  3.1250 -0.6374  2.5632
 8940SOL    HW244431   1.629  13.856   4.705  0.2224  0.8599 -0.5666
 8941SOL     OW44432   8.000   2.306  13.409 -0.2363 -0.0046 -0.0954
 8941SOL    HW144433   7.999   2.367  13.483 -0.7411  0.9297 -0.8421
 8941SOL    HW244434   8.001   2.363  13.331 -0.4377 -0.9534 -0.8131
 8942SOL     OW44435   2.780   5.243   2.888 -0.1903 -0.9223  0.0138
 8942SOL    HW144436   2.834   5.164   2.884  0.5069 -0.4762  0.5632
 8942SOL    HW244437   2.723   5.228   2.964 -0.2939 -1.0401 -0.0856
 8943SOL     OW44438   0.691  11.329   1.904 -1.0407 -0.4965 -0.6339
 8943SOL    HW144439   0.636  11.405   1.886 -1.5016 -0.3646  1.1993
 8943SOL    HW244440   0.690  11.320   1.999  1.7476 -0.7771 -0.5608
 8944SOL     OW44441   3.472   7.123  13.261 -0.5691 -0.1287 -0.1971
 8944SOL    HW144442   3.530   7.145  13.188 -1.0106  0.4726 -0.3701
 8944SOL    HW244443   3.436   7.207  13.290 -1.4691 -0.5063 -0.1855
 8945SOL     OW44444   1.909  12.330  11.144  0.1114  0.2018 -0.1187
 8945SOL    HW144445   1.870  12.308  11.059  1.2955  1.9763 -1.1856
 8945SOL    HW244446   1.862  12.408  11.172  1.5976  1.3060 -0.5618
 8946SOL     OW44447   1.811   5.709  10.439 -0.5014  0.2740 -0.0871
 8946SOL    HW144448   1.829   5.635  10.381  0.6489 -0.6818  1.4104
 8946SOL    HW244449   1.795   5.669  10.524 -1.0454  1.6992  0.5052
 8947SOL     OW44450   7.266   2.224   0.461 -0.2349  0.8483  0.1143
 8947SOL    HW144451   7.182   2.257   0.494 -0.2636 -0.3414  1.3206
 8947SOL    HW244452   7.330   2.290   0.489 -0.2383 -0.1769  2.8227
 8948SOL     OW44453  11.900   3.120   0.147 -0.0972 -0.0395 -0.2217
 8948SOL    HW144454  11.941   3.063   0.082 -0.3925  0.4559 -0.8527
 8948SOL    HW244455  11.966   3.131   0.215  0.3449 -0.2725 -0.6099
 8949SOL     OW44456   1.050   7.968   8.181  0.3302 -0.3105  0.5017
 8949SOL    HW144457   0.982   8.032   8.202  0.0727  0.2158 -1.6955
 8949SOL    HW244458   1.123   7.990   8.239  0.6860  2.7776 -0.9518
 8950SOL     OW44459   4.968   7.502   0.797  0.2986 -0.5555 -0.3414
 8950SOL    HW144460   4.939   7.473   0.711  0.1209  2.6120 -1.4748
 8950SOL    HW244461   5.055   7.540   0.781 -0.2816  1.2668  0.5421
 8951SOL     OW44462   2.037  11.411  10.357 -0.0016  0.5081  0.1293
 8951SOL    HW144463   1.992  11.398  10.274 -2.2476 -2.6549  1.6323
 8951SOL    HW244464   1.969  11.445  10.416 -0.0381 -2.2272  1.8809
 8952SOL     OW44465  12.711  11.655   9.349 -0.3103  0.2348  0.1450
 8952SOL    HW144466  12.708  11.627   9.441 -0.5230  1.9677  0.7094
 8952SOL    HW244467  12.739  11.746   9.353  0.3822  0.1352 -1.5874
 8953SOL     OW44468   2.864   4.346  13.055  0.4594 -0.3078 -0.3935
 8953SOL    HW144469   2.947   4.375  13.093  1.7965 -1.9090 -1.9336
 8953SOL    HW244470   2.797   4.377  13.117  2.1419  1.3885  0.6716
 8954SOL     OW44471   0.693   2.592  13.662 -0.3682 -0.7599 -0.0046
 8954SOL    HW144472   0.777   2.585  13.617 -0.1754  0.4041  0.1488
 8954SOL    HW244473   0.710   2.559  13.750 -0.4425 -1.8802 -0.3931
 8955SOL     OW44474  10.077   6.220  13.710 -0.1696  0.2632 -0.0381
 8955SOL    HW144475  10.119   6.154  13.654 -1.9665 -0.7528 -0.2826
 8955SOL    HW244476  10.139   6.235  13.781  0.6830 -1.0192 -0.4818
 8956SOL     OW44477   3.392  13.954   1.615  0.1907  0.0930  0.5118
 8956SOL    HW144478   3.322  13.906   1.659 -0.3234  0.0502 -0.3334
 8956SOL    HW244479   3.450  13.886   1.579  1.5931  0.1057  2.5734
 8957SOL     OW44480  12.606  11.364  13.881 -0.0161 -0.7979 -0.3349
 8957SOL    HW144481  12.541  11.344  13.814 -1.1068 -1.0462  0.7405
 8957SOL    HW244482  12.637  11.452  13.860 -0.6301 -0.7198 -0.9333
 8958SOL     OW44483   6.382  13.649  10.831 -0.0575  0.0500 -0.0153
 8958SOL    HW144484   6.446  13.579  10.845 -0.6956 -0.7748 -1.0258
 8958SOL    HW244485   6.309  13.627  10.890 -0.0182  0.1769  0.0795
 8959SOL     OW44486  13.602   9.660   2.281 -0.1656 -0.1886  0.8872
 8959SOL    HW144487  13.666   9.627   2.344  1.5324  0.0299 -0.6323
 8959SOL    HW244488  13.649   9.662   2.198 -1.7308  1.3329 -0.0384
 8960SOL     OW44489   2.841  13.043   8.558 -0.2543 -0.3680 -0.2724
 8960SOL    HW144490   2.882  13.129   8.549 -0.5082 -0.4445 -3.2658
 8960SOL    HW244491   2.771  13.056   8.621 -0.8425  1.8668 -1.2928
 8961SOL     OW44492   2.709   7.208   3.732 -0.1213 -0.2893 -0.0235
 8961SOL    HW144493   2.743   7.156   3.805  1.5030 -0.9974 -1.2332
 8961SOL    HW244494   2.752   7.293   3.741 -1.8391  0.5243  1.2335
 8962SOL     OW44495   7.241   2.047   6.242 -0.8425 -0.2413 -0.0488
 8962SOL    HW144496   7.272   1.987   6.310  0.6392 -1.7484 -1.9201
 8962SOL    HW244497   7.236   1.993   6.164 -3.2636  1.2386 -1.0212
 8963SOL     OW44498  13.658   6.373   5.483 -0.8227 -0.6347 -0.6465
 8963SOL    HW144499  13.580   6.420   5.454 -0.6428  0.3792  0.4332
 8963SOL    HW244500  13.698   6.431   5.548  1.8441 -0.2561 -2.4742
 8964SOL     OW44501   3.989   6.433  12.117 -0.6894 -0.5292  0.2306
 8964SOL    HW144502   4.076   6.447  12.153 -0.1041  2.6945 -1.9825
 8964SOL    HW244503   3.939   6.509  12.146 -2.2099 -1.3540 -0.1350
 8965SOL     OW44504   1.899   3.694   0.107 -0.1167 -0.2686 -0.1192
 8965SOL    HW144505   1.878   3.760   0.041 -2.6850 -2.2936 -1.5185
 8965SOL    HW244506   1.911   3.744   0.188  0.6903  2.0895 -1.5969
 8966SOL     OW44507   0.505   6.580  10.114 -0.1317 -0.4359 -0.3865
 8966SOL    HW144508   0.529   6.660  10.067 -0.1691 -0.0086  0.3017
 8966SOL    HW244509   0.430   6.545  10.066 -0.1998  0.0196 -0.6121
 8967SOL     OW44510   3.311   4.179  10.739 -0.0792 -0.3533  0.4570
 8967SOL    HW144511   3.235   4.237  10.735  0.9248  1.0902  1.2192
 8967SOL    HW244512   3.282   4.105  10.793 -0.9825  0.0787  0.5848
 8968SOL     OW44513   3.092   5.560   6.207 -0.1006  0.1944 -0.4983
 8968SOL    HW144514   3.149   5.486   6.184  1.6055  1.1448  0.4368
 8968SOL    HW244515   3.038   5.526   6.279 -1.3911 -0.9782 -1.9378
 8969SOL     OW44516  12.740   1.981   1.619  0.5528  0.6029  0.3276
 8969SOL    HW144517  12.782   1.909   1.571  1.0312  2.6607 -2.5685
 8969SOL    HW244518  12.812   2.031   1.657  0.3832  0.9503  0.1962
 8970SOL     OW44519   0.609  12.382   1.981  0.1777 -0.0468 -0.2435
 8970SOL    HW144520   0.697  12.419   1.990  0.5763 -0.6623 -1.3184
 8970SOL    HW244521   0.620  12.289   2.002 -0.0346 -0.2959 -1.1716
 8971SOL     OW44522   6.034   2.792   4.377  0.6363 -0.0759 -0.0411
 8971SOL    HW144523   6.100   2.857   4.400  1.3448 -0.1977 -1.5831
 8971SOL    HW244524   5.984   2.832   4.306  0.3276 -0.7584 -0.2161
 8972SOL     OW44525   9.958   9.591   3.323  0.2437  0.1573  0.0852
 8972SOL    HW144526   9.978   9.640   3.243 -0.1236  1.3318  0.6918
 8972SOL    HW244527   9.875   9.629   3.354 -0.5772 -1.5234  0.0461
 8973SOL     OW44528   9.440   0.854  11.380  0.0546  0.2547  0.4145
 8973SOL    HW144529   9.459   0.818  11.293 -0.8923 -0.8538  0.6468
 8973SOL    HW244530   9.345   0.865  11.381  0.1061  0.6691  1.1644
 8974SOL     OW44531   2.134   2.293   4.665  0.1052  0.1249  0.3935
 8974SOL    HW144532   2.041   2.291   4.640 -0.1857  2.3279  1.1449
 8974SOL    HW244533   2.180   2.282   4.582 -0.8045 -0.8153 -0.0176
 8975SOL     OW44534   9.242   0.524  10.964  0.3971  0.2903  0.2178
 8975SOL    HW144535   9.254   0.536  11.058 -0.5839  0.2399  0.3552
 8975SOL    HW244536   9.287   0.442  10.944  0.0005 -0.0701  0.7738
 8976SOL     OW44537   0.882   8.765   2.188  0.0487  0.1806  0.3122
 8976SOL    HW144538   0.797   8.753   2.230  0.5412 -1.3469  0.9573
 8976SOL    HW244539   0.944   8.769   2.261  0.8670 -1.9321 -0.2162
 8977SOL     OW44540   9.185   4.271   9.527 -0.4974  0.1560  0.1933
 8977SOL    HW144541   9.185   4.215   9.450 -0.3017  0.8862 -0.3430
 8977SOL    HW244542   9.163   4.211   9.599 -0.2600 -0.6132 -0.3546
 8978SOL     OW44543   8.722  11.068   7.706  0.2866 -0.0943  0.0738
 8978SOL    HW144544   8.637  11.074   7.662  1.2387 -0.2815 -1.8930
 8978SOL    HW244545   8.731  11.151   7.753 -0.0817  0.8427 -1.4523
 8979SOL     OW44546  10.321   1.481   1.901  0.4844 -0.3577  0.4216
 8979SOL    HW144547  10.226   1.470   1.898  0.6586 -1.8517 -0.3064
 8979SOL    HW244548  10.347   1.498   1.811  0.7166  2.4221  0.8971
 8980SOL     OW44549   2.499  10.305  10.091 -0.5460  0.2522 -0.2949
 8980SOL    HW144550   2.559  10.364  10.043  0.3312 -2.2680 -2.5668
 8980SOL    HW244551   2.556  10.253  10.147 -1.1140  0.3766  0.4182
 8981SOL     OW44552  10.478   0.837  12.388 -0.3232 -0.3070  0.9979
 8981SOL    HW144553  10.516   0.857  12.473  2.0740 -2.7423  0.6604
 8981SOL    HW244554  10.554   0.828  12.330 -1.6974 -1.3568 -0.7394
 8982SOL     OW44555  13.233   2.886   3.212  0.1824 -0.3582 -0.5751
 8982SOL    HW144556  13.317   2.915   3.176 -0.1846  1.2644 -0.2197
 8982SOL    HW244557  13.169   2.906   3.144 -0.2435  0.8527  0.1451
 8983SOL     OW44558   5.087  10.616   3.284 -0.1726 -0.0313 -0.2715
 8983SOL    HW144559   4.996  10.586   3.279 -0.4355  0.4420  1.0959
 8983SOL    HW244560   5.138  10.536   3.288 -0.5626 -0.3040 -0.6753
 8984SOL     OW44561  10.469  11.968  13.766  0.2638  0.3175 -0.2093
 8984SOL    HW144562  10.379  11.995  13.786 -0.7883 -1.7634 -1.6398
 8984SOL    HW244563  10.509  11.951  13.851 -1.4432 -0.7934  0.4211
 8985SOL     OW44564   2.023   1.311   2.568  0.6313 -0.1546 -0.0742
 8985SOL    HW144565   1.949   1.282   2.622  0.9176 -2.5408 -0.8362
 8985SOL    HW244566   1.990   1.385   2.518 -1.2517 -1.1557 -0.3781
 8986SOL     OW44567  12.032   7.856  11.592 -0.1641  0.6860  0.1272
 8986SOL    HW144568  11.977   7.778  11.598 -0.4612  0.7247 -1.4986
 8986SOL    HW244569  12.005   7.911  11.665  0.1935 -0.8068  1.4216
 8987SOL     OW44570  11.916   2.901   7.154 -0.1175 -0.7192 -0.0329
 8987SOL    HW144571  11.957   2.946   7.080  0.1175 -0.8935 -0.0092
 8987SOL    HW244572  11.822   2.901   7.134 -0.0104 -1.1702 -0.5521
 8988SOL     OW44573   8.984   0.329   5.132  0.1033 -0.2730 -0.3161
 8988SOL    HW144574   9.028   0.409   5.102  0.1594 -0.9499 -2.1498
 8988SOL    HW244575   9.007   0.263   5.067 -0.5781 -1.5972  0.7437
 8989SOL     OW44576   0.751   3.483   8.162  0.4842  0.1554  0.1587
 8989SOL    HW144577   0.712   3.512   8.244 -0.8529 -0.0464 -0.3652
 8989SOL    HW244578   0.702   3.531   8.095  2.3569  1.2174 -0.4912
 8990SOL     OW44579   1.039   9.264   3.634 -0.1345 -0.4767  0.9819
 8990SOL    HW144580   1.134   9.272   3.630 -0.2887  0.8186 -2.2538
 8990SOL    HW244581   1.015   9.309   3.715  1.9970 -1.6233  2.3580
 8991SOL     OW44582   4.245  11.814  13.828 -0.5502 -1.0002 -0.1655
 8991SOL    HW144583   4.335  11.821  13.858 -0.7406  3.4506 -0.0633
 8991SOL    HW244584   4.252  11.811  13.732 -0.2918 -0.4415 -0.1658
 8992SOL     OW44585  12.980   5.242   0.234 -0.0042 -0.1055  0.2961
 8992SOL    HW144586  13.028   5.202   0.307 -0.3408  1.6994  1.5869
 8992SOL    HW244587  13.046   5.290   0.185 -0.0261 -0.0016  0.3677
 8993SOL     OW44588   1.642   0.892  10.442  0.1368  0.0812 -0.5116
 8993SOL    HW144589   1.629   0.859  10.353 -0.2390  0.4739 -0.6051
 8993SOL    HW244590   1.559   0.876  10.487  0.8739 -1.7145  0.3048
 8994SOL     OW44591  11.087  12.937   3.606  0.2388 -0.3160  0.0217
 8994SOL    HW144592  11.068  13.006   3.543 -1.2018 -0.3718  0.3669
 8994SOL    HW244593  11.121  12.864   3.554  2.1007  0.7439 -0.3095
 8995SOL     OW44594   6.649  11.008  11.130 -0.3197  0.1847 -0.2624
 8995SOL    HW144595   6.598  11.043  11.058 -0.9613 -1.3969 -0.6282
 8995SOL    HW244596   6.590  11.014  11.206 -0.7016 -0.7012 -0.4732
 8996SOL     OW44597  12.131  11.034   9.741  0.1227 -0.0709 -0.2422
 8996SOL    HW144598  12.148  11.126   9.764  0.0488 -0.1427  0.1055
 8996SOL    HW244599  12.119  11.035   9.646 -0.7358  0.4168 -0.1371
 8997SOL     OW44600  12.492   2.875   4.257  0.3358  0.2416 -0.2949
 8997SOL    HW144601  12.492   2.831   4.342 -0.9591 -1.7146 -1.2436
 8997SOL    HW244602  12.400   2.876   4.230  1.0157 -2.9566 -3.4639
 8998SOL     OW44603  13.482   0.079   1.368  0.3866 -0.1293  0.1047
 8998SOL    HW144604  13.525  -0.000   1.402 -1.7382 -0.9682  0.9868
 8998SOL    HW244605  13.538   0.151   1.398  1.6488 -1.2035  0.4269
 8999SOL     OW44606   6.744  12.288   6.358  0.7729  0.8889  0.0374
 8999SOL    HW144607   6.663  12.307   6.309 -0.5675 -0.2291  1.7081
 8999SOL    HW244608   6.741  12.347   6.433  0.0804 -0.9554  1.5466
 9000SOL     OW44609   2.927   3.587   1.963 -0.0346 -0.0011  0.2693
 9000SOL    HW144610   2.890   3.529   1.896  1.1347  0.0079 -0.4120
 9000SOL    HW244611   2.853   3.609   2.020 -0.7688 -1.0848 -0.2443
 9001SOL     OW44612   2.742   3.357  13.687  0.2566  0.0656  0.3693
 9001SOL    HW144613   2.753   3.269  13.650  2.6036 -0.7979  2.8259
 9001SOL    HW244614   2.820   3.370  13.741 -1.3329  2.6001  2.2371
 9002SOL     OW44615   2.352   7.387  12.765  0.1881 -0.3911 -0.7262
 9002SOL    HW144616   2.375   7.337  12.688  2.0217 -0.1294 -0.4029
 9002SOL    HW244617   2.322   7.472  12.731 -0.8082 -0.9098 -1.1849
 9003SOL     OW44618   1.339   7.746   6.142 -0.0273 -0.2085 -0.3137
 9003SOL    HW144619   1.258   7.700   6.163  0.6077  0.0704  3.2875
 9003SOL    HW244620   1.409   7.685   6.165  0.8071  0.7149 -0.3123
 9004SOL     OW44621   1.155   0.480   1.065  0.3530 -0.6580 -0.5361
 9004SOL    HW144622   1.172   0.520   1.150 -0.2105  0.0805 -0.7588
 9004SOL    HW244623   1.241   0.451   1.034  0.7216  0.0479 -0.1897
 9005SOL     OW44624  13.608  10.810   2.430 -0.1245 -0.1684 -0.2450
 9005SOL    HW144625  13.574  10.776   2.512 -0.2825  0.2551 -0.1296
 9005SOL    HW244626  13.594  10.905   2.436  1.8414  0.1324  0.1732
 9006SOL     OW44627   5.560   4.483  13.455  0.1190 -0.5332  0.3786
 9006SOL    HW144628   5.533   4.395  13.428 -2.3302 -0.0591  1.0425
 9006SOL    HW244629   5.480   4.523  13.491  1.6787  1.1718  2.1845
 9007SOL     OW44630   6.620   7.530   6.043 -0.0260  0.1884  0.2340
 9007SOL    HW144631   6.543   7.473   6.049  0.2860 -0.2362  0.2850
 9007SOL    HW244632   6.695   7.470   6.046  0.3683  0.6862  1.8877
 9008SOL     OW44633   0.910   2.529   7.418  0.0393 -0.6611  0.1632
 9008SOL    HW144634   0.833   2.512   7.363 -0.1324 -0.5787  0.3749
 9008SOL    HW244635   0.876   2.581   7.491  0.2797 -0.7088  0.3093
 9009SOL     OW44636   1.818   5.340   6.372 -0.1093  0.7664 -0.1195
 9009SOL    HW144637   1.731   5.340   6.412 -0.6431 -1.1603 -1.1588
 9009SOL    HW244638   1.805   5.380   6.286  0.3964  1.9354  0.3169
 9010SOL     OW44639  13.043   0.531  11.124  0.8436  0.2191  0.3019
 9010SOL    HW144640  13.116   0.557  11.068  1.9637 -0.5859  1.3192
 9010SOL    HW244641  13.083   0.515  11.209 -0.4473 -0.7109  0.7698
 9011SOL     OW44642  12.277  10.988   3.733  0.0803  0.5189  0.2741
 9011SOL    HW144643  12.277  10.905   3.686 -2.4775  0.5024  0.2001
 9011SOL    HW244644  12.370  11.005   3.750  0.9221 -0.6789 -2.5738
 9012SOL     OW44645  11.109  13.746   3.591 -0.0733 -0.1042 -0.1001
 9012SOL    HW144646  11.108  13.833   3.630  0.6327 -0.4467  0.6897
 9012SOL    HW244647  11.060  13.757   3.509  2.5067  1.7572 -1.5601
 9013SOL     OW44648   3.366   7.265   1.363 -0.8406  0.1758  0.7783
 9013SOL    HW144649   3.341   7.182   1.403  2.3132 -2.1740 -1.5474
 9013SOL    HW244650   3.439   7.296   1.416  0.7019 -0.8397 -0.6412
 9014SOL     OW44651  12.185  12.690  11.701 -0.3067 -0.0694 -0.1662
 9014SOL    HW144652  12.158  12.734  11.620  1.2478 -0.3340 -0.8598
 9014SOL    HW244653  12.175  12.757  11.768 -2.8879 -0.2238 -0.2943
 9015SOL     OW44654   2.158  12.320   5.778 -0.1736 -0.1049  0.0227
 9015SOL    HW144655   2.241  12.274   5.786  0.1201  0.3748 -0.1973
 9015SOL    HW244656   2.158  12.382   5.851 -0.3929 -0.1895  0.0940
 9016SOL     OW44657   5.980   2.874   3.748  0.2008  0.0928 -0.7146
 9016SOL    HW144658   5.940   2.865   3.834 -0.2632  0.7807 -0.8512
 9016SOL    HW244659   6.071   2.898   3.766  0.0523  0.4356 -0.4214
 9017SOL     OW44660  13.656   2.925   6.727  0.0752  0.2079 -0.7513
 9017SOL    HW144661  13.589   2.992   6.712 -0.4872 -0.6507 -2.3677
 9017SOL    HW244662  13.713   2.963   6.794 -1.0267  1.6995 -0.5950
 9018SOL     OW44663   5.313   2.789   9.611 -0.1789 -0.7347  0.1338
 9018SOL    HW144664   5.398   2.824   9.636 -0.1405 -1.3513  0.8931
 9018SOL    HW244665   5.303   2.709   9.663 -1.1282 -0.7890 -0.1083
 9019SOL     OW44666   1.641   9.661  10.075  0.1098 -0.5087  0.2823
 9019SOL    HW144667   1.707   9.592  10.077 -0.3746 -0.9651  0.7437
 9019SOL    HW244668   1.565   9.620  10.032  0.0332 -0.0706 -0.0112
 9020SOL     OW44669   7.845   4.029   5.745  0.0102  0.0379 -0.1796
 9020SOL    HW144670   7.839   3.991   5.833 -2.4747 -1.9018 -1.0309
 9020SOL    HW244671   7.759   4.070   5.731  0.7261  1.2050 -1.3410
 9021SOL     OW44672   8.971   2.714  10.727 -0.5893 -0.7839  0.2633
 9021SOL    HW144673   8.942   2.765  10.802 -2.1040 -0.6087 -0.4069
 9021SOL    HW244674   8.912   2.739  10.656  2.0323  0.5655 -1.5981
 9022SOL     OW44675   9.985  12.057   7.869  0.6278 -0.1518 -0.2272
 9022SOL    HW144676   9.913  12.011   7.826 -0.3183  0.9012  0.1875
 9022SOL    HW244677   9.961  12.057   7.962  0.2205  1.7867 -0.2921
 9023SOL     OW44678   7.356   3.216   9.685  0.3166  0.3200  0.3040
 9023SOL    HW144679   7.283   3.190   9.628 -0.6235  4.2761 -0.5891
 9023SOL    HW244680   7.434   3.181   9.642 -0.5651  1.3887 -2.3399
 9024SOL     OW44681   1.054  12.286  10.156  0.1599  0.0835 -0.5478
 9024SOL    HW144682   1.021  12.295  10.245  1.3324 -0.3978 -0.0502
 9024SOL    HW244683   1.134  12.338  10.155 -0.3315  0.8629 -1.6026
 9025SOL     OW44684  11.092  10.785  11.564  0.5041 -0.2403  0.0907
 9025SOL    HW144685  11.187  10.792  11.563  0.3922  1.9560 -0.4419
 9025SOL    HW244686  11.067  10.785  11.472 -0.0370 -0.1382  0.2336
 9026SOL     OW44687  11.481   0.381  10.277 -0.2832  0.3710 -0.1004
 9026SOL    HW144688  11.410   0.432  10.237 -0.8805 -0.1789  0.2388
 9026SOL    HW244689  11.556   0.396  10.220 -1.1192 -0.4014 -1.4540
 9027SOL     OW44690   9.273  13.864   3.862 -0.1741  0.2739 -0.0388
 9027SOL    HW144691   9.266  13.951   3.901  0.0610 -0.0941  0.8491
 9027SOL    HW244692   9.215  13.867   3.786 -0.9310  0.9043  0.5481
 9028SOL     OW44693   9.476   0.172   9.347  0.2869  0.2402 -0.2893
 9028SOL    HW144694   9.393   0.151   9.305 -0.1217  0.5691  0.3357
 9028SOL    HW244695   9.514   0.241   9.293 -0.3001  0.7609 -0.0482
 9029SOL     OW44696  12.390   2.698   0.686 -0.1968 -0.8191 -0.2300
 9029SOL    HW144697  12.356   2.779   0.725  2.5186 -0.1379  0.9184
 9029SOL    HW244698  12.353   2.629   0.741  0.0468 -0.1225  0.8574
 9030SOL     OW44699   5.543   3.091   5.092  0.0659  0.5693  0.0344
 9030SOL    HW144700   5.455   3.129   5.097 -1.1681 -1.9864 -0.4752
 9030SOL    HW244701   5.569   3.105   5.001 -1.2737 -1.4651 -0.7363
 9031SOL     OW44702   7.358   2.076   5.783 -0.0669 -0.0050 -0.2398
 9031SOL    HW144703   7.422   2.077   5.855  1.3310 -1.9196 -1.3387
 9031SOL    HW244704   7.293   2.011   5.810  0.4208 -0.6726 -0.6207
 9032SOL     OW44705   1.426   0.157  12.702 -0.3796 -0.3975  0.2234
 9032SOL    HW144706   1.454   0.231  12.756 -0.1769  0.0954 -0.5372
 9032SOL    HW244707   1.460   0.080  12.746  0.5644  0.0600  0.3155
 9033SOL     OW44708   9.632  11.017   8.753  0.7269  0.1496 -0.0804
 9033SOL    HW144709   9.683  11.094   8.777  1.1245 -0.0001 -0.4350
 9033SOL    HW244710   9.669  10.946   8.805  0.0328  0.2899  0.6180
 9034SOL     OW44711   2.066   7.730   9.821 -0.1846  0.0795 -0.4424
 9034SOL    HW144712   2.146   7.775   9.848 -0.1537  0.1436 -0.6445
 9034SOL    HW244713   2.084   7.637   9.837 -0.0733  0.0950 -0.4785
 9035SOL     OW44714   2.077   4.584   2.736  0.6903  0.6113  0.2902
 9035SOL    HW144715   2.098   4.491   2.736 -0.8412  0.2369  0.2508
 9035SOL    HW244716   2.108   4.616   2.651 -1.4288 -0.5603 -1.0375
 9036SOL     OW44717   2.405  12.902   5.571  0.3653  0.0253 -0.3403
 9036SOL    HW144718   2.465  12.827   5.565  1.4707  0.8215  0.3703
 9036SOL    HW244719   2.462  12.976   5.589 -0.7867  0.9372 -0.3682
 9037SOL     OW44720   8.210  13.591  10.294 -0.0372 -0.3608 -0.0759
 9037SOL    HW144721   8.260  13.672  10.290 -0.5851 -0.0163  0.0401
 9037SOL    HW244722   8.272  13.527  10.329  0.3523  0.0327 -0.0307
 9038SOL     OW44723  10.776  10.614   0.006  0.7217 -0.4240  0.1592
 9038SOL    HW144724  10.697  10.593   0.056 -0.1568  2.7315  0.3035
 9038SOL    HW244725  10.836  10.541   0.024 -1.9810 -2.7341  0.3283
 9039SOL     OW44726  11.370   1.459   6.137 -0.2117 -0.5571  0.6145
 9039SOL    HW144727  11.438   1.466   6.069  0.7311  0.4713  1.6249
 9039SOL    HW244728  11.309   1.530   6.116  0.0264 -0.3023  0.7774
 9040SOL     OW44729   9.835   0.960   1.954 -0.2753 -0.0850  0.5213
 9040SOL    HW144730   9.749   0.918   1.963  0.1294 -0.5475  2.7406
 9040SOL    HW244731   9.885   0.899   1.901 -0.8285 -0.6260  0.5986
 9041SOL     OW44732  11.335  13.647   9.355  0.2071 -0.3980 -0.1981
 9041SOL    HW144733  11.388  13.629   9.433  0.7544  0.6972 -0.2923
 9041SOL    HW244734  11.399  13.655   9.285 -0.1166  0.5388 -0.3922
 9042SOL     OW44735   6.409  13.486   3.613  0.3443 -0.1943  0.2750
 9042SOL    HW144736   6.469  13.499   3.540  0.6762  0.2887  0.6299
 9042SOL    HW244737   6.343  13.426   3.578  0.5683 -0.0774 -0.3799
 9043SOL     OW44738   1.808   5.663   0.307 -0.5090  0.0363 -0.2004
 9043SOL    HW144739   1.875   5.615   0.355  0.4890  0.4250 -1.1767
 9043SOL    HW244740   1.728   5.650   0.359  0.2470 -0.6502  0.8368
 9044SOL     OW44741   6.224   1.570   4.585 -0.1183  0.1634 -0.8689
 9044SOL    HW144742   6.274   1.498   4.547  1.5473  0.3053  0.9017
 9044SOL    HW244743   6.196   1.622   4.509  1.3335 -0.6396 -2.0110
 9045SOL     OW44744   6.534  14.088  13.390 -0.0260  0.2031  0.5662
 9045SOL    HW144745   6.457  14.082  13.448 -1.0925 -2.3421 -0.9521
 9045SOL    HW244746   6.605  14.115  13.448 -1.9572  2.4544  2.0822
 9046SOL     OW44747   7.637   5.146   5.332  0.4682  0.5745 -0.1535
 9046SOL    HW144748   7.629   5.131   5.238  1.4370 -0.4756 -0.0990
 9046SOL    HW244749   7.547   5.147   5.364  0.1593 -1.6337 -0.7642
 9047SOL     OW44750   7.659   4.636   5.596 -0.3487 -0.3960 -0.5423
 9047SOL    HW144751   7.710   4.626   5.676 -1.8989  0.8457  0.6537
 9047SOL    HW244752   7.641   4.546   5.568 -0.8404 -0.8890  1.2335
 9048SOL     OW44753   4.101  11.931   7.352  0.1477  0.5138  0.1149
 9048SOL    HW144754   4.128  11.886   7.432  0.5279  2.0709  0.8923
 9048SOL    HW244755   4.129  11.873   7.282 -0.1159 -0.8538  1.0786
 9049SOL     OW44756  13.663   4.733   1.490  0.4831 -0.3283 -0.4398
 9049SOL    HW144757  13.716   4.714   1.567 -1.3188 -1.2211  0.6281
 9049SOL    HW244758  13.727   4.741   1.419  2.0752 -0.9474  0.8586
 9050SOL     OW44759  11.453   8.012  11.303  0.1756  0.3697  0.1888
 9050SOL    HW144760  11.392   7.957  11.352  0.6529 -0.5521 -0.2414
 9050SOL    HW244761  11.416   8.016  11.215  0.9964 -0.6467 -0.2244
 9051SOL     OW44762   5.367  10.276   2.267 -0.0815 -0.6870 -0.5465
 9051SOL    HW144763   5.420  10.339   2.315 -0.8562 -1.1872  1.0387
 9051SOL    HW244764   5.310  10.329   2.211  1.0360 -0.1051 -1.1637
 9052SOL     OW44765   5.969  13.721  10.519  0.1829  0.0651  0.2971
 9052SOL    HW144766   6.007  13.805  10.544 -2.5792  1.5682 -0.1586
 9052SOL    HW244767   6.035  13.656  10.544  1.6909  2.2051  2.2675
 9053SOL     OW44768   8.737   2.084   6.580  0.5494  0.3713 -0.5982
 9053SOL    HW144769   8.780   2.026   6.643 -3.0409 -0.4020  1.4014
 9053SOL    HW244770   8.722   2.028   6.504 -2.3422 -1.3899  1.0877
 9054SOL     OW44771   4.939   0.964  10.416  0.3898 -0.5230  0.5517
 9054SOL    HW144772   5.034   0.969  10.411  0.6391 -2.3078  2.1633
 9054SOL    HW244773   4.907   1.020  10.346  2.6191  0.4020  0.2238
 9055SOL     OW44774  11.755  11.176   0.852  0.1581 -0.2203  0.0208
 9055SOL    HW144775  11.831  11.173   0.794  0.6380  0.5647  0.5995
 9055SOL    HW244776  11.743  11.269   0.871 -1.1557 -0.2943 -0.3300
 9056SOL     OW44777  13.226   0.204   7.922  0.8596 -0.3768 -0.1986
 9056SOL    HW144778  13.161   0.134   7.928  0.1968  0.2168 -0.3569
 9056SOL    HW244779  13.178   0.278   7.887  0.8788  0.9814  2.3980
 9057SOL     OW44780   7.627   6.049  11.746  0.4154 -0.5338  0.5576
 9057SOL    HW144781   7.575   6.115  11.701 -0.5024 -1.6894 -0.1471
 9057SOL    HW244782   7.646   5.983  11.679 -0.0296 -1.7463  1.5735
 9058SOL     OW44783  12.106   5.690   8.126  0.1792 -0.4664  0.0181
 9058SOL    HW144784  12.132   5.776   8.093 -0.3619  0.2979  1.4877
 9058SOL    HW244785  12.070   5.645   8.050  0.9847  0.3870 -0.8937
 9059SOL     OW44786   2.449   3.112  12.158 -0.0614  0.4699  0.5771
 9059SOL    HW144787   2.467   3.188  12.213 -2.4089  0.6929  1.1802
 9059SOL    HW244788   2.507   3.044  12.191  0.9516  1.5355  1.0797
 9060SOL     OW44789   8.188   3.567   2.770  0.2161 -0.2823 -0.5398
 9060SOL    HW144790   8.237   3.497   2.727  0.0624 -0.5982 -0.1940
 9060SOL    HW244791   8.097   3.547   2.752  0.2131  0.5723 -1.6031
 9061SOL     OW44792   8.777   5.112   2.520 -0.0932  0.0012 -0.0270
 9061SOL    HW144793   8.863   5.075   2.501  0.2605  0.6788  0.2096
 9061SOL    HW244794   8.771   5.111   2.616 -0.1969  0.2999 -0.0304
 9062SOL     OW44795  11.303   1.981  10.522 -0.2577  0.5888  0.2530
 9062SOL    HW144796  11.239   1.974  10.451 -1.5722  0.6391  1.3898
 9062SOL    HW244797  11.327   2.073  10.523  1.2187  0.2755 -1.3031
 9063SOL     OW44798   3.957   0.767  11.258  0.3747  0.5500  0.5480
 9063SOL    HW144799   3.981   0.753  11.167  1.5192  2.5683  0.4684
 9063SOL    HW244800   3.871   0.726  11.268  0.1182  0.5109 -1.4933
 9064SOL     OW44801   4.383   9.006  13.818  0.5237 -0.5786  0.2451
 9064SOL    HW144802   4.396   9.093  13.782  0.3654 -0.6396  0.0403
 9064SOL    HW244803   4.335   8.958  13.750 -2.7852  0.2728  1.8144
 9065SOL     OW44804  10.779   8.891   6.379 -0.4581 -0.2249  0.3064
 9065SOL    HW144805  10.828   8.973   6.385  0.4891 -0.7051 -0.4772
 9065SOL    HW244806  10.760   8.881   6.286 -3.1717  0.5460  0.6913
 9066SOL     OW44807   7.891   2.628   6.464  0.1662 -0.2700  0.3123
 9066SOL    HW144808   7.906   2.720   6.444  0.6776 -0.0532  1.6053
 9066SOL    HW244809   7.895   2.584   6.379 -1.1357  1.0103 -0.4561
 9067SOL     OW44810   3.716   7.441   3.007 -0.5652 -0.1965  0.0587
 9067SOL    HW144811   3.660   7.381   2.957 -0.2649 -1.1606  0.8366
 9067SOL    HW244812   3.734   7.394   3.089 -0.5747  1.1024  0.8299
 9068SOL     OW44813   5.733  10.321  12.361 -0.5224 -0.1250 -0.0090
 9068SOL    HW144814   5.679  10.320  12.281  1.3366  0.9165 -1.3687
 9068SOL    HW244815   5.808  10.376  12.338 -0.7073  1.6167  3.0320
 9069SOL     OW44816   9.702   1.543   9.280  0.1880  0.0065  0.0395
 9069SOL    HW144817   9.742   1.456   9.281  1.5010  0.5786  0.8756
 9069SOL    HW244818   9.759   1.595   9.222  0.8653  0.9031  1.4425
 9070SOL     OW44819   5.481   7.023   7.483  0.0171 -0.4550  0.5509
 9070SOL    HW144820   5.433   6.945   7.511 -0.7100  0.5886  2.4546
 9070SOL    HW244821   5.563   7.020   7.532  0.5654 -0.6940 -0.3792
 9071SOL     OW44822   9.943   3.362  13.877  0.4994 -0.7164 -0.5778
 9071SOL    HW144823   9.861   3.369  13.925  1.7826 -1.2295  1.8703
 9071SOL    HW244824   9.959   3.268  13.870 -0.9943 -0.8841 -4.7254
 9072SOL     OW44825   9.033  13.857   0.071  0.1942  0.3583 -0.0243
 9072SOL    HW144826   9.110  13.841   0.016 -0.0412  1.2457 -0.6254
 9072SOL    HW244827   9.032  13.951   0.086 -0.3189  0.2558  0.6705
 9073SOL     OW44828  11.029   9.426   0.514 -0.1969  0.1314  0.1373
 9073SOL    HW144829  10.991   9.367   0.579 -1.5601  0.7124 -0.0749
 9073SOL    HW244830  11.089   9.481   0.564 -0.9074  0.2923  0.8403
 9074SOL     OW44831   6.073  12.470   0.874  0.2408 -0.7201  0.2559
 9074SOL    HW144832   6.006  12.424   0.824  1.4558 -2.1569 -0.1182
 9074SOL    HW244833   6.046  12.562   0.871 -0.1334 -0.8342 -2.4399
 9075SOL     OW44834   3.873   2.182   7.322  0.0200  0.4966  0.3021
 9075SOL    HW144835   3.894   2.273   7.343 -1.0487  0.4760  1.6231
 9075SOL    HW244836   3.881   2.135   7.405 -0.1842 -0.4669 -0.2014
 9076SOL     OW44837   2.720  10.987   6.659 -0.0393 -0.6712 -0.4300
 9076SOL    HW144838   2.684  11.007   6.745 -2.6759 -0.5496 -1.4516
 9076SOL    HW244839   2.739  11.073   6.620 -1.3713 -0.5712 -0.9103
 9077SOL     OW44840   0.736   0.275   3.339  0.1993 -0.6522 -0.2513
 9077SOL    HW144841   0.743   0.215   3.413  0.9945 -0.6046 -0.2849
 9077SOL    HW244842   0.688   0.225   3.273  0.9074 -1.2819 -0.3026
 9078SOL     OW44843  13.382   5.238   5.472  0.6069 -0.0139 -0.0914
 9078SOL    HW144844  13.303   5.261   5.521 -1.1191 -1.6973 -1.9072
 9078SOL    HW244845  13.438   5.194   5.536 -0.7510 -0.4756  0.8237
 9079SOL     OW44846  11.866   3.079   5.413  0.6126 -0.1813  0.5757
 9079SOL    HW144847  11.925   3.008   5.439  0.2356 -0.2599  1.2215
 9079SOL    HW244848  11.924   3.144   5.372  1.6294  0.9843  3.5735
 9080SOL     OW44849   1.802   9.704   2.624  0.1659  0.0317  0.2161
 9080SOL    HW144850   1.785   9.685   2.531 -3.9729  1.8668  0.3962
 9080SOL    HW244851   1.890   9.742   2.624  0.3821 -0.1510 -2.9307
 9081SOL     OW44852   8.718  11.052  10.218  0.1429  0.0228  0.0881
 9081SOL    HW144853   8.714  10.959  10.240 -0.7165 -0.1981 -0.9331
 9081SOL    HW244854   8.627  11.075  10.196  0.1185  1.3927  1.4345
 9082SOL     OW44855  13.282   9.365   9.833  0.5581  0.4065  0.4467
 9082SOL    HW144856  13.301   9.302   9.903 -2.1891 -0.7642  0.2468
 9082SOL    HW244857  13.318   9.325   9.754 -3.0848 -2.2995 -0.1182
 9083SOL     OW44858   1.758   4.703  13.922 -0.1499 -0.1736  0.0094
 9083SOL    HW144859   1.828   4.666  13.869 -1.2531 -0.2091 -1.4757
 9083SOL    HW244860   1.712   4.762  13.864 -1.6949 -0.5633  0.7795
 9084SOL     OW44861   9.177  11.628   2.088  0.1890  0.3099 -0.0575
 9084SOL    HW144862   9.219  11.639   2.002  0.0300  2.8088  0.1155
 9084SOL    HW244863   9.085  11.609   2.067  0.6851 -1.9545 -0.4088
 9085SOL     OW44864   3.491   6.588   7.266 -0.0280  0.1295  0.7045
 9085SOL    HW144865   3.461   6.665   7.219  2.0958 -0.0732 -1.1511
 9085SOL    HW244866   3.563   6.620   7.321  1.2320 -0.5796 -0.4924
 9086SOL     OW44867  13.847   2.683  13.255  0.4712 -0.1490 -0.2209
 9086SOL    HW144868  13.784   2.712  13.321  0.8906 -2.7671  1.4841
 9086SOL    HW244869  13.926   2.732  13.274  0.2197  0.0096  0.4341
 9087SOL     OW44870   5.519   5.691   7.900  0.4438  0.0390 -0.2828
 9087SOL    HW144871   5.596   5.743   7.879  1.5100 -2.1988 -2.5554
 9087SOL    HW244872   5.554   5.605   7.923 -1.3064 -0.9442 -1.0341
 9088SOL     OW44873  13.675   5.667   3.649 -0.2091  0.4393 -0.3341
 9088SOL    HW144874  13.738   5.601   3.619 -0.9023  0.9960 -3.3053
 9088SOL    HW244875  13.727   5.746   3.662  0.3734 -0.2197  1.7727
 9089SOL     OW44876  11.544   8.982   5.322  0.0181 -0.2235  0.1809
 9089SOL    HW144877  11.551   9.077   5.314 -0.5288 -0.1793  0.2384
 9089SOL    HW244878  11.625   8.956   5.367 -0.6056  0.3947  1.7156
 9090SOL     OW44879   4.692   4.571  10.583  0.1654  0.0710 -0.2770
 9090SOL    HW144880   4.728   4.636  10.522  0.1176 -0.1560 -0.5491
 9090SOL    HW244881   4.745   4.582  10.662  2.2123 -1.6032 -1.3108
 9091SOL     OW44882   6.696   1.199   1.480  0.1203 -0.6111 -0.2165
 9091SOL    HW144883   6.712   1.251   1.559 -0.8022 -0.9791  0.2218
 9091SOL    HW244884   6.748   1.120   1.493  0.4671 -0.3991 -0.2769
 9092SOL     OW44885  11.829   8.581  13.627  0.1779  0.1293  0.1855
 9092SOL    HW144886  11.798   8.666  13.595  0.4795  0.2057  0.0986
 9092SOL    HW244887  11.895   8.554  13.563 -0.6673 -0.6655 -0.3742
 9093SOL     OW44888   8.167   2.171   1.158  0.0995  0.5425 -0.0845
 9093SOL    HW144889   8.078   2.140   1.172  0.3770 -0.9122 -1.3026
 9093SOL    HW244890   8.175   2.180   1.063  0.9387  1.6760  0.0665
 9094SOL     OW44891  11.588   8.654   6.048 -0.1979 -0.5262  0.1312
 9094SOL    HW144892  11.616   8.606   5.970 -1.3439  1.6212 -1.7218
 9094SOL    HW244893  11.659   8.717   6.063 -0.8510  0.3873 -0.4539
 9095SOL     OW44894   6.494   2.596   2.033 -0.2346 -0.2651  0.3261
 9095SOL    HW144895   6.588   2.587   2.049 -0.2556  2.2764  2.6924
 9095SOL    HW244896   6.488   2.642   1.949  0.5969 -0.4785  0.1390
 9096SOL     OW44897   0.306  12.120   3.046  0.5530 -0.3034 -0.1528
 9096SOL    HW144898   0.218  12.082   3.052 -0.3135  1.5703 -0.3294
 9096SOL    HW244899   0.302  12.178   2.970  2.1927 -0.7337 -0.6137
 9097SOL     OW44900   5.799   1.241   9.325  0.2153 -0.0202  0.2574
 9097SOL    HW144901   5.819   1.313   9.265 -0.0803  1.9469  2.3869
 9097SOL    HW244902   5.859   1.253   9.398 -1.5270 -0.3813  1.8330
 9098SOL     OW44903   0.920   9.805   6.197 -0.5444  0.3128 -0.0856
 9098SOL    HW144904   0.840   9.815   6.248 -0.5967  0.7206 -0.2468
 9098SOL    HW244905   0.890   9.777   6.110 -0.5206  0.5821 -0.1808
 9099SOL     OW44906   2.463   9.484   7.241 -0.1618 -0.0802 -0.2045
 9099SOL    HW144907   2.548   9.507   7.278 -0.5676  0.5492  0.3753
 9099SOL    HW244908   2.436   9.561   7.192 -0.8517  0.1322  0.4775
 9100SOL     OW44909   8.139  12.123   0.394 -0.2487  0.4442  0.1861
 9100SOL    HW144910   8.096  12.191   0.343  0.2444  0.7294  0.1459
 9100SOL    HW244911   8.161  12.165   0.477 -0.6906  0.0947  0.4841
 9101SOL     OW44912   1.688   1.960   7.780 -0.1704 -0.5000  0.2609
 9101SOL    HW144913   1.700   1.893   7.711  1.9363 -2.3510  2.2510
 9101SOL    HW244914   1.616   1.927   7.833 -1.4505  0.6679 -0.6784
 9102SOL     OW44915   8.115  13.426   4.128 -0.2179  0.6876  0.2680
 9102SOL    HW144916   8.156  13.340   4.141  0.3125  1.1501  1.8705
 9102SOL    HW244917   8.031  13.406   4.086 -0.0801 -0.6160  0.5618
 9103SOL     OW44918   7.501   4.730   7.199  0.6180 -0.1041  0.7698
 9103SOL    HW144919   7.461   4.671   7.264  0.4424  0.5462  1.2631
 9103SOL    HW244920   7.538   4.672   7.133 -0.6704 -0.7478  0.5849
 9104SOL     OW44921   2.610   5.562   6.636 -0.4832  0.2602  0.0973
 9104SOL    HW144922   2.666   5.633   6.669  0.6097 -0.2853 -0.5424
 9104SOL    HW244923   2.670   5.500   6.596 -1.6617  0.4594 -2.1829
 9105SOL     OW44924   8.934   5.491   6.246  0.3256  1.2008 -0.6460
 9105SOL    HW144925   8.842   5.520   6.248 -0.0887 -0.0836  0.3008
 9105SOL    HW244926   8.964   5.502   6.336  1.0000  1.2582 -0.8749
 9106SOL     OW44927   2.888  10.953   5.937 -0.1377  0.2433 -0.8028
 9106SOL    HW144928   2.840  10.901   6.001  0.0976  0.5062 -0.4099
 9106SOL    HW244929   2.880  11.043   5.968  2.4476  0.1096  0.5316
 9107SOL     OW44930   6.318   2.325   8.568 -0.2330  0.5149 -0.2578
 9107SOL    HW144931   6.235   2.353   8.531 -1.3364 -1.8120  0.2366
 9107SOL    HW244932   6.351   2.259   8.507  0.9662  0.9716 -0.1373
 9108SOL     OW44933   8.421   8.818   7.253  0.4055 -0.3632  0.4506
 9108SOL    HW144934   8.382   8.748   7.200 -1.6977 -0.3507  1.8613
 9108SOL    HW244935   8.464   8.773   7.325 -0.8976 -0.2375  1.3263
 9109SOL     OW44936  13.836   6.729   9.603  0.3490 -0.6299 -0.0953
 9109SOL    HW144937  13.760   6.716   9.546 -1.2304 -0.2123  1.8154
 9109SOL    HW244938  13.846   6.645   9.648  1.1102 -0.7194 -0.4288
 9110SOL     OW44939   6.542   4.754  12.994 -0.3182  0.6743  0.2210
 9110SOL    HW144940   6.491   4.701  12.934 -1.5871  1.4620  0.5572
 9110SOL    HW244941   6.615   4.698  13.021 -1.0498 -0.5131 -0.2204
 9111SOL     OW44942  13.911  11.285   8.361  0.4281  0.0552 -0.5412
 9111SOL    HW144943  13.862  11.327   8.291 -1.2259  0.5899  0.8639
 9111SOL    HW244944  13.890  11.192   8.354 -0.4481  0.2237 -0.2354
 9112SOL     OW44945  12.307  10.014   4.417 -0.1634  0.3342 -0.2465
 9112SOL    HW144946  12.310  10.003   4.322  1.1787 -2.8563  0.0379
 9112SOL    HW244947  12.390  10.056   4.439  0.0385  0.0186 -0.3972
 9113SOL     OW44948   6.070  11.064   1.526  0.0313  0.1987 -0.0919
 9113SOL    HW144949   6.092  11.152   1.556 -0.5341  0.2032  0.3132
 9113SOL    HW244950   6.035  11.077   1.438 -5.1301  1.1012  1.7283
 9114SOL     OW44951  12.207   1.777   3.049  0.6510  0.3850 -0.0225
 9114SOL    HW144952  12.281   1.826   3.085  0.0716  1.0692  0.2469
 9114SOL    HW244953  12.131   1.808   3.098  0.2478 -0.6819  0.0532
 9115SOL     OW44954   9.569   7.360  13.291  0.6032 -0.4753  0.3343
 9115SOL    HW144955   9.478   7.388  13.300  0.1413 -0.4796 -3.1331
 9115SOL    HW244956   9.573   7.278  13.340 -0.3198  1.0806  3.2374
 9116SOL     OW44957   1.156  12.327  12.363  0.4523 -0.0964 -0.5562
 9116SOL    HW144958   1.088  12.364  12.306  1.1693  1.3556 -0.5042
 9116SOL    HW244959   1.108  12.294  12.439 -0.3410 -0.4614 -1.1997
 9117SOL     OW44960   9.484   3.179  10.706  0.5612 -0.1119 -0.0173
 9117SOL    HW144961   9.428   3.105  10.728  0.5530  0.0226  0.4106
 9117SOL    HW244962   9.484   3.182  10.610  0.4899 -0.6084 -0.0309
 9118SOL     OW44963   8.412  12.351   8.927 -0.6184  0.1902 -0.1729
 9118SOL    HW144964   8.337  12.411   8.925 -0.5541  0.3164  0.6902
 9118SOL    HW244965   8.432  12.340   9.020  0.1819 -0.1642 -0.3712
 9119SOL     OW44966   3.169   9.517   5.417  0.4040  0.6847 -0.1077
 9119SOL    HW144967   3.218   9.501   5.336  0.2253  0.6439 -0.2081
 9119SOL    HW244968   3.147   9.610   5.413  1.1950  0.9038  0.3391
 9120SOL     OW44969   4.454  13.938  11.432 -0.4003  0.1707  0.2034
 9120SOL    HW144970   4.425  13.854  11.396 -1.6076  0.6917 -0.0799
 9120SOL    HW244971   4.459  13.996  11.356  0.5082  0.3483  0.3854
 9121SOL     OW44972   6.045   2.800   5.577 -0.0823 -0.6278 -0.0908
 9121SOL    HW144973   5.958   2.817   5.539 -0.1186  1.4883  0.8217
 9121SOL    HW244974   6.083   2.887   5.589  1.5105 -1.4433  1.0728
 9122SOL     OW44975   2.264   3.269  10.494 -0.0206  0.1145 -0.4101
 9122SOL    HW144976   2.307   3.351  10.471  1.0204 -0.0360  0.8747
 9122SOL    HW244977   2.214   3.289  10.573  0.0144 -0.4193 -0.2453
 9123SOL     OW44978   9.546   8.499   4.570  0.4774  0.0740 -0.2187
 9123SOL    HW144979   9.625   8.529   4.616 -0.2664  1.3143  0.3066
 9123SOL    HW244980   9.477   8.559   4.599 -0.5822 -0.7322 -0.9771
 9124SOL     OW44981   2.818  13.759   3.656  0.6946  0.1258  0.7707
 9124SOL    HW144982   2.757  13.707   3.604  0.0879  0.1661  1.4245
 9124SOL    HW244983   2.779  13.847   3.658  1.5118  0.5245  0.0044
 9125SOL     OW44984   1.081   9.670  10.380 -0.3739  0.6791 -0.0125
 9125SOL    HW144985   1.160   9.626  10.410 -1.0486 -0.4185  0.1975
 9125SOL    HW244986   1.010   9.630  10.431 -0.8336  3.3958  1.6891
 9126SOL     OW44987  10.116   8.505   4.920 -0.4962 -0.0211  0.1243
 9126SOL    HW144988  10.205   8.541   4.924 -0.4100 -0.2905  0.6916
 9126SOL    HW244989  10.080   8.520   5.007 -0.5366 -1.0932  0.2978
 9127SOL     OW44990   5.462   5.537  12.315 -0.8849 -0.0386 -0.2447
 9127SOL    HW144991   5.528   5.477  12.349  0.5305  0.9214 -1.1613
 9127SOL    HW244992   5.393   5.538  12.381  0.2169 -0.7590  0.9510
 9128SOL     OW44993  13.468   1.034   2.197  0.2528  0.1953 -0.3609
 9128SOL    HW144994  13.534   0.987   2.249 -0.8267  0.7430  1.5881
 9128SOL    HW244995  13.444   0.972   2.128  1.4456 -0.7170 -0.0060
 9129SOL     OW44996   3.723   7.348   4.962  0.5870 -0.0944  0.0569
 9129SOL    HW144997   3.704   7.256   4.945  0.7705 -0.4211  1.4698
 9129SOL    HW244998   3.661   7.373   5.031 -0.6720  1.3725 -1.5037
 9130SOL     OW44999   3.202   3.951   2.397  0.4565 -0.0399  0.0113
 9130SOL    HW145000   3.134   3.934   2.332 -1.8439  2.0044  1.6934
 9130SOL    HW245001   3.182   3.893   2.470  0.2382  0.8536  0.6833
 9131SOL     OW45002   7.123   8.907   7.442  0.6462  0.0428 -0.2789
 9131SOL    HW145003   7.064   8.943   7.376  1.6093  0.4623 -0.9318
 9131SOL    HW245004   7.086   8.936   7.525 -0.2336  0.0368 -0.6601
 9132SOL     OW45005  13.854   2.234   6.723 -0.3308  0.2257  0.5699
 9132SOL    HW145006  13.851   2.139   6.735  0.5626 -0.0619 -1.2242
 9132SOL    HW245007  13.789   2.251   6.655  0.7120  0.6570 -0.3461
 9133SOL     OW45008   1.273  13.703   4.986 -0.4611 -0.1468  0.1465
 9133SOL    HW145009   1.266  13.671   5.076 -2.2708  0.9543  0.4418
 9133SOL    HW245010   1.267  13.624   4.932  2.0526 -0.9907  0.9504
 9134SOL     OW45011  11.350   5.754   7.940  0.3842 -0.0538  0.5623
 9134SOL    HW145012  11.436   5.785   7.967  1.6191 -0.8251 -2.1206
 9134SOL    HW245013  11.297   5.755   8.020  2.4757  1.7062  2.0205
 9135SOL     OW45014  10.369   4.761   3.670  0.0416  0.0751  0.2786
 9135SOL    HW145015  10.380   4.841   3.722 -0.9077  0.0091  0.5944
 9135SOL    HW245016  10.298   4.714   3.713  0.8152 -1.1132  0.2968
 9136SOL     OW45017   1.816  13.853  11.950 -0.4293  0.4229 -0.2544
 9136SOL    HW145018   1.727  13.882  11.968 -0.4136  0.1898  0.2252
 9136SOL    HW245019   1.819  13.763  11.982 -0.2515  0.1561 -1.0042
 9137SOL     OW45020   7.433  13.306   7.836 -0.0098  0.3188  0.3386
 9137SOL    HW145021   7.450  13.400   7.828  0.3766  0.1513 -1.1623
 9137SOL    HW245022   7.511  13.271   7.880  1.5286  0.2468 -2.2290
 9138SOL     OW45023   9.019   3.027   1.693  0.0834  0.1816  0.2223
 9138SOL    HW145024   8.963   3.052   1.620  0.0739 -0.5946 -0.0422
 9138SOL    HW245025   8.963   2.974   1.750  0.2451  0.3217  0.5165
 9139SOL     OW45026  12.977   6.133   5.924  0.4340 -0.5408 -0.0462
 9139SOL    HW145027  12.943   6.055   5.880 -1.8043 -1.2247  2.5882
 9139SOL    HW245028  13.043   6.099   5.985  0.5380 -0.1901  0.0371
 9140SOL     OW45029   2.967   1.431   2.380  0.2075  0.0622  0.0149
 9140SOL    HW145030   2.872   1.435   2.385  0.2919  0.6765  1.8285
 9140SOL    HW245031   2.990   1.345   2.414  0.2500 -1.2282 -2.9178
 9141SOL     OW45032   4.528   7.685   9.143 -0.4220 -0.1119  0.5217
 9141SOL    HW145033   4.531   7.673   9.238  0.9426 -1.4799  0.3590
 9141SOL    HW245034   4.446   7.643   9.116 -0.5909 -0.1283  1.0568
 9142SOL     OW45035   2.948   5.671   9.913 -0.4515 -0.2614 -0.0500
 9142SOL    HW145036   3.035   5.679   9.953 -0.3909 -2.6605  0.4495
 9142SOL    HW245037   2.949   5.734   9.841  0.9463  1.1962  1.1742
 9143SOL     OW45038   5.498   9.222   2.719  0.4182  0.5751 -0.4343
 9143SOL    HW145039   5.557   9.286   2.678  0.9392 -0.0235 -0.6360
 9143SOL    HW245040   5.418   9.271   2.737  1.3183  1.6888  0.7828
 9144SOL     OW45041   4.368   3.570   9.129  0.0827 -0.1138  0.3438
 9144SOL    HW145042   4.386   3.484   9.166  1.7786 -0.0051 -0.1421
 9144SOL    HW245043   4.419   3.631   9.183 -0.2485  0.4555  0.0265
 9145SOL     OW45044  14.033   6.225  10.603 -0.3988  0.2610 -0.4892
 9145SOL    HW145045  14.126   6.231  10.623 -0.4364 -0.1460 -0.1750
 9145SOL    HW245046  13.991   6.211  10.688 -0.5803 -1.3400 -0.8095
 9146SOL     OW45047   2.494   4.424   5.719  0.1833 -0.2310 -0.1844
 9146SOL    HW145048   2.484   4.485   5.791 -0.9741  0.8784 -1.2290
 9146SOL    HW245049   2.552   4.355   5.753  2.6582  2.0850  0.6208
 9147SOL     OW45050  13.887   8.963  11.164 -0.1200  0.5443  0.2937
 9147SOL    HW145051  13.918   8.957  11.254 -1.4473  2.7183  0.9697
 9147SOL    HW245052  13.824   9.035  11.165 -1.8157 -0.7766 -1.9321
 9148SOL     OW45053   3.273  11.806   2.375 -0.2636  0.1889  0.3349
 9148SOL    HW145054   3.209  11.873   2.398 -0.5893  0.7410 -1.9724
 9148SOL    HW245055   3.224  11.723   2.378 -0.7355  0.4494 -0.0773
 9149SOL     OW45056   1.752   1.824   4.122  0.2742  0.0116  0.2987
 9149SOL    HW145057   1.702   1.768   4.063  1.3566 -0.2326 -0.4096
 9149SOL    HW245058   1.727   1.795   4.209 -0.7687 -0.1410 -0.0385
 9150SOL     OW45059   2.599  12.835   8.006 -0.2517 -0.3645  0.3118
 9150SOL    HW145060   2.669  12.795   8.058 -0.1218  1.5286  1.7432
 9150SOL    HW245061   2.628  12.826   7.916  2.3677  1.0844  0.8727
 9151SOL     OW45062  13.123   4.533   4.716 -0.0317 -0.0445 -0.5008
 9151SOL    HW145063  13.032   4.520   4.743  0.4696  1.2608  2.1339
 9151SOL    HW245064  13.164   4.447   4.726 -0.1181  0.1574  2.2323
 9152SOL     OW45065   1.845   2.760  12.644  0.0868  0.0775  0.0916
 9152SOL    HW145066   1.847   2.715  12.560  1.4983  2.4781 -1.2934
 9152SOL    HW245067   1.924   2.729  12.689 -1.6184 -2.6343  1.4767
 9153SOL     OW45068   2.921   5.557  10.901 -0.4122 -0.4017 -0.7086
 9153SOL    HW145069   3.000   5.531  10.854 -1.1562 -1.1552 -1.5762
 9153SOL    HW245070   2.932   5.651  10.916  0.6024 -0.4803 -0.9067
 9154SOL     OW45071  13.050  10.114  11.524 -0.0170 -0.2039  0.4255
 9154SOL    HW145072  13.034  10.119  11.430  0.1479 -1.1763  0.3358
 9154SOL    HW245073  12.987  10.048  11.555  1.4097 -1.5250  0.6267
 9155SOL     OW45074   5.966   4.840   0.450 -0.0215 -0.3473  0.0441
 9155SOL    HW145075   5.995   4.891   0.374 -1.6868  1.1575  0.3534
 9155SOL    HW245076   5.999   4.752   0.433  1.1176  0.3356 -1.5775
 9156SOL     OW45077  13.692   6.745   1.249  0.6032 -0.3100 -0.0126
 9156SOL    HW145078  13.741   6.668   1.278  0.6837 -1.3264 -2.6097
 9156SOL    HW245079  13.602   6.729   1.278  1.1554  0.1346  2.1320
 9157SOL     OW45080  12.962   4.406   2.413  0.0567 -0.6433  0.4883
 9157SOL    HW145081  12.889   4.393   2.473  0.0473  2.1442  1.2067
 9157SOL    HW245082  13.028   4.342   2.441 -1.7920 -2.8563  0.1507
 9158SOL     OW45083   9.056   4.904   2.259  0.0455  0.6563  0.1599
 9158SOL    HW145084   9.043   4.931   2.350 -0.4264  0.1343  0.2532
 9158SOL    HW245085   9.066   4.986   2.211  2.2107  0.9204  0.9353
 9159SOL     OW45086   2.488   6.565   5.629  0.3192  0.0307 -0.3076
 9159SOL    HW145087   2.427   6.626   5.589 -0.6642 -1.6956 -1.5459
 9159SOL    HW245088   2.467   6.480   5.591  1.9934 -1.0245  0.9430
 9160SOL     OW45089  10.522  14.027   6.845 -0.4903 -0.2592  0.1028
 9160SOL    HW145090  10.524  13.938   6.810  0.2320  0.2215 -1.1326
 9160SOL    HW245091  10.448  14.068   6.801 -0.1520  0.0766 -0.1507
 9161SOL     OW45092   8.257   9.108   3.138 -0.6024 -0.0496  0.0118
 9161SOL    HW145093   8.331   9.054   3.109 -1.1854 -0.0880 -1.4954
 9161SOL    HW245094   8.274   9.194   3.100 -1.8789 -0.3561 -1.3047
 9162SOL     OW45095  13.656  14.001  12.187 -0.1830 -0.7985 -0.0302
 9162SOL    HW145096  13.741  13.970  12.156  0.0600  0.7743 -1.0988
 9162SOL    HW245097  13.677  14.061  12.259 -0.5173 -1.6464  0.7924
 9163SOL     OW45098   3.761   9.183  12.751 -0.5202  0.6569  0.8144
 9163SOL    HW145099   3.802   9.269  12.744 -1.9967  1.3540  0.3634
 9163SOL    HW245100   3.682   9.189  12.696 -0.0162 -1.3769 -0.2589
 9164SOL     OW45101  12.433   8.802   6.858 -0.3941  0.1893 -0.0418
 9164SOL    HW145102  12.375   8.809   6.782  0.8830  0.3415 -1.0329
 9164SOL    HW245103  12.506   8.861   6.839  0.8711 -1.1626  0.4325
 9165SOL     OW45104   8.452   8.434  11.818 -0.4348 -0.7304  0.0387
 9165SOL    HW145105   8.413   8.348  11.802 -2.1677 -0.0112  0.1411
 9165SOL    HW245106   8.388   8.479  11.873  0.1923  0.8035 -0.4405
 9166SOL     OW45107   9.884   1.513   9.020 -0.0607 -0.0014  0.3416
 9166SOL    HW145108   9.940   1.529   9.096 -0.5572 -1.4161  1.0254
 9166SOL    HW245109   9.855   1.423   9.029 -2.1408  0.5552 -0.2170
 9167SOL     OW45110   8.356  11.218  13.134  0.9175 -0.1059 -0.1099
 9167SOL    HW145111   8.408  11.290  13.099  1.4083  0.2275  1.2489
 9167SOL    HW245112   8.265  11.244  13.119  1.0946  0.7633  0.2658
 9168SOL     OW45113   5.289  13.955   2.610 -0.5089  0.1759  0.1949
 9168SOL    HW145114   5.325  13.871   2.637 -1.4285  0.0182  1.0066
 9168SOL    HW245115   5.205  13.933   2.570 -1.4058  0.7720  1.6450
 9169SOL     OW45116  10.349   6.206  11.903  0.3993  0.0905  0.2008
 9169SOL    HW145117  10.343   6.273  11.971 -1.4568 -1.2324  1.4341
 9169SOL    HW245118  10.419   6.148  11.933  0.4059  0.1787  0.3594
 9170SOL     OW45119   6.326   1.159   7.557 -0.1674 -0.1269 -0.2889
 9170SOL    HW145120   6.417   1.150   7.585 -0.4100  1.2300  1.0585
 9170SOL    HW245121   6.304   1.251   7.574 -1.3692 -0.0641 -1.9301
 9171SOL     OW45122   7.409   0.338   0.921 -0.0539  0.1490  0.3249
 9171SOL    HW145123   7.453   0.391   0.854 -0.1577  1.8500  1.5622
 9171SOL    HW245124   7.448   0.366   1.004 -0.9196 -0.9305  1.1232
 9172SOL     OW45125  13.695   4.847   4.175 -0.2017  0.2265 -0.3480
 9172SOL    HW145126  13.610   4.804   4.185 -0.0341  0.2021  1.3766
 9172SOL    HW245127  13.753   4.779   4.140 -0.2030 -0.7034  1.3168
 9173SOL     OW45128   7.403   0.750   5.861 -0.7803  0.4008 -0.2347
 9173SOL    HW145129   7.410   0.753   5.766 -0.3998 -1.6033 -0.3036
 9173SOL    HW245130   7.333   0.688   5.879 -0.4490  0.3013  0.7862
 9174SOL     OW45131  13.024   3.520  13.269  0.9640 -0.2040 -0.4349
 9174SOL    HW145132  13.068   3.602  13.248 -0.1412  0.3085 -0.8205
 9174SOL    HW245133  12.941   3.524  13.222  0.1034 -0.7453  0.9615
 9175SOL     OW45134  13.826   4.715   1.725  0.3427  0.0162  0.2674
 9175SOL    HW145135  13.875   4.788   1.764  2.0002 -1.5524  1.2780
 9175SOL    HW245136  13.828   4.647   1.792  0.8528 -1.7977 -1.4966
 9176SOL     OW45137   3.933  12.349  11.972 -0.2505  0.3231 -0.2044
 9176SOL    HW145138   3.937  12.380  12.062  0.2153  1.6903 -0.6810
 9176SOL    HW245139   3.990  12.408  11.923 -1.4311  0.3595 -1.6074
 9177SOL     OW45140   8.293   6.640   0.199 -0.1676  0.1275 -0.2327
 9177SOL    HW145141   8.300   6.730   0.166 -1.4497  0.7726  1.1769
 9177SOL    HW245142   8.242   6.595   0.132 -1.7575  1.1285  0.2618
 9178SOL     OW45143   1.359   6.694  12.864 -0.0518  0.6128 -0.4469
 9178SOL    HW145144   1.361   6.720  12.772 -0.5511 -1.2852 -1.0441
 9178SOL    HW245145   1.397   6.606  12.865 -1.2288  0.0767  0.9485
 9179SOL     OW45146   3.429  11.579  11.932  0.4104  0.0358 -0.0133
 9179SOL    HW145147   3.420  11.550  12.022  0.9730 -0.3330 -0.0748
 9179SOL    HW245148   3.515  11.549  11.905  0.7869  1.2645 -0.2621
 9180SOL     OW45149   2.753   9.659  13.290 -0.0210 -0.1637  0.4249
 9180SOL    HW145150   2.811   9.729  13.257 -0.0281 -0.0471  0.6595
 9180SOL    HW245151   2.668   9.678  13.252 -0.3593  0.7553  1.5885
 9181SOL     OW45152  13.866   1.315  13.913  0.0323 -0.2004  0.0214
 9181SOL    HW145153  13.959   1.293  13.911  0.4377  1.4171 -0.1815
 9181SOL    HW245154  13.828   1.266  13.839  0.6831 -0.9616  0.1762
 9182SOL     OW45155   6.289  13.350   8.576  0.2577 -0.3066 -0.0061
 9182SOL    HW145156   6.373  13.374   8.535 -0.3000  0.1183 -0.9232
 9182SOL    HW245157   6.226  13.410   8.537 -0.7879 -1.7577 -0.6139
 9183SOL     OW45158  12.435  10.174   3.209  0.6792  0.4498 -0.2445
 9183SOL    HW145159  12.451  10.132   3.294  0.7483  0.3541 -0.3038
 9183SOL    HW245160  12.341  10.169   3.197  0.7210  0.0242 -0.3968
 9184SOL     OW45161  12.540   1.870   6.304  0.1463  0.2570  0.3812
 9184SOL    HW145162  12.583   1.839   6.224 -0.6394 -1.8546  0.6890
 9184SOL    HW245163  12.596   1.940   6.337  1.6959 -0.3637 -0.8227
 9185SOL     OW45164   0.234   2.607   1.519 -0.2946 -0.0885 -0.3546
 9185SOL    HW145165   0.164   2.552   1.554 -0.6853  0.2876 -0.5361
 9185SOL    HW245166   0.219   2.608   1.424  1.4066 -2.0225 -0.7390
 9186SOL     OW45167   4.806  11.686  11.326 -0.7147  0.4089 -0.7916
 9186SOL    HW145168   4.824  11.737  11.405  0.8463  2.7613 -2.5044
 9186SOL    HW245169   4.763  11.749  11.267 -2.1316 -1.3552 -1.7442
 9187SOL     OW45170   8.738   1.190  10.036  0.0657 -0.4346  0.2218
 9187SOL    HW145171   8.787   1.272  10.037  1.2066 -0.9801 -2.3871
 9187SOL    HW245172   8.804   1.122  10.042 -0.5182 -1.1656 -1.1788
 9188SOL     OW45173  10.773   7.274   6.883 -0.5206  0.1994 -0.1219
 9188SOL    HW145174  10.861   7.266   6.848  0.0429  0.1328  1.2352
 9188SOL    HW245175  10.715   7.268   6.807  0.6843  1.3313 -1.1705
 9189SOL     OW45176   8.579   2.454   3.634 -0.0254  0.4808  0.1602
 9189SOL    HW145177   8.647   2.489   3.692 -0.8423  1.2527  0.6636
 9189SOL    HW245178   8.558   2.368   3.671 -1.0298  1.2498  1.4447
 9190SOL     OW45179  10.873   2.186   6.032  0.1907  0.4801 -0.1277
 9190SOL    HW145180  10.823   2.189   6.114  2.6031 -1.3645  1.5695
 9190SOL    HW245181  10.962   2.207   6.058  1.2337 -1.2287 -2.0575
 9191SOL     OW45182   5.107  10.168   8.376  0.3286  0.1804  0.0274
 9191SOL    HW145183   5.052  10.183   8.299  0.4031 -0.2901 -0.1203
 9191SOL    HW245184   5.048  10.180   8.450  0.1063  0.0052 -0.1202
 9192SOL     OW45185  11.566   8.422  10.548  0.2041 -0.0272 -0.0903
 9192SOL    HW145186  11.654   8.429  10.511  0.8348 -0.0312  1.3354
 9192SOL    HW245187  11.507   8.437  10.474  1.3742 -1.3727 -1.3493
 9193SOL     OW45188   3.129   8.966   9.244  0.4407  0.3084 -0.3567
 9193SOL    HW145189   3.209   8.976   9.297 -0.2199 -0.0893  0.7332
 9193SOL    HW245190   3.129   8.874   9.217  0.0551  0.1709  0.1172
 9194SOL     OW45191   4.316   5.966   4.762  0.5515  0.1434  0.6833
 9194SOL    HW145192   4.308   6.035   4.697  0.8542 -0.9966 -0.6131
 9194SOL    HW245193   4.239   5.910   4.747  1.4011 -0.9517  0.2697
 9195SOL     OW45194   9.718  12.282   6.927 -0.1338  0.3582  0.1907
 9195SOL    HW145195   9.714  12.275   7.023  1.3118 -1.8152  0.1622
 9195SOL    HW245196   9.794  12.338   6.911  0.5578 -0.5321  0.3171
 9196SOL     OW45197  10.625   0.241  10.728  0.1558 -0.3371 -0.1444
 9196SOL    HW145198  10.617   0.196  10.644 -0.3339  1.0435 -0.8645
 9196SOL    HW245199  10.669   0.323  10.707 -0.6259  0.3520  0.8258
 9197SOL     OW45200   0.266   2.980   5.816  0.0836  0.5104 -0.3188
 9197SOL    HW145201   0.342   2.926   5.796  1.3890  2.1570 -0.1075
 9197SOL    HW245202   0.229   3.002   5.731  1.7183  2.1735 -0.6584
 9198SOL     OW45203   8.931  11.993  13.125 -0.2312  0.2660 -0.5638
 9198SOL    HW145204   8.961  11.921  13.069  0.0547 -0.4566  0.4880
 9198SOL    HW245205   8.949  12.072  13.074  2.0653 -0.2221 -0.6436
 9199SOL     OW45206   5.049  13.964   3.689  0.0221 -0.4116  0.8311
 9199SOL    HW145207   5.074  14.049   3.654  0.3188 -0.4431  0.9716
 9199SOL    HW245208   5.060  13.903   3.615  0.4600 -0.4449  0.9248
 9200SOL     OW45209   8.301  12.609   4.832 -0.2644  0.3066 -0.1060
 9200SOL    HW145210   8.256  12.568   4.757 -0.5304 -0.4396  0.4491
 9200SOL    HW245211   8.343  12.536   4.877  0.6905  0.8810 -0.0552
 9201SOL     OW45212   0.751   8.878   3.610 -0.2218  0.2207  0.0373
 9201SOL    HW145213   0.702   8.832   3.542 -1.7648  2.1781 -0.2384
 9201SOL    HW245214   0.828   8.914   3.564 -0.3117  0.0210 -0.2724
 9202SOL     OW45215   9.694   1.344   6.072 -0.2271  0.3406 -0.1563
 9202SOL    HW145216   9.713   1.373   5.983  0.0925  1.4398  0.2618
 9202SOL    HW245217   9.697   1.248   6.067  0.1500  0.4011 -1.2422
 9203SOL     OW45218   5.713  12.795   9.016  0.5962  0.5300 -0.0957
 9203SOL    HW145219   5.713  12.880   8.972  1.0368  0.0542 -1.0552
 9203SOL    HW245220   5.800  12.759   8.998  0.4661 -0.0646  0.4206
 9204SOL     OW45221   3.140   3.812  13.257 -0.5855  0.4587  0.3067
 9204SOL    HW145222   3.166   3.765  13.178 -1.3998 -1.7816  1.2839
 9204SOL    HW245223   3.077   3.754  13.299 -1.6779  2.4856  1.6164
 9205SOL     OW45224   5.751  10.800   0.955 -0.2093  0.0449 -0.0081
 9205SOL    HW145225   5.722  10.807   1.046 -1.7248  0.8363 -0.5159
 9205SOL    HW245226   5.671  10.790   0.905  0.6753 -1.5991 -1.1792
 9206SOL     OW45227   1.645   6.216  12.232 -0.0798  0.3781 -0.5032
 9206SOL    HW145228   1.683   6.168  12.306 -0.7787  1.3868  0.5365
 9206SOL    HW245229   1.708   6.285  12.213 -0.7805  1.2855  0.4083
 9207SOL     OW45230   9.335  11.551   8.092 -0.4537 -0.1848  0.1092
 9207SOL    HW145231   9.397  11.569   8.163 -1.4589 -0.9232  1.2248
 9207SOL    HW245232   9.389  11.536   8.015  0.6865  0.3183  0.7906
 9208SOL     OW45233   6.778   2.755   4.499 -0.1473 -0.0053  0.2988
 9208SOL    HW145234   6.795   2.695   4.426 -0.8129 -1.7428  1.4833
 9208SOL    HW245235   6.815   2.710   4.575 -1.0724  0.8938  1.3119
 9209SOL     OW45236   2.651   8.950   7.209  0.1896  0.6514 -0.2027
 9209SOL    HW145237   2.619   9.040   7.216  0.6157  0.7215  0.9873
 9209SOL    HW245238   2.678   8.941   7.118 -3.5248  0.4725 -1.4785
 9210SOL     OW45239   5.476   9.206  13.696 -0.3721  0.0260 -0.3637
 9210SOL    HW145240   5.555   9.227  13.746  1.1164 -1.5544 -1.9116
 9210SOL    HW245241   5.406   9.204  13.761  1.2538 -0.7363  1.4664
 9211SOL     OW45242   4.583  13.278  11.479 -0.1693 -0.4375  0.1381
 9211SOL    HW145243   4.569  13.188  11.507 -1.3627 -1.1522 -2.4807
 9211SOL    HW245244   4.632  13.318  11.551 -1.9599 -2.3810  2.6069
 9212SOL     OW45245   1.867   4.988   8.905  0.0661  0.2249  0.3481
 9212SOL    HW145246   1.955   4.952   8.894  0.2796  0.4241  1.2792
 9212SOL    HW245247   1.870   5.072   8.860 -0.0638 -0.3521 -0.7779
 9213SOL     OW45248   1.492  11.755   3.804  0.0412  0.1743 -0.2561
 9213SOL    HW145249   1.502  11.734   3.897 -0.5777 -1.1203 -0.4601
 9213SOL    HW245250   1.569  11.716   3.762 -0.5752 -0.8143 -0.5002
 9214SOL     OW45251  13.143   5.666  14.075  0.4445  0.2778  0.4304
 9214SOL    HW145252  13.151   5.724  13.999 -0.7096  1.1267  0.9354
 9214SOL    HW245253  13.226   5.618  14.077  0.5138  0.2603 -1.3412
 9215SOL     OW45254   2.198   5.847   5.061 -0.1190  0.3853  0.3736
 9215SOL    HW145255   2.211   5.864   4.968  0.4962 -0.4326  0.3018
 9215SOL    HW245256   2.281   5.872   5.102  1.6061 -3.9797  0.0345
 9216SOL     OW45257   9.612  10.353   8.716 -0.2904 -0.1668  0.6011
 9216SOL    HW145258   9.598  10.448   8.713  0.3396 -0.0715 -2.3055
 9216SOL    HW245259   9.552  10.322   8.785 -0.5960  2.2854  1.5437
 9217SOL     OW45260  12.852   9.264   7.679 -0.0092  0.0648  0.4304
 9217SOL    HW145261  12.875   9.251   7.771  0.3004  0.4474  0.4119
 9217SOL    HW245262  12.927   9.312   7.643  0.0301 -0.3929 -0.1050
 9218SOL     OW45263   8.636  12.307   8.766 -0.0618  0.4479 -0.6483
 9218SOL    HW145264   8.567  12.300   8.832  0.0240 -1.1189 -0.6889
 9218SOL    HW245265   8.711  12.341   8.813 -0.1975 -0.0204 -0.0865
 9219SOL     OW45266   5.556   6.828   1.961 -0.3438 -0.0490  0.2062
 9219SOL    HW145267   5.524   6.768   2.029  0.2338  0.8863  1.3386
 9219SOL    HW245268   5.489   6.896   1.955  0.1007  0.4351  0.6097
 9220SOL     OW45269  12.334   2.161   0.287  0.2796  0.1940 -0.1785
 9220SOL    HW145270  12.400   2.125   0.346 -1.0124 -0.8363  0.6962
 9220SOL    HW245271  12.367   2.247   0.263  2.4434 -0.6917 -0.6250
 9221SOL     OW45272   6.732  12.036   8.444  0.1215  0.6219  0.6890
 9221SOL    HW145273   6.742  11.963   8.504 -0.6754 -0.3805 -0.3490
 9221SOL    HW245274   6.638  12.053   8.442  0.2407  1.3029  0.4843
 9222SOL     OW45275   5.126   9.380   0.402  0.1540  0.2131  0.1159
 9222SOL    HW145276   5.084   9.340   0.326  2.2276  1.4996 -1.8599
 9222SOL    HW245277   5.219   9.378   0.381  0.7894  0.6963  2.6407
 9223SOL     OW45278   4.574   0.533   3.150 -0.0321 -0.2337 -0.4473
 9223SOL    HW145279   4.501   0.555   3.208 -0.7401 -3.5824  0.1478
 9223SOL    HW245280   4.534   0.510   3.067  0.5100 -0.3353 -0.6877
 9224SOL     OW45281   1.181   0.961   0.687  0.2556  0.1369  0.3942
 9224SOL    HW145282   1.267   0.996   0.662 -1.0472  1.9558 -1.9876
 9224SOL    HW245283   1.169   0.885   0.631 -0.5503  1.1877 -0.9025
 9225SOL     OW45284  13.197   8.275   3.506  0.1644  0.9041 -0.4614
 9225SOL    HW145285  13.277   8.256   3.456  1.6784  0.8260  1.8587
 9225SOL    HW245286  13.136   8.309   3.440  1.3154 -1.0831 -2.6953
 9226SOL     OW45287   2.304   9.827  11.131 -0.6058 -0.1090 -0.2127
 9226SOL    HW145288   2.380   9.782  11.094  0.2983  0.1308  1.2707
 9226SOL    HW245289   2.333   9.918  11.142 -0.5158 -0.3518  1.8657
 9227SOL     OW45290   5.197   4.761   5.383 -0.3960  0.1624  0.0256
 9227SOL    HW145291   5.151   4.705   5.320 -0.7092 -0.7963  1.0812
 9227SOL    HW245292   5.262   4.703   5.423  0.1189  0.8893  0.2668
 9228SOL     OW45293   2.193   3.149   1.256 -0.2062  0.7586  0.4889
 9228SOL    HW145294   2.158   3.128   1.169 -0.3737  0.2604  0.6712
 9228SOL    HW245295   2.124   3.202   1.297  0.5329  2.3695 -0.2491
 9229SOL     OW45296   8.442   3.097  10.096 -0.6359  0.2682 -0.7632
 9229SOL    HW145297   8.468   3.005  10.086  1.7541  0.8683 -0.7160
 9229SOL    HW245298   8.381   3.112  10.024 -0.6421 -1.2167 -1.1059
 9230SOL     OW45299   2.196   4.650  12.783  0.7573  0.4137  0.2766
 9230SOL    HW145300   2.211   4.561  12.750 -0.3900  0.5991 -0.8066
 9230SOL    HW245301   2.101   4.659  12.786  0.8586  1.5481  0.5637
 9231SOL     OW45302  14.040  11.891   0.784 -0.2774  0.1748  0.3048
 9231SOL    HW145303  14.033  11.875   0.878 -0.4391 -0.6010  0.1733
 9231SOL    HW245304  13.954  11.868   0.750 -0.7045  1.9006  0.1463
 9232SOL     OW45305   4.474  12.939  10.354 -0.0909  0.1660 -0.2799
 9232SOL    HW145306   4.504  13.012  10.408 -0.1736  1.0230 -1.3760
 9232SOL    HW245307   4.386  12.919  10.387 -0.0673  0.5515  0.0233
 9233SOL     OW45308  12.765  12.811   4.372  0.0747 -0.1778 -0.2567
 9233SOL    HW145309  12.835  12.779   4.316 -0.6798 -0.9868 -0.7599
 9233SOL    HW245310  12.806  12.878   4.426  0.8577  0.5593 -1.7063
 9234SOL     OW45311   1.193  13.063   3.956 -0.4272 -0.5695 -0.7589
 9234SOL    HW145312   1.240  13.143   3.932 -0.5169 -0.9841 -2.4798
 9234SOL    HW245313   1.238  13.031   4.034  0.9796  0.0362 -1.2846
 9235SOL     OW45314  13.175   6.047  10.357  0.0130 -0.0667 -0.2366
 9235SOL    HW145315  13.255   6.048  10.409  0.4865 -0.2315 -0.9377
 9235SOL    HW245316  13.198   5.996  10.279 -1.6360 -2.6282  0.8453
 9236SOL     OW45317   3.471  13.378   3.853 -0.7647 -0.7381  0.2170
 9236SOL    HW145318   3.426  13.345   3.931 -1.8525  0.6815  0.2282
 9236SOL    HW245319   3.446  13.316   3.784 -1.5798 -0.7842  0.5392
 9237SOL     OW45320   1.449   9.519   6.450  0.2513  0.4650 -0.6219
 9237SOL    HW145321   1.522   9.580   6.462 -0.2593  1.6330 -2.8950
 9237SOL    HW245322   1.417   9.537   6.361 -1.4244 -1.5235 -0.4955
 9238SOL     OW45323   7.346   0.742   2.219  0.0026  0.4597  0.3593
 9238SOL    HW145324   7.292   0.683   2.167 -0.4909  1.1898  0.0384
 9238SOL    HW245325   7.373   0.810   2.158 -0.9650  1.5819  1.1538
 9239SOL     OW45326   4.797  11.101   3.527  0.0029  0.4470 -0.1941
 9239SOL    HW145327   4.860  11.070   3.462  0.3295  0.1160  0.2747
 9239SOL    HW245328   4.842  11.174   3.569  0.0806  0.2015  0.1506
 9240SOL     OW45329   1.901   7.798   7.140 -0.2957 -0.5099 -0.2193
 9240SOL    HW145330   1.825   7.853   7.122  0.3755  0.6695  0.4133
 9240SOL    HW245331   1.896   7.781   7.234  1.9669  2.4462  0.5999
 9241SOL     OW45332   4.264  13.226  11.920  0.2647  0.6372  0.2169
 9241SOL    HW145333   4.283  13.298  11.860 -2.0676  2.2213  1.2116
 9241SOL    HW245334   4.316  13.246  11.998  0.6428  0.4954  0.0030
 9242SOL     OW45335  12.864   1.022  11.457 -0.1095 -0.2774 -0.3711
 9242SOL    HW145336  12.911   0.973  11.390  2.6576  0.5392  0.8322
 9242SOL    HW245337  12.840   1.105  11.415  1.1160  0.0061 -0.5488
 9243SOL     OW45338   1.068   1.891   5.744  0.3072  0.1699 -0.2094
 9243SOL    HW145339   1.013   1.885   5.665 -0.6074 -1.5936  0.5152
 9243SOL    HW245340   1.025   1.958   5.798  0.3972  0.6989 -0.7797
 9244SOL     OW45341  13.733   6.702  10.296 -0.0612 -0.4340  0.7886
 9244SOL    HW145342  13.651   6.672  10.256 -0.2796  1.7032 -0.5300
 9244SOL    HW245343  13.740   6.794  10.270  1.0696  0.3986  3.7014
 9245SOL     OW45344   8.837   2.512   0.836 -0.5662  0.4382  0.2383
 9245SOL    HW145345   8.924   2.549   0.853 -0.0172 -1.0056  0.7302
 9245SOL    HW245346   8.812   2.548   0.752  0.3812  1.1096  0.2173
 9246SOL     OW45347   7.810  12.324   1.632 -0.7236  0.1184  0.2751
 9246SOL    HW145348   7.857  12.251   1.672 -0.0528  0.4329  0.0745
 9246SOL    HW245349   7.722  12.320   1.670 -0.6502 -0.7057  0.3680
 9247SOL     OW45350   0.756   8.103   1.161  0.2264 -0.1885 -0.4096
 9247SOL    HW145351   0.820   8.070   1.225  1.6606  1.9245 -0.6519
 9247SOL    HW245352   0.801   8.096   1.077  0.3611  1.6788 -0.5387
 9248SOL     OW45353   0.413   0.817  13.787 -0.4566 -0.0733  0.2712
 9248SOL    HW145354   0.417   0.836  13.693  0.0220 -0.2665  0.2514
 9248SOL    HW245355   0.504   0.815  13.815 -0.5774  3.3750  1.4258
 9249SOL     OW45356   5.315  10.995   3.443  0.0002 -0.0568  0.2780
 9249SOL    HW145357   5.370  10.919   3.424 -0.4024  0.0638 -1.5427
 9249SOL    HW245358   5.232  10.957   3.473 -0.6221 -0.4415 -1.7672
 9250SOL     OW45359   3.650   4.453   7.909  0.1907  0.0202 -0.0581
 9250SOL    HW145360   3.621   4.417   7.825 -0.7640 -0.0681  0.2892
 9250SOL    HW245361   3.669   4.376   7.963 -3.7572 -0.1966  1.3512
 9251SOL     OW45362  13.579  11.473   6.223  0.5639  0.4146  0.0033
 9251SOL    HW145363  13.566  11.564   6.197 -0.9238  0.9345  2.2063
 9251SOL    HW245364  13.497  11.429   6.199  1.2329 -0.3493 -0.9570
 9252SOL     OW45365   0.663  13.409   7.225  0.0730  0.7343 -0.6919
 9252SOL    HW145366   0.591  13.462   7.257 -0.2289  0.5801 -1.0988
 9252SOL    HW245367   0.623  13.324   7.204  0.7015  0.0580  0.7280
 9253SOL     OW45368   2.930   9.576   0.054  0.3980 -0.2473  0.3050
 9253SOL    HW145369   2.969   9.552  -0.030  1.3525 -0.1208  0.6897
 9253SOL    HW245370   2.947   9.670   0.062  0.1283 -0.2161  0.5445
 9254SOL     OW45371  12.026   0.347   7.391  0.3291  0.3293  0.3604
 9254SOL    HW145372  12.047   0.320   7.301  2.2132 -3.0829  1.6318
 9254SOL    HW245373  11.935   0.322   7.403  0.6139 -0.9829 -0.0631
 9255SOL     OW45374   0.364   9.886  12.732 -0.1257 -0.1032 -0.3259
 9255SOL    HW145375   0.315   9.824  12.786 -0.2343  0.6328  0.4458
 9255SOL    HW245376   0.429   9.923  12.792  2.0051 -1.6888 -1.5362
 9256SOL     OW45377   8.253   3.357   7.742 -0.0433  0.2924 -0.6620
 9256SOL    HW145378   8.184   3.363   7.675 -0.3331  0.3904 -0.3597
 9256SOL    HW245379   8.286   3.446   7.751  2.0995 -0.2075 -2.8345
 9257SOL     OW45380  12.862   6.074  11.110  0.4996  0.3605  0.2353
 9257SOL    HW145381  12.926   6.033  11.053 -0.0479 -1.9664  1.1608
 9257SOL    HW245382  12.867   6.024  11.192 -1.4130  1.0760  0.8536
 9258SOL     OW45383   7.081   4.630   1.860 -0.1958  0.7441 -0.9104
 9258SOL    HW145384   7.038   4.612   1.944 -2.9359  0.8980 -2.1606
 9258SOL    HW245385   7.115   4.545   1.832  1.7301  0.8967  0.8047
 9259SOL     OW45386   9.782   6.300   1.858  0.1390 -0.5458 -0.3105
 9259SOL    HW145387   9.788   6.311   1.953 -0.2696  0.3413 -0.3840
 9259SOL    HW245388   9.865   6.334   1.825  1.5750 -3.4871 -0.0959
 9260SOL     OW45389  12.404   7.789  13.416  0.3766 -0.6377 -0.1711
 9260SOL    HW145390  12.460   7.829  13.350  0.5155 -0.9489 -0.2412
 9260SOL    HW245391  12.323   7.768  13.370  0.9531 -2.0868 -0.5856
 9261SOL     OW45392   8.876   9.906   9.771 -0.3328 -0.3205 -0.4253
 9261SOL    HW145393   8.789   9.932   9.740  0.4048  1.2939 -1.2209
 9261SOL    HW245394   8.861   9.822   9.815 -2.3414  0.0785 -0.2621
 9262SOL     OW45395   8.424  13.994   0.626  0.2330  0.2438  0.2222
 9262SOL    HW145396   8.352  13.958   0.575 -0.5155  0.6868  0.9315
 9262SOL    HW245397   8.391  14.078   0.659  0.9514  0.3061  0.8219
 9263SOL     OW45398  10.244   6.471   1.554 -0.0470 -0.3092 -0.3248
 9263SOL    HW145399  10.324   6.500   1.598 -1.1720  2.6154 -0.0295
 9263SOL    HW245400  10.176   6.479   1.620 -1.2382  1.1086 -1.6448
 9264SOL     OW45401   7.238  11.387   5.678  0.6685 -0.4932  0.1732
 9264SOL    HW145402   7.268  11.398   5.768 -0.9298  2.8251  0.4371
 9264SOL    HW245403   7.293  11.447   5.627 -0.5645  0.1130 -0.4892
 9265SOL     OW45404   9.946   5.700   3.718 -0.3299 -0.2255 -0.1482
 9265SOL    HW145405   9.900   5.664   3.793  0.7403 -0.4167  0.4444
 9265SOL    HW245406   9.907   5.656   3.642 -1.2332 -0.2311  0.3066
 9266SOL     OW45407  12.699   8.897   2.867  0.2918 -0.0563 -0.0654
 9266SOL    HW145408  12.670   8.939   2.948  0.5678  0.8671 -0.4282
 9266SOL    HW245409  12.621   8.895   2.811 -0.0337 -1.1890  0.4141
 9267SOL     OW45410   7.745  10.918  10.015 -0.5437 -0.1632  0.0267
 9267SOL    HW145411   7.687  10.891   9.944 -0.4673  0.6813 -0.3623
 9267SOL    HW245412   7.691  10.912  10.094 -0.7015 -0.8582 -0.1264
 9268SOL     OW45413   2.908   6.058   7.187 -0.5719 -0.2748  0.0638
 9268SOL    HW145414   2.844   6.128   7.198  0.3112  0.2509  2.5524
 9268SOL    HW245415   2.885   5.993   7.253 -0.0026 -1.2587 -0.6725
 9269SOL     OW45416  12.501   9.338   9.385  0.3411  0.2696  0.1807
 9269SOL    HW145417  12.495   9.423   9.341 -3.1366  0.6763  1.1441
 9269SOL    HW245418  12.425   9.336   9.443 -0.0082 -3.7430 -0.1791
 9270SOL     OW45419  10.003   6.882  13.778 -0.4786  0.3640 -0.2486
 9270SOL    HW145420  10.050   6.844  13.704  0.5484 -0.1087  0.6170
 9270SOL    HW245421   9.926   6.825  13.789  1.1179 -1.6701  1.1257
 9271SOL     OW45422  10.252  12.379  13.683  0.1051 -1.0465 -0.2421
 9271SOL    HW145423  10.344  12.365  13.662  1.6088  2.3640  2.8970
 9271SOL    HW245424  10.215  12.418  13.604  2.7529  2.1104 -0.1056
 9272SOL     OW45425  12.032   1.981   5.424  0.3537  0.0784 -0.1418
 9272SOL    HW145426  11.957   2.027   5.384 -0.6738 -0.8922  0.5948
 9272SOL    HW245427  12.081   2.050   5.468 -0.0884  0.7477 -0.6590
 9273SOL     OW45428   0.971  13.937  13.274 -0.6934  0.0954 -0.4610
 9273SOL    HW145429   0.898  13.879  13.296  0.4924 -2.0733 -1.8567
 9273SOL    HW245430   0.950  13.969  13.186 -0.3047 -0.0221 -0.5997
 9274SOL     OW45431   2.477   0.424   1.380 -0.0236  0.1506  0.0786
 9274SOL    HW145432   2.461   0.371   1.457  1.8328 -0.0131  0.4051
 9274SOL    HW245433   2.500   0.510   1.415  1.9896 -0.2342 -0.1829
 9275SOL     OW45434  12.337   3.297   5.066  0.1161 -0.0507  0.0418
 9275SOL    HW145435  12.242   3.304   5.058  0.1037  1.1292  0.9679
 9275SOL    HW245436  12.365   3.256   4.984 -1.0180  1.2995 -1.0653
 9276SOL     OW45437   8.832  10.481   4.933 -0.1007 -0.7389 -0.4929
 9276SOL    HW145438   8.884  10.418   4.983  1.2307  1.1082  0.5885
 9276SOL    HW245439   8.753  10.492   4.985  0.7093  0.1993  0.6089
 9277SOL     OW45440  14.071  13.137   8.558 -0.1049  0.1894 -0.2488
 9277SOL    HW145441  14.151  13.163   8.603  0.1779 -0.2141 -0.5127
 9277SOL    HW245442  14.065  13.195   8.482 -0.8415  1.2053  0.5447
 9278SOL     OW45443   3.797   1.419   6.274  0.0027  0.6441  0.0899
 9278SOL    HW145444   3.782   1.428   6.180 -1.5360 -0.1119  0.2350
 9278SOL    HW245445   3.885   1.380   6.280  0.6156  1.7930 -0.9611
 9279SOL     OW45446  10.433   3.502  12.110  0.1208  0.3315 -0.2012
 9279SOL    HW145447  10.472   3.419  12.080 -0.8890 -0.3004  0.1723
 9279SOL    HW245448  10.339   3.490  12.096  0.0382  1.7728 -0.9667
 9280SOL     OW45449   9.198   3.194  13.838 -0.0547 -0.2492 -0.1526
 9280SOL    HW145450   9.128   3.255  13.863 -0.9208 -0.9419 -0.8128
 9280SOL    HW245451   9.205   3.133  13.912 -0.3204 -0.3241 -0.1885
 9281SOL     OW45452   9.989   3.950   5.826  0.6616 -0.5826 -0.4157
 9281SOL    HW145453   9.915   3.986   5.776  1.5910  1.2365 -0.5869
 9281SOL    HW245454  10.063   3.957   5.766  1.1478 -1.5505  0.0601
 9282SOL     OW45455  10.678   4.377   3.576 -0.3623 -0.1039 -0.0063
 9282SOL    HW145456  10.647   4.458   3.616  0.0548  0.2891 -0.4774
 9282SOL    HW245457  10.635   4.374   3.491  0.8076  0.4132 -0.6395
 9283SOL     OW45458  12.589  13.203  13.455 -0.1419 -0.8528  0.3518
 9283SOL    HW145459  12.622  13.131  13.401  0.5263  0.3080 -0.8418
 9283SOL    HW245460  12.498  13.179  13.472 -0.6847 -0.8299 -2.1345
 9284SOL     OW45461  10.982  12.004   2.851 -0.5813 -0.5718  0.2985
 9284SOL    HW145462  11.070  11.980   2.821 -0.9801 -0.4290 -1.0470
 9284SOL    HW245463  10.935  12.025   2.771 -1.5069  0.5134  1.1047
 9285SOL     OW45464   9.294   8.384  10.058 -0.1899  0.2768  0.2723
 9285SOL    HW145465   9.252   8.410  10.139  1.0813  1.7065  0.5163
 9285SOL    HW245466   9.243   8.427   9.989 -0.2080  0.5017  0.4278
 9286SOL     OW45467  11.793  10.513   9.589  0.1977 -0.2055 -0.0928
 9286SOL    HW145468  11.737  10.502   9.512 -0.8351 -0.0925  0.6152
 9286SOL    HW245469  11.736  10.556   9.654  1.0490 -0.2744  0.7181
 9287SOL     OW45470  12.737  11.512   5.188 -0.2212  0.0094  0.0134
 9287SOL    HW145471  12.716  11.516   5.281 -1.8052 -1.5398 -0.2221
 9287SOL    HW245472  12.779  11.426   5.176 -0.0843  0.1692 -0.7185
 9288SOL     OW45473  12.815  10.011  12.757 -0.1402  0.1210 -0.2881
 9288SOL    HW145474  12.899  10.039  12.794 -0.2026 -0.5652  0.3778
 9288SOL    HW245475  12.804  10.067  12.680  0.7875  0.4200 -0.2196
 9289SOL     OW45476  13.646  13.781   7.552  0.0654 -0.2561 -0.7145
 9289SOL    HW145477  13.611  13.840   7.485 -1.8157 -0.2516  0.1751
 9289SOL    HW245478  13.629  13.693   7.519  0.9862 -0.2881 -1.1235
 9290SOL     OW45479   5.285   8.713   1.917 -0.0214  0.2720  0.0546
 9290SOL    HW145480   5.330   8.645   1.967 -0.2673  0.5186  0.6221
 9290SOL    HW245481   5.300   8.690   1.826 -1.5766 -1.5561  0.2040
 9291SOL     OW45482   2.088   5.053  12.196 -0.1337 -0.5550  0.1094
 9291SOL    HW145483   1.996   5.078  12.201 -0.3006 -1.2037  0.3406
 9291SOL    HW245484   2.124   5.106  12.125 -0.2406  1.0617  1.2243
 9292SOL     OW45485   4.412   6.006   5.123  0.5354 -0.2216  0.8691
 9292SOL    HW145486   4.410   5.912   5.106 -1.2511 -0.3451  1.5246
 9292SOL    HW245487   4.329   6.038   5.087 -0.1951  0.6138  3.0957
 9293SOL     OW45488   1.400   7.296   4.253 -0.4127  0.8691  0.4599
 9293SOL    HW145489   1.328   7.235   4.239 -1.2577  1.3087  2.4290
 9293SOL    HW245490   1.359   7.382   4.255  0.1921  1.1624  1.2529
 9294SOL     OW45491  11.219  13.409  11.498  0.3808  0.3759 -0.1951
 9294SOL    HW145492  11.304  13.453  11.488  0.5820  0.1409  0.3908
 9294SOL    HW245493  11.242  13.321  11.530 -0.1165  0.6170  0.8729
 9295SOL     OW45494  10.662  12.648   9.725  0.2316 -0.1878  0.5556
 9295SOL    HW145495  10.681  12.720   9.784 -1.3151  1.0980 -0.4146
 9295SOL    HW245496  10.567  12.636   9.731  0.0374 -0.1134 -1.4954
 9296SOL     OW45497  12.121  12.896   1.804 -0.0634  0.7847  0.2667
 9296SOL    HW145498  12.114  12.816   1.750  0.7519  0.3131  0.8382
 9296SOL    HW245499  12.168  12.867   1.882  0.0655  1.7970  0.5663
 9297SOL     OW45500   8.303   1.642  10.826  0.0836 -0.3750 -0.5069
 9297SOL    HW145501   8.263   1.632  10.740  1.5595 -0.5652 -1.1965
 9297SOL    HW245502   8.370   1.709  10.815  0.4145 -0.5264  0.4376
 9298SOL     OW45503  12.909   9.803   2.810 -0.0203  0.3662  0.3781
 9298SOL    HW145504  12.850   9.873   2.838 -0.1900  0.7667 -0.8960
 9298SOL    HW245505  12.921   9.819   2.716  0.7790 -0.7027  0.2865
 9299SOL     OW45506   5.569  13.887   8.632  0.8684  0.2888 -0.5924
 9299SOL    HW145507   5.555  13.911   8.724 -1.1621 -0.2249 -0.7019
 9299SOL    HW245508   5.600  13.967   8.590 -0.6211  1.2573  0.0712
 9300SOL     OW45509   2.274   4.938   1.799 -0.3107  0.4282 -0.1566
 9300SOL    HW145510   2.368   4.924   1.784  0.2287 -0.5257  3.2015
 9300SOL    HW245511   2.252   5.014   1.746  2.2012  0.3218 -1.5113
 9301SOL     OW45512   0.768   7.921   1.460  0.0159  0.1553  0.3669
 9301SOL    HW145513   0.847   7.969   1.434 -0.4779  0.3175 -0.8670
 9301SOL    HW245514   0.750   7.863   1.386 -0.7615 -0.2177  0.8430
 9302SOL     OW45515  13.821   6.810   9.018  0.0854  0.1165  0.2063
 9302SOL    HW145516  13.897   6.815   8.961 -0.7388  0.0176 -0.9311
 9302SOL    HW245517  13.793   6.719   9.013 -0.8784  0.4365 -0.4277
 9303SOL     OW45518   0.889   1.268   2.262 -0.5761 -0.2331  0.2019
 9303SOL    HW145519   0.961   1.300   2.207 -0.3934  1.3102  1.2790
 9303SOL    HW245520   0.884   1.175   2.243  1.1000 -0.1932 -0.6029
 9304SOL     OW45521   7.093  12.979   0.942  0.2298  0.3738 -0.4036
 9304SOL    HW145522   7.103  13.066   0.903 -0.9370  0.3569 -0.7990
 9304SOL    HW245523   7.181  12.953   0.965  0.5937  1.7401 -0.1241
 9305SOL     OW45524  13.500   6.495   0.739  0.7737  0.0297  0.6027
 9305SOL    HW145525  13.495   6.418   0.681 -0.2323 -0.8076  1.7517
 9305SOL    HW245526  13.572   6.475   0.799 -0.4451 -0.7206  1.8480
 9306SOL     OW45527   2.005  11.782   2.020  0.1784 -0.3361 -0.2263
 9306SOL    HW145528   2.035  11.772   2.110 -1.1221  0.1748  0.2966
 9306SOL    HW245529   1.958  11.866   2.020 -0.6957 -0.8028 -1.1229
 9307SOL     OW45530  12.359  10.578   5.038 -0.0820 -0.2999 -0.0909
 9307SOL    HW145531  12.293  10.519   5.002 -0.4341 -1.1162  1.7830
 9307SOL    HW245532  12.310  10.657   5.064 -0.0034 -0.1423 -0.4150
 9308SOL     OW45533   6.637   8.778   8.201  0.1448  0.2295 -0.2928
 9308SOL    HW145534   6.560   8.835   8.204  1.4113  2.0491 -0.6660
 9308SOL    HW245535   6.679   8.790   8.286 -0.0667 -0.9464  0.0049
 9309SOL     OW45536   9.721  14.022   1.735  0.4895 -0.6551 -0.2470
 9309SOL    HW145537   9.653  14.089   1.729  0.9349 -0.2550 -0.9230
 9309SOL    HW245538   9.759  14.036   1.822 -1.0065 -1.6082  0.6114
 9310SOL     OW45539   6.769  11.479  11.902 -0.5265  0.4309  0.4024
 9310SOL    HW145540   6.836  11.456  11.966 -0.5357 -1.7038 -0.2677
 9310SOL    HW245541   6.718  11.399  11.890 -0.3720  0.6256 -2.4186
 9311SOL     OW45542   4.519   5.915   9.662 -0.4734  0.5869  0.4707
 9311SOL    HW145543   4.502   5.824   9.684 -0.5118  0.4291 -0.1683
 9311SOL    HW245544   4.445   5.963   9.699 -1.0062  0.2224 -0.0941
 9312SOL     OW45545  10.836   7.225  11.125  0.4595 -0.5441 -0.2701
 9312SOL    HW145546  10.838   7.319  11.141 -1.1882 -0.6782  0.9541
 9312SOL    HW245547  10.917   7.207  11.077  0.7805  1.4866 -0.5578
 9313SOL     OW45548   2.530   4.964   2.813  0.0243 -0.0571 -0.9314
 9313SOL    HW145549   2.556   4.874   2.793  0.4724  0.2128 -1.6074
 9313SOL    HW245550   2.579   4.986   2.892 -0.4050 -0.5423 -0.5251
 9314SOL     OW45551   8.879  12.686   9.979 -0.1722  0.4065 -0.5131
 9314SOL    HW145552   8.866  12.710  10.071 -2.8911 -1.7213 -0.2149
 9314SOL    HW245553   8.933  12.607   9.982  0.3105  0.7231 -0.8063
 9315SOL     OW45554   8.719   0.049   4.778  0.2895  0.2216  0.4659
 9315SOL    HW145555   8.806   0.083   4.797  0.2671 -0.3209  1.5824
 9315SOL    HW245556   8.728  -0.046   4.784  0.0721  0.0475 -1.4329
 9316SOL     OW45557  12.059  10.747   2.337  0.1671  0.8021  0.0545
 9316SOL    HW145558  12.124  10.767   2.270  0.9765 -2.1316 -0.1628
 9316SOL    HW245559  12.109  10.733   2.417 -0.4683  1.0332  0.5058
 9317SOL     OW45560   9.340   6.342  13.625  0.1210  0.5738 -0.3590
 9317SOL    HW145561   9.317   6.388  13.706 -0.7020  2.2989 -1.5235
 9317SOL    HW245562   9.433   6.321  13.636 -0.1687  0.0065  1.3686
 9318SOL     OW45563  13.384   4.666  13.627  0.5640 -0.4371 -0.2386
 9318SOL    HW145564  13.367   4.682  13.719 -1.0651 -0.6751 -0.4674
 9318SOL    HW245565  13.437   4.740  13.599 -1.2379  1.1445  0.2770
 9319SOL     OW45566  11.123   5.963   6.997  0.2738  0.3059 -0.6259
 9319SOL    HW145567  11.161   5.895   7.052  0.8397  0.2633 -1.0536
 9319SOL    HW245568  11.108   5.920   6.913  0.7983  0.7373 -0.9530
 9320SOL     OW45569   6.877   8.654   0.909  0.6488  0.5737 -0.3907
 9320SOL    HW145570   6.875   8.747   0.887 -0.0209  0.1604 -2.3008
 9320SOL    HW245571   6.786   8.625   0.896  0.5828 -0.1300  1.3386
 9321SOL     OW45572   1.367   1.802  10.692 -0.1076  0.3906 -0.2447
 9321SOL    HW145573   1.339   1.858  10.619  0.0734  1.5860  0.5599
 9321SOL    HW245574   1.321   1.838  10.768 -0.8809 -1.3064  0.1291
 9322SOL     OW45575  10.472   5.452   3.916 -0.3521  0.1694  0.2438
 9322SOL    HW145576  10.537   5.523   3.912  0.1405 -0.2438  0.7231
 9322SOL    HW245577  10.424   5.459   3.833 -0.4176  1.1567  0.3523
 9323SOL     OW45578   8.874   8.481   5.279 -0.3723 -0.6431 -0.0668
 9323SOL    HW145579   8.859   8.399   5.232 -2.9208 -0.7232  0.7458
 9323SOL    HW245580   8.969   8.484   5.291 -0.2172 -3.9302  0.6734
 9324SOL     OW45581   7.781   9.577   6.597 -0.0994  0.1530  0.2853
 9324SOL    HW145582   7.691   9.569   6.627  0.3068  0.2141  1.5669
 9324SOL    HW245583   7.823   9.497   6.628  0.2766  0.0914 -0.3696
 9325SOL     OW45584   8.645   4.001   7.846  0.3529 -0.2407  0.1245
 9325SOL    HW145585   8.735   3.988   7.875  0.2967  0.0404  0.4286
 9325SOL    HW245586   8.644   4.089   7.810  0.7602 -1.0550 -2.0354
 9326SOL     OW45587   3.786   5.602  11.123  0.0201 -0.1744  0.2374
 9326SOL    HW145588   3.773   5.547  11.200 -1.9872 -1.1713 -0.7326
 9326SOL    HW245589   3.756   5.548  11.050  1.8278  0.7515 -1.2714
 9327SOL     OW45590   5.918   6.184   1.367 -0.2053  0.2018  0.7170
 9327SOL    HW145591   5.910   6.109   1.307  0.5496 -0.4127  1.3657
 9327SOL    HW245592   5.972   6.247   1.320  0.8521 -0.5085  0.9512
 9328SOL     OW45593   4.066   4.083  10.407  0.6485 -0.1041 -0.2529
 9328SOL    HW145594   4.161   4.084  10.396  0.6048 -0.9969 -0.7633
 9328SOL    HW245595   4.032   4.116  10.324  0.4967  0.0727 -0.1231
 9329SOL     OW45596   0.510   7.423   4.087 -0.3696 -0.0353  0.3045
 9329SOL    HW145597   0.443   7.490   4.075 -0.0969  0.0963 -0.6231
 9329SOL    HW245598   0.529   7.423   4.180 -2.1423 -0.5453  0.7059
 9330SOL     OW45599   9.621  13.343   8.971 -0.3159 -0.2351  0.0706
 9330SOL    HW145600   9.562  13.347   8.895  1.4979  3.1499 -1.3629
 9330SOL    HW245601   9.600  13.420   9.023  0.9789 -0.4777  1.0155
 9331SOL     OW45602   2.684  11.117   8.430  0.6585 -0.4018  0.1877
 9331SOL    HW145603   2.771  11.125   8.392  0.7073  1.6666  0.6303
 9331SOL    HW245604   2.643  11.045   8.382  2.3553 -0.9437 -0.4969
 9332SOL     OW45605  11.353  12.979  12.162  0.4034 -0.4078  0.1793
 9332SOL    HW145606  11.316  13.046  12.220  1.3296  1.3180 -1.1223
 9332SOL    HW245607  11.447  12.984  12.176  0.4552 -2.0254  0.6135
 9333SOL     OW45608  12.857   0.164  14.031 -0.3852 -0.4569  0.4643
 9333SOL    HW145609  12.833   0.236  13.973  1.6885  0.8439  1.0932
 9333SOL    HW245610  12.923   0.115  13.983 -1.3275 -1.5958  0.2958
 9334SOL     OW45611   7.642  12.143  10.311 -0.1572 -0.2163 -0.3549
 9334SOL    HW145612   7.674  12.232  10.318 -0.2959 -0.1682 -0.3296
 9334SOL    HW245613   7.565  12.149  10.254 -1.1493 -0.0623  0.9438
 9335SOL     OW45614  10.408  11.358  11.551 -0.0937  0.1134 -0.3507
 9335SOL    HW145615  10.334  11.299  11.537 -0.0043 -0.4526  1.2819
 9335SOL    HW245616  10.480  11.318  11.500 -0.0539 -1.1927  0.6738
 9336SOL     OW45617   6.136   8.040   7.587 -1.3082  0.3883  0.2913
 9336SOL    HW145618   6.156   8.086   7.669 -1.8531 -0.0061  0.6533
 9336SOL    HW245619   6.050   8.001   7.602 -1.6095  0.6839 -0.6437
 9337SOL     OW45620   3.747   5.858   3.454 -0.2842 -0.1642  0.3317
 9337SOL    HW145621   3.687   5.797   3.411 -0.4091 -0.4925  0.9510
 9337SOL    HW245622   3.705   5.944   3.445 -0.0664 -0.1461 -0.6156
 9338SOL     OW45623   7.006   0.459  11.319 -0.4185  0.7776  0.6829
 9338SOL    HW145624   7.066   0.425  11.252 -1.4152  0.1153  0.1099
 9338SOL    HW245625   6.987   0.384  11.375 -0.7395  0.9803  0.8457
 9339SOL     OW45626   8.597   6.181   0.175  0.6007  0.2122 -0.0225
 9339SOL    HW145627   8.529   6.248   0.173  0.2861  0.0408  2.1847
 9339SOL    HW245628   8.674   6.225   0.137 -0.1412  1.1403 -0.4961
 9340SOL     OW45629   7.985   2.229   3.416 -0.2388 -0.4737  0.0429
 9340SOL    HW145630   7.977   2.297   3.349 -2.4266 -0.1209  0.5845
 9340SOL    HW245631   8.012   2.276   3.495 -0.8097 -0.3735  0.1818
 9341SOL     OW45632   6.172   9.488   3.096 -0.2161 -0.0848 -0.3068
 9341SOL    HW145633   6.116   9.527   3.163 -3.1960 -0.2421 -2.5224
 9341SOL    HW245634   6.219   9.418   3.142 -0.6710  1.0508  1.9965
 9342SOL     OW45635   0.927   7.850   5.400  0.4395 -0.0550 -0.2470
 9342SOL    HW145636   1.003   7.847   5.342 -0.4299 -3.5493 -1.4273
 9342SOL    HW245637   0.852   7.838   5.342 -0.7871  0.1853  1.2256
 9343SOL     OW45638   4.451   1.848   8.367 -0.7353  0.2138 -0.4676
 9343SOL    HW145639   4.431   1.906   8.440  0.9410 -1.9351  1.8679
 9343SOL    HW245640   4.372   1.851   8.312 -2.0323  2.0058  1.3184
 9344SOL     OW45641   9.260   4.088   0.695  0.5371 -0.1124  0.2501
 9344SOL    HW145642   9.290   3.997   0.689 -0.2304 -0.4251  0.9559
 9344SOL    HW245643   9.329   4.133   0.743  1.6348  0.0331 -1.3827
 9345SOL     OW45644  12.344   6.692   9.877  0.8752  0.3590 -0.1014
 9345SOL    HW145645  12.389   6.748   9.941 -1.0251  1.5225  0.3077
 9345SOL    HW245646  12.260   6.736   9.862  0.7533 -0.5575 -2.4791
 9346SOL     OW45647   9.330  14.046  13.233 -0.2380 -0.2393 -0.5543
 9346SOL    HW145648   9.298  14.056  13.144 -0.4766  0.1728 -0.4244
 9346SOL    HW245649   9.361  14.133  13.258 -0.7531 -0.2055 -0.0146
 9347SOL     OW45650   7.239  13.702   4.363  0.1035 -0.7113 -0.7144
 9347SOL    HW145651   7.296  13.712   4.439  0.5451 -0.5266 -1.0715
 9347SOL    HW245652   7.262  13.616   4.327  0.0792 -0.6821 -0.7988
 9348SOL     OW45653  12.514  11.110   3.044 -0.3316  0.1291 -0.3774
 9348SOL    HW145654  12.567  11.030   3.046 -0.2516  0.1840 -0.3324
 9348SOL    HW245655  12.424  11.079   3.035 -0.3695  0.0141  0.4026
 9349SOL     OW45656   9.740  13.746   7.187 -0.5739 -0.7416  0.1866
 9349SOL    HW145657   9.690  13.664   7.188 -1.4475 -0.2218 -0.1206
 9349SOL    HW245658   9.675  13.815   7.199  0.1031 -0.0560  0.0491
 9350SOL     OW45659   2.269   3.023  13.318 -0.0351  0.1386  0.1993
 9350SOL    HW145660   2.246   3.091  13.254  0.5780  0.0352 -0.1367
 9350SOL    HW245661   2.282   2.944  13.265  0.3147  0.0118  0.4724
 9351SOL     OW45662   6.840   9.790  14.080 -0.5749  0.7158 -0.5634
 9351SOL    HW145663   6.765   9.825  14.127  0.1403  1.3523  0.1513
 9351SOL    HW245664   6.835   9.695  14.093 -0.0351  0.9009  1.4387
 9352SOL     OW45665   4.903   0.283  10.699  1.0894 -0.0812 -0.1110
 9352SOL    HW145666   4.982   0.336  10.693  0.1573  1.5909  1.4694
 9352SOL    HW245667   4.831   0.344  10.684  0.0170 -1.1797  0.3599
 9353SOL     OW45668   2.160   4.381   3.168 -0.1892  0.0784 -0.6003
 9353SOL    HW145669   2.103   4.457   3.151  1.0928  0.7510 -2.1423
 9353SOL    HW245670   2.184   4.349   3.081  0.3575 -1.3082  0.0285
 9354SOL     OW45671   3.774  12.764   4.320 -0.0249 -0.5308 -0.0054
 9354SOL    HW145672   3.725  12.700   4.370  1.0581 -0.6369  0.9782
 9354SOL    HW245673   3.709  12.827   4.290 -0.5902  0.3241  2.7385
 9355SOL     OW45674   2.458  10.804   1.655  0.1118 -0.3870 -0.7891
 9355SOL    HW145675   2.521  10.734   1.643  0.5078  0.0901 -1.5699
 9355SOL    HW245676   2.426  10.823   1.567  0.2864  0.6532 -0.6411
 9356SOL     OW45677  13.257   3.098  14.000 -0.0957 -0.5262  0.1076
 9356SOL    HW145678  13.305   3.040  13.942 -1.7203 -0.4376 -1.3878
 9356SOL    HW245679  13.231   3.042  14.073 -0.2472 -1.2772 -0.5099
 9357SOL     OW45680   1.868   7.849  12.645  0.6154 -0.6795 -0.5460
 9357SOL    HW145681   1.949   7.900  12.638 -0.4636  1.7966  2.5199
 9357SOL    HW245682   1.869   7.815  12.735 -2.0442  0.1238 -0.1255
 9358SOL     OW45683  10.643   2.858   0.741  0.2011 -0.2291 -0.1323
 9358SOL    HW145684  10.663   2.800   0.668 -0.9712  0.1827 -0.8073
 9358SOL    HW245685  10.729   2.888   0.772  0.6962  0.1302 -1.7723
 9359SOL     OW45686   2.582   7.233  10.557 -0.1134  0.2123  0.2785
 9359SOL    HW145687   2.637   7.302  10.594 -1.1219  0.9628  0.4030
 9359SOL    HW245688   2.630   7.152  10.576  0.9741  0.8449  0.3245
 9360SOL     OW45689   0.227   7.414  11.995  0.5643 -0.4018  0.5439
 9360SOL    HW145690   0.299   7.411  12.058  0.3010 -0.8165  0.8361
 9360SOL    HW245691   0.152   7.445  12.045  0.6053  0.3127  0.1702
 9361SOL     OW45692  13.271   5.302  10.294 -0.3211 -0.2345  0.3760
 9361SOL    HW145693  13.265   5.367  10.364 -1.4055 -2.1935  2.2513
 9361SOL    HW245694  13.318   5.228  10.335 -0.7196 -1.3284 -1.0709
 9362SOL     OW45695   9.928   1.836   2.639  0.1594 -0.1343  0.8616
 9362SOL    HW145696   9.865   1.780   2.594 -1.3015  1.5319  0.7452
 9362SOL    HW245697  10.001   1.777   2.660 -0.5808 -1.6969 -0.6789
 9363SOL     OW45698  10.701   6.818   3.381  0.3213 -0.4353  0.1237
 9363SOL    HW145699  10.637   6.769   3.329 -1.7192  0.1247  1.9453
 9363SOL    HW245700  10.763   6.852   3.317 -1.3893 -0.7593 -1.7981
 9364SOL     OW45701   7.513  12.825   9.831  0.0540  0.0401  0.2418
 9364SOL    HW145702   7.493  12.788   9.745  1.4784  0.1360 -0.1619
 9364SOL    HW245703   7.468  12.910   9.831  0.5801  0.3417 -0.7056
 9365SOL     OW45704  11.438   0.406   0.523  0.3677  0.2431  0.4717
 9365SOL    HW145705  11.343   0.410   0.525  0.4051  1.2764  1.0626
 9365SOL    HW245706  11.464   0.405   0.615  0.9204 -0.4543  0.3153
 9366SOL     OW45707   5.317  13.227   4.997  0.1109  0.0908 -0.3033
 9366SOL    HW145708   5.307  13.264   5.084 -0.7513 -0.7108 -0.0492
 9366SOL    HW245709   5.388  13.164   5.006 -0.3134 -0.3592 -0.0459
 9367SOL     OW45710   2.309   7.298   1.906  0.2227  0.2567 -0.2870
 9367SOL    HW145711   2.290   7.390   1.890 -0.4315 -0.1239 -2.0655
 9367SOL    HW245712   2.390   7.298   1.956 -0.1756  1.8046  0.4165
 9368SOL     OW45713  13.062   3.989  11.280 -0.0088 -0.0001  0.2431
 9368SOL    HW145714  13.078   3.931  11.205  0.9887  0.1605  0.3160
 9368SOL    HW245715  12.971   4.016  11.270 -0.6446 -1.9200  0.4572
 9369SOL     OW45716   0.655  11.268  12.462 -0.0563 -0.2466  0.8162
 9369SOL    HW145717   0.667  11.363  12.460 -1.7909  0.0118  0.8221
 9369SOL    HW245718   0.708  11.236  12.389 -4.0588  1.4468 -3.3616
 9370SOL     OW45719   3.158   8.302   9.307 -0.0426  0.2112  0.4294
 9370SOL    HW145720   3.110   8.219   9.311  1.7386 -0.8594  0.7366
 9370SOL    HW245721   3.154   8.327   9.215  0.9125 -1.1981 -0.0347
 9371SOL     OW45722  10.766   7.321  12.486 -0.2604 -0.2197 -0.2641
 9371SOL    HW145723  10.712   7.318  12.408  0.7658 -0.7622 -0.9772
 9371SOL    HW245724  10.809   7.236  12.489  2.6109  1.0556 -1.2677
 9372SOL     OW45725  13.856   8.575   1.117 -0.1636 -0.1232 -0.2347
 9372SOL    HW145726  13.822   8.649   1.068 -0.0043  0.2771  0.2548
 9372SOL    HW245727  13.782   8.547   1.172 -0.3435 -0.5725 -0.7015
 9373SOL     OW45728   9.295  13.118  13.862  0.0399  0.4483 -0.4619
 9373SOL    HW145729   9.292  13.207  13.828 -2.8694  1.0023  0.9509
 9373SOL    HW245730   9.209  13.082  13.844  0.1338 -1.0179  1.6118
 9374SOL     OW45731   1.803   5.792  11.168 -0.0808  0.0126  0.1646
 9374SOL    HW145732   1.891   5.756  11.153 -0.8316 -2.3971  1.1548
 9374SOL    HW245733   1.806   5.825  11.257  0.0498  0.7796 -0.1124
 9375SOL     OW45734  13.924   7.447  10.886  0.2147  0.5286 -0.0351
 9375SOL    HW145735  13.961   7.363  10.913 -2.7619 -1.0707 -0.5747
 9375SOL    HW245736  13.989   7.482  10.825  1.7582 -1.1390  0.5528
 9376SOL     OW45737   1.574   5.365  12.768  0.0338  0.4696  0.2981
 9376SOL    HW145738   1.645   5.329  12.822  1.0025  1.5161 -0.2200
 9376SOL    HW245739   1.494   5.344  12.815  0.5899 -1.7493  0.3324
 9377SOL     OW45740   0.483  12.498   3.053 -0.0319 -0.0120  0.0496
 9377SOL    HW145741   0.566  12.545   3.048 -0.1835  0.1634 -1.2346
 9377SOL    HW245742   0.483  12.442   2.975 -0.3830 -1.2799  0.9179
 9378SOL     OW45743   8.572  13.375   1.129 -0.4226  0.1884 -0.3366
 9378SOL    HW145744   8.561  13.316   1.204  0.6872 -0.0892 -0.3729
 9378SOL    HW245745   8.578  13.317   1.053  0.9924  0.2948 -0.3383
 9379SOL     OW45746  10.250   6.336  12.598 -0.0625 -0.0710  0.3161
 9379SOL    HW145747  10.258   6.378  12.684 -2.4815  0.6074  0.2722
 9379SOL    HW245748  10.216   6.248  12.617 -1.5658  0.4261  0.0350
 9380SOL     OW45749   4.657   0.751   0.585  0.0474  0.2577  0.0291
 9380SOL    HW145750   4.610   0.688   0.530  1.0936  0.9727 -1.7885
 9380SOL    HW245751   4.749   0.729   0.572  0.3443  0.7747  1.1432
 9381SOL     OW45752  13.538  13.864   7.292  0.0973 -0.3882 -0.1634
 9381SOL    HW145753  13.477  13.935   7.274 -0.8723 -0.9202  0.9088
 9381SOL    HW245754  13.604  13.871   7.224 -0.7668  0.6510 -0.9184
 9382SOL     OW45755   1.437   9.421   1.528  0.0734  0.6266  0.3371
 9382SOL    HW145756   1.514   9.363   1.536 -0.8055 -0.3825  1.9004
 9382SOL    HW245757   1.473   9.509   1.537  1.0574  0.1818  0.9653
 9383SOL     OW45758   0.239   0.218   2.331  0.1829  0.3736  0.0702
 9383SOL    HW145759   0.243   0.123   2.339 -0.6244 -0.1908 -3.9094
 9383SOL    HW245760   0.162   0.235   2.277 -0.1769  3.4184  1.3058
 9384SOL     OW45761  10.049  10.615   3.995  0.2056 -0.1793 -0.2324
 9384SOL    HW145762   9.981  10.650   3.936  0.1693  0.5462  0.2256
 9384SOL    HW245763  10.024  10.524   4.009 -1.5307  0.4449  1.1070
 9385SOL     OW45764   4.384  12.872   2.177 -0.1622 -0.3924  0.1831
 9385SOL    HW145765   4.329  12.949   2.183  0.5301  0.1057  0.2579
 9385SOL    HW245766   4.404  12.863   2.084  0.4415  0.0198  0.2652
 9386SOL     OW45767   0.913  11.312   4.596 -0.1529 -0.2731  0.6698
 9386SOL    HW145768   0.890  11.352   4.680  0.2837  0.4300  0.4614
 9386SOL    HW245769   0.858  11.358   4.532  2.6904  2.4722 -0.0515
 9387SOL     OW45770   1.369   6.420   5.703 -0.1155 -0.0720  0.0479
 9387SOL    HW145771   1.401   6.482   5.638 -2.0836  0.7862 -0.1728
 9387SOL    HW245772   1.429   6.345   5.696  1.8273  1.4469 -0.2250
 9388SOL     OW45773  11.543   6.326  11.242 -0.2646 -0.1087  0.6276
 9388SOL    HW145774  11.508   6.248  11.284 -1.9379 -0.0725 -0.5922
 9388SOL    HW245775  11.599   6.293  11.172 -0.1934 -0.1974  0.7261
 9389SOL     OW45776  11.023   6.598   4.240  0.1039 -0.1392  0.3795
 9389SOL    HW145777  11.113   6.572   4.223  0.0333 -0.0961 -0.0768
 9389SOL    HW245778  11.001   6.555   4.323  1.1071  1.2586  1.4141
 9390SOL     OW45779   5.763   4.404   8.001 -0.6145  0.2097  0.3033
 9390SOL    HW145780   5.858   4.417   7.990 -0.0568  1.2613  4.5151
 9390SOL    HW245781   5.725   4.489   7.979 -0.3527  0.3559  0.4005
 9391SOL     OW45782  11.810   2.092  11.528  0.7043 -0.0305 -0.8834
 9391SOL    HW145783  11.890   2.106  11.578 -0.2826  0.3149  0.6894
 9391SOL    HW245784  11.779   2.179  11.505  0.2988 -0.1069 -0.6499
 9392SOL     OW45785   5.821   4.745   4.368 -1.0318 -0.6688  0.1340
 9392SOL    HW145786   5.845   4.698   4.288 -1.3928 -0.1498 -0.2872
 9392SOL    HW245787   5.726   4.755   4.361 -0.6920  2.9056 -1.3910
 9393SOL     OW45788  10.722   7.186   0.142 -0.1344  0.1997  0.1370
 9393SOL    HW145789  10.646   7.128   0.136  0.0918  0.0163 -1.5491
 9393SOL    HW245790  10.704   7.241   0.218 -2.1439  0.4016 -0.4153
 9394SOL     OW45791   2.056   3.001   3.737 -0.2721  0.1145 -0.2874
 9394SOL    HW145792   2.096   2.930   3.788  1.5953 -1.0807 -3.1635
 9394SOL    HW245793   1.967   2.969   3.718  0.5702 -1.6276 -1.6349
 9395SOL     OW45794   7.647   2.184   1.285  0.1211  0.8232 -0.4008
 9395SOL    HW145795   7.624   2.270   1.321  0.9459  1.1228 -0.5729
 9395SOL    HW245796   7.638   2.194   1.190  0.5537  0.8290 -0.4453
 9396SOL     OW45797   7.040   1.133   4.964 -0.3044 -0.4218 -0.3022
 9396SOL    HW145798   7.123   1.107   5.004 -0.7116  0.2773  1.0969
 9396SOL    HW245799   7.060   1.147   4.872  0.8127 -1.6030 -0.2593
 9397SOL     OW45800  13.523   2.847   8.481  0.7474 -0.1305 -0.3083
 9397SOL    HW145801  13.610   2.871   8.450  2.1276 -3.8665  0.1804
 9397SOL    HW245802  13.526   2.864   8.575  1.3330 -1.1539 -0.1313
 9398SOL     OW45803   9.434   4.038  12.006  0.2816  0.6269  0.3998
 9398SOL    HW145804   9.360   4.020  12.064  0.4642  1.8774  1.0464
 9398SOL    HW245805   9.508   4.051  12.066  0.5583  1.5281 -0.1315
 9399SOL     OW45806   3.629   1.020  13.697 -0.2771  0.1846  0.1332
 9399SOL    HW145807   3.538   0.996  13.683 -1.1795  1.1329  3.3856
 9399SOL    HW245808   3.679   0.947  13.660 -2.4507 -1.3857  0.0901
 9400SOL     OW45809   8.283   3.178   9.888 -0.0694  0.0583 -0.1193
 9400SOL    HW145810   8.347   3.233   9.842 -0.2423  0.6207  0.3103
 9400SOL    HW245811   8.228   3.142   9.818  0.8482 -0.6197 -0.5230
 9401SOL     OW45812   8.526  11.346   8.399 -0.3542 -0.1540 -0.4812
 9401SOL    HW145813   8.465  11.356   8.326 -0.5289  1.4803 -0.1499
 9401SOL    HW245814   8.510  11.423   8.454 -0.3484 -1.4063  1.3811
 9402SOL     OW45815   0.693   4.394   1.075 -0.3739  0.1397  0.2929
 9402SOL    HW145816   0.668   4.340   1.150 -1.6128  0.3856  0.0746
 9402SOL    HW245817   0.703   4.482   1.111 -1.3366  0.3316  0.1281
 9403SOL     OW45818   7.376   4.289   2.549  0.3687 -0.2964 -0.2345
 9403SOL    HW145819   7.430   4.313   2.625  0.1559  0.0333 -0.1859
 9403SOL    HW245820   7.288   4.316   2.573  0.5164  1.1226 -1.1597
 9404SOL     OW45821  13.828   7.166   3.486 -0.3566 -0.0412  0.6141
 9404SOL    HW145822  13.919   7.162   3.513  0.3433  0.6474 -1.4539
 9404SOL    HW245823  13.781   7.200   3.562  1.4095  1.5299  1.0546
 9405SOL     OW45824   3.523   9.586   2.595 -0.3704 -0.1982 -0.0431
 9405SOL    HW145825   3.455   9.520   2.607 -0.4213  0.0580  1.2673
 9405SOL    HW245826   3.605   9.536   2.595 -0.5281 -0.4791 -1.3574
 9406SOL     OW45827   1.260   3.770  12.058 -0.6426  0.0830 -0.4439
 9406SOL    HW145828   1.274   3.863  12.043  1.7840 -0.2340 -0.5936
 9406SOL    HW245829   1.304   3.753  12.142 -0.3787 -1.0588 -0.7998
 9407SOL     OW45830   2.571   1.720   8.107 -0.1422 -0.1210 -0.3044
 9407SOL    HW145831   2.590   1.760   8.192  0.2414  1.0570 -0.9219
 9407SOL    HW245832   2.477   1.731   8.095  0.0035  0.9553 -0.6144
 9408SOL     OW45833  11.259   9.795   5.286  0.6905 -0.1345 -0.6825
 9408SOL    HW145834  11.193   9.853   5.249  1.6056  0.5971 -1.2431
 9408SOL    HW245835  11.295   9.845   5.361  1.0530 -0.2334 -0.7862
 9409SOL     OW45836  13.707   1.103   7.347 -0.8437  0.4857  0.3477
 9409SOL    HW145837  13.740   1.069   7.430 -0.2089  1.0117  0.3174
 9409SOL    HW245838  13.648   1.035   7.315  0.5122 -0.6555  0.2023
 9410SOL     OW45839  12.724   5.006   2.381  0.5835 -0.0625  0.3490
 9410SOL    HW145840  12.661   5.073   2.410  0.2967  0.1655 -0.7484
 9410SOL    HW245841  12.801   5.056   2.353  0.1663 -0.1228 -0.9889
 9411SOL     OW45842  10.031   1.456   5.562 -0.1049  0.6887 -0.3549
 9411SOL    HW145843  10.032   1.545   5.595 -1.1900  0.6938 -0.3231
 9411SOL    HW245844   9.939   1.432   5.558  0.1374 -0.2114 -0.9610
 9412SOL     OW45845   1.214   5.731   8.023  0.5637  0.2553  0.4908
 9412SOL    HW145846   1.190   5.640   8.004  2.7885 -0.5923  1.3370
 9412SOL    HW245847   1.192   5.742   8.116 -2.1294  1.5100 -0.2025
 9413SOL     OW45848   1.177  13.882  11.031  0.6543 -0.2730 -0.0073
 9413SOL    HW145849   1.174  13.977  11.027  2.0040 -0.2637 -2.1592
 9413SOL    HW245850   1.165  13.853  10.940  0.2702 -2.1642  0.5940
 9414SOL     OW45851   2.243   3.427   2.099 -0.1397  0.1803 -0.0582
 9414SOL    HW145852   2.246   3.341   2.140  0.4938  1.3965  2.7411
 9414SOL    HW245853   2.335   3.453   2.091 -0.3039  0.4782 -1.2430
 9415SOL     OW45854   0.577   3.289   4.277  0.0401 -0.1402  0.1361
 9415SOL    HW145855   0.602   3.364   4.223 -0.4783  0.4912  0.7291
 9415SOL    HW245856   0.558   3.219   4.215 -1.3162  0.8008 -0.5604
 9416SOL     OW45857   0.935   2.828  11.841  0.6979  0.0289 -0.2157
 9416SOL    HW145858   0.974   2.750  11.880 -0.2380  0.1459  1.0031
 9416SOL    HW245859   0.977   2.902  11.885  1.2904  0.2155 -1.0776
 9417SOL     OW45860   0.741   3.091   7.991 -0.9607 -0.3647  0.1614
 9417SOL    HW145861   0.669   3.138   8.033 -1.6137 -0.5363 -0.7420
 9417SOL    HW245862   0.796   3.161   7.954 -1.3626 -0.2716 -0.2663
 9418SOL     OW45863   5.952   2.541   2.652  0.2323 -0.2467  0.5264
 9418SOL    HW145864   5.936   2.454   2.615  0.4738 -0.3598  0.6839
 9418SOL    HW245865   5.976   2.595   2.577  0.9579 -0.5349  0.5390
 9419SOL     OW45866   0.255  10.652  11.168  0.4483  0.1582  0.0581
 9419SOL    HW145867   0.234  10.745  11.165  1.4819  0.3895 -0.9486
 9419SOL    HW245868   0.342  10.648  11.209  0.5706 -0.3262 -0.2355
 9420SOL     OW45869  12.543  10.363   3.048 -0.3079 -0.3300 -0.2818
 9420SOL    HW145870  12.518  10.297   3.112 -2.2220  1.0472  0.4739
 9420SOL    HW245871  12.609  10.416   3.094 -1.5300  0.5349  0.5363
 9421SOL     OW45872   1.546   0.595   3.298 -0.0038  0.0443 -0.2586
 9421SOL    HW145873   1.635   0.598   3.330 -0.0497  0.7579 -0.1774
 9421SOL    HW245874   1.494   0.563   3.371  0.2141 -0.5767 -0.3754
 9422SOL     OW45875   3.881   6.884   0.988 -0.7522 -0.0945 -0.3235
 9422SOL    HW145876   3.859   6.926   0.905 -0.5286 -0.1503 -0.4110
 9422SOL    HW245877   3.811   6.911   1.048 -0.5284  0.5356 -0.3384
 9423SOL     OW45878  12.231  11.794   3.424  0.5398  0.2304  0.0736
 9423SOL    HW145879  12.216  11.815   3.332  1.1091  1.6634  0.2815
 9423SOL    HW245880  12.323  11.767   3.428  0.4413 -0.0994  0.1854
 9424SOL     OW45881   6.650   5.579  11.808 -0.3287 -0.2476 -0.5181
 9424SOL    HW145882   6.734   5.609  11.773 -0.1748 -0.0174  0.0355
 9424SOL    HW245883   6.673   5.531  11.888 -0.7555  0.1588 -0.1492
 9425SOL     OW45884  12.977   9.661   7.783 -0.1340  0.3555 -0.2950
 9425SOL    HW145885  13.040   9.684   7.715 -0.3213 -0.2051 -0.6588
 9425SOL    HW245886  13.020   9.591   7.833 -0.1548  0.5000 -0.0718
 9426SOL     OW45887   2.930  11.374  11.404  0.2249 -0.5398  0.3672
 9426SOL    HW145888   2.969  11.335  11.326 -0.7442  1.6535 -1.3232
 9426SOL    HW245889   2.999  11.370  11.470  0.7814 -3.2673 -0.2595
 9427SOL     OW45890   5.066   8.405  12.422 -0.1939  0.0609  0.1591
 9427SOL    HW145891   5.013   8.465  12.474  0.5584 -0.1556  1.2212
 9427SOL    HW245892   5.075   8.327  12.477 -0.0308 -0.4974 -0.6356
 9428SOL     OW45893   2.383  11.794  10.257  0.5059  0.0509 -0.5471
 9428SOL    HW145894   2.458  11.844  10.225  0.4000  0.0508 -0.7988
 9428SOL    HW245895   2.310  11.821  10.201 -0.1091  1.4188  0.8457
 9429SOL     OW45896   3.196   9.339   0.119 -0.2798  0.1112 -0.0605
 9429SOL    HW145897   3.243   9.422   0.109 -0.9112  0.4795  0.0096
 9429SOL    HW245898   3.260   9.281   0.160  0.5336  0.2269 -1.1205
 9430SOL     OW45899  11.987   7.798  11.245  0.1994  0.2955 -0.0509
 9430SOL    HW145900  12.027   7.856  11.311 -0.7700  0.2103  0.6287
 9430SOL    HW245901  11.895   7.793  11.271  0.0446 -0.6470 -0.7710
 9431SOL     OW45902   1.746   8.999  10.662  0.0377 -0.1270  0.6088
 9431SOL    HW145903   1.736   8.999  10.567 -0.3596 -0.9040  0.6378
 9431SOL    HW245904   1.840   9.007  10.677 -0.0156  1.4355  0.1849
 9432SOL     OW45905  10.854   2.781   1.036 -0.3589  0.5038 -0.1439
 9432SOL    HW145906  10.820   2.694   1.017  1.6171 -0.6285  1.1534
 9432SOL    HW245907  10.883   2.815   0.952  1.8297 -1.5072 -0.3230
 9433SOL     OW45908  14.038   7.468   1.910  0.5719 -0.3371  0.1147
 9433SOL    HW145909  14.032   7.502   1.820  0.8561 -1.2732 -0.2730
 9433SOL    HW245910  13.948   7.471   1.942  0.5424  0.4609 -0.0258
 9434SOL     OW45911   0.351   1.632   0.304 -0.1948  0.1419  0.5303
 9434SOL    HW145912   0.324   1.621   0.395 -1.1248  0.9709  0.3783
 9434SOL    HW245913   0.320   1.719   0.280  1.4158  0.5714 -0.1218
 9435SOL     OW45914   8.803   1.462   3.392 -0.6183  0.2694 -0.3252
 9435SOL    HW145915   8.818   1.373   3.424  0.4140  0.9229  1.1363
 9435SOL    HW245916   8.733   1.453   3.328  0.4433 -1.7881 -1.2891
 9436SOL     OW45917   2.732   6.398  10.055  0.2957  0.0388  0.6902
 9436SOL    HW145918   2.654   6.436  10.095 -1.4965 -1.5422 -1.0667
 9436SOL    HW245919   2.804   6.448  10.091 -1.6609  3.1093  0.6951
 9437SOL     OW45920   6.229  11.329  10.694 -0.3393 -0.4951 -0.1006
 9437SOL    HW145921   6.197  11.241  10.712 -2.4856  0.0841 -0.8324
 9437SOL    HW245922   6.152  11.385  10.700  0.7879  1.2077 -0.6108
 9438SOL     OW45923   7.509  12.380  13.086 -0.3368  0.1844 -0.0407
 9438SOL    HW145924   7.541  12.305  13.036 -0.7387 -0.9820  1.3920
 9438SOL    HW245925   7.427  12.405  13.042 -1.1577 -1.3930  0.5041
 9439SOL     OW45926   2.066   7.077   3.855  0.0613  0.0334  0.1953
 9439SOL    HW145927   2.015   7.057   3.776 -0.6284  0.6329  0.4789
 9439SOL    HW245928   2.009   7.133   3.907  0.6431 -0.0790  0.9728
 9440SOL     OW45929  14.053   5.208   8.035 -0.2966  0.0513  0.2773
 9440SOL    HW145930  14.094   5.265   7.970 -2.1216 -1.6597 -2.5895
 9440SOL    HW245931  14.096   5.123   8.024  0.4356  0.0633  2.5023
 9441SOL     OW45932   8.436  10.616   3.371 -0.4706 -0.0383  0.0874
 9441SOL    HW145933   8.402  10.598   3.283 -2.0540  1.7604  0.2656
 9441SOL    HW245934   8.502  10.683   3.357  1.1333 -1.5613  0.0491
 9442SOL     OW45935  13.156   3.065   8.494 -0.2041 -0.3037  0.4009
 9442SOL    HW145936  13.129   2.974   8.481  1.7982 -0.9406  0.2670
 9442SOL    HW245937  13.241   3.058   8.538  0.0647  1.5022  0.2435
 9443SOL     OW45938   4.902   5.272   4.350 -0.1484  0.2856  0.1830
 9443SOL    HW145939   4.865   5.197   4.304 -0.5230  1.2674 -1.1802
 9443SOL    HW245940   4.830   5.335   4.357  1.1226  2.3297 -2.7510
 9444SOL     OW45941   1.559  13.691   6.412  0.4468  0.5405  0.2084
 9444SOL    HW145942   1.516  13.684   6.498 -1.1877 -0.4944 -0.6477
 9444SOL    HW245943   1.496  13.654   6.351  2.7234 -1.4253 -1.0861
 9445SOL     OW45944   0.218   5.167  12.691 -0.0964 -0.2330  0.6130
 9445SOL    HW145945   0.271   5.243  12.716  1.8094 -1.1407 -0.4656
 9445SOL    HW245946   0.234   5.157  12.597 -1.3566 -1.2107  0.4763
 9446SOL     OW45947  13.214  13.217   6.599 -0.3754  0.2234 -0.0851
 9446SOL    HW145948  13.261  13.247   6.521 -0.5760  3.1651  0.8203
 9446SOL    HW245949  13.122  13.230   6.577 -0.6067 -1.5439 -0.3046
 9447SOL     OW45950  11.369  11.327   5.428 -0.0051  0.0700 -0.5401
 9447SOL    HW145951  11.420  11.348   5.350  0.5863 -0.0118 -0.1779
 9447SOL    HW245952  11.428  11.346   5.501 -0.3606 -0.3867 -0.1297
 9448SOL     OW45953   8.681   1.313  11.212  0.3554  0.4010  0.0825
 9448SOL    HW145954   8.732   1.267  11.145 -0.0679 -0.7516  0.5238
 9448SOL    HW245955   8.709   1.274  11.295 -1.2857 -0.3314  0.3233
 9449SOL     OW45956   3.338   4.411   7.750 -0.1357  0.1099  0.3677
 9449SOL    HW145957   3.371   4.499   7.730  0.3430 -0.0326  0.5147
 9449SOL    HW245958   3.407   4.352   7.720 -0.8052 -0.2629 -0.4654
 9450SOL     OW45959   1.672   0.243   8.333 -0.3585 -0.1528 -0.0817
 9450SOL    HW145960   1.765   0.252   8.316  0.0071 -1.4014  1.0699
 9450SOL    HW245961   1.648   0.321   8.384  0.0109  0.2403 -0.5067
 9451SOL     OW45962   0.110  14.012   2.088 -0.2028 -0.1397  0.3748
 9451SOL    HW145963   0.109  13.930   2.137 -2.5405 -0.8088 -0.6936
 9451SOL    HW245964   0.051  14.069   2.136 -3.1381 -1.0476 -1.8845
 9452SOL     OW45965   8.167   3.522   7.149  0.2177  0.2349 -0.4332
 9452SOL    HW145966   8.189   3.614   7.133  3.1268  0.4436  3.3973
 9452SOL    HW245967   8.081   3.524   7.191 -0.7782  0.8889 -2.3769
 9453SOL     OW45968   3.385  11.664   6.342  0.3668 -0.5558 -0.6179
 9453SOL    HW145969   3.317  11.599   6.326 -0.0598 -0.1831 -0.3427
 9453SOL    HW245970   3.337  11.745   6.358  0.8885 -0.1881 -0.8762
 9454SOL     OW45971  13.178   8.767   3.693  0.3759  0.5795 -0.2491
 9454SOL    HW145972  13.118   8.693   3.683  0.8435  0.4610 -2.6685
 9454SOL    HW245973  13.265   8.727   3.691  0.6007  0.9975  0.7434
 9455SOL     OW45974   3.550  10.633   8.432  0.2820  0.1549  0.3161
 9455SOL    HW145975   3.615  10.579   8.477 -0.5897  0.6987  2.3733
 9455SOL    HW245976   3.511  10.576   8.367  1.7971 -0.6170  0.0545
 9456SOL     OW45977   4.922   1.355  12.435 -0.2681  0.4302 -0.1556
 9456SOL    HW145978   4.863   1.357  12.360  0.3490  1.8461 -0.6343
 9456SOL    HW245979   4.949   1.263  12.442  0.0563  0.3569 -1.9715
 9457SOL     OW45980   3.435   2.659  12.754  0.2061  0.1570  0.8314
 9457SOL    HW145981   3.370   2.729  12.753  1.0975  1.0229 -0.9994
 9457SOL    HW245982   3.519   2.705  12.749  0.8034 -1.0288 -0.7964
 9458SOL     OW45983   6.276  12.205   4.838  0.2753 -0.7114 -0.5303
 9458SOL    HW145984   6.277  12.124   4.888  0.8994  0.0896  0.8371
 9458SOL    HW245985   6.367  12.234   4.838  0.3413 -0.8358 -2.4301
 9459SOL     OW45986   9.271   3.094   6.064  0.0918 -0.5800 -0.7678
 9459SOL    HW145987   9.258   3.070   6.156 -1.2131 -1.1099 -1.0717
 9459SOL    HW245988   9.346   3.040   6.036  0.4638 -0.4530 -0.0400
 9460SOL     OW45989   0.537   2.037   2.770  0.6631  0.0204 -0.5696
 9460SOL    HW145990   0.506   2.128   2.769  0.0283 -0.1709  0.0826
 9460SOL    HW245991   0.596   2.033   2.845  0.6698 -0.1082 -0.5815
 9461SOL     OW45992   1.148  10.114   0.561  0.2704 -0.0075  0.4547
 9461SOL    HW145993   1.141  10.030   0.608 -0.4069  0.5740  1.4398
 9461SOL    HW245994   1.076  10.111   0.497 -0.0767  0.0318  0.8391
 9462SOL     OW45995   0.234   1.990  11.606 -0.1426 -0.1604  0.0766
 9462SOL    HW145996   0.161   1.966  11.662  0.8051 -0.7880  1.0776
 9462SOL    HW245997   0.258   2.078  11.634  1.1856 -0.9698  1.6474
 9463SOL     OW45998  11.051   1.790  11.555 -0.1540 -0.0464  0.1021
 9463SOL    HW145999  10.998   1.723  11.599 -0.7656  1.7958  2.3662
 9463SOL    HW246000  10.992   1.829  11.490 -1.3469  1.2587  1.8677
 9464SOL     OW46001   1.912   5.653  12.825 -0.1329  0.6062  0.2345
 9464SOL    HW146002   1.939   5.589  12.891  0.1115  1.2849  0.8001
 9464SOL    HW246003   1.984   5.654  12.762 -0.5502 -0.3485 -0.2910
 9465SOL     OW46004   4.333   7.117   1.800  0.2117 -0.0519  0.5117
 9465SOL    HW146005   4.300   7.161   1.722  0.0911  0.7683  1.0096
 9465SOL    HW246006   4.299   7.168   1.873 -1.3750 -1.9617  1.2031
 9466SOL     OW46007   4.096   3.830   9.832 -0.0058 -0.2186  0.3552
 9466SOL    HW146008   4.013   3.829   9.880 -0.8418  0.4011 -1.0127
 9466SOL    HW246009   4.098   3.916   9.790  1.7612  0.1228  1.0530
 9467SOL     OW46010   6.295   8.510   6.393  0.8546 -0.6618  0.2406
 9467SOL    HW146011   6.367   8.568   6.416 -0.2645  0.6910  0.4465
 9467SOL    HW246012   6.217   8.565   6.397  0.0169 -1.5690 -1.9525
 9468SOL     OW46013   1.519  12.231  10.437  0.6134 -0.4185 -0.1645
 9468SOL    HW146014   1.530  12.301  10.372 -0.3476  0.2503  0.3777
 9468SOL    HW246015   1.441  12.255  10.486 -0.0459 -2.1545 -0.3029
 9469SOL     OW46016  13.439  11.845   3.575  0.2923 -0.2490 -0.4410
 9469SOL    HW146017  13.368  11.810   3.629  0.3846  1.1134  0.6263
 9469SOL    HW246018  13.490  11.900   3.635  0.8550  0.7078 -1.7462
 9470SOL     OW46019   8.731  10.572   3.286  0.0174  0.1806  0.1773
 9470SOL    HW146020   8.769  10.515   3.352 -2.4096 -2.0045 -0.1419
 9470SOL    HW246021   8.718  10.656   3.331 -0.0760 -0.7524  1.9721
 9471SOL     OW46022   4.776  13.604   5.257 -0.5129  0.1463 -0.0950
 9471SOL    HW146023   4.712  13.668   5.287 -0.3677  1.3189 -2.0953
 9471SOL    HW246024   4.756  13.592   5.164  1.0703 -0.7663 -0.3536
 9472SOL     OW46025  12.671   6.619  11.961  0.3557  0.4035 -0.1672
 9472SOL    HW146026  12.704   6.616  11.871 -0.4226  0.8653 -0.4792
 9472SOL    HW246027  12.617   6.698  11.964 -1.7182 -0.9333 -0.0557
 9473SOL     OW46028  13.915  11.377   2.436  0.3286  0.4859 -0.5072
 9473SOL    HW146029  14.008  11.373   2.414  0.1712  0.0569 -1.1429
 9473SOL    HW246030  13.904  11.461   2.479  0.7680  1.1556 -1.6451
 9474SOL     OW46031   4.869   4.164  12.366  0.3035  0.3754 -0.4288
 9474SOL    HW146032   4.890   4.188  12.276 -0.6658  1.4110 -0.4056
 9474SOL    HW246033   4.777   4.139  12.364  0.4019 -0.0658  0.1859
 9475SOL     OW46034  10.630  10.847   8.390  0.2487  0.0131  0.1012
 9475SOL    HW146035  10.653  10.925   8.339 -0.3647 -1.1979 -2.1890
 9475SOL    HW246036  10.684  10.778   8.353  1.0573 -0.6305  2.3481
 9476SOL     OW46037   6.152  10.811   3.220  0.5672 -0.0478 -0.3345
 9476SOL    HW146038   6.162  10.742   3.154  1.1894  1.0267 -1.4072
 9476SOL    HW246039   6.241  10.846   3.231  0.2642  0.5696  0.1955
 9477SOL     OW46040   9.905   4.099  11.814 -0.4881  0.2919  0.0173
 9477SOL    HW146041   9.816   4.131  11.827 -1.4208 -2.5371  1.1809
 9477SOL    HW246042   9.928   4.127  11.725 -2.4965  1.1046 -0.2945
 9478SOL     OW46043   1.178   9.326   2.531  0.0204 -0.2672  0.4783
 9478SOL    HW146044   1.242   9.397   2.529 -1.5971  1.4433 -4.0712
 9478SOL    HW246045   1.209   9.264   2.465 -1.9282 -0.3834 -0.4016
 9479SOL     OW46046   2.602   8.354  13.345 -0.2689  0.4495 -0.4114
 9479SOL    HW146047   2.591   8.271  13.390 -2.5907  2.1407  2.5400
 9479SOL    HW246048   2.513   8.388  13.335  0.4651  1.8578 -3.0934
 9480SOL     OW46049   4.012   0.683  11.020  0.4707  0.3815  0.1148
 9480SOL    HW146050   4.056   0.606  10.985  3.6870  1.3882  1.5263
 9480SOL    HW246051   3.984   0.733  10.943 -0.9659 -1.7150 -0.8114
 9481SOL     OW46052   6.955   4.005   0.304  0.1409  0.0076 -0.1013
 9481SOL    HW146053   7.004   4.029   0.383  0.4213 -3.3252  0.8821
 9481SOL    HW246054   7.023   3.976   0.243 -0.2895 -0.4012 -0.3873
 9482SOL     OW46055   9.487   2.350   1.645  0.0563  0.1668  0.6902
 9482SOL    HW146056   9.476   2.445   1.649  1.0453  0.4449 -1.6433
 9482SOL    HW246057   9.429   2.322   1.574  0.6253 -0.8136  0.5906
 9483SOL     OW46058  13.270   3.838  10.402 -0.5959 -0.3283  0.1334
 9483SOL    HW146059  13.333   3.858  10.472  1.1241 -0.5306 -1.2900
 9483SOL    HW246060  13.307   3.762  10.357 -2.3817 -1.0617 -0.1680
 9484SOL     OW46061  11.642  12.450   7.677  0.0594 -0.1436 -0.1576
 9484SOL    HW146062  11.559  12.404   7.666  0.8942 -2.1248  1.1894
 9484SOL    HW246063  11.654  12.457   7.772  1.9314 -0.9383 -0.2845
 9485SOL     OW46064   9.461  14.069  10.503  0.5093 -0.2204  0.5469
 9485SOL    HW146065   9.485  14.097  10.592  2.3235 -0.9539  0.3338
 9485SOL    HW246066   9.498  14.137  10.446 -0.0721 -0.0991  0.3084
 9486SOL     OW46067   7.235   7.714   8.209  0.3363  0.0907 -0.4162
 9486SOL    HW146068   7.160   7.700   8.151 -0.5414  0.8075  0.5045
 9486SOL    HW246069   7.310   7.682   8.159 -0.6092 -0.9312 -1.2474
 9487SOL     OW46070  14.079   9.737   1.113 -0.3012 -0.0958 -0.1918
 9487SOL    HW146071  14.078   9.695   1.200 -1.7112 -0.8602 -0.5472
 9487SOL    HW246072  14.019   9.684   1.061  1.7247 -0.6052 -2.1262
 9488SOL     OW46073  10.790  10.925   1.932  0.6836 -0.0427 -0.0642
 9488SOL    HW146074  10.834  10.983   1.869  0.8140  0.2675  0.3088
 9488SOL    HW246075  10.853  10.855   1.948  0.8375  0.1239  0.0706
 9489SOL     OW46076   6.714  10.190   4.957  0.2199  0.6432  0.4211
 9489SOL    HW146077   6.740  10.126   5.023 -0.7451 -0.9858 -0.7232
 9489SOL    HW246078   6.618  10.185   4.956  0.1316  2.0114  0.1894
 9490SOL     OW46079   0.427  13.618   4.930  0.3457  0.2615  0.9121
 9490SOL    HW146080   0.507  13.661   4.960  0.2143  1.6641 -0.6426
 9490SOL    HW246081   0.418  13.644   4.838  0.6555 -3.6893 -0.4212
 9491SOL     OW46082   8.844   7.082   0.100  0.1958  0.6695  0.1563
 9491SOL    HW146083   8.782   7.035   0.155  1.5396  0.1938  1.3007
 9491SOL    HW246084   8.827   7.175   0.118 -0.2944  0.5508  0.3142
 9492SOL     OW46085  13.471   3.267  13.269  0.4810  0.0028 -0.2661
 9492SOL    HW146086  13.469   3.330  13.197 -0.2784  0.2958  0.0080
 9492SOL    HW246087  13.408   3.200  13.244  0.4559 -0.0637 -0.0252
 9493SOL     OW46088   6.310  14.018   0.603 -0.2279  0.5063  0.3850
 9493SOL    HW146089   6.250  14.050   0.670  0.3604  0.8306  0.7693
 9493SOL    HW246090   6.397  14.029   0.642  0.0783 -0.0423 -0.1218
 9494SOL     OW46091  10.741   2.077   2.731  0.7776 -0.4627  0.6909
 9494SOL    HW146092  10.725   2.090   2.825  1.3975 -1.2247  0.9126
 9494SOL    HW246093  10.769   1.986   2.724 -1.5790 -1.1595 -0.5425
 9495SOL     OW46094   3.860  10.364   1.414  0.9622 -0.2093 -0.1094
 9495SOL    HW146095   3.791  10.354   1.348  0.6084  2.1989 -0.2036
 9495SOL    HW246096   3.928  10.302   1.387 -0.9014 -2.3575 -0.2673
 9496SOL     OW46097   0.615  13.915   6.377  0.0810  0.0634 -0.3403
 9496SOL    HW146098   0.634  13.897   6.470 -0.0031  2.0504  0.1048
 9496SOL    HW246099   0.630  14.009   6.367 -3.7015  0.7470 -1.3674
 9497SOL     OW46100   0.205   9.390   8.673  0.5622  0.0233  0.1659
 9497SOL    HW146101   0.280   9.403   8.615  0.1229  0.5557 -0.3048
 9497SOL    HW246102   0.135   9.440   8.632 -0.4680 -1.6366 -0.2126
 9498SOL     OW46103   8.944   4.126   3.353 -0.4822  0.6116 -0.0648
 9498SOL    HW146104   8.931   4.035   3.325 -3.0218  0.1290  2.1202
 9498SOL    HW246105   8.990   4.119   3.437  1.3314  1.5340 -0.9490
 9499SOL     OW46106   6.535   0.560   9.813 -0.3635 -0.2228  0.0839
 9499SOL    HW146107   6.575   0.644   9.789  0.0979  0.2683  2.4078
 9499SOL    HW246108   6.608   0.504   9.838 -0.8676 -0.3233  1.3994
 9500SOL     OW46109   5.193  12.373   4.368 -0.2618 -0.0730  0.2423
 9500SOL    HW146110   5.185  12.347   4.460 -0.9647  0.8150  0.4528
 9500SOL    HW246111   5.173  12.294   4.318  0.8893 -0.7688  0.8481
 9501SOL     OW46112   4.477  12.248   2.824 -0.3231  0.5954  0.1971
 9501SOL    HW146113   4.512  12.159   2.821  0.4415  0.8915 -2.6522
 9501SOL    HW246114   4.537  12.296   2.881  0.5868 -0.2092 -0.0651
 9502SOL     OW46115   9.846  10.225   3.686  0.1406  0.0695 -0.3733
 9502SOL    HW146116   9.841  10.253   3.595 -0.6015 -0.1169 -0.3930
 9502SOL    HW246117   9.768  10.262   3.727  0.6823  0.5090  0.2933
 9503SOL     OW46118  10.092   1.451  10.258 -0.0281  0.0294  0.1669
 9503SOL    HW146119  10.047   1.472  10.176  0.3475 -1.2149 -0.3863
 9503SOL    HW246120  10.141   1.371  10.239 -0.8370 -0.9429  1.9248
 9504SOL     OW46121  12.861   1.171   3.645 -0.5458 -0.2074 -0.1548
 9504SOL    HW146122  12.879   1.262   3.621  1.0800 -0.1438  1.0875
 9504SOL    HW246123  12.789   1.177   3.708  0.2399  0.3529  0.7232
 9505SOL     OW46124  12.289  10.272   4.026  0.5210 -0.3830 -0.1007
 9505SOL    HW146125  12.219  10.297   3.966  0.8844 -0.3136 -0.4970
 9505SOL    HW246126  12.258  10.300   4.112  0.5944  0.7616 -0.4367
 9506SOL     OW46127   3.714   7.997   0.768 -0.2344 -0.2504  0.0395
 9506SOL    HW146128   3.785   7.940   0.739 -0.4754 -1.0671  1.0047
 9506SOL    HW246129   3.662   8.011   0.690  0.1922 -0.8229 -0.3605
 9507SOL     OW46130   1.749   2.097  10.084 -0.0587  0.4697 -0.1367
 9507SOL    HW146131   1.669   2.071  10.038 -0.4065 -3.9135  2.3965
 9507SOL    HW246132   1.810   2.025  10.070  2.2243  2.0825  0.8263
 9508SOL     OW46133   4.033   7.340  12.199 -0.2178 -0.0476 -0.7307
 9508SOL    HW146134   4.121   7.317  12.169 -0.1755  1.2827 -1.6832
 9508SOL    HW246135   3.974   7.291  12.142 -0.1065 -0.4501 -0.5036
 9509SOL     OW46136   9.255   3.446   4.979  0.0222  0.0985 -0.1651
 9509SOL    HW146137   9.333   3.394   5.001 -1.1389 -1.0416  1.4127
 9509SOL    HW246138   9.206   3.391   4.918 -0.2937  0.1639  0.0302
 9510SOL     OW46139   4.363  11.472   1.023  0.2092 -0.0518  0.3913
 9510SOL    HW146140   4.454  11.441   1.023  0.1072 -0.7375  3.8990
 9510SOL    HW246141   4.319  11.416   0.959  2.2882  0.5986 -1.7262
 9511SOL     OW46142   9.486   0.619  11.758  0.1947  0.2797 -0.0349
 9511SOL    HW146143   9.516   0.578  11.677  0.5226  0.3731  0.0363
 9511SOL    HW246144   9.565   0.629  11.810 -0.0617 -0.0649  0.4282
 9512SOL     OW46145   3.110   6.324   7.288  0.1004 -0.1699 -0.0390
 9512SOL    HW146146   3.051   6.392   7.254 -0.1276 -0.2726  0.1495
 9512SOL    HW246147   3.115   6.259   7.217 -1.9500 -1.3820  0.8387
 9513SOL     OW46148   2.582  14.085   0.798  0.4212 -0.8832 -0.2048
 9513SOL    HW146149   2.526  14.032   0.855  0.2728  1.0168  1.5484
 9513SOL    HW246150   2.524  14.114   0.727 -0.2565 -0.6632  0.4372
 9514SOL     OW46151   8.893   7.259  12.343 -0.0705 -0.7655  0.0549
 9514SOL    HW146152   8.938   7.183  12.380 -0.6770 -1.7379 -1.1391
 9514SOL    HW246153   8.913   7.254  12.249 -1.8508 -0.6616 -0.3492
 9515SOL     OW46154   4.191  13.183  10.516  0.1942  0.3187  0.3866
 9515SOL    HW146155   4.187  13.089  10.498 -2.2140  0.3339  0.4923
 9515SOL    HW246156   4.270  13.213  10.471  1.1427 -1.7691  0.5368
 9516SOL     OW46157   4.619   7.523   2.950  0.4221 -0.1376 -0.5981
 9516SOL    HW146158   4.651   7.612   2.937  0.9958 -0.1030  0.8711
 9516SOL    HW246159   4.582   7.524   3.038  0.2918 -1.3133 -0.6313
 9517SOL     OW46160  11.567   1.476  11.087  0.4550  0.2832 -0.5303
 9517SOL    HW146161  11.593   1.479  10.995 -0.4516  1.3990 -0.7821
 9517SOL    HW246162  11.630   1.532  11.132  0.7054 -0.0048 -0.5192
 9518SOL     OW46163   1.779   5.689   1.741 -0.1275 -0.0828 -0.1790
 9518SOL    HW146164   1.686   5.672   1.759  0.1585  0.1485  1.6745
 9518SOL    HW246165   1.816   5.714   1.826  1.5301  0.3419 -0.9884
 9519SOL     OW46166   6.171  11.000  14.063  0.3946 -0.6196  0.5022
 9519SOL    HW146167   6.207  10.912  14.048  0.0667 -1.0621  2.1133
 9519SOL    HW246168   6.145  11.000  14.155 -0.3130  0.9294  0.3372
 9520SOL     OW46169   6.796   5.283   0.657  0.3731  0.2156  0.4161
 9520SOL    HW146170   6.836   5.259   0.574  0.1888 -1.3563  0.7453
 9520SOL    HW246171   6.728   5.216   0.672  0.0197  0.7873  1.5525
 9521SOL     OW46172   7.014   3.902   6.218 -0.1433  0.3872  0.0487
 9521SOL    HW146173   7.086   3.848   6.251 -0.2991  0.2666  0.1984
 9521SOL    HW246174   7.032   3.912   6.125  1.7999  3.0265  0.5975
 9522SOL     OW46175  13.071   3.641   6.854  0.0834 -0.0450 -0.7940
 9522SOL    HW146176  13.011   3.625   6.926 -0.2425  0.5237 -0.9343
 9522SOL    HW246177  13.153   3.600   6.882  0.2024  0.8333  0.2633
 9523SOL     OW46178   4.030   7.995   0.400 -0.3190 -0.1651 -0.5258
 9523SOL    HW146179   4.108   8.034   0.361 -0.4619  0.5403 -0.1176
 9523SOL    HW246180   4.063   7.916   0.444  0.4131  0.8515  0.8207
 9524SOL     OW46181   4.067   1.710  12.688 -0.3035  0.9270  0.3201
 9524SOL    HW146182   4.069   1.752  12.601  1.7522 -0.4152 -0.3393
 9524SOL    HW246183   4.110   1.773  12.746  2.6580 -0.0592 -0.6425
 9525SOL     OW46184   9.909  12.336   5.046 -0.0002 -0.5455  0.4565
 9525SOL    HW146185   9.989  12.287   5.063  2.3990  2.5064 -1.0237
 9525SOL    HW246186   9.909  12.349   4.951 -0.3540  2.3706  0.7793
 9526SOL     OW46187   4.098  12.555  10.085 -0.6151 -0.1174 -0.5453
 9526SOL    HW146188   4.073  12.571   9.994  0.7446  0.1217 -0.9008
 9526SOL    HW246189   4.168  12.618  10.102 -1.4223  0.4247  0.9498
 9527SOL     OW46190  12.863   9.244   5.661 -0.0479  0.4409  0.1829
 9527SOL    HW146191  12.953   9.276   5.661  0.4696 -0.8889 -1.2758
 9527SOL    HW246192  12.809   9.323   5.665  1.1588  1.2418  1.5385
 9528SOL     OW46193   1.566   5.531   2.627 -0.5433 -0.1982 -0.3370
 9528SOL    HW146194   1.524   5.603   2.578  2.1166  1.8201  0.0826
 9528SOL    HW246195   1.533   5.540   2.716  1.0084  1.7158  0.1171
 9529SOL     OW46196   6.813  13.737  12.960 -0.2858  0.0535 -0.0463
 9529SOL    HW146197   6.760  13.816  12.949  0.4676  0.4476 -0.9393
 9529SOL    HW246198   6.903  13.768  12.965  0.3462 -0.8431 -3.2370
 9530SOL     OW46199  13.841   2.906   1.912  0.2152 -0.6156  0.0577
 9530SOL    HW146200  13.763   2.933   1.863  0.3527 -0.7822 -0.2607
 9530SOL    HW246201  13.828   2.941   2.000  0.2053  0.1368 -0.2358
 9531SOL     OW46202   5.099   8.683  12.532  0.1461  0.0046  0.1429
 9531SOL    HW146203   5.092   8.631  12.612 -1.6108  0.2891  0.2054
 9531SOL    HW246204   5.186   8.661  12.497  0.3828 -1.1735  1.3904
 9532SOL     OW46205  13.555   8.006   5.501 -0.0032  0.3053 -0.2207
 9532SOL    HW146206  13.541   7.945   5.428  0.2088 -0.9122  0.7335
 9532SOL    HW246207  13.639   8.047   5.483 -0.5391  0.9796 -1.3114
 9533SOL     OW46208   7.296  11.431   6.109 -0.3503  0.0335 -0.3534
 9533SOL    HW146209   7.336  11.434   6.022  2.1192 -1.3405  0.6401
 9533SOL    HW246210   7.357  11.379   6.162 -2.8626 -1.0679  1.6703
 9534SOL     OW46211   1.908   0.427   3.719  0.1371  0.5122 -0.1240
 9534SOL    HW146212   1.866   0.386   3.795  1.5819 -1.7619 -0.4733
 9534SOL    HW246213   1.858   0.395   3.644  0.4278  0.5105 -0.3184
 9535SOL     OW46214   1.666  12.565   3.169 -0.0444 -0.1560 -0.2734
 9535SOL    HW146215   1.719  12.629   3.122  0.3001  0.4415  0.8868
 9535SOL    HW246216   1.579  12.572   3.129  0.5672 -0.7349 -1.7984
 9536SOL     OW46217  13.719   5.377  13.180  0.0497  0.4482  0.6085
 9536SOL    HW146218  13.631   5.372  13.219 -1.4275 -1.4210 -2.5835
 9536SOL    HW246219  13.764   5.299  13.212 -0.2387  0.2681  0.5796
 9537SOL     OW46220   2.177   0.652   7.586  0.3533 -0.0458  0.2193
 9537SOL    HW146221   2.264   0.630   7.554 -0.4341 -0.8150 -1.5259
 9537SOL    HW246222   2.119   0.589   7.543 -0.9615 -0.2494  2.1802
 9538SOL     OW46223   1.606   2.257   4.422 -0.1393  0.1436  0.1260
 9538SOL    HW146224   1.565   2.306   4.350 -0.6244 -0.3540  0.0567
 9538SOL    HW246225   1.532   2.219   4.470  0.1521  0.9134  1.2110
 9539SOL     OW46226  11.610  10.884  12.652  0.2576 -0.3368  0.0700
 9539SOL    HW146227  11.703  10.886  12.672  0.9378  1.6113 -2.7318
 9539SOL    HW246228  11.603  10.921  12.564 -3.0544 -1.6337 -0.3726
 9540SOL     OW46229  13.436   6.327   3.298  0.0125  0.0403  0.0159
 9540SOL    HW146230  13.402   6.270   3.368  1.3433 -1.4607 -0.5046
 9540SOL    HW246231  13.465   6.266   3.230 -0.7249  1.4482 -1.6306
 9541SOL     OW46232  13.248  13.253  11.262  0.3569 -0.5201  0.2017
 9541SOL    HW146233  13.184  13.212  11.319 -1.2616 -1.1195 -1.8989
 9541SOL    HW246234  13.201  13.325  11.221  2.1471  1.3195  1.2424
 9542SOL     OW46235   7.105  13.719   6.649 -0.1520  0.2760 -0.1992
 9542SOL    HW146236   7.067  13.654   6.590  1.0798 -0.1661 -0.5293
 9542SOL    HW246237   7.178  13.756   6.600  1.1682 -0.4081  1.1813
 9543SOL     OW46238   1.089   3.328  10.546  0.0106 -0.3586  0.8169
 9543SOL    HW146239   1.102   3.362  10.457 -1.7533 -0.1409  0.6067
 9543SOL    HW246240   1.165   3.273  10.562  2.0892  2.2330  0.4812
 9544SOL     OW46241   7.456   5.656   7.755 -0.4519 -0.0991 -0.7219
 9544SOL    HW146242   7.492   5.610   7.679 -0.3979 -0.0935 -0.6999
 9544SOL    HW246243   7.525   5.716   7.782  0.6486 -1.9862  0.9844
 9545SOL     OW46244  13.845   2.079  10.860  0.4112 -0.5977 -0.9065
 9545SOL    HW146245  13.938   2.102  10.854  0.5086  0.1400  1.8057
 9545SOL    HW246246  13.843   2.006  10.922 -0.9052  0.7588  0.7640
 9546SOL     OW46247   7.137  13.587  13.196  0.5029  0.2888  0.3262
 9546SOL    HW146248   7.113  13.669  13.240 -1.5302  0.2536 -0.6148
 9546SOL    HW246249   7.168  13.614  13.110  0.8303  0.1142  0.3852
 9547SOL     OW46250   1.589   6.114   4.857 -0.0233 -0.1173 -0.0018
 9547SOL    HW146251   1.598   6.023   4.886 -2.5429  0.6889  4.1722
 9547SOL    HW246252   1.518   6.112   4.793 -1.3289 -0.9841  1.3986
 9548SOL     OW46253   0.212   0.681   9.686  0.0211 -0.3527  0.1547
 9548SOL    HW146254   0.191   0.724   9.768  1.7839  0.2601  0.3205
 9548SOL    HW246255   0.286   0.730   9.651 -0.2167 -1.0552 -1.4466
 9549SOL     OW46256   9.847   5.458   2.409 -0.2341  0.1869 -0.8615
 9549SOL    HW146257   9.806   5.508   2.339  0.4180  0.2205 -1.2253
 9549SOL    HW246258   9.847   5.368   2.377 -2.5220 -0.3200  0.2945
 9550SOL     OW46259   3.064  11.418   4.186  0.0801  0.0618  0.6305
 9550SOL    HW146260   3.014  11.338   4.199 -2.9981  0.6217 -4.7309
 9550SOL    HW246261   3.142  11.391   4.137 -0.9367  0.1551 -1.1395
 9551SOL     OW46262   8.174  12.583   0.854  0.6691  0.2357 -0.0296
 9551SOL    HW146263   8.090  12.616   0.823  0.9544  0.5410 -0.4800
 9551SOL    HW246264   8.214  12.540   0.778  0.2067 -1.3901  0.5877
 9552SOL     OW46265   0.263   7.315  11.056 -0.1882 -0.0334 -0.1576
 9552SOL    HW146266   0.290   7.400  11.021  1.0332  0.0671  0.9685
 9552SOL    HW246267   0.340   7.260  11.045 -0.5182 -0.6047  0.3855
 9553SOL     OW46268   7.201   2.594  10.545  0.3151 -0.2159  0.2604
 9553SOL    HW146269   7.235   2.511  10.512  1.4122 -0.2894  1.5065
 9553SOL    HW246270   7.275   2.654  10.543 -0.2341  0.4839  0.2385
 9554SOL     OW46271   8.515  13.260   8.637 -0.6439  0.0138  0.0725
 9554SOL    HW146272   8.605  13.289   8.655 -0.7430 -0.0153  0.6163
 9554SOL    HW246273   8.526  13.177   8.589 -0.3821  0.1424 -0.0953
 9555SOL     OW46274   4.671  13.771   5.657 -0.5264  0.5411 -0.2345
 9555SOL    HW146275   4.616  13.693   5.662  0.8231 -0.4559 -0.2921
 9555SOL    HW246276   4.688  13.782   5.563  2.1943 -1.3105 -0.0990
 9556SOL     OW46277  12.685   3.242   9.531 -0.1139  0.3292 -0.1520
 9556SOL    HW146278  12.651   3.209   9.615  1.1685  1.4978  0.8863
 9556SOL    HW246279  12.749   3.177   9.503 -0.5881 -0.0943 -0.2696
 9557SOL     OW46280  13.237   7.297   7.320 -0.3224  0.3606  0.5269
 9557SOL    HW146281  13.194   7.244   7.386  2.1546 -0.8354  1.3153
 9557SOL    HW246282  13.309   7.340   7.366  0.8645  0.2833 -1.1336
 9558SOL     OW46283  12.548   4.955   3.500  0.8581  0.6700 -0.0447
 9558SOL    HW146284  12.521   4.864   3.495  0.8724  0.6872 -0.4544
 9558SOL    HW246285  12.477   4.999   3.546  1.1831  0.3248  0.8239
 9559SOL     OW46286   7.719   4.841   4.541  0.0183 -0.3895  0.2782
 9559SOL    HW146287   7.640   4.810   4.497 -2.1837  2.5597  1.7150
 9559SOL    HW246288   7.732   4.929   4.507 -0.2332  0.9929  3.3962
 9560SOL     OW46289  13.067   5.860   4.704  0.3816 -0.2895 -0.2217
 9560SOL    HW146290  13.121   5.909   4.642  0.1148 -0.8787 -0.9370
 9560SOL    HW246291  13.120   5.783   4.727 -0.5861 -1.5302 -1.8868
 9561SOL     OW46292  13.607   0.449   3.838  0.4096  0.4332 -0.2871
 9561SOL    HW146293  13.701   0.466   3.835  0.6196 -0.5332  0.3353
 9561SOL    HW246294  13.567   0.535   3.851  1.2079  0.8397 -0.4480
 9562SOL     OW46295   7.724  10.046  11.312  0.7314 -0.5110 -0.1608
 9562SOL    HW146296   7.657  10.086  11.368 -0.4552  0.1467 -1.9549
 9562SOL    HW246297   7.804  10.095  11.331  0.5271 -0.7488  1.4114
 9563SOL     OW46298   9.772  11.045   8.403 -0.0602  0.5595 -0.4970
 9563SOL    HW146299   9.853  11.094   8.419  1.0750 -0.4802 -2.5081
 9563SOL    HW246300   9.703  11.096   8.445  1.7950  0.7351  2.5790
 9564SOL     OW46301   9.987   9.910   5.607 -0.2751 -0.3764 -0.5056
 9564SOL    HW146302   9.968   9.890   5.516  0.3480 -0.6103 -0.5916
 9564SOL    HW246303  10.000  10.005   5.608 -1.5128 -0.1978 -0.4204
 9565SOL     OW46304  10.186   0.751   4.185  0.1379  0.1217  0.3657
 9565SOL    HW146305  10.213   0.703   4.106 -0.4285 -0.6003  0.6040
 9565SOL    HW246306  10.172   0.684   4.251  1.7186  0.8034  1.4489
 9566SOL     OW46307  10.438   2.315   8.612  0.3825 -0.5473  0.3032
 9566SOL    HW146308  10.441   2.228   8.651 -0.9396 -0.2062  1.2542
 9566SOL    HW246309  10.436   2.375   8.686  1.0951  0.2983 -0.3343
 9567SOL     OW46310  11.683   4.453  10.062 -0.2442  0.2469  0.4368
 9567SOL    HW146311  11.744   4.492   9.999  0.4023 -0.0785  0.8530
 9567SOL    HW246312  11.659   4.526  10.120 -1.2558  0.6721 -0.4888
 9568SOL     OW46313   2.309   3.681   1.001 -0.1635 -0.4797  0.5186
 9568SOL    HW146314   2.324   3.624   0.926 -0.1707 -0.2736  0.3609
 9568SOL    HW246315   2.380   3.745   0.997  0.4416 -1.0873  1.2771
 9569SOL     OW46316  10.145   3.956   2.778 -0.0375  0.6711  0.1772
 9569SOL    HW146317  10.228   3.916   2.803  0.2845  1.6257  0.6813
 9569SOL    HW246318  10.096   3.885   2.735  1.1700  0.1941 -0.4606
 9570SOL     OW46319   9.083   4.859   9.245 -0.7962 -0.0985 -0.0511
 9570SOL    HW146320   9.141   4.786   9.268 -0.2050 -0.0492 -1.3189
 9570SOL    HW246321   8.995   4.827   9.267 -0.5005 -1.0126 -0.1431
 9571SOL     OW46322  13.120   3.069   3.416 -0.2620  0.3363 -0.3313
 9571SOL    HW146323  13.173   3.146   3.436  0.9455 -0.6262  0.3640
 9571SOL    HW246324  13.164   3.029   3.341 -1.5796  0.9403 -1.4662
 9572SOL     OW46325   8.824  12.133  11.941  0.1549 -0.1675 -0.1154
 9572SOL    HW146326   8.802  12.188  12.016  1.3285  1.6789 -1.0551
 9572SOL    HW246327   8.814  12.043  11.973  0.1486  0.5616  2.0714
 9573SOL     OW46328   7.215   2.131   7.618  0.7564 -0.3598 -0.0198
 9573SOL    HW146329   7.266   2.089   7.549 -0.0641  0.5696 -1.2388
 9573SOL    HW246330   7.129   2.088   7.614  0.3584  0.4381 -0.3382
 9574SOL     OW46331   7.144   2.843   5.190 -0.3088  0.4173 -0.5379
 9574SOL    HW146332   7.107   2.807   5.270  1.8307  0.5767  0.5815
 9574SOL    HW246333   7.098   2.796   5.120 -1.5270 -0.4250  0.7678
 9575SOL     OW46334   4.263  13.524   8.530 -1.0899 -0.0518  0.6014
 9575SOL    HW146335   4.322  13.567   8.591 -0.0473 -0.5994  0.0276
 9575SOL    HW246336   4.207  13.594   8.496  2.2499  1.5439 -2.3073
 9576SOL     OW46337   4.208   8.491  12.761  0.5339 -0.1695 -0.2549
 9576SOL    HW146338   4.183   8.570  12.713 -0.6013  0.4354  1.2315
 9576SOL    HW246339   4.301   8.501  12.777  0.2271  1.4093  0.7936
 9577SOL     OW46340  12.070   0.421   5.888 -0.7935 -0.1340 -0.0067
 9577SOL    HW146341  12.109   0.479   5.953  0.3581 -2.3989  1.4428
 9577SOL    HW246342  11.977   0.440   5.891 -0.5602  0.9569  1.0996
 9578SOL     OW46343  12.192   5.942   4.694 -0.1356  0.0482 -0.1796
 9578SOL    HW146344  12.274   5.983   4.666  0.8999 -1.5085  0.4150
 9578SOL    HW246345  12.190   5.859   4.647 -0.6468 -0.5597  0.8930
 9579SOL     OW46346  12.836   4.638  11.415 -0.4754  0.2316  0.0673
 9579SOL    HW146347  12.774   4.566  11.412  0.5801 -0.6707 -0.5819
 9579SOL    HW246348  12.861   4.645  11.507 -1.1583  0.2936  0.2545
 9580SOL     OW46349  12.120   0.939   8.845 -0.4195 -0.1387 -0.4244
 9580SOL    HW146350  12.152   1.024   8.814  0.1647 -0.2576 -0.1613
 9580SOL    HW246351  12.048   0.961   8.904 -0.2194  0.1778 -0.2964
 9581SOL     OW46352   0.174  13.357   0.854 -0.2978 -0.2981 -0.4275
 9581SOL    HW146353   0.093  13.322   0.816 -0.1558 -0.4577 -0.5831
 9581SOL    HW246354   0.218  13.279   0.890 -0.2372 -0.2045 -0.3002
 9582SOL     OW46355  11.116  12.704   5.113  0.2363  0.1439  0.3583
 9582SOL    HW146356  11.102  12.760   5.190  0.5629 -0.4772  0.8791
 9582SOL    HW246357  11.137  12.618   5.150 -0.2552 -0.3281 -0.4318
 9583SOL     OW46358  13.921   9.179   7.097 -0.1303  0.2254  0.3688
 9583SOL    HW146359  13.897   9.090   7.122 -0.1375  0.1035 -0.0698
 9583SOL    HW246360  14.002   9.169   7.047 -2.9626 -0.2555 -4.7941
 9584SOL     OW46361   1.205   1.658   3.003 -0.1117 -0.4544 -0.3615
 9584SOL    HW146362   1.297   1.682   2.994  0.0827 -1.4238 -1.1062
 9584SOL    HW246363   1.163   1.695   2.925 -0.6668  1.2847  0.7027
 9585SOL     OW46364   6.399   2.170   4.931  0.5734 -0.4313 -0.4601
 9585SOL    HW146365   6.361   2.169   4.843  1.9356 -0.9973 -1.0592
 9585SOL    HW246366   6.406   2.077   4.955 -1.6841 -0.2867  1.1314
 9586SOL     OW46367   8.539   4.902   9.576 -0.3040 -0.1817  0.0913
 9586SOL    HW146368   8.530   4.963   9.649 -0.8558  0.9094 -0.8569
 9586SOL    HW246369   8.601   4.945   9.517 -0.1046 -0.9123 -0.2411
 9587SOL     OW46370  11.234  13.643  10.958 -0.0146 -0.2590 -0.2744
 9587SOL    HW146371  11.310  13.657  10.903  1.6676 -0.9980  1.7095
 9587SOL    HW246372  11.251  13.560  11.002 -2.2092 -0.6869 -0.1110
 9588SOL     OW46373   3.250   7.760   1.249 -0.3048  0.1026 -0.3759
 9588SOL    HW146374   3.214   7.745   1.162 -1.3686  0.8944 -0.0965
 9588SOL    HW246375   3.325   7.701   1.255 -0.5354 -0.3419 -1.6235
 9589SOL     OW46376  13.862   5.978   2.802 -0.0245  0.2720 -0.1037
 9589SOL    HW146377  13.937   6.020   2.760  0.2845 -1.1477 -1.0158
 9589SOL    HW246378  13.786   6.022   2.765  0.3242  1.2309  0.2893
 9590SOL     OW46379   1.979  11.368   5.069  0.0285  0.0889 -0.1658
 9590SOL    HW146380   1.958  11.461   5.058 -0.6463 -0.1269 -0.7217
 9590SOL    HW246381   1.957  11.350   5.161  1.3801  0.7687  0.3369
 9591SOL     OW46382   1.151   7.489   0.263 -0.3991 -0.7183  0.0304
 9591SOL    HW146383   1.108   7.405   0.278  0.0913 -1.2914 -1.5252
 9591SOL    HW246384   1.230   7.467   0.213 -0.2216  0.6556 -0.3350
 9592SOL     OW46385   2.058  12.429  12.099 -0.1828  0.1258  0.0920
 9592SOL    HW146386   1.982  12.384  12.134 -0.2515  0.4055  0.3062
 9592SOL    HW246387   2.039  12.440  12.005 -0.0030 -0.6113 -0.0368
 9593SOL     OW46388  10.629   6.192   6.362  0.4042  0.0431 -0.0128
 9593SOL    HW146389  10.551   6.137   6.348 -0.4331  1.1322  0.2947
 9593SOL    HW246390  10.602   6.279   6.334  1.5143  0.4439  0.1373
 9594SOL     OW46391   5.215  12.387   1.373 -0.5303 -0.1499  0.0544
 9594SOL    HW146392   5.175  12.311   1.416 -1.2292  0.7382  1.0108
 9594SOL    HW246393   5.141  12.439   1.343 -0.0558 -0.5146 -1.8676
 9595SOL     OW46394  13.219   5.042   0.202  0.5509  0.3692  0.3962
 9595SOL    HW146395  13.195   5.061   0.293  2.0207  0.4816  0.7807
 9595SOL    HW246396  13.194   4.950   0.190 -0.3601  0.5696  0.6534
 9596SOL     OW46397  13.267   0.687   3.841 -0.2498 -0.3171  0.2544
 9596SOL    HW146398  13.233   0.614   3.893  0.9075  0.1156  1.6771
 9596SOL    HW246399  13.299   0.646   3.761 -0.1563 -1.3012  0.7812
 9597SOL     OW46400   2.764   0.430   3.370  0.1039  0.1052  0.6135
 9597SOL    HW146401   2.756   0.494   3.299  1.1932  0.2692  0.6299
 9597SOL    HW246402   2.794   0.350   3.327  0.8611  0.2321  0.8918
 9598SOL     OW46403   5.564  13.211   9.870 -0.3334  0.2838  0.1965
 9598SOL    HW146404   5.530  13.242   9.786  0.2962  0.5257  0.0267
 9598SOL    HW246405   5.642  13.264   9.886 -0.3310  0.1008  0.8377
 9599SOL     OW46406   9.227   0.588   9.583 -0.2859 -0.3055 -0.0424
 9599SOL    HW146407   9.154   0.635   9.625  0.0208 -0.6667  0.9380
 9599SOL    HW246408   9.293   0.582   9.652  1.0140  0.7215 -1.1434
 9600SOL     OW46409  10.610   5.725   2.818 -0.0372  0.1546 -0.4685
 9600SOL    HW146410  10.587   5.722   2.911 -2.3664  0.1502 -0.9651
 9600SOL    HW246411  10.590   5.637   2.785  1.2636 -0.0024 -0.8867
 9601SOL     OW46412   5.279  12.458  10.141 -0.0750  0.2824  0.5115
 9601SOL    HW146413   5.344  12.501  10.084 -0.0555  0.8384  0.9434
 9601SOL    HW246414   5.218  12.528  10.164 -0.2549 -0.0114  0.9354
 9602SOL     OW46415  11.770   5.392  11.085 -0.0652 -0.0826  0.0176
 9602SOL    HW146416  11.783   5.422  11.174  0.8198  0.3166 -0.2323
 9602SOL    HW246417  11.676   5.403  11.069 -0.1171  0.4771  0.6652
 9603SOL     OW46418   0.918   2.790  12.133  0.3756  0.6542  0.0737
 9603SOL    HW146419   0.840   2.828  12.094 -0.1996 -0.0555  0.5104
 9603SOL    HW246420   0.897   2.781  12.226  1.0508  0.6489  0.2331
 9604SOL     OW46421  13.046   3.176  13.826 -0.0266 -0.1503 -0.2702
 9604SOL    HW146422  13.131   3.150  13.861 -0.0597  0.3561  0.1811
 9604SOL    HW246423  13.064   3.200  13.735 -0.0088 -1.8649 -0.7735
 9605SOL     OW46424  11.285  14.064   9.154 -0.1916  0.6161 -0.2362
 9605SOL    HW146425  11.217  14.040   9.091 -0.0262 -0.4898 -0.0134
 9605SOL    HW246426  11.266  14.010   9.231 -0.3858  1.9320  0.6800
 9606SOL     OW46427  13.953   4.714  11.423  0.5547 -0.0513 -0.4742
 9606SOL    HW146428  14.021   4.769  11.384  1.6810 -0.2735  1.0840
 9606SOL    HW246429  14.000   4.658  11.484 -1.0661  0.0055  0.8833
 9607SOL     OW46430  13.562   7.042   7.040 -0.1086 -0.1175 -0.3369
 9607SOL    HW146431  13.607   7.127   7.034  1.2549 -0.7897 -0.0587
 9607SOL    HW246432  13.482   7.061   7.088  0.9691  0.7397  1.2103
 9608SOL     OW46433   9.694   6.407   0.550  0.1983  0.4386 -0.1004
 9608SOL    HW146434   9.773   6.459   0.565  0.8446 -0.3972 -0.5640
 9608SOL    HW246435   9.713   6.355   0.473  0.0150 -1.3543  1.0056
 9609SOL     OW46436  11.710  13.667   0.225  0.1120  0.2740  0.5253
 9609SOL    HW146437  11.731  13.583   0.186  0.3695  0.3177  0.5623
 9609SOL    HW246438  11.782  13.725   0.197  0.1979  0.3522  0.9012
 9610SOL     OW46439   2.989   8.001  10.394  0.0930  0.2372 -0.1789
 9610SOL    HW146440   3.004   7.923  10.448  1.6563  1.8025  1.7982
 9610SOL    HW246441   3.072   8.016  10.350 -0.8623 -0.4132 -2.3453
 9611SOL     OW46442   5.268   2.968   3.771  0.4551  0.1051  0.1709
 9611SOL    HW146443   5.201   2.978   3.703 -1.3141 -1.8376  1.4773
 9611SOL    HW246444   5.304   2.880   3.756  1.2185  0.3131  0.7395
 9612SOL     OW46445  11.794   6.668   1.942 -0.3522  0.2162  0.4015
 9612SOL    HW146446  11.739   6.670   1.863  0.3899  0.6378 -0.1095
 9612SOL    HW246447  11.756   6.598   1.995 -0.8611 -0.0733 -0.3278
 9613SOL     OW46448  10.929   1.938   7.366 -0.1208  0.3312  0.0947
 9613SOL    HW146449  11.014   1.955   7.405  0.3301 -1.9720  0.2802
 9613SOL    HW246450  10.898   1.859   7.410 -0.9602 -0.6371 -2.0833
 9614SOL     OW46451   2.385   0.815   6.125 -0.0562 -0.0118 -0.0806
 9614SOL    HW146452   2.347   0.894   6.086  0.3565 -0.6074 -1.7670
 9614SOL    HW246453   2.393   0.753   6.052 -0.3018 -1.6006  1.1851
 9615SOL     OW46454   7.151  13.779   2.233 -0.6051 -0.0429 -0.1303
 9615SOL    HW146455   7.068  13.736   2.254 -0.0438 -1.2724 -0.3550
 9615SOL    HW246456   7.194  13.721   2.171 -0.6904  1.8272 -2.0801
 9616SOL     OW46457   0.003   6.297   1.045  0.2838 -0.6799 -0.2285
 9616SOL    HW146458  -0.013   6.264   1.133  0.1529  1.7794  0.7287
 9616SOL    HW246459  -0.083   6.291   1.002  0.0370 -0.6249  0.2482
 9617SOL     OW46460   4.640  13.163   8.641  0.1719  0.1332 -0.3713
 9617SOL    HW146461   4.707  13.125   8.584 -0.7713  0.3675 -1.6927
 9617SOL    HW246462   4.597  13.228   8.586 -1.3361 -0.2235  0.3480
 9618SOL     OW46463   1.476   6.699   7.604  1.1360  0.6430  0.0260
 9618SOL    HW146464   1.530   6.621   7.594 -0.1182 -0.3735  0.7897
 9618SOL    HW246465   1.440   6.716   7.517  0.2311 -0.5500  0.1525
 9619SOL     OW46466   4.393  12.462   1.993  0.2427  0.0330  0.2668
 9619SOL    HW146467   4.357  12.397   1.933  1.9754 -0.8727  0.1525
 9619SOL    HW246468   4.415  12.537   1.937  2.0480 -0.8874 -0.3456
 9620SOL     OW46469   4.468   0.977   4.547  0.7027  0.0671  0.1045
 9620SOL    HW146470   4.556   0.969   4.510  0.4233 -0.4791 -0.4674
 9620SOL    HW246471   4.422   0.899   4.515 -0.0404  0.4420  0.2474
 9621SOL     OW46472   6.108  10.653  12.717 -0.2388  0.4817  0.2705
 9621SOL    HW146473   6.154  10.653  12.632 -0.1278  2.6944  0.2715
 9621SOL    HW246474   6.168  10.698  12.776 -1.2271  0.9132  0.9729
 9622SOL     OW46475   4.196   5.446  12.521 -0.3479 -0.0415 -0.1720
 9622SOL    HW146476   4.227   5.362  12.556 -0.7901  0.1674  0.7479
 9622SOL    HW246477   4.276   5.499  12.513  0.0252 -0.7393 -1.3659
 9623SOL     OW46478   0.338  11.537  10.510  0.1348  0.0506  0.7775
 9623SOL    HW146479   0.351  11.617  10.460 -0.0802  0.0166  0.6631
 9623SOL    HW246480   0.244  11.535  10.528 -0.1548 -1.0325 -0.6712
 9624SOL     OW46481   6.421  10.558   3.037 -0.4978 -0.0112  0.6165
 9624SOL    HW146482   6.466  10.638   3.012 -1.0572 -0.3349 -1.5665
 9624SOL    HW246483   6.328  10.581   3.033 -0.6452 -0.5884  0.7000
 9625SOL     OW46484   7.979  13.994   9.439  0.1908  0.7763 -0.4715
 9625SOL    HW146485   8.048  14.009   9.504 -0.2114  0.7684 -0.0349
 9625SOL    HW246486   7.997  13.906   9.405  0.1066  0.5621  0.0146
 9626SOL     OW46487   2.611   6.692   7.782  0.6347  0.2381  0.2813
 9626SOL    HW146488   2.585   6.784   7.782 -0.4611 -0.0370 -0.9305
 9626SOL    HW246489   2.600   6.664   7.873 -0.9916  0.7976  0.2882
 9627SOL     OW46490  10.704  10.408  13.086 -0.1048  0.4679 -0.4888
 9627SOL    HW146491  10.720  10.502  13.074  0.9111  0.1598 -1.7425
 9627SOL    HW246492  10.791  10.368  13.081 -0.2895 -0.3881  1.8307
 9628SOL     OW46493  13.840   2.324  12.087  0.3879  0.1745 -0.4519
 9628SOL    HW146494  13.844   2.347  11.994 -0.5996  1.1176 -0.2885
 9628SOL    HW246495  13.779   2.250  12.090  1.9528 -1.1648 -0.7521
 9629SOL     OW46496  12.638   6.135   0.633  0.0642  0.7582 -0.1925
 9629SOL    HW146497  12.616   6.071   0.565  1.7264 -1.1557  0.9601
 9629SOL    HW246498  12.556   6.151   0.678 -0.4188 -0.5261 -0.5686
 9630SOL     OW46499   4.893   4.738   5.175  0.1996 -0.4633  0.2915
 9630SOL    HW146500   4.816   4.736   5.118  0.7228 -0.8591 -0.4339
 9630SOL    HW246501   4.881   4.665   5.235 -0.5329  0.1769  0.9278
 9631SOL     OW46502  10.811   0.591  10.864  0.4328  0.7846  0.2301
 9631SOL    HW146503  10.783   0.671  10.820  1.2697  0.4987 -0.8369
 9631SOL    HW246504  10.899   0.574  10.831  0.2750 -0.5742  0.4429
 9632SOL     OW46505  10.102   1.421  11.057 -0.2701 -0.1490  0.1019
 9632SOL    HW146506  10.189   1.389  11.031 -0.3166 -0.3812  0.2254
 9632SOL    HW246507  10.067   1.463  10.979 -0.2252 -0.4440 -0.0788
 9633SOL     OW46508  11.652   6.561   6.448 -0.3049  0.4454  0.1960
 9633SOL    HW146509  11.645   6.467   6.434 -0.5303  0.4953 -0.0477
 9633SOL    HW246510  11.720   6.590   6.386 -0.5224  0.5017 -0.0189
 9634SOL     OW46511   7.548  10.014   1.131 -0.6792 -0.0192 -0.4814
 9634SOL    HW146512   7.609   9.942   1.152 -0.6457 -0.5417 -2.2225
 9634SOL    HW246513   7.489  10.018   1.206  1.4930  0.5360  1.3082
 9635SOL     OW46514  10.258  13.318   6.360 -0.1094  0.1372  0.4348
 9635SOL    HW146515  10.221  13.403   6.380 -0.3035 -0.1201  1.1814
 9635SOL    HW246516  10.313  13.297   6.435 -0.8636 -0.8479  0.7276
 9636SOL     OW46517   1.620   0.037  13.360 -0.1865 -0.1186 -0.2762
 9636SOL    HW146518   1.591  -0.036  13.415 -0.7750 -0.3374 -0.8673
 9636SOL    HW246519   1.635   0.109  13.421 -2.8455  0.3055 -0.0117
 9637SOL     OW46520   4.693   4.409  11.983  0.0699 -0.3409 -0.3664
 9637SOL    HW146521   4.761   4.466  11.946  1.0413 -0.0645  1.7117
 9637SOL    HW246522   4.623   4.468  12.010  1.0607 -0.0603  1.7531
 9638SOL     OW46523  10.944   0.821   5.704 -0.7032 -0.7352  0.2711
 9638SOL    HW146524  10.967   0.746   5.648 -0.8652 -0.7214  0.1834
 9638SOL    HW246525  10.881   0.785   5.767 -1.7121 -0.4088 -0.5250
 9639SOL     OW46526   5.390   5.876  11.019 -0.1257  0.2776 -0.2516
 9639SOL    HW146527   5.362   5.948  11.074  0.1402  0.2748 -0.1093
 9639SOL    HW246528   5.485   5.887  11.011 -0.3603  1.4185 -2.3248
 9640SOL     OW46529   5.741   3.421  12.234  0.5078 -0.0174  1.0352
 9640SOL    HW146530   5.682   3.367  12.287  1.0898 -0.6277  1.0846
 9640SOL    HW246531   5.683   3.480  12.187 -0.4424 -2.3914 -1.0149
 9641SOL     OW46532   9.530   5.387   6.486 -0.1180 -0.2230 -0.5451
 9641SOL    HW146533   9.516   5.481   6.486  1.8890  0.1495  1.2356
 9641SOL    HW246534   9.624   5.376   6.497 -0.2474 -2.4580 -1.0978
 9642SOL     OW46535  14.091   7.283  12.461  0.4238 -0.3219 -0.3090
 9642SOL    HW146536  14.126   7.282  12.372 -0.3670 -0.4241 -0.6229
 9642SOL    HW246537  14.065   7.374  12.476 -0.0386 -0.4351 -0.4194
 9643SOL     OW46538   6.695   1.776   0.128 -0.0168 -0.3118 -0.5587
 9643SOL    HW146539   6.634   1.808   0.194  1.1443 -1.2433  1.0096
 9643SOL    HW246540   6.674   1.828   0.050 -1.4877  0.7430  0.4784
 9644SOL     OW46541   2.116   0.742  13.111 -0.1742 -0.3719  0.2678
 9644SOL    HW146542   2.049   0.716  13.047 -2.3464  0.4992  2.0495
 9644SOL    HW246543   2.142   0.830  13.083 -2.0772  0.5493  1.2150
 9645SOL     OW46544   3.121  13.762   9.170 -0.5283 -0.0824  0.1699
 9645SOL    HW146545   3.169  13.680   9.177  0.0266  0.3563  1.8638
 9645SOL    HW246546   3.188  13.830   9.175 -1.2709  0.5516  2.8724
 9646SOL     OW46547   7.599   0.382   0.127 -0.4291 -0.3388 -0.1010
 9646SOL    HW146548   7.594   0.372   0.032 -0.2964  1.8805 -0.3912
 9646SOL    HW246549   7.519   0.342   0.160 -2.2196  1.9047 -1.4816
 9647SOL     OW46550   4.083  10.829   5.295 -0.0095 -0.6726  0.4134
 9647SOL    HW146551   4.044  10.916   5.293 -0.9425 -0.9792 -3.9632
 9647SOL    HW246552   4.009  10.769   5.303  0.3373 -1.1043  0.4090
 9648SOL     OW46553  10.951   6.592   0.661  0.1351  0.1617  0.2330
 9648SOL    HW146554  10.967   6.666   0.603 -1.0457  0.5335  0.3557
 9648SOL    HW246555  10.902   6.629   0.735 -1.4607 -0.9102 -0.2332
 9649SOL     OW46556   1.089   1.901  11.432 -0.4904 -0.2159 -0.1688
 9649SOL    HW146557   1.070   1.807  11.435  0.4223 -0.4044  1.2492
 9649SOL    HW246558   1.154   1.913  11.502  0.5204  1.2237 -1.3165
 9650SOL     OW46559   2.522   8.469   8.700 -0.2666 -0.2205 -0.2882
 9650SOL    HW146560   2.434   8.443   8.727 -0.6602 -0.3580 -1.6169
 9650SOL    HW246561   2.510   8.554   8.658  0.0874 -0.6229 -1.2387
 9651SOL     OW46562   4.843  10.691   1.216 -0.2051  0.0436  0.4152
 9651SOL    HW146563   4.921  10.697   1.271  0.2107 -1.2615  0.0213
 9651SOL    HW246564   4.866  10.740   1.137  1.0953 -2.0213 -0.6007
 9652SOL     OW46565   7.836   0.435   4.343 -0.0259  0.1089 -0.3811
 9652SOL    HW146566   7.759   0.395   4.382 -0.3920  1.0973 -0.0688
 9652SOL    HW246567   7.871   0.492   4.411  1.9817 -1.5726  0.1002
 9653SOL     OW46568  12.053  13.077   2.428  0.6970 -0.2858  0.1386
 9653SOL    HW146569  12.065  13.008   2.363 -2.4819 -0.5619 -0.3352
 9653SOL    HW246570  11.994  13.038   2.493 -1.6197  2.0135 -0.4090
 9654SOL     OW46571   0.456   9.592   9.482 -0.3994 -0.0876  0.4450
 9654SOL    HW146572   0.490   9.682   9.485 -1.5048  0.3994 -0.6429
 9654SOL    HW246573   0.493   9.556   9.401 -3.7099  1.0720 -1.8261
 9655SOL     OW46574   8.058   4.613   0.127  0.0329 -1.1561 -0.2419
 9655SOL    HW146575   7.979   4.640   0.175  0.7031 -2.0492  1.4384
 9655SOL    HW246576   8.073   4.684   0.065 -1.3237 -0.3203  0.3267
 9656SOL     OW46577  11.981  13.595   3.848 -0.3470  0.4373 -0.0374
 9656SOL    HW146578  12.075  13.577   3.851 -0.1358  1.2678 -0.9866
 9656SOL    HW246579  11.947  13.528   3.788 -0.7241 -1.1562  1.8679
 9657SOL     OW46580   9.586  11.690   5.345  0.5138 -0.0583 -0.2609
 9657SOL    HW146581   9.601  11.710   5.438 -0.4596 -2.7223  0.5409
 9657SOL    HW246582   9.669  11.653   5.315 -0.1063 -2.2254  0.5055
 9658SOL     OW46583   8.313   5.332  13.522 -0.5576  0.7381 -0.3059
 9658SOL    HW146584   8.282   5.253  13.567  0.7058  0.9511  1.0293
 9658SOL    HW246585   8.379   5.369  13.582  0.6000  1.5055 -1.9807
 9659SOL     OW46586   4.073  14.030   2.980 -0.0591  0.5016 -0.3859
 9659SOL    HW146587   4.088  14.021   2.886 -2.0633 -0.8309 -0.6416
 9659SOL    HW246588   3.983  14.061   2.987 -0.5538 -1.0869  1.0999
 9660SOL     OW46589  10.045   8.882  11.627  0.6812  0.2765 -0.3757
 9660SOL    HW146590  10.130   8.841  11.610  0.6274 -0.2513  0.5278
 9660SOL    HW246591  10.066   8.973  11.646  1.0181  0.2110 -0.4193
 9661SOL     OW46592  12.577   6.420  10.032  0.2459 -0.2569  0.4770
 9661SOL    HW146593  12.615   6.443  10.117 -0.1430 -0.4939  0.7165
 9661SOL    HW246594  12.565   6.504   9.988 -0.0301 -0.0901  0.8597
 9662SOL     OW46595   7.091   8.576   8.484  0.0527 -0.5403 -0.1171
 9662SOL    HW146596   7.184   8.558   8.471  0.0812 -0.7239  0.3301
 9662SOL    HW246597   7.078   8.569   8.579 -0.1631  0.7098 -0.0274
 9663SOL     OW46598   7.316   7.693   2.304 -0.1919  0.3624 -0.3577
 9663SOL    HW146599   7.342   7.743   2.381  0.5921 -2.4274  1.3639
 9663SOL    HW246600   7.234   7.651   2.330 -0.1259 -0.3121 -1.1906
 9664SOL     OW46601  10.612  12.644  11.165  0.7319  0.4759 -0.5816
 9664SOL    HW146602  10.567  12.714  11.213 -0.5910  0.8391 -2.2835
 9664SOL    HW246603  10.630  12.681  11.079 -0.8718 -1.5676 -1.8677
 9665SOL     OW46604  14.039   9.838   4.873 -0.2269  0.1196 -0.1035
 9665SOL    HW146605  14.010   9.917   4.826  1.4844  1.0138  0.2505
 9665SOL    HW246606  14.051   9.773   4.804 -1.9941  0.0227 -0.3668
 9666SOL     OW46607  11.556   2.632  12.669 -0.2073 -0.9838 -0.2266
 9666SOL    HW146608  11.543   2.538  12.677  1.0429 -1.1964 -0.5512
 9666SOL    HW246609  11.647   2.642  12.643  0.2342  0.4027  1.6509
 9667SOL     OW46610   4.407  10.342   1.442  0.3421  0.9574  0.3060
 9667SOL    HW146611   4.422  10.262   1.491  0.5866  0.6378 -0.2821
 9667SOL    HW246612   4.354  10.397   1.501 -2.5242 -0.8297 -0.3831
 9668SOL     OW46613  12.430   6.003  13.856  0.2583  0.5698 -0.0492
 9668SOL    HW146614  12.455   6.041  13.940 -0.6738  1.2322 -0.0528
 9668SOL    HW246615  12.368   5.934  13.879  0.9831 -0.1139 -0.1228
 9669SOL     OW46616   6.229   0.601   7.732  0.5971  0.0545 -0.0069
 9669SOL    HW146617   6.234   0.615   7.826 -0.8946 -0.0693  0.1146
 9669SOL    HW246618   6.223   0.690   7.695 -1.8635  0.0787  0.2714
 9670SOL     OW46619  12.311   8.534   3.789  0.1653 -0.6817  0.0561
 9670SOL    HW146620  12.389   8.508   3.838 -0.3058 -0.2450  1.0515
 9670SOL    HW246621  12.338   8.613   3.742  0.7600 -1.3690 -0.7971
 9671SOL     OW46622   6.800  10.590   3.539 -0.5044  0.3629  0.3673
 9671SOL    HW146623   6.726  10.590   3.479  0.9191 -0.5191 -1.4843
 9671SOL    HW246624   6.875  10.615   3.485  1.3160 -2.9832  1.0566
 9672SOL     OW46625   6.651  10.993  10.437 -0.2355  0.1459 -0.1249
 9672SOL    HW146626   6.664  10.979  10.343  2.3319 -1.9251  0.4142
 9672SOL    HW246627   6.559  10.969  10.452 -0.5799  0.1094 -2.0264
 9673SOL     OW46628   7.609   4.481   2.061  0.3565  0.1683 -0.5600
 9673SOL    HW146629   7.527   4.476   2.111  1.4961  1.2242  1.5432
 9673SOL    HW246630   7.649   4.395   2.071  0.0933  0.0473 -0.5346
 9674SOL     OW46631   3.219   2.279   3.437  0.8342 -0.2744  0.6424
 9674SOL    HW146632   3.293   2.323   3.477  1.7814 -0.8962 -0.3525
 9674SOL    HW246633   3.205   2.326   3.354  0.4008 -0.4305  0.6242
 9675SOL     OW46634  12.976   2.642   4.635 -0.4232 -0.6066  0.5031
 9675SOL    HW146635  12.987   2.590   4.715  2.1325 -2.1107 -0.7091
 9675SOL    HW246636  13.056   2.695   4.630 -0.4603 -0.6773 -1.1570
 9676SOL     OW46637  11.906   8.959   8.477  0.4545  0.6563  0.3908
 9676SOL    HW146638  11.995   8.925   8.470  0.6806  1.2458  0.3374
 9676SOL    HW246639  11.917   9.049   8.508 -0.1690  0.4174  1.3692
 9677SOL     OW46640   7.625   7.647   2.824 -0.0590 -0.6557  0.1942
 9677SOL    HW146641   7.529   7.651   2.822 -0.1000  1.8286  1.7613
 9677SOL    HW246642   7.648   7.679   2.911  2.2205 -0.3388 -0.4569
 9678SOL     OW46643   5.613   6.951  10.412 -0.2255  0.2667 -0.3728
 9678SOL    HW146644   5.625   6.862  10.380 -0.9682 -0.1173  0.3710
 9678SOL    HW246645   5.526   6.976  10.379 -0.5489  0.2480  0.4393
 9679SOL     OW46646   6.927   8.788   4.226  0.1427  0.0763 -0.5028
 9679SOL    HW146647   6.852   8.844   4.205  1.0205  0.4494 -3.0123
 9679SOL    HW246648   6.895   8.699   4.208 -0.3262  0.0314  0.5140
 9680SOL     OW46649   9.323   0.995   3.721  0.5880 -0.0802  0.6225
 9680SOL    HW146650   9.282   0.951   3.646 -2.9251 -0.6123  2.6404
 9680SOL    HW246651   9.303   1.088   3.709  2.8093  0.2896 -0.6172
 9681SOL     OW46652   4.374   3.098   3.476  0.2253 -0.2689 -0.1210
 9681SOL    HW146653   4.355   3.108   3.383 -0.6157 -0.1678  0.0566
 9681SOL    HW246654   4.394   3.005   3.486 -1.0425 -0.5673 -0.1755
 9682SOL     OW46655   4.332   2.676  12.744  0.0178 -0.3220 -0.9630
 9682SOL    HW146656   4.366   2.751  12.792  0.2130  1.3275 -3.4641
 9682SOL    HW246657   4.236   2.687  12.747 -0.0071 -0.7592 -0.1598
 9683SOL     OW46658  13.783   7.219   2.365  0.0532 -0.1930 -0.7604
 9683SOL    HW146659  13.831   7.212   2.282  0.4362  0.3364 -0.5867
 9683SOL    HW246660  13.752   7.309   2.368  2.3414  0.6363  0.9045
 9684SOL     OW46661   2.308  13.358  12.055  0.3455  0.2208 -0.5142
 9684SOL    HW146662   2.382  13.328  12.002  0.3589  0.5403 -0.6797
 9684SOL    HW246663   2.266  13.278  12.087  0.1625  0.0171 -1.2536
 9685SOL     OW46664   2.953   6.653   2.905  0.4830 -0.1331  0.0120
 9685SOL    HW146665   2.870   6.634   2.949  1.6631 -1.4430  1.8334
 9685SOL    HW246666   2.950   6.747   2.889 -1.2682 -0.1143  0.1917
 9686SOL     OW46667  12.712   1.173   6.908  0.1134  0.4455  0.0688
 9686SOL    HW146668  12.719   1.203   6.999 -0.0013  1.5354 -0.2735
 9686SOL    HW246669  12.745   1.083   6.910  2.0755  1.1446  0.8066
 9687SOL     OW46670   5.010  11.684  10.312 -0.4524 -0.0049 -0.2270
 9687SOL    HW146671   5.089  11.651  10.269 -0.2234 -1.6910  1.3386
 9687SOL    HW246672   4.940  11.669  10.249 -0.0872 -2.1318 -0.1880
 9688SOL     OW46673   1.137   3.078   0.545  0.1438  0.1345  0.2529
 9688SOL    HW146674   1.138   3.060   0.452 -0.1954  0.9471  0.0769
 9688SOL    HW246675   1.114   2.995   0.586  0.2827 -0.2205 -0.3888
 9689SOL     OW46676   5.212   3.676   9.525 -0.4631  0.1774  0.0117
 9689SOL    HW146677   5.149   3.622   9.477 -0.6382  0.4682 -0.0912
 9689SOL    HW246678   5.260   3.723   9.457 -0.1785  0.0057  0.0932
 9690SOL     OW46679  13.498  11.538   5.523  0.5125 -0.4834 -0.2696
 9690SOL    HW146680  13.540  11.454   5.540  0.5381 -0.8275 -1.9162
 9690SOL    HW246681  13.487  11.541   5.429 -1.7755  0.2850 -0.0280
 9691SOL     OW46682   1.576   5.479  10.570 -0.3154  0.4796  0.0997
 9691SOL    HW146683   1.548   5.393  10.538  0.2228  0.4970 -0.4295
 9691SOL    HW246684   1.495   5.530  10.577 -0.5836  0.0726 -0.0168
 9692SOL     OW46685   1.233   3.832   5.702  0.8959 -0.2539 -0.4849
 9692SOL    HW146686   1.147   3.790   5.697  1.4304 -1.6362  0.8168
 9692SOL    HW246687   1.258   3.849   5.611 -1.2728  1.3830 -0.8378
 9693SOL     OW46688   1.275   6.030   1.900  0.5554  0.0836 -0.1978
 9693SOL    HW146689   1.293   6.068   1.814  0.0572 -1.0537 -0.8224
 9693SOL    HW246690   1.356   5.984   1.922  0.4294 -0.2242 -0.3815
 9694SOL     OW46691   9.498  11.459   6.258  0.2665 -0.6144 -0.6728
 9694SOL    HW146692   9.500  11.374   6.301  0.2814 -1.1467 -1.7161
 9694SOL    HW246693   9.484  11.521   6.330 -0.2867 -1.5329  0.0400
 9695SOL     OW46694   6.948   0.982   2.985 -0.3537 -0.0835  0.5787
 9695SOL    HW146695   7.001   0.970   2.906 -0.1540  0.1281  0.6787
 9695SOL    HW246696   6.873   1.034   2.956 -0.4267 -0.2479  0.4695
 9696SOL     OW46697  11.828   0.542   5.903 -0.0499  0.1956 -0.3997
 9696SOL    HW146698  11.837   0.611   5.968  2.4639 -1.9626  1.8141
 9696SOL    HW246699  11.740   0.507   5.917 -0.2200  0.9884  0.5834
 9697SOL     OW46700  12.685  11.093  12.122  0.0974 -0.0216 -0.2039
 9697SOL    HW146701  12.766  11.072  12.168  1.0388 -0.4108 -1.9353
 9697SOL    HW246702  12.617  11.088  12.189  1.7268  2.6303  1.8619
 9698SOL     OW46703   2.450   8.609  12.992  0.3143 -0.3512  0.0772
 9698SOL    HW146704   2.379   8.562  12.948  0.1939  0.0596 -0.1770
 9698SOL    HW246705   2.418   8.698  13.001  0.4363 -0.3730  0.8009
 9699SOL     OW46706   8.478   1.620  12.518  0.5947  0.0202 -0.6120
 9699SOL    HW146707   8.442   1.616  12.606 -0.0989 -0.0731 -0.8909
 9699SOL    HW246708   8.443   1.701  12.481 -0.4514 -0.7492 -1.3609
 9700SOL     OW46709  11.453   5.219   7.986 -0.0665 -0.1873  0.0294
 9700SOL    HW146710  11.507   5.144   7.961  1.9811  0.5475  1.9486
 9700SOL    HW246711  11.368   5.203   7.943  1.2831 -1.9469 -2.1976
 9701SOL     OW46712  13.265   1.534  11.623  0.5781 -0.5471  0.3042
 9701SOL    HW146713  13.288   1.620  11.587  0.1979 -0.9028 -0.8413
 9701SOL    HW246714  13.211   1.493  11.555 -1.1609 -0.8111  1.7620
 9702SOL     OW46715   6.510  10.994   6.050 -0.3033 -0.1734  0.0632
 9702SOL    HW146716   6.492  11.079   6.089 -1.2408  0.4570 -1.6472
 9702SOL    HW246717   6.604  10.994   6.033  0.1497 -0.4779  2.2123
 9703SOL     OW46718   7.909  10.622   6.274  0.1330  0.0304 -0.1329
 9703SOL    HW146719   7.927  10.674   6.196 -0.3943 -1.7084 -1.4855
 9703SOL    HW246720   7.996  10.605   6.312  0.6241 -0.9593 -1.6227
 9704SOL     OW46721   4.146   0.812   2.884 -0.3439  0.4570  0.3744
 9704SOL    HW146722   4.145   0.885   2.822 -2.6883 -0.2341 -0.5200
 9704SOL    HW246723   4.055   0.803   2.910 -0.1337 -2.2149  0.3698
 9705SOL     OW46724   5.280   2.813  13.830  0.3770 -0.2795 -0.4317
 9705SOL    HW146725   5.260   2.906  13.828 -0.7744 -0.5155 -0.2299
 9705SOL    HW246726   5.374   2.809  13.812  0.5362  0.9435  0.0287
 9706SOL     OW46727   6.853  12.300   3.878 -0.1100 -0.3192 -0.3644
 9706SOL    HW146728   6.932  12.325   3.832 -0.2117 -2.6220 -1.9654
 9706SOL    HW246729   6.881  12.229   3.936 -0.1843  1.8515  2.5703
 9707SOL     OW46730   9.578   8.531   1.946  0.1587 -0.7628 -0.4155
 9707SOL    HW146731   9.519   8.596   1.985  0.8454 -0.3095 -0.1160
 9707SOL    HW246732   9.566   8.543   1.851 -1.0157 -1.4145 -0.3724
 9708SOL     OW46733   0.853   2.211   7.139  0.1391 -0.1139  0.5092
 9708SOL    HW146734   0.782   2.162   7.095  1.1351  0.4122 -1.8171
 9708SOL    HW246735   0.817   2.298   7.152 -0.0564 -0.1876  0.4772
 9709SOL     OW46736  12.350  12.430   4.710  0.2261 -0.3165  0.3061
 9709SOL    HW146737  12.407  12.365   4.668 -0.3066  0.6591 -2.0459
 9709SOL    HW246738  12.264  12.415   4.671  0.0585  1.6794 -0.1956
 9710SOL     OW46739   7.120   0.563  12.937 -0.1001  0.2126 -0.1416
 9710SOL    HW146740   7.094   0.560  12.845 -0.9365 -1.5130  0.1204
 9710SOL    HW246741   7.055   0.620  12.978  0.0870  0.7259 -0.5390
 9711SOL     OW46742   5.011  10.708  10.371  0.3955 -0.2228  0.4886
 9711SOL    HW146743   5.084  10.712  10.432  0.7682  0.6019  0.0063
 9711SOL    HW246744   5.031  10.634  10.314  1.9023  1.1976 -0.9153
 9712SOL     OW46745   7.035  13.374   3.567 -0.5279  0.5019 -0.1279
 9712SOL    HW146746   6.973  13.425   3.619 -0.1315 -0.4108  1.2658
 9712SOL    HW246747   6.981  13.336   3.497 -1.2333  0.9996  0.1281
 9713SOL     OW46748   3.523   0.506  11.764 -1.0217 -0.1262 -0.2731
 9713SOL    HW146749   3.614   0.489  11.744 -0.8374 -0.8381  1.0501
 9713SOL    HW246750   3.500   0.581  11.709  0.6468  0.7036  0.0960
 9714SOL     OW46751   0.160   2.654   5.821 -0.0486  0.1710  0.5453
 9714SOL    HW146752   0.246   2.696   5.814  0.8224 -1.7775 -1.6669
 9714SOL    HW246753   0.109   2.693   5.751  0.2986 -1.3111 -0.5777
 9715SOL     OW46754  10.823  11.469   0.173  0.0031  0.0951 -0.6695
 9715SOL    HW146755  10.899  11.410   0.168  0.7400  1.0416 -0.7911
 9715SOL    HW246756  10.810  11.498   0.083  1.7137  2.6705 -0.1708
 9716SOL     OW46757  11.868   1.528   2.366  0.5792  0.4114  0.4182
 9716SOL    HW146758  11.798   1.567   2.313 -0.7507 -1.2637  0.8153
 9716SOL    HW246759  11.839   1.543   2.457  1.4492  0.8889  0.6217
 9717SOL     OW46760   9.778   6.253   0.333 -0.2327  0.1651 -0.1702
 9717SOL    HW146761   9.792   6.312   0.259  1.0491  1.0812  0.7498
 9717SOL    HW246762   9.867   6.229   0.361 -0.7133 -0.9052  0.4988
 9718SOL     OW46763   1.480  10.013  11.241 -0.1364  0.0697  0.0031
 9718SOL    HW146764   1.547   9.949  11.261  1.1562  1.3839  0.0590
 9718SOL    HW246765   1.423   9.970  11.177  0.8263 -1.0239 -0.1353
 9719SOL     OW46766  13.409   9.373   5.176 -0.0221 -0.0662 -0.0445
 9719SOL    HW146767  13.443   9.393   5.089 -0.8416  0.3648 -0.2776
 9719SOL    HW246768  13.431   9.450   5.229 -0.3052  0.0599 -0.1058
 9720SOL     OW46769   4.797   9.854   3.214 -0.5152 -0.1532  0.3933
 9720SOL    HW146770   4.877   9.869   3.265 -1.6248 -0.0861  2.1922
 9720SOL    HW246771   4.739   9.808   3.274 -2.4719  1.3115 -0.2983
 9721SOL     OW46772   6.074   0.772   8.537  0.4535 -0.5600  0.8077
 9721SOL    HW146773   6.004   0.750   8.475 -0.5534  0.5252  1.4917
 9721SOL    HW246774   6.100   0.689   8.575 -1.0280 -0.9309  1.0798
 9722SOL     OW46775  10.294  11.276   1.841  0.4155 -0.0021  0.0132
 9722SOL    HW146776  10.374  11.225   1.856  0.6069  0.2428 -0.1475
 9722SOL    HW246777  10.229  11.212   1.813  0.9027 -0.0480 -1.0592
 9723SOL     OW46778   3.877   9.183   2.306  0.4974  0.1769  0.6223
 9723SOL    HW146779   3.827   9.102   2.299 -1.2489  1.3498 -2.1053
 9723SOL    HW246780   3.951   9.171   2.247  0.4185  0.4460  0.4668
 9724SOL     OW46781  11.454  11.320   3.188  0.1920 -0.3848  0.5065
 9724SOL    HW146782  11.493  11.232   3.185 -2.9639 -1.8834 -0.8870
 9724SOL    HW246783  11.394  11.317   3.263 -0.1176  0.5014  0.3023
 9725SOL     OW46784   1.766   3.398  13.756 -0.1168 -0.2666  0.3409
 9725SOL    HW146785   1.836   3.462  13.755 -0.1017 -0.2834  0.3273
 9725SOL    HW246786   1.685   3.450  13.761 -0.0616 -0.2624  1.6229
 9726SOL     OW46787  12.314   2.589   7.630  0.4336  0.3146  0.1105
 9726SOL    HW146788  12.241   2.650   7.642  0.1217 -0.3095  1.6177
 9726SOL    HW246789  12.279   2.521   7.572 -0.7015 -0.7036  1.8789
 9727SOL     OW46790   6.128   0.513   5.098 -0.6146 -0.3873 -0.7932
 9727SOL    HW146791   6.101   0.471   5.016 -0.3829  1.1432 -1.6952
 9727SOL    HW246792   6.137   0.605   5.075  1.4878 -0.2249  0.4474
 9728SOL     OW46793  13.473  10.680   8.078 -0.1230 -0.1402  0.2541
 9728SOL    HW146794  13.439  10.624   8.008  0.3053  1.4042 -1.2510
 9728SOL    HW246795  13.480  10.767   8.038  1.4073  0.5136  1.8349
 9729SOL     OW46796   6.180  12.236   3.179 -0.3940 -0.2777 -0.1476
 9729SOL    HW146797   6.164  12.330   3.181  2.0717  0.2031  0.0548
 9729SOL    HW246798   6.162  12.207   3.269  2.4576  0.7621  0.8621
 9730SOL     OW46799   5.761  12.371  11.910  0.2086  0.9929 -0.2822
 9730SOL    HW146800   5.794  12.454  11.877 -0.5335  1.0482 -0.9313
 9730SOL    HW246801   5.729  12.325  11.832  1.0052 -0.0980  0.0062
 9731SOL     OW46802   9.190  11.123   3.055 -0.4374  0.3893 -0.1693
 9731SOL    HW146803   9.160  11.083   3.137 -0.6759 -1.1507 -0.9580
 9731SOL    HW246804   9.192  11.050   2.993 -0.0406  1.4780 -1.4791
 9732SOL     OW46805   9.248   3.238   7.367 -0.0404 -0.3769  0.5390
 9732SOL    HW146806   9.276   3.329   7.360  0.3266 -0.5820 -3.2955
 9732SOL    HW246807   9.323   3.192   7.404  1.2450  0.4344 -0.9155
 9733SOL     OW46808   9.561   0.407   5.486  0.5228 -0.2140 -0.0033
 9733SOL    HW146809   9.613   0.360   5.551 -1.2849 -0.7317  1.1479
 9733SOL    HW246810   9.545   0.342   5.417  0.0580 -0.5718  0.4294
 9734SOL     OW46811   6.943   7.395   4.805 -0.3600 -0.3858  0.5801
 9734SOL    HW146812   6.940   7.483   4.768  0.1430 -0.5619  0.1038
 9734SOL    HW246813   6.867   7.350   4.769  0.6232 -0.8502 -1.0254
 9735SOL     OW46814  10.056  13.244   6.579  0.3759 -0.5031  0.3612
 9735SOL    HW146815  10.113  13.243   6.656  2.1404  0.2647 -0.8632
 9735SOL    HW246816  10.110  13.283   6.510 -1.4837 -0.2415 -1.0194
 9736SOL     OW46817  12.285   7.848  11.099 -0.3711 -0.1034  0.8352
 9736SOL    HW146818  12.247   7.851  11.187  1.1633 -0.9147  1.5605
 9736SOL    HW246819  12.309   7.939  11.081  1.8860 -0.3020  2.4802
 9737SOL     OW46820   2.372  10.065   7.244 -0.0705 -1.0092  0.1847
 9737SOL    HW146821   2.398  10.074   7.153 -1.5660  0.5514 -0.1295
 9737SOL    HW246822   2.371  10.154   7.278  0.1419 -1.5347  1.6519
 9738SOL     OW46823  11.558   9.236   7.447 -0.0650  0.1603 -0.6481
 9738SOL    HW146824  11.580   9.289   7.524 -1.2112 -0.5493  0.2011
 9738SOL    HW246825  11.631   9.251   7.386  2.3850 -1.4668  1.6578
 9739SOL     OW46826   4.798  10.719  10.715  0.1738  0.0629  0.0730
 9739SOL    HW146827   4.767  10.810  10.722 -0.9426 -0.3650  1.0065
 9739SOL    HW246828   4.719  10.667  10.705  0.7171 -0.9042  0.6330
 9740SOL     OW46829   0.222   8.886  13.084 -0.7520 -0.7005  0.3835
 9740SOL    HW146830   0.311   8.850  13.084 -0.3457  0.1641 -1.7530
 9740SOL    HW246831   0.185   8.856  13.166  1.6378 -0.7751  1.5339
 9741SOL     OW46832   0.432   9.100   6.243  0.1712 -0.1445  0.0650
 9741SOL    HW146833   0.352   9.050   6.226 -0.4777  1.1839 -0.9218
 9741SOL    HW246834   0.406   9.166   6.306  0.6065  0.0139  0.0818
 9742SOL     OW46835   9.522  13.298  13.933  0.1130 -0.3601 -0.1346
 9742SOL    HW146836   9.469  13.330  13.860  1.1551  1.0648 -0.2972
 9742SOL    HW246837   9.463  13.238  13.980 -1.2778  0.3477 -0.9114
 9743SOL     OW46838   7.823   9.546  12.848 -0.2949 -0.4105  0.4644
 9743SOL    HW146839   7.881   9.474  12.872  1.8248  1.7529  2.3486
 9743SOL    HW246840   7.872   9.597  12.784 -1.1366  0.1377  0.2392
 9744SOL     OW46841  11.707   4.433   0.506 -0.0029  0.5716  0.1237
 9744SOL    HW146842  11.780   4.382   0.541  0.1150  0.6184 -0.0536
 9744SOL    HW246843  11.687   4.391   0.422 -0.3237  0.4215  0.2709
 9745SOL     OW46844   0.770  11.017   7.761  0.1984  0.3185 -0.1462
 9745SOL    HW146845   0.865  11.015   7.745  0.5634 -0.2905  1.8429
 9745SOL    HW246846   0.744  10.925   7.765 -0.0997  0.4481  1.2421
 9746SOL     OW46847   9.482   7.583   0.356 -0.3500  0.3369 -0.4505
 9746SOL    HW146848   9.429   7.527   0.299 -1.4248  0.5197  0.3412
 9746SOL    HW246849   9.538   7.522   0.403 -1.2783 -0.0591  0.1615
 9747SOL     OW46850   2.938  11.001  10.152  0.1525 -0.1300  0.1534
 9747SOL    HW146851   2.868  10.939  10.131  1.4133 -2.1749  1.6143
 9747SOL    HW246852   3.012  10.974  10.098  0.5153  0.5734  0.2858
 9748SOL     OW46853   4.058   3.296   6.460 -0.0546  0.2064 -0.1799
 9748SOL    HW146854   4.103   3.272   6.379 -0.6465  1.4521 -0.9134
 9748SOL    HW246855   3.965   3.293   6.437 -0.1945  1.9758 -0.0028
 9749SOL     OW46856   2.197   6.472   4.381  0.2700 -0.4289  0.4406
 9749SOL    HW146857   2.258   6.522   4.327  0.0805 -0.0274  0.5963
 9749SOL    HW246858   2.118   6.464   4.327 -0.7943  1.9800  1.4947
 9750SOL     OW46859  10.940   1.210  10.486  0.9587  0.1950  0.1412
 9750SOL    HW146860  10.956   1.138  10.426  0.9556  1.6073 -1.6274
 9750SOL    HW246861  11.013   1.207  10.548  0.0316 -2.3691  1.2692
 9751SOL     OW46862  13.468  11.127   2.675 -0.2955 -0.1208  0.3352
 9751SOL    HW146863  13.444  11.219   2.663  0.3641 -0.0655 -0.6333
 9751SOL    HW246864  13.424  11.102   2.756  0.5086  1.3922  1.2936
 9752SOL     OW46865  14.039   7.958  14.081  0.1370  0.2349  0.7714
 9752SOL    HW146866  14.031   7.960  14.177 -1.2386  0.7977  0.6725
 9752SOL    HW246867  14.120   8.004  14.062  0.2611  0.3946  1.6583
 9753SOL     OW46868   3.008  13.535   6.610 -0.7584  0.3779 -0.1948
 9753SOL    HW146869   3.016  13.561   6.519 -1.4188 -1.7798 -0.9343
 9753SOL    HW246870   2.917  13.505   6.619  0.0062 -1.9728  0.3848
 9754SOL     OW46871   5.969   7.790   0.773 -0.5511 -0.0435  0.7080
 9754SOL    HW146872   5.983   7.868   0.826  0.4753  1.3185 -1.4118
 9754SOL    HW246873   5.959   7.719   0.836  0.5213  1.4672  2.6865
 9755SOL     OW46874  12.776   2.367   5.602  0.4359 -0.5964 -0.5644
 9755SOL    HW146875  12.861   2.378   5.645 -0.1390  1.4680  0.1571
 9755SOL    HW246876  12.797   2.352   5.510  1.6094 -2.1551 -0.0833
 9756SOL     OW46877   8.545   0.510  13.418 -0.3505 -0.5479 -0.2450
 9756SOL    HW146878   8.462   0.481  13.381 -0.4514 -1.6561  0.7830
 9756SOL    HW246879   8.572   0.584  13.364 -2.3374  0.2618 -0.1850
 9757SOL     OW46880  11.940   0.963   1.819  0.0921  0.1287  0.5617
 9757SOL    HW146881  12.013   0.901   1.824 -0.7023 -0.7795  1.3549
 9757SOL    HW246882  11.873   0.917   1.770 -0.3042  0.5799  0.6746
 9758SOL     OW46883  11.536   2.097  10.884  0.0040 -0.4078 -0.1576
 9758SOL    HW146884  11.618   2.066  10.846  0.2043 -0.7319  0.5313
 9758SOL    HW246885  11.494   2.019  10.918 -0.9012 -0.3372 -1.0627
 9759SOL     OW46886   6.018   2.351  13.616  0.0482  0.5735  0.2918
 9759SOL    HW146887   6.007   2.443  13.592  0.0724  0.2549 -1.0410
 9759SOL    HW246888   6.112   2.335  13.607  0.1834  0.6393  1.4341
 9760SOL     OW46889  11.016   3.838   3.804  0.8027  0.2173  0.5494
 9760SOL    HW146890  10.950   3.874   3.863  0.3538  1.1592 -0.4951
 9760SOL    HW246891  11.054   3.914   3.761  0.3887 -0.4788 -1.1357
 9761SOL     OW46892  11.219   0.904  10.478 -0.0244 -0.4608 -0.0680
 9761SOL    HW146893  11.130   0.875  10.495 -0.1574  0.1797  0.3315
 9761SOL    HW246894  11.224   0.913  10.383 -0.1452 -1.2389 -0.1602
 9762SOL     OW46895  12.493   6.408  13.541 -0.4885  0.1639  0.2540
 9762SOL    HW146896  12.584   6.415  13.513 -0.5761 -1.5540 -0.5603
 9762SOL    HW246897  12.453   6.491  13.513 -0.0447 -0.5516 -2.8657
 9763SOL     OW46898   1.917   5.584   9.193 -0.2776 -0.3199 -0.4961
 9763SOL    HW146899   1.872   5.649   9.247 -1.2246 -2.3673  1.3339
 9763SOL    HW246900   1.855   5.566   9.122 -0.9105 -0.6964  0.1422
 9764SOL     OW46901   7.544  11.764  11.302 -0.3429 -0.0793 -0.6455
 9764SOL    HW146902   7.544  11.675  11.339 -0.9482 -0.0529 -0.5758
 9764SOL    HW246903   7.615  11.809  11.347  0.4547 -0.7390 -1.1984
 9765SOL     OW46904  12.872   2.194  11.220  0.2730 -0.3064 -0.2821
 9765SOL    HW146905  12.906   2.255  11.285  0.1176  1.0578 -1.4277
 9765SOL    HW246906  12.788   2.165  11.256 -0.1795  1.0374 -0.1997
 9766SOL     OW46907   3.073   2.614   6.574  0.3800 -0.1278  0.4818
 9766SOL    HW146908   3.154   2.598   6.624  1.7054  1.5864 -0.9880
 9766SOL    HW246909   3.042   2.698   6.606 -0.8241 -0.7366  0.9649
 9767SOL     OW46910   4.696  13.106  10.267  0.3580 -0.2250  0.1099
 9767SOL    HW146911   4.604  13.080  10.273  0.3462 -0.2529 -0.1644
 9767SOL    HW246912   4.743  13.023  10.263  0.2624 -0.2297 -1.6215
 9768SOL     OW46913   8.883  11.106   8.236 -0.1194 -0.3983 -0.9556
 9768SOL    HW146914   8.868  11.171   8.168 -0.4226  1.3166  0.6675
 9768SOL    HW246915   8.796  11.083   8.268  0.0551  2.2877  1.8875
 9769SOL     OW46916   3.107  11.575  13.012  0.6109  0.0839  0.2819
 9769SOL    HW146917   3.064  11.529  12.940  0.1236 -1.6776  1.6300
 9769SOL    HW246918   3.071  11.664  13.008 -0.3442 -0.3212 -0.8814
 9770SOL     OW46919  13.924   4.225   1.547 -0.4812  0.0390 -0.2187
 9770SOL    HW146920  13.831   4.242   1.534 -0.3781  0.8757  0.0899
 9770SOL    HW246921  13.938   4.236   1.641 -0.1825 -0.6670 -0.1733
 9771SOL     OW46922   5.566   9.221   4.322  0.6319  0.4106 -0.2985
 9771SOL    HW146923   5.508   9.292   4.296  1.1516  0.3339 -1.7763
 9771SOL    HW246924   5.636   9.264   4.370 -0.0907  0.6271  0.5940
 9772SOL     OW46925   6.709   3.635   1.080 -0.5905  0.4305  0.1264
 9772SOL    HW146926   6.697   3.569   1.148  0.3510  0.3326  0.2150
 9772SOL    HW246927   6.732   3.714   1.127 -1.5467  0.7910  0.0080
 9773SOL     OW46928   1.085   8.922   5.543 -0.6051 -0.3988  0.5920
 9773SOL    HW146929   1.061   8.885   5.628 -2.0003  0.7588  0.7372
 9773SOL    HW246930   1.055   9.013   5.547  0.9853  0.2148 -0.4614
 9774SOL     OW46931  10.355   8.156   1.657 -0.2394 -0.0241 -0.1294
 9774SOL    HW146932  10.270   8.131   1.621 -0.9226  1.4842  0.3229
 9774SOL    HW246933  10.342   8.156   1.752  0.1574  0.5116 -0.0676
 9775SOL     OW46934   8.661  11.346   6.146 -0.0267  0.9254 -0.1727
 9775SOL    HW146935   8.687  11.281   6.081 -1.3102  0.8937 -0.6793
 9775SOL    HW246936   8.666  11.300   6.230 -0.8754  0.1788 -0.5173
 9776SOL     OW46937   8.595   6.560   1.485 -0.1324 -0.1245 -0.6423
 9776SOL    HW146938   8.530   6.490   1.482  1.5621 -2.0053  2.0759
 9776SOL    HW246939   8.677   6.518   1.457  0.4569  1.5264 -1.5579
 9777SOL     OW46940   0.537   6.799  11.523  0.4878 -0.7098 -0.1364
 9777SOL    HW146941   0.474   6.737  11.486 -1.0551  1.1762 -0.8756
 9777SOL    HW246942   0.541   6.871  11.460  0.3763  1.0286  1.6981
 9778SOL     OW46943   5.079  12.499   3.840  0.4766 -0.5925  0.5604
 9778SOL    HW146944   5.091  12.440   3.766 -2.4590 -2.1425  1.1463
 9778SOL    HW246945   4.998  12.547   3.820  1.5118  1.5479  1.2098
 9779SOL     OW46946   8.563  12.798   5.968  0.0244  0.5718 -0.0838
 9779SOL    HW146947   8.569  12.754   6.053  0.7629  0.3207 -0.2648
 9779SOL    HW246948   8.512  12.877   5.986 -0.3509  0.2093  0.4674
 9780SOL     OW46949  13.029  10.864   4.985  0.8269 -0.4231  0.3859
 9780SOL    HW146950  13.053  10.775   5.013 -3.5146 -1.2352  2.3644
 9780SOL    HW246951  13.063  10.921   5.054  2.1420 -0.7134 -0.0019
 9781SOL     OW46952   7.806   6.068   2.845 -0.1449  0.7021 -0.2385
 9781SOL    HW146953   7.764   6.145   2.809 -0.9088  1.8255  2.7168
 9781SOL    HW246954   7.736   6.003   2.853  0.1379  0.2602 -1.1762
 9782SOL     OW46955   4.068  12.655  12.466 -0.1828  0.1679  0.1026
 9782SOL    HW146956   4.141  12.714  12.446 -0.0501 -0.0044  0.0757
 9782SOL    HW246957   4.071  12.589  12.397 -0.4031  0.1958  0.0668
 9783SOL     OW46958  12.657   9.318  11.007 -0.1313  0.0031  0.0497
 9783SOL    HW146959  12.598   9.377  10.960 -0.8056  0.5382  1.5155
 9783SOL    HW246960  12.662   9.240  10.951 -0.5957  0.7562 -1.0791
 9784SOL     OW46961   3.133   0.512  11.886  0.2107 -0.3913 -0.2308
 9784SOL    HW146962   3.207   0.456  11.862  0.8172  0.6692 -0.9526
 9784SOL    HW246963   3.171   0.600  11.889 -0.9723  0.1401 -0.3390
 9785SOL     OW46964   3.444   3.801   8.548 -0.5261 -0.1045  0.3280
 9785SOL    HW146965   3.368   3.757   8.510 -0.5084  0.5769 -0.5245
 9785SOL    HW246966   3.412   3.888   8.571  0.3116  0.7213 -1.3963
 9786SOL     OW46967   5.821   2.754  10.168 -0.2450  0.2900  0.7714
 9786SOL    HW146968   5.881   2.702  10.114  1.1741  1.5192  1.1059
 9786SOL    HW246969   5.746   2.770  10.111 -1.0806 -2.6423  0.8732
 9787SOL     OW46970   0.242   3.769   9.700  0.0207  0.2579  0.0620
 9787SOL    HW146971   0.205   3.687   9.732 -0.8432  0.4667 -0.3642
 9787SOL    HW246972   0.303   3.742   9.631  0.1994 -0.0576  0.3406
 9788SOL     OW46973  11.608   1.404   6.291 -0.2716  0.3274  0.5096
 9788SOL    HW146974  11.524   1.414   6.246 -0.2358 -2.0202 -0.2133
 9788SOL    HW246975  11.593   1.334   6.355  1.5113 -1.3667 -0.8017
 9789SOL     OW46976  13.077   5.781   7.771 -0.7617 -0.5257  0.6541
 9789SOL    HW146977  13.135   5.711   7.738 -1.8976 -1.0362 -0.3374
 9789SOL    HW246978  12.989   5.752   7.748 -1.2455  1.4283 -0.1490
 9790SOL     OW46979   8.702   6.642   8.942  0.2675 -0.3202 -0.5317
 9790SOL    HW146980   8.709   6.641   9.037 -0.5826  0.3760 -0.4556
 9790SOL    HW246981   8.668   6.556   8.919 -0.4486 -0.1517 -0.1244
 9791SOL     OW46982   2.857  13.069   6.552 -0.0322 -0.2997  0.4816
 9791SOL    HW146983   2.858  13.106   6.640  0.1071 -0.7958  0.6938
 9791SOL    HW246984   2.781  13.011   6.552  0.2105 -0.6190  0.4101
 9792SOL     OW46985  13.128   4.257   7.179 -0.0062  0.0241 -0.1695
 9792SOL    HW146986  13.109   4.350   7.195 -1.2029 -0.1292 -0.6441
 9792SOL    HW246987  13.076   4.235   7.102  0.9490 -0.8257 -0.5933
 9793SOL     OW46988  13.051  13.494   1.391 -0.9185  0.1687  0.1581
 9793SOL    HW146989  13.119  13.438   1.429 -0.0606 -0.1797 -1.7933
 9793SOL    HW246990  13.074  13.583   1.420 -0.8771 -0.1855  1.2522
 9794SOL     OW46991  10.627   0.866  13.562  0.0264  0.3093  0.1628
 9794SOL    HW146992  10.596   0.921  13.633 -2.1147 -0.1650 -0.3506
 9794SOL    HW246993  10.644   0.781  13.603  2.9396  1.1223  0.8727
 9795SOL     OW46994   5.898   4.134  10.169 -0.0707  0.1510 -0.4280
 9795SOL    HW146995   5.849   4.162  10.091 -0.0550  0.3431 -0.3700
 9795SOL    HW246996   5.969   4.079  10.135 -0.0259  0.2883 -0.5545
 9796SOL     OW46997  13.523   2.836   5.660  0.2169 -0.0339 -0.3181
 9796SOL    HW146998  13.490   2.762   5.609 -0.7653 -0.5871  1.0842
 9796SOL    HW246999  13.444   2.881   5.691  0.7986  1.4615 -0.9191
 9797SOL     OW47000   7.584   6.104  12.638  0.0582 -0.2477  0.1066
 9797SOL    HW147001   7.555   6.145  12.557  0.7033  3.6648  1.6351
 9797SOL    HW247002   7.674   6.135  12.649 -0.4864  0.6213  2.9747
 9798SOL     OW47003   7.175   0.204   6.774  0.5610  0.0406 -0.6851
 9798SOL    HW147004   7.103   0.226   6.834  0.8147  1.2428 -0.7945
 9798SOL    HW247005   7.135   0.148   6.708  0.3099 -1.4612  0.6842
 9799SOL     OW47006   1.546  12.637   0.238  0.0156  0.4150  0.4690
 9799SOL    HW147007   1.515  12.701   0.175  1.8936  0.1356 -0.8075
 9799SOL    HW247008   1.543  12.683   0.322 -0.4111  1.5480 -0.1419
 9800SOL     OW47009  12.367   8.872   7.583 -0.5925  0.1033 -0.5344
 9800SOL    HW147010  12.315   8.935   7.533 -3.1798 -1.0854  0.4540
 9800SOL    HW247011  12.355   8.898   7.674  2.1727  0.8737 -0.2960
 9801SOL     OW47012   2.175  11.199  11.220 -0.2599  0.3039  0.1300
 9801SOL    HW147013   2.139  11.221  11.305  1.2815 -1.1865  1.2291
 9801SOL    HW247014   2.267  11.223  11.225 -0.2455  0.7069 -1.3427
 9802SOL     OW47015   2.832  13.587  10.519 -0.5263  0.3834  0.0098
 9802SOL    HW147016   2.864  13.651  10.583  0.0465  0.7048 -0.5802
 9802SOL    HW247017   2.758  13.631  10.476 -0.9043  0.1708  0.4424
 9803SOL     OW47018   4.176   7.055   0.087  0.1553 -0.2799 -0.0168
 9803SOL    HW147019   4.081   7.051   0.077  0.2976 -1.0382 -1.3349
 9803SOL    HW247020   4.200   7.141   0.052 -0.1110  0.2491  1.0730
 9804SOL     OW47021  10.649  12.442   0.824  0.0846  0.5670 -0.5162
 9804SOL    HW147022  10.611  12.499   0.756  0.5053  0.6712 -0.6686
 9804SOL    HW247023  10.574  12.396   0.861 -0.2164  0.9333 -0.6608
 9805SOL     OW47024   8.338  10.651   2.618 -0.3599 -0.1576  0.1768
 9805SOL    HW147025   8.423  10.650   2.660  0.2033  0.8521 -0.8741
 9805SOL    HW247026   8.354  10.616   2.530 -0.8512  0.8090 -0.3136
 9806SOL     OW47027  12.626   1.283  10.304  0.1849 -0.6628 -0.3065
 9806SOL    HW147028  12.634   1.373  10.337 -0.8266 -0.6064 -0.1744
 9806SOL    HW247029  12.535   1.277  10.276  0.2331 -1.6694 -0.2611
 9807SOL     OW47030  11.208   5.207   7.512  0.2533 -0.1219 -0.2518
 9807SOL    HW147031  11.113   5.197   7.513  0.2429 -0.2457  1.2835
 9807SOL    HW247032  11.241   5.125   7.475 -0.2035 -0.9093  1.0182
 9808SOL     OW47033   3.137  10.453   7.676 -0.2001 -0.1154 -0.1092
 9808SOL    HW147034   3.187  10.419   7.750  0.8373  2.6339  0.5898
 9808SOL    HW247035   3.194  10.441   7.600 -0.2877 -0.8483 -0.0605
 9809SOL     OW47036   1.375  10.254   0.424  0.6931  0.3832 -0.1216
 9809SOL    HW147037   1.299  10.203   0.451  0.9389 -0.6204 -1.2338
 9809SOL    HW247038   1.450  10.207   0.463  0.8466  0.5032 -0.2715
 9810SOL     OW47039  11.405   8.140   7.066  0.1612 -0.0010  0.3051
 9810SOL    HW147040  11.428   8.233   7.060 -0.5848  0.1602 -0.1484
 9810SOL    HW247041  11.315   8.140   7.098  0.3292 -0.5872  0.7870
 9811SOL     OW47042   2.470   4.237   9.742 -0.1266 -0.3917  0.8341
 9811SOL    HW147043   2.530   4.257   9.813 -0.7541 -2.2263  1.9635
 9811SOL    HW247044   2.501   4.153   9.708  0.2213  0.4947 -1.1613
 9812SOL     OW47045   0.519   8.852   9.339 -0.3232  0.4511  0.2474
 9812SOL    HW147046   0.473   8.822   9.418 -0.0445  2.1362  1.1080
 9812SOL    HW247047   0.610   8.864   9.368 -0.2426  1.1987 -0.2847
 9813SOL     OW47048  11.049  13.990  10.716 -0.2060 -0.1142  0.0540
 9813SOL    HW147049  11.038  13.905  10.759 -1.2363  0.5937  1.2925
 9813SOL    HW247050  11.020  13.975  10.626  0.3811 -1.2447  0.0311
 9814SOL     OW47051  11.185  12.833  13.857 -0.6062  0.4726  0.4515
 9814SOL    HW147052  11.260  12.784  13.891 -2.2636 -1.2582  1.8560
 9814SOL    HW247053  11.124  12.766  13.829 -0.5700  1.8258 -3.3935
 9815SOL     OW47054   2.926   5.933   3.716 -0.2055 -0.1295  0.0832
 9815SOL    HW147055   2.972   6.017   3.718 -1.3328  0.5650 -1.2485
 9815SOL    HW247056   2.852   5.944   3.777 -0.9512  0.2465 -0.8595
 9816SOL     OW47057  12.928   8.716  12.438  0.2074  0.9495  0.0880
 9816SOL    HW147058  12.841   8.677  12.450  0.8214 -0.3581  0.5278
 9816SOL    HW247059  12.965   8.669  12.364  1.3423 -0.0836  1.2452
 9817SOL     OW47060  12.155   7.854   9.892  0.1326  0.2553  0.0436
 9817SOL    HW147061  12.171   7.945   9.915 -0.9622  1.3922 -3.2385
 9817SOL    HW247062  12.081   7.828   9.947  0.2969  1.3699  0.8344
 9818SOL     OW47063   3.897  10.479  13.033  0.2681  0.3015  0.0182
 9818SOL    HW147064   3.829  10.440  12.977  0.2084  0.6743 -0.1785
 9818SOL    HW247065   3.850  10.542  13.087  0.0906 -1.0388  1.5048
 9819SOL     OW47066   7.765  12.616   3.602 -0.6234  0.2634  0.2796
 9819SOL    HW147067   7.697  12.621   3.535 -0.5450  1.2875  0.2630
 9819SOL    HW247068   7.764  12.702   3.644  1.4691  0.7422 -0.5186
 9820SOL     OW47069   5.811   9.087  11.565 -0.3157  0.0532  0.1772
 9820SOL    HW147070   5.749   9.055  11.500  0.1030  0.8046 -0.6201
 9820SOL    HW247071   5.868   9.147  11.516 -0.2739  0.9925  1.3296
 9821SOL     OW47072   0.278  12.286  12.857 -0.1069  0.0076 -0.3776
 9821SOL    HW147073   0.267  12.217  12.923  0.3586  0.1567 -0.1401
 9821SOL    HW247074   0.373  12.290  12.843 -0.1533  0.4392 -0.5646
 9822SOL     OW47075  12.052  11.358   0.947 -0.2681 -0.0947  0.2712
 9822SOL    HW147076  12.058  11.263   0.941  0.9135  0.0395 -1.7444
 9822SOL    HW247077  12.007  11.384   0.867 -1.4331  1.0178  1.2446
 9823SOL     OW47078   6.231  11.219  11.632  0.6519  0.0854 -0.6240
 9823SOL    HW147079   6.308  11.227  11.687  0.7704  1.3452 -0.9449
 9823SOL    HW247080   6.225  11.303  11.585 -2.1137  0.9196  0.9813
 9824SOL     OW47081   9.600   4.096  10.841  0.5895 -0.1111 -0.2307
 9824SOL    HW147082   9.617   4.044  10.762  0.7596  1.1919 -1.1001
 9824SOL    HW247083   9.658   4.058  10.907  0.2519 -1.4018 -0.6452
 9825SOL     OW47084   1.003  13.728   6.795  0.1295 -0.6525 -0.1450
 9825SOL    HW147085   1.041  13.643   6.815 -0.3995 -0.1956  3.4014
 9825SOL    HW247086   0.912  13.709   6.771 -0.4218 -1.0832  2.0744
 9826SOL     OW47087   1.943   6.471   4.560 -1.0358 -0.7744 -0.1347
 9826SOL    HW147088   1.876   6.480   4.492 -1.5600  0.3441  0.5169
 9826SOL    HW247089   1.907   6.406   4.621 -1.1404 -0.8045 -0.2280
 9827SOL     OW47090   2.350   5.659   4.503 -0.1840  0.0723 -0.3294
 9827SOL    HW147091   2.414   5.706   4.449  1.1144 -0.7182  0.4464
 9827SOL    HW247092   2.266   5.699   4.482  0.5783  1.2171 -1.3247
 9828SOL     OW47093  10.317   5.013   3.216  0.2910  0.0564 -0.1062
 9828SOL    HW147094  10.299   5.007   3.122 -0.2650 -0.0532  0.0035
 9828SOL    HW247095  10.274   4.937   3.254  2.5724 -1.3071 -0.0425
 9829SOL     OW47096   0.767  13.063   8.749 -0.5233  0.2464  0.3693
 9829SOL    HW147097   0.848  13.102   8.715  0.7351 -1.5387  1.1634
 9829SOL    HW247098   0.721  13.136   8.791 -0.6182  1.8523 -2.2602
 9830SOL     OW47099  13.996  11.412   3.998  0.0129 -0.4730 -0.5868
 9830SOL    HW147100  14.008  11.366   4.081 -0.4133 -2.3293 -1.5151
 9830SOL    HW247101  13.949  11.493   4.022  0.2261 -0.7876  1.0046
 9831SOL     OW47102   3.442   5.962  13.380  0.0768  0.5430 -0.4369
 9831SOL    HW147103   3.527   5.920  13.394  0.3027  0.1414 -2.6535
 9831SOL    HW247104   3.463   6.052  13.357 -0.2031  0.8349  0.3994
 9832SOL     OW47105   5.599   2.017   8.955 -0.0684  0.7568 -0.3716
 9832SOL    HW147106   5.666   1.956   8.926  0.9292  0.9095  1.4446
 9832SOL    HW247107   5.560   1.976   9.032  1.3937  2.7350  1.5984
 9833SOL     OW47108   3.136  12.907   0.341 -0.2587  0.3736 -0.2972
 9833SOL    HW147109   3.080  12.980   0.316  0.3040  0.2381 -2.1458
 9833SOL    HW247110   3.093  12.830   0.303 -1.7355 -0.6063  2.9959
 9834SOL     OW47111   6.867   9.642  12.569 -0.1046  0.2370 -0.3234
 9834SOL    HW147112   6.819   9.665  12.648 -0.0747  2.3310 -0.8672
 9834SOL    HW247113   6.799   9.624  12.504 -0.1601  1.0108 -0.4892
 9835SOL     OW47114   5.894  13.367  13.096  0.0278 -0.0243 -0.5220
 9835SOL    HW147115   5.970  13.426  13.091  0.0597 -0.0306 -0.1727
 9835SOL    HW247116   5.909  13.317  13.177  0.5602 -1.2792 -1.3678
 9836SOL     OW47117   5.559   8.206   0.131 -0.6782 -0.8389  0.4496
 9836SOL    HW147118   5.470   8.173   0.124 -0.9639  0.1654 -0.9471
 9836SOL    HW247119   5.549   8.299   0.150  0.0276 -0.4467 -0.9600
 9837SOL     OW47120  13.005   4.006   5.185  0.1001 -0.0415  0.3738
 9837SOL    HW147121  12.999   3.917   5.152  0.2655  0.9533 -2.7208
 9837SOL    HW247122  13.099   4.022   5.195  0.0516 -0.3340  1.4473
 9838SOL     OW47123  13.653   4.047   7.722 -0.0872  0.1599 -0.7262
 9838SOL    HW147124  13.569   4.090   7.738  0.9750  1.5503  1.7164
 9838SOL    HW247125  13.717   4.118   7.727  1.3569 -1.0558 -1.3000
 9839SOL     OW47126   8.640   1.763   6.193 -0.5193 -0.0722 -0.5284
 9839SOL    HW147127   8.571   1.713   6.148  0.4733 -1.6698 -0.3178
 9839SOL    HW247128   8.674   1.704   6.260  0.6284  0.9277 -0.1914
 9840SOL     OW47129   1.581   3.935   7.246 -0.5270  0.3666  0.1772
 9840SOL    HW147130   1.587   4.030   7.251  0.8253  0.2574  1.0822
 9840SOL    HW247131   1.653   3.903   7.300 -2.4107 -1.1803  1.9656
 9841SOL     OW47132   6.615   1.044  13.437 -0.0180  0.4161  0.0079
 9841SOL    HW147133   6.688   0.985  13.456 -0.0486  0.3794  0.0100
 9841SOL    HW247134   6.537   0.996  13.464 -0.1350  0.0451 -0.9409
 9842SOL     OW47135   2.706   6.263   7.128 -0.0598 -0.0197  0.2548
 9842SOL    HW147136   2.735   6.216   7.050 -1.3710  0.1978 -0.4010
 9842SOL    HW247137   2.624   6.220   7.153 -0.3766  0.8022  0.6760
 9843SOL     OW47138  10.593   4.057   1.795 -0.0690  0.2610 -0.1440
 9843SOL    HW147139  10.632   4.005   1.725  0.1183 -1.7551  1.3537
 9843SOL    HW247140  10.518   4.100   1.755  0.8460  0.2870 -1.9000
 9844SOL     OW47141   4.110   4.336  13.573  0.4372 -0.3114 -0.4427
 9844SOL    HW147142   4.102   4.428  13.549 -1.0554 -0.0664  0.8529
 9844SOL    HW247143   4.199   4.328  13.609 -0.3816  1.3850  2.2625
 9845SOL     OW47144  11.038   6.277   5.867  0.3971  0.0955  0.1746
 9845SOL    HW147145  11.018   6.360   5.910 -1.7241  0.2403 -0.9566
 9845SOL    HW247146  10.972   6.216   5.900  0.8670 -0.6844 -0.2932
 9846SOL     OW47147   1.551   6.211  13.674 -0.3079 -0.0914 -0.5020
 9846SOL    HW147148   1.510   6.141  13.622 -3.0655  0.9771  0.0615
 9846SOL    HW247149   1.533   6.291  13.625 -0.3507  0.6036  0.6256
 9847SOL     OW47150   6.979   4.368   1.118 -0.0137  0.4689 -0.4407
 9847SOL    HW147151   6.921   4.442   1.099  1.8482  2.0411 -0.1759
 9847SOL    HW247152   6.978   4.316   1.037 -0.4548  1.3712 -1.0239
 9848SOL     OW47153   9.815  12.866  11.864 -0.5254  0.1677  0.2297
 9848SOL    HW147154   9.725  12.870  11.895 -0.3982  1.8666  0.4716
 9848SOL    HW247155   9.841  12.775  11.875 -1.7567 -0.0522  1.4563
 9849SOL     OW47156   0.171  10.889  11.142  0.5008  0.1305  0.3393
 9849SOL    HW147157   0.100  10.934  11.097 -0.4176 -0.5131  1.1032
 9849SOL    HW247158   0.223  10.960  11.181  0.3328  0.6091 -0.2929
 9850SOL     OW47159   2.979  10.346  10.538  0.2948  0.1785  0.1460
 9850SOL    HW147160   2.945  10.358  10.627  1.2247 -1.7689  0.8089
 9850SOL    HW247161   2.900  10.329  10.485 -0.4959  3.2360  0.1204
 9851SOL     OW47162  12.382   4.987   6.159 -0.5845  0.0085 -0.1282
 9851SOL    HW147163  12.404   4.908   6.110 -0.2452  0.3385 -0.5163
 9851SOL    HW247164  12.466   5.031   6.174 -0.6944 -0.0244  0.6481
 9852SOL     OW47165   0.088   7.677   9.006  0.3117 -0.0105  0.0105
 9852SOL    HW147166   0.085   7.665   9.101  3.6960  0.8667  0.3384
 9852SOL    HW247167   0.033   7.753   8.990 -2.6310 -1.7943  0.7804
 9853SOL     OW47168   4.803   7.413   1.009  0.0707  0.5317 -0.0441
 9853SOL    HW147169   4.723   7.464   1.023  0.8011  1.3251  1.5346
 9853SOL    HW247170   4.838   7.445   0.926 -0.5084  1.1992 -0.0374
 9854SOL     OW47171   0.414   4.234   6.067 -0.4459  0.0094  0.1506
 9854SOL    HW147172   0.440   4.298   6.132  1.3297 -0.9863  0.4706
 9854SOL    HW247173   0.334   4.270   6.029 -1.7261  0.4877  3.0511
 9855SOL     OW47174   3.179  13.464   2.086  0.0416  0.2169 -0.1627
 9855SOL    HW147175   3.088  13.494   2.095 -0.2870 -0.8232  0.1029
 9855SOL    HW247176   3.177  13.372   2.114  1.1488  0.1383 -0.3029
 9856SOL     OW47177   4.475  10.968  12.723 -0.1000  0.0562  0.2247
 9856SOL    HW147178   4.381  10.953  12.709 -0.0146 -1.5315  1.0908
 9856SOL    HW247179   4.480  11.056  12.761 -1.3686 -0.3247  1.3497
 9857SOL     OW47180  13.863  11.657   4.023  0.4115 -0.1981  0.4893
 9857SOL    HW147181  13.849  11.728   3.960 -1.3462 -0.8533  0.0800
 9857SOL    HW247182  13.925  11.692   4.086  1.0737  1.0038 -0.7811
 9858SOL     OW47183   1.118   4.758   1.225  0.3559  0.0207  0.0894
 9858SOL    HW147184   1.060   4.832   1.242  1.7047  1.5780 -1.6733
 9858SOL    HW247185   1.118   4.749   1.130  1.3800 -1.2989  0.1851
 9859SOL     OW47186   1.038   1.170   6.492  0.0140 -0.1029  0.0203
 9859SOL    HW147187   1.130   1.198   6.485 -0.2213  0.6738 -0.1005
 9859SOL    HW247188   1.043   1.079   6.520  0.8375  0.7530  3.1013
 9860SOL     OW47189   5.151   0.958   6.579  0.1706 -0.4576 -0.2556
 9860SOL    HW147190   5.209   1.004   6.640 -0.8935  0.1831  0.2945
 9860SOL    HW247191   5.182   0.983   6.493  0.2598  0.4801  0.0382
 9861SOL     OW47192   8.226   8.070  13.828 -0.5956  0.1244  0.1120
 9861SOL    HW147193   8.290   7.998  13.828 -2.5422 -1.9266  3.7941
 9861SOL    HW247194   8.279   8.149  13.817  2.3060 -1.6152  0.5749
 9862SOL     OW47195   9.726   2.515   6.334 -0.0721 -0.5280  0.4024
 9862SOL    HW147196   9.755   2.590   6.385  2.7555  0.3583 -2.2298
 9862SOL    HW247197   9.800   2.455   6.336 -1.0210 -1.7694 -0.2848
 9863SOL     OW47198   2.567   0.282   2.165 -0.3899 -0.0950 -0.0886
 9863SOL    HW147199   2.507   0.298   2.092 -1.0217 -0.6230  0.2996
 9863SOL    HW247200   2.548   0.353   2.227  1.4252  1.4337 -1.1943
 9864SOL     OW47201   1.089   7.291   9.530  0.5128  0.5268  0.0942
 9864SOL    HW147202   1.132   7.257   9.452 -1.1227  0.4403 -0.8136
 9864SOL    HW247203   1.114   7.384   9.533  1.1898  0.3565 -0.0837
 9865SOL     OW47204   3.291   8.317  10.416 -0.2499 -0.1684 -0.0453
 9865SOL    HW147205   3.222   8.335  10.352 -0.3463 -0.6425 -0.0792
 9865SOL    HW247206   3.257   8.352  10.498 -0.8989 -1.1146  0.1130
 9866SOL     OW47207  12.127   7.580   5.292 -0.1391  0.5828 -0.2766
 9866SOL    HW147208  12.155   7.605   5.204 -1.7930  4.0523  0.0037
 9866SOL    HW247209  12.137   7.659   5.344 -1.3730 -0.7053  2.1194
 9867SOL     OW47210  11.662  10.558   1.491 -0.0027  0.3819 -0.4695
 9867SOL    HW147211  11.664  10.599   1.404  0.6180  1.5739  0.0945
 9867SOL    HW247212  11.734  10.599   1.539  0.0403 -0.6998  0.4254
 9868SOL     OW47213  11.752   4.737   4.844 -0.1427 -0.2610 -0.2037
 9868SOL    HW147214  11.725   4.646   4.854  0.4747 -0.2340  2.3772
 9868SOL    HW247215  11.814   4.752   4.916 -0.8577  2.4398 -0.0413
 9869SOL     OW47216   0.568  11.913   1.636  0.0166 -0.0565  0.0748
 9869SOL    HW147217   0.517  11.930   1.557 -0.4252  1.7421  0.7110
 9869SOL    HW247218   0.610  11.996   1.657  0.1695 -0.5021  1.6932
 9870SOL     OW47219  10.233   5.397  12.053  0.1115 -0.2560  0.1958
 9870SOL    HW147220  10.287   5.319  12.068 -0.0953  0.0065  2.9661
 9870SOL    HW247221  10.144   5.363  12.042  0.4446 -0.5466 -2.0494
 9871SOL     OW47222   0.064   4.632   3.679 -0.3699 -0.2874  0.2504
 9871SOL    HW147223   0.128   4.574   3.638  0.4499  1.3993 -0.9827
 9871SOL    HW247224  -0.001   4.648   3.612 -1.1849 -0.6260  0.9451
 9872SOL     OW47225   7.823   0.125   1.965  0.3862 -0.4244 -0.4688
 9872SOL    HW147226   7.800   0.077   2.045 -1.0254 -0.2764 -0.7611
 9872SOL    HW247227   7.744   0.173   1.942  1.5051  1.4257 -0.6497
 9873SOL     OW47228   7.496  10.768  10.109  0.4098 -0.2089  0.0011
 9873SOL    HW147229   7.430  10.741  10.045 -0.0429  1.1875 -0.1618
 9873SOL    HW247230   7.509  10.691  10.165 -1.4822 -0.4780  0.1351
 9874SOL     OW47231   3.594   4.439   5.859 -0.7017 -0.6588  0.1495
 9874SOL    HW147232   3.689   4.447   5.857 -0.5754 -2.0376 -1.2181
 9874SOL    HW247233   3.575   4.361   5.808 -2.6383  0.1581 -0.4957
 9875SOL     OW47234   7.403   3.661  12.060 -0.0134 -0.5938  0.5613
 9875SOL    HW147235   7.367   3.596  12.121 -1.4001 -0.6144 -0.2594
 9875SOL    HW247236   7.458   3.609  12.001 -0.0648 -0.8164  0.7055
 9876SOL     OW47237   6.613   8.331   2.830  0.3260  0.2308  0.1482
 9876SOL    HW147238   6.560   8.328   2.750  0.3622  0.2590  0.1231
 9876SOL    HW247239   6.694   8.375   2.803  1.1478 -1.4700 -0.2877
 9877SOL     OW47240   0.974   3.781   6.982 -0.2301 -0.5356 -0.2522
 9877SOL    HW147241   0.890   3.826   6.973 -0.3456 -1.0914 -2.5012
 9877SOL    HW247242   0.951   3.688   6.984  0.2330 -0.6390  1.0102
 9878SOL     OW47243   2.413   1.448  11.717 -0.0012  0.0448 -0.2787
 9878SOL    HW147244   2.425   1.426  11.810 -0.1938 -1.6425 -0.6295
 9878SOL    HW247245   2.322   1.477  11.711 -0.3447 -0.9685 -0.1292
 9879SOL     OW47246   4.155   2.790  12.408  0.5995 -0.1135  0.2646
 9879SOL    HW147247   4.078   2.811  12.355  1.3255 -1.1828 -1.2975
 9879SOL    HW247248   4.121   2.740  12.482 -0.1496 -1.3369 -0.8749
 9880SOL     OW47249   8.742   7.706   2.437  0.2156  0.0095  0.4332
 9880SOL    HW147250   8.817   7.650   2.419  0.1442  0.0729 -0.0691
 9880SOL    HW247251   8.666   7.655   2.411  0.1361  0.2511  0.1809
 9881SOL     OW47252  12.393   5.568   0.117  0.0465  0.1188 -0.2915
 9881SOL    HW147253  12.402   5.475   0.096  1.1274 -0.0191  0.6660
 9881SOL    HW247254  12.480   5.594   0.149 -0.6500  1.0517  0.9657
 9882SOL     OW47255  10.399   3.764   3.226 -0.2402 -0.0868  0.1059
 9882SOL    HW147256  10.338   3.693   3.248 -0.5305 -0.1347 -0.7974
 9882SOL    HW247257  10.474   3.748   3.283 -1.0447 -0.0377  1.2303
 9883SOL     OW47258  10.134   9.149   4.247  0.3477  0.2656  0.3669
 9883SOL    HW147259  10.055   9.118   4.203  0.3729 -1.0323  1.1833
 9883SOL    HW247260  10.109   9.234   4.284 -0.2191  0.5200 -0.5597
 9884SOL     OW47261   1.050   5.187   9.769  0.0522  0.1272 -0.1060
 9884SOL    HW147262   0.988   5.144   9.711 -0.6432  1.3575 -0.3265
 9884SOL    HW247263   1.052   5.278   9.738  0.9649  0.4113  0.7323
 9885SOL     OW47264  12.727  10.715   5.530 -0.3781 -0.4671  0.3575
 9885SOL    HW147265  12.633  10.732   5.535 -0.6091 -0.8884 -1.5025
 9885SOL    HW247266  12.733  10.625   5.498  0.6019  0.1344 -1.2752
 9886SOL     OW47267   8.828   9.290  10.891 -0.2365  0.6706  1.1471
 9886SOL    HW147268   8.761   9.222  10.889 -0.0872  0.4171 -2.0763
 9886SOL    HW247269   8.900   9.251  10.940 -1.1653 -0.4173  1.6852
 9887SOL     OW47270   3.498   8.305   2.557  0.3838  0.0888  0.2632
 9887SOL    HW147271   3.526   8.283   2.646 -1.1876 -2.0648  0.3032
 9887SOL    HW247272   3.411   8.346   2.569  0.0737 -0.4017 -0.2798
 9888SOL     OW47273   5.973   6.577   0.418 -0.0173 -0.0575 -0.2353
 9888SOL    HW147274   5.918   6.541   0.488  0.5893 -1.4804 -0.4741
 9888SOL    HW247275   5.947   6.529   0.339  1.4581 -0.6718 -0.3812
 9889SOL     OW47276   8.727  10.013   0.236  0.1018 -0.0333 -0.3182
 9889SOL    HW147277   8.809  10.061   0.227  0.6319 -0.5676  1.3900
 9889SOL    HW247278   8.745   9.927   0.197  0.4009 -0.1842  0.1414
 9890SOL     OW47279  11.911   1.996   0.114 -0.5543 -0.3312  0.2675
 9890SOL    HW147280  11.961   1.924   0.074  0.4966 -0.4197  1.6768
 9890SOL    HW247281  11.925   1.986   0.208 -0.4349  1.7018  0.5096
 9891SOL     OW47282   9.335  10.858   7.334  0.0938  0.3148  0.0932
 9891SOL    HW147283   9.320  10.876   7.427  2.1881 -1.6191  0.8803
 9891SOL    HW247284   9.363  10.943   7.298  1.5965  0.5864  1.7869
 9892SOL     OW47285   1.814   3.702  10.111 -0.4263  0.3550  0.1652
 9892SOL    HW147286   1.754   3.744  10.050  0.9457 -0.4260 -1.8274
 9892SOL    HW247287   1.867   3.773  10.146  0.3752  0.5892 -1.4473
 9893SOL     OW47288   9.951   5.870   8.391  0.1719 -0.1483  0.5913
 9893SOL    HW147289   9.997   5.934   8.336 -2.4556 -0.3401 -2.0966
 9893SOL    HW247290   9.996   5.787   8.375  1.4430  0.3594  1.3712
 9894SOL     OW47291   1.063   7.359   5.237 -0.1356  0.7909  0.7115
 9894SOL    HW147292   1.020   7.439   5.268 -1.7937 -0.4536  1.8185
 9894SOL    HW247293   1.085   7.378   5.146 -0.2189  2.6026  1.0220
 9895SOL     OW47294  10.794  10.339   2.477  0.3903  0.5679  0.5519
 9895SOL    HW147295  10.780  10.345   2.383  4.2018  1.0493 -0.1538
 9895SOL    HW247296  10.770  10.426   2.511  0.0162  0.7327 -0.1244
 9896SOL     OW47297   3.261   1.017   2.321 -0.0121  0.2985  0.3833
 9896SOL    HW147298   3.180   0.975   2.293  0.3299  0.2809 -0.5939
 9896SOL    HW247299   3.236   1.108   2.337 -0.0003  0.5783 -1.0642
 9897SOL     OW47300   9.952   3.267   1.348 -0.6584 -0.0702  0.3456
 9897SOL    HW147301   9.912   3.340   1.301  0.1945  1.0560  1.3057
 9897SOL    HW247302  10.013   3.308   1.408  1.2454 -1.6866 -0.3879
 9898SOL     OW47303  12.982   4.662  12.781  0.1633  0.0747  0.1836
 9898SOL    HW147304  13.029   4.602  12.724 -1.7824 -0.1718 -1.2813
 9898SOL    HW247305  12.894   4.625  12.787 -1.1972  2.8073 -0.9519
 9899SOL     OW47306   6.219   4.018  12.516 -0.2751 -0.0910  0.2202
 9899SOL    HW147307   6.213   4.012  12.612  0.6447 -0.0730  0.2900
 9899SOL    HW247308   6.132   4.043  12.488 -0.8352 -1.1094  0.9789
 9900SOL     OW47309   8.446   1.413   1.780 -0.2669 -0.6313 -0.1151
 9900SOL    HW147310   8.494   1.333   1.759  1.2275  0.5859 -1.4825
 9900SOL    HW247311   8.457   1.469   1.704 -1.1764  0.9633  0.8723
 9901SOL     OW47312   3.828   7.630   1.749 -0.1688  0.1551 -0.0239
 9901SOL    HW147313   3.803   7.538   1.753 -0.2439  0.1105 -1.1210
 9901SOL    HW247314   3.858   7.651   1.837 -0.8137 -0.7254  0.4203
 9902SOL     OW47315   5.756   1.891   4.527 -0.5489  0.3343 -0.2208
 9902SOL    HW147316   5.765   1.873   4.621  3.1897  1.1393 -0.2643
 9902SOL    HW247317   5.765   1.986   4.520  0.5397  0.1686 -1.4205
 9903SOL     OW47318   3.741   5.415   2.177 -0.1428  0.1666  0.7813
 9903SOL    HW147319   3.661   5.371   2.150  0.4974 -0.4831 -0.1227
 9903SOL    HW247320   3.809   5.348   2.171  0.2170  0.2250  3.1728
 9904SOL     OW47321   1.461   2.587  11.818  0.0354 -0.0838  0.4426
 9904SOL    HW147322   1.367   2.578  11.805 -0.0757  1.1840  0.1643
 9904SOL    HW247323   1.486   2.661  11.761  1.4561 -1.3127 -0.6196
 9905SOL     OW47324   5.628  13.369   0.638  0.0572 -0.1483  0.2667
 9905SOL    HW147325   5.699  13.423   0.673 -0.0642  0.1875 -0.0015
 9905SOL    HW247326   5.560  13.431   0.612 -0.6321 -0.4969  1.1498
 9906SOL     OW47327  10.692   5.765   6.342  0.0323  0.0645 -0.0446
 9906SOL    HW147328  10.726   5.715   6.417  0.9265  0.0679 -0.4388
 9906SOL    HW247329  10.727   5.853   6.355  0.7624 -0.0982 -0.8126
 9907SOL     OW47330   1.603  12.758   5.835  0.6808  0.7115 -0.0151
 9907SOL    HW147331   1.613  12.816   5.911 -0.1021 -0.3125  0.9005
 9907SOL    HW247332   1.660  12.797   5.769 -0.6391  3.1752  0.1446
 9908SOL     OW47333  11.239  13.480   9.032 -0.1813  0.0409  0.5752
 9908SOL    HW147334  11.249  13.503   8.939  0.3863  0.6673  0.7753
 9908SOL    HW247335  11.247  13.564   9.077 -1.0272 -0.1882  1.1536
 9909SOL     OW47336   2.819  13.349   1.387  0.3249  0.0222 -0.3782
 9909SOL    HW147337   2.818  13.402   1.307  0.5720  0.0183 -0.3832
 9909SOL    HW247338   2.912  13.332   1.404  0.2422 -0.5438 -0.4666
 9910SOL     OW47339   3.350   4.168   5.354 -0.1209 -0.1094  0.5491
 9910SOL    HW147340   3.440   4.167   5.388  0.0664 -0.2282  0.0470
 9910SOL    HW247341   3.351   4.234   5.285 -0.4126 -0.1433  0.5106
 9911SOL     OW47342   0.478   3.316  10.165 -0.3297 -0.4270  0.0887
 9911SOL    HW147343   0.481   3.230  10.206 -0.0761 -1.3092 -1.7117
 9911SOL    HW247344   0.563   3.355  10.183 -0.1883 -0.8396  0.3046
 9912SOL     OW47345  13.963   0.226   5.542  0.1509  0.2168 -0.0573
 9912SOL    HW147346  13.968   0.140   5.500 -1.8407  0.5566 -1.1014
 9912SOL    HW247347  14.038   0.274   5.506  2.6243 -1.6676  2.1856
 9913SOL     OW47348  13.434  13.251   6.391 -0.4225  0.1041  0.0149
 9913SOL    HW147349  13.502  13.266   6.325 -1.3971 -0.1183 -1.0685
 9913SOL    HW247350  13.470  13.289   6.471  0.9382  0.0766 -0.5512
 9914SOL     OW47351  14.009  13.147   3.241 -0.1073  0.3415 -0.4355
 9914SOL    HW147352  13.939  13.147   3.176 -0.1301  0.6477 -0.4119
 9914SOL    HW247353  14.071  13.080   3.210 -0.3111  0.2094 -0.5597
 9915SOL     OW47354   9.475  14.002   2.323 -0.0101 -0.0423 -0.3305
 9915SOL    HW147355   9.444  14.089   2.346  1.1569  0.0278  1.1525
 9915SOL    HW247356   9.399  13.945   2.337 -0.5524  0.6151 -0.5323
 9916SOL     OW47357  13.178  10.825   9.693 -0.2188  0.4078  0.4443
 9916SOL    HW147358  13.089  10.847   9.665  0.1780 -0.4903 -1.7845
 9916SOL    HW247359  13.167  10.759   9.761 -1.2725  0.1977  0.0859
 9917SOL     OW47360   1.749   6.039   3.823 -0.6638  0.0526 -0.3399
 9917SOL    HW147361   1.740   6.073   3.912 -1.8498 -0.4727 -0.2389
 9917SOL    HW247362   1.743   5.944   3.833 -0.9803  0.0013 -0.9925
 9918SOL     OW47363  11.275  11.515   1.723 -0.2576  0.0514  0.0204
 9918SOL    HW147364  11.348  11.552   1.772  0.6235 -0.1550 -1.0945
 9918SOL    HW247365  11.237  11.449   1.782  1.2795 -0.7641  0.1399
 9919SOL     OW47366   3.835   5.055   9.198 -0.1763  0.1045  0.1168
 9919SOL    HW147367   3.837   5.072   9.104  0.1217 -2.2245 -0.3528
 9919SOL    HW247368   3.927   5.055   9.225 -0.0697 -1.6193 -0.1233
 9920SOL     OW47369  10.486  10.349  12.589  0.7850  0.0631  0.1272
 9920SOL    HW147370  10.555  10.352  12.655 -0.0529 -1.5438  1.1243
 9920SOL    HW247371  10.505  10.271  12.537  0.0644 -0.0352  0.0059
 9921SOL     OW47372  13.076   3.920   3.808 -0.4798 -0.3939 -0.1112
 9921SOL    HW147373  13.094   3.989   3.872  0.2652  0.0209 -0.7459
 9921SOL    HW247374  13.121   3.843   3.842  1.8579  0.3845 -1.2008
 9922SOL     OW47375  10.865   5.206   1.924 -0.4196 -0.1665  0.4594
 9922SOL    HW147376  10.846   5.290   1.966  0.0175  0.2706 -0.2161
 9922SOL    HW247377  10.849   5.221   1.831  0.0395 -0.7235  0.2883
 9923SOL     OW47378   9.533  12.327  13.559  0.3966 -0.3590 -0.1694
 9923SOL    HW147379   9.582  12.393  13.608  0.0810  0.2082 -0.6024
 9923SOL    HW247380   9.599  12.284  13.504  0.4981  0.0482 -0.3702
 9924SOL     OW47381   4.446   5.469   2.270 -0.3140 -0.4523  0.3289
 9924SOL    HW147382   4.403   5.408   2.210  0.9182 -0.4974 -0.5448
 9924SOL    HW247383   4.527   5.424   2.295 -0.0676  0.2326  0.7986
 9925SOL     OW47384  10.535   5.823   1.063 -0.1958  0.0470 -0.9650
 9925SOL    HW147385  10.461   5.822   1.124 -0.4863  0.1840 -1.3145
 9925SOL    HW247386  10.580   5.741   1.079  0.7442  0.8307  0.6789
 9926SOL     OW47387   0.337  11.947  10.645  0.4439  0.1852  0.2724
 9926SOL    HW147388   0.386  11.884  10.698  0.5018  0.0797  0.0939
 9926SOL    HW247389   0.400  12.017  10.626  0.7132 -0.2546 -0.4859
 9927SOL     OW47390   0.275   5.767   8.095  1.0024  0.8752  0.1466
 9927SOL    HW147391   0.237   5.846   8.055  0.1186  0.5067  0.2245
 9927SOL    HW247392   0.199   5.713   8.116  1.6355 -0.5074 -0.9400
 9928SOL     OW47393   4.024   2.455  11.399  0.3956  0.1870  0.3341
 9928SOL    HW147394   3.963   2.528  11.409  0.0004 -0.3739  2.7726
 9928SOL    HW247395   4.110   2.493  11.414  0.1831  0.1787  1.7090
 9929SOL     OW47396  13.792   5.074   0.738  0.2747  0.1192  0.4877
 9929SOL    HW147397  13.718   5.115   0.784 -0.0033 -0.0548  0.2042
 9929SOL    HW247398  13.858   5.059   0.806 -0.5635 -1.1630  1.0710
 9930SOL     OW47399  10.889   6.882  13.236  0.7604 -0.5849 -0.1442
 9930SOL    HW147400  10.831   6.883  13.312 -0.2120 -2.5142 -0.7877
 9930SOL    HW247401  10.872   6.966  13.192 -2.7841 -1.6149 -1.1050
 9931SOL     OW47402   7.901  11.482   9.192  0.5013 -0.5881 -0.0299
 9931SOL    HW147403   7.931  11.392   9.184 -0.7003 -1.0910  0.7807
 9931SOL    HW247404   7.981  11.535   9.189  1.4759 -1.8303  1.8494
 9932SOL     OW47405   1.985  13.334   9.153 -0.4924  0.2078  0.6468
 9932SOL    HW147406   1.969  13.416   9.107  0.1530  2.4655  4.0269
 9932SOL    HW247407   1.901  13.289   9.154 -1.6051  2.1801  0.9958
 9933SOL     OW47408   4.887   1.368   9.294 -0.1789 -0.0088 -0.7774
 9933SOL    HW147409   4.871   1.379   9.200  4.1779  0.6765 -1.6413
 9933SOL    HW247410   4.896   1.274   9.306  0.8686 -0.0017 -1.4210
 9934SOL     OW47411   5.652   5.298  11.312 -0.4511  0.1059  0.2343
 9934SOL    HW147412   5.560   5.304  11.336 -0.7887 -0.1132 -0.9832
 9934SOL    HW247413   5.684   5.388  11.318 -1.4166  0.6512 -1.8911
 9935SOL     OW47414  10.063  10.924  11.914  0.0082 -0.3981  0.0534
 9935SOL    HW147415  10.146  10.949  11.954 -0.4875  0.1072  0.7874
 9935SOL    HW247416  10.078  10.932  11.820  0.4707  0.7327  0.2111
 9936SOL     OW47417   7.814  11.111  13.006 -0.1877 -0.0252 -0.5256
 9936SOL    HW147418   7.796  11.131  13.098 -1.4706 -1.4731 -0.4295
 9936SOL    HW247419   7.728  11.113  12.963  0.4817  1.6682 -1.9643
 9937SOL     OW47420   3.896   6.399   2.362  0.1951  0.2878  0.5285
 9937SOL    HW147421   3.820   6.437   2.319 -0.3704 -0.0959  1.1705
 9937SOL    HW247422   3.935   6.342   2.295  0.0883  0.7008  0.1084
 9938SOL     OW47423   1.495  11.934   1.995  0.3243  0.0808  0.4252
 9938SOL    HW147424   1.546  11.912   1.917  0.4167 -2.7410  1.1672
 9938SOL    HW247425   1.406  11.905   1.975  0.1203  0.3004  0.9938
 9939SOL     OW47426  11.603   0.735  12.584 -0.1772  0.2803 -0.3174
 9939SOL    HW147427  11.513   0.767  12.586 -0.8141 -1.4643  0.7983
 9939SOL    HW247428  11.630   0.735  12.676  0.6737  0.0219 -0.5601
 9940SOL     OW47429  14.017   0.930   0.160 -0.1777 -0.1330 -0.1626
 9940SOL    HW147430  14.102   0.951   0.121  0.0366 -1.5507 -0.4940
 9940SOL    HW247431  13.954   0.942   0.089 -0.0167 -0.8887 -0.4409
 9941SOL     OW47432   1.504  11.546   1.495  0.0781 -0.1310  0.1304
 9941SOL    HW147433   1.558  11.491   1.437  0.5191 -0.8306  1.1670
 9941SOL    HW247434   1.566  11.580   1.559 -0.6266 -0.5938  1.0823
 9942SOL     OW47435  10.626  11.518   1.342  0.0264 -0.3140 -0.2647
 9942SOL    HW147436  10.666  11.469   1.271 -2.2234  0.8348 -2.4762
 9942SOL    HW247437  10.547  11.557   1.304 -1.6267 -0.0602  3.0224
 9943SOL     OW47438   5.947   5.622   0.785 -0.0891  0.2831  0.1236
 9943SOL    HW147439   5.870   5.655   0.833 -0.1127 -0.7312  0.8053
 9943SOL    HW247440   6.003   5.584   0.853  1.4048  1.6939 -0.2578
 9944SOL     OW47441  10.647   6.675   0.456  0.2607  0.0254 -0.6607
 9944SOL    HW147442  10.664   6.751   0.511 -0.3955 -0.9066  0.8993
 9944SOL    HW247443  10.552   6.662   0.462  0.5254 -1.7001  0.2122
 9945SOL     OW47444   0.634  12.916   1.554 -0.0437 -0.3058 -0.7472
 9945SOL    HW147445   0.538  12.923   1.553 -0.1793 -1.6925 -2.2586
 9945SOL    HW247446   0.664  12.994   1.507 -0.4046  0.2476 -0.0771
 9946SOL     OW47447  11.274   5.781   8.202 -0.0077 -0.1283  0.1027
 9946SOL    HW147448  11.243   5.843   8.267 -0.8632 -0.3202 -0.1114
 9946SOL    HW247449  11.235   5.697   8.228  0.2562 -0.3591 -0.2284
 9947SOL     OW47450  12.273   5.422   0.419  0.4094 -0.3970 -0.0770
 9947SOL    HW147451  12.323   5.480   0.362 -1.2206  1.3762  0.1717
 9947SOL    HW247452  12.188   5.413   0.376 -0.0498 -0.9464  0.8976
 9948SOL     OW47453   9.283  13.804   7.878  0.2842  0.1812  0.4348
 9948SOL    HW147454   9.318  13.717   7.860  1.3262  0.4241  1.2223
 9948SOL    HW247455   9.265  13.804   7.972  0.4447  0.8623  0.4727
 9949SOL     OW47456  10.206   1.716   5.911 -0.0741  0.1932 -0.1521
 9949SOL    HW147457  10.187   1.786   5.973 -1.5934 -0.7869  0.5462
 9949SOL    HW247458  10.207   1.637   5.964 -0.1774 -0.5304 -1.2028
 9950SOL     OW47459   4.593  10.639   4.518 -0.3034  0.6087  0.6736
 9950SOL    HW147460   4.685  10.627   4.496 -0.2082  0.5120  1.1121
 9950SOL    HW247461   4.575  10.572   4.584 -0.5270  1.0315  1.0476
 9951SOL     OW47462  10.561   4.004   4.693  0.2758 -0.1987 -0.1618
 9951SOL    HW147463  10.603   4.082   4.730  0.1632  0.2717 -0.9911
 9951SOL    HW247464  10.563   3.940   4.764  2.2836 -0.1556 -0.1087
 9952SOL     OW47465   7.942  13.585  14.060 -0.1576 -0.6876 -0.0888
 9952SOL    HW147466   7.906  13.535  14.134  0.4489 -2.3008 -0.8454
 9952SOL    HW247467   8.035  13.566  14.061  0.0484  0.2152 -0.5945
 9953SOL     OW47468   1.367   0.210   3.905 -0.3445 -0.3753 -0.1079
 9953SOL    HW147469   1.435   0.192   3.840 -1.2268 -1.0251 -0.8804
 9953SOL    HW247470   1.382   0.145   3.974  1.1055  0.8433  0.7894
 9954SOL     OW47471  12.086   4.390   2.837  0.4555  0.0663  0.1147
 9954SOL    HW147472  12.059   4.413   2.926  0.4899 -1.3679  0.5057
 9954SOL    HW247473  12.005   4.394   2.786  0.4247  0.8246  0.2119
 9955SOL     OW47474  12.736   8.300   2.690  0.2083  0.0815 -0.1299
 9955SOL    HW147475  12.702   8.369   2.748 -0.0226  1.4858 -1.8470
 9955SOL    HW247476  12.709   8.218   2.731 -2.3468  1.0770  0.3498
 9956SOL     OW47477   7.319   4.809   2.748 -0.1865 -0.3209  0.2105
 9956SOL    HW147478   7.396   4.773   2.704 -0.5815 -1.0378  0.0986
 9956SOL    HW247479   7.347   4.820   2.839  0.5687  0.9828 -0.1521
 9957SOL     OW47480  11.674   4.220   7.455 -0.0180  0.3508  0.1758
 9957SOL    HW147481  11.755   4.271   7.463  0.7812 -0.9887  0.8949
 9957SOL    HW247482  11.702   4.129   7.465 -1.5102 -0.1957 -0.4024
 9958SOL     OW47483   8.141   5.756   8.297 -0.0510 -0.2219 -0.3364
 9958SOL    HW147484   8.154   5.834   8.352  0.7309 -0.9507  0.5425
 9958SOL    HW247485   8.180   5.780   8.213  0.3406  0.2782 -0.0220
 9959SOL     OW47486   3.515   8.759   0.770  0.1834 -0.0865 -0.3974
 9959SOL    HW147487   3.608   8.780   0.781 -0.3332  2.3164 -0.0417
 9959SOL    HW247488   3.510   8.664   0.782  2.7418 -0.4680 -1.5930
 9960SOL     OW47489   0.500   1.888  10.151 -0.9729 -0.1194  0.1037
 9960SOL    HW147490   0.495   1.793  10.137  0.0357 -0.2097  0.2667
 9960SOL    HW247491   0.586   1.902  10.189 -1.5355  0.7449  1.1227
 9961SOL     OW47492  11.905   5.000   4.393  0.5646  0.0184  0.0870
 9961SOL    HW147493  11.916   5.095   4.383 -1.4087  0.4153  1.1845
 9961SOL    HW247494  11.898   4.987   4.488 -0.4163 -1.0558 -0.1092
 9962SOL     OW47495  12.270   3.680   0.544  0.3592  0.4850 -0.1180
 9962SOL    HW147496  12.246   3.613   0.609  1.1409 -1.6014 -1.8782
 9962SOL    HW247497  12.365   3.685   0.550  0.3800  0.7400 -0.6899
 9963SOL     OW47498  12.140   6.538   8.262  0.0425 -0.3453 -0.4659
 9963SOL    HW147499  12.165   6.497   8.345  0.8555 -1.0291 -1.0272
 9963SOL    HW247500  12.217   6.527   8.206  0.0400  1.3926 -0.8547
 9964SOL     OW47501   3.794   3.757  10.570  0.1673  0.1568 -0.3378
 9964SOL    HW147502   3.723   3.720  10.517 -0.2708  0.6946 -0.1321
 9964SOL    HW247503   3.773   3.850  10.578  0.2835  0.1119  0.6823
 9965SOL     OW47504  14.079   0.274   9.412  0.0286 -0.2068 -0.5461
 9965SOL    HW147505  14.131   0.321   9.477 -0.3094 -0.6400  0.0438
 9965SOL    HW247506  13.991   0.311   9.419  0.1794  0.3090 -1.3266
 9966SOL     OW47507   9.072   3.148   3.361 -0.1189 -0.2572 -0.2824
 9966SOL    HW147508   8.995   3.092   3.361  0.8741 -1.6987  0.6526
 9966SOL    HW247509   9.127   3.114   3.432  1.2214  0.9484 -0.6772
 9967SOL     OW47510  13.132   7.984   8.950  0.2980 -0.6644 -0.7123
 9967SOL    HW147511  13.110   7.938   9.031  0.1842  2.5724  1.2627
 9967SOL    HW247512  13.222   7.958   8.931  0.7127 -0.6921  1.1126
 9968SOL     OW47513  10.235   9.925   1.801  0.1641  0.3134 -0.2609
 9968SOL    HW147514  10.253   9.901   1.892  0.4006 -0.9463 -0.6268
 9968SOL    HW247515  10.315   9.968   1.771  0.1645  0.5361  0.0478
 9969SOL     OW47516  12.785  13.593  12.561 -0.5011 -0.1829  0.3075
 9969SOL    HW147517  12.785  13.530  12.489 -1.7413  1.4510 -1.1847
 9969SOL    HW247518  12.763  13.676  12.521 -0.4370  0.9542  2.4708
 9970SOL     OW47519   5.910   2.983   1.412  0.5833  0.2853 -0.1139
 9970SOL    HW147520   5.943   3.070   1.434  3.6346 -0.3276 -1.7474
 9970SOL    HW247521   5.930   2.930   1.489  1.3168  0.4411 -0.1889
 9971SOL     OW47522   7.246   9.543  12.392 -0.2115 -0.1633 -0.2230
 9971SOL    HW147523   7.205   9.622  12.429  0.5466  0.7037 -1.1589
 9971SOL    HW247524   7.340   9.561  12.398 -0.0549 -0.5242 -1.4398
 9972SOL     OW47525  10.867   7.129  12.015  0.2079  0.0668  0.1400
 9972SOL    HW147526  10.913   7.210  11.991 -1.3521  1.2498  0.9215
 9972SOL    HW247527  10.819   7.105  11.936  1.4378 -0.6792 -0.4027
 9973SOL     OW47528   3.636  12.590  11.967  0.1646 -0.2056  0.2347
 9973SOL    HW147529   3.611  12.511  11.920  0.7328 -0.1732 -0.1346
 9973SOL    HW247530   3.610  12.573  12.058 -1.9982  0.1865 -0.2494
 9974SOL     OW47531   1.247   3.026  10.368  0.6708 -0.0605 -0.0847
 9974SOL    HW147532   1.325   2.971  10.357  0.5446 -0.2120 -0.2284
 9974SOL    HW247533   1.242   3.042  10.462  0.3882 -0.7674  0.0257
 9975SOL     OW47534   5.397   6.827   4.199 -0.3424 -0.0027 -0.1651
 9975SOL    HW147535   5.477   6.780   4.223  0.4550  1.1970 -0.3837
 9975SOL    HW247536   5.414   6.918   4.226 -0.0968  1.0839 -3.5301
 9976SOL     OW47537   9.878  11.718   6.081 -0.6025  0.4957 -0.8608
 9976SOL    HW147538   9.802  11.666   6.107 -0.5790  0.2667 -1.2295
 9976SOL    HW247539   9.881  11.709   5.985  1.2603 -1.4494 -0.6933
 9977SOL     OW47540   9.910   8.321   2.800 -0.7233 -0.5958  0.2284
 9977SOL    HW147541   9.883   8.310   2.709 -0.5944  0.9102 -0.0140
 9977SOL    HW247542   9.978   8.388   2.797  1.3061 -2.4969  1.1267
 9978SOL     OW47543   8.609   1.398   5.143 -0.0100 -0.5389 -0.5188
 9978SOL    HW147544   8.654   1.430   5.065 -0.0089 -1.4259 -0.8908
 9978SOL    HW247545   8.679   1.382   5.206 -0.1598  2.5584  0.6226
 9979SOL     OW47546   8.864  13.852   7.138 -0.3670 -0.3437  0.5761
 9979SOL    HW147547   8.849  13.935   7.094  0.1718 -0.3662  0.3417
 9979SOL    HW247548   8.882  13.790   7.067  1.2551 -0.2236  0.8373
 9980SOL     OW47549   5.563   8.765   5.414  0.1623 -0.6791 -0.4271
 9980SOL    HW147550   5.614   8.745   5.335  0.5970  1.3496 -0.7024
 9980SOL    HW247551   5.575   8.859   5.428 -3.2378 -0.1153 -0.3195
 9981SOL     OW47552  13.328   5.472   1.578 -0.4619  0.3029  0.0935
 9981SOL    HW147553  13.318   5.397   1.636 -0.1740 -1.6188 -2.2125
 9981SOL    HW247554  13.422   5.478   1.562 -0.6664 -0.3280 -1.5210
 9982SOL     OW47555   0.831   3.169   5.268  0.2087 -0.3631 -0.2811
 9982SOL    HW147556   0.869   3.257   5.275  0.7350 -0.5415 -0.7608
 9982SOL    HW247557   0.886   3.115   5.326 -0.1475 -0.3671  0.0548
 9983SOL     OW47558   5.150   1.513   7.985 -0.0996 -0.5884 -0.2790
 9983SOL    HW147559   5.176   1.449   8.051 -0.6076  1.1990  1.7905
 9983SOL    HW247560   5.137   1.594   8.035 -1.4410  0.6297 -2.4589
 9984SOL     OW47561  10.346  12.390   2.358  0.3065 -0.2357 -0.0181
 9984SOL    HW147562  10.372  12.479   2.332  2.0841 -0.4935  0.6902
 9984SOL    HW247563  10.364  12.337   2.280 -1.4108  0.0960 -0.6760
 9985SOL     OW47564   4.045   3.201   6.804 -0.1320 -0.2405  0.1907
 9985SOL    HW147565   3.984   3.138   6.841  0.1952 -0.0876  1.0455
 9985SOL    HW247566   4.080   3.159   6.726 -1.1214 -0.4348 -0.1578
 9986SOL     OW47567   9.822   0.756   9.363  0.0384 -1.3814  0.1644
 9986SOL    HW147568   9.841   0.748   9.269 -2.8391  0.8329 -0.7563
 9986SOL    HW247569   9.776   0.675   9.385  0.4115 -1.7602 -0.4218
 9987SOL     OW47570   8.436  11.694  12.014  0.0057  0.1735  0.0695
 9987SOL    HW147571   8.379  11.630  12.055  0.8998 -0.9286 -0.3573
 9987SOL    HW247572   8.380  11.736  11.948 -0.2560 -1.0764 -0.5332
 9988SOL     OW47573  11.230   1.415   3.631  0.2271  0.5684 -0.1026
 9988SOL    HW147574  11.273   1.481   3.686 -1.9470  1.0972  1.0883
 9988SOL    HW247575  11.162   1.378   3.687 -1.5789  0.5756 -2.1753
 9989SOL     OW47576  10.355  13.637   3.451  0.1237 -0.1771 -0.1711
 9989SOL    HW147577  10.443  13.599   3.448 -0.9173 -2.7620 -0.7437
 9989SOL    HW247578  10.370  13.730   3.470  2.9633 -0.4788 -0.4228
 9990SOL     OW47579   4.409   2.957   5.741  0.4330 -0.3265  0.2395
 9990SOL    HW147580   4.316   2.976   5.755  0.2884  0.2849 -1.3533
 9990SOL    HW247581   4.417   2.863   5.759 -0.6690 -0.5615 -0.3812
 9991SOL     OW47582   5.566   1.433   7.278  0.0261  0.2034 -0.4071
 9991SOL    HW147583   5.523   1.482   7.208  0.6100 -0.7982 -1.5055
 9991SOL    HW247584   5.506   1.361   7.296 -0.2333  0.5886  0.3140
 9992SOL     OW47585   3.487   5.726  11.331 -0.3843  0.6554  0.2502
 9992SOL    HW147586   3.491   5.656  11.396  1.3855  1.0240  0.5911
 9992SOL    HW247587   3.461   5.682  11.250  2.8530 -0.9484 -0.1075
 9993SOL     OW47588  10.197   4.610   3.833  0.1398 -0.7572 -0.4178
 9993SOL    HW147589  10.166   4.519   3.840  0.7761 -1.0361 -1.0850
 9993SOL    HW247590  10.206   4.639   3.923  0.2423 -1.4684 -0.1893
 9994SOL     OW47591   2.820  10.378  10.757  0.2689 -0.3551 -0.4222
 9994SOL    HW147592   2.861  10.401  10.841 -1.3517 -0.5281  0.4403
 9994SOL    HW247593   2.795  10.286  10.766  0.2192 -0.4243 -1.1622
 9995SOL     OW47594   3.896   7.296  12.709  0.3717  0.4257 -0.0368
 9995SOL    HW147595   3.964   7.326  12.648  2.0308 -0.2687  1.3784
 9995SOL    HW247596   3.891   7.365  12.775 -0.8733  0.8233 -0.5264
 9996SOL     OW47597  11.513   4.723   8.649  0.2272 -0.4731  0.0285
 9996SOL    HW147598  11.527   4.676   8.731  0.4994  0.1065  0.3166
 9996SOL    HW247599  11.420   4.710   8.630  0.6148 -2.5217 -0.7713
 9997SOL     OW47600  13.281   1.256  11.086  0.0380 -0.3426  0.0043
 9997SOL    HW147601  13.349   1.210  11.037 -0.5817 -1.7711  0.4181
 9997SOL    HW247602  13.213   1.190  11.100 -0.7425  0.6189  0.9464
 9998SOL     OW47603   5.274   3.361   4.595  0.0662 -0.0872 -0.2643
 9998SOL    HW147604   5.233   3.326   4.674  1.3054  0.1153  0.5062
 9998SOL    HW247605   5.213   3.428   4.564 -1.2873 -1.3776 -0.5228
 9999SOL     OW47606  11.227   4.295   5.275 -0.3257 -0.3562 -0.5488
 9999SOL    HW147607  11.225   4.200   5.285  0.4975 -0.2815  0.3689
 9999SOL    HW247608  11.319   4.318   5.277 -0.5783  0.6188  0.7389
10000SOL     OW47609   1.402   7.239   3.013  0.5586  0.3826 -0.2530
10000SOL    HW147610   1.457   7.223   2.936 -1.2194 -1.6511 -1.2034
10000SOL    HW247611   1.338   7.303   2.984 -1.1919 -1.6500 -1.1372
10001SOL     OW47612  10.852   7.362  13.262 -0.2666 -0.2256  0.1738
10001SOL    HW147613  10.866   7.368  13.356 -2.0961 -1.5342  0.5807
10001SOL    HW247614  10.835   7.270  13.245 -1.1836  0.1646 -1.2513
10002SOL     OW47615   3.388   9.863   5.529 -0.0918 -0.7256  0.0158
10002SOL    HW147616   3.432   9.947   5.536 -1.1840 -0.1406 -0.0199
10002SOL    HW247617   3.330   9.860   5.605 -0.2151 -1.3552 -0.0981
10003SOL     OW47618  12.599   5.114   2.022 -0.2623  0.2622  0.4311
10003SOL    HW147619  12.603   5.028   1.982  1.6487  0.4956  0.0405
10003SOL    HW247620  12.551   5.101   2.104  1.1148 -1.4479  1.0206
10004SOL     OW47621  10.068   0.263   6.721  0.1184 -0.2867 -0.1705
10004SOL    HW147622  10.148   0.288   6.676  0.2432 -1.0251 -0.3668
10004SOL    HW247623  10.027   0.347   6.745  1.3021  0.1080  0.5863
10005SOL     OW47624   5.671   6.261   6.199  0.7239  0.3576 -0.1057
10005SOL    HW147625   5.630   6.300   6.122  1.5399 -1.7985 -1.7312
10005SOL    HW247626   5.740   6.205   6.164  1.6376 -0.1279  2.2628
10006SOL     OW47627  13.709  12.829   3.063 -0.0369 -0.1973 -0.3694
10006SOL    HW147628  13.712  12.875   3.147  0.4445  0.1575 -0.5758
10006SOL    HW247629  13.635  12.769   3.071  0.6377 -0.9175  0.6923
10007SOL     OW47630   8.089   4.629   3.846 -0.1023 -0.2167  0.1648
10007SOL    HW147631   7.996   4.647   3.859 -0.9527 -3.7356  0.0683
10007SOL    HW247632   8.094   4.595   3.757  1.8369  2.3742 -0.8334
10008SOL     OW47633  11.937  13.591   9.232  0.3023 -0.2557 -0.3427
10008SOL    HW147634  12.026  13.570   9.205  0.6526 -0.0573  0.6370
10008SOL    HW247635  11.945  13.671   9.283 -0.7728  1.3206 -2.4499
10009SOL     OW47636   0.093   7.364   2.690 -0.0298  0.0597 -0.4466
10009SOL    HW147637   0.121   7.421   2.618 -2.6855  2.1766  0.0256
10009SOL    HW247638   0.035   7.300   2.648 -0.0896  0.1152 -0.4489
10010SOL     OW47639   6.217   8.839   2.346 -0.0554 -0.5088  0.3999
10010SOL    HW147640   6.309   8.849   2.325  0.0624 -0.6669  0.8274
10010SOL    HW247641   6.176   8.810   2.264  0.2178 -0.1292  0.1310
10011SOL     OW47642  13.124   1.080   7.013  0.2430 -0.3197  0.5143
10011SOL    HW147643  13.086   1.022   7.079 -0.8835  2.0850  2.1281
10011SOL    HW247644  13.218   1.068   7.020  0.1358 -0.2119  2.5347
10012SOL     OW47645   6.124   9.762  10.508  0.7291  0.4315  0.1785
10012SOL    HW147646   6.148   9.852  10.528 -0.1704  0.2097  2.4970
10012SOL    HW247647   6.029   9.759  10.520  0.7319 -0.8029  0.0452
10013SOL     OW47648   3.493   4.315   3.143 -0.2174  0.3536 -0.4755
10013SOL    HW147649   3.580   4.310   3.182 -0.0932 -1.1386 -0.9101
10013SOL    HW247650   3.459   4.226   3.147 -1.8056  0.9342 -0.1578
10014SOL     OW47651   7.040  11.813  11.612  0.4403 -0.4207 -0.7454
10014SOL    HW147652   7.071  11.734  11.569  1.5697 -0.1190 -0.5288
10014SOL    HW247653   7.015  11.785  11.700  2.5122 -0.2846 -0.0517
10015SOL     OW47654   3.755   0.611  11.284  0.4685  0.3348 -0.3026
10015SOL    HW147655   3.717   0.562  11.211 -0.3472  0.2654  0.1520
10015SOL    HW247656   3.808   0.548  11.331  1.3962  0.4996 -1.1085
10016SOL     OW47657   8.712   8.600   0.140 -0.2136 -0.1013  0.2492
10016SOL    HW147658   8.786   8.628   0.194  0.6585 -0.8619 -0.5384
10016SOL    HW247659   8.650   8.563   0.203 -0.7402  2.1078  1.1429
10017SOL     OW47660  13.386   4.720   8.114  0.0725  0.1492 -0.0804
10017SOL    HW147661  13.413   4.632   8.087  1.5903  0.3838  0.6014
10017SOL    HW247662  13.353   4.708   8.203  0.7647  0.3336  0.2087
10018SOL     OW47663   7.082   8.065  12.005  0.0706 -0.1890  0.0383
10018SOL    HW147664   7.133   8.141  11.977  0.5809 -0.9959 -1.3253
10018SOL    HW247665   7.146   7.994  12.008 -0.4990 -0.6832  0.8046
10019SOL     OW47666   8.481   6.591   6.072 -0.0702  0.7736  0.7348
10019SOL    HW147667   8.391   6.624   6.081 -0.1346  0.5943  0.7727
10019SOL    HW247668   8.470   6.496   6.060 -0.1982  1.1656 -4.0075
10020SOL     OW47669   4.153   0.311   9.611 -0.7137  0.1288  0.0966
10020SOL    HW147670   4.191   0.227   9.636 -1.4835  0.2258  1.7075
10020SOL    HW247671   4.117   0.296   9.523  0.7788 -0.6657 -0.4156
10021SOL     OW47672   1.907   3.756   1.392 -0.1347 -0.5476 -0.0322
10021SOL    HW147673   1.864   3.681   1.433 -0.4318  0.0462  0.7490
10021SOL    HW247674   1.845   3.828   1.401 -0.3201 -0.4546 -1.7533
10022SOL     OW47675   4.926  11.927   6.211  0.4313  0.5699 -0.4692
10022SOL    HW147676   4.953  11.847   6.256 -1.6455 -0.7605 -1.4348
10022SOL    HW247677   4.959  11.916   6.122  0.4895  0.9797 -0.4992
10023SOL     OW47678  13.320  11.664   8.019 -0.2581  0.1526  0.2540
10023SOL    HW147679  13.291  11.601   7.953  0.4192 -0.8389  0.8831
10023SOL    HW247680  13.242  11.717   8.037 -0.8041 -0.4141 -0.3793
10024SOL     OW47681   3.106   2.117   9.057 -0.7205 -0.5569  0.9492
10024SOL    HW147682   3.057   2.145   8.981  2.7914 -0.2447 -1.4249
10024SOL    HW247683   3.079   2.177   9.127 -3.5828 -0.4542 -0.1118
10025SOL     OW47684  11.926   0.756   4.709 -0.0465 -0.1482  0.2406
10025SOL    HW147685  11.992   0.772   4.642 -0.2819 -0.6703 -0.1212
10025SOL    HW247686  11.927   0.835   4.763  0.7940 -0.1119  0.1762
10026SOL     OW47687   4.864   2.795   1.922  0.3608  0.5638  0.2036
10026SOL    HW147688   4.851   2.845   2.002  2.1364  2.5353 -0.6464
10026SOL    HW247689   4.800   2.831   1.860  0.8422  0.9702 -0.0624
10027SOL     OW47690   1.589   0.761  13.231 -0.4113 -0.4872  0.2517
10027SOL    HW147691   1.558   0.700  13.298 -1.9416 -1.3351 -1.1324
10027SOL    HW247692   1.558   0.723  13.148 -0.5673  1.6658 -0.7522
10028SOL     OW47693   9.822   2.672  12.580  0.4577  0.0378 -0.2061
10028SOL    HW147694   9.890   2.618  12.539  1.3141  0.3416  0.7748
10028SOL    HW247695   9.742   2.620  12.571  0.6260  0.0254 -2.1061
10029SOL     OW47696   8.124   4.015   3.691  0.7791 -0.4765  0.3390
10029SOL    HW147697   8.203   3.962   3.676  1.0940 -0.7104  2.5106
10029SOL    HW247698   8.152   4.083   3.752 -0.0532  1.2193 -1.0518
10030SOL     OW47699   9.168   9.940   7.311 -0.0493 -0.0284 -0.2094
10030SOL    HW147700   9.131   9.971   7.229 -0.4753 -0.3505 -0.1461
10030SOL    HW247701   9.226   9.869   7.285  1.3847  1.1789 -0.4068
10031SOL     OW47702   7.492  10.599   6.495  0.1324  0.4264  0.4308
10031SOL    HW147703   7.500  10.675   6.436 -0.5405  0.5603  0.5049
10031SOL    HW247704   7.581  10.585   6.527  0.3888  0.7692 -0.0994
10032SOL     OW47705   4.088  14.039   3.544 -0.4549 -0.3231 -1.1835
10032SOL    HW147706   3.997  14.014   3.561 -0.7307  0.9334 -0.6335
10032SOL    HW247707   4.096  14.037   3.448 -0.5261 -2.1323 -1.1800
10033SOL     OW47708  10.215   1.342   4.239 -0.2196 -0.1774 -0.2075
10033SOL    HW147709  10.134   1.336   4.290 -0.8237 -0.3975 -1.1620
10033SOL    HW247710  10.185   1.356   4.149  0.8250  0.4850 -0.4674
10034SOL     OW47711   7.577   6.943   0.006  0.2617 -0.3312 -0.0730
10034SOL    HW147712   7.499   6.891  -0.017 -1.0669  2.3632 -2.2686
10034SOL    HW247713   7.558   6.976   0.094 -1.0953  0.2207 -0.5394
10035SOL     OW47714   8.368   1.009  13.899  0.0397 -0.2379  0.0751
10035SOL    HW147715   8.345   1.073  13.832 -1.4817  1.0497  1.7380
10035SOL    HW247716   8.330   0.927  13.867 -0.1205  0.2087 -0.9205
10036SOL     OW47717  14.018   4.096   9.036 -0.1717 -0.1390  0.0088
10036SOL    HW147718  14.113   4.108   9.044 -0.4473  2.0876  0.5752
10036SOL    HW247719  13.999   4.019   9.090  1.3250 -0.7232 -0.2637
10037SOL     OW47720  12.774   8.814  12.090  0.0302 -0.5934 -0.2226
10037SOL    HW147721  12.845   8.749  12.094  1.5055  0.9661 -0.2688
10037SOL    HW247722  12.732   8.807  12.175 -0.4957 -2.2871 -0.5710
10038SOL     OW47723  12.808   1.146   1.405 -0.5926 -0.5745  0.8767
10038SOL    HW147724  12.721   1.163   1.370  0.1820  1.4439 -0.2271
10038SOL    HW247725  12.812   1.197   1.486 -0.4531 -0.6933  0.9460
10039SOL     OW47726   5.508  13.236   5.733 -0.0352 -0.5255 -0.2248
10039SOL    HW147727   5.587  13.255   5.782 -0.1138  0.6160 -0.5163
10039SOL    HW247728   5.442  13.295   5.769 -0.3648 -0.4173 -0.9780
10040SOL     OW47729   9.440   0.301  11.590 -0.4548  0.2081  0.6513
10040SOL    HW147730   9.395   0.359  11.528  0.7148  0.4047 -0.0448
10040SOL    HW247731   9.522   0.347  11.610 -0.4702 -0.2222  1.7637
10041SOL     OW47732   9.022   2.599   7.759 -0.2709  0.2319  0.2004
10041SOL    HW147733   9.022   2.579   7.665 -0.6975  1.3338 -0.0477
10041SOL    HW247734   9.111   2.627   7.778 -0.2980  0.4229  0.0382
10042SOL     OW47735   6.135  12.257   8.904 -0.6511  0.0306 -0.0116
10042SOL    HW147736   6.161  12.167   8.923 -1.1903 -0.1968 -0.3556
10042SOL    HW247737   6.205  12.310   8.943  1.3044 -0.6250 -2.4032
10043SOL     OW47738   0.284  13.920  10.846 -0.1377  0.1658 -0.5950
10043SOL    HW147739   0.287  13.965  10.761 -0.9420  1.6858  0.1572
10043SOL    HW247740   0.346  13.968  10.901 -0.3625 -0.1851 -0.0280
10044SOL     OW47741  10.642   6.203   5.927 -0.6264 -0.3057  0.7436
10044SOL    HW147742  10.728   6.167   5.947  0.0509  0.8635  0.0885
10044SOL    HW247743  10.647   6.295   5.954 -1.4233 -0.0353  0.0424
10045SOL     OW47744   3.380   4.890   7.504 -0.1898  0.7055 -0.4814
10045SOL    HW147745   3.330   4.926   7.431  0.4848  0.3841 -1.1111
10045SOL    HW247746   3.470   4.886   7.472  0.2492  1.2549  0.6293
10046SOL     OW47747   5.831   7.557   4.755  0.4545  0.5262 -0.0097
10046SOL    HW147748   5.803   7.571   4.845  1.0790 -0.1770  0.3000
10046SOL    HW247749   5.855   7.645   4.724  1.3201  0.6127  0.8764
10047SOL     OW47750   2.202  10.340  13.274 -0.4743  0.1901  0.3939
10047SOL    HW147751   2.284  10.319  13.229 -1.6804 -2.4348 -0.8125
10047SOL    HW247752   2.207  10.293  13.357 -0.9327 -0.3429  0.1229
10048SOL     OW47753   2.424   1.596   9.609  0.1822 -0.4002 -1.0498
10048SOL    HW147754   2.473   1.561   9.683  0.4028  0.6930 -0.6567
10048SOL    HW247755   2.451   1.688   9.604  0.3725 -0.5209 -2.6608
10049SOL     OW47756  10.638   0.060   8.497  0.2387  0.5375  0.6112
10049SOL    HW147757  10.701   0.051   8.569 -0.3830  1.2294  1.2524
10049SOL    HW247758  10.623  -0.030   8.467 -1.9022 -0.1929  3.4369
10050SOL     OW47759   6.233  13.382   0.985  0.0457 -0.4357  1.2346
10050SOL    HW147760   6.153  13.339   0.952 -0.4343  0.6000  0.9917
10050SOL    HW247761   6.303  13.320   0.966 -0.5927 -1.0068  0.6762
10051SOL     OW47762   6.371   1.564  11.717  0.3373  0.3098  0.1391
10051SOL    HW147763   6.321   1.484  11.732 -0.9669  0.4947 -2.6008
10051SOL    HW247764   6.305   1.632  11.706  1.1299  0.8137 -2.2107
10052SOL     OW47765   4.125   3.393   9.868 -0.2579 -0.1329  0.9058
10052SOL    HW147766   4.179   3.471   9.858 -0.7689  0.0795 -0.2830
10052SOL    HW247767   4.159   3.332   9.802 -0.0220 -0.8416  1.6616
10053SOL     OW47768   3.800  10.885   4.589 -0.3584 -0.4591  0.1175
10053SOL    HW147769   3.867  10.823   4.559  0.1756 -0.7146  1.7411
10053SOL    HW247770   3.849  10.965   4.609 -1.0259  0.5255 -1.8477
10054SOL     OW47771   8.069  12.703   2.680  0.0557  0.1605  0.3035
10054SOL    HW147772   8.003  12.701   2.749 -1.1807 -1.4371 -0.8379
10054SOL    HW247773   8.144  12.656   2.717  0.2189  1.1326  1.2629
10055SOL     OW47774   8.569   5.777   4.941  0.2526 -0.1023  0.7982
10055SOL    HW147775   8.488   5.729   4.961  0.1419 -0.5497 -0.6149
10055SOL    HW247776   8.600   5.738   4.859  1.1139  1.0714  0.5480
10056SOL     OW47777   6.125   6.515   5.121  0.4998  0.4513  0.0637
10056SOL    HW147778   6.154   6.521   5.030 -1.4599  0.4216 -0.6130
10056SOL    HW247779   6.123   6.605   5.152 -2.7775  1.0312 -1.3398
10057SOL     OW47780  13.784   0.893   9.918  0.3331 -0.9685 -0.2147
10057SOL    HW147781  13.716   0.898   9.985 -0.0664  1.4999 -0.7057
10057SOL    HW247782  13.839   0.970   9.935  1.0170 -1.0684 -1.8677
10058SOL     OW47783  13.568   7.332   1.249  0.0309  0.5623  0.5401
10058SOL    HW147784  13.630   7.400   1.223  0.3259  0.5435  1.1708
10058SOL    HW247785  13.550   7.283   1.169  1.6214 -0.0754  0.5490
10059SOL     OW47786   6.572   8.928   7.863 -0.9539 -0.1338 -0.1011
10059SOL    HW147787   6.616   8.846   7.886  0.0329  0.5482  0.5164
10059SOL    HW247788   6.581   8.934   7.768 -2.1894 -1.3671 -0.3372
10060SOL     OW47789   7.106   9.930   4.725  0.4243  0.2426 -0.9752
10060SOL    HW147790   7.110   9.892   4.812  1.8133  0.4579 -0.9241
10060SOL    HW247791   7.039   9.878   4.679  0.4179 -0.5386 -0.1032
10061SOL     OW47792   2.586   3.859  13.632 -0.0338  0.6561 -0.3891
10061SOL    HW147793   2.590   3.892  13.722 -1.2536 -1.5110  0.5376
10061SOL    HW247794   2.643   3.783  13.631 -0.4940  0.3072 -1.2847
10062SOL     OW47795   2.565  10.640   8.831 -0.2597 -0.4419  0.3123
10062SOL    HW147796   2.568  10.556   8.785 -1.3791 -1.2902  1.7055
10062SOL    HW247797   2.558  10.705   8.761  0.5055 -1.4992 -0.7931
10063SOL     OW47798   1.004   0.183   3.089 -0.2948 -0.6392  0.4924
10063SOL    HW147799   1.004   0.225   3.174  0.1588  0.3841  0.0069
10063SOL    HW247800   1.071   0.115   3.096  1.3339  0.8667  0.3101
10064SOL     OW47801  12.538   6.168   9.345  0.2070 -0.1515  0.8842
10064SOL    HW147802  12.590   6.137   9.270  0.9607  1.4581  0.6989
10064SOL    HW247803  12.588   6.140   9.421 -1.0479 -2.6476  0.8863
10065SOL     OW47804   9.964  11.572  10.687 -0.2669  0.0477  0.1916
10065SOL    HW147805  10.056  11.557  10.665 -0.3976 -3.6524  1.5135
10065SOL    HW247806   9.967  11.630  10.764  1.0628 -1.0159  0.9859
10066SOL     OW47807   7.070   8.167   2.757  0.1395  0.0426 -0.3436
10066SOL    HW147808   7.049   8.138   2.845  1.1251  0.5914  0.0924
10066SOL    HW247809   7.154   8.125   2.738  0.3468  0.6093 -0.6854
10067SOL     OW47810   4.111   0.852  11.672 -0.2573  0.5048 -0.2484
10067SOL    HW147811   4.088   0.893  11.589  0.3835  1.0487 -0.1700
10067SOL    HW247812   4.158   0.920  11.720  0.7564 -0.2903 -0.0804
10068SOL     OW47813  13.016   3.742  12.574  0.0233  0.5339  0.5734
10068SOL    HW147814  12.987   3.833  12.580 -1.3491  0.3118 -1.7716
10068SOL    HW247815  12.946   3.691  12.615 -0.1168  0.4024  0.1730
10069SOL     OW47816   9.862   3.368   0.645 -0.2618  0.2692  0.1272
10069SOL    HW147817   9.829   3.278   0.643  1.9912 -0.5982 -0.3115
10069SOL    HW247818   9.909   3.378   0.562  0.1096  1.6314  0.4806
10070SOL     OW47819   4.681  11.538   5.632  0.5404 -0.3011 -0.4718
10070SOL    HW147820   4.714  11.626   5.649  0.0027 -0.1683 -0.0517
10070SOL    HW247821   4.756  11.481   5.647  1.1554  0.1466 -1.6992
10071SOL     OW47822   7.289  11.547   2.768 -0.3124 -0.8649 -0.2500
10071SOL    HW147823   7.307  11.457   2.741 -0.5489 -0.9044 -0.2745
10071SOL    HW247824   7.372  11.577   2.806  0.2700 -0.5339 -1.7335
10072SOL     OW47825   3.539   0.409   0.589  0.3024  0.3168 -0.4411
10072SOL    HW147826   3.559   0.399   0.496 -1.5740 -3.0932 -0.6137
10072SOL    HW247827   3.582   0.336   0.632 -0.0608  1.0031  1.1926
10073SOL     OW47828   7.346  13.677   1.456  0.6797 -0.1139  0.3985
10073SOL    HW147829   7.380  13.608   1.513  0.2210 -0.4655  0.2580
10073SOL    HW247830   7.420  13.701   1.400  0.3185 -1.9636 -0.9646
10074SOL     OW47831   9.271  12.028   9.887  0.7685 -0.0811 -0.3973
10074SOL    HW147832   9.318  12.111   9.887 -0.4540  0.6547 -1.7604
10074SOL    HW247833   9.333  11.965   9.925  1.1968  1.6945  2.0559
10075SOL     OW47834   9.852  12.675   7.798  0.0879 -0.4379  0.6814
10075SOL    HW147835   9.883  12.613   7.732 -3.2209 -1.4052 -0.1045
10075SOL    HW247836   9.868  12.631   7.881  0.6454 -0.9427  0.3190
10076SOL     OW47837   5.755   5.904   3.004  0.2888  0.3109  0.1296
10076SOL    HW147838   5.829   5.929   3.059  1.2488  1.3904 -1.5431
10076SOL    HW247839   5.679   5.912   3.061  1.0233  3.1562  0.8598
10077SOL     OW47840   3.372   0.821   7.824 -0.3509 -0.7071 -0.1705
10077SOL    HW147841   3.394   0.859   7.910  0.0403 -3.2023  0.9208
10077SOL    HW247842   3.278   0.833   7.816  0.0302  2.8200 -1.1703
10078SOL     OW47843   3.784  12.093  11.891  0.3634 -0.2717 -0.0714
10078SOL    HW147844   3.843  12.022  11.915  3.2697  1.5371 -1.3179
10078SOL    HW247845   3.840  12.171  11.889 -2.7296  2.1987  1.6512
10079SOL     OW47846   4.133  10.788  12.566  0.0924 -0.1426  0.7368
10079SOL    HW147847   4.206  10.726  12.563 -0.7481 -1.1497  0.4167
10079SOL    HW247848   4.141  10.830  12.652  0.1313 -1.3981  1.3799
10080SOL     OW47849   8.552   3.368   2.415  0.1993  0.3004  0.4717
10080SOL    HW147850   8.525   3.454   2.448 -0.1994  0.9021 -1.2944
10080SOL    HW247851   8.470   3.327   2.387  0.3566 -0.7809  1.4872
10081SOL     OW47852   5.525   0.702  12.617 -0.1414  0.0972 -0.5637
10081SOL    HW147853   5.577   0.652  12.555 -0.5495 -0.0891 -0.7536
10081SOL    HW247854   5.452   0.645  12.640 -1.1439  0.9491 -1.5165
10082SOL     OW47855   6.809   2.712  10.016 -0.2968  0.0012 -0.5012
10082SOL    HW147856   6.719   2.686  10.035 -0.0620 -0.1397  0.5357
10082SOL    HW247857   6.860   2.631  10.028  0.1068  0.3306  0.1129
10083SOL     OW47858   3.939   8.954   1.585  0.3435  0.3454 -0.4501
10083SOL    HW147859   3.915   9.043   1.557  0.3250  0.1896 -0.9315
10083SOL    HW247860   3.931   8.957   1.680 -1.9178  0.2148 -0.5827
10084SOL     OW47861   5.555   3.633   6.568 -0.2170  0.3234  0.6552
10084SOL    HW147862   5.630   3.681   6.602 -0.8910  0.2712  2.3095
10084SOL    HW247863   5.555   3.652   6.474  1.2168  1.1957  0.8067
10085SOL     OW47864   3.603   6.674  10.534 -0.8466  0.6688 -0.2468
10085SOL    HW147865   3.601   6.597  10.591  2.3997  1.0503  0.5464
10085SOL    HW247866   3.605   6.639  10.445 -1.3051 -0.0633  0.0227
10086SOL     OW47867  13.928   0.141   7.601  0.1240 -0.1235  0.1300
10086SOL    HW147868  13.973   0.063   7.568 -0.7519  0.2859 -2.1804
10086SOL    HW247869  13.998   0.207   7.608  0.3520 -0.2318 -0.9443
10087SOL     OW47870  10.306  11.203  13.104 -0.1118 -1.0240 -0.1549
10087SOL    HW147871  10.289  11.130  13.163  1.6389 -0.3370  1.3201
10087SOL    HW247872  10.266  11.279  13.147 -0.8549 -0.9010 -1.0492
10088SOL     OW47873  13.479   1.598   2.302  0.2033  0.3874 -0.3150
10088SOL    HW147874  13.421   1.535   2.259  1.0514  0.5826 -1.8226
10088SOL    HW247875  13.552   1.546   2.334 -0.1841  0.3131  0.4672
10089SOL     OW47876   4.582   2.471  12.675  0.3835 -0.4241 -0.7589
10089SOL    HW147877   4.489   2.486  12.694  0.5196 -0.3270 -0.1301
10089SOL    HW247878   4.595   2.378  12.696  0.6154 -0.2302 -0.0276
10090SOL     OW47879  12.259   0.501   5.148  0.7166 -0.1877 -0.3423
10090SOL    HW147880  12.257   0.595   5.163  3.6022  0.4374 -2.9625
10090SOL    HW247881  12.182   0.484   5.093 -0.4892  0.3237  1.1010
10091SOL     OW47882   1.819  12.976  12.199  0.3922 -0.1468  0.0061
10091SOL    HW147883   1.728  12.969  12.171 -0.2509 -0.1221  1.9438
10091SOL    HW247884   1.860  12.896  12.166 -0.3758 -0.2663 -0.7034
10092SOL     OW47885  11.722  12.275  11.947 -0.0191 -0.4822 -0.1995
10092SOL    HW147886  11.659  12.308  11.883  0.0147 -1.0899 -0.5542
10092SOL    HW247887  11.794  12.338  11.944 -1.3133  1.1948  1.4502
10093SOL     OW47888  13.154  13.466  11.154  0.5173  0.5658  0.5752
10093SOL    HW147889  13.236  13.486  11.109  0.1596  1.4700  0.3161
10093SOL    HW247890  13.111  13.550  11.165 -1.5855 -0.0985 -1.6171
10094SOL     OW47891  13.850   2.770   0.827 -0.2554 -0.4338 -0.2642
10094SOL    HW147892  13.797   2.848   0.808 -1.0538 -1.4854 -2.6697
10094SOL    HW247893  13.863   2.774   0.922 -0.5732  2.4101 -0.2320
10095SOL     OW47894   2.257  13.274  11.634  0.2280  0.3573  0.2491
10095SOL    HW147895   2.254  13.333  11.558  0.1887  1.9379  1.4249
10095SOL    HW247896   2.205  13.318  11.701 -1.0964 -1.7709  0.7185
10096SOL     OW47897   8.542   2.450   8.594 -0.2610 -0.1519  0.5235
10096SOL    HW147898   8.566   2.534   8.556  0.0115  0.5989  2.2692
10096SOL    HW247899   8.447   2.456   8.607 -0.3910 -0.4964 -0.1823
10097SOL     OW47900   9.263  12.688  12.846  0.2970  0.5286  0.4694
10097SOL    HW147901   9.272  12.768  12.794  2.2598 -0.5413 -0.9674
10097SOL    HW247902   9.349  12.675  12.886 -0.3660 -0.2096  1.7256
10098SOL     OW47903   9.424  12.591   6.631  0.1178 -0.3838  0.1228
10098SOL    HW147904   9.386  12.575   6.718 -1.9351 -4.8247 -1.2896
10098SOL    HW247905   9.355  12.566   6.570  0.9654  3.8920 -3.0304
10099SOL     OW47906   4.510   2.585   3.075 -0.7786 -0.3384 -0.0931
10099SOL    HW147907   4.455   2.576   3.152 -1.1748 -0.2501 -0.3617
10099SOL    HW247908   4.542   2.497   3.057 -0.7158 -0.3651  0.1467
10100SOL     OW47909   1.281   1.562   5.966  0.2242  0.1253 -0.1198
10100SOL    HW147910   1.246   1.477   5.992  1.8798 -0.8578 -0.9213
10100SOL    HW247911   1.213   1.625   5.991 -0.3503 -1.2357  1.9966
10101SOL     OW47912  12.420  10.491   2.816 -0.2458  0.5452  0.1301
10101SOL    HW147913  12.462  10.574   2.795  3.2967 -1.3780 -1.3888
10101SOL    HW247914  12.475  10.455   2.887 -1.7891 -0.4669  0.8625
10102SOL     OW47915   4.697  13.064  13.967  0.1902  0.5982  0.2505
10102SOL    HW147916   4.751  12.989  13.942 -0.0581  0.6384 -0.4324
10102SOL    HW247917   4.752  13.116  14.025 -0.2951 -1.1263  2.3889
10103SOL     OW47918   3.341  12.693  13.061  0.8077  0.4359  0.0927
10103SOL    HW147919   3.311  12.746  13.134 -1.3509  1.5068 -1.4456
10103SOL    HW247920   3.315  12.603  13.083 -0.1299  0.8008  0.5118
10104SOL     OW47921   3.100  10.126  11.086 -0.2195 -0.2616  0.4677
10104SOL    HW147922   3.189  10.126  11.120 -0.6636 -0.7286  1.6959
10104SOL    HW247923   3.102  10.066  11.012  0.8718  1.0999 -0.6563
10105SOL     OW47924   1.717   4.473   1.457  0.1482 -0.9484  0.1885
10105SOL    HW147925   1.747   4.533   1.389 -1.4201 -0.0357  0.2712
10105SOL    HW247926   1.783   4.481   1.526 -0.5388  1.4969  0.6465
10106SOL     OW47927   6.163  10.513   4.670 -0.1254  0.2563 -0.2320
10106SOL    HW147928   6.135  10.423   4.655 -0.8478  0.3886  0.2518
10106SOL    HW247929   6.175  10.549   4.582 -0.8718 -0.0093 -0.4509
10107SOL     OW47930   0.600   3.211   5.971 -0.3178 -0.1484  0.1486
10107SOL    HW147931   0.572   3.132   6.016 -1.0075  0.8965  1.6477
10107SOL    HW247932   0.684   3.189   5.932 -0.5773 -1.6548  0.4000
10108SOL     OW47933   3.555   3.147  10.707 -0.3239  0.2759  0.4041
10108SOL    HW147934   3.647   3.152  10.734 -0.1076 -0.7287 -0.0879
10108SOL    HW247935   3.511   3.105  10.781 -0.0649 -0.7660 -0.0001
10109SOL     OW47936   0.116   2.463   8.608  0.4375 -0.8801  0.1440
10109SOL    HW147937   0.030   2.460   8.566 -0.3162  1.9858  1.2226
10109SOL    HW247938   0.103   2.417   8.691  0.2757 -1.4164 -0.1722
10110SOL     OW47939  13.551  11.234  10.827 -0.1265  0.2108 -0.1810
10110SOL    HW147940  13.611  11.232  10.753 -2.8903 -4.4566 -2.7580
10110SOL    HW247941  13.501  11.315  10.815  3.1699  2.5245  0.2103
10111SOL     OW47942   2.650   2.962   3.537  0.4852  1.0904 -0.1058
10111SOL    HW147943   2.601   2.910   3.474 -1.0347  1.0156  1.0763
10111SOL    HW247944   2.666   3.045   3.493  1.5150  0.2602 -1.4119
10112SOL     OW47945   3.942   8.789  12.376 -0.4920 -0.2943 -0.3349
10112SOL    HW147946   3.874   8.807  12.441  0.2652 -0.9857  0.6806
10112SOL    HW247947   3.934   8.860  12.313 -0.2792  1.2901  1.3340
10113SOL     OW47948   6.809  12.543  10.827  0.0483 -0.3323 -0.1130
10113SOL    HW147949   6.807  12.491  10.908  0.2655  0.7416  0.5984
10113SOL    HW247950   6.900  12.536  10.797  0.1533 -0.1012  0.1523
10114SOL     OW47951   3.003  10.720   3.178  0.2543  0.0879  0.0111
10114SOL    HW147952   2.951  10.660   3.124  0.2202  0.4150 -0.3196
10114SOL    HW247953   3.077  10.744   3.122  1.0169 -0.7315  0.6338
10115SOL     OW47954  10.678   6.446   6.016  0.3256  0.0168  0.1166
10115SOL    HW147955  10.772   6.452   6.002  0.2967  0.6141  0.1489
10115SOL    HW247956  10.643   6.527   5.979 -0.0763  0.2260  0.9274
10116SOL     OW47957   1.265   4.478   3.954 -0.0068 -0.5930  0.4477
10116SOL    HW147958   1.277   4.501   3.862 -1.3264 -0.9358  0.1604
10116SOL    HW247959   1.244   4.384   3.952 -0.5617 -0.4854  1.0490
10117SOL     OW47960  12.309   2.781   2.225  0.4072 -0.1821 -0.2225
10117SOL    HW147961  12.372   2.725   2.179 -0.5695 -0.4971 -1.2232
10117SOL    HW247962  12.293   2.735   2.308  3.2949  1.1293  1.2000
10118SOL     OW47963  12.171   5.743   3.055 -0.2478  0.1517 -0.1639
10118SOL    HW147964  12.141   5.834   3.047  0.0996  0.1321 -2.1730
10118SOL    HW247965  12.114   5.694   2.996  0.4665 -0.7204 -0.1413
10119SOL     OW47966   9.832   4.998  12.901 -0.0999 -0.8924  0.2546
10119SOL    HW147967   9.749   5.000  12.949  1.5534 -1.2589  3.3938
10119SOL    HW247968   9.835   4.911  12.861 -0.6937 -1.3635  1.2017
10120SOL     OW47969  10.512   2.209   4.028 -0.1119  0.1901 -0.3035
10120SOL    HW147970  10.606   2.190   4.036 -0.3119 -1.2411 -0.9346
10120SOL    HW247971  10.494   2.270   4.098  1.4067  0.9249 -0.5008
10121SOL     OW47972   3.963  14.009  10.951  0.1113 -0.1387 -0.6524
10121SOL    HW147973   3.958  14.084  11.010 -1.7389 -0.1727 -0.6923
10121SOL    HW247974   4.053  13.978  10.958  0.7412  1.6900 -0.1596
10122SOL     OW47975   0.154   0.480  10.972 -0.3418 -0.6211 -0.2158
10122SOL    HW147976   0.214   0.530  10.917 -0.0301 -1.8009 -0.9869
10122SOL    HW247977   0.210   0.418  11.019 -0.4146  1.2232  2.5191
10123SOL     OW47978  11.546  13.569   1.359  0.0232 -0.3538  0.5360
10123SOL    HW147979  11.514  13.657   1.342 -2.0182 -0.8259  1.5736
10123SOL    HW247980  11.609  13.552   1.289  0.0562  1.6995  0.0036
10124SOL     OW47981  11.071   2.746   7.749  0.3688  0.3840 -0.1152
10124SOL    HW147982  11.098   2.795   7.827 -0.7714  0.3314  0.3231
10124SOL    HW247983  11.146   2.752   7.690  0.1966  2.8332 -0.1617
10125SOL     OW47984   9.501  10.736  10.896 -0.4112  0.0986  0.2100
10125SOL    HW147985   9.426  10.725  10.837  1.0069  0.5539 -1.7428
10125SOL    HW247986   9.468  10.795  10.964 -2.3163 -1.0312  0.3681
10126SOL     OW47987   4.803  13.603   6.058  0.4190  0.6929  0.2946
10126SOL    HW147988   4.762  13.554   5.987  1.1009  0.3926  0.0968
10126SOL    HW247989   4.775  13.693   6.045 -0.2541  0.4781  0.2272
10127SOL     OW47990   1.524  11.753   3.471 -0.0424  0.3874  0.2259
10127SOL    HW147991   1.546  11.673   3.519  0.7100  0.0854 -0.5968
10127SOL    HW247992   1.562  11.824   3.523 -0.8813  0.2473  1.0612
10128SOL     OW47993   6.841   8.757   0.475  0.2867 -0.3480 -0.2898
10128SOL    HW147994   6.766   8.814   0.459  0.9234  0.8402  0.7223
10128SOL    HW247995   6.815   8.703   0.550  0.8726  0.9591  0.8937
10129SOL     OW47996   7.391   1.010   5.567  0.5386 -0.1657  0.6324
10129SOL    HW147997   7.423   0.922   5.587 -0.9030 -0.8144  0.1895
10129SOL    HW247998   7.407   1.060   5.647  0.7332 -1.0179  1.1387
10130SOL     OW47999  10.884  12.586   6.490  0.3699  0.3787  0.0766
10130SOL    HW148000  10.943  12.613   6.560 -0.2102  0.8900  0.3760
10130SOL    HW248001  10.940  12.577   6.413  0.5543  2.8652 -0.1578
10131SOL     OW48002  13.683   1.543   0.012 -0.0952 -0.0836  0.1651
10131SOL    HW148003  13.720   1.498  -0.064 -0.9096  0.4380 -0.5659
10131SOL    HW248004  13.674   1.634  -0.017  0.7409  0.3848  1.3280
10132SOL     OW48005  10.474   7.998   6.456 -0.2321  0.2084  0.3754
10132SOL    HW148006  10.449   7.991   6.549 -0.5774 -0.9212  0.2105
10132SOL    HW248007  10.392   8.016   6.410 -0.5458 -1.8979  0.0147
10133SOL     OW48008   6.661   8.833   5.317 -0.1339  0.2249 -0.8180
10133SOL    HW148009   6.639   8.891   5.245  0.5544  1.2504 -0.2361
10133SOL    HW248010   6.756   8.819   5.309 -0.1282 -0.0262 -0.3828
10134SOL     OW48011  13.221   4.911   6.706  0.4132 -0.2710  0.0572
10134SOL    HW148012  13.127   4.929   6.704  0.1720 -1.1927  1.6461
10134SOL    HW248013  13.240   4.871   6.621 -0.8855 -1.2424  0.1952
10135SOL     OW48014   0.551   9.922   5.200 -0.1807 -0.6141  0.7182
10135SOL    HW148015   0.471   9.974   5.189 -0.5201 -1.3492 -0.4270
10135SOL    HW248016   0.588   9.916   5.112  2.1843  1.2858  1.4483
10136SOL     OW48017   3.206   0.894   1.096 -0.0909  0.1853  0.0304
10136SOL    HW148018   3.211   0.852   1.010  0.9019  0.2324  0.0498
10136SOL    HW248019   3.249   0.978   1.084  0.0272  0.2064  0.5618
10137SOL     OW48020   6.530   9.517  12.911 -0.3728 -0.2377 -0.7066
10137SOL    HW148021   6.558   9.452  12.847 -1.5581 -0.1080 -1.3803
10137SOL    HW248022   6.540   9.472  12.996  0.7334 -0.5752 -0.9896
10138SOL     OW48023   7.141  10.997  13.077 -0.1433 -0.0926 -0.2741
10138SOL    HW148024   7.223  11.015  13.123  1.1306 -1.6542 -1.7653
10138SOL    HW248025   7.101  11.083  13.065  2.7917  1.1823 -2.0942
10139SOL     OW48026   5.596   3.693   2.752 -0.0428  0.0461  0.2403
10139SOL    HW148027   5.534   3.641   2.803  0.5696 -1.0530 -0.1142
10139SOL    HW248028   5.660   3.723   2.816  0.6364 -1.2023  0.1746
10140SOL     OW48029   0.489  11.381   5.957  0.3706 -0.3162  0.2137
10140SOL    HW148030   0.527  11.337   6.032 -1.4559 -3.3514 -0.4588
10140SOL    HW248031   0.513  11.325   5.882 -0.6835  0.7404 -0.9555
10141SOL     OW48032   7.911  11.129   8.007  0.2119 -0.1763  0.3646
10141SOL    HW148033   7.986  11.071   7.990 -0.1761 -0.4084 -0.5777
10141SOL    HW248034   7.907  11.135   8.103  1.3820 -0.2291  0.4317
10142SOL     OW48035  12.623  14.061   1.074  0.2072  0.0153 -0.2055
10142SOL    HW148036  12.655  14.058   0.984 -0.4964 -0.5872 -0.4483
10142SOL    HW248037  12.673  13.994   1.120  1.3005  1.0269  0.1150
10143SOL     OW48038  13.730  10.311   5.319 -0.3625  0.0390 -0.0939
10143SOL    HW148039  13.810  10.298   5.369  0.5644  3.1570 -0.5869
10143SOL    HW248040  13.710  10.224   5.283  2.4253 -0.9601  0.5470
10144SOL     OW48041  13.948  13.215   8.166 -0.1876  0.3581  0.5427
10144SOL    HW148042  13.930  13.269   8.089  1.1187 -0.2954 -0.2613
10144SOL    HW248043  13.888  13.140   8.157 -0.0310  0.2776  0.1531
10145SOL     OW48044   8.488   5.808  13.645 -0.0258  0.3282 -0.1169
10145SOL    HW148045   8.478   5.888  13.696 -1.4166 -0.2415  0.5576
10145SOL    HW248046   8.581   5.805  13.622  0.5953  0.7739  2.1145
10146SOL     OW48047   7.705   5.428   6.912  0.0765 -0.2327  0.3075
10146SOL    HW148048   7.625   5.388   6.878 -0.1816 -0.1391  0.8034
10146SOL    HW248049   7.732   5.489   6.842  0.7266 -1.5705 -0.6497
10147SOL     OW48050   3.603   4.128  13.904  0.1126 -0.0351  0.0679
10147SOL    HW148051   3.684   4.076  13.901 -0.7289 -1.3670 -0.1483
10147SOL    HW248052   3.634   4.218  13.918  1.5156 -0.9138  4.2179
10148SOL     OW48053  10.110   4.838   5.274 -0.0364 -0.0359  0.1089
10148SOL    HW148054  10.029   4.818   5.322 -0.3596  1.0977  0.0714
10148SOL    HW248055  10.122   4.764   5.216 -0.9979 -0.2743  0.1923
10149SOL     OW48056  11.022   5.776   6.551 -0.7127 -0.4018  0.0043
10149SOL    HW148057  10.994   5.708   6.489 -0.0628  1.3899 -2.3885
10149SOL    HW248058  11.111   5.797   6.525 -0.5527  0.6855  1.3337
10150SOL     OW48059  11.485   5.113   1.334 -0.0385 -0.0492 -0.4713
10150SOL    HW148060  11.526   5.180   1.278 -0.4960 -0.0838 -0.8511
10150SOL    HW248061  11.450   5.049   1.273 -3.2060  1.3964 -0.3401
10151SOL     OW48062   1.951  10.162   4.373 -0.0632  0.0163 -0.1091
10151SOL    HW148063   1.934  10.108   4.296  0.8957  0.0579 -0.3551
10151SOL    HW248064   1.989  10.101   4.437  0.5705  0.2881 -0.2175
10152SOL     OW48065  11.328   7.861   3.507 -0.2083 -0.1932  0.1661
10152SOL    HW148066  11.306   7.768   3.499 -2.6927  0.3074  0.3526
10152SOL    HW248067  11.252   7.899   3.550 -0.3564  2.3727 -2.1536
10153SOL     OW48068  10.173  10.586   8.024  0.1397 -0.5928 -0.4481
10153SOL    HW148069  10.175  10.546   8.111 -2.1229  1.9689  0.9616
10153SOL    HW248070  10.096  10.548   7.982  0.1543 -0.4908 -0.5675
10154SOL     OW48071   0.503   1.276   8.045 -0.8183 -0.1906 -0.1553
10154SOL    HW148072   0.431   1.275   8.108  0.2857  0.4251  1.1634
10154SOL    HW248073   0.556   1.200   8.068 -0.7231 -0.3005 -0.7302
10155SOL     OW48074   7.239   2.176   8.300  0.4483 -0.5122  0.0208
10155SOL    HW148075   7.184   2.253   8.286 -0.3867 -1.3939 -1.8721
10155SOL    HW248076   7.316   2.209   8.346  0.2765  1.5108 -1.0476
10156SOL     OW48077   8.856   3.725   3.019  0.1296  0.2232 -0.1328
10156SOL    HW148078   8.894   3.774   2.946  1.1509  0.6782  0.6644
10156SOL    HW248079   8.874   3.633   2.999 -0.2609  0.2847 -0.8015
10157SOL     OW48080  11.507   5.673   8.796  0.1677  0.1270 -0.4804
10157SOL    HW148081  11.412   5.669   8.788  0.0707  2.7012 -1.4500
10157SOL    HW248082  11.540   5.659   8.707  0.7327 -0.9578 -0.1198
10158SOL     OW48083  13.757   4.530   6.429 -0.2822 -0.2898 -0.2314
10158SOL    HW148084  13.666   4.524   6.457 -0.1227  0.7551  0.5651
10158SOL    HW248085  13.807   4.524   6.511  0.4263 -1.8322 -0.7427
10159SOL     OW48086  10.947   4.196   1.618  0.0272  0.2139  0.1561
10159SOL    HW148087  10.969   4.109   1.651  1.4747  1.1762  1.9157
10159SOL    HW248088  10.853   4.192   1.601 -0.2423 -1.2557  1.6849
10160SOL     OW48089   1.726   7.468   1.530  0.1338 -0.4474  0.4558
10160SOL    HW148090   1.770   7.548   1.558  0.5095 -0.3740 -0.3372
10160SOL    HW248091   1.792   7.421   1.478 -0.2734 -0.9937  0.4240
10161SOL     OW48092  13.173   8.850  13.935  0.3794 -0.4232 -0.0532
10161SOL    HW148093  13.193   8.793  13.860 -0.4426 -0.4851 -0.2467
10161SOL    HW248094  13.223   8.813  14.007  0.4595 -0.9317 -0.3604
10162SOL     OW48095   5.925   2.096   9.003  0.4499  0.2854  0.3501
10162SOL    HW148096   5.923   2.126   8.912 -3.0193 -0.0085  0.1947
10162SOL    HW248097   5.869   2.019   9.004  1.1536 -0.2683  2.6022
10163SOL     OW48098  10.085   1.362   1.112  0.2301 -0.0275 -0.7257
10163SOL    HW148099  10.073   1.269   1.132 -2.9692  0.7844  2.2200
10163SOL    HW248100  10.158   1.390   1.168 -0.1343 -0.3975 -0.0508
10164SOL     OW48101   8.412  10.805   9.643  0.2926 -0.7012  0.1456
10164SOL    HW148102   8.393  10.746   9.716 -0.5362  0.5431  0.9614
10164SOL    HW248103   8.335  10.861   9.636  0.6775 -0.3048 -1.2071
10165SOL     OW48104   0.622  10.721   7.155  0.5857  0.0661 -0.5051
10165SOL    HW148105   0.570  10.692   7.231  1.2229 -1.1063 -0.4910
10165SOL    HW248106   0.690  10.777   7.193  0.3701  0.2004 -0.3158
10166SOL     OW48107  12.281   9.760   2.270  0.0449  0.2136 -0.0239
10166SOL    HW148108  12.291   9.674   2.229 -1.7502 -0.1667  0.2673
10166SOL    HW248109  12.369   9.783   2.299  0.5949 -1.4209 -0.2990
10167SOL     OW48110   8.335  10.449   9.288  0.0030 -0.0651  0.3371
10167SOL    HW148111   8.389  10.511   9.335 -1.2099  0.8114  0.6307
10167SOL    HW248112   8.390  10.418   9.216  0.3354  2.0767 -0.3853
10168SOL     OW48113  11.428   7.836  12.804  0.0319 -0.3984 -0.0968
10168SOL    HW148114  11.419   7.930  12.788  0.6336 -0.1486  0.9262
10168SOL    HW248115  11.387   7.794  12.728 -0.9536  0.6814 -0.1871
10169SOL     OW48116   9.673   3.673  10.273 -0.4505 -0.4634 -0.8723
10169SOL    HW148117   9.661   3.694  10.366  0.5255  0.6212 -0.9676
10169SOL    HW248118   9.592   3.700  10.231 -0.2078  0.7276 -0.5916
10170SOL     OW48119   3.302   9.749  11.035  0.0564  0.2684  0.1309
10170SOL    HW148120   3.244   9.823  11.014 -0.0667  0.7710  2.0115
10170SOL    HW248121   3.386   9.773  10.995 -0.0963  1.2570  0.3607
10171SOL     OW48122   3.100   6.554   1.778 -0.2162 -0.4681 -0.2032
10171SOL    HW148123   3.092   6.459   1.767  0.4200 -0.3596 -2.0710
10171SOL    HW248124   3.154   6.582   1.704 -0.2421  1.3429  0.4042
10172SOL     OW48125   9.094   0.026   1.014  0.4554 -0.1197 -0.1875
10172SOL    HW148126   9.079   0.121   1.007  1.7410  0.1233  0.2045
10172SOL    HW248127   9.014  -0.007   1.056  0.4844  0.9572  0.7594
10173SOL     OW48128   0.583   9.858   1.740  0.8056  1.0080  0.4286
10173SOL    HW148129   0.587   9.952   1.720  0.0193  1.2893  1.5138
10173SOL    HW248130   0.631   9.817   1.668 -0.1843  2.1118 -0.9270
10174SOL     OW48131   9.954   3.168  12.128  0.7399 -0.2082 -0.5429
10174SOL    HW148132   9.861   3.169  12.152  0.2039 -1.6530 -2.3264
10174SOL    HW248133   9.996   3.118  12.198  0.2782  0.8525  0.5246
10175SOL     OW48134  10.835  11.798   1.611  0.0530 -0.0054 -0.6991
10175SOL    HW148135  10.830  11.818   1.704 -1.5883  2.0223 -1.1585
10175SOL    HW248136  10.929  11.802   1.591  0.4515 -0.7262  0.8822
10176SOL     OW48137   6.492   1.002   3.826 -0.5310 -0.5710  0.0328
10176SOL    HW148138   6.477   0.909   3.840  4.2201 -1.2615  2.2339
10176SOL    HW248139   6.561   1.006   3.760 -0.9105  1.4612 -0.3135
10177SOL     OW48140   9.036   9.691   0.899 -0.6872 -0.0879 -0.1428
10177SOL    HW148141   9.041   9.735   0.984  0.8664 -1.1758  0.3645
10177SOL    HW248142   9.038   9.763   0.836  2.1264  0.6711  0.6575
10178SOL     OW48143   3.548   6.270  13.313 -0.0631  0.0661  0.7574
10178SOL    HW148144   3.579   6.232  13.231 -1.3449  0.9933 -0.1931
10178SOL    HW248145   3.526   6.360  13.291 -1.0916  0.1267  1.9431
10179SOL     OW48146  12.060   6.185   7.205 -0.5197  0.3144  0.1203
10179SOL    HW148147  12.141   6.226   7.236 -0.1173 -0.4454  0.0953
10179SOL    HW248148  12.089   6.112   7.150 -1.2108  1.3608 -1.7495
10180SOL     OW48149   2.845   0.558  12.230  0.2716  0.0415 -0.0526
10180SOL    HW148150   2.822   0.467  12.211 -2.5426 -0.3002  3.7335
10180SOL    HW248151   2.940   0.558  12.240  0.4221 -2.2454 -1.0321
10181SOL     OW48152   4.388   4.616  10.410 -0.6808  0.4645  0.9444
10181SOL    HW148153   4.314   4.674  10.426  0.2251  1.8445  0.2709
10181SOL    HW248154   4.456   4.673  10.375 -0.2563 -1.2197 -1.2024
10182SOL     OW48155   4.687   6.957  12.398 -0.2891 -0.1189  0.1069
10182SOL    HW148156   4.665   6.985  12.487  0.1822  0.9354 -0.0896
10182SOL    HW248157   4.642   7.019  12.341  1.4136  0.7893 -0.3334
10183SOL     OW48158   2.445   1.617   5.409  0.0716  0.5673  0.5430
10183SOL    HW148159   2.405   1.549   5.356  1.8135 -0.6267  0.6827
10183SOL    HW248160   2.371   1.658   5.455 -1.1824 -0.0934 -0.8056
10184SOL     OW48161  11.975   8.999  11.380  0.4929 -0.2318  0.2484
10184SOL    HW148162  12.007   8.946  11.453 -1.9028  0.6947  2.1235
10184SOL    HW248163  11.998   8.949  11.302 -0.7456 -3.5838  1.8367
10185SOL     OW48164   4.452  10.590   1.828  0.0286 -0.6152  0.0543
10185SOL    HW148165   4.380  10.581   1.765 -0.3900 -0.7784  0.5481
10185SOL    HW248166   4.454  10.507   1.874 -0.1251 -0.2492  0.7300
10186SOL     OW48167   6.126   0.150  12.451 -0.1494  0.9425 -0.5727
10186SOL    HW148168   6.047   0.161  12.505  0.6692  1.9434  0.4888
10186SOL    HW248169   6.175   0.080  12.494 -0.6265  0.0373 -1.4680
10187SOL     OW48170   6.365   3.511   0.008  0.1229  0.5545  0.5711
10187SOL    HW148171   6.457   3.485   0.010  0.2007  0.7586 -0.0616
10187SOL    HW248172   6.344   3.518  -0.085 -0.4862  0.6782  0.7122
10188SOL     OW48173   7.040   7.351  11.677  0.2574 -0.1321 -0.2154
10188SOL    HW148174   7.115   7.363  11.735 -1.3317 -0.2177  1.9777
10188SOL    HW248175   7.042   7.257  11.655 -0.1403 -0.5208  1.2699
10189SOL     OW48176  11.509  11.370   9.918  0.2056  0.5205  1.2536
10189SOL    HW148177  11.589  11.416   9.945  0.7619 -0.4557  1.3008
10189SOL    HW248178  11.447  11.389   9.988  0.6634  0.6052  1.6452
10190SOL     OW48179   1.169   8.031   8.831 -0.2835 -0.1971  0.1915
10190SOL    HW148180   1.202   8.075   8.753 -2.6950  1.4639  0.0161
10190SOL    HW248181   1.221   8.069   8.903  0.3359 -0.0076 -0.3446
10191SOL     OW48182  12.536   3.292   6.591  0.1654  0.1669 -1.4857
10191SOL    HW148183  12.477   3.331   6.655 -0.3527 -2.1045 -0.4925
10191SOL    HW248184  12.621   3.291   6.634 -0.1000 -0.9852 -0.9588
10192SOL     OW48185   5.071   4.587   9.042 -0.0209  0.2834  0.4266
10192SOL    HW148186   5.118   4.666   9.069 -0.2929  0.3804  0.6156
10192SOL    HW248187   5.140   4.523   9.027  0.2656  0.7866 -0.5092
10193SOL     OW48188   9.160   2.347  11.211  0.3051  0.1892 -0.4222
10193SOL    HW148189   9.210   2.343  11.293 -1.4056  0.3536  0.6790
10193SOL    HW248190   9.198   2.421  11.163  0.9161  0.5009  0.5192
10194SOL     OW48191   6.842   3.605  12.757 -0.0669  0.5043  0.0903
10194SOL    HW148192   6.866   3.533  12.699  1.0546  1.0267 -0.1319
10194SOL    HW248193   6.762   3.575  12.801  1.2304 -1.5748  1.2161
10195SOL     OW48194   5.037  11.086   1.486 -0.2258 -0.4720  0.1172
10195SOL    HW148195   5.066  11.171   1.519 -1.1126 -0.8160  1.9268
10195SOL    HW248196   4.942  11.087   1.498 -0.4769 -1.0352 -1.5747
10196SOL     OW48197   2.000   9.632   5.977  0.3167 -0.0920 -0.0860
10196SOL    HW148198   2.077   9.633   5.921  0.5450 -1.5844  0.1776
10196SOL    HW248199   1.956   9.716   5.958  3.2286  1.9718  1.5619
10197SOL     OW48200   3.927   4.529  13.284  0.3297  0.0722  0.4456
10197SOL    HW148201   3.869   4.505  13.212  0.4018  1.3057 -0.0414
10197SOL    HW248202   3.990   4.457  13.289 -1.1808 -1.2803  0.9607
10198SOL     OW48203   9.496  13.877   0.151  0.3080  0.2949  0.8439
10198SOL    HW148204   9.535  13.930   0.081 -1.0527  1.6499  1.0738
10198SOL    HW248205   9.521  13.922   0.232  1.7909 -1.2088  1.2906
10199SOL     OW48206  13.687   8.922   8.308  0.2148  0.4668 -0.3951
10199SOL    HW148207  13.649   9.007   8.333  1.1503  1.2627 -1.5898
10199SOL    HW248208  13.750   8.903   8.377  1.3501  1.6855 -1.0484
10200SOL     OW48209   3.537   9.465   2.908 -0.4312 -0.3177  0.4884
10200SOL    HW148210   3.547   9.408   2.832 -1.3553 -0.8398  0.7509
10200SOL    HW248211   3.627   9.490   2.931 -0.1785  0.3888 -1.1700
10201SOL     OW48212   4.235   2.319   1.125 -0.3043 -0.2397  0.6403
10201SOL    HW148213   4.322   2.309   1.164 -0.1881 -1.0547  0.1919
10201SOL    HW248214   4.252   2.340   1.033 -0.5583  2.7633  1.1722
10202SOL     OW48215   5.551   5.686   3.960  0.4568  0.4164  0.1842
10202SOL    HW148216   5.476   5.634   3.932 -0.7603  1.0130  2.1826
10202SOL    HW248217   5.601   5.627   4.016  0.5177  0.5829  0.3033
10203SOL     OW48218   8.709   0.344   1.632  0.6016  0.1303  0.1623
10203SOL    HW148219   8.657   0.365   1.710 -0.0401 -0.6985 -0.0296
10203SOL    HW248220   8.799   0.338   1.664  0.4529  0.6039  0.6842
10204SOL     OW48221   7.275  13.954   3.084  0.4721 -0.0885  0.1155
10204SOL    HW148222   7.248  13.862   3.086  1.7252 -0.4824 -0.3233
10204SOL    HW248223   7.352  13.955   3.029  2.5737  0.6264  2.8410
10205SOL     OW48224  10.093  13.984   6.487  0.0598  0.1778 -0.1666
10205SOL    HW148225  10.060  13.895   6.482  1.9532 -0.6569  1.0638
10205SOL    HW248226  10.036  14.034   6.429 -2.8816 -1.2241  1.2857
10206SOL     OW48227   8.100   2.896   5.920 -0.3373 -0.4809 -0.1133
10206SOL    HW148228   8.170   2.950   5.882 -1.7004  0.3280 -1.5894
10206SOL    HW248229   8.036   2.887   5.850 -0.7302 -3.0761  0.4671
10207SOL     OW48230   7.617  12.081  13.713 -0.6670  0.4831  0.0993
10207SOL    HW148231   7.625  12.170  13.747 -0.4478  0.2489  0.6735
10207SOL    HW248232   7.523  12.065  13.707 -0.7051  0.7455  0.0154
10208SOL     OW48233   1.717  11.593   0.816 -0.4170  0.5003  0.0033
10208SOL    HW148234   1.771  11.612   0.739  2.3582 -0.6984  1.5227
10208SOL    HW248235   1.735  11.666   0.876 -2.0654  1.0896 -0.1502
10209SOL     OW48236  11.653   2.961  12.788  0.0278 -0.1534 -0.2421
10209SOL    HW148237  11.604   3.043  12.795 -0.0245 -0.1844 -0.2481
10209SOL    HW248238  11.596   2.903  12.739  0.4828  0.1332 -1.1254
10210SOL     OW48239  13.900   1.559   8.078  0.3015  0.2055 -0.4222
10210SOL    HW148240  13.952   1.519   8.147 -2.4221  0.4062  1.9330
10210SOL    HW248241  13.893   1.651   8.103  2.0638  1.1370 -2.9150
10211SOL     OW48242   2.815  12.544   5.271  0.1143 -0.2104 -0.2764
10211SOL    HW148243   2.842  12.530   5.361 -1.1069 -3.4891 -0.3007
10211SOL    HW248244   2.896  12.566   5.224  0.8184  1.1248  1.4677
10212SOL     OW48245   2.232   8.281   0.336 -0.5578  0.1993 -0.1149
10212SOL    HW148246   2.288   8.358   0.324  0.1801 -0.4338 -0.9309
10212SOL    HW248247   2.283   8.223   0.393 -1.4692  0.6409  1.1926
10213SOL     OW48248  10.112  11.721   2.526  0.3905 -0.4340  0.4838
10213SOL    HW148249  10.045  11.704   2.460 -0.2660 -1.6686  1.4267
10213SOL    HW248250  10.178  11.652   2.512  1.2683  0.4969 -0.1406
10214SOL     OW48251  10.419   7.173  12.449 -0.0807  0.4008  0.4306
10214SOL    HW148252  10.444   7.108  12.383 -2.2105  0.7548 -0.8567
10214SOL    HW248253  10.414   7.123  12.531 -2.1634 -1.2917 -0.5970
10215SOL     OW48254   8.623   5.583   9.876 -0.0247  0.3273  0.8447
10215SOL    HW148255   8.544   5.542   9.910 -1.9653  0.8310 -2.5405
10215SOL    HW248256   8.621   5.672   9.911 -1.9172  0.8285 -0.4057
10216SOL     OW48257   5.459   2.397   4.079 -0.1689 -0.0932  0.0744
10216SOL    HW148258   5.457   2.492   4.071 -1.7392 -0.2235 -1.9600
10216SOL    HW248259   5.526   2.369   4.017 -0.7156 -0.3632 -0.4049
10217SOL     OW48260   1.731   3.025   4.351 -0.4205 -0.0649 -0.1200
10217SOL    HW148261   1.801   3.031   4.416  0.0519 -0.8769 -0.5384
10217SOL    HW248262   1.655   2.995   4.401  0.1647 -1.5428 -0.0785
10218SOL     OW48263   5.461  14.050   6.686 -0.4226  0.5337  0.4601
10218SOL    HW148264   5.465  14.038   6.781  2.7541 -1.7808  0.2121
10218SOL    HW248265   5.543  14.094   6.664  0.6723 -2.1532 -1.4181
10219SOL     OW48266  12.236   7.405   3.226  0.0865 -0.0519  0.0590
10219SOL    HW148267  12.147   7.398   3.191  0.3009 -0.1896 -0.4614
10219SOL    HW248268  12.248   7.499   3.242 -1.0845 -0.2456  2.5913
10220SOL     OW48269  13.576   5.890   2.940 -0.7302 -0.2876  0.2172
10220SOL    HW148270  13.637   5.903   2.868 -0.3086  0.4932  0.7012
10220SOL    HW248271  13.607   5.810   2.983 -0.1242  0.0299  0.3808
10221SOL     OW48272   2.265   0.090  10.623 -0.1804  1.0226 -0.2157
10221SOL    HW148273   2.229   0.169  10.583  0.6593  1.3692 -0.3107
10221SOL    HW248274   2.356   0.087  10.593 -0.1808  0.0458 -0.1724
10222SOL     OW48275   5.094  11.794   7.710  0.0394 -0.4692 -0.3758
10222SOL    HW148276   5.181  11.762   7.685  0.5991 -0.2384  1.1781
10222SOL    HW248277   5.101  11.889   7.705 -0.2411 -0.4631 -0.6310
10223SOL     OW48278   9.984   8.571   3.763 -0.8210 -0.0892 -0.0830
10223SOL    HW148279   9.916   8.513   3.728 -2.4138  1.2927  0.5718
10223SOL    HW248280  10.035   8.516   3.822  0.2835 -1.8117 -2.4667
10224SOL     OW48281   3.600   2.924   1.794 -0.2230  0.1890 -0.3384
10224SOL    HW148282   3.642   3.006   1.766 -1.9231  1.8885  1.7457
10224SOL    HW248283   3.665   2.882   1.849  0.1473  0.8774 -0.2358
10225SOL     OW48284  12.944   3.831   3.487  0.0399  0.1971 -0.1595
10225SOL    HW148285  12.903   3.761   3.437 -0.3999  1.0624 -1.0373
10225SOL    HW248286  12.910   3.912   3.449  0.5188  0.9014  0.8409
10226SOL     OW48287   0.460  11.184  10.943 -0.0694 -0.3800  0.0099
10226SOL    HW148288   0.440  11.245  10.872 -1.4179  0.2805  0.9137
10226SOL    HW248289   0.469  11.099  10.899  1.3649  0.3470 -1.2030
10227SOL     OW48290   9.277  13.881  12.882  0.5213  0.2685  0.5716
10227SOL    HW148291   9.368  13.880  12.912 -0.0117  0.3496  2.2708
10227SOL    HW248292   9.228  13.839  12.952 -0.9925  1.8952  0.5517
10228SOL     OW48293   5.164   6.940   8.439 -0.0078 -0.3118 -0.2844
10228SOL    HW148294   5.211   6.992   8.374  1.0347 -1.9057 -0.8621
10228SOL    HW248295   5.131   7.005   8.502 -1.8388  1.4025 -2.7980
10229SOL     OW48296  10.931  11.172  13.145  0.0663  0.1000  0.2583
10229SOL    HW148297  10.848  11.216  13.163  0.0997 -0.2819  1.4736
10229SOL    HW248298  10.957  11.203  13.059 -1.3236  0.2386 -0.1302
10230SOL     OW48299  12.663   9.765   5.927 -0.0163 -0.5779 -0.1498
10230SOL    HW148300  12.590   9.714   5.962 -0.8142 -1.2642 -2.6579
10230SOL    HW248301  12.737   9.742   5.983 -1.4548 -0.5786  1.8761
10231SOL     OW48302   1.921   1.520   6.342 -0.1832  0.0628 -0.5499
10231SOL    HW148303   1.835   1.498   6.378  0.2099 -1.7261 -0.6096
10231SOL    HW248304   1.964   1.436   6.329  2.7632  0.9158  2.3213
10232SOL     OW48305   5.221   7.972   4.180  0.2548  0.1054 -0.3416
10232SOL    HW148306   5.198   8.051   4.131 -0.9586  0.5416  0.8486
10232SOL    HW248307   5.186   7.988   4.268  2.5380 -0.5460  0.7654
10233SOL     OW48308   8.037   2.945   3.909 -0.5315  0.4928  0.4955
10233SOL    HW148309   8.055   2.862   3.952 -2.0198  0.0680  0.3506
10233SOL    HW248310   7.947   2.965   3.932 -1.1174  0.6832 -1.6776
10234SOL     OW48311   4.800   2.751  12.388 -0.6743  0.0972 -0.4832
10234SOL    HW148312   4.785   2.677  12.447 -0.8151  2.4341  2.6819
10234SOL    HW248313   4.895   2.757  12.382 -0.6473  0.0345 -0.1749
10235SOL     OW48314   0.984   1.107  10.086 -0.1657  0.0237 -0.3792
10235SOL    HW148315   1.060   1.077  10.036 -0.3220 -1.8249  0.3997
10235SOL    HW248316   1.020   1.173  10.145  0.8836 -0.8320 -0.0078
10236SOL     OW48317   6.961   3.609  12.106  0.7067  0.1002 -0.0316
10236SOL    HW148318   7.015   3.634  12.181  0.4472 -0.4476  0.3423
10236SOL    HW248319   6.881   3.574  12.145  0.8061 -0.7207 -0.5549
10237SOL     OW48320   0.977   7.567  12.627  0.1544 -0.0967  0.7801
10237SOL    HW148321   1.032   7.490  12.643  0.7087  0.1112 -0.0413
10237SOL    HW248322   1.015   7.636  12.681 -0.9147 -0.6171  2.2573
10238SOL     OW48323   1.166   8.099  10.497  0.4777  0.3240 -0.1673
10238SOL    HW148324   1.167   8.195  10.495 -1.0507  0.4023  1.0142
10238SOL    HW248325   1.114   8.075  10.420  0.1739  0.4960 -0.0222
10239SOL     OW48326   5.684   3.072   8.854  0.5495  0.1820  0.4441
10239SOL    HW148327   5.597   3.039   8.831  0.0678 -0.0089  2.3653
10239SOL    HW248328   5.678   3.167   8.841  0.8314 -0.0327 -1.6584
10240SOL     OW48329  13.113   5.811   6.665  0.1921 -0.6338  0.0046
10240SOL    HW148330  13.127   5.717   6.677 -1.6079 -1.1112 -1.2066
10240SOL    HW248331  13.175   5.835   6.596  0.2655 -1.0769 -0.0924
10241SOL     OW48332  13.097   9.991  11.034  0.1984  0.3930  0.2602
10241SOL    HW148333  13.181   9.946  11.028  1.3174  2.3174  0.6585
10241SOL    HW248334  13.110  10.073  10.986 -1.2433  1.0214  0.8715
10242SOL     OW48335   0.646   8.006  13.394 -0.3376 -0.1381  0.3980
10242SOL    HW148336   0.550   7.998  13.393 -0.6087  1.9719 -1.9037
10242SOL    HW248337   0.675   7.943  13.459 -3.4728  1.1461  3.3673
10243SOL     OW48338   8.001   4.811   5.917 -0.1548  0.3888  0.4046
10243SOL    HW148339   8.088   4.799   5.955  0.2807  1.6302 -0.1605
10243SOL    HW248340   7.993   4.906   5.904 -1.1751  0.1971 -0.5373
10244SOL     OW48341   4.674   0.236  12.740  0.8439 -0.4826 -0.1456
10244SOL    HW148342   4.728   0.241  12.819  1.6151  1.9567 -0.7139
10244SOL    HW248343   4.715   0.299  12.680  0.2585 -2.1914 -2.4918
10245SOL     OW48344  12.293   6.793  12.528 -0.1268  0.4455 -0.3716
10245SOL    HW148345  12.324   6.797  12.438  0.6511 -0.0324 -0.1276
10245SOL    HW248346  12.248   6.877  12.541 -0.4108  0.4444 -1.2503
10246SOL     OW48347  12.809   4.786   9.701 -0.0550 -0.2709  0.0083
10246SOL    HW148348  12.759   4.818   9.626  0.2091  3.3141  1.2047
10246SOL    HW248349  12.901   4.800   9.676  0.1013 -0.6976  0.3385
10247SOL     OW48350  13.387   7.685   8.541  0.0052  0.3515  0.1773
10247SOL    HW148351  13.474   7.716   8.564  1.5551 -0.0900 -4.1856
10247SOL    HW248352  13.402   7.619   8.473 -3.6702 -1.5096  0.9160
10248SOL     OW48353   1.273  12.188   2.180  0.0977  0.2760  0.0931
10248SOL    HW148354   1.219  12.210   2.256  1.8481 -0.0773  1.5189
10248SOL    HW248355   1.330  12.117   2.211  0.0906 -0.6838 -1.9285
10249SOL     OW48356   2.258   6.060   6.272 -0.1814 -0.1375 -0.0569
10249SOL    HW148357   2.248   6.009   6.352 -1.0631 -0.6632 -0.4890
10249SOL    HW248358   2.352   6.077   6.266 -0.0611 -0.4383  0.8676
10250SOL     OW48359   7.219   5.615  11.623 -0.4181 -0.3592  0.2568
10250SOL    HW148360   7.156   5.557  11.580  0.0325 -0.6445 -0.0202
10250SOL    HW248361   7.190   5.618  11.715 -2.0266  1.1110 -0.2332
10251SOL     OW48362   0.995   1.791  10.731  0.2567 -0.6653  0.2399
10251SOL    HW148363   0.913   1.779  10.777  0.0949  0.7245  0.3602
10251SOL    HW248364   0.981   1.869  10.677  1.4215 -0.5200  0.1130
10252SOL     OW48365   6.207   0.873   8.304  0.3550  0.3301 -0.0220
10252SOL    HW148366   6.114   0.895   8.309 -0.3800 -2.0547 -1.5733
10252SOL    HW248367   6.213   0.788   8.347  1.6830  0.1447 -0.5415
10253SOL     OW48368   4.032   3.476   5.891  0.8891  0.8934  0.7208
10253SOL    HW148369   4.099   3.506   5.952  2.7879 -1.2204 -0.1406
10253SOL    HW248370   4.071   3.489   5.804  0.0174  0.0323  0.1710
10254SOL     OW48371  12.706  12.385  12.500  0.1982 -0.1024  0.4172
10254SOL    HW148372  12.616  12.401  12.472  0.3491  0.6196  0.3239
10254SOL    HW248373  12.742  12.326  12.434 -0.7320 -1.8748  1.4046
10255SOL     OW48374   2.252   8.471   9.412 -0.7686  0.1458  0.0166
10255SOL    HW148375   2.201   8.390   9.410  1.6498 -1.5659  1.7269
10255SOL    HW248376   2.283   8.477   9.503  0.5722  2.0644 -0.5149
10256SOL     OW48377   9.126  10.562   9.406  0.8589  0.6357 -0.5307
10256SOL    HW148378   9.042  10.591   9.369  0.0088 -0.7565  0.2592
10256SOL    HW248379   9.138  10.473   9.372  2.0607  0.8376 -0.6797
10257SOL     OW48380  14.082  12.729  13.573 -0.5947 -0.5271 -0.3749
10257SOL    HW148381  14.119  12.727  13.661 -2.2949  0.1452  0.3994
10257SOL    HW248382  14.110  12.814  13.538 -1.5629  0.0741  0.2863
10258SOL     OW48383   7.972  12.432  11.741 -0.0218 -0.5969  0.5297
10258SOL    HW148384   7.964  12.498  11.810  0.2320 -1.7188  1.6474
10258SOL    HW248385   8.040  12.468  11.683  0.4023 -0.0538  1.3342
10259SOL     OW48386   8.138  10.635  13.015 -0.0866  0.2479  0.2888
10259SOL    HW148387   8.096  10.554  13.041  0.7347  0.3194  1.9712
10259SOL    HW248388   8.086  10.704  13.055 -0.3972  0.5289 -0.5787
10260SOL     OW48389   5.663  13.465   5.121 -0.4813  0.1978 -0.2046
10260SOL    HW148390   5.714  13.411   5.061  0.1325  1.5294 -0.9216
10260SOL    HW248391   5.631  13.404   5.187  0.2209 -1.0229 -0.9602
10261SOL     OW48392   1.958  11.738  12.898  0.7311 -0.6524  0.6394
10261SOL    HW148393   1.971  11.828  12.925  1.1757 -0.4013 -0.3492
10261SOL    HW248394   1.863  11.731  12.881  0.7917 -0.1645  0.0563
10262SOL     OW48395   1.157   2.061   6.703 -0.2408  0.3355 -0.3518
10262SOL    HW148396   1.112   2.052   6.787  0.0233  1.0905 -0.1162
10262SOL    HW248397   1.211   1.983   6.696  0.8825  0.9592  0.9031
10263SOL     OW48398   1.679  11.334   9.871  0.5759 -0.1222  0.0811
10263SOL    HW148399   1.669  11.417   9.824 -2.8706 -1.0595 -1.1626
10263SOL    HW248400   1.691  11.269   9.802 -0.3408 -1.0309  0.7583
10264SOL     OW48401   9.936  13.480   8.951  0.5290 -0.3770  0.3407
10264SOL    HW148402   9.847  13.445   8.961  0.0698  0.7156  0.1457
10264SOL    HW248403   9.983  13.410   8.905 -0.5959 -0.4082 -0.8231
10265SOL     OW48404   9.830  12.240   2.106 -0.3426 -0.2130 -0.9646
10265SOL    HW148405   9.877  12.218   2.187 -0.4264  0.1469 -0.8198
10265SOL    HW248406   9.869  12.181   2.040 -0.7011 -0.9425 -0.5426
10266SOL     OW48407   6.079   8.173   0.057 -0.2135 -0.2873  0.3120
10266SOL    HW148408   6.078   8.096   0.115 -1.9678 -0.8708 -0.4070
10266SOL    HW248409   5.987   8.199   0.051 -0.0910 -0.1897 -2.1138
10267SOL     OW48410   8.017  12.873   2.059  0.1144 -0.1144  0.5443
10267SOL    HW148411   7.969  12.842   2.135 -0.2575  0.3190  0.4899
10267SOL    HW248412   8.092  12.919   2.096  0.2344 -0.3824  0.6373
10268SOL     OW48413  10.266  12.545   8.646  0.4057  0.0602  0.0326
10268SOL    HW148414  10.225  12.477   8.593  2.3403  0.6273 -2.3684
10268SOL    HW248415  10.192  12.597   8.679 -0.9868  0.6545 -3.5149
10269SOL     OW48416   6.631   9.066   5.746 -0.1140  0.2784 -0.4677
10269SOL    HW148417   6.565   9.120   5.791  1.1019  0.8670  0.6661
10269SOL    HW248418   6.713   9.113   5.759  1.0670 -2.0020  0.8334
10270SOL     OW48419   4.562  12.736   9.674 -0.3484  0.5534 -0.0503
10270SOL    HW148420   4.610  12.657   9.697 -0.1229  0.0490 -2.0358
10270SOL    HW248421   4.499  12.748   9.744  0.0618 -1.0112  0.6172
10271SOL     OW48422  13.424   0.428   4.216 -0.1126  0.0891 -0.0316
10271SOL    HW148423  13.481   0.470   4.281 -1.1475 -0.5872  1.3368
10271SOL    HW248424  13.350   0.394   4.266 -0.4620 -1.3259 -1.4279
10272SOL     OW48425  12.382  13.528   6.685 -0.4031 -0.2577 -0.1525
10272SOL    HW148426  12.287  13.522   6.675 -1.0397  2.5280  2.7110
10272SOL    HW248427  12.417  13.490   6.604 -3.9545 -0.1265 -1.9340
10273SOL     OW48428   0.028  10.312   8.370 -0.2221 -0.1876  0.0027
10273SOL    HW148429   0.059  10.384   8.316 -0.7874  0.1651  0.1435
10273SOL    HW248430   0.094  10.243   8.358  0.7130  0.5955  0.4361
10274SOL     OW48431  12.042   9.523   5.088  0.3121 -0.1164 -0.1796
10274SOL    HW148432  12.032   9.450   5.028  1.3769  0.3586 -0.9750
10274SOL    HW248433  12.136   9.538   5.092  0.1716  0.6621  0.6404
10275SOL     OW48434  12.894  11.951  10.132 -0.4014 -0.0730 -0.6504
10275SOL    HW148435  12.923  11.866  10.163 -0.2779 -0.1226 -0.8994
10275SOL    HW248436  12.952  12.014  10.176 -1.8261  0.0525  1.1995
10276SOL     OW48437   2.079   8.132  11.681 -0.3279  0.6264  0.2067
10276SOL    HW148438   2.143   8.061  11.684 -0.3945  0.5553 -0.0643
10276SOL    HW248439   1.998   8.093  11.713 -0.1568  0.8015  0.8712
10277SOL     OW48440   3.638   5.686  13.899  0.1185  0.2261 -0.1483
10277SOL    HW148441   3.543   5.674  13.899  0.0927  0.2905 -1.7940
10277SOL    HW248442   3.655   5.735  13.980 -1.4484  1.6554 -0.6212
10278SOL     OW48443   5.596  11.956  11.501  0.0605  0.2235  0.4574
10278SOL    HW148444   5.609  11.906  11.420 -0.6955 -1.3426  1.2610
10278SOL    HW248445   5.677  12.006  11.511  1.0497 -1.1681 -0.1830
10279SOL     OW48446  12.585   6.269   6.163 -0.2648 -0.0951  0.4620
10279SOL    HW148447  12.519   6.270   6.232 -2.2435 -0.4026 -1.3229
10279SOL    HW248448  12.580   6.181   6.126  1.5512 -0.2893  0.5996
10280SOL     OW48449  13.903  13.102   1.951  0.4472  0.4501 -0.0689
10280SOL    HW148450  13.974  13.084   2.012  0.2507  0.0803  0.0546
10280SOL    HW248451  13.929  13.182   1.906  1.4261 -0.2321 -0.7566
10281SOL     OW48452   1.323   1.551   7.897 -0.4802  0.0598  0.1795
10281SOL    HW148453   1.274   1.474   7.927  0.1287  0.2060  1.5982
10281SOL    HW248454   1.391   1.515   7.840 -1.1979 -0.2904 -0.4820
10282SOL     OW48455   6.079   3.487   1.957 -0.0490 -0.4372 -0.1359
10282SOL    HW148456   6.118   3.459   1.873  0.2089  0.7915 -0.4434
10282SOL    HW248457   6.154   3.518   2.008 -0.2969 -0.5561  0.2976
10283SOL     OW48458   5.004   3.520  13.161  0.5074 -0.1615 -0.1206
10283SOL    HW148459   5.003   3.424  13.155  0.8767 -0.0773 -1.7533
10283SOL    HW248460   5.077   3.540  13.219 -0.1104 -0.8789  0.9453
10284SOL     OW48461  11.835   7.102   7.590  0.0870  0.4107  0.3107
10284SOL    HW148462  11.876   7.115   7.504 -0.7023  2.6669  0.2122
10284SOL    HW248463  11.767   7.036   7.574 -0.9718  1.7610 -1.1907
10285SOL     OW48464   3.619   4.260   1.621 -0.5077 -0.0682  0.1022
10285SOL    HW148465   3.705   4.219   1.610 -0.0120  1.1963 -1.0709
10285SOL    HW248466   3.573   4.240   1.539 -1.2712 -0.5497  0.6341
10286SOL     OW48467  13.062  10.142   6.201  0.7873 -0.8912 -0.3750
10286SOL    HW148468  13.056  10.162   6.295 -0.4077 -1.9723 -0.1927
10286SOL    HW248469  12.991  10.193   6.162 -1.0341 -3.1064 -0.1647
10287SOL     OW48470   1.155   5.250  11.217  0.5369 -1.0183  0.3452
10287SOL    HW148471   1.107   5.296  11.286  2.1639  0.0712  0.8077
10287SOL    HW248472   1.102   5.262  11.139 -1.1820 -1.9955  1.2977
10288SOL     OW48473   4.226   3.006   8.975  0.1991  0.3378 -0.0696
10288SOL    HW148474   4.253   2.991   9.066  1.5834  0.1347 -0.4917
10288SOL    HW248475   4.242   2.922   8.931  0.4291  0.7124 -0.7079
10289SOL     OW48476  11.548   9.229   3.708  0.0744  0.0797 -0.0404
10289SOL    HW148477  11.518   9.306   3.659 -1.9572 -0.5783  0.0679
10289SOL    HW248478  11.556   9.259   3.798  1.1958  0.6264 -0.3099
10290SOL     OW48479  12.748  12.106   4.265 -0.3265 -0.2945 -0.2085
10290SOL    HW148480  12.713  12.195   4.261 -1.4527 -0.7349 -0.4181
10290SOL    HW248481  12.692  12.061   4.328  0.7606 -0.6431  0.5419
10291SOL     OW48482  13.610   2.777   6.246  0.1606  0.1583 -0.0392
10291SOL    HW148483  13.600   2.771   6.151  1.9225  1.3575 -0.3335
10291SOL    HW248484  13.580   2.691   6.278  0.0946 -0.4789 -1.7066
10292SOL     OW48485   2.912   0.066   2.965 -0.5006  0.6278 -0.2150
10292SOL    HW148486   2.876   0.036   2.882 -0.1342 -0.5618  0.0392
10292SOL    HW248487   3.007   0.056   2.956 -0.3263  2.0321 -0.2241
10293SOL     OW48488   1.554   0.028  13.094  0.3938 -0.3722 -0.0940
10293SOL    HW148489   1.586   0.034  13.184  0.5163  0.9324 -0.2176
10293SOL    HW248490   1.629   0.054  13.040 -0.1699  0.4463 -0.4942
10294SOL     OW48491   5.397  13.690  10.694 -0.1662 -0.2892 -0.1078
10294SOL    HW148492   5.366  13.718  10.780  0.3994  0.4051 -0.1201
10294SOL    HW248493   5.467  13.628  10.714 -0.5522 -0.7191 -0.0753
10295SOL     OW48494   1.646   8.790   8.987  0.6168 -0.6724  0.1026
10295SOL    HW148495   1.646   8.698   9.011 -1.2387 -0.9057 -0.6295
10295SOL    HW248496   1.609   8.835   9.063  2.3449 -0.3830  0.8155
10296SOL     OW48497   6.500   1.574   0.762  0.4370 -0.0614 -0.0833
10296SOL    HW148498   6.488   1.485   0.795  1.6255 -0.7130 -1.2933
10296SOL    HW248499   6.419   1.620   0.785 -0.1578 -1.4341  0.6360
10297SOL     OW48500   7.463   2.864   9.441 -0.2024  0.1819  0.5390
10297SOL    HW148501   7.394   2.798   9.441 -0.7779  0.6845 -1.9821
10297SOL    HW248502   7.439   2.924   9.511  0.0145 -1.8909  2.4873
10298SOL     OW48503   3.863   4.066  13.872  0.0091  0.2331 -0.2172
10298SOL    HW148504   3.955   4.052  13.895  0.2412  1.4008 -0.3978
10298SOL    HW248505   3.848   4.008  13.798  0.2886 -0.7814  0.4952
10299SOL     OW48506   2.219  12.989   9.763  0.0429 -0.2415 -0.6874
10299SOL    HW148507   2.169  12.958   9.839 -2.0894 -1.0498 -2.3102
10299SOL    HW248508   2.302  12.941   9.767  0.6586  0.8643  1.8991
10300SOL     OW48509   8.403   3.260  10.306  0.3242 -0.5124  0.1337
10300SOL    HW148510   8.491   3.249  10.342 -1.1046 -2.7390  3.3952
10300SOL    HW248511   8.396   3.191  10.240 -0.0666 -2.9709  2.5459
10301SOL     OW48512  10.002   6.170   0.751 -0.2261  0.3997 -0.2725
10301SOL    HW148513   9.961   6.105   0.693  0.2516  0.1533 -0.3437
10301SOL    HW248514  10.071   6.209   0.697 -1.3993  1.9728 -0.6934
10302SOL     OW48515  11.068   5.495  11.960  0.2811  0.7026  0.3788
10302SOL    HW148516  11.046   5.568  12.017  2.5584  1.8287 -0.0827
10302SOL    HW248517  11.162   5.482  11.972  0.3382 -0.7121 -1.2058
10303SOL     OW48518  10.829   3.098   4.178  0.3197 -0.0380  0.1609
10303SOL    HW148519  10.913   3.090   4.223  0.8193 -0.2122 -0.7754
10303SOL    HW248520  10.814   3.010   4.141 -0.3512 -0.0514  0.4563
10304SOL     OW48521  11.803   0.991   9.575  0.2733 -0.2265 -0.1497
10304SOL    HW148522  11.804   1.065   9.635 -0.4460  1.2138 -1.8028
10304SOL    HW248523  11.745   0.927   9.616 -1.7672  1.5215 -0.1351
10305SOL     OW48524  10.953   4.845   3.425 -0.3040  0.1556  0.2807
10305SOL    HW148525  10.940   4.940   3.435  0.0695  0.2145  0.2411
10305SOL    HW248526  10.937   4.829   3.332 -0.2650  0.1981  0.2664
10306SOL     OW48527  11.649  10.731   6.610 -0.1022 -0.4100 -0.0407
10306SOL    HW148528  11.560  10.723   6.644 -0.4737 -0.9456 -1.0813
10306SOL    HW248529  11.638  10.734   6.515  0.8609  1.4247 -0.1427
10307SOL     OW48530  12.165   8.895   2.790 -0.1734 -0.2338 -0.1684
10307SOL    HW148531  12.094   8.883   2.727 -0.1216  1.3340 -0.5494
10307SOL    HW248532  12.232   8.832   2.763 -0.6194 -0.3641 -0.9860
10308SOL     OW48533   1.635   0.789   0.132  0.2027  0.1223  0.6968
10308SOL    HW148534   1.597   0.785   0.044  1.8122  2.2542 -0.1705
10308SOL    HW248535   1.559   0.799   0.190 -0.7679  3.1325 -0.8683
10309SOL     OW48536  12.811  13.085  10.297 -0.3457 -0.6337 -0.5326
10309SOL    HW148537  12.800  13.027  10.222 -0.0518 -0.3078 -0.8323
10309SOL    HW248538  12.906  13.097  10.305 -0.4115 -0.0501 -0.5892
10310SOL     OW48539  13.969   1.110   0.359 -0.0839  0.2436 -0.2030
10310SOL    HW148540  13.964   1.049   0.285 -0.5109 -0.2730  0.2430
10310SOL    HW248541  13.902   1.080   0.420 -0.6457  1.4617 -0.1830
10311SOL     OW48542   9.622  11.085   7.051 -0.0827 -0.5920  0.0755
10311SOL    HW148543   9.527  11.098   7.042 -0.1727  0.4926  1.9183
10311SOL    HW248544   9.631  10.994   7.078 -0.5576 -0.8101 -0.4689
10312SOL     OW48545  13.574   6.858   8.710 -0.7077  0.2547 -0.0302
10312SOL    HW148546  13.602   6.915   8.782  1.2125 -1.5183  0.7346
10312SOL    HW248547  13.656   6.824   8.674 -1.7515 -1.0133 -1.2855
10313SOL     OW48548   8.799  12.890   4.425 -0.6484 -0.3629  0.0278
10313SOL    HW148549   8.726  12.829   4.438 -1.4208  0.6408  0.5060
10313SOL    HW248550   8.876  12.840   4.451 -1.2915 -1.0600  0.6524
10314SOL     OW48551   6.286   5.782  13.009 -0.0701 -0.6505  0.0065
10314SOL    HW148552   6.246   5.695  13.003  0.2309 -0.8022  0.1646
10314SOL    HW248553   6.239   5.826  13.079 -1.0239 -0.2520 -0.8579
10315SOL     OW48554   1.785   3.145  10.993  0.4451  0.1159 -0.6334
10315SOL    HW148555   1.862   3.106  11.034 -0.1689  0.3560  0.8129
10315SOL    HW248556   1.749   3.203  11.061 -0.9830  0.0385 -1.2962
10316SOL     OW48557   1.755  10.442   3.641 -0.2714 -0.2950 -0.4162
10316SOL    HW148558   1.771  10.505   3.571 -1.6021  1.8084  1.0581
10316SOL    HW248559   1.801  10.478   3.717 -0.7108 -1.3316  0.3675
10317SOL     OW48560   9.371   6.158   0.950 -0.4613 -0.2978 -0.1647
10317SOL    HW148561   9.343   6.105   0.876  0.9078  0.1065 -1.0095
10317SOL    HW248562   9.368   6.248   0.918  1.3504 -0.2047 -0.1846
10318SOL     OW48563   0.804   1.832   6.585  0.0105  0.6677 -0.1775
10318SOL    HW148564   0.823   1.764   6.650 -0.2139 -0.4365 -1.2330
10318SOL    HW248565   0.878   1.829   6.525 -0.9642 -0.0641 -1.3749
10319SOL     OW48566   5.201   2.201   8.149 -0.0513 -0.1911  0.2288
10319SOL    HW148567   5.158   2.155   8.077 -0.1206 -1.0218  0.7857
10319SOL    HW248568   5.194   2.141   8.223  0.4821  0.4300  0.7945
10320SOL     OW48569  11.915   5.381  11.993  0.2651 -0.4055 -0.0661
10320SOL    HW148570  11.934   5.288  11.979 -0.9295 -0.7095  0.2157
10320SOL    HW248571  11.886   5.412  11.907 -2.6226 -1.1605  0.5217
10321SOL     OW48572   7.783   0.442   5.808  0.0608 -0.4504  0.3497
10321SOL    HW148573   7.783   0.461   5.714 -0.6183 -1.2559  0.1844
10321SOL    HW248574   7.876   0.430   5.830  0.4325  1.7867  0.2254
10322SOL     OW48575  13.318  14.034  13.651 -0.5529  0.0545  0.3953
10322SOL    HW148576  13.373  14.006  13.724  0.5109  2.1162  0.4796
10322SOL    HW248577  13.347  13.980  13.577  2.8663  2.0510  0.0406
10323SOL     OW48578   4.837  12.290  13.196 -0.0557  0.1915 -0.3294
10323SOL    HW148579   4.830  12.219  13.260  1.9371 -2.2755 -2.5925
10323SOL    HW248580   4.917  12.337  13.220 -0.2357  0.3525 -0.0413
10324SOL     OW48581   9.375  13.433  10.364  0.3180  0.5719 -0.2401
10324SOL    HW148582   9.309  13.437  10.295 -0.7288  0.6736  0.7491
10324SOL    HW248583   9.450  13.480  10.327 -0.4415  1.1671 -1.0770
10325SOL     OW48584   5.271  11.185   0.456  0.5067 -0.5956  0.4618
10325SOL    HW148585   5.339  11.189   0.523  1.2419 -0.8904 -0.2520
10325SOL    HW248586   5.257  11.276   0.430 -0.8037 -0.3129  1.9894
10326SOL     OW48587   3.150   7.440   4.745 -0.5948 -0.0876  0.0980
10326SOL    HW148588   3.187   7.370   4.691 -0.8576 -1.2257  1.3463
10326SOL    HW248589   3.171   7.415   4.835 -0.5799  1.5213  0.5755
10327SOL     OW48590  11.086   1.590   3.429  0.3914 -0.1157 -0.4869
10327SOL    HW148591  11.034   1.651   3.481 -0.2429 -0.5654 -0.5794
10327SOL    HW248592  11.109   1.520   3.491  1.1799  0.2418 -0.3609
10328SOL     OW48593  10.653   3.852   1.592 -0.5907 -0.3663  0.3857
10328SOL    HW148594  10.559   3.839   1.606 -0.5716 -1.3583 -0.2559
10328SOL    HW248595  10.693   3.774   1.631 -0.3130 -1.6497 -2.2539
10329SOL     OW48596   1.023   2.293   5.141  0.2486 -0.0967 -0.0095
10329SOL    HW148597   0.951   2.302   5.204  1.1045 -0.3803  1.0311
10329SOL    HW248598   1.084   2.232   5.182  0.9642 -0.0801 -1.0003
10330SOL     OW48599   3.635   5.788   0.063  0.1403 -0.4975 -0.0744
10330SOL    HW148600   3.716   5.819   0.101 -0.5031 -0.9783  1.7648
10330SOL    HW248601   3.575   5.862   0.069 -0.6710 -1.2737  2.1069
10331SOL     OW48602   2.876  12.873   5.059  0.2650 -0.1779 -0.6376
10331SOL    HW148603   2.941  12.937   5.029  0.8005 -0.6262 -0.4533
10331SOL    HW248604   2.855  12.900   5.149 -1.7795  1.5172 -1.5300
10332SOL     OW48605   7.148   9.485   1.329  0.5290  0.3284 -0.4500
10332SOL    HW148606   7.189   9.557   1.377  2.8877 -1.4982  0.4956
10332SOL    HW248607   7.215   9.417   1.327 -2.0458 -2.3916 -0.0852
10333SOL     OW48608   6.792   5.753  13.179 -0.4066  0.2979 -0.0248
10333SOL    HW148609   6.815   5.720  13.266 -0.0158  2.4362  0.7258
10333SOL    HW248610   6.848   5.830  13.166  0.6799 -0.8075 -2.8475
10334SOL     OW48611   6.107  10.131  13.322 -0.6116 -0.6069 -0.4835
10334SOL    HW148612   6.120  10.190  13.248 -1.0389  0.5623  0.3509
10334SOL    HW248613   6.166  10.058  13.305  1.1596  0.8161 -0.7444
10335SOL     OW48614   0.664   0.027   5.016  0.1349 -0.1448 -0.3552
10335SOL    HW148615   0.756   0.022   4.992 -0.1259  0.8500 -1.6789
10335SOL    HW248616   0.664   0.029   5.112  1.5081  0.2664 -0.3450
10336SOL     OW48617  14.075   0.138   3.778 -1.0758 -0.0417 -0.5089
10336SOL    HW148618  14.051   0.226   3.750 -1.5007 -0.1716 -0.5659
10336SOL    HW248619  14.075   0.143   3.874  1.5156  0.7050 -0.4763
10337SOL     OW48620   3.280   9.971   6.359  0.1454 -0.1898 -0.1022
10337SOL    HW148621   3.324  10.039   6.409 -1.1584  0.6952 -0.1105
10337SOL    HW248622   3.320   9.889   6.388  1.7090  0.5574 -0.0601
10338SOL     OW48623  11.700   3.763   3.398  0.1895  0.5043 -0.5898
10338SOL    HW148624  11.769   3.781   3.461  0.2517 -2.0454  0.1932
10338SOL    HW248625  11.622   3.803   3.435  0.1703 -1.1569  1.3300
10339SOL     OW48626   0.524  12.159  11.679  0.0922  1.0196 -0.0940
10339SOL    HW148627   0.606  12.128  11.641 -0.9293 -1.9201 -0.1771
10339SOL    HW248628   0.479  12.203  11.607 -0.1420 -1.0659 -1.3071
10340SOL     OW48629   2.266  13.268   7.620  0.3887  0.6539 -0.3009
10340SOL    HW148630   2.197  13.294   7.681  0.0561 -0.0011 -0.3902
10340SOL    HW248631   2.316  13.348   7.604 -0.5922  1.2257 -0.5518
10341SOL     OW48632   1.120  11.382  11.727 -0.1590 -0.2124  0.0778
10341SOL    HW148633   1.137  11.293  11.697  1.4931 -0.0683  0.4657
10341SOL    HW248634   1.184  11.396  11.797  0.8004  1.8236 -1.1162
10342SOL     OW48635   4.051   4.392   0.919  0.0000 -0.3362 -0.4724
10342SOL    HW148636   4.007   4.471   0.886 -0.0647 -0.4680 -0.7084
10342SOL    HW248637   3.979   4.333   0.941  0.0489 -0.3357 -0.3100
10343SOL     OW48638   4.465   5.297   5.734 -0.1031  0.2037 -0.1712
10343SOL    HW148639   4.380   5.317   5.697  0.1820  1.4557 -0.2129
10343SOL    HW248640   4.472   5.355   5.810  1.5059  1.6178 -1.3201
10344SOL     OW48641   8.636   6.595  10.711 -0.1520  0.0890  0.3111
10344SOL    HW148642   8.679   6.516  10.745 -0.8015  0.4440  2.0388
10344SOL    HW248643   8.697   6.666  10.731  0.6599  0.0323 -1.6787
10345SOL     OW48644   9.307   6.285   4.825 -0.0494 -0.1168 -0.5764
10345SOL    HW148645   9.275   6.248   4.743 -0.4179  0.7668 -0.8504
10345SOL    HW248646   9.377   6.344   4.799  0.0368 -0.0643 -0.2318
10346SOL     OW48647   2.899  12.915   2.043 -0.7495  0.5236 -0.2039
10346SOL    HW148648   2.850  12.996   2.028 -0.6482  1.0727  2.0976
10346SOL    HW248649   2.860  12.877   2.122 -0.7956 -1.7147 -1.2394
10347SOL     OW48650   3.610  12.224   0.929 -0.0385  1.2905 -0.2106
10347SOL    HW148651   3.615  12.129   0.921  0.7948  1.4390 -1.9143
10347SOL    HW248652   3.533  12.239   0.985  0.3192 -0.3772  0.7959
10348SOL     OW48653   9.403   7.486   3.033  0.2196  0.2511  0.0147
10348SOL    HW148654   9.384   7.457   2.944  3.3344  0.4414 -0.8066
10348SOL    HW248655   9.427   7.578   3.024  2.5268 -0.2167  0.6538
10349SOL     OW48656  13.527   7.711   1.176  0.2130 -0.8082 -0.7950
10349SOL    HW148657  13.481   7.725   1.093 -1.5769 -1.8771 -0.0646
10349SOL    HW248658  13.595   7.647   1.156  0.7587  0.0279 -1.6995
10350SOL     OW48659   0.596   1.682  13.512  0.4066  0.1193 -0.2657
10350SOL    HW148660   0.512   1.724  13.494  0.6203  0.4231 -0.5513
10350SOL    HW248661   0.650   1.700  13.435  1.0195  0.6548  0.2730
10351SOL     OW48662  12.712  10.319   2.583 -0.6800  0.1499  0.2843
10351SOL    HW148663  12.718  10.403   2.628 -0.4819  0.7866 -0.8812
10351SOL    HW248664  12.640  10.273   2.626  0.2927  0.2059  2.0611
10352SOL     OW48665  10.393  12.581  10.879 -0.5845 -0.3648 -0.0672
10352SOL    HW148666  10.381  12.492  10.912  0.0011 -0.3768  0.1204
10352SOL    HW248667  10.460  12.573  10.811 -0.5033 -0.0640 -0.0241
10353SOL     OW48668  12.196   4.532   5.705  0.4091  0.4134 -0.0392
10353SOL    HW148669  12.194   4.581   5.623 -0.5831 -2.1305 -1.6656
10353SOL    HW248670  12.287   4.506   5.716  0.1750 -1.4682 -1.8807
10354SOL     OW48671  11.059   9.321   5.633 -0.0487  0.0949 -0.1078
10354SOL    HW148672  10.986   9.362   5.678 -1.1720 -2.2649  0.3905
10354SOL    HW248673  11.134   9.334   5.692 -1.0666 -1.2335  1.5787
10355SOL     OW48674   3.721   8.687  11.733  0.1630 -0.2354  0.3515
10355SOL    HW148675   3.758   8.664  11.648  2.1577  0.2149  1.0430
10355SOL    HW248676   3.734   8.782  11.740  1.4735 -0.4886  1.7856
10356SOL     OW48677   2.329  10.325   1.465 -0.4998  0.0492  0.0158
10356SOL    HW148678   2.411  10.343   1.512  0.4510 -1.3372 -1.0272
10356SOL    HW248679   2.261  10.361   1.522  0.7511  0.2621  1.4599
10357SOL     OW48680   1.836   8.439   8.509  0.4398  0.6353  0.2789
10357SOL    HW148681   1.788   8.467   8.431  2.2022  0.8101 -0.7862
10357SOL    HW248682   1.928   8.455   8.489  1.0402 -0.3189  1.9888
10358SOL     OW48683   2.397   1.440   4.955 -0.4217 -0.1892 -0.2480
10358SOL    HW148684   2.460   1.502   4.990  0.3217 -1.1481  0.1265
10358SOL    HW248685   2.330   1.495   4.913 -0.1148  0.8762  0.6329
10359SOL     OW48686   6.139   1.667   5.561 -0.0932 -0.6819 -0.2293
10359SOL    HW148687   6.147   1.755   5.525  2.1927 -1.8331 -2.9397
10359SOL    HW248688   6.052   1.664   5.599 -1.4317  1.8037 -2.7700
10360SOL     OW48689   6.710  10.687   5.106  0.0304  0.0651 -0.4945
10360SOL    HW148690   6.696  10.596   5.133 -0.2787 -0.0533 -1.0421
10360SOL    HW248691   6.805  10.693   5.094  0.2090  0.1894  0.8268
10361SOL     OW48692   2.456   3.212   1.204  0.1736  0.0275  0.4153
10361SOL    HW148693   2.472   3.285   1.263  0.7989  0.2391 -0.0079
10361SOL    HW248694   2.373   3.175   1.233 -0.9169  1.8225 -0.3143
10362SOL     OW48695  11.395  10.062   2.844  0.9114 -0.2256 -0.4390
10362SOL    HW148696  11.337  10.108   2.905 -1.3906 -1.8907 -1.2251
10362SOL    HW248697  11.471  10.120   2.836 -1.2935  2.9192 -0.5714
10363SOL     OW48698   1.444   7.409   1.983 -0.1398  0.5988  0.2568
10363SOL    HW148699   1.526   7.435   1.941  0.4597 -1.1944  0.2392
10363SOL    HW248700   1.455   7.316   2.001 -2.3571  0.2024 -0.1857
10364SOL     OW48701   5.043   4.675   0.169  0.3137 -0.1461  0.0633
10364SOL    HW148702   5.035   4.661   0.264 -1.1657  0.0449 -0.0066
10364SOL    HW248703   5.031   4.588   0.132 -1.6322  0.1002 -0.0267
10365SOL     OW48704  11.637   6.057   9.110 -0.0817 -0.3352 -0.4409
10365SOL    HW148705  11.633   6.148   9.140  1.8050 -0.0372 -0.9747
10365SOL    HW248706  11.662   6.007   9.187  1.5645 -0.0050 -0.7290
10366SOL     OW48707  12.740  10.643   0.405 -0.2947 -0.8669 -0.1254
10366SOL    HW148708  12.727  10.589   0.327  1.0215  0.1611 -1.1064
10366SOL    HW248709  12.829  10.621   0.434  0.5371  1.1911 -0.9446
10367SOL     OW48710   0.321   4.386   3.862 -0.5254 -0.0347  0.2971
10367SOL    HW148711   0.283   4.387   3.775 -1.7376  0.6605  0.8085
10367SOL    HW248712   0.385   4.314   3.860 -2.4661 -1.8278 -0.3451
10368SOL     OW48713   7.977   7.273   8.561 -0.4053 -0.1212 -0.6578
10368SOL    HW148714   8.050   7.291   8.502  0.6272 -0.4409  0.4825
10368SOL    HW248715   7.965   7.178   8.555  0.0782 -0.2348  0.0482
10369SOL     OW48716  12.060   2.319  11.727 -0.2608 -0.1332 -0.0720
10369SOL    HW148717  12.040   2.288  11.816  0.1765  1.0645  0.4623
10369SOL    HW248718  12.145   2.279  11.708 -0.8999 -1.3600 -0.4461
10370SOL     OW48719   6.327  11.476   8.735 -1.0639  0.3006 -0.0737
10370SOL    HW148720   6.341  11.459   8.828  1.3060  0.4412 -0.3329
10370SOL    HW248721   6.396  11.539   8.712 -0.5842 -0.9278 -2.2303
10371SOL     OW48722  10.650   6.777   4.928 -0.2932  0.4716 -0.2109
10371SOL    HW148723  10.567   6.748   4.966 -0.0450 -0.1473 -0.1141
10371SOL    HW248724  10.671   6.858   4.974 -0.3442  0.0937  0.4921
10372SOL     OW48725   7.758   3.091  11.910 -0.5532 -0.7103 -0.0394
10372SOL    HW148726   7.673   3.055  11.884 -0.8231 -1.3454  1.6075
10372SOL    HW248727   7.775   3.052  11.996 -0.2411  2.0571  1.2555
10373SOL     OW48728   0.225  13.878   6.106  0.6093 -0.0826 -0.2150
10373SOL    HW148729   0.136  13.846   6.095  0.5390  0.2510 -0.6591
10373SOL    HW248730   0.280  13.815   6.060  0.6623 -0.5935  0.5380
10374SOL     OW48731   5.039   7.517   3.379 -0.3951 -0.6233 -0.2981
10374SOL    HW148732   5.093   7.440   3.395 -0.4606 -0.4925  0.6517
10374SOL    HW248733   5.084   7.588   3.425 -0.7011 -0.2457 -0.5755
10375SOL     OW48734  10.046   3.885  11.846  0.2507  0.6996 -0.9391
10375SOL    HW148735   9.975   3.824  11.827  0.7004 -0.3843  0.6155
10375SOL    HW248736  10.002   3.969  11.860 -0.6013  0.3129 -1.2259
10376SOL     OW48737  12.149   8.776   1.105 -0.1222  0.2921  0.0429
10376SOL    HW148738  12.213   8.715   1.141 -0.5592 -0.5984 -0.6343
10376SOL    HW248739  12.065   8.745   1.137 -0.3983  0.2375 -0.7006
10377SOL     OW48740   0.014   8.795   6.782  0.8186  0.3217 -0.4413
10377SOL    HW148741   0.058   8.711   6.793  2.0246  0.9661 -0.2672
10377SOL    HW248742  -0.046   8.780   6.708  1.2219 -0.6007 -0.6018
10378SOL     OW48743   1.928  13.009  13.389 -0.1235  0.2799 -0.5784
10378SOL    HW148744   1.850  13.057  13.361 -0.4261  0.6950  0.8692
10378SOL    HW248745   1.998  13.043  13.334 -0.6312  1.2582 -0.6485
10379SOL     OW48746   3.381  10.525   7.514  0.1837 -0.3244  0.0910
10379SOL    HW148747   3.350  10.612   7.491 -1.3450 -0.7630  0.3409
10379SOL    HW248748   3.437  10.538   7.590 -1.8520  0.2619  1.5894
10380SOL     OW48749   0.115   4.965   6.264 -0.0954 -0.2983 -0.1865
10380SOL    HW148750   0.165   4.884   6.272 -1.1575 -0.8960  0.6817
10380SOL    HW248751   0.028   4.937   6.236 -0.0579  0.6943 -1.3757
10381SOL     OW48752   5.378   1.435   8.157  0.9611 -0.0961  0.0709
10381SOL    HW148753   5.394   1.525   8.129  1.7399 -0.2473  0.0227
10381SOL    HW248754   5.403   1.381   8.082  1.2030 -0.3945  0.3653
10382SOL     OW48755  12.851  10.417   6.457 -0.4347 -0.5140 -0.2194
10382SOL    HW148756  12.864  10.358   6.532  0.4869  0.6697  0.5962
10382SOL    HW248757  12.785  10.374   6.404 -0.9086 -1.5338  1.1352
10383SOL     OW48758   2.231   8.497   6.775 -0.0867  0.5296 -0.1879
10383SOL    HW148759   2.262   8.586   6.791  1.4763  0.2446 -1.4470
10383SOL    HW248760   2.224   8.459   6.863  0.3011  1.5452  0.3067
10384SOL     OW48761   5.153   2.255  13.533 -0.3146 -0.3730 -0.8963
10384SOL    HW148762   5.203   2.227  13.456 -0.3670 -0.7577 -0.7929
10384SOL    HW248763   5.086   2.314  13.498  1.1659  1.4012 -0.8635
10385SOL     OW48764   9.386   7.727   8.895  0.0638  0.3383 -0.5173
10385SOL    HW148765   9.329   7.684   8.960 -1.2055  0.6308 -1.3969
10385SOL    HW248766   9.348   7.704   8.811  1.6436  0.0510 -1.1788
10386SOL     OW48767  12.099   4.970   4.205 -0.8316 -0.4177  0.4096
10386SOL    HW148768  12.099   5.030   4.130  0.4047  1.2025  1.6258
10386SOL    HW248769  12.014   4.982   4.246 -1.4393 -1.1644 -0.6048
10387SOL     OW48770   2.066   3.187   4.942  0.3482 -0.0443 -0.2996
10387SOL    HW148771   1.981   3.158   4.974  1.1448  0.3529  2.4588
10387SOL    HW248772   2.129   3.128   4.983  1.5287  1.1511 -0.3014
10388SOL     OW48773  10.543   7.965   5.814 -0.5738 -0.2003 -0.3824
10388SOL    HW148774  10.614   7.947   5.752 -0.7202 -1.6589 -0.1515
10388SOL    HW248775  10.481   7.893   5.802 -1.7295  0.7093 -0.1253
10389SOL     OW48776   9.408   8.207   6.752  0.2567  0.7543 -0.5864
10389SOL    HW148777   9.490   8.200   6.801 -0.9324 -0.3520  1.3965
10389SOL    HW248778   9.397   8.120   6.712 -0.8518  0.2526  0.7557
10390SOL     OW48779   2.744  11.412  13.574 -0.6254 -0.0986  0.2937
10390SOL    HW148780   2.794  11.370  13.504  0.3198  0.0199  0.8863
10390SOL    HW248781   2.664  11.442  13.531 -0.7468 -1.3467 -0.4252
10391SOL     OW48782   8.387   7.287  11.929 -0.5059  0.1116  0.3717
10391SOL    HW148783   8.433   7.238  11.997 -0.2662  1.7767  1.4654
10391SOL    HW248784   8.347   7.361  11.975 -1.5911  0.4776 -1.0770
10392SOL     OW48785   8.623  12.202   0.189  0.1177  0.4738 -0.4583
10392SOL    HW148786   8.718  12.217   0.182  0.2811 -0.9145 -1.7407
10392SOL    HW248787   8.586  12.288   0.206  1.6420  0.9932  0.4002
10393SOL     OW48788   3.153   4.263   9.293 -0.1112 -0.1637 -0.0075
10393SOL    HW148789   3.228   4.220   9.336 -0.6530 -1.8274 -0.6430
10393SOL    HW248790   3.161   4.355   9.318  2.1219 -0.2860 -0.0015
10394SOL     OW48791   6.681   1.828   7.624 -0.0834 -0.1087  0.2015
10394SOL    HW148792   6.709   1.866   7.707 -1.3476  2.5585 -0.4632
10394SOL    HW248793   6.700   1.896   7.559  0.1815 -1.8173 -1.6106
10395SOL     OW48794   2.704   3.587  12.696 -0.3370  0.5767 -0.3272
10395SOL    HW148795   2.712   3.494  12.719 -1.0432  0.5360 -0.2218
10395SOL    HW248796   2.758   3.632  12.761  1.1104  0.1499 -1.1942
10396SOL     OW48797   1.682   8.552   0.158 -0.3505 -0.6341  0.8859
10396SOL    HW148798   1.604   8.556   0.104  0.3981  1.5249 -0.1163
10396SOL    HW248799   1.654   8.503   0.236 -2.8010  0.4142  0.7545
10397SOL     OW48800  12.848   3.017   3.364 -0.8283  0.4052 -0.4574
10397SOL    HW148801  12.857   2.952   3.293 -0.1248  0.8183 -0.7602
10397SOL    HW248802  12.938   3.040   3.386 -1.0708  1.5253 -0.5741
10398SOL     OW48803  13.904   6.597   7.640 -0.3421  0.3526 -0.6566
10398SOL    HW148804  13.980   6.655   7.647  0.4246 -0.7867  1.5662
10398SOL    HW248805  13.832   6.649   7.675 -0.0456  0.5978 -0.3990
10399SOL     OW48806   2.278   2.398   4.182  0.1835  0.1770 -0.0626
10399SOL    HW148807   2.251   2.489   4.191  0.0860  0.3609 -1.8490
10399SOL    HW248808   2.373   2.402   4.166  0.5874 -0.2037  1.9251
10400SOL     OW48809  12.425   0.757   7.794  0.4524 -0.2500  0.0377
10400SOL    HW148810  12.441   0.827   7.731 -1.3976  1.3308  1.2011
10400SOL    HW248811  12.455   0.792   7.877 -1.6976 -0.2279  0.8707
10401SOL     OW48812  13.098   5.632   1.468  0.3960 -0.1231 -0.8660
10401SOL    HW148813  13.116   5.726   1.462 -0.3684  0.1846  1.0024
10401SOL    HW248814  13.171   5.597   1.521 -0.2813 -0.2331  0.0170
10402SOL     OW48815   4.187   5.786  11.377 -0.0869  0.3372 -0.1960
10402SOL    HW148816   4.125   5.776  11.305  0.6891  1.0603 -1.0021
10402SOL    HW248817   4.156   5.863  11.425 -1.7126 -1.2430  1.4581
10403SOL     OW48818   4.065  13.483  11.820 -0.3135 -0.3930 -0.3001
10403SOL    HW148819   4.037  13.520  11.736  0.0592  0.3073 -0.1298
10403SOL    HW248820   4.161  13.478  11.812 -0.1320  1.0517  0.6061
10404SOL     OW48821   8.853  10.716   1.511  0.9696  0.0688 -0.3668
10404SOL    HW148822   8.942  10.686   1.530  0.7986  0.4638  1.1645
10404SOL    HW248823   8.812  10.643   1.466  0.9575 -1.5993  2.1424
10405SOL     OW48824   7.642  12.388  11.486 -0.3883 -0.2144  0.2744
10405SOL    HW148825   7.734  12.395  11.462 -0.3697 -0.3006  0.3193
10405SOL    HW248826   7.636  12.430  11.572 -0.4834  0.2303  0.0549
10406SOL     OW48827  13.164   4.947   2.242 -0.0514 -0.3046 -0.4814
10406SOL    HW148828  13.142   4.960   2.334 -0.3145  1.3625 -0.7475
10406SOL    HW248829  13.185   4.854   2.235  0.4712 -0.3628  1.3636
10407SOL     OW48830   2.751   0.481   4.307  0.4353  0.0500 -0.8605
10407SOL    HW148831   2.670   0.476   4.356  1.1354 -0.9738  0.2357
10407SOL    HW248832   2.787   0.392   4.309  1.7477  0.5428 -1.0243
10408SOL     OW48833  13.024   1.419   0.306  0.5250  0.4355  0.6021
10408SOL    HW148834  13.077   1.495   0.332 -2.1290  2.8716 -0.5504
10408SOL    HW248835  13.042   1.408   0.213 -0.4886  0.9001  0.3405
10409SOL     OW48836  13.515  10.488   9.018 -0.0599  0.6189 -0.7829
10409SOL    HW148837  13.522  10.542   9.097  0.4226  0.3237 -0.6159
10409SOL    HW248838  13.432  10.513   8.979 -0.5973  0.3406  0.1528
10410SOL     OW48839   0.577  10.631   5.470 -0.4897 -0.7551 -0.7519
10410SOL    HW148840   0.549  10.713   5.429 -0.5534 -1.1314 -1.4740
10410SOL    HW248841   0.661  10.611   5.429 -0.4519 -1.0331 -0.5449
10411SOL     OW48842   0.903  11.950   2.314 -0.2764 -0.0206  0.3033
10411SOL    HW148843   0.947  12.033   2.297 -1.1118  0.1735 -1.0363
10411SOL    HW248844   0.957  11.884   2.269 -0.7066  0.0737 -0.3699
10412SOL     OW48845   4.680   3.615   3.484 -0.4165 -0.4880  0.1826
10412SOL    HW148846   4.592   3.648   3.463  0.5190  0.5059 -2.6517
10412SOL    HW248847   4.665   3.530   3.523 -2.6744 -0.0018  0.5080
10413SOL     OW48848   0.506   8.724  11.883  0.0968 -0.2389 -0.0197
10413SOL    HW148849   0.489   8.630  11.880 -3.9645  0.3118 -2.3136
10413SOL    HW248850   0.482   8.751  11.971  1.7617 -1.3026  0.8132
10414SOL     OW48851   4.082   8.003  12.204  0.2057 -0.1260  0.1644
10414SOL    HW148852   4.051   8.013  12.294 -1.0298  0.2586 -0.2790
10414SOL    HW248853   4.011   8.040  12.151  0.9152 -0.3604 -0.9636
10415SOL     OW48854   2.013   9.893   9.003  0.5141 -0.1239 -0.1398
10415SOL    HW148855   2.079   9.895   9.072 -1.2199 -1.2655  1.6918
10415SOL    HW248856   1.983   9.802   9.002 -1.0946  0.3786 -0.8002
10416SOL     OW48857   1.526   0.535   6.523 -0.5717 -0.7325  0.4475
10416SOL    HW148858   1.525   0.623   6.562 -0.5313 -1.0220  1.1212
10416SOL    HW248859   1.435   0.518   6.500 -0.7125 -0.8205  1.0404
10417SOL     OW48860   5.232  10.549   8.236 -0.2762  0.7691  0.0628
10417SOL    HW148861   5.157  10.537   8.294 -0.2492 -1.4928 -0.2949
10417SOL    HW248862   5.205  10.512   8.152  0.9333  0.6926 -0.3153
10418SOL     OW48863   9.252   7.576   0.855 -0.2771 -0.1749 -0.4048
10418SOL    HW148864   9.323   7.512   0.855  0.4484  0.5866 -2.0100
10418SOL    HW248865   9.174   7.525   0.878  0.4383 -1.4354 -0.6764
10419SOL     OW48866   9.138   8.826   0.676 -0.6051  0.3799  0.1238
10419SOL    HW148867   9.140   8.921   0.687  1.9450  0.3739  0.2893
10419SOL    HW248868   9.058   8.798   0.720 -1.3085  2.4289  0.2261
10420SOL     OW48869   1.498   8.866   3.793 -0.1013  0.0181 -0.0211
10420SOL    HW148870   1.558   8.934   3.825  0.6183 -0.0447 -1.2055
10420SOL    HW248871   1.411   8.907   3.798  0.0159  0.1355  1.6395
10421SOL     OW48872   8.489   1.588   7.494 -0.3972  0.2259 -0.7377
10421SOL    HW148873   8.553   1.540   7.442  1.4647 -0.6822  2.1256
10421SOL    HW248874   8.535   1.667   7.524 -1.0954  0.3196  0.1568
10422SOL     OW48875   6.533  11.260   4.533 -0.1174 -0.0887 -0.8251
10422SOL    HW148876   6.507  11.211   4.456  0.0956  0.2979 -1.1474
10422SOL    HW248877   6.485  11.343   4.527 -0.5545 -0.2961 -0.2327
10423SOL     OW48878   4.602   2.484  10.325  0.0701  0.0228 -0.0105
10423SOL    HW148879   4.560   2.401  10.345  1.4123 -0.6717  0.0483
10423SOL    HW248880   4.535   2.550  10.344 -0.3124 -0.8988  2.1641
10424SOL     OW48881  12.946   2.467   1.459  0.0955  0.1950 -0.1914
10424SOL    HW148882  12.857   2.497   1.474  0.8144  2.7385 -0.5623
10424SOL    HW248883  12.986   2.535   1.406  1.5510 -2.1349 -2.2769
10425SOL     OW48884  11.943   6.391   7.469 -0.0132  0.6895 -0.4128
10425SOL    HW148885  12.020   6.448   7.480  1.2395 -1.0716  0.5988
10425SOL    HW248886  11.979   6.308   7.438 -1.4486 -0.3356  0.5374
10426SOL     OW48887   4.178  12.850   9.934 -0.2806 -0.2940  0.4700
10426SOL    HW148888   4.211  12.903   9.862  0.0126  1.4628  1.8080
10426SOL    HW248889   4.097  12.811   9.901 -0.0532  0.3212 -0.8535
10427SOL     OW48890   2.882   6.337   0.991  0.4640  0.1948  0.7195
10427SOL    HW148891   2.960   6.288   1.017 -0.8904 -1.2545  2.3112
10427SOL    HW248892   2.838   6.359   1.073 -1.4229 -0.0935 -0.1389
10428SOL     OW48893   8.631   7.797  11.849  0.4154  0.5895 -0.6265
10428SOL    HW148894   8.663   7.783  11.938  0.6635  1.8329 -0.5051
10428SOL    HW248895   8.663   7.884  11.825 -1.4186  1.1704 -1.1533
10429SOL     OW48896   5.744   0.555  10.059  0.1717  0.0887 -0.2427
10429SOL    HW148897   5.796   0.635  10.048 -0.7579  1.1102  2.1117
10429SOL    HW248898   5.664   0.571  10.010 -1.4973  2.1800  2.8291
10430SOL     OW48899   7.651   1.495   2.280 -0.2282  0.1791 -0.2870
10430SOL    HW148900   7.677   1.537   2.197  0.1547  0.8507  0.1587
10430SOL    HW248901   7.710   1.533   2.345 -0.0219 -0.8940  0.1816
10431SOL     OW48902   6.177  12.146   2.151 -0.2668 -0.1454 -0.3166
10431SOL    HW148903   6.086  12.163   2.128 -0.4443 -0.6289  0.0073
10431SOL    HW248904   6.189  12.189   2.236  0.3061  1.3930 -1.1374
10432SOL     OW48905  10.452  10.795   7.749  0.2082 -0.1898 -0.1250
10432SOL    HW148906  10.377  10.796   7.690  0.4750 -1.4204 -0.5323
10432SOL    HW248907  10.520  10.749   7.700  0.3239 -1.6023  1.2649
10433SOL     OW48908   0.415  13.520  12.996 -0.1058  0.3344 -0.0327
10433SOL    HW148909   0.400  13.509  12.902 -0.0822  1.2872 -0.1592
10433SOL    HW248910   0.353  13.587  13.023  0.0466  0.2345  0.5925
10434SOL     OW48911  13.474  12.025  13.490 -0.0898  0.1109  0.4667
10434SOL    HW148912  13.427  12.104  13.463  0.1948  0.9761  2.3833
10434SOL    HW248913  13.562  12.038  13.455 -0.0709  0.5932  0.6861
10435SOL     OW48914   6.838   2.683   5.795  0.2426  0.4405  0.5227
10435SOL    HW148915   6.878   2.763   5.761  0.1738 -0.3872 -1.7160
10435SOL    HW248916   6.904   2.645   5.853  1.2646  0.9004 -0.3164
10436SOL     OW48917  13.551   5.769   4.698 -0.3268 -0.1292 -0.3778
10436SOL    HW148918  13.468   5.737   4.734 -2.0231  1.0309 -2.9282
10436SOL    HW248919  13.580   5.698   4.640  0.5561 -0.5559  0.5489
10437SOL     OW48920   9.014   0.308  13.248 -0.4235  0.5398  0.9501
10437SOL    HW148921   9.095   0.288  13.296  1.0227  2.1851 -0.6484
10437SOL    HW248922   9.018   0.403  13.234 -2.0276  0.4626 -0.2369
10438SOL     OW48923  10.165   4.171   9.003 -0.6984 -0.6206 -0.1629
10438SOL    HW148924  10.189   4.151   8.913 -0.4339  0.5099 -0.3515
10438SOL    HW248925  10.248   4.164   9.051 -0.3806  0.9582 -0.4112
10439SOL     OW48926  13.411   1.485  12.623 -0.5842  0.5679  0.1128
10439SOL    HW148927  13.392   1.410  12.566  0.9690 -0.2549  0.6246
10439SOL    HW248928  13.459   1.546  12.566  0.9271 -0.2346  0.4703
10440SOL     OW48929   1.307   1.136   1.900  0.2822  0.1938 -0.0708
10440SOL    HW148930   1.257   1.055   1.909  0.2220 -0.1453 -2.6823
10440SOL    HW248931   1.241   1.205   1.908  0.0002 -0.0901  0.0983
10441SOL     OW48932  12.261   3.991   2.514 -0.2756  0.5409 -0.5097
10441SOL    HW148933  12.332   3.993   2.449  0.1351 -0.6419 -0.1265
10441SOL    HW248934  12.306   3.976   2.597 -0.8955  0.8706 -0.1092
10442SOL     OW48935   1.988  12.337   0.480 -0.3256 -0.1913  0.0973
10442SOL    HW148936   1.991  12.347   0.575  1.9070  1.1945 -0.0208
10442SOL    HW248937   2.080  12.333   0.454 -0.7935  1.6291 -2.1679
10443SOL     OW48938   4.943   1.183   9.635 -0.3882 -0.4680  0.0606
10443SOL    HW148939   4.855   1.178   9.599  0.0740 -0.9709 -1.0510
10443SOL    HW248940   4.978   1.266   9.603 -0.7511  0.1524  1.2288
10444SOL     OW48941   1.365   8.507  12.852 -0.2646 -0.0987 -0.1604
10444SOL    HW148942   1.335   8.424  12.815  2.3428 -1.1750 -0.0779
10444SOL    HW248943   1.310   8.573  12.811 -1.3236 -1.7355 -1.4883
10445SOL     OW48944   3.577   0.697  11.024  0.3220 -0.4435  0.1430
10445SOL    HW148945   3.602   0.605  11.027 -1.6478 -1.0320  0.1005
10445SOL    HW248946   3.616   0.730  10.944  2.5831 -0.7235  1.0732
10446SOL     OW48947   8.064   3.522  13.089 -0.1727 -0.2296 -0.3006
10446SOL    HW148948   8.095   3.458  13.154 -1.5199  0.1698  0.7857
10446SOL    HW248949   7.972   3.500  13.074 -0.6487  1.3620  0.0327
10447SOL     OW48950   6.547   0.562   2.357  0.6929  0.1644  0.0394
10447SOL    HW148951   6.606   0.558   2.433 -0.4893 -1.8455  0.9505
10447SOL    HW248952   6.563   0.648   2.318  1.8697  0.9665  2.1333
10448SOL     OW48953   8.672   3.309   9.093 -0.0601 -0.6716 -0.2001
10448SOL    HW148954   8.743   3.279   9.149  0.3102  1.3930  0.5086
10448SOL    HW248955   8.639   3.387   9.136 -0.8376  0.0600 -2.0427
10449SOL     OW48956  11.699   4.814   2.641  0.0572  0.2251  0.7798
10449SOL    HW148957  11.698   4.765   2.558  0.1671 -0.5386  1.2238
10449SOL    HW248958  11.683   4.905   2.615 -0.4440 -0.0809 -0.0354
10450SOL     OW48959   8.948  12.775   2.526  0.3665 -0.3509 -0.7712
10450SOL    HW148960   9.010  12.805   2.592  1.0821 -0.2789 -1.4611
10450SOL    HW248961   8.982  12.691   2.497  0.0290 -0.4111 -1.0058
10451SOL     OW48962   2.798   0.676  10.371  0.1970 -0.1022 -0.4387
10451SOL    HW148963   2.794   0.656  10.465  1.5206 -0.0200 -0.3490
10451SOL    HW248964   2.797   0.590  10.329 -1.2454 -0.1190 -0.4043
10452SOL     OW48965   3.071  11.828   7.375 -0.2661 -0.1636  0.6539
10452SOL    HW148966   2.982  11.862   7.373 -0.6593 -1.1697  0.0767
10452SOL    HW248967   3.077  11.780   7.458  0.7052  2.2780  2.1002
10453SOL     OW48968  11.396   4.569  10.120 -0.1729 -0.2913 -0.1686
10453SOL    HW148969  11.369   4.573  10.212 -1.0676 -3.1431 -0.2223
10453SOL    HW248970  11.481   4.614  10.118  0.1022 -0.5923  2.1647
10454SOL     OW48971   9.091   4.099  12.577 -0.0353 -0.4291 -0.3400
10454SOL    HW148972   9.037   4.058  12.509 -0.5167  1.4987 -1.1908
10454SOL    HW248973   9.180   4.068  12.559 -0.1755 -0.0804 -1.7703
10455SOL     OW48974   0.993  10.393   3.022 -0.3124 -0.0924  0.4608
10455SOL    HW148975   1.032  10.461   2.967  0.9319 -0.3443  0.9926
10455SOL    HW248976   1.064  10.365   3.079 -0.2470 -3.1340 -0.9389
10456SOL     OW48977   2.925   0.264   4.223  0.1789 -0.2221 -0.4603
10456SOL    HW148978   3.013   0.229   4.212  0.6838  0.0565  2.0803
10456SOL    HW248979   2.875   0.192   4.262  0.2124  0.6276  1.2289
10457SOL     OW48980   4.453   3.623  10.573 -0.5523  0.0520 -0.4348
10457SOL    HW148981   4.539   3.581  10.570 -0.2583  0.5083  0.8756
10457SOL    HW248982   4.426   3.618  10.665  0.0775  3.7894  0.1284
10458SOL     OW48983  13.541   5.909  13.294 -0.2934 -0.3441  0.2592
10458SOL    HW148984  13.602   5.953  13.353 -0.9961  0.8077  0.1640
10458SOL    HW248985  13.516   5.829  13.339 -0.1425  0.0927  1.1322
10459SOL     OW48986   9.379  12.692   9.352 -0.2121 -0.2935 -0.0120
10459SOL    HW148987   9.399  12.783   9.374  0.5738 -0.2118 -1.0327
10459SOL    HW248988   9.296  12.698   9.304  0.3970  0.0140 -1.0482
10460SOL     OW48989  13.356   3.288  12.514 -0.2353  0.2038 -0.4470
10460SOL    HW148990  13.335   3.330  12.597  1.0587 -1.6476  0.9058
10460SOL    HW248991  13.275   3.242  12.490  0.5488 -3.0094  2.2725
10461SOL     OW48992  12.668   7.964   9.734 -0.1482 -0.4624 -0.1524
10461SOL    HW148993  12.659   7.880   9.778  1.6965 -0.4931  0.2275
10461SOL    HW248994  12.723   7.946   9.658  0.1770  0.3748 -0.1258
10462SOL     OW48995   5.500   3.447   7.081  0.2555  0.5984  0.3622
10462SOL    HW148996   5.463   3.430   6.995 -1.4272  1.1183  0.9390
10462SOL    HW248997   5.454   3.386   7.139  3.0336 -1.4441  0.6113
10463SOL     OW48998  10.995   3.224   1.700  0.4487  0.1684 -0.1289
10463SOL    HW148999  10.919   3.167   1.706 -0.6457  1.5172 -0.5655
10463SOL    HW249000  11.060   3.184   1.758 -0.5851 -1.0137  0.2523
10464SOL     OW49001   4.785  10.265  11.568 -0.2198 -0.0011 -0.0513
10464SOL    HW149002   4.715  10.253  11.633  0.1270  1.8818  0.7417
10464SOL    HW249003   4.813  10.356  11.580  1.8873 -0.4956 -0.8339
10465SOL     OW49004   0.638  11.977   3.340  0.2603  0.1492  0.2768
10465SOL    HW149005   0.642  11.900   3.284  2.0800 -0.1232  0.6912
10465SOL    HW249006   0.572  11.956   3.406  1.9353 -1.8729  1.4454
10466SOL     OW49007   4.352   2.744   2.861 -0.2435 -0.6389 -0.4863
10466SOL    HW149008   4.291   2.716   2.793  1.0960  0.4704 -2.2473
10466SOL    HW249009   4.345   2.678   2.929 -2.5602 -1.1330 -1.1207
10467SOL     OW49010   6.107   4.224   2.474  0.4386  0.5610 -0.1062
10467SOL    HW149011   6.144   4.313   2.474 -0.4615  0.9493 -0.1693
10467SOL    HW249012   6.057   4.220   2.393 -2.0847  1.1186  1.3356
10468SOL     OW49013   2.670  11.786  11.076 -0.2313  0.0949  0.0468
10468SOL    HW149014   2.646  11.804  11.167  1.7939 -1.5804  0.9990
10468SOL    HW249015   2.735  11.716  11.081  0.6036  0.5332 -2.6534
10469SOL     OW49016  10.347   7.134  13.825 -0.0555  0.0025  0.4788
10469SOL    HW149017  10.359   7.221  13.862 -1.9630  0.7459 -0.5049
10469SOL    HW249018  10.434   7.107  13.796  0.2169  2.8567 -1.8618
10470SOL     OW49019  12.802   0.793   6.523 -0.7737 -0.0364 -0.3494
10470SOL    HW149020  12.770   0.703   6.530  0.1258 -0.3055  0.5644
10470SOL    HW249021  12.747   0.843   6.583 -1.1508 -0.0011 -0.7186
10471SOL     OW49022   6.524   4.205   3.030  0.3559 -0.1731 -0.1002
10471SOL    HW149023   6.466   4.251   2.969  1.0451 -0.6870 -1.1768
10471SOL    HW249024   6.611   4.243   3.015  0.3928  0.3129  1.2136
10472SOL     OW49025  11.007   1.793   8.865  0.2759 -0.2493 -0.0528
10472SOL    HW149026  11.059   1.797   8.785  0.2798 -0.0662 -0.0423
10472SOL    HW249027  11.054   1.850   8.927  0.4698 -0.6753  0.1944
10473SOL     OW49028  13.992  13.309   5.352 -0.5255  0.5787 -0.0013
10473SOL    HW149029  14.036  13.393   5.338  1.2285  0.1263  2.2222
10473SOL    HW249030  14.037  13.248   5.295  1.5235  0.2299  1.8787
10474SOL     OW49031   3.310  13.445   7.072  0.6186  0.0404  0.3609
10474SOL    HW149032   3.298  13.363   7.120 -2.1287  0.5642  0.7478
10474SOL    HW249033   3.274  13.428   6.985 -1.0145  1.0683  0.7839
10475SOL     OW49034  10.889   5.981  12.780 -0.0064  0.4134 -0.1376
10475SOL    HW149035  10.843   6.021  12.707 -0.4554  3.1312  1.4863
10475SOL    HW249036  10.820   5.959  12.842  0.3087 -2.3544 -0.6403
10476SOL     OW49037   8.885   8.827   8.844 -0.4117 -0.2665 -0.1615
10476SOL    HW149038   8.794   8.797   8.846 -0.2740 -0.6684  0.4026
10476SOL    HW249039   8.886   8.896   8.778 -1.1318 -0.2442 -0.1577
10477SOL     OW49040   5.598   2.624   7.319 -0.7363 -0.6163  0.4206
10477SOL    HW149041   5.558   2.600   7.235 -1.2949 -0.4912  0.6481
10477SOL    HW249042   5.563   2.561   7.382 -3.5771  1.6777  1.3854
10478SOL     OW49043  13.970   8.013   8.071 -0.2596 -0.3709  0.5031
10478SOL    HW149044  13.965   7.981   7.981  1.1621  1.8631 -0.4657
10478SOL    HW249045  13.881   8.039   8.092 -0.5173 -0.4442 -0.4581
10479SOL     OW49046   3.332  10.465  11.324  0.1801 -0.2531 -0.0853
10479SOL    HW149047   3.319  10.559  11.311  1.6253 -0.2563 -2.0688
10479SOL    HW249048   3.245  10.427  11.316 -0.6776  1.0005  2.3094
10480SOL     OW49049   7.324   3.909   4.401 -0.2834 -0.1800  0.1361
10480SOL    HW149050   7.278   3.977   4.350 -0.8279  0.8382  1.8955
10480SOL    HW249051   7.385   3.958   4.455 -1.9835 -0.8287  2.8322
10481SOL     OW49052   5.424   4.419   5.990 -0.4229 -0.4420  0.4088
10481SOL    HW149053   5.337   4.456   6.005 -1.0787 -1.7142 -0.1353
10481SOL    HW249054   5.449   4.382   6.074  0.3922  1.4503  1.0610
10482SOL     OW49055   0.456   8.559   5.697  0.5345 -0.3790 -0.1555
10482SOL    HW149056   0.516   8.629   5.673 -0.9286  0.8017 -0.5237
10482SOL    HW249057   0.513   8.484   5.717  2.0868  0.5805 -0.7988
10483SOL     OW49058   3.377   0.184   7.481  0.4661  0.2773 -0.5555
10483SOL    HW149059   3.373   0.091   7.460  1.6197  0.3345 -1.1352
10483SOL    HW249060   3.299   0.201   7.533  0.6042 -1.1764  0.1683
10484SOL     OW49061  12.619  10.668  11.293  0.0489 -0.6039  0.2282
10484SOL    HW149062  12.708  10.635  11.280  0.4290 -0.1040  1.4474
10484SOL    HW249063  12.569  10.630  11.220  1.2431 -0.9064 -0.4676
10485SOL     OW49064  10.647   0.640   1.289 -0.1913  0.3089  0.7226
10485SOL    HW149065  10.721   0.664   1.234 -0.4839  0.8194  0.5497
10485SOL    HW249066  10.667   0.677   1.375  0.2738 -0.5020  0.9835
10486SOL     OW49067   2.483  13.104   7.591 -0.6918 -0.5298 -0.1529
10486SOL    HW149068   2.405  13.156   7.611 -1.4976 -1.1768 -1.4773
10486SOL    HW249069   2.483  13.095   7.496  0.6620 -1.0756 -0.1288
10487SOL     OW49070   4.673   5.620   1.079  0.1120  0.4132  0.1109
10487SOL    HW149071   4.673   5.540   1.027 -1.1707  0.2703  0.3116
10487SOL    HW249072   4.587   5.623   1.119 -0.3946  2.6099 -0.9982
10488SOL     OW49073   1.451   4.071   2.491  0.1730  0.0810  0.0127
10488SOL    HW149074   1.518   4.030   2.436  0.5130  0.5746  0.0507
10488SOL    HW249075   1.496   4.144   2.533 -0.4804  0.6220 -0.2137
10489SOL     OW49076   8.651   5.100   6.198  0.3062  0.2347 -0.1861
10489SOL    HW149077   8.631   5.102   6.105  0.0495 -1.2957 -0.1970
10489SOL    HW249078   8.589   5.161   6.238  0.5451  1.0331 -1.0286
10490SOL     OW49079   7.730   8.938  12.444  0.1298  0.3618 -0.2745
10490SOL    HW149080   7.640   8.919  12.417  0.7041 -1.0565 -1.3180
10490SOL    HW249081   7.725   9.025  12.485 -1.5054  0.8235 -1.3477
10491SOL     OW49082   4.298  12.609   4.192  0.3545 -0.7214 -0.1481
10491SOL    HW149083   4.206  12.632   4.194  0.9091  1.7923 -0.1164
10491SOL    HW249084   4.311  12.570   4.105 -0.5915 -0.4034 -0.4453
10492SOL     OW49085   4.529  10.545   3.952 -0.4620  0.2172 -0.1469
10492SOL    HW149086   4.483  10.522   4.032  1.0628 -1.3159  0.3603
10492SOL    HW249087   4.592  10.612   3.979  1.0978 -1.3657  0.3486
10493SOL     OW49088   2.498   5.436   5.545  0.2619  0.3769 -0.2404
10493SOL    HW149089   2.464   5.508   5.491 -2.8913 -0.4876  0.3667
10493SOL    HW249090   2.462   5.357   5.505  0.5615 -0.5425  1.2183
10494SOL     OW49091   8.463   5.541   4.773 -0.2910  0.0274  0.9917
10494SOL    HW149092   8.495   5.465   4.725 -0.1692  1.2948 -1.0600
10494SOL    HW249093   8.367   5.536   4.765 -0.2454  0.8887 -0.5738
10495SOL     OW49094  11.527   2.563  11.201  0.9857  0.3984 -0.2595
10495SOL    HW149095  11.590   2.519  11.258  0.3669 -0.9087 -0.5239
10495SOL    HW249096  11.553   2.538  11.112  1.2925  1.5228 -0.4964
10496SOL     OW49097  11.513   4.383  13.957 -0.2150 -0.4929  0.2169
10496SOL    HW149098  11.591   4.433  13.931  0.0222 -1.0909 -0.2544
10496SOL    HW249099  11.496   4.410  14.047  0.3642 -0.1330  0.2248
10497SOL     OW49100   3.303   0.844   2.546 -0.7196 -0.3731  0.5000
10497SOL    HW149101   3.373   0.819   2.606 -0.8229 -0.1827  0.7006
10497SOL    HW249102   3.321   0.794   2.466  1.4942  1.9792 -0.6265
10498SOL     OW49103  12.326  11.555   5.457  1.3552 -0.5395  0.0905
10498SOL    HW149104  12.277  11.562   5.539  1.8413  0.4478  0.3054
10498SOL    HW249105  12.268  11.507   5.398  0.2981  0.2650  0.4583
10499SOL     OW49106   9.676   7.851   3.572  0.2146 -0.4716  0.1697
10499SOL    HW149107   9.669   7.758   3.593  0.1505 -0.7487 -1.0176
10499SOL    HW249108   9.587   7.877   3.550  0.3522 -0.3080 -0.1941
10500SOL     OW49109   8.407   9.688   3.901  0.2837 -0.0460  0.0045
10500SOL    HW149110   8.479   9.750   3.907  0.4579 -0.2729  0.3395
10500SOL    HW249111   8.432   9.629   3.829  0.2384  0.1194 -0.1465
10501SOL     OW49112   5.915  10.238   7.814 -0.0345  0.0067  0.0893
10501SOL    HW149113   5.936  10.325   7.848 -0.4668 -0.8676  2.9228
10501SOL    HW249114   5.900  10.185   7.893  1.3604 -2.9368 -1.4424
10502SOL     OW49115   3.999   7.286  13.076 -0.2576  0.4972 -0.0252
10502SOL    HW149116   3.954   7.356  13.028 -1.2018  0.7940  1.2288
10502SOL    HW249117   4.084   7.324  13.099 -0.4106  0.9112 -0.1321
10503SOL     OW49118  12.185   6.437  13.520  0.0761 -0.2749 -0.1138
10503SOL    HW149119  12.258   6.489  13.486  0.1023  0.3879  0.8995
10503SOL    HW249120  12.113   6.500  13.528 -0.0684 -0.5187  0.5622
10504SOL     OW49121   7.963   7.441   2.346 -0.0797 -0.1299  0.9614
10504SOL    HW149122   7.870   7.427   2.361  0.4085 -1.7068  3.0232
10504SOL    HW249123   7.993   7.362   2.302  0.1612  0.7843 -0.6093
10505SOL     OW49124   0.741   3.217  13.882 -0.2192 -0.0192 -0.1827
10505SOL    HW149125   0.775   3.127  13.882 -0.2175 -0.0214 -0.6605
10505SOL    HW249126   0.655   3.209  13.841 -0.2179  0.2008 -0.2250
10506SOL     OW49127   6.655   2.805  12.773  0.0479 -0.1272  0.5256
10506SOL    HW149128   6.668   2.803  12.868 -1.1279 -0.8846  0.6957
10506SOL    HW249129   6.627   2.716  12.751 -0.4443  0.2464 -0.4192
10507SOL     OW49130  11.944   8.065   5.132  0.5878  0.1536 -0.3763
10507SOL    HW149131  11.890   7.987   5.140 -1.1994  1.5088  1.6642
10507SOL    HW249132  11.948   8.082   5.038 -0.3176 -1.4838 -0.7417
10508SOL     OW49133   7.884  11.049   0.262 -0.5037 -0.5615 -0.1829
10508SOL    HW149134   7.949  11.072   0.196  0.8589 -1.4034  0.8043
10508SOL    HW249135   7.801  11.046   0.214  0.1908  0.3874 -1.5136
10509SOL     OW49136   2.211  12.628   0.356  0.2899 -0.5060 -0.6942
10509SOL    HW149137   2.116  12.634   0.366  0.2151 -1.8660 -0.2833
10509SOL    HW249138   2.245  12.702   0.406 -0.5385 -0.5100 -0.0922
10510SOL     OW49139   1.405   0.981   8.193  0.0787 -0.1109 -0.1316
10510SOL    HW149140   1.477   0.919   8.178 -0.0581 -0.8147  1.8127
10510SOL    HW249141   1.326   0.932   8.172  0.0410 -0.1715  0.1469
10511SOL     OW49142  11.478   8.824   2.659  0.2478  0.1084  0.5214
10511SOL    HW149143  11.537   8.757   2.693  0.7993  0.4855  0.3148
10511SOL    HW249144  11.526   8.906   2.669 -0.7417  0.5802  1.5230
10512SOL     OW49145   8.161  11.520  11.130 -0.3799  0.3656  0.5373
10512SOL    HW149146   8.201  11.502  11.045 -0.3311 -2.3936  1.0405
10512SOL    HW249147   8.228  11.566  11.179  0.0845  0.7736 -0.4438
10513SOL     OW49148  12.316   7.209   8.610 -0.6430  0.0599  0.1175
10513SOL    HW149149  12.226   7.236   8.593 -0.6629  0.0133  0.1492
10513SOL    HW249150  12.340   7.257   8.690 -0.4213  0.5742 -0.2552
10514SOL     OW49151   3.735  12.428   9.254 -0.0337  0.3908  0.2057
10514SOL    HW149152   3.788  12.475   9.319  2.5926 -0.1277 -1.4394
10514SOL    HW249153   3.798  12.377   9.204 -2.3653 -1.9158 -0.5797
10515SOL     OW49154   9.857   2.480   0.653 -0.1053  0.6362  0.0487
10515SOL    HW149155   9.831   2.480   0.561 -1.1403 -0.5321  0.3123
10515SOL    HW249156   9.777   2.503   0.700 -0.4769 -1.8924  0.8150
10516SOL     OW49157   8.819   6.191  12.939  0.3356 -0.4119  0.3357
10516SOL    HW149158   8.777   6.224  12.860  0.2095  0.2697  0.6776
10516SOL    HW249159   8.759   6.124  12.972  0.3916 -0.6994 -0.1440
10517SOL     OW49160   5.007   3.312   1.839  0.3470 -0.0972 -0.3093
10517SOL    HW149161   4.990   3.382   1.776 -1.1074 -0.7477 -0.6640
10517SOL    HW249162   4.932   3.313   1.898  1.6769  0.5040  1.4687
10518SOL     OW49163   0.130  10.436   2.877  0.3109 -0.4591  0.1449
10518SOL    HW149164   0.189  10.385   2.932  1.6077  0.1052 -0.6695
10518SOL    HW249165   0.177  10.518   2.861 -0.8823  0.1875 -0.2003
10519SOL     OW49166  13.620  12.414  10.058  0.1349 -0.4488  0.2424
10519SOL    HW149167  13.621  12.399  10.153  0.9964  4.1947  1.1933
10519SOL    HW249168  13.539  12.372  10.028 -1.6253  0.2959  3.5359
10520SOL     OW49169   3.861  12.520   0.594 -0.1530  0.6287  0.4493
10520SOL    HW149170   3.947  12.540   0.632  0.5368  0.2955 -0.8709
10520SOL    HW249171   3.832  12.441   0.638  0.1147  0.8598  1.0490
10521SOL     OW49172   0.521  11.192   9.386  0.4450  0.7067  0.1222
10521SOL    HW149173   0.541  11.261   9.323 -0.0884  0.4762 -0.3128
10521SOL    HW249174   0.511  11.238   9.469  2.0546  0.9012  0.2270
10522SOL     OW49175  12.866   1.982   8.080 -0.9302  0.5465  0.1920
10522SOL    HW149176  12.936   1.955   8.020 -0.3012 -0.0894  1.1905
10522SOL    HW249177  12.796   1.919   8.064 -1.4100  1.3279 -0.9834
10523SOL     OW49178   9.972  10.472   6.155  0.8675  0.1157  0.5961
10523SOL    HW149179   9.898  10.418   6.126  3.0503 -2.5254 -0.5761
10523SOL    HW249180   9.980  10.540   6.089 -0.6319  0.6079  0.8876
10524SOL     OW49181  13.240   0.344   3.697  0.3650 -0.1886 -0.0354
10524SOL    HW149182  13.265   0.428   3.658  0.8285 -1.4536 -2.6599
10524SOL    HW249183  13.320   0.292   3.693 -0.3740 -1.3341 -0.0521
10525SOL     OW49184   0.521   6.416   1.473  0.2462  0.5427  0.0542
10525SOL    HW149185   0.455   6.360   1.432 -0.0782  0.5183  0.5965
10525SOL    HW249186   0.600   6.402   1.421 -0.0713  0.2706 -0.3622
10526SOL     OW49187   0.139   7.418   5.725  0.1083 -0.6818 -0.4029
10526SOL    HW149188   0.223   7.439   5.766  0.5810  1.3405 -2.2412
10526SOL    HW249189   0.075   7.425   5.796  1.0142  1.6848  0.2514
10527SOL     OW49190   7.717   9.118   7.250 -0.4464 -0.2305  0.1569
10527SOL    HW149191   7.775   9.062   7.199  0.1303 -0.1618  0.7372
10527SOL    HW249192   7.665   9.057   7.303 -2.5894 -0.4684 -2.0302
10528SOL     OW49193   8.019   8.980   2.140  0.5617 -0.0232 -0.4854
10528SOL    HW149194   8.051   9.023   2.220  1.5144 -2.1344  0.3486
10528SOL    HW249195   8.079   9.010   2.071 -0.3602  1.9351 -0.4771
10529SOL     OW49196  12.302  12.539  13.756  0.2365  0.4501  0.6123
10529SOL    HW149197  12.206  12.538  13.753  0.1843 -2.5463  0.0590
10529SOL    HW249198  12.323  12.535  13.849 -0.2205  0.2183  0.7097
10530SOL     OW49199  10.306   0.848  13.824  0.1374 -0.1033  0.1601
10530SOL    HW149200  10.270   0.907  13.890 -1.6429 -1.6430  0.6626
10530SOL    HW249201  10.390   0.888  13.799 -1.0689  2.7348  0.2478
10531SOL     OW49202   0.191   1.568   5.972 -0.0880  0.5096 -0.1945
10531SOL    HW149203   0.192   1.511   6.049  0.8238 -1.9544 -1.8907
10531SOL    HW249204   0.229   1.650   6.002  1.2687 -0.7508  1.7482
10532SOL     OW49205  13.636   6.021   6.011 -0.4582  0.1994  0.8287
10532SOL    HW149206  13.553   5.996   5.970 -0.9483  1.2735  1.1255
10532SOL    HW249207  13.674   6.084   5.949  0.7037 -1.1147  0.1369
10533SOL     OW49208   7.842   0.879  13.177  0.0725  0.2414 -0.8502
10533SOL    HW149209   7.752   0.883  13.147 -0.3853  1.1760  0.5306
10533SOL    HW249210   7.876   0.967  13.164  0.4797  0.1451 -0.4717
10534SOL     OW49211  12.371   2.188   3.057  0.5247 -0.2529 -0.3567
10534SOL    HW149212  12.300   2.236   3.101  1.9058  0.3207  1.3855
10534SOL    HW249213  12.326   2.129   2.996 -1.6664 -1.8249  2.4975
10535SOL     OW49214  11.334   2.652   2.298  0.2433 -0.5815  0.7307
10535SOL    HW149215  11.333   2.653   2.202  1.3281 -0.1370  0.7160
10535SOL    HW249216  11.255   2.603   2.322 -0.3698 -0.1651 -0.3740
10536SOL     OW49217   7.411   4.925   8.940  0.1118 -0.0050 -1.0683
10536SOL    HW149218   7.394   4.954   9.030 -0.0561 -0.9322 -0.7807
10536SOL    HW249219   7.377   4.994   8.885 -1.0223 -0.0311 -0.4290
10537SOL     OW49220   6.006   2.209   1.167  0.4613  0.4359  0.1624
10537SOL    HW149221   5.913   2.210   1.146  0.9275  1.4239 -2.1257
10537SOL    HW249222   6.047   2.260   1.098  2.8786 -1.1044  0.3286
10538SOL     OW49223   6.672  13.114  14.048 -0.0777 -0.5104  0.2549
10538SOL    HW149224   6.598  13.072  14.091 -0.5608  0.0812  0.0145
10538SOL    HW249225   6.636  13.148  13.966  0.1322  0.9291  0.7328
10539SOL     OW49226  11.128  11.103   1.490 -0.2766 -0.1050  0.3640
10539SOL    HW149227  11.222  11.120   1.488 -0.4554  1.3230  1.9316
10539SOL    HW249228  11.091  11.162   1.425 -0.0990 -0.7464 -0.3330
10540SOL     OW49229   7.870  10.176   6.638 -0.0916  0.8756 -0.2130
10540SOL    HW149230   7.906  10.093   6.668  0.7084  0.2268 -2.7084
10540SOL    HW249231   7.809  10.202   6.707 -0.2843 -1.7104  0.7051
10541SOL     OW49232  10.119   6.719   2.260 -0.2538  0.1035  0.4038
10541SOL    HW149233  10.202   6.695   2.219  0.0803  1.0454  0.5068
10541SOL    HW249234  10.092   6.799   2.216 -0.9053  0.0272  0.6525
10542SOL     OW49235   1.024   7.469  10.493 -0.1021  0.2975  0.1837
10542SOL    HW149236   1.037   7.396  10.553  0.9936  1.0316  0.8698
10542SOL    HW249237   0.932   7.492  10.503  0.2748  1.0584  2.3743
10543SOL     OW49238   4.261  11.605   1.247 -0.2508 -0.6341  0.2614
10543SOL    HW149239   4.306  11.581   1.166  1.8036  3.0009  0.1189
10543SOL    HW249240   4.186  11.657   1.218  1.0197  1.4851  0.5947
10544SOL     OW49241   2.163   8.288   3.125 -0.0081 -0.1733  0.6467
10544SOL    HW149242   2.198   8.216   3.072 -0.5221 -0.3746  0.5761
10544SOL    HW249243   2.236   8.350   3.132 -0.2696  0.4260 -1.2968
10545SOL     OW49244   6.317   5.268   0.330  0.2752  0.1507  0.3316
10545SOL    HW149245   6.400   5.250   0.374  0.6966 -0.0343 -0.5190
10545SOL    HW249246   6.264   5.189   0.345  0.4766  0.0221  0.3741
10546SOL     OW49247   5.947  13.720   5.534 -0.1719  0.1476 -0.5410
10546SOL    HW149248   5.861  13.746   5.567  0.4427 -0.4696  1.6932
10546SOL    HW249249   6.003  13.796   5.551 -0.1875  0.4703 -1.8027
10547SOL     OW49250   5.112   2.157   0.723 -0.5062  0.2872 -0.0890
10547SOL    HW149251   5.092   2.236   0.773 -0.3190  0.4547 -0.2751
10547SOL    HW249252   5.185   2.182   0.667  1.0310 -0.6480  1.4155
10548SOL     OW49253   9.585   2.794   6.923  0.2292  0.2160  0.1386
10548SOL    HW149254   9.644   2.811   6.849 -1.9538  1.8519 -1.3546
10548SOL    HW249255   9.630   2.728   6.975  3.4710  1.5197 -0.7516
10549SOL     OW49256   1.174   9.988  10.373  0.0664  0.6468  0.4605
10549SOL    HW149257   1.239   9.978  10.443  0.3051  0.7119  0.2495
10549SOL    HW249258   1.205  10.062  10.322 -0.8036  1.4367  1.0419
10550SOL     OW49259   8.805  10.992   0.236  0.2120 -0.1357  0.4009
10550SOL    HW149260   8.834  10.904   0.261  0.7271  0.1915  0.9656
10550SOL    HW249261   8.718  11.000   0.277  1.7774  1.0893  3.8502
10551SOL     OW49262  12.896  10.663   6.306  0.0106  0.1525  0.6119
10551SOL    HW149263  12.879  10.587   6.362 -1.1344 -0.0343  0.0556
10551SOL    HW249264  12.883  10.630   6.217  4.0992 -0.1718 -0.0482
10552SOL     OW49265  13.299   1.121   4.476 -0.1372 -0.3905 -0.3459
10552SOL    HW149266  13.353   1.201   4.482  1.4634 -1.4861  0.8283
10552SOL    HW249267  13.359   1.055   4.441 -0.4579 -1.8388  1.6836
10553SOL     OW49268   3.627   8.870  13.651 -0.8584  0.2675  0.0862
10553SOL    HW149269   3.706   8.830  13.687 -0.9316  1.3842  1.6044
10553SOL    HW249270   3.620   8.954  13.697 -2.7802  0.3122 -0.2099
10554SOL     OW49271   3.961   1.532   7.829  0.3771  0.0842 -0.2708
10554SOL    HW149272   3.914   1.451   7.814  1.2390 -0.4294 -0.2702
10554SOL    HW249273   3.996   1.524   7.917  0.5216  0.4309 -0.2925
10555SOL     OW49274   4.927  12.737  13.928  0.1600  0.3479  0.3440
10555SOL    HW149275   4.951  12.653  13.890 -0.7781  0.6890 -1.0643
10555SOL    HW249276   4.914  12.719  14.021 -1.1495 -1.3121 -0.1278
10556SOL     OW49277   4.551   4.825   4.728  0.0112 -0.5843  0.2443
10556SOL    HW149278   4.615   4.827   4.656  1.0127  0.0186  1.1250
10556SOL    HW249279   4.516   4.914   4.730 -0.8358 -0.8962 -0.1944
10557SOL     OW49280  11.558  13.338   3.941  0.3578  0.7601  0.2101
10557SOL    HW149281  11.591  13.256   3.904  1.9176  1.4511  0.0081
10557SOL    HW249282  11.547  13.396   3.866  0.8773  1.2694  0.5185
10558SOL     OW49283   4.081  11.680  12.615  0.3018 -0.6304 -0.3909
10558SOL    HW149284   3.995  11.655  12.584 -0.3742 -0.8482  1.5543
10558SOL    HW249285   4.079  11.666  12.710  2.4686 -0.6404 -0.2750
10559SOL     OW49286   3.686   5.431  12.082  0.6230 -0.1148 -0.3038
10559SOL    HW149287   3.599   5.443  12.121  0.5658 -0.6805 -0.2454
10559SOL    HW249288   3.668   5.420  11.988  0.6428 -0.0696 -0.3121
10560SOL     OW49289  10.839   8.988   5.854 -0.0108  0.6735 -0.0182
10560SOL    HW149290  10.927   8.973   5.890 -0.5922 -0.5154  0.9657
10560SOL    HW249291  10.839   8.941   5.771  0.4571  1.1839 -0.3219
10561SOL     OW49292   3.769   0.003   5.046 -0.1173 -0.1304  0.3297
10561SOL    HW149293   3.700   0.025   4.983  0.8003 -0.7034 -0.9169
10561SOL    HW249294   3.846  -0.015   4.992  0.2226 -2.5379  1.4564
10562SOL     OW49295  12.073   6.582  10.629 -0.1541  0.4098  0.0217
10562SOL    HW149296  12.162   6.570  10.661  0.3621  0.6963 -1.2369
10562SOL    HW249297  12.051   6.499  10.587  0.1207  0.8441 -1.0182
10563SOL     OW49298   1.882  12.861  11.699 -0.7525 -0.5153 -0.1482
10563SOL    HW149299   1.870  12.950  11.666  0.6035 -0.0564  0.5379
10563SOL    HW249300   1.850  12.805  11.629 -1.4778  0.4978 -0.6579
10564SOL     OW49301   0.778   8.968   2.032  0.1382 -0.0336 -0.2343
10564SOL    HW149302   0.807   9.047   2.078  1.9807  0.3231 -1.8480
10564SOL    HW249303   0.818   8.896   2.080  1.7253  0.3094 -0.9744
10565SOL     OW49304  13.767  13.975   6.206  0.0672  0.5360  0.0628
10565SOL    HW149305  13.863  13.969   6.206  0.0743  0.3469  1.3166
10565SOL    HW249306  13.747  14.029   6.283 -0.8724 -0.0887  0.2687
10566SOL     OW49307   3.602   0.818   7.070  0.0317  0.3038 -0.2757
10566SOL    HW149308   3.555   0.753   7.018 -0.4927  1.0654 -0.7739
10566SOL    HW249309   3.541   0.891   7.077  0.5857  0.7127  0.3406
10567SOL     OW49310   6.908  10.070   1.138 -0.2181  0.4702 -0.0907
10567SOL    HW149311   6.820  10.069   1.176  0.2870 -0.5853  1.1241
10567SOL    HW249312   6.964  10.102   1.209  0.7605 -1.5237  0.0973
10568SOL     OW49313   9.603   7.856   4.316  0.1800  0.1864 -0.2401
10568SOL    HW149314   9.611   7.843   4.410  1.0177 -1.1974 -0.4691
10568SOL    HW249315   9.632   7.946   4.302  1.4788 -0.0527  0.6850
10569SOL     OW49316   6.876   0.928   0.133 -0.5230  0.0129  0.0273
10569SOL    HW149317   6.892   0.939   0.227 -1.0732 -0.5432  0.1941
10569SOL    HW249318   6.811   0.996   0.112  1.1618  1.5504 -0.4204
10570SOL     OW49319   4.481   4.659  13.909  0.2335 -0.3371 -0.1095
10570SOL    HW149320   4.410   4.679  13.848 -0.5466 -0.7707  0.6408
10570SOL    HW249321   4.560   4.657  13.854 -0.2379  0.6968 -0.8618
10571SOL     OW49322   2.635   9.940   7.925  0.1799 -0.0174 -0.0548
10571SOL    HW149323   2.607   9.855   7.960  1.1795 -0.6209 -0.6487
10571SOL    HW249324   2.709   9.918   7.868 -0.4858  1.0995 -1.3907
10572SOL     OW49325   5.453   0.246   8.705 -0.0662 -0.6973  0.5947
10572SOL    HW149326   5.491   0.329   8.676 -0.1203 -1.0693 -0.5866
10572SOL    HW249327   5.507   0.219   8.779 -1.2898  1.3985  2.3527
10573SOL     OW49328  12.208   6.556  13.852  0.2032  0.3981 -0.2199
10573SOL    HW149329  12.266   6.543  13.777  1.2563  0.4770  0.5587
10573SOL    HW249330  12.200   6.651  13.860 -0.3631  0.3824 -0.5640
10574SOL     OW49331   0.894  10.166  13.215  0.2743  0.2000 -0.3811
10574SOL    HW149332   0.908  10.195  13.125 -1.1260  1.6204 -0.1877
10574SOL    HW249333   0.810  10.205  13.240  0.6345 -0.1495  1.5428
10575SOL     OW49334   6.243   9.446   9.749 -0.4585  0.3209 -0.2159
10575SOL    HW149335   6.234   9.511   9.819 -0.3301  1.4364 -1.1997
10575SOL    HW249336   6.155   9.411   9.737 -0.7783  1.1787 -0.4650
10576SOL     OW49337  11.565   8.736   1.208 -0.6199  0.1553 -0.5617
10576SOL    HW149338  11.548   8.645   1.230 -1.2802  0.1566 -1.0603
10576SOL    HW249339  11.659   8.738   1.187 -1.0605 -0.9203 -2.9320
10577SOL     OW49340   6.216   1.258   2.966  0.8040 -0.3236 -0.0159
10577SOL    HW149341   6.265   1.177   2.984  0.6949 -0.7659 -1.5322
10577SOL    HW249342   6.180   1.244   2.878 -0.8196  0.6074  0.4772
10578SOL     OW49343   1.969   1.892   9.751  0.0347 -0.2479 -0.3233
10578SOL    HW149344   2.041   1.829   9.752  0.7434  0.5224 -0.5190
10578SOL    HW249345   1.997   1.961   9.811  0.0223  0.6460 -1.3123
10579SOL     OW49346  12.855   4.297   8.889 -0.3567  0.0720 -0.9408
10579SOL    HW149347  12.904   4.237   8.945 -1.5388 -1.5940 -1.5817
10579SOL    HW249348  12.813   4.239   8.825 -3.2876  1.3454 -0.3238
10580SOL     OW49349  10.104  12.092   2.984 -0.0159 -0.3639 -0.0317
10580SOL    HW149350  10.074  12.014   2.938 -0.0592  0.5670 -1.6688
10580SOL    HW249351  10.038  12.159   2.965 -0.2942 -0.0626  1.8333
10581SOL     OW49352   1.773   9.559  13.454  0.3381  0.0514  0.6440
10581SOL    HW149353   1.682   9.588  13.451  0.4100  0.2496  0.3454
10581SOL    HW249354   1.782   9.499  13.380  0.7948  1.0490 -0.1294
10582SOL     OW49355   5.444   3.266  13.900 -0.1767  0.5810 -0.1077
10582SOL    HW149356   5.403   3.352  13.894 -2.2259 -0.4318 -2.5529
10582SOL    HW249357   5.371   3.204  13.899  1.2509 -1.2489 -2.1398
10583SOL     OW49358   2.896   8.806   3.756  0.2475 -0.1346 -0.0081
10583SOL    HW149359   2.979   8.831   3.714 -0.4815  1.1949 -0.7084
10583SOL    HW249360   2.902   8.711   3.765  1.2171 -0.2465 -1.4243
10584SOL     OW49361  10.852  11.082   0.206 -0.7669 -0.7629  0.6308
10584SOL    HW149362  10.879  10.991   0.212 -0.7335 -0.8077 -0.1674
10584SOL    HW249363  10.759  11.082   0.229 -2.0298 -1.6938 -3.6014
10585SOL     OW49364   6.091   1.059   7.456  0.5258 -0.4496 -0.2030
10585SOL    HW149365   6.017   1.108   7.491 -0.3329 -0.7868 -1.4575
10585SOL    HW249366   6.166   1.088   7.507 -0.0652  1.6129 -0.4062
10586SOL     OW49367  11.073   8.354   6.211 -0.4535  0.0816 -0.0602
10586SOL    HW149368  11.025   8.395   6.283  0.4896 -2.3837  2.1011
10586SOL    HW249369  11.045   8.263   6.211  1.4126 -0.5533 -1.2183
10587SOL     OW49370   9.196   3.924  12.136  0.4890  0.3935  0.0196
10587SOL    HW149371   9.125   3.976  12.099 -1.3180 -0.5932  1.9035
10587SOL    HW249372   9.200   3.846  12.081  0.5027  0.7079 -0.4286
10588SOL     OW49373  10.313  10.034   6.214 -0.2946 -0.0906 -0.3455
10588SOL    HW149374  10.403  10.068   6.210 -0.2841 -0.1297 -0.4516
10588SOL    HW249375  10.278  10.049   6.127 -0.5066  0.2368 -0.2062
10589SOL     OW49376  11.620   1.702  10.842  0.4516 -0.2084 -0.4111
10589SOL    HW149377  11.676   1.780  10.839 -0.4147  0.3953 -1.5046
10589SOL    HW249378  11.538   1.730  10.801  0.0958 -1.6710 -0.7334
10590SOL     OW49379   7.814   1.183   2.408  0.1033  0.4366 -0.2108
10590SOL    HW149380   7.893   1.231   2.384  0.4175  0.6922  1.2612
10590SOL    HW249381   7.836   1.140   2.491 -0.7657 -0.8301 -0.6091
10591SOL     OW49382   1.167   0.033   6.318  0.1970  0.0239 -0.0188
10591SOL    HW149383   1.233  -0.016   6.269  0.0427 -0.4153  0.2005
10591SOL    HW249384   1.120  -0.034   6.368  0.8967  0.5353  1.3899
10592SOL     OW49385   4.452  10.244   5.647  0.5982  0.1592  0.0004
10592SOL    HW149386   4.455  10.301   5.724  1.2740 -0.2969  0.3260
10592SOL    HW249387   4.363  10.209   5.646  1.2021 -1.6343  1.9335
10593SOL     OW49388  12.062   3.892  11.443  0.3828  0.0825  0.3927
10593SOL    HW149389  12.012   3.830  11.497  2.4251  0.3861  2.7883
10593SOL    HW249390  12.025   3.881  11.355 -0.8771 -2.8644  1.1518
10594SOL     OW49391   5.181   3.415   3.448 -0.0276 -0.2715 -0.6108
10594SOL    HW149392   5.161   3.372   3.365 -0.0649  0.2335 -0.8707
10594SOL    HW249393   5.197   3.343   3.510  0.7090 -0.6556 -1.2292
10595SOL     OW49394   6.737  10.953   9.474  0.0226 -0.2783  0.0544
10595SOL    HW149395   6.822  10.987   9.499  0.1070 -1.6040  1.6992
10595SOL    HW249396   6.674  11.008   9.520 -0.1308  1.3873 -1.9871
10596SOL     OW49397  10.644  10.733   0.424 -0.0963 -0.0066  0.1428
10596SOL    HW149398  10.551  10.709   0.428 -0.5255  1.4631 -0.4802
10596SOL    HW249399  10.690  10.651   0.444 -1.4446 -1.6238 -2.7716
10597SOL     OW49400   3.067   5.179   5.106  0.1359  0.3257 -0.1833
10597SOL    HW149401   3.006   5.229   5.052 -0.4924 -0.5618 -0.3352
10597SOL    HW249402   3.139   5.158   5.047 -0.0364  0.2769 -0.3785
10598SOL     OW49403  10.867  11.741   6.731 -0.0376 -0.2149  0.2283
10598SOL    HW149404  10.834  11.712   6.815  0.7906  1.2864  1.1207
10598SOL    HW249405  10.900  11.662   6.689 -0.8028 -1.0386  1.1529
10599SOL     OW49406   8.241   2.815  12.552 -0.2769  0.0652 -0.4164
10599SOL    HW149407   8.193   2.897  12.538  1.2486  1.3156  1.2845
10599SOL    HW249408   8.201   2.777  12.631  0.3345  0.1904 -0.0453
10600SOL     OW49409   8.198   1.106   9.913  0.5964  0.7624 -0.4049
10600SOL    HW149410   8.196   1.153   9.996  1.7881  1.1928 -0.5970
10600SOL    HW249411   8.265   1.038   9.925  1.7615  1.6810 -1.4272
10601SOL     OW49412   5.179   8.276   6.284  0.4518 -0.5536 -0.1365
10601SOL    HW149413   5.229   8.299   6.362  0.0950 -0.2367 -0.0011
10601SOL    HW249414   5.124   8.352   6.267 -2.4259 -2.0495  1.6346
10602SOL     OW49415  10.988  10.287   9.344 -0.4815  0.1114  0.0060
10602SOL    HW149416  10.947  10.203   9.324  1.0382 -0.2598 -1.9391
10602SOL    HW249417  11.046  10.303   9.269  0.3339  2.2061  1.0117
10603SOL     OW49418   3.668   2.832   2.498  0.0635  0.1583  0.0839
10603SOL    HW149419   3.699   2.908   2.449  0.4616  0.2409  0.4578
10603SOL    HW249420   3.625   2.777   2.432 -1.9554  1.5988  0.1226
10604SOL     OW49421   8.168  13.454   8.644  0.3693  0.1296  0.0794
10604SOL    HW149422   8.111  13.378   8.633 -0.5149  0.9277 -1.1913
10604SOL    HW249423   8.248  13.432   8.597  1.0416 -0.9053  1.6648
10605SOL     OW49424   5.458   5.473   4.363 -0.1060  1.1204  0.4752
10605SOL    HW149425   5.457   5.569   4.368  1.5309  1.0851  2.8221
10605SOL    HW249426   5.539   5.447   4.407 -0.3275 -1.3639 -0.4092
10606SOL     OW49427  13.481   3.127   4.107 -0.3378  0.2689  0.2088
10606SOL    HW149428  13.433   3.201   4.070 -2.0702 -0.1055  1.5719
10606SOL    HW249429  13.502   3.155   4.197  1.0463 -0.0308  0.0049
10607SOL     OW49430   8.608  12.058   8.622 -0.2033  0.0609 -0.4696
10607SOL    HW149431   8.580  12.149   8.628 -0.4225  0.0387 -1.1005
10607SOL    HW249432   8.605  12.026   8.712 -0.5562  0.5482 -0.3059
10608SOL     OW49433  11.740   0.649  11.995  0.5616  0.3011 -0.3246
10608SOL    HW149434  11.811   0.628  11.934  1.3092 -0.8584  0.8983
10608SOL    HW249435  11.684   0.570  11.995 -0.7455  1.1781 -1.2423
10609SOL     OW49436   3.880   2.861   7.487 -0.3452  0.6456 -0.1804
10609SOL    HW149437   3.955   2.920   7.485 -0.5589  0.9108 -0.8217
10609SOL    HW249438   3.808   2.915   7.521 -0.4073  0.5980 -0.2358
10610SOL     OW49439  14.024   9.635   7.009  1.0946  0.1449  0.2155
10610SOL    HW149440  14.014   9.563   6.947  0.2141 -0.3401  0.8869
10610SOL    HW249441  14.055   9.593   7.089 -1.5362  0.0948  1.3235
10611SOL     OW49442   1.818  13.797  11.526  0.3480  0.3716 -0.0459
10611SOL    HW149443   1.732  13.797  11.568  0.4949  0.2179  0.2529
10611SOL    HW249444   1.799  13.813  11.433  0.1322  2.4030  0.3008
10612SOL     OW49445  13.556   3.512   8.933 -0.4333  0.5960 -0.5100
10612SOL    HW149446  13.554   3.526   9.028 -0.9322 -2.4716  0.0233
10612SOL    HW249447  13.648   3.503   8.912 -0.3985 -0.3706  0.0030
10613SOL     OW49448   7.162   0.340   3.049 -0.4443 -0.0482 -0.1111
10613SOL    HW149449   7.136   0.415   2.995  0.1625 -0.8865 -1.6250
10613SOL    HW249450   7.209   0.379   3.123 -0.4710  1.0870 -0.6710
10614SOL     OW49451  12.976   4.837   6.175 -0.2827  0.1227  0.0524
10614SOL    HW149452  12.995   4.913   6.119 -0.5360  0.7980  0.8487
10614SOL    HW249453  13.020   4.764   6.132 -1.8984  0.2455 -2.0010
10615SOL     OW49454   6.811   6.693  12.505 -0.0430 -0.4902 -1.0855
10615SOL    HW149455   6.894   6.646  12.491 -0.0531 -0.1958 -2.2885
10615SOL    HW249456   6.813   6.764  12.440 -0.0713  1.1528  0.6263
10616SOL     OW49457  13.177   2.171   2.199 -0.2037 -0.0794 -0.0307
10616SOL    HW149458  13.197   2.219   2.279 -0.4677  0.3266 -0.2066
10616SOL    HW249459  13.263   2.143   2.166 -0.0339  0.4253 -0.0223
10617SOL     OW49460   2.239   0.579   0.278 -0.5931  0.0476  0.9421
10617SOL    HW149461   2.323   0.603   0.238 -0.3362 -0.4344  1.1796
10617SOL    HW249462   2.191   0.534   0.208 -1.1055  1.2880  0.4735
10618SOL     OW49463   4.396  13.623   8.735 -0.1460  0.3166  0.5183
10618SOL    HW149464   4.435  13.544   8.774 -2.2587 -1.5396 -0.8726
10618SOL    HW249465   4.357  13.669   8.809  0.3011 -0.4167  1.2325
10619SOL     OW49466   7.814   2.590   8.115 -0.0438  0.5799  0.1894
10619SOL    HW149467   7.828   2.520   8.051 -2.1321 -0.5394  0.8793
10619SOL    HW249468   7.774   2.661   8.064  1.6005  1.1377 -0.4040
10620SOL     OW49469   9.886   3.053   3.120 -0.1525 -0.0462  0.3642
10620SOL    HW149470   9.880   3.014   3.033 -2.3460 -0.2134  0.5323
10620SOL    HW249471   9.951   3.123   3.111  0.0424 -0.4057 -1.2562
10621SOL     OW49472   0.520   3.691   1.416  0.0665  0.6307  0.4028
10621SOL    HW149473   0.580   3.765   1.415  0.9484 -0.0693 -0.8995
10621SOL    HW249474   0.571   3.618   1.381 -0.8826 -0.5214  1.3498
10622SOL     OW49475   9.331  10.820  13.249  0.0158  0.1236  0.0088
10622SOL    HW149476   9.353  10.891  13.189 -0.1103 -0.0120 -0.2006
10622SOL    HW249477   9.300  10.863  13.328  1.6433  0.3359  0.5647
10623SOL     OW49478   8.973  10.213   0.705 -0.3992  0.5797  0.4215
10623SOL    HW149479   8.879  10.201   0.688 -0.3183 -0.0764  0.4258
10623SOL    HW249480   8.998  10.286   0.648 -0.1722 -1.4531 -2.2751
10624SOL     OW49481   5.040  14.082   1.170 -0.1258  0.1577 -0.3385
10624SOL    HW149482   5.000  14.143   1.108  1.4088  0.2440 -1.3118
10624SOL    HW249483   5.134  14.099   1.162  0.3676 -2.2884 -0.6273
10625SOL     OW49484  10.817  11.124  14.018 -0.2486 -0.0403  0.1272
10625SOL    HW149485  10.826  11.118  14.113  1.3630 -0.3446 -0.0252
10625SOL    HW249486  10.794  11.036  13.990 -1.6020  0.2327  0.2877
10626SOL     OW49487  13.749   8.700  12.421  0.6879  0.4147  0.0118
10626SOL    HW149488  13.774   8.626  12.477 -1.0068  0.1715  0.5040
10626SOL    HW249489  13.831   8.733  12.386  1.5651 -1.0876  0.5786
10627SOL     OW49490  12.271   5.237   9.068 -0.1306 -0.1273 -0.2122
10627SOL    HW149491  12.325   5.268   8.996  0.7314  0.6752  0.7554
10627SOL    HW249492  12.275   5.141   9.062 -1.4920 -0.1311 -2.2413
10628SOL     OW49493   0.179   3.656  13.331 -0.0894 -0.0999  0.1287
10628SOL    HW149494   0.228   3.735  13.309 -0.8496  0.6527  1.0498
10628SOL    HW249495   0.129   3.637  13.251  0.4852  0.0474 -0.2721
10629SOL     OW49496   6.122   8.366   4.240  0.1075 -0.7266 -0.2173
10629SOL    HW149497   6.178   8.371   4.162  0.1326 -0.2966 -0.1753
10629SOL    HW249498   6.150   8.287   4.285 -0.3576 -1.3494 -0.9910
10630SOL     OW49499   0.468   7.346   3.234  0.1152  0.3138 -0.1535
10630SOL    HW149500   0.535   7.384   3.178 -0.2115  0.2579 -0.5857
10630SOL    HW249501   0.491   7.374   3.323  1.3398 -0.6094 -0.1525
10631SOL     OW49502   1.369   0.913   6.054  0.0350 -0.1809 -0.0670
10631SOL    HW149503   1.280   0.900   6.021 -0.1218  0.8456 -0.0854
10631SOL    HW249504   1.359   0.976   6.125  0.9558  1.6175 -1.4342
10632SOL     OW49505   1.124  12.298   5.652  0.3821 -0.1129 -0.7612
10632SOL    HW149506   1.092  12.378   5.610 -1.0425  0.4456  1.2162
10632SOL    HW249507   1.189  12.328   5.715  1.2166 -0.7347 -1.3086
10633SOL     OW49508   1.788   3.470   0.930  0.2158  0.3299 -0.1300
10633SOL    HW149509   1.752   3.496   1.015  0.6672  1.8713 -0.3740
10633SOL    HW249510   1.880   3.452   0.948  0.3321  0.7425 -0.3001
10634SOL     OW49511   2.381  13.509  10.846  0.2426  0.0078  0.6167
10634SOL    HW149512   2.476  13.513  10.843  0.3239 -1.6444 -0.3855
10634SOL    HW249513   2.361  13.415  10.852 -1.3206  0.2171 -0.5519
10635SOL     OW49514   6.891   1.335   3.812 -0.0224  0.4261 -0.2120
10635SOL    HW149515   6.809   1.383   3.797  0.4663  1.4838  0.4083
10635SOL    HW249516   6.917   1.360   3.901 -0.6176 -2.3323  0.8540
10636SOL     OW49517  14.029   7.412   5.531 -0.2038 -0.2425  0.2074
10636SOL    HW149518  14.086   7.407   5.608 -0.4143 -1.0472  0.3125
10636SOL    HW249519  14.088   7.399   5.457 -0.0437  0.2693  0.2365
10637SOL     OW49520   2.706   6.205  13.089 -0.0059  0.0728 -0.2842
10637SOL    HW149521   2.702   6.135  13.154 -1.9841 -0.5971 -1.0532
10637SOL    HW249522   2.620   6.246  13.093  0.1535  0.6179 -1.8095
10638SOL     OW49523   4.840   3.298   0.487  0.4188  0.1947  0.0681
10638SOL    HW149524   4.880   3.297   0.574  0.4059  0.8302  0.0849
10638SOL    HW249525   4.749   3.324   0.502  0.7734  1.7075 -0.2672
10639SOL     OW49526   0.661   2.468   1.156  0.1682 -0.3468 -0.6149
10639SOL    HW149527   0.637   2.457   1.064 -0.2653  1.0263 -0.6905
10639SOL    HW249528   0.684   2.561   1.164  2.3054 -0.8884  0.1925
10640SOL     OW49529   3.219   8.363  11.445 -0.6701  0.0397  0.4916
10640SOL    HW149530   3.128   8.367  11.417 -0.5357 -1.0080 -0.1407
10640SOL    HW249531   3.254   8.449  11.425 -1.8878  0.9677  2.1019
10641SOL     OW49532  11.076  13.495   2.935 -0.5520  0.2223  0.1008
10641SOL    HW149533  11.168  13.505   2.959 -0.1180  0.1060 -1.4228
10641SOL    HW249534  11.066  13.547   2.855 -1.6306 -0.3437 -0.1463
10642SOL     OW49535  10.371  10.409  11.718 -0.1117  0.1093 -0.6715
10642SOL    HW149536  10.453  10.408  11.669  0.0076  0.9285 -0.5068
10642SOL    HW249537  10.394  10.377  11.805 -0.2902 -1.1823 -1.0786
10643SOL     OW49538  14.000  12.792   3.546  0.0423 -0.3569  0.1612
10643SOL    HW149539  13.976  12.732   3.475  1.1815 -0.2985 -0.2865
10643SOL    HW249540  13.927  12.854   3.551 -0.0233 -0.3186 -1.0120
10644SOL     OW49541  12.440   0.186   2.191  0.0488  0.1822 -0.5847
10644SOL    HW149542  12.482   0.263   2.153  2.1098  0.4628  1.9594
10644SOL    HW249543  12.503   0.154   2.256 -1.0335 -3.2775 -1.0613
10645SOL     OW49544   7.732   1.296  13.675 -0.3382 -0.1617  0.0468
10645SOL    HW149545   7.646   1.255  13.673 -0.8124  0.8360 -1.1051
10645SOL    HW249546   7.755   1.309  13.583 -0.4500  2.5947  0.3201
10646SOL     OW49547   1.282  11.764   9.092  0.0353  0.1639  0.3261
10646SOL    HW149548   1.238  11.683   9.118  0.4825  0.2145  1.2536
10646SOL    HW249549   1.329  11.740   9.012 -1.4828  0.0564 -0.5674
10647SOL     OW49550   4.014   8.001  10.652 -1.1699  0.0858 -0.2315
10647SOL    HW149551   4.024   7.917  10.696  1.8380  2.1670  3.6144
10647SOL    HW249552   3.928   8.033  10.681 -1.3031 -0.6362  0.2024
10648SOL     OW49553   7.394   6.442  11.096 -0.1587  0.3804 -0.3655
10648SOL    HW149554   7.313   6.492  11.082 -0.8747 -0.0756  1.7962
10648SOL    HW249555   7.445   6.495  11.157 -0.0639 -0.5959  0.4302
10649SOL     OW49556   6.068  12.445   3.979 -0.2791 -0.3312 -0.3667
10649SOL    HW149557   6.146  12.495   3.957 -0.8130  0.2753 -0.9189
10649SOL    HW249558   6.030  12.492   4.054 -0.9401  0.2855 -1.0711
10650SOL     OW49559   7.063   5.043   1.784 -0.0410 -0.0419  0.0602
10650SOL    HW149560   7.127   4.976   1.812  0.2199 -0.8595 -2.2589
10650SOL    HW249561   6.978   5.004   1.805  0.1397  0.0361  1.0224
10651SOL     OW49562  10.992  12.843  12.300 -0.0723 -0.4914 -0.3669
10651SOL    HW149563  11.029  12.838  12.212 -0.6547  0.0800 -0.6601
10651SOL    HW249564  11.006  12.756  12.337  1.6832 -0.2525 -0.3962
10652SOL     OW49565  10.224   3.838  11.656 -0.2846 -0.0924  0.2090
10652SOL    HW149566  10.153   3.858  11.717 -1.3951 -1.1214 -0.6946
10652SOL    HW249567  10.301   3.828  11.712 -0.8259  1.0310  1.2124
10653SOL     OW49568   0.607   2.624  12.023 -0.2830  0.7551  0.1229
10653SOL    HW149569   0.526   2.584  11.991 -0.3315  0.3510  0.7245
10653SOL    HW249570   0.655   2.551  12.062  0.8174  0.7972 -1.0784
10654SOL     OW49571  12.558   3.450  12.740  0.4412 -0.1926 -0.4113
10654SOL    HW149572  12.604   3.442  12.823  1.0602 -0.2608 -0.7518
10654SOL    HW249573  12.475   3.491  12.762  1.9262  2.9740 -0.1917
10655SOL     OW49574  11.874   7.849   1.056 -0.5435  0.4175  0.7910
10655SOL    HW149575  11.933   7.779   1.028  1.0264  0.5327  3.4638
10655SOL    HW249576  11.786   7.815   1.041  0.1724 -0.7905 -0.9302
10656SOL     OW49577   2.023   4.008  13.263  0.5250  0.0083 -0.0952
10656SOL    HW149578   2.055   4.076  13.205  0.5898 -0.1616 -0.2618
10656SOL    HW249579   2.099   3.982  13.314 -0.0593  1.8845  1.8358
10657SOL     OW49580  12.839   3.542  12.652  0.2958  0.3136  0.3290
10657SOL    HW149581  12.760   3.592  12.671 -0.6078  0.1466 -2.6132
10657SOL    HW249582  12.854   3.490  12.731 -1.5782  1.5101  1.5473
10658SOL     OW49583  13.432   9.359   8.045  0.2235  0.0230 -0.0513
10658SOL    HW149584  13.378   9.356   8.124 -0.5015 -1.9097 -0.5585
10658SOL    HW249585  13.469   9.271   8.038  1.3990  0.5681 -1.1231
10659SOL     OW49586  11.384   1.726   9.303  0.0624 -0.4454  0.1811
10659SOL    HW149587  11.354   1.722   9.212 -0.6016 -2.8234  0.4249
10659SOL    HW249588  11.448   1.798   9.304  1.5309 -1.5172 -2.6207
10660SOL     OW49589  10.980  10.232   4.549 -0.3221 -0.2495  0.0290
10660SOL    HW149590  11.006  10.225   4.641 -1.5781 -1.6804  0.3165
10660SOL    HW249591  11.021  10.157   4.507  0.9233  0.8506 -0.7886
10661SOL     OW49592   8.547  13.999   7.078 -0.3881  0.4234  0.2430
10661SOL    HW149593   8.505  14.083   7.098 -0.3278 -0.1075  2.9471
10661SOL    HW249594   8.639  14.021   7.065 -0.2149  0.6992  1.8063
10662SOL     OW49595   7.930   0.388   1.899 -0.3303  0.1106  0.6945
10662SOL    HW149596   8.013   0.377   1.947  0.4611  0.7979 -0.4489
10662SOL    HW249597   7.882   0.308   1.916  1.7740 -1.6157 -0.8504
10663SOL     OW49598   0.582   9.664   4.693 -0.6357 -0.6004  0.5447
10663SOL    HW149599   0.592   9.619   4.777  0.7534 -1.4077 -0.0071
10663SOL    HW249600   0.671   9.667   4.657 -1.2295 -0.4587 -0.9978
10664SOL     OW49601   0.798   6.922   9.540 -0.1505 -0.5894  0.6291
10664SOL    HW149602   0.840   6.979   9.605  0.1698 -0.7794  0.5927
10664SOL    HW249603   0.718   6.892   9.583 -0.3569 -0.0602  0.6220
10665SOL     OW49604   3.168   3.761   1.344  0.4002  0.3835  0.3187
10665SOL    HW149605   3.215   3.817   1.406 -0.4017  0.7173  0.6420
10665SOL    HW249606   3.113   3.705   1.399  0.2549  0.1573 -0.0557
10666SOL     OW49607   2.416   8.324   8.133 -0.6670  0.1510  0.4958
10666SOL    HW149608   2.339   8.284   8.092 -1.5262  1.5379  0.6994
10666SOL    HW249609   2.464   8.365   8.061 -0.5665  0.0240  0.4888
10667SOL     OW49610  12.314   5.830  14.073  0.0672  0.7528 -0.1195
10667SOL    HW149611  12.365   5.752  14.054 -0.2387  0.6567 -0.5466
10667SOL    HW249612  12.309   5.832  14.169 -0.8345 -0.3476 -0.1193
10668SOL     OW49613   8.659   2.310   1.447 -0.7485 -0.1497 -0.1932
10668SOL    HW149614   8.655   2.278   1.356  0.9691 -0.7309 -0.0868
10668SOL    HW249615   8.568   2.307   1.476 -1.2896 -0.3207 -1.7621
10669SOL     OW49616  13.228  13.439   6.368  0.5209 -0.1420  0.2156
10669SOL    HW149617  13.220  13.488   6.449 -1.1808 -0.9669  0.5927
10669SOL    HW249618  13.317  13.402   6.371  1.4103  1.8704  0.4569
10670SOL     OW49619   2.474   4.155   8.102 -0.2648  0.4073  0.5779
10670SOL    HW149620   2.426   4.192   8.028  0.0185 -0.3234  0.0257
10670SOL    HW249621   2.429   4.073   8.121 -0.9166  1.0161  1.8282
10671SOL     OW49622  12.953   5.480  13.790 -0.3377  0.3507 -0.0951
10671SOL    HW149623  12.907   5.560  13.817 -1.2331 -0.3379  0.5019
10671SOL    HW249624  12.967   5.490  13.696 -3.8057 -0.3552 -0.8162
10672SOL     OW49625   6.819  12.136   5.662 -0.1567  0.8360 -0.0588
10672SOL    HW149626   6.831  12.042   5.652 -1.4178  0.6002  0.4638
10672SOL    HW249627   6.810  12.169   5.572  0.6462  0.5280 -0.2635
10673SOL     OW49628   7.010   2.499   9.546 -0.0949 -0.8650  0.0205
10673SOL    HW149629   6.937   2.469   9.601 -0.0859 -0.7308  0.1042
10673SOL    HW249630   6.973   2.502   9.457 -0.2149 -0.7152  0.0757
10674SOL     OW49631   2.153   0.995   3.560  0.3639  0.7378 -0.0537
10674SOL    HW149632   2.172   1.017   3.651 -0.2439 -0.3766  0.3617
10674SOL    HW249633   2.179   1.073   3.510 -1.0608  2.1328  1.2631
10675SOL     OW49634  12.795   2.311   6.209  0.4204 -0.1628 -0.1975
10675SOL    HW149635  12.797   2.289   6.116 -0.6194 -1.5142  0.0647
10675SOL    HW249636  12.704   2.335   6.226  0.4083 -0.7652  0.6449
10676SOL     OW49637   1.314   1.460  13.862  0.4236 -0.5847  0.3774
10676SOL    HW149638   1.350   1.428  13.945  0.5247 -0.7026  0.2862
10676SOL    HW249639   1.233   1.411  13.850  0.8913 -1.2538 -0.0746
10677SOL     OW49640  11.658   1.162   8.562  0.2105  0.1765  0.3823
10677SOL    HW149641  11.678   1.254   8.575  2.5579 -0.3566  1.1137
10677SOL    HW249642  11.655   1.125   8.651  0.7932 -0.6975  0.0538
10678SOL     OW49643  13.215   5.808   0.526  0.0114  0.2227 -0.0191
10678SOL    HW149644  13.193   5.791   0.434 -1.8392 -0.3570  0.4752
10678SOL    HW249645  13.288   5.749   0.544 -1.4972 -1.9235 -0.3884
10679SOL     OW49646   5.662   7.657  12.807 -0.0449  0.5295  0.3346
10679SOL    HW149647   5.660   7.618  12.894 -0.9157 -1.2731 -0.4365
10679SOL    HW249648   5.726   7.604  12.758 -1.2391  0.0293 -0.7364
10680SOL     OW49649   0.662  10.525   1.217 -0.0262  0.2157 -0.1788
10680SOL    HW149650   0.592  10.545   1.155  1.8556  0.1704 -2.4818
10680SOL    HW249651   0.698  10.442   1.187 -0.2422 -0.8120  2.2048
10681SOL     OW49652   1.125   1.364   6.056 -0.3545  0.1921  0.6713
10681SOL    HW149653   1.075   1.296   6.101 -1.3394  1.4377  1.5238
10681SOL    HW249654   1.179   1.316   5.993  0.4456 -1.5442  2.5875
10682SOL     OW49655  11.228   1.625  12.607  0.4021  0.6265 -0.6950
10682SOL    HW149656  11.262   1.615  12.519  1.0867 -1.6313 -0.2323
10682SOL    HW249657  11.133   1.627  12.596  0.4337 -0.7835 -1.4316
10683SOL     OW49658  10.320   5.143   6.723  0.1003  0.4738 -0.0424
10683SOL    HW149659  10.321   5.236   6.744  0.1192  0.6634 -0.8708
10683SOL    HW249660  10.379   5.103   6.788 -0.7875  0.8706  1.0353
10684SOL     OW49661   6.766   4.601  13.079 -0.1573  0.2475 -0.1923
10684SOL    HW149662   6.853   4.606  13.040  0.6717  0.8320  1.6295
10684SOL    HW249663   6.778   4.631  13.169 -2.3860  1.0129 -0.0872
10685SOL     OW49664   4.217   4.565   6.500  0.4792  0.4545  0.8792
10685SOL    HW149665   4.195   4.478   6.467  4.7588 -1.2143  1.7784
10685SOL    HW249666   4.305   4.583   6.466  0.4920  3.6596  2.1798
10686SOL     OW49667  12.197   6.459   1.777 -0.0466 -0.3031  0.2766
10686SOL    HW149668  12.286   6.438   1.805 -0.2426  0.1942  1.3212
10686SOL    HW249669  12.156   6.498   1.854 -1.3530 -1.0502 -0.0047
10687SOL     OW49670   9.425   3.830  10.212 -0.3000 -0.2105  0.1123
10687SOL    HW149671   9.433   3.919  10.178 -0.8812 -0.4310 -0.6422
10687SOL    HW249672   9.337   3.826  10.250  1.0465  0.6738  3.7044
10688SOL     OW49673   2.824  14.048   9.247  0.2507  0.7263 -0.1274
10688SOL    HW149674   2.846  14.132   9.287  1.6133  1.1316 -1.6236
10688SOL    HW249675   2.730  14.054   9.230 -0.0317  1.1925  1.4333
10689SOL     OW49676   4.215   5.350   2.108 -0.5244  0.5308  0.5928
10689SOL    HW149677   4.155   5.422   2.095 -1.6686 -0.6471 -0.9513
10689SOL    HW249678   4.272   5.351   2.031 -0.9240 -0.5281  0.2607
10690SOL     OW49679   9.762   3.723   9.538 -0.0216  0.2046 -0.3147
10690SOL    HW149680   9.688   3.665   9.519 -0.4089  0.8654 -0.8772
10690SOL    HW249681   9.741   3.761   9.624 -0.7069  0.9396 -0.7937
10691SOL     OW49682  11.255  11.202  10.682 -0.0967  0.0869  0.2184
10691SOL    HW149683  11.249  11.223  10.775 -0.2240  0.1448  0.1963
10691SOL    HW249684  11.199  11.266  10.639  2.6480  2.4363 -0.2419
10692SOL     OW49685   3.094  12.949   5.529  0.4143 -0.1769  0.6315
10692SOL    HW149686   3.146  12.871   5.509 -0.9683 -0.8179 -0.6456
10692SOL    HW249687   3.116  13.011   5.460  2.9447  1.3940  2.6649
10693SOL     OW49688  13.940   8.910  11.558 -0.0597  0.0710  0.0181
10693SOL    HW149689  13.921   8.955  11.640  0.8329  1.7197 -0.6408
10693SOL    HW249690  13.854   8.881  11.527 -0.5216  0.2910  1.0428
10694SOL     OW49691  10.571  13.500   1.097 -0.1604 -0.6720 -0.2308
10694SOL    HW149692  10.661  13.533   1.105 -0.0203 -1.0123 -0.4047
10694SOL    HW249693  10.564  13.469   1.007 -1.0233  1.0094 -0.7804
10695SOL     OW49694   3.961   4.469   2.446  0.4056 -0.0519 -0.6370
10695SOL    HW149695   3.923   4.451   2.360 -0.9913  0.7106 -0.2138
10695SOL    HW249696   4.004   4.554   2.436 -0.1998  0.2825 -0.4670
10696SOL     OW49697   3.926  12.466   2.325  0.0169 -0.5324 -0.0603
10696SOL    HW149698   4.020  12.453   2.321 -0.0309 -2.0972  2.2936
10696SOL    HW249699   3.892  12.422   2.247  1.2382  1.3030 -1.7552
10697SOL     OW49700   1.942  11.995  11.962  0.1119  0.4670 -0.0536
10697SOL    HW149701   1.887  12.005  12.040  0.7302  0.1582  0.4319
10697SOL    HW249702   1.930  11.904  11.936  0.4915  0.3651  0.1299
10698SOL     OW49703   3.015   2.641  10.618  0.9518 -0.0925  0.4449
10698SOL    HW149704   3.081   2.709  10.631  2.2326 -1.5014  1.8454
10698SOL    HW249705   3.065   2.559  10.620 -0.5464 -1.1073 -1.0273
10699SOL     OW49706   2.962   0.884   8.653 -0.1401 -0.5423  0.3821
10699SOL    HW149707   3.025   0.919   8.590 -1.2903  1.4744  0.2532
10699SOL    HW249708   2.989   0.922   8.737 -1.2183  0.4918  0.2948
10700SOL     OW49709  12.335   9.753   7.787  0.2416  0.5812 -0.9344
10700SOL    HW149710  12.242   9.773   7.797  0.0003 -0.9556  0.4172
10700SOL    HW249711  12.381   9.827   7.827 -0.4023  1.3691 -1.6593
10701SOL     OW49712  10.705   0.807  10.746  0.2103 -0.0041 -0.3028
10701SOL    HW149713  10.732   0.804  10.655  0.2575 -0.2677 -0.2808
10701SOL    HW249714  10.695   0.901  10.766  1.2343  0.1069 -0.2693
10702SOL     OW49715   7.432   2.319   8.438  0.0610  0.1594 -0.2378
10702SOL    HW149716   7.516   2.281   8.464  0.2235 -0.0839 -1.0713
10702SOL    HW249717   7.439   2.412   8.461 -0.9541 -0.5041  3.3204
10703SOL     OW49718  14.053   2.236   3.127 -0.4503 -0.2580 -0.0299
10703SOL    HW149719  14.000   2.256   3.204  1.4995  0.4618  1.1945
10703SOL    HW249720  14.035   2.307   3.066 -2.4249 -1.1214 -0.5344
10704SOL     OW49721  13.129   7.177   8.642 -0.0020  0.0615  0.2506
10704SOL    HW149722  13.155   7.260   8.602 -2.3649  0.5411 -0.4367
10704SOL    HW249723  13.196   7.114   8.612  1.0722  1.4187 -0.3122
10705SOL     OW49724  10.668  11.733   0.154 -0.1284  0.1721  0.3694
10705SOL    HW149725  10.733  11.672   0.189  0.9727 -0.9505 -3.2278
10705SOL    HW249726  10.598  11.676   0.121 -0.6966  1.0770 -0.0092
10706SOL     OW49727   8.482   8.951   3.088  0.2597 -0.1501 -0.3231
10706SOL    HW149728   8.506   8.864   3.121  1.6458  0.3779  0.1366
10706SOL    HW249729   8.540   9.011   3.135 -1.8965  1.2368  0.7048
10707SOL     OW49730  11.252   7.057   6.110 -0.2742 -0.1576 -0.1891
10707SOL    HW149731  11.176   7.086   6.060 -0.0604  1.6341  0.4730
10707SOL    HW249732  11.327   7.088   6.060 -0.0517  1.2706  0.9753
10708SOL     OW49733   2.320   4.498   4.184 -0.4775  0.4006 -0.2580
10708SOL    HW149734   2.299   4.440   4.257 -0.6256 -0.1061 -0.6986
10708SOL    HW249735   2.350   4.439   4.114  4.6326  1.0716  0.9729
10709SOL     OW49736   3.097  12.664   0.880 -0.4150  0.2787  0.0173
10709SOL    HW149737   3.105  12.609   0.958  1.5865  1.5550  0.7873
10709SOL    HW249738   3.081  12.752   0.914 -0.9781  0.6257 -1.0838
10710SOL     OW49739   7.714   4.725   2.042  0.7899 -0.2414 -0.3603
10710SOL    HW149740   7.690   4.749   2.131 -1.8151 -0.8914 -0.8078
10710SOL    HW249741   7.687   4.633   2.033  0.1393  0.0712 -2.0655
10711SOL     OW49742   0.545   4.060  13.195  0.2204  0.3777 -1.0188
10711SOL    HW149743   0.505   4.082  13.279  0.9682 -2.3406  0.1729
10711SOL    HW249744   0.471   4.059  13.133 -0.8317 -0.1731  0.1930
10712SOL     OW49745  11.593   8.770   9.072 -0.3951  0.0144  0.1211
10712SOL    HW149746  11.639   8.832   9.016  0.4515 -0.7561 -0.0485
10712SOL    HW249747  11.598   8.808   9.160  0.3862  0.0384  0.0695
10713SOL     OW49748  10.058   1.811   1.922  0.6943  0.0418 -0.4545
10713SOL    HW149749  10.018   1.843   2.003  1.9564  1.7594 -0.4525
10713SOL    HW249750  10.003   1.737   1.895  1.1804 -1.7014  2.8377
10714SOL     OW49751  11.066   0.504   0.006  0.3428  0.5753  0.0432
10714SOL    HW149752  11.113   0.425  -0.019 -0.6616  0.3068 -1.1154
10714SOL    HW249753  11.131   0.558   0.052  1.4224 -0.2990 -0.4227
10715SOL     OW49754   8.430  10.354  12.023 -0.0074 -0.6000  0.1891
10715SOL    HW149755   8.500  10.335  12.086  0.4515  0.9637  0.1795
10715SOL    HW249756   8.377  10.420  12.066 -0.4262 -0.4513 -0.5565
10716SOL     OW49757   6.713  13.587  13.184 -0.2577 -0.1551  0.1193
10716SOL    HW149758   6.762  13.614  13.106 -0.1405  0.1510  0.2975
10716SOL    HW249759   6.687  13.670  13.225  0.3931 -0.3100  0.8573
10717SOL     OW49760   5.954   7.741   2.660 -0.0052  0.5406 -0.0980
10717SOL    HW149761   5.932   7.746   2.753  0.5462  1.9467 -0.0199
10717SOL    HW249762   6.028   7.680   2.656 -0.3165  0.1368  0.3351
10718SOL     OW49763   5.201   6.155  11.778 -0.2046 -0.3461 -0.1738
10718SOL    HW149764   5.255   6.215  11.830  0.3452 -0.8083 -0.1991
10718SOL    HW249765   5.258   6.128  11.706 -0.6704 -0.3921 -0.5245
10719SOL     OW49766  12.980   6.256   3.176 -0.4604 -0.0323  0.6251
10719SOL    HW149767  13.024   6.171   3.183 -0.7799 -0.1147  1.8314
10719SOL    HW249768  13.046   6.314   3.136 -0.5760 -1.0545 -1.1522
10720SOL     OW49769   4.338   2.234  12.492 -0.3258  0.2606 -0.0775
10720SOL    HW149770   4.301   2.297  12.554  1.3263 -0.3912  1.6851
10720SOL    HW249771   4.433   2.249  12.497 -0.1048 -0.2043 -2.0738
10721SOL     OW49772   4.943  12.260  11.154  0.2359 -0.0287  0.9233
10721SOL    HW149773   5.008  12.273  11.223  1.3739  1.2613 -0.3253
10721SOL    HW249774   4.982  12.300  11.076 -1.7952  0.2211 -0.0359
10722SOL     OW49775   2.469   8.788   4.232 -0.2920 -0.1218  0.0933
10722SOL    HW149776   2.480   8.750   4.319 -0.8957  1.0729  0.7233
10722SOL    HW249777   2.485   8.716   4.172 -0.9435 -1.2424  1.2243
10723SOL     OW49778  11.054  10.995   0.512 -0.6475 -0.5197  0.0634
10723SOL    HW149779  10.969  10.966   0.480 -0.9763 -0.6843  1.0516
10723SOL    HW249780  11.091  10.917   0.555 -0.1763 -0.3351 -0.0005
10724SOL     OW49781   1.492   0.608   2.588  0.1555  0.5752 -0.4083
10724SOL    HW149782   1.587   0.596   2.588  0.1586  0.5368  0.6689
10724SOL    HW249783   1.457   0.525   2.621 -0.1806  1.0592  0.4714
10725SOL     OW49784   9.458  12.865   2.023  0.0480 -0.3402 -0.4404
10725SOL    HW149785   9.375  12.907   2.003  0.3128  0.3932 -0.0244
10725SOL    HW249786   9.460  12.788   1.966 -0.8264 -0.2617 -0.5874
10726SOL     OW49787  12.893   0.983   9.252  0.4752  0.0748 -0.5151
10726SOL    HW149788  12.827   0.914   9.248 -1.6788  2.0699 -2.2986
10726SOL    HW249789  12.967   0.949   9.202 -0.1644 -1.2852 -0.5710
10727SOL     OW49790   8.335   6.964   3.265 -0.0222 -0.3476 -0.2882
10727SOL    HW149791   8.245   6.973   3.294  0.4381 -0.0709  1.1273
10727SOL    HW249792   8.365   6.882   3.304  0.2258 -0.6732 -1.1226
10728SOL     OW49793   8.568   7.715   1.681 -0.0161 -0.2859  0.1814
10728SOL    HW149794   8.572   7.768   1.601  0.6029  3.6114  2.5484
10728SOL    HW249795   8.660   7.701   1.705 -0.1169  1.1094  1.5908
10729SOL     OW49796  11.079   4.736  12.219  0.3810 -0.4667  0.2211
10729SOL    HW149797  11.015   4.752  12.289  2.2012 -1.7230  2.3055
10729SOL    HW249798  11.147   4.802  12.235  0.0921  0.2811 -1.4268
10730SOL     OW49799   7.398   8.792   2.774 -0.1785 -0.0530  0.3588
10730SOL    HW149800   7.360   8.763   2.857 -4.0285  1.0042 -0.8268
10730SOL    HW249801   7.390   8.887   2.776  1.2663  0.1206 -0.5876
10731SOL     OW49802   8.712  12.681   8.863  0.0431  0.4075  0.3702
10731SOL    HW149803   8.701  12.637   8.947 -0.8402  1.3145  0.7554
10731SOL    HW249804   8.653  12.756   8.867  1.7379  1.8510 -0.0985
10732SOL     OW49805   9.948   2.027   6.403  0.1194 -0.3092  0.2717
10732SOL    HW149806   9.882   2.093   6.384 -0.4608  0.1077  3.2742
10732SOL    HW249807  10.030   2.077   6.413  0.1141 -0.3376  0.4437
10733SOL     OW49808   0.470  12.607   1.743  0.1530  0.7997  0.0652
10733SOL    HW149809   0.395  12.556   1.711  1.5619 -1.4947  0.1636
10733SOL    HW249810   0.459  12.607   1.838  0.8184 -0.5524  0.1712
10734SOL     OW49811   9.832   7.302   4.829  0.0403 -0.4612  0.1615
10734SOL    HW149812   9.787   7.309   4.913  0.5245  2.1943  0.2671
10734SOL    HW249813   9.925   7.300   4.851  0.1595 -0.0325 -0.3035
10735SOL     OW49814  11.305  12.795   4.701 -1.0240  0.0097  0.8464
10735SOL    HW149815  11.308  12.701   4.720 -3.3309 -0.2239  0.3478
10735SOL    HW249816  11.268  12.835   4.780 -2.3913  0.1430  0.1677
10736SOL     OW49817   0.186  12.933   5.673  0.1194  0.5364  0.3042
10736SOL    HW149818   0.205  12.940   5.580 -1.4790  0.3325 -0.0599
10736SOL    HW249819   0.096  12.965   5.683  0.1756  0.3525  1.7366
10737SOL     OW49820   2.546  12.510   0.610  0.6896  0.0271  0.3919
10737SOL    HW149821   2.495  12.588   0.632  0.4219 -0.2316  0.7060
10737SOL    HW249822   2.528  12.494   0.517 -1.9031 -1.5495  1.0513
10738SOL     OW49823   7.010   6.479   4.024  0.5744 -0.6542 -0.3174
10738SOL    HW149824   7.092   6.434   4.004  1.2796 -0.7161  2.4094
10738SOL    HW249825   6.966   6.423   4.087 -0.7127  0.2700 -0.3513
10739SOL     OW49826   7.286  10.737  11.731  0.1304 -0.0426  0.1097
10739SOL    HW149827   7.375  10.723  11.765 -0.0795  0.3719  0.8629
10739SOL    HW249828   7.236  10.663  11.764 -0.4080  1.0979  1.9883
10740SOL     OW49829   7.410   3.424  10.899  0.2446  0.6046  0.2073
10740SOL    HW149830   7.397   3.509  10.941 -1.3125  1.0951 -1.1574
10740SOL    HW249831   7.334   3.372  10.925  0.3703  0.1857 -0.2429
10741SOL     OW49832   0.534   5.616   5.366 -0.8032 -0.2222  0.5375
10741SOL    HW149833   0.575   5.535   5.336 -0.1920 -0.9871  3.1903
10741SOL    HW249834   0.501   5.595   5.454 -3.2852  1.5646  0.1397
10742SOL     OW49835  13.502   8.132   2.868  0.5084 -0.6784  0.5615
10742SOL    HW149836  13.540   8.185   2.938 -0.0743  1.8074 -0.8639
10742SOL    HW249837  13.408   8.152   2.871  0.3521 -1.1865 -0.3612
10743SOL     OW49838   4.070   8.272   2.749 -0.1447 -0.2241  0.4655
10743SOL    HW149839   4.139   8.254   2.685 -0.3978  0.4338 -0.0060
10743SOL    HW249840   4.115   8.316   2.822  0.2317 -1.4400  0.9897
10744SOL     OW49841   0.191   5.458   7.013  0.4085  0.9158  0.2807
10744SOL    HW149842   0.282   5.468   6.985  0.5643  1.9458  1.0898
10744SOL    HW249843   0.164   5.546   7.040 -0.4335  0.3961  1.2217
10745SOL     OW49844  13.144   3.146   6.343 -0.2836  0.4513  0.3344
10745SOL    HW149845  13.108   3.234   6.345 -0.5529  0.3300  1.0150
10745SOL    HW249846  13.108   3.103   6.420 -0.8125 -0.5110 -0.4300
10746SOL     OW49847   6.622   0.811   9.709 -0.7270  0.3518  0.0191
10746SOL    HW149848   6.537   0.855   9.704 -0.1520  1.4081 -0.8083
10746SOL    HW249849   6.637   0.776   9.622 -0.9403 -1.0912  0.5330
10747SOL     OW49850   7.547   2.634   0.008 -0.0045 -0.2842  0.5210
10747SOL    HW149851   7.552   2.716   0.057 -0.1467 -0.2228  0.4331
10747SOL    HW249852   7.475   2.586   0.049 -0.2732 -0.1350  0.2259
10748SOL     OW49853   5.617   4.758  11.339 -0.3425  0.0559  0.0959
10748SOL    HW149854   5.657   4.744  11.426  1.4919 -0.2595 -0.7444
10748SOL    HW249855   5.623   4.852  11.326 -1.6544  0.2532  0.7476
10749SOL     OW49856   5.245   3.434   9.969  0.3528  0.1616  0.2636
10749SOL    HW149857   5.290   3.430   9.885 -1.4410 -0.4408 -0.7265
10749SOL    HW249858   5.297   3.378  10.027  1.9802  1.0994 -0.2222
10750SOL     OW49859   5.131   8.421   0.369 -0.0901  0.0702 -0.0333
10750SOL    HW149860   5.062   8.449   0.429  0.5472 -0.8652  1.1772
10750SOL    HW249861   5.089   8.356   0.313 -0.3565 -0.0009  0.2465
10751SOL     OW49862  11.871   5.091   8.337  0.0536  0.3311  0.1771
10751SOL    HW149863  11.824   5.045   8.268 -0.0030  0.3102  0.2295
10751SOL    HW249864  11.918   5.160   8.291  3.1946 -2.0220 -0.4850
10752SOL     OW49865   6.667  10.194   0.670  0.4298 -1.0148  0.4969
10752SOL    HW149866   6.625  10.279   0.686 -0.1226 -1.3858  1.0732
10752SOL    HW249867   6.750  10.216   0.628 -0.4144 -0.2582 -0.8776
10753SOL     OW49868   3.236   4.796   0.941 -0.0125  0.1647 -0.1112
10753SOL    HW149869   3.169   4.862   0.959 -0.6466 -0.1830 -1.1064
10753SOL    HW249870   3.189   4.712   0.944  0.5459 -0.1522 -0.0267
10754SOL     OW49871   0.820   5.478   9.383  0.5090  0.1748  0.1778
10754SOL    HW149872   0.783   5.539   9.319 -0.9019 -0.9872 -0.1828
10754SOL    HW249873   0.807   5.391   9.344 -0.1509 -0.5541  1.8967
10755SOL     OW49874  11.173   6.743   2.407 -0.1208 -0.0599  0.3900
10755SOL    HW149875  11.117   6.787   2.471  1.1317  0.1341  1.4005
10755SOL    HW249876  11.138   6.654   2.401 -2.0220  0.7043 -0.8752
10756SOL     OW49877   7.356  11.788   7.926  0.0241 -0.2142  0.0054
10756SOL    HW149878   7.404  11.737   7.860 -0.2829  0.8769 -1.0833
10756SOL    HW249879   7.404  11.870   7.934 -0.1536 -0.1777  0.8911
10757SOL     OW49880   1.091   8.242   5.026 -0.0609 -0.5387  0.0906
10757SOL    HW149881   1.017   8.233   4.966  0.1002  1.7927 -0.5829
10757SOL    HW249882   1.168   8.222   4.973 -0.0520 -0.4246  0.0590
10758SOL     OW49883  12.985  11.756   9.939  0.3541 -0.9192  0.1945
10758SOL    HW149884  13.000  11.713  10.024 -2.1731 -0.4890  0.9211
10758SOL    HW249885  12.960  11.846   9.962 -2.0447 -1.2607 -0.8686
10759SOL     OW49886   2.005   7.931   9.103 -0.5186  0.5090 -0.4622
10759SOL    HW149887   2.030   7.898   9.017  2.8822  1.2114  0.1161
10759SOL    HW249888   2.018   8.025   9.098  1.2206  0.4316  1.1298
10760SOL     OW49889  13.221   9.232  13.084  0.1174 -0.0871 -0.0311
10760SOL    HW149890  13.228   9.138  13.070 -0.4235 -0.1957  0.4191
10760SOL    HW249891  13.218   9.269  12.995  2.0636 -0.3338 -0.2522
10761SOL     OW49892   0.150  10.460  12.907 -0.2585  0.8467  0.6048
10761SOL    HW149893   0.131  10.538  12.959  0.0970  2.6551 -1.8232
10761SOL    HW249894   0.093  10.468  12.830  0.0651 -1.0937  0.1143
10762SOL     OW49895   0.365   7.086   1.602 -0.2927 -0.0886 -0.5257
10762SOL    HW149896   0.289   7.028   1.592  0.7022 -1.2227 -1.9653
10762SOL    HW249897   0.361   7.115   1.693 -2.2095 -0.4356 -0.4504
10763SOL     OW49898   8.203   0.284   3.454  0.0329 -0.2326  0.0282
10763SOL    HW149899   8.179   0.372   3.481  0.8861 -0.0353  0.1827
10763SOL    HW249900   8.295   0.276   3.478  0.6552 -0.3073 -2.1645
10764SOL     OW49901   9.905  13.318   0.261  0.4181  0.2969 -0.3564
10764SOL    HW149902   9.997  13.331   0.236  0.2435  0.1625 -1.1029
10764SOL    HW249903   9.885  13.392   0.318  1.0978  0.1211  0.1282
10765SOL     OW49904   7.489   2.028   0.317  0.1407 -0.1306 -0.2118
10765SOL    HW149905   7.505   2.099   0.254  0.4891  0.4144  0.4703
10765SOL    HW249906   7.561   2.035   0.379  0.1361 -1.0477 -0.0894
10766SOL     OW49907  10.011   7.672   2.464 -0.3076 -0.2676  0.2014
10766SOL    HW149908  10.092   7.719   2.483 -0.2856 -0.7411  1.3337
10766SOL    HW249909   9.976   7.648   2.550 -1.1955 -0.8339 -0.3022
10767SOL     OW49910   8.565   0.575   3.389 -0.5630 -0.0403  0.1937
10767SOL    HW149911   8.588   0.572   3.296 -0.7477  0.2466  0.1368
10767SOL    HW249912   8.608   0.654   3.421 -2.0264  0.8947 -0.0730
10768SOL     OW49913   1.978   8.336   0.246 -0.5330 -0.1409 -0.0237
10768SOL    HW149914   2.065   8.298   0.256  0.8097  2.9489  1.2888
10768SOL    HW249915   1.923   8.263   0.219  2.0807 -2.6092  0.8309
10769SOL     OW49916  11.503  12.191   4.796 -0.1241  0.7914  0.3135
10769SOL    HW149917  11.507  12.097   4.779 -0.7633  0.6754  0.8007
10769SOL    HW249918  11.470  12.229   4.715  1.6555  0.7843 -0.4676
10770SOL     OW49919   0.339   8.176   2.632 -0.6354  0.2264 -0.7297
10770SOL    HW149920   0.329   8.200   2.540 -0.5454 -0.0936 -0.8267
10770SOL    HW249921   0.402   8.238   2.668 -1.4784  1.0271 -0.6125
10771SOL     OW49922   4.635  11.890   8.563 -0.6507 -0.2051 -0.2239
10771SOL    HW149923   4.552  11.842   8.565 -0.1695 -1.0452  0.0344
10771SOL    HW249924   4.635  11.933   8.477 -0.5317 -1.7075 -1.0087
10772SOL     OW49925   6.649   0.526   1.951 -0.2296  0.8378  0.2851
10772SOL    HW149926   6.736   0.529   1.912 -0.6948  0.9792 -0.8056
10772SOL    HW249927   6.657   0.575   2.033  1.0411 -0.4094  0.9454
10773SOL     OW49928  12.753   2.891   5.415  0.5300 -0.1042  0.3697
10773SOL    HW149929  12.691   2.893   5.488  0.7439  1.9254  0.5515
10773SOL    HW249930  12.743   2.976   5.373  2.3005 -0.2079 -0.3552
10774SOL     OW49931   6.568   9.738  13.630 -0.4875 -0.0624 -0.6506
10774SOL    HW149932   6.616   9.783  13.561  0.8050 -0.9448 -0.3713
10774SOL    HW249933   6.523   9.807  13.678  0.9672  0.8770 -0.5945
10775SOL     OW49934   4.132  10.574  12.878 -0.1712 -0.1352  0.5286
10775SOL    HW149935   4.057  10.597  12.822 -0.7262 -2.5787  0.1425
10775SOL    HW249936   4.092  10.534  12.955  0.5796 -4.1799 -0.9121
10776SOL     OW49937   1.104   7.995   6.027  0.1953 -0.4476 -0.3078
10776SOL    HW149938   1.100   7.935   5.953  1.0754  1.1603 -1.7337
10776SOL    HW249939   1.197   8.009   6.043  0.0205  0.6919 -0.1670
10777SOL     OW49940  12.429  13.802  13.375  0.1607 -0.2808  0.2189
10777SOL    HW149941  12.455  13.781  13.464  0.5952 -0.7388 -0.0098
10777SOL    HW249942  12.483  13.745  13.320 -0.5706 -0.4877 -0.3044
10778SOL     OW49943   9.239  13.764  13.115  0.2091  0.5767  0.6645
10778SOL    HW149944   9.208  13.761  13.206  0.8102  0.2093  0.8621
10778SOL    HW249945   9.307  13.696  13.110 -0.6693 -0.2732 -0.3821
10779SOL     OW49946   3.144  12.311   0.415  0.5358  0.3726  0.4257
10779SOL    HW149947   3.189  12.349   0.490  1.2920 -0.9832  0.6832
10779SOL    HW249948   3.213  12.300   0.349  0.1980  0.0415  0.1274
10780SOL     OW49949  12.907   6.918   6.836  0.2748 -0.5907 -0.6835
10780SOL    HW149950  12.901   6.874   6.752  0.6006 -1.0018 -0.4955
10780SOL    HW249951  12.943   7.004   6.816 -2.7033  0.6350 -1.4048
10781SOL     OW49952   6.338  11.763  11.019  0.1042 -0.2900  0.7006
10781SOL    HW149953   6.398  11.701  10.979  0.6026 -0.4845  1.7142
10781SOL    HW249954   6.328  11.732  11.109  0.2091  0.9801  1.1705
10782SOL     OW49955   2.798   0.677   7.146  0.7198 -0.4391 -0.5501
10782SOL    HW149956   2.808   0.730   7.225 -0.0694  1.1641 -1.4804
10782SOL    HW249957   2.829   0.590   7.172  0.3082 -0.0170  1.5730
10783SOL     OW49958  11.589  12.853   7.114 -0.5223 -0.1032 -0.0186
10783SOL    HW149959  11.674  12.811   7.128 -0.2177  0.6172  0.3376
10783SOL    HW249960  11.592  12.884   7.024 -0.2442  0.2905  0.1255
10784SOL     OW49961   9.260   2.647   0.288 -0.5666 -0.1964  0.7250
10784SOL    HW149962   9.240   2.733   0.323 -0.7855 -0.5183  1.4135
10784SOL    HW249963   9.333   2.616   0.341 -1.1690 -0.8583  1.1954
10785SOL     OW49964   3.679   5.282   9.782 -0.3215  0.7822 -0.9880
10785SOL    HW149965   3.686   5.322   9.696 -1.4383 -0.0395 -1.4840
10785SOL    HW249966   3.677   5.188   9.765 -0.4331  0.6005 -0.0507
10786SOL     OW49967   0.194   4.682  11.269  0.1221  0.0052 -0.3485
10786SOL    HW149968   0.183   4.746  11.339  3.4002  0.5799 -0.1959
10786SOL    HW249969   0.187   4.597  11.313 -0.2653  0.3058  0.1890
10787SOL     OW49970   0.109   2.005   4.272 -0.1140 -0.2463  1.0490
10787SOL    HW149971   0.124   2.090   4.314  2.3259 -1.1767  2.2698
10787SOL    HW249972   0.067   1.952   4.340  1.8639 -1.1026  1.6712
10788SOL     OW49973   8.735  12.645  13.581  0.0092 -0.5165 -0.0615
10788SOL    HW149974   8.671  12.573  13.584 -0.7943  0.2057  0.7509
10788SOL    HW249975   8.710  12.696  13.504 -1.3728  0.6028  1.0735
10789SOL     OW49976   2.137   2.740   2.866 -0.0743  0.4127  0.5765
10789SOL    HW149977   2.046   2.711   2.873  0.5028 -1.5737  0.5594
10789SOL    HW249978   2.186   2.659   2.851  1.6001  1.5486 -0.3320
10790SOL     OW49979  12.735  13.289   9.424 -0.0321  0.7527 -0.5669
10790SOL    HW149980  12.815  13.263   9.379  0.1346 -2.2215  1.1683
10790SOL    HW249981  12.765  13.345   9.495  0.5164 -0.1161 -0.0963
10791SOL     OW49982   8.409   8.747  11.958  0.3648  0.1140 -0.5751
10791SOL    HW149983   8.330   8.800  11.947  1.2085  1.3094 -1.0887
10791SOL    HW249984   8.457   8.791  12.028 -0.0210 -1.3760  0.6814
10792SOL     OW49985   3.566   6.080   4.973  0.3281  0.5537  0.6770
10792SOL    HW149986   3.560   5.989   5.003 -0.7050  0.7651  1.1573
10792SOL    HW249987   3.643   6.081   4.915  1.8850 -0.0636  2.6225
10793SOL     OW49988   2.345  12.007   7.580 -0.0411 -0.2994  0.1528
10793SOL    HW149989   2.326  11.916   7.601  0.0676 -0.0205  1.5582
10793SOL    HW249990   2.328  12.014   7.486  1.6882 -2.2124 -0.3947
10794SOL     OW49991   3.566   4.042  10.262 -0.2461 -0.3148 -0.0261
10794SOL    HW149992   3.519   4.042  10.345  0.8137 -0.8306  0.5965
10794SOL    HW249993   3.540   3.960  10.220  1.7388 -1.7164  1.3218
10795SOL     OW49994  13.522   3.219   8.247 -0.1114 -0.2335 -0.0936
10795SOL    HW149995  13.427   3.216   8.236 -0.0459 -1.4755 -0.5452
10795SOL    HW249996  13.551   3.130   8.224  1.1758  0.1869 -0.1664
10796SOL     OW49997   4.314   8.885  12.753 -0.3834  0.4221  0.0687
10796SOL    HW149998   4.366   8.901  12.674  1.1708 -1.1559  0.7139
10796SOL    HW249999   4.242   8.831  12.723 -2.3219  3.3452 -1.0041
10797SOL     OW50000  12.010   6.494   4.855  0.0804 -0.1503  0.0466
10797SOL    HW150001  12.051   6.514   4.770  0.4905 -0.2790  0.2135
10797SOL    HW250002  12.046   6.408   4.879 -0.6026 -0.4547  0.0005
10798SOL     OW50003  13.396  12.274   6.731 -0.6655  0.4185  0.3433
10798SOL    HW150004  13.330  12.206   6.744 -1.9358  1.5848  0.2773
10798SOL    HW250005  13.422  12.300   6.819 -1.7354  1.2606  0.4408
10799SOL     OW50006   0.634   7.161   7.960 -0.6153  0.2435 -0.3259
10799SOL    HW150007   0.577   7.208   8.021 -0.6431 -0.1918 -0.0128
10799SOL    HW250008   0.579   7.146   7.883 -1.3124 -1.1970  0.4178
10800SOL     OW50009  12.551   6.523   5.515  0.0500 -0.1136 -0.5521
10800SOL    HW150010  12.596   6.608   5.521  0.2430 -0.2784  0.6566
10800SOL    HW250011  12.478   6.531   5.577 -0.9166 -0.2668 -1.6381
10801SOL     OW50012   1.514   0.766  11.809  0.5899 -0.3201  0.2506
10801SOL    HW150013   1.476   0.853  11.802  0.6980 -0.0930  2.0312
10801SOL    HW250014   1.511   0.731  11.720  0.6927  1.5427 -0.5301
10802SOL     OW50015   1.741  11.314  10.439  0.1991 -0.0822  0.1931
10802SOL    HW150016   1.668  11.251  10.438 -0.6878  0.9019  0.4146
10802SOL    HW250017   1.754  11.336  10.347 -0.6200  0.6453  0.2382
10803SOL     OW50018   3.482  10.205   7.687  0.2312  0.3694  0.4750
10803SOL    HW150019   3.508  10.260   7.613  0.1615  0.6967  0.6928
10803SOL    HW250020   3.528  10.122   7.673  0.6543  0.6212  0.3583
10804SOL     OW50021   3.058  13.689   4.982 -0.0558 -0.2564 -0.1028
10804SOL    HW150022   3.119  13.628   5.023 -0.0662 -0.2617 -0.0948
10804SOL    HW250023   3.107  13.772   4.977 -0.3332 -0.0389  0.6517
10805SOL     OW50024   9.656   1.262   1.393 -0.9997 -0.1429 -0.4737
10805SOL    HW150025   9.604   1.182   1.392  1.0591 -1.5711 -2.7981
10805SOL    HW250026   9.641   1.301   1.307  0.2083  0.4563 -0.4347
10806SOL     OW50027  13.811   7.639   8.074  0.0178 -0.0133  0.1405
10806SOL    HW150028  13.840   7.629   8.164  0.0889 -0.0939  0.1087
10806SOL    HW250029  13.778   7.552   8.050 -0.2632  0.0818  0.1828
10807SOL     OW50030  11.697   0.178   9.217  0.6599 -0.4998 -0.3649
10807SOL    HW150031  11.732   0.264   9.192  2.0704 -0.6686  0.8717
10807SOL    HW250032  11.656   0.145   9.138 -0.5894  1.6065 -0.6953
10808SOL     OW50033   2.945   3.989  11.055  0.0176 -0.0589  0.4791
10808SOL    HW150034   2.880   4.029  11.112 -0.1889  1.6442 -0.8502
10808SOL    HW250035   3.027   4.033  11.078 -0.2048  1.1858 -0.9836
10809SOL     OW50036   1.879   7.917  14.016  0.1164 -0.0889  0.1521
10809SOL    HW150037   1.852   7.973  13.943  0.8279 -0.4005 -0.3589
10809SOL    HW250038   1.949   7.862  13.980  0.4559 -0.2718  1.0584
10810SOL     OW50039  10.679   5.072   4.260 -0.5113  0.7697 -0.5674
10810SOL    HW150040  10.686   5.158   4.302 -1.2670  0.7087 -0.2887
10810SOL    HW250041  10.597   5.078   4.210  0.1011  0.6538 -1.5924
10811SOL     OW50042  12.975   4.233   7.613 -0.0515 -0.0817 -0.2610
10811SOL    HW150043  12.891   4.258   7.651 -0.2769 -1.5613  0.2901
10811SOL    HW250044  13.022   4.188   7.684  0.5063 -0.7542 -1.0237
10812SOL     OW50045   3.747   5.352   9.518 -0.4065 -0.0172 -0.6139
10812SOL    HW150046   3.841   5.338   9.513 -0.4866 -0.7964 -0.0427
10812SOL    HW250047   3.710   5.299   9.447 -0.4541 -0.0721 -0.5481
10813SOL     OW50048   4.203   3.696   3.263 -0.6636 -0.2499  0.2514
10813SOL    HW150049   4.182   3.665   3.175  0.4832  1.3828 -0.6569
10813SOL    HW250050   4.161   3.782   3.269 -0.1580 -0.0456  1.0358
10814SOL     OW50051   1.014   9.769   6.774  0.1762 -0.6845 -0.2282
10814SOL    HW150052   1.079   9.715   6.728  0.5215  0.3611 -1.0008
10814SOL    HW250053   1.066   9.817   6.839  0.1680  0.0478 -0.7517
10815SOL     OW50054  13.605   9.076   6.489  0.4040 -0.2256  0.5744
10815SOL    HW150055  13.586   9.020   6.564 -0.6609 -0.6517  0.0096
10815SOL    HW250056  13.542   9.147   6.495  0.0838 -0.4457 -0.1031
10816SOL     OW50057   8.414   1.932   8.994 -0.6898 -0.9205  0.9581
10816SOL    HW150058   8.384   2.013   8.954 -0.1823 -1.2434 -0.1153
10816SOL    HW250059   8.433   1.874   8.920  0.6717 -1.3956  1.6470
10817SOL     OW50060   6.204   2.837   3.031 -0.3020  0.3288  0.2414
10817SOL    HW150061   6.257   2.829   3.110 -1.0712  0.2014  0.7498
10817SOL    HW250062   6.212   2.751   2.989 -2.0256 -0.5321  1.5559
10818SOL     OW50063   6.301   0.594   2.149  0.7846  0.0552  0.3854
10818SOL    HW150064   6.321   0.576   2.240  2.2501 -2.3454 -0.3078
10818SOL    HW250065   6.346   0.676   2.129 -0.2520  1.0451  1.9963
10819SOL     OW50066  13.433   6.407   5.319  0.0437 -0.6031  0.0637
10819SOL    HW150067  13.455   6.320   5.284  0.4061 -0.4915  0.0028
10819SOL    HW250068  13.459   6.468   5.250  1.7576 -0.3042  0.9135
10820SOL     OW50069   2.642  13.411   5.810  0.0609 -0.1981 -0.0285
10820SOL    HW150070   2.675  13.463   5.883 -2.1061  0.3101  0.6763
10820SOL    HW250071   2.641  13.472   5.736  0.1154 -0.0473  0.0942
10821SOL     OW50072   5.555   0.390   3.673 -0.1173 -0.1963  0.1789
10821SOL    HW150073   5.510   0.399   3.589  1.9020  0.4460 -0.9126
10821SOL    HW250074   5.579   0.297   3.678 -1.6890 -0.5998  0.8915
10822SOL     OW50075  11.122   5.695   5.515 -0.4624 -0.2822 -0.5620
10822SOL    HW150076  11.095   5.679   5.605 -0.8311 -1.8295 -0.9347
10822SOL    HW250077  11.114   5.790   5.505  1.6260  0.2191  1.6658
10823SOL     OW50078   7.780   7.591   9.968  0.2366  0.0261 -0.0056
10823SOL    HW150079   7.693   7.565   9.999 -0.2590  0.8387 -0.6688
10823SOL    HW250080   7.809   7.517   9.915  0.8178 -1.1017  1.7954
10824SOL     OW50081   3.363   7.830   3.287  0.0297 -0.1010 -0.0807
10824SOL    HW150082   3.315   7.829   3.370 -0.7139 -1.0979 -0.4950
10824SOL    HW250083   3.445   7.785   3.306  0.4730  0.9066  0.4433
10825SOL     OW50084   5.100  12.921  13.515  0.2446 -0.5416  0.4229
10825SOL    HW150085   5.155  12.950  13.587  0.2211  0.5310  0.0200
10825SOL    HW250086   5.084  12.999  13.463 -0.8975 -1.0190  0.0163
10826SOL     OW50087  12.348   3.564   2.066 -0.1231 -0.2370  0.8201
10826SOL    HW150088  12.275   3.621   2.042 -0.7399 -1.5850 -0.6984
10826SOL    HW250089  12.309   3.477   2.073  1.3327 -0.9893 -0.0416
10827SOL     OW50090  12.338   5.693  12.385  0.3224  0.5983 -0.0412
10827SOL    HW150091  12.316   5.778  12.423 -0.8421 -0.0677  0.8582
10827SOL    HW250092  12.415   5.665  12.434 -0.1105  0.5401  0.6207
10828SOL     OW50093   9.647  13.902   6.328  0.0866 -0.3679 -0.3539
10828SOL    HW150094   9.589  13.832   6.360  0.5348  0.1626  1.7777
10828SOL    HW250095   9.592  13.955   6.271 -0.6891 -1.5600 -0.7454
10829SOL     OW50096   9.215   5.338   6.756 -0.1568  0.3131  0.2928
10829SOL    HW150097   9.179   5.285   6.685  0.4839  0.3203 -0.0434
10829SOL    HW250098   9.262   5.275   6.811 -0.2366  0.3846  0.4453
10830SOL     OW50099   0.159   3.624   8.995  0.2646  0.2351  0.0215
10830SOL    HW150100   0.139   3.543   9.042  0.1608  0.1486 -0.1731
10830SOL    HW250101   0.151   3.693   9.062  1.4682 -0.0251  0.4631
10831SOL     OW50102   1.230   8.931   8.412 -0.2037  0.4251  0.0097
10831SOL    HW150103   1.209   8.930   8.505 -0.7480 -0.8440 -0.0978
10831SOL    HW250104   1.324   8.946   8.408  0.0654 -0.8654  0.8540
10832SOL     OW50105   0.553   4.945   7.777 -0.7245  0.0531  0.0218
10832SOL    HW150106   0.548   4.890   7.698  2.7288  0.0615 -0.3425
10832SOL    HW250107   0.608   4.895   7.837 -1.3266  1.1173  1.5023
10833SOL     OW50108  11.434   8.585  12.698  0.0763 -0.3692 -0.1723
10833SOL    HW150109  11.352   8.574  12.650  0.7630  0.3044 -1.5604
10833SOL    HW250110  11.441   8.507  12.752 -1.0930 -0.8035 -0.6130
10834SOL     OW50111  10.303   5.868   1.186  0.5752 -0.1405 -0.2732
10834SOL    HW150112  10.267   5.892   1.100  1.2383  0.9587 -0.2604
10834SOL    HW250113  10.309   5.950   1.233  0.2169 -0.7406  0.8459
10835SOL     OW50114  12.274   4.126   0.073  0.3194 -0.0901  0.1112
10835SOL    HW150115  12.358   4.115   0.119 -0.7336 -0.3601  2.0734
10835SOL    HW250116  12.288   4.201   0.016  2.0512 -0.4483 -0.0085
10836SOL     OW50117   2.152   2.885  13.968  0.3109 -0.3452 -0.3419
10836SOL    HW150118   2.081   2.835  14.009 -0.6520  1.1785 -0.0683
10836SOL    HW250119   2.113   2.920  13.888  0.9835 -0.0858 -0.5577
10837SOL     OW50120   1.478   8.733   1.187 -0.4872 -0.0843 -0.5049
10837SOL    HW150121   1.441   8.785   1.116  3.3251  2.1442 -1.1324
10837SOL    HW250122   1.551   8.685   1.147 -0.1847 -1.2492  1.2929
10838SOL     OW50123   4.767   4.405   1.298  0.0515 -0.0992 -0.3312
10838SOL    HW150124   4.748   4.425   1.206  0.8231 -0.0559 -0.4932
10838SOL    HW250125   4.690   4.435   1.346 -0.1581  0.3260 -0.9198
10839SOL     OW50126   1.139   7.470  12.292 -0.1009  0.2761 -0.1760
10839SOL    HW150127   1.224   7.450  12.254  0.3886  2.8763 -0.6380
10839SOL    HW250128   1.079   7.472  12.217 -0.2526  0.0023 -0.0633
10840SOL     OW50129   5.492   2.563   3.791 -0.2217 -0.4078  0.0287
10840SOL    HW150130   5.502   2.468   3.786 -1.2852 -0.5330 -0.0514
10840SOL    HW250131   5.580   2.598   3.780  0.2282 -1.3995  0.4179
10841SOL     OW50132   4.301   6.488  13.815  0.3060 -0.0808  0.0483
10841SOL    HW150133   4.306   6.529  13.902 -2.0698  1.2921 -0.3758
10841SOL    HW250134   4.212   6.507  13.785  0.2292 -2.7177 -1.6522
10842SOL     OW50135   2.203   9.256  13.941  0.0391  0.2744  0.0340
10842SOL    HW150136   2.165   9.237  14.027 -0.5556  2.6455  0.3453
10842SOL    HW250137   2.142   9.217  13.878 -0.0157 -0.6506  0.6333
10843SOL     OW50138   4.421  13.210  13.552 -0.1739 -0.5080 -0.0779
10843SOL    HW150139   4.501  13.209  13.605  0.2791 -0.6866 -0.7543
10843SOL    HW250140   4.351  13.190  13.614  0.2456  0.1493  0.6176
10844SOL     OW50141  10.912   2.712   8.836 -0.4968  0.3345  0.0810
10844SOL    HW150142  10.895   2.681   8.747  2.5366 -1.3334 -0.0250
10844SOL    HW250143  10.876   2.644   8.892 -0.9053  0.5609  0.0978
10845SOL     OW50144   7.243   1.319   0.661  0.7051  0.1610  0.1408
10845SOL    HW150145   7.282   1.253   0.719  1.1258 -0.3933 -0.7409
10845SOL    HW250146   7.245   1.400   0.711 -0.2137 -0.5648  1.4218
10846SOL     OW50147   7.758  12.309   0.835 -0.2679  0.2476 -0.2075
10846SOL    HW150148   7.666  12.289   0.818  0.1337 -1.2923 -0.7704
10846SOL    HW250149   7.765  12.404   0.824 -1.7995  0.4048 -0.0148
10847SOL     OW50150  10.047   9.683   2.125  0.4937  0.0410 -0.1579
10847SOL    HW150151  10.017   9.692   2.216  1.8886  0.7496  0.2621
10847SOL    HW250152  10.029   9.768   2.085  1.3459  0.2840 -0.0590
10848SOL     OW50153   4.133  10.960   8.168 -0.6593 -0.4160  0.2508
10848SOL    HW150154   4.199  10.942   8.101 -1.1722  0.2997 -0.4630
10848SOL    HW250155   4.120  10.876   8.211  2.3807 -0.1403  1.9931
10849SOL     OW50156   7.971   7.536   4.940  0.4150  0.3568  0.4045
10849SOL    HW150157   7.892   7.536   4.993  0.6102 -0.3424  0.6988
10849SOL    HW250158   8.022   7.462   4.972  0.8784  0.3850 -0.2458
10850SOL     OW50159   8.573  12.035   6.698  0.0368 -0.0858  0.3168
10850SOL    HW150160   8.496  12.017   6.752  0.8967  0.2527  1.7137
10850SOL    HW250161   8.545  12.106   6.640 -0.9056 -0.4380  0.3107
10851SOL     OW50162   5.811   1.127  12.358 -0.4661 -0.3359 -0.0106
10851SOL    HW150163   5.728   1.118  12.403 -0.5543 -0.0189 -0.1109
10851SOL    HW250164   5.790   1.110  12.266 -0.2675 -1.0929  0.0720
10852SOL     OW50165   9.836   3.519   8.525  0.3088  0.0750 -0.2366
10852SOL    HW150166   9.832   3.541   8.618  0.3872  0.6224 -0.3553
10852SOL    HW250167   9.772   3.578   8.484  0.3039 -0.1337 -0.5322
10853SOL     OW50168   9.658   3.221  13.389  0.1151 -0.2780 -0.3262
10853SOL    HW150169   9.704   3.201  13.307  0.3392 -0.4329 -0.1631
10853SOL    HW250170   9.727   3.225  13.455 -0.0301  0.1555 -0.1972
10854SOL     OW50171  12.052  11.092   5.025 -1.2791  0.0898  0.1475
10854SOL    HW150172  11.985  11.031   5.055 -1.3257  0.4829  0.8782
10854SOL    HW250173  12.003  11.159   4.976 -0.9868 -1.6745 -2.7824
10855SOL     OW50174   9.406   6.849  13.116 -0.2708 -0.0715  0.1172
10855SOL    HW150175   9.467   6.826  13.045 -0.1583 -0.5455  0.3607
10855SOL    HW250176   9.461   6.891  13.182  0.0797 -1.7193  0.9428
10856SOL     OW50177   5.522   9.718   2.575 -0.0081  0.2910 -0.0313
10856SOL    HW150178   5.504   9.637   2.527  0.1331  0.4717 -0.3953
10856SOL    HW250179   5.591   9.695   2.636  0.6309  0.3435 -0.7230
10857SOL     OW50180   7.812  13.175  12.215 -0.1770  0.1947 -0.3642
10857SOL    HW150181   7.826  13.116  12.141 -1.5294 -0.2030 -0.3243
10857SOL    HW250182   7.868  13.141  12.284 -2.3500 -2.3205  0.3295
10858SOL     OW50183   7.265  12.044   9.249 -0.2062 -0.4383 -0.1747
10858SOL    HW150184   7.199  11.987   9.288  1.6106 -1.9040  0.9048
10858SOL    HW250185   7.321  11.986   9.198  0.8794  0.5927 -0.2081
10859SOL     OW50186  10.302   1.566  13.032 -0.2445 -0.2631  0.0643
10859SOL    HW150187  10.379   1.579  13.087  0.6925  2.7517 -1.7037
10859SOL    HW250188  10.230   1.603  13.083  0.5809  2.3493 -0.4738
10860SOL     OW50189   3.746  12.469   5.060 -0.1208 -0.0772 -0.0368
10860SOL    HW150190   3.784  12.552   5.032 -0.7053 -0.4826 -2.1907
10860SOL    HW250191   3.817  12.405   5.053 -0.0398 -0.0268  0.2888
10861SOL     OW50192  12.339   3.578   7.644  0.2114  0.1656  0.1837
10861SOL    HW150193  12.418   3.627   7.622 -0.7870  2.1538  0.8104
10861SOL    HW250194  12.352   3.553   7.735 -0.0216  0.8242  0.4051
10862SOL     OW50195  12.856  10.194   8.107 -0.2441 -0.4767  0.0770
10862SOL    HW150196  12.790  10.263   8.107 -1.1376 -1.2708 -1.1330
10862SOL    HW250197  12.816  10.123   8.055  1.0107 -1.5233  0.4868
10863SOL     OW50198  11.378  12.066   4.210  0.1023 -0.0805 -0.5948
10863SOL    HW150199  11.340  12.027   4.131 -0.5912 -0.5970 -0.0163
10863SOL    HW250200  11.465  12.094   4.183  0.3991 -1.5035 -1.1861
10864SOL     OW50201  13.105   7.980   6.772  0.0326 -0.8782 -0.4376
10864SOL    HW150202  13.126   7.935   6.690 -0.0241 -3.0793  0.6955
10864SOL    HW250203  13.169   7.946   6.835  0.5873  1.3613  0.3081
10865SOL     OW50204   9.496   1.010   6.710 -0.7145  0.1323  0.5931
10865SOL    HW150205   9.559   0.988   6.642 -0.7269  1.1279  0.2555
10865SOL    HW250206   9.547   1.052   6.778 -1.0792  1.4404  0.0796
10866SOL     OW50207   3.109   9.164   6.867 -0.4144 -0.0477 -0.6613
10866SOL    HW150208   3.089   9.218   6.943  0.0475  1.0226 -1.2797
10866SOL    HW250209   3.204   9.148   6.872 -0.1800  0.9401 -1.5675
10867SOL     OW50210  10.640  13.444   0.384  0.0653  0.1150  0.3976
10867SOL    HW150211  10.593  13.495   0.317  1.5619 -0.7234 -1.3987
10867SOL    HW250212  10.585  13.366   0.397 -0.8798  0.8916  1.1273
10868SOL     OW50213   9.383   4.458   3.712  0.1786  0.9912  0.1996
10868SOL    HW150214   9.445   4.449   3.640  0.4251  1.1724  0.3902
10868SOL    HW250215   9.297   4.463   3.669  0.0836 -1.2626  0.0133
10869SOL     OW50216  11.755   4.984  11.794  0.2163 -0.6187 -0.1053
10869SOL    HW150217  11.742   4.959  11.702  1.8753 -1.3401 -0.1770
10869SOL    HW250218  11.691   5.053  11.809  1.4394  1.2078 -2.5208
10870SOL     OW50219  13.607   3.828  11.430  0.1563 -0.2075 -0.4880
10870SOL    HW150220  13.516   3.855  11.418  0.2740  0.5142  0.1556
10870SOL    HW250221  13.610   3.737  11.400 -0.7913 -0.2652 -0.4175
10871SOL     OW50222   6.659  13.043   4.635 -0.1342  0.4687  0.1887
10871SOL    HW150223   6.569  13.075   4.629  0.3935  1.9550 -0.1299
10871SOL    HW250224   6.669  12.987   4.558 -1.0761 -0.5106  0.7585
10872SOL     OW50225  12.824  12.134   9.101  0.0658  0.4137 -0.0292
10872SOL    HW150226  12.918  12.141   9.119  0.0595  0.2525  0.0746
10872SOL    HW250227  12.785  12.203   9.154  0.1165  0.4090  0.0151
10873SOL     OW50228  12.173   0.023   3.332  0.5497 -0.0186  0.1082
10873SOL    HW150229  12.117   0.073   3.392  0.0886  0.9931 -1.1372
10873SOL    HW250230  12.221   0.088   3.283  1.0676 -0.8403 -0.4974
10874SOL     OW50231  10.247  13.582   2.011  0.1670  0.3886  0.1081
10874SOL    HW150232  10.190  13.615   2.080  1.3601  0.6163  1.0193
10874SOL    HW250233  10.333  13.572   2.053  0.5106 -1.1687 -0.8865
10875SOL     OW50234   2.559   9.645   9.541  0.2063 -0.1598  0.3533
10875SOL    HW150235   2.484   9.705   9.549 -0.3441 -0.8386  0.3639
10875SOL    HW250236   2.573   9.612   9.630 -0.2144 -0.8989  0.1527
10876SOL     OW50237   2.631   9.753   1.153  0.0591 -0.1725  0.3391
10876SOL    HW150238   2.587   9.708   1.225 -0.1921  0.0187  0.3074
10876SOL    HW250239   2.639   9.844   1.181 -1.5084  0.2779 -0.5035
10877SOL     OW50240  10.412  11.779  12.848  0.0543  0.0094 -0.2935
10877SOL    HW150241  10.362  11.787  12.767  1.1638 -2.4538 -1.3313
10877SOL    HW250242  10.461  11.697  12.838  0.0194 -0.5521  3.0026
10878SOL     OW50243  11.133   3.202   3.379 -0.0716  0.2592 -0.0262
10878SOL    HW150244  11.083   3.282   3.396  1.6170  1.4537 -0.3473
10878SOL    HW250245  11.086   3.159   3.308 -0.3825  1.5988 -0.6619
10879SOL     OW50246   0.094   3.432   9.170 -0.2862 -0.3579 -0.7135
10879SOL    HW150247   0.027   3.452   9.235 -0.6513 -0.1071 -1.1645
10879SOL    HW250248   0.118   3.341   9.188  1.5533  0.4485  1.4972
10880SOL     OW50249   2.715   7.350   4.770 -0.0610  0.1549  0.1665
10880SOL    HW150250   2.637   7.348   4.827 -0.9318 -0.1001 -1.0024
10880SOL    HW250251   2.787   7.327   4.828 -0.9650 -0.3747  1.1188
10881SOL     OW50252  11.528  10.833   7.349 -0.3981  0.0123  0.4695
10881SOL    HW150253  11.467  10.892   7.305 -0.7836 -0.5636  0.2196
10881SOL    HW250254  11.477  10.754   7.366  0.8090 -1.2989 -1.5973
10882SOL     OW50255   8.885   0.283   2.777 -0.1370 -0.2293 -0.3028
10882SOL    HW150256   8.927   0.316   2.698 -1.6359 -0.9391 -1.4523
10882SOL    HW250257   8.800   0.327   2.779 -0.6836 -1.2550  0.1220
10883SOL     OW50258   3.571   8.517   3.207 -0.4603  0.5249 -0.0934
10883SOL    HW150259   3.505   8.531   3.139 -0.8351 -1.0435 -0.1070
10883SOL    HW250260   3.530   8.547   3.288 -1.1181 -0.1787 -0.1475
10884SOL     OW50261   1.490  11.175   8.104 -0.2703 -0.0052 -0.1280
10884SOL    HW150262   1.504  11.092   8.057 -1.8483  0.2028 -1.0539
10884SOL    HW250263   1.401  11.201   8.079 -0.1564  1.4817  0.9244
10885SOL     OW50264   8.909   5.810   2.408 -0.2835  0.3426 -0.2414
10885SOL    HW150265   8.971   5.793   2.337 -0.3656  1.9256 -0.7107
10885SOL    HW250266   8.825   5.821   2.365 -0.8584 -1.3506  0.3610
10886SOL     OW50267   1.979   0.053   2.934  0.3888 -1.0071  0.0041
10886SOL    HW150268   1.983   0.032   2.840 -1.7736 -0.3972 -0.2991
10886SOL    HW250269   2.052   0.112   2.948 -0.2249  0.2796 -1.7489
10887SOL     OW50270  13.121   4.408   9.931 -0.5740  0.6805 -0.6396
10887SOL    HW150271  13.121   4.460  10.012  1.8584 -0.7255  0.3639
10887SOL    HW250272  13.092   4.321   9.959 -1.1667  0.5575 -1.5974
10888SOL     OW50273   8.013   2.685   2.179  0.0380  0.5680  0.0771
10888SOL    HW150274   7.920   2.673   2.193  0.1091 -0.8028 -0.4830
10888SOL    HW250275   8.037   2.618   2.115  1.0655  2.0475 -1.1538
10889SOL     OW50276   9.570   1.084  11.555 -0.0977  0.0239 -0.7511
10889SOL    HW150277   9.587   0.990  11.545  0.2276  0.2513 -2.5849
10889SOL    HW250278   9.603   1.105  11.642  1.1706 -1.2749 -0.8802
10890SOL     OW50279  13.252   9.009  10.317 -0.1410 -0.1224 -0.1350
10890SOL    HW150280  13.178   9.044  10.367 -0.4602 -2.0991  0.8602
10890SOL    HW250281  13.325   9.007  10.379  0.2350  0.0117 -0.5662
10891SOL     OW50282  12.368   5.467   6.367  0.1382  0.3520 -0.7623
10891SOL    HW150283  12.412   5.514   6.296 -0.0388 -0.2298 -1.2583
10891SOL    HW250284  12.437   5.451   6.432  0.7857 -0.9482 -1.7297
10892SOL     OW50285   6.053   0.770   4.574  0.5609  0.1548 -0.4982
10892SOL    HW150286   5.999   0.753   4.497 -0.9488  1.1484  0.2920
10892SOL    HW250287   6.096   0.686   4.592 -0.3604 -0.5377 -1.4096
10893SOL     OW50288   4.228  11.094   0.451  0.7308  0.0837 -0.8058
10893SOL    HW150289   4.166  11.122   0.383 -1.4192 -0.1721  0.9180
10893SOL    HW250290   4.237  11.000   0.437 -2.0377 -0.5514  0.8805
10894SOL     OW50291   3.213   0.619  10.149 -0.0165 -0.3354  0.1214
10894SOL    HW150292   3.251   0.532  10.160  0.2301 -0.2932 -0.3564
10894SOL    HW250293   3.121   0.603  10.127  0.0458 -0.4771 -0.0322
10895SOL     OW50294   5.672  12.880   4.093 -0.2759 -0.3118  0.3617
10895SOL    HW150295   5.696  12.935   4.018 -0.9227  0.9375  1.0549
10895SOL    HW250296   5.642  12.941   4.159 -2.1518 -1.5733  0.7338
10896SOL     OW50297   4.992  13.057  12.572  0.2177  0.4857  0.3556
10896SOL    HW150298   5.082  13.070  12.603  0.5561 -0.8376  0.0096
10896SOL    HW250299   4.978  12.962  12.578 -1.1831  0.6688  0.4618
10897SOL     OW50300  12.228  12.912  10.365 -0.1509 -0.2311  0.1783
10897SOL    HW150301  12.304  12.954  10.324  0.0694 -1.6793 -0.9554
10897SOL    HW250302  12.223  12.826  10.324 -1.3575 -0.8377  1.5271
10898SOL     OW50303   0.058   3.948   1.464  0.3894 -0.4650  0.6661
10898SOL    HW150304   0.126   3.893   1.426  1.3075  0.4963  0.8831
10898SOL    HW250305   0.033   3.903   1.545 -0.2587 -1.5522 -0.1148
10899SOL     OW50306   3.259   5.269  10.609 -0.2815  0.4541 -0.4942
10899SOL    HW150307   3.294   5.263  10.521 -3.6520 -0.6345 -1.9059
10899SOL    HW250308   3.320   5.216  10.662  2.0060  1.4034 -1.9904
10900SOL     OW50309   4.156   5.018   6.648  0.2257 -0.3807 -0.3758
10900SOL    HW150310   4.196   4.933   6.667 -0.6004 -0.5669  0.5568
10900SOL    HW250311   4.062   5.001   6.647  0.1027 -0.1304 -3.4043
10901SOL     OW50312   1.825   3.008   6.843 -0.0624 -0.0256 -0.6038
10901SOL    HW150313   1.909   2.992   6.800 -0.9006  0.1371 -2.4009
10901SOL    HW250314   1.761   2.965   6.787 -1.2297  0.2157  0.4985
10902SOL     OW50315  11.487   9.480   4.396  0.4208 -0.1301 -0.0712
10902SOL    HW150316  11.516   9.549   4.336  0.5066 -0.1182 -0.0155
10902SOL    HW250317  11.563   9.422   4.404  0.3768 -0.1852 -0.0516
10903SOL     OW50318   2.372   2.214   7.546  0.2767 -0.3992 -0.1552
10903SOL    HW150319   2.439   2.249   7.605  1.6191 -0.0021 -1.8153
10903SOL    HW250320   2.356   2.126   7.578  0.0586  0.2078  1.5055
10904SOL     OW50321   1.554  12.179   6.229 -0.3657  0.6317  0.6249
10904SOL    HW150322   1.561  12.084   6.234  0.4066  0.5915 -0.8338
10904SOL    HW250323   1.642  12.210   6.253  0.6635  0.7605 -2.8084
10905SOL     OW50324   2.925   4.723   4.507 -0.0152  0.5771 -0.4480
10905SOL    HW150325   2.880   4.742   4.424  0.2667 -0.1155 -0.7653
10905SOL    HW250326   2.880   4.646   4.541  0.4413  0.3386 -0.3867
10906SOL     OW50327   6.763  10.535  10.669  0.3548  0.0873 -0.2035
10906SOL    HW150328   6.699  10.521  10.740  0.1219 -0.1223 -0.4521
10906SOL    HW250329   6.719  10.501  10.591  0.7445  0.0148 -0.3894
10907SOL     OW50330   0.923  13.808   7.883 -0.2348  0.0654  0.0313
10907SOL    HW150331   0.899  13.810   7.976 -0.6392  1.1200 -0.0906
10907SOL    HW250332   0.852  13.855   7.839  0.9460  1.3069 -0.5932
10908SOL     OW50333   0.454   8.285   6.042 -0.9711 -0.3107  0.1505
10908SOL    HW150334   0.414   8.204   6.074 -0.8688  0.1738  1.5413
10908SOL    HW250335   0.392   8.354   6.067 -1.3981  0.0176 -1.6160
10909SOL     OW50336   9.491   1.899   8.740 -0.0286 -0.0712  0.2981
10909SOL    HW150337   9.547   1.821   8.745 -1.1243 -0.9285 -0.2807
10909SOL    HW250338   9.442   1.888   8.658  0.5833  1.7897 -0.3768
10910SOL     OW50339  13.952  12.024  10.929 -0.4512 -0.1133  0.5650
10910SOL    HW150340  13.920  12.070  10.852 -1.7485 -1.1507  0.4447
10910SOL    HW250341  13.926  12.079  11.003 -3.5355 -1.3533  0.5469
10911SOL     OW50342   6.135   6.184   1.803  0.3788  0.4896  0.0171
10911SOL    HW150343   6.222   6.222   1.799  0.9740 -0.8498 -0.5494
10911SOL    HW250344   6.076   6.255   1.775  1.2322  1.5137  0.7713
10912SOL     OW50345   5.181   9.293   4.649 -0.5789 -0.2111  0.0158
10912SOL    HW150346   5.119   9.366   4.649 -0.8472 -0.4301 -0.3562
10912SOL    HW250347   5.200   9.278   4.556  0.5204  0.2543  0.1583
10913SOL     OW50348  11.704  10.715  13.239  0.4173  0.5783 -0.5238
10913SOL    HW150349  11.680  10.651  13.172 -0.3149 -0.2319  0.4624
10913SOL    HW250350  11.769  10.670  13.293  1.4516  1.4377 -1.0200
10914SOL     OW50351   2.056   6.467   7.780 -0.2559  0.2468  0.0181
10914SOL    HW150352   2.026   6.408   7.848 -1.2239  1.2845  0.5105
10914SOL    HW250353   2.136   6.426   7.747 -1.1483 -1.5811  0.0001
10915SOL     OW50354  10.494   6.479   1.667 -0.1927  0.3174 -0.2668
10915SOL    HW150355  10.512   6.474   1.760  1.3984  0.0465 -0.5542
10915SOL    HW250356  10.557   6.543   1.633 -0.0116 -0.3789 -1.3104
10916SOL     OW50357   8.534  14.001   1.329 -0.1618 -0.2388 -0.5528
10916SOL    HW150358   8.505  13.916   1.362  2.4969 -1.7581 -1.8299
10916SOL    HW250359   8.554  13.985   1.236 -1.8552  2.4201 -1.4777
10917SOL     OW50360  13.316   0.530  11.017 -0.5611  0.1443  0.4027
10917SOL    HW150361  13.324   0.622  10.992  2.3385 -0.2263 -0.3259
10917SOL    HW250362  13.371   0.521  11.095  0.2481 -1.1953 -0.2840
10918SOL     OW50363   8.662  13.365   2.766  0.5076  0.1915 -0.0082
10918SOL    HW150364   8.602  13.311   2.818  0.7109  0.6690  0.7482
10918SOL    HW250365   8.717  13.303   2.719  0.4487 -0.2569  0.5140
10919SOL     OW50366   9.839  11.042  11.327 -0.4140  0.1321 -0.1202
10919SOL    HW150367   9.903  10.990  11.278  0.9826 -0.0248  1.7606
10919SOL    HW250368   9.892  11.105  11.376 -1.5491 -0.7517  2.4031
10920SOL     OW50369   5.095  12.986   1.124 -0.2166  0.2210  0.2734
10920SOL    HW150370   5.113  13.074   1.158 -0.5556 -0.1267  1.3845
10920SOL    HW250371   5.011  12.962   1.164  0.2812 -0.9358  0.6601
10921SOL     OW50372   2.619   2.150  12.001  0.1276 -0.7505 -0.3199
10921SOL    HW150373   2.658   2.230  12.036 -1.6628 -0.0812  0.2294
10921SOL    HW250374   2.618   2.090  12.076  0.6012 -0.9707 -0.4845
10922SOL     OW50375   0.823  11.778   0.253  0.1324 -0.0184  0.1249
10922SOL    HW150376   0.771  11.836   0.309  0.4631 -0.5087  0.9680
10922SOL    HW250377   0.807  11.809   0.164 -1.0407  0.2880  0.4234
10923SOL     OW50378   5.072   0.652  12.369  0.1609  0.5611  0.7930
10923SOL    HW150379   5.034   0.574  12.410  1.0667 -0.0295  0.5272
10923SOL    HW250380   5.004   0.684  12.310  0.0858 -0.5010  0.2969
10924SOL     OW50381   6.169  10.908   8.241 -0.4140 -0.7686 -0.2720
10924SOL    HW150382   6.196  10.955   8.319  1.3680 -0.4705 -1.0155
10924SOL    HW250383   6.086  10.867   8.264 -0.6236  0.4753  1.2883
10925SOL     OW50384   2.686   9.859  12.216 -0.0497  0.1384  0.6216
10925SOL    HW150385   2.605   9.850  12.164  0.5236 -1.4435 -0.0606
10925SOL    HW250386   2.756   9.839  12.154  0.8847  1.4594  1.2208
10926SOL     OW50387  12.075  11.637  11.299 -0.0123  0.5918  0.7332
10926SOL    HW150388  11.988  11.626  11.336 -0.4692  0.2399 -0.4174
10926SOL    HW250389  12.135  11.612  11.370 -0.8490  0.2645  1.3360
10927SOL     OW50390   7.177  10.686   4.752  0.5659  0.2697  0.4160
10927SOL    HW150391   7.084  10.685   4.777  0.6645  0.7216  0.7953
10927SOL    HW250392   7.176  10.662   4.659  0.0590  0.3756  0.3885
10928SOL     OW50393   3.877   3.897   4.031 -0.2742 -0.0255 -1.1580
10928SOL    HW150394   3.946   3.870   4.092 -1.5047 -0.4416  0.1186
10928SOL    HW250395   3.910   3.872   3.945  0.8503 -0.8896 -0.5143
10929SOL     OW50396   5.583   9.961   2.499  0.0238 -0.3617 -0.2043
10929SOL    HW150397   5.500  10.007   2.494 -0.4388 -1.2374 -0.8696
10929SOL    HW250398   5.559   9.869   2.510  0.9104 -0.5697  0.0795
10930SOL     OW50399  12.299  13.449   7.340 -0.0423  0.6091  0.6501
10930SOL    HW150400  12.250  13.369   7.357 -0.2771  0.9277  1.5677
10930SOL    HW250401  12.252  13.492   7.269 -0.2875  0.2441  0.5902
10931SOL     OW50402   1.399   2.035   1.530  0.3344  0.6780  0.1273
10931SOL    HW150403   1.441   2.063   1.449  0.6452  0.3943  0.1879
10931SOL    HW250404   1.309   2.066   1.523  0.2762  0.3831 -0.4657
10932SOL     OW50405  12.965   1.646   6.041  0.3717  0.1308  0.4614
10932SOL    HW150406  13.058   1.661   6.024  0.2414 -0.4753 -0.9534
10932SOL    HW250407  12.920   1.707   5.983 -0.1022 -1.8571 -1.4000
10933SOL     OW50408   4.696   8.633   7.234 -0.2162 -0.1218 -0.5095
10933SOL    HW150409   4.786   8.664   7.229  0.2131 -0.7979  1.7942
10933SOL    HW250410   4.683   8.582   7.154  0.7013  1.7563 -1.9188
10934SOL     OW50411   3.759  11.290   3.233  0.6548 -0.3684 -0.0959
10934SOL    HW150412   3.789  11.290   3.324  0.2223 -0.2116  0.0467
10934SOL    HW250413   3.815  11.225   3.189  1.0848 -0.2095  0.2059
10935SOL     OW50414   8.150  13.696   3.822 -0.5483  0.3151 -0.0548
10935SOL    HW150415   8.109  13.742   3.750 -4.4137  1.1118  2.3783
10935SOL    HW250416   8.116  13.606   3.816  1.8461 -0.6130 -1.0589
10936SOL     OW50417   3.576   6.132   6.234 -0.3372 -0.4921 -0.7189
10936SOL    HW150418   3.525   6.186   6.294  0.6048  1.1799 -1.3697
10936SOL    HW250419   3.649   6.100   6.286  1.3461  2.2145 -1.2295
10937SOL     OW50420  13.737   4.388  12.324  0.0397 -0.5500 -0.3815
10937SOL    HW150421  13.745   4.323  12.254  0.6352  0.2162 -1.0307
10937SOL    HW250422  13.827   4.413  12.344 -0.2284  1.9830 -1.9499
10938SOL     OW50423   5.151   2.433   1.653 -0.1230  0.0940 -0.0541
10938SOL    HW150424   5.181   2.488   1.725  1.2908 -0.6651 -0.0196
10938SOL    HW250425   5.232   2.396   1.617 -0.8995 -0.4574 -1.2828
10939SOL     OW50426   9.489   3.317   9.082  0.2685 -0.2123 -0.5503
10939SOL    HW150427   9.412   3.280   9.126 -0.5841 -0.7234 -2.3958
10939SOL    HW250428   9.500   3.264   9.003  2.0209  0.4010 -0.7701
10940SOL     OW50429   0.046   0.356   6.226 -0.0488 -0.0921  0.6121
10940SOL    HW150430   0.016   0.353   6.135  0.0927 -0.5620  0.5811
10940SOL    HW250431   0.126   0.303   6.227 -0.8014 -1.2461  1.2996
10941SOL     OW50432   4.974  11.851   0.252 -0.1834  0.1722 -0.1688
10941SOL    HW150433   5.026  11.859   0.332  0.8848 -4.0633 -0.2277
10941SOL    HW250434   5.033  11.880   0.183  0.5071 -0.3598  0.1848
10942SOL     OW50435   6.100   0.811   7.347  0.0802 -0.2484 -0.6132
10942SOL    HW150436   6.113   0.898   7.385  0.7821 -0.2650 -0.7933
10942SOL    HW250437   6.044   0.765   7.409  0.7080 -0.0648  0.1028
10943SOL     OW50438  10.722   3.963   5.832 -0.1189 -0.0595 -0.3170
10943SOL    HW150439  10.778   4.020   5.884  0.3464  0.2000 -1.0922
10943SOL    HW250440  10.734   3.993   5.742 -1.8044  0.2767 -0.4676
10944SOL     OW50441   1.957   1.973   1.012 -0.2270 -0.1555  0.7023
10944SOL    HW150442   2.020   2.004   1.076  0.1024 -2.0865  1.4013
10944SOL    HW250443   1.901   1.913   1.062 -2.7244  1.5668  0.1308
10945SOL     OW50444   3.796   9.559   2.932 -0.3475 -0.0373  0.7225
10945SOL    HW150445   3.802   9.598   2.845  0.1714 -0.7796  0.4173
10945SOL    HW250446   3.856   9.610   2.986  0.6146 -0.6243  0.2346
10946SOL     OW50447   2.908   0.503  11.407 -0.1014 -0.2079  0.0826
10946SOL    HW150448   2.911   0.570  11.475 -1.4019  0.1141 -0.1647
10946SOL    HW250449   2.815   0.483  11.396  0.1997 -1.4528 -0.4372
10947SOL     OW50450   3.056   9.719   6.185  0.1742 -0.1761 -0.3300
10947SOL    HW150451   2.968   9.692   6.211  0.1304  0.4721  0.2271
10947SOL    HW250452   3.059   9.704   6.090 -0.6852  0.2057 -0.4280
10948SOL     OW50453   2.105   2.275   8.170  0.2402  0.2274 -0.2529
10948SOL    HW150454   2.057   2.352   8.200 -0.1716 -0.5133  1.0402
10948SOL    HW250455   2.038   2.216   8.136  0.2865 -0.4453  0.7631
10949SOL     OW50456   1.516   7.282   9.664  0.1098 -0.3419  0.2902
10949SOL    HW150457   1.450   7.220   9.695 -0.0157  0.0257  0.7767
10949SOL    HW250458   1.467   7.348   9.616  0.1288 -0.1195  0.5715
10950SOL     OW50459  12.128   2.882   6.340 -0.1281  0.0369 -0.3709
10950SOL    HW150460  12.041   2.861   6.374 -0.7739  1.9646 -0.7094
10950SOL    HW250461  12.121   2.865   6.246  0.2377 -0.9229 -0.2306
10951SOL     OW50462   4.637  13.672  11.716 -0.1378 -0.1622  0.3485
10951SOL    HW150463   4.647  13.639  11.627 -0.9610  0.8343 -0.1223
10951SOL    HW250464   4.696  13.617  11.768  3.8011  1.9502 -1.4220
10952SOL     OW50465   3.534   1.395  13.046  0.4915 -0.6759 -0.1850
10952SOL    HW150466   3.587   1.411  13.124  1.1102 -2.2571 -0.2342
10952SOL    HW250467   3.576   1.447  12.977  0.7144 -0.2820  0.2418
10953SOL     OW50468  13.505  12.438  11.585  0.5750  0.1389  0.7887
10953SOL    HW150469  13.571  12.501  11.613  0.6015 -0.0503  1.1532
10953SOL    HW250470  13.494  12.455  11.491  1.0535  0.2454  0.7502
10954SOL     OW50471   9.489  12.797  13.364  0.4051  0.0977  0.3864
10954SOL    HW150472   9.567  12.743  13.376 -0.6708 -1.1983  2.2943
10954SOL    HW250473   9.511  12.881  13.403  0.9475 -0.1685  0.6684
10955SOL     OW50474   5.122   6.137   5.507 -0.4021  0.6660 -0.5164
10955SOL    HW150475   5.072   6.069   5.552  0.8525  0.7404  1.0826
10955SOL    HW250476   5.074   6.152   5.426 -0.7762 -2.0631 -0.9164
10956SOL     OW50477  10.103  12.383  13.441 -0.6858  0.3455 -0.0434
10956SOL    HW150478  10.190  12.353  13.415 -0.4769  0.1080  0.8749
10956SOL    HW250479  10.062  12.305  13.480 -1.9225  0.0218 -1.8925
10957SOL     OW50480   3.688   7.623   4.897 -0.6235  0.4119 -0.3705
10957SOL    HW150481   3.719   7.536   4.922  0.2990  0.7407 -0.3460
10957SOL    HW250482   3.764   7.680   4.907 -1.7775  1.6780  1.7893
10958SOL     OW50483   1.464   7.591  13.459  0.6208 -0.3276  0.5127
10958SOL    HW150484   1.451   7.676  13.418  1.1636 -0.0858  0.8264
10958SOL    HW250485   1.559   7.584  13.470  0.4665 -0.1645  2.1602
10959SOL     OW50486   5.804   4.039  13.972  0.0996  0.3183 -0.6236
10959SOL    HW150487   5.836   3.983  14.042 -1.9766  0.4682  0.5321
10959SOL    HW250488   5.871   4.107  13.963  0.9482 -0.3387  0.4161
10960SOL     OW50489   9.698   7.894   5.490  0.1566  0.7445 -0.1719
10960SOL    HW150490   9.745   7.875   5.408 -0.0575  0.3595 -0.2109
10960SOL    HW250491   9.692   7.809   5.533 -0.7746  0.7351 -0.3084
10961SOL     OW50492   9.006   6.620   2.693 -0.6478  0.3985 -0.4247
10961SOL    HW150493   8.967   6.627   2.606 -0.4633  0.9079 -0.4701
10961SOL    HW250494   8.936   6.645   2.753 -0.3772  1.3879 -0.5109
10962SOL     OW50495  13.111  13.169   4.983  0.1286 -0.2677  0.5153
10962SOL    HW150496  13.049  13.228   4.940 -1.1278 -1.5671  0.4819
10962SOL    HW250497  13.117  13.201   5.073 -1.3264 -0.6562  0.7738
10963SOL     OW50498   2.604   1.777  12.777 -0.0913  0.7540 -0.2175
10963SOL    HW150499   2.615   1.687  12.749 -1.6728  0.6573 -0.6315
10963SOL    HW250500   2.684   1.821  12.749  0.7837 -0.5407  0.1721
10964SOL     OW50501   6.344  10.734   7.318  0.0733 -0.7034  0.1912
10964SOL    HW150502   6.429  10.717   7.357 -0.2654  0.1817  1.3641
10964SOL    HW250503   6.338  10.672   7.245  2.0868 -0.1655 -0.4909
10965SOL     OW50504   4.541   1.263   0.890 -0.3904  0.0655 -0.1877
10965SOL    HW150505   4.523   1.314   0.811  0.6975  0.7324 -0.0329
10965SOL    HW250506   4.597   1.191   0.860  1.8164  1.5069  0.2452
10966SOL     OW50507   1.720   6.128   4.081  0.0991 -0.6877 -0.0052
10966SOL    HW150508   1.778   6.088   4.146 -2.5474 -2.5038  1.4210
10966SOL    HW250509   1.691   6.210   4.120 -1.9781 -2.0690  1.5229
10967SOL     OW50510  12.596  10.010   9.775  0.0434 -0.4743 -0.4514
10967SOL    HW150511  12.638  10.039   9.856 -1.1010  0.1460 -0.0536
10967SOL    HW250512  12.515   9.967   9.803  1.1978 -3.3155 -1.0865
10968SOL     OW50513   3.024   5.365  11.891 -0.6045  0.2773  0.7551
10968SOL    HW150514   2.976   5.315  11.825 -1.1345  0.6818  0.8243
10968SOL    HW250515   2.956   5.411  11.940 -0.0979  2.8192 -0.6985
10969SOL     OW50516   5.259   6.620   3.685  0.8166 -0.3861  0.2856
10969SOL    HW150517   5.202   6.691   3.656  2.2319  0.3375 -0.7859
10969SOL    HW250518   5.229   6.601   3.775 -0.5124  0.5553  0.0722
10970SOL     OW50519   9.902   7.295  13.273 -0.1274 -0.2623  0.5923
10970SOL    HW150520   9.884   7.247  13.193 -0.0021 -1.7501  1.4180
10970SOL    HW250521   9.842   7.258  13.338  0.9335 -0.2975  1.5968
10971SOL     OW50522   1.181   8.891   8.930  0.2097  0.0523  0.0348
10971SOL    HW150523   1.180   8.834   9.006 -2.9260  0.4956  0.4590
10971SOL    HW250524   1.260   8.866   8.882  1.3228 -1.4646  2.4818
10972SOL     OW50525   3.815   3.836  13.703  0.8058 -0.1047 -0.3647
10972SOL    HW150526   3.763   3.789  13.768  1.1052 -0.9441 -0.7204
10972SOL    HW250527   3.779   3.810  13.619  1.0533  0.2125 -0.5732
10973SOL     OW50528   7.367   6.974   2.612 -0.1638  0.5268  0.0970
10973SOL    HW150529   7.337   7.055   2.571  0.3299 -0.0676 -1.4964
10973SOL    HW250530   7.342   6.905   2.550  2.2607 -0.2232 -0.1583
10974SOL     OW50531   1.987   9.706   4.892  0.2718  0.0678 -0.0975
10974SOL    HW150532   2.049   9.638   4.919  2.3375  1.4356 -1.1077
10974SOL    HW250533   1.917   9.658   4.847 -0.3124 -1.6804  2.4321
10975SOL     OW50534  12.583  12.712  12.842 -0.0810  0.6140 -0.5261
10975SOL    HW150535  12.663  12.713  12.895 -0.1510 -0.7002 -0.3549
10975SOL    HW250536  12.614  12.686  12.755 -0.4392 -1.0713 -0.1838
10976SOL     OW50537   4.307   8.422  13.425 -0.5574 -0.0413  0.0744
10976SOL    HW150538   4.290   8.348  13.483  0.6522 -0.5269 -0.1524
10976SOL    HW250539   4.275   8.498  13.473 -0.6935 -0.5700  0.8495
10977SOL     OW50540   7.248   3.570  11.471 -0.0429  0.2707  0.1170
10977SOL    HW150541   7.210   3.651  11.436  1.2690  0.5508 -0.7499
10977SOL    HW250542   7.339   3.593  11.490  0.5305 -1.1458 -0.7161
10978SOL     OW50543  11.732   8.911   8.854 -0.1684 -0.3578  0.0743
10978SOL    HW150544  11.717   8.839   8.793  0.5061 -1.7303  1.4302
10978SOL    HW250545  11.827   8.912   8.866 -0.2860 -0.1166  1.0543
10979SOL     OW50546   2.681   6.822   5.291  0.2396 -0.1684 -0.5668
10979SOL    HW150547   2.613   6.889   5.290  0.5606  0.3147  2.0977
10979SOL    HW250548   2.755   6.862   5.247 -0.2468  0.4288 -0.8512
10980SOL     OW50549   0.883   8.817   2.723 -0.4655 -0.1540  0.1578
10980SOL    HW150550   0.870   8.874   2.799 -2.0162 -0.9757  0.5660
10980SOL    HW250551   0.978   8.810   2.714 -0.2500  0.2855  1.7855
10981SOL     OW50552   3.308  11.701   8.956  0.2603  0.4769 -0.6850
10981SOL    HW150553   3.297  11.699   8.860  2.3844 -0.7664 -0.9776
10981SOL    HW250554   3.272  11.617   8.986 -0.6283  0.9704 -0.3399
10982SOL     OW50555   0.155   2.502  11.313 -0.5532 -0.3136 -0.3289
10982SOL    HW150556   0.100   2.575  11.340 -0.0989  0.1257 -0.5856
10982SOL    HW250557   0.094   2.438  11.276 -0.8455  0.4156 -1.1560
10983SOL     OW50558   2.444  12.708   8.887 -0.3283 -0.7564  0.6165
10983SOL    HW150559   2.475  12.679   8.972 -2.5260 -2.4268  0.9350
10983SOL    HW250560   2.460  12.633   8.829 -0.4007 -0.2726 -0.0431
10984SOL     OW50561   7.067   1.929   1.654 -0.1505 -0.4934 -0.1285
10984SOL    HW150562   7.139   1.925   1.718 -0.8491 -2.3983  0.6028
10984SOL    HW250563   7.041   2.021   1.653  0.6322 -0.2181  1.5059
10985SOL     OW50564  11.844   4.247   1.357  0.5617  0.0006  0.4012
10985SOL    HW150565  11.755   4.212   1.348  0.6483 -0.2828  0.6202
10985SOL    HW250566  11.874   4.260   1.267 -0.6271  2.5110  0.2597
10986SOL     OW50567   9.167   8.672   2.579 -0.3775 -0.2086 -0.1325
10986SOL    HW150568   9.133   8.683   2.490  0.7518  0.9729 -0.4491
10986SOL    HW250569   9.089   8.657   2.633 -1.3801  1.7356 -0.9187
10987SOL     OW50570   4.889   1.464   4.472 -0.2434  0.3176  0.1259
10987SOL    HW150571   4.849   1.473   4.385  0.0514 -0.7003 -0.1354
10987SOL    HW250572   4.920   1.373   4.474 -1.3799 -0.0826  1.7696
10988SOL     OW50573   2.427   6.869   9.412  0.0888 -0.3410  0.2723
10988SOL    HW150574   2.346   6.911   9.383 -0.0691 -1.1140 -0.4203
10988SOL    HW250575   2.496   6.929   9.382 -0.2192  0.4295  1.0527
10989SOL     OW50576   9.671  10.217   2.999  0.9561 -0.0257 -0.2566
10989SOL    HW150577   9.676  10.129   2.961  2.2304  0.7195 -1.9176
10989SOL    HW250578   9.762  10.243   3.010  0.6183  0.5109  1.7441
10990SOL     OW50579   8.199   8.963   1.942 -0.0311 -0.0142 -0.1301
10990SOL    HW150580   8.186   8.906   1.867  2.3148 -0.4274 -0.3101
10990SOL    HW250581   8.214   9.050   1.904 -0.7088  0.1531 -0.0215
10991SOL     OW50582   2.663   4.364  11.997  0.1673  0.0409 -0.5134
10991SOL    HW150583   2.706   4.446  11.970 -1.4039  0.9468 -0.3545
10991SOL    HW250584   2.579   4.392  12.034  0.2389 -1.5431  0.9386
10992SOL     OW50585   3.066   2.191   6.639  0.0903  0.2811  0.8373
10992SOL    HW150586   3.140   2.249   6.625  0.1715 -0.4998 -3.7043
10992SOL    HW250587   3.094   2.107   6.603 -3.0847  0.2221 -2.1301
10993SOL     OW50588  10.133   5.367   4.593 -0.4203 -0.1102 -0.0419
10993SOL    HW150589  10.087   5.285   4.611 -1.2011  0.5322  1.0370
10993SOL    HW250590  10.112   5.423   4.668  1.3071  0.5681 -0.0262
10994SOL     OW50591   7.108   5.291  12.994  0.8975  0.3470  0.1759
10994SOL    HW150592   7.189   5.257  12.956  0.2453  1.1744 -2.0988
10994SOL    HW250593   7.094   5.375  12.950 -2.3970 -0.8110 -1.3345
10995SOL     OW50594   9.666  13.935   2.507 -0.5371  0.2382  0.4030
10995SOL    HW150595   9.724  14.009   2.528 -1.0546  0.6740  0.3086
10995SOL    HW250596   9.611  13.967   2.435  0.3648 -0.8104 -0.8133
10996SOL     OW50597   9.940  13.934  13.894  0.4593  0.3734 -0.9660
10996SOL    HW150598   9.943  14.000  13.963 -0.0649  2.2212 -2.6258
10996SOL    HW250599   9.851  13.899  13.898  1.3396 -1.8776  1.2898
10997SOL     OW50600   8.478   2.474   5.704 -0.5342  0.0464 -0.5777
10997SOL    HW150601   8.397   2.516   5.734 -0.1369  1.0390 -0.8385
10997SOL    HW250602   8.537   2.547   5.686  0.2086 -0.6420 -0.9932
10998SOL     OW50603   7.580  12.273   6.689 -0.2198 -0.2647  0.1356
10998SOL    HW150604   7.505  12.308   6.738 -0.9378  1.5731 -2.0750
10998SOL    HW250605   7.656  12.317   6.727 -0.7550  1.0994 -0.3172
10999SOL     OW50606  11.181   9.619  10.643  0.4851  0.0297  0.1004
10999SOL    HW150607  11.174   9.544  10.701  1.4963  1.0966  1.6789
10999SOL    HW250608  11.094   9.659  10.644  0.3703 -0.2241  0.5244
11000SOL     OW50609  11.998   3.717   5.193  0.1178  0.0050 -0.0953
11000SOL    HW150610  11.902   3.720   5.189  0.0281  0.4797  1.5788
11000SOL    HW250611  12.024   3.809   5.205  0.7706 -0.1611 -0.2091
11001SOL     OW50612   2.419  11.104   1.616  0.0151 -0.1516 -0.2975
11001SOL    HW150613   2.385  11.137   1.533 -1.3097 -0.8585 -0.0559
11001SOL    HW250614   2.432  11.010   1.602  0.8108 -0.0998 -0.0183
11002SOL     OW50615  12.194   1.103   9.717  0.0601  0.3866  0.3889
11002SOL    HW150616  12.249   1.085   9.793  2.3172 -0.1103 -1.2800
11002SOL    HW250617  12.136   1.027   9.711 -1.3026  1.1573  2.4772
11003SOL     OW50618   8.631   1.829  11.082 -0.0242  0.1939 -0.0847
11003SOL    HW150619   8.581   1.908  11.061  0.0483  0.1136 -0.5851
11003SOL    HW250620   8.721   1.851  11.059  0.4218  0.8108  2.1021
11004SOL     OW50621   3.121  10.284   0.337  0.1025 -0.6123 -0.2462
11004SOL    HW150622   3.076  10.295   0.421 -1.5839  0.7027 -1.2566
11004SOL    HW250623   3.199  10.339   0.345 -0.0608 -0.4648  0.4490
11005SOL     OW50624   3.221   7.278   9.266 -0.3051 -1.0966  0.0367
11005SOL    HW150625   3.157   7.346   9.247  2.3406  1.8353  0.8929
11005SOL    HW250626   3.179   7.223   9.332 -1.7023  1.1115  1.0853
11006SOL     OW50627   6.312   0.083   5.114 -0.6153  0.0391  0.2602
11006SOL    HW150628   6.301   0.064   5.207 -0.1261  0.3823  0.3975
11006SOL    HW250629   6.341   0.175   5.112 -1.6629  0.3781 -0.2976
11007SOL     OW50630  10.538   1.545  10.411  0.3349  0.1733 -0.4477
11007SOL    HW150631  10.475   1.569  10.342  0.0896 -1.7106 -0.9517
11007SOL    HW250632  10.555   1.626  10.458 -2.7399  0.7324 -0.0872
11008SOL     OW50633  10.009   0.850  12.180 -0.3712  0.0601  0.2874
11008SOL    HW150634  10.087   0.888  12.220 -0.8489  0.9321  0.4218
11008SOL    HW250635   9.937   0.878  12.236 -0.8113 -0.5584  0.0460
11009SOL     OW50636  10.253   2.374  12.816 -0.7668 -0.0554  0.1344
11009SOL    HW150637  10.249   2.410  12.728  0.7596  2.3506  0.9633
11009SOL    HW250638  10.170   2.401  12.857  0.0278  2.0199  0.4995
11010SOL     OW50639   6.772   8.632  12.369 -0.8573  0.3600 -0.2272
11010SOL    HW150640   6.847   8.678  12.407 -1.3887  0.8546  0.2442
11010SOL    HW250641   6.730   8.697  12.312  0.5963 -0.6972 -2.6672
11011SOL     OW50642   0.322   8.122   2.218  0.5702 -0.1484  0.1482
11011SOL    HW150643   0.417   8.133   2.219  0.2952  3.2137  1.8470
11011SOL    HW250644   0.307   8.050   2.280  1.9382  1.8021  2.9840
11012SOL     OW50645  10.560  12.050   0.933 -0.0488 -0.6222  0.3767
11012SOL    HW150646  10.631  12.094   0.887 -0.8849  0.7052  0.3050
11012SOL    HW250647  10.483  12.103   0.915 -0.5980 -0.6118  2.4914
11013SOL     OW50648  10.221  12.253  11.070 -0.1719 -0.4909 -0.1515
11013SOL    HW150649  10.215  12.285  10.980 -0.0874  1.4190  0.4856
11013SOL    HW250650  10.164  12.176  11.071  0.2738 -0.9095 -1.9581
11014SOL     OW50651  11.651   0.538   5.371 -0.4935 -0.4446 -0.7775
11014SOL    HW150652  11.641   0.632   5.384  2.0754 -0.3347  1.1405
11014SOL    HW250653  11.651   0.527   5.276  1.8575  1.9113 -1.1740
11015SOL     OW50654   8.063  12.332   3.629  0.6259 -0.0903 -0.0770
11015SOL    HW150655   7.970  12.312   3.642  0.4870  2.1362  4.0666
11015SOL    HW250656   8.063  12.422   3.597  1.3017  0.2261  0.7694
11016SOL     OW50657   1.636   5.700   6.152  0.1134 -0.5706  0.5372
11016SOL    HW150658   1.576   5.707   6.226 -3.2059 -0.5832 -1.8789
11016SOL    HW250659   1.613   5.775   6.097  2.4507 -0.5528 -0.5132
11017SOL     OW50660  12.965   9.930   1.895  0.3937 -0.2624 -0.0809
11017SOL    HW150661  13.047   9.888   1.923  1.5875  1.5575 -0.7155
11017SOL    HW250662  12.943   9.886   1.813  0.9682 -0.4689 -0.1309
11018SOL     OW50663   3.233   6.559   2.961  0.5259  0.8009  0.0501
11018SOL    HW150664   3.273   6.598   3.039 -1.2264  1.1933  0.8124
11018SOL    HW250665   3.146   6.597   2.958 -0.8727 -2.0889  0.1229
11019SOL     OW50666   2.112   1.147   6.350 -0.1198 -0.4837  0.1295
11019SOL    HW150667   2.028   1.187   6.329  1.5206  2.5866 -1.2787
11019SOL    HW250668   2.129   1.171   6.441 -0.2313  0.0390  0.0170
11020SOL     OW50669  10.162   1.886  10.448 -0.4414 -0.0208  0.1950
11020SOL    HW150670  10.175   1.806  10.399  1.0657 -1.6108  2.9299
11020SOL    HW250671  10.233   1.944  10.421  1.1676 -1.3763  1.3102
11021SOL     OW50672   1.265   4.127   0.683 -0.4113  0.3594 -0.7571
11021SOL    HW150673   1.329   4.178   0.732 -0.9190 -0.7711  1.1613
11021SOL    HW250674   1.180   4.159   0.712 -0.8524 -3.2384  2.6553
11022SOL     OW50675   0.460   7.414   4.841 -0.0894  0.1329  0.2844
11022SOL    HW150676   0.395   7.357   4.881 -1.1400  0.8088 -0.4034
11022SOL    HW250677   0.468   7.488   4.901  0.0722  0.0394  0.3803
11023SOL     OW50678   7.429   1.695   7.633 -0.2225 -0.2834  0.1849
11023SOL    HW150679   7.447   1.780   7.594  1.6468 -0.4630  0.5750
11023SOL    HW250680   7.514   1.651   7.636 -0.9734 -1.7668  0.9235
11024SOL     OW50681   2.182   8.214   9.351 -0.1994  0.1899 -0.5242
11024SOL    HW150682   2.110   8.180   9.297 -0.1124  2.1869 -1.9691
11024SOL    HW250683   2.250   8.238   9.289  1.0598 -0.0710  0.7099
11025SOL     OW50684   0.446   9.105  13.811  0.7457 -0.5590  0.3349
11025SOL    HW150685   0.518   9.066  13.862  0.4967 -0.4648  0.7583
11025SOL    HW250686   0.367   9.066  13.848  0.5505 -0.3284  0.1597
11026SOL     OW50687  10.392  13.328   8.480  0.1420 -0.1783 -0.0718
11026SOL    HW150688  10.418  13.305   8.391  1.3143 -0.8060  0.4024
11026SOL    HW250689  10.300  13.302   8.486  0.0420 -0.0999 -1.0997
11027SOL     OW50690  11.049  11.563   4.425 -0.0250  0.1477 -0.3438
11027SOL    HW150691  11.015  11.627   4.488  1.8664  0.3140  0.5864
11027SOL    HW250692  11.117  11.611   4.376  1.0954 -0.9890  0.0447
11028SOL     OW50693   6.920  10.383   0.536 -0.5859  0.5966  0.3469
11028SOL    HW150694   7.008  10.357   0.508  0.1364  3.4891 -0.3780
11028SOL    HW250695   6.926  10.390   0.631  0.3545  1.8763  0.2205
11029SOL     OW50696   7.634   2.419  12.708  0.1451 -0.0301  0.1033
11029SOL    HW150697   7.677   2.437  12.625  0.3254 -0.3130  0.1326
11029SOL    HW250698   7.548   2.383  12.684 -0.0218  0.4080  0.0441
11030SOL     OW50699  11.181  10.336   3.198 -0.0139 -0.4569  0.1355
11030SOL    HW150700  11.232  10.314   3.275 -1.2835  1.0892  1.5089
11030SOL    HW250701  11.172  10.254   3.150  0.2826 -1.6026  1.9645
11031SOL     OW50702  12.987   7.461   9.349 -0.0465 -0.4872  0.4645
11031SOL    HW150703  12.940   7.387   9.388  0.2407 -0.5517  0.6901
11031SOL    HW250704  13.013   7.430   9.262  0.7591 -0.9337  0.8597
11032SOL     OW50705  11.445  11.979  12.841 -0.0617  0.2680  0.4053
11032SOL    HW150706  11.381  12.039  12.802 -1.6022 -0.2146  2.0679
11032SOL    HW250707  11.482  11.931  12.766  1.2258  3.1975 -0.9722
11033SOL     OW50708   8.186   8.686  13.357 -0.0041 -0.0129 -0.0899
11033SOL    HW150709   8.261   8.662  13.302 -0.1657 -0.0207 -0.3067
11033SOL    HW250710   8.166   8.776  13.332  1.0432  0.6134  1.2164
11034SOL     OW50711   6.085   8.181   3.851  0.0504  0.2177  0.6163
11034SOL    HW150712   6.018   8.245   3.874 -0.7638 -0.6093  0.6171
11034SOL    HW250713   6.124   8.214   3.770 -0.1468  0.8566  0.7764
11035SOL     OW50714   9.956   8.586   1.717  0.3202 -0.7018  0.5166
11035SOL    HW150715   9.935   8.494   1.737 -0.1179 -0.7120  0.0576
11035SOL    HW250716   9.908   8.603   1.635  1.2203 -0.3688  0.0491
11036SOL     OW50717   3.296   3.188   1.825 -0.0023  0.6797 -0.2020
11036SOL    HW150718   3.276   3.172   1.733 -1.9621 -0.0967  0.3171
11036SOL    HW250719   3.359   3.260   1.823  2.0432 -0.9951 -2.2350
11037SOL     OW50720  11.274  10.615   9.542  0.2738 -0.0540  0.1032
11037SOL    HW150721  11.351  10.671   9.544  0.6636 -0.4413 -1.7059
11037SOL    HW250722  11.290  10.555   9.469 -1.6354 -0.2762 -0.2012
11038SOL     OW50723   2.858   8.306   1.852  0.6470 -0.1057  0.0544
11038SOL    HW150724   2.765   8.299   1.832  0.9268  0.3498 -1.5597
11038SOL    HW250725   2.870   8.395   1.883  0.4639 -0.3263  0.7654
11039SOL     OW50726  12.554  12.187   6.486  0.1466 -0.3423 -0.3296
11039SOL    HW150727  12.644  12.154   6.493 -0.1644 -1.0820  0.4455
11039SOL    HW250728  12.515  12.136   6.415  0.3210 -0.0749 -0.6149
11040SOL     OW50729   4.259   5.378   1.652 -0.1266 -0.3030  0.7509
11040SOL    HW150730   4.323   5.308   1.639 -0.0929 -0.0284 -0.7799
11040SOL    HW250731   4.175   5.337   1.636 -0.3341 -0.5863  2.4429
11041SOL     OW50732   9.100  12.452   2.178 -0.4903  0.0828  0.3317
11041SOL    HW150733   9.104  12.490   2.090  1.2667 -0.1764  0.2617
11041SOL    HW250734   9.156  12.375   2.173 -0.4421  0.0181  1.6555
11042SOL     OW50735   6.580   3.504   1.867 -0.2180 -0.1389 -0.4333
11042SOL    HW150736   6.666   3.544   1.851  0.2687 -0.8216  0.4096
11042SOL    HW250737   6.532   3.519   1.786  0.6097  0.4798 -0.8305
11043SOL     OW50738   6.832  12.091   9.605  0.2795 -0.0809 -0.5229
11043SOL    HW150739   6.776  12.013   9.600  0.2069  0.0188 -1.4455
11043SOL    HW250740   6.886  12.086   9.526  0.6177  0.5495 -0.3362
11044SOL     OW50741   0.843   3.732   4.405 -0.1194 -0.4052 -0.0692
11044SOL    HW150742   0.843   3.821   4.441 -0.4631 -1.5087  2.9595
11044SOL    HW250743   0.751   3.705   4.406  0.1743 -1.4506  0.9498
11045SOL     OW50744   8.738   0.600   8.321  0.5356  0.4898  0.1520
11045SOL    HW150745   8.694   0.648   8.252  0.4660 -2.4474 -2.0356
11045SOL    HW250746   8.823   0.576   8.283 -0.6979 -3.8970 -0.4016
11046SOL     OW50747   0.865   8.007   5.630 -0.2226  0.4419  0.1233
11046SOL    HW150748   0.771   8.020   5.617  0.3094  3.4869 -1.8364
11046SOL    HW250749   0.892   7.953   5.555 -0.0868  1.8003 -0.8532
11047SOL     OW50750   8.276   9.719   9.403  0.8780 -0.1058  0.0889
11047SOL    HW150751   8.306   9.805   9.430  1.1921 -0.0664 -0.3757
11047SOL    HW250752   8.192   9.735   9.359  1.2836  0.0475 -0.6359
11048SOL     OW50753  14.044   4.220   4.496  0.0089  0.2039 -0.3011
11048SOL    HW150754  13.968   4.269   4.464 -0.7846  0.6733  2.0560
11048SOL    HW250755  14.022   4.201   4.588  2.0815 -1.0276 -0.0166
11049SOL     OW50756   6.594   3.671   8.446 -0.8115  0.8146  0.0023
11049SOL    HW150757   6.613   3.638   8.534  0.5799 -0.7905 -0.8458
11049SOL    HW250758   6.607   3.765   8.452  0.0934  0.6351  1.3164
11050SOL     OW50759   4.591   2.824  11.739 -0.2042  0.6859  0.8239
11050SOL    HW150760   4.664   2.882  11.716  0.4924 -0.9130 -1.2479
11050SOL    HW250761   4.633   2.751  11.784 -0.8734  0.8633  1.7845
11051SOL     OW50762   1.221   5.661   5.345 -0.4055 -0.3989 -0.0302
11051SOL    HW150763   1.170   5.635   5.268 -0.8073  2.1585 -0.7413
11051SOL    HW250764   1.217   5.586   5.403 -0.6311 -2.2004 -2.2317
11052SOL     OW50765   3.904  11.063   6.440 -0.6118  0.0353 -0.0786
11052SOL    HW150766   3.975  11.081   6.501 -0.2651  2.2814 -1.0121
11052SOL    HW250767   3.888  11.147   6.397 -2.2443 -0.9671 -1.5888
11053SOL     OW50768   5.907  10.800   4.477 -0.8155 -0.0165 -0.3438
11053SOL    HW150769   5.917  10.818   4.383 -1.4148  0.2929 -0.3540
11053SOL    HW250770   5.886  10.885   4.516 -1.5123 -0.2970 -0.0771
11054SOL     OW50771   4.972  12.587  13.653  0.2966  0.7462 -1.0980
11054SOL    HW150772   5.027  12.515  13.621  1.7317  1.3112 -0.0013
11054SOL    HW250773   4.908  12.545  13.710  0.8563  0.2788 -0.8009
11055SOL     OW50774   8.105  12.075  10.813  0.3273 -0.1261 -0.1672
11055SOL    HW150775   8.135  12.166  10.826 -3.2674  1.0495  1.0523
11055SOL    HW250776   8.169  12.022  10.859  2.2880  1.8034 -0.5030
11056SOL     OW50777   2.750  13.632   4.119  0.2397  0.5828  0.0198
11056SOL    HW150778   2.660  13.598   4.116  0.9123 -1.2534 -1.1887
11056SOL    HW250779   2.786  13.596   4.200  0.0197  0.9976  0.3063
11057SOL     OW50780   6.475  11.861   7.022 -0.1303 -0.9096 -0.1991
11057SOL    HW150781   6.504  11.865   7.113  0.8517  0.6702 -0.5383
11057SOL    HW250782   6.382  11.843   7.028 -0.8367  2.3744  1.3277
11058SOL     OW50783  10.860   0.671  12.064  0.5204 -0.3213 -0.4287
11058SOL    HW150784  10.947   0.663  12.025  0.2587 -0.4680 -0.9910
11058SOL    HW250785  10.868   0.627  12.149  1.3125  0.7209  0.0608
11059SOL     OW50786   8.740  11.115   3.954 -0.1040 -0.0965  0.1075
11059SOL    HW150787   8.739  11.050   4.024 -1.5056 -1.1321 -0.8211
11059SOL    HW250788   8.769  11.068   3.877  0.1537  0.7053 -0.2985
11060SOL     OW50789  10.371   1.018   5.091 -0.0085  0.3021 -0.4872
11060SOL    HW150790  10.389   0.932   5.053  0.1049  0.2007 -0.2037
11060SOL    HW250791  10.361   1.002   5.184 -0.1852  0.5682 -0.4578
11061SOL     OW50792   3.173  13.166  13.993 -0.2221 -0.2959  0.1413
11061SOL    HW150793   3.171  13.259  13.970  0.3896 -0.3718 -0.2274
11061SOL    HW250794   3.229  13.161  14.070  0.6811 -0.4939 -0.5131
11062SOL     OW50795   0.921   4.098   8.644  0.2872  0.0177 -0.0450
11062SOL    HW150796   0.901   4.157   8.717 -1.8393 -0.4194 -0.2214
11062SOL    HW250797   0.929   4.156   8.568 -0.1585  0.2313  0.0685
11063SOL     OW50798   3.787   6.938   6.861  0.0449 -0.6324 -0.5469
11063SOL    HW150799   3.855   6.980   6.914 -0.8443 -0.4405  0.4684
11063SOL    HW250800   3.796   6.978   6.774  0.1193  0.6335  0.0246
11064SOL     OW50801  10.358   4.414   0.634  0.1839 -0.1611  0.1790
11064SOL    HW150802  10.431   4.358   0.661  0.9599  1.4736  1.6815
11064SOL    HW250803  10.400   4.491   0.595 -0.7051  0.7308  0.9196
11065SOL     OW50804  10.546   8.497   4.598 -0.0147  0.4682  0.6808
11065SOL    HW150805  10.582   8.459   4.678  0.0727  0.2593  0.5420
11065SOL    HW250806  10.487   8.430   4.563  0.8126  0.0884 -0.0364
11066SOL     OW50807  13.486  12.017  13.128  0.1197 -0.1599  0.2999
11066SOL    HW150808  13.411  11.965  13.098 -0.1126 -1.0302  2.2820
11066SOL    HW250809  13.558  11.955  13.135 -0.0986 -0.2305  2.4758
11067SOL     OW50810   3.495  12.959   2.795  0.3353  0.9281  0.1772
11067SOL    HW150811   3.483  12.867   2.770 -0.3321  1.2552 -0.8056
11067SOL    HW250812   3.580  12.983   2.758  0.0348  0.9867 -0.4912
11068SOL     OW50813   9.714   0.558   6.977  0.1730 -0.4689  0.6112
11068SOL    HW150814   9.741   0.494   6.910  0.9552 -0.7216  1.1426
11068SOL    HW250815   9.785   0.555   7.041 -0.4139  0.0020  1.2910
11069SOL     OW50816  10.555  12.098   9.341 -0.3165  0.0641  0.0504
11069SOL    HW150817  10.586  12.029   9.281  0.6394  0.8212 -0.3646
11069SOL    HW250818  10.485  12.056   9.391  1.2278 -1.6864  0.8748
11070SOL     OW50819  10.204   8.004  10.404  0.4463  0.0082 -0.2271
11070SOL    HW150820  10.120   8.028  10.364 -0.0525  0.6477  1.1484
11070SOL    HW250821  10.269   8.028  10.338 -0.3264  1.3378 -0.5542
11071SOL     OW50822   4.095   0.658   2.599  0.4215 -0.3207  0.0976
11071SOL    HW150823   4.051   0.634   2.680  2.1841 -1.0208  0.9078
11071SOL    HW250824   4.167   0.595   2.591  1.2368  0.7152 -1.1721
11072SOL     OW50825  13.274   3.477   6.950  0.0650  0.3934 -0.5095
11072SOL    HW150826  13.351   3.531   6.964  1.8191 -2.0711  0.0206
11072SOL    HW250827  13.290   3.433   6.867 -0.9019  0.0326 -0.5189
11073SOL     OW50828   8.994  12.486   5.821 -0.0774  0.1743 -0.0949
11073SOL    HW150829   8.981  12.548   5.893  1.3875  1.1689 -0.6508
11073SOL    HW250830   9.025  12.406   5.863 -2.2741 -0.3536  0.6628
11074SOL     OW50831  13.796   7.747  10.488 -0.5860 -0.0338 -0.3636
11074SOL    HW150832  13.730   7.749  10.418 -0.2425  2.8659 -0.7567
11074SOL    HW250833  13.772   7.672  10.542 -2.7382 -0.5196 -1.8508
11075SOL     OW50834   0.595  12.740   0.140  0.3445  0.1507 -0.7734
11075SOL    HW150835   0.629  12.657   0.106 -0.0081 -0.6460  0.7518
11075SOL    HW250836   0.639  12.751   0.224 -2.1492 -0.2989  0.6910
11076SOL     OW50837  11.003   7.401   3.294  0.1886 -0.6899  0.1463
11076SOL    HW150838  11.091   7.373   3.319  1.0224  0.8922 -0.8383
11076SOL    HW250839  11.002   7.397   3.198 -0.1836  0.9722  0.0428
11077SOL     OW50840  11.428   7.657  13.421  0.1364 -0.5308 -0.2948
11077SOL    HW150841  11.456   7.710  13.347 -0.9350  0.2356 -0.1713
11077SOL    HW250842  11.475   7.694  13.496 -0.8641  0.5053 -0.1500
11078SOL     OW50843  11.218   5.085   9.025  0.6452  0.1837 -0.1407
11078SOL    HW150844  11.256   5.165   9.062  0.4531 -0.8113  2.3758
11078SOL    HW250845  11.126   5.088   9.049  0.3193 -0.1463 -1.2711
11079SOL     OW50846   0.300  13.692  10.388  0.0542 -0.3341 -0.5961
11079SOL    HW150847   0.348  13.763  10.431 -0.7752  1.0077 -1.8115
11079SOL    HW250848   0.303  13.620  10.451  1.3488  0.5989  0.4684
11080SOL     OW50849  11.247  11.665  13.640 -0.3024 -0.2324 -0.5800
11080SOL    HW150850  11.231  11.634  13.551  1.4556 -1.8657 -0.3848
11080SOL    HW250851  11.190  11.610  13.694 -0.9268  0.3500 -0.6428
11081SOL     OW50852  13.486   8.114   5.784 -0.4703 -0.3742 -0.0140
11081SOL    HW150853  13.415   8.176   5.769  0.0514  0.2357 -0.0108
11081SOL    HW250854  13.500   8.072   5.699 -0.2899  0.0976 -0.2210
11082SOL     OW50855   4.621   5.292   6.919  0.3484  0.0909  0.3157
11082SOL    HW150856   4.649   5.231   6.987  2.5429 -1.5903 -1.8870
11082SOL    HW250857   4.535   5.261   6.893  1.0977 -1.6711 -0.2206
11083SOL     OW50858   3.700  12.860  13.598 -0.4530 -0.1432 -0.3052
11083SOL    HW150859   3.656  12.851  13.683  0.6723  0.6141  0.3817
11083SOL    HW250860   3.676  12.780  13.550 -1.0374 -0.6194  0.7477
11084SOL     OW50861   1.735   3.525   9.057 -0.1760  0.6874  0.2176
11084SOL    HW150862   1.788   3.540   8.978  1.3820 -0.7052  0.9356
11084SOL    HW250863   1.787   3.563   9.127 -0.1225 -0.6953  0.9471
11085SOL     OW50864   5.550  12.530   2.550  0.1303  0.0168 -0.8389
11085SOL    HW150865   5.605  12.472   2.603 -0.3125  0.2294 -0.1405
11085SOL    HW250866   5.498  12.579   2.614 -0.4951  0.1914 -1.4753
11086SOL     OW50867  12.191   9.823  13.609  0.2538  0.1096  0.6684
11086SOL    HW150868  12.241   9.858  13.683  0.8215 -2.5601  1.6597
11086SOL    HW250869  12.254   9.773  13.559 -1.1145 -2.4140  1.3253
11087SOL     OW50870   1.292  12.311   8.500  0.8113  0.0186  0.4155
11087SOL    HW150871   1.339  12.234   8.469  0.9903  0.3991 -0.2769
11087SOL    HW250872   1.254  12.284   8.583 -1.4464 -1.7026 -1.0669
11088SOL     OW50873  13.936   8.357   4.493 -0.0637 -0.4441  0.3345
11088SOL    HW150874  13.843   8.350   4.474  0.1174 -0.6537 -0.5264
11088SOL    HW250875  13.970   8.269   4.475  0.3828 -0.2422  0.1910
11089SOL     OW50876  12.903   7.022   8.926  1.2930  0.2715 -0.1267
11089SOL    HW150877  12.894   7.068   8.842  1.7434  0.0115 -0.3165
11089SOL    HW250878  12.930   6.934   8.903 -0.6337 -0.4591  0.1652
11090SOL     OW50879   9.787  13.870   4.161 -0.2155 -0.1772  0.5767
11090SOL    HW150880   9.764  13.862   4.068  0.8958  1.2593  0.1351
11090SOL    HW250881   9.881  13.855   4.164  0.0346  1.2789  1.2217
11091SOL     OW50882  12.839   6.764  10.105 -0.6334 -0.2203 -0.4530
11091SOL    HW150883  12.857   6.676  10.137 -1.0273 -1.4092 -3.1881
11091SOL    HW250884  12.879   6.767  10.018 -2.1193  1.6876 -1.1525
11092SOL     OW50885  10.751   3.822  10.373  0.3451 -0.3499 -0.3559
11092SOL    HW150886  10.656   3.826  10.364  0.0021 -2.1803  1.7920
11092SOL    HW250887  10.772   3.887  10.441  0.8313  0.9608 -1.7034
11093SOL     OW50888   4.888   8.964  13.141 -0.0125  0.2384 -0.4992
11093SOL    HW150889   4.949   8.902  13.102  0.6213  0.0693  0.7172
11093SOL    HW250890   4.847   9.007  13.066  2.4363  1.2028 -1.4069
11094SOL     OW50891   5.591   4.416   9.049 -0.1531  0.0455  0.6634
11094SOL    HW150892   5.513   4.368   9.077 -0.0096 -0.3010  0.4781
11094SOL    HW250893   5.638   4.354   8.993 -1.9026  1.6310 -2.9052
11095SOL     OW50894   6.698   7.345   5.713 -0.0222  0.1427  0.2083
11095SOL    HW150895   6.648   7.427   5.712  1.4817  1.1222 -0.8209
11095SOL    HW250896   6.702   7.319   5.620  1.4417  0.1785  0.2356
11096SOL     OW50897   0.782   5.360   2.661 -0.3738 -0.1849  0.2901
11096SOL    HW150898   0.760   5.448   2.630 -0.5683 -0.6906 -1.0645
11096SOL    HW250899   0.821   5.316   2.586  0.2819 -1.0818  1.1192
11097SOL     OW50900   2.768  11.001   0.254  0.1211  0.0972 -0.2917
11097SOL    HW150901   2.840  11.058   0.227 -0.9627  0.6881 -2.1274
11097SOL    HW250902   2.694  11.028   0.199 -1.2917 -1.0082  0.9926
11098SOL     OW50903   9.123  10.787  12.317  0.4821  0.3264  0.9427
11098SOL    HW150904   9.067  10.845  12.369 -0.2776  0.1068  0.3728
11098SOL    HW250905   9.084  10.701  12.327 -0.5135  0.4939 -1.1033
11099SOL     OW50906   1.337  14.055   7.935  0.2752  0.5394  0.2627
11099SOL    HW150907   1.395  14.028   8.006  1.9715  1.1066 -0.8587
11099SOL    HW250908   1.276  14.117   7.976 -1.0119 -1.6606  1.9249
11100SOL     OW50909  10.108   8.609   0.018 -0.2747 -0.0052  0.3378
11100SOL    HW150910  10.035   8.670   0.031 -1.6065 -1.2040 -1.1623
11100SOL    HW250911  10.075   8.525   0.049  1.1566 -0.2245  1.3546
11101SOL     OW50912  13.834   1.910   7.503 -0.2325 -0.2007 -0.0868
11101SOL    HW150913  13.876   1.886   7.420 -2.3773 -0.2245 -1.2556
11101SOL    HW250914  13.832   1.829   7.553 -1.6486 -0.9901 -1.3360
11102SOL     OW50915  12.286   6.419   9.779  0.1105  0.0701  0.6072
11102SOL    HW150916  12.237   6.496   9.810 -0.1102  0.4105 -0.5540
11102SOL    HW250917  12.378   6.440   9.799  0.0630  0.6834  0.2106
11103SOL     OW50918  13.681  11.940   8.296 -0.3094  0.7603  0.0595
11103SOL    HW150919  13.612  11.888   8.255 -0.0210 -1.0938  1.7619
11103SOL    HW250920  13.759  11.922   8.244 -0.2072 -0.5872  0.6405
11104SOL     OW50921   4.596   1.061   0.527 -0.2571  0.1781 -0.3570
11104SOL    HW150922   4.617   0.972   0.498 -0.4884 -0.2213  0.6536
11104SOL    HW250923   4.541   1.096   0.457 -0.5667 -0.6470 -0.5487
11105SOL     OW50924   3.333   8.598  11.329  0.0408 -0.5244 -0.4061
11105SOL    HW150925   3.316   8.621  11.238  1.7528  1.0807 -0.3938
11105SOL    HW250926   3.274   8.654  11.379  0.6896  0.2536 -0.4958
11106SOL     OW50927   1.086   8.904   6.433 -0.2490 -0.0328 -0.5228
11106SOL    HW150928   0.998   8.931   6.458  0.4192 -0.0859  2.3335
11106SOL    HW250929   1.143   8.968   6.476  1.1331 -0.6274 -1.4054
11107SOL     OW50930   8.529   2.186   3.675  0.7881  0.3767 -0.2512
11107SOL    HW150931   8.592   2.166   3.606  1.1201  1.2178 -0.2080
11107SOL    HW250932   8.551   2.126   3.746  1.8398  0.9405 -0.0696
11108SOL     OW50933   3.571   4.933  11.455 -0.3895  0.3323  0.1140
11108SOL    HW150934   3.540   4.866  11.516  0.7937  1.0349  1.5775
11108SOL    HW250935   3.666   4.920  11.452 -0.5366 -0.6811 -2.8900
11109SOL     OW50936   1.025  13.308   0.932  0.5039  0.0528 -0.0048
11109SOL    HW150937   1.033  13.217   0.902  0.6211 -0.5732  1.7852
11109SOL    HW250938   0.976  13.352   0.864 -0.4138 -1.5972 -0.4566
11110SOL     OW50939  11.318   9.912  12.592 -0.4115 -0.4137  0.0432
11110SOL    HW150940  11.289   9.999  12.620  1.6034  0.9762 -1.8621
11110SOL    HW250941  11.292   9.907  12.500  2.6774 -0.2490 -0.9304
11111SOL     OW50942   2.157   2.570  11.481  0.5485 -0.2660 -0.1610
11111SOL    HW150943   2.089   2.585  11.547  1.1730  2.1583  0.0368
11111SOL    HW250944   2.109   2.556  11.399 -0.2385  0.6220  0.1237
11112SOL     OW50945  13.425   8.165   8.572 -0.1956  0.5807  0.4816
11112SOL    HW150946  13.466   8.078   8.582  0.5347  0.9853  1.1471
11112SOL    HW250947  13.450   8.193   8.484 -0.6131  0.0286  0.1837
11113SOL     OW50948  13.117   8.617   8.849 -0.3680 -0.0584  0.4957
11113SOL    HW150949  13.191   8.677   8.850 -0.6927  0.3399  0.9916
11113SOL    HW250950  13.118   8.575   8.935  0.0072 -0.9608  0.0641
11114SOL     OW50951  12.166   1.030  13.512 -0.5143 -0.5582 -0.1854
11114SOL    HW150952  12.130   1.083  13.584 -1.2823 -1.3378  0.0264
11114SOL    HW250953  12.125   0.944  13.523  2.5823 -2.0403  1.0318
11115SOL     OW50954   1.201   5.291  12.604  0.4318  0.1308  0.4921
11115SOL    HW150955   1.261   5.264  12.674  1.8666  0.9629 -0.3551
11115SOL    HW250956   1.176   5.208  12.562  1.1587 -0.2342  0.7484
11116SOL     OW50957  12.857  10.279   6.077 -0.4752  0.3921  0.6336
11116SOL    HW150958  12.798  10.268   6.003  0.9466  0.5822 -0.5754
11116SOL    HW250959  12.866  10.374   6.087  0.9433  0.3961 -0.3380
11117SOL     OW50960   5.435   9.248   4.790  0.5196  0.3964 -0.1668
11117SOL    HW150961   5.429   9.267   4.884 -0.5055  3.1103 -0.6611
11117SOL    HW250962   5.344   9.250   4.760  0.7784 -1.1672 -1.1231
11118SOL     OW50963   3.510   3.562  11.487 -0.1317 -0.2584 -0.1374
11118SOL    HW150964   3.550   3.601  11.564  0.8247  2.1531 -1.7447
11118SOL    HW250965   3.419   3.546  11.512 -0.4666  2.6305  0.8215
11119SOL     OW50966  10.670   3.759   2.424 -0.8087  0.1181 -0.0319
11119SOL    HW150967  10.723   3.751   2.345  0.4835  0.0484  0.8157
11119SOL    HW250968  10.625   3.674   2.431 -0.1526 -0.2453 -0.1470
11120SOL     OW50969   3.251   6.614  10.335  0.0108  1.0122 -0.9300
11120SOL    HW150970   3.157   6.622  10.352 -0.2485 -0.2225 -1.6124
11120SOL    HW250971   3.256   6.574  10.248  1.1521  0.1598 -0.4994
11121SOL     OW50972  12.735   4.732   2.171  0.2397 -0.7990  0.1155
11121SOL    HW150973  12.740   4.794   2.244 -0.3512 -1.2940  0.5894
11121SOL    HW250974  12.797   4.766   2.106  0.0596  0.1820  0.4396
11122SOL     OW50975   5.643   4.455  10.635 -0.2960  0.1560 -0.2132
11122SOL    HW150976   5.582   4.512  10.681 -0.7913 -0.8844  0.4559
11122SOL    HW250977   5.596   4.426  10.558 -0.4950 -0.3049  0.0790
11123SOL     OW50978  10.006  12.713   6.279  0.5470 -0.0206 -0.4036
11123SOL    HW150979  10.034  12.803   6.295 -1.2541  0.3991  0.6352
11123SOL    HW250980   9.950  12.719   6.202  0.3378 -0.2377 -0.2680
11124SOL     OW50981  13.844   4.883   8.886  0.5852 -0.0432  0.4542
11124SOL    HW150982  13.847   4.883   8.981  0.4929  1.2949  0.4769
11124SOL    HW250983  13.931   4.916   8.860  0.6866 -0.6017  0.0661
11125SOL     OW50984  13.206   5.147   6.841 -0.1242  0.0602  0.1231
11125SOL    HW150985  13.245   5.134   6.927  0.3934  0.9801  0.0361
11125SOL    HW250986  13.198   5.059   6.805 -0.0994 -0.3092  1.0000
11126SOL     OW50987   2.141   8.585  13.451 -0.7265  0.0178 -0.2808
11126SOL    HW150988   2.104   8.555  13.534 -0.9010 -0.6542 -0.5990
11126SOL    HW250989   2.067   8.590  13.392 -0.2009 -2.4087 -1.2433
11127SOL     OW50990   8.261   8.337  11.993 -0.0918 -0.5514  0.3984
11127SOL    HW150991   8.321   8.267  11.966 -1.0353 -0.9769 -0.7177
11127SOL    HW250992   8.178   8.291  12.011 -1.2620  0.4051 -2.0997
11128SOL     OW50993  10.437   0.725   2.443  0.6161 -0.2512 -0.2650
11128SOL    HW150994  10.360   0.776   2.419 -0.7349 -2.5687 -1.1413
11128SOL    HW250995  10.457   0.753   2.533 -0.3821  1.3607 -0.5016
11129SOL     OW50996   0.454   7.676  10.114  0.5617  0.1802  0.1499
11129SOL    HW150997   0.414   7.634  10.190  2.1354 -0.0676  0.8821
11129SOL    HW250998   0.515   7.740  10.151 -0.0209  1.4202 -0.9357
11130SOL     OW50999  13.656   3.713  10.637  0.4116 -0.0519  0.2622
11130SOL    HW151000  13.715   3.671  10.701  0.6797  0.5323  0.4048
11130SOL    HW251001  13.621   3.641  10.586 -1.6857 -0.8562  2.5915
11131SOL     OW51002   6.311   1.645   4.847 -0.2352  0.0333 -0.3138
11131SOL    HW151003   6.276   1.620   4.761  0.8632  2.0486 -1.4195
11131SOL    HW251004   6.373   1.575   4.869  0.3067  0.0347 -1.7252
11132SOL     OW51005   0.121  10.306   3.621 -0.7958  0.3600  0.2258
11132SOL    HW151006   0.189  10.363   3.656  0.1082  0.7873 -2.0474
11132SOL    HW251007   0.107  10.338   3.532 -1.8668 -1.5744 -0.3506
11133SOL     OW51008   6.202   8.808   4.735  0.2187  0.0209  0.3139
11133SOL    HW151009   6.289   8.786   4.702  0.8664  1.5369  0.9199
11133SOL    HW251010   6.215   8.828   4.827 -0.5904  1.1636  0.2158
11134SOL     OW51011   8.888  11.186  11.264  0.4096  0.2077 -0.6180
11134SOL    HW151012   8.839  11.240  11.326  0.3187  1.1560 -1.4811
11134SOL    HW251013   8.963  11.154  11.314  0.5473  1.2706 -0.1212
11135SOL     OW51014  12.210   6.871  10.066 -0.1175  0.7579 -0.0337
11135SOL    HW151015  12.153   6.825  10.005  0.2336 -0.1989  0.3376
11135SOL    HW251016  12.190   6.831  10.151 -0.2903  1.7676  0.4076
11136SOL     OW51017   8.543   6.855   0.498  0.7062  0.1214  0.0625
11136SOL    HW151018   8.450   6.867   0.518  1.0397  1.6300  0.8317
11136SOL    HW251019   8.557   6.761   0.509 -1.0836 -0.4244 -1.7197
11137SOL     OW51020   9.336   5.757   7.278 -0.0739  0.1375  0.4351
11137SOL    HW151021   9.290   5.693   7.223  2.1994 -0.4787 -0.9056
11137SOL    HW251022   9.287   5.838   7.266 -1.7073 -0.8194  0.3560
11138SOL     OW51023   9.039   2.404  13.824 -0.0886 -0.3892  0.2037
11138SOL    HW151024   9.101   2.477  13.832 -0.2569  0.0570 -1.8342
11138SOL    HW251025   8.978   2.416  13.897  0.2299  1.1798  0.2594
11139SOL     OW51026   5.961   0.920   6.607  0.7014 -0.1440  0.0509
11139SOL    HW151027   6.045   0.966   6.610 -0.6260  2.4572  1.3836
11139SOL    HW251028   5.930   0.921   6.697 -2.9787  3.7304 -0.9342
11140SOL     OW51029   3.116  13.855   2.147  0.1859 -0.5713  0.1276
11140SOL    HW151030   3.158  13.930   2.106 -0.1866 -0.0584  0.6681
11140SOL    HW251031   3.187  13.794   2.164  0.3295 -0.8632 -1.3954
11141SOL     OW51032   2.913   4.925   9.753 -0.1990  0.5491  0.6690
11141SOL    HW151033   2.895   4.887   9.839  2.2383 -2.9965 -0.1574
11141SOL    HW251034   2.841   4.894   9.698 -0.1369  0.1676  0.7979
11142SOL     OW51035  10.891   4.349   2.329 -0.3967 -0.0534 -0.2815
11142SOL    HW151036  10.912   4.409   2.257 -1.2602 -0.0008 -0.4980
11142SOL    HW251037  10.921   4.395   2.407  1.4350 -0.5125 -0.6440
11143SOL     OW51038   9.679  11.694  12.561  0.1829 -0.2477 -0.5779
11143SOL    HW151039   9.718  11.732  12.640 -1.8146 -0.2429  0.4661
11143SOL    HW251040   9.742  11.628  12.533  0.3706 -1.2139  1.8292
11144SOL     OW51041  10.700   0.739   1.523  0.1201  0.6616 -0.0347
11144SOL    HW151042  10.702   0.719   1.616  0.5173  0.6229 -0.0476
11144SOL    HW251043  10.789   0.766   1.503  0.3931 -0.6109 -0.6747
11145SOL     OW51044  13.858   7.666   3.630  0.6052  0.4918  0.7717
11145SOL    HW151045  13.767   7.692   3.616 -0.2322 -2.0069  0.9551
11145SOL    HW251046  13.869   7.590   3.572  1.6536 -0.9814  2.7687
11146SOL     OW51047   0.428   1.585   7.092 -0.0608 -1.0611  0.0003
11146SOL    HW151048   0.393   1.669   7.064  1.0742 -0.2477  0.9030
11146SOL    HW251049   0.366   1.553   7.158  0.3721 -0.1077  0.8841
11147SOL     OW51050   6.810   3.497   8.898  0.5929  0.2249  0.4381
11147SOL    HW151051   6.850   3.423   8.944 -1.0375 -0.5312  0.7143
11147SOL    HW251052   6.884   3.553   8.874  1.7430 -0.7885  1.4615
11148SOL     OW51053   3.136   5.636   2.640 -0.2084  0.8755 -0.4449
11148SOL    HW151054   3.199   5.691   2.687  0.3412  0.9299 -1.2180
11148SOL    HW251055   3.068   5.616   2.705  1.6076 -0.8983  1.0378
11149SOL     OW51056   5.633   0.121   3.475 -0.0563 -0.5633 -0.3020
11149SOL    HW151057   5.603   0.124   3.384  0.9239  0.7841 -0.6108
11149SOL    HW251058   5.701   0.054   3.475 -1.3586 -1.9330 -0.1141
11150SOL     OW51059   7.475   7.621   1.336  0.4518  0.1917 -0.3155
11150SOL    HW151060   7.550   7.586   1.384  0.4776  0.3949 -0.2086
11150SOL    HW251061   7.462   7.709   1.372 -0.1379 -0.0245  0.0145
11151SOL     OW51062  10.897   1.372   8.915  0.6244  0.1537 -0.3143
11151SOL    HW151063  10.991   1.377   8.932  0.5151 -0.3677  0.4917
11151SOL    HW251064  10.870   1.463   8.901  1.5322  0.1620 -2.2052
11152SOL     OW51065   6.629   6.416   1.686  0.0448  0.0742 -0.5473
11152SOL    HW151066   6.703   6.423   1.625  0.5951  0.4538  0.1463
11152SOL    HW251067   6.590   6.503   1.686  1.3113  0.6975  1.1750
11153SOL     OW51068   8.374   7.122   9.278  0.0048  0.1890  0.2893
11153SOL    HW151069   8.382   7.106   9.184 -0.4119 -0.2823  0.3269
11153SOL    HW251070   8.459   7.158   9.304 -0.2587  1.4019 -0.4636
11154SOL     OW51071   3.455   7.350   6.270 -0.0622 -0.6445 -0.1557
11154SOL    HW151072   3.457   7.279   6.205 -0.2832 -1.5537  0.8103
11154SOL    HW251073   3.504   7.421   6.228 -0.9682 -0.8682 -1.6903
11155SOL     OW51074   9.885  13.507   4.436 -0.4760  0.6218  0.1888
11155SOL    HW151075   9.912  13.527   4.526 -0.6406  1.0506  0.1441
11155SOL    HW251076   9.823  13.576   4.413  1.9459  2.4256 -1.3843
11156SOL     OW51077   4.393  13.990   2.080 -0.1799 -0.0652 -0.3484
11156SOL    HW151078   4.451  14.017   2.151  0.2854 -1.4671 -0.1747
11156SOL    HW251079   4.451  13.976   2.005 -0.5179  0.2054 -0.6641
11157SOL     OW51080   1.576   2.299   1.588 -0.5241 -0.4285  0.1394
11157SOL    HW151081   1.486   2.271   1.571 -0.6087  0.1615 -0.4308
11157SOL    HW251082   1.604   2.340   1.506  0.4043 -0.9601  0.1782
11158SOL     OW51083  12.942   6.221   1.890 -0.2191  0.0872 -0.4941
11158SOL    HW151084  13.025   6.195   1.929 -0.2033  1.3910  0.4122
11158SOL    HW251085  12.950   6.198   1.798  0.8566 -0.4779 -0.2712
11159SOL     OW51086   9.390   6.046  13.695 -0.0393 -0.5252  0.3794
11159SOL    HW151087   9.311   6.005  13.659 -0.3744  0.4907 -0.0998
11159SOL    HW251088   9.395   6.131  13.650 -0.8683  1.1684  3.2057
11160SOL     OW51089   7.163  13.424   3.113  0.2721  0.1281 -0.1997
11160SOL    HW151090   7.165  13.519   3.100  1.7688  0.0989 -0.3778
11160SOL    HW251091   7.255  13.398   3.108 -0.1871 -1.4427 -0.9856
11161SOL     OW51092  10.725  13.326   1.322 -0.2577 -0.2321  0.0171
11161SOL    HW151093  10.805  13.347   1.371  0.8697 -1.5448 -1.1763
11161SOL    HW251094  10.748  13.344   1.230 -0.8807 -1.8252 -0.4836
11162SOL     OW51095  12.953  10.204  13.177 -0.6327  0.2192 -0.0281
11162SOL    HW151096  12.952  10.268  13.248  1.0814  0.0609  0.1682
11162SOL    HW251097  12.877  10.147  13.194 -0.1118  0.0327  1.8131
11163SOL     OW51098   9.437   5.088   4.761 -0.3185 -0.5029 -0.7208
11163SOL    HW151099   9.423   5.169   4.713  0.1886 -0.6045 -1.0503
11163SOL    HW251100   9.440   5.115   4.853 -1.4245 -0.3277 -0.7270
11164SOL     OW51101   9.710   4.007  11.442 -0.7562  0.8150 -0.5627
11164SOL    HW151102   9.628   3.984  11.399 -1.2853  0.8708  0.3861
11164SOL    HW251103   9.711   4.103  11.442 -1.1601  0.8220  0.2822
11165SOL     OW51104  13.727   9.253  11.738 -0.2219 -0.4087  0.2627
11165SOL    HW151105  13.724   9.345  11.763  1.7729 -0.4830  1.0084
11165SOL    HW251106  13.759   9.208  11.817 -0.7768 -1.6935 -0.2161
11166SOL     OW51107   1.130   5.443   6.417  0.2179 -0.2644 -0.0768
11166SOL    HW151108   1.203   5.505   6.407 -0.4358  0.6716  0.8395
11166SOL    HW251109   1.056   5.496   6.446 -0.4841 -1.4102  0.3162
11167SOL     OW51110  13.375   1.650  12.021  0.4665  0.1272  0.5127
11167SOL    HW151111  13.383   1.568  12.069  2.8361 -0.0951 -0.1101
11167SOL    HW251112  13.282   1.657  11.999  0.3384 -2.9380 -0.3338
11168SOL     OW51113   6.192  12.759  13.877 -0.1050  0.4711  0.3166
11168SOL    HW151114   6.132  12.806  13.936 -0.9753  1.9814 -1.6673
11168SOL    HW251115   6.148  12.677  13.859  0.0483  0.1012  1.5223
11169SOL     OW51116   7.196  11.189   7.170 -0.0327 -0.0743 -0.4908
11169SOL    HW151117   7.289  11.201   7.150 -0.2217  0.0979 -1.3159
11169SOL    HW251118   7.151  11.229   7.096 -0.7512 -1.2634 -0.7173
11170SOL     OW51119  13.881   3.599   4.129  0.0736 -0.6073 -0.5024
11170SOL    HW151120  13.852   3.557   4.210  1.6602 -1.1292 -0.1624
11170SOL    HW251121  13.866   3.692   4.144  0.9387 -0.6387  0.6690
11171SOL     OW51122  10.675   1.411   5.572  0.0526 -0.5765  0.3372
11171SOL    HW151123  10.644   1.335   5.523  0.0396  1.5692 -3.3007
11171SOL    HW251124  10.601   1.471   5.572  1.1152  0.7691  0.1426
11172SOL     OW51125  13.152  10.851   6.197 -0.8311  0.3146 -0.1273
11172SOL    HW151126  13.237  10.810   6.213 -0.2929  1.1954 -0.6522
11172SOL    HW251127  13.091  10.800   6.250 -0.1159 -0.8682 -0.4055
11173SOL     OW51128   9.235   1.498  10.896  0.3195  0.0143 -0.2063
11173SOL    HW151129   9.220   1.426  10.835 -1.6736 -0.1712  0.4469
11173SOL    HW251130   9.262   1.454  10.977 -2.1035 -0.1764  0.5779
11174SOL     OW51131   2.099  11.190   1.370  0.1698 -0.2792  0.0720
11174SOL    HW151132   2.018  11.194   1.320 -1.0109  0.2206  1.9116
11174SOL    HW251133   2.081  11.242   1.449  2.5151  0.4234  0.2328
11175SOL     OW51134   5.482   6.421   0.457  0.3899 -0.2852 -0.5317
11175SOL    HW151135   5.417   6.478   0.498  1.6364  0.6208  0.2283
11175SOL    HW251136   5.527   6.477   0.394 -0.2671 -1.1891 -1.8554
11176SOL     OW51137  12.655   5.719   7.251 -0.0203 -0.2047 -0.6667
11176SOL    HW151138  12.583   5.754   7.199  2.4323  4.4188 -1.4552
11176SOL    HW251139  12.628   5.733   7.342 -1.9950 -3.1972 -0.6511
11177SOL     OW51140  12.375   7.828   9.739  0.0893 -0.2717  0.1252
11177SOL    HW151141  12.287   7.810   9.773  0.5142 -0.6571  1.0347
11177SOL    HW251142  12.430   7.835   9.816  0.9239 -0.3392 -0.4526
11178SOL     OW51143   0.027   6.617   9.286  0.1659  0.1341 -0.1222
11178SOL    HW151144   0.109   6.657   9.259 -0.2409  1.0104 -0.0959
11178SOL    HW251145  -0.022   6.688   9.329 -0.7928 -0.2395 -0.5579
11179SOL     OW51146   2.551   0.250   9.282 -0.1660 -0.3141 -0.1316
11179SOL    HW151147   2.506   0.178   9.237 -0.5909  0.6987 -1.3986
11179SOL    HW251148   2.601   0.207   9.351 -0.7016 -1.7880 -0.6075
11180SOL     OW51149  13.836   2.416  13.142 -0.6133 -0.1053  0.2939
11180SOL    HW151150  13.873   2.352  13.204 -2.6007 -1.6823 -0.0534
11180SOL    HW251151  13.861   2.501  13.178  1.8762 -1.0151  0.9549
11181SOL     OW51152  10.149   9.152   0.625  0.4879 -0.0390  0.1023
11181SOL    HW151153  10.155   9.128   0.532 -1.1470  1.1931 -0.3618
11181SOL    HW251154  10.055   9.156   0.643  0.7748  0.0724  1.7362
11182SOL     OW51155   3.494   3.223   4.041  0.1362 -0.1097  0.1370
11182SOL    HW151156   3.498   3.237   3.947  2.0924 -0.4961  0.1151
11182SOL    HW251157   3.543   3.296   4.079  0.3843 -0.5861  0.7684
11183SOL     OW51158   9.585   3.171   2.143  0.1227 -0.3314 -0.0064
11183SOL    HW151159   9.566   3.175   2.049  2.6759 -0.7226 -0.5905
11183SOL    HW251160   9.671   3.210   2.152 -1.6794  3.7156  2.8350
11184SOL     OW51161   4.306   7.270   2.479  0.9543 -0.4315 -0.2910
11184SOL    HW151162   4.387   7.300   2.520  0.3902  0.4748  0.1806
11184SOL    HW251163   4.335   7.207   2.412  2.2728  1.9066 -2.0826
11185SOL     OW51164   3.423  10.621  11.624  0.0875 -0.1324 -0.1846
11185SOL    HW151165   3.508  10.630  11.668  0.0879  0.4169 -0.2906
11185SOL    HW251166   3.439  10.649  11.534 -0.1776 -0.1558 -0.2402
11186SOL     OW51167   8.540   7.890   8.262  0.0571  0.3037 -0.3767
11186SOL    HW151168   8.579   7.812   8.222 -1.4823 -0.6065 -0.1824
11186SOL    HW251169   8.446   7.873   8.261 -0.2384  1.6844  0.6943
11187SOL     OW51170   9.196   9.785   3.189  0.1678 -0.4917 -0.1163
11187SOL    HW151171   9.111   9.827   3.200  0.5191  0.6552 -1.4979
11187SOL    HW251172   9.208   9.733   3.269 -1.8678 -0.7982  0.0365
11188SOL     OW51173  10.948   4.314   8.689 -0.1490  0.4491 -0.5682
11188SOL    HW151174  11.037   4.282   8.702 -0.9458 -1.7958 -0.1725
11188SOL    HW251175  10.892   4.241   8.716 -2.2162  2.8262  2.3664
11189SOL     OW51176  12.142   3.514   4.152  0.0457  0.1250 -0.0942
11189SOL    HW151177  12.106   3.432   4.118 -1.7044 -0.3252  2.5033
11189SOL    HW251178  12.076   3.580   4.128  0.2128  0.3113 -0.0402
11190SOL     OW51179   0.355   4.139   0.940  0.2513  0.1494 -0.0626
11190SOL    HW151180   0.431   4.098   0.982  1.1580  1.2454 -0.5743
11190SOL    HW251181   0.374   4.233   0.945 -1.4596  0.4951  0.5193
11191SOL     OW51182   3.535  12.967   3.645  0.0510 -0.2002 -0.6809
11191SOL    HW151183   3.605  12.922   3.597 -0.3054  0.8939 -2.3353
11191SOL    HW251184   3.573  13.052   3.669 -0.3651 -0.0164 -0.6554
11192SOL     OW51185   1.979   4.021   7.759  0.0934  0.4933 -0.5950
11192SOL    HW151186   2.041   4.038   7.830 -2.4188  1.0811  1.6000
11192SOL    HW251187   1.977   4.102   7.709 -0.5508  1.2987  0.6899
11193SOL     OW51188   0.378   0.639   9.423 -0.2361  0.4973 -0.8713
11193SOL    HW151189   0.296   0.686   9.434 -0.2527 -0.0710  2.6586
11193SOL    HW251190   0.386   0.626   9.328 -3.6275  1.5140 -1.4387
11194SOL     OW51191   3.547   1.846   6.338  0.1228 -0.0919  0.1675
11194SOL    HW151192   3.455   1.820   6.342 -0.3806  1.4965 -0.5546
11194SOL    HW251193   3.591   1.772   6.294 -0.8656 -0.6703  0.1303
11195SOL     OW51194   0.428   5.738   7.158  0.2146  0.4640 -0.2059
11195SOL    HW151195   0.443   5.665   7.218 -3.8620  0.0248  0.5515
11195SOL    HW251196   0.443   5.702   7.071  2.3105  0.0019  0.2846
11196SOL     OW51197   6.592   4.468   0.959  0.1369 -0.2220  0.0997
11196SOL    HW151198   6.501   4.490   0.944  0.0885 -0.4001  0.1236
11196SOL    HW251199   6.630   4.461   0.871  0.1841  0.0851  0.0965
11197SOL     OW51200   5.018   7.349  13.052  0.3092 -0.3134 -0.1532
11197SOL    HW151201   5.009   7.312  12.964  0.0674  0.2671 -0.3822
11197SOL    HW251202   5.109   7.333  13.076  0.5281  0.0008 -0.7384
11198SOL     OW51203  13.315  12.070   2.861  0.0354 -0.2308  0.3227
11198SOL    HW151204  13.379  12.139   2.846  0.9033 -1.4724 -2.3306
11198SOL    HW251205  13.234  12.103   2.823  0.2462 -0.3475 -0.2373
11199SOL     OW51206   1.853   7.461  11.905  0.6084  0.1644  0.3134
11199SOL    HW151207   1.893   7.375  11.889 -2.1719 -1.1362 -0.1536
11199SOL    HW251208   1.880   7.514  11.830  2.0871 -0.3859  0.4283
11200SOL     OW51209   4.620  10.925   5.684  0.3678  0.1952 -0.2226
11200SOL    HW151210   4.638  10.993   5.748 -0.7198  1.9170 -1.6338
11200SOL    HW251211   4.705  10.904   5.645  0.7769  0.3672  0.5736
11201SOL     OW51212  11.408  12.401  13.795  0.4216  0.1396  0.0469
11201SOL    HW151213  11.377  12.444  13.875  0.3755 -1.2887  0.8345
11201SOL    HW251214  11.473  12.338  13.825 -1.7468 -2.6391 -0.5650
11202SOL     OW51215   3.157  12.682   8.532  0.0588 -0.1656  0.2204
11202SOL    HW151216   3.099  12.742   8.578 -0.4172  0.1441 -0.7537
11202SOL    HW251217   3.123  12.680   8.442  0.1458 -1.7725  0.1927
11203SOL     OW51218   5.348  13.781  12.777 -0.5260 -0.1352  0.2375
11203SOL    HW151219   5.292  13.739  12.842 -0.0630 -2.1971 -0.6451
11203SOL    HW251220   5.434  13.742  12.790  0.5244  2.1929  0.8397
11204SOL     OW51221   3.522  13.424   1.652  0.1574 -0.2350  0.5640
11204SOL    HW151222   3.509  13.330   1.639 -3.4728  0.2137 -0.2436
11204SOL    HW251223   3.492  13.440   1.741  1.2104  0.1369  0.8660
11205SOL     OW51224   5.284  13.598   6.522  0.0159  0.0634 -0.0739
11205SOL    HW151225   5.340  13.674   6.514 -0.0756  0.0323 -1.1831
11205SOL    HW251226   5.286  13.576   6.615  0.2790  1.2309  0.2114
11206SOL     OW51227   0.709  13.297  13.449  0.0831  0.2932  0.1346
11206SOL    HW151228   0.767  13.222  13.436  0.8830  0.4870  2.2435
11206SOL    HW251229   0.630  13.275  13.400  1.1275 -0.9124 -1.0900
11207SOL     OW51230   3.844   0.108   9.493 -0.4604 -0.2813  0.0936
11207SOL    HW151231   3.923   0.059   9.517  0.4372  0.8136 -0.5094
11207SOL    HW251232   3.867   0.149   9.410 -0.8946  1.7518  0.9346
11208SOL     OW51233   1.891   2.620   3.737 -0.2965  0.4605  0.0315
11208SOL    HW151234   1.938   2.563   3.797  0.5100  0.9569 -0.1172
11208SOL    HW251235   1.817   2.567   3.707  1.5049 -1.3000 -1.6593
11209SOL     OW51236  12.670   5.058   9.168 -0.3762 -0.2421  0.3083
11209SOL    HW151237  12.744   4.999   9.180  0.7339  0.1573 -3.3867
11209SOL    HW251238  12.708   5.141   9.140 -2.1363  0.2434 -0.8526
11210SOL     OW51239   3.204   1.345  10.972 -0.9760 -0.4990 -0.4748
11210SOL    HW151240   3.278   1.365  11.030 -1.8552  0.3485  0.4025
11210SOL    HW251241   3.245   1.317  10.890  0.3170  0.1757 -0.0973
11211SOL     OW51242  13.270   3.056  10.540  1.2067 -0.0534 -1.1737
11211SOL    HW151243  13.221   2.974  10.537  1.1726 -0.2757  1.8501
11211SOL    HW251244  13.249   3.100  10.458  0.7548 -2.7757 -2.6276
11212SOL     OW51245   6.494   3.560  13.230  0.0997 -0.2139 -0.4182
11212SOL    HW151246   6.452   3.478  13.253  1.5625 -1.3542 -1.6158
11212SOL    HW251247   6.443   3.594  13.156  0.7907 -1.2022 -1.3711
11213SOL     OW51248   0.086   7.141   8.863 -0.4882 -0.1279 -0.5214
11213SOL    HW151249   0.141   7.095   8.799  0.8222  0.6941 -0.0393
11213SOL    HW251250   0.118   7.231   8.862 -0.2212 -0.1481  1.4769
11214SOL     OW51251   8.410  13.847  12.546 -0.3458  0.1913 -0.4727
11214SOL    HW151252   8.463  13.842  12.467 -0.3661 -1.2478 -0.4210
11214SOL    HW251253   8.366  13.762  12.551  0.2026 -0.0397  1.4473
11215SOL     OW51254   2.644   0.198   4.865 -0.4523 -0.2209  0.1044
11215SOL    HW151255   2.639   0.285   4.825 -0.4411 -0.5727 -0.6807
11215SOL    HW251256   2.736   0.173   4.859 -0.6088 -0.6724 -0.5294
11216SOL     OW51257   1.400  11.262   4.621 -0.4384  0.2920 -0.8603
11216SOL    HW151258   1.448  11.344   4.629  0.3839 -0.3227  1.4110
11216SOL    HW251259   1.320  11.275   4.671 -1.0995  0.2211 -1.8659
11217SOL     OW51260   0.200  12.670  12.870  0.1127 -0.9047 -0.0206
11217SOL    HW151261   0.217  12.639  12.959  0.1890 -0.6496  0.0539
11217SOL    HW251262   0.110  12.701  12.873  0.0755 -1.0092 -0.0635
11218SOL     OW51263  10.046   9.751   5.827 -0.0690  0.0376  0.4675
11218SOL    HW151264  10.015   9.811   5.759 -0.3774  0.3839  0.9098
11218SOL    HW251265  10.120   9.706   5.787 -0.8523 -0.4794 -0.4637
11219SOL     OW51266   3.649  12.791  10.789  0.0282  0.0187  0.8792
11219SOL    HW151267   3.707  12.774  10.715  1.0035 -0.0368  1.6318
11219SOL    HW251268   3.612  12.878  10.772  2.1960  1.1561  1.5118
11220SOL     OW51269   5.406   9.644   1.269 -0.2950 -0.5215  0.1917
11220SOL    HW151270   5.363   9.710   1.214 -1.0270 -1.3227 -0.2211
11220SOL    HW251271   5.450   9.695   1.337  2.5307  0.7320 -2.2951
11221SOL     OW51272   5.810   1.624  10.250 -0.1430  0.0011 -0.3554
11221SOL    HW151273   5.811   1.613  10.345 -1.7131 -1.6990 -0.4710
11221SOL    HW251274   5.839   1.714  10.235 -1.7712  0.9696  1.8680
11222SOL     OW51275   9.598   4.523   7.215 -0.4528  0.2044 -0.0088
11222SOL    HW151276   9.545   4.571   7.278 -0.9139  0.1251 -0.3262
11222SOL    HW251277   9.684   4.514   7.256 -0.7433  0.1707  0.5890
11223SOL     OW51278   6.412   6.749   1.907 -0.0601  0.2938 -0.2263
11223SOL    HW151279   6.443   6.659   1.906 -1.9011 -0.3876 -0.0558
11223SOL    HW251280   6.369   6.762   1.822 -0.3980  0.7742  0.0080
11224SOL     OW51281   1.098   2.610  11.485 -0.4583 -0.1226 -0.1721
11224SOL    HW151282   1.111   2.656  11.402  0.2694  0.0375  0.0304
11224SOL    HW251283   1.136   2.523  11.470  4.0358  1.2970  1.4014
11225SOL     OW51284   6.642   7.480  13.338 -0.0895  0.2281 -0.8057
11225SOL    HW151285   6.631   7.565  13.293  1.2045  0.9193  0.1281
11225SOL    HW251286   6.735   7.460  13.329  0.0260 -0.0479  0.7899
11226SOL     OW51287   9.661   5.756   5.878  0.0796  0.4461  0.2230
11226SOL    HW151288   9.566   5.760   5.868 -0.0131 -0.3133  0.7343
11226SOL    HW251289   9.695   5.787   5.794 -0.6299 -2.4247 -1.2372
11227SOL     OW51290   5.004   2.493  11.016  0.3260  0.2376 -0.1965
11227SOL    HW151291   4.987   2.582  10.984 -4.0592  0.4702  2.0614
11227SOL    HW251292   4.930   2.441  10.984  1.0196 -1.8047  1.2786
11228SOL     OW51293  13.807   9.358   1.555  0.1066  0.1359 -0.1069
11228SOL    HW151294  13.894   9.397   1.541  0.3340 -0.9788 -2.2733
11228SOL    HW251295  13.782   9.386   1.643  1.8662  1.9976 -0.1179
11229SOL     OW51296  12.425  10.754   4.680  0.0293 -0.3997 -0.6472
11229SOL    HW151297  12.354  10.741   4.744  1.8219  1.0779  1.8085
11229SOL    HW251298  12.488  10.686   4.702 -0.1471 -1.0957 -2.1887
11230SOL     OW51299   8.164   3.717   0.281 -0.0984  0.0495 -0.3240
11230SOL    HW151300   8.151   3.689   0.372  1.2459 -0.2935 -0.2040
11230SOL    HW251301   8.242   3.669   0.253  0.0700  0.8856 -1.3413
11231SOL     OW51302   8.103   8.443   7.721  0.3382  0.4131  0.0044
11231SOL    HW151303   8.013   8.474   7.725 -0.0614 -0.6620 -0.3530
11231SOL    HW251304   8.102   8.360   7.769  1.0623  0.2132 -0.3072
11232SOL     OW51305   4.696   1.306   3.988  0.2502  0.7226  0.5670
11232SOL    HW151306   4.790   1.295   3.973  0.0963  1.1658 -0.7995
11232SOL    HW251307   4.659   1.219   3.974  0.4169  0.6074  0.8327
11233SOL     OW51308  10.497   4.518  10.553 -0.3856 -0.0151 -0.6140
11233SOL    HW151309  10.465   4.516  10.463 -0.9799 -0.0110 -0.4078
11233SOL    HW251310  10.485   4.428  10.584 -0.4726  0.0544 -0.4445
11234SOL     OW51311   3.791   6.237   5.764 -0.2772  0.7097 -0.3824
11234SOL    HW151312   3.861   6.177   5.791  0.3623  0.8845 -1.5888
11234SOL    HW251313   3.760   6.275   5.846 -0.3589 -0.8863  0.3706
11235SOL     OW51314  11.211   9.940   2.078 -0.1793 -0.8424  0.0206
11235SOL    HW151315  11.137   9.878   2.074 -3.2476  2.4589  0.8087
11235SOL    HW251316  11.233   9.944   2.171  1.3434 -2.0834 -0.2549
11236SOL     OW51317   1.463   3.965   1.585  0.1755 -0.1951  0.1524
11236SOL    HW151318   1.436   3.882   1.544  0.0637  0.4916 -1.2281
11236SOL    HW251319   1.387   4.022   1.577  0.6778  0.4546 -0.0715
11237SOL     OW51320  10.032   2.668   6.571  0.2205  1.1028 -0.0861
11237SOL    HW151321  10.077   2.704   6.495  0.0385  1.0700 -0.2112
11237SOL    HW251322  10.023   2.575   6.552  0.7065  0.9829  0.2463
11238SOL     OW51323   4.007  12.227   9.861  0.3478 -0.4976 -0.3170
11238SOL    HW151324   4.009  12.173   9.782 -1.8178 -0.7075 -0.2904
11238SOL    HW251325   4.070  12.185   9.920 -0.2023 -2.1380 -0.8362
11239SOL     OW51326   0.901   6.463   7.749  0.2714  0.2112 -0.3709
11239SOL    HW151327   0.893   6.477   7.843  1.6458 -0.6323 -0.0896
11239SOL    HW251328   0.811   6.453   7.718 -0.1942  0.3778  0.8663
11240SOL     OW51329   0.268   0.257   2.668 -0.1594  0.4226 -0.0129
11240SOL    HW151330   0.361   0.266   2.688 -0.1215  0.8391 -0.3684
11240SOL    HW251331   0.260   0.291   2.579 -0.5323 -0.2503 -0.2465
11241SOL     OW51332   2.686   1.019   6.419 -0.1170 -0.3621  0.0056
11241SOL    HW151333   2.599   1.006   6.383  0.3721 -0.4619 -1.2009
11241SOL    HW251334   2.718   1.098   6.377  0.3671 -0.3058  0.4644
11242SOL     OW51335   9.752   6.149  11.915 -0.5904  0.3786  0.2435
11242SOL    HW151336   9.694   6.162  11.839 -0.2968  0.6404  0.0622
11242SOL    HW251337   9.810   6.225  11.913  0.7477 -0.6247 -0.4553
11243SOL     OW51338   6.932   3.019   4.900 -0.0929 -0.0517  0.2849
11243SOL    HW151339   6.904   2.928   4.888 -0.3834 -0.0568  0.9211
11243SOL    HW251340   6.880   3.069   4.837  0.0242 -0.3179 -0.0241
11244SOL     OW51341   5.331   1.932  13.830 -0.2121  0.0657 -0.1916
11244SOL    HW151342   5.356   2.012  13.785 -1.2190  0.1927 -0.5586
11244SOL    HW251343   5.350   1.862  13.767 -0.1690  0.0955 -0.2116
11245SOL     OW51344   2.253   4.766   9.599  0.4535 -0.2103 -0.0416
11245SOL    HW151345   2.229   4.725   9.516 -2.3874 -0.1993  0.6574
11245SOL    HW251346   2.216   4.854   9.594  1.5309  0.3054  0.6806
11246SOL     OW51347   1.195   6.170   9.272  0.1488  0.1567 -0.2841
11246SOL    HW151348   1.237   6.219   9.202  0.0623 -0.1735 -0.5738
11246SOL    HW251349   1.185   6.233   9.343  1.5978  0.1052 -0.0153
11247SOL     OW51350   4.235  10.940   2.078  0.0392  0.0399 -0.5418
11247SOL    HW151351   4.272  10.977   2.158 -2.7277 -1.2073  1.4843
11247SOL    HW251352   4.163  10.999   2.055 -0.2534 -0.5352 -1.1415
11248SOL     OW51353   7.413   8.307   2.017  0.2862 -0.7293  0.2139
11248SOL    HW151354   7.483   8.305   1.951  0.2116 -1.4702  0.1497
11248SOL    HW251355   7.455   8.343   2.095  0.3870  0.1253 -0.2151
11249SOL     OW51356   2.002  10.370   6.434  0.6147 -0.0002 -0.7801
11249SOL    HW151357   2.046  10.455   6.443 -1.0503  1.2421 -3.2066
11249SOL    HW251358   2.045  10.328   6.360  0.0018 -0.2867 -0.9824
11250SOL     OW51359  12.241   7.683   3.264  0.2778 -0.8202 -0.1103
11250SOL    HW151360  12.153   7.717   3.282 -0.7075 -2.8583 -0.7284
11250SOL    HW251361  12.298   7.729   3.326 -1.2061  0.5872  0.2710
11251SOL     OW51362  12.134  13.267   1.067  0.1388 -0.1085  0.4193
11251SOL    HW151363  12.115  13.215   0.989 -0.1468 -0.5979  0.8124
11251SOL    HW251364  12.227  13.253   1.083  0.4522  0.8385 -0.4435
11252SOL     OW51365   4.177   5.418   8.832  0.8472 -0.2619 -0.0071
11252SOL    HW151366   4.220   5.486   8.885 -0.2101  1.2219 -0.9862
11252SOL    HW251367   4.163   5.346   8.893  0.6827  0.9590  1.4474
11253SOL     OW51368   1.551   1.395  12.766 -0.1111 -0.3550 -0.0547
11253SOL    HW151369   1.597   1.314  12.787 -1.3827 -0.5210  2.3452
11253SOL    HW251370   1.592   1.461  12.821 -0.8241  0.0871 -0.0406
11254SOL     OW51371   2.493  10.055   8.432 -0.0448 -0.8313 -0.0126
11254SOL    HW151372   2.570  10.108   8.413 -0.9373  0.4413 -0.2299
11254SOL    HW251373   2.504  10.027   8.523 -1.2040  2.7952  1.4215
11255SOL     OW51374   3.438  12.194  10.246  0.4441  0.7525  0.3666
11255SOL    HW151375   3.459  12.141  10.323  2.3628  0.5505 -0.2577
11255SOL    HW251376   3.473  12.145  10.172  1.0187  2.2189 -0.3775
11256SOL     OW51377   2.669   1.927  13.715  0.4800  0.2614  0.4050
11256SOL    HW151378   2.697   1.954  13.802 -1.4284 -0.1854  1.2108
11256SOL    HW251379   2.678   2.005  13.661  3.4215  0.0752  0.4962
11257SOL     OW51380   2.611   5.736   8.022 -0.0750  0.2350  0.1556
11257SOL    HW151381   2.635   5.671   8.089 -0.8292 -2.3405 -1.9247
11257SOL    HW251382   2.515   5.736   8.022 -0.1123  2.0113  0.6371
11258SOL     OW51383   2.641   2.058  13.960 -0.0892  0.0136  0.7861
11258SOL    HW151384   2.662   2.110  14.037 -0.3700  0.1568  0.7678
11258SOL    HW251385   2.594   1.982  13.994 -2.1429  1.1055  0.6109
11259SOL     OW51386  12.597   7.167   0.948  0.5827 -0.2834 -0.2805
11259SOL    HW151387  12.614   7.207   0.863  0.0856 -0.1781 -0.3328
11259SOL    HW251388  12.625   7.232   1.012  1.1965 -0.4636 -0.3584
11260SOL     OW51389   5.334  13.461  13.863  0.2277 -0.1000 -0.3769
11260SOL    HW151390   5.371  13.402  13.797 -0.8069  0.7536 -1.7566
11260SOL    HW251391   5.388  13.445  13.941 -0.0971 -2.9471 -0.6325
11261SOL     OW51392  12.345   5.919  13.529  0.2342 -0.4238  0.0427
11261SOL    HW151393  12.430   5.911  13.573 -0.0749 -1.1509  0.5246
11261SOL    HW251394  12.344   6.009  13.496  1.7998 -0.8461 -1.2752
11262SOL     OW51395   9.498   0.871   8.959 -0.2959  0.3416 -0.1813
11262SOL    HW151396   9.518   0.963   8.973 -3.6502  1.3432 -0.9059
11262SOL    HW251397   9.545   0.848   8.879  0.4614  1.4606 -0.0821
11263SOL     OW51398   8.060  12.082   8.385 -0.3396 -0.3902  0.1508
11263SOL    HW151399   8.115  12.036   8.322  1.3173 -0.6762  1.7284
11263SOL    HW251400   8.121  12.115   8.452 -1.7522  1.8293  0.4786
11264SOL     OW51401   3.732   5.960  13.460 -0.0169 -0.0235  0.5492
11264SOL    HW151402   3.783   5.886  13.493  0.4129  0.5761  1.2581
11264SOL    HW251403   3.729   6.021  13.533 -1.5871  0.0511  0.4442
11265SOL     OW51404   7.334   3.214   7.790  0.4793 -0.0254  0.0182
11265SOL    HW151405   7.377   3.299   7.792  1.6047 -0.5784  1.1798
11265SOL    HW251406   7.335   3.185   7.882 -0.7201 -0.8755 -0.2200
11266SOL     OW51407   6.005  13.618   9.903  0.0047  0.2780 -0.6276
11266SOL    HW151408   5.917  13.653   9.890 -0.9627 -1.1285  1.5270
11266SOL    HW251409   6.028  13.643   9.993  2.4893  1.8873 -1.5896
11267SOL     OW51410   4.621   3.907   8.014  0.1922 -0.4604  0.4044
11267SOL    HW151411   4.538   3.950   7.995  0.5712 -0.0767 -0.4184
11267SOL    HW251412   4.675   3.975   8.055  0.3900 -0.4659  0.1597
11268SOL     OW51413   7.586   1.568   0.641 -0.3719  0.5091  0.1269
11268SOL    HW151414   7.681   1.556   0.652 -0.1716  1.9656  0.1564
11268SOL    HW251415   7.578   1.623   0.563 -1.3332 -1.4965 -1.2960
11269SOL     OW51416   3.534   5.705   4.131 -0.1439  0.5771  0.3065
11269SOL    HW151417   3.559   5.756   4.054 -1.1964 -1.0346 -1.1783
11269SOL    HW251418   3.617   5.673   4.166  0.2902  0.1249 -1.0585
11270SOL     OW51419  10.408   1.312  13.310  0.0696  0.4079 -0.5702
11270SOL    HW151420  10.328   1.321  13.361  0.0006  0.1628 -0.6356
11270SOL    HW251421  10.473   1.279  13.371  0.2837  1.1735 -0.3681
11271SOL     OW51422   8.900  10.653  11.929  0.1873  0.2322 -0.5922
11271SOL    HW151423   8.919  10.665  11.836 -0.7337  1.0257 -0.6897
11271SOL    HW251424   8.973  10.696  11.974  0.4389  0.1742 -0.9361
11272SOL     OW51425  12.154  12.574   3.653  0.7760 -0.0100  0.2695
11272SOL    HW151426  12.220  12.526   3.603  0.7359 -0.1912  0.3923
11272SOL    HW251427  12.151  12.660   3.611  2.3101  0.5856  1.2863
11273SOL     OW51428  13.771  12.746  12.044 -0.1378  0.1220 -0.2073
11273SOL    HW151429  13.847  12.704  12.002  0.3793 -0.2864  1.0711
11273SOL    HW251430  13.700  12.683  12.032  0.2233 -0.3917  0.2560
11274SOL     OW51431   9.257   1.251   1.214 -0.0734  0.1154  0.0583
11274SOL    HW151432   9.328   1.303   1.251  0.7545  0.1152 -1.4581
11274SOL    HW251433   9.301   1.180   1.167 -1.1384 -1.0255  0.6917
11275SOL     OW51434   6.768   8.019   3.782  0.1703 -0.2042 -0.4667
11275SOL    HW151435   6.717   8.088   3.825  0.5253  0.5179 -1.1826
11275SOL    HW251436   6.748   8.028   3.689  0.8724 -0.5179 -0.6600
11276SOL     OW51437   8.400  12.997  10.971  0.3457 -0.1798  0.2686
11276SOL    HW151438   8.342  12.926  11.000  0.7444 -1.2571 -1.4531
11276SOL    HW251439   8.488  12.960  10.978  0.4392 -0.7924 -2.8438
11277SOL     OW51440   1.278  12.596   3.302  0.4725 -0.0379  0.4026
11277SOL    HW151441   1.358  12.544   3.311  1.7508  2.1593  3.6588
11277SOL    HW251442   1.309  12.686   3.294 -1.7211  0.6446 -1.5383
11278SOL     OW51443  11.211  10.091  10.953  0.8429  0.4370 -0.4375
11278SOL    HW151444  11.225  10.173  11.001  2.1657  1.0784 -1.8275
11278SOL    HW251445  11.229  10.022  11.016 -0.3661  1.1917  0.7861
11279SOL     OW51446   2.787  12.955   7.370 -0.5806 -0.1099  0.0318
11279SOL    HW151447   2.849  12.891   7.404  1.7049  2.2507  0.6889
11279SOL    HW251448   2.731  12.906   7.310  0.9140 -2.6994  0.6399
11280SOL     OW51449   9.487   6.646   5.260 -0.0197  0.1802  0.1257
11280SOL    HW151450   9.465   6.738   5.250 -0.2641  0.0035 -1.2838
11280SOL    HW251451   9.567   6.634   5.209  0.8269 -0.1163  1.4728
11281SOL     OW51452  13.671   3.780   4.562 -0.4512  0.4895 -1.1337
11281SOL    HW151453  13.656   3.747   4.473  0.7811  0.6402 -1.4228
11281SOL    HW251454  13.675   3.875   4.552 -0.7727  0.5327 -0.8393
11282SOL     OW51455   4.642   5.568   0.748  0.6619 -0.0571  0.3602
11282SOL    HW151456   4.616   5.651   0.787  0.0407  0.3908 -0.9354
11282SOL    HW251457   4.735   5.560   0.767  1.4980  2.4842 -2.0781
11283SOL     OW51458   6.383   2.101   8.407 -0.5589 -0.1327  0.2017
11283SOL    HW151459   6.389   2.015   8.450  1.2720  0.6835  1.7271
11283SOL    HW251460   6.291   2.109   8.384 -0.7420 -2.6004 -0.2059
11284SOL     OW51461   0.662  12.191   3.964 -0.1436 -0.2578 -0.4558
11284SOL    HW151462   0.646  12.210   4.056 -0.6052 -0.2640 -0.5319
11284SOL    HW251463   0.599  12.122   3.943  0.3149 -0.6267 -0.6401
11285SOL     OW51464   2.480   5.069  12.612 -0.0618  0.4422  0.2697
11285SOL    HW151465   2.442   4.991  12.653 -0.9786  1.6404  1.8161
11285SOL    HW251466   2.459   5.140  12.672  2.0762  1.6708 -0.3281
11286SOL     OW51467   7.774   9.293   2.897  0.4054  0.4165 -0.6226
11286SOL    HW151468   7.716   9.336   2.834  0.1377 -0.0227 -0.6839
11286SOL    HW251469   7.770   9.348   2.975 -2.6203 -1.2036  0.5430
11287SOL     OW51470  10.841   0.241   1.525  0.2963 -0.3725  0.3624
11287SOL    HW151471  10.805   0.168   1.475  0.0512 -0.6877  0.9825
11287SOL    HW251472  10.882   0.200   1.601  1.5858  0.0214 -0.1006
11288SOL     OW51473  12.396   9.054  11.734 -0.6951  0.1091  0.4391
11288SOL    HW151474  12.364   9.017  11.652 -0.9467 -0.8102  0.9350
11288SOL    HW251475  12.392   9.149  11.721  3.2653  0.1439 -2.1726
11289SOL     OW51476   3.616  10.888   4.396 -0.2492  0.0149  0.2472
11289SOL    HW151477   3.662  10.953   4.343  0.8815 -1.2158 -0.3099
11289SOL    HW251478   3.659  10.893   4.482  0.3242 -0.5072 -0.0094
11290SOL     OW51479   0.108   8.284  13.270 -0.5206  0.6661 -0.0923
11290SOL    HW151480   0.093   8.302  13.178  0.3561 -1.8864 -0.8250
11290SOL    HW251481   0.118   8.189  13.275  2.8910  0.9379  2.0757
11291SOL     OW51482   1.846  10.708   8.173  0.2683 -0.6720  0.5907
11291SOL    HW151483   1.792  10.729   8.249  0.4898 -0.2540  0.6400
11291SOL    HW251484   1.868  10.616   8.182  3.1210  0.0845  2.8841
11292SOL     OW51485   5.793   3.026  12.614 -0.0501 -0.3076  0.3141
11292SOL    HW151486   5.862   3.012  12.549 -1.8286 -0.0472 -1.7398
11292SOL    HW251487   5.786   3.121  12.621 -0.1016 -0.3341  0.6370
11293SOL     OW51488   4.365   4.702   0.598 -0.2385  0.4088  0.2401
11293SOL    HW151489   4.448   4.655   0.596  0.5393  1.6575  1.1092
11293SOL    HW251490   4.385   4.787   0.558 -0.6989  1.2538  1.6908
11294SOL     OW51491   8.247   7.951   0.382  0.5035 -0.5920  0.5498
11294SOL    HW151492   8.275   7.963   0.291 -0.3431 -1.1929  0.1952
11294SOL    HW251493   8.158   7.916   0.375  0.5997 -1.0818  1.6066
11295SOL     OW51494   0.145   6.925   1.569  0.1356  0.2407 -0.4538
11295SOL    HW151495   0.164   6.865   1.641  0.9555  0.1760 -0.7117
11295SOL    HW251496   0.056   6.955   1.586 -0.3507 -1.1520 -0.3949
11296SOL     OW51497  10.518  12.509  10.159 -0.9937  0.4590  0.3653
11296SOL    HW151498  10.489  12.459  10.083  0.2089 -0.5534  0.5389
11296SOL    HW251499  10.609  12.533  10.140 -0.7895  0.5047  1.3114
11297SOL     OW51500   4.860   9.473  13.184  0.2304  0.2573 -0.2102
11297SOL    HW151501   4.932   9.412  13.170  1.7707  2.0558 -0.5447
11297SOL    HW251502   4.903   9.555  13.210 -1.8387  0.7094  2.1939
11298SOL     OW51503   3.780   8.025   9.911 -0.0388 -0.3023 -0.8069
11298SOL    HW151504   3.797   8.101   9.855 -1.1011 -0.7215 -1.7440
11298SOL    HW251505   3.712   8.055   9.971 -0.2108 -0.4003 -0.9507
11299SOL     OW51506  12.537   6.898   7.610  0.1493  0.1631  0.1317
11299SOL    HW151507  12.564   6.971   7.555 -1.2240 -0.3448 -1.3130
11299SOL    HW251508  12.450   6.922   7.641  0.2937 -0.2224  0.8563
11300SOL     OW51509  11.946   3.020  12.752  0.2308 -0.6285  0.3564
11300SOL    HW151510  11.957   3.100  12.700 -1.9287 -1.0144 -0.7872
11300SOL    HW251511  11.852   3.006  12.754  0.5493 -3.0115  0.7449
11301SOL     OW51512  10.431   1.861   7.928 -0.8526 -0.0306 -0.0392
11301SOL    HW151513  10.512   1.847   7.878 -0.6261 -0.9149  0.5584
11301SOL    HW251514  10.439   1.804   8.004 -1.5706  0.6718  0.5862
11302SOL     OW51515   2.425   2.360   1.710  0.1081 -0.1065 -0.2650
11302SOL    HW151516   2.487   2.433   1.697 -0.0531  0.6601  2.5868
11302SOL    HW251517   2.349   2.384   1.657  1.2402  0.2201 -1.8117
11303SOL     OW51518   4.001  11.254  12.723  0.0060 -0.9942 -0.4779
11303SOL    HW151519   4.092  11.236  12.702  0.9182  1.0729  1.2930
11303SOL    HW251520   3.988  11.345  12.693 -0.8379 -0.5786  1.0615
11304SOL     OW51521   2.070  11.632  12.492  0.2132 -0.1041  0.3732
11304SOL    HW151522   2.113  11.717  12.491  0.5876 -0.1731 -3.0645
11304SOL    HW251523   1.977  11.652  12.491  0.2321  0.1650  1.8713
11305SOL     OW51524  12.195  12.834   5.890  0.4288  0.4692  0.5345
11305SOL    HW151525  12.211  12.762   5.951  0.3893  0.6131  0.7139
11305SOL    HW251526  12.102  12.853   5.899  0.2714  0.0246 -0.0847
11306SOL     OW51527   8.143  13.538   5.782  0.2154  0.4321  0.5311
11306SOL    HW151528   8.172  13.473   5.719  1.0206 -0.1101  1.4235
11306SOL    HW251529   8.143  13.621   5.734  1.1587  0.0908 -0.0778
11307SOL     OW51530   0.534  13.632   3.305  0.1652  0.3676  0.1066
11307SOL    HW151531   0.542  13.727   3.307  0.2648  0.4435  4.3611
11307SOL    HW251532   0.624  13.600   3.311  0.2137 -0.1547 -2.1817
11308SOL     OW51533  10.526   2.889   4.401 -0.0764  0.0863  0.0384
11308SOL    HW151534  10.552   2.977   4.374 -0.6902  0.9692  2.1254
11308SOL    HW251535  10.591   2.865   4.467 -0.6817 -0.4738  0.4414
11309SOL     OW51536   5.214   4.021   8.976 -0.0436  0.6570 -0.4355
11309SOL    HW151537   5.272   4.089   8.941  0.5134 -0.4486 -1.7177
11309SOL    HW251538   5.148   4.070   9.024  0.3487  2.1261 -1.3126
11310SOL     OW51539   2.868   6.487   5.579  0.7851  0.4184  0.2500
11310SOL    HW151540   2.816   6.510   5.503 -1.6262 -0.9223  1.4011
11310SOL    HW251541   2.950   6.452   5.543 -0.9322 -1.7542 -1.8335
11311SOL     OW51542   3.305  10.738   0.181  0.0202  0.2642  0.1388
11311SOL    HW151543   3.298  10.786   0.099  0.6203 -0.1009 -0.1361
11311SOL    HW251544   3.355  10.796   0.238  3.1751 -1.0395 -1.0623
11312SOL     OW51545   1.087   7.886   3.141 -0.2023 -0.0403  0.0026
11312SOL    HW151546   1.033   7.820   3.097 -0.2816  1.0447 -1.6044
11312SOL    HW251547   1.165   7.894   3.085  0.1037  0.7536  0.5262
11313SOL     OW51548   8.276  10.767   0.014  0.0083 -0.2568  0.2409
11313SOL    HW151549   8.352  10.793   0.065  0.1838 -0.9699  0.3573
11313SOL    HW251550   8.271  10.831  -0.057  1.6256 -1.0648 -0.6514
11314SOL     OW51551   4.584   3.069   8.912 -0.4022 -0.4121  0.7914
11314SOL    HW151552   4.576   2.974   8.922 -0.1465 -0.3554  1.6257
11314SOL    HW251553   4.677   3.087   8.920 -0.3430 -0.1731 -0.2705
11315SOL     OW51554   9.388   0.240  12.546  0.0044  0.5195 -0.4480
11315SOL    HW151555   9.342   0.253  12.629  1.8636  0.5008  0.6539
11315SOL    HW251556   9.394   0.328  12.508  0.5908  0.8000  0.2687
11316SOL     OW51557  10.487   2.303   6.024 -0.3617 -0.6064 -0.0855
11316SOL    HW151558  10.545   2.340   6.091  0.6034 -1.6303 -0.3130
11316SOL    HW251559  10.424   2.372   6.005  0.7179  0.5087  0.2626
11317SOL     OW51560   8.862   8.701   6.180  0.3041 -0.2049 -0.8223
11317SOL    HW151561   8.787   8.721   6.236  0.8758 -2.3043  0.8487
11317SOL    HW251562   8.824   8.671   6.098 -0.6214  0.7515 -0.7606
11318SOL     OW51563   9.347   2.201   0.906  0.2822 -0.0704 -0.3445
11318SOL    HW151564   9.363   2.289   0.940 -0.4505  0.0229 -0.2369
11318SOL    HW251565   9.266   2.208   0.857  0.5983 -0.5281 -0.9446
11319SOL     OW51566   0.762  12.317   5.799 -1.0270  0.0357  0.6890
11319SOL    HW151567   0.693  12.316   5.732  0.8088  1.3910 -1.3388
11319SOL    HW251568   0.791  12.227   5.805 -2.1164 -0.3344  0.6760
11320SOL     OW51569   4.954   0.076   0.565 -0.0472  0.0418  0.0425
11320SOL    HW151570   4.946   0.031   0.648  1.2141  0.2608  0.3014
11320SOL    HW251571   4.937   0.168   0.585 -2.8391 -0.2506 -0.5222
11321SOL     OW51572  11.254   3.695   0.435 -0.5137  0.2679 -0.1962
11321SOL    HW151573  11.282   3.747   0.510  0.7703 -0.8649  0.1437
11321SOL    HW251574  11.296   3.737   0.360 -0.7666  0.6568 -0.1194
11322SOL     OW51575   9.486   4.030  13.979  0.2180  0.8368  0.0431
11322SOL    HW151576   9.541   3.961  14.018  1.5278  2.5024  1.3272
11322SOL    HW251577   9.399   4.015  14.016  0.3634 -0.3689 -0.0545
11323SOL     OW51578   0.927   9.879   5.735  0.2189 -0.8862 -0.1435
11323SOL    HW151579   1.006   9.829   5.714  1.3542  1.5266 -2.0951
11323SOL    HW251580   0.936   9.960   5.685 -2.9843 -0.0278  0.4623
11324SOL     OW51581   2.194   8.032   2.936 -0.1399 -0.2992  0.1282
11324SOL    HW151582   2.157   8.103   2.884  0.1363 -0.1930  0.0736
11324SOL    HW251583   2.285   8.026   2.908 -0.2437 -0.8936 -0.0991
11325SOL     OW51584   5.883   1.391  14.061  0.1468 -0.3691 -0.0057
11325SOL    HW151585   5.887   1.483  14.035 -0.0784 -0.1787  0.6241
11325SOL    HW251586   5.876   1.393  14.157 -1.0192 -1.0041 -0.0548
11326SOL     OW51587   0.662   7.239   5.004 -0.5661 -0.2934 -0.5726
11326SOL    HW151588   0.618   7.155   5.015 -0.6011 -0.1982  0.0659
11326SOL    HW251589   0.605   7.302   5.048 -0.4724  0.0473 -0.9294
11327SOL     OW51590   2.005  10.983  12.881 -0.0719  0.7641  0.0201
11327SOL    HW151591   2.051  11.065  12.863 -0.3965  1.0318  0.3934
11327SOL    HW251592   1.945  11.004  12.953  1.0672 -0.2292  1.3054
11328SOL     OW51593   9.694   2.671  13.275 -0.2292  0.0076  0.0186
11328SOL    HW151594   9.753   2.617  13.327 -0.6399 -0.8591 -0.3987
11328SOL    HW251595   9.746   2.749  13.254 -0.0954  0.4578  1.8086
11329SOL     OW51596  10.164   6.653  11.732 -0.0759  0.2670 -0.0649
11329SOL    HW151597  10.183   6.629  11.641 -0.6801 -1.6400  0.2688
11329SOL    HW251598  10.220   6.595  11.784  0.1629  1.2476  0.8160
11330SOL     OW51599   9.456   1.248   9.627  0.9295 -0.1334 -0.1664
11330SOL    HW151600   9.475   1.235   9.533 -0.4340 -0.9098 -0.3562
11330SOL    HW251601   9.488   1.168   9.669  1.2597  0.0820 -0.0032
11331SOL     OW51602  12.528  12.363   2.431 -0.1372  0.1985  0.0945
11331SOL    HW151603  12.500  12.453   2.414 -1.8532 -0.3312 -0.0787
11331SOL    HW251604  12.568  12.365   2.518  1.2395  1.3916 -0.5281
11332SOL     OW51605   0.586   5.897   8.857  0.0812 -0.5515  0.2924
11332SOL    HW151606   0.658   5.958   8.842  0.0833 -0.6113  0.0595
11332SOL    HW251607   0.623   5.811   8.840  0.2777 -0.6843  1.3237
11333SOL     OW51608   4.771  13.215   1.050 -0.0299 -0.3428  0.3329
11333SOL    HW151609   4.723  13.297   1.059  1.7588  0.9699 -1.2625
11333SOL    HW251610   4.788  13.187   1.140  0.5201  1.8153  0.9593
11334SOL     OW51611  13.407   5.351   3.901  0.4972  0.4674 -0.2576
11334SOL    HW151612  13.327   5.388   3.864 -0.4400 -0.6714  0.5561
11334SOL    HW251613  13.466   5.426   3.911 -0.2054  1.2149 -1.4977
11335SOL     OW51614   5.419   0.698   3.128  0.2524  0.1375  0.2343
11335SOL    HW151615   5.423   0.790   3.103 -1.7609  0.0660 -0.5298
11335SOL    HW251616   5.352   0.694   3.197 -2.1972 -1.1082 -2.0245
11336SOL     OW51617  10.360  12.149   6.125  0.1803 -0.0846 -0.1595
11336SOL    HW151618  10.434  12.090   6.108  0.9224  1.0961 -1.1787
11336SOL    HW251619  10.364  12.213   6.054 -1.7153  0.1300 -0.1204
11337SOL     OW51620   0.031   6.549   7.251  0.3004  0.0609  0.1009
11337SOL    HW151621   0.016   6.513   7.338  1.2468 -1.0744 -0.1768
11337SOL    HW251622   0.097   6.617   7.264 -1.5962  1.8878  0.6506
11338SOL     OW51623  12.937  13.643   2.748 -0.4240 -0.0766  0.4304
11338SOL    HW151624  12.849  13.661   2.779  0.3751  1.0606  2.2137
11338SOL    HW251625  12.956  13.715   2.687 -1.1655 -1.0533 -1.0077
11339SOL     OW51626   8.519  13.300   4.605 -0.0902 -0.4146 -0.2634
11339SOL    HW151627   8.443  13.358   4.592  0.3072 -0.0321 -0.9684
11339SOL    HW251628   8.493  13.241   4.676 -0.4748  0.6785  0.5299
11340SOL     OW51629   0.396   6.266   6.970 -0.3572  0.0215  0.1876
11340SOL    HW151630   0.400   6.316   7.051 -1.6793  2.5900 -1.2113
11340SOL    HW251631   0.382   6.175   6.998  0.4309  0.6411  2.7991
11341SOL     OW51632   6.615   6.967   6.681 -0.0328 -0.0488  0.0523
11341SOL    HW151633   6.639   6.876   6.661 -0.6910 -0.2960  0.3370
11341SOL    HW251634   6.681   6.996   6.744  0.7460 -0.0039 -0.7690
11342SOL     OW51635  14.026   1.706   3.453  0.1353  0.4156 -0.4842
11342SOL    HW151636  14.016   1.634   3.514  1.8430 -1.2580 -2.0355
11342SOL    HW251637  13.939   1.744   3.445 -0.7384 -1.2547  0.6134
11343SOL     OW51638   7.301   9.600   4.479  0.0256 -0.6418 -0.2435
11343SOL    HW151639   7.233   9.606   4.412  1.3190  0.5430 -1.5278
11343SOL    HW251640   7.302   9.687   4.520  1.5958 -0.2082 -1.1337
11344SOL     OW51641  10.904   0.498   9.177 -0.5416 -0.0903  0.0432
11344SOL    HW151642  10.875   0.587   9.156  0.2665  0.0074 -0.7025
11344SOL    HW251643  10.840   0.441   9.135  0.9965  0.1029 -2.7589
11345SOL     OW51644  11.006   8.019   6.769 -0.1565  0.0684 -0.5517
11345SOL    HW151645  11.020   7.937   6.723 -2.3687  0.3204 -1.8188
11345SOL    HW251646  11.040   8.087   6.711  0.5037  0.1610 -0.0756
11346SOL     OW51647   3.503   5.075  11.765 -0.3209 -0.4666 -0.2875
11346SOL    HW151648   3.521   5.000  11.820 -0.8249  0.8068  1.7068
11346SOL    HW251649   3.413   5.101  11.786 -0.0789  0.8466 -0.7256
11347SOL     OW51650  10.844   8.935   0.098 -0.3652  0.4925 -0.1706
11347SOL    HW151651  10.796   8.936   0.015  0.8556  0.9238 -0.8978
11347SOL    HW251652  10.922   8.987   0.081 -0.5211  1.3344  1.5252
11348SOL     OW51653  13.790   2.072  13.837  0.0431 -0.1818  0.0270
11348SOL    HW151654  13.749   2.068  13.923 -0.3331 -2.2496 -0.1997
11348SOL    HW251655  13.882   2.049  13.854  0.3958  1.1776  0.0842
11349SOL     OW51656   2.936   1.328  12.532 -0.8625 -0.1862  0.4807
11349SOL    HW151657   2.994   1.385  12.582 -0.1877  0.1509 -0.6497
11349SOL    HW251658   2.993   1.256  12.503 -0.7947  0.4908 -1.2090
11350SOL     OW51659   6.852   5.986   2.740  0.0365  0.1167  0.2026
11350SOL    HW151660   6.764   6.002   2.706 -0.4667 -0.5170  1.1679
11350SOL    HW251661   6.840   5.968   2.833  1.1220 -0.5409  0.2441
11351SOL     OW51662  12.226   6.992  12.825  0.5212  0.0790 -0.2497
11351SOL    HW151663  12.151   6.999  12.766  0.1806 -1.4148 -0.0322
11351SOL    HW251664  12.302   6.994  12.766  0.3956  2.1225 -0.4336
11352SOL     OW51665   6.753  12.602   8.948  0.1241  0.1600 -0.1053
11352SOL    HW151666   6.717  12.682   8.988 -1.5565 -0.7485  0.2893
11352SOL    HW251667   6.817  12.571   9.012 -0.5653  0.2065  0.6308
11353SOL     OW51668   7.547   6.856   1.457 -0.0135 -0.5384  0.4811
11353SOL    HW151669   7.514   6.933   1.411 -0.7360 -0.3702  1.2537
11353SOL    HW251670   7.554   6.788   1.390 -1.0778 -0.3041  0.1129
11354SOL     OW51671   4.343   4.508   1.986  0.4014  0.4386 -0.5305
11354SOL    HW151672   4.334   4.586   1.932  1.6435  0.2186 -1.0956
11354SOL    HW251673   4.377   4.541   2.070  1.8363  0.4475 -1.0800
11355SOL     OW51674  12.203  10.746   8.432  0.5398  0.1346  0.1122
11355SOL    HW151675  12.248  10.662   8.420  0.3660  0.2868 -1.8713
11355SOL    HW251676  12.262  10.797   8.488  1.5485 -0.6524 -0.1940
11356SOL     OW51677   5.471   9.800  13.372  0.0071  0.3772 -0.0470
11356SOL    HW151678   5.435   9.888  13.376 -0.6141  0.1443 -0.3018
11356SOL    HW251679   5.402   9.744  13.408  1.0654  0.1687  1.7450
11357SOL     OW51680   7.136   7.190   3.024 -0.1600  0.1779 -0.0423
11357SOL    HW151681   7.071   7.144   2.971  1.4974 -2.0470 -0.2632
11357SOL    HW251682   7.091   7.208   3.107 -1.3280 -0.4526 -0.5099
11358SOL     OW51683  13.802   5.381   0.137  0.1310  0.5603 -0.2546
11358SOL    HW151684  13.763   5.460   0.101 -1.0750 -0.2113 -0.7133
11358SOL    HW251685  13.737   5.312   0.120  1.3785 -0.6374 -0.3798
11359SOL     OW51686   1.475  10.354  10.535  0.0492 -0.2039  0.2206
11359SOL    HW151687   1.497  10.263  10.552 -1.3311 -0.7448 -0.7601
11359SOL    HW251688   1.407  10.375  10.600  0.0225 -0.0267  0.1364
11360SOL     OW51689   3.371  11.508   3.452  0.3627  0.2804 -0.0685
11360SOL    HW151690   3.397  11.451   3.523 -0.5914  1.3464  1.1842
11360SOL    HW251691   3.451  11.555   3.428  0.4366  0.7799  1.1298
11361SOL     OW51692   9.771   3.961   6.553 -0.4871 -0.4854  0.4097
11361SOL    HW151693   9.816   3.892   6.602 -0.4843 -1.0403 -0.3515
11361SOL    HW251694   9.839   4.026   6.535  0.4213 -1.9212 -1.8697
11362SOL     OW51695   4.454   3.726   4.958 -0.5343  0.1317 -0.4180
11362SOL    HW151696   4.362   3.708   4.936 -0.8222 -0.2739  1.0104
11362SOL    HW251697   4.495   3.747   4.874 -1.5475 -1.3783 -1.3405
11363SOL     OW51698   3.935   6.442  13.328  0.2377 -0.2802  0.2993
11363SOL    HW151699   3.872   6.513  13.344  0.4369 -0.0461  0.0418
11363SOL    HW251700   3.926   6.422  13.235  1.1961  0.3806  0.0502
11364SOL     OW51701   1.888   9.770   0.463  0.2659 -0.0964  0.3405
11364SOL    HW151702   1.902   9.705   0.394 -2.2731 -0.6617  0.2638
11364SOL    HW251703   1.972   9.775   0.509  1.2100 -1.6988 -1.1134
11365SOL     OW51704   1.321   3.519  10.411  0.0795 -0.3965  0.4009
11365SOL    HW151705   1.378   3.540  10.485 -0.1031 -1.9401  1.0279
11365SOL    HW251706   1.339   3.426  10.393 -0.1663 -0.1577 -1.2443
11366SOL     OW51707  10.964  13.853  13.076 -0.0963  0.8562 -0.3525
11366SOL    HW151708  10.883  13.811  13.049 -0.7994  0.4389  2.1538
11366SOL    HW251709  11.031  13.816  13.019 -1.9232  3.5602 -4.7473
11367SOL     OW51710  13.157   0.042   4.477 -0.1082  0.2369  0.1102
11367SOL    HW151711  13.078   0.014   4.523  0.1371 -0.7105 -0.0339
11367SOL    HW251712  13.207  -0.038   4.464  1.1669  0.8929  0.7396
11368SOL     OW51713   8.042   4.434   1.370 -0.0549  0.2275 -0.5717
11368SOL    HW151714   7.962   4.386   1.350 -1.5015  2.1226  0.2546
11368SOL    HW251715   8.113   4.374   1.348 -1.7018 -2.0855 -0.0025
11369SOL     OW51716  11.860   1.686   3.524 -0.4501 -0.1987 -0.2729
11369SOL    HW151717  11.907   1.695   3.607  1.0404  0.1608 -1.1090
11369SOL    HW251718  11.929   1.679   3.458 -1.5842 -1.6921 -1.3796
11370SOL     OW51719   0.636   6.092   1.529  0.1703  0.1503 -0.5372
11370SOL    HW151720   0.671   6.022   1.474 -1.8203  0.2615 -2.0574
11370SOL    HW251721   0.707   6.113   1.590  1.2877 -2.2372 -0.9227
11371SOL     OW51722  13.711  10.669   9.197  0.2209  0.2056  0.6052
11371SOL    HW151723  13.797  10.691   9.234 -0.3920  2.1388  1.0342
11371SOL    HW251724  13.680  10.751   9.159 -1.0070 -0.7157 -0.4702
11372SOL     OW51725   5.649  12.494  13.926 -0.6001  0.3832 -0.3545
11372SOL    HW151726   5.660  12.466  14.017 -0.3876  1.3844 -0.0563
11372SOL    HW251727   5.684  12.422  13.873  0.3668  0.2996  0.3860
11373SOL     OW51728  11.486  13.730  11.351 -0.1904 -0.0518  0.1231
11373SOL    HW151729  11.391  13.724  11.342 -0.3755  2.2221  0.0204
11373SOL    HW251730  11.501  13.812  11.398  1.7391 -0.1493 -0.2280
11374SOL     OW51731   9.576   8.810   1.739 -0.3279 -0.1958 -0.2253
11374SOL    HW151732   9.543   8.797   1.828  4.4131 -1.5829  1.6814
11374SOL    HW251733   9.549   8.732   1.692 -0.1589 -1.0697  1.0645
11375SOL     OW51734   4.733   1.724   1.903 -0.6239 -0.1399  0.5236
11375SOL    HW151735   4.796   1.762   1.965  0.9499 -0.3639 -0.8569
11375SOL    HW251736   4.767   1.636   1.885 -0.3362  0.3420 -1.5422
11376SOL     OW51737   7.267   5.059  12.879  0.3104 -0.0642 -0.2447
11376SOL    HW151738   7.360   5.040  12.870  0.3517  0.4495 -1.0550
11376SOL    HW251739   7.247   5.115  12.804 -0.3629  0.8908  0.6062
11377SOL     OW51740   8.758  12.580   6.956  0.0147  0.5913  0.1221
11377SOL    HW151741   8.811  12.564   7.034 -0.8057 -0.2697  0.5257
11377SOL    HW251742   8.762  12.674   6.942 -0.7306  0.9187  1.8810
11378SOL     OW51743  10.250  10.596   2.798  0.2909  0.0015  0.1907
11378SOL    HW151744  10.209  10.638   2.723 -0.4517 -0.1530  0.5050
11378SOL    HW251745  10.263  10.505   2.770 -0.5606 -0.2142  0.4582
11379SOL     OW51746  10.940   1.768   5.247  0.2832 -0.3045 -0.3509
11379SOL    HW151747  10.975   1.730   5.327 -1.3739 -1.4199 -0.1031
11379SOL    HW251748  10.889   1.697   5.207 -1.8499  1.2281 -0.5286
11380SOL     OW51749  12.243   3.611  10.348 -0.2280 -0.2087  0.4095
11380SOL    HW151750  12.154   3.618  10.314 -1.0823 -2.7194  1.8542
11380SOL    HW251751  12.299   3.631  10.273 -1.9724  1.2290 -0.5849
11381SOL     OW51752  11.874  13.409  10.574  0.3806  0.3077 -0.7764
11381SOL    HW151753  11.802  13.424  10.636  1.2795  0.4162  0.2773
11381SOL    HW251754  11.905  13.497  10.553  0.0806  0.2689 -1.3901
11382SOL     OW51755   6.622   9.823   1.739  0.2824 -0.8612 -0.3228
11382SOL    HW151756   6.692   9.758   1.732  1.9890  0.9614 -1.0015
11382SOL    HW251757   6.661   9.895   1.788 -1.5239 -0.2448  0.3056
11383SOL     OW51758  13.152   3.936  10.091 -0.4825  0.4645 -0.5088
11383SOL    HW151759  13.161   3.982  10.007 -0.6613 -0.7277 -1.1966
11383SOL    HW251760  13.242   3.923  10.121 -0.2897 -1.1641 -1.6787
11384SOL     OW51761  13.093   8.958   3.865  0.3698 -0.2804  0.4730
11384SOL    HW151762  13.116   8.896   3.796  0.9026  1.3872 -0.9302
11384SOL    HW251763  13.027   9.015   3.824  0.2911  0.4040  1.5225
11385SOL     OW51764  10.133   4.150  12.034 -0.1591  0.0594 -0.5092
11385SOL    HW151765  10.117   4.139  11.940  1.0256 -0.9016 -0.6315
11385SOL    HW251766  10.185   4.073  12.058  1.5193  1.4024  0.4384
11386SOL     OW51767   6.867  13.476   6.147  0.1341  0.1066 -0.1923
11386SOL    HW151768   6.822  13.480   6.063  0.0437 -0.3870 -0.1681
11386SOL    HW251769   6.886  13.568   6.168  0.6203  0.2105 -1.0028
11387SOL     OW51770   8.084  11.242   6.530 -0.5555  0.3245 -0.1131
11387SOL    HW151771   8.170  11.258   6.491 -0.3332 -0.0897  0.2002
11387SOL    HW251772   8.102  11.182   6.603 -1.2377 -0.5055 -0.6205
11388SOL     OW51773   1.102   5.994   3.495 -0.1204 -0.3410  0.2931
11388SOL    HW151774   1.158   6.068   3.518  0.4632 -0.3897 -0.8792
11388SOL    HW251775   1.138   5.920   3.545 -0.5521  0.0911  1.2718
11389SOL     OW51776   8.837   1.247   5.951 -0.0441  0.3698 -0.0054
11389SOL    HW151777   8.931   1.266   5.944  0.0524 -0.5497 -1.7131
11389SOL    HW251778   8.798   1.330   5.978  1.2245  0.8700  0.3410
11390SOL     OW51779   8.245   2.510  12.569 -0.2762  0.3144  0.6963
11390SOL    HW151780   8.227   2.424  12.607  2.0411 -0.7528 -0.3705
11390SOL    HW251781   8.290   2.558  12.639  2.6003 -1.0975 -0.0161
11391SOL     OW51782  10.601   2.691  11.175 -0.3728 -0.7282  0.0222
11391SOL    HW151783  10.586   2.739  11.093 -2.2798  0.8995  1.2276
11391SOL    HW251784  10.591   2.599  11.151  2.2677 -0.5842 -2.1536
11392SOL     OW51785   3.181   0.009   9.586  0.2985  0.8191  0.7368
11392SOL    HW151786   3.203   0.095   9.549 -0.2432  0.5231 -0.3155
11392SOL    HW251787   3.262  -0.042   9.578 -0.3171  0.1240 -1.9774
11393SOL     OW51788   4.704  12.727   5.061  0.1495  0.3624  0.4626
11393SOL    HW151789   4.788  12.772   5.061  1.3397 -1.5063 -3.2073
11393SOL    HW251790   4.715  12.657   5.126  2.4939 -1.3555 -1.5769
11394SOL     OW51791   2.255   6.190   4.077  0.0303 -0.5547  0.0498
11394SOL    HW151792   2.201   6.151   4.145  1.1335 -0.0180  1.2948
11394SOL    HW251793   2.319   6.122   4.055  3.3159  0.9549  3.7376
11395SOL     OW51794  10.085   5.204   0.248 -0.0324 -0.2947 -0.4178
11395SOL    HW151795  10.140   5.239   0.178  0.4041 -0.3432 -0.1077
11395SOL    HW251796  10.051   5.281   0.292  1.1914 -0.2316  0.4698
11396SOL     OW51797   7.083   8.163   8.323  0.1423 -0.4109  0.2613
11396SOL    HW151798   7.111   8.159   8.232 -2.4721 -1.2972 -0.6032
11396SOL    HW251799   7.014   8.096   8.330 -1.4074  1.2563  2.2442
11397SOL     OW51800   3.565  10.954   9.351 -0.4488  0.2423 -0.3834
11397SOL    HW151801   3.610  10.948   9.435 -0.1163  0.7222 -0.5258
11397SOL    HW251802   3.590  11.039   9.316  1.0555 -0.7460 -1.8919
11398SOL     OW51803   8.057   4.291   2.432  0.3807  0.0353  0.3960
11398SOL    HW151804   8.046   4.196   2.430  2.6713 -0.2986  1.0930
11398SOL    HW251805   8.031   4.317   2.520 -1.3562  0.2738 -0.1405
11399SOL     OW51806   1.302   4.452  12.774  0.2370 -0.6335  0.1202
11399SOL    HW151807   1.248   4.405  12.711  1.5433 -1.2852 -0.5656
11399SOL    HW251808   1.332   4.530  12.726 -0.4648 -0.0246  0.6538
11400SOL     OW51809  13.652  10.874  13.265  0.2658  0.4931 -0.2726
11400SOL    HW151810  13.681  10.955  13.307  2.2117  0.2745 -1.1111
11400SOL    HW251811  13.615  10.903  13.181  1.6776  0.4721 -0.9176
11401SOL     OW51812   3.243  10.345   4.214  0.1414  0.3990  0.1839
11401SOL    HW151813   3.277  10.424   4.171 -0.3858 -0.8911 -2.8620
11401SOL    HW251814   3.150  10.362   4.226 -0.1622  0.0123 -1.3017
11402SOL     OW51815  11.350   5.549   5.649 -0.3144 -0.1392  0.7610
11402SOL    HW151816  11.389   5.501   5.576 -1.1853  1.7304 -1.0757
11402SOL    HW251817  11.264   5.577   5.616 -0.7842  0.7125  2.5438
11403SOL     OW51818   6.719  10.915   0.036  0.2772 -0.1723 -0.0731
11403SOL    HW151819   6.748  10.920   0.127 -1.5308  0.4703  0.4977
11403SOL    HW251820   6.753  10.831   0.005  1.2663 -0.2135  1.0595
11404SOL     OW51821   0.891   9.180  13.878 -0.3669  0.3678 -0.5509
11404SOL    HW151822   0.878   9.177  13.972  1.0464  1.2177 -0.3103
11404SOL    HW251823   0.835   9.252  13.848  0.2308  0.9966 -0.1662
11405SOL     OW51824   1.661   0.656  12.923 -0.5429  0.9257 -0.0491
11405SOL    HW151825   1.654   0.574  12.875  0.1125  0.7604  0.1254
11405SOL    HW251826   1.578   0.702  12.906 -1.3665 -0.2207  0.6902
11406SOL     OW51827  10.082   4.983   3.605 -0.2791 -0.0249 -0.1694
11406SOL    HW151828  10.094   4.934   3.523 -0.0131 -0.9825  0.4305
11406SOL    HW251829  10.048   4.919   3.667 -0.9243  0.8006  0.3564
11407SOL     OW51830   2.754   0.014   2.728 -0.1443  1.0550 -0.2909
11407SOL    HW151831   2.703  -0.067   2.730  1.0611  0.2659 -0.5152
11407SOL    HW251832   2.821  -0.001   2.661  1.4346  1.3845  1.1300
11408SOL     OW51833  10.952   6.428   2.948 -0.1105 -0.3238 -0.0029
11408SOL    HW151834  10.972   6.336   2.932  1.1703  0.1183 -1.0978
11408SOL    HW251835  10.934   6.465   2.862 -3.7338 -0.1588  0.6399
11409SOL     OW51836   3.348   0.376  10.093  0.3790  0.1956 -0.3661
11409SOL    HW151837   3.274   0.329  10.131 -0.9587  2.3900 -0.0677
11409SOL    HW251838   3.335   0.367   9.998 -0.9742  1.5018 -0.3399
11410SOL     OW51839  12.472   5.194   5.625  0.3581 -0.0605 -0.6045
11410SOL    HW151840  12.511   5.107   5.621 -0.4050 -0.5041  0.7730
11410SOL    HW251841  12.490   5.225   5.714 -2.2920 -0.2874  0.1197
11411SOL     OW51842   3.501   8.321   8.782  0.2154 -0.0176  0.2260
11411SOL    HW151843   3.538   8.318   8.694  0.4979  1.3940  0.2676
11411SOL    HW251844   3.528   8.238   8.822  1.1380 -0.1495 -0.6076
11412SOL     OW51845   4.635   0.649   5.229 -0.5069 -0.2141 -0.1773
11412SOL    HW151846   4.645   0.557   5.253  1.1211  0.1455  0.7481
11412SOL    HW251847   4.675   0.656   5.142  1.2876 -0.0601  0.6105
11413SOL     OW51848   6.565  10.228   5.901  0.3298  0.3194  0.3770
11413SOL    HW151849   6.523  10.288   5.963 -1.0052  1.7439 -1.7483
11413SOL    HW251850   6.568  10.145   5.947  0.2055  1.4858  2.6503
11414SOL     OW51851   1.537   9.087  12.295  0.0668 -0.1636 -0.5169
11414SOL    HW151852   1.612   9.028  12.294  1.5408  1.5988 -0.8249
11414SOL    HW251853   1.503   9.085  12.206  0.7464  0.2051 -0.7878
11415SOL     OW51854   6.276  10.265   6.333 -0.1936 -0.0163 -0.3277
11415SOL    HW151855   6.242  10.266   6.422 -1.2574 -1.3313 -0.6771
11415SOL    HW251856   6.317  10.351   6.322  2.1082 -0.6657  2.1975
11416SOL     OW51857   5.720   5.037   1.787 -0.0255 -0.1065  0.1161
11416SOL    HW151858   5.628   5.048   1.814 -0.7114 -0.8613 -1.7561
11416SOL    HW251859   5.715   5.014   1.694  2.0647 -0.5344  0.0688
11417SOL     OW51860   4.771  12.496  10.088  0.1221  0.4175  0.6786
11417SOL    HW151861   4.749  12.448  10.008  1.0685  1.9719 -0.5771
11417SOL    HW251862   4.789  12.585  10.058  0.8961  0.9542  2.5836
11418SOL     OW51863   8.156  10.514  14.065 -0.5378  0.4582 -0.9905
11418SOL    HW151864   8.208  10.467  14.000  0.2531  1.2737 -0.9737
11418SOL    HW251865   8.205  10.594  14.082 -1.3525  0.8349 -0.2917
11419SOL     OW51866  11.149  13.980   8.153  0.2961  0.4077  0.1189
11419SOL    HW151867  11.153  13.888   8.176 -2.0200  0.4483  1.0024
11419SOL    HW251868  11.233  13.999   8.112  1.7173 -1.5356  1.9178
11420SOL     OW51869   8.915   2.151  13.944  0.0731  0.2206 -0.5304
11420SOL    HW151870   8.986   2.174  13.885  1.5948 -0.1553  1.0778
11420SOL    HW251871   8.837   2.147  13.888  0.7336  3.4743 -1.9041
11421SOL     OW51872  12.584   2.094  12.154 -0.4823  0.0024 -0.1462
11421SOL    HW151873  12.553   2.163  12.211  0.5353  0.6053 -0.2951
11421SOL    HW251874  12.650   2.136  12.098  1.4832 -1.4247  0.9464
11422SOL     OW51875  11.702   0.006   8.096  0.5918 -0.1001  0.5676
11422SOL    HW151876  11.720  -0.053   8.023 -1.2916 -1.8154  1.3707
11422SOL    HW251877  11.770  -0.014   8.161  0.1557 -1.2588  0.7084
11423SOL     OW51878  14.055   6.852  11.564 -0.2019 -0.5950 -0.8738
11423SOL    HW151879  14.020   6.848  11.653  1.7697  0.9414  0.0427
11423SOL    HW251880  14.066   6.945  11.545  1.8470 -0.9386 -1.6808
11424SOL     OW51881   9.324   5.625   4.182 -0.0910 -0.0863 -0.6721
11424SOL    HW151882   9.263   5.585   4.244  0.6227 -0.3338 -0.1268
11424SOL    HW251883   9.271   5.691   4.137 -0.8430 -0.5032 -0.4234
11425SOL     OW51884   7.837   4.786   5.118  0.2962  0.5577 -0.2944
11425SOL    HW151885   7.849   4.876   5.086 -2.4540  1.2330  0.3278
11425SOL    HW251886   7.849   4.794   5.213  1.6304 -0.0957 -0.3851
11426SOL     OW51887   5.115   6.469   5.987 -0.3588 -0.6309  0.0350
11426SOL    HW151888   5.069   6.385   5.982  2.0195 -1.9705 -2.1191
11426SOL    HW251889   5.164   6.465   6.069 -0.7211 -1.0706  0.2349
11427SOL     OW51890  10.365   6.281  12.328 -0.8472  0.5624  0.2313
11427SOL    HW151891  10.309   6.310  12.400  0.1962 -0.6663  1.5931
11427SOL    HW251892  10.419   6.211  12.365 -1.4478 -1.3353 -2.2062
11428SOL     OW51893   3.635  10.450   3.003  0.4259  0.0241  0.2999
11428SOL    HW151894   3.564  10.413   2.950  0.4249 -1.3722  1.2292
11428SOL    HW251895   3.715  10.425   2.957  0.3988 -0.6032  0.5836
11429SOL     OW51896   4.245   8.338  12.101 -0.9369  0.1274 -0.0833
11429SOL    HW151897   4.261   8.255  12.145 -2.2955  0.0894  0.3828
11429SOL    HW251898   4.183   8.317  12.031 -0.6634  0.6189 -0.4893
11430SOL     OW51899  12.542   8.119   8.796 -0.4846 -0.2381  0.4020
11430SOL    HW151900  12.545   8.214   8.786  1.3973 -0.4764 -2.7099
11430SOL    HW251901  12.629   8.094   8.826 -1.0461 -0.9872  1.4805
11431SOL     OW51902   8.856  14.072  12.606 -0.0440 -0.7837  0.0023
11431SOL    HW151903   8.938  14.118  12.588 -0.7949  0.6695  0.1300
11431SOL    HW251904   8.865  14.040  12.695 -0.4492  1.3744  0.8861
11432SOL     OW51905   4.355  10.561   9.950 -0.0434  0.3075 -0.1420
11432SOL    HW151906   4.446  10.584   9.935 -0.6711  1.8120 -2.0847
11432SOL    HW251907   4.311  10.583   9.867 -2.4563  1.2998  1.2979
11433SOL     OW51908   7.909  11.300   1.089 -0.0379 -0.2484  0.2170
11433SOL    HW151909   7.833  11.356   1.101 -0.7782 -1.1496 -0.1406
11433SOL    HW251910   7.964  11.318   1.165 -1.6416 -1.1784  1.6702
11434SOL     OW51911   4.835  11.483   0.575 -0.0809 -0.5174 -0.2221
11434SOL    HW151912   4.748  11.518   0.557 -0.4138 -0.4899  1.3164
11434SOL    HW251913   4.894  11.558   0.563 -0.3190 -0.4143 -0.7792
11435SOL     OW51914  10.714   0.587  13.200  0.3724  0.3965  0.2567
11435SOL    HW151915  10.622   0.593  13.176 -0.0035  0.0123  1.5044
11435SOL    HW251916  10.757   0.657  13.152 -0.5617  0.5352 -0.3887
11436SOL     OW51917  10.910   1.265   6.555  0.2150 -0.3284  0.2307
11436SOL    HW151918  10.935   1.318   6.479  2.8923 -0.4980  0.9046
11436SOL    HW251919  10.905   1.175   6.521  2.9440 -0.6353  0.4757
11437SOL     OW51920  12.759   9.967   9.569  0.4469  0.3150  0.4102
11437SOL    HW151921  12.769  10.058   9.540 -0.6704  0.7083  1.1754
11437SOL    HW251922  12.693   9.972   9.638  1.1978 -0.9324  1.2456
11438SOL     OW51923   5.078  13.483   8.716 -0.1113  0.3490  0.0231
11438SOL    HW151924   5.092  13.477   8.810 -0.3759 -0.4163  0.0184
11438SOL    HW251925   5.166  13.488   8.678 -0.0152  1.1715  0.3354
11439SOL     OW51926   8.762  13.143   1.739  0.1952 -0.2014  0.0296
11439SOL    HW151927   8.691  13.102   1.789  1.2266 -0.9811  0.9051
11439SOL    HW251928   8.751  13.109   1.650 -0.9429  0.2618 -0.0297
11440SOL     OW51929  12.700  11.879  13.136  0.0879  0.1072 -0.0529
11440SOL    HW151930  12.646  11.953  13.109  2.2467  1.3373 -1.3208
11440SOL    HW251931  12.741  11.907  13.218  1.7055  0.8241 -1.0567
11441SOL     OW51932   7.884   2.903   6.308  0.3221 -0.1146 -0.1304
11441SOL    HW151933   7.939   2.972   6.344  1.1370  1.7322 -4.2949
11441SOL    HW251934   7.941   2.855   6.248 -0.6242 -3.6038  1.5095
11442SOL     OW51935   7.013   7.780   8.044 -0.0149 -0.6032  0.2376
11442SOL    HW151936   6.942   7.749   7.987 -1.1741  1.2253  0.5855
11442SOL    HW251937   7.072   7.827   7.985  0.1329 -0.8721  0.1698
11443SOL     OW51938   7.522   5.872   0.771  0.8957 -0.4314  0.4028
11443SOL    HW151939   7.494   5.882   0.861 -1.8587 -0.6690 -0.3272
11443SOL    HW251940   7.616   5.893   0.771  0.5331  1.5207  2.9205
11444SOL     OW51941   6.084   3.875   7.214 -0.2672  0.2999 -0.3175
11444SOL    HW151942   6.147   3.836   7.274  0.3262 -0.0541 -1.1476
11444SOL    HW251943   6.126   3.871   7.128 -0.4154  2.2700 -0.5310
11445SOL     OW51944  11.568   6.901   6.553 -0.0703  0.2081 -0.2295
11445SOL    HW151945  11.664   6.895   6.549 -0.0660  0.0054  0.1499
11445SOL    HW251946  11.551   6.993   6.570  0.0277  0.4015 -1.1116
11446SOL     OW51947   2.466   4.968   1.424  0.1161 -0.2748 -0.3921
11446SOL    HW151948   2.429   5.035   1.367  1.3475  1.0119  0.2736
11446SOL    HW251949   2.509   5.017   1.493 -0.0460 -1.7917  0.8218
11447SOL     OW51950  12.678   5.873   2.296 -0.0063  0.1254  0.1774
11447SOL    HW151951  12.635   5.936   2.353 -0.4062 -0.4547  0.5386
11447SOL    HW251952  12.755   5.918   2.262 -0.3261  0.8181  0.3731
11448SOL     OW51953   4.812   7.670   4.598  0.4388  0.2643  0.2580
11448SOL    HW151954   4.854   7.710   4.675  1.3677 -1.3791  0.6656
11448SOL    HW251955   4.735   7.626   4.633  1.7182 -1.8508  0.6094
11449SOL     OW51956   1.816   9.810   3.965  0.2411 -0.0729  0.1353
11449SOL    HW151957   1.891   9.817   3.907  1.0990 -2.7420  0.7664
11449SOL    HW251958   1.749   9.866   3.925  1.8769  0.8254 -1.5147
11450SOL     OW51959   5.007  12.198   0.014  0.0252  0.2955  0.0809
11450SOL    HW151960   4.993  12.186  -0.080 -0.3800 -3.1264  0.4433
11450SOL    HW251961   4.928  12.242   0.044 -0.4856  0.1452 -0.9721
11451SOL     OW51962  10.998   5.201  12.942  0.1319 -0.1265  0.5273
11451SOL    HW151963  11.008   5.125  12.884  0.2740  0.1413  0.1999
11451SOL    HW251964  10.904   5.205  12.960 -0.3725  1.4130 -1.9190
11452SOL     OW51965  13.603   6.524  10.554 -0.0008 -0.3802  0.6184
11452SOL    HW151966  13.698   6.531  10.546 -0.1282  0.3221 -0.3304
11452SOL    HW251967  13.571   6.519  10.464 -0.9833  1.0283  0.8666
11453SOL     OW51968   2.372   4.617   7.959 -0.2547 -1.1362  0.5570
11453SOL    HW151969   2.309   4.675   8.001 -0.7907 -2.2823  1.3781
11453SOL    HW251970   2.428   4.675   7.908 -1.6253 -0.0423  0.2498
11454SOL     OW51971   2.380   0.865  12.042  0.0105 -0.5415  0.5614
11454SOL    HW151972   2.408   0.868  11.950  0.9847 -2.3784  0.7598
11454SOL    HW251973   2.458   0.836  12.090  1.0465  4.6707  2.7218
11455SOL     OW51974   5.284   6.722   5.607  0.1405 -0.1210  0.1952
11455SOL    HW151975   5.318   6.810   5.623  0.6776 -0.6459  2.2878
11455SOL    HW251976   5.354   6.663   5.636 -0.7384 -1.2288  0.1491
11456SOL     OW51977   4.330   9.002  12.497 -0.5350  0.5837  0.4456
11456SOL    HW151978   4.317   8.908  12.482 -3.3317  0.9488  0.1373
11456SOL    HW251979   4.369   9.034  12.416 -2.7067  0.1959 -0.8406
11457SOL     OW51980  10.514  10.461  12.223  0.7652 -0.0621 -0.2644
11457SOL    HW151981  10.596  10.412  12.213 -0.9935 -2.7066 -4.5946
11457SOL    HW251982  10.457  10.403  12.273  0.5199  0.2421 -0.1881
11458SOL     OW51983   1.423   5.167   3.745 -0.0752  0.2901  0.9147
11458SOL    HW151984   1.353   5.128   3.798 -0.4144  1.3679  1.2866
11458SOL    HW251985   1.431   5.256   3.779  0.3796  0.6839 -0.1998
11459SOL     OW51986   7.950  10.028   3.520 -0.4908 -0.2470  0.2913
11459SOL    HW151987   7.867  10.035   3.569 -1.5833 -1.2781 -1.3126
11459SOL    HW251988   7.976   9.937   3.530 -0.2375 -0.2384 -0.2578
11460SOL     OW51989   3.616  13.850   5.408 -0.3746  0.4292 -0.6502
11460SOL    HW151990   3.599  13.888   5.494  0.6428 -0.6934  0.0596
11460SOL    HW251991   3.665  13.918   5.361 -1.3015  1.2138 -0.5204
11461SOL     OW51992   3.474   5.498  11.489  0.4716  0.3973 -0.1646
11461SOL    HW151993   3.527   5.455  11.556  0.6618 -1.8183 -1.6020
11461SOL    HW251994   3.397   5.441  11.479  1.3283 -0.4607 -3.0263
11462SOL     OW51995   7.150   1.689   6.614  0.2058 -0.0120  0.0695
11462SOL    HW151996   7.070   1.658   6.656 -0.9108  1.4359 -0.8824
11462SOL    HW251997   7.129   1.689   6.520  1.6671 -0.4924 -0.2895
11463SOL     OW51998  11.684  12.434  13.452 -0.8427 -0.5470 -0.0945
11463SOL    HW151999  11.711  12.351  13.492 -0.6919 -0.3631  0.1956
11463SOL    HW252000  11.708  12.425  13.360  0.9922 -0.0858  0.2936
11464SOL     OW52001   7.892   6.331   1.478 -0.2004  0.5919  0.4410
11464SOL    HW152002   7.866   6.405   1.533 -0.1832  0.3038  0.8380
11464SOL    HW252003   7.881   6.254   1.533  0.6254  0.3757  0.3273
11465SOL     OW52004   3.374  13.134   4.361  0.2002 -0.3431 -0.1460
11465SOL    HW152005   3.409  13.046   4.347  1.4548  0.3361 -1.5857
11465SOL    HW252006   3.366  13.171   4.273 -2.0272  0.3813  0.2995
11466SOL     OW52007   8.415   5.536   0.985  0.3195 -0.1434 -0.4716
11466SOL    HW152008   8.509   5.527   0.970  0.3217 -0.5618 -0.2398
11466SOL    HW252009   8.399   5.631   0.985  0.8029 -0.0608 -0.1412
11467SOL     OW52010   1.776   2.357  11.450 -0.1874 -0.2895  0.4240
11467SOL    HW152011   1.707   2.353  11.516 -0.2494  0.2910  0.4030
11467SOL    HW252012   1.728   2.367  11.367 -0.0839  1.2845  0.5101
11468SOL     OW52013  12.280   9.611   6.718  0.7416  0.3624  0.4623
11468SOL    HW152014  12.357   9.653   6.679 -0.1182  1.3755 -0.1935
11468SOL    HW252015  12.309   9.588   6.807  2.1023 -0.1709 -0.0904
11469SOL     OW52016   7.561   6.508  12.999 -0.1508 -0.0868  0.2781
11469SOL    HW152017   7.527   6.419  13.007 -0.6769  0.0434 -0.3563
11469SOL    HW252018   7.615   6.521  13.076 -0.1071 -0.9420  0.3971
11470SOL     OW52019   8.322   4.372   1.996  0.0499 -1.0143 -0.2212
11470SOL    HW152020   8.340   4.355   2.089 -0.8369  1.6678  0.5204
11470SOL    HW252021   8.227   4.363   1.989 -0.2727  1.6428 -0.1309
11471SOL     OW52022  10.477  12.018   8.999  0.2248 -1.1932  0.1568
11471SOL    HW152023  10.385  12.042   8.999  0.2821 -0.7979 -1.8549
11471SOL    HW252024  10.518  12.076   8.935  1.7037 -1.9781  0.3226
11472SOL     OW52025  10.632   6.159   4.832 -0.0050  0.2198 -0.2785
11472SOL    HW152026  10.651   6.098   4.903  0.0302  1.9985  1.3417
11472SOL    HW252027  10.710   6.156   4.776  0.4717 -0.3899  0.3935
11473SOL     OW52028   7.385   5.664   2.437  0.3245 -0.5138  0.1541
11473SOL    HW152029   7.468   5.708   2.419  0.2847 -0.5532 -0.1227
11473SOL    HW252030   7.321   5.735   2.443  0.3218 -0.5080  0.0559
11474SOL     OW52031   4.851   1.184  13.897  0.3153 -0.5850 -0.4368
11474SOL    HW152032   4.803   1.116  13.849 -0.3449 -0.6144  0.2357
11474SOL    HW252033   4.934   1.142  13.922  1.0494 -0.2973 -2.2432
11475SOL     OW52034  10.809   8.646  13.664 -0.2636 -0.0847  0.0071
11475SOL    HW152035  10.847   8.624  13.750  0.3546 -1.8670 -0.6620
11475SOL    HW252036  10.885   8.650  13.606 -0.8092 -0.5441 -0.7504
11476SOL     OW52037  10.372  11.770   0.947  0.2023 -0.2925 -0.1357
11476SOL    HW152038  10.376  11.720   0.866 -0.7553  2.7927 -2.2739
11476SOL    HW252039  10.279  11.776   0.968  0.2947  0.5704  0.0638
11477SOL     OW52040   5.005   0.794   5.435 -0.0161  0.1961 -0.5752
11477SOL    HW152041   5.061   0.832   5.503  3.2006 -2.6766 -1.3304
11477SOL    HW252042   4.962   0.720   5.478 -1.4287  0.9351 -0.6538
11478SOL     OW52043  13.056   6.176   5.266 -0.2128  0.3889 -0.1569
11478SOL    HW152044  12.995   6.105   5.283 -0.4148 -0.0003 -2.1879
11478SOL    HW252045  13.124   6.167   5.332  0.2573 -2.2850 -0.9050
11479SOL     OW52046   8.052   1.143   4.391  0.5051 -0.1316  0.4246
11479SOL    HW152047   8.031   1.143   4.484 -2.7037 -1.1817 -0.1812
11479SOL    HW252048   8.032   1.054   4.362  1.4620  0.1642 -1.3022
11480SOL     OW52049   2.279   8.321   1.777  0.1596  0.2126 -0.6541
11480SOL    HW152050   2.234   8.405   1.786  0.0053  0.2606 -1.7600
11480SOL    HW252051   2.239   8.266   1.844  0.2628  1.0146  0.0776
11481SOL     OW52052  11.283  10.252  10.276 -0.2147 -0.0557  0.5531
11481SOL    HW152053  11.245  10.333  10.308  0.4564 -0.1492  1.6396
11481SOL    HW252054  11.368  10.246  10.320  0.7224 -0.2605 -1.1558
11482SOL     OW52055  12.533   6.943   0.787  0.0578  0.6907  0.0084
11482SOL    HW152056  12.542   7.021   0.842 -0.4869  1.2899 -0.7358
11482SOL    HW252057  12.600   6.883   0.820  0.8473  1.6728  0.2450
11483SOL     OW52058  13.219  10.429   9.642  0.1033 -0.5490  0.3680
11483SOL    HW152059  13.289  10.400   9.583  0.1292  1.3697 -0.6210
11483SOL    HW252060  13.167  10.489   9.590  0.6914  2.0161  2.4953
11484SOL     OW52061   1.574  10.739   2.057 -0.5283  0.6104 -0.1879
11484SOL    HW152062   1.558  10.686   2.135 -0.6930 -1.4280 -1.5193
11484SOL    HW252063   1.600  10.825   2.091  2.8011 -1.1318  2.1839
11485SOL     OW52064   3.861   7.661   2.049  0.3826 -0.0066  0.2450
11485SOL    HW152065   3.956   7.672   2.045  0.1004  3.2174  0.1525
11485SOL    HW252066   3.835   7.711   2.126 -1.4553  1.2698 -1.1439
11486SOL     OW52067  13.394  14.076   3.449  0.4412 -0.3176  0.1714
11486SOL    HW152068  13.385  13.982   3.439 -0.8336 -0.3970  1.5486
11486SOL    HW252069  13.485  14.090   3.474  0.1460 -1.4640  2.1179
11487SOL     OW52070   2.132  13.332   1.560  1.1686 -0.9205 -0.5425
11487SOL    HW152071   2.218  13.299   1.537  0.4671 -1.9172 -1.8680
11487SOL    HW252072   2.102  13.276   1.631  1.5825 -0.6080 -0.1201
11488SOL     OW52073   1.049   1.689  13.054 -0.0388 -0.9260  0.2642
11488SOL    HW152074   0.999   1.620  13.099 -1.9762 -2.0264 -3.2128
11488SOL    HW252075   1.099   1.643  12.987  0.6191  0.8194 -0.4985
11489SOL     OW52076   7.383   9.905   0.917  0.0447  0.0116  0.3122
11489SOL    HW152077   7.441   9.959   0.970  0.3589  0.6010 -0.5977
11489SOL    HW252078   7.415   9.816   0.929 -1.0641 -0.1276  2.5786
11490SOL     OW52079   2.022   3.291   7.181  0.4432  0.2676  0.0208
11490SOL    HW152080   1.991   3.201   7.184  1.6085 -0.1568 -0.0274
11490SOL    HW252081   2.107   3.289   7.226  0.7510  1.2239 -0.4792
11491SOL     OW52082  11.700   3.425  12.948 -0.2442  0.6975 -0.5416
11491SOL    HW152083  11.606   3.437  12.956 -0.4225  0.0543 -1.4211
11491SOL    HW252084  11.723   3.468  12.866  0.3773  1.5475  0.0616
11492SOL     OW52085  13.935  10.818  13.213  0.5262  0.6926 -0.3647
11492SOL    HW152086  13.934  10.839  13.306  1.7714 -0.6318 -0.0294
11492SOL    HW252087  13.854  10.769  13.199 -1.1810  3.3380 -0.6656
11493SOL     OW52088  14.028   6.644  12.000  0.2735 -0.1584  0.6237
11493SOL    HW152089  14.069   6.668  12.083  0.8753  0.4017  0.1734
11493SOL    HW252090  14.096   6.597  11.952  0.7578  1.6305 -0.5288
11494SOL     OW52091   5.198   4.899   2.275 -0.5388  0.1761 -0.4255
11494SOL    HW152092   5.147   4.879   2.196 -0.8330  1.2642 -0.5269
11494SOL    HW252093   5.155   4.977   2.312 -0.3860 -0.3033  0.8005
11495SOL     OW52094   0.795   8.119   4.195  1.0366 -0.4214  0.2822
11495SOL    HW152095   0.722   8.142   4.137  2.3482  1.2314 -0.8128
11495SOL    HW252096   0.829   8.036   4.159  0.5485 -0.4880 -0.0322
11496SOL     OW52097  10.402   2.038   0.732  0.3347 -0.0602  0.1196
11496SOL    HW152098  10.489   2.075   0.739 -1.0265  3.6499 -0.3783
11496SOL    HW252099  10.383   2.037   0.638 -0.5293  0.2198  0.2778
11497SOL     OW52100   3.490   1.784   9.115 -0.2397 -0.4303 -0.0039
11497SOL    HW152101   3.573   1.794   9.068  0.0067 -0.2381  0.4690
11497SOL    HW252102   3.440   1.862   9.093 -1.0079 -1.3364 -1.6812
11498SOL     OW52103   4.896  12.724  12.551  0.0018  0.6010  0.4871
11498SOL    HW152104   4.929  12.701  12.464  0.4336  1.8713  0.2986
11498SOL    HW252105   4.818  12.777  12.534  0.4722  1.4244  0.8518
11499SOL     OW52106  12.043  11.631   3.146  0.0433 -0.4025 -0.3700
11499SOL    HW152107  12.003  11.716   3.164  0.8836  0.0747 -0.7333
11499SOL    HW252108  12.134  11.651   3.124  0.6131 -1.4958  0.8474
11500SOL     OW52109   1.025  13.063   0.837  0.3850 -0.6155 -0.4462
11500SOL    HW152110   1.016  13.027   0.749  1.0717 -0.0173 -0.7772
11500SOL    HW252111   1.054  12.989   0.890 -1.8968 -1.4620 -0.2780
11501SOL     OW52112  12.253   8.633   7.887  0.4868 -0.0602  0.5802
11501SOL    HW152113  12.338   8.610   7.850 -0.4790 -2.8507 -0.1325
11501SOL    HW252114  12.241   8.725   7.865  1.9973 -0.4025 -2.0444
11502SOL     OW52115   3.040  12.787  10.676  0.3885  0.0364  0.3755
11502SOL    HW152116   3.097  12.823  10.744 -0.0846 -0.1541  0.8765
11502SOL    HW252117   2.960  12.841  10.680 -0.1481 -0.7715  0.8320
11503SOL     OW52118  10.221   6.698  13.619  0.0310 -0.3991 -0.2117
11503SOL    HW152119  10.213   6.685  13.524 -1.5101 -0.0469 -0.1637
11503SOL    HW252120  10.204   6.611  13.656 -2.8445  0.0562 -0.1809
11504SOL     OW52121   6.726   3.320  10.185  0.0962  0.0695 -0.0732
11504SOL    HW152122   6.711   3.297  10.093 -0.3211  0.5121 -0.1193
11504SOL    HW252123   6.687   3.248  10.234  0.5873 -0.3170 -0.2468
11505SOL     OW52124   1.526  14.076   8.166 -0.0072 -0.3231 -0.7451
11505SOL    HW152125   1.572  14.141   8.220  0.2158  2.4636 -3.9978
11505SOL    HW252126   1.593  14.041   8.108 -0.6857 -1.5187 -0.8364
11506SOL     OW52127   4.749  12.866   1.976 -0.3823  0.0498  0.1555
11506SOL    HW152128   4.794  12.837   1.897 -0.2373  0.7964 -0.0360
11506SOL    HW252129   4.662  12.827   1.969  0.1622 -1.2851  0.4561
11507SOL     OW52130   4.628  11.574  12.836 -0.4175 -0.5101  0.3023
11507SOL    HW152131   4.709  11.578  12.887  0.5948  0.3367 -1.3009
11507SOL    HW252132   4.651  11.524  12.758 -1.5078 -0.4484 -0.0755
11508SOL     OW52133   5.480  12.853   9.179  0.0473 -0.1718 -0.1894
11508SOL    HW152134   5.489  12.938   9.223 -1.2822  0.3653 -0.9018
11508SOL    HW252135   5.562  12.808   9.197 -0.2745  0.1546  2.5256
11509SOL     OW52136   1.054  10.588  10.951 -0.0645  0.2573  0.4674
11509SOL    HW152137   1.129  10.532  10.970  0.3899  0.0375 -1.7805
11509SOL    HW252138   0.999  10.582  11.030  1.7691 -0.3430  1.7707
11510SOL     OW52139  13.194  12.048   7.340 -0.0774 -0.4557  0.1568
11510SOL    HW152140  13.123  12.001   7.386 -0.2884  0.6371  0.9879
11510SOL    HW252141  13.267  11.987   7.342 -1.2496 -2.0318 -1.6223
11511SOL     OW52142   0.525  10.465   9.188 -0.1843  0.4267  0.8059
11511SOL    HW152143   0.559  10.547   9.152 -0.0695 -0.7761 -2.1069
11511SOL    HW252144   0.599  10.404   9.182 -1.1011 -0.6534 -0.0243
11512SOL     OW52145  11.537   5.882   1.115 -0.8011 -0.8277  0.0364
11512SOL    HW152146  11.521   5.933   1.194  1.3473 -3.0193  2.0726
11512SOL    HW252147  11.459   5.895   1.062 -1.3585  2.5904  1.4153
11513SOL     OW52148   2.961   8.886   5.720 -0.5194  0.0314  0.5154
11513SOL    HW152149   2.997   8.798   5.716 -3.2642 -1.1333 -0.7600
11513SOL    HW252150   2.943   8.900   5.813 -0.7794 -1.0866  0.6477
11514SOL     OW52151   8.023  10.211   2.774 -0.2378  0.4348 -0.7395
11514SOL    HW152152   8.004  10.118   2.763 -0.9442  0.4666  0.0947
11514SOL    HW252153   8.075  10.215   2.855  1.3283  0.6009 -1.7082
11515SOL     OW52154   6.183  13.776   1.262 -0.4409  0.9570 -0.3766
11515SOL    HW152155   6.148  13.745   1.178 -0.1625 -0.5352  0.0381
11515SOL    HW252156   6.211  13.866   1.243 -1.0665  0.9123 -1.6838
11516SOL     OW52157   9.560   5.254   1.762 -0.2384 -0.4975 -0.3952
11516SOL    HW152158   9.552   5.267   1.668 -0.0466  1.3157 -0.1999
11516SOL    HW252159   9.620   5.179   1.771  0.6701  0.0265 -1.7193
11517SOL     OW52160  11.765  10.398   6.782  0.3087 -0.3517 -0.3067
11517SOL    HW152161  11.806  10.341   6.848  0.2389 -0.0912 -0.0332
11517SOL    HW252162  11.837  10.421   6.723  0.7094  0.5726  0.4994
11518SOL     OW52163   6.912   4.106  13.343 -0.4167 -0.3930 -0.2434
11518SOL    HW152164   6.874   4.183  13.385 -1.5986 -1.1052  0.0516
11518SOL    HW252165   6.921   4.042  13.413  1.5725 -0.1898 -0.2723
11519SOL     OW52166   6.153   9.620  10.261 -0.1124 -0.2062  0.1776
11519SOL    HW152167   6.079   9.562  10.281  0.5003 -0.5739  1.4628
11519SOL    HW252168   6.153   9.684  10.332 -0.1459  0.7583 -0.6743
11520SOL     OW52169   6.166   1.343  13.562  0.2970 -0.1720  0.0343
11520SOL    HW152170   6.259   1.321  13.561  0.1684 -0.7674  0.8518
11520SOL    HW252171   6.121   1.260  13.579 -0.2085  0.5961  2.8773
11521SOL     OW52172  10.639  11.580  12.734 -0.5600 -0.4072 -0.4145
11521SOL    HW152173  10.634  11.651  12.671 -1.8470 -0.1438 -0.0303
11521SOL    HW252174  10.564  11.524  12.714 -0.1913 -1.0735  0.0030
11522SOL     OW52175  13.160   1.205   3.856  0.1975 -0.1670 -0.0170
11522SOL    HW152176  13.182   1.297   3.843 -0.0514 -0.0283  0.5351
11522SOL    HW252177  13.128   1.176   3.770  0.1032  0.3077 -0.1459
11523SOL     OW52178   7.912   5.571  12.021 -0.6997  0.1436 -0.2337
11523SOL    HW152179   7.832   5.589  11.970  1.0868  1.4324 -2.8273
11523SOL    HW252180   7.971   5.530  11.958  0.0450 -2.7973  2.1809
11524SOL     OW52181   0.909   1.960   8.602  0.3681 -0.3254  0.1685
11524SOL    HW152182   0.934   1.975   8.510 -1.6999  0.8295 -0.2535
11524SOL    HW252183   0.884   1.868   8.604 -1.1523  0.0256 -0.8733
11525SOL     OW52184   9.054   3.379  12.039 -0.3137 -0.4811 -0.9121
11525SOL    HW152185   9.000   3.439  12.090 -1.0082 -1.0064 -1.0112
11525SOL    HW252186   9.143   3.407  12.056 -0.6573  1.6462 -2.2750
11526SOL     OW52187  12.087   6.208   4.584  0.2499  0.2213  0.0939
11526SOL    HW152188  12.049   6.225   4.670 -0.1328  0.9584 -0.2119
11526SOL    HW252189  12.108   6.114   4.585  1.3750  0.4395  1.4302
11527SOL     OW52190   0.585   5.092   4.588 -0.4160 -0.0138  0.0891
11527SOL    HW152191   0.630   5.038   4.523 -0.6469  0.0380 -0.1135
11527SOL    HW252192   0.603   5.049   4.672 -1.3153 -0.8807 -0.1537
11528SOL     OW52193   4.772   6.720  10.263  0.2547 -0.8175  0.4115
11528SOL    HW152194   4.838   6.654  10.246 -0.5760 -1.0558 -2.3461
11528SOL    HW252195   4.816   6.803  10.245  0.5591 -0.7684  1.3293
11529SOL     OW52196   2.085   2.329   3.862  0.2607  0.3922  0.0765
11529SOL    HW152197   2.139   2.251   3.866 -0.6384 -0.2225  2.8044
11529SOL    HW252198   1.997   2.296   3.840 -0.3529  0.3899  2.2773
11530SOL     OW52199   6.455   1.872   8.847  0.0119 -0.3651  0.1337
11530SOL    HW152200   6.480   1.796   8.900  2.6692 -0.1084 -0.6494
11530SOL    HW252201   6.400   1.924   8.905 -0.0080 -1.7584  1.4495
11531SOL     OW52202   2.427   2.062  10.701  0.6062  0.0030 -0.4524
11531SOL    HW152203   2.378   1.992  10.657  0.8172 -0.2896 -0.2253
11531SOL    HW252204   2.380   2.076  10.783 -0.1478  0.9768 -1.0323
11532SOL     OW52205   6.509  13.817   3.511  0.6025  0.1004 -0.0631
11532SOL    HW152206   6.528  13.878   3.440 -0.9256 -1.7984 -2.2334
11532SOL    HW252207   6.420  13.839   3.538  0.8239  0.1752  0.6438
11533SOL     OW52208  12.450   4.202  12.727  0.1388  0.3530  0.0499
11533SOL    HW152209  12.542   4.213  12.751  0.2083 -1.1141  0.5785
11533SOL    HW252210  12.403   4.268  12.777  0.7845  0.3168  0.7117
11534SOL     OW52211  13.417   2.081  10.850  0.2032 -0.0407  0.0436
11534SOL    HW152212  13.490   2.061  10.908  0.6539  1.4330  0.0152
11534SOL    HW252213  13.456   2.081  10.762 -0.1990 -0.9224 -0.1482
11535SOL     OW52214   2.345   8.279   6.696  0.3245  0.2831 -0.4054
11535SOL    HW152215   2.278   8.345   6.713 -0.7263 -0.8679  0.0554
11535SOL    HW252216   2.418   8.304   6.752 -0.7537  0.0481  1.1681
11536SOL     OW52217   9.162   8.105  12.560  0.1877 -0.7275  0.1582
11536SOL    HW152218   9.182   8.014  12.584  0.7845 -0.3221  1.2120
11536SOL    HW252219   9.164   8.153  12.642  0.4390  0.3565 -0.4638
11537SOL     OW52220   2.136   9.924   2.377  0.1712 -0.6487 -0.9399
11537SOL    HW152221   2.120  10.002   2.430  2.0288 -0.0645 -1.1451
11537SOL    HW252222   2.056   9.872   2.385 -0.1940  0.1309  1.1659
11538SOL     OW52223   9.945  12.851  12.480 -0.1349 -0.5112  0.4884
11538SOL    HW152224   9.920  12.875  12.390  0.1326  4.1613  1.3825
11538SOL    HW252225   9.867  12.872  12.532  0.2890 -1.4679  1.5344
11539SOL     OW52226   8.607  12.236  10.969  0.1404  0.1644 -0.0991
11539SOL    HW152227   8.529  12.250  11.022  0.5593  2.5133  0.0006
11539SOL    HW252228   8.600  12.145  10.940 -0.8984 -0.7549  2.6705
11540SOL     OW52229  11.576   4.593   1.477 -0.5194 -0.3189  0.0334
11540SOL    HW152230  11.597   4.557   1.390 -0.1524 -1.4531  0.5710
11540SOL    HW252231  11.632   4.543   1.537 -0.2414  0.9496  0.8617
11541SOL     OW52232  13.027   6.953  11.283 -0.3517  0.6177  0.6835
11541SOL    HW152233  13.013   6.891  11.355  1.7677  1.4093  1.8611
11541SOL    HW252234  12.949   7.009  11.284 -0.1856  0.8832  2.6887
11542SOL     OW52235   1.620   0.275  13.815  0.0050  0.4059 -0.0109
11542SOL    HW152236   1.592   0.192  13.778 -0.5952 -0.2201  1.7378
11542SOL    HW252237   1.651   0.326  13.740 -0.1685 -1.1586 -1.1908
11543SOL     OW52238   5.855   3.545   8.017 -0.3106 -0.0532  0.6070
11543SOL    HW152239   5.845   3.482   7.945  0.1297 -1.8714  2.0556
11543SOL    HW252240   5.770   3.588   8.023 -0.4468 -0.0947 -0.7933
11544SOL     OW52241   1.373   2.695   0.683  0.1478  0.0052  0.1220
11544SOL    HW152242   1.364   2.790   0.674  0.2869 -0.0400 -0.4960
11544SOL    HW252243   1.286   2.661   0.660  0.8068 -0.1889 -2.3577
11545SOL     OW52244  11.806   9.305   1.850 -0.0879 -0.1174 -0.3089
11545SOL    HW152245  11.887   9.274   1.810  0.5004 -2.7222  2.5959
11545SOL    HW252246  11.823   9.398   1.868  2.1787 -0.5330 -0.0054
11546SOL     OW52247   5.151  11.267   9.872  0.1366 -0.1098  0.1421
11546SOL    HW152248   5.119  11.328   9.805 -0.1942 -0.5891 -0.1423
11546SOL    HW252249   5.212  11.211   9.824 -0.2418 -0.5726  0.2045
11547SOL     OW52250   2.966   1.459   7.254 -0.4092  0.1420 -0.5558
11547SOL    HW152251   2.950   1.514   7.331  2.8263 -0.6331  0.8207
11547SOL    HW252252   3.020   1.513   7.197  1.1162 -0.8406 -0.0939
11548SOL     OW52253   9.563   0.578   3.232  0.5607  0.2564  0.1064
11548SOL    HW152254   9.513   0.513   3.281  0.8450  0.6500  0.9337
11548SOL    HW252255   9.572   0.653   3.292 -0.5689  1.4526 -1.1619
11549SOL     OW52256   1.628   4.997  10.571 -0.2518 -0.0755 -0.1711
11549SOL    HW152257   1.553   4.959  10.524 -0.7115  1.8163 -1.0908
11549SOL    HW252258   1.602   4.996  10.663 -0.6190 -1.1066 -0.2776
11550SOL     OW52259   4.793   2.322  12.090  0.4673 -0.4109  0.9054
11550SOL    HW152260   4.823   2.402  12.131 -0.2924  1.0221 -1.1628
11550SOL    HW252261   4.700   2.315  12.113  0.3831 -0.3662  0.5842
11551SOL     OW52262   2.290   1.951   4.641  0.2834 -0.1433  0.3286
11551SOL    HW152263   2.200   1.944   4.671  0.1096  0.2452 -0.0988
11551SOL    HW252264   2.315   2.041   4.661  0.1113  0.1801 -0.8194
11552SOL     OW52265   4.684  12.030   6.285  0.3121  0.5851  0.4207
11552SOL    HW152266   4.768  12.005   6.245  0.1602  2.3181 -1.0890
11552SOL    HW252267   4.665  12.117   6.250 -1.6227  0.6804  1.5542
11553SOL     OW52268  13.007   4.807  11.929  0.2405 -0.2582 -0.2991
11553SOL    HW152269  13.064   4.730  11.937 -1.0235 -1.2392 -0.4235
11553SOL    HW252270  13.001   4.823  11.835  1.8349  1.0701 -0.2282
11554SOL     OW52271   8.968   0.420   0.462 -0.0826  0.1541 -0.6003
11554SOL    HW152272   9.038   0.452   0.406 -0.0870 -0.4977 -0.9815
11554SOL    HW252273   8.914   0.366   0.405  0.8356 -1.9017  0.3705
11555SOL     OW52274   4.039   9.505   3.666 -0.4222 -0.1647 -0.4228
11555SOL    HW152275   3.954   9.528   3.703 -0.7113 -0.9378 -0.5911
11555SOL    HW252276   4.021   9.481   3.576 -0.2058 -1.4486 -0.1395
11556SOL     OW52277   3.609  10.460   7.170  0.0248 -0.0041 -0.1762
11556SOL    HW152278   3.627  10.534   7.228  0.0119  0.2322 -0.4717
11556SOL    HW252279   3.585  10.500   7.086  2.1075 -0.3327 -0.9804
11557SOL     OW52280   9.495   5.984   2.254 -0.0221  0.1269  0.2399
11557SOL    HW152281   9.549   6.024   2.186  2.3703 -1.0574  1.3431
11557SOL    HW252282   9.491   5.891   2.231 -1.2398  0.1135  0.4393
11558SOL     OW52283   9.399   8.212   2.470 -0.4559  0.0739  0.2447
11558SOL    HW152284   9.360   8.298   2.452  0.9795  0.2113 -2.9788
11558SOL    HW252285   9.493   8.231   2.478 -0.1889 -1.0978  0.0138
11559SOL     OW52286   1.289   0.770   2.358 -0.2230 -0.0940  0.2102
11559SOL    HW152287   1.295   0.785   2.453 -0.7338  0.2565  0.1870
11559SOL    HW252288   1.346   0.837   2.320 -3.0021  2.3884  0.0668
11560SOL     OW52289   2.488  12.908   6.784  0.0391 -0.6060 -0.3600
11560SOL    HW152290   2.402  12.880   6.753 -0.2471 -0.2618  0.1125
11560SOL    HW252291   2.483  13.003   6.784  0.0694 -0.5959  0.6290
11561SOL     OW52292   3.876   9.736  12.422  0.3576 -0.8015 -0.1008
11561SOL    HW152293   3.789   9.701  12.400  0.7639 -0.2088 -3.2273
11561SOL    HW252294   3.864   9.831  12.421  0.6721 -0.7274  1.4293
11562SOL     OW52295   1.769   3.826   7.399 -0.0661 -0.2788  0.3424
11562SOL    HW152296   1.763   3.730   7.393  2.4920 -0.5506  1.0601
11562SOL    HW252297   1.757   3.845   7.492  1.6075 -0.1450  0.5513
11563SOL     OW52298   0.814  13.203   5.658  0.2437 -0.5916  0.5235
11563SOL    HW152299   0.895  13.242   5.690  0.6286 -0.5542 -0.4625
11563SOL    HW252300   0.789  13.140   5.725  0.8213 -0.2551  1.0666
11564SOL     OW52301   9.531   5.260   4.169  0.1989 -0.0910  0.0859
11564SOL    HW152302   9.554   5.333   4.111  0.4120 -0.7551 -0.6659
11564SOL    HW252303   9.440   5.276   4.191  0.3841  0.6858  0.3460
11565SOL     OW52304  10.987   6.761   7.034  0.8066 -0.1488  0.6640
11565SOL    HW152305  11.076   6.775   7.067  0.5475  0.3425  1.1750
11565SOL    HW252306  10.943   6.845   7.047  0.6066 -0.0119 -0.7122
11566SOL     OW52307  12.488  10.711   0.129  0.0607  0.2030  0.1809
11566SOL    HW152308  12.501  10.743   0.219  0.3336 -0.0237  0.2241
11566SOL    HW252309  12.401  10.672   0.130  0.2677 -0.2675  0.4889
11567SOL     OW52310   0.964   6.301  10.122  0.3563  0.6036 -0.3615
11567SOL    HW152311   0.958   6.281  10.215  1.0758  1.1216 -0.1938
11567SOL    HW252312   0.905   6.375  10.109  1.5322  1.6274  0.0281
11568SOL     OW52313   3.721   3.413  13.988 -0.0395  0.2763 -0.0344
11568SOL    HW152314   3.736   3.335  14.041 -0.2677  0.8688  0.9143
11568SOL    HW252315   3.722   3.380  13.898  3.4891 -0.3138  0.0565
11569SOL     OW52316  10.006  12.951  12.907  0.1934  0.1572  0.1561
11569SOL    HW152317  10.076  12.888  12.889  1.4849  1.8380 -1.1308
11569SOL    HW252318   9.950  12.907  12.971 -0.1664 -3.0953 -2.1649
11570SOL     OW52319   1.403   4.620   0.037  0.2955 -0.2897 -0.5733
11570SOL    HW152320   1.443   4.544  -0.007 -0.1273 -0.7205 -0.2291
11570SOL    HW252321   1.430   4.612   0.128  3.3225  2.0175 -1.1133
11571SOL     OW52322   8.078  12.080   9.438  0.1250 -0.4713  0.2930
11571SOL    HW152323   8.114  12.162   9.405 -1.5078  0.5037  0.8178
11571SOL    HW252324   8.076  12.022   9.362 -1.8010  1.1096 -0.9620
11572SOL     OW52325   1.627  10.202  12.685  0.4849  0.0538  0.6679
11572SOL    HW152326   1.561  10.218  12.752  0.7625  2.7629  0.4280
11572SOL    HW252327   1.711  10.216  12.730  0.6593  2.9971 -0.3163
11573SOL     OW52328  10.168   0.366  11.076 -0.3269  0.1072 -0.3938
11573SOL    HW152329  10.176   0.460  11.060 -0.0344  0.1204 -0.1619
11573SOL    HW252330  10.087   0.357  11.125 -0.5889  0.1920 -0.8012
11574SOL     OW52331   2.841   9.309  13.840 -1.0650 -0.5750  0.5308
11574SOL    HW152332   2.819   9.224  13.803 -0.8507 -0.5313  0.2981
11574SOL    HW252333   2.764   9.363  13.823 -1.0049 -0.5835  0.2339
11575SOL     OW52334   9.510  12.384   9.145 -0.0939  0.4271 -0.0248
11575SOL    HW152335   9.468  12.394   9.060 -0.6944  2.0286  0.4240
11575SOL    HW252336   9.599  12.355   9.124 -0.9857 -1.8287 -1.0426
11576SOL     OW52337   0.517   8.647   7.317  0.3547 -0.6842  0.1302
11576SOL    HW152338   0.537   8.677   7.228 -1.2441 -0.7030 -0.2750
11576SOL    HW252339   0.593   8.672   7.369  0.5339  1.0102 -0.8819
11577SOL     OW52340  11.502   6.762   7.359 -0.2048 -0.0367  0.0152
11577SOL    HW152341  11.584   6.808   7.377 -0.2330 -0.5313  1.5967
11577SOL    HW252342  11.495   6.698   7.430 -1.0898 -1.2021 -1.0859
11578SOL     OW52343   1.478   0.140   4.687  0.2874  0.1762  0.1535
11578SOL    HW152344   1.446   0.225   4.718 -0.6228 -0.5286  1.2278
11578SOL    HW252345   1.442   0.077   4.749  2.9770 -0.8005  0.8652
11579SOL     OW52346   2.363   1.378   6.437 -0.1580 -0.6130 -0.2525
11579SOL    HW152347   2.301   1.334   6.495 -1.6696  0.1387 -1.2550
11579SOL    HW252348   2.346   1.341   6.350  0.5007 -0.0820 -0.6263
11580SOL     OW52349   4.719   1.341   5.475 -0.1683  0.1778  0.8031
11580SOL    HW152350   4.707   1.424   5.521  0.8460  0.6933  0.1785
11580SOL    HW252351   4.758   1.282   5.540  0.8899  0.7816  0.7403
11581SOL     OW52352  13.887   9.624   5.285 -0.3739 -0.1504  0.0167
11581SOL    HW152353  13.886   9.635   5.190  1.1734 -0.2324 -0.0339
11581SOL    HW252354  13.799   9.650   5.313 -0.8847 -0.2230 -1.4403
11582SOL     OW52355  12.257  11.521   0.960  0.3327  0.0363  0.4646
11582SOL    HW152356  12.315  11.492   1.031  0.7953 -1.0706 -0.3333
11582SOL    HW252357  12.174  11.477   0.976  0.3283  0.0653  0.5200
11583SOL     OW52358  10.286  13.697   6.685  0.3610 -0.4739  0.1250
11583SOL    HW152359  10.374  13.692   6.723  0.6487 -0.5514 -0.5364
11583SOL    HW252360  10.254  13.784   6.708  1.1936  0.1173 -0.8719
11584SOL     OW52361  11.459   3.709   3.687 -0.3835 -0.1074 -0.0348
11584SOL    HW152362  11.428   3.741   3.602  1.7885  0.6622 -0.5824
11584SOL    HW252363  11.392   3.645   3.714 -1.4904  0.1710 -1.9569
11585SOL     OW52364   7.146  10.995   2.459  0.8821 -0.0886 -0.1299
11585SOL    HW152365   7.120  11.048   2.384  0.2779 -0.3520 -0.1142
11585SOL    HW252366   7.179  10.913   2.421  0.2807 -0.3496 -0.1092
11586SOL     OW52367  13.515   7.917   5.256  0.1725 -0.3852 -0.2819
11586SOL    HW152368  13.422   7.901   5.242  0.0095  0.4076 -0.1357
11586SOL    HW252369  13.556   7.893   5.173  0.1772 -3.1750  0.4381
11587SOL     OW52370   1.081   4.397   7.966 -0.0787 -0.1547  0.1639
11587SOL    HW152371   1.140   4.430   7.899 -1.8933  1.1337 -0.8808
11587SOL    HW252372   1.052   4.475   8.013 -2.8448 -0.3717 -0.9905
11588SOL     OW52373  11.289  10.739   5.909  0.4887 -0.3626  0.3519
11588SOL    HW152374  11.209  10.721   5.859 -0.1891 -1.4107  1.7457
11588SOL    HW252375  11.336  10.804   5.857 -0.4812 -0.9428 -1.3108
11589SOL     OW52376   0.827   8.267   1.775  0.1300  0.4495  0.1280
11589SOL    HW152377   0.869   8.339   1.823  0.4758 -0.1424  0.7275
11589SOL    HW252378   0.821   8.299   1.685  0.6591  1.0678  0.3001
11590SOL     OW52379   1.060   7.426   4.639  0.3126 -0.1069 -0.0348
11590SOL    HW152380   1.028   7.497   4.694 -0.5059 -0.2949 -0.2557
11590SOL    HW252381   1.097   7.363   4.701 -1.1623 -0.6083  0.3692
11591SOL     OW52382   9.356  13.099  12.418  0.1829 -0.0416  0.3002
11591SOL    HW152383   9.343  13.193  12.432 -0.4005  0.0764 -0.9170
11591SOL    HW252384   9.447  13.084  12.442 -0.1929  0.4816  2.2143
11592SOL     OW52385  13.817   4.950   6.875 -0.6049  0.1692 -0.3550
11592SOL    HW152386  13.887   4.897   6.839 -1.1718  0.1687 -1.4973
11592SOL    HW252387  13.849   5.040   6.871 -0.5749  0.1451 -0.6543
11593SOL     OW52388   4.333   3.755   2.716  0.7473  0.0152  0.2561
11593SOL    HW152389   4.343   3.846   2.689 -0.7964  0.3213  0.6357
11593SOL    HW252390   4.282   3.715   2.645 -0.1550 -0.0878  0.9538
11594SOL     OW52391  11.080   0.784   6.917 -0.7663 -0.0693 -0.6389
11594SOL    HW152392  11.091   0.690   6.932 -1.3282 -0.1241 -0.5614
11594SOL    HW252393  11.019   0.790   6.843 -1.6754  0.2410  0.1227
11595SOL     OW52394   9.837   0.296   9.476 -0.5157  0.0916 -0.4182
11595SOL    HW152395   9.846   0.235   9.403 -0.5076 -0.7860  0.2995
11595SOL    HW252396   9.853   0.243   9.554  0.2779  1.1886  0.1905
11596SOL     OW52397  11.393   1.717   6.483  0.1033  0.5153  0.0355
11596SOL    HW152398  11.328   1.648   6.477 -0.5721  0.9672  1.7071
11596SOL    HW252399  11.461   1.691   6.420 -0.1569 -1.6142  0.5531
11597SOL     OW52400   5.339   0.111   1.494 -0.0891 -0.4042  0.2245
11597SOL    HW152401   5.327   0.037   1.435  1.3889 -1.0098  0.6444
11597SOL    HW252402   5.415   0.157   1.459 -1.7144  1.7135 -0.7909
11598SOL     OW52403   0.363   8.364  13.615  0.8184  0.4557 -0.0504
11598SOL    HW152404   0.448   8.321  13.601  1.2529  1.5240 -0.8888
11598SOL    HW252405   0.385   8.447  13.656 -0.0106 -0.1028  1.5989
11599SOL     OW52406  10.024   1.529   9.263 -0.1786  0.0088 -0.4776
11599SOL    HW152407  10.096   1.592   9.264 -0.7649  0.7005 -1.0142
11599SOL    HW252408  10.018   1.498   9.353 -0.3599  1.2915 -0.0272
11600SOL     OW52409   6.689  13.168   8.922  0.3951 -0.0659 -0.0570
11600SOL    HW152410   6.695  13.249   8.974  0.9671 -0.1858  0.0737
11600SOL    HW252411   6.763  13.173   8.862 -1.4047  1.0566 -2.3312
11601SOL     OW52412   8.480   0.089   3.997  0.1949 -0.0094  0.8046
11601SOL    HW152413   8.535   0.139   4.058  0.2341  1.3462 -0.3082
11601SOL    HW252414   8.391   0.097   4.033 -0.1236  2.5757 -0.3840
11602SOL     OW52415   0.586   9.908  12.109 -0.4340 -0.6122 -0.0839
11602SOL    HW152416   0.500   9.879  12.079 -1.6949  1.5415  1.2408
11602SOL    HW252417   0.644   9.892  12.034 -2.5742  0.5954 -2.1181
11603SOL     OW52418   5.900   9.954   4.706  0.1068 -0.3750 -0.5907
11603SOL    HW152419   5.956   9.941   4.630 -0.2974  0.3232 -1.0187
11603SOL    HW252420   5.816   9.982   4.670  0.4530  1.8488  0.1470
11604SOL     OW52421  13.534   0.915   8.454 -0.0865 -0.5001 -0.1592
11604SOL    HW152422  13.580   0.972   8.392  0.3464 -0.2761  0.3608
11604SOL    HW252423  13.491   0.850   8.399  0.6941 -0.5956 -0.6843
11605SOL     OW52424   9.317   5.684  13.133  0.1988  0.6340  0.6316
11605SOL    HW152425   9.375   5.669  13.208  0.4047  0.3227  0.4129
11605SOL    HW252426   9.272   5.766  13.154 -0.2544  0.1937  1.4205
11606SOL     OW52427   2.553   4.446   0.242  0.0656  0.2264  0.5877
11606SOL    HW152428   2.494   4.470   0.313  0.2435 -1.8165  1.5121
11606SOL    HW252429   2.532   4.507   0.172 -2.3340  0.3240  1.2903
11607SOL     OW52430   1.593  10.943   6.737  0.0807 -0.3116  0.0693
11607SOL    HW152431   1.612  11.009   6.803  1.5666 -1.8030  1.2401
11607SOL    HW252432   1.671  10.941   6.681 -0.0477 -0.8905 -0.1065
11608SOL     OW52433  11.523  12.742  13.255  0.6740 -0.4818 -0.1640
11608SOL    HW152434  11.602  12.728  13.202  0.6503 -1.7210  0.0964
11608SOL    HW252435  11.553  12.791  13.331  1.2343 -1.1057  0.0248
11609SOL     OW52436   1.977   9.739   5.408 -0.2380  0.3542  0.0801
11609SOL    HW152437   1.892   9.779   5.428 -0.4192  0.0456 -0.0718
11609SOL    HW252438   1.969   9.649   5.437 -0.1204  0.1993 -0.3512
11610SOL     OW52439   0.304   4.925  13.270 -0.0378  0.5674 -0.5087
11610SOL    HW152440   0.271   5.010  13.301 -0.0629  0.0345  0.9801
11610SOL    HW252441   0.232   4.864  13.286  0.7073 -0.1139  0.3254
11611SOL     OW52442   1.459   0.204   1.215  0.0550 -0.1908  0.0483
11611SOL    HW152443   1.449   0.118   1.175  1.8133  0.0729 -1.0907
11611SOL    HW252444   1.446   0.266   1.142 -1.8917  0.5807  0.9818
11612SOL     OW52445  10.400   0.156   7.764  0.2772  0.8365  0.0808
11612SOL    HW152446  10.372   0.232   7.713  2.1083  1.8106  0.4335
11612SOL    HW252447  10.476   0.122   7.717  0.3337  0.0770  0.6969
11613SOL     OW52448   1.233  12.484  10.910 -0.3105  0.0407 -0.4783
11613SOL    HW152449   1.150  12.461  10.869 -0.5975  0.3812 -0.0954
11613SOL    HW252450   1.283  12.525  10.840  0.5603 -2.4656 -1.4312
11614SOL     OW52451   3.343   0.439   9.566  0.0862  0.1221 -0.5767
11614SOL    HW152452   3.296   0.379   9.508  0.6499 -0.4800 -0.4282
11614SOL    HW252453   3.295   0.522   9.559 -1.0319 -0.4831 -0.3748
11615SOL     OW52454   5.860   0.325  12.084 -0.4945 -0.0769 -0.2548
11615SOL    HW152455   5.813   0.337  12.002 -0.5442 -0.7653 -0.3355
11615SOL    HW252456   5.893   0.235  12.080 -0.2781 -0.0322  0.3632
11616SOL     OW52457  11.165   5.421   8.478 -0.0293 -0.4289 -0.2745
11616SOL    HW152458  11.196   5.470   8.554  2.6956  0.9102 -2.0664
11616SOL    HW252459  11.212   5.337   8.482  2.2396  0.6565 -1.7045
11617SOL     OW52460  11.969   0.633  10.004  0.0353  0.5234 -0.3018
11617SOL    HW152461  12.011   0.717  10.023 -0.3550  0.8270 -0.7567
11617SOL    HW252462  11.938   0.603  10.089  3.1249 -0.8246  0.4648
11618SOL     OW52463  11.036  13.031   0.477  0.5678  0.0602  0.0457
11618SOL    HW152464  10.985  13.056   0.400  1.7583 -0.7439 -1.0608
11618SOL    HW252465  11.066  12.942   0.458 -0.0881 -0.6125  1.9935
11619SOL     OW52466  12.002   5.445  12.907 -0.4059 -0.0742 -0.4657
11619SOL    HW152467  11.996   5.529  12.862 -2.6574 -0.2147 -0.5367
11619SOL    HW252468  11.965   5.382  12.845 -2.1561 -0.5103  0.9342
11620SOL     OW52469   2.257   3.073   0.142  0.3817  0.0451  0.4651
11620SOL    HW152470   2.192   3.110   0.202  0.2252 -0.8803  0.8955
11620SOL    HW252471   2.240   2.979   0.145 -0.8282  0.0721 -2.4111
11621SOL     OW52472  10.213  13.550  11.038 -0.1444  0.0314 -0.3989
11621SOL    HW152473  10.261  13.606  10.977 -1.6430 -0.2653 -1.9424
11621SOL    HW252474  10.163  13.491  10.981 -2.9715  0.8675  1.0441
11622SOL     OW52475   4.531   8.687   1.608 -0.1378  0.0514 -0.2799
11622SOL    HW152476   4.584   8.752   1.561  0.4096 -1.4903 -1.8925
11622SOL    HW252477   4.442   8.702   1.576  0.0726 -0.3280 -1.0648
11623SOL     OW52478   5.529  11.457  11.449  0.2791  0.2334 -0.0532
11623SOL    HW152479   5.495  11.409  11.373  0.3050  0.6421 -0.3249
11623SOL    HW252480   5.452  11.499  11.486  0.7117  2.8217 -1.8440
11624SOL     OW52481   0.399  12.480  11.247 -0.5598  0.0413 -0.0805
11624SOL    HW152482   0.436  12.414  11.305 -0.4633 -1.3222 -1.6292
11624SOL    HW252483   0.323  12.514  11.295  0.6755  0.4428  1.6738
11625SOL     OW52484   0.493  13.321   4.722  0.2010 -0.1674  0.7418
11625SOL    HW152485   0.499  13.384   4.651  1.6809 -0.2284  0.7865
11625SOL    HW252486   0.411  13.275   4.706  0.7310 -0.5273 -1.2424
11626SOL     OW52487   3.847   0.351  12.118 -0.3508 -0.0000 -0.0294
11626SOL    HW152488   3.872   0.305  12.197 -3.4924  0.1765  1.2032
11626SOL    HW252489   3.899   0.432  12.119 -0.1579 -0.1229  1.7247
11627SOL     OW52490   0.755   0.476  11.105 -0.0288  0.1597  0.0154
11627SOL    HW152491   0.838   0.457  11.148  0.4115  0.3763 -0.7150
11627SOL    HW252492   0.698   0.404  11.129  0.2890  0.1447  0.7434
11628SOL     OW52493   4.569  12.524  13.982 -0.2278 -0.1788  0.3700
11628SOL    HW152494   4.549  12.571  13.901 -0.7197 -0.7587  0.1525
11628SOL    HW252495   4.531  12.578  14.051 -0.3767 -0.0174  0.1634
11629SOL     OW52496   5.272  11.323   6.755  0.0320 -0.3647 -0.0408
11629SOL    HW152497   5.221  11.249   6.790  0.9651 -1.2520 -0.5198
11629SOL    HW252498   5.208  11.394   6.749 -1.9476 -2.1436 -3.1480
11630SOL     OW52499   2.067  13.474   3.712  0.4308  0.1446 -0.4371
11630SOL    HW152500   2.128  13.442   3.645 -0.8115 -1.2314 -0.9651
11630SOL    HW252501   2.034  13.557   3.676  0.3800 -0.1780 -1.1542
11631SOL     OW52502   8.351  13.078   2.121  0.0997 -0.5923 -0.0873
11631SOL    HW152503   8.338  12.992   2.082  0.8067 -0.2793 -1.0398
11631SOL    HW252504   8.270  13.126   2.101 -0.1958 -0.9467  0.2380
11632SOL     OW52505   1.929   2.750   7.752  0.1541  0.5332  0.1548
11632SOL    HW152506   2.012   2.720   7.714 -0.9463 -0.7297 -1.3637
11632SOL    HW252507   1.920   2.698   7.832 -0.3756 -1.2594 -1.0185
11633SOL     OW52508  11.494   4.028  13.647  0.1302 -0.6639 -0.0635
11633SOL    HW152509  11.478   4.069  13.732 -3.8810 -0.7043 -0.6094
11633SOL    HW252510  11.543   4.095  13.598 -1.2785  1.2124  0.9260
11634SOL     OW52511   9.694   1.924   4.385 -0.0447 -0.5719 -0.6257
11634SOL    HW152512   9.760   1.898   4.450 -0.2194  1.1475  0.2919
11634SOL    HW252513   9.745   1.947   4.307  0.4073  0.2073 -0.1055
11635SOL     OW52514   4.638   7.581  10.659  0.2598 -0.5284  0.2287
11635SOL    HW152515   4.660   7.501  10.610 -1.9350 -0.1013 -1.5863
11635SOL    HW252516   4.549   7.602  10.632  0.8122  2.6420  0.5499
11636SOL     OW52517   6.753   6.000   0.066 -0.6515 -0.4443 -0.2244
11636SOL    HW152518   6.772   6.016  -0.026 -0.4801 -2.3401 -0.5708
11636SOL    HW252519   6.779   5.909   0.080 -2.9151 -0.9841  1.0713
11637SOL     OW52520   4.643   7.258   3.903 -0.1704 -0.0451 -0.0248
11637SOL    HW152521   4.559   7.264   3.857 -1.6601 -1.7991  2.2277
11637SOL    HW252522   4.659   7.347   3.934 -1.5517  0.2038  0.0500
11638SOL     OW52523   0.610   5.227   0.942  0.1059  0.1476  0.0411
11638SOL    HW152524   0.685   5.247   0.885  0.0050  3.1609  0.7780
11638SOL    HW252525   0.643   5.242   1.030 -0.4879 -1.8376  0.6508
11639SOL     OW52526   4.385   9.825   3.123 -0.1233  0.0632 -1.0992
11639SOL    HW152527   4.437   9.794   3.198 -1.5300  0.5664  0.1298
11639SOL    HW252528   4.444   9.818   3.049  1.4440 -0.1440  0.1115
11640SOL     OW52529  13.230   7.216   8.934 -0.2206  0.1771  0.3227
11640SOL    HW152530  13.258   7.127   8.952 -0.4387  0.0049 -0.1654
11640SOL    HW252531  13.171   7.208   8.859 -2.2828  0.4128  1.8353
11641SOL     OW52532   0.374  12.010  12.203  0.0709  0.3692 -0.1496
11641SOL    HW152533   0.363  11.934  12.146 -0.0558  1.1570 -1.2107
11641SOL    HW252534   0.304  12.070  12.177 -0.2628  0.5847  1.1499
11642SOL     OW52535   5.556  13.527   6.417 -0.4487  0.2853 -0.1665
11642SOL    HW152536   5.516  13.585   6.483 -1.1808  0.0901 -0.4340
11642SOL    HW252537   5.644  13.564   6.403  0.3306 -0.5535  2.0519
11643SOL     OW52538   6.665   0.372  11.594 -0.0848 -0.0088  0.2057
11643SOL    HW152539   6.656   0.306  11.663  1.4774 -0.6340 -0.1511
11643SOL    HW252540   6.576   0.386  11.563 -0.4631 -2.0064  0.2567
11644SOL     OW52541   8.811   3.432   7.086  0.1753  0.2141  0.3290
11644SOL    HW152542   8.867   3.508   7.065 -0.6546  0.5096 -0.9546
11644SOL    HW252543   8.859   3.385   7.154  0.9808  1.5859  0.7463
11645SOL     OW52544   0.757  10.672   3.675 -0.0056 -0.2991 -0.0706
11645SOL    HW152545   0.750  10.602   3.609  0.5959  0.9261 -1.4796
11645SOL    HW252546   0.721  10.633   3.755 -3.6589 -0.9114 -1.8020
11646SOL     OW52547   9.727  13.457  12.123  0.1064 -0.6098  1.0814
11646SOL    HW152548   9.665  13.483  12.055  0.4197 -0.9384  0.6649
11646SOL    HW252549   9.701  13.507  12.200  1.1050  1.4363  0.1483
11647SOL     OW52550   6.279  11.085   4.634 -0.6761  0.1106  0.2972
11647SOL    HW152551   6.271  11.023   4.706  0.9545  0.2338  0.6175
11647SOL    HW252552   6.358  11.135   4.653 -0.6340  0.6713 -1.1789
11648SOL     OW52553  13.047  12.775   2.176 -0.0688 -0.5284 -0.7683
11648SOL    HW152554  13.130  12.741   2.209 -0.2702 -1.3115 -1.0649
11648SOL    HW252555  13.029  12.724   2.097 -1.3883 -1.1521 -0.0934
11649SOL     OW52556   4.146   8.681   3.442  0.2220 -0.1897 -0.1102
11649SOL    HW152557   4.153   8.776   3.450  2.7647  0.2016 -4.1421
11649SOL    HW252558   4.223   8.647   3.487  0.4187 -0.1559 -0.4187
11650SOL     OW52559   6.653   0.831  11.299  0.1022 -0.2127  0.4090
11650SOL    HW152560   6.725   0.805  11.356  0.2033  0.2225  0.4828
11650SOL    HW252561   6.692   0.894  11.238 -0.1390 -0.2261  0.2408
11651SOL     OW52562  11.038   1.967  11.192 -0.4540 -0.5125 -0.1383
11651SOL    HW152563  10.988   1.891  11.222 -3.0334  0.9080 -0.5709
11651SOL    HW252564  11.016   1.976  11.100  0.0995  0.5506 -0.1895
11652SOL     OW52565  12.167   7.769   8.839  0.1940 -0.2111  0.4266
11652SOL    HW152566  12.232   7.703   8.859  0.2741  0.1717  1.4728
11652SOL    HW252567  12.089   7.720   8.812  1.2742 -0.6670 -2.1959
11653SOL     OW52568   7.055   2.625   2.475 -0.0869  0.0594 -0.3724
11653SOL    HW152569   7.000   2.677   2.415  1.3290  0.4817 -1.3714
11653SOL    HW252570   7.107   2.691   2.522 -0.0958 -0.3490  0.2165
11654SOL     OW52571   1.444   7.764   0.114  0.0531  0.2224 -0.5109
11654SOL    HW152572   1.365   7.816   0.097 -0.6117 -1.2257 -2.2144
11654SOL    HW252573   1.473   7.737   0.027  2.4236  0.6556  0.0942
11655SOL     OW52574   1.910   0.792   2.397 -0.0616 -0.0848 -0.1578
11655SOL    HW152575   1.993   0.810   2.442  0.0703  1.5462 -1.0028
11655SOL    HW252576   1.926   0.818   2.306 -1.0240 -1.2439 -0.6954
11656SOL     OW52577   4.862   6.143   8.130  0.3085  0.9207 -0.0548
11656SOL    HW152578   4.793   6.161   8.066 -0.0694  0.2685  0.1610
11656SOL    HW252579   4.818   6.097   8.201  0.8781  0.9274  0.3104
11657SOL     OW52580   2.256  11.770   8.245 -0.3353 -0.1423  0.1835
11657SOL    HW152581   2.314  11.845   8.232 -1.8789  0.9332 -0.8623
11657SOL    HW252582   2.308  11.708   8.296  1.9021  0.5304 -1.1242
11658SOL     OW52583   4.856   0.316   4.418 -0.4101 -0.7120 -0.4259
11658SOL    HW152584   4.841   0.402   4.457  0.1185 -0.3329 -1.0249
11658SOL    HW252585   4.770   0.275   4.416 -0.5975 -0.3647  0.2535
11659SOL     OW52586  12.678  14.064   8.556  0.2824  0.8662 -0.4789
11659SOL    HW152587  12.675  14.024   8.469  0.9616 -0.9035  0.2636
11659SOL    HW252588  12.591  14.102   8.569 -0.1504  0.2601 -1.5208
11660SOL     OW52589   0.903   1.096   0.163 -0.4992  0.3964 -0.4223
11660SOL    HW152590   0.994   1.074   0.141 -0.3149 -0.1522  0.8036
11660SOL    HW252591   0.852   1.021   0.132 -0.5580  0.7237 -1.1509
11661SOL     OW52592   1.306   3.939   2.690 -0.0359 -0.3143  0.3520
11661SOL    HW152593   1.332   3.978   2.606  0.4751 -0.6507  0.3460
11661SOL    HW252594   1.322   4.007   2.754 -0.8427  0.0966  0.1284
11662SOL     OW52595   5.068  10.601  12.680 -0.1089  0.7546 -0.2048
11662SOL    HW152596   5.020  10.571  12.603 -0.8215 -2.6511  1.3622
11662SOL    HW252597   5.158  10.614  12.649 -0.8804  2.0736 -2.0756
11663SOL     OW52598  13.369  12.547  13.915 -0.4149  0.1508 -0.0306
11663SOL    HW152599  13.294  12.522  13.861 -1.3340  0.3569  1.0970
11663SOL    HW252600  13.437  12.570  13.853 -1.5505  0.7369 -1.1035
11664SOL     OW52601  13.826   3.307   7.630 -0.5478 -0.0298 -0.2803
11664SOL    HW152602  13.750   3.254   7.607 -0.6423  0.1753 -0.4382
11664SOL    HW252603  13.804   3.395   7.600 -0.3628  0.0865 -0.0784
11665SOL     OW52604   2.570   6.277  13.450  0.4038  0.3937 -0.0399
11665SOL    HW152605   2.525   6.205  13.493  0.6061 -1.2921 -2.5041
11665SOL    HW252606   2.663   6.254  13.455  0.4582  0.3807 -0.9742
11666SOL     OW52607   2.965   8.979  10.157  0.3863  0.1999 -0.2307
11666SOL    HW152608   3.013   9.040  10.212 -0.8599  1.6273 -0.6393
11666SOL    HW252609   2.950   8.902  10.212  1.9228  0.2682  0.3248
11667SOL     OW52610   0.235   0.921   6.608  0.5040  0.4129  0.4435
11667SOL    HW152611   0.180   0.843   6.612  0.7229  0.1479 -1.0799
11667SOL    HW252612   0.195   0.983   6.669 -1.1141 -0.0038 -0.1582
11668SOL     OW52613  13.365   6.974   8.542 -0.1602  0.4348  0.3037
11668SOL    HW152614  13.418   6.930   8.607 -0.4140  1.5608  1.3174
11668SOL    HW252615  13.417   7.050   8.515 -0.0380 -0.0431 -0.8528
11669SOL     OW52616   4.109   3.518   5.639  0.0041  0.7589  0.1718
11669SOL    HW152617   4.064   3.514   5.555  0.4087  0.5047 -0.0347
11669SOL    HW252618   4.159   3.600   5.636  0.3698  0.5310 -0.0169
11670SOL     OW52619   1.422  13.485  11.274 -0.1615  0.3290  0.3985
11670SOL    HW152620   1.455  13.397  11.259 -0.9682 -0.0121  0.5653
11670SOL    HW252621   1.357  13.475  11.344 -0.7406  0.9437 -0.0387
11671SOL     OW52622  10.044   1.306   6.595 -0.4740  0.2232 -0.2864
11671SOL    HW152623  10.025   1.217   6.566 -1.5404  0.0069  0.9861
11671SOL    HW252624  10.135   1.303   6.624  0.2945  0.1850 -2.4736
11672SOL     OW52625   0.505   0.710   3.379  0.3991  0.1136 -0.0317
11672SOL    HW152626   0.570   0.714   3.449 -0.5922  1.9778  0.8626
11672SOL    HW252627   0.445   0.782   3.398 -0.8558 -0.3678 -1.8870
11673SOL     OW52628   9.625  12.368   8.439  0.1125  0.1489 -0.0071
11673SOL    HW152629   9.554  12.430   8.453 -0.8104 -0.9646  0.3311
11673SOL    HW252630   9.667  12.399   8.358 -1.7582 -0.0815 -1.1357
11674SOL     OW52631   0.610  11.018  13.533  0.0416  0.1143  0.2995
11674SOL    HW152632   0.521  11.004  13.503  0.5740 -0.0702 -1.2670
11674SOL    HW252633   0.600  11.056  13.620 -1.5601 -3.0996  1.7015
11675SOL     OW52634   2.835  10.089  13.660  0.1873  0.0180  0.0885
11675SOL    HW152635   2.858  10.015  13.716 -0.7489 -0.5031 -0.1997
11675SOL    HW252636   2.814  10.049  13.575  0.0541  0.6496 -0.1819
11676SOL     OW52637  13.529  12.463   5.101 -0.2672  0.0956  0.1110
11676SOL    HW152638  13.528  12.542   5.047 -2.3808  0.0516 -0.0222
11676SOL    HW252639  13.477  12.399   5.051  0.1476 -0.8862  0.8986
11677SOL     OW52640   8.165   4.116  12.490  0.6377 -0.3005 -0.1425
11677SOL    HW152641   8.240   4.129  12.548 -0.9008  2.3296  1.4620
11677SOL    HW252642   8.115   4.045  12.531 -0.6122  1.7485  2.1739
11678SOL     OW52643  10.508   4.801   2.464 -0.3001  0.1498  0.3515
11678SOL    HW152644  10.557   4.722   2.484 -2.3548 -1.1466  0.5152
11678SOL    HW252645  10.522   4.858   2.540  1.5651  0.1855  0.0232
11679SOL     OW52646  12.326   0.049   0.667  0.2894 -0.3518  0.2448
11679SOL    HW152647  12.358   0.071   0.755  1.3587  1.2216 -0.4839
11679SOL    HW252648  12.240   0.090   0.662 -0.7769 -2.3257  1.2827
11680SOL     OW52649  11.034  11.345   3.490  0.5090 -0.3120  0.3933
11680SOL    HW152650  10.988  11.349   3.574  0.7061 -0.2764  0.4998
11680SOL    HW252651  11.101  11.278   3.502 -0.0574 -0.9796 -0.0395
11681SOL     OW52652   0.431   3.064   9.719  0.1402 -1.0765  0.4968
11681SOL    HW152653   0.416   3.159   9.717  1.4105 -0.8243  1.3837
11681SOL    HW252654   0.409   3.038   9.808  0.5075 -1.4856  0.4718
11682SOL     OW52655   2.296  14.028   7.666 -0.2051  0.0140 -0.6867
11682SOL    HW152656   2.232  14.034   7.595 -1.2853  0.4267  0.2936
11682SOL    HW252657   2.244  14.028   7.746  0.9914 -0.3723  0.1260
11683SOL     OW52658   4.097   1.602   6.209  0.0911  0.3458  0.0029
11683SOL    HW152659   4.076   1.509   6.214 -0.5547  0.5147  0.5702
11683SOL    HW252660   4.193   1.605   6.211  0.1353 -0.3230 -0.5332
11684SOL     OW52661   2.624  13.929   3.496 -0.0415  0.2526 -0.5057
11684SOL    HW152662   2.632  13.945   3.402 -1.8244  0.6197 -0.6426
11684SOL    HW252663   2.614  14.017   3.534  1.8760  0.2069  0.2093
11685SOL     OW52664   8.468   6.282   2.730  0.2391 -0.1965  0.2162
11685SOL    HW152665   8.406   6.355   2.733 -0.1193 -0.4437 -0.7913
11685SOL    HW252666   8.541   6.311   2.785 -0.0819  0.7447  0.1754
11686SOL     OW52667   9.337   2.086   6.394 -0.7830 -0.0454  0.6073
11686SOL    HW152668   9.364   1.995   6.409 -1.5435 -0.5106 -0.6697
11686SOL    HW252669   9.341   2.096   6.299 -0.5333  1.3273  0.7500
11687SOL     OW52670  10.956  12.761   2.245  0.6395  0.3700 -0.3858
11687SOL    HW152671  11.005  12.828   2.291  0.1141  0.5437 -0.0643
11687SOL    HW252672  10.968  12.682   2.297 -0.1182  0.6123  0.1732
11688SOL     OW52673   6.510   4.045   2.178  0.1858 -0.4293 -0.1567
11688SOL    HW152674   6.584   4.091   2.218  0.8318 -2.0394  0.6072
11688SOL    HW252675   6.436   4.066   2.235  0.2423  0.4811 -0.4115
11689SOL     OW52676   4.974  11.861   6.847 -0.3321  0.0285 -0.1770
11689SOL    HW152677   5.052  11.907   6.879 -0.0605 -0.3933 -0.2194
11689SOL    HW252678   4.907  11.877   6.913 -0.9765  2.4747 -1.3239
11690SOL     OW52679   6.776  12.330   9.254 -0.0094 -0.1310  0.5626
11690SOL    HW152680   6.803  12.417   9.224  2.5209 -1.0071  0.0527
11690SOL    HW252681   6.690  12.343   9.292 -1.2997  1.9435 -2.6893
11691SOL     OW52682   5.824   6.540  13.606 -0.4311 -0.4224 -0.5409
11691SOL    HW152683   5.890   6.589  13.656 -0.7208  0.7064 -1.2323
11691SOL    HW252684   5.874   6.473  13.560  0.3126  0.5916 -1.2768
11692SOL     OW52685   4.732   9.769   2.158 -0.4398  0.0740 -0.6563
11692SOL    HW152686   4.699   9.780   2.068  1.1446 -0.7110 -1.3781
11692SOL    HW252687   4.817   9.727   2.147 -0.2353 -0.0899  1.2417
11693SOL     OW52688   1.794  12.463  10.289  0.5961 -0.4801 -0.8540
11693SOL    HW152689   1.871  12.417  10.258  1.9029  2.1274 -1.8265
11693SOL    HW252690   1.763  12.511  10.212 -0.2588  0.7560  0.2190
11694SOL     OW52691   8.238  10.374   9.600  0.1072 -0.2458 -0.0736
11694SOL    HW152692   8.235  10.469   9.605  1.5609 -0.1711 -0.2724
11694SOL    HW252693   8.248  10.354   9.507 -0.0322 -0.5930 -0.0187
11695SOL     OW52694  12.522   4.171   5.134 -0.1811  0.1309  0.6617
11695SOL    HW152695  12.506   4.158   5.041  0.4575  2.1079  0.2400
11695SOL    HW252696  12.435   4.180   5.172 -0.4283  2.3864 -0.2771
11696SOL     OW52697   6.688   1.136   7.879  0.5730  0.9564  0.0354
11696SOL    HW152698   6.775   1.168   7.854  0.3969  0.5676 -1.1243
11696SOL    HW252699   6.654   1.205   7.936  1.9460  0.7386  1.1750
11697SOL     OW52700   4.398  12.979   1.153 -0.0513 -0.0761  0.2854
11697SOL    HW152701   4.367  13.070   1.146  1.3755  0.4202  0.0552
11697SOL    HW252702   4.408  12.964   1.246  2.0301  0.8688  0.2683
11698SOL     OW52703  13.209   9.974   4.277 -0.0462  0.4547  0.7906
11698SOL    HW152704  13.147  10.045   4.268  1.4133  1.8161  1.0129
11698SOL    HW252705  13.293  10.010   4.247  0.4465 -1.6812 -0.7319
11699SOL     OW52706   4.755   3.558   8.835  0.0921  0.3382  0.8979
11699SOL    HW152707   4.730   3.512   8.755  0.5568 -1.4520  1.7132
11699SOL    HW252708   4.676   3.605   8.862 -0.1173  0.8345 -0.4923
11700SOL     OW52709   9.556   5.137   7.491  0.5828  0.1615  0.8686
11700SOL    HW152710   9.562   5.164   7.399 -0.1844 -1.8560  0.1710
11700SOL    HW252711   9.498   5.201   7.531 -0.8397 -0.1453 -0.5942
11701SOL     OW52712  11.016   3.828   2.548 -0.1363  0.2385 -0.4484
11701SOL    HW152713  11.053   3.801   2.463 -0.8545  0.1269 -0.7306
11701SOL    HW252714  10.932   3.783   2.553 -0.0372  0.1291  0.3970
11702SOL     OW52715   0.825   2.245  12.313  0.5958 -0.1547 -0.4589
11702SOL    HW152716   0.831   2.150  12.314 -1.4909 -0.3740  1.8920
11702SOL    HW252717   0.877   2.273  12.389  0.7371  0.5260 -0.7957
11703SOL     OW52718   5.521  10.870   8.259  0.5387  0.2131 -0.1213
11703SOL    HW152719   5.490  10.795   8.310  2.1779  0.2927  1.0907
11703SOL    HW252720   5.486  10.946   8.304 -1.3567  0.2142 -1.5136
11704SOL     OW52721   0.896  13.498   7.904 -0.0126  0.1594  0.4424
11704SOL    HW152722   0.913  13.584   7.865 -0.5915  0.4378  0.7846
11704SOL    HW252723   0.804  13.502   7.932  0.1780 -0.2876  1.1708
11705SOL     OW52724   9.798   5.934   7.986 -0.0764 -0.5737 -0.0122
11705SOL    HW152725   9.831   5.858   7.938  0.5678  0.1446 -0.7291
11705SOL    HW252726   9.702   5.925   7.982 -0.0159 -2.0427  1.0649
11706SOL     OW52727   3.649   2.569   4.003  0.3980 -0.0434  0.0536
11706SOL    HW152728   3.670   2.612   3.920  1.4332 -0.2082  0.2149
11706SOL    HW252729   3.596   2.493   3.978  0.0540  0.3389 -0.3890
11707SOL     OW52730   0.036   7.879   3.037  0.2826  0.1807 -0.3468
11707SOL    HW152731   0.042   7.922   3.123  1.3411 -0.3390 -0.1380
11707SOL    HW252732  -0.022   7.805   3.052 -0.9107  1.0580 -0.5129
11708SOL     OW52733   7.240   3.693   4.065 -0.4426  0.4184 -0.3024
11708SOL    HW152734   7.282   3.608   4.061  0.3264  0.7950 -0.4715
11708SOL    HW252735   7.308   3.752   4.099 -1.1238  0.8621  0.3386
11709SOL     OW52736   5.937  13.749   7.681  0.4438  0.0111  0.1558
11709SOL    HW152737   5.869  13.742   7.614  1.1312 -0.6785 -0.4813
11709SOL    HW252738   6.002  13.808   7.643  0.5425  0.1086  0.4728
11710SOL     OW52739   0.021   2.051  11.035  0.5678 -0.7840  0.3517
11710SOL    HW152740   0.001   2.007  11.118 -2.1789  0.0784  0.2156
11710SOL    HW252741   0.036   1.980  10.973 -2.3408 -1.6395  0.4830
11711SOL     OW52742   4.429   7.101   4.038 -0.2261 -0.6955 -0.3822
11711SOL    HW152743   4.507   7.155   4.025 -1.2910  0.8397 -0.6362
11711SOL    HW252744   4.432   7.037   3.967  0.3288 -0.0853 -0.9208
11712SOL     OW52745   7.177   7.044   2.383 -0.0435 -0.9095 -0.2425
11712SOL    HW152746   7.105   7.070   2.441  0.9356 -0.3955  0.7758
11712SOL    HW252747   7.211   7.127   2.350  2.4134 -0.8501  2.1730
11713SOL     OW52748   0.726   7.167   5.909 -0.0285  0.1273  0.2509
11713SOL    HW152749   0.782   7.124   5.845 -0.1588  1.1164 -0.5430
11713SOL    HW252750   0.782   7.177   5.987  0.9488  1.1827 -0.5537
11714SOL     OW52751  12.519   2.075   7.318 -0.6788 -0.3040 -0.1896
11714SOL    HW152752  12.517   2.043   7.408 -1.3623 -0.3007 -0.1949
11714SOL    HW252753  12.551   2.164   7.325 -1.6600  0.0349  0.1694
11715SOL     OW52754   3.877   4.392   7.646 -0.2816 -0.7728  0.4040
11715SOL    HW152755   3.882   4.412   7.740  0.3074  1.9337 -0.1371
11715SOL    HW252756   3.962   4.353   7.626  0.4804  0.7104  0.6039
11716SOL     OW52757   7.145  13.773  12.557  0.2106  0.0895 -0.1887
11716SOL    HW152758   7.066  13.827  12.560 -0.5638 -1.0020 -0.0239
11716SOL    HW252759   7.200  13.808  12.627 -1.8167 -1.5450  2.4484
11717SOL     OW52760   6.963  10.980   1.768 -0.2060 -0.1516 -0.1979
11717SOL    HW152761   6.973  10.968   1.863 -0.3185  0.1973 -0.1371
11717SOL    HW252762   6.906  11.057   1.760 -0.9989 -0.7700 -0.5486
11718SOL     OW52763  13.249   8.544   9.157 -0.6236 -0.4674  0.0024
11718SOL    HW152764  13.219   8.633   9.176 -1.2662 -0.8575  0.8636
11718SOL    HW252765  13.211   8.490   9.226  0.8171 -1.2313  0.2254
11719SOL     OW52766  13.931   5.698   6.904 -0.0432  0.1828 -0.3092
11719SOL    HW152767  13.979   5.623   6.868 -1.2684 -0.3695 -0.8434
11719SOL    HW252768  13.839   5.680   6.884 -0.6248  0.6205  1.7457
11720SOL     OW52769  13.627  10.710  10.945 -0.2148 -0.1831 -0.2164
11720SOL    HW152770  13.683  10.757  11.007 -0.2864 -0.3764 -0.0044
11720SOL    HW252771  13.596  10.778  10.885  0.8842 -0.1898 -0.8336
11721SOL     OW52772   9.862   2.386   3.955  0.0273 -0.3731  0.0038
11721SOL    HW152773   9.940   2.403   3.902 -0.5812 -0.9060 -1.0911
11721SOL    HW252774   9.803   2.338   3.897 -2.1523  2.1569 -0.0155
11722SOL     OW52775   9.722   0.980   4.063 -0.1695  0.6661 -0.2698
11722SOL    HW152776   9.768   0.898   4.075  0.2156  1.1187  1.6533
11722SOL    HW252777   9.652   0.960   4.000 -1.4207 -1.6837  1.6965
11723SOL     OW52778   8.204   4.276   5.576 -0.6597  0.0194 -0.3424
11723SOL    HW152779   8.174   4.216   5.644  1.1236 -1.4964 -0.8237
11723SOL    HW252780   8.127   4.287   5.519 -2.1483  1.2164  1.7352
11724SOL     OW52781   1.914   9.288   4.874 -0.8309  0.5899  0.9279
11724SOL    HW152782   1.984   9.321   4.931 -1.7731  0.6147  2.1194
11724SOL    HW252783   1.935   9.196   4.861 -0.6434  0.5688  1.3769
11725SOL     OW52784   4.759   0.589   2.279  0.1373 -0.1250  0.1846
11725SOL    HW152785   4.688   0.547   2.328  0.9909 -2.8142 -0.6806
11725SOL    HW252786   4.726   0.677   2.261 -2.7172 -1.0264  0.3928
11726SOL     OW52787   0.554  12.867   8.154 -0.0737 -0.5532 -0.1409
11726SOL    HW152788   0.526  12.958   8.154  0.3283 -0.3956  1.8307
11726SOL    HW252789   0.473  12.817   8.148 -0.3141 -0.0841 -0.9595
11727SOL     OW52790   5.327   6.736   0.671 -0.2198  0.2661  0.5688
11727SOL    HW152791   5.283   6.665   0.623  0.5878 -0.1376  0.4057
11727SOL    HW252792   5.306   6.815   0.621 -1.1304  0.1463  0.7505
11728SOL     OW52793  12.726   0.868   4.942  0.3600  0.2850 -0.1409
11728SOL    HW152794  12.742   0.782   4.980  0.1476  0.6132  0.7133
11728SOL    HW252795  12.685   0.919   5.013  0.7760  1.1812 -0.5224
11729SOL     OW52796   0.576   2.214  12.991 -0.0099  0.2406 -0.0206
11729SOL    HW152797   0.656   2.216  12.939 -1.3790 -0.6767 -2.3587
11729SOL    HW252798   0.529   2.294  12.966  0.4405  1.1445  1.8788
11730SOL     OW52799   3.273  12.015   2.591  0.0922  0.3289  0.2390
11730SOL    HW152800   3.347  11.957   2.574 -0.1380 -0.0166  0.4003
11730SOL    HW252801   3.298  12.063   2.671 -0.0610 -0.1392  0.5746
11731SOL     OW52802   4.509   0.029   9.225  0.1321  0.1933  0.1622
11731SOL    HW152803   4.576  -0.023   9.180  0.8838 -0.4031  1.8742
11731SOL    HW252804   4.440  -0.034   9.247 -0.2977  0.5052 -0.2962
11732SOL     OW52805  13.054   6.518   8.416 -0.1707  0.0243  0.0399
11732SOL    HW152806  13.090   6.586   8.474 -1.7012 -0.2164  1.3278
11732SOL    HW252807  12.963   6.544   8.402 -0.5878 -1.3729 -0.0190
11733SOL     OW52808   1.127   1.393   3.912 -0.1876  0.0361  0.0641
11733SOL    HW152809   1.189   1.421   3.979  0.4145  0.3483 -0.6135
11733SOL    HW252810   1.178   1.335   3.855 -0.5535  0.1790 -0.4168
11734SOL     OW52811  10.981  13.314   3.781 -0.1314  0.0175 -0.1520
11734SOL    HW152812  10.941  13.392   3.819  0.1326  0.3692 -0.5876
11734SOL    HW252813  10.929  13.241   3.815 -0.9785  0.4476 -0.4982
11735SOL     OW52814   6.853   0.696  10.172  0.0445  0.4626 -0.2278
11735SOL    HW152815   6.773   0.674  10.220 -0.4581  2.1217 -0.2437
11735SOL    HW252816   6.825   0.761  10.107  1.4890  1.4982  0.1286
11736SOL     OW52817   7.458   4.172   6.518 -0.1531 -0.1302  0.3539
11736SOL    HW152818   7.396   4.143   6.450 -1.3992 -1.9539  2.1482
11736SOL    HW252819   7.514   4.235   6.473 -2.7226  0.9445 -1.6121
11737SOL     OW52820  10.176   4.661  12.961  0.0721 -0.4968  0.2609
11737SOL    HW152821  10.220   4.588  12.918 -1.2318 -0.6689 -0.8405
11737SOL    HW252822  10.099   4.678  12.907 -0.1951  1.0327  1.0670
11738SOL     OW52823   0.145   5.467   7.927  0.3789 -0.2370  0.0381
11738SOL    HW152824   0.074   5.485   7.989  0.4378  0.6282 -0.1398
11738SOL    HW252825   0.206   5.412   7.977  1.0278  1.4230  1.2026
11739SOL     OW52826  13.426   4.493   3.386 -0.4537 -0.0040  0.7406
11739SOL    HW152827  13.508   4.511   3.433 -0.3603 -0.6614  0.8456
11739SOL    HW252828  13.358   4.514   3.450 -0.3973  1.1288  0.4496
11740SOL     OW52829  11.484   7.371  11.905  0.4314  0.6159 -0.2701
11740SOL    HW152830  11.559   7.313  11.916  1.8478  2.6008  1.3484
11740SOL    HW252831  11.453   7.387  11.995  0.5427  2.8267 -0.5648
11741SOL     OW52832   1.858  12.457   9.972  0.1354 -0.6778 -0.0614
11741SOL    HW152833   1.797  12.394   9.933 -0.4104 -1.1267  1.4295
11741SOL    HW252834   1.871  12.524   9.905 -0.9798 -1.2533 -0.8752
11742SOL     OW52835  13.006   1.496  10.014  0.2884  0.0654 -0.1258
11742SOL    HW152836  12.982   1.462   9.927 -1.4648  0.0802  0.3217
11742SOL    HW252837  13.045   1.421  10.059 -0.1677 -0.3615 -0.4260
11743SOL     OW52838   6.655   1.766   9.233  0.0020  0.1009 -0.1248
11743SOL    HW152839   6.584   1.829   9.242  1.0004  1.2283  0.2514
11743SOL    HW252840   6.710   1.780   9.310  0.0990 -1.4592  0.1244
11744SOL     OW52841   4.568   9.502   1.272  0.4575  0.3091  0.3016
11744SOL    HW152842   4.623   9.501   1.194 -2.7201  1.6065 -2.1433
11744SOL    HW252843   4.493   9.446   1.250 -1.4278  2.1268  1.6718
11745SOL     OW52844  11.159  11.860  11.524 -0.4763  0.4919 -0.1648
11745SOL    HW152845  11.197  11.934  11.571 -0.6672  0.8767 -0.6193
11745SOL    HW252846  11.202  11.783  11.562 -0.5257  0.8060  0.5450
11746SOL     OW52847   2.962   0.411   1.595  0.0871 -0.1117 -0.4346
11746SOL    HW152848   2.968   0.412   1.500 -1.1060 -1.1868 -0.5433
11746SOL    HW252849   3.053   0.410   1.625  0.4771  0.4225 -1.5487
11747SOL     OW52850   3.668   6.498   9.872  0.7362 -0.0076 -0.3977
11747SOL    HW152851   3.600   6.450   9.826  2.0916 -0.2889 -2.2594
11747SOL    HW252852   3.622   6.564   9.922 -1.0567 -1.9707  0.6972
11748SOL     OW52853  11.235   2.913   6.813  0.2937  0.1243 -0.2320
11748SOL    HW152854  11.181   2.853   6.762 -0.6219  0.4222  0.3668
11748SOL    HW252855  11.271   2.973   6.749  0.5628 -0.5580 -0.7364
11749SOL     OW52856  10.625  13.612  10.963 -0.0967 -0.6759  0.0927
11749SOL    HW152857  10.663  13.694  10.994 -2.6397  1.3365 -1.6335
11749SOL    HW252858  10.696  13.569  10.916  1.6502 -0.1562  2.0871
11750SOL     OW52859   0.381   3.905  13.664  0.7331  0.3695  0.0339
11750SOL    HW152860   0.312   3.876  13.723  1.5658 -0.9936  0.3654
11750SOL    HW252861   0.428   3.973  13.714  1.0341 -0.3183  0.7014
11751SOL     OW52862   4.144   7.791   8.566  0.4532  0.3814  0.2783
11751SOL    HW152863   4.220   7.734   8.581  1.2429  1.5944  1.0529
11751SOL    HW252864   4.084   7.772   8.639 -0.8170 -1.7923 -1.2199
11752SOL     OW52865   9.873   7.008   3.194 -0.6538  0.0874 -0.4861
11752SOL    HW152866   9.920   7.022   3.112 -0.9115  0.2501 -0.6067
11752SOL    HW252867   9.782   7.030   3.174 -0.3993  2.1365  0.3604
11753SOL     OW52868   4.681   3.853   8.438  0.0593  0.5737  0.2903
11753SOL    HW152869   4.687   3.799   8.359 -1.2413 -0.3451  0.7753
11753SOL    HW252870   4.587   3.864   8.452  0.2900  1.8321  0.9886
11754SOL     OW52871   2.415  11.460   8.054 -0.5612  0.5584  0.3680
11754SOL    HW152872   2.395  11.519   8.127 -1.4127  1.2523 -0.3941
11754SOL    HW252873   2.510  11.455   8.053 -0.5141 -2.1515  3.5883
11755SOL     OW52874  10.911   7.829  11.879 -0.0318 -0.5240  0.0921
11755SOL    HW152875  10.997   7.870  11.865 -0.3974 -0.2469 -1.4442
11755SOL    HW252876  10.929   7.735  11.875  0.2967 -0.4789  0.4152
11756SOL     OW52877   3.036   5.855  13.796  0.2444  0.3329 -0.1616
11756SOL    HW152878   3.028   5.822  13.706 -0.2376  1.0003 -0.3725
11756SOL    HW252879   3.057   5.777  13.848 -1.1192 -0.3661 -0.6106
11757SOL     OW52880   1.879   9.827   5.135 -0.5912  0.8724  0.0103
11757SOL    HW152881   1.966   9.796   5.112 -0.6229  0.9057 -0.1622
11757SOL    HW252882   1.859   9.784   5.218 -1.4165 -1.1328 -1.1591
11758SOL     OW52883   4.636  12.946  10.727  0.5115  0.2796  0.1029
11758SOL    HW152884   4.599  12.889  10.794 -1.1072 -0.0167 -0.9897
11758SOL    HW252885   4.660  12.886  10.656  3.7125  0.3776  0.9508
11759SOL     OW52886   2.645   0.440  11.310 -0.2949  0.1577 -0.7517
11759SOL    HW152887   2.624   0.441  11.216 -0.2377 -2.3355 -0.8562
11759SOL    HW252888   2.571   0.395  11.350  1.2148 -1.8939 -0.1078
11760SOL     OW52889  13.768   3.756   2.453 -0.4369 -0.4827  0.0825
11760SOL    HW152890  13.785   3.767   2.547 -1.4763 -3.0950  0.6618
11760SOL    HW252891  13.854   3.747   2.414  0.1698  2.8279  0.3449
11761SOL     OW52892  11.365   8.873   1.944 -0.3036 -0.5812 -0.1597
11761SOL    HW152893  11.374   8.859   1.850  1.3361 -3.2112  0.2820
11761SOL    HW252894  11.285   8.826   1.967 -1.7434  1.5994 -0.4216
11762SOL     OW52895  10.548   9.849   4.264 -0.1524 -0.4337 -0.4834
11762SOL    HW152896  10.561   9.932   4.218  0.4068  0.0471  0.5007
11762SOL    HW252897  10.501   9.793   4.202  0.9583  0.0384 -1.7836
11763SOL     OW52898   9.183   9.223  13.606  0.1485  0.0766 -0.4672
11763SOL    HW152899   9.233   9.276  13.668 -0.4246  0.3238 -0.2100
11763SOL    HW252900   9.095   9.260  13.608 -0.1363 -0.5774 -0.6521
11764SOL     OW52901  13.353   7.250   5.163 -0.1471 -0.2468  0.1975
11764SOL    HW152902  13.273   7.230   5.211  0.9283 -1.9901  1.4029
11764SOL    HW252903  13.373   7.169   5.114  1.4978 -0.3145  0.9083
11765SOL     OW52904   5.458  12.800  11.950 -0.2632 -0.0093 -0.3167
11765SOL    HW152905   5.478  12.766  12.037 -2.5536 -1.8216 -0.3932
11765SOL    HW252906   5.379  12.852  11.962  0.1297  0.7999 -1.1218
11766SOL     OW52907   9.088   9.340  11.547 -0.1693 -0.1964 -0.0628
11766SOL    HW152908   9.042   9.358  11.466  0.2417  1.0380 -0.0378
11766SOL    HW252909   9.097   9.245  11.549 -1.2632 -0.3324 -0.8489
11767SOL     OW52910   0.569  14.018   2.085  0.2479  0.0719  0.5552
11767SOL    HW152911   0.483  13.976   2.081 -0.5214  1.5837 -3.1072
11767SOL    HW252912   0.554  14.099   2.134 -0.0648 -0.3047  1.0930
11768SOL     OW52913  13.757   6.260   5.900 -0.4727 -1.1629 -0.3953
11768SOL    HW152914  13.682   6.318   5.886  0.0817 -0.4234 -0.3685
11768SOL    HW252915  13.830   6.305   5.858 -0.3741 -2.7117 -1.9776
11769SOL     OW52916   5.254  12.362  11.857 -0.3291 -0.5703  0.4871
11769SOL    HW152917   5.215  12.446  11.832  1.0061 -0.1735 -0.3479
11769SOL    HW252918   5.212  12.340  11.941 -1.1351  0.6242  0.4179
11770SOL     OW52919   6.540  12.112   2.257  0.5812  0.0537 -0.0013
11770SOL    HW152920   6.505  12.024   2.243 -0.8810  0.8294 -1.6230
11770SOL    HW252921   6.630  12.097   2.285 -0.0339 -1.9684  1.1974
11771SOL     OW52922  10.783  10.075   8.136  0.4483 -0.5298 -0.2295
11771SOL    HW152923  10.842  10.106   8.205  1.2686  1.8645 -1.8973
11771SOL    HW252924  10.697  10.076   8.177  0.2402  4.7012 -0.0902
11772SOL     OW52925   3.643   8.953   5.188 -0.2532 -0.2700 -0.3297
11772SOL    HW152926   3.695   9.008   5.246  1.5429  0.0689 -2.1269
11772SOL    HW252927   3.687   8.868   5.188  0.3863  0.0166 -1.8692
11773SOL     OW52928   0.220   3.933  11.510 -0.1841 -0.0570  0.3451
11773SOL    HW152929   0.250   3.993  11.579  0.5068 -1.4840  1.3383
11773SOL    HW252930   0.285   3.944  11.440 -0.5007  0.9027  0.1857
11774SOL     OW52931  13.047   6.968   1.999  0.2102  0.3639 -0.0204
11774SOL    HW152932  13.037   6.924   1.915  0.4432  0.0631  0.1085
11774SOL    HW252933  12.994   7.047   1.991 -0.0371  0.1664 -0.3284
11775SOL     OW52934   5.387  11.111  10.346  0.2362  0.2007  0.0205
11775SOL    HW152935   5.361  11.200  10.322  1.4744  0.9830  1.3393
11775SOL    HW252936   5.306  11.060  10.345 -0.2698  0.9260 -2.3181
11776SOL     OW52937   8.731  12.012  11.463  0.2835  0.3350 -0.3481
11776SOL    HW152938   8.819  12.019  11.499  0.3554  0.7169 -0.5923
11776SOL    HW252939   8.720  11.918  11.444  0.6972  0.3121 -0.4725
11777SOL     OW52940  10.460   6.801  13.621 -0.8325 -0.2164 -0.3223
11777SOL    HW152941  10.369   6.776  13.633 -0.6872 -0.9316 -0.6670
11777SOL    HW252942  10.501   6.783  13.706 -1.0318  0.2351 -0.1249
11778SOL     OW52943   9.599  11.910   1.687 -0.6233  0.0435  0.1818
11778SOL    HW152944   9.612  11.823   1.724 -0.9740 -0.6876 -1.3496
11778SOL    HW252945   9.584  11.895   1.594 -3.7261  1.4498  0.3195
11779SOL     OW52946   4.415  10.857   7.318  0.5415  0.4453  0.1770
11779SOL    HW152947   4.351  10.786   7.331 -0.4712  1.1381 -0.7658
11779SOL    HW252948   4.500  10.817   7.336 -0.1437 -0.5489  1.3250
11780SOL     OW52949  13.356   2.988   7.813  0.3046 -0.3815  0.2594
11780SOL    HW152950  13.350   2.892   7.815  0.4279 -0.3772  2.0151
11780SOL    HW252951  13.292   3.017   7.877 -1.1052  0.8375 -1.5786
11781SOL     OW52952  10.541   3.317  11.011  0.0716 -0.6896 -0.1737
11781SOL    HW152953  10.455   3.281  11.033  0.1013 -0.0568  1.1151
11781SOL    HW252954  10.603   3.258  11.055  0.2693 -0.8360 -0.6488
11782SOL     OW52955   1.934   1.006   4.920 -0.1679 -0.5078  0.5203
11782SOL    HW152956   1.954   0.940   4.985  0.5600 -0.0289  0.7961
11782SOL    HW252957   1.992   1.079   4.941  0.1742 -0.3910 -0.7363
11783SOL     OW52958   1.883   3.538   4.335  0.5848 -0.3500  0.7102
11783SOL    HW152959   1.952   3.527   4.270 -0.1086 -2.2767  0.2429
11783SOL    HW252960   1.891   3.461   4.392 -0.0329  0.3319  1.7553
11784SOL     OW52961  12.134   2.868   8.311 -0.3644  0.3201 -0.2299
11784SOL    HW152962  12.118   2.959   8.336 -3.2643  0.0725 -0.9170
11784SOL    HW252963  12.119   2.818   8.391  1.7700  0.4170  0.2900
11785SOL     OW52964   2.459   7.234   0.409 -0.0956 -0.4525  0.1317
11785SOL    HW152965   2.507   7.291   0.349 -0.9062 -1.0535 -1.1108
11785SOL    HW252966   2.407   7.177   0.353 -0.8021 -1.1104  1.4020
11786SOL     OW52967   6.909  13.375   9.978  0.3838  0.6445  0.2013
11786SOL    HW152968   6.861  13.296   9.954  1.1821  0.2882 -0.2783
11786SOL    HW252969   6.932  13.416   9.895  1.6264  0.3504  0.3681
11787SOL     OW52970   5.251  10.192   1.554 -0.5189  0.4799 -0.0693
11787SOL    HW152971   5.170  10.158   1.591 -0.1746 -0.5994 -0.2888
11787SOL    HW252972   5.313  10.194   1.628 -0.3218 -0.0889 -0.2150
11788SOL     OW52973  12.345  13.095  13.260  0.2532  0.5568 -0.0092
11788SOL    HW152974  12.327  13.044  13.181  1.2366  2.4546 -1.5623
11788SOL    HW252975  12.431  13.135  13.244  0.2070  1.4652  1.7683
11789SOL     OW52976  11.839   0.419  12.243 -0.3411 -0.3163 -0.1981
11789SOL    HW152977  11.888   0.432  12.324  0.4849 -0.7386 -0.6211
11789SOL    HW252978  11.824   0.507  12.209  1.1244 -0.2222 -0.6464
11790SOL     OW52979   5.468   4.028  10.672  0.0254 -0.0033 -0.3698
11790SOL    HW152980   5.441   3.993  10.588 -0.3214 -1.4779  0.3338
11790SOL    HW252981   5.389   4.024  10.726  1.0048 -2.2356  1.0216
11791SOL     OW52982   2.607  13.738  10.443 -0.4495 -0.3822 -0.2380
11791SOL    HW152983   2.625  13.806  10.377  0.6201 -0.6844 -0.2707
11791SOL    HW252984   2.568  13.786  10.516 -3.5348 -0.2963 -1.7887
11792SOL     OW52985   5.525   2.523  12.633  0.4211  0.2048 -0.1334
11792SOL    HW152986   5.573   2.441  12.648 -1.3878 -0.7509  0.7584
11792SOL    HW252987   5.526   2.568  12.718 -1.7433 -0.7060  0.4394
11793SOL     OW52988   7.442   7.247   0.372 -0.1173  0.0373 -0.5236
11793SOL    HW152989   7.472   7.200   0.450 -2.0665 -0.0947  0.1813
11793SOL    HW252990   7.347   7.242   0.375 -0.3307  2.2045 -1.5778
11794SOL     OW52991   5.696  12.362   3.854  0.4462 -0.0174 -0.9830
11794SOL    HW152992   5.628  12.305   3.888  0.0750  0.6979 -0.4920
11794SOL    HW252993   5.649  12.431   3.807  0.8447  0.2402 -1.0112
11795SOL     OW52994   3.007   1.675   1.899 -0.8755  0.1885  0.3960
11795SOL    HW152995   2.956   1.606   1.941 -1.4157  0.8800  0.8952
11795SOL    HW252996   3.074   1.697   1.964  1.4208 -2.1017 -0.9970
11796SOL     OW52997   2.830  12.038   2.834 -0.4926 -0.0636 -0.3936
11796SOL    HW152998   2.747  12.013   2.874 -1.3921  1.4373 -1.2356
11796SOL    HW252999   2.817  12.028   2.740  0.4834 -0.3809 -0.5088
11797SOL     OW53000   7.850   2.143   8.369 -0.5530  0.7408 -0.9015
11797SOL    HW153001   7.809   2.189   8.442  0.2977  0.7871 -0.4360
11797SOL    HW253002   7.933   2.189   8.355  0.6117 -0.9455 -0.0300
11798SOL     OW53003  11.066   4.285   0.683 -0.2429  0.2385 -0.2968
11798SOL    HW153004  10.979   4.247   0.698 -0.8816  1.7337 -0.0754
11798SOL    HW253005  11.056   4.378   0.706  1.6090  0.2938  0.4691
11799SOL     OW53006   5.799   5.103   7.066  0.1595 -0.1367  0.2951
11799SOL    HW153007   5.778   5.150   6.985 -0.4229 -2.8030 -1.2253
11799SOL    HW253008   5.846   5.024   7.037 -1.9609 -2.3096  2.2663
11800SOL     OW53009   5.380   4.528  10.539 -0.1941 -0.4513  0.0806
11800SOL    HW153010   5.308   4.590  10.529 -0.4329 -0.7767 -0.2467
11800SOL    HW253011   5.435   4.542  10.463 -0.3547 -0.7758 -0.0971
11801SOL     OW53012  12.196   7.553   4.564 -0.0650  0.5491  0.2844
11801SOL    HW153013  12.180   7.461   4.547  2.7508  0.3315 -1.7064
11801SOL    HW253014  12.275   7.555   4.618 -0.4436  1.8086  0.8532
11802SOL     OW53015  11.022   9.072   8.589  0.3953  0.5272 -0.4650
11802SOL    HW153016  11.022   9.061   8.684 -3.8592  0.0117 -0.2898
11802SOL    HW253017  11.047   9.163   8.574  2.0959  0.3475  0.9997
11803SOL     OW53018   4.552   7.873   7.323  0.0570 -0.2924  0.0007
11803SOL    HW153019   4.633   7.828   7.296 -0.3841 -0.6243 -0.8156
11803SOL    HW253020   4.494   7.803   7.353  0.3541  0.0258  1.3941
11804SOL     OW53021   2.528   2.170   8.395  0.0297 -0.5374 -0.1521
11804SOL    HW153022   2.557   2.200   8.481  0.2096  0.2215 -0.4643
11804SOL    HW253023   2.564   2.082   8.386  0.1569 -0.5514  0.4740
11805SOL     OW53024   3.996   7.960   1.325 -0.3339  0.2327  0.7666
11805SOL    HW153025   3.935   8.023   1.289  1.1918  0.2436 -2.0924
11805SOL    HW253026   3.953   7.875   1.314 -1.9607  0.5304  3.7109
11806SOL     OW53027   4.648   3.752   0.320 -0.3287  0.2193 -1.3871
11806SOL    HW153028   4.707   3.716   0.386 -1.3858  0.1699 -0.4428
11806SOL    HW253029   4.646   3.686   0.251 -1.9210 -1.4352  0.1313
11807SOL     OW53030   4.576  13.069   5.328  0.3016  0.2535  0.0130
11807SOL    HW153031   4.658  13.115   5.310  0.5947  0.1792  1.0831
11807SOL    HW253032   4.508  13.131   5.303  0.6697  0.2336 -1.1013
11808SOL     OW53033   9.818   1.902   2.906 -0.0339  0.1255 -0.4010
11808SOL    HW153034   9.849   1.889   2.816 -2.3005  1.5623 -1.4634
11808SOL    HW253035   9.889   1.951   2.948  0.9822 -0.3974 -1.4391
11809SOL     OW53036   8.545   7.723   1.977  0.1160 -0.4820 -0.1081
11809SOL    HW153037   8.450   7.720   1.963  0.0373 -0.7961  0.4965
11809SOL    HW253038   8.581   7.719   1.888 -0.4576  1.0218 -0.4426
11810SOL     OW53039   2.997   9.183   1.673 -0.1057 -0.6339 -0.0412
11810SOL    HW153040   2.914   9.193   1.720 -0.1792 -2.2446  0.2337
11810SOL    HW253041   3.053   9.252   1.708 -1.7172  1.3393 -1.1926
11811SOL     OW53042   7.719  12.350  13.841 -0.4401 -0.1142  0.7516
11811SOL    HW153043   7.650  12.411  13.815  1.3225  1.2844 -0.9215
11811SOL    HW253044   7.788  12.362  13.776  2.2129 -0.0517  3.3668
11812SOL     OW53045   9.438   8.019   8.778  0.7759  0.4891  0.2466
11812SOL    HW153046   9.345   8.015   8.754  1.2127 -1.1792 -1.4330
11812SOL    HW253047   9.449   7.948   8.841  1.0643  0.1217 -0.2113
11813SOL     OW53048  11.026  14.090   3.877 -0.2618 -0.2455  0.2582
11813SOL    HW153049  11.037  14.053   3.789 -0.7898  2.5475 -1.0657
11813SOL    HW253050  10.995  14.179   3.863 -0.2560  0.3594  3.3102
11814SOL     OW53051   8.454   1.633  11.089  0.1252  0.1049  0.0796
11814SOL    HW153052   8.398   1.643  11.012 -0.4003 -0.1671  0.4175
11814SOL    HW253053   8.517   1.704  11.083 -0.5152  0.6645 -0.0983
11815SOL     OW53054  12.359  11.748  11.970 -0.4326  0.8293 -0.2825
11815SOL    HW153055  12.425  11.808  11.935 -0.1085  1.0063  0.6248
11815SOL    HW253056  12.308  11.801  12.031 -0.4562  0.3011  0.1615
11816SOL     OW53057   2.792   9.205   7.807 -0.1362  0.1893  0.0872
11816SOL    HW153058   2.843   9.281   7.779 -0.1298  0.5524  1.0424
11816SOL    HW253059   2.812   9.137   7.743  1.7945  0.2250  0.6090
11817SOL     OW53060  14.059   2.991  10.450  0.6562  0.5725 -0.4741
11817SOL    HW153061  13.964   2.996  10.436  0.8017  1.4337 -1.2888
11817SOL    HW253062  14.070   2.993  10.545 -0.3352 -4.1052 -0.0050
11818SOL     OW53063   6.375   4.836   4.218  0.5280 -0.0974 -0.4402
11818SOL    HW153064   6.348   4.839   4.309  1.1005 -0.9822 -0.2264
11818SOL    HW253065   6.351   4.922   4.182  0.8485  0.4754  0.6886
11819SOL     OW53066  10.319   2.390   2.165  0.3851  0.0778 -0.1733
11819SOL    HW153067  10.303   2.296   2.169 -0.1241  0.0541 -1.9207
11819SOL    HW253068  10.249   2.424   2.109  0.8203  1.4383  0.0695
11820SOL     OW53069  13.500  12.277   7.784 -0.3495  0.0102 -0.1228
11820SOL    HW153070  13.414  12.278   7.825 -0.2102  2.2658  0.2563
11820SOL    HW253071  13.484  12.301   7.693 -0.1699 -0.1445 -0.1966
11821SOL     OW53072   9.958  12.776   9.860 -0.0443 -0.5046  0.0805
11821SOL    HW153073   9.889  12.840   9.877  0.2458 -0.1515 -0.0573
11821SOL    HW253074  10.038  12.828   9.857  0.7278 -1.2263  3.5167
11822SOL     OW53075  13.352   9.571  12.159  0.3220  0.7961  0.0023
11822SOL    HW153076  13.284   9.602  12.220 -1.5750 -1.4148 -0.8359
11822SOL    HW253077  13.401   9.506  12.209 -1.2922 -1.0851 -0.7116
11823SOL     OW53078   8.088   2.766  11.789  0.0771  0.1726 -0.1544
11823SOL    HW153079   8.121   2.760  11.700  0.9970  0.0320  0.1774
11823SOL    HW253080   8.005   2.720  11.788 -0.4876  1.1719 -1.1935
11824SOL     OW53081  11.935  10.428  14.083  0.2520 -0.1982  0.7543
11824SOL    HW153082  11.918  10.494  14.151 -0.1173  1.7738 -1.1257
11824SOL    HW253083  11.850  10.388  14.067 -0.0304  0.5803  0.2591
11825SOL     OW53084   0.701  13.567   1.484 -0.2294 -0.0747 -0.6337
11825SOL    HW153085   0.608  13.549   1.470 -0.2639 -1.1961  0.7357
11825SOL    HW253086   0.730  13.610   1.404 -1.4979 -1.4100 -1.8715
11826SOL     OW53087   3.715   6.778   5.120 -0.1655  0.4185 -0.1020
11826SOL    HW153088   3.748   6.777   5.210  2.0564 -0.5212 -0.8548
11826SOL    HW253089   3.656   6.704   5.115 -0.3687  0.5302  0.6127
11827SOL     OW53090  12.739   5.472  11.877 -0.2785  0.0188 -0.2002
11827SOL    HW153091  12.660   5.420  11.889 -0.5345  0.2709 -0.7449
11827SOL    HW253092  12.792   5.422  11.815  0.6696 -0.8760  1.2674
11828SOL     OW53093  14.072  12.201   5.785  0.1900 -0.7318 -0.1850
11828SOL    HW153094  14.043  12.110   5.773 -1.0866 -0.5098  0.9173
11828SOL    HW253095  14.160  12.193   5.820 -0.4382 -1.6304  1.3081
11829SOL     OW53096   9.966  11.001   9.399  0.2887 -0.3693  1.1060
11829SOL    HW153097   9.903  11.058   9.443 -0.4902 -0.3609  0.0072
11829SOL    HW253098   9.994  11.051   9.323 -0.8061 -1.6324 -0.1778
11830SOL     OW53099   7.340   4.525   3.612  0.4568  0.3618  0.2425
11830SOL    HW153100   7.281   4.485   3.549 -1.1679  1.4573  0.9976
11830SOL    HW253101   7.384   4.451   3.655  0.0755 -0.4490 -0.7384
11831SOL     OW53102   3.895   8.786  10.338 -0.7233  0.0949  0.2654
11831SOL    HW153103   3.864   8.855  10.279 -1.2952  0.1612  0.6353
11831SOL    HW253104   3.879   8.821  10.426  0.1528  0.0085  0.4714
11832SOL     OW53105   0.458   4.358   7.205  0.0118 -0.3690  1.0280
11832SOL    HW153106   0.404   4.291   7.247  0.6918 -0.9096  1.0613
11832SOL    HW253107   0.499   4.406   7.277 -0.4072  0.0381  1.0027
11833SOL     OW53108   8.511  11.006   3.422 -0.5794  0.0105 -0.1579
11833SOL    HW153109   8.511  11.094   3.384 -0.6423  0.1042  0.0551
11833SOL    HW253110   8.421  10.993   3.452 -0.1621  0.6196  1.4895
11834SOL     OW53111   9.806  12.633  10.026  0.2174  0.3861 -0.2631
11834SOL    HW153112   9.838  12.660  10.112  0.0950  2.9501 -0.9318
11834SOL    HW253113   9.865  12.677   9.964 -0.4522 -0.4013 -1.5053
11835SOL     OW53114  13.226  13.957   5.160  0.3260 -0.0547 -0.1453
11835SOL    HW153115  13.139  13.946   5.119  0.2949  1.5969 -0.5873
11835SOL    HW253116  13.270  14.021   5.105  1.3527  0.1041  0.8328
11836SOL     OW53117   9.436   1.692   7.935  0.1827 -0.0283 -0.0030
11836SOL    HW153118   9.424   1.613   7.883 -1.9627  1.3107 -1.7496
11836SOL    HW253119   9.465   1.758   7.872  0.9386  0.8525  1.2121
11837SOL     OW53120   9.787   6.505  12.757 -0.4804  0.1123  0.0627
11837SOL    HW153121   9.810   6.573  12.820  0.5217 -0.6870  0.5854
11837SOL    HW253122   9.708   6.465  12.793 -0.5554  0.3984  0.2184
11838SOL     OW53123   7.416   5.161   4.290 -0.0197  0.2854 -0.1332
11838SOL    HW153124   7.377   5.077   4.266 -0.3918  0.4020  0.0567
11838SOL    HW253125   7.380   5.224   4.228  0.4380  0.2702 -0.4232
11839SOL     OW53126  12.374   4.796  13.864  0.6940  0.1935 -0.1243
11839SOL    HW153127  12.322   4.732  13.816 -1.2933  1.1913  0.5490
11839SOL    HW253128  12.389   4.867  13.801 -1.0386  1.0434  0.3394
11840SOL     OW53129   0.375   0.048   6.088  0.4223 -0.1214  0.7692
11840SOL    HW153130   0.447   0.029   6.028  0.1804 -0.1067  0.4767
11840SOL    HW253131   0.308  -0.017   6.068  0.1907  0.1161  0.7689
11841SOL     OW53132   8.479  12.305  10.578  0.1033 -0.5017  0.2263
11841SOL    HW153133   8.489  12.352  10.495  0.1740 -0.1449  0.4314
11841SOL    HW253134   8.569  12.286  10.606  0.1427  0.5028  0.8426
11842SOL     OW53135   3.413   6.532  12.487  0.5820  0.1922  0.0317
11842SOL    HW153136   3.360   6.513  12.565  0.4505  0.5524  0.0341
11842SOL    HW253137   3.364   6.494  12.414  0.9134 -0.5141  0.1695
11843SOL     OW53138   4.923   1.613   9.430  0.1823 -0.1114 -0.5117
11843SOL    HW153139   4.936   1.526   9.393 -0.1171 -0.2386 -0.3248
11843SOL    HW253140   4.834   1.612   9.464 -0.1450  0.5630 -1.2936
11844SOL     OW53141   0.822  13.898   2.071  0.2254  0.0341  0.3622
11844SOL    HW153142   0.839  13.922   1.980  2.3162 -1.6371  0.2446
11844SOL    HW253143   0.736  13.936   2.090  0.4069  1.7437 -1.7985
11845SOL     OW53144   7.857  13.669   3.074  0.2245 -0.2640 -0.4268
11845SOL    HW153145   7.814  13.600   3.024  0.3323 -0.0677 -0.7951
11845SOL    HW253146   7.851  13.640   3.165  0.2719 -0.7572 -0.5792
11846SOL     OW53147   6.725  11.293   3.524 -0.7812 -1.0222  0.2430
11846SOL    HW153148   6.676  11.278   3.443  1.4005 -1.4993 -1.0817
11846SOL    HW253149   6.689  11.230   3.586  0.0784 -3.4961 -1.5788
11847SOL     OW53150  10.779   5.731   6.084 -0.3844  0.0940  0.3457
11847SOL    HW153151  10.761   5.747   6.176 -0.0234 -0.9243  0.5979
11847SOL    HW253152  10.869   5.762   6.071 -0.9516  1.6816 -0.0459
11848SOL     OW53153   0.647   2.170   4.593 -0.3938  0.5425  0.0205
11848SOL    HW153154   0.702   2.217   4.655 -1.1174  1.0934  0.2640
11848SOL    HW253155   0.576   2.133   4.647  0.6343 -1.6476 -0.0070
11849SOL     OW53156   9.993   5.844   4.001  0.0493 -0.3489  0.5699
11849SOL    HW153157   9.990   5.748   3.999  1.1899 -0.4570  2.0705
11849SOL    HW253158  10.078   5.865   3.962  0.1751 -0.0049  1.0236
11850SOL     OW53159   9.598   2.832   3.662  0.8613  0.0363 -0.0436
11850SOL    HW153160   9.683   2.852   3.702  0.6880  1.7133 -0.4244
11850SOL    HW253161   9.568   2.916   3.628 -0.4391 -0.7532 -0.9239
11851SOL     OW53162  11.955   4.988  10.780 -0.2118  0.1055 -0.3041
11851SOL    HW153163  11.987   5.024  10.863  0.7736 -3.1455  0.8955
11851SOL    HW253164  12.021   5.014  10.715 -0.4071  1.7510  0.1293
11852SOL     OW53165   6.066   5.196   3.967  0.3909 -0.2390 -0.0313
11852SOL    HW153166   6.066   5.262   3.898 -0.3196 -0.2944 -0.0905
11852SOL    HW253167   6.065   5.112   3.921  3.2184 -0.3888 -0.0013
11853SOL     OW53168   8.053   1.680  13.914 -0.3068 -0.0536  0.4251
11853SOL    HW153169   7.994   1.614  13.878 -1.9444  0.0954  2.6664
11853SOL    HW253170   8.001   1.761  13.914  0.8167  0.6911  0.0499
11854SOL     OW53171   8.138  13.212  13.713  0.2655 -0.1229 -0.5286
11854SOL    HW153172   8.115  13.285  13.771  0.5657 -1.0602  0.8297
11854SOL    HW253173   8.232  13.198  13.728  0.1524 -0.9635 -0.5493
11855SOL     OW53174   1.724   8.789  11.064  0.0599 -0.2694 -0.6942
11855SOL    HW153175   1.629   8.779  11.054  0.1477 -2.2062 -0.0818
11855SOL    HW253176   1.740   8.773  11.157  1.0851 -1.2441 -1.0164
11856SOL     OW53177   9.415  12.265   9.894 -0.6237  0.1171 -0.2673
11856SOL    HW153178   9.490  12.305   9.938 -0.4275 -1.5216  1.0217
11856SOL    HW253179   9.429  12.281   9.801  0.7122  0.8467  0.0454
11857SOL     OW53180  10.287   2.201   9.862  0.2969  0.2464 -0.0260
11857SOL    HW153181  10.193   2.185   9.863 -0.1396  2.4246 -0.5150
11857SOL    HW253182  10.326   2.122   9.899 -1.6691 -0.9812 -0.4675
11858SOL     OW53183   1.443   1.704   7.588  0.9732 -0.2043 -0.0235
11858SOL    HW153184   1.477   1.739   7.670 -0.6287 -1.2976  1.1531
11858SOL    HW253185   1.500   1.743   7.521  4.1290 -1.4077  1.7108
11859SOL     OW53186   5.922   3.203   8.964  0.6315 -0.8102  0.2848
11859SOL    HW153187   5.925   3.298   8.970 -1.6023 -0.7292  1.1055
11859SOL    HW253188   5.929   3.172   9.054  0.2915 -1.3446  0.1397
11860SOL     OW53189   5.686   1.537   7.505 -0.4454  0.2603 -0.0498
11860SOL    HW153190   5.781   1.547   7.501 -0.5122  1.1430  0.3817
11860SOL    HW253191   5.661   1.515   7.415  0.1842 -0.1699 -0.1252
11861SOL     OW53192  10.999  13.553  11.483  0.2596 -0.2556  0.4253
11861SOL    HW153193  11.071  13.498  11.451  0.1477  0.6528 -1.5796
11861SOL    HW253194  10.920  13.510  11.451  0.0351 -0.1352  0.8118
11862SOL     OW53195   1.464   3.944  10.826 -0.8172 -0.0095 -0.3330
11862SOL    HW153196   1.402   3.879  10.792 -1.6110 -0.0982  1.1792
11862SOL    HW253197   1.550   3.911  10.803 -1.2953 -0.1743 -1.9962
11863SOL     OW53198   4.979   7.616  13.100  0.7032 -0.4322  0.0842
11863SOL    HW153199   4.920   7.612  13.175 -0.2183 -0.5256 -0.6201
11863SOL    HW253200   4.992   7.525  13.075 -1.5680 -0.3717 -1.7640
11864SOL     OW53201   4.596   8.666   0.292 -0.5486 -0.2688  0.7058
11864SOL    HW153202   4.688   8.648   0.312 -0.5744 -0.2241  0.8588
11864SOL    HW253203   4.587   8.643   0.199 -0.5172 -0.8054  0.8316
11865SOL     OW53204   4.489  11.509   9.321  0.6238 -0.0174  0.2398
11865SOL    HW153205   4.529  11.522   9.407  0.5760  0.5745  0.1737
11865SOL    HW253206   4.527  11.577   9.266  1.2171 -0.8477 -0.4070
11866SOL     OW53207   1.831   9.081  11.203  0.0255 -0.0475 -0.6374
11866SOL    HW153208   1.883   9.021  11.150 -0.3718 -1.0284  0.0600
11866SOL    HW253209   1.781   9.024  11.261 -2.6656  0.7800 -1.9940
11867SOL     OW53210   4.690   8.355   3.239  0.5647  0.2402  0.3852
11867SOL    HW153211   4.685   8.404   3.158 -0.7895  0.1794  0.4149
11867SOL    HW253212   4.619   8.390   3.293 -0.5786 -1.8415  0.3285
11868SOL     OW53213   3.878   5.270   0.061 -0.0828  0.4077 -0.1063
11868SOL    HW153214   3.916   5.357   0.056 -0.3959  0.5706  0.3104
11868SOL    HW253215   3.954   5.211   0.065  0.1371  0.7469  1.0461
11869SOL     OW53216   7.155   1.321   8.054 -0.6058 -0.1906 -0.3810
11869SOL    HW153217   7.242   1.280   8.049 -0.2535  0.5807 -0.7800
11869SOL    HW253218   7.124   1.323   7.964 -0.9758 -0.3278 -0.2576
11870SOL     OW53219   2.694   4.882   3.050  0.2527  0.0675  0.1127
11870SOL    HW153220   2.661   4.813   3.107  0.0702 -0.0015 -0.0796
11870SOL    HW253221   2.721   4.951   3.111  2.7117 -1.1088  0.4865
11871SOL     OW53222  12.736  12.010  12.650 -0.0523 -0.0394 -0.4396
11871SOL    HW153223  12.730  11.924  12.693 -1.6858  0.8269  1.2097
11871SOL    HW253224  12.819  12.046  12.680 -0.7202  0.1416  1.2684
11872SOL     OW53225   3.378   1.057   3.557  0.0804  0.7422  0.2001
11872SOL    HW153226   3.441   1.066   3.485 -0.5557 -0.9827 -0.6369
11872SOL    HW253227   3.348   1.146   3.574  1.1968  1.3398 -0.7956
11873SOL     OW53228  10.263   2.469  12.338  0.1194  0.2690 -0.1406
11873SOL    HW153229  10.272   2.423  12.255 -0.3276 -1.1193  0.5552
11873SOL    HW253230  10.290   2.559  12.318 -2.0256  0.5418 -2.3107
11874SOL     OW53231  11.681   7.713  13.531  0.4064  0.1744 -0.4125
11874SOL    HW153232  11.749   7.659  13.572  0.0774 -2.5534 -3.0600
11874SOL    HW253233  11.730   7.781  13.484  1.1735 -0.3784 -0.4428
11875SOL     OW53234   1.221   5.766  12.886 -0.0560 -0.0675  0.1361
11875SOL    HW153235   1.179   5.850  12.866  0.6696  0.4808  0.8558
11875SOL    HW253236   1.274   5.783  12.964  1.2780 -0.8135 -0.5690
11876SOL     OW53237   4.316  11.994   8.690  0.2247  0.3788  0.3086
11876SOL    HW153238   4.344  12.040   8.769 -1.4607  1.1183  0.5066
11876SOL    HW253239   4.301  11.904   8.720 -0.5357  0.6834  0.8771
11877SOL     OW53240   5.916  12.203   9.413  0.3238 -0.2731 -0.0580
11877SOL    HW153241   5.986  12.185   9.475  0.1692  0.0033  0.1972
11877SOL    HW253242   5.946  12.281   9.366 -0.1771  0.3307  0.6087
11878SOL     OW53243  12.921  11.694   4.194  0.3303  0.1812  0.0829
11878SOL    HW153244  12.974  11.748   4.253  2.3866 -1.4212 -0.1655
11878SOL    HW253245  12.953  11.605   4.208 -1.1008 -0.6284 -1.4281
11879SOL     OW53246   8.829   3.801   6.707 -0.4136  0.0968 -0.0842
11879SOL    HW153247   8.801   3.848   6.786 -1.2608 -0.9958  0.2827
11879SOL    HW253248   8.773   3.724   6.703 -0.8674  0.4706 -2.1484
11880SOL     OW53249   9.638  12.551   6.456 -0.0077 -0.6164  0.0037
11880SOL    HW153250   9.603  12.577   6.371 -1.2289 -0.6052  0.4804
11880SOL    HW253251   9.567  12.570   6.517  0.4618 -1.5965  0.8823
11881SOL     OW53252   2.627   8.821   3.728  0.0463  0.4633  0.2234
11881SOL    HW153253   2.578   8.776   3.659  0.5119 -1.1631  0.8960
11881SOL    HW253254   2.719   8.799   3.709  0.3733  1.8422  0.1068
11882SOL     OW53255   2.630   3.335  12.816  0.0130  0.8908  0.3896
11882SOL    HW153256   2.561   3.385  12.859 -1.6168 -0.7271 -0.2200
11882SOL    HW253257   2.584   3.280  12.753  1.9735  0.4701 -0.7560
11883SOL     OW53258   1.445  10.690   5.615 -0.7570  0.3811  0.1980
11883SOL    HW153259   1.444  10.783   5.637 -0.4396  0.7117 -1.1304
11883SOL    HW253260   1.360  10.673   5.577 -0.6383  0.2437 -0.0068
11884SOL     OW53261   9.690   3.625   7.930 -0.0880 -0.0485 -0.3811
11884SOL    HW153262   9.780   3.655   7.948 -0.2920  0.5740 -0.4076
11884SOL    HW253263   9.698   3.529   7.928  0.5794 -0.0007 -0.3973
11885SOL     OW53264   8.819   1.233  11.425 -0.0729 -0.0791  0.0660
11885SOL    HW153265   8.777   1.189  11.499  0.2504  2.1774  1.6988
11885SOL    HW253266   8.911   1.241  11.451  0.1438  0.3945 -0.7955
11886SOL     OW53267   5.759   3.757   9.617 -0.1049 -0.6558  0.4084
11886SOL    HW153268   5.735   3.792   9.532 -0.7100  0.2948  0.9545
11886SOL    HW253269   5.832   3.697   9.599 -0.6818 -1.0045 -0.8519
11887SOL     OW53270   0.306   1.416  11.069 -0.0710  0.0893 -0.5634
11887SOL    HW153271   0.265   1.393  11.153 -1.2320  1.0101 -0.8455
11887SOL    HW253272   0.234   1.415  11.006  0.7804 -0.5494 -1.5631
11888SOL     OW53273   7.257   1.720   3.532  0.1022  0.1149  0.0933
11888SOL    HW153274   7.246   1.788   3.599  1.6479  0.5799 -0.0843
11888SOL    HW253275   7.270   1.769   3.451  0.4452 -0.4097 -0.1729
11889SOL     OW53276   6.313   1.207   3.778 -0.2875 -0.0333 -0.1074
11889SOL    HW153277   6.248   1.185   3.844  0.3848  0.3531  0.7000
11889SOL    HW253278   6.379   1.138   3.784 -0.5784 -0.3920 -0.8827
11890SOL     OW53279   6.958   7.277   0.579  0.1589  0.2407 -0.0403
11890SOL    HW153280   6.985   7.236   0.662  0.5256  0.0504 -0.2510
11890SOL    HW253281   6.908   7.354   0.606 -1.1189 -0.6915  0.3635
11891SOL     OW53282  13.413  10.108   7.467  0.4663 -0.1008  0.3483
11891SOL    HW153283  13.372  10.022   7.462  0.1708  0.0836 -0.6953
11891SOL    HW253284  13.507  10.091   7.454  0.3883 -0.2574 -0.0327
11892SOL     OW53285   5.372   1.104  12.289 -0.0562 -0.4714  0.0269
11892SOL    HW153286   5.435   1.066  12.350  0.3729  0.3992  0.1399
11892SOL    HW253287   5.297   1.045  12.293  1.0379 -1.9938 -0.7239
11893SOL     OW53288  12.676   6.853   9.027  1.2078  0.0364 -0.4986
11893SOL    HW153289  12.611   6.873   9.095  3.1031 -1.8143  2.0617
11893SOL    HW253290  12.702   6.939   8.994  0.1891  1.0392  1.1299
11894SOL     OW53291   7.611   5.089  12.053  0.4420 -0.5591  0.5584
11894SOL    HW153292   7.585   5.066  11.964  0.7084 -2.2385  0.8820
11894SOL    HW253293   7.596   5.183  12.059 -0.5103 -0.5858 -0.9464
11895SOL     OW53294   8.934   5.085   5.031 -0.4157 -0.4140 -0.1781
11895SOL    HW153295   8.894   5.162   5.071  0.7919 -0.5973  1.4782
11895SOL    HW253296   8.862   5.040   4.987 -2.0430 -0.5779  2.4332
11896SOL     OW53297   5.242   5.146   5.093 -0.3578  0.4778 -0.0832
11896SOL    HW153298   5.293   5.158   5.173 -0.7344 -1.1061  0.4167
11896SOL    HW253299   5.189   5.069   5.109 -0.8982  0.4873 -1.6437
11897SOL     OW53300   8.836   7.465  14.070 -0.7968  0.1589  0.5404
11897SOL    HW153301   8.813   7.438  14.159  2.4888 -1.4931  1.0386
11897SOL    HW253302   8.833   7.560  14.073 -2.7157  0.1375  1.7600
11898SOL     OW53303   3.197   8.647   5.773 -0.1675  0.1711  0.2407
11898SOL    HW153304   3.276   8.599   5.745  0.1411  0.9443 -0.2414
11898SOL    HW253305   3.218   8.677   5.861 -0.1861 -0.1957  0.3719
11899SOL     OW53306   2.730   6.069   3.960 -0.3225 -0.3021  0.6212
11899SOL    HW153307   2.756   5.986   4.000  1.6805 -0.3404 -0.5856
11899SOL    HW253308   2.636   6.061   3.947  0.1725 -4.1500 -3.0401
11900SOL     OW53309   4.686   1.326   6.620 -0.3515  0.0669 -0.0075
11900SOL    HW153310   4.714   1.253   6.675  0.4151 -0.3352 -0.9070
11900SOL    HW253311   4.694   1.403   6.676 -0.9572 -0.4944  0.8830
11901SOL     OW53312   6.307  13.270   0.267  0.2794  0.0185  0.2025
11901SOL    HW153313   6.387  13.227   0.238 -0.9747 -2.0430 -0.4192
11901SOL    HW253314   6.330  13.309   0.352  1.9643 -0.3603 -0.0478
11902SOL     OW53315   3.244   9.615   9.062  0.0334 -0.3253 -0.0096
11902SOL    HW153316   3.235   9.525   9.094  2.2548 -0.3430  0.7427
11902SOL    HW253317   3.336   9.636   9.076  0.1280  1.2485 -2.4086
11903SOL     OW53318  11.800   8.131   0.128 -0.1658 -0.4607  0.2944
11903SOL    HW153319  11.719   8.169   0.163  0.3152  0.3186  0.6104
11903SOL    HW253320  11.839   8.202   0.077  1.1246 -0.2494  1.5015
11904SOL     OW53321   7.318   1.138   4.458  0.3049 -0.5859  0.1767
11904SOL    HW153322   7.293   1.103   4.373  2.2996 -0.0994 -0.6721
11904SOL    HW253323   7.282   1.227   4.460  1.4716 -0.0606 -0.8257
11905SOL     OW53324   3.318   1.120  11.188 -0.0547 -0.4532  0.0344
11905SOL    HW153325   3.362   1.190  11.139 -1.6620 -0.2707 -1.2331
11905SOL    HW253326   3.318   1.151  11.279  0.7748  0.3947 -0.2343
11906SOL     OW53327   0.209   5.159  11.322  0.0685  0.4205 -0.1161
11906SOL    HW153328   0.294   5.202  11.324  1.1382 -1.5587 -0.7385
11906SOL    HW253329   0.172   5.184  11.237  0.1692  0.9840 -0.0029
11907SOL     OW53330  13.719   5.689   1.795  0.4582 -0.3247  0.7466
11907SOL    HW153331  13.709   5.775   1.837  1.6077  0.3373 -0.2993
11907SOL    HW253332  13.803   5.656   1.827  0.2975 -0.8100  0.6827
11908SOL     OW53333   4.557   3.585   5.390 -0.2129 -0.2904  0.4118
11908SOL    HW153334   4.493   3.564   5.322  2.0817 -0.6323 -1.7825
11908SOL    HW253335   4.570   3.679   5.383 -0.4147 -0.2299  0.8146
11909SOL     OW53336   0.662   2.340   3.979 -0.2076  0.1627 -0.0822
11909SOL    HW153337   0.738   2.396   3.964 -0.5623  1.0704  1.2868
11909SOL    HW253338   0.618   2.379   4.055 -0.8970 -1.5332  0.4450
11910SOL     OW53339  13.027  11.643   9.399 -0.0642  0.0210 -0.3175
11910SOL    HW153340  13.089  11.590   9.349  0.9252  1.5689 -0.8010
11910SOL    HW253341  13.083  11.698   9.455 -1.0997 -0.4761  1.2718
11911SOL     OW53342  10.615   3.141   1.884 -0.4604 -0.0343 -0.1884
11911SOL    HW153343  10.533   3.170   1.844 -0.9256 -0.0109  0.7635
11911SOL    HW253344  10.588   3.091   1.961  0.3773 -1.2797 -0.6602
11912SOL     OW53345   5.274  12.141  13.605 -0.8730 -0.3242  1.0038
11912SOL    HW153346   5.363  12.153  13.572 -1.2094 -0.9287 -0.1945
11912SOL    HW253347   5.280  12.062  13.659 -0.3194  0.6708  2.4738
11913SOL     OW53348   6.752  12.184   3.157  1.0281  0.5818 -0.0024
11913SOL    HW153349   6.804  12.257   3.123  0.5569  1.2879  0.7661
11913SOL    HW253350   6.662  12.203   3.130  0.6608  1.1126  1.5110
11914SOL     OW53351  13.990   8.372  11.030  0.0734 -0.6590 -0.0135
11914SOL    HW153352  14.008   8.453  11.078 -0.9005 -0.4624  0.0554
11914SOL    HW253353  13.914   8.334  11.074  0.8268 -1.8900  0.2693
11915SOL     OW53354   3.000   3.456  10.505 -0.1741  1.0295  0.5936
11915SOL    HW153355   3.003   3.457  10.600 -1.1205  2.9020  0.6570
11915SOL    HW253356   2.927   3.514  10.483 -1.0555 -0.6533 -1.2501
11916SOL     OW53357   8.268   8.210   0.759 -0.6699 -0.0066 -0.3544
11916SOL    HW153358   8.315   8.291   0.777 -0.8703  0.1734 -0.6390
11916SOL    HW253359   8.246   8.215   0.666 -1.6439  0.1186 -0.1267
11917SOL     OW53360  11.175  10.589   0.747  0.0245 -0.2942  0.1473
11917SOL    HW153361  11.238  10.546   0.689  0.6899 -1.6498  1.7800
11917SOL    HW253362  11.217  10.672   0.770 -0.2702  0.2852 -1.2830
11918SOL     OW53363   1.710   0.853  12.693  0.3693  0.1909  0.1652
11918SOL    HW153364   1.764   0.849  12.614  0.6549  0.5369  0.3377
11918SOL    HW253365   1.651   0.779  12.686  1.0767 -0.3856  0.1212
11919SOL     OW53366  10.608   8.123  12.087 -0.0938 -0.2405  0.4979
11919SOL    HW153367  10.690   8.137  12.133 -0.9209  1.8328  1.4443
11919SOL    HW253368  10.631   8.128  11.994  1.2611 -2.5487  0.6254
11920SOL     OW53369   0.992   0.078  13.918 -0.1367  0.4711 -0.6903
11920SOL    HW153370   0.998   0.111  14.007 -1.1604 -1.2529  0.0580
11920SOL    HW253371   1.068   0.022  13.907 -0.5589 -0.1471 -0.5182
11921SOL     OW53372   3.189  12.346   6.483 -0.1464 -0.0537  0.4004
11921SOL    HW153373   3.131  12.350   6.408 -2.1734 -1.0629  1.8211
11921SOL    HW253374   3.183  12.432   6.523  2.1257  1.0089 -1.3308
11922SOL     OW53375   1.802  12.428  11.456  0.0866  0.1577 -0.0884
11922SOL    HW153376   1.833  12.338  11.447  1.1608  0.3841  1.0796
11922SOL    HW253377   1.723  12.432  11.402 -1.1663 -2.0709  1.3952
11923SOL     OW53378   8.148   9.849   1.682 -0.4845 -0.0431  0.0874
11923SOL    HW153379   8.108   9.788   1.619 -0.8875  1.0464 -0.7404
11923SOL    HW253380   8.163   9.929   1.632  2.1520 -0.1534  0.5259
11924SOL     OW53381   6.614   9.110  13.106 -0.3838 -0.0962  0.1098
11924SOL    HW153382   6.629   9.020  13.077  3.9625  0.3010  0.5961
11924SOL    HW253383   6.555   9.146  13.039  2.0788 -1.7813 -3.3160
11925SOL     OW53384  11.234   4.168  12.912  0.0192  0.0881  0.2965
11925SOL    HW153385  11.138   4.168  12.905 -0.0449 -1.2877  0.9314
11925SOL    HW253386  11.252   4.194  13.002  0.1178 -2.3236  1.0245
11926SOL     OW53387   8.294   3.486   3.513  0.4508 -0.2626 -0.1705
11926SOL    HW153388   8.362   3.538   3.555  2.6721 -3.6430  0.7767
11926SOL    HW253389   8.244   3.449   3.586  0.6222 -1.5238 -0.6647
11927SOL     OW53390   7.713   1.483   8.617 -0.4797  0.0466  0.5075
11927SOL    HW153391   7.698   1.451   8.706 -0.1513  1.4196  1.0901
11927SOL    HW253392   7.625   1.492   8.580 -0.6649  0.1530  0.9644
11928SOL     OW53393   9.973  12.338   2.942 -0.0048 -0.1837  0.5469
11928SOL    HW153394   9.888  12.334   2.988  0.8166 -0.9271  2.0724
11928SOL    HW253395  10.012  12.420   2.973  0.6021 -0.7431  1.2885
11929SOL     OW53396   5.220   1.646  11.575  0.3069  0.1347  0.0241
11929SOL    HW153397   5.173   1.677  11.652  0.1140 -0.5144  0.1748
11929SOL    HW253398   5.158   1.588  11.530  1.0783 -1.0553  0.4426
11930SOL     OW53399   9.236  11.296  11.793  0.1775  1.2513  0.8133
11930SOL    HW153400   9.181  11.220  11.776 -1.1016  2.6136 -1.5286
11930SOL    HW253401   9.241  11.300  11.889  0.8095 -2.0493  1.0537
11931SOL     OW53402   9.451   9.908  11.764 -0.0007 -0.1723 -0.1219
11931SOL    HW153403   9.412   9.965  11.830 -0.4895  0.2464 -0.7511
11931SOL    HW253404   9.378   9.888  11.704  0.6960  0.4656 -1.2236
11932SOL     OW53405   9.863  13.131   7.569 -0.0602  0.0653  0.3447
11932SOL    HW153406   9.879  13.076   7.645 -1.6963  0.1457  0.7948
11932SOL    HW253407   9.891  13.078   7.494  1.7046  0.0479  0.9782
11933SOL     OW53408   3.537   0.540   5.988  0.4178  0.0686  0.1236
11933SOL    HW153409   3.552   0.634   5.982  0.7263  0.0251  0.1926
11933SOL    HW253410   3.625   0.501   5.988  0.3319 -0.1637  1.1108
11934SOL     OW53411   7.972  12.341   8.133 -0.1367 -0.1178 -0.0921
11934SOL    HW153412   7.992  12.411   8.195 -0.7426  0.7232 -0.8272
11934SOL    HW253413   7.876  12.334   8.134 -0.0563 -1.6791  0.7629
11935SOL     OW53414  12.758   3.043   9.074  0.0015  0.1051 -0.2640
11935SOL    HW153415  12.691   3.012   9.014  0.2965  1.3182 -1.2752
11935SOL    HW253416  12.712   3.097   9.137  0.0273  1.0503 -1.0403
11936SOL     OW53417   2.342   8.602   0.951 -0.2123 -0.2439 -0.3108
11936SOL    HW153418   2.368   8.558   1.031  1.6792  1.5744  0.1646
11936SOL    HW253419   2.284   8.672   0.980  0.6882  0.5867 -0.4439
11937SOL     OW53420   4.682   6.134   4.118  0.2122 -0.1781 -0.0593
11937SOL    HW153421   4.692   6.225   4.146  1.3665 -0.2837 -0.0845
11937SOL    HW253422   4.725   6.083   4.187 -0.6706 -0.7396  0.1000
11938SOL     OW53423   4.916  12.227   1.735 -0.1030  0.2041 -0.0908
11938SOL    HW153424   4.918  12.131   1.739  0.4643  0.2196  0.2595
11938SOL    HW253425   5.008  12.252   1.725 -0.2668  0.7087 -0.4074
11939SOL     OW53426   8.232   5.884   5.223  0.0303 -0.6491 -0.1534
11939SOL    HW153427   8.279   5.893   5.305 -0.1781 -3.8933  0.4397
11939SOL    HW253428   8.169   5.814   5.238 -0.7602 -0.6323 -2.7759
11940SOL     OW53429   4.454   9.450  12.012  0.5144  0.4201  0.4231
11940SOL    HW153430   4.478   9.392  11.941  1.4168  0.9407  0.2849
11940SOL    HW253431   4.377   9.409  12.052  1.2630 -0.9902  0.4885
11941SOL     OW53432   5.513   9.564  10.930  0.5871  0.8221  0.3325
11941SOL    HW153433   5.504   9.483  10.880 -1.0604  1.0573  0.2185
11941SOL    HW253434   5.482   9.542  11.018  1.2852  1.0270  0.6418
11942SOL     OW53435   8.940   9.954   6.062  0.1155  0.4796 -0.2900
11942SOL    HW153436   8.873   9.934   5.997  1.9038  0.3062 -2.1889
11942SOL    HW253437   8.990  10.026   6.024  1.6479 -0.0897  0.5468
11943SOL     OW53438   3.579   0.594   9.532 -0.3179 -0.0161  0.1941
11943SOL    HW153439   3.503   0.540   9.508  0.5122 -0.5590 -1.3241
11943SOL    HW253440   3.644   0.575   9.465  1.6127 -0.4435  2.0803
11944SOL     OW53441   1.051  12.992   3.373 -0.3240 -0.2770 -0.1700
11944SOL    HW153442   1.070  12.914   3.320  0.5080 -0.5511  0.5113
11944SOL    HW253443   1.003  12.959   3.448  1.0918 -0.3404  0.7493
11945SOL     OW53444  12.531  13.244   4.158  0.9808 -0.0028  0.3961
11945SOL    HW153445  12.451  13.242   4.105  0.9010 -1.1967  0.5162
11945SOL    HW253446  12.585  13.312   4.118  0.6714 -0.4636 -0.8520
11946SOL     OW53447   7.438   8.029   7.748 -0.4961 -0.3194 -0.4531
11946SOL    HW153448   7.508   8.021   7.683  2.3102  2.5067  1.8908
11946SOL    HW253449   7.381   8.097   7.713 -1.0882 -1.3412 -1.5400
11947SOL     OW53450  13.155   1.665   4.504  0.0659 -0.1770 -0.5120
11947SOL    HW153451  13.213   1.713   4.445 -0.1686  0.1022 -0.5154
11947SOL    HW253452  13.132   1.728   4.572 -0.7731 -0.0951 -0.8729
11948SOL     OW53453   3.811   0.574   4.028  0.3067 -0.1686  0.1382
11948SOL    HW153454   3.726   0.555   4.068 -0.6645  1.1698 -1.1820
11948SOL    HW253455   3.792   0.638   3.959  2.5091  0.8388  0.3632
11949SOL     OW53456  11.009   3.669   8.103  0.1719 -0.4220  0.3498
11949SOL    HW153457  11.065   3.708   8.170 -0.0716 -0.2206  0.4377
11949SOL    HW253458  11.032   3.716   8.023 -1.0599  0.8446  0.7073
11950SOL     OW53459   7.591   2.746   8.016  0.3065 -0.6841 -0.2640
11950SOL    HW153460   7.589   2.729   7.922 -0.9260  0.2907 -0.4442
11950SOL    HW253461   7.520   2.692   8.051  0.9294 -1.2463  0.1622
11951SOL     OW53462   9.369  10.181  11.858 -0.1647  0.3314 -0.3686
11951SOL    HW153463   9.444  10.239  11.872 -0.4559  0.6925 -0.2792
11951SOL    HW253464   9.359  10.178  11.763 -0.2283  0.5298 -0.3677
11952SOL     OW53465   3.139   8.738   7.975 -0.1280 -0.2744 -0.1923
11952SOL    HW153466   3.220   8.788   7.970 -0.4802  0.2037 -1.3806
11952SOL    HW253467   3.084   8.787   8.035 -0.0369  0.1275 -0.4351
11953SOL     OW53468  12.904   2.183   1.125  0.0903  0.1998  0.1724
11953SOL    HW153469  12.832   2.245   1.113  0.9409  1.1564 -0.1959
11953SOL    HW253470  12.974   2.235   1.165  0.0133 -1.1090  2.1843
11954SOL     OW53471   8.798   4.379   6.889 -0.0883 -0.0413 -0.3156
11954SOL    HW153472   8.819   4.402   6.799  1.5258  1.3613  0.3736
11954SOL    HW253473   8.739   4.450   6.918 -1.4964 -1.0655 -0.5610
11955SOL     OW53474  13.645   3.490   6.032  0.0199  0.7756  0.5870
11955SOL    HW153475  13.738   3.490   6.056  0.5772 -2.3686 -1.0413
11955SOL    HW253476  13.645   3.496   5.937 -1.3607 -0.4758  0.4715
11956SOL     OW53477  12.801   7.027  10.246 -0.9655  0.0251  0.5162
11956SOL    HW153478  12.809   6.933  10.230  0.4387 -0.0244  1.3699
11956SOL    HW253479  12.792   7.065  10.159  1.0324 -0.7041 -0.0609
11957SOL     OW53480   5.699  13.732   5.244  0.1548  0.3900 -0.1309
11957SOL    HW153481   5.765  13.702   5.182  0.5988  1.1320 -0.0215
11957SOL    HW253482   5.617  13.693   5.212  0.9607 -2.5042  1.0558
11958SOL     OW53483  10.231   1.524   8.120 -0.6821 -0.4874  0.0602
11958SOL    HW153484  10.181   1.592   8.165 -2.0558 -1.5652  0.2117
11958SOL    HW253485  10.195   1.522   8.032  0.5170  0.1058 -0.4749
11959SOL     OW53486   0.376   0.466  10.484 -0.1633 -0.1126 -0.6618
11959SOL    HW153487   0.343   0.406  10.417  2.2081 -1.7429 -0.4707
11959SOL    HW253488   0.471   0.467  10.472  0.3519 -0.2573  2.4266
11960SOL     OW53489   7.154   0.023   0.250 -0.0380 -0.1042 -0.3534
11960SOL    HW153490   7.242   0.011   0.214  0.8750 -0.4727  1.8378
11960SOL    HW253491   7.098  -0.033   0.196  0.8305  0.9912 -2.5019
11961SOL     OW53492   0.022   6.007   0.931  0.6185  0.2045  0.3286
11961SOL    HW153493   0.088   6.025   0.998 -0.7546  2.4580  1.1621
11961SOL    HW253494  -0.032   5.938   0.969  1.9563 -1.0931 -0.0310
11962SOL     OW53495  13.692   6.732   5.371  0.5792 -0.3271 -0.1560
11962SOL    HW153496  13.710   6.693   5.457  0.5204 -1.3114 -0.5683
11962SOL    HW253497  13.597   6.725   5.362  0.6111 -0.4816 -0.4037
11963SOL     OW53498   2.382  13.614   0.135  0.5846 -0.5489 -0.1842
11963SOL    HW153499   2.435  13.559   0.193 -0.7108 -1.1436  0.4884
11963SOL    HW253500   2.446  13.665   0.085  1.7861  0.2109  1.9634
11964SOL     OW53501  13.195  11.038  10.185 -0.3683 -0.0937 -0.1746
11964SOL    HW153502  13.192  10.982  10.108 -1.2888  0.5937 -0.6587
11964SOL    HW253503  13.109  11.028  10.225  0.2272 -0.7606  1.0231
11965SOL     OW53504   0.490   1.313  11.387  0.0614  0.7186  0.1536
11965SOL    HW153505   0.504   1.392  11.336 -0.8232  0.6784 -0.1616
11965SOL    HW253506   0.404   1.281  11.359  0.5035 -0.4739  0.1033
11966SOL     OW53507   5.050  13.990  12.902  0.1518  0.2571  0.4534
11966SOL    HW153508   5.133  14.038  12.907  0.1007  0.4109 -0.1141
11966SOL    HW253509   4.994  14.045  12.848  0.8051 -1.4318 -2.1156
11967SOL     OW53510   5.445   5.179  13.988  1.1241 -0.2933  0.1360
11967SOL    HW153511   5.467   5.247  14.052 -0.2171  0.5890 -0.3078
11967SOL    HW253512   5.399   5.112  14.039 -2.2116  1.5407 -0.1876
11968SOL     OW53513   8.293  10.045   4.559 -0.0287 -0.0117  0.1379
11968SOL    HW153514   8.384  10.067   4.579 -0.5977  1.2612  1.5413
11968SOL    HW253515   8.255  10.023   4.644 -1.3389  0.6773 -0.2415
11969SOL     OW53516   4.885  13.525  12.941 -0.0011  0.3652 -0.1305
11969SOL    HW153517   4.804  13.568  12.914  0.2390  0.2318 -1.1090
11969SOL    HW253518   4.863  13.480  13.022 -0.9363  0.2592 -0.4346
11970SOL     OW53519  12.164   9.709   3.760 -0.2709  0.1739 -0.0621
11970SOL    HW153520  12.239   9.759   3.730 -0.3887  0.6598  0.4318
11970SOL    HW253521  12.121   9.766   3.823  0.4308 -1.1218  1.6674
11971SOL     OW53522   2.011   1.884   4.130  0.0704 -0.1577  0.6102
11971SOL    HW153523   1.917   1.864   4.138  0.2418 -1.0597  0.4274
11971SOL    HW253524   2.023   1.962   4.184 -0.5525 -0.7692  1.6695
11972SOL     OW53525   5.005   2.460  13.079 -0.2335 -0.1242  0.4078
11972SOL    HW153526   4.970   2.466  12.990 -1.0758 -1.3509  0.6285
11972SOL    HW253527   5.069   2.389  13.075 -0.3978 -0.2980  0.8133
11973SOL     OW53528   6.032  10.407   6.128  0.5612 -0.0761 -0.2157
11973SOL    HW153529   5.975  10.390   6.054 -0.2761 -0.6664  0.5442
11973SOL    HW253530   6.116  10.367   6.105 -0.3710 -2.3922  0.1177
11974SOL     OW53531   4.013   1.073   2.380 -0.0762  0.7429  0.0121
11974SOL    HW153532   4.084   1.070   2.316  0.4740 -1.2499  0.6407
11974SOL    HW253533   3.934   1.087   2.328  0.5061  0.5083 -0.9540
11975SOL     OW53534   8.333   4.836   0.049 -0.0327  0.0279  0.2561
11975SOL    HW153535   8.371   4.876   0.127 -2.5460  2.7301  0.2602
11975SOL    HW253536   8.345   4.902  -0.019 -1.5912 -0.4948 -0.5596
11976SOL     OW53537   5.423  13.364  10.318  0.0040 -0.4979 -0.1327
11976SOL    HW153538   5.409  13.450  10.357  2.8036  0.6482 -1.3888
11976SOL    HW253539   5.427  13.380  10.224 -0.3172 -2.1725 -0.4775
11977SOL     OW53540   5.905  12.896   1.154 -1.1652  0.6370 -0.0909
11977SOL    HW153541   5.811  12.912   1.151 -1.1001  1.0574  0.0475
11977SOL    HW253542   5.942  12.958   1.092 -0.8534  1.4756  0.9064
11978SOL     OW53543   7.499   2.796  10.808 -0.9597  0.5991 -0.1716
11978SOL    HW153544   7.411   2.787  10.845 -0.7290  2.0575  0.8327
11978SOL    HW253545   7.526   2.885  10.833  0.9455  0.0430 -0.1073
11979SOL     OW53546  12.748   5.772   5.851 -0.2568 -0.4808 -0.0167
11979SOL    HW153547  12.729   5.687   5.811  1.7050 -1.2042  0.4482
11979SOL    HW253548  12.730   5.758   5.944  1.3958 -0.8812  0.2803
11980SOL     OW53549  13.206   6.609  12.811 -0.2560  0.2225 -0.2865
11980SOL    HW153550  13.161   6.652  12.884  0.4443  0.2379  0.1497
11980SOL    HW253551  13.277   6.560  12.853  0.9006  1.1955 -1.0580
11981SOL     OW53552   6.084  12.094   9.633  0.1327 -0.2972 -0.0869
11981SOL    HW153553   6.067  12.002   9.654 -0.2271 -0.5349 -1.3499
11981SOL    HW253554   6.160  12.117   9.687  1.0200 -1.6997 -0.6664
11982SOL     OW53555   8.399  12.177   2.550  0.5960 -0.2451  0.5526
11982SOL    HW153556   8.471  12.114   2.547 -1.3806 -2.5997 -0.3768
11982SOL    HW253557   8.396  12.205   2.642  2.3980 -0.3791  0.6897
11983SOL     OW53558  12.672   7.819   9.256  0.0757 -0.0479 -0.1190
11983SOL    HW153559  12.749   7.775   9.292  0.2137  1.0482  1.0330
11983SOL    HW253560  12.611   7.749   9.235  0.5998 -0.8404  0.8993
11984SOL     OW53561   0.704  13.851   3.300 -0.5860  0.0880 -0.1970
11984SOL    HW153562   0.783  13.814   3.261 -1.0832 -0.4055 -0.7433
11984SOL    HW253563   0.703  13.942   3.268 -0.0789  0.1889  0.0642
11985SOL     OW53564   1.879   0.345   0.326  0.1286  0.0632 -0.1159
11985SOL    HW153565   1.947   0.358   0.392  0.1319  1.1888 -0.3089
11985SOL    HW253566   1.874   0.429   0.280 -1.0489 -0.1569 -0.4369
11986SOL     OW53567  10.928  10.562  12.159 -0.2544 -0.3348  0.7771
11986SOL    HW153568  10.929  10.483  12.104 -0.1557  0.3404 -0.2298
11986SOL    HW253569  10.990  10.544  12.229 -1.3831 -1.7696  1.4833
11987SOL     OW53570   5.297   5.081   3.409 -0.0278  0.2010 -0.2140
11987SOL    HW153571   5.298   5.087   3.504  1.0943 -0.5582 -0.1702
11987SOL    HW253572   5.373   5.029   3.387 -2.6828 -3.6989 -1.2329
11988SOL     OW53573   0.625   5.371   4.570  0.6879  0.1678 -0.2821
11988SOL    HW153574   0.717   5.373   4.541  0.5808 -0.8292 -0.7226
11988SOL    HW253575   0.610   5.280   4.594 -0.9813 -0.2940 -2.8225
11989SOL     OW53576   0.798   3.228   0.096 -0.4440  0.3344 -0.2427
11989SOL    HW153577   0.754   3.259   0.016 -0.9471 -2.1562 -1.0075
11989SOL    HW253578   0.728   3.228   0.162 -0.5660  0.3711 -0.3694
11990SOL     OW53579   0.678   4.952  10.299  0.1399 -0.2218  0.1756
11990SOL    HW153580   0.663   4.987  10.387  0.2243 -1.5667  0.7443
11990SOL    HW253581   0.720   5.024  10.252  2.5323 -0.2659  2.0199
11991SOL     OW53582   5.756   5.235   5.769  0.9438  0.1243  0.3166
11991SOL    HW153583   5.663   5.215   5.761  1.3809 -1.6985 -0.6386
11991SOL    HW253584   5.782   5.194   5.852  1.0594 -0.0190  0.2091
11992SOL     OW53585   0.279  12.552   9.912 -0.2556  0.3244  0.1735
11992SOL    HW153586   0.199  12.500   9.908 -0.1773  0.1607  0.6310
11992SOL    HW253587   0.267  12.620   9.846  0.3415 -1.2408 -1.6319
11993SOL     OW53588   9.369   4.626  13.813 -0.2056 -0.5964 -0.0842
11993SOL    HW153589   9.395   4.542  13.775 -0.0046  0.5595 -2.7191
11993SOL    HW253590   9.337   4.677  13.739  0.2731  1.8893  1.3150
11994SOL     OW53591   6.749   2.940  10.966 -0.3923  0.3016 -0.0117
11994SOL    HW153592   6.672   2.889  10.992  0.7204 -1.5904 -0.2776
11994SOL    HW253593   6.745   2.942  10.871 -0.3482  0.5985 -0.0076
11995SOL     OW53594   7.609   5.366   4.002 -0.0498  0.1797  0.3991
11995SOL    HW153595   7.670   5.380   3.930 -1.2971  4.4881 -0.1480
11995SOL    HW253596   7.528   5.338   3.960 -0.1800  0.5994  0.3676
11996SOL     OW53597   5.837  10.323   6.643 -0.1139 -0.1894 -0.1647
11996SOL    HW153598   5.765  10.267   6.616 -0.0753  0.1048 -0.9312
11996SOL    HW253599   5.845  10.388   6.572  0.9927 -0.3054 -0.1772
11997SOL     OW53600   5.699   3.572  13.977 -0.1818 -0.1293 -0.0045
11997SOL    HW153601   5.690   3.484  14.013  0.4352  0.0026  0.4846
11997SOL    HW253602   5.788   3.599  14.000 -0.2375  0.4839 -0.4656
11998SOL     OW53603   5.299   5.473  12.095  0.4413 -0.3723 -0.2855
11998SOL    HW153604   5.239   5.539  12.130  0.1489 -0.0273 -1.4155
11998SOL    HW253605   5.385   5.501  12.125  0.1025 -0.6697  1.0370
11999SOL     OW53606  13.495   9.222   1.916  0.0946  0.1773  0.7044
11999SOL    HW153607  13.485   9.175   1.834 -1.7606  0.9094  0.4541
11999SOL    HW253608  13.589   9.232   1.927  0.4876 -2.2622  0.0415
12000SOL     OW53609   2.699   2.507   1.080  0.0969  0.0537  0.2410
12000SOL    HW153610   2.617   2.556   1.086  0.4970  0.6272  1.2614
12000SOL    HW253611   2.767   2.573   1.091  0.6531 -0.6988  1.5342
12001SOL     OW53612   6.001   1.867   4.059  0.2779 -0.5759  0.6026
12001SOL    HW153613   5.931   1.924   4.029 -0.4612 -0.0480  3.1081
12001SOL    HW253614   6.005   1.797   3.993 -0.6156  0.8834 -1.0983
12002SOL     OW53615   5.547   5.185   3.657 -0.6035  0.1757 -0.4444
12002SOL    HW153616   5.540   5.094   3.687  1.4262 -0.1859 -0.9075
12002SOL    HW253617   5.599   5.229   3.725 -0.3458  0.6186 -0.9234
12003SOL     OW53618   8.845  13.164  10.259 -0.4554  0.1567 -0.4481
12003SOL    HW153619   8.813  13.144  10.347 -1.3898  1.7375 -0.3847
12003SOL    HW253620   8.925  13.216  10.274 -0.2962 -0.0599 -0.5456
12004SOL     OW53621  12.241  11.621   4.384  0.2593 -0.1338 -0.3151
12004SOL    HW153622  12.319  11.577   4.352  0.5976  1.0167 -1.1405
12004SOL    HW253623  12.168  11.568   4.350  0.6548 -0.6406 -0.3897
12005SOL     OW53624   7.068   6.542  10.820 -0.1311  0.1562 -0.1758
12005SOL    HW153625   7.059   6.536  10.725 -2.8818  0.6886 -0.0562
12005SOL    HW253626   7.031   6.459  10.852  2.9075 -1.0915  0.4711
12006SOL     OW53627   0.862   1.796   6.967  0.2684  0.6399 -0.0529
12006SOL    HW153628   0.917   1.740   7.023 -0.8941 -1.7652 -1.1493
12006SOL    HW253629   0.816   1.734   6.910 -2.2417  2.6519 -0.3776
12007SOL     OW53630   1.599   7.613  10.039 -0.0995  1.0494  0.4962
12007SOL    HW153631   1.535   7.546  10.062  0.0107  0.7885  0.0372
12007SOL    HW253632   1.613   7.603   9.945  2.6685 -0.7237  0.9902
12008SOL     OW53633  11.604   3.771   6.391 -0.4409 -0.4937  0.2015
12008SOL    HW153634  11.690   3.741   6.420  0.4937  1.0487 -0.8346
12008SOL    HW253635  11.573   3.702   6.333 -0.8255 -1.9954  2.1007
12009SOL     OW53636  12.588   1.914   5.101  0.2322  0.2206 -0.3124
12009SOL    HW153637  12.541   1.905   5.184  3.1552  0.1426  1.4807
12009SOL    HW253638  12.521   1.903   5.034 -2.4215  1.0775  2.0000
12010SOL     OW53639   6.683   5.973   7.534  0.5071  0.4095 -0.2395
12010SOL    HW153640   6.601   6.023   7.538  0.1119 -0.2411 -0.0347
12010SOL    HW253641   6.745   6.033   7.492 -0.0714  0.9123 -0.4052
12011SOL     OW53642   4.154  12.929   7.714  0.2781  0.9616  0.1952
12011SOL    HW153643   4.191  13.009   7.676 -1.3467  1.9561  0.6162
12011SOL    HW253644   4.145  12.949   7.807  1.6395 -0.4490  0.6770
12012SOL     OW53645   6.060   9.054  10.117  0.2118 -0.1898 -0.1355
12012SOL    HW153646   6.140   9.092  10.155  0.0166  0.0480  0.0412
12012SOL    HW253647   6.085   9.029  10.028  0.2242  0.7552 -0.4076
12013SOL     OW53648   7.655   2.901   3.078 -0.2872 -0.3932  0.5230
12013SOL    HW153649   7.637   2.867   2.991 -1.5910  0.7096  0.3293
12013SOL    HW253650   7.744   2.935   3.072 -0.5861  0.2387 -0.5687
12014SOL     OW53651   6.687  11.900  13.674 -0.3201  0.0382  0.2842
12014SOL    HW153652   6.650  11.988  13.672  1.4672  0.8387 -0.5394
12014SOL    HW253653   6.615  11.842  13.651 -1.2394  1.4221 -0.4202
12015SOL     OW53654  11.983   6.099  11.874 -0.4526  0.2218  0.2403
12015SOL    HW153655  11.890   6.119  11.887  0.0204  2.2239  0.7660
12015SOL    HW253656  12.029   6.152  11.939  1.2345  1.5025 -1.8613
12016SOL     OW53657   7.984  11.733  10.411 -0.0491 -0.4417  0.2061
12016SOL    HW153658   7.971  11.778  10.494  0.7678  0.0569  0.0733
12016SOL    HW253659   8.058  11.778  10.370 -1.6156  0.6024 -1.6816
12017SOL     OW53660   9.510   8.652   9.697 -0.1959  0.1917  0.5239
12017SOL    HW153661   9.553   8.572   9.728  0.4696  0.2527 -0.2265
12017SOL    HW253662   9.483   8.632   9.607 -0.5109  0.6335  0.5147
12018SOL     OW53663   7.826  10.977  11.440 -0.5988 -0.8607 -0.1230
12018SOL    HW153664   7.907  11.015  11.475 -1.0298  0.1020 -0.1224
12018SOL    HW253665   7.855  10.909  11.380  0.1834 -1.6777  1.1374
12019SOL     OW53666   9.697   3.564   2.441 -0.3530 -0.1453  0.0576
12019SOL    HW153667   9.649   3.526   2.367  0.4388 -2.8324  0.8019
12019SOL    HW253668   9.771   3.608   2.401 -0.6395 -0.4293 -0.8166
12020SOL     OW53669  12.660   4.655   0.179 -0.0415 -0.2132  0.4110
12020SOL    HW153670  12.677   4.666   0.085 -1.5290 -2.2696 -0.1787
12020SOL    HW253671  12.623   4.739   0.207 -2.4648 -0.4719 -1.6033
12021SOL     OW53672   5.133   2.635   8.990 -0.0423 -0.1039 -0.0892
12021SOL    HW153673   5.211   2.648   8.937  0.4184  0.0613  0.6041
12021SOL    HW253674   5.128   2.541   9.003 -0.7432 -0.2414 -1.2698
12022SOL     OW53675   5.804  11.713   4.555 -0.3639 -0.2023 -0.0747
12022SOL    HW153676   5.861  11.784   4.583  1.0246 -0.5767 -1.8110
12022SOL    HW253677   5.853  11.633   4.577 -0.2655 -0.5307 -1.3927
12023SOL     OW53678   7.258   6.398   4.025  0.1695  0.2796  0.3535
12023SOL    HW153679   7.294   6.487   4.017 -0.7517  0.5137 -3.1843
12023SOL    HW253680   7.331   6.340   4.005  0.2632  0.3509  0.4886
12024SOL     OW53681  10.265   8.386  13.656  0.0209  0.0521  0.3239
12024SOL    HW153682  10.259   8.302  13.702  0.3805 -0.7027 -0.9642
12024SOL    HW253683  10.348   8.381  13.608 -0.3143  0.8398 -0.3530
12025SOL     OW53684   7.106   4.785   0.524  0.5613  0.1162 -0.2280
12025SOL    HW153685   7.149   4.728   0.460  1.4439 -2.1481  2.2085
12025SOL    HW253686   7.165   4.860   0.532 -0.8727  1.9144 -3.8745
12026SOL     OW53687   5.188   3.836  13.123  0.0726 -0.3931 -0.1975
12026SOL    HW153688   5.227   3.909  13.170  1.0210 -1.6940  1.1221
12026SOL    HW253689   5.211   3.758  13.174 -0.4748 -1.6871 -1.8015
12027SOL     OW53690  12.804   9.077   9.746 -0.2940  0.0791 -0.2287
12027SOL    HW153691  12.788   9.082   9.652 -2.6946  2.3851  0.1653
12027SOL    HW253692  12.762   8.996   9.774  1.3608 -1.1811 -1.2122
12028SOL     OW53693  13.130   7.703   0.417  0.2768 -0.3059  0.1214
12028SOL    HW153694  13.214   7.747   0.407  0.2923  0.2700  2.2541
12028SOL    HW253695  13.065   7.770   0.395  0.3442  0.2707  1.5665
12029SOL     OW53696  12.163  13.960  13.870  0.0360 -0.3800  0.2541
12029SOL    HW153697  12.093  13.894  13.870 -1.4588  1.0520 -2.0267
12029SOL    HW253698  12.161  13.996  13.782  1.5386  1.9705  1.1011
12030SOL     OW53699  11.077   3.120  13.340  0.1688  0.0605  0.8701
12030SOL    HW153700  10.987   3.093  13.357 -0.4542  0.8216 -0.8964
12030SOL    HW253701  11.131   3.048  13.373 -1.2528 -1.8981 -0.8031
12031SOL     OW53702   9.006   2.547   6.301  0.4382  0.7323 -0.2903
12031SOL    HW153703   9.007   2.615   6.234  0.6662  2.0562  1.0252
12031SOL    HW253704   8.937   2.486   6.272 -0.3438  1.9433 -1.0565
12032SOL     OW53705   5.168   5.989   0.631 -0.0289  0.3980 -0.6192
12032SOL    HW153706   5.202   6.009   0.544 -1.4957 -0.4956 -1.4473
12032SOL    HW253707   5.246   5.977   0.685  0.9099  2.0158 -1.5275
12033SOL     OW53708   3.782   9.612   3.482 -0.2802 -0.2607 -0.4327
12033SOL    HW153709   3.802   9.519   3.468  0.7702 -0.2421  0.6744
12033SOL    HW253710   3.816   9.656   3.405 -2.4209 -0.9291 -1.8564
12034SOL     OW53711   0.651   4.991  12.252  0.0287 -0.7626 -0.2256
12034SOL    HW153712   0.739   4.954  12.257  0.6425  0.7137  0.5597
12034SOL    HW253713   0.655   5.051  12.177  0.4906  1.2002  1.2990
12035SOL     OW53714   5.571  11.230   5.579 -0.5425 -0.0737 -0.8258
12035SOL    HW153715   5.562  11.284   5.501  0.0014 -0.2911 -1.0425
12035SOL    HW253716   5.661  11.200   5.577 -0.4927 -0.0040 -0.0606
12036SOL     OW53717   6.926   6.701   1.459  0.3463 -0.5581 -0.2802
12036SOL    HW153718   6.955   6.775   1.513  0.4346 -0.3300 -0.6390
12036SOL    HW253719   6.971   6.713   1.376  2.0738 -2.1910  0.3304
12037SOL     OW53720  12.137   0.491   0.764  0.0243  0.1400 -0.6662
12037SOL    HW153721  12.080   0.562   0.735 -1.3679  0.2553  2.0211
12037SOL    HW253722  12.221   0.534   0.784 -0.2310  0.7081 -0.7921
12038SOL     OW53723   6.822  12.537   5.058 -0.1688  0.1794 -0.1385
12038SOL    HW153724   6.874  12.463   5.026  0.8322  0.1567  1.4607
12038SOL    HW253725   6.840  12.607   4.996  0.6667 -0.2491 -0.3969
12039SOL     OW53726   9.219   9.489   0.303 -0.2701 -0.0902 -0.4542
12039SOL    HW153727   9.276   9.487   0.226 -1.1525  1.3720 -1.1836
12039SOL    HW253728   9.132   9.510   0.269 -1.4439 -2.8327  0.5772
12040SOL     OW53729   4.821   7.074   5.954  0.0625  0.0927 -0.2217
12040SOL    HW153730   4.790   7.165   5.951 -0.9727 -0.2578 -0.7260
12040SOL    HW253731   4.854   7.057   5.866  2.4283  0.6698  0.4833
12041SOL     OW53732   0.367   1.314  12.182 -0.4690  0.9163 -0.5135
12041SOL    HW153733   0.282   1.351  12.207 -1.2783 -0.4529 -1.0796
12041SOL    HW253734   0.364   1.311  12.086  0.8102  2.1378 -0.6155
12042SOL     OW53735   6.232   6.255   7.621 -0.1673  0.6818  0.4157
12042SOL    HW153736   6.185   6.246   7.538 -0.7018 -4.0376  0.9544
12042SOL    HW253737   6.190   6.330   7.664 -0.6136  2.5995 -2.9762
12043SOL     OW53738  10.911   9.213   0.682 -0.2045 -0.5610  0.5591
12043SOL    HW153739  10.824   9.178   0.699 -0.5613  0.6221  1.2716
12043SOL    HW253740  10.937   9.256   0.763  0.7212 -0.2269  0.1052
12044SOL     OW53741   9.572  10.618   8.782 -0.0229  0.8180  0.0074
12044SOL    HW153742   9.541  10.670   8.857 -1.0657  1.3782 -0.7816
12044SOL    HW253743   9.550  10.672   8.706 -0.0246 -0.2539 -0.7665
12045SOL     OW53744   7.334   0.279   4.152 -0.1277  0.1044 -0.4572
12045SOL    HW153745   7.347   0.365   4.190  1.0296 -0.4754  0.5295
12045SOL    HW253746   7.381   0.282   4.068  0.0949  0.3717 -0.3242
12046SOL     OW53747   4.806   5.624   3.819  0.0135 -0.6920  0.1550
12046SOL    HW153748   4.736   5.563   3.841  0.2109 -0.7802  0.5567
12046SOL    HW253749   4.762   5.708   3.807 -0.3200 -1.0140 -0.9085
12047SOL     OW53750  12.469   0.859   3.962  0.1263 -0.0055  0.0460
12047SOL    HW153751  12.399   0.923   3.947 -0.4123 -0.5478  0.2188
12047SOL    HW253752  12.444   0.816   4.044  0.6772 -0.1889  0.1178
12048SOL     OW53753   1.263  10.693  11.507  0.1315  0.1606 -0.3381
12048SOL    HW153754   1.252  10.761  11.441 -2.1418 -0.9537 -1.1958
12048SOL    HW253755   1.176  10.680  11.543  0.9941 -0.5678  1.6019
12049SOL     OW53756  10.238   2.254   3.927 -0.1103  0.2286  0.2887
12049SOL    HW153757  10.324   2.242   3.968  0.4065  1.7602 -0.2538
12049SOL    HW253758  10.237   2.346   3.900 -1.7045  0.0931 -0.2403
12050SOL     OW53759   2.421   2.702   8.924  0.0438 -0.3240  0.0666
12050SOL    HW153760   2.412   2.685   8.830  0.4274  0.1802 -0.0651
12050SOL    HW253761   2.452   2.619   8.960  1.2754 -0.1219 -0.4788
12051SOL     OW53762   0.413   9.679   2.808 -0.1720 -0.3775  0.2898
12051SOL    HW153763   0.465   9.625   2.749 -0.4824 -1.6445  1.1326
12051SOL    HW253764   0.351   9.724   2.751  0.4137 -0.5311 -0.4820
12052SOL     OW53765  10.840  12.478   5.807 -0.6799 -0.0695  0.2455
12052SOL    HW153766  10.896  12.531   5.751 -0.6311  0.6601  0.9725
12052SOL    HW253767  10.754  12.519   5.801 -0.1120  1.7352  2.8110
12053SOL     OW53768   6.981   0.252  13.527  0.3815 -0.0189 -0.4553
12053SOL    HW153769   7.044   0.215  13.464  0.1706 -0.1167 -0.6105
12053SOL    HW253770   7.027   0.326  13.566  0.0264  0.9058 -1.7293
12054SOL     OW53771   5.181  11.057  12.307 -0.0922  0.3196 -0.0713
12054SOL    HW153772   5.125  11.134  12.317 -0.5768  0.1478 -1.2300
12054SOL    HW253773   5.130  10.985  12.343 -0.9039  0.0664 -1.6230
12055SOL     OW53774   0.811   4.811   7.447  0.0310  0.1825 -0.9164
12055SOL    HW153775   0.725   4.795   7.486  0.7001 -1.4281  0.0162
12055SOL    HW253776   0.830   4.902   7.469 -1.2221  0.4306 -0.7488
12056SOL     OW53777  13.502   1.868   6.914  0.4567 -0.1562 -0.1936
12056SOL    HW153778  13.550   1.929   6.859 -1.8106  1.9379 -0.0389
12056SOL    HW253779  13.419   1.912   6.932 -1.1712 -3.1490  0.2803
12057SOL     OW53780   7.789   4.862   5.392  0.4671  0.0811 -0.0188
12057SOL    HW153781   7.723   4.930   5.405 -0.4136 -0.4487 -1.4235
12057SOL    HW253782   7.822   4.843   5.479  0.1450  1.7242  0.4950
12058SOL     OW53783   0.510  13.353   3.844  0.3514 -0.2338 -0.0821
12058SOL    HW153784   0.508  13.449   3.851  0.2324 -0.2905  0.7262
12058SOL    HW253785   0.540  13.337   3.755 -3.2814  0.5582 -1.6069
12059SOL     OW53786   3.572  12.173   7.471 -0.7679  0.0674  0.5751
12059SOL    HW153787   3.618  12.218   7.400 -0.3514 -1.0380  0.1110
12059SOL    HW253788   3.628  12.184   7.547  1.7040 -3.2980 -0.4810
12060SOL     OW53789  13.319  13.515  11.996 -0.3075  0.0437 -0.3829
12060SOL    HW153790  13.340  13.438  11.944  3.1866  0.2630  0.4401
12060SOL    HW253791  13.293  13.480  12.081 -2.3891 -0.2396 -1.1034
12061SOL     OW53792  13.983  10.469   8.099 -0.0104 -0.4297  0.1618
12061SOL    HW153793  14.059  10.479   8.157 -1.4529 -2.1327  2.5064
12061SOL    HW253794  13.948  10.558   8.091  1.8887  0.3204 -0.6213
12062SOL     OW53795  12.478   9.477   9.133  0.1075 -0.4119 -0.4059
12062SOL    HW153796  12.533   9.555   9.126 -0.0380 -0.2938 -0.2317
12062SOL    HW253797  12.391   9.505   9.105  0.1390 -0.6088 -0.7156
12063SOL     OW53798   4.924   0.151   3.392 -0.2618 -0.2770 -0.7124
12063SOL    HW153799   4.865   0.091   3.346 -1.7470 -0.7515  1.6081
12063SOL    HW253800   4.909   0.236   3.350 -0.5539 -0.9048 -1.9337
12064SOL     OW53801  11.222   2.173   1.956  0.0690  0.4113  0.4286
12064SOL    HW153802  11.279   2.172   1.879  0.1141 -0.8951  0.4571
12064SOL    HW253803  11.144   2.124   1.930  1.5812 -3.4233  2.2186
12065SOL     OW53804   9.010  11.476   5.234 -0.3160  0.6393 -0.3164
12065SOL    HW153805   9.033  11.525   5.313 -0.1999  0.1378 -0.0367
12065SOL    HW253806   9.091  11.471   5.184  0.7827 -2.6697  1.4879
12066SOL     OW53807   5.823  11.264  10.049 -0.5679 -0.0971  0.3445
12066SOL    HW153808   5.736  11.294  10.023  0.3242  1.7994 -0.6463
12066SOL    HW253809   5.858  11.221   9.971 -0.7443 -1.2736  0.8822
12067SOL     OW53810   4.789  13.126   7.679  0.2890 -0.1537 -0.3233
12067SOL    HW153811   4.793  13.159   7.589 -4.0072  1.2936 -0.1958
12067SOL    HW253812   4.749  13.040   7.672  2.0205 -1.0333  0.1214
12068SOL     OW53813   5.998   0.447   9.106 -0.5935 -0.3616  0.2210
12068SOL    HW153814   6.052   0.453   9.027  0.8154  1.8736  1.2601
12068SOL    HW253815   5.914   0.486   9.080 -1.4392 -2.8238 -1.0775
12069SOL     OW53816   1.607  13.521   8.944  0.2718  0.0008 -0.2472
12069SOL    HW153817   1.536  13.462   8.918  0.6293  0.4303 -2.3708
12069SOL    HW253818   1.590  13.602   8.895  1.6005  0.5150  0.1107
12070SOL     OW53819   7.995   6.118   2.650  0.0477  0.5077  0.0076
12070SOL    HW153820   7.917   6.099   2.702  0.1611 -0.1827 -0.0641
12070SOL    HW253821   8.052   6.166   2.710  1.0070 -1.9723  1.2060
12071SOL     OW53822  13.462   4.342  10.865 -0.2057  0.3365  0.2838
12071SOL    HW153823  13.414   4.269  10.904  1.8057 -1.9891 -1.3188
12071SOL    HW253824  13.492   4.394  10.940  0.9409 -2.2406  1.7469
12072SOL     OW53825  10.778   4.011   4.901 -0.2085  0.5917 -0.1425
12072SOL    HW153826  10.785   4.083   4.964 -1.2971 -0.1204  0.8401
12072SOL    HW253827  10.756   3.935   4.955  2.5629 -0.9005 -0.9163
12073SOL     OW53828  11.148  10.011  11.299 -0.5875 -0.2763 -0.1363
12073SOL    HW153829  11.145  10.090  11.353 -1.7950 -0.8425  0.6789
12073SOL    HW253830  11.151   9.940  11.363 -2.3915 -0.9802 -0.7729
12074SOL     OW53831   1.355   4.527   4.368  0.2574  0.6735 -0.8119
12074SOL    HW153832   1.279   4.471   4.382  1.3266 -0.8256 -0.7674
12074SOL    HW253833   1.380   4.510   4.277  0.6230  1.0512 -0.7835
12075SOL     OW53834   1.739   9.832   9.643  0.2258 -0.4823  0.1070
12075SOL    HW153835   1.762   9.749   9.686  1.6477  0.3825  1.1099
12075SOL    HW253836   1.796   9.835   9.565  1.9494  0.5927  1.3442
12076SOL     OW53837  10.042   7.136  12.634 -0.0894 -0.0178 -0.0990
12076SOL    HW153838  10.081   7.089  12.560 -0.2791  0.8101 -0.7442
12076SOL    HW253839   9.948   7.135  12.616 -0.0903  0.6430 -0.1478
12077SOL     OW53840   0.750   6.837   1.368  0.2589 -0.5339  0.3227
12077SOL    HW153841   0.774   6.892   1.442  0.1583 -1.3745  0.9931
12077SOL    HW253842   0.671   6.790   1.397  0.3485 -1.0425 -0.2279
12078SOL     OW53843  14.079   0.165  13.961  0.0744 -0.7364  0.5859
12078SOL    HW153844  14.093   0.094  13.899  0.7161  0.8053 -1.1068
12078SOL    HW253845  14.012   0.220  13.921  0.5080  0.3015  1.2372
12079SOL     OW53846   6.537   2.331   6.422 -0.1637  0.6835 -0.3271
12079SOL    HW153847   6.570   2.349   6.334 -0.4205 -0.5393 -0.6918
12079SOL    HW253848   6.446   2.360   6.419 -0.2927  0.2558 -0.5992
12080SOL     OW53849   1.502   6.782   9.943 -0.1546  0.3062  0.2706
12080SOL    HW153850   1.549   6.782  10.027  0.4220  0.3800 -0.0473
12080SOL    HW253851   1.545   6.850   9.891  0.0035 -0.2713 -0.3695
12081SOL     OW53852   4.006  11.109   0.657  0.1553 -0.1502 -0.8251
12081SOL    HW153853   3.986  11.190   0.611  1.1802  0.7110  0.2046
12081SOL    HW253854   4.083  11.074   0.612  0.5394  0.1665 -0.4252
12082SOL     OW53855   2.650   2.779   4.040 -0.2834  0.3886  0.2097
12082SOL    HW153856   2.639   2.838   3.965 -0.8349  0.9393  0.7186
12082SOL    HW253857   2.561   2.763   4.071 -0.0588  0.1456  0.7369
12083SOL     OW53858   1.292   6.563   1.021  0.4582  0.6418  0.4043
12083SOL    HW153859   1.376   6.517   1.020  1.3031  2.1074  0.9614
12083SOL    HW253860   1.256   6.545   1.108  0.8713  1.1525  0.6872
12084SOL     OW53861   8.648   1.837   8.199  0.1079 -0.1149 -0.8020
12084SOL    HW153862   8.688   1.829   8.285  2.5587 -0.9013 -1.9401
12084SOL    HW253863   8.666   1.927   8.173 -0.1912 -0.0276 -0.7128
12085SOL     OW53864  12.852   8.903  13.519  0.1686  0.4949 -0.5696
12085SOL    HW153865  12.819   8.820  13.485  2.4242 -0.9213  0.4294
12085SOL    HW253866  12.937   8.914  13.476  1.2110  0.7663  1.4500
12086SOL     OW53867   7.310   0.627   1.617  0.6390 -0.1551  0.2501
12086SOL    HW153868   7.358   0.607   1.537 -0.6981 -0.3540 -0.5396
12086SOL    HW253869   7.309   0.544   1.666  0.4699 -0.3460 -0.0743
12087SOL     OW53870  13.238   7.093  12.713  0.1523  0.2186 -0.4448
12087SOL    HW153871  13.194   7.155  12.772 -0.9148 -1.1011  0.2007
12087SOL    HW253872  13.302   7.048  12.768 -0.2397 -0.4037 -0.4792
12088SOL     OW53873   7.227   4.806   4.886 -0.2974 -0.0140  0.2231
12088SOL    HW153874   7.149   4.753   4.899 -1.3933  1.2588 -0.8904
12088SOL    HW253875   7.273   4.764   4.813 -0.5383 -0.1247  0.1335
12089SOL     OW53876   6.505   7.887  10.196 -0.5099  0.4376 -0.1992
12089SOL    HW153877   6.511   7.873  10.101 -2.7655  1.6312 -0.6027
12089SOL    HW253878   6.505   7.982  10.206  2.0415  0.3585  1.2773
12090SOL     OW53879  14.042  11.880  11.825 -0.4677 -0.3899 -0.3408
12090SOL    HW153880  14.011  11.954  11.877  0.4659 -1.7358  2.2809
12090SOL    HW253881  14.112  11.917  11.770  1.3922  0.3933  2.3652
12091SOL     OW53882   0.578  11.443   2.482  0.0917  0.5156  0.2784
12091SOL    HW153883   0.673  11.430   2.488  0.0025  0.1037  0.8947
12091SOL    HW253884   0.568  11.532   2.446  0.7140  0.9420  1.1165
12092SOL     OW53885  11.901  13.594  10.857 -0.0844  0.4541 -0.0023
12092SOL    HW153886  11.894  13.689  10.847  1.5248  0.8226  1.8250
12092SOL    HW253887  11.987  13.580  10.897  0.2450 -1.8872 -1.3425
12093SOL     OW53888   1.639   6.041  13.321 -0.5287  0.1224 -0.2555
12093SOL    HW153889   1.645   6.136  13.335 -0.9365  0.0912  0.1736
12093SOL    HW253890   1.728   6.013  13.304 -0.0570  0.2605  1.7358
12094SOL     OW53891   0.162   6.222   6.764 -0.8268 -0.6680  0.0459
12094SOL    HW153892   0.075   6.261   6.768 -1.1056 -1.1837 -0.7503
12094SOL    HW253893   0.218   6.291   6.730 -1.0514 -0.5233 -0.0331
12095SOL     OW53894  12.336  13.219   2.091 -0.5603 -0.1694  0.0518
12095SOL    HW153895  12.380  13.209   2.007 -1.6841 -2.1469 -0.3538
12095SOL    HW253896  12.303  13.309   2.090  1.3532  0.5947 -0.6200
12096SOL     OW53897   9.673  12.831   7.164  0.2324  0.2716 -0.5778
12096SOL    HW153898   9.678  12.753   7.110 -1.2148 -0.5205  0.3532
12096SOL    HW253899   9.606  12.885   7.122 -0.9282 -0.3650  0.3568
12097SOL     OW53900  12.954   6.828   6.585  0.0897  0.1543 -0.1563
12097SOL    HW153901  13.029   6.839   6.526  0.2992  0.4742  0.1686
12097SOL    HW253902  12.948   6.733   6.597 -0.0342  0.0747 -0.7884
12098SOL     OW53903   5.279  11.078   2.309 -0.6218 -0.1702  0.3219
12098SOL    HW153904   5.185  11.098   2.319 -1.0591 -1.1553 -1.3700
12098SOL    HW253905   5.295  11.008   2.372 -1.4959 -1.2393 -0.5959
12099SOL     OW53906   6.995   7.576   3.120  0.7295 -0.6058 -0.2524
12099SOL    HW153907   6.975   7.636   3.049  1.5794 -1.1205 -0.9379
12099SOL    HW253908   7.089   7.560   3.113  0.5528 -1.8689  0.0313
12100SOL     OW53909  13.065  12.827   9.191  0.1456 -0.0471  0.4830
12100SOL    HW153910  13.159  12.811   9.192  0.2288  0.1742 -1.0119
12100SOL    HW253911  13.029  12.757   9.137 -0.8666 -1.4073  2.7533
12101SOL     OW53912   8.234   6.644   1.632  0.1000 -0.2242  0.4070
12101SOL    HW153913   8.294   6.644   1.558 -0.4989 -0.9727 -0.0974
12101SOL    HW253914   8.246   6.559   1.673 -1.5276 -0.9286 -0.4871
12102SOL     OW53915   8.804   1.098   6.441 -0.0621  0.7141  0.3737
12102SOL    HW153916   8.890   1.057   6.444  0.7069  2.1803 -0.3530
12102SOL    HW253917   8.768   1.073   6.356  1.1559  2.8268 -0.8710
12103SOL     OW53918   2.019   0.545  12.526  0.3459  0.5259  0.1175
12103SOL    HW153919   2.020   0.454  12.497 -1.8387  0.4637  0.0173
12103SOL    HW253920   2.109   0.565  12.548  0.8356 -1.7342  0.3689
12104SOL     OW53921  13.789   0.439  11.529  0.0190 -0.0247 -0.0306
12104SOL    HW153922  13.760   0.412  11.616 -1.5240  0.4895 -0.3625
12104SOL    HW253923  13.789   0.359  11.477 -1.4958  0.0591 -0.1943
12105SOL     OW53924   0.940   0.333   5.939 -0.0643  0.6329  0.3611
12105SOL    HW153925   1.022   0.299   5.902 -0.0731 -0.9048  1.6289
12105SOL    HW253926   0.969   0.397   6.004  0.1940 -0.2673  1.1632
12106SOL     OW53927   6.073  11.757   7.298  0.4260 -0.1255  0.1850
12106SOL    HW153928   6.054  11.810   7.375 -0.4777 -0.1492 -0.0049
12106SOL    HW253929   6.032  11.672   7.316  0.6575 -0.3036 -0.1029
12107SOL     OW53930  13.308   5.347   7.692 -0.1046  0.1512  0.0076
12107SOL    HW153931  13.214   5.354   7.677 -0.1893  0.1087  0.4999
12107SOL    HW253932  13.316   5.314   7.782  0.3680 -0.4462 -0.2430
12108SOL     OW53933   1.475  13.103   9.750 -0.4995  0.3295 -0.2726
12108SOL    HW153934   1.528  13.061   9.818 -1.2770 -1.6570 -0.8444
12108SOL    HW253935   1.385  13.094   9.781 -0.7168  1.3724 -0.5470
12109SOL     OW53936  14.001   6.740   3.731  0.1036  0.8043 -0.1238
12109SOL    HW153937  13.915   6.743   3.690  0.5329 -0.2160 -1.1502
12109SOL    HW253938  14.008   6.651   3.765  0.9471  0.7266 -0.4860
12110SOL     OW53939  13.526   7.320   6.299  0.5075 -0.3800  0.9487
12110SOL    HW153940  13.484   7.397   6.260  1.2855 -0.2014  0.4398
12110SOL    HW253941  13.586   7.289   6.232  1.6121 -0.2921  1.8620
12111SOL     OW53942   4.958   5.439  11.757  0.2345  0.2854 -0.4243
12111SOL    HW153943   5.035   5.481  11.795 -1.7974  4.1036  0.0133
12111SOL    HW253944   4.902   5.419  11.832 -1.4369  2.7556 -0.8858
12112SOL     OW53945  14.053   5.634   2.427  0.5142  0.2294 -0.4989
12112SOL    HW153946  14.087   5.546   2.412 -0.2456 -0.1691  0.0335
12112SOL    HW253947  14.119   5.676   2.482  1.5038  0.4476 -1.8079
12113SOL     OW53948  11.796   8.421  10.905  0.0202  0.0065 -0.0753
12113SOL    HW153949  11.879   8.386  10.936  0.4459  0.1492 -1.0037
12113SOL    HW253950  11.763   8.353  10.846 -0.1139  0.3069 -0.3458
12114SOL     OW53951   4.709   2.865   2.574 -0.9289  0.7256 -1.0363
12114SOL    HW153952   4.627   2.900   2.540 -1.8367 -0.4994 -0.2023
12114SOL    HW253953   4.683   2.810   2.648  0.8357  2.0898  0.6931
12115SOL     OW53954  13.983   0.089   8.135  0.3702  0.5143  0.1243
12115SOL    HW153955  13.953   0.107   8.045  1.4121 -0.1406 -0.3731
12115SOL    HW253956  13.919   0.026   8.169  0.8837 -0.5189 -0.7609
12116SOL     OW53957   8.089   3.489   9.859 -0.5409  0.0692  0.6642
12116SOL    HW153958   7.994   3.494   9.850 -0.5382  0.3978  0.7978
12116SOL    HW253959   8.103   3.441   9.941 -0.5817 -0.8576  0.1401
12117SOL     OW53960   8.075   5.051   5.066  0.3314 -0.6478 -0.0461
12117SOL    HW153961   8.023   5.125   5.034  0.0530 -0.1087  1.5599
12117SOL    HW253962   8.085   5.068   5.160  1.6741 -1.8070  0.0481
12118SOL     OW53963  12.863  12.263   0.366 -0.4667  0.3450 -0.1309
12118SOL    HW153964  12.887  12.355   0.360 -0.7737  0.3706 -1.1383
12118SOL    HW253965  12.880  12.240   0.457  1.2732  0.9305 -0.2680
12119SOL     OW53966   4.594  10.501   5.095 -0.1297  0.0711  0.1030
12119SOL    HW153967   4.564  10.434   5.034 -1.4735  0.7961 -0.0822
12119SOL    HW253968   4.607  10.454   5.178  0.4909 -0.6834 -0.4109
12120SOL     OW53969  11.068  11.768   7.510 -0.4021  0.7337 -0.3535
12120SOL    HW153970  10.992  11.820   7.537 -1.2575 -0.8170  0.3197
12120SOL    HW253971  11.075  11.783   7.416 -2.6470 -0.4527 -0.7708
12121SOL     OW53972   2.573  10.925   8.251 -0.1331  0.0032  0.0658
12121SOL    HW153973   2.608  10.920   8.162 -0.5097  1.3207 -0.1688
12121SOL    HW253974   2.583  10.836   8.285 -3.1243 -1.5205 -2.4977
12122SOL     OW53975   6.139  11.979   9.315 -0.6006  1.0687 -0.0428
12122SOL    HW153976   6.137  11.980   9.410  0.8512 -2.5727  0.2143
12122SOL    HW253977   6.096  11.896   9.291 -2.8513  2.8146 -2.7609
12123SOL     OW53978   8.663  12.056   1.049  0.2019 -0.6990 -1.2321
12123SOL    HW153979   8.589  12.072   0.990 -0.8608 -2.1384 -0.3743
12123SOL    HW253980   8.656  11.963   1.071  2.1912 -0.8381 -0.9739
12124SOL     OW53981  12.398   7.834   3.703  0.6031  0.3696 -0.1970
12124SOL    HW153982  12.355   7.919   3.702 -3.8409 -1.5986 -0.5619
12124SOL    HW253983  12.458   7.838   3.778 -1.3895  2.9432  1.4382
12125SOL     OW53984  11.037   5.639  10.249 -0.0767 -0.0054  0.3826
12125SOL    HW153985  11.088   5.650  10.169 -2.9369  2.1038 -1.3886
12125SOL    HW253986  10.983   5.718  10.254 -1.8980 -1.2465  2.9819
12126SOL     OW53987  11.326   4.606  10.370  0.0267 -0.6195 -0.0116
12126SOL    HW153988  11.376   4.618  10.451 -0.4341 -1.0874  0.3468
12126SOL    HW253989  11.237   4.630  10.394 -0.0095 -0.1920 -0.5416
12127SOL     OW53990   1.510   4.763   3.667  0.0432 -0.4130 -0.5005
12127SOL    HW153991   1.448   4.835   3.671 -0.3968 -0.8018 -0.0760
12127SOL    HW253992   1.461   4.688   3.701 -0.0318 -1.2844 -2.4105
12128SOL     OW53993   1.926  12.776   4.504  0.3221 -0.1877 -0.3620
12128SOL    HW153994   1.895  12.686   4.496  0.3676 -0.1437 -1.1566
12128SOL    HW253995   1.995  12.772   4.570  0.7236 -0.8414 -0.8083
12129SOL     OW53996  11.980   8.425  13.216  0.0849 -0.3147 -0.0022
12129SOL    HW153997  11.895   8.468  13.202 -0.0987 -0.7096 -0.1180
12129SOL    HW253998  12.013   8.465  13.297 -0.1275 -0.0239 -0.0560
12130SOL     OW53999  13.734   9.558  11.121  0.2185  0.0504 -0.3669
12130SOL    HW154000  13.810   9.538  11.175  0.8844  1.4941 -0.7277
12130SOL    HW254001  13.760   9.531  11.033 -0.9651 -2.5557 -0.0040
12131SOL     OW54002   1.423   9.226   9.339 -0.2682 -0.0640  0.4734
12131SOL    HW154003   1.419   9.132   9.358 -0.9648 -0.1933 -0.2927
12131SOL    HW254004   1.390   9.268   9.418  1.2680 -0.3874  1.3394
12132SOL     OW54005   2.980   9.961   7.118  0.2858 -0.1750  0.3109
12132SOL    HW154006   2.908   9.908   7.082 -0.0029  0.8899 -0.7552
12132SOL    HW254007   2.967   9.958   7.213 -1.4159  0.2963  0.1255
12133SOL     OW54008   1.772  11.150   4.134 -0.6440 -0.4592  0.1580
12133SOL    HW154009   1.736  11.089   4.070 -1.4120 -0.0776  0.2164
12133SOL    HW254010   1.866  11.133   4.133 -0.6301 -0.3970 -1.1369
12134SOL     OW54011   3.107  12.947   7.265  0.1533  0.0855 -0.1391
12134SOL    HW154012   3.079  12.908   7.348 -0.0530 -1.9394 -1.0936
12134SOL    HW254013   3.202  12.956   7.274 -0.0363  1.3472  0.8622
12135SOL     OW54014   5.238   9.397   1.861  0.3935 -0.0620 -0.0988
12135SOL    HW154015   5.209   9.474   1.911  1.0599 -0.0784  0.3234
12135SOL    HW254016   5.326   9.379   1.893  0.2487 -1.0040 -0.2043
12136SOL     OW54017   2.890  13.156   6.288  0.6410  0.2773  0.1472
12136SOL    HW154018   2.888  13.131   6.380 -0.2450 -1.2465 -0.2473
12136SOL    HW254019   2.981  13.146   6.262  0.5088 -1.5682  0.2950
12137SOL     OW54020   1.699   1.433   4.637 -0.2751  0.0205 -0.5052
12137SOL    HW154021   1.661   1.442   4.549  1.5689 -0.3482 -1.3836
12137SOL    HW254022   1.627   1.398   4.690 -0.4658 -3.4650 -2.7484
12138SOL     OW54023   8.385   2.659   0.046  0.2566 -0.1816  0.0832
12138SOL    HW154024   8.385   2.614  -0.039 -1.5250  0.5424 -0.3604
12138SOL    HW254025   8.296   2.647   0.079  0.1005  1.8667  0.5491
12139SOL     OW54026   5.014   1.075   8.119 -0.1179 -0.4618  0.2287
12139SOL    HW154027   5.041   1.083   8.210  0.6970  0.4832 -0.0793
12139SOL    HW254028   4.929   1.031   8.123  0.0721 -0.7543  1.4127
12140SOL     OW54029   8.674   0.945   0.277  0.5077 -0.2356 -0.1484
12140SOL    HW154030   8.640   0.922   0.364 -0.6145 -1.0772 -0.7846
12140SOL    HW254031   8.764   0.973   0.294 -0.3185  1.6493  1.5329
12141SOL     OW54032   0.353  12.271   4.975 -0.3902 -0.1110 -0.2702
12141SOL    HW154033   0.423  12.207   4.961 -0.3940 -0.1565 -0.0897
12141SOL    HW254034   0.282  12.242   4.918  0.5380  1.2175 -2.1959
12142SOL     OW54035   3.916  13.171  13.477  0.1910  0.3069 -0.1632
12142SOL    HW154036   3.919  13.079  13.449  1.7603 -0.4356  2.0969
12142SOL    HW254037   3.872  13.169  13.562 -0.7657  1.8391 -0.5852
12143SOL     OW54038   1.394   0.143   2.154  0.5983  0.0298 -0.3541
12143SOL    HW154039   1.362   0.094   2.079 -0.3415 -0.9107  0.6360
12143SOL    HW254040   1.316   0.175   2.198  1.1693  1.6726 -0.4581
12144SOL     OW54041   4.739   9.398   1.450  0.1202 -0.1150 -0.0536
12144SOL    HW154042   4.667   9.433   1.399  0.1547  0.8891  0.5579
12144SOL    HW254043   4.805   9.468   1.451 -0.1920  0.2321  1.9671
12145SOL     OW54044   2.803   6.070   5.232 -0.5904  0.3119  0.8348
12145SOL    HW154045   2.771   6.154   5.201  2.9535  2.2799  1.9899
12145SOL    HW254046   2.822   6.084   5.325  1.3961 -1.2716  0.7498
12146SOL     OW54047   7.579   0.717   4.599 -0.4595  0.6968  0.2982
12146SOL    HW154048   7.659   0.666   4.610 -0.7282  0.1714 -0.1629
12146SOL    HW254049   7.513   0.654   4.571 -1.3843  0.8581  1.9503
12147SOL     OW54050   9.125   1.628  12.190 -0.3979 -0.3277  0.6508
12147SOL    HW154051   9.109   1.572  12.113  0.9212 -0.2227  0.2681
12147SOL    HW254052   9.162   1.569  12.255 -0.7763 -0.2652  0.9200
12148SOL     OW54053   3.835   5.109   8.949 -0.2822  0.2032  1.0000
12148SOL    HW154054   3.795   5.031   8.911  2.0589 -0.0777 -1.0909
12148SOL    HW254055   3.774   5.180   8.926 -0.3995 -0.4151 -0.7576
12149SOL     OW54056  10.570  10.849  11.447  0.1150 -0.5372 -0.3245
12149SOL    HW154057  10.491  10.854  11.501 -0.8013 -0.0602 -1.6682
12149SOL    HW254058  10.593  10.756  11.447 -0.8166 -0.7744 -0.4321
12150SOL     OW54059   4.432   6.788  11.092 -0.2426 -0.1521 -0.3059
12150SOL    HW154060   4.423   6.854  11.023  1.5535  0.4451 -0.0154
12150SOL    HW254061   4.521   6.799  11.125  0.3847 -3.1754 -0.6970
12151SOL     OW54062   2.073   8.403  11.591 -0.3455  0.3044  0.2554
12151SOL    HW154063   2.167   8.422  11.589 -0.2213  0.4582  3.3659
12151SOL    HW254064   2.068   8.309  11.610 -0.8313  0.2800  0.0129
12152SOL     OW54065   3.297   4.249   2.299 -0.3993 -0.2047  0.8843
12152SOL    HW154066   3.378   4.294   2.275 -0.6969  0.2356  0.6927
12152SOL    HW254067   3.317   4.156   2.288  0.0863 -0.0985  0.8574
12153SOL     OW54068   4.239   2.036   0.966 -0.4542  0.3547 -0.3370
12153SOL    HW154069   4.176   2.108   0.967 -0.8212  0.1901 -3.2609
12153SOL    HW254070   4.193   1.965   0.920  0.5623 -1.1192  0.8292
12154SOL     OW54071   9.462   0.231   1.055  0.0549 -0.4942  0.6139
12154SOL    HW154072   9.378   0.246   1.097  0.4214  0.1879  1.1301
12154SOL    HW254073   9.520   0.296   1.093  0.7574 -0.7857  0.0782
12155SOL     OW54074   5.072   2.589   4.745  0.3791 -0.1879 -0.3215
12155SOL    HW154075   5.080   2.629   4.659  0.9267 -1.1027 -0.7209
12155SOL    HW254076   5.061   2.662   4.806 -1.9599  0.4005 -1.3461
12156SOL     OW54077   1.722   9.544   1.921  0.2955  0.1921  0.2862
12156SOL    HW154078   1.726   9.448   1.924  1.9761  0.2618  1.3136
12156SOL    HW254079   1.768   9.568   1.841 -1.5638  0.1283 -0.8640
12157SOL     OW54080   0.738   2.643   8.935  0.2125  0.0441  0.3975
12157SOL    HW154081   0.714   2.697   8.860  0.4133  1.3017  1.2189
12157SOL    HW254082   0.829   2.617   8.919 -0.3049 -1.2370 -0.6665
12158SOL     OW54083   1.594  10.863   2.713 -0.0961 -0.8326 -0.1108
12158SOL    HW154084   1.621  10.952   2.734  2.3716 -1.5110 -0.0396
12158SOL    HW254085   1.657  10.807   2.758  0.2020 -2.5268 -2.3951
12159SOL     OW54086  13.070   6.900   9.727 -0.2497  0.4236 -0.3294
12159SOL    HW154087  13.091   6.978   9.676 -0.1038  0.4776 -0.1848
12159SOL    HW254088  13.055   6.832   9.660  1.5734  0.0657 -0.4463
12160SOL     OW54089  11.582   4.070   2.468  0.0707  0.2274 -0.3856
12160SOL    HW154090  11.488   4.054   2.469  0.0324  0.4177  1.7771
12160SOL    HW254091  11.590   4.157   2.427 -0.4204 -0.8729 -3.0573
12161SOL     OW54092   4.974   3.327   3.724 -0.2396 -0.0342  0.2551
12161SOL    HW154093   5.058   3.294   3.693 -1.0917 -2.5373  0.3833
12161SOL    HW254094   4.912   3.302   3.655 -1.0131  1.0358  0.5408
12162SOL     OW54095  10.695   9.210  10.608  0.0977  0.4340 -0.7888
12162SOL    HW154096  10.665   9.285  10.658 -0.4504 -0.2744 -0.0226
12162SOL    HW254097  10.747   9.159  10.670  1.7061  0.9118 -1.7058
12163SOL     OW54098   7.998  12.257   1.974 -0.1600  0.2287 -0.0116
12163SOL    HW154099   8.087  12.293   1.982  0.0299 -0.5653  2.4321
12163SOL    HW254100   7.999  12.180   2.031 -2.4734  0.3463  0.2530
12164SOL     OW54101   1.848   3.609   3.427  0.4094 -0.0208  0.2701
12164SOL    HW154102   1.826   3.697   3.396 -0.2331  0.0204  0.7956
12164SOL    HW254103   1.942   3.611   3.440  0.2107  1.1288  1.8310
12165SOL     OW54104   5.036   6.172  13.630 -0.0860  0.3542 -0.5529
12165SOL    HW154105   5.128   6.147  13.637  0.3502  1.5091 -1.8835
12165SOL    HW254106   5.035   6.267  13.640 -1.1857  0.3283 -0.2012
12166SOL     OW54107   2.410  13.951   0.990 -0.1559  0.0475 -0.0068
12166SOL    HW154108   2.393  13.857   0.990 -1.4938  0.2542 -1.5406
12166SOL    HW254109   2.455  13.967   1.073  0.2677 -1.9621  0.1986
12167SOL     OW54110   6.698   9.930   0.409 -0.0235 -0.1506  0.1084
12167SOL    HW154111   6.738   9.946   0.495 -1.6235  0.3666  0.8148
12167SOL    HW254112   6.728   9.843   0.384  1.3218  0.1153  0.6815
12168SOL     OW54113   9.017   8.537   3.276 -0.3727  0.3757  0.6107
12168SOL    HW154114   9.024   8.579   3.362 -0.2700 -2.1366  1.9206
12168SOL    HW254115   8.923   8.530   3.260 -0.4362 -0.6243  1.3325
12169SOL     OW54116   7.472   9.625   5.411  0.1140 -0.0454  0.1328
12169SOL    HW154117   7.523   9.630   5.491 -2.8176  0.9155  2.0864
12169SOL    HW254118   7.423   9.543   5.418 -1.8203  1.0811  0.4801
12170SOL     OW54119  12.078   3.965   0.210 -0.2789  0.7457  0.2055
12170SOL    HW154120  12.144   3.991   0.146  0.1021 -0.3826  0.1146
12170SOL    HW254121  12.125   3.960   0.293 -0.0959 -0.5371  0.0580
12171SOL     OW54122  10.271   7.044   4.999  0.0165 -0.3383  0.2999
12171SOL    HW154123  10.306   7.107   5.063  0.1403  0.9013 -0.9467
12171SOL    HW254124  10.349   7.006   4.958 -0.0650 -0.3807  0.1824
12172SOL     OW54125   3.717   1.421   0.664 -0.6453 -0.0555 -0.3471
12172SOL    HW154126   3.657   1.474   0.612 -1.8194 -1.5517 -0.5855
12172SOL    HW254127   3.773   1.485   0.708 -3.1294  1.5095  0.7706
12173SOL     OW54128   8.842  13.915   3.866  0.2205  0.3299  0.9364
12173SOL    HW154129   8.879  13.831   3.839  0.7956  1.0656 -0.6686
12173SOL    HW254130   8.889  13.937   3.947  1.4175 -0.0154  0.3556
12174SOL     OW54131   4.571   7.262   2.576  0.4479 -0.1532 -0.2727
12174SOL    HW154132   4.626   7.290   2.503  0.7620  1.2973  0.4765
12174SOL    HW254133   4.609   7.305   2.653  1.6484 -3.5270  1.2439
12175SOL     OW54134   7.983  11.790   4.885  0.2512  0.3877 -0.5270
12175SOL    HW154135   8.073  11.818   4.867 -0.5082  1.5942 -2.8222
12175SOL    HW254136   7.948  11.857   4.944  0.3045  0.9816 -1.1552
12176SOL     OW54137   4.282  13.703  12.074  0.6269 -0.5852 -0.1791
12176SOL    HW154138   4.203  13.757  12.073  0.3535 -0.7148  2.8353
12176SOL    HW254139   4.257  13.626  12.126  2.2293 -1.5354 -0.7343
12177SOL     OW54140  12.965   4.800   0.095 -0.0462 -0.1538  0.0047
12177SOL    HW154141  12.920   4.836   0.171 -0.3288  0.0850 -0.2734
12177SOL    HW254142  13.058   4.812   0.115 -0.1396  1.7127 -0.5312
12178SOL     OW54143   9.222   5.908  13.203  0.1010  0.0505 -0.1499
12178SOL    HW154144   9.224   5.999  13.229  0.0622 -0.2875  1.0663
12178SOL    HW254145   9.136   5.877  13.231  1.0670 -1.0240  1.8550
12179SOL     OW54146   8.411   2.906   4.124 -0.8422 -0.3051 -0.6031
12179SOL    HW154147   8.326   2.895   4.168 -1.1025  1.4637 -0.5771
12179SOL    HW254148   8.457   2.971   4.177  0.2916 -0.7852 -0.9735
12180SOL     OW54149   1.374   7.051   3.248  0.2023 -0.6486  0.2640
12180SOL    HW154150   1.318   7.044   3.171 -0.9195  1.4171  0.8240
12180SOL    HW254151   1.418   7.136   3.237 -0.2110 -0.1771  2.0140
12181SOL     OW54152  13.953  11.100   6.485  0.1705 -0.1568 -0.5533
12181SOL    HW154153  14.022  11.093   6.551 -0.6611  2.5265  0.7187
12181SOL    HW254154  13.969  11.026   6.426  1.6935 -1.9675  1.9383
12182SOL     OW54155   5.390   2.564   0.683 -0.0711  0.1498  0.0807
12182SOL    HW154156   5.471   2.524   0.650 -0.4637 -0.6650  0.0834
12182SOL    HW254157   5.414   2.598   0.769  0.9534  2.2373 -0.9364
12183SOL     OW54158   3.977   1.955  10.079 -0.2542 -0.4743 -0.2411
12183SOL    HW154159   4.010   1.890  10.017 -0.4881  0.5095 -1.4319
12183SOL    HW254160   4.035   2.030  10.069 -1.7061  0.5839 -1.0190
12184SOL     OW54161   8.058   1.270  12.705 -1.2031  0.0313  0.4609
12184SOL    HW154162   8.081   1.208  12.775  0.2528 -0.3186 -0.3035
12184SOL    HW254163   7.966   1.251  12.686 -1.4384 -0.2996  1.8352
12185SOL     OW54164  10.485   8.944   6.136 -0.0632  0.0274  0.1173
12185SOL    HW154165  10.566   8.900   6.111 -0.2682  0.1958 -0.8765
12185SOL    HW254166  10.470   9.008   6.067 -2.1973 -1.4819 -0.9591
12186SOL     OW54167   0.043  10.045   5.549 -0.1315 -0.3607 -0.2359
12186SOL    HW154168   0.038   9.954   5.520 -1.0416 -0.0056 -1.2132
12186SOL    HW254169   0.122  10.047   5.604  0.7748 -1.3879 -1.4368
12187SOL     OW54170   4.971   0.383   3.841  0.0609 -0.2907 -0.1506
12187SOL    HW154171   4.991   0.328   3.765  0.4759  0.3097 -0.4860
12187SOL    HW254172   5.041   0.363   3.904  0.2468 -0.1141 -0.2966
12188SOL     OW54173   0.380  13.637  10.146 -0.3264 -0.1569  0.5252
12188SOL    HW154174   0.351  13.670  10.230 -2.2923 -0.3549 -0.0241
12188SOL    HW254175   0.321  13.678  10.082  0.2036 -1.0854 -0.6079
12189SOL     OW54176   7.215   7.451   4.816  0.4875 -0.2830  0.2354
12189SOL    HW154177   7.215   7.519   4.883 -1.5027  1.2296 -1.1699
12189SOL    HW254178   7.124   7.423   4.811  0.7727 -1.0399 -1.1493
12190SOL     OW54179  13.238   3.530   7.948  0.1408  0.4816  0.3689
12190SOL    HW154180  13.197   3.502   8.030  1.3846  0.2070  0.9140
12190SOL    HW254181  13.248   3.450   7.897  1.4039  0.2993  0.8851
12191SOL     OW54182   1.880   4.868   9.344  0.5257  0.3040  0.6103
12191SOL    HW154183   1.975   4.858   9.340  0.3175 -1.6207 -1.0449
12191SOL    HW254184   1.857   4.907   9.260 -0.2111  0.1605  0.7450
12192SOL     OW54185   2.070   0.218   6.827 -0.0051  0.5557 -0.0046
12192SOL    HW154186   2.012   0.274   6.775 -1.9027 -0.2197  1.1622
12192SOL    HW254187   2.015   0.144   6.854  1.5248 -0.2123  1.2067
12193SOL     OW54188   8.315  12.048  10.479 -0.2405 -0.1013  0.4000
12193SOL    HW154189   8.376  12.080  10.413  0.3335 -0.7268  0.6071
12193SOL    HW254190   8.256  12.121  10.496 -0.1599  0.1900 -0.5263
12194SOL     OW54191   4.501   6.237   3.331  0.4219  0.3621 -0.1673
12194SOL    HW154192   4.579   6.239   3.275 -0.2221 -1.5681 -1.2274
12194SOL    HW254193   4.428   6.242   3.270 -0.3062  0.2686  0.6791
12195SOL     OW54194   8.044   0.147  12.474 -0.2698  0.0583  0.0496
12195SOL    HW154195   8.123   0.177  12.429 -0.1841  0.1657  0.2744
12195SOL    HW254196   8.012   0.074  12.420  0.0111 -0.0208 -0.0086
12196SOL     OW54197   5.716  12.909   9.402 -0.4295  0.7516  0.2663
12196SOL    HW154198   5.685  12.997   9.382 -4.1637 -0.5613 -0.6046
12196SOL    HW254199   5.699  12.897   9.495  0.1072  0.9526  0.3908
12197SOL     OW54200   2.142   3.148   5.858 -0.6265 -0.5880 -0.0482
12197SOL    HW154201   2.208   3.103   5.805 -0.5450 -0.5372  0.0098
12197SOL    HW254202   2.125   3.089   5.931  0.7466  0.2224  0.9661
12198SOL     OW54203   9.602  13.519   3.924 -0.0719 -0.6354 -0.0443
12198SOL    HW154204   9.619  13.513   4.019  2.0192 -3.3300 -0.4365
12198SOL    HW254205   9.509  13.499   3.915 -0.1546 -1.0736  1.4231
12199SOL     OW54206   1.791  12.068   0.991 -0.0323 -0.2258 -0.1821
12199SOL    HW154207   1.853  12.123   1.039 -0.1949 -0.8475  0.7582
12199SOL    HW254208   1.821  12.072   0.900 -0.2306  1.6875 -0.2185
12200SOL     OW54209  11.357   8.119  10.164  0.6151 -0.2468  0.1121
12200SOL    HW154210  11.402   8.059  10.105 -0.1065  0.5204 -1.2631
12200SOL    HW254211  11.284   8.154  10.113  1.0586  1.8691  0.7994
12201SOL     OW54212   1.515  12.416   7.019 -0.3725 -0.6086 -0.0937
12201SOL    HW154213   1.596  12.465   7.031 -1.2965  0.6507  1.4463
12201SOL    HW254214   1.467  12.428   7.102 -1.2291 -3.0582 -0.1606
12202SOL     OW54215   2.679   9.070   4.046  0.1321 -0.0801  0.2872
12202SOL    HW154216   2.634   9.086   4.129 -1.4752  1.1147 -0.7596
12202SOL    HW254217   2.681   8.975   4.037 -0.0496 -0.2108  1.4664
12203SOL     OW54218   9.237   2.705  10.752 -0.2350 -0.1945  0.4244
12203SOL    HW154219   9.250   2.613  10.772 -0.3421 -0.1262  0.8267
12203SOL    HW254220   9.142   2.714  10.739 -0.0862 -0.4060 -1.0196
12204SOL     OW54221  10.562   1.799   4.731 -0.2476  0.0458 -0.1822
12204SOL    HW154222  10.514   1.749   4.797 -0.0824 -1.6540 -1.3040
12204SOL    HW254223  10.494   1.840   4.678 -0.6078 -2.6804 -2.0231
12205SOL     OW54224   9.649   6.629   0.315  0.4985 -0.4558 -0.1595
12205SOL    HW154225   9.601   6.567   0.260 -0.7765  1.4444 -1.3230
12205SOL    HW254226   9.584   6.659   0.379  0.8015  0.3696 -0.2282
12206SOL     OW54227   2.728  12.626  12.070  0.2700  0.3396  0.3092
12206SOL    HW154228   2.689  12.713  12.062  0.1738  0.4200  1.4458
12206SOL    HW254229   2.671  12.580  12.132 -0.4281 -0.9937 -1.2513
12207SOL     OW54230   2.244   8.741   3.877  0.2514 -0.6790  0.3726
12207SOL    HW154231   2.322   8.758   3.824  0.4270 -0.6300  0.6456
12207SOL    HW254232   2.237   8.646   3.880  0.1073 -0.6805  0.0684
12208SOL     OW54233   7.988   2.852   7.682 -0.4235  0.4914  0.0494
12208SOL    HW154234   7.950   2.929   7.724 -2.7942 -1.0500  0.9384
12208SOL    HW254235   7.912   2.798   7.657  1.0873 -2.7005  1.6725
12209SOL     OW54236   6.054   5.568   9.217  0.0429  0.0767 -0.2195
12209SOL    HW154237   6.121   5.500   9.213 -0.3353 -0.3292  0.2747
12209SOL    HW254238   6.102   5.647   9.243  0.6992  0.3172 -1.9502
12210SOL     OW54239   8.252  11.909   2.750  0.3386 -0.4838  0.4344
12210SOL    HW154240   8.277  11.830   2.702  1.1261  0.0627 -0.0769
12210SOL    HW254241   8.320  11.920   2.816  0.1438 -0.3115  0.6080
12211SOL     OW54242   4.232   6.286  14.073 -0.6597  0.2952  0.2431
12211SOL    HW154243   4.158   6.287  14.133 -0.6436 -0.1789  0.2694
12211SOL    HW254244   4.285   6.362  14.100 -0.2098 -0.3993  1.3889
12212SOL     OW54245  13.750   4.998  14.058  0.7123 -0.0618  0.0617
12212SOL    HW154246  13.692   4.942  14.006 -1.1977  0.7109  1.2517
12212SOL    HW254247  13.788   5.058  13.994  1.8546 -1.8520 -1.0506
12213SOL     OW54248  12.488   3.523   1.004  0.8634  0.1368  0.1722
12213SOL    HW154249  12.569   3.567   0.979  0.4237  1.2366  0.6137
12213SOL    HW254250  12.419   3.575   0.963  0.3731 -0.8751 -0.3261
12214SOL     OW54251  12.358   0.433   4.243 -0.6603  0.0023  0.1668
12214SOL    HW154252  12.363   0.407   4.151 -3.8336  0.3477 -0.2370
12214SOL    HW254253  12.351   0.351   4.292  0.0150 -0.1515  0.0123
12215SOL     OW54254   1.795   5.821   5.260 -0.0039 -0.0257  0.1934
12215SOL    HW154255   1.829   5.761   5.327  1.0208  0.3049 -0.0037
12215SOL    HW254256   1.835   5.789   5.179 -1.0131 -0.2538 -0.2220
12216SOL     OW54257   0.246   6.788   1.757  0.1500 -0.1335  0.4425
12216SOL    HW154258   0.308   6.795   1.830 -1.4152 -1.5283  1.9811
12216SOL    HW254259   0.253   6.697   1.729  0.8152  0.4112 -1.2883
12217SOL     OW54260   0.486   9.458   9.713  0.2924 -0.7322  0.0734
12217SOL    HW154261   0.439   9.488   9.635 -0.7263  0.9254  1.2573
12217SOL    HW254262   0.546   9.530   9.734 -0.0377 -0.7821  1.2712
12218SOL     OW54263   3.597   0.715   2.774 -0.1008  0.0375  0.0397
12218SOL    HW154264   3.646   0.756   2.845 -0.9030 -2.0179  1.8911
12218SOL    HW254265   3.624   0.763   2.696  2.3561  1.0921  1.4178
12219SOL     OW54266   7.743  13.767   9.661 -0.5817  0.4907  0.5770
12219SOL    HW154267   7.659  13.722   9.654 -0.2721  0.2192 -3.3897
12219SOL    HW254268   7.727  13.854   9.625  0.6655  0.6980  0.4735
12220SOL     OW54269  11.277   6.412   6.519  0.2595 -0.0133  0.0262
12220SOL    HW154270  11.241   6.372   6.597 -0.8900  0.3000 -0.3248
12220SOL    HW254271  11.342   6.349   6.487 -0.3197 -0.8195  0.4099
12221SOL     OW54272   6.547  11.200   3.294  0.3224 -0.4646 -0.4520
12221SOL    HW154273   6.471  11.171   3.244  0.2237 -1.9630  0.5097
12221SOL    HW254274   6.576  11.280   3.250 -1.1523 -0.4634 -1.4747
12222SOL     OW54275   7.961   5.413  12.673 -0.1150 -0.2824 -0.1969
12222SOL    HW154276   7.913   5.482  12.720 -0.5758 -1.3130  0.8782
12222SOL    HW254277   7.893   5.351  12.646  0.3293 -0.4621 -0.9314
12223SOL     OW54278   8.527   9.689  12.498  0.2159  0.7659  0.0796
12223SOL    HW154279   8.618   9.689  12.470  0.3924  0.5567  0.6277
12223SOL    HW254280   8.527   9.736  12.581  0.0799 -0.4897  0.8218
12224SOL     OW54281   6.134   5.065  11.739 -0.2451 -0.2880 -0.0910
12224SOL    HW154282   6.090   5.144  11.771 -0.4037 -0.0274 -0.9195
12224SOL    HW254283   6.178   5.029  11.815  0.0495  0.7533  0.2407
12225SOL     OW54284   0.843  13.446  10.132  0.0308  0.1029 -0.1460
12225SOL    HW154285   0.761  13.450  10.083  1.2199 -1.6135 -2.5110
12225SOL    HW254286   0.817  13.445  10.224 -2.5711 -0.3218 -0.8182
12226SOL     OW54287  11.858   4.540   5.847  0.3696  0.0190 -0.3691
12226SOL    HW154288  11.944   4.559   5.809  0.5933  0.2776  0.2578
12226SOL    HW254289  11.795   4.578   5.785  0.7158  0.0685 -0.6882
12227SOL     OW54290  13.453   1.927   9.052  0.4999 -0.0292  0.2849
12227SOL    HW154291  13.375   1.905   9.103 -0.7790  0.3884 -1.4037
12227SOL    HW254292  13.431   1.901   8.962  0.5039  4.1100 -1.1262
12228SOL     OW54293   2.804   3.801   9.986 -0.3568 -0.1230 -0.2795
12228SOL    HW154294   2.802   3.866  10.056  2.5813  0.9893 -1.0863
12228SOL    HW254295   2.882   3.748  10.005  0.9252  0.6440 -2.9960
12229SOL     OW54296   1.034   3.515  12.661 -0.2665 -0.0787 -0.1885
12229SOL    HW154297   0.968   3.453  12.692 -0.6413 -0.1886 -1.1714
12229SOL    HW254298   1.029   3.588  12.722 -0.8459 -0.3736  0.1259
12230SOL     OW54299   0.678   7.619   0.132 -0.3512  0.8132  0.0875
12230SOL    HW154300   0.710   7.704   0.162  0.5048  0.5900 -0.1551
12230SOL    HW254301   0.622   7.640   0.057  0.7330  1.1037 -0.6601
12231SOL     OW54302  11.411   4.876   7.965 -0.2897 -0.5754  0.4769
12231SOL    HW154303  11.466   4.798   7.961 -0.3140 -0.5587 -0.7213
12231SOL    HW254304  11.422   4.917   7.879 -1.2445  0.0690  0.6434
12232SOL     OW54305   6.724   9.633   1.236  0.1483  0.3101  0.1116
12232SOL    HW154306   6.668   9.608   1.162 -1.0180  0.5437  0.8891
12232SOL    HW254307   6.813   9.617   1.205 -0.3941 -1.7373 -0.5605
12233SOL     OW54308   9.295   5.658  14.062 -0.4508 -0.1736  0.7032
12233SOL    HW154309   9.336   5.649  14.148  2.1702 -0.4168 -0.4423
12233SOL    HW254310   9.310   5.574  14.019  1.1561  0.8985 -1.0314
12234SOL     OW54311   8.752   5.492   4.534  0.0719 -0.0013  0.5218
12234SOL    HW154312   8.720   5.561   4.591 -3.0868 -0.5283 -0.4578
12234SOL    HW254313   8.718   5.411   4.571 -0.0997 -0.5765 -0.8144
12235SOL     OW54314  11.139   2.295   2.345  0.0305 -0.4313 -0.1933
12235SOL    HW154315  11.142   2.390   2.358  0.5478 -0.6351  1.3699
12235SOL    HW254316  11.073   2.264   2.407 -1.0863 -0.9783 -1.6180
12236SOL     OW54317   5.171   1.429   9.040  0.7360  0.2916  0.2113
12236SOL    HW154318   5.188   1.338   9.018 -0.9846  0.1554 -0.7711
12236SOL    HW254319   5.236   1.451   9.106  1.5539 -1.4651  0.0345
12237SOL     OW54320   0.042  11.631   6.172 -0.0400  0.0833  0.1454
12237SOL    HW154321   0.138  11.624   6.171 -0.0753 -0.7450  0.8559
12237SOL    HW254322   0.025  11.724   6.159  0.8200  0.0925 -1.1507
12238SOL     OW54323   1.176   5.939   4.992 -0.9805  0.3813 -1.0276
12238SOL    HW154324   1.153   5.959   5.082 -0.2700  0.0946 -0.7791
12238SOL    HW254325   1.165   5.844   4.985  1.2614  0.0466 -0.5548
12239SOL     OW54326  13.623   9.195   1.256 -0.5664  0.4183 -0.0496
12239SOL    HW154327  13.715   9.186   1.279 -0.5733  1.1258  0.2550
12239SOL    HW254328  13.577   9.139   1.319 -0.2211 -1.4721 -1.3858
12240SOL     OW54329   4.967   3.684  10.184 -0.6257  0.4624  0.5056
12240SOL    HW154330   4.968   3.593  10.213  0.8200  0.8563  1.8271
12240SOL    HW254331   4.876   3.711  10.192 -0.8954 -0.5736  1.0654
12241SOL     OW54332   3.927   3.740   2.935  0.4852 -0.2894  0.4847
12241SOL    HW154333   3.896   3.799   2.865  0.0783 -0.4896  0.4948
12241SOL    HW254334   4.022   3.744   2.928  0.4490 -0.5737 -0.3114
12242SOL     OW54335  10.961  13.127   7.649 -0.4831 -0.1416 -0.2335
12242SOL    HW154336  10.924  13.040   7.663  0.2696 -0.3040  0.9361
12242SOL    HW254337  10.932  13.178   7.725 -0.6998  0.5538 -0.7715
12243SOL     OW54338   6.779  12.274   4.540 -0.0194 -0.1153 -0.4823
12243SOL    HW154339   6.812  12.361   4.517  0.6461 -0.2598 -0.1179
12243SOL    HW254340   6.797  12.265   4.633  1.7434 -1.3839 -0.8746
12244SOL     OW54341   9.081   4.767  12.348 -0.3655  0.1450  0.2973
12244SOL    HW154342   9.019   4.772  12.421 -0.5793 -0.3722  0.1522
12244SOL    HW254343   9.035   4.719  12.280 -0.5871  1.6039 -0.6129
12245SOL     OW54344  12.768   9.673  12.268  0.7123  0.0486  0.5817
12245SOL    HW154345  12.807   9.736  12.207  0.5849 -0.9496 -0.5645
12245SOL    HW254346  12.721   9.611  12.212  0.5972 -0.9088  1.7039
12246SOL     OW54347   9.139  13.930   7.678  0.1667 -0.5393  0.1621
12246SOL    HW154348   9.078  13.870   7.635  1.2907 -0.8353 -1.0799
12246SOL    HW254349   9.197  13.873   7.729  0.6251 -0.4248 -0.2307
12247SOL     OW54350   0.996   5.929   5.259 -0.0761 -0.6960  0.0762
12247SOL    HW154351   0.918   5.880   5.234  0.2318 -1.2066  0.0866
12247SOL    HW254352   0.964   6.012   5.293 -0.6381 -1.1454  0.6427
12248SOL     OW54353  13.315  10.060  13.263  0.3470 -0.2670 -0.1600
12248SOL    HW154354  13.366  10.109  13.327 -0.6535 -0.0063  0.4643
12248SOL    HW254355  13.377  10.038  13.194  1.1175  0.7211  0.1984
12249SOL     OW54356   1.898   5.033   8.365 -0.4684  0.1364 -0.3692
12249SOL    HW154357   1.863   5.065   8.282 -1.9299  1.5053  0.6951
12249SOL    HW254358   1.976   5.086   8.380 -0.4406  0.1822 -0.6757
12250SOL     OW54359   9.451   7.110   4.955  0.5766  0.2129 -0.0837
12250SOL    HW154360   9.529   7.069   4.918  1.0859  1.4450 -0.4375
12250SOL    HW254361   9.384   7.097   4.888  0.8839  0.4227 -0.4413
12251SOL     OW54362   4.094   1.059   1.848 -0.3746  0.0060 -0.2365
12251SOL    HW154363   4.045   1.096   1.774 -1.4176 -0.4044  0.2214
12251SOL    HW254364   4.043   0.983   1.874  0.0138  0.1113  0.8665
12252SOL     OW54365  13.307  12.551   3.177  0.0151  0.2485  0.0799
12252SOL    HW154366  13.254  12.602   3.115  1.1917  0.2533 -0.9705
12252SOL    HW254367  13.397  12.563   3.146  0.5162 -0.6919  1.1261
12253SOL     OW54368   9.752  11.957   7.795  0.3511 -0.1405  0.3830
12253SOL    HW154369   9.695  11.885   7.824  0.1310 -0.3801 -0.6099
12253SOL    HW254370   9.704  12.036   7.820 -0.0256 -0.3396  0.3107
12254SOL     OW54371   0.091  14.072   7.745  0.0579 -0.5566 -0.1245
12254SOL    HW154372   0.083  14.030   7.660 -0.5556 -0.4822 -0.1094
12254SOL    HW254373   0.159  14.138   7.733  0.8575 -1.3838 -0.2090
12255SOL     OW54374   4.075  13.592   0.149  0.0604  0.1033 -0.2676
12255SOL    HW154375   4.073  13.516   0.091  1.4248  0.4769 -0.8429
12255SOL    HW254376   4.131  13.655   0.104 -0.3188  1.1084  0.6214
12256SOL     OW54377  13.342   6.486   0.171 -0.0163 -0.4073  0.5457
12256SOL    HW154378  13.342   6.556   0.236  2.0067 -0.4123  0.6087
12256SOL    HW254379  13.272   6.428   0.199  0.2619  0.0233  2.2641
12257SOL     OW54380   3.161   9.842   7.526  0.2445  0.1882 -0.9517
12257SOL    HW154381   3.183   9.934   7.515 -0.7231  0.4947 -0.4791
12257SOL    HW254382   3.149   9.810   7.436 -1.0031  0.9550 -1.0895
12258SOL     OW54383   1.680   4.910   9.544 -0.0323  0.2940  0.3368
12258SOL    HW154384   1.740   4.860   9.488  0.3473  0.0608  0.9465
12258SOL    HW254385   1.671   4.857   9.623 -1.1918  0.2397  0.1806
12259SOL     OW54386  10.769   7.361   6.513 -0.2399 -0.3463  0.4230
12259SOL    HW154387  10.731   7.430   6.459 -0.9549  0.1395  1.4916
12259SOL    HW254388  10.706   7.350   6.585 -0.0572 -2.0028  0.3649
12260SOL     OW54389  11.381   0.877   4.738 -0.3022  0.1111  0.5758
12260SOL    HW154390  11.446   0.809   4.723  0.5031  0.9008  0.3641
12260SOL    HW254391  11.349   0.862   4.827 -0.6001 -0.9090  0.3039
12261SOL     OW54392  10.240   8.112  13.492  0.3180 -0.8905 -0.5409
12261SOL    HW154393  10.241   8.086  13.584  1.4021  0.0848 -0.2536
12261SOL    HW254394  10.331   8.104  13.464  0.2618  0.2710 -1.0970
12262SOL     OW54395   1.979   3.842   2.779  0.1772  0.2428 -0.3608
12262SOL    HW154396   2.041   3.812   2.846 -1.0207 -0.3324  0.5395
12262SOL    HW254397   1.896   3.853   2.826 -0.5727  0.3720 -1.6518
12263SOL     OW54398   5.850   1.372   1.724  0.0146  0.0458  0.3188
12263SOL    HW154399   5.881   1.375   1.634 -0.9176 -0.3005 -0.0194
12263SOL    HW254400   5.928   1.393   1.777  0.1477  2.2546 -0.6314
12264SOL     OW54401  11.056   0.067  12.463  0.6106 -0.2744  0.1278
12264SOL    HW154402  11.098   0.035  12.544  0.3835 -2.1108 -0.4278
12264SOL    HW254403  11.130   0.090  12.406  0.7888 -0.0892  0.4276
12265SOL     OW54404   2.972   1.703  12.034  0.1616  0.4477 -0.7579
12265SOL    HW154405   2.922   1.728  12.112  0.3335  0.2584 -0.5894
12265SOL    HW254406   3.044   1.650  12.067  0.4329  0.6557 -1.0102
12266SOL     OW54407   1.957   0.228   5.167 -0.6514  0.0983  0.0405
12266SOL    HW154408   1.945   0.217   5.261 -0.0063 -1.9168 -0.0620
12266SOL    HW254409   1.873   0.263   5.136 -0.7600  1.0987  1.3764
12267SOL     OW54410   4.408   4.429  12.317 -0.1042  0.5608  0.0571
12267SOL    HW154411   4.397   4.457  12.226  0.4315 -1.7351 -0.7826
12267SOL    HW254412   4.496   4.459  12.341 -0.2463  1.1745 -0.1676
12268SOL     OW54413   3.997   1.507   9.558  0.6303  0.1267 -0.4873
12268SOL    HW154414   4.001   1.475   9.467  0.4987  2.1896 -1.2631
12268SOL    HW254415   3.928   1.454   9.598 -0.3426  0.1730 -2.0217
12269SOL     OW54416   9.595   1.032   9.667 -0.5321 -0.0849  0.3803
12269SOL    HW154417   9.641   0.965   9.717 -0.8520 -0.5762  0.0386
12269SOL    HW254418   9.556   0.983   9.593  0.3953  0.6935 -0.6590
12270SOL     OW54419   4.393  10.243   7.978 -0.4026  0.3457  0.2634
12270SOL    HW154420   4.341  10.316   7.945  0.7410  1.2442  0.3733
12270SOL    HW254421   4.479  10.254   7.937 -0.0696 -0.6691  0.6554
12271SOL     OW54422   2.753   1.704  13.616  0.7339  0.5427  0.1365
12271SOL    HW154423   2.732   1.776  13.676  0.4420  0.3544  0.2607
12271SOL    HW254424   2.848   1.711  13.603  0.5438  1.6734 -0.7909
12272SOL     OW54425   5.771   9.763   2.213 -0.6029  0.2636 -0.3434
12272SOL    HW154426   5.735   9.808   2.290  1.0207  2.4558 -0.7631
12272SOL    HW254427   5.754   9.824   2.141 -0.0556 -0.7104 -1.3086
12273SOL     OW54428   2.422  11.408   0.892  0.3796  0.6417 -0.3225
12273SOL    HW154429   2.398  11.341   0.956 -1.0711 -0.9001 -2.3325
12273SOL    HW254430   2.384  11.489   0.927  0.6475  0.0991  1.3068
12274SOL     OW54431   2.934   2.556   6.873  0.1984  0.1439  0.1916
12274SOL    HW154432   2.980   2.613   6.934  0.0084  0.2501  0.2348
12274SOL    HW254433   2.944   2.598   6.788 -3.9975  2.9313  0.7676
12275SOL     OW54434  12.762   8.657   4.997 -0.2702  0.1600 -0.3916
12275SOL    HW154435  12.773   8.562   4.996  3.0080  0.4224 -0.1085
12275SOL    HW254436  12.682   8.672   5.048 -0.3003 -2.4052  0.4268
12276SOL     OW54437   0.461  12.040   6.180 -0.4530  0.8242 -0.4590
12276SOL    HW154438   0.493  12.092   6.106  2.4350  0.3027  0.2627
12276SOL    HW254439   0.449  12.103   6.251  0.7788  0.8690 -0.2562
12277SOL     OW54440   2.903   8.542  10.823  0.9994 -0.3796  0.1008
12277SOL    HW154441   2.826   8.542  10.880  0.7187 -0.0660 -0.2648
12277SOL    HW254442   2.938   8.453  10.829  2.4293  0.2536  2.6616
12278SOL     OW54443   6.872  11.152   0.448  0.4345 -0.1545 -0.6846
12278SOL    HW154444   6.801  11.171   0.509 -0.8442 -2.0944 -1.4594
12278SOL    HW254445   6.952  11.172   0.497 -0.5926  0.4348  0.8315
12279SOL     OW54446   0.373   2.080   2.448 -0.0225 -0.0564  0.5168
12279SOL    HW154447   0.300   2.126   2.408 -0.2096  0.0988  1.0255
12279SOL    HW254448   0.342   2.058   2.536  1.4047  2.2537  1.6992
12280SOL     OW54449  13.729  10.450   4.755  0.2664 -0.0803 -0.0096
12280SOL    HW154450  13.711  10.415   4.843  1.7741 -1.5965 -0.2551
12280SOL    HW254451  13.809  10.501   4.766  1.6643 -1.9802 -0.8341
12281SOL     OW54452   7.462   0.883   6.088 -0.4733  0.0883  0.1555
12281SOL    HW154453   7.444   0.834   6.008 -4.0655  1.2264  0.1299
12281SOL    HW254454   7.551   0.917   6.076 -0.2185 -1.2604 -2.4762
12282SOL     OW54455   4.948   5.857  13.552 -0.5908 -0.0208  0.2587
12282SOL    HW154456   4.853   5.855  13.564 -0.4561 -2.6169  1.4015
12282SOL    HW254457   4.984   5.838  13.638  0.9217 -0.8670 -0.5228
12283SOL     OW54458   8.303   0.195   5.726  0.0436  0.2455  0.3634
12283SOL    HW154459   8.251   0.123   5.764  0.7463 -0.2691  0.3689
12283SOL    HW254460   8.282   0.271   5.780 -2.0844  0.5109 -0.7040
12284SOL     OW54461   0.425   8.219   0.791  0.0990 -0.5049 -0.1370
12284SOL    HW154462   0.440   8.270   0.711 -1.1985  0.3719  0.1436
12284SOL    HW254463   0.412   8.284   0.859 -1.5690 -1.1830  0.2388
12285SOL     OW54464  13.192   3.077   1.815 -0.4898 -0.1775 -0.0355
12285SOL    HW154465  13.188   3.171   1.836  2.5171  0.1499 -0.4973
12285SOL    HW254466  13.230   3.074   1.727  3.2692 -1.7685  1.4112
12286SOL     OW54467   5.683  10.082   2.741  0.5160 -0.4007 -0.2018
12286SOL    HW154468   5.660  10.060   2.651 -0.7091  2.7798 -0.7863
12286SOL    HW254469   5.769  10.123   2.735 -1.1322  3.3530 -0.6601
12287SOL     OW54470   5.501   1.737   0.513  0.1425  0.1921 -0.0806
12287SOL    HW154471   5.501   1.801   0.442  0.0540 -0.8303 -1.0281
12287SOL    HW254472   5.410   1.709   0.521  0.2504 -0.1248  0.0489
12288SOL     OW54473   2.411   3.150   1.964 -0.5459 -0.0811 -0.2529
12288SOL    HW154474   2.440   3.078   2.021  1.0755 -0.5330 -1.5874
12288SOL    HW254475   2.487   3.207   1.957 -0.6376 -0.1469 -2.1272
12289SOL     OW54476   6.482   1.870   5.730  0.5714  0.1375 -0.0213
12289SOL    HW154477   6.574   1.843   5.735  0.5022 -0.4682 -1.5073
12289SOL    HW254478   6.483   1.951   5.680  0.2750  0.0581 -0.1544
12290SOL     OW54479  12.635   9.687   2.898 -0.2247  0.2642  0.4198
12290SOL    HW154480  12.617   9.686   2.804 -0.0607  0.8566  0.3776
12290SOL    HW254481  12.567   9.745   2.935 -0.8495 -0.6754  0.7926
12291SOL     OW54482   8.157   2.265   9.144  0.3258  0.6313 -0.3610
12291SOL    HW154483   8.163   2.322   9.067 -0.7926  2.3922  0.7893
12291SOL    HW254484   8.065   2.267   9.169  0.5292 -0.5255  0.5895
12292SOL     OW54485   7.765   1.086   8.937  0.5708 -0.2637 -0.1007
12292SOL    HW154486   7.690   1.040   8.974  0.0508  0.5014 -0.1800
12292SOL    HW254487   7.829   1.088   9.008  1.1515 -2.2555 -0.4905
12293SOL     OW54488   7.671   9.686   2.065  0.1068  0.3602 -0.1753
12293SOL    HW154489   7.606   9.659   2.000  0.6006  0.1294 -0.5800
12293SOL    HW254490   7.749   9.706   2.014 -0.2463  2.7365  0.0615
12294SOL     OW54491  13.563  12.097   5.272 -0.2859 -0.0525 -0.0281
12294SOL    HW154492  13.587  12.057   5.355 -0.9017 -1.4618 -0.5040
12294SOL    HW254493  13.479  12.140   5.290 -0.0308  0.3347  0.2676
12295SOL     OW54494   4.510   8.711  11.791 -0.2747 -0.5271  0.1461
12295SOL    HW154495   4.456   8.743  11.863  0.3635 -0.8749  0.7818
12295SOL    HW254496   4.595   8.693  11.830 -0.4282 -2.4711 -0.2782
12296SOL     OW54497  13.565   0.320   9.329 -0.3547  0.1215  0.0314
12296SOL    HW154498  13.499   0.289   9.391  0.5867 -0.7851  0.6163
12296SOL    HW254499  13.643   0.335   9.383  0.3403 -0.2105 -0.8603
12297SOL     OW54500   1.459   4.070  11.739  0.7471 -0.2547 -0.0320
12297SOL    HW154501   1.547   4.039  11.718  0.3322 -1.8791  0.4786
12297SOL    HW254502   1.404   4.039  11.667  0.2231 -1.2868  0.7776
12298SOL     OW54503   8.933  10.375  10.858 -0.4158 -0.1360  0.4327
12298SOL    HW154504   9.025  10.360  10.837 -0.5175  0.1494 -0.2697
12298SOL    HW254505   8.927  10.469  10.875 -0.5620 -0.1637  0.5380
12299SOL     OW54506   9.477   7.498  13.638  0.0840  0.6411 -0.2943
12299SOL    HW154507   9.399   7.488  13.692  0.5358  1.4811  0.5407
12299SOL    HW254508   9.454   7.457  13.555 -1.7733  2.0866 -0.5717
12300SOL     OW54509   3.539   8.399   1.738 -0.0869  0.2944 -0.2088
12300SOL    HW154510   3.453   8.388   1.779 -1.0865  1.1951 -1.9818
12300SOL    HW254511   3.574   8.479   1.777  0.6084 -0.7844  1.5252
12301SOL     OW54512   2.039   7.096  13.897  0.0604 -0.1686 -0.5283
12301SOL    HW154513   2.079   7.041  13.830 -0.2430 -0.0232 -0.8329
12301SOL    HW254514   2.032   7.182  13.856  0.5173  0.0988 -0.0652
12302SOL     OW54515   8.653   4.145  12.906  0.2946 -0.2757  1.0479
12302SOL    HW154516   8.663   4.239  12.889 -0.2977 -0.6561 -1.9022
12302SOL    HW254517   8.717   4.126  12.975  1.4705  2.0185  0.6773
12303SOL     OW54518   1.747   1.442   2.015 -0.2023 -0.3358  0.2460
12303SOL    HW154519   1.744   1.527   1.973  2.4860 -0.3940 -0.2098
12303SOL    HW254520   1.660   1.405   2.001 -1.2425  2.0579 -0.0425
12304SOL     OW54521   6.665   0.129   8.590 -0.5188  0.5642  0.3932
12304SOL    HW154522   6.753   0.100   8.567 -0.4143  1.6580 -0.6558
12304SOL    HW254523   6.667   0.137   8.685  0.7201  1.2302  0.3266
12305SOL     OW54524   5.568   7.181   5.598 -0.8587 -0.5312 -0.1720
12305SOL    HW154525   5.610   7.186   5.684 -1.5320 -1.4415  0.2436
12305SOL    HW254526   5.483   7.224   5.611 -0.8040 -0.3362 -0.4776
12306SOL     OW54527   3.369   2.474   7.187  0.2358 -0.4141  0.4943
12306SOL    HW154528   3.429   2.411   7.228  0.1431 -0.4565  0.5644
12306SOL    HW254529   3.283   2.432   7.193  0.3877 -0.9953 -0.8525
12307SOL     OW54530   4.125   0.984   7.842 -1.1534 -0.2618  0.6016
12307SOL    HW154531   4.094   0.977   7.752  0.6483  0.3386 -0.0990
12307SOL    HW254532   4.054   1.030   7.888 -1.7784  0.0688 -0.6630
12308SOL     OW54533   4.724   2.580   4.639  0.2471  0.3408  0.9344
12308SOL    HW154534   4.720   2.507   4.700  0.5766  1.0613  1.8376
12308SOL    HW254535   4.779   2.645   4.683  0.1072  1.0608  0.0697
12309SOL     OW54536   8.091   4.285  11.891 -0.0797 -0.4121  0.3302
12309SOL    HW154537   8.140   4.235  11.826 -2.7525 -2.2984 -0.4330
12309SOL    HW254538   8.062   4.363  11.845  2.3384  0.9198  0.9011
12310SOL     OW54539   0.279   2.981   6.799  0.4230 -0.2414 -0.4174
12310SOL    HW154540   0.306   3.072   6.807  0.3681 -0.2250 -0.4140
12310SOL    HW254541   0.308   2.955   6.712  2.5074 -0.9233  0.4140
12311SOL     OW54542   1.812  12.603  12.227 -0.2424  0.0322  0.5458
12311SOL    HW154543   1.812  12.641  12.315 -0.1428 -0.5010  0.7819
12311SOL    HW254544   1.853  12.669  12.171 -0.3446  0.3899  0.8940
12312SOL     OW54545   4.675   8.286   6.801 -1.1393 -0.1002  0.0220
12312SOL    HW154546   4.753   8.241   6.832  0.2452  2.4818  0.6025
12312SOL    HW254547   4.606   8.263   6.863 -0.3122 -0.8313  0.6774
12313SOL     OW54548   1.066   1.571   0.148  0.3887  0.6098 -0.4012
12313SOL    HW154549   1.012   1.643   0.181 -0.9536 -0.7736  0.5923
12313SOL    HW254550   1.032   1.493   0.193  2.1316 -0.5790 -1.0233
12314SOL     OW54551   4.018  12.187   7.308 -0.0567 -0.3678 -0.9495
12314SOL    HW154552   4.070  12.108   7.321  0.9646  0.1358 -1.8002
12314SOL    HW254553   4.012  12.196   7.213 -1.2193 -0.0967 -0.8584
12315SOL     OW54554   2.009  13.337   7.030  0.1797  0.2042  0.2841
12315SOL    HW154555   1.920  13.357   7.057  0.2278  1.7452 -0.5914
12315SOL    HW254556   2.000  13.302   6.941  0.3868 -0.4399  0.5101
12316SOL     OW54557   0.417  13.474   2.432 -0.2215  0.4391  0.0506
12316SOL    HW154558   0.365  13.434   2.502 -0.9171  1.3726  0.0955
12316SOL    HW254559   0.390  13.430   2.352 -0.6678  0.5191  0.1551
12317SOL     OW54560   1.415   5.131   4.426 -0.5868  0.1269 -0.0367
12317SOL    HW154561   1.445   5.222   4.429  1.1038 -0.4020  2.0218
12317SOL    HW254562   1.390   5.111   4.516  1.0542 -1.9984  0.0373
12318SOL     OW54563   8.082   6.352   9.886  0.6162  0.0554 -0.6450
12318SOL    HW154564   8.144   6.285   9.916  1.0928  0.5278 -0.5697
12318SOL    HW254565   8.126   6.395   9.813  0.9330  1.2590  0.2250
12319SOL     OW54566   4.727   5.638  11.978  0.5196 -0.1164  1.0113
12319SOL    HW154567   4.691   5.726  11.988  1.4805  0.2446  1.3706
12319SOL    HW254568   4.662   5.591  11.925 -0.5699  0.4482  1.8152
12320SOL     OW54569  10.820   9.867   8.893 -0.4757 -0.0727 -0.7180
12320SOL    HW154570  10.792   9.811   8.965  0.7837  0.4393  0.2210
12320SOL    HW254571  10.863   9.808   8.832  0.7211 -0.1905  0.1970
12321SOL     OW54572   2.122   9.533   4.488  0.0014 -0.2788 -0.3433
12321SOL    HW154573   2.151   9.504   4.574  0.6131  1.1185 -0.0372
12321SOL    HW254574   2.083   9.456   4.447 -0.2655 -0.9719  1.1666
12322SOL     OW54575   0.872   4.927   3.935  0.6826  0.1759 -0.2292
12322SOL    HW154576   0.892   4.835   3.922  1.1917  0.3031 -0.3602
12322SOL    HW254577   0.806   4.947   3.868  1.7053  0.2861 -1.2200
12323SOL     OW54578   7.398   4.261   4.560  0.3598  0.2705 -0.7381
12323SOL    HW154579   7.331   4.298   4.617  0.2063  0.3930 -0.9914
12323SOL    HW254580   7.357   4.261   4.473  0.3401 -0.5552 -0.7313
12324SOL     OW54581   4.922   4.893  13.400 -0.0913  0.4915 -0.5303
12324SOL    HW154582   4.830   4.913  13.418  0.0202  0.4933  0.0830
12324SOL    HW254583   4.951   4.963  13.342 -0.4312  0.5913 -0.5813
12325SOL     OW54584  13.464   8.996  12.887  0.6126 -0.5485 -0.3988
12325SOL    HW154585  13.542   8.941  12.879  3.1112  2.6712  0.0063
12325SOL    HW254586  13.468   9.055  12.812 -1.5857 -0.3446 -0.4373
12326SOL     OW54587   5.350  12.042   1.744 -0.4656  0.1429  0.3851
12326SOL    HW154588   5.427  11.986   1.759  0.3952  1.1853 -0.0416
12326SOL    HW254589   5.387  12.127   1.722 -1.7392  0.3057 -1.2212
12327SOL     OW54590   0.059   4.362   9.488  0.5252  0.3422 -0.0992
12327SOL    HW154591  -0.007   4.387   9.424 -1.6364 -0.0685  1.8303
12327SOL    HW254592   0.061   4.436   9.550 -0.3589 -0.8587  1.4599
12328SOL     OW54593   7.402   5.504   1.741  0.5524 -0.5113  0.6844
12328SOL    HW154594   7.461   5.570   1.705  1.9444 -1.5918  0.9032
12328SOL    HW254595   7.315   5.544   1.735  1.2717  1.0683  0.2209
12329SOL     OW54596  11.993   6.482  12.675 -0.1837 -0.1395  0.0791
12329SOL    HW154597  11.927   6.453  12.738 -0.4653  1.2159  0.4537
12329SOL    HW254598  12.016   6.403  12.626 -0.4964 -1.0846  1.3812
12330SOL     OW54599   6.438  10.297   5.306 -0.0793  0.3537 -0.0709
12330SOL    HW154600   6.373  10.341   5.252  0.3060  0.5721 -0.3588
12330SOL    HW254601   6.418  10.204   5.298 -1.3950  0.4869  1.1634
12331SOL     OW54602  12.099   9.988   9.945  0.1281 -0.2970 -0.0773
12331SOL    HW154603  12.057   9.927   9.884 -0.5488 -1.1740  1.2209
12331SOL    HW254604  12.176   9.941   9.976 -0.3153 -0.4553  0.8167
12332SOL     OW54605   4.880  13.348   8.479 -0.5861 -0.3302  0.0449
12332SOL    HW154606   4.799  13.363   8.529 -0.2588 -0.0704  0.5047
12332SOL    HW254607   4.916  13.435   8.465  0.2320 -0.5126  0.8843
12333SOL     OW54608   1.817   3.751  11.461  0.4920 -0.3136  0.3550
12333SOL    HW154609   1.861   3.693  11.399  1.2723 -0.3699  0.9570
12333SOL    HW254610   1.749   3.794  11.408  0.8354 -0.7097 -0.4305
12334SOL     OW54611   6.097  10.576   5.834  0.3539  0.1983 -0.0552
12334SOL    HW154612   6.188  10.583   5.862 -0.0155  0.5886  1.1332
12334SOL    HW254613   6.046  10.600   5.912 -0.7323  3.2438 -1.5186
12335SOL     OW54614   7.006   7.312   3.640  0.4353 -0.3597  0.5607
12335SOL    HW154615   6.989   7.393   3.592 -1.3126 -1.3120 -0.4943
12335SOL    HW254616   7.051   7.256   3.577 -0.2667 -0.9776  0.6078
12336SOL     OW54617  13.375   3.795   0.348  0.2190  0.4663  0.2680
12336SOL    HW154618  13.460   3.837   0.360  0.5001 -0.3827  1.3865
12336SOL    HW254619  13.396   3.704   0.325 -0.3752  0.7885 -1.7771
12337SOL     OW54620  13.080  13.245   7.419  0.1324  0.0821  0.2224
12337SOL    HW154621  13.041  13.184   7.357 -0.2233 -0.2513  0.7635
12337SOL    HW254622  13.050  13.331   7.392  0.7688  0.0421 -0.6456
12338SOL     OW54623   0.468   1.641   5.180  0.0192  0.2276 -0.1507
12338SOL    HW154624   0.377   1.645   5.208  0.6038 -0.4029  2.0164
12338SOL    HW254625   0.518   1.627   5.261  1.8202 -2.2313 -1.5226
12339SOL     OW54626  10.631  13.397   6.957 -0.7543  0.3664 -0.0784
12339SOL    HW154627  10.559  13.437   7.005  1.2155  1.8210  1.8637
12339SOL    HW254628  10.708  13.410   7.013  1.1289 -0.6972 -2.2353
12340SOL     OW54629   9.341   2.045  10.335 -0.2163  0.6383  0.5904
12340SOL    HW154630   9.339   1.971  10.395 -1.3617  0.7825  0.7491
12340SOL    HW254631   9.301   2.117  10.384  0.7986  1.3555  0.4101
12341SOL     OW54632  10.191   4.073   7.053  0.4580  0.2738  0.4031
12341SOL    HW154633  10.147   4.152   7.084 -0.0662  0.1013  0.0988
12341SOL    HW254634  10.156   4.059   6.965 -0.2800 -0.9204  0.8749
12342SOL     OW54635   4.653  11.672   9.220 -0.2251 -0.5951 -0.0543
12342SOL    HW154636   4.658  11.707   9.131  0.2355 -0.6879 -0.0667
12342SOL    HW254637   4.733  11.622   9.231 -0.5453 -1.0565  0.2171
12343SOL     OW54638   4.660  13.616  12.816 -0.5154 -0.4239 -0.5385
12343SOL    HW154639   4.605  13.643  12.889 -1.4483 -1.8270 -0.6832
12343SOL    HW254640   4.599  13.576  12.753  0.6116 -1.7331 -0.8492
12344SOL     OW54641   7.338  13.102   4.290 -0.5342 -0.1291  0.5146
12344SOL    HW154642   7.311  13.156   4.216  2.2357 -0.8334 -1.1381
12344SOL    HW254643   7.270  13.117   4.357 -1.5101  2.9058 -0.9826
12345SOL     OW54644   8.067   6.132  12.241  0.0804  0.4906  0.5407
12345SOL    HW154645   8.020   6.095  12.316  3.3239 -1.2852  1.9245
12345SOL    HW254646   8.159   6.118  12.262  1.1975  0.9991 -3.2949
12346SOL     OW54647   2.497   1.214   3.254  0.2851  0.3305  0.4294
12346SOL    HW154648   2.408   1.200   3.221  0.6251  0.9477 -0.8000
12346SOL    HW254649   2.543   1.258   3.182  1.8949 -0.9064  0.6383
12347SOL     OW54650   0.354   5.630   5.160  0.0257  0.1340 -0.0950
12347SOL    HW154651   0.373   5.684   5.084 -1.3354  0.3997 -0.2775
12347SOL    HW254652   0.430   5.641   5.217  0.7118  0.5479 -1.0669
12348SOL     OW54653   5.004  12.994  11.789 -0.0612 -0.0699  0.1049
12348SOL    HW154654   5.036  12.905  11.804  0.1370 -0.5010 -2.4168
12348SOL    HW254655   5.014  13.037  11.874  2.2771 -1.6928  0.7690
12349SOL     OW54656   7.678  12.248   2.341 -0.2159  0.3177  0.4476
12349SOL    HW154657   7.602  12.259   2.398 -0.3014  1.2005  0.1672
12349SOL    HW254658   7.747  12.300   2.382 -0.3393  1.1347 -0.3569
12350SOL     OW54659   9.379   9.637   0.107  0.8765  0.2738  0.6349
12350SOL    HW154660   9.320   9.710   0.123  1.0507  0.0657  2.3691
12350SOL    HW254661   9.441   9.639   0.179  1.1770 -1.3053  0.4697
12351SOL     OW54662   9.516   1.177   9.083  0.0979 -0.0071  0.4034
12351SOL    HW154663   9.600   1.223   9.077 -0.5167  1.0034 -1.4515
12351SOL    HW254664   9.461   1.220   9.017 -1.6650 -1.0942  1.0949
12352SOL     OW54665   0.609  12.324   0.188 -0.2928  0.4166 -0.2666
12352SOL    HW154666   0.528  12.358   0.225  0.1782  0.6216  0.6232
12352SOL    HW254667   0.588  12.235   0.160 -0.7145  0.3055  0.3809
12353SOL     OW54668   1.397   3.681  12.877 -0.8547  0.0403  0.0274
12353SOL    HW154669   1.381   3.609  12.938 -2.3343  0.0219 -0.3226
12353SOL    HW254670   1.372   3.645  12.792 -0.4342  0.5861 -0.3303
12354SOL     OW54671   7.175  13.178   8.237  0.2755  0.2146  0.4488
12354SOL    HW154672   7.081  13.160   8.232  0.2961  0.3299 -1.9597
12354SOL    HW254673   7.193  13.230   8.158  2.8206 -2.2166 -0.7523
12355SOL     OW54674   5.405   2.291  10.277 -0.5755  0.4757  0.3719
12355SOL    HW154675   5.336   2.353  10.298 -1.1033 -0.4652  1.5648
12355SOL    HW254676   5.379   2.254  10.192 -1.5746  0.1289  0.8067
12356SOL     OW54677   8.961   9.685   2.802  0.2090  0.3761  0.9332
12356SOL    HW154678   9.021   9.697   2.729  2.5750  1.2793  2.8838
12356SOL    HW254679   8.930   9.773   2.822 -3.6521 -0.2445 -1.3464
12357SOL     OW54680   5.496   1.615  10.702  0.0172  0.2540  0.1345
12357SOL    HW154681   5.435   1.620  10.776 -1.1498  0.0182 -0.7680
12357SOL    HW254682   5.553   1.691  10.712 -0.7615  0.7730  0.7346
12358SOL     OW54683   0.722  11.664   4.171  0.1768  0.1390  0.4017
12358SOL    HW154684   0.669  11.684   4.094 -1.3320  1.1137  1.6278
12358SOL    HW254685   0.658  11.641   4.238  1.4026  0.0405  1.5645
12359SOL     OW54686   0.340   3.329   1.362  0.1102 -0.3106  0.6177
12359SOL    HW154687   0.282   3.368   1.296 -1.3815 -2.2108  0.7010
12359SOL    HW254688   0.404   3.279   1.312  2.9858  3.1542  0.4290
12360SOL     OW54689   9.596   4.328   7.039 -0.3752 -0.6773 -0.3178
12360SOL    HW154690   9.526   4.269   7.068  0.9215 -1.8113  0.6780
12360SOL    HW254691   9.595   4.399   7.103  0.2449 -1.3993  0.5161
12361SOL     OW54692   4.827   2.594   4.145 -0.0739 -0.0591 -0.0367
12361SOL    HW154693   4.905   2.597   4.201  0.0481  1.0318 -0.2545
12361SOL    HW254694   4.762   2.546   4.198  0.3266  0.1539  0.6659
12362SOL     OW54695   0.179   1.962   8.916 -0.1737  0.4791 -0.1540
12362SOL    HW154696   0.181   1.992   8.825 -1.1630  1.8047  0.2344
12362SOL    HW254697   0.155   2.039   8.967 -0.2794 -0.3903  1.1803
12363SOL     OW54698   0.737   7.270   8.283 -0.2104 -0.1674  0.3108
12363SOL    HW154699   0.759   7.330   8.212  0.2216 -0.8989 -0.1821
12363SOL    HW254700   0.762   7.317   8.363 -1.5589  1.0443  0.0597
12364SOL     OW54701   5.318  12.400   4.842 -0.3563 -0.0703  0.6147
12364SOL    HW154702   5.371  12.372   4.916  0.7778  1.6007  0.4780
12364SOL    HW254703   5.246  12.450   4.882 -0.0301  0.3917  0.6338
12365SOL     OW54704  13.974   8.236   1.735 -0.1941  0.4844 -0.1416
12365SOL    HW154705  13.881   8.260   1.736 -0.0556  1.1749  2.2541
12365SOL    HW254706  14.019   8.318   1.715 -0.0930  0.0269 -1.8851
12366SOL     OW54707  11.033   3.499   7.758  0.4826 -0.1959  0.0984
12366SOL    HW154708  11.039   3.422   7.815 -0.5743  1.7684  3.1181
12366SOL    HW254709  11.121   3.535   7.756  0.7223 -0.7894 -0.3444
12367SOL     OW54710   8.432   3.296   5.182 -0.6773 -0.4133 -0.1449
12367SOL    HW154711   8.488   3.321   5.108 -0.3000  0.6045  0.4632
12367SOL    HW254712   8.420   3.202   5.171  0.5865 -0.5445 -0.6936
12368SOL     OW54713  11.488   5.582   8.314  0.4420 -0.2372 -0.3032
12368SOL    HW154714  11.486   5.650   8.247  2.6386 -0.7259 -0.9576
12368SOL    HW254715  11.413   5.526   8.295 -1.1847  1.6994  0.0011
12369SOL     OW54716  12.406   0.164  11.988 -0.2444  0.1519 -0.4209
12369SOL    HW154717  12.322   0.209  11.977 -1.8853 -2.4583  0.6760
12369SOL    HW254718  12.432   0.185  12.078 -0.6892 -0.5321 -0.1255
12370SOL     OW54719   3.398   8.084   1.675 -0.7410 -0.0575 -0.0787
12370SOL    HW154720   3.373   8.158   1.620 -0.6789  0.4234  0.5171
12370SOL    HW254721   3.386   8.007   1.620  1.5387  0.5493 -1.5721
12371SOL     OW54722   1.290  12.946   7.013  0.1013  0.2905  0.3273
12371SOL    HW154723   1.212  12.926   7.064 -0.4393  0.6940 -0.3246
12371SOL    HW254724   1.260  12.948   6.922  0.6714  1.3911  0.1489
12372SOL     OW54725  14.015   6.615   0.922 -0.1263 -0.0859  0.3522
12372SOL    HW154726  14.032   6.642   0.832  0.4326  0.5292  0.6360
12372SOL    HW254727  14.017   6.519   0.918 -0.0938 -0.0656 -0.2860
12373SOL     OW54728   2.552   2.857  10.981 -0.4078  0.0972 -0.2954
12373SOL    HW154729   2.489   2.864  10.909  0.2994 -0.1876 -0.9607
12373SOL    HW254730   2.498   2.860  11.060 -0.9947  3.4775 -0.6697
12374SOL     OW54731  10.136   1.225   2.273  0.3834 -0.1050  0.0158
12374SOL    HW154732  10.093   1.156   2.223 -0.8331  0.9091 -0.3895
12374SOL    HW254733  10.123   1.199   2.365 -1.6409  0.4417 -0.0697
12375SOL     OW54734   1.660  13.076  11.448  0.2733 -0.1453  0.1774
12375SOL    HW154735   1.610  13.113  11.521 -0.8701  0.9686 -1.0987
12375SOL    HW254736   1.746  13.116  11.456 -0.1908  0.8707  0.2828
12376SOL     OW54737   8.995   1.613   2.309 -0.0830  0.8062  0.3082
12376SOL    HW154738   8.934   1.592   2.379  0.0672 -0.1885  0.1532
12376SOL    HW254739   8.945   1.670   2.250 -1.6823 -1.7605 -1.0031
12377SOL     OW54740   6.287  11.755   5.600 -0.7268 -0.4966  0.1604
12377SOL    HW154741   6.335  11.712   5.529 -0.0138  0.8708 -0.2273
12377SOL    HW254742   6.356  11.797   5.652 -1.2692 -1.1509  1.4630
12378SOL     OW54743   9.597   0.100  13.249 -0.2044 -0.1083 -0.0863
12378SOL    HW154744   9.596   0.132  13.159 -1.3909 -1.3085 -0.5507
12378SOL    HW254745   9.660   0.028  13.248  2.0477  1.7567  0.8165
12379SOL     OW54746   4.854   6.123   5.664 -0.1829 -0.5129 -0.0441
12379SOL    HW154747   4.829   6.102   5.574 -0.6771  0.0937 -0.0520
12379SOL    HW254748   4.863   6.218   5.665 -2.4361 -0.2573  1.0962
12380SOL     OW54749  11.035  11.883  11.113  0.1309 -0.5552 -0.1906
12380SOL    HW154750  11.034  11.815  11.180  2.1678  0.3378  0.8024
12380SOL    HW254751  11.036  11.965  11.162  0.0304  0.1581 -1.3550
12381SOL     OW54752   7.634  11.712  10.799  0.0638  0.0364 -0.1930
12381SOL    HW154753   7.694  11.699  10.873 -0.4673 -1.0990  0.0686
12381SOL    HW254754   7.690  11.711  10.722  0.5274  0.3280  0.1357
12382SOL     OW54755   6.102  12.764   4.580  0.1582 -0.6579  0.5468
12382SOL    HW154756   6.076  12.816   4.656  1.0065 -0.5435  0.7683
12382SOL    HW254757   6.142  12.685   4.618  0.5173 -0.6327  0.2209
12383SOL     OW54758   4.707  10.909  13.439 -0.3654 -0.1215 -0.3958
12383SOL    HW154759   4.730  10.985  13.387 -1.0229  0.0838 -0.4035
12383SOL    HW254760   4.621  10.882  13.406  0.7906 -2.2526 -1.9364
12384SOL     OW54761   3.008  11.661   2.665 -0.1638 -0.2218  0.4283
12384SOL    HW154762   3.058  11.592   2.708  1.3377  0.4057 -0.2561
12384SOL    HW254763   3.012  11.735   2.727 -0.6359 -0.3038  0.5635
12385SOL     OW54764   1.114   7.798   2.539  0.3386  0.1308 -0.2137
12385SOL    HW154765   1.066   7.733   2.589 -0.1580 -0.3361 -1.2536
12385SOL    HW254766   1.195   7.754   2.514 -0.1820 -0.2710 -1.2771
12386SOL     OW54767  12.317  11.031   4.592 -0.4166 -0.0834 -0.3855
12386SOL    HW154768  12.394  11.002   4.542  0.2272 -2.3169  1.7288
12386SOL    HW254769  12.330  10.995   4.679 -1.9002  2.9677  1.2628
12387SOL     OW54770   4.730   6.347   7.091 -0.0874  0.2560  0.1584
12387SOL    HW154771   4.772   6.349   7.006 -1.7619 -1.9909 -0.8534
12387SOL    HW254772   4.640   6.374   7.074 -0.8115 -1.4934  0.8760
12388SOL     OW54773  11.815  13.462   2.570  0.1335  0.1857  0.3068
12388SOL    HW154774  11.889  13.432   2.517  0.5421 -0.9430  1.4665
12388SOL    HW254775  11.827  13.418   2.655 -2.3802 -0.7737  0.2343
12389SOL     OW54776   7.114   0.705   5.039 -0.2445 -0.0865 -0.0144
12389SOL    HW154777   7.132   0.623   5.086 -1.8702 -0.4395  0.0525
12389SOL    HW254778   7.197   0.727   4.998  0.6431 -0.9437  1.2316
12390SOL     OW54779   4.690   2.434   8.078  0.1655  0.3779  0.1123
12390SOL    HW154780   4.714   2.490   8.004 -1.3340 -0.0040 -0.6914
12390SOL    HW254781   4.729   2.477   8.154 -0.2344  2.0557 -0.5934
12391SOL     OW54782   6.543  12.803   1.969 -0.3758  0.3714  0.0892
12391SOL    HW154783   6.600  12.852   1.910  0.7667  1.8806  2.3001
12391SOL    HW254784   6.472  12.863   1.989  0.3639  0.7337  1.8286
12392SOL     OW54785   2.010   1.906  11.821  0.4289 -0.3321 -0.2740
12392SOL    HW154786   1.945   1.838  11.801  1.2157 -0.5034 -2.5520
12392SOL    HW254787   2.062   1.913  11.741  0.9002  2.4012  0.1898
12393SOL     OW54788   3.262  13.629   1.202  0.1657  0.3694 -0.0567
12393SOL    HW154789   3.168  13.639   1.220  0.3643  1.4046  0.4784
12393SOL    HW254790   3.276  13.535   1.202 -1.0772  0.1535 -1.2207
12394SOL     OW54791   5.821   3.388   2.100  0.1262 -0.2802  0.1113
12394SOL    HW154792   5.915   3.396   2.083 -0.0214  2.3674  0.2239
12394SOL    HW254793   5.815   3.382   2.196  0.0988  3.5382  0.4923
12395SOL     OW54794   0.184   2.892   6.322 -0.2639 -0.0279 -0.2200
12395SOL    HW154795   0.240   2.817   6.341 -1.0487 -0.5984 -0.0743
12395SOL    HW254796   0.137   2.868   6.242 -0.1545  0.5257 -0.4569
12396SOL     OW54797   1.596  12.468  10.686  0.0449 -0.7472 -0.8795
12396SOL    HW154798   1.677  12.474  10.635  1.2462  1.0381  1.0689
12396SOL    HW254799   1.528  12.503  10.628  1.3089  0.9975 -1.3865
12397SOL     OW54800   1.461   3.156   3.277  0.3480  0.2225 -0.0382
12397SOL    HW154801   1.520   3.120   3.211 -0.4126  1.1406 -1.2671
12397SOL    HW254802   1.451   3.085   3.341  1.8060 -0.3768 -0.4137
12398SOL     OW54803   2.499  13.369   6.412 -0.8798 -0.0502  0.7090
12398SOL    HW154804   2.505  13.455   6.370  0.4349 -0.9517 -1.0674
12398SOL    HW254805   2.416  13.333   6.382 -0.3805 -0.3022 -0.4379
12399SOL     OW54806   7.949   7.035   0.473 -0.3142  0.7089  0.0716
12399SOL    HW154807   7.926   6.974   0.403  1.2393  0.4545 -0.2625
12399SOL    HW254808   8.041   7.058   0.455 -0.0026  0.9285  1.8048
12400SOL     OW54809  10.757   5.365   3.544 -0.0107  0.2343 -0.4382
12400SOL    HW154810  10.711   5.313   3.609  1.9783 -3.3317 -1.6222
12400SOL    HW254811  10.837   5.393   3.587 -0.3275  0.9854 -0.3144
12401SOL     OW54812   2.806   4.827   1.443 -0.1784  0.2771  0.1869
12401SOL    HW154813   2.760   4.876   1.375 -0.8750  2.6665  2.2281
12401SOL    HW254814   2.886   4.796   1.400 -0.7356  1.4136 -1.7961
12402SOL     OW54815  13.009   5.658  11.321 -0.0757 -0.0713  0.4959
12402SOL    HW154816  12.945   5.681  11.388  0.4694 -0.2203  1.0860
12402SOL    HW254817  13.082   5.619  11.371  0.9048  1.0236 -0.0331
12403SOL     OW54818   1.556   2.473   7.785 -0.5935 -0.4068  0.5482
12403SOL    HW154819   1.510   2.391   7.764  2.2363 -1.9220 -0.2290
12403SOL    HW254820   1.558   2.521   7.702  0.2244 -0.9057  0.2666
12404SOL     OW54821   6.237   2.874   7.526  0.2996  0.5471  0.3684
12404SOL    HW154822   6.288   2.896   7.604 -0.6491  0.0335  1.1515
12404SOL    HW254823   6.173   2.810   7.556  0.3235 -0.1553 -0.9740
12405SOL     OW54824   1.395   3.480   5.913  0.5506  0.4632  0.2313
12405SOL    HW154825   1.353   3.546   5.857  1.8641  0.6505 -0.5804
12405SOL    HW254826   1.489   3.492   5.898  0.9010 -0.2217  1.6627
12406SOL     OW54827   6.552  13.401   6.464 -0.1570  0.4320  0.2562
12406SOL    HW154828   6.536  13.493   6.444 -2.0166 -0.0178 -0.4981
12406SOL    HW254829   6.604  13.368   6.390 -0.1460  0.6921  0.1499
12407SOL     OW54830   0.055   4.493   6.642  0.2220  0.0373  0.2666
12407SOL    HW154831   0.129   4.553   6.653  2.6686 -2.7790  0.4337
12407SOL    HW254832   0.085   4.430   6.577 -2.2285 -1.0618  0.0907
12408SOL     OW54833   9.103   2.680   8.939  0.5576 -0.4088 -0.1677
12408SOL    HW154834   9.119   2.596   8.982 -1.2107 -0.4019  0.5864
12408SOL    HW254835   9.123   2.664   8.847  3.1337 -0.7907  0.4040
12409SOL     OW54836   1.879   6.927   7.794  0.1470  0.0372 -0.7953
12409SOL    HW154837   1.874   6.841   7.754 -0.4566 -0.0573 -0.5327
12409SOL    HW254838   1.950   6.920   7.858 -0.3229 -0.4666 -0.3137
12410SOL     OW54839  10.394   9.729   3.536 -0.6978  0.1361  0.5326
12410SOL    HW154840  10.389   9.692   3.625  1.3759 -1.3185  0.1344
12410SOL    HW254841  10.470   9.787   3.540  1.1015 -1.9337 -0.8411
12411SOL     OW54842   4.257   2.381   4.933  0.5592  0.0269 -0.0715
12411SOL    HW154843   4.178   2.410   4.979 -0.1464  0.3238 -1.4105
12411SOL    HW254844   4.323   2.446   4.955 -0.1373  0.9195 -0.5304
12412SOL     OW54845  11.035   2.691   2.066  0.1746 -0.5031  0.1572
12412SOL    HW154846  10.953   2.649   2.093  0.3639 -0.7549  0.3396
12412SOL    HW254847  11.064   2.639   1.991  1.7313 -2.3137  1.9074
12413SOL     OW54848  12.919   9.380  10.233  0.0277  0.5787  0.2540
12413SOL    HW154849  12.890   9.290  10.223 -0.8066  0.6823  1.3996
12413SOL    HW254850  12.855   9.432  10.184  0.1281  0.5913  0.1358
12414SOL     OW54851  13.421   2.389   9.841 -0.1652 -0.0483  0.0590
12414SOL    HW154852  13.466   2.305   9.836 -0.5346 -0.1938 -1.0811
12414SOL    HW254853  13.418   2.409   9.935  0.9962 -0.7133  0.2610
12415SOL     OW54854   4.594   4.850  11.745 -0.3499  0.2356  0.1893
12415SOL    HW154855   4.530   4.792  11.703 -0.2901  0.5434 -0.3255
12415SOL    HW254856   4.544   4.926  11.772  0.1135  1.3687 -1.9501
12416SOL     OW54857   9.475   7.693   2.890  0.1286  0.0031 -0.2488
12416SOL    HW154858   9.557   7.729   2.923 -1.0053  0.9827  1.7107
12416SOL    HW254859   9.466   7.729   2.802  1.3098  0.6535 -0.1215
12417SOL     OW54860  13.064   3.226   3.853  0.2064  0.4024  0.1139
12417SOL    HW154861  13.067   3.145   3.904 -0.5806  0.6264  0.5281
12417SOL    HW254862  13.117   3.288   3.903 -1.4872  0.9619  1.3039
12418SOL     OW54863   4.433   5.829   0.603  0.3649  0.7132 -0.3476
12418SOL    HW154864   4.483   5.899   0.562  0.7845  0.1774 -0.7642
12418SOL    HW254865   4.486   5.803   0.679  0.0974  0.9965 -0.0594
12419SOL     OW54866  12.828   8.594   1.404  0.3784 -0.2131 -0.6808
12419SOL    HW154867  12.736   8.609   1.384 -0.2968 -1.0823  1.4985
12419SOL    HW254868  12.834   8.500   1.423  1.8847 -0.3109 -1.4449
12420SOL     OW54869  11.807   3.844   1.299  0.5627  0.2004 -0.1481
12420SOL    HW154870  11.745   3.796   1.354  0.8985  0.8876  0.8789
12420SOL    HW254871  11.759   3.923   1.272  0.0431 -0.6207 -1.7487
12421SOL     OW54872   0.308   6.985   5.468 -0.3880 -0.2532  0.5926
12421SOL    HW154873   0.311   7.049   5.539 -0.0584 -1.0046  1.2643
12421SOL    HW254874   0.275   6.905   5.508  0.3645 -0.8572  0.0514
12422SOL     OW54875   8.477   7.416   1.883  0.4613  0.3901  0.3970
12422SOL    HW154876   8.545   7.387   1.823  0.5645 -0.2982  0.8431
12422SOL    HW254877   8.520   7.479   1.941  0.5486  0.4630  0.2534
12423SOL     OW54878   7.812   9.534   3.053 -0.6821  0.1173 -0.0701
12423SOL    HW154879   7.758   9.498   3.123 -0.8791 -1.4975 -0.9943
12423SOL    HW254880   7.780   9.624   3.042 -1.1204  0.1645  1.4091
12424SOL     OW54881   4.431   3.483   0.844 -0.1922  0.4649 -0.1664
12424SOL    HW154882   4.404   3.511   0.757 -1.2940  0.5212  0.1818
12424SOL    HW254883   4.349   3.468   0.892  0.3558 -1.0579  0.3915
12425SOL     OW54884   4.925   0.536   1.428  0.1173  0.4006  0.3519
12425SOL    HW154885   4.906   0.443   1.419 -2.1576  0.4967  3.0052
12425SOL    HW254886   4.995   0.540   1.493  1.0224  0.5621 -0.5965
12426SOL     OW54887   0.459  10.438   8.455  0.1745  0.3279 -0.4534
12426SOL    HW154888   0.397  10.421   8.525 -0.6578  3.3172 -0.3122
12426SOL    HW254889   0.544  10.443   8.499  0.0793 -0.5584 -0.1426
12427SOL     OW54890   1.593   7.745   1.984  0.5145 -0.0096  0.3668
12427SOL    HW154891   1.667   7.763   1.926  1.1935  0.5680  1.3783
12427SOL    HW254892   1.625   7.676   2.043 -0.1779 -0.6169  0.0547
12428SOL     OW54893   6.496   2.831  11.112 -0.4791 -0.1996  0.4685
12428SOL    HW154894   6.490   2.765  11.043  0.8917  1.6637 -1.6077
12428SOL    HW254895   6.410   2.873  11.113 -0.4438 -0.0987 -0.2869
12429SOL     OW54896   8.963  12.766   8.813  0.0857 -0.3804 -0.2157
12429SOL    HW154897   9.036  12.718   8.851  0.6454  0.0327 -0.7396
12429SOL    HW254898   8.885  12.716   8.836  0.6626 -1.6355 -0.8975
12430SOL     OW54899   9.311   9.722   0.442  0.3560 -0.1225  0.3924
12430SOL    HW154900   9.321   9.729   0.537 -0.4210  1.1708  0.3960
12430SOL    HW254901   9.238   9.661   0.430 -0.1887  0.4599  0.6654
12431SOL     OW54902   8.060  11.491  13.292  0.0121  0.5164  0.0066
12431SOL    HW154903   7.976  11.537  13.284  0.6946  2.1098  1.4458
12431SOL    HW254904   8.036  11.400  13.306 -1.3883  0.2738 -3.1526
12432SOL     OW54905   1.836   6.782   7.073 -0.0893 -0.7303  0.0300
12432SOL    HW154906   1.907   6.736   7.118 -1.3395 -0.3809  2.5641
12432SOL    HW254907   1.756   6.746   7.113 -1.1646  2.2377  0.8017
12433SOL     OW54908   2.470   5.536   2.969 -0.4325  0.3829  0.0003
12433SOL    HW154909   2.420   5.466   3.012 -1.0254  0.5921 -0.3379
12433SOL    HW254910   2.507   5.493   2.891  0.5401  0.0357  0.6419
12434SOL     OW54911   8.825  13.201  11.045 -0.5287  0.4683 -0.0159
12434SOL    HW154912   8.910  13.230  11.078 -0.0626 -1.1901  0.3473
12434SOL    HW254913   8.762  13.228  11.112 -0.2089  1.1254  0.0286
12435SOL     OW54914   2.357   1.446  10.096  0.1456 -0.5905 -0.4793
12435SOL    HW154915   2.424   1.509  10.120  0.9077 -1.4806 -0.2084
12435SOL    HW254916   2.279   1.499  10.079  0.1745  0.2890  1.7304
12436SOL     OW54917   4.645  11.767   1.957  0.2965 -0.2386  0.7821
12436SOL    HW154918   4.710  11.713   2.001 -0.4745 -0.9110  1.1028
12436SOL    HW254919   4.682  11.781   1.870  0.2197 -1.8030  0.4723
12437SOL     OW54920   9.644   4.261  10.623  0.5668  0.1083  0.0177
12437SOL    HW154921   9.740   4.267  10.626  0.4487  4.1987  2.1955
12437SOL    HW254922   9.620   4.234  10.712 -0.3264  1.0126  0.0619
12438SOL     OW54923   0.628  13.367  13.119  0.6043  0.2164  0.0202
12438SOL    HW154924   0.686  13.427  13.166 -0.5282  1.1376  0.2928
12438SOL    HW254925   0.581  13.422  13.057  1.0264 -0.7529 -1.2007
12439SOL     OW54926  11.291   0.931   6.812  0.1529  0.1438  0.1781
12439SOL    HW154927  11.217   0.885   6.852 -0.3918  1.6729  0.9928
12439SOL    HW254928  11.255   1.016   6.786  1.5706  0.8437  0.4351
12440SOL     OW54929   1.005  12.987   4.795 -0.4862  0.2031 -0.6494
12440SOL    HW154930   1.009  13.075   4.834 -2.2135 -0.2315  0.6620
12440SOL    HW254931   0.972  12.931   4.866 -0.1909 -1.3567 -1.6994
12441SOL     OW54932   4.285  11.461   1.520  0.1003  0.1729 -0.3018
12441SOL    HW154933   4.291  11.555   1.502 -0.8870  0.0762 -1.2144
12441SOL    HW254934   4.287  11.420   1.434 -0.0607 -0.6149  0.0624
12442SOL     OW54935   8.443  10.153   6.266  0.0036 -0.7573 -0.0701
12442SOL    HW154936   8.531  10.131   6.236 -0.1754 -0.5257 -0.7881
12442SOL    HW254937   8.455  10.181   6.357  0.8969  0.6784 -0.5905
12443SOL     OW54938  10.062   0.568   6.301 -0.2838 -0.2504 -0.2677
12443SOL    HW154939  10.066   0.549   6.207  0.9732 -0.1994 -0.2453
12443SOL    HW254940  10.028   0.488   6.340  2.8463 -1.8244 -0.4020
12444SOL     OW54941   2.465   7.389   9.447 -0.1096 -0.4984  0.1305
12444SOL    HW154942   2.411   7.311   9.437  0.1082 -0.5304 -0.9800
12444SOL    HW254943   2.553   7.354   9.466  0.5357 -0.6934 -2.7398
12445SOL     OW54944   3.767   9.102   7.912 -0.1652 -0.4153 -0.5315
12445SOL    HW154945   3.758   9.007   7.911  1.0952 -0.5666  0.1420
12445SOL    HW254946   3.685   9.135   7.876 -1.6869 -1.6592  1.6056
12446SOL     OW54947   5.083  12.867   7.117 -0.1743 -0.0232  0.1327
12446SOL    HW154948   5.076  12.904   7.205  0.4384  0.4977 -0.0327
12446SOL    HW254949   4.992  12.860   7.088 -0.4536 -1.3104  1.2457
12447SOL     OW54950   7.247  13.043   6.996  0.1626 -0.2493  0.3533
12447SOL    HW154951   7.214  13.132   6.996 -1.9387 -0.9523 -1.3305
12447SOL    HW254952   7.330  13.048   6.949 -0.3167  0.7053 -0.4112
12448SOL     OW54953   1.734   9.395   4.450 -0.2055 -0.3130 -0.5151
12448SOL    HW154954   1.664   9.395   4.385  0.2507 -0.8262 -1.0063
12448SOL    HW254955   1.688   9.404   4.534 -0.7155  2.1553 -0.9737
12449SOL     OW54956   5.039  12.048   3.017  0.1472 -0.3866 -0.3316
12449SOL    HW154957   4.963  11.992   2.998  0.1202 -0.7531  0.7327
12449SOL    HW254958   5.015  12.092   3.099  0.7634  0.0968 -0.4089
12450SOL     OW54959  11.796  11.895  13.499 -0.0465  0.1528  0.2555
12450SOL    HW154960  11.883  11.872  13.531 -1.1744 -1.2869  2.5719
12450SOL    HW254961  11.792  11.859  13.410  1.8581  0.6874 -0.0749
12451SOL     OW54962  13.093   7.251   4.059  0.0384  0.2131  0.4581
12451SOL    HW154963  13.081   7.320   3.994 -1.3903  0.3170  0.7899
12451SOL    HW254964  13.127   7.177   4.009  2.3932  1.3562  0.2421
12452SOL     OW54965  12.123   7.040  13.597 -0.2926 -0.2311  0.3788
12452SOL    HW154966  12.196   7.072  13.543 -0.6319 -0.5456 -0.2745
12452SOL    HW254967  12.060   7.112  13.597 -0.6586 -0.5375 -0.3467
12453SOL     OW54968   1.624   0.516   0.851 -0.2303  0.6661  0.1614
12453SOL    HW154969   1.692   0.583   0.864  0.5478 -0.1521  0.3986
12453SOL    HW254970   1.664   0.454   0.790 -1.5898  1.2947 -1.4495
12454SOL     OW54971  12.318  12.051   0.650  0.2816  0.4459 -0.2228
12454SOL    HW154972  12.358  12.040   0.736  1.5207 -1.1909 -0.9656
12454SOL    HW254973  12.338  11.970   0.603 -2.2604  0.3541 -1.3327
12455SOL     OW54974  13.989   3.891  13.418  0.7148  0.4965  0.4815
12455SOL    HW154975  13.968   3.800  13.437 -1.8065  1.3690  2.4154
12455SOL    HW254976  14.080   3.901  13.445  1.1231 -1.4395  0.0112
12456SOL     OW54977   9.808   3.522   6.543  0.0359  1.0092  0.2507
12456SOL    HW154978   9.901   3.528   6.568  0.2565  3.1650 -0.8630
12456SOL    HW254979   9.761   3.547   6.623  0.3877  0.0058  0.7941
12457SOL     OW54980   4.732   6.496   1.343 -0.6291 -0.6251 -0.3027
12457SOL    HW154981   4.771   6.409   1.347 -1.4178 -1.1314 -2.5229
12457SOL    HW254982   4.676   6.500   1.421  0.1389 -1.7214  0.3295
12458SOL     OW54983   9.032  13.984   2.573 -0.1275  0.0074  0.0136
12458SOL    HW154984   9.001  13.903   2.615 -0.9539  0.5072  0.3799
12458SOL    HW254985   9.101  13.954   2.513  0.0777 -0.8873  0.6603
12459SOL     OW54986   0.958   4.450  10.667  0.4407 -0.7985  0.3429
12459SOL    HW154987   0.998   4.481  10.586 -2.7614  0.3736 -0.9638
12459SOL    HW254988   0.970   4.522  10.729 -2.9728  1.4063 -1.2960
12460SOL     OW54989   4.172   2.528   0.571 -0.2443  0.2740  0.4719
12460SOL    HW154990   4.110   2.594   0.601  0.3333  1.7651 -1.4459
12460SOL    HW254991   4.179   2.541   0.477  0.3703 -2.1482  0.1010
12461SOL     OW54992   0.134   8.633   1.238  0.0708  0.0158 -0.0644
12461SOL    HW154993   0.123   8.701   1.172  2.2071 -0.0107 -0.5343
12461SOL    HW254994   0.227   8.608   1.231  0.9221  1.2386  4.0564
12462SOL     OW54995  12.403  11.997   7.967  0.3480  0.0402 -0.2900
12462SOL    HW154996  12.443  11.994   8.054  1.1407 -0.1639 -0.6590
12462SOL    HW254997  12.383  11.905   7.947 -1.8541  0.2544  0.5748
12463SOL     OW54998   2.593   8.333   4.298 -0.1078  0.5578  0.0453
12463SOL    HW154999   2.510   8.307   4.339  0.3420  0.3478  0.8339
12463SOL    HW255000   2.655   8.339   4.371  0.8059 -0.2058 -0.6564
12464SOL     OW55001   9.220   9.367  11.209  0.0482 -0.0003  0.7735
12464SOL    HW155002   9.307   9.371  11.170 -0.1841 -0.5861  0.1608
12464SOL    HW255003   9.222   9.431  11.280  0.4927  1.0826 -0.1855
12465SOL     OW55004  12.478   3.813   9.857  0.3168  0.6905  0.1154
12465SOL    HW155005  12.541   3.800   9.928 -0.8935 -1.4088  0.8830
12465SOL    HW255006  12.436   3.728   9.845 -0.6749  1.3957 -2.0439
12466SOL     OW55007   0.208   7.596   1.918  0.2528  0.4489 -0.0048
12466SOL    HW155008   0.215   7.689   1.940  0.7206  0.4566 -0.1661
12466SOL    HW255009   0.116   7.575   1.929  0.1506  0.9286  0.0589
12467SOL     OW55010   7.096   1.658  10.503  0.0943 -0.4083  0.0257
12467SOL    HW155011   7.071   1.660  10.595  0.4436 -2.0463  0.1906
12467SOL    HW255012   7.012   1.660  10.456 -0.3032 -2.8991  0.5007
12468SOL     OW55013  12.138   7.548   9.225  0.7955  0.2211 -0.3873
12468SOL    HW155014  12.191   7.495   9.284  2.7665  1.8596 -0.5474
12468SOL    HW255015  12.143   7.502   9.141  0.1051 -0.7903  0.1118
12469SOL     OW55016   2.704   8.224   5.854  0.3088 -0.4250 -0.5752
12469SOL    HW155017   2.795   8.248   5.872 -0.2641  1.0135  0.5429
12469SOL    HW255018   2.699   8.223   5.758  1.3859 -0.0628 -0.6532
12470SOL     OW55019   2.507  11.400   7.450 -0.2828 -0.1388 -0.8591
12470SOL    HW155020   2.458  11.444   7.380 -0.9126  0.7528  0.1088
12470SOL    HW255021   2.522  11.469   7.515 -0.9643 -1.2685  0.5370
12471SOL     OW55022   9.760   2.182   4.654  0.0999 -0.8404 -0.7749
12471SOL    HW155023   9.781   2.099   4.697  1.2125 -1.0956 -1.7578
12471SOL    HW255024   9.837   2.202   4.601 -1.2099 -0.5743 -2.6973
12472SOL     OW55025   9.559   4.497  10.908 -0.4625  0.2342 -0.0975
12472SOL    HW155026   9.499   4.429  10.941 -0.8876  0.7536  0.2125
12472SOL    HW255027   9.560   4.563  10.977 -0.7826  0.9829 -0.7966
12473SOL     OW55028   5.276  11.941   7.165  0.1750  0.7380 -0.1583
12473SOL    HW155029   5.259  11.851   7.136 -0.2471  0.8433 -0.2329
12473SOL    HW255030   5.252  11.941   7.258 -2.0537  1.3623 -0.6845
12474SOL     OW55031   6.431   1.261  10.775 -0.5663  0.2357  0.1335
12474SOL    HW155032   6.519   1.224  10.769 -0.7518 -0.1522 -0.3221
12474SOL    HW255033   6.428   1.303  10.860  0.2742  0.8140 -0.1174
12475SOL     OW55034  12.100   4.544   5.179 -0.3772 -0.4367  0.0341
12475SOL    HW155035  12.148   4.483   5.123 -0.6582 -0.0763 -0.6095
12475SOL    HW255036  12.137   4.530   5.267  0.4559 -0.6172 -0.3349
12476SOL     OW55037   1.108   1.566   8.801 -0.1674  0.4308 -0.3444
12476SOL    HW155038   1.075   1.582   8.713  1.0087  0.3221 -0.8207
12476SOL    HW255039   1.170   1.637   8.817  1.6397 -1.0319 -0.6732
12477SOL     OW55040  12.793  13.501   9.752 -0.9838 -0.1409  0.1432
12477SOL    HW155041  12.709  13.465   9.726 -0.5792 -0.3711 -0.9059
12477SOL    HW255042  12.849  13.491   9.674  0.0002  0.0286  0.8032
12478SOL     OW55043   3.927   5.035   2.518 -0.5455 -0.2242 -0.0755
12478SOL    HW155044   3.902   5.002   2.604  0.5217 -0.3313  0.2058
12478SOL    HW255045   3.894   4.970   2.457 -1.4223 -0.0847  0.2422
12479SOL     OW55046  12.292   1.623   4.861  0.9057 -0.1977 -0.6246
12479SOL    HW155047  12.350   1.601   4.789  1.7616  1.2997 -0.4339
12479SOL    HW255048  12.298   1.718   4.868 -1.0544 -0.0734 -0.1493
12480SOL     OW55049   6.564  12.020   9.178  0.5555  0.0108 -0.0781
12480SOL    HW155050   6.513  12.090   9.219  0.4267  1.7815 -2.9731
12480SOL    HW255051   6.498  11.958   9.146  0.5968 -0.7372  1.2219
12481SOL     OW55052   8.862   8.584   9.252  0.6896  0.1290  0.7216
12481SOL    HW155053   8.810   8.627   9.184  0.0568 -1.7739 -0.0945
12481SOL    HW255054   8.921   8.526   9.202  1.1012 -0.3585  1.7549
12482SOL     OW55055   4.116   9.950  12.247 -0.4114 -0.6103 -0.3668
12482SOL    HW155056   4.031   9.976  12.283 -0.4369 -0.7024 -0.3604
12482SOL    HW255057   4.111   9.973  12.154 -0.2072 -0.0249 -0.2415
12483SOL     OW55058   3.858  13.077   2.995  0.1026 -0.1314  0.0806
12483SOL    HW155059   3.837  12.983   2.991  0.9513 -0.3139 -0.1513
12483SOL    HW255060   3.924  13.083   3.064  0.0114  0.3098  0.1299
12484SOL     OW55061  11.558  12.945   0.247  0.0098  0.1725 -0.1317
12484SOL    HW155062  11.616  12.955   0.323 -0.1444 -0.0270  0.0153
12484SOL    HW255063  11.593  13.005   0.181  1.2145 -0.9595 -0.5545
12485SOL     OW55064   2.288  13.902   3.443 -0.1778 -0.1376  0.2250
12485SOL    HW155065   2.322  13.930   3.528  1.4186 -0.5724 -0.2388
12485SOL    HW255066   2.194  13.920   3.448  0.4085  3.4909  0.6309
12486SOL     OW55067   4.792   7.695   5.532 -0.1828  0.5358 -0.2672
12486SOL    HW155068   4.861   7.649   5.484  0.5029  1.0632  0.1938
12486SOL    HW255069   4.797   7.660   5.621  0.2933  1.4158  0.0705
12487SOL     OW55070  11.266   2.007  11.481  0.5282  0.1484 -0.2154
12487SOL    HW155071  11.250   2.096  11.510 -1.6401 -0.4946  0.7114
12487SOL    HW255072  11.246   1.952  11.557 -0.1710 -1.2585 -1.3625
12488SOL     OW55073   9.066  13.058  13.383 -0.1122 -0.0299 -0.5289
12488SOL    HW155074   9.078  13.006  13.303  0.4834 -0.8418  0.0704
12488SOL    HW255075   9.061  12.993  13.453  1.8665  0.7340  0.4000
12489SOL     OW55076   5.377   2.457   9.289  0.3504 -0.1218  0.0769
12489SOL    HW155077   5.419   2.531   9.245  1.7705 -0.5608  0.6462
12489SOL    HW255078   5.431   2.382   9.266  0.9782 -0.4162  2.2700
12490SOL     OW55079  10.636  10.263   9.795  0.7230  0.1624 -0.4587
12490SOL    HW155080  10.657  10.259   9.702 -0.8096  0.0401 -0.8249
12490SOL    HW255081  10.614  10.355   9.810 -0.0320 -0.0083 -0.4690
12491SOL     OW55082   6.867  10.499   2.026  0.2521 -0.1294 -0.1517
12491SOL    HW155083   6.840  10.419   2.070 -0.4292 -0.7921 -1.7036
12491SOL    HW255084   6.951  10.477   1.985  0.5158  0.2464  0.1738
12492SOL     OW55085   0.577   9.109   4.340 -0.8105 -0.0891 -0.0310
12492SOL    HW155086   0.666   9.130   4.368 -0.7260 -1.7228  1.0896
12492SOL    HW255087   0.526   9.188   4.358  0.1281  0.3790  0.6447
12493SOL     OW55088  12.472   7.642   8.195 -0.0279  0.2495  0.1062
12493SOL    HW155089  12.462   7.583   8.269 -1.7603  0.1586 -0.1791
12493SOL    HW255090  12.561   7.676   8.204  0.9099 -2.0849  0.5001
12494SOL     OW55091   6.456  13.935   6.401  0.6074  0.2808 -0.2481
12494SOL    HW155092   6.363  13.946   6.378  0.2100 -0.7976  0.7304
12494SOL    HW255093   6.493  14.023   6.391 -0.3691  0.6036 -1.2790
12495SOL     OW55094   6.520   8.033   0.725 -1.0512 -0.0597  0.5434
12495SOL    HW155095   6.464   8.108   0.745 -0.7704  0.5077 -0.7570
12495SOL    HW255096   6.609   8.066   0.733 -0.9152  0.2187 -1.6107
12496SOL     OW55097  11.635   7.259   4.882  0.1299  0.1874  0.0524
12496SOL    HW155098  11.702   7.192   4.899  2.0068  2.6060  3.4930
12496SOL    HW255099  11.666   7.306   4.805  0.2603 -1.1132 -0.7131
12497SOL     OW55100   1.054   3.251   0.161 -0.7153  0.6848 -0.0792
12497SOL    HW155101   1.062   3.346   0.169 -0.4879  0.6508  0.1207
12497SOL    HW255102   0.962   3.236   0.140 -1.1222  0.8679  1.4235
12498SOL     OW55103   4.922   5.674   3.001 -0.8580 -0.6861 -0.1401
12498SOL    HW155104   4.836   5.668   2.959 -1.7307 -1.2263  1.6234
12498SOL    HW255105   4.905   5.656   3.093  0.6758  2.2497  0.8446
12499SOL     OW55106   0.940   8.500   1.603  0.0375 -0.1242 -0.4596
12499SOL    HW155107   1.030   8.497   1.636  0.6291 -0.5134 -1.9849
12499SOL    HW255108   0.897   8.565   1.657  1.2013 -0.0292  0.4035
12500SOL     OW55109   6.233  11.689  13.628  0.5321  1.1393  0.3431
12500SOL    HW155110   6.157  11.702  13.685  1.7713  0.1318  2.3215
12500SOL    HW255111   6.308  11.716  13.680  1.8984 -1.4142 -0.0921
12501SOL     OW55112   8.498   0.171   1.203  0.5478  0.5361 -0.4815
12501SOL    HW155113   8.430   0.195   1.265  0.3162  2.5362 -1.4258
12501SOL    HW255114   8.512   0.077   1.217 -0.2275  0.7061  1.8192
12502SOL     OW55115   5.174   9.979   0.440  0.3647 -0.1302  0.3326
12502SOL    HW155116   5.117   9.952   0.512  1.5182 -0.0131  1.3141
12502SOL    HW255117   5.240   9.910   0.435  0.7841  0.2946 -0.0629
12503SOL     OW55118  11.573   4.291   9.861  0.0119 -0.1582  0.2798
12503SOL    HW155119  11.638   4.330   9.919 -1.9990  1.1440  1.7993
12503SOL    HW255120  11.568   4.352   9.787  2.5870 -1.8288 -1.4661
12504SOL     OW55121   3.898  12.386   0.246  0.1870 -0.4506  0.7448
12504SOL    HW155122   3.981  12.423   0.275 -0.0529 -0.3855  1.3570
12504SOL    HW255123   3.860  12.453   0.190  0.1631 -0.1329  1.1354
12505SOL     OW55124  10.253  13.797   7.045  0.3383  0.4141  0.1488
12505SOL    HW155125  10.235  13.814   6.953 -0.7492  0.2091  0.3131
12505SOL    HW255126  10.167  13.779   7.084  1.0410 -2.5692  0.5752
12506SOL     OW55127  12.070   9.275  13.396  0.4977  0.1773 -0.1381
12506SOL    HW155128  12.131   9.222  13.448  2.5692  1.4663 -1.0872
12506SOL    HW255129  12.086   9.365  13.425 -1.6959  0.4962  0.2423
12507SOL     OW55130   7.459   8.855   6.033 -0.2142 -0.3722  0.1463
12507SOL    HW155131   7.413   8.772   6.033 -0.6158 -0.2413  2.6816
12507SOL    HW255132   7.427   8.901   5.956 -2.2827 -1.3706  0.3462
12508SOL     OW55133   0.863   3.727   6.506 -0.4678  0.1836  0.1749
12508SOL    HW155134   0.898   3.735   6.595 -1.7637 -0.6625  0.7894
12508SOL    HW255135   0.918   3.660   6.466  0.5458  1.0372  0.1013
12509SOL     OW55136  10.549  13.509   1.440  0.0988 -0.1256 -0.2014
12509SOL    HW155137  10.589  13.435   1.394  0.2216 -1.6146  2.1104
12509SOL    HW255138  10.467  13.524   1.394 -0.8930 -3.0744  0.3305
12510SOL     OW55139   7.995   1.172   8.087  0.1572  0.3267  0.8068
12510SOL    HW155140   7.928   1.183   8.153 -0.4341 -0.1870  0.3016
12510SOL    HW255141   8.010   1.260   8.053  0.3243  0.5637  1.4699
12511SOL     OW55142   5.242   4.237   2.463 -0.1249 -0.0973  0.2830
12511SOL    HW155143   5.175   4.284   2.414 -0.0589 -0.4911 -0.2001
12511SOL    HW255144   5.211   4.146   2.464 -0.8633  0.1162  2.2333
12512SOL     OW55145   2.981   1.616   9.075 -0.1862 -0.3055  0.3047
12512SOL    HW155146   3.050   1.552   9.090 -1.5773 -1.6058  1.4484
12512SOL    HW255147   3.015   1.671   9.004  1.8492 -1.0974  0.5855
12513SOL     OW55148   1.688   4.227   2.224  0.8723  0.7147 -0.2755
12513SOL    HW155149   1.742   4.158   2.262  0.0139 -0.2737 -0.7984
12513SOL    HW255150   1.631   4.181   2.163 -1.2823  1.5513  1.0068
12514SOL     OW55151  11.690   9.957  11.208 -0.4233 -0.0197  0.5941
12514SOL    HW155152  11.597   9.963  11.226 -0.5793  0.0324 -0.1855
12514SOL    HW255153  11.708  10.030  11.148 -0.0423 -0.4850  0.1289
12515SOL     OW55154   4.108  10.058   5.370 -0.0875 -0.1698 -0.5060
12515SOL    HW155155   4.141  10.057   5.280  1.5342 -0.5608  0.0717
12515SOL    HW255156   4.148   9.982   5.411  0.5642  0.9598  1.0312
12516SOL     OW55157  13.891  11.376   4.851  0.2393  0.5388 -0.0924
12516SOL    HW155158  13.875  11.468   4.834  0.4874  1.1671  2.6558
12516SOL    HW255159  13.987  11.368   4.850  0.2570  0.5871  0.9017
12517SOL     OW55160   6.780   7.996   0.675  0.6976  0.1716 -0.1287
12517SOL    HW155161   6.726   7.918   0.668  0.8562  0.2102 -2.0538
12517SOL    HW255162   6.860   7.966   0.718  0.7472 -0.7249 -0.8223
12518SOL     OW55163   8.727   2.895   6.199 -0.6034 -0.4455  0.0835
12518SOL    HW155164   8.799   2.951   6.170 -1.9256  0.4716 -1.5760
12518SOL    HW255165   8.675   2.950   6.257 -1.7041 -0.0016 -1.2647
12519SOL     OW55166   4.734   4.375   9.459 -0.7183 -0.0676 -0.0107
12519SOL    HW155167   4.759   4.432   9.532 -0.8943  0.3168 -0.2459
12519SOL    HW255168   4.818   4.352   9.418 -0.6977  0.7635 -0.4600
12520SOL     OW55169  12.377  10.178   1.663 -0.3098  0.1946 -0.0305
12520SOL    HW155170  12.386  10.145   1.753  2.1772  0.7362 -0.0095
12520SOL    HW255171  12.372  10.273   1.673  2.1713  0.4392 -0.4900
12521SOL     OW55172   9.461  11.202  12.006  0.3051 -0.3088 -0.4666
12521SOL    HW155173   9.407  11.275  12.037  0.1505 -0.4871 -0.3166
12521SOL    HW255174   9.481  11.225  11.915 -1.0755 -0.8324 -0.9270
12522SOL     OW55175   9.111   2.207   9.259 -0.6825 -0.1042  0.4530
12522SOL    HW155176   9.195   2.193   9.216 -0.3814 -1.7049  1.5129
12522SOL    HW255177   9.053   2.237   9.189  0.4946  0.0340 -0.4886
12523SOL     OW55178  11.471  10.166  13.359  0.0607  0.0464  0.4261
12523SOL    HW155179  11.393  10.222  13.356 -3.6193 -4.4382 -0.9278
12523SOL    HW255180  11.491  10.148  13.267  0.8315 -1.0861  0.7844
12524SOL     OW55181   4.227  13.081   8.442  0.2030  0.3042  0.1289
12524SOL    HW155182   4.156  13.063   8.504 -1.5040  0.9895 -1.5422
12524SOL    HW255183   4.208  13.168   8.408  1.7545  0.4246 -0.5143
12525SOL     OW55184   4.551   8.210  13.675  0.5101  0.0755  0.4880
12525SOL    HW155185   4.461   8.238  13.692 -0.4265 -0.8509 -2.3914
12525SOL    HW255186   4.553   8.118  13.703  1.8020  1.0244  4.1239
12526SOL     OW55187  11.884   8.977   7.910  0.1689  0.3332  0.1436
12526SOL    HW155188  11.802   9.018   7.882 -1.0729 -0.4810  2.3151
12526SOL    HW255189  11.870   8.884   7.897  0.9466  0.2213  0.0810
12527SOL     OW55190   8.992   4.419   1.142 -0.4173  0.1415 -0.2298
12527SOL    HW155191   9.054   4.411   1.069  0.4888 -0.1319  0.5496
12527SOL    HW255192   8.964   4.329   1.158  1.3057 -0.1623  1.3589
12528SOL     OW55193   9.036  11.489  13.837 -0.0350 -0.4062  0.7503
12528SOL    HW155194   9.102  11.526  13.779 -0.1995 -1.5030 -0.1933
12528SOL    HW255195   9.080  11.478  13.921  0.7034 -0.2847  0.3882
12529SOL     OW55196   0.316   4.040   3.449  0.2969 -0.4128  0.1160
12529SOL    HW155197   0.291   4.069   3.361 -0.4287 -1.8390 -0.1904
12529SOL    HW255198   0.235   4.044   3.499  0.7122  0.4015  0.7411
12530SOL     OW55199   1.202   2.571  11.763 -0.1464 -0.1736  0.1515
12530SOL    HW155200   1.141   2.587  11.835 -0.2919 -0.5139  0.1081
12530SOL    HW255201   1.152   2.592  11.684 -0.5074 -1.2957  0.0641
12531SOL     OW55202   8.091   4.956  11.605 -0.0060  0.3420 -0.8380
12531SOL    HW155203   8.040   4.936  11.684 -0.9787  1.9568 -1.0217
12531SOL    HW255204   8.180   4.967  11.637  0.3547 -2.6450 -0.5246
12532SOL     OW55205   7.368  11.952  13.646 -0.1067 -0.1639  0.0307
12532SOL    HW155206   7.341  11.862  13.626 -2.5183  0.0505  1.8074
12532SOL    HW255207   7.375  11.995  13.561  1.9219 -2.1681 -0.9228
12533SOL     OW55208  11.015   6.906   1.574 -0.3325 -0.0393 -0.0233
12533SOL    HW155209  11.074   6.839   1.609 -0.9445 -0.6746 -0.1851
12533SOL    HW255210  11.070   6.957   1.514  1.2641  2.2540  3.1198
12534SOL     OW55211  10.954   0.575   5.519  0.2402 -0.5415 -0.1213
12534SOL    HW155212  10.953   0.521   5.440  0.7775 -1.2626  0.3513
12534SOL    HW255213  10.873   0.551   5.566  0.0300 -0.2716 -0.3447
12535SOL     OW55214   9.909  10.190   7.140 -0.3905 -0.1548  0.3502
12535SOL    HW155215   9.923  10.099   7.165 -1.2818 -1.0050 -2.0041
12535SOL    HW255216   9.997  10.229   7.140 -0.0819 -0.7689  2.0945
12536SOL     OW55217   5.693   4.080   4.600 -0.4927 -0.1993  0.2726
12536SOL    HW155218   5.645   4.000   4.619  1.3766 -1.3055  0.5888
12536SOL    HW255219   5.741   4.099   4.681  2.1732 -1.0571 -1.0119
12537SOL     OW55220   7.170  11.740   1.529 -0.8523 -0.9266 -0.3615
12537SOL    HW155221   7.152  11.834   1.539  4.3572  0.5120 -1.2282
12537SOL    HW255222   7.149  11.722   1.437 -1.8792 -0.6478 -0.1935
12538SOL     OW55223  11.473   1.370   3.319  0.0627 -0.3240 -0.6250
12538SOL    HW155224  11.541   1.409   3.375 -0.1496  1.4082 -1.5337
12538SOL    HW255225  11.430   1.444   3.277 -1.3666 -1.4768 -1.2858
12539SOL     OW55226   1.645  12.192   8.455 -0.1908 -0.4233  0.4371
12539SOL    HW155227   1.712  12.132   8.421 -1.6251 -1.4744 -0.6502
12539SOL    HW255228   1.579  12.196   8.386 -0.4729  1.9340  0.7579
12540SOL     OW55229   2.445   3.921  12.442 -0.1473 -0.5055 -0.0630
12540SOL    HW155230   2.538   3.939  12.455 -0.5165  1.0950  0.5957
12540SOL    HW255231   2.424   3.966  12.360 -0.3679 -0.8020 -0.1704
12541SOL     OW55232   6.602   1.027   0.745  0.4161 -0.3157 -0.1968
12541SOL    HW155233   6.669   1.076   0.698  0.1657 -0.4970 -0.7549
12541SOL    HW255234   6.649   0.953   0.784  1.0984  1.2110  2.0297
12542SOL     OW55235   1.248   1.337   1.029  0.1404 -0.6121 -0.3706
12542SOL    HW155236   1.227   1.431   1.033  1.5341 -0.2759 -0.5349
12542SOL    HW255237   1.163   1.295   1.015 -0.6560  0.5376  0.7341
12543SOL     OW55238  10.593  13.114   8.877 -0.1100  0.3552 -0.5146
12543SOL    HW155239  10.639  13.198   8.876 -0.0756  0.3768  1.1314
12543SOL    HW255240  10.545  13.112   8.794  1.0002  1.3577 -1.2146
12544SOL     OW55241  11.627   0.464  10.530  0.2543 -0.1543 -0.0197
12544SOL    HW155242  11.584   0.445  10.447 -0.0695 -0.1060  0.1371
12544SOL    HW255243  11.714   0.425  10.521  0.5621  0.6820 -0.7399
12545SOL     OW55244   2.236  12.542   1.535 -0.0033 -0.0107 -0.2952
12545SOL    HW155245   2.185  12.558   1.455 -0.0271  0.5651 -0.1670
12545SOL    HW255246   2.222  12.449   1.553 -0.1291 -0.1122 -0.8689
12546SOL     OW55247  11.245   5.561  13.711 -0.1952  0.3033  0.2758
12546SOL    HW155248  11.235   5.625  13.781 -2.0859 -0.7849  1.0728
12546SOL    HW255249  11.323   5.510  13.737 -1.1975 -0.4627  1.9671
12547SOL     OW55250   9.843   0.888   7.642  0.1035 -0.2806 -0.2394
12547SOL    HW155251   9.827   0.830   7.567 -0.2186 -0.6432  0.1054
12547SOL    HW255252   9.933   0.917   7.630  0.2152 -0.7129 -0.5139
12548SOL     OW55253   1.781   2.241   7.733 -0.2439 -0.9791  0.0626
12548SOL    HW155254   1.730   2.169   7.768  0.8908 -2.0723 -0.4417
12548SOL    HW255255   1.721   2.287   7.674 -1.3408 -0.7441  1.3323
12549SOL     OW55256   7.418   0.717   2.531  0.2024  0.1131  0.2004
12549SOL    HW155257   7.419   0.626   2.504 -1.8807 -0.2766  1.2429
12549SOL    HW255258   7.396   0.766   2.452 -2.7679 -0.7296  0.3698
12550SOL     OW55259   6.290   4.464   0.998  0.0617 -0.6396 -0.0642
12550SOL    HW155260   6.241   4.546   0.995  1.6274  0.3257 -1.6308
12550SOL    HW255261   6.300   4.445   1.091  0.0326  1.2081  0.3436
12551SOL     OW55262   7.148  13.270   7.977 -0.1275 -0.3639 -0.0788
12551SOL    HW155263   7.062  13.275   7.934 -0.2333 -0.3216  0.1352
12551SOL    HW255264   7.208  13.242   7.908  0.1141  1.7734 -0.8382
12552SOL     OW55265   5.881   4.679  10.811 -0.2001 -0.2399  0.6936
12552SOL    HW155266   5.953   4.741  10.821  1.4360 -1.9324  0.0699
12552SOL    HW255267   5.855   4.657  10.901  0.6720 -0.2793  0.9408
12553SOL     OW55268  14.036   4.416   5.512  0.1018 -0.0026 -0.1127
12553SOL    HW155269  14.080   4.459   5.585 -0.3410  0.8026 -0.3042
12553SOL    HW255270  14.008   4.488   5.455 -0.0483 -0.5848 -0.7958
12554SOL     OW55271   1.725   3.953   0.564 -0.0903 -0.6641  0.4631
12554SOL    HW155272   1.653   3.904   0.524  0.8828 -0.9797 -0.9969
12554SOL    HW255273   1.747   4.020   0.500  0.5334 -0.1954  1.1507
12555SOL     OW55274  10.182   4.296  11.769 -0.1367 -0.3472  0.6117
12555SOL    HW155275  10.179   4.344  11.851 -0.2981  1.4570 -0.3883
12555SOL    HW255276  10.273   4.267  11.761 -0.0996 -0.4616  1.3512
12556SOL     OW55277   7.360   0.323   0.199  0.0438  0.0809  0.1828
12556SOL    HW155278   7.282   0.293   0.152  0.7625 -0.9963 -0.3619
12556SOL    HW255279   7.338   0.412   0.227 -1.2842 -0.1103 -0.1685
12557SOL     OW55280   7.409   3.643   1.789 -0.4141  0.0560  0.2705
12557SOL    HW155281   7.388   3.563   1.740 -0.1525  0.7903 -1.0529
12557SOL    HW255282   7.330   3.696   1.783  0.8013  1.7295 -2.5522
12558SOL     OW55283   9.525  13.630   9.689 -0.6500  0.3317 -0.3119
12558SOL    HW155284   9.558  13.591   9.770 -0.6187  0.5774 -0.2051
12558SOL    HW255285   9.570  13.714   9.682 -0.8632  0.4387 -0.4355
12559SOL     OW55286   4.517   6.497   7.010  0.7393 -0.1544 -0.0290
12559SOL    HW155287   4.441   6.459   7.055  1.1549 -1.4698 -0.3863
12559SOL    HW255288   4.497   6.590   7.005  0.0678 -0.1541  1.6785
12560SOL     OW55289   3.005   1.541   3.598 -0.2972  0.7096 -0.6060
12560SOL    HW155290   3.012   1.501   3.512 -0.2351  0.9054 -0.6923
12560SOL    HW255291   2.933   1.494   3.640  0.8125 -0.5843 -0.0980
12561SOL     OW55292   7.934  12.297   7.129 -0.2344  0.2403 -0.8445
12561SOL    HW155293   7.938  12.202   7.118  0.5870  0.0889  0.4770
12561SOL    HW255294   7.843  12.316   7.149 -0.3037 -0.3626 -0.5573
12562SOL     OW55295  13.185   1.329  10.157  0.6848 -0.1137 -0.3579
12562SOL    HW155296  13.148   1.246  10.129  3.6342 -0.9849 -2.0412
12562SOL    HW255297  13.208   1.315  10.249  4.3445 -2.5765 -1.4596
12563SOL     OW55298   1.303   9.570   6.096 -0.0314  0.0406 -0.4119
12563SOL    HW155299   1.374   9.514   6.065  0.7008  1.1066 -0.7087
12563SOL    HW255300   1.252   9.513   6.154  1.0533 -0.7560 -0.1929
12564SOL     OW55301   5.926   1.502   9.978 -0.0255  0.3379 -0.5905
12564SOL    HW155302   5.876   1.522  10.057  0.5031 -0.8095  0.0459
12564SOL    HW255303   5.896   1.568   9.914 -0.3766  1.3440  0.5766
12565SOL     OW55304   4.768   3.463   6.241 -0.2365 -0.1632 -0.2017
12565SOL    HW155305   4.689   3.410   6.255 -0.1380 -0.3317 -0.2792
12565SOL    HW255306   4.768   3.482   6.147  0.7390 -1.6518 -0.5450
12566SOL     OW55307  13.990   8.134  10.121 -0.5956  0.2328 -0.2392
12566SOL    HW155308  13.939   8.078  10.181  0.0765  0.1462  0.2571
12566SOL    HW255309  14.056   8.175  10.177 -1.2635  1.7928 -0.5283
12567SOL     OW55310   7.993   4.239   3.533  0.1955  0.5818  0.2294
12567SOL    HW155311   8.042   4.171   3.579 -2.5753 -1.2142  0.7418
12567SOL    HW255312   7.962   4.197   3.453 -0.7712  1.5383  0.0762
12568SOL     OW55313   3.260   2.604  10.091 -0.3343  0.1626  0.1239
12568SOL    HW155314   3.280   2.696  10.075  0.0145 -0.3645 -3.1274
12568SOL    HW255315   3.173   2.592  10.056 -0.3901 -0.7685  0.5470
12569SOL     OW55316   6.280  10.291   3.094  0.1118 -0.5418 -0.2491
12569SOL    HW155317   6.186  10.311   3.091  0.2272 -0.0501 -1.0893
12569SOL    HW255318   6.321  10.367   3.052  0.9287 -0.4981  0.6110
12570SOL     OW55319   3.375   9.044   4.177  0.4967  0.5224 -0.2767
12570SOL    HW155320   3.425   8.963   4.170 -1.8747 -1.0525 -0.1939
12570SOL    HW255321   3.390   9.089   4.094 -0.0253 -1.2109 -1.3601
12571SOL     OW55322  12.385   6.329  11.079 -0.0506 -0.4032  0.3760
12571SOL    HW155323  12.455   6.371  11.130  0.9975 -1.5550 -0.0395
12571SOL    HW255324  12.314   6.392  11.078  0.8048  0.6099  1.2544
12572SOL     OW55325   4.531   1.114   5.407  0.6261  0.1141 -0.0507
12572SOL    HW155326   4.559   1.052   5.475  0.2496  0.1340  0.1261
12572SOL    HW255327   4.573   1.197   5.432  0.2628  0.1919  0.3230
12573SOL     OW55328   9.444   1.019  12.898 -0.1751  0.5448 -0.0843
12573SOL    HW155329   9.360   1.008  12.853 -0.4361  1.8977  0.0208
12573SOL    HW255330   9.499   0.948  12.865 -0.2473  1.6449 -2.7828
12574SOL     OW55331  11.037  12.356  10.594  0.2719  1.0306 -0.4267
12574SOL    HW155332  11.081  12.273  10.613  0.3806  1.2181  0.1546
12574SOL    HW255333  10.944  12.332  10.587  0.3957  0.7284 -1.0897
12575SOL     OW55334   0.102   8.381  13.515  0.1969 -0.0425  0.6567
12575SOL    HW155335   0.186   8.354  13.555  2.1819  3.3453 -0.8387
12575SOL    HW255336   0.110   8.354  13.423  0.6894  2.1457 -0.0042
12576SOL     OW55337   1.458   5.865  10.551  0.0149 -0.4146 -0.0487
12576SOL    HW155338   1.519   5.906  10.489 -0.1061  0.8462  0.6314
12576SOL    HW255339   1.515   5.831  10.621  0.0401 -0.4858 -0.1030
12577SOL     OW55340   9.538  13.448   8.228  0.0080  0.2214  0.7133
12577SOL    HW155341   9.598  13.378   8.252  0.5799  0.6187  0.4606
12577SOL    HW255342   9.541  13.450   8.132  0.7621  1.2283  0.7346
12578SOL     OW55343  13.888   4.428  10.431 -0.2519  0.0861 -0.1354
12578SOL    HW155344  13.911   4.335  10.418 -0.8563 -0.1854  0.6484
12578SOL    HW255345  13.896   4.441  10.526  0.0011  0.8916 -0.2597
12579SOL     OW55346   1.572   2.169  12.301  0.6095 -0.3734  0.8066
12579SOL    HW155347   1.631   2.094  12.301  0.1257 -0.7665  0.0927
12579SOL    HW255348   1.552   2.184  12.209 -0.8492 -0.6203  1.0564
12580SOL     OW55349   6.374   7.781   3.828  0.4108 -0.0997 -0.5211
12580SOL    HW155350   6.373   7.796   3.922  0.2559 -1.4050 -0.2937
12580SOL    HW255351   6.291   7.817   3.797  0.4185  0.2443 -0.1565
12581SOL     OW55352   0.514   8.988   4.656  0.1719  0.4336 -0.0768
12581SOL    HW155353   0.509   8.918   4.590 -2.7621  0.9166 -0.4839
12581SOL    HW255354   0.478   9.065   4.612  1.5956  1.7671  0.9778
12582SOL     OW55355   5.692   2.370   1.719  0.4345  0.7181  0.1860
12582SOL    HW155356   5.672   2.290   1.669  0.7019  0.5997  0.2693
12582SOL    HW255357   5.659   2.352   1.807  1.4162  0.2968  0.4779
12583SOL     OW55358  12.575  12.697   5.035  0.0007  0.7437  0.0946
12583SOL    HW155359  12.610  12.711   4.947 -1.9400  0.8209 -0.7055
12583SOL    HW255360  12.480  12.695   5.024 -0.2642 -1.2844  1.8733
12584SOL     OW55361   8.544   2.376   0.786 -0.4083 -0.2151  0.2961
12584SOL    HW155362   8.563   2.423   0.706 -1.1538 -0.6988 -0.1764
12584SOL    HW255363   8.534   2.444   0.853 -0.3880  0.2215 -0.1441
12585SOL     OW55364   2.913   9.374   0.941  0.1886  0.0340 -0.2695
12585SOL    HW155365   2.892   9.424   0.862  0.4014  0.6657  0.0672
12585SOL    HW255366   2.829   9.336   0.968  0.5272 -2.3618 -2.2396
12586SOL     OW55367  13.557   1.835   3.237 -0.4905 -0.9756 -0.2255
12586SOL    HW155368  13.582   1.805   3.325 -1.9297 -0.5877  0.3363
12586SOL    HW255369  13.509   1.916   3.253 -0.3209 -0.6280 -1.4259
12587SOL     OW55370   2.860   6.065   0.079  0.4003 -0.5813  0.6667
12587SOL    HW155371   2.870   6.132   0.147 -1.9356  1.2512 -0.6095
12587SOL    HW255372   2.765   6.055   0.070  0.6492 -1.4535 -1.6338
12588SOL     OW55373   5.309   8.915   4.638  0.2996  0.3154  0.6874
12588SOL    HW155374   5.394   8.925   4.681  0.7625 -1.6740  0.3106
12588SOL    HW255375   5.319   8.959   4.554  0.0361  2.4503  1.6921
12589SOL     OW55376   6.331  12.842  13.478  0.4622  0.2050  0.0443
12589SOL    HW155377   6.350  12.864  13.387 -0.0662  1.0943  0.1372
12589SOL    HW255378   6.275  12.765  13.474  1.4909 -0.5419 -0.3312
12590SOL     OW55379   4.781   2.708  11.179 -0.0047  0.1018 -0.3689
12590SOL    HW155380   4.846   2.748  11.122  0.2850 -0.5012 -0.4748
12590SOL    HW255381   4.750   2.631  11.130 -1.6255  0.9921 -0.8064
12591SOL     OW55382   5.040   9.531   2.451 -0.1019  0.5661 -0.4891
12591SOL    HW155383   4.951   9.537   2.485  0.1526  2.2626 -0.0397
12591SOL    HW255384   5.096   9.533   2.529  0.3505 -0.1159 -0.7834
12592SOL     OW55385  12.582  12.522   7.695 -0.8148 -0.5343  0.4736
12592SOL    HW155386  12.555  12.595   7.751  0.4310  0.0212  0.3796
12592SOL    HW255387  12.639  12.562   7.630 -0.0329 -1.6173  0.4794
12593SOL     OW55388   6.286   9.435  11.476 -0.0004 -0.4543 -0.2852
12593SOL    HW155389   6.280   9.352  11.430 -2.7004  0.7223 -2.3813
12593SOL    HW255390   6.372   9.470  11.453  1.1207 -2.5250  0.5467
12594SOL     OW55391  11.330   2.983   2.112 -0.0612 -0.0363 -0.3892
12594SOL    HW155392  11.239   2.969   2.138 -0.2763 -0.9601 -1.5481
12594SOL    HW255393  11.381   2.952   2.187 -0.6917 -0.8287 -0.2685
12595SOL     OW55394  13.436   5.099   8.130  0.4546  0.4555 -0.5757
12595SOL    HW155395  13.437   5.148   8.212 -0.5656  0.1067 -0.3400
12595SOL    HW255396  13.528   5.094   8.103  0.8275  0.3523  0.6751
12596SOL     OW55397  11.651   1.770   8.012  0.0213 -0.2097  0.3002
12596SOL    HW155398  11.614   1.749   7.926  0.3694 -0.1269  0.1257
12596SOL    HW255399  11.575   1.786   8.068 -0.1992  0.3894 -0.1571
12597SOL     OW55400  13.518   5.972  13.709 -0.0462 -0.0822  0.1236
12597SOL    HW155401  13.424   5.975  13.690 -0.5609 -1.5530  2.1072
12597SOL    HW255402  13.549   5.893  13.666 -0.0017 -0.2994  0.5497
12598SOL     OW55403  11.360  11.414   2.626 -0.1021  0.4101  0.0573
12598SOL    HW155404  11.320  11.342   2.578 -1.1629  0.6879  0.4906
12598SOL    HW255405  11.453  11.410   2.603 -0.3824 -0.2207 -1.0235
12599SOL     OW55406  10.416   8.055   3.445  0.2443  0.5643  0.4644
12599SOL    HW155407  10.405   8.019   3.533  0.7537 -1.0807 -0.1226
12599SOL    HW255408  10.327   8.057   3.409  0.0567  1.0929  0.9351
12600SOL     OW55409   8.226   6.198   4.014 -0.2538  0.3750  0.2362
12600SOL    HW155410   8.293   6.134   4.037 -0.7849  0.0185  0.8451
12600SOL    HW255411   8.228   6.202   3.918  1.0036  0.7933  0.2569
12601SOL     OW55412   8.668   9.441   2.576 -0.0464  0.3571  1.1559
12601SOL    HW155413   8.693   9.450   2.484  0.8483  0.0424  1.3606
12601SOL    HW255414   8.747   9.407   2.619  0.1088  2.1084  2.3424
12602SOL     OW55415   2.120   0.568  10.617 -0.1685 -0.2237  0.0751
12602SOL    HW155416   2.103   0.608  10.702 -1.0908 -0.9111  0.2298
12602SOL    HW255417   2.102   0.638  10.554 -0.6841 -0.0708  0.3864
12603SOL     OW55418   7.331   7.511   2.665 -0.5491 -0.7750  0.3125
12603SOL    HW155419   7.242   7.536   2.639 -0.1188 -1.0380 -1.6226
12603SOL    HW255420   7.353   7.571   2.736 -1.6828  0.4181 -0.2853
12604SOL     OW55421   1.497   2.417  13.668  0.5927 -0.7892  0.2554
12604SOL    HW155422   1.415   2.454  13.637  1.1534  1.5807  1.3322
12604SOL    HW255423   1.482   2.400  13.761  1.6588  1.0346  0.8249
12605SOL     OW55424  13.250   2.837   8.180  0.2474  0.1054  0.1618
12605SOL    HW155425  13.245   2.812   8.272  3.3685  1.2009  0.7508
12605SOL    HW255426  13.263   2.754   8.133 -1.2408 -0.4430  0.6720
12606SOL     OW55427   4.132   9.127   6.184 -0.4331  0.1291  0.6540
12606SOL    HW155428   4.086   9.051   6.148  0.7918 -1.0689  1.5268
12606SOL    HW255429   4.091   9.202   6.140 -0.1610 -1.1254 -1.9704
12607SOL     OW55430   9.440  12.070  13.983  0.2112  0.1652 -0.5170
12607SOL    HW155431   9.458  12.092  14.075  1.1130 -0.0308 -0.6284
12607SOL    HW255432   9.454  12.152  13.936  0.8761  0.0154 -0.6024
12608SOL     OW55433   4.832  10.056   0.768  0.1641  0.3393 -0.1019
12608SOL    HW155434   4.772  10.042   0.695  0.7880 -0.4341 -0.4814
12608SOL    HW255435   4.833   9.972   0.814 -0.1687  0.7952  0.7736
12609SOL     OW55436   6.697   8.273   9.933  0.3603  0.1877  0.4079
12609SOL    HW155437   6.775   8.309   9.975  1.5586 -1.6477 -0.1107
12609SOL    HW255438   6.723   8.260   9.842 -0.7605  0.0826  0.0869
12610SOL     OW55439   9.094  13.001   4.366  0.0989  0.0937  0.3106
12610SOL    HW155440   9.069  12.921   4.411  1.5682  0.0160  1.0555
12610SOL    HW255441   9.012  13.037   4.332 -0.4385 -2.3926 -1.2095
12611SOL     OW55442   1.509   4.089   3.376 -0.2788  0.7322 -0.4921
12611SOL    HW155443   1.433   4.044   3.414 -0.3226  1.1657 -0.0628
12611SOL    HW255444   1.481   4.179   3.365 -0.0479  0.7465 -0.9658
12612SOL     OW55445   4.563   1.660   1.257  0.4207  0.3641  0.0954
12612SOL    HW155446   4.648   1.638   1.220  1.0531  2.5963  0.0767
12612SOL    HW255447   4.533   1.735   1.206 -1.9516 -0.8131 -0.3903
12613SOL     OW55448   9.848   1.102  10.608 -0.4222  0.5020 -0.3659
12613SOL    HW155449   9.824   1.035  10.671 -1.9257  1.2203 -0.1268
12613SOL    HW255450   9.866   1.180  10.661  0.2234  0.5958 -0.7110
12614SOL     OW55451   4.808   1.050   9.140  0.3422  0.6368  0.2446
12614SOL    HW155452   4.823   1.000   9.220  2.1784  0.1063 -0.3875
12614SOL    HW255453   4.884   1.108   9.134 -0.5711  1.8150 -0.3038
12615SOL     OW55454   2.294   9.658   1.834 -0.3197 -0.1712 -0.3962
12615SOL    HW155455   2.230   9.729   1.840 -0.3501 -0.1911 -0.4977
12615SOL    HW255456   2.338   9.659   1.919  0.1428  0.4073 -0.6386
12616SOL     OW55457   9.921  11.207   3.082 -0.1805 -0.4103  0.1210
12616SOL    HW155458   9.826  11.209   3.071 -0.3351  0.6482  1.4404
12616SOL    HW255459   9.955  11.202   2.993 -1.4587 -0.4956 -0.3861
12617SOL     OW55460  12.068   1.246   3.206 -0.0591 -0.1613 -0.3292
12617SOL    HW155461  12.081   1.242   3.111 -0.1347  1.7151 -0.4559
12617SOL    HW255462  12.133   1.309   3.237  0.8137 -1.6767  1.0768
12618SOL     OW55463   8.706   1.729   6.656  0.2955  0.0860 -0.2143
12618SOL    HW155464   8.779   1.781   6.689  0.4502 -0.5200  0.4306
12618SOL    HW255465   8.641   1.732   6.726 -0.5575  1.1104 -1.0254
12619SOL     OW55466   1.308  11.752   7.003 -0.1398 -0.1439 -0.0030
12619SOL    HW155467   1.263  11.826   6.963  1.7358  0.8006 -0.4702
12619SOL    HW255468   1.400  11.764   6.980  0.5198 -1.4893  1.6815
12620SOL     OW55469   6.515  11.742   7.269 -0.5030 -0.1458 -0.3518
12620SOL    HW155470   6.524  11.803   7.342 -1.2184 -0.0498 -0.3379
12620SOL    HW255471   6.447  11.681   7.296 -2.0260  0.9043 -1.6019
12621SOL     OW55472   5.266  13.949   9.418  0.1230 -0.4874 -0.5934
12621SOL    HW155473   5.193  14.003   9.388 -1.0678 -2.4426 -1.4334
12621SOL    HW255474   5.226  13.885   9.476  1.6098 -0.0453  0.9940
12622SOL     OW55475   8.379   5.334   1.971  0.0282  0.3775 -0.4856
12622SOL    HW155476   8.380   5.303   1.881  1.2532 -0.6338 -0.1624
12622SOL    HW255477   8.363   5.255   2.023  0.5788  0.7345  0.2415
12623SOL     OW55478  12.914   1.630  10.230  0.4704  0.0555  0.3598
12623SOL    HW155479  12.963   1.577  10.167 -0.3565 -1.1408  0.6769
12623SOL    HW255480  12.923   1.720  10.199  2.1522 -0.2120 -0.0550
12624SOL     OW55481   2.755  11.557   1.897  0.6329  0.5600 -0.3110
12624SOL    HW155482   2.731  11.598   1.981  0.4651  0.6136 -0.3861
12624SOL    HW255483   2.799  11.627   1.848  4.1968 -0.3847  1.1845
12625SOL     OW55484   8.351   3.194   6.675  0.6006 -0.0687 -0.8702
12625SOL    HW155485   8.342   3.181   6.769 -0.6682  0.1764 -0.9377
12625SOL    HW255486   8.291   3.130   6.636  1.4819 -0.5024 -1.5257
12626SOL     OW55487  12.116   9.425  12.405 -0.5231 -0.0965 -0.3191
12626SOL    HW155488  12.072   9.472  12.476  0.8137  0.5064  0.1596
12626SOL    HW255489  12.209   9.428  12.430 -0.2496 -1.6849 -1.0572
12627SOL     OW55490   5.469   2.468   8.565  0.1309 -0.2644  0.7916
12627SOL    HW155491   5.530   2.432   8.628  0.7962 -1.2551 -0.3804
12627SOL    HW255492   5.519   2.536   8.520 -0.4588  0.7010  1.5587
12628SOL     OW55493  11.068  10.859   7.494 -0.3997  0.2294 -0.1141
12628SOL    HW155494  11.095  10.784   7.547 -0.5471  0.4723  0.3098
12628SOL    HW255495  10.975  10.869   7.513 -0.1392  1.2145  0.7109
12629SOL     OW55496   3.162   8.911   9.970 -0.3449  0.1009  0.2076
12629SOL    HW155497   3.111   8.955  10.038  1.5130  1.5307  0.7739
12629SOL    HW255498   3.184   8.981   9.909 -0.1100 -0.7351 -0.6752
12630SOL     OW55499  12.146   0.864   0.210 -0.0337 -0.2440 -0.3139
12630SOL    HW155500  12.167   0.778   0.173 -0.8133 -0.2299 -0.8057
12630SOL    HW255501  12.084   0.845   0.280  0.9417 -0.2105  0.5706
12631SOL     OW55502   0.681   5.092   1.401 -0.1912 -0.1588 -0.0722
12631SOL    HW155503   0.740   5.017   1.409 -0.8616 -0.5949  1.0167
12631SOL    HW255504   0.597   5.059   1.433  0.0868  1.7654  2.9571
12632SOL     OW55505  12.258  11.054  12.857 -0.2900 -0.0437  0.0782
12632SOL    HW155506  12.348  11.036  12.884 -0.5382 -1.5317  0.0337
12632SOL    HW255507  12.266  11.123  12.791  0.8236 -0.2331 -0.0084
12633SOL     OW55508  10.306   7.004   5.712  0.2591  0.1699 -0.7569
12633SOL    HW155509  10.389   6.994   5.665  0.1506 -0.7502 -0.7806
12633SOL    HW255510  10.332   7.014   5.804  0.4425  1.2680 -0.9185
12634SOL     OW55511   2.109   7.473   6.678 -0.3872 -0.0486 -0.3567
12634SOL    HW155512   2.137   7.385   6.704  0.3278 -0.1040 -1.2555
12634SOL    HW255513   2.190   7.519   6.658 -0.8178  0.4287 -1.0576
12635SOL     OW55514   7.918  13.316   5.306 -0.1208 -0.1235  0.6613
12635SOL    HW155515   7.826  13.336   5.284  0.3346  0.3986 -0.9648
12635SOL    HW255516   7.968  13.373   5.248  1.2406 -1.5465  0.3783
12636SOL     OW55517   1.975   6.636   6.699  0.1801 -0.6199  0.5000
12636SOL    HW155518   2.010   6.580   6.630 -0.1167 -0.2413  0.0387
12636SOL    HW255519   1.975   6.581   6.777  1.8121 -0.6360  0.5190
12637SOL     OW55520   7.040   2.979   7.204  0.1391  0.0659 -0.0452
12637SOL    HW155521   7.103   2.986   7.132  1.2318  0.0755  0.8989
12637SOL    HW255522   7.087   3.009   7.281 -1.7823  2.4429  0.3017
12638SOL     OW55523   9.946  12.196   7.383  0.2444  0.2538  0.2242
12638SOL    HW155524   9.961  12.159   7.470 -0.1775 -1.2703 -0.3183
12638SOL    HW255525   9.983  12.285   7.387  0.5013  0.0908  1.8461
12639SOL     OW55526   1.643   4.753  11.447  0.4312  0.4159 -0.5349
12639SOL    HW155527   1.656   4.698  11.525  0.0680  0.0903 -0.7058
12639SOL    HW255528   1.590   4.826  11.479 -0.6126 -0.2451 -0.6910
12640SOL     OW55529  10.012   0.676  12.463 -0.0155 -0.2019  0.1316
12640SOL    HW155530  10.036   0.753  12.514  0.1271 -0.4329  0.4167
12640SOL    HW255531  10.093   0.651  12.418 -0.4518  0.7976 -1.2898
12641SOL     OW55532  11.612   2.955  11.867  0.3465  0.2402 -0.2657
12641SOL    HW155533  11.616   3.001  11.784  1.0767  0.2102 -0.2479
12641SOL    HW255534  11.693   2.978  11.912  0.1407 -0.0614  0.2706
12642SOL     OW55535   8.779  13.645   6.650  0.6834  0.0147 -0.0606
12642SOL    HW155536   8.748  13.557   6.673  1.4111  0.3834  2.7557
12642SOL    HW255537   8.719  13.674   6.581 -0.0646 -2.3681 -0.5087
12643SOL     OW55538   8.545   3.280  13.639  0.4722 -0.2232 -0.3054
12643SOL    HW155539   8.512   3.191  13.634 -1.5895  0.4395  0.5095
12643SOL    HW255540   8.599   3.291  13.561 -0.5772 -1.6549 -1.2578
12644SOL     OW55541   0.679   4.130   4.973 -0.3370  0.1993 -0.5711
12644SOL    HW155542   0.695   4.053   4.917 -0.7045 -1.0925  1.0224
12644SOL    HW255543   0.753   4.130   5.034 -1.9593 -0.8803  1.5196
12645SOL     OW55544   8.305   5.152   3.128 -0.2359 -0.1974 -0.5582
12645SOL    HW155545   8.241   5.202   3.078 -0.0904  0.2122 -0.3328
12645SOL    HW255546   8.320   5.203   3.207 -1.0503 -1.2190  0.2849
12646SOL     OW55547  11.035   9.272   4.647 -0.5826 -0.2691 -0.0170
12646SOL    HW155548  11.028   9.285   4.552  1.2773  0.9504 -0.0453
12646SOL    HW255549  11.114   9.218   4.657  0.4107  1.2857  0.8909
12647SOL     OW55550   8.415   3.692   5.427  0.7468  0.0383  0.0685
12647SOL    HW155551   8.396   3.622   5.365 -2.9524  1.8657 -1.1590
12647SOL    HW255552   8.501   3.725   5.399  0.6255 -1.2421 -2.0296
12648SOL     OW55553  10.445   1.246  13.714 -0.0270  0.0671 -0.1726
12648SOL    HW155554  10.350   1.236  13.715  0.1415 -1.6752  1.1095
12648SOL    HW255555  10.478   1.177  13.770  2.0007  0.9125 -0.2253
12649SOL     OW55556   7.483   5.254   1.202 -0.1116  0.3111 -0.1529
12649SOL    HW155557   7.490   5.287   1.292  0.3191  0.0909 -0.1046
12649SOL    HW255558   7.526   5.169   1.204  1.6538  1.1211 -0.9853
12650SOL     OW55559   8.477  11.025   0.866  0.1484  0.3427 -0.3587
12650SOL    HW155560   8.471  11.119   0.878 -0.4347  0.4943 -1.6467
12650SOL    HW255561   8.515  11.013   0.779  0.2917 -0.6091 -0.1842
12651SOL     OW55562   9.363   3.268  11.975 -0.2491 -0.2106  0.5950
12651SOL    HW155563   9.355   3.330  11.903  0.8171 -0.8381 -0.0987
12651SOL    HW255564   9.331   3.316  12.052 -1.6491  0.3784 -0.3182
12652SOL     OW55565   5.396   7.041  13.290  0.1913  0.4492  0.3479
12652SOL    HW155566   5.491   7.039  13.286  0.1463 -0.7207 -0.7722
12652SOL    HW255567   5.375   7.013  13.380  0.8935 -3.9294 -0.6131
12653SOL     OW55568  13.635  12.258   2.906 -0.4305 -0.1039  0.0882
12653SOL    HW155569  13.692  12.327   2.939 -0.6093  0.4638 -0.7710
12653SOL    HW255570  13.551  12.273   2.949 -0.1319 -0.5362  0.8407
12654SOL     OW55571  10.709   2.139   1.591 -0.9706 -0.9154 -0.6256
12654SOL    HW155572  10.721   2.159   1.684  0.3300 -2.5805 -0.3991
12654SOL    HW255573  10.615   2.124   1.582 -1.2028 -0.1240  0.2689
12655SOL     OW55574  11.349   3.547   7.149 -0.1203 -0.0091  0.3181
12655SOL    HW155575  11.359   3.505   7.235 -0.8769 -0.0315  0.4004
12655SOL    HW255576  11.363   3.476   7.086 -0.1252 -0.1131  0.4351
12656SOL     OW55577   2.743   3.542   3.070 -0.0131 -0.2996 -0.6279
12656SOL    HW155578   2.748   3.594   2.989  1.4136  1.3154  0.4213
12656SOL    HW255579   2.653   3.552   3.099 -0.2887 -0.0876 -1.5319
12657SOL     OW55580   2.228   8.302   2.718 -0.1828  0.7118  0.3885
12657SOL    HW155581   2.180   8.344   2.647 -1.5153  1.3369  1.6084
12657SOL    HW255582   2.219   8.362   2.792  2.1839  0.6478  0.7993
12658SOL     OW55583  10.645   1.021  13.353 -0.1194  0.4722  0.3518
12658SOL    HW155584  10.634   1.104  13.400  0.5386  0.6326  0.2212
12658SOL    HW255585  10.627   0.954  13.419  1.2225  0.6853  0.9613
12659SOL     OW55586   7.519   3.075   0.890 -0.9263  0.5197  0.2880
12659SOL    HW155587   7.503   2.984   0.866 -0.9352 -0.0181  2.1454
12659SOL    HW255588   7.441   3.122   0.860 -1.4335 -0.2992  0.3003
12660SOL     OW55589   7.784  11.319  10.283  0.3649  0.0504  0.0452
12660SOL    HW155590   7.802  11.404  10.323 -0.8655  0.6392 -0.6008
12660SOL    HW255591   7.852  11.308  10.217  0.1379  0.8552 -0.3323
12661SOL     OW55592   1.348   4.789   7.949  0.2582  0.3451 -0.3531
12661SOL    HW155593   1.344   4.864   7.890  0.3749 -0.6775 -1.7122
12661SOL    HW255594   1.442   4.780   7.969  0.2948  0.2925 -0.5465
12662SOL     OW55595   4.898   3.747   1.308 -0.6936 -0.1955 -0.3367
12662SOL    HW155596   4.885   3.658   1.276 -0.8608 -0.3400  0.1246
12662SOL    HW255597   4.845   3.752   1.388  0.0102  0.0327  0.1309
12663SOL     OW55598   0.233   9.767   0.998  0.1802  0.0190  0.1258
12663SOL    HW155599   0.150   9.772   1.044  0.6782 -1.3031  1.2329
12663SOL    HW255600   0.225   9.688   0.944  0.5948  0.0657 -0.0061
12664SOL     OW55601   1.160   8.330   9.649 -0.3660  0.2567 -1.0553
12664SOL    HW155602   1.096   8.259   9.647 -0.8921  0.5605  1.4797
12664SOL    HW255603   1.244   8.285   9.660 -0.5938 -0.0269 -0.4008
12665SOL     OW55604   0.893   5.010   9.435  0.2732 -0.5471  0.2244
12665SOL    HW155605   0.845   5.038   9.513 -0.9117  1.0842 -1.0213
12665SOL    HW255606   0.967   5.071   9.430  0.4513 -0.7670  0.1799
12666SOL     OW55607   7.578   7.079  13.374  0.6509  0.0150 -0.1463
12666SOL    HW155608   7.580   7.113  13.463  1.4985  1.2857 -0.6202
12666SOL    HW255609   7.623   7.146  13.322 -1.1524  0.0570 -1.7840
12667SOL     OW55610   6.347  12.281   5.714 -0.0878 -0.8058  0.2584
12667SOL    HW155611   6.433  12.250   5.743 -0.2643 -2.9805 -1.2747
12667SOL    HW255612   6.337  12.245   5.626 -2.8032 -1.0707  0.5823
12668SOL     OW55613   9.284   4.316   2.664  0.4197  0.7566 -0.5254
12668SOL    HW155614   9.301   4.344   2.574  2.8981 -1.6789 -0.9364
12668SOL    HW255615   9.367   4.331   2.710  0.2685 -1.1801  0.4660
12669SOL     OW55616   9.650  12.671   5.228  0.8144 -0.1997 -0.1761
12669SOL    HW155617   9.659  12.654   5.322 -1.2105  0.0494  0.1085
12669SOL    HW255618   9.622  12.588   5.191  1.4418 -0.2510 -0.5461
12670SOL     OW55619   4.680  13.550  11.472 -0.2422 -0.5683 -0.0969
12670SOL    HW155620   4.771  13.527  11.453  0.9434  3.8597 -0.8618
12670SOL    HW255621   4.632  13.523  11.394  0.9328 -0.6338 -0.8252
12671SOL     OW55622   2.319   5.710   2.298 -0.6622  0.3907 -0.0989
12671SOL    HW155623   2.343   5.698   2.390  1.9518  0.4475 -0.6920
12671SOL    HW255624   2.384   5.659   2.250 -0.8186  1.8724 -1.9789
12672SOL     OW55625   3.374  12.105  11.037 -0.3227  0.4325 -0.4676
12672SOL    HW155626   3.332  12.069  10.959 -1.3180  0.6650 -0.0529
12672SOL    HW255627   3.349  12.045  11.107  0.5903  0.2094 -0.3254
12673SOL     OW55628   0.880   1.842  10.400  0.1884  0.0395  0.1008
12673SOL    HW155629   0.942   1.880  10.338  2.2965 -1.6167  1.0694
12673SOL    HW255630   0.864   1.912  10.463 -0.0222  0.9307 -0.9138
12674SOL     OW55631   1.661  10.464   4.758 -0.1236  0.2540 -0.0829
12674SOL    HW155632   1.740  10.494   4.802  0.9445 -1.1418 -0.9681
12674SOL    HW255633   1.683  10.377   4.725 -2.3568 -0.6009  0.4799
12675SOL     OW55634   4.175  11.111  12.342  0.7534  0.1209  0.1741
12675SOL    HW155635   4.095  11.070  12.376 -0.9573  0.5698 -2.9624
12675SOL    HW255636   4.176  11.198  12.381  0.7431 -0.4809  1.6057
12676SOL     OW55637   6.741   8.235   0.792  0.7153 -0.4697 -0.0849
12676SOL    HW155638   6.806   8.254   0.860  0.1226 -1.4623  0.7782
12676SOL    HW255639   6.775   8.156   0.749 -0.1525 -1.2754  0.6891
12677SOL     OW55640  12.030  10.217  12.784 -0.2937  0.5788  0.0291
12677SOL    HW155641  12.126  10.212  12.790 -0.2954 -3.2879 -0.5906
12677SOL    HW255642  12.014  10.299  12.738  2.7851  0.9723 -0.6034
12678SOL     OW55643  12.310   4.464  11.048  1.1093 -0.2954 -0.0853
12678SOL    HW155644  12.300   4.530  10.980  0.8570  0.3747  0.5918
12678SOL    HW255645  12.350   4.510  11.121  0.7103 -0.8301  0.4839
12679SOL     OW55646   2.039  12.985  11.308 -0.0320 -0.1234  0.1902
12679SOL    HW155647   1.999  13.042  11.373 -0.5319 -0.3736  0.1047
12679SOL    HW255648   2.062  12.906  11.356  0.6356  0.1295  0.3025
12680SOL     OW55649   5.280   4.135   7.747 -0.0378  0.4264 -0.0152
12680SOL    HW155650   5.365   4.129   7.703  2.1269  1.6158  3.5987
12680SOL    HW255651   5.241   4.215   7.713  1.8170  1.6158  0.4725
12681SOL     OW55652   5.644   5.492   4.133 -0.2196 -0.2974  0.4951
12681SOL    HW155653   5.706   5.421   4.149  0.0615  0.0877  1.1458
12681SOL    HW255654   5.581   5.486   4.205 -1.6264 -1.3841 -0.7452
12682SOL     OW55655   3.503  12.822   3.136  0.0009  0.2973 -0.1029
12682SOL    HW155656   3.474  12.913   3.134 -0.5800  0.1883  1.5168
12682SOL    HW255657   3.423  12.771   3.146  0.3694 -0.3569 -0.4133
12683SOL     OW55658  11.199   3.605  11.899  0.3282 -0.0682  0.0225
12683SOL    HW155659  11.255   3.534  11.931  0.2519 -0.8824 -1.5574
12683SOL    HW255660  11.137   3.561  11.841  2.1254  1.5876 -3.4396
12684SOL     OW55661  13.731   4.845   0.550  0.2459  0.2275  0.1904
12684SOL    HW155662  13.769   4.910   0.609  0.0524  0.8005 -0.3113
12684SOL    HW255663  13.646   4.882   0.525 -0.8538 -1.2048  1.6096
12685SOL     OW55664   9.280  10.413  13.230  0.7343 -0.0052 -0.0269
12685SOL    HW155665   9.348  10.473  13.201  0.4771  0.0614 -0.4958
12685SOL    HW255666   9.198  10.462  13.221  0.5591 -0.3004 -0.0700
12686SOL     OW55667  13.116  10.467   0.764  1.1536 -0.0111 -0.9936
12686SOL    HW155668  13.115  10.391   0.822 -3.4730  0.4838 -0.0470
12686SOL    HW255669  13.137  10.541   0.822 -3.2139  0.4496  0.3167
12687SOL     OW55670   8.253   7.971   4.138  0.2956 -0.0469 -0.2111
12687SOL    HW155671   8.293   7.996   4.222 -0.4774 -3.3126  1.3178
12687SOL    HW255672   8.169   8.016   4.137  0.3710  0.1474  0.7408
12688SOL     OW55673  10.927  12.701  14.079  0.2356 -0.6133  0.1802
12688SOL    HW155674  10.988  12.651  14.133  0.6476 -0.3922 -0.0772
12688SOL    HW255675  10.970  12.708  13.994 -0.0882 -0.3393  0.0359
12689SOL     OW55676   7.169   2.852   4.723  0.1003 -0.0364  0.9655
12689SOL    HW155677   7.086   2.858   4.771 -0.0308 -0.6228  0.8203
12689SOL    HW255678   7.179   2.759   4.704 -0.5627  0.3280 -1.4312
12690SOL     OW55679  11.061   2.037   2.206  0.6083 -0.0123  0.2487
12690SOL    HW155680  11.107   1.964   2.248  1.9284  0.2410 -0.6668
12690SOL    HW255681  11.104   2.115   2.240  0.3277  0.2686 -0.0341
12691SOL     OW55682   8.315   1.675   2.639  0.4717  0.2013 -0.0849
12691SOL    HW155683   8.351   1.761   2.662 -2.0572  1.2337  0.3112
12691SOL    HW255684   8.350   1.616   2.706 -0.9968  1.7639  2.1848
12692SOL     OW55685   6.198   0.261   6.846  0.1644  0.2950 -0.5589
12692SOL    HW155686   6.165   0.307   6.924  0.6913 -1.8226  1.0190
12692SOL    HW255687   6.289   0.241   6.868 -0.1869 -1.9048 -0.9132
12693SOL     OW55688  10.641   9.068  12.691  0.6652  0.2618 -0.8592
12693SOL    HW155689  10.551   9.036  12.702  0.8782  0.1290  0.6548
12693SOL    HW255690  10.642   9.106  12.603 -0.6427 -0.4770 -1.2171
12694SOL     OW55691   1.578   2.145   2.233 -0.0127 -1.1617 -0.0729
12694SOL    HW155692   1.591   2.134   2.139 -0.2161 -1.4338 -0.0691
12694SOL    HW255693   1.520   2.073   2.259 -1.1862 -0.2237 -0.0134
12695SOL     OW55694   5.924   6.383   2.656  0.0804 -0.0622  0.2769
12695SOL    HW155695   5.879   6.301   2.632  0.1856  0.2446 -1.0714
12695SOL    HW255696   5.870   6.452   2.618  2.0919  0.2869 -2.2717
12696SOL     OW55697   4.127   6.353   3.558 -0.1866  0.3425  0.4295
12696SOL    HW155698   4.074   6.431   3.573 -1.5322 -0.8791  2.4733
12696SOL    HW255699   4.214   6.376   3.587 -0.3949  1.3060  0.3043
12697SOL     OW55700   4.545   9.270   3.694  0.2802  0.1213 -0.0985
12697SOL    HW155701   4.525   9.225   3.612  2.1079 -1.1147  0.0774
12697SOL    HW255702   4.460   9.294   3.729 -0.6026 -0.4445 -1.7336
12698SOL     OW55703  11.440   4.345   8.841 -0.8520  0.1304 -0.0775
12698SOL    HW155704  11.506   4.393   8.791  0.3531 -1.8837 -0.5469
12698SOL    HW255705  11.428   4.395   8.921  1.1815  0.6104 -0.0307
12699SOL     OW55706  12.168  11.538   1.713 -0.5696 -0.0568  0.4734
12699SOL    HW155707  12.158  11.493   1.629 -0.8100 -0.7883  0.8896
12699SOL    HW255708  12.079  11.546   1.746 -0.3445 -1.2668  1.4282
12700SOL     OW55709  10.179   1.312  11.772  0.0451 -0.0970  0.5642
12700SOL    HW155710  10.149   1.231  11.813  1.5134 -0.8666  0.1839
12700SOL    HW255711  10.206   1.368  11.845  0.1471 -0.4173  0.7710
12701SOL     OW55712  12.320   1.710   8.079 -0.4797 -0.4926  0.4390
12701SOL    HW155713  12.353   1.790   8.037 -0.0951 -0.3775  0.9477
12701SOL    HW255714  12.235   1.735   8.115 -0.5938 -0.4577  0.1451
12702SOL     OW55715   5.489   2.655   9.152 -0.2952 -0.4061  0.3379
12702SOL    HW155716   5.572   2.701   9.139 -0.8734  1.2727  2.0871
12702SOL    HW255717   5.422   2.720   9.131 -1.1711 -1.4759 -0.2422
12703SOL     OW55718  13.963   6.359  11.669  0.5081 -0.1955  0.3414
12703SOL    HW155719  14.039   6.381  11.614  0.0581 -1.1777 -0.7123
12703SOL    HW255720  13.965   6.263  11.675 -0.5641 -0.2188  0.4191
12704SOL     OW55721   1.387   1.859  11.925 -0.0910 -0.1453  0.2939
12704SOL    HW155722   1.306   1.874  11.973 -1.4157 -0.1107 -1.8048
12704SOL    HW255723   1.403   1.942  11.879 -1.3537 -1.3934 -2.6876
12705SOL     OW55724   6.363   9.138   4.655 -0.6683 -0.2614 -0.3164
12705SOL    HW155725   6.412   9.140   4.737  0.0011  0.3981 -0.7265
12705SOL    HW255726   6.337   9.046   4.645 -1.4852 -0.2045  1.0416
12706SOL     OW55727   7.344   5.468   9.186  0.2218  0.6096 -0.4038
12706SOL    HW155728   7.385   5.553   9.168  1.7101 -0.1515 -0.7937
12706SOL    HW255729   7.345   5.422   9.102 -0.4242  0.1375 -0.1610
12707SOL     OW55730   2.139   8.356   6.278  0.8596 -0.2682 -0.3783
12707SOL    HW155731   2.188   8.373   6.358  2.5407 -2.2663 -0.8850
12707SOL    HW255732   2.062   8.306   6.306  1.1433 -0.4678  0.0549
12708SOL     OW55733  10.669   9.998   3.181  0.0885 -0.5138 -0.6143
12708SOL    HW155734  10.715  10.074   3.147 -0.9597 -0.3864 -1.8003
12708SOL    HW255735  10.620  10.031   3.256  1.6463 -0.5961  0.5013
12709SOL     OW55736  12.486   4.833   5.964  0.6948  0.2048 -0.2592
12709SOL    HW155737  12.527   4.808   5.881 -0.8600  0.4671 -1.1630
12709SOL    HW255738  12.392   4.821   5.948  0.3909 -0.2019  1.6407
12710SOL     OW55739   9.344   6.782   7.567 -0.3071 -0.2220 -0.4117
12710SOL    HW155740   9.256   6.744   7.563 -0.7920  0.7615  0.4601
12710SOL    HW255741   9.386   6.737   7.641 -0.0214 -0.7724 -0.8979
12711SOL     OW55742  11.340   4.637  11.117  0.3972 -0.3975  0.5927
12711SOL    HW155743  11.300   4.668  11.198 -0.7576 -0.7238  0.1695
12711SOL    HW255744  11.365   4.546  11.135  1.2809 -0.0938  0.9626
12712SOL     OW55745   5.177   1.982  10.555  0.2372  0.7482  0.3854
12712SOL    HW155746   5.102   2.028  10.518 -0.9087 -0.7138  0.8293
12712SOL    HW255747   5.227   1.952  10.478 -0.6617  0.0916  0.0436
12713SOL     OW55748   2.705  12.732   8.736 -0.3116  0.3784 -0.0235
12713SOL    HW155749   2.615  12.735   8.703  0.0804 -0.3978 -1.2502
12713SOL    HW255750   2.706  12.796   8.807 -1.5193  1.3053 -0.7803
12714SOL     OW55751   5.632   0.690  13.555 -0.5610  0.2032 -0.4518
12714SOL    HW155752   5.674   0.641  13.626  2.5916  1.0786 -1.5574
12714SOL    HW255753   5.695   0.758  13.532 -2.2324  1.0541 -2.9262
12715SOL     OW55754   1.614  10.090   3.604 -0.2177  0.8568  0.1985
12715SOL    HW155755   1.648  10.103   3.693  0.5861 -1.9121  0.3834
12715SOL    HW255756   1.666  10.150   3.551  0.5498  1.2856  1.3736
12716SOL     OW55757   8.779  13.037   5.595 -0.2485 -0.3102  0.2137
12716SOL    HW155758   8.727  13.092   5.537  2.6446  1.0049 -1.3859
12716SOL    HW255759   8.811  13.096   5.663  1.4875 -0.3166 -0.5388
12717SOL     OW55760   0.045   2.527  13.414 -0.2426 -0.0318  0.8235
12717SOL    HW155761  -0.021   2.596  13.408 -0.2516  0.0601  1.7569
12717SOL    HW255762   0.103   2.556  13.485 -0.2639 -0.9839  1.2490
12718SOL     OW55763   3.202   5.259   0.244  0.1196 -0.2816  0.2821
12718SOL    HW155764   3.134   5.201   0.281  1.0468 -1.6950 -0.1433
12718SOL    HW255765   3.164   5.289   0.161 -0.3141 -0.4091  0.4279
12719SOL     OW55766   6.909   5.911   3.852 -0.3657  0.0249  0.1275
12719SOL    HW155767   6.964   5.947   3.783 -0.7238 -0.0009 -0.1727
12719SOL    HW255768   6.830   5.966   3.851 -0.5986 -0.3071  0.1635
12720SOL     OW55769   4.960   5.922  11.243 -0.1611 -0.0195  0.0528
12720SOL    HW155770   4.911   5.848  11.279 -2.4496  0.7873 -1.1905
12720SOL    HW255771   4.974   5.900  11.151 -2.4892  1.7367 -0.8355
12721SOL     OW55772   9.047   8.358   8.691 -0.2087 -0.1526 -0.3760
12721SOL    HW155773   9.111   8.361   8.620 -0.9795  1.7329 -1.0656
12721SOL    HW255774   9.094   8.394   8.767  0.2182 -0.9083 -0.2784
12722SOL     OW55775   1.944   6.086  10.448  0.0180  0.3766  0.0573
12722SOL    HW155776   2.002   6.057  10.519 -0.5135 -1.0435 -0.0765
12722SOL    HW255777   1.986   6.166  10.415  0.8272  0.4867  1.2771
12723SOL     OW55778  11.422  12.717   9.456 -0.1479 -0.5655 -0.0793
12723SOL    HW155779  11.466  12.638   9.488  0.0486  0.7446  3.2921
12723SOL    HW255780  11.348  12.728   9.516  0.5632  2.4586  0.3882
12724SOL     OW55781   7.684   0.596  10.957  0.0735 -0.2239  0.6315
12724SOL    HW155782   7.720   0.543  10.886 -1.9869  0.8880 -1.3570
12724SOL    HW255783   7.710   0.686  10.936  0.2694  0.0342  1.8683
12725SOL     OW55784   5.359  11.576   9.648 -0.0993  0.6497 -0.4412
12725SOL    HW155785   5.345  11.636   9.722  0.4306 -0.1414  0.3217
12725SOL    HW255786   5.454  11.574   9.636 -0.0176 -0.7930  0.2102
12726SOL     OW55787   0.674  10.638   2.847 -0.3023 -0.1407 -0.2640
12726SOL    HW155788   0.660  10.694   2.770  0.1543 -0.5231 -0.6291
12726SOL    HW255789   0.615  10.564   2.833  0.0632 -0.4007 -0.4418
12727SOL     OW55790   0.911  11.085  13.454 -0.2203  0.6616 -0.2282
12727SOL    HW155791   0.915  11.041  13.539 -2.7083 -0.0404 -0.3981
12727SOL    HW255792   0.958  11.027  13.394  0.1518  0.3482  0.3596
12728SOL     OW55793  10.779   2.009   5.293  0.3110 -0.1551  0.1658
12728SOL    HW155794  10.834   1.934   5.270 -0.3893 -0.2691 -1.2517
12728SOL    HW255795  10.707   1.971   5.344 -0.5882 -0.6467 -1.3973
12729SOL     OW55796  11.342  10.464   0.560  0.0105  0.6061  0.5149
12729SOL    HW155797  11.408  10.395   0.567  0.9574  1.3891 -0.2412
12729SOL    HW255798  11.279  10.430   0.497  1.0109  0.7990 -0.6411
12730SOL     OW55799   2.437   3.282   1.652 -0.3027  0.1949 -0.1046
12730SOL    HW155800   2.479   3.201   1.680 -0.1919 -0.3572 -1.7893
12730SOL    HW255801   2.486   3.310   1.576 -0.8894  1.3887 -0.0721
12731SOL     OW55802   1.086   4.499  13.579  0.6784 -0.0134 -0.4602
12731SOL    HW155803   1.059   4.422  13.628 -0.3063 -0.9162 -2.3169
12731SOL    HW255804   1.011   4.558  13.583 -0.2259 -0.9265 -2.4349
12732SOL     OW55805  12.858   2.106   3.885  0.2811 -0.1950  0.3167
12732SOL    HW155806  12.856   2.193   3.846 -0.1108  0.7497  2.2837
12732SOL    HW255807  12.835   2.121   3.977 -1.6553 -2.5956  0.3313
12733SOL     OW55808  11.788   4.887   9.952 -0.0331  0.5803  0.0141
12733SOL    HW155809  11.801   4.849   9.865  0.1520  1.2462 -0.2505
12733SOL    HW255810  11.871   4.870   9.998  0.0353  0.6309 -0.0907
12734SOL     OW55811   1.137   6.616   5.373 -0.0102 -0.4633  0.9217
12734SOL    HW155812   1.056   6.595   5.327  0.3945 -0.1168  0.0231
12734SOL    HW255813   1.145   6.711   5.366  0.1663 -0.4247  1.5464
12735SOL     OW55814   8.741   6.367   2.876 -0.0148 -0.8814 -0.2625
12735SOL    HW155815   8.760   6.365   2.969 -0.3667 -1.7935 -0.2036
12735SOL    HW255816   8.807   6.311   2.835  2.0885  1.8764 -0.9767
12736SOL     OW55817   8.077   5.558   2.391  0.2197 -0.5493 -0.1416
12736SOL    HW155818   8.063   5.501   2.314  1.0403 -1.3107  0.2509
12736SOL    HW255819   7.994   5.604   2.401  0.4106  0.3343 -2.0957
12737SOL     OW55820   1.357   5.949   6.552  0.1446  0.6783  0.8655
12737SOL    HW155821   1.267   5.917   6.543  0.6507 -0.4692 -0.6490
12737SOL    HW255822   1.365   5.971   6.645 -1.5770  0.4569  1.1136
12738SOL     OW55823  11.204   1.602  11.169 -0.3041  0.4083 -0.0701
12738SOL    HW155824  11.261   1.528  11.149 -1.0348 -0.3229  0.4944
12738SOL    HW255825  11.115   1.570  11.152 -0.6133  1.2414 -0.0753
12739SOL     OW55826  10.211   9.021   4.826 -0.0581  0.3538 -0.2446
12739SOL    HW155827  10.167   8.956   4.881 -1.0118 -0.1459 -1.5561
12739SOL    HW255828  10.246   9.085   4.888 -1.6915  0.1765  0.9126
12740SOL     OW55829   4.025   3.506  10.795 -0.0130  0.2162 -0.8340
12740SOL    HW155830   4.056   3.496  10.705 -1.8386  0.1476 -1.5021
12740SOL    HW255831   3.989   3.594  10.798  2.3222  1.2113  0.6263
12741SOL     OW55832   3.306  11.031   9.261  0.0058 -0.8013 -0.3681
12741SOL    HW155833   3.277  10.969   9.194 -0.9519 -2.0932  1.1586
12741SOL    HW255834   3.331  10.976   9.335 -0.3217  0.6143  0.8550
12742SOL     OW55835   3.407   6.424   1.378  0.4956  0.2785 -0.4162
12742SOL    HW155836   3.499   6.442   1.359  1.0767 -0.6178  1.3347
12742SOL    HW255837   3.395   6.333   1.352 -0.3238  0.7945 -1.9772
12743SOL     OW55838  12.809   8.311   0.443  0.2902  0.1602 -0.0541
12743SOL    HW155839  12.790   8.225   0.405  1.4329  0.3434 -1.1063
12743SOL    HW255840  12.761   8.373   0.388 -0.3291  0.2384  0.5515
12744SOL     OW55841   2.385  13.711   4.263 -0.3494 -0.3615  0.2880
12744SOL    HW155842   2.323  13.769   4.308 -0.0983 -0.0219  0.1986
12744SOL    HW255843   2.392  13.746   4.175 -1.3373 -1.4074 -0.2386
12745SOL     OW55844   8.725  11.355   7.743  0.2495  0.1122  0.5329
12745SOL    HW155845   8.697  11.382   7.830  0.3777 -0.4120  0.7407
12745SOL    HW255846   8.644  11.352   7.691  0.3308  1.6791  0.2776
12746SOL     OW55847   1.004  12.690  10.134  0.1703 -0.1256  0.1885
12746SOL    HW155848   0.955  12.772  10.125 -1.7845 -1.3424 -0.9959
12746SOL    HW255849   1.065  12.706  10.206 -1.6808  1.6295  1.4726
12747SOL     OW55850   5.301  13.870  13.720 -0.7669  0.2479  0.3104
12747SOL    HW155851   5.382  13.905  13.755 -1.0376  1.3113 -0.0584
12747SOL    HW255852   5.327  13.818  13.644 -0.4201  0.5070  0.2531
12748SOL     OW55853   0.913   1.359   1.960  0.4549  0.1920  0.1180
12748SOL    HW155854   0.954   1.311   1.888 -0.3878 -0.3934  0.0115
12748SOL    HW255855   0.985   1.408   2.001  0.5793  2.5707 -2.6502
12749SOL     OW55856  13.945   4.037   2.460  0.3089  0.1359 -0.3796
12749SOL    HW155857  13.983   4.001   2.380  2.0845 -1.3099  1.0361
12749SOL    HW255858  13.852   4.048   2.439  0.7808  0.1270 -2.7271
12750SOL     OW55859   1.362  13.693   6.226  0.4166  0.0953  0.3451
12750SOL    HW155860   1.311  13.648   6.158  1.7559 -0.3444 -0.4185
12750SOL    HW255861   1.346  13.786   6.211  1.7569  0.0884 -1.5297
12751SOL     OW55862   3.193  10.001  14.066 -0.1881  0.1092  0.5297
12751SOL    HW155863   3.278  10.043  14.078  0.4145 -0.5492 -1.1352
12751SOL    HW255864   3.210   9.907  14.077 -0.7589 -0.0090  0.4552
12752SOL     OW55865   4.985   3.973   5.178  0.0893 -0.3165  0.5988
12752SOL    HW155866   5.004   3.887   5.215 -1.4082 -1.2630 -0.7223
12752SOL    HW255867   4.892   3.987   5.197 -0.0526  0.3346 -0.4826
12753SOL     OW55868  13.042  13.042  11.377 -0.4281  0.4311  0.1945
12753SOL    HW155869  13.012  13.020  11.466 -0.7700  1.4895  0.3543
12753SOL    HW255870  12.965  13.028  11.322 -0.6911  1.3294  0.3198
12754SOL     OW55871   7.444  11.336   4.411 -0.1346  0.3389  0.2894
12754SOL    HW155872   7.461  11.265   4.473  0.4135  0.2637  0.0557
12754SOL    HW255873   7.386  11.297   4.345  1.1300 -0.2629 -0.5099
12755SOL     OW55874   7.962   1.980  11.468 -0.0565 -0.1658  0.1567
12755SOL    HW155875   7.898   1.910  11.458 -0.5380  0.3244 -0.2009
12755SOL    HW255876   8.040   1.936  11.503 -0.5112 -0.7971  0.3927
12756SOL     OW55877   1.034   5.878   3.152  0.5724  0.2105  0.2273
12756SOL    HW155878   1.126   5.850   3.153 -0.0015 -1.8069  0.7547
12756SOL    HW255879   1.021   5.912   3.064  1.8841  0.7800  0.2243
12757SOL     OW55880  10.214  11.651   4.869 -0.0984  0.1004  0.2566
12757SOL    HW155881  10.142  11.686   4.815 -0.0232 -0.0387  0.0663
12757SOL    HW255882  10.171  11.592   4.930 -0.1249 -0.1283  0.0186
12758SOL     OW55883  11.760   9.695   1.694  0.0820  0.2859 -0.5943
12758SOL    HW155884  11.742   9.767   1.754  1.9143 -1.4348  2.2356
12758SOL    HW255885  11.675   9.654   1.679 -0.4754  0.9470  0.6232
12759SOL     OW55886   3.991   6.054  12.666 -0.0804  0.3318  0.0809
12759SOL    HW155887   3.916   6.014  12.623  1.4375  0.1479 -2.6305
12759SOL    HW255888   4.053   5.982  12.679  0.5096  0.8502  0.1950
12760SOL     OW55889  13.143   4.353  13.255  0.3581  0.2679 -0.3772
12760SOL    HW155890  13.213   4.308  13.208 -0.3772 -0.8271 -0.4598
12760SOL    HW255891  13.145   4.442  13.221  2.1557  0.4729  0.1268
12761SOL     OW55892  13.832  13.032   3.434  0.0049 -0.6364  0.5292
12761SOL    HW155893  13.909  13.078   3.401  0.9203 -2.2825  0.2723
12761SOL    HW255894  13.762  13.053   3.372  0.3745  0.4083  0.4443
12762SOL     OW55895   2.516   4.547   3.001 -0.5984  0.4596  0.3553
12762SOL    HW155896   2.444   4.489   2.976 -1.9602  1.5022  1.6982
12762SOL    HW255897   2.539   4.592   2.919  1.5207 -2.9020 -1.0965
12763SOL     OW55898   8.773  10.908   2.928  0.1950  0.0748  0.1758
12763SOL    HW155899   8.760  10.988   2.978  0.6650  0.4385 -0.2658
12763SOL    HW255900   8.821  10.936   2.850  1.2566 -0.7770  0.4945
12764SOL     OW55901   3.959   4.600   0.753 -0.4760  0.1322  0.2647
12764SOL    HW155902   3.873   4.589   0.714 -0.9228  0.7616  1.0486
12764SOL    HW255903   4.012   4.638   0.683 -1.0240  0.3876 -0.0184
12765SOL     OW55904   2.869  13.773   2.174  0.0837 -0.1766 -0.0116
12765SOL    HW155905   2.852  13.804   2.263  0.0300 -0.6202  0.1326
12765SOL    HW255906   2.955  13.808   2.152  0.2984 -0.4433  0.3857
12766SOL     OW55907  10.998   5.913  12.320 -0.0981  0.0950  0.2435
12766SOL    HW155908  10.903   5.913  12.328 -0.3877  1.3665 -2.1319
12766SOL    HW255909  11.015   5.964  12.240  2.6118  0.5464  1.0101
12767SOL     OW55910   4.024   8.502   7.825 -0.2145 -0.1357  0.0940
12767SOL    HW155911   3.951   8.549   7.785  1.3610  0.8619 -1.8038
12767SOL    HW255912   3.991   8.475   7.911 -2.3471  1.4251 -0.1403
12768SOL     OW55913   3.606  12.514   2.242  0.0048 -0.0555 -0.3326
12768SOL    HW155914   3.615  12.449   2.173 -3.0280  0.3047 -1.2356
12768SOL    HW255915   3.623  12.598   2.198 -2.4086  0.2203 -0.9164
12769SOL     OW55916  12.361   0.808  11.652 -0.0502 -0.6920 -0.0907
12769SOL    HW155917  12.306   0.730  11.665 -1.1063  0.0533  0.0480
12769SOL    HW255918  12.449   0.779  11.675 -0.3273 -1.9877 -0.5426
12770SOL     OW55919  12.508   7.037   4.796 -0.0427 -0.5740  0.3810
12770SOL    HW155920  12.509   6.942   4.811 -1.8303 -1.0707 -2.0066
12770SOL    HW255921  12.435   7.068   4.851  0.1407 -0.6823  0.6887
12771SOL     OW55922   3.426   4.520   6.077 -0.2972  0.3454  0.0572
12771SOL    HW155923   3.469   4.535   5.993  0.7773  1.8103  0.8189
12771SOL    HW255924   3.477   4.571   6.140 -0.5232 -1.4027  1.7843
12772SOL     OW55925   7.208   9.481   6.521 -0.1543 -0.3688  0.2324
12772SOL    HW155926   7.172   9.446   6.602 -0.4054  0.6907  0.5988
12772SOL    HW255927   7.142   9.461   6.455  0.0044 -1.1480  0.3067
12773SOL     OW55928  13.607  12.271   3.239 -0.5760  0.2552 -0.0886
12773SOL    HW155929  13.568  12.193   3.279 -0.0293 -0.0964 -0.2366
12773SOL    HW255930  13.535  12.314   3.194 -0.7564 -0.4865 -0.5111
12774SOL     OW55931   0.593   7.564   2.953  0.2033  0.4745 -0.4192
12774SOL    HW155932   0.557   7.507   2.885  1.9272 -0.8118 -0.3125
12774SOL    HW255933   0.645   7.506   3.008  1.4563  2.0319  0.1157
12775SOL     OW55934   8.018   7.764   7.287 -0.5381  0.2789  0.0593
12775SOL    HW155935   8.085   7.789   7.351  0.2165  0.3397 -0.7420
12775SOL    HW255936   7.990   7.676   7.315  0.8877 -0.3465 -0.3897
12776SOL     OW55937   5.792   0.331   7.025 -0.2011  0.1827  0.8392
12776SOL    HW155938   5.823   0.416   6.994 -0.1140 -0.5431 -1.2233
12776SOL    HW255939   5.805   0.333   7.120 -0.5717  2.5981  0.8845
12777SOL     OW55940   6.234   9.648   5.303 -0.5099 -0.1263  0.1803
12777SOL    HW155941   6.301   9.598   5.350  0.0690  1.1185  0.7244
12777SOL    HW255942   6.153   9.631   5.351 -0.5667 -1.4249 -0.3215
12778SOL     OW55943   9.115   1.278   1.548  0.3214  0.6230  0.3563
12778SOL    HW155944   9.203   1.314   1.545  0.6824 -0.2450  0.2932
12778SOL    HW255945   9.063   1.336   1.491  0.4224  2.1990  1.7763
12779SOL     OW55946   2.496   1.180  12.565 -0.3936  0.1546  0.2148
12779SOL    HW155947   2.565   1.243  12.544  0.0007 -0.8662 -1.9103
12779SOL    HW255948   2.528   1.134  12.642  1.6803 -0.7209 -1.0743
12780SOL     OW55949   1.020  11.690   4.786 -0.1755  0.3468 -0.1328
12780SOL    HW155950   0.949  11.753   4.801 -1.6136 -1.2194 -0.0216
12780SOL    HW255951   1.054  11.671   4.874  0.3678  1.0573 -0.1812
12781SOL     OW55952  12.589   1.963   3.718  0.2322 -0.4425  0.7666
12781SOL    HW155953  12.625   2.047   3.690  1.0819 -1.1481 -0.3481
12781SOL    HW255954  12.506   1.985   3.761  0.1527  0.9127 -0.0358
12782SOL     OW55955   0.351  10.238   3.448  0.0644  0.3196  0.3223
12782SOL    HW155956   0.400  10.158   3.463 -0.5698  0.4136  3.5777
12782SOL    HW255957   0.260  10.210   3.441  0.0302  0.6110 -0.5774
12783SOL     OW55958  13.915   0.435  10.954  0.3125  0.6614  0.1780
12783SOL    HW155959  14.009   0.445  10.969  0.3488  4.8657 -1.5816
12783SOL    HW255960  13.906   0.430  10.859 -1.2689  0.5606  0.3042
12784SOL     OW55961  13.871   1.447   5.108  0.0933  0.1723  0.1862
12784SOL    HW155962  13.815   1.518   5.140 -0.2220 -0.2486  0.5830
12784SOL    HW255963  13.826   1.413   5.031  0.4839  0.7089 -0.2838
12785SOL     OW55964   3.856   1.361   8.114  0.7408  0.1853 -0.4054
12785SOL    HW155965   3.818   1.428   8.170  0.9024  0.9623 -1.2050
12785SOL    HW255966   3.820   1.279   8.148  0.0057  0.7260  0.1650
12786SOL     OW55967  10.201   3.267  10.768  0.2731 -0.1725  0.0230
12786SOL    HW155968  10.153   3.284  10.687  0.5053 -1.0630 -0.3125
12786SOL    HW255969  10.278   3.324  10.763 -0.4752  0.8766  0.3231
12787SOL     OW55970   4.495   2.688  13.665 -0.2503  0.5742  0.6992
12787SOL    HW155971   4.442   2.693  13.745 -1.4491 -0.1228 -0.0299
12787SOL    HW255972   4.576   2.734  13.688 -0.2298 -0.2861  2.5714
12788SOL     OW55973   3.124  10.770  11.570  0.0065 -0.2268 -0.3578
12788SOL    HW155974   3.202  10.763  11.624  0.2575 -1.0040 -0.8067
12788SOL    HW255975   3.058  10.717  11.615  0.2390 -0.9406 -0.8350
12789SOL     OW55976   0.991   8.370  10.504 -0.0300  0.0982 -0.3783
12789SOL    HW155977   1.085   8.385  10.492 -0.0150  0.5279  0.2361
12789SOL    HW255978   0.964   8.437  10.567 -0.8709  0.3516 -0.9962
12790SOL     OW55979   6.346  12.126   1.438 -0.5427  0.0715 -0.3611
12790SOL    HW155980   6.298  12.131   1.521 -0.4634  3.3051 -0.3506
12790SOL    HW255981   6.435  12.101   1.464 -0.5010  1.1073  0.6155
12791SOL     OW55982   3.801  11.925   7.280  0.4607  1.0763  0.2309
12791SOL    HW155983   3.780  11.949   7.190  1.6785  2.5116  0.2903
12791SOL    HW255984   3.850  12.000   7.314 -0.3714  0.7636  2.2437
12792SOL     OW55985   8.867   7.235   1.049  0.3414 -0.0351 -0.6866
12792SOL    HW155986   8.793   7.175   1.052  1.6616 -1.7339  1.1596
12792SOL    HW255987   8.856   7.291   1.125  2.1059 -1.9347  1.0941
12793SOL     OW55988   3.396   1.137   1.189 -0.3248  0.4678  0.4436
12793SOL    HW155989   3.320   1.179   1.148 -0.8598 -1.3064 -0.4824
12793SOL    HW255990   3.465   1.202   1.184 -1.6837  2.0181  1.0187
12794SOL     OW55991   3.611   3.377   7.935 -0.4608  0.0445 -0.4047
12794SOL    HW155992   3.544   3.314   7.907  0.2041 -0.9508  0.1939
12794SOL    HW255993   3.694   3.332   7.919 -0.0160 -0.2599  2.3859
12795SOL     OW55994   2.222  11.821  13.653  0.1951  0.3097 -0.1926
12795SOL    HW155995   2.147  11.764  13.640 -0.0876  0.2869  1.3523
12795SOL    HW255996   2.252  11.843  13.565 -1.9390  0.7633 -0.8544
12796SOL     OW55997   2.318   7.646   6.637  0.0513  0.0897 -0.3364
12796SOL    HW155998   2.395   7.678   6.591  1.3069  0.7024  2.0079
12796SOL    HW255999   2.280   7.724   6.678 -0.4919 -0.5307  0.3713
12797SOL     OW56000  12.151   9.201   0.105  0.9207 -0.2451 -0.1622
12797SOL    HW156001  12.087   9.257   0.149  1.3135 -0.5165  0.7735
12797SOL    HW256002  12.098   9.129   0.070  0.7385 -0.6599  0.9237
12798SOL     OW56003   0.525  12.559   6.903  0.2077  0.1861 -0.1355
12798SOL    HW156004   0.508  12.628   6.838 -2.0767 -1.8000 -1.8322
12798SOL    HW256005   0.459  12.574   6.971  0.1417  0.0461 -0.1698
12799SOL     OW56006   7.270  11.031   5.912  0.5319  0.2973 -0.3812
12799SOL    HW156007   7.201  10.970   5.937  0.5099  0.1846 -0.7143
12799SOL    HW256008   7.284  11.085   5.991  0.8500 -0.4109  0.0586
12800SOL     OW56009   8.003   9.216  11.397 -0.5494  0.0417 -0.1573
12800SOL    HW156010   8.086   9.260  11.411 -0.8936  0.1922  1.6158
12800SOL    HW256011   7.963   9.262  11.323  0.1929  1.0382  0.0486
12801SOL     OW56012  10.153   8.519   3.030  0.4124 -0.0409 -0.4068
12801SOL    HW156013  10.135   8.467   3.109  1.7074 -0.3750 -0.3226
12801SOL    HW256014  10.203   8.594   3.061 -0.5907  0.7714 -0.6767
12802SOL     OW56015   4.422  12.475   2.712  0.0623  0.3294 -0.1286
12802SOL    HW156016   4.448  12.543   2.774  0.2305  0.8730 -0.7743
12802SOL    HW256017   4.464  12.395   2.744  1.1629  0.8499 -0.2134
12803SOL     OW56018   9.473   3.345   3.497 -0.0063  0.0680 -0.1027
12803SOL    HW156019   9.452   3.323   3.406 -0.9073 -0.0728  0.1301
12803SOL    HW256020   9.567   3.365   3.496 -0.2665  1.3740 -1.3233
12804SOL     OW56021  11.371   0.891  10.179  1.0909  0.0899  0.0425
12804SOL    HW156022  11.317   0.969  10.173  1.0636  0.0597 -0.1028
12804SOL    HW256023  11.447   0.909  10.124  0.8283 -0.1947 -0.4278
12805SOL     OW56024   8.184  10.587   7.268 -0.3896  0.2387  0.1786
12805SOL    HW156025   8.116  10.537   7.313 -1.0716 -0.4279 -1.4775
12805SOL    HW256026   8.266  10.550   7.300 -0.8665 -0.8517  0.2014
12806SOL     OW56027   1.349  11.928   2.526 -0.4853  0.4629 -0.0251
12806SOL    HW156028   1.409  11.942   2.453  0.5450 -0.0366  0.7059
12806SOL    HW256029   1.396  11.958   2.603 -0.6336 -1.1366  0.7363
12807SOL     OW56030  12.432   0.077   3.566 -1.0405  0.7241  0.5212
12807SOL    HW156031  12.465   0.136   3.499  0.9829  2.9663  3.2268
12807SOL    HW256032  12.371   0.019   3.520 -0.3086  2.5124 -3.0197
12808SOL     OW56033  12.399   8.707  12.502  0.2186  0.2539 -0.2535
12808SOL    HW156034  12.361   8.777  12.555 -1.5846 -1.8156  1.3488
12808SOL    HW256035  12.491   8.703  12.530  1.3941  4.0415 -2.7850
12809SOL     OW56036   1.827   7.207  11.687 -0.3106  0.2466  0.0004
12809SOL    HW156037   1.895   7.274  11.681  0.3313 -0.5403 -3.0066
12809SOL    HW256038   1.866   7.138  11.740  0.2792  0.8399  0.3544
12810SOL     OW56039   0.196  13.352   0.505 -0.2701 -0.3365  0.2150
12810SOL    HW156040   0.122  13.412   0.506  0.7418  1.0046 -1.1386
12810SOL    HW256041   0.164  13.276   0.457 -0.9788 -0.0780  0.2616
12811SOL     OW56042   8.824  11.564   7.007 -0.4845 -0.3777  0.0626
12811SOL    HW156043   8.865  11.607   6.932 -0.1737 -1.0400 -0.1480
12811SOL    HW256044   8.738  11.606   7.015  0.2886  1.1728  0.6339
12812SOL     OW56045  10.368   5.289   9.919  0.0321  0.7242  0.4790
12812SOL    HW156046  10.394   5.200   9.899 -1.0334  0.7820 -1.4554
12812SOL    HW256047  10.318   5.282  10.000 -0.4510 -0.5257  0.1002
12813SOL     OW56048   5.842   3.794   0.029  0.1655  0.2500 -0.0325
12813SOL    HW156049   5.861   3.791   0.123  1.5440 -2.4796 -0.2917
12813SOL    HW256050   5.748   3.774   0.023  0.3797 -1.1820  0.7689
12814SOL     OW56051  11.696  11.772   8.678 -0.1399 -0.4341 -0.4866
12814SOL    HW156052  11.628  11.837   8.658 -0.5975 -1.1756 -1.4424
12814SOL    HW256053  11.761  11.820   8.728 -1.1898  0.3922  0.1339
12815SOL     OW56054   2.103  11.877   0.803 -0.2819 -0.3183 -0.0537
12815SOL    HW156055   2.111  11.899   0.710  1.5473 -1.5720 -0.2423
12815SOL    HW256056   2.077  11.785   0.804  0.6519 -0.5936  0.6549
12816SOL     OW56057   4.954  13.612   7.374  0.3442  0.0890 -0.2734
12816SOL    HW156058   4.953  13.589   7.467 -1.4723  0.8797 -0.0390
12816SOL    HW256059   4.893  13.550   7.334  1.2606 -0.3661 -0.9866
12817SOL     OW56060   7.031   2.641  12.128 -0.1587  0.1741 -0.1426
12817SOL    HW156061   7.035   2.672  12.219 -1.9637  0.0649  0.0151
12817SOL    HW256062   7.105   2.683  12.085  0.2236  0.9228  1.1836
12818SOL     OW56063  13.558   5.899   2.390 -0.5441  0.3775 -0.0705
12818SOL    HW156064  13.589   5.833   2.329  0.7525  0.6569  0.2634
12818SOL    HW256065  13.612   5.976   2.373 -1.1186  0.9180  0.4706
12819SOL     OW56066  11.470   5.539   0.118  0.4211 -0.3646 -0.2324
12819SOL    HW156067  11.560   5.540   0.085  1.2929  1.8516  1.9387
12819SOL    HW256068  11.473   5.484   0.196 -0.1000 -0.1948 -0.0899
12820SOL     OW56069   8.142  11.962  11.800  0.2332  0.3179 -1.1438
12820SOL    HW156070   8.081  12.005  11.739 -0.6500 -0.4459 -0.8291
12820SOL    HW256071   8.163  12.031  11.864 -1.8945  0.1054 -0.1115
12821SOL     OW56072   0.471   0.879  13.537 -0.0188 -0.2169 -0.4008
12821SOL    HW156073   0.542   0.820  13.513  0.5692 -0.2642  1.3350
12821SOL    HW256074   0.500   0.966  13.509  0.2372 -0.3897 -0.6702
12822SOL     OW56075  10.140   7.536   9.172 -0.3505 -0.0232  0.0253
12822SOL    HW156076  10.191   7.605   9.131  1.5514 -1.6645 -0.5473
12822SOL    HW256077  10.127   7.471   9.102  0.1772 -1.4065  1.1495
12823SOL     OW56078   1.538   2.912   1.832  0.3762  0.0157  0.2703
12823SOL    HW156079   1.510   2.860   1.907 -0.8976  0.3099  0.0369
12823SOL    HW256080   1.631   2.927   1.846  0.3905 -0.8408  1.2318
12824SOL     OW56081   2.449  12.385  11.413  0.0446  0.4221 -0.5859
12824SOL    HW156082   2.496  12.388  11.329  0.3124 -1.4908 -0.5627
12824SOL    HW256083   2.356  12.381  11.388 -0.0281  2.2474 -0.6912
12825SOL     OW56084  12.452   2.952   4.951  0.1435  0.6514  0.1620
12825SOL    HW156085  12.506   3.026   4.923  0.1083  0.5059 -0.3006
12825SOL    HW256086  12.512   2.879   4.959 -0.2700 -0.1031 -2.5701
12826SOL     OW56087   2.634   0.086  13.166 -0.4517  0.0552 -0.3458
12826SOL    HW156088   2.674   0.049  13.087  1.0186  3.2953 -1.3126
12826SOL    HW256089   2.706   0.094  13.228 -1.3738 -1.4150  1.0059
12827SOL     OW56090  12.735  10.522  13.609 -0.0591 -0.0188 -0.3117
12827SOL    HW156091  12.793  10.476  13.549  0.3048  0.4373 -0.3096
12827SOL    HW256092  12.678  10.574  13.552  2.1726  2.7493 -0.2692
12828SOL     OW56093   2.371   2.243   2.955 -0.1026 -0.1099 -0.6298
12828SOL    HW156094   2.463   2.229   2.978  0.2001  0.3245 -1.5412
12828SOL    HW256095   2.323   2.215   3.033  0.6797 -2.1606 -0.7960
12829SOL     OW56096   5.543   0.134   4.712  0.3646  0.1745  0.3117
12829SOL    HW156097   5.626   0.110   4.671 -0.4099 -0.1790 -1.1042
12829SOL    HW256098   5.483   0.146   4.639 -0.5227  1.6718  1.2467
12830SOL     OW56099   8.391   3.816   0.849 -0.1183 -0.2071 -0.5659
12830SOL    HW156100   8.450   3.820   0.924  0.3115  0.0218 -0.9139
12830SOL    HW256101   8.331   3.889   0.861 -0.4707 -0.5721 -0.0954
12831SOL     OW56102  12.191   8.615  12.781 -0.0703 -0.2461  0.1669
12831SOL    HW156103  12.261   8.676  12.758 -0.2508 -0.0153  0.2301
12831SOL    HW256104  12.177   8.564  12.701 -1.0538  0.9033 -0.4336
12832SOL     OW56105  11.247   2.553   5.737 -0.1552 -0.6328 -0.3158
12832SOL    HW156106  11.233   2.570   5.643 -1.7465 -0.1166 -0.0081
12832SOL    HW256107  11.222   2.635   5.780 -1.9665 -1.6743  0.7374
12833SOL     OW56108   4.803   0.930   3.889 -0.1766  0.1568 -0.6432
12833SOL    HW156109   4.865   0.938   3.817 -0.4476 -0.8620 -1.0136
12833SOL    HW256110   4.723   0.971   3.856 -0.1397  0.1738 -0.7121
12834SOL     OW56111  10.155  11.485  12.311  0.0973 -0.3639  0.1432
12834SOL    HW156112  10.063  11.490  12.336 -0.2736  1.7827 -1.3352
12834SOL    HW256113  10.186  11.575  12.314  1.6441 -0.7882 -1.1204
12835SOL     OW56114  10.028   2.534  12.466  0.1919 -0.2440  0.2903
12835SOL    HW156115  10.116   2.565  12.445  0.3503 -0.7905  0.1222
12835SOL    HW256116  10.038   2.440  12.478 -0.3676 -0.3084  0.3047
12836SOL     OW56117   7.033   9.254   7.430 -0.5064  0.2048  0.0640
12836SOL    HW156118   7.036   9.193   7.504  1.0912 -0.6967 -0.6840
12836SOL    HW256119   6.966   9.217   7.372 -0.0707 -0.4468 -0.0370
12837SOL     OW56120  13.672   0.185   8.326  0.0785 -0.3212 -0.3456
12837SOL    HW156121  13.606   0.142   8.271 -0.6705 -0.8763  0.9554
12837SOL    HW256122  13.682   0.272   8.289 -3.2458  0.7058  0.8825
12838SOL     OW56123   3.300  10.997   4.285 -0.1461 -0.3361  0.0340
12838SOL    HW156124   3.358  10.963   4.217  0.5172 -0.2723  0.5542
12838SOL    HW256125   3.358  11.047   4.343 -0.7658 -0.0525  0.4246
12839SOL     OW56126   0.115   6.924   3.227  0.1137  0.3702 -0.7046
12839SOL    HW156127   0.137   6.989   3.160 -3.5880  5.9996  2.5804
12839SOL    HW256128   0.178   6.941   3.297 -0.7159  0.2769  0.0803
12840SOL     OW56129   1.927   5.204   9.828 -0.1897 -0.1506 -0.5970
12840SOL    HW156130   1.903   5.194   9.736 -0.7911  1.4313 -0.6381
12840SOL    HW256131   1.878   5.281   9.857  0.2876 -0.4068  0.9466
12841SOL     OW56132   0.658  11.561  12.485 -0.0618  0.1129 -0.2782
12841SOL    HW156133   0.645  11.626  12.555 -0.2638  0.1785 -0.3749
12841SOL    HW256134   0.656  11.613  12.404 -0.5824 -0.0562 -0.3803
12842SOL     OW56135   1.954   9.106   8.375  0.4742 -0.4012  0.2604
12842SOL    HW156136   1.892   9.171   8.342  1.0264  0.2052  0.3956
12842SOL    HW256137   1.909   9.065   8.450  0.1823 -0.0758  0.2642
12843SOL     OW56138   8.371  11.286   5.865  0.0581  0.5265  0.6309
12843SOL    HW156139   8.278  11.264   5.871 -0.0868  1.3392  1.6774
12843SOL    HW256140   8.415  11.215   5.912 -0.0995  0.5032  0.7461
12844SOL     OW56141   2.607   1.130   2.241  0.0513  0.6040 -0.3361
12844SOL    HW156142   2.629   1.220   2.218  1.2157  0.7325  1.1684
12844SOL    HW256143   2.690   1.083   2.240 -0.7490 -0.9711 -2.9700
12845SOL     OW56144  11.478   9.708  12.689 -0.3112 -0.0243  0.0105
12845SOL    HW156145  11.447   9.684  12.777 -1.8302  0.2195 -0.4374
12845SOL    HW256146  11.422   9.780  12.662 -2.6186 -2.5616 -2.7023
12846SOL     OW56147   5.558   9.354   3.238 -0.0570 -0.1450  0.3708
12846SOL    HW156148   5.626   9.397   3.188 -0.0534  0.1701  0.6435
12846SOL    HW256149   5.533   9.278   3.185  1.2310 -0.8528  0.7381
12847SOL     OW56150   1.734  12.632  13.595 -0.4777 -0.0231 -0.2127
12847SOL    HW156151   1.807  12.667  13.543  1.5203 -0.8971  1.8404
12847SOL    HW256152   1.735  12.682  13.676 -0.4741 -1.7141  0.8954
12848SOL     OW56153   3.406   9.804   7.051  0.2796  0.7000 -0.2888
12848SOL    HW156154   3.314   9.780   7.039  0.1031  1.4670 -0.5060
12848SOL    HW256155   3.426   9.859   6.975  1.2982 -0.5210 -0.9454
12849SOL     OW56156   6.628   1.012   8.806  0.3713 -0.0441  0.1737
12849SOL    HW156157   6.591   1.052   8.727 -0.6863  0.7334  1.0249
12849SOL    HW256158   6.718   1.046   8.810 -0.1177  1.3264  0.2150
12850SOL     OW56159   0.005   8.119   4.041  0.2492 -0.2939  0.8181
12850SOL    HW156160  -0.085   8.093   4.064  0.1585 -0.3140  0.4361
12850SOL    HW256161   0.056   8.095   4.118  0.0067 -0.7184  0.8530
12851SOL     OW56162  12.176   6.234   2.640  0.1553 -0.0089 -0.4192
12851SOL    HW156163  12.230   6.306   2.608  0.4819 -0.1910 -0.2883
12851SOL    HW256164  12.096   6.275   2.671  0.5806  0.3628  0.1953
12852SOL     OW56165   8.129   1.298   9.746 -0.2383 -0.2726  0.4746
12852SOL    HW156166   8.214   1.342   9.741  0.4064 -1.6310 -2.7271
12852SOL    HW256167   8.147   1.217   9.795  0.2948 -0.4626 -0.0202
12853SOL     OW56168   4.537   6.238   6.132 -0.7516  0.2171  0.2571
12853SOL    HW156169   4.483   6.314   6.156 -1.2692  0.2229 -0.8462
12853SOL    HW256170   4.477   6.163   6.138 -1.3369  0.3871 -2.3124
12854SOL     OW56171   7.612   5.741  13.770 -0.4672 -0.1954 -0.7878
12854SOL    HW156172   7.654   5.813  13.724 -0.0198 -0.2708 -0.4942
12854SOL    HW256173   7.626   5.759  13.863 -1.5857  0.0887 -0.6498
12855SOL     OW56174   7.077   9.739  12.463 -0.0316 -0.0494 -0.1133
12855SOL    HW156175   7.072   9.833  12.480  1.7250 -0.2479  1.9077
12855SOL    HW256176   6.994   9.704  12.494 -1.5788  0.9992 -2.7738
12856SOL     OW56177  13.185   8.032  10.308 -0.0397 -0.0694  0.2388
12856SOL    HW156178  13.269   8.051  10.349 -0.2871 -1.9392  1.7803
12856SOL    HW256179  13.133   8.111  10.323  0.8681  0.4323  0.8759
12857SOL     OW56180   4.426  12.207  10.863 -0.5887 -0.4744  0.0407
12857SOL    HW156181   4.359  12.151  10.824  0.4247 -1.8771  0.2331
12857SOL    HW256182   4.377  12.275  10.908 -1.8970 -1.4818  0.2088
12858SOL     OW56183  11.593   7.257   7.052 -0.7544 -0.2049 -0.4761
12858SOL    HW156184  11.642   7.176   7.071 -0.5184 -0.2051 -1.0797
12858SOL    HW256185  11.652   7.309   6.998 -1.9860 -0.8712 -2.5505
12859SOL     OW56186   8.942   8.095   5.729  0.6835  0.3110 -0.1317
12859SOL    HW156187   8.962   8.177   5.685  3.0171  0.5154  1.1690
12859SOL    HW256188   8.895   8.120   5.808 -0.1345  0.2228 -0.5735
12860SOL     OW56189  12.545   3.201   9.199 -0.0447  0.1872  0.5535
12860SOL    HW156190  12.478   3.224   9.134  2.5587  0.0972 -2.3991
12860SOL    HW256191  12.576   3.286   9.232 -0.2567  0.3041  0.4545
12861SOL     OW56192   1.674   3.252   9.697  0.3559 -0.6497  0.1496
12861SOL    HW156193   1.603   3.210   9.745 -0.4764  0.8381  0.2741
12861SOL    HW256194   1.638   3.336   9.670  2.3214  0.5132  0.9488
12862SOL     OW56195   8.590   9.760   2.063 -0.3946 -0.4122 -0.4675
12862SOL    HW156196   8.670   9.802   2.032 -0.1814 -1.8575 -2.0546
12862SOL    HW256197   8.520   9.821   2.040  0.1397  0.3642 -0.0627
12863SOL     OW56198  10.735   2.470   4.355 -0.3401 -0.2110 -0.1742
12863SOL    HW156199  10.804   2.504   4.298 -1.2160  0.6609 -0.7380
12863SOL    HW256200  10.780   2.408   4.412  1.1157  1.1122  0.1842
12864SOL     OW56201   8.458   1.052  12.671 -0.7594 -1.2636 -0.0268
12864SOL    HW156202   8.546   1.040  12.634 -0.5006 -1.4052  0.6300
12864SOL    HW256203   8.401   1.060  12.594 -0.2187 -1.4982 -0.4591
12865SOL     OW56204   0.445  11.761   1.013  0.1691  0.2875 -0.1875
12865SOL    HW156205   0.417  11.672   0.990 -0.7893  0.1435  1.3908
12865SOL    HW256206   0.539  11.760   1.000  0.3633 -1.3682  0.9888
12866SOL     OW56207   2.246   1.826   8.175 -0.5284  0.2866 -0.3406
12866SOL    HW156208   2.204   1.858   8.095  0.3551  2.3643 -0.0369
12866SOL    HW256209   2.243   1.901   8.235  1.6180 -0.2181  0.4687
12867SOL     OW56210   6.736   8.663   9.203 -0.5837 -0.3791 -0.1768
12867SOL    HW156211   6.725   8.740   9.258 -0.4153  0.4965 -1.3268
12867SOL    HW256212   6.680   8.596   9.244 -0.4884  0.2424  1.0139
12868SOL     OW56213   0.274   1.721   5.377  0.0553  0.0797  0.7375
12868SOL    HW156214   0.198   1.664   5.380  2.1900 -3.0015  2.9122
12868SOL    HW256215   0.279   1.759   5.465  1.8578 -1.1699  1.2469
12869SOL     OW56216  11.930  12.967   5.455 -0.3818  0.2220 -0.7742
12869SOL    HW156217  11.896  12.893   5.504 -0.1797 -0.6444 -1.9104
12869SOL    HW256218  11.895  13.044   5.501 -0.2122 -0.5382  0.6912
12870SOL     OW56219   4.940   2.768   7.450 -0.0059  0.2367 -0.3573
12870SOL    HW156220   4.924   2.715   7.529  1.0281  0.3667 -0.0510
12870SOL    HW256221   5.024   2.737   7.417  0.8617  2.0006  0.0962
12871SOL     OW56222  10.833   0.137   0.870 -0.4125  0.0019  0.3503
12871SOL    HW156223  10.876   0.052   0.875 -0.2366 -0.0616 -1.4495
12871SOL    HW256224  10.815   0.149   0.777 -0.0409  2.1123  0.4971
12872SOL     OW56225   3.308   0.494  11.171  0.1274 -0.5128 -0.5717
12872SOL    HW156226   3.295   0.555  11.244 -0.0318  1.0575 -1.8561
12872SOL    HW256227   3.282   0.408  11.206 -2.0496  0.5336  0.5686
12873SOL     OW56228   6.365   1.304  11.937  0.0593  1.0209 -0.2858
12873SOL    HW156229   6.306   1.334  11.868 -0.6339  1.7075  0.5741
12873SOL    HW256230   6.355   1.368  12.007  0.3625  0.0811  0.6591
12874SOL     OW56231   1.140   9.517   2.928  0.2412  0.3817  0.7545
12874SOL    HW156232   1.113   9.594   2.979 -0.5969  0.4524  0.2333
12874SOL    HW256233   1.158   9.450   2.993  0.8003  0.9689  1.2088
12875SOL     OW56234   5.513  13.972   5.968 -0.5606 -0.2333  0.1568
12875SOL    HW156235   5.603  13.940   5.980 -0.8446 -0.9976  0.2931
12875SOL    HW256236   5.514  14.060   6.005  0.1433 -0.2270  0.1339
12876SOL     OW56237   0.504  12.744   5.598  0.2378 -0.4176 -0.1812
12876SOL    HW156238   0.495  12.833   5.565  0.7671 -0.5166 -0.6138
12876SOL    HW256239   0.421  12.725   5.641  1.2927  1.5284  3.0171
12877SOL     OW56240  10.527  12.833   8.928 -0.7147 -0.4513  0.2665
12877SOL    HW156241  10.598  12.817   8.990 -0.2569 -0.8886 -0.3550
12877SOL    HW256242  10.538  12.924   8.901 -1.3826 -0.0144  1.3889
12878SOL     OW56243   7.913  11.286   8.611 -0.4086 -0.2301 -0.2274
12878SOL    HW156244   8.003  11.295   8.578 -0.2273 -0.3441  0.2393
12878SOL    HW256245   7.862  11.262   8.533 -0.0809  0.0898 -0.5454
12879SOL     OW56246  12.683   9.643  10.469 -0.2195 -0.3470 -0.3365
12879SOL    HW156247  12.706   9.697  10.393  1.5732  0.2175  0.5570
12879SOL    HW256248  12.629   9.573  10.433 -0.9464  0.9138 -1.8425
12880SOL     OW56249   1.352   9.518  13.774 -0.4443 -0.3281 -0.0876
12880SOL    HW156250   1.306   9.602  13.785  1.5111  0.8926 -0.7778
12880SOL    HW256251   1.297   9.455  13.821 -1.9870  1.3207  0.4500
12881SOL     OW56252  11.614   2.931   8.617  0.1374 -0.0644 -0.0973
12881SOL    HW156253  11.672   2.990   8.666 -0.7112  0.9513 -0.2916
12881SOL    HW256254  11.545   2.908   8.679  0.0043 -0.1812 -0.2894
12882SOL     OW56255   3.951   2.895   6.767  0.5357  0.8873  0.3021
12882SOL    HW156256   3.970   2.941   6.686 -2.3041  1.3522 -0.1941
12882SOL    HW256257   3.994   2.810   6.757  2.2116  1.7725 -0.6061
12883SOL     OW56258   0.191  13.172   3.060  0.2461 -0.0229  0.0695
12883SOL    HW156259   0.143  13.188   3.141  2.3695 -0.4290  1.5105
12883SOL    HW256260   0.211  13.079   3.062  0.8858  0.0938 -0.5813
12884SOL     OW56261   0.692   6.211  11.065  0.3616  0.1738 -0.3456
12884SOL    HW156262   0.764   6.225  11.004  0.1220 -0.5413 -0.8083
12884SOL    HW256263   0.654   6.127  11.039  0.5082 -0.3565  1.0520
12885SOL     OW56264   1.453   7.602  10.888 -0.3426  0.3714  0.7850
12885SOL    HW156265   1.400   7.554  10.824  0.7929  2.0202 -1.5844
12885SOL    HW256266   1.529   7.546  10.903  2.6098  2.1872 -4.3851
12886SOL     OW56267   2.193   1.925   3.015  0.3324  0.1461  0.2072
12886SOL    HW156268   2.163   2.012   3.041 -0.1566 -0.2287  0.9334
12886SOL    HW256269   2.113   1.879   2.988  0.9100  0.8641 -3.1387
12887SOL     OW56270   2.672   1.022   0.742  0.2622  0.2143  0.5469
12887SOL    HW156271   2.708   1.058   0.661  0.9447 -2.0503 -0.2327
12887SOL    HW256272   2.741   0.966   0.777 -0.3268  0.5002  2.2815
12888SOL     OW56273   2.669   9.641  12.705 -0.2408 -0.4314  0.5193
12888SOL    HW156274   2.703   9.597  12.627  0.5083 -0.4738  0.8628
12888SOL    HW256275   2.730   9.618  12.774 -0.3398  0.4321  0.9071
12889SOL     OW56276  11.563  11.618   1.340 -0.2544 -0.3264 -0.5736
12889SOL    HW156277  11.523  11.540   1.377 -1.0902  0.2809 -0.1694
12889SOL    HW256278  11.495  11.657   1.285  0.0193  0.3348 -0.4551
12890SOL     OW56279   0.729  10.829  11.911 -0.2207 -0.2660  0.0525
12890SOL    HW156280   0.781  10.877  11.847 -1.3695  1.5565  0.4293
12890SOL    HW256281   0.794  10.785  11.966  0.8732  0.8227 -0.3322
12891SOL     OW56282   5.363  13.249   2.929 -0.0273  0.0822 -0.4228
12891SOL    HW156283   5.447  13.260   2.974 -0.0016 -2.2774  0.2138
12891SOL    HW256284   5.326  13.169   2.966 -2.1102  0.5173 -1.4267
12892SOL     OW56285  12.752  10.335   3.270 -0.4745 -0.2900  0.0008
12892SOL    HW156286  12.761  10.259   3.327  1.6307  0.1369  0.3129
12892SOL    HW256287  12.694  10.394   3.318 -1.1663 -1.1853  0.2927
12893SOL     OW56288   7.829  10.390   2.686  0.5175 -0.2498  0.2329
12893SOL    HW156289   7.905  10.339   2.717  0.7634 -0.1268 -0.1591
12893SOL    HW256290   7.756  10.358   2.738  0.6803 -0.9763  0.0292
12894SOL     OW56291   8.153   9.048   0.330 -0.3111 -0.3269  0.4537
12894SOL    HW156292   8.169   8.973   0.387 -0.1057  0.0444  0.8903
12894SOL    HW256293   8.238   9.066   0.290 -0.4584 -0.5958  0.0165
12895SOL     OW56294  12.958   4.313  11.245 -0.0161  0.2590  0.1013
12895SOL    HW156295  13.047   4.284  11.223 -0.3823 -0.4590 -0.4807
12895SOL    HW256296  12.956   4.405  11.218  0.5913  0.3198  0.2454
12896SOL     OW56297   6.603   6.781  11.279 -0.3414 -0.1601  0.1787
12896SOL    HW156298   6.668   6.727  11.325  1.1107  0.7900 -0.6851
12896SOL    HW256299   6.568   6.839  11.347 -0.6518 -0.9804  0.7479
12897SOL     OW56300   2.089  12.874   2.643 -0.1119 -0.1792  0.2637
12897SOL    HW156301   2.177  12.911   2.645 -0.1166 -0.0588 -0.9382
12897SOL    HW256302   2.064  12.875   2.551 -0.9201 -1.2898  0.4376
12898SOL     OW56303   1.080  10.446  11.213  0.3311  0.5003  0.4820
12898SOL    HW156304   1.159  10.460  11.160  0.5734 -1.2364  0.3305
12898SOL    HW256305   1.077  10.522  11.271  1.1851  1.4387 -0.6396
12899SOL     OW56306   1.594   2.657   6.411  0.3639 -0.3148 -0.0633
12899SOL    HW156307   1.521   2.663   6.472  1.2475  0.2042  0.9829
12899SOL    HW256308   1.660   2.605   6.458  0.9900 -0.0722 -0.6544
12900SOL     OW56309   7.299   6.855   0.644  0.1591 -0.1396  0.2136
12900SOL    HW156310   7.300   6.775   0.696  2.5894 -1.1439 -1.1950
12900SOL    HW256311   7.389   6.866   0.615 -0.3305  2.5081 -0.6067
12901SOL     OW56312   6.167   5.946   3.039  0.4954  0.2061  0.2736
12901SOL    HW156313   6.135   5.900   3.116  2.0700  1.1929  1.5923
12901SOL    HW256314   6.119   6.028   3.037  1.3921  0.7789  1.0499
12902SOL     OW56315   7.095  10.923   0.045 -0.2412  0.0557 -0.2604
12902SOL    HW156316   7.077  10.985  -0.026  0.3990 -0.3130 -0.7519
12902SOL    HW256317   7.013  10.919   0.094 -0.0500  1.9166  0.2793
12903SOL     OW56318   9.287   2.996   4.092 -0.5106 -0.4374  0.1996
12903SOL    HW156319   9.320   2.917   4.134  0.7209  0.2533  0.5839
12903SOL    HW256320   9.213   2.966   4.039  0.8070 -2.0794 -0.8000
12904SOL     OW56321   2.555   0.821  12.626 -0.2780  0.1362 -0.1868
12904SOL    HW156322   2.574   0.890  12.690 -0.9987  0.7272 -0.6018
12904SOL    HW256323   2.639   0.774  12.616 -0.1952 -0.0751  1.3042
12905SOL     OW56324   5.210  10.664   4.140 -0.2146 -0.1523  0.2903
12905SOL    HW156325   5.265  10.653   4.063  0.0170 -1.1019  0.5788
12905SOL    HW256326   5.265  10.713   4.202 -0.9287  1.9753 -0.6663
12906SOL     OW56327   1.382   6.088   5.286 -0.0096  0.3110  0.0264
12906SOL    HW156328   1.436   6.079   5.207  0.1074  0.1842  0.1206
12906SOL    HW256329   1.310   6.146   5.260  0.3684  0.7699  0.0014
12907SOL     OW56330  10.889  13.869   9.747  0.1775  0.6117 -0.4430
12907SOL    HW156331  10.965  13.897   9.695 -0.5914  1.3614 -1.2006
12907SOL    HW256332  10.924  13.803   9.807  1.6680  1.8167  0.0696
12908SOL     OW56333   6.155  11.571  12.791  0.1760  0.3373 -0.0777
12908SOL    HW156334   6.075  11.519  12.783 -0.7543  1.9316 -1.9580
12908SOL    HW256335   6.222  11.509  12.820 -0.7056 -2.0927 -2.7862
12909SOL     OW56336   6.919  12.202  12.791  0.1954  0.3523  0.7839
12909SOL    HW156337   6.871  12.266  12.738  1.5286  0.5555 -0.2571
12909SOL    HW256338   6.865  12.123  12.789 -0.3316  0.7165  0.0637
12910SOL     OW56339   8.836   7.873   3.598 -0.0003  0.0946 -0.3814
12910SOL    HW156340   8.926   7.906   3.595  0.2131 -0.4241  0.2371
12910SOL    HW256341   8.805   7.880   3.507  0.6567  0.2774 -0.5972
12911SOL     OW56342   5.594   2.000   1.175 -0.4334 -0.9451 -0.0627
12911SOL    HW156343   5.519   1.995   1.116 -0.2770  0.0917 -0.3691
12911SOL    HW256344   5.555   2.011   1.262 -0.6448  0.3487 -0.3069
12912SOL     OW56345   2.863   0.821  13.335  0.6534  0.6306 -0.2043
12912SOL    HW156346   2.930   0.855  13.276  0.1396  0.7434 -0.7260
12912SOL    HW256347   2.849   0.731  13.305  0.6433  0.5732 -0.0277
12913SOL     OW56348   1.972   8.392   7.335  0.4230 -0.1126  0.1032
12913SOL    HW156349   1.895   8.335   7.337 -0.2951  0.7809 -0.9919
12913SOL    HW256350   1.942   8.475   7.371  0.3970  0.7556 -1.7921
12914SOL     OW56351   7.566   6.252   0.124  0.0402  0.0060 -0.5494
12914SOL    HW156352   7.644   6.268   0.070 -0.7568  2.0903 -1.2126
12914SOL    HW256353   7.565   6.326   0.186 -1.5529  0.1811 -0.7553
12915SOL     OW56354   0.295   7.078  13.262 -0.6646 -0.0895 -0.2418
12915SOL    HW156355   0.295   7.096  13.168 -1.2803 -0.5532 -0.3347
12915SOL    HW256356   0.205   7.095  13.290 -0.5860 -0.3564  0.1841
12916SOL     OW56357  12.991  10.791  12.129 -0.3672  0.2956 -0.2008
12916SOL    HW156358  12.974  10.827  12.216  2.4743  1.3099  0.0174
12916SOL    HW256359  13.047  10.715  12.145 -0.4575  0.0301 -1.1095
12917SOL     OW56360   6.289   1.880   5.013 -0.2607  0.1845  0.5129
12917SOL    HW156361   6.220   1.856   5.075 -1.3266  0.8936 -0.3503
12917SOL    HW256362   6.305   1.800   4.963  0.1958 -0.2290  1.3064
12918SOL     OW56363   7.318   6.091  14.082  0.9387  0.2819 -0.1193
12918SOL    HW156364   7.336   5.999  14.063 -1.6387 -0.1798 -0.6879
12918SOL    HW256365   7.401   6.135  14.064  2.5469 -2.0044  1.1072
12919SOL     OW56366  12.572  11.028  11.591 -0.2497 -0.1487  0.3675
12919SOL    HW156367  12.640  11.045  11.657 -0.8816 -0.4687  1.1116
12919SOL    HW256368  12.515  11.105  11.594 -0.3184 -0.1933  0.2337
12920SOL     OW56369  10.274   2.981   6.705  0.2616  0.2789 -0.2976
12920SOL    HW156370  10.282   2.946   6.616 -0.0438 -1.0544  0.1616
12920SOL    HW256371  10.193   2.942   6.738  0.9053 -0.0875  0.9154
12921SOL     OW56372  13.553  12.089   2.526 -0.0790  0.3484 -0.1980
12921SOL    HW156373  13.587  12.029   2.593 -0.4547  0.7948  0.4023
12921SOL    HW256374  13.612  12.163   2.528 -0.7391  0.8705  0.4447
12922SOL     OW56375   3.857   9.580   4.431  0.4856 -0.1843  0.4517
12922SOL    HW156376   3.880   9.525   4.506 -1.0285 -1.4292  0.0671
12922SOL    HW256377   3.824   9.519   4.365 -2.2160  1.2198  0.3622
12923SOL     OW56378   2.854   8.153   1.177  0.3810  0.1389 -0.4934
12923SOL    HW156379   2.787   8.179   1.114  0.1197 -2.4592 -1.4261
12923SOL    HW256380   2.807   8.100   1.242  0.6455  2.7478  2.0313
12924SOL     OW56381  11.551   6.872  11.841 -0.4867 -0.1427 -0.1128
12924SOL    HW156382  11.534   6.831  11.756  0.8893 -0.3051 -0.3307
12924SOL    HW256383  11.511   6.959  11.834  1.6169  0.7713 -1.8410
12925SOL     OW56384  11.279   3.884  10.685  0.6222 -0.0537  0.2895
12925SOL    HW156385  11.362   3.926  10.709  2.3483 -1.6895 -2.2697
12925SOL    HW256386  11.262   3.917  10.597 -0.4190 -1.1936  0.0476
12926SOL     OW56387   0.173   7.862  10.271  0.2655 -0.4224 -0.1199
12926SOL    HW156388   0.123   7.924  10.324  0.2127  1.0073 -1.7580
12926SOL    HW256389   0.163   7.778  10.316 -1.4366  0.3377  0.9970
12927SOL     OW56390  11.012   6.544   0.947  0.1409 -0.7948  0.4263
12927SOL    HW156391  10.920   6.561   0.924  0.4200 -0.5048 -0.5169
12927SOL    HW256392  11.023   6.451   0.929 -0.1211 -0.9604  1.1002
12928SOL     OW56393   0.292   3.387   7.907  0.6546  0.0464  0.0751
12928SOL    HW156394   0.208   3.372   7.949 -0.2013  1.5879 -0.9841
12928SOL    HW256395   0.307   3.308   7.855 -0.2015 -0.1907  0.1774
12929SOL     OW56396  13.005   6.186   4.495 -0.2300 -0.2365  0.1320
12929SOL    HW156397  12.954   6.177   4.576 -1.3081  1.5053 -0.3063
12929SOL    HW256398  12.939   6.199   4.427  0.7505  0.4663 -0.7001
12930SOL     OW56399   0.751  12.317   9.175  0.4702 -0.0084  0.1729
12930SOL    HW156400   0.830  12.340   9.224  0.8756  0.2298 -0.5811
12930SOL    HW256401   0.728  12.397   9.127 -0.5973  0.1177  0.8655
12931SOL     OW56402   9.433   1.428   8.301  0.0022 -0.2887 -0.4494
12931SOL    HW156403   9.495   1.486   8.257  1.5190 -1.8539 -0.4950
12931SOL    HW256404   9.381   1.390   8.231  0.2628 -0.3908 -0.5862
12932SOL     OW56405   2.289   7.434  13.030 -0.0311  0.1858 -0.0656
12932SOL    HW156406   2.318   7.431  12.939  0.5279 -0.4802  0.1189
12932SOL    HW256407   2.232   7.510  13.036  1.1975  1.1796 -0.5984
12933SOL     OW56408   7.155   0.644   5.879 -0.1575  0.0244 -0.1910
12933SOL    HW156409   7.147   0.592   5.959  0.7164 -0.0514 -0.1440
12933SOL    HW256410   7.172   0.580   5.810 -2.2225 -0.0489 -0.6917
12934SOL     OW56411   8.993  10.432  13.418 -0.6072 -0.0642  0.1780
12934SOL    HW156412   9.032  10.447  13.503  0.6711 -0.8099 -0.2407
12934SOL    HW256413   8.984  10.519  13.379 -0.6420  0.2230  0.8152
12935SOL     OW56414   5.219   9.512   8.779  0.3328 -0.4706 -0.4573
12935SOL    HW156415   5.187   9.566   8.707 -0.1297 -1.1660 -0.7864
12935SOL    HW256416   5.140   9.474   8.818  0.5269  0.3512  0.8058
12936SOL     OW56417   7.267  10.104   1.096  0.2817  0.1802  0.0219
12936SOL    HW156418   7.197  10.100   1.160  0.6990  1.2913  0.5829
12936SOL    HW256419   7.300  10.015   1.090  1.3676  0.3311  2.6764
12937SOL     OW56420   1.399   4.182  13.503  0.0284  0.0388  0.4135
12937SOL    HW156421   1.402   4.276  13.488  0.7605 -0.1735 -0.8760
12937SOL    HW256422   1.352   4.172  13.586 -1.0361  1.4779  0.0125
12938SOL     OW56423   7.453  12.918   0.781 -0.3849  0.0179  0.5102
12938SOL    HW156424   7.394  12.917   0.706 -0.7382  4.2479  0.4747
12938SOL    HW256425   7.396  12.904   0.857 -0.5957 -0.7792  0.2110
12939SOL     OW56426  10.765  10.824   9.461 -0.5548  1.2146 -0.1554
12939SOL    HW156427  10.858  10.820   9.438 -0.2101  0.5278  1.2357
12939SOL    HW256428  10.730  10.739   9.434  0.0288  0.0702  2.3282
12940SOL     OW56429   3.025   8.192  12.062 -0.8037 -0.2504  0.0352
12940SOL    HW156430   2.966   8.154  11.997 -1.7161  1.2363 -0.0448
12940SOL    HW256431   3.017   8.286  12.051  0.2093  0.0227  1.2758
12941SOL     OW56432  12.125  11.036   7.686  0.0748 -0.0154 -0.1401
12941SOL    HW156433  12.045  11.011   7.639  0.0328 -0.0389 -0.0562
12941SOL    HW256434  12.134  11.130   7.670  0.6823 -0.2288 -1.1314
12942SOL     OW56435   5.084   3.602   3.811 -0.4848 -0.1667 -0.4625
12942SOL    HW156436   5.100   3.509   3.793 -0.3395 -0.0600 -0.8945
12942SOL    HW256437   5.030   3.631   3.737 -1.0870 -0.0670  0.0097
12943SOL     OW56438   6.706   6.805   2.232  0.1247 -0.3376  0.1243
12943SOL    HW156439   6.789   6.850   2.215  0.1541 -0.7373 -0.8568
12943SOL    HW256440   6.639   6.867   2.204  0.1193 -0.3649  0.0777
12944SOL     OW56441   6.844  11.797   7.081  0.2868 -0.3351  0.3536
12944SOL    HW156442   6.937  11.784   7.102  0.5657 -0.7321 -1.0272
12944SOL    HW256443   6.798  11.771   7.161  1.4793  4.0014  2.7863
12945SOL     OW56444   1.543   8.430   7.521  0.0938 -0.5641 -0.0529
12945SOL    HW156445   1.544   8.459   7.430 -0.6893  2.0357  0.6648
12945SOL    HW256446   1.599   8.493   7.567 -0.2124 -1.3005  1.4031
12946SOL     OW56447   4.089   0.923   4.303  0.1567 -0.3176 -0.2906
12946SOL    HW156448   4.083   0.908   4.208  0.5021  1.8700 -0.7166
12946SOL    HW256449   4.007   0.967   4.326  0.4642 -0.0017  0.2300
12947SOL     OW56450   8.470   9.796   5.781 -0.1124 -0.2117  0.9701
12947SOL    HW156451   8.415   9.874   5.788 -0.3731 -0.3637  0.6382
12947SOL    HW256452   8.539   9.810   5.846  1.7313  1.8614 -1.2064
12948SOL     OW56453   5.734   4.032   5.914 -0.2641 -0.3105 -0.2606
12948SOL    HW156454   5.822   3.993   5.918 -0.9338 -1.9271 -0.3706
12948SOL    HW256455   5.677   3.963   5.949 -1.7377 -0.1067 -2.1539
12949SOL     OW56456   4.863   2.946  12.756  0.0336  0.7640  0.2625
12949SOL    HW156457   4.929   2.910  12.816 -0.8105 -0.3306  0.5782
12949SOL    HW256458   4.887   2.910  12.671  0.6402  1.4851  0.1276
12950SOL     OW56459   5.034   6.262   4.800 -0.2063  0.2332  0.0723
12950SOL    HW156460   5.121   6.277   4.837  0.0297  0.8057 -0.6954
12950SOL    HW256461   4.985   6.343   4.820  0.1222  0.8257 -1.3930
12951SOL     OW56462  10.478   3.929  10.444  0.5291  0.2317  0.1583
12951SOL    HW156463  10.504   4.004  10.390  0.5699  0.0015 -0.1456
12951SOL    HW256464  10.383   3.925  10.435  0.3907  1.0007  1.1735
12952SOL     OW56465   7.300   8.992   0.267 -0.6674 -0.0282  0.3946
12952SOL    HW156466   7.360   8.938   0.215  0.0046 -0.3156  1.4232
12952SOL    HW256467   7.346   9.075   0.278  0.7029 -1.0162  3.1527
12953SOL     OW56468  11.977   8.919   9.749 -0.2144  0.1213 -0.4174
12953SOL    HW156469  12.030   8.999   9.748 -0.2629  0.1698  0.3643
12953SOL    HW256470  11.897   8.944   9.794 -0.9790  0.0777 -1.6910
12954SOL     OW56471  13.527   5.232   5.237 -0.0456  0.1549 -0.6581
12954SOL    HW156472  13.582   5.311   5.238 -0.1629  0.2462 -1.0617
12954SOL    HW256473  13.484   5.232   5.322  0.4281  0.1882 -0.4111
12955SOL     OW56474   3.388   0.689   3.573 -0.1067  0.2958 -0.2023
12955SOL    HW156475   3.454   0.731   3.518  1.3087 -2.9896 -1.2810
12955SOL    HW256476   3.433   0.673   3.656  0.1362 -0.9635 -0.5587
12956SOL     OW56477   4.067   4.528  12.970  0.6237 -0.0055  0.4438
12956SOL    HW156478   4.132   4.469  12.933 -2.0696 -1.0290 -3.1842
12956SOL    HW256479   3.987   4.476  12.976 -0.9530  2.2667  0.5889
12957SOL     OW56480   5.436   3.180   4.108  0.3140 -0.3383 -0.1561
12957SOL    HW156481   5.530   3.193   4.095  1.2029 -4.3049  0.8455
12957SOL    HW256482   5.421   3.203   4.199  0.3668 -0.0112 -0.2282
12958SOL     OW56483   1.196   4.863  10.653 -0.1968  0.1159 -0.2115
12958SOL    HW156484   1.255   4.800  10.611 -1.4935 -0.2675 -1.5769
12958SOL    HW256485   1.183   4.830  10.741  0.1971 -0.8016 -0.4905
12959SOL     OW56486  11.632   9.381   7.703  0.0860 -0.0474  0.0994
12959SOL    HW156487  11.553   9.422   7.737 -1.0262  0.0820 -2.4115
12959SOL    HW256488  11.704   9.436   7.734 -0.9390  0.7255  1.1562
12960SOL     OW56489   1.141   8.790  11.653  0.9465 -0.0521  0.4939
12960SOL    HW156490   1.206   8.755  11.591  0.0923  0.0759 -0.5157
12960SOL    HW256491   1.063   8.736  11.638  0.5559  0.3474  1.0634
12961SOL     OW56492   0.496   4.745  11.457  0.2238 -0.1830 -0.0149
12961SOL    HW156493   0.481   4.651  11.457  0.8305 -0.2922 -0.6931
12961SOL    HW256494   0.590   4.754  11.470  0.1223  0.3406  0.3820
12962SOL     OW56495   5.897  13.132   4.167  0.3008 -0.3021  0.1949
12962SOL    HW156496   5.961  13.073   4.207  0.5482  0.2435  0.6173
12962SOL    HW256497   5.909  13.120   4.073  2.4352  1.2415  0.1907
12963SOL     OW56498   8.057  13.794   2.210  0.7134 -0.4653  0.5040
12963SOL    HW156499   7.996  13.814   2.280 -0.3078  0.2099 -0.5366
12963SOL    HW256500   8.143  13.794   2.252  0.1375 -0.0106  1.7269
12964SOL     OW56501  11.742   8.952   3.334 -0.5671 -0.4207  0.3588
12964SOL    HW156502  11.695   8.942   3.416  0.7609 -2.8732  0.9066
12964SOL    HW256503  11.729   8.870   3.288  0.4564  0.0940 -0.9287
12965SOL     OW56504   8.333  13.668   3.464 -0.2820 -0.0505 -0.0283
12965SOL    HW156505   8.290  13.591   3.427 -1.7468  0.2613  0.9459
12965SOL    HW256506   8.290  13.742   3.421  0.1005  0.2576  0.1140
12966SOL     OW56507  13.563  11.246   2.948  0.2174  0.0503  0.3317
12966SOL    HW156508  13.556  11.304   2.872 -1.7449  0.6050  0.8712
12966SOL    HW256509  13.558  11.304   3.023  1.9078 -0.5226  0.9319
12967SOL     OW56510  13.424   8.854   1.105 -0.3798  0.2389 -0.2988
12967SOL    HW156511  13.458   8.850   1.195 -0.5118  1.5841 -0.1691
12967SOL    HW256512  13.340   8.899   1.113 -1.2161 -1.1506 -0.8962
12968SOL     OW56513   2.254  11.493   4.957  0.4235  0.1154  0.2302
12968SOL    HW156514   2.181  11.554   4.970  2.9487  2.8323  3.8034
12968SOL    HW256515   2.245  11.430   5.028  1.1971  0.1497  0.3711
12969SOL     OW56516   8.688   9.810   0.839  0.2931  0.1286 -0.1355
12969SOL    HW156517   8.719   9.887   0.887  0.3898 -0.5571  0.9436
12969SOL    HW256518   8.666   9.747   0.908  0.1608 -0.7799 -0.9962
12970SOL     OW56519   6.515  12.975   5.153 -0.3391 -0.3344  0.3444
12970SOL    HW156520   6.532  13.054   5.203 -1.6533 -0.7656  1.5302
12970SOL    HW256521   6.594  12.962   5.100  0.9709  0.3207  2.0636
12971SOL     OW56522   0.989  12.134   4.618  0.2698  0.0065  0.5217
12971SOL    HW156523   1.016  12.081   4.543 -0.0285 -0.6037  0.8420
12971SOL    HW256524   1.061  12.196   4.631 -0.0502  0.6932 -0.7978
12972SOL     OW56525   6.281  14.049   7.065  0.1786  0.0469 -0.0411
12972SOL    HW156526   6.348  14.090   7.120  2.0853  0.2479 -2.3637
12972SOL    HW256527   6.270  13.961   7.101  0.2122  0.6583  1.5520
12973SOL     OW56528  11.866  13.341   5.677  0.2031  0.2784 -0.6758
12973SOL    HW156529  11.889  13.427   5.714 -0.4519 -0.0966  0.6863
12973SOL    HW256530  11.858  13.356   5.583 -0.1053  1.7635 -0.4355
12974SOL     OW56531   3.718   7.795  11.511  0.0239  0.0923  0.2990
12974SOL    HW156532   3.690   7.840  11.591 -0.7017 -0.7294  0.5222
12974SOL    HW256533   3.812   7.812  11.505  0.0579  0.2666  1.2520
12975SOL     OW56534   7.867  11.772   0.595  0.2107 -0.4889  0.0634
12975SOL    HW156535   7.910  11.785   0.510  0.5074  0.7276  0.3831
12975SOL    HW256536   7.895  11.846   0.648 -1.1573 -0.4321  0.7523
12976SOL     OW56537   3.142   6.391   7.894  0.3751 -0.6270 -0.5468
12976SOL    HW156538   3.073   6.326   7.881  1.0062 -1.1237 -1.5267
12976SOL    HW256539   3.100   6.474   7.870  0.1998 -0.9644 -1.4459
12977SOL     OW56540   9.749  13.852   3.490 -0.1250  0.0349 -0.3187
12977SOL    HW156541   9.777  13.901   3.567  0.8331  0.5107 -0.9510
12977SOL    HW256542   9.769  13.761   3.511  0.7956  0.2378 -0.2755
12978SOL     OW56543   2.448   0.787   8.136 -0.0305  0.4523  0.2388
12978SOL    HW156544   2.439   0.695   8.159 -0.1707  0.3173 -0.3472
12978SOL    HW256545   2.447   0.789   8.040 -1.6296  1.2043  0.2269
12979SOL     OW56546  11.322   4.401   1.935  0.5729 -0.1436  0.1483
12979SOL    HW156547  11.281   4.324   1.895  1.3140  0.2771 -1.5391
12979SOL    HW256548  11.335   4.462   1.862 -0.4148  1.8034  1.5001
12980SOL     OW56549   3.460  13.754   2.460 -0.1478  0.8585  0.1205
12980SOL    HW156550   3.415  13.727   2.380 -1.1444  1.2427  0.5415
12980SOL    HW256551   3.449  13.849   2.463 -0.7124  0.7768  1.0507
12981SOL     OW56552   7.609  12.128   6.038 -0.1604 -0.8011 -0.1233
12981SOL    HW156553   7.546  12.112   6.108  1.6596 -0.1508  1.7757
12981SOL    HW256554   7.563  12.184   5.976 -1.2319  0.2969  1.5865
12982SOL     OW56555   2.367   8.699   3.588  0.2769  0.3334 -0.6153
12982SOL    HW156556   2.311   8.624   3.572 -0.0935  0.8333 -1.7868
12982SOL    HW256557   2.322   8.772   3.546  0.6220  1.2176  0.5104
12983SOL     OW56558  13.474   2.918   2.351 -0.1707  0.1828  0.4150
12983SOL    HW156559  13.437   2.836   2.319  1.2559 -0.8146  1.1804
12983SOL    HW256560  13.399   2.976   2.360 -1.2690 -1.1305  0.1166
12984SOL     OW56561   8.655  11.511   9.699 -0.1789  0.5620  0.3984
12984SOL    HW156562   8.615  11.513   9.786  0.4999  1.1531  0.7110
12984SOL    HW256563   8.615  11.436   9.656  0.8674 -0.9458  1.9101
12985SOL     OW56564  10.870   1.194   1.595 -0.0233  0.2312  0.7271
12985SOL    HW156565  10.842   1.260   1.658  0.3066 -0.3730  1.5264
12985SOL    HW256566  10.899   1.121   1.649  0.2089 -0.3232 -0.1354
12986SOL     OW56567   6.320  10.000  12.915  0.0982 -0.1922  0.0154
12986SOL    HW156568   6.398   9.944  12.909 -0.3790 -0.7301 -2.7333
12986SOL    HW256569   6.251   9.942  12.948 -0.3536 -1.3332 -2.6475
12987SOL     OW56570   6.918  13.100   0.370 -0.5292 -0.1410 -0.3856
12987SOL    HW156571   6.864  13.023   0.358  0.5912 -0.8633 -0.9997
12987SOL    HW256572   6.880  13.166   0.311 -0.9083 -0.5396 -0.5885
12988SOL     OW56573   0.333  12.102  13.536  0.2700 -0.0757  0.2012
12988SOL    HW156574   0.400  12.046  13.498  0.6206 -0.4482  1.3362
12988SOL    HW256575   0.375  12.187  13.547  0.5373 -0.2789  0.8077
12989SOL     OW56576   0.914   3.087  11.453  0.7204 -0.2131  0.1889
12989SOL    HW156577   0.829   3.047  11.471  1.0954 -0.8042  0.6741
12989SOL    HW256578   0.962   3.022  11.402  1.2492 -0.3045  0.7898
12990SOL     OW56579   3.138   2.930   2.764  0.1264  0.0088  0.0577
12990SOL    HW156580   3.154   2.838   2.786 -1.3407 -0.7759 -1.9300
12990SOL    HW256581   3.208   2.953   2.704 -0.4522 -0.3464 -0.7656
12991SOL     OW56582  11.122   7.381   7.459  0.4678  0.0850  0.2630
12991SOL    HW156583  11.099   7.443   7.390  0.3826 -1.0559 -0.7806
12991SOL    HW256584  11.115   7.431   7.540  0.1882  1.3633 -0.5219
12992SOL     OW56585   3.861  12.376   3.978 -0.0439  0.0096 -0.3384
12992SOL    HW156586   3.887  12.316   4.047  2.1234  1.6960  0.4116
12992SOL    HW256587   3.784  12.421   4.012  1.6854  1.6789  1.5991
12993SOL     OW56588  10.270   3.235  11.879 -0.5653  0.1574  0.1551
12993SOL    HW156589  10.316   3.221  11.797 -0.4566  1.6246 -0.0687
12993SOL    HW256590  10.179   3.214  11.860 -0.3846 -0.4173 -0.0776
12994SOL     OW56591   3.849   3.632   6.791 -0.3275  0.3831 -0.0726
12994SOL    HW156592   3.834   3.658   6.882 -0.6010  0.1247 -0.0442
12994SOL    HW256593   3.912   3.697   6.758 -2.6929  2.5227 -0.6728
12995SOL     OW56594   9.543  10.820   4.726  0.1893 -0.6196  0.3835
12995SOL    HW156595   9.629  10.841   4.689  0.3509 -1.3589  0.3296
12995SOL    HW256596   9.533  10.726   4.712  0.7846 -1.1960  3.2726
12996SOL     OW56597   2.772   6.158   6.300 -0.4439  0.0432  0.3671
12996SOL    HW156598   2.793   6.247   6.270 -0.1436 -0.0633  0.2505
12996SOL    HW256599   2.819   6.101   6.239  0.0318 -0.1794  0.9335
12997SOL     OW56600   1.218   0.514   3.645  0.1449 -0.5909  0.1418
12997SOL    HW156601   1.180   0.592   3.606  0.8077 -1.8366 -3.4427
12997SOL    HW256602   1.144   0.454   3.656  0.1460 -0.8001 -0.8681
12998SOL     OW56603   3.405  11.771  11.512  0.1074 -0.2838 -0.0387
12998SOL    HW156604   3.441  11.750  11.598 -0.1811  1.4981  0.5480
12998SOL    HW256605   3.481  11.771  11.454  0.1216 -3.0077 -0.1713
12999SOL     OW56606   0.413   0.006   7.928  0.0156  0.4420  0.1425
12999SOL    HW156607   0.502  -0.024   7.908 -0.0245  0.2104  0.3104
12999SOL    HW256608   0.356  -0.062   7.893 -0.1629  1.2559 -1.2180
13000SOL     OW56609  13.780   6.468   7.875  0.0213  0.4440  0.4512
13000SOL    HW156610  13.870   6.472   7.842  0.0264  1.8985  0.5909
13000SOL    HW256611  13.759   6.558   7.900 -1.2225 -0.0001  1.1157
13001SOL     OW56612  10.576   4.499  13.111 -0.4413  0.0678 -0.2929
13001SOL    HW156613  10.493   4.469  13.075 -0.5530  0.7405 -0.6088
13001SOL    HW256614  10.641   4.477  13.043 -0.1885 -1.3918  0.3819
13002SOL     OW56615   3.116   3.960   9.424  0.0809 -0.2005 -0.0065
13002SOL    HW156616   3.129   3.946   9.330 -1.0473  1.4517 -0.4525
13002SOL    HW256617   3.174   4.033   9.446 -0.1625 -0.1318  0.4272
13003SOL     OW56618  13.748   3.325  10.236  0.0945 -0.0032  0.1582
13003SOL    HW156619  13.818   3.335  10.172  0.5232 -2.4310  0.1246
13003SOL    HW256620  13.684   3.270  10.192  0.7693 -2.4236  1.9691
13004SOL     OW56621   2.373   5.859  13.935  0.2227  0.0103 -0.1471
13004SOL    HW156622   2.336   5.773  13.913  1.3354 -0.4124 -0.4386
13004SOL    HW256623   2.365   5.866  14.030 -1.1157  0.1835 -0.2592
13005SOL     OW56624   9.266   2.380   9.672  0.7795 -0.0223  0.5180
13005SOL    HW156625   9.220   2.359   9.754  0.6942 -0.9684  0.2398
13005SOL    HW256626   9.345   2.327   9.676  0.7322 -0.1380 -0.0498
13006SOL     OW56627   2.802   5.788   7.327  0.4526  0.7310  0.2334
13006SOL    HW156628   2.758   5.774   7.410 -1.8608  2.0931 -0.6645
13006SOL    HW256629   2.873   5.723   7.326 -1.0019 -1.0167  2.1462
13007SOL     OW56630   4.523   5.769  13.452  0.0677 -0.6418 -0.1276
13007SOL    HW156631   4.431   5.790  13.464 -0.1281 -1.2217 -0.5399
13007SOL    HW256632   4.531   5.679  13.484  0.8446 -0.0476  1.4476
13008SOL     OW56633   7.669   7.416   8.847  0.0982 -0.0613  0.2552
13008SOL    HW156634   7.763   7.410   8.829 -0.1698 -0.0481 -1.3079
13008SOL    HW256635   7.655   7.509   8.867  0.6276 -0.3167  2.0140
13009SOL     OW56636   6.349  11.168   2.194  0.2354 -0.0454  0.0428
13009SOL    HW156637   6.430  11.173   2.143  0.1654 -2.3125 -0.3954
13009SOL    HW256638   6.279  11.170   2.129 -0.5125  5.6655  0.5090
13010SOL     OW56639   3.796  13.745   2.079 -0.4228 -0.6638  0.0987
13010SOL    HW156640   3.731  13.816   2.081 -0.3454 -0.5768 -0.3290
13010SOL    HW256641   3.879  13.790   2.061 -0.3829 -0.8638 -0.2369
13011SOL     OW56642  13.245   6.594   1.715  0.0074  0.3337 -0.1197
13011SOL    HW156643  13.194   6.538   1.656  0.1505  0.9614 -0.8591
13011SOL    HW256644  13.336   6.584   1.685  0.0363  0.9345 -0.2409
13012SOL     OW56645   9.902   9.888   8.274 -0.2621 -0.4545  0.7267
13012SOL    HW156646   9.990   9.865   8.244  1.0419  3.5202  0.9897
13012SOL    HW256647   9.896   9.850   8.362  0.7270 -1.6577  0.3036
13013SOL     OW56648  12.567  10.978   9.903 -0.2279 -0.0859 -0.3377
13013SOL    HW156649  12.573  11.054   9.960  0.6400  0.7843 -1.5421
13013SOL    HW256650  12.483  10.938   9.925 -0.3622  0.7920  0.8212
13014SOL     OW56651  13.643   9.920   2.143 -0.4584  0.1292  0.1700
13014SOL    HW156652  13.609   9.882   2.223 -1.1428  0.2388 -0.0641
13014SOL    HW256653  13.616  10.012   2.146 -2.1486 -0.2855 -1.0656
13015SOL     OW56654   7.421   8.964   5.520  0.1542  0.2799  0.2799
13015SOL    HW156655   7.413   8.954   5.425  2.0809  0.4527  0.0692
13015SOL    HW256656   7.468   8.886   5.548 -2.4242 -0.9651  1.4840
13016SOL     OW56657   1.083   1.819  13.286 -0.1973  0.5260  0.2646
13016SOL    HW156658   1.110   1.727  13.289 -2.4998 -0.2100  2.2208
13016SOL    HW256659   1.056   1.834  13.195  1.5130 -0.2749 -0.4044
13017SOL     OW56660   2.044   3.531   6.778  0.0455  0.2306  0.2716
13017SOL    HW156661   1.966   3.478   6.766 -0.0117 -0.0606  1.7375
13017SOL    HW256662   2.015   3.621   6.764  0.4476 -0.0998 -3.7111
13018SOL     OW56663  12.287   6.362  10.395  0.1370  0.5133  0.1697
13018SOL    HW156664  12.374   6.359  10.436  0.2232  1.9577  0.1421
13018SOL    HW256665  12.228   6.325  10.461  0.1449  3.5468  2.0828
13019SOL     OW56666  10.067   7.040  11.692  0.3350 -0.6375  0.1566
13019SOL    HW156667   9.998   7.044  11.626 -1.1114 -1.6190  1.5555
13019SOL    HW256668  10.021   7.030  11.775  2.0030  2.2988  1.5967
13020SOL     OW56669   2.406   1.994   4.115  0.0770  0.5139  0.0691
13020SOL    HW156670   2.389   1.940   4.037 -2.1502  0.9769  0.1720
13020SOL    HW256671   2.412   1.930   4.186  0.0132  0.2188 -0.1825
13021SOL     OW56672   2.478   5.312   2.501 -0.5262  0.6143 -0.1922
13021SOL    HW156673   2.427   5.316   2.420 -1.7650  1.0828  0.5882
13021SOL    HW256674   2.569   5.321   2.472 -0.6844 -1.9556 -1.7899
13022SOL     OW56675   6.205  10.275   5.648  0.0769 -0.1871  0.0319
13022SOL    HW156676   6.276  10.211   5.638  0.1576  0.0161 -0.7791
13022SOL    HW256677   6.141  10.232   5.704  0.5354 -0.6318  0.2238
13023SOL     OW56678   5.546   1.332  10.954 -0.4241  0.3251 -0.1553
13023SOL    HW156679   5.580   1.244  10.970 -0.7634  0.1284 -0.4879
13023SOL    HW256680   5.502   1.356  11.036  1.8623  1.2396  0.8723
13024SOL     OW56681   9.084   3.702   6.770 -0.0240  0.0288  0.4629
13024SOL    HW156682   8.998   3.735   6.742 -0.3143 -0.4453  0.7896
13024SOL    HW256683   9.104   3.633   6.706 -0.0807 -0.1537  0.6438
13025SOL     OW56684   2.003   4.951  10.158 -0.2190  0.1726 -0.1120
13025SOL    HW156685   1.929   5.006  10.184  0.1296  0.5353  0.1372
13025SOL    HW256686   2.017   4.893  10.233 -1.0927 -0.8192 -0.6883
13026SOL     OW56687   0.414   7.207   3.897  0.2400 -0.2521  0.3755
13026SOL    HW156688   0.428   7.288   3.947 -1.1194  0.2361  0.0053
13026SOL    HW256689   0.446   7.138   3.955 -2.1121  0.1898  2.3980
13027SOL     OW56690   4.529  10.789   5.352  0.2121 -0.2794  0.0566
13027SOL    HW156691   4.555  10.870   5.308  1.5267 -1.2407 -0.9902
13027SOL    HW256692   4.582  10.787   5.432  1.1172 -0.6942 -0.5343
13028SOL     OW56693  12.701   8.187   3.611 -0.4206  0.1845 -0.0904
13028SOL    HW156694  12.729   8.170   3.701 -2.5607  1.6760  0.9262
13028SOL    HW256695  12.728   8.277   3.593  0.6933 -0.3485 -1.2769
13029SOL     OW56696   8.867   8.762  10.968  0.2629  0.3990 -0.3782
13029SOL    HW156697   8.960   8.773  10.946  0.0369 -1.1159 -2.3798
13029SOL    HW256698   8.824   8.748  10.883 -1.7324  0.6047  0.5560
13030SOL     OW56699   8.620   7.078   1.137 -0.7875  0.1628  0.2035
13030SOL    HW156700   8.636   7.053   1.228 -0.5645  0.4319  0.2408
13030SOL    HW256701   8.623   6.995   1.089  1.1089  0.2029  0.1635
13031SOL     OW56702   6.151   2.121   6.498  0.0844 -0.1629  0.0950
13031SOL    HW156703   6.166   2.026   6.495  0.0439 -0.1788  0.3425
13031SOL    HW256704   6.238   2.159   6.511  0.1761 -0.1304 -0.5656
13032SOL     OW56705   1.874   4.387  12.890 -0.0217 -0.0665 -0.4161
13032SOL    HW156706   1.923   4.334  12.952  0.7372  0.0668 -0.8898
13032SOL    HW256707   1.941   4.426  12.834 -0.6872 -0.2508 -1.3699
13033SOL     OW56708   1.273   2.252   8.152  0.1930 -0.0722  0.1383
13033SOL    HW156709   1.242   2.173   8.196 -3.0731 -0.6748 -2.7783
13033SOL    HW256710   1.322   2.219   8.077 -2.9857  0.3455 -2.3351
13034SOL     OW56711   5.258  12.671  12.138 -0.2306  0.4300  0.4544
13034SOL    HW156712   5.192  12.608  12.165  0.5805 -1.1343 -1.0473
13034SOL    HW256713   5.339  12.620  12.133  1.4690  2.4928  3.3715
13035SOL     OW56714   7.888  12.775  12.580 -0.1863  0.2602 -1.2346
13035SOL    HW156715   7.838  12.802  12.656  0.9337 -0.3181 -0.2555
13035SOL    HW256716   7.972  12.822  12.588  0.1969 -0.3195 -1.7380
13036SOL     OW56717   2.778  10.086  10.528 -0.0279  0.3277 -0.2793
13036SOL    HW156718   2.702  10.031  10.510  0.1296  0.1462 -0.4010
13036SOL    HW256719   2.780  10.095  10.623 -1.3177  1.9366 -0.3688
13037SOL     OW56720   5.836   4.043   2.008 -0.0701 -0.0592  0.4372
13037SOL    HW156721   5.772   4.024   1.939  1.3160  0.3421 -1.0080
13037SOL    HW256722   5.806   3.991   2.083 -2.0402  0.0817 -0.2004
13038SOL     OW56723   8.577   8.838  14.063 -0.3490  0.0224 -0.3011
13038SOL    HW156724   8.567   8.752  14.021 -0.8732 -0.4243  0.6968
13038SOL    HW256725   8.525   8.897  14.010  0.9204 -0.0258 -1.6637
13039SOL     OW56726   5.880   8.913   3.937 -0.1480 -0.0024  0.0041
13039SOL    HW156727   5.902   8.834   3.887  0.4820  0.1246  0.0706
13039SOL    HW256728   5.788   8.929   3.918 -0.5120 -1.2095  0.6062
13040SOL     OW56729   6.534   9.566   5.130 -0.3979  0.4567 -0.1329
13040SOL    HW156730   6.509   9.574   5.038 -0.9973  1.3472  0.1026
13040SOL    HW256731   6.523   9.653   5.166  0.8561  0.3648  0.5445
13041SOL     OW56732  11.272   5.823   1.028  0.0552  0.0590 -0.1578
13041SOL    HW156733  11.264   5.855   0.939 -1.4198  0.1475 -0.0141
13041SOL    HW256734  11.317   5.739   1.020 -0.9922 -0.4275 -1.0970
13042SOL     OW56735   5.368   4.761   5.101 -0.0020  0.4462 -0.4449
13042SOL    HW156736   5.334   4.706   5.172 -1.0599  0.3113 -1.0392
13042SOL    HW256737   5.457   4.785   5.130 -1.0401  1.9430  1.8136
13043SOL     OW56738   8.418   0.183   4.883  0.2449  0.0757  0.4868
13043SOL    HW156739   8.353   0.114   4.896  0.7645 -0.5948 -0.3881
13043SOL    HW256740   8.501   0.137   4.870  0.4897  0.8219 -0.7432
13044SOL     OW56741   0.239   0.288   3.295  0.0890  0.0785 -0.5336
13044SOL    HW156742   0.159   0.338   3.279 -0.4067 -0.3156  0.5826
13044SOL    HW256743   0.212   0.196   3.289  0.3258 -0.0669  0.3469
13045SOL     OW56744   4.869   5.320  12.708 -0.0417  0.0681 -0.1228
13045SOL    HW156745   4.857   5.239  12.658  0.5017  0.2516 -0.5628
13045SOL    HW256746   4.963   5.336  12.704 -0.1450  0.7128 -0.0259
13046SOL     OW56747   7.334   3.618   7.409 -0.3845  0.1040  0.1685
13046SOL    HW156748   7.265   3.653   7.353  0.6154 -0.1295 -1.2523
13046SOL    HW256749   7.412   3.617   7.354  0.4678 -0.8542  1.3372
13047SOL     OW56750   8.526   6.902  13.370  0.5265 -0.4993 -0.5846
13047SOL    HW156751   8.551   6.932  13.283  0.7385  0.2970 -0.2561
13047SOL    HW256752   8.453   6.959  13.395  0.8843 -0.2999  0.0175
13048SOL     OW56753   5.730   9.921   2.953  0.5173  0.4599  0.3382
13048SOL    HW156754   5.712   9.995   2.895  0.2194  1.4008  1.6040
13048SOL    HW256755   5.816   9.940   2.990  0.1992  0.4644  1.0900
13049SOL     OW56756   3.943   1.640   0.785 -0.4286  0.1954 -0.5156
13049SOL    HW156757   3.952   1.692   0.704 -0.9261  1.3281  0.1355
13049SOL    HW256758   3.883   1.691   0.839  0.4463 -0.1979  0.8572
13050SOL     OW56759  13.066   7.905  13.736  0.5649 -0.1868 -0.2232
13050SOL    HW156760  13.148   7.888  13.782 -0.1776 -0.6921  0.9569
13050SOL    HW256761  13.001   7.849  13.780 -0.8479  1.7138  0.2397
13051SOL     OW56762  13.744  13.441   5.325 -0.1148  0.4142 -0.1867
13051SOL    HW156763  13.815  13.377   5.332  0.3265  0.9016 -0.0777
13051SOL    HW256764  13.779  13.509   5.267 -0.2312  0.9911  0.3986
13052SOL     OW56765   1.435  13.823   4.698  0.2992 -0.2625 -0.1460
13052SOL    HW156766   1.415  13.729   4.703 -1.5920  0.0929 -0.3384
13052SOL    HW256767   1.355  13.863   4.666  0.1796  1.7286  2.3338
13053SOL     OW56768   7.874  13.864  11.363 -0.3774  0.3216 -0.5023
13053SOL    HW156769   7.861  13.811  11.284  1.4060 -0.4037 -0.3658
13053SOL    HW256770   7.968  13.886  11.361 -0.5070  1.0654  0.9328
13054SOL     OW56771   0.904  13.102  11.869 -0.0138 -0.0871  0.4400
13054SOL    HW156772   0.876  13.151  11.947 -0.3632 -1.1250  0.9763
13054SOL    HW256773   0.856  13.143  11.797  1.2305  1.7058  0.5441
13055SOL     OW56774   8.133   4.825  10.597  0.0265 -0.2242 -0.0165
13055SOL    HW156775   8.122   4.875  10.517 -0.4221 -1.5954 -0.8321
13055SOL    HW256776   8.065   4.858  10.656  1.8384  2.5023  0.7672
13056SOL     OW56777   4.965   0.059   5.873 -0.0281 -0.3085 -0.5574
13056SOL    HW156778   4.967  -0.021   5.925  0.8226  0.2896  0.3715
13056SOL    HW256779   4.879   0.096   5.888 -0.5063 -1.1318 -1.1566
13057SOL     OW56780  13.088   7.758   3.442  0.2242 -0.1301  0.2271
13057SOL    HW156781  13.162   7.701   3.422 -0.1320 -0.3018 -0.6210
13057SOL    HW256782  13.118   7.846   3.417 -0.2360 -0.3496 -1.1570
13058SOL     OW56783   9.118   1.249   3.946  0.0361  0.0722 -0.0577
13058SOL    HW156784   9.124   1.175   4.006  0.7543  0.6025  0.5443
13058SOL    HW256785   9.208   1.267   3.921 -0.2529 -0.1038 -1.2717
13059SOL     OW56786   2.733  10.884   8.025 -0.2608 -0.9505 -0.2349
13059SOL    HW156787   2.773  10.808   7.982 -0.3813 -0.9928 -0.2704
13059SOL    HW256788   2.739  10.955   7.961  1.2426 -0.5115  0.3451
13060SOL     OW56789   7.246   2.287  13.801  0.0623 -0.3957 -0.4515
13060SOL    HW156790   7.271   2.244  13.883  1.2666 -0.7449 -0.9843
13060SOL    HW256791   7.253   2.381  13.821 -1.0343 -0.4482  0.2477
13061SOL     OW56792   9.177  10.022   2.218  0.1720  0.1101  0.3861
13061SOL    HW156793   9.090   9.989   2.193  0.7975 -1.0019 -0.4489
13061SOL    HW256794   9.176  10.024   2.313 -1.5644  2.3891  0.3865
13062SOL     OW56795   9.949   9.912   4.923 -0.3196 -0.6809  0.0758
13062SOL    HW156796   9.904   9.923   4.839 -0.3744 -0.0992  0.1820
13062SOL    HW256797   9.995   9.995   4.937  0.1741 -0.9923  0.3356
13063SOL     OW56798   3.521  12.405   2.781 -0.4162 -0.1971  0.8130
13063SOL    HW156799   3.504  12.483   2.730 -0.5983 -0.7764 -0.0247
13063SOL    HW256800   3.457  12.407   2.852  0.0896  0.8062  1.2560
13064SOL     OW56801   2.914   1.963   4.036  0.0002 -0.0816 -0.6165
13064SOL    HW156802   2.885   1.888   4.088  1.5366  0.0925  0.5492
13064SOL    HW256803   2.932   1.926   3.950 -0.0344 -0.8930 -0.2829
13065SOL     OW56804   4.413   2.020   4.351 -0.3384 -0.6005  0.5264
13065SOL    HW156805   4.405   1.939   4.402  1.7066 -1.2378 -0.0505
13065SOL    HW256806   4.328   2.030   4.309 -1.1560 -1.5671  1.8728
13066SOL     OW56807   6.440   3.297  13.058  0.4356 -0.1241  0.0528
13066SOL    HW156808   6.461   3.240  13.131 -0.0798 -2.1551 -1.2981
13066SOL    HW256809   6.349   3.323  13.073  0.3538 -0.4753  0.1619
13067SOL     OW56810   8.233  10.509   3.962  0.2546 -0.2167 -0.3201
13067SOL    HW156811   8.149  10.464   3.977 -0.2727  0.4864 -1.0674
13067SOL    HW256812   8.217  10.599   3.990  0.4695  0.1426 -1.3196
13068SOL     OW56813   4.341   4.694   0.181  0.1250 -0.0256  0.7220
13068SOL    HW156814   4.363   4.604   0.203  0.7166  0.0885  0.6185
13068SOL    HW256815   4.422   4.743   0.193  0.2454  0.2066 -0.7827
13069SOL     OW56816   0.012   3.736   0.388 -0.0239  0.1731  0.3648
13069SOL    HW156817   0.058   3.817   0.370  0.0245  0.4972  1.7782
13069SOL    HW256818  -0.064   3.763   0.441 -1.3264 -0.4478 -1.1029
13070SOL     OW56819   0.881   7.094  11.477  0.2851  0.2541 -0.4186
13070SOL    HW156820   0.967   7.135  11.466  0.2994  0.2759 -0.2246
13070SOL    HW256821   0.899   7.000  11.476  0.3514  0.2611 -0.0642
13071SOL     OW56822   5.258   9.439   1.305 -0.4986 -0.4924 -0.2758
13071SOL    HW156823   5.319   9.511   1.291  1.2863 -1.6129  1.2158
13071SOL    HW256824   5.244   9.436   1.399 -3.0462 -0.2098 -0.5614
13072SOL     OW56825   9.465  12.969   7.339 -0.0979 -0.5150 -0.2373
13072SOL    HW156826   9.472  13.016   7.422  2.7393 -0.9632 -0.1264
13072SOL    HW256827   9.530  12.899   7.345 -0.9149 -1.5419 -2.2542
13073SOL     OW56828  14.044  12.290   1.954 -0.6264  0.2831  0.8051
13073SOL    HW156829  14.132  12.327   1.947 -0.2003 -0.7552  0.4735
13073SOL    HW256830  13.986  12.365   1.947  0.1919  0.8139 -0.6179
13074SOL     OW56831  12.872   8.146   4.926  0.2550 -0.4175  0.3658
13074SOL    HW156832  12.966   8.154   4.940  0.2049 -0.4165  0.7069
13074SOL    HW256833  12.856   8.052   4.921  0.2170 -0.4318  0.7208
13075SOL     OW56834   7.608   3.190   3.276 -0.4477 -0.0489  0.0103
13075SOL    HW156835   7.619   3.229   3.363  0.3383  0.5138 -0.3260
13075SOL    HW256836   7.518   3.212   3.250 -1.0312 -1.0762  1.0837
13076SOL     OW56837   7.003   1.876   7.731  0.1422  0.6703  0.1682
13076SOL    HW156838   6.967   1.923   7.656  0.2995 -0.4931 -0.6626
13076SOL    HW256839   7.087   1.841   7.701 -0.3720 -0.9086  0.4228
13077SOL     OW56840   7.849  11.289  10.636 -0.0949 -0.2926  0.0337
13077SOL    HW156841   7.841  11.360  10.700  0.7465 -2.4471  2.7202
13077SOL    HW256842   7.763  11.285  10.593 -0.2774  2.0418  0.0330
13078SOL     OW56843   7.084   6.774   5.193  0.9659  0.3847 -0.5614
13078SOL    HW156844   7.104   6.708   5.127  0.5864 -1.9294  1.5140
13078SOL    HW256845   7.167   6.822   5.205  1.0253  0.8871 -2.6766
13079SOL     OW56846   3.934   1.323   1.358  0.1958  0.5319 -0.2337
13079SOL    HW156847   4.016   1.346   1.402 -0.8637  1.8601  1.1971
13079SOL    HW256848   3.902   1.247   1.406  1.9246 -1.8936 -2.6544
13080SOL     OW56849   3.531   0.074  10.101  0.2832 -0.1019  0.0313
13080SOL    HW156850   3.484   0.065  10.018  0.3408  1.0574 -0.1462
13080SOL    HW256851   3.595   0.143  10.085  0.4746 -0.0457  0.9670
13081SOL     OW56852   3.567   8.681   4.886 -0.5544 -0.4690 -0.6010
13081SOL    HW156853   3.639   8.639   4.933 -1.8588  0.0909  2.0807
13081SOL    HW256854   3.597   8.685   4.795  2.3910 -1.0866  0.2371
13082SOL     OW56855  10.795   6.639   7.457 -0.6093 -0.0720  0.2593
13082SOL    HW156856  10.868   6.652   7.518 -0.3138  0.9164 -0.2757
13082SOL    HW256857  10.825   6.571   7.397 -0.7567 -0.7863  0.9800
13083SOL     OW56858  11.819   1.438   5.764  0.3693  0.6012 -0.0367
13083SOL    HW156859  11.829   1.530   5.739  2.9597  0.5034  0.3474
13083SOL    HW256860  11.905   1.412   5.796 -0.6305 -1.6273  1.0875
13084SOL     OW56861   3.649   3.811   5.581  0.1138  0.2595  0.2483
13084SOL    HW156862   3.594   3.797   5.504 -0.3245 -1.0600  0.7773
13084SOL    HW256863   3.739   3.801   5.548 -0.0420  0.3679 -0.2153
13085SOL     OW56864   6.171   6.446   6.920  0.4620  0.3544 -0.0411
13085SOL    HW156865   6.172   6.536   6.953 -1.5897  0.0393  1.0512
13085SOL    HW256866   6.206   6.394   6.993 -0.2332  0.0873  0.1147
13086SOL     OW56867   1.614   6.798   0.365 -0.5109  0.0180  0.2122
13086SOL    HW156868   1.644   6.712   0.334  1.9438  0.2723  1.6226
13086SOL    HW256869   1.606   6.850   0.285  0.4700 -0.8042 -0.4562
13087SOL     OW56870   2.597   8.158  12.424  0.2565  0.2870 -0.7431
13087SOL    HW156871   2.516   8.164  12.474 -0.6089  1.0388 -2.1633
13087SOL    HW256872   2.642   8.081  12.459 -2.0626 -1.4103 -1.2696
13088SOL     OW56873  12.579   6.937  12.824  0.2010  0.5193 -0.8525
13088SOL    HW156874  12.580   6.977  12.737  2.3927  1.8786 -0.2743
13088SOL    HW256875  12.558   7.009  12.883 -2.6749 -0.6626 -0.2710
13089SOL     OW56876  10.526   9.943   5.078  0.2251  0.3782  0.3857
13089SOL    HW156877  10.443   9.966   5.037  0.6344  1.9154  0.3413
13089SOL    HW256878  10.516   9.973   5.169  0.8914  1.0119  0.2543
13090SOL     OW56879   7.092   4.843   4.125  0.1983  0.1723  1.0139
13090SOL    HW156880   7.076   4.753   4.154  0.9231  0.4062  2.2254
13090SOL    HW256881   7.032   4.856   4.052  0.9503 -1.6878  0.0117
13091SOL     OW56882   6.914   9.048   0.741  0.4658 -0.1772  0.2454
13091SOL    HW156883   6.820   9.043   0.756  0.4072  3.3515  2.1490
13091SOL    HW256884   6.923   9.046   0.646 -1.6528  0.3808 -0.0205
13092SOL     OW56885  10.063  13.251  11.008 -0.4889 -0.1316 -0.1670
13092SOL    HW156886   9.973  13.281  11.004 -0.2184  0.9385  1.2396
13092SOL    HW256887  10.071  13.208  11.093  0.6628  1.0302  0.3572
13093SOL     OW56888   6.324   5.920  12.766 -0.3828  0.0884  0.7786
13093SOL    HW156889   6.274   5.902  12.686  1.2207  0.4379 -0.3476
13093SOL    HW256890   6.301   5.847  12.825 -0.6658 -0.8515 -0.4391
13094SOL     OW56891  10.226  10.166  11.204  0.5692  0.0244 -0.5644
13094SOL    HW156892  10.298  10.221  11.235 -0.1136  1.9687 -2.1778
13094SOL    HW256893  10.170  10.154  11.281  0.6029  1.8772 -0.1851
13095SOL     OW56894   8.730   0.812   9.561 -0.0722  0.0272 -0.0506
13095SOL    HW156895   8.728   0.795   9.467  0.8667 -0.4739  0.0130
13095SOL    HW256896   8.758   0.903   9.568 -0.9062  0.3159 -0.2627
13096SOL     OW56897   0.728   6.516   9.384 -0.0116 -1.0667  0.0869
13096SOL    HW156898   0.748   6.548   9.296  0.1633 -0.1212  0.4515
13096SOL    HW256899   0.650   6.463   9.374 -1.6132  1.2216 -0.2509
13097SOL     OW56900  11.511   4.243  10.188 -0.3179 -0.7192  0.2252
13097SOL    HW156901  11.557   4.159  10.179 -1.5914 -1.3061 -1.3127
13097SOL    HW256902  11.579   4.309  10.172  0.5851 -1.4602  0.9052
13098SOL     OW56903   2.265   3.504  13.104  0.4038  0.0232 -0.5227
13098SOL    HW156904   2.243   3.593  13.077  0.1838  1.9096  4.8547
13098SOL    HW256905   2.358   3.495  13.082  0.4208  1.5128 -1.1651
13099SOL     OW56906   5.279  13.292   1.449 -0.0980  0.1484  0.9648
13099SOL    HW156907   5.219  13.219   1.457 -0.5274  0.5544  1.6537
13099SOL    HW256908   5.331  13.289   1.530 -1.1511  1.4739  1.7412
13100SOL     OW56909   5.661  12.702  12.854  0.1766 -0.2486 -0.4672
13100SOL    HW156910   5.578  12.670  12.820  1.0948  0.3932 -3.6695
13100SOL    HW256911   5.651  12.798  12.854  0.8337 -0.1778 -0.6293
13101SOL     OW56912  12.726   5.776   3.740  0.1212 -0.6471  0.3650
13101SOL    HW156913  12.696   5.865   3.722  2.7071  0.6969  1.9528
13101SOL    HW256914  12.785   5.755   3.667  0.6364 -0.4332  0.7113
13102SOL     OW56915   0.175   9.364  12.479  0.0997  0.1575 -0.1305
13102SOL    HW156916   0.088   9.326  12.489  0.3674 -0.5300 -0.4005
13102SOL    HW256917   0.164   9.455  12.506 -0.3852 -0.2816  1.2593
13103SOL     OW56918   4.848   1.081  10.200 -0.3777 -0.0074  0.1305
13103SOL    HW156919   4.838   1.170  10.167 -1.9523  0.5835  2.0265
13103SOL    HW256920   4.770   1.035  10.168 -1.3355  0.2736  1.8795
13104SOL     OW56921  13.978   9.261   8.568  0.5356 -0.1128 -0.3096
13104SOL    HW156922  14.022   9.189   8.613 -0.9608 -1.6050 -1.1069
13104SOL    HW256923  13.949   9.319   8.639 -1.6753 -2.3463  0.7839
13105SOL     OW56924  11.584  12.182   8.819 -0.0839  0.0790 -1.0605
13105SOL    HW156925  11.515  12.148   8.762 -0.4510  0.6090 -0.9435
13105SOL    HW256926  11.584  12.277   8.803  1.0544  0.0118 -1.5321
13106SOL     OW56927  11.343   7.173  11.681  0.5139 -0.3213 -0.2588
13106SOL    HW156928  11.439   7.175  11.674  0.5925 -0.8135  0.5334
13106SOL    HW256929  11.319   7.085  11.653  0.3327 -0.3398 -0.0496
13107SOL     OW56930   8.728   5.811   1.232  0.3854 -1.0282  0.0704
13107SOL    HW156931   8.757   5.788   1.144  0.9753 -1.5780  0.3993
13107SOL    HW256932   8.655   5.752   1.250  1.0762 -1.8079  0.4197
13108SOL     OW56933   9.543   2.403   3.027  0.3611 -0.7103 -0.1150
13108SOL    HW156934   9.519   2.349   3.102 -0.7038 -0.3394 -0.1672
13108SOL    HW256935   9.538   2.493   3.059 -1.3476 -0.4803 -0.9346
13109SOL     OW56936   6.628   9.312   5.051  0.3598 -0.6052  0.8918
13109SOL    HW156937   6.721   9.321   5.068  0.2039 -1.5475  2.3847
13109SOL    HW256938   6.593   9.400   5.066  1.3502  0.5447 -2.6141
13110SOL     OW56939   3.152   4.854   0.251 -0.3202  0.4907  0.8238
13110SOL    HW156940   3.230   4.856   0.195 -1.3602 -0.1966 -0.7221
13110SOL    HW256941   3.134   4.761   0.264 -1.6910  0.5986 -0.0620
13111SOL     OW56942   9.492   0.451  13.077  0.1193  0.1293 -0.0330
13111SOL    HW156943   9.450   0.452  13.163  0.0235  0.4659 -0.0826
13111SOL    HW256944   9.453   0.525  13.031 -0.0364 -0.2196 -0.4664
13112SOL     OW56945   4.427   1.234   5.754  0.4242 -0.3861 -0.3001
13112SOL    HW156946   4.337   1.222   5.784  0.7573 -1.9841  0.1594
13112SOL    HW256947   4.441   1.329   5.758 -0.8774 -0.2010  0.6787
13113SOL     OW56948   6.045  12.393   6.683  0.4963 -0.0494  0.7132
13113SOL    HW156949   6.063  12.485   6.703 -0.7702 -0.0785  2.1556
13113SOL    HW256950   6.126  12.347   6.703  0.8975  0.6466  0.7112
13114SOL     OW56951   6.802   2.810  11.594  0.3371  0.3194  0.2488
13114SOL    HW156952   6.797   2.714  11.601 -0.3492  0.3130 -0.2197
13114SOL    HW256953   6.721   2.842  11.634 -0.6190  0.5615 -1.7589
13115SOL     OW56954   6.261   8.927  12.892 -0.0915 -0.0781  0.5298
13115SOL    HW156955   6.324   8.995  12.869 -3.0817  2.1943 -1.6256
13115SOL    HW256956   6.266   8.922  12.988  0.0647  3.4269  0.8144
13116SOL     OW56957   5.444   6.399   3.257  0.0503  0.3077  0.1740
13116SOL    HW156958   5.413   6.437   3.175 -0.9917 -0.1424  0.3477
13116SOL    HW256959   5.373   6.414   3.319  0.6195  0.1913  0.8638
13117SOL     OW56960   1.713   4.051  12.219  0.1985 -0.1765  0.0786
13117SOL    HW156961   1.690   3.962  12.193 -1.3777 -0.2402  1.5432
13117SOL    HW256962   1.646   4.107  12.179  0.0248  0.1309  0.7849
13118SOL     OW56963   5.072   1.357  10.517 -0.2052  0.8326 -0.8752
13118SOL    HW156964   5.073   1.448  10.547 -1.3577 -0.3720  3.4008
13118SOL    HW256965   5.165   1.332  10.515  0.0012  1.0450  2.0030
13119SOL     OW56966   8.180   6.421   5.053  0.0905  0.2373 -0.1058
13119SOL    HW156967   8.199   6.432   4.960 -1.0109 -0.0852 -0.3923
13119SOL    HW256968   8.114   6.488   5.072  0.4575  0.4322  0.4910
13120SOL     OW56969   2.929   9.118   8.063 -0.0087  0.8891  0.0709
13120SOL    HW156970   3.016   9.113   8.023  0.1821  0.2544  0.5520
13120SOL    HW256971   2.869   9.121   7.988  0.2167 -2.3690 -0.3976
13121SOL     OW56972   6.680   7.068   3.325 -0.4977  0.2116  0.0950
13121SOL    HW156973   6.618   7.095   3.393 -1.5992  1.3129 -1.2810
13121SOL    HW256974   6.637   6.997   3.279  0.8933 -1.5920  1.4413
13122SOL     OW56975   8.769   1.095  13.142  0.5314  0.2439  0.4689
13122SOL    HW156976   8.800   1.074  13.230  1.6419 -0.7254 -0.1229
13122SOL    HW256977   8.846   1.127  13.097 -0.0249  0.7140 -0.1645
13123SOL     OW56978   1.061   1.012  12.988  0.3424 -0.5964  0.0677
13123SOL    HW156979   1.074   1.103  12.964 -1.6190  0.0777  1.3236
13123SOL    HW256980   1.113   1.000  13.067  2.5459 -1.3254 -1.3924
13124SOL     OW56981  13.258   4.128   5.898  0.6548  0.4996  0.4708
13124SOL    HW156982  13.190   4.140   5.964 -0.3542 -1.8654 -0.0362
13124SOL    HW256983  13.273   4.215   5.863 -1.6599  1.2030  1.0491
13125SOL     OW56984   2.324   3.993   1.329 -0.0915 -0.2075  0.3750
13125SOL    HW156985   2.382   3.975   1.403  0.3191 -0.1012  0.0825
13125SOL    HW256986   2.236   3.980   1.364  0.1403 -1.5353  0.5078
13126SOL     OW56987   9.311   5.825   3.157  0.0683  0.3212 -0.2419
13126SOL    HW156988   9.305   5.876   3.238  1.1824 -0.0301  0.0694
13126SOL    HW256989   9.327   5.890   3.089  0.3537  0.4947 -0.0082
13127SOL     OW56990   7.713  12.026   8.231 -0.2277  0.2073 -0.5040
13127SOL    HW156991   7.683  11.949   8.279  0.8440  1.0662  1.6821
13127SOL    HW256992   7.808  12.013   8.223 -0.1573  0.9194 -0.8317
13128SOL     OW56993   5.790   7.643   1.546 -0.1751  0.0608  0.2307
13128SOL    HW156994   5.788   7.580   1.474  0.6622  0.2886 -0.0027
13128SOL    HW256995   5.846   7.714   1.515 -1.2349  1.0162  0.4254
13129SOL     OW56996  13.948  13.292   4.602  0.0874  0.7285 -0.2538
13129SOL    HW156997  14.006  13.216   4.600 -2.1632 -1.1247 -2.0926
13129SOL    HW256998  13.947  13.323   4.511 -3.0234 -0.4410 -0.7308
13130SOL     OW56999   1.701   6.411  11.492 -0.0166  0.0878  0.1728
13130SOL    HW157000   1.764   6.340  11.501 -0.2221 -0.1655 -0.3488
13130SOL    HW257001   1.616   6.368  11.489 -0.3315  0.5029  2.0873
13131SOL     OW57002   9.827   7.463  13.564  0.4926  0.0157 -0.4025
13131SOL    HW157003   9.844   7.369  13.555  0.8734  0.0601 -0.1442
13131SOL    HW257004   9.737   7.468  13.597  1.0340 -0.3110  1.1973
13132SOL     OW57005   5.877   7.202   3.379 -0.0532 -0.8790 -0.0251
13132SOL    HW157006   5.853   7.264   3.311 -0.0588 -0.4039  0.4101
13132SOL    HW257007   5.932   7.251   3.439  0.9117 -1.5971 -0.2866
13133SOL     OW57008   0.987   5.430  12.661  0.0482  0.5684 -0.9989
13133SOL    HW157009   1.000   5.472  12.746  0.2491  1.1120 -1.2895
13133SOL    HW257010   1.065   5.377  12.648  0.4959  1.2682 -1.2784
13134SOL     OW57011   1.504   9.373   5.158  0.2732  0.4471  0.4414
13134SOL    HW157012   1.587   9.327   5.145  0.4229  0.0645  2.4780
13134SOL    HW257013   1.523   9.464   5.134  0.9345  0.1370 -0.2605
13135SOL     OW57014   2.454  12.121   3.840  0.5172  0.6009 -0.7620
13135SOL    HW157015   2.400  12.045   3.861  0.6942  0.6712 -0.0432
13135SOL    HW257016   2.497  12.097   3.757  0.6249 -0.1100 -0.5086
13136SOL     OW57017  10.092   9.657   3.551 -0.5286  0.4787 -0.3002
13136SOL    HW157018  10.156   9.587   3.567  0.5102  1.4278 -0.1278
13136SOL    HW257019  10.030   9.620   3.488 -1.3935 -1.4008  1.5461
13137SOL     OW57020  10.276   6.677   2.930 -0.2304  0.1467 -0.2191
13137SOL    HW157021  10.217   6.623   2.877 -0.1562 -1.6554  1.3878
13137SOL    HW257022  10.284   6.759   2.882 -1.1417 -0.9086 -2.3117
13138SOL     OW57023   5.397  12.106  12.753 -0.1155 -0.6218  0.1815
13138SOL    HW157024   5.334  12.140  12.817 -0.2890 -0.9868  0.2074
13138SOL    HW257025   5.372  12.148  12.671  0.6072  0.4729  0.4986
13139SOL     OW57026   9.421   8.792   0.025  0.0626 -0.3618 -0.4663
13139SOL    HW157027   9.444   8.858  -0.041  2.8345 -1.2183 -0.5000
13139SOL    HW257028   9.450   8.709  -0.013  2.7773 -0.7766  2.1267
13140SOL     OW57029  13.790  12.661   0.069 -0.1243 -0.6406  0.1302
13140SOL    HW157030  13.744  12.582   0.094 -1.0639 -0.2616 -0.3329
13140SOL    HW257031  13.763  12.727   0.134  1.3185 -0.8991  1.0192
13141SOL     OW57032  11.602   4.178   6.964 -0.3775  0.2411 -1.0324
13141SOL    HW157033  11.636   4.261   6.932 -1.2840  1.1792  0.3056
13141SOL    HW257034  11.582   4.195   7.057 -2.3109 -0.8838 -1.1897
13142SOL     OW57035  12.232   8.400   1.791  0.1530 -0.3954  0.0098
13142SOL    HW157036  12.257   8.405   1.699 -1.5731  2.2703 -0.4071
13142SOL    HW257037  12.247   8.488   1.825 -3.4858 -0.0341  1.0184
13143SOL     OW57038  13.161   5.491   0.251 -0.2969 -0.2605  0.1723
13143SOL    HW157039  13.083   5.539   0.278  0.5734  1.2676  0.0893
13143SOL    HW257040  13.168   5.509   0.157 -1.5089 -2.9060 -0.5263
13144SOL     OW57041   1.296  13.034   8.861 -0.0088 -0.2553 -0.3873
13144SOL    HW157042   1.360  13.105   8.852 -1.1019  1.7542  4.3557
13144SOL    HW257043   1.349  12.954   8.862  2.4504  1.2013  1.8686
13145SOL     OW57044   2.163   0.025   6.262 -0.0862  0.0191 -0.1495
13145SOL    HW157045   2.096   0.036   6.194  0.1419 -1.9155 -0.7690
13145SOL    HW257046   2.128   0.071   6.338 -2.7447 -1.8848 -0.0620
13146SOL     OW57047  11.181   1.561   4.079  0.2879 -0.2919  0.3480
13146SOL    HW157048  11.127   1.623   4.028 -1.5642 -1.9708  0.1465
13146SOL    HW257049  11.152   1.573   4.169 -1.3048 -1.9232  0.1178
13147SOL     OW57050  14.052  11.705  13.807 -0.2105 -0.1549  0.2895
13147SOL    HW157051  14.025  11.762  13.735 -1.2020 -2.1613 -1.0198
13147SOL    HW257052  14.147  11.695  13.796 -0.1814  0.4252 -0.0359
13148SOL     OW57053  10.085  14.046   7.825 -0.3680 -0.4359  0.1045
13148SOL    HW157054  10.167  14.058   7.872 -1.3184  0.3727  1.6659
13148SOL    HW257055  10.099  13.969   7.770  1.1986 -0.7166  0.8568
13149SOL     OW57056  10.641   5.207   3.760 -0.1857 -0.3718  0.2277
13149SOL    HW157057  10.700   5.240   3.827  1.0749 -0.0099 -1.0018
13149SOL    HW257058  10.560   5.256   3.772  0.7933  1.3461  0.0600
13150SOL     OW57059   9.420   9.067   2.955  0.0498 -0.4549 -0.0421
13150SOL    HW157060   9.476   9.098   2.884 -1.6305  0.7401 -0.9107
13150SOL    HW257061   9.334   9.107   2.938 -1.3673 -2.9347  0.6804
13151SOL     OW57062  10.992   4.314   3.309  0.0776 -0.5731 -0.0107
13151SOL    HW157063  11.088   4.315   3.306  0.0656 -0.8561 -0.6462
13151SOL    HW257064  10.966   4.274   3.226 -0.5941 -0.4118  0.1179
13152SOL     OW57065   8.950  10.164   0.178 -0.6665  0.2156  0.0997
13152SOL    HW157066   9.042  10.141   0.191 -0.8016 -0.1642  0.4120
13152SOL    HW257067   8.950  10.224   0.104 -0.0717  0.9369  0.6805
13153SOL     OW57068   2.578  11.010  11.743 -0.8316  0.5346  0.2861
13153SOL    HW157069   2.497  10.968  11.773 -1.4600  1.3518 -0.2108
13153SOL    HW257070   2.549  11.091  11.701  0.0272 -0.2240 -1.9500
13154SOL     OW57071  13.117   0.298   3.018 -0.3684 -0.2208  0.8622
13154SOL    HW157072  13.135   0.223   2.962  1.2830 -0.0104  1.0403
13154SOL    HW257073  13.040   0.340   2.980 -0.0473 -0.8142 -0.4788
13155SOL     OW57074   4.540   9.570   5.288 -0.1778  0.1861 -0.0835
13155SOL    HW157075   4.546   9.483   5.248 -1.4885 -0.1318  0.3457
13155SOL    HW257076   4.457   9.606   5.255 -0.1565  0.8476  0.5614
13156SOL     OW57077   7.345   1.540   7.880  1.0194 -0.7898  0.0569
13156SOL    HW157078   7.328   1.591   7.801 -1.0394 -0.1323  0.8613
13156SOL    HW257079   7.319   1.451   7.858  0.4663 -0.6105 -0.0213
13157SOL     OW57080   7.027  13.195  10.349  0.0976  0.5590  0.1865
13157SOL    HW157081   7.088  13.257  10.388  0.3113 -0.9511  2.4579
13157SOL    HW257082   6.951  13.248  10.326  1.1488  2.0120 -0.0944
13158SOL     OW57083   4.112   2.945   4.490  0.5622 -0.3488  0.3195
13158SOL    HW157084   4.165   2.875   4.451  0.1044 -1.1077  1.0311
13158SOL    HW257085   4.022   2.913   4.485  0.0691  1.1075 -1.2763
13159SOL     OW57086   9.437   7.518   4.540  0.0318  0.2414 -0.0254
13159SOL    HW157087   9.476   7.479   4.462 -0.8770 -0.4417 -0.1618
13159SOL    HW257088   9.419   7.444   4.598  1.3234  0.8006  1.1486
13160SOL     OW57089   5.830   0.744   4.034 -0.4767 -1.0796  0.2478
13160SOL    HW157090   5.791   0.757   4.120 -1.9738 -1.1517 -0.3751
13160SOL    HW257091   5.924   0.738   4.050 -0.8007 -2.1398  1.9895
13161SOL     OW57092   0.965   9.334   8.855 -0.5379  0.8307  0.0924
13161SOL    HW157093   1.031   9.399   8.828 -1.0304  1.7063  0.9367
13161SOL    HW257094   1.013   9.273   8.911 -0.0306  0.3402 -0.8468
13162SOL     OW57095   9.417   2.183  10.958 -0.5053 -0.4193 -0.2100
13162SOL    HW157096   9.349   2.136  11.006  0.8211 -0.3804  1.8316
13162SOL    HW257097   9.498   2.138  10.982  0.2764 -0.1602 -2.1825
13163SOL     OW57098  11.174  12.188  12.999  0.2930  0.3620 -0.2127
13163SOL    HW157099  11.145  12.113  12.946  0.9681 -0.0275 -0.0444
13163SOL    HW257100  11.120  12.260  12.969  0.5072  0.0951 -1.2903
13164SOL     OW57101   8.686  13.603   5.383 -0.1949 -0.2897  0.0881
13164SOL    HW157102   8.648  13.526   5.425  0.1028  0.1320  1.1429
13164SOL    HW257103   8.766  13.571   5.341 -0.2901 -0.6318  0.1698
13165SOL     OW57104   1.166   6.597   7.335  0.2493  0.1159 -0.0095
13165SOL    HW157105   1.080   6.608   7.293  0.2725 -1.1387 -0.4529
13165SOL    HW257106   1.203   6.520   7.291  1.2151  0.0993  0.8137
13166SOL     OW57107   4.389  11.405  10.634 -0.1072 -0.0965  0.2327
13166SOL    HW157108   4.313  11.347  10.639  0.4819 -0.9084 -0.1306
13166SOL    HW257109   4.386  11.455  10.715 -1.1897  0.0906  0.0985
13167SOL     OW57110   1.391   7.314   8.837  0.4183 -0.4976  0.3096
13167SOL    HW157111   1.302   7.305   8.802  0.3696 -1.0738  0.5847
13167SOL    HW257112   1.393   7.257   8.914  0.0517  1.8510  2.1988
13168SOL     OW57113  10.954   1.441  11.161 -0.2990  0.0765 -0.6217
13168SOL    HW157114  10.883   1.400  11.209  1.0457 -1.2909  0.3001
13168SOL    HW257115  10.940   1.414  11.070  0.2372 -2.1130 -0.1284
13169SOL     OW57116  11.151   2.878   3.339  0.0732  0.3345 -0.4623
13169SOL    HW157117  11.070   2.862   3.389  1.1929  0.7653  1.5774
13169SOL    HW257118  11.162   2.798   3.287 -1.3523  0.0184 -0.3281
13170SOL     OW57119  12.647  10.894   0.478  0.3939  0.3341 -0.5565
13170SOL    HW157120  12.640  10.943   0.397 -3.4394 -0.5026 -0.9357
13170SOL    HW257121  12.651  10.803   0.451  1.6912  0.1298  0.2245
13171SOL     OW57122   1.349  11.333   6.305 -0.0752  0.4748  0.3547
13171SOL    HW157123   1.371  11.425   6.288  0.0256  0.2540 -0.7782
13171SOL    HW257124   1.386  11.285   6.231  0.0575 -0.5123  1.0402
13172SOL     OW57125   0.845  11.160   3.572  0.1329 -0.0428  0.3719
13172SOL    HW157126   0.847  11.136   3.665 -0.1497 -1.1521  0.1051
13172SOL    HW257127   0.820  11.252   3.572 -0.2731 -0.1365  1.3825
13173SOL     OW57128   7.268  11.924   0.070  0.2348 -0.3656 -0.1840
13173SOL    HW157129   7.203  11.930   0.000  0.8085 -0.7619 -0.7693
13173SOL    HW257130   7.218  11.931   0.151 -0.6907 -1.9620 -0.5850
13174SOL     OW57131   3.991   6.069  13.368 -0.4525  0.4306 -0.3296
13174SOL    HW157132   4.019   6.132  13.435 -0.1849 -0.4552  0.4024
13174SOL    HW257133   3.896   6.063  13.379 -0.5046  0.8463 -0.5310
13175SOL     OW57134   0.657   4.720   5.706  0.0554  0.4590 -0.0326
13175SOL    HW157135   0.713   4.716   5.628 -1.4308 -0.8112 -1.0906
13175SOL    HW257136   0.592   4.787   5.685 -0.0416  0.4827  0.3360
13176SOL     OW57137   4.956   1.967  13.291 -0.1714 -0.3496 -0.0743
13176SOL    HW157138   4.870   1.933  13.317 -0.7893  1.1694  0.0360
13176SOL    HW257139   5.017   1.897  13.310 -1.2725 -1.1163  0.7758
13177SOL     OW57140   4.171   4.799  13.113 -0.1107 -0.2882 -0.1226
13177SOL    HW157141   4.201   4.870  13.056  0.8912  0.1646  0.9259
13177SOL    HW257142   4.095   4.763  13.068 -0.1860  0.9600 -1.0592
13178SOL     OW57143   9.631   5.468  12.647  0.0141  0.1833  0.0577
13178SOL    HW157144   9.655   5.499  12.734 -0.3495  0.7813 -0.0519
13178SOL    HW257145   9.603   5.377  12.660 -2.4004  0.9892  0.9640
13179SOL     OW57146  12.911   1.899   1.108  0.4771  0.0890 -0.0547
13179SOL    HW157147  12.914   1.984   1.151  0.8272  0.2264 -0.3458
13179SOL    HW257148  12.945   1.915   1.020  0.3824 -0.3169 -0.1677
13180SOL     OW57149  14.020   4.656   0.491 -0.3604 -0.0686 -0.5980
13180SOL    HW157150  13.982   4.719   0.429  0.6134  0.2248 -0.9111
13180SOL    HW257151  13.986   4.572   0.463 -1.4266  0.2714 -0.3708
13181SOL     OW57152  11.860   3.325   7.452 -0.1279 -0.0780  0.1346
13181SOL    HW157153  11.903   3.312   7.537  1.9949  1.6073 -0.5837
13181SOL    HW257154  11.840   3.418   7.450  1.3269  0.2390 -1.8084
13182SOL     OW57155  13.451   2.969   8.908 -1.1967  0.1876 -0.1573
13182SOL    HW157156  13.470   3.023   8.985 -0.3003 -0.1177 -0.1436
13182SOL    HW257157  13.358   2.949   8.915 -0.8433 -1.1727  1.7666
13183SOL     OW57158   2.509   3.395   6.550 -0.9318 -0.2577 -0.1327
13183SOL    HW157159   2.476   3.323   6.604  0.3008  0.0481  1.0779
13183SOL    HW257160   2.588   3.425   6.595 -1.0001  1.3643 -1.0179
13184SOL     OW57161   6.279  11.393   4.927  0.0959  0.4296  0.2857
13184SOL    HW157162   6.301  11.407   4.835  1.0254  0.9700  0.5876
13184SOL    HW257163   6.240  11.305   4.928  0.5831  0.1866 -0.5375
13185SOL     OW57164   7.941   0.946   5.645  0.5700 -0.6546 -0.3802
13185SOL    HW157165   7.999   0.953   5.721  1.5513  0.4372 -1.1973
13185SOL    HW257166   7.864   0.899   5.678  1.8979 -2.1803  0.7358
13186SOL     OW57167  12.672   2.525  10.212  0.6424 -0.2878  0.4762
13186SOL    HW157168  12.596   2.534  10.155  1.1469  0.3631 -0.1240
13186SOL    HW257169  12.694   2.615  10.237  2.4213 -0.2312 -1.0312
13187SOL     OW57170   0.521   4.139  11.180  0.2853  0.0770  0.5315
13187SOL    HW157171   0.462   4.096  11.242 -0.0233 -0.2556  0.0166
13187SOL    HW257172   0.552   4.068  11.123  0.7702  0.3346  0.4672
13188SOL     OW57173   1.180   7.139   1.873 -0.0037 -0.2013 -0.1124
13188SOL    HW157174   1.190   7.140   1.968  0.2168  0.1235 -0.1349
13188SOL    HW257175   1.234   7.066   1.843  2.0667  1.2841 -0.1951
13189SOL     OW57176  10.661  13.762   5.505  0.2482 -0.8949  0.3865
13189SOL    HW157177  10.727  13.762   5.574 -1.5646  1.1497  2.2645
13189SOL    HW257178  10.688  13.834   5.447  0.6259 -1.2482  0.1160
13190SOL     OW57179   7.364  12.233  12.605  0.5118 -0.0150 -0.7203
13190SOL    HW157180   7.381  12.318  12.564 -4.5296  1.7586  0.1882
13190SOL    HW257181   7.301  12.190  12.547 -0.4599 -1.0956  1.0431
13191SOL     OW57182   1.826  13.171  11.971  0.7723  0.3055 -0.1048
13191SOL    HW157183   1.851  13.119  12.047  0.9136 -2.3121 -1.8019
13191SOL    HW257184   1.730  13.171  11.971  0.7568 -0.7025 -0.5039
13192SOL     OW57185   1.918   9.020   8.636 -0.0240 -0.7579  0.2391
13192SOL    HW157186   1.881   8.964   8.705  2.1642 -0.5414  1.6838
13192SOL    HW257187   1.911   9.108   8.671  1.7145 -0.7050  0.5438
13193SOL     OW57188  13.634  11.342   6.988  0.1107 -0.3889  0.2352
13193SOL    HW157189  13.650  11.360   6.895 -0.5535 -1.0244 -0.0204
13193SOL    HW257190  13.665  11.252   7.000 -2.6437 -1.5012 -0.1758
13194SOL     OW57191  11.683   4.727   5.682 -0.2111  0.0155 -0.1785
13194SOL    HW157192  11.648   4.798   5.736  0.8756  2.0752 -2.0181
13194SOL    HW257193  11.607   4.673   5.660 -0.9203  0.0676  1.9699
13195SOL     OW57194   1.154  11.147   8.367  0.7662  0.4654 -0.2180
13195SOL    HW157195   1.110  11.141   8.452  1.9237 -0.4728  0.3439
13195SOL    HW257196   1.154  11.241   8.348 -0.3052  0.6089  0.3774
13196SOL     OW57197  13.802  12.236   9.670 -0.0207 -0.2202  0.2296
13196SOL    HW157198  13.824  12.226   9.763  1.3381 -1.5090 -0.1832
13196SOL    HW257199  13.746  12.313   9.667 -2.4077 -1.6898  2.4397
13197SOL     OW57200   6.772  11.450   8.727  0.0128  0.0115  0.0202
13197SOL    HW157201   6.709  11.383   8.752 -1.7596 -0.1345 -4.1126
13197SOL    HW257202   6.854  11.402   8.714 -0.0290 -0.5030  1.5030
13198SOL     OW57203   9.430   9.355  12.755  0.6556  0.4222 -0.1396
13198SOL    HW157204   9.353   9.300  12.739 -0.6095  2.3866 -1.2173
13198SOL    HW257205   9.503   9.306  12.717  0.5065 -2.6490  2.9981
13199SOL     OW57206   4.615   2.282   5.741 -0.9709  0.1530  0.0717
13199SOL    HW157207   4.579   2.217   5.801 -0.3481  0.1688  0.4757
13199SOL    HW257208   4.555   2.282   5.666 -0.3897 -1.6688 -0.4492
13200SOL     OW57209   4.526   1.326  13.512 -0.4692  0.0900  0.5314
13200SOL    HW157210   4.473   1.311  13.434  1.1056  1.1646 -0.8151
13200SOL    HW257211   4.491   1.407  13.549  0.3541  0.9388 -0.5005
13201SOL     OW57212   9.083  12.738   4.894 -0.4366 -0.1886 -0.9782
13201SOL    HW157213   9.135  12.713   4.970 -0.6984  1.2975 -0.2764
13201SOL    HW257214   9.104  12.672   4.827 -0.4906 -1.7616  0.4848
13202SOL     OW57215   4.828   3.446   3.957  0.0427  0.1257 -0.0175
13202SOL    HW157216   4.811   3.407   3.871 -0.2089  0.9572 -0.3582
13202SOL    HW257217   4.920   3.426   3.975  0.2404  0.3792 -0.7117
13203SOL     OW57218   4.460   4.629   4.182  0.7004 -0.1539 -0.2722
13203SOL    HW157219   4.431   4.551   4.135  0.4629 -0.1037 -0.2129
13203SOL    HW257220   4.429   4.614   4.272 -2.5655  1.5902 -0.9500
13204SOL     OW57221   6.755   6.946  11.908 -0.0359  0.1044  0.6766
13204SOL    HW157222   6.804   6.871  11.875 -0.2541  0.7889 -1.3363
13204SOL    HW257223   6.685   6.908  11.961 -0.1361 -1.1246 -0.3044
13205SOL     OW57224   1.513   9.254  13.744 -0.0864  0.3144  0.5234
13205SOL    HW157225   1.513   9.240  13.839 -0.1487  0.5033  0.5515
13205SOL    HW257226   1.495   9.347  13.734 -0.8755  0.1404  0.3041
13206SOL     OW57227  12.810   5.340   1.487 -0.2000 -0.5659 -0.2069
13206SOL    HW157228  12.756   5.263   1.504 -1.5045  0.5317  0.8711
13206SOL    HW257229  12.759   5.413   1.523  1.3202  0.7121 -0.5528
13207SOL     OW57230   5.935   5.724  13.223  0.4078 -0.1064  0.1083
13207SOL    HW157231   5.968   5.698  13.308 -1.6813  0.9296  1.3155
13207SOL    HW257232   5.850   5.681  13.216 -0.9349  2.3503  0.0441
13208SOL     OW57233   7.955   3.435   2.235  0.5008 -0.3604  0.0338
13208SOL    HW157234   7.979   3.366   2.297  0.9604  0.6983  1.0741
13208SOL    HW257235   7.963   3.516   2.285 -0.7423  0.4074 -0.9376
13209SOL     OW57236   2.456  10.448  13.878 -0.1418 -0.1532 -0.0720
13209SOL    HW157237   2.458  10.541  13.855 -0.9222  0.1316  0.9634
13209SOL    HW257238   2.364  10.425  13.877 -0.4018  0.1101  3.4562
13210SOL     OW57239  13.969   7.008  10.060  0.3332  0.6234  0.4465
13210SOL    HW157240  14.062   7.001  10.036 -0.1330 -2.1689 -0.9700
13210SOL    HW257241  13.922   6.972   9.984 -1.7263 -0.5640  2.1738
13211SOL     OW57242   1.517   4.707   7.166 -0.1066  0.2465 -0.0512
13211SOL    HW157243   1.554   4.781   7.119  0.5654  0.5258  0.8868
13211SOL    HW257244   1.579   4.690   7.237 -1.4014  0.2866  1.1451
13212SOL     OW57245   0.366  10.898  12.311 -0.0895  0.4962 -0.0389
13212SOL    HW157246   0.413  10.815  12.315 -1.1960 -0.2465 -1.4651
13212SOL    HW257247   0.359  10.918  12.218 -0.7478  1.6539  0.2341
13213SOL     OW57248   4.384  13.335  12.720 -0.1343  0.1279 -0.3517
13213SOL    HW157249   4.449  13.293  12.665  0.7842 -0.3350  1.0513
13213SOL    HW257250   4.375  13.423  12.684  0.6784 -0.0665 -1.0440
13214SOL     OW57251   4.342   1.588  10.622 -0.4648  0.0915 -1.1226
13214SOL    HW157252   4.370   1.680  10.622 -0.6600  0.2363  1.7069
13214SOL    HW257253   4.247   1.591  10.633 -0.5043 -0.4423 -1.2832
13215SOL     OW57254   6.014   1.417   1.283  0.2890  0.0927 -0.2780
13215SOL    HW157255   6.050   1.498   1.247 -2.4885  1.7865  0.4879
13215SOL    HW257256   6.061   1.348   1.236  0.8879  2.1382 -2.9723
13216SOL     OW57257   6.902   5.420   3.076  0.5002 -0.1232  0.0795
13216SOL    HW157258   6.991   5.408   3.107  0.6597 -0.2701 -0.4296
13216SOL    HW257259   6.872   5.332   3.053 -0.0206 -0.1731  0.8892
13217SOL     OW57260  11.572  11.985   2.576  0.4058  0.0726  0.0119
13217SOL    HW157261  11.623  11.927   2.519 -0.0012  0.1852 -0.4769
13217SOL    HW257262  11.570  11.940   2.660 -1.3895 -1.5293 -0.8114
13218SOL     OW57263   8.898   7.456  12.629  0.0572  0.6919  0.4284
13218SOL    HW157264   8.880   7.451  12.535  1.9887 -2.3033  0.0860
13218SOL    HW257265   8.818   7.425  12.671  0.5200 -1.9498 -0.4896
13219SOL     OW57266   3.620   9.359   1.001  0.2370 -0.7503  0.1538
13219SOL    HW157267   3.702   9.403   1.021  1.0461 -2.3990  0.6865
13219SOL    HW257268   3.581   9.411   0.930  0.8384  1.0837  1.1156
13220SOL     OW57269   6.992   8.573   9.951  0.1929  0.7005 -0.1950
13220SOL    HW157270   6.912   8.600   9.996 -0.7812  0.4796 -1.7010
13220SOL    HW257271   7.057   8.563  10.020 -1.3009  0.0705  1.1824
13221SOL     OW57272   4.002  13.946  14.060 -0.2339 -0.0003  0.0881
13221SOL    HW157273   4.052  13.868  14.036  0.2856  0.6329 -0.9450
13221SOL    HW257274   4.016  13.956  14.154  0.7422 -0.4197 -0.0028
13222SOL     OW57275   2.001   3.022   7.702 -0.6881 -0.6803 -0.8070
13222SOL    HW157276   1.999   3.031   7.607 -3.3668 -0.0048 -0.7767
13222SOL    HW257277   1.997   2.928   7.717  0.7355 -0.8437 -1.3248
13223SOL     OW57278  11.546   8.462   1.296 -0.0156 -0.1581  0.2659
13223SOL    HW157279  11.641   8.449   1.290  0.1580  1.3301 -0.7290
13223SOL    HW257280  11.513   8.436   1.210 -0.4328 -0.1421  0.4199
13224SOL     OW57281  12.154   0.617   6.061 -0.4963 -0.3494 -0.6131
13224SOL    HW157282  12.220   0.671   6.104  0.8039 -1.9584 -0.4819
13224SOL    HW257283  12.094   0.591   6.131  0.1587 -0.9034 -0.2577
13225SOL     OW57284  11.047   6.738   5.125  0.3236 -0.1765  0.1406
13225SOL    HW157285  11.006   6.695   5.050 -1.3101  0.9549  0.3402
13225SOL    HW257286  11.026   6.682   5.200 -1.9871  0.9996  0.4369
13226SOL     OW57287   9.738   9.713  11.813  0.1784  0.5676 -0.3830
13226SOL    HW157288   9.733   9.652  11.886  0.8351  1.1696  0.1712
13226SOL    HW257289   9.718   9.799  11.851 -0.7993  0.7073 -1.1637
13227SOL     OW57290   3.221   8.332   9.557 -0.0371 -0.1990 -0.1221
13227SOL    HW157291   3.153   8.285   9.604 -0.2694  0.4671  0.2207
13227SOL    HW257292   3.195   8.326   9.465  0.5396 -1.6933 -0.2047
13228SOL     OW57293   8.807   0.427   3.867 -0.2415  0.1076  0.2785
13228SOL    HW157294   8.808   0.508   3.918 -0.6103  0.0228  0.4241
13228SOL    HW257295   8.720   0.390   3.883  0.1537 -0.6548  0.7476
13229SOL     OW57296  12.460   1.255   8.754 -0.2536 -0.9274  0.2366
13229SOL    HW157297  12.452   1.203   8.835 -2.3403 -0.7092  0.2015
13229SOL    HW257298  12.377   1.242   8.708  0.3951 -0.0060 -1.2738
13230SOL     OW57299  11.392   2.223  10.474 -0.8260 -0.4594  0.0509
13230SOL    HW157300  11.321   2.284  10.494  0.8664  1.5116  0.4862
13230SOL    HW257301  11.411   2.239  10.382  0.6466  0.9060  0.5448
13231SOL     OW57302  11.237   6.677   1.355  0.3224  0.2168 -0.2417
13231SOL    HW157303  11.219   6.771   1.353 -0.0391  0.1735  0.6498
13231SOL    HW257304  11.281   6.660   1.271 -1.2987  0.8281 -1.2531
13232SOL     OW57305  10.734   6.972   6.374  0.1460 -0.0342  0.1381
13232SOL    HW157306  10.768   7.008   6.456  0.6695  0.9780 -0.4902
13232SOL    HW257307  10.810   6.931   6.333  0.2241  0.6937 -0.4664
13233SOL     OW57308  10.523   5.481   9.283 -0.1306 -0.8628  0.1591
13233SOL    HW157309  10.584   5.420   9.325 -0.5075 -2.3284 -1.3108
13233SOL    HW257310  10.478   5.428   9.217 -0.9055  0.8840 -0.7792
13234SOL     OW57311   6.639   9.314  12.735  0.0502  0.1946 -0.4949
13234SOL    HW157312   6.733   9.299  12.745 -0.1545 -1.7390 -1.1772
13234SOL    HW257313   6.616   9.271  12.653 -1.4218  0.7591 -0.4129
13235SOL     OW57314   1.907   4.255  13.653 -0.2824 -0.0091  0.4289
13235SOL    HW157315   1.815   4.239  13.672 -0.9636  0.9440 -1.7081
13235SOL    HW257316   1.941   4.171  13.625 -0.7421 -0.1740  0.3558
13236SOL     OW57317   0.444   7.683   5.986 -0.3528  0.1271 -0.4840
13236SOL    HW157318   0.375   7.749   5.978  0.4692  1.0773  0.1529
13236SOL    HW257319   0.482   7.698   6.072 -0.2091 -1.2543 -0.2833
13237SOL     OW57320   1.903   1.881   1.844 -0.3166  0.3184 -0.3617
13237SOL    HW157321   1.984   1.929   1.861 -0.2670 -0.0455  0.5155
13237SOL    HW257322   1.877   1.848   1.930  0.3627 -2.3227 -1.0502
13238SOL     OW57323   9.183  12.061   1.977  0.3461  0.2147  0.4444
13238SOL    HW157324   9.267  12.015   1.981 -0.3366 -1.0270  1.0903
13238SOL    HW257325   9.133  12.025   2.049 -1.2993 -0.2043 -0.8478
13239SOL     OW57326   7.889   4.060  12.201  0.7297  0.5932 -0.0765
13239SOL    HW157327   7.878   3.977  12.156 -1.4630  0.9801 -0.3561
13239SOL    HW257328   7.856   4.044  12.290  1.0672  0.9438  0.1130
13240SOL     OW57329  11.315   1.841   1.692  0.3656  0.1749  0.4559
13240SOL    HW157330  11.251   1.842   1.621  2.6430  0.6032 -1.7284
13240SOL    HW257331  11.352   1.753   1.690  0.2428  0.0873  1.3681
13241SOL     OW57332   9.138   0.846   5.056 -0.1079 -0.2014  0.9032
13241SOL    HW157333   9.232   0.866   5.053  0.4419 -2.4627  1.0099
13241SOL    HW257334   9.104   0.881   4.974  0.9451  0.2067  0.6219
13242SOL     OW57335   1.552   8.172   7.167  0.0914 -0.2275  0.1825
13242SOL    HW157336   1.464   8.136   7.169 -0.4393  0.7788 -2.1411
13242SOL    HW257337   1.540   8.267   7.164  1.1633 -0.1006 -1.3150
13243SOL     OW57338   5.186  12.884   0.830  0.3763  0.1450  0.0829
13243SOL    HW157339   5.219  12.959   0.879  4.2077 -1.3768  0.1753
13243SOL    HW257340   5.153  12.921   0.748  0.5119  2.0498  0.8327
13244SOL     OW57341   1.015   3.361  11.455  0.4938 -0.0482  0.3431
13244SOL    HW157342   0.944   3.300  11.476 -0.0594  0.8698  1.2683
13244SOL    HW257343   1.073   3.357  11.530  1.0939 -0.3313 -0.1336
13245SOL     OW57344   5.145  11.495   3.718 -0.1222 -0.6525  0.0418
13245SOL    HW157345   5.126  11.589   3.722 -0.8995 -0.8091  0.1469
13245SOL    HW257346   5.159  11.469   3.809 -0.0134 -0.6617  0.0225
13246SOL     OW57347   9.616   6.820   3.918 -0.2567 -0.4702 -0.1948
13246SOL    HW157348   9.531   6.848   3.952 -0.4780 -0.8075 -0.4615
13246SOL    HW257349   9.644   6.751   3.977  0.4195  0.4815  0.6250
13247SOL     OW57350   0.761   8.374  13.842  0.5531  0.0076  0.8164
13247SOL    HW157351   0.724   8.415  13.920 -0.4751 -0.4162  0.5655
13247SOL    HW257352   0.781   8.447  13.783 -0.9074  0.2014  0.5261
13248SOL     OW57353  12.011   2.675   7.281  0.7900 -0.5694 -0.1997
13248SOL    HW157354  11.981   2.755   7.239  2.5939 -0.6324 -1.7211
13248SOL    HW257355  11.938   2.648   7.337 -0.5641  1.0993 -1.0890
13249SOL     OW57356   3.946  12.854   7.391 -0.0435  0.0849  0.3804
13249SOL    HW157357   3.889  12.871   7.316  0.1676  2.3738  0.6603
13249SOL    HW257358   4.027  12.820   7.353 -0.1847  0.5809 -0.3786
13250SOL     OW57359  10.706  11.221   7.863 -0.4600 -0.1435 -0.0187
13250SOL    HW157360  10.686  11.127   7.859  0.1740 -0.2569 -1.4355
13250SOL    HW257361  10.799  11.225   7.885 -0.1189  0.0705 -1.3873
13251SOL     OW57362   6.293  11.587  10.577 -0.2281 -0.0576  0.0477
13251SOL    HW157363   6.275  11.493  10.572 -0.6459  0.0639 -0.9471
13251SOL    HW257364   6.215  11.623  10.620 -0.0843 -0.1627  0.3969
13252SOL     OW57365   6.106   8.853   1.763  0.0113  0.2466  0.3144
13252SOL    HW157366   6.031   8.867   1.705 -0.6002 -0.2427  0.9601
13252SOL    HW257367   6.067   8.848   1.851  0.6851 -0.8807  0.5730
13253SOL     OW57368  11.901   6.836   9.662 -0.3020 -0.0148 -0.2233
13253SOL    HW157369  11.834   6.820   9.729 -0.6665  2.0747 -0.0155
13253SOL    HW257370  11.852   6.877   9.590  0.3945 -0.5693 -1.0298
13254SOL     OW57371   0.405  13.368  10.624 -0.5233  0.1075  0.3599
13254SOL    HW157372   0.372  13.455  10.645  0.0799  0.8221 -1.4775
13254SOL    HW257373   0.483  13.358  10.679 -0.3223  0.9389  0.2360
13255SOL     OW57374  10.486   0.928   9.647 -0.1652  0.0777 -0.1316
13255SOL    HW157375  10.451   0.927   9.736 -0.2379  1.7608 -0.1022
13255SOL    HW257376  10.563   0.985   9.652 -1.2159  1.7101 -1.4702
13256SOL     OW57377   6.638   5.687   5.594  0.3054 -0.1169  0.0002
13256SOL    HW157378   6.610   5.682   5.503  1.5405 -0.1510 -0.4043
13256SOL    HW257379   6.717   5.633   5.597  0.4441  0.1284  1.0216
13257SOL     OW57380   4.338   3.236   8.475  0.2843 -0.3939  0.7758
13257SOL    HW157381   4.386   3.175   8.532 -1.3863  0.2223  2.9847
13257SOL    HW257382   4.255   3.193   8.458  0.2844 -0.0231 -0.2284
13258SOL     OW57383  11.255  13.439  12.328 -0.2704  0.2554  0.2792
13258SOL    HW157384  11.321  13.503  12.354  0.1841 -0.6652  1.5062
13258SOL    HW257385  11.238  13.388  12.408 -1.1331 -0.7016 -0.4777
13259SOL     OW57386  13.573  13.221   3.655 -0.1496  0.2493  0.3632
13259SOL    HW157387  13.587  13.262   3.739  2.7693  2.5336 -1.0729
13259SOL    HW257388  13.626  13.141   3.657  1.1602  1.0994  0.1956
13260SOL     OW57389  11.869   7.021  12.015  0.6636  0.4069 -0.2239
13260SOL    HW157390  11.937   7.078  11.979  1.1077 -1.2129 -2.1765
13260SOL    HW257391  11.876   6.941  11.963 -2.1115 -0.1803  0.1699
13261SOL     OW57392  11.980   0.768   4.125  0.4958  0.2013 -0.1331
13261SOL    HW157393  11.928   0.704   4.077 -0.5889  1.1074 -0.2009
13261SOL    HW257394  12.020   0.718   4.196  1.0175 -0.8773 -1.1445
13262SOL     OW57395  13.218   9.578   9.341 -0.1176  0.2605 -0.3278
13262SOL    HW157396  13.312   9.594   9.351 -0.3239  2.0944 -0.9423
13262SOL    HW257397  13.177   9.661   9.365 -1.6742 -0.8538  1.0338
13263SOL     OW57398   5.817   8.241   3.452  0.2620 -0.6346 -0.3215
13263SOL    HW157399   5.721   8.232   3.446 -0.1543  1.4189  1.7538
13263SOL    HW257400   5.846   8.156   3.487 -0.9192 -0.9742 -0.0987
13264SOL     OW57401   9.386  10.462  13.925  0.9141  0.6638 -0.6998
13264SOL    HW157402   9.390  10.443  14.018  0.3184  0.3173 -0.7395
13264SOL    HW257403   9.375  10.557  13.921 -1.1843  0.4950 -0.3265
13265SOL     OW57404   6.971   1.841   9.874 -0.4210  0.5491  0.3939
13265SOL    HW157405   6.894   1.863   9.927 -0.8939  0.0560 -0.0807
13265SOL    HW257406   7.029   1.793   9.934 -1.1970 -0.4947  0.3353
13266SOL     OW57407  10.484   2.877  13.503  0.1338 -0.1197 -0.5038
13266SOL    HW157408  10.456   2.902  13.415 -0.0854 -0.5482 -0.5605
13266SOL    HW257409  10.467   2.955  13.557  0.3790  0.1840 -0.8587
13267SOL     OW57410   0.765   6.276  12.635 -0.2312 -0.3209  0.4982
13267SOL    HW157411   0.712   6.336  12.687 -0.5298  0.6514 -0.8468
13267SOL    HW257412   0.851   6.317  12.631  0.0043 -0.7794  0.8627
13268SOL     OW57413   3.231   8.438   2.524  0.1158  0.1952  0.9068
13268SOL    HW157414   3.186   8.361   2.489 -0.7823  0.9414  0.3820
13268SOL    HW257415   3.200   8.444   2.614  0.9872 -0.6399  1.2838
13269SOL     OW57416   8.130  13.925  12.818  0.0790  0.0185  0.1502
13269SOL    HW157417   8.213  13.904  12.775 -0.1815 -0.4268 -0.1473
13269SOL    HW257418   8.152  13.995  12.880  0.6360  0.0394 -0.0622
13270SOL     OW57419   6.252  13.986  13.861 -0.0243  0.1602 -0.8369
13270SOL    HW157420   6.309  14.063  13.862  1.5941 -0.9239 -2.9793
13270SOL    HW257421   6.297  13.922  13.916 -1.2828  0.6271  0.8017
13271SOL     OW57422  12.667   4.346   1.325 -0.8641 -0.4387  0.3342
13271SOL    HW157423  12.701   4.278   1.267 -1.5317 -0.7024  0.2399
13271SOL    HW257424  12.616   4.298   1.391 -1.6808 -0.0103  0.0309
13272SOL     OW57425   1.991  11.901   4.756  0.0859  0.0967  0.1127
13272SOL    HW157426   1.999  11.821   4.809  0.6112  0.7235  1.0031
13272SOL    HW257427   1.924  11.952   4.799 -1.7862 -0.7350 -1.6481
13273SOL     OW57428   2.213   1.891   5.996 -0.4975  0.5405  0.0593
13273SOL    HW157429   2.233   1.816   6.051 -0.3126 -0.7460 -1.6888
13273SOL    HW257430   2.274   1.959   6.025  0.5959 -0.5776  0.4657
13274SOL     OW57431   5.396   2.671   4.031  0.1556  0.3286  0.0234
13274SOL    HW157432   5.314   2.643   3.991  0.7547  0.0582 -1.0664
13274SOL    HW257433   5.450   2.699   3.957  2.2520 -2.5705  0.2837
13275SOL     OW57434   9.005   1.466  12.859  0.4464 -0.5295  0.1929
13275SOL    HW157435   8.962   1.402  12.916  1.1994 -0.7997  0.4755
13275SOL    HW257436   8.936   1.528  12.836 -0.4605 -1.8116 -0.6449
13276SOL     OW57437   3.892   5.338  12.261 -0.2257  0.2776 -0.5516
13276SOL    HW157438   3.864   5.310  12.174  0.8207 -0.0820 -0.7798
13276SOL    HW257439   3.942   5.418  12.245 -0.7890  0.7089 -0.1838
13277SOL     OW57440   0.063   9.191   1.509  0.1036  0.7564 -0.2944
13277SOL    HW157441   0.099   9.273   1.542  0.0194  0.5859  0.2381
13277SOL    HW257442  -0.014   9.175   1.564  0.7636 -0.2458  0.3666
13278SOL     OW57443   8.584   1.019   7.709 -0.0279  0.6126 -0.3161
13278SOL    HW157444   8.531   1.099   7.708 -1.0834 -0.0589 -1.3227
13278SOL    HW257445   8.562   0.975   7.627 -1.1285 -1.7702  1.1368
13279SOL     OW57446   4.357  11.677  12.613 -0.0844 -1.1384 -0.3168
13279SOL    HW157447   4.359  11.696  12.707  0.8865  1.5597 -0.7829
13279SOL    HW257448   4.266  11.690  12.588  0.0372  0.3425 -0.0810
13280SOL     OW57449  13.950   5.662   2.958  0.1086  0.0267  0.8953
13280SOL    HW157450  13.927   5.647   2.867 -2.0484 -2.7116  1.7414
13280SOL    HW257451  14.045   5.652   2.961  0.3709  1.4321 -1.1901
13281SOL     OW57452  10.734   5.605   8.179  0.0175  0.2704  0.2761
13281SOL    HW157453  10.699   5.661   8.248  0.6805  1.5856 -0.4280
13281SOL    HW257454  10.660   5.591   8.120 -0.6106 -1.0382  1.3235
13282SOL     OW57455  11.382   7.523  11.210  0.1520  0.0771 -0.3883
13282SOL    HW157456  11.339   7.541  11.294  1.1775  2.0720 -0.2448
13282SOL    HW257457  11.357   7.433  11.190 -0.4977 -0.2999  1.8231
13283SOL     OW57458   1.834   1.252  11.335  0.0332  0.4048  0.1138
13283SOL    HW157459   1.874   1.173  11.372 -1.8016  0.0566  1.4444
13283SOL    HW257460   1.757   1.220  11.289  0.7221  1.1711 -1.6825
13284SOL     OW57461   2.641   8.060  11.216  0.1128  0.4762  0.3602
13284SOL    HW157462   2.686   8.015  11.288 -0.3374 -0.6232 -0.0316
13284SOL    HW257463   2.657   8.153  11.233  1.4991  0.1692  0.9001
13285SOL     OW57464  13.044   7.971  11.245  0.1701 -0.3961  0.7562
13285SOL    HW157465  13.033   7.974  11.341 -0.7471  0.6183  0.6359
13285SOL    HW257466  12.977   7.909  11.216  1.2706 -1.6962  0.8454
13286SOL     OW57467   4.160   8.468   1.023 -0.3205  0.0571 -0.2606
13286SOL    HW157468   4.211   8.456   1.103 -2.1755  1.1881  1.1682
13286SOL    HW257469   4.071   8.483   1.053 -1.7866 -2.7271 -2.6833
13287SOL     OW57470   4.418  13.112   2.672 -0.7136 -0.6343 -0.5613
13287SOL    HW157471   4.323  13.101   2.681 -0.5105 -2.5127 -0.3587
13287SOL    HW257472   4.442  13.053   2.601  0.5764 -1.7035  0.7283
13288SOL     OW57473   7.611   1.771   0.458  0.0022  0.3831  0.4458
13288SOL    HW157474   7.664   1.848   0.483  1.5665 -0.4020 -0.2991
13288SOL    HW257475   7.668   1.721   0.401 -1.0441 -1.2924  0.8132
13289SOL     OW57476   4.236   7.359  13.150 -0.1843 -0.3596  0.0578
13289SOL    HW157477   4.270   7.271  13.166  1.2166 -0.1827 -1.7096
13289SOL    HW257478   4.302   7.418  13.186 -1.5371  0.0491  2.0678
13290SOL     OW57479   8.907  11.966   8.972 -0.3742 -0.4974 -0.4149
13290SOL    HW157480   8.922  12.044   9.026  1.1831 -0.8996 -0.2285
13290SOL    HW257481   8.848  11.912   9.024 -2.5829  1.1011 -1.1201
13291SOL     OW57482   7.648   5.105   4.774  0.0298 -0.1607 -0.2809
13291SOL    HW157483   7.671   5.013   4.773  0.1299 -0.1459  0.1163
13291SOL    HW257484   7.630   5.128   4.683 -1.6445 -0.9782 -0.1887
13292SOL     OW57485   5.295  13.563   9.548  0.2523  0.1210  0.1067
13292SOL    HW157486   5.241  13.488   9.523 -0.4769  1.0663 -1.2359
13292SOL    HW257487   5.362  13.567   9.480  0.8285  0.1797  0.6627
13293SOL     OW57488   1.923   2.043   8.046 -0.0258 -0.1955 -0.0321
13293SOL    HW157489   1.903   1.982   8.117  0.2957 -0.3164 -0.0434
13293SOL    HW257490   1.962   1.988   7.978  0.4548  0.0490  0.0374
13294SOL     OW57491   0.881   5.783  13.582 -0.0116  0.6435 -0.1978
13294SOL    HW157492   0.897   5.743  13.667  0.2581  2.2627  0.5469
13294SOL    HW257493   0.787   5.803  13.582 -0.6554 -1.8795 -1.4733
13295SOL     OW57494   5.177   0.526  13.791  0.0615  0.4984 -0.0633
13295SOL    HW157495   5.082   0.514  13.801 -0.3609  3.3304  0.3190
13295SOL    HW257496   5.187   0.621  13.782  2.7307  0.1430 -1.8608
13296SOL     OW57497   9.941  11.071   0.963 -0.5710  0.4567 -0.3457
13296SOL    HW157498   9.918  11.144   1.020 -0.3099  0.2673  0.0141
13296SOL    HW257499  10.037  11.068   0.966 -0.5459  0.6071 -1.0082
13297SOL     OW57500   9.560  13.640  13.880  0.6218  0.1528 -0.1818
13297SOL    HW157501   9.638  13.696  13.876 -0.1262  1.3376  1.0663
13297SOL    HW257502   9.531  13.632  13.789  1.2900  1.0125 -0.4812
13298SOL     OW57503  13.646   2.356   7.642  0.5371 -0.1570 -0.2349
13298SOL    HW157504  13.613   2.365   7.732  1.2107 -1.6237  0.1991
13298SOL    HW257505  13.665   2.262   7.634  0.9927  0.0505 -1.7391
13299SOL     OW57506   0.758   6.915   0.174  0.0075 -0.2450  0.0919
13299SOL    HW157507   0.725   6.826   0.162 -1.4676  0.5158 -1.7789
13299SOL    HW257508   0.793   6.940   0.089  1.3832  0.6336  0.8667
13300SOL     OW57509   5.680   0.445   3.339 -0.4693  0.1751 -0.7991
13300SOL    HW157510   5.598   0.439   3.388 -0.3021  2.5951 -0.0822
13300SOL    HW257511   5.674   0.530   3.294  1.5607  0.3019 -0.9076
13301SOL     OW57512   3.609  10.690  13.810 -0.3600  0.8423 -0.3322
13301SOL    HW157513   3.588  10.713  13.719 -0.3193  0.1852 -0.5139
13301SOL    HW257514   3.526  10.695  13.856 -0.4089  1.0302 -0.4401
13302SOL     OW57515   4.967   8.565   6.524  0.1002 -0.4565  0.8085
13302SOL    HW157516   4.995   8.655   6.538  0.9605 -0.3215 -1.4455
13302SOL    HW257517   4.910   8.546   6.599  0.5772  1.6417  1.7779
13303SOL     OW57518  14.045   7.483   0.381  0.3338  0.6299 -0.0898
13303SOL    HW157519  14.038   7.560   0.438  0.1740 -0.5127  1.5217
13303SOL    HW257520  13.957   7.470   0.346  0.1847  0.7623  0.2319
13304SOL     OW57521   6.621   6.791   8.594 -0.1520 -0.1912  0.2060
13304SOL    HW157522   6.698   6.842   8.569  0.0651  0.0296  1.3032
13304SOL    HW257523   6.657   6.710   8.631 -0.4850 -0.9316 -1.0219
13305SOL     OW57524   7.990  12.100   4.339  0.1185  0.2698 -0.2893
13305SOL    HW157525   8.000  12.078   4.432  0.8019  2.2217  0.1622
13305SOL    HW257526   7.955  12.021   4.299  2.0903 -1.4688  1.1714
13306SOL     OW57527  11.947   1.368   9.273  0.1126 -0.3478  0.3368
13306SOL    HW157528  11.902   1.430   9.217  0.4086  0.1250  0.6176
13306SOL    HW257529  12.009   1.421   9.324  0.9314 -0.9742  0.0144
13307SOL     OW57530   3.891  12.071   8.438 -0.0123  0.3145  0.1498
13307SOL    HW157531   3.900  12.010   8.365 -2.0171  1.1200 -0.8539
13307SOL    HW257532   3.882  12.157   8.397 -2.7548  0.6164  1.1769
13308SOL     OW57533   8.592   8.181   5.928  0.1674  0.0749 -0.3872
13308SOL    HW157534   8.574   8.164   6.020  2.8857  0.4654  0.3106
13308SOL    HW257535   8.549   8.109   5.882 -0.6437 -0.5357  1.2237
13309SOL     OW57536   3.440   3.162   9.089 -0.3746  0.0131 -0.0842
13309SOL    HW157537   3.385   3.181   9.013  0.3512  1.6223 -0.2486
13309SOL    HW257538   3.527   3.147   9.053  0.1997  1.7993  0.4481
13310SOL     OW57539   1.446   6.723   3.220 -0.2019  0.2425 -0.2616
13310SOL    HW157540   1.471   6.775   3.144 -1.5981  2.0458  0.4331
13310SOL    HW257541   1.429   6.636   3.185 -0.0159  0.8108 -1.8583
13311SOL     OW57542  11.204   5.707   7.176 -0.5023 -0.5711 -0.0516
13311SOL    HW157543  11.254   5.734   7.099 -2.3075 -0.2141 -1.1825
13311SOL    HW257544  11.245   5.625   7.203  1.7206  0.5470  0.1638
13312SOL     OW57545   0.639   6.632   8.618 -0.9835  0.1079 -0.1540
13312SOL    HW157546   0.634   6.599   8.708  4.5328 -0.5531  0.2496
13312SOL    HW257547   0.602   6.561   8.565  0.6279 -2.0161  1.3718
13313SOL     OW57548   4.780  10.309  13.619  0.2730  0.3815 -0.0326
13313SOL    HW157549   4.862  10.286  13.662  0.1870  0.2569  0.0655
13313SOL    HW257550   4.773  10.404  13.628  1.1839  0.5993 -1.4066
13314SOL     OW57551   7.368  12.048  13.409  0.7042  0.0451  0.2979
13314SOL    HW157552   7.356  12.141  13.430  1.7925  0.2024  0.2928
13314SOL    HW257553   7.387  12.048  13.315  0.0186 -0.2609  0.1527
13315SOL     OW57554   9.217   6.143  10.367 -0.7266  0.3267 -0.2588
13315SOL    HW157555   9.157   6.124  10.439 -1.4850 -3.8074 -1.7584
13315SOL    HW257556   9.160   6.170  10.294 -0.5037 -0.6106 -0.7935
13316SOL     OW57557   3.752  10.499   1.833  0.1333 -0.3061  0.0383
13316SOL    HW157558   3.822  10.457   1.783 -0.0211  0.0022 -0.4420
13316SOL    HW257559   3.778  10.488   1.925  0.3408 -1.0197 -0.0955
13317SOL     OW57560   3.373   2.929   9.921  0.1979 -0.1742  0.6642
13317SOL    HW157561   3.394   3.013   9.880  1.5418 -0.9882 -0.3776
13317SOL    HW257562   3.383   2.865   9.851  2.1396 -1.5675  2.1266
13318SOL     OW57563   6.069  10.779   5.152 -0.8505  0.0379 -0.4945
13318SOL    HW157564   6.133  10.763   5.222 -1.9901  0.8722  0.7974
13318SOL    HW257565   6.097  10.723   5.080 -0.8774 -2.6413  1.4136
13319SOL     OW57566   5.402   9.096  12.166 -0.0745  0.1518 -0.0438
13319SOL    HW157567   5.456   9.059  12.096  0.0948  1.0640 -0.3983
13319SOL    HW257568   5.457   9.163  12.206  0.1788 -0.9426  1.5696
13320SOL     OW57569  11.254   0.493   1.326 -0.7198 -0.3935  0.2305
13320SOL    HW157570  11.326   0.524   1.381  0.3626 -0.3475 -1.1735
13320SOL    HW257571  11.180   0.485   1.387 -0.2426  1.9830  1.2272
13321SOL     OW57572  10.659   5.165   5.542 -0.2753 -0.0076 -0.0204
13321SOL    HW157573  10.599   5.117   5.599 -1.5254  1.4108 -0.0767
13321SOL    HW257574  10.667   5.251   5.583  1.4571 -0.0185 -0.2273
13322SOL     OW57575   0.503  13.934   1.751  0.2473  0.2638 -1.0857
13322SOL    HW157576   0.473  14.004   1.809  0.3868 -1.8957  1.8250
13322SOL    HW257577   0.598  13.933   1.763  0.6516  1.4609 -3.5363
13323SOL     OW57578  13.636   4.492   3.662  0.2314 -0.3118  0.1020
13323SOL    HW157579  13.723   4.490   3.701 -0.3743 -2.0912  1.5368
13323SOL    HW257580  13.634   4.417   3.603  0.4478  1.1681 -1.8546
13324SOL     OW57581  13.823   0.487   9.700  1.0827  0.3043  0.4233
13324SOL    HW157582  13.831   0.444   9.785 -1.4447 -1.0294  0.0924
13324SOL    HW257583  13.764   0.561   9.716  1.5187  0.7486  0.0250
13325SOL     OW57584   9.682   4.471   1.293 -0.4262 -0.7907  0.6473
13325SOL    HW157585   9.767   4.511   1.274  0.1776 -1.6759  1.3912
13325SOL    HW257586   9.638   4.468   1.209  0.6281 -1.1155  0.0902
13326SOL     OW57587   4.652  13.208   7.406  0.1863 -0.3653 -0.1436
13326SOL    HW157588   4.733  13.188   7.359  0.6364  0.2520  0.3561
13326SOL    HW257589   4.582  13.183   7.345  0.7525 -0.5267 -0.7347
13327SOL     OW57590  12.146   4.702   4.160 -0.6421  0.2699  0.2832
13327SOL    HW157591  12.144   4.797   4.160 -0.4099  0.3179 -1.9374
13327SOL    HW257592  12.130   4.678   4.252  0.3856  2.4316  1.1061
13328SOL     OW57593  10.548   4.761   3.936 -0.1233  0.4672  0.7183
13328SOL    HW157594  10.532   4.748   4.029 -1.1223  0.5278  0.5645
13328SOL    HW257595  10.508   4.845   3.916  1.2842  1.1188  0.5049
13329SOL     OW57596   6.339   6.686   3.327 -0.6801 -0.0861  0.4460
13329SOL    HW157597   6.388   6.635   3.391  2.9288  1.7051 -0.6342
13329SOL    HW257598   6.290   6.749   3.380  1.9630  1.1487  1.5941
13330SOL     OW57599   5.262  11.469  10.487 -0.4777  0.7098  0.6578
13330SOL    HW157600   5.170  11.495  10.480 -1.0221 -1.3902 -1.6508
13330SOL    HW257601   5.259  11.379  10.518  0.5678 -0.2227 -1.6995
13331SOL     OW57602  12.289   6.607   3.634  0.1956  0.0465 -0.0532
13331SOL    HW157603  12.334   6.674   3.686  0.0819 -0.1282  0.2722
13331SOL    HW257604  12.355   6.539   3.621  0.4334  0.3873 -0.7144
13332SOL     OW57605   4.983   2.292   6.233 -0.0227 -0.0661 -0.2553
13332SOL    HW157606   4.898   2.330   6.258 -1.0079 -1.3092 -1.5349
13332SOL    HW257607   5.047   2.360   6.253 -1.4310  1.2531 -0.0889
13333SOL     OW57608   4.665   0.346   5.250 -0.2089 -0.4341  0.0938
13333SOL    HW157609   4.628   0.263   5.279  1.4405 -0.5753  2.0053
13333SOL    HW257610   4.755   0.345   5.284 -0.5984  2.7614  1.5684
13334SOL     OW57611   5.924   2.161   1.895 -0.5406  0.3513  0.0816
13334SOL    HW157612   5.963   2.199   1.816  0.2946  0.0959  0.3622
13334SOL    HW257613   5.885   2.079   1.865  0.5987 -0.2190  0.0786
13335SOL     OW57614  10.140   8.521   5.194 -0.5508 -0.1746 -0.1788
13335SOL    HW157615  10.104   8.511   5.282 -0.0907  3.6925  0.6243
13335SOL    HW257616  10.235   8.516   5.206 -0.5083 -1.5131 -0.8458
13336SOL     OW57617  12.259   8.658   6.195 -0.0204 -0.4030  0.6285
13336SOL    HW157618  12.270   8.753   6.197 -2.7067  0.1295 -2.1665
13336SOL    HW257619  12.305   8.627   6.273  3.6190  2.8102  0.0966
13337SOL     OW57620   3.532   2.558  10.471 -0.6031 -0.8023  0.0726
13337SOL    HW157621   3.541   2.600  10.385 -1.6638 -0.7806 -0.0416
13337SOL    HW257622   3.560   2.625  10.533 -0.3797 -0.6170 -0.2252
13338SOL     OW57623   3.425   4.873  10.533 -0.4469 -0.5077 -0.0491
13338SOL    HW157624   3.373   4.830  10.600  0.2184 -1.7817 -0.3163
13338SOL    HW257625   3.499   4.911  10.581 -1.0571  0.3907  0.1939
13339SOL     OW57626  10.606  11.236  11.409 -0.0193  0.1310  0.5037
13339SOL    HW157627  10.630  11.321  11.372  0.2992  0.9890  2.5693
13339SOL    HW257628  10.688  11.202  11.445 -0.5190 -0.1863  1.3513
13340SOL     OW57629  11.875   0.654   7.158  0.2200  0.0209 -0.2579
13340SOL    HW157630  11.946   0.688   7.104 -0.7684  1.4401 -0.7263
13340SOL    HW257631  11.816   0.729   7.170 -1.1966 -1.1092  0.1100
13341SOL     OW57632   5.692   7.630   2.065 -0.1268  0.2247  0.2084
13341SOL    HW157633   5.615   7.619   2.009 -0.7098  0.0254  1.0351
13341SOL    HW257634   5.658   7.621   2.154  1.0395 -1.0370  0.5584
13342SOL     OW57635   6.470   1.259  13.090  0.2271  0.2893 -0.2878
13342SOL    HW157636   6.527   1.335  13.096  0.0961  0.3243  0.8063
13342SOL    HW257637   6.410   1.267  13.165 -1.9304  0.8120 -1.9612
13343SOL     OW57638   4.361   2.637   5.799 -0.2894  0.4698 -0.1819
13343SOL    HW157639   4.303   2.606   5.868  0.1980 -1.1873 -0.4646
13343SOL    HW257640   4.444   2.591   5.815 -0.1794  0.0189 -1.8619
13344SOL     OW57641   5.875   9.931   2.505 -0.4553  0.1276 -0.1114
13344SOL    HW157642   5.902   9.929   2.597 -1.2176  1.6101  0.1799
13344SOL    HW257643   5.785   9.963   2.508 -1.1645 -1.5962 -1.2720
13345SOL     OW57644   9.650  10.406   1.244 -0.4761 -0.0381  0.2543
13345SOL    HW157645   9.584  10.342   1.219  0.8971 -1.1523 -0.7185
13345SOL    HW257646   9.725  10.353   1.271  0.9401  1.1170 -1.2245
13346SOL     OW57647  13.498  13.350  11.255 -0.5452  0.2378  0.1164
13346SOL    HW157648  13.541  13.265  11.267 -0.3123  0.5546  1.8634
13346SOL    HW257649  13.406  13.329  11.240 -0.2347 -0.3632 -0.9851
13347SOL     OW57650   4.867  13.241   5.485  0.4660  0.0961  0.3460
13347SOL    HW157651   4.835  13.323   5.522  1.1590  0.1505  0.8452
13347SOL    HW257652   4.870  13.256   5.391  0.6574  0.6700  0.4406
13348SOL     OW57653   5.849  10.333   2.478 -0.2439 -0.2806  0.4124
13348SOL    HW157654   5.878  10.349   2.388  2.3481  0.8193  1.3484
13348SOL    HW257655   5.847  10.420   2.519  0.3258 -0.9159  1.8710
13349SOL     OW57656   6.940   8.932   5.577  0.5174  0.5985  0.0683
13349SOL    HW157657   6.923   8.972   5.662  1.0709  0.1220  0.4095
13349SOL    HW257658   6.929   9.004   5.514 -1.3974  0.6204  0.3656
13350SOL     OW57659   6.890  11.776   0.158 -0.1570  0.1880 -0.3439
13350SOL    HW157660   6.832  11.822   0.097 -0.1754  0.1991 -0.3179
13350SOL    HW257661   6.960  11.741   0.103  0.5716  1.3782 -0.1977
13351SOL     OW57662   8.335   7.354   9.020  0.6014 -0.4957 -0.1016
13351SOL    HW157663   8.332   7.260   9.034  1.0457 -0.4392  0.4306
13351SOL    HW257664   8.248   7.378   8.990 -0.1136 -0.7829  1.6546
13352SOL     OW57665  10.587   0.517  10.121  0.1035 -0.0909 -0.1557
13352SOL    HW157666  10.532   0.589  10.153  0.8567  0.4141  0.0122
13352SOL    HW257667  10.530   0.440  10.126 -0.1244  0.1384  1.4688
13353SOL     OW57668   8.332   9.763   0.409  0.7146 -0.0633  0.2681
13353SOL    HW157669   8.251   9.765   0.459  0.2406  0.8310 -0.4948
13353SOL    HW257670   8.326   9.838   0.349  0.1351 -2.3440 -2.8050
13354SOL     OW57671   5.767  11.314   9.148  0.1691  0.7562  0.1681
13354SOL    HW157672   5.782  11.408   9.138  0.1834  0.8700  1.2114
13354SOL    HW257673   5.676  11.301   9.120  0.8405  0.6955 -2.2157
13355SOL     OW57674   3.656  11.560   2.999  0.5437  0.1666 -0.0311
13355SOL    HW157675   3.750  11.550   3.010  0.3389  0.0742  2.1909
13355SOL    HW257676   3.642  11.557   2.904  2.6058 -1.1106 -0.3593
13356SOL     OW57677   5.197   2.759   0.001  0.4662 -0.4295 -0.4146
13356SOL    HW157678   5.208   2.838   0.055  0.9647 -1.3514  0.8803
13356SOL    HW257679   5.237   2.782  -0.083  0.9488  0.5789  0.0734
13357SOL     OW57680  11.615  12.011   0.450 -0.1364  0.2183  0.0328
13357SOL    HW157681  11.616  11.958   0.530 -1.5784  1.2570  0.7753
13357SOL    HW257682  11.624  11.947   0.379  2.7169 -0.6228  1.0075
13358SOL     OW57683   7.113   0.561   2.039  0.3898 -0.6806 -0.6658
13358SOL    HW157684   7.103   0.622   1.966  0.1473 -0.0483 -0.1224
13358SOL    HW257685   7.157   0.485   2.002 -0.2384 -0.6044 -1.5850
13359SOL     OW57686   9.983   3.019   3.665  0.1220 -0.2454 -0.3777
13359SOL    HW157687   9.909   3.079   3.657 -0.8401 -1.4931 -1.0279
13359SOL    HW257688   9.972   2.977   3.750  0.2484 -0.2226 -0.3493
13360SOL     OW57689   4.418  12.912   1.914  0.0897 -0.1904  0.4534
13360SOL    HW157690   4.432  12.844   1.848 -1.1865 -0.2200  0.1807
13360SOL    HW257691   4.465  12.988   1.881  0.6833 -0.6357  0.2520
13361SOL     OW57692  12.981   7.274   8.226  0.1731  0.7070 -0.2833
13361SOL    HW157693  12.895   7.232   8.225  0.5124 -0.1931  1.9622
13361SOL    HW257694  13.043   7.203   8.244  1.3135  1.4707 -1.0091
13362SOL     OW57695  11.226   5.070   8.713  0.8912  0.0483  0.4810
13362SOL    HW157696  11.188   5.024   8.787  0.8079  0.1458  0.4983
13362SOL    HW257697  11.251   5.001   8.652  0.7989 -0.0219  0.5224
13363SOL     OW57698   3.180   4.619   4.508 -0.3333 -0.0161  0.8229
13363SOL    HW157699   3.221   4.622   4.422  0.5292  1.7359  1.2507
13363SOL    HW257700   3.098   4.667   4.497 -0.9607 -1.1080  0.6341
13364SOL     OW57701   5.513   9.669   9.350  0.1991 -0.3817 -0.3688
13364SOL    HW157702   5.450   9.738   9.371 -0.1813 -1.0059  0.6414
13364SOL    HW257703   5.514   9.614   9.428 -0.5224 -2.2799 -1.6183
13365SOL     OW57704   9.580   1.062   5.478  0.0856 -0.1946  0.2664
13365SOL    HW157705   9.630   1.000   5.531 -0.0484  0.5334  1.2869
13365SOL    HW257706   9.492   1.024   5.473 -1.0027  1.4282  3.8194
13366SOL     OW57707   9.884   1.419  10.460  0.1767  0.4223  0.1607
13366SOL    HW157708   9.850   1.349  10.404  1.3737 -0.6920  0.7787
13366SOL    HW257709   9.950   1.464  10.406  1.2184 -0.5531  0.5835
13367SOL     OW57710  12.798   5.514   3.121 -0.5997 -0.7048 -0.4535
13367SOL    HW157711  12.710   5.478   3.134 -0.6825 -0.4771 -0.3712
13367SOL    HW257712  12.790   5.565   3.040 -0.7111 -0.1717 -0.1165
13368SOL     OW57713  13.344   1.953  11.287 -0.2623 -0.1583 -0.2826
13368SOL    HW157714  13.346   2.047  11.270  3.7964  0.1772  0.9645
13368SOL    HW257715  13.402   1.915  11.221  0.4430 -1.3511  0.9555
13369SOL     OW57716   7.787  10.904  13.297 -0.0920  0.0853 -0.6517
13369SOL    HW157717   7.704  10.907  13.250 -0.7394 -1.3857  0.3524
13369SOL    HW257718   7.792  10.815  13.333  0.2657  1.1758  2.2551
13370SOL     OW57719  12.712   7.224   2.817  0.1166  0.3506 -0.3526
13370SOL    HW157720  12.660   7.275   2.878 -1.7737 -0.6088 -1.0577
13370SOL    HW257721  12.741   7.148   2.867 -0.6674  0.0245 -0.3648
13371SOL     OW57722  11.071   1.104   9.474 -0.3253  0.2262 -0.3523
13371SOL    HW157723  11.056   1.021   9.429 -1.0714 -0.9387  1.8777
13371SOL    HW257724  11.166   1.116   9.472 -0.1250 -1.1330  0.0077
13372SOL     OW57725  12.581  10.447   9.112  0.2220  0.4482 -0.4537
13372SOL    HW157726  12.557  10.522   9.166  0.4919  0.3444 -0.1824
13372SOL    HW257727  12.539  10.463   9.027 -0.8706  0.2273  0.0225
13373SOL     OW57728  10.557   6.062  12.004  0.1338  0.1157  0.1075
13373SOL    HW157729  10.517   6.016  12.078  0.4595  1.0937  0.9183
13373SOL    HW257730  10.597   5.992  11.952  0.5162 -0.5383  1.2335
13374SOL     OW57731   6.407   3.746   3.630  0.3877 -0.0312 -0.0540
13374SOL    HW157732   6.459   3.816   3.668  1.0706 -0.9436  0.7497
13374SOL    HW257733   6.467   3.672   3.621 -0.6375 -0.9793  0.5010
13375SOL     OW57734  12.447   2.617   3.796 -0.0171 -0.1512  0.1956
13375SOL    HW157735  12.472   2.704   3.828 -1.2990 -0.4586  2.1371
13375SOL    HW257736  12.527   2.584   3.755  0.8120  1.4994  0.3858
13376SOL     OW57737  12.486   9.791   3.370 -0.4433 -0.6112  0.4951
13376SOL    HW157738  12.410   9.847   3.388 -0.8477 -0.2843 -1.8384
13376SOL    HW257739  12.559   9.852   3.358 -0.3039 -0.7661  0.5474
13377SOL     OW57740   2.312   6.721   6.469  0.0019  0.0018  0.0788
13377SOL    HW157741   2.293   6.766   6.387 -1.6207  2.5149  1.6724
13377SOL    HW257742   2.405   6.700   6.463  0.5192  2.2544 -1.4893
13378SOL     OW57743   8.610   4.939   1.180 -0.3703 -0.1006 -0.0962
13378SOL    HW157744   8.704   4.933   1.164  0.0239  2.1578  0.9957
13378SOL    HW257745   8.579   5.002   1.114 -0.5229  1.4783  1.4152
13379SOL     OW57746  13.873   5.252   2.603 -0.1139  0.5245  0.5220
13379SOL    HW157747  13.833   5.223   2.685  1.7723 -1.2433  0.9060
13379SOL    HW257748  13.961   5.281   2.629  0.3200  0.4541 -0.8015
13380SOL     OW57749  10.453   2.118   1.913  0.0687 -0.2386  0.5070
13380SOL    HW157750  10.482   2.040   1.866  0.3135  0.4918 -0.5940
13380SOL    HW257751  10.424   2.086   1.998  0.8820 -1.4231  0.3525
13381SOL     OW57752   5.713  11.176   0.929 -0.4616  0.4399  0.3627
13381SOL    HW157753   5.725  11.177   0.834  0.5887  0.4680  0.4790
13381SOL    HW257754   5.641  11.115   0.944 -0.0399 -0.2621 -0.3945
13382SOL     OW57755   8.098  10.493   3.171 -0.7736  0.0260  0.5362
13382SOL    HW157756   8.185  10.455   3.184 -0.4919  0.5756  0.2699
13382SOL    HW257757   8.077  10.535   3.254  0.1498  1.7574 -0.0593
13383SOL     OW57758   4.570   0.680  11.944 -0.5647 -0.3480  0.2671
13383SOL    HW157759   4.531   0.608  11.895 -1.2374  0.6853 -0.7591
13383SOL    HW257760   4.496   0.732  11.975 -0.0793  0.9491 -0.6350
13384SOL     OW57761  11.104   2.254  13.526  0.3050  0.1100  0.1841
13384SOL    HW157762  11.077   2.176  13.574 -2.1599 -0.4407 -1.8656
13384SOL    HW257763  11.199   2.256  13.533  0.2815 -2.0871  1.7406
13385SOL     OW57764   6.934   2.769   0.930 -0.5405 -0.1856  0.1135
13385SOL    HW157765   7.015   2.740   0.888 -0.8835 -2.3604  0.8316
13385SOL    HW257766   6.946   2.749   1.023 -1.6847 -0.0575  0.3119
13386SOL     OW57767   5.808   8.502  10.623  0.0439  0.2242  0.0376
13386SOL    HW157768   5.860   8.426  10.596  1.7379  0.8856  1.2611
13386SOL    HW257769   5.757   8.470  10.698  1.2062  0.4110  0.9370
13387SOL     OW57770   1.994   9.733  13.897  0.1338  0.2409 -0.2038
13387SOL    HW157771   1.921   9.773  13.851  1.0894 -0.4483 -2.4941
13387SOL    HW257772   1.971   9.640  13.903 -0.0372  0.3431  0.8711
13388SOL     OW57773   9.407  10.904   2.670 -0.8111 -0.5718 -0.7302
13388SOL    HW157774   9.398  10.957   2.591 -0.0055  1.2334  0.3165
13388SOL    HW257775   9.492  10.931   2.707  0.4664 -3.8323 -0.9801
13389SOL     OW57776   9.881   5.629   5.056  0.6562 -0.0495 -0.1075
13389SOL    HW157777   9.841   5.574   5.123 -0.0800 -0.1231 -0.6069
13389SOL    HW257778   9.832   5.611   4.976  2.7360 -1.4344 -1.1866
13390SOL     OW57779   8.718   6.057   9.350  0.0793  0.0125 -0.3363
13390SOL    HW157780   8.630   6.093   9.360  0.8455  1.4852  1.8500
13390SOL    HW257781   8.775   6.133   9.342  1.3129 -0.8695 -0.3057
13391SOL     OW57782   2.272   6.937  10.926 -0.6628 -0.7263 -0.4183
13391SOL    HW157783   2.294   6.871  10.860  2.2360  0.0975 -0.4012
13391SOL    HW257784   2.265   7.019  10.875 -1.5674 -0.5927 -0.0910
13392SOL     OW57785  10.444  13.084   8.643  0.2016  0.6058 -0.1341
13392SOL    HW157786  10.365  13.038   8.613  1.0558  1.4984 -4.5770
13392SOL    HW257787  10.443  13.166   8.594  3.0419  1.4026  0.9459
13393SOL     OW57788   0.831   0.471   2.867  0.2911  0.4601  0.2550
13393SOL    HW157789   0.790   0.478   2.953 -0.7671  2.9508 -0.3568
13393SOL    HW257790   0.850   0.561   2.842 -0.0722 -0.1122 -2.4074
13394SOL     OW57791  12.765  11.715   5.026  0.0331  0.2220 -0.2672
13394SOL    HW157792  12.796  11.656   4.957  3.2912 -0.1733  1.3174
13394SOL    HW257793  12.760  11.659   5.104 -1.4816  1.0974  0.2878
13395SOL     OW57794   8.772   0.626   2.701 -0.5917  0.1511 -0.1805
13395SOL    HW157795   8.740   0.582   2.780 -0.4928 -1.9163 -1.2063
13395SOL    HW257796   8.694   0.666   2.662 -0.8660  0.1020  0.3115
13396SOL     OW57797   6.621   3.705   7.292  0.6115  0.6975 -0.4735
13396SOL    HW157798   6.652   3.642   7.227 -0.1329  0.2514 -0.4114
13396SOL    HW257799   6.700   3.742   7.330  1.0722 -0.9081  0.1900
13397SOL     OW57800   7.345  11.219  12.954  0.1175 -0.2255 -0.3315
13397SOL    HW157801   7.331  11.282  13.025  2.4857 -0.3260  0.3262
13397SOL    HW257802   7.414  11.259  12.901  1.4839 -2.1063 -0.0509
13398SOL     OW57803  10.262   7.742   5.153  0.5834  0.7381 -0.2836
13398SOL    HW157804  10.356   7.758   5.156  0.4933  1.1976  0.3483
13398SOL    HW257805  10.228   7.809   5.093  0.6178  0.7930 -0.2417
13399SOL     OW57806   2.704   9.853  10.880  0.7272  0.1070  0.3430
13399SOL    HW157807   2.625   9.801  10.892  0.3518  0.7848  0.8697
13399SOL    HW257808   2.766   9.793  10.837 -1.1760  0.5493 -3.4289
13400SOL     OW57809  13.395   6.964  11.031 -0.8633 -0.5919 -0.8196
13400SOL    HW157810  13.368   6.978  11.122 -0.0394 -0.9672 -0.5070
13400SOL    HW257811  13.420   6.872  11.028 -0.0878 -0.3717 -1.2148
13401SOL     OW57812   0.109   1.496   7.058  0.0065  0.0137 -0.8490
13401SOL    HW157813   0.112   1.564   6.991 -0.1746 -0.1312 -1.0064
13401SOL    HW257814   0.043   1.525   7.120  2.1161  1.5600  0.8162
13402SOL     OW57815  10.340   5.310   6.311  0.0178 -0.1760  0.8816
13402SOL    HW157816  10.389   5.331   6.390 -0.5305 -3.7797  2.3441
13402SOL    HW257817  10.406   5.277   6.250  0.1969  1.0590  0.3581
13403SOL     OW57818   0.605  12.928  13.852 -0.1579  0.2399 -0.2958
13403SOL    HW157819   0.614  13.011  13.804 -3.0354  0.6981 -0.2481
13403SOL    HW257820   0.550  12.950  13.927  0.6817 -1.3492  0.8363
13404SOL     OW57821  13.464   1.897  12.434 -0.3824 -0.0778  0.0167
13404SOL    HW157822  13.463   1.983  12.392  1.7852 -0.0220 -0.0479
13404SOL    HW257823  13.406   1.843  12.380 -0.5609  0.9498 -0.8417
13405SOL     OW57824   7.471  13.391   1.949 -0.1969  0.2369  0.0648
13405SOL    HW157825   7.422  13.467   1.920  0.3325  0.5085 -0.1397
13405SOL    HW257826   7.446  13.379   2.040 -1.2755 -0.1439 -0.2660
13406SOL     OW57827   5.282  13.673   3.584  0.2178  0.0089 -0.0715
13406SOL    HW157828   5.269  13.765   3.560 -0.1329  0.0254  0.1762
13406SOL    HW257829   5.376  13.659   3.575  0.3003  0.4458  0.0776
13407SOL     OW57830   2.133   3.657  10.711 -0.3067  0.2406  0.2146
13407SOL    HW157831   2.044   3.633  10.736 -0.6543  0.0056 -1.1772
13407SOL    HW257832   2.148   3.613  10.627  1.0786  0.3757  0.3570
13408SOL     OW57833   0.713  12.518   0.037 -0.0272  0.3630 -0.1945
13408SOL    HW157834   0.658  12.447   0.070  0.5343 -0.3359 -0.7225
13408SOL    HW257835   0.793  12.514   0.089 -0.0310  0.6750 -0.1599
13409SOL     OW57836   8.942   3.652   5.326 -0.3969 -0.2286  0.1006
13409SOL    HW157837   8.859   3.701   5.328 -0.9392 -0.9816 -1.8035
13409SOL    HW257838   8.958   3.636   5.233  1.1319 -1.3967  0.5278
13410SOL     OW57839   9.574   7.613   3.680 -0.4492 -0.1720 -0.4254
13410SOL    HW157840   9.488   7.595   3.717  0.3891 -0.4024  1.5282
13410SOL    HW257841   9.585   7.547   3.612 -0.9199 -1.6311  0.8438
13411SOL     OW57842   8.411  10.695  11.713  0.0021 -0.0479  0.1755
13411SOL    HW157843   8.340  10.634  11.733 -0.2821  0.4811  0.8204
13411SOL    HW257844   8.482  10.671  11.772  0.5662 -0.8971 -0.8080
13412SOL     OW57845  13.203   7.605   9.119 -0.4810  0.3442  0.1404
13412SOL    HW157846  13.254   7.618   9.039 -0.3785  0.9237  0.2976
13412SOL    HW257847  13.215   7.686   9.169 -0.3165 -0.1311  0.8711
13413SOL     OW57848  13.872   3.918   4.097 -0.0166 -0.1182  0.0853
13413SOL    HW157849  13.916   3.956   4.021 -0.6814 -1.7643 -1.1870
13413SOL    HW257850  13.779   3.931   4.081 -0.1380  1.0285  1.4887
13414SOL     OW57851  10.893  13.680   0.187 -0.1584 -0.6710 -0.1657
13414SOL    HW157852  10.811  13.709   0.146 -0.2328 -2.7216 -1.5918
13414SOL    HW257853  10.934  13.623   0.122  2.0067 -0.3872  0.8650
13415SOL     OW57854   7.666   8.092   4.044  0.3354  0.4213  0.2649
13415SOL    HW157855   7.592   8.142   4.009 -0.2451 -1.0063 -0.6315
13415SOL    HW257856   7.710   8.153   4.103  0.2871  2.3493 -1.5786
13416SOL     OW57857   6.488   6.992   2.364  0.5603  0.1402  0.1800
13416SOL    HW157858   6.468   6.937   2.440 -1.7225 -0.1892 -0.5681
13416SOL    HW257859   6.402   7.018   2.331  1.5384  2.0188 -1.0511
13417SOL     OW57860   6.849   1.780   3.548  0.3944 -0.4341  0.0283
13417SOL    HW157861   6.906   1.792   3.624  0.7454  0.5433 -0.3741
13417SOL    HW257862   6.766   1.821   3.574  1.0760  1.5397 -0.7417
13418SOL     OW57863  10.674   9.523  13.740 -0.2160 -0.0660  0.5448
13418SOL    HW157864  10.733   9.496  13.671 -0.5104  0.5598  0.0350
13418SOL    HW257865  10.653   9.443  13.788  0.2740 -0.4401  0.1324
13419SOL     OW57866   3.862   1.583   0.299 -0.2632  0.2101  0.0020
13419SOL    HW157867   3.879   1.495   0.333 -0.3453  0.8180  1.7064
13419SOL    HW257868   3.812   1.626   0.368 -0.3548  1.5520 -0.8694
13420SOL     OW57869  13.894   3.015   9.787  0.5036  0.3943 -0.3842
13420SOL    HW157870  13.955   2.947   9.815 -0.0171 -0.2766 -0.8216
13420SOL    HW257871  13.863   2.985   9.701  1.5742  2.0533 -1.4110
13421SOL     OW57872   3.694  12.795   0.541  0.4304 -0.6122 -0.2315
13421SOL    HW157873   3.701  12.700   0.548 -1.7989 -0.8374 -0.1462
13421SOL    HW257874   3.700  12.813   0.447  1.5747 -0.7421 -0.1912
13422SOL     OW57875   2.773   7.900  11.430  0.1052  0.0814 -0.1507
13422SOL    HW157876   2.820   7.820  11.407  0.0138  0.8913 -3.7009
13422SOL    HW257877   2.839   7.969  11.423 -0.5689  0.6894 -0.6889
13423SOL     OW57878   0.327   5.764  13.739 -0.2359  0.3558 -0.2369
13423SOL    HW157879   0.319   5.688  13.797  0.7441  1.4802  1.4798
13423SOL    HW257880   0.236   5.787  13.718 -0.7739  0.8795  2.2713
13424SOL     OW57881  13.601  13.218  13.672  0.1223 -0.3181  0.0002
13424SOL    HW157882  13.616  13.312  13.688 -1.0115 -0.2100  0.5468
13424SOL    HW257883  13.687  13.183  13.653  0.6819  0.6967  0.5650
13425SOL     OW57884  10.277   6.683   4.723 -0.1832 -0.1169 -0.0311
13425SOL    HW157885  10.262   6.770   4.687  0.8841  0.3043  0.5079
13425SOL    HW257886  10.194   6.637   4.708 -1.4058  1.5212  1.1917
13426SOL     OW57887   2.293   4.397  12.687 -0.4782 -0.4208  0.2322
13426SOL    HW157888   2.374   4.378  12.735 -0.7471  1.0094  1.3010
13426SOL    HW257889   2.236   4.323  12.707  0.6890 -1.6941 -0.9189
13427SOL     OW57890   1.703   7.102   6.295 -0.2401 -0.4337  0.4584
13427SOL    HW157891   1.661   7.105   6.381  1.3194 -1.4070  1.3021
13427SOL    HW257892   1.647   7.155   6.239 -2.4113 -1.4488  1.5651
13428SOL     OW57893   0.710   5.570  13.459  0.2545  0.0804 -0.1647
13428SOL    HW157894   0.739   5.508  13.526 -0.3093  0.4930  0.4751
13428SOL    HW257895   0.727   5.656  13.497  0.1966  0.3151 -0.6709
13429SOL     OW57896   3.561   0.579  12.037 -0.8306  0.1792 -0.1963
13429SOL    HW157897   3.652   0.609  12.041 -0.8891  0.3426 -0.0874
13429SOL    HW257898   3.560   0.516  11.965 -1.0751  1.6995 -1.5755
13430SOL     OW57899   1.283   5.296   1.259 -0.0118  0.1869 -0.0603
13430SOL    HW157900   1.318   5.310   1.347  0.1412 -2.2600  0.3332
13430SOL    HW257901   1.342   5.233   1.218 -1.1000 -0.1291 -1.2465
13431SOL     OW57902  11.910   7.208   7.092 -0.7026  0.3962  0.1682
13431SOL    HW157903  11.946   7.162   7.016 -0.7068 -0.2889  0.5759
13431SOL    HW257904  11.930   7.300   7.075 -0.8900  0.2798 -0.7621
13432SOL     OW57905   9.317   3.831   0.732  0.0799 -0.3789 -0.6886
13432SOL    HW157906   9.278   3.782   0.805 -2.6101 -0.7812 -2.2861
13432SOL    HW257907   9.378   3.769   0.692 -0.9837 -1.3689 -0.8200
13433SOL     OW57908   6.537   0.845   7.594  0.3733  0.4114 -0.3720
13433SOL    HW157909   6.573   0.929   7.622  0.6669 -0.4601  2.2375
13433SOL    HW257910   6.443   0.852   7.611  0.4600  0.1007  0.2897
13434SOL     OW57911   6.016   0.742   2.768 -0.2068 -0.4679  0.4514
13434SOL    HW157912   6.109   0.719   2.774  0.2946  1.0792 -0.7958
13434SOL    HW257913   5.971   0.667   2.807  1.5688 -1.0497  1.5245
13435SOL     OW57914  14.066   3.194   8.822 -0.0738 -0.2127 -0.2088
13435SOL    HW157915  14.004   3.142   8.873 -0.4738 -0.0675 -0.5466
13435SOL    HW257916  14.104   3.255   8.885 -0.5366 -0.0603 -0.0729
13436SOL     OW57917  12.018  12.897   8.218  0.5265  0.0999 -0.5635
13436SOL    HW157918  11.951  12.829   8.226  1.1622 -0.6191 -1.1774
13436SOL    HW257919  12.100  12.849   8.203  1.2050  0.9556  0.2823
13437SOL     OW57920   9.787   3.095   7.820  0.0474 -0.3166  0.1130
13437SOL    HW157921   9.753   3.117   7.907  0.8592 -0.7960  0.5753
13437SOL    HW257922   9.712   3.059   7.773 -0.2449 -0.7296  0.8689
13438SOL     OW57923  12.841   1.806   7.679 -0.3474  0.1998 -0.4498
13438SOL    HW157924  12.935   1.799   7.664 -0.5314 -1.7419 -0.9285
13438SOL    HW257925  12.823   1.900   7.677  1.2488  0.5220 -2.4135
13439SOL     OW57926   8.816   2.662   6.052  0.0032 -0.2901 -0.0014
13439SOL    HW157927   8.900   2.683   6.013  0.3691  0.0919  0.9590
13439SOL    HW257928   8.781   2.747   6.080 -0.8979 -0.3944 -0.7613
13440SOL     OW57929  11.967  13.841  13.331 -0.1725  0.1974 -0.1380
13440SOL    HW157930  12.042  13.837  13.272 -1.7644  0.0526 -2.2569
13440SOL    HW257931  11.905  13.900  13.288 -2.0707 -1.1789  0.5714
13441SOL     OW57932  10.684  11.301   5.889 -0.0247 -0.1826  0.1589
13441SOL    HW157933  10.744  11.265   5.954  0.0981  0.5345  0.4450
13441SOL    HW257934  10.721  11.272   5.805 -0.1584 -1.0679  0.3891
13442SOL     OW57935   3.023   8.543   9.385 -0.4109 -0.0044  0.3369
13442SOL    HW157936   3.088   8.477   9.406  0.1965  1.0745  2.0674
13442SOL    HW257937   3.064   8.595   9.316  0.8714  0.9828  1.7588
13443SOL     OW57938   9.962  11.768   8.385  0.5512  0.7474  0.3041
13443SOL    HW157939   9.928  11.857   8.386 -0.8928  0.2231  1.0801
13443SOL    HW257940   9.945  11.736   8.297 -1.3785  0.3896  0.7573
13444SOL     OW57941   8.059   3.214   1.309 -0.3157  0.1239 -0.2033
13444SOL    HW157942   8.055   3.291   1.252  0.0128  0.2421 -0.0690
13444SOL    HW257943   8.142   3.223   1.356 -0.8459  0.3109  0.7079
13445SOL     OW57944  12.342   3.497   1.780  0.2740  0.5313  0.4981
13445SOL    HW157945  12.275   3.432   1.799  0.5953  0.1350  0.3006
13445SOL    HW257946  12.379   3.520   1.865  2.3635 -1.9303  0.3985
13446SOL     OW57947  11.773   6.921  13.953 -0.7514  0.2872  0.3511
13446SOL    HW157948  11.724   6.918  14.035 -0.2134 -0.9544  0.6380
13446SOL    HW257949  11.712   6.889  13.887 -1.0747  0.9683  0.3117
13447SOL     OW57950   3.576   4.421   4.937  0.2303  0.0539  0.7492
13447SOL    HW157951   3.493   4.466   4.922  0.5547  0.4333  0.0249
13447SOL    HW257952   3.553   4.328   4.942 -0.2873  0.1962  0.9889
13448SOL     OW57953  10.195   2.180  13.334 -0.3964  0.0134  0.2970
13448SOL    HW157954  10.279   2.183  13.288 -0.3859  1.4472  0.3894
13448SOL    HW257955  10.183   2.087  13.355  0.7363 -0.3295 -0.4951
13449SOL     OW57956   0.154  12.448   3.695 -0.2106  0.0892 -0.5329
13449SOL    HW157957   0.161  12.496   3.777  0.2353 -2.8529  1.3013
13449SOL    HW257958   0.215  12.492   3.636 -1.9283  3.4546 -0.0310
13450SOL     OW57959   7.955   6.822   9.208 -0.2800 -0.1623 -0.0416
13450SOL    HW157960   8.024   6.863   9.260 -0.3317  1.7358 -1.3884
13450SOL    HW257961   7.883   6.809   9.270  0.3925  0.1181  0.8213
13451SOL     OW57962   5.275   1.778  12.908  0.0006 -0.4487 -0.0598
13451SOL    HW157963   5.193   1.729  12.921  0.2066 -0.9862 -0.7095
13451SOL    HW257964   5.331   1.751  12.980 -0.5413  0.2435  0.6291
13452SOL     OW57965  13.083  11.233   8.805 -0.1673  0.2427  0.5843
13452SOL    HW157966  13.072  11.261   8.896 -1.8412  0.7706  0.2417
13452SOL    HW257967  13.123  11.309   8.762 -0.4264  0.4119  0.6399
13453SOL     OW57968  11.338   7.324   7.080  0.4408  0.4194 -0.1323
13453SOL    HW157969  11.428   7.307   7.055 -0.3718 -2.7927 -1.4155
13453SOL    HW257970  11.337   7.314   7.175  1.1124 -1.7636 -0.3026
13454SOL     OW57971   9.169  11.381   6.730  0.1053  0.6193 -0.4250
13454SOL    HW157972   9.168  11.463   6.682 -1.9641  0.2949 -1.0306
13454SOL    HW257973   9.140  11.403   6.818  2.5445  0.9825  0.3606
13455SOL     OW57974   3.870   3.829   1.782  0.0632 -0.3676 -0.4022
13455SOL    HW157975   3.821   3.842   1.864  1.3710  0.6299  0.2554
13455SOL    HW257976   3.849   3.906   1.729  1.5589  0.5300  0.2460
13456SOL     OW57977  11.135   6.415   7.774 -0.1821 -0.0477  0.4928
13456SOL    HW157978  11.125   6.320   7.767 -1.4272  0.0749  0.4173
13456SOL    HW257979  11.229   6.428   7.786  0.1878 -1.2045 -0.8739
13457SOL     OW57980   2.380   5.094   6.509  0.2511  0.4775  0.4736
13457SOL    HW157981   2.390   5.174   6.561  2.1051 -0.2054  1.2548
13457SOL    HW257982   2.344   5.030   6.571  1.3073  0.0013  0.6225
13458SOL     OW57983   1.383  10.162  11.700  0.3090 -0.0977  0.0673
13458SOL    HW157984   1.429  10.163  11.616 -0.0330  0.2276 -0.1224
13458SOL    HW257985   1.324  10.237  11.695  1.1214  0.6377  1.0692
13459SOL     OW57986   5.001   1.069  11.957  0.5226  0.1429  0.0472
13459SOL    HW157987   4.959   1.072  12.043  0.2658  0.1341 -0.0764
13459SOL    HW257988   5.086   1.111  11.970  0.3709  0.3894  0.2420
13460SOL     OW57989  10.284  12.832   9.025  0.1776  0.3789 -0.0723
13460SOL    HW157990  10.372  12.800   9.006  0.2311 -0.4781  1.4188
13460SOL    HW257991  10.248  12.856   8.940  0.5438 -2.7151 -1.2478
13461SOL     OW57992  10.278  12.974   6.783  0.6035  0.1598  0.1451
13461SOL    HW157993  10.339  12.902   6.799  0.0085 -0.6030 -0.8755
13461SOL    HW257994  10.200  12.931   6.746 -0.0148  1.2595  0.1414
13462SOL     OW57995   3.296  11.225   1.442  0.3475 -0.4364  0.1177
13462SOL    HW157996   3.289  11.237   1.347 -1.8456  2.3720  0.4943
13462SOL    HW257997   3.262  11.137   1.458 -1.2542 -0.1835 -1.5687
13463SOL     OW57998  13.514   9.465   4.747 -0.0693  0.6157 -0.1575
13463SOL    HW157999  13.434   9.517   4.751 -0.0864  0.8692 -2.3324
13463SOL    HW258000  13.585   9.529   4.742  0.2101  0.3951  0.8193
13464SOL     OW58001   4.370  10.944   7.005  0.1735 -0.2169 -0.2665
13464SOL    HW158002   4.414  10.956   7.089 -0.8588 -0.4313  0.3222
13464SOL    HW258003   4.434  10.972   6.940  0.9566  0.0358  0.5945
13465SOL     OW58004  12.452   8.586   7.058 -0.2935 -0.0707 -0.0070
13465SOL    HW158005  12.371   8.591   7.110  0.3037  0.4182  0.8935
13465SOL    HW258006  12.442   8.655   6.993 -0.4941  0.1468  0.2512
13466SOL     OW58007  13.977  12.761  12.473  0.9145  0.0850  0.3510
13466SOL    HW158008  13.903  12.710  12.506  0.3742 -0.1885 -1.2035
13466SOL    HW258009  14.041  12.696  12.445  1.3229  0.3133  0.7246
13467SOL     OW58010  11.911   2.714  11.213  0.0229  0.9152  0.1038
13467SOL    HW158011  11.901   2.774  11.138  0.8792 -0.4056 -1.1158
13467SOL    HW258012  11.909   2.627  11.174  3.4114  0.2036  1.1841
13468SOL     OW58013  10.899   9.427  13.586 -0.6598  0.3745 -0.2365
13468SOL    HW158014  10.888   9.391  13.498 -1.8287  1.0617 -0.3896
13468SOL    HW258015  10.992   9.450  13.591 -0.1174 -1.5649 -0.5334
13469SOL     OW58016  11.415   9.323  10.315  0.2158  0.1460  0.1597
13469SOL    HW158017  11.431   9.335  10.221  0.5833 -0.0867  0.1923
13469SOL    HW258018  11.391   9.410  10.347  1.3309  0.4807  0.0955
13470SOL     OW58019   0.661   1.123   0.753 -0.2721 -0.1359  0.0407
13470SOL    HW158020   0.615   1.061   0.697 -1.0601  1.3411 -1.0102
13470SOL    HW258021   0.754   1.110   0.733 -0.4827 -0.3550 -0.8290
13471SOL     OW58022  12.576   7.579   7.246 -0.1851  0.1412  0.3178
13471SOL    HW158023  12.509   7.546   7.187  1.0867 -1.0701 -0.5220
13471SOL    HW258024  12.561   7.673   7.250 -0.9219  0.1111 -1.1446
13472SOL     OW58025   1.474   6.043   2.424  0.1045 -0.5258  0.1343
13472SOL    HW158026   1.562   6.072   2.401  0.1348 -0.9690 -0.3361
13472SOL    HW258027   1.437   6.010   2.342 -0.7655  0.3029  0.1713
13473SOL     OW58028   0.536   0.064   6.718  0.3542  1.0048 -0.0893
13473SOL    HW158029   0.572  -0.023   6.700  0.4383  0.7099  1.3871
13473SOL    HW258030   0.484   0.053   6.797 -0.1450  2.1755 -0.2284
13474SOL     OW58031   1.020   1.320   3.451 -0.3832  0.7561  0.0562
13474SOL    HW158032   1.038   1.379   3.524  2.2554  0.1559 -0.0008
13474SOL    HW258033   1.043   1.370   3.373  0.6443  0.1355 -0.0673
13475SOL     OW58034   7.436   6.284   6.009 -0.3200  0.0327  0.1164
13475SOL    HW158035   7.411   6.303   5.919  1.1618  1.4121 -0.0578
13475SOL    HW258036   7.530   6.267   6.005 -0.4216 -0.9635  1.2643
13476SOL     OW58037   9.974  10.120  13.790 -0.8804  0.1696  0.2268
13476SOL    HW158038  10.037  10.192  13.784 -0.8033  0.1351  0.6364
13476SOL    HW258039   9.947  10.118  13.882 -0.8177 -0.3775  0.2404
13477SOL     OW58040   3.915  11.322  10.575 -0.1197  0.1580  0.3831
13477SOL    HW158041   4.006  11.299  10.560  0.5520  2.6338  0.3042
13477SOL    HW258042   3.880  11.247  10.624  1.8550 -0.9576  0.2147
13478SOL     OW58043   2.476   3.018   8.754 -0.1675 -0.4496 -0.1967
13478SOL    HW158044   2.519   2.935   8.775  0.3505 -0.5293 -1.4749
13478SOL    HW258045   2.548   3.078   8.732 -0.5964  0.0081 -0.3866
13479SOL     OW58046   9.002  13.636  13.753  0.8042  0.3544  0.8540
13479SOL    HW158047   8.913  13.668  13.738  0.4269 -1.2831 -0.7482
13479SOL    HW258048   9.057  13.685  13.691  0.9499  0.9890  1.4747
13480SOL     OW58049   6.372   5.228  11.323  0.1214  0.6019 -0.1007
13480SOL    HW158050   6.284   5.192  11.318  0.3673 -0.2770  1.2194
13480SOL    HW258051   6.390   5.234  11.417  1.2382  1.3521 -0.3393
13481SOL     OW58052  12.469  13.689   8.855 -0.4148 -0.0926 -0.0985
13481SOL    HW158053  12.507  13.668   8.770 -2.8208 -0.8335 -1.0981
13481SOL    HW258054  12.489  13.782   8.868 -1.5545  0.5574 -2.4232
13482SOL     OW58055  13.481   6.067   6.707 -0.2626 -0.4331 -0.4894
13482SOL    HW158056  13.477   6.152   6.663  0.2774  0.1990  0.6177
13482SOL    HW258057  13.518   6.008   6.642  0.5292  0.4731 -0.8979
13483SOL     OW58058   4.260   5.254   1.355  0.2933  0.0683  0.1429
13483SOL    HW158059   4.212   5.335   1.341 -0.7352 -0.5677 -0.1335
13483SOL    HW258060   4.234   5.198   1.282 -0.9155 -1.3742  1.5957
13484SOL     OW58061   9.160   6.961   2.417  0.2042 -0.2708 -0.1722
13484SOL    HW158062   9.194   6.903   2.350  2.6564  0.8347 -0.0022
13484SOL    HW258063   9.235   6.980   2.473 -0.9832  1.4198  0.9764
13485SOL     OW58064   5.687  10.000   1.400 -0.5127  0.2679 -0.4171
13485SOL    HW158065   5.725   9.914   1.420 -1.4618  0.1876  1.1746
13485SOL    HW258066   5.622   9.982   1.332 -0.0910 -0.1247 -0.7232
13486SOL     OW58067  10.742   4.224   4.688 -0.0658 -1.0545 -0.4092
13486SOL    HW158068  10.819   4.279   4.674 -0.2304 -0.4956  0.8065
13486SOL    HW258069  10.765   4.168   4.761 -1.4305  0.3806  1.2153
13487SOL     OW58070   0.570   3.624   7.157 -0.1313  0.2153  0.2860
13487SOL    HW158071   0.593   3.601   7.247 -2.0405  2.6591  1.5167
13487SOL    HW258072   0.503   3.560   7.132 -0.8278  0.5300  1.2800
13488SOL     OW58073   5.602   3.873   7.311 -0.0467 -0.3414 -0.0419
13488SOL    HW158074   5.633   3.911   7.229  0.3055 -1.4498 -0.4316
13488SOL    HW258075   5.681   3.862   7.364 -0.0556 -1.1186 -0.1806
13489SOL     OW58076   4.124   3.288   7.453 -0.1258  0.4310  0.0245
13489SOL    HW158077   4.176   3.208   7.448 -1.3299 -0.4504  0.9022
13489SOL    HW258078   4.034   3.257   7.468 -0.7105  1.9316 -0.2469
13490SOL     OW58079   0.066  12.568   6.245  0.4770  0.3136  0.4022
13490SOL    HW158080   0.093  12.645   6.296  0.4349  1.7425 -1.6081
13490SOL    HW258081   0.018  12.514   6.307  1.5109  1.3461  2.1786
13491SOL     OW58082   9.988  10.901  10.143 -0.1254  0.3167  0.6488
13491SOL    HW158083   9.959  10.988  10.116 -0.3008  0.4959  1.3743
13491SOL    HW258084  10.024  10.914  10.231 -0.2906 -0.3656  0.8253
13492SOL     OW58085   2.209   0.061   0.389  0.4775  0.1895  0.0851
13492SOL    HW158086   2.164  -0.023   0.380 -0.0735  0.5125 -0.1914
13492SOL    HW258087   2.145   0.118   0.430 -0.2086  1.2941 -2.3197
13493SOL     OW58088   2.221   2.566   2.096 -0.1421 -0.1727 -0.6694
13493SOL    HW158089   2.275   2.541   2.021 -0.2305 -3.5474  0.2239
13493SOL    HW258090   2.150   2.501   2.098 -2.2634  2.0156  0.2638
13494SOL     OW58091  12.218   9.250   1.670  0.4333  0.2051 -0.1949
13494SOL    HW158092  12.295   9.268   1.616  0.1917  1.1764 -0.2425
13494SOL    HW258093  12.192   9.336   1.703  0.0931 -0.2749  0.8081
13495SOL     OW58094   5.235   9.394  13.287  0.1089  0.4525  0.4708
13495SOL    HW158095   5.275   9.314  13.321  2.5178  1.1907 -0.4317
13495SOL    HW258096   5.180   9.364  13.214  0.9070 -0.4280  0.2025
13496SOL     OW58097   2.089   4.251   7.632  0.2201 -0.3291 -0.3450
13496SOL    HW158098   2.134   4.314   7.689 -0.2155 -0.7949  0.5209
13496SOL    HW258099   2.137   4.257   7.549 -0.3836  1.8194 -0.5975
13497SOL     OW58100   3.611   2.389  11.470  0.1623  0.4531 -0.4797
13497SOL    HW158101   3.536   2.448  11.470 -0.0836  0.1470 -0.0326
13497SOL    HW258102   3.601   2.338  11.550  1.0668  0.6889 -0.2076
13498SOL     OW58103   7.508   3.612   8.525 -0.0288 -0.1701 -0.1480
13498SOL    HW158104   7.592   3.573   8.502 -0.0175 -1.6110  2.0109
13498SOL    HW258105   7.497   3.592   8.618 -1.4135  2.5455  0.3745
13499SOL     OW58106   8.113  10.439   0.773 -0.3352 -0.1841 -0.1035
13499SOL    HW158107   8.053  10.512   0.784  0.1288  0.3056 -0.7717
13499SOL    HW258108   8.075  10.386   0.703  0.3705  0.5320 -1.0653
13500SOL     OW58109   7.197   4.762  12.751  0.5905 -0.9634 -0.5135
13500SOL    HW158110   7.236   4.690  12.801 -0.5558 -0.2033  1.6316
13500SOL    HW258111   7.256   4.835  12.764  0.1613 -0.6960  0.0022
13501SOL     OW58112   6.102  10.571  13.475  0.2464 -0.3679 -0.1931
13501SOL    HW158113   6.054  10.653  13.464 -0.5195 -0.3594  2.5343
13501SOL    HW258114   6.113  10.538  13.386 -2.0056  1.2380 -1.1738
13502SOL     OW58115   8.587   1.226   9.816  0.3329 -0.7043  0.5146
13502SOL    HW158116   8.584   1.144   9.767 -2.0436  0.0968 -0.8533
13502SOL    HW258117   8.643   1.208   9.891 -1.3105 -4.0802  1.0960
13503SOL     OW58118  13.986   2.138   7.482  0.0995 -0.2656  0.0112
13503SOL    HW158119  13.925   2.212   7.483  2.3932  1.8043 -0.8645
13503SOL    HW258120  13.931   2.061   7.487 -2.4292  1.4940  1.4678
13504SOL     OW58121  10.816   3.390  11.040 -0.0657 -0.3704 -0.2110
13504SOL    HW158122  10.727   3.426  11.038 -0.0621  0.0268  2.5796
13504SOL    HW258123  10.873   3.467  11.036  0.1391 -0.5376 -0.5922
13505SOL     OW58124  11.650   8.081   0.931 -0.0230  0.0125  0.1875
13505SOL    HW158125  11.669   8.159   0.879  1.2426 -0.0972  0.4551
13505SOL    HW258126  11.675   8.105   1.020 -0.6188 -0.3526  0.4595
13506SOL     OW58127   1.918   8.243   5.367 -0.1311  0.3439  0.2451
13506SOL    HW158128   1.855   8.286   5.425 -0.2261  0.3204  0.1584
13506SOL    HW258129   1.975   8.194   5.427 -1.2362 -1.0138  0.2271
13507SOL     OW58130   8.156   7.510   3.493 -0.3384  0.0926  0.6629
13507SOL    HW158131   8.144   7.486   3.585 -0.0973 -1.5026  0.3099
13507SOL    HW258132   8.230   7.457   3.464 -2.9470 -2.7437 -1.5330
13508SOL     OW58133  13.464   3.713  11.147 -0.6320 -0.5795  0.3282
13508SOL    HW158134  13.415   3.650  11.199 -0.8653 -2.5478 -2.0886
13508SOL    HW258135  13.398   3.768  11.106 -0.4947  0.2882  1.2209
13509SOL     OW58136  10.280   4.910  12.540  0.4000  0.2384  0.2240
13509SOL    HW158137  10.357   4.966  12.549  0.1218  0.7217 -0.3257
13509SOL    HW258138  10.212   4.968  12.505  0.3450 -0.6419 -1.1977
13510SOL     OW58139   0.964   3.145   8.960  0.0622 -0.1364 -0.2323
13510SOL    HW158140   0.909   3.192   8.897  0.3685  0.7975  0.1903
13510SOL    HW258141   1.054   3.158   8.928  0.1738 -0.1433  0.0771
13511SOL     OW58142   6.408   0.834   3.555 -0.7491  0.3767 -0.2443
13511SOL    HW158143   6.324   0.821   3.598 -2.2495  2.6653 -2.1585
13511SOL    HW258144   6.393   0.807   3.464  1.0787 -0.6075 -0.3023
13512SOL     OW58145  13.366   0.514  10.175 -0.3195 -0.4504  0.3601
13512SOL    HW158146  13.328   0.427  10.188  0.1898 -1.0020 -1.5038
13512SOL    HW258147  13.383   0.547  10.263 -1.4932 -1.7939  1.1240
13513SOL     OW58148   3.594   0.530  13.211 -0.0991 -0.2616  0.0201
13513SOL    HW158149   3.683   0.506  13.235  0.4687  1.0099 -0.7062
13513SOL    HW258150   3.578   0.485  13.129  0.6889  1.1403 -0.9514
13514SOL     OW58151   4.060   1.673   1.065 -0.0239 -0.4253  0.3400
13514SOL    HW158152   4.071   1.701   0.975  0.8149  0.2385  0.6389
13514SOL    HW258153   3.993   1.731   1.101 -0.5429 -0.8564  0.0803
13515SOL     OW58154  13.100  12.045   9.206 -0.2621  0.2810  0.2239
13515SOL    HW158155  13.021  11.991   9.214  0.1172 -0.8036 -2.2536
13515SOL    HW258156  13.168  11.984   9.177  0.9924  1.5499  0.3865
13516SOL     OW58157   4.373   6.155  12.824 -0.2623  0.2293  0.1965
13516SOL    HW158158   4.328   6.239  12.836 -0.6391  0.0297  0.1975
13516SOL    HW258159   4.419   6.164  12.741  0.2814  0.6967  0.5480
13517SOL     OW58160  10.809   8.774  10.493  0.0611 -0.6422 -0.0710
13517SOL    HW158161  10.881   8.770  10.556 -0.3355 -1.3491  0.3510
13517SOL    HW258162  10.733   8.800  10.544  0.4564  2.7060 -0.9523
13518SOL     OW58163  12.637   3.067   2.006 -0.2812  0.1897  0.0198
13518SOL    HW158164  12.731   3.055   1.995 -0.2943  0.3383 -0.2607
13518SOL    HW258165  12.629   3.137   2.071 -0.1900  1.0132 -0.8405
13519SOL     OW58166   2.116  11.893   6.823  0.5299  0.2268 -0.0695
13519SOL    HW158167   2.126  11.947   6.745  0.6991  0.5220  0.1497
13519SOL    HW258168   2.170  11.938   6.889 -0.3746  0.5155  0.4869
13520SOL     OW58169   3.822  13.394   3.331  0.0738 -0.2866  0.1475
13520SOL    HW158170   3.766  13.349   3.394 -0.7208  0.1241 -0.2485
13520SOL    HW258171   3.911  13.380   3.363 -0.0827 -2.6402 -0.2878
13521SOL     OW58172  12.142   3.099   8.951 -0.1891  0.8474 -0.1413
13521SOL    HW158173  12.109   3.160   9.017  1.5885  2.4652 -0.6398
13521SOL    HW258174  12.205   3.045   8.999 -1.2561 -0.1766  0.1477
13522SOL     OW58175  14.081   4.500   5.758  0.4826  0.0911  0.3418
13522SOL    HW158176  14.006   4.557   5.739  1.3709  1.1282 -0.2019
13522SOL    HW258177  14.088   4.501   5.854  0.1439  0.4569  0.3677
13523SOL     OW58178   5.439  13.678   4.410  0.2602 -0.4099 -0.2136
13523SOL    HW158179   5.520  13.725   4.433  1.1440 -2.0959  0.2562
13523SOL    HW258180   5.399  13.657   4.494 -2.4451  3.1738 -0.3877
13524SOL     OW58181  12.904   6.750   3.326  0.1717 -0.2770 -0.1237
13524SOL    HW158182  12.865   6.834   3.350 -0.0273 -0.5748  0.6496
13524SOL    HW258183  12.866   6.728   3.241  0.2224  0.4125 -0.3228
13525SOL     OW58184   7.208  13.128   1.432 -0.0081 -0.6555  0.1155
13525SOL    HW158185   7.207  13.098   1.522  1.5439 -2.4770 -0.4030
13525SOL    HW258186   7.139  13.078   1.388  0.5045 -1.2071 -0.0832
13526SOL     OW58187   5.579   0.665  11.870  0.2863 -0.5010  0.3799
13526SOL    HW158188   5.623   0.734  11.919  0.5939  0.0064 -0.5875
13526SOL    HW258189   5.608   0.677  11.779 -1.3612 -0.5405 -0.1915
13527SOL     OW58190  10.010  13.678  13.718  0.2914 -0.0368  0.0277
13527SOL    HW158191   9.970  13.764  13.719 -3.1802 -1.4561 -1.0667
13527SOL    HW258192  10.059  13.675  13.635 -2.3839 -0.1171 -1.6756
13528SOL     OW58193  12.550   5.601   0.686  0.5267  0.8559 -0.4430
13528SOL    HW158194  12.497   5.662   0.737  0.2473  1.1432 -1.0712
13528SOL    HW258195  12.587   5.541   0.751 -1.4385 -0.0385 -0.0945
13529SOL     OW58196   8.056  11.683   4.412  0.1516 -0.5874  0.2416
13529SOL    HW158197   7.978  11.706   4.362  0.2281 -1.2579 -0.1966
13529SOL    HW258198   8.023  11.635   4.488  0.0505  0.2453  0.7347
13530SOL     OW58199   6.739   2.149  11.440 -0.3555 -0.5831  0.0888
13530SOL    HW158200   6.749   2.056  11.419 -2.4052 -0.5754 -1.2776
13530SOL    HW258201   6.644   2.161  11.449 -0.0384  1.0447  2.0022
13531SOL     OW58202   2.698   3.949   1.214 -0.3149  0.0503 -0.4461
13531SOL    HW158203   2.789   3.958   1.240 -0.3484  0.9787 -0.6016
13531SOL    HW258204   2.681   3.855   1.217  0.8172 -0.1933 -0.9830
13532SOL     OW58205   5.371   6.313  11.923  0.4066 -0.3836 -0.3758
13532SOL    HW158206   5.395   6.388  11.979 -0.0939  0.8387 -1.7262
13532SOL    HW258207   5.409   6.237  11.967  0.5170  0.5921  1.3161
13533SOL     OW58208  12.661  13.485   2.413 -0.2971 -0.1115 -1.1044
13533SOL    HW158209  12.678  13.560   2.356 -0.3772 -0.4852 -1.6191
13533SOL    HW258210  12.744  13.468   2.457  0.2224 -0.8761 -2.3563
13534SOL     OW58211  10.173   2.411   2.898 -0.6036  0.3527  1.1479
13534SOL    HW158212  10.217   2.401   2.982 -0.0474  1.4321  1.0028
13534SOL    HW258213  10.229   2.471   2.849 -1.8728  1.1953  0.6897
13535SOL     OW58214   9.625  10.078  13.426  0.1381 -0.0900  0.3305
13535SOL    HW158215   9.578  10.040  13.500 -0.6409 -0.0255 -0.1251
13535SOL    HW258216   9.712  10.097  13.461 -0.0028 -0.6933  1.0409
13536SOL     OW58217   1.815   0.820   2.787 -0.2943  0.2440 -0.0392
13536SOL    HW158218   1.837   0.727   2.792  2.4653  0.8214  0.1453
13536SOL    HW258219   1.769   0.838   2.869  1.3074 -0.4933  1.0730
13537SOL     OW58220   4.749   0.905   6.854  0.1060 -0.1140 -0.4066
13537SOL    HW158221   4.824   0.857   6.888  0.1707 -1.9782 -2.8117
13537SOL    HW258222   4.689   0.836   6.824 -1.2135  1.3231 -1.2496
13538SOL     OW58223   7.776   7.075   4.935 -0.4329  0.0915  0.0245
13538SOL    HW158224   7.737   7.066   4.848 -1.9056 -0.9452  0.7368
13538SOL    HW258225   7.732   7.151   4.973 -0.7324 -0.2252  0.3178
13539SOL     OW58226  12.686   6.956  13.467 -0.3452 -0.2264  0.0566
13539SOL    HW158227  12.707   6.896  13.395 -0.4307 -1.0327  0.6859
13539SOL    HW258228  12.770   6.971  13.510 -0.2503  0.4599 -0.3504
13540SOL     OW58229   8.019  13.470   3.771  0.0624  0.0365  0.3224
13540SOL    HW158230   7.936  13.423   3.775  0.3850 -0.4546  1.7983
13540SOL    HW258231   8.058  13.443   3.688 -0.5585 -0.9438  0.3364
13541SOL     OW58232   3.805   3.188   5.437 -0.3668  0.0196 -0.1066
13541SOL    HW158233   3.711   3.203   5.440 -0.4786  0.0165 -1.9633
13541SOL    HW258234   3.844   3.274   5.450 -0.5535 -0.1845  2.0207
13542SOL     OW58235   8.559  10.216   0.885 -0.2610  0.4401 -0.2008
13542SOL    HW158236   8.516  10.217   0.971  0.8007 -2.3982  0.4627
13542SOL    HW258237   8.499  10.263   0.827 -1.5526  1.4211  1.8289
13543SOL     OW58238  12.394  12.164  14.043 -0.1673  0.8032  0.7071
13543SOL    HW158239  12.333  12.201  14.106 -1.4249 -1.9053  1.2181
13543SOL    HW258240  12.342  12.151  13.964  0.5306  1.1241  0.1864
13544SOL     OW58241  10.107  13.652   5.223  0.4093  0.1037 -0.1250
13544SOL    HW158242  10.119  13.701   5.142 -0.6438  0.7947  0.1124
13544SOL    HW258243  10.120  13.561   5.198 -1.7011  0.0994 -1.5111
13545SOL     OW58244   1.040   6.419   9.838 -0.1437  0.1921 -0.3115
13545SOL    HW158245   1.098   6.494   9.823 -0.2019  0.0854 -1.1083
13545SOL    HW258246   0.981   6.448   9.908  0.6216  0.4363  0.2458
13546SOL     OW58247  13.001   7.395  10.175  0.2607  0.4335  0.0867
13546SOL    HW158248  13.040   7.410  10.089 -0.1289  2.0330  0.1598
13546SOL    HW258249  12.907   7.403  10.160  0.1947  0.7806  0.6644
13547SOL     OW58250  11.295   6.338   2.641 -0.3484  0.2439  1.0656
13547SOL    HW158251  11.319   6.418   2.687  0.2627  0.2892  0.6715
13547SOL    HW258252  11.243   6.288   2.704 -1.1020  1.1350  1.1776
13548SOL     OW58253   5.486  10.736   3.595  0.5824 -0.1069  0.2162
13548SOL    HW158254   5.528  10.651   3.607  1.5389 -0.0995 -2.4086
13548SOL    HW258255   5.411  10.734   3.654  0.8233 -2.5934  0.5567
13549SOL     OW58256   6.154   9.055  10.569 -0.2150 -0.4892  0.7030
13549SOL    HW158257   6.095   9.024  10.500 -0.0059 -1.3074  0.8795
13549SOL    HW258258   6.230   8.997  10.563  0.7320  0.7555  0.2569
13550SOL     OW58259  13.695   4.298   2.997 -0.7562  0.0038 -0.7265
13550SOL    HW158260  13.633   4.300   3.070 -0.2294 -0.6556 -0.2502
13550SOL    HW258261  13.691   4.387   2.960 -1.6386  0.1046 -0.4223
13551SOL     OW58262  11.576  13.101   4.971 -0.2322  0.0151 -0.3424
13551SOL    HW158263  11.639  13.166   5.000 -3.0927  2.7572  0.3637
13551SOL    HW258264  11.628  13.030   4.934  3.1691  1.7874  0.7136
13552SOL     OW58265   1.077   4.982   1.674  0.3824 -0.4761  0.5808
13552SOL    HW158266   1.084   4.891   1.702  1.4505 -0.5810  0.0449
13552SOL    HW258267   1.097   5.033   1.752  0.6657 -0.7177  0.6654
13553SOL     OW58268   1.297   7.135   9.734 -0.3437 -0.0893  0.5335
13553SOL    HW158269   1.202   7.126   9.724 -0.3668 -2.0604  1.9775
13553SOL    HW258270   1.308   7.178   9.819  0.0441 -0.8558  0.8810
13554SOL     OW58271   9.258   5.357  13.152  0.0857  0.2287 -0.1596
13554SOL    HW158272   9.177   5.321  13.188  0.2315  0.4184  0.3539
13554SOL    HW258273   9.289   5.289  13.092  0.3247 -0.4966  0.7621
13555SOL     OW58274   1.821   3.760   1.856  0.7016  0.0551  0.4816
13555SOL    HW158275   1.780   3.736   1.773 -0.8863  1.6834  0.7476
13555SOL    HW258276   1.798   3.688   1.916  0.9049 -0.5668 -0.1741
13556SOL     OW58277   5.016  12.778  10.716  0.6831 -0.4678 -0.6026
13556SOL    HW158278   4.951  12.708  10.730  0.3728 -0.0022  0.3349
13556SOL    HW258279   5.041  12.768  10.624  0.5652 -1.7460 -0.5172
13557SOL     OW58280   1.045   8.664  13.032 -0.2742 -0.0410 -0.4893
13557SOL    HW158281   1.063   8.570  13.035  1.7425  0.3274  0.7644
13557SOL    HW258282   1.065   8.690  12.942  0.8760 -0.5393 -0.3908
13558SOL     OW58283  11.150   1.034   3.172 -0.1788  0.1243  0.2204
13558SOL    HW158284  11.114   1.112   3.130 -0.5206 -0.3881 -0.4621
13558SOL    HW258285  11.073   0.983   3.196  0.0552 -0.3405 -0.0063
13559SOL     OW58286   4.806   2.998  13.962 -0.1309  0.0675  0.6228
13559SOL    HW158287   4.861   2.973  14.036  1.0372 -0.7060 -0.4547
13559SOL    HW258288   4.841   2.948  13.888 -0.5214  1.6306 -0.6972
13560SOL     OW58289   9.006   3.717   4.150 -0.0116  0.3731 -0.1547
13560SOL    HW158290   8.941   3.647   4.145  0.5097 -0.3597  2.1324
13560SOL    HW258291   9.083   3.675   4.188  0.8557  1.8629 -0.1840
13561SOL     OW58292   6.771  11.977  12.763 -0.1460 -0.1852 -0.1029
13561SOL    HW158293   6.823  11.899  12.746 -1.1270 -0.8608 -0.1004
13561SOL    HW258294   6.680  11.947  12.757 -0.5384  0.8583  0.3513
13562SOL     OW58295  12.284   6.205   1.223  0.2499  0.3019 -0.4207
13562SOL    HW158296  12.233   6.125   1.228 -0.4308  0.7686  0.2433
13562SOL    HW258297  12.374   6.177   1.236  0.0255 -0.3602 -0.2505
13563SOL     OW58298   5.856   9.298   1.410  0.1645  0.1232 -0.2904
13563SOL    HW158299   5.824   9.224   1.461 -0.4815  0.8108  0.3337
13563SOL    HW258300   5.796   9.369   1.431  1.7068  1.2841  0.3864
13564SOL     OW58301   5.018   2.747  10.926 -0.3147 -0.7151 -0.3919
13564SOL    HW158302   5.103   2.791  10.917 -1.4781  2.4415  2.0329
13564SOL    HW258303   4.957   2.803  10.877 -1.3346 -1.7756 -0.3847
13565SOL     OW58304   2.697  11.135  11.002 -0.4493 -0.1396  0.3861
13565SOL    HW158305   2.649  11.166  11.079 -1.4374  0.2195 -0.3670
13565SOL    HW258306   2.753  11.208  10.978  0.7554 -0.6606  1.4413
13566SOL     OW58307   3.116  11.690   4.195 -0.7169 -0.0213 -0.0179
13566SOL    HW158308   3.109  11.595   4.194  1.1058 -0.2187  1.4143
13566SOL    HW258309   3.210  11.708   4.195 -1.0117  1.7977 -0.5387
13567SOL     OW58310   7.029   8.638  10.938  0.0488  0.0876 -0.0066
13567SOL    HW158311   7.036   8.543  10.943 -0.2298  0.0938  0.5154
13567SOL    HW258312   7.035   8.657  10.844  2.1381 -0.2729  0.0066
13568SOL     OW58313   7.765   0.651   6.619 -0.0444 -0.0922 -0.4555
13568SOL    HW158314   7.817   0.572   6.635  1.6042  1.3121  1.6503
13568SOL    HW258315   7.804   0.690   6.541  3.5951  1.9204  2.0996
13569SOL     OW58316   2.200   2.819   8.032 -0.1487 -0.1381  0.0052
13569SOL    HW158317   2.120   2.852   8.072  0.7704  1.5199  0.6109
13569SOL    HW258318   2.263   2.816   8.103  0.1281 -2.3271 -0.2631
13570SOL     OW58319   4.786   3.128   2.824 -0.7716  0.0206 -0.3215
13570SOL    HW158320   4.809   3.076   2.901  0.0846  0.0687 -0.5338
13570SOL    HW258321   4.797   3.219   2.852 -2.3382  0.1201  0.0718
13571SOL     OW58322   0.936  10.381  11.505 -0.0427  0.3079  0.6199
13571SOL    HW158323   1.004  10.413  11.565  1.0922  0.3656 -0.6525
13571SOL    HW258324   0.983  10.325  11.444 -1.1992  0.1646 -0.1580
13572SOL     OW58325   5.383   5.731   3.712 -0.1664 -0.0660  0.3445
13572SOL    HW158326   5.440   5.798   3.750  3.1283 -1.3108 -1.8522
13572SOL    HW258327   5.427   5.648   3.732 -1.5928 -1.1895 -0.8838
13573SOL     OW58328   1.279   4.431   0.368 -0.2511 -0.4117 -0.5673
13573SOL    HW158329   1.228   4.367   0.317 -0.0104 -0.9742 -0.1220
13573SOL    HW258330   1.246   4.422   0.457 -0.5410  0.4334 -0.5890
13574SOL     OW58331   6.033   5.530   1.307  0.5177  0.1842 -0.1874
13574SOL    HW158332   5.980   5.607   1.327 -0.5152 -0.4733 -0.3379
13574SOL    HW258333   5.979   5.478   1.248  1.8945  0.1478 -1.4681
13575SOL     OW58334  11.670  11.265   2.072  0.4117 -0.0156 -0.2121
13575SOL    HW158335  11.692  11.297   1.984  0.2835 -0.9869 -0.6041
13575SOL    HW258336  11.616  11.188   2.057  2.2535 -1.5619  0.6717
13576SOL     OW58337   9.209   5.428   2.055  0.5027 -0.4909 -0.4684
13576SOL    HW158338   9.304   5.438   2.061  0.4901 -0.1895 -0.7042
13576SOL    HW258339   9.184   5.375   2.130  0.6576  0.7934  0.5156
13577SOL     OW58340  12.377   3.305   3.919  0.3132  0.7429  0.0230
13577SOL    HW158341  12.295   3.307   3.869 -0.2549  2.2650  0.9684
13577SOL    HW258342  12.446   3.315   3.853 -0.0634 -2.4492 -1.0364
13578SOL     OW58343  10.742   2.417   7.229  0.0661  0.1379 -0.0305
13578SOL    HW158344  10.817   2.468   7.200 -0.4923  0.0600 -1.6789
13578SOL    HW258345  10.775   2.328   7.240  0.8575  0.6411  2.0961
13579SOL     OW58346   2.474   4.832   5.698 -0.9796  0.5523 -0.0586
13579SOL    HW158347   2.399   4.777   5.721 -0.0981 -0.1671  1.2357
13579SOL    HW258348   2.464   4.910   5.752 -0.3510  0.0623  0.7939
13580SOL     OW58349   2.688  10.648   5.239 -0.1208 -0.6677 -0.1490
13580SOL    HW158350   2.753  10.626   5.173 -0.1189 -1.0988 -0.0102
13580SOL    HW258351   2.659  10.736   5.217 -0.4293 -0.9680 -0.9717
13581SOL     OW58352   8.731   5.639   1.617 -0.1813  0.2017  0.0576
13581SOL    HW158353   8.642   5.622   1.585  0.2559  1.4066 -1.9729
13581SOL    HW258354   8.773   5.687   1.546  2.0369 -0.1177  1.0819
13582SOL     OW58355   2.001  10.695  10.401  0.8433 -0.3991 -0.2958
13582SOL    HW158356   2.073  10.635  10.419  0.9893  0.4359  2.4384
13582SOL    HW258357   1.922  10.641  10.407  1.0956 -0.7815 -0.3733
13583SOL     OW58358   5.642   2.089  12.678  0.0478  0.3755 -0.3600
13583SOL    HW158359   5.682   2.058  12.759 -0.3925  1.1862  0.1717
13583SOL    HW258360   5.708   2.069  12.611  0.5252 -0.0636  0.2206
13584SOL     OW58361   7.698   7.359   2.324 -0.3432 -0.3847 -0.3945
13584SOL    HW158362   7.681   7.426   2.257  1.2800  2.1772  1.5935
13584SOL    HW258363   7.615   7.312   2.332 -1.4602  1.1651 -2.1053
13585SOL     OW58364   1.418   4.340   7.818 -0.0129  0.3305  0.5864
13585SOL    HW158365   1.372   4.424   7.812  2.3009  1.6482  0.2213
13585SOL    HW258366   1.433   4.328   7.912 -1.7973 -0.5649  0.7980
13586SOL     OW58367   9.547   3.570  13.053 -0.4938  0.1549 -0.4933
13586SOL    HW158368   9.499   3.548  12.973 -0.9024 -0.3063 -0.1283
13586SOL    HW258369   9.637   3.545  13.034 -0.7914 -1.0517 -0.4017
13587SOL     OW58370   1.069   8.527   4.404 -0.0700  0.1655  0.0248
13587SOL    HW158371   0.982   8.489   4.392 -0.1405  0.2671  0.2114
13587SOL    HW258372   1.128   8.452   4.408 -0.2189  0.0718  0.4859
13588SOL     OW58373   1.236   8.328   5.492  0.3810 -0.1960  0.3010
13588SOL    HW158374   1.200   8.284   5.569 -0.1762  1.4251  1.0134
13588SOL    HW258375   1.185   8.293   5.419 -1.1538  0.3903  1.0424
13589SOL     OW58376   3.098   2.009   5.586 -0.0647 -0.5192  0.5067
13589SOL    HW158377   3.099   2.066   5.509 -0.3288 -0.1643  0.7617
13589SOL    HW258378   3.088   2.069   5.660 -2.9561 -1.0129  0.6268
13590SOL     OW58379   6.915   5.840   6.490  0.2207  0.1781  0.1886
13590SOL    HW158380   6.891   5.929   6.514  0.6206 -0.2096  2.2332
13590SOL    HW258381   6.877   5.827   6.403  1.3726  2.7963 -0.8153
13591SOL     OW58382  10.945   5.701  13.749  0.4132  0.0111  0.4977
13591SOL    HW158383  10.965   5.691  13.656  0.5947 -1.8175  0.7004
13591SOL    HW258384  10.972   5.790  13.770  2.0127 -0.1304 -0.8030
13592SOL     OW58385   8.396   3.582   8.797 -0.0297  0.2565 -0.7542
13592SOL    HW158386   8.367   3.611   8.710 -2.2050 -0.2880 -0.2662
13592SOL    HW258387   8.407   3.487   8.788  2.1721  0.4872 -1.0332
13593SOL     OW58388   5.580  12.291  10.836  0.1300  0.0962 -0.6979
13593SOL    HW158389   5.557  12.304  10.928 -0.5531  1.1133 -0.9884
13593SOL    HW258390   5.503  12.321  10.788  0.7242  0.1997 -1.6174
13594SOL     OW58391   9.850   0.391  11.440  0.6790 -0.3182  0.3618
13594SOL    HW158392   9.907   0.463  11.467  1.9171 -1.6777  1.5592
13594SOL    HW258393   9.883   0.366  11.354 -0.0005  0.7386 -0.2366
13595SOL     OW58394  11.018   0.410   5.997  0.3241 -0.2272 -0.2123
13595SOL    HW158395  11.075   0.464   5.943  0.9314  0.2796  0.9016
13595SOL    HW258396  11.056   0.415   6.085  0.1892 -2.1752  0.0031
13596SOL     OW58397   7.391   3.492   0.570 -0.1813  0.6251  0.0148
13596SOL    HW158398   7.364   3.581   0.547 -1.0829  0.2659 -0.3679
13596SOL    HW258399   7.465   3.474   0.512 -0.6237  0.7718 -0.6070
13597SOL     OW58400   7.417   1.210  10.479 -0.2432 -0.4237 -0.8392
13597SOL    HW158401   7.378   1.295  10.459  0.3888 -0.2904 -1.5330
13597SOL    HW258402   7.437   1.215  10.573 -0.6571  0.0107 -0.7737
13598SOL     OW58403  12.992   0.828   3.887  0.0137  0.3846  0.3997
13598SOL    HW158404  12.954   0.849   3.802  0.5711  0.9480  0.2889
13598SOL    HW258405  13.086   0.818   3.871  0.2481  1.3342  1.0973
13599SOL     OW58406   7.186   2.574   5.962 -0.1712  0.4655  0.6269
13599SOL    HW158407   7.186   2.532   5.876 -0.3339  0.7067  0.5071
13599SOL    HW258408   7.098   2.558   5.996 -0.0833  0.3040  0.7842
13600SOL     OW58409   6.102   3.707   7.812  0.7181  0.2609 -0.3916
13600SOL    HW158410   6.042   3.733   7.883  0.5132  1.3818 -0.9473
13600SOL    HW258411   6.188   3.733   7.843  0.3121  3.9890 -1.8561
13601SOL     OW58412   3.510  13.700   2.909 -0.1711 -0.3745  0.3095
13601SOL    HW158413   3.579  13.691   2.844  0.7828  1.5765  0.9865
13601SOL    HW258414   3.449  13.763   2.870 -0.6855 -0.7875  0.4382
13602SOL     OW58415   1.008   4.139  13.315 -0.2384  0.3036  0.1781
13602SOL    HW158416   0.956   4.204  13.364 -0.5013  0.7432 -0.6566
13602SOL    HW258417   1.077   4.113  13.375 -1.1518  0.0687  1.1453
13603SOL     OW58418   1.972   6.868  12.530  0.1148 -0.4326  0.0967
13603SOL    HW158419   1.959   6.917  12.611  0.8265 -0.4213  0.2148
13603SOL    HW258420   2.012   6.931  12.470 -1.5959 -0.0537 -0.7223
13604SOL     OW58421   7.588   7.238  13.611 -0.3892  0.4779 -0.4463
13604SOL    HW158422   7.645   7.304  13.649 -0.3374  2.1410 -3.1586
13604SOL    HW258423   7.532   7.210  13.683  0.2337  2.7613  1.0252
13605SOL     OW58424   6.558   6.375   1.001 -0.4669 -0.0954  0.7810
13605SOL    HW158425   6.604   6.429   0.938  1.4103 -0.1511  2.0183
13605SOL    HW258426   6.627   6.322   1.042 -1.8057 -1.0593  1.8889
13606SOL     OW58427   3.424   1.300   5.810 -0.2417  0.1906 -0.2934
13606SOL    HW158428   3.493   1.314   5.875  0.4616 -0.3057 -0.9237
13606SOL    HW258429   3.457   1.230   5.754 -1.2389 -0.0233 -0.6373
13607SOL     OW58430   7.442   6.931   7.102 -0.6800 -0.0234 -0.3081
13607SOL    HW158431   7.466   6.966   7.016  0.1541 -1.2779 -0.6251
13607SOL    HW258432   7.384   6.857   7.083 -0.0664 -0.6435  0.1575
13608SOL     OW58433  10.085   2.595   9.001 -0.1845 -0.3474 -0.2485
13608SOL    HW158434   9.991   2.605   9.017  0.1803 -1.2328  3.2206
13608SOL    HW258435  10.093   2.512   8.954 -1.1496  0.0730 -1.1819
13609SOL     OW58436   3.281  12.203   8.894 -0.6852 -0.2883 -0.2346
13609SOL    HW158437   3.373  12.213   8.921 -0.5505 -1.4422 -0.2047
13609SOL    HW258438   3.285  12.153   8.813 -1.2620  0.2778 -0.6199
13610SOL     OW58439   3.879   2.058   2.417 -0.5275  0.4604  0.5540
13610SOL    HW158440   3.785   2.050   2.401 -0.2980 -0.0031 -0.7188
13610SOL    HW258441   3.907   2.129   2.359  0.5598 -2.0899 -2.3612
13611SOL     OW58442  13.534  12.523   0.909 -0.0779  0.8492  0.5946
13611SOL    HW158443  13.525  12.572   0.991  0.6016  0.6824  0.7765
13611SOL    HW258444  13.474  12.566   0.849  0.0669  1.5349  0.9247
13612SOL     OW58445   0.094  13.236  13.437  0.0059 -1.4688  0.4100
13612SOL    HW158446   0.181  13.195  13.435 -0.5698 -2.6951 -1.0992
13612SOL    HW258447   0.111  13.329  13.419  1.1145 -1.4254  1.5508
13613SOL     OW58448   2.880   6.736  12.070  0.1209 -0.1076  0.1011
13613SOL    HW158449   2.876   6.767  11.980  0.2847  0.1786  0.1897
13613SOL    HW258450   2.824   6.797  12.118  1.0117  0.5068  0.3984
13614SOL     OW58451   6.603   3.063  12.112  0.1130 -0.0817  0.2166
13614SOL    HW158452   6.526   3.100  12.156  0.3158 -1.0076  1.4042
13614SOL    HW258453   6.609   3.112  12.030 -0.9550  0.9206  0.6987
13615SOL     OW58454   4.332   5.222  12.702  0.3201 -0.3839 -0.1182
13615SOL    HW158455   4.266   5.162  12.667  0.1135 -0.4385  0.3536
13615SOL    HW258456   4.323   5.214  12.797  0.0893  0.6152 -0.0426
13616SOL     OW58457  12.054   4.656  13.914  0.6037  0.0679 -0.5573
13616SOL    HW158458  12.071   4.579  13.968  2.4827  1.2578  0.6521
13616SOL    HW258459  12.052   4.729  13.977 -0.9027  1.0584 -1.6892
13617SOL     OW58460  12.535   1.978  10.087  0.1578  0.2301 -0.7792
13617SOL    HW158461  12.565   2.062  10.051 -2.1595  1.1597 -0.6699
13617SOL    HW258462  12.534   1.992  10.182  1.3734 -0.5277 -0.6286
13618SOL     OW58463   9.771  11.385  10.275 -0.1932 -0.4976  0.3454
13618SOL    HW158464   9.776  11.478  10.297 -0.2692 -0.4771  0.2782
13618SOL    HW258465   9.743  11.342  10.355  1.1605 -0.6337  0.7729
13619SOL     OW58466   5.293   5.077   1.659  0.7552  0.2469  0.9380
13619SOL    HW158467   5.329   5.094   1.572  0.2673 -2.6936  0.0753
13619SOL    HW258468   5.217   5.135   1.665  0.2378 -0.1517 -1.0037
13620SOL     OW58469   5.310   9.756   6.820  0.2592 -0.1039  0.0281
13620SOL    HW158470   5.364   9.720   6.750  0.0294  2.2719 -1.4743
13620SOL    HW258471   5.371   9.807   6.874  0.0380 -0.0103  0.1919
13621SOL     OW58472   2.696  13.245   2.482 -0.3581  0.4815 -0.2245
13621SOL    HW158473   2.773  13.277   2.529 -1.4522  1.4173  1.0208
13621SOL    HW258474   2.625  13.251   2.546 -1.3586 -0.9838 -1.1257
13622SOL     OW58475   8.434   0.142   7.021  0.4124 -0.4009  0.0759
13622SOL    HW158476   8.358   0.103   6.978  0.4426 -0.0747 -0.2933
13622SOL    HW258477   8.407   0.232   7.039  0.1775 -0.7126  1.3361
13623SOL     OW58478   6.742   6.662   6.412 -0.8047  0.0469 -0.0716
13623SOL    HW158479   6.683   6.684   6.340 -0.0533 -0.6199 -0.9156
13623SOL    HW258480   6.731   6.568   6.424  0.2030 -0.1129 -0.3531
13624SOL     OW58481   8.766  13.424   6.223  0.6168 -0.4406 -0.3979
13624SOL    HW158482   8.721  13.409   6.141 -1.2483 -0.4184  0.5715
13624SOL    HW258483   8.837  13.359   6.224 -0.5484 -1.7760 -1.1545
13625SOL     OW58484   3.967  10.125   6.877  0.1882 -0.2786 -0.2200
13625SOL    HW158485   3.923  10.069   6.942  1.7103 -2.7832 -1.1904
13625SOL    HW258486   3.993  10.203   6.926 -0.9585 -0.9457  1.5397
13626SOL     OW58487   5.054  13.969   1.423 -0.1572 -0.1806 -0.7882
13626SOL    HW158488   5.145  13.946   1.444  0.1023  1.6138  0.3126
13626SOL    HW258489   5.059  14.006   1.335  0.3917  0.8484 -0.3448
13627SOL     OW58490  12.802  11.569   3.003 -0.2789 -0.2701  0.2699
13627SOL    HW158491  12.890  11.594   3.030 -0.1926  0.9462 -1.0521
13627SOL    HW258492  12.815  11.496   2.943 -0.3511 -1.6173  1.8206
13628SOL     OW58493   6.428   5.527  11.676 -0.1481 -0.4848 -0.3393
13628SOL    HW158494   6.374   5.479  11.739  0.4039  0.1148  0.6137
13628SOL    HW258495   6.514   5.534  11.718 -0.1136  1.0130 -0.5932
13629SOL     OW58496  10.001   3.983   7.384 -0.9751 -0.5048 -0.0277
13629SOL    HW158497   9.997   3.888   7.375 -2.7318 -0.5187  0.5068
13629SOL    HW258498   9.960   4.001   7.469  0.0176  0.6967  0.2311
13630SOL     OW58499  12.587   6.017  11.807 -0.1667  0.2419 -0.2958
13630SOL    HW158500  12.658   5.956  11.826 -0.2680 -0.2755 -1.4735
13630SOL    HW258501  12.579   6.015  11.711  0.1461  2.4730 -0.4233
13631SOL     OW58502  11.516   3.643  12.004  0.2008 -0.6978  0.4420
13631SOL    HW158503  11.461   3.651  12.082 -0.8827 -1.4467 -0.2222
13631SOL    HW258504  11.496   3.721  11.953 -0.9046 -1.3749 -0.1889
13632SOL     OW58505   5.522   2.593   1.756  0.2957  0.3915 -0.0333
13632SOL    HW158506   5.581   2.524   1.726 -0.5385  0.0080 -0.8458
13632SOL    HW258507   5.579   2.667   1.776  1.1009 -0.1632 -0.2495
13633SOL     OW58508  11.284  10.810   5.230 -0.0445  0.0052 -0.6221
13633SOL    HW158509  11.255  10.889   5.276 -1.0898 -0.2004 -0.8876
13633SOL    HW258510  11.299  10.745   5.299 -0.6456 -0.0050 -0.4927
13634SOL     OW58511   7.921  10.185   0.856  0.0354  0.1962  0.5329
13634SOL    HW158512   7.833  10.155   0.880 -0.2725  2.2193  2.2007
13634SOL    HW258513   7.979  10.115   0.884 -0.8928 -0.3377  1.1723
13635SOL     OW58514   8.853  12.542  11.502 -0.4919 -0.3746 -0.2433
13635SOL    HW158515   8.868  12.569  11.411 -1.0868  0.5410 -0.0747
13635SOL    HW258516   8.843  12.447  11.497 -0.9508 -0.2846 -1.1925
13636SOL     OW58517   3.448   5.579   8.671  0.0588 -0.0614 -0.3094
13636SOL    HW158518   3.423   5.546   8.585 -1.2649 -1.6254  0.6290
13636SOL    HW258519   3.368   5.573   8.723  1.1632 -0.4294  1.4155
13637SOL     OW58520   9.060  13.741   4.295  0.1232  0.0793  0.2110
13637SOL    HW158521   9.081  13.648   4.306  0.6359 -0.0460 -1.5455
13637SOL    HW258522   9.129  13.787   4.343 -1.3503 -0.3878  3.0186
13638SOL     OW58523   6.951   3.255  10.885 -0.1864 -0.2578 -0.4254
13638SOL    HW158524   6.953   3.226  10.977  0.1514  0.7784 -0.0865
13638SOL    HW258525   6.860   3.240  10.858 -0.3460 -0.3824  0.1488
13639SOL     OW58526   2.407   7.175  11.508 -0.4986  0.4064  0.1293
13639SOL    HW158527   2.488   7.125  11.519  0.3229  2.1283  2.4903
13639SOL    HW258528   2.395   7.179  11.413 -0.1714 -3.4206 -0.2528
13640SOL     OW58529  10.544   3.547  12.731 -0.0172 -0.1824 -0.0685
13640SOL    HW158530  10.623   3.507  12.767  0.7423  0.2205 -1.2461
13640SOL    HW258531  10.500   3.475  12.685  0.4431 -0.0783 -0.6853
13641SOL     OW58532  12.806  13.969  13.889 -0.1939  0.1437 -0.2148
13641SOL    HW158533  12.759  13.891  13.859 -2.1039  0.8214  0.8577
13641SOL    HW258534  12.777  14.039  13.831  1.3183  0.1644 -1.0115
13642SOL     OW58535   4.549   4.600   5.398  0.1813 -0.1327  0.2126
13642SOL    HW158536   4.635   4.562   5.416 -0.4376 -1.5744  0.2671
13642SOL    HW258537   4.539   4.594   5.303  0.1385  0.0484  0.2045
13643SOL     OW58538  13.840   8.277  12.367  0.0803  0.2352  0.1112
13643SOL    HW158539  13.751   8.304  12.346  0.4019  0.3616 -1.1668
13643SOL    HW258540  13.877   8.248  12.283  0.9701 -0.6095  0.7714
13644SOL     OW58541  13.449   3.117   6.811  0.1403 -0.2573 -0.4197
13644SOL    HW158542  13.448   3.205   6.773 -0.7517 -0.7051 -1.4899
13644SOL    HW258543  13.442   3.131   6.905  0.9974  0.8442 -0.4989
13645SOL     OW58544  11.573   4.439   1.739 -0.3483 -0.0473  0.2480
13645SOL    HW158545  11.654   4.447   1.689 -1.6859  1.2408 -1.9092
13645SOL    HW258546  11.539   4.352   1.717  0.9533 -1.0549  2.0627
13646SOL     OW58547  10.251   0.021   2.203 -0.0553  0.5860  0.5204
13646SOL    HW158548  10.287  -0.028   2.276  1.7437  1.6733  0.4223
13646SOL    HW258549  10.323   0.028   2.140 -1.1942  0.7228 -0.8305
13647SOL     OW58550  10.942  10.310   7.723  0.1579 -0.1293 -0.5160
13647SOL    HW158551  11.033  10.300   7.749  0.2170 -1.6600 -1.2104
13647SOL    HW258552  10.892  10.290   7.802  0.3824  3.3009  0.6403
13648SOL     OW58553  13.278  13.067  13.223 -0.0549  0.1330  0.3174
13648SOL    HW158554  13.242  13.021  13.147 -0.0701  2.1847 -0.9716
13648SOL    HW258555  13.357  13.018  13.245  0.8393  0.4142 -2.0458
13649SOL     OW58556  12.469   5.216   0.904  0.6231 -0.4736  0.1606
13649SOL    HW158557  12.380   5.211   0.940  0.0270  0.0254 -1.2019
13649SOL    HW258558  12.514   5.139   0.940  0.3825  0.4978  2.7642
13650SOL     OW58559  10.073   3.891   3.807  0.2176 -0.2924 -0.2710
13650SOL    HW158560  10.160   3.850   3.805  0.0257 -0.9115  1.7921
13650SOL    HW258561  10.088   3.977   3.847 -0.1702 -0.5925  0.5364
13651SOL     OW58562   2.749   0.550   7.902  0.2170  0.0195 -0.0407
13651SOL    HW158563   2.832   0.523   7.941  1.1172  0.9826 -1.2247
13651SOL    HW258564   2.728   0.633   7.945  0.5519  0.4314 -0.6536
13652SOL     OW58565   8.700   9.158  11.783  0.0749 -0.0742 -0.1171
13652SOL    HW158566   8.741   9.098  11.721 -1.2266 -0.0821 -1.0095
13652SOL    HW258567   8.769   9.220  11.806  0.6190 -0.1409 -1.4981
13653SOL     OW58568   3.069  13.458  10.411 -0.8394  0.0879 -0.6292
13653SOL    HW158569   3.159  13.444  10.381  0.6479  3.0306  1.8593
13653SOL    HW258570   3.033  13.522  10.350 -0.5740  0.2935 -0.5717
13654SOL     OW58571  11.679   9.705   3.613  0.5781  0.4232 -0.3242
13654SOL    HW158572  11.604   9.650   3.592  0.8922 -0.6739  1.2854
13654SOL    HW258573  11.701   9.684   3.704  0.6504  3.2809  0.4374
13655SOL     OW58574   8.448   3.514   1.713 -0.4649 -0.0173  0.3354
13655SOL    HW158575   8.493   3.459   1.648  1.6910 -0.3609  1.9919
13655SOL    HW258576   8.519   3.554   1.763 -2.0427  1.4675  1.4861
13656SOL     OW58577  11.406   4.380  11.172  0.1309  0.3875  0.1575
13656SOL    HW158578  11.313   4.366  11.153 -0.5091  1.0110  2.4340
13656SOL    HW258579  11.416   4.353  11.264  2.3841 -0.3351 -0.2276
13657SOL     OW58580   7.680   3.312   8.053  0.6636 -0.4816  0.1806
13657SOL    HW158581   7.612   3.306   8.120  0.4965 -0.2292  0.0367
13657SOL    HW258582   7.694   3.222   8.024  0.8599 -0.6140  0.6732
13658SOL     OW58583   2.916  10.280   7.986  0.5839 -0.3030  0.1909
13658SOL    HW158584   2.880  10.213   8.044 -1.7623  0.5733 -0.1410
13658SOL    HW258585   2.917  10.239   7.900 -1.1623  0.1268 -0.0725
13659SOL     OW58586   7.615   4.378  13.754 -0.3532  0.0864  0.0322
13659SOL    HW158587   7.695   4.352  13.799 -1.2799  1.3481  2.6486
13659SOL    HW258588   7.634   4.465  13.720 -0.6146  0.4817  0.8483
13660SOL     OW58589   4.030   5.799   3.161  0.2846  0.1942  0.0810
13660SOL    HW158590   4.065   5.816   3.249  0.8741 -0.8288  0.0568
13660SOL    HW258591   4.058   5.876   3.110 -0.5531  1.0736  0.8979
13661SOL     OW58592   9.044  10.306   6.607 -0.0727 -0.3956 -0.4132
13661SOL    HW158593   8.959  10.335   6.640  0.3840  0.6749 -0.1591
13661SOL    HW258594   9.107  10.340   6.669  0.5780 -0.9290 -0.7678
13662SOL     OW58595  11.798   9.981   1.708 -0.3466 -0.2896 -0.4556
13662SOL    HW158596  11.773   9.955   1.796 -0.3058 -2.7317 -1.0926
13662SOL    HW258597  11.893   9.993   1.713 -0.3723 -0.2147 -0.1362
13663SOL     OW58598   3.165   9.456   5.047 -0.6602 -0.1993 -0.1779
13663SOL    HW158599   3.101   9.525   5.029 -0.6186 -0.1512 -0.1426
13663SOL    HW258600   3.228   9.497   5.107 -1.7624 -0.8741  1.5081
13664SOL     OW58601   0.365   0.375   8.564 -0.3874  0.3420  0.0650
13664SOL    HW158602   0.296   0.351   8.625 -0.1759 -0.9360 -0.1703
13664SOL    HW258603   0.443   0.386   8.619 -0.8116  2.1726  0.3837
13665SOL     OW58604  11.439  10.961   5.789 -0.1799  0.3355 -0.0553
13665SOL    HW158605  11.435  10.970   5.694  1.7923 -2.3267 -0.5188
13665SOL    HW258606  11.532  10.947   5.808 -0.5897  0.3040  2.2217
13666SOL     OW58607   6.734   8.401   4.601 -0.2741 -0.1472 -0.3021
13666SOL    HW158608   6.785   8.341   4.655  1.1804  1.8925  0.7576
13666SOL    HW258609   6.651   8.410   4.647 -0.5904 -1.4491 -0.5827
13667SOL     OW58610   1.838  13.994   0.867  0.3173 -0.7520  0.0248
13667SOL    HW158611   1.870  13.927   0.926 -0.4777 -0.1475  1.1948
13667SOL    HW258612   1.882  14.074   0.895 -0.4201 -0.3691  0.1165
13668SOL     OW58613   5.776  13.063   2.765 -0.2919 -0.0759 -0.5038
13668SOL    HW158614   5.698  13.069   2.710  0.2635  2.8312 -1.1086
13668SOL    HW258615   5.790  13.152   2.797 -0.8771 -1.5409  4.9445
13669SOL     OW58616  10.533   0.204  11.847 -0.2482 -0.4702 -0.1400
13669SOL    HW158617  10.623   0.230  11.827 -1.0439  3.1280  0.2457
13669SOL    HW258618  10.485   0.218  11.766 -1.1514  1.8043  0.7078
13670SOL     OW58619   6.162   1.407   9.356  0.0318  0.2419  0.1178
13670SOL    HW158620   6.100   1.363   9.414  0.1682  0.9279  0.8114
13670SOL    HW258621   6.208   1.469   9.413  0.9695  0.1342 -0.4970
13671SOL     OW58622  13.747   5.966   7.831  0.6327  0.1302 -0.2754
13671SOL    HW158623  13.688   5.942   7.760 -0.8714 -0.9073  1.2420
13671SOL    HW258624  13.691   6.012   7.894  1.7760  0.4777  0.5135
13672SOL     OW58625   9.697   5.807   0.778 -0.5060  0.0117 -0.2914
13672SOL    HW158626   9.673   5.715   0.789 -0.9910  0.2170  0.4629
13672SOL    HW258627   9.769   5.805   0.716 -0.3263 -0.9049 -0.0778
13673SOL     OW58628  12.472   7.351   2.918  0.0601 -0.4933  0.3438
13673SOL    HW158629  12.445   7.433   2.876  0.3823  0.0039  1.0678
13673SOL    HW258630  12.392   7.299   2.925 -0.5345  0.5100  1.4973
13674SOL     OW58631   0.016  10.558   6.515 -0.1212 -0.9086 -0.2872
13674SOL    HW158632   0.107  10.549   6.487 -0.5173 -2.6796 -1.1211
13674SOL    HW258633   0.008  10.498   6.589 -0.5408 -0.5349 -0.0269
13675SOL     OW58634  10.778   0.296   3.102 -0.1680 -0.4033 -0.3653
13675SOL    HW158635  10.851   0.314   3.044 -0.3523  1.4879 -0.1040
13675SOL    HW258636  10.723   0.234   3.055  0.4896 -0.1238 -1.5251
13676SOL     OW58637   9.438   6.622   2.339 -0.1271 -0.3260 -0.1278
13676SOL    HW158638   9.389   6.593   2.416  3.1899  0.6510  2.6380
13676SOL    HW258639   9.492   6.546   2.316  0.2199 -0.0292 -0.3016
13677SOL     OW58640   9.938  11.814  11.094  0.5648 -0.0451  0.1654
13677SOL    HW158641   9.917  11.864  11.173  1.6787  2.5655 -1.0655
13677SOL    HW258642   9.857  11.813  11.044  0.3120 -0.1973  0.5782
13678SOL     OW58643   9.981   1.065   6.507  0.1329  0.1505  0.0788
13678SOL    HW158644  10.067   1.058   6.465  1.5128  1.7373  2.4152
13678SOL    HW258645   9.925   1.005   6.457  2.1491  0.2841 -2.5610
13679SOL     OW58646  11.049  12.156   6.674  0.2505  0.5975 -0.5590
13679SOL    HW158647  11.041  12.202   6.590  1.8256  1.7089 -0.1505
13679SOL    HW258648  10.994  12.206   6.734  1.3216  1.5308 -0.3084
13680SOL     OW58649  10.729  12.989   9.685  0.0200 -0.3777 -0.1908
13680SOL    HW158650  10.806  13.042   9.705 -0.3468 -0.1159  0.5663
13680SOL    HW258651  10.732  12.977   9.590 -0.3494  1.7589 -0.5289
13681SOL     OW58652   4.125   4.660   3.121  0.3787 -0.1980  0.0995
13681SOL    HW158653   4.202   4.663   3.179  0.1803 -0.5138  0.3860
13681SOL    HW258654   4.093   4.750   3.119 -0.0756 -0.3208  1.1278
13682SOL     OW58655   0.448   7.691   8.213 -0.6525  0.7546 -0.1807
13682SOL    HW158656   0.399   7.610   8.197  1.5381 -1.1639  2.0226
13682SOL    HW258657   0.391   7.743   8.270 -1.4472  0.0485 -0.3132
13683SOL     OW58658  12.443   2.859  13.515  0.0946  0.1630 -0.1026
13683SOL    HW158659  12.478   2.947  13.500  2.3726 -0.8601 -1.2754
13683SOL    HW258660  12.479   2.832  13.599  0.9890 -0.3139 -0.6139
13684SOL     OW58661   5.894   5.289   3.220  0.5234  0.0745 -0.1980
13684SOL    HW158662   5.955   5.284   3.294  0.6746  0.1755 -0.3134
13684SOL    HW258663   5.813   5.323   3.258  0.9845  1.3405 -0.2980
13685SOL     OW58664  12.729   4.972   4.328 -0.1683  0.0735  0.7852
13685SOL    HW158665  12.641   4.952   4.361 -0.8471  0.6907 -0.5767
13685SOL    HW258666  12.760   5.043   4.383 -0.9135  0.4832  0.6845
13686SOL     OW58667  10.478   6.695   4.510  0.3720 -0.1535 -0.4689
13686SOL    HW158668  10.435   6.778   4.489  2.7019  1.0284 -0.9641
13686SOL    HW258669  10.414   6.647   4.561 -1.5525  1.3931 -1.2882
13687SOL     OW58670   1.327   5.224   2.050 -0.6695  0.1878 -0.0738
13687SOL    HW158671   1.360   5.313   2.064  2.1065 -0.7607  0.0459
13687SOL    HW258672   1.354   5.176   2.129  0.1416 -1.3141 -1.2095
13688SOL     OW58673  11.415   9.449   9.824 -0.2376  0.2256  0.2249
13688SOL    HW158674  11.431   9.395   9.746 -0.7505 -0.1037  0.3427
13688SOL    HW258675  11.350   9.512   9.796 -0.6163 -0.0600  0.4566
13689SOL     OW58676   5.060  10.106   1.222  1.0344  0.6265  0.0180
13689SOL    HW158677   5.066  10.137   1.132  1.4109 -1.2312 -0.6399
13689SOL    HW258678   5.141  10.134   1.263  0.7469  1.7115 -0.1258
13690SOL     OW58679  13.832   3.740  13.879 -0.2958 -0.5264 -1.0357
13690SOL    HW158680  13.904   3.768  13.822  0.1938 -2.0601 -1.2096
13690SOL    HW258681  13.825   3.809  13.945 -0.5323  1.0440 -2.6298
13691SOL     OW58682  12.131   9.100   9.877  0.1171  0.2923 -0.4044
13691SOL    HW158683  12.091   9.091   9.964 -0.7953  0.1872 -0.8286
13691SOL    HW258684  12.200   9.034   9.876 -1.0984 -1.0193 -0.4363
13692SOL     OW58685   6.218   1.881   0.548  0.5531 -0.0959  0.4005
13692SOL    HW158686   6.154   1.949   0.530  2.1211  0.7532 -2.6012
13692SOL    HW258687   6.180   1.801   0.511  0.2229 -0.1222  0.7886
13693SOL     OW58688  11.329   1.799   5.685 -0.0200  0.5271 -0.6746
13693SOL    HW158689  11.395   1.825   5.748 -2.2941  0.6448  1.8512
13693SOL    HW258690  11.334   1.703   5.684 -1.5578  0.3213  1.7544
13694SOL     OW58691  11.315   3.049   0.489 -0.4301 -0.2720  0.6603
13694SOL    HW158692  11.379   3.120   0.486 -0.2765 -0.3964 -2.9148
13694SOL    HW258693  11.358   2.975   0.446 -2.5425 -0.6992 -0.8902
13695SOL     OW58694   1.753  13.900   5.233  0.0303 -0.3833 -0.2037
13695SOL    HW158695   1.715  13.962   5.171 -1.2651 -0.1672  0.7707
13695SOL    HW258696   1.785  13.955   5.304  0.5218 -0.7129 -0.1651
13696SOL     OW58697   0.835   7.405   5.652  0.3482  0.2354 -0.0166
13696SOL    HW158698   0.775   7.339   5.616  0.2071  1.4090 -2.1125
13696SOL    HW258699   0.919   7.387   5.609  0.1280  1.8174 -1.1579
13697SOL     OW58700   6.765   1.483   5.208 -0.3056  0.3350 -0.0678
13697SOL    HW158701   6.799   1.432   5.135 -1.4314  0.7521 -0.9157
13697SOL    HW258702   6.670   1.474   5.201 -0.4409  0.0826  1.5734
13698SOL     OW58703   6.121   9.568  13.992 -0.1648  0.2763  0.5873
13698SOL    HW158704   6.120   9.550  13.898  0.0793 -1.7677  0.9278
13698SOL    HW258705   6.047   9.626  14.006  0.0685  0.9939 -0.9262
13699SOL     OW58706  11.621   8.799  12.632  0.2783  0.1604  0.2335
13699SOL    HW158707  11.570   8.846  12.698  1.6321 -0.7558  2.0236
13699SOL    HW258708  11.601   8.707  12.648  1.9772 -0.1864  0.6112
13700SOL     OW58709  10.258   2.077  12.569 -0.0642 -0.0803 -0.6485
13700SOL    HW158710  10.261   1.983  12.552  2.2262 -0.2456  0.3226
13700SOL    HW258711  10.245   2.084  12.664  0.0263  0.5556 -0.6785
13701SOL     OW58712   1.956   2.241   5.530 -0.5769 -0.6817  0.0368
13701SOL    HW158713   2.010   2.168   5.561 -0.9269 -0.1295  2.0508
13701SOL    HW258714   1.889   2.252   5.597 -0.1811  1.8840  0.0991
13702SOL     OW58715   2.562   9.472   2.756 -0.2349 -0.2472  0.3343
13702SOL    HW158716   2.545   9.382   2.781 -2.0040 -0.0112  0.0852
13702SOL    HW258717   2.653   9.472   2.726 -0.0618 -1.8266  0.7860
13703SOL     OW58718   9.103   5.159   5.665  0.8519  0.0356 -0.2751
13703SOL    HW158719   9.189   5.200   5.672  0.9175 -0.2283  0.6932
13703SOL    HW258720   9.075   5.145   5.756  0.3127 -0.9642 -0.5668
13704SOL     OW58721   3.884  10.834   3.975 -0.1043 -0.0772 -0.1174
13704SOL    HW158722   3.861  10.859   4.064 -0.0308  0.6013 -0.2869
13704SOL    HW258723   3.936  10.907   3.942 -1.5802  0.4748 -1.3170
13705SOL     OW58724   7.666  11.373   9.825  0.5682 -0.3439  0.1394
13705SOL    HW158725   7.687  11.430   9.751 -0.8497  0.0736  0.0297
13705SOL    HW258726   7.581  11.403   9.856  0.6031 -1.2646  1.2161
13706SOL     OW58727   8.518   9.996   1.944 -0.2383 -0.2909 -0.8604
13706SOL    HW158728   8.474  10.071   1.985 -0.4154  0.5172 -2.4421
13706SOL    HW258729   8.599  10.032   1.907  0.7440 -1.3373  0.1900
13707SOL     OW58730   7.545   0.556   1.977 -0.0454  0.1703 -0.2867
13707SOL    HW158731   7.584   0.601   1.902 -0.5796  1.2009  0.0418
13707SOL    HW258732   7.475   0.614   2.007  0.4803  0.0148  1.3369
13708SOL     OW58733   5.357  10.039   9.725  0.6139  0.1042  0.7582
13708SOL    HW158734   5.357  10.132   9.702  0.3782 -0.2600 -0.8348
13708SOL    HW258735   5.323  10.036   9.815 -1.1702  1.4057  0.1755
13709SOL     OW58736  13.325   4.640   8.893  0.4350  0.5864  0.5907
13709SOL    HW158737  13.411   4.670   8.921  0.4639  1.2323 -0.1804
13709SOL    HW258738  13.267   4.660   8.967  0.3843  2.8602 -0.0028
13710SOL     OW58739   8.201   8.867   7.015  0.0943  0.0874 -0.4041
13710SOL    HW158740   8.111   8.874   7.047  0.2851  0.0854  0.1370
13710SOL    HW258741   8.243   8.805   7.075  0.7767  0.9726  0.0498
13711SOL     OW58742  13.631  10.448   9.345  0.3300 -0.7224 -0.0409
13711SOL    HW158743  13.688  10.508   9.297 -0.9623  0.4224 -0.1863
13711SOL    HW258744  13.686  10.372   9.363  1.3968 -0.3587 -1.6392
13712SOL     OW58745   3.331   8.169   2.129  0.2041  0.0576  0.0024
13712SOL    HW158746   3.313   8.153   2.222 -3.3451  0.0993 -0.5205
13712SOL    HW258747   3.273   8.241   2.106 -0.0499 -0.8582 -2.5277
13713SOL     OW58748  11.836   4.991   6.291  0.2074 -0.7252  0.1411
13713SOL    HW158749  11.874   5.066   6.245 -0.4612  0.1806  1.0489
13713SOL    HW258750  11.908   4.957   6.344  0.0954  0.2858  0.9749
13714SOL     OW58751   5.875  10.696  13.361 -0.2609  0.0167 -0.0873
13714SOL    HW158752   5.873  10.692  13.266  0.8579 -0.0230 -0.1209
13714SOL    HW258753   5.874  10.790  13.381 -0.7878  0.0217 -0.1222
13715SOL     OW58754   9.677   8.167   7.350  0.2364  0.1576 -0.4132
13715SOL    HW158755   9.616   8.168   7.276 -0.4374 -0.5971  0.1157
13715SOL    HW258756   9.764   8.172   7.309 -0.1584  0.9741 -1.1857
13716SOL     OW58757   4.483   3.692   5.913  0.0451 -0.2731 -0.1103
13716SOL    HW158758   4.556   3.661   5.967 -0.0503  0.5725  0.5272
13716SOL    HW258759   4.476   3.627   5.843  0.4766 -1.1443  0.6281
13717SOL     OW58760  13.184   7.228   2.776  0.7682 -0.4966  0.1116
13717SOL    HW158761  13.176   7.237   2.871 -1.0717  0.6932 -0.1080
13717SOL    HW258762  13.136   7.302   2.740  2.5338 -0.1589 -1.7808
13718SOL     OW58763  10.300   5.263   1.608 -0.1213 -0.1833  0.3851
13718SOL    HW158764  10.380   5.233   1.566 -1.1002 -1.0924 -0.9154
13718SOL    HW258765  10.321   5.266   1.701  1.3358 -0.6721  0.0934
13719SOL     OW58766   2.200   0.287  13.064 -0.1210  0.1297 -0.1184
13719SOL    HW158767   2.137   0.218  13.084 -0.9152  0.7882 -0.2747
13719SOL    HW258768   2.163   0.366  13.104 -0.2564  0.8713 -1.6073
13720SOL     OW58769   6.482   9.499   3.183 -0.4240  0.2508  0.1084
13720SOL    HW158770   6.501   9.593   3.181 -0.2872  0.2381  0.6180
13720SOL    HW258771   6.532   9.463   3.109  0.4334  0.4216  0.5834
13721SOL     OW58772   7.209  12.979  12.076  0.4931  0.5136  0.1451
13721SOL    HW158773   7.161  12.896  12.079  0.7867  0.3503  2.6008
13721SOL    HW258774   7.300  12.953  12.059  0.6134  0.2980  1.0849
13722SOL     OW58775   3.507   8.757   6.454 -0.1690 -0.2621  0.1471
13722SOL    HW158776   3.578   8.794   6.402 -1.2930  0.8691 -0.6488
13722SOL    HW258777   3.517   8.797   6.541 -0.4192  0.6930 -0.2532
13723SOL     OW58778  13.300   6.195  11.449 -0.1139  0.0680  0.1875
13723SOL    HW158779  13.367   6.174  11.515 -2.6917 -1.6521  2.4957
13723SOL    HW258780  13.294   6.116  11.396  1.0805  1.0028 -1.4141
13724SOL     OW58781   7.016  11.098   1.113 -0.0082  0.2385  0.6014
13724SOL    HW158782   7.097  11.122   1.067 -0.6231 -2.0529 -1.9518
13724SOL    HW258783   6.957  11.171   1.094  0.7907  0.9056  0.6077
13725SOL     OW58784   6.941  13.754   0.787 -0.2226 -0.0616  0.6603
13725SOL    HW158785   7.011  13.815   0.810 -0.8236  0.5931  0.7589
13725SOL    HW258786   6.880  13.758   0.860 -0.0804 -1.0877  0.8600
13726SOL     OW58787   3.075   1.398   3.364 -0.3367  0.3610  0.0073
13726SOL    HW158788   3.129   1.444   3.300 -1.5429 -0.6792 -1.8530
13726SOL    HW258789   3.091   1.305   3.347 -3.0226 -0.0063 -0.9938
13727SOL     OW58790   9.489   1.554   0.247  0.1925  0.3130 -0.1296
13727SOL    HW158791   9.432   1.624   0.280 -0.1083 -0.1253  0.2785
13727SOL    HW258792   9.457   1.475   0.288  1.9084  0.2232  1.1535
13728SOL     OW58793   8.359   9.676  10.201 -0.2473  0.8418 -0.2218
13728SOL    HW158794   8.269   9.700  10.223 -0.2154  1.4581 -0.7490
13728SOL    HW258795   8.372   9.708  10.112 -0.0531 -0.7386 -0.7856
13729SOL     OW58796  11.341   6.923  11.558 -0.2861 -0.1546 -0.3446
13729SOL    HW158797  11.394   6.870  11.499  0.7153  0.2708  0.1583
13729SOL    HW258798  11.264   6.868  11.577  0.3726 -1.1215 -0.4198
13730SOL     OW58799  10.450  10.333   8.813 -0.1825  0.2743 -0.1972
13730SOL    HW158800  10.439  10.252   8.763  0.7410 -0.1487  0.2635
13730SOL    HW258801  10.363  10.373   8.812 -0.8730 -1.1297  0.2682
13731SOL     OW58802   6.069   2.505   8.226  0.2359 -0.2023 -0.5041
13731SOL    HW158803   5.988   2.535   8.184  0.4022  0.1642 -0.5674
13731SOL    HW258804   6.073   2.554   8.308  1.4844  1.4491 -1.4611
13732SOL     OW58805   6.428   4.500   5.271  0.3623 -0.0376 -0.8090
13732SOL    HW158806   6.333   4.507   5.257 -0.0391  2.6703  2.1370
13732SOL    HW258807   6.467   4.527   5.188 -1.4716  0.5521 -1.5257
13733SOL     OW58808   2.406   0.530   3.047  0.2324  0.2873  0.4558
13733SOL    HW158809   2.449   0.531   2.961  0.4641  0.8948  0.5690
13733SOL    HW258810   2.444   0.456   3.093 -0.6699 -0.7007 -0.3429
13734SOL     OW58811  10.146  10.107   4.934  0.5896 -0.2998 -0.0666
13734SOL    HW158812  10.213  10.101   4.866 -0.9062 -0.4420 -1.5848
13734SOL    HW258813  10.123  10.200   4.936  2.4424  0.2064  2.1503
13735SOL     OW58814   2.537   2.664   5.386  0.1519 -0.5971  0.3743
13735SOL    HW158815   2.449   2.698   5.374 -0.0674 -1.3357 -0.2213
13735SOL    HW258816   2.587   2.702   5.313 -0.4465 -2.6593 -1.1894
13736SOL     OW58817   1.101   9.561   3.367  0.4025  0.0987  0.9628
13736SOL    HW158818   1.017   9.538   3.406 -0.4075 -0.3975 -0.9480
13736SOL    HW258819   1.151   9.479   3.367  0.7576  0.3027  1.7287
13737SOL     OW58820   7.660   9.158   3.859 -0.5813  0.0824  0.4544
13737SOL    HW158821   7.730   9.212   3.897 -0.0996  0.0862 -0.4036
13737SOL    HW258822   7.608   9.129   3.934  1.2162 -1.1757  1.2792
13738SOL     OW58823   9.388   8.995   4.808  0.3575 -0.5444 -0.7346
13738SOL    HW158824   9.481   8.974   4.814  0.8911  1.7524 -0.1493
13738SOL    HW258825   9.348   8.950   4.882  1.7474  1.7567  1.5726
13739SOL     OW58826   9.911   8.432   2.520  0.5851 -0.0091  0.8111
13739SOL    HW158827   9.905   8.424   2.424 -1.5825 -1.7995  0.9938
13739SOL    HW258828   9.837   8.488   2.543  1.2008  0.5565  1.4527
13740SOL     OW58829   8.003  13.490  11.126  0.0768  0.2026 -0.2338
13740SOL    HW158830   7.934  13.557  11.121  0.9853  1.0720 -2.8751
13740SOL    HW258831   8.080  13.532  11.088  1.1874 -1.7736 -0.3126
13741SOL     OW58832   2.218   5.577   6.052 -0.2360 -0.1078 -0.1900
13741SOL    HW158833   2.230   5.551   6.143 -1.3588 -1.6513 -0.4416
13741SOL    HW258834   2.273   5.517   6.002  0.8235  1.1022 -0.5216
13742SOL     OW58835  12.417   6.342   4.779 -0.0567  0.3841 -0.0970
13742SOL    HW158836  12.495   6.339   4.723  0.2508 -1.7307  0.3565
13742SOL    HW258837  12.382   6.253   4.776 -0.7933  0.5520  1.9904
13743SOL     OW58838  13.432   2.181   7.369  0.7369 -0.0811  0.0212
13743SOL    HW158839  13.516   2.169   7.412  1.6416  0.9437 -1.3525
13743SOL    HW258840  13.373   2.120   7.412  1.9299 -0.1075  1.6971
13744SOL     OW58841   6.718   4.178   2.046  0.1193  0.1923 -0.2742
13744SOL    HW158842   6.761   4.102   2.006  1.4198  0.5558  0.3643
13744SOL    HW258843   6.738   4.170   2.139 -0.0170  1.1329 -0.1520
13745SOL     OW58844   2.759   3.065   8.424  0.3941  0.0398  0.7778
13745SOL    HW158845   2.778   2.995   8.361 -0.8794  1.0833 -0.8674
13745SOL    HW258846   2.778   3.146   8.376 -1.5291  0.8968  1.3522
13746SOL     OW58847  12.785  13.212  11.046  0.0134 -0.0734  0.0125
13746SOL    HW158848  12.836  13.249  10.974 -1.0758 -0.5299 -1.0409
13746SOL    HW258849  12.723  13.153  11.003  0.1815 -1.3497  1.4562
13747SOL     OW58850   6.104   1.095  13.372  0.0046 -0.1218  0.0929
13747SOL    HW158851   6.090   1.094  13.466 -0.9369 -0.6171 -0.0429
13747SOL    HW258852   6.117   1.003  13.349 -2.5711 -0.3789 -0.6302
13748SOL     OW58853   7.393   0.667   5.322 -0.3896 -0.3433  0.0986
13748SOL    HW158854   7.451   0.598   5.353 -0.7670  0.1339  1.9814
13748SOL    HW258855   7.310   0.651   5.367 -0.3746  1.5114  0.8756
13749SOL     OW58856   0.287   0.482   1.965  0.2773  0.4486 -0.1819
13749SOL    HW158857   0.264   0.514   2.052  0.2615  1.2221 -0.4620
13749SOL    HW258858   0.269   0.556   1.907 -0.6304 -0.3718 -0.9779
13750SOL     OW58859  11.219  11.537  12.915 -0.2228 -0.7652  0.0077
13750SOL    HW158860  11.222  11.491  12.999 -0.4895 -0.4114  0.2176
13750SOL    HW258861  11.243  11.627  12.937  2.4449 -1.2198 -0.7342
13751SOL     OW58862   0.484   0.746   6.902 -0.3195 -0.2708 -0.5346
13751SOL    HW158863   0.554   0.681   6.904  1.6762  1.7898  0.1414
13751SOL    HW258864   0.408   0.698   6.866  1.2621 -2.6887 -0.8953
13752SOL     OW58865   3.240   5.631   0.332  0.1451  0.5394  0.6410
13752SOL    HW158866   3.198   5.604   0.251  0.6878  0.1925  0.4730
13752SOL    HW258867   3.169   5.670   0.384 -0.1922  0.8113 -0.0123
13753SOL     OW58868   2.018   9.229   0.958 -0.3417 -0.4129 -0.2101
13753SOL    HW158869   1.992   9.319   0.980 -2.4791 -1.5341  2.3754
13753SOL    HW258870   2.000   9.222   0.864 -2.9396  1.0753  0.0574
13754SOL     OW58871   7.594   4.481   0.374 -0.5222 -0.4218 -0.5386
13754SOL    HW158872   7.568   4.394   0.402  1.8169 -0.7826  0.7028
13754SOL    HW258873   7.634   4.468   0.288  0.0601 -0.6406 -0.2412
13755SOL     OW58874   9.906  12.489   6.965 -0.7295 -0.0816 -0.0530
13755SOL    HW158875   9.927  12.573   7.006 -0.5804  0.7391 -1.7282
13755SOL    HW258876   9.910  12.425   7.037  0.3970  1.1371  1.0104
13756SOL     OW58877   1.037   4.790   8.659 -0.1837  0.3878  0.1778
13756SOL    HW158878   0.967   4.775   8.723 -0.6569  0.7762 -0.2377
13756SOL    HW258879   1.036   4.885   8.645  1.2169  0.5637  1.0476
13757SOL     OW58880   8.867   5.617  12.203 -0.0885 -0.1750  0.3264
13757SOL    HW158881   8.815   5.548  12.163 -1.7123  1.2246 -0.0983
13757SOL    HW258882   8.857   5.603  12.297 -0.9764 -0.1168  0.2467
13758SOL     OW58883  12.811  12.994  11.231  0.1092  0.6430 -0.4999
13758SOL    HW158884  12.736  12.952  11.191  0.1297  1.1337 -1.0690
13758SOL    HW258885  12.845  13.053  11.164 -0.4754  2.2642  0.5438
13759SOL     OW58886  12.433  13.699  13.647 -0.0531 -0.3694  0.5744
13759SOL    HW158887  12.466  13.614  13.675  0.3612  0.5430  3.1361
13759SOL    HW258888  12.343  13.702  13.682  0.6363  0.9994  2.3731
13760SOL     OW58889   9.777  13.168  13.219 -0.1130  0.0324 -0.4381
13760SOL    HW158890   9.725  13.226  13.274  0.2953  1.4288 -1.4780
13760SOL    HW258891   9.828  13.116  13.282  0.0455  1.2972  0.5267
13761SOL     OW58892  11.583   6.500   3.019  0.3055 -0.2531 -0.3757
13761SOL    HW158893  11.529   6.431   2.979 -1.5108  0.6572  0.4161
13761SOL    HW258894  11.557   6.502   3.110  0.7054  1.1552 -0.2709
13762SOL     OW58895   3.083   6.847  12.706  0.0907 -0.2158 -0.0328
13762SOL    HW158896   2.993   6.860  12.736 -0.3137  0.4357 -1.4438
13762SOL    HW258897   3.085   6.757  12.673  0.4190 -0.7821  1.4857
13763SOL     OW58898  12.272   7.347   5.979 -0.0621  0.1508  0.0940
13763SOL    HW158899  12.335   7.417   5.970 -0.9903  0.7863 -2.4976
13763SOL    HW258900  12.192   7.390   6.008 -0.1275 -0.1280  0.3292
13764SOL     OW58901   6.024   3.038   2.733  0.2256 -0.4703 -0.2348
13764SOL    HW158902   5.997   2.988   2.810  0.7060  0.3723  0.5032
13764SOL    HW258903   6.100   2.991   2.698 -0.5782 -1.3981 -0.7871
13765SOL     OW58904  13.140   9.693   6.512  0.1396 -0.0458  0.3589
13765SOL    HW158905  13.132   9.781   6.548  0.1624 -0.3339  1.0958
13765SOL    HW258906  13.189   9.644   6.578  1.3433 -0.2735 -0.6578
13766SOL     OW58907  10.330   9.918   2.067  0.6842 -0.0578 -0.4745
13766SOL    HW158908  10.280   9.963   2.135  0.0916 -0.9438 -0.2937
13766SOL    HW258909  10.404   9.878   2.114  1.1241  0.5881 -0.6095
13767SOL     OW58910   3.156   9.604   2.347 -0.3721 -0.2107  0.4936
13767SOL    HW158911   3.226   9.563   2.398  0.2237  0.0227 -0.1071
13767SOL    HW258912   3.121   9.533   2.294 -0.0480 -0.1717  0.2194
13768SOL     OW58913   2.129   6.002   2.768  0.2098  1.1071 -0.4586
13768SOL    HW158914   2.132   5.995   2.863 -1.0980 -0.5426 -0.4929
13768SOL    HW258915   2.038   6.021   2.748  0.6369  2.3374 -1.3636
13769SOL     OW58916  10.866  10.869   2.975 -0.1726 -0.3951  0.5493
13769SOL    HW158917  10.808  10.907   3.040  0.0747 -1.6044  1.5178
13769SOL    HW258918  10.911  10.944   2.935  0.6208  0.3346  2.6759
13770SOL     OW58919   3.108   8.242   0.946 -0.1747 -0.1501  0.3755
13770SOL    HW158920   3.138   8.333   0.951  2.4618 -0.8307 -1.1312
13770SOL    HW258921   3.022   8.243   0.987 -0.0621  2.9383  0.7760
13771SOL     OW58922  11.051  11.270   0.215  0.0577  0.2848 -0.3071
13771SOL    HW158923  11.109  11.234   0.282  1.4377 -0.2228 -1.7215
13771SOL    HW258924  10.985  11.202   0.201  0.6559 -0.2530 -0.5453
13772SOL     OW58925   3.523   2.877   6.313 -0.6151  0.0597  0.2861
13772SOL    HW158926   3.539   2.971   6.315 -1.9669  0.3634  3.8994
13772SOL    HW258927   3.597   2.839   6.361 -1.2258 -0.4398  0.8492
13773SOL     OW58928   2.973   5.909   1.118 -0.2877  0.3040  0.3832
13773SOL    HW158929   2.979   5.995   1.078 -0.3871 -0.0409 -0.3824
13773SOL    HW258930   3.060   5.872   1.109 -0.7285 -0.4677 -1.1301
13774SOL     OW58931   3.917   6.029  11.293 -0.0912  0.0488 -0.2068
13774SOL    HW158932   3.995   6.068  11.333  0.4819  0.2825 -1.5276
13774SOL    HW258933   3.919   6.059  11.202 -2.5270  1.3376  0.0628
13775SOL     OW58934   0.493   8.819   4.398  0.1581  0.5033  0.3667
13775SOL    HW158935   0.403   8.813   4.366  0.2416  0.9468  0.0447
13775SOL    HW258936   0.523   8.904   4.369  0.7837  0.2373  0.2291
13776SOL     OW58937   7.488   8.234   0.875  0.3522 -0.0427 -0.3397
13776SOL    HW158938   7.400   8.263   0.852 -0.5854  0.0942  2.8507
13776SOL    HW258939   7.539   8.315   0.881  0.1307  0.0899 -0.2261
13777SOL     OW58940  13.680   0.094   5.472 -0.0625  0.3413 -0.0106
13777SOL    HW158941  13.589   0.123   5.477  0.4358  1.7270  2.0024
13777SOL    HW258942  13.731   0.171   5.496  1.6011 -0.7616  0.1343
13778SOL     OW58943  10.509   4.429  10.940 -0.0103  0.6282 -0.6249
13778SOL    HW158944  10.492   4.502  11.000  2.8348 -0.1485  1.3422
13778SOL    HW258945  10.532   4.356  10.998  0.3225 -0.9151 -2.6257
13779SOL     OW58946   8.410   1.393   4.047  0.3200  0.0135  0.0876
13779SOL    HW158947   8.347   1.334   4.089  1.8801 -1.1567  0.8614
13779SOL    HW258948   8.415   1.363   3.956  0.5859 -0.6041  0.3053
13780SOL     OW58949   7.313   0.635   7.231 -0.7193  0.0386 -0.0141
13780SOL    HW158950   7.296   0.570   7.299 -0.9615 -0.3280 -0.4187
13780SOL    HW258951   7.250   0.705   7.246 -1.0045 -0.2065 -0.0734
13781SOL     OW58952   4.811   9.428   8.465 -0.1174  0.5481 -0.3964
13781SOL    HW158953   4.780   9.339   8.480 -2.4775  1.4013  0.2297
13781SOL    HW258954   4.760   9.459   8.390  0.1448  1.5831 -0.1688
13782SOL     OW58955   2.371   8.348   3.528  0.7122 -0.5049 -0.5080
13782SOL    HW158956   2.463   8.370   3.513  0.5450  0.1990 -0.5303
13782SOL    HW258957   2.368   8.252   3.522  1.8824 -0.7744  1.8090
13783SOL     OW58958  12.252   5.454   6.864 -0.0206 -0.2171 -0.0952
13783SOL    HW158959  12.327   5.503   6.830 -1.9325  2.5494 -0.6601
13783SOL    HW258960  12.190   5.452   6.790 -0.2643 -3.1580  0.0802
13784SOL     OW58961   3.576  11.797   1.423 -0.3733  0.4159 -0.3874
13784SOL    HW158962   3.649  11.743   1.392  0.6959  0.5452  1.7396
13784SOL    HW258963   3.584  11.878   1.373 -0.1029 -0.1883 -1.3704
13785SOL     OW58964   5.823   9.702  12.494  0.0034  0.0941  0.0881
13785SOL    HW158965   5.820   9.643  12.569 -0.3434  1.0015  0.8098
13785SOL    HW258966   5.747   9.759  12.505 -0.0163  0.2895 -0.9204
13786SOL     OW58967   3.873  11.256  14.063  0.2839 -0.0494  0.1795
13786SOL    HW158968   3.832  11.299  14.138 -1.5700  0.5885 -1.1400
13786SOL    HW258969   3.804  11.200  14.027  0.3173  1.4850 -2.4657
13787SOL     OW58970   3.300   3.216  11.231 -0.8343  0.2676  0.0288
13787SOL    HW158971   3.258   3.159  11.295  1.0644  0.1667  1.2632
13787SOL    HW258972   3.390   3.226  11.263 -0.2218  1.3688 -1.8786
13788SOL     OW58973   0.023   9.917  14.021  0.1131 -1.1866 -0.0734
13788SOL    HW158974   0.005   9.823  14.010  0.3506 -1.2028 -0.2965
13788SOL    HW258975   0.091   9.920  14.088 -0.6252 -1.1257  0.6962
13789SOL     OW58976   8.203   1.119   2.106 -0.1531  0.4660 -0.2405
13789SOL    HW158977   8.283   1.082   2.144 -0.2065  1.4316  0.8762
13789SOL    HW258978   8.149   1.043   2.085  0.2222 -0.1380  0.8982
13790SOL     OW58979   9.696   5.253   0.174 -0.2830  0.4120  0.4160
13790SOL    HW158980   9.630   5.282   0.236 -1.2678 -1.9486  0.5549
13790SOL    HW258981   9.776   5.243   0.227 -0.6233  0.2576  0.9039
13791SOL     OW58982   1.679   7.304   5.965  0.1793 -0.3759  0.3091
13791SOL    HW158983   1.601   7.279   5.915  0.7349 -0.3579 -0.5958
13791SOL    HW258984   1.701   7.391   5.932  1.0958 -0.7509 -0.0957
13792SOL     OW58985  10.959  11.823   1.884 -0.7531 -0.0956  0.5777
13792SOL    HW158986  10.959  11.901   1.939 -0.9622 -0.1945  0.7189
13792SOL    HW258987  11.033  11.836   1.825 -0.8807  0.2812  0.4962
13793SOL     OW58988   5.326   5.439   5.381 -0.3324 -0.1184 -0.2285
13793SOL    HW158989   5.410   5.476   5.355 -0.6755  0.5767 -0.3611
13793SOL    HW258990   5.262   5.486   5.328 -0.8253 -0.4675  0.0531
13794SOL     OW58991   2.244   6.057  10.014 -0.9184 -0.0503 -0.6340
13794SOL    HW158992   2.258   5.963  10.030  2.4006  0.6748  2.1119
13794SOL    HW258993   2.172   6.081  10.072 -2.3161 -0.9507 -1.9258
13795SOL     OW58994  10.230  12.980   3.223 -0.7069 -0.1010 -0.0475
13795SOL    HW158995  10.291  12.920   3.179  1.2048  1.9463 -0.3981
13795SOL    HW258996  10.193  12.928   3.294 -0.2758 -2.1056 -1.1905
13796SOL     OW58997   0.938  13.491   3.656 -0.0554 -0.4157 -0.1147
13796SOL    HW158998   0.924  13.455   3.568  1.0637 -0.1066 -0.4273
13796SOL    HW258999   0.974  13.418   3.707  1.2291 -0.0546 -0.4719
13797SOL     OW59000   9.842   0.374  11.915  0.2642  0.1517 -0.2774
13797SOL    HW159001   9.893   0.427  11.853  1.4477  1.3364  1.6221
13797SOL    HW259002   9.789   0.438  11.962  0.0027 -0.6293  0.5066
13798SOL     OW59003   0.304   6.537   1.665 -0.2100  1.0418 -0.0679
13798SOL    HW159004   0.348   6.505   1.587 -0.1568 -0.5933  0.5873
13798SOL    HW259005   0.257   6.460   1.699 -0.5415  1.8098  1.2760
13799SOL     OW59006   3.088   2.680   7.077  0.2195 -0.2299  0.3880
13799SOL    HW159007   3.019   2.708   7.136 -0.7691 -0.9403 -0.3866
13799SOL    HW259008   3.111   2.592   7.107  1.8873  0.5561  1.5711
13800SOL     OW59009  12.897   6.610   7.551  0.6142 -0.7426 -0.0435
13800SOL    HW159010  12.903   6.680   7.616  1.0978 -1.5011  0.7543
13800SOL    HW259011  12.874   6.655   7.470 -0.4889  0.1768  0.7359
13801SOL     OW59012  13.677   7.166   9.606  1.0405  0.3203 -0.2584
13801SOL    HW159013  13.658   7.087   9.555 -1.1685  1.2850 -1.0685
13801SOL    HW259014  13.766   7.190   9.581  0.8063 -0.4751 -2.0216
13802SOL     OW59015   5.693  11.166  11.493  0.2909 -0.2783 -0.2192
13802SOL    HW159016   5.782  11.186  11.464  0.2943  0.0864  0.0398
13802SOL    HW259017   5.706  11.114  11.573  0.3137  3.0848  2.1527
13803SOL     OW59018   6.219   8.376   4.610  0.4020  0.1642 -0.4925
13803SOL    HW159019   6.157   8.445   4.635 -1.4964 -1.8914  0.8080
13803SOL    HW259020   6.251   8.342   4.693  0.8441 -0.9002 -1.0862
13804SOL     OW59021   7.532   2.909   3.776 -0.5599 -0.3642 -0.3013
13804SOL    HW159022   7.608   2.962   3.799 -1.8055  1.0367  0.7867
13804SOL    HW259023   7.507   2.865   3.857 -0.8586 -0.8888 -0.6724
13805SOL     OW59024   7.233   7.127   8.747 -0.0454 -0.3893 -0.0623
13805SOL    HW159025   7.203   7.184   8.818  1.5960 -0.3941  0.6927
13805SOL    HW259026   7.325   7.153   8.733  0.0223 -1.2422 -1.3305
13806SOL     OW59027   7.183  13.977   9.976  0.5717  0.5028  0.0484
13806SOL    HW159028   7.203  13.938   9.891 -2.1027 -1.7959  0.3079
13806SOL    HW259029   7.111  14.038   9.958 -2.3319 -2.3746  0.8612
13807SOL     OW59030   2.395   8.613  13.606  0.7792  0.0053  0.3948
13807SOL    HW159031   2.304   8.611  13.576  0.3913 -1.0776  1.5183
13807SOL    HW259032   2.393   8.666  13.686  1.4584  1.3649 -0.4661
13808SOL     OW59033  10.302   3.708   7.251  0.3006 -0.5531  0.4221
13808SOL    HW159034  10.265   3.647   7.186 -1.1100  0.4759  0.2074
13808SOL    HW259035  10.265   3.679   7.334 -1.0790  0.4784  0.2068
13809SOL     OW59036   0.885  13.864   4.169 -0.6331  0.6999  0.4502
13809SOL    HW159037   0.888  13.958   4.187  0.6711  0.7701 -0.0152
13809SOL    HW259038   0.872  13.858   4.075 -1.2340  0.3905  0.5450
13810SOL     OW59039  10.399   0.115   9.269  0.0438 -0.0219  0.2643
13810SOL    HW159040  10.474   0.056   9.276 -0.4019 -0.6505 -0.1721
13810SOL    HW259041  10.365   0.122   9.359 -0.5337 -1.2761  0.1639
13811SOL     OW59042   0.880   8.864   8.053  0.6123 -0.5334 -0.5115
13811SOL    HW159043   0.907   8.841   8.142 -0.5456  2.2755  0.6756
13811SOL    HW259044   0.926   8.947   8.035  0.4511 -0.8000 -2.3640
13812SOL     OW59045  10.676   1.545  13.406 -0.4834  0.0669 -0.3316
13812SOL    HW159046  10.738   1.476  13.428 -1.1734 -0.6037 -0.4459
13812SOL    HW259047  10.619   1.552  13.483 -1.2500 -0.4455 -0.8309
13813SOL     OW59048   8.900   8.834   4.320 -0.2572  0.2931  0.1548
13813SOL    HW159049   8.906   8.913   4.267 -1.7167 -0.3746 -1.0972
13813SOL    HW259050   8.990   8.808   4.337  0.2343  1.0416 -1.2358
13814SOL     OW59051   2.076  11.317   5.360  0.3439 -0.1870  0.3384
13814SOL    HW159052   2.040  11.402   5.386  2.7638  0.9346  0.2347
13814SOL    HW259053   2.094  11.272   5.442  0.7798  0.1751  0.4440
13815SOL     OW59054   8.551   2.338  11.100  0.5307 -0.4718  0.5450
13815SOL    HW159055   8.535   2.319  11.007  0.1241  0.0310  0.5122
13815SOL    HW259056   8.629   2.287  11.121  1.8610  0.9868 -0.6123
13816SOL     OW59057   9.030  10.133   7.439  0.1988  0.1186  0.5528
13816SOL    HW159058   9.007  10.140   7.532  1.4778 -1.4835  1.0409
13816SOL    HW259059   9.102  10.070   7.437  0.9855  1.0044 -1.4248
13817SOL     OW59060   7.009   0.540   0.963  0.1170 -0.6599 -0.1596
13817SOL    HW159061   6.998   0.445   0.953 -0.7671 -0.5064 -0.7219
13817SOL    HW259062   7.044   0.569   0.879 -0.7686 -0.3257 -0.4234
13818SOL     OW59063   5.806   4.133   8.120  0.1009 -0.4628  0.0202
13818SOL    HW159064   5.721   4.090   8.114 -0.9264  1.4854 -0.0691
13818SOL    HW259065   5.798   4.211   8.065  1.4195  0.5856  1.2362
13819SOL     OW59066  12.104  10.000   6.847  0.1329 -0.6591 -0.0789
13819SOL    HW159067  12.150  10.073   6.806 -0.0947 -0.5293 -0.1019
13819SOL    HW259068  12.120   9.926   6.787  0.9570 -0.8068  0.3065
13820SOL     OW59069   6.527   9.009  14.085  0.2057  0.5935  0.4446
13820SOL    HW159070   6.539   8.961  14.003 -1.0905 -1.4332  1.3569
13820SOL    HW259071   6.605   8.989  14.137  0.7461  1.3895 -0.0485
13821SOL     OW59072   0.422   8.266  10.537  0.2585 -0.0176  0.0921
13821SOL    HW159073   0.332   8.254  10.507  0.2595  0.3554 -0.0595
13821SOL    HW259074   0.419   8.243  10.630 -0.4688  2.1053  0.6414
13822SOL     OW59075   8.628  13.749   1.563 -0.3201 -0.0684  0.0548
13822SOL    HW159076   8.608  13.657   1.549  2.1434 -0.6338 -0.3404
13822SOL    HW259077   8.724  13.752   1.565 -0.2335  2.8474 -2.4260
13823SOL     OW59078  12.334  10.444  11.371  0.1052  0.1025  0.5860
13823SOL    HW159079  12.409  10.456  11.313 -1.2688  0.1715 -1.2708
13823SOL    HW259080  12.329  10.349  11.385  0.1498  0.0425  0.1866
13824SOL     OW59081   7.376   3.398  10.443  0.3897  0.4010  0.2635
13824SOL    HW159082   7.359   3.320  10.496  0.6261 -0.2069 -0.5333
13824SOL    HW259083   7.423   3.457  10.501  0.8522 -0.3472  0.6572
13825SOL     OW59084  10.789  14.032  13.267  0.5484  0.1709  0.1848
13825SOL    HW159085  10.838  14.002  13.191 -0.2746 -1.2835  0.1896
13825SOL    HW259086  10.855  14.055  13.332  1.2336 -0.3824 -0.3098
13826SOL     OW59087   1.727   6.473   5.894 -0.3251  0.0426  0.2174
13826SOL    HW159088   1.751   6.485   5.986 -0.8878  0.4930  0.3056
13826SOL    HW259089   1.708   6.561   5.862  1.6796  0.1576 -0.8558
13827SOL     OW59090  11.576   8.537   2.615 -0.1327  0.1891 -0.1444
13827SOL    HW159091  11.571   8.484   2.695  1.1638  2.0695  1.2666
13827SOL    HW259092  11.500   8.510   2.563 -1.8743 -0.0757  2.3782
13828SOL     OW59093   1.386   0.232   5.311 -0.2603 -0.9801  0.1179
13828SOL    HW159094   1.340   0.187   5.239 -1.8041 -1.6031  1.4282
13828SOL    HW259095   1.356   0.322   5.306 -0.2909 -0.9992 -0.0626
13829SOL     OW59096   8.638  12.329   2.030  0.3468 -0.4014 -0.1901
13829SOL    HW159097   8.665  12.406   2.079  1.4004 -0.5537 -0.5159
13829SOL    HW259098   8.663  12.348   1.940  2.2676 -1.8434 -0.0125
13830SOL     OW59099  13.523   4.612   2.708  0.4601  0.5118 -0.3878
13830SOL    HW159100  13.532   4.707   2.715  0.1709  0.4724  0.7192
13830SOL    HW259101  13.428   4.598   2.701  0.4759  0.2993 -0.1903
13831SOL     OW59102   7.818   1.239  10.360 -0.2807 -0.1777 -0.0018
13831SOL    HW159103   7.899   1.216  10.316 -0.7519 -0.3023 -0.8249
13831SOL    HW259104   7.845   1.296  10.432  0.2980  2.3801 -2.0663
13832SOL     OW59105  11.015   6.747   3.654  0.6842 -0.2222 -0.2324
13832SOL    HW159106  10.932   6.704   3.634  1.7407 -1.3831 -2.4496
13832SOL    HW259107  11.030   6.729   3.747 -1.1122 -0.7031 -0.0004
13833SOL     OW59108  11.665   8.405  11.956 -0.2818 -0.1083 -0.2971
13833SOL    HW159109  11.718   8.476  11.918 -0.8824 -1.1676 -3.4814
13833SOL    HW259110  11.721   8.328  11.949 -1.3188 -0.7902 -1.4506
13834SOL     OW59111  13.834   7.931   4.038  0.1512  0.3751  0.1959
13834SOL    HW159112  13.745   7.899   4.051  0.4583 -0.7092 -0.1832
13834SOL    HW259113  13.886   7.851   4.028  1.2130  0.9811  0.7025
13835SOL     OW59114   3.640   4.828  14.084  0.2564 -0.3177 -0.4737
13835SOL    HW159115   3.709   4.895  14.075 -0.0954  0.3122  1.1131
13835SOL    HW259116   3.669   4.757  14.027  0.8551  1.0056 -1.9123
13836SOL     OW59117   8.011   5.142   9.755  0.1881 -0.2146 -0.2221
13836SOL    HW159118   8.058   5.196   9.691  0.5468  1.3107  1.2552
13836SOL    HW259119   7.969   5.205   9.813  1.1304 -1.4781  1.9755
13837SOL     OW59120  11.199  11.901   7.879  0.0603 -0.4554 -0.3992
13837SOL    HW159121  11.173  11.812   7.855 -1.4335 -0.3684  0.7496
13837SOL    HW259122  11.248  11.933   7.803  0.2789 -2.1002 -0.9895
13838SOL     OW59123   3.164   8.004   4.454 -0.1489  0.3955 -0.0387
13838SOL    HW159124   3.069   8.012   4.460 -0.3857 -2.0571  0.6275
13838SOL    HW259125   3.197   8.058   4.527 -1.0788  0.3589  0.4191
13839SOL     OW59126  12.885   4.062   0.380  0.2056 -0.2868 -0.3062
13839SOL    HW159127  12.902   4.130   0.315 -1.8952  0.0815 -0.5416
13839SOL    HW259128  12.934   4.089   0.457  0.7212  0.5977 -0.9335
13840SOL     OW59129   6.827  10.306   0.272  0.3142  0.4848 -0.1084
13840SOL    HW159130   6.812  10.335   0.362 -0.4642 -1.7794  0.5451
13840SOL    HW259131   6.745  10.326   0.227 -0.0092 -0.1262  0.1932
13841SOL     OW59132   2.106   6.657   0.078 -0.4222  0.1180 -0.2082
13841SOL    HW159133   2.166   6.591   0.043 -1.2804 -0.2557 -0.9997
13841SOL    HW259134   2.146   6.740   0.053 -0.2774 -0.1296 -0.8341
13842SOL     OW59135   1.773  12.287   3.585  0.3643  0.2959  0.3616
13842SOL    HW159136   1.751  12.327   3.669  0.2961  0.2471  0.3665
13842SOL    HW259137   1.856  12.241   3.602  0.3949  0.3583  0.3796
13843SOL     OW59138   8.984  13.322   6.479 -0.1136  0.4400  0.2896
13843SOL    HW159139   9.032  13.316   6.561 -2.2247  2.2807  1.8045
13843SOL    HW259140   8.894  13.298   6.502 -0.4160 -0.8653 -1.9562
13844SOL     OW59141   9.643   2.971  11.188  0.5141  0.2069  0.0349
13844SOL    HW159142   9.670   3.056  11.222 -0.6009  0.7401 -0.3610
13844SOL    HW259143   9.551   2.963  11.214  0.0018  0.0508 -1.7035
13845SOL     OW59144  10.627   9.444   5.798  0.0310  0.0851 -0.1339
13845SOL    HW159145  10.623   9.452   5.702  0.0329 -0.7066 -0.2014
13845SOL    HW259146  10.561   9.379   5.820  1.0032 -0.7831  0.2756
13846SOL     OW59147   4.855   5.027  10.313 -0.3648 -0.0081  0.6640
13846SOL    HW159148   4.802   4.977  10.251  0.1719 -0.2608  0.3991
13846SOL    HW259149   4.940   5.037  10.269 -0.6935  1.8084  0.3708
13847SOL     OW59150   3.344   3.814   3.825 -0.4489 -0.2264 -0.0770
13847SOL    HW159151   3.277   3.813   3.757 -0.5857 -0.1899  0.0570
13847SOL    HW259152   3.319   3.887   3.881 -0.3415 -0.2635  0.0183
13848SOL     OW59153   6.220  10.309   3.684  0.0664  0.0967  0.0898
13848SOL    HW159154   6.218  10.309   3.779 -1.0563 -0.5444  0.0755
13848SOL    HW259155   6.153  10.372   3.658 -0.7795 -0.9379 -0.2813
13849SOL     OW59156   2.445   6.010   3.974  0.2483 -0.4875  0.2102
13849SOL    HW159157   2.397   5.969   3.903  0.3526 -0.1874 -0.0335
13849SOL    HW259158   2.458   5.939   4.038  2.3495 -1.4396 -1.1613
13850SOL     OW59159   8.819   2.537   3.753  0.4026  0.1203  0.0936
13850SOL    HW159160   8.902   2.504   3.721  0.2614  1.4528 -1.8197
13850SOL    HW259161   8.837   2.565   3.843  1.1377 -2.5862  0.8552
13851SOL     OW59162   2.839   3.874   4.361  0.6494  0.9099 -0.0009
13851SOL    HW159163   2.864   3.897   4.272  0.1962  1.2540 -0.0440
13851SOL    HW259164   2.749   3.907   4.370  1.2251  2.2529  1.0699
13852SOL     OW59165   5.407   4.773   4.179 -0.0992  0.1723 -0.0107
13852SOL    HW159166   5.411   4.692   4.128 -2.0114  1.2575 -2.0607
13852SOL    HW259167   5.404   4.744   4.270 -1.9897 -2.1474 -0.7104
13853SOL     OW59168   0.259   9.223   7.568  0.4351  0.1266 -0.5543
13853SOL    HW159169   0.264   9.318   7.566  1.0218  0.1101 -0.1339
13853SOL    HW259170   0.202   9.200   7.494 -1.0232  0.8852  0.2810
13854SOL     OW59171   3.501   6.158   1.968 -0.5557 -0.0063  0.5014
13854SOL    HW159172   3.553   6.079   1.950 -2.3539 -0.9632 -0.8060
13854SOL    HW259173   3.421   6.126   2.009 -1.2050  1.1583  0.2021
13855SOL     OW59174   8.878   0.854  11.554 -0.5222 -0.4928  0.0821
13855SOL    HW159175   8.851   0.814  11.637 -2.0256 -0.3506 -0.3028
13855SOL    HW259176   8.936   0.925  11.580 -1.7866  0.2170  1.1199
13856SOL     OW59177  12.289   4.200   7.561  0.1066 -0.3098 -0.1229
13856SOL    HW159178  12.217   4.195   7.499 -1.1598 -0.9816  1.3396
13856SOL    HW259179  12.274   4.281   7.609  1.2344  0.3495 -0.8179
13857SOL     OW59180   4.510  13.474   2.306  0.7909  0.0839  0.0619
13857SOL    HW159181   4.477  13.427   2.383 -2.4489 -1.6224 -2.1572
13857SOL    HW259182   4.551  13.406   2.253 -0.8574  0.3372 -1.6118
13858SOL     OW59183   3.217   6.200   6.378 -0.1984 -0.2921  0.1475
13858SOL    HW159184   3.186   6.123   6.331 -2.0684  0.3894  0.1926
13858SOL    HW259185   3.240   6.263   6.310  2.1430 -1.1195  0.0846
13859SOL     OW59186   3.341  12.854  13.500  0.2059  0.2277 -0.3093
13859SOL    HW159187   3.255  12.876  13.466 -0.0199  0.5780  0.4488
13859SOL    HW259188   3.376  12.938  13.532 -0.3641 -0.3166  1.9681
13860SOL     OW59189   8.462  11.051  10.122  0.2959  0.0038  0.5977
13860SOL    HW159190   8.444  11.120  10.058 -1.1380  0.3155  1.2898
13860SOL    HW259191   8.377  11.010  10.138  0.9137 -1.1301  1.1086
13861SOL     OW59192   3.797   3.638   7.679  0.0424  0.2616 -0.7990
13861SOL    HW159193   3.837   3.715   7.639 -0.8533  1.9172  1.3488
13861SOL    HW259194   3.703   3.657   7.679  0.0092  0.6792  2.5545
13862SOL     OW59195   1.972   9.219   2.463  0.2575 -0.2586  0.1110
13862SOL    HW159196   1.923   9.267   2.530 -2.4005 -1.0775 -1.0943
13862SOL    HW259197   1.976   9.279   2.389 -0.1383 -0.6915 -0.2668
13863SOL     OW59198  10.957   9.174   8.275 -0.3099  0.5463  0.0930
13863SOL    HW159199  11.012   9.102   8.245 -0.3384  0.8265 -0.6357
13863SOL    HW259200  10.948   9.159   8.370 -0.1678 -0.3029 -0.0185
13864SOL     OW59201   7.498   0.399   1.172 -0.0336  0.9513 -0.6472
13864SOL    HW159202   7.514   0.492   1.185  1.6217  0.7485 -0.9870
13864SOL    HW259203   7.585   0.359   1.179 -0.8760 -0.7484  0.8755
13865SOL     OW59204  10.402  11.168   7.193  0.5352  0.0198  0.1194
13865SOL    HW159205  10.469  11.235   7.185 -0.2855  0.8815  0.3396
13865SOL    HW259206  10.449  11.091   7.226  0.9497  1.4422  3.1290
13866SOL     OW59207   6.171   4.738   5.017  0.2749 -0.0842 -0.3853
13866SOL    HW159208   6.107   4.805   4.993  1.5127  1.1404 -0.4210
13866SOL    HW259209   6.221   4.722   4.937  0.7949 -0.1093 -0.0634
13867SOL     OW59210   7.808   4.695   1.499  0.0225 -0.2838  0.0754
13867SOL    HW159211   7.801   4.657   1.587  0.2538 -0.7763 -0.1190
13867SOL    HW259212   7.719   4.692   1.464 -0.0309 -0.2820  0.2102
13868SOL     OW59213  10.431   3.917   0.594 -0.0752 -0.3173 -0.4611
13868SOL    HW159214  10.500   3.890   0.655  1.5949 -0.1952 -2.1984
13868SOL    HW259215  10.452   3.871   0.513 -1.1424  0.9432 -1.4989
13869SOL     OW59216  10.707   0.878  11.089  0.5078 -0.1768  0.0871
13869SOL    HW159217  10.771   0.838  11.029  0.3496 -1.7179  0.8857
13869SOL    HW259218  10.638   0.911  11.031  1.0048 -0.4207 -0.6640
13870SOL     OW59219   8.262  13.032   5.179 -0.2603  0.3775 -0.5051
13870SOL    HW159220   8.264  12.937   5.167 -1.2508  0.4600 -1.4653
13870SOL    HW259221   8.338  13.064   5.131  1.4986 -0.0910  1.8253
13871SOL     OW59222   1.246   8.663  10.542  0.0968 -0.6473 -0.1848
13871SOL    HW159223   1.321   8.710  10.580 -0.3517  0.3574 -0.4971
13871SOL    HW259224   1.170   8.705  10.581 -0.3976  0.7399 -2.4602
13872SOL     OW59225   3.831  11.991   7.698 -0.1116 -0.8503  0.9547
13872SOL    HW159226   3.792  12.077   7.691  0.4281 -0.6528  0.2039
13872SOL    HW259227   3.923  12.008   7.720  0.8153 -1.0300 -2.2397
13873SOL     OW59228   1.010   8.851   5.793  0.1774 -0.7535  0.9938
13873SOL    HW159229   1.020   8.777   5.853  1.4781  0.3888  2.2564
13873SOL    HW259230   0.950   8.911   5.837 -1.9807 -1.5839 -0.6267
13874SOL     OW59231   3.729  13.016   9.798  0.4682 -0.4336  0.7452
13874SOL    HW159232   3.754  12.964   9.721 -1.0266 -1.3310  0.8272
13874SOL    HW259233   3.800  13.080   9.807  2.0002 -1.9728  0.2000
13875SOL     OW59234  10.458   9.808   2.439  0.3146  0.5768  0.2060
13875SOL    HW159235  10.482   9.801   2.532 -0.9133 -1.5404  0.4092
13875SOL    HW259236  10.386   9.746   2.428 -1.5454  2.8854 -1.5445
13876SOL     OW59237   7.010   2.647  10.704  0.3156 -0.4336  0.4239
13876SOL    HW159238   7.046   2.634  10.616 -0.8931  3.3722 -0.8411
13876SOL    HW259239   7.081   2.620  10.763  1.8562 -1.4058 -1.7455
13877SOL     OW59240  12.588   4.021   7.055  0.3819 -0.0233  0.2829
13877SOL    HW159241  12.619   3.931   7.051  0.2036 -0.0904  0.4151
13877SOL    HW259242  12.578   4.039   7.149 -0.2262 -0.0885  0.2369
13878SOL     OW59243  11.692  10.990   1.809 -0.1055  0.4157 -0.1923
13878SOL    HW159244  11.748  11.057   1.848  1.2459 -0.3798 -0.7024
13878SOL    HW259245  11.680  10.925   1.878  2.5671 -1.1623 -1.0976
13879SOL     OW59246  12.561   9.769   7.523 -0.4379 -0.2630  0.5566
13879SOL    HW159247  12.527   9.857   7.537 -0.0393  0.2781 -1.5097
13879SOL    HW259248  12.502   9.730   7.459  1.1091 -0.3192 -0.9251
13880SOL     OW59249   3.250   1.577   3.241  0.2329  0.6718 -0.5692
13880SOL    HW159250   3.199   1.600   3.164 -2.4919 -0.5958  0.7065
13880SOL    HW259251   3.293   1.659   3.266 -0.9950  1.7835 -1.9015
13881SOL     OW59252   1.192  12.014  11.028 -0.0084  0.7975 -0.0882
13881SOL    HW159253   1.269  12.067  11.004  0.2139  0.7181  0.4263
13881SOL    HW259254   1.228  11.941  11.077 -0.1704 -0.6626 -2.0539
13882SOL     OW59255   9.034   4.560   1.603 -0.6417  0.0175  0.3852
13882SOL    HW159256   9.104   4.586   1.663 -0.6061 -1.8962  1.2395
13882SOL    HW259257   9.080   4.518   1.530 -0.8453 -0.3183  0.4518
13883SOL     OW59258   9.849  11.273   5.026  0.3629 -0.0592  0.0222
13883SOL    HW159259   9.895  11.192   5.004 -0.7269 -0.5573 -0.5084
13883SOL    HW259260   9.776  11.245   5.081 -0.0750  0.5420 -0.2438
13884SOL     OW59261   4.887  11.450   9.358  0.4349 -0.1311 -0.2168
13884SOL    HW159262   4.893  11.355   9.360 -1.9568 -0.3823 -1.0856
13884SOL    HW259263   4.950  11.477   9.292  1.5717 -1.0251  0.4665
13885SOL     OW59264   1.207  10.658   1.265  0.1311 -0.2876 -0.3000
13885SOL    HW159265   1.128  10.605   1.262  0.0754 -0.1714 -2.0850
13885SOL    HW259266   1.225  10.680   1.173  0.5030  2.2540  0.2956
13886SOL     OW59267   4.189   1.701   7.244 -0.2973  0.0335  0.0444
13886SOL    HW159268   4.100   1.678   7.221 -0.3250  0.4951 -0.3435
13886SOL    HW259269   4.187   1.715   7.339 -0.7949  0.6986 -0.0562
13887SOL     OW59270   5.884   6.056  13.792  0.4471 -0.1839 -0.2972
13887SOL    HW159271   5.793   6.085  13.785  0.3658 -0.3572 -0.0046
13887SOL    HW259272   5.935   6.137  13.798  0.0703 -0.0522  2.3237
13888SOL     OW59273   7.164  10.644  13.507 -0.2405  0.1797 -0.5227
13888SOL    HW159274   7.096  10.652  13.574  0.6066 -0.7138  0.4896
13888SOL    HW259275   7.117  10.621  13.427 -1.2216  0.6219 -0.0849
13889SOL     OW59276   9.801  14.038  11.731  0.1947  0.0591 -0.4403
13889SOL    HW159277   9.832  14.125  11.703 -2.3725  1.3255  0.3566
13889SOL    HW259278   9.752  14.005  11.656 -1.1770  0.5808  0.1909
13890SOL     OW59279   3.981   8.206  13.439 -0.1459 -0.2815 -0.1746
13890SOL    HW159280   4.071   8.236  13.454 -0.8080  2.9255 -1.8479
13890SOL    HW259281   3.926   8.278  13.469 -2.1442 -1.5535 -0.5940
13891SOL     OW59282  11.899   3.392   3.387 -0.2047 -0.1056  0.2141
13891SOL    HW159283  11.883   3.333   3.313  0.9689  0.2734 -0.3771
13891SOL    HW259284  11.813   3.426   3.411 -0.5604  0.1204 -1.2993
13892SOL     OW59285   7.930   6.761   3.742 -0.2869 -0.3473  0.0843
13892SOL    HW159286   7.887   6.779   3.825  1.3901 -0.8228  1.1068
13892SOL    HW259287   7.960   6.670   3.750  0.9701 -0.0121 -0.5203
13893SOL     OW59288   0.187   0.547   2.195 -0.5806  0.5683 -0.2286
13893SOL    HW159289   0.206   0.491   2.271 -0.1647 -1.1366 -1.5267
13893SOL    HW259290   0.128   0.615   2.230 -0.3084 -0.0768  1.6318
13894SOL     OW59291  10.818   7.489   9.408  0.1956  0.3935 -0.3852
13894SOL    HW159292  10.824   7.395   9.394  0.2909  0.2923  0.3245
13894SOL    HW259293  10.749   7.518   9.349  0.2647 -0.0990 -0.7076
13895SOL     OW59294   1.232   2.222   5.850 -0.0597  0.0433 -0.2903
13895SOL    HW159295   1.264   2.165   5.920 -0.2038 -0.1292 -0.3646
13895SOL    HW259296   1.158   2.268   5.889  0.7127  0.9723  0.1107
13896SOL     OW59297   6.855  11.082   6.971 -0.5026 -0.0885  0.0536
13896SOL    HW159298   6.833  11.140   7.043  0.4557  2.2312 -1.3955
13896SOL    HW259299   6.870  11.140   6.897  1.1973 -2.1510 -1.3540
13897SOL     OW59300  12.070   5.051   4.724  0.5231  0.3644  0.9119
13897SOL    HW159301  12.097   4.960   4.707 -0.8467 -0.4604  2.8269
13897SOL    HW259302  11.982   5.043   4.759  0.2885  2.4910  0.9033
13898SOL     OW59303   5.573   0.779   1.965  0.2035 -0.0591 -0.2294
13898SOL    HW159304   5.622   0.728   2.029  0.3594  0.7859  0.3332
13898SOL    HW259305   5.536   0.713   1.905  0.5402 -0.8118  0.3795
13899SOL     OW59306   1.515  13.182  11.194 -0.2032  0.2817 -0.4750
13899SOL    HW159307   1.554  13.191  11.282 -0.3019 -0.7117 -0.3175
13899SOL    HW259308   1.424  13.158  11.211  0.0964 -1.1899 -0.8356
13900SOL     OW59309   6.350  13.456   4.717  0.6218  0.5562  0.3644
13900SOL    HW159310   6.264  13.496   4.705  0.4025  0.0846  0.3021
13900SOL    HW259311   6.386  13.498   4.795  0.2136  0.5687  0.5510
13901SOL     OW59312  12.856  10.599   8.458  0.7173 -0.2044  0.0402
13901SOL    HW159313  12.844  10.685   8.499 -0.5020  0.5008 -1.6526
13901SOL    HW259314  12.774  10.553   8.473  0.9704 -0.6615  0.0359
13902SOL     OW59315   1.119   9.323  11.783 -0.1880 -0.0695 -0.0796
13902SOL    HW159316   1.096   9.350  11.872 -0.3696  0.6436 -0.3366
13902SOL    HW259317   1.144   9.231  11.791 -1.7056 -0.4625  0.4626
13903SOL     OW59318   1.630  13.078   3.776  0.1946 -0.0635  0.1161
13903SOL    HW159319   1.581  12.996   3.770 -0.0506  0.0535  0.5039
13903SOL    HW259320   1.693  13.073   3.704  0.6690 -0.9116  0.5754
13904SOL     OW59321   6.366   2.532   9.905  0.6807  0.0854 -0.1964
13904SOL    HW159322   6.417   2.488   9.974  1.0622 -0.6771 -0.9522
13904SOL    HW259323   6.381   2.625   9.921 -1.2120  0.0697  2.2601
13905SOL     OW59324   3.968   8.832   4.780  0.4640 -0.2237 -0.0859
13905SOL    HW159325   3.973   8.901   4.846  0.0978  0.1542 -0.4470
13905SOL    HW259326   3.960   8.878   4.697  0.3350 -0.7009 -0.3439
13906SOL     OW59327   9.712   1.994  10.394 -0.2726  0.1630  0.5515
13906SOL    HW159328   9.717   1.936  10.469  0.3878  0.5475  0.8123
13906SOL    HW259329   9.660   2.069  10.424 -0.0861  0.2735  0.6053
13907SOL     OW59330  12.767  12.285   5.194  0.0637  0.1737 -0.8723
13907SOL    HW159331  12.685  12.235   5.197 -0.7096  1.3887 -1.0968
13907SOL    HW259332  12.810  12.256   5.114  0.2060 -1.0057 -0.3812
13908SOL     OW59333  11.192   3.015  11.859 -0.4244 -0.2259 -0.5184
13908SOL    HW159334  11.276   2.982  11.892  0.3615  0.0401 -2.1850
13908SOL    HW259335  11.166   2.951  11.793 -0.9757  0.2868 -0.7959
13909SOL     OW59336   8.446   5.249   3.941  0.5279  0.0918  0.1737
13909SOL    HW159337   8.390   5.322   3.915  0.2530 -0.1554  0.0621
13909SOL    HW259338   8.388   5.191   3.990  0.3617 -0.8026 -1.0485
13910SOL     OW59339   1.187  13.343   5.321 -0.7452  0.0525  0.0475
13910SOL    HW159340   1.154  13.271   5.375 -1.1535  0.4345  0.3109
13910SOL    HW259341   1.238  13.299   5.252 -1.9777 -0.5711 -0.5105
13911SOL     OW59342   7.327  12.362  11.993 -0.1597  0.4150 -0.4571
13911SOL    HW159343   7.364  12.448  12.013 -0.5671  0.2524  1.0561
13911SOL    HW259344   7.329  12.314  12.076 -1.5898 -0.4187 -0.8690
13912SOL     OW59345  10.653  10.387   6.723 -0.0056  0.9122  0.1019
13912SOL    HW159346  10.695  10.420   6.644  1.0191 -0.3897  0.0627
13912SOL    HW259347  10.650  10.462   6.783 -0.5745  1.8459 -1.0495
13913SOL     OW59348   1.034   4.940  11.578 -0.0743 -0.0168 -0.1589
13913SOL    HW159349   1.112   4.945  11.522  1.0250 -0.0515  1.3078
13913SOL    HW259350   1.067   4.957  11.666 -1.7819  0.1668  0.4735
13914SOL     OW59351   5.476   2.431   0.306 -0.7713  0.1098 -0.3036
13914SOL    HW159352   5.536   2.407   0.237 -0.7588  1.4067 -0.7749
13914SOL    HW259353   5.413   2.490   0.264 -0.7373  0.9538  0.7707
13915SOL     OW59354   9.233   5.580   6.595  0.2560 -0.1788  0.2240
13915SOL    HW159355   9.261   5.504   6.645 -0.8278 -2.1413 -1.9508
13915SOL    HW259356   9.308   5.602   6.540  0.3667 -0.0283  0.4320
13916SOL     OW59357  13.673   5.241   1.029 -0.8947  0.4033 -0.5623
13916SOL    HW159358  13.611   5.168   1.023  0.3539 -0.5152 -3.9552
13916SOL    HW259359  13.756   5.201   1.054 -0.4019  0.7769 -1.5679
13917SOL     OW59360   4.228  13.908  10.927  0.4112 -0.4258 -0.0965
13917SOL    HW159361   4.261  13.837  10.872  1.6966  0.4803 -0.5599
13917SOL    HW259362   4.306  13.941  10.973 -0.6084 -1.1197  2.2799
13918SOL     OW59363   8.607   1.472  11.540 -0.0993 -0.0903  0.4278
13918SOL    HW159364   8.549   1.417  11.487 -0.9747 -0.1937  1.4527
13918SOL    HW259365   8.656   1.525  11.477 -0.3615 -0.9471 -0.5082
13919SOL     OW59366  13.444  13.207  13.904  0.2163  0.2767  0.1471
13919SOL    HW159367  13.351  13.222  13.886  0.3822  2.2185  0.6296
13919SOL    HW259368  13.486  13.204  13.818 -0.3782 -1.5611 -0.1187
13920SOL     OW59369  13.553   4.225   0.805 -0.3392 -0.2355  0.0315
13920SOL    HW159370  13.629   4.274   0.776 -1.4004  0.8891 -0.9268
13920SOL    HW259371  13.538   4.160   0.736 -0.4374 -0.2647  0.0796
13921SOL     OW59372   5.523   0.809   5.159  0.0511  0.2619  0.1697
13921SOL    HW159373   5.591   0.789   5.094 -0.9528 -1.0380 -0.5245
13921SOL    HW259374   5.440   0.797   5.112 -0.7685 -2.3041  2.0544
13922SOL     OW59375   9.471  10.080  13.903  0.0958 -0.5119  0.3051
13922SOL    HW159376   9.479  10.116  13.991  1.6242 -0.4379  0.1628
13922SOL    HW259377   9.407  10.009  13.912 -1.9531  1.2840  0.8582
13923SOL     OW59378   6.404  11.302   5.880 -0.1678 -0.1807 -0.3576
13923SOL    HW159379   6.364  11.281   5.965 -0.3447  0.3345 -0.3084
13923SOL    HW259380   6.403  11.398   5.877 -0.6558 -0.2059 -1.1811
13924SOL     OW59381  13.357   6.144   3.472  0.1677 -0.5567 -0.1963
13924SOL    HW159382  13.376   6.070   3.414  0.1336 -0.9751  0.3249
13924SOL    HW259383  13.309   6.106   3.545 -0.4102  0.0872 -0.2377
13925SOL     OW59384   7.359   3.701  12.435 -0.3305  0.3921  0.2961
13925SOL    HW159385   7.426   3.757  12.474 -0.4477  0.6694  0.1011
13925SOL    HW259386   7.294   3.762  12.400 -0.9806  0.1159  1.0000
13926SOL     OW59387   0.332   4.907   2.270  0.5840  0.0025  0.6830
13926SOL    HW159388   0.260   4.920   2.332  0.5221 -1.2759  0.9030
13926SOL    HW259389   0.305   4.833   2.216  1.8411 -0.6704  0.9414
13927SOL     OW59390  13.355   7.772   0.961  0.0227 -0.3467  0.5998
13927SOL    HW159391  13.365   7.695   0.905  0.1373 -0.5048  0.8348
13927SOL    HW259392  13.318   7.839   0.904  0.1424 -0.5061  0.3339
13928SOL     OW59393   3.844  10.860  13.903 -0.3311  0.1632  0.0361
13928SOL    HW159394   3.790  10.796  13.857  0.8767  0.0280 -1.2474
13928SOL    HW259395   3.859  10.930  13.839 -1.0597  1.4329  1.1902
13929SOL     OW59396   0.647   7.701   4.552  0.1682 -0.4253 -0.3263
13929SOL    HW159397   0.560   7.662   4.540  0.3919 -0.8791 -0.4924
13929SOL    HW259398   0.701   7.629   4.584  0.4196 -0.0772  0.0389
13930SOL     OW59399  11.700   0.291   0.705  0.3572  0.5573  0.0482
13930SOL    HW159400  11.751   0.271   0.783  1.5985  2.1240 -0.3243
13930SOL    HW259401  11.616   0.322   0.738  0.0464 -0.8714  0.6871
13931SOL     OW59402   0.917  12.027   6.008  0.1190 -0.3818  0.1642
13931SOL    HW159403   0.891  12.040   6.099  2.3049  0.7491  0.6952
13931SOL    HW259404   0.922  11.932   5.997  0.0044 -0.5249  1.2902
13932SOL     OW59405  13.749   3.249   1.797  0.3702  0.4807 -0.2607
13932SOL    HW159406  13.786   3.297   1.723  0.9815 -0.2506 -0.4375
13932SOL    HW259407  13.657   3.277   1.800 -0.0336 -0.4284 -2.1069
13933SOL     OW59408   3.657  13.651   9.185  0.2013  0.1108  0.5093
13933SOL    HW159409   3.571  13.684   9.212  0.4652  0.2833  1.1576
13933SOL    HW259410   3.693  13.612   9.265  0.9373  0.5031  0.3746
13934SOL     OW59411   5.324   7.377   4.034 -0.2657 -0.1145 -0.3062
13934SOL    HW159412   5.310   7.320   3.959  1.7959 -1.1051 -0.0147
13934SOL    HW259413   5.316   7.320   4.110  2.5472 -0.3157 -0.0325
13935SOL     OW59414   7.634  12.566  13.400  0.6252 -0.1149  0.4966
13935SOL    HW159415   7.619  12.475  13.374  2.7226 -0.3429 -0.0810
13935SOL    HW259416   7.718  12.565  13.445  0.8832  1.5887  0.1294
13936SOL     OW59417  13.786   3.325   2.973 -0.3229  0.5975  0.4814
13936SOL    HW159418  13.745   3.248   2.933 -0.0811 -1.5714  3.9642
13936SOL    HW259419  13.719   3.393   2.971 -1.4934 -0.5437 -0.4214
13937SOL     OW59420   5.623  13.650   6.755  0.0860  0.1184 -0.0968
13937SOL    HW159421   5.676  13.665   6.677  0.6930 -0.2885  0.2339
13937SOL    HW259422   5.616  13.736   6.796 -1.0119  0.5319 -1.0649
13938SOL     OW59423  10.949   0.168   5.854 -0.0379 -0.1246  0.2719
13938SOL    HW159424  10.968   0.253   5.895  0.5651  0.7308 -1.6690
13938SOL    HW259425  10.955   0.185   5.760  0.5266 -2.4279 -0.1600
13939SOL     OW59426  13.017   0.685   9.113  0.3381 -0.3006 -0.0616
13939SOL    HW159427  12.941   0.627   9.098 -1.1342  1.4762  0.1569
13939SOL    HW259428  13.057   0.693   9.026 -1.6177  1.1602 -0.9298
13940SOL     OW59429  13.073   8.786   9.167  0.0342 -0.7679 -0.5673
13940SOL    HW159430  13.011   8.714   9.179  0.4528 -1.0128  0.1881
13940SOL    HW259431  13.041   8.833   9.090 -2.6385  0.6681  1.2700
13941SOL     OW59432   4.691   9.292   7.234  0.4499 -0.0492  0.2006
13941SOL    HW159433   4.636   9.214   7.246  0.7326 -0.3233 -0.2497
13941SOL    HW259434   4.773   9.271   7.279  1.2849 -0.8377 -1.5653
13942SOL     OW59435  12.012   9.369  10.641 -0.5112 -0.5778 -0.3525
13942SOL    HW159436  12.008   9.453  10.687 -1.3199 -1.3604  1.0808
13942SOL    HW259437  12.095   9.372  10.593  0.6408  0.1291  1.5576
13943SOL     OW59438   4.052   9.445  11.150 -0.0631 -0.0289 -0.2566
13943SOL    HW159439   4.095   9.529  11.165 -0.4842  0.2021 -0.3307
13943SOL    HW259440   3.975   9.446  11.207 -1.0701  0.4028 -1.5751
13944SOL     OW59441   7.069  11.182   6.628  1.1760 -0.0099  0.3813
13944SOL    HW159442   6.983  11.215   6.651  1.7921  0.9324  1.3997
13944SOL    HW259443   7.117  11.179   6.710  1.9624 -1.0099 -0.0915
13945SOL     OW59444   0.353   6.244   5.171 -0.3822 -0.2754 -0.3580
13945SOL    HW159445   0.384   6.194   5.096 -2.3911 -0.4599 -1.1398
13945SOL    HW259446   0.286   6.303   5.135  0.0332  1.0956  0.9751
13946SOL     OW59447  10.540  13.609  13.121  0.0203  0.4133 -0.2001
13946SOL    HW159448  10.525  13.547  13.192  0.4490  1.6015  0.9598
13946SOL    HW259449  10.467  13.670  13.127 -0.1687  0.2902 -1.0713
13947SOL     OW59450   1.515  10.176   5.902 -0.2526 -0.2581  0.3431
13947SOL    HW159451   1.518  10.133   5.816  0.5866 -0.0338  0.2463
13947SOL    HW259452   1.463  10.255   5.887 -1.9370 -1.2954  0.5624
13948SOL     OW59453   6.171  10.363   6.586  0.0175 -0.3416  0.1002
13948SOL    HW159454   6.221  10.442   6.570 -0.4086  0.1756  1.1905
13948SOL    HW259455   6.080  10.387   6.567 -0.0770 -0.6570  0.1348
13949SOL     OW59456   0.214   0.517   4.111 -0.5113 -0.0636  0.0584
13949SOL    HW159457   0.219   0.533   4.017 -2.2763  0.3065 -0.0000
13949SOL    HW259458   0.234   0.602   4.151  0.3951 -0.2567  0.0532
13950SOL     OW59459   1.616   3.065  11.715  0.0461 -0.3429  0.1431
13950SOL    HW159460   1.599   3.158  11.704 -1.0655 -0.6105 -0.4720
13950SOL    HW259461   1.704   3.052  11.679 -0.3383  0.2258 -1.0209
13951SOL     OW59462  13.883   6.989  12.547  0.4044  0.5353 -0.1076
13951SOL    HW159463  13.937   7.016  12.621 -0.2910 -0.2922  0.7211
13951SOL    HW259464  13.901   7.055  12.479  1.9546  0.6270  0.3601
13952SOL     OW59465   8.341   1.738  11.998  0.5808 -0.2167 -0.1388
13952SOL    HW159466   8.407   1.683  11.956  1.0296  0.1204  0.1102
13952SOL    HW259467   8.382   1.825  12.002  0.0340  0.0474 -0.1852
13953SOL     OW59468  10.367   2.706   6.167  0.1227 -0.3708 -0.2726
13953SOL    HW159469  10.352   2.656   6.087 -1.4192  0.6828 -0.6936
13953SOL    HW259470  10.317   2.660   6.235  0.3953 -0.5611 -0.2017
13954SOL     OW59471   1.790   7.532   9.820 -0.2349  0.6777 -0.0472
13954SOL    HW159472   1.844   7.538   9.741 -1.7049  0.5968 -1.0823
13954SOL    HW259473   1.701   7.547   9.790 -1.2617 -2.4217  1.0388
13955SOL     OW59474  10.291  10.447   3.914 -0.3366 -0.4321  0.1252
13955SOL    HW159475  10.278  10.539   3.893  0.9346 -0.1716  0.3623
13955SOL    HW259476  10.207  10.418   3.949 -0.4400  0.9332  1.0790
13956SOL     OW59477   2.516  12.044   3.519 -0.4543  0.3966 -0.1027
13956SOL    HW159478   2.427  12.009   3.516 -0.0733 -0.5633 -0.8636
13956SOL    HW259479   2.509  12.131   3.479 -0.3929 -1.2813 -4.2797
13957SOL     OW59480   9.623   8.666   2.516  0.0996  0.2481  0.0423
13957SOL    HW159481   9.558   8.673   2.586  2.5242  2.4182  2.2822
13957SOL    HW259482   9.621   8.574   2.490 -1.0434 -0.6286  2.8664
13958SOL     OW59483   0.336   3.286   5.837  0.3877  0.7872  0.1082
13958SOL    HW159484   0.404   3.257   5.897 -0.4277 -0.0463  0.6638
13958SOL    HW259485   0.379   3.295   5.753  1.4868  1.6549  0.7331
13959SOL     OW59486  12.514   8.790  10.773  1.1067 -0.4028  0.2231
13959SOL    HW159487  12.495   8.785  10.679 -0.8963 -0.7016  0.6095
13959SOL    HW259488  12.591   8.734  10.784  0.1930 -1.9603 -0.9424
13960SOL     OW59489   6.838   1.089   1.786 -0.3724  0.4837 -0.3974
13960SOL    HW159490   6.797   1.175   1.779  2.0591  1.8014  0.3339
13960SOL    HW259491   6.881   1.076   1.701  1.0634  1.0438  0.2069
13961SOL     OW59492   0.441   9.986   4.148  0.0675  0.1052  0.1378
13961SOL    HW159493   0.476   9.898   4.134  0.7392  0.2283  1.0010
13961SOL    HW259494   0.413   9.987   4.239 -0.5531  0.5913 -0.0459
13962SOL     OW59495   8.210  13.280  10.454  0.0015  0.4520  0.1360
13962SOL    HW159496   8.146  13.345  10.428 -1.4347  0.2755  2.8456
13962SOL    HW259497   8.172  13.196  10.427  0.8568  0.5279 -1.4457
13963SOL     OW59498  10.175   9.334   5.940  0.0802  0.0080 -0.3341
13963SOL    HW159499  10.243   9.344   6.007 -0.5358 -0.2812  0.3409
13963SOL    HW259500  10.191   9.247   5.903 -1.9397 -1.5508  2.1653
13964SOL     OW59501   1.769   6.095   0.424 -0.3499  0.3242 -0.0813
13964SOL    HW159502   1.754   6.083   0.330 -1.4491  0.0092  0.1193
13964SOL    HW259503   1.721   6.174   0.446  1.6168  1.6222 -0.1527
13965SOL     OW59504   1.333   1.909   5.135 -0.2461 -0.1065 -0.3637
13965SOL    HW159505   1.319   1.827   5.087 -2.5885  0.0968 -0.1631
13965SOL    HW259506   1.296   1.976   5.078  2.5992  1.0420 -1.0074
13966SOL     OW59507  11.255   9.338  12.322  0.0850 -0.2159  0.4986
13966SOL    HW159508  11.168   9.311  12.351  0.3743  0.2748  1.8786
13966SOL    HW259509  11.269   9.422  12.365  1.4028 -0.4794  0.6124
13967SOL     OW59510  13.890   9.015   4.706  0.2075  0.4127  0.1976
13967SOL    HW159511  13.810   8.972   4.677  1.3920 -0.7342 -1.5893
13967SOL    HW259512  13.871   9.109   4.699 -0.7706  0.1535 -0.8871
13968SOL     OW59513   1.637   5.272  11.317 -0.0990  0.3917 -0.4495
13968SOL    HW159514   1.668   5.323  11.242  1.7652  0.1871  0.1282
13968SOL    HW259515   1.680   5.187  11.308 -0.1594  0.2311  0.6299
13969SOL     OW59516   2.633  12.813  10.540 -0.4397  0.0138 -0.1673
13969SOL    HW159517   2.549  12.776  10.569 -1.0611  0.1696 -1.6974
13969SOL    HW259518   2.658  12.760  10.465  0.9885 -0.1884  0.4117
13970SOL     OW59519   3.925   9.601   1.596  0.0387 -0.4868 -0.3084
13970SOL    HW159520   3.946   9.511   1.571 -2.6134 -1.1158 -0.6075
13970SOL    HW259521   3.957   9.610   1.685 -0.2005 -1.9664 -0.0442
13971SOL     OW59522   2.552   2.570  10.865 -0.1697 -0.1813 -0.0691
13971SOL    HW159523   2.643   2.578  10.837  0.1609 -0.6441  0.8176
13971SOL    HW259524   2.543   2.634  10.936 -0.2797 -0.7201  0.4199
13972SOL     OW59525   6.383  10.940   3.313  0.0431  0.4697  0.8860
13972SOL    HW159526   6.321  10.990   3.367 -0.4962 -2.1289  2.8588
13972SOL    HW259527   6.466  10.945   3.362 -0.1160 -0.8353  1.3150
13973SOL     OW59528  12.878   0.141   9.615 -0.2611  0.1776  0.0184
13973SOL    HW159529  12.918   0.068   9.663 -0.9610 -0.2342 -0.0138
13973SOL    HW259530  12.926   0.145   9.533 -0.2489 -0.2800  0.0018
13974SOL     OW59531  11.881  11.863   0.627 -0.5463 -0.2972 -0.7314
13974SOL    HW159532  11.791  11.854   0.657 -0.0540 -2.0064  0.3781
13974SOL    HW259533  11.929  11.897   0.702 -0.2875  0.7816 -1.3697
13975SOL     OW59534   6.005  11.226   7.019 -0.2053  0.7672  0.0658
13975SOL    HW159535   5.947  11.273   7.078 -3.3682  0.6309 -2.6371
13975SOL    HW259536   6.016  11.284   6.944  0.0628 -0.7280 -1.1105
13976SOL     OW59537  10.302   5.703   8.181 -0.2466  0.2040 -0.0369
13976SOL    HW159538  10.375   5.644   8.162  1.0257  0.7192  2.7396
13976SOL    HW259539  10.334   5.790   8.157 -2.2917 -0.0270 -4.5880
13977SOL     OW59540   0.598   5.148  12.490 -0.0148  0.4216  0.1898
13977SOL    HW159541   0.597   5.083  12.421 -1.5990 -0.1342  0.6767
13977SOL    HW259542   0.571   5.101  12.569 -0.5513  1.5147  0.6942
13978SOL     OW59543  13.020   9.784  13.013 -0.8569  0.4226  0.2566
13978SOL    HW159544  13.050   9.852  13.073 -1.9403  1.4561 -0.3380
13978SOL    HW259545  12.925   9.795  13.009 -1.0605 -1.1094  0.1162
13979SOL     OW59546   6.647   2.955   0.401 -0.0815 -0.0805  0.4449
13979SOL    HW159547   6.580   2.964   0.468 -0.7103 -1.7011  0.0794
13979SOL    HW259548   6.730   2.967   0.449 -0.5671  2.9497  0.7194
13980SOL     OW59549   0.932   8.853   7.055 -0.1087  0.7572 -0.0904
13980SOL    HW159550   0.983   8.788   7.103 -1.3140  0.7997  1.3275
13980SOL    HW259551   0.995   8.897   6.998  1.4535  0.9148  1.6897
13981SOL     OW59552  12.851   6.674   2.351 -0.0798  0.3507  0.0093
13981SOL    HW159553  12.922   6.653   2.291  0.9688 -1.6566  1.8079
13981SOL    HW259554  12.772   6.673   2.297  0.9608 -0.0281 -1.5456
13982SOL     OW59555   0.825  13.559  13.128  0.0048  0.3169  0.3510
13982SOL    HW159556   0.854  13.527  13.213 -2.5223  1.7503  1.8477
13982SOL    HW259557   0.906  13.574  13.079  1.4767 -1.5392  2.0875
13983SOL     OW59558   3.293   2.040   2.398 -0.7011 -0.3455 -0.1807
13983SOL    HW159559   3.210   2.009   2.434  0.0694 -0.6046  1.4991
13983SOL    HW259560   3.329   1.965   2.350 -0.8565 -0.6486  0.1750
13984SOL     OW59561   5.172   6.821  13.239 -0.2797  0.2229  0.2235
13984SOL    HW159562   5.140   6.872  13.314  0.1856 -0.1488  0.6856
13984SOL    HW259563   5.243   6.767  13.276 -0.9275 -0.9489 -0.1897
13985SOL     OW59564   2.527   1.916   3.432  0.3705 -0.0086 -0.2740
13985SOL    HW159565   2.534   1.969   3.511 -1.1261 -1.3470  0.8146
13985SOL    HW259566   2.565   1.970   3.363  1.2738  1.3897  1.2575
13986SOL     OW59567   8.491   6.760   8.399 -0.0144  0.8382 -0.0105
13986SOL    HW159568   8.573   6.782   8.354 -0.2402  1.6393 -0.0408
13986SOL    HW259569   8.500   6.667   8.420  1.5260  1.2394  1.2907
13987SOL     OW59570   5.213  14.013   8.180  0.8529  0.4748  0.3082
13987SOL    HW159571   5.255  13.927   8.179 -0.3868 -0.1520 -0.6828
13987SOL    HW259572   5.120  13.994   8.196  0.6768  1.6913  0.8296
13988SOL     OW59573  10.112  12.892   4.099  0.2506 -0.7082 -0.1306
13988SOL    HW159574  10.076  12.958   4.157 -3.7624 -0.7085 -2.3060
13988SOL    HW259575  10.205  12.914   4.092  0.1725  1.3809  3.3220
13989SOL     OW59576   8.317   8.912  13.139  0.1586 -0.2292 -0.2948
13989SOL    HW159577   8.367   8.971  13.083  1.8218  0.8918  2.1647
13989SOL    HW259578   8.377   8.839  13.158 -0.8387 -1.2521 -0.9874
13990SOL     OW59579  10.479   3.960  11.249  0.4862  0.4832  0.3382
13990SOL    HW159580  10.554   3.941  11.305  0.3696 -1.3514 -0.0801
13990SOL    HW259581  10.445   3.874  11.224  1.0137  1.1839 -3.2177
13991SOL     OW59582  12.990  14.036  12.539 -0.3890  0.0836 -0.0834
13991SOL    HW159583  13.041  14.039  12.458  2.9279  0.8477  1.8601
13991SOL    HW259584  12.939  14.117  12.538  1.5899  1.4190 -0.3180
13992SOL     OW59585   4.641   9.355  13.468  0.0882  0.0096  0.4998
13992SOL    HW159586   4.584   9.431  13.479 -0.7862 -0.7690  1.6492
13992SOL    HW259587   4.654   9.346  13.374 -0.8256  0.8330  0.2942
13993SOL     OW59588   1.091   2.344   6.974  0.3480 -0.5625  0.3746
13993SOL    HW159589   1.066   2.269   6.920 -0.1970 -0.0224 -0.1287
13993SOL    HW259590   1.150   2.306   7.041 -0.4416 -1.5507  0.5379
13994SOL     OW59591   0.919  11.034   9.660  0.1437 -0.1505 -0.3170
13994SOL    HW159592   0.954  10.973   9.725 -1.6555 -1.1454 -0.2047
13994SOL    HW259593   0.957  11.005   9.577  1.3635  0.2524  0.0855
13995SOL     OW59594   9.490   4.923   1.308  0.0276 -0.0708 -0.0554
13995SOL    HW159595   9.458   4.902   1.220 -0.0111  2.2199 -0.6483
13995SOL    HW259596   9.580   4.952   1.295 -0.0610  0.5413  0.6283
13996SOL     OW59597  12.218  10.124   0.344 -0.3188  0.0540 -0.7494
13996SOL    HW159598  12.253  10.045   0.302  3.3896 -0.4266  2.6050
13996SOL    HW259599  12.152  10.092   0.405 -1.1431  0.0043 -1.6442
13997SOL     OW59600  13.987   2.769   9.700 -0.0123 -0.1626  0.1573
13997SOL    HW159601  14.053   2.739   9.637  0.4541  0.5550  0.3054
13997SOL    HW259602  13.981   2.697   9.764 -0.8149 -1.1001 -0.9314
13998SOL     OW59603  12.071   1.730  11.496  0.1040 -0.2670 -0.6455
13998SOL    HW159604  12.112   1.646  11.477 -1.1797 -0.7219 -1.6047
13998SOL    HW259605  11.999   1.709  11.556 -0.5185  0.0412 -1.2525
13999SOL     OW59606   7.575   1.423   5.161  0.4694  0.1228  0.0722
13999SOL    HW159607   7.539   1.418   5.073  0.9455  0.8129 -0.1732
13999SOL    HW259608   7.525   1.360   5.212 -1.1319  1.1154 -0.2215
14000SOL     OW59609   4.804   9.644  14.022 -0.4466  0.3751 -0.0883
14000SOL    HW159610   4.859   9.717  14.049  1.3049 -0.5009 -1.1151
14000SOL    HW259611   4.737   9.638  14.090 -1.5452  3.7819 -0.6890
14001SOL     OW59612  11.119   3.564   5.260 -0.6044 -0.2144  0.5542
14001SOL    HW159613  11.026   3.573   5.281 -0.5869 -1.8407  1.4606
14001SOL    HW259614  11.125   3.593   5.169 -1.6399  1.7260  1.0461
14002SOL     OW59615   9.696  13.709   8.819  0.1519  0.6851  0.3130
14002SOL    HW159616   9.676  13.791   8.773 -0.0610  1.2311  1.3336
14002SOL    HW259617   9.714  13.736   8.909  0.9708 -0.3071  0.4690
14003SOL     OW59618   6.080   6.496   4.256 -0.3703  0.0009 -0.1742
14003SOL    HW159619   6.063   6.446   4.176  0.1771 -0.3965 -0.0493
14003SOL    HW259620   6.168   6.469   4.283  0.0122  1.1775 -0.2037
14004SOL     OW59621  11.172  11.346  11.597 -0.6062  0.2391  0.6893
14004SOL    HW159622  11.081  11.364  11.622  0.3797  1.0335  4.2936
14004SOL    HW259623  11.183  11.252  11.615 -0.4528  0.3501  1.1655
14005SOL     OW59624   1.308   6.503   3.117 -0.6605 -0.7215 -0.0754
14005SOL    HW159625   1.360   6.462   3.047 -1.3747 -2.3118  0.2890
14005SOL    HW259626   1.286   6.589   3.082  1.9922 -0.0584 -0.3507
14006SOL     OW59627   1.100  13.278   9.560 -0.5515  0.2805 -0.5239
14006SOL    HW159628   1.112  13.350   9.621 -0.7040 -1.1541  1.2755
14006SOL    HW259629   1.164  13.295   9.490 -0.9399  2.3856 -0.4311
14007SOL     OW59630   6.962   7.555   2.390  0.7305  0.2824  0.7420
14007SOL    HW159631   6.869   7.572   2.375  0.5346 -0.5197  1.0092
14007SOL    HW259632   6.998   7.539   2.303  1.1704  3.0545  0.3051
14008SOL     OW59633   9.041   4.204   6.679  0.0738 -0.0935  0.4192
14008SOL    HW159634   9.021   4.274   6.617  3.6136  0.2648 -0.5413
14008SOL    HW259635   9.021   4.123   6.631 -0.1224  0.2053 -0.0139
14009SOL     OW59636   5.250   3.403   6.578  0.3073  0.5834 -0.2650
14009SOL    HW159637   5.230   3.444   6.494  0.3769 -0.9874 -1.0786
14009SOL    HW259638   5.278   3.314   6.556  0.4200  0.1642  1.4153
14010SOL     OW59639   9.684  10.510   7.834 -0.1899 -0.2320  0.2356
14010SOL    HW159640   9.738  10.492   7.757  0.0840  0.7938  0.1646
14010SOL    HW259641   9.643  10.595   7.815 -0.0059  0.1013  1.2717
14011SOL     OW59642   2.050  11.640   7.875  0.1356  0.3243  0.0420
14011SOL    HW159643   1.978  11.636   7.813  0.4494  1.7972 -0.4723
14011SOL    HW259644   2.013  11.612   7.958 -0.4843 -0.9459 -0.6392
14012SOL     OW59645  12.171   1.863   3.413 -0.1237 -0.4512 -0.2582
14012SOL    HW159646  12.263   1.866   3.388 -0.3124  3.1099 -0.9947
14012SOL    HW259647  12.172   1.874   3.508  0.2570  1.7565 -0.4574
14013SOL     OW59648   2.937  13.862   6.578 -0.7753  0.3200 -0.2538
14013SOL    HW159649   3.018  13.899   6.612 -0.0983 -0.8753 -0.4990
14013SOL    HW259650   2.934  13.890   6.486 -0.9798  0.9126 -0.0663
14014SOL     OW59651   3.368   9.386   9.951  0.1222 -0.7066  0.5336
14014SOL    HW159652   3.355   9.348   9.864 -2.1874 -1.5432  1.1870
14014SOL    HW259653   3.331   9.474   9.945  0.3916 -0.5859  0.5757
14015SOL     OW59654   5.561   5.189   1.118  0.2981  0.4958 -0.0063
14015SOL    HW159655   5.648   5.172   1.154  1.1054  2.8556 -0.6391
14015SOL    HW259656   5.558   5.138   1.037  0.2878 -1.1302  0.9761
14016SOL     OW59657   3.981  13.409   5.324 -0.4161 -0.8167 -0.2015
14016SOL    HW159658   3.951  13.481   5.268  0.8778  0.0800  0.2342
14016SOL    HW259659   3.957  13.435   5.413 -1.6569 -1.8301 -0.2004
14017SOL     OW59660  10.291   6.846   6.772 -1.1652  0.0209 -0.4353
14017SOL    HW159661  10.263   6.770   6.823  0.1066 -0.3073 -0.1856
14017SOL    HW259662  10.243   6.840   6.690 -1.1643 -0.9991 -0.3729
14018SOL     OW59663   4.792   3.151   0.926 -0.1672 -0.3578 -0.1173
14018SOL    HW159664   4.745   3.231   0.951  2.1175  1.1959 -0.4399
14018SOL    HW259665   4.728   3.100   0.875 -2.4763  0.0241  2.1793
14019SOL     OW59666   8.373   7.882   2.595 -0.1990  0.5268 -0.1617
14019SOL    HW159667   8.372   7.866   2.501  0.1302  1.8834 -0.4290
14019SOL    HW259668   8.430   7.814   2.630  1.3836  1.2233 -1.2373
14020SOL     OW59669   8.127   4.179   0.188 -0.4894  0.3907  0.7459
14020SOL    HW159670   8.196   4.114   0.200  1.4786  2.0414 -0.9246
14020SOL    HW259671   8.095   4.197   0.277 -0.9282 -2.5545  1.2970
14021SOL     OW59672   4.535  14.074  14.041 -0.2329 -0.3788  0.1924
14021SOL    HW159673   4.616  14.085  14.091 -0.3665  1.3292  0.0953
14021SOL    HW259674   4.563  14.042  13.956  0.2516 -0.6082  0.4345
14022SOL     OW59675  13.998   3.361   2.800  0.1338  0.5407  0.7465
14022SOL    HW159676  14.067   3.338   2.862 -1.7180 -2.9028  1.8211
14022SOL    HW259677  13.917   3.335   2.843 -1.6070  1.5334 -1.6608
14023SOL     OW59678   4.087   0.919  10.521  0.2953 -0.0073 -0.2213
14023SOL    HW159679   4.023   0.851  10.500  1.0225 -0.2200 -1.9918
14023SOL    HW259680   4.156   0.907  10.455  2.4131 -0.0874  1.8792
14024SOL     OW59681   1.770   7.412   2.772 -0.2167 -0.4943  0.0981
14024SOL    HW159682   1.757   7.342   2.708 -1.1979 -0.2130 -0.0277
14024SOL    HW259683   1.864   7.427   2.772 -0.0218 -1.6292 -0.0686
14025SOL     OW59684  13.710   6.530  10.802  0.4040  0.0524 -0.3083
14025SOL    HW159685  13.670   6.517  10.716  1.4061 -1.3597 -0.6064
14025SOL    HW259686  13.801   6.501  10.790  0.3284 -1.0211  1.4523
14026SOL     OW59687  11.009   6.351  12.539 -0.1723  0.1521 -0.3303
14026SOL    HW159688  10.942   6.376  12.474 -1.2502 -1.0982  0.2539
14026SOL    HW259689  11.092   6.361  12.493 -0.7524  1.6914 -1.1007
14027SOL     OW59690  12.859   0.169  11.788 -0.6101  0.4306  0.1494
14027SOL    HW159691  12.822   0.131  11.868  1.9865 -1.3752  0.5971
14027SOL    HW259692  12.948   0.195  11.813 -0.6518  2.3996 -1.4797
14028SOL     OW59693   2.802  12.010   2.569  0.2336  0.3909  0.1201
14028SOL    HW159694   2.717  12.043   2.539 -1.0118 -0.8949  1.9553
14028SOL    HW259695   2.824  11.940   2.508 -0.3046  0.3821 -0.0735
14029SOL     OW59696  13.767   5.901  10.112  0.0183  0.2088  0.1449
14029SOL    HW159697  13.772   5.806  10.122 -0.7330  0.2660  1.1412
14029SOL    HW259698  13.834   5.935  10.171  0.6966  0.2905 -0.6529
14030SOL     OW59699   0.248   4.280   5.054 -0.3194  0.2837  0.3735
14030SOL    HW159700   0.202   4.228   5.119  1.9392 -0.8152  1.2140
14030SOL    HW259701   0.306   4.217   5.010  1.4231  1.7766  0.4018
14031SOL     OW59702   1.872  10.233  12.816  0.0086  0.0700 -0.0171
14031SOL    HW159703   1.925  10.209  12.740  3.1592  3.3675  0.8425
14031SOL    HW259704   1.933  10.230  12.890 -2.3249 -0.6328  2.0313
14032SOL     OW59705  12.926  11.701   6.529  0.5418  0.1145 -0.1421
14032SOL    HW159706  12.995  11.660   6.581  0.3634  0.3327  0.2789
14032SOL    HW259707  12.933  11.795   6.548  0.1265  0.1383 -0.0813
14033SOL     OW59708   3.992   6.670   5.917 -0.0164 -0.4325 -1.0945
14033SOL    HW159709   3.981   6.655   6.011 -0.0341  0.0815 -1.0132
14033SOL    HW259710   4.078   6.634   5.897  0.2482 -0.0051 -0.7593
14034SOL     OW59711  11.233  12.256   9.056  0.2644  0.2630 -0.2787
14034SOL    HW159712  11.317  12.214   9.078  0.4156  0.3770 -0.6207
14034SOL    HW259713  11.237  12.341   9.098  0.2459  0.1989 -0.1470
14035SOL     OW59714   4.689  10.803  11.358 -0.1645 -0.0836  0.0694
14035SOL    HW159715   4.779  10.772  11.373 -0.1770  0.3775  1.1438
14035SOL    HW259716   4.647  10.731  11.310  0.1750 -1.2215  1.4175
14036SOL     OW59717  13.434   5.800   7.960 -0.3679 -0.1016 -0.3683
14036SOL    HW159718  13.401   5.770   7.875 -1.7632  0.2010  0.0440
14036SOL    HW259719  13.452   5.893   7.948 -0.9487  0.0318 -0.2309
14037SOL     OW59720  11.098   0.501  12.384  0.7651 -0.3574  0.3025
14037SOL    HW159721  11.130   0.529  12.470 -0.1345  2.1165 -0.0911
14037SOL    HW259722  11.177   0.474  12.338  1.4127 -0.6560  1.5227
14038SOL     OW59723   8.620   3.238   9.905  0.0083  0.1077 -0.2333
14038SOL    HW159724   8.711   3.209   9.905 -0.5015 -1.5843  0.2434
14038SOL    HW259725   8.611   3.289   9.986  0.0866 -1.2774  0.6683
14039SOL     OW59726   2.205   8.568   4.491  0.4783 -0.2759  0.3933
14039SOL    HW159727   2.140   8.584   4.423  0.5450 -0.6305  0.2415
14039SOL    HW259728   2.209   8.650   4.541 -0.3438 -0.3775  0.6335
14040SOL     OW59729   6.764   8.776   1.406  0.6692 -0.2661 -0.0311
14040SOL    HW159730   6.837   8.833   1.384  0.6546  0.5135  1.7368
14040SOL    HW259731   6.800   8.687   1.403  1.3282  0.0150 -0.4983
14041SOL     OW59732   8.555   4.632  12.662  0.0284 -0.5842 -0.0434
14041SOL    HW159733   8.592   4.693  12.598 -0.0431 -0.2797  0.2043
14041SOL    HW259734   8.552   4.548  12.616 -0.1572 -0.3363 -0.4869
14042SOL     OW59735  12.197   0.924  11.450  0.0700  0.1688 -0.1120
14042SOL    HW159736  12.261   0.892  11.513 -0.4308 -0.7742 -0.0754
14042SOL    HW259737  12.140   0.849  11.432 -0.4106  0.7089 -0.9139
14043SOL     OW59738  14.074   4.531   0.894 -0.7576  0.4390 -0.1426
14043SOL    HW159739  14.069   4.622   0.865  2.6640  0.5239 -0.9618
14043SOL    HW259740  14.056   4.480   0.815 -1.5800  0.3933  0.0630
14044SOL     OW59741   3.250  13.124   8.452  0.0480 -0.0896  0.3440
14044SOL    HW159742   3.270  13.117   8.359  0.6203  2.1565  0.2414
14044SOL    HW259743   3.321  13.076   8.495  1.9972  2.0004 -0.2996
14045SOL     OW59744  10.643   5.379   7.358  1.0190 -0.5266  0.3625
14045SOL    HW159745  10.577   5.313   7.378 -0.0504  0.5570  0.5020
14045SOL    HW259746  10.645   5.435   7.435  1.2513  0.1397 -0.1227
14046SOL     OW59747   3.348   4.883   5.199  0.0173 -0.1203 -0.1203
14046SOL    HW159748   3.406   4.855   5.270  0.7971  0.9532 -0.3053
14046SOL    HW259749   3.302   4.959   5.234  0.8111  0.7631 -0.9108
14047SOL     OW59750   7.160  12.918   5.518  0.3770  0.2377 -0.1775
14047SOL    HW159751   7.092  12.883   5.576  0.0655  1.1498  0.0185
14047SOL    HW259752   7.125  12.904   5.430  1.3114 -2.1214 -0.2459
14048SOL     OW59753   6.533  13.844   7.101 -0.2861 -0.1767  0.0407
14048SOL    HW159754   6.515  13.909   7.169  3.6530  0.0103  1.1403
14048SOL    HW259755   6.493  13.763   7.135 -0.3338  0.4063  1.4750
14049SOL     OW59756   9.801   7.852   3.322  0.0877 -0.0559 -0.4190
14049SOL    HW159757   9.887   7.892   3.333 -0.0746  0.4255 -0.8799
14049SOL    HW259758   9.755   7.869   3.405  0.3903 -0.2002 -0.2228
14050SOL     OW59759   7.070  13.281  11.439  0.0133 -0.0603 -0.1538
14050SOL    HW159760   6.981  13.297  11.409  0.5152  1.8070 -0.7973
14050SOL    HW259761   7.113  13.237  11.365  0.0864  0.6465 -0.5416
14051SOL     OW59762  10.135   5.599   5.093  0.2369  0.0355  0.0203
14051SOL    HW159763  10.051   5.643   5.082  0.3082  0.0231 -0.6222
14051SOL    HW259764  10.130   5.559   5.180 -0.3867  0.1034  0.0208
14052SOL     OW59765  12.516  13.120   7.303  0.0967 -0.3207  0.7807
14052SOL    HW159766  12.434  13.077   7.330  0.6397 -0.2940  2.6365
14052SOL    HW259767  12.492  13.171   7.226 -1.2339 -1.6574  0.2476
14053SOL     OW59768   1.513   5.954   4.174  0.3397  0.1174  0.5729
14053SOL    HW159769   1.584   6.014   4.152 -0.3254  0.5797 -0.4136
14053SOL    HW259770   1.481   5.985   4.259 -0.5177  1.6946 -0.2822
14054SOL     OW59771   4.523   0.171   8.827  0.0999  0.0563  0.4265
14054SOL    HW159772   4.441   0.158   8.780 -0.1225 -2.2444  1.3183
14054SOL    HW259773   4.534   0.266   8.830 -1.8615  0.3776 -0.8313
14055SOL     OW59774   1.844  13.319   4.515 -0.3989 -0.1961 -0.0624
14055SOL    HW159775   1.788  13.317   4.438 -0.5185 -0.2485  0.0263
14055SOL    HW259776   1.921  13.368   4.487 -0.3014 -0.4879 -0.3101
14056SOL     OW59777  12.617   1.620   8.429  0.1941 -0.1997 -0.0972
14056SOL    HW159778  12.591   1.709   8.405  1.3766  0.0287 -0.6082
14056SOL    HW259779  12.582   1.608   8.517  0.0835  0.8115  0.0096
14057SOL     OW59780  12.932   6.779  10.666  0.8285 -0.5494 -0.1674
14057SOL    HW159781  13.007   6.799  10.610  0.9622 -1.0820 -0.1840
14057SOL    HW259782  12.873   6.853  10.653  1.4171 -0.0442 -0.0341
14058SOL     OW59783   3.509   0.940   9.131 -0.4838  0.7152  0.4873
14058SOL    HW159784   3.583   0.914   9.185 -2.0784 -0.2547  2.3651
14058SOL    HW259785   3.461   1.003   9.184 -0.4904  2.1403 -1.1245
14059SOL     OW59786  10.501   1.849   8.785 -0.0774 -0.6068 -0.5737
14059SOL    HW159787  10.522   1.904   8.861  1.5479 -2.1677  0.1892
14059SOL    HW259788  10.418   1.808   8.808 -0.6486  0.4979 -0.5820
14060SOL     OW59789   4.497   5.806   4.902 -0.5576 -0.5008 -0.2355
14060SOL    HW159790   4.447   5.731   4.870 -0.7770 -0.4489 -0.0159
14060SOL    HW259791   4.459   5.881   4.857  0.0078 -0.5796 -0.8533
14061SOL     OW59792   2.082  12.264   4.214 -0.1531 -0.0917  0.1768
14061SOL    HW159793   2.029  12.239   4.138  1.1396  1.5246 -1.3372
14061SOL    HW259794   2.039  12.342   4.248 -0.0395 -0.1222  0.3904
14062SOL     OW59795   7.925   4.476   9.448 -0.5136  0.3122 -0.1902
14062SOL    HW159796   7.859   4.479   9.379  2.1520  0.8393 -2.9331
14062SOL    HW259797   8.005   4.510   9.407  2.0026 -2.0029  2.3036
14063SOL     OW59798   2.190   4.571   5.298 -0.6528  0.1365 -0.4505
14063SOL    HW159799   2.122   4.608   5.242 -1.4957 -0.6398  0.0425
14063SOL    HW259800   2.252   4.643   5.311 -1.9279  1.1937 -0.0246
14064SOL     OW59801   9.869  13.659   1.466 -0.4187 -0.1577 -0.5239
14064SOL    HW159802   9.803  13.700   1.412  1.2452  1.6144 -1.3148
14064SOL    HW259803   9.854  13.695   1.554 -1.7729 -1.4098 -0.1898
14065SOL     OW59804  12.204  10.226   6.731 -0.3810  0.0947  0.5045
14065SOL    HW159805  12.201  10.304   6.786  0.1132 -0.3786  1.2236
14065SOL    HW259806  12.267  10.247   6.662  0.9441 -0.1997  1.5702
14066SOL     OW59807   5.597  11.190  12.603 -0.5388  0.8528 -0.1208
14066SOL    HW159808   5.532  11.138  12.556  0.2146 -0.4923  0.2758
14066SOL    HW259809   5.553  11.217  12.684 -1.2096  1.5641 -0.7076
14067SOL     OW59810  12.169  11.815   9.006 -0.3383  0.1931  0.9657
14067SOL    HW159811  12.078  11.794   9.028 -0.4964  1.1795  1.2877
14067SOL    HW259812  12.201  11.736   8.961 -1.9759  0.5668 -1.0172
14068SOL     OW59813   9.614   4.776   9.486  0.1927 -0.1122  0.6133
14068SOL    HW159814   9.665   4.720   9.428 -0.8637 -0.8774  0.3763
14068SOL    HW259815   9.663   4.857   9.492  0.3251 -0.0171 -1.3477
14069SOL     OW59816   2.982  10.850   9.325 -0.4806 -0.1563  0.2981
14069SOL    HW159817   3.017  10.808   9.404 -0.4184  0.8974  0.8514
14069SOL    HW259818   2.991  10.944   9.342  0.2074  0.0934 -1.2762
14070SOL     OW59819   1.584   0.507   7.303  0.7222 -0.2012 -0.0504
14070SOL    HW159820   1.498   0.531   7.266  0.9184 -0.7334 -0.8865
14070SOL    HW259821   1.577   0.528   7.396 -0.9047 -1.7882  0.2306
14071SOL     OW59822   7.140   5.816  13.207 -0.0997  0.1304  0.9145
14071SOL    HW159823   7.062   5.869  13.192  0.6216  0.9175 -0.1683
14071SOL    HW259824   7.213   5.873  13.183  0.6457 -1.9825 -2.6292
14072SOL     OW59825   9.886   7.942   0.418  0.4548  0.4968  0.2093
14072SOL    HW159826   9.809   7.969   0.468  0.2003 -0.5351  0.3979
14072SOL    HW259827   9.918   8.023   0.378 -0.6976  0.9466  0.1603
14073SOL     OW59828   9.046   3.433   1.431  0.1865 -0.4293  0.5164
14073SOL    HW159829   8.980   3.373   1.396  0.8180 -1.3294  0.8351
14073SOL    HW259830   9.065   3.493   1.359  0.0036 -0.9990 -0.0120
14074SOL     OW59831   2.533   0.903   1.946  0.1514 -0.4314 -0.0124
14074SOL    HW159832   2.556   0.857   2.027  0.5427 -0.4420 -0.1289
14074SOL    HW259833   2.469   0.969   1.974 -0.1641 -0.8270  0.2080
14075SOL     OW59834   8.126  11.637  12.242 -0.3470  0.0876 -0.2079
14075SOL    HW159835   8.105  11.642  12.149 -0.1888  2.3391 -0.1717
14075SOL    HW259836   8.210  11.592  12.246 -0.3388  0.0078 -1.1373
14076SOL     OW59837   4.118   1.662  11.567  0.3423 -0.1665 -0.2603
14076SOL    HW159838   4.097   1.592  11.628 -0.3145  0.8464  0.7289
14076SOL    HW259839   4.053   1.654  11.497 -0.2795 -0.0315  0.2928
14077SOL     OW59840   6.226  13.817  12.520 -0.5747  0.1321 -0.4959
14077SOL    HW159841   6.250  13.842  12.431 -1.3933 -0.2932 -0.8418
14077SOL    HW259842   6.299  13.763  12.550  0.5586  1.7384 -0.2403
14078SOL     OW59843   3.742  12.749   5.066  0.3157  0.2974 -0.0053
14078SOL    HW159844   3.799  12.802   5.121  1.1626 -0.5200 -0.0721
14078SOL    HW259845   3.704  12.811   5.004  2.2505  0.6759 -0.8917
14079SOL     OW59846  13.635   9.584   6.022 -0.2656  0.1616  0.7282
14079SOL    HW159847  13.610   9.675   6.011 -0.3098  0.4244  2.5688
14079SOL    HW259848  13.605   9.540   5.943 -1.5554  1.4783  0.4488
14080SOL     OW59849   7.641  10.987  12.700 -0.0138  0.0207 -0.2236
14080SOL    HW159850   7.642  11.031  12.785 -0.9154  0.7462 -0.5761
14080SOL    HW259851   7.550  10.960  12.688 -0.3513  1.7221 -1.8619
14081SOL     OW59852   1.358   8.843   0.622 -0.2169  0.0658  0.2599
14081SOL    HW159853   1.427   8.832   0.556 -0.7447  4.3118 -1.3373
14081SOL    HW259854   1.298   8.770   0.606  1.4686 -0.9964 -1.6337
14082SOL     OW59855  12.824   8.334  12.017  0.2099 -0.1970  0.0415
14082SOL    HW159856  12.850   8.244  11.995  0.1135 -0.1653 -0.1917
14082SOL    HW259857  12.818   8.379  11.933  1.1053  0.2600  0.2047
14083SOL     OW59858   1.375   2.412   8.537 -0.1860 -0.2953 -0.2349
14083SOL    HW159859   1.449   2.377   8.585 -0.5232 -0.7552 -0.0485
14083SOL    HW259860   1.325   2.335   8.509 -0.5104  0.0026 -0.4921
14084SOL     OW59861   9.364   0.630   5.177  0.6806 -0.2566  0.0969
14084SOL    HW159862   9.411   0.655   5.097  0.0347  0.3753 -0.1013
14084SOL    HW259863   9.338   0.714   5.216 -0.4834 -0.5945  0.0708
14085SOL     OW59864  11.855  12.583   5.787  0.4684 -0.3597  0.4406
14085SOL    HW159865  11.898  12.655   5.834 -0.6428  0.7376 -0.1564
14085SOL    HW259866  11.814  12.531   5.856 -0.8713  1.0530  0.7787
14086SOL     OW59867   4.610   4.822  12.945 -0.3070  0.2668  0.4138
14086SOL    HW159868   4.598   4.857  13.034  1.0049  1.4519  0.1633
14086SOL    HW259869   4.698   4.850  12.920 -0.8952  0.5638 -1.5272
14087SOL     OW59870   1.568   8.731   9.974 -0.6095  0.2723 -0.1571
14087SOL    HW159871   1.637   8.684  10.020 -0.2000  2.2934  1.4202
14087SOL    HW259872   1.613   8.776   9.903 -0.5052  0.6386  0.1411
14088SOL     OW59873  13.713   6.783  11.803  0.1353  0.0616 -0.0074
14088SOL    HW159874  13.636   6.801  11.749  0.4964  0.4117 -0.4191
14088SOL    HW259875  13.734   6.691  11.786  0.5383  0.3055 -0.8466
14089SOL     OW59876   8.938   3.780  10.422 -0.5292 -0.2446  0.3044
14089SOL    HW159877   8.881   3.724  10.369 -2.3705  1.2037  0.6361
14089SOL    HW259878   8.924   3.751  10.512 -1.0432  0.3211  0.4186
14090SOL     OW59879  13.330   2.795   3.694 -0.0855 -0.3059  0.0555
14090SOL    HW159880  13.333   2.872   3.639  0.1293 -0.8550 -0.7169
14090SOL    HW259881  13.357   2.826   3.781  1.2842  0.2248 -0.5339
14091SOL     OW59882   2.569   9.208  12.646  0.3910 -0.1830 -0.2212
14091SOL    HW159883   2.619   9.273  12.595  2.0023 -1.4458 -0.3236
14091SOL    HW259884   2.498   9.181  12.587 -0.9557  2.1780  0.1949
14092SOL     OW59885   2.761   2.101   0.611 -0.3707  0.7323 -0.2698
14092SOL    HW159886   2.813   2.154   0.671  0.3551  1.0244 -1.1252
14092SOL    HW259887   2.795   2.123   0.524  0.6354 -1.8634 -0.6239
14093SOL     OW59888   2.896   6.224  10.236  0.5760  0.4518  0.2907
14093SOL    HW159889   2.834   6.179  10.180  0.3400  1.9755 -0.7313
14093SOL    HW259890   2.982   6.199  10.202  0.5130 -0.7829  1.0072
14094SOL     OW59891   3.872   5.758  13.585  0.1642 -0.1094 -0.0220
14094SOL    HW159892   3.841   5.726  13.670  2.5082 -0.5207  0.7353
14094SOL    HW259893   3.883   5.678  13.533 -0.4668  0.0749 -0.4488
14095SOL     OW59894   7.888  11.986   1.489  0.5893 -0.0024  0.1406
14095SOL    HW159895   7.892  12.057   1.424  0.8780 -0.3919 -0.2687
14095SOL    HW259896   7.894  12.031   1.573 -0.2375  0.5486 -0.0785
14096SOL     OW59897   2.325   3.864   9.368  0.4798  0.1231 -0.0307
14096SOL    HW159898   2.231   3.878   9.370  0.6563  1.3946  0.5909
14096SOL    HW259899   2.348   3.838   9.457  0.8198  0.6072  0.0272
14097SOL     OW59900   0.241   1.207   2.189  0.0863 -0.0523 -0.5742
14097SOL    HW159901   0.221   1.129   2.240  1.0040  0.0591 -0.0186
14097SOL    HW259902   0.324   1.187   2.146  0.0996  0.4485 -0.7889
14098SOL     OW59903   5.770  11.603  11.548  0.4765  0.5301 -0.7410
14098SOL    HW159904   5.735  11.659  11.617  0.7380  0.9762 -0.9629
14098SOL    HW259905   5.693  11.559  11.510  0.5767 -2.9534  2.5123
14099SOL     OW59906   5.215  11.897   4.137  0.6845 -0.1252  0.7851
14099SOL    HW159907   5.271  11.830   4.176 -0.1655 -1.0122  0.5383
14099SOL    HW259908   5.137  11.849   4.108  0.4844  0.8128 -0.3164
14100SOL     OW59909  10.119   0.732   5.677  0.7392 -0.7169  0.2322
14100SOL    HW159910  10.087   0.645   5.652 -1.0444  0.1112 -0.5001
14100SOL    HW259911  10.155   0.768   5.596 -1.2609  0.3444 -0.2581
14101SOL     OW59912  14.049  11.280   9.257  0.1351  0.3446 -0.6035
14101SOL    HW159913  14.001  11.334   9.319 -0.3932 -0.1391 -0.5844
14101SOL    HW259914  14.140  11.283   9.287  0.3227  2.1208 -1.2418
14102SOL     OW59915  11.957   5.757   0.901  0.8172 -0.1592 -0.3332
14102SOL    HW159916  11.974   5.785   0.811 -0.4471  2.5284  0.1723
14102SOL    HW259917  11.863   5.738   0.903  0.9620 -0.8703  0.2928
14103SOL     OW59918  10.813   7.087   2.360 -0.3036 -0.2747 -0.3192
14103SOL    HW159919  10.760   7.130   2.427 -0.5026 -0.1689 -0.5430
14103SOL    HW259920  10.798   7.139   2.281  2.4230  1.6170  0.2457
14104SOL     OW59921   4.363  12.375   0.272  0.3649 -0.3099 -0.6910
14104SOL    HW159922   4.390  12.350   0.360  0.2390 -0.1729 -0.6141
14104SOL    HW259923   4.439  12.354   0.217  1.0454  1.0609 -0.3190
14105SOL     OW59924   5.157  13.712  12.949 -0.1730 -0.0582 -0.9989
14105SOL    HW159925   5.103  13.690  13.024 -0.4793  0.5675 -1.0232
14105SOL    HW259926   5.125  13.799  12.921  0.5411  0.1219 -1.2874
14106SOL     OW59927   4.336  13.923   3.096 -0.3095 -0.1563 -0.4052
14106SOL    HW159928   4.332  13.828   3.100 -0.1538 -0.2433 -1.8827
14106SOL    HW259929   4.247  13.950   3.074 -0.2133  0.0057 -0.5926
14107SOL     OW59930  12.253   2.054   7.611  0.1867  0.4342  0.0211
14107SOL    HW159931  12.189   2.041   7.681  1.5168 -0.4130  1.1232
14107SOL    HW259932  12.229   1.990   7.544 -1.1659  1.3289 -0.4095
14108SOL     OW59933   1.591   4.790   0.641  0.1984 -0.2681  0.4215
14108SOL    HW159934   1.532   4.756   0.574  0.6186  0.8449 -0.5553
14108SOL    HW259935   1.653   4.719   0.657 -0.9630 -1.1892  0.9495
14109SOL     OW59936   8.068   0.656  13.911  0.6786  0.4088  0.7199
14109SOL    HW159937   8.140   0.678  13.970  0.3810  1.9627  0.5447
14109SOL    HW259938   7.993   0.645  13.969  0.7815  0.0754  0.7910
14110SOL     OW59939   7.588  13.991  11.307  0.3440  0.5552 -0.2096
14110SOL    HW159940   7.599  14.078  11.345  0.9303  1.9312 -3.2160
14110SOL    HW259941   7.666  13.942  11.334 -0.5451  0.4907  2.4753
14111SOL     OW59942   3.172  13.326   4.653  0.1637 -0.3112 -0.3166
14111SOL    HW159943   3.267  13.327   4.650  0.2171  2.3567 -0.6071
14111SOL    HW259944   3.146  13.377   4.575 -1.4505 -0.2684  0.2217
14112SOL     OW59945   9.039   8.431   0.430  0.0879  0.5882 -0.1316
14112SOL    HW159946   9.025   8.337   0.418 -0.3435  0.4918  0.9701
14112SOL    HW259947   9.013   8.470   0.347 -0.2361 -0.2165 -0.4239
14113SOL     OW59948   6.257   2.422   0.261 -0.5276 -0.1139  0.2566
14113SOL    HW159949   6.174   2.434   0.216  0.8795  1.5600 -2.1171
14113SOL    HW259950   6.277   2.508   0.298  2.2036  1.0321 -3.2646
14114SOL     OW59951   9.663   1.092   3.678 -0.1178  0.2078 -0.4683
14114SOL    HW159952   9.740   1.113   3.624 -0.1603 -0.0548 -0.6278
14114SOL    HW259953   9.589   1.129   3.629 -0.0109  1.2405  0.1073
14115SOL     OW59954   5.278   5.495   0.020  0.6585  0.3795  0.5174
14115SOL    HW159955   5.361   5.518  -0.022  0.5199  1.5069  0.8511
14115SOL    HW259956   5.253   5.573   0.069 -0.3206 -0.1493  0.8802
14116SOL     OW59957  13.026   0.869   8.091  0.1066 -0.3742 -0.0319
14116SOL    HW159958  12.979   0.944   8.055  0.4962  0.2448  0.7253
14116SOL    HW259959  13.091   0.847   8.024 -1.0913 -1.1056 -0.9943
14117SOL     OW59960   5.779   8.406  13.871  0.4284  0.1078 -0.0802
14117SOL    HW159961   5.874   8.413  13.864  0.4583  0.6559  0.8199
14117SOL    HW259962   5.752   8.484  13.919 -0.4618 -0.1210 -0.1928
14118SOL     OW59963   7.759  10.637   2.973  0.6332  0.6853  0.2518
14118SOL    HW159964   7.684  10.696   2.977  1.0016  1.1349  0.8113
14118SOL    HW259965   7.723  10.550   2.990 -0.1128  0.5318 -1.7951
14119SOL     OW59966   3.066   1.888   2.495  0.0543  0.3308  0.2329
14119SOL    HW159967   2.975   1.874   2.467  0.4233  0.7815 -1.3090
14119SOL    HW259968   3.112   1.810   2.464  0.2107  0.1154  0.9915
14120SOL     OW59969   7.867   3.599   5.503  0.3472  0.0067  0.0699
14120SOL    HW159970   7.794   3.604   5.564  0.7045  0.6833  0.4530
14120SOL    HW259971   7.864   3.510   5.469 -0.8841  0.1349 -0.2134
14121SOL     OW59972  12.848  13.124  10.651 -0.7288 -0.0464 -0.0059
14121SOL    HW159973  12.845  13.060  10.722  2.4633 -0.7884 -0.3961
14121SOL    HW259974  12.823  13.075  10.572 -0.2732 -0.2717 -0.0073
14122SOL     OW59975  10.060  11.357   6.004 -0.9465  0.2371 -0.4734
14122SOL    HW159976  10.023  11.272   6.027 -0.7007  1.0402  3.9082
14122SOL    HW259977   9.986  11.406   5.967 -1.8884 -0.9360 -0.1893
14123SOL     OW59978  12.010   0.705  11.438 -0.3386 -0.1483  0.1612
14123SOL    HW159979  11.939   0.676  11.496  0.5307 -1.6974  0.4937
14123SOL    HW259980  11.983   0.674  11.352 -0.6098  0.2827  0.0878
14124SOL     OW59981   1.544   2.127   1.328  0.2453 -0.2025  0.7194
14124SOL    HW159982   1.571   2.148   1.238 -0.3792  0.1580  0.6085
14124SOL    HW259983   1.626   2.112   1.375  0.7369  1.9324  0.6682
14125SOL     OW59984   9.760   3.353   1.105 -0.2941 -0.5442  0.8339
14125SOL    HW159985   9.690   3.297   1.071 -1.5676  0.8377  1.1188
14125SOL    HW259986   9.840   3.305   1.084 -1.1979 -1.2925 -1.1797
14126SOL     OW59987   9.388  11.550  13.249  0.0635  0.2112 -0.6225
14126SOL    HW159988   9.431  11.619  13.301 -0.1365  0.3210 -0.5997
14126SOL    HW259989   9.416  11.468  13.290  0.0079  0.2927 -0.4203
14127SOL     OW59990   1.530   5.811   7.337  0.1883 -0.1550  0.2462
14127SOL    HW159991   1.578   5.739   7.296  1.3659 -0.3833  1.9409
14127SOL    HW259992   1.552   5.887   7.283  1.8886 -0.3970  0.5329
14128SOL     OW59993   0.772   5.972  11.241 -0.0621 -0.3343 -0.6043
14128SOL    HW159994   0.777   5.924  11.158 -2.8916 -1.1875 -0.3973
14128SOL    HW259995   0.788   6.063  11.218  3.3434 -0.9576 -1.3411
14129SOL     OW59996   9.082   5.968   2.901 -0.5031  0.2363  0.5060
14129SOL    HW159997   9.129   5.921   2.833  1.0425  0.9072  1.0773
14129SOL    HW259998   8.989   5.955   2.879 -0.0908 -1.4325 -0.4250
14130SOL     OW59999   7.339   1.422  11.973  0.2421 -0.6114 -0.0290
14130SOL    HW160000   7.358   1.509  11.938 -0.9451 -0.4110 -0.2203
14130SOL    HW260001   7.325   1.437  12.067  0.2777 -0.6370 -0.0201
14131SOL     OW60002   2.074   9.528   9.251 -0.2426  0.6678  0.3366
14131SOL    HW160003   2.074   9.617   9.218 -3.0422  1.0165  1.0269
14131SOL    HW260004   2.114   9.534   9.338 -0.6867  1.3272  0.5001
14132SOL     OW60005   9.244   0.289   7.551 -0.5101 -0.6750 -0.0437
14132SOL    HW160006   9.210   0.205   7.519  1.7691 -1.5495 -0.3997
14132SOL    HW260007   9.209   0.354   7.491  1.0060 -1.9164 -2.4402
14133SOL     OW60008  13.873   5.215  13.339  0.7092  0.3641  0.2246
14133SOL    HW160009  13.884   5.234  13.432  1.0044  0.1857  0.2282
14133SOL    HW260010  13.798   5.156  13.335 -0.9202  2.3003  0.1274
14134SOL     OW60011   6.908   0.599   8.861 -0.2450  0.2383  0.1395
14134SOL    HW160012   6.962   0.581   8.938  2.2573  2.0123 -1.0625
14134SOL    HW260013   6.900   0.694   8.858 -1.2372  0.1487 -1.1983
14135SOL     OW60014  11.734  13.655   8.689 -0.4541 -0.3043  0.1310
14135SOL    HW160015  11.674  13.582   8.705  0.7087 -1.2579  0.2938
14135SOL    HW260016  11.803  13.643   8.754  0.2934  0.3375 -0.5377
14136SOL     OW60017   7.868  11.556  12.099  0.0828  0.0657 -0.0220
14136SOL    HW160018   7.927  11.511  12.039  0.7180  0.4817  0.2875
14136SOL    HW260019   7.910  11.549  12.184  0.3400  1.4833 -0.0108
14137SOL     OW60020   6.028   1.121  13.623  0.5860  0.0974 -0.0206
14137SOL    HW160021   5.932   1.133  13.623  0.5267 -0.3789 -0.0686
14137SOL    HW260022   6.044   1.051  13.685  0.7092 -1.2843 -1.5310
14138SOL     OW60023   1.152  12.392   6.580 -0.0544  0.3124  0.6369
14138SOL    HW160024   1.151  12.311   6.630 -1.4125  0.5905  1.0784
14138SOL    HW260025   1.244  12.420   6.582  0.5371 -1.4547  0.0450
14139SOL     OW60026   2.111  10.488  12.859  0.1042 -0.0284 -0.2912
14139SOL    HW160027   2.115  10.580  12.884 -0.0854  0.4672 -1.9623
14139SOL    HW260028   2.021  10.475  12.829  0.2889 -0.5990 -0.6155
14140SOL     OW60029   4.510   4.817   7.335  0.0128 -0.3059 -0.1821
14140SOL    HW160030   4.423   4.817   7.374  0.6916 -0.4601  1.4305
14140SOL    HW260031   4.517   4.732   7.292 -1.2136  0.3647 -1.8106
14141SOL     OW60032   1.294   5.066   0.977  0.2330  0.4475  0.4456
14141SOL    HW160033   1.291   5.007   0.902 -1.5648  1.2133 -0.1321
14141SOL    HW260034   1.388   5.081   0.992  0.6809 -1.2641 -0.3711
14142SOL     OW60035  12.102   9.575   7.733 -0.0311  0.4159 -0.1791
14142SOL    HW160036  12.098   9.663   7.771  0.7364 -0.0503  1.0252
14142SOL    HW260037  12.175   9.579   7.671  1.5533  0.0373  1.5651
14143SOL     OW60038   0.064   1.212   0.005  0.2729  0.3405 -0.8282
14143SOL    HW160039   0.159   1.210   0.005  0.2702  0.0040 -0.2861
14143SOL    HW260040   0.038   1.156  -0.068  0.4911  0.5056 -1.0312
14144SOL     OW60041   0.817   1.287   9.427  0.2758  0.3175  0.0403
14144SOL    HW160042   0.780   1.199   9.422  0.5436  0.2469 -0.8146
14144SOL    HW260043   0.866   1.297   9.345  0.8679  0.9803  0.4654
14145SOL     OW60044   3.375   9.407   1.776  0.1382  0.1255  0.2146
14145SOL    HW160045   3.384   9.321   1.818 -0.6120 -1.0596 -1.8766
14145SOL    HW260046   3.317   9.456   1.834  2.3107  0.0907  2.5883
14146SOL     OW60047   1.323   6.593  11.861  0.1725  0.3969  0.1769
14146SOL    HW160048   1.385   6.522  11.880 -1.0853 -1.1004 -0.9843
14146SOL    HW260049   1.326   6.603  11.766 -1.3500  0.2661  0.0849
14147SOL     OW60050  10.178  12.091  10.585 -0.6421  0.0197  0.4783
14147SOL    HW160051  10.219  12.036  10.651  0.2756 -1.4549 -1.2416
14147SOL    HW260052  10.237  12.086  10.509 -2.1027  0.9151 -0.7812
14148SOL     OW60053  10.174   1.024   1.651 -0.0169  0.5755 -0.4371
14148SOL    HW160054  10.236   0.983   1.591 -0.9800  0.7458 -1.5880
14148SOL    HW260055  10.091   1.026   1.602 -1.4509 -1.3210  1.7142
14149SOL     OW60056  11.704   4.572   3.861  0.4459  0.2872 -0.2017
14149SOL    HW160057  11.752   4.528   3.931  1.9083  2.5086  0.2917
14149SOL    HW260058  11.612   4.560   3.884  0.8719  0.3543  1.7188
14150SOL     OW60059   3.052   5.724   3.897 -0.1361  0.1952 -0.7408
14150SOL    HW160060   2.982   5.744   3.834 -1.0367  1.9556  0.7133
14150SOL    HW260061   3.131   5.758   3.857 -0.4231 -0.0803 -1.5677
14151SOL     OW60062   8.115   9.137  13.741 -1.1056  0.1258  0.2337
14151SOL    HW160063   8.125   9.129  13.646 -0.3679  1.1841  0.1974
14151SOL    HW260064   8.045   9.076  13.763 -1.0380 -0.4042 -0.9392
14152SOL     OW60065   6.392   5.347   9.579 -0.5846  0.3508 -0.1375
14152SOL    HW160066   6.370   5.308   9.663 -1.3690  1.5276  0.2248
14152SOL    HW260067   6.366   5.280   9.514  0.9339 -0.9704  0.5474
14153SOL     OW60068   7.473   9.231   0.158 -0.0844  0.3454 -0.1577
14153SOL    HW160069   7.501   9.253   0.247  1.9543 -1.7018 -0.2018
14153SOL    HW260070   7.537   9.275   0.102 -1.3738  1.6432 -0.6868
14154SOL     OW60071   7.879   3.618   9.170  0.6565 -0.0720  0.1325
14154SOL    HW160072   7.881   3.653   9.260  0.2123  0.2851  0.0033
14154SOL    HW260073   7.884   3.523   9.182 -1.3096 -0.1460  0.6234
14155SOL     OW60074  10.965   2.330  10.846  0.1582  0.4741 -0.0836
14155SOL    HW160075  11.060   2.337  10.851  0.0965  1.5233 -0.1453
14155SOL    HW260076  10.937   2.307  10.935  0.4164  0.8197  0.0862
14156SOL     OW60077   8.229   4.044  12.189  0.4378  0.3176 -0.4574
14156SOL    HW160078   8.294   3.979  12.215 -1.2011 -1.8134 -1.3941
14156SOL    HW260079   8.189   4.073  12.271  0.8692 -0.1808 -0.0665
14157SOL     OW60080  13.154  11.977   7.864 -0.8078  0.1528 -0.1768
14157SOL    HW160081  13.060  11.991   7.850 -0.7541  1.3347  0.4765
14157SOL    HW260082  13.160  11.943   7.953 -0.6265 -0.0505 -0.2657
14158SOL     OW60083   5.393   2.470   5.349 -0.0115  0.8126 -0.1795
14158SOL    HW160084   5.447   2.495   5.275 -1.7749  0.4843 -1.6558
14158SOL    HW260085   5.429   2.386   5.378 -0.4205 -0.0095 -1.9172
14159SOL     OW60086  11.589   0.824   5.052 -0.2929 -0.2266 -0.0508
14159SOL    HW160087  11.614   0.772   4.975 -1.1120 -0.3160 -0.2612
14159SOL    HW260088  11.659   0.888   5.060  0.5205 -1.0843 -0.0409
14160SOL     OW60089   6.663   8.160   1.119  0.4678  0.0680  0.2354
14160SOL    HW160090   6.734   8.125   1.065  0.9473  0.5246  0.5691
14160SOL    HW260091   6.706   8.197   1.196 -0.1086  0.5617  0.3304
14161SOL     OW60092   1.181   8.540   1.175 -0.8889  0.7293  0.0227
14161SOL    HW160093   1.227   8.600   1.233 -1.0485  1.9283 -1.0353
14161SOL    HW260094   1.250   8.494   1.128 -0.7460  1.1252 -0.1676
14162SOL     OW60095  11.024  11.274   2.164  0.2981 -0.0954  0.2367
14162SOL    HW160096  10.959  11.324   2.214  0.9624 -0.3627  1.4235
14162SOL    HW260097  11.037  11.194   2.216  1.0939 -0.3375 -0.3154
14163SOL     OW60098   1.098   3.391  11.197  0.0890 -0.6174 -0.5408
14163SOL    HW160099   1.098   3.378  11.292  1.0005  0.5026 -0.3635
14163SOL    HW260100   1.119   3.484  11.186 -3.1104  0.1089 -1.7554
14164SOL     OW60101  12.369   5.979   6.521 -0.0298  0.4377 -0.1257
14164SOL    HW160102  12.392   5.893   6.489  0.7807  0.2183  1.0019
14164SOL    HW260103  12.330   5.963   6.607  2.1904  1.3173  1.1161
14165SOL     OW60104  10.355  13.269   1.817  0.5548 -0.5130 -0.1501
14165SOL    HW160105  10.285  13.251   1.881 -1.7822  0.0457 -2.3918
14165SOL    HW260106  10.311  13.266   1.732  3.5132 -1.1071 -1.7836
14166SOL     OW60107  12.750   5.925   8.852  0.3030  0.5139 -0.0916
14166SOL    HW160108  12.665   5.929   8.894 -0.1594 -1.0570 -0.8015
14166SOL    HW260109  12.802   5.867   8.909 -0.1522 -1.1637 -1.2902
14167SOL     OW60110  13.708   4.833   7.110  1.0393  0.6195 -0.6797
14167SOL    HW160111  13.616   4.815   7.091  0.1779  2.6294  1.1081
14167SOL    HW260112  13.739   4.881   7.033 -0.6695  3.5023  0.2483
14168SOL     OW60113   3.648  12.472   1.899 -0.0708  0.1437  0.2135
14168SOL    HW160114   3.707  12.537   1.861 -0.7446  2.3109  2.5794
14168SOL    HW260115   3.574  12.468   1.840  1.3287 -0.9055 -1.5917
14169SOL     OW60116  10.552  10.586   9.067 -0.2154 -0.7563  0.6467
14169SOL    HW160117  10.564  10.492   9.083  1.1041 -0.4674  1.4794
14169SOL    HW260118  10.631  10.613   9.020 -1.2492 -0.3257 -0.9179
14170SOL     OW60119   2.378  11.485   1.358 -0.5350  0.0150 -0.8745
14170SOL    HW160120   2.303  11.528   1.316 -1.1325 -1.4047 -1.3484
14170SOL    HW260121   2.420  11.554   1.409 -2.3429  0.8142 -0.3595
14171SOL     OW60122   3.962  12.526   1.480 -0.7988  0.1700  0.2957
14171SOL    HW160123   3.973  12.576   1.399  1.1162  0.7404  0.8695
14171SOL    HW260124   3.966  12.435   1.453  0.2306  0.3580 -0.2193
14172SOL     OW60125   0.743   4.941   3.061 -0.0741  0.2936 -0.4782
14172SOL    HW160126   0.837   4.923   3.060 -0.1373 -0.0446 -0.6258
14172SOL    HW260127   0.720   4.951   2.968 -0.1856  0.3760 -0.4419
14173SOL     OW60128   6.127  12.641   4.204  0.2449 -0.3298 -0.0901
14173SOL    HW160129   6.202  12.697   4.222  0.3018 -0.4447  0.0293
14173SOL    HW260130   6.084  12.682   4.129 -0.4489  0.6116  0.7865
14174SOL     OW60131  12.171   8.119   9.950  0.5970 -0.4186 -0.6524
14174SOL    HW160132  12.136   8.184   9.889  1.5593  0.9573  0.2134
14174SOL    HW260133  12.150   8.154  10.037  1.9204 -0.8119 -0.1576
14175SOL     OW60134  12.406   3.455   0.018  0.1653 -0.3228 -0.2773
14175SOL    HW160135  12.490   3.478  -0.022 -0.6307  4.2158  0.0262
14175SOL    HW260136  12.346   3.447  -0.056  0.3608 -1.0037 -0.3684
14176SOL     OW60137   6.148  13.243   4.531  0.2487 -0.3832 -0.0393
14176SOL    HW160138   6.129  13.150   4.518  1.1907 -0.4663 -0.9525
14176SOL    HW260139   6.241  13.247   4.551  1.1413  0.5660 -3.5872
14177SOL     OW60140   5.286  12.444   9.670  0.5190  0.0785  0.0158
14177SOL    HW160141   5.262  12.359   9.633  0.7325  0.2617 -0.5655
14177SOL    HW260142   5.259  12.440   9.761 -1.3631  0.1173 -0.4899
14178SOL     OW60143   9.868   2.730  10.683 -0.3649 -0.1095 -0.0519
14178SOL    HW160144   9.842   2.701  10.595 -0.3665 -1.7123  0.4461
14178SOL    HW260145   9.878   2.825  10.675  1.0359 -0.3737 -2.1409
14179SOL     OW60146   1.193   8.204  13.771 -0.0364 -0.3853  0.2744
14179SOL    HW160147   1.205   8.214  13.677 -0.5805 -0.2968  0.2101
14179SOL    HW260148   1.260   8.261  13.810 -0.0492 -0.1347 -0.0642
14180SOL     OW60149  11.621   4.349   2.356 -0.3895 -0.3745  0.1461
14180SOL    HW160150  11.662   4.418   2.408 -0.3727 -0.4541  0.2398
14180SOL    HW260151  11.666   4.352   2.272 -0.0064 -0.6329  0.3351
14181SOL     OW60152   6.879  12.582   1.349 -0.1466 -0.1146 -0.7086
14181SOL    HW160153   6.810  12.614   1.291 -0.7760 -1.7922 -0.9593
14181SOL    HW260154   6.960  12.615   1.311 -0.6808  0.2466 -1.5623
14182SOL     OW60155   7.128  11.539   7.170  0.3788  0.2815 -0.0620
14182SOL    HW160156   7.041  11.538   7.212 -0.5121  2.2252 -1.7068
14182SOL    HW260157   7.130  11.621   7.121  2.7109 -0.2877 -1.0361
14183SOL     OW60158   4.188   2.742   9.367  0.5167 -0.2944  0.1522
14183SOL    HW160159   4.247   2.669   9.386 -0.0826 -0.5040  1.3423
14183SOL    HW260160   4.106   2.700   9.342  0.2115 -0.0470  0.7071
14184SOL     OW60161  12.738   2.756  13.310 -0.6679 -0.2705 -0.3250
14184SOL    HW160162  12.648   2.786  13.296 -0.4374 -0.2318 -1.9149
14184SOL    HW260163  12.787   2.792  13.236  0.8250  0.3231  0.9068
14185SOL     OW60164   5.467   1.274   3.857 -0.4260 -0.1962  0.4553
14185SOL    HW160165   5.481   1.259   3.951 -0.1257  1.8756  0.7910
14185SOL    HW260166   5.373   1.261   3.845 -0.5037 -0.2895  1.0975
14186SOL     OW60167   0.362   4.487  10.678  0.4938 -0.4839  0.2222
14186SOL    HW160168   0.332   4.399  10.657  3.4977 -2.1809  2.2738
14186SOL    HW260169   0.365   4.488  10.774  2.3568  1.1290  0.2007
14187SOL     OW60170   6.848   2.198   1.984 -0.0714  0.0544 -0.4145
14187SOL    HW160171   6.758   2.211   2.013 -0.5884 -1.5648 -1.1895
14187SOL    HW260172   6.887   2.140   2.049 -0.3128 -1.1206 -1.2929
14188SOL     OW60173  10.440   5.655   5.490 -0.0926 -0.4632 -0.4568
14188SOL    HW160174  10.497   5.721   5.531  0.4024 -0.4030 -1.2164
14188SOL    HW260175  10.492   5.575   5.493 -0.3731 -0.6406 -0.2691
14189SOL     OW60176  12.744   6.430   1.863 -0.2293 -0.0584 -0.0362
14189SOL    HW160177  12.787   6.513   1.845 -1.0981  0.6680  1.0644
14189SOL    HW260178  12.815   6.369   1.880  0.4947  0.0244 -2.3826
14190SOL     OW60179  13.291  12.023   5.153  0.1178 -0.1391 -0.2372
14190SOL    HW160180  13.241  12.101   5.173 -2.0412 -0.8390 -2.4667
14190SOL    HW260181  13.323  12.037   5.063  0.6002 -1.3474 -0.2757
14191SOL     OW60182   1.369   7.221   2.685 -0.3394 -0.7798 -0.4347
14191SOL    HW160183   1.411   7.285   2.627 -0.3537 -2.2030 -2.0808
14191SOL    HW260184   1.323   7.275   2.749  1.8149  0.8519 -0.1160
14192SOL     OW60185   2.345  11.541   6.928  0.6211 -0.3278  0.0863
14192SOL    HW160186   2.361  11.554   6.835 -0.4668  0.9073  0.0352
14192SOL    HW260187   2.348  11.630   6.965 -1.2387 -0.5319  0.8156
14193SOL     OW60188   1.719   4.836   5.924 -0.0492 -0.4594 -0.2004
14193SOL    HW160189   1.658   4.878   5.985  1.0879  2.0401 -0.6756
14193SOL    HW260190   1.802   4.834   5.970  0.6861  0.9250 -1.3790
14194SOL     OW60191   7.848  14.091   2.594 -0.2458 -0.0006 -0.1363
14194SOL    HW160192   7.894  14.053   2.520  1.5480  1.0653  0.3711
14194SOL    HW260193   7.886  14.048   2.671 -2.3488 -1.3781  0.2178
14195SOL     OW60194  12.942   4.125   6.981 -0.7907  0.2015  0.1552
14195SOL    HW160195  12.902   4.112   7.067  0.6720 -0.9667  0.7052
14195SOL    HW260196  12.961   4.037   6.949  1.5103  0.6783  0.0521
14196SOL     OW60197   6.754   3.480  13.386  0.7384 -0.5458  0.0226
14196SOL    HW160198   6.809   3.525  13.322 -0.4632  0.6252 -0.2503
14196SOL    HW260199   6.672   3.531  13.386  0.3684 -1.0798  1.7900
14197SOL     OW60200   7.451   8.633   0.308  0.1423 -0.5228 -0.1321
14197SOL    HW160201   7.464   8.693   0.381 -0.1063  0.3434 -0.7751
14197SOL    HW260202   7.424   8.690   0.235 -1.5076 -1.5542 -0.3897
14198SOL     OW60203   0.120   4.699  12.541  0.1845 -0.1853 -0.1291
14198SOL    HW160204   0.196   4.640  12.546  1.7211  1.7806  0.9097
14198SOL    HW260205   0.149   4.771  12.486 -0.4211  1.2337  1.3168
14199SOL     OW60206  12.896  13.571  12.019  0.2285 -0.5997  0.0468
14199SOL    HW160207  12.983  13.593  11.987 -1.0234  0.4384 -3.0416
14199SOL    HW260208  12.870  13.495  11.966 -0.7646 -0.8765  0.8966
14200SOL     OW60209  12.958   4.324  13.862  0.0350  0.1179 -0.1542
14200SOL    HW160210  12.868   4.313  13.832 -0.2592  1.0902  0.3133
14200SOL    HW260211  13.001   4.241  13.842 -0.6232  0.0937 -1.5429
14201SOL     OW60212  13.522   8.623  11.490  0.1128 -0.7422 -0.5011
14201SOL    HW160213  13.479   8.705  11.466 -1.9743 -2.0148 -1.3655
14201SOL    HW260214  13.479   8.557  11.436  0.4600 -2.6768  1.4822
14202SOL     OW60215   9.675  10.999   6.329  0.1960  0.0339  0.1737
14202SOL    HW160216   9.685  10.960   6.416 -0.7178 -1.9841 -0.5540
14202SOL    HW260217   9.752  10.968   6.280  1.1225  1.8071  0.4358
14203SOL     OW60218   8.633   3.742   4.346 -0.1915 -0.3544  0.2074
14203SOL    HW160219   8.670   3.699   4.269  0.6414 -0.3926  0.6131
14203SOL    HW260220   8.567   3.801   4.311 -0.2151 -0.7898 -0.4886
14204SOL     OW60221   6.469  11.220   6.214  0.1565 -0.8102  0.0629
14204SOL    HW160222   6.380  11.248   6.193 -0.0834  0.5621  2.5260
14204SOL    HW260223   6.519  11.301   6.222  1.4522 -1.5220 -0.4412
14205SOL     OW60224   4.327  13.278  13.894  0.0254 -0.5807 -0.3187
14205SOL    HW160225   4.419  13.268  13.872 -0.1081 -1.6043 -0.4843
14205SOL    HW260226   4.281  13.270  13.810 -0.2981 -1.5672 -0.0602
14206SOL     OW60227   6.182  13.504   5.977 -0.7288 -0.3959  0.1667
14206SOL    HW160228   6.162  13.412   5.996 -1.3474 -0.4915 -0.8721
14206SOL    HW260229   6.278  13.507   5.972 -0.7176 -1.0947 -0.2542
14207SOL     OW60230   4.036   3.118  13.487  0.1622 -0.1136 -0.7615
14207SOL    HW160231   3.945   3.130  13.511  0.7371  1.6297  0.8008
14207SOL    HW260232   4.048   3.172  13.409 -0.0862 -0.2485 -0.8966
14208SOL     OW60233   7.667   0.867  12.589 -0.0078 -0.0644 -0.1249
14208SOL    HW160234   7.650   0.835  12.677 -1.4368  1.3202  0.1465
14208SOL    HW260235   7.591   0.840  12.537  0.4119 -0.1331 -0.7181
14209SOL     OW60236   0.029   4.685   6.951  0.6351 -0.1004 -0.5639
14209SOL    HW160237   0.115   4.684   6.994  0.5010  2.5921 -0.1081
14209SOL    HW260238  -0.030   4.647   7.016  1.2581 -0.9697 -0.4702
14210SOL     OW60239   4.360  11.375  13.274 -0.1151 -0.1666  0.0839
14210SOL    HW160240   4.300  11.426  13.220 -0.9497  0.6901  1.7454
14210SOL    HW260241   4.317  11.290  13.283 -0.9649  0.3365  0.9982
14211SOL     OW60242   5.490   6.303  13.605  0.4879  0.3095  0.3581
14211SOL    HW160243   5.408   6.254  13.595  0.3769  0.7936 -1.5846
14211SOL    HW260244   5.534   6.293  13.521  2.7167 -0.3807  1.5464
14212SOL     OW60245   6.466  13.888   1.631 -0.5570  0.0976 -0.5733
14212SOL    HW160246   6.506  13.846   1.555 -0.9898 -2.8210  0.6619
14212SOL    HW260247   6.523  13.961   1.652  2.2109 -1.8150 -0.9455
14213SOL     OW60248   7.210   3.628   5.911  0.3685  0.3151  0.4047
14213SOL    HW160249   7.298   3.623   5.874  0.2393  2.6613 -0.3844
14213SOL    HW260250   7.158   3.570   5.856  0.5370  2.4264 -2.1787
14214SOL     OW60251   0.244   2.095   6.269 -0.1051  0.1344  0.4815
14214SOL    HW160252   0.312   2.104   6.336 -0.8009  0.0897  1.2047
14214SOL    HW260253   0.173   2.152   6.299 -1.4165 -1.7397  1.0622
14215SOL     OW60254   0.991   3.105  12.157 -0.2991  0.5972  0.7079
14215SOL    HW160255   1.018   3.130  12.069  0.8693 -0.0346  0.8715
14215SOL    HW260256   0.906   3.064  12.145 -0.4113  1.0288 -0.0518
14216SOL     OW60257   8.933   4.683  11.116 -0.3224  0.3485  0.5018
14216SOL    HW160258   8.935   4.636  11.033  3.9909 -2.1287  1.7058
14216SOL    HW260259   8.849   4.659  11.155 -1.1112 -0.9278 -1.8034
14217SOL     OW60260   3.866   9.004   2.907  0.3835 -0.2007  0.5025
14217SOL    HW160261   3.818   8.937   2.956  0.1796  0.9685  1.9724
14217SOL    HW260262   3.957   8.991   2.932  0.2316  0.6571  1.5533
14218SOL     OW60263  13.286   6.062   8.592  0.1556  0.1634 -0.4608
14218SOL    HW160264  13.345   6.072   8.666  0.7578  2.5497 -1.1921
14218SOL    HW260265  13.200   6.046   8.632  0.3480  2.0377  0.8221
14219SOL     OW60266   5.444  10.926   1.847 -0.0848 -0.7819 -0.3475
14219SOL    HW160267   5.400  11.005   1.814 -1.4879 -1.3515  0.0856
14219SOL    HW260268   5.492  10.956   1.924  1.3775  0.1042 -1.5516
14220SOL     OW60269  13.679   7.866   4.653 -0.4007  0.2970  0.3148
14220SOL    HW160270  13.694   7.957   4.681 -0.9507 -0.0032  1.6749
14220SOL    HW260271  13.767   7.829   4.644 -0.0325  1.6350 -2.8122
14221SOL     OW60272   5.492  13.494  11.742  0.4512 -0.5063 -0.6484
14221SOL    HW160273   5.496  13.415  11.689  0.7746 -0.5213 -0.5995
14221SOL    HW260274   5.495  13.566  11.678 -0.6291 -0.5306 -0.7508
14222SOL     OW60275   1.199   1.215   4.383 -0.0151 -0.4899 -0.2467
14222SOL    HW160276   1.281   1.258   4.406 -0.0728 -0.7276  0.4493
14222SOL    HW260277   1.207   1.127   4.421 -1.4016  0.1408  1.6752
14223SOL     OW60278   5.677   5.910   1.608 -0.5975  0.2749  0.2430
14223SOL    HW160279   5.682   5.991   1.557 -1.9867 -0.1882 -0.6850
14223SOL    HW260280   5.652   5.939   1.696  0.2883  0.9459  0.2940
14224SOL     OW60281   4.054  13.413  10.879 -0.2996 -0.1759  0.4518
14224SOL    HW160282   4.112  13.367  10.819 -2.0307 -1.0000 -0.6723
14224SOL    HW260283   4.112  13.453  10.943  1.4256 -2.0336  0.1466
14225SOL     OW60284  11.816   1.362   6.838 -0.6539 -0.4751 -0.2532
14225SOL    HW160285  11.773   1.406   6.911  0.0436 -0.7131  0.3149
14225SOL    HW260286  11.752   1.365   6.767 -0.8164  1.0016 -0.0818
14226SOL     OW60287  11.418   5.812   5.594  0.2316 -0.1139 -1.1602
14226SOL    HW160288  11.382   5.807   5.505 -0.9932 -0.3891 -0.6621
14226SOL    HW260289  11.395   5.729   5.635  0.5518  0.1180 -0.4883
14227SOL     OW60290   5.714  12.905   7.559  0.1059 -0.3489 -0.2329
14227SOL    HW160291   5.775  12.932   7.627  0.2874 -0.9678 -0.1454
14227SOL    HW260292   5.766  12.850   7.500 -0.3055 -0.6799 -0.2894
14228SOL     OW60293   3.880  13.915   9.050 -0.0020  0.1928 -0.4184
14228SOL    HW160294   3.930  13.833   9.048 -0.3746 -0.0398 -0.1408
14228SOL    HW260295   3.789  13.888   9.041 -0.2330  0.4877  0.8929
14229SOL     OW60296   3.364   9.911   8.896  0.2789 -0.3174  0.4433
14229SOL    HW160297   3.278   9.907   8.855 -0.4170  0.5393  1.7424
14229SOL    HW260298   3.382   9.822   8.923  0.9143 -0.9882 -1.9236
14230SOL     OW60299   2.397   1.154  10.599  0.1571  0.1294 -0.1193
14230SOL    HW160300   2.427   1.064  10.589 -0.9760 -0.6305  2.3431
14230SOL    HW260301   2.338   1.168  10.524 -1.5493 -2.0922  0.6814
14231SOL     OW60302   3.084   8.255   9.036  0.5730 -0.3526  0.5190
14231SOL    HW160303   3.117   8.276   8.949  0.4756 -2.2436 -0.0239
14231SOL    HW260304   3.100   8.162   9.046 -1.7215 -0.7250  1.4815
14232SOL     OW60305   4.645   2.783  12.696 -0.4689 -0.5273 -0.7687
14232SOL    HW160306   4.560   2.812  12.730  0.0755 -0.4692  0.5740
14232SOL    HW260307   4.709   2.834  12.744  0.3793 -1.4745 -0.8701
14233SOL     OW60308  10.377  13.614   4.325 -0.4771  0.1877 -0.4135
14233SOL    HW160309  10.337  13.540   4.278 -0.9934  0.8137 -0.9728
14233SOL    HW260310  10.375  13.686   4.263  1.5158  0.2603 -0.4475
14234SOL     OW60311  13.587   6.603  11.189  0.0278  0.4885 -0.5974
14234SOL    HW160312  13.627   6.648  11.115  0.2350  1.1260 -0.1067
14234SOL    HW260313  13.525   6.665  11.226 -0.1494  0.1414 -0.2982
14235SOL     OW60314  12.681  10.448   9.825 -0.2574  0.2978  0.3210
14235SOL    HW160315  12.596  10.458   9.870  0.0561 -0.9465  1.2831
14235SOL    HW260316  12.666  10.376   9.764 -0.0604  0.4997  0.0370
14236SOL     OW60317   0.141   0.416  13.703  0.1736 -0.4019 -0.3788
14236SOL    HW160318   0.201   0.346  13.678  0.1576 -1.2154  1.6508
14236SOL    HW260319   0.192   0.497  13.694  0.6493 -0.7976 -1.3611
14237SOL     OW60320   1.742   5.742  11.429 -0.1532 -0.1406 -0.1323
14237SOL    HW160321   1.749   5.821  11.484 -1.2303 -0.6477  0.7710
14237SOL    HW260322   1.809   5.683  11.463 -0.7877 -0.4352  0.6314
14238SOL     OW60323   2.445  13.948   0.148 -0.3907 -0.7732 -0.4598
14238SOL    HW160324   2.515  13.889   0.119 -1.0412 -1.9746  0.3466
14238SOL    HW260325   2.457  14.027   0.095  1.0176 -1.2999 -0.9733
14239SOL     OW60326   7.114   8.881   1.634  0.2563  0.1841  0.3124
14239SOL    HW160327   7.085   8.923   1.715 -1.1443  0.0340 -0.0970
14239SOL    HW260328   7.135   8.791   1.661 -1.8794 -0.3936  0.2449
14240SOL     OW60329  13.414   5.309  13.888  0.6243 -0.4133  0.5309
14240SOL    HW160330  13.370   5.291  13.971 -2.2959 -2.9543 -1.3693
14240SOL    HW260331  13.395   5.401  13.871 -1.7867 -0.7241  1.0995
14241SOL     OW60332   3.041   9.578   4.025  0.1289 -0.2344 -0.2772
14241SOL    HW160333   3.049   9.669   4.053 -1.8461 -0.1828  0.2777
14241SOL    HW260334   3.061   9.526   4.103 -2.2314 -0.1473  0.4764
14242SOL     OW60335   8.423  13.195  12.018  0.1398  0.2734 -0.5026
14242SOL    HW160336   8.349  13.185  11.958 -0.0070 -0.5148 -0.1991
14242SOL    HW260337   8.477  13.118  12.001  0.6946  0.6503 -0.4467
14243SOL     OW60338   8.647  11.191  12.263 -0.0920  0.1265 -0.5765
14243SOL    HW160339   8.674  11.211  12.173 -0.0949  0.3660 -0.5232
14243SOL    HW260340   8.553  11.210  12.264  0.0500  0.8465 -0.3179
14244SOL     OW60341   0.842   4.804   2.291 -0.1417  0.5766  0.1260
14244SOL    HW160342   0.895   4.745   2.345  0.6851 -0.4162 -1.6843
14244SOL    HW260343   0.767   4.825   2.346  0.4041 -0.7871  1.4719
14245SOL     OW60344   3.910   7.806  11.790 -0.4481 -0.0958  0.0336
14245SOL    HW160345   3.942   7.811  11.700 -2.2311  0.7596 -0.6053
14245SOL    HW260346   3.976   7.852  11.842 -0.1456  0.7589 -1.0749
14246SOL     OW60347  10.709   8.678  12.826 -0.3562  0.0401 -0.0509
14246SOL    HW160348  10.748   8.766  12.825 -2.1383  0.9189  1.9588
14246SOL    HW260349  10.731   8.643  12.912 -0.4569 -1.1464 -0.4884
14247SOL     OW60350   3.662   0.916  11.795 -0.4648  0.2980 -1.0156
14247SOL    HW160351   3.692   0.999  11.834  0.8707 -0.9913  0.8667
14247SOL    HW260352   3.660   0.855  11.869 -1.5968 -1.3225 -2.3302
14248SOL     OW60353   9.089   4.326  14.001 -0.4827 -0.5093 -0.3703
14248SOL    HW160354   9.079   4.241  13.959  0.3356 -0.2934 -1.0296
14248SOL    HW260355   9.043   4.387  13.942 -0.2750 -0.3609 -0.3800
14249SOL     OW60356   0.835  10.228   1.918 -0.1982 -0.2954 -0.1789
14249SOL    HW160357   0.772  10.206   1.986 -1.7361  0.5176 -1.2794
14249SOL    HW260358   0.852  10.322   1.930  0.6451 -0.4580 -0.0334
14250SOL     OW60359   1.291   0.856   4.859  0.3023 -0.5237  0.2892
14250SOL    HW160360   1.282   0.897   4.773  0.9793  0.2881  0.5908
14250SOL    HW260361   1.201   0.852   4.894  0.2769  1.2857  0.5032
14251SOL     OW60362   3.912  11.766  13.676 -0.2989 -0.2057  0.0093
14251SOL    HW160363   4.006  11.748  13.679 -0.3120 -0.4593 -0.9147
14251SOL    HW260364   3.888  11.753  13.585 -1.3307 -0.6317  0.3257
14252SOL     OW60365  11.515  11.618  13.853  0.1732  0.1268  0.9380
14252SOL    HW160366  11.592  11.591  13.903  0.6374 -1.0792 -0.3879
14252SOL    HW260367  11.550  11.669  13.780 -0.2863 -0.2883  0.4162
14253SOL     OW60368  13.460   1.485   6.023 -0.1979  0.3151 -0.1427
14253SOL    HW160369  13.414   1.439   6.093  1.4056 -1.1379  0.0083
14253SOL    HW260370  13.447   1.430   5.945 -0.1300  0.7716 -0.4821
14254SOL     OW60371   4.553  11.930   2.986 -0.3363 -0.2235  0.1317
14254SOL    HW160372   4.561  12.016   3.026 -0.0641 -0.1834 -0.0079
14254SOL    HW260373   4.473  11.893   3.024 -0.5575  0.1647  0.0437
14255SOL     OW60374   0.436   7.621   0.874  0.6096 -0.1459 -0.2764
14255SOL    HW160375   0.490   7.700   0.882 -0.6319  0.6668  0.3049
14255SOL    HW260376   0.351   7.646   0.910  0.1894 -1.7563 -0.0799
14256SOL     OW60377   0.266   0.463   6.463 -0.7600 -0.0170 -0.1439
14256SOL    HW160378   0.238   0.433   6.377 -1.1403  1.3611 -0.5318
14256SOL    HW260379   0.190   0.447   6.520 -0.6351 -0.6081 -0.1455
14257SOL     OW60380   4.893   2.223   1.872  0.4909 -0.2021  0.7271
14257SOL    HW160381   4.928   2.232   1.961 -0.2366 -0.2504  1.0295
14257SOL    HW260382   4.876   2.312   1.843 -0.7428 -0.2351  1.2600
14258SOL     OW60383   2.894   1.481   6.914 -0.1408 -0.0421 -0.4603
14258SOL    HW160384   2.878   1.399   6.868  0.2709  0.9121 -2.4302
14258SOL    HW260385   2.850   1.547   6.861  1.8332  1.3484 -0.4692
14259SOL     OW60386  10.309   4.448   9.619  0.4006  0.0517 -0.0012
14259SOL    HW160387  10.308   4.366   9.668 -0.1322  1.0573  1.7469
14259SOL    HW260388  10.401   4.460   9.594  0.1742 -2.1933 -2.3795
14260SOL     OW60389   4.423  11.528  13.487  0.2575 -0.5987 -0.3952
14260SOL    HW160390   4.377  11.476  13.421 -0.3564  4.1149 -4.2027
14260SOL    HW260391   4.497  11.567  13.441  0.4685  2.1615  1.9556
14261SOL     OW60392   9.617   4.408   4.778 -0.9991  0.3773 -0.0966
14261SOL    HW160393   9.592   4.333   4.832 -0.7044 -0.9802 -1.7617
14261SOL    HW260394   9.648   4.369   4.696  0.9859  2.2297 -0.3205
14262SOL     OW60395  13.763   0.721   8.923  0.0385  1.3882  0.0013
14262SOL    HW160396  13.851   0.690   8.904  0.4617  0.9178  2.4905
14262SOL    HW260397  13.776   0.807   8.963 -0.4776  0.6863  1.7683
14263SOL     OW60398  10.063  11.566   9.328 -0.0315 -0.1593 -0.1898
14263SOL    HW160399  10.129  11.589   9.263  1.8427 -1.4817  1.1357
14263SOL    HW260400  10.083  11.622   9.403  0.4653 -1.4797  0.6988
14264SOL     OW60401   5.396   2.890   9.056  0.2004 -0.5265 -0.7321
14264SOL    HW160402   5.389   2.941   8.976  0.1550 -0.2703 -0.5642
14264SOL    HW260403   5.366   2.949   9.125  0.4577 -0.6707 -0.4966
14265SOL     OW60404   3.754   3.679  11.413  0.2014 -0.5181  0.0574
14265SOL    HW160405   3.669   3.635  11.417 -0.1108 -0.1504 -1.6409
14265SOL    HW260406   3.816   3.609  11.394 -0.1034 -0.4474 -1.2793
14266SOL     OW60407   4.573  12.873   1.662 -0.3503 -0.4363 -0.3449
14266SOL    HW160408   4.634  12.799   1.654  0.5250  0.0563  1.3471
14266SOL    HW260409   4.572  12.912   1.574  0.1056 -1.7102 -0.9541
14267SOL     OW60410  13.507   0.833   6.763  0.1294 -0.4792  0.2335
14267SOL    HW160411  13.443   0.899   6.736  1.6582  0.9245 -0.0865
14267SOL    HW260412  13.463   0.749   6.746 -2.6190  0.3490  2.3908
14268SOL     OW60413   1.010   0.790   8.395 -0.4078 -0.2145  0.7732
14268SOL    HW160414   1.052   0.708   8.369 -1.1346 -1.6749  3.7347
14268SOL    HW260415   1.082   0.853   8.403  0.5205 -1.2675  0.9175
14269SOL     OW60416   6.131  12.557  11.730  0.7420  0.3559 -0.3660
14269SOL    HW160417   6.120  12.504  11.652 -0.5056 -0.0617  0.0661
14269SOL    HW260418   6.184  12.503  11.789 -1.0818 -0.7526  0.3345
14270SOL     OW60419   1.799   5.094  10.315 -0.2592 -0.7316 -0.1408
14270SOL    HW160420   1.840   5.115  10.399 -0.1341 -2.0042  0.1313
14270SOL    HW260421   1.780   5.180  10.275  1.0034 -0.1221  0.5287
14271SOL     OW60422  12.311   7.387  13.533 -0.0210  0.3779  0.1906
14271SOL    HW160423  12.263   7.401  13.615  2.1523 -1.1079  1.8213
14271SOL    HW260424  12.265   7.315  13.491  0.6152 -0.9850  1.6984
14272SOL     OW60425   2.653  12.867  10.924 -0.0903 -0.1191 -0.5182
14272SOL    HW160426   2.590  12.814  10.973  0.1693  0.1908  0.1691
14272SOL    HW260427   2.685  12.931  10.988  0.5015  0.0871 -1.0123
14273SOL     OW60428   3.387   4.215  14.031 -0.1295 -0.5434  0.6915
14273SOL    HW160429   3.311   4.168  13.997 -0.2990  2.1308 -3.1464
14273SOL    HW260430   3.462   4.166  13.996 -0.2950  0.9688 -2.0340
14274SOL     OW60431   1.863   2.758   6.483  0.1322 -0.1431  0.4980
14274SOL    HW160432   1.837   2.760   6.391 -2.6834 -0.0086  1.1990
14274SOL    HW260433   1.875   2.665   6.503  0.0842 -0.2241  0.1512
14275SOL     OW60434   3.810   8.645   1.588  0.0048 -0.2735  0.0878
14275SOL    HW160435   3.764   8.578   1.537  2.4511 -1.3027 -0.9053
14275SOL    HW260436   3.763   8.726   1.569  0.2029 -0.7957 -3.0998
14276SOL     OW60437  13.950   1.103   6.432 -0.0424  0.0215  0.0369
14276SOL    HW160438  13.883   1.165   6.405  0.8336  1.2117  0.4829
14276SOL    HW260439  13.902   1.027   6.466 -1.3044  2.1447  3.5179
14277SOL     OW60440  11.872   3.977  12.921  0.2002 -0.4920  0.0582
14277SOL    HW160441  11.895   3.995  12.830  1.1582 -0.4267  0.3082
14277SOL    HW260442  11.953   3.990  12.970 -0.7058  1.2369  1.1841
14278SOL     OW60443  11.634  13.756   6.766 -0.2782  0.5241  0.2487
14278SOL    HW160444  11.583  13.783   6.843  0.3632 -0.5033  1.0695
14278SOL    HW260445  11.684  13.680   6.796 -0.1245 -0.0020 -1.2398
14279SOL     OW60446   7.634   5.408  12.108  0.2447  0.0707 -0.2894
14279SOL    HW160447   7.728   5.404  12.090  0.3737 -2.6967  0.4536
14279SOL    HW260448   7.629   5.417  12.203 -0.2953  1.8251 -0.4588
14280SOL     OW60449   2.559  10.406   3.769 -0.1972 -0.1019  0.4766
14280SOL    HW160450   2.510  10.465   3.825 -0.4478 -0.7856  0.9902
14280SOL    HW260451   2.626  10.461   3.729 -0.1775  0.4502  1.2477
14281SOL     OW60452   8.429   8.316   1.663  0.0698 -0.4064 -0.1687
14281SOL    HW160453   8.429   8.321   1.759  0.1768  0.3232 -0.2063
14281SOL    HW260454   8.354   8.369   1.636  0.0117 -0.6513 -0.4887
14282SOL     OW60455   3.623  11.200  11.043 -0.0029  1.1286 -0.6310
14282SOL    HW160456   3.590  11.209  10.954 -1.9485 -0.5012 -0.1261
14282SOL    HW260457   3.545  11.189  11.097  1.2275  0.0405  1.0115
14283SOL     OW60458  13.041   5.535  11.658  0.0067  0.0100 -0.2867
14283SOL    HW160459  13.011   5.452  11.695  1.1242 -0.6715 -0.8417
14283SOL    HW260460  12.972   5.560  11.596 -0.2802 -0.5783 -0.2118
14284SOL     OW60461   4.846  13.942   9.688  0.0507  1.0831  0.1099
14284SOL    HW160462   4.838  13.848   9.672  0.9364  1.1369 -0.7342
14284SOL    HW260463   4.764  13.979   9.654  0.0712  0.7142 -0.3536
14285SOL     OW60464   1.228   7.096   3.636  0.1813 -0.4278 -0.4008
14285SOL    HW160465   1.196   7.061   3.719  0.3992 -1.6366 -0.8114
14285SOL    HW260466   1.321   7.113   3.651 -0.4518  2.8541  0.7157
14286SOL     OW60467   6.242   2.858   7.107 -0.5022  0.2824 -0.2576
14286SOL    HW160468   6.198   2.888   7.186 -0.7416  0.2238 -0.3705
14286SOL    HW260469   6.183   2.794   7.069  0.1391 -0.5552  0.1316
14287SOL     OW60470  10.755   4.912   9.740  0.2448 -0.0492 -0.2836
14287SOL    HW160471  10.815   4.888   9.811  0.8484  1.2094 -0.3449
14287SOL    HW260472  10.740   5.006   9.752  0.4949  0.2229 -1.9187
14288SOL     OW60473   9.802  13.790   2.157 -0.1785  0.1121 -0.2279
14288SOL    HW160474   9.739  13.734   2.202  0.9608 -1.1344 -0.1194
14288SOL    HW260475   9.774  13.879   2.178  0.0282 -0.3885  2.5899
14289SOL     OW60476   3.811   0.396   5.979  0.4391  0.2327  0.0659
14289SOL    HW160477   3.799   0.370   6.070 -0.6546 -1.2855 -0.4778
14289SOL    HW260478   3.861   0.324   5.939 -0.9074 -0.1552 -1.0033
14290SOL     OW60479  12.895  10.197   5.714  0.0111 -0.0642 -0.1774
14290SOL    HW160480  12.874  10.103   5.710 -0.6828  0.1092 -1.1835
14290SOL    HW260481  12.812  10.239   5.736  0.0583  0.3832 -0.8162
14291SOL     OW60482   1.095   9.916   8.309 -0.1155  0.5324 -0.0149
14291SOL    HW160483   1.041   9.985   8.347 -0.4835  0.5498 -0.5528
14291SOL    HW260484   1.176   9.917   8.360 -0.0498  1.4716 -0.1239
14292SOL     OW60485   3.047   6.882  13.218  0.2217  0.5448  0.0946
14292SOL    HW160486   3.119   6.909  13.275  0.3126  0.0004  0.2458
14292SOL    HW260487   3.051   6.942  13.143  1.8557 -0.4832 -0.6978
14293SOL     OW60488   0.158  10.212  11.194  0.1227  0.1459 -0.2167
14293SOL    HW160489   0.240  10.241  11.235 -0.4893 -0.3285  1.4006
14293SOL    HW260490   0.154  10.118  11.212  0.3825 -0.3470 -2.4182
14294SOL     OW60491  12.557   0.763   3.329 -0.4951  0.0841  0.4266
14294SOL    HW160492  12.577   0.854   3.347 -0.2266 -0.4906  3.5059
14294SOL    HW260493  12.634   0.715   3.360 -0.9064 -1.2618 -0.5353
14295SOL     OW60494  11.451   5.593   4.680  0.0310  0.2994  0.5150
14295SOL    HW160495  11.384   5.531   4.651 -1.0846  0.4645  2.5605
14295SOL    HW260496  11.438   5.670   4.623  1.7231 -1.3502 -2.3457
14296SOL     OW60497  11.778  12.589   4.260  0.2873 -0.4454 -0.3649
14296SOL    HW160498  11.855  12.547   4.223  2.1382 -0.0432  2.6852
14296SOL    HW260499  11.739  12.523   4.317 -0.3359  0.0346 -0.2201
14297SOL     OW60500   8.724   3.543   1.324  0.4673  1.0211  0.2137
14297SOL    HW160501   8.816   3.558   1.303  0.9305 -0.5299  0.9695
14297SOL    HW260502   8.688   3.498   1.248  0.6342  0.6506  0.3491
14298SOL     OW60503   3.678  10.800   3.563 -0.1610 -0.2640 -0.5324
14298SOL    HW160504   3.729  10.839   3.492 -0.0568  0.1150 -0.2513
14298SOL    HW260505   3.744  10.775   3.628 -0.4850  2.8562  1.1456
14299SOL     OW60506  10.003   6.775   0.672  0.1482  0.0099 -0.7822
14299SOL    HW160507   9.986   6.848   0.731  0.2599 -0.6827  0.1318
14299SOL    HW260508  10.086   6.738   0.702 -0.7823 -1.5995 -0.0451
14300SOL     OW60509   1.372   3.377   2.169  0.3208 -0.0322 -0.5419
14300SOL    HW160510   1.402   3.364   2.079 -1.8744 -0.6438 -1.2650
14300SOL    HW260511   1.378   3.291   2.209 -1.5002 -0.4793 -1.1022
14301SOL     OW60512  11.585  11.313   9.250 -0.4680 -0.2285 -0.1253
14301SOL    HW160513  11.579  11.222   9.222  0.9655 -0.4229  0.1237
14301SOL    HW260514  11.495  11.338   9.270 -1.3941 -0.5295 -3.3933
14302SOL     OW60515  10.532   3.948   5.249  0.7303  1.0155 -0.0779
14302SOL    HW160516  10.480   3.929   5.171  2.6763 -0.0703 -1.1752
14302SOL    HW260517  10.470   3.938   5.322 -1.0247  1.6310 -1.4002
14303SOL     OW60518  10.357   3.989   9.593  0.4138 -0.6173 -0.5405
14303SOL    HW160519  10.273   3.951   9.619 -0.6821  2.2695  0.5279
14303SOL    HW260520  10.351   3.996   9.497 -0.8869  0.0984 -0.4397
14304SOL     OW60521   9.303   1.870   4.122 -0.4154  0.2138 -0.2057
14304SOL    HW160522   9.229   1.918   4.160  0.3517  2.2659 -1.1387
14304SOL    HW260523   9.355   1.938   4.078  1.4868 -1.3166 -0.4362
14305SOL     OW60524   6.907   8.213   0.993  0.0886 -0.5775  0.4863
14305SOL    HW160525   6.903   8.294   1.044  2.9698 -0.2281  0.2997
14305SOL    HW260526   6.941   8.148   1.054 -0.1201 -1.1240  0.0318
14306SOL     OW60527   9.289   0.046   3.025 -0.5309  0.2724  0.1374
14306SOL    HW160528   9.297  -0.012   3.101 -1.2094 -0.6837 -0.4981
14306SOL    HW260529   9.363   0.106   3.033  0.0040 -0.4675  0.9943
14307SOL     OW60530  13.363  10.144   9.222 -0.0283  0.5146 -0.5051
14307SOL    HW160531  13.332  10.081   9.156 -1.8721  1.2678 -0.4103
14307SOL    HW260532  13.432  10.193   9.178  2.1083 -2.1024 -0.3048
14308SOL     OW60533  12.066  11.292   7.529  0.4748 -0.3958 -0.0512
14308SOL    HW160534  12.082  11.212   7.479  2.8389  0.7535 -1.3321
14308SOL    HW260535  12.038  11.355   7.463 -0.2142  0.1520  0.7517
14309SOL     OW60536  10.305  10.021   2.326  0.4165 -0.2693 -0.7082
14309SOL    HW160537  10.226  10.017   2.379  0.8598 -0.6334 -0.0587
14309SOL    HW260538  10.369   9.969   2.374  1.2736  0.6160 -0.8539
14310SOL     OW60539   3.044   9.821   9.156  0.8722  0.1801  0.0455
14310SOL    HW160540   3.111   9.760   9.124  0.0471 -1.0465  0.5483
14310SOL    HW260541   2.980   9.764   9.199  0.5867  1.5219  1.4706
14311SOL     OW60542   4.482  13.118  13.064  0.7944  0.4948 -0.5039
14311SOL    HW160543   4.426  13.111  13.141  0.7375  0.2924 -0.5628
14311SOL    HW260544   4.431  13.171  13.002  0.9455  0.8748 -0.3090
14312SOL     OW60545  10.178   5.236   5.600 -0.2761  0.1721  0.2097
14312SOL    HW160546  10.206   5.276   5.683  0.2222 -0.2877  0.2699
14312SOL    HW260547  10.260   5.216   5.554 -0.5505  1.9151 -1.1353
14313SOL     OW60548   8.660   6.631   5.192  0.1800 -0.1499  0.0106
14313SOL    HW160549   8.666   6.548   5.241 -0.0364 -0.3317 -0.2713
14313SOL    HW260550   8.737   6.630   5.135  0.0886 -0.2363 -0.1125
14314SOL     OW60551   1.460   9.645   4.510  0.1167  0.2058 -0.2863
14314SOL    HW160552   1.464   9.640   4.415  0.9784 -0.2277 -0.2278
14314SOL    HW260553   1.460   9.739   4.528 -1.6476  0.3368 -0.7602
14315SOL     OW60554  13.638   4.571   0.909 -0.2127  0.3550 -0.0430
14315SOL    HW160555  13.674   4.491   0.871 -0.5388  0.1296  0.1159
14315SOL    HW260556  13.712   4.631   0.912 -0.0365  0.1666 -0.4551
14316SOL     OW60557  12.823   3.369   0.170  0.1554 -0.0750  0.1796
14316SOL    HW160558  12.833   3.330   0.257  1.0748 -2.5498 -0.9392
14316SOL    HW260559  12.735   3.406   0.170 -0.9659 -2.5486  1.2606
14317SOL     OW60560   3.322   5.807  12.803 -0.1258 -0.4579  0.2307
14317SOL    HW160561   3.349   5.816  12.894 -0.0897 -0.5808  0.2328
14317SOL    HW260562   3.303   5.713  12.793  0.2315 -0.5088  0.0099
14318SOL     OW60563  12.830   1.276  10.094  0.2691  0.1254  0.2730
14318SOL    HW160564  12.752   1.245  10.141  0.2440 -0.7626 -0.3348
14318SOL    HW260565  12.813   1.370  10.080 -1.6999 -0.4310 -1.7103
14319SOL     OW60566   6.423   8.380   3.363  0.2703 -0.0378  0.0624
14319SOL    HW160567   6.339   8.350   3.326  1.0820 -1.5603 -0.6336
14319SOL    HW260568   6.452   8.449   3.303 -0.0070 -0.1953 -0.2584
14320SOL     OW60569   7.688   2.245  11.442  0.2227  0.2393 -0.0422
14320SOL    HW160570   7.777   2.218  11.419  0.6691  1.6347 -0.0221
14320SOL    HW260571   7.632   2.180  11.400  1.1672  0.6629 -2.0458
14321SOL     OW60572  13.908  14.079  10.230  0.0791 -0.2994  0.1351
14321SOL    HW160573  13.863  14.147  10.280  1.6153  0.1573  0.9438
14321SOL    HW260574  13.967  14.038  10.294  1.6395 -0.1258 -1.1419
14322SOL     OW60575   0.748  11.308  12.884  0.5627 -0.3144  0.2003
14322SOL    HW160576   0.747  11.348  12.971 -0.1912 -0.1947  0.1405
14322SOL    HW260577   0.656  11.302  12.859  0.7768 -0.3021 -0.6164
14323SOL     OW60578   4.632  10.693   3.211 -0.0050 -0.1436  0.1083
14323SOL    HW160579   4.578  10.765   3.241 -0.5025 -0.4138 -0.1353
14323SOL    HW260580   4.719  10.731   3.200 -0.4939  0.6795 -1.0717
14324SOL     OW60581   8.806  11.013  11.769  0.1111  0.0932 -0.7811
14324SOL    HW160582   8.737  11.079  11.781 -1.3537 -1.4472 -0.4304
14324SOL    HW260583   8.777  10.937  11.819  1.6972 -0.8948 -1.2732
14325SOL     OW60584   3.077   2.634   2.064  0.1278 -0.4741 -0.1411
14325SOL    HW160585   3.080   2.585   1.981  0.0921  0.2526 -0.5766
14325SOL    HW260586   2.987   2.665   2.070  0.7282  1.6280 -1.1199
14326SOL     OW60587   6.720   2.823   6.848  0.0860 -0.5039 -0.2071
14326SOL    HW160588   6.772   2.889   6.802 -0.8735  0.0931 -0.4793
14326SOL    HW260589   6.701   2.863   6.933  1.4016 -1.3838  0.5301
14327SOL     OW60590   4.351   8.623   6.576  0.5720 -0.6007 -0.3027
14327SOL    HW160591   4.314   8.707   6.548  0.3321 -1.0701 -1.4503
14327SOL    HW260592   4.440   8.622   6.539 -0.0320 -1.5776 -1.8349
14328SOL     OW60593  10.163  12.881   8.765  0.0129  0.0437 -0.7990
14328SOL    HW160594  10.218  12.854   8.692  0.0109  1.5497 -1.3945
14328SOL    HW260595  10.085  12.918   8.724 -0.3382  0.2022 -0.0224
14329SOL     OW60596   8.064  10.888   6.944  0.4899  0.4204  0.1011
14329SOL    HW160597   7.994  10.860   7.002  0.2728  0.2405 -0.2382
14329SOL    HW260598   8.110  10.807   6.920 -0.3593  0.2812 -1.1687
14330SOL     OW60599   0.298   9.724   3.388 -0.9920  0.2374  0.5359
14330SOL    HW160600   0.307   9.629   3.387 -2.2364  0.0912  1.0186
14330SOL    HW260601   0.382   9.757   3.355 -1.0823 -1.0568 -1.1105
14331SOL     OW60602   1.310  13.007   8.045 -0.0447 -0.7175  0.0391
14331SOL    HW160603   1.226  12.995   8.090  0.5862 -2.2151  0.8924
14331SOL    HW260604   1.344  13.089   8.081 -1.0477 -0.2033 -0.1643
14332SOL     OW60605   8.501  13.690   8.097  0.2279 -0.3333 -0.5030
14332SOL    HW160606   8.578  13.678   8.041  0.3089 -1.4131 -0.1750
14332SOL    HW260607   8.429  13.653   8.046 -0.2727  1.4416 -1.1855
14333SOL     OW60608  12.102   5.507   6.224  0.0824 -0.9718  0.0971
14333SOL    HW160609  12.087   5.418   6.258 -1.5001 -0.5276  0.6163
14333SOL    HW260610  12.036   5.518   6.156  0.2777 -0.1864  0.0303
14334SOL     OW60611   4.634   5.060   2.850  0.0678  0.7753  0.3643
14334SOL    HW160612   4.560   5.000   2.859 -1.1062  2.1971  0.5287
14334SOL    HW260613   4.676   5.036   2.768 -0.5800 -0.0428  0.2683
14335SOL     OW60614   7.220   3.318  13.617  0.7902 -0.8350  0.0351
14335SOL    HW160615   7.139   3.357  13.585  0.0164 -1.0032  1.6716
14335SOL    HW260616   7.257   3.384  13.676  0.4088 -1.7834  1.4019
14336SOL     OW60617   4.904  10.520   6.474  0.3401 -0.3431  0.1424
14336SOL    HW160618   4.845  10.567   6.533  0.2451  0.1103 -0.3072
14336SOL    HW260619   4.847  10.459   6.427  0.4271 -0.7533  0.5629
14337SOL     OW60620   8.813   4.081  11.850 -0.0982 -0.1118  0.2104
14337SOL    HW160621   8.802   3.994  11.889 -1.7920 -0.1276 -0.2249
14337SOL    HW260622   8.897   4.076  11.804 -0.2203 -1.5565  0.0930
14338SOL     OW60623   4.913   2.843   3.827  0.2010  0.0134 -0.1362
14338SOL    HW160624   4.988   2.784   3.829  1.7389  1.7619 -1.6835
14338SOL    HW260625   4.892   2.859   3.919  1.8427 -0.4072  0.3379
14339SOL     OW60626  13.237  10.674   8.684  0.4493  0.0027  0.5677
14339SOL    HW160627  13.184  10.696   8.761  0.4978 -0.2644  0.6793
14339SOL    HW260628  13.197  10.595   8.649  0.9586 -0.3770  0.8341
14340SOL     OW60629   9.965   6.567  13.925  0.1559  0.1813  0.1222
14340SOL    HW160630  10.054   6.597  13.910  0.8942 -2.0108 -0.3105
14340SOL    HW260631   9.912   6.611  13.858  0.5561  2.7693  1.4100
14341SOL     OW60632  12.822   0.775   7.589  0.4081 -0.1973 -0.2062
14341SOL    HW160633  12.768   0.815   7.521  1.2853  2.7662  0.6747
14341SOL    HW260634  12.826   0.841   7.658  1.9964 -1.8812  1.4177
14342SOL     OW60635   6.773  13.990   2.689 -0.1098 -0.0559  0.4199
14342SOL    HW160636   6.761  14.006   2.783  0.8315 -0.4995  0.6251
14342SOL    HW260637   6.761  14.076   2.649 -2.8205 -0.2209  0.6678
14343SOL     OW60638   5.592   1.460   9.696  0.0959  0.0996  0.3697
14343SOL    HW160639   5.620   1.369   9.706 -0.4818 -0.0029  1.2570
14343SOL    HW260640   5.537   1.476   9.773 -1.4716  0.5754 -0.7953
14344SOL     OW60641   1.939   3.816  10.488  0.2582 -0.1628 -0.3124
14344SOL    HW160642   1.902   3.883  10.432  0.2227  0.9350  0.9692
14344SOL    HW260643   1.863   3.764  10.516  0.3687 -1.2034 -1.8545
14345SOL     OW60644  11.765  13.964   7.572 -0.2696 -0.3621 -0.3973
14345SOL    HW160645  11.859  13.961   7.555 -0.4849 -2.8781 -1.6847
14345SOL    HW260646  11.730  14.017   7.501  0.2108  1.3918  0.6175
14346SOL     OW60647   9.232  10.782   7.854 -0.1437  0.5479  0.4989
14346SOL    HW160648   9.240  10.773   7.760  2.4691  1.2999  0.5581
14346SOL    HW260649   9.308  10.834   7.880 -0.5667  0.0575  3.0736
14347SOL     OW60650   9.809   7.545   4.729  0.2713  0.0903 -0.1050
14347SOL    HW160651   9.802   7.461   4.774 -1.1007  0.3188  0.1725
14347SOL    HW260652   9.895   7.544   4.688  1.1108 -0.5878  1.6056
14348SOL     OW60653   8.396  12.452   7.715  0.1387 -0.1301  0.7059
14348SOL    HW160654   8.425  12.435   7.805 -0.6157  2.0346  1.4181
14348SOL    HW260655   8.301  12.462   7.722  0.1802  1.1068 -0.1163
14349SOL     OW60656   9.800   8.964  13.826  0.0967  0.3446 -0.3519
14349SOL    HW160657   9.741   8.962  13.901  0.1082 -0.8083 -0.3662
14349SOL    HW260658   9.758   8.907  13.761  0.4119  0.8149 -0.9816
14350SOL     OW60659  10.783   8.613  12.445 -0.1870  0.3716  0.0404
14350SOL    HW160660  10.857   8.562  12.410  0.8921  0.4995  1.9710
14350SOL    HW260661  10.745   8.556  12.512 -1.9806  0.2646 -0.9933
14351SOL     OW60662  10.911   0.495   6.702  0.2599 -0.5191  0.2821
14351SOL    HW160663  10.968   0.420   6.684  0.3582 -0.4424  0.2746
14351SOL    HW260664  10.824   0.466   6.673  0.4483 -0.3347 -0.4989
14352SOL     OW60665   0.257   0.897   5.031  0.2762 -0.3156  0.2673
14352SOL    HW160666   0.247   0.822   5.090 -0.0023 -0.4865  0.0049
14352SOL    HW260667   0.321   0.954   5.075  0.3057 -0.5901  0.5825
14353SOL     OW60668   5.265   9.337   0.849  0.1150  0.3642 -0.0625
14353SOL    HW160669   5.348   9.290   0.851  0.1391  0.2266 -2.1960
14353SOL    HW260670   5.213   9.293   0.782 -0.4433  2.4031 -1.0586
14354SOL     OW60671  11.256  13.747   6.184  0.4125 -0.0225 -0.2076
14354SOL    HW160672  11.261  13.834   6.144 -1.2292  0.4628  0.5373
14354SOL    HW260673  11.276  13.762   6.276 -1.5832 -0.1062  0.2737
14355SOL     OW60674   5.977   1.363   7.499 -0.1446 -0.2759 -0.1126
14355SOL    HW160675   5.941   1.359   7.411 -1.8902 -0.3168  0.5673
14355SOL    HW260676   5.969   1.456   7.524 -0.2581 -0.3800  0.2432
14356SOL     OW60677  11.907   7.674   8.757 -0.4841  0.1400  0.8552
14356SOL    HW160678  11.894   7.601   8.696 -0.7749 -0.0398  1.1302
14356SOL    HW260679  11.825   7.722   8.755 -0.0752  0.8356  0.1898
14357SOL     OW60680   5.890  14.008  11.188 -0.3109 -0.0337 -0.2978
14357SOL    HW160681   5.905  13.915  11.175 -0.0578 -0.2204  1.1407
14357SOL    HW260682   5.962  14.051  11.142  1.4296 -0.7053  1.6370
14358SOL     OW60683   9.097  11.725   8.609  0.2805 -0.6688  0.2626
14358SOL    HW160684   9.120  11.687   8.694  0.4700 -0.2641  0.3989
14358SOL    HW260685   9.018  11.777   8.627  0.5559 -0.2502  0.2867
14359SOL     OW60686   7.816   1.536   0.004  0.1767 -0.2760  0.0745
14359SOL    HW160687   7.748   1.472  -0.019  0.5772 -1.0273  0.8919
14359SOL    HW260688   7.825   1.591  -0.073 -0.2729 -1.1457 -0.6149
14360SOL     OW60689   0.500  13.219   7.807  0.1725 -0.3007  0.0136
14360SOL    HW160690   0.582  13.240   7.762  0.2870 -2.0031 -0.6685
14360SOL    HW260691   0.442  13.188   7.737 -0.1942 -1.4897  0.8079
14361SOL     OW60692   3.945   2.308   3.335  0.3575 -0.2332 -0.1549
14361SOL    HW160693   3.935   2.247   3.409 -0.0317 -0.8539 -0.7100
14361SOL    HW260694   3.935   2.395   3.375  0.4609 -0.5453  0.5737
14362SOL     OW60695   5.874  14.048  12.616 -0.1109  0.2185  0.1024
14362SOL    HW160696   5.798  14.004  12.654 -0.0229 -0.1114 -0.1064
14362SOL    HW260697   5.837  14.124  12.570 -0.4350 -0.5431 -0.9306
14363SOL     OW60698   6.589   0.743   8.632 -0.2891 -0.0190  0.6478
14363SOL    HW160699   6.627   0.831   8.633 -2.4304  1.0074 -0.9308
14363SOL    HW260700   6.569   0.724   8.724 -0.7103  1.5806  0.9080
14364SOL     OW60701  12.196   9.762  11.561 -0.7933  0.0303  0.1162
14364SOL    HW160702  12.100   9.756  11.563 -0.7488 -0.9141  0.1953
14364SOL    HW260703  12.225   9.670  11.558  0.0938  0.3160 -0.6087
14365SOL     OW60704  12.382   9.833   6.280 -0.5566 -0.0697 -0.4822
14365SOL    HW160705  12.402   9.865   6.192 -1.9902  1.3292 -0.3464
14365SOL    HW260706  12.397   9.739   6.275 -2.1098 -0.2892 -2.7042
14366SOL     OW60707  11.079   8.190   6.567 -0.1789  0.3159  0.6850
14366SOL    HW160708  10.991   8.220   6.545  0.5340  1.7024 -0.4651
14366SOL    HW260709  11.131   8.212   6.490  0.9446 -1.5958  0.8444
14367SOL     OW60710   4.504  10.691   2.183 -0.2527 -0.3049 -0.2400
14367SOL    HW160711   4.551  10.676   2.100 -0.7017  2.6648 -1.1199
14367SOL    HW260712   4.420  10.646   2.171 -0.3640  0.1890 -1.4647
14368SOL     OW60713   8.582   9.626   4.727 -0.3338  0.0020  0.4126
14368SOL    HW160714   8.610   9.545   4.683 -0.8683 -0.6436  1.2262
14368SOL    HW260715   8.511   9.598   4.786 -0.7679  1.1286  0.4462
14369SOL     OW60716  10.552   0.263   2.513 -0.1179  0.3898 -0.3608
14369SOL    HW160717  10.529   0.354   2.534 -3.0205 -0.4697  0.6188
14369SOL    HW260718  10.528   0.254   2.421  1.1365  0.8217 -0.7625
14370SOL     OW60719  13.487   2.328   2.593  0.0452 -0.3719 -0.8137
14370SOL    HW160720  13.570   2.281   2.581  0.9067  1.2757 -1.6291
14370SOL    HW260721  13.466   2.317   2.686  1.3273 -0.5876 -0.5368
14371SOL     OW60722   7.695   6.718   0.364 -0.4587  0.0128 -0.1486
14371SOL    HW160723   7.783   6.685   0.381 -0.9017 -0.6866  0.8694
14371SOL    HW260724   7.661   6.742   0.450 -0.4783  2.3767 -0.7467
14372SOL     OW60725  10.703   4.977   1.956 -0.0770  0.1106  0.6244
14372SOL    HW160726  10.783   4.924   1.958 -0.5245 -0.7018 -0.9485
14372SOL    HW260727  10.730   5.060   1.915  0.2860  0.4883  1.6063
14373SOL     OW60728  11.312   9.401   8.349  0.1408 -0.4011  0.2307
14373SOL    HW160729  11.251   9.393   8.277 -0.5328 -0.7908  0.8325
14373SOL    HW260730  11.394   9.429   8.308 -0.7324  1.3385 -0.4635
14374SOL     OW60731   3.578   5.184   0.759  0.1229  0.3812  0.6115
14374SOL    HW160732   3.620   5.176   0.845  2.4420  0.4023 -0.4274
14374SOL    HW260733   3.637   5.137   0.700 -1.3688  0.4391 -0.9970
14375SOL     OW60734   5.694   2.082   4.785 -0.0110  0.4590  0.3396
14375SOL    HW160735   5.599   2.087   4.775  0.0315 -1.5137 -1.9110
14375SOL    HW260736   5.729   2.143   4.720  0.3506  2.0361  1.9111
14376SOL     OW60737  10.899  13.505  13.696  0.0599  0.0838  0.2653
14376SOL    HW160738  10.922  13.587  13.739  1.5338 -0.1021 -0.1076
14376SOL    HW260739  10.975  13.484  13.642 -0.7076 -1.0069 -0.4376
14377SOL     OW60740   2.022  12.536  11.560  0.4700 -0.0312 -0.5991
14377SOL    HW160741   2.012  12.629  11.542  0.6505  0.3168  1.0180
14377SOL    HW260742   1.942  12.496  11.525  0.7290  0.5992 -1.9917
14378SOL     OW60743   3.028  12.616   5.766  0.3268 -0.2476  0.8098
14378SOL    HW160744   3.123  12.610   5.767  0.4466  0.3997 -1.4472
14378SOL    HW260745   3.010  12.710   5.779  0.0512 -0.2385  0.3981
14379SOL     OW60746   7.241   1.054   9.913 -1.0231  0.1218  0.5365
14379SOL    HW160747   7.260   1.148   9.909 -3.0341  0.5979  0.8397
14379SOL    HW260748   7.164   1.043   9.857  1.1539 -1.9941 -2.2943
14380SOL     OW60749   3.800  12.121   0.056 -0.3570  0.3819 -0.1577
14380SOL    HW160750   3.762  12.145   0.141 -0.3119 -1.1594  0.3278
14380SOL    HW260751   3.871  12.060   0.078 -0.6865 -0.4580 -1.3228
14381SOL     OW60752   1.217  11.193   3.740  0.0129  0.2085  0.1669
14381SOL    HW160753   1.180  11.280   3.725 -0.3548 -0.1728 -1.2204
14381SOL    HW260754   1.278  11.206   3.813  0.5248  1.7867 -0.4951
14382SOL     OW60755   2.765  10.353   7.243 -0.2332 -0.0314  0.2569
14382SOL    HW160756   2.822  10.367   7.319 -0.8311  1.3721  0.4793
14382SOL    HW260757   2.717  10.436   7.233  0.6332  0.2679 -2.3286
14383SOL     OW60758   0.429   6.910  12.093  0.3647 -0.3765  0.5373
14383SOL    HW160759   0.454   6.978  12.031 -2.3316  1.4816  1.2889
14383SOL    HW260760   0.338   6.891  12.072 -0.1161 -0.8908  2.8294
14384SOL     OW60761   1.341   1.400  11.476 -0.8428 -0.1863 -0.1268
14384SOL    HW160762   1.307   1.465  11.414  0.0275  1.9558  1.5249
14384SOL    HW260763   1.430   1.382  11.445 -0.9530 -0.2944 -0.3798
14385SOL     OW60764   9.123   5.587   6.114  0.0264 -0.0503  0.4124
14385SOL    HW160765   9.077   5.659   6.071 -1.1003 -1.2698 -0.5361
14385SOL    HW260766   9.054   5.536   6.156  0.8695 -0.2304  1.6307
14386SOL     OW60767   4.596  13.742   3.387 -0.0440  0.2466  0.2620
14386SOL    HW160768   4.532  13.812   3.373 -0.2061  0.2295  0.9080
14386SOL    HW260769   4.552  13.680   3.445  0.3082 -0.1090  0.1557
14387SOL     OW60770   0.529   8.620   2.030 -0.2319  0.1285 -0.1845
14387SOL    HW160771   0.533   8.715   2.024 -0.3463  0.1087 -0.6080
14387SOL    HW260772   0.439   8.598   2.003  0.0207 -0.1507 -0.8115
14388SOL     OW60773  11.937   8.695  12.873  0.9708  0.6069 -0.3564
14388SOL    HW160774  12.010   8.654  12.827  0.6333 -0.5409  0.0794
14388SOL    HW260775  11.914   8.771  12.820  0.9333 -0.3718 -1.7995
14389SOL     OW60776  12.659   5.882   6.810 -0.0392  0.2208 -0.6333
14389SOL    HW160777  12.732   5.821   6.809 -0.9938 -1.0309  1.0339
14389SOL    HW260778  12.631   5.887   6.719  1.4114 -0.1237 -1.1288
14390SOL     OW60779  13.263   1.333  13.712  0.1587  0.4326 -0.7645
14390SOL    HW160780  13.209   1.412  13.703 -0.4887 -0.0023 -0.7618
14390SOL    HW260781  13.215   1.265  13.664  0.5559 -0.0361 -0.5120
14391SOL     OW60782   5.202   0.342  13.327 -0.5507  0.1072  0.3315
14391SOL    HW160783   5.150   0.282  13.381  0.7741 -2.7529 -1.4124
14391SOL    HW260784   5.287   0.346  13.370 -0.3118 -0.0755 -0.1225
14392SOL     OW60785   4.626  10.289   7.854 -0.3385  0.3555 -0.4403
14392SOL    HW160786   4.719  10.289   7.875 -0.1039 -0.7359 -1.3644
14392SOL    HW260787   4.603  10.381   7.845 -0.1315  0.8559  2.9401
14393SOL     OW60788  12.658   9.667   9.082  0.1733  0.0814 -0.4071
14393SOL    HW160789  12.750   9.662   9.057  0.6184  0.9820  0.9416
14393SOL    HW260790  12.647   9.756   9.116 -0.6675 -0.6620  1.3741
14394SOL     OW60791  13.000   9.235   0.700  0.1237  0.3848  0.3257
14394SOL    HW160792  13.064   9.292   0.741 -1.1805  1.7149  0.6123
14394SOL    HW260793  13.034   9.219   0.612  0.8443  1.0686  0.4725
14395SOL     OW60794   5.720   3.251   9.907  0.1826 -0.0476  0.3463
14395SOL    HW160795   5.631   3.247   9.871  1.0489 -1.1261 -1.8702
14395SOL    HW260796   5.756   3.332   9.871  0.7707 -0.6916 -0.5584
14396SOL     OW60797   2.537  14.056  12.453  0.2020  0.4009 -0.3022
14396SOL    HW160798   2.486  14.137  12.449  0.6372  0.7997  1.4436
14396SOL    HW260799   2.625  14.084  12.479  0.9341 -0.4446 -1.7149
14397SOL     OW60800  13.790   9.146   2.731  0.0980  0.5279  0.4002
14397SOL    HW160801  13.763   9.237   2.715 -1.7384  0.2315  1.4652
14397SOL    HW260802  13.884   9.150   2.745 -0.0114  2.3342  0.8198
14398SOL     OW60803   3.221  11.466   5.688  0.1059 -0.2013 -0.3658
14398SOL    HW160804   3.184  11.389   5.647 -0.2796  0.5101 -1.3885
14398SOL    HW260805   3.233  11.529   5.617 -0.7926  1.1584  0.6122
14399SOL     OW60806  12.969   8.978   6.810  0.1147  0.4394  0.0728
14399SOL    HW160807  12.878   8.953   6.825 -0.1415  1.1494 -0.2633
14399SOL    HW260808  13.020   8.921   6.868 -0.7201  2.1343  2.6274
14400SOL     OW60809   3.913   7.961   4.004  0.0188 -0.3541 -0.2803
14400SOL    HW160810   3.939   7.986   4.092 -0.0628 -2.1343  0.2774
14400SOL    HW260811   3.822   7.932   4.013  0.5699 -2.2994 -0.5571
14401SOL     OW60812   1.662   2.394  12.447 -0.4439 -0.2285 -0.3391
14401SOL    HW160813   1.620   2.445  12.378  0.1390  0.1839 -0.3951
14401SOL    HW260814   1.628   2.305  12.435 -4.4893  0.7486  2.1200
14402SOL     OW60815   8.162  10.290   1.864 -0.0128 -0.7367 -0.0274
14402SOL    HW160816   8.141  10.247   1.781  1.1655 -1.5935  0.0945
14402SOL    HW260817   8.199  10.375   1.839 -1.8592  0.0355 -0.2838
14403SOL     OW60818   9.087   2.756   6.113 -0.1111 -0.1224  0.4826
14403SOL    HW160819   9.170   2.713   6.095  0.8987  1.7838  0.3591
14403SOL    HW260820   9.109   2.826   6.175 -1.3200  1.3863 -0.7213
14404SOL     OW60821   9.238  12.524  13.427  0.1295 -0.5286 -0.0684
14404SOL    HW160822   9.224  12.455  13.362 -2.6118 -1.2879  1.1973
14404SOL    HW260823   9.153  12.568  13.434  1.4520  2.2572  0.0632
14405SOL     OW60824   9.311  11.718   4.943  0.1783 -0.6421  0.2183
14405SOL    HW160825   9.336  11.662   4.869 -0.6413  0.0239 -0.6005
14405SOL    HW260826   9.304  11.658   5.017  0.2910 -1.4631 -0.4158
14406SOL     OW60827   2.674   9.174  10.949  0.6335  0.2680  0.4270
14406SOL    HW160828   2.682   9.269  10.958 -1.2713  0.6253 -0.9062
14406SOL    HW260829   2.585   9.154  10.979  0.1575 -0.7040 -1.4289
14407SOL     OW60830   6.458  12.937   6.500 -0.1184  0.2685  0.3251
14407SOL    HW160831   6.397  12.865   6.484  0.4833 -0.4561  1.1866
14407SOL    HW260832   6.402  13.010   6.525 -0.6184 -0.7218  2.3259
14408SOL     OW60833  13.554   5.467   4.888 -0.1497 -0.1208  0.2433
14408SOL    HW160834  13.566   5.466   4.983  1.5566  1.9416  0.1269
14408SOL    HW260835  13.474   5.517   4.874  0.7615  1.4854  0.5747
14409SOL     OW60836   9.590  13.977  12.881 -0.2549  0.0264 -0.0115
14409SOL    HW160837   9.681  13.957  12.902  0.4524 -0.9490 -3.3131
14409SOL    HW260838   9.587  14.072  12.873 -0.3440  0.3489  2.9641
14410SOL     OW60839  10.615  12.255   5.327 -0.1544 -0.0290 -0.1607
14410SOL    HW160840  10.642  12.212   5.408 -0.9390 -0.2793 -0.0176
14410SOL    HW260841  10.519  12.256   5.331 -0.2467 -0.7118 -1.4116
14411SOL     OW60842  11.706  10.158   5.218  0.0658 -0.0265 -0.1728
14411SOL    HW160843  11.632  10.217   5.234  0.4216  0.9561 -1.9192
14411SOL    HW260844  11.671  10.093   5.156 -0.2442 -1.5656  1.5165
14412SOL     OW60845   8.475   0.404   2.523  0.1032 -0.1233  0.2310
14412SOL    HW160846   8.411   0.474   2.511 -2.4493 -2.1510  0.8361
14412SOL    HW260847   8.490   0.401   2.618  0.6587 -0.0207  0.1475
14413SOL     OW60848   4.861   4.998   5.354 -0.1211  0.1125 -0.2649
14413SOL    HW160849   4.840   4.909   5.325 -0.3509 -0.1553  0.7135
14413SOL    HW260850   4.846   5.052   5.276  0.1191 -0.7072 -0.8984
14414SOL     OW60851   3.225  11.094   7.372  0.0374  0.1018  0.0704
14414SOL    HW160852   3.229  11.091   7.277 -0.7794 -0.9213  0.0535
14414SOL    HW260853   3.183  11.177   7.392  0.3963  0.4140 -0.4459
14415SOL     OW60854  10.616  11.745   2.214  0.3276  0.3060 -0.0237
14415SOL    HW160855  10.633  11.658   2.179 -2.0415 -0.8104  1.3270
14415SOL    HW260856  10.579  11.794   2.141  1.0357 -0.0207 -0.6095
14416SOL     OW60857  11.496  11.444   3.917 -0.2480 -0.5170 -0.3590
14416SOL    HW160858  11.410  11.405   3.933 -0.5182  0.1403 -0.1715
14416SOL    HW260859  11.512  11.500   3.993  1.0212 -1.7528  0.3424
14417SOL     OW60860   2.276   5.809  10.117 -0.1991  0.2901 -0.1286
14417SOL    HW160861   2.339   5.750  10.160  1.0221  2.9923  2.2068
14417SOL    HW260862   2.196   5.799  10.168 -0.8591 -1.1731 -1.3922
14418SOL     OW60863   1.191   2.343   1.898 -0.1427 -0.2730  0.9618
14418SOL    HW160864   1.171   2.322   1.989 -0.4634 -0.2634  0.8923
14418SOL    HW260865   1.108   2.337   1.852  0.0762 -0.6087  0.6033
14419SOL     OW60866   8.364  13.367   2.804 -0.2020 -0.3336  1.1158
14419SOL    HW160867   8.361  13.438   2.867 -1.0001  1.1969 -0.5572
14419SOL    HW260868   8.291  13.310   2.829 -3.0111  2.2481 -0.5320
14420SOL     OW60869  14.073   3.910   5.394 -0.7087  0.7454  0.0224
14420SOL    HW160870  14.080   3.822   5.431 -1.1593  0.5240 -0.4146
14420SOL    HW260871  13.998   3.906   5.334 -0.8145  1.4596  0.0937
14421SOL     OW60872   7.127  13.640   5.018 -0.3546  0.2819  0.5567
14421SOL    HW160873   7.210  13.660   5.062 -0.3458 -0.2942  0.8123
14421SOL    HW260874   7.091  13.726   4.996  0.1785  0.5485  0.6869
14422SOL     OW60875   3.597   4.130   8.542  0.2720  0.8419  0.3511
14422SOL    HW160876   3.624   4.147   8.632  0.2145  0.0344  0.5277
14422SOL    HW260877   3.502   4.120   8.547  0.1446  1.8078  0.0320
14423SOL     OW60878   5.673   6.977   4.303 -0.4771  0.4147  0.2396
14423SOL    HW160879   5.582   7.005   4.288 -0.8599 -1.0954 -0.4439
14423SOL    HW260880   5.665   6.904   4.365  0.3422  0.7045  0.6969
14424SOL     OW60881  13.552   6.970   4.714  0.4534 -0.3571 -0.4710
14424SOL    HW160882  13.483   6.932   4.659 -1.2178  0.5370  0.9301
14424SOL    HW260883  13.536   6.932   4.801  0.0244  1.8995  0.4869
14425SOL     OW60884  12.903   3.498   4.168  1.0764  0.0357 -0.1505
14425SOL    HW160885  12.998   3.508   4.156  0.9287  0.6326 -0.8619
14425SOL    HW260886  12.893   3.409   4.202  2.0142  0.5048  1.4883
14426SOL     OW60887   2.619   1.789   5.255  0.2881  0.2214 -0.3032
14426SOL    HW160888   2.565   1.745   5.320 -0.2986  0.0269 -0.9168
14426SOL    HW260889   2.668   1.855   5.305 -1.4505  1.2704  0.0776
14427SOL     OW60890   2.370   4.528  11.838  0.4559  0.1269 -0.0542
14427SOL    HW160891   2.410   4.503  11.755 -1.4024  0.9615 -1.2588
14427SOL    HW260892   2.421   4.603  11.868 -0.2185  1.2796 -1.6437
14428SOL     OW60893   2.047   9.169   4.073 -0.1423  0.1089 -0.3694
14428SOL    HW160894   2.085   9.214   3.997 -1.5443  1.7479 -0.1589
14428SOL    HW260895   2.118   9.170   4.138 -0.3835  3.0533  0.0057
14429SOL     OW60896   1.764   2.723  11.921 -0.1266  0.4967 -0.4516
14429SOL    HW160897   1.745   2.635  11.887  0.8530  0.5598 -1.2192
14429SOL    HW260898   1.680   2.755  11.954 -0.0450 -1.8515  2.5787
14430SOL     OW60899   7.941  11.000   4.956 -0.1619  0.1277  0.2088
14430SOL    HW160900   7.998  11.035   5.024 -0.4985  1.3744 -0.1315
14430SOL    HW260901   7.945  10.905   4.969  1.2236  0.2319  0.7893
14431SOL     OW60902   7.100  10.062  10.987 -0.2611 -0.6220  0.2674
14431SOL    HW160903   7.162   9.990  10.979  0.1750 -0.3293  0.9054
14431SOL    HW260904   7.141  10.122  11.050 -1.4012 -0.6506  1.0676
14432SOL     OW60905  10.023   6.680  12.505 -0.2005  0.0583 -0.1742
14432SOL    HW160906  10.104   6.643  12.539 -0.8924  0.2320  1.8197
14432SOL    HW260907   9.980   6.606  12.460  0.8125 -0.1490 -0.8223
14433SOL     OW60908   2.580  12.883   8.457 -0.0499  0.5883  0.2453
14433SOL    HW160909   2.526  12.918   8.528 -1.0023 -0.1575 -0.0860
14433SOL    HW260910   2.518  12.866   8.386  0.8958  1.4247 -0.8239
14434SOL     OW60911  11.090  13.118   0.724  0.2022  0.4217 -0.1423
14434SOL    HW160912  11.065  13.088   0.637  1.4187 -1.0210 -0.0443
14434SOL    HW260913  11.180  13.150   0.713  0.5870 -0.3361  0.6771
14435SOL     OW60914   8.880   5.130  12.594  0.5631 -0.0575  0.0128
14435SOL    HW160915   8.927   5.053  12.629  0.5691 -0.7521 -1.4524
14435SOL    HW260916   8.841   5.171  12.671  1.8958 -0.6107  1.0316
14436SOL     OW60917   1.898   7.582  10.064  0.1972 -0.0588 -0.0935
14436SOL    HW160918   1.894   7.573   9.969 -0.5383  0.4608 -0.1225
14436SOL    HW260919   1.807   7.596  10.090  0.4489  0.2413  0.6389
14437SOL     OW60920   2.558   6.590  10.264 -0.0902  0.1460 -0.0163
14437SOL    HW160921   2.606   6.648  10.323  0.2849 -0.5265  0.3475
14437SOL    HW260922   2.541   6.643  10.186  2.3465  0.0404 -0.6973
14438SOL     OW60923  10.899   0.767   3.540 -0.2518  0.7535 -0.4976
14438SOL    HW160924  10.949   0.701   3.587 -0.4524  0.1382 -1.1202
14438SOL    HW260925  10.889   0.839   3.602 -2.2635 -0.8214  1.1788
14439SOL     OW60926   9.991  11.276   9.082 -0.2873 -0.1076 -0.0872
14439SOL    HW160927   9.986  11.286   9.177  1.4029 -1.1243  0.1388
14439SOL    HW260928   9.936  11.347   9.048  1.2117  1.9827  1.6047
14440SOL     OW60929  11.857   0.533   0.665 -0.0729  0.5621  0.4155
14440SOL    HW160930  11.832   0.441   0.661  1.8961 -0.0875  1.4825
14440SOL    HW260931  11.864   0.551   0.759  2.4370  0.9056  0.2236
14441SOL     OW60932   7.219   2.403   7.081 -0.4597  0.2179 -0.7300
14441SOL    HW160933   7.275   2.375   7.153 -1.2981 -1.0634 -0.5478
14441SOL    HW260934   7.242   2.347   7.008  0.9156  2.0050 -1.7544
14442SOL     OW60935  13.969  10.422  10.983 -0.1264 -0.4736  0.4726
14442SOL    HW160936  14.064  10.423  10.993 -0.1060 -0.1107  0.2420
14442SOL    HW260937  13.939  10.356  11.045  0.2420 -0.3152  0.8191
14443SOL     OW60938  10.901   8.521  10.509  0.0499 -0.4532 -0.0820
14443SOL    HW160939  10.880   8.588  10.444  0.1111  1.6178  1.8703
14443SOL    HW260940  10.961   8.461  10.465  0.8409  1.3958 -1.6551
14444SOL     OW60941   4.824  10.100   1.565 -0.2391  0.0517  0.1681
14444SOL    HW160942   4.793  10.067   1.649 -0.8061 -0.3626 -0.1930
14444SOL    HW260943   4.803  10.193   1.567 -0.3112  0.0305  0.4629
14445SOL     OW60944   2.149  12.059   4.919  0.6304 -0.5212  0.1508
14445SOL    HW160945   2.100  12.114   4.859 -0.3317 -2.0482 -0.5166
14445SOL    HW260946   2.191  11.993   4.864 -0.7438 -2.3147  1.1174
14446SOL     OW60947  12.510   4.103  10.911 -0.1364  0.7496  0.5381
14446SOL    HW160948  12.463   4.054  10.979 -1.0461 -0.4098 -0.8590
14446SOL    HW260949  12.443   4.159  10.872  0.1239  0.6456 -0.0645
14447SOL     OW60950   6.357   4.704   4.792 -0.1041 -0.0778 -0.0492
14447SOL    HW160951   6.420   4.769   4.822 -0.3584 -0.4881  1.4257
14447SOL    HW260952   6.344   4.724   4.699  0.5830  1.3256  0.1410
14448SOL     OW60953   5.504   2.226   5.453  0.1828  0.3306 -0.4591
14448SOL    HW160954   5.459   2.145   5.477  0.0621  0.6478  0.4251
14448SOL    HW260955   5.578   2.197   5.398 -0.1650 -0.3266 -0.5921
14449SOL     OW60956   5.581   5.932   0.478  0.0277 -0.4467 -0.3106
14449SOL    HW160957   5.598   6.002   0.414  0.0102 -0.7603 -0.6595
14449SOL    HW260958   5.637   5.860   0.450 -0.0620 -0.6242 -0.0315
14450SOL     OW60959  12.018   1.217   6.281  0.4314 -0.3269 -0.1141
14450SOL    HW160960  12.018   1.303   6.324 -2.0814  1.2185 -2.8039
14450SOL    HW260961  11.946   1.170   6.322  0.6661 -0.4454  0.1591
14451SOL     OW60962  10.848   7.709   7.298  0.4832  0.2221 -0.4986
14451SOL    HW160963  10.819   7.795   7.266 -1.6637 -0.1108  0.4005
14451SOL    HW260964  10.790   7.647   7.254 -1.6483 -0.3448  2.7848
14452SOL     OW60965   7.256   2.255  14.091  0.5858 -0.5266  0.0917
14452SOL    HW160966   7.302   2.172  14.104  2.1730  0.3333  0.2617
14452SOL    HW260967   7.178   2.248  14.147  1.1655 -1.5431  0.8127
14453SOL     OW60968   7.280   4.304   5.699 -0.0146 -0.4168  0.6806
14453SOL    HW160969   7.327   4.367   5.645 -0.1562  1.0538  2.2013
14453SOL    HW260970   7.195   4.296   5.657  1.0254 -2.0424 -1.3020
14454SOL     OW60971   4.687   0.087   5.970 -0.2100 -0.5986  0.5219
14454SOL    HW160972   4.618   0.034   6.010  1.3557 -2.2675  1.1625
14454SOL    HW260973   4.683   0.064   5.877  0.6192 -2.1376  0.8262
14455SOL     OW60974  10.268   2.790   5.742 -0.1117  0.5479  0.0035
14455SOL    HW160975  10.219   2.757   5.666 -0.2340 -1.4963  0.8863
14455SOL    HW260976  10.354   2.748   5.734  0.7940  2.4135 -0.3862
14456SOL     OW60977   0.350   5.789  13.023  0.3748  0.4763  0.5154
14456SOL    HW160978   0.388   5.873  12.999 -0.2402  0.3741 -0.9720
14456SOL    HW260979   0.256   5.799  13.005  0.4456 -0.8658 -0.8328
14457SOL     OW60980   0.790   9.559   0.376  0.2631  0.1168 -0.0084
14457SOL    HW160981   0.862   9.497   0.384  1.1895  0.8255 -2.0572
14457SOL    HW260982   0.819   9.637   0.423  0.3256 -0.0014  0.1496
14458SOL     OW60983  13.349   4.670   0.403 -0.8666  0.1022 -0.2283
14458SOL    HW160984  13.287   4.629   0.463 -0.2478 -1.4103 -0.5851
14458SOL    HW260985  13.434   4.633   0.427 -0.5183 -0.0562 -1.6051
14459SOL     OW60986   2.169   8.916  12.833 -0.1250  0.1174 -0.3264
14459SOL    HW160987   2.143   9.007  12.848  0.5061  0.3456 -0.5496
14459SOL    HW260988   2.135   8.895  12.747 -0.2659  0.1472 -0.2775
14460SOL     OW60989  13.944   1.607   5.609  0.1133  0.1782  0.2868
14460SOL    HW160990  13.999   1.637   5.682 -0.0676 -0.2495  0.6038
14460SOL    HW260991  13.855   1.618   5.641  0.0339 -0.0402  0.1398
14461SOL     OW60992   4.820   9.384  12.871 -0.6133 -0.1244  0.0925
14461SOL    HW160993   4.837   9.474  12.899 -1.3387  0.2214 -0.5316
14461SOL    HW260994   4.761   9.394  12.796 -0.5690 -1.1152 -0.0784
14462SOL     OW60995  13.138   0.708   9.348  0.9884 -0.0157  0.0198
14462SOL    HW160996  13.062   0.678   9.398  1.6148 -1.9575 -0.0976
14462SOL    HW260997  13.106   0.717   9.258  0.2818  1.8062  0.4130
14463SOL     OW60998   5.361   1.595   2.828  0.0067  0.3150 -0.1107
14463SOL    HW160999   5.341   1.665   2.765  0.5180  0.8820  0.3365
14463SOL    HW261000   5.454   1.607   2.847  0.2004 -0.7380 -0.3139
14464SOL     OW61001  10.651  10.792  10.848 -0.0904  0.5881  0.4107
14464SOL    HW161002  10.596  10.837  10.784  0.6477  2.7784  1.2216
14464SOL    HW261003  10.609  10.809  10.933  1.0575  1.1220  0.8935
14465SOL     OW61004  13.377   7.915   4.022 -0.5414  0.0701  0.1226
14465SOL    HW161005  13.313   7.921   4.094  0.8119 -3.4218  1.8295
14465SOL    HW261006  13.457   7.884   4.064  1.5416  1.6773 -2.3815
14466SOL     OW61007   5.035   4.087   7.515 -0.2934  0.0179  0.3189
14466SOL    HW161008   4.988   4.130   7.443 -1.7346  1.0118  1.7868
14466SOL    HW261009   5.102   4.149   7.541 -0.2277 -0.0401  0.2871
14467SOL     OW61010  10.590  10.236   7.392  0.3321  0.2979  0.2761
14467SOL    HW161011  10.660  10.215   7.331 -0.1989  1.3849 -0.7431
14467SOL    HW261012  10.633  10.242   7.477  1.3056  0.0577 -0.1860
14468SOL     OW61013   4.787   8.261   4.413 -0.3161 -0.3790 -0.1101
14468SOL    HW161014   4.780   8.168   4.391 -0.8743 -0.2226 -0.6351
14468SOL    HW261015   4.807   8.262   4.506 -0.5270 -1.0270 -0.0489
14469SOL     OW61016  10.637   4.025  11.030 -0.4105  0.9649 -0.3545
14469SOL    HW161017  10.599   3.971  11.100  1.6659 -0.4844 -0.2588
14469SOL    HW261018  10.639   4.114  11.066 -0.4798  0.4540  0.9397
14470SOL     OW61019   5.752   7.987   0.616  0.2143  0.1228 -0.0984
14470SOL    HW161020   5.790   8.075   0.620  0.0253  0.2471 -0.9206
14470SOL    HW261021   5.667   7.996   0.660  0.0522  0.4301 -0.4685
14471SOL     OW61022  10.769   4.073   9.875  0.0905 -0.1925 -0.0461
14471SOL    HW161023  10.724   4.154   9.901  0.3451 -0.3484  0.9202
14471SOL    HW261024  10.778   4.081   9.780 -0.9108  0.3847 -0.1141
14472SOL     OW61025   8.585   0.296   4.566 -0.1982  0.4163 -0.0362
14472SOL    HW161026   8.601   0.365   4.630  0.9513  0.1396 -0.0023
14472SOL    HW261027   8.653   0.230   4.585  0.5087  0.5686 -1.8871
14473SOL     OW61028   5.572  10.904   5.423 -0.0622 -0.5694 -0.3173
14473SOL    HW161029   5.611  10.836   5.479 -0.3527 -0.7545 -0.3420
14473SOL    HW261030   5.479  10.902   5.444 -0.0488 -0.0552 -0.1865
14474SOL     OW61031   6.848   6.101   9.937  0.1192  0.1310  0.3552
14474SOL    HW161032   6.892   6.038   9.880 -1.5698 -1.0683  0.2949
14474SOL    HW261033   6.903   6.106  10.015  1.0518 -0.2555 -0.2611
14475SOL     OW61034  14.048   0.714  10.630 -0.5080 -0.8135 -0.1538
14475SOL    HW161035  14.028   0.790  10.684 -0.3395 -1.0231  0.2061
14475SOL    HW261036  14.138   0.728  10.601 -0.2720 -1.1542  0.3909
14476SOL     OW61037   2.617   2.839   3.285  0.3195  0.0099 -0.4464
14476SOL    HW161038   2.523   2.820   3.280  0.2426 -0.2694  1.3145
14476SOL    HW261039   2.636   2.889   3.206 -1.3082  0.0544 -0.8432
14477SOL     OW61040  11.230   0.988  11.302  0.0264  0.2957 -0.3185
14477SOL    HW161041  11.209   0.947  11.218  1.5863 -0.5206 -0.3415
14477SOL    HW261042  11.310   1.038  11.285  0.5264 -0.1160  0.7443
14478SOL     OW61043   6.610  12.219  11.019 -0.1563 -0.2571  0.1942
14478SOL    HW161044   6.602  12.241  10.926 -0.5982 -0.5552  0.1600
14478SOL    HW261045   6.668  12.143  11.021  1.0032  0.6041  0.2776
14479SOL     OW61046   5.386   2.159   4.727 -0.0482 -0.0829  0.4443
14479SOL    HW161047   5.406   2.189   4.638  2.7274  0.5542  1.1974
14479SOL    HW261048   5.371   2.240   4.776 -2.1390 -0.4522  0.5009
14480SOL     OW61049   2.734  10.508   0.954 -0.6827 -0.0700  0.2998
14480SOL    HW161050   2.769  10.452   0.886 -1.0714 -0.1439  0.1579
14480SOL    HW261051   2.677  10.570   0.908  0.0021  0.6601  0.4103
14481SOL     OW61052   4.001  11.999   3.704 -0.0524  0.3045  0.3656
14481SOL    HW161053   4.032  12.046   3.627  1.1495 -3.1741 -1.4975
14481SOL    HW261054   4.077  11.997   3.762  0.7091 -1.2035 -0.6053
14482SOL     OW61055   0.487   3.676   3.972  0.0239 -0.1354 -0.0340
14482SOL    HW161056   0.517   3.655   3.884  0.4429 -1.5205  0.4033
14482SOL    HW261057   0.567   3.693   4.022 -0.0670 -1.1964  0.5028
14483SOL     OW61058  10.724   9.033   8.901  0.3758 -0.2681 -0.4075
14483SOL    HW161059  10.768   9.117   8.915 -0.8699  0.3581  0.0085
14483SOL    HW261060  10.693   9.008   8.988  1.2118 -1.4521 -0.4408
14484SOL     OW61061   6.221   5.018   4.718 -0.2866  0.0179 -0.2835
14484SOL    HW161062   6.223   5.011   4.814 -1.7208 -0.1972 -0.2425
14484SOL    HW261063   6.145   4.966   4.692  1.0965 -1.4173 -1.7019
14485SOL     OW61064  12.511   8.252   2.411  0.0077 -0.0809 -0.1149
14485SOL    HW161065  12.554   8.166   2.410  0.5171  0.1752 -0.8289
14485SOL    HW261066  12.539   8.291   2.494  0.4466 -0.2802 -0.1653
14486SOL     OW61067   0.141   5.319   8.349  0.3741  0.2052 -0.7671
14486SOL    HW161068   0.104   5.231   8.346  1.8284 -0.4099 -1.7927
14486SOL    HW261069   0.197   5.320   8.426 -1.5432  1.0953  0.7085
14487SOL     OW61070  11.809   9.937   4.300 -0.1815 -0.2132  0.2907
14487SOL    HW161071  11.799  10.027   4.332  0.1037  0.3559 -1.1263
14487SOL    HW261072  11.775   9.882   4.371 -1.2416  1.0564  0.8084
14488SOL     OW61073  10.160   1.506   6.919  0.1628  0.1173  0.2565
14488SOL    HW161074  10.134   1.595   6.944  0.5915 -0.2046  1.9659
14488SOL    HW261075  10.239   1.489   6.970  0.0523 -1.2706  0.0005
14489SOL     OW61076   1.761   1.210   1.280 -0.2608 -0.0293  0.1184
14489SOL    HW161077   1.838   1.198   1.335  0.4023 -1.2373 -1.0097
14489SOL    HW261078   1.687   1.190   1.337  0.3517 -0.2935  0.8291
14490SOL     OW61079   6.146   8.103   4.383 -0.3016  0.0409  0.2457
14490SOL    HW161080   6.145   8.007   4.383  0.0352  0.0241  1.5399
14490SOL    HW261081   6.055   8.127   4.404 -0.6493  0.0403 -1.1450
14491SOL     OW61082   3.046  13.819   2.744  0.4275 -0.0497 -0.5683
14491SOL    HW161083   2.976  13.829   2.809 -1.8426  0.7268 -2.9693
14491SOL    HW261084   3.050  13.725   2.727  0.1676 -0.1281 -0.2052
14492SOL     OW61085  11.464  12.288  13.298 -0.1847 -0.3548  0.1446
14492SOL    HW161086  11.470  12.259  13.388  2.0626 -1.0042 -0.1478
14492SOL    HW261087  11.433  12.212  13.250 -0.1872 -0.3933  0.2080
14493SOL     OW61088   0.739   0.805  12.204  0.1606 -0.3777  0.3054
14493SOL    HW161089   0.687   0.826  12.126  2.0997 -0.2002 -0.9964
14493SOL    HW261090   0.814   0.863  12.199 -0.2510  0.5329  3.0207
14494SOL     OW61091  13.712  12.211   5.612 -0.3518  0.1838 -0.7615
14494SOL    HW161092  13.684  12.127   5.576 -0.5571  0.5907 -1.5569
14494SOL    HW261093  13.758  12.187   5.693 -1.1647 -0.6293 -0.5223
14495SOL     OW61094  13.023   9.244   4.483 -1.0073 -0.2729  0.0089
14495SOL    HW161095  13.003   9.273   4.572 -0.0420  1.0965 -0.1917
14495SOL    HW261096  13.108   9.199   4.491  0.3067  1.9513 -0.5343
14496SOL     OW61097   8.306   4.455  13.821  0.0491  0.8057  0.1587
14496SOL    HW161098   8.384   4.451  13.877  0.0920  2.8979  0.3476
14496SOL    HW261099   8.233   4.458  13.882  0.1430  4.2520  0.3153
14497SOL     OW61100  13.788   0.315   1.581 -0.0806 -0.7882  0.8052
14497SOL    HW161101  13.835   0.319   1.498 -1.1897  1.0073  0.2037
14497SOL    HW261102  13.698   0.338   1.559  0.0530  2.2853  2.7645
14498SOL     OW61103   2.672  12.772   5.352  0.2041 -0.1748 -0.3627
14498SOL    HW161104   2.698  12.781   5.443 -0.2273 -0.8939 -0.1544
14498SOL    HW261105   2.700  12.683   5.328 -2.7744 -1.3785  0.1587
14499SOL     OW61106   2.401   6.971   8.835 -0.1261  0.3253 -0.0660
14499SOL    HW161107   2.373   7.006   8.750  0.6213 -1.4539 -1.1269
14499SOL    HW261108   2.474   7.026   8.861  1.6966 -0.8987 -2.1901
14500SOL     OW61109   3.635   9.129   6.661 -0.1860 -0.8326  0.0341
14500SOL    HW161110   3.601   9.048   6.699  1.2495 -0.9919  1.0951
14500SOL    HW261111   3.615   9.197   6.726 -1.1645 -0.3607 -0.7370
14501SOL     OW61112   9.309   8.170   1.508 -0.4193  0.7072 -0.4702
14501SOL    HW161113   9.264   8.210   1.433  0.2893  0.3052 -1.1209
14501SOL    HW261114   9.400   8.200   1.500  0.5313 -2.1901 -1.8869
14502SOL     OW61115  13.885   9.208  10.775 -0.3051 -0.5913 -0.3020
14502SOL    HW161116  13.922   9.122  10.797  0.6769 -0.1278 -0.1231
14502SOL    HW261117  13.868   9.203  10.681 -1.0674 -1.2780 -0.1417
14503SOL     OW61118   4.326  10.870   6.075  0.0070  0.7242  0.1420
14503SOL    HW161119   4.295  10.932   6.009 -0.7664 -0.3233 -0.5125
14503SOL    HW261120   4.367  10.925   6.142  2.5289  1.7214 -2.0361
14504SOL     OW61121   9.924  10.197   7.850 -0.1788 -0.7985 -0.1633
14504SOL    HW161122   9.970  10.186   7.766  1.0479  0.7988  0.2453
14504SOL    HW261123   9.935  10.289   7.871 -0.1453 -1.2313  1.9417
14505SOL     OW61124   5.384   8.620  13.161  0.0538 -0.0138  0.0723
14505SOL    HW161125   5.445   8.562  13.206 -0.5001  0.1643  1.0955
14505SOL    HW261126   5.298   8.584  13.181 -0.3396  1.3723  1.1250
14506SOL     OW61127   1.469   5.794  11.055 -0.9494  0.1852 -0.3211
14506SOL    HW161128   1.488   5.748  11.137 -1.2864  1.6930  0.6642
14506SOL    HW261129   1.471   5.887  11.080 -0.5017  0.6936 -2.1640
14507SOL     OW61130  13.635  10.939  10.533 -0.1663  0.2156  0.6339
14507SOL    HW161131  13.700  10.873  10.509  1.1669  1.2246  1.3663
14507SOL    HW261132  13.653  11.013  10.476 -1.9742 -0.1703 -0.5247
14508SOL     OW61133   6.244   9.733   3.458  0.1499  0.5561  0.3113
14508SOL    HW161134   6.243   9.798   3.529 -0.4244  0.4745  0.3780
14508SOL    HW261135   6.295   9.775   3.389  1.2616  0.3858  1.0009
14509SOL     OW61136   8.158  11.169   5.087  0.0733 -0.1013  0.5431
14509SOL    HW161137   8.117  11.255   5.098  0.4888  0.0226  1.2013
14509SOL    HW261138   8.179  11.142   5.176  0.9029 -0.4155  0.2584
14510SOL     OW61139   5.191   6.862   5.024  0.0961 -0.6608  0.2924
14510SOL    HW161140   5.169   6.788   5.081  1.4109 -1.1195  0.2436
14510SOL    HW261141   5.140   6.847   4.945 -0.0932 -1.2018  0.5092
14511SOL     OW61142   4.044   8.429   7.258  0.2283  0.0360  0.0857
14511SOL    HW161143   4.015   8.517   7.237  0.6814  0.5566  1.5194
14511SOL    HW261144   4.110   8.441   7.325  1.3564 -1.3246 -0.7302
14512SOL     OW61145   4.990   1.973   7.143  0.3451 -0.4001  0.4276
14512SOL    HW161146   4.964   2.061   7.119  1.0300 -0.4654 -0.6060
14512SOL    HW261147   4.917   1.917   7.116  0.3247 -0.2575  0.1898
14513SOL     OW61148  10.253   0.248   4.785 -0.4552 -0.2429  0.2878
14513SOL    HW161149  10.185   0.209   4.840 -0.1983 -0.9693  0.1120
14513SOL    HW261150  10.316   0.177   4.772 -1.6671 -0.9027 -2.9365
14514SOL     OW61151  11.258   5.374  13.042  0.1510 -0.2877 -0.5311
14514SOL    HW161152  11.196   5.425  12.990 -1.7115 -0.5344  1.3074
14514SOL    HW261153  11.335   5.430  13.049 -0.8311  1.1516 -0.7895
14515SOL     OW61154  10.813   5.207   9.747  0.1250  0.0622  0.4063
14515SOL    HW161155  10.853   5.278   9.696  0.2328  0.0611  0.4897
14515SOL    HW261156  10.809   5.241   9.837 -0.2970  0.1638  0.3544
14516SOL     OW61157   8.433   2.768  13.693 -0.0508  0.6953 -0.5483
14516SOL    HW161158   8.465   2.706  13.626 -1.8063  0.5512 -1.3129
14516SOL    HW261159   8.372   2.717  13.746 -0.4587  1.4144 -0.3093
14517SOL     OW61160   9.726  11.670   4.442  0.3226 -0.0699 -0.1853
14517SOL    HW161161   9.717  11.747   4.498  1.5090  0.5855 -0.8417
14517SOL    HW261162   9.640  11.661   4.401 -0.5042 -0.4563  1.5594
14518SOL     OW61163   2.376   0.324   5.881 -0.4925  0.3518 -0.2976
14518SOL    HW161164   2.390   0.336   5.975 -0.3479  2.0285 -0.4980
14518SOL    HW261165   2.281   0.326   5.870 -0.5798 -1.3815 -0.0326
14519SOL     OW61166   7.299   0.383   8.149  0.4840  0.3418 -0.0483
14519SOL    HW161167   7.336   0.469   8.167  1.4739 -0.0148 -0.3041
14519SOL    HW261168   7.325   0.364   8.059  0.1540 -0.1717 -0.0419
14520SOL     OW61169   6.451   2.632   7.203 -0.7799  0.1155 -0.5441
14520SOL    HW161170   6.523   2.616   7.143  0.4612  0.6281  0.7470
14520SOL    HW261171   6.406   2.708   7.167 -1.4999 -0.9703 -2.0527
14521SOL     OW61172  13.682   0.187  13.269 -0.1334  0.3252 -0.1067
14521SOL    HW161173  13.706   0.199  13.361  0.8393  0.3090 -0.3455
14521SOL    HW261174  13.692   0.093  13.253  0.8568  0.4897 -0.5248
14522SOL     OW61175   7.175  13.903   5.914  0.2875  0.4560  0.1116
14522SOL    HW161176   7.196  13.915   6.007  0.2529  0.5271  0.1103
14522SOL    HW261177   7.188  13.810   5.899 -0.2161  0.3500  0.3145
14523SOL     OW61178   0.475   1.479   8.541 -0.0065 -0.2633  0.1806
14523SOL    HW161179   0.544   1.543   8.524 -0.2273 -0.0975 -0.1028
14523SOL    HW261180   0.461   1.483   8.636  1.5434 -1.5174  0.5023
14524SOL     OW61181   5.563  12.400  11.554 -0.3668  0.0727 -0.2206
14524SOL    HW161182   5.657  12.411  11.540  0.0235  0.3963  2.2120
14524SOL    HW261183   5.535  12.482  11.595 -1.2350 -0.8074  1.0356
14525SOL     OW61184  10.144  12.334   6.585 -0.2422  0.4731  0.3538
14525SOL    HW161185  10.229  12.290   6.580 -1.0421 -1.3757  1.9430
14525SOL    HW261186  10.157  12.416   6.537  1.9063 -0.5592 -0.9782
14526SOL     OW61187  13.001   2.103  10.023  0.5404 -0.2941  0.1378
14526SOL    HW161188  12.965   2.140  10.103  1.6421 -0.9195  0.9403
14526SOL    HW261189  12.965   2.159   9.953 -1.3170 -0.4098  0.9323
14527SOL     OW61190   1.451  10.699  10.901 -0.2798  0.0254 -0.4924
14527SOL    HW161191   1.415  10.671  10.817 -1.8738 -2.9214  1.0424
14527SOL    HW261192   1.381  10.749  10.942 -1.0955 -1.9886  0.6831
14528SOL     OW61193   1.016  10.202  12.133  0.0334  0.0388  0.5701
14528SOL    HW161194   1.072  10.170  12.062 -0.9685 -1.7061  0.4844
14528SOL    HW261195   0.965  10.272  12.093  1.0154  0.5658  0.2058
14529SOL     OW61196  11.242   1.912   3.098 -0.2891 -0.4562 -0.4540
14529SOL    HW161197  11.317   1.853   3.093  0.8951  0.5490  3.0440
14529SOL    HW261198  11.255   1.974   3.026  0.5202 -2.0911 -1.7662
14530SOL     OW61199   2.811   4.067  12.710  0.5270 -0.4239  0.6140
14530SOL    HW161200   2.749   4.135  12.737  0.6420 -0.4273  0.8926
14530SOL    HW261201   2.897   4.109  12.715  0.4256  0.1130 -1.4495
14531SOL     OW61202   7.047  10.161   3.095 -0.1111  0.2650  0.7278
14531SOL    HW161203   7.118  10.098   3.084  0.6438  1.3011 -0.6810
14531SOL    HW261204   6.970  10.117   3.059  0.4239  0.1527 -0.3214
14532SOL     OW61205   2.647  11.793   3.452  0.2181 -0.0580  0.5870
14532SOL    HW161206   2.740  11.778   3.468  1.0496  2.2944 -1.3250
14532SOL    HW261207   2.636  11.888   3.462 -1.4697  0.0154 -1.3413
14533SOL     OW61208   2.144   9.181   0.101  0.4445 -0.2395 -0.5829
14533SOL    HW161209   2.116   9.197   0.192 -1.0802 -0.8800 -0.9129
14533SOL    HW261210   2.175   9.091   0.101  1.8215  0.2080 -0.4082
14534SOL     OW61211   0.881   8.713   3.842  0.4376  0.4710  0.0598
14534SOL    HW161212   0.879   8.763   3.760  0.4182 -0.1993 -0.3529
14534SOL    HW261213   0.833   8.767   3.904  0.2422  0.8721 -0.4355
14535SOL     OW61214   2.669   1.939  11.572  0.0139  0.2040 -0.0418
14535SOL    HW161215   2.759   1.940  11.540  0.1346 -1.3316  0.1570
14535SOL    HW261216   2.662   2.017  11.628  1.4754 -0.0985  0.6038
14536SOL     OW61217  13.062  11.526   3.825  0.2713 -0.1148  0.3975
14536SOL    HW161218  12.973  11.492   3.830  0.1394  0.0033 -0.7954
14536SOL    HW261219  13.118  11.450   3.843  0.0488 -1.6350 -4.1706
14537SOL     OW61220   2.366   1.394  11.011 -0.0586  0.1270 -0.3757
14537SOL    HW161221   2.380   1.403  10.917  1.8169 -1.6185 -0.3525
14537SOL    HW261222   2.449   1.357  11.044 -1.1052 -0.5137  1.7446
14538SOL     OW61223   7.082  12.876   5.266  0.2452 -0.4927  0.0017
14538SOL    HW161224   7.101  12.937   5.195  0.8800 -1.0715 -0.3450
14538SOL    HW261225   7.134  12.798   5.245  1.5914 -0.1584  1.8650
14539SOL     OW61226   8.692   7.520   2.081  0.5049  0.2521 -0.5276
14539SOL    HW161227   8.652   7.606   2.068  0.6245  1.0097  3.0060
14539SOL    HW261228   8.783   7.538   2.104  0.3726 -0.7003  0.9298
14540SOL     OW61229  13.675   5.157   8.868  0.0496  0.0017  0.1524
14540SOL    HW161230  13.592   5.110   8.876  0.2318 -0.4382 -0.4437
14540SOL    HW261231  13.742   5.088   8.875  0.3559  0.3096  0.3093
14541SOL     OW61232   0.879   9.141   2.733  0.3431  0.0235  0.6201
14541SOL    HW161233   0.893   9.234   2.718  0.6780  0.0319  0.9667
14541SOL    HW261234   0.937   9.120   2.806  1.7030 -0.8653 -0.6529
14542SOL     OW61235   7.821  13.180   0.303 -0.1721  0.5522  0.2563
14542SOL    HW161236   7.750  13.223   0.255 -0.2229  1.2961  0.9768
14542SOL    HW261237   7.897  13.235   0.286 -0.2856  1.0927  1.3705
14543SOL     OW61238   0.134   7.393   1.269  0.6079 -0.2714  0.4672
14543SOL    HW161239   0.211   7.408   1.214  0.5556  0.8796  0.6863
14543SOL    HW261240   0.167   7.399   1.358  0.1764  0.7906  0.5663
14544SOL     OW61241   3.563   6.295  11.390  0.9440  0.2590 -0.5153
14544SOL    HW161242   3.639   6.321  11.338  1.4330 -1.9757 -0.9991
14544SOL    HW261243   3.576   6.202  11.407  0.1629  0.5979  2.5678
14545SOL     OW61244   9.773   5.554   3.283  0.1098 -0.3726 -0.4904
14545SOL    HW161245   9.795   5.508   3.202 -1.4110 -1.0259 -0.5663
14545SOL    HW261246   9.707   5.618   3.257  0.3968  0.1637  0.0632
14546SOL     OW61247  12.742   4.784  12.081 -0.3269  0.3408 -0.7758
14546SOL    HW161248  12.720   4.698  12.116  1.9126  0.2638  0.6751
14546SOL    HW261249  12.818   4.768  12.025  2.3411  1.6187  2.1238
14547SOL     OW61250   1.812   6.953   4.496 -0.3533 -0.1686 -0.0594
14547SOL    HW161251   1.732   6.999   4.522 -0.3448  0.8292 -1.6905
14547SOL    HW261252   1.802   6.865   4.533 -0.9644  0.7031  2.0528
14548SOL     OW61253   6.351   5.623  10.934  0.2839  0.3883 -0.1022
14548SOL    HW161254   6.415   5.666  10.876  1.7363  0.5667  1.5497
14548SOL    HW261255   6.310   5.695  10.982 -0.7950  0.2289 -0.7429
14549SOL     OW61256   8.608  10.501   4.703 -0.3798 -0.1777 -0.0882
14549SOL    HW161257   8.686  10.466   4.659 -0.2267  0.8095 -0.6354
14549SOL    HW261258   8.581  10.432   4.764  0.1172 -1.0813 -0.8774
14550SOL     OW61259   1.934   1.854  13.486  0.5984  0.2402 -0.0324
14550SOL    HW161260   1.901   1.764  13.496 -0.0871  0.3434 -1.1397
14550SOL    HW261261   1.950   1.884  13.575  0.3942 -0.8230  0.3799
14551SOL     OW61262  11.517  10.297   6.668 -0.8025  0.1675  0.4441
14551SOL    HW161263  11.550  10.308   6.579 -2.4853  2.0345 -0.0109
14551SOL    HW261264  11.572  10.356   6.721 -1.4066  0.9677  0.1971
14552SOL     OW61265   1.277  10.752   0.269 -0.3809  0.6697  0.5631
14552SOL    HW161266   1.184  10.753   0.243 -0.2449 -2.6604 -0.5639
14552SOL    HW261267   1.301  10.659   0.266  3.0468  1.4406  0.7442
14553SOL     OW61268   9.641  10.964   2.748 -0.1099 -0.0184  0.3022
14553SOL    HW161269   9.730  10.928   2.739 -0.4402 -0.5825 -0.9781
14553SOL    HW261270   9.652  11.058   2.737  0.1790 -0.2148 -1.3585
14554SOL     OW61271   9.385  10.877  10.538 -0.2244  0.1124 -0.4484
14554SOL    HW161272   9.412  10.834  10.456 -0.8465 -0.1882 -0.4973
14554SOL    HW261273   9.401  10.811  10.606 -0.8043 -0.0587 -0.4746
14555SOL     OW61274  10.400   0.391   8.916  0.2653  0.1105  0.4761
14555SOL    HW161275  10.396   0.346   9.000 -1.7020 -0.4313  0.1442
14555SOL    HW261276  10.486   0.369   8.881  0.5350 -0.8712  1.6833
14556SOL     OW61277   4.619   3.600  12.162 -0.3890  0.0379  0.4352
14556SOL    HW161278   4.689   3.538  12.147 -0.5063 -0.0792  0.3713
14556SOL    HW261279   4.597   3.590  12.255  0.8824  1.3271  0.9179
14557SOL     OW61280   1.840   2.274   0.691  0.1718 -0.1114 -0.2546
14557SOL    HW161281   1.748   2.296   0.680 -0.2115 -0.8732  1.1237
14557SOL    HW261282   1.855   2.278   0.785  1.4562 -0.3611 -0.4205
14558SOL     OW61283   8.044   0.256   7.085  0.1847 -0.4454 -0.0544
14558SOL    HW161284   8.094   0.178   7.062 -1.1739 -1.1304 -0.7802
14558SOL    HW261285   8.079   0.325   7.029  1.2360 -0.5620  0.4317
14559SOL     OW61286   2.866   5.099   9.490 -0.2578 -0.0558 -0.7548
14559SOL    HW161287   2.906   5.051   9.562  1.3757 -0.4980 -1.8978
14559SOL    HW261288   2.817   5.032   9.441 -0.5249  0.0402 -0.6169
14560SOL     OW61289   2.688  12.034   0.549 -0.1191  0.2702 -0.9233
14560SOL    HW161290   2.763  11.993   0.505 -0.6234  0.8944 -2.4326
14560SOL    HW261291   2.651  12.093   0.484  0.0687  2.5222  0.8697
14561SOL     OW61292   0.219   4.268   6.503  0.1150  0.0425 -0.2560
14561SOL    HW161293   0.245   4.208   6.432  1.2152  1.2040 -0.8772
14561SOL    HW261294   0.275   4.243   6.577 -2.6936 -2.8214  1.1591
14562SOL     OW61295   0.412   4.362   2.114  0.0529  0.4195  0.1588
14562SOL    HW161296   0.486   4.338   2.171  0.7248  0.4415 -0.6840
14562SOL    HW261297   0.448   4.427   2.054 -0.8195  0.8831  0.1256
14563SOL     OW61298   4.326   4.965  13.548  1.0022 -0.3728 -0.6784
14563SOL    HW161299   4.335   4.912  13.469 -1.2076 -1.0453 -0.5549
14563SOL    HW261300   4.265   5.034  13.524 -0.2214 -0.9635  0.5678
14564SOL     OW61301   1.610   4.429   4.503  0.2054  0.2508 -0.0882
14564SOL    HW161302   1.585   4.517   4.477  0.1041  0.6270  1.2384
14564SOL    HW261303   1.533   4.375   4.483  0.0737  0.5593 -0.4090
14565SOL     OW61304   8.596   6.718  12.846  0.3332  0.2687  0.4641
14565SOL    HW161305   8.659   6.789  12.839  2.2867 -1.4016  0.1122
14565SOL    HW261306   8.533   6.734  12.776  1.8743  0.6137 -0.8984
14566SOL     OW61307  10.060   1.552   6.248 -0.1300 -0.6469  0.3204
14566SOL    HW161308  10.080   1.644   6.267  0.5738 -0.8002  0.3368
14566SOL    HW261309   9.968   1.542   6.273 -0.4523  0.2601 -0.4386
14567SOL     OW61310  10.926  11.492   6.312 -0.1989 -0.2316  0.0136
14567SOL    HW161311  10.875  11.491   6.393 -1.4996 -0.1231 -0.7789
14567SOL    HW261312  10.963  11.581   6.309 -0.6711 -0.0241  0.1769
14568SOL     OW61313  11.284  10.107   7.045 -0.6523  0.1885 -0.0207
14568SOL    HW161314  11.363  10.104   7.099  1.4976  1.0115 -2.8443
14568SOL    HW261315  11.263  10.015   7.028  2.0353 -0.1809 -2.1391
14569SOL     OW61316  12.635  10.298   5.377  0.0850  0.0447  0.2637
14569SOL    HW161317  12.598  10.340   5.455 -0.0755  0.4358 -0.0147
14569SOL    HW261318  12.728  10.287   5.397  0.3898  1.6342 -0.0900
14570SOL     OW61319   7.704  13.837  11.565 -0.2857  0.6688  0.0426
14570SOL    HW161320   7.762  13.858  11.492 -2.2395 -0.0165 -1.8036
14570SOL    HW261321   7.666  13.921  11.591  0.2606  0.8861  0.1459
14571SOL     OW61322   8.063  11.289   7.093  0.4762 -0.0080 -0.3440
14571SOL    HW161323   8.079  11.365   7.037  0.2236  0.7720  0.5935
14571SOL    HW261324   7.969  11.291   7.110  0.6306  0.1583  0.5964
14572SOL     OW61325   2.250   0.976   9.316 -0.2612 -0.3345  0.0395
14572SOL    HW161326   2.233   0.964   9.409 -0.6378 -0.9744 -0.1065
14572SOL    HW261327   2.184   0.922   9.272 -0.7071  0.6979 -0.6198
14573SOL     OW61328   3.361   3.775   5.768  0.5424 -0.0438 -0.0416
14573SOL    HW161329   3.405   3.720   5.704  3.2394 -1.4899  2.8016
14573SOL    HW261330   3.417   3.852   5.777 -0.6164  0.8895 -0.4255
14574SOL     OW61331   2.572   9.025  10.243 -0.0506  0.2308 -0.5736
14574SOL    HW161332   2.607   8.942  10.276  0.0277  0.4158 -0.1896
14574SOL    HW261333   2.603   9.030  10.153  1.8107  0.8862  0.0520
14575SOL     OW61334   4.693   0.669  13.653 -0.4251  0.4732  0.3085
14575SOL    HW161335   4.686   0.609  13.579  0.3132  0.2969  0.3772
14575SOL    HW261336   4.627   0.737  13.636 -1.0883 -0.2085  0.1026
14576SOL     OW61337   8.004  13.055   5.080  0.0499 -0.1327  0.1560
14576SOL    HW161338   8.095  13.054   5.109  0.7877  0.2282 -1.9718
14576SOL    HW261339   8.000  13.123   5.013 -1.7370 -0.3264 -0.0034
14577SOL     OW61340   4.731   9.885  13.266  0.0126  0.0482 -0.1331
14577SOL    HW161341   4.768   9.905  13.180 -1.3774 -0.8144 -0.9938
14577SOL    HW261342   4.664   9.818  13.247 -3.5073  2.9333  0.9162
14578SOL     OW61343  10.169  11.147   8.339  0.1934  0.1367  0.2588
14578SOL    HW161344  10.106  11.148   8.411  0.1482 -2.3793  0.3233
14578SOL    HW261345  10.119  11.112   8.265  1.2430 -0.9263  0.0423
14579SOL     OW61346  12.000   0.303   0.372 -0.1890 -0.1805  0.2381
14579SOL    HW161347  12.070   0.281   0.310  0.3388  0.0370  0.7513
14579SOL    HW261348  11.924   0.319   0.317  0.0441 -0.8810 -0.2988
14580SOL     OW61349   9.026   3.796   3.807  0.1879  0.0465  0.1578
14580SOL    HW161350   9.055   3.713   3.845 -0.4825  0.6875  2.1388
14580SOL    HW261351   9.093   3.859   3.833 -0.3885  0.5366  0.4732
14581SOL     OW61352   0.745   9.285   5.601 -0.1120 -0.1971 -0.2377
14581SOL    HW161353   0.678   9.324   5.545 -0.4657  0.3661  0.5563
14581SOL    HW261354   0.787   9.359   5.644 -1.3722 -0.6731  1.9660
14582SOL     OW61355   8.904   5.955  12.749 -0.5242  0.2643  0.2746
14582SOL    HW161356   8.825   5.922  12.705  0.7888 -0.4290 -1.7092
14582SOL    HW261357   8.922   5.890  12.818 -0.2092 -1.0949 -1.0295
14583SOL     OW61358  12.437   3.275   4.747 -0.0112  0.1488 -0.7445
14583SOL    HW161359  12.481   3.302   4.666  1.9242  0.0052  0.2185
14583SOL    HW261360  12.380   3.202   4.720 -1.7766  2.0275 -2.5022
14584SOL     OW61361  10.601   9.175   3.474  0.1545  0.2017  0.6682
14584SOL    HW161362  10.628   9.258   3.514 -3.2978  2.2530 -0.7233
14584SOL    HW261363  10.528   9.145   3.527  0.7910 -1.5290  0.6183
14585SOL     OW61364   0.097  12.493   4.317  0.4743 -0.5495 -0.1067
14585SOL    HW161365   0.179  12.541   4.309  0.1346  0.2234  0.7492
14585SOL    HW261366   0.070  12.507   4.408 -0.4561 -1.0290 -0.2895
14586SOL     OW61367  11.529   7.400  13.483  0.3860 -0.7246  0.0099
14586SOL    HW161368  11.505   7.492  13.480  3.3305  0.1528  0.3015
14586SOL    HW261369  11.549   7.377  13.392  1.7589 -0.4008  0.2083
14587SOL     OW61370   3.901   5.528   1.045  0.3457 -0.2527 -0.4657
14587SOL    HW161371   3.876   5.620   1.036 -0.8276 -0.5336 -0.2766
14587SOL    HW261372   3.974   5.517   0.984 -0.3026  0.5126 -1.4123
14588SOL     OW61373   4.022   2.433   2.628 -0.1249 -0.9035 -0.4351
14588SOL    HW161374   3.944   2.458   2.678  1.4567 -1.0775  2.3458
14588SOL    HW261375   4.066   2.517   2.610  0.5656 -0.9865  0.7659
14589SOL     OW61376  13.549   0.057  10.294  0.0160  0.2871  0.1130
14589SOL    HW161377  13.552   0.144  10.255 -0.1015 -0.2577 -1.1585
14589SOL    HW261378  13.456   0.044  10.316 -0.1799  0.0192 -0.8253
14590SOL     OW61379  13.060   8.877   5.465  0.1128 -0.2836 -0.1121
14590SOL    HW161380  13.003   8.911   5.534  0.6299  1.9669 -0.6976
14590SOL    HW261381  13.116   8.813   5.509  0.8081  1.4838  1.7422
14591SOL     OW61382   6.177   4.674   1.572 -0.0196 -0.3210  0.1334
14591SOL    HW161383   6.088   4.698   1.547  0.0717  0.6897  0.7279
14591SOL    HW261384   6.232   4.731   1.519  0.1997  1.0292  1.7239
14592SOL     OW61385   5.238   1.846  10.093 -1.1071 -0.2606 -0.1061
14592SOL    HW161386   5.259   1.755  10.116 -1.1056 -0.4885 -0.9512
14592SOL    HW261387   5.163   1.839  10.034 -0.4235  0.2003 -1.0494
14593SOL     OW61388  10.229  11.713   8.443 -0.4848 -0.3067  0.3462
14593SOL    HW161389  10.252  11.663   8.365  1.0826  2.1412 -0.9015
14593SOL    HW261390  10.136  11.734   8.432  0.0228  1.1508 -1.6471
14594SOL     OW61391   4.482  10.123   6.004  0.1087  0.1167 -0.4968
14594SOL    HW161392   4.469  10.211   5.968  0.6758 -0.4855 -2.2726
14594SOL    HW261393   4.461  10.064   5.932  0.4634 -1.2037  0.4350
14595SOL     OW61394  11.923  10.318   6.351  0.1515  0.5545  0.0952
14595SOL    HW161395  11.994  10.286   6.295 -0.3836 -0.2098 -0.1690
14595SOL    HW261396  11.949  10.291   6.439 -0.6054 -1.2660 -0.1989
14596SOL     OW61397  12.612   4.518  13.537  0.3787 -0.0217 -0.7482
14596SOL    HW161398  12.683   4.465  13.499 -0.6637 -1.7897 -0.3022
14596SOL    HW261399  12.553   4.534  13.463  0.1142 -0.4536 -0.6282
14597SOL     OW61400   6.588   0.835   4.535  0.1213 -0.8362  0.2672
14597SOL    HW161401   6.542   0.862   4.456 -0.7613  0.1031  1.0648
14597SOL    HW261402   6.520   0.794   4.589 -0.1588  1.5716  1.9421
14598SOL     OW61403   8.892   7.326   3.360 -0.2298 -0.6644 -0.2242
14598SOL    HW161404   8.814   7.292   3.404  0.1227 -0.8967  0.2232
14598SOL    HW261405   8.910   7.409   3.404 -0.0665 -0.7410 -0.1470
14599SOL     OW61406  10.395  10.588   5.025 -0.1677 -0.4783  0.4050
14599SOL    HW161407  10.444  10.670   5.027  0.8420 -1.0548 -0.0947
14599SOL    HW261408  10.325  10.600   5.090  0.5418  0.4184  1.0229
14600SOL     OW61409  13.207   6.831   1.482  0.5435  0.2892 -0.1545
14600SOL    HW161410  13.271   6.796   1.421  0.2688  2.6561 -1.9239
14600SOL    HW261411  13.246   6.911   1.516 -0.7500  0.8591  0.0697
14601SOL     OW61412  11.169  13.507   5.031 -0.1004  0.0783 -0.4435
14601SOL    HW161413  11.240  13.548   4.981 -0.8960 -0.1367 -1.7862
14601SOL    HW261414  11.178  13.414   5.012 -1.3962  0.1527 -1.5048
14602SOL     OW61415  12.807   9.892   5.684 -0.0590  0.0247 -0.0830
14602SOL    HW161416  12.757   9.832   5.739 -0.3644  0.5245  0.1888
14602SOL    HW261417  12.744   9.924   5.620 -0.1719  0.9012  0.4575
14603SOL     OW61418   3.691  11.616   9.898  0.0295  0.3009  0.2686
14603SOL    HW161419   3.750  11.692   9.898  1.6108 -0.8866  0.3770
14603SOL    HW261420   3.709  11.572   9.981 -0.6424 -0.3696  0.0651
14604SOL     OW61421   4.606  10.145  13.858 -0.3880  0.1719  0.1365
14604SOL    HW161422   4.530  10.114  13.908 -0.5541  0.3509 -0.0014
14604SOL    HW261423   4.673  10.162  13.924 -0.1647 -0.8273  0.1889
14605SOL     OW61424   9.973   2.030  12.189  0.1544  0.4675  0.0096
14605SOL    HW161425   9.915   1.976  12.135 -1.6124  0.9200  1.3621
14605SOL    HW261426   9.975   1.985  12.273  0.7509  1.1407  0.3594
14606SOL     OW61427   5.903  10.441  10.126 -0.8617  0.5622 -0.5486
14606SOL    HW161428   5.939  10.411  10.209 -1.6424  0.5297 -0.2089
14606SOL    HW261429   5.950  10.522  10.107 -0.5483  0.4741 -0.1653
14607SOL     OW61430   8.856   5.939   4.868 -0.5257 -0.0181  0.2255
14607SOL    HW161431   8.829   6.005   4.932  1.1477 -0.2579  1.2416
14607SOL    HW261432   8.893   5.990   4.796 -1.0880  0.2057  0.0890
14608SOL     OW61433  10.233   2.734   7.532 -0.0773  0.4857 -0.1677
14608SOL    HW161434  10.215   2.826   7.550 -0.2261  0.7376 -1.5236
14608SOL    HW261435  10.158   2.687   7.571 -0.9566  1.0957 -1.0780
14609SOL     OW61436   8.979  10.625  10.923 -0.1489 -0.5046  0.2094
14609SOL    HW161437   8.938  10.696  10.972  1.8496  1.2607 -0.4794
14609SOL    HW261438   9.053  10.598  10.978  1.9424  1.3004 -1.5040
14610SOL     OW61439  11.497  10.646   5.111  0.6565  0.3385  0.0531
14610SOL    HW161440  11.424  10.697   5.146  1.2863  0.1484  1.7107
14610SOL    HW261441  11.526  10.695   5.033 -0.5583  0.9590 -0.0285
14611SOL     OW61442   6.245   4.170   0.379  0.1769  0.0947  0.0801
14611SOL    HW161443   6.227   4.155   0.286 -0.7178 -0.2107  0.2879
14611SOL    HW261444   6.227   4.263   0.392  3.6955  1.0200 -0.7645
14612SOL     OW61445   5.515   4.812  12.648 -0.2478 -0.0482  0.3062
14612SOL    HW161446   5.560   4.741  12.694  1.1401  0.4829 -0.1694
14612SOL    HW261447   5.586   4.863  12.608 -1.3278 -0.1156 -1.8665
14613SOL     OW61448  11.036   8.447  12.639 -0.1571  0.3799 -0.0448
14613SOL    HW161449  11.057   8.391  12.564 -1.3770 -0.3458  0.1250
14613SOL    HW261450  10.940   8.454  12.637 -0.2313  0.2203  1.5377
14614SOL     OW61451   5.825  11.447   1.296 -0.0575  0.2501 -0.2871
14614SOL    HW161452   5.739  11.454   1.255 -0.4994  1.8747  0.8152
14614SOL    HW261453   5.808  11.458   1.389  1.3057  0.2084 -0.0163
14615SOL     OW61454   7.828   3.846  13.041  0.0226  0.5606 -0.0203
14615SOL    HW161455   7.758   3.880  12.986 -0.1636 -0.4883 -0.4536
14615SOL    HW261456   7.875   3.784  12.985  1.0589  0.9541  0.3897
14616SOL     OW61457   7.742  12.985   9.713 -0.3166  0.1053  0.1815
14616SOL    HW161458   7.715  12.927   9.784 -0.4664 -0.0002  0.0406
14616SOL    HW261459   7.670  13.046   9.702 -0.1851  0.2824  0.2879
14617SOL     OW61460   6.913  12.324   1.998 -0.3425  0.8959 -0.5704
14617SOL    HW161461   6.846  12.258   2.017 -0.0311  0.7428  0.0434
14617SOL    HW261462   6.919  12.325   1.902  0.6174 -0.9816 -0.5838
14618SOL     OW61463   4.793   7.195   4.131  0.3950  0.4100 -0.0541
14618SOL    HW161464   4.747   7.202   4.047 -0.9002 -1.3344  0.4611
14618SOL    HW261465   4.748   7.257   4.188 -2.0515 -1.8560  0.6871
14619SOL     OW61466   0.555  12.256   8.123 -0.2897  0.1349  0.2228
14619SOL    HW161467   0.523  12.339   8.089  1.5861  0.3137 -1.2419
14619SOL    HW261468   0.640  12.276   8.163  0.3473 -1.1049 -0.4334
14620SOL     OW61469   8.745   8.403   3.574 -0.1452  0.1000 -0.4970
14620SOL    HW161470   8.728   8.449   3.656  1.1620  0.6165 -0.4977
14620SOL    HW261471   8.658   8.377   3.542 -0.7922  1.3223  0.2187
14621SOL     OW61472   4.501  14.089  12.995  0.1725 -0.2487 -0.8454
14621SOL    HW161473   4.524  14.164  13.050  0.1265  0.0162 -1.1836
14621SOL    HW261474   4.528  14.114  12.907  1.5339 -1.2266 -0.7413
14622SOL     OW61475   1.764   5.458   7.455 -0.1780 -0.2244 -0.5311
14622SOL    HW161476   1.788   5.387   7.396  3.3460  0.6542 -0.3469
14622SOL    HW261477   1.774   5.538   7.403  0.1274  0.3869  0.4393
14623SOL     OW61478  11.068  13.785  11.789  0.2145 -0.1975  0.1361
14623SOL    HW161479  11.085  13.692  11.773  1.3362  0.1434 -0.8433
14623SOL    HW261480  11.154  13.823  11.806 -0.0949  0.8374 -0.4918
14624SOL     OW61481   8.222   1.653   0.141  0.1030 -0.4394  0.2909
14624SOL    HW161482   8.141   1.603   0.151 -0.8152  1.1194  1.1299
14624SOL    HW261483   8.248   1.638   0.050 -2.1309  0.3810 -0.5655
14625SOL     OW61484   9.569   2.169   3.456 -0.2485  0.2400 -0.1024
14625SOL    HW161485   9.519   2.188   3.377  0.4922  0.9808 -0.4042
14625SOL    HW261486   9.539   2.082   3.483 -2.0771  0.8530  0.0303
14626SOL     OW61487  12.166   2.817  11.194  0.0616 -0.2482  0.1932
14626SOL    HW161488  12.076   2.807  11.226 -0.1008 -0.0468 -0.1996
14626SOL    HW261489  12.208   2.874  11.259 -0.6193  1.1852 -0.5779
14627SOL     OW61490  11.975   3.792   5.688 -0.1035  0.1952  0.4330
14627SOL    HW161491  11.925   3.815   5.609 -0.1855 -0.1040  0.3970
14627SOL    HW261492  12.039   3.863   5.697  1.7132 -1.1011 -1.4379
14628SOL     OW61493   2.968   7.018   8.830 -0.0312  0.0112  0.0976
14628SOL    HW161494   2.985   6.968   8.750 -1.2862 -0.8811  0.3565
14628SOL    HW261495   3.034   6.986   8.892 -0.5453 -1.0465  0.1293
14629SOL     OW61496  10.832   6.511  14.032 -0.4634 -0.1838 -0.0723
14629SOL    HW161497  10.824   6.465  13.948  0.9086  1.2244 -1.0154
14629SOL    HW261498  10.787   6.454  14.094 -0.7199 -1.7177 -1.5849
14630SOL     OW61499   0.666   1.961  11.059 -0.1924  0.6715 -0.2992
14630SOL    HW161500   0.578   1.933  11.034  0.3308 -1.3853  0.0080
14630SOL    HW261501   0.666   1.960  11.154  0.7658 -1.5973 -0.2569
14631SOL     OW61502  12.931  12.090  13.575 -0.3119 -0.4555  0.1172
14631SOL    HW161503  12.993  12.146  13.621 -1.1385  0.2721  0.3719
14631SOL    HW261504  12.969  12.077  13.489  0.0392  0.2527  0.1573
14632SOL     OW61505   8.581  13.392   5.524 -0.1347  0.6028 -0.1578
14632SOL    HW161506   8.553  13.459   5.587  0.6681  0.4327  0.3947
14632SOL    HW261507   8.560  13.309   5.566 -2.0177  0.4669 -1.2482
14633SOL     OW61508   2.933  12.655  11.425 -0.4666 -0.2359 -0.3796
14633SOL    HW161509   2.849  12.693  11.399 -1.0560 -3.2169 -3.6166
14633SOL    HW261510   2.992  12.675  11.353  0.6457 -0.9712  0.2956
14634SOL     OW61511   2.624  10.233   1.649  0.0819  0.5169 -0.4864
14634SOL    HW161512   2.630  10.138   1.648 -0.9621  0.4082  0.8283
14634SOL    HW261513   2.712  10.263   1.671  0.6805 -0.0649 -1.9508
14635SOL     OW61514   2.505   0.144   3.658  0.0164  0.0513  0.3400
14635SOL    HW161515   2.467   0.222   3.616  2.1224  3.6980  4.3702
14635SOL    HW261516   2.590   0.134   3.616  0.0319  0.4360  0.2703
14636SOL     OW61517   9.439   0.902   5.013 -0.4057 -0.0046  0.2973
14636SOL    HW161518   9.453   0.930   4.922  2.1370  0.7631  0.8203
14636SOL    HW261519   9.425   0.984   5.061 -3.1890 -0.5033  0.4541
14637SOL     OW61520   8.849   7.014   4.536 -0.0001 -0.1810  0.2186
14637SOL    HW161521   8.857   7.050   4.625 -0.6122  0.0387  0.1933
14637SOL    HW261522   8.786   7.073   4.493 -0.5601 -0.9433 -0.0141
14638SOL     OW61523  12.858  11.175  12.374 -0.1633 -0.1388 -0.2772
14638SOL    HW161524  12.880  11.087  12.404 -0.2971  0.1779  0.7594
14638SOL    HW261525  12.781  11.200  12.424  0.6622  1.0914  0.4219
14639SOL     OW61526   0.133  10.376   7.925  0.2243 -0.0818 -0.1202
14639SOL    HW161527   0.196  10.321   7.971  0.8545 -0.8042 -1.7776
14639SOL    HW261528   0.052  10.368   7.975  0.8953 -0.7898  0.8695
14640SOL     OW61529   7.812   3.486   9.870 -0.0152 -0.5460  0.1496
14640SOL    HW161530   7.788   3.545   9.799  1.3610 -0.8714 -0.6196
14640SOL    HW261531   7.746   3.416   9.865 -0.0754 -0.4421 -0.6509
14641SOL     OW61532   4.568  11.360   7.496  0.6075  0.1777  0.0321
14641SOL    HW161533   4.535  11.302   7.427 -0.6392  1.1156 -0.2149
14641SOL    HW261534   4.605  11.301   7.562  0.0474 -0.8465 -0.5397
14642SOL     OW61535   3.310  12.680   1.223  0.1302 -0.5772 -0.1371
14642SOL    HW161536   3.215  12.667   1.217  0.3812 -2.9329 -0.1830
14642SOL    HW261537   3.342  12.665   1.134  0.7068 -1.9159  0.2657
14643SOL     OW61538   4.229   6.050   1.812 -0.8348 -0.0754  0.3632
14643SOL    HW161539   4.261   6.139   1.802  0.3752 -0.6921 -1.7283
14643SOL    HW261540   4.235   6.033   1.906  1.7371  1.0627  0.4860
14644SOL     OW61541  13.418  10.218   8.747  0.4637 -0.4743 -0.1892
14644SOL    HW161542  13.414  10.160   8.823  0.6245  0.1869  0.3325
14644SOL    HW261543  13.337  10.268   8.750  0.6575 -0.1548 -0.2163
14645SOL     OW61544  14.048  11.098   3.421  0.6716  0.0868 -0.7674
14645SOL    HW161545  14.007  11.117   3.337 -1.3722  0.4873  0.2743
14645SOL    HW261546  14.123  11.157   3.425 -1.2513  2.6738 -0.8050
14646SOL     OW61547  12.392  11.240  11.504 -0.2510  0.4216 -0.0133
14646SOL    HW161548  12.350  11.251  11.589  0.0897 -1.1219  0.3953
14646SOL    HW261549  12.325  11.198  11.449 -0.2512  0.7905 -0.2951
14647SOL     OW61550   5.420   3.046   3.293 -0.4709  0.4120 -0.3066
14647SOL    HW161551   5.502   2.997   3.287 -0.5333  0.0148  1.4514
14647SOL    HW261552   5.354   2.981   3.316 -1.2178  0.8064 -1.2462
14648SOL     OW61553   5.267  13.135   0.024 -0.4217 -0.5724  0.4082
14648SOL    HW161554   5.321  13.164  -0.049  1.1312  0.6429  1.9467
14648SOL    HW261555   5.330  13.107   0.091 -1.7847 -1.6715  1.2789
14649SOL     OW61556  11.186   5.487   4.492 -0.4870  0.2629  0.6238
14649SOL    HW161557  11.216   5.401   4.463  1.2864  0.8601  0.5993
14649SOL    HW261558  11.242   5.549   4.445 -0.9269  1.3955  1.5594
14650SOL     OW61559   9.070   1.404   8.107  0.5720  0.6114  0.1497
14650SOL    HW161560   9.152   1.356   8.106  1.0617  1.4250 -0.6400
14650SOL    HW261561   9.094   1.493   8.081 -0.3618  1.1987  1.2226
14651SOL     OW61562  12.408   0.522   7.635 -0.1403  0.4463 -0.1609
14651SOL    HW161563  12.503   0.508   7.636  0.0360  1.4892 -1.2681
14651SOL    HW261564  12.393   0.591   7.700 -0.2368 -0.1857  0.5034
14652SOL     OW61565  12.640   7.790   2.886 -0.1790 -0.7068 -0.0220
14652SOL    HW161566  12.568   7.770   2.945  0.6145 -0.8707  0.9166
14652SOL    HW261567  12.715   7.741   2.922  1.1599  1.7875  0.7996
14653SOL     OW61568   1.287   6.217   7.924 -0.1498  0.7938  0.2659
14653SOL    HW161569   1.318   6.262   8.003  2.5078  1.8676 -1.2384
14653SOL    HW261570   1.334   6.133   7.925 -0.5038  0.5920  0.0776
14654SOL     OW61571   4.218   4.017   2.255  0.4093  0.0335  0.0645
14654SOL    HW161572   4.250   4.092   2.205  0.7063  0.4255  0.8356
14654SOL    HW261573   4.201   4.051   2.343  0.6193 -0.8123  0.4450
14655SOL     OW61574   3.487   6.793  13.302  0.0635 -0.1654  0.0826
14655SOL    HW161575   3.398   6.808  13.333 -0.5309  0.1565 -1.6844
14655SOL    HW261576   3.494   6.845  13.222  2.1341  0.5170  0.6515
14656SOL     OW61577  10.784   2.181   4.039 -0.6873  0.5084 -0.0865
14656SOL    HW161578  10.804   2.138   4.123  0.2958 -1.7404 -1.3560
14656SOL    HW261579  10.824   2.267   4.046  1.1742 -0.3695  1.0655
14657SOL     OW61580  13.900   9.100   0.952  0.3689  0.3783  0.2044
14657SOL    HW161581  13.811   9.134   0.945  0.5620  1.3322  1.9944
14657SOL    HW261582  13.893   9.010   0.920 -1.0998  0.6360 -0.2881
14658SOL     OW61583  11.459   5.443  10.745  0.4078  0.7064 -0.1133
14658SOL    HW161584  11.516   5.384  10.795  0.3156  0.7753  0.0731
14658SOL    HW261585  11.444   5.517  10.804 -1.1623 -0.0300  0.4636
14659SOL     OW61586   2.424   3.927   6.659 -0.3421 -0.3483  0.2814
14659SOL    HW161587   2.392   3.998   6.715  0.1650 -0.5291  0.8129
14659SOL    HW261588   2.477   3.873   6.718 -0.4612 -0.9917 -0.1892
14660SOL     OW61589  13.228   9.476   3.985 -0.1148  0.8210  0.0387
14660SOL    HW161590  13.225   9.382   3.971  1.8765  0.8407 -0.9091
14660SOL    HW261591  13.150   9.495   4.038 -0.3180 -1.3903  0.6401
14661SOL     OW61592   7.384   8.729   4.790 -0.4901 -0.3409  0.2207
14661SOL    HW161593   7.410   8.794   4.855 -0.1089  1.0925 -1.3157
14661SOL    HW261594   7.397   8.645   4.834  0.6574  0.5540  1.6682
14662SOL     OW61595   7.576   1.018   0.571  0.1768 -0.0117 -0.5688
14662SOL    HW161596   7.556   1.111   0.578 -0.5017 -0.0810 -1.3320
14662SOL    HW261597   7.606   0.992   0.658 -0.8359  0.6447 -0.0075
14663SOL     OW61598   1.518   3.548  13.796  0.2126 -0.1621  0.4973
14663SOL    HW161599   1.455   3.552  13.724  1.7704  1.4555 -0.8716
14663SOL    HW261600   1.542   3.639  13.812  1.1015 -0.6274  2.0032
14664SOL     OW61601   0.274  13.792   5.105 -0.1981 -0.5851 -0.1060
14664SOL    HW161602   0.313  13.725   5.049 -0.9560 -0.9414 -0.2315
14664SOL    HW261603   0.348  13.842   5.139  0.4800 -2.0586  0.7216
14665SOL     OW61604   8.472   3.945  13.109 -0.6750  0.1923  0.4548
14665SOL    HW161605   8.567   3.939  13.106 -0.4641  1.3905  2.3846
14665SOL    HW261606   8.453   4.037  13.091 -1.4196  0.0989  0.6997
14666SOL     OW61607   4.470   2.960  13.135  0.3508 -0.1467  0.0374
14666SOL    HW161608   4.418   3.033  13.169  1.6138  0.9282 -0.2175
14666SOL    HW261609   4.447   2.886  13.190  0.7142  1.0000  1.8282
14667SOL     OW61610   7.779  12.735   7.935  0.0165 -0.2655  0.1810
14667SOL    HW161611   7.728  12.660   7.907  1.1143 -0.9864  0.0585
14667SOL    HW261612   7.764  12.741   8.030 -1.6848  0.6292 -0.1111
14668SOL     OW61613  11.712  11.733   2.424 -0.1276 -0.5861 -0.8796
14668SOL    HW161614  11.635  11.703   2.375 -0.9624 -1.5049  0.8962
14668SOL    HW261615  11.752  11.800   2.368 -2.5893  0.4118 -1.5624
14669SOL     OW61616   0.306   5.350   8.131  0.3042 -0.1175  0.2526
14669SOL    HW161617   0.235   5.367   8.194  1.2824 -1.0032  1.6531
14669SOL    HW261618   0.341   5.265   8.157  1.1922 -0.1779 -1.0783
14670SOL     OW61619  13.635   3.161  10.002 -0.0820 -0.2012  0.5184
14670SOL    HW161620  13.617   3.252   9.978 -0.6307 -0.1276  1.1719
14670SOL    HW261621  13.729   3.150   9.987  0.2379  0.8501  1.6280
14671SOL     OW61622  13.527   4.535  10.621  0.1394  0.3970 -0.9584
14671SOL    HW161623  13.589   4.462  10.613  0.3876  0.4814  0.0630
14671SOL    HW261624  13.445   4.492  10.646  0.7912  0.5848  1.8338
14672SOL     OW61625   2.510   1.960   6.674  0.2834  0.0031  0.1155
14672SOL    HW161626   2.488   1.990   6.586 -0.4264  2.1020  0.9450
14672SOL    HW261627   2.568   2.028   6.709 -0.8065  0.1097  1.8464
14673SOL     OW61628   5.874  12.049   4.979 -0.1182  0.1034  0.1521
14673SOL    HW161629   5.946  12.000   5.017  1.7293  1.5992 -1.2447
14673SOL    HW261630   5.817  12.069   5.054  1.1180 -0.7532  1.3752
14674SOL     OW61631   2.918   5.913  10.117 -0.4247 -0.4436  0.1361
14674SOL    HW161632   2.977   5.896  10.190 -0.1258  0.8378  0.2201
14674SOL    HW261633   2.976   5.928  10.042 -0.6705 -0.1872 -0.0061
14675SOL     OW61634   3.124  13.017   5.258 -0.1172  0.3584  0.4955
14675SOL    HW161635   3.164  13.099   5.286  0.8285  0.4354 -0.9958
14675SOL    HW261636   3.196  12.963   5.226 -0.7579 -0.9528  1.1450
14676SOL     OW61637  12.558  11.771   9.895 -0.1420 -0.2631 -0.0957
14676SOL    HW161638  12.632  11.806   9.844 -0.2214 -0.2200 -0.1811
14676SOL    HW261639  12.567  11.812   9.981  0.6200 -1.1532  0.2771
14677SOL     OW61640   9.054   8.333  13.419  0.7965  0.1316 -0.0152
14677SOL    HW161641   9.109   8.259  13.393 -0.4039 -0.1641 -1.9833
14677SOL    HW261642   9.097   8.409  13.379  1.7863  0.4753  1.6313
14678SOL     OW61643   5.215  10.309  13.347 -0.3098  0.2020 -0.4129
14678SOL    HW161644   5.157  10.249  13.394 -1.7046 -0.8460 -3.2299
14678SOL    HW261645   5.229  10.381  13.408 -0.9217 -1.6267  2.0414
14679SOL     OW61646  10.178   0.396  12.598 -0.1142  0.2222 -0.1464
14679SOL    HW161647  10.215   0.478  12.565 -0.5459  1.1338  1.5031
14679SOL    HW261648  10.092   0.421  12.632 -0.7138 -1.1402 -0.6045
14680SOL     OW61649   9.640   6.157   8.930 -0.6658  0.6975  0.2538
14680SOL    HW161650   9.699   6.123   8.998  0.4431  1.7294 -0.1485
14680SOL    HW261651   9.657   6.101   8.854 -0.8252  0.4543  0.3989
14681SOL     OW61652   9.807   8.788   0.577  0.1733 -0.0043  0.2145
14681SOL    HW161653   9.734   8.849   0.569 -0.4361 -0.8733 -1.4277
14681SOL    HW261654   9.771   8.704   0.547  1.5095 -0.7388  0.5777
14682SOL     OW61655   0.702  11.992   3.734 -0.4566  0.2024 -0.1718
14682SOL    HW161656   0.611  11.998   3.763 -0.2101 -0.1686  0.6886
14682SOL    HW261657   0.719  12.077   3.691 -1.6913 -0.3413 -1.8288
14683SOL     OW61658   6.835   3.453   4.274  0.3913  0.0679  0.1343
14683SOL    HW161659   6.739   3.451   4.283  0.5005 -0.5258  1.2195
14683SOL    HW261660   6.868   3.405   4.349  1.5310 -0.5001 -0.6926
14684SOL     OW61661   3.094   0.591  12.723  0.4701 -0.2826 -0.3627
14684SOL    HW161662   3.114   0.659  12.788 -0.9481 -0.7556  0.6388
14684SOL    HW261663   3.051   0.522  12.774 -1.3563 -0.3730 -1.9007
14685SOL     OW61664   4.326   6.426   7.197 -0.0234 -0.5788  0.4867
14685SOL    HW161665   4.335   6.452   7.288 -0.1872 -0.8519  0.5804
14685SOL    HW261666   4.282   6.500   7.155  1.2248  0.1152  0.3449
14686SOL     OW61667   9.010   0.909   2.141 -0.1092 -0.0751 -0.2604
14686SOL    HW161668   9.025   0.955   2.223 -2.0876  0.4499 -0.1593
14686SOL    HW261669   8.923   0.871   2.149 -0.3955  0.0499 -2.1522
14687SOL     OW61670  13.776  10.505   6.905 -0.1240  0.3712  0.0758
14687SOL    HW161671  13.739  10.450   6.974  1.0952 -0.3973  0.1366
14687SOL    HW261672  13.868  10.481   6.901  0.2404  1.7471 -0.5544
14688SOL     OW61673   2.050   0.567   3.475  0.1266  0.3516 -0.0798
14688SOL    HW161674   2.045   0.544   3.568 -0.2166  2.1958  0.4004
14688SOL    HW261675   2.121   0.513   3.440  1.4200  0.8514  1.6546
14689SOL     OW61676   4.525   5.300   1.604 -0.0035 -0.4850  0.4115
14689SOL    HW161677   4.564   5.280   1.520 -1.9962 -2.5267 -0.1188
14689SOL    HW261678   4.573   5.246   1.667  0.1501 -0.4869  0.2932
14690SOL     OW61679  12.090   8.345   2.161 -0.0843  0.4548 -0.5449
14690SOL    HW161680  12.098   8.284   2.088 -0.6879 -1.3477  0.8294
14690SOL    HW261681  11.996   8.358   2.171 -0.1406 -0.8074  1.0277
14691SOL     OW61682   1.625   3.419   5.574 -0.4616  0.7023 -0.5466
14691SOL    HW161683   1.581   3.493   5.532 -1.8767  0.5127  0.5266
14691SOL    HW261684   1.642   3.449   5.664  2.6539  1.1667 -1.1773
14692SOL     OW61685   9.884  11.426   8.016 -0.4024  0.1062 -0.0371
14692SOL    HW161686   9.858  11.442   8.107  0.7191  0.2111  0.2745
14692SOL    HW261687   9.974  11.394   8.022 -0.3305  0.0907 -1.1116
14693SOL     OW61688  11.661   2.998   0.863  0.6088  0.2929  0.5527
14693SOL    HW161689  11.735   2.980   0.804  0.0136 -0.5304  0.0410
14693SOL    HW261690  11.649   3.093   0.857  1.6844  0.4607  0.7269
14694SOL     OW61691  13.137   4.566   4.425  0.5263 -0.4056 -0.6442
14694SOL    HW161692  13.152   4.660   4.411 -0.7895 -0.1262 -0.3105
14694SOL    HW261693  13.109   4.559   4.516 -1.8042 -0.7608 -1.3160
14695SOL     OW61694   5.543   1.138   6.965 -0.3068 -0.3461  0.2817
14695SOL    HW161695   5.627   1.143   6.919 -0.0305 -2.7994  0.3756
14695SOL    HW261696   5.556   1.070   7.031 -2.8682 -2.1562 -0.9019
14696SOL     OW61697  11.674  12.251   0.024  0.0435 -0.2292  0.1836
14696SOL    HW161698  11.709  12.326   0.073  0.7407 -0.5690  0.2175
14696SOL    HW261699  11.598  12.222   0.074  0.4028 -0.2053  0.7444
14697SOL     OW61700   8.844  12.387   4.148 -0.3152  0.3454  0.0142
14697SOL    HW161701   8.749  12.378   4.158 -0.1990  0.9988  2.0682
14697SOL    HW261702   8.858  12.384   4.053 -2.2544 -0.9133 -0.2939
14698SOL     OW61703   3.080  14.033  12.289  0.4128  0.4547 -0.5029
14698SOL    HW161704   3.018  13.976  12.335  0.3152  0.0181 -1.1554
14698SOL    HW261705   3.116  14.090  12.357 -3.0667  2.9650 -0.4693
14699SOL     OW61706   7.426  14.061   4.649 -0.0366 -0.3733  0.2976
14699SOL    HW161707   7.366  14.052   4.575  1.1444 -0.6786 -0.6594
14699SOL    HW261708   7.505  14.098   4.611  0.9736 -1.5258  1.1924
14700SOL     OW61709   5.885   2.343   4.892  0.1497 -0.1359  0.1989
14700SOL    HW161710   5.847   2.353   4.805  1.8530  1.2087 -0.4711
14700SOL    HW261711   5.811   2.342   4.951 -1.0919 -1.6452 -1.2818
14701SOL     OW61712   7.333   2.134   1.090 -0.4175  0.4380 -0.3720
14701SOL    HW161713   7.422   2.166   1.076 -0.5122 -0.3314 -3.3911
14701SOL    HW261714   7.290   2.145   1.005 -3.3816  1.2099  1.1064
14702SOL     OW61715   3.445  12.986   0.729 -0.6434 -0.1868  0.3045
14702SOL    HW161716   3.500  12.920   0.770  1.3181  0.8553 -0.5384
14702SOL    HW261717   3.381  12.935   0.679  1.9348 -1.5784 -1.8457
14703SOL     OW61718  13.930   4.010  12.777  0.0325 -0.2137 -0.0015
14703SOL    HW161719  14.003   4.012  12.839  1.0625 -1.9736 -1.0837
14703SOL    HW261720  13.911   4.102  12.761  0.9297  0.2904  1.5349
14704SOL     OW61721   0.540   0.659   1.248 -0.2886  0.1767  0.5126
14704SOL    HW161722   0.466   0.664   1.308 -0.1987 -1.6873  0.8435
14704SOL    HW261723   0.617   0.651   1.304  0.1320  1.4833  0.1638
14705SOL     OW61724   0.520   7.969   7.117 -0.0677  0.4094 -0.1039
14705SOL    HW161725   0.485   7.929   7.038  0.4836  0.3500 -0.3231
14705SOL    HW261726   0.492   8.061   7.112  0.1333  0.4513 -0.4656
14706SOL     OW61727   6.863   1.756  11.827  0.4429  0.1772 -0.2235
14706SOL    HW161728   6.811   1.744  11.747 -0.3636 -1.1775  0.4782
14706SOL    HW261729   6.941   1.703  11.812  0.7748  0.7423 -0.5218
14707SOL     OW61730  11.707   4.336  10.790  0.0153 -0.0460 -0.1994
14707SOL    HW161731  11.648   4.392  10.739 -0.7341 -2.0778 -1.7074
14707SOL    HW261732  11.669   4.337  10.878 -1.0956  0.2929 -0.6537
14708SOL     OW61733  13.718   4.732   4.852  0.1182  0.4136 -0.2129
14708SOL    HW161734  13.670   4.763   4.929  3.0655 -0.4272  2.1532
14708SOL    HW261735  13.714   4.805   4.791 -2.2696  1.1588  0.7035
14709SOL     OW61736   4.283  11.930  13.343 -0.2585  0.6966 -0.3677
14709SOL    HW161737   4.359  11.894  13.297  0.4787  0.3761  1.0271
14709SOL    HW261738   4.278  12.021  13.313  1.2177  0.9746  0.1029
14710SOL     OW61739   6.646   3.425  12.501 -0.0648 -0.4286 -0.1425
14710SOL    HW161740   6.559   3.390  12.482 -0.2774 -0.4957  0.8951
14710SOL    HW261741   6.706   3.371  12.449 -0.5575 -1.0468 -0.0834
14711SOL     OW61742   0.839   7.023   5.210 -0.5912  0.2427 -0.0964
14711SOL    HW161743   0.793   7.098   5.172  1.0464  1.4459  0.1373
14711SOL    HW261744   0.843   7.042   5.303  0.2153  0.0922 -0.0915
14712SOL     OW61745  12.560   7.846   5.024  0.1015  0.7204  0.0134
14712SOL    HW161746  12.513   7.903   5.085 -2.7786 -2.5432  1.1848
14712SOL    HW261747  12.609   7.787   5.081  3.4209  2.1424 -1.1722
14713SOL     OW61748   9.496  10.037  12.994  0.2442  0.4885  0.1717
14713SOL    HW161749   9.521   9.954  13.034  0.2801  0.7171  0.6295
14713SOL    HW261750   9.467  10.091  13.068 -0.8147  0.5085 -0.2471
14714SOL     OW61751  14.066   5.661  10.233  0.1337 -0.6385  0.3989
14714SOL    HW161752  14.047   5.569  10.217 -0.9746 -0.0807 -2.1257
14714SOL    HW261753  14.086   5.696  10.146  0.2738  1.5491  1.2451
14715SOL     OW61754   8.293  12.494   3.477  0.3934 -0.3285  0.0549
14715SOL    HW161755   8.356  12.524   3.542  0.3444 -1.4691  0.6497
14715SOL    HW261756   8.211  12.537   3.501  1.0962  1.9488 -1.3029
14716SOL     OW61757  11.560   1.973  13.835 -0.0203  0.1103 -0.4150
14716SOL    HW161758  11.597   2.052  13.795 -0.4972  0.5766  0.0605
14716SOL    HW261759  11.473   2.000  13.866 -0.0602 -0.5162  0.0261
14717SOL     OW61760   6.298   3.709   3.879 -0.1684 -0.1622 -0.1958
14717SOL    HW161761   6.341   3.726   3.795 -1.1581  0.5583 -0.5785
14717SOL    HW261762   6.263   3.620   3.870 -0.3298 -0.0619 -0.5716
14718SOL     OW61763   1.987   6.300   0.846 -0.1116 -0.0023  0.4862
14718SOL    HW161764   2.071   6.280   0.888 -0.2381  0.7404  1.1087
14718SOL    HW261765   1.959   6.216   0.810  0.4783 -0.4522  1.0325
14719SOL     OW61766   1.700  13.487  10.498 -0.5725  0.5131 -0.2213
14719SOL    HW161767   1.640  13.460  10.568  0.4446 -0.7930  0.1832
14719SOL    HW261768   1.766  13.540  10.542  0.5817 -1.0610  0.0181
14720SOL     OW61769   3.008   1.895   8.382 -0.4422  0.0845  0.7281
14720SOL    HW161770   3.061   1.972   8.399 -0.8948  0.3427  0.9783
14720SOL    HW261771   3.010   1.885   8.287  0.6388 -0.3289  0.7818
14721SOL     OW61772  13.752   1.558  11.472 -0.2335  0.0303 -0.3863
14721SOL    HW161773  13.841   1.568  11.438  0.7733 -0.1945  1.9699
14721SOL    HW261774  13.738   1.464  11.477 -0.2259  0.0503  0.0961
14722SOL     OW61775  10.822   9.890  11.583  0.4182 -0.2242 -0.4939
14722SOL    HW161776  10.766   9.967  11.585 -0.7576 -1.0628  0.0275
14722SOL    HW261777  10.894   9.910  11.643 -0.2986  0.1688  0.2491
14723SOL     OW61778   2.784   7.961   3.420 -0.3213  0.1840  0.2274
14723SOL    HW161779   2.827   8.007   3.348 -0.9158 -0.4801 -0.5593
14723SOL    HW261780   2.825   7.997   3.499  0.9878  0.2681 -0.4654
14724SOL     OW61781  10.438  11.066   8.561  0.6743  0.3222 -0.1417
14724SOL    HW161782  10.488  11.135   8.604  1.4687 -1.3443  1.8088
14724SOL    HW261783  10.353  11.067   8.605  0.6298  0.1705 -0.2232
14725SOL     OW61784  12.901  13.443   8.678 -0.2536  0.0252  0.0220
14725SOL    HW161785  12.895  13.496   8.599 -3.6641  1.0571  0.8170
14725SOL    HW261786  12.854  13.362   8.656  1.9655 -1.3084 -0.0865
14726SOL     OW61787   6.022   9.623   3.313  0.1613  0.6673  0.2035
14726SOL    HW161788   5.948   9.600   3.368  2.1040 -0.3802  2.5717
14726SOL    HW261789   6.082   9.669   3.371  1.3305  1.6592 -1.6725
14727SOL     OW61790   3.428   4.129   3.712  0.1565 -0.0530  0.1393
14727SOL    HW161791   3.377   4.061   3.669  0.1657  0.5484 -0.8570
14727SOL    HW261792   3.498   4.150   3.650  0.4465  0.5049  0.6424
14728SOL     OW61793  11.178   5.174   0.028 -0.2624 -0.7212  0.2934
14728SOL    HW161794  11.110   5.207   0.087 -2.0966  0.5881 -2.3727
14728SOL    HW261795  11.241   5.246   0.022 -0.6184 -0.4381 -0.1142
14729SOL     OW61796   2.186   6.465  11.385  1.0360 -0.0495 -0.2330
14729SOL    HW161797   2.176   6.549  11.429 -0.5776  0.0182 -0.6580
14729SOL    HW261798   2.195   6.488  11.292 -0.3393 -0.3355 -0.4695
14730SOL     OW61799   0.547   5.361   8.826  0.2185  0.4023 -0.7038
14730SOL    HW161800   0.628   5.404   8.799 -0.2656  1.2144 -0.8750
14730SOL    HW261801   0.576   5.283   8.873  1.0969  0.5432 -1.0003
14731SOL     OW61802   1.733   5.324   8.624 -0.1096 -0.1338  0.2657
14731SOL    HW161803   1.647   5.365   8.633 -0.6631 -1.3122  0.5520
14731SOL    HW261804   1.781   5.382   8.565 -1.6280 -0.2412 -1.1660
14732SOL     OW61805   8.048   2.383   3.624  0.1070  0.0098  0.0207
14732SOL    HW161806   8.070   2.473   3.649  0.7537 -0.1905  0.2105
14732SOL    HW261807   8.112   2.330   3.671 -0.8988 -0.6233  0.7019
14733SOL     OW61808  12.424   9.807   3.854  0.0341  0.6723 -0.1982
14733SOL    HW161809  12.495   9.798   3.918  0.0835 -1.7553 -0.4934
14733SOL    HW261810  12.426   9.724   3.805 -2.1386  1.1074 -1.1283
14734SOL     OW61811   5.379   5.473   2.219  0.0862  0.2999  0.3957
14734SOL    HW161812   5.468   5.486   2.251  0.1316  0.4142  0.2241
14734SOL    HW261813   5.359   5.382   2.240  0.1499  0.3487  0.6652
14735SOL     OW61814   9.454   9.944  13.599 -0.4519 -0.0056  0.0255
14735SOL    HW161815   9.371   9.979  13.633 -1.1096  0.0111 -1.5058
14735SOL    HW261816   9.502   9.916  13.677 -1.2537  1.3597  1.0673
14736SOL     OW61817   5.768  11.023   1.957  0.0753 -0.5504 -0.1038
14736SOL    HW161818   5.814  11.069   1.886  0.3251 -0.0853  0.3571
14736SOL    HW261819   5.677  11.052   1.949  0.3360  0.4670  0.5337
14737SOL     OW61820   5.309   5.715  11.401  0.2525  0.1455 -0.2262
14737SOL    HW161821   5.391   5.762  11.391  1.4257 -2.0982 -2.3003
14737SOL    HW261822   5.241   5.783  11.401  1.9727  1.9385 -0.3714
14738SOL     OW61823   7.847  12.042  10.438  0.1443 -0.2105  0.0151
14738SOL    HW161824   7.876  12.131  10.456  1.4069 -0.2417 -1.6634
14738SOL    HW261825   7.770  12.053  10.382 -0.9944 -0.1924  1.5055
14739SOL     OW61826  10.214   0.693   3.254 -0.0150  0.3402  0.0526
14739SOL    HW161827  10.237   0.759   3.320  1.3144  0.5799 -0.6289
14739SOL    HW261828  10.292   0.686   3.199 -0.4096 -1.2712 -0.3363
14740SOL     OW61829  13.627  10.420  12.863  0.0895 -0.2040  0.2574
14740SOL    HW161830  13.575  10.390  12.788  0.5727  1.1507 -0.6611
14740SOL    HW261831  13.610  10.355  12.932  0.6644 -2.2390 -1.4267
14741SOL     OW61832   3.868  10.906   8.064  0.3072  0.9209 -0.1097
14741SOL    HW161833   3.943  10.934   8.117  0.1452  1.5098 -0.1877
14741SOL    HW261834   3.887  10.939   7.977  0.3049  0.4307 -0.3001
14742SOL     OW61835  13.795  12.358  11.498  0.2835 -0.3798 -0.4640
14742SOL    HW161836  13.761  12.270  11.488  0.0404 -0.1577 -1.6535
14742SOL    HW261837  13.744  12.412  11.438  0.3548  0.6006  0.3151
14743SOL     OW61838   5.048   3.871  11.834  0.1278 -0.2917 -0.4588
14743SOL    HW161839   5.089   3.831  11.757  0.5527  1.8975 -1.4530
14743SOL    HW261840   5.025   3.960  11.806 -0.1783  0.4117  1.7859
14744SOL     OW61841  13.986   8.253   0.010  0.1183  0.2794 -0.0647
14744SOL    HW161842  14.045   8.210   0.072  0.3919  0.3356 -0.2845
14744SOL    HW261843  13.910   8.195   0.006 -0.2204  0.6387  0.8649
14745SOL     OW61844   5.562  13.581   5.603  0.1625 -0.0373 -0.4132
14745SOL    HW161845   5.605  13.660   5.636  1.6875 -0.8004 -0.4783
14745SOL    HW261846   5.496  13.560   5.669  2.9646 -1.4054  2.2044
14746SOL     OW61847   4.886  13.485   9.416  0.4153 -0.1021 -0.1523
14746SOL    HW161848   4.920  13.518   9.333 -1.8752  0.6859 -0.8577
14746SOL    HW261849   4.949  13.419   9.443  1.0700 -0.6431 -2.7135
14747SOL     OW61850   7.085  12.365   8.669 -0.6219 -0.6567  0.3079
14747SOL    HW161851   7.012  12.305   8.650 -0.1629 -1.5518  1.2705
14747SOL    HW261852   7.149  12.346   8.600 -1.1719 -0.0473 -0.3904
14748SOL     OW61853   2.163   9.790   6.320 -0.2676  0.0064  0.3781
14748SOL    HW161854   2.145   9.863   6.379  1.6334  2.0730 -1.4029
14748SOL    HW261855   2.104   9.804   6.246  0.1774 -0.1812 -0.0190
14749SOL     OW61856   1.374   3.501   8.760  0.1124  0.0237 -0.4249
14749SOL    HW161857   1.368   3.591   8.729  0.3108  0.1437 -0.1120
14749SOL    HW261858   1.318   3.451   8.700  0.5040  0.2525 -0.9869
14750SOL     OW61859   4.798   0.701  11.781  0.4351 -0.3701  0.0346
14750SOL    HW161860   4.721   0.679  11.833  0.7453  0.0895  0.7100
14750SOL    HW261861   4.851   0.757  11.839 -0.1323  1.8099 -1.4380
14751SOL     OW61862   8.827   0.683   6.133 -0.6627 -0.5653 -0.0807
14751SOL    HW161863   8.800   0.748   6.068  0.0510 -1.3203 -1.1742
14751SOL    HW261864   8.829   0.601   6.084  0.9816 -0.9734  0.5978
14752SOL     OW61865   3.859   3.486  11.045 -0.8485 -0.0682 -0.5098
14752SOL    HW161866   3.881   3.500  10.953 -0.5373  0.7787 -0.3147
14752SOL    HW261867   3.814   3.401  11.047 -1.8951  0.4301 -1.6086
14753SOL     OW61868  11.830  11.088   6.342  0.3107  0.3909 -0.6626
14753SOL    HW161869  11.889  11.033   6.394  1.5406  0.8501 -1.5284
14753SOL    HW261870  11.866  11.177   6.352 -0.2891  0.6891 -1.1311
14754SOL     OW61871  10.731   1.212  10.682 -0.4143  0.4811  0.2086
14754SOL    HW161872  10.812   1.223  10.633 -0.5450  2.0118  0.3039
14754SOL    HW261873  10.748   1.250  10.767 -0.6850 -0.8002  0.8679
14755SOL     OW61874  10.958   4.474  12.273  0.0587 -0.0306 -0.4476
14755SOL    HW161875  11.022   4.541  12.247 -0.1969 -0.2815 -1.8423
14755SOL    HW261876  11.000   4.426  12.344  2.0726 -1.0926 -2.2510
14756SOL     OW61877   8.394  10.949  13.151  0.3513 -0.1352  0.1587
14756SOL    HW161878   8.351  11.035  13.149  0.1043 -0.2241  1.0965
14756SOL    HW261879   8.402  10.924  13.059 -1.8314 -0.2456 -0.0368
14757SOL     OW61880  13.025   7.068  12.376 -0.3350  0.1165 -0.4511
14757SOL    HW161881  12.985   7.101  12.295  0.1864  1.0115 -0.3566
14757SOL    HW261882  13.117   7.093  12.369 -0.1344 -0.4461  0.0962
14758SOL     OW61883   3.929   4.585   1.968  0.0729  0.2187  1.2756
14758SOL    HW161884   3.951   4.588   1.875 -1.3515 -3.4594  0.6480
14758SOL    HW261885   4.013   4.591   2.013  1.0096 -0.1079 -0.3595
14759SOL     OW61886   9.732  12.807   0.733  0.3928  0.2822  0.4386
14759SOL    HW161887   9.638  12.788   0.727  0.1443  1.8248 -1.4357
14759SOL    HW261888   9.774  12.721   0.731 -0.9492 -0.3909  0.2767
14760SOL     OW61889   5.357  11.759   2.029 -0.3464 -0.1426  0.0418
14760SOL    HW161890   5.274  11.766   1.982 -0.6321  0.1452  0.5817
14760SOL    HW261891   5.337  11.707   2.107 -0.0776  0.1379  0.2999
14761SOL     OW61892   8.616  12.577  11.692  0.0798  0.3383 -0.4520
14761SOL    HW161893   8.667  12.580  11.611 -1.0298 -0.2560 -1.2030
14761SOL    HW261894   8.678  12.601  11.761  2.1699 -2.9956 -0.9369
14762SOL     OW61895  11.295  12.008  10.178  0.6277 -0.2535 -0.3556
14762SOL    HW161896  11.261  11.933  10.129 -1.4847  0.9509 -0.8595
14762SOL    HW261897  11.311  12.075  10.111  2.9667 -0.3547  0.0254
14763SOL     OW61898   5.509  11.003   1.009 -0.2626  0.2292 -0.7510
14763SOL    HW161899   5.417  11.029   0.997 -0.3659  0.1302 -0.1956
14763SOL    HW261900   5.517  10.920   0.963 -0.9983 -0.8323  0.9334
14764SOL     OW61901   6.120  13.631   7.410 -0.4953 -0.1448  0.1012
14764SOL    HW161902   6.188  13.564   7.397 -0.1838  0.3758 -1.1473
14764SOL    HW261903   6.055  13.612   7.343 -0.8467  0.2686  0.3227
14765SOL     OW61904   3.180   0.844  11.612 -0.1279  0.1719 -0.1467
14765SOL    HW161905   3.120   0.850  11.686  0.3312  0.3282  0.2130
14765SOL    HW261906   3.125   0.863  11.536 -1.2469 -2.6011 -0.1855
14766SOL     OW61907  13.804  10.585  12.747 -0.3409  0.4930 -0.4188
14766SOL    HW161908  13.849  10.542  12.675  0.5653 -0.3734  0.6162
14766SOL    HW261909  13.750  10.516  12.786  0.1952  0.5696  0.5117
14767SOL     OW61910   3.321   5.181   9.655  0.1392  0.0556 -0.2349
14767SOL    HW161911   3.361   5.145   9.576 -0.6696 -0.4704 -0.4080
14767SOL    HW261912   3.233   5.208   9.628 -1.2370 -2.7104  1.0582
14768SOL     OW61913  13.483   5.304   6.466  0.6484 -0.5981 -0.0335
14768SOL    HW161914  13.503   5.211   6.475 -1.2033 -1.0571 -0.1386
14768SOL    HW261915  13.412   5.320   6.529 -1.1942 -0.0403 -2.0978
14769SOL     OW61916   2.854   7.418  13.830  0.1687 -0.1273 -0.2855
14769SOL    HW161917   2.897   7.333  13.823 -0.3353 -0.5230  1.1208
14769SOL    HW261918   2.814   7.418  13.917 -1.1499  0.9332 -0.8436
14770SOL     OW61919   8.394  13.765   5.038 -0.1132 -0.2606 -0.2905
14770SOL    HW161920   8.453  13.747   4.965 -0.1869 -0.6783 -0.2524
14770SOL    HW261921   8.451  13.768   5.115 -0.3634 -3.4148  0.1875
14771SOL     OW61922   7.481   0.702  13.319  0.1588  0.2246  0.0948
14771SOL    HW161923   7.426   0.638  13.365  2.0411 -1.2108  0.4969
14771SOL    HW261924   7.524   0.751  13.389 -0.0066  0.7886 -0.1989
14772SOL     OW61925   3.402   3.881  12.741 -0.4999 -0.1556  0.5859
14772SOL    HW161926   3.479   3.865  12.796 -2.1724 -0.2901  3.0456
14772SOL    HW261927   3.364   3.795  12.727 -0.6131 -0.0121 -0.0393
14773SOL     OW61928   4.250   8.274   0.048  0.0032 -0.5074  0.5249
14773SOL    HW161929   4.158   8.293   0.027 -0.0248 -0.8852  0.3001
14773SOL    HW261930   4.249   8.184   0.079  0.2865 -0.4732  0.6318
14774SOL     OW61931   4.173   6.981   5.534 -0.4957  0.0204  0.5910
14774SOL    HW161932   4.090   7.015   5.502 -0.3494 -0.1152  0.0512
14774SOL    HW261933   4.239   7.033   5.489 -0.2864 -0.0175  0.8515
14775SOL     OW61934   2.777  13.063  11.113 -0.5517 -0.5707 -0.1483
14775SOL    HW161935   2.739  13.035  11.196 -1.6494  0.1260 -0.3887
14775SOL    HW261936   2.869  13.039  11.119 -0.6974 -0.8820  1.1091
14776SOL     OW61937   4.252  12.455  11.469  0.7144 -0.1897 -0.4232
14776SOL    HW161938   4.163  12.421  11.480  0.3903  0.7029 -0.2317
14776SOL    HW261939   4.244  12.520  11.399  1.2823 -0.3335 -0.6280
14777SOL     OW61940   0.941   0.978   7.456  0.3357  0.3190 -0.0220
14777SOL    HW161941   0.964   0.896   7.414  0.6579  0.3478  0.0935
14777SOL    HW261942   0.886   1.023   7.392  1.5143  0.7415 -0.7806
14778SOL     OW61943   8.406   4.007   5.237  0.2290 -0.0997 -0.1518
14778SOL    HW161944   8.475   3.951   5.272  1.1563  0.9374 -0.2651
14778SOL    HW261945   8.428   4.016   5.144  0.4839  0.9766  0.0012
14779SOL     OW61946  10.380   2.871   3.881  0.1708 -0.2356 -0.0913
14779SOL    HW161947  10.309   2.816   3.914  0.5653 -0.2392  0.7711
14779SOL    HW261948  10.340   2.922   3.810 -0.4333 -0.9455 -0.2675
14780SOL     OW61949   7.594   1.419  11.753 -0.1307  0.6292  0.1306
14780SOL    HW161950   7.617   1.496  11.700 -0.1682  0.2540 -0.4307
14780SOL    HW261951   7.656   1.351  11.725 -0.1333  0.4358  0.5879
14781SOL     OW61952   0.426   0.922   3.779  0.2129  0.0765  0.1673
14781SOL    HW161953   0.414   0.895   3.871  0.5278 -0.3526  0.0832
14781SOL    HW261954   0.415   1.017   3.781  0.0999  0.0582  0.6332
14782SOL     OW61955   2.247   9.381  11.330 -0.6338 -0.8335 -0.0737
14782SOL    HW161956   2.176   9.441  11.352  0.3827  0.0504  0.9537
14782SOL    HW261957   2.208   9.294  11.332 -2.1022 -0.2593 -1.3795
14783SOL     OW61958  10.150  12.970  10.752  0.4538  0.0666  0.0575
14783SOL    HW161959  10.131  13.063  10.747 -0.4587 -0.1815 -2.0581
14783SOL    HW261960  10.230  12.959  10.701 -0.1703 -0.4578 -0.8442
14784SOL     OW61961  11.463  12.558  13.581  0.3389  0.1584 -0.3819
14784SOL    HW161962  11.528  12.515  13.526  0.9019  0.3698  0.1048
14784SOL    HW261963  11.432  12.489  13.639  0.1542  0.0667 -0.5883
14785SOL     OW61964   1.743  13.272   6.220  0.7663  0.4739  0.3899
14785SOL    HW161965   1.820  13.256   6.274  0.3846 -2.6262  0.1858
14785SOL    HW261966   1.745  13.204   6.153 -3.3392 -1.4742  1.8496
14786SOL     OW61967   9.869   8.864   8.790 -0.2503  0.2266 -0.0445
14786SOL    HW161968   9.776   8.884   8.778 -0.1638  1.4058  1.0360
14786SOL    HW261969   9.907   8.945   8.826  1.2443 -0.1583 -0.6836
14787SOL     OW61970  12.639   1.835   8.112  0.3491 -0.2422  0.1174
14787SOL    HW161971  12.684   1.757   8.144 -1.7520 -2.0498 -0.9827
14787SOL    HW261972  12.590   1.867   8.187  1.0838 -0.0953  0.5372
14788SOL     OW61973  13.193   7.270   7.934  0.1503 -0.0766 -0.3503
14788SOL    HW161974  13.097   7.262   7.928  0.1293  0.4955 -0.7910
14788SOL    HW261975  13.207   7.354   7.977  0.4609 -0.1580 -0.2934
14789SOL     OW61976   2.417   1.765   6.299  0.0863  0.4166  0.0541
14789SOL    HW161977   2.325   1.737   6.293 -0.0714  1.1494 -1.5127
14789SOL    HW261978   2.465   1.699   6.248  0.0945  1.3264 -1.1494
14790SOL     OW61979   1.242   2.472   7.651  0.7185  0.2162 -0.1197
14790SOL    HW161980   1.251   2.554   7.700 -1.6600  0.5872 -0.1859
14790SOL    HW261981   1.255   2.497   7.559  1.9011  0.1228  0.0018
14791SOL     OW61982   6.147   3.272   5.582  0.1537  0.0161  0.9123
14791SOL    HW161983   6.185   3.187   5.607 -0.5813 -0.2592  1.1132
14791SOL    HW261984   6.115   3.258   5.493  1.3150  0.5201  0.3882
14792SOL     OW61985   1.350   1.878  10.243  0.3346 -1.2333 -0.2062
14792SOL    HW161986   1.440   1.845  10.241  1.0894  0.6773 -1.9532
14792SOL    HW261987   1.358   1.970  10.216 -2.0996 -0.8491  0.1387
14793SOL     OW61988   1.761   0.038   4.654  0.1431  0.4897  0.2086
14793SOL    HW161989   1.758   0.117   4.708 -1.3570  0.9711 -0.5232
14793SOL    HW261990   1.820   0.061   4.582  0.3245  0.6687  0.4143
14794SOL     OW61991   3.663   0.549   3.462 -0.2721  0.0526 -0.4267
14794SOL    HW161992   3.646   0.504   3.380  0.5277  1.5797 -1.4829
14794SOL    HW261993   3.661   0.642   3.439 -2.0129  0.6209  1.6890
14795SOL     OW61994  13.393   3.398   6.709 -0.2752  0.2972 -0.8025
14795SOL    HW161995  13.479   3.371   6.678 -0.2643 -0.2196 -0.3261
14795SOL    HW261996  13.354   3.444   6.634  0.9871  1.8881 -0.5371
14796SOL     OW61997   8.883  10.100  12.033 -0.3952 -0.0064 -0.0717
14796SOL    HW161998   8.936  10.177  12.054  2.9540 -1.7572 -1.4510
14796SOL    HW261999   8.899  10.083  11.940 -1.8729 -1.7631 -0.0717
14797SOL     OW62000   8.240  11.569   4.825  0.5147 -0.0154  0.0685
14797SOL    HW162001   8.150  11.551   4.851  0.2157 -0.0807 -0.9820
14797SOL    HW262002   8.243  11.664   4.813  1.3199  0.3862  2.7219
14798SOL     OW62003   8.693   2.439  11.944  0.1110  0.0610  0.1690
14798SOL    HW162004   8.643   2.456  11.864 -1.0213  2.0408  1.2047
14798SOL    HW262005   8.651   2.495  12.010  1.1492 -1.3289  2.0971
14799SOL     OW62006   0.306   2.623   0.478  0.5653 -0.6073 -0.0048
14799SOL    HW162007   0.267   2.636   0.565 -0.8924 -1.0707 -0.5601
14799SOL    HW262008   0.273   2.696   0.426  2.0405  0.0993 -0.0058
14800SOL     OW62009   0.695  12.839   9.869 -0.7762 -0.2903 -0.4998
14800SOL    HW162010   0.728  12.886   9.945  0.3888 -1.0110 -0.5259
14800SOL    HW262011   0.603  12.862   9.864 -0.5775  0.7708  0.3736
14801SOL     OW62012   2.144  10.122  10.277  0.0201  0.0641  0.1286
14801SOL    HW162013   2.050  10.128  10.263 -0.2101  1.3285  1.8656
14801SOL    HW262014   2.171  10.211  10.299  1.7851 -0.1009 -1.1266
14802SOL     OW62015   4.772   3.207   3.602 -0.2108  0.0100 -0.2809
14802SOL    HW162016   4.753   3.119   3.571 -0.6845 -0.7889  2.0911
14802SOL    HW262017   4.686   3.243   3.627  0.1261  0.6331  0.0073
14803SOL     OW62018   0.677  13.853   8.437  0.2334  0.2971  0.5341
14803SOL    HW162019   0.591  13.816   8.420  0.7068 -0.2920 -0.7000
14803SOL    HW262020   0.737  13.799   8.385  1.2607  1.1230  0.8292
14804SOL     OW62021   0.216   8.546  10.360 -0.1526 -0.5343  0.2771
14804SOL    HW162022   0.225   8.640  10.372 -2.1320  0.0426 -1.9017
14804SOL    HW262023   0.127   8.527  10.390 -0.5986 -1.2216 -1.3220
14805SOL     OW62024   8.389  11.499   3.242  0.3302 -0.1241  0.2353
14805SOL    HW162025   8.421  11.586   3.217  1.4232 -0.1727  1.3892
14805SOL    HW262026   8.392  11.500   3.338 -0.6620 -1.0708  0.2903
14806SOL     OW62027   9.984   1.644   1.403  0.3996 -0.2901 -0.1171
14806SOL    HW162028   9.898   1.633   1.361  0.1672  0.7648  0.0771
14806SOL    HW262029  10.037   1.688   1.337  0.6348 -0.4456 -0.0326
14807SOL     OW62030   7.413   1.153   7.228 -0.3625 -0.6033  0.2453
14807SOL    HW162031   7.384   1.104   7.305  1.1348  1.3574  2.2087
14807SOL    HW262032   7.333   1.173   7.180 -1.4481 -1.2062  1.7275
14808SOL     OW62033   1.543   1.143  11.511  0.6344  0.0564 -0.1789
14808SOL    HW162034   1.627   1.185  11.532  1.2352  0.6031 -3.1295
14808SOL    HW262035   1.554   1.113  11.421 -2.0853 -0.5877 -0.3719
14809SOL     OW62036   9.875  10.049   0.560  0.1077 -0.3528 -0.5257
14809SOL    HW162037   9.908  10.083   0.643 -1.8610  1.8190 -0.5398
14809SOL    HW262038   9.825   9.971   0.585  0.6980 -0.5352  0.1298
14810SOL     OW62039   0.756   5.506   1.323 -0.0273 -0.1312  0.0834
14810SOL    HW162040   0.831   5.463   1.365 -0.5428 -1.9167 -0.7347
14810SOL    HW262041   0.774   5.499   1.229 -0.3656  1.0670 -0.0860
14811SOL     OW62042   0.347   2.962  11.294 -0.1984  0.2010  0.4929
14811SOL    HW162043   0.257   2.986  11.316 -0.4955 -0.1044 -0.3637
14811SOL    HW262044   0.365   3.007  11.212  0.2067 -0.2570  0.3253
14812SOL     OW62045  10.037   3.706   7.397 -0.3042  0.0856  0.0919
14812SOL    HW162046  10.112   3.665   7.441  1.4181  2.4942 -0.4171
14812SOL    HW262047   9.961   3.658   7.430  1.3574 -1.9483  1.2355
14813SOL     OW62048  13.209   5.579   6.294  0.8234  0.1157  0.3975
14813SOL    HW162049  13.260   5.514   6.247  1.6688  0.4694  0.8057
14813SOL    HW262050  13.242   5.663   6.262 -1.7697  0.4244 -1.8026
14814SOL     OW62051   2.123   0.281   4.777 -0.3214  0.5990 -0.3746
14814SOL    HW162052   2.181   0.294   4.701  1.3776 -0.5891  0.6322
14814SOL    HW262053   2.162   0.336   4.846  1.2662 -2.0901  1.0701
14815SOL     OW62054  12.597   5.514   8.879 -0.3426 -0.4192  0.5238
14815SOL    HW162055  12.679   5.560   8.860 -1.4898  1.1613 -1.1263
14815SOL    HW262056  12.553   5.569   8.944  0.8401 -2.5048  3.2278
14816SOL     OW62057   2.813  11.596  11.518  0.4947  0.4522  0.1533
14816SOL    HW162058   2.846  11.519  11.471 -1.0454  0.5728 -1.2268
14816SOL    HW262059   2.854  11.671  11.474 -0.8895  0.5619 -1.0084
14817SOL     OW62060   0.191   4.545   9.703  0.5367 -0.7844  0.6749
14817SOL    HW162061   0.242   4.621   9.732 -0.3476 -0.4807  1.4732
14817SOL    HW262062   0.248   4.470   9.722  1.0802 -0.3826  0.6540
14818SOL     OW62063  10.662  12.613  12.052 -0.5681  0.1563 -0.3399
14818SOL    HW162064  10.629  12.601  12.141  0.5192  0.3097  0.1006
14818SOL    HW262065  10.645  12.705  12.033  1.6153  0.8595  0.7775
14819SOL     OW62066   8.851  13.644   1.673  0.1317  0.1652 -0.7054
14819SOL    HW162067   8.903  13.687   1.741 -0.7136  1.0006 -0.5703
14819SOL    HW262068   8.817  13.565   1.715 -1.0629  1.0979  0.1252
14820SOL     OW62069  12.813   7.410   2.468 -0.1931  0.7551 -0.7471
14820SOL    HW162070  12.869   7.421   2.545 -1.9213  0.5254  0.6287
14820SOL    HW262071  12.801   7.498   2.434  0.8906  0.8164 -1.0060
14821SOL     OW62072   0.866  11.163  14.031 -0.1024  0.3263 -0.3402
14821SOL    HW162073   0.804  11.233  14.054  0.0326  0.4210 -0.2621
14821SOL    HW262074   0.830  11.084  14.071  0.2811  0.5432  0.4498
14822SOL     OW62075   0.372   3.151   7.747 -0.1171  0.0708  0.1103
14822SOL    HW162076   0.310   3.182   7.680  0.5911  1.9386  0.2513
14822SOL    HW262077   0.405   3.068   7.712 -0.7575  0.3355 -1.2142
14823SOL     OW62078   0.773  10.848   1.625 -0.9095  0.2723 -0.6784
14823SOL    HW162079   0.846  10.794   1.594 -0.9894  0.5484 -1.3640
14823SOL    HW262080   0.738  10.889   1.546 -0.9605  1.1913 -0.1904
14824SOL     OW62081   1.675   6.923   9.714 -0.1915 -0.0274 -0.3295
14824SOL    HW162082   1.689   6.837   9.674 -0.0253 -0.4712  0.6587
14824SOL    HW262083   1.653   6.981   9.640  1.5066 -0.4976 -1.2652
14825SOL     OW62084   9.235  11.906   6.516  0.6425  0.3866  0.2907
14825SOL    HW162085   9.232  11.996   6.548  0.1730  1.0483 -1.4915
14825SOL    HW262086   9.317  11.900   6.467  0.7183 -0.1841  0.4812
14826SOL     OW62087  10.194  13.508   4.992 -0.1222  0.6115 -0.4193
14826SOL    HW162088  10.167  13.555   4.913  0.6328  0.2452 -0.9110
14826SOL    HW262089  10.284  13.479   4.973  1.2986  3.1897  1.7487
14827SOL     OW62090   0.957  11.508   2.432 -0.0718 -0.1933 -0.1551
14827SOL    HW162091   0.909  11.531   2.352 -0.1373  1.8956  0.4179
14827SOL    HW262092   0.889  11.486   2.496 -0.2904  1.9061  0.4003
14828SOL     OW62093  10.533   4.907  10.223 -0.1070  0.4161 -0.2684
14828SOL    HW162094  10.465   4.865  10.276 -2.6710  4.7774  0.3286
14828SOL    HW262095  10.594   4.944  10.287 -1.0934  2.4073 -0.4174
14829SOL     OW62096   6.855  12.625   3.298 -0.2703 -0.0262 -0.1428
14829SOL    HW162097   6.927  12.572   3.264 -0.0141  0.9390 -1.1654
14829SOL    HW262098   6.780  12.601   3.244 -0.5659 -0.5213  0.4694
14830SOL     OW62099   9.642   3.272  11.904 -0.3483  1.0130 -0.1332
14830SOL    HW162100   9.664   3.348  11.958 -1.2132  0.9569  0.3096
14830SOL    HW262101   9.560   3.239  11.940  1.1464 -1.5577  1.2343
14831SOL     OW62102  13.042  13.913   9.217  0.0256  0.5900 -0.1070
14831SOL    HW162103  13.103  13.946   9.150 -0.7060 -0.6479 -1.4344
14831SOL    HW262104  12.976  13.864   9.168  0.4962 -2.0122  1.6436
14832SOL     OW62105  13.145   9.130   6.120 -0.1073 -0.3177 -0.1481
14832SOL    HW162106  13.052   9.132   6.141 -0.0883  0.5857 -0.0944
14832SOL    HW262107  13.152   9.067   6.048 -0.7704 -0.3328 -0.2081
14833SOL     OW62108  13.587   4.459   9.614 -0.2087  0.9854 -0.3733
14833SOL    HW162109  13.632   4.495   9.537  1.4712 -0.6945 -0.2426
14833SOL    HW262110  13.655   4.410   9.661 -1.8862 -0.5592  0.5679
14834SOL     OW62111  13.444   1.149  11.428  0.1834 -0.3181  0.2504
14834SOL    HW162112  13.405   1.236  11.436  0.6765  0.0075 -0.7073
14834SOL    HW262113  13.503   1.156  11.353  0.2374 -1.4799  0.1617
14835SOL     OW62114   2.554  11.456   5.413 -0.2404 -0.5339 -0.0235
14835SOL    HW162115   2.477  11.455   5.355 -1.6097 -0.1523  1.6881
14835SOL    HW262116   2.566  11.364   5.438 -0.3191 -0.5563 -0.0677
14836SOL     OW62117   1.521  12.829   1.116 -0.1779  0.2556 -0.3580
14836SOL    HW162118   1.478  12.911   1.139  1.2303  1.3733 -1.4903
14836SOL    HW262119   1.468  12.761   1.158 -1.4780  1.7187  0.4685
14837SOL     OW62120  12.316   6.276   6.835 -0.2527  0.4578 -0.2845
14837SOL    HW162121  12.313   6.204   6.772 -1.2838  0.2012  0.0313
14837SOL    HW262122  12.351   6.237   6.914 -2.7346 -0.2931  0.5523
14838SOL     OW62123  12.320   3.527  12.820 -0.1782  0.8328 -0.2560
14838SOL    HW162124  12.278   3.604  12.783  2.0150  2.7120  0.9396
14838SOL    HW262125  12.248   3.465  12.835 -1.7730  1.9210 -2.8298
14839SOL     OW62126   5.353   9.893   6.297 -0.2816  0.2593  0.3314
14839SOL    HW162127   5.363   9.988   6.288 -1.2231  0.5020  1.4975
14839SOL    HW262128   5.280   9.871   6.239  1.7272 -0.2485 -2.1326
14840SOL     OW62129   5.853   0.965   0.192  0.0981  0.1748 -1.2764
14840SOL    HW162130   5.787   0.930   0.131 -1.1105  1.3515 -0.7014
14840SOL    HW262131   5.920   1.003   0.136 -1.5003  2.1674 -1.9608
14841SOL     OW62132   1.359  11.333   2.113  0.0842  0.0054 -0.5076
14841SOL    HW162133   1.330  11.368   2.198 -1.5888 -0.3133 -0.9172
14841SOL    HW262134   1.453  11.352   2.111  0.2568 -0.3230  1.5758
14842SOL     OW62135  13.662   4.579   4.317  0.2076 -0.3694 -0.1087
14842SOL    HW162136  13.671   4.663   4.363  0.8363  0.1809 -1.1985
14842SOL    HW262137  13.568   4.572   4.300  0.1272  0.0322  0.1359
14843SOL     OW62138   6.698   6.736   4.754  0.0964  0.6645 -0.3951
14843SOL    HW162139   6.735   6.811   4.709  1.1072  0.4077 -0.0137
14843SOL    HW262140   6.774   6.683   4.780 -0.5803 -0.3567 -0.4309
14844SOL     OW62141   8.381   9.805   1.825 -0.0478  0.0504  0.0261
14844SOL    HW162142   8.430   9.886   1.842  1.7981 -1.0433  0.1904
14844SOL    HW262143   8.295   9.835   1.796  0.4884  2.0675  0.3524
14845SOL     OW62144   6.337   2.471   7.410  0.3859 -0.1493  0.1133
14845SOL    HW162145   6.364   2.510   7.327 -1.3126  1.8756  0.4280
14845SOL    HW262146   6.244   2.490   7.416  0.1458 -1.6212  1.7887
14846SOL     OW62147  11.553   6.381  11.708  0.7583 -0.6774 -0.3682
14846SOL    HW162148  11.593   6.424  11.633  1.8553  0.3121  0.7271
14846SOL    HW262149  11.472   6.429  11.724  0.8629 -0.4530 -0.5049
14847SOL     OW62150  13.030   4.866   7.387  0.2494  0.7151  0.3236
14847SOL    HW162151  12.939   4.867   7.418  0.3366 -0.8247  0.7077
14847SOL    HW262152  13.055   4.958   7.385 -0.9948  1.1098  1.1911
14848SOL     OW62153   1.646  14.059  14.092 -0.1350  0.0893  0.0892
14848SOL    HW162154   1.715  14.111  14.131  0.0817  0.4710 -0.7707
14848SOL    HW262155   1.631  13.988  14.154  0.2837  0.5969  0.7859
14849SOL     OW62156   8.300   6.768   9.840  0.1884 -0.1593  0.6857
14849SOL    HW162157   8.323   6.683   9.875  0.7663 -0.5412 -0.5672
14849SOL    HW262158   8.204   6.771   9.844  0.1070 -1.2801 -0.1868
14850SOL     OW62159   1.224  10.826  11.033 -0.0689  0.1079  0.3103
14850SOL    HW162160   1.145  10.791  10.992 -1.2859  0.3433  2.2940
14850SOL    HW262161   1.197  10.847  11.123  2.4450 -0.5005  1.2973
14851SOL     OW62162  12.428   2.739  10.867  0.2502 -0.1092  0.4718
14851SOL    HW162163  12.421   2.665  10.927  2.3320  1.3918  2.7485
14851SOL    HW262164  12.375   2.808  10.908 -0.3535  0.2064 -0.7767
14852SOL     OW62165   6.417   1.595   5.720  0.0412  0.2142  0.3443
14852SOL    HW162166   6.509   1.618   5.706  0.4884 -0.0848  2.5246
14852SOL    HW262167   6.372   1.679   5.726  0.4447  0.3990  0.8548
14853SOL     OW62168   5.441   4.980   4.006 -0.3403 -0.0732  0.1390
14853SOL    HW162169   5.442   4.912   4.073  2.0045  0.4506  0.7253
14853SOL    HW262170   5.448   5.062   4.055  3.3591  0.2596 -0.6344
14854SOL     OW62171  11.815   2.076   2.295 -0.1455 -0.4386 -0.1553
14854SOL    HW162172  11.829   2.005   2.233 -1.9219 -1.4477  0.5012
14854SOL    HW262173  11.753   2.135   2.251  2.4373  1.5979 -1.2976
14855SOL     OW62174   6.346   1.069  12.087 -0.5715 -0.3351  0.2248
14855SOL    HW162175   6.377   1.142  12.034 -1.0262  0.2661  0.7678
14855SOL    HW262176   6.425   1.035  12.129 -0.2587 -0.6108 -0.5717
14856SOL     OW62177   4.842   5.406   6.298 -0.3787  0.4075 -0.4289
14856SOL    HW162178   4.831   5.496   6.329 -3.0887  0.0225 -0.0517
14856SOL    HW262179   4.936   5.397   6.286  0.4653  2.0649  3.3108
14857SOL     OW62180  10.135   1.755   4.838  0.1696  0.1659  0.1802
14857SOL    HW162181  10.197   1.685   4.858  1.2160  0.0953 -2.8418
14857SOL    HW262182  10.069   1.713   4.782 -0.8179  0.9928  0.6771
14858SOL     OW62183   3.873   2.928  10.919 -0.7052  0.0116  0.1559
14858SOL    HW162184   3.857   3.021  10.936  0.9678  0.3100  0.2284
14858SOL    HW262185   3.967   2.922  10.902 -0.5455 -1.8530  1.4098
14859SOL     OW62186   8.190   3.750  11.974 -0.1833 -0.2238 -0.7689
14859SOL    HW162187   8.206   3.744  12.068 -2.1698  1.4784 -0.2460
14859SOL    HW262188   8.263   3.703  11.934  1.0371 -0.4726  1.5868
14860SOL     OW62189   4.207  13.232  10.793 -0.7411  0.4883 -0.3311
14860SOL    HW162190   4.231  13.202  10.705  0.9275  1.0817 -0.1010
14860SOL    HW262191   4.183  13.152  10.840 -0.1960 -0.0082 -0.8813
14861SOL     OW62192   7.734   5.654   8.946  0.0527  0.1928  0.0043
14861SOL    HW162193   7.818   5.607   8.945  1.1763  2.0261 -1.6698
14861SOL    HW262194   7.692   5.629   8.864 -0.8909 -0.4424  0.6736
14862SOL     OW62195   5.768   2.539   9.773  0.6049 -0.4431  0.0793
14862SOL    HW162196   5.774   2.592   9.694 -1.8588 -0.7161 -0.3807
14862SOL    HW262197   5.781   2.449   9.743  1.2376 -0.4179  0.2653
14863SOL     OW62198  10.623   0.600  13.665  0.1898  0.5823 -0.3608
14863SOL    HW162199  10.563   0.531  13.638  1.5856 -0.9599  0.3076
14863SOL    HW262200  10.613   0.606  13.760  0.3196  1.0796 -0.3733
14864SOL     OW62201   4.156   8.349  11.091  0.1759  0.0722 -0.0057
14864SOL    HW162202   4.228   8.332  11.031  0.2889  0.5513 -0.0141
14864SOL    HW262203   4.082   8.300  11.056 -0.6265  2.6577 -2.2759
14865SOL     OW62204   5.203  11.062   7.846 -0.0280  0.2443 -0.2459
14865SOL    HW162205   5.261  11.065   7.922 -1.4274  0.6614  0.8520
14865SOL    HW262206   5.234  10.987   7.795  1.0018  0.0102  0.6785
14866SOL     OW62207   3.481  12.531   2.495  0.1195 -0.4279 -0.0581
14866SOL    HW162208   3.407  12.579   2.459 -0.3131 -0.3548  0.8881
14866SOL    HW262209   3.530  12.500   2.419 -0.6772 -0.1555 -0.6890
14867SOL     OW62210   8.240   3.220   0.019 -0.2733  0.1399 -0.3739
14867SOL    HW162211   8.232   3.299  -0.034 -1.6890  0.8578  0.8437
14867SOL    HW262212   8.268   3.252   0.105 -2.1914 -0.4960  0.5268
14868SOL     OW62213  11.837  10.285   3.632 -0.1300  0.1482 -0.1738
14868SOL    HW162214  11.894  10.267   3.706 -0.6417 -0.7188  0.0141
14868SOL    HW262215  11.897  10.317   3.564  0.4602  0.0734  0.2983
14869SOL     OW62216  12.499  10.855   4.268  0.2428  0.3322  0.6908
14869SOL    HW162217  12.539  10.864   4.355 -1.0742 -0.1747  1.3679
14869SOL    HW262218  12.413  10.896   4.277 -1.1731 -2.4314  0.5444
14870SOL     OW62219  13.273   9.842   9.138  0.1569  0.4582  0.0730
14870SOL    HW162220  13.208   9.866   9.205  0.1640  0.0335  0.2388
14870SOL    HW262221  13.357   9.853   9.181  0.1477 -0.2704  0.2952
14871SOL     OW62222  13.301   9.372  10.878 -0.0753 -0.2750 -0.1628
14871SOL    HW162223  13.341   9.457  10.895  0.2488 -0.2471 -1.0111
14871SOL    HW262224  13.365   9.327  10.823 -1.4296 -0.0205 -2.0276
14872SOL     OW62225   0.959   7.970   6.426  0.5479 -0.7332  0.0386
14872SOL    HW162226   0.918   7.885   6.414  0.3446 -0.5550 -0.5215
14872SOL    HW262227   0.887   8.033   6.421 -0.1112 -0.7339  4.8120
14873SOL     OW62228   3.253  12.312  12.474 -0.2568  0.8724 -0.4818
14873SOL    HW162229   3.331  12.324  12.527 -1.2450 -0.0342  1.2581
14873SOL    HW262230   3.180  12.339  12.530 -1.3136  0.3725 -1.5505
14874SOL     OW62231  12.179   3.254   6.821 -0.2526  0.7055 -0.4690
14874SOL    HW162232  12.202   3.220   6.908 -1.5506 -0.2257 -0.4455
14874SOL    HW262233  12.146   3.342   6.837 -2.2429 -0.1225  0.2749
14875SOL     OW62234  11.446  12.068   2.341 -0.0683 -0.7386  0.5089
14875SOL    HW162235  11.496  12.069   2.422  0.6075 -1.8471  0.1311
14875SOL    HW262236  11.362  12.108   2.364  0.4371 -0.2215  1.5220
14876SOL     OW62237   2.789   7.199   1.962 -0.1706  0.0198  0.2276
14876SOL    HW162238   2.880   7.230   1.952 -0.9135  2.5015  0.4732
14876SOL    HW262239   2.760   7.185   1.872  0.1204  0.2840  0.0881
14877SOL     OW62240   8.594   8.540  12.895  0.0481 -0.1226  0.0131
14877SOL    HW162241   8.546   8.623  12.894 -1.5328 -1.0004 -0.5887
14877SOL    HW262242   8.686   8.566  12.902 -0.3464  1.7118 -0.9198
14878SOL     OW62243   7.352  11.810   8.565  0.1444 -0.0546 -0.3221
14878SOL    HW162244   7.282  11.754   8.531  0.1108  0.2329 -0.7270
14878SOL    HW262245   7.306  11.882   8.609  0.1774  0.2934 -0.8463
14879SOL     OW62246  11.813  13.780   9.609  0.1268  0.1873  0.7232
14879SOL    HW162247  11.869  13.789   9.685 -0.4420  1.8214  0.9874
14879SOL    HW262248  11.732  13.824   9.633 -0.7637 -0.9075 -0.1514
14880SOL     OW62249   2.239   5.277   9.621 -0.3585  0.0287  0.0629
14880SOL    HW162250   2.330   5.307   9.622 -0.4948  0.5029 -0.7168
14880SOL    HW262251   2.205   5.308   9.537 -1.1084 -0.5433  0.1473
14881SOL     OW62252   9.743  11.691   8.987 -0.6151  0.1500  0.2476
14881SOL    HW162253   9.692  11.690   9.068 -2.4105 -0.2855 -0.8540
14881SOL    HW262254   9.741  11.601   8.955 -1.4840  0.6545 -1.2020
14882SOL     OW62255   2.058   2.142   6.805  0.1136 -0.4017 -0.3524
14882SOL    HW162256   2.062   2.140   6.710 -0.6241 -0.8258 -0.3846
14882SOL    HW262257   2.145   2.115   6.834  0.1253 -0.9734 -0.9063
14883SOL     OW62258   8.015   9.932   0.894  0.0197  0.1979  0.0819
14883SOL    HW162259   7.987   9.900   0.808  0.0126  0.4412 -0.0059
14883SOL    HW262260   8.111   9.931   0.890  0.0213  1.0811 -0.2539
14884SOL     OW62261   4.026   7.941   9.247  0.0272  0.2738  0.0464
14884SOL    HW162262   4.101   7.882   9.257 -0.2728 -0.1280 -0.0375
14884SOL    HW262263   3.949   7.884   9.256 -0.2703  0.4822 -0.9839
14885SOL     OW62264  13.960   0.936   6.789  0.0413 -0.1815  0.2804
14885SOL    HW162265  13.918   0.915   6.872 -1.0562  0.5862 -0.0552
14885SOL    HW262266  14.047   0.968   6.813  0.0343 -0.7286  1.0647
14886SOL     OW62267   3.525  12.456   9.485  0.2456  0.4441  0.0932
14886SOL    HW162268   3.596  12.444   9.422  1.0512  0.3366  0.9998
14886SOL    HW262269   3.448  12.416   9.443 -0.1489  3.4154 -2.3186
14887SOL     OW62270  10.007   2.366  13.388  0.3004 -0.0555  0.1795
14887SOL    HW162271  10.101   2.351  13.399  0.5978  0.5373 -1.3452
14887SOL    HW262272   9.966   2.289  13.427  1.4740 -1.0557 -0.4815
14888SOL     OW62273   6.330   9.259   0.870  0.4591  0.7848 -0.0388
14888SOL    HW162274   6.301   9.169   0.884  1.0976  0.6974  0.7880
14888SOL    HW262275   6.252   9.312   0.886  0.1409  0.4033 -0.2925
14889SOL     OW62276   6.940  13.850   7.544  0.6053  0.4898 -0.0042
14889SOL    HW162277   7.007  13.917   7.533  1.0701  0.0096 -0.1177
14889SOL    HW262278   6.915  13.826   7.454 -0.1640  1.0966  0.0308
14890SOL     OW62279   9.640  13.357  10.594  0.1500 -0.6437  0.1469
14890SOL    HW162280   9.577  13.285  10.591  0.4371 -1.0238  1.8431
14890SOL    HW262281   9.630  13.402  10.511 -2.0245 -0.9947  0.1697
14891SOL     OW62282  11.448   3.463   8.948 -0.6496  0.6685 -0.7235
14891SOL    HW162283  11.483   3.450   8.860  0.4013 -1.1027 -0.0947
14891SOL    HW262284  11.525   3.469   9.004 -1.2957  2.1366  0.0603
14892SOL     OW62285   8.244   8.180   6.987 -0.2645  0.1018  0.0130
14892SOL    HW162286   8.262   8.272   7.002 -0.3074  0.5679 -2.4950
14892SOL    HW262287   8.149   8.176   6.971 -0.2846 -0.4060  0.2174
14893SOL     OW62288   7.759   0.304   0.320  0.2064  0.1531  0.2459
14893SOL    HW162289   7.825   0.371   0.304 -0.1234  0.3114 -0.4557
14893SOL    HW262290   7.693   0.317   0.252 -0.2453 -0.3948  0.5656
14894SOL     OW62291   6.249  13.724   5.756 -0.4109  0.2332 -0.5281
14894SOL    HW162292   6.276  13.722   5.664 -1.6078 -2.5012 -0.9203
14894SOL    HW262293   6.309  13.662   5.800 -1.6161 -0.6561 -0.0754
14895SOL     OW62294   8.876   1.241  12.095  0.0308 -0.2694 -0.5309
14895SOL    HW162295   8.884   1.293  12.176 -0.1459 -0.6013 -0.2977
14895SOL    HW262296   8.783   1.223  12.088  0.1017 -0.6191 -0.5720
14896SOL     OW62297   7.663   1.194   6.935  0.3895 -0.0939 -0.2012
14896SOL    HW162298   7.683   1.118   6.989  0.8109 -0.9596 -1.5155
14896SOL    HW262299   7.650   1.158   6.847 -0.7244  1.2021 -0.6071
14897SOL     OW62300  10.857   3.818  12.251 -0.6114  0.2391 -0.3862
14897SOL    HW162301  10.859   3.771  12.168 -0.1555 -1.4363  0.5276
14897SOL    HW262302  10.782   3.782  12.297 -0.6319  0.8758  0.0931
14898SOL     OW62303   2.855  11.385   1.438  0.3995 -0.2451 -0.3931
14898SOL    HW162304   2.928  11.334   1.475  1.1537 -0.6477 -2.3428
14898SOL    HW262305   2.800  11.405   1.514  2.2756 -0.3223  1.0916
14899SOL     OW62306   0.652   4.976   0.772  0.1827  0.6997 -0.1499
14899SOL    HW162307   0.638   4.965   0.678  2.6229  0.3276 -0.5406
14899SOL    HW262308   0.618   5.063   0.791 -3.8320 -0.5813 -0.5002
14900SOL     OW62309   4.880  10.568   8.024 -0.5014 -0.0340  0.8567
14900SOL    HW162310   4.958  10.620   8.009 -0.3272 -0.2434  1.0365
14900SOL    HW262311   4.807  10.626   7.998 -0.2345 -0.2763 -0.5445
14901SOL     OW62312   8.128   3.165   7.933 -0.2088  0.0519 -0.3395
14901SOL    HW162313   8.168   3.249   7.909  0.1743 -0.0329 -0.0034
14901SOL    HW262314   8.197   3.118   7.980 -0.3616 -0.5271 -0.6847
14902SOL     OW62315   8.982   5.180  12.895 -0.2490  0.4323  0.4676
14902SOL    HW162316   9.023   5.156  12.978 -1.0665 -0.3756  0.6606
14902SOL    HW262317   8.905   5.231  12.920  0.1737  1.2504  0.1450
14903SOL     OW62318  11.876   3.211   7.020  1.0279  0.4120 -0.0255
14903SOL    HW162319  11.821   3.197   7.097  2.2484 -0.0708  0.7973
14903SOL    HW262320  11.815   3.216   6.947 -0.1026  0.0176  0.8657
14904SOL     OW62321  13.392   5.373  11.866 -0.0417 -0.5817 -0.5236
14904SOL    HW162322  13.370   5.376  11.773  1.0321 -0.9552 -0.8065
14904SOL    HW262323  13.370   5.285  11.893  0.2614 -0.6821 -0.5949
14905SOL     OW62324  11.145   0.707   0.177  0.0154  0.9785  0.1177
14905SOL    HW162325  11.143   0.791   0.130 -2.2249  1.0928  0.3101
14905SOL    HW262326  11.171   0.730   0.266  2.6792  0.9691 -0.5636
14906SOL     OW62327   1.611   8.478   6.461 -0.3097 -0.1739 -0.3997
14906SOL    HW162328   1.530   8.515   6.426 -0.6986 -2.9267 -2.7953
14906SOL    HW262329   1.641   8.417   6.394  2.8474 -0.5660  1.1726
14907SOL     OW62330   6.877  13.872  12.661 -0.1107  0.0447 -0.0480
14907SOL    HW162331   6.826  13.822  12.725  0.9759 -0.3100  0.5607
14907SOL    HW262332   6.811  13.920  12.611 -1.3560 -2.9509 -1.5639
14908SOL     OW62333  10.896   5.887  10.910  0.2411 -0.0005  0.2713
14908SOL    HW162334  10.812   5.908  10.951 -0.2526  0.4235 -0.9037
14908SOL    HW262335  10.961   5.905  10.978 -0.5595  0.4399  0.9432
14909SOL     OW62336   8.447  12.833  13.169 -0.0763 -0.3110 -0.3639
14909SOL    HW162337   8.447  12.758  13.109 -0.9495 -1.0067  0.4782
14909SOL    HW262338   8.355  12.852  13.184  0.1338  0.0491  0.5105
14910SOL     OW62339  13.727  10.261   7.663  0.9780 -0.3663 -0.3050
14910SOL    HW162340  13.801  10.296   7.712 -0.6043  0.6830  1.4927
14910SOL    HW262341  13.665  10.334   7.658 -0.1409 -1.3335 -1.3473
14911SOL     OW62342   2.922  12.361   7.281 -0.4051 -0.5049  0.2693
14911SOL    HW162343   2.994  12.401   7.234  0.1758 -1.1131  0.6199
14911SOL    HW262344   2.951  12.359   7.373 -1.7001  1.0788  0.7467
14912SOL     OW62345   7.178  11.571   9.797 -0.4857  0.0846  0.4081
14912SOL    HW162346   7.205  11.632   9.729  3.2238 -0.8213  0.8665
14912SOL    HW262347   7.119  11.510   9.753  0.6103  0.4182 -1.6041
14913SOL     OW62348   6.510   2.023   0.547  0.9706 -0.1410  0.0442
14913SOL    HW162349   6.440   2.089   0.542  2.3382  1.3203 -0.7153
14913SOL    HW262350   6.466   1.941   0.526 -1.1362  0.1945  2.5763
14914SOL     OW62351   2.998   0.511   8.010  0.4438  0.0413  0.6112
14914SOL    HW162352   3.069   0.454   8.041 -1.3445 -2.7353  0.0079
14914SOL    HW262353   2.945   0.528   8.088 -0.1245 -0.8878  0.4434
14915SOL     OW62354   5.056   6.242   7.412  0.0261  0.3093 -0.3711
14915SOL    HW162355   5.091   6.313   7.358 -1.9296  0.9112 -0.9003
14915SOL    HW262356   5.109   6.246   7.493  3.8877 -1.4292 -2.5217
14916SOL     OW62357   6.924  12.037   9.905  0.1254  0.5258  0.0289
14916SOL    HW162358   6.895  11.993   9.825  0.7294 -0.0412  0.1106
14916SOL    HW262359   7.020  12.038   9.898  0.1255  2.8218 -0.4819
14917SOL     OW62360   0.473   2.874   7.192 -0.0528 -0.1428  0.1079
14917SOL    HW162361   0.394   2.835   7.154 -0.3298  0.1543  0.3705
14917SOL    HW262362   0.506   2.932   7.123  0.0677 -0.4410 -0.0881
14918SOL     OW62363   8.747  13.505  13.440  0.3742 -0.0735 -0.5800
14918SOL    HW162364   8.740  13.509  13.345 -1.3692  0.1213 -0.4721
14918SOL    HW262365   8.775  13.416  13.458 -1.8014 -0.9333 -1.1907
14919SOL     OW62366   2.969   3.944   1.262 -0.1775  0.6020  0.9725
14919SOL    HW162367   3.042   3.886   1.281  1.6732  1.8180 -1.7130
14919SOL    HW262368   2.991   4.026   1.306  0.5241  1.1989 -0.4290
14920SOL     OW62369   7.092   3.518  11.892  0.5524 -0.3121 -0.7404
14920SOL    HW162370   7.118   3.595  11.841  1.4554  0.8853  1.3774
14920SOL    HW262371   7.050   3.555  11.970  0.9398 -1.9741  0.3016
14921SOL     OW62372   2.319   7.826  10.774 -0.5977  0.0279  0.5159
14921SOL    HW162373   2.315   7.756  10.838 -0.1719  0.1747  0.7027
14921SOL    HW262374   2.377   7.793  10.705 -0.0636  0.3557  0.8035
14922SOL     OW62375   5.087  13.208   8.131 -0.2845  0.1126 -0.2028
14922SOL    HW162376   5.124  13.129   8.093 -1.4382 -0.5694  0.0537
14922SOL    HW262377   5.051  13.180   8.215  0.5230  1.2008  0.5329
14923SOL     OW62378   5.477  12.170   7.466  0.1900  0.3926 -0.1500
14923SOL    HW162379   5.551  12.112   7.483 -0.9425 -0.7462  1.1936
14923SOL    HW262380   5.459  12.159   7.372  1.6296  0.6303 -0.4776
14924SOL     OW62381   5.171   3.800  11.552 -0.2698 -0.0826 -0.1024
14924SOL    HW162382   5.205   3.713  11.530  3.2087  0.8640  0.9485
14924SOL    HW262383   5.196   3.855  11.478 -0.0399  0.5270  0.4154
14925SOL     OW62384   5.180   0.870   3.858  0.6104 -0.0654  0.4289
14925SOL    HW162385   5.124   0.812   3.910 -1.3859  1.8841  0.5576
14925SOL    HW262386   5.138   0.875   3.773  1.8312 -0.2748 -0.2147
14926SOL     OW62387   4.679   1.977   5.515  0.1716 -0.0660 -0.3125
14926SOL    HW162388   4.590   1.956   5.540  0.0584  0.4652 -0.2430
14926SOL    HW262389   4.670   2.047   5.449  0.4759 -1.0964 -1.4885
14927SOL     OW62390   6.287  13.135   6.523  0.6449  0.3443 -0.2486
14927SOL    HW162391   6.286  13.190   6.444 -0.1136  2.5864  1.2199
14927SOL    HW262392   6.224  13.177   6.582 -2.8244 -4.1386 -0.2571
14928SOL     OW62393   1.573  14.080  10.225  0.3573 -0.2761 -0.1691
14928SOL    HW162394   1.542  14.096  10.135  0.7302  0.3302 -0.1934
14928SOL    HW262395   1.632  14.152  10.243  0.8736 -0.8102  0.2987
14929SOL     OW62396   9.609  11.493  13.070 -0.1161 -0.4073  0.2940
14929SOL    HW162397   9.593  11.509  12.977 -0.5599  0.2493  0.4752
14929SOL    HW262398   9.521  11.483  13.108  0.0551 -0.4725  0.6741
14930SOL     OW62399   5.186   5.378   3.501  0.3265 -0.1782  0.1806
14930SOL    HW162400   5.112   5.409   3.554 -0.4509 -1.7899  0.1068
14930SOL    HW262401   5.145   5.342   3.422  1.2581 -0.3200 -0.2449
14931SOL     OW62402   1.576   0.457   0.444 -0.3767 -0.3128  0.3534
14931SOL    HW162403   1.651   0.421   0.398 -0.5031  0.9951 -0.9314
14931SOL    HW262404   1.604   0.464   0.535  0.1463 -2.2068  0.3832
14932SOL     OW62405   2.363   7.332  10.760 -0.2954 -0.4205  0.1336
14932SOL    HW162406   2.335   7.293  10.842 -1.2111 -1.0143 -0.4364
14932SOL    HW262407   2.333   7.270  10.693 -1.6905  1.1649 -0.7965
14933SOL     OW62408   0.616  12.793  10.677 -0.1412 -0.1530  0.3158
14933SOL    HW162409   0.542  12.798  10.616 -0.1313  0.8372  0.3574
14933SOL    HW262410   0.678  12.858  10.643  0.5860 -0.7678  0.4474
14934SOL     OW62411  10.258  13.734  12.869 -0.2104 -0.0265 -0.3546
14934SOL    HW162412  10.276  13.654  12.819 -1.5398  0.0962 -1.0640
14934SOL    HW262413  10.218  13.703  12.950 -0.3173 -0.1077 -0.4378
14935SOL     OW62414  13.016  12.481  10.836 -0.0454  0.6746  0.4421
14935SOL    HW162415  13.109  12.468  10.857  0.6416  1.9365 -1.5379
14935SOL    HW262416  12.998  12.417  10.767 -0.7757  0.1709  1.0854
14936SOL     OW62417   3.436  13.269  11.944  0.1788 -0.6982 -0.8229
14936SOL    HW162418   3.386  13.314  12.013  1.2161  0.5468 -0.8495
14936SOL    HW262419   3.488  13.204  11.991 -2.0352 -2.6352 -0.8764
14937SOL     OW62420   9.756  11.069   1.981  0.1340 -0.2690 -0.4320
14937SOL    HW162421   9.681  11.100   1.930  0.1890  0.3547 -0.1407
14937SOL    HW262422   9.721  11.058   2.070 -0.8567 -4.4880 -1.1316
14938SOL     OW62423   1.038  10.445   4.744 -0.2961 -0.1680 -0.0066
14938SOL    HW162424   1.124  10.481   4.721 -0.9548  0.6332 -1.3282
14938SOL    HW262425   0.980  10.520   4.743 -0.9010 -0.5472  1.7566
14939SOL     OW62426   7.167   0.133   1.571  0.7811 -0.3079 -0.0465
14939SOL    HW162427   7.139   0.050   1.534 -1.4133 -0.8537  2.4850
14939SOL    HW262428   7.159   0.196   1.500 -0.6092 -1.7037 -1.1886
14940SOL     OW62429  12.928   5.175   2.591  0.0486  0.1003 -0.2883
14940SOL    HW162430  12.992   5.109   2.565  1.1932  0.6966  0.9167
14940SOL    HW262431  12.922   5.166   2.686  0.7110  2.1382 -0.0139
14941SOL     OW62432   5.410   3.634   5.840  0.1035 -0.4972 -0.0382
14941SOL    HW162433   5.342   3.579   5.878 -1.7199  1.0886 -0.8763
14941SOL    HW262434   5.408   3.615   5.747 -0.6487  1.0252 -0.3649
14942SOL     OW62435  12.649   9.851   8.438  0.0823 -0.0929 -0.3020
14942SOL    HW162436  12.585   9.923   8.440  0.1578 -0.0378  0.4161
14942SOL    HW262437  12.727   9.887   8.480  0.3066 -0.4239 -0.4308
14943SOL     OW62438   1.568   5.897   5.903  0.6741 -0.1287  0.0034
14943SOL    HW162439   1.518   5.978   5.895  2.6407  1.1412 -0.2856
14943SOL    HW262440   1.614   5.888   5.819  1.2640 -1.0050  0.4006
14944SOL     OW62441   1.774   1.347  10.927  0.3396 -0.0179  0.4591
14944SOL    HW162442   1.823   1.274  10.963  2.6554  1.1226 -0.2161
14944SOL    HW262443   1.732   1.311  10.849 -1.0898 -1.3431  1.7536
14945SOL     OW62444  11.653   0.370  10.082 -0.4838  0.1819 -0.0081
14945SOL    HW162445  11.713   0.441  10.059  0.3657  0.0115  1.5312
14945SOL    HW262446  11.607   0.350  10.001  0.2053  1.5890 -0.7869
14946SOL     OW62447   9.921   7.501   3.732  0.7342  0.0104  0.3407
14946SOL    HW162448   9.890   7.416   3.764  0.5522 -0.2318 -0.4601
14946SOL    HW262449   9.917   7.558   3.809 -3.2863  0.4666  0.0338
14947SOL     OW62450  13.763   6.059  12.108 -0.1621 -0.3280 -0.1787
14947SOL    HW162451  13.719   6.030  12.188 -1.7685  0.4919 -0.7089
14947SOL    HW262452  13.789   6.149  12.126  0.1434 -0.3844 -0.3300
14948SOL     OW62453   4.050   6.536  12.523 -0.2063 -0.2677  0.2296
14948SOL    HW162454   3.988   6.605  12.547 -0.7933 -0.5148 -0.5541
14948SOL    HW262455   3.996   6.467  12.486  0.5563 -0.4273 -0.6205
14949SOL     OW62456   7.071   8.684   1.958 -0.0639 -0.1407  0.1252
14949SOL    HW162457   7.090   8.598   1.995 -1.0893  0.1595  1.4250
14949SOL    HW262458   7.071   8.743   2.033  1.2436  1.1405 -0.8194
14950SOL     OW62459   3.629   4.570  13.412 -0.5362 -0.2934  0.1555
14950SOL    HW162460   3.682   4.541  13.338 -1.0648 -1.6964  0.2994
14950SOL    HW262461   3.598   4.489  13.453 -1.5082  0.4751  1.0042
14951SOL     OW62462   0.425   8.000  11.106  0.2469  0.0919 -0.3644
14951SOL    HW162463   0.465   8.063  11.046 -0.8216  2.4627  1.2576
14951SOL    HW262464   0.492   7.933  11.120  1.6685  1.1799 -1.6768
14952SOL     OW62465  10.771   1.451   0.849 -0.1902  0.4050  0.3374
14952SOL    HW162466  10.705   1.475   0.914 -0.5776 -0.5680  0.3292
14952SOL    HW262467  10.739   1.490   0.767 -0.8836 -0.2215  0.2913
14953SOL     OW62468  10.834  12.158   0.165  0.2562 -0.1824 -0.0383
14953SOL    HW162469  10.751  12.113   0.183  0.6013 -1.9904 -2.3374
14953SOL    HW262470  10.810  12.226   0.102  0.5980 -1.6954 -1.9311
14954SOL     OW62471   7.949   5.183  11.845 -0.4346  0.5652 -0.1355
14954SOL    HW162472   7.968   5.089  11.839  1.6007  0.9339 -0.0269
14954SOL    HW262473   7.853   5.187  11.846 -0.5780 -1.5394  0.4282
14955SOL     OW62474  12.826  11.760  10.900 -0.0982  0.3430 -0.1367
14955SOL    HW162475  12.756  11.709  10.860 -0.2294  1.1934 -1.0256
14955SOL    HW262476  12.804  11.851  10.881  1.5424  0.6050 -0.9510
14956SOL     OW62477   0.266   4.271  10.505 -0.8094 -0.1501 -0.1729
14956SOL    HW162478   0.285   4.359  10.473 -0.7787  0.2203  0.8089
14956SOL    HW262479   0.311   4.213  10.444  0.9496  0.5921  0.3207
14957SOL     OW62480   0.479   9.479   8.854 -0.0943  0.0111  0.4605
14957SOL    HW162481   0.548   9.493   8.789  1.1819 -0.0634  1.7570
14957SOL    HW262482   0.464   9.384   8.853  0.6896 -0.1311  1.0005
14958SOL     OW62483   4.672   4.983  13.477 -0.2827 -0.4125 -0.1515
14958SOL    HW162484   4.688   5.051  13.542 -0.7302  0.1039 -0.5710
14958SOL    HW262485   4.636   4.910  13.527  0.5007 -0.4678  0.3481
14959SOL     OW62486   6.541  11.982   9.560 -0.3505 -0.6214  0.2095
14959SOL    HW162487   6.539  12.067   9.604  0.7290 -0.5289  0.1189
14959SOL    HW262488   6.498  11.923   9.621 -1.0309 -0.0324  0.3147
14960SOL     OW62489   3.185   1.081   9.734 -0.1386 -0.4276  0.4807
14960SOL    HW162490   3.104   1.046   9.770 -0.1793 -1.4396 -0.5513
14960SOL    HW262491   3.255   1.036   9.782 -0.1781 -0.0757  0.8758
14961SOL     OW62492   6.690   1.314   6.707  0.7228 -0.2764 -0.1054
14961SOL    HW162493   6.739   1.231   6.710 -1.1202 -1.4874 -1.3529
14961SOL    HW262494   6.659   1.327   6.796  0.8076 -1.0824  0.0482
14962SOL     OW62495  12.392   3.907   3.507 -0.1851  0.1416  0.1403
14962SOL    HW162496  12.342   3.898   3.588  0.8980 -1.6585  0.6724
14962SOL    HW262497  12.328   3.939   3.443 -1.3709  0.3801  1.3876
14963SOL     OW62498  13.309   0.684   3.068 -0.2215 -0.3028 -0.5298
14963SOL    HW162499  13.346   0.722   3.148 -0.0820 -0.8680 -0.3194
14963SOL    HW262500  13.226   0.730   3.055  0.3416  0.6657 -0.7585
14964SOL     OW62501   8.173   7.218  13.771 -0.2144  0.4102  0.0569
14964SOL    HW162502   8.148   7.270  13.694  1.8327 -0.0365 -0.9934
14964SOL    HW262503   8.249   7.265  13.807 -1.0023  0.4766  1.6899
14965SOL     OW62504   5.451  12.940  13.255  0.0713  0.4850 -0.6381
14965SOL    HW162505   5.391  13.005  13.291 -0.3379 -1.5567  2.9301
14965SOL    HW262506   5.532  12.988  13.238 -1.7666  2.8948 -3.6167
14966SOL     OW62507   8.915  10.927   6.055  0.3506  0.9645 -0.1575
14966SOL    HW162508   8.977  11.000   6.060  1.9811 -0.4229  2.8459
14966SOL    HW262509   8.925  10.882   6.139 -0.7327 -2.5848 -1.7421
14967SOL     OW62510  10.796   0.118   4.232 -0.3465  0.4927  0.1066
14967SOL    HW162511  10.735   0.100   4.302  0.9466  1.6030  1.6047
14967SOL    HW262512  10.849   0.191   4.265  0.3519  1.0116 -1.9996
14968SOL     OW62513  13.883   7.809   9.040 -0.1563 -0.4415 -0.3218
14968SOL    HW162514  13.854   7.733   9.091  1.6737 -1.2069 -0.3372
14968SOL    HW262515  13.914   7.872   9.105 -2.9736  0.9700 -0.2110
14969SOL     OW62516   4.800  11.243   9.075 -0.0956 -0.4221 -0.0207
14969SOL    HW162517   4.869  11.179   9.094  1.0194  0.1003 -1.9424
14969SOL    HW262518   4.848  11.323   9.053 -1.3744  0.3643 -0.0353
14970SOL     OW62519   1.894   1.247   6.229  0.4447 -0.1579 -0.1971
14970SOL    HW162520   1.939   1.207   6.155 -0.6007 -1.2933 -0.2608
14970SOL    HW262521   1.801   1.231   6.213 -0.0125  1.9641  0.0171
14971SOL     OW62522   3.990   9.121  12.495 -0.2199  0.1089 -0.0319
14971SOL    HW162523   4.015   9.080  12.578  0.7075 -0.3782 -0.5398
14971SOL    HW262524   3.896   9.138  12.505 -0.0438  0.4437  1.2759
14972SOL     OW62525   3.883  14.018  12.272  0.0920 -0.0555 -0.1095
14972SOL    HW162526   3.939  14.040  12.197  0.5058  1.0829  0.5030
14972SOL    HW262527   3.806  13.977  12.233  0.5239  0.0631 -1.1188
14973SOL     OW62528   0.244   8.444  14.027  0.1422  0.3376 -0.1347
14973SOL    HW162529   0.290   8.393  14.093 -0.0873 -2.1273 -1.7646
14973SOL    HW262530   0.156   8.455  14.063 -0.1019 -1.3276 -0.1397
14974SOL     OW62531   4.700  10.596   6.688 -0.0898 -0.4128 -0.1215
14974SOL    HW162532   4.712  10.611   6.782 -0.4552 -1.4559  0.1125
14974SOL    HW262533   4.662  10.677   6.655 -1.7164 -0.6777  0.9912
14975SOL     OW62534   9.520   9.465   6.883 -0.0358 -0.2321 -0.6816
14975SOL    HW162535   9.603   9.417   6.882  0.2437  0.2580 -1.4669
14975SOL    HW262536   9.486   9.451   6.971  1.4198  0.4849  0.0161
14976SOL     OW62537   3.475   4.845   7.152  0.7096 -0.2853  0.0296
14976SOL    HW162538   3.401   4.899   7.180  0.5410  0.5680 -1.9317
14976SOL    HW262539   3.435   4.765   7.119  0.9515 -1.6473  2.7874
14977SOL     OW62540   7.605   0.427   8.496 -0.0305 -0.3302 -0.2423
14977SOL    HW162541   7.529   0.378   8.465  0.3361 -0.4120 -1.0262
14977SOL    HW262542   7.647   0.368   8.558 -0.8656 -0.0951  0.5862
14978SOL     OW62543   2.703   1.026  13.504  0.0806  0.0828  0.2083
14978SOL    HW162544   2.748   1.071  13.575  1.8363 -0.7201 -0.3461
14978SOL    HW262545   2.711   0.933  13.527 -0.0741 -0.1360 -0.6096
14979SOL     OW62546   4.865  11.397  11.480 -0.0310  0.0233 -0.0105
14979SOL    HW162547   4.776  11.419  11.453 -0.7247 -1.7020  0.7023
14979SOL    HW262548   4.922  11.445  11.420 -1.4471  0.8318 -0.7402
14980SOL     OW62549  13.437   7.229  11.344 -0.0708 -0.4330  0.3505
14980SOL    HW162550  13.425   7.308  11.291  0.8411 -1.0721 -0.8382
14980SOL    HW262551  13.466   7.262  11.429 -0.3326  0.5452  0.0737
14981SOL     OW62552  11.427  13.530   3.268  1.0491 -0.3032 -0.6806
14981SOL    HW162553  11.498  13.591   3.285 -1.0011  1.6565  1.4656
14981SOL    HW262554  11.468  13.443   3.276  3.3749  0.7128 -0.6889
14982SOL     OW62555   0.214  13.379   2.595  0.0967 -0.5508  0.6325
14982SOL    HW162556   0.167  13.418   2.668 -0.3860 -0.2197  0.1609
14982SOL    HW262557   0.147  13.366   2.528  0.3996 -1.4745  0.4958
14983SOL     OW62558   1.189  13.294   2.030 -0.1710 -0.3367  0.3157
14983SOL    HW162559   1.113  13.242   2.057 -0.0546 -0.1243  1.0763
14983SOL    HW262560   1.208  13.350   2.106  1.6803 -1.4546  0.7488
14984SOL     OW62561   2.041   6.489   3.196 -0.0247  0.4288 -0.1460
14984SOL    HW162562   2.026   6.573   3.240 -1.9018  0.0784 -0.0343
14984SOL    HW262563   2.003   6.500   3.109 -1.3380 -0.6470  0.2578
14985SOL     OW62564   7.879   4.023  13.287  0.7561 -0.2421  0.2697
14985SOL    HW162565   7.881   4.036  13.193 -1.0320  1.1713  0.3785
14985SOL    HW262566   7.851   3.932  13.298  0.5890 -0.2962 -0.5495
14986SOL     OW62567   4.377   5.450   0.755 -0.0490 -0.2584 -0.0337
14986SOL    HW162568   4.460   5.488   0.726  0.1664 -0.6366  0.0641
14986SOL    HW262569   4.402   5.365   0.792 -0.1574  0.6461  2.2700
14987SOL     OW62570  10.278  12.213   6.947 -0.0630  0.0430 -0.8518
14987SOL    HW162571  10.207  12.274   6.928 -1.4677 -0.5075  2.0701
14987SOL    HW262572  10.263  12.140   6.887 -0.4248  1.0308 -1.9991
14988SOL     OW62573   1.716   9.600   5.730  0.2600  0.2280 -0.2133
14988SOL    HW162574   1.629   9.562   5.743  0.0649  1.1076  1.3121
14988SOL    HW262575   1.767   9.530   5.689 -0.7041 -0.8907  0.4257
14989SOL     OW62576  11.785   4.108   9.122  0.0691  0.6550 -0.4091
14989SOL    HW162577  11.773   4.036   9.060  3.3259 -1.4821  1.1765
14989SOL    HW262578  11.698   4.149   9.128 -0.5712  0.9835 -6.0899
14990SOL     OW62579   6.028   2.580   4.850 -0.2426 -0.5019 -0.4479
14990SOL    HW162580   5.962   2.520   4.885 -0.6213  0.0285 -0.2508
14990SOL    HW262581   6.002   2.596   4.760 -0.4217 -0.2370 -0.3489
14991SOL     OW62582   0.906   4.884   1.440 -0.2678 -0.3142  0.1726
14991SOL    HW162583   0.843   4.826   1.483 -2.1167  1.6673  0.3362
14991SOL    HW262584   0.960   4.919   1.511 -1.4437  0.7733  0.5639
14992SOL     OW62585   9.030   5.209   3.553 -0.0589 -0.1540 -0.5865
14992SOL    HW162586   9.093   5.281   3.561  0.0593  0.3116 -3.9861
14992SOL    HW262587   9.056   5.146   3.620  3.5312  0.4268 -1.2248
14993SOL     OW62588  12.899   4.611   9.432 -0.5554 -0.2932  0.0920
14993SOL    HW162589  12.990   4.639   9.439 -0.5844 -0.4562  1.3404
14993SOL    HW262590  12.904   4.515   9.426 -0.6474 -0.3325  0.5656
14994SOL     OW62591   0.916   6.563   5.231 -0.0279 -0.2987 -0.0886
14994SOL    HW162592   0.931   6.517   5.148 -0.3164 -0.9797  0.2318
14994SOL    HW262593   0.850   6.629   5.210  0.4882  0.0692 -0.5832
14995SOL     OW62594   2.719   1.529  12.626  0.1333  0.4402  0.0189
14995SOL    HW162595   2.650   1.531  12.561  0.4411  3.1033 -0.3258
14995SOL    HW262596   2.791   1.481  12.583 -0.2428  0.7391 -0.9692
14996SOL     OW62597   0.285   2.295   0.034  0.0962 -0.3395  0.1068
14996SOL    HW162598   0.257   2.349   0.107 -2.5221  0.9261 -1.6705
14996SOL    HW262599   0.347   2.232   0.072  0.3599  1.4860  2.9522
14997SOL     OW62600  13.356   4.793  11.113 -0.2032  0.1314  0.3435
14997SOL    HW162601  13.348   4.707  11.152  1.6825 -0.4455 -0.4561
14997SOL    HW262602  13.338   4.779  11.020 -0.3654  0.7005  0.2806
14998SOL     OW62603   2.786   5.489   5.356  0.4196 -0.3927  0.5286
14998SOL    HW162604   2.718   5.445   5.407 -0.1433 -0.1822 -0.0219
14998SOL    HW262605   2.868   5.451   5.387 -0.0548 -1.9743 -0.0642
14999SOL     OW62606   7.175  13.747   8.614  0.2942 -0.1093 -0.2561
14999SOL    HW162607   7.254  13.798   8.634  0.2198  0.5908 -1.5917
14999SOL    HW262608   7.150  13.708   8.697  1.9388 -0.1936  0.2345
15000SOL     OW62609   5.910   3.084   7.751  0.8208  0.3551  0.5144
15000SOL    HW162610   5.902   3.052   7.662 -1.1755  1.3098  0.2990
15000SOL    HW262611   6.000   3.118   7.756  0.8062  0.7745 -1.3107
15001SOL     OW62612   4.020   6.032   8.848 -0.2956 -0.3529  0.2092
15001SOL    HW162613   4.016   6.114   8.799  1.5116 -1.5600 -2.1850
15001SOL    HW262614   3.956   5.974   8.806 -0.3963 -0.7045  0.8201
15002SOL     OW62615   3.258   5.183  12.861 -0.2225 -0.1723  0.0457
15002SOL    HW162616   3.193   5.253  12.868 -1.3423 -1.2605  0.9969
15002SOL    HW262617   3.339   5.228  12.839 -0.5609  1.6045  2.0602
15003SOL     OW62618   1.419   3.721   8.536  0.2169 -0.3088  0.2661
15003SOL    HW162619   1.508   3.695   8.514 -0.0354  0.1615 -1.4886
15003SOL    HW262620   1.404   3.800   8.484 -2.0254 -1.7184 -1.4266
15004SOL     OW62621   6.445   9.930   1.355 -0.0800 -0.2438  0.3173
15004SOL    HW162622   6.364   9.930   1.304 -1.4399  0.0834  2.3741
15004SOL    HW262623   6.446  10.014   1.399  0.8450 -0.6741  1.1552
15005SOL     OW62624  10.746   8.841   6.070  0.0711 -0.5694  0.3796
15005SOL    HW162625  10.785   8.758   6.043 -0.5168 -0.6166 -0.3493
15005SOL    HW262626  10.766   8.901   5.998 -0.5619 -0.4093  0.3270
15006SOL     OW62627   5.664   6.563   4.737  0.1940  0.5119  0.4112
15006SOL    HW162628   5.715   6.502   4.790 -0.0295 -0.0898 -0.0533
15006SOL    HW262629   5.581   6.517   4.720  0.6752  0.2231 -1.3604
15007SOL     OW62630   5.322   4.143   5.319  0.0652  0.0203 -0.1060
15007SOL    HW162631   5.386   4.213   5.319  1.0238 -0.7672  2.0796
15007SOL    HW262632   5.268   4.159   5.396 -0.9666 -0.5698 -0.6699
15008SOL     OW62633   3.676   1.961   6.058  0.1914  0.0428  0.4278
15008SOL    HW162634   3.673   2.049   6.096  0.2387 -0.1821  0.9580
15008SOL    HW262635   3.640   1.972   5.970 -1.9153  0.1998  1.2417
15009SOL     OW62636   1.229  12.299   4.633  0.2793  0.7014 -0.4044
15009SOL    HW162637   1.180  12.362   4.686 -1.5122 -1.1284  0.1904
15009SOL    HW262638   1.199  12.315   4.543 -0.4336  0.4862 -0.2103
15010SOL     OW62639  12.904  11.157   6.142  0.6048 -0.0892 -0.2803
15010SOL    HW162640  12.867  11.107   6.214 -2.8611  0.3361 -1.5998
15010SOL    HW262641  12.923  11.093   6.074  0.1369 -0.0660 -0.4329
15011SOL     OW62642  13.405   3.201  12.829  0.2352  0.4170 -0.2100
15011SOL    HW162643  13.309   3.202  12.821  0.2212  0.6942 -0.0150
15011SOL    HW262644  13.423   3.122  12.879  0.3037 -1.2100 -2.6012
15012SOL     OW62645  12.142  13.707  11.463 -0.4201  0.4631  0.3161
15012SOL    HW162646  12.167  13.696  11.372 -2.9772 -0.0956 -0.4113
15012SOL    HW262647  12.047  13.724  11.460 -1.2161 -2.5125  3.0017
15013SOL     OW62648   5.437  11.696  13.580 -0.0792 -0.0830 -0.5380
15013SOL    HW162649   5.441  11.600  13.577 -1.0313 -0.1154 -0.9272
15013SOL    HW262650   5.529  11.723  13.579  0.2084 -0.9918 -0.2791
15014SOL     OW62651   8.035  11.420   5.119  0.0495  0.7295 -0.9565
15014SOL    HW162652   8.021  11.453   5.030  0.8095  0.5638 -1.1513
15014SOL    HW262653   8.043  11.499   5.173  0.4449  0.8526 -1.1857
15015SOL     OW62654   7.302   3.508   3.191 -0.3549 -0.2706  0.4124
15015SOL    HW162655   7.326   3.544   3.277 -1.3408  2.0541 -0.2246
15015SOL    HW262656   7.329   3.575   3.128 -2.6727 -0.3912 -0.8072
15016SOL     OW62657   5.053  10.798  11.667  0.2376  0.2463  0.1487
15016SOL    HW162658   5.132  10.774  11.618  0.3409  2.0286 -0.6409
15016SOL    HW262659   4.993  10.725  11.652  1.5420 -0.9233  0.3744
15017SOL     OW62660   4.119   9.388  11.538  0.3462  0.3012 -0.0193
15017SOL    HW162661   4.118   9.484  11.535  0.9010  0.3688  1.3449
15017SOL    HW262662   4.032   9.363  11.509  0.3795  1.1831 -0.9715
15018SOL     OW62663   2.490   3.078  13.932 -0.1002 -0.3376 -0.0020
15018SOL    HW162664   2.437   3.122  13.866 -1.6242  0.5880  1.7368
15018SOL    HW262665   2.476   2.984  13.916 -2.7081 -0.1354  0.6585
15019SOL     OW62666   3.623   5.385  12.380 -0.2383  0.3381  0.5304
15019SOL    HW162667   3.625   5.335  12.461  0.9542 -0.2789  0.1411
15019SOL    HW262668   3.711   5.375  12.343 -0.9361  0.0266 -1.1646
15020SOL     OW62669  13.815   4.312   9.671 -0.3983 -0.1171 -0.2979
15020SOL    HW162670  13.892   4.360   9.700 -0.3095 -0.8736  0.7595
15020SOL    HW262671  13.843   4.269   9.590  0.1279  0.0382 -0.2011
15021SOL     OW62672   2.852  11.437   7.475  0.3990 -0.2331 -0.4426
15021SOL    HW162673   2.941  11.408   7.498  0.9226 -0.6273 -2.7432
15021SOL    HW262674   2.832  11.390   7.394 -0.6840  2.1875 -1.6600
15022SOL     OW62675   1.707   3.870   4.483  0.3337 -0.2168  1.1973
15022SOL    HW162676   1.664   3.784   4.488  0.7368 -0.4383  0.8574
15022SOL    HW262677   1.794   3.852   4.447  0.3905  0.3454  1.0392
15023SOL     OW62678  12.907   9.842   3.160  0.2257 -0.5582 -0.1874
15023SOL    HW162679  12.946   9.848   3.073 -0.0250  1.2045 -0.2202
15023SOL    HW262680  12.978   9.814   3.217  1.0940  0.8209 -0.5528
15024SOL     OW62681   0.151   1.768   2.228 -0.0380  0.4064  0.2877
15024SOL    HW162682   0.161   1.676   2.206 -1.6354  0.3740 -0.4446
15024SOL    HW262683   0.227   1.811   2.189 -0.2359 -0.3668 -1.0058
15025SOL     OW62684   1.391  12.375   6.100 -0.5601 -0.0337 -0.4210
15025SOL    HW162685   1.308  12.361   6.146  0.4837  1.2552  2.0841
15025SOL    HW262686   1.455  12.324   6.150  0.4384  0.3634 -1.2601
15026SOL     OW62687   6.121   4.221   6.776 -0.1281 -0.5080  0.4936
15026SOL    HW162688   6.045   4.248   6.725  0.5527 -0.8577 -0.7287
15026SOL    HW262689   6.084   4.192   6.859 -1.2175  0.4177  0.3575
15027SOL     OW62690  13.314   3.927   2.506 -0.9935 -1.1906 -0.2583
15027SOL    HW162691  13.363   3.906   2.427  0.0408  0.2820 -0.0414
15027SOL    HW262692  13.380   3.944   2.572 -1.8450 -2.2106  0.9011
15028SOL     OW62693   7.624   2.479   0.361  0.0014 -0.5980  0.1845
15028SOL    HW162694   7.564   2.553   0.351 -1.3720 -1.5397  1.0785
15028SOL    HW262695   7.693   2.512   0.419 -1.3376 -0.3852  1.7347
15029SOL     OW62696   4.523   4.284   3.819  0.2251 -0.3721 -0.4202
15029SOL    HW162697   4.492   4.198   3.848 -1.3034 -0.4450 -2.0759
15029SOL    HW262698   4.467   4.305   3.744  3.9165 -0.2741 -3.4005
15030SOL     OW62699  11.701   4.717  11.118 -0.2534 -0.0871 -0.5034
15030SOL    HW162700  11.633   4.762  11.168 -2.0733 -1.5814 -1.5077
15030SOL    HW262701  11.724   4.779  11.049 -0.2286  0.6256  0.1279
15031SOL     OW62702  10.112  11.717   3.360  0.3178 -0.3937 -0.6140
15031SOL    HW162703  10.162  11.726   3.442  1.7024 -0.8549 -1.3708
15031SOL    HW262704  10.071  11.803   3.347 -0.1257 -0.3874  0.6747
15032SOL     OW62705   4.505  13.131   1.771  0.2546  0.0554  0.2963
15032SOL    HW162706   4.535  13.195   1.706 -0.2568  1.4259  1.3553
15032SOL    HW262707   4.510  13.047   1.725  0.9533  0.8317 -1.1492
15033SOL     OW62708  10.929   7.003   4.992  0.1666 -0.4559 -0.4380
15033SOL    HW162709  10.986   6.929   5.011  0.3259 -0.7328 -1.8452
15033SOL    HW262710  10.898   7.033   5.077 -0.8307 -2.8771  0.1305
15034SOL     OW62711   3.915   2.095   8.037  0.4857 -0.4588 -0.2765
15034SOL    HW162712   3.995   2.133   8.000  0.6063 -1.4551 -1.1052
15034SOL    HW262713   3.849   2.110   7.970  0.0930 -0.0911  0.1900
15035SOL     OW62714   4.859   2.051  10.065 -0.2039 -0.5150  0.2094
15035SOL    HW162715   4.791   2.113  10.092 -0.3625 -1.2752  1.6328
15035SOL    HW262716   4.911   2.100  10.001  0.9871  1.9417  2.7988
15036SOL     OW62717   9.993   6.487  13.634  0.8424 -0.4745 -0.4280
15036SOL    HW162718  10.008   6.411  13.577 -1.0138 -1.1269 -0.1383
15036SOL    HW262719   9.982   6.449  13.721  1.1145  0.2512 -0.0813
15037SOL     OW62720  13.544   5.242  10.024 -0.2932 -0.1241  0.2883
15037SOL    HW162721  13.615   5.304  10.040  0.6394 -1.5764  2.1429
15037SOL    HW262722  13.465   5.296  10.023  0.6459  1.3129 -0.1376
15038SOL     OW62723   6.572   2.454  12.185 -0.1498  0.4890 -0.1285
15038SOL    HW162724   6.489   2.496  12.209  0.0332 -0.1946  1.8914
15038SOL    HW262725   6.637   2.494  12.242  0.3123 -1.3253  0.6720
15039SOL     OW62726   8.709   7.216  11.159  0.3492  0.2137 -0.5852
15039SOL    HW162727   8.617   7.240  11.147 -0.9225 -2.3775  2.5209
15039SOL    HW262728   8.725   7.145  11.097  0.5909  1.2035 -1.7000
15040SOL     OW62729   9.808  14.020  10.480  0.4154 -0.0717  0.0207
15040SOL    HW162730   9.763  14.084  10.425  0.5123  1.0673  1.1979
15040SOL    HW262731   9.845  14.073  10.551 -0.4181 -1.5593  1.6273
15041SOL     OW62732  10.219  10.476   6.922 -0.1922 -0.2596  0.0826
15041SOL    HW162733  10.303  10.439   6.950 -0.6882 -0.8557  0.8180
15041SOL    HW262734  10.243  10.552   6.869  0.8284 -0.9640 -0.4969
15042SOL     OW62735   7.055  13.425   5.660 -0.5504 -0.4770 -0.0435
15042SOL    HW162736   6.983  13.365   5.644  1.9887 -3.8418 -0.0940
15042SOL    HW262737   7.096  13.437   5.574  1.0973 -1.8572  0.4630
15043SOL     OW62738  10.164   5.930  12.179  0.3922 -0.1760  0.1990
15043SOL    HW162739  10.134   6.005  12.128 -0.1772 -0.1837  0.5166
15043SOL    HW262740  10.125   5.942  12.265  1.4083 -0.1212  0.6712
15044SOL     OW62741   5.030   4.059  13.939  0.4076 -0.2287 -0.0686
15044SOL    HW162742   5.119   4.038  13.967  0.4141 -0.9251 -0.5740
15044SOL    HW262743   4.997   3.977  13.902 -0.2396  0.1830 -0.4190
15045SOL     OW62744  10.699  13.216   0.796  0.2892 -0.0918  0.4378
15045SOL    HW162745  10.732  13.173   0.717  1.2033 -0.8066  1.1772
15045SOL    HW262746  10.628  13.272   0.765  0.7929 -0.1582 -0.9194
15046SOL     OW62747  10.157   1.271   9.107 -0.3241 -0.2660 -0.2257
15046SOL    HW162748  10.188   1.358   9.083 -0.2835 -0.4510 -0.8654
15046SOL    HW262749  10.194   1.213   9.040 -0.5879 -0.7312  0.0260
15047SOL     OW62750  11.175  11.809  10.893 -0.3535 -1.0697 -0.0092
15047SOL    HW162751  11.109  11.840  10.955 -1.6844 -0.9657 -1.4256
15047SOL    HW262752  11.222  11.888  10.867 -0.2493 -1.0151  0.3355
15048SOL     OW62753   5.418   9.844  13.716  0.7883  0.3023 -0.5310
15048SOL    HW162754   5.401   9.750  13.710 -0.2000  0.5642 -2.6591
15048SOL    HW262755   5.513   9.852  13.711  0.8549 -0.5494 -0.7898
15049SOL     OW62756   2.543  11.777   2.435 -0.0015  0.5293 -0.1327
15049SOL    HW162757   2.455  11.794   2.468 -0.1548  0.3667 -0.4532
15049SOL    HW262758   2.597  11.764   2.513 -0.3105  0.3893  0.0564
15050SOL     OW62759   2.726   3.216  12.489 -0.3087  0.3582  0.9146
15050SOL    HW162760   2.675   3.270  12.430  0.7043 -1.1952 -1.5544
15050SOL    HW262761   2.661   3.167  12.539 -1.2396  0.5663 -0.0607
15051SOL     OW62762  12.685   9.084   4.596 -0.4561 -1.1001 -0.8554
15051SOL    HW162763  12.619   9.015   4.586 -0.3539 -1.0640 -1.9258
15051SOL    HW262764  12.697   9.118   4.507  1.1101 -1.2091 -0.7097
15052SOL     OW62765   4.449   1.154   1.332  0.7223  0.2585 -0.2943
15052SOL    HW162766   4.387   1.110   1.273 -0.7921  1.7557  0.1172
15052SOL    HW262767   4.464   1.239   1.292  1.2333  0.5429  0.4838
15053SOL     OW62768   5.361   0.408   0.721 -0.4812  0.1076  0.1357
15053SOL    HW162769   5.395   0.427   0.634 -1.3491  0.6782 -0.0938
15053SOL    HW262770   5.403   0.471   0.779 -1.4840  1.1292 -0.2235
15054SOL     OW62771   8.435   7.438   1.322 -0.0916  0.7326  0.0825
15054SOL    HW162772   8.425   7.414   1.230 -1.3626 -0.2183  0.4417
15054SOL    HW262773   8.360   7.494   1.341 -0.0695  0.5690  0.6648
15055SOL     OW62774  13.932  13.423  10.323 -0.5052 -0.0606  0.1866
15055SOL    HW162775  13.930  13.369  10.244  0.9186  0.2842 -0.1112
15055SOL    HW262776  13.897  13.367  10.392 -0.9145 -0.6692 -0.4989
15056SOL     OW62777  10.364   9.617   0.009  0.3287 -0.5112 -0.2880
15056SOL    HW162778  10.353   9.688   0.072  0.4531 -0.5891 -0.1779
15056SOL    HW262779  10.350   9.658  -0.076 -0.4091 -0.5264 -0.1788
15057SOL     OW62780   7.428  12.802   3.324 -0.1762 -0.7392 -0.1171
15057SOL    HW162781   7.370  12.726   3.324 -0.2833 -0.6871 -1.6014
15057SOL    HW262782   7.506  12.773   3.276  0.7786 -0.6001  1.2751
15058SOL     OW62783  12.634   0.103   0.475 -0.2698  0.1035  0.2409
15058SOL    HW162784  12.698   0.173   0.484 -1.1689  1.1552 -1.1305
15058SOL    HW262785  12.681   0.035   0.425  0.8562 -0.7009  2.2376
15059SOL     OW62786   3.020  11.160   1.018  0.5059 -0.0302  0.6141
15059SOL    HW162787   3.048  11.132   0.931 -0.3305 -1.9148  0.8837
15059SOL    HW262788   3.025  11.255   1.016 -1.4705  0.1301 -2.2063
15060SOL     OW62789  12.962   7.567   4.124  0.4794 -0.1116  0.1728
15060SOL    HW162790  12.897   7.519   4.074  0.5308 -1.4978  1.3564
15060SOL    HW262791  12.990   7.638   4.066 -1.0375 -0.3357 -0.8855
15061SOL     OW62792   2.996  13.652   6.299  0.3810 -0.1804  0.2799
15061SOL    HW162793   3.067  13.684   6.243 -0.3340 -0.0176 -0.5499
15061SOL    HW262794   2.951  13.731   6.328  0.1004 -0.3140  0.2090
15062SOL     OW62795   1.487  10.089   2.279 -0.4989 -0.7371  0.1020
15062SOL    HW162796   1.410  10.145   2.269  0.1346  0.1731  0.1617
15062SOL    HW262797   1.508  10.060   2.190  1.2873  2.0912 -0.5302
15063SOL     OW62798   2.941   3.621   6.679 -0.4520 -0.0774  0.2760
15063SOL    HW162799   3.008   3.556   6.698  1.4215  1.3590 -0.9832
15063SOL    HW262800   2.898   3.589   6.600  0.5491  0.2071 -0.4134
15064SOL     OW62801  13.454   0.973   8.062 -1.0355 -0.1247 -0.1886
15064SOL    HW162802  13.516   1.046   8.060 -2.0044  0.7871  1.2762
15064SOL    HW262803  13.451   0.942   7.972  0.8329  0.4029 -0.4763
15065SOL     OW62804   1.340   1.913   5.767  0.5758  0.5338 -0.0751
15065SOL    HW162805   1.246   1.898   5.766  0.5578  0.6004  0.4194
15065SOL    HW262806   1.353   1.986   5.827  1.0663 -0.3985  0.9874
15066SOL     OW62807   8.048   2.870  10.328 -0.1749  0.1536 -0.0249
15066SOL    HW162808   8.116   2.914  10.379  0.1880 -0.8795  0.3926
15066SOL    HW262809   8.003   2.942  10.282 -0.7222  1.1509  1.9701
15067SOL     OW62810   0.001  13.823   5.481 -0.5704  0.0196  0.0311
15067SOL    HW162811  -0.028  13.866   5.400  1.1359  1.1117 -0.0581
15067SOL    HW262812   0.071  13.764   5.453  0.2049  0.5936  0.7182
15068SOL     OW62813   8.643   9.891   4.816  0.3162  0.5471 -0.3356
15068SOL    HW162814   8.628   9.885   4.910 -1.2041  0.5374 -0.5397
15068SOL    HW262815   8.621   9.803   4.783  4.5871 -0.7579 -0.3462
15069SOL     OW62816   7.140   6.512   6.988  0.2074 -0.6980 -0.1550
15069SOL    HW162817   7.187   6.591   6.962 -1.6849 -0.4448 -3.3482
15069SOL    HW262818   7.048   6.532   6.971 -0.7512 -2.4637  2.2494
15070SOL     OW62819   2.424   3.875   3.060  0.4273  0.2589 -0.0952
15070SOL    HW162820   2.456   3.938   3.124  2.6346  1.0757 -1.8655
15070SOL    HW262821   2.332   3.899   3.047  0.7097  1.8883  0.6829
15071SOL     OW62822  13.898   8.589   2.320 -0.1102  0.4933 -0.3354
15071SOL    HW162823  13.905   8.673   2.274 -0.0733  1.8981  2.0984
15071SOL    HW262824  13.825   8.600   2.381 -0.3884 -1.4216 -0.2419
15072SOL     OW62825   8.037  13.856   3.620 -0.4387  0.2364 -0.8017
15072SOL    HW162826   8.036  13.848   3.525  0.9561 -0.0854 -0.8103
15072SOL    HW262827   8.071  13.945   3.636 -1.4161  0.5871 -0.5953
15073SOL     OW62828  13.290  13.982   9.453  0.2801  0.2973 -0.2806
15073SOL    HW162829  13.330  13.939   9.378  1.3688  1.4786 -0.4146
15073SOL    HW262830  13.298  14.076   9.434 -0.8765  0.5995  0.5719
15074SOL     OW62831   7.014   0.389  12.151 -0.1675  0.5745  0.3751
15074SOL    HW162832   6.961   0.312  12.169 -0.8243  0.6801 -0.9484
15074SOL    HW262833   7.093   0.355  12.110 -0.2038  0.5665  0.3116
15075SOL     OW62834   8.510   2.594   9.345 -0.0188  0.4423  0.8911
15075SOL    HW162835   8.456   2.548   9.409  0.7365  1.4077  2.2581
15075SOL    HW262836   8.478   2.684   9.347  0.1262  0.5248  0.0041
15076SOL     OW62837   3.303   4.341   4.907  0.1357  0.2549 -0.1036
15076SOL    HW162838   3.261   4.265   4.947 -0.5097  1.0052  0.6910
15076SOL    HW262839   3.247   4.362   4.832  0.1161  0.1516 -0.1181
15077SOL     OW62840   7.085   5.522  12.226 -0.3155  0.7121  0.3665
15077SOL    HW162841   7.022   5.566  12.169 -3.2426 -1.9822  1.2370
15077SOL    HW262842   7.049   5.532  12.314  1.0802 -0.0092  1.0506
15078SOL     OW62843   8.387   9.072   5.681 -0.5801 -0.0300  0.3519
15078SOL    HW162844   8.366   9.092   5.772 -0.7051 -1.5909  0.7002
15078SOL    HW262845   8.311   9.104   5.632 -2.1706 -2.2627  1.2038
15079SOL     OW62846   1.135   7.281   7.352 -0.2502  0.1354  0.2181
15079SOL    HW162847   1.220   7.312   7.384  1.0288 -1.1708 -1.7280
15079SOL    HW262848   1.138   7.186   7.364 -1.5689  0.0869  0.3482
15080SOL     OW62849   5.278   8.383   3.934 -0.1170  0.0067  0.4051
15080SOL    HW162850   5.365   8.376   3.895 -0.7243  2.8672 -1.8044
15080SOL    HW262851   5.218   8.388   3.860 -1.9273  0.3729  1.8220
15081SOL     OW62852  12.844   2.744  12.230  0.3194 -0.2479 -0.1118
15081SOL    HW162853  12.889   2.827  12.246 -1.1608  0.3100  1.4936
15081SOL    HW262854  12.879   2.714  12.147  1.5435  1.5482 -0.3160
15082SOL     OW62855  10.879   8.465   3.587  0.6976  0.0194  0.0169
15082SOL    HW162856  10.850   8.398   3.649  0.6493  0.7813  0.8376
15082SOL    HW262857  10.909   8.415   3.510  0.3148 -0.9177  0.4523
15083SOL     OW62858  12.340   3.345  10.951 -0.1667  0.0928  0.4348
15083SOL    HW162859  12.398   3.395  11.008  0.5970 -1.2249  0.8497
15083SOL    HW262860  12.395   3.321  10.876 -0.1344 -1.1936  0.8448
15084SOL     OW62861   7.610   1.352   1.974 -0.0471 -0.3988  0.1878
15084SOL    HW162862   7.657   1.285   2.025 -1.4725 -1.5246  0.0960
15084SOL    HW262863   7.678   1.393   1.920  1.0602 -0.9541  1.1046
15085SOL     OW62864   5.478   5.193  10.509  0.2891  0.1089  0.1991
15085SOL    HW162865   5.521   5.122  10.557  2.6209  1.9139  0.9576
15085SOL    HW262866   5.476   5.266  10.570 -1.5121  0.9348 -0.7612
15086SOL     OW62867  12.033   4.286   6.646 -0.3723  0.0091 -0.3056
15086SOL    HW162868  12.105   4.223   6.656 -0.6942 -0.0742  1.9965
15086SOL    HW262869  11.960   4.233   6.613 -0.7377 -0.9800  1.9128
15087SOL     OW62870  12.007   0.929   3.882 -0.3900  0.1736 -0.1244
15087SOL    HW162871  11.969   0.892   3.962  0.0147 -1.5706 -0.6931
15087SOL    HW262872  12.095   0.955   3.908  0.4824 -2.2424 -0.3962
15088SOL     OW62873   9.081   2.812   4.341 -0.8468  0.4968  0.0036
15088SOL    HW162874   9.064   2.857   4.258 -2.4979 -0.9056 -0.4840
15088SOL    HW262875   9.123   2.731   4.315  1.7663  1.4916  0.8474
15089SOL     OW62876   3.613   8.686  12.252 -0.0062  0.2439 -0.3028
15089SOL    HW162877   3.519   8.666  12.250  0.4404 -2.0718 -1.2324
15089SOL    HW262878   3.617   8.775  12.287 -2.5685  0.5933 -0.6494
15090SOL     OW62879   0.654   2.511   0.884  0.1067  0.4927 -0.3458
15090SOL    HW162880   0.657   2.502   0.789  1.1079  1.4648 -0.4340
15090SOL    HW262881   0.661   2.606   0.899 -0.4345  0.3767  0.6808
15091SOL     OW62882  10.312   2.205   7.213 -0.3761  0.6842 -0.2772
15091SOL    HW162883  10.345   2.259   7.141  0.2028  0.4595 -0.1922
15091SOL    HW262884  10.380   2.212   7.280  0.1938 -0.9200 -0.6362
15092SOL     OW62885   6.782  12.384  12.650  0.2278 -0.1805 -0.7554
15092SOL    HW162886   6.709  12.410  12.707  0.2199 -0.8095 -0.4744
15092SOL    HW262887   6.805  12.465  12.604  0.8245  0.5647  0.7748
15093SOL     OW62888  10.967   7.518   1.266  0.3891 -0.2989 -0.2792
15093SOL    HW162889  10.880   7.495   1.297  0.1155  3.0683  1.9300
15093SOL    HW262890  10.957   7.605   1.228  2.7121 -0.0062 -0.3684
15094SOL     OW62891   7.465   3.986   2.067  0.5928  0.1351  0.0453
15094SOL    HW162892   7.493   3.921   2.132 -1.2353  1.1427  1.9702
15094SOL    HW262893   7.385   3.949   2.030  0.4760  0.5344 -0.1000
15095SOL     OW62894   3.932   0.752   0.544  0.0440  0.5574  0.1392
15095SOL    HW162895   3.939   0.657   0.556 -0.4742  0.1301 -2.3183
15095SOL    HW262896   3.842   0.772   0.569  0.6455  0.7388  2.3029
15096SOL     OW62897   3.752  11.547   6.185  0.0265  0.4716 -0.0641
15096SOL    HW162898   3.739  11.631   6.228 -0.5876  0.0318  0.6376
15096SOL    HW262899   3.664  11.511   6.177  0.4459 -1.0149  1.5306
15097SOL     OW62900   4.237   5.800   4.384 -0.3555  0.8053  0.0315
15097SOL    HW162901   4.190   5.796   4.467 -0.0028  1.3287  0.2629
15097SOL    HW262902   4.322   5.838   4.406 -0.6478  1.9724 -0.7356
15098SOL     OW62903   9.638  12.818  10.750 -0.1696  0.0505 -0.8713
15098SOL    HW162904   9.722  12.862  10.759 -0.5553  0.6643 -0.1395
15098SOL    HW262905   9.612  12.833  10.659  0.4931 -0.1176 -1.0901
15099SOL     OW62906   1.438   2.129   8.642 -0.3555  0.1324  0.0759
15099SOL    HW162907   1.376   2.063   8.610  0.4419 -0.9873  0.8047
15099SOL    HW262908   1.395   2.166   8.720  0.1828 -1.1495  1.0030
15100SOL     OW62909   0.479   3.769   7.715  0.3290 -0.1272  0.2527
15100SOL    HW162910   0.391   3.767   7.751  0.3642 -1.0610  0.3114
15100SOL    HW262911   0.487   3.688   7.665  1.4368 -0.4892  0.9648
15101SOL     OW62912  11.439  11.492   2.003  0.1876  0.2588 -0.3037
15101SOL    HW162913  11.410  11.538   2.081 -1.8842 -0.5417 -0.5504
15101SOL    HW262914  11.391  11.410   2.003  0.3591  0.0916 -2.2484
15102SOL     OW62915   4.905  10.652   8.595 -0.0862  0.0550 -0.1399
15102SOL    HW162916   4.918  10.606   8.678 -0.4422  0.6819  0.2709
15102SOL    HW262917   4.920  10.586   8.528 -0.5491 -0.6440  0.4388
15103SOL     OW62918  10.188   1.902  11.054 -0.4813 -0.5113  0.0268
15103SOL    HW162919  10.177   1.947  11.137  0.2642 -0.3831  0.0666
15103SOL    HW262920  10.203   1.972  10.990 -1.2372 -0.5976 -0.2530
15104SOL     OW62921  11.869  12.656   5.187  0.4595  0.2297  0.1393
15104SOL    HW162922  11.895  12.748   5.187  0.1429  0.3403  1.0972
15104SOL    HW262923  11.936  12.613   5.240  1.1651 -0.2771 -1.1426
15105SOL     OW62924  13.989  11.477   7.342 -0.6411  0.8028  0.4050
15105SOL    HW162925  13.958  11.423   7.415  0.3339 -0.3143  0.0243
15105SOL    HW262926  14.085  11.472   7.348 -0.5478  0.6151 -1.0004
15106SOL     OW62927   5.292   6.356  10.915  1.0707  0.0926  0.2357
15106SOL    HW162928   5.215   6.402  10.948  0.5796 -1.0342  0.7266
15106SOL    HW262929   5.263   6.265  10.908  1.8048 -0.0524 -1.3129
15107SOL     OW62930  11.308  10.939   7.807 -0.0151 -0.1678 -0.1289
15107SOL    HW162931  11.330  10.945   7.900 -1.0473 -1.1359  0.2044
15107SOL    HW262932  11.380  10.983   7.763 -0.0470  1.2932  1.1824
15108SOL     OW62933   1.560   4.846   3.167  0.0420 -0.0683 -0.4143
15108SOL    HW162934   1.576   4.868   3.259 -0.6142  0.9673 -0.5259
15108SOL    HW262935   1.628   4.892   3.119 -1.0671  1.4641 -0.6127
15109SOL     OW62936   6.227   1.564   1.193  0.0014  0.3027 -0.4325
15109SOL    HW162937   6.240   1.585   1.285  1.2966  3.0537 -1.1311
15109SOL    HW262938   6.199   1.647   1.153  0.1470 -0.6316 -2.6316
15110SOL     OW62939   1.466   6.491  10.204 -0.0356 -0.0456  0.5603
15110SOL    HW162940   1.457   6.428  10.132  0.1703 -0.6806  1.0728
15110SOL    HW262941   1.390   6.473  10.260  0.9462 -1.0527  1.6083
15111SOL     OW62942  12.072   7.944   3.950  0.4167 -0.3477  0.0105
15111SOL    HW162943  12.050   7.992   4.029  1.8417  0.8917 -0.3081
15111SOL    HW262944  12.025   7.988   3.880  1.3393  0.3147 -0.2111
15112SOL     OW62945  10.441   4.590  11.149  0.2212 -0.6489  0.1040
15112SOL    HW162946  10.375   4.582  11.218 -0.2271  0.9223 -0.1031
15112SOL    HW262947  10.402   4.650  11.085  0.4606 -2.3155 -1.7374
15113SOL     OW62948  11.604   6.028   6.248  0.0110  0.2951 -0.0169
15113SOL    HW162949  11.620   6.086   6.323  0.9838 -0.1151  0.1179
15113SOL    HW262950  11.682   6.038   6.194 -1.7741  2.6165 -2.4047
15114SOL     OW62951  13.067  10.063   9.023  0.3269  0.6393 -0.2453
15114SOL    HW162952  13.046  10.085   9.114 -1.3323 -0.0961 -0.4172
15114SOL    HW262953  13.020   9.981   9.007  2.4121 -0.4500 -1.1013
15115SOL     OW62954   6.551   5.182   0.440 -1.0033 -0.3546 -0.2316
15115SOL    HW162955   6.570   5.115   0.374  1.1490 -0.7295  0.6844
15115SOL    HW262956   6.555   5.136   0.523 -1.2692  0.5695  0.3085
15116SOL     OW62957  10.440  13.074   6.004 -0.2357 -0.1159 -0.4000
15116SOL    HW162958  10.447  13.089   6.099 -0.7762  0.2165 -0.4069
15116SOL    HW262959  10.518  13.024   5.982  2.4379  3.6397 -0.5414
15117SOL     OW62960   0.194   6.969  10.998 -0.2624 -0.0433  0.1471
15117SOL    HW162961   0.110   6.947  11.038 -0.9816  1.5176 -0.4132
15117SOL    HW262962   0.173   7.038  10.936  1.3961  0.1067 -0.2903
15118SOL     OW62963   6.188   3.886   6.535  0.8455  0.2787  0.5240
15118SOL    HW162964   6.221   3.933   6.458  1.9725  1.1893  1.5230
15118SOL    HW262965   6.197   3.949   6.606 -0.7630 -0.3303  1.3178
15119SOL     OW62966   2.703   2.389  12.086 -0.2143  0.3918  0.1131
15119SOL    HW162967   2.783   2.347  12.120 -0.6213 -0.8783 -0.4501
15119SOL    HW262968   2.717   2.482  12.101  1.0331  0.1226  0.7596
15120SOL     OW62969   1.201   8.019   8.380 -0.5013  0.1601  0.1635
15120SOL    HW162970   1.140   8.062   8.440  0.3171  0.8124  0.5349
15120SOL    HW262971   1.227   7.939   8.424 -0.3419  0.3590  0.4284
15121SOL     OW62972  11.329  13.856   6.413  0.2698  0.2197  0.1439
15121SOL    HW162973  11.249  13.907   6.429  1.1837  1.0524  2.5308
15121SOL    HW262974  11.338  13.802   6.491  1.5370 -0.5860 -0.5338
15122SOL     OW62975   5.570   4.838   5.511  0.3393  0.0080  0.5441
15122SOL    HW162976   5.595   4.930   5.510 -0.0313  0.1232  1.2893
15122SOL    HW262977   5.484   4.837   5.554  0.5928 -0.7334  1.0497
15123SOL     OW62978  12.914   3.826   2.136  0.5047  0.4283 -0.1439
15123SOL    HW162979  12.987   3.852   2.192  0.2209  0.6376  0.1331
15123SOL    HW262980  12.913   3.731   2.140  0.8014  0.4224 -0.1986
15124SOL     OW62981   1.847   2.906   9.707 -0.3605  0.3467 -0.3150
15124SOL    HW162982   1.942   2.902   9.699 -0.3533  0.2148 -0.1521
15124SOL    HW262983   1.829   2.993   9.743 -0.3677  0.8108 -1.3939
15125SOL     OW62984   6.437   0.443   3.960  0.2736  0.1448  0.0511
15125SOL    HW162985   6.412   0.424   4.050 -1.1203  0.0653 -0.3355
15125SOL    HW262986   6.486   0.365   3.932  1.7939  0.6869  1.1080
15126SOL     OW62987  10.510  10.335   4.028  0.0304  0.0049  0.0146
15126SOL    HW162988  10.438  10.360   3.970  1.5691  1.0530 -1.5458
15126SOL    HW262989  10.544  10.418   4.061  2.5646 -0.1714 -1.9036
15127SOL     OW62990   1.008   5.740  11.393 -0.1402  0.0803  0.0213
15127SOL    HW162991   0.972   5.683  11.326 -0.0447  0.3552 -0.2650
15127SOL    HW262992   0.955   5.722  11.471 -1.2553  0.8527 -0.5273
15128SOL     OW62993   2.477   2.483   5.845 -0.1172 -0.4002 -0.5223
15128SOL    HW162994   2.430   2.419   5.899 -0.6635  1.3306  1.1471
15128SOL    HW262995   2.557   2.437   5.818  0.2593 -1.3055  1.9074
15129SOL     OW62996   7.825  10.370  12.178 -0.5660  0.5287  0.5281
15129SOL    HW162997   7.818  10.390  12.271 -0.9584 -2.0609  1.1157
15129SOL    HW262998   7.872  10.287  12.174  0.3334  1.0731 -1.6627
15130SOL     OW62999  10.188   3.459   1.287 -0.0821  0.0315  0.2974
15130SOL    HW163000  10.239   3.495   1.214 -0.7010 -1.2727 -0.8334
15130SOL    HW263001  10.227   3.373   1.303  0.1514  0.3659  1.6509
15131SOL     OW63002   3.661  14.078   1.757  0.3657 -0.0113  0.2908
15131SOL    HW163003   3.590  14.014   1.758  1.5307 -1.4644 -1.5973
15131SOL    HW263004   3.736  14.030   1.720  2.1123  1.6794  1.4210
15132SOL     OW63005  10.639   0.581   7.312 -0.9649 -0.7042  0.3509
15132SOL    HW163006  10.585   0.576   7.391 -1.0738  2.1257  0.5560
15132SOL    HW263007  10.725   0.609   7.344  0.0233 -2.8672 -0.2321
15133SOL     OW63008   4.265   4.067   3.868  0.0422  0.2822 -0.6686
15133SOL    HW163009   4.278   4.036   3.958 -1.1787  0.5655 -0.3817
15133SOL    HW263010   4.211   4.000   3.827 -0.2320  0.6339 -0.8905
15134SOL     OW63011  11.986  12.905   9.465  0.2211  0.5893  0.0060
15134SOL    HW163012  11.983  12.810   9.463  2.2912  0.4837 -0.1046
15134SOL    HW263013  11.897  12.932   9.491 -0.2368 -1.3688  0.5924
15135SOL     OW63014   6.266   1.818   7.394  0.3082  0.3396  0.4189
15135SOL    HW163015   6.340   1.867   7.359  1.2668  0.5866  2.6337
15135SOL    HW263016   6.279   1.729   7.363  1.1287  0.5442  0.1553
15136SOL     OW63017  11.451   8.607  11.339  0.1151  0.6591  0.0250
15136SOL    HW163018  11.395   8.663  11.392 -0.1005  0.1663  0.3281
15136SOL    HW263019  11.395   8.578  11.267 -0.8601 -1.8484  1.6455
15137SOL     OW63020   9.938  13.426  10.060  0.7442  0.4515 -0.1017
15137SOL    HW163021   9.892  13.427  10.144  0.4801 -1.1587 -0.1797
15137SOL    HW263022  10.019  13.474  10.076 -0.1050  1.7298  0.5553
15138SOL     OW63023   0.255  11.951   8.296  0.3712 -0.1260 -0.3654
15138SOL    HW163024   0.283  12.013   8.363 -0.6719  0.2440 -0.2582
15138SOL    HW263025   0.307  11.974   8.219  0.1029  0.7878 -0.2835
15139SOL     OW63026   0.083   8.390   5.291 -0.3049 -0.1095  0.0330
15139SOL    HW163027   0.026   8.331   5.339  0.2427 -0.2457  0.5259
15139SOL    HW263028   0.107   8.340   5.212 -0.0277 -0.4671  0.3355
15140SOL     OW63029   6.903   0.133  11.731  0.0980 -0.2896 -0.0223
15140SOL    HW163030   6.837   0.140  11.800  0.6313  1.4529  0.3393
15140SOL    HW263031   6.912   0.038  11.717 -0.5571 -0.6586  1.7579
15141SOL     OW63032  12.724   6.126  10.870 -0.0135 -0.1398  0.2102
15141SOL    HW163033  12.714   6.039  10.833  1.7438 -1.1295  1.8893
15141SOL    HW263034  12.776   6.113  10.949  0.3619  2.4531  0.4833
15142SOL     OW63035  11.751   5.641   7.739 -0.0054 -0.8059 -0.2862
15142SOL    HW163036  11.743   5.672   7.649 -0.3641 -0.1627 -0.0365
15142SOL    HW263037  11.696   5.562   7.742  2.1230 -2.4337 -1.3366
15143SOL     OW63038   6.631  13.530  10.188 -0.9248  0.2344 -0.5924
15143SOL    HW163039   6.614  13.560  10.278 -1.3739  0.6468 -0.8103
15143SOL    HW263040   6.545  13.531  10.146 -0.5669  1.0548 -1.3285
15144SOL     OW63041   1.252   6.829   9.971 -0.0205 -0.0288 -0.1424
15144SOL    HW163042   1.235   6.906  10.026 -0.1002  0.4252 -0.7922
15144SOL    HW263043   1.347   6.826   9.962  0.0210 -0.3706  0.3934
15145SOL     OW63044   8.727  14.007   9.030 -0.1716 -0.3661 -0.1803
15145SOL    HW163045   8.661  14.071   9.057 -2.0557 -1.8289 -1.0877
15145SOL    HW263046   8.759  13.969   9.112 -0.6637  0.1638  0.2656
15146SOL     OW63047   8.652  11.858   5.554  0.1795  0.1564  0.0208
15146SOL    HW163048   8.711  11.934   5.553 -0.8535  1.0378  1.4804
15146SOL    HW263049   8.667  11.817   5.639 -1.1521  0.2913  0.3381
15147SOL     OW63050  12.713   9.972   7.968  0.3255 -0.3557  0.1023
15147SOL    HW163051  12.634   9.986   7.916 -0.5812  0.2749  1.5984
15147SOL    HW263052  12.692   9.898   8.024  0.7919 -0.1699  0.5322
15148SOL     OW63053  13.799   3.898  10.231  0.2115  0.3540 -0.1769
15148SOL    HW163054  13.850   3.871  10.307  0.4642  0.9376 -0.1369
15148SOL    HW263055  13.721   3.941  10.267  0.3221  0.6139 -0.2425
15149SOL     OW63056   2.013   9.909   4.515 -0.3757  0.0550  0.1145
15149SOL    HW163057   1.956   9.833   4.526 -1.2052  0.4760 -1.0925
15149SOL    HW263058   2.057   9.894   4.431  2.2344 -0.8259  1.5232
15150SOL     OW63059  12.487   7.891   1.807  0.0717  0.5339 -0.2344
15150SOL    HW163060  12.429   7.855   1.739  0.4894 -0.6065 -0.0072
15150SOL    HW263061  12.428   7.941   1.864 -0.5015  0.3741 -0.6752
15151SOL     OW63062   6.516  10.717   1.907 -0.1473  0.5767 -0.0462
15151SOL    HW163063   6.610  10.707   1.920 -0.1802 -0.7865 -0.6837
15151SOL    HW263064   6.478  10.634   1.937 -1.0990  0.9165 -0.2584
15152SOL     OW63065   6.391   4.655   1.215  0.0717 -0.2996 -0.0077
15152SOL    HW163066   6.425   4.699   1.138 -0.6205 -0.9562 -0.7083
15152SOL    HW263067   6.305   4.694   1.230  0.6541  0.6219  1.1281
15153SOL     OW63068  10.166   1.280  13.868 -0.0921 -0.1413  0.5880
15153SOL    HW163069  10.188   1.198  13.824  1.0622 -0.4164  1.6106
15153SOL    HW263070  10.151   1.255  13.959  0.8483  0.8278  1.0415
15154SOL     OW63071   0.158  10.441  11.023 -0.1235 -0.3531 -0.3859
15154SOL    HW163072   0.155  10.368  11.084 -1.1511  0.8810  1.1233
15154SOL    HW263073   0.185  10.516  11.077 -0.1623  0.5948 -1.6387
15155SOL     OW63074   5.999  12.292   7.436  0.3179  0.1467 -0.2017
15155SOL    HW163075   5.990  12.242   7.355 -3.5685 -0.0291  0.1755
15155SOL    HW263076   6.015  12.227   7.504  1.5222  0.1053 -0.5006
15156SOL     OW63077   5.927  10.875   5.698 -0.3841 -0.3392  0.9052
15156SOL    HW163078   5.897  10.824   5.623 -2.6358  2.5135 -0.3269
15156SOL    HW263079   5.980  10.945   5.660 -0.2999  0.2975  2.1326
15157SOL     OW63080  10.585   1.052   4.541 -0.1480 -0.9891  0.1255
15157SOL    HW163081  10.505   1.049   4.489 -0.6602  1.1390  0.6969
15157SOL    HW263082  10.619   1.140   4.527  1.1025 -1.2550  1.3382
15158SOL     OW63083   6.510  12.757   8.665 -0.0099  0.1298 -0.7769
15158SOL    HW163084   6.511  12.849   8.691 -0.0194 -0.1145  0.1265
15158SOL    HW263085   6.524  12.709   8.747 -0.0875 -0.6724 -1.2254
15159SOL     OW63086   0.470  11.567   3.566 -0.0342  0.2210 -0.2172
15159SOL    HW163087   0.543  11.584   3.506 -1.1107 -0.1809 -1.7127
15159SOL    HW263088   0.417  11.647   3.562 -0.8491 -0.3279 -0.9464
15160SOL     OW63089   5.775   5.701   2.026  0.4582  0.2852  0.4488
15160SOL    HW163090   5.835   5.655   2.084  1.8323 -1.9424 -2.4698
15160SOL    HW263091   5.832   5.749   1.966 -0.8198  1.2910 -0.0049
15161SOL     OW63092  11.699  12.666  13.034  0.3706 -0.6614  0.2215
15161SOL    HW163093  11.790  12.652  13.010  0.8569  1.6970  0.4003
15161SOL    HW263094  11.649  12.633  12.959  1.5026  0.1494 -0.9385
15162SOL     OW63095   9.038   3.626   1.948 -0.1153 -0.4642  0.2153
15162SOL    HW163096   9.027   3.606   1.855 -2.4059 -0.1557  0.3703
15162SOL    HW263097   9.131   3.645   1.957  0.2454 -0.9236 -1.9198
15163SOL     OW63098   5.020   8.931   1.531  0.3294 -0.6255  0.2540
15163SOL    HW163099   5.042   8.841   1.507  0.3668 -0.5002 -0.2021
15163SOL    HW263100   5.017   8.978   1.447 -1.1729 -0.5184  0.3348
15164SOL     OW63101   3.757   2.143  11.406 -0.5504  0.5443 -0.6984
15164SOL    HW163102   3.786   2.233  11.388 -0.6440  0.4448 -1.3759
15164SOL    HW263103   3.786   2.126  11.496 -2.3801  2.0241  0.2793
15165SOL     OW63104  12.910   5.792   0.046  0.3181 -0.1817  0.1435
15165SOL    HW163105  12.842   5.783  -0.022  0.7489  2.3088 -0.7228
15165SOL    HW263106  12.984   5.742   0.012  0.1319  0.0786 -0.6776
15166SOL     OW63107  11.065   9.585  12.879 -0.3404  0.1195  0.2613
15166SOL    HW163108  11.107   9.603  12.963 -1.5507  1.5571  0.5963
15166SOL    HW263109  11.063   9.670  12.835  0.2212 -0.6048 -1.2209
15167SOL     OW63110   0.128   7.884  13.086  0.3321  0.0498 -0.0389
15167SOL    HW163111   0.085   7.941  13.150 -0.8406 -0.9116  0.0548
15167SOL    HW263112   0.109   7.795  13.115 -0.6377 -0.4337 -1.9306
15168SOL     OW63113  11.410   2.900   0.872  0.3802 -0.3452  0.1112
15168SOL    HW163114  11.501   2.923   0.854  0.5546 -0.9289  0.2350
15168SOL    HW263115  11.359   2.962   0.819  0.8148  0.9785  1.1839
15169SOL     OW63116  13.343  10.781   4.124  0.2677 -0.0634  0.2103
15169SOL    HW163117  13.259  10.745   4.152 -0.5222  0.6364 -1.1405
15169SOL    HW263118  13.322  10.868   4.090  1.8225  0.8754  1.5068
15170SOL     OW63119   9.599  11.761   3.915 -0.3995 -0.3139  0.2689
15170SOL    HW163120   9.659  11.829   3.946 -1.2405 -0.1699  1.6967
15170SOL    HW263121   9.579  11.786   3.825  0.9287  0.1425  0.0687
15171SOL     OW63122  13.271   2.009   6.928 -0.2861 -0.2371 -0.2178
15171SOL    HW163123  13.206   1.980   6.863 -0.5057 -2.9516  1.0724
15171SOL    HW263124  13.234   2.088   6.965 -1.3870 -0.0500 -1.6169
15172SOL     OW63125  12.226   3.402   0.217 -0.4520  0.3041  0.0000
15172SOL    HW163126  12.282   3.409   0.139  0.0349 -0.4952  0.2752
15172SOL    HW263127  12.198   3.492   0.233 -2.5441  0.2335 -2.5366
15173SOL     OW63128   1.502   6.777   1.049  0.2680  0.7045 -0.7433
15173SOL    HW163129   1.425   6.733   1.085  2.4195 -3.0091 -0.1678
15173SOL    HW263130   1.517   6.851   1.108 -0.9931 -0.4278  1.1011
15174SOL     OW63131  12.752   9.720   4.101 -0.6596 -0.2799 -0.5718
15174SOL    HW163132  12.672   9.753   4.142 -0.3864 -1.0531  0.6157
15174SOL    HW263133  12.758   9.768   4.018 -2.7593 -0.7406 -1.0584
15175SOL     OW63134   7.191  14.055  11.485  0.0597  0.5221  0.6702
15175SOL    HW163135   7.216  13.977  11.532 -0.0211  1.3691  2.1682
15175SOL    HW263136   7.095  14.056  11.489 -0.0945 -0.4336 -1.2979
15176SOL     OW63137   4.740   4.508   4.494  0.1646 -0.4074 -0.3235
15176SOL    HW163138   4.829   4.540   4.509 -0.0609 -0.5136  1.5219
15176SOL    HW263139   4.692   4.585   4.465  0.6484 -0.1456 -0.4467
15177SOL     OW63140   0.300   1.349   0.330 -0.2405  0.2795  0.0778
15177SOL    HW163141   0.302   1.444   0.329  0.2430  0.2992 -1.9277
15177SOL    HW263142   0.212   1.326   0.302 -0.2828  0.1370  0.3249
15178SOL     OW63143   6.194   1.814  10.649  0.3256  0.0657  0.2996
15178SOL    HW163144   6.252   1.888  10.668  1.5194 -0.9240  0.5959
15178SOL    HW263145   6.217   1.787  10.560 -0.9167  0.7510 -0.2599
15179SOL     OW63146   2.449  12.300   3.339  0.2687  0.1566 -0.1302
15179SOL    HW163147   2.379  12.250   3.297  0.5210 -0.1844 -0.1528
15179SOL    HW263148   2.407  12.381   3.368 -0.0196  0.1689 -0.5777
15180SOL     OW63149  14.022   4.542  12.840  0.1474 -0.1704  0.0252
15180SOL    HW163150  14.078   4.567  12.913 -1.7160  1.7661  0.8836
15180SOL    HW263151  13.952   4.607  12.839 -0.4255 -0.6652 -2.9302
15181SOL     OW63152   2.480   6.424   6.508 -0.1061 -0.2463  0.2849
15181SOL    HW163153   2.542   6.351   6.513  0.3844  0.1619  0.1198
15181SOL    HW263154   2.464   6.435   6.414 -0.2630 -0.2056  0.3164
15182SOL     OW63155   2.191   5.367  12.766  0.3776 -0.2936 -0.3487
15182SOL    HW163156   2.281   5.335  12.761  1.4635  2.5460 -1.0178
15182SOL    HW263157   2.161   5.368  12.675  0.1580  0.0431 -0.2744
15183SOL     OW63158   4.287  11.578  11.355 -0.5843  0.2686  0.0595
15183SOL    HW163159   4.192  11.582  11.343 -0.6543 -0.3798  0.3488
15183SOL    HW263160   4.306  11.648  11.417 -1.0895 -0.5454  1.1831
15184SOL     OW63161   0.473  13.800  12.769  0.7648  0.0138 -0.0557
15184SOL    HW163162   0.435  13.726  12.723  0.3943 -0.9514  1.7262
15184SOL    HW263163   0.528  13.761  12.837  1.5473  1.3797  0.1376
15185SOL     OW63164  12.833  11.717  10.275  0.2814  0.8424  0.0996
15185SOL    HW163165  12.827  11.747  10.365 -2.4370  1.0820 -0.0539
15185SOL    HW263166  12.872  11.630  10.281  2.0756  1.6882  1.2465
15186SOL     OW63167   7.420   3.979   7.129  0.4742  0.5004  0.0052
15186SOL    HW163168   7.426   3.919   7.055  1.8506  0.4827  0.1183
15186SOL    HW263169   7.342   4.031   7.111 -0.6152 -1.1151 -0.2291
15187SOL     OW63170  11.255   0.929   8.230 -0.3603 -0.0333 -0.4141
15187SOL    HW163171  11.344   0.907   8.258 -0.1689  0.7088 -0.4359
15187SOL    HW263172  11.205   0.849   8.248 -0.2255  0.3402  1.9059
15188SOL     OW63173   6.835  10.508   5.547 -0.5404 -0.1178 -0.2578
15188SOL    HW163174   6.924  10.532   5.520 -1.2760  1.0560 -1.8152
15188SOL    HW263175   6.847  10.434   5.606  1.5493  0.8652  0.6490
15189SOL     OW63176   5.539  12.144  13.520 -0.2269  0.0256 -0.6255
15189SOL    HW163177   5.579  12.072  13.471 -0.7623 -1.6587  1.2806
15189SOL    HW263178   5.592  12.220  13.498  0.2888 -0.8874 -2.8220
15190SOL     OW63179   2.571   3.965  13.911  0.2200 -0.0660 -0.0373
15190SOL    HW163180   2.634   4.001  13.973  1.1042 -1.9795  0.2473
15190SOL    HW263181   2.554   3.876  13.943 -0.5090 -0.5511 -1.6706
15191SOL     OW63182  12.952   3.004   9.836 -0.0458  0.0000 -0.5757
15191SOL    HW163183  12.921   3.045   9.916  0.4810 -1.2315  0.2875
15191SOL    HW263184  12.896   3.040   9.767 -0.4419  1.1512  0.3181
15192SOL     OW63185   8.246   9.980   8.907 -0.1382 -0.0172  0.2709
15192SOL    HW163186   8.173  10.042   8.900  1.2031  1.6112 -0.1375
15192SOL    HW263187   8.254   9.942   8.820 -0.3582 -0.0301  0.2555
15193SOL     OW63188   6.164  11.449  13.195  0.4935  0.0291  0.2957
15193SOL    HW163189   6.246  11.407  13.171 -0.4897 -1.7652 -0.0947
15193SOL    HW263190   6.120  11.386  13.252 -0.7032  0.8467  0.3163
15194SOL     OW63191   6.564  13.801   6.827  0.2322  0.1088 -0.4403
15194SOL    HW163192   6.572  13.797   6.923  1.2438 -1.4721 -0.5407
15194SOL    HW263193   6.653  13.821   6.797  0.0425  0.0377 -1.0524
15195SOL     OW63194  10.761  13.311   6.720  0.0195 -0.2689  0.3991
15195SOL    HW163195  10.736  13.325   6.629 -1.0984 -0.4914  0.6505
15195SOL    HW263196  10.688  13.347   6.771 -0.2267 -1.7629  1.1567
15196SOL     OW63197  12.109   8.913   0.584  0.2096 -0.1436 -0.1255
15196SOL    HW163198  12.019   8.911   0.550  0.4573  0.1909 -0.8218
15196SOL    HW263199  12.158   8.964   0.519  0.4567  1.6037  1.3789
15197SOL     OW63200   8.796   7.170   4.273 -0.5915  0.2527 -0.3613
15197SOL    HW163201   8.850   7.100   4.237  0.2276  0.7684 -0.1364
15197SOL    HW263202   8.720   7.173   4.215 -1.2161 -1.5900  0.2801
15198SOL     OW63203   8.601   2.863   5.494 -0.6193 -0.1586 -0.9724
15198SOL    HW163204   8.622   2.770   5.484 -0.4419 -0.5611  2.1175
15198SOL    HW263205   8.538   2.865   5.567 -1.3618  2.0815 -1.6140
15199SOL     OW63206   6.992  12.299   5.008 -0.0589  0.3715 -0.1989
15199SOL    HW163207   7.016  12.308   5.100  0.9440  0.2746 -0.4299
15199SOL    HW263208   7.063  12.246   4.970 -1.1298 -0.7023 -0.7609
15200SOL     OW63209  12.358   9.205   2.555  0.2822 -0.2324 -0.2212
15200SOL    HW163210  12.292   9.269   2.582 -0.0416 -1.3309  1.7735
15200SOL    HW263211  12.310   9.143   2.499  0.2311  0.3541 -0.8375
15201SOL     OW63212   1.497   1.486   9.968  0.3149 -0.1072  0.1305
15201SOL    HW163213   1.417   1.435   9.961  1.3655 -1.7832 -0.2361
15201SOL    HW263214   1.526   1.498   9.878  0.2849  0.8361  0.2353
15202SOL     OW63215  13.325   4.676   8.389 -0.3098  0.1889  0.3563
15202SOL    HW163216  13.315   4.723   8.472 -0.1419 -0.0144  0.4930
15202SOL    HW263217  13.340   4.585   8.415 -2.4623 -0.3033  0.0733
15203SOL     OW63218   0.163   5.451   2.311 -1.0879 -0.1618 -0.1434
15203SOL    HW163219   0.220   5.384   2.273 -2.1973 -0.9252 -0.4948
15203SOL    HW263220   0.217   5.530   2.314 -0.1861 -0.7396 -0.9591
15204SOL     OW63221  10.822  11.342   9.544 -0.3287  0.3285  0.6348
15204SOL    HW163222  10.752  11.342   9.478  0.4445 -2.0084 -0.3012
15204SOL    HW263223  10.847  11.434   9.553 -0.3390  0.7588 -2.5470
15205SOL     OW63224   0.374   1.919   1.840 -0.5241 -0.2085  0.2201
15205SOL    HW163225   0.447   1.886   1.892 -0.9231 -0.2323  0.7746
15205SOL    HW263226   0.400   2.009   1.819  0.4917 -0.7930 -1.1632
15206SOL     OW63227   0.582   8.469  10.115 -0.4016  0.6928  0.2943
15206SOL    HW163228   0.576   8.442  10.207  0.0498  3.4151  1.2104
15206SOL    HW263229   0.662   8.426  10.084 -0.0678  0.4297  1.4467
15207SOL     OW63230   7.170  12.403  13.181 -0.6724  0.4092  0.2207
15207SOL    HW163231   7.162  12.310  13.202  0.0355  0.5892  1.4099
15207SOL    HW263232   7.143  12.409  13.089 -2.6858 -0.6343  0.6971
15208SOL     OW63233   4.423   3.569  13.341 -0.0700  0.0328 -0.3283
15208SOL    HW163234   4.482   3.614  13.401  0.5007 -0.7322 -0.3005
15208SOL    HW263235   4.472   3.562  13.260 -0.4460  0.1324 -0.5666
15209SOL     OW63236  13.741   5.044  12.170 -0.2355  0.3898 -0.5626
15209SOL    HW163237  13.668   5.106  12.160 -1.0118 -0.4316 -0.0839
15209SOL    HW263238  13.811   5.096  12.209 -1.1396  0.7943  0.5511
15210SOL     OW63239   8.398  12.051  12.605 -0.1645  0.4600  0.0507
15210SOL    HW163240   8.432  11.962  12.606  0.4789  0.6593 -1.9094
15210SOL    HW263241   8.341  12.055  12.683  1.6118 -0.8923  1.5109
15211SOL     OW63242   0.851   3.759   9.377  0.3055 -0.4322 -0.0239
15211SOL    HW163243   0.868   3.851   9.396  0.2789 -0.3831 -0.2377
15211SOL    HW263244   0.848   3.754   9.281 -2.3547 -0.1458 -0.0286
15212SOL     OW63245   6.468  10.329   6.669 -0.3063  0.1973 -0.4531
15212SOL    HW163246   6.450  10.353   6.760  0.7796 -0.6251  0.0046
15212SOL    HW263247   6.523  10.400   6.636 -0.2944  0.2556 -0.3105
15213SOL     OW63248  10.641   6.897   7.457 -0.0824 -0.2167  0.1153
15213SOL    HW163249  10.593   6.901   7.540 -1.0166  0.4955 -0.4329
15213SOL    HW263250  10.685   6.812   7.459 -2.0406 -1.2918  0.3055
15214SOL     OW63251   3.042  13.909   4.726  0.2657  0.1726 -0.4322
15214SOL    HW163252   3.103  13.836   4.733 -0.3071 -0.2805 -0.2162
15214SOL    HW263253   3.067  13.968   4.797  0.2117 -0.1873 -0.1154
15215SOL     OW63254   7.502  10.165   4.317 -0.7378  0.2660 -0.4653
15215SOL    HW163255   7.487  10.090   4.260  0.7432 -0.6229  0.2581
15215SOL    HW263256   7.415  10.188   4.351 -0.9756 -3.0229  1.6106
15216SOL     OW63257   8.450   7.216   0.485  0.0887  0.0082  0.3263
15216SOL    HW163258   8.420   7.254   0.568  1.9441  0.8577  0.6811
15216SOL    HW263259   8.533   7.261   0.468  1.6946 -2.8461 -0.0055
15217SOL     OW63260   6.473  11.952   5.724  0.2223 -0.0502  0.2185
15217SOL    HW163261   6.431  11.999   5.652  1.6051  0.2106 -0.4519
15217SOL    HW263262   6.485  12.019   5.792 -2.5797 -0.6359  1.4601
15218SOL     OW63263  13.644   1.817   4.498 -0.6721  0.2189 -0.1033
15218SOL    HW163264  13.706   1.835   4.569 -0.6990 -0.1298  0.0127
15218SOL    HW263265  13.558   1.836   4.536 -0.5336  5.4183 -1.6361
15219SOL     OW63266  10.974  12.078  11.640  0.0113  0.6462 -0.4798
15219SOL    HW163267  11.032  12.124  11.702  0.4513  1.0696 -1.1919
15219SOL    HW263268  10.938  12.147  11.585  0.2423  0.2046 -1.2016
15220SOL     OW63269   1.373   3.258   0.149 -0.0087  0.5229 -0.0635
15220SOL    HW163270   1.451   3.289   0.102  0.0001  3.9169  1.8622
15220SOL    HW263271   1.300   3.282   0.092  0.2234 -0.1167 -0.6367
15221SOL     OW63272  12.992   8.947   7.277  0.5294  0.0006  0.5556
15221SOL    HW163273  12.951   8.927   7.361 -0.3037  0.1599  0.1984
15221SOL    HW263274  13.040   8.868   7.253 -0.8226 -0.7481  0.2584
15222SOL     OW63275   2.625   0.908   9.871 -0.6707 -0.1828 -0.4977
15222SOL    HW163276   2.692   0.856   9.914 -2.2298 -1.6485  0.2563
15222SOL    HW263277   2.581   0.955   9.942 -2.2661 -1.4502 -0.5865
15223SOL     OW63278   6.725  13.000   2.885  0.5531  0.3109 -0.0069
15223SOL    HW163279   6.816  12.973   2.899  0.5846  0.1966 -0.4425
15223SOL    HW263280   6.693  13.022   2.973  0.1845 -2.2169  0.5609
15224SOL     OW63281   1.511   7.624   0.340  0.0774 -0.3986  0.1430
15224SOL    HW163282   1.469   7.675   0.271  1.8773  0.3859 -0.4211
15224SOL    HW263283   1.605   7.630   0.321  0.5435 -1.1449  1.9870
15225SOL     OW63284   4.618  13.733   2.130  0.4247 -0.1288 -0.0789
15225SOL    HW163285   4.529  13.698   2.122  0.1905 -0.5339  3.2012
15225SOL    HW263286   4.675  13.658   2.110  0.0245 -0.4256 -0.1123
15226SOL     OW63287  13.226   5.765   7.044 -0.2967 -0.4022 -0.0904
15226SOL    HW163288  13.130   5.769   7.048 -0.3692 -0.6463 -1.1286
15226SOL    HW263289  13.252   5.849   7.008 -0.0226  0.1116  1.2663
15227SOL     OW63290   4.476  12.007   1.995 -0.0255  0.5397 -0.4739
15227SOL    HW163291   4.497  12.099   2.012  0.5475  0.6437 -1.5799
15227SOL    HW263292   4.561  11.964   1.992  0.1566  0.8006 -4.2073
15228SOL     OW63293   3.696  12.411  11.143  0.4517  0.5132  0.0466
15228SOL    HW163294   3.695  12.480  11.209  1.0196 -0.4448  1.0949
15228SOL    HW263295   3.700  12.458  11.060 -3.0253  1.8673  0.4524
15229SOL     OW63296   8.470   7.858   9.914  0.1461 -0.3523 -0.7863
15229SOL    HW163297   8.402   7.835   9.977  0.0471  3.2080  0.6590
15229SOL    HW263298   8.461   7.794   9.844 -4.2608 -0.4661 -0.3636
15230SOL     OW63299   9.645   0.691   1.741 -0.2445  0.3664  0.2302
15230SOL    HW163300   9.664   0.741   1.661  0.5865 -0.2276  0.0465
15230SOL    HW263301   9.617   0.757   1.804 -2.5561  0.6763 -1.0212
15231SOL     OW63302   6.354   8.545   3.110 -0.1409  0.2310  0.0284
15231SOL    HW163303   6.354   8.641   3.111 -1.5306  0.2551  0.3280
15231SOL    HW263304   6.421   8.521   3.046 -1.6469  1.4727 -2.1288
15232SOL     OW63305   9.655  11.083  12.156  0.1714  0.1953 -0.4849
15232SOL    HW163306   9.571  11.120  12.129 -0.8791 -1.1476  0.8020
15232SOL    HW263307   9.695  11.053  12.075 -1.7633 -1.4405 -0.9200
15233SOL     OW63308   5.573  13.464   7.246 -0.1929  0.0239  0.1274
15233SOL    HW163309   5.625  13.386   7.268 -1.8485 -1.5215 -1.0843
15233SOL    HW263310   5.499  13.461   7.307  0.2474  1.2752  0.7560
15234SOL     OW63311   5.418   4.897  13.844  0.0700 -0.0992 -0.0848
15234SOL    HW163312   5.506   4.932  13.859 -0.4863  1.8699 -1.0684
15234SOL    HW263313   5.432   4.818  13.792  1.2214  0.7953 -1.1872
15235SOL     OW63314   4.187   4.504   8.835  0.0011  0.5013 -0.5484
15235SOL    HW163315   4.165   4.567   8.903 -1.2667 -1.3106  0.7983
15235SOL    HW263316   4.248   4.443   8.877  1.8785  1.2263 -2.0713
15236SOL     OW63317  13.996  14.084  12.344  0.8277  0.8307  0.1620
15236SOL    HW163318  14.072  14.066  12.399  2.3859  0.9745 -1.8492
15236SOL    HW263319  14.028  14.143  12.277 -0.8137  0.1424 -1.3123
15237SOL     OW63320   5.729  10.600  12.179  0.8176  0.3549  0.0518
15237SOL    HW163321   5.694  10.584  12.266 -0.8376  2.5770 -0.1157
15237SOL    HW263322   5.819  10.627  12.193  0.6505  0.4124  1.0605
15238SOL     OW63323   0.361   4.318  13.853  0.2315  0.2247  0.4127
15238SOL    HW163324   0.294   4.353  13.795  0.1263 -0.9302 -0.2025
15238SOL    HW263325   0.362   4.377  13.928 -0.3793  1.1377 -0.2769
15239SOL     OW63326   1.503  12.627   5.445 -0.2695 -0.3986 -0.0280
15239SOL    HW163327   1.448  12.659   5.517 -0.4626 -1.0169  0.0997
15239SOL    HW263328   1.499  12.532   5.452  1.3819 -0.4650  0.4082
15240SOL     OW63329   7.629  13.578   8.622  0.3018 -0.4870  0.2842
15240SOL    HW163330   7.642  13.484   8.610  1.8984 -0.4356  1.2344
15240SOL    HW263331   7.575  13.585   8.701  1.0085 -0.6118  0.7899
15241SOL     OW63332   2.450   8.017  11.015  0.3930 -0.3505  0.4318
15241SOL    HW163333   2.471   7.929  10.984  0.4150  0.1137 -0.9226
15241SOL    HW263334   2.518   8.036  11.081  0.5891 -1.2040  0.4852
15242SOL     OW63335  10.113   8.451  12.206 -0.0601  0.1910 -0.1801
15242SOL    HW163336  10.135   8.366  12.245  0.2961  0.2614 -0.2303
15242SOL    HW263337  10.108   8.511  12.280 -2.7344 -0.3500  0.1703
15243SOL     OW63338   7.408  11.342   3.768 -0.8434  0.7779  0.5997
15243SOL    HW163339   7.406  11.379   3.856 -1.1445 -1.9185  1.8322
15243SOL    HW263340   7.496  11.306   3.759  0.1386  3.3297 -1.3667
15244SOL     OW63341   2.152   7.041  10.220 -0.1942 -0.3582  0.0039
15244SOL    HW163342   2.139   6.976  10.151 -0.1405 -1.1171  0.6841
15244SOL    HW263343   2.162   7.124  10.174 -0.3996 -0.8108 -0.8817
15245SOL     OW63344  11.546   5.475   3.975  0.5053  0.0039 -0.0907
15245SOL    HW163345  11.458   5.494   4.007  0.7664  1.6818 -0.3178
15245SOL    HW263346  11.604   5.527   4.030  1.3326 -0.6993 -0.2699
15246SOL     OW63347   8.909   9.649   0.605  0.4762  0.4330 -0.1693
15246SOL    HW163348   8.933   9.733   0.566 -0.0510  0.4431 -0.4800
15246SOL    HW263349   8.862   9.672   0.686 -0.2680  0.4604 -0.5986
15247SOL     OW63350  10.999   2.613   6.103 -0.6012  0.3131  0.1982
15247SOL    HW163351  10.913   2.653   6.114 -0.3793  0.6357  0.8465
15247SOL    HW263352  11.001   2.542   6.167 -0.5393  0.0344 -0.1088
15248SOL     OW63353   7.435   2.213   7.134  0.1273 -0.2320  0.1752
15248SOL    HW163354   7.502   2.190   7.070  1.4710  0.2546  1.3646
15248SOL    HW263355   7.483   2.239   7.212 -1.4691 -0.8914  1.4441
15249SOL     OW63356   3.312   9.280   9.716  0.9133 -0.0700  0.1218
15249SOL    HW163357   3.267   9.199   9.741  0.3836 -0.2348 -1.3034
15249SOL    HW263358   3.264   9.313   9.641  2.0264  0.7732 -0.2573
15250SOL     OW63359   0.554  10.587   6.371 -0.1305  0.6699  0.8895
15250SOL    HW163360   0.608  10.633   6.307  2.0546 -0.7738  1.5840
15250SOL    HW263361   0.576  10.627   6.455  0.5473 -0.4656  1.2837
15251SOL     OW63362  13.041  13.109   0.665  0.5520  0.4613  0.4424
15251SOL    HW163363  13.078  13.158   0.739 -1.8895  3.1380  0.0729
15251SOL    HW263364  13.105  13.119   0.595  2.7746 -1.8824  1.9425
15252SOL     OW63365  12.821  13.226   1.572  0.0320  0.1262  0.4122
15252SOL    HW163366  12.729  13.205   1.585  0.0293 -1.3651 -1.6115
15252SOL    HW263367  12.823  13.283   1.495  0.7128  1.5145  1.3973
15253SOL     OW63368  13.429   8.670   2.562  0.0063  0.0504  0.2452
15253SOL    HW163369  13.365   8.598   2.556 -0.9858  0.7364  1.9246
15253SOL    HW263370  13.381   8.740   2.606  1.8980  0.6016  1.5270
15254SOL     OW63371  12.948   2.163   4.859 -0.3724 -0.7599 -0.1075
15254SOL    HW163372  12.949   2.085   4.914  0.1016 -0.5737  0.1490
15254SOL    HW263373  13.037   2.170   4.826  0.2623  0.9999  1.7684
15255SOL     OW63374   1.776  10.198  11.773 -0.4585  0.7008 -0.5728
15255SOL    HW163375   1.681  10.206  11.765 -0.5596  0.9986  0.7562
15255SOL    HW263376   1.810  10.273  11.724 -0.9241  0.8858 -0.6201
15256SOL     OW63377   7.004   6.075   5.422 -0.4461  0.3287  0.0921
15256SOL    HW163378   6.921   6.029   5.435 -0.0487 -0.6512 -0.7730
15256SOL    HW263379   7.068   6.006   5.410  0.0842  1.0956 -1.7864
15257SOL     OW63380   6.251  12.842   1.172  0.4010 -0.7954  0.2738
15257SOL    HW163381   6.234  12.915   1.232 -0.5558 -1.1269  0.4260
15257SOL    HW263382   6.320  12.791   1.215  0.7948 -0.2058  0.3548
15258SOL     OW63383   2.268  12.884   9.491 -0.2321 -0.0126  0.2648
15258SOL    HW163384   2.326  12.921   9.425 -0.6943 -0.8287 -0.6230
15258SOL    HW263385   2.257  12.954   9.555  0.4858  0.6833 -0.3405
15259SOL     OW63386  11.142   9.680  13.133 -0.5466  0.1948 -0.2228
15259SOL    HW163387  11.204   9.735  13.181  1.5583 -2.4099  0.2828
15259SOL    HW263388  11.082   9.647  13.200 -0.5047  0.2261 -0.1701
15260SOL     OW63389   9.407   1.163   2.806  0.2662 -0.2552 -0.4900
15260SOL    HW163390   9.382   1.101   2.737 -2.0028  1.6830 -1.5527
15260SOL    HW263391   9.431   1.243   2.759 -0.7208  0.9213  0.9132
15261SOL     OW63392   3.297   7.507   7.420 -0.2197  0.2456 -0.2621
15261SOL    HW163393   3.356   7.456   7.365  0.3476  0.5734  0.0285
15261SOL    HW263394   3.355   7.556   7.478 -0.8122 -1.4379  1.8814
15262SOL     OW63395   8.110   6.904   2.027  0.4413 -0.2352 -0.3173
15262SOL    HW163396   8.159   6.855   1.961 -1.1582 -0.5969 -1.2816
15262SOL    HW263397   8.129   6.996   2.007  0.1814 -0.3504 -1.1289
15263SOL     OW63398   5.353  11.457  10.003  0.2245 -0.4188  0.3601
15263SOL    HW163399   5.268  11.425   9.974  0.3486 -0.3067 -0.1362
15263SOL    HW263400   5.334  11.540  10.047  0.0035 -0.7330  0.8703
15264SOL     OW63401  13.960   6.399   3.318  0.4435 -0.0557 -0.0492
15264SOL    HW163402  13.892   6.465   3.305  0.1778 -0.1510  0.7472
15264SOL    HW263403  13.913   6.323   3.353  0.7782 -0.5871 -0.7293
15265SOL     OW63404   0.123  10.955  13.384 -0.2243  0.4587  0.1513
15265SOL    HW163405   0.043  11.007  13.374 -0.4727 -0.0712 -0.7118
15265SOL    HW263406   0.092  10.866  13.400  0.2009  0.5991  1.9444
15266SOL     OW63407   4.683  10.565  13.732 -0.1109 -0.2001  0.4925
15266SOL    HW163408   4.736  10.641  13.707  0.9707 -1.2775 -0.6490
15266SOL    HW263409   4.600  10.577  13.685  0.1001  0.2057  0.2199
15267SOL     OW63410   7.702   4.133  13.490  0.8179 -0.3404  0.4070
15267SOL    HW163411   7.758   4.115  13.414  0.9272  2.5097 -0.2796
15267SOL    HW263412   7.629   4.185  13.455 -0.9120 -1.7137  1.7466
15268SOL     OW63413   4.790   1.381   7.445  0.2160 -0.3307 -0.0730
15268SOL    HW163414   4.748   1.441   7.506 -1.1581 -0.6709 -0.6464
15268SOL    HW263415   4.722   1.359   7.382  1.0999 -1.3716 -0.7100
15269SOL     OW63416   7.973   4.270   1.016  0.4178  0.4529  0.2662
15269SOL    HW163417   7.913   4.199   1.039 -0.2528  1.2479  1.0096
15269SOL    HW263418   8.053   4.225   0.989 -0.2690 -0.6041 -0.0702
15270SOL     OW63419  13.196   5.874  13.926  0.3526  0.2916 -0.0736
15270SOL    HW163420  13.175   5.967  13.932  0.0298  0.1859  0.5326
15270SOL    HW263421  13.155   5.846  13.844 -1.5684  0.1855  0.8740
15271SOL     OW63422   2.784   3.658   2.810  0.1920  0.2795 -0.4568
15271SOL    HW163423   2.833   3.682   2.731 -0.1605  0.3325 -0.6594
15271SOL    HW263424   2.721   3.593   2.780 -0.4037  0.8059 -0.3530
15272SOL     OW63425  12.924  11.987   7.469 -0.5359 -1.0071 -0.7049
15272SOL    HW163426  12.928  11.912   7.528 -0.9933 -0.8130 -0.4230
15272SOL    HW263427  12.830  12.006   7.461 -0.4764 -1.0104 -1.4629
15273SOL     OW63428   2.444   3.410   7.404  0.2989  0.0543 -0.3199
15273SOL    HW163429   2.503   3.451   7.340  1.4406 -1.1228 -0.0730
15273SOL    HW263430   2.496   3.339   7.442 -1.0702 -0.5953  0.4098
15274SOL     OW63431  11.047   1.765   2.590 -0.5368  0.3659  0.3107
15274SOL    HW163432  11.053   1.735   2.500  0.2947 -0.8059  0.7410
15274SOL    HW263433  11.125   1.819   2.603  0.1955 -0.7785  0.7878
15275SOL     OW63434   1.595   6.132   7.145  0.1750 -0.2997  0.1833
15275SOL    HW163435   1.627   6.066   7.083 -0.0426 -1.7230  1.5162
15275SOL    HW263436   1.662   6.133   7.214 -0.8136 -0.6142  1.1716
15276SOL     OW63437   8.900   3.284   4.703  0.2558 -0.0294 -0.1978
15276SOL    HW163438   8.827   3.326   4.659  0.1938  0.3161  0.2277
15276SOL    HW263439   8.913   3.202   4.655 -1.2544 -0.7279  0.5162
15277SOL     OW63440   3.835  12.981   1.262  0.0523  0.0903 -0.1456
15277SOL    HW163441   3.873  13.018   1.182 -0.4478  1.0009  0.0224
15277SOL    HW263442   3.767  12.921   1.231  1.4937 -1.4667 -0.4484
15278SOL     OW63443  12.709   3.125   4.129  0.0771 -0.2533  0.6024
15278SOL    HW163444  12.716   3.031   4.110 -0.5868  0.0735 -1.5266
15278SOL    HW263445  12.621   3.136   4.165  0.2877 -0.4659  1.2078
15279SOL     OW63446  12.960   0.978   5.713 -0.0595 -0.8145  0.0577
15279SOL    HW163447  12.900   1.039   5.669 -0.1960 -0.6970  0.4040
15279SOL    HW263448  13.002   1.030   5.781 -0.0100 -1.0540  0.2104
15280SOL     OW63449   0.157   5.157   5.316 -0.0818  0.2708  0.2167
15280SOL    HW163450   0.211   5.184   5.241 -0.3906  0.7863  0.1766
15280SOL    HW263451   0.218   5.158   5.390  0.2450 -0.3237 -0.0427
15281SOL     OW63452  12.719   5.221   0.228 -0.1050 -0.3727 -0.1500
15281SOL    HW163453  12.696   5.239   0.319  0.0099  2.6693 -0.6182
15281SOL    HW263454  12.814   5.217   0.227 -0.1186 -0.9044 -0.1082
15282SOL     OW63455  13.514   7.884  12.720  0.4754  0.0684  0.7739
15282SOL    HW163456  13.566   7.944  12.667 -1.6833 -0.0207 -1.6120
15282SOL    HW263457  13.507   7.927  12.805  1.3307  1.8119  0.0097
15283SOL     OW63458  10.600   1.020   6.370 -0.2672 -0.1063 -0.2707
15283SOL    HW163459  10.672   1.080   6.348  0.7737 -0.5544  1.7338
15283SOL    HW263460  10.624   0.938   6.326  0.6167 -0.3313  0.5920
15284SOL     OW63461   3.038  11.917   8.908 -0.2284 -0.5155  0.3344
15284SOL    HW163462   3.125  11.902   8.872 -0.4239  0.0074 -0.3713
15284SOL    HW263463   3.011  12.002   8.872 -1.0804 -0.7304  0.4431
15285SOL     OW63464  13.689  11.038   6.457  0.1887 -0.6488 -0.0698
15285SOL    HW163465  13.725  11.036   6.369  0.6543 -2.7820  0.1255
15285SOL    HW263466  13.764  11.021   6.514 -0.2552 -0.1346  0.6860
15286SOL     OW63467  11.451   4.756   9.836  0.0864 -0.2296 -0.2625
15286SOL    HW163468  11.460   4.816   9.763 -1.3266  0.0783 -0.2043
15286SOL    HW263469  11.538   4.715   9.845  1.2857  2.2287  0.1018
15287SOL     OW63470   1.270  11.793   8.537  0.4177  0.3140 -0.1460
15287SOL    HW163471   1.224  11.717   8.573 -1.9097  2.5607  2.1261
15287SOL    HW263472   1.359  11.786   8.571  0.7068 -2.0418 -1.1894
15288SOL     OW63473   1.973  10.511  13.276  0.3013 -0.5876  0.0433
15288SOL    HW163474   2.007  10.585  13.227  0.2586 -1.3173 -1.1237
15288SOL    HW263475   2.044  10.446  13.275  0.4228 -0.5056  1.2332
15289SOL     OW63476  13.130   4.771   1.087 -0.1675  0.4757  0.2152
15289SOL    HW163477  13.160   4.855   1.050  0.2890 -0.0922 -0.7583
15289SOL    HW263478  13.185   4.706   1.043 -1.9444 -0.5082 -0.6288
15290SOL     OW63479   8.418   2.125   6.535 -0.0209  0.0608  0.2182
15290SOL    HW163480   8.460   2.048   6.498  0.4022  0.7928 -0.8572
15290SOL    HW263481   8.468   2.199   6.502 -0.6568  0.8339  0.9155
15291SOL     OW63482  11.737   3.921   9.565  0.2715 -0.1328 -0.1278
15291SOL    HW163483  11.645   3.895   9.565  0.4488 -1.0286 -2.4105
15291SOL    HW263484  11.771   3.886   9.482  2.5593  0.5444  0.4678
15292SOL     OW63485   0.037  11.880  12.659  0.0001  0.1531  1.1381
15292SOL    HW163486   0.072  11.969  12.660 -2.0464  1.0130  2.4014
15292SOL    HW263487  -0.054  11.890  12.688 -0.3081 -2.3523  1.2078
15293SOL     OW63488  10.177   1.697   4.211 -0.1998  0.1747  0.4046
15293SOL    HW163489  10.234   1.690   4.134 -1.4358  1.6182 -0.7232
15293SOL    HW263490  10.235   1.718   4.283  0.6899  2.1559 -0.8144
15294SOL     OW63491   1.634   0.310  12.340 -0.2210 -0.1400 -0.3463
15294SOL    HW163492   1.723   0.297  12.308  0.0992 -0.5558  0.6676
15294SOL    HW263493   1.637   0.279  12.431 -0.4861  3.0594  0.8840
15295SOL     OW63494   2.493   4.152  11.438  0.3467 -0.5202 -0.6697
15295SOL    HW163495   2.501   4.214  11.366  0.9944  0.4508  0.1967
15295SOL    HW263496   2.409   4.173  11.479  0.8312  0.2363 -0.0131
15296SOL     OW63497   4.145  13.687   6.758  0.2346 -0.5834 -0.1269
15296SOL    HW163498   4.111  13.773   6.734  0.0020 -0.0134  2.0926
15296SOL    HW263499   4.239  13.699   6.763  0.1311 -0.2154  1.0503
15297SOL     OW63500   0.369   6.080  10.162  0.3206  0.3095 -0.0758
15297SOL    HW163501   0.304   6.050  10.226  0.4333 -0.3539 -0.2640
15297SOL    HW263502   0.332   6.160  10.125 -0.5027 -0.1983 -0.3608
15298SOL     OW63503  11.893   7.197   6.617 -0.1620  0.3689 -0.1705
15298SOL    HW163504  11.891   7.221   6.525 -0.3874 -0.0813 -0.2833
15298SOL    HW263505  11.818   7.243   6.656 -0.8058 -0.4159 -0.4560
15299SOL     OW63506   8.368   0.401   0.749 -0.1284 -0.3491 -0.4675
15299SOL    HW163507   8.314   0.467   0.793 -0.4591 -0.9869  0.0931
15299SOL    HW263508   8.375   0.330   0.811  1.0345 -0.4584 -0.6954
15300SOL     OW63509   8.685   6.064   0.434  0.8422  0.1933  0.0282
15300SOL    HW163510   8.670   6.109   0.517  2.0841 -1.3317  1.1232
15300SOL    HW263511   8.639   6.118   0.369 -0.5853  1.1527  1.7502
15301SOL     OW63512  11.911   2.587   7.755  0.3930 -0.7916 -0.0926
15301SOL    HW163513  11.914   2.560   7.663  1.4489  0.2212 -0.3852
15301SOL    HW263514  11.902   2.682   7.751  0.1020 -0.7777  0.8606
15302SOL     OW63515   0.162   0.283  12.794  0.1707  0.4499  0.6847
15302SOL    HW163516   0.099   0.245  12.855  0.3939 -1.2945 -0.1248
15302SOL    HW263517   0.110   0.307  12.717 -0.0374  2.2453  1.3330
15303SOL     OW63518   9.275   2.985  10.731 -0.2005  0.2166 -0.3588
15303SOL    HW163519   9.218   3.017  10.801 -1.1695 -0.0057 -1.0306
15303SOL    HW263520   9.270   2.889  10.739  1.8136  0.1496  0.9441
15304SOL     OW63521   4.286   5.103   3.883  0.1303 -0.0919  0.3292
15304SOL    HW163522   4.306   5.019   3.924 -0.9570  0.0737  1.2373
15304SOL    HW263523   4.359   5.160   3.908 -0.0391 -0.2651  1.2452
15305SOL     OW63524  13.284   2.296   2.428 -0.1129  0.1083 -0.5448
15305SOL    HW163525  13.360   2.288   2.486 -0.6295  0.4080  0.1865
15305SOL    HW263526  13.229   2.363   2.469 -2.2870 -2.2462  0.6677
15306SOL     OW63527   0.834   8.852   1.015 -0.0444 -0.0240 -0.2563
15306SOL    HW163528   0.923   8.826   0.991 -0.2243  1.1637 -2.5366
15306SOL    HW263529   0.842   8.887   1.104  1.7736  0.1653 -0.4616
15307SOL     OW63530   1.730  10.146   0.875  0.1457 -0.3335 -0.0113
15307SOL    HW163531   1.769  10.233   0.863  1.7628 -1.1186 -0.7387
15307SOL    HW263532   1.758  10.096   0.799 -1.8802 -1.1317 -0.2773
15308SOL     OW63533  13.997   4.300   6.857 -0.9465 -0.0676 -0.2495
15308SOL    HW163534  13.969   4.216   6.822  1.0372 -0.6833 -0.5029
15308SOL    HW263535  14.003   4.358   6.781 -0.4393 -0.2743 -0.3722
15309SOL     OW63536   9.270   3.431  11.262 -0.5471 -0.2528  0.0663
15309SOL    HW163537   9.271   3.360  11.199  0.8600  0.8018 -1.1618
15309SOL    HW263538   9.232   3.505  11.215  1.4171  0.8225  0.0887
15310SOL     OW63539   0.434  11.255   7.425  0.4069  0.6207 -0.5548
15310SOL    HW163540   0.451  11.214   7.340  1.0549 -1.0877  0.3452
15310SOL    HW263541   0.521  11.265   7.464  0.1973  2.3110 -0.4660
15311SOL     OW63542   1.082   9.568   0.706  0.0680 -0.1223  0.4308
15311SOL    HW163543   1.057   9.477   0.690 -0.3290  0.0768 -0.0875
15311SOL    HW263544   1.164   9.561   0.756 -0.2986 -0.7607  0.9627
15312SOL     OW63545  10.161  11.461  13.773 -0.4856  0.7791  0.4441
15312SOL    HW163546  10.093  11.475  13.707  0.2762  1.5707 -0.1972
15312SOL    HW263547  10.204  11.546  13.782  0.1670  0.3914  1.1291
15313SOL     OW63548   4.232   2.389   3.054  0.2160  0.1150 -0.4422
15313SOL    HW163549   4.196   2.351   2.974  1.4008  0.8767 -1.3640
15313SOL    HW263550   4.326   2.374   3.047  0.2646 -0.4694  1.1791
15314SOL     OW63551  12.539  13.157  13.951  0.0395  0.0137 -0.2466
15314SOL    HW163552  12.519  13.250  13.936 -0.4606 -0.1250 -0.4656
15314SOL    HW263553  12.504  13.139  14.038  1.1698  0.3161  0.2883
15315SOL     OW63554  11.272  13.447  10.687 -0.0188 -0.0954  0.1170
15315SOL    HW163555  11.324  13.527  10.684 -1.1495  0.7819  2.0519
15315SOL    HW263556  11.328  13.382  10.729  0.4450  0.0408 -0.2825
15316SOL     OW63557   2.385  12.667   7.594  0.0398  0.3605  0.2289
15316SOL    HW163558   2.334  12.742   7.623  0.1694  0.8017 -0.6512
15316SOL    HW263559   2.326  12.618   7.536 -0.5728 -1.0775  1.9750
15317SOL     OW63560  11.986  11.644   1.945  0.3469 -0.5554 -0.5253
15317SOL    HW163561  11.902  11.688   1.955  0.3899 -0.8824  2.0134
15317SOL    HW263562  12.042  11.684   2.012  1.4485 -2.0614 -0.4950
15318SOL     OW63563   0.657  12.773  10.951 -0.5049 -0.2096 -0.3085
15318SOL    HW163564   0.627  12.791  10.862  1.3736 -0.6933 -1.0882
15318SOL    HW263565   0.746  12.740  10.940 -0.6236 -1.3463  1.6835
15319SOL     OW63566   4.947   1.908   4.001  0.3307  0.0754  0.1206
15319SOL    HW163567   4.949   1.984   3.942  0.3331 -0.1796 -0.2108
15319SOL    HW263568   4.862   1.868   3.984  0.0416  0.3844  0.7861
15320SOL     OW63569   1.536   6.144  13.948  0.0431  0.3692  0.0647
15320SOL    HW163570   1.593   6.067  13.957  0.4459  0.5186 -1.0603
15320SOL    HW263571   1.551   6.175  13.859 -1.3218  0.8028 -0.0459
15321SOL     OW63572   9.226  12.845   8.451 -0.0884 -0.1069  0.1566
15321SOL    HW163573   9.283  12.836   8.375  0.4368  1.2948  0.3548
15321SOL    HW263574   9.145  12.801   8.426  0.2459 -0.0669 -1.0382
15322SOL     OW63575   9.526   8.324  10.252  0.6182  0.0230 -0.0770
15322SOL    HW163576   9.560   8.411  10.271 -2.2437  0.9948  1.1250
15322SOL    HW263577   9.464   8.337  10.181  0.5502 -1.1359 -0.2471
15323SOL     OW63578   2.190  13.140   6.144  0.7027  0.3511 -0.2426
15323SOL    HW163579   2.231  13.130   6.058  2.0265  0.1801  0.3845
15323SOL    HW263580   2.217  13.228   6.172  1.9792 -0.3455  0.8320
15324SOL     OW63581   0.392  12.921   6.926 -0.1256 -0.2104  0.5041
15324SOL    HW163582   0.336  12.855   6.885 -2.0291  1.4002  0.3773
15324SOL    HW263583   0.342  12.952   7.001  1.1316  0.4655  1.0964
15325SOL     OW63584   0.529   1.652   8.852 -0.1861  0.2807 -0.0281
15325SOL    HW163585   0.479   1.574   8.829  0.9086 -0.3861 -0.2209
15325SOL    HW263586   0.614   1.618   8.881  1.0860  1.4666 -2.1260
15326SOL     OW63587   4.237   3.463   8.563  0.2299  0.0335 -0.2093
15326SOL    HW163588   4.193   3.510   8.493 -0.7424 -1.4505 -0.6128
15326SOL    HW263589   4.269   3.383   8.523  1.6837  0.2034  0.5239
15327SOL     OW63590   6.021   4.753  12.619 -0.6335  0.4257  0.9058
15327SOL    HW163591   6.033   4.799  12.536 -0.6077  0.4706  0.9346
15327SOL    HW263592   5.948   4.694  12.603  0.6547 -1.0580  0.1874
15328SOL     OW63593  10.135   2.609   6.281 -0.1276 -0.2570  0.4474
15328SOL    HW163594  10.105   2.528   6.321 -0.6408 -0.2521  0.0819
15328SOL    HW263595  10.064   2.634   6.222  2.0222 -2.2691 -3.4009
15329SOL     OW63596   2.533   3.185  11.094 -0.2670  0.0804 -0.1609
15329SOL    HW163597   2.629   3.180  11.102 -0.3322 -1.3588 -0.1612
15329SOL    HW263598   2.515   3.166  11.002 -0.5543  0.4694 -0.1887
15330SOL     OW63599   7.938  11.832   1.233  0.5075 -0.0078 -0.4726
15330SOL    HW163600   8.029  11.803   1.227  0.9052  1.3106 -1.6131
15330SOL    HW263601   7.933  11.880   1.316  0.5592 -0.9678  0.0938
15331SOL     OW63602   1.783   7.537   1.988 -0.2079 -0.0073 -0.0811
15331SOL    HW163603   1.876   7.530   1.969  0.2604  0.0559  2.0290
15331SOL    HW263604   1.740   7.503   1.908  1.5291  1.4088 -1.6992
15332SOL     OW63605   6.833  11.476   5.826  0.1687  0.2901 -0.0808
15332SOL    HW163606   6.759  11.531   5.800  0.8889  0.9057 -0.8965
15332SOL    HW263607   6.877  11.526   5.895  0.4483  0.4519 -0.3699
15333SOL     OW63608  11.117  10.478  10.309  0.8941 -0.6186  0.2217
15333SOL    HW163609  11.038  10.525  10.284 -0.4449 -2.3410  1.0566
15333SOL    HW263610  11.173  10.483  10.231 -0.4909 -0.3599 -0.7948
15334SOL     OW63611   4.295   1.606   7.910  0.6020 -0.5279  0.2407
15334SOL    HW163612   4.222   1.617   7.971  2.7730 -2.6588  3.5786
15334SOL    HW263613   4.258   1.562   7.835 -1.7220 -0.6633  1.3872
15335SOL     OW63614  10.815  13.195   2.394 -0.0171  0.1110 -0.2534
15335SOL    HW163615  10.884  13.170   2.455 -0.6707  1.2698  1.0074
15335SOL    HW263616  10.837  13.149   2.313  1.2803 -0.8784  0.6230
15336SOL     OW63617   3.857   5.955   5.516 -0.1481  0.6872 -0.0108
15336SOL    HW163618   3.769   5.946   5.481  0.4960  0.4894 -1.6592
15336SOL    HW263619   3.881   6.046   5.497  1.3001 -0.1975 -2.8729
15337SOL     OW63620  11.195  10.762  12.807  0.7135 -0.7662 -0.3805
15337SOL    HW163621  11.261  10.702  12.840  0.3824 -1.4581 -0.9478
15337SOL    HW263622  11.149  10.712  12.739 -0.4939 -0.3556  0.1128
15338SOL     OW63623   9.152   2.447   9.031 -0.2572  0.0239 -0.2797
15338SOL    HW163624   9.198   2.403   8.959  2.5529  1.4122  0.5345
15338SOL    HW263625   9.074   2.394   9.044  1.1048 -2.5870 -1.7220
15339SOL     OW63626  12.669   9.581  13.334  0.3914  0.3816 -0.0162
15339SOL    HW163627  12.589   9.531  13.350  0.4424 -0.2857 -1.6777
15339SOL    HW263628  12.642   9.673  13.344 -0.6712  0.1774 -0.8730
15340SOL     OW63629   4.037   9.777   0.718 -0.3204 -0.4388 -0.5489
15340SOL    HW163630   3.988   9.840   0.666 -1.5052 -2.6086 -2.2457
15340SOL    HW263631   3.974   9.747   0.784  0.7342  1.2270  1.3425
15341SOL     OW63632   2.812   2.635   0.625 -0.3808 -0.3284  0.1269
15341SOL    HW163633   2.842   2.550   0.595  1.6143 -0.6697  2.8042
15341SOL    HW263634   2.732   2.616   0.675 -2.5237  0.0226 -2.8429
15342SOL     OW63635   1.724   3.988   0.261  0.7535  0.4132  0.1012
15342SOL    HW163636   1.642   4.030   0.288  0.2864  0.1009 -0.7918
15342SOL    HW263637   1.739   4.020   0.172 -0.2380 -2.1497 -1.0890
15343SOL     OW63638  13.168   8.463   8.643  0.1686  0.1589 -0.1419
15343SOL    HW163639  13.127   8.507   8.718  1.1125  0.0893  0.4290
15343SOL    HW263640  13.258   8.446   8.671  0.4927 -0.0158 -1.2392
15344SOL     OW63641   2.359   6.157   9.234 -0.3383  0.2524 -0.4363
15344SOL    HW163642   2.348   6.153   9.329 -2.5814  0.6087 -0.6071
15344SOL    HW263643   2.328   6.245   9.210 -0.7830 -0.1880 -1.5631
15345SOL     OW63644   2.193   5.924  13.276  0.1153  0.0950  1.1419
15345SOL    HW163645   2.257   5.995  13.266 -0.3842  0.4767  0.5399
15345SOL    HW263646   2.245   5.844  13.269  0.8585  0.3752  2.9680
15346SOL     OW63647  13.938  13.860   5.005  0.3695 -0.2497 -0.2746
15346SOL    HW163648  13.923  13.784   4.950  0.2570 -1.5208  1.4358
15346SOL    HW263649  13.958  13.931   4.943 -0.9604 -1.2962 -1.9839
15347SOL     OW63650   9.396  13.381   2.635 -0.4992 -0.8248 -0.4247
15347SOL    HW163651   9.490  13.374   2.653 -0.6151  1.1576  1.3018
15347SOL    HW263652   9.354  13.348   2.714 -1.3232 -2.4219 -1.4871
15348SOL     OW63653   9.117   5.982  11.525 -0.6947 -0.2988  0.2557
15348SOL    HW163654   9.156   5.901  11.491  2.1609  0.6429  1.0209
15348SOL    HW263655   9.104   5.964  11.619  1.9776  0.7317  0.9035
15349SOL     OW63656   9.831  10.868   6.107 -0.3869 -0.0074 -0.0678
15349SOL    HW163657   9.763  10.830   6.051 -1.4825  0.0117  1.1933
15349SOL    HW263658   9.861  10.795   6.161  0.5200  0.0205 -0.5099
15350SOL     OW63659   8.396   3.271  12.420 -0.1245  0.5268 -0.1176
15350SOL    HW163660   8.414   3.184  12.385 -2.1868 -0.3108  0.7375
15350SOL    HW263661   8.402   3.260  12.515 -1.4966  1.0374  0.0420
15351SOL     OW63662   6.165   7.381   5.896 -0.4267 -1.1464 -0.0497
15351SOL    HW163663   6.177   7.297   5.851  0.5122 -0.8879 -0.2956
15351SOL    HW263664   6.086   7.418   5.856  0.6301 -0.7182 -1.8520
15352SOL     OW63665   1.121   2.463   7.236 -0.0960  0.2418  0.0109
15352SOL    HW163666   1.067   2.488   7.310 -1.2756 -0.3220 -0.6294
15352SOL    HW263667   1.062   2.413   7.179  1.2691 -0.9968 -0.3867
15353SOL     OW63668   1.273   8.892  14.040  0.1869 -0.2271  0.0877
15353SOL    HW163669   1.247   8.813  13.992 -0.3889 -0.6563  1.0672
15353SOL    HW263670   1.361   8.912  14.009  0.0614 -0.8439 -0.6905
15354SOL     OW63671   8.288   2.959   5.325  0.1060 -0.0769 -0.0160
15354SOL    HW163672   8.234   3.002   5.259 -1.7322 -0.2158  1.3117
15354SOL    HW263673   8.268   2.866   5.315  1.5301 -0.3460 -0.6827
15355SOL     OW63674   2.540   4.001  11.936  0.0757  0.0872  0.0519
15355SOL    HW163675   2.451   4.036  11.941 -0.1887 -0.6917  1.1850
15355SOL    HW263676   2.556   3.964  12.023  0.6377 -1.8347 -0.8133
15356SOL     OW63677   1.813  11.981   9.898  0.0381  0.1187  0.0572
15356SOL    HW163678   1.891  12.024   9.933 -0.1088  0.0629  0.4681
15356SOL    HW263679   1.776  12.045   9.837  0.1231  0.3535  0.2494
15357SOL     OW63680   1.321   4.016   1.898  0.0303  0.0808 -0.5509
15357SOL    HW163681   1.285   3.971   1.975 -1.0291  0.1515 -0.9916
15357SOL    HW263682   1.381   3.953   1.859  1.4728  0.4549  0.9624
15358SOL     OW63683  10.250   5.670  11.595  0.3297 -0.2472  0.0324
15358SOL    HW163684  10.218   5.606  11.659  2.4999 -0.9178  0.5304
15358SOL    HW263685  10.230   5.755  11.634  0.0687 -0.6445  0.7761
15359SOL     OW63686   1.636   3.189   1.994  0.0292  0.5639 -0.3917
15359SOL    HW163687   1.646   3.096   1.977  1.6783  0.5049  0.7674
15359SOL    HW263688   1.719   3.228   1.967  0.7758  1.1675  2.4999
15360SOL     OW63689  10.645  13.542  12.190  0.7392  0.2928  0.5202
15360SOL    HW163690  10.672  13.528  12.099 -0.7011  1.1872 -0.0943
15360SOL    HW263691  10.573  13.479  12.203 -0.2146  1.3350  0.4422
15361SOL     OW63692   0.092  12.740   0.230  0.5878  0.1946  0.8524
15361SOL    HW163693   0.107  12.678   0.301  1.6229  0.3117  0.7559
15361SOL    HW263694   0.176  12.745   0.184  0.5272  1.6216  0.8258
15362SOL     OW63695  12.361  13.385   8.994 -0.1358  0.0207 -0.4646
15362SOL    HW163696  12.428  13.450   9.017 -0.3292  0.0410  0.0640
15362SOL    HW263697  12.408  13.302   8.991  0.2587  0.2626 -1.8446
15363SOL     OW63698   9.337   9.522   6.702  0.2625 -0.1420  0.1032
15363SOL    HW163699   9.300   9.438   6.676  0.2001 -0.4121  1.0432
15363SOL    HW263700   9.396   9.501   6.774 -0.1622  0.6895  0.7097
15364SOL     OW63701  13.799   6.329   9.418  0.0788  0.1946  0.1577
15364SOL    HW163702  13.734   6.358   9.354 -0.3659 -1.7794 -0.3525
15364SOL    HW263703  13.749   6.309   9.497 -0.2576 -2.6656 -0.6590
15365SOL     OW63704   8.370   0.129  12.368 -0.0236  0.5262  0.4826
15365SOL    HW163705   8.329   0.180  12.298  1.2205  1.6349  0.5273
15365SOL    HW263706   8.338   0.040  12.354 -0.8480  0.9752 -0.6883
15366SOL     OW63707   5.246  12.587  11.127 -0.4350 -0.2455 -0.5622
15366SOL    HW163708   5.238  12.606  11.220  0.3720 -2.3090  0.0039
15366SOL    HW263709   5.267  12.671  11.086 -0.3697  0.6182  1.1691
15367SOL     OW63710  10.246   0.117   5.576 -0.1547 -0.3661  0.0165
15367SOL    HW163711  10.236   0.181   5.506  0.0865 -0.7961 -0.4207
15367SOL    HW263712  10.280   0.167   5.650 -1.7752  0.3683  0.2931
15368SOL     OW63713  11.602   3.090   9.695  0.2204  0.0538 -0.1390
15368SOL    HW163714  11.599   3.057   9.784  0.7458  1.0871  0.2778
15368SOL    HW263715  11.520   3.139   9.684 -0.3520 -0.9653 -0.6078
15369SOL     OW63716  13.370   6.737  11.319  0.6937 -0.4579  0.1804
15369SOL    HW163717  13.356   6.670  11.386  1.2059 -0.2023  0.5516
15369SOL    HW263718  13.348   6.820  11.362 -0.3391 -0.4155 -0.4032
15370SOL     OW63719   0.584  14.071  13.106 -0.1559  0.1210 -0.3384
15370SOL    HW163720   0.566  14.162  13.082 -0.1800 -0.1221 -1.2550
15370SOL    HW263721   0.522  14.020  13.055  1.9501 -0.6278 -2.3097
15371SOL     OW63722   2.310   3.689   5.283 -0.1717 -0.0379 -0.0779
15371SOL    HW163723   2.291   3.680   5.376  1.4559 -1.1049  0.1835
15371SOL    HW263724   2.224   3.686   5.241 -0.9993  1.2239  1.4174
15372SOL     OW63725   6.179   9.210  12.732  0.2653 -0.5618 -0.2059
15372SOL    HW163726   6.211   9.249  12.813 -1.1152 -1.3073  0.7441
15372SOL    HW263727   6.087   9.190  12.750 -1.7590  3.8980 -3.6315
15373SOL     OW63728  10.255  11.668   7.485  0.0082  0.4239  0.4556
15373SOL    HW163729  10.323  11.692   7.548  1.0947 -1.2739  0.0024
15373SOL    HW263730  10.236  11.749   7.438  0.2034  1.3963  1.9793
15374SOL     OW63731  11.685  11.969  10.041 -0.3148  0.0289 -0.1522
15374SOL    HW163732  11.618  11.922   9.991 -0.3736 -1.8213  1.5536
15374SOL    HW263733  11.766  11.954   9.993 -0.5811 -0.5773 -0.4283
15375SOL     OW63734   1.563   9.095   4.782 -0.1476 -0.2631 -0.1364
15375SOL    HW163735   1.634   9.095   4.718  0.8105 -0.1788  0.8956
15375SOL    HW263736   1.489   9.056   4.736  0.4985 -0.1393 -1.3098
15376SOL     OW63737  12.642   1.285   4.493  0.4450 -0.1782  0.1451
15376SOL    HW163738  12.723   1.235   4.499  1.0398  0.6535 -0.6243
15376SOL    HW263739  12.625   1.291   4.399 -0.7766 -0.7368  0.3037
15377SOL     OW63740   6.415   9.319   2.773  0.1274  0.3037  0.6478
15377SOL    HW163741   6.401   9.306   2.679 -0.1322  1.1564  0.5624
15377SOL    HW263742   6.346   9.266   2.814  0.7339 -0.7128  0.3888
15378SOL     OW63743  10.327   7.689   5.493 -0.2796 -0.0961  0.0129
15378SOL    HW163744  10.257   7.751   5.471  0.1366  0.4685  0.2467
15378SOL    HW263745  10.404   7.744   5.509 -0.1038 -0.6135  1.0541
15379SOL     OW63746   2.160  10.997  12.536 -0.0759  0.3115  0.3125
15379SOL    HW163747   2.251  11.015  12.560 -0.1197 -0.3748  1.0320
15379SOL    HW263748   2.110  11.067  12.579  0.0485  0.2878  0.4978
15380SOL     OW63749   2.971  13.718  10.690 -0.2049 -0.5239 -0.0739
15380SOL    HW163750   3.062  13.740  10.666  0.1495 -0.7569  0.9995
15380SOL    HW263751   2.933  13.801  10.718  1.1275 -1.0141  3.9581
15381SOL     OW63752   7.274  11.713  11.266  0.5941  0.3581 -0.1949
15381SOL    HW163753   7.367  11.734  11.269  1.3416 -2.3243 -1.4923
15381SOL    HW263754   7.254  11.678  11.353  0.9850  0.1974 -0.1696
15382SOL     OW63755  13.437   7.384   3.075  0.5559 -0.1198  0.1677
15382SOL    HW163756  13.343   7.400   3.068  0.7505  1.3681  0.7085
15382SOL    HW263757  13.459   7.332   2.998 -0.8711 -1.3652  0.5437
15383SOL     OW63758   5.722   6.720  12.327 -0.4896 -0.0828  0.3686
15383SOL    HW163759   5.633   6.741  12.354 -0.6957  0.4276 -0.6770
15383SOL    HW263760   5.712   6.672  12.245  0.2060  0.0675  0.1862
15384SOL     OW63761  10.338   4.509   0.193 -0.2670  0.6735 -0.1259
15384SOL    HW163762  10.283   4.442   0.233  0.5254  0.2847  0.3371
15384SOL    HW263763  10.354   4.572   0.264  1.5206 -0.2536  0.3387
15385SOL     OW63764  10.369  10.135   8.394 -0.4414 -0.0075 -0.3464
15385SOL    HW163765  10.314  10.214   8.399  0.1310  0.4025 -0.3789
15385SOL    HW263766  10.450  10.166   8.353  0.2541 -0.3538  0.7322
15386SOL     OW63767   3.927   9.516   0.311 -0.2444 -0.4761  0.3760
15386SOL    HW163768   3.870   9.581   0.271  1.0105  0.7891  0.5787
15386SOL    HW263769   3.904   9.434   0.266 -0.9171  0.3425 -0.8435
15387SOL     OW63770   2.982  13.672   5.902  0.4472 -0.8942 -0.2522
15387SOL    HW163771   2.970  13.758   5.861 -0.5034 -1.4508 -1.1925
15387SOL    HW263772   3.076  13.667   5.918  0.7617 -0.3340 -1.7011
15388SOL     OW63773  11.664  11.754   6.133 -0.3795 -0.0296  0.4996
15388SOL    HW163774  11.622  11.706   6.061  0.6515 -2.4298  1.3646
15388SOL    HW263775  11.630  11.712   6.212 -0.5021  1.6946  1.4083
15389SOL     OW63776   0.159   5.698   8.623 -0.0681 -0.4904 -0.2252
15389SOL    HW163777   0.214   5.776   8.634  0.5496 -0.6821 -1.7169
15389SOL    HW263778   0.203   5.630   8.675 -0.6003  0.1323  1.0640
15390SOL     OW63779   7.869  13.854   0.290 -0.2769 -0.2766 -0.0606
15390SOL    HW163780   7.865  13.841   0.195  2.3712 -0.6506 -0.2100
15390SOL    HW263781   7.883  13.948   0.301 -1.5699 -0.0830  0.0394
15391SOL     OW63782   1.403   8.597  12.047 -0.0054 -0.2367 -0.3456
15391SOL    HW163783   1.380   8.544  11.971 -2.2241  0.3475 -0.1470
15391SOL    HW263784   1.366   8.683  12.027 -0.0825  0.0868  1.1170
15392SOL     OW63785   8.114  13.986  11.070 -0.5644  0.2358 -0.9725
15392SOL    HW163786   8.166  14.062  11.095 -0.3773 -0.5025  1.1145
15392SOL    HW263787   8.177  13.927  11.027 -0.0292  0.0398  0.0578
15393SOL     OW63788  12.704  13.771   5.305  0.8892  0.0471 -0.7348
15393SOL    HW163789  12.650  13.770   5.226  0.7621  1.1767 -0.6722
15393SOL    HW263790  12.657  13.717   5.367  0.2696  0.3103 -0.9703
15394SOL     OW63791  11.704   3.499   9.060  0.1460 -0.2794 -0.2436
15394SOL    HW163792  11.732   3.589   9.049  0.2118 -0.0757  1.2768
15394SOL    HW263793  11.743   3.472   9.143 -0.3168 -1.5305 -0.4084
15395SOL     OW63794   5.907   6.873  13.175  0.2526 -0.8219 -0.3591
15395SOL    HW163795   5.984   6.817  13.186  1.9194  1.1271 -1.3727
15395SOL    HW263796   5.915   6.907  13.086 -0.0599  1.8037  0.5275
15396SOL     OW63797   5.953  12.958   6.714  0.5843  0.3451  0.2271
15396SOL    HW163798   5.929  13.049   6.698  0.6779  0.5524  1.2156
15396SOL    HW263799   6.002  12.960   6.796 -1.1094 -0.8163  1.3421
15397SOL     OW63800  13.718   7.184   2.650 -0.2204  0.3821  0.2701
15397SOL    HW163801  13.734   7.170   2.557 -0.2556  0.3315  0.2713
15397SOL    HW263802  13.654   7.256   2.653  1.3575  1.8391  0.3216
15398SOL     OW63803   8.567   8.427   8.870 -0.1631  0.6324  0.1732
15398SOL    HW163804   8.488   8.460   8.829 -0.0921 -0.3683 -0.8291
15398SOL    HW263805   8.566   8.333   8.852  1.7369  0.7317 -0.7194
15399SOL     OW63806   4.114  12.414   4.813  0.2028  0.2911  0.7479
15399SOL    HW163807   4.074  12.477   4.753  0.9842 -0.8947 -1.0900
15399SOL    HW263808   4.044  12.392   4.875 -0.7153  1.3516  0.1189
15400SOL     OW63809   6.813  11.750  12.307  0.8184 -0.3013 -0.5740
15400SOL    HW163810   6.869  11.712  12.375  0.6513 -0.9912 -0.8166
15400SOL    HW263811   6.874  11.785  12.243  0.9848 -1.3386 -0.9977
15401SOL     OW63812  12.784   5.595   2.440  0.7909 -0.5528  0.1402
15401SOL    HW163813  12.723   5.578   2.512  0.3135  1.9724  0.4083
15401SOL    HW263814  12.739   5.561   2.362 -1.1031  1.3374  0.3167
15402SOL     OW63815   9.286   5.676  11.128  0.0913 -0.3027  0.1169
15402SOL    HW163816   9.269   5.766  11.099 -1.1298 -0.8734 -1.0885
15402SOL    HW263817   9.302   5.628  11.046  2.0185 -0.9534  0.8308
15403SOL     OW63818   3.726   1.558   6.030  0.4147  0.4255  0.3862
15403SOL    HW163819   3.637   1.578   6.001 -1.0816 -2.8687  2.1214
15403SOL    HW263820   3.764   1.508   5.958  0.3977  0.8037  0.1158
15404SOL     OW63821   9.238   6.497   9.935  0.1795  0.5247 -0.2452
15404SOL    HW163822   9.310   6.437   9.917  0.4112  1.2460 -1.8016
15404SOL    HW263823   9.242   6.562   9.865 -0.8421  1.6467  0.6987
15405SOL     OW63824  10.507  13.224   9.786  0.0978 -0.3126 -0.1605
15405SOL    HW163825  10.577  13.230   9.851 -0.1307  0.3548  0.0278
15405SOL    HW263826  10.543  13.266   9.708 -0.4934  1.0975  0.2951
15406SOL     OW63827   0.109   5.864  13.599  0.0539 -0.3121 -0.1758
15406SOL    HW163828   0.025   5.874  13.555  0.0509  0.5454  0.0140
15406SOL    HW263829   0.171   5.841  13.529  0.0487  1.0164 -0.6334
15407SOL     OW63830  12.337   7.966  10.319 -0.2510  0.5395 -1.0534
15407SOL    HW163831  12.425   7.972  10.358 -1.6611  0.1845  2.5416
15407SOL    HW263832  12.293   8.045  10.347 -1.0296  0.9111 -3.1824
15408SOL     OW63833  13.992   6.436   5.571 -0.3077  0.0358 -0.3734
15408SOL    HW163834  13.956   6.453   5.484  0.1702  1.3980 -0.3274
15408SOL    HW263835  13.955   6.505   5.626 -1.7715 -1.6530  0.8701
15409SOL     OW63836  13.561  11.416   9.418  0.1044 -0.1693  0.4913
15409SOL    HW163837  13.606  11.337   9.388 -0.8898 -1.3721  2.0392
15409SOL    HW263838  13.599  11.435   9.504 -0.2762  0.5400  0.5137
15410SOL     OW63839   9.597  13.357  12.667 -0.0489 -0.2292  0.3749
15410SOL    HW163840   9.514  13.309  12.661 -0.2966  0.1864  0.4962
15410SOL    HW263841   9.575  13.447  12.643 -0.0359  0.3302  2.3215
15411SOL     OW63842   9.377   3.604   7.587 -0.0377 -0.3221 -0.1657
15411SOL    HW163843   9.309   3.539   7.602 -0.5335  0.5884  2.0226
15411SOL    HW263844   9.369   3.665   7.661  2.6665  0.2564 -0.2170
15412SOL     OW63845  11.518   2.684   5.369 -0.0390 -0.1326 -0.4088
15412SOL    HW163846  11.502   2.623   5.441  1.9359  1.0921  1.1816
15412SOL    HW263847  11.498   2.633   5.290 -1.1111 -1.9131  0.9251
15413SOL     OW63848  12.492  11.751  12.377 -0.1251 -0.3162  0.1891
15413SOL    HW163849  12.400  11.777  12.385  0.0523  0.2647  0.4001
15413SOL    HW263850  12.539  11.833  12.358  0.0004 -1.0229 -3.0664
15414SOL     OW63851   3.737   9.476   9.697  0.2503  0.1928 -0.3808
15414SOL    HW163852   3.799   9.491   9.627 -0.1106  0.0955 -0.7274
15414SOL    HW263853   3.657   9.447   9.652 -0.0563  0.3602  0.0508
15415SOL     OW63854   1.259   8.393  10.493 -0.3303  0.2078 -0.4797
15415SOL    HW163855   1.265   8.486  10.515  0.3095  0.2878 -0.9676
15415SOL    HW263856   1.340   8.355  10.527 -0.9034 -0.3093  0.3330
15416SOL     OW63857   1.171  11.348   6.539  0.5909  0.0156  0.6259
15416SOL    HW163858   1.231  11.344   6.464  0.8979  1.6757  0.7471
15416SOL    HW263859   1.125  11.431   6.529 -1.9275 -1.2969  0.4137
15417SOL     OW63860   5.516   8.948   2.225  0.0950  0.4948  0.1347
15417SOL    HW163861   5.480   9.020   2.276  0.0347 -0.2776  1.2237
15417SOL    HW263862   5.601   8.930   2.265 -0.1040 -0.3468  0.2012
15418SOL     OW63863   9.651  13.086   8.723  0.3166 -0.1426  0.1976
15418SOL    HW163864   9.610  13.156   8.673  0.2548  1.0260  1.8165
15418SOL    HW263865   9.669  13.017   8.658  0.2294  1.2819 -1.3978
15419SOL     OW63866  11.452   4.250   1.575 -0.7418 -1.2076 -0.4903
15419SOL    HW163867  11.367   4.292   1.559 -0.6878 -0.6545  0.5465
15419SOL    HW263868  11.452   4.173   1.519 -0.9656  0.0241 -2.2413
15420SOL     OW63869   3.683  11.209   7.210 -0.1291  0.0673  0.5396
15420SOL    HW163870   3.624  11.240   7.278 -0.8638  1.0798 -0.5308
15420SOL    HW263871   3.626  11.189   7.135  0.4369 -2.6789  0.7195
15421SOL     OW63872   0.868  12.416   1.323  0.2890 -0.3414 -0.6036
15421SOL    HW163873   0.935  12.480   1.348 -0.5424  0.5742 -0.6627
15421SOL    HW263874   0.918  12.339   1.296  1.3127  0.2422 -0.4404
15422SOL     OW63875  12.941  12.393   3.689  0.6140  0.2453  0.1407
15422SOL    HW163876  12.933  12.299   3.708  0.6309  0.2606  0.2260
15422SOL    HW263877  13.035  12.408   3.679  0.5052 -0.1012 -1.7473
15423SOL     OW63878   0.064  10.996   3.696 -0.3357 -0.9232  0.2067
15423SOL    HW163879   0.155  10.979   3.674 -0.1781 -0.4019  0.4293
15423SOL    HW263880   0.022  11.019   3.613 -0.3033 -1.3164  0.0802
15424SOL     OW63881  11.831  11.625   1.393 -0.1794 -0.0233 -0.1440
15424SOL    HW163882  11.735  11.616   1.397 -0.1700  0.0604  0.5118
15424SOL    HW263883  11.859  11.563   1.326 -0.4388 -2.2142  1.6339
15425SOL     OW63884   9.687  11.798   5.630 -0.2861  0.3837  0.3414
15425SOL    HW163885   9.686  11.843   5.714  1.5304 -0.1244  0.6690
15425SOL    HW263886   9.656  11.710   5.649  1.1148 -0.0515  0.7109
15426SOL     OW63887   7.011   1.752   7.956 -0.0150 -0.2531  0.1546
15426SOL    HW163888   7.015   1.797   7.872  0.1798 -1.2796 -0.4109
15426SOL    HW263889   6.939   1.689   7.946 -0.4905  0.1313  1.0269
15427SOL     OW63890   2.016  12.009   3.936  0.1950  0.0548 -0.0193
15427SOL    HW163891   1.956  12.066   3.985 -3.0764 -2.7485 -0.4322
15427SOL    HW263892   1.981  12.008   3.847 -0.2444 -2.9586  0.1090
15428SOL     OW63893   1.015  10.777  13.436 -0.0925 -0.2429  0.4169
15428SOL    HW163894   0.982  10.767  13.347 -0.4446 -0.8899  0.6092
15428SOL    HW263895   0.956  10.723  13.489 -0.4812  0.8972  1.1762
15429SOL     OW63896  11.557  10.972   8.540  0.3344  0.3764 -0.2197
15429SOL    HW163897  11.651  10.986   8.529  0.3979  0.1642  0.0602
15429SOL    HW263898  11.524  11.053   8.580  0.3398  0.5822 -0.6192
15430SOL     OW63899   0.501  11.159   2.129  0.1423 -0.2892  0.2524
15430SOL    HW163900   0.537  11.083   2.173 -0.6646 -0.0117  1.4325
15430SOL    HW263901   0.562  11.230   2.149 -0.7209  0.0597  1.7956
15431SOL     OW63902   3.747  13.393  11.429 -0.2551 -0.5179  0.2969
15431SOL    HW163903   3.796  13.360  11.353 -0.1195 -0.9682  0.5754
15431SOL    HW263904   3.750  13.321  11.492 -0.5885 -0.2407  0.6292
15432SOL     OW63905   4.624   5.509  12.770 -0.1615  0.3816 -0.0991
15432SOL    HW163906   4.708   5.467  12.750 -0.1076  0.3776  0.1387
15432SOL    HW263907   4.620   5.512  12.865 -0.3434  0.5598 -0.1109
15433SOL     OW63908   7.082   0.332  12.514 -0.2564  0.0503 -0.2222
15433SOL    HW163909   7.135   0.305  12.439  0.2861  0.5403 -0.0292
15433SOL    HW263910   7.060   0.251  12.559 -2.1430 -0.4719 -1.8859
15434SOL     OW63911   9.389   4.469   5.674  0.2370 -0.1993 -0.4371
15434SOL    HW163912   9.368   4.432   5.760  0.3551 -0.2000 -0.4084
15434SOL    HW263913   9.315   4.526   5.654  0.2917 -0.0638 -0.2556
15435SOL     OW63914  11.995  13.650  10.474 -0.1627 -0.9962  0.9097
15435SOL    HW163915  11.928  13.715  10.496  0.5790  0.0431  0.1817
15435SOL    HW263916  12.058  13.656  10.545 -0.2524 -1.1560  1.0040
15436SOL     OW63917  10.204   8.963  14.092 -0.1340  0.6867 -0.3053
15436SOL    HW163918  10.293   8.969  14.057  0.3867  0.5871  0.9723
15436SOL    HW263919  10.214   8.928  14.180 -1.3449  1.5962  0.2308
15437SOL     OW63920   7.555   0.753   3.836 -0.1294  0.3284 -0.4863
15437SOL    HW163921   7.538   0.742   3.743  1.3387 -1.8611 -0.5771
15437SOL    HW263922   7.632   0.698   3.853  0.2359  1.4249  1.8288
15438SOL     OW63923  10.765   6.991   4.309 -0.3674 -0.7747 -0.6825
15438SOL    HW163924  10.837   7.053   4.299  0.7874 -1.7691  1.0179
15438SOL    HW263925  10.807   6.909   4.334 -2.1321 -1.2503  0.9328
15439SOL     OW63926  11.968   3.654  11.237 -0.0139 -0.6301  0.0625
15439SOL    HW163927  11.985   3.737  11.193 -1.7070  0.2261  0.9228
15439SOL    HW263928  12.052   3.607  11.233  0.9116  0.9930 -0.6595
15440SOL     OW63929   0.927  13.160   1.782 -0.9238  0.1201  0.0048
15440SOL    HW163930   0.989  13.097   1.817 -0.6368 -0.4754 -1.4874
15440SOL    HW263931   0.894  13.207   1.858  0.4794 -0.3553  0.9330
15441SOL     OW63932   2.868  13.999   5.034  0.6838 -0.0452 -0.1415
15441SOL    HW163933   2.835  14.048   5.109  0.2173 -0.3717 -0.1303
15441SOL    HW263934   2.877  14.064   4.965  0.3164  0.1058 -0.0505
15442SOL     OW63935   4.131  12.931  10.187 -0.6012  0.4840  0.1405
15442SOL    HW163936   4.162  12.933  10.096 -1.2977 -0.5367 -0.1302
15442SOL    HW263937   4.070  13.004  10.193 -0.9768  0.2165 -0.3733
15443SOL     OW63938   4.734   5.615   4.126  0.0495 -0.5637  0.5104
15443SOL    HW163939   4.816   5.565   4.122  1.0350  1.0062  0.2986
15443SOL    HW263940   4.672   5.556   4.168  0.6012 -2.6830 -1.4254
15444SOL     OW63941   7.584   5.520   7.548 -0.2244 -0.4624  0.0735
15444SOL    HW163942   7.592   5.433   7.587 -1.1675 -0.3016  0.6404
15444SOL    HW263943   7.514   5.512   7.484 -2.8538  0.6908  2.5944
15445SOL     OW63944  13.400   2.749  12.486 -0.6781 -0.5415 -0.3603
15445SOL    HW163945  13.460   2.675  12.478 -1.8226 -1.5228 -0.1412
15445SOL    HW263946  13.457   2.825  12.497  0.5174 -1.6397  1.5475
15446SOL     OW63947  13.296  12.936   9.793 -0.2074 -0.3093  0.0853
15446SOL    HW163948  13.289  12.854   9.745  0.2299 -0.2178 -0.1392
15446SOL    HW263949  13.367  12.983   9.750 -1.4691  0.8642 -0.8023
15447SOL     OW63950  11.638   0.900   8.499  0.3847 -0.2474 -0.5589
15447SOL    HW163951  11.677   0.986   8.518  0.7661 -0.5364 -0.0306
15447SOL    HW263952  11.564   0.893   8.560 -0.3859  0.2025 -1.4058
15448SOL     OW63953   6.382   8.071   1.555  0.1171 -0.0459 -0.3373
15448SOL    HW163954   6.368   8.157   1.594  0.7763  0.6600 -1.6032
15448SOL    HW263955   6.459   8.036   1.601  0.0849  0.2014 -0.0949
15449SOL     OW63956   9.745   5.461   4.842  0.6993 -0.1798  0.4560
15449SOL    HW163957   9.685   5.527   4.809  0.0167 -0.0595  1.8719
15449SOL    HW263958   9.729   5.384   4.786  1.4199  0.7587 -1.1261
15450SOL     OW63959  14.066  13.027   7.985 -0.4893  0.0500 -0.2167
15450SOL    HW163960  14.001  12.970   8.025 -0.1975  0.3085  0.6438
15450SOL    HW263961  14.045  13.114   8.017  0.5463  0.0764  0.4418
15451SOL     OW63962   2.903   1.454   0.134  0.2489  0.3229 -0.0388
15451SOL    HW163963   2.887   1.526   0.195  1.2652  0.5536 -0.0249
15451SOL    HW263964   2.973   1.403   0.174  0.9209  0.4692 -0.9870
15452SOL     OW63965   8.375  11.565  10.884 -0.3902 -0.2786  0.3997
15452SOL    HW163966   8.329  11.581  10.801 -0.0780  1.0345  0.4637
15452SOL    HW263967   8.396  11.471  10.881  0.7952 -0.0325 -1.6462
15453SOL     OW63968  12.207   2.234   9.603  0.0394  0.0957 -0.1455
15453SOL    HW163969  12.256   2.152   9.593  1.4222  1.0953 -2.2178
15453SOL    HW263970  12.134   2.226   9.542 -0.2531  0.1375  0.1933
15454SOL     OW63971  14.040   1.818   1.403  0.0781  0.7770  0.0109
15454SOL    HW163972  14.056   1.756   1.331 -1.2570  0.5453 -0.1118
15454SOL    HW263973  14.123   1.865   1.413  0.7101 -0.1254 -0.7711
15455SOL     OW63974   6.061  11.961   0.360 -0.4116 -0.4753  0.1827
15455SOL    HW163975   5.993  11.907   0.400 -0.3055 -0.3378  0.5480
15455SOL    HW263976   6.139  11.907   0.363 -0.6987 -1.0006 -1.0783
15456SOL     OW63977   0.471   7.436  14.073 -0.0898 -0.0287  0.0347
15456SOL    HW163978   0.513   7.434  13.987 -0.7279  0.3603 -0.2938
15456SOL    HW263979   0.420   7.517  14.073  0.9879  0.6982  1.3037
15457SOL     OW63980  12.757   6.784   0.567  0.2594  0.3859 -0.4912
15457SOL    HW163981  12.749   6.718   0.635 -0.5672 -0.1659 -1.1024
15457SOL    HW263982  12.785   6.735   0.489 -0.9566  0.6469 -1.1076
15458SOL     OW63983  14.077  11.847   8.465  0.4973 -0.6315  0.3071
15458SOL    HW163984  14.153  11.878   8.415 -2.0370  1.9345 -2.3029
15458SOL    HW263985  14.037  11.780   8.410 -0.1227 -0.7029  0.8313
15459SOL     OW63986   6.764   9.365   2.501 -0.4584  0.8159  0.2342
15459SOL    HW163987   6.749   9.319   2.583 -0.1330  1.7420  0.8293
15459SOL    HW263988   6.792   9.453   2.527  0.8980  0.7446 -0.8445
15460SOL     OW63989   1.001  11.375  12.439 -0.3044  0.3640  0.2304
15460SOL    HW163990   0.969  11.461  12.412  0.2573  0.5612  0.1645
15460SOL    HW263991   1.076  11.359  12.382 -1.6557 -1.1222 -1.2257
15461SOL     OW63992   4.236  12.164  14.052 -0.0623  0.1550 -0.1012
15461SOL    HW163993   4.263  12.250  14.021 -0.0189  0.2854  0.2920
15461SOL    HW263994   4.318  12.117  14.069 -0.0190  1.0054  2.3663
15462SOL     OW63995  12.630  13.406   1.878  0.5246 -0.7618  0.2596
15462SOL    HW163996  12.547  13.426   1.835  0.6483 -0.2933  0.2404
15462SOL    HW263997  12.611  13.331   1.934  0.3840 -1.4594 -0.6966
15463SOL     OW63998  12.457   8.533   9.465  0.6971 -0.1158 -0.4137
15463SOL    HW163999  12.396   8.479   9.415  0.0440  0.3001 -0.0770
15463SOL    HW264000  12.416   8.542   9.551  1.8675 -0.9323  0.2592
15464SOL     OW64001   3.017   9.687   3.290 -0.0801 -0.4877 -0.0441
15464SOL    HW164002   2.989   9.749   3.357  0.2059 -0.9223  0.4900
15464SOL    HW264003   2.954   9.698   3.218  0.2448  0.7546 -0.1696
15465SOL     OW64004   9.814   7.240   3.777 -0.5741 -0.3501 -0.6982
15465SOL    HW164005   9.899   7.203   3.755 -0.4771 -0.1633 -0.6394
15465SOL    HW264006   9.813   7.242   3.872  0.3952  1.9846 -0.6596
15466SOL     OW64007   6.174  11.112   3.461 -0.1442  0.1182  0.3216
15466SOL    HW164008   6.081  11.106   3.482  0.0680  0.4567  1.4187
15466SOL    HW264009   6.181  11.189   3.405 -0.7800 -1.0374 -1.4370
15467SOL     OW64010   1.388  13.597   3.316 -0.7075 -0.1564 -0.0097
15467SOL    HW164011   1.314  13.648   3.350 -0.8238 -1.0038  1.0574
15467SOL    HW264012   1.366  13.506   3.335  0.7855 -0.4005  0.6996
15468SOL     OW64013  10.631  14.064  11.912  0.0555  0.0675 -0.2358
15468SOL    HW164014  10.580  14.135  11.874 -1.0025 -1.5457 -2.0533
15468SOL    HW264015  10.711  14.061  11.859 -0.4602 -0.8371 -0.9923
15469SOL     OW64016   3.941   3.050  13.904 -0.0695 -0.0762 -0.1120
15469SOL    HW164017   3.980   2.963  13.901  0.6024  0.1436 -4.3193
15469SOL    HW264018   4.013   3.109  13.883 -1.0034  1.2326  0.2401
15470SOL     OW64019   3.240   5.108  13.168 -0.3012  0.5456  0.1696
15470SOL    HW164020   3.234   5.044  13.239 -0.9202  0.4057  0.0014
15470SOL    HW264021   3.226   5.193  13.211 -1.3019  0.4112  0.1362
15471SOL     OW64022   4.818  11.818   9.930  0.2346  0.3487 -0.5335
15471SOL    HW164023   4.786  11.728   9.926 -1.9221  1.0596 -0.3141
15471SOL    HW264024   4.913  11.809   9.938  0.0313 -1.9099  0.0298
15472SOL     OW64025  11.431  10.927   4.703  0.0906  0.0074 -0.1920
15472SOL    HW164026  11.366  10.908   4.636  0.8489 -0.6538 -0.7663
15472SOL    HW264027  11.381  10.963   4.776 -0.5253  2.7883 -1.8625
15473SOL     OW64028   3.821  10.510   4.023 -0.4122 -0.5351  0.2540
15473SOL    HW164029   3.827  10.503   4.119  0.5243  0.1340  0.2626
15473SOL    HW264030   3.752  10.575   4.008  0.8278  0.9347  0.5677
15474SOL     OW64031   0.594   0.310  11.644  0.1994 -0.0555 -0.5957
15474SOL    HW164032   0.623   0.400  11.649 -0.9040  0.4011 -1.8202
15474SOL    HW264033   0.499   0.315  11.651  0.2219 -1.3269  1.4415
15475SOL     OW64034   0.566   0.743  11.454  0.4961  0.7482  0.1728
15475SOL    HW164035   0.620   0.815  11.423  0.0484  0.5753 -1.0472
15475SOL    HW264036   0.621   0.665  11.441  0.5866  0.7447  0.5386
15476SOL     OW64037  11.326  10.326   8.939  0.6575 -0.1085  0.6787
15476SOL    HW164038  11.410  10.331   8.984  1.2861  1.9568 -0.5880
15476SOL    HW264039  11.329  10.396   8.874 -0.0963 -2.9047 -2.7430
15477SOL     OW64040   3.675   8.800   3.966 -0.0172  0.2247 -0.1676
15477SOL    HW164041   3.586   8.795   4.001  0.1232 -2.9479  0.0292
15477SOL    HW264042   3.663   8.787   3.871  0.2213  0.3283 -0.2120
15478SOL     OW64043  12.623   4.368   5.277  0.1547  0.0977  0.3525
15478SOL    HW164044  12.595   4.293   5.224  0.1624  0.2073  0.1953
15478SOL    HW264045  12.585   4.351   5.363 -0.6406  0.3888  0.0673
15479SOL     OW64046   5.455  10.273   8.001 -0.0742 -0.9950 -0.1985
15479SOL    HW164047   5.479  10.217   7.927  0.8986 -0.9579  0.0859
15479SOL    HW264048   5.503  10.237   8.075  1.2435  0.7194 -0.1725
15480SOL     OW64049   1.505  10.572   4.527  0.4256  0.1152 -0.4183
15480SOL    HW164050   1.482  10.663   4.544 -1.4111 -0.6269  1.4311
15480SOL    HW264051   1.563  10.548   4.600 -1.6495 -1.0289  0.9527
15481SOL     OW64052   1.482   7.938   5.209  0.3077 -0.1404 -0.2587
15481SOL    HW164053   1.478   8.029   5.237 -0.2683  0.1786 -1.3109
15481SOL    HW264054   1.392   7.907   5.217  0.6362 -0.8542  0.8120
15482SOL     OW64055   3.231  11.099  10.785  0.4230 -0.2824  0.0408
15482SOL    HW164056   3.221  11.007  10.809  0.5000 -0.3621 -0.2237
15482SOL    HW264057   3.280  11.097  10.702  0.5147 -0.0007  0.0856
15483SOL     OW64058   5.992   3.919  10.983 -0.1545 -0.0071 -0.0140
15483SOL    HW164059   5.931   3.993  10.986  1.0420  0.9767  0.3613
15483SOL    HW264060   5.991   3.883  11.072 -1.7531 -1.3463 -0.4987
15484SOL     OW64061  11.148   3.148   2.385  0.2177  0.2270  0.0561
15484SOL    HW164062  11.203   3.069   2.385 -0.1083 -0.0097 -0.6096
15484SOL    HW264063  11.084   3.132   2.315  0.5113  1.3296 -0.4876
15485SOL     OW64064   2.577   6.961   0.071  0.1320  0.3319 -0.1555
15485SOL    HW164065   2.532   6.951  -0.013 -1.2946 -0.9931  0.7031
15485SOL    HW264066   2.603   6.872   0.094 -1.3864  0.3138  1.7578
15486SOL     OW64067   4.196   1.580   4.608  0.0868  0.1539  0.1848
15486SOL    HW164068   4.186   1.651   4.672 -1.6535  1.2182 -1.1871
15486SOL    HW264069   4.211   1.502   4.661  1.0154  1.3458  1.7818
15487SOL     OW64070  13.959   2.573   9.916  0.4758 -0.1293 -0.2068
15487SOL    HW164071  13.980   2.565  10.009  0.6602 -0.3791 -0.2671
15487SOL    HW264072  13.883   2.515   9.904  0.8684 -0.6238 -0.3427
15488SOL     OW64073   7.306  10.381   6.574 -0.2484  0.0548  0.0899
15488SOL    HW164074   7.380  10.441   6.560  0.6719 -0.9012  0.7345
15488SOL    HW264075   7.231  10.427   6.535  0.4346  1.5875  0.4875
15489SOL     OW64076  10.694  13.887   2.045 -0.1561 -0.4002 -0.1205
15489SOL    HW164077  10.721  13.797   2.028 -0.3201 -0.3933 -0.4153
15489SOL    HW264078  10.599  13.883   2.055 -0.0683 -0.4142  0.8711
15490SOL     OW64079   0.291   4.110   1.958 -0.3958  0.0215  0.6136
15490SOL    HW164080   0.346   4.167   2.013 -1.1809 -0.2723  1.7505
15490SOL    HW264081   0.245   4.170   1.900  0.4232  0.3486  0.2944
15491SOL     OW64082   2.988   8.949  12.584 -1.0045  0.4987 -0.0379
15491SOL    HW164083   2.916   8.900  12.543 -0.6766 -0.0042 -0.0251
15491SOL    HW264084   2.950   9.034  12.607 -1.9774 -0.2214  1.1746
15492SOL     OW64085   4.966   7.621  10.766 -0.1895  0.4183 -0.3750
15492SOL    HW164086   4.962   7.556  10.695  1.5019  0.9536 -1.0186
15492SOL    HW264087   4.893   7.679  10.749 -0.4402 -0.0846 -1.0609
15493SOL     OW64088   0.806   0.026   2.658  0.0515 -0.8328  0.1775
15493SOL    HW164089   0.754  -0.048   2.691 -3.2761  0.4518 -1.7098
15493SOL    HW264090   0.814   0.085   2.733 -1.6708 -0.8932  0.4500
15494SOL     OW64091   9.369   3.578   0.599  0.6524 -0.5894 -0.0448
15494SOL    HW164092   9.438   3.584   0.533  0.8812 -0.0551  0.2405
15494SOL    HW264093   9.405   3.521   0.667  0.6087 -0.7304 -0.1386
15495SOL     OW64094   3.847  10.885   8.461  0.2922  0.2022  0.2487
15495SOL    HW164095   3.893  10.936   8.395 -0.6061 -1.5110 -1.8225
15495SOL    HW264096   3.913  10.826   8.496  0.0703 -1.4621 -1.9010
15496SOL     OW64097   6.459   2.574   0.681 -0.2161 -0.5218  0.5000
15496SOL    HW164098   6.416   2.620   0.609  2.2046 -0.9456 -1.3522
15496SOL    HW264099   6.522   2.516   0.638  2.0189 -0.1321  2.9741
15497SOL     OW64100   1.245   1.245   5.834  0.2533  0.5946 -0.0397
15497SOL    HW164101   1.333   1.226   5.801  0.2191 -0.8644  0.6192
15497SOL    HW264102   1.206   1.300   5.766  0.3346 -1.8797 -2.2901
15498SOL     OW64103   1.615   3.999  14.081 -0.3952  0.2565 -0.2765
15498SOL    HW164104   1.533   3.958  14.108 -1.5935  1.0033 -2.5256
15498SOL    HW264105   1.605   4.091  14.106 -0.4260  0.4235 -0.8799
15499SOL     OW64106   8.131   0.106  12.011 -0.1372  0.1330 -0.2232
15499SOL    HW164107   8.060   0.067  12.062 -0.8746  1.7077  0.0233
15499SOL    HW264108   8.147   0.044  11.940 -0.7360 -0.9561  0.5707
15500SOL     OW64109   6.682   7.986   6.143  0.0207 -0.5783  0.0271
15500SOL    HW164110   6.652   7.927   6.074 -0.4012 -1.0312  0.5833
15500SOL    HW264111   6.705   8.066   6.097  1.0382 -1.3175 -0.8078
15501SOL     OW64112   2.954  11.879   4.579  0.2043 -0.0701 -0.3337
15501SOL    HW164113   2.896  11.804   4.590 -1.3437  1.0843 -0.3763
15501SOL    HW264114   2.949  11.927   4.662  3.1234 -1.2468  0.6611
15502SOL     OW64115  12.226   3.048  13.135 -0.2081 -0.2435  0.1340
15502SOL    HW164116  12.183   3.013  13.057 -0.2529 -0.7407  0.3753
15502SOL    HW264117  12.225   2.975  13.197 -0.5778  0.2875  0.7555
15503SOL     OW64118   6.284   4.987   2.333 -0.6646 -0.1274  0.0067
15503SOL    HW164119   6.188   4.989   2.335 -0.7111 -1.6961  0.3514
15503SOL    HW264120   6.305   4.979   2.240 -0.8790 -0.0780 -0.0476
15504SOL     OW64121  12.268  11.894   4.421  0.1203 -0.3781  0.0274
15504SOL    HW164122  12.344  11.896   4.480 -0.4164 -2.6293  0.9127
15504SOL    HW264123  12.249  11.801   4.411 -4.2094  0.0500  2.1212
15505SOL     OW64124   0.973   7.076   5.715 -0.0554  0.2158 -0.3363
15505SOL    HW164125   1.040   7.034   5.769 -0.6825 -3.0577 -1.8663
15505SOL    HW264126   1.020   7.144   5.666  1.2349  0.7663  1.5640
15506SOL     OW64127   1.353   6.821   6.914 -0.1515  0.3028  0.0587
15506SOL    HW164128   1.358   6.733   6.950 -1.5470  0.3862  0.5148
15506SOL    HW264129   1.436   6.833   6.868  0.3631 -0.9627  0.6172
15507SOL     OW64130   1.314   4.534   9.337 -0.5640 -0.2502  0.5387
15507SOL    HW164131   1.285   4.624   9.355 -1.7425 -0.5721  0.3312
15507SOL    HW264132   1.345   4.536   9.247  1.2068  0.3588  1.1154
15508SOL     OW64133   5.413  12.421   1.971  0.3722 -0.4185 -0.3092
15508SOL    HW164134   5.378  12.476   2.041  1.0276 -0.7447  0.2952
15508SOL    HW264135   5.451  12.346   2.016 -0.4944 -1.3689 -1.1253
15509SOL     OW64136   9.029   9.141  13.356  0.3269 -0.3390  0.8656
15509SOL    HW164137   9.088   9.214  13.339  1.3949 -1.3089  0.3009
15509SOL    HW264138   8.946   9.169  13.317  0.5902  0.7419  1.0298
15510SOL     OW64139   3.534   3.391   8.781 -0.8387  0.3779  0.2609
15510SOL    HW164140   3.600   3.452   8.815 -0.1445 -0.3191  0.1873
15510SOL    HW264141   3.528   3.412   8.688 -1.2812  0.9424  0.4063
15511SOL     OW64142   7.669  10.497   6.016  0.0322 -0.1663 -0.9168
15511SOL    HW164143   7.575  10.514   6.005  0.0531 -0.5857 -1.8056
15511SOL    HW264144   7.711  10.552   5.951  0.3118 -0.9916 -1.4463
15512SOL     OW64145  10.523   8.319   1.887 -0.3720  0.3165 -0.0363
15512SOL    HW164146  10.470   8.395   1.865 -1.9983 -0.2468  1.6606
15512SOL    HW264147  10.459   8.253   1.914  1.1069 -1.0031  0.3722
15513SOL     OW64148   5.708   4.602   1.422  0.2917  0.3957 -0.0539
15513SOL    HW164149   5.739   4.646   1.500  0.7235 -1.1934  0.7203
15513SOL    HW264150   5.615   4.624   1.417 -0.2048 -0.9535  2.0076
15514SOL     OW64151  11.098  11.546   3.724  0.0515 -0.1436  0.3515
15514SOL    HW164152  11.122  11.558   3.632 -1.6567 -2.0327 -0.4041
15514SOL    HW264153  11.004  11.565   3.727 -0.7807 -3.7069  0.8625
15515SOL     OW64154  12.786   1.695   9.857  0.7315  0.1992 -0.0131
15515SOL    HW164155  12.692   1.701   9.843  0.6683 -0.1895  0.2279
15515SOL    HW264156  12.811   1.609   9.823  0.8844  0.0261  0.5230
15516SOL     OW64157  13.360   6.628   9.345  0.1944  0.6254 -0.1614
15516SOL    HW164158  13.300   6.626   9.420 -0.2345  2.2637 -0.4424
15516SOL    HW264159  13.333   6.704   9.294  0.2285 -0.6725 -2.2159
15517SOL     OW64160   9.675   8.962   4.882 -0.3100  0.1341  0.1528
15517SOL    HW164161   9.689   8.872   4.912  1.4096  0.8092  1.5079
15517SOL    HW264162   9.753   8.982   4.830 -0.8102  0.7779 -0.3667
15518SOL     OW64163   0.167   4.369   2.589 -0.5122 -0.0136 -0.0923
15518SOL    HW164164   0.157   4.315   2.510  0.1208 -0.0520 -0.1520
15518SOL    HW264165   0.260   4.361   2.612 -0.4458  0.9097 -0.0061
15519SOL     OW64166  12.651   5.979   3.037 -0.1924  0.1181  0.1787
15519SOL    HW164167  12.731   5.995   2.986  0.9371 -2.8756  0.7986
15519SOL    HW264168  12.584   5.963   2.971  0.2333  0.4605 -0.3534
15520SOL     OW64169  11.969  13.766   7.732  0.4208 -0.3930  0.6292
15520SOL    HW164170  11.970  13.831   7.803 -0.7412 -2.5845  2.7805
15520SOL    HW264171  12.056  13.727   7.734  0.4036 -0.4212  0.8089
15521SOL     OW64172   0.811  13.173   4.546  0.2380 -0.8098  0.9051
15521SOL    HW164173   0.836  13.104   4.484 -2.8640 -0.5905 -0.8158
15521SOL    HW264174   0.794  13.126   4.628  0.8349 -1.6762  0.5476
15522SOL     OW64175   3.306   5.777   7.647  0.3920 -0.2710  0.0736
15522SOL    HW164176   3.288   5.707   7.584  0.0548 -0.2982  0.1989
15522SOL    HW264177   3.260   5.853   7.612  2.7711  0.6096 -1.4159
15523SOL     OW64178  12.912   7.248   7.367 -0.0729  0.3610  0.0952
15523SOL    HW164179  12.927   7.254   7.461  1.1920  1.0337 -0.1229
15523SOL    HW264180  12.897   7.338   7.339  1.7172  0.4749 -0.6417
15524SOL     OW64181   6.116   0.963  10.933  0.2625  0.7040  0.0637
15524SOL    HW164182   6.114   1.041  10.877 -1.3565  0.9490  0.4179
15524SOL    HW264183   6.156   0.993  11.015  3.8371  0.0563 -1.2525
15525SOL     OW64184   0.090  10.823  11.922  0.8974  0.3514  0.6798
15525SOL    HW164185   0.128  10.735  11.909 -0.2807 -0.1469  0.5008
15525SOL    HW264186   0.146  10.863  11.988  1.4685 -0.5371  0.7554
15526SOL     OW64187  12.577   3.451   0.216  0.7443  0.2986 -0.1319
15526SOL    HW164188  12.509   3.444   0.149  0.7560 -2.2642  0.0224
15526SOL    HW264189  12.542   3.403   0.291  2.5174 -0.7150  0.1061
15527SOL     OW64190   3.140  12.298   3.089  0.4069  0.4899 -0.1033
15527SOL    HW164191   3.183  12.285   3.174 -0.0234 -0.4111 -0.0030
15527SOL    HW264192   3.207  12.336   3.033  1.0544 -0.0111  0.3168
15528SOL     OW64193  11.757   9.812  13.268 -0.3613 -0.1453 -0.3958
15528SOL    HW164194  11.851   9.828  13.284 -0.4894 -0.2729  0.5582
15528SOL    HW264195  11.753   9.785  13.177  0.5595 -0.3030 -0.4064
15529SOL     OW64196   3.162   0.173   5.856  0.1509 -0.2726  0.1043
15529SOL    HW164197   3.098   0.221   5.908  0.4706  0.6115 -0.2933
15529SOL    HW264198   3.242   0.224   5.863 -0.3787  1.3345 -3.1949
15530SOL     OW64199  10.359   9.950   1.479 -0.3815 -0.3819 -0.2116
15530SOL    HW164200  10.274   9.952   1.436 -0.4427  0.9550 -0.0697
15530SOL    HW264201  10.343   9.983   1.568  0.4312  0.9268 -0.5113
15531SOL     OW64202  12.024   7.941  12.170 -0.4767 -0.6779 -0.3285
15531SOL    HW164203  12.005   8.030  12.140  0.7179 -0.1841  0.2846
15531SOL    HW264204  12.079   7.954  12.247 -0.3339 -1.9588 -0.1986
15532SOL     OW64205  12.140   3.413   4.716  0.6899  0.1989  0.3109
15532SOL    HW164206  12.082   3.360   4.771 -0.8701  0.7368 -0.7557
15532SOL    HW264207  12.205   3.448   4.777 -0.9427  0.7272  1.8348
15533SOL     OW64208   9.496  13.807   4.603  0.3817  0.0284 -0.4261
15533SOL    HW164209   9.543  13.872   4.657 -0.0845 -1.3614  1.7949
15533SOL    HW264210   9.561  13.780   4.538  0.9444  1.8545 -0.7031
15534SOL     OW64211   9.533  13.552  11.337 -0.2307 -0.3883  0.9303
15534SOL    HW164212   9.590  13.590  11.404 -1.6937  0.2475  1.8671
15534SOL    HW264213   9.476  13.625  11.311 -0.2569 -0.8619 -0.3835
15535SOL     OW64214  12.962   3.228   4.799 -0.2209  0.6653 -0.3609
15535SOL    HW164215  12.892   3.289   4.777 -0.9381  0.1556  0.4162
15535SOL    HW264216  12.916   3.151   4.834  0.5788 -0.8570 -2.4576
15536SOL     OW64217   6.867   3.981   4.296  0.0928  0.0232  0.1953
15536SOL    HW164218   6.917   3.964   4.216 -0.6378  1.3978 -0.5783
15536SOL    HW264219   6.823   3.898   4.315  0.2178 -0.2950 -0.8647
15537SOL     OW64220   7.217   2.768  10.863 -0.6084 -0.1404  0.2382
15537SOL    HW164221   7.190   2.783  10.954  1.6785  0.6476  0.8593
15537SOL    HW264222   7.194   2.849  10.818 -0.7309 -0.0947  0.3830
15538SOL     OW64223   5.038   5.002   3.305  0.3473 -0.4966 -0.5128
15538SOL    HW164224   5.031   4.912   3.339 -2.8304 -0.1800 -0.0044
15538SOL    HW264225   5.119   5.036   3.344  1.0523 -2.7677  0.1786
15539SOL     OW64226   2.503   1.003   3.941 -0.0635  0.3763  0.2745
15539SOL    HW164227   2.457   1.000   4.024 -1.9698  1.4697 -0.6726
15539SOL    HW264228   2.561   1.079   3.947 -1.1759  1.2611  0.1683
15540SOL     OW64229   1.494  11.946   7.360 -0.3333  0.3130  0.0792
15540SOL    HW164230   1.511  12.038   7.381  0.4591 -0.4111  3.1542
15540SOL    HW264231   1.538  11.932   7.276 -0.0478  2.6034 -0.2149
15541SOL     OW64232   1.073   0.703   7.407 -0.9136  0.1871 -0.2464
15541SOL    HW164233   1.085   0.668   7.319  2.7015 -1.6199  0.7815
15541SOL    HW264234   1.070   0.626   7.464  1.0091  1.3390  1.5648
15542SOL     OW64235   8.164  11.208  10.980  0.2596 -0.3306  0.0426
15542SOL    HW164236   8.103  11.251  11.039  0.1536  2.5876 -1.9664
15542SOL    HW264237   8.112  11.185  10.903  1.1220 -0.2422 -0.5953
15543SOL     OW64238   0.574  12.928  13.534 -0.0468  0.2093  0.0228
15543SOL    HW164239   0.582  12.993  13.604  3.0180  0.6414 -0.5573
15543SOL    HW264240   0.654  12.876  13.541 -1.4282 -2.1967 -0.8736
15544SOL     OW64241   5.501   2.293   6.153 -0.1773 -0.5885 -0.3531
15544SOL    HW164242   5.530   2.203   6.163 -0.5463 -0.6652  0.1044
15544SOL    HW264243   5.517   2.314   6.061  0.4464 -0.9270 -0.3233
15545SOL     OW64244  13.577   6.213  13.864  0.5042 -0.5405  0.0222
15545SOL    HW164245  13.590   6.131  13.815 -0.6239 -0.2186 -0.8594
15545SOL    HW264246  13.661   6.258  13.857  2.0622 -2.7199  2.7660
15546SOL     OW64247   7.229   3.629  11.005  0.6301 -0.3481 -0.0001
15546SOL    HW164248   7.213   3.723  11.008 -1.4302 -0.6493 -0.0776
15546SOL    HW264249   7.166   3.595  10.941 -0.3953 -2.0693  1.8120
15547SOL     OW64250   5.972   2.398  10.879 -0.4636  0.8036  0.3204
15547SOL    HW164251   5.891   2.388  10.830  0.3777  0.3213 -1.0123
15547SOL    HW264252   5.944   2.403  10.971 -2.0654  1.7782 -0.1865
15548SOL     OW64253   0.483  11.644   0.292  0.1056 -0.0024 -0.5043
15548SOL    HW164254   0.547  11.678   0.354  0.5608  1.3587 -1.6744
15548SOL    HW264255   0.412  11.709   0.291  0.1185  0.0216 -1.4061
15549SOL     OW64256   4.996   3.160  13.687 -0.2887 -0.5483  0.1462
15549SOL    HW164257   5.001   3.203  13.602  0.2231  1.8562  1.3022
15549SOL    HW264258   4.926   3.207  13.733  0.8152 -0.3888  1.7424
15550SOL     OW64259  14.062   2.525  13.881 -0.7306  0.1865  0.4229
15550SOL    HW164260  14.003   2.598  13.861 -3.0698 -1.9223 -1.0307
15550SOL    HW264261  14.047   2.509  13.975 -0.3467  1.4040  0.7101
15551SOL     OW64262   5.221   8.816   5.527  0.1875 -0.1080 -0.6111
15551SOL    HW164263   5.235   8.861   5.444  0.3468  0.4582 -0.2837
15551SOL    HW264264   5.300   8.835   5.578 -0.1922  0.0874 -0.0929
15552SOL     OW64265  10.841  13.912   5.685 -0.3408  0.1680  0.2668
15552SOL    HW164266  10.914  13.906   5.747 -1.1255  1.0894  1.3060
15552SOL    HW264267  10.763  13.896   5.737 -0.9374 -0.4046 -0.7631
15553SOL     OW64268   5.389   9.588   6.338 -0.0044  0.3230  0.8135
15553SOL    HW164269   5.399   9.681   6.357 -0.7278  0.6392 -0.3072
15553SOL    HW264270   5.389   9.582   6.243  2.8601 -1.1598  0.7949
15554SOL     OW64271   8.420   1.259  13.437  0.5497 -0.1450  0.9655
15554SOL    HW164272   8.452   1.298  13.355  0.9909  1.6375  1.9176
15554SOL    HW264273   8.328   1.241  13.421  0.5636  0.4437  0.1617
15555SOL     OW64274   7.829  12.505  13.621 -0.1559 -0.0276  0.3636
15555SOL    HW164275   7.887  12.479  13.550 -0.7536 -1.6837  0.4534
15555SOL    HW264276   7.873  12.580  13.661  0.4208  0.6511 -1.4386
15556SOL     OW64277   4.109   3.184   0.594  0.1058 -0.0333  0.1309
15556SOL    HW164278   4.154   3.099   0.601 -2.7163 -1.5545  1.3787
15556SOL    HW264279   4.143   3.235   0.667 -0.2984 -1.2362  1.1948
15557SOL     OW64280   8.810  10.597  10.368  0.1356  0.0754 -0.2970
15557SOL    HW164281   8.731  10.543  10.363 -0.0938  0.3693  0.0802
15557SOL    HW264282   8.863  10.553  10.434 -0.4698  0.8281  0.7240
15558SOL     OW64283   6.827   3.660   2.661 -0.0509 -0.5239  0.7016
15558SOL    HW164284   6.756   3.683   2.720 -2.0118 -3.2980 -0.3498
15558SOL    HW264285   6.818   3.720   2.587  0.1306  0.5662  1.5373
15559SOL     OW64286  12.664  12.889  12.077 -0.2572 -0.1426  0.4021
15559SOL    HW164287  12.684  12.798  12.099 -2.5906 -0.8443 -0.1124
15559SOL    HW264288  12.688  12.897  11.985 -0.4631 -0.3728  0.3274
15560SOL     OW64289   0.452   2.164   6.466 -0.0661 -0.9315 -0.6491
15560SOL    HW164290   0.489   2.224   6.402  0.2228  1.4236  1.5478
15560SOL    HW264291   0.528   2.130   6.514 -0.4196  0.9258  1.3613
15561SOL     OW64292   6.223   4.437   3.811  0.1027  0.3304  0.2242
15561SOL    HW164293   6.194   4.370   3.874 -0.8771  1.3765  0.9373
15561SOL    HW264294   6.181   4.413   3.729  1.1437 -0.8786  0.0136
15562SOL     OW64295   5.391   5.464   3.882 -0.6266  0.0551  0.4713
15562SOL    HW164296   5.395   5.449   3.788 -0.1517  0.6249  0.3912
15562SOL    HW264297   5.301   5.446   3.906 -0.2452 -2.3593  0.3085
15563SOL     OW64298   2.833   6.144  13.454 -0.3024  0.8346  0.0469
15563SOL    HW164299   2.906   6.115  13.399  0.8320 -0.6191  2.1368
15563SOL    HW264300   2.861   6.122  13.543 -2.6233  1.7690  1.0858
15564SOL     OW64301   1.849   2.932   8.100 -0.2913 -0.6266 -0.2462
15564SOL    HW164302   1.837   2.838   8.089 -0.9804 -0.5402 -0.2260
15564SOL    HW264303   1.823   2.969   8.016 -1.5687 -0.3187  0.2787
15565SOL     OW64304   2.872   5.116   9.034 -0.0751  0.6435 -0.5918
15565SOL    HW164305   2.873   5.028   8.996  0.1346  0.2480  0.2806
15565SOL    HW264306   2.780   5.141   9.037 -0.2073  0.1065 -0.0892
15566SOL     OW64307  13.186  11.852   5.840  0.1376  0.5929 -0.0673
15566SOL    HW164308  13.183  11.868   5.934 -2.3991 -0.7802  0.1772
15566SOL    HW264309  13.123  11.913   5.803 -0.9394 -0.7319 -0.5039
15567SOL     OW64310   8.879   6.300   3.151  0.0250  0.1257  0.2537
15567SOL    HW164311   8.945   6.235   3.126 -0.2275  0.5013 -1.5493
15567SOL    HW264312   8.921   6.385   3.139 -0.5362  0.3528 -0.1717
15568SOL     OW64313  10.386   4.306   4.521 -0.6430 -0.1328  0.4025
15568SOL    HW164314  10.417   4.250   4.450 -0.6633  2.8118 -2.1599
15568SOL    HW264315  10.292   4.288   4.527 -0.9853  0.7522 -1.5860
15569SOL     OW64316   0.560   8.443  11.344 -0.1562  0.6368  0.3951
15569SOL    HW164317   0.547   8.362  11.296 -2.3889 -0.3679  2.4793
15569SOL    HW264318   0.509   8.508  11.297 -1.5169 -0.1004  0.8025
15570SOL     OW64319  10.085   1.333  11.313  0.2004  0.2540  0.4409
15570SOL    HW164320  10.082   1.368  11.224  3.2330  1.0334  0.5573
15570SOL    HW264321  10.095   1.410  11.368  1.2369 -0.3923  1.1904
15571SOL     OW64322   2.216   4.670   3.554 -0.2464 -0.1564  0.1516
15571SOL    HW164323   2.172   4.745   3.513  0.5752  0.8786  1.1292
15571SOL    HW264324   2.284   4.646   3.492  0.0449  0.4630  0.2280
15572SOL     OW64325  11.336   5.909   4.331  0.0819  0.3306  0.2657
15572SOL    HW164326  11.353   5.925   4.424 -3.1246 -0.7919  1.1583
15572SOL    HW264327  11.297   5.990   4.299 -1.1144 -0.1078  0.5767
15573SOL     OW64328  10.988   8.385   5.217  0.4259 -0.6518 -0.2711
15573SOL    HW164329  11.045   8.444   5.168 -0.8049  0.3507 -0.5510
15573SOL    HW264330  11.046   8.342   5.280  1.5549 -0.0078 -0.8369
15574SOL     OW64331  12.078   4.412  10.451  0.9664  0.6773  0.2339
15574SOL    HW164332  12.009   4.459  10.406 -0.2183  0.4382  1.7057
15574SOL    HW264333  12.063   4.431  10.544  1.5614 -1.0884  0.7393
15575SOL     OW64334   0.192   6.509   4.631 -0.0999 -0.0716 -0.0542
15575SOL    HW164335   0.144   6.574   4.580  0.5971 -0.3305 -1.0777
15575SOL    HW264336   0.143   6.501   4.713 -0.3195  1.5574 -0.0052
15576SOL     OW64337  10.983   3.721   8.736 -0.1225 -0.7121 -0.1811
15576SOL    HW164338  10.938   3.726   8.652 -0.5251  0.4225  0.0788
15576SOL    HW264339  10.926   3.668   8.791 -1.7148  1.4762  0.4373
15577SOL     OW64340   0.573   7.760  12.815  0.3103 -0.9583 -0.5673
15577SOL    HW164341   0.606   7.745  12.904 -1.5765  1.1156  0.5842
15577SOL    HW264342   0.511   7.689  12.801  0.6336 -1.3096 -0.2649
15578SOL     OW64343  11.246   4.846   6.759 -0.1692  0.5772  0.2374
15578SOL    HW164344  11.288   4.927   6.731 -0.4140  0.5052 -0.3359
15578SOL    HW264345  11.173   4.834   6.699  0.6158 -0.7379 -0.5102
15579SOL     OW64346   8.038  12.038   6.256  0.1398 -0.6882 -0.0529
15579SOL    HW164347   8.016  12.060   6.166  0.1345 -2.1035 -0.4202
15579SOL    HW264348   8.031  11.943   6.260 -0.8022 -0.5884  1.7031
15580SOL     OW64349  10.752   8.901   4.123  0.0760  0.1138 -0.0299
15580SOL    HW164350  10.671   8.923   4.078 -0.0911 -0.9156 -0.2660
15580SOL    HW264351  10.816   8.890   4.053 -0.4302 -2.5437 -0.1991
15581SOL     OW64352  11.622   5.246  10.082 -0.2475 -0.5117 -0.6425
15581SOL    HW164353  11.591   5.155  10.092  0.0646 -0.5156  0.4584
15581SOL    HW264354  11.711   5.245  10.118 -0.5591  0.4103  0.1825
15582SOL     OW64355  12.828  13.678  10.269 -0.0966  0.5589  0.8380
15582SOL    HW164356  12.820  13.741  10.198 -0.5036  0.7152  1.0202
15582SOL    HW264357  12.738  13.664  10.299  0.1048  0.7660  1.5553
15583SOL     OW64358  10.993  11.126   2.538  0.5933  0.1840  0.5542
15583SOL    HW164359  11.075  11.107   2.492  1.4020  0.6976  1.7350
15583SOL    HW264360  11.011  11.206   2.587 -0.6875  0.4082  0.6979
15584SOL     OW64361   1.280   3.818   4.386  0.0398  0.1444 -0.0921
15584SOL    HW164362   1.338   3.833   4.312  1.0146  1.0330  0.8114
15584SOL    HW264363   1.209   3.764   4.351  1.2836 -0.7745 -1.2938
15585SOL     OW64364   4.294   3.871  12.455 -0.1306 -0.5010  0.3252
15585SOL    HW164365   4.271   3.843  12.543 -1.5819  1.1462  0.5134
15585SOL    HW264366   4.311   3.965  12.463 -0.3057 -0.3212 -1.1425
15586SOL     OW64367   1.271   9.795   6.500  0.0450  0.3378  0.2913
15586SOL    HW164368   1.325   9.716   6.502 -0.0675  0.2692  0.9160
15586SOL    HW264369   1.313   9.855   6.562  0.0941  0.7488 -0.1323
15587SOL     OW64370   4.079   8.087  12.937  0.0937 -0.3566  0.3249
15587SOL    HW164371   4.163   8.053  12.969 -0.0567  0.1061  1.2437
15587SOL    HW264372   4.027   8.100  13.016 -0.7552 -0.3858 -0.2192
15588SOL     OW64373   0.724   4.832  12.705  0.2031  0.5761  0.0991
15588SOL    HW164374   0.820   4.830  12.706  0.2177  1.3579  0.6769
15588SOL    HW264375   0.700   4.896  12.772 -0.6847  1.5311 -1.0852
15589SOL     OW64376   6.508   2.631   5.074  0.0367  0.1485  0.0155
15589SOL    HW164377   6.573   2.566   5.047 -1.4213 -0.7151 -1.6634
15589SOL    HW264378   6.432   2.579   5.102 -0.2255  1.1356  1.2218
15590SOL     OW64379  13.687   5.389   0.784 -0.5243 -0.1873 -0.0305
15590SOL    HW164380  13.593   5.394   0.796 -0.5647  1.3864 -0.7307
15590SOL    HW264381  13.719   5.346   0.864 -1.7340  0.2671  0.7326
15591SOL     OW64382   2.107   8.114   6.468  0.1492 -0.2158  0.0342
15591SOL    HW164383   2.144   8.152   6.388 -0.5527 -1.2293 -0.7994
15591SOL    HW264384   2.182   8.076   6.513  0.3029 -1.5786 -1.2589
15592SOL     OW64385  10.922   4.224   8.373 -0.6939  0.5602  0.4341
15592SOL    HW164386  10.828   4.210   8.387 -0.4398 -0.6170  1.1195
15592SOL    HW264387  10.958   4.237   8.461 -0.3871  2.3001  0.0758
15593SOL     OW64388   6.579   0.114   2.041 -0.1097 -0.2559  0.0311
15593SOL    HW164389   6.507   0.070   2.086  1.6470 -1.1679  2.1756
15593SOL    HW264390   6.655   0.100   2.099  1.4005  2.2118 -1.2036
15594SOL     OW64391  10.062   7.920   4.742  0.0202  0.3750 -0.4060
15594SOL    HW164392  10.025   7.929   4.655  1.1085 -1.7186 -1.1445
15594SOL    HW264393  10.156   7.908   4.728  0.2468  0.1791  1.0596
15595SOL     OW64394  12.514  10.413  12.331 -0.1488  0.1650 -0.3231
15595SOL    HW164395  12.547  10.366  12.407 -1.2135 -0.5611 -0.2836
15595SOL    HW264396  12.578  10.395  12.262  0.3949  0.1551  0.1798
15596SOL     OW64397   3.818   6.226  12.032  0.0547 -0.3093  0.4711
15596SOL    HW164398   3.865   6.158  12.079  2.3487  1.1846  0.5116
15596SOL    HW264399   3.869   6.305  12.047 -1.2703  0.9968 -1.3907
15597SOL     OW64400   2.190   1.949   8.712 -0.0296  0.2801 -0.3876
15597SOL    HW164401   2.235   2.033   8.715  2.6551 -1.0178 -1.2178
15597SOL    HW264402   2.162   1.933   8.802  0.3426  1.5779 -0.0228
15598SOL     OW64403   8.417   4.219  13.069  0.0588  0.3096  0.2199
15598SOL    HW164404   8.355   4.287  13.092 -1.5782 -0.7794 -0.7774
15598SOL    HW264405   8.473   4.258  13.001 -1.5717  0.3618 -1.1569
15599SOL     OW64406   0.067  11.095   1.809 -0.1898 -0.3618  0.4209
15599SOL    HW164407   0.008  11.039   1.759  1.0113  0.9010 -2.7000
15599SOL    HW264408   0.054  11.069   1.900 -2.7220 -2.7088 -0.4711
15600SOL     OW64409   5.445  13.526   2.890 -0.4428 -0.4546 -0.4266
15600SOL    HW164410   5.537  13.539   2.867  1.4856 -1.4255  5.1277
15600SOL    HW264411   5.427  13.435   2.866  1.4877 -1.5214  1.7405
15601SOL     OW64412   5.756  10.889   6.742 -0.2938 -0.2692 -0.4235
15601SOL    HW164413   5.670  10.868   6.777 -0.6043 -0.8810 -1.5167
15601SOL    HW264414   5.768  10.828   6.669  0.8362  0.1703 -0.6241
15602SOL     OW64415   6.504   7.846   2.485  0.3702 -0.7488 -0.4180
15602SOL    HW164416   6.458   7.929   2.473  0.0005 -0.5097  2.0683
15602SOL    HW264417   6.447   7.780   2.445  0.1913  0.0492 -1.5300
15603SOL     OW64418   9.414  10.553   5.345  0.6791  0.0756 -0.4405
15603SOL    HW164419   9.377  10.626   5.295 -1.2243 -1.0282 -0.7088
15603SOL    HW264420   9.430  10.590   5.432 -1.0325  0.6384 -0.3239
15604SOL     OW64421  10.835   2.547   8.324 -0.0469  0.3144  0.0541
15604SOL    HW164422  10.775   2.510   8.389  2.5977 -2.3082  1.2563
15604SOL    HW264423  10.912   2.574   8.375  1.0140  0.8123 -1.7019
15605SOL     OW64424  11.997   4.691  12.497  0.4220  0.5856  0.8273
15605SOL    HW164425  12.031   4.713  12.584 -2.1668  1.0222  1.7906
15605SOL    HW264426  11.968   4.600  12.505 -0.1563  0.7427  0.5385
15606SOL     OW64427   1.822   2.424   5.204 -1.0062  0.6286  0.2093
15606SOL    HW164428   1.737   2.468   5.206 -0.7492  1.1142  0.5015
15606SOL    HW264429   1.856   2.433   5.293 -0.5078  0.7037  0.0140
15607SOL     OW64430   6.521   5.651   2.123 -0.7284  0.1484 -0.1977
15607SOL    HW164431   6.614   5.660   2.144 -0.4301 -0.8658 -1.0330
15607SOL    HW264432   6.507   5.711   2.049 -0.7435  0.2853 -0.0855
15608SOL     OW64433   2.381  10.758   7.268 -0.2956 -0.8929  0.7774
15608SOL    HW164434   2.317  10.795   7.329 -0.4583 -0.9725  0.6558
15608SOL    HW264435   2.328  10.717   7.199 -0.1416  1.0496 -0.5765
15609SOL     OW64436   4.364   9.102  13.465 -0.0462  0.2992  0.4148
15609SOL    HW164437   4.388   9.154  13.542  1.9207  0.8428 -0.4876
15609SOL    HW264438   4.309   9.161  13.413 -3.6518 -0.9396  2.4856
15610SOL     OW64439  10.817  10.921   6.008  0.5363  0.6731  0.5124
15610SOL    HW164440  10.749  10.955   6.066  1.0383  1.5250  0.6160
15610SOL    HW264441  10.826  10.987   5.939  0.2078 -0.1489 -0.3457
15611SOL     OW64442   0.824  10.245  11.945  0.0548  0.1168  0.4638
15611SOL    HW164443   0.767  10.273  11.874 -0.9807  0.6744  1.4730
15611SOL    HW264444   0.849  10.155  11.922 -0.2704  0.2866 -0.5817
15612SOL     OW64445   4.677   6.683   4.336 -0.3830 -0.3580  0.2810
15612SOL    HW164446   4.590   6.685   4.297  0.0544  0.6884 -0.6975
15612SOL    HW264447   4.732   6.732   4.275  1.0623 -1.6433  0.4908
15613SOL     OW64448   3.869   5.331  10.322 -0.2588 -0.2221  0.4664
15613SOL    HW164449   3.951   5.369  10.352  0.2892  1.1624 -2.3987
15613SOL    HW264450   3.801   5.393  10.348 -0.1704 -0.4494  1.2453
15614SOL     OW64451  13.998   1.554   0.612 -0.1647 -0.3823 -0.4333
15614SOL    HW164452  14.078   1.585   0.655 -0.6762 -0.2436  0.4476
15614SOL    HW264453  14.003   1.590   0.523  0.1650  0.6580 -0.0138
15615SOL     OW64454  14.078   4.933   0.397  0.4912 -0.0046 -0.1372
15615SOL    HW164455  14.017   4.907   0.328  0.7413  0.2397 -0.4526
15615SOL    HW264456  14.041   5.014   0.432  0.4687 -0.0238 -0.1179
15616SOL     OW64457   3.753   6.755   3.033 -0.2575 -0.6284 -0.2224
15616SOL    HW164458   3.841   6.767   3.068 -1.0412 -0.1581  1.7552
15616SOL    HW264459   3.766   6.712   2.949  1.8369 -0.6947  0.0773
15617SOL     OW64460  13.253   6.135   4.760 -0.1526 -0.2481  0.4454
15617SOL    HW164461  13.185   6.153   4.825  1.1135  1.3890  1.3758
15617SOL    HW264462  13.320   6.086   4.808  0.3105  0.0358  0.0923
15618SOL     OW64463   1.675   6.190   6.353 -0.0524  0.2238 -0.1674
15618SOL    HW164464   1.698   6.165   6.443  2.3348  2.1747 -0.1100
15618SOL    HW264465   1.694   6.284   6.350 -1.6304  0.5420 -2.3092
15619SOL     OW64466  12.959   1.567   4.358 -0.3007 -0.1972  0.1546
15619SOL    HW164467  12.986   1.476   4.342  2.2455  0.1081  2.0905
15619SOL    HW264468  13.030   1.604   4.411 -0.9072  3.1639 -1.1551
15620SOL     OW64469   1.868   7.988   2.653  0.4577  0.5659 -0.2171
15620SOL    HW164470   1.873   8.046   2.577  0.7442  1.3414  0.3770
15620SOL    HW264471   1.863   8.048   2.728 -1.0574 -0.1786  0.3115
15621SOL     OW64472   5.879   1.130   6.198 -0.0784  0.2036  0.1662
15621SOL    HW164473   5.901   1.218   6.166 -0.2451 -0.3165 -1.4701
15621SOL    HW264474   5.961   1.095   6.231  0.5416  0.1036 -1.3909
15622SOL     OW64475  11.834  12.008   6.643 -0.0197 -0.1077 -0.1963
15622SOL    HW164476  11.835  12.101   6.618 -2.2301  0.4956  1.6295
15622SOL    HW264477  11.890  12.004   6.721 -1.9472  0.2806  1.2798
15623SOL     OW64478   8.825   9.234  12.541  0.0814  0.0642 -0.1747
15623SOL    HW164479   8.887   9.306  12.553 -0.0213  0.4864 -1.8828
15623SOL    HW264480   8.872   9.170  12.487 -0.0700 -0.8448  0.7375
15624SOL     OW64481  11.297  12.326  10.924  0.3649 -0.5125 -0.2073
15624SOL    HW164482  11.335  12.376  10.851  0.1990  0.5778  0.4270
15624SOL    HW264483  11.318  12.378  11.001 -1.8153 -0.2335  0.2447
15625SOL     OW64484   2.145  10.909  12.103 -0.1162 -0.1574  0.2258
15625SOL    HW164485   2.086  10.930  12.176  0.6657 -0.6042  1.0002
15625SOL    HW264486   2.104  10.834  12.060  1.0882 -2.1115  2.2725
15626SOL     OW64487  13.295   2.950   4.309 -0.2040  0.1660 -0.3406
15626SOL    HW164488  13.369   2.972   4.365  0.8581  1.9842 -2.2950
15626SOL    HW264489  13.246   3.033   4.301 -1.6393 -0.6418 -0.2440
15627SOL     OW64490   2.281  10.601  13.335  0.2226 -0.2801  0.9346
15627SOL    HW164491   2.218  10.656  13.288  2.3554  1.6543  0.1466
15627SOL    HW264492   2.277  10.516  13.291 -0.7741  0.2534 -0.0379
15628SOL     OW64493  11.910   4.607  10.310 -0.1625  0.1678  0.5957
15628SOL    HW164494  11.852   4.669  10.267 -1.3563 -0.2722  1.5138
15628SOL    HW264495  11.979   4.589  10.245 -1.2736  0.3855 -0.6830
15629SOL     OW64496  10.121   5.646   8.358  0.4477 -0.1062 -0.9647
15629SOL    HW164497  10.140   5.553   8.370  0.4809 -0.2470 -2.0257
15629SOL    HW264498  10.181   5.674   8.290 -0.1045  0.5029 -1.2050
15630SOL     OW64499  12.873   3.163   1.623 -0.2572 -0.4628 -0.1500
15630SOL    HW164500  12.850   3.234   1.683 -0.1310 -0.7714  0.2688
15630SOL    HW264501  12.799   3.158   1.562 -0.6812 -0.5696  0.3704
15631SOL     OW64502   2.548   8.882   6.508  0.3378 -0.1814 -0.0779
15631SOL    HW164503   2.588   8.814   6.454  0.1818  0.3102 -0.8152
15631SOL    HW264504   2.579   8.863   6.597  0.6408 -0.9567 -0.3387
15632SOL     OW64505  10.264  13.208   9.894 -0.0393 -0.0300 -0.4630
15632SOL    HW164506  10.350  13.179   9.864  0.2866  2.8934 -2.9768
15632SOL    HW264507  10.282  13.266   9.968 -0.0764 -1.1254  0.4106
15633SOL     OW64508   6.137   0.011   7.898  0.1728  0.0590 -0.0404
15633SOL    HW164509   6.058   0.045   7.856 -0.2882 -1.3381 -0.3540
15633SOL    HW264510   6.105  -0.038   7.973  0.7381 -0.5946 -0.2205
15634SOL     OW64511   9.145  10.821   7.573 -0.3610 -0.5124 -0.0487
15634SOL    HW164512   9.077  10.869   7.527  0.1057 -0.9254 -1.2046
15634SOL    HW264513   9.122  10.729   7.561 -1.4570 -0.6325  2.4666
15635SOL     OW64514   6.323   2.171   9.464  0.2377  0.5586 -0.3750
15635SOL    HW164515   6.253   2.156   9.400  0.9054  1.0796 -1.2469
15635SOL    HW264516   6.386   2.227   9.419  1.6937 -0.6519  0.0535
15636SOL     OW64517   3.211   4.953  13.417 -0.4389 -0.0238  0.2449
15636SOL    HW164518   3.262   4.978  13.493  0.6491  1.4281 -0.9288
15636SOL    HW264519   3.195   4.859  13.429  0.7947 -0.0857  1.6137
15637SOL     OW64520   5.839   1.992   2.562 -0.4574  0.3841  0.1122
15637SOL    HW164521   5.921   1.942   2.556 -0.8702 -0.4344  1.0933
15637SOL    HW264522   5.791   1.968   2.483 -0.3393 -0.2159  0.2186
15638SOL     OW64523  11.137  14.023   3.632  0.1053  0.1674  0.4034
15638SOL    HW164524  11.094  14.061   3.556  2.3138  0.9371 -0.5396
15638SOL    HW264525  11.225  14.059   3.630  0.8538 -1.4101  2.1650
15639SOL     OW64526  10.581   0.871   3.287  0.1546 -0.3868 -0.0506
15639SOL    HW164527  10.623   0.898   3.206 -0.9718 -3.4468 -1.8294
15639SOL    HW264528  10.553   0.953   3.329  1.9200  1.3466 -2.0556
15640SOL     OW64529   6.972  10.294   6.800 -0.1223 -0.3756 -0.1260
15640SOL    HW164530   6.880  10.308   6.823  0.2431  2.0020  0.1501
15640SOL    HW264531   6.973  10.288   6.705 -0.6740 -1.5288 -0.0670
15641SOL     OW64532   4.047   1.899   2.657 -0.3601 -0.3480 -0.0182
15641SOL    HW164533   4.040   1.934   2.746 -0.3920  0.2117 -0.2384
15641SOL    HW264534   3.970   1.934   2.611  0.2463  0.2889 -0.5715
15642SOL     OW64535   5.387   9.332   6.141  0.8382 -0.3855 -0.2334
15642SOL    HW164536   5.444   9.281   6.198  0.4432 -0.0074  0.5141
15642SOL    HW264537   5.433   9.415   6.128 -0.2321  0.5706  1.7014
15643SOL     OW64538   3.735  11.578   4.856 -0.1748  0.8244  0.5407
15643SOL    HW164539   3.793  11.644   4.893 -0.9770  1.5804  0.4847
15643SOL    HW264540   3.780  11.547   4.778  0.3831  1.0268  0.7770
15644SOL     OW64541  12.891   9.574   1.182 -0.5899 -0.6955 -0.2128
15644SOL    HW164542  12.801   9.565   1.211 -0.6893  0.6520 -0.0446
15644SOL    HW264543  12.935   9.496   1.216 -1.3429 -0.5861  1.0720
15645SOL     OW64544  12.596   2.509   5.927  0.0833  0.0571 -0.2614
15645SOL    HW164545  12.616   2.556   6.008 -0.4037  0.6529 -0.4808
15645SOL    HW264546  12.512   2.466   5.944 -0.3533  0.7326 -0.6758
15646SOL     OW64547   3.245   6.563   2.665  0.3564 -0.0225  0.9600
15646SOL    HW164548   3.258   6.586   2.757 -0.9229  0.3309  1.0726
15646SOL    HW264549   3.152   6.577   2.650  1.0643  3.2280 -1.3288
15647SOL     OW64550   6.537   9.941   1.041  0.4000 -0.1414 -0.3203
15647SOL    HW164551   6.575   9.970   1.124 -0.1833 -0.3545  0.0239
15647SOL    HW264552   6.608   9.894   0.998  0.3818 -1.0353  0.5701
15648SOL     OW64553   5.703  12.628   4.216  0.3484  0.1607  0.1072
15648SOL    HW164554   5.691  12.708   4.166 -2.7870  1.5041  2.6504
15648SOL    HW264555   5.787  12.639   4.260  0.4777  1.5363 -0.4371
15649SOL     OW64556  13.519   8.314   3.067 -0.5057  0.2292  0.4072
15649SOL    HW164557  13.576   8.362   3.127  0.2215 -0.3189  0.1719
15649SOL    HW264558  13.495   8.377   3.000 -0.3457  0.5250  0.6264
15650SOL     OW64559   0.958   4.283  10.281 -0.2106 -0.0209  0.3978
15650SOL    HW164560   0.891   4.297  10.215  0.6882 -1.0363 -0.7841
15650SOL    HW264561   0.909   4.263  10.361 -1.3230 -0.6547 -0.4081
15651SOL     OW64562  12.908   7.026   2.541  0.1528 -0.3328  0.2708
15651SOL    HW164563  12.898   7.007   2.448 -0.4864  0.6563  0.1177
15651SOL    HW264564  13.001   7.046   2.553  0.1822 -0.1717 -0.2200
15652SOL     OW64565   5.481  12.645   6.769  0.2731  0.2751  0.0105
15652SOL    HW164566   5.504  12.720   6.713 -1.8982  2.0601  1.3394
15652SOL    HW264567   5.465  12.573   6.707 -0.6859  1.7923 -1.6178
15653SOL     OW64568  13.191  10.103   8.373  0.0527 -0.2384  0.1736
15653SOL    HW164569  13.241  10.046   8.315  0.6612  1.6667 -1.2972
15653SOL    HW264570  13.182  10.185   8.324 -2.6508  0.2417  1.2875
15654SOL     OW64571   3.830   3.260  11.868  0.3855  0.0544 -0.3293
15654SOL    HW164572   3.899   3.252  11.802  1.0118  2.1503  0.0027
15654SOL    HW264573   3.774   3.183  11.853  2.3284 -1.2938 -1.1141
15655SOL     OW64574   8.950   4.130   4.518  0.3298 -1.0814  0.1306
15655SOL    HW164575   9.004   4.103   4.593 -0.7109 -0.8189  1.0079
15655SOL    HW264576   8.896   4.054   4.500 -0.5495 -0.6042  0.7002
15656SOL     OW64577   6.839  12.990   1.217  0.0317 -0.0554  0.1819
15656SOL    HW164578   6.926  12.963   1.246  0.9539  0.7019 -1.7038
15656SOL    HW264579   6.834  13.083   1.238 -0.1296  0.0104 -0.1399
15657SOL     OW64580  11.489   6.273   2.109 -0.1755  0.3480 -0.0033
15657SOL    HW164581  11.477   6.182   2.134 -0.4281  0.6306  0.9346
15657SOL    HW264582  11.434   6.323   2.169  0.6530  1.1817  0.0996
15658SOL     OW64583   6.222   8.410  13.225  0.2501 -0.0354  0.3852
15658SOL    HW164584   6.316   8.429  13.220  0.5378 -1.0227  1.4915
15658SOL    HW264585   6.211   8.329  13.175  0.1224 -0.2950  0.8214
15659SOL     OW64586   2.879  11.866  10.410 -0.3448 -0.9581  0.0012
15659SOL    HW164587   2.936  11.917  10.468  0.4651 -1.3561 -0.4284
15659SOL    HW264588   2.841  11.799  10.467 -1.0129 -0.2092  0.4573
15660SOL     OW64589   4.569   0.216   0.594  0.1877  0.4514  0.4946
15660SOL    HW164590   4.491   0.181   0.550 -1.2190  2.1682  1.4867
15660SOL    HW264591   4.564   0.310   0.579  2.8252  0.5163 -0.5178
15661SOL     OW64592  11.385   7.636  13.757 -0.2432 -0.0895 -0.3734
15661SOL    HW164593  11.440   7.558  13.767  0.2060  0.4477  1.9074
15661SOL    HW264594  11.297   7.601  13.743 -0.0412 -1.0318  0.5253
15662SOL     OW64595  13.964   8.430   9.757  0.2772  0.6268  0.0989
15662SOL    HW164596  13.935   8.511   9.716  0.2195  0.0888 -0.9555
15662SOL    HW264597  13.934   8.437   9.847 -1.6394  0.8396 -0.5222
15663SOL     OW64598   1.510  10.246   9.424 -0.5677 -0.3510  0.6904
15663SOL    HW164599   1.433  10.233   9.479 -1.0531  1.1067  0.4142
15663SOL    HW264600   1.570  10.298   9.478 -0.7663  0.5084  0.1150
15664SOL     OW64601   3.589   2.551   4.558 -0.1688 -0.2601 -0.2432
15664SOL    HW164602   3.512   2.497   4.575 -0.6528 -0.5882 -3.0040
15664SOL    HW264603   3.556   2.641   4.559  0.2131 -0.0765  2.1873
15665SOL     OW64604  13.990   8.203   2.441  0.5050 -0.1973  0.0092
15665SOL    HW164605  14.042   8.171   2.514  0.3609 -0.0175  0.1940
15665SOL    HW264606  14.024   8.291   2.424  0.8941 -0.4416 -0.4903
15666SOL     OW64607   9.513  10.398   0.070 -0.9819 -0.5186  0.3743
15666SOL    HW164608   9.553  10.476   0.108  0.6926 -0.3859 -1.4549
15666SOL    HW264609   9.561  10.325   0.109  0.5196 -0.3945 -1.1108
15667SOL     OW64610   1.002  12.349  10.420  0.1496 -0.0078  0.1836
15667SOL    HW164611   0.991  12.444  10.421  0.9918  0.0969  0.2378
15667SOL    HW264612   1.076  12.333  10.477 -0.6178 -0.8009  0.9779
15668SOL     OW64613   0.950   2.319  10.544 -0.0635  0.1766 -0.0806
15668SOL    HW164614   0.915   2.405  10.524  1.3903  1.0418  0.8580
15668SOL    HW264615   0.952   2.316  10.640 -0.0964 -0.8975 -0.1027
15669SOL     OW64616   7.319  11.390   0.802  0.6867  0.2950 -0.1150
15669SOL    HW164617   7.295  11.336   0.727  0.9332  1.4541 -1.0575
15669SOL    HW264618   7.292  11.338   0.878 -1.3478 -0.0797 -1.0241
15670SOL     OW64619  12.751   7.805   5.627 -0.2635  0.0558 -0.2285
15670SOL    HW164620  12.814   7.877   5.619 -1.5987  1.3733  0.6021
15670SOL    HW264621  12.719   7.811   5.717 -3.1640  0.8729 -1.1957
15671SOL     OW64622   4.572  10.100   3.315 -0.8929 -0.2383  0.1897
15671SOL    HW164623   4.519  10.108   3.236  0.1167 -0.1934 -0.5163
15671SOL    HW264624   4.550  10.014   3.351 -0.1079 -1.0338 -1.1290
15672SOL     OW64625   7.584   4.799   0.195  0.4664  0.8894  0.3000
15672SOL    HW164626   7.531   4.813   0.116  1.7791  1.6828 -0.4967
15672SOL    HW264627   7.521   4.796   0.267 -0.9821 -1.9222 -0.9275
15673SOL     OW64628   7.689   2.151   7.302  0.7253 -0.2015  0.0687
15673SOL    HW164629   7.777   2.148   7.341  0.9083  0.0784 -0.3065
15673SOL    HW264630   7.701   2.118   7.213  0.2313 -1.2432  0.3781
15674SOL     OW64631  13.010   0.356   4.179 -0.3054  0.6046  0.5327
15674SOL    HW164632  12.988   0.384   4.268 -2.2370  1.5019 -0.1945
15674SOL    HW264633  12.933   0.309   4.148  0.4301  0.0992 -0.6160
15675SOL     OW64634  11.204   0.883  12.363 -0.1146  0.2658  0.1992
15675SOL    HW164635  11.208   0.887  12.268  0.3821  0.0473  0.2083
15675SOL    HW264636  11.124   0.834  12.383 -1.5768  2.4025 -0.0581
15676SOL     OW64637  11.785  12.063   7.838  0.1356  0.2101  0.0834
15676SOL    HW164638  11.830  11.979   7.846  0.7380  0.5706  0.7033
15676SOL    HW264639  11.753  12.081   7.927  2.0917  1.7297  0.5570
15677SOL     OW64640   4.766   4.358   4.135 -0.1554 -0.2619 -0.7037
15677SOL    HW164641   4.730   4.323   4.217  0.5201 -0.7191 -0.5911
15677SOL    HW264642   4.816   4.285   4.098  0.1881  0.1893 -1.1324
15678SOL     OW64643   9.080   6.207   6.605 -0.6193  0.0195 -0.2028
15678SOL    HW164644   9.051   6.298   6.605 -0.3257  0.1248  0.4708
15678SOL    HW264645   9.078   6.181   6.698  0.9701 -0.0908 -0.1566
15679SOL     OW64646   1.913  12.762   5.966 -0.0280  0.0823 -0.1102
15679SOL    HW164647   1.913  12.838   6.024  0.9714  0.4470 -0.5692
15679SOL    HW264648   1.954  12.793   5.885 -2.2705 -0.1323 -1.4203
15680SOL     OW64649   0.599   3.529   7.406 -0.4584  0.2601  0.1543
15680SOL    HW164650   0.651   3.533   7.487 -2.0048  0.3722  1.1799
15680SOL    HW264651   0.520   3.481   7.431  0.8664 -3.7283 -2.3813
15681SOL     OW64652   5.848   5.661   4.229 -0.3648 -0.0276 -0.6921
15681SOL    HW164653   5.871   5.700   4.145  1.4094 -1.0040 -0.7052
15681SOL    HW264654   5.771   5.607   4.211  0.0522 -0.2951 -1.7076
15682SOL     OW64655   5.099   8.213   3.386 -0.3290 -0.1125 -0.3139
15682SOL    HW164656   5.105   8.296   3.338 -0.7740  0.9946  1.4254
15682SOL    HW264657   5.187   8.176   3.380 -0.1614  0.4039 -1.2422
15683SOL     OW64658   6.628   1.714  12.164  0.0960 -0.7216 -1.2078
15683SOL    HW164659   6.690   1.776  12.125  0.6867 -1.7714 -1.9939
15683SOL    HW264660   6.571   1.689  12.091 -1.8455  0.8470 -0.3377
15684SOL     OW64661   1.505  13.341   1.577 -0.3584  0.2986 -0.3771
15684SOL    HW164662   1.510  13.418   1.633 -0.9797  0.0243  0.0717
15684SOL    HW264663   1.543  13.369   1.494 -1.0223  1.2318 -0.3775
15685SOL     OW64664   9.970   1.364   2.605  0.4084 -0.5723 -0.2389
15685SOL    HW164665  10.057   1.358   2.566  1.0415 -1.2582  1.1841
15685SOL    HW264666   9.976   1.309   2.684 -0.1473  2.3114  1.9695
15686SOL     OW64667   6.930   9.364  12.497  0.0070 -0.4628 -0.0310
15686SOL    HW164668   7.010   9.323  12.463  0.6712 -0.3348  1.3179
15686SOL    HW264669   6.960   9.447  12.534 -1.0494  0.4418 -1.1008
15687SOL     OW64670   5.036   0.412   9.487 -0.4042 -0.1150 -0.1163
15687SOL    HW164671   5.127   0.423   9.513  0.1170 -0.9402 -1.4598
15687SOL    HW264672   5.012   0.496   9.447 -0.0090 -0.1275 -0.3859
15688SOL     OW64673  12.407   7.201   1.485 -0.2323 -0.3325  0.1221
15688SOL    HW164674  12.487   7.180   1.438  0.7640  0.9665  1.1463
15688SOL    HW264675  12.339   7.150   1.441  0.9537 -0.6026 -1.4877
15689SOL     OW64676   1.644   0.599   5.251 -0.9328 -0.4007 -0.1242
15689SOL    HW164677   1.683   0.576   5.335 -0.5436  0.5778 -0.0234
15689SOL    HW264678   1.610   0.688   5.264  3.7862  2.1018 -2.4374
15690SOL     OW64679  13.096   7.719   0.000  0.3954 -0.5037 -0.2826
15690SOL    HW164680  13.114   7.801   0.045  0.8291  0.2386 -1.7644
15690SOL    HW264681  13.172   7.664   0.020 -0.4929 -1.0708  1.7916
15691SOL     OW64682  10.994   1.651   2.109 -0.3891  0.4089 -0.1981
15691SOL    HW164683  11.075   1.690   2.075 -0.4495  0.3938 -0.3571
15691SOL    HW264684  11.022   1.568   2.148 -0.5573 -0.3693 -1.6826
15692SOL     OW64685   9.818  13.271   5.948  0.0403 -0.6611 -0.1964
15692SOL    HW164686   9.845  13.299   6.035  0.0688 -3.2886  0.7248
15692SOL    HW264687   9.899  13.242   5.905 -0.0341  0.2182 -0.9597
15693SOL     OW64688  13.483   8.218   5.109 -0.4879  0.4771 -0.0923
15693SOL    HW164689  13.444   8.142   5.067  0.9871 -0.0714 -0.5390
15693SOL    HW264690  13.494   8.193   5.200  1.7475 -0.6553 -0.5932
15694SOL     OW64691   5.568   0.813   8.743 -0.1165  0.3586  0.0307
15694SOL    HW164692   5.476   0.841   8.751 -0.0880  0.3002  0.6470
15694SOL    HW264693   5.608   0.839   8.826  0.1714 -0.5373  0.1807
15695SOL     OW64694   0.316   2.616   1.062  0.0269 -0.1681  0.3577
15695SOL    HW164695   0.393   2.666   1.034  0.9573 -1.1497  1.0812
15695SOL    HW264696   0.245   2.679   1.060  1.1559  1.1974  1.2204
15696SOL     OW64697  13.528   9.798   5.072 -0.3743 -0.5406 -0.1504
15696SOL    HW164698  13.459   9.762   5.128  0.1555  0.8306  1.4756
15696SOL    HW264699  13.482   9.861   5.016 -0.5944 -0.3523  0.2375
15697SOL     OW64700   4.189   4.268  12.925 -0.7419  0.4185 -0.0179
15697SOL    HW164701   4.165   4.222  12.845 -0.9539  1.4543 -0.5782
15697SOL    HW264702   4.164   4.209  12.996  0.1008 -0.8206 -0.7188
15698SOL     OW64703   6.489   0.157   1.058 -0.0117  0.3540  0.4604
15698SOL    HW164704   6.445   0.156   0.973 -2.6062  0.4824  1.7096
15698SOL    HW264705   6.443   0.090   1.109  1.6659  0.0920  1.6959
15699SOL     OW64706  13.915   1.632   6.122 -0.6221 -0.0239 -0.1388
15699SOL    HW164707  13.956   1.584   6.050 -0.3585  0.2231 -0.1542
15699SOL    HW264708  13.831   1.662   6.086 -0.2742  0.5236 -0.5067
15700SOL     OW64709   3.618   9.495  12.171  0.1557  0.4307  0.0748
15700SOL    HW164710   3.621   9.530  12.260 -1.0663  1.5384 -0.2966
15700SOL    HW264711   3.693   9.534  12.127  0.1615  0.7086  0.3319
15701SOL     OW64712   4.462   2.918   8.448  0.1848  0.0810 -0.1120
15701SOL    HW164713   4.503   2.835   8.475  1.7950  0.8985  0.0929
15701SOL    HW264714   4.472   2.976   8.524 -0.4249  0.6393 -0.4499
15702SOL     OW64715  11.282   2.486   8.718 -0.2556 -0.1213  0.5783
15702SOL    HW164716  11.207   2.430   8.697 -0.0313 -0.3704  0.4537
15702SOL    HW264717  11.301   2.467   8.810 -0.6231  0.2647  0.7384
15703SOL     OW64718   0.385   2.457   4.455  0.1017 -0.8236 -0.1467
15703SOL    HW164719   0.367   2.427   4.544  1.8908 -2.0271 -0.1368
15703SOL    HW264720   0.441   2.534   4.467 -2.3422  1.0628 -0.2255
15704SOL     OW64721   8.786   0.350  11.079 -0.4117 -0.3513  0.2517
15704SOL    HW164722   8.740   0.431  11.103  1.0783  0.9323 -1.0256
15704SOL    HW264723   8.764   0.337  10.987  0.7119 -0.4186 -0.0227
15705SOL     OW64724   3.526   8.840   3.025  0.5747  0.1985 -0.2469
15705SOL    HW164725   3.460   8.772   3.011 -0.6771  0.9829  1.4478
15705SOL    HW264726   3.542   8.876   2.938 -0.4460 -0.7351 -0.8464
15706SOL     OW64727   0.350   5.952   5.129  0.1925 -0.3220  0.4167
15706SOL    HW164728   0.288   5.959   5.057  0.1228  1.6748  0.6055
15706SOL    HW264729   0.310   5.891   5.190  0.5741 -2.6133 -1.4910
15707SOL     OW64730   0.424  13.064  12.015 -0.3751 -0.4081 -0.1376
15707SOL    HW164731   0.511  13.063  12.056 -0.8783 -1.2959  0.9774
15707SOL    HW264732   0.434  13.013  11.935 -0.0885 -1.4043  0.5153
15708SOL     OW64733  10.193  13.984   5.390  0.2843 -0.2065  0.1282
15708SOL    HW164734  10.243  13.919   5.439  1.5208  0.3045 -0.4052
15708SOL    HW264735  10.196  14.063   5.445 -0.9650 -0.4965  0.6410
15709SOL     OW64736   4.094   7.588   4.385  0.6536  0.0999 -0.1863
15709SOL    HW164737   4.045   7.511   4.355  0.1457  0.9382 -1.6398
15709SOL    HW264738   4.072   7.596   4.478 -0.0265 -0.9684 -0.2333
15710SOL     OW64739   8.793   0.780   6.396  0.3017  0.4184 -0.2266
15710SOL    HW164740   8.699   0.796   6.390  0.2811  0.6255  0.5817
15710SOL    HW264741   8.813   0.728   6.318 -0.9132 -1.6952  0.7534
15711SOL     OW64742   3.879  13.193   9.415  0.3898 -0.4704 -0.1339
15711SOL    HW164743   3.822  13.204   9.339 -2.2806  0.8255  1.8674
15711SOL    HW264744   3.968  13.206   9.381 -0.7273  0.7497 -2.8748
15712SOL     OW64745  13.003   8.989  13.751 -0.0815  0.4005 -0.4033
15712SOL    HW164746  13.060   8.937  13.806 -1.0114 -0.6267 -0.3793
15712SOL    HW264747  12.963   8.926  13.691 -0.1754  1.2912 -1.2921
15713SOL     OW64748   9.851   6.323   2.128 -0.7896 -0.1779  0.5197
15713SOL    HW164749   9.832   6.406   2.172 -2.7678  1.7317 -3.3113
15713SOL    HW264750   9.935   6.338   2.085 -0.6768 -0.5120  0.6288
15714SOL     OW64751  10.745   3.043   7.501  0.6179  0.3088  0.5776
15714SOL    HW164752  10.800   3.020   7.426  0.9618 -2.0386  1.4628
15714SOL    HW264753  10.707   2.960   7.529  0.0532  1.2075  2.6851
15715SOL     OW64754   3.670   3.059   3.123  0.2080 -0.4757  0.1908
15715SOL    HW164755   3.710   3.143   3.146  0.9587 -0.7766  0.0299
15715SOL    HW264756   3.624   3.075   3.040 -2.6766  0.6675  1.8711
15716SOL     OW64757   9.135   6.667   0.841 -0.7958 -0.0811 -0.4854
15716SOL    HW164758   9.176   6.620   0.769  0.4095 -1.3318  0.9643
15716SOL    HW264759   9.200   6.731   0.869  0.3493 -2.1183  1.8653
15717SOL     OW64760   1.428   4.658   5.038 -0.1319 -0.6108 -0.4130
15717SOL    HW164761   1.504   4.607   5.013  0.6051 -0.3114  1.0666
15717SOL    HW264762   1.463   4.724   5.098 -1.2458  0.8284 -1.2812
15718SOL     OW64763   0.813  11.296   9.508 -0.0576  0.1736 -0.0065
15718SOL    HW164764   0.786  11.327   9.422  2.3203  0.3473 -0.7575
15718SOL    HW264765   0.851  11.374   9.550  2.8668 -0.8039 -0.6005
15719SOL     OW64766   1.336   8.099  13.181  0.2545 -0.1450  0.2923
15719SOL    HW164767   1.309   8.186  13.212 -0.9210 -0.6802  0.8564
15719SOL    HW264768   1.425   8.111  13.148 -0.7232  1.8125 -1.9426
15720SOL     OW64769   8.419   9.347  12.160  0.4034 -0.5640  0.3141
15720SOL    HW164770   8.422   9.304  12.074  0.3916 -1.8003  0.9029
15720SOL    HW264771   8.508   9.342  12.193 -0.0403 -2.2924  1.3753
15721SOL     OW64772  10.047   3.096  13.911 -0.1702 -0.0017  0.8505
15721SOL    HW164773  10.005   3.083  13.996  0.7371  1.4077  1.5568
15721SOL    HW264774  10.129   3.046  13.917 -0.2907 -0.2278  0.6404
15722SOL     OW64775   7.383   1.884   5.429  0.0782 -1.0008  0.4744
15722SOL    HW164776   7.306   1.904   5.377  0.1764  1.0531  1.0242
15722SOL    HW264777   7.437   1.828   5.373 -0.7205 -0.5101 -0.8195
15723SOL     OW64778   5.040   2.415   4.421 -0.2307  0.0021 -0.5273
15723SOL    HW164779   5.101   2.482   4.454 -2.1841  0.5033  2.4730
15723SOL    HW264780   4.971   2.465   4.378 -0.7929 -0.1877  0.1420
15724SOL     OW64781   6.960   5.255   5.494 -0.0350  0.1293  0.4189
15724SOL    HW164782   6.886   5.245   5.553  0.8390 -0.1674  1.5172
15724SOL    HW264783   6.945   5.337   5.448 -0.2196  0.9209  1.8508
15725SOL     OW64784  13.976   6.926   8.422  0.1971  0.0757  0.0435
15725SOL    HW164785  14.060   6.881   8.417  0.4164  0.4141  0.6636
15725SOL    HW264786  13.970   6.975   8.340  0.0559 -0.8876 -0.5396
15726SOL     OW64787  13.112   3.323   9.843 -0.4323 -0.3477 -0.1636
15726SOL    HW164788  13.178   3.282   9.898 -0.8516 -0.2692  0.4077
15726SOL    HW264789  13.139   3.302   9.754  0.1938 -0.5719  0.0706
15727SOL     OW64790   9.824  13.302  11.902  0.9773  0.5833 -0.2730
15727SOL    HW164791   9.825  13.348  11.987 -0.5365  0.3298 -0.0863
15727SOL    HW264792   9.742  13.330  11.861  0.5208 -1.1497 -0.6019
15728SOL     OW64793   4.725   1.859   0.649  0.3596 -0.2247  0.5549
15728SOL    HW164794   4.778   1.840   0.572  2.1399 -0.8033  1.8440
15728SOL    HW264795   4.667   1.783   0.658  0.5351 -0.4135  0.1002
15729SOL     OW64796   2.910   4.963   0.659  0.7832  0.1716  0.4341
15729SOL    HW164797   2.858   5.044   0.662  1.8844  0.9167  0.1537
15729SOL    HW264798   2.988   4.983   0.711  0.7573 -0.9556  0.9270
15730SOL     OW64799  11.434  11.805   9.867  0.6717 -0.0557  0.3058
15730SOL    HW164800  11.496  11.824   9.796  0.2438  1.2548  0.2645
15730SOL    HW264801  11.353  11.849   9.841 -0.4526 -2.0854  0.1575
15731SOL     OW64802   8.449   2.806  10.449  0.1093  0.0381 -0.3712
15731SOL    HW164803   8.456   2.811  10.353  0.2645  1.2204 -0.3162
15731SOL    HW264804   8.415   2.718  10.466  1.4592 -0.7257 -1.4297
15732SOL     OW64805   6.951   4.193   0.890  0.4065  0.9180  0.3688
15732SOL    HW164806   7.033   4.166   0.848  0.7619 -0.0595  1.6478
15732SOL    HW264807   6.885   4.133   0.853  0.9315 -0.7939  2.0494
15733SOL     OW64808   4.238  12.812   3.342  0.3802 -0.4856  0.1120
15733SOL    HW164809   4.282  12.741   3.389 -0.5566 -1.1048  0.0984
15733SOL    HW264810   4.228  12.779   3.253 -2.5274 -1.5689  0.7255
15734SOL     OW64811   3.990  11.618   1.885 -0.4724 -0.3367  0.0272
15734SOL    HW164812   3.982  11.562   1.962 -0.0172 -1.4065 -0.6806
15734SOL    HW264813   4.006  11.557   1.812 -1.9667  0.5389 -1.1014
15735SOL     OW64814  12.448  11.725   4.959 -0.4853  0.0816 -0.1164
15735SOL    HW164815  12.459  11.645   5.011 -1.5186  0.9964  1.5663
15735SOL    HW264816  12.484  11.702   4.873 -1.8708 -2.6061 -0.0804
15736SOL     OW64817   1.023   8.618   7.407 -0.4055  0.0159 -0.2779
15736SOL    HW164818   0.999   8.536   7.450  1.0138 -0.9835 -1.2895
15736SOL    HW264819   1.110   8.639   7.441  0.0870  0.0164 -1.4778
15737SOL     OW64820   1.703   5.644   9.366 -0.4443  0.0803 -0.2231
15737SOL    HW164821   1.653   5.723   9.387 -1.9132 -0.8308 -0.2129
15737SOL    HW264822   1.712   5.598   9.450  1.1126  0.5783 -0.0682
15738SOL     OW64823   3.839   3.292   5.776 -0.0453 -0.2762  0.1478
15738SOL    HW164824   3.892   3.365   5.808  0.4948 -0.5478 -0.1132
15738SOL    HW264825   3.755   3.331   5.753 -0.4096 -0.0439  1.7440
15739SOL     OW64826   8.183   0.138   5.125 -0.1982  0.0893  0.2834
15739SOL    HW164827   8.231   0.101   5.199 -0.3881  0.6115  0.6776
15739SOL    HW264828   8.182   0.068   5.059 -0.3734 -0.5225  0.9274
15740SOL     OW64829   4.714  10.381   8.628  0.0871  0.4135 -0.3287
15740SOL    HW164830   4.703  10.288   8.647 -0.9025  0.4956 -0.4488
15740SOL    HW264831   4.733  10.421   8.713 -1.6039  0.3934  0.0850
15741SOL     OW64832   7.263   3.448   5.356 -0.2534  0.2391 -0.0229
15741SOL    HW164833   7.186   3.431   5.302  0.6466 -0.2920 -1.1879
15741SOL    HW264834   7.315   3.511   5.306 -0.1479  0.9670  0.9694
15742SOL     OW64835   7.884  14.008  12.396 -0.4306  0.3126  0.0672
15742SOL    HW164836   7.866  14.035  12.486 -0.8123 -0.6298  0.2847
15742SOL    HW264837   7.893  13.913  12.400  4.1010  0.5225 -0.1412
15743SOL     OW64838   4.600   2.903   4.463  0.0134  0.3326  0.2247
15743SOL    HW164839   4.622   2.962   4.392  0.9929 -0.6905 -0.3537
15743SOL    HW264840   4.514   2.868   4.440  0.9196 -1.0692 -1.2310
15744SOL     OW64841   7.322   3.957  12.295  0.3516  0.3107 -0.2104
15744SOL    HW164842   7.301   3.930  12.206  0.0292 -1.0869  0.2654
15744SOL    HW264843   7.366   4.042  12.285  1.1427 -0.2462 -1.7587
15745SOL     OW64844  12.588   8.111  13.304 -0.0259  0.0127  0.2120
15745SOL    HW164845  12.565   8.022  13.278 -0.2936  0.5884 -1.6962
15745SOL    HW264846  12.504   8.155  13.320  0.1260 -0.2898  2.1038
15746SOL     OW64847   4.742   9.446   3.213  0.3790  0.0392  0.4562
15746SOL    HW164848   4.715   9.411   3.128 -1.6339  1.5889  0.3935
15746SOL    HW264849   4.817   9.391   3.239  0.2101 -1.3031 -1.6820
15747SOL     OW64850  12.938   4.849   2.007  0.9411  0.5155  0.3471
15747SOL    HW164851  12.987   4.931   2.018 -0.5985  1.5216  0.1352
15747SOL    HW264852  12.927   4.840   1.912  0.5993  0.3875  0.3961
15748SOL     OW64853   0.806   0.994  13.081 -0.2994  0.0180 -0.3816
15748SOL    HW164854   0.884   1.016  13.030  1.4583 -1.3098  1.5619
15748SOL    HW264855   0.791   0.901  13.064 -1.3232  0.1885 -0.4991
15749SOL     OW64856   2.795   3.294   8.206 -0.2436  0.2640 -0.5555
15749SOL    HW164857   2.700   3.286   8.213 -0.2107  0.9723  1.3357
15749SOL    HW264858   2.815   3.379   8.246  1.1166  0.5572 -1.7808
15750SOL     OW64859  11.521   1.708   7.427 -0.0717 -0.0072 -0.2545
15750SOL    HW164860  11.429   1.682   7.415  0.4804 -1.8146 -0.8746
15750SOL    HW264861  11.527   1.733   7.519 -0.8161 -1.6240  0.2746
15751SOL     OW64862  14.071  12.989   9.960  0.4090 -0.1542 -0.1689
15751SOL    HW164863  14.000  12.947  10.008 -0.3520 -0.8952 -1.8543
15751SOL    HW264864  14.111  12.917   9.910  0.4022  0.7588 -1.5293
15752SOL     OW64865   3.877   7.767   1.518 -0.9970  0.0150 -0.1138
15752SOL    HW164866   3.909   7.853   1.545  1.0778 -0.0666 -2.0619
15752SOL    HW264867   3.860   7.722   1.601 -0.1107  1.5747  0.9784
15753SOL     OW64868   2.761   4.511   3.165 -0.0250 -0.6180 -0.0305
15753SOL    HW164869   2.682   4.481   3.210  0.8758 -1.6156  0.9284
15753SOL    HW264870   2.781   4.441   3.103 -1.0132  0.5527 -1.7822
15754SOL     OW64871   1.375   6.636   8.466 -0.0288  0.2804  0.0136
15754SOL    HW164872   1.460   6.596   8.450  0.3568  0.9872  0.2611
15754SOL    HW264873   1.385   6.727   8.437 -0.8909  0.2132 -0.5487
15755SOL     OW64874  12.347   1.450   8.390  0.0733  0.7487  0.1290
15755SOL    HW164875  12.380   1.502   8.463  2.0541 -1.5074  0.9695
15755SOL    HW264876  12.319   1.367   8.429 -2.5946  0.8995 -1.2027
15756SOL     OW64877   7.064   4.827   1.502  0.5631  0.1701 -0.1955
15756SOL    HW164878   7.042   4.814   1.410  1.8226 -0.3577 -0.4420
15756SOL    HW264879   7.116   4.907   1.504  2.0015 -0.7179 -0.2223
15757SOL     OW64880   1.138   8.181   2.340  0.5435 -0.5516  0.1864
15757SOL    HW164881   1.108   8.107   2.393 -0.2598 -0.8918 -0.7087
15757SOL    HW264882   1.078   8.252   2.363  0.3406 -0.6321 -0.0898
15758SOL     OW64883   6.772   2.257   9.353  0.1963 -0.3102  0.6518
15758SOL    HW164884   6.764   2.204   9.274 -0.3260  0.8869 -0.1279
15758SOL    HW264885   6.818   2.201   9.415  0.4257 -1.3503 -0.4266
15759SOL     OW64886   3.098  13.939   4.317  0.1176 -0.4791  0.0337
15759SOL    HW164887   3.136  13.973   4.398  1.4766 -2.4424  0.3009
15759SOL    HW264888   3.125  13.847   4.315 -2.1365 -1.1852 -1.3325
15760SOL     OW64889   4.291   9.261  11.697 -0.9355 -0.3230 -0.7896
15760SOL    HW164890   4.232   9.294  11.630 -1.1022 -1.2632 -1.1187
15760SOL    HW264891   4.286   9.166  11.689 -2.7029 -0.5791  2.0502
15761SOL     OW64892  13.775  10.058   2.831 -0.6737 -0.3956 -0.1254
15761SOL    HW164893  13.740  10.002   2.761 -1.1973  1.2223 -1.2171
15761SOL    HW264894  13.745  10.016   2.912 -0.5791 -1.9726 -0.8578
15762SOL     OW64895   3.902   6.964  11.526  0.0602 -0.7066  0.3852
15762SOL    HW164896   3.880   6.881  11.569  0.6165 -0.8669  0.3698
15762SOL    HW264897   3.992   6.953  11.497  0.8571  0.6192  2.1465
15763SOL     OW64898   1.998   1.532   5.475 -0.7169 -0.4706 -0.6301
15763SOL    HW164899   1.923   1.592   5.482 -0.3256  0.1865 -1.7768
15763SOL    HW264900   1.988   1.473   5.550 -2.6513 -0.7144 -1.0111
15764SOL     OW64901  10.086   5.813  11.300  0.0625 -0.0310 -0.2993
15764SOL    HW164902  10.047   5.734  11.339  0.0527  0.3424  0.4809
15764SOL    HW264903  10.099   5.871  11.375 -0.2635  0.8484 -0.9226
15765SOL     OW64904  12.021   1.526   1.584  0.2036  0.3825  0.0864
15765SOL    HW164905  11.962   1.541   1.658 -0.0534 -2.1789  0.4785
15765SOL    HW264906  11.987   1.449   1.540  1.2057  0.9838 -1.8856
15766SOL     OW64907   1.551  10.575   2.288 -0.0027  0.3294 -0.0664
15766SOL    HW164908   1.597  10.627   2.353  2.2966 -1.8290  0.1866
15766SOL    HW264909   1.574  10.484   2.309 -3.7932 -0.9125 -0.4460
15767SOL     OW64910   8.413  13.781   9.529 -0.2354 -0.2313  0.1719
15767SOL    HW164911   8.363  13.726   9.469 -2.3461 -0.5535  2.0896
15767SOL    HW264912   8.353  13.853   9.551  0.9557  0.5793  0.8681
15768SOL     OW64913  11.763   5.921   4.792 -0.1485  0.0230  0.2620
15768SOL    HW164914  11.725   5.945   4.708 -1.8247  0.1291  1.0179
15768SOL    HW264915  11.688   5.896   4.847  0.8648  0.2349  1.8219
15769SOL     OW64916   0.675   5.053   2.795 -0.5163  0.4009 -0.5055
15769SOL    HW164917   0.745   5.003   2.752  0.6426  1.0358  0.5897
15769SOL    HW264918   0.619   5.082   2.723  0.4805  0.0795 -1.4362
15770SOL     OW64919   6.399   2.206   1.100 -0.0883 -0.3719 -0.0210
15770SOL    HW164920   6.467   2.227   1.036 -0.2924 -1.0619 -0.4722
15770SOL    HW264921   6.345   2.284   1.104  0.3935 -0.0304 -0.0907
15771SOL     OW64922   9.373   2.036   4.840 -0.1565 -0.1495  0.3884
15771SOL    HW164923   9.371   2.088   4.921  1.7982  0.0224  0.3780
15771SOL    HW264924   9.434   2.083   4.783  0.5934 -1.7128 -0.1417
15772SOL     OW64925   6.241  11.638   7.613  0.1408  0.4077 -0.2035
15772SOL    HW164926   6.174  11.576   7.641  2.6809 -2.1720  0.6362
15772SOL    HW264927   6.273  11.678   7.694 -0.1868  1.4834 -0.5801
15773SOL     OW64928   7.860   8.477  12.008  0.1055  0.0430  0.0158
15773SOL    HW164929   7.826   8.552  12.057  2.3166  1.2935 -0.2386
15773SOL    HW264930   7.935   8.511  11.960  0.6439 -2.1566 -0.8481
15774SOL     OW64931   6.552   0.168  10.926  0.4121  0.4363 -0.0603
15774SOL    HW164932   6.646   0.155  10.941  0.5284  0.4915 -0.7029
15774SOL    HW264933   6.536   0.259  10.951  0.0339 -0.2264  2.3686
15775SOL     OW64934  10.721   8.768   1.441 -0.2419  0.1950  0.0672
15775SOL    HW164935  10.649   8.710   1.466 -1.0094  0.7517 -0.8000
15775SOL    HW264936  10.790   8.708   1.412 -1.4541 -0.3290 -1.9738
15776SOL     OW64937   7.905  11.497  12.963  0.2925  0.6578 -0.0156
15776SOL    HW164938   7.866  11.505  13.050 -0.9247  0.5797 -0.5299
15776SOL    HW264939   7.908  11.586  12.928 -0.1418  0.5736 -0.2732
15777SOL     OW64940   9.343   9.960   9.218  0.1342 -0.2228  0.1032
15777SOL    HW164941   9.361  10.051   9.240  0.1282 -0.2783  0.3519
15777SOL    HW264942   9.429   9.923   9.196  0.4853 -0.6731  2.0036
15778SOL     OW64943  13.598   6.769  12.973  0.1787  0.8228 -0.0799
15778SOL    HW164944  13.586   6.735  12.885 -0.8465  2.1660 -0.5047
15778SOL    HW264945  13.532   6.724  13.026  0.1575  0.7101 -0.2023
15779SOL     OW64946   4.572   0.825   8.551  0.1927 -0.2617  0.1908
15779SOL    HW164947   4.556   0.731   8.543 -0.2534 -0.4332  2.5310
15779SOL    HW264948   4.487   0.863   8.572  0.0320  0.9555 -2.2536
15780SOL     OW64949   2.525  10.894   9.411  0.7297 -0.2093  0.4436
15780SOL    HW164950   2.594  10.926   9.353  0.4968 -1.0918 -0.3468
15780SOL    HW264951   2.540  10.940   9.493  2.5826 -0.7607  0.4654
15781SOL     OW64952  13.215   8.386   6.169 -0.3316 -0.8301 -0.0042
15781SOL    HW164953  13.224   8.310   6.226 -0.5736 -1.0115 -0.2114
15781SOL    HW264954  13.122   8.393   6.151 -0.4874  0.2990  1.0775
15782SOL     OW64955  13.929  10.407   7.801  0.2762 -0.3396 -0.4351
15782SOL    HW164956  13.912  10.437   7.890 -0.1533  0.0517 -0.6441
15782SOL    HW264957  13.981  10.477   7.762  1.2036 -0.8999 -0.2317
15783SOL     OW64958   0.505   7.310  11.594  0.0939  0.1147  0.3039
15783SOL    HW164959   0.490   7.264  11.512 -1.2265  0.7649  0.1577
15783SOL    HW264960   0.419   7.316  11.635  0.7942 -0.6442  1.9966
15784SOL     OW64961   2.755   5.916  11.814 -0.1418 -0.0557  0.0157
15784SOL    HW164962   2.808   5.996  11.820  2.4112 -1.5904 -0.5474
15784SOL    HW264963   2.752   5.897  11.720 -1.6197 -0.1199  0.0515
15785SOL     OW64964   4.587   2.890   6.510  0.0021  0.3052 -0.1306
15785SOL    HW164965   4.544   2.892   6.424 -0.4029  0.5689  0.0769
15785SOL    HW264966   4.620   2.801   6.517 -0.4882  0.1026 -0.3088
15786SOL     OW64967  10.725  12.149   8.125 -0.3450 -0.1124  0.0169
15786SOL    HW164968  10.720  12.244   8.134  0.2398  0.0423 -1.0924
15786SOL    HW264969  10.814  12.133   8.092 -0.6336 -0.9889 -0.3724
15787SOL     OW64970  11.779   7.907   0.708  0.3315 -0.2071  0.4071
15787SOL    HW164971  11.712   7.869   0.651  1.0865  0.3201 -0.8770
15787SOL    HW264972  11.733   7.929   0.789 -1.2918  1.0510 -0.7942
15788SOL     OW64973   8.275   4.885   8.170 -0.1610  0.4910 -0.3039
15788SOL    HW164974   8.356   4.884   8.220  0.3804 -0.2633 -1.1688
15788SOL    HW264975   8.296   4.935   8.092 -0.3968 -0.0592 -0.7264
15789SOL     OW64976   1.240   9.558  12.527  0.2470  0.3280  0.1915
15789SOL    HW164977   1.248   9.500  12.451 -2.6697  0.5518 -0.3892
15789SOL    HW264978   1.305   9.627  12.511  1.7963 -1.2023 -0.5113
15790SOL     OW64979  12.629   1.703  10.106 -0.7034  0.3950 -0.4885
15790SOL    HW164980  12.663   1.793  10.099  0.1948  0.0168 -1.1115
15790SOL    HW264981  12.687   1.651  10.051 -0.2270 -0.8559  1.1301
15791SOL     OW64982   7.103   8.514  13.562 -0.3050 -0.3633 -0.4647
15791SOL    HW164983   7.087   8.608  13.560  1.2710 -0.0527  0.0174
15791SOL    HW264984   7.149   8.499  13.644 -0.6611 -1.5910 -0.4617
15792SOL     OW64985   3.626   7.471  12.508  0.1317 -0.4489 -0.2328
15792SOL    HW164986   3.535   7.444  12.494 -0.1018  0.2266 -0.0570
15792SOL    HW264987   3.666   7.467  12.422 -0.1576 -0.4210 -0.3710
15793SOL     OW64988   8.742   1.088  13.793 -0.1927  0.4524  0.0931
15793SOL    HW164989   8.794   1.139  13.855 -0.3263  0.0929  0.5030
15793SOL    HW264990   8.688   1.031  13.847 -0.9431  0.7424 -0.3359
15794SOL     OW64991  11.033   3.439   1.934  0.4305  0.1667 -0.3651
15794SOL    HW164992  10.946   3.401   1.948  0.0214  0.1985 -2.4461
15794SOL    HW264993  11.088   3.364   1.911  0.5079  0.3628 -0.8312
15795SOL     OW64994   1.286   8.720   4.898  0.1850 -0.3898  0.5617
15795SOL    HW164995   1.324   8.643   4.940 -0.6060 -1.1692 -0.1185
15795SOL    HW264996   1.204   8.735   4.946  0.0692 -0.3076  0.3387
15796SOL     OW64997  12.150  10.283   4.377 -0.0320  0.0034 -0.1349
15796SOL    HW164998  12.143  10.216   4.446  0.5192  0.2964  0.2118
15796SOL    HW264999  12.136  10.366   4.423  2.8451  0.4465  0.1656
15797SOL     OW65000   0.470  12.897   4.273 -0.0513 -0.1528 -0.2403
15797SOL    HW165001   0.510  12.940   4.348 -0.8347 -0.7816  0.5640
15797SOL    HW265002   0.431  12.968   4.222 -0.1045  0.2245  0.3155
15798SOL     OW65003   6.983  13.474   3.308  0.4885  0.1555  0.6749
15798SOL    HW165004   7.025  13.454   3.392  2.8508  0.1572 -0.4184
15798SOL    HW265005   7.044  13.440   3.243 -2.5568 -2.3769 -1.1000
15799SOL     OW65006  11.159   4.921   5.007  0.5145  0.3542  0.4263
15799SOL    HW165007  11.126   4.833   5.024 -2.6090  1.3589  0.1531
15799SOL    HW265008  11.154   4.931   4.911  1.6328  0.5821  0.3720
15800SOL     OW65009   2.012  13.802   5.171 -0.0223 -0.0176 -0.6791
15800SOL    HW165010   1.917  13.810   5.183 -0.2030  1.9411 -2.6672
15800SOL    HW265011   2.047  13.797   5.260 -1.9884 -1.0921  0.1020
15801SOL     OW65012   4.656   1.052   0.802  0.0752  0.4396  0.2834
15801SOL    HW165013   4.733   0.994   0.807  0.3793  0.4094 -2.7462
15801SOL    HW265014   4.627   1.045   0.711 -3.4087  0.6742  1.2476
15802SOL     OW65015  12.494   5.705   6.602 -0.5954 -0.1850  0.3238
15802SOL    HW165016  12.549   5.680   6.528 -1.5765  0.7567 -0.7506
15802SOL    HW265017  12.523   5.648   6.673  0.3906 -1.0933 -0.7648
15803SOL     OW65018   7.599   9.103   5.305  0.2182  0.5056 -0.1387
15803SOL    HW165019   7.633   9.108   5.394  0.1839 -0.5870 -0.0440
15803SOL    HW265020   7.676   9.111   5.248  0.3773  0.1610  0.0241
15804SOL     OW65021  13.655  14.029  11.480  0.0172 -0.3141 -0.0080
15804SOL    HW165022  13.693  13.941  11.487 -0.1190 -0.4951 -1.2275
15804SOL    HW265023  13.572  14.015  11.435  0.2324  0.4935 -0.6738
15805SOL     OW65024   8.264  12.919   4.033 -0.7159  0.2275 -0.1263
15805SOL    HW165025   8.322  12.877   4.096 -0.7862  1.9125  1.1233
15805SOL    HW265026   8.318  12.932   3.955 -0.9836 -3.0333 -1.0035
15806SOL     OW65027   7.455   7.561  13.622 -0.0708  0.7400  0.0376
15806SOL    HW165028   7.432   7.508  13.698  1.7630 -0.1058  0.0406
15806SOL    HW265029   7.516   7.627  13.655  1.1237  0.0691 -0.7430
15807SOL     OW65030   7.930   2.820   0.802 -0.2249 -0.0658 -1.6224
15807SOL    HW165031   8.022   2.798   0.817 -0.3886 -1.7259 -2.8109
15807SOL    HW265032   7.908   2.778   0.719 -2.3983 -0.7443 -0.7646
15808SOL     OW65033   4.268   5.691  13.399 -0.1252  0.2925 -0.6842
15808SOL    HW165034   4.228   5.770  13.362 -0.5662  0.3698 -0.0492
15808SOL    HW265035   4.195   5.631  13.412 -0.2165  0.7776  1.3773
15809SOL     OW65036   9.055   5.967   0.213  0.4915 -0.1802  0.4464
15809SOL    HW165037   9.056   5.890   0.269  1.2578  0.3929  1.2510
15809SOL    HW265038   9.110   5.943   0.138 -0.4847 -0.9252 -0.0587
15810SOL     OW65039   8.947   7.523  10.346 -0.2583 -0.2248  0.7402
15810SOL    HW165040   8.933   7.430  10.328 -0.4757  0.1722 -1.4178
15810SOL    HW265041   9.038   7.539  10.321  0.2436 -0.1233  2.5072
15811SOL     OW65042   2.062   9.810   2.917  0.5503  0.2864  0.1099
15811SOL    HW165043   2.073   9.891   2.868  0.2695  0.5141  0.4155
15811SOL    HW265044   2.060   9.838   3.009  0.2225 -0.0367  0.2034
15812SOL     OW65045   5.040   4.269   0.327 -0.2487 -0.0058 -0.3088
15812SOL    HW165046   5.016   4.227   0.409  0.5203 -0.7918 -0.4784
15812SOL    HW265047   5.060   4.197   0.267 -1.3202  0.5283 -1.3683
15813SOL     OW65048   8.843  12.238  13.574  0.3560 -0.1080  0.4564
15813SOL    HW165049   8.824  12.308  13.511  0.0345 -0.3560  0.2773
15813SOL    HW265050   8.858  12.161  13.520  0.2261 -0.2878  0.6788
15814SOL     OW65051   0.381  13.254   6.771 -0.3701  0.3192 -0.2385
15814SOL    HW165052   0.417  13.280   6.856 -0.9866 -1.9529  0.7772
15814SOL    HW265053   0.286  13.248   6.785 -0.3814 -1.1381 -0.7467
15815SOL     OW65054  10.839  10.657  10.271  0.0755  0.1799  0.6623
15815SOL    HW165055  10.834  10.751  10.284 -2.4127  0.0560  1.1896
15815SOL    HW265056  10.833  10.645  10.176 -0.4015  0.5398  0.6436
15816SOL     OW65057  12.204  12.849   0.680  0.2916  0.8143 -0.0300
15816SOL    HW165058  12.130  12.906   0.660 -0.5566 -0.1093  0.3388
15816SOL    HW265059  12.229  12.811   0.596 -1.5283 -1.0168  0.1408
15817SOL     OW65060   3.219  11.724   3.673  0.2973  0.1668  0.1286
15817SOL    HW165061   3.314  11.722   3.657 -0.0780  0.4058 -2.6808
15817SOL    HW265062   3.198  11.636   3.704  1.3557 -0.0506  0.2909
15818SOL     OW65063   4.553   6.438   6.756  0.4369  0.8596 -0.0458
15818SOL    HW165064   4.527   6.472   6.842 -0.4696  3.3179 -1.1840
15818SOL    HW265065   4.597   6.512   6.713 -0.6651  0.3035 -2.3202
15819SOL     OW65066   8.708  12.279  12.891 -0.0599  0.1965 -0.2918
15819SOL    HW165067   8.702  12.339  12.817  1.3329 -1.3381 -1.7535
15819SOL    HW265068   8.798  12.288  12.923 -0.2878 -0.0300  0.4387
15820SOL     OW65069   2.213  12.862  10.540  0.4134 -0.2871 -0.1045
15820SOL    HW165070   2.233  12.945  10.496 -0.5150  0.4715  0.8447
15820SOL    HW265071   2.240  12.877  10.631 -2.9790  0.3153  0.9326
15821SOL     OW65072   8.503   7.360   2.888 -0.5471  0.0089  0.2849
15821SOL    HW165073   8.432   7.296   2.888 -1.6383  1.0595  2.7120
15821SOL    HW265074   8.466   7.437   2.932  1.9904  0.6924  1.4578
15822SOL     OW65075   3.389   0.625   3.149 -0.3687  0.1213  0.2957
15822SOL    HW165076   3.399   0.534   3.120  1.1060  0.3590 -0.0117
15822SOL    HW265077   3.294   0.638   3.156 -0.6571 -0.9543 -1.2359
15823SOL     OW65078   4.955   5.285   1.307  0.4301 -0.4028 -0.1458
15823SOL    HW165079   4.891   5.356   1.307  1.1506  0.2655  0.1472
15823SOL    HW265080   5.040   5.329   1.300  0.8857 -1.2429 -0.0907
15824SOL     OW65081   3.536   5.800   7.758 -0.3637 -0.2726 -0.7173
15824SOL    HW165082   3.568   5.712   7.739 -1.2101 -0.4215 -1.5070
15824SOL    HW265083   3.451   5.806   7.714 -0.4532  0.8435 -0.4458
15825SOL     OW65084   7.967   9.866  11.701 -0.4866 -0.3175 -0.5296
15825SOL    HW165085   7.886   9.817  11.694 -0.4631 -0.8119  1.8141
15825SOL    HW265086   7.941   9.950  11.740  0.3415 -1.4766  2.7883
15826SOL     OW65087  13.661   5.653   6.754  0.1566  0.0180 -0.0215
15826SOL    HW165088  13.708   5.576   6.724 -0.7574 -0.8287  0.6372
15826SOL    HW265089  13.575   5.646   6.711  0.2444  0.9667 -0.3791
15827SOL     OW65090  11.819   5.470   9.064 -0.2981 -0.3078  0.5652
15827SOL    HW165091  11.747   5.532   9.068 -1.2512 -1.3522  0.3211
15827SOL    HW265092  11.777   5.384   9.071  0.6909 -1.0489 -1.5894
15828SOL     OW65093   7.627   6.777   7.571 -0.2260 -0.0981  0.3721
15828SOL    HW165094   7.568   6.715   7.615  0.7653 -0.1870  1.6346
15828SOL    HW265095   7.713   6.759   7.609  0.9721 -1.0388 -2.5551
15829SOL     OW65096   2.925  11.006  10.884 -0.4678 -0.6137  0.1740
15829SOL    HW165097   2.860  11.037  10.947 -0.2111 -1.8487  1.1051
15829SOL    HW265098   2.886  11.022  10.798 -1.1379  0.4575  0.6600
15830SOL     OW65099   4.734   2.811  13.653 -0.3928 -0.1965 -0.7249
15830SOL    HW165100   4.825   2.819  13.682 -0.5260 -1.1456 -0.0014
15830SOL    HW265101   4.732   2.854  13.567  0.9224 -0.9296 -1.1397
15831SOL     OW65102  12.257  10.804  10.881  0.4636 -0.7303  0.0825
15831SOL    HW165103  12.272  10.822  10.788 -0.8922  3.9387  0.5317
15831SOL    HW265104  12.183  10.744  10.882 -1.4464  1.3792 -1.9981
15832SOL     OW65105   6.692  10.991   1.949 -0.0063  0.1441  0.2475
15832SOL    HW165106   6.737  10.907   1.959  0.8209  0.1791 -2.4847
15832SOL    HW265107   6.718  11.041   2.026  0.6938 -1.5564  1.1720
15833SOL     OW65108  12.938   1.588  11.451 -0.1218 -0.2710 -0.3638
15833SOL    HW165109  12.958   1.653  11.384  0.3409 -1.2702 -1.2233
15833SOL    HW265110  12.880   1.634  11.512  1.2743  1.3683 -0.1793
15834SOL     OW65111   6.810   5.491   3.571 -0.3250  0.1408  0.6042
15834SOL    HW165112   6.836   5.493   3.664 -0.1926  1.1055  0.5583
15834SOL    HW265113   6.736   5.551   3.566  0.5831  1.2277 -0.1741
15835SOL     OW65114   4.818   1.046  11.723 -0.4633  0.4080  0.0766
15835SOL    HW165115   4.868   1.068  11.801  0.9813  0.3205 -0.7793
15835SOL    HW265116   4.786   1.131  11.691 -0.9542  0.4552  0.6950
15836SOL     OW65117   3.683   7.805   5.983  0.0203  0.2352 -0.0733
15836SOL    HW165118   3.712   7.874   5.922  0.7059  1.6805  1.7887
15836SOL    HW265119   3.749   7.736   5.974  0.5132  0.7469 -0.4391
15837SOL     OW65120   9.723   5.626   2.874 -0.5222 -0.0779 -0.5363
15837SOL    HW165121   9.694   5.711   2.906 -0.0717 -0.1600  0.1004
15837SOL    HW265122   9.654   5.565   2.900 -0.6867  0.0376 -0.7020
15838SOL     OW65123   8.990   7.714  12.703 -0.2635 -0.3026 -0.4174
15838SOL    HW165124   8.962   7.726  12.794  0.7979 -2.2587  0.2197
15838SOL    HW265125   8.974   7.622  12.685  2.4964 -0.7160 -1.1483
15839SOL     OW65126  12.868   7.621   2.913  0.6400 -0.5670 -0.0754
15839SOL    HW165127  12.876   7.666   2.830  0.5261 -2.7135 -1.3232
15839SOL    HW265128  12.946   7.648   2.963  1.0228  0.2757 -1.0925
15840SOL     OW65129   4.355   4.526   2.665  0.0846 -0.1691 -0.2512
15840SOL    HW165130   4.294   4.548   2.736  0.3957 -0.4092  0.0959
15840SOL    HW265131   4.412   4.603   2.659  1.1142 -0.8035  0.9001
15841SOL     OW65132  13.394  12.590   6.078  0.0285  0.3878  0.2608
15841SOL    HW165133  13.434  12.521   6.025 -2.1323  0.8868 -2.2516
15841SOL    HW265134  13.458  12.662   6.076 -0.6555  1.1162 -3.4823
15842SOL     OW65135  13.471   6.826   0.303 -0.2887  0.0384 -0.3984
15842SOL    HW165136  13.387   6.782   0.316  0.6920 -1.8447 -0.0790
15842SOL    HW265137  13.531   6.756   0.276  1.5171  1.0432  0.8195
15843SOL     OW65138   8.952   3.726   6.207  0.0356  0.3146 -0.1169
15843SOL    HW165139   8.935   3.647   6.258  2.4086  0.2306  0.6959
15843SOL    HW265140   8.866   3.756   6.177 -1.1400 -1.2251  1.5716
15844SOL     OW65141   8.040  11.234   7.767 -0.5765 -0.0522  0.1591
15844SOL    HW165142   8.086  11.309   7.807  0.2176 -0.6584  0.4185
15844SOL    HW265143   7.977  11.207   7.834  1.0063 -1.2991  1.2350
15845SOL     OW65144  14.042  12.901   6.243  0.1093  0.0321 -0.1941
15845SOL    HW165145  13.949  12.879   6.241 -0.0244  0.4280  0.9849
15845SOL    HW265146  14.044  12.996   6.245  0.4562  0.0231  1.6809
15846SOL     OW65147  10.301   3.521   3.328  0.4606 -0.1717 -0.1252
15846SOL    HW165148  10.333   3.435   3.353  1.9156  0.2187 -0.5328
15846SOL    HW265149  10.219   3.504   3.283  1.5023 -1.5250 -1.6412
15847SOL     OW65150   9.817  13.473  13.602 -0.1553 -0.8500  0.5281
15847SOL    HW165151   9.852  13.512  13.521  0.9102 -2.4725  0.1521
15847SOL    HW265152   9.826  13.542  13.667 -2.0616  0.9005 -0.9136
15848SOL     OW65153   6.019   9.159   4.751 -0.0109 -0.2110 -0.0325
15848SOL    HW165154   6.023   9.153   4.655  1.3622 -1.3929  0.0661
15848SOL    HW265155   6.080   9.092   4.782  0.3023  0.7871  1.6630
15849SOL     OW65156   7.357   8.474   8.150 -0.5149  0.1022  0.0187
15849SOL    HW165157   7.357   8.431   8.235  0.2936 -2.8833 -1.3848
15849SOL    HW265158   7.293   8.426   8.098  1.3970 -0.3756 -2.0528
15850SOL     OW65159   6.447   4.925  11.787  0.5674 -0.2322 -0.0213
15850SOL    HW165160   6.505   4.935  11.862 -0.6388  1.5579  0.7503
15850SOL    HW265161   6.503   4.940  11.711  1.3387  0.3845  0.6553
15851SOL     OW65162  11.976   2.254   2.992 -0.2756  0.3906  0.0143
15851SOL    HW165163  11.942   2.167   2.969 -0.2055  0.2364  0.4835
15851SOL    HW265164  12.007   2.290   2.909 -1.3665  0.4431 -0.3770
15852SOL     OW65165   4.423   4.342  10.293  0.3980 -0.2927 -0.2384
15852SOL    HW165166   4.396   4.417  10.346  0.7382  0.7393 -1.5016
15852SOL    HW265167   4.516   4.356  10.276  0.6443 -1.3861  0.0920
15853SOL     OW65168   4.007   9.810   4.355  0.1851  0.6841  0.0749
15853SOL    HW165169   3.990   9.789   4.447  1.3444  1.5214  0.5105
15853SOL    HW265170   3.939   9.764   4.306  0.9726 -1.7801  1.1484
15854SOL     OW65171  10.058   9.421   5.311 -0.8151 -0.5077  0.2618
15854SOL    HW165172  10.142   9.460   5.287  0.9597 -2.4852  2.6887
15854SOL    HW265173  10.049   9.344   5.254  0.0959 -1.4320  1.3109
15855SOL     OW65174   4.570   7.138   4.790  0.0336 -0.4693  0.1474
15855SOL    HW165175   4.586   7.193   4.713 -1.4987 -0.9764 -0.5936
15855SOL    HW265176   4.475   7.135   4.797  0.1083 -1.9467  0.9461
15856SOL     OW65177  13.396   6.600  13.098 -0.2546  0.5607  0.1474
15856SOL    HW165178  13.480   6.569  13.132  0.3088  0.6358 -1.1069
15856SOL    HW265179  13.334   6.530  13.120 -0.1305  1.0108  2.0918
15857SOL     OW65180   1.710   5.534  11.122 -0.1560 -0.0240 -0.4080
15857SOL    HW165181   1.732   5.624  11.144 -0.2613  0.3289 -1.6493
15857SOL    HW265182   1.790   5.498  11.084 -0.6482  0.1567 -1.6664
15858SOL     OW65183   9.961  11.249  13.170 -0.0309  0.3705  0.2232
15858SOL    HW165184   9.961  11.209  13.257 -0.1261  1.4012  0.7124
15858SOL    HW265185   9.915  11.332  13.182 -0.4723  0.3150 -0.9188
15859SOL     OW65186   7.755   1.947   8.696 -0.1530 -0.4119 -0.2028
15859SOL    HW165187   7.802   2.031   8.695 -1.1902  0.1993 -1.4622
15859SOL    HW265188   7.786   1.901   8.618 -1.4195 -0.0834 -0.9398
15860SOL     OW65189   4.015   6.701   3.836  0.1570 -0.2305 -0.6788
15860SOL    HW165190   4.006   6.616   3.878 -1.0486  0.4557  0.5621
15860SOL    HW265191   4.010   6.764   3.908  1.7977  0.8844 -1.4741
15861SOL     OW65192   5.699  12.639   8.186 -1.3769  0.2970 -0.2794
15861SOL    HW165193   5.671  12.574   8.251 -1.8186  0.9386  0.1908
15861SOL    HW265194   5.741  12.588   8.118 -2.8685 -0.6403 -0.5564
15862SOL     OW65195   1.581   2.816   8.236 -0.2967  0.1918  0.3579
15862SOL    HW165196   1.608   2.893   8.187 -1.0188  0.7250  0.7899
15862SOL    HW265197   1.548   2.755   8.169  0.5059  0.1387 -0.0083
15863SOL     OW65198   3.786   8.765   8.002  0.0959 -0.1254  0.5857
15863SOL    HW165199   3.880   8.774   7.988  0.2018 -0.9809  0.6631
15863SOL    HW265200   3.753   8.728   7.920 -0.1120 -0.2016  0.7014
15864SOL     OW65201   2.279   6.600  13.476 -0.9179  0.4262  0.0591
15864SOL    HW165202   2.249   6.578  13.564 -1.6769 -0.3867 -0.3814
15864SOL    HW265203   2.218   6.668  13.447 -0.5042  0.8848  0.2520
15865SOL     OW65204  11.811  11.604   6.726 -0.3456 -0.3982 -0.5860
15865SOL    HW165205  11.869  11.675   6.698 -0.4236 -0.4800 -0.9531
15865SOL    HW265206  11.771  11.573   6.646  1.4660 -2.4469 -0.7801
15866SOL     OW65207   8.805   1.110   1.506  0.3896 -0.5549  0.2978
15866SOL    HW165208   8.855   1.068   1.576 -0.9206 -2.3859  0.1903
15866SOL    HW265209   8.851   1.087   1.426 -0.0909 -1.4860  0.2758
15867SOL     OW65210   0.143   6.337   4.408 -0.3099  0.1351 -0.1801
15867SOL    HW165211   0.164   6.392   4.483  0.5404 -0.2540 -0.1134
15867SOL    HW265212   0.204   6.366   4.340 -1.2043  0.6162 -0.7950
15868SOL     OW65213   5.395  12.385   0.410  0.1915  0.2834  0.7966
15868SOL    HW165214   5.369  12.337   0.489  0.1699  1.6735  1.6861
15868SOL    HW265215   5.476  12.429   0.435  1.2819 -0.8346 -0.6378
15869SOL     OW65216   8.014  11.450   2.783 -0.1734 -0.1017 -0.5255
15869SOL    HW165217   8.053  11.416   2.702  1.4826  1.4619 -0.4295
15869SOL    HW265218   8.013  11.545   2.771 -2.2323  0.0312  0.2947
15870SOL     OW65219  10.032  13.825   3.876  0.1141  0.0421  0.1076
15870SOL    HW165220  10.059  13.857   3.962  0.6400 -0.5520  0.1702
15870SOL    HW265221   9.946  13.863   3.862 -0.7787 -1.2874  1.6662
15871SOL     OW65222   5.552  10.835   7.822 -0.0475 -0.2351 -0.1046
15871SOL    HW165223   5.547  10.923   7.861 -1.1873 -0.9246  1.4048
15871SOL    HW265224   5.501  10.780   7.881  0.4997 -1.8974 -1.1242
15872SOL     OW65225  13.517   7.654  10.827  0.3813 -0.2111  0.1432
15872SOL    HW165226  13.432   7.659  10.870  0.4972  0.2785  0.3253
15872SOL    HW265227  13.552   7.569  10.853 -0.9839 -1.4134 -1.7463
15873SOL     OW65228   8.493   0.189   4.272 -0.9037  0.3405  0.0881
15873SOL    HW165229   8.575   0.211   4.315 -0.7127 -0.8484  0.3899
15873SOL    HW265230   8.425   0.229   4.327 -0.9258 -3.8780  3.6902
15874SOL     OW65231   1.430   4.920  11.544 -0.2537 -0.1758 -0.4890
15874SOL    HW165232   1.424   5.004  11.589  1.8647 -0.7334  0.9966
15874SOL    HW265233   1.357   4.920  11.482 -1.8033  1.6995  1.2065
15875SOL     OW65234  10.788   4.549  12.494 -0.1249 -0.0161 -0.1756
15875SOL    HW165235  10.832   4.536  12.410  0.0474 -0.4033 -0.0284
15875SOL    HW265236  10.719   4.612  12.475  1.0437  1.2917 -0.2134
15876SOL     OW65237   3.812   8.969  11.693 -0.3325  0.0130  0.4873
15876SOL    HW165238   3.816   9.019  11.612 -0.3644 -0.7149  0.0241
15876SOL    HW265239   3.788   9.033  11.760 -1.8748  0.3230 -0.3333
15877SOL     OW65240  11.325   3.660  12.227 -0.3434  0.5848  0.1672
15877SOL    HW165241  11.323   3.565  12.242 -0.3578  0.6266  0.4274
15877SOL    HW265242  11.282   3.698  12.303 -1.9240  0.7071 -0.7436
15878SOL     OW65243   6.167   7.128   5.781 -0.3760  0.3430  0.3047
15878SOL    HW165244   6.127   7.089   5.704 -0.0117 -0.9583  0.7426
15878SOL    HW265245   6.259   7.142   5.756 -0.9873  3.3856 -0.7229
15879SOL     OW65246  11.146   8.077   5.481 -0.0035  0.3094  0.1934
15879SOL    HW165247  11.145   7.984   5.505  1.4595  0.0113 -0.7814
15879SOL    HW265248  11.069   8.113   5.524 -1.6392 -1.7069 -0.8570
15880SOL     OW65249  14.062   4.018  10.830  0.1121 -0.3122  0.0295
15880SOL    HW165250  14.080   3.990  10.740 -0.6408 -0.0803 -0.2047
15880SOL    HW265251  14.079   3.940  10.883  2.1493 -0.0135 -0.0923
15881SOL     OW65252   2.951   4.363   7.543  0.3140  0.6593 -0.5628
15881SOL    HW165253   2.955   4.426   7.614 -0.9286 -0.1170  0.2408
15881SOL    HW265254   2.996   4.285   7.576 -2.0907 -0.4744  0.2839
15882SOL     OW65255   0.608   2.959   3.085 -0.4397 -0.1985 -0.0343
15882SOL    HW165256   0.621   3.001   3.170 -2.0911 -1.3811  0.8499
15882SOL    HW265257   0.593   3.032   3.025 -1.5569  0.5686  1.1374
15883SOL     OW65258   1.680  13.249   9.910  0.4282  0.1863 -0.5376
15883SOL    HW165259   1.760  13.293   9.882  0.1010 -0.5266 -2.7779
15883SOL    HW265260   1.616  13.319   9.922  0.6094  0.5442 -1.5740
15884SOL     OW65261   0.037   7.788   9.516 -0.1376 -0.1782 -0.0617
15884SOL    HW165262   0.046   7.836   9.434  0.5303  1.7257  1.0435
15884SOL    HW265263  -0.013   7.847   9.572 -0.9122 -1.5954  0.7936
15885SOL     OW65264   3.710  12.389   6.141  0.2823 -0.4875  0.0924
15885SOL    HW165265   3.620  12.359   6.156  0.2473  0.6610  2.6597
15885SOL    HW265266   3.723  12.460   6.203  3.1778 -1.0065  0.2371
15886SOL     OW65267   3.926   6.318   9.671  0.1312  0.0826  0.0003
15886SOL    HW165268   3.883   6.239   9.703  0.5266 -0.5789 -1.0454
15886SOL    HW265269   3.918   6.381   9.743 -0.9973 -0.5980  0.4942
15887SOL     OW65270  10.127  14.069   4.594  0.2496 -0.1872 -0.6831
15887SOL    HW165271  10.171  14.013   4.658  0.2852 -1.9166 -2.1211
15887SOL    HW265272  10.050  14.103   4.640 -2.2577 -4.8887 -0.7841
15888SOL     OW65273   9.852   2.996   6.737 -0.1681  0.1601 -0.0841
15888SOL    HW165274   9.891   2.986   6.824 -2.4620 -2.0312  0.7941
15888SOL    HW265275   9.857   2.909   6.698 -1.1293  0.6211 -1.2936
15889SOL     OW65276  12.784   2.936   0.036 -0.7550  0.7464  0.7165
15889SOL    HW165277  12.753   2.862  -0.017  0.0304  1.0081 -0.1260
15889SOL    HW265278  12.727   3.009   0.010 -0.9799  0.6441  0.9239
15890SOL     OW65279   7.995   0.413   2.503 -0.1993  0.0975  0.4321
15890SOL    HW165280   7.914   0.369   2.478 -0.9068  2.2080 -1.2755
15890SOL    HW265281   8.045   0.347   2.551 -1.9922 -1.9135 -0.3516
15891SOL     OW65282   5.367   8.292   0.834  0.8263 -0.2900 -0.4710
15891SOL    HW165283   5.337   8.370   0.879  0.8432 -0.4078 -0.2571
15891SOL    HW265284   5.291   8.262   0.784  0.4277 -0.8747  0.4623
15892SOL     OW65285   7.530  13.633  11.626  0.4719 -0.3887  0.3806
15892SOL    HW165286   7.586  13.569  11.669 -0.4561  0.4733  3.0261
15892SOL    HW265287   7.588  13.705  11.604  0.6809 -0.0398  1.9587
15893SOL     OW65288   9.421  10.449   4.156 -0.0434  0.1841  0.1073
15893SOL    HW165289   9.368  10.458   4.234 -0.1286 -0.7069  0.1539
15893SOL    HW265290   9.487  10.383   4.178 -1.5854 -1.9870 -1.3529
15894SOL     OW65291   9.755   1.022  13.883 -0.0190 -0.9222 -0.6039
15894SOL    HW165292   9.698   1.085  13.927  2.6224  0.1489  1.6624
15894SOL    HW265293   9.754   1.049  13.791 -1.0032  0.7783 -0.1491
15895SOL     OW65294   1.982   1.912   4.749  0.5050  0.1005  0.2144
15895SOL    HW165295   2.020   1.845   4.806  0.3320  1.8162  2.4825
15895SOL    HW265296   1.887   1.902   4.761  0.4580  0.3340  0.0334
15896SOL     OW65297   4.699  12.652  10.887  0.1413  0.2330  0.0191
15896SOL    HW165298   4.603  12.650  10.878  0.2516  0.3775 -1.5927
15896SOL    HW265299   4.726  12.561  10.876  0.1978  0.2216  0.2631
15897SOL     OW65300   5.068   3.950  12.715  0.2986 -0.4239 -0.2696
15897SOL    HW165301   5.073   4.016  12.784 -0.3650  0.6668 -1.2353
15897SOL    HW265302   5.074   3.867  12.761  2.3727  0.2847  0.8900
15898SOL     OW65303   5.560   0.612  13.228 -0.6040 -0.1887  0.0515
15898SOL    HW165304   5.606   0.694  13.213  1.9314 -1.2824  1.1670
15898SOL    HW265305   5.501   0.603  13.153  2.0986  0.6754 -2.3414
15899SOL     OW65306  12.584  13.203   3.673  0.0272  0.3085 -0.1027
15899SOL    HW165307  12.585  13.116   3.714  1.1214  1.0020  1.4593
15899SOL    HW265308  12.667  13.207   3.625  0.4038  0.7946  0.5708
15900SOL     OW65309  12.468   9.518  12.743  0.0217 -0.6731 -0.1146
15900SOL    HW165310  12.461   9.544  12.835 -0.5616  0.0606 -0.3565
15900SOL    HW265311  12.412   9.579  12.696 -0.6403 -1.7839 -0.8276
15901SOL     OW65312  11.293  10.902   9.698  0.0034  0.2756  0.3305
15901SOL    HW165313  11.317  10.994   9.690 -0.9771  0.4218 -1.1559
15901SOL    HW265314  11.204  10.896   9.665  0.0057 -1.1957  0.4958
15902SOL     OW65315   2.000   0.893   5.155  0.2019  0.1994  0.3185
15902SOL    HW165316   1.926   0.903   5.215 -0.1077 -2.1163  0.4067
15902SOL    HW265317   2.077   0.917   5.208 -0.2816  0.4854  0.9059
15903SOL     OW65318  14.064   9.042  13.223 -0.5000  0.1029  0.2322
15903SOL    HW165319  14.035   8.955  13.196 -1.2161  0.4277 -0.0684
15903SOL    HW265320  14.142   9.026  13.277 -0.2280 -0.6737 -0.3742
15904SOL     OW65321   0.859   7.682   6.469 -0.0154  0.0748  0.3371
15904SOL    HW165322   0.902   7.596   6.467  0.8743  0.4810  1.2383
15904SOL    HW265323   0.882   7.718   6.555  0.2581  1.5360 -0.3258
15905SOL     OW65324  11.864  10.367   1.765  0.2910 -0.1612  0.3425
15905SOL    HW165325  11.955  10.346   1.783 -0.0008 -1.6993  0.2202
15905SOL    HW265326  11.855  10.355   1.671 -0.8482 -3.9005  0.7617
15906SOL     OW65327   0.658   6.016   1.140 -0.4565  0.4909 -0.7295
15906SOL    HW165328   0.587   5.989   1.198  0.8052 -0.8270  0.2962
15906SOL    HW265329   0.720   6.060   1.198 -1.6425  4.2628 -2.0776
15907SOL     OW65330   5.400   7.470   5.764 -0.0555 -0.0074  1.2800
15907SOL    HW165331   5.399   7.468   5.860  2.6786  0.6763  1.3817
15907SOL    HW265332   5.486   7.504   5.741 -0.8594  0.4353 -1.4458
15908SOL     OW65333   9.153   9.534   6.320  0.0390 -0.2592  0.5667
15908SOL    HW165334   9.098   9.583   6.259  0.2738 -1.6357 -0.8191
15908SOL    HW265335   9.225   9.594   6.341 -0.1521  0.3048 -0.3592
15909SOL     OW65336  13.750   8.867   6.623 -0.4371  0.3676 -0.0602
15909SOL    HW165337  13.818   8.803   6.602 -1.4996 -0.9932  0.4714
15909SOL    HW265338  13.756   8.932   6.553  1.3750  0.2912 -0.0406
15910SOL     OW65339  11.014   6.256   2.062 -0.7169  0.0720 -0.3891
15910SOL    HW165340  11.091   6.284   2.014 -1.3659  2.0548 -0.3360
15910SOL    HW265341  11.047   6.227   2.147 -0.1516  2.6158  0.3333
15911SOL     OW65342   3.384   4.440   5.599 -0.4618 -0.1645  0.1138
15911SOL    HW165343   3.425   4.361   5.635  0.8292 -0.3276 -1.6364
15911SOL    HW265344   3.307   4.407   5.552 -0.5859 -0.2334  0.3596
15912SOL     OW65345  13.031  12.145   9.625  0.1459  0.7938 -0.2536
15912SOL    HW165346  13.063  12.134   9.715  1.4354  0.1178 -0.7787
15912SOL    HW265347  13.104  12.118   9.570 -0.9139  0.4118 -1.5122
15913SOL     OW65348   4.833   0.558   4.562  0.0154  0.5530 -0.9977
15913SOL    HW165349   4.884   0.628   4.602  1.1333 -0.2031 -1.0477
15913SOL    HW265350   4.789   0.516   4.636 -0.6170  1.2649 -0.9629
15914SOL     OW65351  11.189   0.747   1.674 -0.0323 -0.5100 -0.2573
15914SOL    HW165352  11.188   0.788   1.588  2.0343  0.1471 -0.0110
15914SOL    HW265353  11.201   0.819   1.736  1.6499 -1.2521  0.3250
15915SOL     OW65354   1.465   1.507   7.254 -0.1647 -0.3748 -0.9077
15915SOL    HW165355   1.407   1.581   7.235  0.7712  0.7542  0.4813
15915SOL    HW265356   1.553   1.539   7.234  0.4376 -0.4898  1.3054
15916SOL     OW65357   6.875  11.034   4.752 -0.2455 -0.3745 -0.2476
15916SOL    HW165358   6.854  11.115   4.799  2.2082  0.4324 -0.3636
15916SOL    HW265359   6.945  11.060   4.691 -2.4536 -1.6347 -3.5813
15917SOL     OW65360  13.624   0.793  12.822  0.7158 -0.3257  0.1476
15917SOL    HW165361  13.547   0.772  12.875 -0.2596  0.1596 -1.0340
15917SOL    HW265362  13.655   0.877  12.856 -0.3830  0.3778 -0.5486
15918SOL     OW65363   6.464  12.402   2.300  0.3473 -0.5707  0.0010
15918SOL    HW165364   6.516  12.388   2.221  0.1618  0.9816 -0.4417
15918SOL    HW265365   6.433  12.315   2.324  2.1132 -1.3662 -0.4311
15919SOL     OW65366   3.943   5.295   0.654  0.7061 -0.1278 -0.5361
15919SOL    HW165367   4.006   5.339   0.596  1.7171 -0.8779 -0.0349
15919SOL    HW265368   3.961   5.202   0.643  0.8841 -0.2896  0.9464
15920SOL     OW65369  11.122  12.973   2.303 -0.0636 -0.1453  0.3654
15920SOL    HW165370  11.096  12.994   2.213  1.1491 -0.8390 -0.1818
15920SOL    HW265371  11.119  13.056   2.349  0.9374  0.5556 -0.7646
15921SOL     OW65372   2.934  13.378  11.283  0.2115  0.4966  0.3747
15921SOL    HW165373   2.914  13.457  11.333  2.3684  0.8836  0.7041
15921SOL    HW265374   2.895  13.307  11.335 -0.5340  1.2057  0.8043
15922SOL     OW65375  13.166   0.775   5.749 -0.3916 -0.3485  0.1637
15922SOL    HW165376  13.106   0.701   5.756 -0.3795 -0.4624 -0.7900
15922SOL    HW265377  13.123   0.836   5.690  0.3571 -0.3657 -0.4189
15923SOL     OW65378  10.103   4.981  11.666  0.2416 -0.4141 -0.7583
15923SOL    HW165379  10.052   4.906  11.696 -0.0438  0.1736  0.2747
15923SOL    HW265380  10.177   4.985  11.727  0.5063 -0.1212 -1.0919
15924SOL     OW65381   5.329   4.505   0.978 -0.1221  0.4022  0.1161
15924SOL    HW165382   5.266   4.514   1.051  0.1005  0.3358  0.3175
15924SOL    HW265383   5.356   4.594   0.959 -0.1269  0.4139  0.1630
15925SOL     OW65384   3.006   4.180   1.381 -0.5455  0.0937 -0.5227
15925SOL    HW165385   2.973   4.259   1.423 -0.8585  0.2262 -1.0070
15925SOL    HW265386   3.082   4.209   1.331  2.0030 -0.6398  2.6229
15926SOL     OW65387   6.206  12.167   7.049 -0.2264 -0.4894  0.8984
15926SOL    HW165388   6.291  12.124   7.056 -1.0706 -2.4909 -0.1226
15926SOL    HW265389   6.203  12.198   6.958  0.4432  2.0672  1.6620
15927SOL     OW65390   5.227   9.370   4.393  0.1754  0.7963  0.4171
15927SOL    HW165391   5.152   9.429   4.385  0.2236  0.7411 -0.4836
15927SOL    HW265392   5.208   9.298   4.334 -0.3909 -0.6824  2.2994
15928SOL     OW65393   6.625   5.350   5.023  0.0125 -0.1230 -0.1460
15928SOL    HW165394   6.685   5.281   5.051 -1.1909 -1.6687 -1.1906
15928SOL    HW265395   6.546   5.304   4.995 -0.4215  1.5802 -2.0310
15929SOL     OW65396   2.206   1.418   6.793 -0.1544 -0.0677 -0.1241
15929SOL    HW165397   2.210   1.456   6.881  1.6009  0.3925 -0.3573
15929SOL    HW265398   2.167   1.487   6.739 -1.2943 -0.3739  0.2950
15930SOL     OW65399   9.093   5.297   1.843  0.1240 -0.5183  0.3047
15930SOL    HW165400   9.132   5.333   1.923  1.9019  1.2754 -1.2646
15930SOL    HW265401   9.017   5.353   1.827  0.2026 -0.4012  0.3404
15931SOL     OW65402   0.895  11.837   7.503 -0.2636 -0.5716 -0.3762
15931SOL    HW165403   0.965  11.847   7.439 -0.1489  0.3924 -0.1163
15931SOL    HW265404   0.861  11.748   7.488 -0.8567 -0.0480 -2.3934
15932SOL     OW65405   4.410   3.025   1.773  0.4797  0.8764 -0.3366
15932SOL    HW165406   4.332   2.984   1.810  1.8345 -1.7944 -0.1238
15932SOL    HW265407   4.413   3.112   1.813 -2.3985  1.1365 -0.4706
15933SOL     OW65408   7.369   5.992   4.478  0.7623  0.8255  0.3202
15933SOL    HW165409   7.370   5.914   4.423  0.6572  2.1137 -1.6138
15933SOL    HW265410   7.404   5.963   4.562 -1.6778 -1.8690  0.5452
15934SOL     OW65411   2.863  12.578   6.536  0.1629 -0.2426  0.2807
15934SOL    HW165412   2.937  12.593   6.595  0.4268  1.1710 -0.3572
15934SOL    HW265413   2.840  12.486   6.549  1.0591 -0.3105  1.5975
15935SOL     OW65414   1.246   4.514   2.381  0.1484  0.0278  0.2579
15935SOL    HW165415   1.153   4.531   2.395  0.1956 -0.8706  1.9120
15935SOL    HW265416   1.256   4.510   2.286 -1.1595  1.8450 -0.0185
15936SOL     OW65417  10.067   1.746   8.156 -0.1508 -0.6990 -0.0885
15936SOL    HW165418  10.075   1.746   8.061 -1.6849 -1.1634 -0.2424
15936SOL    HW265419  10.080   1.837   8.181 -0.5619 -0.4218 -0.8395
15937SOL     OW65420   4.247  11.051  11.553  0.3591 -0.1339  0.2501
15937SOL    HW165421   4.304  10.989  11.597  0.6807 -0.2804 -0.3638
15937SOL    HW265422   4.267  11.136  11.592 -0.8248 -0.5403  1.8434
15938SOL     OW65423   0.963   4.519   9.096 -0.4355 -0.2564  0.3845
15938SOL    HW165424   1.017   4.453   9.139  0.0056  1.0041  1.8730
15938SOL    HW265425   1.025   4.576   9.050 -0.9304 -1.9448 -2.6459
15939SOL     OW65426  12.529  11.232   5.054  0.3599  0.2893 -0.9174
15939SOL    HW165427  12.507  11.183   5.134 -0.0890  0.5562 -0.8712
15939SOL    HW265428  12.491  11.181   4.983  0.9745 -0.0776 -0.9835
15940SOL     OW65429   1.368   4.925   4.087  0.0772 -0.0133  0.2181
15940SOL    HW165430   1.357   4.896   4.178  1.3566  3.5644  1.7163
15940SOL    HW265431   1.284   4.964   4.064  0.2330  0.4760  0.4677
15941SOL     OW65432  13.162  10.032   1.359 -0.1579  0.4650 -0.6477
15941SOL    HW165433  13.112   9.956   1.389 -1.0887  2.6252  4.2174
15941SOL    HW265434  13.096  10.094   1.329  0.4169  0.2902 -2.3803
15942SOL     OW65435   1.256   0.845   7.836  0.4860  1.0554 -0.1464
15942SOL    HW165436   1.205   0.904   7.780  1.4106  1.0004 -1.0890
15942SOL    HW265437   1.341   0.839   7.792  0.3111 -1.2741 -0.2788
15943SOL     OW65438  11.863  13.265  10.071 -0.0975  0.0118  0.4798
15943SOL    HW165439  11.935  13.318  10.035 -0.6922  0.8502  0.5192
15943SOL    HW265440  11.858  13.291  10.163  0.3248 -0.9228  0.7774
15944SOL     OW65441   5.089   4.241   8.453 -0.1463  0.3591  0.1474
15944SOL    HW165442   5.001   4.259   8.418 -1.3376  1.4485  3.2895
15944SOL    HW265443   5.102   4.309   8.519  1.7991 -1.5152  1.8378
15945SOL     OW65444   2.692  13.445   0.496 -0.6421  0.1741  0.5355
15945SOL    HW165445   2.743  13.419   0.572 -1.5739  0.6253  1.3259
15945SOL    HW265446   2.667  13.535   0.513 -3.3833 -0.6129  1.1329
15946SOL     OW65447   4.889   7.940   9.459  0.2346 -1.0657  0.1122
15946SOL    HW165448   4.867   7.876   9.525 -0.4778 -0.5638  0.3705
15946SOL    HW265449   4.979   7.919   9.434  0.0226 -2.1396  0.2043
15947SOL     OW65450   1.025   5.684   6.031 -0.1499 -0.2682 -0.2909
15947SOL    HW165451   1.100   5.734   6.063 -1.0711  0.5461  0.6633
15947SOL    HW265452   0.971   5.669   6.108 -1.6612  0.3627 -1.1759
15948SOL     OW65453   9.777   0.969   8.710  0.0801  0.1875  0.2096
15948SOL    HW165454   9.744   0.891   8.755  2.0715 -0.5901  0.4125
15948SOL    HW265455   9.818   0.935   8.630  1.6372  0.8997  0.6612
15949SOL     OW65456  13.668   6.313   8.064 -0.1874  0.3751  0.4728
15949SOL    HW165457  13.738   6.342   8.122  0.1824 -0.1900  0.3139
15949SOL    HW265458  13.679   6.365   7.985 -1.2543  1.8130  1.2266
15950SOL     OW65459   3.828  10.959   2.306  0.0946 -1.1482 -0.1779
15950SOL    HW165460   3.819  11.052   2.324 -1.3538 -1.6691  2.2077
15950SOL    HW265461   3.816  10.916   2.390  0.0518 -3.5495 -1.3024
15951SOL     OW65462   8.024   4.599  12.688  0.2084  0.4425  0.2699
15951SOL    HW165463   8.057   4.572  12.774  0.0662  0.9803  0.4995
15951SOL    HW265464   7.965   4.672  12.707  1.0258  1.3008 -0.3835
15952SOL     OW65465   9.635  11.687  13.686 -0.5478  0.2666  0.3525
15952SOL    HW165466   9.704  11.726  13.739 -0.6781 -0.8618  1.4059
15952SOL    HW265467   9.581  11.639  13.749 -0.7983 -0.9861 -0.7794
15953SOL     OW65468  11.895  13.164   5.101 -0.3257 -0.4341  0.7163
15953SOL    HW165469  11.900  13.174   5.006 -0.7737 -0.9083  0.6397
15953SOL    HW265470  11.823  13.220   5.128 -0.6741 -0.8682  0.6884
15954SOL     OW65471   2.390   1.924  13.671 -0.0552 -0.0811 -0.2779
15954SOL    HW165472   2.374   1.865  13.598 -1.1345  0.6960 -0.6942
15954SOL    HW265473   2.483   1.913  13.690 -0.2844 -2.0941 -0.1482
15955SOL     OW65474   6.860   8.273   5.683  0.2774 -0.1094  0.1922
15955SOL    HW165475   6.798   8.337   5.648 -0.3416 -0.6036  0.3711
15955SOL    HW265476   6.946   8.304   5.653 -0.0751  0.4437 -0.2661
15956SOL     OW65477  10.458   0.874   1.814  0.6243  0.2898 -0.5232
15956SOL    HW165478  10.396   0.811   1.779  0.2636  0.6289 -0.5080
15956SOL    HW265479  10.544   0.843   1.785  0.3432  0.5517 -1.7112
15957SOL     OW65480   6.682   6.907   3.592 -0.1973  0.1514  1.0284
15957SOL    HW165481   6.730   6.987   3.611 -0.6093  0.7407 -0.3101
15957SOL    HW265482   6.610   6.934   3.535 -0.4948 -1.1281  0.7493
15958SOL     OW65483   8.222  10.715   4.385 -0.7112  0.4533 -0.3666
15958SOL    HW165484   8.309  10.682   4.405  0.5963  3.0165 -1.3039
15958SOL    HW265485   8.162  10.655   4.428  1.5378 -0.9781  0.9257
15959SOL     OW65486   9.455   3.835   2.168  0.3610  0.2226  0.0538
15959SOL    HW165487   9.444   3.801   2.257  0.1645  1.0039  0.3342
15959SOL    HW265488   9.543   3.807   2.143 -0.3227 -1.7901 -0.3157
15960SOL     OW65489   4.147  10.086  12.916 -0.2529  0.1846  0.0681
15960SOL    HW165490   4.128  10.171  12.957 -0.8761  0.4469 -0.7487
15960SOL    HW265491   4.160  10.027  12.990 -1.7834  0.5599  0.6883
15961SOL     OW65492  13.292   7.808   4.729  0.2647 -0.0905  0.3158
15961SOL    HW165493  13.208   7.838   4.692 -0.3108 -0.5813  1.1915
15961SOL    HW265494  13.330   7.754   4.659 -0.0282  0.3411 -0.1895
15962SOL     OW65495   9.955   1.895   4.461 -0.4694 -0.1644 -0.1862
15962SOL    HW165496   9.997   1.821   4.416 -0.3833 -0.2205 -0.0164
15962SOL    HW265497  10.013   1.913   4.535 -0.1395  0.5083 -0.6045
15963SOL     OW65498   0.389   6.570   8.937 -0.5843 -0.4498  0.4099
15963SOL    HW165499   0.441   6.518   8.876  0.6491  1.4178 -0.2237
15963SOL    HW265500   0.335   6.506   8.984  2.3877 -2.5496  1.2311
15964SOL     OW65501   0.970   1.032  12.218  0.0442  0.3393  0.0787
15964SOL    HW165502   0.992   0.962  12.279  0.6426  0.6255  0.2000
15964SOL    HW265503   0.938   1.103  12.274  1.2888  0.8767  0.1530
15965SOL     OW65504   9.603   8.725   0.345  0.1387 -0.3249 -0.5237
15965SOL    HW165505   9.596   8.792   0.277  0.1895 -1.8028 -2.0470
15965SOL    HW265506   9.636   8.648   0.299  1.3285 -1.0484  1.4338
15966SOL     OW65507   3.773   1.785   5.750  0.4565  0.1887  0.6194
15966SOL    HW165508   3.694   1.771   5.802  0.8928 -1.2442  0.9380
15966SOL    HW265509   3.740   1.814   5.665 -0.6106 -2.5339 -0.0212
15967SOL     OW65510  10.065   4.624   7.181  0.7380 -0.0338  0.6080
15967SOL    HW165511  10.076   4.715   7.154 -0.7111  0.3701  1.2445
15967SOL    HW265512  10.144   4.603   7.230  1.8655  0.3018 -0.9995
15968SOL     OW65513   5.259  12.509   5.805 -0.6331 -0.3656  0.8905
15968SOL    HW165514   5.306  12.471   5.880  0.9289 -0.2746  0.0001
15968SOL    HW265515   5.252  12.437   5.742 -1.8949 -0.4284  1.0803
15969SOL     OW65516   4.357   3.641  11.649  0.3169 -0.4024 -0.6029
15969SOL    HW165517   4.420   3.699  11.606  1.8906 -1.7456 -0.2054
15969SOL    HW265518   4.321   3.588  11.579 -0.5922  0.5461 -0.8688
15970SOL     OW65519   9.141   1.659   8.005 -0.6075  0.0957 -0.0812
15970SOL    HW165520   9.188   1.741   8.017 -0.8751 -0.0386  2.3326
15970SOL    HW265521   9.166   1.630   7.917  0.5810  2.0462 -0.4420
15971SOL     OW65522   8.339  10.297   4.218  0.1440 -0.1603 -0.3673
15971SOL    HW165523   8.411  10.347   4.181  1.3170 -0.9028  0.8269
15971SOL    HW265524   8.379  10.217   4.251 -1.2545 -0.6826  0.1529
15972SOL     OW65525  12.973   3.233   0.727 -0.5511  0.0537 -0.5711
15972SOL    HW165526  12.972   3.323   0.692 -0.8057  0.0574 -0.5567
15972SOL    HW265527  12.916   3.184   0.668 -1.5623  0.2172  0.2450
15973SOL     OW65528   8.895  11.370  14.072  0.4661 -0.4374 -0.2731
15973SOL    HW165529   8.823  11.344  14.014 -0.7665 -0.4392  1.2034
15973SOL    HW265530   8.861  11.445  14.121  0.8957 -1.3264  1.4802
15974SOL     OW65531  10.962   7.144   6.714 -0.2840 -0.1496 -0.1495
15974SOL    HW165532  10.989   7.072   6.771 -0.4285  0.7216  1.0896
15974SOL    HW265533  10.902   7.105   6.651 -0.4225 -1.0912  0.5501
15975SOL     OW65534  12.703  11.209   4.593 -0.1259 -0.0626 -0.1906
15975SOL    HW165535  12.700  11.166   4.507  0.0829 -0.8325  0.1791
15975SOL    HW265536  12.636  11.277   4.588 -0.7462 -0.6908 -0.6543
15976SOL     OW65537   9.414   4.029  13.376 -0.3496 -0.5785 -0.4944
15976SOL    HW165538   9.378   3.983  13.451 -1.3275 -1.1353 -1.2704
15976SOL    HW265539   9.501   4.057  13.403 -0.7700 -0.5821  0.8996
15977SOL     OW65540  11.374   4.121   2.135 -0.0344  0.0835  0.0748
15977SOL    HW165541  11.444   4.055   2.131  0.9623  1.1470 -1.9587
15977SOL    HW265542  11.418   4.203   2.115 -1.8334  0.8137 -1.1310
15978SOL     OW65543  10.305  12.989  12.602  0.0238  0.2291  0.3725
15978SOL    HW165544  10.264  13.076  12.608  0.0633  0.2011  1.0956
15978SOL    HW265545  10.398  13.006  12.618 -0.2163 -0.1725  2.3712
15979SOL     OW65546   0.019   9.753   8.907 -0.2409 -0.0268  0.6392
15979SOL    HW165547  -0.050   9.706   8.954  0.6241 -1.3067  0.6929
15979SOL    HW265548  -0.025   9.794   8.833 -0.9468 -1.5236  0.1939
15980SOL     OW65549  11.951   1.735   5.454  0.5868  0.3218  0.2912
15980SOL    HW165550  11.990   1.822   5.455  0.4886  0.3653  0.3454
15980SOL    HW265551  11.924   1.722   5.363 -2.0765  1.5493  0.8255
15981SOL     OW65552  10.056  13.906   3.368 -0.2677 -0.1866  0.4230
15981SOL    HW165553  10.135  13.960   3.353 -1.4720  1.0392 -2.1814
15981SOL    HW265554  10.082  13.818   3.341  0.3235  0.1284 -0.0712
15982SOL     OW65555   0.480  10.680  11.330 -0.0402  0.3104  0.1410
15982SOL    HW165556   0.479  10.756  11.389  0.6816  0.5895 -0.1863
15982SOL    HW265557   0.539  10.618  11.373  1.3616  0.9500 -0.7829
15983SOL     OW65558   8.059  13.394  13.876 -0.8796  0.2968 -0.1992
15983SOL    HW165559   8.100  13.476  13.846 -1.0693 -0.3409 -2.3247
15983SOL    HW265560   7.976  13.422  13.913 -0.1018  1.2448  0.9364
15984SOL     OW65561   6.354   8.235   0.823 -0.5502 -0.1255  0.6521
15984SOL    HW165562   6.286   8.188   0.774  0.0903  0.0776 -0.4756
15984SOL    HW265563   6.354   8.323   0.786  0.7974 -0.3221  0.1044
15985SOL     OW65564   3.771   9.369   8.817 -0.3680 -0.1963 -0.1159
15985SOL    HW165565   3.716   9.335   8.888 -0.6565 -0.7559 -0.5942
15985SOL    HW265566   3.713   9.368   8.741 -0.7103  2.3667  0.0435
15986SOL     OW65567   5.872   6.709  10.707 -0.2924  0.5505 -0.1579
15986SOL    HW165568   5.890   6.697  10.614 -0.5931 -0.8873 -0.0441
15986SOL    HW265569   5.950   6.677  10.751  0.4652  2.5867  0.0737
15987SOL     OW65570   6.995   6.725   2.046 -0.1395  0.0316  0.4778
15987SOL    HW165571   6.960   6.719   1.957 -1.0288 -1.3652  0.9023
15987SOL    HW265572   7.089   6.711   2.035 -0.0424  1.1388 -0.3613
15988SOL     OW65573   0.101   4.850   8.187  0.1358  0.2317  0.7774
15988SOL    HW165574   0.129   4.906   8.115  0.9836 -0.0571  0.8785
15988SOL    HW265575   0.182   4.820   8.228 -0.2904 -1.0814  0.7181
15989SOL     OW65576  11.340   5.056  13.626  0.0657 -0.0579 -0.5398
15989SOL    HW165577  11.256   5.031  13.663  0.7641 -1.0416  0.4357
15989SOL    HW265578  11.335   5.029  13.534 -0.6885 -0.0537 -0.5062
15990SOL     OW65579   8.054  13.685   2.565 -0.1797 -0.0989  0.1238
15990SOL    HW165580   8.122  13.629   2.528 -0.1102  0.4923 -0.6773
15990SOL    HW265581   7.973  13.636   2.554  0.0756 -0.7319  0.9242
15991SOL     OW65582   7.285   6.643   1.937 -0.3276  0.1761 -0.1710
15991SOL    HW165583   7.309   6.666   1.847 -1.5504 -0.7961 -0.7753
15991SOL    HW265584   7.234   6.563   1.929 -0.0266 -0.2155  1.4557
15992SOL     OW65585   5.212   5.313   8.336 -0.7774 -0.1306 -0.0824
15992SOL    HW165586   5.207   5.351   8.424  2.7794  0.6893 -0.0597
15992SOL    HW265587   5.257   5.379   8.284 -2.3734 -0.7928 -2.4529
15993SOL     OW65588   2.187   9.225   9.300  0.6082 -0.1881  0.1551
15993SOL    HW165589   2.098   9.216   9.264  0.9118 -0.0124 -0.6553
15993SOL    HW265590   2.174   9.268   9.384  0.0200  1.1452 -0.5724
15994SOL     OW65591   2.681  12.511  10.778  0.2552  0.4873 -0.2586
15994SOL    HW165592   2.669  12.418  10.757 -0.8095  0.7227 -0.7195
15994SOL    HW265593   2.742  12.543  10.711 -0.1802  0.3554 -0.7212
15995SOL     OW65594  10.097   5.370   8.322  0.2272 -0.2723 -0.7018
15995SOL    HW165595  10.191   5.365   8.341  0.1198 -2.7856 -0.4334
15995SOL    HW265596  10.057   5.307   8.382 -1.7147  1.1285 -0.4570
15996SOL     OW65597   7.497   1.484  13.839 -0.4769  0.1843  0.3128
15996SOL    HW165598   7.562   1.469  13.770 -1.4599  0.3897 -0.6758
15996SOL    HW265599   7.535   1.442  13.916  0.6715 -0.0013 -0.3256
15997SOL     OW65600   1.280  13.747   4.271  0.2943  0.9035  0.1538
15997SOL    HW165601   1.194  13.707   4.285  0.6669  0.3102  0.7907
15997SOL    HW265602   1.338  13.704   4.334  0.8697  1.9453  0.3622
15998SOL     OW65603   4.896  14.091  11.069 -0.5356 -0.6512 -0.4226
15998SOL    HW165604   4.804  14.099  11.045 -0.6564 -0.0819  0.2247
15998SOL    HW265605   4.943  14.123  10.992 -0.9328  1.5697  0.1853
15999SOL     OW65606  13.118   3.511   8.594 -0.0500 -0.0328 -0.0921
15999SOL    HW165607  13.047   3.563   8.632  0.8828  1.4026 -0.2003
15999SOL    HW265608  13.078   3.464   8.521 -0.8428  0.9779 -0.3388
16000SOL     OW65609   6.585   3.484   5.370 -0.5156 -0.2288 -0.4148
16000SOL    HW165610   6.553   3.475   5.280 -1.7715  0.9135 -0.1307
16000SOL    HW265611   6.506   3.471   5.424 -0.5889  2.7079  0.3309
16001SOL     OW65612  13.916   6.372   1.994 -0.2874 -0.4353  0.6945
16001SOL    HW165613  13.883   6.419   2.070 -0.1964  0.6946  0.0510
16001SOL    HW265614  13.941   6.440   1.932 -1.8882 -1.3280 -1.0117
16002SOL     OW65615   3.787   3.840   0.005 -0.2807 -0.5641 -0.2648
16002SOL    HW165616   3.823   3.896  -0.064 -2.6112  0.7932 -0.5215
16002SOL    HW265617   3.746   3.768  -0.042 -1.7534  0.2914 -0.3623
16003SOL     OW65618   1.485   4.518   4.120 -0.7770 -0.0358  0.1396
16003SOL    HW165619   1.399   4.511   4.078 -1.0697 -0.7107  0.8194
16003SOL    HW265620   1.545   4.480   4.057 -1.1531 -0.6470  0.1380
16004SOL     OW65621  11.381   8.657  13.080 -0.3704  0.1296  0.5583
16004SOL    HW165622  11.361   8.572  13.041 -1.8171  0.1180  1.2417
16004SOL    HW265623  11.454   8.691  13.029 -0.4765 -1.0497 -0.4170
16005SOL     OW65624  14.089   4.594  13.760  0.0565 -0.0192 -0.2840
16005SOL    HW165625  14.137   4.653  13.818  0.1731  0.0626 -0.4595
16005SOL    HW265626  13.997   4.613  13.776  0.0868  1.4900 -1.6004
16006SOL     OW65627   2.029   1.561  11.944 -0.3409 -0.4042 -0.5078
16006SOL    HW165628   1.960   1.585  11.882  0.2578  0.9784 -0.6775
16006SOL    HW265629   1.989   1.493  11.999 -2.3707  1.3252  0.3157
16007SOL     OW65630   9.729   4.421   5.527  0.0079  0.0513 -0.3029
16007SOL    HW165631   9.716   4.379   5.612 -1.0846  1.0055  0.0365
16007SOL    HW265632   9.711   4.353   5.463 -0.1273 -0.4200  0.2294
16008SOL     OW65633   8.407   6.630   5.006  0.1786 -0.0132  0.3708
16008SOL    HW165634   8.354   6.691   4.955  2.0321  0.8740 -0.5837
16008SOL    HW265635   8.488   6.678   5.024  0.8425 -1.4504  1.4351
16009SOL     OW65636  10.980   2.501   4.608  0.2151 -0.7588 -0.0200
16009SOL    HW165637  10.965   2.553   4.529  1.5221 -1.4696 -0.7623
16009SOL    HW265638  11.075   2.487   4.610  0.1488 -1.1243  1.4441
16010SOL     OW65639   9.118   7.153   0.351  0.1043 -0.4492 -0.2310
16010SOL    HW165640   9.129   7.078   0.292 -0.0608  0.1216 -1.0001
16010SOL    HW265641   9.032   7.140   0.391  0.6857 -1.4303  0.7588
16011SOL     OW65642  10.428  11.876   5.214 -0.2861 -0.0428 -0.3468
16011SOL    HW165643  10.440  11.960   5.170  0.0279  0.0155 -0.1476
16011SOL    HW265644  10.455  11.891   5.304 -1.7842  0.0759  0.1126
16012SOL     OW65645  11.828   3.947  11.078  0.3416 -0.4501 -0.3064
16012SOL    HW165646  11.779   3.875  11.117  0.2753 -0.4400 -0.3680
16012SOL    HW265647  11.917   3.937  11.110  0.4257 -0.7979 -0.6437
16013SOL     OW65648  11.830  12.939  13.715  0.4551 -0.1750  0.2775
16013SOL    HW165649  11.843  12.977  13.628  1.4344 -0.7761  0.1404
16013SOL    HW265650  11.746  12.893  13.709 -0.3302  1.2088  0.1919
16014SOL     OW65651   7.949   3.762   1.184  0.4506 -0.4770  0.0604
16014SOL    HW165652   7.978   3.844   1.144  0.8103 -0.2910  0.6764
16014SOL    HW265653   7.927   3.705   1.111 -0.6321  0.4658 -0.3680
16015SOL     OW65654   6.992   3.775   4.922 -0.0470  0.0499 -0.3192
16015SOL    HW165655   7.046   3.816   4.989  0.0479 -0.4281 -0.0958
16015SOL    HW265656   6.934   3.845   4.891 -0.7198  0.0578  0.9121
16016SOL     OW65657   3.662   9.703   6.166 -0.4350 -0.0227 -0.2858
16016SOL    HW165658   3.666   9.791   6.129 -2.2715 -0.0816 -0.7008
16016SOL    HW265659   3.686   9.645   6.094  4.1192  0.1434  0.7629
16017SOL     OW65660   3.329   0.818   9.976 -0.1230  0.1872 -0.3731
16017SOL    HW165661   3.292   0.745  10.026  0.5351  0.2582  0.2308
16017SOL    HW265662   3.348   0.781   9.890 -2.4340  0.3757 -1.0326
16018SOL     OW65663   2.671  13.389   2.261  0.2142 -0.0557 -0.2003
16018SOL    HW165664   2.667  13.479   2.293  1.5334 -0.0483 -0.0186
16018SOL    HW265665   2.685  13.335   2.339 -2.5218 -0.6700 -0.0224
16019SOL     OW65666   2.817   8.008   6.917  0.0194  0.1400 -0.0390
16019SOL    HW165667   2.900   8.000   6.964  0.8864  0.2683 -1.5028
16019SOL    HW265668   2.841   8.007   6.825 -1.7422 -1.4659 -0.5496
16020SOL     OW65669   2.611  13.810   9.803 -0.1618  0.0964  0.1601
16020SOL    HW165670   2.698  13.805   9.762 -0.3962 -0.7869 -0.2645
16020SOL    HW265671   2.622  13.768   9.888 -0.1654  0.0033  0.1148
16021SOL     OW65672   7.169   7.271  12.706  0.4368  0.4097  0.2182
16021SOL    HW165673   7.207   7.334  12.767  0.2015 -0.2158  1.0296
16021SOL    HW265674   7.099   7.229  12.755 -0.3871  0.5431 -0.7920
16022SOL     OW65675   8.248   9.383   6.252 -0.5701 -0.1142  0.2853
16022SOL    HW165676   8.161   9.418   6.272 -0.5824  0.1883 -0.2774
16022SOL    HW265677   8.299   9.400   6.332 -0.6808  0.8715  0.1658
16023SOL     OW65678   5.882   3.331   4.887  0.3944  0.2108 -0.0246
16023SOL    HW165679   5.870   3.375   4.971  1.4589 -0.2474  0.3949
16023SOL    HW265680   5.939   3.257   4.908  0.0187 -0.3666 -1.0168
16024SOL     OW65681   4.356   7.959  11.646 -0.0920 -0.1628 -0.5696
16024SOL    HW165682   4.414   8.026  11.683  0.9197 -1.0705 -0.4671
16024SOL    HW265683   4.394   7.938  11.561 -0.1156 -0.9475 -0.3936
16025SOL     OW65684  12.038   9.293   1.086  0.0263  0.0474 -0.0309
16025SOL    HW165685  12.101   9.298   1.159  1.4418 -0.3809 -1.1746
16025SOL    HW265686  12.093   9.281   1.009 -1.4887 -0.2735 -1.0841
16026SOL     OW65687   5.219  11.195  10.568 -0.0919  0.0203 -0.1788
16026SOL    HW165688   5.196  11.144  10.491  0.3058 -0.2229 -0.1442
16026SOL    HW265689   5.161  11.163  10.637 -0.2243  0.0078 -0.2964
16027SOL     OW65690   1.198  12.494   2.170  0.0871  0.5022 -0.4825
16027SOL    HW165691   1.208  12.405   2.138  0.8000  0.4282 -0.0715
16027SOL    HW265692   1.111  12.522   2.139 -0.0685 -0.2718 -0.7448
16028SOL     OW65693   4.740   6.366   3.549  0.4421 -0.1652 -0.0543
16028SOL    HW165694   4.748   6.277   3.513  0.7300 -0.4427  0.6936
16028SOL    HW265695   4.721   6.420   3.472  0.0691 -0.8969 -0.4966
16029SOL     OW65696  11.631   6.324   2.648  0.3175 -0.5296 -0.1114
16029SOL    HW165697  11.642   6.278   2.565 -1.6820  0.4274 -0.9637
16029SOL    HW265698  11.610   6.414   2.623 -0.3870 -0.2378  1.4321
16030SOL     OW65699   3.614  12.987   7.711 -0.1591  0.4230  0.0587
16030SOL    HW165700   3.603  12.966   7.804 -1.8764  0.6671 -0.0487
16030SOL    HW265701   3.641  13.079   7.711  1.0650  0.0896  0.3213
16031SOL     OW65702  11.699   7.478   5.060 -0.2534 -0.1642  0.4488
16031SOL    HW165703  11.625   7.423   5.034  0.6415  0.1464 -3.4733
16031SOL    HW265704  11.697   7.551   4.998  3.4669 -0.3535 -0.1080
16032SOL     OW65705   3.509   3.650   7.669 -0.3879 -0.1799  0.0268
16032SOL    HW165706   3.494   3.694   7.585 -0.8662  0.7489  0.5862
16032SOL    HW265707   3.433   3.592   7.678  0.3214 -1.2726 -0.7843
16033SOL     OW65708   6.096  10.108   6.644  0.3723 -0.6363  0.4087
16033SOL    HW165709   6.110  10.202   6.657  0.7590 -0.5481 -0.5336
16033SOL    HW265710   6.184  10.072   6.636  0.2196 -1.0608  0.6714
16034SOL     OW65711   2.255   5.469   7.903 -0.3378  0.1415 -0.3153
16034SOL    HW165712   2.332   5.494   7.954 -1.2796  1.2698  0.6062
16034SOL    HW265713   2.219   5.552   7.870 -0.1151 -0.5086 -2.3418
16035SOL     OW65714   8.295   9.382   3.043 -0.7458  0.7292 -0.5502
16035SOL    HW165715   8.387   9.367   3.065 -1.2465 -1.0664  0.6051
16035SOL    HW265716   8.294   9.390   2.948  0.2584 -3.0044 -1.0368
16036SOL     OW65717   2.924  11.579  11.763  0.4374 -0.1259  0.2074
16036SOL    HW165718   2.891  11.598  11.675  2.8292 -0.2497 -0.7781
16036SOL    HW265719   2.998  11.520  11.749  0.8134 -0.2278  2.3281
16037SOL     OW65720   2.060   9.266   5.887 -0.1471  0.3482  0.5066
16037SOL    HW165721   2.030   9.287   5.799 -4.4401 -0.9937  1.3717
16037SOL    HW265722   2.129   9.202   5.875 -0.0285  0.8284 -1.8478
16038SOL     OW65723   2.125   9.681  10.457 -0.0419  0.8067 -0.2769
16038SOL    HW165724   2.171   9.601  10.433  0.0693  0.7550  0.0993
16038SOL    HW265725   2.033   9.663  10.437 -0.4230 -0.3776  2.1432
16039SOL     OW65726   7.545   1.723   8.338 -0.1149  0.6103  0.5607
16039SOL    HW165727   7.527   1.698   8.247  1.4623 -0.1326  0.4212
16039SOL    HW265728   7.523   1.817   8.342 -2.8634  0.0749  0.1962
16040SOL     OW65729   0.186   9.341   1.040  0.0910  0.6681  0.0108
16040SOL    HW165730   0.262   9.284   1.025  0.4043  1.2900 -0.7997
16040SOL    HW265731   0.223   9.419   1.083 -0.5191 -0.2701  2.3995
16041SOL     OW65732   6.023   3.826   0.736  0.3943  0.0953 -0.3664
16041SOL    HW165733   6.113   3.855   0.747  0.3481 -0.4848  2.0603
16041SOL    HW265734   6.030   3.740   0.695  0.9249  0.1618 -0.4169
16042SOL     OW65735  13.799  12.699   1.737 -0.2382  0.4994  0.1212
16042SOL    HW165736  13.819  12.717   1.646 -1.5893  0.1420 -0.2756
16042SOL    HW265737  13.737  12.768   1.762  1.2963  1.5214  1.2543
16043SOL     OW65738   6.235   9.327   0.559  0.1108 -0.0302  0.0612
16043SOL    HW165739   6.196   9.263   0.619 -0.5134 -0.8392 -1.1478
16043SOL    HW265740   6.161   9.357   0.506  0.5452  1.1224  0.1011
16044SOL     OW65741  11.954   7.500   7.175  0.2675  0.1883  0.3729
16044SOL    HW165742  11.986   7.467   7.259  0.7184 -1.2919 -0.3638
16044SOL    HW265743  12.031   7.535   7.131  0.1502  0.3455  0.2905
16045SOL     OW65744   9.876  12.558  11.080 -0.3042  0.3937 -0.7051
16045SOL    HW165745   9.808  12.626  11.073 -3.0170 -2.0040  0.1833
16045SOL    HW265746   9.892  12.531  10.990 -0.1753  1.2830 -0.9591
16046SOL     OW65747  13.267  12.610   8.468 -0.3375  0.2850  0.1186
16046SOL    HW165748  13.267  12.705   8.474 -1.3609  0.3192 -0.3032
16046SOL    HW265749  13.296  12.592   8.378 -1.5083  0.2439 -0.2593
16047SOL     OW65750   3.796  11.217   9.210  0.2800 -0.8213 -0.1265
16047SOL    HW165751   3.772  11.221   9.302 -0.4908  0.5142 -0.3597
16047SOL    HW265752   3.718  11.247   9.163  1.2956  0.4447 -1.0958
16048SOL     OW65753   8.225   1.133   9.402 -0.3162 -0.1278 -0.4240
16048SOL    HW165754   8.311   1.111   9.440  0.0937  2.6111  0.4032
16048SOL    HW265755   8.244   1.147   9.309 -0.0360 -0.3675 -0.4064
16049SOL     OW65756  10.916   7.474  12.187  0.4125 -0.0988  0.1686
16049SOL    HW165757  10.854   7.401  12.190  1.0346 -0.5994  2.6672
16049SOL    HW265758  10.877   7.535  12.123 -0.1723 -2.4866 -1.9337
16050SOL     OW65759  13.994  11.623   3.291 -0.5623 -0.0584  0.1274
16050SOL    HW165760  14.075  11.586   3.256  0.2156  1.1239  0.6312
16050SOL    HW265761  13.979  11.575   3.372  0.2827  0.5189  0.6342
16051SOL     OW65762   2.994   8.729  13.799 -0.5288 -0.2405 -0.1514
16051SOL    HW165763   3.087   8.748  13.811 -0.5226  0.0258 -0.6200
16051SOL    HW265764   2.962   8.801  13.744 -1.2478  0.2610  0.8933
16052SOL     OW65765  11.956   9.787   9.810  0.1222  0.1730 -0.2018
16052SOL    HW165766  11.875   9.822   9.846  0.2908 -0.7153  1.1092
16052SOL    HW265767  11.932   9.755   9.723 -0.9307 -0.0825  0.1717
16053SOL     OW65768  12.926   3.859   4.330  0.1966 -0.2455  0.0495
16053SOL    HW165769  12.840   3.847   4.369 -0.9229  2.0572 -1.4481
16053SOL    HW265770  12.980   3.895   4.400 -1.4947  2.9094 -0.0627
16054SOL     OW65771   7.914   7.072   4.014  0.0075  0.1632 -0.2475
16054SOL    HW165772   7.819   7.083   4.011  0.2757  4.1615 -0.0010
16054SOL    HW265773   7.933   7.058   4.106 -0.3314 -1.6663 -0.4167
16055SOL     OW65774   0.004  12.661   8.109  0.2441 -0.7530 -0.1985
16055SOL    HW165775  -0.011  12.620   8.194  0.6087  2.6383  1.6528
16055SOL    HW265776  -0.082  12.660   8.067 -0.4174 -0.6094  1.1128
16056SOL     OW65777   3.005  11.286   5.055  0.5561 -0.8236 -0.1264
16056SOL    HW165778   2.955  11.261   5.133 -1.4630  0.8982 -0.7825
16056SOL    HW265779   3.022  11.379   5.066 -0.2268 -0.4262 -1.9492
16057SOL     OW65780  11.694   5.769   6.059  0.4537 -0.3876 -0.1427
16057SOL    HW165781  11.608   5.795   6.092  1.0629  1.0590  0.4232
16057SOL    HW265782  11.707   5.823   5.981  0.7761 -0.7111 -0.3155
16058SOL     OW65783   7.895   4.283   5.663  0.3393  0.4475 -0.2921
16058SOL    HW165784   7.882   4.190   5.684 -0.4030  0.4668 -0.6600
16058SOL    HW265785   7.891   4.327   5.748 -2.0721  0.4540 -0.3374
16059SOL     OW65786   0.535   6.698   1.455  0.4309  0.5441 -0.5293
16059SOL    HW165787   0.459   6.711   1.398  0.0058 -0.1762 -0.1313
16059SOL    HW265788   0.524   6.610   1.491  0.1898  1.3086  1.3866
16060SOL     OW65789   1.185   0.047   1.143  0.1313  0.1640 -0.0288
16060SOL    HW165790   1.124   0.120   1.158 -0.2091 -0.0375 -0.4328
16060SOL    HW265791   1.214   0.057   1.053  1.4325  0.8016  0.4343
16061SOL     OW65792   1.254  11.179   3.161  0.0556  0.1146  0.7089
16061SOL    HW165793   1.176  11.143   3.120 -0.0714  0.7334  0.4058
16061SOL    HW265794   1.250  11.148   3.252 -0.0971 -0.5515  0.4776
16062SOL     OW65795   1.792  13.544   9.257  1.1869 -0.0036  0.0976
16062SOL    HW165796   1.741  13.504   9.187 -0.0827  1.3426  0.1910
16062SOL    HW265797   1.726  13.579   9.317  2.1899  2.1649  0.0198
16063SOL     OW65798   4.783   1.886   3.103 -0.1423  0.2367  0.8358
16063SOL    HW165799   4.775   1.848   3.015  1.2242  2.9558 -0.5751
16063SOL    HW265800   4.834   1.822   3.152  2.5552  0.3390 -1.5798
16064SOL     OW65801   3.653   5.770   3.901  0.2598 -0.1406  0.3334
16064SOL    HW165802   3.714   5.734   3.965 -0.0320  1.4776  1.6085
16064SOL    HW265803   3.701   5.840   3.858 -0.3361  0.4201  0.5605
16065SOL     OW65804  11.100  11.441   4.851  0.2261 -0.2999 -0.6197
16065SOL    HW165805  11.162  11.507   4.883  0.2420  0.4124 -2.0279
16065SOL    HW265806  11.016  11.467   4.888  0.6005 -0.7635  0.5916
16066SOL     OW65807   2.212  11.710   6.444  0.6328  0.7020 -0.5429
16066SOL    HW165808   2.209  11.616   6.424  0.0121  0.9379 -1.6325
16066SOL    HW265809   2.137  11.747   6.397  1.1332  1.8140 -0.4945
16067SOL     OW65810   1.911   2.352  10.413  0.2047 -0.0633 -0.2456
16067SOL    HW165811   1.954   2.309  10.339  0.2999  0.5776 -0.5695
16067SOL    HW265812   1.982   2.390  10.464  0.0414  1.4012 -1.0338
16068SOL     OW65813   1.018   9.158   7.393 -0.4438  0.7048 -0.7393
16068SOL    HW165814   0.934   9.130   7.357 -1.2506  0.5864  1.1659
16068SOL    HW265815   1.004   9.163   7.487  2.0966 -0.6568 -0.2232
16069SOL     OW65816   9.544  11.264   2.354 -0.3207 -0.5279  0.0901
16069SOL    HW165817   9.544  11.342   2.409  0.8246 -0.5383  0.1312
16069SOL    HW265818   9.457  11.226   2.365 -0.9316  0.8091 -0.0397
16070SOL     OW65819   0.791  13.922   1.786 -0.0750 -1.2027 -0.3502
16070SOL    HW165820   0.797  13.833   1.753  1.5363 -0.6810 -1.6136
16070SOL    HW265821   0.833  13.976   1.718 -2.7193  0.7997 -0.5910
16071SOL     OW65822   5.853   6.023   3.306 -0.9086  0.3518 -0.6765
16071SOL    HW165823   5.893   6.083   3.244  0.3722  0.3524  0.1269
16071SOL    HW265824   5.825   6.079   3.378 -1.7468  0.2553 -0.9127
16072SOL     OW65825   1.971  11.907  14.016 -0.1747  0.3222  0.1172
16072SOL    HW165826   1.995  11.827  14.064  0.3746  0.5266  0.1924
16072SOL    HW265827   2.051  11.931  13.969 -0.4876  0.5517 -0.3001
16073SOL     OW65828  14.003   9.894  10.241 -0.4584  1.1306  0.3262
16073SOL    HW165829  13.986   9.883  10.147  0.6698  1.6035  0.0346
16073SOL    HW265830  14.091   9.932  10.244 -0.1982  0.4727  1.6110
16074SOL     OW65831  13.147   9.519   5.355  0.2817 -0.0121 -0.4565
16074SOL    HW165832  13.179   9.546   5.441 -0.4724 -0.1778 -0.1240
16074SOL    HW265833  13.197   9.439   5.335  0.2435 -0.1400 -0.0460
16075SOL     OW65834  12.723  13.053  12.993 -0.0052  0.1574 -0.1380
16075SOL    HW165835  12.811  13.070  13.025 -0.2399 -2.1307  2.0425
16075SOL    HW265836  12.681  13.139  12.990  1.4323  0.9793  1.5643
16076SOL     OW65837   1.274  10.583   0.974  0.5871 -0.4487  0.2480
16076SOL    HW165838   1.351  10.588   0.917 -0.0543 -1.1636 -0.7100
16076SOL    HW265839   1.283  10.499   1.019  0.5379 -0.3744  0.3995
16077SOL     OW65840   4.121   2.883   8.461 -0.0575 -0.6716 -0.4019
16077SOL    HW165841   4.126   2.800   8.414  0.2272 -1.1994  0.5273
16077SOL    HW265842   4.200   2.885   8.514  0.1593  0.4125 -0.7494
16078SOL     OW65843  11.678   1.393   3.051  0.7446 -0.5620  1.0026
16078SOL    HW165844  11.714   1.367   2.966 -0.3133  0.1012  0.3272
16078SOL    HW265845  11.707   1.483   3.063 -0.3270 -0.1588  0.6418
16079SOL     OW65846   9.602   1.534   6.273 -0.3728  0.7122 -0.6038
16079SOL    HW165847   9.619   1.475   6.200  0.2164  0.9809 -0.6869
16079SOL    HW265848   9.677   1.593   6.275 -0.7838  1.2410 -0.3070
16080SOL     OW65849   8.709   8.893   0.836  0.2313  0.5241 -0.0509
16080SOL    HW165850   8.786   8.878   0.781 -0.0903 -0.4966 -0.2412
16080SOL    HW265851   8.669   8.807   0.846 -0.2506  0.8485  1.0050
16081SOL     OW65852   8.503  12.561  13.321 -0.5629  0.0167 -0.2677
16081SOL    HW165853   8.512  12.495  13.389  1.4729  0.4586 -0.0359
16081SOL    HW265854   8.519  12.644  13.366  0.4076  0.3486 -1.1748
16082SOL     OW65855   3.295  13.660  10.911  0.2123 -0.0841  0.2258
16082SOL    HW165856   3.323  13.604  10.983 -2.1772  0.6027  1.8008
16082SOL    HW265857   3.209  13.693  10.937 -0.2317  1.1752 -2.4163
16083SOL     OW65858   2.862  11.629   2.280 -0.1906 -0.4559 -0.0306
16083SOL    HW165859   2.785  11.626   2.222  0.4381 -1.0883 -0.8510
16083SOL    HW265860   2.832  11.586   2.360 -0.1850 -2.3464 -0.9913
16084SOL     OW65861   0.386   1.398   2.595  0.5645  0.3478 -0.4656
16084SOL    HW165862   0.470   1.440   2.580  0.5106  1.0897  1.1273
16084SOL    HW265863   0.322   1.469   2.596 -0.1740 -0.2286 -1.9538
16085SOL     OW65864   8.953  12.899   7.436 -0.3999  0.0786 -0.2969
16085SOL    HW165865   8.948  12.951   7.356  2.1394  2.2115  0.7506
16085SOL    HW265866   8.965  12.809   7.406  0.9460  0.8659 -2.3365
16086SOL     OW65867   2.982   3.469   8.506  0.0220 -0.6904  0.3136
16086SOL    HW165868   2.982   3.470   8.602 -2.5233 -0.2904  0.3668
16086SOL    HW265869   2.893   3.494   8.482  1.2266  1.6452 -2.2120
16087SOL     OW65870   7.676  13.530   3.705 -0.5093 -0.1345  0.4630
16087SOL    HW165871   7.707  13.477   3.779 -0.2588 -3.3441 -1.6966
16087SOL    HW265872   7.593  13.567   3.735 -0.8921 -2.1087  2.0700
16088SOL     OW65873  13.159   7.451  11.678  0.9408  0.3647  0.3692
16088SOL    HW165874  13.154   7.466  11.584 -1.9040  0.6401  0.5053
16088SOL    HW265875  13.251   7.470  11.700  1.4117  1.3622 -2.1252
16089SOL     OW65876  11.285   5.934   4.864  0.4704  0.0462 -0.2578
16089SOL    HW165877  11.220   5.992   4.905 -0.6574 -0.1192 -1.7260
16089SOL    HW265878  11.250   5.846   4.877  0.8817 -0.1189 -0.2553
16090SOL     OW65879   5.259   9.359  12.399 -0.5846  0.5087 -0.4016
16090SOL    HW165880   5.283   9.449  12.422 -1.8377  0.7104  0.2276
16090SOL    HW265881   5.228   9.321  12.482  0.3445 -0.6595 -0.5571
16091SOL     OW65882  10.275  13.720   1.776  0.3375  0.3634  0.2477
16091SOL    HW165883  10.284  13.672   1.859  0.0877  0.3998  0.2988
16091SOL    HW265884  10.272  13.812   1.801  0.6694  0.3970  0.1616
16092SOL     OW65885  11.288   8.223   1.338  0.4253  0.2821 -0.1817
16092SOL    HW165886  11.280   8.294   1.274  0.4796 -0.7957 -1.4085
16092SOL    HW265887  11.336   8.154   1.292 -1.9014 -1.6307  0.0406
16093SOL     OW65888   9.603  13.288  11.379 -0.4198 -0.0941 -0.1511
16093SOL    HW165889   9.685  13.331  11.355  0.1272  0.1992  1.9851
16093SOL    HW265890   9.537  13.357  11.369 -0.2170  0.0253 -0.7080
16094SOL     OW65891   2.923   4.834   2.272 -0.4168  0.2347  0.3846
16094SOL    HW165892   3.010   4.833   2.233 -0.4805  0.0773  0.2472
16094SOL    HW265893   2.926   4.905   2.337  0.2287 -0.6400  1.3443
16095SOL     OW65894   2.998   9.782  12.347  0.3604 -0.1103  0.4469
16095SOL    HW165895   3.087   9.748  12.337  0.7195  1.0191 -0.4698
16095SOL    HW265896   3.008   9.877  12.343 -0.7655  0.0835  1.5099
16096SOL     OW65897   8.380   3.842   4.792  0.5425  0.2139 -0.4330
16096SOL    HW165898   8.376   3.932   4.760  0.1955  0.0282 -0.9113
16096SOL    HW265899   8.466   3.836   4.834  0.7902  0.6045 -0.8759
16097SOL     OW65900  10.077   2.335  11.553  0.6601 -0.2738  0.5732
16097SOL    HW165901  10.007   2.375  11.501 -0.4791  0.6136  2.6268
16097SOL    HW265902  10.142   2.307  11.489 -0.1711  1.6242 -1.2441
16098SOL     OW65903   4.813   5.848   1.102 -0.2684 -0.0989  0.0824
16098SOL    HW165904   4.755   5.772   1.113 -1.3322  0.5542 -0.8498
16098SOL    HW265905   4.810   5.867   1.009  1.8853 -0.3454 -0.0978
16099SOL     OW65906   3.269  12.336   3.768 -0.1476  0.4707 -0.2316
16099SOL    HW165907   3.275  12.400   3.697  0.5928  1.0433  0.3295
16099SOL    HW265908   3.184  12.294   3.755 -0.4349  1.2291 -0.8991
16100SOL     OW65909   6.877  12.566   5.517 -0.5627 -0.4798 -0.5904
16100SOL    HW165910   6.874  12.498   5.584 -3.1508  0.4349  0.3181
16100SOL    HW265911   6.846  12.522   5.437 -2.1132 -0.4485 -0.0359
16101SOL     OW65912   0.490   4.753   3.330  0.0016 -0.1269  0.3420
16101SOL    HW165913   0.575   4.778   3.367 -0.4988  0.9015  0.8663
16101SOL    HW265914   0.461   4.832   3.283  0.4297 -1.2641 -1.9545
16102SOL     OW65915  12.637   9.135  13.518  0.3336  0.9536  0.3638
16102SOL    HW165916  12.638   9.044  13.545 -1.0731  0.6939 -0.3883
16102SOL    HW265917  12.728   9.153  13.491  0.6323 -0.1938  0.5658
16103SOL     OW65918  12.289   2.126  12.559 -0.1620 -0.3085  0.2530
16103SOL    HW165919  12.201   2.091  12.575 -0.9110  1.4764  0.3133
16103SOL    HW265920  12.346   2.077  12.618 -1.5411  0.2308  2.1156
16104SOL     OW65921   3.819   7.042   0.751 -0.4063 -0.1249  0.7318
16104SOL    HW165922   3.853   7.093   0.677 -2.1605  1.3598  0.8836
16104SOL    HW265923   3.798   6.957   0.712  2.6469 -0.9059  0.4920
16105SOL     OW65924   4.536   4.009   7.117  0.4608 -0.9623  0.6347
16105SOL    HW165925   4.529   3.961   7.199  1.1189 -1.8903  0.1589
16105SOL    HW265926   4.446   4.029   7.093  0.3060  0.8805  2.4561
16106SOL     OW65927   6.535   7.594  12.724 -0.5921 -0.1910 -0.3476
16106SOL    HW165928   6.616   7.547  12.746 -1.1373 -0.7359  0.5332
16106SOL    HW265929   6.485   7.532  12.672  0.0684  0.5902 -2.0147
16107SOL     OW65930   2.756   6.516  12.951  0.0775 -0.2093  0.1767
16107SOL    HW165931   2.816   6.441  12.951  0.5618  0.1430  1.5660
16107SOL    HW265932   2.723   6.520  13.041  0.4273  1.5006  0.2672
16108SOL     OW65933   5.296  12.346   2.883  0.2891  0.0789 -0.0186
16108SOL    HW165934   5.380  12.370   2.844  0.2831 -1.5115 -1.1014
16108SOL    HW265935   5.317  12.307   2.967  0.6555 -0.3584 -0.3095
16109SOL     OW65936  11.957  10.026   1.400  0.6522 -0.4405 -0.0083
16109SOL    HW165937  11.960   9.939   1.440  1.0619 -1.0654 -1.3329
16109SOL    HW265938  11.908  10.013   1.319 -0.1269  0.7803  0.2478
16110SOL     OW65939   0.389   8.073   8.102 -0.0534 -1.1136  0.1532
16110SOL    HW165940   0.371   8.125   8.181  0.4306 -0.0833 -0.3963
16110SOL    HW265941   0.307   8.076   8.052 -0.1499 -1.2213  0.3008
16111SOL     OW65942   7.477  10.693   4.544 -0.0462  0.2491  0.2673
16111SOL    HW165943   7.458  10.760   4.610  2.5137  1.5501 -0.1949
16111SOL    HW265944   7.573  10.688   4.542 -0.1164 -1.5367 -1.6087
16112SOL     OW65945   2.507   5.625   9.426  0.4331 -0.3579  0.0170
16112SOL    HW165946   2.493   5.568   9.350 -0.9798 -0.0493  0.0224
16112SOL    HW265947   2.537   5.566   9.495  2.7590 -0.5038 -1.0111
16113SOL     OW65948   3.117  13.767   0.102  0.0307 -0.5401  0.2093
16113SOL    HW165949   3.193  13.821   0.126 -0.0739 -0.2989 -0.0035
16113SOL    HW265950   3.090  13.727   0.185  1.0840 -1.5385  0.1056
16114SOL     OW65951   1.826   5.350   4.566 -0.2707 -0.3285  0.1770
16114SOL    HW165952   1.878   5.295   4.507 -1.3705 -1.1274 -0.0764
16114SOL    HW265953   1.779   5.288   4.621  0.9301  0.3960  2.1261
16115SOL     OW65954  13.612   0.758  13.986  0.1748  0.1225  0.0691
16115SOL    HW165955  13.695   0.756  13.938 -0.4295 -1.6409 -1.0080
16115SOL    HW265956  13.636   0.786  14.074  1.4043  2.9274 -1.0482
16116SOL     OW65957   0.115   3.719   6.582  0.1258 -0.0460 -0.6534
16116SOL    HW165958   0.115   3.632   6.623  0.9538  1.1020  2.0031
16116SOL    HW265959   0.044   3.766   6.625  0.7135  1.0877 -0.8892
16117SOL     OW65960   5.391   1.308  13.115  0.2530 -0.1322 -0.0380
16117SOL    HW165961   5.340   1.386  13.094  0.7978 -0.5460 -3.6933
16117SOL    HW265962   5.331   1.235  13.095  0.6338 -0.6348  0.6432
16118SOL     OW65963   0.267   8.001  11.610  0.3626  0.5632 -0.0754
16118SOL    HW165964   0.351   8.036  11.577  1.7084 -1.2735  1.2380
16118SOL    HW265965   0.247   8.055  11.687  0.8712  0.3581  0.2025
16119SOL     OW65966   7.438   7.444   3.235 -0.0089 -0.3497 -0.2604
16119SOL    HW165967   7.453   7.354   3.265 -0.5732  0.0930  1.4920
16119SOL    HW265968   7.519   7.491   3.257  0.2633 -0.3986 -1.1191
16120SOL     OW65969   7.994  12.763  11.712 -0.6009 -0.7087 -0.4135
16120SOL    HW165970   7.912  12.783  11.666 -1.0830 -1.3353  0.1562
16120SOL    HW265971   8.060  12.812  11.664 -1.1128 -1.2002 -1.6691
16121SOL     OW65972  12.210   3.240   3.340  0.1354 -0.5826 -0.7189
16121SOL    HW165973  12.156   3.203   3.270  0.8048 -1.4430 -0.7974
16121SOL    HW265974  12.153   3.241   3.417 -0.3786 -0.3049 -1.1028
16122SOL     OW65975   2.406   4.165   1.771  0.2237 -0.5677  0.1436
16122SOL    HW165976   2.368   4.081   1.747  1.5668 -1.1863  0.0692
16122SOL    HW265977   2.470   4.184   1.703 -1.4247  1.5363 -0.9555
16123SOL     OW65978   4.312   4.257   5.742 -0.8896 -0.9377 -0.2959
16123SOL    HW165979   4.262   4.232   5.664  0.9522 -2.8973 -0.9623
16123SOL    HW265980   4.362   4.333   5.714 -3.7635  1.4297  0.5631
16124SOL     OW65981   0.699  13.034   6.937 -1.0926  0.0579 -0.0154
16124SOL    HW165982   0.639  12.964   6.911 -0.8129 -0.2933  0.2684
16124SOL    HW265983   0.724  13.076   6.855 -0.3376 -0.9383 -0.3237
16125SOL     OW65984   6.736  12.400  11.595 -0.0639  0.5823 -0.5503
16125SOL    HW165985   6.694  12.433  11.674  0.7509  1.5713 -0.5066
16125SOL    HW265986   6.822  12.370  11.624  0.0515  0.4955 -0.9761
16126SOL     OW65987   3.746  11.453  10.130  0.0861 -0.1610  0.7120
16126SOL    HW165988   3.780  11.377  10.083  0.0750 -0.4205  1.1178
16126SOL    HW265989   3.728  11.421  10.218 -0.8005  0.0811  0.6274
16127SOL     OW65990   7.596   4.887   5.803  0.0459  0.4575  0.2246
16127SOL    HW165991   7.529   4.822   5.824 -1.5821  1.3474 -1.7801
16127SOL    HW265992   7.570   4.965   5.852  0.0053  0.5948 -0.0131
16128SOL     OW65993   1.556   0.524   4.481 -0.1620 -0.6492  0.8741
16128SOL    HW165994   1.637   0.538   4.531  1.7248 -0.8256 -1.9399
16128SOL    HW265995   1.560   0.433   4.453 -1.1699 -0.5506  0.3667
16129SOL     OW65996   2.970   0.821   4.650 -0.2938  0.1610 -0.1390
16129SOL    HW165997   3.056   0.863   4.661  0.0441 -0.9121  1.9544
16129SOL    HW265998   2.941   0.804   4.739 -1.8459 -1.1734 -0.8530
16130SOL     OW65999  13.146   9.914   6.666  0.3705 -0.4080  0.2774
16130SOL    HW166000  13.235   9.898   6.633  0.3207  1.3525 -0.8268
16130SOL    HW266001  13.159   9.971   6.741  0.2265 -1.3223  1.0222
16131SOL     OW66002   8.505  13.556   8.847  0.3971  0.5410 -0.1097
16131SOL    HW166003   8.477  13.465   8.859 -2.5521  1.1986 -1.2397
16131SOL    HW266004   8.569  13.570   8.917  0.4637 -2.1715  0.5081
16132SOL     OW66005   5.848  12.058   5.644  0.1945 -0.4471 -0.0851
16132SOL    HW166006   5.899  11.979   5.660 -1.5760 -1.8738 -1.0814
16132SOL    HW266007   5.821  12.051   5.552 -0.2466  1.1696 -0.1069
16133SOL     OW66008  12.530  12.651   4.764  0.1768  0.0878  0.3224
16133SOL    HW166009  12.474  12.573   4.770  0.2640  0.0425  0.5932
16133SOL    HW266010  12.468  12.723   4.757  0.1092 -0.0717 -0.8244
16134SOL     OW66011   8.068   8.833   2.965 -0.4922 -0.0799  0.2625
16134SOL    HW166012   8.012   8.906   2.988  0.2892  0.3697  0.7805
16134SOL    HW266013   8.046   8.813   2.873  0.6123  2.0570 -0.5236
16135SOL     OW66014   9.043   4.894   4.389 -0.2560  0.2185  0.2797
16135SOL    HW166015   9.136   4.882   4.371  0.0706 -0.1960  2.0353
16135SOL    HW266016   8.998   4.849   4.317  0.8844  0.3311 -0.5298
16136SOL     OW66017   5.976   0.609   3.639 -0.1549  0.4504  0.4801
16136SOL    HW166018   5.987   0.703   3.652 -0.8871  0.9683 -2.1496
16136SOL    HW266019   6.034   0.570   3.705 -0.3596  2.6818  2.1200
16137SOL     OW66020  10.706   0.178   9.457 -0.5199 -0.0825  0.1969
16137SOL    HW166021  10.756   0.150   9.380  0.2663 -0.3820  0.8061
16137SOL    HW266022  10.667   0.262   9.431 -1.6462 -0.9541 -1.1106
16138SOL     OW66023   1.320   8.210  10.787  0.0183 -0.1959 -0.3675
16138SOL    HW166024   1.392   8.237  10.730  0.1251 -3.2072 -1.8353
16138SOL    HW266025   1.297   8.122  10.758 -0.9546 -1.3406  3.2889
16139SOL     OW66026   8.458   4.226   3.999  0.1346 -0.6768  0.1284
16139SOL    HW166027   8.538   4.219   4.050  1.0222 -0.5843 -1.1924
16139SOL    HW266028   8.456   4.147   3.945 -0.5732 -0.6019  0.0263
16140SOL     OW66029   0.665  13.918  12.070  0.6685  0.2996 -0.2088
16140SOL    HW166030   0.606  13.929  12.144  1.1971 -0.4252  0.3277
16140SOL    HW266031   0.632  13.841  12.024  0.5740  0.5172 -0.5080
16141SOL     OW66032   4.876  13.795  12.682  0.3087  0.0082 -0.5080
16141SOL    HW166033   4.915  13.856  12.745  0.2862  0.8321 -1.2700
16141SOL    HW266034   4.813  13.744  12.733  0.8391  0.1368  0.2872
16142SOL     OW66035   2.335  11.821   4.954 -0.0672  0.6967 -0.4719
16142SOL    HW166036   2.368  11.869   5.030 -0.3407  1.5482 -0.8903
16142SOL    HW266037   2.258  11.775   4.986  0.0140  0.7872 -0.1479
16143SOL     OW66038   4.283  11.053   3.946 -0.1233  0.2208  0.1542
16143SOL    HW166039   4.306  10.967   3.912 -3.3623 -1.5508  1.8629
16143SOL    HW266040   4.297  11.046   4.041 -2.5915  0.6303  0.6352
16144SOL     OW66041  12.301  13.506   4.092  0.1135  0.3788 -0.2105
16144SOL    HW166042  12.386  13.522   4.051 -0.2985 -0.1340 -1.3117
16144SOL    HW266043  12.282  13.414   4.071 -0.6951  0.4771  0.0752
16145SOL     OW66044   2.882   8.482   2.100 -0.3336 -0.2916 -0.3064
16145SOL    HW166045   2.890   8.520   2.188  1.9027 -1.3693  0.0126
16145SOL    HW266046   2.798   8.436   2.102  1.1109 -3.2137  2.5504
16146SOL     OW66047   3.223   1.001  13.058 -0.7791 -0.1832 -0.7479
16146SOL    HW166048   3.311   1.039  13.061 -0.7682 -0.2194 -0.5869
16146SOL    HW266049   3.234   0.918  13.010 -1.1086  0.8154 -2.6574
16147SOL     OW66050   4.871  10.431   3.863 -0.1159  0.4072  0.4038
16147SOL    HW166051   4.850  10.416   3.955 -0.4921 -1.0928  0.1021
16147SOL    HW266052   4.963  10.408   3.855 -0.1010  0.4736  0.3799
16148SOL     OW66053   0.426   3.087   4.695 -0.1597 -0.2669 -0.5422
16148SOL    HW166054   0.358   3.026   4.721  0.0575 -0.3212 -0.0880
16148SOL    HW266055   0.431   3.080   4.600 -0.5877 -0.4717 -0.5482
16149SOL     OW66056   4.142   5.952   2.925 -0.1285  0.1123 -0.7521
16149SOL    HW166057   4.116   5.897   2.851  1.1552  1.5881 -2.3736
16149SOL    HW266058   4.236   5.968   2.911 -0.4705  2.7865 -0.4238
16150SOL     OW66059  10.112   4.074   1.891  0.0108  0.1079  0.1421
16150SOL    HW166060  10.140   4.148   1.837  0.5111 -1.3182 -1.6958
16150SOL    HW266061  10.171   4.074   1.966  1.2425  0.4923 -0.7999
16151SOL     OW66062  13.609   4.837   6.271  0.6050 -0.2551 -0.0253
16151SOL    HW166063  13.595   4.778   6.198  0.9043  0.6047 -0.7912
16151SOL    HW266064  13.659   4.785   6.335  4.2555  0.2143 -2.2170
16152SOL     OW66065   9.706   6.807   0.049  0.1844 -0.4564 -0.2250
16152SOL    HW166066   9.725   6.767   0.133  0.0541 -0.5934 -0.2584
16152SOL    HW266067   9.615   6.835   0.056  0.9718  2.1182  0.6943
16153SOL     OW66068   0.304   6.274   4.836 -0.9732  0.3055 -0.3558
16153SOL    HW166069   0.241   6.323   4.889 -0.2957  0.4660  0.3255
16153SOL    HW266070   0.252   6.205   4.794 -1.8785  1.3736 -1.0536
16154SOL     OW66071   6.091  11.500  12.145  0.4532 -0.1165 -0.0143
16154SOL    HW166072   6.127  11.511  12.057 -1.4033  0.9279 -0.7183
16154SOL    HW266073   6.156  11.540  12.203  1.3154 -0.0412 -1.0025
16155SOL     OW66074  13.788   1.999   3.754  0.1845 -0.3976 -0.3861
16155SOL    HW166075  13.845   2.075   3.739 -0.1152  0.0949  0.8310
16155SOL    HW266076  13.701   2.037   3.765  0.1280 -0.8508  0.8456
16156SOL     OW66077   7.266  13.266  10.168  0.0788 -0.1820 -0.2782
16156SOL    HW166078   7.186  13.214  10.157 -1.0908  1.9902 -3.5322
16156SOL    HW266079   7.237  13.343  10.217 -0.7460  1.9543 -3.7419
16157SOL     OW66080  12.908  10.201   9.796 -0.2454  0.0897  0.3679
16157SOL    HW166081  12.946  10.120   9.831 -0.4404  0.2223  0.9007
16157SOL    HW266082  12.813  10.184   9.797 -0.3837  0.8531  1.8480
16158SOL     OW66083   4.500  11.583   8.911  0.0223  0.1690 -0.5643
16158SOL    HW166084   4.493  11.494   8.947 -2.2757 -0.1528 -1.6599
16158SOL    HW266085   4.588  11.586   8.873  0.1709 -1.6237 -0.4497
16159SOL     OW66086   5.702  14.062   5.621  0.6782  0.4760 -0.1407
16159SOL    HW166087   5.630  14.067   5.684  0.8228  0.2527  0.0428
16159SOL    HW266088   5.662  14.025   5.542  0.7788 -0.4713  0.2432
16160SOL     OW66089   4.704  11.510   4.551 -0.2481  0.1816  0.7129
16160SOL    HW166090   4.731  11.494   4.461 -1.2371 -2.2800  0.7770
16160SOL    HW266091   4.741  11.597   4.572 -0.8577  1.3121 -2.3398
16161SOL     OW66092   5.316   1.501   4.015 -0.0715  0.2729  0.4160
16161SOL    HW166093   5.222   1.507   3.996 -0.0913 -0.1614  0.3792
16161SOL    HW266094   5.320   1.478   4.108 -0.0124 -0.3900  0.2531
16162SOL     OW66095   5.192   2.701   8.607 -0.1528  0.5969  0.5110
16162SOL    HW166096   5.198   2.788   8.569  2.3874  0.1365 -0.3403
16162SOL    HW266097   5.252   2.703   8.682 -1.2693  0.0161  1.4482
16163SOL     OW66098   7.791  12.849  11.575  0.0291 -0.4245 -0.6325
16163SOL    HW166099   7.778  12.826  11.483 -3.5104 -0.4346 -0.2601
16163SOL    HW266100   7.795  12.945  11.576 -0.7218 -0.3876 -0.7447
16164SOL     OW66101  12.291  11.108   0.094  0.0111 -0.2128  0.0276
16164SOL    HW166102  12.322  11.026   0.131 -1.1541 -0.9729 -0.5829
16164SOL    HW266103  12.370  11.157   0.072  0.7298 -1.2968  0.1513
16165SOL     OW66104   8.129   1.670   4.814  0.0345  0.1969  0.5167
16165SOL    HW166105   8.161   1.756   4.788 -0.5796 -0.0156 -1.0501
16165SOL    HW266106   8.209   1.619   4.831  0.4403  0.6891  0.1171
16166SOL     OW66107   9.870   9.063   9.187  0.2601  0.1480 -0.0187
16166SOL    HW166108   9.867   8.970   9.209 -1.3683  0.5185  1.5749
16166SOL    HW266109   9.926   9.102   9.255  0.5441  0.4095 -0.3987
16167SOL     OW66110   2.409   7.910   1.662  0.0751 -0.1744  0.6866
16167SOL    HW166111   2.480   7.974   1.656  0.6067 -0.8627 -0.9522
16167SOL    HW266112   2.382   7.896   1.571  0.6393 -2.9907  0.8686
16168SOL     OW66113   9.017   4.135   1.298  0.0333 -0.5528  0.3112
16168SOL    HW166114   8.971   4.072   1.354 -0.3207 -1.0498 -0.5163
16168SOL    HW266115   8.966   4.136   1.217  0.6047  0.0606 -0.0484
16169SOL     OW66116   2.131   1.406   6.020  0.1242 -0.5313 -0.9015
16169SOL    HW166117   2.184   1.350   6.077 -0.8239  0.1458  0.7183
16169SOL    HW266118   2.191   1.477   5.996  0.2284 -0.1884  0.2726
16170SOL     OW66119   1.186   6.986   7.337  0.4505  0.1768 -0.1380
16170SOL    HW166120   1.130   6.963   7.263  1.1914  0.4662 -0.8164
16170SOL    HW266121   1.133   6.970   7.415 -0.4576  0.1730 -0.7495
16171SOL     OW66122  11.144   1.597  13.498 -0.1718 -0.1409  0.4325
16171SOL    HW166123  11.106   1.619  13.413  1.3010  1.1122  0.0567
16171SOL    HW266124  11.136   1.677  13.550  1.6799  0.1084  0.4027
16172SOL     OW66125   2.809   1.617   1.039 -0.7251 -0.4101 -0.4275
16172SOL    HW166126   2.731   1.567   1.016 -3.2664  2.3897  1.4338
16172SOL    HW266127   2.811   1.689   0.976  0.6109 -0.6217 -0.6634
16173SOL     OW66128  13.673   5.359   2.878 -0.1817 -0.6277 -0.1307
16173SOL    HW166129  13.614   5.428   2.849  0.5387  0.9154  1.8302
16173SOL    HW266130  13.760   5.400   2.878  0.4307 -1.8645  0.0516
16174SOL     OW66131   8.757   2.962  10.745  0.6464  0.1387  1.0079
16174SOL    HW166132   8.731   3.042  10.790 -1.4272 -0.4238  0.9172
16174SOL    HW266133   8.677   2.909  10.740  1.1445 -0.5622 -1.8329
16175SOL     OW66134   5.878   4.822   9.196  0.0551 -0.1852 -0.0268
16175SOL    HW166135   5.823   4.891   9.233  0.0080  0.1532 -0.7035
16175SOL    HW266136   5.817   4.770   9.144  0.1328 -0.6061  0.2993
16176SOL     OW66137  11.857   5.965   5.553  0.5188 -0.0413  0.1058
16176SOL    HW166138  11.807   6.046   5.546  0.0354 -0.2265  1.2283
16176SOL    HW266139  11.939   5.983   5.507 -0.5233  0.2995 -1.7220
16177SOL     OW66140  13.017   3.561   7.321 -0.8159 -0.1550  0.5555
16177SOL    HW166141  12.986   3.647   7.348  2.4779  0.3692  3.3086
16177SOL    HW266142  13.005   3.505   7.397  0.2617 -1.2045 -0.0055
16178SOL     OW66143   4.007   1.839   4.821 -0.1580  0.2544  0.6978
16178SOL    HW166144   3.933   1.784   4.797  0.9077 -1.8264  1.9090
16178SOL    HW266145   3.971   1.928   4.827 -2.5177 -0.6768  1.1704
16179SOL     OW66146   1.482  12.410   8.778  0.3462 -0.2989 -0.1199
16179SOL    HW166147   1.410  12.356   8.745 -0.4176  0.6463 -0.0557
16179SOL    HW266148   1.476  12.491   8.728 -1.4483  1.5971  2.8705
16180SOL     OW66149   7.095   0.672   3.640  0.4784 -0.1480  0.3498
16180SOL    HW166150   7.142   0.756   3.641 -0.2349  0.2609 -0.2087
16180SOL    HW266151   7.065   0.661   3.730 -0.6161  0.8792  0.1213
16181SOL     OW66152   0.726   4.593   8.410 -0.3770  0.1161 -0.1197
16181SOL    HW166153   0.821   4.607   8.410 -0.4191  0.4881  0.9262
16181SOL    HW266154   0.704   4.578   8.318  0.4445  1.7648 -0.6219
16182SOL     OW66155   7.489   6.535   2.109  0.3549  0.1248  0.7238
16182SOL    HW166156   7.430   6.521   2.036 -1.2165 -0.5633  2.0698
16182SOL    HW266157   7.529   6.620   2.092 -2.3382  1.4600  0.6147
16183SOL     OW66158   0.486  14.034  13.971 -0.0203  0.2332 -0.1215
16183SOL    HW166159   0.566  14.046  14.022  0.1036 -0.6577 -0.0935
16183SOL    HW266160   0.514  14.044  13.880  0.7464 -2.8162 -0.3433
16184SOL     OW66161   3.716   5.664   5.354  0.1978 -0.0298 -0.1291
16184SOL    HW166162   3.802   5.688   5.387  1.0588 -2.4374 -0.4467
16184SOL    HW266163   3.672   5.747   5.338  2.3209  1.2458  0.3695
16185SOL     OW66164  13.029   6.076  12.802  0.3757 -0.0059  0.1047
16185SOL    HW166165  13.032   6.168  12.776  1.1318  0.2942  1.1945
16185SOL    HW266166  13.112   6.061  12.847  0.0302 -1.0767  0.4169
16186SOL     OW66167   7.137   9.150   9.610  0.0823 -0.2550 -0.1245
16186SOL    HW166168   7.222   9.116   9.640  0.2783  0.1095 -0.2602
16186SOL    HW266169   7.159   9.226   9.557 -0.3513  0.0287  0.0979
16187SOL     OW66170   5.737   2.525  10.766  0.1917  0.3957 -0.2861
16187SOL    HW166171   5.781   2.596  10.720 -1.7300  1.9058  0.0522
16187SOL    HW266172   5.691   2.569  10.838 -1.6421 -1.0765 -0.4904
16188SOL     OW66173   7.111   9.957   9.487  0.2602 -0.7080 -0.6428
16188SOL    HW166174   7.105   9.994   9.575  1.8271 -1.6855 -0.0821
16188SOL    HW266175   7.205   9.945   9.472 -0.0532 -2.0103 -1.8285
16189SOL     OW66176   7.931   7.234   3.787  0.2684 -0.1825  0.1376
16189SOL    HW166177   7.853   7.226   3.733  2.0650 -3.1049 -2.3818
16189SOL    HW266178   7.910   7.185   3.867 -0.0124 -2.5453 -1.2822
16190SOL     OW66179   0.630   6.575   9.126 -0.2672 -0.2034 -0.1590
16190SOL    HW166180   0.566   6.563   9.056  1.2723  1.4706 -1.9643
16190SOL    HW266181   0.602   6.656   9.170  0.8140  0.8387 -1.2986
16191SOL     OW66182   5.601   0.296   4.941 -0.1857 -0.0593  0.8691
16191SOL    HW166183   5.588   0.266   5.031  0.9673 -1.6417  0.5501
16191SOL    HW266184   5.596   0.216   4.889 -2.8981  1.0489 -0.7699
16192SOL     OW66185  12.692   7.580  11.258  0.3989 -0.3890  0.0281
16192SOL    HW166186  12.622   7.611  11.314  0.0679  1.6345 -1.4137
16192SOL    HW266187  12.649   7.523  11.194  0.5259 -1.3502  0.7747
16193SOL     OW66188   2.977   9.089   5.547 -0.0823 -0.0749  0.4365
16193SOL    HW166189   2.959   9.019   5.609 -0.2776 -0.0971  0.3581
16193SOL    HW266190   2.980   9.045   5.462 -0.3235  0.0262  0.3732
16194SOL     OW66191   3.134  11.112  12.187  0.3916 -0.1259  0.4066
16194SOL    HW166192   3.162  11.049  12.120 -0.6540  1.2036 -1.3633
16194SOL    HW266193   3.040  11.118  12.176  0.4895  1.9153  0.3537
16195SOL     OW66194  12.229   6.941   0.407  0.2897 -0.2697 -0.6677
16195SOL    HW166195  12.149   6.912   0.451  1.7502 -1.4794  1.3948
16195SOL    HW266196  12.285   6.863   0.406  2.3102  1.0765  0.0804
16196SOL     OW66197   1.257   0.722  11.049  0.0531  0.2810 -0.1321
16196SOL    HW166198   1.184   0.780  11.030  0.6294  0.8829 -0.5358
16196SOL    HW266199   1.218   0.634  11.050 -0.4769  0.4858 -1.4731
16197SOL     OW66200   2.222  10.812   7.825  0.3056 -0.3775 -0.2864
16197SOL    HW166201   2.213  10.772   7.911  2.0029  0.4613  0.3203
16197SOL    HW266202   2.306  10.779   7.792  0.0306 -0.0914 -1.2972
16198SOL     OW66203   1.963   0.834   2.129  0.0624  0.4017  0.0300
16198SOL    HW166204   2.027   0.788   2.075  2.0216  0.7640  1.9089
16198SOL    HW266205   1.956   0.920   2.088  1.7357  0.7712  0.4151
16199SOL     OW66206  11.712   6.925   3.940 -0.7531  0.5889 -0.2132
16199SOL    HW166207  11.754   6.927   3.854 -0.5209  2.9492 -0.0991
16199SOL    HW266208  11.784   6.907   4.001 -0.9813 -1.5043 -0.4633
16200SOL     OW66209  11.288   6.593  13.248 -0.0480  0.1438  0.2965
16200SOL    HW166210  11.199   6.574  13.219 -0.5812  1.1755  1.1632
16200SOL    HW266211  11.316   6.666  13.193 -0.0129  0.2939  0.5139
16201SOL     OW66212  10.124  12.509  13.996 -0.1310 -0.0396 -0.4245
16201SOL    HW166213  10.086  12.497  13.909 -1.8302  2.9159 -0.2194
16201SOL    HW266214  10.049  12.526  14.053  1.0982  0.2479  1.1799
16202SOL     OW66215  11.373   2.228   7.754 -0.0125  0.1838  0.7540
16202SOL    HW166216  11.414   2.225   7.840  1.8653  1.3279 -0.0408
16202SOL    HW266217  11.432   2.180   7.697 -0.4215  0.7800 -0.1938
16203SOL     OW66218   5.401  13.958  10.638  0.3649 -0.1496 -0.2923
16203SOL    HW166219   5.313  13.981  10.609 -0.8265 -0.2651  2.7748
16203SOL    HW266220   5.396  13.864  10.658  1.1051 -0.1211  0.0748
16204SOL     OW66221  10.924   8.105   4.381 -0.4340 -0.5306 -0.5838
16204SOL    HW166222  10.902   8.133   4.292 -0.3211 -0.3278 -0.5485
16204SOL    HW266223  10.941   8.187   4.429 -0.9668 -0.6109 -0.2471
16205SOL     OW66224   0.612   5.058   6.214  0.7400 -0.1963  0.6712
16205SOL    HW166225   0.704   5.077   6.199  0.6106  1.4586  1.6480
16205SOL    HW266226   0.568   5.082   6.133  1.0633 -0.0664  0.5358
16206SOL     OW66227   1.241  12.709   1.183  0.1819 -0.3734  0.1172
16206SOL    HW166228   1.242  12.614   1.178  0.8402 -0.3403 -0.4442
16206SOL    HW266229   1.215  12.728   1.273  1.5075 -1.0928  0.6728
16207SOL     OW66230   7.867   1.551   0.700 -0.2868  0.0732 -0.1994
16207SOL    HW166231   7.852   1.593   0.785  1.0683 -0.4989  0.3527
16207SOL    HW266232   7.962   1.556   0.688 -0.0921 -2.5370 -0.2451
16208SOL     OW66233   0.645  13.229   3.172  0.4186  0.8404 -0.7573
16208SOL    HW166234   0.700  13.185   3.237  1.6190  1.1795 -1.5161
16208SOL    HW266235   0.560  13.239   3.216  1.1389  0.9080  0.6932
16209SOL     OW66236   6.781   3.709  11.379 -0.0577  0.4598 -0.1174
16209SOL    HW166237   6.832   3.679  11.455  1.7524  1.1669 -1.0087
16209SOL    HW266238   6.772   3.631  11.325 -2.4072 -0.3617  1.2985
16210SOL     OW66239   1.279  10.692  10.693 -0.1184 -0.1189  0.4199
16210SOL    HW166240   1.306  10.681  10.601 -0.1117  0.3595  0.3644
16210SOL    HW266241   1.194  10.736  10.688  1.0299  2.2802  0.6862
16211SOL     OW66242  13.883   9.268   3.015 -0.2932  0.6463 -0.0900
16211SOL    HW166243  13.842   9.317   3.086 -0.7101 -0.6451  0.5904
16211SOL    HW266244  13.927   9.335   2.962 -0.7792  1.7331  0.8364
16212SOL     OW66245  13.728   4.576  12.617  0.0044 -0.4543 -0.5488
16212SOL    HW166246  13.676   4.544  12.691  0.4160 -0.1962 -0.1475
16212SOL    HW266247  13.686   4.659  12.592  0.9084  0.3623  0.5343
16213SOL     OW66248   3.595   0.258   2.567  0.4629 -0.5147  0.3236
16213SOL    HW166249   3.558   0.174   2.540 -0.6000  0.4940 -1.5528
16213SOL    HW266250   3.527   0.299   2.619 -0.6214  0.7468 -1.9596
16214SOL     OW66251   3.067   6.099   8.152  0.4289  0.5048 -0.2818
16214SOL    HW166252   2.990   6.045   8.133  0.2933  0.2172  0.9912
16214SOL    HW266253   3.141   6.041   8.134  0.3017  0.2285  0.0488
16215SOL     OW66254   7.111   4.076  13.917  0.3356 -0.0043  0.5363
16215SOL    HW166255   7.076   4.132  13.987  0.5825  2.4816 -1.1759
16215SOL    HW266256   7.036   4.023  13.890 -1.0457  2.1385 -0.1709
16216SOL     OW66257   0.694   9.205   5.869  0.2545 -0.4614 -0.1089
16216SOL    HW166258   0.709   9.283   5.921  0.9567  0.0241 -1.0075
16216SOL    HW266259   0.698   9.235   5.778 -0.7439 -1.3205 -0.4576
16217SOL     OW66260   1.479   5.713   4.391 -0.2029  0.3066  0.3092
16217SOL    HW166261   1.479   5.738   4.298  1.6267  0.2390  0.2606
16217SOL    HW266262   1.569   5.689   4.409 -0.6979 -0.4316  1.9325
16218SOL     OW66263  14.021   2.008   2.231 -0.1876 -0.1194  0.0109
16218SOL    HW166264  14.052   2.035   2.317 -0.9128  1.0452 -0.0684
16218SOL    HW266265  14.084   1.942   2.202  2.0547  1.8786 -0.0156
16219SOL     OW66266   2.329   1.755   3.359  0.2599  0.3251 -0.8780
16219SOL    HW166267   2.411   1.796   3.387  0.1881 -0.5859  0.7585
16219SOL    HW266268   2.355   1.666   3.334 -0.5249 -0.8940  2.2075
16220SOL     OW66269   9.902   0.905  10.863 -1.0289  0.0342 -0.1130
16220SOL    HW166270   9.910   0.979  10.924  0.4210 -1.7572  2.0027
16220SOL    HW266271   9.981   0.910  10.809 -1.1981  0.3257 -0.3361
16221SOL     OW66272   5.551   9.051  14.021 -0.9172 -0.0817 -0.3006
16221SOL    HW166273   5.481   9.044  13.956  0.7882  1.3701 -2.4537
16221SOL    HW266274   5.588   8.962  14.026 -2.2481 -0.6390  0.1558
16222SOL     OW66275   0.336   4.834   8.839  0.5433 -0.4030  0.3838
16222SOL    HW166276   0.245   4.862   8.829  0.4877 -0.3595  0.9813
16222SOL    HW266277   0.342   4.754   8.788  0.1941 -0.3535  0.2618
16223SOL     OW66278   3.554   3.479   6.533  0.2808  0.0982 -0.1634
16223SOL    HW166279   3.459   3.483   6.546 -0.2546 -1.3047 -3.0409
16223SOL    HW266280   3.580   3.396   6.573  0.5438  0.9360  1.5193
16224SOL     OW66281   8.882  12.907   1.391  0.1291 -0.9912  0.2895
16224SOL    HW166282   8.787  12.916   1.405  0.1789 -0.3135  0.2257
16224SOL    HW266283   8.891  12.893   1.297  0.2063  0.9651 -0.0331
16225SOL     OW66284   9.930  10.769   9.237  0.2501 -0.4281 -0.2585
16225SOL    HW166285   9.978  10.806   9.163  0.1006 -0.7951 -0.5458
16225SOL    HW266286   9.922  10.841   9.300  0.9937 -0.3043 -0.2942
16226SOL     OW66287  12.011   7.498   4.898  0.1883  0.5799 -0.6310
16226SOL    HW166288  11.985   7.546   4.819 -2.1403 -1.1455 -1.0575
16226SOL    HW266289  12.007   7.406   4.871 -0.1021 -0.0159  1.3400
16227SOL     OW66290   8.627  13.693   5.982 -0.0032 -0.2946 -0.3920
16227SOL    HW166291   8.642  13.641   5.903 -2.5874 -2.5769  0.4721
16227SOL    HW266292   8.572  13.765   5.952  0.3096 -0.2656 -0.9219
16228SOL     OW66293   9.966   4.436   8.328 -0.3692 -0.3543 -0.1036
16228SOL    HW166294   9.947   4.452   8.236  0.6990 -1.7980 -0.5975
16228SOL    HW266295  10.061   4.430   8.333 -0.4057 -0.2567  1.1067
16229SOL     OW66296   6.301   9.198  13.938  0.1575 -0.1497 -0.5525
16229SOL    HW166297   6.365   9.255  13.894  0.4296  0.6082  0.7853
16229SOL    HW266298   6.316   9.213  14.031 -2.2348  0.3628 -0.1957
16230SOL     OW66299   4.333  11.245   5.260  0.1365 -0.4131  0.5276
16230SOL    HW166300   4.251  11.199   5.239 -0.1490  0.0101  0.7039
16230SOL    HW266301   4.311  11.298   5.336  0.4295  0.1199  0.2411
16231SOL     OW66302   6.770   2.011   1.561 -0.2359  0.0298 -0.0096
16231SOL    HW166303   6.805   2.086   1.610  0.9576 -0.7823  0.4430
16231SOL    HW266304   6.781   1.937   1.621 -1.1129 -0.5674 -0.5635
16232SOL     OW66305  10.481   8.665  12.653 -0.2521 -0.1804  0.0262
16232SOL    HW166306  10.481   8.588  12.596 -0.4810 -0.3576  0.2644
16232SOL    HW266307  10.562   8.657  12.704  1.5534  1.5208 -2.3242
16233SOL     OW66308   2.234   8.474   0.732  0.6955  0.0283 -0.1775
16233SOL    HW166309   2.320   8.452   0.695  0.8724  0.1758  0.1407
16233SOL    HW266310   2.254   8.506   0.820  0.2169 -1.2705  0.4348
16234SOL     OW66311   5.429  10.101  12.008  0.0744  0.1943 -0.0168
16234SOL    HW166312   5.424  10.054  11.925  0.4483 -0.1310  0.1399
16234SOL    HW266313   5.375  10.050  12.068  0.1411  0.1987  0.0469
16235SOL     OW66314  13.819  10.258   8.547 -0.5874 -0.6974  0.0618
16235SOL    HW166315  13.827  10.262   8.452 -1.2831  3.8578 -0.0191
16235SOL    HW266316  13.909  10.259   8.579 -0.3588  0.0765 -0.5749
16236SOL     OW66317   0.072   9.162   9.860  0.2032  0.0944  0.0548
16236SOL    HW166318   0.145   9.222   9.846  2.9006 -2.6456  1.2482
16236SOL    HW266319   0.041   9.183   9.949 -0.2595  0.9841 -0.2979
16237SOL     OW66320  13.598   8.369   4.189 -0.4777 -0.6903 -0.2301
16237SOL    HW166321  13.526   8.329   4.141  1.0629  0.8963 -4.2702
16237SOL    HW266322  13.676   8.325   4.156  0.7453  0.7152  0.6407
16238SOL     OW66323   6.279  14.088   1.495  0.0369 -0.1059 -0.7799
16238SOL    HW166324   6.267  13.995   1.514 -1.5170  0.4877  1.5706
16238SOL    HW266325   6.287  14.092   1.400  0.7303 -2.6790 -0.9097
16239SOL     OW66326   0.682  11.753  10.595 -0.0373  0.2004  0.2160
16239SOL    HW166327   0.683  11.717  10.506 -0.5718  0.8083 -0.0446
16239SOL    HW266328   0.732  11.834  10.589 -1.8498  1.3565 -0.0446
16240SOL     OW66329   1.580   8.518   5.674 -0.1900  0.3107  0.0512
16240SOL    HW166330   1.597   8.426   5.694  1.8737  0.3871 -1.0799
16240SOL    HW266331   1.646   8.567   5.723  0.4372  0.9666 -1.3692
16241SOL     OW66332   1.640   6.488   7.577 -0.0589  0.3428  0.3697
16241SOL    HW166333   1.718   6.433   7.570 -0.3120 -0.0119  0.2872
16241SOL    HW266334   1.574   6.431   7.617  0.0247  0.9530  1.4300
16242SOL     OW66335  13.519   0.199  11.806 -0.3139 -0.2756  0.1801
16242SOL    HW166336  13.501   0.163  11.893  0.4886 -4.2572 -1.0841
16242SOL    HW266337  13.438   0.185  11.757 -0.7122  1.8077  0.1810
16243SOL     OW66338   0.258  11.177   9.596 -0.7367  0.2743  0.1307
16243SOL    HW166339   0.329  11.114   9.605 -0.8265  0.2775  0.9529
16243SOL    HW266340   0.273  11.240   9.667 -0.9718  0.8552 -0.3275
16244SOL     OW66341   7.560  10.717   3.556 -0.2569 -0.3641 -0.2422
16244SOL    HW166342   7.653  10.694   3.561 -0.4840 -1.0898  1.6939
16244SOL    HW266343   7.516  10.647   3.605 -1.6912  0.6635 -0.0088
16245SOL     OW66344   6.929  10.317  10.179  0.1900  0.5663 -0.0521
16245SOL    HW166345   6.858  10.367  10.138 -1.2857 -0.6625  0.9103
16245SOL    HW266346   6.930  10.349  10.269  0.2314 -0.0834  0.1777
16246SOL     OW66347  13.264  10.418  10.180 -0.0336 -0.2005 -0.0834
16246SOL    HW166348  13.325  10.492  10.182 -0.3238  0.1188 -1.6080
16246SOL    HW266349  13.308  10.351  10.129 -0.2083 -0.6909  0.3961
16247SOL     OW66350   5.134  12.378   9.890  0.2839  0.0770  0.2179
16247SOL    HW166351   5.055  12.397   9.941  0.2094 -0.1159  0.1772
16247SOL    HW266352   5.175  12.305   9.937  1.0335  0.9063  0.8765
16248SOL     OW66353   5.809  10.897   1.375  0.2702  0.0405 -0.7595
16248SOL    HW166354   5.795  10.820   1.321 -0.5533 -0.6883  0.4359
16248SOL    HW266355   5.758  10.966   1.332 -0.4882 -0.5562 -0.8451
16249SOL     OW66356   9.048  12.994   9.169 -0.6611  0.6674  0.2009
16249SOL    HW166357   8.970  13.045   9.147 -0.3152  1.0073 -0.2632
16249SOL    HW266358   9.118  13.035   9.118 -0.0735  0.7124  1.0316
16250SOL     OW66359  12.924  13.854   4.479  0.0418  0.2789 -0.2999
16250SOL    HW166360  13.006  13.804   4.476  0.2420  0.5062  1.0452
16250SOL    HW266361  12.856  13.789   4.462  0.0019 -1.2885  4.4196
16251SOL     OW66362  13.628   5.577   5.166 -0.2058 -0.3277 -0.4561
16251SOL    HW166363  13.694   5.525   5.213 -0.2655 -0.4193 -0.4737
16251SOL    HW266364  13.679   5.645   5.121 -0.3185  1.2111  1.5899
16252SOL     OW66365   8.819   3.369   2.372 -0.2146  0.2843  0.2640
16252SOL    HW166366   8.832   3.288   2.323 -0.6703  0.6903 -0.5446
16252SOL    HW266367   8.730   3.361   2.407  0.2402 -0.1751  1.3864
16253SOL     OW66368  12.530  13.820   5.832  0.2166  0.9520  0.2779
16253SOL    HW166369  12.511  13.895   5.776 -0.8409  0.5609  0.0794
16253SOL    HW266370  12.573  13.857   5.908  2.2725  1.4229 -1.0470
16254SOL     OW66371   5.925   9.547   2.569 -0.1139  0.3754 -0.3026
16254SOL    HW166372   5.923   9.613   2.501 -2.9029 -0.1823 -0.8833
16254SOL    HW266373   6.015   9.550   2.603  0.4029  3.0084 -1.6513
16255SOL     OW66374   3.584  11.549  11.036 -0.1677  0.0421  0.1552
16255SOL    HW166375   3.585  11.638  11.001 -2.7193  0.6011  1.2814
16255SOL    HW266376   3.579  11.493  10.958  2.1453  0.7682 -0.5963
16256SOL     OW66377   6.151  11.113   5.830 -0.8279  0.1635  0.1032
16256SOL    HW166378   6.093  11.091   5.758  0.1452 -0.9743 -0.3661
16256SOL    HW266379   6.233  11.140   5.787 -0.7878  1.1188  0.7525
16257SOL     OW66380   1.966   3.757   7.184 -0.1337  0.3064 -0.2640
16257SOL    HW166381   1.881   3.766   7.227 -0.8815  0.5381 -1.7292
16257SOL    HW266382   2.015   3.697   7.240 -1.3032  0.0669  0.5406
16258SOL     OW66383  12.134  11.912   8.553  0.1461 -0.1806 -0.0506
16258SOL    HW166384  12.059  11.882   8.501  0.2046 -0.0040 -0.2390
16258SOL    HW266385  12.175  11.831   8.585  0.9238 -0.3690 -1.4246
16259SOL     OW66386   2.977  10.018  11.572  0.1122 -0.0985 -0.0548
16259SOL    HW166387   2.966   9.928  11.541 -0.3110  0.7325 -2.5911
16259SOL    HW266388   2.915  10.027  11.644 -0.6604 -1.5265 -0.5022
16260SOL     OW66389   0.311   2.925   9.430 -0.1994  0.3113  0.2876
16260SOL    HW166390   0.284   2.865   9.360 -0.2900 -1.2249  1.5648
16260SOL    HW266391   0.405   2.908   9.441 -0.1732  0.5857  0.5006
16261SOL     OW66392  11.594   1.059   4.170  0.3553 -0.6162 -0.4460
16261SOL    HW166393  11.540   1.078   4.093 -1.3174  0.4677  0.9204
16261SOL    HW266394  11.587   0.964   4.183 -0.3938 -0.6184 -0.8821
16262SOL     OW66395   4.643  13.010  11.278  0.1988 -0.3771  0.4203
16262SOL    HW166396   4.588  12.999  11.201 -0.7894  0.2671  1.0001
16262SOL    HW266397   4.665  13.103  11.279 -0.0152 -0.3250  1.0348
16263SOL     OW66398  13.969   6.971   6.095 -0.0398  0.0037 -0.2135
16263SOL    HW166399  14.021   6.989   6.017  0.4013 -0.8136 -0.1195
16263SOL    HW266400  13.879   6.966   6.064  0.0586  0.3466 -0.5560
16264SOL     OW66401   5.483   9.503   4.428  0.0175 -0.9455 -0.9264
16264SOL    HW166402   5.390   9.480   4.436 -0.4547  0.6792 -1.2163
16264SOL    HW266403   5.527   9.451   4.495 -1.1267 -1.6009 -0.6521
16265SOL     OW66404   6.343  12.624   0.610 -0.8602 -0.9301  0.2024
16265SOL    HW166405   6.296  12.592   0.687 -0.8692 -0.0580  0.5729
16265SOL    HW266406   6.301  12.708   0.590  0.7541  0.0520  0.7582
16266SOL     OW66407   4.239  12.311   8.977  0.4793 -0.6378 -0.2270
16266SOL    HW166408   4.275  12.222   8.967  4.3445  0.7753 -0.5507
16266SOL    HW266409   4.291  12.350   9.048 -0.5559  1.6320 -0.6415
16267SOL     OW66410   1.862   5.287  12.591 -0.0981  0.6152 -0.1031
16267SOL    HW166411   1.886   5.208  12.542  2.1948  0.9749  0.3231
16267SOL    HW266412   1.882   5.265  12.682  2.9553  2.3996 -0.2138
16268SOL     OW66413   0.497  12.771   6.697 -0.7416  0.3758  0.5372
16268SOL    HW166414   0.451  12.759   6.614  0.0662  1.4887 -0.1146
16268SOL    HW266415   0.513  12.866   6.702  1.4607  0.0584  0.6952
16269SOL     OW66416  12.208  11.619  12.160  0.5699 -0.4856 -0.0440
16269SOL    HW166417  12.260  11.641  12.083  1.2641 -1.0677  0.2448
16269SOL    HW266418  12.188  11.526  12.151  1.1258 -0.6954  0.7302
16270SOL     OW66419   9.120   0.022  12.063 -0.2170 -0.1005 -0.0168
16270SOL    HW166420   9.198  -0.029  12.043 -0.4959 -0.7367  0.4919
16270SOL    HW266421   9.120   0.029  12.159  0.1499  1.3890 -0.0958
16271SOL     OW66422   6.262   3.724   8.630  0.2104 -0.8246  0.1115
16271SOL    HW166423   6.288   3.664   8.700 -1.2073 -1.1034  0.4260
16271SOL    HW266424   6.166   3.722   8.631  0.1599 -0.4491 -1.5136
16272SOL     OW66425   8.941   0.914   3.738  0.6066 -0.1406  0.5258
16272SOL    HW166426   8.956   0.903   3.832  0.9208 -0.0649  0.4846
16272SOL    HW266427   9.003   0.853   3.697  0.5238 -0.1176  0.3663
16273SOL     OW66428   1.227  13.732   3.984 -0.1241  0.3000 -0.3548
16273SOL    HW166429   1.244  13.726   4.078 -2.7475 -1.4447  0.1223
16273SOL    HW266430   1.155  13.795   3.977  0.6267  1.0878 -1.3272
16274SOL     OW66431  12.744   7.714   6.507 -0.5815 -0.0748  0.1056
16274SOL    HW166432  12.725   7.767   6.584 -2.3331 -0.9285  0.3065
16274SOL    HW266433  12.664   7.664   6.491  0.0552 -0.6110 -1.7228
16275SOL     OW66434  11.796   5.531   9.702  0.3194  0.0162 -0.5788
16275SOL    HW166435  11.790   5.626   9.692  1.4809  0.4970  2.3711
16275SOL    HW266436  11.747   5.513   9.782 -0.8225 -2.0846 -1.6757
16276SOL     OW66437   5.340   3.529  14.000  0.0286  0.1803  0.6800
16276SOL    HW166438   5.378   3.615  13.984 -0.6809  0.0586 -2.2886
16276SOL    HW266439   5.310   3.532  14.091  2.7727  1.9060  1.6393
16277SOL     OW66440   1.004   3.273   4.081  0.0808 -0.0664  0.1365
16277SOL    HW166441   1.056   3.298   4.158 -0.2677  0.7008  0.1376
16277SOL    HW266442   0.992   3.179   4.089 -0.7936  0.1328  1.5664
16278SOL     OW66443   8.741   0.161   5.419 -0.7030 -0.2968  0.2377
16278SOL    HW166444   8.708   0.099   5.484  0.2829 -1.8132 -0.6639
16278SOL    HW266445   8.797   0.109   5.362 -0.1343  1.3619 -0.7817
16279SOL     OW66446   6.428   0.385   7.764  0.2777  0.0420 -0.1495
16279SOL    HW166447   6.377   0.320   7.813  1.4250 -1.0634 -0.3823
16279SOL    HW266448   6.371   0.462   7.761 -0.6885 -0.5837  1.0537
16280SOL     OW66449   0.014   1.864  10.144 -0.0727  0.0085  0.4342
16280SOL    HW166450  -0.033   1.921  10.205 -2.6973 -0.6049 -0.8661
16280SOL    HW266451  -0.017   1.776  10.165  1.2799 -0.5426  0.1623
16281SOL     OW66452   3.835  13.021   3.711 -0.3064 -0.4821  0.3718
16281SOL    HW166453   3.826  13.114   3.692 -0.9337 -0.8740 -1.5576
16281SOL    HW266454   3.854  12.981   3.626  0.3657 -2.0713  1.2224
16282SOL     OW66455   2.219   0.053  13.811  0.8512  0.1856 -0.2514
16282SOL    HW166456   2.203   0.000  13.733  0.2220 -0.2577  0.1676
16282SOL    HW266457   2.185   0.000  13.883  0.8591  0.8545  0.2530
16283SOL     OW66458  12.414   7.342   4.586  0.1425 -0.6645 -0.3304
16283SOL    HW166459  12.455   7.289   4.655 -3.3645  0.1689  2.7527
16283SOL    HW266460  12.441   7.432   4.605 -1.2196 -0.3730  0.3804
16284SOL     OW66461  11.323   7.906  13.043 -0.4159 -0.3703  0.1370
16284SOL    HW166462  11.369   7.859  12.974  1.2016  0.3344  0.6780
16284SOL    HW266463  11.304   7.840  13.109  2.3826 -0.2741  1.1764
16285SOL     OW66464   1.507  10.156   1.235 -0.3450 -0.1292 -0.5950
16285SOL    HW166465   1.532  10.070   1.202  0.0704  0.5038 -1.9659
16285SOL    HW266466   1.454  10.194   1.165 -0.8887  0.5667  0.1801
16286SOL     OW66467   0.808  10.946   9.218  0.3989  0.4920 -0.1972
16286SOL    HW166468   0.743  10.956   9.288 -0.4260 -0.2221 -0.8324
16286SOL    HW266469   0.793  11.021   9.161  0.3064  0.4784 -0.1923
16287SOL     OW66470  13.829   7.687   7.352 -0.0107 -0.6020  0.2564
16287SOL    HW166471  13.909   7.739   7.357 -0.4521  0.0326  0.9094
16287SOL    HW266472  13.789   7.695   7.438 -1.0965 -0.3880 -0.2448
16288SOL     OW66473  11.703   9.132  10.165 -0.1757 -0.1321 -0.2895
16288SOL    HW166474  11.775   9.183  10.128  0.4180 -1.0101 -0.3922
16288SOL    HW266475  11.624   9.180  10.141  0.1552 -0.7744 -2.8989
16289SOL     OW66476   3.630   3.121   6.417  0.0769  0.3267 -0.0185
16289SOL    HW166477   3.683   3.120   6.497  1.2329 -1.3605 -0.7542
16289SOL    HW266478   3.650   3.205   6.376  0.5313  0.6106  0.7541
16290SOL     OW66479  12.040   8.207   7.061  0.0757 -0.0156 -0.2707
16290SOL    HW166480  12.106   8.203   7.130  0.1470  0.1427 -0.3304
16290SOL    HW266481  12.064   8.135   7.002  0.3683  0.2284 -0.4484
16291SOL     OW66482  13.984   9.337   3.745 -0.1923 -0.1053  0.7875
16291SOL    HW166483  13.989   9.430   3.722  2.6844  0.2176  2.2342
16291SOL    HW266484  13.893   9.312   3.727 -0.5382  2.4260 -1.5803
16292SOL     OW66485   0.263   3.429  10.020  0.4995 -0.1762  0.1615
16292SOL    HW166486   0.221   3.370   9.957 -0.7942  1.6316 -0.7941
16292SOL    HW266487   0.326   3.374  10.066  1.3867 -1.6810 -2.5706
16293SOL     OW66488  12.949   1.401  10.612 -0.1148 -0.3879 -0.4357
16293SOL    HW166489  12.864   1.377  10.650  0.9515 -1.6034  1.3006
16293SOL    HW266490  12.939   1.494  10.588 -1.4955 -0.1242  1.0212
16294SOL     OW66491   1.755  10.176  13.174  0.4273 -0.7287  0.2573
16294SOL    HW166492   1.826  10.171  13.110 -0.1996  0.2311 -0.5342
16294SOL    HW266493   1.675  10.167  13.122 -0.1371  1.2070  0.7062
16295SOL     OW66494   8.045   0.950   6.624 -0.1425 -0.3609 -0.3745
16295SOL    HW166495   8.044   1.030   6.572  1.9278  0.0151  0.0824
16295SOL    HW266496   8.043   0.980   6.715 -0.4726 -0.8772 -0.2087
16296SOL     OW66497  12.073  12.157  11.151 -0.3060 -0.8008 -0.0858
16296SOL    HW166498  12.063  12.220  11.080 -2.0980 -0.7296  0.1791
16296SOL    HW266499  11.983  12.130  11.172  0.0962 -0.3478  2.5859
16297SOL     OW66500  13.370   7.130   9.536 -0.4103 -0.1146 -0.3250
16297SOL    HW166501  13.304   7.066   9.510 -0.0145 -1.0514  0.8739
16297SOL    HW266502  13.415   7.089   9.610  0.5078  1.1442 -0.1564
16298SOL     OW66503  11.436   8.220  10.668  0.1330  0.5658 -0.0806
16298SOL    HW166504  11.475   8.306  10.649 -0.4332  0.7895 -0.2687
16298SOL    HW266505  11.482   8.190  10.746  0.5057  0.9301 -0.1509
16299SOL     OW66506   9.576   0.494   6.675 -0.1500  0.2178 -0.3023
16299SOL    HW166507   9.512   0.560   6.702  0.7853  0.5238  1.3136
16299SOL    HW266508   9.630   0.539   6.610  1.5776  1.7777  2.0076
16300SOL     OW66509   4.658   1.969  10.861  0.7750 -0.8068 -0.4830
16300SOL    HW166510   4.739   1.923  10.883  0.6140 -1.2372 -0.7714
16300SOL    HW266511   4.600   1.900  10.826 -0.6071 -0.9991  1.9294
16301SOL     OW66512   9.635   5.674  12.198 -0.1662  1.0574 -0.3085
16301SOL    HW166513   9.701   5.704  12.261  1.8969 -3.1215 -0.0998
16301SOL    HW266514   9.561   5.645  12.252 -0.4761  1.9952 -0.2228
16302SOL     OW66515  10.304   2.353   0.969  0.2806 -0.3603  0.6059
16302SOL    HW166516  10.388   2.352   1.014  0.6627  0.7171 -0.0601
16302SOL    HW266517  10.278   2.261   0.965  1.9570 -0.8387 -0.1720
16303SOL     OW66518  11.249   5.933  10.179 -0.0073 -0.0368  0.0942
16303SOL    HW166519  11.324   5.965  10.130 -0.2225  0.2569 -0.0430
16303SOL    HW266520  11.222   5.854  10.133 -0.3384  0.3518 -0.3912
16304SOL     OW66521  10.851   5.344   9.116 -0.1153  0.5261  0.1118
16304SOL    HW166522  10.769   5.325   9.071  0.8748  1.5655 -2.3251
16304SOL    HW266523  10.863   5.438   9.106  1.2415  0.4423  0.6684
16305SOL     OW66524   8.750   0.449   6.727  0.2120 -0.1794  0.2307
16305SOL    HW166525   8.725   0.463   6.635  1.8399 -0.3930 -0.2675
16305SOL    HW266526   8.703   0.370   6.752 -2.6333  1.4600  0.5648
16306SOL     OW66527  13.389   4.301   2.693  0.4011 -0.6407 -0.2939
16306SOL    HW166528  13.479   4.276   2.715  0.1543 -1.8505 -0.5889
16306SOL    HW266529  13.371   4.377   2.749  1.5052 -0.5657 -0.0210
16307SOL     OW66530  12.931  12.731   7.120  0.7145 -0.2445  0.3543
16307SOL    HW166531  12.863  12.694   7.177  0.6761 -2.8641 -1.2644
16307SOL    HW266532  12.883  12.764   7.044  1.1063 -0.5048 -0.0065
16308SOL     OW66533   2.285   8.329   4.377  0.4014 -0.0160  0.2047
16308SOL    HW166534   2.231   8.341   4.298  0.8656 -0.5521 -0.2039
16308SOL    HW266535   2.256   8.398   4.437 -0.2629  0.1261 -0.2691
16309SOL     OW66536   7.319  14.044   4.923  0.0590  0.0089 -0.2595
16309SOL    HW166537   7.348  14.086   4.842 -0.1834 -0.7228 -0.7351
16309SOL    HW266538   7.316  13.950   4.902 -0.2339 -0.1664  0.5251
16310SOL     OW66539  12.314  11.018   1.395  0.1632  0.0254 -0.5435
16310SOL    HW166540  12.295  10.930   1.428  0.5173 -0.3020 -1.2005
16310SOL    HW266541  12.241  11.071   1.426 -0.5727 -0.7028 -0.9683
16311SOL     OW66542   5.184   1.462   6.306 -0.0565 -0.3167  0.4350
16311SOL    HW166543   5.094   1.432   6.293 -1.1846  2.4791  1.0332
16311SOL    HW266544   5.215   1.414   6.383 -1.4304 -0.5545  0.8657
16312SOL     OW66545   8.864   9.585  12.772  0.4154 -0.0359 -0.4224
16312SOL    HW166546   8.918   9.507  12.781  0.5923  0.3686  3.6832
16312SOL    HW266547   8.905   9.650  12.829 -0.8992  2.4283 -2.1016
16313SOL     OW66548   3.434   1.102   2.585  0.2666  0.1414 -0.0684
16313SOL    HW166549   3.379   1.037   2.541 -1.2698  0.6235  1.0533
16313SOL    HW266550   3.448   1.170   2.520  0.7771 -0.6654 -0.8261
16314SOL     OW66551   0.508  10.224  11.463  0.2972  0.3781  0.0048
16314SOL    HW166552   0.468  10.272  11.536 -2.0772 -0.4782 -0.6391
16314SOL    HW266553   0.471  10.264  11.385  1.1782 -0.0884 -0.6633
16315SOL     OW66554   9.697  12.425   9.742  0.1923  0.0465 -0.1929
16315SOL    HW166555   9.691  12.421   9.837  1.0590  2.0181 -0.0055
16315SOL    HW266556   9.642  12.353   9.711  0.0632 -0.7598  1.7852
16316SOL     OW66557   4.174   2.239   2.465  0.3869 -0.3266  0.4329
16316SOL    HW166558   4.234   2.311   2.482 -0.1131 -0.2000  1.6903
16316SOL    HW266559   4.124   2.228   2.546 -1.6866 -0.0770 -0.7325
16317SOL     OW66560   0.582  10.902   4.529 -1.1170  0.1289 -0.0450
16317SOL    HW166561   0.634  10.949   4.594 -0.4265 -2.0915  1.1020
16317SOL    HW266562   0.634  10.907   4.449 -0.8667  0.9095  0.1541
16318SOL     OW66563  12.484  10.178   2.644 -0.3726  0.3936 -0.4870
16318SOL    HW166564  12.424  10.148   2.575  0.3693  0.7391 -1.2935
16318SOL    HW266565  12.427  10.217   2.710 -1.1672 -0.6925 -0.5004
16319SOL     OW66566   1.544  10.596   9.790  0.6841  0.2374 -0.0074
16319SOL    HW166567   1.475  10.567   9.849  0.8644 -0.2883 -0.0433
16319SOL    HW266568   1.597  10.657   9.842 -0.0462  0.9810 -0.1135
16320SOL     OW66569   0.005   6.076  14.080  0.1475  0.2015  0.2256
16320SOL    HW166570   0.051   6.024  14.146  0.8477 -0.3338 -0.6581
16320SOL    HW266571   0.001   6.020  14.003  0.4781  1.2540 -0.5974
16321SOL     OW66572   7.782   8.859   4.970  0.4495 -0.1146  0.5105
16321SOL    HW166573   7.789   8.764   4.961 -0.2403 -0.1664  0.5008
16321SOL    HW266574   7.737   8.887   4.890  0.2722  0.1702  0.7094
16322SOL     OW66575  10.727   1.462   7.673  0.0830 -0.3061  0.0123
16322SOL    HW166576  10.679   1.383   7.647  0.5189 -0.6398  0.2170
16322SOL    HW266577  10.787   1.432   7.740  1.9921 -0.3105 -1.5986
16323SOL     OW66578  13.070   6.069   2.545  0.6843 -0.1794 -0.1727
16323SOL    HW166579  13.027   5.986   2.526 -0.6940  0.0776  1.5564
16323SOL    HW266580  13.014   6.135   2.503  0.5863  0.0134  0.2597
16324SOL     OW66581   8.023   2.579   8.287  0.1762  0.2979 -0.2393
16324SOL    HW166582   7.950   2.600   8.229 -1.3027 -0.4604  1.2688
16324SOL    HW266583   8.076   2.659   8.289  0.4095  0.2856 -2.7287
16325SOL     OW66584  13.335  11.143   1.824 -0.5247  0.1851 -0.5111
16325SOL    HW166585  13.315  11.062   1.870  0.8596  0.1538  0.0665
16325SOL    HW266586  13.377  11.115   1.743 -0.6447  0.3202 -0.6220
16326SOL     OW66587   4.308   2.150   6.158  0.1645  0.4927 -0.0028
16326SOL    HW166588   4.300   2.189   6.245 -1.0786 -1.1109  0.6412
16326SOL    HW266589   4.250   2.203   6.103 -0.5059  0.3524  0.5631
16327SOL     OW66590   5.297  12.257   0.621 -0.2254  0.1902 -0.2342
16327SOL    HW166591   5.257  12.267   0.707 -2.1676  0.6091 -1.1481
16327SOL    HW266592   5.322  12.164   0.617  0.1214  0.2270  0.8619
16328SOL     OW66593   9.096   7.430  13.669  0.0799 -0.5219 -0.7366
16328SOL    HW166594   9.080   7.494  13.601  0.0024  0.6682  0.3655
16328SOL    HW266595   9.108   7.482  13.749  2.4795 -1.7055 -0.2236
16329SOL     OW66596  12.282   5.436   2.246 -0.1938 -0.2581 -0.4119
16329SOL    HW166597  12.310   5.501   2.182  1.9402  0.1337  0.8567
16329SOL    HW266598  12.186   5.435   2.238 -0.2727  2.7168 -0.7571
16330SOL     OW66599   2.449   0.471   2.340 -0.0622  0.4079  0.2759
16330SOL    HW166600   2.364   0.434   2.362  0.7178 -2.1517 -0.6984
16330SOL    HW266601   2.462   0.540   2.405 -2.8253  0.8844  0.4717
16331SOL     OW66602  12.567   8.171   3.036 -0.2124  0.2020 -0.3798
16331SOL    HW166603  12.638   8.130   2.985  0.3560  0.5008  0.1512
16331SOL    HW266604  12.598   8.261   3.052  0.2832 -0.2779  1.6755
16332SOL     OW66605   0.123   5.227  11.079 -0.0775  0.2318 -0.0643
16332SOL    HW166606   0.142   5.188  10.993  0.3888 -1.1936  0.6440
16332SOL    HW266607   0.153   5.317  11.072 -0.8891  0.4052 -1.6853
16333SOL     OW66608   5.408   0.281   7.766  0.0709  0.0961 -0.1156
16333SOL    HW166609   5.434   0.211   7.706 -0.8569 -0.5614  0.2216
16333SOL    HW266610   5.356   0.341   7.713 -0.7158 -0.4645  0.0042
16334SOL     OW66611   4.948  11.512   9.620  0.8110  0.5448  0.0322
16334SOL    HW166612   5.037  11.522   9.587  1.1388 -2.7444 -0.3958
16334SOL    HW266613   4.896  11.490   9.543  0.3857 -1.0789  0.7389
16335SOL     OW66614   0.061   8.055  10.430 -0.1627  0.3924  0.0560
16335SOL    HW166615   0.060   8.137  10.381  0.1528  0.9983  1.0237
16335SOL    HW266616   0.121   8.072  10.503 -0.6303 -0.4649  0.6618
16336SOL     OW66617  12.336   0.592  13.058 -0.1414  0.0439  0.4396
16336SOL    HW166618  12.286   0.532  13.114 -1.5223  1.3816  0.6857
16336SOL    HW266619  12.407   0.623  13.114 -1.6304  1.5270  1.5660
16337SOL     OW66620   8.588  12.397  11.281 -0.0282  0.1508 -0.6900
16337SOL    HW166621   8.544  12.318  11.311 -1.6088  0.7414 -1.2908
16337SOL    HW266622   8.681  12.382  11.297 -0.5208 -0.7662  1.5707
16338SOL     OW66623   4.715  10.509  10.959  0.2511  0.0863 -0.6365
16338SOL    HW166624   4.756  10.570  11.019  0.5805  1.2436 -1.9822
16338SOL    HW266625   4.623  10.534  10.957  0.4613  0.8232 -1.4936
16339SOL     OW66626   4.045  13.474   9.253 -0.3664  0.1081  0.3543
16339SOL    HW166627   4.083  13.450   9.169 -1.4586 -0.0924 -0.1102
16339SOL    HW266628   4.062  13.399   9.310 -0.4024 -0.1388  0.0409
16340SOL     OW66629   5.353   5.906   7.991 -0.5743 -0.3199  0.3483
16340SOL    HW166630   5.414   5.832   7.987 -1.2609 -0.9452  1.2430
16340SOL    HW266631   5.356   5.934   8.082  0.5512  1.5292 -0.1988
16341SOL     OW66632  11.734  11.134   0.354  0.4184  0.3790  0.2754
16341SOL    HW166633  11.706  11.056   0.402  1.5292  0.4446  1.0600
16341SOL    HW266634  11.664  11.149   0.290 -0.3745 -0.5747  0.8881
16342SOL     OW66635   1.159   4.433  10.368 -0.4136 -0.8429  0.1757
16342SOL    HW166636   1.090   4.387  10.319 -2.7849  0.5221  1.9984
16342SOL    HW266637   1.120   4.518  10.390  1.9592  0.0713  1.2003
16343SOL     OW66638   6.122   0.426   7.951  0.5241  0.6259 -0.5747
16343SOL    HW166639   6.172   0.345   7.948  0.0336  0.1932  1.2351
16343SOL    HW266640   6.186   0.493   7.978  0.2842  0.1493  1.3373
16344SOL     OW66641   3.014   5.742  13.532 -0.3311  0.4930  0.0454
16344SOL    HW166642   2.964   5.661  13.541  2.2101 -1.0748  1.2847
16344SOL    HW266643   3.006   5.765  13.439 -2.6716 -0.0406  0.0593
16345SOL     OW66644  12.545   8.450  11.619 -0.4258  0.2528 -0.0275
16345SOL    HW166645  12.606   8.401  11.563 -0.2432 -0.2743  0.6124
16345SOL    HW266646  12.560   8.542  11.596  0.3468  0.1068 -0.1534
16346SOL     OW66647  14.044  11.107   6.160  0.4339  0.4033 -0.6971
16346SOL    HW166648  14.112  11.046   6.133  0.8356  0.5513 -0.0404
16346SOL    HW266649  14.084  11.194   6.152  0.0659  0.5471 -1.0477
16347SOL     OW66650  12.526   9.398  13.495 -0.4107  0.3523 -0.3111
16347SOL    HW166651  12.560   9.311  13.519 -0.0730  0.5488 -0.0650
16347SOL    HW266652  12.467   9.421  13.567 -0.6669  0.2374 -0.4816
16348SOL     OW66653  13.590   0.192   9.948  0.6416  0.9803  0.1762
16348SOL    HW166654  13.523   0.231   9.891  0.1496  1.8791  1.3142
16348SOL    HW266655  13.556   0.205  10.037  0.0697 -2.7991  0.6457
16349SOL     OW66656   2.449   8.189   0.484 -0.1605 -0.7594 -0.2334
16349SOL    HW166657   2.470   8.271   0.529  0.7515 -0.9990 -0.2102
16349SOL    HW266658   2.533   8.156   0.453 -0.7306 -0.7298 -1.9153
16350SOL     OW66659   3.319  12.201  13.931 -0.5315 -0.5396  0.1033
16350SOL    HW166660   3.359  12.253  13.861 -0.8014 -1.0295 -0.4239
16350SOL    HW266661   3.391  12.186  13.993  0.3687 -2.1354 -1.2489
16351SOL     OW66662  12.324  10.137  13.828  0.2751  0.4388 -0.1609
16351SOL    HW166663  12.377  10.059  13.812 -0.1224 -0.2547  1.6999
16351SOL    HW266664  12.372  10.208  13.785  1.0521 -0.6880 -1.2014
16352SOL     OW66665   6.056   7.514   3.035 -0.0016 -0.1063  0.0879
16352SOL    HW166666   6.148   7.491   3.047  0.5213  1.5078 -0.5819
16352SOL    HW266667   6.029   7.468   2.956  0.8065  0.9231 -0.8112
16353SOL     OW66668   2.700   5.984   9.775 -0.1442 -0.0300 -0.0600
16353SOL    HW166669   2.642   6.033   9.833 -2.0605 -2.5692  0.3466
16353SOL    HW266670   2.661   5.994   9.688  0.8730  1.0782 -0.4293
16354SOL     OW66671   9.751  11.543   8.219  0.3812 -0.4146 -0.2586
16354SOL    HW166672   9.758  11.540   8.314 -2.5399  0.6699  0.0958
16354SOL    HW266673   9.692  11.471   8.196 -0.4565  0.4728 -1.0050
16355SOL     OW66674  12.224  13.218   0.806  0.5087  0.0092 -0.0761
16355SOL    HW166675  12.255  13.300   0.844  0.8541 -0.3533  0.4373
16355SOL    HW266676  12.284  13.152   0.841  0.5441 -0.3943 -0.8829
16356SOL     OW66677  11.785   2.111   5.368 -0.2083  0.2696  0.2639
16356SOL    HW166678  11.728   2.039   5.340 -0.3894  1.3041 -2.2802
16356SOL    HW266679  11.756   2.186   5.317  2.6970  1.1301 -0.2999
16357SOL     OW66680   8.027   6.647   5.126  0.5610  0.3336 -0.6913
16357SOL    HW166681   8.092   6.685   5.185 -0.4056  1.4176 -0.2849
16357SOL    HW266682   7.991   6.722   5.078 -1.7138  0.0668  0.4517
16358SOL     OW66683  13.847  11.535   7.122 -0.0823  0.2893 -0.2895
16358SOL    HW166684  13.764  11.489   7.131  0.1823 -0.2719 -0.6826
16358SOL    HW266685  13.896  11.514   7.201 -0.4900  1.0076  0.1700
16359SOL     OW66686   4.890  13.431  13.880 -0.3306  0.2470  0.1613
16359SOL    HW166687   4.975  13.438  13.836 -0.8180 -0.9081 -1.0451
16359SOL    HW266688   4.908  13.382  13.960  0.1079 -0.2741 -0.2472
16360SOL     OW66689  10.028   0.836   4.752 -0.3856 -0.3408 -0.0797
16360SOL    HW166690  10.111   0.793   4.733  1.7235  2.6530  1.4854
16360SOL    HW266691  10.024   0.839   4.847 -0.3072  2.7780 -0.0613
16361SOL     OW66692  12.473  11.951   9.486  0.8584 -0.3728 -0.6076
16361SOL    HW166693  12.431  11.873   9.451  0.1418 -0.0402 -0.5164
16361SOL    HW266694  12.460  12.018   9.419  1.3916 -0.3100 -0.6493
16362SOL     OW66695   8.550   0.387   3.900 -0.4501  0.9526  0.4992
16362SOL    HW166696   8.514   0.306   3.864  2.1312 -0.1238  0.0370
16362SOL    HW266697   8.498   0.457   3.861 -1.8897 -0.4445 -0.1587
16363SOL     OW66698   2.205   6.982   2.690  0.0785 -0.1183 -0.0593
16363SOL    HW166699   2.204   6.887   2.684 -0.5857 -0.1813  0.8019
16363SOL    HW266700   2.259   7.011   2.617 -1.7345 -1.0375 -1.8369
16364SOL     OW66701   2.422   0.080   0.579  0.0006 -0.1427 -0.0292
16364SOL    HW166702   2.379   0.143   0.636  0.3564  1.0951 -1.0687
16364SOL    HW266703   2.362   0.069   0.505  0.6839  0.2801 -0.6638
16365SOL     OW66704   7.396   1.107   3.203  0.0900  1.0256 -0.4435
16365SOL    HW166705   7.366   1.076   3.117 -0.3114  2.7033 -0.9434
16365SOL    HW266706   7.361   1.195   3.210 -0.9647  0.4901  2.0230
16366SOL     OW66707  10.696   2.262  13.083 -0.3446 -0.1194 -0.4182
16366SOL    HW166708  10.610   2.282  13.047  0.4482  2.1949 -1.2403
16366SOL    HW266709  10.751   2.247  13.006  0.3266  0.0289  0.0279
16367SOL     OW66710   4.118  11.645   5.966  0.3430 -0.0872 -0.0043
16367SOL    HW166711   4.156  11.680   5.885  1.6335 -0.8007  0.2640
16367SOL    HW266712   4.060  11.574   5.937 -2.3308  2.1307 -0.5597
16368SOL     OW66713  11.375   2.657  13.917  0.2993  0.1354  0.4240
16368SOL    HW166714  11.329   2.632  13.837  1.5306 -1.9662  0.2821
16368SOL    HW266715  11.307   2.695  13.973 -0.7313  0.9231 -1.2910
16369SOL     OW66716   1.205   2.799  12.970 -0.2420  0.1117  0.2117
16369SOL    HW166717   1.124   2.751  12.986 -0.7191  0.6170 -0.6085
16369SOL    HW266718   1.266   2.734  12.936 -1.3228  0.2947 -2.2657
16370SOL     OW66719  10.861   2.536  10.612  0.8134 -0.5969 -0.3679
16370SOL    HW166720  10.810   2.600  10.663 -1.7248 -2.0879 -0.8735
16370SOL    HW266721  10.938   2.585  10.583  0.7921  1.1944  2.2312
16371SOL     OW66722   3.721  13.736  10.407  0.3296  0.0017 -0.1831
16371SOL    HW166723   3.639  13.758  10.362 -0.2871  1.0144  1.3463
16371SOL    HW266724   3.789  13.754  10.342 -0.4638  2.2890 -0.4927
16372SOL     OW66725   0.765   7.331   7.115  0.1598  0.0450  0.1433
16372SOL    HW166726   0.727   7.375   7.039 -0.6011  0.2793  0.6489
16372SOL    HW266727   0.859   7.340   7.103  0.0748 -0.5225 -1.1222
16373SOL     OW66728  10.357   4.661  11.832  0.4332 -0.1280 -0.3261
16373SOL    HW166729  10.367   4.596  11.902 -1.6533 -0.2618 -0.0881
16373SOL    HW266730  10.429   4.723  11.847  1.0743 -1.1138  0.8630
16374SOL     OW66731   7.548  11.627  12.822  0.5073  0.0267 -0.2054
16374SOL    HW166732   7.514  11.538  12.817  1.1627 -0.1871 -1.1605
16374SOL    HW266733   7.484  11.681  12.776  0.7221 -0.1434 -0.7048
16375SOL     OW66734   3.160  10.042   3.337  0.6628 -0.3675  0.0030
16375SOL    HW166735   3.241  10.052   3.388 -0.4665 -0.1596  1.8209
16375SOL    HW266736   3.109  10.119   3.358 -1.2525 -1.8877  1.2562
16376SOL     OW66737   3.751  12.049   3.808 -0.4805  0.2154  0.5149
16376SOL    HW166738   3.827  12.012   3.763 -2.0059 -2.7356  0.1751
16376SOL    HW266739   3.765  12.029   3.900 -0.9316 -0.5170  0.4273
16377SOL     OW66740   4.839   0.931  13.783  0.0172  0.7191 -0.7577
16377SOL    HW166741   4.845   0.888  13.869  0.2026  1.2835 -0.4796
16377SOL    HW266742   4.800   0.865  13.726  0.4489  0.1269 -0.3819
16378SOL     OW66743   5.453  11.651   4.872 -0.3542 -0.0257 -0.4069
16378SOL    HW166744   5.380  11.589   4.874  0.2728 -1.0799 -3.5954
16378SOL    HW266745   5.443  11.697   4.788 -0.1392  3.4947  1.3243
16379SOL     OW66746   8.465   7.306   1.064  0.4664  0.0492  0.0183
16379SOL    HW166747   8.504   7.219   1.071  1.5375  0.5126 -0.0682
16379SOL    HW266748   8.463   7.325   0.970 -1.7752 -0.7439 -0.1631
16380SOL     OW66749  13.458   6.538   3.518  0.2516 -0.6730 -0.0035
16380SOL    HW166750  13.493   6.500   3.598 -0.3735 -1.2744 -0.0100
16380SOL    HW266751  13.463   6.468   3.453  3.6495  0.6735 -1.4067
16381SOL     OW66752   8.651   0.297   0.780  0.4239  0.3394 -0.0973
16381SOL    HW166753   8.565   0.339   0.775  0.6390  0.6965 -0.9205
16381SOL    HW266754   8.672   0.274   0.689  0.9794 -0.1937  0.1573
16382SOL     OW66755  14.081   5.549  13.998  0.1447 -0.4465  0.0448
16382SOL    HW166756  14.019   5.579  14.064  0.8186  1.3534 -0.0798
16382SOL    HW266757  14.119   5.469  14.034 -1.5490 -1.0792  0.5284
16383SOL     OW66758   0.385   6.778   0.877  0.0506 -0.4386 -0.2123
16383SOL    HW166759   0.404   6.766   0.970  0.1448  1.5150  0.0567
16383SOL    HW266760   0.471   6.774   0.834  0.0762 -0.7066 -0.1360
16384SOL     OW66761  12.588  11.040   0.268 -0.3570  0.7218 -0.0472
16384SOL    HW166762  12.609  11.133   0.268  0.2996  0.5773  0.4559
16384SOL    HW266763  12.640  11.003   0.196  1.2961  0.3387  1.2892
16385SOL     OW66764   1.524   2.747   7.257 -0.4155  0.5975 -0.4741
16385SOL    HW166765   1.590   2.732   7.190  0.6672  1.6886  0.3136
16385SOL    HW266766   1.536   2.838   7.284 -2.7180  1.0711 -0.7830
16386SOL     OW66767   9.354   6.733   9.070 -0.6790  0.2127  0.3249
16386SOL    HW166768   9.443   6.767   9.080 -0.1218 -1.4674  1.6206
16386SOL    HW266769   9.324   6.768   8.987  1.6174 -0.0517 -0.7008
16387SOL     OW66770  10.440   6.366   0.585 -0.0201  0.4911 -0.1179
16387SOL    HW166771  10.360   6.314   0.590 -0.2125  0.8264  0.3511
16387SOL    HW266772  10.410   6.457   0.582  0.3491  0.7627  2.2083
16388SOL     OW66773   0.012   9.191  11.607  0.5397  0.4351 -0.4492
16388SOL    HW166774   0.005   9.135  11.530 -0.2714  1.3782 -1.0851
16388SOL    HW266775  -0.019   9.136  11.679 -1.4429  0.4106 -1.2420
16389SOL     OW66776   1.274   2.523   6.832 -0.7383 -0.3827 -0.2058
16389SOL    HW166777   1.320   2.606   6.844 -2.4343  0.7656 -1.4205
16389SOL    HW266778   1.208   2.522   6.901 -2.1073  0.2978 -1.4660
16390SOL     OW66779   2.433   9.495   1.226 -0.3523  0.1635  0.1941
16390SOL    HW166780   2.380   9.574   1.211  0.2757  0.4639 -0.5471
16390SOL    HW266781   2.377   9.423   1.197 -1.6823  0.1112  2.6666
16391SOL     OW66782   1.691   3.099   8.780  0.2082 -0.0161 -0.2920
16391SOL    HW166783   1.748   3.023   8.777 -1.6250 -1.4516 -0.5887
16391SOL    HW266784   1.730   3.156   8.846  2.8721 -0.1320 -1.6679
16392SOL     OW66785  10.454   7.635   5.800 -0.2235 -0.1606 -0.4035
16392SOL    HW166786  10.412   7.605   5.881  0.8323  0.6138  0.4563
16392SOL    HW266787  10.408   7.588   5.731 -2.1946  0.2877  0.5235
16393SOL     OW66788   4.942   2.601   5.759  0.0408 -0.2035  0.0639
16393SOL    HW166789   4.876   2.568   5.697  1.1462 -0.9118 -0.7768
16393SOL    HW266790   5.004   2.529   5.767  0.5618  0.3440  1.0751
16394SOL     OW66791   3.310   3.600   7.356 -0.0249 -0.1855  0.1451
16394SOL    HW166792   3.316   3.543   7.432 -1.5295  0.6927  0.9542
16394SOL    HW266793   3.288   3.542   7.283 -1.0153 -0.7075  0.8533
16395SOL     OW66794  13.498   9.288   0.298 -0.1127 -0.7562 -0.3714
16395SOL    HW166795  13.423   9.283   0.357  0.6719 -0.3447  0.6827
16395SOL    HW266796  13.555   9.354   0.337  1.3172 -1.8389 -0.5534
16396SOL     OW66797   7.984   3.338  11.993  0.1757 -0.6083 -0.7165
16396SOL    HW166798   7.919   3.361  12.060 -1.2358 -2.3576 -1.3969
16396SOL    HW266799   8.038   3.270  12.034  2.4461  1.6620  0.2688
16397SOL     OW66800   0.159   3.655  13.608  0.2823  0.0610 -0.2691
16397SOL    HW166801   0.150   3.562  13.629 -2.3563  0.6587  1.7637
16397SOL    HW266802   0.173   3.657  13.513  0.6708 -2.3775 -0.3286
16398SOL     OW66803   1.584   1.163   6.202  0.5695  0.2899 -0.1031
16398SOL    HW166804   1.514   1.105   6.231 -1.1869  2.2830 -0.1037
16398SOL    HW266805   1.615   1.125   6.120  0.1438 -1.1405  0.3732
16399SOL     OW66806   1.729   9.051   9.424 -0.1822  0.3029 -0.2397
16399SOL    HW166807   1.658   9.034   9.485  1.9453  0.3628  2.4585
16399SOL    HW266808   1.795   8.985   9.445  0.8256  0.5921 -2.2603
16400SOL     OW66809   1.035   0.077  12.949 -0.3890 -0.3113 -0.1249
16400SOL    HW166810   0.982   0.156  12.962 -0.3800 -0.6583  2.5701
16400SOL    HW266811   0.973   0.005  12.959 -1.1156 -0.9063 -5.6853
16401SOL     OW66812  13.798   9.654   9.359 -0.1785  0.3622 -0.1304
16401SOL    HW166813  13.802   9.730   9.417  1.1679 -0.3373  0.7632
16401SOL    HW266814  13.759   9.585   9.412  0.9632 -0.2551 -0.0461
16402SOL     OW66815   3.612   8.013  11.888 -0.3653  0.0757 -0.1685
16402SOL    HW166816   3.533   7.959  11.894  1.5297 -3.1542 -1.6730
16402SOL    HW266817   3.606   8.054  11.802 -1.1869  1.3297  0.4529
16403SOL     OW66818   3.659   3.196  13.076  0.3824 -0.2134  0.4581
16403SOL    HW166819   3.729   3.249  13.039  0.4687 -0.8826 -0.3605
16403SOL    HW266820   3.702   3.142  13.142  0.6332 -0.5974 -0.0168
16404SOL     OW66821   5.046   6.413   6.606 -0.5352 -0.1899  0.2433
16404SOL    HW166822   5.128   6.415   6.655 -1.6660  1.5314  2.2644
16404SOL    HW266823   5.032   6.505   6.580 -1.6122 -0.5237 -0.4317
16405SOL     OW66824   9.142   3.580   2.351  0.6708 -0.2158 -0.5717
16405SOL    HW166825   9.166   3.522   2.424 -0.8633  0.8572  0.8462
16405SOL    HW266826   9.221   3.584   2.297  1.6663 -1.4996  0.7175
16406SOL     OW66827   2.985   0.952   9.446  0.0774  0.2125  0.4537
16406SOL    HW166828   2.910   0.892   9.439  0.5260 -0.2873 -0.2273
16406SOL    HW266829   2.967   1.004   9.524 -0.4063 -0.7120  0.9868
16407SOL     OW66830  12.289   0.609   1.532 -0.2609  0.2876 -0.2699
16407SOL    HW166831  12.296   0.594   1.627 -2.0101  0.4086 -0.0794
16407SOL    HW266832  12.374   0.643   1.507  0.1630  0.5061  1.3173
16408SOL     OW66833  11.110  10.761  13.561 -0.3443  0.0206 -0.1545
16408SOL    HW166834  11.096  10.854  13.543 -0.6268  0.0669  0.2961
16408SOL    HW266835  11.191  10.757  13.611 -0.5864  0.0712  0.2454
16409SOL     OW66836  13.510   8.470   9.904 -0.0667 -0.2571  0.1795
16409SOL    HW166837  13.488   8.478   9.997  0.7930  0.0249  0.3684
16409SOL    HW266838  13.533   8.559   9.878 -1.2475 -0.1587 -0.5571
16410SOL     OW66839   3.858   7.070   5.748 -0.1337 -0.0787 -0.7152
16410SOL    HW166840   3.919   7.013   5.795  1.6316  1.3726 -1.1388
16410SOL    HW266841   3.785   7.012   5.725  0.2600 -1.4947  1.2738
16411SOL     OW66842   7.817  10.109   1.960  0.4368 -0.0505 -0.3244
16411SOL    HW166843   7.787  10.155   1.881 -0.1408 -1.9572 -1.2691
16411SOL    HW266844   7.846  10.024   1.928  0.8752 -0.5947  1.4536
16412SOL     OW66845   5.599   9.632   5.055 -0.7545  0.3905 -0.1186
16412SOL    HW166846   5.645   9.701   5.006 -1.7668  0.5204 -0.9269
16412SOL    HW266847   5.649   9.553   5.038 -1.2429  0.3772 -1.6393
16413SOL     OW66848   7.455   4.397   7.324  0.4941 -0.3921 -0.1341
16413SOL    HW166849   7.511   4.435   7.256 -0.5435 -0.2669 -0.9592
16413SOL    HW266850   7.415   4.473   7.366  2.0824 -0.4064  1.5161
16414SOL     OW66851   2.585  12.551   8.368  0.1565 -0.1709 -0.1587
16414SOL    HW166852   2.599  12.458   8.351 -1.7191 -0.9602  2.0008
16414SOL    HW266853   2.667  12.582   8.406  1.0709 -0.6889 -1.6217
16415SOL     OW66854   5.904   4.126   6.543  0.2317 -0.4896  0.0332
16415SOL    HW166855   5.938   4.136   6.454  1.6597 -1.1236  0.4901
16415SOL    HW266856   5.887   4.032   6.552  0.0244 -0.4200  0.4139
16416SOL     OW66857   3.167   2.176   6.079  0.2047  0.2464  0.2709
16416SOL    HW166858   3.225   2.111   6.118 -1.4342 -0.8628  1.0106
16416SOL    HW266859   3.125   2.218   6.154 -0.5990  0.3822 -0.2421
16417SOL     OW66860  10.964   0.100  10.103  0.7697 -0.3015 -0.1435
16417SOL    HW166861  10.978   0.178  10.050 -0.3619 -0.5610 -0.8618
16417SOL    HW266862  11.045   0.050  10.096  1.5158  0.8143  0.3546
16418SOL     OW66863  11.157   4.344   9.171 -0.2709  0.3351 -0.1081
16418SOL    HW166864  11.193   4.412   9.228  1.8088  0.3018 -1.2516
16418SOL    HW266865  11.119   4.280   9.231  0.0041  1.2730  1.1237
16419SOL     OW66866   3.569   9.709   3.209 -0.6786  0.6382 -0.0577
16419SOL    HW166867   3.633   9.649   3.171  0.7314  1.5044  0.8580
16419SOL    HW266868   3.514   9.735   3.135 -0.8192 -1.1332 -0.6118
16420SOL     OW66869   1.120   3.896   3.723  0.8998  0.1538 -0.0136
16420SOL    HW166870   1.149   3.833   3.657  0.2631  1.8268 -2.0013
16420SOL    HW266871   1.097   3.974   3.673 -2.0701  0.6849  1.9237
16421SOL     OW66872   6.930   1.452  10.316  0.0858  0.4402  0.1125
16421SOL    HW166873   6.891   1.438  10.230  1.2042  1.9971 -0.6831
16421SOL    HW266874   6.877   1.522  10.355  0.4128  0.6739  0.1382
16422SOL     OW66875   9.684   2.645   7.149  0.2193  0.2818 -0.1056
16422SOL    HW166876   9.738   2.594   7.209  1.6583  2.4583  0.5582
16422SOL    HW266877   9.620   2.688   7.206  0.2581  0.7238 -0.3936
16423SOL     OW66878   5.667  12.635   8.541 -0.1519  0.2431 -0.2872
16423SOL    HW166879   5.643  12.603   8.628 -2.3079 -0.5493 -1.1129
16423SOL    HW266880   5.745  12.585   8.518  0.5177  0.5462  1.2201
16424SOL     OW66881   5.423   0.852  13.450 -0.7019  0.5023 -0.2936
16424SOL    HW166882   5.476   0.777  13.473  1.2336  1.8686 -0.0787
16424SOL    HW266883   5.412   0.901  13.532 -1.4461  0.7736 -0.5386
16425SOL     OW66884   3.936   0.716   3.294 -0.5500 -0.4539 -0.0524
16425SOL    HW166885   4.015   0.688   3.247 -1.2990 -0.6806 -1.2318
16425SOL    HW266886   3.950   0.688   3.384  0.5096 -0.9345 -0.3516
16426SOL     OW66887  13.493  11.193   0.365  0.1403  0.0602  0.4498
16426SOL    HW166888  13.543  11.257   0.415  3.4359 -0.7499 -1.4590
16426SOL    HW266889  13.526  11.108   0.396  0.5213 -0.4834 -1.3260
16427SOL     OW66890   3.778   6.406   3.817  0.3718  0.4748 -0.4733
16427SOL    HW166891   3.727   6.487   3.813 -1.9126 -0.8862 -0.4413
16427SOL    HW266892   3.749   6.355   3.741 -1.2284 -1.9390  1.5956
16428SOL     OW66893   5.885  11.209   1.766 -0.2087  0.1501 -0.2844
16428SOL    HW166894   5.827  11.285   1.772  0.2651  0.4432  1.0342
16428SOL    HW266895   5.966  11.244   1.730  0.0448  0.3131  0.4203
16429SOL     OW66896  11.762   1.020   7.599 -0.1979 -0.3283  0.2028
16429SOL    HW166897  11.794   1.070   7.524 -1.2255 -0.6626 -0.4796
16429SOL    HW266898  11.807   0.936   7.592 -0.7189 -0.5690 -0.3890
16430SOL     OW66899  13.056  13.344  12.158 -0.1381 -0.5438 -0.3351
16430SOL    HW166900  13.089  13.318  12.243  0.4534  1.1536 -0.0057
16430SOL    HW266901  13.003  13.422  12.175  0.0254 -0.1498 -1.5127
16431SOL     OW66902   4.214  10.737  11.307  0.5883  0.1682  0.2805
16431SOL    HW166903   4.233  10.820  11.351  0.3526  0.9722 -1.0822
16431SOL    HW266904   4.176  10.763  11.223  1.2780 -1.3148 -0.5172
16432SOL     OW66905   6.984   3.224  10.201 -0.5289 -0.4211 -0.6260
16432SOL    HW166906   6.928   3.300  10.185 -0.2022  0.0117  0.2560
16432SOL    HW266907   6.951   3.185  10.281  0.8133  0.2277  0.2896
16433SOL     OW66908   5.694  13.236  13.740  0.7794  0.6991 -0.1053
16433SOL    HW166909   5.743  13.251  13.821 -0.1438  1.8959  0.2696
16433SOL    HW266910   5.748  13.276  13.672  0.8777  0.9749  0.1319
16434SOL     OW66911   5.322  13.917   1.519 -0.0565 -0.1503  0.6593
16434SOL    HW166912   5.375  13.910   1.599  0.3536 -0.8252  0.3369
16434SOL    HW266913   5.377  13.880   1.450 -0.6244 -0.0915  0.1638
16435SOL     OW66914   3.337   8.533   0.209  0.6326 -0.2470 -0.6333
16435SOL    HW166915   3.372   8.506   0.294  1.4625 -0.2296 -0.9663
16435SOL    HW266916   3.414   8.552   0.155  0.1171 -0.2461 -1.3908
16436SOL     OW66917   9.854   9.758   4.188 -0.1114 -0.0858 -0.3145
16436SOL    HW166918   9.855   9.779   4.095 -0.0264 -0.7016 -0.4562
16436SOL    HW266919   9.782   9.696   4.198 -0.9925  0.9948  0.2660
16437SOL     OW66920   7.958   6.708  10.165  0.0579 -0.4420 -0.1203
16437SOL    HW166921   8.004   6.747  10.090  0.3602 -0.4127  0.0789
16437SOL    HW266922   7.975   6.614  10.157 -1.4034 -0.6543 -1.0998
16438SOL     OW66923  12.060   8.542  13.453 -0.6838 -0.4581 -0.1432
16438SOL    HW166924  12.096   8.631  13.447 -1.1715 -0.0798  1.7778
16438SOL    HW266925  12.127   8.493  13.501 -1.1789 -0.6584  0.3550
16439SOL     OW66926   2.218   6.260   5.981  0.0869  0.0771 -0.1156
16439SOL    HW166927   2.200   6.329   6.044  0.3841  0.7606 -0.7636
16439SOL    HW266928   2.212   6.179   6.031  0.2608  0.6049  0.7724
16440SOL     OW66929  12.908   5.447  13.501  0.2352  0.6631  0.0004
16440SOL    HW166930  12.864   5.363  13.497 -0.9969  1.2224  1.2536
16440SOL    HW266931  12.991   5.433  13.455 -0.8490 -0.6436 -1.6582
16441SOL     OW66932   3.477   1.700  10.853 -0.3275 -0.2135  0.0931
16441SOL    HW166933   3.439   1.691  10.766 -0.3721 -0.4250  0.1321
16441SOL    HW266934   3.542   1.630  10.858  0.0666  0.1479  0.0267
16442SOL     OW66935   7.637   7.628   3.317 -0.5092  0.5359  0.0895
16442SOL    HW166936   7.613   7.652   3.406 -0.6879  0.3206  0.1000
16442SOL    HW266937   7.719   7.579   3.327  0.0940  1.5012  0.0292
16443SOL     OW66938  13.587   9.236  10.009  0.0636  0.3210  0.2975
16443SOL    HW166939  13.496   9.249  10.035  0.2217  2.0213  0.1391
16443SOL    HW266940  13.617   9.162  10.062 -1.9096 -1.5437 -1.0137
16444SOL     OW66941  12.143   7.622   1.091 -0.2052 -0.1143 -0.0651
16444SOL    HW166942  12.104   7.646   1.007 -0.1267 -0.3398 -0.1702
16444SOL    HW266943  12.237   7.633   1.077 -0.2761  1.2535  0.4572
16445SOL     OW66944   3.874   7.787  12.371  0.1509  0.2079  0.1924
16445SOL    HW166945   3.910   7.876  12.372  2.0551 -0.5128 -0.2457
16445SOL    HW266946   3.841   7.773  12.459  0.3066  1.1772  0.4125
16446SOL     OW66947   3.716   5.612   3.688  0.3151 -0.7520  0.5115
16446SOL    HW166948   3.675   5.682   3.739  1.2739 -0.8329  1.4443
16446SOL    HW266949   3.768   5.564   3.752  2.3142 -0.2993 -0.7001
16447SOL     OW66950   3.872  12.549   8.248  0.3848 -0.1869 -0.8924
16447SOL    HW166951   3.826  12.552   8.164  1.6202 -0.5171 -1.6132
16447SOL    HW266952   3.937  12.620   8.241  2.0114 -1.6453 -1.1611
16448SOL     OW66953   3.607  11.083   0.702  0.3970 -0.7531 -0.6866
16448SOL    HW166954   3.604  11.159   0.643 -0.9249 -0.1834  0.0754
16448SOL    HW266955   3.678  11.029   0.667  0.9578  0.5254 -1.6165
16449SOL     OW66956   2.918  12.498  10.904 -0.1167 -0.2866  0.1616
16449SOL    HW166957   2.917  12.541  10.989  1.0778  0.6891 -0.3027
16449SOL    HW266958   2.827  12.505  10.873 -0.3236  0.2935  0.8719
16450SOL     OW66959  12.989   0.339  11.993  0.3048 -0.2630 -0.0568
16450SOL    HW166960  12.990   0.415  12.051  0.6476 -1.2125  1.2402
16450SOL    HW266961  13.047   0.363  11.921 -1.0600  1.3945 -0.6610
16451SOL     OW66962   2.180  12.280  11.182 -0.0042 -0.3419  0.4843
16451SOL    HW166963   2.085  12.288  11.170 -0.2083 -1.9385  0.8325
16451SOL    HW266964   2.194  12.299  11.275 -0.0491 -0.5153  0.5274
16452SOL     OW66965  10.397  10.821  11.033  0.3465  0.4137 -0.5162
16452SOL    HW166966  10.365  10.910  11.021  3.5732  1.8863  0.5783
16452SOL    HW266967  10.344  10.786  11.105 -0.3533  1.8243 -0.3205
16453SOL     OW66968   4.199   8.002   6.069  0.0182  0.2004 -0.4240
16453SOL    HW166969   4.242   7.976   6.151 -1.3505 -0.6419  0.0734
16453SOL    HW266970   4.227   8.092   6.055  1.7723 -0.2461 -0.0527
16454SOL     OW66971  12.897   5.853  13.427  0.1952 -0.8695 -0.2946
16454SOL    HW166972  12.942   5.927  13.469 -0.9904 -0.1134 -0.3152
16454SOL    HW266973  12.965   5.810  13.376  0.9906 -0.0039 -0.0024
16455SOL     OW66974   7.770  12.681  10.344  0.5063 -0.0251  0.1866
16455SOL    HW166975   7.716  12.724  10.277 -0.1186  0.4481  0.9836
16455SOL    HW266976   7.860  12.691  10.311  0.3654  1.6656  0.1881
16456SOL     OW66977   2.328   9.893   2.199 -0.4711 -0.3319  0.0056
16456SOL    HW166978   2.257   9.881   2.262  0.4610  0.3501  1.2364
16456SOL    HW266979   2.316   9.982   2.166 -0.1934 -0.2256  0.1937
16457SOL     OW66980  12.848  12.513   1.488 -0.4260  0.4028  0.4515
16457SOL    HW166981  12.794  12.438   1.465 -0.5699 -0.4434  3.2742
16457SOL    HW266982  12.820  12.582   1.427 -2.7911 -0.7721  0.1037
16458SOL     OW66983   7.861   1.460  12.557 -0.2764  0.1361 -0.5841
16458SOL    HW166984   7.862   1.369  12.526 -1.3300  0.5593 -1.9255
16458SOL    HW266985   7.874   1.513  12.479  0.5147  1.1666  0.2036
16459SOL     OW66986  11.725  11.145  10.701  0.7472 -0.2234 -0.3983
16459SOL    HW166987  11.674  11.222  10.722  1.2130  0.3360 -1.2434
16459SOL    HW266988  11.677  11.103  10.629  1.2257  0.0730 -0.9044
16460SOL     OW66989   7.332  12.301   9.202 -0.4721  0.2682  0.0448
16460SOL    HW166990   7.322  12.209   9.225  0.6727 -0.0300 -0.5656
16460SOL    HW266991   7.385  12.301   9.123  0.7402  1.4894  0.7974
16461SOL     OW66992  13.179  13.574   3.320  0.2937 -0.0077 -0.1715
16461SOL    HW166993  13.168  13.600   3.229  0.0791 -0.3115 -0.2310
16461SOL    HW266994  13.228  13.492   3.316  0.8959  0.3322  0.0145
16462SOL     OW66995   9.097   1.803   1.240 -0.1466  0.0029 -0.0585
16462SOL    HW166996   9.168   1.756   1.283 -0.1410 -1.5100 -1.6169
16462SOL    HW266997   9.086   1.882   1.292  3.1777  0.6740 -0.1135
16463SOL     OW66998   8.808   8.497   8.727  0.5806  0.0582 -0.1560
16463SOL    HW166999   8.754   8.466   8.800  1.0928  1.4632  0.8533
16463SOL    HW267000   8.887   8.443   8.733  0.2542 -0.4398 -0.2314
16464SOL     OW67001  10.776   2.070   4.602 -0.0018 -0.4329  0.3013
16464SOL    HW167002  10.721   2.029   4.535 -0.0303  1.9913 -1.2861
16464SOL    HW267003  10.713   2.107   4.665 -0.0602 -0.7774  0.4456
16465SOL     OW67004  10.076  10.794   7.275 -0.0022  0.0076  0.3524
16465SOL    HW167005  10.110  10.879   7.303  0.9931 -0.5096  0.7398
16465SOL    HW267006  10.144  10.757   7.219  0.0749 -1.0094  1.0768
16466SOL     OW67007   2.816   6.818   1.067  0.4036 -0.0047  0.0429
16466SOL    HW167008   2.815   6.742   1.008 -0.6098 -1.2682  1.6096
16466SOL    HW267009   2.724   6.843   1.075  0.6684  1.0021  0.0690
16467SOL     OW67010   2.747  10.831  12.435 -0.1230  0.4165  0.4495
16467SOL    HW167011   2.753  10.771  12.361  0.6154  0.1462  0.7232
16467SOL    HW267012   2.726  10.916  12.396 -1.5191 -0.0662  0.0880
16468SOL     OW67013   4.652   4.754  13.642 -0.0605  0.8905 -0.5893
16468SOL    HW167014   4.704   4.691  13.592 -0.3974  0.4115 -0.3394
16468SOL    HW267015   4.707   4.774  13.719 -0.5586 -0.1954  0.0635
16469SOL     OW67016   3.916   8.039   2.663 -0.0622 -0.2394  0.0997
16469SOL    HW167017   3.974   8.103   2.704  0.6271 -0.4640 -0.5070
16469SOL    HW267018   3.891   8.080   2.580  2.0925 -1.6071 -1.3068
16470SOL     OW67019  12.140   9.591   4.265  0.3024  0.8632 -0.4369
16470SOL    HW167020  12.105   9.678   4.284  0.8750  1.1510 -0.6786
16470SOL    HW267021  12.234   9.598   4.282 -0.0017 -0.5200  2.3820
16471SOL     OW67022  10.626   1.302   4.512 -0.1256 -0.0130  0.2010
16471SOL    HW167023  10.586   1.365   4.452  1.3456 -1.2554 -2.2500
16471SOL    HW267024  10.705   1.345   4.543  0.4597 -0.2873 -0.8441
16472SOL     OW67025   5.428   5.432   3.598 -0.1939  0.7128 -0.0577
16472SOL    HW167026   5.351   5.407   3.546  0.2308  0.6427 -0.6724
16472SOL    HW267027   5.483   5.354   3.597  0.9130  1.4485 -1.5552
16473SOL     OW67028   0.536   0.224  13.006  0.2577  0.4540  0.1491
16473SOL    HW167029   0.503   0.282  13.075 -0.3475  0.6420 -0.2914
16473SOL    HW267030   0.503   0.262  12.925  1.7688  0.7863 -0.3363
16474SOL     OW67031  11.042  11.259   0.567  0.1038 -0.4332 -0.3402
16474SOL    HW167032  11.045  11.165   0.549 -0.4990 -0.4567 -0.3412
16474SOL    HW267033  11.100  11.271   0.642  1.1104 -0.6212 -1.0780
16475SOL     OW67034  13.191   2.135  12.015  0.3739 -0.2481  0.1844
16475SOL    HW167035  13.212   2.059  11.962 -1.0380 -1.3216  1.0780
16475SOL    HW267036  13.133   2.188  11.960 -1.6058 -1.6706  0.7995
16476SOL     OW67037   5.163  13.540   5.578  0.4365 -0.0178 -0.5270
16476SOL    HW167038   5.186  13.625   5.616  0.3320  0.3994 -1.3820
16476SOL    HW267039   5.188  13.548   5.486 -3.2302  0.5588 -1.6392
16477SOL     OW67040   4.648   0.404   0.282  0.6324 -0.5767  0.5012
16477SOL    HW167041   4.605   0.426   0.199 -1.0227 -1.7040  1.0117
16477SOL    HW267042   4.630   0.479   0.339 -1.8307 -1.5314  1.0963
16478SOL     OW67043  12.881   4.550   9.102  0.3364  0.3001 -0.3671
16478SOL    HW167044  12.925   4.590   9.178  1.2318 -0.6718 -0.3454
16478SOL    HW267045  12.923   4.591   9.026 -0.8156  1.5443 -0.3680
16479SOL     OW67046  13.893  14.023   0.018  0.0679 -0.3942 -0.0448
16479SOL    HW167047  13.876  14.078   0.095 -0.7103  0.9948 -1.1633
16479SOL    HW267048  13.982  14.048  -0.009  0.3638 -0.9243  0.4142
16480SOL     OW67049   2.095   0.368   6.442 -0.2216  0.2052  0.0068
16480SOL    HW167050   2.062   0.293   6.493 -1.0177  0.2668 -0.3995
16480SOL    HW267051   2.017   0.418   6.420  0.2053  0.6331 -0.5604
16481SOL     OW67052   2.813  13.788  12.067  0.6278 -0.0590 -0.5222
16481SOL    HW167053   2.754  13.853  12.028  0.6544  0.3911  0.1628
16481SOL    HW267054   2.881  13.840  12.109  0.1125 -0.4728  0.8922
16482SOL     OW67055   6.545   4.100   5.139  0.3942  0.1877  0.0246
16482SOL    HW167056   6.554   4.104   5.044  1.6564  1.5041  0.1702
16482SOL    HW267057   6.453   4.117   5.155 -0.4279 -2.6066 -1.0457
16483SOL     OW67058  12.057   1.220   5.778 -0.2431 -0.3345  0.1505
16483SOL    HW167059  12.096   1.286   5.837 -0.9261  0.3128 -0.1027
16483SOL    HW267060  12.042   1.144   5.834 -0.8770  0.2743  0.8228
16484SOL     OW67061  11.158   5.263  13.540 -0.0199 -0.1194  0.3043
16484SOL    HW167062  11.123   5.352  13.539 -1.7787 -0.7533 -1.1662
16484SOL    HW267063  11.188   5.250  13.630  1.2066  2.2640  0.3087
16485SOL     OW67064   9.634   3.949   7.041 -0.2436 -0.7056  0.0921
16485SOL    HW167065   9.610   4.000   6.964  0.3468 -0.8997 -0.2234
16485SOL    HW267066   9.687   4.008   7.094 -1.1271 -0.3830  0.6347
16486SOL     OW67067   9.306   6.632   4.499 -0.0606  0.5484 -0.1727
16486SOL    HW167068   9.231   6.621   4.558 -0.5901  0.8156 -0.7900
16486SOL    HW267069   9.324   6.726   4.501  2.6074  0.1391  2.8170
16487SOL     OW67070   9.297  12.285   4.418 -0.1507 -0.0603 -0.7412
16487SOL    HW167071   9.214  12.256   4.380 -0.4118  2.1433 -2.0345
16487SOL    HW267072   9.362  12.268   4.351 -0.1030  1.0295 -0.9988
16488SOL     OW67073  13.136   7.520   5.600  0.2869 -0.5402  0.2324
16488SOL    HW167074  13.050   7.551   5.627  1.0266 -0.1590  2.4245
16488SOL    HW267075  13.150   7.439   5.649  1.5469 -0.0649  0.7210
16489SOL     OW67076  14.016   4.021   3.381 -0.4209  0.0797  0.2251
16489SOL    HW167077  14.051   4.081   3.315 -1.5824 -0.3914 -0.8595
16489SOL    HW267078  14.048   3.935   3.355  0.4598  0.0810  1.2371
16490SOL     OW67079   7.546   3.117   1.591 -0.0347 -0.5115  0.2157
16490SOL    HW167080   7.558   3.145   1.681  1.3018 -0.7156  0.1204
16490SOL    HW267081   7.570   3.194   1.538 -2.0989  0.0684  0.0035
16491SOL     OW67082   0.878   5.020  11.246  0.0621  0.0490  0.4843
16491SOL    HW167083   0.868   5.048  11.337  1.1082 -1.2293  1.0331
16491SOL    HW267084   0.799   4.968  11.228 -1.0914  1.9063 -0.0105
16492SOL     OW67085   4.241   2.115  13.384  0.2816  0.0540 -0.0511
16492SOL    HW167086   4.169   2.074  13.337  0.0013  0.8148 -0.2862
16492SOL    HW267087   4.200   2.153  13.462  0.5717 -0.2544  0.2568
16493SOL     OW67088   8.817  13.916  13.120  0.2673 -0.2872  0.3409
16493SOL    HW167089   8.885  13.983  13.124 -0.0100 -0.0486  1.3689
16493SOL    HW267090   8.853  13.849  13.062  2.4456 -1.3684  2.7754
16494SOL     OW67091   5.866   3.363   2.370  0.5488 -0.0247  0.5563
16494SOL    HW167092   5.864   3.354   2.465  1.2450 -1.3810  0.4706
16494SOL    HW267093   5.940   3.309   2.342  1.1018  1.2947 -0.6712
16495SOL     OW67094   5.801  10.123   7.123 -0.6931 -0.7685  0.4374
16495SOL    HW167095   5.833  10.048   7.073 -1.1009 -0.2676 -0.6094
16495SOL    HW267096   5.746  10.172   7.060  1.1713  1.4922  0.4449
16496SOL     OW67097   1.304   3.264   2.568  0.4031 -0.1793 -0.3806
16496SOL    HW167098   1.212   3.256   2.541 -0.3591  0.3496  1.8670
16496SOL    HW267099   1.350   3.285   2.487 -1.5620  0.2852 -1.4521
16497SOL     OW67100  13.917   7.367   8.816 -0.0618 -0.4953  0.1560
16497SOL    HW167101  13.952   7.281   8.840  0.9535 -1.0155 -2.7177
16497SOL    HW267102  13.994   7.423   8.806 -0.4330 -0.1484 -0.9996
16498SOL     OW67103   5.996   5.524   1.722 -0.4772 -0.4028 -0.0889
16498SOL    HW167104   5.939   5.465   1.771  1.3117 -2.7432 -0.6413
16498SOL    HW267105   5.988   5.608   1.767 -0.3895 -1.9532  3.1045
16499SOL     OW67106  11.787   4.100   6.249  0.2556 -0.4752 -0.8206
16499SOL    HW167107  11.808   4.068   6.161  1.4545 -0.6284 -0.4962
16499SOL    HW267108  11.797   4.195   6.243  0.8839 -0.5328 -0.7135
16500SOL     OW67109   8.533   5.920   1.937 -0.1339  0.5262  0.0103
16500SOL    HW167110   8.603   5.855   1.952 -1.1738 -0.3302  1.3848
16500SOL    HW267111   8.523   5.964   2.021  0.1884  2.1440 -0.7710
16501SOL     OW67112   6.402  13.352   0.525  0.4050 -0.5554  0.0614
16501SOL    HW167113   6.464  13.425   0.524  1.7469 -1.6625 -0.8874
16501SOL    HW267114   6.339  13.375   0.593  0.9228  1.3698 -0.0503
16502SOL     OW67115   3.081   9.744   8.198 -0.2466  0.1445 -0.1471
16502SOL    HW167116   3.157   9.766   8.144 -2.0271  0.9030 -2.5676
16502SOL    HW267117   3.013   9.721   8.134 -2.5962  1.2701  1.7832
16503SOL     OW67118   3.304   2.378   5.650  0.1189  0.0480  0.1563
16503SOL    HW167119   3.394   2.368   5.680  0.1056 -1.9923 -0.3416
16503SOL    HW267120   3.261   2.295   5.673 -1.3340  0.5391 -0.6288
16504SOL     OW67121   3.690  10.028  12.771  0.3018  0.0654  0.0756
16504SOL    HW167122   3.606  10.056  12.734  1.2467  0.9527 -1.5081
16504SOL    HW267123   3.738   9.992  12.696  1.4595 -0.1335  0.8870
16505SOL     OW67124   3.216  12.083  12.344  0.4695 -0.0534  0.0012
16505SOL    HW167125   3.311  12.079  12.357  0.8577  1.0755 -2.0069
16505SOL    HW267126   3.190  12.166  12.385  0.1842 -0.7449  1.2622
16506SOL     OW67127   4.166  11.934  11.316 -0.4654  0.0315  0.1068
16506SOL    HW167128   4.099  11.897  11.373  0.0365 -1.5738 -0.2952
16506SOL    HW267129   4.143  11.903  11.229  0.5847 -0.2691 -0.0812
16507SOL     OW67130  11.806   3.251   6.430  0.2578  0.0934  0.6726
16507SOL    HW167131  11.856   3.215   6.502 -0.2544 -0.1598  0.9115
16507SOL    HW267132  11.868   3.305   6.382  0.8473 -0.5020  0.7475
16508SOL     OW67133   1.289   9.159  14.086  0.2213 -0.0396 -0.5964
16508SOL    HW167134   1.303   9.163  14.180 -1.0628 -0.9101 -0.3488
16508SOL    HW267135   1.258   9.070  14.070 -2.0375  0.8248 -1.4614
16509SOL     OW67136  11.546  10.165   8.662  0.2023 -0.0978 -0.2222
16509SOL    HW167137  11.606  10.110   8.612 -0.9692  0.3889 -2.2685
16509SOL    HW267138  11.570  10.255   8.637 -1.8625  0.0863 -1.7467
16510SOL     OW67139  11.036  10.852   9.140  0.2303  0.2924 -0.0779
16510SOL    HW167140  10.985  10.891   9.070 -0.3039  0.1043  0.1980
16510SOL    HW267141  11.117  10.903   9.143  1.1075 -0.8467 -2.0634
16511SOL     OW67142   1.183  12.360   9.244  0.2507 -0.4880 -0.4839
16511SOL    HW167143   1.135  12.441   9.261  1.7387  0.3001  0.1168
16511SOL    HW267144   1.132  12.317   9.175  1.2510  2.6570 -3.4858
16512SOL     OW67145   2.561  11.216   3.277 -0.2082  0.1544  0.1137
16512SOL    HW167146   2.580  11.207   3.370  0.3716 -1.7913 -0.1495
16512SOL    HW267147   2.465  11.224   3.272 -0.4468 -1.7049  0.8069
16513SOL     OW67148   3.442  13.758   9.322 -0.2471  0.2128 -0.5088
16513SOL    HW167149   3.493  13.741   9.401 -0.6391 -0.1432 -0.3281
16513SOL    HW267150   3.358  13.715   9.338  0.0195 -0.7430 -1.5261
16514SOL     OW67151  10.893   5.769   2.728 -0.3314 -0.4027  0.0714
16514SOL    HW167152  10.903   5.674   2.718 -1.4617 -0.7563  1.8887
16514SOL    HW267153  10.808   5.780   2.771 -0.0930  1.4289  0.1687
16515SOL     OW67154  13.291  10.748   1.696  0.0313 -0.4131 -0.2497
16515SOL    HW167155  13.282  10.665   1.743  1.7323 -0.1705  0.5725
16515SOL    HW267156  13.244  10.812   1.750 -0.3357 -0.6240 -0.3147
16516SOL     OW67157   4.124  10.283  10.334 -0.5754  0.6406 -0.8388
16516SOL    HW167158   4.148  10.268  10.242  0.5533  0.3209 -0.5098
16516SOL    HW267159   4.030  10.267  10.337 -0.3224 -1.2740 -1.5751
16517SOL     OW67160  11.791   2.686   9.352  0.8469  0.7166  0.2171
16517SOL    HW167161  11.851   2.619   9.320  0.7451  0.6655  0.1315
16517SOL    HW267162  11.770   2.739   9.275 -2.1020 -1.4486 -0.6708
16518SOL     OW67163   4.855   0.112  11.993 -0.0478  0.0059 -0.1182
16518SOL    HW167164   4.803   0.032  11.985 -1.1638  0.8211 -1.5717
16518SOL    HW267165   4.847   0.155  11.908  0.4897  1.6816  0.6224
16519SOL     OW67166   8.966   0.260   1.795  0.6582  0.4208  0.0673
16519SOL    HW167167   8.943   0.178   1.839  0.5693  0.7154  0.5723
16519SOL    HW267168   9.050   0.286   1.834  0.1889  1.0998  0.6521
16520SOL     OW67169   9.119  11.790   3.415  0.3700  0.1352 -0.3107
16520SOL    HW167170   9.085  11.729   3.480  0.4756  0.2649 -0.1337
16520SOL    HW267171   9.150  11.734   3.344  1.0121 -0.0460  0.1054
16521SOL     OW67172   7.361   9.014   4.539  0.1925 -0.2797  0.3330
16521SOL    HW167173   7.346   8.924   4.509  1.4962 -0.2477 -0.4822
16521SOL    HW267174   7.287   9.063   4.504 -0.7074 -1.0738  1.0478
16522SOL     OW67175   9.359   3.795   7.803 -0.0764 -0.2254  0.0764
16522SOL    HW167176   9.435   3.834   7.846 -0.7646  0.7068  0.4898
16522SOL    HW267177   9.305   3.762   7.875  0.3859 -1.8189 -0.2529
16523SOL     OW67178   5.720   3.339   9.237 -0.1255 -0.5285  0.0114
16523SOL    HW167179   5.669   3.259   9.230 -1.7796  0.4816 -0.0100
16523SOL    HW267180   5.777   3.325   9.313 -1.5563 -1.1174  1.0263
16524SOL     OW67181   0.616  13.356  12.334  0.3508 -0.4100  0.2815
16524SOL    HW167182   0.526  13.361  12.364  0.0160 -2.5296 -0.1637
16524SOL    HW267183   0.615  13.393  12.246 -0.2193 -0.9503  0.0577
16525SOL     OW67184   8.294  13.022  13.949 -0.0032 -0.6229 -0.3071
16525SOL    HW167185   8.228  13.083  13.983  1.1030  0.8227 -0.6732
16525SOL    HW267186   8.279  12.941  13.998 -0.9520  0.2026  0.8219
16526SOL     OW67187  13.001  10.591   0.505 -0.1182 -0.0527  0.2024
16526SOL    HW167188  13.082  10.627   0.468 -0.6720 -1.4276 -2.6020
16526SOL    HW267189  13.013  10.496   0.501 -1.5483 -0.2645  0.5706
16527SOL     OW67190  13.032   3.503  13.761  0.2928 -0.0009 -0.1433
16527SOL    HW167191  12.958   3.484  13.703 -0.2699  1.0228  0.2043
16527SOL    HW267192  13.031   3.432  13.825  0.9496 -1.1642 -1.3765
16528SOL     OW67193   1.072  11.901   6.278 -0.1540  0.4633  0.0544
16528SOL    HW167194   1.157  11.939   6.256  0.0498 -0.1229 -0.2059
16528SOL    HW267195   1.052  11.842   6.205 -1.0352  0.9820 -0.1386
16529SOL     OW67196   9.444  12.595  13.160 -0.7684 -0.0352 -0.1057
16529SOL    HW167197   9.387  12.665  13.127  0.6421  1.3849  0.3730
16529SOL    HW267198   9.477  12.627  13.243 -1.6758 -2.1857  1.1707
16530SOL     OW67199  12.749   1.078  13.888  0.2952 -0.4007  0.3261
16530SOL    HW167200  12.679   1.127  13.845  2.1086  2.5673  0.4614
16530SOL    HW267201  12.778   1.135  13.959  1.1926 -2.6683  1.9046
16531SOL     OW67202   3.542   9.908  11.233  0.2695 -0.5067  0.3914
16531SOL    HW167203   3.580   9.879  11.149  1.1338 -2.4610  1.3723
16531SOL    HW267204   3.521   9.826  11.278 -0.0603  0.4987  2.1389
16532SOL     OW67205   6.714   0.151   1.287 -0.0124  0.1073  0.3304
16532SOL    HW167206   6.803   0.154   1.321  0.7305 -1.6481 -1.2857
16532SOL    HW267207   6.686   0.060   1.301 -0.9170  0.2094 -0.6795
16533SOL     OW67208   3.612  10.866   8.121 -0.2858 -0.1326 -0.2277
16533SOL    HW167209   3.705  10.869   8.102 -0.1415  0.6678  0.5310
16533SOL    HW267210   3.590  10.773   8.121  0.2922 -0.2888 -1.3885
16534SOL     OW67211  13.758   9.064   4.393  0.3796 -0.1513 -0.1734
16534SOL    HW167212  13.677   9.024   4.423  0.6072 -0.4981 -0.0138
16534SOL    HW267213  13.733   9.111   4.313 -0.3615  1.3426  0.8820
16535SOL     OW67214   3.973  11.122   6.720 -0.1091  0.5569 -0.4612
16535SOL    HW167215   4.000  11.100   6.809 -0.1811  0.8597 -0.3610
16535SOL    HW267216   3.955  11.216   6.723 -0.5697  0.4800 -0.6813
16536SOL     OW67217   9.102   1.871  13.292 -0.0579  0.8481 -0.3804
16536SOL    HW167218   9.108   1.930  13.217 -1.6080  1.9882  0.3272
16536SOL    HW267219   9.191   1.837  13.303  0.3487  1.1817 -2.2866
16537SOL     OW67220   3.819  11.951   5.416 -0.1071 -0.5624 -0.4042
16537SOL    HW167221   3.807  11.914   5.503  1.0064 -0.2676 -0.1135
16537SOL    HW267222   3.731  11.952   5.378 -0.6242 -0.5667  0.7609
16538SOL     OW67223  13.533   9.449   6.272 -0.2159  0.7344 -0.1842
16538SOL    HW167224  13.587   9.489   6.204  1.3496 -1.1680 -0.1449
16538SOL    HW267225  13.456   9.417   6.225 -0.3509  1.6304 -0.5986
16539SOL     OW67226  12.033   9.934   9.360  0.0209  0.0071  0.0590
16539SOL    HW167227  12.115   9.911   9.316  0.4637  1.5362  0.0468
16539SOL    HW267228  11.986   9.989   9.297 -0.9108 -0.6145  0.1783
16540SOL     OW67229  10.381  13.577   1.252  0.1400  0.2049  0.4891
16540SOL    HW167230  10.324  13.501   1.243  1.8352 -0.9173 -1.4852
16540SOL    HW267231  10.445  13.569   1.181  0.9399  3.0043  0.7554
16541SOL     OW67232   9.718   7.129   4.026  0.4419 -0.4717 -0.0424
16541SOL    HW167233   9.735   7.039   3.998  1.9439 -0.8980  2.0264
16541SOL    HW267234   9.737   7.129   4.120 -2.2371  1.3696  0.5916
16542SOL     OW67235   6.565  10.681   5.759  0.4577 -0.5021  0.1629
16542SOL    HW167236   6.605  10.745   5.819  1.6868 -1.5176  0.4726
16542SOL    HW267237   6.492  10.645   5.808  0.3837 -0.0716  0.3753
16543SOL     OW67238   6.410   2.994   8.191 -0.4156  0.3407  0.1623
16543SOL    HW167239   6.395   2.964   8.101  0.7144  2.0932 -0.6875
16543SOL    HW267240   6.469   2.929   8.229 -1.8003 -1.0367  0.0718
16544SOL     OW67241   4.758   5.882   4.982 -0.4260  0.3997 -0.5835
16544SOL    HW167242   4.736   5.963   4.938 -0.0439  0.0659 -1.4201
16544SOL    HW267243   4.681   5.826   4.970 -0.0062  0.0007 -1.6289
16545SOL     OW67244   3.187   1.535  12.064 -0.3980  0.2513  0.1430
16545SOL    HW167245   3.192   1.443  12.089 -1.1431  0.5927  1.6506
16545SOL    HW267246   3.216   1.537  11.972  0.5159 -1.3440  0.3623
16546SOL     OW67247   6.867   6.260   0.732  0.1142  0.3882 -0.5027
16546SOL    HW167248   6.786   6.215   0.755  0.5740 -0.9833 -1.3947
16546SOL    HW267249   6.918   6.194   0.683  1.7328  1.2265 -0.0256
16547SOL     OW67250   8.242   4.185   0.921 -0.2491 -0.1047 -0.4232
16547SOL    HW167251   8.323   4.236   0.926 -0.5189  0.2441  0.5299
16547SOL    HW267252   8.251   4.134   0.840  0.7399  0.2302 -0.5372
16548SOL     OW67253   8.837  11.444   9.319 -0.2556  0.3233 -0.6594
16548SOL    HW167254   8.879  11.433   9.404 -1.7934  2.7123  0.5059
16548SOL    HW267255   8.891  11.507   9.272  1.1238 -1.6834 -1.9475
16549SOL     OW67256   3.310   2.238   4.162  0.0626 -0.3848 -0.4029
16549SOL    HW167257   3.393   2.266   4.201 -0.5372  0.8193  0.0619
16549SOL    HW267258   3.244   2.296   4.200 -0.7414 -0.0514 -2.1852
16550SOL     OW67259   4.475   9.476   0.048  0.8696  0.1535  0.3572
16550SOL    HW167260   4.408   9.478   0.115 -1.1917 -0.3827 -1.5729
16550SOL    HW267261   4.511   9.564   0.048 -2.0110  1.4427 -0.5656
16551SOL     OW67262   0.930  14.023   9.444 -0.2058  0.1112  0.2321
16551SOL    HW167263   0.943  14.099   9.501  2.4011  1.2685 -1.6856
16551SOL    HW267264   0.853  14.045   9.392 -1.0047  0.2355  1.4254
16552SOL     OW67265   0.203   8.002  13.670  0.1192  0.2835 -0.1444
16552SOL    HW167266   0.121   7.965  13.637 -0.0205 -0.4548  0.9662
16552SOL    HW267267   0.179   8.088  13.704 -0.2568 -0.0205  0.3804
16553SOL     OW67268  11.875  13.994   4.569 -0.1237 -0.3239  0.2896
16553SOL    HW167269  11.887  13.910   4.526 -2.6503 -0.9158  0.5460
16553SOL    HW267270  11.780  14.002   4.579  0.0241  2.6284  0.1707
16554SOL     OW67271   7.155   7.220   1.870  0.5892 -0.6956  0.1149
16554SOL    HW167272   7.108   7.304   1.874  0.7577 -0.6292  0.8796
16554SOL    HW267273   7.086   7.154   1.869  0.4364 -0.6256  1.8721
16555SOL     OW67274   0.023  10.044  10.613  0.0204 -0.0745  0.1106
16555SOL    HW167275   0.038   9.984  10.540 -2.0871  0.6682 -1.0038
16555SOL    HW267276   0.111  10.064  10.645  0.9085 -1.7628 -1.0903
16556SOL     OW67277   0.369   6.063   4.517  0.1558  0.6030  0.5694
16556SOL    HW167278   0.363   5.979   4.562  0.7495 -0.0891 -0.5988
16556SOL    HW267279   0.287   6.107   4.537 -0.7460 -0.8250  0.0874
16557SOL     OW67280   8.141   4.936   2.235 -0.2076  0.0537  0.5681
16557SOL    HW167281   8.050   4.947   2.205  0.2460 -0.5581 -1.1243
16557SOL    HW267282   8.156   4.842   2.233 -0.0392  0.0093  2.5056
16558SOL     OW67283   5.775   9.245  13.334 -0.5725 -0.0906  0.0473
16558SOL    HW167284   5.688   9.285  13.333 -0.9820 -0.9487 -0.9882
16558SOL    HW267285   5.792   9.225  13.425 -0.7770  1.5035  0.4719
16559SOL     OW67286   0.983   6.123   6.496 -0.2509 -0.1790 -0.0795
16559SOL    HW167287   1.014   6.184   6.563 -0.3189  0.9870 -1.0847
16559SOL    HW267288   1.033   6.146   6.418 -0.1424 -1.5482 -0.4394
16560SOL     OW67289   9.975  12.466   2.526 -0.0444 -0.4710 -0.4014
16560SOL    HW167290   9.945  12.557   2.524 -2.0962 -1.0888 -0.0521
16560SOL    HW267291   9.913  12.419   2.471  0.0214 -1.9038  0.6728
16561SOL     OW67292  10.919   0.932   0.833 -0.7310 -0.2767  0.4348
16561SOL    HW167293  10.949   1.023   0.831 -0.0619 -0.4513  1.5873
16561SOL    HW267294  10.990   0.885   0.877 -1.0830 -1.3563 -0.1184
16562SOL     OW67295  12.518   9.514   7.978  0.0262  0.3274  0.1036
16562SOL    HW167296  12.583   9.544   7.915 -0.8774  1.1072 -0.4713
16562SOL    HW267297  12.444   9.485   7.925 -0.5428  0.5124  0.7857
16563SOL     OW67298  10.720   4.730   2.229  0.0682 -0.2754 -0.3514
16563SOL    HW167299  10.802   4.693   2.263  0.2171  0.8102  0.5264
16563SOL    HW267300  10.714   4.816   2.271 -2.3300 -0.9541  0.8732
16564SOL     OW67301   4.653   2.666   9.614  0.1311  0.1526 -0.1745
16564SOL    HW167302   4.587   2.616   9.566 -0.3764  0.0336  0.6405
16564SOL    HW267303   4.727   2.606   9.622  0.0288 -0.0005 -0.3604
16565SOL     OW67304   7.554   0.096   1.683  0.1947 -0.2989  0.0125
16565SOL    HW167305   7.553   0.189   1.660 -1.4430 -0.6457 -1.5495
16565SOL    HW267306   7.594   0.094   1.770  0.2597  1.8674  0.0977
16566SOL     OW67307   6.974   2.523   7.847 -0.0932  0.4518 -0.3058
16566SOL    HW167308   7.058   2.508   7.804 -1.0591 -0.3099 -2.0235
16566SOL    HW267309   6.960   2.445   7.900 -0.0387  0.2365 -0.6030
16567SOL     OW67310   9.855  13.299   1.447 -0.8547  0.0299 -0.1742
16567SOL    HW167311   9.809  13.265   1.523 -1.7886  2.5123  0.4496
16567SOL    HW267312   9.829  13.241   1.375  0.2215 -2.4853  1.3497
16568SOL     OW67313   1.436   9.030  11.179  0.0417 -0.3607 -0.5695
16568SOL    HW167314   1.398   9.097  11.121 -0.1679 -0.6604 -0.7782
16568SOL    HW267315   1.527   9.056  11.188  0.0999 -0.3691 -1.1194
16569SOL     OW67316   5.463  13.154  13.940 -0.2054 -0.2525 -0.2768
16569SOL    HW167317   5.497  13.237  13.972 -0.1050 -0.2923 -0.2807
16569SOL    HW267318   5.523  13.128  13.870  0.1132 -0.6252  0.1318
16570SOL     OW67319   0.967   4.944   1.084  0.1436  0.7290  0.3572
16570SOL    HW167320   0.875   4.921   1.094  0.4762 -0.6104  0.5211
16570SOL    HW267321   0.989   4.919   0.994  0.1929  1.6871  0.0845
16571SOL     OW67322  11.459  13.473   7.635  0.0317 -0.0768  0.4657
16571SOL    HW167323  11.490  13.382   7.634 -0.0577 -0.2015 -2.8341
16571SOL    HW267324  11.381  13.472   7.580  0.0379  1.9915  0.3545
16572SOL     OW67325   3.941  13.594   6.586  0.0855 -0.2958 -0.3409
16572SOL    HW167326   3.863  13.587   6.642 -1.4544  2.2472 -1.9706
16572SOL    HW267327   4.013  13.610   6.648 -1.1099 -0.0910  1.0599
16573SOL     OW67328  11.959   3.682   7.781  0.6389  0.1283  0.0889
16573SOL    HW167329  11.959   3.596   7.823  0.4377 -0.1698 -0.5186
16573SOL    HW267330  11.980   3.664   7.690 -0.1660  0.6463 -0.2056
16574SOL     OW67331   4.833   3.679  11.826 -0.6149  0.0368  0.5831
16574SOL    HW167332   4.838   3.659  11.733  0.5690 -0.3251  0.7047
16574SOL    HW267333   4.895   3.750  11.839 -0.7137  0.0355  1.1141
16575SOL     OW67334   2.353   9.326   3.353  0.3534  0.1099  0.6224
16575SOL    HW167335   2.429   9.349   3.299 -0.7677 -0.3350 -1.2227
16575SOL    HW267336   2.356   9.389   3.426  1.8043  0.8722 -0.0543
16576SOL     OW67337   9.090   3.506   6.524 -0.6681  0.6598  0.0935
16576SOL    HW167338   9.070   3.412   6.526 -1.8619  0.9065  0.7676
16576SOL    HW267339   9.015   3.544   6.478  0.5407  1.1373 -1.5761
16577SOL     OW67340   5.570   2.560   6.737  0.3225  0.4618 -0.4879
16577SOL    HW167341   5.534   2.644   6.708  1.1610  0.2325 -2.3593
16577SOL    HW267342   5.494   2.507   6.758 -0.2797  1.1714 -0.8214
16578SOL     OW67343   8.950   6.142  11.281 -0.1734 -0.4014  0.8093
16578SOL    HW167344   8.950   6.191  11.364 -1.7899  1.0932 -0.0000
16578SOL    HW267345   8.995   6.199  11.219  1.1189 -1.5542  0.6329
16579SOL     OW67346  13.625   9.971   3.364 -0.1482 -0.0450 -0.2314
16579SOL    HW167347  13.618  10.065   3.382  1.5684 -0.0079  0.4245
16579SOL    HW267348  13.537   9.938   3.378 -0.4849  1.2420  0.9356
16580SOL     OW67349  12.984   1.294   9.452 -0.7112  0.3878 -0.4817
16580SOL    HW167350  12.960   1.376   9.496  0.8739  0.7078 -0.1409
16580SOL    HW267351  13.034   1.322   9.375 -1.4993 -0.2343 -1.2314
16581SOL     OW67352   7.612   3.411   0.372  0.1229  0.5502 -0.1272
16581SOL    HW167353   7.588   3.458   0.291  1.4227 -0.7702 -1.3382
16581SOL    HW267354   7.622   3.320   0.344 -1.1626 -0.2713  1.9290
16582SOL     OW67355   5.185   7.299   3.464 -0.2619  0.1572  0.3708
16582SOL    HW167356   5.117   7.289   3.529 -0.5981 -1.2646 -0.1704
16582SOL    HW267357   5.237   7.219   3.470 -0.3467 -0.0491 -1.1306
16583SOL     OW67358   8.426  11.585   8.023 -0.2539 -0.0812 -0.0714
16583SOL    HW167359   8.448  11.596   8.115  0.9616 -0.4563 -0.3000
16583SOL    HW267360   8.369  11.508   8.020 -0.0542 -0.2448  0.3336
16584SOL     OW67361   2.936   1.076   4.460  0.1947 -0.2588  0.0901
16584SOL    HW167362   2.862   1.019   4.480  0.6496 -0.5167  1.0939
16584SOL    HW267363   2.997   1.064   4.533  0.4815  1.2039  0.1229
16585SOL     OW67364   5.821  11.431   4.442  0.0451  0.0362 -0.2746
16585SOL    HW167365   5.818  11.425   4.346  0.6357  0.6135 -0.3396
16585SOL    HW267366   5.826  11.340   4.471 -0.9716 -0.1840 -0.7513
16586SOL     OW67367   0.814   4.553  13.047  0.0813  0.2879  0.1130
16586SOL    HW167368   0.757   4.589  13.115 -0.8230 -1.6237  0.4342
16586SOL    HW267369   0.902   4.559  13.083 -0.0403  1.9335  0.2178
16587SOL     OW67370  13.600  11.078   2.429 -0.4444  0.2169 -0.0886
16587SOL    HW167371  13.541  11.111   2.497 -0.0022 -0.4083  0.6174
16587SOL    HW267372  13.658  11.152   2.409  0.2959  0.0202  1.2062
16588SOL     OW67373   4.549   8.289   0.378  0.3194  0.3488  0.6570
16588SOL    HW167374   4.508   8.369   0.410 -0.8154 -0.3238  0.9682
16588SOL    HW267375   4.513   8.220   0.434  1.4558 -0.3552  0.5524
16589SOL     OW67376   5.639   0.600   1.123 -0.0156 -0.4343  0.3167
16589SOL    HW167377   5.688   0.525   1.158 -0.4336 -0.4951  0.7784
16589SOL    HW267378   5.564   0.609   1.182  0.0873  0.4149  0.3197
16590SOL     OW67379   3.722  10.442   7.990  0.2684 -0.4653 -0.0062
16590SOL    HW167380   3.641  10.489   8.009  0.9999  1.5361 -1.5098
16590SOL    HW267381   3.718  10.364   8.046 -1.8928  0.4082  1.1845
16591SOL     OW67382   5.964   6.352  11.048  0.1683  0.3010 -0.0870
16591SOL    HW167383   5.900   6.343  10.977  0.8515  0.9672 -0.8085
16591SOL    HW267384   5.917   6.398  11.117 -1.1854 -2.2153  0.8189
16592SOL     OW67385   6.538   1.636   1.401 -0.0741  0.5513 -0.0751
16592SOL    HW167386   6.626   1.667   1.425  0.4605 -0.6566 -0.4240
16592SOL    HW267387   6.511   1.695   1.331  1.1462 -0.0611 -1.0992
16593SOL     OW67388  11.561   6.152  10.407 -0.0537  0.6388  0.3006
16593SOL    HW167389  11.570   6.177  10.315  0.1313 -0.4773  0.0009
16593SOL    HW267390  11.490   6.207  10.440 -1.7028 -0.5124 -1.1222
16594SOL     OW67391   1.617   3.334   8.633 -0.2848 -0.8696 -0.0520
16594SOL    HW167392   1.651   3.254   8.675 -0.7695 -1.8477 -1.4342
16594SOL    HW267393   1.598   3.393   8.706 -0.0797 -2.0870  1.0314
16595SOL     OW67394   4.732  12.128   3.515  0.4746  0.2025 -0.3252
16595SOL    HW167395   4.700  12.044   3.547  0.2991 -0.6168 -2.4890
16595SOL    HW267396   4.727  12.186   3.591  2.1147 -2.0824  1.6938
16596SOL     OW67397   4.706   7.770   2.972 -0.4756  0.2824  0.9455
16596SOL    HW167398   4.740   7.853   2.939  0.3976 -0.2642  0.4407
16596SOL    HW267399   4.704   7.781   3.067 -0.3630  0.8813  0.8796
16597SOL     OW67400   8.648  13.493  10.023 -0.1818 -0.7172  0.3521
16597SOL    HW167401   8.736  13.494   9.986 -0.4035 -0.1194 -0.1801
16597SOL    HW267402   8.606  13.571   9.986 -1.5439 -1.9791 -0.8729
16598SOL     OW67403   6.545  10.644   5.392  0.3756 -0.3258  0.2540
16598SOL    HW167404   6.567  10.571   5.334  1.6561 -0.1458  0.4952
16598SOL    HW267405   6.510  10.711   5.334 -1.0986 -1.2185  0.0632
16599SOL     OW67406   0.729   7.730   6.990 -0.4360 -0.2379 -0.3948
16599SOL    HW167407   0.798   7.791   7.014 -1.9715  0.6920  1.9496
16599SOL    HW267408   0.655   7.785   6.966 -1.2710 -1.1899 -0.0933
16600SOL     OW67409   4.692   5.403   0.043 -0.1623  0.2969 -0.3975
16600SOL    HW167410   4.746   5.330   0.075 -0.3206  0.4283  0.1971
16600SOL    HW267411   4.609   5.362   0.020 -0.1694  0.2520 -0.2927
16601SOL     OW67412   1.090  11.733  13.183  0.3379 -0.0031  0.2657
16601SOL    HW167413   1.034  11.673  13.133  2.7045 -0.1886 -2.3695
16601SOL    HW267414   1.134  11.678  13.247 -2.0405  0.0878  2.1435
16602SOL     OW67415   9.594  10.761  11.963  0.0951 -0.6235  0.1730
16602SOL    HW167416   9.653  10.836  11.960 -0.8389  0.1472  0.4381
16602SOL    HW267417   9.512  10.794  11.927  0.0547 -1.9144 -0.9847
16603SOL     OW67418   4.151   9.834   1.055  0.6018  0.0843  0.2423
16603SOL    HW167419   4.215   9.786   1.107 -1.3411 -1.7930  1.0903
16603SOL    HW267420   4.159   9.797   0.967 -0.8263 -1.8839  0.8733
16604SOL     OW67421  12.029   1.297   7.273 -0.2682 -0.4128  0.7313
16604SOL    HW167422  11.977   1.355   7.328 -1.6451  0.6517 -1.5264
16604SOL    HW267423  12.079   1.356   7.216  0.0993 -1.4472 -0.0492
16605SOL     OW67424   3.011   3.318   4.112  0.2531  0.0256  0.4609
16605SOL    HW167425   2.976   3.234   4.085  0.9483  0.2157 -1.1302
16605SOL    HW267426   2.985   3.379   4.043  2.9827  0.3179 -0.4365
16606SOL     OW67427   2.415  13.683   3.364  0.4309 -0.1722  0.8420
16606SOL    HW167428   2.374  13.764   3.393 -0.4632 -0.7244  1.1642
16606SOL    HW267429   2.494  13.711   3.318 -1.4583  1.1024 -1.9075
16607SOL     OW67430  12.612   6.237   6.823  0.0338  0.0022 -0.1130
16607SOL    HW167431  12.693   6.280   6.796 -1.0715  1.5949 -1.0478
16607SOL    HW267432  12.597   6.267   6.912  0.7501 -0.7823  0.2921
16608SOL     OW67433  11.832   1.126   7.353  0.1734  0.2006 -0.4728
16608SOL    HW167434  11.909   1.143   7.300  0.1610  2.3814  0.1353
16608SOL    HW267435  11.775   1.202   7.339 -0.5185  0.0862  1.4259
16609SOL     OW67436   0.152  12.226   8.665  0.5443  0.0003  0.0619
16609SOL    HW167437   0.141  12.191   8.754 -0.7345 -0.3079 -0.1997
16609SOL    HW267438   0.080  12.188   8.615  0.0635  1.7464 -0.6352
16610SOL     OW67439   1.913   8.149   5.974 -0.0797  0.0558  0.2043
16610SOL    HW167440   1.969   8.202   5.917 -1.5102  0.7266 -0.6332
16610SOL    HW267441   1.963   8.069   5.990  1.0166  0.5452 -0.6784
16611SOL     OW67442   2.971   8.222  12.535 -0.0025  0.0942  0.4660
16611SOL    HW167443   3.038   8.265  12.482  1.3417 -0.2351  1.8347
16611SOL    HW267444   3.012   8.141  12.564 -1.1990 -0.3727  0.8893
16612SOL     OW67445  11.682   4.840   9.503  0.6140  0.0741 -0.0505
16612SOL    HW167446  11.714   4.887   9.426 -2.0398  0.4962 -1.0287
16612SOL    HW267447  11.610   4.895   9.535 -0.8410 -1.9876  0.3884
16613SOL     OW67448   1.984   3.012   0.812  0.1960  0.0686  0.1845
16613SOL    HW167449   2.019   3.011   0.901  4.2284 -1.9432 -1.1721
16613SOL    HW267450   2.012   3.096   0.775  0.8684 -0.2156  0.0424
16614SOL     OW67451   9.630  13.051  12.478 -0.4878  0.1634 -0.1287
16614SOL    HW167452   9.695  13.044  12.548 -0.5658  0.1193 -0.0607
16614SOL    HW267453   9.676  13.098  12.408 -0.4084  0.2059 -0.0493
16615SOL     OW67454   1.383   2.881  10.796  0.1734 -0.0570 -0.0470
16615SOL    HW167455   1.421   2.949  10.741 -0.5316 -0.8976 -1.6200
16615SOL    HW267456   1.316   2.926  10.847  2.8195  1.3839  2.4933
16616SOL     OW67457  11.192  11.909  10.504 -0.4392 -0.0336 -0.2377
16616SOL    HW167458  11.196  11.824  10.548 -1.3545 -0.2880 -0.6299
16616SOL    HW267459  11.283  11.928  10.482 -0.1152 -0.4820  0.6646
16617SOL     OW67460   4.613  12.142   3.244  0.3358 -0.0858 -0.3266
16617SOL    HW167461   4.555  12.203   3.289  0.5864  0.2679 -0.4821
16617SOL    HW267462   4.669  12.107   3.313 -0.1091 -0.4936 -0.1603
16618SOL     OW67463   2.390   4.735   1.563  0.6038 -0.3911  0.7537
16618SOL    HW167464   2.407   4.650   1.522 -1.3568  0.3890 -2.0003
16618SOL    HW267465   2.409   4.798   1.494  1.0835  1.3853  2.4335
16619SOL     OW67466   0.894   8.986  10.850  0.1586 -0.2852 -0.5173
16619SOL    HW167467   0.895   9.063  10.793 -0.4735 -0.3752 -0.6614
16619SOL    HW267468   0.926   9.018  10.934  2.0730 -0.3629 -1.1700
16620SOL     OW67469   6.811   0.908   8.043 -0.2306 -0.2135  0.2929
16620SOL    HW167470   6.876   0.842   8.020  0.2525  0.4753 -0.3910
16620SOL    HW267471   6.790   0.950   7.960 -2.0833 -0.8740  0.3758
16621SOL     OW67472   9.508   5.671   6.506  0.1433  0.2644  0.4772
16621SOL    HW167473   9.551   5.695   6.588  1.6727  2.0306 -0.7597
16621SOL    HW267474   9.463   5.751   6.479  1.7371  0.5309 -1.6063
16622SOL     OW67475  14.061   4.125   8.628  0.4358 -0.0863 -0.3383
16622SOL    HW167476  14.077   4.095   8.539  2.1565  0.5317 -0.2700
16622SOL    HW267477  14.066   4.045   8.681 -0.9812 -0.5160 -0.7951
16623SOL     OW67478   5.763   3.025   8.179  0.3298  0.0511 -0.0651
16623SOL    HW167479   5.849   3.068   8.172  0.2088  0.1970 -0.6357
16623SOL    HW267480   5.776   2.959   8.247  0.5218  0.9893  0.8478
16624SOL     OW67481   6.513   1.700   4.427  0.2530  0.2850 -0.6556
16624SOL    HW167482   6.470   1.776   4.465 -0.1940 -0.0370 -0.5051
16624SOL    HW267483   6.601   1.700   4.466 -0.9534 -1.4334  2.4014
16625SOL     OW67484  11.590   5.077  13.769  0.0097  0.6533  0.2953
16625SOL    HW167485  11.505   5.050  13.735  0.3636 -0.4652  0.2687
16625SOL    HW267486  11.642   5.097  13.690  0.4182 -0.6828  0.2056
16626SOL     OW67487  12.271  11.743   7.960  0.3059 -0.7199  0.1043
16626SOL    HW167488  12.238  11.658   7.930  0.6719 -0.3587 -1.4118
16626SOL    HW267489  12.290  11.730   8.053  0.4723 -2.3203 -0.1266
16627SOL     OW67490   6.059  13.210   5.997 -0.3384 -0.2644 -0.1926
16627SOL    HW167491   6.125  13.163   5.946  1.3607  0.9946  0.7601
16627SOL    HW267492   5.990  13.145   6.013  0.5656 -1.5701 -1.3515
16628SOL     OW67493   3.970   2.807   2.857  0.2506  0.2150  0.1015
16628SOL    HW167494   3.968   2.832   2.950  2.3604 -0.1602  0.3042
16628SOL    HW267495   3.902   2.741   2.849  0.5596 -0.3296  1.5896
16629SOL     OW67496   7.188   8.265   8.636  0.1172 -0.0374  0.1303
16629SOL    HW167497   7.123   8.271   8.706  0.3166  0.5101  0.2775
16629SOL    HW267498   7.209   8.356   8.616  0.4445 -0.2013 -0.2876
16630SOL     OW67499   8.784   5.803   8.599  0.0982  0.1489  0.0025
16630SOL    HW167500   8.736   5.722   8.581 -0.1713  0.5083 -0.9496
16630SOL    HW267501   8.860   5.776   8.650 -0.0700 -0.6812 -0.1854
16631SOL     OW67502  13.994   0.970  10.233 -0.1589  0.3583  0.1740
16631SOL    HW167503  14.012   1.064  10.242  0.2456  0.3271 -0.2905
16631SOL    HW267504  13.905   0.960  10.267 -0.3262  0.9633 -0.0690
16632SOL     OW67505   5.606   3.182   4.845 -0.2099  0.1153  0.6936
16632SOL    HW167506   5.646   3.268   4.833 -1.1170  0.3550 -0.8878
16632SOL    HW267507   5.651   3.126   4.782 -1.3116  0.0323 -0.0315
16633SOL     OW67508   5.683   2.331   2.390  0.3048  0.0605  0.5669
16633SOL    HW167509   5.718   2.290   2.311  2.8411  1.4087  0.8902
16633SOL    HW267510   5.748   2.314   2.457 -1.5751 -0.6461  2.3078
16634SOL     OW67511   0.906   7.997   5.052 -0.0188 -0.3750 -0.0370
16634SOL    HW167512   0.980   7.954   5.010  0.4151  0.7311 -0.4386
16634SOL    HW267513   0.868   8.052   4.984  0.3310  0.9899  0.8185
16635SOL     OW67514  13.358   7.455   0.869 -0.0860  0.2836 -0.1416
16635SOL    HW167515  13.333   7.380   0.815  1.4269  0.7365 -1.5629
16635SOL    HW267516  13.432   7.424   0.921  0.0333  0.5670 -0.1395
16636SOL     OW67517   4.497   2.311   6.655  0.1752  0.4682 -0.0410
16636SOL    HW167518   4.488   2.303   6.750  3.5771  0.9609  0.4702
16636SOL    HW267519   4.577   2.262   6.635 -0.9617 -0.4304 -2.8406
16637SOL     OW67520   4.999   0.258   6.627 -0.1908  0.1232 -0.0001
16637SOL    HW167521   4.947   0.244   6.706  0.1483 -0.6195  0.0981
16637SOL    HW267522   4.940   0.236   6.555 -0.4492  0.6437  0.0481
16638SOL     OW67523  13.464   5.731   5.297  0.2952  0.3118  0.3762
16638SOL    HW167524  13.448   5.664   5.364  0.8279  1.0504  1.2712
16638SOL    HW267525  13.518   5.687   5.231  0.6289 -0.1445  0.9451
16639SOL     OW67526   1.224   4.649   7.207  0.1711 -0.0473  0.2700
16639SOL    HW167527   1.317   4.671   7.199  0.2739 -0.7471 -0.6292
16639SOL    HW267528   1.179   4.733   7.210  0.7325  0.2917 -0.5615
16640SOL     OW67529  12.515   5.143   4.662 -0.4256  0.6343 -0.2418
16640SOL    HW167530  12.555   5.129   4.748 -0.3471 -0.9720 -0.5102
16640SOL    HW267531  12.441   5.201   4.679 -0.7374 -0.0895  1.0080
16641SOL     OW67532   3.714   5.278   4.792  0.0163  0.0357 -0.3079
16641SOL    HW167533   3.647   5.273   4.860 -1.4201 -0.8095 -1.7163
16641SOL    HW267534   3.795   5.294   4.840 -1.0897  0.5518  1.5034
16642SOL     OW67535   0.265  10.167   2.144 -0.1259  0.2120 -0.3569
16642SOL    HW167536   0.172  10.157   2.123 -0.4169  1.9483 -0.0657
16642SOL    HW267537   0.308  10.174   2.059 -0.3085 -0.2634 -0.4895
16643SOL     OW67538  11.677   1.459  13.987  0.0135  0.1599 -0.8337
16643SOL    HW167539  11.687   1.488  13.897 -0.9136  2.6669 -0.1953
16643SOL    HW267540  11.731   1.380  13.993  2.4092  1.5168 -2.8269
16644SOL     OW67541  10.721   0.208  13.539  0.3038  0.2675  0.0934
16644SOL    HW167542  10.808   0.170  13.530  0.6727  1.3131 -0.9631
16644SOL    HW267543  10.736   0.302  13.546 -0.7547  0.5448 -0.9526
16645SOL     OW67544  11.812   1.686  10.262  0.6491 -0.0680  0.1119
16645SOL    HW167545  11.874   1.718  10.327  1.2510  0.1483 -0.5518
16645SOL    HW267546  11.780   1.765  10.219 -1.1095 -0.0660  1.3201
16646SOL     OW67547   1.241  10.218  12.312  0.0670  0.3646 -0.6867
16646SOL    HW167548   1.242  10.130  12.350  1.3108  0.1188 -1.2399
16646SOL    HW267549   1.278  10.274  12.380 -2.7232  0.9099  0.5486
16647SOL     OW67550  10.933   1.094   8.128  0.3203  0.0917 -0.1228
16647SOL    HW167551  10.881   1.175   8.126  2.5354  1.6195  0.5223
16647SOL    HW267552  10.957   1.082   8.220  0.5834 -0.9323 -0.3090
16648SOL     OW67553   7.889   6.477   4.959  0.0577  0.4391 -0.3913
16648SOL    HW167554   7.800   6.475   4.994  0.3608 -0.2045  0.3749
16648SOL    HW267555   7.935   6.540   5.013 -0.4808  2.5421 -2.2385
16649SOL     OW67556  12.646   5.656   0.152 -0.0170 -0.7995  0.1666
16649SOL    HW167557  12.670   5.713   0.226 -1.1719  0.2918 -0.2669
16649SOL    HW267558  12.711   5.586   0.154  3.0526  1.7969 -0.7680
16650SOL     OW67559  13.536   2.679   3.519 -0.0800  0.0118 -0.2266
16650SOL    HW167560  13.624   2.713   3.536  0.7368 -2.3085  0.6284
16650SOL    HW267561  13.483   2.714   3.591  0.6263 -0.1493  0.3980
16651SOL     OW67562   5.119   9.876  12.622  0.0887  0.6542  0.0581
16651SOL    HW167563   5.156   9.790  12.641 -2.4742 -0.6138 -0.2401
16651SOL    HW267564   5.090   9.909  12.707  0.5839  0.9855  0.1000
16652SOL     OW67565   7.885   8.194   4.668 -0.4660 -0.4521  0.6837
16652SOL    HW167566   7.887   8.116   4.723  0.3657  0.3410  1.8296
16652SOL    HW267567   7.793   8.203   4.643 -0.4290 -2.3155 -0.2649
16653SOL     OW67568  13.816  11.608   8.296 -0.1829 -0.5779  0.0868
16653SOL    HW167569  13.797  11.529   8.245  1.5313 -1.5693  0.9093
16653SOL    HW267570  13.816  11.678   8.231 -1.3143 -1.2936 -0.7311
16654SOL     OW67571  13.969  10.496   4.073  0.0024 -0.1230  0.3916
16654SOL    HW167572  14.040  10.439   4.043 -0.0360  0.9686 -1.9998
16654SOL    HW267573  14.007  10.584   4.072 -0.7766  0.2483  1.2413
16655SOL     OW67574   6.656   5.569   2.761  0.0084 -0.3164 -0.2945
16655SOL    HW167575   6.728   5.628   2.783 -0.7065  0.1948  0.7439
16655SOL    HW267576   6.664   5.557   2.666  0.7194  0.7197 -0.3896
16656SOL     OW67577   5.750   8.061   0.283 -0.0173  0.0835 -0.1366
16656SOL    HW167578   5.669   8.093   0.244 -1.3067 -0.9094  1.5914
16656SOL    HW267579   5.756   8.107   0.367  1.2169  0.1396 -0.2386
16657SOL     OW67580   3.892   1.351  13.661 -0.0714 -0.0235  0.1277
16657SOL    HW167581   3.897   1.256  13.674  1.3352  0.0238  0.1190
16657SOL    HW267582   3.876   1.386  13.748  2.2203 -0.1416  0.6728
16658SOL     OW67583   3.966   1.869   8.209 -0.4465  0.0294  0.2669
16658SOL    HW167584   3.976   1.952   8.162 -0.1605 -0.2957 -0.2508
16658SOL    HW267585   3.871   1.855   8.212 -0.5659  0.9358  1.3614
16659SOL     OW67586  12.678  12.550   0.574  0.3801  0.0590  0.8086
16659SOL    HW167587  12.628  12.483   0.621  0.3268 -0.6861 -0.2647
16659SOL    HW267588  12.769  12.529   0.590  0.3623  0.3777  1.3452
16660SOL     OW67589   2.824  10.488  12.855  0.0443 -0.1969 -0.6830
16660SOL    HW167590   2.898  10.463  12.911  0.0444 -2.0545 -1.4311
16660SOL    HW267591   2.865  10.533  12.781  0.1298  1.3600  0.2573
16661SOL     OW67592   4.964   4.086  11.212 -0.2394 -0.2962  0.5969
16661SOL    HW167593   4.899   4.125  11.155 -0.5435 -1.8549 -0.1946
16661SOL    HW267594   5.018   4.032  11.153 -0.4985 -1.8699  1.7402
16662SOL     OW67595   5.309   7.301   5.569 -0.1646  0.3186  0.0232
16662SOL    HW167596   5.221   7.332   5.546 -1.1334 -1.7233  0.6752
16662SOL    HW267597   5.340   7.364   5.633 -1.5529  0.5924  0.4724
16663SOL     OW67598   2.111   2.283  12.199 -0.2928 -0.0752  0.2935
16663SOL    HW167599   2.144   2.219  12.135  1.9359  2.1269 -0.9489
16663SOL    HW267600   2.022   2.302  12.171  0.3094  0.1149 -1.6303
16664SOL     OW67601  11.113   9.893   9.101  0.3203  0.2807  0.0888
16664SOL    HW167602  11.206   9.874   9.118  0.1131 -0.5925  0.2802
16664SOL    HW267603  11.114   9.950   9.024  1.0216  0.3798  0.1649
16665SOL     OW67604  12.828   9.347   9.590  0.5330 -0.3397  0.0711
16665SOL    HW167605  12.881   9.416   9.629  1.2457 -0.1302 -1.1978
16665SOL    HW267606  12.829   9.277   9.654 -0.3780  0.8779  1.4785
16666SOL     OW67607  10.980  13.257   4.102 -0.1710 -0.3734  0.1070
16666SOL    HW167608  10.960  13.350   4.107  0.9921 -0.1654  1.0358
16666SOL    HW267609  11.068  13.253   4.065 -0.9112 -1.1985 -1.7195
16667SOL     OW67610   8.893  12.653  13.254 -0.0868  1.1248  0.7584
16667SOL    HW167611   8.859  12.738  13.283 -0.4021  1.3292 -0.1607
16667SOL    HW267612   8.858  12.643  13.165 -0.7418 -0.3465  1.1589
16668SOL     OW67613  10.532   0.905   5.867  0.3667 -0.4771  0.5286
16668SOL    HW167614  10.446   0.937   5.841  0.5981 -0.1561  0.1591
16668SOL    HW267615  10.514   0.853   5.946 -0.4652 -2.2334 -0.7498
16669SOL     OW67616  13.687  11.657   0.956  0.4917  0.0397 -0.0860
16669SOL    HW167617  13.624  11.594   0.921  0.2314  0.2334  0.0326
16669SOL    HW267618  13.719  11.704   0.879 -0.1130  0.4975 -0.0606
16670SOL     OW67619   3.989  11.479   3.614  0.1032 -0.4220 -0.0304
16670SOL    HW167620   4.003  11.565   3.575 -0.0332 -0.4688 -0.1811
16670SOL    HW267621   4.061  11.469   3.676  1.6450 -1.2945 -1.8749
16671SOL     OW67622  12.514  12.779   0.724  0.2261 -0.4649  0.5422
16671SOL    HW167623  12.582  12.783   0.791  1.9844  0.0980 -1.1770
16671SOL    HW267624  12.499  12.686   0.710  2.1785 -0.6990 -0.4372
16672SOL     OW67625   1.748  13.786  12.774  0.2900 -0.5974  0.6606
16672SOL    HW167626   1.776  13.695  12.774  0.4811 -0.5424 -0.1071
16672SOL    HW267627   1.666  13.786  12.824 -0.3657 -1.4063 -0.3882
16673SOL     OW67628  11.106  12.729   6.963 -0.5338  0.6886  0.1139
16673SOL    HW167629  11.195  12.726   7.000  0.5925 -1.0800 -2.4858
16673SOL    HW267630  11.061  12.794   7.016  2.4196  1.9528  1.2994
16674SOL     OW67631   0.032   3.439   5.617  0.1094 -0.2450  0.1324
16674SOL    HW167632   0.021   3.357   5.665 -1.2007  0.1475  0.5534
16674SOL    HW267633   0.050   3.504   5.685 -1.7060  0.3064  0.1400
16675SOL     OW67634   6.860   5.972   4.120 -0.0639  0.3986 -0.5639
16675SOL    HW167635   6.950   5.964   4.089 -0.6538  1.2229 -2.7240
16675SOL    HW267636   6.821   6.038   4.062 -1.5565  1.4745  1.5279
16676SOL     OW67637   5.027   0.590   8.637 -0.0446 -0.3935  0.1791
16676SOL    HW167638   5.017   0.520   8.572  0.4557 -0.5150  0.2267
16676SOL    HW267639   5.030   0.545   8.721  1.5651 -0.4548  0.1276
16677SOL     OW67640  12.224   0.965  12.640 -0.4716  0.4760 -0.0579
16677SOL    HW167641  12.250   0.994  12.552 -1.2536  0.9338 -0.1480
16677SOL    HW267642  12.164   1.033  12.671  0.8025  1.0203  1.3765
16678SOL     OW67643   7.643  12.851  10.170 -0.3058  0.1259 -0.5726
16678SOL    HW167644   7.672  12.932  10.128 -0.6182  0.7266  0.3405
16678SOL    HW267645   7.550  12.845  10.149 -0.6684  0.8694  0.6608
16679SOL     OW67646  12.264   3.911   2.823 -0.1464 -0.3703  0.1611
16679SOL    HW167647  12.359   3.911   2.829 -0.1553  1.2576  0.9931
16679SOL    HW267648  12.243   3.834   2.770  1.6378 -0.5773 -0.3131
16680SOL     OW67649   7.961   5.429   1.385 -0.0461 -0.0663  0.1256
16680SOL    HW167650   7.965   5.351   1.441 -0.6510 -0.3314 -0.1908
16680SOL    HW267651   7.982   5.501   1.444 -0.2943 -0.3847  0.6116
16681SOL     OW67652  11.539   8.455   9.996 -0.1251 -0.0510  0.0947
16681SOL    HW167653  11.449   8.486   9.990 -0.3843 -0.4238  1.6773
16681SOL    HW267654  11.588   8.529  10.031 -0.3818 -0.7078  1.9775
16682SOL     OW67655  10.759   2.806  13.218 -0.0660  0.3341 -0.2607
16682SOL    HW167656  10.767   2.715  13.189  2.8748 -0.0934  1.4212
16682SOL    HW267657  10.715   2.851  13.146 -1.1041 -2.2836 -1.3772
16683SOL     OW67658   3.550   1.825   5.562 -0.2906  0.3785 -0.6082
16683SOL    HW167659   3.494   1.877   5.504  1.5712  2.4740 -0.6505
16683SOL    HW267660   3.559   1.740   5.518 -2.7531  0.2326 -0.9470
16684SOL     OW67661  13.020   2.014  12.569 -0.4521 -0.4579  0.0975
16684SOL    HW167662  13.058   1.939  12.615 -1.1501  0.5154  2.4591
16684SOL    HW267663  13.077   2.088  12.593 -0.1336 -0.0898 -1.6660
16685SOL     OW67664   0.433  11.220  12.998  0.1828  0.1971  0.2016
16685SOL    HW167665   0.412  11.313  13.005 -2.6033 -0.3630  0.3732
16685SOL    HW267666   0.398  11.182  13.078 -0.4606 -1.2764 -0.7466
16686SOL     OW67667  11.771   0.570   2.629  0.2820 -0.2178 -0.6076
16686SOL    HW167668  11.762   0.481   2.661  0.8788 -0.1206 -0.1383
16686SOL    HW267669  11.792   0.622   2.707  1.7997  0.0179 -1.1244
16687SOL     OW67670   2.101   7.595  10.221 -0.2812 -0.3593  0.2242
16687SOL    HW167671   2.082   7.673  10.273 -1.9493 -1.0774  0.7387
16687SOL    HW267672   2.031   7.592  10.156 -0.0090 -1.2115 -0.0423
16688SOL     OW67673   3.176   3.490   9.723 -0.0806  0.0457 -0.7700
16688SOL    HW167674   3.200   3.580   9.700 -0.5336  0.6406  0.9044
16688SOL    HW267675   3.101   3.500   9.782  0.5927 -1.3658  0.3852
16689SOL     OW67676   1.581   6.992   1.573  0.3573 -0.7490 -0.4825
16689SOL    HW167677   1.490   7.000   1.543 -0.6128  0.0380  2.3308
16689SOL    HW267678   1.628   7.058   1.522 -1.3079  0.9959  0.1196
16690SOL     OW67679  12.530  13.609   4.604 -0.0851 -0.0640 -0.1837
16690SOL    HW167680  12.533  13.691   4.654 -0.2447  0.5222 -1.1290
16690SOL    HW267681  12.494  13.633   4.519 -0.3306 -1.1572 -0.4047
16691SOL     OW67682   7.611   0.840   9.271 -0.0171  0.0306  0.2759
16691SOL    HW167683   7.606   0.747   9.290 -1.4885  0.2251  0.9545
16691SOL    HW267684   7.521   0.872   9.280  0.2403  1.2933 -1.1184
16692SOL     OW67685   4.819   3.502  11.549 -0.0371 -0.4382  0.4959
16692SOL    HW167686   4.825   3.592  11.519 -0.3380 -0.5297  0.1446
16692SOL    HW267687   4.899   3.460  11.515  0.0438 -0.3314  0.5564
16693SOL     OW67688   9.626   5.765   1.414  0.1634  0.8089 -0.4825
16693SOL    HW167689   9.584   5.815   1.484 -0.2927  0.0274 -0.1814
16693SOL    HW267690   9.714   5.803   1.407  0.2551  0.8352  0.5865
16694SOL     OW67691   6.250   6.939   2.238  0.3293  0.2106  0.5268
16694SOL    HW167692   6.286   6.852   2.251  0.5569  0.2089 -0.0759
16694SOL    HW267693   6.156   6.926   2.228  0.4333 -0.0359 -0.1692
16695SOL     OW67694   2.920   9.580   8.567 -0.2570  0.1253 -0.1084
16695SOL    HW167695   2.978   9.550   8.638 -1.0367  2.9256  1.8633
16695SOL    HW267696   2.833   9.550   8.593 -0.2690 -0.7912 -1.1215
16696SOL     OW67697   1.724   8.330   4.835  0.1514 -0.3481 -0.0506
16696SOL    HW167698   1.747   8.419   4.808 -2.6404  0.8514  1.1609
16696SOL    HW267699   1.705   8.337   4.929  0.2384 -2.3367  0.1708
16697SOL     OW67700   1.824   2.581  10.036  0.1043 -0.3123 -0.3941
16697SOL    HW167701   1.887   2.645  10.068  1.6445 -1.0143 -1.8306
16697SOL    HW267702   1.739   2.615  10.063  1.0143  1.2123  0.7224
16698SOL     OW67703   5.274   7.872   8.171 -0.2419 -0.6049  0.4702
16698SOL    HW167704   5.217   7.813   8.122  0.0236 -0.6503  0.2078
16698SOL    HW267705   5.231   7.957   8.166 -1.0711 -0.9481  1.5959
16699SOL     OW67706   3.735   8.713   4.381 -0.4182 -0.0047 -0.3032
16699SOL    HW167707   3.777   8.776   4.440 -1.5946  0.8942 -0.3937
16699SOL    HW267708   3.808   8.673   4.334  0.4308  0.4827  0.5554
16700SOL     OW67709   1.477   2.434   4.241  0.4534 -0.4063  0.1780
16700SOL    HW167710   1.477   2.476   4.155  2.5450  1.0538  0.8149
16700SOL    HW267711   1.410   2.481   4.291  0.4721 -0.0623 -0.1178
16701SOL     OW67712  12.177   5.150   6.211 -0.0443 -0.0949 -0.6316
16701SOL    HW167713  12.256   5.100   6.192  0.8866  1.2811 -0.5040
16701SOL    HW267714  12.139   5.169   6.125 -0.1559 -0.6154 -0.7006
16702SOL     OW67715   3.319   3.624   4.885 -0.0932 -0.9388  0.0988
16702SOL    HW167716   3.310   3.602   4.977 -1.1423  1.8015  0.7740
16702SOL    HW267717   3.235   3.663   4.861  0.7263 -0.0303 -1.5262
16703SOL     OW67718  10.305   0.320   6.631 -0.3565 -1.2621 -0.3755
16703SOL    HW167719  10.345   0.346   6.548 -0.0443 -0.7065 -0.0627
16703SOL    HW267720  10.369   0.347   6.698 -1.7045  0.6644  0.2206
16704SOL     OW67721   3.715   9.815  11.588 -0.2160 -0.7803  0.3449
16704SOL    HW167722   3.699   9.740  11.644  0.2715 -2.2834 -1.4256
16704SOL    HW267723   3.676   9.791  11.504  2.1137 -0.1565 -1.0126
16705SOL     OW67724  13.953   9.553   7.885  0.5459  1.0560  0.0232
16705SOL    HW167725  13.971   9.501   7.963  0.9120  0.8436 -0.2035
16705SOL    HW267726  13.890   9.500   7.835  1.4534  0.4861 -0.5526
16706SOL     OW67727  12.720   4.511   4.295 -0.0565  0.3030 -0.3053
16706SOL    HW167728  12.769   4.579   4.250 -1.6671  1.0038 -1.0832
16706SOL    HW267729  12.658   4.559   4.351 -0.6518 -0.5287 -0.2287
16707SOL     OW67730   3.258   8.761   1.942 -0.4790 -0.4077 -0.2460
16707SOL    HW167731   3.165   8.740   1.953 -0.5484  0.5900  1.4736
16707SOL    HW267732   3.293   8.760   2.031  1.6531 -2.7824 -0.9999
16708SOL     OW67733   2.594   9.692   2.515 -0.0365 -0.0212  0.1153
16708SOL    HW167734   2.675   9.641   2.520 -0.3453 -0.7213 -1.4025
16708SOL    HW267735   2.602   9.756   2.586  2.5277  0.9288 -0.8803
16709SOL     OW67736  12.498   9.654   2.654 -0.5329  0.7579  0.0355
16709SOL    HW167737  12.424   9.650   2.714 -0.8439 -2.2307 -0.4166
16709SOL    HW267738  12.519   9.563   2.635  0.7860  1.5487 -2.9148
16710SOL     OW67739   8.678   3.801  11.440  0.3356 -0.0523 -0.1190
16710SOL    HW167740   8.757   3.852  11.419 -1.3324  3.1859  0.8500
16710SOL    HW267741   8.676   3.798  11.535  0.3729 -2.0800 -0.1364
16711SOL     OW67742   1.453   8.496   4.693  0.1040 -0.5323 -0.7851
16711SOL    HW167743   1.403   8.576   4.673  1.0957  0.3698  0.2157
16711SOL    HW267744   1.485   8.466   4.608  0.8418  0.8998 -1.0438
16712SOL     OW67745   5.059  11.745   2.921  0.4445 -0.5856  0.1906
16712SOL    HW167746   5.151  11.720   2.934  0.2316 -1.6780 -0.2615
16712SOL    HW267747   5.062  11.808   2.849  0.8565 -0.4234  0.3419
16713SOL     OW67748   3.641   1.779   4.071 -0.4648  0.3632 -0.7723
16713SOL    HW167749   3.552   1.806   4.051 -0.7351 -1.7562 -3.0201
16713SOL    HW267750   3.636   1.684   4.076  1.3702  0.2966  1.0392
16714SOL     OW67751   7.639   2.839   6.868 -0.6596  0.4297 -0.4921
16714SOL    HW167752   7.704   2.800   6.927 -2.0655  0.0222  0.8851
16714SOL    HW267753   7.563   2.856   6.925 -1.5743  1.3496 -1.9269
16715SOL     OW67754  10.044   3.393   4.451  0.5923 -0.2989  0.7681
16715SOL    HW167755  10.095   3.335   4.507  0.2203  0.6923  2.1973
16715SOL    HW267756  10.073   3.481   4.474 -0.6715  0.2189  0.5152
16716SOL     OW67757   3.138   6.790   9.117  0.0030 -0.2611  0.4279
16716SOL    HW167758   3.167   6.745   9.196  0.5671  0.4997  0.6616
16716SOL    HW267759   3.156   6.728   9.046  1.0534 -0.2925  0.7155
16717SOL     OW67760   1.968   8.436  10.464 -0.1673  0.0373  0.0696
16717SOL    HW167761   2.000   8.352  10.497  1.4054  1.0890  1.3762
16717SOL    HW267762   2.026   8.456  10.391  0.2305  0.5148  0.5072
16718SOL     OW67763  11.564   7.698   6.344 -0.2423 -0.7412 -0.3824
16718SOL    HW167764  11.619   7.764   6.303  0.1968 -0.6593  0.3286
16718SOL    HW267765  11.547   7.634   6.275  0.6849 -0.7272 -0.6281
16719SOL     OW67766  10.097  11.343  11.337  0.0610  0.1602 -0.9643
16719SOL    HW167767  10.150  11.269  11.308  0.7703  1.0432 -2.0136
16719SOL    HW267768  10.052  11.312  11.415  1.7621 -0.7819 -0.3180
16720SOL     OW67769  10.663   2.552  10.359 -0.0614  0.2414  0.4051
16720SOL    HW167770  10.743   2.580  10.405 -0.2538  3.0636 -0.7573
16720SOL    HW267771  10.592   2.574  10.420 -0.1739  1.9277 -0.2825
16721SOL     OW67772  11.677   3.806   7.600  0.3809  0.4031  0.4905
16721SOL    HW167773  11.681   3.759   7.683  1.6404 -0.8145 -0.2095
16721SOL    HW267774  11.583   3.819   7.584  0.0838 -0.3575  1.5498
16722SOL     OW67775  12.195   9.165   4.861  0.0956  0.7708 -0.3102
16722SOL    HW167776  12.194   9.124   4.774 -0.8713 -0.2243  0.1467
16722SOL    HW267777  12.188   9.092   4.922  0.1888  1.5066  0.5903
16723SOL     OW67778   2.466   4.205   6.997  0.2019  0.3970 -0.3273
16723SOL    HW167779   2.459   4.255   6.916 -0.0687  0.1476 -0.4582
16723SOL    HW267780   2.408   4.130   6.984 -0.2173  0.6139  0.2942
16724SOL     OW67781  10.086   3.455   1.696 -0.1868 -0.0763 -0.3264
16724SOL    HW167782  10.036   3.376   1.711 -0.4776 -0.1618 -1.6703
16724SOL    HW267783  10.141   3.464   1.775 -4.3968  1.7431  2.8199
16725SOL     OW67784   0.207  10.701  10.250  0.2467 -0.4969  0.5341
16725SOL    HW167785   0.174  10.784  10.285  1.1228 -0.3930  1.1329
16725SOL    HW267786   0.149  10.682  10.176 -0.0876  0.5450  0.5093
16726SOL     OW67787  11.566  10.140   0.283 -0.1393  0.3088 -0.1809
16726SOL    HW167788  11.581  10.106   0.371  0.9497  3.7253  1.1221
16726SOL    HW267789  11.641  10.109   0.232  0.7095  0.5840  0.8663
16727SOL     OW67790   8.077   9.884  12.672  0.2158  0.1910 -0.2173
16727SOL    HW167791   8.092   9.861  12.763  1.4904  0.2367 -0.3991
16727SOL    HW267792   8.132   9.961  12.657  2.9269 -1.8747 -1.9436
16728SOL     OW67793  10.173  13.390  10.418 -0.1811 -0.1348  0.6194
16728SOL    HW167794  10.217  13.321  10.370 -1.1240 -1.0589  1.0370
16728SOL    HW267795  10.100  13.346  10.462 -1.1921  1.2371  0.3851
16729SOL     OW67796  11.879   3.912   8.235  0.1474 -0.5724 -0.0289
16729SOL    HW167797  11.801   3.856   8.237 -0.5239  0.3243 -0.3328
16729SOL    HW267798  11.937   3.869   8.172 -1.3109  0.2489 -2.0277
16730SOL     OW67799   5.301   2.113   6.845  0.7263 -0.4811  0.6765
16730SOL    HW167800   5.301   2.108   6.749  0.5889  1.2911  0.5485
16730SOL    HW267801   5.317   2.023   6.874  0.9193 -1.0219 -1.0081
16731SOL     OW67802  12.834  10.587   7.247  0.3765 -0.1952  0.4578
16731SOL    HW167803  12.850  10.581   7.153  0.8745 -2.6072  0.6342
16731SOL    HW267804  12.921  10.579   7.286  0.1188  0.2932  1.1340
16732SOL     OW67805   0.727  12.830   7.779 -0.3004  0.1564 -0.2334
16732SOL    HW167806   0.765  12.911   7.745 -0.4957  0.4400  0.2130
16732SOL    HW267807   0.739  12.836   7.874 -0.2549 -0.3716 -0.2032
16733SOL     OW67808   6.538   3.679   6.006 -0.1474 -0.3511 -0.4845
16733SOL    HW167809   6.503   3.589   6.009  2.8264 -1.6649 -1.5437
16733SOL    HW267810   6.572   3.688   5.917  1.5858  1.0162  0.2675
16734SOL     OW67811   1.152  10.349   1.125  0.0449  0.2603 -0.2610
16734SOL    HW167812   1.162  10.319   1.216 -0.0597  2.9631  0.7557
16734SOL    HW267813   1.202  10.287   1.073 -0.6419 -1.9159  1.5045
16735SOL     OW67814   6.237  10.477  12.889  0.2915  0.1171  0.4578
16735SOL    HW167815   6.247  10.385  12.864  0.8834  0.4530 -0.6204
16735SOL    HW267816   6.172  10.512  12.828  0.9493  0.6931  0.0702
16736SOL     OW67817   1.733   4.031  11.892  0.1807  0.1148  0.4991
16736SOL    HW167818   1.814   4.004  11.935  0.1076 -1.3662 -0.2220
16736SOL    HW267819   1.676   3.954  11.897 -0.2542  0.2812 -1.1542
16737SOL     OW67820   9.330   6.332   3.800  0.0820 -0.2762  0.3905
16737SOL    HW167821   9.318   6.399   3.868 -1.2760 -0.0149 -0.0695
16737SOL    HW267822   9.252   6.277   3.807  0.2696 -0.6715 -0.4905
16738SOL     OW67823   9.381  11.518   3.932 -0.0696  0.1516 -0.3450
16738SOL    HW167824   9.298  11.551   3.966 -0.1124  0.6126 -0.8788
16738SOL    HW267825   9.358  11.438   3.884 -0.1578  0.0859 -0.1922
16739SOL     OW67826   6.495   5.993   3.973 -0.3406  0.0531 -0.0875
16739SOL    HW167827   6.485   6.060   4.041  2.4247 -0.7234  1.2293
16739SOL    HW267828   6.432   5.925   3.998  0.7449 -0.3100  1.9332
16740SOL     OW67829   8.313   4.644  12.325 -0.1451 -0.1318  0.0773
16740SOL    HW167830   8.335   4.654  12.418  2.0235  0.6304 -0.4637
16740SOL    HW267831   8.352   4.720  12.283 -0.7133 -0.6906 -1.5329
16741SOL     OW67832  11.373  13.620   4.852 -0.4718 -0.1056 -0.1505
16741SOL    HW167833  11.356  13.702   4.900 -2.1397  0.8442 -2.2034
16741SOL    HW267834  11.349  13.640   4.762  1.5236 -2.1469 -1.2236
16742SOL     OW67835  10.237   3.078   5.266 -0.2083 -0.5345 -0.3761
16742SOL    HW167836  10.195   3.145   5.319  0.7619 -0.0120 -0.2344
16742SOL    HW267837  10.170   3.049   5.205 -0.4490  1.0971 -0.9380
16743SOL     OW67838  12.577  10.347   4.836 -0.1413 -0.6943 -0.1358
16743SOL    HW167839  12.662  10.341   4.793  0.1622 -0.6400  0.4391
16743SOL    HW267840  12.569  10.265   4.885 -1.0444 -1.3200 -1.2966
16744SOL     OW67841   7.981  10.159   7.019 -0.8242  0.1661 -0.2113
16744SOL    HW167842   8.042  10.111   7.075 -1.4792 -1.2036 -0.6288
16744SOL    HW267843   7.945  10.227   7.075 -1.7832 -1.4212  1.2071
16745SOL     OW67844  11.375  10.433  13.624 -0.4633 -0.1721  0.7240
16745SOL    HW167845  11.367  10.501  13.557  0.8684 -0.5280  0.1779
16745SOL    HW267846  11.325  10.467  13.698 -2.6700 -0.1091 -0.6820
16746SOL     OW67847  11.840   7.955   3.496 -0.0475 -0.0000 -0.5654
16746SOL    HW167848  11.897   7.883   3.524 -2.5779 -1.8540  0.1810
16746SOL    HW267849  11.751   7.921   3.506 -1.3328  2.3555 -2.6439
16747SOL     OW67850  10.192  12.516   1.539  0.0387 -0.1042  0.1576
16747SOL    HW167851  10.138  12.581   1.493 -0.2684  0.0608  0.7468
16747SOL    HW267852  10.144  12.497   1.620 -0.5847 -2.0558 -0.5883
16748SOL     OW67853   2.346  12.778  11.682 -0.3278  0.5797  0.1275
16748SOL    HW167854   2.325  12.761  11.774 -2.8762  0.7488 -0.3713
16748SOL    HW267855   2.362  12.691  11.645 -0.2894  0.4331  0.4817
16749SOL     OW67856   1.277   0.753   2.647  0.1598  0.1629  0.2031
16749SOL    HW167857   1.259   0.732   2.739 -0.1472  0.3081  0.1773
16749SOL    HW267858   1.354   0.701   2.625 -0.8452 -1.2805  0.0045
16750SOL     OW67859   8.739   8.737   0.516  0.2250  0.1390 -0.2205
16750SOL    HW167860   8.741   8.654   0.563  1.1185  0.4597  0.3371
16750SOL    HW267861   8.802   8.726   0.445  2.6132  1.2809  1.5758
16751SOL     OW67862   9.300   7.261  11.327 -0.3131 -0.3551  0.5988
16751SOL    HW167863   9.222   7.233  11.375  0.0127  0.2496  1.5042
16751SOL    HW267864   9.372   7.218  11.372 -0.1461 -1.2390 -0.4924
16752SOL     OW67865   2.290   2.457  10.800 -0.4991 -0.4374  0.1836
16752SOL    HW167866   2.233   2.466  10.876 -3.0109  1.0866 -1.7174
16752SOL    HW267867   2.368   2.508  10.821 -2.0551  1.7399  0.9752
16753SOL     OW67868   2.738   6.732   9.911  0.1799  0.4355  0.5176
16753SOL    HW167869   2.794   6.684   9.973  0.3365 -0.7177 -0.4740
16753SOL    HW267870   2.649   6.708   9.937  0.0741  2.5020  2.2798
16754SOL     OW67871   2.274   1.361  12.636 -0.0053  0.5394 -0.5642
16754SOL    HW167872   2.229   1.375  12.719  0.8248  0.8323 -0.1482
16754SOL    HW267873   2.332   1.286  12.653 -0.7180 -0.1760 -1.2497
16755SOL     OW67874   5.199  12.833   2.391  0.5791 -0.7326  0.1404
16755SOL    HW167875   5.170  12.752   2.433  0.2244 -1.1422 -0.8630
16755SOL    HW267876   5.258  12.874   2.455  0.9649 -1.9030  0.5502
16756SOL     OW67877   1.656   8.480  13.277 -0.5560  0.4330  0.0064
16756SOL    HW167878   1.614   8.538  13.214 -0.2598  1.8291  1.0438
16756SOL    HW267879   1.749   8.502  13.272  0.0104 -2.0025 -1.6306
16757SOL     OW67880   4.273   3.136  12.864 -0.1201 -0.3354 -0.0211
16757SOL    HW167881   4.357   3.132  12.818  0.1144  0.6403  0.2829
16757SOL    HW267882   4.226   3.057  12.837  1.2046 -1.3085  0.4126
16758SOL     OW67883  13.681  11.437   9.689  0.4404 -0.1492  0.0671
16758SOL    HW167884  13.746  11.498   9.657  0.2591  0.8164  1.4430
16758SOL    HW267885  13.719  11.401   9.770 -0.0628 -0.7720  0.0383
16759SOL     OW67886   9.456   2.486  11.144  0.0173 -0.0242  0.1448
16759SOL    HW167887   9.460   2.392  11.162  1.0825  0.0001  0.0756
16759SOL    HW267888   9.545   2.509  11.117 -0.8615  0.4587 -2.6389
16760SOL     OW67889  12.655  13.715   7.693  0.0492  0.0717  0.2378
16760SOL    HW167890  12.570  13.732   7.653  0.0370 -1.2504 -0.3186
16760SOL    HW267891  12.637  13.716   7.787 -0.4456  0.4731  0.1470
16761SOL     OW67892  10.173  10.610   5.193  0.1171  0.1328 -0.3818
16761SOL    HW167893  10.129  10.622   5.109 -1.9210 -0.9429  0.4667
16761SOL    HW267894  10.157  10.691   5.241 -0.3343  0.0145 -0.3342
16762SOL     OW67895  13.101   6.152   6.483 -0.1362 -0.3309 -0.1964
16762SOL    HW167896  13.180   6.203   6.469  0.1476  0.0096  2.2830
16762SOL    HW267897  13.029   6.213   6.467  0.1081 -0.2542 -1.0493
16763SOL     OW67898   1.472   5.269  12.221 -0.2990  0.0648  0.1518
16763SOL    HW167899   1.535   5.279  12.292  0.2076 -0.7435 -0.1622
16763SOL    HW267900   1.446   5.358  12.199 -0.4110  0.3355  1.2940
16764SOL     OW67901   6.171   3.489   3.454  0.4575 -0.2757 -0.0118
16764SOL    HW167902   6.137   3.458   3.538  0.5490  0.4624  0.3084
16764SOL    HW267903   6.155   3.417   3.393 -1.0724 -0.1999  0.2752
16765SOL     OW67904   3.213  11.110   6.655  0.0892 -0.5790  0.2766
16765SOL    HW167905   3.131  11.133   6.697  0.9198 -1.2333  2.3849
16765SOL    HW267906   3.211  11.015   6.648  0.3298 -0.5403 -0.4291
16766SOL     OW67907  13.821  14.062   3.763 -0.1623 -0.3592 -0.0350
16766SOL    HW167908  13.905  14.106   3.775  0.7144 -2.2880  1.2964
16766SOL    HW267909  13.774  14.076   3.845 -1.4810  1.2770 -1.0098
16767SOL     OW67910   3.138   7.238  13.973 -0.1246  0.4099  0.8592
16767SOL    HW167911   3.228   7.237  13.942 -0.7711  4.0600 -1.8179
16767SOL    HW267912   3.097   7.162  13.933  1.5745 -1.0353  1.7423
16768SOL     OW67913   0.574   1.072  10.511  0.1394 -0.0092  0.0829
16768SOL    HW167914   0.573   1.066  10.416 -1.7204  1.3056 -0.0314
16768SOL    HW267915   0.541   0.988  10.542  2.2895 -1.0672 -0.3250
16769SOL     OW67916  14.066  13.222   0.143  0.1463  0.3632 -0.1410
16769SOL    HW167917  13.985  13.189   0.182  0.6413  0.0587  0.6515
16769SOL    HW267918  14.059  13.317   0.151 -0.0523  0.3313  0.0901
16770SOL     OW67919   6.258   7.778   2.866  0.2270  0.0072 -0.1399
16770SOL    HW167920   6.317   7.750   2.936 -0.9541 -1.4109  0.3456
16770SOL    HW267921   6.202   7.844   2.907  0.3940  0.1374 -0.1207
16771SOL     OW67922   4.747  13.352  11.072 -0.3626  0.1746 -0.3876
16771SOL    HW167923   4.752  13.257  11.058 -0.6819  0.3066 -1.5722
16771SOL    HW267924   4.826  13.386  11.029  1.4845  0.2326  2.7821
16772SOL     OW67925  11.024   3.236  10.011  0.0986 -0.1007  0.1168
16772SOL    HW167926  10.978   3.152  10.010 -1.8901  0.9535 -0.6891
16772SOL    HW267927  11.038   3.257   9.919  0.4849  0.5257  0.3132
16773SOL     OW67928  11.864  13.737   4.315  0.2952  0.4715 -0.0787
16773SOL    HW167929  11.799  13.783   4.263  0.5541 -0.3935 -1.2118
16773SOL    HW267930  11.818  13.712   4.395 -0.5882  0.4089 -0.6004
16774SOL     OW67931   3.216  13.013   6.287 -0.1452  0.0943  0.5095
16774SOL    HW167932   3.292  13.070   6.299 -0.3889  0.5257  0.0205
16774SOL    HW267933   3.229  12.971   6.202 -0.1049 -0.3711  0.7424
16775SOL     OW67934   1.228   3.133   8.550 -0.4497  0.4000  0.1737
16775SOL    HW167935   1.183   3.061   8.505 -1.8209 -0.3376  2.5699
16775SOL    HW267936   1.297   3.090   8.601 -1.5409  0.6790  1.9479
16776SOL     OW67937  11.303   0.906  13.846  0.0615 -0.7233 -0.9810
16776SOL    HW167938  11.224   0.942  13.886  0.4558  0.2069 -1.0190
16776SOL    HW267939  11.273   0.828  13.800 -0.5943 -1.1653  0.1638
16777SOL     OW67940   4.490  10.415   0.076 -0.1938  0.2777 -0.7081
16777SOL    HW167941   4.432  10.374   0.012  0.4103 -0.5934 -0.7103
16777SOL    HW267942   4.513  10.499   0.036 -0.5804  0.1596 -1.2004
16778SOL     OW67943   2.130  11.871  11.254 -0.2705  0.1609  0.3152
16778SOL    HW167944   2.053  11.926  11.245 -0.5391 -0.0605  1.1442
16778SOL    HW267945   2.173  11.903  11.333  0.3404  0.1011  0.0113
16779SOL     OW67946   1.561  12.980  12.141 -0.5338  0.1834  0.3077
16779SOL    HW167947   1.514  13.008  12.062 -0.0060 -0.7363 -0.3470
16779SOL    HW267948   1.559  12.884  12.137  0.9646  0.1224  0.5235
16780SOL     OW67949   5.465   8.494   0.407  0.1660  0.4118  0.0311
16780SOL    HW167950   5.460   8.529   0.318  0.6020  0.1331 -0.1094
16780SOL    HW267951   5.437   8.403   0.398  1.4710 -0.0068 -0.0694
16781SOL     OW67952   3.279   1.485  13.052 -0.2412  0.3446 -0.6519
16781SOL    HW167953   3.326   1.435  12.985 -2.0625 -0.9466 -1.0427
16781SOL    HW267954   3.297   1.438  13.133  1.5539  1.6227 -0.2326
16782SOL     OW67955   2.056  12.649  12.562 -0.5680 -0.3478 -0.0551
16782SOL    HW167956   2.019  12.569  12.599  0.2110 -0.7511 -0.1319
16782SOL    HW267957   1.985  12.686  12.508 -0.4739 -1.7185 -1.1465
16783SOL     OW67958   0.521   2.467   9.657 -0.8224 -0.0291 -0.7116
16783SOL    HW167959   0.493   2.503   9.573  0.5149  0.8435 -0.8183
16783SOL    HW267960   0.517   2.541   9.717  1.9641  0.4177 -0.9337
16784SOL     OW67961  11.793   3.055  13.627 -0.2115 -0.2560  0.1838
16784SOL    HW167962  11.838   3.090  13.703 -1.2215  1.6504 -0.0214
16784SOL    HW267963  11.851   3.073  13.553  0.4985 -1.5563  0.4133
16785SOL     OW67964  11.526   8.281   9.240 -0.0367 -0.2698 -0.0417
16785SOL    HW167965  11.595   8.333   9.198  1.8849 -2.5761  0.0490
16785SOL    HW267966  11.457   8.276   9.174  0.8056  0.2776 -1.0057
16786SOL     OW67967   5.955   3.161   7.104  0.4702  0.0998 -0.3819
16786SOL    HW167968   5.912   3.213   7.036 -0.4423 -0.4203 -0.2171
16786SOL    HW267969   5.953   3.072   7.070 -1.7379 -0.5042  1.1217
16787SOL     OW67970  10.361   7.067   1.323  0.0854 -0.1035 -0.2631
16787SOL    HW167971  10.451   7.058   1.354 -0.2830  1.4244  1.4854
16787SOL    HW267972  10.369   7.099   1.233  1.3499  1.7574  0.4519
16788SOL     OW67973   7.996   6.144   9.569 -0.1643 -0.7203  0.1063
16788SOL    HW167974   8.048   6.064   9.577  1.0072 -0.0971 -0.8164
16788SOL    HW267975   8.061   6.214   9.560 -1.1575  0.1376 -0.7439
16789SOL     OW67976  10.988   3.926   9.946  0.1913 -0.0869 -0.5400
16789SOL    HW167977  10.910   3.978   9.926 -1.5535 -2.9322 -1.7730
16789SOL    HW267978  10.986   3.917  10.041 -0.5772  0.4341 -0.4904
16790SOL     OW67979   0.651   6.174   3.868  0.2554  0.3839  0.2317
16790SOL    HW167980   0.716   6.121   3.914  0.3495  0.9430  0.7676
16790SOL    HW267981   0.695   6.204   3.789 -0.1868 -1.2924 -0.6812
16791SOL     OW67982   4.801   6.209  12.662 -0.0836 -0.1375 -0.0766
16791SOL    HW167983   4.728   6.166  12.617  0.7862 -1.0132 -0.7043
16791SOL    HW267984   4.807   6.164  12.746 -1.4550  1.2303  0.8144
16792SOL     OW67985   8.921   2.073   9.550 -0.0703 -0.3677 -0.1500
16792SOL    HW167986   8.859   2.133   9.591 -1.6221 -1.7680 -0.3291
16792SOL    HW267987   8.988   2.130   9.512  0.9987  1.0844  3.4428
16793SOL     OW67988   2.959   3.053   0.546  0.1454 -0.4605 -0.0286
16793SOL    HW167989   2.986   2.988   0.481  1.2370  0.2237 -0.2819
16793SOL    HW267990   3.025   3.122   0.541 -0.7831  0.5061  0.4996
16794SOL     OW67991  11.621   2.791   2.160  0.0555  0.1515 -0.3428
16794SOL    HW167992  11.660   2.801   2.247  0.4114 -1.5754 -0.2524
16794SOL    HW267993  11.607   2.696   2.152 -1.6412  0.4598 -1.4593
16795SOL     OW67994   4.615   5.715   9.387  0.3165  0.2355  0.0083
16795SOL    HW167995   4.665   5.713   9.469 -0.2446  0.5265  0.3628
16795SOL    HW267996   4.553   5.787   9.399  0.1725  0.2229 -0.6432
16796SOL     OW67997   7.870   7.685   8.530 -0.0099  0.2779 -0.3930
16796SOL    HW167998   7.779   7.663   8.552  0.0519  0.4104  0.0043
16796SOL    HW267999   7.865   7.773   8.494 -0.2522 -0.3369 -1.9387
16797SOL     OW68000  10.192   1.093  13.683  0.8702 -0.2329 -0.0381
16797SOL    HW168001  10.178   1.013  13.733 -0.6375  0.0355 -0.0002
16797SOL    HW268002  10.176   1.068  13.592  2.6743 -0.4933 -0.3202
16798SOL     OW68003  13.540   7.634   2.442  0.0861 -0.3871  0.3030
16798SOL    HW168004  13.456   7.637   2.487 -1.1643  3.7624 -1.8456
16798SOL    HW268005  13.594   7.698   2.489  1.1826 -1.1471  0.1144
16799SOL     OW68006   0.744   7.128  12.174 -0.3608 -0.4515  0.6248
16799SOL    HW168007   0.723   7.035  12.159  0.8183 -0.7133  0.4429
16799SOL    HW268008   0.696   7.174  12.105 -1.3553 -0.8596  1.0150
16800SOL     OW68009   3.822   5.982   6.112 -0.1127 -0.2945 -0.0935
16800SOL    HW168010   3.744   5.989   6.058  0.0121  0.9288 -0.1513
16800SOL    HW268011   3.858   5.896   6.092 -1.3038 -0.7678 -0.2425
16801SOL     OW68012   2.887   5.906   6.176  0.2722  0.3871  0.5425
16801SOL    HW168013   2.832   5.829   6.185 -1.8062  1.4267 -2.0552
16801SOL    HW268014   2.939   5.890   6.097  2.2513  0.3408  1.7781
16802SOL     OW68015   4.597   3.025   1.224  0.4949  0.7906 -0.2633
16802SOL    HW168016   4.544   3.073   1.288  2.7494  1.8714  0.9335
16802SOL    HW268017   4.615   2.941   1.266  0.6163  0.8575 -0.1791
16803SOL     OW68018   7.694   4.061   1.868  0.1154  0.2037 -0.6177
16803SOL    HW168019   7.701   4.116   1.946 -1.1356 -0.5816  0.0809
16803SOL    HW268020   7.601   4.040   1.862  0.2966 -0.3129 -1.9390
16804SOL     OW68021   5.577  10.336  10.457 -0.6337  0.3997  0.3139
16804SOL    HW168022   5.617  10.360  10.373 -0.8733  0.6696  0.2721
16804SOL    HW268023   5.487  10.369  10.450 -0.3027  1.5495  1.1625
16805SOL     OW68024   5.384   3.356   1.046  0.7287  0.2406  0.3609
16805SOL    HW168025   5.363   3.428   1.106  0.0130  0.0845  0.3146
16805SOL    HW268026   5.298   3.318   1.024  1.1887 -1.9504  2.0104
16806SOL     OW68027  10.824   3.359   7.188 -0.0256 -0.0369  0.2337
16806SOL    HW168028  10.836   3.283   7.245  2.8374 -0.1258 -0.3593
16806SOL    HW268029  10.894   3.419   7.213 -0.5622  1.2396 -1.1747
16807SOL     OW68030   3.814   1.744   7.720  0.9030 -0.4213  0.5668
16807SOL    HW168031   3.875   1.689   7.770 -1.7479 -1.6050  2.7870
16807SOL    HW268032   3.737   1.688   7.708 -0.6423  1.7336 -0.0637
16808SOL     OW68033   2.253   5.606  13.943 -0.2534  1.0538  0.0267
16808SOL    HW168034   2.340   5.571  13.961 -0.5885 -0.0342 -0.3643
16808SOL    HW268035   2.199   5.528  13.929 -1.2822  1.7110  0.2303
16809SOL     OW68036  11.534  10.419   5.234  0.2086  0.2544  0.1737
16809SOL    HW168037  11.440  10.403   5.230 -0.0761  1.5144  1.0193
16809SOL    HW268038  11.544  10.507   5.197  0.7449  1.0213  2.0190
16810SOL     OW68039  11.562   8.040   9.032  0.3092 -0.3277 -0.6046
16810SOL    HW168040  11.597   8.095   9.102 -1.3294 -0.1201  0.0897
16810SOL    HW268041  11.482   8.002   9.068 -0.8107  0.1190 -2.4748
16811SOL     OW68042  11.637   7.710   5.379  0.5496 -0.7003  0.0452
16811SOL    HW168043  11.708   7.651   5.353  0.7751 -0.2127 -0.4628
16811SOL    HW268044  11.604   7.745   5.296 -0.0491 -0.6472  0.3027
16812SOL     OW68045  13.808   4.572   7.703  0.5013  0.4798 -0.6307
16812SOL    HW168046  13.721   4.538   7.727  0.9078  0.3815  0.7816
16812SOL    HW268047  13.853   4.497   7.664 -0.5937  0.9525 -3.0070
16813SOL     OW68048   4.229   0.727  11.341 -0.5820  0.2915  0.1234
16813SOL    HW168049   4.256   0.818  11.351 -1.2835  0.4174  0.9517
16813SOL    HW268050   4.135   0.731  11.325 -0.2754 -0.1843 -2.1171
16814SOL     OW68051   9.946   2.204   7.056  0.3569 -0.2558  0.1869
16814SOL    HW168052  10.008   2.277   7.057  0.6390 -0.4350 -1.4880
16814SOL    HW268053   9.861   2.245   7.069  0.7889 -0.0542  2.9694
16815SOL     OW68054  13.065   2.058   6.628 -0.1456 -0.2417 -0.3080
16815SOL    HW168055  13.131   2.127   6.624  0.2997 -0.6910 -0.8039
16815SOL    HW268056  13.005   2.086   6.697 -0.9938  1.5558 -1.7010
16816SOL     OW68057   7.664  10.768   7.427 -0.1259  0.6426 -0.0331
16816SOL    HW168058   7.680  10.863   7.422 -0.1260  0.7191  1.0580
16816SOL    HW268059   7.659  10.751   7.521  3.7762 -1.0820  0.0584
16817SOL     OW68060  12.742   1.574   6.685  0.1215 -0.7034  0.1721
16817SOL    HW168061  12.702   1.647   6.732  0.1229  0.4460 -1.4919
16817SOL    HW268062  12.769   1.613   6.601  2.8510 -1.9307  0.4053
16818SOL     OW68063   1.001  10.834   2.296  0.7858 -0.4051 -0.3935
16818SOL    HW168064   0.962  10.914   2.332 -0.7496 -1.3517  0.1227
16818SOL    HW268065   1.015  10.777   2.371  2.1384 -0.5427 -0.7229
16819SOL     OW68066  10.753   8.059   3.157  0.8630 -0.2030  0.3302
16819SOL    HW168067  10.833   8.108   3.136  0.9022 -0.1784  0.5332
16819SOL    HW268068  10.746   7.993   3.089 -1.4829  2.7015 -2.5697
16820SOL     OW68069   9.439   3.823   7.167  0.1398 -0.0338 -0.3259
16820SOL    HW168070   9.376   3.813   7.095  1.3221  0.1444 -1.4173
16820SOL    HW268071   9.505   3.884   7.133  0.3250  0.6683  1.2017
16821SOL     OW68072  13.109  13.905   4.196  0.0005 -0.1077 -0.1305
16821SOL    HW168073  13.096  13.918   4.290 -0.0041 -1.2788  0.0443
16821SOL    HW268074  13.022  13.918   4.158  0.3386  2.2796 -0.2440
16822SOL     OW68075   5.787   1.552   3.827  0.1927 -0.3720  0.9600
16822SOL    HW168076   5.805   1.645   3.812  0.2606 -0.3637  1.0885
16822SOL    HW268077   5.717   1.531   3.765 -1.3082  0.2947  2.3500
16823SOL     OW68078   2.942   2.732  14.065 -0.2645  0.2406  0.5850
16823SOL    HW168079   3.008   2.694  14.008  2.0670  1.6257  2.1555
16823SOL    HW268080   2.859   2.722  14.018  1.3767  0.6532 -2.6647
16824SOL     OW68081  13.050   5.792   8.104 -0.5975  0.1183  0.4217
16824SOL    HW168082  12.992   5.716   8.096  2.7696 -2.5573 -1.7110
16824SOL    HW268083  13.038   5.840   8.022  1.0716 -1.3229 -0.7620
16825SOL     OW68084   9.815   5.806   5.356  0.2170  0.0487 -0.5044
16825SOL    HW168085   9.822   5.752   5.277 -0.0490 -0.6560 -0.0520
16825SOL    HW268086   9.905   5.812   5.388  0.9250  3.0531 -2.5963
16826SOL     OW68087   2.456  10.449  10.911 -0.0612  0.3697 -0.2450
16826SOL    HW168088   2.500  10.502  10.977  2.6585  0.6485 -2.1088
16826SOL    HW268089   2.506  10.368  10.907 -0.5289  0.1185 -1.5340
16827SOL     OW68090   4.152  11.091   8.575  0.0019  0.0203  0.2567
16827SOL    HW168091   4.113  11.160   8.522  1.0912  1.5376  1.3120
16827SOL    HW268092   4.214  11.047   8.517 -2.2908 -1.6390 -1.0819
16828SOL     OW68093  11.953   0.297  13.305 -0.0314 -0.3983 -0.1784
16828SOL    HW168094  12.020   0.232  13.283  0.2237 -0.9355  1.9318
16828SOL    HW268095  11.871   0.247  13.310  0.1195 -0.5454  1.1833
16829SOL     OW68096   9.013   4.660  12.776 -0.0387 -0.0186 -0.3817
16829SOL    HW168097   8.949   4.681  12.844 -1.4021  0.1457 -1.6533
16829SOL    HW268098   8.966   4.676  12.694  1.5999 -0.0696 -1.3605
16830SOL     OW68099   9.998   4.573   2.331 -0.2360 -0.3473 -0.3379
16830SOL    HW168100  10.070   4.582   2.269  1.9538 -1.1912  1.9018
16830SOL    HW268101   9.948   4.654   2.322  0.8663  0.2051 -2.0767
16831SOL     OW68102   8.547  10.768   8.806  0.2370 -0.0807 -0.1493
16831SOL    HW168103   8.585  10.685   8.776  0.0504 -0.9213  1.7950
16831SOL    HW268104   8.471  10.742   8.857  1.1064  1.1708  1.8946
16832SOL     OW68105   0.128   4.589  13.072 -0.2045  1.0415  0.1396
16832SOL    HW168106   0.070   4.633  13.134  0.1943  1.0712  0.5021
16832SOL    HW268107   0.206   4.644  13.070 -0.1693  0.9777 -0.3048
16833SOL     OW68108   8.018  13.059   9.911 -0.1853  0.7042  0.0713
16833SOL    HW168109   8.096  13.013   9.941 -0.3970 -0.2604 -0.8225
16833SOL    HW268110   8.048  13.150   9.898  0.4800  0.6138  0.8779
16834SOL     OW68111   6.762  10.975   4.260 -0.1421 -0.2889 -0.1557
16834SOL    HW168112   6.740  10.888   4.225  0.3671 -0.4099 -0.1816
16834SOL    HW268113   6.841  10.960   4.312  0.2560  0.2556 -0.5887
16835SOL     OW68114  10.948  13.392   4.555 -0.6592  0.1325 -0.8980
16835SOL    HW168115  10.881  13.454   4.527 -0.1951  0.9136 -0.3316
16835SOL    HW268116  11.021  13.406   4.494 -0.3069  0.6160 -0.3800
16836SOL     OW68117   8.952  11.194   0.378  0.1793 -0.2417 -0.0704
16836SOL    HW168118   9.013  11.221   0.309  2.0534 -3.3296  0.1512
16836SOL    HW268119   8.904  11.121   0.339 -0.2263 -0.6745  1.1972
16837SOL     OW68120   4.995  12.757   2.899  0.3693 -0.6122  0.6570
16837SOL    HW168121   4.980  12.815   2.824  1.5536 -0.2476  0.6841
16837SOL    HW268122   4.998  12.669   2.861  0.7579 -0.4463  0.2977
16838SOL     OW68123   0.609  10.466   6.058 -0.0065  0.3382 -0.0555
16838SOL    HW168124   0.684  10.421   6.018 -0.9677 -0.8831 -0.5581
16838SOL    HW268125   0.575  10.402   6.121 -1.2599  0.4449 -0.6025
16839SOL     OW68126   4.295  11.617   0.650  0.5119  0.0947  0.6218
16839SOL    HW168127   4.219  11.668   0.679 -1.3579 -3.0279  1.7518
16839SOL    HW268128   4.260  11.530   0.631  3.4905 -0.8838 -1.0895
16840SOL     OW68129   1.417   7.999  13.741  0.2288 -0.7041 -0.0658
16840SOL    HW168130   1.340   7.994  13.684 -0.2459  1.4188  0.3180
16840SOL    HW268131   1.488   8.024  13.683 -0.5795  3.1794  0.3598
16841SOL     OW68132   8.563   8.526   2.119  0.1975 -0.4631  0.1320
16841SOL    HW168133   8.590   8.495   2.032 -1.5805 -0.3351 -0.5152
16841SOL    HW268134   8.506   8.456   2.153  2.2737 -1.3388  2.0150
16842SOL     OW68135   2.285   0.210   7.987 -0.2514 -0.0628 -0.3229
16842SOL    HW168136   2.338   0.223   7.908  0.1346  0.3468 -0.0040
16842SOL    HW268137   2.309   0.283   8.044  1.2087 -1.6057  1.1451
16843SOL     OW68138   3.617  13.669   9.530 -0.3107 -0.4612  0.6509
16843SOL    HW168139   3.701  13.636   9.496  0.0336 -0.0964  1.1257
16843SOL    HW268140   3.641  13.714   9.611 -0.5095  2.3943 -0.7794
16844SOL     OW68141   8.127  10.005   0.025 -0.6026  0.3610  0.2698
16844SOL    HW168142   8.142  10.099   0.023  0.7904  0.1623  0.3383
16844SOL    HW268143   8.178   9.974   0.100  4.0134 -1.1920 -3.0104
16845SOL     OW68144   8.600   1.318  11.898  0.0352  0.2961 -0.6302
16845SOL    HW168145   8.656   1.279  11.831 -0.6434  0.7652 -1.4935
16845SOL    HW268146   8.603   1.412  11.880  1.0011  0.6012  0.9161
16846SOL     OW68147   4.743   7.585  11.849 -0.0356 -0.2765  0.2233
16846SOL    HW168148   4.667   7.579  11.791 -0.5328  1.5126  0.6269
16846SOL    HW268149   4.751   7.679  11.869  1.0127 -0.6746  1.8638
16847SOL     OW68150   9.241  12.513   9.797  0.1324  0.4269 -0.4914
16847SOL    HW168151   9.247  12.590   9.740  0.5598  0.5811 -0.2453
16847SOL    HW268152   9.311  12.456   9.767  0.5797  0.6569  0.0948
16848SOL     OW68153   0.062   4.008   6.203 -0.0212  0.3203  0.1618
16848SOL    HW168154   0.021   4.039   6.122  0.5797  0.5429 -0.0657
16848SOL    HW268155  -0.009   4.005   6.267 -0.5125  0.0817 -0.3918
16849SOL     OW68156   6.076  13.282   3.109  0.3112 -0.0215  0.0278
16849SOL    HW168157   6.118  13.349   3.163  0.7937 -0.8394  0.6823
16849SOL    HW268158   6.121  13.201   3.132 -0.8686 -0.7258 -0.0864
16850SOL     OW68159   7.079   8.911   3.530 -0.2201 -0.0628 -0.6308
16850SOL    HW168160   7.103   8.898   3.622 -0.1986  1.5740 -0.3761
16850SOL    HW268161   7.157   8.887   3.481 -0.5289 -1.8410 -0.3034
16851SOL     OW68162   2.607  13.009   9.712 -0.3602 -0.2129  0.7008
16851SOL    HW168163   2.579  13.054   9.792 -0.6839  0.7151  0.0796
16851SOL    HW268164   2.664  13.072   9.668  0.7620 -1.1595  0.7520
16852SOL     OW68165  12.481  13.615   3.822  0.3361  0.7903 -0.3353
16852SOL    HW168166  12.414  13.548   3.812  1.1845 -0.2748  0.6979
16852SOL    HW268167  12.475  13.669   3.743 -1.3803  0.4264 -0.4736
16853SOL     OW68168  12.833   0.496   8.989 -0.1151  0.1840  0.2666
16853SOL    HW168169  12.841   0.405   9.017 -0.7448  0.3855  1.1265
16853SOL    HW268170  12.878   0.499   8.904  0.7052 -0.7231  0.6510
16854SOL     OW68171  10.438   7.429   5.525  0.3177  0.5421  0.0664
16854SOL    HW168172  10.383   7.383   5.588 -0.1917 -0.1721 -0.8733
16854SOL    HW268173  10.381   7.493   5.484  0.0102 -0.5497 -1.2766
16855SOL     OW68174   6.507  11.131  13.043  0.3286  0.1988 -0.6663
16855SOL    HW168175   6.563  11.054  13.047  0.2049  0.0911 -0.9841
16855SOL    HW268176   6.483  11.139  12.951  0.0140  0.3793 -0.5716
16856SOL     OW68177   5.513   4.315  14.062 -0.2588  0.2208 -0.0338
16856SOL    HW168178   5.595   4.342  14.102 -0.8910  0.9790  0.8109
16856SOL    HW268179   5.449   4.319  14.134 -1.1197  0.0920 -0.7722
16857SOL     OW68180  10.076  13.830  11.171 -0.4419 -0.2744 -0.3085
16857SOL    HW168181  10.138  13.760  11.192 -0.3670  0.1327  0.9073
16857SOL    HW268182  10.107  13.906  11.222 -0.6386  0.5854 -1.4387
16858SOL     OW68183   4.974  11.975  12.641  0.0456  0.7290 -0.5137
16858SOL    HW168184   5.062  12.006  12.662 -0.2495  1.8933 -0.9143
16858SOL    HW268185   4.921  12.054  12.635 -0.5428  0.2463 -2.5450
16859SOL     OW68186   8.446   9.263   2.093  0.0887 -0.6369  0.5060
16859SOL    HW168187   8.463   9.345   2.047  0.7706 -0.9435  0.1933
16859SOL    HW268188   8.499   9.198   2.046  0.3357 -1.0723  1.3650
16860SOL     OW68189   7.305   2.411   4.952 -0.2783  0.3711  0.5599
16860SOL    HW168190   7.337   2.391   4.863  0.1784  0.5026  0.6927
16860SOL    HW268191   7.220   2.366   4.957 -0.8222  1.2610 -0.3244
16861SOL     OW68192  10.598   2.177  11.802 -0.5559  0.1426 -0.1420
16861SOL    HW168193  10.582   2.105  11.863 -0.1306  0.8451  0.8268
16861SOL    HW268194  10.652   2.139  11.732 -0.7999 -0.6000  0.0694
16862SOL     OW68195  10.738  13.823   8.082 -0.2853  0.2719 -0.5415
16862SOL    HW168196  10.687  13.768   8.142 -2.0478 -0.0289 -2.2117
16862SOL    HW268197  10.825  13.784   8.082  0.2788  1.2530  2.9931
16863SOL     OW68198   3.381  10.439  13.621  0.1233  0.1427  0.3065
16863SOL    HW168199   3.396  10.429  13.715  0.5260 -2.1889  0.0632
16863SOL    HW268200   3.304  10.495  13.614 -0.4355 -0.3571  2.0490
16864SOL     OW68201  13.681   4.987   1.717  0.3824  0.1280 -0.5500
16864SOL    HW168202  13.691   4.893   1.697  1.5954  0.3881 -1.2680
16864SOL    HW268203  13.687   4.992   1.813  0.5660 -0.5014 -0.5239
16865SOL     OW68204   3.988   7.020   1.575 -0.0505 -0.3462  0.0183
16865SOL    HW168205   3.990   7.114   1.556  0.9176 -0.4287 -0.3744
16865SOL    HW268206   4.077   6.990   1.554 -0.0173 -1.1416  1.2275
16866SOL     OW68207   5.034   1.592   3.440  0.1396  0.0340 -0.1142
16866SOL    HW168208   5.101   1.525   3.453 -1.2166 -1.2089  0.8028
16866SOL    HW268209   5.023   1.597   3.345  1.2314 -0.0415 -0.2511
16867SOL     OW68210   2.804   7.083   6.627  0.7273  0.1107  0.0824
16867SOL    HW168211   2.745   7.147   6.586 -1.5673 -1.8122  0.1526
16867SOL    HW268212   2.793   7.097   6.721 -0.3710 -0.8073  0.1163
16868SOL     OW68213  12.018   0.239   1.480 -0.1758 -0.3773 -0.4160
16868SOL    HW168214  12.108   0.268   1.498 -0.1122  0.8751 -2.3813
16868SOL    HW268215  11.982   0.217   1.566  1.1451  1.7317  0.7773
16869SOL     OW68216   4.947   2.154   4.311 -0.1844  0.0846 -0.5133
16869SOL    HW168217   4.958   2.245   4.339  0.0708 -0.6519  2.0295
16869SOL    HW268218   4.861   2.151   4.270  0.9951  2.0427 -3.4912
16870SOL     OW68219  13.881   0.978   8.995 -0.1188 -1.2117 -0.4534
16870SOL    HW168220  13.894   1.070   9.020 -2.6590 -1.1344  0.8671
16870SOL    HW268221  13.964   0.936   9.017  0.2857  0.3240  1.2253
16871SOL     OW68222   0.673   3.584  13.392 -0.5004  0.0361  0.1261
16871SOL    HW168223   0.605   3.647  13.371 -1.1655 -1.3288 -2.2214
16871SOL    HW268224   0.734   3.588  13.318  1.3609  0.3619  1.5878
16872SOL     OW68225  11.564   8.504   8.883 -0.0565  0.0897 -0.4132
16872SOL    HW168226  11.494   8.439   8.883 -0.9554  1.0156 -1.3574
16872SOL    HW268227  11.561   8.542   8.795  1.4324  0.3774 -0.3576
16873SOL     OW68228   1.836   6.502   0.607  0.2563 -0.1512  0.4184
16873SOL    HW168229   1.765   6.566   0.616  1.6608  1.2982  1.8744
16873SOL    HW268230   1.872   6.493   0.695  1.0018 -1.9364 -0.0173
16874SOL     OW68231   4.426   0.329   1.293 -0.0380  0.0765 -0.1141
16874SOL    HW168232   4.413   0.415   1.333  1.9882  0.3498  0.0273
16874SOL    HW268233   4.370   0.271   1.344 -1.1511  1.2234  0.0310
16875SOL     OW68234   0.177  10.959   7.361  0.2044  0.0079 -0.1845
16875SOL    HW168235   0.139  10.971   7.448  0.1843  0.7914 -0.2961
16875SOL    HW268236   0.127  11.018   7.304 -0.2183 -0.9655 -0.8595
16876SOL     OW68237  11.818  11.603   7.294  0.0258 -0.1849 -0.0699
16876SOL    HW168238  11.821  11.593   7.389  0.7666  0.4701 -0.0112
16876SOL    HW268239  11.754  11.674   7.279 -0.7538 -0.8859 -0.1235
16877SOL     OW68240   0.708  10.498  12.405 -0.0491  0.0613 -0.3131
16877SOL    HW168241   0.695  10.438  12.332 -0.5121  0.0761 -0.2409
16877SOL    HW268242   0.705  10.443  12.483  0.9263 -0.0294 -0.3252
16878SOL     OW68243   5.657   1.185   7.932  0.1587  0.3433 -0.0234
16878SOL    HW168244   5.700   1.106   7.899 -0.2442  0.1555 -0.1069
16878SOL    HW268245   5.728   1.238   7.968  0.8224  1.1153 -2.2800
16879SOL     OW68246   8.911   6.112   2.501  0.0261 -0.2596 -0.4340
16879SOL    HW168247   8.978   6.172   2.534 -1.2903  1.4325 -0.6530
16879SOL    HW268248   8.941   6.088   2.413  0.0188  1.0615 -0.8176
16880SOL     OW68249   8.673   7.947   2.073  0.5854  0.3710  0.2825
16880SOL    HW168250   8.595   8.000   2.089  0.6031  0.0593  1.4477
16880SOL    HW268251   8.642   7.857   2.074  1.0008  0.2239  1.1210
16881SOL     OW68252  10.699  13.092  10.997 -0.2425  0.1054 -0.5230
16881SOL    HW168253  10.626  13.149  10.975  0.2541  0.4070 -1.4258
16881SOL    HW268254  10.777  13.143  10.977  0.2217 -0.3736  0.0136
16882SOL     OW68255   1.537   2.058   9.912 -0.2810  0.3392 -0.3822
16882SOL    HW168256   1.550   2.150   9.888  0.3104  0.5477  0.6575
16882SOL    HW268257   1.464   2.029   9.858 -1.3741  1.8114  0.2207
16883SOL     OW68258   0.555  11.170   4.190 -0.3712 -0.3303  0.5466
16883SOL    HW168259   0.579  11.240   4.251  0.7939  1.3181 -1.6802
16883SOL    HW268260   0.464  11.189   4.168 -0.3972 -0.1596  0.7920
16884SOL     OW68261   0.883   2.048  10.601 -0.2028 -0.5134 -0.2479
16884SOL    HW168262   0.898   2.131  10.556  1.9622 -0.1944  0.9176
16884SOL    HW268263   0.831   2.071  10.678  0.0042 -0.3162 -0.1680
16885SOL     OW68264  10.221   8.396   0.791  0.2703 -0.3444 -0.2563
16885SOL    HW168265  10.162   8.444   0.732 -0.5692  0.9083  1.5065
16885SOL    HW268266  10.308   8.416   0.759 -0.1503  0.6505 -0.8346
16886SOL     OW68267   2.131   2.455  10.565 -0.0350 -0.1267  0.6867
16886SOL    HW168268   2.205   2.453  10.504 -0.7522 -0.4856 -0.1943
16886SOL    HW268269   2.163   2.409  10.643 -0.5492 -4.0597 -1.1628
16887SOL     OW68270   5.633  13.784   9.214 -0.0026 -0.3249  0.7860
16887SOL    HW168271   5.702  13.761   9.152  0.2542 -0.2639  1.0494
16887SOL    HW268272   5.656  13.871   9.245  0.3384 -0.7029  1.6185
16888SOL     OW68273   7.406   7.081   9.138 -0.6216  0.0527 -0.6500
16888SOL    HW168274   7.429   7.172   9.119  3.2871 -0.5185  0.4515
16888SOL    HW268275   7.373   7.083   9.227 -0.7438  0.4219 -0.6994
16889SOL     OW68276  11.650  13.465   6.200 -0.1803  0.7865  0.0155
16889SOL    HW168277  11.558  13.470   6.172 -0.1899  1.9444  0.2348
16889SOL    HW268278  11.646  13.468   6.295  0.1266  1.4310  0.0073
16890SOL     OW68279   2.317   8.804   1.707  0.6562  0.0999 -1.0579
16890SOL    HW168280   2.330   8.726   1.653  0.2077  1.0944 -2.6594
16890SOL    HW268281   2.231   8.837   1.683  0.8027  1.0536 -0.3504
16891SOL     OW68282   7.615   8.038   3.773 -0.5607  0.6573  0.6202
16891SOL    HW168283   7.644   8.053   3.864 -2.3440  1.7401  1.0477
16891SOL    HW268284   7.550   7.969   3.780 -3.4396  3.1907  0.7797
16892SOL     OW68285   0.877   3.439   2.060  0.1663  0.0056 -0.4647
16892SOL    HW168286   0.849   3.531   2.052 -1.3424 -0.1886  1.6583
16892SOL    HW268287   0.801   3.389   2.030  0.3704 -0.5653 -0.0353
16893SOL     OW68288   9.811   8.022  13.948 -0.7499  0.4678  0.7987
16893SOL    HW168289   9.796   8.116  13.956  2.7959  1.1761  0.4040
16893SOL    HW268290   9.830   8.008  13.856 -1.1262 -0.6696  0.8720
16894SOL     OW68291   5.397   1.372   5.150  0.1598 -0.4738  0.1919
16894SOL    HW168292   5.349   1.435   5.095  1.8024 -0.5215 -1.4153
16894SOL    HW268293   5.375   1.396   5.239 -0.3946  1.4824 -0.4161
16895SOL     OW68294   8.857  12.597   5.159  0.0497  0.2245 -0.0481
16895SOL    HW168295   8.854  12.668   5.223  0.0492  2.0569 -1.9784
16895SOL    HW268296   8.911  12.631   5.087 -1.4198 -1.0107 -1.8372
16896SOL     OW68297  13.147  13.717   6.115  0.3270 -0.5071  0.0703
16896SOL    HW168298  13.075  13.711   6.178  0.2131  1.0667  0.1311
16896SOL    HW268299  13.118  13.665   6.040  0.6063 -2.6987  1.4013
16897SOL     OW68300   1.645   0.399   0.053  0.3564  0.9519  0.2964
16897SOL    HW168301   1.687   0.321   0.016 -0.6102  1.4947 -2.0634
16897SOL    HW268302   1.556   0.372   0.073  0.4576  1.0673  0.9528
16898SOL     OW68303   5.493  12.100   2.797  0.5861 -0.3310  0.5383
16898SOL    HW168304   5.413  12.080   2.845 -0.8364  1.8440 -0.7154
16898SOL    HW268305   5.561  12.103   2.864  0.0513 -3.8554  1.4357
16899SOL     OW68306   5.156   7.953   1.687 -0.8218 -0.0002 -0.7556
16899SOL    HW168307   5.241   7.992   1.669 -0.6896  1.0483  1.7119
16899SOL    HW268308   5.114   8.014   1.748 -2.7068 -1.2540 -0.7103
16900SOL     OW68309   8.397  10.403   7.284 -0.4660  0.0890  0.3508
16900SOL    HW168310   8.477  10.372   7.241 -0.6362 -2.8135  1.8574
16900SOL    HW268311   8.400  10.364   7.371 -4.0790 -1.2199  0.0678
16901SOL     OW68312   8.177  10.570  11.745 -0.3317 -0.2279  0.3729
16901SOL    HW168313   8.133  10.511  11.805 -0.4042  0.5244  1.0782
16901SOL    HW268314   8.115  10.642  11.733  0.2913  0.3527  0.5885
16902SOL     OW68315   0.918   2.200   0.019 -0.4036 -0.0779  0.6493
16902SOL    HW168316   0.826   2.177   0.030 -0.3317  0.3504  2.3538
16902SOL    HW268317   0.926   2.224  -0.073 -2.3098  1.1980  0.7686
16903SOL     OW68318   3.992  12.252   7.027 -0.1208 -0.8287 -0.3915
16903SOL    HW168319   3.949  12.314   6.969 -1.4956 -0.2662  1.1530
16903SOL    HW268320   4.069  12.299   7.059 -1.3411  0.3089  1.0480
16904SOL     OW68321   2.434   8.082   7.400 -0.3852  0.4772  0.1143
16904SOL    HW168322   2.394   8.168   7.409  1.0085  1.0537  1.2268
16904SOL    HW268323   2.501   8.079   7.468 -0.8367 -1.7661  0.5546
16905SOL     OW68324   6.126   8.172   8.963  0.1923  0.3851 -0.2881
16905SOL    HW168325   6.131   8.131   8.877  0.0507 -0.8264  0.2647
16905SOL    HW268326   6.088   8.106   9.019  0.1416  1.2137  0.6887
16906SOL     OW68327  11.224   1.258  12.796 -0.1334 -0.1564 -0.2926
16906SOL    HW168328  11.151   1.213  12.753  1.4660  0.0729 -3.5515
16906SOL    HW268329  11.206   1.351  12.783 -0.2362 -0.0181  0.7395
16907SOL     OW68330   1.859  13.834   3.256  0.6935 -0.3282  0.3658
16907SOL    HW168331   1.919  13.774   3.213 -0.4209 -2.0470  1.1125
16907SOL    HW268332   1.782  13.781   3.276 -2.0810  2.2347 -2.4676
16908SOL     OW68333  13.379   8.860  10.779 -0.2928 -0.1733  0.4893
16908SOL    HW168334  13.370   8.918  10.855 -0.7529 -1.2746  1.2961
16908SOL    HW268335  13.289   8.842  10.751 -0.1408 -0.2280  0.0231
16909SOL     OW68336   7.226   5.274  12.199  0.3926 -0.2381 -0.4070
16909SOL    HW168337   7.255   5.277  12.108  2.2134 -1.4618  0.1005
16909SOL    HW268338   7.194   5.363  12.216  2.7056  0.8786 -1.4201
16910SOL     OW68339   8.743   9.071  12.110 -0.4553 -0.1784  0.7186
16910SOL    HW168340   8.650   9.055  12.094 -0.3113 -0.5168  0.2161
16910SOL    HW268341   8.747   9.164  12.134 -1.0151 -0.3442  1.5160
16911SOL     OW68342   4.407   3.915   7.550 -0.1288  0.1973 -0.1023
16911SOL    HW168343   4.358   3.855   7.606  1.2432  0.0800  1.0401
16911SOL    HW268344   4.483   3.940   7.603  0.9963  0.4311 -1.7503
16912SOL     OW68345  11.477   7.286   1.789 -0.2278 -0.4095 -0.0382
16912SOL    HW168346  11.390   7.324   1.779 -0.5259 -1.0024  0.2234
16912SOL    HW268347  11.462   7.191   1.788  0.5639 -0.5372 -1.2764
16913SOL     OW68348   2.899   5.051   2.510  0.6417  0.4431  0.1142
16913SOL    HW168349   2.974   4.997   2.535  1.6630  0.9188 -1.7098
16913SOL    HW268350   2.938   5.133   2.480 -0.5226  0.4452 -1.5512
16914SOL     OW68351  11.468   5.777   6.485 -0.2199 -0.3917 -0.1695
16914SOL    HW168352  11.480   5.733   6.401 -0.8890 -0.5182 -0.2063
16914SOL    HW268353  11.544   5.750   6.537 -0.7434 -1.8225 -0.0928
16915SOL     OW68354   1.541   4.840   9.220  0.3035  0.3840  0.0853
16915SOL    HW168355   1.608   4.771   9.226  2.3099  2.2270  0.4487
16915SOL    HW268356   1.591   4.919   9.199 -1.9881  1.6199 -1.0480
16916SOL     OW68357   8.506  13.272  13.340 -0.3823 -0.2212  1.0019
16916SOL    HW168358   8.496  13.353  13.391  1.7507 -0.2704  1.5804
16916SOL    HW268359   8.450  13.285  13.264  0.5768  2.2109  0.6169
16917SOL     OW68360   3.523   7.644   5.696 -0.3826  0.5267 -0.5330
16917SOL    HW168361   3.492   7.553   5.694 -2.2186  1.0943  0.4962
16917SOL    HW268362   3.594   7.645   5.632 -0.2404 -1.6546 -0.5035
16918SOL     OW68363  11.864  13.407   0.514  0.1221  0.2945  0.0108
16918SOL    HW168364  11.816  13.325   0.502  0.4810  0.2909 -1.6304
16918SOL    HW268365  11.951  13.381   0.544  0.2187  0.0700 -0.4629
16919SOL     OW68366   3.897   5.034  13.748  0.4890  0.1042 -0.2103
16919SOL    HW168367   3.898   5.002  13.658 -0.5973 -1.3405  0.2405
16919SOL    HW268368   3.857   5.121  13.742 -1.8002 -0.9026 -0.9258
16920SOL     OW68369  10.869  13.460   0.753  0.3649  0.1506  0.4793
16920SOL    HW168370  10.959  13.486   0.769  0.7808  0.1405 -1.6827
16920SOL    HW268371  10.876  13.374   0.711 -0.5170  0.9765 -1.4706
16921SOL     OW68372   3.428  13.830  13.842 -0.5260  0.4517  0.5034
16921SOL    HW168373   3.476  13.811  13.762  0.7227  1.9298  0.8624
16921SOL    HW268374   3.342  13.789  13.828 -0.3393  0.6493 -1.5609
16922SOL     OW68375   3.855  12.574  10.257  0.0684 -0.8250 -0.0828
16922SOL    HW168376   3.907  12.576  10.177 -1.3743  1.4439 -1.0806
16922SOL    HW268377   3.772  12.533  10.232  0.5649 -2.6044  0.9945
16923SOL     OW68378  10.481  10.732  12.723  0.1466  0.3079 -0.0540
16923SOL    HW168379  10.566  10.773  12.713 -0.6602  1.7854 -1.2117
16923SOL    HW268380  10.463  10.693  12.637 -0.1635 -0.3673  0.3076
16924SOL     OW68381   4.575   8.769  13.218 -0.3757  0.1032 -0.1397
16924SOL    HW168382   4.498   8.826  13.222  1.0932  2.4210 -1.7943
16924SOL    HW268383   4.602   8.772  13.127  0.4951 -2.4083 -0.0402
16925SOL     OW68384   6.734   5.607   1.741 -0.5384  0.2759  0.3625
16925SOL    HW168385   6.653   5.564   1.767  0.4569 -0.7517  1.9140
16925SOL    HW268386   6.783   5.619   1.823  1.4305 -0.3014 -0.6591
16926SOL     OW68387  13.973  13.922   5.877 -0.6822 -0.6516 -0.6234
16926SOL    HW168388  14.027  13.864   5.931 -0.9074  0.4017  0.7719
16926SOL    HW268389  14.024  13.934   5.796  0.6295 -0.6084  0.1891
16927SOL     OW68390  10.956   3.260  11.233 -0.5464  0.6321  0.2554
16927SOL    HW168391  11.011   3.332  11.263 -2.2755  2.1805 -0.1224
16927SOL    HW268392  10.915   3.292  11.153 -0.2447 -1.3459 -0.7509
16928SOL     OW68393  11.700   8.771   3.077  0.0792  0.4088 -0.3006
16928SOL    HW168394  11.632   8.731   3.024 -0.5433  1.2742 -0.1750
16928SOL    HW268395  11.720   8.854   3.033  0.1787  0.7259  0.3228
16929SOL     OW68396   8.491  12.468   0.229  0.3464 -0.1250 -0.0603
16929SOL    HW168397   8.508  12.524   0.304 -1.6682  1.5286 -0.7376
16929SOL    HW268398   8.526  12.517   0.154 -1.3836  0.2733 -0.6555
16930SOL     OW68399   2.684   0.304  12.242 -0.6723 -0.5948 -0.1283
16930SOL    HW168400   2.618   0.355  12.196  0.9426  1.6890 -0.0726
16930SOL    HW268401   2.688   0.343  12.329  0.7115 -0.6909 -0.1249
16931SOL     OW68402  13.598   4.901  13.827 -0.0527 -0.0782 -0.0384
16931SOL    HW168403  13.606   4.829  13.765  0.0133 -0.3156  0.2447
16931SOL    HW268404  13.505   4.909  13.845  0.0853 -1.4550  1.5133
16932SOL     OW68405   6.660   2.056   8.858  0.0622  0.2460  0.4992
16932SOL    HW168406   6.684   2.041   8.767  2.1765  1.1125  0.8689
16932SOL    HW268407   6.596   1.987   8.877  1.0391 -1.1710 -1.0656
16933SOL     OW68408   0.755   1.493   8.880  0.0243 -0.0411 -0.0613
16933SOL    HW168409   0.822   1.491   8.949  1.5401  1.0889 -1.4152
16933SOL    HW268410   0.727   1.402   8.871  0.7202 -0.4006  1.1529
16934SOL     OW68411   5.074   6.476   2.037 -0.0099  0.8599 -0.1834
16934SOL    HW168412   4.981   6.484   2.061  0.0944  0.9388  0.2052
16934SOL    HW268413   5.075   6.408   1.970 -0.1798 -0.2449  0.8896
16935SOL     OW68414   3.465   8.658   7.342 -0.9687  0.0605  0.3715
16935SOL    HW168415   3.404   8.676   7.271 -2.2279  0.4558  1.4949
16935SOL    HW268416   3.409   8.631   7.415 -0.0576  2.8729  2.2565
16936SOL     OW68417   5.188  13.760   5.742 -0.7160  0.7248 -0.3097
16936SOL    HW168418   5.116  13.818   5.715  0.1279  1.4977 -0.9587
16936SOL    HW268419   5.226  13.804   5.819  0.5001  1.5583 -1.3414
16937SOL     OW68420   6.406  10.557   7.132 -0.2172  0.1054  0.1958
16937SOL    HW168421   6.448  10.620   7.073  0.7565  0.6518  1.4107
16937SOL    HW268422   6.337  10.516   7.080  0.1883  1.0292 -1.1033
16938SOL     OW68423   1.212   5.286   8.830  0.2996 -0.0946 -0.1826
16938SOL    HW168424   1.274   5.251   8.894  0.9323 -0.0599 -0.7743
16938SOL    HW268425   1.249   5.263   8.745 -1.0083 -0.9844 -0.5512
16939SOL     OW68426   1.756   1.344   2.724 -0.1683 -0.2773  0.1756
16939SOL    HW168427   1.727   1.337   2.815  0.5450  0.1039  0.4470
16939SOL    HW268428   1.744   1.256   2.688 -1.1877 -0.2431  0.4015
16940SOL     OW68429   7.704   3.436   7.805 -0.2903 -0.0230 -0.1565
16940SOL    HW168430   7.756   3.380   7.747  0.0107  0.0241  0.0625
16940SOL    HW268431   7.710   3.393   7.891 -1.2382 -0.4253 -0.2783
16941SOL     OW68432  12.442   7.666  10.429  0.2883 -0.1307  0.1718
16941SOL    HW168433  12.536   7.684  10.435  0.2683 -0.1995  0.8179
16941SOL    HW268434  12.420   7.681  10.337  1.3622 -2.1701 -0.4957
16942SOL     OW68435   9.550  11.743   8.545  0.1445  0.2671  0.5257
16942SOL    HW168436   9.535  11.730   8.451 -0.0735 -0.0521  0.6016
16942SOL    HW268437   9.524  11.660   8.585 -1.7465  1.0761  1.0782
16943SOL     OW68438   5.364   7.341   8.164 -0.3410 -0.0730  0.0380
16943SOL    HW168439   5.358   7.415   8.224  1.3790 -0.2234  0.4431
16943SOL    HW268440   5.448   7.352   8.120 -0.5783 -1.1759 -0.7363
16944SOL     OW68441   6.695  12.359   8.768  0.9432  0.2768 -0.1313
16944SOL    HW168442   6.684  12.300   8.843  0.2843 -1.1910 -1.3238
16944SOL    HW268443   6.705  12.445   8.807 -0.9298 -0.2121  1.6300
16945SOL     OW68444  11.519  12.998   6.565 -0.2291 -0.1429 -0.2794
16945SOL    HW168445  11.466  12.932   6.609 -1.2923  0.8730 -0.0164
16945SOL    HW268446  11.506  13.078   6.615  2.3672 -0.0571  0.4133
16946SOL     OW68447   3.525   2.994   9.485 -0.9476  0.1706  0.0124
16946SOL    HW168448   3.464   2.921   9.488 -0.6878 -0.3708 -3.3083
16946SOL    HW268449   3.481   3.059   9.430 -0.2775  1.6206  1.1372
16947SOL     OW68450  12.406   2.537   3.317 -0.6937 -0.2761 -0.1268
16947SOL    HW168451  12.332   2.544   3.257 -1.2781 -0.1216  0.5856
16947SOL    HW268452  12.466   2.607   3.290 -0.2195 -1.1584 -1.4696
16948SOL     OW68453   5.956  12.177   4.195 -0.0914  0.0329 -0.4434
16948SOL    HW168454   5.912  12.217   4.120 -0.6995  2.4812  1.1355
16948SOL    HW268455   6.040  12.223   4.201 -1.3400  2.1997  2.1824
16949SOL     OW68456  12.859   7.180   0.244 -0.8087 -0.4712  0.3152
16949SOL    HW168457  12.764   7.174   0.242 -0.7737 -1.5431 -2.3714
16949SOL    HW268458  12.879   7.255   0.188 -0.0450  0.0593  1.2616
16950SOL     OW68459  10.170  11.126   0.416  0.3811  0.2446 -0.6818
16950SOL    HW168460  10.184  11.160   0.328 -2.1528  2.0019 -0.4993
16950SOL    HW268461  10.104  11.183   0.454 -1.3982 -2.6915  1.0566
16951SOL     OW68462   3.766   8.066  10.744 -0.9307  0.4280 -0.0778
16951SOL    HW168463   3.721   7.990  10.706  0.4359  0.0989 -1.0881
16951SOL    HW268464   3.707   8.140  10.728 -1.6368 -0.1786 -0.3286
16952SOL     OW68465  12.762  10.440   1.493  0.0098  0.6657 -0.1051
16952SOL    HW168466  12.849  10.459   1.529  0.3272 -1.6051  0.5011
16952SOL    HW268467  12.777  10.420   1.401 -0.0382  1.3356 -0.2609
16953SOL     OW68468   2.999  11.261  11.161  0.1508 -0.9765  0.2243
16953SOL    HW168469   2.916  11.306  11.147  0.8270  0.3950  0.3921
16953SOL    HW268470   3.065  11.321  11.125  1.2696 -0.9062  2.2115
16954SOL     OW68471   1.592   2.514   8.060  0.0044 -0.2755  0.5254
16954SOL    HW168472   1.549   2.487   7.979  1.9828 -2.3792  0.0905
16954SOL    HW268473   1.550   2.462   8.128 -1.0750  0.8809  0.7869
16955SOL     OW68474  13.704   3.169  11.941  0.0448 -0.2296 -0.4810
16955SOL    HW168475  13.645   3.185  11.867 -0.4470  2.6668  0.3777
16955SOL    HW268476  13.703   3.074  11.953 -0.2372 -0.7777 -3.8280
16956SOL     OW68477  12.340  13.817  10.448  0.1098 -0.1672 -0.0065
16956SOL    HW168478  12.311  13.749  10.509  0.7450 -0.4875 -0.0557
16956SOL    HW268479  12.285  13.892  10.467  0.9602  0.0674  1.6462
16957SOL     OW68480  10.712  13.573   7.401  0.2587  0.0242 -0.5679
16957SOL    HW168481  10.774  13.581   7.473 -1.3881  1.4189  0.8034
16957SOL    HW268482  10.660  13.654   7.405 -1.9448 -1.2597 -1.3360
16958SOL     OW68483   8.515  12.533  12.666 -0.2425  0.9692 -0.1294
16958SOL    HW168484   8.590  12.482  12.696 -0.6871 -0.5789 -1.5168
16958SOL    HW268485   8.446  12.469  12.652 -1.0911  2.0536 -1.1368
16959SOL     OW68486  13.083   4.111   8.105  0.1807  0.0403  0.1905
16959SOL    HW168487  13.038   4.195   8.099  1.9296  0.9675 -0.9094
16959SOL    HW268488  13.152   4.125   8.171  0.7947 -0.3458 -0.3498
16960SOL     OW68489   4.096   4.294  13.232 -0.3276 -0.2603  0.0313
16960SOL    HW168490   4.119   4.280  13.324  0.4355 -1.8147 -0.3522
16960SOL    HW268491   4.108   4.208  13.192  0.0939  0.5586 -1.6696
16961SOL     OW68492   2.010  10.527   5.859 -0.1179  0.4814 -0.0981
16961SOL    HW168493   1.988  10.468   5.931  1.7094 -0.2306 -0.0802
16961SOL    HW268494   2.003  10.615   5.897 -0.8656  0.1898  0.4537
16962SOL     OW68495   4.098  13.901   8.205 -0.2916 -0.1045  0.9500
16962SOL    HW168496   4.019  13.928   8.159 -0.9588  1.1816  2.7216
16962SOL    HW268497   4.162  13.886   8.135 -1.3535  1.3352 -0.4256
16963SOL     OW68498   6.102   9.473   4.770 -0.2929 -0.2107 -1.1031
16963SOL    HW168499   6.132   9.469   4.861  0.0361 -0.3614 -1.2132
16963SOL    HW268500   6.063   9.388   4.754  0.3690 -0.4787 -1.3382
16964SOL     OW68501   7.581   5.854   2.372 -0.2678  0.1272  0.4735
16964SOL    HW168502   7.629   5.903   2.306  1.3037 -0.6953  0.9522
16964SOL    HW268503   7.533   5.921   2.421  1.2755  1.1427  0.6750
16965SOL     OW68504  11.957  11.636   2.523 -0.5535 -0.1542  0.6001
16965SOL    HW168505  11.880  11.677   2.483 -1.1836 -0.9433  0.9774
16965SOL    HW268506  11.982  11.567   2.461 -0.9710 -0.7720  1.1069
16966SOL     OW68507   5.519   7.639   4.332 -0.3211  0.0967  0.0521
16966SOL    HW168508   5.556   7.605   4.250  0.7884  0.9740  0.1664
16966SOL    HW268509   5.432   7.599   4.337  1.5035 -4.2952  1.1308
16967SOL     OW68510   4.265   4.814   3.534 -0.0412 -0.0761 -0.1405
16967SOL    HW168511   4.273   4.909   3.544 -1.3260 -0.1729  3.2335
16967SOL    HW268512   4.314   4.778   3.607 -2.1350 -1.8403  0.5047
16968SOL     OW68513   9.505   7.004   5.923  0.3320 -1.2260  0.7313
16968SOL    HW168514   9.480   7.050   6.003 -3.7910 -0.1884 -0.9112
16968SOL    HW268515   9.538   7.072   5.865 -1.3372 -1.0470 -0.0674
16969SOL     OW68516   6.903   1.916   5.273 -0.4805 -0.3173 -0.2570
16969SOL    HW168517   6.859   1.873   5.201 -0.5426  0.7709 -0.8894
16969SOL    HW268518   6.906   2.009   5.248 -1.4887  0.2815  1.6149
16970SOL     OW68519  12.872  13.211   7.688 -0.4090  0.2109 -0.7187
16970SOL    HW168520  12.858  13.306   7.682  0.5732  0.3389 -1.1506
16970SOL    HW268521  12.907  13.197   7.776 -0.2754  0.2810 -0.7615
16971SOL     OW68522   7.631   6.508   5.044  0.5691 -0.1232  0.1098
16971SOL    HW168523   7.555   6.451   5.040 -0.9615  1.5762  2.5155
16971SOL    HW268524   7.613   6.568   5.117  3.5848  1.2574 -0.1206
16972SOL     OW68525   1.475   2.923  12.710 -0.0666 -0.7365 -1.0358
16972SOL    HW168526   1.385   2.923  12.744 -0.4824  0.3896 -2.0613
16972SOL    HW268527   1.506   2.833  12.724 -0.6354 -0.6615  1.1360
16973SOL     OW68528   8.556  12.001  10.661 -0.3532  0.5472 -0.2619
16973SOL    HW168529   8.464  12.000  10.633 -0.2394 -0.5423 -0.6534
16973SOL    HW268530   8.606  11.986  10.581  0.0379 -1.2968  0.2670
16974SOL     OW68531   4.008  11.552   7.351 -0.1095 -0.0566  0.1310
16974SOL    HW168532   4.067  11.487   7.390 -0.4215 -0.5605 -0.2254
16974SOL    HW268533   3.947  11.501   7.299 -0.8431  0.4708  0.4610
16975SOL     OW68534  12.508   2.208   3.290  0.2092  0.2276 -0.0108
16975SOL    HW168535  12.443   2.247   3.349 -0.0916 -0.7750  0.3396
16975SOL    HW268536  12.469   2.217   3.203 -0.4056 -0.3546  0.1958
16976SOL     OW68537  12.274  13.384  10.664  0.2854 -0.0313  0.2666
16976SOL    HW168538  12.201  13.332  10.698 -0.8359  1.1759 -0.2197
16976SOL    HW268539  12.302  13.338  10.585  0.6127 -0.9568  0.9103
16977SOL     OW68540   3.790   6.724   9.720 -0.3259  0.5802 -0.0923
16977SOL    HW168541   3.712   6.778   9.732 -0.2181  0.5840  0.6505
16977SOL    HW268542   3.763   6.637   9.751 -0.2249  0.4249 -0.4333
16978SOL     OW68543   2.673   8.629  10.974  0.3709  0.8237  0.6699
16978SOL    HW168544   2.688   8.707  10.921 -0.6529  0.5571 -0.0470
16978SOL    HW268545   2.582   8.637  11.003 -0.4889 -1.1191 -1.2239
16979SOL     OW68546   3.425   8.961   7.700 -0.3192 -0.5252 -0.2968
16979SOL    HW168547   3.453   8.936   7.612 -1.3520  0.0398 -0.7913
16979SOL    HW268548   3.404   8.877   7.742  0.5468 -0.8293 -0.4437
16980SOL     OW68549   6.033  11.387  11.226 -0.1862  0.3977  0.1914
16980SOL    HW168550   6.004  11.302  11.259  1.4189 -0.5731 -0.7512
16980SOL    HW268551   6.034  11.377  11.131  1.5529  0.8951  0.1129
16981SOL     OW68552   6.564  12.868   9.629 -0.3676 -0.3303 -0.2346
16981SOL    HW168553   6.631  12.931   9.651  0.0801 -0.5530 -0.9078
16981SOL    HW268554   6.579  12.849   9.536 -0.9378 -0.8823 -0.2212
16982SOL     OW68555   1.659   4.962   6.599  0.3187 -0.3627  0.4295
16982SOL    HW168556   1.574   5.005   6.592  0.1969 -0.4717  1.1809
16982SOL    HW268557   1.711   5.001   6.529  0.8200  2.4412  2.2203
16983SOL     OW68558   8.091   0.711   0.649  0.1104  0.7751 -0.0768
16983SOL    HW168559   8.043   0.714   0.567  2.1061  0.5076 -1.3322
16983SOL    HW268560   8.030   0.672   0.712 -1.0420 -0.2225 -1.7470
16984SOL     OW68561   1.710   9.937   1.044 -0.7194  0.2053 -0.1281
16984SOL    HW168562   1.785   9.962   1.097 -0.2985 -0.0574 -0.5870
16984SOL    HW268563   1.705  10.004   0.976 -0.3307 -0.2805 -0.6419
16985SOL     OW68564   6.239   0.653   2.912  0.1108  0.2377  1.0597
16985SOL    HW168565   6.250   0.612   2.998  0.9650  0.1450  0.9170
16985SOL    HW268566   6.321   0.634   2.866 -0.2038  0.5775  0.3460
16986SOL     OW68567   3.503   2.852   0.673  0.9453 -0.5572  0.1697
16986SOL    HW168568   3.580   2.843   0.729  1.4454 -0.0492 -0.4119
16986SOL    HW268569   3.489   2.946   0.665  0.7504 -0.6239 -0.3705
16987SOL     OW68570   6.758   1.462   9.799  0.2458  0.2629  0.4879
16987SOL    HW168571   6.718   1.416   9.726  0.7092  1.3787 -0.4976
16987SOL    HW268572   6.832   1.407   9.824 -0.3261 -0.4754  0.5914
16988SOL     OW68573   3.434  12.130   2.003 -0.6291 -0.0205  0.0544
16988SOL    HW168574   3.391  12.199   2.053 -0.8414  0.2556 -0.4944
16988SOL    HW268575   3.372  12.058   2.002 -0.8117  0.1391 -0.1875
16989SOL     OW68576   4.913   1.344   6.333 -0.5984 -0.5819  0.1048
16989SOL    HW168577   4.900   1.337   6.428  2.4187 -2.0462  0.5144
16989SOL    HW268578   4.866   1.269   6.297 -0.7339 -0.7226  0.5575
16990SOL     OW68579   4.387   2.087   3.123  0.0972 -0.0425 -0.3369
16990SOL    HW168580   4.437   2.088   3.205 -1.1688  0.7532  0.4497
16990SOL    HW268581   4.299   2.114   3.148 -1.0000 -2.2519 -1.5467
16991SOL     OW68582   4.972  11.449   4.942 -0.5997  0.4861  0.2361
16991SOL    HW168583   4.948  11.541   4.939  0.5271  0.7814 -0.0457
16991SOL    HW268584   4.973  11.427   5.035  0.4766  1.1400  0.3938
16992SOL     OW68585  12.587   8.484   1.334 -0.0811  0.4024 -0.4105
16992SOL    HW168586  12.523   8.537   1.286 -0.3466 -0.6841 -1.3022
16992SOL    HW268587  12.651   8.457   1.268  0.6282  0.4641  0.2342
16993SOL     OW68588   5.305   6.008   4.515 -0.4362  0.1271  0.5494
16993SOL    HW168589   5.333   5.949   4.585 -3.6191 -0.8270  1.1958
16993SOL    HW268590   5.240   6.065   4.556 -1.0241  0.7836 -1.1790
16994SOL     OW68591  11.367   7.757   5.169 -0.1405  0.3292  0.1606
16994SOL    HW168592  11.318   7.794   5.096  1.4418  0.7546 -0.7408
16994SOL    HW268593  11.450   7.805   5.169  0.4421 -0.6084  1.3929
16995SOL     OW68594  13.841   2.224   8.380  0.0981 -0.4457  0.1525
16995SOL    HW168595  13.804   2.173   8.452  1.2680 -2.1103 -0.3425
16995SOL    HW268596  13.771   2.285   8.355 -1.7207 -2.3550  0.2779
16996SOL     OW68597   7.279  13.889  11.895 -0.3020  0.2566 -0.0531
16996SOL    HW168598   7.294  13.806  11.942 -0.8964  0.5334  0.6533
16996SOL    HW268599   7.312  13.956  11.955 -0.4816  0.5773 -0.3146
16997SOL     OW68600  10.342   0.637   9.984 -0.4743  0.0337 -0.2782
16997SOL    HW168601  10.250   0.626  10.009  0.1371 -0.9159  1.7182
16997SOL    HW268602  10.363   0.557   9.935 -0.4071 -0.2733  0.2491
16998SOL     OW68603  10.013  11.297   6.439  0.3851  0.0440  0.4173
16998SOL    HW168604  10.018  11.222   6.380 -1.2338  0.2457 -0.0279
16998SOL    HW268605  10.055  11.267   6.520  0.3347 -1.1200  0.0289
16999SOL     OW68606   7.292  11.983  12.479  0.3383 -0.0805 -0.4123
16999SOL    HW168607   7.358  11.964  12.413 -0.5824  0.3741 -1.4908
16999SOL    HW268608   7.210  11.951  12.442 -0.1324 -0.2243  0.7069
17000SOL     OW68609   7.565   4.206   6.767 -0.0409 -0.2201 -0.2638
17000SOL    HW168610   7.587   4.122   6.806 -0.2438  0.4133  1.2938
17000SOL    HW268611   7.540   4.185   6.677  0.9958 -1.6709 -0.2424
17001SOL     OW68612  13.379   4.367   1.838 -0.0532 -0.0938  0.2810
17001SOL    HW168613  13.294   4.372   1.795  0.6748  2.9554 -1.0617
17001SOL    HW268614  13.440   4.403   1.774  2.1378 -1.2866  1.5791
17002SOL     OW68615   1.911   1.484   7.714  0.0785 -0.4128  0.0436
17002SOL    HW168616   1.998   1.465   7.748  0.3613  2.8164  1.4569
17002SOL    HW268617   1.853   1.480   7.790 -0.5516  0.0359 -0.4002
17003SOL     OW68618  11.844  11.483   8.739  0.1225 -0.0098 -0.2220
17003SOL    HW168619  11.769  11.527   8.779  0.1307  0.6608 -0.9166
17003SOL    HW268620  11.829  11.390   8.754  0.1893  0.2226  1.4476
17004SOL     OW68621   1.334   8.293   5.887  0.6762  0.3856  0.3073
17004SOL    HW168622   1.282   8.286   5.968  0.9048 -0.4326  0.3908
17004SOL    HW268623   1.316   8.212   5.840 -1.1016  1.7369 -1.4916
17005SOL     OW68624   3.238   0.335   8.095  0.5466  0.2857 -0.1371
17005SOL    HW168625   3.211   0.310   8.184 -0.5427  2.0267  0.0596
17005SOL    HW268626   3.188   0.277   8.038 -0.2271  0.4780  0.3410
17006SOL     OW68627   1.285   8.382   8.374  0.3378 -0.5375  0.2655
17006SOL    HW168628   1.307   8.474   8.386  1.7134 -0.8710  0.5293
17006SOL    HW268629   1.317   8.361   8.286  0.4584 -0.8627  0.3843
17007SOL     OW68630   7.141   1.535   4.224  0.2749  0.1746  0.1835
17007SOL    HW168631   7.159   1.513   4.315 -2.0099  0.8798  0.8586
17007SOL    HW268632   7.091   1.461   4.191 -0.3101  0.6471  0.0000
17008SOL     OW68633   2.738   5.361   2.473 -0.0660  0.0879 -0.2009
17008SOL    HW168634   2.775   5.364   2.561 -1.3681  1.8507  0.3425
17008SOL    HW268635   2.734   5.452   2.445 -2.5300 -0.1179 -0.8088
17009SOL     OW68636  11.808  13.591   4.063 -0.0497  0.3173 -0.1310
17009SOL    HW168637  11.879  13.583   4.000  1.1823  2.0011  0.9628
17009SOL    HW268638  11.850  13.580   4.148 -1.6316 -1.6614  0.4956
17010SOL     OW68639  11.248  10.145   5.848 -0.4441 -0.3219 -0.2130
17010SOL    HW168640  11.328  10.197   5.854 -0.2015 -0.4875 -1.7233
17010SOL    HW268641  11.264  10.084   5.776 -1.7287 -0.7285 -0.1833
17011SOL     OW68642  14.088  10.626  13.059 -0.0075  0.6551 -0.2771
17011SOL    HW168643  14.076  10.712  13.101  0.3175  0.0025  1.2181
17011SOL    HW268644  14.044  10.564  13.118  1.4781 -0.4426 -0.2677
17012SOL     OW68645   5.889  13.308  12.499 -0.0065  0.5624  0.3843
17012SOL    HW168646   5.972  13.267  12.524 -0.3747 -0.6262 -0.2700
17012SOL    HW268647   5.863  13.359  12.576  1.0323  0.4590  0.8085
17013SOL     OW68648  10.344   7.753  13.795  0.2836  0.1087  0.3955
17013SOL    HW168649  10.389   7.815  13.738  1.1381 -0.0444  0.8900
17013SOL    HW268650  10.347   7.670  13.749  3.2170 -0.6243  1.6893
17014SOL     OW68651   3.161   0.507  10.420 -0.0074  0.3876  0.0338
17014SOL    HW168652   3.161   0.511  10.515  0.6543  0.8170  0.0244
17014SOL    HW268653   3.232   0.566  10.393  0.3529 -0.3385 -0.6860
17015SOL     OW68654   9.331  13.483   3.912 -0.0778  0.0644 -0.5220
17015SOL    HW168655   9.250  13.529   3.932 -0.6054 -0.8955 -0.3725
17015SOL    HW268656   9.329  13.471   3.817 -0.3111 -0.3128 -0.4705
17016SOL     OW68657  10.055   9.153  11.717 -0.2965  0.0643 -0.0787
17016SOL    HW168658  10.104   9.168  11.798  0.0218  1.0768 -0.4437
17016SOL    HW268659   9.964   9.172  11.739 -0.1064  1.0941 -0.1376
17017SOL     OW68660   7.693   8.098   1.175  0.1963 -0.2362  0.4557
17017SOL    HW168661   7.685   8.142   1.091 -1.0393 -0.0058  0.6688
17017SOL    HW268662   7.707   8.006   1.153  0.9024 -0.0326  0.0152
17018SOL     OW68663   3.053   6.659   5.294  0.2159  0.0285 -0.5495
17018SOL    HW168664   3.134   6.642   5.342  1.0411  1.5617 -1.3220
17018SOL    HW268665   3.070   6.741   5.249 -2.4543  1.3859  0.7302
17019SOL     OW68666   6.703   9.753   5.641  0.0727  0.1248  0.0948
17019SOL    HW168667   6.766   9.688   5.672  1.2796  2.3237  2.6287
17019SOL    HW268668   6.622   9.732   5.689  0.7296  0.9774  1.6382
17020SOL     OW68669   3.309   7.618   8.287 -0.1315  0.1289  0.0935
17020SOL    HW168670   3.294   7.691   8.227  0.7112  1.6674  1.6545
17020SOL    HW268671   3.244   7.552   8.262 -1.7158  1.8771 -0.6351
17021SOL     OW68672  10.756  12.716   2.438 -0.2289  0.5175 -0.0087
17021SOL    HW168673  10.795  12.751   2.357  1.1798 -2.7331 -0.9069
17021SOL    HW268674  10.662  12.716   2.422  0.0068  0.2651 -1.5484
17022SOL     OW68675   3.331   5.524   9.699  0.0751  0.3580  0.3164
17022SOL    HW168676   3.270   5.487   9.636  1.1089 -0.5005 -0.2176
17022SOL    HW268677   3.283   5.524   9.782 -1.6515  2.4429 -0.6051
17023SOL     OW68678  12.421   9.146   7.173  0.5458  0.0261  0.1553
17023SOL    HW168679  12.363   9.108   7.106 -1.7013  2.0301  0.8147
17023SOL    HW268680  12.450   9.229   7.135 -0.8338  1.2400  1.6180
17024SOL     OW68681  13.343   8.880   8.470 -0.1986  0.3584  0.6012
17024SOL    HW168682  13.421   8.842   8.510 -0.2267  1.2715  1.5508
17024SOL    HW268683  13.303   8.932   8.539 -1.3635  0.3350 -0.0358
17025SOL     OW68684   9.189   8.919   3.116 -0.0188 -0.7106  0.3889
17025SOL    HW168685   9.162   8.829   3.103  0.0434 -0.7292  0.3897
17025SOL    HW268686   9.130   8.952   3.184 -0.4871 -0.5445 -0.0921
17026SOL     OW68687  13.442   0.057   4.191  0.1516  0.2546 -0.0310
17026SOL    HW168688  13.377   0.098   4.248 -1.0017 -1.8467  0.2652
17026SOL    HW268689  13.471   0.127   4.133 -1.1296  1.6591  0.9589
17027SOL     OW68690  13.032   7.475   1.759  0.4224  0.2516  0.1129
17027SOL    HW168691  13.029   7.418   1.682 -1.0009  0.7527 -0.2308
17027SOL    HW268692  13.119   7.460   1.796  0.4696 -1.3341 -0.5612
17028SOL     OW68693   5.407  11.806   0.102 -0.4646  0.4952 -0.0864
17028SOL    HW168694   5.356  11.773   0.176 -1.7106  1.3643 -0.5281
17028SOL    HW268695   5.398  11.739   0.034  0.3740 -0.1278  0.4018
17029SOL     OW68696  13.725   8.823   0.329  0.6072 -0.1140 -0.1555
17029SOL    HW168697  13.720   8.886   0.257 -0.0822 -0.6219 -0.5619
17029SOL    HW268698  13.678   8.865   0.401 -0.0267 -0.2444 -0.4898
17030SOL     OW68699   4.950  11.108   8.264  0.9531 -0.3591  0.1984
17030SOL    HW168700   4.869  11.157   8.249  0.8204 -0.6799 -0.1334
17030SOL    HW268701   4.923  11.030   8.311  1.0163 -0.6527 -0.2471
17031SOL     OW68702   1.462  12.734   3.033  0.2796  0.2299  0.4022
17031SOL    HW168703   1.431  12.774   3.114  1.7286 -0.1663  1.1845
17031SOL    HW268704   1.525  12.798   2.998  2.3475 -1.1086  1.4777
17032SOL     OW68705  10.895   7.819  12.401  0.0171 -0.0035 -0.0686
17032SOL    HW168706  10.932   7.732  12.409  0.0605 -0.0576 -0.7935
17032SOL    HW268707  10.898   7.839  12.308 -0.8960  0.3776 -0.0376
17033SOL     OW68708   3.119  12.582   4.854 -0.1043  0.2624  0.6485
17033SOL    HW168709   3.128  12.664   4.806 -2.3806  1.4034  1.9475
17033SOL    HW268710   3.071  12.524   4.795 -1.8391  1.2457  1.0107
17034SOL     OW68711   2.009   4.121   6.715  0.1418 -0.1677 -0.2141
17034SOL    HW168712   2.036   4.164   6.796  0.1211 -0.2898 -0.1428
17034SOL    HW268713   1.935   4.066   6.740 -1.4465  1.6215 -0.7575
17035SOL     OW68714  14.080   8.902  12.051 -0.3519  0.0746  0.5207
17035SOL    HW168715  14.116   8.990  12.040  1.9189 -1.0252 -1.5085
17035SOL    HW268716  14.113   8.853  11.976 -1.7695 -2.4641  1.4692
17036SOL     OW68717   7.316   2.439   3.482 -0.2810 -0.2417 -0.1020
17036SOL    HW168718   7.227   2.455   3.450 -0.3677  0.7771  0.5756
17036SOL    HW268719   7.308   2.362   3.538 -0.3077 -1.4400 -1.6825
17037SOL     OW68720  10.362   4.300  10.733 -0.0035 -0.1642  0.9067
17037SOL    HW168721  10.373   4.215  10.777  1.6608  0.4145  1.6811
17037SOL    HW268722  10.363   4.364  10.804  0.8106  0.6451  0.1897
17038SOL     OW68723   5.489   8.887  12.427 -0.4482  0.1977 -0.2216
17038SOL    HW168724   5.542   8.966  12.429 -0.4809  0.2223  1.8761
17038SOL    HW268725   5.430   8.896  12.503  0.6971 -2.5712  1.1262
17039SOL     OW68726  12.149  13.586   0.421 -0.0854  0.2219 -0.6974
17039SOL    HW168727  12.115  13.527   0.353 -1.2622 -0.1956  0.2149
17039SOL    HW268728  12.168  13.529   0.495  0.9466  0.7070 -0.5712
17040SOL     OW68729  10.793   6.982   1.874 -0.4752  0.1019 -0.3236
17040SOL    HW168730  10.836   6.952   1.954  1.0729  1.1780 -0.7122
17040SOL    HW268731  10.787   6.904   1.819 -0.5754 -0.4180  0.4116
17041SOL     OW68732  11.188   5.409  11.255 -0.1555 -0.0088 -0.3423
17041SOL    HW168733  11.271   5.397  11.300 -0.2119 -0.4310 -0.3398
17041SOL    HW268734  11.122   5.404  11.324 -0.2580 -0.8882 -0.4913
17042SOL     OW68735   4.290   8.968   2.738 -0.5854 -0.4703 -0.5113
17042SOL    HW168736   4.382   8.980   2.763 -1.1937 -0.3836  1.9125
17042SOL    HW268737   4.276   9.030   2.667  1.4780 -1.2266 -1.6715
17043SOL     OW68738   8.585   1.821  14.038 -0.3326 -0.0221  0.3285
17043SOL    HW168739   8.560   1.913  14.049 -2.2042 -0.4619  0.2238
17043SOL    HW268740   8.562   1.801  13.948  1.3607 -0.2511 -0.0715
17044SOL     OW68741   5.447   8.744  10.387  0.6660  0.0704 -1.2388
17044SOL    HW168742   5.508   8.761  10.460 -1.0247 -2.9804  1.1207
17044SOL    HW268743   5.465   8.654  10.362 -2.6062 -0.8906 -0.5760
17045SOL     OW68744   2.205  11.675  12.937  0.0618 -0.1167  0.0809
17045SOL    HW168745   2.115  11.668  12.905  0.5098 -1.2562 -0.9953
17045SOL    HW268746   2.243  11.748  12.887 -0.1561  0.1501  0.2998
17046SOL     OW68747   1.285  13.431   1.445 -0.3804  0.4027  0.4376
17046SOL    HW168748   1.347  13.393   1.507 -0.1563 -0.0540 -0.0554
17046SOL    HW268749   1.244  13.503   1.492  1.8154  1.8920  0.2172
17047SOL     OW68750   6.799   2.625  11.984 -0.0668 -0.2500  0.5332
17047SOL    HW168751   6.875   2.632  12.042  0.2744  1.2225 -0.0382
17047SOL    HW268752   6.738   2.691  12.016 -0.4910 -0.4430  0.1288
17048SOL     OW68753  10.081  13.765  10.616 -0.6542 -0.1176 -0.5985
17048SOL    HW168754  10.011  13.730  10.560 -0.4858 -1.3002 -0.0894
17048SOL    HW268755  10.162  13.729  10.579 -0.5689 -1.2422  0.6118
17049SOL     OW68756   5.398  11.816  12.481  0.0762 -0.5382 -0.1770
17049SOL    HW168757   5.384  11.759  12.405  1.5918 -0.1310 -0.8051
17049SOL    HW268758   5.374  11.904  12.449  1.4421 -0.2464 -0.4529
17050SOL     OW68759   1.775  13.775   0.143 -0.0272  0.6652  0.5395
17050SOL    HW168760   1.758  13.850   0.201 -0.3865  0.4716  0.6820
17050SOL    HW268761   1.755  13.808   0.055 -0.6312  0.5994  0.6493
17051SOL     OW68762  10.100   4.698  13.225 -0.6891 -0.1209  0.2848
17051SOL    HW168763  10.173   4.705  13.287 -0.8385 -0.2447  0.4779
17051SOL    HW268764  10.139   4.716  13.140 -0.1832 -1.3370  0.2388
17052SOL     OW68765  14.034   1.283   5.513 -0.4485 -0.2731  0.1970
17052SOL    HW168766  14.102   1.296   5.579  1.7499  0.6564 -2.1168
17052SOL    HW268767  13.964   1.238   5.560  1.0191  0.2641  3.1165
17053SOL     OW68768  12.096   9.601   8.074 -0.0301 -0.5217  0.3591
17053SOL    HW168769  12.058   9.668   8.018 -2.1496 -0.3491  1.8486
17053SOL    HW268770  12.127   9.533   8.014  0.4653  0.9428 -1.0828
17054SOL     OW68771   7.596  11.883   9.960  0.8190 -0.1572  0.2373
17054SOL    HW168772   7.556  11.798   9.941 -1.5424  0.9795 -0.3107
17054SOL    HW268773   7.551  11.914  10.039  0.2796  1.3589 -0.6245
17055SOL     OW68774  12.505  12.030  11.900  0.4070  0.3040  0.1806
17055SOL    HW168775  12.546  11.974  11.834 -0.2856 -0.5170  0.4256
17055SOL    HW268776  12.473  12.105  11.851  0.5160  0.0409 -0.3026
17056SOL     OW68777  13.803  11.415   1.391  0.2462 -0.2610 -0.5893
17056SOL    HW168778  13.788  11.354   1.320  1.1107  0.4442 -1.3917
17056SOL    HW268779  13.896  11.438   1.386 -0.2102  1.7935 -0.9020
17057SOL     OW68780   4.305  12.842  11.072 -0.2767 -0.4451 -0.3150
17057SOL    HW168781   4.310  12.763  11.017 -0.5104 -1.3132  0.8680
17057SOL    HW268782   4.379  12.896  11.043  0.9549 -1.8798 -0.0167
17058SOL     OW68783   1.595   2.378   7.193 -0.1647 -0.1676  0.5381
17058SOL    HW168784   1.643   2.347   7.116 -0.5288  1.7837 -0.5567
17058SOL    HW268785   1.660   2.379   7.263  0.8507  0.3951 -0.3810
17059SOL     OW68786   1.406   5.678   6.836  0.3092 -0.1610  0.5175
17059SOL    HW168787   1.474   5.687   6.768  0.6150  1.4511  0.9905
17059SOL    HW268788   1.324   5.675   6.787  0.5160  1.1680  0.0375
17060SOL     OW68789   8.193   5.670   4.780  0.0616 -0.4527 -0.8255
17060SOL    HW168790   8.268   5.701   4.831 -0.4833 -0.1859 -0.1602
17060SOL    HW268791   8.144   5.749   4.759 -2.0830 -0.8213  2.0584
17061SOL     OW68792  10.679   3.162   0.276 -0.3101  0.0104  0.5307
17061SOL    HW168793  10.617   3.095   0.305 -0.5040  0.4375  1.1116
17061SOL    HW268794  10.724   3.190   0.355  0.1270  0.2109  0.2158
17062SOL     OW68795  13.660   3.219   6.319  0.0232 -0.2356  0.6870
17062SOL    HW168796  13.572   3.182   6.309  0.0477 -0.2447  0.5196
17062SOL    HW268797  13.719   3.152   6.286  0.0773 -0.1192  0.5441
17063SOL     OW68798   4.764   4.092  14.045 -0.4475 -0.2687  0.6331
17063SOL    HW168799   4.708   4.110  13.969 -1.1273  1.6805  1.5336
17063SOL    HW268800   4.853   4.105  14.013 -0.7889  2.8491  0.6133
17064SOL     OW68801   0.211   8.247   7.299 -0.3055 -0.2674  0.8824
17064SOL    HW168802   0.245   8.158   7.312  0.0893 -0.3083 -0.3280
17064SOL    HW268803   0.289   8.301   7.288 -0.5576  0.1714  1.2545
17065SOL     OW68804   7.019   2.838   3.151  0.2025 -0.0393 -0.2066
17065SOL    HW168805   7.091   2.892   3.184  0.9168 -0.7177 -0.6163
17065SOL    HW268806   6.941   2.872   3.196  0.3034  2.4861 -1.7567
17066SOL     OW68807  10.319  10.801  12.945 -0.4897  0.2329 -0.3644
17066SOL    HW168808  10.364  10.775  12.865 -1.6220  2.6753 -1.9456
17066SOL    HW268809  10.345  10.893  12.958  1.0465 -0.5443  3.1397
17067SOL     OW68810   8.073   2.617   7.749  0.1251  0.9468  0.0066
17067SOL    HW168811   8.060   2.589   7.659 -0.7680  1.0520  0.0997
17067SOL    HW268812   8.063   2.712   7.746 -1.3267  0.8338  0.4366
17068SOL     OW68813   2.872   2.876   6.151 -0.3743 -0.1367  0.0359
17068SOL    HW168814   2.826   2.843   6.228  1.2628  0.4663  1.3334
17068SOL    HW268815   2.878   2.971   6.165  1.7516 -0.2628  0.2325
17069SOL     OW68816   7.968  13.155   3.897  0.6088 -0.5591 -0.0123
17069SOL    HW168817   7.905  13.084   3.893  0.4682 -0.4630  0.4454
17069SOL    HW268818   7.986  13.166   3.990 -1.4616  1.8334  0.2034
17070SOL     OW68819   6.973   5.012   2.228 -0.8108 -0.4733 -0.4610
17070SOL    HW168820   6.888   5.052   2.248 -0.7671 -1.5883  2.5144
17070SOL    HW268821   6.968   4.926   2.268  2.1092 -0.1389  0.8646
17071SOL     OW68822  10.484  14.064   2.352  0.1814 -0.0031  0.0074
17071SOL    HW168823  10.470  14.151   2.315  0.4380  0.5072  1.1070
17071SOL    HW268824  10.574  14.065   2.383 -0.4627  0.0799  1.9672
17072SOL     OW68825   6.529   1.087   7.053  0.1439 -0.9871  0.2858
17072SOL    HW168826   6.582   1.017   7.091  0.0436 -1.9214 -1.2277
17072SOL    HW268827   6.592   1.143   7.007  0.2024 -0.1332  1.3438
17073SOL     OW68828  12.721  10.539  10.838  0.0268 -0.1370  0.4928
17073SOL    HW168829  12.720  10.528  10.743 -2.7751  1.4962  0.2004
17073SOL    HW268830  12.779  10.614  10.853 -0.4360  0.3453 -0.0766
17074SOL     OW68831  11.652   3.988   9.815 -0.3115  0.8025 -0.4125
17074SOL    HW168832  11.655   3.970   9.721 -1.9200  0.7854 -0.4962
17074SOL    HW268833  11.628   4.080   9.821  2.6444  1.6460  0.0264
17075SOL     OW68834   3.776  12.798   9.035 -0.6126 -0.8933  0.5155
17075SOL    HW168835   3.729  12.794   8.951  0.5756  1.4901 -0.3358
17075SOL    HW268836   3.833  12.721   9.034 -1.2166 -1.3516 -0.4803
17076SOL     OW68837   9.977   7.684   1.921  0.1210 -0.4670 -0.0595
17076SOL    HW168838   9.994   7.636   2.002  0.1524 -2.9397 -1.4078
17076SOL    HW268839   9.898   7.735   1.939  0.0225 -1.1053  1.4617
17077SOL     OW68840   1.924  12.580   5.556 -0.0947  0.2682 -0.4516
17077SOL    HW168841   1.887  12.507   5.606 -1.6604  1.2310 -0.1499
17077SOL    HW268842   2.018  12.578   5.576 -0.3282 -0.8146  0.6364
17078SOL     OW68843   2.872  12.006  11.290 -0.3686 -0.0296  0.2432
17078SOL    HW168844   2.776  12.011  11.292 -0.5199 -1.5469  2.7864
17078SOL    HW268845   2.902  12.095  11.306 -1.3401  0.4938 -0.7832
17079SOL     OW68846   7.870   8.474   1.120 -0.1299 -0.0910  0.5253
17079SOL    HW168847   7.923   8.545   1.157 -0.0832 -0.1977  0.6664
17079SOL    HW268848   7.854   8.500   1.030 -0.8403  0.5103  0.8231
17080SOL     OW68849   1.118   7.616  10.796  0.9189 -0.0869  0.1642
17080SOL    HW168850   1.065   7.681  10.749  1.5396  0.3956  0.1282
17080SOL    HW268851   1.071   7.604  10.879 -0.1207 -0.8662 -0.5101
17081SOL     OW68852   3.373  10.339   6.915 -0.1608 -0.3606  0.0186
17081SOL    HW168853   3.456  10.368   6.877 -0.4344 -1.4736 -1.5228
17081SOL    HW268854   3.341  10.415   6.963  0.6043  0.8964 -1.3605
17082SOL     OW68855  10.735   4.745   4.931  0.3006  0.2150  0.2089
17082SOL    HW168856  10.794   4.670   4.936 -0.0086  0.0147  1.0027
17082SOL    HW268857  10.760   4.801   5.005 -1.2525 -0.4508  1.3116
17083SOL     OW68858  13.029  11.161   4.883 -0.3750  0.1616 -0.0915
17083SOL    HW168859  12.957  11.099   4.871  1.2993 -1.5702 -1.9989
17083SOL    HW268860  13.102  11.123   4.835  0.8793  3.5089 -1.1617
17084SOL     OW68861   4.937   9.571   1.462 -0.1481 -0.0950 -0.2865
17084SOL    HW168862   5.016   9.585   1.514 -0.2842 -1.3242  0.2936
17084SOL    HW268863   4.923   9.654   1.416  1.9660 -0.1174 -1.0902
17085SOL     OW68864  10.799   2.677  12.806 -0.2223 -0.4403 -0.2971
17085SOL    HW168865  10.835   2.596  12.844  0.4036 -0.5571 -1.1008
17085SOL    HW268866  10.707   2.656  12.789 -0.2989 -0.6660  0.3587
17086SOL     OW68867   5.380   5.180  11.876  0.0561 -0.1409 -0.1341
17086SOL    HW168868   5.421   5.193  11.791 -0.5176  0.7343 -0.2898
17086SOL    HW268869   5.371   5.268  11.912  0.6499 -0.5287  1.0097
17087SOL     OW68870   8.232  12.491  13.958  0.0151 -0.1274 -0.5084
17087SOL    HW168871   8.160  12.429  13.969 -0.2126 -0.0564 -1.4901
17087SOL    HW268872   8.290  12.474  14.032 -0.3006 -1.1576 -0.4824
17088SOL     OW68873   2.448   0.834   1.678 -0.6792  0.3701 -0.0897
17088SOL    HW168874   2.355   0.835   1.655 -0.9275  1.8152  0.8380
17088SOL    HW268875   2.452   0.870   1.767  0.7535  0.1822 -0.0448
17089SOL     OW68876   8.032   7.118  13.996  0.5628  0.3301  0.1835
17089SOL    HW168877   7.938   7.104  13.988  0.6055 -0.0322  0.3042
17089SOL    HW268878   8.063   7.130  13.906  0.7870 -2.0599 -0.1393
17090SOL     OW68879   5.202   3.839   3.595  0.3654  0.4320  0.0567
17090SOL    HW168880   5.135   3.773   3.574  0.4760  0.1229  0.6603
17090SOL    HW268881   5.247   3.855   3.512  1.4349 -1.4798  0.2298
17091SOL     OW68882  13.565  11.603   2.602 -0.0435 -0.3362 -0.0052
17091SOL    HW168883  13.616  11.553   2.665  0.1792 -0.2736 -0.1326
17091SOL    HW268884  13.506  11.656   2.655 -1.6308 -2.1151  0.0942
17092SOL     OW68885   9.382   9.476   7.128 -0.2095 -0.2171 -0.4256
17092SOL    HW168886   9.408   9.504   7.216  0.0239 -1.2258 -0.1667
17092SOL    HW268887   9.309   9.534   7.105  0.5162  0.8596 -0.0699
17093SOL     OW68888   4.912   6.009   9.269 -0.2970  0.3574 -0.7191
17093SOL    HW168889   4.873   6.012   9.357 -0.2279 -1.7330 -0.5700
17093SOL    HW268890   4.841   6.035   9.211 -1.4854 -1.6808 -0.2951
17094SOL     OW68891   2.042   7.233  11.909 -0.2989  0.2752 -0.5506
17094SOL    HW168892   2.122   7.285  11.898 -0.4327  0.9722  1.2824
17094SOL    HW268893   2.057   7.154  11.858  0.5287  1.4616 -2.2252
17095SOL     OW68894   7.661  12.960   4.486  0.3281  0.1934 -0.0678
17095SOL    HW168895   7.690  12.877   4.449 -0.2168  0.3773 -0.9219
17095SOL    HW268896   7.705  12.964   4.571 -1.6343 -2.1827  1.1834
17096SOL     OW68897   1.841  12.368   6.864  0.0896 -0.2564 -0.2431
17096SOL    HW168898   1.924  12.406   6.838  1.1033 -1.4290  1.1239
17096SOL    HW268899   1.817  12.415   6.944 -0.4771 -0.0687 -0.5144
17097SOL     OW68900   4.106   3.397   1.641 -0.3047 -0.2844  0.2862
17097SOL    HW168901   4.031   3.452   1.618  0.3473  0.0972 -1.0258
17097SOL    HW268902   4.145   3.439   1.717 -2.8812 -1.9026  2.7259
17098SOL     OW68903   0.361   0.843   1.084  0.0019 -0.5214  0.9338
17098SOL    HW168904   0.402   0.927   1.063  2.2462 -1.9851 -1.1335
17098SOL    HW268905   0.429   0.793   1.129 -0.8004 -1.7143  0.8735
17099SOL     OW68906   4.923   6.518  13.088  0.2407 -0.0940  0.0515
17099SOL    HW168907   4.977   6.465  13.030  0.8093  0.4126  0.1097
17099SOL    HW268908   4.949   6.492  13.176  0.1984 -0.0442  0.0785
17100SOL     OW68909   2.067   6.370   2.534 -0.3061 -0.5197 -0.2686
17100SOL    HW168910   1.979   6.333   2.537  0.0025 -1.3336 -0.7518
17100SOL    HW268911   2.098   6.367   2.624 -0.4914 -0.9298 -0.2180
17101SOL     OW68912   1.806   3.026   0.199  0.1501  0.4886 -0.5188
17101SOL    HW168913   1.876   3.032   0.134  1.5348  0.9696  0.9554
17101SOL    HW268914   1.735   2.982   0.153  1.2928  0.2602 -2.1685
17102SOL     OW68915  11.131   6.473   6.146 -0.4341  0.3228  0.0396
17102SOL    HW168916  11.127   6.538   6.216  2.1984 -0.4965  1.1039
17102SOL    HW268917  11.108   6.390   6.188 -1.2381  0.1645 -0.6810
17103SOL     OW68918   2.995   2.661  10.010 -0.5259 -0.3825 -0.1149
17103SOL    HW168919   2.965   2.570  10.003  0.5115 -0.8979  1.4854
17103SOL    HW268920   2.978   2.685  10.102 -0.6279  0.9868 -0.4745
17104SOL     OW68921   0.354   1.975  12.768 -0.0891  0.0351  0.4391
17104SOL    HW168922   0.422   1.908  12.775 -0.3856 -0.4115 -0.8222
17104SOL    HW268923   0.337   1.983  12.675 -2.5108 -0.6026  0.7661
17105SOL     OW68924   2.028   1.945   5.205  0.0159  0.0003 -0.4266
17105SOL    HW168925   2.034   2.026   5.154  0.9252  0.3781  0.2422
17105SOL    HW268926   1.953   1.959   5.263 -0.8119 -0.2959 -1.3845
17106SOL     OW68927   2.873   8.388   0.018 -0.0850 -0.1419 -0.2148
17106SOL    HW168928   2.943   8.446   0.045  0.0644 -0.7055  0.6436
17106SOL    HW268929   2.916   8.305  -0.000 -0.4971 -0.4244  0.0824
17107SOL     OW68930   9.280   3.664   5.840  0.0966  0.0594  0.0525
17107SOL    HW168931   9.222   3.592   5.815  0.9817 -0.6774  0.0905
17107SOL    HW268932   9.368   3.633   5.819  0.6328  0.4725  1.5700
17108SOL     OW68933   3.090   2.541  11.216  0.6320  0.1911 -0.1205
17108SOL    HW168934   3.007   2.566  11.175  0.2075  2.5624  1.8773
17108SOL    HW268935   3.154   2.601  11.179  0.9132  0.1079  0.2243
17109SOL     OW68936   9.408   7.333   5.150 -0.4412  0.1172 -0.3891
17109SOL    HW168937   9.418   7.270   5.079  2.7073  0.9870 -0.8631
17109SOL    HW268938   9.314   7.345   5.158 -0.9896 -1.5738 -3.0031
17110SOL     OW68939   0.778  12.877  11.628  0.1509  0.6719 -0.0199
17110SOL    HW168940   0.716  12.859  11.558  2.3899 -1.3612 -1.6406
17110SOL    HW268941   0.863  12.878  11.585  1.5460  0.3209  2.5392
17111SOL     OW68942   6.043  11.709   9.326 -0.6486  0.0425 -0.0842
17111SOL    HW168943   5.955  11.697   9.290 -0.8890 -0.6977  0.7209
17111SOL    HW268944   6.039  11.671   9.414  0.7655 -1.0489 -0.4452
17112SOL     OW68945  13.795  12.336   5.990  0.2514  0.1694  0.2358
17112SOL    HW168946  13.846  12.258   5.968  0.2544  0.4055 -0.6479
17112SOL    HW268947  13.795  12.388   5.910 -1.9843 -0.1623 -0.0582
17113SOL     OW68948  11.141   3.146  10.521 -0.3168 -0.4253  0.5097
17113SOL    HW168949  11.197   3.209  10.566 -0.0284  0.5722 -1.1446
17113SOL    HW268950  11.201   3.080  10.486 -0.2241  0.1799 -0.5289
17114SOL     OW68951   0.170   3.110  11.871 -0.0845  0.0259 -0.4937
17114SOL    HW168952   0.148   3.028  11.916  0.6211  0.0564 -0.0857
17114SOL    HW268953   0.182   3.085  11.780  0.6306 -0.4214 -0.2835
17115SOL     OW68954  11.852   1.754   6.987  0.1437 -0.3412  0.5349
17115SOL    HW168955  11.809   1.732   6.905 -2.0485  1.3214  1.1468
17115SOL    HW268956  11.857   1.670   7.034 -2.0147 -0.7311  0.1907
17116SOL     OW68957   2.228  13.653   9.249 -0.2140 -0.2869  0.0583
17116SOL    HW168958   2.217  13.617   9.337  0.1303  0.7859  0.5662
17116SOL    HW268959   2.249  13.578   9.194 -1.0359 -1.0584  0.7742
17117SOL     OW68960  13.939   8.727   1.357  0.1508 -0.4397 -0.2298
17117SOL    HW168961  13.945   8.678   1.275  0.8694 -0.4709 -0.1722
17117SOL    HW268962  13.946   8.819   1.331  0.3041 -0.4464 -0.2158
17118SOL     OW68963  12.111  12.716   6.649 -0.7910 -0.1667 -0.0292
17118SOL    HW168964  12.110  12.635   6.599 -1.8388 -0.4560  0.4384
17118SOL    HW268965  12.180  12.769   6.608 -1.1940 -0.6432 -1.3638
17119SOL     OW68966  10.136   3.724   4.804  0.6430 -0.3684  0.0511
17119SOL    HW168967  10.158   3.638   4.840 -1.6570 -0.7349  0.7759
17119SOL    HW268968  10.069   3.758   4.864  1.2414  1.7749 -0.4267
17120SOL     OW68969  12.863  11.126   4.000  0.1913 -0.2160  0.0919
17120SOL    HW168970  12.821  11.061   4.056 -0.9142 -0.5899 -1.1087
17120SOL    HW268971  12.891  11.077   3.923 -1.3136  0.8020 -1.1655
17121SOL     OW68972   6.697   4.347  13.041  0.0906  0.0857 -0.6157
17121SOL    HW168973   6.709   4.441  13.049  0.9824 -0.1263  1.1156
17121SOL    HW268974   6.778   4.315  13.000  0.2445 -0.0287 -0.2298
17122SOL     OW68975  12.502  10.799   2.065 -0.4493  0.4321  0.7662
17122SOL    HW168976  12.489  10.878   2.013  1.1556  0.8525  0.9540
17122SOL    HW268977  12.505  10.728   2.001  0.0861  0.7704  0.4117
17123SOL     OW68978   3.253  11.784  13.409 -0.0911  0.2747 -0.4273
17123SOL    HW168979   3.237  11.853  13.474  1.1421 -0.0784  0.2843
17123SOL    HW268980   3.324  11.819  13.354  2.0796 -1.2109  1.2596
17124SOL     OW68981   1.089  12.270   2.572 -0.3567 -0.8258 -0.1066
17124SOL    HW168982   1.057  12.243   2.486 -0.5086 -0.9933  0.0031
17124SOL    HW268983   1.052  12.206   2.633 -1.7793  0.3583  0.3323
17125SOL     OW68984   4.961  11.289   0.425  0.2151 -0.0218  0.3994
17125SOL    HW168985   4.891  11.349   0.449  0.1918 -0.2426  0.8882
17125SOL    HW268986   4.933  11.251   0.341 -0.0413  0.2149  0.3781
17126SOL     OW68987  12.723  13.404  12.304  0.3409  0.8991 -0.1931
17126SOL    HW168988  12.777  13.441  12.235  1.1802  0.7310  0.3522
17126SOL    HW268989  12.728  13.309  12.290  1.1244  0.8192  0.5147
17127SOL     OW68990  12.069  12.854  13.729 -0.3261  0.0809  0.0818
17127SOL    HW168991  12.084  12.795  13.655  1.7982  1.6454 -0.8132
17127SOL    HW268992  11.977  12.880  13.721  0.0771  0.9649 -2.6257
17128SOL     OW68993   7.817   3.330   0.138 -0.2105 -0.4261 -0.0028
17128SOL    HW168994   7.863   3.408   0.106 -0.3660 -0.4084 -0.1844
17128SOL    HW268995   7.872   3.298   0.209 -0.8138  0.6084  0.9565
17129SOL     OW68996  13.307   1.279  12.449  0.0666  0.4010 -0.3327
17129SOL    HW168997  13.357   1.263  12.369 -2.2752  0.5006 -1.9299
17129SOL    HW268998  13.292   1.191  12.485  1.1715  0.3567  0.0521
17130SOL     OW68999   5.387   4.715  13.071 -0.9810 -0.4532  0.0012
17130SOL    HW169000   5.297   4.705  13.040 -0.8965  1.2636 -0.9184
17130SOL    HW269001   5.399   4.809  13.080  1.1439 -0.5459 -1.2132
17131SOL     OW69002   4.293   9.800   4.384 -0.2266  0.2842 -0.3490
17131SOL    HW169003   4.284   9.895   4.372 -0.7423 -0.0521 -3.5640
17131SOL    HW269004   4.204   9.766   4.376 -0.2010 -0.4560  1.8612
17132SOL     OW69005   3.027  10.304  11.882 -0.6944  0.4395  0.1606
17132SOL    HW169006   3.048  10.212  11.899 -1.3798  0.4901  1.3796
17132SOL    HW269007   3.073  10.324  11.801 -1.0757 -1.1773 -0.5082
17133SOL     OW69008  12.031   4.753   9.648 -0.2432  0.2305 -0.6160
17133SOL    HW169009  11.987   4.806   9.581 -0.1775  1.7665  0.5064
17133SOL    HW269010  11.995   4.665   9.637 -3.5350  1.3467  0.1483
17134SOL     OW69011  13.060  11.483   4.331 -0.6298  0.5775 -0.5627
17134SOL    HW169012  13.022  11.395   4.335  0.5252  0.0807 -0.3013
17134SOL    HW269013  13.143  11.471   4.286  0.3311  1.2389  0.9657
17135SOL     OW69014   1.663   3.751  13.264  0.4430 -0.0814 -0.1404
17135SOL    HW169015   1.584   3.778  13.310  0.4499 -1.5847  0.7881
17135SOL    HW269016   1.688   3.829  13.214 -0.2083  1.2380  1.4842
17136SOL     OW69017   6.314   3.631   0.615  0.6454 -0.0355  0.5134
17136SOL    HW169018   6.397   3.590   0.639  0.2423 -0.1747  1.7729
17136SOL    HW269019   6.326   3.724   0.632  1.1212  0.2312 -1.0747
17137SOL     OW69020  10.410   7.596   9.009  0.1968  0.8029  0.0841
17137SOL    HW169021  10.338   7.573   8.951 -1.4056  0.0563  2.2267
17137SOL    HW269022  10.429   7.687   8.989  0.3818  0.3088 -2.2290
17138SOL     OW69023   1.527   7.778   1.515 -0.2767  0.3136  0.0632
17138SOL    HW169024   1.609   7.755   1.472  0.1012  2.6775 -0.6580
17138SOL    HW269025   1.510   7.706   1.575  1.6985 -0.8107 -0.6307
17139SOL     OW69026   6.804   0.394   6.538 -0.2414 -0.6352 -0.0662
17139SOL    HW169027   6.778   0.482   6.511 -0.5487 -0.4846  0.6963
17139SOL    HW269028   6.899   0.399   6.548 -0.4845  0.3358  2.4194
17140SOL     OW69029   8.695   1.607   2.510 -0.4226  0.6553 -0.1524
17140SOL    HW169030   8.723   1.561   2.589  2.0396  0.1566 -1.2103
17140SOL    HW269031   8.736   1.693   2.518  2.3801 -0.3550 -2.1110
17141SOL     OW69032   3.543   8.436   5.305 -0.3362 -0.0503 -0.5355
17141SOL    HW169033   3.527   8.527   5.331  0.2958  0.7765 -2.7495
17141SOL    HW269034   3.482   8.420   5.233 -0.0764 -1.1994 -0.5216
17142SOL     OW69035   9.317   4.936   3.198 -0.4152  0.5336 -0.1682
17142SOL    HW169036   9.254   4.967   3.262 -0.1558  0.1486  0.2772
17142SOL    HW269037   9.311   4.999   3.126 -1.5404  0.3111 -0.2821
17143SOL     OW69038   5.702   3.515   3.618  0.3082 -0.8816  0.5437
17143SOL    HW169039   5.665   3.593   3.575 -1.7312 -1.8240  0.4418
17143SOL    HW269040   5.674   3.522   3.709  1.5208 -0.7069  0.9182
17144SOL     OW69041   0.988  12.607   7.281  0.1410 -0.0015 -0.3178
17144SOL    HW169042   1.066  12.589   7.334 -0.3776 -0.4843  0.2983
17144SOL    HW269043   0.918  12.558   7.324 -0.3951 -0.0139 -1.1804
17145SOL     OW69044   6.408   4.103   1.919 -0.4712 -0.3272  0.2292
17145SOL    HW169045   6.470   4.113   1.991 -0.6912 -1.1431  0.5414
17145SOL    HW269046   6.450   4.044   1.857 -0.3116  0.3158 -0.2986
17146SOL     OW69047   2.341   0.668  11.323  0.5242  0.4735  0.2182
17146SOL    HW169048   2.362   0.581  11.357 -2.8840 -0.4827  0.1774
17146SOL    HW269049   2.345   0.725  11.399  0.4593 -0.1652  0.7125
17147SOL     OW69050   3.064  10.334  13.351 -0.0974  0.1657 -0.5232
17147SOL    HW169051   3.156  10.341  13.323 -0.5511 -0.8182 -2.4055
17147SOL    HW269052   3.069  10.297  13.439  1.3048 -2.2832 -1.5172
17148SOL     OW69053   7.448   0.072   7.682 -0.0213 -0.5359 -0.0615
17148SOL    HW169054   7.419   0.080   7.773  0.0907 -1.4790  0.0763
17148SOL    HW269055   7.539   0.102   7.683  0.1636 -1.0847  0.2667
17149SOL     OW69056   5.307  13.546   1.686 -0.2956  0.3075  0.5330
17149SOL    HW169057   5.371  13.603   1.728  0.5398  1.0341 -1.5894
17149SOL    HW269058   5.360  13.478   1.643 -0.8238  1.2004 -1.6790
17150SOL     OW69059   8.664  13.503   3.848 -0.1484 -0.3552  0.6461
17150SOL    HW169060   8.627  13.562   3.781  1.6137  1.9710  1.5964
17150SOL    HW269061   8.656  13.551   3.930  0.8927 -1.6760  1.5713
17151SOL     OW69062   3.317   9.853   0.830  0.2294 -0.0722  0.7065
17151SOL    HW169063   3.291   9.887   0.916  1.4478 -0.6031  1.3028
17151SOL    HW269064   3.310   9.758   0.839  0.5841 -0.1409  0.2940
17152SOL     OW69065  13.680   9.983   0.020  1.0813  0.2196 -0.1397
17152SOL    HW169066  13.610   9.964   0.082 -0.8724 -2.6003 -2.9093
17152SOL    HW269067  13.664  10.072  -0.009  0.7398  0.8007  1.7104
17153SOL     OW69068   1.869   5.293   3.835  0.7021  0.0765  0.6079
17153SOL    HW169069   1.961   5.310   3.814  0.6073 -0.2741 -0.1377
17153SOL    HW269070   1.860   5.198   3.829  0.3172  0.1014  0.7968
17154SOL     OW69071   1.639  11.062  11.747  0.2836 -0.2483 -0.5578
17154SOL    HW169072   1.703  11.070  11.676  0.4082  0.7859 -0.3467
17154SOL    HW269073   1.682  11.005  11.811  0.4740 -0.5810 -0.9710
17155SOL     OW69074  10.603   4.666  12.041  0.0282  0.5714 -0.0255
17155SOL    HW169075  10.668   4.643  11.974 -0.5397  0.0598 -0.4100
17155SOL    HW269076  10.632   4.620  12.119  1.3738  2.1137  0.4577
17156SOL     OW69077  13.457   4.822   9.173 -0.0407  0.1215  0.0883
17156SOL    HW169078  13.548   4.797   9.192 -0.8527 -1.5385  2.1619
17156SOL    HW269079  13.421   4.847   9.259 -0.8290  3.5415 -1.0766
17157SOL     OW69080   4.259   1.413   1.992 -0.2976  0.1297  0.3409
17157SOL    HW169081   4.339   1.440   2.038  0.4099 -0.6875 -0.3967
17157SOL    HW269082   4.290   1.370   1.913 -1.3674 -2.3607  1.1759
17158SOL     OW69083  11.880   9.962   5.785  0.1223  0.2624  0.3681
17158SOL    HW169084  11.806   9.907   5.810 -1.8938  3.0218  1.0478
17158SOL    HW269085  11.882   9.957   5.689  0.4962 -1.5021  0.4399
17159SOL     OW69086   5.095   4.376  13.344  0.5490  0.2849 -0.0232
17159SOL    HW169087   5.179   4.332  13.346  0.8483  0.8809  1.1819
17159SOL    HW269088   5.116   4.469  13.346 -0.1385  0.4365  1.1166
17160SOL     OW69089   0.379   9.174  11.860  0.2957  0.0101 -0.0051
17160SOL    HW169090   0.449   9.169  11.795 -1.3300  0.3020 -1.8773
17160SOL    HW269091   0.300   9.187  11.808 -1.1280 -0.0878  2.0492
17161SOL     OW69092   2.034   4.816   8.269 -0.2213  0.3712  0.0990
17161SOL    HW169093   2.031   4.758   8.344  0.4225  0.4113  0.1598
17161SOL    HW269094   1.994   4.898   8.300  0.3386  0.4985  0.5009
17162SOL     OW69095  12.845   5.109   6.210  0.2659 -0.0669  0.0988
17162SOL    HW169096  12.779   5.091   6.143  0.5714  0.5771 -0.3800
17162SOL    HW269097  12.927   5.121   6.161  0.2706  1.6088  0.4597
17163SOL     OW69098   5.914   3.006   2.495  0.6776 -0.3702  0.2991
17163SOL    HW169099   5.956   3.061   2.429 -0.4971 -0.6599 -0.7152
17163SOL    HW269100   5.974   3.010   2.570  1.6827  0.5414 -0.5101
17164SOL     OW69101   9.452  13.903   0.639 -0.2660 -1.0747 -0.0674
17164SOL    HW169102   9.379  13.861   0.686 -0.3985  0.7202  1.4420
17164SOL    HW269103   9.526  13.845   0.653 -0.4943 -0.9903  1.7922
17165SOL     OW69104  10.452   8.836  11.604  0.1174 -0.2833 -0.0024
17165SOL    HW169105  10.521   8.811  11.666  0.5771 -0.0687 -0.4150
17165SOL    HW269106  10.405   8.755  11.585  0.5751 -0.5307 -0.0997
17166SOL     OW69107   9.846   9.806  13.581  0.3857 -0.4334  0.1164
17166SOL    HW169108   9.931   9.800  13.536 -0.3484 -1.2832 -1.2257
17166SOL    HW269109   9.820   9.898  13.570 -0.0565 -0.7521 -1.7748
17167SOL     OW69110   5.130   0.446  11.590  0.8926 -0.2649 -0.3704
17167SOL    HW169111   5.081   0.366  11.569  0.6001  0.2163 -1.5748
17167SOL    HW269112   5.200   0.449  11.525  1.3450  0.0802  0.1280
17168SOL     OW69113  11.608   0.005  11.668 -0.1244  0.6574 -0.3710
17168SOL    HW169114  11.532  -0.009  11.612 -0.0033  3.4181 -1.3480
17168SOL    HW269115  11.572   0.007  11.757 -0.8378 -0.2401 -0.6242
17169SOL     OW69116   8.451  13.626   3.089 -0.4288  0.1831 -0.5798
17169SOL    HW169117   8.521  13.691   3.092 -0.7585  0.5321  1.8279
17169SOL    HW269118   8.371  13.676   3.072 -0.2242 -0.1466 -2.7606
17170SOL     OW69119   5.571   5.841  11.388  0.0807  0.9115  0.6222
17170SOL    HW169120   5.570   5.827  11.483 -0.2619 -1.3412  0.3458
17170SOL    HW269121   5.626   5.917  11.375 -1.0253  2.1544  2.7231
17171SOL     OW69122   4.736   5.695   5.779 -0.3868 -0.0480 -0.8078
17171SOL    HW169123   4.769   5.665   5.694 -0.4568 -2.2444 -0.1212
17171SOL    HW269124   4.725   5.615   5.830  0.8210  1.2978  1.7230
17172SOL     OW69125   9.888   6.624   2.676  0.4132 -0.0620  0.1142
17172SOL    HW169126   9.886   6.625   2.580 -1.7179 -2.4960  0.0375
17172SOL    HW269127   9.978   6.597   2.697  0.3190 -1.6973 -1.3170
17173SOL     OW69128  10.523   9.106   9.297 -0.5263  0.3308  0.6557
17173SOL    HW169129  10.535   9.025   9.248 -0.3456  0.4271  0.5406
17173SOL    HW269130  10.488   9.168   9.233 -0.7574  0.3171  0.7670
17174SOL     OW69131  13.765   4.570   9.034  0.2713  0.2392  0.3757
17174SOL    HW169132  13.776   4.534   8.946  0.3179  0.7435  0.1711
17174SOL    HW269133  13.817   4.650   9.033  0.1637  0.3154  0.8224
17175SOL     OW69134  13.667   5.561   1.568 -0.2869 -0.2117 -0.4617
17175SOL    HW169135  13.709   5.601   1.492 -2.0391  0.0520 -1.3424
17175SOL    HW269136  13.692   5.617   1.642  1.2052 -0.3080 -0.8632
17176SOL     OW69137  11.022  11.532   5.170  0.4274  0.3995  0.2906
17176SOL    HW169138  10.993  11.598   5.232 -0.0547  0.1164  0.3739
17176SOL    HW269139  11.090  11.575   5.118  2.4859 -0.0245  2.4634
17177SOL     OW69140   6.428   0.129   0.102 -0.3366 -0.9387 -0.6130
17177SOL    HW169141   6.487   0.193   0.142  0.8491 -1.2782 -1.7480
17177SOL    HW269142   6.465   0.044   0.127 -2.3471 -1.2793  1.5617
17178SOL     OW69143   2.820   1.065   0.013  0.3957 -0.4120 -0.3697
17178SOL    HW169144   2.749   1.112  -0.031  0.4415 -0.2759 -0.2997
17178SOL    HW269145   2.790   1.058   0.104  0.5431 -0.2096 -0.3033
17179SOL     OW69146   2.025   8.085   6.906 -0.1695 -0.4403  0.1757
17179SOL    HW169147   2.116   8.070   6.880 -0.8312 -1.8133 -1.5513
17179SOL    HW269148   1.978   8.094   6.823 -1.7591 -0.6796  1.0110
17180SOL     OW69149   3.144  12.964   4.956  0.3792 -0.0951 -0.1163
17180SOL    HW169150   3.173  12.933   5.041 -1.5381  1.1196  1.0415
17180SOL    HW269151   3.135  12.885   4.903 -0.0524 -1.0483  1.3398
17181SOL     OW69152  12.969   2.249   9.754 -0.7038 -0.2552  0.1988
17181SOL    HW169153  12.900   2.202   9.707  0.1909 -1.8902  0.4523
17181SOL    HW269154  13.050   2.227   9.708 -0.1585  0.4177  0.8031
17182SOL     OW69155  12.977  13.759   1.646 -0.1550 -0.0636  0.0379
17182SOL    HW169156  12.940  13.673   1.623 -0.8404  0.5501 -1.2260
17182SOL    HW269157  13.018  13.744   1.731 -0.4477 -1.5968 -0.0475
17183SOL     OW69158  11.653   3.372  10.773 -0.0418 -0.3157 -0.0958
17183SOL    HW169159  11.616   3.459  10.790  0.8690 -0.0938  0.8207
17183SOL    HW269160  11.745   3.380  10.795 -0.0160 -1.6209  0.3389
17184SOL     OW69161   1.676   3.194  13.566 -0.0528  0.1582 -0.0146
17184SOL    HW169162   1.724   3.235  13.639 -0.4273 -1.2635  1.0701
17184SOL    HW269163   1.659   3.266  13.506  1.2650  1.1710  0.7579
17185SOL     OW69164   7.677   8.032   4.482 -0.0532  0.2015  0.2998
17185SOL    HW169165   7.649   7.952   4.438 -0.6059  0.5555 -0.0047
17185SOL    HW269166   7.745   8.004   4.543  0.5062 -0.3418 -0.5640
17186SOL     OW69167   7.154   2.134  13.035 -0.3105  0.3986 -0.1247
17186SOL    HW169168   7.131   2.181  13.115 -2.8035  1.6000 -1.4200
17186SOL    HW269169   7.191   2.202  12.978 -0.4819  0.0140 -0.7039
17187SOL     OW69170  13.545  11.793   8.090  0.1649  0.0190 -0.2682
17187SOL    HW169171  13.575  11.847   8.017 -0.3264 -0.6143 -0.9560
17187SOL    HW269172  13.465  11.751   8.058  0.4536 -0.9982  0.2884
17188SOL     OW69173   0.198  12.555  11.407 -0.5192  0.1150 -0.2953
17188SOL    HW169174   0.112  12.512  11.412  0.4426 -1.8062  1.0023
17188SOL    HW269175   0.232  12.549  11.496  0.1319  2.7602 -0.3017
17189SOL     OW69176   0.110   1.313  10.003 -0.2386 -0.0429 -0.0360
17189SOL    HW169177   0.197   1.351   9.990 -0.4093 -0.1536 -1.7337
17189SOL    HW269178   0.055   1.354   9.936 -2.3223  2.3565  2.9103
17190SOL     OW69179  11.093   0.655   9.960  0.4208  0.1778 -0.5743
17190SOL    HW169180  11.153   0.711   9.911 -1.1556  0.8199 -1.8392
17190SOL    HW269181  11.011   0.657   9.911 -0.1812 -1.9923  0.1895
17191SOL     OW69182   1.117   5.533   0.401 -0.1763  0.2847  0.2207
17191SOL    HW169183   1.080   5.567   0.483 -1.4224  0.6743 -0.4873
17191SOL    HW269184   1.048   5.545   0.336  0.7695 -0.0868 -0.8869
17192SOL     OW69185   4.751   0.457  10.140  0.4499  0.6173 -0.6073
17192SOL    HW169186   4.693   0.430  10.068  0.5463 -0.5869 -0.2556
17192SOL    HW269187   4.838   0.428  10.113  0.4526 -0.0504  0.0840
17193SOL     OW69188  13.413  13.048   6.652  0.7178  0.5253  0.3343
17193SOL    HW169189  13.349  13.119   6.648  1.3296  1.2069  1.8281
17193SOL    HW269190  13.436  13.042   6.744  2.5709  0.1049 -0.1108
17194SOL     OW69191   6.265   4.404   4.781 -0.1805 -0.0293  0.2353
17194SOL    HW169192   6.174   4.376   4.793 -0.5443  0.8700 -0.3414
17194SOL    HW269193   6.263   4.498   4.796  0.7483 -0.0689  0.6692
17195SOL     OW69194   3.428  12.175  11.467  0.1739  0.1572 -0.9378
17195SOL    HW169195   3.365  12.106  11.491 -0.4965  1.0293 -0.1236
17195SOL    HW269196   3.511  12.146  11.506 -0.3987  0.4353  0.5560
17196SOL     OW69197  11.134  13.111  12.941  0.1618 -0.0250 -0.3572
17196SOL    HW169198  11.213  13.153  12.906  0.6278 -1.8064 -1.6387
17196SOL    HW269199  11.162  13.020  12.957 -1.0550 -0.1389  1.2942
17197SOL     OW69200   9.903   4.464  13.167  0.3054 -0.2355  0.3706
17197SOL    HW169201   9.844   4.466  13.243  1.4569 -0.9784  1.3193
17197SOL    HW269202   9.971   4.529  13.187 -1.3427  2.3673 -1.7821
17198SOL     OW69203   3.489   1.101   1.558  0.1150  0.3570 -0.1689
17198SOL    HW169204   3.542   1.086   1.480  0.3772 -0.2294  0.1148
17198SOL    HW269205   3.548   1.080   1.631 -0.1728  0.7511  0.1823
17199SOL     OW69206   0.014   8.642  13.487 -0.2711 -0.1774 -0.0139
17199SOL    HW169207  -0.026   8.654  13.573 -2.8876 -1.1787 -1.0087
17199SOL    HW269208   0.056   8.556  13.492 -0.5221 -0.2860  0.2224
17200SOL     OW69209   0.254   8.414  12.774 -0.0015 -0.0790 -0.0756
17200SOL    HW169210   0.229   8.332  12.815  0.3526  0.9849  2.4564
17200SOL    HW269211   0.337   8.395  12.731  0.2016 -0.9864  0.6811
17201SOL     OW69212   0.120  13.971   8.659 -0.1559  0.9033  0.2425
17201SOL    HW169213   0.206  13.930   8.657  0.0070  1.2435 -1.6174
17201SOL    HW269214   0.071  13.922   8.726  0.4278 -1.5094 -0.9936
17202SOL     OW69215   9.880   1.663  11.152  0.3334  0.1893 -0.1015
17202SOL    HW169216   9.809   1.725  11.164  0.3357 -0.0078  0.9823
17202SOL    HW269217   9.839   1.577  11.162  0.2886 -0.0225 -1.7951
17203SOL     OW69218   2.463   5.565  11.387  0.7796  0.4350 -0.1637
17203SOL    HW169219   2.541   5.615  11.411 -0.5428  2.4176  0.2121
17203SOL    HW269220   2.393   5.630  11.383 -0.6649 -1.1205 -1.5425
17204SOL     OW69221   4.214   3.937   5.872 -0.4112 -0.0587 -0.7493
17204SOL    HW169222   4.148   4.005   5.871 -1.2414 -0.8487 -0.6056
17204SOL    HW269223   4.166   3.856   5.889  0.2309 -1.0482 -3.2520
17205SOL     OW69224   6.570   3.067   6.467 -0.2467  0.8414 -0.2170
17205SOL    HW169225   6.585   3.162   6.469 -0.2870  0.8361  1.3179
17205SOL    HW269226   6.479   3.057   6.496  0.0507  0.2886  0.5574
17206SOL     OW69227  12.702   0.792   9.242 -0.3541  0.0126 -0.1090
17206SOL    HW169228  12.614   0.762   9.264 -0.6567  1.4966  0.8359
17206SOL    HW269229  12.759   0.742   9.301 -0.6365 -0.2931 -0.0879
17207SOL     OW69230  11.585   4.429  13.560  0.3068  0.0504  0.2230
17207SOL    HW169231  11.505   4.481  13.552  0.0575 -0.4580 -0.8386
17207SOL    HW269232  11.656   4.492  13.543  0.1454  0.4884  1.1107
17208SOL     OW69233  10.156  13.144  13.190  0.2996 -0.2879 -0.1422
17208SOL    HW169234  10.219  13.172  13.125  0.9057 -1.4939 -0.1013
17208SOL    HW269235  10.209  13.114  13.264 -0.3191 -0.8951  0.0705
17209SOL     OW69236  14.080   2.258   1.243 -0.0184 -0.4602 -0.0140
17209SOL    HW169237  14.033   2.194   1.190  0.3393 -0.5903 -0.1778
17209SOL    HW269238  14.073   2.225   1.333  1.0170 -1.2753 -0.2095
17210SOL     OW69239   2.550   5.261  11.845  0.1283 -0.4436  0.1026
17210SOL    HW169240   2.464   5.287  11.812  1.0048  1.4588 -0.8288
17210SOL    HW269241   2.531   5.199  11.916 -1.9615 -0.6604 -0.5893
17211SOL     OW69242   1.303   6.078   4.751 -0.0062  0.5057  0.0203
17211SOL    HW169243   1.250   6.010   4.711 -0.2262  2.0974 -2.7089
17211SOL    HW269244   1.265   6.092   4.837  0.2143 -2.8929  0.7845
17212SOL     OW69245  11.409   4.979   1.968 -0.3408  0.2131  0.2369
17212SOL    HW169246  11.378   5.064   1.999 -1.0136 -0.0031  0.1655
17212SOL    HW269247  11.330   4.933   1.942  0.0494 -0.3352  0.0181
17213SOL     OW69248   1.899   8.579  12.878 -0.0883  0.2633  0.0072
17213SOL    HW169249   1.884   8.499  12.828 -2.7629  1.3783 -1.1606
17213SOL    HW269250   1.914   8.646  12.812 -0.5438  1.1930  0.8306
17214SOL     OW69251   6.332  11.813   1.510  0.2377  0.0272 -0.6093
17214SOL    HW169252   6.366  11.821   1.599 -0.2292  1.1592 -0.5115
17214SOL    HW269253   6.242  11.846   1.516  0.4574  0.8701 -1.6573
17215SOL     OW69254   5.254   3.094  11.685 -0.0976 -0.2621  0.4898
17215SOL    HW169255   5.161   3.102  11.666 -0.0287 -0.1427  0.1996
17215SOL    HW269256   5.288   3.183  11.684  0.2343 -0.3801 -0.5395
17216SOL     OW69257   2.744   6.354   7.896 -0.7790 -0.3226 -0.6056
17216SOL    HW169258   2.690   6.405   7.956  1.4843 -0.0577  1.3833
17216SOL    HW269259   2.791   6.419   7.844 -1.0748 -0.4953 -1.0889
17217SOL     OW69260  11.226   8.973  13.065 -0.0785 -0.2687 -0.0537
17217SOL    HW169261  11.262   9.062  13.070  0.6616 -0.6009  0.9377
17217SOL    HW269262  11.138   8.980  13.102  0.0582  0.0136  0.2257
17218SOL     OW69263   4.333   8.908   3.176  0.2023 -0.1491 -0.4597
17218SOL    HW169264   4.402   8.974   3.181 -0.3547  0.3735  1.0489
17218SOL    HW269265   4.267   8.947   3.119  0.4242  0.0689 -0.5697
17219SOL     OW69266  12.496   1.759   0.182  0.0528 -0.1674 -0.0668
17219SOL    HW169267  12.429   1.817   0.146 -0.5619 -1.0373 -0.3635
17219SOL    HW269268  12.446   1.692   0.229  0.7840  0.1393  1.1994
17220SOL     OW69269  10.158   7.799   8.929 -0.1931  0.2461 -0.2696
17220SOL    HW169270  10.110   7.853   8.992  1.1033  0.0503  0.9495
17220SOL    HW269271  10.250   7.824   8.941  0.4449 -2.0508  0.2234
17221SOL     OW69272   4.726   5.855   3.463  0.1377  1.1633 -0.2956
17221SOL    HW169273   4.713   5.778   3.518  1.0346  0.5350 -0.9530
17221SOL    HW269274   4.691   5.927   3.516  0.4974  0.5066  0.8882
17222SOL     OW69275   3.382   2.941  10.178 -0.4069  0.0308 -0.1514
17222SOL    HW169276   3.378   2.934  10.083  0.9585 -0.1921 -0.2141
17222SOL    HW269277   3.349   3.029  10.197  0.5098  0.5598 -0.9404
17223SOL     OW69278  14.071   0.156   2.205 -0.4302 -0.1787  0.2142
17223SOL    HW169279  13.989   0.151   2.255  0.0323 -2.1451  0.8556
17223SOL    HW269280  14.046   0.199   2.123 -1.8319  0.3688  0.8907
17224SOL     OW69281   5.078  13.057   5.503  0.3367 -0.0042  0.2477
17224SOL    HW169282   5.071  13.116   5.427  0.3867 -1.5852 -1.0390
17224SOL    HW269283   5.010  13.087   5.563  0.2852  1.2824 -0.4160
17225SOL     OW69284   8.537   3.459   7.672  0.5186 -0.1361  0.2478
17225SOL    HW169285   8.451   3.485   7.704 -1.5672 -2.9993 -2.4338
17225SOL    HW269286   8.576   3.409   7.744 -1.9398 -2.3337  0.1927
17226SOL     OW69287  11.000   1.231   6.994  0.0424 -0.5464 -0.1222
17226SOL    HW169288  11.088   1.207   6.964  0.4516 -1.1351  1.4263
17226SOL    HW269289  11.011   1.317   7.034 -0.4140  0.0491 -1.2219
17227SOL     OW69290   0.104   9.121   7.373  0.2737  0.2018  0.0805
17227SOL    HW169291   0.033   9.184   7.359 -0.3135  0.0060  1.8845
17227SOL    HW269292   0.165   9.137   7.301 -1.2347  0.8751 -1.1027
17228SOL     OW69293   1.615   1.750  13.176 -0.7000 -0.0584 -0.0729
17228SOL    HW169294   1.626   1.844  13.165 -0.9399  0.2223  1.7562
17228SOL    HW269295   1.646   1.733  13.265 -0.7766 -1.6930 -0.3361
17229SOL     OW69296  11.928  10.245   5.477 -0.2762  0.2562 -0.0481
17229SOL    HW169297  11.994  10.273   5.540 -0.2763 -1.5347  0.8076
17229SOL    HW269298  11.875  10.323   5.461 -0.2794  0.7813  2.1905
17230SOL     OW69299  12.939   9.609   0.052  0.2715  0.3458  0.0814
17230SOL    HW169300  12.973   9.560  -0.023 -1.0677 -0.2260 -0.1850
17230SOL    HW269301  12.855   9.643   0.021 -0.1784  0.3216  1.2409
17231SOL     OW69302   7.643   7.513   4.267  0.0239 -0.4062  0.3681
17231SOL    HW169303   7.557   7.483   4.237  0.9057 -1.6404 -1.1140
17231SOL    HW269304   7.659   7.464   4.348  0.2087 -1.8004 -0.4878
17232SOL     OW69305  11.959  12.687   4.461 -1.0885 -0.2683 -0.5506
17232SOL    HW169306  12.038  12.653   4.419 -1.0435  1.3865 -1.9417
17232SOL    HW269307  11.889  12.664   4.400 -1.6614 -1.4823  0.5391
17233SOL     OW69308   3.913  10.670   0.414  0.5625 -0.2749 -0.1228
17233SOL    HW169309   3.860  10.639   0.488 -1.0488  0.6757 -0.8164
17233SOL    HW269310   4.000  10.684   0.451 -0.5114  1.4671  1.9973
17234SOL     OW69311   7.081   4.646   7.851  0.3676 -0.5173  0.2093
17234SOL    HW169312   7.140   4.686   7.914 -0.7428 -0.6206  1.3601
17234SOL    HW269313   7.005   4.705   7.848  0.6199 -0.2102 -1.4754
17235SOL     OW69314   7.604   6.078   1.403  0.3679  0.1547 -0.1189
17235SOL    HW169315   7.686   6.045   1.365  1.4757  2.7098 -0.2117
17235SOL    HW269316   7.606   6.050   1.494  1.7453  0.7692  0.0659
17236SOL     OW69317   7.890  13.940  12.708 -0.0903 -0.0062 -0.2707
17236SOL    HW169318   7.850  14.018  12.746 -0.5343 -0.8126  0.9772
17236SOL    HW269319   7.979  13.938  12.744 -0.5237 -0.7913  0.8286
17237SOL     OW69320   5.409   3.477   2.260 -0.4861 -0.6083  0.6128
17237SOL    HW169321   5.396   3.524   2.342 -2.8744 -0.5743  0.2866
17237SOL    HW269322   5.463   3.401   2.284  0.5202  0.4361  1.7853
17238SOL     OW69323   6.550   2.970   2.960  0.8284  0.3433  0.5318
17238SOL    HW169324   6.616   3.039   2.960  0.5565  0.6456 -1.0754
17238SOL    HW269325   6.468   3.015   2.937  0.7583 -0.5542 -1.1493
17239SOL     OW69326   7.927   8.399   1.506 -0.1922 -0.4734  0.2661
17239SOL    HW169327   7.947   8.487   1.474 -0.0787  0.4759  2.7461
17239SOL    HW269328   7.982   8.342   1.453  0.4972  1.0364 -0.7197
17240SOL     OW69329  14.072   1.468   8.280 -0.0327  0.4027 -0.0473
17240SOL    HW169330  14.119   1.545   8.248  1.2204 -1.1925 -2.2998
17240SOL    HW269331  14.139   1.413   8.320 -1.0497  0.7583  2.3908
17241SOL     OW69332   0.277   7.674  14.068 -0.0211 -0.3131 -0.2904
17241SOL    HW169333   0.187   7.662  14.037 -0.7345  0.8472  1.1840
17241SOL    HW269334   0.311   7.748  14.018  0.1024 -0.7115 -0.8039
17242SOL     OW69335   7.349   2.114  10.341 -0.5070  0.1653  0.9288
17242SOL    HW169336   7.442   2.098  10.328 -0.0297  1.6924  2.2080
17242SOL    HW269337   7.316   2.032  10.380  0.0751 -0.7141 -0.3579
17243SOL     OW69338   3.511   5.281   2.986  0.6395  0.6386  0.2412
17243SOL    HW169339   3.587   5.281   3.045 -0.1050 -1.8052  1.3523
17243SOL    HW269340   3.467   5.364   3.002  1.6628  0.9708  1.4888
17244SOL     OW69341   8.400   6.021   4.149 -0.3006 -0.9181  0.1972
17244SOL    HW169342   8.362   6.006   4.235 -0.1928 -0.8185  0.2614
17244SOL    HW269343   8.490   6.047   4.166 -1.0990  2.1636  0.2215
17245SOL     OW69344   1.295   6.851  11.583  0.3981  0.0170  0.2683
17245SOL    HW169345   1.345   6.895  11.652 -0.8484 -1.5867  2.3025
17245SOL    HW269346   1.205   6.848  11.616 -0.3102 -0.5462 -1.5734
17246SOL     OW69347   9.876  12.298  13.223  0.4294  0.6155  0.5742
17246SOL    HW169348   9.882  12.386  13.260  0.1048  0.9337 -0.1238
17246SOL    HW269349   9.833  12.246  13.292 -0.6805  1.3331  0.4431
17247SOL     OW69350  11.191   3.407   1.263 -0.2556 -0.4860 -0.1357
17247SOL    HW169351  11.284   3.386   1.260 -0.2643 -0.4227 -1.2969
17247SOL    HW269352  11.147   3.325   1.238 -0.6109 -0.9890  1.9502
17248SOL     OW69353   3.875  13.699   3.630  0.1216  0.3593  0.2826
17248SOL    HW169354   3.960  13.665   3.657 -0.0178  0.1818  0.5024
17248SOL    HW269355   3.815  13.671   3.699 -0.3252 -0.4790 -0.4261
17249SOL     OW69356   9.977  13.320  13.965  0.1616  0.1598  0.0670
17249SOL    HW169357   9.996  13.236  13.922  0.4555  0.5184 -0.5136
17249SOL    HW269358  10.057  13.341  14.013 -0.2725 -0.3899  1.0567
17250SOL     OW69359   5.510   1.884   0.249 -0.2806 -0.4529  0.1518
17250SOL    HW169360   5.506   1.844   0.162  0.2477  1.0476 -0.5945
17250SOL    HW269361   5.444   1.953   0.246  2.3077  2.1502 -0.4489
17251SOL     OW69362   6.144   4.952   3.401  0.6838  0.5223 -0.0637
17251SOL    HW169363   6.116   4.870   3.441  1.5627  0.6878  0.9252
17251SOL    HW269364   6.221   4.929   3.348  0.1675  0.4945 -0.8193
17252SOL     OW69365  10.053   9.949   0.835  0.0888 -0.1878 -0.6745
17252SOL    HW169366   9.973   9.927   0.882  1.3897 -2.2065  0.7639
17252SOL    HW269367  10.060  10.045   0.843 -1.0159 -0.2097  1.1348
17253SOL     OW69368  11.587   4.338   4.519  0.1740  0.2036  0.0394
17253SOL    HW169369  11.540   4.256   4.534  0.7215 -0.2440 -0.6170
17253SOL    HW269370  11.591   4.380   4.605  2.0698 -1.6322  0.9431
17254SOL     OW69371  11.833   4.745   3.263  0.4396 -0.3281 -0.0552
17254SOL    HW169372  11.897   4.677   3.242 -0.0491 -0.5417 -0.9155
17254SOL    HW269373  11.787   4.761   3.181  0.0749  0.5561  0.3031
17255SOL     OW69374  13.235  10.645  12.182  0.5555  0.6899 -0.4248
17255SOL    HW169375  13.261  10.576  12.242  0.7212  0.7805 -0.3930
17255SOL    HW269376  13.315  10.694  12.166  0.1860  1.6781  0.5917
17256SOL     OW69377   2.810  14.051   8.956  0.3282  0.1831  0.2995
17256SOL    HW169378   2.821  14.055   9.051 -0.5760 -1.8674  0.5379
17256SOL    HW269379   2.717  14.066   8.941 -0.6745 -4.4464  0.3050
17257SOL     OW69380  13.161   6.374   3.661 -0.1909 -0.0529  0.7051
17257SOL    HW169381  13.158   6.386   3.566 -1.0969  0.7329  0.8147
17257SOL    HW269382  13.144   6.281   3.675  1.0444 -0.3910  0.0579
17258SOL     OW69383   5.912   3.595   3.931  0.3135  0.1005 -0.0765
17258SOL    HW169384   5.850   3.555   3.991  2.0201 -1.5441  0.7112
17258SOL    HW269385   5.997   3.583   3.974  1.0574  4.4381  0.1368
17259SOL     OW69386   9.180  13.347   8.830 -0.0008  0.0400 -0.8088
17259SOL    HW169387   9.096  13.302   8.840  2.0806 -4.2767 -0.3589
17259SOL    HW269388   9.191  13.395   8.912 -1.1350 -1.0427  0.0234
17260SOL     OW69389  11.519   0.033   5.791  0.1320  0.1495  0.1928
17260SOL    HW169390  11.511  -0.040   5.730 -1.1787  0.1505  0.3512
17260SOL    HW269391  11.554   0.104   5.737 -0.2788 -0.0731 -0.3813
17261SOL     OW69392   7.340  10.527   9.147 -0.0091 -0.1042  0.4241
17261SOL    HW169393   7.346  10.585   9.071 -1.0486 -0.2378  0.2168
17261SOL    HW269394   7.323  10.585   9.221 -1.5299 -0.1461  0.1425
17262SOL     OW69395   3.159   9.791   5.369 -0.0321 -0.3160 -0.1605
17262SOL    HW169396   3.185   9.845   5.444  0.0368 -0.4187 -0.1109
17262SOL    HW269397   3.093   9.844   5.324  0.2152 -0.0872 -0.2502
17263SOL     OW69398  14.081   1.722   8.907 -0.1380 -0.0318  0.5750
17263SOL    HW169399  14.093   1.717   8.813 -3.5534 -0.1184  0.0485
17263SOL    HW269400  14.128   1.802   8.933  1.0148 -0.1112 -1.1114
17264SOL     OW69401   3.071   4.825   7.602  0.3913  0.2605  0.1189
17264SOL    HW169402   3.023   4.838   7.520  0.4068  1.7233  0.3170
17264SOL    HW269403   3.162   4.843   7.580  0.4707  0.1436  0.3475
17265SOL     OW69404  13.962   2.522   5.967  0.1339 -0.2690 -0.5734
17265SOL    HW169405  13.932   2.591   6.027  0.3622  0.0684 -0.8403
17265SOL    HW269406  13.939   2.555   5.880  0.8308 -0.2267 -0.7467
17266SOL     OW69407  12.558   9.702   1.585 -0.3837 -0.4315  0.3699
17266SOL    HW169408  12.608   9.683   1.664  0.2715 -0.2334  0.0079
17266SOL    HW269409  12.583   9.792   1.562 -0.1546 -0.6778 -0.3646
17267SOL     OW69410   3.404  14.007   0.900 -0.5455 -0.2285  0.4972
17267SOL    HW169411   3.467  13.959   0.846 -1.4188 -2.3866  1.2760
17267SOL    HW269412   3.407  14.097   0.867 -1.2209 -1.4343 -3.3443
17268SOL     OW69413  12.701  12.030   6.800 -0.2877 -0.0827 -0.1291
17268SOL    HW169414  12.635  11.962   6.795  0.4968 -0.8805  0.2503
17268SOL    HW269415  12.765  12.006   6.733  0.6817 -0.4790  0.9172
17269SOL     OW69416   6.214   8.917   6.063  0.3352 -0.2910 -0.6336
17269SOL    HW169417   6.239   9.007   6.040 -1.8389  0.9174  1.2903
17269SOL    HW269418   6.165   8.886   5.987 -1.1276  1.1713 -0.3432
17270SOL     OW69419   2.470   8.979  13.842 -0.0046  0.0087  0.7671
17270SOL    HW169420   2.407   9.014  13.778  0.4391  1.6776  1.1844
17270SOL    HW269421   2.451   8.885  13.846 -2.6603  0.4883  1.0993
17271SOL     OW69422   0.191  12.963   7.831  0.1415  0.5305 -0.9137
17271SOL    HW169423   0.251  12.890   7.843 -0.2647  0.1517 -1.1549
17271SOL    HW269424   0.134  12.960   7.909 -1.6334 -1.1048 -2.1801
17272SOL     OW69425   5.458  10.964  13.977 -0.6308 -0.0400 -0.0169
17272SOL    HW169426   5.446  10.925  14.063  1.9225  1.4292  1.1166
17272SOL    HW269427   5.371  10.991  13.950 -1.5260 -0.7793  1.9632
17273SOL     OW69428   6.920   9.048   2.086 -0.3798 -0.2103  0.3893
17273SOL    HW169429   6.949   9.081   2.172 -1.4478 -0.1412  0.7361
17273SOL    HW269430   6.961   8.962   2.078 -0.4045 -0.2891  1.0494
17274SOL     OW69431   1.696  13.927   9.807 -0.1613 -0.6532  0.1736
17274SOL    HW169432   1.779  13.914   9.852 -0.8200 -1.0990  1.2876
17274SOL    HW269433   1.629  13.899   9.870 -1.2667  1.3049 -0.0628
17275SOL     OW69434   7.829   5.279   9.876  0.0351  0.3729 -0.5433
17275SOL    HW169435   7.781   5.359   9.895 -0.3772  0.0334 -0.1127
17275SOL    HW269436   7.765   5.222   9.833 -0.5108 -0.7549  1.6285
17276SOL     OW69437   1.101   0.386   9.298  0.7686  0.5435  0.3616
17276SOL    HW169438   1.066   0.442   9.368 -2.4730  0.2124 -0.8103
17276SOL    HW269439   1.101   0.298   9.335 -2.8745  0.0329 -0.4595
17277SOL     OW69440  13.623   8.363   5.486 -0.4584  0.3693 -0.4907
17277SOL    HW169441  13.622   8.459   5.483 -3.0100  0.4181  0.2471
17277SOL    HW269442  13.541   8.339   5.527  1.5754 -2.0953  2.5831
17278SOL     OW69443   0.521   2.972   2.057  0.0729 -0.0608  0.2229
17278SOL    HW169444   0.456   2.924   2.108 -1.0370  0.6853 -0.4408
17278SOL    HW269445   0.604   2.952   2.100 -0.8318  0.8451  2.5979
17279SOL     OW69446   6.255  10.879   4.809 -0.0625 -0.3205 -0.4275
17279SOL    HW169447   6.213  10.830   4.880  0.2499  1.2032  0.8622
17279SOL    HW269448   6.328  10.823   4.780 -0.4086 -1.1078  0.2000
17280SOL     OW69449  13.226  12.682   3.662 -0.1244 -0.1539  0.1050
17280SOL    HW169450  13.207  12.638   3.579  1.5885 -2.1939  0.6963
17280SOL    HW269451  13.311  12.646   3.689  0.0878  1.5880  2.0057
17281SOL     OW69452   8.193   3.151  12.081 -0.3050  0.1085 -0.8427
17281SOL    HW169453   8.266   3.212  12.067 -0.3050  0.2619 -0.2187
17281SOL    HW269454   8.205   3.083  12.014  0.4468  0.0960 -0.7029
17282SOL     OW69455  13.558   8.942   9.334  0.6112  0.4014  0.1884
17282SOL    HW169456  13.654   8.945   9.332  0.5773  1.9399 -0.9740
17282SOL    HW269457  13.531   8.949   9.242 -0.6266 -1.6179  0.3344
17283SOL     OW69458   5.485  13.771  13.067 -0.3871  0.5499  0.3592
17283SOL    HW169459   5.537  13.723  13.003 -0.3314  0.6790  0.3075
17283SOL    HW269460   5.456  13.704  13.130 -2.8699 -0.1399 -1.3454
17284SOL     OW69461   8.455   8.113  10.088  0.1709 -0.2167 -0.2017
17284SOL    HW169462   8.429   8.152  10.004 -2.0554 -0.7645  0.1828
17284SOL    HW269463   8.511   8.040  10.063  2.0472  1.4070 -1.0425
17285SOL     OW69464  11.041   9.545  12.101  0.1448  0.5406 -0.8477
17285SOL    HW169465  10.965   9.509  12.149  0.8322 -0.7556 -0.6740
17285SOL    HW269466  11.103   9.472  12.098  2.5021  2.2874  1.2907
17286SOL     OW69467   0.345  11.470  13.069  0.3555 -0.4091  0.0975
17286SOL    HW169468   0.279  11.533  13.041  1.9229  0.7684 -1.1294
17286SOL    HW269469   0.368  11.497  13.158  0.9479  0.7221 -0.3892
17287SOL     OW69470  13.393   2.888   0.892 -0.1389 -0.1705  0.0082
17287SOL    HW169471  13.461   2.948   0.858  0.1688 -0.2203  0.5206
17287SOL    HW269472  13.330   2.946   0.935 -0.7219 -0.0740 -0.9471
17288SOL     OW69473  10.277   8.753   3.072  0.7601 -0.2672  0.8861
17288SOL    HW169474  10.243   8.832   3.029  2.7157 -0.8895 -2.0473
17288SOL    HW269475  10.372   8.758   3.060  0.9570 -2.9170  0.8868
17289SOL     OW69476   7.163   6.183  13.349  0.4266  0.0269 -0.0947
17289SOL    HW169477   7.198   6.239  13.280  1.3836 -0.3689  0.0496
17289SOL    HW269478   7.235   6.174  13.412 -0.8128  1.4497  1.6546
17290SOL     OW69479  14.006   5.713   5.533  0.3395  0.5316  0.2852
17290SOL    HW169480  14.092   5.723   5.493  0.2295  0.2049 -0.0347
17290SOL    HW269481  14.025   5.680   5.621  0.4837 -1.0842 -0.3225
17291SOL     OW69482  13.866   3.580   1.379 -0.5295 -0.1447 -0.1270
17291SOL    HW169483  13.864   3.631   1.298  1.2685  0.8885  0.4429
17291SOL    HW269484  13.856   3.645   1.449 -1.1740 -0.9250  0.5361
17292SOL     OW69485   0.783  14.085   7.194 -0.4953 -0.2474 -0.0399
17292SOL    HW169486   0.844  14.090   7.120  0.7225  1.0733  0.9811
17292SOL    HW269487   0.835  14.116   7.268 -1.6031 -1.7807  1.4279
17293SOL     OW69488   0.339  12.925   2.787  0.3266 -0.3957 -0.3474
17293SOL    HW169489   0.318  13.018   2.798 -1.1847 -0.6147 -1.0515
17293SOL    HW269490   0.324  12.909   2.694  0.4979 -1.3685 -0.2155
17294SOL     OW69491   1.500  10.656  13.925  0.0216  0.0386 -0.2233
17294SOL    HW169492   1.516  10.654  13.831  0.2587  0.9617 -0.2200
17294SOL    HW269493   1.405  10.661  13.934 -0.0239 -0.4755 -0.3946
17295SOL     OW69494   0.999  11.093  11.865 -0.3887 -0.6869 -0.0969
17295SOL    HW169495   1.082  11.046  11.856  0.1728  0.2880 -0.1636
17295SOL    HW269496   0.939  11.048  11.806  0.6987 -0.0743 -1.7293
17296SOL     OW69497   5.267  11.361  12.963 -0.6179 -0.1551 -0.1391
17296SOL    HW169498   5.191  11.395  12.915 -0.5009 -0.6992 -0.7236
17296SOL    HW269499   5.229  11.315  13.039 -0.9032 -0.7949 -0.6605
17297SOL     OW69500  11.540   8.068   4.956 -0.4685 -0.1257  0.3474
17297SOL    HW169501  11.532   8.052   4.862 -1.6800 -0.0341  0.4206
17297SOL    HW269502  11.588   8.150   4.963 -1.0030  0.2475 -0.2185
17298SOL     OW69503   6.111  11.591   9.948  0.0812 -0.0669 -0.0607
17298SOL    HW169504   6.175  11.528   9.918  0.0111 -0.7832  1.2031
17298SOL    HW269505   6.134  11.673   9.904  0.0180 -0.9965 -1.9331
17299SOL     OW69506   5.588  13.940  12.644 -0.1005  0.2113 -0.3940
17299SOL    HW169507   5.539  13.871  12.599 -0.4791  2.4642 -3.7933
17299SOL    HW269508   5.598  13.908  12.733 -3.1602 -2.7249 -0.9033
17300SOL     OW69509   3.867   4.034   6.527 -0.2744 -0.1616  0.2982
17300SOL    HW169510   3.895   4.015   6.438  3.1563  0.9175  1.0072
17300SOL    HW269511   3.775   4.061   6.518 -0.5803 -1.7870 -2.6083
17301SOL     OW69512  11.271   0.241  10.872 -0.1142 -0.1552 -0.1944
17301SOL    HW169513  11.248   0.309  10.934 -0.8436 -0.4314 -0.1438
17301SOL    HW269514  11.322   0.285  10.804  1.3134  0.0145  0.9445
17302SOL     OW69515   3.656   3.169   8.917 -0.3218  0.0032  0.0828
17302SOL    HW169516   3.628   3.252   8.878 -0.3412  0.3208  0.7517
17302SOL    HW269517   3.710   3.128   8.850  0.3741  0.9421  0.0529
17303SOL     OW69518   2.935  13.813   1.856 -0.2556  0.3057  0.4954
17303SOL    HW169519   2.927  13.848   1.945 -0.8518  0.2514  0.4664
17303SOL    HW269520   2.858  13.757   1.845  0.1204 -0.1569  0.1535
17304SOL     OW69521   4.221   1.457  12.607 -0.4177  0.0717 -0.1934
17304SOL    HW169522   4.158   1.512  12.654 -0.9990  0.0467 -0.9219
17304SOL    HW269523   4.306   1.498  12.622 -0.5035 -0.2324  1.3218
17305SOL     OW69524  11.909  11.508  12.988 -0.2101  0.0791 -0.1040
17305SOL    HW169525  11.946  11.552  13.064 -0.9997  1.1930 -0.3419
17305SOL    HW269526  11.837  11.564  12.960 -1.2600 -1.3607 -0.4328
17306SOL     OW69527   8.570   7.215   4.052  0.9337 -0.5018  0.0687
17306SOL    HW169528   8.531   7.128   4.060  0.5817 -0.4949 -1.2852
17306SOL    HW269529   8.504   7.267   4.007  0.3814  1.0223  2.4576
17307SOL     OW69530   8.352   8.373  12.320  0.1477  0.6669 -0.5365
17307SOL    HW169531   8.259   8.373  12.345  0.3056 -1.2434  0.2074
17307SOL    HW269532   8.384   8.287  12.348  1.9383  0.9524 -1.5799
17308SOL     OW69533   6.432   9.082  12.631 -0.4303 -0.2801  0.2203
17308SOL    HW169534   6.349   9.129  12.627 -0.1828  0.2902  1.2965
17308SOL    HW269535   6.487   9.124  12.564 -0.3444  0.7362  0.9016
17309SOL     OW69536   5.011   3.054   5.758 -0.0291 -0.1698  0.1385
17309SOL    HW169537   4.945   3.119   5.783  0.0346 -0.3403  0.7752
17309SOL    HW269538   4.961   2.974   5.745  0.0907 -0.3888  0.9856
17310SOL     OW69539   7.318   5.420   4.155  0.5537  0.1516  0.2943
17310SOL    HW169540   7.286   5.422   4.065 -0.5760 -0.2165  0.6761
17310SOL    HW269541   7.383   5.490   4.158 -0.1897  0.9133 -0.5162
17311SOL     OW69542  10.810   5.497  13.231  0.0125  0.3649 -0.1417
17311SOL    HW169543  10.876   5.562  13.208  0.2090 -0.3747 -1.8261
17311SOL    HW269544  10.729   5.546  13.243  0.4497  1.0603 -0.0280
17312SOL     OW69545   8.110   7.628  13.072  0.1840 -0.3847 -0.4109
17312SOL    HW169546   8.081   7.705  13.023  1.4671  0.7196  0.4595
17312SOL    HW269547   8.203   7.618  13.049  0.5457 -0.4457  0.9618
17313SOL     OW69548  11.273   9.112   4.326  0.8057 -0.5100 -0.6338
17313SOL    HW169549  11.366   9.121   4.346  0.5589 -0.8513  0.8123
17313SOL    HW269550  11.238   9.201   4.337  0.9550 -0.3769 -1.2017
17314SOL     OW69551  13.255   4.744  10.851 -0.0800  0.8297 -0.1401
17314SOL    HW169552  13.166   4.740  10.887  0.0657 -1.2244  0.0734
17314SOL    HW269553  13.242   4.746  10.756 -0.3538 -0.6806 -0.1494
17315SOL     OW69554  12.317  10.229   2.906 -0.0212  0.1261 -0.2701
17315SOL    HW169555  12.380  10.294   2.936 -0.2715  0.0957  0.3422
17315SOL    HW269556  12.255  10.220   2.979 -0.0546 -0.7156 -0.3888
17316SOL     OW69557   7.818   6.825  14.038  0.1439 -0.1996  0.0460
17316SOL    HW169558   7.845   6.837  13.947 -0.5141 -4.5180 -0.9514
17316SOL    HW269559   7.731   6.863  14.043  0.2791  0.2746 -1.0719
17317SOL     OW69560   0.794  10.893   5.955 -0.0893 -0.0576 -0.2453
17317SOL    HW169561   0.720  10.837   5.981  0.1282  0.2652  1.1666
17317SOL    HW269562   0.865  10.832   5.938 -0.6622 -0.3756 -1.6411
17318SOL     OW69563  13.539   8.180   6.183  0.2533 -0.3259 -0.4360
17318SOL    HW169564  13.451   8.145   6.170  0.5311 -2.1650  2.0206
17318SOL    HW269565  13.583   8.115   6.237  2.7374  1.1574 -0.5466
17319SOL     OW69566   4.735   6.045   4.662 -0.0615 -0.0069 -0.0717
17319SOL    HW169567   4.645   6.076   4.669  0.1262  0.5472 -0.0193
17319SOL    HW269568   4.780   6.084   4.737  0.8080  1.8485 -1.4674
17320SOL     OW69569   1.868  10.322   3.372  0.5277  0.1188 -0.5608
17320SOL    HW169570   1.958  10.319   3.404 -0.7795 -0.7974  3.6707
17320SOL    HW269571   1.841  10.412   3.385  0.2975 -0.0296  0.0221
17321SOL     OW69572  11.958   8.497   9.150 -0.5372  0.0490  0.3789
17321SOL    HW169573  11.972   8.579   9.102  0.0797 -0.9062 -1.1414
17321SOL    HW269574  11.868   8.473   9.130 -0.5373  0.0742  0.3489
17322SOL     OW69575   8.748   9.835   5.881 -0.0745  0.7610  0.0432
17322SOL    HW169576   8.718   9.926   5.879 -2.1439  0.1248 -1.2359
17322SOL    HW269577   8.806   9.828   5.805 -0.0499  0.9641  0.0409
17323SOL     OW69578   1.403  10.972   6.358 -0.3563 -0.5366  0.5480
17323SOL    HW169579   1.390  11.034   6.429 -1.6646  0.4598 -0.5264
17323SOL    HW269580   1.497  10.950   6.363 -0.1807  0.3834  1.8424
17324SOL     OW69581   9.404   7.731  11.708 -0.4797 -0.1371 -0.0047
17324SOL    HW169582   9.333   7.790  11.682 -0.6024 -0.0208  0.5807
17324SOL    HW269583   9.361   7.662  11.758 -0.2739 -0.4825 -0.2949
17325SOL     OW69584   4.649  11.558   0.084 -0.4379 -0.2125 -0.0356
17325SOL    HW169585   4.591  11.484   0.102 -0.4394 -0.3211 -0.4682
17325SOL    HW269586   4.652  11.606   0.166  1.4738 -1.9949  1.0286
17326SOL     OW69587   5.505   4.590   4.671 -0.2584  0.1818  0.6292
17326SOL    HW169588   5.488   4.512   4.722 -0.3178  0.1394  0.5452
17326SOL    HW269589   5.464   4.661   4.720  0.2145  0.2342  0.9570
17327SOL     OW69590  11.667   0.857   7.232  0.0164 -0.0126 -0.3857
17327SOL    HW169591  11.734   0.924   7.247  0.4185 -0.6807  0.9307
17327SOL    HW269592  11.585   0.905   7.224  0.3152  0.6546  0.4326
17328SOL     OW69593   5.917  14.007  11.570 -0.7834  0.1121  0.0269
17328SOL    HW169594   5.856  13.945  11.612 -0.4007 -0.2651  0.0322
17328SOL    HW269595   5.911  14.086  11.622 -1.9356  0.3825 -0.4875
17329SOL     OW69596  11.960   3.266  13.289  0.1375  0.4545 -0.0523
17329SOL    HW169597  11.972   3.357  13.316  0.8780  0.2169  0.4813
17329SOL    HW269598  12.048   3.229  13.292  0.2801  0.4055 -2.8933
17330SOL     OW69599   7.287   0.056  12.624  0.7302  0.1090  0.6933
17330SOL    HW169600   7.197   0.079  12.647 -0.0678 -1.8685 -0.2694
17330SOL    HW269601   7.297   0.086  12.534  1.1122  0.4641  0.8483
17331SOL     OW69602   5.035   0.607   5.208 -0.3185 -0.3007 -0.4766
17331SOL    HW169603   5.020   0.684   5.263  0.1337  0.0381 -0.8244
17331SOL    HW269604   5.109   0.631   5.153 -0.0812 -1.0403 -0.4884
17332SOL     OW69605   3.297  13.853   8.666  0.0564 -0.2229 -0.5554
17332SOL    HW169606   3.247  13.934   8.680  0.9229 -0.0488  2.4662
17332SOL    HW269607   3.249  13.787   8.715  0.1444 -1.2355 -1.8004
17333SOL     OW69608   3.255   3.568  12.470 -0.0805 -0.3418  0.2371
17333SOL    HW169609   3.274   3.483  12.430  1.7091 -0.1304  0.5449
17333SOL    HW269610   3.161   3.581  12.455  0.2010 -0.8967 -2.6824
17334SOL     OW69611   9.546   7.138   1.351 -0.2729  0.0107 -0.0694
17334SOL    HW169612   9.570   7.082   1.277 -0.8715 -0.1522 -0.1473
17334SOL    HW269613   9.464   7.179   1.324 -0.9013 -0.6344  0.8116
17335SOL     OW69614   0.426   0.302  13.851  0.0161 -0.7781  0.1901
17335SOL    HW169615   0.367   0.252  13.795 -0.3731  1.2396 -1.2983
17335SOL    HW269616   0.397   0.282  13.940 -0.6800 -2.4697 -0.3746
17336SOL     OW69617   2.969   6.616  10.404 -0.2004  0.5485 -0.1191
17336SOL    HW169618   2.907   6.557  10.448  0.4258  0.3332  0.4958
17336SOL    HW269619   2.983   6.687  10.466  0.6841  0.2489  0.0441
17337SOL     OW69620   2.937   8.058  13.730  0.2868 -0.0180 -0.4576
17337SOL    HW169621   2.994   8.082  13.658  0.0183  2.7593  0.1488
17337SOL    HW269622   2.887   8.137  13.749 -0.3245 -0.9152  2.1616
17338SOL     OW69623   9.302   1.250   8.147  0.4449  0.8872  0.0949
17338SOL    HW169624   9.340   1.172   8.105  0.1947  0.8482 -0.0576
17338SOL    HW269625   9.249   1.214   8.219  0.6040  0.9363  0.2381
17339SOL     OW69626   0.256  10.251   3.137  0.4163 -0.0758 -0.1822
17339SOL    HW169627   0.334  10.207   3.169  1.4420 -1.0416 -3.6337
17339SOL    HW269628   0.189  10.183   3.132 -0.1548  0.3634  1.0686
17340SOL     OW69629   0.381  10.710  10.877 -0.5178 -0.4683 -0.0755
17340SOL    HW169630   0.341  10.686  10.793  1.0546 -0.5469 -0.8464
17340SOL    HW269631   0.323  10.673  10.943 -0.2911 -2.9702 -1.1756
17341SOL     OW69632  11.793   7.607   3.395  0.1987 -0.4805 -0.1191
17341SOL    HW169633  11.838   7.677   3.349 -0.7427 -1.0369 -1.9793
17341SOL    HW269634  11.712   7.593   3.345 -0.5998 -1.5226  1.3767
17342SOL     OW69635  12.806   8.936   3.174  0.3166 -0.3451 -0.0632
17342SOL    HW169636  12.829   9.010   3.231 -1.0175 -0.1407  0.2502
17342SOL    HW269637  12.736   8.890   3.222 -0.3439 -0.5798 -1.2079
17343SOL     OW69638  11.712  13.624   3.183 -0.1216 -0.0437 -0.3683
17343SOL    HW169639  11.717  13.718   3.165  2.6700  0.1786  0.9382
17343SOL    HW269640  11.726  13.617   3.278 -0.5174 -1.7661 -0.4004
17344SOL     OW69641  13.865   3.238  10.913 -0.3862  0.6097  0.1115
17344SOL    HW169642  13.871   3.154  10.958  1.4999 -0.2637 -1.6146
17344SOL    HW269643  13.882   3.304  10.981  1.2153 -0.5822  0.9327
17345SOL     OW69644   8.526   2.226   9.561  0.3938 -0.1133 -0.0334
17345SOL    HW169645   8.598   2.255   9.505  0.3432  2.5159  1.0879
17345SOL    HW269646   8.569   2.187   9.638  0.5904  0.1406 -0.0125
17346SOL     OW69647   0.101   3.587   9.481 -0.0664 -0.1297 -0.3080
17346SOL    HW169648   0.059   3.626   9.404 -0.4678 -0.1104 -0.0806
17346SOL    HW269649   0.111   3.494   9.457  0.8875  0.0954 -0.8467
17347SOL     OW69650   4.898  11.698  11.860  0.4724  0.1945  0.1432
17347SOL    HW169651   4.854  11.749  11.928  0.3745  0.2448  0.0421
17347SOL    HW269652   4.890  11.751  11.781 -2.3381 -1.3128 -0.7257
17348SOL     OW69653   0.482   9.056   3.877  0.3249 -0.0015  0.2798
17348SOL    HW169654   0.504   9.124   3.940  0.2990 -0.0729  0.3661
17348SOL    HW269655   0.447   9.104   3.802  0.4487  0.0897  0.2797
17349SOL     OW69656  12.926   8.511  13.279  0.1892  0.8498 -0.0653
17349SOL    HW169657  12.857   8.472  13.225 -0.4649  1.7892  0.0770
17349SOL    HW269658  12.938   8.449  13.351  1.4788 -0.7151 -1.5530
17350SOL     OW69659  13.939   7.097   4.261 -0.1275 -0.0168 -0.3184
17350SOL    HW169660  13.977   7.013   4.234 -0.2413  0.5433 -2.4198
17350SOL    HW269661  13.999   7.130   4.328  0.0376 -1.6465  0.3842
17351SOL     OW69662   3.355   9.973   4.200  0.5055 -0.2054 -0.3651
17351SOL    HW169663   3.284  10.010   4.147 -0.4526 -0.8519  0.4357
17351SOL    HW269664   3.339   9.878   4.199 -0.7627 -0.1322  2.7091
17352SOL     OW69665   1.415   3.041   8.724  0.3188 -0.0721  0.9816
17352SOL    HW169666   1.476   3.070   8.791  1.3485 -0.4913  0.2569
17352SOL    HW269667   1.399   2.949   8.744  0.6191 -0.1953  0.6638
17353SOL     OW69668   9.336   4.605   5.075  0.0289  0.3312 -0.8038
17353SOL    HW169669   9.360   4.694   5.100 -0.0734  0.5399 -1.4187
17353SOL    HW269670   9.243   4.612   5.050  0.0883  0.1115 -1.0974
17354SOL     OW69671  12.384   6.610   0.718  0.2028 -0.1997 -0.6440
17354SOL    HW169672  12.335   6.544   0.669  2.4486 -0.8722 -2.1584
17354SOL    HW269673  12.397   6.681   0.656  3.5929 -1.3036 -1.3891
17355SOL     OW69674   0.269   3.070   1.082 -0.4695 -0.5841 -0.1454
17355SOL    HW169675   0.357   3.089   1.115 -0.1446 -0.9413 -0.7909
17355SOL    HW269676   0.236   3.002   1.142 -0.3266 -0.4181  0.1254
17356SOL     OW69677  13.007  11.771   1.566  0.1962 -0.3290 -0.5071
17356SOL    HW169678  12.969  11.856   1.591 -0.4401 -0.5703 -0.6226
17356SOL    HW269679  12.947  11.706   1.605  0.7470 -0.7274 -0.3135
17357SOL     OW69680   4.327  11.910  10.995  0.2494 -0.1322 -0.5884
17357SOL    HW169681   4.336  11.824  11.037  0.8187 -0.1746 -0.7873
17357SOL    HW269682   4.263  11.896  10.925 -0.1568 -0.2331 -0.2041
17358SOL     OW69683   7.628   3.972   7.456  0.0794  0.0447  0.2556
17358SOL    HW169684   7.646   4.064   7.476 -0.9538  0.5779 -1.1651
17358SOL    HW269685   7.583   3.939   7.534 -2.0437  1.5259 -0.2553
17359SOL     OW69686   0.700   0.328  10.152  0.1293  0.2005  0.3211
17359SOL    HW169687   0.638   0.303  10.084  0.1764 -0.2430  0.4404
17359SOL    HW269688   0.708   0.423  10.143 -0.4222  0.2382  0.1814
17360SOL     OW69689   3.942   2.517   8.833 -0.1682  0.2232 -0.8101
17360SOL    HW169690   4.015   2.455   8.838  0.1457  0.6185 -0.4796
17360SOL    HW269691   3.943   2.563   8.917 -2.5951 -1.7748  0.4648
17361SOL     OW69692   8.399  12.023   1.957 -0.1632 -0.0895  0.5710
17361SOL    HW169693   8.455  11.950   1.985  0.2166  0.2697  0.7584
17361SOL    HW269694   8.322  12.018   2.013 -0.2606 -0.5090  0.4029
17362SOL     OW69695   5.189   3.831  12.168 -0.6925  0.1484  0.0729
17362SOL    HW169696   5.173   3.786  12.251 -1.7280 -0.9442 -0.6786
17362SOL    HW269697   5.178   3.924  12.188  0.1710 -0.0124  1.3815
17363SOL     OW69698   5.331   1.328   2.970 -0.3043 -0.0188 -0.2810
17363SOL    HW169699   5.356   1.348   3.060 -0.5119 -0.8972 -0.0269
17363SOL    HW269700   5.381   1.391   2.918  1.8700 -1.2022  0.2641
17364SOL     OW69701   1.253   2.357  12.720  0.0430  0.1212 -0.1774
17364SOL    HW169702   1.249   2.317  12.807 -1.2410 -0.3920 -0.4577
17364SOL    HW269703   1.330   2.317  12.679 -0.8536 -1.6683 -0.2271
17365SOL     OW69704   3.700  10.695  11.554 -0.1502  0.1972  0.0418
17365SOL    HW169705   3.695  10.787  11.580 -0.1197 -0.2531  1.7248
17365SOL    HW269706   3.771  10.693  11.491 -1.7133  1.7118 -1.9189
17366SOL     OW69707   9.243   0.833   6.146 -0.1132  0.5082 -0.4943
17366SOL    HW169708   9.163   0.886   6.145  0.1770  0.9772  0.2869
17366SOL    HW269709   9.285   0.855   6.229 -0.6846 -2.0472  0.5480
17367SOL     OW69710   0.231  10.866  12.789  0.2078  0.1157  0.1388
17367SOL    HW169711   0.273  10.941  12.748 -0.2866  1.2228  1.5715
17367SOL    HW269712   0.138  10.890  12.794  0.0401 -0.5918  0.6113
17368SOL     OW69713   0.844  12.389   4.651 -0.1559  0.2770 -0.3953
17368SOL    HW169714   0.862  12.298   4.626 -1.0110 -0.7726  2.4687
17368SOL    HW269715   0.750  12.391   4.665 -0.1752  1.6945 -0.6734
17369SOL     OW69716  10.628   6.026   0.932  0.6182 -0.2844  0.3950
17369SOL    HW169717  10.713   6.020   0.976  0.0084  0.0857  1.7051
17369SOL    HW269718  10.582   5.946   0.959 -0.6800  1.0739  2.5911
17370SOL     OW69719   9.178   7.191   0.748 -0.1801  0.7853  0.2792
17370SOL    HW169720   9.174   7.154   0.836 -1.5667 -0.6777 -0.3599
17370SOL    HW269721   9.097   7.241   0.739 -0.8495 -0.4406 -0.7203
17371SOL     OW69722   4.043  13.566   2.381 -0.4322 -0.4016  0.3851
17371SOL    HW169723   4.134  13.594   2.394 -0.6200  0.5390 -0.2592
17371SOL    HW269724   4.011  13.548   2.469  0.2309 -0.2542  0.6642
17372SOL     OW69725   4.483  11.694   6.817  0.0276  0.0609 -0.9009
17372SOL    HW169726   4.476  11.768   6.877  2.6319 -0.2878 -0.0398
17372SOL    HW269727   4.509  11.620   6.872  0.0178 -0.8805 -2.1098
17373SOL     OW69728   6.599  13.314  13.149  0.0643  0.4191  0.0873
17373SOL    HW169729   6.658  13.281  13.082 -1.5179 -0.0996 -1.1397
17373SOL    HW269730   6.638  13.397  13.177  2.5463 -0.9990  1.0588
17374SOL     OW69731   1.361  12.594   9.333  0.4011 -0.2736  0.4229
17374SOL    HW169732   1.353  12.515   9.280 -1.4367  1.1767 -1.6327
17374SOL    HW269733   1.274  12.608   9.370  0.6883  0.8050  0.7348
17375SOL     OW69734  11.813   5.631  13.614  0.0798 -0.2427 -0.1535
17375SOL    HW169735  11.732   5.668  13.579  0.5271  0.6546 -0.2507
17375SOL    HW269736  11.874   5.631  13.541 -0.1031 -1.8420 -0.3551
17376SOL     OW69737   2.179  10.989   7.357  0.5775 -0.2989  0.0879
17376SOL    HW169738   2.110  10.936   7.318  0.1978 -0.0714  0.4446
17376SOL    HW269739   2.135  11.070   7.384  1.0558  0.0042 -0.0219
17377SOL     OW69740  12.407   4.452   4.052 -0.2261 -0.2000  0.6491
17377SOL    HW169741  12.412   4.414   4.140 -1.3657 -0.1225  0.7677
17377SOL    HW269742  12.333   4.406   4.011  0.3067 -0.2480 -0.2806
17378SOL     OW69743   1.563   8.893   6.511  0.3277 -0.2779  1.0007
17378SOL    HW169744   1.519   8.814   6.479 -0.1721  0.3768  0.0064
17378SOL    HW269745   1.521   8.965   6.463  1.1044  0.5482  1.5250
17379SOL     OW69746   1.929   7.291   8.271 -0.3827  0.2502  0.2905
17379SOL    HW169747   1.859   7.355   8.282  0.0748  0.6773  0.7692
17379SOL    HW269748   1.884   7.211   8.243 -1.0387  0.5621  0.4300
17380SOL     OW69749   8.210   0.951   2.741  0.4058 -0.0866  0.0052
17380SOL    HW169750   8.240   0.939   2.651  2.5523  1.0012  0.5039
17380SOL    HW269751   8.270   0.897   2.793 -1.1159 -1.1067  0.7785
17381SOL     OW69752  13.788  13.652  12.028  0.3539 -0.4831  0.3856
17381SOL    HW169753  13.842  13.717  12.072  1.3584 -0.1165 -1.2873
17381SOL    HW269754  13.791  13.575  12.084 -0.2488  0.6483  2.0348
17382SOL     OW69755   7.059  13.150   9.398  0.3649  0.0655 -0.7686
17382SOL    HW169756   6.979  13.098   9.411  0.1185  0.5472 -0.2966
17382SOL    HW269757   7.051  13.184   9.309 -1.5755  2.7616  0.2977
17383SOL     OW69758  12.919   0.870  10.165  0.1613 -0.3280  0.9363
17383SOL    HW169759  12.854   0.887  10.232 -0.5954  1.9107 -0.2667
17383SOL    HW269760  12.951   0.782  10.184 -0.8599 -0.2171  3.4773
17384SOL     OW69761  12.418   1.188  11.757 -0.0390 -0.4719  0.3374
17384SOL    HW169762  12.483   1.254  11.734 -2.4229  1.1445 -2.5049
17384SOL    HW269763  12.334   1.231  11.744 -1.7945 -2.6350  3.2442
17385SOL     OW69764  10.024   0.787  11.285  0.1833  0.1074 -0.3807
17385SOL    HW169765  10.002   0.877  11.311 -1.3242 -0.0826 -0.9228
17385SOL    HW269766  10.082   0.756  11.354 -0.1823  1.1122  0.4102
17386SOL     OW69767  10.627  11.939   7.599  0.0887 -0.1610 -0.3887
17386SOL    HW169768  10.660  12.013   7.548 -1.4375  0.4684 -0.5291
17386SOL    HW269769  10.617  11.868   7.535 -0.4145  0.1711 -0.6863
17387SOL     OW69770   9.788  11.536  12.166 -0.1311 -0.2006 -0.1444
17387SOL    HW169771   9.820  11.481  12.237 -0.4314 -1.7586 -1.1453
17387SOL    HW269772   9.692  11.532  12.174 -0.1527  0.7223  0.1496
17388SOL     OW69773   6.993   5.888   9.798 -0.0208 -0.1960 -0.2649
17388SOL    HW169774   7.059   5.835   9.843  1.7714  2.3007  0.2452
17388SOL    HW269775   7.043   5.951   9.747 -2.0340  0.8570 -1.0548
17389SOL     OW69776   9.951   2.271   5.045 -0.8040 -0.0189  0.2959
17389SOL    HW169777   9.941   2.252   5.139  0.6800 -0.6410  0.3496
17389SOL    HW269778  10.006   2.349   5.042 -1.4027  0.4016 -0.0700
17390SOL     OW69779   8.267   6.035   1.727  0.2076 -0.3546  0.1851
17390SOL    HW169780   8.182   5.998   1.752  0.9277 -2.2145  0.0264
17390SOL    HW269781   8.321   6.027   1.806  0.3616  0.4402  0.1654
17391SOL     OW69782   3.873   9.015   3.292  0.0086  0.0693  0.0257
17391SOL    HW169783   3.930   9.086   3.262 -0.0337  0.5179  0.9770
17391SOL    HW269784   3.844   9.042   3.378  0.6327 -1.4668  0.7635
17392SOL     OW69785   2.746   0.857   1.768  0.1215  0.0892  0.2096
17392SOL    HW169786   2.729   0.904   1.686 -1.1745 -1.3569 -0.4272
17392SOL    HW269787   2.684   0.894   1.830  1.8395  1.9481  0.9248
17393SOL     OW69788   2.075  11.147  14.022 -0.4812  0.0046 -0.0065
17393SOL    HW169789   1.991  11.183  14.051 -0.5749 -0.6494  0.5516
17393SOL    HW269790   2.052  11.073  13.966 -0.2865 -0.2427  0.2336
17394SOL     OW69791   5.615   3.661  12.132 -0.0826 -0.0973  0.3424
17394SOL    HW169792   5.612   3.626  12.042  0.4173  1.0795 -0.1529
17394SOL    HW269793   5.579   3.749  12.125 -0.4948 -0.1715  1.4010
17395SOL     OW69794  11.377  13.950   6.028  0.2980  0.1851 -0.0310
17395SOL    HW169795  11.451  13.982   5.976 -0.5491 -0.0069 -1.4050
17395SOL    HW269796  11.311  14.019   6.021 -0.3262 -0.4280 -0.3242
17396SOL     OW69797   1.213   8.106  11.718  0.3060 -0.0885  0.2116
17396SOL    HW169798   1.233   8.116  11.811  1.7792  0.0959 -0.0963
17396SOL    HW269799   1.259   8.180  11.676  0.2022 -0.5423 -0.7172
17397SOL     OW69800   7.026   8.194   9.379 -0.0191  0.5394  0.2372
17397SOL    HW169801   7.031   8.257   9.307  0.9410 -1.1047 -1.2032
17397SOL    HW269802   7.114   8.195   9.417  0.2596 -0.5294 -0.3531
17398SOL     OW69803   4.189   9.356   6.419 -0.1331  0.1594  0.5088
17398SOL    HW169804   4.187   9.309   6.502 -0.9547  0.4355  0.6616
17398SOL    HW269805   4.143   9.299   6.358 -0.8807  0.6152  0.6254
17399SOL     OW69806   1.212  13.126  13.246  0.7297 -0.1106 -0.0144
17399SOL    HW169807   1.214  13.045  13.195  1.3363  0.5054 -1.0025
17399SOL    HW269808   1.274  13.183  13.202  0.0451  1.0254  0.4547
17400SOL     OW69809   1.008   3.452   1.376 -1.0092 -0.6476 -0.5380
17400SOL    HW169810   0.955   3.418   1.448 -0.8901 -0.4056 -0.3349
17400SOL    HW269811   1.081   3.390   1.369  0.4999  0.7567  1.3666
17401SOL     OW69812  12.031  10.491   8.620 -0.4417  0.2526 -0.8779
17401SOL    HW169813  12.065  10.525   8.702  0.0511  2.1636 -1.7989
17401SOL    HW269814  11.957  10.436   8.645  1.3469 -1.4705  0.9794
17402SOL     OW69815   3.675   4.720   4.970  0.0464 -0.3775  0.2711
17402SOL    HW169816   3.596   4.721   4.917  0.9371 -0.5333 -1.0995
17402SOL    HW269817   3.646   4.686   5.055 -1.3213 -0.5477 -0.2315
17403SOL     OW69818  11.524  10.832  13.925  0.5246  0.5064  0.3648
17403SOL    HW169819  11.562  10.763  13.871  0.0641 -1.2382  2.1842
17403SOL    HW269820  11.599  10.881  13.959  0.8611  0.7250 -0.6555
17404SOL     OW69821  13.201   6.268   0.264 -0.1132  0.5506 -0.0876
17404SOL    HW169822  13.138   6.221   0.209  0.4772 -0.6115  0.1887
17404SOL    HW269823  13.273   6.206   0.276 -0.1281  0.8392  1.8320
17405SOL     OW69824   0.410   2.493   1.711  0.4093 -0.1966 -0.1842
17405SOL    HW169825   0.337   2.530   1.661  0.7450  0.1829 -0.3888
17405SOL    HW269826   0.456   2.436   1.649 -0.2108 -1.1276  0.1744
17406SOL     OW69827   5.152   6.556   3.926 -0.6860  0.0964  0.1424
17406SOL    HW169828   5.138   6.461   3.929 -0.3424  0.0593  0.6974
17406SOL    HW269829   5.189   6.578   4.012 -1.6684  0.8725  0.3960
17407SOL     OW69830  13.450   2.576   6.841  0.1401 -0.1281  0.3707
17407SOL    HW169831  13.530   2.612   6.879 -0.3548  0.7710  0.5915
17407SOL    HW269832  13.445   2.487   6.876  2.2200 -1.0563 -1.4092
17408SOL     OW69833   5.958   9.912   1.658  0.0926  0.6512 -0.4108
17408SOL    HW169834   5.921   9.943   1.741 -0.8018  0.3161 -0.6814
17408SOL    HW269835   6.009   9.986   1.626  1.5005  0.3865  1.0387
17409SOL     OW69836  10.617   5.381   0.130  0.1633 -0.1794  0.4579
17409SOL    HW169837  10.652   5.441   0.196  0.1515  0.5116 -0.1608
17409SOL    HW269838  10.659   5.408   0.048  0.1081 -0.9744  0.1597
17410SOL     OW69839   1.738   3.257   8.987  0.3956 -0.4917 -0.4000
17410SOL    HW169840   1.680   3.304   9.046 -0.9601 -1.2807 -1.0574
17410SOL    HW269841   1.808   3.319   8.967  0.1260  0.2638  0.9126
17411SOL     OW69842   1.592   4.307   9.708  0.4548 -0.3991  0.0832
17411SOL    HW169843   1.655   4.279   9.641  0.3545 -1.1848  0.3018
17411SOL    HW269844   1.544   4.379   9.668  1.3539  0.0711 -0.1679
17412SOL     OW69845  11.693   9.696   0.960  0.0398  0.5713  0.2438
17412SOL    HW169846  11.607   9.704   1.001 -0.3567 -1.1919 -0.1890
17412SOL    HW269847  11.735   9.622   1.004  0.5665  0.1953 -0.8340
17413SOL     OW69848  13.138   8.977   4.247 -0.7035 -0.4667 -0.9385
17413SOL    HW169849  13.047   8.977   4.219 -1.2359  0.9409  0.6095
17413SOL    HW269850  13.144   8.903   4.309 -1.1785  0.2543 -0.0047
17414SOL     OW69851  13.210   7.592   9.508 -0.0228  0.2987 -0.1726
17414SOL    HW169852  13.169   7.531   9.447  1.7823 -1.1212 -0.0579
17414SOL    HW269853  13.144   7.608   9.575 -1.6656  1.0422 -1.8939
17415SOL     OW69854   2.933   8.891   4.619 -0.1896 -0.2084 -0.0626
17415SOL    HW169855   2.991   8.841   4.562  0.3888 -0.1307  0.4380
17415SOL    HW269856   2.889   8.953   4.561  0.7745  0.2195 -0.3612
17416SOL     OW69857  10.016  10.446   4.390 -0.1672  0.0664 -0.4793
17416SOL    HW169858  10.107  10.454   4.417 -0.4618  0.3601  0.4487
17416SOL    HW269859  10.020  10.424   4.297  0.8487 -0.0729 -0.4051
17417SOL     OW69860  10.007   8.636   0.327  0.0896 -0.2929 -0.0280
17417SOL    HW169861  10.020   8.716   0.276  0.4422  0.3945  1.1113
17417SOL    HW269862   9.924   8.602   0.296 -0.4268  0.9116 -0.0270
17418SOL     OW69863  11.569   8.430   4.493 -0.1597  0.4702  0.2259
17418SOL    HW169864  11.632   8.374   4.448 -0.3695  0.1367  0.3392
17418SOL    HW269865  11.604   8.438   4.582 -0.2485  0.3269  0.2744
17419SOL     OW69866   0.340   2.859   1.539  0.4346 -0.2137 -0.4932
17419SOL    HW169867   0.317   2.767   1.527  0.2908 -0.0484 -1.5703
17419SOL    HW269868   0.257   2.906   1.528  0.6225  0.0961 -0.6080
17420SOL     OW69869   6.161  12.124   6.375 -0.3722  0.5248 -0.0884
17420SOL    HW169870   6.219  12.139   6.450 -0.4850 -1.7022  0.5097
17420SOL    HW269871   6.073  12.119   6.414 -1.0208  3.4708 -0.9348
17421SOL     OW69872   0.079  10.205  11.493  0.7777  0.3477  0.2081
17421SOL    HW169873   0.024  10.236  11.566  1.5431  0.7009  0.6438
17421SOL    HW269874   0.108  10.285  11.449  1.3869  0.1857  0.3083
17422SOL     OW69875   7.708   6.647   6.457  0.2682  0.1137  0.3533
17422SOL    HW169876   7.775   6.714   6.444 -0.8151  1.1805  0.0454
17422SOL    HW269877   7.673   6.631   6.370 -0.7925  0.5710  0.6788
17423SOL     OW69878   5.663   2.663   4.245 -0.4079 -0.6504  0.2124
17423SOL    HW169879   5.570   2.643   4.258 -0.4550 -0.2420  0.5283
17423SOL    HW269880   5.665   2.754   4.218 -0.0552 -0.4072  1.0059
17424SOL     OW69881   1.986   3.845   4.660  0.5850  0.7619  0.0516
17424SOL    HW169882   1.985   3.757   4.698  0.9100  1.2780  1.3285
17424SOL    HW269883   2.000   3.831   4.567  1.4198 -0.5125  0.3417
17425SOL     OW69884   8.018  12.783   7.547 -0.2129 -0.3740  0.4643
17425SOL    HW169885   8.090  12.837   7.581  0.9479  0.2518 -2.7103
17425SOL    HW269886   7.971  12.840   7.487 -1.8520 -1.5675  0.5447
17426SOL     OW69887   8.121   9.838   5.857  0.1230  0.2709  0.6471
17426SOL    HW169888   8.034   9.838   5.896 -0.9951  0.9303 -1.6961
17426SOL    HW269889   8.157   9.752   5.880 -1.9195 -0.8126  0.0693
17427SOL     OW69890  11.196   3.922   9.103  0.1157 -0.2453  0.1381
17427SOL    HW169891  11.141   3.962   9.170  0.6280 -1.6613  1.4627
17427SOL    HW269892  11.283   3.956   9.120  0.1516 -0.1836 -0.1670
17428SOL     OW69893  12.736   2.953  11.358 -0.2288 -0.2298 -0.1517
17428SOL    HW169894  12.827   2.985  11.358 -0.4872  0.5334  0.2341
17428SOL    HW269895  12.691   3.010  11.420 -0.8028 -1.1119  0.2616
17429SOL     OW69896   5.463   4.862  12.021 -0.3442  0.3622 -0.0253
17429SOL    HW169897   5.544   4.913  12.013  0.3862 -0.7094  0.2727
17429SOL    HW269898   5.395   4.919  11.985  0.3029  1.8585  1.0332
17430SOL     OW69899   8.938  11.440   5.987  1.1203  0.3062 -0.2934
17430SOL    HW169900   8.914  11.399   6.070 -1.4514  2.1679  0.0050
17430SOL    HW269901   9.025  11.475   6.002 -0.0283  2.3401  2.4160
17431SOL     OW69902   3.974   0.276   1.777  0.2498 -0.3485 -0.4884
17431SOL    HW169903   4.015   0.197   1.743  0.0382 -0.6139 -0.1222
17431SOL    HW269904   3.964   0.332   1.700 -0.6100 -1.1187 -0.9598
17432SOL     OW69905   4.556   9.956   0.287 -0.0145  0.0475 -0.1758
17432SOL    HW169906   4.598  10.027   0.238  1.2664  1.1581  2.3075
17432SOL    HW269907   4.466   9.956   0.256  0.1289  2.2917 -0.8294
17433SOL     OW69908   9.354   4.728   2.278  0.0896 -0.2692  0.4250
17433SOL    HW169909   9.369   4.663   2.209 -1.0217  0.6549 -0.7333
17433SOL    HW269910   9.342   4.811   2.231  2.1489  0.9705  1.8798
17434SOL     OW69911   3.890   9.030   0.577 -0.5875 -0.0979 -0.1863
17434SOL    HW169912   3.863   8.956   0.631 -0.1827 -0.4266 -0.4214
17434SOL    HW269913   3.921   8.990   0.496  0.1502  0.2865 -0.1046
17435SOL     OW69914   8.530  12.145   1.755  0.1422 -0.3084  0.0913
17435SOL    HW169915   8.520  12.088   1.832 -0.1584 -0.4498 -0.0500
17435SOL    HW269916   8.592  12.212   1.783  0.9336 -1.0146  0.0845
17436SOL     OW69917  14.053   1.672  10.543 -0.8866  0.0644  0.1719
17436SOL    HW169918  14.005   1.731  10.602  0.4675 -0.1846  1.6085
17436SOL    HW269919  13.997   1.595  10.536 -1.7586  0.7110 -0.0967
17437SOL     OW69920   4.264   8.291   6.061 -0.0946  0.3783  0.4428
17437SOL    HW169921   4.331   8.358   6.049  0.1522  0.0847  0.1663
17437SOL    HW269922   4.192   8.336   6.106 -1.1607  1.5805 -2.2553
17438SOL     OW69923  13.924   9.601  11.421  0.3453 -0.1464  0.4409
17438SOL    HW169924  13.931   9.528  11.359  0.7959  1.1317 -1.1016
17438SOL    HW269925  13.834   9.596  11.454  0.1341 -0.9490 -0.2163
17439SOL     OW69926   2.628   3.079   2.323  0.4456 -0.1655 -0.8454
17439SOL    HW169927   2.656   3.033   2.244  0.1674  1.6029 -2.0207
17439SOL    HW269928   2.536   3.056   2.333  0.6666 -0.9821 -0.5784
17440SOL     OW69929  13.120  12.357   9.822 -0.5325  0.3938 -0.5406
17440SOL    HW169930  13.080  12.310   9.895 -0.4157 -0.8997 -1.2844
17440SOL    HW269931  13.062  12.340   9.747 -0.1678  0.9492 -0.9652
17441SOL     OW69932  10.287   0.259   4.511 -0.8723 -0.1453 -0.0457
17441SOL    HW169933  10.199   0.271   4.476 -0.4622  1.8195 -0.5019
17441SOL    HW269934  10.276   0.267   4.606 -1.1498  0.4031 -0.1184
17442SOL     OW69935   3.110   1.523   8.358  0.4093 -0.3442 -0.5031
17442SOL    HW169936   3.103   1.518   8.453  1.7249 -0.6526 -0.4004
17442SOL    HW269937   3.023   1.499   8.326 -0.4147  0.9299  0.6328
17443SOL     OW69938  10.518   9.046   7.716  0.0283  0.0701  0.4896
17443SOL    HW169939  10.507   9.082   7.628 -0.7839 -0.8098  0.2150
17443SOL    HW269940  10.609   9.018   7.719 -0.1534 -0.6563 -0.3742
17444SOL     OW69941  13.966   6.080  10.292  0.0653  0.0421  0.1099
17444SOL    HW169942  13.970   6.159  10.238  0.8649 -0.0159  0.0788
17444SOL    HW269943  14.047   6.081  10.343  1.2531 -1.9638 -1.5968
17445SOL     OW69944  11.928   1.434  11.535 -0.2422  0.4347 -0.1632
17445SOL    HW169945  11.869   1.439  11.460 -0.6693 -0.0749  0.1340
17445SOL    HW269946  12.013   1.414  11.497 -0.7639 -1.4764 -0.4042
17446SOL     OW69947   8.823   8.663  13.645 -0.1540  0.1325 -0.2587
17446SOL    HW169948   8.809   8.721  13.570  1.2256  0.2348 -0.4678
17446SOL    HW269949   8.742   8.668  13.695 -0.6162  1.0782 -1.0703
17447SOL     OW69950  11.335   2.891   4.231  0.5213  0.0799 -0.0281
17447SOL    HW169951  11.398   2.881   4.302  1.9907  0.0670 -1.2737
17447SOL    HW269952  11.266   2.945   4.268  0.7583 -0.7035  1.6876
17448SOL     OW69953   3.273   1.746   5.344  0.6085 -0.0287  0.2809
17448SOL    HW169954   3.320   1.662   5.342  0.6435 -0.0173  0.6031
17448SOL    HW269955   3.191   1.726   5.389  0.1985 -0.0986 -0.4788
17449SOL     OW69956  10.822  12.651   8.759 -0.1205 -0.1617  0.1221
17449SOL    HW169957  10.731  12.640   8.788  0.1250 -0.7015  0.6961
17449SOL    HW269958  10.874  12.632   8.836  0.4639  1.2030  0.0957
17450SOL     OW69959   4.631   9.249   6.500 -0.3620  0.3249 -0.0143
17450SOL    HW169960   4.709   9.282   6.543  0.2049 -1.7430  0.6395
17450SOL    HW269961   4.586   9.328   6.469  1.3092  1.6287  0.7092
17451SOL     OW69962   2.555  13.320  10.715 -0.1075  0.7399 -0.1956
17451SOL    HW169963   2.578  13.249  10.655 -2.7927 -0.5055  0.0964
17451SOL    HW269964   2.558  13.281  10.802 -2.9369  0.4531 -0.1234
17452SOL     OW69965   6.631   5.960   9.990 -0.3243 -0.0095 -0.2580
17452SOL    HW169966   6.580   6.041   9.999 -0.6722 -0.3962  1.4403
17452SOL    HW269967   6.714   5.989   9.953 -0.5238  1.1022  0.1090
17453SOL     OW69968   6.046   2.197  12.394  0.7804  0.1904 -0.0430
17453SOL    HW169969   6.122   2.196  12.452  2.7673 -0.2620 -2.5008
17453SOL    HW269970   6.062   2.270  12.333  0.3744 -1.2249 -1.9479
17454SOL     OW69971   9.718  12.023   4.865  0.5578 -0.2461  0.2926
17454SOL    HW169972   9.696  12.029   4.958  0.7884  2.2250  0.2486
17454SOL    HW269973   9.799  12.073   4.856  0.7845 -0.8171 -1.1797
17455SOL     OW69974   7.162   4.003  10.612 -0.1891 -0.2084  0.2032
17455SOL    HW169975   7.123   3.916  10.604  0.2384 -0.3520 -0.3740
17455SOL    HW269976   7.092   4.063  10.587 -0.9588 -0.2762  2.0091
17456SOL     OW69977  12.174  13.223   7.422  0.5394 -0.2950 -0.7477
17456SOL    HW169978  12.101  13.235   7.483  0.7878 -0.8811 -0.3193
17456SOL    HW269979  12.245  13.186   7.476  1.1538  0.2636 -1.1526
17457SOL     OW69980   8.161  12.864  13.752  0.5690 -0.4168  0.1589
17457SOL    HW169981   8.228  12.829  13.810  2.2459  0.8227 -0.9268
17457SOL    HW269982   8.151  12.955  13.779  1.1905  0.1054 -1.2567
17458SOL     OW69983  10.898  13.546   3.886 -0.7869 -0.3366 -0.0686
17458SOL    HW169984  10.812  13.582   3.868  0.4606  1.6150 -2.8330
17458SOL    HW269985  10.944  13.615   3.933  0.3221  0.1090 -1.7283
17459SOL     OW69986  10.105  12.847   0.703 -0.3160 -0.2275 -0.2237
17459SOL    HW169987  10.025  12.898   0.709  0.6030  1.2851 -0.4748
17459SOL    HW269988  10.128  12.827   0.794  0.6405  1.9807  0.0777
17460SOL     OW69989   5.976   3.527  12.320 -0.8296  0.3298 -0.3916
17460SOL    HW169990   5.883   3.515  12.302 -0.6615  0.9476 -1.7830
17460SOL    HW269991   5.980   3.613  12.363 -1.0110 -0.2246  0.7672
17461SOL     OW69992   3.924   9.305   2.701 -0.4386 -0.3109 -0.2451
17461SOL    HW169993   3.922   9.362   2.624  0.6090 -0.2836 -0.2746
17461SOL    HW269994   4.016   9.281   2.710 -1.1613 -4.9831 -2.3969
17462SOL     OW69995   9.213   9.405   1.762  0.2329 -0.1772 -0.5677
17462SOL    HW169996   9.286   9.467   1.774 -0.7350  1.4823 -2.5947
17462SOL    HW269997   9.245   9.343   1.697  0.5653 -0.7350  0.1201
17463SOL     OW69998   1.473  12.321   3.898  0.2491 -0.7142  0.0474
17463SOL    HW169999   1.495  12.379   3.971 -0.8743 -0.2565  0.0332
17463SOL    HW270000   1.400  12.267   3.930 -0.9244  0.1728 -1.0430
17464SOL     OW70001  13.730   5.555  12.545 -0.5977 -0.1674 -0.5223
17464SOL    HW170002  13.651   5.531  12.593  0.2607 -2.7559 -0.2346
17464SOL    HW270003  13.762   5.472  12.509  2.2415  0.6806 -0.2062
17465SOL     OW70004   3.800   7.047  12.706  0.2963  0.6082  0.1448
17465SOL    HW170005   3.713   7.038  12.667 -0.1706  0.0326  1.2809
17465SOL    HW270006   3.823   7.139  12.691 -0.5260  0.7815 -0.1193
17466SOL     OW70007   3.012   7.541   2.257 -0.2938 -0.0229 -0.0547
17466SOL    HW170008   3.096   7.503   2.283  0.6352  1.1629 -1.1584
17466SOL    HW270009   2.971   7.567   2.340 -0.1358 -1.7044  0.5768
17467SOL     OW70010  11.173  12.828  11.621 -0.2746  0.1311  0.5632
17467SOL    HW170011  11.181  12.736  11.596  1.7172 -0.3204  2.5308
17467SOL    HW270012  11.087  12.833  11.664 -1.2082 -0.3296 -1.1354
17468SOL     OW70013   7.600   1.968   4.691 -0.1135  0.2912 -0.3851
17468SOL    HW170014   7.619   1.976   4.785  0.7309 -0.2669 -0.5015
17468SOL    HW270015   7.683   1.985   4.648  0.0613 -1.6970 -0.9269
17469SOL     OW70016  12.913  13.937   5.119  0.7839 -0.5198 -0.1216
17469SOL    HW170017  12.881  14.024   5.144 -1.1536 -1.3562  0.5302
17469SOL    HW270018  12.870  13.877   5.180 -0.5102 -2.2290 -2.5248
17470SOL     OW70019   8.241   9.626   5.119  0.4301  0.0531 -0.3396
17470SOL    HW170020   8.221   9.544   5.163  0.5420  0.2031 -0.0000
17470SOL    HW270021   8.274   9.683   5.189 -0.1769  0.5731 -0.4655
17471SOL     OW70022  13.000  12.069   4.690  0.1124 -0.0899  0.4876
17471SOL    HW170023  13.063  12.140   4.704 -0.4053  0.3176  0.7753
17471SOL    HW270024  12.924  12.111   4.651  0.2504 -0.6796 -0.4473
17472SOL     OW70025   2.477   8.134   9.830  0.9097  0.0404  0.8119
17472SOL    HW170026   2.506   8.156   9.742  2.3756  1.1463  1.5359
17472SOL    HW270027   2.512   8.046   9.845 -0.9587 -0.9788 -0.3482
17473SOL     OW70028   0.840   5.692  11.614 -0.6404  0.3853 -0.0057
17473SOL    HW170029   0.884   5.711  11.696  0.6524  0.8605 -0.7773
17473SOL    HW270030   0.771   5.758  11.607 -0.0197  1.0587  0.1581
17474SOL     OW70031   1.151   9.843   0.635 -0.7029 -0.6069 -0.7156
17474SOL    HW170032   1.156   9.750   0.657 -2.0017 -0.2160  1.5498
17474SOL    HW270033   1.238   9.878   0.659  0.0916 -1.3286 -2.3878
17475SOL     OW70034   9.066   1.783   6.313  0.4676  0.0461  0.2154
17475SOL    HW170035   9.134   1.747   6.256 -0.8628 -0.6830 -0.9691
17475SOL    HW270036   8.997   1.716   6.315 -1.0842  1.5542 -0.2053
17476SOL     OW70037   6.786  11.622  11.546  0.3246 -0.1992 -0.0860
17476SOL    HW170038   6.832  11.577  11.475 -1.7435 -0.9233 -1.0352
17476SOL    HW270039   6.846  11.616  11.621  0.9630 -2.7929 -0.7195
17477SOL     OW70040   9.743   0.179  10.872 -0.4024  0.2276  0.4522
17477SOL    HW170041   9.830   0.156  10.904 -0.7273  1.2181  2.1291
17477SOL    HW270042   9.753   0.181  10.776  1.2877 -0.1171  0.5894
17478SOL     OW70043   2.864   5.474  13.545  0.4605 -0.5154 -0.1136
17478SOL    HW170044   2.855   5.491  13.639  1.3166  1.1710 -0.2806
17478SOL    HW270045   2.775   5.458  13.514  0.0015  0.1815  0.7911
17479SOL     OW70046  12.896   8.536  10.614 -0.6618  0.0278  0.0620
17479SOL    HW170047  12.960   8.563  10.549 -1.3064  1.5910  0.0146
17479SOL    HW270048  12.946   8.487  10.679  0.1726 -0.6269 -1.0425
17480SOL     OW70049   4.427  12.243   4.304 -0.0856 -0.0836  0.1941
17480SOL    HW170050   4.485  12.290   4.364 -0.3569 -0.5023  0.7828
17480SOL    HW270051   4.363  12.201   4.360 -1.1581  0.6188 -0.4602
17481SOL     OW70052  11.981  11.118   0.226 -0.1463  0.3690  1.1180
17481SOL    HW170053  11.903  11.131   0.281 -1.2488  0.3994 -0.4038
17481SOL    HW270054  12.025  11.043   0.266 -0.8158  0.4869  2.1437
17482SOL     OW70055   6.394   2.542   5.687 -0.8684  0.0456 -0.0163
17482SOL    HW170056   6.315   2.588   5.656  0.4285  1.3822 -1.5146
17482SOL    HW270057   6.439   2.608   5.740  0.1242 -0.1087 -0.6639
17483SOL     OW70058   4.743  13.488   2.080 -0.0849 -0.0421 -0.0763
17483SOL    HW170059   4.777  13.421   2.139  0.5623  0.9906  0.7747
17483SOL    HW270060   4.652  13.464   2.065  0.0697 -0.9645  0.4240
17484SOL     OW70061   0.054   5.251   2.596  0.5649  0.2762 -0.4941
17484SOL    HW170062   0.128   5.201   2.632 -0.7161 -0.9963  0.5206
17484SOL    HW270063   0.061   5.337   2.637  0.8659 -0.1854  0.4524
17485SOL     OW70064   4.006   0.250  13.716 -0.6912 -0.1289  0.1150
17485SOL    HW170065   4.016   0.186  13.786  0.4641  0.0692  0.1474
17485SOL    HW270066   3.971   0.200  13.642 -0.3591 -0.6715  0.3211
17486SOL     OW70067   1.938  13.663  10.591 -0.1650 -0.2679  0.1600
17486SOL    HW170068   1.953  13.638  10.682 -0.5957 -2.3737 -0.2983
17486SOL    HW270069   2.016  13.634  10.545  0.6156  1.9298  0.0026
17487SOL     OW70070   8.680   5.830  10.022 -0.3499 -0.4683 -0.9451
17487SOL    HW170071   8.613   5.883  10.066 -1.1542  1.1475 -3.9005
17487SOL    HW270072   8.729   5.892   9.968  2.0386 -2.0089 -0.7239
17488SOL     OW70073  13.315   1.112  10.385 -0.0880 -0.1336 -0.3512
17488SOL    HW170074  13.228   1.151  10.379 -0.6258 -1.1387  0.5275
17488SOL    HW270075  13.359   1.162  10.454 -0.5025 -0.5698  0.2372
17489SOL     OW70076   3.392   7.744   1.906 -0.0702 -0.0005 -0.3704
17489SOL    HW170077   3.459   7.764   1.840  0.2284  1.0229  0.2181
17489SOL    HW270078   3.400   7.815   1.970 -0.4599 -0.8853  0.6901
17490SOL     OW70079  12.061   3.157  11.423  0.0084 -0.5343 -0.0669
17490SOL    HW170080  12.147   3.117  11.430  0.0627 -0.3604  0.2623
17490SOL    HW270081  12.033   3.172  11.513 -0.0270  0.1321 -0.1813
17491SOL     OW70082   0.722   4.499   2.909 -0.1828 -1.0370 -0.0453
17491SOL    HW170083   0.806   4.538   2.885 -0.8224  1.7550  1.7220
17491SOL    HW270084   0.657   4.547   2.857 -0.9511 -0.2372  1.5708
17492SOL     OW70085   5.961   6.303   6.664  0.3176 -0.3080  0.2836
17492SOL    HW170086   5.934   6.318   6.574  0.2554 -0.4701  0.2745
17492SOL    HW270087   6.027   6.234   6.658  0.2950 -0.3365  0.3642
17493SOL     OW70088   5.305  11.066  12.066 -0.5890  0.3869 -0.4798
17493SOL    HW170089   5.242  11.022  12.009 -0.4686 -0.0505 -0.2756
17493SOL    HW270090   5.272  11.053  12.155  0.6495 -1.3326 -0.2059
17494SOL     OW70091   7.865   8.956   7.862  0.1588  0.0066  0.5561
17494SOL    HW170092   7.873   8.905   7.782  0.4817 -0.8433  1.1094
17494SOL    HW270093   7.781   8.929   7.899  0.7241 -0.7923  1.2911
17495SOL     OW70094   2.769  12.405  11.288 -0.8294  0.9637 -0.1285
17495SOL    HW170095   2.843  12.349  11.263 -1.0422  1.5436 -2.1962
17495SOL    HW270096   2.808  12.488  11.315 -0.6685  0.7656  0.2605
17496SOL     OW70097   1.514  13.049   1.800  0.1018  0.6683 -0.3678
17496SOL    HW170098   1.530  13.007   1.885 -0.5461  0.6658 -0.2381
17496SOL    HW270099   1.483  13.137   1.822  0.9483  1.0446 -0.6298
17497SOL     OW70100   5.471  12.177   4.557  0.0904 -0.6225 -0.6092
17497SOL    HW170101   5.546  12.129   4.591 -0.0360 -0.0592  0.5221
17497SOL    HW270102   5.479  12.171   4.462  1.2872 -0.9878 -0.4965
17498SOL     OW70103   0.088  13.229   2.117 -0.4957  0.5235 -0.0774
17498SOL    HW170104   0.108  13.165   2.186 -0.6900 -0.2954 -0.7669
17498SOL    HW270105   0.079  13.177   2.037  0.3757  1.5259 -0.8630
17499SOL     OW70106   2.514   4.497   1.018  0.1876  0.1847 -0.4335
17499SOL    HW170107   2.549   4.579   1.053 -0.4786  0.2260  0.1702
17499SOL    HW270108   2.568   4.478   0.942 -1.3588  2.6526 -2.3125
17500SOL     OW70109  13.546   3.501   9.206  0.3419  0.3775  0.2720
17500SOL    HW170110  13.596   3.568   9.251  0.0002  0.2576  0.8474
17500SOL    HW270111  13.512   3.445   9.277 -2.1501  1.5159  0.0798
17501SOL     OW70112   9.061   1.083   7.163 -0.8196 -0.4979  0.6313
17501SOL    HW170113   9.090   1.168   7.129 -1.3977 -1.2383 -1.8920
17501SOL    HW270114   8.972   1.099   7.193 -0.5410  0.0239  1.2069
17502SOL     OW70115  12.572   5.105  10.019  0.3893  0.2760  0.5475
17502SOL    HW170116  12.574   5.188   9.973 -1.1613  0.5331  0.8920
17502SOL    HW270117  12.659   5.098  10.060  0.3831  1.9618  0.9333
17503SOL     OW70118   9.774   0.808  11.594 -0.2662 -0.5865 -0.2565
17503SOL    HW170119   9.805   0.888  11.637 -1.2574 -0.0311 -0.5371
17503SOL    HW270120   9.713   0.769  11.656 -1.4542  0.0455 -0.9872
17504SOL     OW70121   2.238   4.546  14.026  0.2929  0.2457 -0.2557
17504SOL    HW170122   2.325   4.534  14.063  0.3972  0.3594 -0.4594
17504SOL    HW270123   2.229   4.641  14.018 -0.3286  0.2987  0.8955
17505SOL     OW70124   1.202   7.144   9.311 -0.5905 -0.3786  0.7254
17505SOL    HW170125   1.122   7.091   9.318 -1.3563  0.0487 -2.8213
17505SOL    HW270126   1.268   7.084   9.279 -0.3755 -0.0363  0.5226
17506SOL     OW70127   5.261   5.949   4.249 -0.3346  0.5369 -0.3207
17506SOL    HW170128   5.238   5.857   4.252 -0.6755  0.5680 -1.4571
17506SOL    HW270129   5.299   5.968   4.335 -0.5570 -0.5741  0.0282
17507SOL     OW70130   8.332  10.359   3.216 -0.1697 -0.4876 -0.0168
17507SOL    HW170131   8.395  10.307   3.167  2.1169  2.2590 -0.2678
17507SOL    HW270132   8.358  10.348   3.307  1.0076  0.9284 -0.1463
17508SOL     OW70133   6.261   3.252   4.869  0.1074  0.3317 -0.1256
17508SOL    HW170134   6.195   3.321   4.856 -0.4840 -0.3981 -1.2272
17508SOL    HW270135   6.222   3.194   4.934  0.1246  0.4580 -0.0017
17509SOL     OW70136   6.897   6.717   6.160 -0.5786  0.1926 -0.3118
17509SOL    HW170137   6.896   6.645   6.223  0.1286  1.6886  1.5003
17509SOL    HW270138   6.846   6.786   6.201  1.4229  1.8891 -0.4817
17510SOL     OW70139   8.369   8.210   6.390  0.4891  0.1693 -0.2017
17510SOL    HW170140   8.324   8.224   6.473 -0.3126 -1.4244 -0.3310
17510SOL    HW270141   8.333   8.277   6.332 -0.3976  0.0519  0.1969
17511SOL     OW70142   1.888   2.582  10.732 -0.4521  0.3977  0.1852
17511SOL    HW170143   1.929   2.664  10.759  2.7515 -1.1903  0.5656
17511SOL    HW270144   1.910   2.574  10.639 -2.3279  0.7651 -0.3352
17512SOL     OW70145  11.756  12.730   9.575  0.0876 -0.0762 -0.0588
17512SOL    HW170146  11.689  12.798   9.567 -1.7398 -1.7822 -0.2088
17512SOL    HW270147  11.706  12.648   9.577  2.1367 -1.3759  0.9998
17513SOL     OW70148  11.258   3.609   5.722  0.1939  0.4345 -0.2021
17513SOL    HW170149  11.238   3.654   5.804 -0.1023  1.5922 -0.8844
17513SOL    HW270150  11.219   3.523   5.732  1.6943 -0.1058  1.5669
17514SOL     OW70151   7.907  13.714  10.822 -0.5735  0.3552  0.3077
17514SOL    HW170152   7.907  13.642  10.759 -1.6583  0.7796 -0.2108
17514SOL    HW270153   7.956  13.784  10.778 -2.3404  1.0765 -0.6310
17515SOL     OW70154   4.454   5.806  10.101 -0.2844  0.2837  0.4623
17515SOL    HW170155   4.528   5.748  10.117  1.1572  1.2871 -1.8749
17515SOL    HW270156   4.467   5.879  10.161 -0.8397 -0.7048  1.8240
17516SOL     OW70157  11.808   8.037   7.018 -0.0616 -0.2729 -0.3256
17516SOL    HW170158  11.817   8.121   6.974 -1.9089 -0.6875 -1.6312
17516SOL    HW270159  11.897   8.014   7.045  0.2477  3.0443  2.0481
17517SOL     OW70160   7.958  10.890  13.071  0.4530  0.3358 -0.2078
17517SOL    HW170161   7.902  10.962  13.042 -0.8017 -1.2966 -2.0361
17517SOL    HW270162   7.937  10.880  13.164 -0.1437  1.6031 -0.1817
17518SOL     OW70163   4.494   3.639  13.803  0.2449 -0.4153 -0.2900
17518SOL    HW170164   4.468   3.614  13.892  0.9901 -0.0774  0.0330
17518SOL    HW270165   4.530   3.559  13.765  1.6866 -0.1226  0.3890
17519SOL     OW70166  13.717   3.279   5.388  0.1189 -0.5205 -0.0558
17519SOL    HW170167  13.806   3.251   5.411 -0.6885 -0.9342  3.0615
17519SOL    HW270168  13.716   3.373   5.407 -0.4006 -0.7416  1.0592
17520SOL     OW70169  13.801   1.551   3.368  0.0464  0.2527 -0.0172
17520SOL    HW170170  13.766   1.608   3.437 -1.7995 -1.2041  0.3393
17520SOL    HW270171  13.802   1.606   3.290 -0.3442  1.1881  0.6133
17521SOL     OW70172   1.227   7.407   7.823 -0.3976 -0.2852  0.5942
17521SOL    HW170173   1.209   7.314   7.810  1.7124 -0.3700 -3.2287
17521SOL    HW270174   1.145   7.451   7.800 -0.8647 -1.1513  0.5718
17522SOL     OW70175  13.907   2.598   5.029  0.5113 -0.1397 -0.0126
17522SOL    HW170176  13.813   2.613   5.034  0.6418  0.7148  0.0345
17522SOL    HW270177  13.919   2.511   5.068 -0.1348  0.2392  1.0960
17523SOL     OW70178   8.744   1.816   2.922 -0.5304  0.4985 -0.4696
17523SOL    HW170179   8.800   1.825   2.999 -1.1216  0.9134 -0.0828
17523SOL    HW270180   8.679   1.750   2.947  1.0396 -1.6249 -1.6792
17524SOL     OW70181   7.894  10.882   8.810  0.5533  0.0844 -0.1419
17524SOL    HW170182   7.951  10.837   8.747  0.5892  1.1354 -0.8987
17524SOL    HW270183   7.830  10.816   8.836  1.8046 -0.9836  0.3581
17525SOL     OW70184   3.153  12.179  13.426 -0.5301 -0.0160  0.0884
17525SOL    HW170185   3.173  12.108  13.487  0.6173 -0.0915 -0.3587
17525SOL    HW270186   3.224  12.177  13.362 -0.7156  1.2516 -0.1865
17526SOL     OW70187  13.645   6.620   0.301  0.4668 -0.3174 -0.4624
17526SOL    HW170188  13.680   6.591   0.386  0.4052  0.6041 -0.1133
17526SOL    HW270189  13.651   6.542   0.246  2.8642 -0.2894 -0.3590
17527SOL     OW70190   5.160  12.484   7.805 -0.2737  0.5767 -0.1561
17527SOL    HW170191   5.230  12.468   7.869  0.4987  0.3269 -1.0371
17527SOL    HW270192   5.206  12.514   7.726 -1.1427  0.2326 -0.8161
17528SOL     OW70193   1.840   4.766   1.493 -0.0831 -0.4583 -0.6472
17528SOL    HW170194   1.765   4.818   1.521  0.4636  1.5061 -2.5465
17528SOL    HW270195   1.844   4.694   1.555 -3.2750 -0.4169 -0.2358
17529SOL     OW70196   1.749   7.948   9.840  0.1864 -0.2489  0.6853
17529SOL    HW170197   1.791   7.985   9.763  0.8629  0.7392  1.4999
17529SOL    HW270198   1.663   7.919   9.809 -0.5354  2.3345  0.0438
17530SOL     OW70199   4.025  13.525   2.653 -0.2406 -0.0516 -0.3664
17530SOL    HW170200   4.100  13.580   2.673  0.6983 -1.3296 -0.1902
17530SOL    HW270201   4.055  13.436   2.674 -0.9443 -0.8816 -2.6089
17531SOL     OW70202   9.043  12.055   6.300  0.5548  0.5767 -0.2279
17531SOL    HW170203   9.136  12.036   6.303  0.3663 -0.5749 -0.8590
17531SOL    HW270204   9.024  12.067   6.207  0.1958  1.5070 -0.0447
17532SOL     OW70205   7.464   9.560   1.185 -0.2642 -0.1043 -0.8157
17532SOL    HW170206   7.482   9.468   1.202 -0.4282 -0.3374 -1.8649
17532SOL    HW270207   7.471   9.569   1.090 -0.7983  0.8404 -0.7776
17533SOL     OW70208   6.142  11.351   0.173 -0.4467 -0.1406  0.0639
17533SOL    HW170209   6.104  11.384   0.255  1.8385  2.3998  0.2465
17533SOL    HW270210   6.109  11.410   0.106  2.3568  1.7123  0.1373
17534SOL     OW70211  12.290   3.965   7.262  0.4162  0.0864 -0.0108
17534SOL    HW170212  12.215   4.020   7.283 -0.3229 -1.2094  0.8665
17534SOL    HW270213  12.287   3.955   7.167 -0.1458  0.5588 -0.0437
17535SOL     OW70214   8.764  12.066  12.718  0.4832 -0.4542 -0.3224
17535SOL    HW170215   8.736  12.129  12.785  2.2471  0.2318 -0.1757
17535SOL    HW270216   8.764  11.982  12.763  0.6586 -0.1509  0.2618
17536SOL     OW70217   6.395   2.564   3.215 -0.0051 -0.7474 -0.0281
17536SOL    HW170218   6.460   2.591   3.150 -1.8776 -1.2667 -2.2534
17536SOL    HW270219   6.387   2.640   3.273  0.7765  0.2698 -1.1969
17537SOL     OW70220   9.304   1.075   2.120  0.1312  0.1508  0.2332
17537SOL    HW170221   9.280   1.008   2.185  1.0692  1.9986  2.6512
17537SOL    HW270222   9.256   1.050   2.041  0.9013 -3.6692  0.7909
17538SOL     OW70223   1.619   5.627   0.865 -0.2018 -0.4332 -0.1614
17538SOL    HW170224   1.629   5.610   0.959 -1.1467  1.5338  0.3532
17538SOL    HW270225   1.692   5.686   0.844 -0.8266  0.2835 -0.3267
17539SOL     OW70226   2.722   9.582   8.954 -0.2354 -0.0795  0.0705
17539SOL    HW170227   2.814   9.566   8.975 -0.2022  0.8802  0.6944
17539SOL    HW270228   2.674   9.514   9.002  0.0721  0.0593  0.5753
17540SOL     OW70229   5.113  11.517   6.149 -0.2524 -0.0472 -0.0626
17540SOL    HW170230   5.133  11.433   6.190 -3.0158 -0.6740  0.2225
17540SOL    HW270231   5.066  11.566   6.217 -1.3088  0.5177 -1.1705
17541SOL     OW70232   5.939   2.273  12.830  0.4377 -0.3242 -0.0449
17541SOL    HW170233   5.971   2.193  12.789  2.1841 -0.5418  1.6362
17541SOL    HW270234   6.016   2.328  12.841 -0.2961  0.5192  1.1650
17542SOL     OW70235  13.360   5.922   3.306  0.2526 -0.2623 -0.3092
17542SOL    HW170236  13.351   5.873   3.224  0.5796  0.8571 -1.0207
17542SOL    HW270237  13.430   5.877   3.353  0.5647 -0.4665 -0.9636
17543SOL     OW70238   7.271   1.342   6.562  0.3474  0.9672  0.3301
17543SOL    HW170239   7.310   1.353   6.475  0.4967  3.7077  0.6371
17543SOL    HW270240   7.178   1.363   6.548  0.7117  3.3591  1.0840
17544SOL     OW70241   3.670   0.768   5.056 -0.4591 -0.7423  0.2217
17544SOL    HW170242   3.633   0.736   4.974  0.2114 -0.7321 -0.0928
17544SOL    HW270243   3.729   0.839   5.030 -0.8965 -0.1598  0.7899
17545SOL     OW70244  10.954   9.266   2.585 -0.1886 -0.3045  0.0558
17545SOL    HW170245  10.987   9.180   2.561 -1.3651 -1.2407  1.6070
17545SOL    HW270246  10.861   9.263   2.562  0.0707  1.1827 -1.4121
17546SOL     OW70247  13.636  11.424  11.264 -0.2846 -0.7010 -0.1566
17546SOL    HW170248  13.617  11.352  11.204 -1.5988  0.0722 -0.7373
17546SOL    HW270249  13.557  11.479  11.260  1.2604  1.6065 -0.9923
17547SOL     OW70250   3.679   1.938   2.103 -0.0611 -0.2366 -0.1560
17547SOL    HW170251   3.629   1.946   2.184 -0.5339  0.7737 -0.5275
17547SOL    HW270252   3.764   1.975   2.123 -0.0458 -0.3497 -0.0141
17548SOL     OW70253   4.575  11.589   1.620 -0.1201  0.5138 -0.6341
17548SOL    HW170254   4.544  11.525   1.684 -1.0480  3.5483  2.1965
17548SOL    HW270255   4.503  11.597   1.558  0.9690 -2.8055 -2.6209
17549SOL     OW70256   2.965   5.925   7.799  0.7778 -0.7340  0.1700
17549SOL    HW170257   3.020   5.910   7.876  2.6087 -0.3990 -1.0165
17549SOL    HW270258   2.958   5.839   7.757 -0.3667 -0.9534  0.7737
17550SOL     OW70259  13.512   5.142  12.426 -0.1957 -0.1167 -0.2473
17550SOL    HW170260  13.595   5.190  12.422 -0.3801  0.4108  1.3514
17550SOL    HW270261  13.536   5.051  12.412  0.6089  0.0673 -0.1329
17551SOL     OW70262  10.529   3.186   4.527  0.2704 -0.3828  0.1743
17551SOL    HW170263  10.621   3.174   4.548  0.4460 -3.6683 -1.7477
17551SOL    HW270264  10.526   3.265   4.474  1.7774  0.3670  1.1516
17552SOL     OW70265   4.038  13.518   6.977 -0.0224 -0.1287  0.2618
17552SOL    HW170266   4.083  13.500   6.894  0.1421 -0.5351  0.4374
17552SOL    HW270267   3.978  13.590   6.956 -0.9051 -1.0685 -0.5350
17553SOL     OW70268   5.678   0.324   1.634 -0.3028  0.5394 -1.0620
17553SOL    HW170269   5.672   0.405   1.685 -0.4810  0.2537 -0.6214
17553SOL    HW270270   5.764   0.328   1.593 -0.4162  1.0799 -1.2696
17554SOL     OW70271   7.504  10.945   9.808  0.4441 -0.5970 -0.3618
17554SOL    HW170272   7.522  11.009   9.739  2.0109 -0.8738 -0.2337
17554SOL    HW270273   7.521  10.861   9.767 -3.0041 -1.1339 -0.9831
17555SOL     OW70274  11.513  12.757   1.443  0.1531  0.3821 -0.4975
17555SOL    HW170275  11.484  12.681   1.393  2.3501 -0.1433 -1.0654
17555SOL    HW270276  11.577  12.800   1.387  0.1486  1.7494  0.4909
17556SOL     OW70277   8.193  10.591  11.447  0.0874 -0.5602 -0.0285
17556SOL    HW170278   8.180  10.640  11.528  1.8854  0.9805 -0.6221
17556SOL    HW270279   8.278  10.548  11.457  0.9848  0.7443 -1.5869
17557SOL     OW70280   8.974   0.413   9.133 -0.4305  0.2628  0.2901
17557SOL    HW170281   9.047   0.380   9.082  0.6537  0.1722  1.8228
17557SOL    HW270282   9.008   0.418   9.223 -2.6245 -0.8059  1.2560
17558SOL     OW70283   4.237   8.748   5.203 -0.3369  0.5208 -0.2352
17558SOL    HW170284   4.300   8.780   5.138 -0.1958 -2.4885 -1.7739
17558SOL    HW270285   4.168   8.707   5.151 -1.7194  0.5449  1.5016
17559SOL     OW70286   4.168   1.319   2.344  0.2148  0.1078  0.2085
17559SOL    HW170287   4.207   1.310   2.257 -0.8553 -0.7810 -0.1979
17559SOL    HW270288   4.090   1.264   2.342  0.3979 -0.2854  1.8759
17560SOL     OW70289  13.151   7.077   4.560  0.6595  0.4564  0.1952
17560SOL    HW170290  13.240   7.111   4.572  0.0975  1.9039  0.4714
17560SOL    HW270291  13.136   7.083   4.465  1.3519 -1.1623 -0.0469
17561SOL     OW70292   3.515   6.540   2.906 -0.7824  0.3575 -0.1134
17561SOL    HW170293   3.421   6.541   2.925 -0.6745  0.5006  0.4272
17561SOL    HW270294   3.528   6.611   2.843 -0.7337  1.6930  1.3332
17562SOL     OW70295   4.742   3.925  12.704 -0.1950 -0.3320 -0.2581
17562SOL    HW170296   4.760   3.892  12.616 -1.7220  1.9578 -1.5619
17562SOL    HW270297   4.748   4.021  12.695 -2.5116  0.0847  1.5658
17563SOL     OW70298   3.068   8.523   8.419 -0.2498 -0.0708 -0.0862
17563SOL    HW170299   3.086   8.556   8.331  0.6968 -0.8351 -0.1905
17563SOL    HW270300   3.129   8.450   8.431 -0.2227  0.1465  1.2827
17564SOL     OW70301   1.959   7.039   2.820 -0.4060 -0.0013  0.1493
17564SOL    HW170302   1.910   6.992   2.753  1.6263 -0.2969 -1.2066
17564SOL    HW270303   2.046   7.052   2.783  0.5200  0.7007  2.3526
17565SOL     OW70304  12.137   7.205   2.616  0.2242  0.3931 -0.4418
17565SOL    HW170305  12.168   7.199   2.707 -1.2706  0.0284  0.0700
17565SOL    HW270306  12.167   7.291   2.586  1.7809  0.0161 -0.0210
17566SOL     OW70307  11.515   8.339   3.957 -0.2486 -0.1136 -0.2352
17566SOL    HW170308  11.429   8.333   3.915  0.0755 -2.1701 -0.7087
17566SOL    HW270309  11.538   8.431   3.950 -1.8617  0.2610 -1.2389
17567SOL     OW70310   1.440   0.984  10.964  0.1722  0.1082  0.2514
17567SOL    HW170311   1.447   1.078  10.977  2.2187 -0.0714  0.8742
17567SOL    HW270312   1.346   0.966  10.964 -0.2296  2.0138  0.9992
17568SOL     OW70313   7.651   1.330  10.148 -0.4999 -0.0627  0.1618
17568SOL    HW170314   7.708   1.375  10.210 -1.1235  0.1620  0.5770
17568SOL    HW270315   7.686   1.241  10.143  0.6136  0.3857 -0.5031
17569SOL     OW70316   2.292   6.924   3.792  0.1982  0.9688 -0.5897
17569SOL    HW170317   2.264   6.834   3.810  0.5290  0.9216 -0.3013
17569SOL    HW270318   2.216   6.978   3.816  0.7344  0.9431  1.3266
17570SOL     OW70319   7.907  12.947  10.599 -0.1279  0.0415 -0.3008
17570SOL    HW170320   7.883  12.969  10.689  0.1517 -0.5109 -0.0800
17570SOL    HW270321   7.824  12.930  10.555 -0.2060 -1.9062  0.4664
17571SOL     OW70322   5.389   1.433   1.281  0.7367 -0.5473 -0.0833
17571SOL    HW170323   5.341   1.507   1.319  2.4574  0.5630  0.0880
17571SOL    HW270324   5.407   1.376   1.356  0.5027 -0.4916  0.0166
17572SOL     OW70325   9.402  12.084   5.784  0.2654  0.1259 -0.3875
17572SOL    HW170326   9.396  12.179   5.784 -1.5559  0.0527 -1.5110
17572SOL    HW270327   9.460  12.064   5.710 -1.2908  0.3297 -1.7173
17573SOL     OW70328   1.351   5.400   9.510  0.2376 -0.0565  0.2971
17573SOL    HW170329   1.429   5.348   9.490 -0.3544 -0.1167 -2.3044
17573SOL    HW270330   1.329   5.441   9.426 -1.1512  1.8738  1.5349
17574SOL     OW70331   2.760  12.842   4.152 -0.9524  0.5842 -0.6353
17574SOL    HW170332   2.691  12.854   4.217 -1.7322 -0.1120 -1.2902
17574SOL    HW270333   2.804  12.926   4.147 -1.7969  1.0637 -0.2331
17575SOL     OW70334   8.748   8.615   5.056 -0.1505  0.6669  0.8572
17575SOL    HW170335   8.801   8.605   4.977  1.4143  2.1489  1.6450
17575SOL    HW270336   8.795   8.564   5.122 -1.5234 -0.6714  0.8496
17576SOL     OW70337  11.028   9.080  11.345  0.0546  0.0006  0.3964
17576SOL    HW170338  11.053   9.082  11.437 -0.7773  2.2639  0.6306
17576SOL    HW270339  10.934   9.097  11.344  0.5507  3.8497 -0.8953
17577SOL     OW70340   5.009   3.239   7.859 -0.4034  0.0118  0.1586
17577SOL    HW170341   4.963   3.256   7.941  0.7956 -0.4111  0.9589
17577SOL    HW270342   4.958   3.284   7.792 -2.9995 -1.9352  0.6865
17578SOL     OW70343   0.765  13.031   7.387 -0.2789  0.8227 -0.3343
17578SOL    HW170344   0.836  12.973   7.361 -1.6907 -0.9829 -0.3568
17578SOL    HW270345   0.781  13.049   7.480 -0.0828 -0.0099 -0.2033
17579SOL     OW70346   9.861   1.345  10.734  0.1309 -0.6094  0.3559
17579SOL    HW170347   9.785   1.401  10.754 -0.3061 -1.1182  0.1486
17579SOL    HW270348   9.877   1.359  10.641  1.5227  0.9732  0.7773
17580SOL     OW70349   6.086  13.255  13.761 -0.1892 -0.1161  0.2944
17580SOL    HW170350   6.128  13.337  13.735  1.4304 -1.3695 -1.3146
17580SOL    HW270351   6.154  13.208  13.810 -0.3186 -1.4180 -0.7427
17581SOL     OW70352   9.795  11.631   2.886  0.2636 -0.0065  0.2171
17581SOL    HW170353   9.771  11.592   2.802 -0.7146  0.9256  0.0499
17581SOL    HW270354   9.720  11.616   2.943  0.4943  0.2772  0.6033
17582SOL     OW70355   4.426  11.854   7.866 -0.0869  0.9345  0.9755
17582SOL    HW170356   4.466  11.914   7.803 -0.2596 -0.8478 -0.9258
17582SOL    HW270357   4.455  11.767   7.838 -0.2267  0.0438  3.3526
17583SOL     OW70358  11.678   0.889  10.782  0.5801  0.4470 -0.0893
17583SOL    HW170359  11.768   0.908  10.754  1.3249 -2.2427  0.2568
17583SOL    HW270360  11.641   0.838  10.710 -0.5628  1.1377 -0.0214
17584SOL     OW70361   0.082   3.874  10.617  0.1003  0.1767 -1.2028
17584SOL    HW170362   0.065   3.942  10.552  1.2680  0.3338 -1.3654
17584SOL    HW270363   0.037   3.797  10.583 -3.4828  1.3981  0.2374
17585SOL     OW70364   0.578   3.458   6.038  0.4665  0.5660 -0.3122
17585SOL    HW170365   0.577   3.367   6.006 -0.0238  0.9463 -1.4333
17585SOL    HW270366   0.527   3.455   6.119 -0.9746  0.1133 -1.1849
17586SOL     OW70367  13.695   2.043   7.180  0.5678 -0.1044 -0.2648
17586SOL    HW170368  13.706   1.957   7.141  0.3404  0.7623 -2.3604
17586SOL    HW270369  13.604   2.046   7.209  0.3968 -0.3568 -0.7659
17587SOL     OW70370  11.468   5.373  13.687 -0.3687 -0.2865 -0.3911
17587SOL    HW170371  11.401   5.305  13.687 -0.9885  0.3052  0.2926
17587SOL    HW270372  11.487   5.387  13.594 -1.5981 -0.0873 -0.6322
17588SOL     OW70373   2.300   4.966   4.678  0.1618 -0.1119  0.0036
17588SOL    HW170374   2.257   4.952   4.594  0.4355  1.8651 -0.5163
17588SOL    HW270375   2.393   4.961   4.660  0.2337  0.7490  0.0762
17589SOL     OW70376   1.319   7.379   0.104 -0.2359  0.4888  0.1681
17589SOL    HW170377   1.366   7.302   0.136  0.5366  0.4743 -0.9392
17589SOL    HW270378   1.281   7.351   0.021 -0.4282  1.1344  0.0350
17590SOL     OW70379   7.119   5.789   8.367 -0.0210 -0.3773  0.2041
17590SOL    HW170380   7.109   5.807   8.274  1.1470  4.0927  0.7099
17590SOL    HW270381   7.033   5.809   8.404  0.2221  0.5232  0.3173
17591SOL     OW70382   6.039   4.076   5.378 -0.1702  0.3958  0.4803
17591SOL    HW170383   5.945   4.055   5.374 -0.1153  0.3662 -1.5336
17591SOL    HW270384   6.082   3.991   5.390 -0.2737 -0.0719 -1.8908
17592SOL     OW70385   5.367   8.272  13.972  0.5009 -0.0349  0.2794
17592SOL    HW170386   5.351   8.283  13.878  0.4389  2.3144  0.5009
17592SOL    HW270387   5.370   8.362  14.006 -0.5241 -0.8387  2.7047
17593SOL     OW70388  10.844  12.794   7.804  0.7851  0.1767 -0.1034
17593SOL    HW170389  10.814  12.814   7.892 -0.0018 -2.0578  0.1876
17593SOL    HW270390  10.764  12.776   7.755  1.3323 -0.5786 -0.7419
17594SOL     OW70391  13.912  12.268   8.823 -0.1605 -0.2723  0.0310
17594SOL    HW170392  13.961  12.346   8.850  0.2546 -0.6054  0.2468
17594SOL    HW270393  13.887  12.226   8.905 -0.2786 -0.4346 -0.0871
17595SOL     OW70394   4.195   0.369  12.623 -0.2014 -0.6628 -0.0812
17595SOL    HW170395   4.187   0.295  12.683 -1.2625  0.9633  1.8720
17595SOL    HW270396   4.106   0.386  12.593 -0.3271  1.0637  1.1211
17596SOL     OW70397   3.498   0.891   2.246 -0.2100  0.1056  0.0274
17596SOL    HW170398   3.477   0.818   2.305 -1.5564 -0.4562 -1.0822
17596SOL    HW270399   3.439   0.961   2.273  0.0748  0.2907  0.1693
17597SOL     OW70400   4.970   6.555   7.345 -0.0018 -0.3886 -0.2148
17597SOL    HW170401   5.049   6.506   7.323 -0.2375 -1.3015  0.8927
17597SOL    HW270402   4.967   6.626   7.281  1.2130 -0.8833 -0.8428
17598SOL     OW70403  12.467   7.723   7.740 -0.0775 -0.7455  0.2713
17598SOL    HW170404  12.478   7.728   7.835  1.7657  0.6601  0.0477
17598SOL    HW270405  12.488   7.632   7.718  1.5186 -0.5857  1.0234
17599SOL     OW70406   4.749   1.757   1.095 -0.2510  0.3464 -0.1332
17599SOL    HW170407   4.757   1.673   1.050  0.0284  0.9140 -1.1664
17599SOL    HW270408   4.797   1.819   1.040 -0.1478  1.1254  0.7977
17600SOL     OW70409   9.034  12.352  13.976  0.1309  0.1677 -0.3134
17600SOL    HW170410   8.998  12.439  13.961  0.0253  0.0006 -1.0779
17600SOL    HW270411   9.120  12.367  14.016 -0.9439  0.5681  1.9822
17601SOL     OW70412   6.249   1.766   9.362  0.0463  0.0403 -0.6036
17601SOL    HW170413   6.330   1.780   9.410 -0.3448 -1.0053  0.4095
17601SOL    HW270414   6.277   1.745   9.273  0.8580  0.0412 -0.3561
17602SOL     OW70415   5.085   5.584  12.229 -0.1478  0.1585 -0.3561
17602SOL    HW170416   5.064   5.495  12.255  0.1584  0.4355  0.9362
17602SOL    HW270417   5.009   5.636  12.255  0.5922  0.6080  1.0868
17603SOL     OW70418   5.938  11.113  11.290  0.1848 -0.0596  0.0448
17603SOL    HW170419   5.854  11.147  11.261  0.1972  0.2390  0.3658
17603SOL    HW270420   5.963  11.050  11.221 -0.8455 -1.0201  0.5183
17604SOL     OW70421   2.156  14.066  10.836  0.4405 -0.2951  0.1033
17604SOL    HW170422   2.204  14.108  10.765  1.0801 -1.5731 -0.2515
17604SOL    HW270423   2.091  14.011  10.792 -0.4947  0.4216  0.5591
17605SOL     OW70424   0.759   3.357   1.558 -0.1909  0.2042 -0.0057
17605SOL    HW170425   0.704   3.327   1.630 -0.8868 -1.5012 -1.1786
17605SOL    HW270426   0.845   3.319   1.576  0.1865  1.4690  0.9520
17606SOL     OW70427   1.987   7.142   4.998  0.1279 -0.0367  0.2853
17606SOL    HW170428   2.042   7.079   4.952  1.3097  1.1938 -0.0378
17606SOL    HW270429   1.932   7.088   5.056  0.7487 -1.3798 -0.3354
17607SOL     OW70430   7.438   1.165   5.819  0.0620 -0.2267 -0.1508
17607SOL    HW170431   7.428   1.250   5.862 -1.5896 -0.5471  0.1657
17607SOL    HW270432   7.500   1.118   5.874 -0.0057  0.3152  0.4043
17608SOL     OW70433   3.955  12.919  14.053 -0.0938 -0.0917 -0.4727
17608SOL    HW170434   3.962  12.849  13.987 -0.8192 -0.9692  0.3482
17608SOL    HW270435   3.902  12.987  14.010  0.5132 -0.0940 -1.2389
17609SOL     OW70436   2.701   3.712  12.973 -0.9907 -0.1189  0.4046
17609SOL    HW170437   2.625   3.761  13.003 -1.5708 -0.9086  0.2427
17609SOL    HW270438   2.767   3.779  12.954 -1.1832  0.4990  1.7900
17610SOL     OW70439   1.378   0.059   6.540 -0.2313 -0.0139 -0.6350
17610SOL    HW170440   1.369   0.132   6.478  0.6998 -0.8203 -1.7892
17610SOL    HW270441   1.402  -0.015   6.484  0.7590 -0.7488  0.7161
17611SOL     OW70442   4.714  10.312   2.766 -0.3143  0.4289 -0.0396
17611SOL    HW170443   4.669  10.346   2.689  1.3418 -0.2051 -1.3699
17611SOL    HW270444   4.760  10.234   2.734  0.6769  0.3290  1.5224
17612SOL     OW70445  11.745   3.411   4.799 -0.0967 -0.3197 -0.1749
17612SOL    HW170446  11.798   3.361   4.737 -0.6896 -0.2548 -0.7498
17612SOL    HW270447  11.764   3.371   4.884  3.4657  1.8098  0.2407
17613SOL     OW70448   2.864  13.241  10.425  0.3015  0.3243 -0.2681
17613SOL    HW170449   2.780  13.196  10.428  0.4958 -0.0092  0.5298
17613SOL    HW270450   2.896  13.226  10.336  0.9039 -2.1820  0.2862
17614SOL     OW70451   2.805  12.316   4.082 -0.0612  0.0270 -0.1591
17614SOL    HW170452   2.752  12.270   4.148  0.7403 -0.2301  0.3161
17614SOL    HW270453   2.761  12.297   3.999 -0.5162 -0.4723  0.1874
17615SOL     OW70454   3.705  10.108  11.666  0.5557  0.7549  0.0252
17615SOL    HW170455   3.653  10.102  11.746 -0.6666  1.2358 -0.6954
17615SOL    HW270456   3.703  10.019  11.630  1.1149  0.5360  0.5186
17616SOL     OW70457  10.222   8.806   6.120 -0.4241 -0.6582 -0.0515
17616SOL    HW170458  10.300   8.860   6.137 -0.5900 -0.4450  0.0413
17616SOL    HW270459  10.150   8.856   6.159 -0.7406 -0.3990 -0.9474
17617SOL     OW70460   1.990  12.472   2.443  0.8920 -0.6948  0.1186
17617SOL    HW170461   2.075  12.444   2.477  0.7036 -0.9766  0.3697
17617SOL    HW270462   1.994  12.450   2.350  1.2896 -0.2193  0.0181
17618SOL     OW70463   6.632   4.571   4.472  0.3107  0.6193 -0.2503
17618SOL    HW170464   6.649   4.509   4.401 -2.8308  1.2689 -1.7420
17618SOL    HW270465   6.590   4.519   4.540 -3.1457  1.0817 -1.8627
17619SOL     OW70466  11.269   7.683   0.030  0.0196 -0.6551  0.1868
17619SOL    HW170467  11.177   7.677   0.057 -0.5515 -1.8984 -1.7950
17619SOL    HW270468  11.309   7.603   0.066  0.1551 -0.4756  0.4370
17620SOL     OW70469  13.832   4.398   0.144 -0.1414  0.0762 -0.3969
17620SOL    HW170470  13.785   4.341   0.082  2.0377  1.4923 -3.6347
17620SOL    HW270471  13.923   4.369   0.139  0.2686  0.8762  1.5259
17621SOL     OW70472   1.736   1.911  13.837 -0.1831  0.1971  0.7546
17621SOL    HW170473   1.824   1.931  13.804 -1.3458  3.2995 -0.8511
17621SOL    HW270474   1.684   1.896  13.759 -1.2965 -0.6998  1.6392
17622SOL     OW70475   4.055  12.420   3.132 -0.3034 -0.0247  0.5662
17622SOL    HW170476   3.962  12.439   3.145 -0.5082 -1.5205  1.4618
17622SOL    HW270477   4.059  12.379   3.046 -0.2912  1.0797  0.0216
17623SOL     OW70478  11.490   7.058  13.041 -0.0165 -0.2166 -0.2438
17623SOL    HW170479  11.441   7.052  13.123 -0.3790  0.3944 -0.4013
17623SOL    HW270480  11.468   7.145  13.007 -0.5007 -0.7534 -1.3757
17624SOL     OW70481   3.009   6.926   2.872  0.1358  0.0400 -0.1815
17624SOL    HW170482   2.985   7.014   2.843  0.0915  0.6584  1.6217
17624SOL    HW270483   3.104   6.923   2.866  0.3394  1.0157  1.7626
17625SOL     OW70484  13.756   1.960   1.192  0.3100 -0.2877  0.3133
17625SOL    HW170485  13.683   1.967   1.130  0.9842  0.6685 -0.4194
17625SOL    HW270486  13.716   1.976   1.277 -0.4651 -0.5672  0.0170
17626SOL     OW70487  12.839   1.837   2.081 -0.3727  0.1959  0.1282
17626SOL    HW170488  12.844   1.875   2.169 -0.1610  0.4078  0.0274
17626SOL    HW270489  12.877   1.904   2.024  4.0184 -1.6820  0.3771
17627SOL     OW70490  13.258  11.076   9.408  0.2077  0.2673 -0.0082
17627SOL    HW170491  13.218  11.016   9.345  1.8841 -0.9947  0.0368
17627SOL    HW270492  13.330  11.026   9.446 -0.8039  0.9177  3.0727
17628SOL     OW70493   5.596  11.808   3.937 -0.0012  0.5064 -0.6219
17628SOL    HW170494   5.654  11.743   3.898 -1.2088 -1.6048  0.8805
17628SOL    HW270495   5.624  11.812   4.029  0.4758  2.6636 -0.8174
17629SOL     OW70496   8.364   3.968   1.423 -0.2866  0.2737 -0.3846
17629SOL    HW170497   8.301   4.040   1.430  0.8478  1.1519  1.5176
17629SOL    HW270498   8.359   3.924   1.508 -0.2749 -1.3341 -1.1905
17630SOL     OW70499  11.461   0.028  13.679  0.0442 -0.2621  0.3381
17630SOL    HW170500  11.521  -0.043  13.702 -1.2913 -1.5891 -0.0721
17630SOL    HW270501  11.439   0.011  13.587 -0.9968  0.1455  0.5010
17631SOL     OW70502   0.954   8.579   3.247  0.0828 -0.6020 -0.1698
17631SOL    HW170503   0.925   8.636   3.318  0.6513  0.3421 -0.6824
17631SOL    HW270504   0.931   8.491   3.276 -0.4030 -0.1558  0.8307
17632SOL     OW70505   2.208   8.252   7.401  0.0126  0.2620 -0.3703
17632SOL    HW170506   2.182   8.241   7.492 -1.3858 -0.5341 -0.8314
17632SOL    HW270507   2.127   8.277   7.356 -0.0999 -2.4362 -1.8991
17633SOL     OW70508   1.349   1.920  13.233  0.1995 -0.4405 -0.3105
17633SOL    HW170509   1.255   1.902  13.238  0.3416 -1.5440 -1.1024
17633SOL    HW270510   1.383   1.890  13.318 -0.4576  2.3151  1.0466
17634SOL     OW70511   1.216   6.910   9.621  0.0558 -0.2071  0.4856
17634SOL    HW170512   1.272   6.987   9.621  0.3703 -0.3887 -1.3490
17634SOL    HW270513   1.128   6.943   9.643  0.5625  0.3164  1.8031
17635SOL     OW70514  13.850   6.802   8.666  0.4401 -0.1327  0.4777
17635SOL    HW170515  13.892   6.823   8.582 -0.1773 -0.0409  0.1848
17635SOL    HW270516  13.922   6.799   8.729  0.6459  2.4706  0.4728
17636SOL     OW70517  11.688   5.601   2.019 -0.2371  0.0438 -0.2160
17636SOL    HW170518  11.643   5.574   1.939  2.2066  0.9251 -2.0216
17636SOL    HW270519  11.618   5.620   2.081 -2.2720 -0.0828 -2.3388
17637SOL     OW70520   2.468   4.347   8.701  0.5423 -0.3932 -0.0787
17637SOL    HW170521   2.536   4.294   8.661 -0.0309 -1.4342  0.2790
17637SOL    HW270522   2.386   4.310   8.667  0.1277  0.3143  0.1252
17638SOL     OW70523   5.802  10.395   4.850 -0.5205  0.0331 -0.3814
17638SOL    HW170524   5.851  10.475   4.831 -0.2098 -0.4902 -1.9224
17638SOL    HW270525   5.713  10.426   4.868 -0.7649  0.6759 -2.3784
17639SOL     OW70526  11.131  11.031  12.057 -0.1505 -0.1895  0.0037
17639SOL    HW170527  11.100  10.946  12.087 -1.9839  0.2351 -0.5868
17639SOL    HW270528  11.054  11.073  12.018  0.6502  1.8109  0.4280
17640SOL     OW70529   8.806   2.851   7.195  0.1913 -0.3364  0.2745
17640SOL    HW170530   8.791   2.757   7.192  1.4429 -0.6010  1.6981
17640SOL    HW270531   8.881   2.866   7.137  0.7604 -0.4014  0.9779
17641SOL     OW70532   2.514  10.816   6.638 -0.0704  0.6504  0.0009
17641SOL    HW170533   2.600  10.859   6.645 -0.0147  0.4635  0.5146
17641SOL    HW270534   2.478  10.848   6.556  0.3822  0.9375 -0.0902
17642SOL     OW70535  13.602   8.335  11.132  0.0395  0.3271 -0.1029
17642SOL    HW170536  13.618   8.315  11.040 -0.6152 -1.3721  0.1034
17642SOL    HW270537  13.556   8.419  11.132 -0.0027  0.3130 -1.3379
17643SOL     OW70538  13.192   4.412   8.460  0.3726 -0.1053  0.5469
17643SOL    HW170539  13.150   4.440   8.541  0.3336  0.7615  0.2368
17643SOL    HW270540  13.125   4.427   8.392  0.5107 -0.5294  0.3122
17644SOL     OW70541   9.785  12.558   2.791 -0.2249 -0.0828  0.1559
17644SOL    HW170542   9.848  12.630   2.787  1.5021 -1.4234  1.5436
17644SOL    HW270543   9.831  12.484   2.751 -1.4603 -0.7485 -0.0705
17645SOL     OW70544   7.239   8.251  11.885  0.0490 -0.4606  0.3424
17645SOL    HW170545   7.292   8.327  11.860 -2.2780  1.5216  1.0314
17645SOL    HW270546   7.187   8.232  11.807 -1.0609  0.2091  0.9003
17646SOL     OW70547   8.959   9.665   9.470 -0.1392  0.5029 -0.1928
17646SOL    HW170548   9.044   9.645   9.431 -0.7365 -0.5850 -0.9974
17646SOL    HW270549   8.895   9.624   9.412 -1.0988 -0.9366  1.7408
17647SOL     OW70550   4.345   7.616   1.415 -0.3309  0.2245 -0.9019
17647SOL    HW170551   4.257   7.603   1.450 -1.3096  1.6139 -2.6832
17647SOL    HW270552   4.369   7.531   1.378 -1.1395 -0.0285 -0.8562
17648SOL     OW70553   8.271   3.431  12.864 -0.2759  0.0822  0.6774
17648SOL    HW170554   8.326   3.458  12.938  2.5936 -0.0259 -1.2668
17648SOL    HW270555   8.185   3.470  12.883  0.8118  1.5249  3.1778
17649SOL     OW70556   1.451   9.888   1.066  0.3465  0.0880  0.2578
17649SOL    HW170557   1.541   9.880   1.033 -0.0245  2.7065 -1.7341
17649SOL    HW270558   1.453   9.848   1.152  3.0094 -1.4203 -0.4117
17650SOL     OW70559   7.910   2.750   5.045 -0.2867  0.3951 -0.0431
17650SOL    HW170560   8.002   2.727   5.035 -0.4278 -0.1633 -0.0905
17650SOL    HW270561   7.904   2.786   5.134  0.0175  0.6632 -0.1267
17651SOL     OW70562   9.542   3.249   6.036 -0.2868 -0.2456 -0.7997
17651SOL    HW170563   9.448   3.264   6.046 -0.5536 -2.3075  0.2141
17651SOL    HW270564   9.578   3.268   6.123  0.1190 -0.3399 -0.9458
17652SOL     OW70565   2.273   2.270   4.919 -0.2706  0.4963 -0.2381
17652SOL    HW170566   2.214   2.273   4.844  0.3340 -1.0233 -0.8284
17652SOL    HW270567   2.223   2.307   4.992 -2.3864 -1.7089 -0.4437
17653SOL     OW70568   8.861  14.068   4.482 -0.0843 -0.2407  0.1564
17653SOL    HW170569   8.954  14.079   4.504  0.2197 -1.9599 -0.1170
17653SOL    HW270570   8.860  13.993   4.422 -1.6273 -0.0261 -0.1197
17654SOL     OW70571  12.275   7.330   0.531  0.3837 -0.4659 -0.6611
17654SOL    HW170572  12.352   7.277   0.551 -1.2706 -2.4915  0.8516
17654SOL    HW270573  12.311   7.415   0.504  3.1265 -1.7578 -1.4770
17655SOL     OW70574  11.854   4.304   0.742  0.1203 -0.0795  0.1640
17655SOL    HW170575  11.825   4.319   0.831  0.2213 -0.3825  0.2484
17655SOL    HW270576  11.944   4.272   0.750 -0.0396 -0.5974 -0.0139
17656SOL     OW70577  11.655   5.744   6.679  0.1049  0.1089  0.2110
17656SOL    HW170578  11.729   5.683   6.686 -0.7410 -0.9944 -0.2766
17656SOL    HW270579  11.679   5.817   6.737  0.8358 -0.9994  1.3636
17657SOL     OW70580   2.218  13.334   0.923 -0.6024 -0.4365  0.0603
17657SOL    HW170581   2.278  13.301   0.990  1.1740 -0.2856 -1.3649
17657SOL    HW270582   2.218  13.265   0.856 -1.5551 -0.1516 -0.2432
17658SOL     OW70583   2.579   9.884   2.696 -0.3429  0.3271 -0.4917
17658SOL    HW170584   2.495   9.923   2.672 -0.2224 -0.4901 -2.4265
17658SOL    HW270585   2.644   9.949   2.669 -0.2868  0.2731 -0.4874
17659SOL     OW70586   0.075   5.769   9.072 -0.2556  0.0651 -0.2386
17659SOL    HW170587   0.024   5.710   9.017  1.1646 -0.5860 -0.9116
17659SOL    HW270588   0.153   5.788   9.020  0.9312 -0.2203  1.3595
17660SOL     OW70589   4.809   6.168   4.408 -0.0424  0.2158  0.6398
17660SOL    HW170590   4.800   6.086   4.360 -1.0811  0.4787  0.3510
17660SOL    HW270591   4.759   6.155   4.488 -1.1336  0.9098  0.1027
17661SOL     OW70592  13.941   2.065   4.995  0.1271  0.2784 -0.2729
17661SOL    HW170593  13.964   2.154   4.970  0.1563  0.4006  0.1909
17661SOL    HW270594  14.005   2.041   5.061  0.0352 -0.0395 -0.2972
17662SOL     OW70595   3.279   1.578   1.508 -0.0140 -0.8614 -0.3434
17662SOL    HW170596   3.214   1.643   1.481 -1.8459 -0.5095  4.0878
17662SOL    HW270597   3.227   1.503   1.536  1.6622 -1.7843  0.4271
17663SOL     OW70598  14.003  12.629   7.838  0.4001  0.0393  0.4003
17663SOL    HW170599  13.972  12.697   7.779 -1.0377 -0.9811 -0.0824
17663SOL    HW270600  14.063  12.576   7.785  0.1614 -0.0775  0.2425
17664SOL     OW70601  12.330  10.921   6.651 -0.2688  0.6389  0.2282
17664SOL    HW170602  12.344  10.885   6.563  0.0334  2.6677 -0.6159
17664SOL    HW270603  12.363  11.011   6.645 -1.7626  1.3586  1.9585
17665SOL     OW70604  12.956   8.016   7.099 -0.2652  0.4748  0.4300
17665SOL    HW170605  13.026   8.081   7.107  0.9333 -0.9844  3.0904
17665SOL    HW270606  12.941   7.986   7.189 -0.6081 -3.0185 -0.6441
17666SOL     OW70607   7.185   7.902   7.506 -0.2929  0.5692  0.5948
17666SOL    HW170608   7.099   7.913   7.467  0.9401  1.7353 -1.9958
17666SOL    HW270609   7.214   7.990   7.528  0.9506  0.4078 -0.2688
17667SOL     OW70610   8.100   5.699   3.259 -0.3195  0.2262  0.3219
17667SOL    HW170611   8.184   5.733   3.289 -0.7494  0.3430  1.4622
17667SOL    HW270612   8.047   5.777   3.244  0.0084  0.1888 -1.1970
17668SOL     OW70613   0.342   1.172   4.079  0.1943 -0.2734  0.1966
17668SOL    HW170614   0.270   1.144   4.023  0.2074  0.6108 -0.2900
17668SOL    HW270615   0.367   1.257   4.044  0.4462  0.1361  1.3337
17669SOL     OW70616   1.180   8.470   8.893 -0.0293 -0.0594 -0.1927
17669SOL    HW170617   1.134   8.533   8.949 -0.1440  0.6563 -1.0669
17669SOL    HW270618   1.110   8.421   8.849 -0.0043  0.9792 -1.4694
17670SOL     OW70619  10.461  12.830  11.315  0.1972  0.1750 -0.4236
17670SOL    HW170620  10.380  12.787  11.339  0.2694 -0.6577 -1.5434
17670SOL    HW270621  10.434  12.916  11.283 -0.0167  0.7347  1.2192
17671SOL     OW70622   4.464  10.716   3.466 -0.2057 -0.4304 -0.0156
17671SOL    HW170623   4.493  10.693   3.377 -0.4496 -0.8472  0.0091
17671SOL    HW270624   4.471  10.634   3.515  0.9653  0.0338  0.6344
17672SOL     OW70625   3.757   5.338  13.057 -0.0601 -0.0460  0.2101
17672SOL    HW170626   3.664   5.320  13.067 -0.1615  0.4783  0.2319
17672SOL    HW270627   3.761   5.416  13.001  0.3448  0.3455  0.7776
17673SOL     OW70628   3.923   1.816   1.762  0.1977 -1.1257 -0.3113
17673SOL    HW170629   3.959   1.731   1.785  1.0254 -0.7574 -0.1855
17673SOL    HW270630   3.828   1.805   1.766  0.2980 -2.1093 -0.5771
17674SOL     OW70631  13.753  11.713   7.848  0.3095 -0.4591  0.4536
17674SOL    HW170632  13.661  11.718   7.819  0.5492  0.0536 -0.2485
17674SOL    HW270633  13.795  11.788   7.806  0.6542  0.4235  2.2791
17675SOL     OW70634  13.251  12.563   2.002 -0.2617 -0.1784 -0.3049
17675SOL    HW170635  13.220  12.484   1.959 -0.6689 -0.3819  0.3469
17675SOL    HW270636  13.247  12.543   2.096  0.3366  0.3509 -0.1544
17676SOL     OW70637   8.948  12.248   3.503  0.2671 -0.1771  0.5707
17676SOL    HW170638   8.966  12.158   3.476  2.0571 -0.1613  1.4843
17676SOL    HW270639   8.948  12.244   3.599 -0.9026  0.5866  0.6127
17677SOL     OW70640  10.464  13.539  10.690  0.1297  0.2995 -0.0840
17677SOL    HW170641  10.508  13.456  10.707  0.8865  0.6207 -0.4527
17677SOL    HW270642  10.526  13.606  10.717  0.0935  0.7670 -1.1239
17678SOL     OW70643   5.329   2.504   0.009 -0.0628  0.1744 -0.5150
17678SOL    HW170644   5.411   2.537  -0.029  1.0475 -0.0061  1.6079
17678SOL    HW270645   5.276   2.583   0.022  0.4113  0.4887 -0.4576
17679SOL     OW70646  13.893  11.666  10.958 -0.0743  0.3007 -0.3822
17679SOL    HW170647  13.965  11.715  10.919 -0.1470  1.5099  0.9503
17679SOL    HW270648  13.930  11.626  11.036 -0.0270 -1.8285 -1.4111
17680SOL     OW70649   3.906  10.056  11.265  0.5187 -0.2618  0.0604
17680SOL    HW170650   3.964  10.064  11.190  1.1403  2.0569  0.7175
17680SOL    HW270651   3.890   9.962  11.273  0.6227 -0.5897 -2.7791
17681SOL     OW70652   4.726   3.577  10.742  0.2112 -0.3897  0.2540
17681SOL    HW170653   4.709   3.548  10.832  0.4904  0.3479  0.5488
17681SOL    HW270654   4.718   3.497  10.690 -0.5030 -0.7261  0.8576
17682SOL     OW70655   1.564   8.552   2.779  0.1046  0.5201 -0.2888
17682SOL    HW170656   1.610   8.516   2.854  0.4808 -2.3371 -1.7669
17682SOL    HW270657   1.607   8.636   2.762  3.4675 -1.0594 -0.3461
17683SOL     OW70658   5.276   1.345   8.660 -0.0781  0.2399  0.2533
17683SOL    HW170659   5.269   1.437   8.687  1.8595  0.4236  0.2725
17683SOL    HW270660   5.260   1.346   8.566 -0.8670  0.4617  0.3795
17684SOL     OW70661  12.337   3.070   3.630  0.2906 -0.0141  0.8851
17684SOL    HW170662  12.399   3.049   3.560  0.0100  0.2800  0.5471
17684SOL    HW270663  12.272   3.000   3.627  1.4227 -1.2033  2.2504
17685SOL     OW70664   2.049  10.038  10.674 -0.0493 -0.1990 -0.3503
17685SOL    HW170665   2.122  10.075  10.724 -0.1587 -1.3661  0.7566
17685SOL    HW270666   1.971  10.070  10.719 -0.1471 -1.4493  0.4450
17686SOL     OW70667  13.143   8.018   3.796  0.0126 -0.6215  0.7165
17686SOL    HW170668  13.160   8.031   3.889  2.6597  1.3421  0.0739
17686SOL    HW270669  13.229   8.016   3.755 -1.0664 -1.2393 -1.7495
17687SOL     OW70670  13.284   5.071   1.822 -0.4071  0.2084  0.3185
17687SOL    HW170671  13.261   5.129   1.749  1.6639  0.3108 -0.3185
17687SOL    HW270672  13.369   5.103   1.851 -0.8108 -0.3834  2.2437
17688SOL     OW70673   7.644   2.427   4.948 -0.2115  0.6833 -0.1132
17688SOL    HW170674   7.553   2.399   4.938 -0.8686  2.1378  1.2826
17688SOL    HW270675   7.677   2.374   5.021 -0.6882  1.6933  0.8811
17689SOL     OW70676   4.718   5.076   2.069 -0.3286 -0.1985 -0.4817
17689SOL    HW170677   4.777   5.010   2.032  1.1983  0.3403  0.8610
17689SOL    HW270678   4.740   5.077   2.162 -2.4312  0.1073  0.0486
17690SOL     OW70679   2.105   2.785  12.370 -0.3996  0.0642 -0.4924
17690SOL    HW170680   2.129   2.846  12.300 -2.6010  0.6132 -0.8405
17690SOL    HW270681   2.104   2.699  12.328 -3.2980  0.5571 -1.6912
17691SOL     OW70682   0.775  11.440  12.146  0.0036  0.2011 -0.2457
17691SOL    HW170683   0.749  11.405  12.061  0.1406 -1.6218  0.4029
17691SOL    HW270684   0.845  11.381  12.175 -1.1513 -0.2665  1.8386
17692SOL     OW70685   0.751   4.301   6.791 -0.0369  0.5278 -0.0678
17692SOL    HW170686   0.683   4.276   6.854  0.0416 -0.2016 -0.2619
17692SOL    HW270687   0.713   4.280   6.706 -0.1989  1.6484 -0.2832
17693SOL     OW70688   4.723  10.334   7.575  0.0181 -0.1047  0.4906
17693SOL    HW170689   4.711  10.428   7.590  0.4796  0.2973 -1.4395
17693SOL    HW270690   4.639  10.304   7.542  1.0494  0.6751 -3.3892
17694SOL     OW70691  13.507   7.228  11.610  0.3480  0.1810 -0.3656
17694SOL    HW170692  13.457   7.147  11.616  1.4833 -0.5561 -0.6923
17694SOL    HW270693  13.519   7.256  11.701 -0.7821  0.4585 -0.2899
17695SOL     OW70694   0.702   9.755  10.216 -0.1349 -0.2685  0.6325
17695SOL    HW170695   0.767   9.685  10.214 -1.1927 -1.2997 -1.9031
17695SOL    HW270696   0.750   9.834  10.190  0.2156 -0.9592 -0.9196
17696SOL     OW70697  10.714   4.508   0.271 -0.1336  0.0825 -0.2733
17696SOL    HW170698  10.787   4.452   0.298  1.4530  1.7819 -0.7971
17696SOL    HW270699  10.732   4.528   0.179 -1.0472  0.8424 -0.3029
17697SOL     OW70700  10.659  11.109   3.837 -0.1446  0.0007 -0.8887
17697SOL    HW170701  10.740  11.078   3.796 -1.2372 -1.0430 -2.3695
17697SOL    HW270702  10.590  11.056   3.796 -1.7294  1.8314 -0.7177
17698SOL     OW70703  13.908   0.904   4.262  0.4739 -0.2768  0.6950
17698SOL    HW170704  13.981   0.947   4.306  0.2899  1.0585 -0.2215
17698SOL    HW270705  13.935   0.899   4.170 -0.9375  1.1384  0.1461
17699SOL     OW70706   0.352  10.637  10.483  0.3572 -0.2715  0.0726
17699SOL    HW170707   0.381  10.548  10.461  0.1411  0.2032 -2.3488
17699SOL    HW270708   0.304  10.667  10.406  1.7920  2.5508  0.1632
17700SOL     OW70709   7.444   1.566   4.821 -0.1586  0.0956 -0.1618
17700SOL    HW170710   7.478   1.608   4.743  0.1275  1.5193  0.6977
17700SOL    HW270711   7.434   1.474   4.796 -0.7879  0.6378 -2.0970
17701SOL     OW70712  10.230   1.554   4.549  0.0492  0.5832  0.1566
17701SOL    HW170713  10.136   1.558   4.529  0.4968  1.3236 -2.1088
17701SOL    HW270714  10.234   1.537   4.643 -2.3482  0.2826  0.2640
17702SOL     OW70715   0.490   2.651  10.204 -0.0326  0.4097  0.3830
17702SOL    HW170716   0.417   2.679  10.149 -0.6525  0.5538  1.2698
17702SOL    HW270717   0.560   2.632  10.141 -1.4507 -1.7774 -0.6674
17703SOL     OW70718   6.085   2.732   1.253 -0.2889 -0.5395  0.0093
17703SOL    HW170719   6.029   2.709   1.179 -0.8700 -1.6321  0.7539
17703SOL    HW270720   6.025   2.757   1.323  0.2202 -0.0885  0.2967
17704SOL     OW70721   0.769   9.476   2.841  0.2487 -0.2209 -0.3562
17704SOL    HW170722   0.707   9.410   2.811  2.3784 -2.2792 -0.4390
17704SOL    HW270723   0.845   9.465   2.785  1.3700  1.1095  0.8281
17705SOL     OW70724   4.720   6.709  12.084  0.9380 -0.2303  0.2177
17705SOL    HW170725   4.661   6.659  12.028 -2.1021  2.8403  0.3012
17705SOL    HW270726   4.760   6.774  12.025 -1.7195  2.5396  1.1979
17706SOL     OW70727   0.987   0.981  12.606 -0.2490  0.0653  0.3772
17706SOL    HW170728   0.987   1.061  12.553  1.7700  0.3655  0.7554
17706SOL    HW270729   0.894   0.956  12.612 -0.7080  1.0735 -1.6745
17707SOL     OW70730   7.244   6.883   4.801  0.4990  0.2824  0.7858
17707SOL    HW170731   7.311   6.935   4.756 -1.8718  1.1551 -2.1134
17707SOL    HW270732   7.239   6.802   4.751  0.0591 -0.1779  1.5537
17708SOL     OW70733   6.260  11.936   4.896 -0.4293  0.1813  0.3053
17708SOL    HW170734   6.201  11.870   4.932  0.1918 -0.4670  0.1701
17708SOL    HW270735   6.333  11.940   4.957 -0.2755  0.4650  0.1093
17709SOL     OW70736   0.918   1.828   1.199  0.3401  0.3821  0.0965
17709SOL    HW170737   0.888   1.821   1.289  0.2448 -2.1646 -0.0611
17709SOL    HW270738   0.839   1.814   1.146  0.2786  2.4346 -0.4525
17710SOL     OW70739   2.408  11.235   4.520 -0.1013 -0.1922  0.6079
17710SOL    HW170740   2.392  11.142   4.531 -0.0437 -0.1491  1.1178
17710SOL    HW270741   2.354  11.276   4.588 -0.2150  0.1498  0.3114
17711SOL     OW70742  11.774   4.190   9.605 -0.2501  0.4410 -0.3910
17711SOL    HW170743  11.864   4.219   9.590 -0.1484 -0.5380 -1.9061
17711SOL    HW270744  11.777   4.095   9.591 -1.6982  0.5254 -1.4466
17712SOL     OW70745  10.479   8.555   4.300  0.3005  0.0892 -0.1693
17712SOL    HW170746  10.425   8.634   4.298 -0.1429 -0.1831  0.6918
17712SOL    HW270747  10.512   8.551   4.389 -0.3641 -1.1446  0.0360
17713SOL     OW70748  11.672   2.952   4.307  0.1107 -0.1199  0.2858
17713SOL    HW170749  11.638   2.979   4.222 -0.3475  0.4500  0.6403
17713SOL    HW270750  11.650   3.024   4.366 -0.1589 -0.7841  1.0239
17714SOL     OW70751   3.051   1.016   4.864  0.9969 -0.2687 -0.0150
17714SOL    HW170752   3.126   0.994   4.920  0.2977  0.7921  1.4251
17714SOL    HW270753   3.002   0.934   4.856  0.8849 -0.3549  1.3332
17715SOL     OW70754   1.173  12.310   0.904  0.4906 -0.1855  0.5204
17715SOL    HW170755   1.186  12.282   0.994 -0.3188 -1.1448  0.3629
17715SOL    HW270756   1.175  12.229   0.853 -0.1265  0.2230 -0.1833
17716SOL     OW70757   0.109  11.330  10.334 -0.0859  0.0851  0.7740
17716SOL    HW170758   0.151  11.287  10.409  2.5626  1.2092  0.0483
17716SOL    HW270759   0.088  11.418  10.366  0.7558  0.4594  0.3299
17717SOL     OW70760   0.077   3.431   0.119  0.0781 -0.0804  0.2128
17717SOL    HW170761   0.145   3.475   0.171 -1.5219  0.4550  1.9958
17717SOL    HW270762   0.029   3.378   0.183 -0.4483 -1.4133 -1.2133
17718SOL     OW70763   2.900  12.053   4.794  0.3016 -0.3717  0.8478
17718SOL    HW170764   2.810  12.024   4.806 -0.1892  1.2119  1.1984
17718SOL    HW270765   2.926  12.087   4.880  0.8135  0.3056  0.4313
17719SOL     OW70766   7.659   3.002  10.175 -0.2682 -0.2933  0.4445
17719SOL    HW170767   7.680   3.039  10.260  0.0954 -0.3239  0.3712
17719SOL    HW270768   7.588   3.056  10.141 -0.5954 -0.4460  0.8803
17720SOL     OW70769  12.837   6.328   7.167 -0.1682  0.4748 -0.4992
17720SOL    HW170770  12.898   6.401   7.179 -1.1721  1.0857  1.2333
17720SOL    HW270771  12.883   6.268   7.108  2.2670  0.7368  0.9652
17721SOL     OW70772   5.470   4.382  10.893 -0.2838  0.3352  0.5390
17721SOL    HW170773   5.522   4.329  10.832 -0.2338  1.3804 -0.3564
17721SOL    HW270774   5.450   4.462  10.844 -0.0846  1.2924  1.9662
17722SOL     OW70775   9.509   4.273  11.643 -0.0316  1.1085 -0.2630
17722SOL    HW170776   9.589   4.300  11.688 -1.8003  3.1357  1.9217
17722SOL    HW270777   9.492   4.185  11.676  0.6224  1.1702  0.2640
17723SOL     OW70778   8.918   1.644   7.529  0.4536 -0.4957  0.3029
17723SOL    HW170779   8.905   1.551   7.551  0.0332 -1.0359 -1.9493
17723SOL    HW270780   8.949   1.643   7.438  0.2308  1.5849  0.1523
17724SOL     OW70781  12.204   1.844  10.942 -0.2169  0.1636 -0.0094
17724SOL    HW170782  12.123   1.797  10.957  0.1992 -0.1083  1.5221
17724SOL    HW270783  12.261   1.781  10.898  0.4511 -0.9457  2.3153
17725SOL     OW70784  10.632   5.667   7.244  0.3249 -0.0014 -0.2346
17725SOL    HW170785  10.640   5.574   7.264 -2.7264  0.0337  1.8231
17725SOL    HW270786  10.705   5.708   7.289  0.8266 -1.2522  0.1173
17726SOL     OW70787   6.501   7.719  13.997  0.1239 -0.4846  0.3593
17726SOL    HW170788   6.409   7.717  14.022 -0.2930 -0.4615 -1.0911
17726SOL    HW270789   6.549   7.717  14.080 -1.1830  0.4792  1.1621
17727SOL     OW70790   0.627  11.828  13.329  0.0195 -0.0100 -0.1443
17727SOL    HW170791   0.579  11.814  13.410 -0.5281  1.3218 -0.2117
17727SOL    HW270792   0.585  11.904  13.289  2.1773  1.2608 -0.1850
17728SOL     OW70793   6.962   8.790   8.575 -0.1122  0.2907  0.3473
17728SOL    HW170794   7.006   8.857   8.522 -0.8606 -0.2475 -1.0261
17728SOL    HW270795   6.987   8.708   8.534 -2.3647 -0.0336 -0.5107
17729SOL     OW70796  10.479  13.770   9.375  0.0162  0.0884 -0.5380
17729SOL    HW170797  10.452  13.723   9.297 -0.9031  1.1197 -0.8787
17729SOL    HW270798  10.397  13.786   9.423 -0.2309  3.6733 -1.8002
17730SOL     OW70799   4.539  11.204  10.532 -0.2266  0.5274  0.4890
17730SOL    HW170800   4.605  11.201  10.601  0.6472  2.1249 -0.2019
17730SOL    HW270801   4.499  11.291  10.541 -0.4267  0.5796 -0.6897
17731SOL     OW70802   0.751   9.582  13.102  0.2641 -0.0632  0.3109
17731SOL    HW170803   0.766   9.530  13.023  1.0481  1.9775 -0.9658
17731SOL    HW270804   0.827   9.639  13.108 -1.4725  2.3792  0.4224
17732SOL     OW70805   6.460  13.896  11.321  0.2826  0.0024 -0.1810
17732SOL    HW170806   6.471  13.865  11.231 -0.4601  0.0641 -0.2987
17732SOL    HW270807   6.550  13.911  11.353  0.5776 -0.7087 -0.6618
17733SOL     OW70808   7.475   6.774  13.638  0.3652  0.0637  0.4580
17733SOL    HW170809   7.482   6.679  13.637 -0.7577 -0.0535 -1.6872
17733SOL    HW270810   7.397   6.791  13.691  1.5060 -0.0464  2.2834
17734SOL     OW70811  13.781   2.600  12.915  0.4393 -0.0857 -0.3389
17734SOL    HW170812  13.805   2.523  12.967  1.1166  0.3952  0.0964
17734SOL    HW270813  13.864   2.646  12.901 -0.0508  0.9837  0.1057
17735SOL     OW70814   9.273  12.191   6.312 -0.6371 -0.2855  0.2576
17735SOL    HW170815   9.310  12.189   6.224 -1.1600  2.7237 -0.1479
17735SOL    HW270816   9.342  12.230   6.367 -0.9597 -0.4465  0.7876
17736SOL     OW70817   3.327   9.356   8.113  0.1162 -0.3159  0.5008
17736SOL    HW170818   3.255   9.374   8.053 -1.0131  0.1468  1.9372
17736SOL    HW270819   3.292   9.378   8.200  2.1793  0.5043  1.1903
17737SOL     OW70820   7.671   0.040   2.882  0.2975  0.4194  0.8821
17737SOL    HW170821   7.747  -0.009   2.914  0.5092  1.3038  1.7897
17737SOL    HW270822   7.697   0.131   2.887 -1.2415  0.8241  2.3882
17738SOL     OW70823   2.667  12.499  13.199  0.4727 -0.2595  0.3404
17738SOL    HW170824   2.758  12.527  13.210  0.1978  0.1630  1.8728
17738SOL    HW270825   2.637  12.544  13.120  1.2234  0.6022  0.5316
17739SOL     OW70826   7.302   8.457  13.805 -0.1442 -0.5839 -0.1083
17739SOL    HW170827   7.373   8.415  13.757 -0.5600 -0.8920 -0.4572
17739SOL    HW270828   7.346   8.504  13.876  0.5554  0.4633 -1.1919
17740SOL     OW70829  10.867   1.491   4.493 -0.5334  0.4423  0.0254
17740SOL    HW170830  10.862   1.468   4.586 -1.7659 -0.4435 -0.2196
17740SOL    HW270831  10.818   1.573   4.485 -2.2303 -0.5224 -0.1002
17741SOL     OW70832   8.136  13.530   2.220  0.7067  0.0915  0.0044
17741SOL    HW170833   8.095  13.616   2.230  1.0234  0.2094  0.3009
17741SOL    HW270834   8.191  13.521   2.298  1.1683 -0.1073 -0.3464
17742SOL     OW70835  12.532   7.572   6.510 -0.0534  0.3165  0.6933
17742SOL    HW170836  12.565   7.533   6.591 -1.0078 -0.4461  0.7316
17742SOL    HW270837  12.511   7.497   6.454  1.1162  0.8337 -0.4994
17743SOL     OW70838   1.888   8.760   4.611  0.0982  0.2946  0.6238
17743SOL    HW170839   1.800   8.778   4.642  0.4024 -0.0712  1.7531
17743SOL    HW270840   1.892   8.664   4.604  1.0608  0.1233  2.7329
17744SOL     OW70841  10.956   6.639  11.765  1.0914  0.1655 -0.0642
17744SOL    HW170842  10.863   6.652  11.787  1.0925  0.6229 -0.3244
17744SOL    HW270843  10.996   6.610  11.847  0.7503  0.1184  0.0899
17745SOL     OW70844   4.742   1.365  12.217 -0.5539 -0.4833 -0.1181
17745SOL    HW170845   4.728   1.459  12.207  0.5864 -0.3033 -0.1133
17745SOL    HW270846   4.656   1.331  12.243 -0.6756  0.7308  1.1454
17746SOL     OW70847   2.043   3.206   9.130  0.2453 -0.4837  0.1594
17746SOL    HW170848   2.087   3.124   9.153 -0.6340 -0.3554  2.5449
17746SOL    HW270849   1.966   3.209   9.187  0.0907  1.8791 -0.0829
17747SOL     OW70850   9.500  10.799   5.119  0.1254 -0.3344  0.1598
17747SOL    HW170851   9.576  10.754   5.155 -1.0275 -1.6427  1.0266
17747SOL    HW270852   9.465  10.740   5.052  0.5155  0.7682 -1.0553
17748SOL     OW70853   8.857   6.352   1.159  0.1970 -0.0102 -0.4565
17748SOL    HW170854   8.920   6.410   1.117 -0.5800 -1.7017 -4.5259
17748SOL    HW270855   8.907   6.274   1.183  0.2864  0.0783 -0.3614
17749SOL     OW70856   9.783  11.954   8.914  0.0987  0.5600 -0.1078
17749SOL    HW170857   9.796  11.859   8.908 -0.9942  0.3614  0.3966
17749SOL    HW270858   9.696  11.964   8.953  0.4358  1.7742  0.3795
17750SOL     OW70859  13.956  13.971  13.288 -0.6254 -0.3174 -0.1577
17750SOL    HW170860  13.862  13.971  13.271 -1.2498  0.8939  2.7872
17750SOL    HW270861  13.964  13.959  13.382  2.0815  1.4758 -0.0376
17751SOL     OW70862   8.095   4.266  11.337  0.1168 -0.0696  0.1053
17751SOL    HW170863   8.181   4.247  11.374 -0.1760 -1.4482  0.1282
17751SOL    HW270864   8.093   4.216  11.255 -1.2582 -1.3883  0.8990
17752SOL     OW70865   2.825   0.814   6.340  0.1109  0.6480  0.1446
17752SOL    HW170866   2.849   0.833   6.249  0.7911  2.7699  0.6952
17752SOL    HW270867   2.758   0.879   6.362  1.0409  1.1880  1.5785
17753SOL     OW70868   4.756   6.446  12.321  0.0693 -0.0765  0.2769
17753SOL    HW170869   4.839   6.440  12.369  2.4874  1.4954 -3.2602
17753SOL    HW270870   4.725   6.535  12.339 -1.1767 -0.8010  1.9291
17754SOL     OW70871   1.366   0.853   4.163 -0.3577 -0.0366  0.4990
17754SOL    HW170872   1.419   0.844   4.084  1.0716  1.6483  1.2037
17754SOL    HW270873   1.304   0.923   4.141 -1.0270 -0.6731  0.3386
17755SOL     OW70874   0.147  13.299   9.952 -0.1542  0.0839  0.0213
17755SOL    HW170875   0.066  13.336   9.918 -0.5609 -0.8797 -0.0944
17755SOL    HW270876   0.127  13.207   9.966  1.3759 -0.5360 -1.5160
17756SOL     OW70877   7.798   7.591   9.654  0.3106  0.2489  0.3106
17756SOL    HW170878   7.894   7.588   9.653  0.3112 -0.6302 -1.6688
17756SOL    HW270879   7.777   7.676   9.692  1.8899  0.6503  0.3516
17757SOL     OW70880   2.449   4.538  10.859 -0.3514  0.5885 -0.6200
17757SOL    HW170881   2.537   4.541  10.822 -0.6733  0.1371 -1.4250
17757SOL    HW270882   2.440   4.449  10.893 -1.2234 -0.0290 -2.3693
17758SOL     OW70883   3.591   5.939   5.374 -0.0834 -0.3770 -0.1172
17758SOL    HW170884   3.501   5.916   5.350  0.1746 -0.3409 -1.1651
17758SOL    HW270885   3.585   6.031   5.399 -0.0016  0.2768 -2.2806
17759SOL     OW70886   3.779  12.244   2.835  0.3047  0.0730 -0.2345
17759SOL    HW170887   3.687  12.225   2.820  0.5292 -0.1345 -1.4429
17759SOL    HW270888   3.785  12.339   2.835 -0.1613  0.1470  1.6322
17760SOL     OW70889   6.086  13.947   5.765 -0.5154 -0.2059  0.2696
17760SOL    HW170890   6.133  14.022   5.728 -1.0470  0.6342  1.2323
17760SOL    HW270891   6.143  13.872   5.750 -0.0419  0.3645 -0.8574
17761SOL     OW70892   1.167   4.865  13.506  0.4921 -0.1226  0.2590
17761SOL    HW170893   1.172   4.957  13.481 -0.2633  0.4667  2.1043
17761SOL    HW270894   1.258   4.840  13.523  0.6615  0.3874  0.1239
17762SOL     OW70895  13.252   2.935   5.735 -0.4019 -0.4372 -0.4382
17762SOL    HW170896  13.258   2.970   5.646  0.4115 -0.3513 -0.3615
17762SOL    HW270897  13.167   2.891   5.738 -1.4429  1.4508 -0.5601
17763SOL     OW70898  13.302  13.379   1.036 -0.2051 -0.1090 -0.2116
17763SOL    HW170899  13.315  13.447   1.102  0.2825 -0.7645  0.3849
17763SOL    HW270900  13.285  13.427   0.955 -0.6738  0.7094  0.3537
17764SOL     OW70901  11.020  11.324   1.365  0.1227 -0.4374  0.5457
17764SOL    HW170902  10.995  11.389   1.430 -0.1114  1.1189 -1.0118
17764SOL    HW270903  10.939  11.301   1.321  0.6396  1.2520 -1.5166
17765SOL     OW70904   8.597   3.171   1.263  0.0254 -0.3628 -0.0320
17765SOL    HW170905   8.599   3.088   1.214  1.1800 -0.8812  0.8542
17765SOL    HW270906   8.577   3.237   1.196  2.7397 -0.8896 -1.4996
17766SOL     OW70907   0.731   1.172   7.670  0.3785 -0.9389 -0.2067
17766SOL    HW170908   0.656   1.207   7.717  0.0836 -0.2921 -1.1522
17766SOL    HW270909   0.695   1.131   7.592  0.8852 -1.8352  0.0132
17767SOL     OW70910   9.102   8.893  13.669  0.7757 -0.0589  0.1209
17767SOL    HW170911   9.064   8.828  13.610  0.6045  2.2569 -2.5211
17767SOL    HW270912   9.160   8.842  13.725 -1.1428 -2.8014 -0.1210
17768SOL     OW70913   0.956   9.863   1.569 -0.7496 -0.0897  0.2112
17768SOL    HW170914   1.025   9.930   1.568  0.1158 -0.9170 -1.6590
17768SOL    HW270915   1.000   9.783   1.540 -1.3847 -1.9393  3.7820
17769SOL     OW70916   4.349   3.823  13.215  0.4448  0.0111  0.0187
17769SOL    HW170917   4.268   3.827  13.267 -0.5294 -0.6468 -1.3621
17769SOL    HW270918   4.387   3.738  13.237 -0.2969 -0.5438 -0.7675
17770SOL     OW70919  10.165   1.801   0.141  0.5902 -0.9944  0.2268
17770SOL    HW170920  10.074   1.801   0.111  0.8781 -1.9432 -0.6885
17770SOL    HW270921  10.159   1.815   0.236 -0.4112  0.5958 -0.0309
17771SOL     OW70922   0.774   5.493  12.977  0.3131  0.2046  0.0444
17771SOL    HW170923   0.735   5.417  12.933  0.1532 -0.0272  0.5732
17771SOL    HW270924   0.699   5.540  13.013  0.3064  1.2681 -1.2758
17772SOL     OW70925  11.940  13.156   3.314  0.4152  0.3607 -0.0703
17772SOL    HW170926  12.001  13.178   3.243 -0.1293 -0.4513 -0.8249
17772SOL    HW270927  11.994  13.111   3.379  0.4410 -1.7182 -1.3985
17773SOL     OW70928   3.816  11.289   6.022 -0.3050 -0.6903 -0.2587
17773SOL    HW170929   3.729  11.250   6.018 -0.7147  0.2743 -1.4657
17773SOL    HW270930   3.807  11.360   6.086 -0.2057 -1.0284  0.1361
17774SOL     OW70931   5.869   4.901  11.180  0.5256  0.4191  0.5365
17774SOL    HW170932   5.929   4.875  11.249  0.2376  0.6944  0.8955
17774SOL    HW270933   5.925   4.942  11.113  0.7267  0.7856  0.9253
17775SOL     OW70934   5.402   8.061   1.669  0.4402  0.2153  0.0305
17775SOL    HW170935   5.449   8.050   1.751  1.0107 -2.7143 -0.5631
17775SOL    HW270936   5.450   8.007   1.606 -2.9857 -2.2003 -0.8451
17776SOL     OW70937   6.135   9.782  12.568 -0.0520  0.1435  0.0385
17776SOL    HW170938   6.121   9.730  12.647 -0.6289  0.3454  0.0814
17776SOL    HW270939   6.230   9.788  12.559  0.0294  0.7284  1.1277
17777SOL     OW70940   1.124   0.912   0.940 -0.8548 -0.3071 -0.1624
17777SOL    HW170941   1.217   0.924   0.960 -0.9797  0.5177 -0.0589
17777SOL    HW270942   1.119   0.925   0.846 -1.0433  0.8715 -0.0033
17778SOL     OW70943   5.176  13.180   0.576  0.3563 -0.6488 -1.2376
17778SOL    HW170944   5.234  13.253   0.556  2.3874 -2.0404 -0.7488
17778SOL    HW270945   5.161  13.186   0.671 -1.9228  0.7743 -1.6155
17779SOL     OW70946   9.717   3.527  12.001  0.5373  0.0985  0.1154
17779SOL    HW170947   9.683   3.589  11.936 -0.5344 -0.7729 -0.1836
17779SOL    HW270948   9.670   3.549  12.082 -1.1747 -1.4016 -0.4072
17780SOL     OW70949  10.153   3.798   9.289  0.2179 -0.6753  0.2512
17780SOL    HW170950  10.070   3.796   9.336 -0.0382  1.3976 -0.0507
17780SOL    HW270951  10.130   3.783   9.197  0.4383 -2.1365  0.4072
17781SOL     OW70952   0.414  13.422   3.455  0.3726 -0.0423 -0.3631
17781SOL    HW170953   0.398  13.356   3.388 -2.1832  1.0423 -0.9574
17781SOL    HW270954   0.412  13.505   3.407  1.6469  0.6152  0.6384
17782SOL     OW70955   1.994   2.759   1.243 -0.2984  0.3800  0.3819
17782SOL    HW170956   1.995   2.675   1.198  0.2871  0.7246 -0.2658
17782SOL    HW270957   2.085   2.775   1.267 -0.0912  1.6687 -1.1081
17783SOL     OW70958   2.847   2.277  11.569 -0.0341 -0.2707 -0.0410
17783SOL    HW170959   2.783   2.246  11.632  0.4353 -0.0396  0.5568
17783SOL    HW270960   2.930   2.273  11.615  0.1650  0.9643 -0.2574
17784SOL     OW70961   6.195  13.030   4.717  0.4005 -0.0941 -0.2781
17784SOL    HW170962   6.118  12.984   4.749  0.4756 -1.0720 -1.4389
17784SOL    HW270963   6.263  13.011   4.781  0.2928 -1.2058 -0.4807
17785SOL     OW70964  12.138  11.338  13.103  0.1031  0.2252 -0.0412
17785SOL    HW170965  12.052  11.368  13.133  0.3207  0.6054  0.2161
17785SOL    HW270966  12.130  11.243  13.097  0.0915  0.1150  1.3949
17786SOL     OW70967  13.653   9.670   4.865  0.2390  0.1237  0.1861
17786SOL    HW170968  13.732   9.634   4.905  1.6541  3.7739  1.0614
17786SOL    HW270969  13.601   9.702   4.938 -0.0561  1.4196 -0.5542
17787SOL     OW70970  10.294  12.474   2.857  0.2821 -0.0501 -0.2780
17787SOL    HW170971  10.294  12.400   2.918  1.9880 -1.2069 -1.5854
17787SOL    HW270972  10.339  12.441   2.780 -2.0385  1.2770 -2.3290
17788SOL     OW70973  11.224   4.774   9.971 -0.0843 -0.1676  0.8819
17788SOL    HW170974  11.311   4.765   9.932 -0.9970 -0.5001 -1.2032
17788SOL    HW270975  11.213   4.696  10.026  0.5372 -0.6315  0.3557
17789SOL     OW70976   9.519   2.022  11.381 -0.0007 -0.2433  0.2291
17789SOL    HW170977   9.491   2.058  11.466  1.7576 -0.8473  1.1215
17789SOL    HW270978   9.470   1.940  11.373 -0.0815 -0.2513  0.7378
17790SOL     OW70979   3.693   2.787  10.514 -0.2043  0.0208 -0.3689
17790SOL    HW170980   3.659   2.810  10.600  0.9090  0.1832  0.0490
17790SOL    HW270981   3.691   2.869  10.464 -0.0285  0.1187 -0.2137
17791SOL     OW70982   9.079   4.914   1.852 -0.6335 -0.0929 -0.2446
17791SOL    HW170983   9.161   4.864   1.853 -1.8007 -2.3178 -2.7388
17791SOL    HW270984   9.090   4.977   1.782 -0.0381  1.7235  1.3900
17792SOL     OW70985  11.759  10.457  12.082 -0.5589 -0.0762 -0.1677
17792SOL    HW170986  11.821  10.518  12.121 -1.6360  0.4954  0.6920
17792SOL    HW270987  11.803  10.427  12.002  0.2642  1.3357 -0.2898
17793SOL     OW70988   3.825  10.165   5.138 -0.6785  0.2948  1.0468
17793SOL    HW170989   3.824  10.112   5.217 -0.2700 -0.7915  0.3467
17793SOL    HW270990   3.912  10.205   5.137 -0.2273 -0.6600  0.5464
17794SOL     OW70991  12.838   2.639  11.584  0.4715  0.1483  0.3999
17794SOL    HW170992  12.782   2.658  11.509 -0.2173 -1.8114  0.3509
17794SOL    HW270993  12.821   2.710  11.645 -0.7917  0.5064 -0.3217
17795SOL     OW70994   4.123  10.101   1.070  0.1558  0.1279  0.0264
17795SOL    HW170995   4.149  10.009   1.069  0.9047  0.3205  0.9014
17795SOL    HW270996   4.198  10.147   1.107 -0.9119  0.8552  1.3895
17796SOL     OW70997   3.880   0.162   3.718  0.3329 -0.1198  0.3302
17796SOL    HW170998   3.851   0.201   3.636 -0.2778  1.0731  1.0998
17796SOL    HW270999   3.964   0.121   3.696  0.8056  1.2784 -0.6004
17797SOL     OW71000   0.585   1.360   7.306 -0.5761 -0.8747 -0.0722
17797SOL    HW171001   0.640   1.436   7.327  0.0405 -1.8498  2.2017
17797SOL    HW271002   0.496   1.394   7.306 -0.4793 -0.3533  2.6462
17798SOL     OW71003   1.352  13.960   7.410 -0.1059  0.2190  0.0845
17798SOL    HW171004   1.261  13.988   7.424 -0.5916 -0.4739 -1.4874
17798SOL    HW271005   1.364  13.887   7.471 -0.7677 -0.0051 -0.0449
17799SOL     OW71006   0.769   5.868  13.030  0.7782 -0.4148 -0.3737
17799SOL    HW171007   0.676   5.887  13.046  1.2654  0.2536  2.0439
17799SOL    HW271008   0.813   5.952  13.045  1.9224 -1.0776  0.0634
17800SOL     OW71009   7.253  11.864   0.917  0.4827  0.4923  0.0563
17800SOL    HW171010   7.216  11.939   0.963  0.4912  0.7573 -0.3623
17800SOL    HW271011   7.308  11.820   0.982  0.4622  0.8391  0.3066
17801SOL     OW71012   7.640   2.087   8.072 -0.2952  0.1271 -0.2070
17801SOL    HW171013   7.705   2.143   8.029 -2.0332  1.1113 -1.7016
17801SOL    HW271014   7.671   1.998   8.057  0.1467  0.5229 -1.9370
17802SOL     OW71015   0.669   7.031   6.589  0.6399 -0.0008  0.1578
17802SOL    HW171016   0.732   6.969   6.552  0.5630 -0.2203  0.3943
17802SOL    HW271017   0.588   7.015   6.540  0.3718 -0.6976  0.8071
17803SOL     OW71018  12.076  13.810   3.355 -0.1692 -0.1133 -0.5687
17803SOL    HW171019  12.132  13.833   3.281  1.6238 -2.4228 -0.0408
17803SOL    HW271020  12.135  13.807   3.430 -1.1227 -1.7403  0.1841
17804SOL     OW71021   6.497   5.596   9.213  0.1483 -0.5518 -0.1856
17804SOL    HW171022   6.512   5.556   9.298  1.4327  0.9312  0.3365
17804SOL    HW271023   6.561   5.667   9.208 -0.3930 -0.1334 -2.0820
17805SOL     OW71024   6.507   5.858   4.890 -0.5816 -0.4741  0.0260
17805SOL    HW171025   6.505   5.810   4.972 -0.1621  0.2531  0.4746
17805SOL    HW271026   6.423   5.905   4.887 -2.3259 -3.4189 -1.8044
17806SOL     OW71027   7.680   3.821  11.842 -0.4365 -0.8151  0.5573
17806SOL    HW171028   7.736   3.743  11.849  0.5669 -0.0856  0.9449
17806SOL    HW271029   7.671   3.851  11.933  2.2926  1.6058  0.1917
17807SOL     OW71030   3.104   1.908   3.048 -0.5455  0.5742  0.0822
17807SOL    HW171031   3.192   1.902   3.010 -1.0215  1.8502 -1.3202
17807SOL    HW271032   3.084   1.819   3.075  1.4826  0.3901  1.1909
17808SOL     OW71033   9.565  10.375   2.103  0.3525 -0.5396  0.0767
17808SOL    HW171034   9.574  10.282   2.081 -1.1005 -0.4207 -1.2020
17808SOL    HW271035   9.537  10.375   2.195  0.4417 -1.3648  0.1119
17809SOL     OW71036  13.634   3.267   9.574  0.7605  0.0903 -0.0304
17809SOL    HW171037  13.694   3.308   9.637  2.6186  1.4238 -2.4730
17809SOL    HW271038  13.688   3.250   9.497 -1.9835  1.4301 -2.4593
17810SOL     OW71039  13.215   3.231  10.758 -0.0702 -0.2617  0.2409
17810SOL    HW171040  13.238   3.174  10.685  2.5701 -1.0415  1.5578
17810SOL    HW271041  13.180   3.171  10.824 -0.9312  0.2194  0.2381
17811SOL     OW71042   5.847  13.667  13.383 -0.4561  0.8667  0.0758
17811SOL    HW171043   5.893  13.743  13.345  0.1712 -0.3449 -1.7088
17811SOL    HW271044   5.913  13.624  13.438 -0.1912  0.5100 -0.5139
17812SOL     OW71045  10.226   0.592  13.791 -0.9260 -0.1733  0.4864
17812SOL    HW171046  10.224   0.533  13.866  0.7941  0.6319  1.2243
17812SOL    HW271047  10.270   0.671  13.823  0.3209  0.0016 -1.4640
17813SOL     OW71048   7.491   8.987  12.675 -0.5499 -0.0713 -0.4604
17813SOL    HW171049   7.551   8.912  12.683 -0.7765 -0.0843  1.5845
17813SOL    HW271050   7.547   9.063  12.691 -0.4262  0.1901 -2.0131
17814SOL     OW71051   4.596  12.970   0.645 -0.0866  0.3975  0.7180
17814SOL    HW171052   4.503  12.962   0.623 -0.0218 -1.1293  0.8987
17814SOL    HW271053   4.598  13.020   0.726 -1.0513 -2.5211  2.6939
17815SOL     OW71054  12.090  11.323   0.532  0.1216 -0.1909  0.2528
17815SOL    HW171055  12.141  11.306   0.453  0.0683 -2.0343  0.5793
17815SOL    HW271056  12.141  11.389   0.580  1.5117 -0.9984 -0.0795
17816SOL     OW71057  10.180  10.809   6.970  0.3901 -0.3938  0.5160
17816SOL    HW171058  10.209  10.797   6.880  1.1991 -0.7136  0.8028
17816SOL    HW271059  10.089  10.837   6.964 -0.2865 -2.5941 -0.3336
17817SOL     OW71060   6.655  10.682   9.485 -0.8005 -0.0175 -0.5964
17817SOL    HW171061   6.563  10.682   9.510 -0.6825  0.2315 -0.1590
17817SOL    HW271062   6.681  10.774   9.487 -0.8484  0.0508 -1.8827
17818SOL     OW71063   8.395   7.684   3.692 -0.0332  0.2171 -0.6289
17818SOL    HW171064   8.318   7.662   3.744  0.9603 -0.3248  0.6729
17818SOL    HW271065   8.451   7.735   3.750  0.3712  1.0644 -1.7184
17819SOL     OW71066  11.097   2.426  11.421 -0.4412 -0.2214  0.2739
17819SOL    HW171067  11.114   2.385  11.336  0.1265  1.2210 -0.3347
17819SOL    HW271068  11.180   2.419  11.468  0.2129  1.7173 -0.5031
17820SOL     OW71069   3.962  13.444   4.919  0.2055 -0.3104  0.1377
17820SOL    HW171070   4.056  13.434   4.907  0.4104  1.3679  0.0720
17820SOL    HW271071   3.954  13.515   4.983 -1.0233 -0.5413  0.2653
17821SOL     OW71072   0.029  14.002   5.644 -0.1848  0.4981 -0.5384
17821SOL    HW171073   0.117  13.984   5.679  1.1285  2.4405 -2.6237
17821SOL    HW271074   0.012  13.928   5.585 -0.0980 -0.0364  0.0910
17822SOL     OW71075   0.588   1.687  13.075  0.1010  0.2800 -0.7120
17822SOL    HW171076   0.634   1.707  13.157  0.1779 -1.0468 -0.4053
17822SOL    HW271077   0.599   1.766  13.021  1.5364  0.5193 -0.1107
17823SOL     OW71078   0.084   8.190  11.247  0.2097 -0.3784 -1.0092
17823SOL    HW171079   0.089   8.105  11.204 -0.6471  0.2137 -2.3408
17823SOL    HW271080  -0.009   8.206  11.259  0.3918  0.0221 -0.0147
17824SOL     OW71081  10.954   4.680   5.292 -0.1121  0.5120 -0.3219
17824SOL    HW171082  10.899   4.604   5.312 -1.1708  1.2127 -0.4714
17824SOL    HW271083  10.892   4.747   5.263  0.9562  0.9028 -1.8426
17825SOL     OW71084   0.929   7.505   8.725 -0.5510 -0.6202 -0.7000
17825SOL    HW171085   0.902   7.468   8.641  0.2474  0.2398 -1.3570
17825SOL    HW271086   0.920   7.599   8.714  1.0443 -0.4000 -0.3697
17826SOL     OW71087   1.554   1.332   4.148 -0.3211  0.1196  0.0031
17826SOL    HW171088   1.635   1.375   4.176 -0.2841  0.5855 -0.7940
17826SOL    HW271089   1.581   1.244   4.121 -0.4559 -0.5915  2.0316
17827SOL     OW71090  12.316   8.740   2.163 -0.2635 -0.7220  0.7825
17827SOL    HW171091  12.324   8.698   2.078 -1.9540 -1.2655  0.8545
17827SOL    HW271092  12.286   8.671   2.222 -0.1957 -0.1030  1.5673
17828SOL     OW71093   9.264   6.165   5.106 -0.5533 -0.0950  0.0046
17828SOL    HW171094   9.179   6.207   5.121 -1.4440 -1.3785 -1.1886
17828SOL    HW271095   9.285   6.185   5.015 -0.2390 -0.9164 -0.1084
17829SOL     OW71096   0.443   0.613   4.536  0.3203  0.2534 -0.0457
17829SOL    HW171097   0.474   0.680   4.597  1.3395 -0.7877  0.6189
17829SOL    HW271098   0.365   0.577   4.577 -0.7924  1.6465 -0.8592
17830SOL     OW71099   3.987   0.507  13.392 -0.4866 -0.0547 -0.3219
17830SOL    HW171100   4.038   0.477  13.317 -0.0285 -2.0813  0.7015
17830SOL    HW271101   3.967   0.598  13.374  4.2115  1.2173 -0.4776
17831SOL     OW71102   3.398  13.677   0.040 -0.1067 -0.2516  0.0615
17831SOL    HW171103   3.365  13.613   0.103  0.3097  1.5976  2.2933
17831SOL    HW271104   3.324  13.693  -0.018 -0.6511 -1.7319  0.3003
17832SOL     OW71105   4.996   0.586   0.844 -0.7777 -0.1029  0.2786
17832SOL    HW171106   4.991   0.605   0.937  0.8089 -0.5574  0.4768
17832SOL    HW271107   5.089   0.571   0.827 -0.1882  4.3876 -2.2193
17833SOL     OW71108   4.520   8.988   1.959 -0.4812  0.2947  1.0041
17833SOL    HW171109   4.557   8.965   1.874 -0.0943  0.5610  1.0994
17833SOL    HW271110   4.595   9.014   2.012 -0.9993  2.8001  0.5974
17834SOL     OW71111   4.218   6.036   9.281 -0.4334  0.9684 -0.5206
17834SOL    HW171112   4.259   5.976   9.343  0.1852 -0.0121 -1.8352
17834SOL    HW271113   4.150   6.081   9.332 -1.1382 -1.0717  0.4447
17835SOL     OW71114   8.615   0.028   2.038  0.5479  0.2112 -0.1218
17835SOL    HW171115   8.654  -0.047   1.993  0.1395 -0.0284 -0.0709
17835SOL    HW271116   8.530   0.039   1.997  0.5162  0.5112  0.0247
17836SOL     OW71117   4.047   9.828   8.778 -0.1461 -0.4509  0.2440
17836SOL    HW171118   4.118   9.765   8.783  0.0096 -0.3973 -1.1411
17836SOL    HW271119   4.003   9.810   8.695 -1.7676 -0.4907  1.0669
17837SOL     OW71120  13.187   4.919  12.858  0.9537  0.4070  0.2380
17837SOL    HW171121  13.225   4.955  12.778  4.3142  2.0347  2.3664
17837SOL    HW271122  13.258   4.920  12.921 -0.9515 -2.7470  2.7699
17838SOL     OW71123   1.557   4.993   5.168 -0.4996  0.2174 -0.5079
17838SOL    HW171124   1.636   4.946   5.143 -1.3101 -0.7064 -1.3837
17838SOL    HW271125   1.551   4.979   5.263 -0.6959 -1.4460 -0.7274
17839SOL     OW71126   8.059   2.423   0.340 -0.2557  0.4208 -0.1467
17839SOL    HW171127   8.030   2.379   0.260 -0.8855  0.1406  0.2280
17839SOL    HW271128   8.105   2.501   0.309 -1.2101  0.7544 -0.7786
17840SOL     OW71129  13.187  10.773   0.344  0.9524  0.0195  0.2772
17840SOL    HW171130  13.234  10.847   0.306  1.6165 -0.1710  0.7093
17840SOL    HW271131  13.096  10.788   0.320  1.4004 -0.3701 -1.8382
17841SOL     OW71132   7.132  10.514   1.913 -0.1611  0.6630 -0.4885
17841SOL    HW171133   7.158  10.435   1.959  1.2337  1.4270  0.0912
17841SOL    HW271134   7.201  10.528   1.848 -1.7789 -0.0567 -2.4522
17842SOL     OW71135   6.047  12.953  12.529  0.4142 -0.4387 -0.1780
17842SOL    HW171136   6.069  13.046  12.519 -0.9540 -0.2102 -1.3170
17842SOL    HW271137   6.019  12.926  12.442  1.4218 -2.1202 -0.0243
17843SOL     OW71138  10.086   5.180  10.785 -0.7625 -0.7169 -0.1593
17843SOL    HW171139  10.053   5.110  10.842 -1.0512 -0.4848 -0.0382
17843SOL    HW271140  10.157   5.139  10.736 -0.1047 -0.7655  0.7906
17844SOL     OW71141   3.126  10.827   4.733 -0.2688  0.2902 -0.1225
17844SOL    HW171142   3.189  10.812   4.663 -1.3101 -0.5235 -0.9221
17844SOL    HW271143   3.045  10.852   4.687 -1.0585 -0.5634  0.7694
17845SOL     OW71144   1.898   1.425   8.354  0.1210  0.5478  0.1418
17845SOL    HW171145   1.948   1.440   8.434 -0.7296  1.4437  0.5225
17845SOL    HW271146   1.941   1.480   8.288  1.6213 -1.1546 -0.3981
17846SOL     OW71147  12.880   5.613   2.867  0.0277 -0.2343 -0.2559
17846SOL    HW171148  12.973   5.635   2.863 -0.2375  0.7474 -1.9416
17846SOL    HW271149  12.865   5.558   2.790 -1.1586  1.3648 -1.2411
17847SOL     OW71150   2.029  11.080  11.721  0.3007  0.1587  0.3517
17847SOL    HW171151   2.091  11.028  11.669 -0.0940  0.2469 -0.2088
17847SOL    HW271152   1.969  11.015  11.757  0.0730  0.1777  0.0114
17848SOL     OW71153   1.740   6.013   0.160  0.5124 -0.2068 -0.0270
17848SOL    HW171154   1.744   6.017   0.064  0.0203  1.2191 -0.0155
17848SOL    HW271155   1.779   5.929   0.182  1.3860 -0.2126 -1.4402
17849SOL     OW71156   0.378   1.756  10.589  0.7914  0.3892 -0.1513
17849SOL    HW171157   0.348   1.680  10.638  2.1202  0.1624  0.3557
17849SOL    HW271158   0.463   1.730  10.553  0.6216  1.1471 -1.1417
17850SOL     OW71159   2.336  13.823  10.235 -0.1229 -0.2551  0.2397
17850SOL    HW171160   2.406  13.762  10.260  1.7946  1.6741 -0.0883
17850SOL    HW271161   2.281  13.829  10.313  0.0849 -1.7520  0.5512
17851SOL     OW71162   8.339  12.830   2.025  0.2036  0.4208 -0.1497
17851SOL    HW171163   8.349  12.801   2.115  1.8100 -1.2072 -0.7814
17851SOL    HW271164   8.304  12.753   1.979 -0.3290  1.1340 -0.9776
17852SOL     OW71165   4.179   3.685   8.391  0.0039 -0.2917 -0.1762
17852SOL    HW171166   4.195   3.680   8.296  0.0891 -0.9623 -0.1332
17852SOL    HW271167   4.254   3.734   8.425  0.2727 -0.5511 -0.3877
17853SOL     OW71168   5.892  13.254  11.070 -0.3449 -0.2341  0.1939
17853SOL    HW171169   5.824  13.235  11.134 -0.7220 -2.8034 -0.8711
17853SOL    HW271170   5.951  13.178  11.073  1.1874  0.8550 -0.5747
17854SOL     OW71171   8.634   4.353   6.301 -0.0312 -0.2798  0.0012
17854SOL    HW171172   8.615   4.277   6.247  0.0867  0.3511 -0.9576
17854SOL    HW271173   8.654   4.423   6.238 -0.0911  0.5296  0.8555
17855SOL     OW71174   9.284   6.509   4.024  0.1882 -0.2850  0.5142
17855SOL    HW171175   9.345   6.448   4.065 -1.4117 -1.9672  0.5249
17855SOL    HW271176   9.249   6.561   4.096  1.5468  0.6807  0.5086
17856SOL     OW71177   2.402  11.998   1.079  0.0284  0.1768  0.0102
17856SOL    HW171178   2.459  12.053   1.133 -0.6467  2.1934 -1.2261
17856SOL    HW271179   2.463  11.946   1.026  0.7027  0.2388  0.7174
17857SOL     OW71180   8.857  11.376   4.084  0.4355  0.3002 -0.3281
17857SOL    HW171181   8.951  11.358   4.088  0.5241  0.3985 -1.4660
17857SOL    HW271182   8.817  11.292   4.063  0.1243 -0.0159  1.4318
17858SOL     OW71183   9.808   0.066   5.310 -0.5058 -0.3256 -0.0913
17858SOL    HW171184   9.731   0.058   5.367 -0.4253  0.5114  0.1430
17858SOL    HW271185   9.804  -0.012   5.254 -3.1441  1.0431 -2.0403
17859SOL     OW71186   4.822   3.195   9.507 -0.6270  0.0678 -0.6562
17859SOL    HW171187   4.799   3.103   9.501  0.3281 -0.3259  0.9624
17859SOL    HW271188   4.751   3.241   9.462 -0.8718 -1.4611 -1.9060
17860SOL     OW71189   5.427   6.660   2.150 -0.1392  0.4759 -0.8045
17860SOL    HW171190   5.408   6.581   2.201  0.7409  0.9033  0.2243
17860SOL    HW271191   5.341   6.692   2.123 -0.4809 -1.6133 -2.5316
17861SOL     OW71192   6.333   3.177  10.640 -0.7554 -0.1094 -0.1660
17861SOL    HW171193   6.277   3.251  10.661  1.8858  2.3525 -1.2148
17861SOL    HW271194   6.283   3.126  10.577 -3.2776 -0.2012  1.7590
17862SOL     OW71195  11.406   0.396   9.838  0.0768  0.1039 -0.1446
17862SOL    HW171196  11.468   0.407   9.766 -1.4122  2.5474 -1.1980
17862SOL    HW271197  11.365   0.311   9.823 -0.7120  0.8519 -2.6912
17863SOL     OW71198   3.421  10.256  12.657  0.7817 -0.3596  0.1692
17863SOL    HW171199   3.479  10.271  12.583 -0.3166 -0.9090 -0.8281
17863SOL    HW271200   3.424  10.337  12.708 -0.1746  0.8905 -1.6797
17864SOL     OW71201   7.515   0.962  11.894  0.1058  0.1982 -0.0795
17864SOL    HW171202   7.521   0.886  11.837  0.7339  0.2376 -0.0789
17864SOL    HW271203   7.421   0.977  11.905 -0.0548 -1.3063  0.9006
17865SOL     OW71204   5.993  10.980   7.250  0.1088 -0.1003 -0.2667
17865SOL    HW171205   5.931  11.007   7.183 -0.8932  1.1743  1.1148
17865SOL    HW271206   5.938  10.948   7.322  0.9503  1.9999  1.3973
17866SOL     OW71207   6.103   0.468  14.001  0.1536 -0.3068 -0.1284
17866SOL    HW171208   6.031   0.454  13.940 -1.0250 -0.9079  1.3646
17866SOL    HW271209   6.140   0.381  14.016 -0.6343 -0.4300  1.2655
17867SOL     OW71210   1.938   4.554   1.641 -0.5271  0.0561 -0.1499
17867SOL    HW171211   1.884   4.567   1.719  0.5406  1.6857  0.3493
17867SOL    HW271212   2.028   4.561   1.672 -0.0833  1.8863 -1.6897
17868SOL     OW71213   7.721   9.490  11.922 -0.0785 -0.3439  0.0923
17868SOL    HW171214   7.672   9.488  12.004 -1.4881 -2.3134 -0.7244
17868SOL    HW271215   7.787   9.421  11.933 -0.3541 -0.6998 -0.4615
17869SOL     OW71216   7.649   0.166  11.961  0.3481  0.5478 -0.4145
17869SOL    HW171217   7.704   0.215  12.023 -0.3048  0.0026  0.6306
17869SOL    HW271218   7.560   0.196  11.981  0.0912  0.0379 -0.7905
17870SOL     OW71219   1.495   3.681   6.342 -0.2271 -0.7418 -0.3143
17870SOL    HW171220   1.556   3.634   6.285  0.1196 -0.9432  0.2056
17870SOL    HW271221   1.551   3.715   6.412 -0.5807 -0.1306 -0.3273
17871SOL     OW71222   5.060   3.433   5.740 -0.0524 -0.3009  0.6787
17871SOL    HW171223   5.021   3.517   5.766  0.0716 -0.1949  0.5242
17871SOL    HW271224   4.995   3.368   5.766  0.4588 -0.2741  2.0920
17872SOL     OW71225   9.636   8.691   3.673  0.4513 -0.0897  0.1044
17872SOL    HW171226   9.553   8.733   3.647 -0.3044 -0.5034  1.7193
17872SOL    HW271227   9.696   8.765   3.687 -0.0768  0.3061  0.3347
17873SOL     OW71228  13.236   4.165   8.327 -1.0294 -0.2594 -0.0070
17873SOL    HW171229  13.235   4.092   8.390 -0.8885  0.2261  0.5719
17873SOL    HW271230  13.198   4.238   8.375  0.7095  0.6069  0.1293
17874SOL     OW71231   3.914  10.588  12.673  0.0680 -0.4141  0.0083
17874SOL    HW171232   3.960  10.505  12.686  0.7351  0.0014  0.3787
17874SOL    HW271233   3.983  10.650  12.648 -0.3869  0.0802 -0.0500
17875SOL     OW71234   3.772   5.148  11.745  0.3257  0.0840  0.0750
17875SOL    HW171235   3.707   5.079  11.728 -0.2880  0.7853 -0.5116
17875SOL    HW271236   3.800   5.132  11.835 -0.9104 -0.0598  0.4644
17876SOL     OW71237  12.191   3.402  12.180  0.1325  0.1309 -0.0090
17876SOL    HW171238  12.257   3.471  12.177  0.9216 -0.6236 -0.4578
17876SOL    HW271239  12.227   3.338  12.242 -1.0415  0.5546  1.1447
17877SOL     OW71240   8.811   2.419   1.102 -0.0816  0.0356  0.0884
17877SOL    HW171241   8.832   2.439   1.010 -1.0656 -1.6297 -0.5477
17877SOL    HW271242   8.880   2.463   1.152  1.0195  0.2329 -1.5074
17878SOL     OW71243   4.523  12.235   1.551 -0.0542  0.5319  0.1404
17878SOL    HW171244   4.465  12.171   1.591 -0.0440 -0.2507 -1.0685
17878SOL    HW271245   4.466  12.290   1.497 -0.1743  2.0295  1.6992
17879SOL     OW71246   2.965   9.241   8.382 -0.3576  0.0130 -0.1885
17879SOL    HW171247   2.971   9.160   8.433  0.8735  0.3218  0.1890
17879SOL    HW271248   3.052   9.253   8.345 -0.5528  1.1160 -0.3331
17880SOL     OW71249   0.166   8.963  12.443 -0.0708  0.1063  0.5310
17880SOL    HW171250   0.164   9.042  12.389 -0.1039 -0.3844 -0.2015
17880SOL    HW271251   0.231   8.982  12.511 -0.2388  0.8424  0.4932
17881SOL     OW71252   6.136  11.183   4.932 -0.1491  0.4524  0.5270
17881SOL    HW171253   6.191  11.113   4.969 -1.6772 -2.1888 -1.8370
17881SOL    HW271254   6.047  11.149   4.938 -0.7745  1.3191 -2.4122
17882SOL     OW71255  13.857   0.077   1.780 -0.1988  0.1302  0.2134
17882SOL    HW171256  13.812   0.153   1.745  1.2334  1.2841  0.7808
17882SOL    HW271257  13.909   0.044   1.706 -0.6921 -0.2163  0.0140
17883SOL     OW71258  13.034   1.182   7.390  0.1266  0.0506 -0.1465
17883SOL    HW171259  13.130   1.178   7.381  0.0551  0.7106 -1.3981
17883SOL    HW271260  13.019   1.190   7.484  1.2402 -1.5052  0.1995
17884SOL     OW71261   4.038   3.552   1.132 -0.3202  0.2537  0.2970
17884SOL    HW171262   3.975   3.492   1.172  0.7388 -0.7526  0.5401
17884SOL    HW271263   3.999   3.577   1.048 -0.4977 -1.3523 -0.1337
17885SOL     OW71264  11.916   6.737   8.512  0.0024 -0.0896  0.2846
17885SOL    HW171265  11.916   6.643   8.532  2.0251  0.2393  2.1045
17885SOL    HW271266  11.832   6.768   8.546 -0.2517 -1.0526  0.5803
17886SOL     OW71267   5.269   3.266   8.623 -0.3200  0.0317 -0.0664
17886SOL    HW171268   5.277   3.172   8.637 -0.3655 -0.3080 -1.9839
17886SOL    HW271269   5.175   3.279   8.607 -0.2233  0.2826 -0.4445
17887SOL     OW71270  13.414   0.957  13.031  0.2367 -0.0867 -0.0597
17887SOL    HW171271  13.408   0.863  13.044 -0.2084  0.2588  3.0612
17887SOL    HW271272  13.336   0.993  13.072 -0.4485  1.6375 -2.5914
17888SOL     OW71273   2.234  13.395   6.263 -0.1215  0.6025  0.4751
17888SOL    HW171274   2.188  13.462   6.313  0.1146  0.8424  0.3791
17888SOL    HW271275   2.324  13.427   6.258  0.2308 -0.2258  1.3049
17889SOL     OW71276   4.258  13.748   2.612  0.7634  0.3022 -0.0830
17889SOL    HW171277   4.254  13.729   2.518 -1.9422  0.0494  0.0070
17889SOL    HW271278   4.337  13.703   2.642  0.9632 -0.7427 -1.9837
17890SOL     OW71279   3.144   6.382  11.564  0.0703 -0.2772 -0.3930
17890SOL    HW171280   3.187   6.376  11.649 -1.0930  1.4570  0.3775
17890SOL    HW271281   3.216   6.383  11.501  1.1035  0.7572  0.7440
17891SOL     OW71282  12.997  11.300   1.018  0.1084 -0.5530 -0.5787
17891SOL    HW171283  12.991  11.345   1.102 -0.4051  1.2057 -1.5251
17891SOL    HW271284  13.002  11.370   0.953 -0.3454 -1.8609 -2.0852
17892SOL     OW71285   1.740   0.637  12.502 -0.7747  0.5183 -0.1268
17892SOL    HW171286   1.829   0.604  12.510 -0.3243  1.9859  1.4066
17892SOL    HW271287   1.710   0.605  12.417  1.6337  0.9941 -1.2293
17893SOL     OW71288  12.555   1.358  12.468  0.7757  0.2888 -0.7252
17893SOL    HW171289  12.631   1.378  12.524 -0.5273  1.4372  0.7425
17893SOL    HW271290  12.576   1.274  12.428  1.8728 -0.5475  1.4081
17894SOL     OW71291   7.463   5.245  12.421  0.2320  0.1378  0.3527
17894SOL    HW171292   7.411   5.326  12.421  0.5622  0.3563  0.0831
17894SOL    HW271293   7.524   5.257  12.348  0.0039 -0.5407  0.0440
17895SOL     OW71294   8.051   4.324  13.746  0.2300  0.2951 -0.2121
17895SOL    HW171295   8.121   4.336  13.681  1.9240 -2.4818  0.9024
17895SOL    HW271296   8.097   4.325  13.830 -1.6222  1.8075  0.8493
17896SOL     OW71297  11.413  12.347   3.180  0.0684  0.1201  0.5227
17896SOL    HW171298  11.362  12.316   3.106  0.8002  1.8019 -0.7631
17896SOL    HW271299  11.492  12.293   3.179  0.9819  1.3748 -1.2177
17897SOL     OW71300   4.961  13.239  12.944 -0.0212  0.1369  0.9653
17897SOL    HW171301   4.916  13.166  12.988 -1.8516  0.0252 -0.9689
17897SOL    HW271302   4.945  13.314  13.001  0.4488 -0.6003  2.1204
17898SOL     OW71303   3.455  13.079   3.076  0.6304  0.3246  0.1420
17898SOL    HW171304   3.446  13.054   2.984 -1.0197  0.0584  0.3370
17898SOL    HW271305   3.514  13.154   3.075  3.5114 -1.7686 -0.7468
17899SOL     OW71306   4.883   8.844  12.486  0.3139 -0.4689 -0.6368
17899SOL    HW171307   4.956   8.789  12.515 -0.9124 -0.7623  2.1548
17899SOL    HW271308   4.905   8.866  12.395  3.8683 -0.5196  0.0594
17900SOL     OW71309   2.680  10.223   3.302 -0.1115 -0.2176  0.4085
17900SOL    HW171310   2.696  10.157   3.369 -2.3282 -1.1547  0.0847
17900SOL    HW271311   2.660  10.173   3.223  2.3366  0.8516 -1.0356
17901SOL     OW71312   9.102   0.471   3.729  0.3673  0.1234  0.1177
17901SOL    HW171313   9.119   0.474   3.824  1.8918  4.5771 -0.0393
17901SOL    HW271314   9.188   0.483   3.689 -0.4520 -0.0387 -1.7927
17902SOL     OW71315   1.997   4.896   6.035 -0.4680  0.1214  0.1323
17902SOL    HW171316   2.082   4.923   6.069  0.3066 -2.4882  0.5241
17902SOL    HW271317   1.937   4.903   6.109  0.6336 -2.9838  1.5041
17903SOL     OW71318   2.141   6.101  12.046  0.0510  1.1432 -0.0913
17903SOL    HW171319   2.200   6.055  11.986  0.0098 -1.5638  1.7752
17903SOL    HW271320   2.197   6.128  12.119 -0.4121  1.7495  0.0509
17904SOL     OW71321  10.546   8.045   2.825 -0.1373 -0.6375  0.3779
17904SOL    HW171322  10.489   7.985   2.775  0.0311  1.1722 -2.2023
17904SOL    HW271323  10.491   8.075   2.897 -1.9656 -0.1767 -1.1208
17905SOL     OW71324  11.802   3.993   3.795  0.0879 -0.5063 -0.4309
17905SOL    HW171325  11.765   4.080   3.781  3.0904  1.0447  0.3271
17905SOL    HW271326  11.762   3.963   3.876 -1.6807 -0.2978 -1.1790
17906SOL     OW71327   3.344   0.363   0.887 -0.0232 -0.0364  0.5812
17906SOL    HW171328   3.370   0.315   0.809 -0.9914  0.9768 -0.3984
17906SOL    HW271329   3.422   0.364   0.942  0.3437 -1.7390  0.1509
17907SOL     OW71330   7.510   2.596   3.332 -0.4562 -0.4373 -0.1144
17907SOL    HW171331   7.538   2.531   3.268 -0.4603 -2.1600  1.5689
17907SOL    HW271332   7.434   2.557   3.375 -0.3781  0.6299  1.0554
17908SOL     OW71333   7.852  11.158   8.836  0.1742  0.3598  0.4759
17908SOL    HW171334   7.858  11.064   8.818  1.2702  0.0830  2.0801
17908SOL    HW271335   7.889  11.200   8.758 -1.1082 -0.4659 -0.6325
17909SOL     OW71336   1.461  13.189  10.518  0.6756 -0.0037  0.0386
17909SOL    HW171337   1.458  13.275  10.560  0.0657 -0.3453  0.7240
17909SOL    HW271338   1.552  13.161  10.525  1.1111  1.0330 -1.1411
17910SOL     OW71339   6.815   7.082  13.358  0.3317 -0.5550 -0.4048
17910SOL    HW171340   6.899   7.121  13.382 -0.6397  0.7851  1.0216
17910SOL    HW271341   6.790   7.030  13.435  0.3345 -1.8389 -1.2431
17911SOL     OW71342   0.393   7.956  13.417  0.2945 -0.4381 -0.1319
17911SOL    HW171343   0.359   8.009  13.488 -0.2214  0.5855 -1.1030
17911SOL    HW271344   0.378   7.866  13.444 -0.3030 -0.0508  0.8477
17912SOL     OW71345   9.039   1.143   3.381 -0.1737  0.4125 -0.0945
17912SOL    HW171346   9.098   1.126   3.455  0.2440 -0.1824 -0.5602
17912SOL    HW271347   8.954   1.158   3.422 -0.7798 -3.4264  0.4242
17913SOL     OW71348  10.681   0.441   5.205  0.2934  0.2854 -0.0730
17913SOL    HW171349  10.624   0.486   5.267 -1.9736 -1.9506 -0.3615
17913SOL    HW271350  10.747   0.506   5.181 -0.9638  2.3893  1.7989
17914SOL     OW71351  12.580   9.407   8.728  0.4272  0.4356 -0.9025
17914SOL    HW171352  12.658   9.353   8.718 -1.7565 -2.9569 -1.2796
17914SOL    HW271353  12.575   9.424   8.822  2.0868  1.6100 -0.9816
17915SOL     OW71354  12.566   2.207   7.038 -0.3035 -0.5606  0.1065
17915SOL    HW171355  12.525   2.245   6.960 -0.5163 -0.0248  0.4701
17915SOL    HW271356  12.496   2.207   7.104  0.0748 -0.3117  0.5148
17916SOL     OW71357  13.245   8.215  12.156 -0.2959  0.3101 -0.0758
17916SOL    HW171358  13.317   8.216  12.220  1.7822  2.2906 -2.2624
17916SOL    HW271359  13.251   8.129  12.115  0.6405  0.3221  0.0095
17917SOL     OW71360   7.035   4.663   5.531 -0.2920  0.1667  0.3040
17917SOL    HW171361   7.050   4.720   5.606  1.6656 -0.7258  0.6657
17917SOL    HW271362   7.029   4.575   5.569  1.2939 -0.3688 -0.5701
17918SOL     OW71363   2.837  13.070   5.603 -0.2258 -0.1048 -0.2500
17918SOL    HW171364   2.914  13.022   5.572 -0.8230 -1.6081  0.4995
17918SOL    HW271365   2.769  13.052   5.538 -0.0922  0.8999 -0.6996
17919SOL     OW71366   4.356  10.378  13.155 -0.0299 -0.0213 -0.6353
17919SOL    HW171367   4.412  10.439  13.203  0.1589  0.2440 -1.1782
17919SOL    HW271368   4.379  10.392  13.063  0.0045 -0.9091 -0.7682
17920SOL     OW71369   1.540  12.806   3.700 -0.1351 -0.5671  0.0188
17920SOL    HW171370   1.565  12.775   3.613 -0.5324  0.1484 -0.3617
17920SOL    HW271371   1.455  12.766   3.716  0.3476 -1.4258  0.4717
17921SOL     OW71372  10.958   9.888  11.124  0.3206 -0.1266 -0.3635
17921SOL    HW171373  10.892   9.947  11.087  0.7514  0.1626 -0.6748
17921SOL    HW271374  11.015   9.945  11.174  0.6797 -0.2932 -0.5805
17922SOL     OW71375   1.584  12.634  10.142 -0.4669 -0.2159 -0.0569
17922SOL    HW171376   1.539  12.680  10.071  3.1094 -1.7874 -3.7516
17922SOL    HW271377   1.652  12.696  10.170 -1.2272  0.0041  1.3724
17923SOL     OW71378   3.630   3.697  13.920 -0.2543  0.6535 -0.1298
17923SOL    HW171379   3.555   3.728  13.869 -1.0379  0.8154  1.0783
17923SOL    HW271380   3.635   3.604  13.899 -1.8296  0.2757  0.9862
17924SOL     OW71381   6.041  13.555  13.547 -0.0440 -0.0174 -0.1703
17924SOL    HW171382   6.108  13.619  13.570  1.7571 -2.3292  1.5967
17924SOL    HW271383   5.979  13.558  13.619  0.4033 -0.6801  0.2513
17925SOL     OW71384  10.720  11.033  10.234 -0.3436  0.3044 -0.7300
17925SOL    HW171385  10.807  11.059  10.203 -0.9899  2.5292 -0.8630
17925SOL    HW271386  10.703  10.950  10.191  2.2164 -0.8491  0.2785
17926SOL     OW71387   7.207   3.784   6.334  0.1479  0.7817  0.5299
17926SOL    HW171388   7.222   3.729   6.411 -0.7214  0.8916  0.7878
17926SOL    HW271389   7.294   3.817   6.311  0.4274  0.7274  1.4510
17927SOL     OW71390   4.445  11.060   6.244 -0.0977 -0.5027  0.0229
17927SOL    HW171391   4.401  11.120   6.303 -0.9558 -0.1531 -0.9384
17927SOL    HW271392   4.524  11.034   6.290  0.1378  1.1276  0.5943
17928SOL     OW71393  11.581   5.340   1.211 -0.2085  0.5496  0.2927
17928SOL    HW171394  11.601   5.405   1.143 -1.8777  0.1054 -0.6807
17928SOL    HW271395  11.545   5.391   1.283 -0.0047  0.8588  0.1795
17929SOL     OW71396  10.732   1.559   2.051 -0.3208  0.2419 -0.1545
17929SOL    HW171397  10.724   1.538   1.957 -1.8978  0.9602 -0.2028
17929SOL    HW271398  10.819   1.599   2.058  0.9280 -2.1175 -0.8257
17930SOL     OW71399   8.792  13.077   2.133 -0.7253 -0.6110 -0.1027
17930SOL    HW171400   8.711  13.041   2.169 -0.9596  1.7405  2.0082
17930SOL    HW271401   8.862  13.037   2.185 -0.6808 -0.9997 -0.4570
17931SOL     OW71402   4.711  10.817   8.878 -0.4413 -0.7663 -0.0144
17931SOL    HW171403   4.645  10.858   8.823 -0.7304 -1.4376 -0.1822
17931SOL    HW271404   4.790  10.816   8.825 -0.4285 -0.4145 -0.0026
17932SOL     OW71405   2.344   2.293   0.473 -0.5539  0.0946 -0.6173
17932SOL    HW171406   2.277   2.228   0.453 -2.9876  2.2850 -0.1708
17932SOL    HW271407   2.404   2.249   0.533 -0.8306 -2.3358 -2.0013
17933SOL     OW71408  12.506   4.666   3.394  0.1670 -0.1049  0.5596
17933SOL    HW171409  12.595   4.679   3.361  1.1890 -0.0252  3.0745
17933SOL    HW271410  12.496   4.571   3.403 -0.7636 -0.2424 -1.4908
17934SOL     OW71411   5.896  10.601   2.520  0.4794  0.0684  0.0731
17934SOL    HW171412   5.842  10.625   2.446 -1.0279  0.6924  1.3208
17934SOL    HW271413   5.913  10.683   2.566  0.3541 -0.4497  1.0844
17935SOL     OW71414   4.262  10.684   6.800 -0.0171  0.1220  0.8438
17935SOL    HW171415   4.209  10.605   6.810 -0.1343  0.3156  1.8691
17935SOL    HW271416   4.315  10.687   6.880  1.0565  0.2934  0.1460
17936SOL     OW71417   2.487   1.913   1.529 -0.3040  0.4390  0.1615
17936SOL    HW171418   2.392   1.910   1.524 -0.2613  0.8416 -1.6521
17936SOL    HW271419   2.512   1.831   1.572 -1.4599  0.4519  0.8963
17937SOL     OW71420  14.089   5.579   1.944 -0.5865  0.3001  0.3972
17937SOL    HW171421  14.060   5.593   1.854  0.7013  0.8230  0.0289
17937SOL    HW271422  14.173   5.625   1.949  0.0074 -0.8418  1.4848
17938SOL     OW71423   1.626   6.353   0.514 -0.0401  0.2068 -0.4384
17938SOL    HW171424   1.566   6.411   0.561 -0.4331  0.2704 -1.0095
17938SOL    HW271425   1.713   6.376   0.548 -0.4306 -0.7246  1.2725
17939SOL     OW71426   5.956  10.079   5.660 -0.2645 -0.1259 -0.5169
17939SOL    HW171427   6.032  10.066   5.603 -0.2000  0.0652 -0.4768
17939SOL    HW271428   5.994  10.111   5.742 -0.0158 -3.5241  0.8345
17940SOL     OW71429   3.338   2.360   6.486 -0.2087 -0.2507 -0.0603
17940SOL    HW171430   3.418   2.394   6.525 -0.6417 -0.5699  1.1836
17940SOL    HW271431   3.350   2.368   6.392  1.0779  0.1493  0.1315
17941SOL     OW71432  10.247   7.616   3.781  0.2967  0.0888 -0.3726
17941SOL    HW171433  10.280   7.533   3.745 -2.1258 -0.2374 -2.1136
17941SOL    HW271434  10.224   7.596   3.871 -0.2658 -1.1895 -0.7770
17942SOL     OW71435   6.320  11.146  10.031 -0.2039 -0.1460 -0.4640
17942SOL    HW171436   6.378  11.199   9.975  2.2969  0.4201  2.3865
17942SOL    HW271437   6.281  11.210  10.091  1.2744 -1.1985  1.7264
17943SOL     OW71438   0.403   1.847   6.603 -0.6373 -0.4789 -0.2837
17943SOL    HW171439   0.404   1.754   6.628 -0.4311 -0.2156  0.7356
17943SOL    HW271440   0.310   1.866   6.589 -0.7776 -0.6226  0.3920
17944SOL     OW71441   1.789   8.851   8.792  0.0333  0.6849  0.3148
17944SOL    HW171442   1.846   8.778   8.814 -0.6587  0.0026 -0.1075
17944SOL    HW271443   1.731   8.861   8.867  0.7648  1.4435  0.7863
17945SOL     OW71444  12.496  12.595   4.069  0.2669  0.1474  0.4202
17945SOL    HW171445  12.479  12.672   4.123 -0.1938 -0.9443  1.8931
17945SOL    HW271446  12.585  12.607   4.036  1.0570  0.2586  2.4887
17946SOL     OW71447  10.319  13.779   2.211  0.4483  0.3462  0.1152
17946SOL    HW171448  10.226  13.756   2.216  0.5183  0.0831  0.2319
17946SOL    HW271449  10.323  13.849   2.146  0.5026 -1.4148 -1.8917
17947SOL     OW71450   7.561   3.338   7.039  0.0655  0.5676 -0.0960
17947SOL    HW171451   7.607   3.321   6.957 -2.0642  0.0725 -1.2627
17947SOL    HW271452   7.495   3.269   7.044 -0.5356  1.2184  1.5007
17948SOL     OW71453   8.916   9.904  13.191  0.6597  0.3744  0.3213
17948SOL    HW171454   8.970   9.983  13.187  0.9135  0.2702  1.3559
17948SOL    HW271455   8.941   9.862  13.274 -1.3464  0.5503  1.0597
17949SOL     OW71456   1.166  10.523   6.659  0.1954  0.1881  0.7452
17949SOL    HW171457   1.163  10.538   6.753 -0.1782 -0.3847  0.8269
17949SOL    HW271458   1.106  10.588   6.622 -0.6163 -0.3921  1.0132
17950SOL     OW71459   4.158   9.513   5.139 -0.0641  0.0862  0.9338
17950SOL    HW171460   4.210   9.589   5.166 -0.1794 -0.0544  1.5623
17950SOL    HW271461   4.216   9.438   5.154  0.3276  0.0961 -0.3940
17951SOL     OW71462  11.799  13.586   1.709 -0.2119 -0.2715 -0.3571
17951SOL    HW171463  11.827  13.525   1.778 -0.9486  0.0490  0.2473
17951SOL    HW271464  11.863  13.574   1.639 -0.8034 -2.3593 -0.6105
17952SOL     OW71465   0.352   8.193   4.575  0.5331  0.1855 -0.2430
17952SOL    HW171466   0.263   8.163   4.594  0.4342  0.8572  0.3935
17952SOL    HW271467   0.352   8.207   4.480 -0.7059  2.2109 -0.0107
17953SOL     OW71468  10.097   9.776   1.082  0.4160 -0.0275 -0.0340
17953SOL    HW171469  10.087   9.681   1.077  1.2875 -0.1282  0.0619
17953SOL    HW271470  10.064   9.808   0.998  2.0427 -0.5865 -0.9340
17954SOL     OW71471   2.849  12.121  12.761  0.0935  0.1472 -0.3859
17954SOL    HW171472   2.820  12.195  12.815  0.7785  0.6968 -0.7572
17954SOL    HW271473   2.944  12.126  12.763  0.1331  0.0198 -1.4206
17955SOL     OW71474   5.831   4.699   5.609 -0.9553  0.2607  0.6023
17955SOL    HW171475   5.747   4.739   5.588  0.0611  2.3330  0.2738
17955SOL    HW271476   5.896   4.764   5.585  0.7943 -1.4056  0.5631
17956SOL     OW71477   1.069   0.017   2.393  0.1946  0.3855  0.1037
17956SOL    HW171478   1.140  -0.046   2.405  0.4147  1.0066  2.4992
17956SOL    HW271479   1.027   0.024   2.479 -3.3256 -0.5130 -1.3594
17957SOL     OW71480   6.748  10.577  13.373  0.4190 -0.4836 -0.4541
17957SOL    HW171481   6.819  10.642  13.366  0.4873 -0.5957 -0.8162
17957SOL    HW271482   6.698  10.605  13.450  0.4964 -0.0468 -0.5595
17958SOL     OW71483  11.101   3.501  11.269  0.2297  0.3977  0.4333
17958SOL    HW171484  11.141   3.553  11.338  0.4687  0.4867  0.2294
17958SOL    HW271485  11.088   3.563  11.197  2.3219 -0.2120 -0.5535
17959SOL     OW71486   6.533  13.506   7.127 -0.2680 -0.3310  0.0438
17959SOL    HW171487   6.504  13.549   7.207  0.8774  0.9759 -0.2219
17959SOL    HW271488   6.452  13.473   7.087 -1.2304  1.6894  0.2045
17960SOL     OW71489   0.910   6.646   7.235 -0.6047  0.4421 -0.6614
17960SOL    HW171490   0.868   6.650   7.149  0.0983 -3.7163 -1.4177
17960SOL    HW271491   0.843   6.608   7.292  0.2986 -1.0285 -0.5341
17961SOL     OW71492  11.267   0.319   8.881  0.1446  0.0171 -0.3961
17961SOL    HW171493  11.243   0.396   8.932  0.1201 -0.5465  0.4650
17961SOL    HW271494  11.261   0.247   8.943 -2.1205 -1.0454 -1.7021
17962SOL     OW71495   7.184  13.399  10.407 -0.7513 -0.1115  0.1793
17962SOL    HW171496   7.150  13.479  10.446 -0.5782  0.5063 -0.8841
17962SOL    HW271497   7.244  13.363  10.473 -2.1349 -0.3108  1.3663
17963SOL     OW71498   5.909  11.507   7.839  0.1973 -0.7641  0.2171
17963SOL    HW171499   5.816  11.506   7.816 -0.2326  1.2228  1.6018
17963SOL    HW271500   5.917  11.579   7.901  2.3012 -2.2070  1.7464
17964SOL     OW71501   3.190   4.730   1.726  0.9740 -0.1291  0.0530
17964SOL    HW171502   3.199   4.825   1.724 -0.7867  0.0752  0.1973
17964SOL    HW271503   3.102   4.714   1.692  1.0230 -1.6725  0.5828
17965SOL     OW71504   2.758   3.985   9.523  0.0712 -0.0201  0.4102
17965SOL    HW171505   2.733   3.947   9.439 -0.8391  0.4049  0.4704
17965SOL    HW271506   2.835   4.038   9.503 -0.5616  0.6612 -0.3197
17966SOL     OW71507   3.623   2.987  10.349 -0.0402 -0.3022  0.2944
17966SOL    HW171508   3.561   3.060  10.357  0.9494  0.6956 -0.7535
17966SOL    HW271509   3.584   2.929  10.284 -0.2050 -0.0327  0.1522
17967SOL     OW71510   9.342  13.239   3.367  0.3976 -0.0944  0.0122
17967SOL    HW171511   9.314  13.312   3.423  1.1392  0.4547 -0.3184
17967SOL    HW271512   9.312  13.161   3.414 -0.7966  0.4259  0.1581
17968SOL     OW71513   2.308   1.220   6.955 -0.7306 -0.1347 -0.7189
17968SOL    HW171514   2.299   1.282   6.883 -0.3429 -1.8570 -2.3147
17968SOL    HW271515   2.397   1.233   6.987 -1.1157  1.0859 -0.0770
17969SOL     OW71516   0.012  10.719  13.439  0.2603  0.0349  0.5146
17969SOL    HW171517  -0.010  10.655  13.370  1.1813 -0.3265  0.5399
17969SOL    HW271518  -0.062  10.715  13.499  0.5825 -1.5038  0.8594
17970SOL     OW71519  10.932   4.962  10.137 -0.2500 -0.0050 -0.4341
17970SOL    HW171520  10.985   5.040  10.153  1.9214 -1.2209 -1.2725
17970SOL    HW271521  10.884   4.949  10.218  2.9014 -0.3959  1.5361
17971SOL     OW71522   2.604   1.979   4.512 -0.0804  1.0888 -0.3260
17971SOL    HW171523   2.588   1.886   4.529  0.7542  0.8499 -0.7672
17971SOL    HW271524   2.649   1.980   4.428  2.6243  1.6123  0.9980
17972SOL     OW71525   8.570   2.029   9.279 -0.0615 -0.0971  0.4899
17972SOL    HW171526   8.555   2.046   9.373 -2.1101  0.8956  0.0372
17972SOL    HW271527   8.540   1.939   9.266 -0.9086  0.1573  0.5949
17973SOL     OW71528  11.315  11.476  10.388 -0.2807  0.0716 -0.2643
17973SOL    HW171529  11.402  11.455  10.423 -0.4756  0.3945  0.4099
17973SOL    HW271530  11.308  11.421  10.310  0.2946 -0.3947  0.0005
17974SOL     OW71531   0.773   2.424  10.824  0.4169  0.5577 -0.7929
17974SOL    HW171532   0.794   2.517  10.832 -0.0653  0.5079  1.7758
17974SOL    HW271533   0.840   2.380  10.876 -0.8894 -0.2957  0.2278
17975SOL     OW71534   1.466   4.450   8.917  0.2619  0.3733 -0.3486
17975SOL    HW171535   1.518   4.481   8.843  0.8208  0.2592 -0.0111
17975SOL    HW271536   1.433   4.530   8.958 -1.2622  0.4226 -1.5392
17976SOL     OW71537   4.653  11.923   8.998  0.1142 -0.3004  0.1181
17976SOL    HW171538   4.688  12.011   8.981 -0.4265  0.0710  0.8560
17976SOL    HW271539   4.566  11.924   8.958 -0.0796 -0.3346  0.5368
17977SOL     OW71540   5.749   9.295  13.753  0.3603 -0.4032  0.1210
17977SOL    HW171541   5.789   9.263  13.834  0.3219 -0.5142  0.0966
17977SOL    HW271542   5.764   9.224  13.690 -0.7383 -0.8730  0.3684
17978SOL     OW71543   1.685  10.570  10.087 -0.3134 -0.1308  0.3063
17978SOL    HW171544   1.654  10.548  10.175  2.3291  0.5076  1.4907
17978SOL    HW271545   1.780  10.570  10.094 -0.0244  0.9831 -2.3200
17979SOL     OW71546   1.252  10.660  13.704  0.1586 -0.5821 -0.4290
17979SOL    HW171547   1.245  10.736  13.647  1.5767 -0.4365 -0.4438
17979SOL    HW271548   1.326  10.610  13.669 -1.4556 -2.6316 -1.1640
17980SOL     OW71549  12.671   5.316   6.221 -0.2333 -0.0296  0.0739
17980SOL    HW171550  12.749   5.261   6.219 -0.3238 -0.1847  0.6422
17980SOL    HW271551  12.598   5.254   6.213 -0.2918  0.1917 -1.5007
17981SOL     OW71552   9.304   9.510   2.385  0.7626  0.5225  0.2170
17981SOL    HW171553   9.302   9.602   2.412 -0.5284  0.8056 -0.7463
17981SOL    HW271554   9.298   9.513   2.290 -0.5736 -0.5752  0.2449
17982SOL     OW71555   0.965   2.707   5.593 -0.1604  0.3614  0.6991
17982SOL    HW171556   0.904   2.641   5.627  0.2132  0.3541  1.3571
17982SOL    HW271557   1.034   2.657   5.551  0.1532  0.3366  1.2500
17983SOL     OW71558   0.729   6.651   3.079  0.2320  0.1059 -0.4220
17983SOL    HW171559   0.742   6.738   3.041 -0.2811  0.1882 -0.4162
17983SOL    HW271560   0.735   6.592   3.004 -1.5790  0.3346 -0.7852
17984SOL     OW71561   9.258   6.517   5.096  0.5463 -0.1263  0.6152
17984SOL    HW171562   9.296   6.496   5.011 -0.5145 -2.5822  0.6608
17984SOL    HW271563   9.325   6.571   5.140  1.8548 -0.2941 -1.0723
17985SOL     OW71564   8.355   0.839   0.242 -0.2823  0.2091 -0.0650
17985SOL    HW171565   8.404   0.832   0.324 -0.1038 -0.4891 -0.2214
17985SOL    HW271566   8.399   0.909   0.194  1.8343 -1.6317 -1.0086
17986SOL     OW71567  12.449   6.790  11.513  0.1142 -0.0826  0.9013
17986SOL    HW171568  12.471   6.764  11.423 -0.7642  0.7244  0.4413
17986SOL    HW271569  12.499   6.730  11.567  1.2944 -0.0650 -0.1204
17987SOL     OW71570  13.060  12.458  10.378  0.5967  0.2154 -0.2318
17987SOL    HW171571  13.110  12.529  10.418 -2.0275  1.4209  1.2085
17987SOL    HW271572  12.993  12.437  10.443 -1.7451 -0.1398 -2.6052
17988SOL     OW71573   1.947   7.217   1.652 -0.4416 -0.3623 -0.1699
17988SOL    HW171574   1.899   7.193   1.732 -0.7910 -0.6897 -0.4781
17988SOL    HW271575   2.038   7.197   1.672 -0.3736  0.5440  0.5336
17989SOL     OW71576   5.634  10.228   6.934 -0.0506 -0.3670  0.3962
17989SOL    HW171577   5.579  10.242   6.857  1.9426  0.7826 -0.9103
17989SOL    HW271578   5.614  10.303   6.991  0.8791  0.6521 -0.5641
17990SOL     OW71579   9.908   8.995   4.726 -0.0277 -0.2614 -0.7900
17990SOL    HW171580   9.983   8.938   4.707  0.9017  0.5967  0.2627
17990SOL    HW271581   9.930   9.078   4.684 -0.9894 -0.3798 -1.5672
17991SOL     OW71582  11.643   6.578   6.108  0.3148 -0.2707 -0.0285
17991SOL    HW171583  11.726   6.549   6.145  0.3306  0.0693  0.2101
17991SOL    HW271584  11.647   6.674   6.112 -1.2512 -0.2025  2.7037
17992SOL     OW71585   0.870   4.217  10.802  0.3745 -0.3355 -0.0762
17992SOL    HW171586   0.939   4.192  10.863  0.6531  0.1583 -0.1802
17992SOL    HW271587   0.896   4.304  10.771 -0.5455  0.0789  0.2614
17993SOL     OW71588   2.353   7.240  10.001 -0.1421  0.2064 -0.0247
17993SOL    HW171589   2.319   7.301  10.066  0.7292  0.7320 -0.0454
17993SOL    HW271590   2.417   7.291   9.951 -0.7320 -0.2078 -1.2562
17994SOL     OW71591  13.634   9.218   2.380  0.2244 -0.6055  0.4702
17994SOL    HW171592  13.591   9.187   2.459 -3.1808 -1.1127 -1.3863
17994SOL    HW271593  13.643   9.312   2.392  0.5581 -0.7865  1.7591
17995SOL     OW71594  13.000   1.107   6.336 -0.1603  0.1984  0.4854
17995SOL    HW171595  12.910   1.124   6.308  0.4586  1.9313 -0.6155
17995SOL    HW271596  13.023   1.183   6.389  0.9864  0.2891 -0.1239
17996SOL     OW71597   4.758   9.585   1.731 -0.1982  0.0558 -0.4595
17996SOL    HW171598   4.787   9.498   1.759  1.7482  0.6592 -0.4472
17996SOL    HW271599   4.700   9.568   1.656 -1.1926 -1.3041  0.5700
17997SOL     OW71600  11.601  10.421   8.604 -0.0435  0.2610 -0.2965
17997SOL    HW171601  11.519  10.460   8.635  0.5713  0.7445  0.7848
17997SOL    HW271602  11.600  10.436   8.509 -1.3626 -0.0696 -0.3551
17998SOL     OW71603  13.073   1.235  10.397 -1.1607 -0.1360  0.1745
17998SOL    HW171604  13.068   1.302  10.465 -2.1539 -0.5811  0.5555
17998SOL    HW271605  12.982   1.215  10.376 -0.8857 -1.4197  0.1205
17999SOL     OW71606  11.362  12.430   0.878  0.6556  0.8725  0.1359
17999SOL    HW171607  11.288  12.383   0.840  1.8226  0.0788 -1.2334
17999SOL    HW271608  11.346  12.427   0.973 -0.7196  0.1725 -0.0966
18000SOL     OW71609  10.967   3.638  11.032 -1.0390  0.2882 -0.0369
18000SOL    HW171610  10.935   3.707  11.091  2.6777  1.4256  0.9405
18000SOL    HW271611  11.005   3.686  10.958  1.2827 -0.6122  0.4854
18001SOL     OW71612   4.117   6.256  12.557 -0.0180  0.0829 -0.0289
18001SOL    HW171613   4.051   6.325  12.543 -1.7673 -0.7855  2.9900
18001SOL    HW271614   4.068   6.184  12.595  2.1236 -2.1315 -1.2138
18002SOL     OW71615   9.199  13.469  10.171 -0.3272  0.5665  0.1655
18002SOL    HW171616   9.227  13.432  10.088 -1.5496 -1.9087  0.7369
18002SOL    HW271617   9.164  13.555  10.149  1.0584  0.7253 -1.5670
18003SOL     OW71618  12.534  12.749   0.435 -0.3744  0.2030  0.0849
18003SOL    HW171619  12.513  12.776   0.525  0.2267 -0.0733  0.3108
18003SOL    HW271620  12.620  12.707   0.442 -0.6334 -0.4455 -0.5041
18004SOL     OW71621   0.049  10.611   0.534 -0.3044 -0.1392 -0.0368
18004SOL    HW171622   0.043  10.675   0.605  0.0122  0.0796 -0.2072
18004SOL    HW271623   0.032  10.527   0.577  1.6384 -0.2276  0.6399
18005SOL     OW71624  10.590   3.478  11.618  0.1628 -0.1747  0.4778
18005SOL    HW171625  10.516   3.418  11.622  0.2585 -0.2182  2.1850
18005SOL    HW271626  10.660   3.428  11.575 -0.2617 -0.7157  0.4100
18006SOL     OW71627   0.993   3.008  14.087 -0.1054  0.2571  0.0119
18006SOL    HW171628   1.008   3.008  13.992 -0.7482  1.0187 -0.1012
18006SOL    HW271629   1.003   3.099  14.113  1.4575 -0.1411  0.9273
18007SOL     OW71630  12.769   3.809   1.765 -0.0666 -0.2382  0.5717
18007SOL    HW171631  12.824   3.862   1.823  0.1565  0.4238 -0.2154
18007SOL    HW271632  12.831   3.759   1.713 -0.0638  1.6510 -1.4015
18008SOL     OW71633   5.633  10.198   3.322  0.0103  0.5831  0.2636
18008SOL    HW171634   5.564  10.205   3.256  2.6022  1.4651 -2.5809
18008SOL    HW271635   5.638  10.105   3.342 -0.9947  0.3337 -0.5477
18009SOL     OW71636   8.141  11.284   7.342 -0.1117 -0.8876  0.0521
18009SOL    HW171637   8.127  11.296   7.248 -1.0178  0.7021  0.3421
18009SOL    HW271638   8.053  11.293   7.380  0.5690  1.3027  1.2713
18010SOL     OW71639   8.262   7.706  10.002  0.6192 -0.3194 -0.4712
18010SOL    HW171640   8.229   7.617   9.990  1.9879 -0.8498 -0.5673
18010SOL    HW271641   8.237   7.752   9.922  0.0634 -0.6756 -0.5038
18011SOL     OW71642  11.452   4.949   9.609 -0.0185 -0.3966  0.4726
18011SOL    HW171643  11.415   5.019   9.662  1.5929  2.3453 -1.7994
18011SOL    HW271644  11.404   4.952   9.527  1.4564 -0.5045 -0.4293
18012SOL     OW71645   9.884  11.154  10.111  0.2870  0.4581  0.2579
18012SOL    HW171646   9.869  11.130  10.019  2.4544 -0.3348  0.0530
18012SOL    HW271647   9.860  11.246  10.115  1.0367  0.7689 -1.3667
18013SOL     OW71648  13.233   0.206   4.285 -0.9078  0.2398 -0.0216
18013SOL    HW171649  13.155   0.251   4.253 -0.7037  0.5925 -0.0321
18013SOL    HW271650  13.215   0.187   4.377 -1.0260  0.2755 -0.0377
18014SOL     OW71651  12.599   9.071  10.116  0.3908 -0.0076  0.0593
18014SOL    HW171652  12.538   9.091  10.186 -1.2170 -0.6298 -1.0981
18014SOL    HW271653  12.581   8.980  10.093  2.9238 -0.7614  0.7681
18015SOL     OW71654   8.621  13.407  10.298 -0.3567 -0.5120 -0.1320
18015SOL    HW171655   8.686  13.337  10.295  0.2602  0.0169  0.5321
18015SOL    HW271656   8.627  13.449  10.212  1.0971  0.3240  0.3465
18016SOL     OW71657  11.326   3.707  13.725  0.4431 -0.0091 -0.1280
18016SOL    HW171658  11.404   3.756  13.751  0.1355 -0.7185  2.3688
18016SOL    HW271659  11.334   3.623  13.770 -1.9195  0.0349  0.5175
18017SOL     OW71660  11.171  11.473   0.452 -0.1845  0.0564 -0.4297
18017SOL    HW171661  11.108  11.405   0.474 -0.5369  1.0223  1.8525
18017SOL    HW271662  11.119  11.553   0.445  0.6018  0.6598  0.3267
18018SOL     OW71663   0.889   0.813   2.987 -0.1755  0.3401  0.0499
18018SOL    HW171664   0.948   0.757   3.037 -1.3984 -0.5522  0.5348
18018SOL    HW271665   0.823   0.841   3.050  0.1516  2.0136 -0.2828
18019SOL     OW71666   6.311  12.980   4.450 -0.5369 -0.8146 -0.0437
18019SOL    HW171667   6.293  12.898   4.405  0.6677 -1.4932  0.6496
18019SOL    HW271668   6.320  12.956   4.542 -1.7267  0.3505  0.4079
18020SOL     OW71669   5.393   5.838   5.647  0.1166 -0.3036  0.4353
18020SOL    HW171670   5.311   5.819   5.692 -1.1960  0.3338 -1.5393
18020SOL    HW271671   5.449   5.878   5.714 -1.4594 -0.0634  1.6624
18021SOL     OW71672   0.068   8.946   1.359  0.0080  0.3815 -0.0546
18021SOL    HW171673   0.077   8.905   1.445  0.2532  0.4373 -0.0517
18021SOL    HW271674   0.044   9.037   1.378 -0.8740  0.1558 -0.0698
18022SOL     OW71675  11.056   0.049   7.601 -0.3771  0.3389  0.4115
18022SOL    HW171676  10.986   0.114   7.614  0.4208  0.9572  1.8449
18022SOL    HW271677  11.104   0.049   7.684  0.7493 -0.7803 -0.2111
18023SOL     OW71678  11.528   8.394   1.742 -0.0323  0.2832  0.1647
18023SOL    HW171679  11.475   8.334   1.689  0.9397 -0.4920  0.0215
18023SOL    HW271680  11.516   8.480   1.701  0.7271 -0.3069 -1.3792
18024SOL     OW71681   4.438   1.696   4.236  0.9622 -0.0712 -0.1135
18024SOL    HW171682   4.405   1.616   4.197  0.8127 -0.3004  0.4725
18024SOL    HW271683   4.477   1.745   4.163  0.5367 -0.4109 -0.5701
18025SOL     OW71684   7.548   0.546   7.546  0.0677 -0.0579  0.3447
18025SOL    HW171685   7.584   0.469   7.503 -1.6245 -0.6079 -0.1577
18025SOL    HW271686   7.468   0.567   7.497  0.0133  1.4849  1.0073
18026SOL     OW71687  10.314  12.094  12.289 -0.1010 -0.2375 -0.1900
18026SOL    HW171688  10.238  12.067  12.238  0.3093  0.8589 -1.4092
18026SOL    HW271689  10.280  12.159  12.351 -0.1887  0.1528 -0.6455
18027SOL     OW71690   9.443   9.823   5.323  0.9321 -0.6384 -0.3959
18027SOL    HW171691   9.457   9.840   5.416 -0.8853  1.8875 -0.4783
18027SOL    HW271692   9.433   9.728   5.317  0.4044 -0.8091  2.1019
18028SOL     OW71693   2.151   9.789  10.729  0.2182  0.2877 -0.3018
18028SOL    HW171694   2.156   9.751  10.641 -3.6503 -0.5110 -0.3376
18028SOL    HW271695   2.113   9.876  10.716 -0.9329 -0.0585  0.5639
18029SOL     OW71696   8.846   2.932   2.125 -0.2589  0.0389  0.1484
18029SOL    HW171697   8.809   2.908   2.210 -1.7085  0.2424 -0.3862
18029SOL    HW271698   8.773   2.974   2.079  0.7564  0.7563 -0.8578
18030SOL     OW71699   6.791  12.625   0.401  0.4929  0.1818  0.3718
18030SOL    HW171700   6.759  12.535   0.398 -0.5152  0.5151  0.8280
18030SOL    HW271701   6.727  12.672   0.454  1.1972  1.0959  0.4371
18031SOL     OW71702  11.162   9.059   5.756 -0.3743  0.2879  0.0457
18031SOL    HW171703  11.148   9.144   5.799 -1.5342 -0.0676  0.4020
18031SOL    HW271704  11.083   9.046   5.704 -0.1644 -0.5430 -0.0691
18032SOL     OW71705   9.599   8.038  10.642 -0.6673  0.5596  0.5010
18032SOL    HW171706   9.691   8.034  10.668 -0.6737  1.8484  0.7964
18032SOL    HW271707   9.601   8.060  10.549 -0.6888 -0.7266  0.1664
18033SOL     OW71708   1.484   2.617   3.997 -0.1674  0.0732 -0.2227
18033SOL    HW171709   1.525   2.683   4.054 -0.4246  0.2501 -0.2391
18033SOL    HW271710   1.391   2.642   3.996  0.1015  1.1491 -2.1802
18034SOL     OW71711  11.879   5.211   6.141 -0.6613 -0.5099  0.0210
18034SOL    HW171712  11.918   5.226   6.055  0.4923 -0.7151  0.4889
18034SOL    HW271713  11.794   5.172   6.123 -1.4733  1.6277 -1.0987
18035SOL     OW71714   5.426   9.550   2.372 -0.1864 -0.2640  0.1245
18035SOL    HW171715   5.365   9.622   2.354 -0.4075 -0.5324 -0.2259
18035SOL    HW271716   5.369   9.475   2.388  0.0469 -0.3882  0.3707
18036SOL     OW71717   7.086   2.648  11.828  0.6838 -0.2273 -0.0710
18036SOL    HW171718   7.025   2.579  11.855  0.2866  0.0839 -0.1554
18036SOL    HW271719   7.082   2.647  11.732  0.9311 -0.3055 -0.0819
18037SOL     OW71720  10.506   6.972   5.564  0.2475  0.1949 -0.1564
18037SOL    HW171721  10.516   6.955   5.471  0.3378 -1.0696  0.0665
18037SOL    HW271722  10.589   7.013   5.591  0.3629  0.2183 -0.5501
18038SOL     OW71723  12.504  11.726   1.263  0.9067  0.3039  0.5310
18038SOL    HW171724  12.503  11.820   1.244  2.7510 -0.1829 -2.6197
18038SOL    HW271725  12.413  11.698   1.250  0.8125  1.2477 -1.0882
18039SOL     OW71726   2.498   0.782  11.134 -0.3391 -0.0270  0.3996
18039SOL    HW171727   2.581   0.761  11.178 -0.7976  0.6954  1.6717
18039SOL    HW271728   2.431   0.740  11.188 -0.9121  0.7536  0.3086
18040SOL     OW71729   7.637   1.296   1.218  0.8926 -0.3863 -0.0776
18040SOL    HW171730   7.543   1.294   1.239  1.1219 -1.2871  0.9456
18040SOL    HW271731   7.680   1.271   1.299  2.0525  0.4233 -0.4240
18041SOL     OW71732   2.472   7.326  13.485  0.4136 -0.4558 -0.0114
18041SOL    HW171733   2.469   7.372  13.401  1.7095  0.0059  0.1791
18041SOL    HW271734   2.523   7.384  13.542 -1.3450 -0.2274  1.4442
18042SOL     OW71735   0.909  12.792   1.315  0.6416  0.2872  0.1197
18042SOL    HW171736   0.873  12.877   1.290 -2.2764 -0.6918  0.5834
18042SOL    HW271737   0.910  12.742   1.233 -0.2044 -0.0496  0.3074
18043SOL     OW71738   6.029   1.740   0.228  0.0776  0.0878 -0.3053
18043SOL    HW171739   6.060   1.693   0.305  1.6902  1.5214 -0.0252
18043SOL    HW271740   5.933   1.732   0.233  0.2459 -3.0869 -0.3001
18044SOL     OW71741  10.692   0.256  11.507  0.1843 -0.2571  0.3198
18044SOL    HW171742  10.777   0.298  11.503 -1.5119  3.6528  1.1435
18044SOL    HW271743  10.652   0.273  11.422 -0.5893 -0.1230  0.6986
18045SOL     OW71744   3.466   2.746   5.291 -0.7059 -0.0684  0.2166
18045SOL    HW171745   3.373   2.763   5.278 -0.7114  1.0314  1.4912
18045SOL    HW271746   3.470   2.653   5.312 -1.2885 -0.5490 -1.5933
18046SOL     OW71747  12.905   4.492   1.974  0.0478  0.3338 -0.0975
18046SOL    HW171748  12.964   4.555   2.014  0.0454 -0.4344  1.1732
18046SOL    HW271749  12.830   4.488   2.034 -0.9082  0.6460 -1.2302
18047SOL     OW71750   8.795   1.244   2.377  0.5004 -0.3413 -1.1788
18047SOL    HW171751   8.820   1.213   2.464 -0.2182  1.0899 -0.4253
18047SOL    HW271752   8.878   1.251   2.330  1.0877  0.3598 -0.0820
18048SOL     OW71753  13.635   3.475  10.443  0.1357  0.3585 -0.2303
18048SOL    HW171754  13.623   3.406  10.508 -3.4109  1.0322  0.0721
18048SOL    HW271755  13.666   3.429  10.365  1.5479 -0.9293  1.0328
18049SOL     OW71756   3.835   0.730   7.571  0.6056  0.4010  0.0034
18049SOL    HW171757   3.789   0.707   7.490  0.0237  1.3368  0.0609
18049SOL    HW271758   3.775   0.787   7.618  0.8019 -0.3970  1.2665
18050SOL     OW71759   1.445  10.337   6.566  0.0746 -0.5972 -0.1651
18050SOL    HW171760   1.529  10.358   6.607 -0.7830  0.8784  0.9282
18050SOL    HW271761   1.387  10.409   6.592 -1.0962 -0.7221 -2.2528
18051SOL     OW71762  11.265  11.531  10.872  0.1007 -0.1408  0.0132
18051SOL    HW171763  11.234  11.621  10.862 -1.5253 -0.7815 -1.2734
18051SOL    HW271764  11.316  11.514  10.792 -2.1244 -1.2486 -1.2695
18052SOL     OW71765  11.643   7.526  13.056  0.2698  0.4725  0.0099
18052SOL    HW171766  11.561   7.571  13.076  0.2661  0.7402 -0.6133
18052SOL    HW271767  11.676   7.569  12.978  0.6690 -0.0798 -0.1289
18053SOL     OW71768  13.248  12.243   7.894  0.7299 -0.4820  0.5288
18053SOL    HW171769  13.177  12.296   7.857  0.8698 -0.4853  0.2507
18053SOL    HW271770  13.217  12.152   7.885 -0.3584 -0.3914  2.7586
18054SOL     OW71771  10.729   4.517   4.145 -0.1477 -0.0907  0.3742
18054SOL    HW171772  10.777   4.600   4.152  0.0915 -0.1811 -0.1908
18054SOL    HW271773  10.683   4.510   4.229  0.0699  0.4635  0.5492
18055SOL     OW71774   9.019   8.287  12.397  0.0135 -0.3238  0.0702
18055SOL    HW171775   9.064   8.217  12.444  0.0839 -0.3735 -0.0673
18055SOL    HW271776   9.086   8.354  12.384 -0.1151 -0.1337  0.4032
18056SOL     OW71777   2.475   7.952  10.197 -0.0573 -0.1053  0.4555
18056SOL    HW171778   2.516   8.028  10.237 -0.7081  1.0160 -0.9020
18056SOL    HW271779   2.541   7.917  10.138 -0.0124 -0.1528  0.5329
18057SOL     OW71780  10.675  11.188   7.592 -0.2870 -0.9571 -0.4064
18057SOL    HW171781  10.663  11.251   7.663 -1.9209 -0.4466 -1.0715
18057SOL    HW271782  10.634  11.107   7.625 -1.3799 -0.6117 -0.8827
18058SOL     OW71783   9.164  11.381  12.651  0.0855  0.2978  0.1968
18058SOL    HW171784   9.123  11.324  12.587  0.5683  0.2836 -0.1069
18058SOL    HW271785   9.258  11.373  12.634  0.1602  1.3426 -0.0021
18059SOL     OW71786  10.738   9.785   0.960  0.7853  0.4457 -0.0566
18059SOL    HW171787  10.648   9.760   0.939  0.3425  2.4377 -0.7293
18059SOL    HW271788  10.782   9.702   0.977 -0.5690 -0.8047 -2.1794
18060SOL     OW71789   9.607   4.703   4.100  0.9105  0.2500  0.1968
18060SOL    HW171790   9.582   4.670   4.014 -1.1025 -0.2291  0.9054
18060SOL    HW271791   9.598   4.628   4.159  1.6040  0.7317  0.9426
18061SOL     OW71792   2.607  11.609  14.074  0.2264 -0.2740 -0.4324
18061SOL    HW171793   2.644  11.546  14.135 -0.3626 -1.0952 -0.8944
18061SOL    HW271794   2.591  11.558  13.994  0.5094  0.6534 -1.0970
18062SOL     OW71795   6.041   8.920  12.742  0.1215  0.2690  0.1047
18062SOL    HW171796   6.123   8.923  12.792  0.5600 -0.2252 -0.5647
18062SOL    HW271797   5.987   8.857  12.789 -0.2854  1.3540  1.1344
18063SOL     OW71798   2.290  12.428  13.746  0.1299  0.1467 -0.3154
18063SOL    HW171799   2.243  12.383  13.677  0.8962  0.2624 -0.9223
18063SOL    HW271800   2.375  12.385  13.750  0.0273  0.0052  0.6978
18064SOL     OW71801   6.557   8.586   5.132  0.2732 -0.4313 -0.2245
18064SOL    HW171802   6.563   8.642   5.210 -0.5724 -1.6139  0.7293
18064SOL    HW271803   6.624   8.519   5.145  0.3986 -0.3978 -0.7051
18065SOL     OW71804   9.123   8.473   2.879 -0.4777  0.4071  0.0976
18065SOL    HW171805   9.201   8.452   2.827  0.4597  1.2748  1.1015
18065SOL    HW271806   9.089   8.388   2.907  0.3002  0.0259 -0.0802
18066SOL     OW71807   0.734   4.056   6.455 -0.1195 -0.3634 -0.1962
18066SOL    HW171808   0.807   3.994   6.455 -0.6031 -0.9506 -1.0272
18066SOL    HW271809   0.669   4.018   6.513  0.7135  0.7809  1.5691
18067SOL     OW71810   4.993   4.478   1.857 -0.3108  0.0175 -0.2051
18067SOL    HW171811   4.998   4.397   1.807 -1.6653 -0.9098  1.0860
18067SOL    HW271812   5.028   4.545   1.798  0.1878 -1.3729 -1.5516
18068SOL     OW71813   9.516  12.933   6.954  0.4389 -0.5018 -0.4306
18068SOL    HW171814   9.453  12.886   6.900  0.3915 -0.5717 -0.3155
18068SOL    HW271815   9.599  12.928   6.905  0.8617 -2.2317  0.4043
18069SOL     OW71816  11.803   0.358   5.025 -0.0416  0.0193  0.2792
18069SOL    HW171817  11.889   0.325   5.000  0.2871  1.1661 -0.1829
18069SOL    HW271818  11.813   0.382   5.118 -0.1345 -0.6742  0.4742
18070SOL     OW71819   6.534   2.524  10.641  0.2228  0.3221 -0.2152
18070SOL    HW171820   6.458   2.497  10.590  0.6026 -0.5880 -0.3355
18070SOL    HW271821   6.527   2.474  10.722  0.0624  1.1347  0.2715
18071SOL     OW71822   8.252   4.098   0.671 -0.2045  0.2387  0.1930
18071SOL    HW171823   8.179   4.140   0.626  1.6337  2.3377 -1.0679
18071SOL    HW271824   8.289   4.038   0.606  0.8715  1.3312 -0.2490
18072SOL     OW71825   3.726   0.855   2.531 -0.2494 -0.5147  0.0834
18072SOL    HW171826   3.707   0.918   2.461 -2.5160  1.5217  2.3689
18072SOL    HW271827   3.804   0.891   2.575  0.1368 -0.8667 -0.2985
18073SOL     OW71828   4.488  12.670   0.489  0.3360 -0.2377 -0.5826
18073SOL    HW171829   4.560  12.700   0.434  1.1855 -2.3056 -0.6866
18073SOL    HW271830   4.410  12.713   0.453  1.5798  3.0572  0.3095
18074SOL     OW71831   2.802   5.130   1.386 -0.1442 -0.2195 -0.1511
18074SOL    HW171832   2.851   5.094   1.459 -1.7812 -1.9432  0.1766
18074SOL    HW271833   2.867   5.143   1.317  1.0979 -0.3814  0.9569
18075SOL     OW71834   5.528  10.919  11.140  0.1770  0.2691  0.2048
18075SOL    HW171835   5.567  11.000  11.108  0.1483  0.3167  0.2881
18075SOL    HW271836   5.445  10.912  11.093  1.4844 -1.2658 -2.0550
18076SOL     OW71837  12.277   2.661   0.428 -0.2269 -0.7047 -0.0475
18076SOL    HW171838  12.270   2.597   0.498  3.2579  0.3896  1.5122
18076SOL    HW271839  12.278   2.745   0.472  2.1097  0.0238 -1.3412
18077SOL     OW71840   7.421   6.933  13.027 -0.1386  0.5521  0.1097
18077SOL    HW171841   7.385   6.866  13.084 -0.6839  0.5284 -0.2487
18077SOL    HW271842   7.361   7.007  13.037 -0.6653  0.2932 -0.9716
18078SOL     OW71843  13.780  13.693  13.073  0.0643 -0.1962 -0.6605
18078SOL    HW171844  13.743  13.775  13.108 -1.7295 -1.2434  0.0708
18078SOL    HW271845  13.808  13.715  12.984 -0.8844  1.0874 -0.6711
18079SOL     OW71846  10.652   5.781  11.489 -0.0167  0.2450  0.2976
18079SOL    HW171847  10.709   5.826  11.426  0.3041  0.5909  0.8287
18079SOL    HW271848  10.692   5.695  11.500 -0.7438 -0.2679 -0.8728
18080SOL     OW71849   9.944  12.677   7.157 -0.5230  0.3117 -0.5905
18080SOL    HW171850   9.865  12.677   7.211 -1.4267  0.5248 -1.8506
18080SOL    HW271851   9.978  12.766   7.164  1.2555 -0.4747  2.1790
18081SOL     OW71852  13.118  10.597   5.095  0.1153 -0.2077 -0.0273
18081SOL    HW171853  13.178  10.526   5.072 -0.8215 -1.1292  0.2574
18081SOL    HW271854  13.170  10.656   5.149  1.1698 -0.1885 -1.0380
18082SOL     OW71855  13.678  10.404   8.825 -0.0833 -0.2025  0.1370
18082SOL    HW171856  13.750  10.378   8.882 -0.1741  0.9582  0.8118
18082SOL    HW271857  13.611  10.436   8.885 -0.2161  0.9644 -0.6047
18083SOL     OW71858   4.767  12.355   3.782 -0.5007 -0.8934 -0.0201
18083SOL    HW171859   4.685  12.399   3.759 -1.5694 -2.7890 -0.0445
18083SOL    HW271860   4.835  12.407   3.738 -1.8246 -0.2284 -1.3786
18084SOL     OW71861  13.539   4.598   4.650 -0.0325  0.2109  0.0880
18084SOL    HW171862  13.549   4.672   4.590 -0.7643  0.7066  0.5569
18084SOL    HW271863  13.562   4.632   4.736  1.8609 -0.7278  0.0006
18085SOL     OW71864   4.426  12.858   6.276  0.0799  0.2539 -0.7220
18085SOL    HW171865   4.520  12.843   6.268  0.1099 -0.3888  0.5728
18085SOL    HW271866   4.388  12.812   6.201  0.6459 -1.3248 -0.0769
18086SOL     OW71867   8.638   4.506   2.790 -0.0426  0.4221 -0.1223
18086SOL    HW171868   8.625   4.599   2.770  2.2741  0.5978 -1.1257
18086SOL    HW271869   8.639   4.503   2.886 -0.1721  1.4355 -0.0723
18087SOL     OW71870  10.419   6.439   2.046  0.0203 -0.1029 -0.0442
18087SOL    HW171871  10.392   6.347   2.042 -0.6533  0.0617  0.5109
18087SOL    HW271872  10.376   6.473   2.124  2.4753  0.0007  1.3534
18088SOL     OW71873   9.345  11.415   2.580  0.3393 -0.3903 -0.2187
18088SOL    HW171874   9.292  11.382   2.653 -0.6340  1.9587  0.2067
18088SOL    HW271875   9.281  11.454   2.520  1.4301  0.7870 -0.6428
18089SOL     OW71876   7.090   8.267  13.821 -0.0712  0.5873  0.0193
18089SOL    HW171877   7.153   8.338  13.832  0.7870 -0.2602  0.9383
18089SOL    HW271878   7.005   8.306  13.839  0.2976  1.5471 -0.2868
18090SOL     OW71879   8.964   6.782   9.127 -0.0602 -0.3836  0.5170
18090SOL    HW171880   9.042   6.792   9.073 -0.3327  0.0917  0.1992
18090SOL    HW271881   8.905   6.852   9.097 -1.4270 -1.9815 -0.6703
18091SOL     OW71882   2.339   6.056  11.870  0.6403 -0.0706  0.4853
18091SOL    HW171883   2.415   6.113  11.878 -0.0094  1.2552 -1.8765
18091SOL    HW271884   2.374   5.974  11.837  1.2419 -0.1372  1.2456
18092SOL     OW71885   3.454   7.325   8.529  0.2826 -0.0438 -0.0581
18092SOL    HW171886   3.449   7.296   8.620  0.5841 -1.5847 -0.5128
18092SOL    HW271887   3.363   7.324   8.498  0.2248  0.1044  0.1023
18093SOL     OW71888  12.879   6.242   8.971 -0.6820  0.0324 -0.7279
18093SOL    HW171889  12.944   6.191   9.018 -1.6209 -0.8072 -0.3063
18093SOL    HW271890  12.851   6.309   9.034 -0.1982  0.4284 -0.9282
18094SOL     OW71891  12.503   3.457   1.545 -1.0070  0.7303  0.4380
18094SOL    HW171892  12.553   3.379   1.567 -1.2507 -0.7674 -3.5572
18094SOL    HW271893  12.441   3.466   1.618  0.5217 -1.3858  2.1457
18095SOL     OW71894   8.424  11.615   7.009 -0.3216  0.5437  0.4109
18095SOL    HW171895   8.504  11.662   7.034 -0.5811  1.1155  0.1853
18095SOL    HW271896   8.395  11.572   7.090  0.3911  0.0635  0.4157
18096SOL     OW71897  12.681  10.027   6.655  0.5720 -0.7540  0.0497
18096SOL    HW171898  12.705  10.053   6.567 -1.1032 -4.1923 -1.6321
18096SOL    HW271899  12.757   9.979   6.688  2.2643  2.7401  1.7402
18097SOL     OW71900  12.615   2.237   3.673  0.1076 -0.4331  0.2310
18097SOL    HW171901  12.658   2.265   3.754  0.6919 -0.3611 -0.0974
18097SOL    HW271902  12.616   2.314   3.617  0.7409 -0.7983 -0.2712
18098SOL     OW71903  14.073   0.238   2.956  0.2732  0.1960  0.0460
18098SOL    HW171904  14.044   0.150   2.932 -1.8621  0.9301 -0.3091
18098SOL    HW271905  14.014   0.263   3.028  1.5434  0.9551  0.8643
18099SOL     OW71906   1.949  13.173  11.496  0.3056  0.0003  0.1608
18099SOL    HW171907   1.934  13.248  11.439  0.2669 -1.2713 -1.5945
18099SOL    HW271908   2.006  13.206  11.566  1.7812  1.2235 -1.5483
18100SOL     OW71909   8.713   5.021   9.415 -0.2462 -0.5286 -0.1525
18100SOL    HW171910   8.779   5.078   9.453 -0.5600 -0.6374  0.5671
18100SOL    HW271911   8.763   4.952   9.372  0.1092 -0.7645  0.6293
18101SOL     OW71912   1.909   0.268   2.170 -0.0277 -0.1244  0.3778
18101SOL    HW171913   1.816   0.266   2.149 -0.3853  0.6778  1.7631
18101SOL    HW271914   1.928   0.360   2.188  0.7400 -0.4501  1.3361
18102SOL     OW71915   6.445   9.036  11.001  0.3915 -0.1285  0.3651
18102SOL    HW171916   6.471   8.998  11.084 -0.2087  1.7727  1.4794
18102SOL    HW271917   6.356   9.067  11.015 -0.1941 -0.8475 -1.3901
18103SOL     OW71918   2.828   8.476   1.074  0.0489 -0.0834  0.0107
18103SOL    HW171919   2.836   8.567   1.102  0.3835 -0.2414  0.4471
18103SOL    HW271920   2.857   8.476   0.983  2.9565 -0.2323  0.8323
18104SOL     OW71921  12.671   0.421   3.560  0.2148 -0.0199 -0.2154
18104SOL    HW171922  12.734   0.430   3.631  0.7574 -1.2815 -0.5015
18104SOL    HW271923  12.697   0.485   3.495  1.2558 -0.5730 -0.3569
18105SOL     OW71924   1.088   5.280   0.529 -0.3417 -0.2122  0.7378
18105SOL    HW171925   1.158   5.263   0.592 -0.9920  0.3198  1.6376
18105SOL    HW271926   1.112   5.363   0.488 -0.8310  0.3877  1.6300
18106SOL     OW71927   6.796   3.341   7.877 -0.3420  0.3176  0.5117
18106SOL    HW171928   6.852   3.392   7.936 -0.3955  1.4418 -0.3753
18106SOL    HW271929   6.718   3.322   7.929 -0.5378  1.5882  0.7294
18107SOL     OW71930   0.986   1.782   4.192  0.2324  0.3239  0.1568
18107SOL    HW171931   1.057   1.717   4.201 -0.4418 -0.1375  2.6331
18107SOL    HW271932   1.001   1.845   4.262 -2.6018 -0.6373  1.8088
18108SOL     OW71933   1.105   9.631  10.101 -0.3083  0.4697  0.2028
18108SOL    HW171934   1.089   9.648  10.194  0.6738  1.4319  0.2126
18108SOL    HW271935   1.135   9.540  10.098  0.4528  0.6821  0.9366
18109SOL     OW71936   6.716  13.874   8.194  0.3590 -0.0298  0.8388
18109SOL    HW171937   6.803  13.916   8.192  0.0937  0.5731  1.6860
18109SOL    HW271938   6.683  13.890   8.282  0.3755 -2.3362  1.3284
18110SOL     OW71939  10.546  12.054   4.364  0.0241 -0.0947  0.1487
18110SOL    HW171940  10.577  12.096   4.283  0.7001 -0.1271  0.3834
18110SOL    HW271941  10.555  11.961   4.348  0.0939 -0.1040  0.2379
18111SOL     OW71942   4.040   9.404   8.737  0.1363 -0.1063  0.0836
18111SOL    HW171943   4.067   9.362   8.819 -0.5740 -1.8457 -0.5513
18111SOL    HW271944   3.945   9.393   8.734  0.2512 -0.9018 -1.4158
18112SOL     OW71945   4.794   1.695   3.305 -0.2819 -0.0077 -0.0906
18112SOL    HW171946   4.794   1.615   3.252  1.2530 -0.3536  0.3847
18112SOL    HW271947   4.706   1.730   3.295 -0.5683 -1.0243 -1.4194
18113SOL     OW71948   3.264   9.726   3.927 -0.2080  0.0937  0.1992
18113SOL    HW171949   3.169   9.734   3.921  0.0030  3.4447 -1.4692
18113SOL    HW271950   3.285   9.646   3.880 -2.2443 -1.7747  2.2713
18114SOL     OW71951   0.095  13.597   6.956  0.0599  1.0098 -0.3937
18114SOL    HW171952   0.065  13.646   7.033  0.8235  0.2702  0.4025
18114SOL    HW271953   0.161  13.654   6.916  0.4035  0.9663  0.0975
18115SOL     OW71954   5.699  11.204  11.231  0.1799  0.0439 -0.0550
18115SOL    HW171955   5.620  11.251  11.202  1.1655  1.3372 -0.7469
18115SOL    HW271956   5.681  11.182  11.323 -0.5443  1.3396  0.1446
18116SOL     OW71957  14.077  12.967   1.650 -0.5108 -0.0603 -0.8756
18116SOL    HW171958  14.075  12.964   1.554 -1.9825  0.6039 -0.8961
18116SOL    HW271959  14.111  12.882   1.676  1.8309  0.4671 -2.0114
18117SOL     OW71960   5.754   4.869   6.102 -0.1262 -0.1569  0.4510
18117SOL    HW171961   5.829   4.834   6.152  1.0271 -0.2682 -1.2812
18117SOL    HW271962   5.777   4.960   6.084  0.5086 -0.6890 -1.6741
18118SOL     OW71963   5.301   2.342   3.558 -0.0685 -0.2526  0.1442
18118SOL    HW171964   5.319   2.325   3.650  0.7355  0.7163  0.1850
18118SOL    HW271965   5.361   2.284   3.511 -1.5895 -1.9333  0.1749
18119SOL     OW71966   4.289   6.908   1.131 -0.3557  0.3898  0.0795
18119SOL    HW171967   4.316   6.888   1.221  0.1072  1.5425  0.2104
18119SOL    HW271968   4.345   6.980   1.105 -1.4535  1.0053 -0.6334
18120SOL     OW71969  12.525  13.750  12.505 -0.6579 -0.6147  0.2677
18120SOL    HW171970  12.567  13.807  12.440 -1.5926 -0.4352 -0.1884
18120SOL    HW271971  12.571  13.770  12.586  0.3089 -0.6019 -0.2620
18121SOL     OW71972   8.855   0.922   4.628 -0.6370 -0.4580  0.0883
18121SOL    HW171973   8.860   1.016   4.609  0.7145 -1.0086 -2.9361
18121SOL    HW271974   8.762   0.904   4.636 -0.9148  1.1508  0.9429
18122SOL     OW71975   0.056   3.321  12.556  0.3822 -0.1377 -0.0538
18122SOL    HW171976   0.104   3.380  12.615  1.3339 -0.4732 -0.4774
18122SOL    HW271977   0.094   3.337  12.470  0.2236 -0.9145 -0.2777
18123SOL     OW71978  10.409   2.231  12.986  0.0569 -0.1570  0.4124
18123SOL    HW171979  10.392   2.140  12.962  4.1730 -0.9478 -0.1930
18123SOL    HW271980  10.351   2.281  12.928 -1.4098 -2.3212 -0.1417
18124SOL     OW71981  11.803   4.026  13.693 -0.2569 -0.3172  0.3004
18124SOL    HW171982  11.708   4.022  13.682 -0.3354 -0.1538  0.8897
18124SOL    HW271983  11.828   3.939  13.724 -0.3527 -0.0623  1.1211
18125SOL     OW71984   2.142   8.098  13.151 -0.5115 -0.2637  0.3514
18125SOL    HW171985   2.235   8.119  13.156 -0.6403  0.1411  1.6030
18125SOL    HW271986   2.138   8.003  13.141  0.0440 -0.1210 -1.4818
18126SOL     OW71987   8.236   3.151   3.966  0.8121  0.0804  0.2761
18126SOL    HW171988   8.189   3.099   3.900  0.0228  0.7403  0.3084
18126SOL    HW271989   8.181   3.145   4.044  0.9007  0.6714  0.3825
18127SOL     OW71990  13.494  11.575   3.070 -0.1696  0.5355 -0.1010
18127SOL    HW171991  13.505  11.669   3.083  1.4088  0.6307 -1.6733
18127SOL    HW271992  13.469  11.567   2.978  1.7726 -0.6509 -0.5761
18128SOL     OW71993   5.406   1.385   3.214  0.2685  0.0097 -0.5574
18128SOL    HW171994   5.338   1.342   3.266  2.1218 -3.9076 -1.0281
18128SOL    HW271995   5.472   1.412   3.279  0.2085 -0.1050 -0.4482
18129SOL     OW71996   5.997   2.596   4.593 -0.1650 -0.4920  0.1096
18129SOL    HW171997   6.070   2.606   4.532 -0.7266 -0.5075 -0.5740
18129SOL    HW271998   5.921   2.583   4.537 -0.3636 -2.8522  0.8478
18130SOL     OW71999   8.424  11.817   5.864  0.2559 -0.1427  0.2053
18130SOL    HW172000   8.389  11.730   5.879  1.8200 -0.7374  0.6390
18130SOL    HW272001   8.427  11.857   5.951 -1.2139  0.6775 -0.0928
18131SOL     OW72002  12.864   2.456   5.150 -0.0098 -0.1131 -0.0257
18131SOL    HW172003  12.832   2.524   5.209 -2.0472  0.0412 -1.2271
18131SOL    HW272004  12.837   2.374   5.191 -0.1008 -0.0771 -0.0144
18132SOL     OW72005  10.071   4.740  11.801 -0.5217  0.0824 -0.6206
18132SOL    HW172006  10.061   4.764  11.893  2.9893  1.4437 -0.4646
18132SOL    HW272007  10.159   4.703  11.795 -0.3305  0.7937 -3.5473
18133SOL     OW72008  10.777   7.395  13.842 -0.0217 -0.5737  0.5976
18133SOL    HW172009  10.864   7.432  13.858  0.3363 -1.7092  1.3993
18133SOL    HW272010  10.729   7.410  13.924 -1.3641  2.0115 -0.5439
18134SOL     OW72011   9.468   9.419   1.230  0.3667  0.3399 -0.0202
18134SOL    HW172012   9.410   9.345   1.247  1.2395 -0.7925 -1.6609
18134SOL    HW272013   9.466   9.470   1.311 -0.2354 -1.4919  1.1946
18135SOL     OW72014   2.968   7.638   2.940  0.1001 -0.2489  0.4250
18135SOL    HW172015   2.879   7.631   2.974  0.2060 -2.0879  0.4224
18135SOL    HW272016   2.992   7.730   2.953 -1.0553 -0.1630  2.2815
18136SOL     OW72017  12.946   5.223   6.896 -0.4318 -0.2751 -0.0842
18136SOL    HW172018  12.968   5.316   6.906  0.8491 -0.5953  0.3454
18136SOL    HW272019  13.031   5.179   6.893 -1.0302 -1.5036  0.3847
18137SOL     OW72020   4.764   4.328   8.832  0.2024  0.1674 -0.0415
18137SOL    HW172021   4.672   4.350   8.820  0.2453  3.0075  3.4075
18137SOL    HW272022   4.776   4.248   8.780 -3.8161  0.3776 -1.6442
18138SOL     OW72023   3.410   5.219  10.370  0.0566 -0.1234  0.8458
18138SOL    HW172024   3.470   5.182  10.435 -0.8309 -1.3211  1.0351
18138SOL    HW272025   3.387   5.144  10.315  0.2509  0.7311 -0.4251
18139SOL     OW72026   4.154   1.111   1.509 -0.0653 -0.7621 -0.0150
18139SOL    HW172027   4.203   1.029   1.513  1.8864  0.0435 -3.5369
18139SOL    HW272028   4.081   1.093   1.450 -0.8069 -0.4472  0.7812
18140SOL     OW72029   1.193   7.640   0.573  0.3319  0.4550  0.3355
18140SOL    HW172030   1.170   7.547   0.578  0.5482  0.2042 -1.8872
18140SOL    HW272031   1.126   7.679   0.517  0.6781  1.4592  0.5929
18141SOL     OW72032   2.394   3.658   4.068 -0.3118  0.8616  0.5694
18141SOL    HW172033   2.381   3.577   4.019  1.7175  0.6153  0.3711
18141SOL    HW272034   2.338   3.722   4.023  1.1260  0.5492 -1.8598
18142SOL     OW72035   2.848  11.197   4.164 -0.5976  0.8285  0.2776
18142SOL    HW172036   2.775  11.237   4.116  0.2841  1.3619 -0.6585
18142SOL    HW272037   2.831  11.220   4.255 -2.7234 -0.8637  0.4040
18143SOL     OW72038   2.957   1.295   9.063 -0.0597 -0.1493  0.4637
18143SOL    HW172039   2.926   1.385   9.047 -0.5931 -0.3075  0.5985
18143SOL    HW272040   2.917   1.271   9.146 -0.6699 -0.8464 -0.0215
18144SOL     OW72041   0.636   5.116  10.063 -0.5529 -0.1566  0.5964
18144SOL    HW172042   0.568   5.176  10.092 -2.0808 -1.1484 -0.7540
18144SOL    HW272043   0.608   5.030  10.096 -0.9054 -0.8514 -1.3579
18145SOL     OW72044   1.683   0.098   2.961  0.4478  0.3582  0.3501
18145SOL    HW172045   1.697   0.181   3.007 -0.6131  1.8227 -1.8241
18145SOL    HW272046   1.771   0.065   2.944  1.0117  2.4589 -1.1474
18146SOL     OW72047   8.671   8.379   7.892  0.1858 -0.2441 -0.0329
18146SOL    HW172048   8.602   8.337   7.943  1.2483  0.2470  1.9071
18146SOL    HW272049   8.634   8.464   7.867 -0.2947 -0.4177  0.0775
18147SOL     OW72050   0.933   6.020  10.132  0.1237 -0.6972 -0.6643
18147SOL    HW172051   0.906   5.990  10.045  0.7345  0.5518 -1.3253
18147SOL    HW272052   0.948   6.114  10.120 -0.1079 -0.4414  0.8865
18148SOL     OW72053   1.996   1.804  13.079  0.1714 -0.8491 -0.2508
18148SOL    HW172054   1.971   1.713  13.096 -0.0994 -0.9447 -1.1161
18148SOL    HW272055   2.072   1.819  13.135  1.4612 -2.2382 -1.5518
18149SOL     OW72056   0.267   8.644   1.967  0.1869 -0.1298 -0.1997
18149SOL    HW172057   0.233   8.667   2.054  1.8664  0.1264  0.4373
18149SOL    HW272058   0.237   8.715   1.911  0.4458  0.5815  0.5310
18150SOL     OW72059   8.305   4.035   6.624 -0.1003  0.1136 -0.3160
18150SOL    HW172060   8.332   4.091   6.697 -0.6525  0.6388 -0.5118
18150SOL    HW272061   8.387   4.000   6.590  0.1343 -0.5923  0.9051
18151SOL     OW72062  11.838   9.853   6.463  0.2795 -0.3501  0.1910
18151SOL    HW172063  11.814   9.875   6.553  1.7969 -0.8607  0.7670
18151SOL    HW272064  11.881   9.932   6.430 -1.0038  0.1280 -0.4014
18152SOL     OW72065  10.338   0.619   2.027 -0.1964 -0.3318 -0.0960
18152SOL    HW172066  10.274   0.549   2.031  0.5043 -1.0683 -1.2409
18152SOL    HW272067  10.324   0.661   1.942  0.7452 -0.4209 -0.3045
18153SOL     OW72068  11.273   1.308   1.069 -0.4011 -0.0964 -0.0103
18153SOL    HW172069  11.181   1.309   1.094 -0.2401  0.8135  0.5876
18153SOL    HW272070  11.315   1.250   1.131 -0.6046 -0.6993 -0.4295
18154SOL     OW72071  11.900   4.896  10.266  0.7372  0.2697 -0.3679
18154SOL    HW172072  11.978   4.939  10.302  0.4164  1.1211 -0.6702
18154SOL    HW272073  11.830   4.918  10.328  0.3409  1.1180 -1.0896
18155SOL     OW72074  10.729  11.625   8.456 -0.5757  0.2462 -0.2038
18155SOL    HW172075  10.678  11.544   8.451 -3.8674  1.9884  1.6260
18155SOL    HW272076  10.782  11.615   8.535 -0.2146 -0.4946 -0.5322
18156SOL     OW72077  10.918  10.864   4.480  0.3189 -0.5510 -0.0385
18156SOL    HW172078  10.987  10.838   4.541 -0.2791 -2.1450  0.0148
18156SOL    HW272079  10.851  10.796   4.490 -0.3486 -0.1513 -1.5664
18157SOL     OW72080   9.175   8.151   3.913  0.3445  0.0678 -0.6820
18157SOL    HW172081   9.179   8.072   3.967  1.0236 -0.9694 -2.1869
18157SOL    HW272082   9.082   8.162   3.893  0.1306  0.2502  0.3724
18158SOL     OW72083   2.904   0.428   1.214 -0.4721 -0.4769  0.0220
18158SOL    HW172084   2.972   0.370   1.180 -2.1489 -2.2514 -0.5165
18158SOL    HW272085   2.822   0.381   1.198 -1.9779  2.1704 -0.6169
18159SOL     OW72086   7.085  11.889   0.675 -0.3003  0.5153  0.1451
18159SOL    HW172087   7.139  11.814   0.651  0.0761  0.4944  0.9958
18159SOL    HW272088   7.102  11.901   0.769 -2.3360  0.0658  0.6079
18160SOL     OW72089   0.630  11.552  10.770  0.3371  0.5265 -0.6505
18160SOL    HW172090   0.556  11.496  10.746 -1.3409  2.0388  0.6828
18160SOL    HW272091   0.659  11.590  10.688  0.6481 -1.2266 -1.3968
18161SOL     OW72092  10.495   3.484   4.994  0.3471  0.4213  0.0102
18161SOL    HW172093  10.402   3.506   4.990  0.3844  0.4482 -0.6667
18161SOL    HW272094  10.523   3.514   5.081  0.4391  3.1793 -0.8900
18162SOL     OW72095   3.927  10.611  11.029  0.3402 -0.5247 -0.0859
18162SOL    HW172096   3.935  10.522  11.062 -0.4844  0.0943  1.8812
18162SOL    HW272097   3.834  10.624  11.015  0.3953  0.2023  0.1747
18163SOL     OW72098   6.130   4.965   5.304 -0.3104 -0.1446  0.3440
18163SOL    HW172099   6.196   4.914   5.350  1.5972  1.1228 -0.8753
18163SOL    HW272100   6.144   5.055   5.334 -1.8588  0.0888  0.4494
18164SOL     OW72101  12.372  11.954   6.698  0.3928 -0.2585  0.0913
18164SOL    HW172102  12.379  12.044   6.729  0.2894 -0.0427 -0.4997
18164SOL    HW272103  12.300  11.916   6.749 -0.7821  0.5377 -0.9083
18165SOL     OW72104   4.416   8.064   0.896  0.2422  0.2344  0.0938
18165SOL    HW172105   4.394   8.157   0.890  0.4048  0.2252 -0.6597
18165SOL    HW272106   4.476   8.060   0.971  0.9653  0.8853 -0.4238
18166SOL     OW72107  12.303   4.506   5.457  0.3806 -0.8594  0.0557
18166SOL    HW172108  12.379   4.452   5.478  1.4815  1.3626  2.2717
18166SOL    HW272109  12.334   4.570   5.394  0.2747 -0.2424  0.6092
18167SOL     OW72110   4.967   5.712   4.951  0.6003  0.0558 -0.0247
18167SOL    HW172111   4.896   5.775   4.943  0.0236 -0.5113  0.5531
18167SOL    HW272112   4.927   5.628   4.932  1.3007 -0.1805 -0.5041
18168SOL     OW72113  13.838   5.451   4.883  0.5069 -0.0270  0.1335
18168SOL    HW172114  13.870   5.516   4.821 -2.1291  0.3525 -0.9628
18168SOL    HW272115  13.743   5.454   4.874  0.2239 -3.5556  0.4985
18169SOL     OW72116   0.646   5.341   6.357  0.0831 -0.2336 -0.3905
18169SOL    HW172117   0.582   5.377   6.296  0.5496  0.8467 -0.2791
18169SOL    HW272118   0.729   5.348   6.311  0.1760 -1.2804 -0.3921
18170SOL     OW72119   6.962   3.589   7.999  0.3361  0.4569  0.5025
18170SOL    HW172120   6.902   3.662   8.016  2.0843  2.1549 -0.1538
18170SOL    HW272121   7.026   3.625   7.937  0.0680 -2.3142 -1.5846
18171SOL     OW72122   9.434   0.705   7.547 -0.3262  0.2350  0.1924
18171SOL    HW172123   9.359   0.671   7.595  0.1587  1.4719  1.9297
18171SOL    HW272124   9.396   0.758   7.477 -1.0502 -0.9005 -0.3027
18172SOL     OW72125  12.741  14.045  10.548  0.1821 -0.2827 -0.0385
18172SOL    HW172126  12.719  13.964  10.594 -1.1977  0.4679  0.6872
18172SOL    HW272127  12.715  14.029  10.457 -0.6974 -0.4528  0.2278
18173SOL     OW72128   4.983   7.628   5.343  0.0599  0.2471 -0.3985
18173SOL    HW172129   5.035   7.681   5.402 -0.7459  0.0607  0.5087
18173SOL    HW272130   5.022   7.540   5.349  1.6319  0.7434 -2.1881
18174SOL     OW72131  10.575  12.192   7.754  0.0006  1.1069  0.0090
18174SOL    HW172132  10.601  12.108   7.716  0.7853  0.4076  1.9657
18174SOL    HW272133  10.494  12.173   7.801 -0.2599  1.6578 -0.2020
18175SOL     OW72134   0.760   6.787   2.298 -0.1215 -0.6209  0.4597
18175SOL    HW172135   0.823   6.736   2.349  0.4173  1.4412  1.9530
18175SOL    HW272136   0.678   6.781   2.348  0.0402  0.2454  0.8434
18176SOL     OW72137  12.768  11.939  12.391 -0.0564 -0.3129  0.1681
18176SOL    HW172138  12.755  11.965  12.483 -0.7486  0.4802 -0.1426
18176SOL    HW272139  12.843  11.880  12.394  0.0579 -0.1448  1.2249
18177SOL     OW72140  12.588   7.201   0.214 -0.3108 -0.4098  0.3348
18177SOL    HW172141  12.510   7.146   0.212 -1.0339  0.5120  1.8570
18177SOL    HW272142  12.556   7.290   0.205  0.8605 -0.1633 -2.2152
18178SOL     OW72143  11.687   9.018  11.944  0.3804  0.2381 -0.1055
18178SOL    HW172144  11.635   8.966  11.884 -0.2824  0.3124  0.3881
18178SOL    HW272145  11.747   9.068  11.888 -0.9837  1.1623 -0.7886
18179SOL     OW72146  10.688  12.232   6.533  0.1196 -0.2181 -0.0873
18179SOL    HW172147  10.658  12.230   6.442 -0.3797 -1.0504  0.0879
18179SOL    HW272148  10.705  12.140   6.555 -1.3532 -0.2193  1.1812
18180SOL     OW72149   3.018   9.779   1.668  0.2186 -0.0340  0.2235
18180SOL    HW172150   2.949   9.805   1.729  1.4442  0.7404  1.3353
18180SOL    HW272151   3.028   9.685   1.682  0.4343  0.1243  1.1676
18181SOL     OW72152   6.961   9.032  10.486 -0.3225 -0.3301  0.4817
18181SOL    HW172153   6.987   9.051  10.396 -2.9303  2.7383  0.1943
18181SOL    HW272154   7.007   9.098  10.538 -0.4039 -0.7794  1.1277
18182SOL     OW72155   0.972  12.009   1.628 -0.5965  0.1310 -0.5453
18182SOL    HW172156   0.978  11.953   1.550 -2.9860 -1.2292  0.1500
18182SOL    HW272157   0.899  12.068   1.610 -0.9925 -0.0115  0.5318
18183SOL     OW72158   2.583   3.440   0.596 -0.0448  0.2916  0.0203
18183SOL    HW172159   2.522   3.482   0.656  1.8815  1.1126  1.4980
18183SOL    HW272160   2.589   3.501   0.522 -0.0368  0.8414  0.4665
18184SOL     OW72161   2.486   1.674   1.702 -0.6683 -0.0376  0.0375
18184SOL    HW172162   2.484   1.701   1.794 -1.7857 -1.3680  0.4423
18184SOL    HW272163   2.404   1.627   1.689 -0.2747 -0.3575 -1.4969
18185SOL     OW72164   0.776   9.964  12.608  0.4013  0.2021 -0.0463
18185SOL    HW172165   0.807   9.880  12.573  1.3913  0.1187  0.9566
18185SOL    HW272166   0.720   9.999  12.539 -0.0690 -1.2940 -0.4747
18186SOL     OW72167   9.612   5.794  12.876 -0.8104  0.6583 -0.2855
18186SOL    HW172168   9.594   5.701  12.891  1.4307 -0.0064 -1.3653
18186SOL    HW272169   9.537   5.824  12.823 -1.3850 -0.6108 -0.2364
18187SOL     OW72170   8.629   3.860   3.132 -0.1202 -0.0931  0.6825
18187SOL    HW172171   8.698   3.827   3.075  1.5335  1.3068  1.7806
18187SOL    HW272172   8.561   3.792   3.129 -0.6378  0.3214 -3.6645
18188SOL     OW72173  12.689   0.539  13.495 -0.6658  0.2093  0.5807
18188SOL    HW172174  12.626   0.592  13.447 -0.5029 -0.9546 -0.9652
18188SOL    HW272175  12.658   0.449  13.486 -0.2740 -0.1241  2.1460
18189SOL     OW72176  11.525  11.028   6.753  0.4119 -0.3327  0.2844
18189SOL    HW172177  11.584  11.025   6.678  0.3106  1.0605  0.1250
18189SOL    HW272178  11.439  11.043   6.715  0.3465  0.3010  0.6777
18190SOL     OW72179   3.038   1.446   6.427  0.6189 -0.0495  0.1572
18190SOL    HW172180   3.123   1.401   6.427  1.0037  0.5418  2.1988
18190SOL    HW272181   2.979   1.385   6.470  0.0115 -0.4097 -1.1565
18191SOL     OW72182   2.186  10.375  10.419  0.4756 -0.0113  0.1381
18191SOL    HW172183   2.134  10.411  10.491 -0.4381 -0.3424 -0.3511
18191SOL    HW272184   2.252  10.321  10.463 -2.3120 -3.3010  0.7522
18192SOL     OW72185   8.616   5.972   3.411 -0.1658  0.7471 -0.5956
18192SOL    HW172186   8.610   5.879   3.394 -0.0840  0.4239  0.9450
18192SOL    HW272187   8.597   5.980   3.505 -0.3989  2.2984 -0.7492
18193SOL     OW72188  12.663   1.814  12.303 -0.5576  0.2703  0.5690
18193SOL    HW172189  12.585   1.779  12.346 -1.0610  0.5382 -0.1029
18193SOL    HW272190  12.628   1.869  12.233  0.2276  1.3739  1.0234
18194SOL     OW72191  13.975   3.040  12.956  0.4392 -0.2088 -0.2025
18194SOL    HW172192  13.947   3.029  13.047 -1.8462 -0.5666 -0.8719
18194SOL    HW272193  13.926   3.117  12.925  1.8020  0.4089 -0.9359
18195SOL     OW72194  11.989   1.186   4.395 -0.0514  0.2409  0.7062
18195SOL    HW172195  11.967   1.154   4.482  1.2636 -1.0741  0.5992
18195SOL    HW272196  11.949   1.122   4.335  2.5673 -1.3747  0.4888
18196SOL     OW72197   0.833  11.374  10.165  0.1123 -0.7990  0.0684
18196SOL    HW172198   0.743  11.347  10.145  0.6829 -2.2832 -0.6477
18196SOL    HW272199   0.885  11.295  10.153  1.4311 -0.1420  1.1726
18197SOL     OW72200  11.220  10.711   7.682  0.3521  0.2285 -0.5332
18197SOL    HW172201  11.206  10.642   7.746 -0.2943 -0.7814 -1.7253
18197SOL    HW272202  11.242  10.788   7.734 -1.1524 -0.2963  0.9756
18198SOL     OW72203   9.983   9.023  12.532 -0.0362  0.5793 -0.4183
18198SOL    HW172204   9.999   9.055  12.621 -2.1241  0.2787  0.1193
18198SOL    HW272205  10.004   8.930  12.536  0.4458  0.6853 -0.4142
18199SOL     OW72206  10.550   4.052  12.692  0.6846 -0.1218  0.0949
18199SOL    HW172207  10.459   4.045  12.662  0.7552 -0.2658 -0.0941
18199SOL    HW272208  10.577   3.961  12.707  0.7845 -0.0766  0.1887
18200SOL     OW72209   2.725   2.941   0.846 -0.5533 -0.3534 -0.0827
18200SOL    HW172210   2.793   2.877   0.867  0.3692  0.0694 -1.6165
18200SOL    HW272211   2.646   2.907   0.890  0.6178 -0.8428  1.7354
18201SOL     OW72212  10.555   1.315  13.074  0.4355 -0.1178  0.5025
18201SOL    HW172213  10.642   1.343  13.103  0.0634  1.0324  0.5373
18201SOL    HW272214  10.503   1.310  13.155  0.7040 -1.7503  0.6069
18202SOL     OW72215  11.332   2.488  13.536 -0.0250 -0.4371 -0.6529
18202SOL    HW172216  11.427   2.493  13.545 -0.0906  0.2562 -0.2721
18202SOL    HW272217  11.315   2.513  13.445  0.2097 -1.4575 -0.9950
18203SOL     OW72218   1.198   1.888   0.682 -0.4528  0.4971 -0.1853
18203SOL    HW172219   1.138   1.927   0.618 -1.3847 -0.5697  0.0028
18203SOL    HW272220   1.276   1.867   0.631 -1.1725 -0.3106 -0.9873
18204SOL     OW72221   8.515   5.904  12.904 -0.4444 -0.3442  0.5918
18204SOL    HW172222   8.493   5.829  12.849 -2.0964  1.1213 -0.8786
18204SOL    HW272223   8.434   5.923  12.952 -1.4822  2.8408 -2.0544
18205SOL     OW72224  10.910  10.223   6.366 -0.6135 -0.1221 -0.3378
18205SOL    HW172225  10.966  10.289   6.325 -1.3962 -0.0275 -1.3067
18205SOL    HW272226  10.881  10.168   6.293  1.3469 -2.6354  0.5817
18206SOL     OW72227  13.485   3.278  13.786 -0.1680 -0.1258  0.2560
18206SOL    HW172228  13.556   3.335  13.756 -1.2255  0.4555 -1.2837
18206SOL    HW272229  13.405   3.324  13.760 -1.0782 -1.7357  0.0842
18207SOL     OW72230  11.159   0.987   0.622 -0.4170 -0.1414  0.1739
18207SOL    HW172231  11.183   1.023   0.537  1.0047 -1.0241  0.1676
18207SOL    HW272232  11.178   1.057   0.684  0.8889 -0.3332  0.0093
18208SOL     OW72233   8.216  12.193   4.179  0.5409 -0.1876  0.1045
18208SOL    HW172234   8.137  12.166   4.226 -0.0593  1.2005 -0.0477
18208SOL    HW272235   8.184  12.224   4.094  1.3846 -0.7294 -0.4188
18209SOL     OW72236   1.294   8.720   4.635 -0.0060  0.2180  0.5967
18209SOL    HW172237   1.280   8.728   4.729 -0.6195  1.7835  0.3899
18209SOL    HW272238   1.225   8.772   4.595  0.2669 -0.3935 -0.7305
18210SOL     OW72239   1.584   1.963   4.375  0.1487  0.2531 -0.4716
18210SOL    HW172240   1.540   1.983   4.457 -1.1225 -0.4739 -0.9516
18210SOL    HW272241   1.635   2.042   4.355  1.7703 -0.1488  1.7858
18211SOL     OW72242   5.849  11.803   6.159 -0.3611  0.1160  0.3239
18211SOL    HW172243   5.936  11.790   6.199  0.6094  0.6141 -1.5268
18211SOL    HW272244   5.815  11.715   6.146  0.3207 -0.1245  0.1263
18212SOL     OW72245   0.850  12.462   7.660 -0.0759 -0.4360 -0.2346
18212SOL    HW172246   0.885  12.374   7.675  0.0141 -0.6259 -1.4668
18212SOL    HW272247   0.883  12.514   7.733  0.1240 -1.3476  0.3401
18213SOL     OW72248   1.062  14.030   2.735  0.5827 -0.5274  0.2703
18213SOL    HW172249   1.102  14.101   2.785  0.1897  0.0030 -0.1483
18213SOL    HW272250   0.987  14.071   2.692 -0.1599 -1.4021  0.6997
18214SOL     OW72251   5.983  12.296   1.564  0.2635  0.6256 -0.0728
18214SOL    HW172252   5.970  12.386   1.533 -0.8951  0.3497 -0.4128
18214SOL    HW272253   5.956  12.241   1.491 -0.7266 -0.0169  0.7532
18215SOL     OW72254  13.949   9.394  11.234  0.5206 -0.4416  0.0138
18215SOL    HW172255  13.962   9.324  11.170 -1.7882 -0.9985  0.0783
18215SOL    HW272256  13.903   9.353  11.307 -0.6842  1.0806  0.1654
18216SOL     OW72257  10.027   9.389   3.670 -0.5359  0.3084 -0.4507
18216SOL    HW172258  10.063   9.371   3.756  0.6108 -0.6627 -1.0977
18216SOL    HW272259  10.084   9.341   3.609 -1.4165  0.8122 -1.7325
18217SOL     OW72260   1.043   1.357  13.449 -0.3388 -0.1315 -0.0643
18217SOL    HW172261   1.032   1.296  13.376 -0.0463 -1.9603  1.3243
18217SOL    HW272262   1.057   1.442  13.408  0.8971 -1.2615 -2.1631
18218SOL     OW72263  11.764  11.900   1.331  0.2948  0.0601 -0.4493
18218SOL    HW172264  11.853  11.885   1.362 -0.0513 -1.3460 -0.0239
18218SOL    HW272265  11.714  11.826   1.367 -0.9790  0.6729 -0.9098
18219SOL     OW72266   1.886   2.561   0.267  0.2310  0.1520  0.0125
18219SOL    HW172267   1.854   2.648   0.291 -0.3919 -0.0141 -0.1941
18219SOL    HW272268   1.872   2.508   0.346 -1.0846 -0.2014 -0.4450
18220SOL     OW72269   6.367   5.990   3.603 -0.2029 -0.4112  0.6081
18220SOL    HW172270   6.416   6.070   3.622 -0.3108 -0.1115 -0.3441
18220SOL    HW272271   6.404   5.925   3.662  0.1417  0.2468  1.1310
18221SOL     OW72272  13.868   0.180   9.103 -0.1415 -0.0520 -0.5597
18221SOL    HW172273  13.921   0.102   9.116  1.5316  1.3241  1.7523
18221SOL    HW272274  13.805   0.180   9.176 -0.0678  0.7759 -0.4791
18222SOL     OW72275  11.288  12.764  11.302 -0.5127 -0.0340 -0.3451
18222SOL    HW172276  11.350  12.752  11.374  0.1870 -0.6385 -1.0357
18222SOL    HW272277  11.342  12.792  11.228 -1.3471  1.5623 -0.3977
18223SOL     OW72278   1.659   8.252   5.712 -0.0013 -0.2158 -0.3647
18223SOL    HW172279   1.590   8.193   5.740  1.6136 -1.0098  2.4333
18223SOL    HW272280   1.736   8.196   5.702  0.6113  0.8382 -1.8921
18224SOL     OW72281   1.353  11.605   7.906  0.6036 -0.0942  0.0714
18224SOL    HW172282   1.328  11.535   7.966  0.2384  1.1193  1.4003
18224SOL    HW272283   1.273  11.622   7.855  0.4721 -0.1483  0.2592
18225SOL     OW72284   8.524   4.641   4.638  0.4877 -0.2513 -0.0678
18225SOL    HW172285   8.452   4.594   4.680  0.5184 -0.9318 -0.7448
18225SOL    HW272286   8.599   4.582   4.646  0.5101 -0.3638 -0.9960
18226SOL     OW72287   8.259   4.329   4.420  0.3337  0.5305  0.2670
18226SOL    HW172288   8.178   4.282   4.439  0.7899  0.2005  1.4562
18226SOL    HW272289   8.233   4.395   4.355 -0.7044 -0.1055  0.0077
18227SOL     OW72290   0.840   7.368  12.998  0.1383 -0.2495  0.1792
18227SOL    HW172291   0.793   7.335  13.074  1.1471 -1.7635  0.1966
18227SOL    HW272292   0.848   7.462  13.014  0.5102 -0.5564  2.0658
18228SOL     OW72293   0.755   7.298   5.308  0.4004  0.4106  0.2165
18228SOL    HW172294   0.692   7.321   5.240  1.9630  1.6385 -0.8898
18228SOL    HW272295   0.831   7.353   5.290  2.1776 -1.6496  0.8906
18229SOL     OW72296   8.571   9.448   0.634 -0.3874 -0.2785  0.0443
18229SOL    HW172297   8.646   9.435   0.576 -0.2054  1.8774 -0.3020
18229SOL    HW272298   8.503   9.391   0.598  0.3735 -0.5470 -1.0199
18230SOL     OW72299   5.671   9.275  12.532  0.0017 -0.1689 -0.1110
18230SOL    HW172300   5.618   9.354  12.537 -0.9349 -0.6475 -1.8329
18230SOL    HW272301   5.761   9.307  12.531 -0.3204  0.7973  0.4926
18231SOL     OW72302  12.532   4.824  11.791 -0.2307 -0.2898 -0.0511
18231SOL    HW172303  12.585   4.768  11.735 -1.5444  0.5879 -2.2881
18231SOL    HW272304  12.595   4.876  11.840  0.9637 -1.2802 -0.4823
18232SOL     OW72305   0.704  11.651   4.857 -0.3477  0.5118  0.2882
18232SOL    HW172306   0.652  11.724   4.823 -1.0682 -0.0402  0.1653
18232SOL    HW272307   0.697  11.659   4.952 -1.4603 -0.0916  0.2761
18233SOL     OW72308   0.936   9.104   3.462 -0.2523  0.5216  0.2031
18233SOL    HW172309   0.972   9.173   3.516 -0.1820  0.9406 -0.3681
18233SOL    HW272310   0.910   9.148   3.381  0.4618 -0.2252 -0.4542
18234SOL     OW72311  11.758   7.472  12.504 -0.3181 -0.0444 -0.0832
18234SOL    HW172312  11.828   7.530  12.532 -1.0981  0.3203  1.2061
18234SOL    HW272313  11.765   7.396  12.562 -0.1658 -0.6148 -0.8360
18235SOL     OW72314   0.969  10.797   7.447 -0.2756  0.2965  0.3932
18235SOL    HW172315   0.983  10.751   7.364  0.8328  0.8478  0.2527
18235SOL    HW272316   0.961  10.728   7.513  0.0873 -0.1132  0.0082
18236SOL     OW72317   1.702  10.483  13.202  0.4267 -0.0839  0.3213
18236SOL    HW172318   1.792  10.463  13.227  0.4793 -2.1106 -1.2350
18236SOL    HW272319   1.658  10.398  13.197 -1.4793  0.8200  0.6116
18237SOL     OW72320   6.943   7.509   4.148 -0.3135  0.4303 -0.0692
18237SOL    HW172321   6.858   7.473   4.121  0.6776 -1.8681 -0.3324
18237SOL    HW272322   6.976   7.552   4.069 -0.6272  0.1286 -0.3700
18238SOL     OW72323   7.618   2.410   2.607 -0.7036  0.0143  0.4953
18238SOL    HW172324   7.583   2.327   2.574  0.9516 -0.3844 -0.3987
18238SOL    HW272325   7.690   2.385   2.664 -0.2428  0.8143  0.2952
18239SOL     OW72326   2.501   0.874   3.664  0.4888  0.1944  0.0127
18239SOL    HW172327   2.426   0.824   3.633  0.0368  0.9120 -0.0702
18239SOL    HW272328   2.491   0.960   3.623 -0.0090  1.1157  1.9392
18240SOL     OW72329   4.049   1.559   1.710  0.3597 -0.0203 -0.7420
18240SOL    HW172330   4.034   1.531   1.620  1.1382  1.2960 -1.2989
18240SOL    HW272331   4.121   1.504   1.740  2.3233  1.6709 -2.0480
18241SOL     OW72332   8.825  12.921   8.108 -0.5788 -0.1983 -0.3548
18241SOL    HW172333   8.742  12.921   8.059  0.0282 -0.6511 -1.4021
18241SOL    HW272334   8.876  12.992   8.068  0.6236 -1.7185 -1.6355
18242SOL     OW72335   3.652  13.988   9.643 -0.2692  0.5935 -0.6156
18242SOL    HW172336   3.698  14.012   9.724 -0.0467 -0.4890 -0.4079
18242SOL    HW272337   3.696  14.038   9.574  1.7148 -0.9365 -0.5249
18243SOL     OW72338  11.334  13.557   4.197  0.0516  0.1086 -0.4307
18243SOL    HW172339  11.368  13.535   4.110  0.5412 -1.4225  0.1148
18243SOL    HW272340  11.404  13.530   4.257 -0.8741 -0.2392  0.5225
18244SOL     OW72341   9.020   6.440   3.921  0.5828 -0.1281  0.4076
18244SOL    HW172342   9.028   6.486   3.837  0.8950  1.3462  1.2040
18244SOL    HW272343   9.108   6.442   3.957  0.4801 -0.8948  0.7203
18245SOL     OW72344  13.676  12.499  13.334 -0.4694 -0.1407 -0.0088
18245SOL    HW172345  13.637  12.416  13.307 -1.3993  0.3199 -0.0963
18245SOL    HW272346  13.733  12.476  13.408  0.6199 -1.1164 -1.1027
18246SOL     OW72347   7.125   9.711  11.284  0.0122  0.4457 -0.1813
18246SOL    HW172348   7.103   9.802  11.265  1.4801  0.5811 -1.4075
18246SOL    HW272349   7.220   9.710  11.292  0.0385 -1.0226 -0.3507
18247SOL     OW72350   6.463   3.138  13.294  0.3340  0.3414  0.4302
18247SOL    HW172351   6.466   3.122  13.388  0.9329  2.5962  0.8435
18247SOL    HW272352   6.552   3.163  13.271  0.6011 -1.7948 -1.1011
18248SOL     OW72353  10.387   4.884  12.871  0.2115  0.5762  0.6991
18248SOL    HW172354  10.332   4.951  12.830  0.1828  0.5225  0.6504
18248SOL    HW272355  10.325   4.826  12.915 -0.0626 -1.3551 -1.9994
18249SOL     OW72356   1.033   6.940  11.653 -0.2504 -0.0462  0.2562
18249SOL    HW172357   0.973   6.975  11.719 -0.0598 -1.5709  1.2839
18249SOL    HW272358   0.983   6.871  11.609  0.3083 -0.4752  0.2707
18250SOL     OW72359  13.029   8.911  12.900  0.0998  0.1274  0.0169
18250SOL    HW172360  12.955   8.916  12.840  0.8879 -1.2137 -1.1168
18250SOL    HW272361  13.028   8.821  12.932  1.5450 -0.0816 -0.4489
18251SOL     OW72362   5.842   2.642   1.384  0.2052 -0.1136  0.1271
18251SOL    HW172363   5.847   2.719   1.442 -1.3989  0.6230 -0.6315
18251SOL    HW272364   5.876   2.570   1.437 -0.4301  0.6819  1.7083
18252SOL     OW72365   2.452  12.135  13.467 -0.1395  0.1410 -0.1123
18252SOL    HW172366   2.539  12.150  13.504 -0.1462  1.0793 -0.4507
18252SOL    HW272367   2.392  12.178  13.529 -0.2808  0.2782 -0.3394
18253SOL     OW72368  13.461   5.079  10.248 -0.3128  0.2766 -0.3632
18253SOL    HW172369  13.493   4.990  10.233  2.8660  0.9611  1.3536
18253SOL    HW272370  13.480   5.126  10.167 -0.2588 -0.1938 -0.6220
18254SOL     OW72371   6.975   8.604  10.255 -0.1100 -0.5567 -0.1826
18254SOL    HW172372   6.951   8.681  10.306 -0.8225  0.4105 -1.8932
18254SOL    HW272373   7.045   8.562  10.306 -0.1262  0.8760  1.0821
18255SOL     OW72374   1.595   3.480  11.962  0.0198 -0.3039 -0.5340
18255SOL    HW172375   1.674   3.527  11.989 -0.8386  1.0338 -0.2530
18255SOL    HW272376   1.606   3.392  11.998  1.1932 -0.0208 -0.1613
18256SOL     OW72377   4.736   1.056   3.058 -0.2109 -0.0961 -0.0818
18256SOL    HW172378   4.641   1.065   3.047 -0.2197 -0.7662 -0.6011
18256SOL    HW272379   4.768   1.029   2.972  0.3515 -0.6471  0.2872
18257SOL     OW72380   9.255  13.104   9.022  0.0486 -0.3828 -0.0108
18257SOL    HW172381   9.220  13.070   8.939  1.6477  0.9934 -1.2956
18257SOL    HW272382   9.349  13.088   9.017  0.1347 -0.6258  1.7511
18258SOL     OW72383   0.668  11.020   3.958  0.6577 -0.3283  0.1935
18258SOL    HW172384   0.628  11.055   4.038 -1.0342  1.0243 -1.1563
18258SOL    HW272385   0.624  11.067   3.887  1.6646 -1.9251 -1.5750
18259SOL     OW72386   1.243  11.615   9.670 -0.2662 -0.4444 -0.0895
18259SOL    HW172387   1.336  11.597   9.685  1.2954  4.7491 -1.5537
18259SOL    HW272388   1.212  11.651   9.754 -0.7205 -1.2837  0.1104
18260SOL     OW72389  13.072   7.917   4.648  0.2311 -0.2535  0.2783
18260SOL    HW172390  13.032   7.860   4.582 -1.1880  3.0032 -1.9665
18260SOL    HW272391  13.002   7.932   4.712 -0.6516  1.5429 -1.0073
18261SOL     OW72392   5.090   1.231   5.915 -0.0765  0.3787 -0.2759
18261SOL    HW172393   5.147   1.195   5.847  0.4629 -0.0711  0.3960
18261SOL    HW272394   5.097   1.326   5.904  2.0613  0.3990  0.7548
18262SOL     OW72395   3.312   2.817   9.440 -0.1601 -0.0936 -0.2367
18262SOL    HW172396   3.327   2.822   9.345  0.2337 -4.1835 -0.5722
18262SOL    HW272397   3.220   2.789   9.447  0.3148 -1.6196  0.3986
18263SOL     OW72398  12.418  13.230   9.662 -0.5720  0.5094 -0.3565
18263SOL    HW172399  12.470  13.150   9.651 -0.6347  0.5892 -1.3572
18263SOL    HW272400  12.367  13.236   9.581 -1.5808  0.8437  0.2875
18264SOL     OW72401   2.839  11.237   3.674 -0.6611  0.5536  0.1797
18264SOL    HW172402   2.828  11.300   3.602  3.2979  1.6628  0.2802
18264SOL    HW272403   2.883  11.287   3.743 -0.6424 -1.4831  1.7494
18265SOL     OW72404   0.341  10.211  13.275 -0.1600 -0.4070 -0.1507
18265SOL    HW172405   0.366  10.159  13.200 -0.2931  0.6162 -0.9274
18265SOL    HW272406   0.408  10.280  13.280 -0.0641 -0.5468  0.7636
18266SOL     OW72407   4.439  13.291   8.884  0.0285 -0.6536  0.6694
18266SOL    HW172408   4.362  13.293   8.827 -0.2206 -2.4893  0.8815
18266SOL    HW272409   4.450  13.199   8.907  2.3732 -0.4749  0.5539
18267SOL     OW72410   6.619   1.099  13.895  0.6482  0.0030  0.2979
18267SOL    HW172411   6.532   1.101  13.856  0.3181  0.3176  1.0336
18267SOL    HW272412   6.658   1.183  13.872  1.2610 -0.6285 -1.1112
18268SOL     OW72413  11.897   9.084   4.520  0.3459 -0.1120 -0.1605
18268SOL    HW172414  11.991   9.074   4.539  0.0636  0.4012  1.7037
18268SOL    HW272415  11.875   9.171   4.553 -1.6814 -1.8436  3.7674
18269SOL     OW72416   3.460   9.472   8.785  0.5827  0.1383 -0.1096
18269SOL    HW172417   3.516   9.410   8.738 -0.4731 -0.9078 -0.0228
18269SOL    HW272418   3.376   9.466   8.740 -0.3156 -0.5149  1.5816
18270SOL     OW72419  10.123  13.663   8.805 -1.2940  0.3122 -0.2488
18270SOL    HW172420  10.065  13.594   8.836  0.2618 -0.0111  2.1731
18270SOL    HW272421  10.135  13.721   8.880  0.7721  0.8733 -0.9338
18271SOL     OW72422   7.876   7.172   1.905 -0.1564  0.9882 -0.1809
18271SOL    HW172423   7.850   7.096   1.957 -0.3667  0.6214 -0.8045
18271SOL    HW272424   7.814   7.173   1.832  0.6726  0.9821 -0.8943
18272SOL     OW72425   9.294   5.801  10.214  0.1406 -0.0252 -0.0376
18272SOL    HW172426   9.220   5.787  10.274 -0.5511 -0.0462 -0.8853
18272SOL    HW272427   9.345   5.720  10.220  0.6050  0.3206  1.2102
18273SOL     OW72428   6.226   3.444  11.014  0.0911 -0.2613  0.1880
18273SOL    HW172429   6.318   3.417  11.007 -0.0832 -0.6344 -0.8757
18273SOL    HW272430   6.230   3.535  11.042  0.8566  0.2555 -1.4520
18274SOL     OW72431   0.722   2.834   2.143  0.0946 -0.3564 -0.2600
18274SOL    HW172432   0.816   2.851   2.137 -0.1920  1.1546 -0.9991
18274SOL    HW272433   0.709   2.798   2.231  1.3482 -0.5723 -0.1451
18275SOL     OW72434   7.068  12.002   7.213 -0.3507  0.0071  0.0176
18275SOL    HW172435   7.156  11.965   7.212 -1.0648 -1.7824 -0.3845
18275SOL    HW272436   7.041  12.003   7.122  0.8608  4.9219 -0.5839
18276SOL     OW72437  10.652   7.389  14.074 -0.6005 -0.0617 -0.0438
18276SOL    HW172438  10.671   7.454  14.141 -0.2632  0.2147 -0.4052
18276SOL    HW272439  10.693   7.309  14.105 -0.4351  0.0693  0.0751
18277SOL     OW72440   0.092   1.176  10.237 -0.1174 -0.2639  0.1106
18277SOL    HW172441   0.081   1.209  10.326 -0.4560 -0.0935  0.0060
18277SOL    HW272442   0.106   1.255  10.184  0.3713 -0.3846  0.0555
18278SOL     OW72443  10.842   5.665   2.174 -0.1228  0.2645  0.3013
18278SOL    HW172444  10.763   5.716   2.190  0.1511  0.2786  1.8054
18278SOL    HW272445  10.894   5.677   2.253  1.3053  0.0952 -0.5775
18279SOL     OW72446   7.199  12.998   9.641 -0.1105  0.4593  0.2042
18279SOL    HW172447   7.140  12.924   9.659 -1.0007  0.6940 -1.4828
18279SOL    HW272448   7.151  13.074   9.672  0.2580  0.4514  0.7972
18280SOL     OW72449   8.283  10.714   3.113 -0.1818 -0.0747 -0.6170
18280SOL    HW172450   8.230  10.738   3.189  0.1982 -0.8418 -0.0903
18280SOL    HW272451   8.250  10.769   3.042 -3.7123 -2.4326 -1.0919
18281SOL     OW72452  13.710   9.979   7.832  0.6781  0.5416 -0.7381
18281SOL    HW172453  13.636  10.040   7.836  1.0025  0.9175 -0.4442
18281SOL    HW272454  13.776  10.023   7.780  1.6411  1.2608  1.0175
18282SOL     OW72455  12.928   2.100   7.738 -0.1931 -0.5177 -0.1410
18282SOL    HW172456  12.912   2.179   7.788 -1.2571  0.1721 -1.4880
18282SOL    HW272457  12.871   2.108   7.662  0.2425 -2.2245 -0.6983
18283SOL     OW72458   7.288  11.711  11.745  0.1997 -0.2829  0.4303
18283SOL    HW172459   7.215  11.671  11.698  1.0856 -0.7434 -0.5977
18283SOL    HW272460   7.361  11.711  11.682  0.8741  0.8831  1.1560
18284SOL     OW72461   3.240   6.148  10.400 -0.0961 -0.0152 -0.2445
18284SOL    HW172462   3.221   6.139  10.307  0.5562  1.2589 -0.5257
18284SOL    HW272463   3.336   6.145  10.406  0.0367  2.6201  0.0109
18285SOL     OW72464   6.261   8.814   1.182 -0.0528 -0.3030 -0.4625
18285SOL    HW172465   6.262   8.721   1.160 -0.3980 -0.5257  0.4129
18285SOL    HW272466   6.349   8.831   1.216  0.2462 -0.1289 -1.2975
18286SOL     OW72467   8.069  13.284  12.028 -0.3790  0.0632  0.9345
18286SOL    HW172468   8.088  13.278  12.122 -0.2068 -0.7451  0.8554
18286SOL    HW272469   7.995  13.225  12.014  0.0328 -0.3602  0.4570
18287SOL     OW72470   5.991   6.854   2.245  0.3568 -0.4888  0.1222
18287SOL    HW172471   5.957   6.766   2.232 -0.1713 -0.4273  0.9920
18287SOL    HW272472   5.913   6.909   2.256  0.6923 -0.0138  0.1799
18288SOL     OW72473   9.439   7.768   0.998  0.2243  0.4484  0.1262
18288SOL    HW172474   9.359   7.740   0.953 -0.1685  0.2407  0.9290
18288SOL    HW272475   9.483   7.825   0.936 -0.2934  0.1536 -0.5267
18289SOL     OW72476   6.165  12.701  13.288 -0.3331  0.2524  0.1477
18289SOL    HW172477   6.096  12.764  13.267  1.3310  2.2254  0.2050
18289SOL    HW272478   6.237  12.724  13.228  1.0662 -0.2201  1.5712
18290SOL     OW72479   8.590   1.925   8.724 -0.0470 -0.5528  0.0258
18290SOL    HW172480   8.585   2.014   8.688 -1.4098 -0.6414 -0.0828
18290SOL    HW272481   8.517   1.879   8.682  0.8004 -1.8070 -0.1178
18291SOL     OW72482   8.839   9.676   1.885 -0.4524 -0.7299 -0.8757
18291SOL    HW172483   8.910   9.612   1.882  0.4076  0.0548  0.9697
18291SOL    HW272484   8.860   9.737   1.813  1.1104 -0.1932 -0.0206
18292SOL     OW72485  13.895  13.796   6.868  0.0448  0.2859 -0.4374
18292SOL    HW172486  13.974  13.826   6.912  0.6751  0.4588 -1.6459
18292SOL    HW272487  13.926  13.731   6.805 -0.3895  2.1949 -2.7662
18293SOL     OW72488  13.161   9.620   8.189 -0.0650  0.4296  0.1071
18293SOL    HW172489  13.100   9.690   8.163  1.9947  2.2662 -0.0654
18293SOL    HW272490  13.245   9.664   8.202  1.2252 -1.9567  0.5527
18294SOL     OW72491   9.212   3.625   4.269 -0.6753 -0.1903  0.1221
18294SOL    HW172492   9.275   3.553   4.272 -0.7653 -0.2446  1.4607
18294SOL    HW272493   9.195   3.646   4.361 -0.8812  1.3509 -0.2380
18295SOL     OW72494   6.038  10.175   1.605 -0.1755  0.0683  0.0824
18295SOL    HW172495   6.054  10.268   1.621  0.2977  0.4483 -2.2072
18295SOL    HW272496   5.991  10.172   1.521  1.3586 -1.8000 -0.8029
18296SOL     OW72497   6.574   0.236  13.191  0.2484  0.1393  0.4151
18296SOL    HW172498   6.506   0.292  13.154 -0.8111 -1.4225 -0.1249
18296SOL    HW272499   6.529   0.181  13.255  1.3488  0.2293  1.3105
18297SOL     OW72500  12.180  11.048  10.403  0.8599  0.0123 -0.2132
18297SOL    HW172501  12.142  10.964  10.380 -1.3198  1.1890 -1.2929
18297SOL    HW272502  12.110  11.094  10.450  2.7179  0.4841  2.3028
18298SOL     OW72503  13.771   9.358   0.733  0.1061  0.1861  0.3240
18298SOL    HW172504  13.728   9.309   0.803  0.9495  1.3013  1.6653
18298SOL    HW272505  13.809   9.291   0.677 -0.0984 -0.7148  1.2397
18299SOL     OW72506   0.579   2.868  11.865  0.3565  0.0258 -0.5928
18299SOL    HW172507   0.486   2.859  11.841  0.2404  1.0057 -0.5728
18299SOL    HW272508   0.604   2.782  11.897 -0.9959  0.1505  0.9314
18300SOL     OW72509   3.995  10.526   8.926 -0.0156  0.2758  0.8791
18300SOL    HW172510   3.911  10.480   8.925 -0.2227  0.5761 -1.8326
18300SOL    HW272511   3.977  10.607   8.975 -0.9862 -0.2051  1.3370
18301SOL     OW72512   9.655   8.855   3.184  0.0013 -0.0193  0.1053
18301SOL    HW172513   9.601   8.920   3.229  2.4082  2.6830 -0.6060
18301SOL    HW272514   9.592   8.798   3.141 -2.3439  2.6919 -0.3889
18302SOL     OW72515   1.591  10.337   2.437 -0.3303  0.3575 -0.6526
18302SOL    HW172516   1.514  10.285   2.416 -0.0198 -0.8145  0.8785
18302SOL    HW272517   1.655  10.273   2.468 -0.5043  1.6930  2.9842
18303SOL     OW72518   7.696   0.729  12.836  0.1516 -0.7568 -0.2324
18303SOL    HW172519   7.629   0.761  12.897 -0.3602 -2.4925  0.1897
18303SOL    HW272520   7.764   0.796  12.837 -1.5230  1.0474 -0.6227
18304SOL     OW72521   7.045   7.811   8.702  0.5474  0.0177  0.1454
18304SOL    HW172522   7.088   7.813   8.617  1.6853  0.0431  0.6906
18304SOL    HW272523   6.952   7.817   8.683  0.7606 -0.3780 -1.1104
18305SOL     OW72524   2.267   4.842  12.159  0.3208 -0.2816  0.5621
18305SOL    HW172525   2.202   4.912  12.150  0.4964 -0.3938 -3.0212
18305SOL    HW272526   2.320   4.868  12.234 -0.6794  2.5475  0.4131
18306SOL     OW72527   4.569   0.953   7.889 -0.3707 -0.2064  0.6526
18306SOL    HW172528   4.495   0.991   7.843  0.5773  0.6522 -0.2188
18306SOL    HW272529   4.556   0.859   7.882 -0.6299 -0.0926 -0.7825
18307SOL     OW72530   2.788   7.991  13.246 -0.1470  0.1172  0.0167
18307SOL    HW172531   2.792   7.978  13.341  1.9617 -0.3093 -0.0768
18307SOL    HW272532   2.813   8.082  13.233  2.4913 -0.5392 -0.2005
18308SOL     OW72533   3.998   2.165   9.784  0.1991 -0.4109  0.1921
18308SOL    HW172534   3.942   2.177   9.860  0.8411  1.4139  0.4431
18308SOL    HW272535   3.979   2.240   9.728  2.1181  0.1205  0.1557
18309SOL     OW72536   1.711   3.133   4.090  0.2422  0.4809 -0.2727
18309SOL    HW172537   1.721   3.110   4.182  1.2670 -0.3169 -0.5686
18309SOL    HW272538   1.798   3.120   4.052 -0.0944  1.0842 -1.2961
18310SOL     OW72539   7.357   5.621   2.068 -0.2492 -0.4987 -0.4350
18310SOL    HW172540   7.389   5.710   2.082 -1.4845 -0.3059  1.6542
18310SOL    HW272541   7.293   5.629   1.997  1.0562 -0.1282 -1.6178
18311SOL     OW72542   6.039  12.439  10.431  0.2173  0.2609  0.2072
18311SOL    HW172543   6.076  12.377  10.494 -0.3308  0.0966  0.3758
18311SOL    HW272544   6.097  12.433  10.355  0.7915  0.3384  0.6278
18312SOL     OW72545   3.408   6.071  10.865  0.1785 -0.3168 -0.1625
18312SOL    HW172546   3.391   5.994  10.811  0.0127  0.4243 -1.2197
18312SOL    HW272547   3.381   6.046  10.953 -0.6459 -1.1872 -0.6420
18313SOL     OW72548  11.179   9.887   2.773 -0.2610 -0.3179 -0.3353
18313SOL    HW172549  11.219   9.801   2.770  1.1314  0.3251 -1.7356
18313SOL    HW272550  11.252   9.947   2.791 -0.7830  0.7664 -1.6247
18314SOL     OW72551   2.411  10.637  13.014  0.2976 -0.0028 -0.5838
18314SOL    HW172552   2.491  10.675  12.977 -0.3877 -0.0189 -2.1250
18314SOL    HW272553   2.343  10.702  12.997  0.0641  0.2978  1.2812
18315SOL     OW72554   3.878   2.147  13.687  0.5287  0.8263 -0.4613
18315SOL    HW172555   3.857   2.072  13.631 -0.1445  1.4455 -1.0585
18315SOL    HW272556   3.908   2.215  13.626 -0.8673  1.7464 -0.1819
18316SOL     OW72557   0.740   0.906   1.021  0.4553 -0.3334  0.1019
18316SOL    HW172558   0.697   0.832   1.063  0.9567 -0.5765  0.2002
18316SOL    HW272559   0.801   0.866   0.959  0.0178  0.0132 -0.5677
18317SOL     OW72560   5.740   0.681  11.641 -0.5090  0.1565  0.1178
18317SOL    HW172561   5.765   0.769  11.615  0.0557 -0.1845 -0.5088
18317SOL    HW272562   5.666   0.659  11.584 -0.0457 -0.1275 -0.3848
18318SOL     OW72563  10.236  10.329   9.258 -0.3585  0.3681 -0.1846
18318SOL    HW172564  10.182  10.330   9.179 -1.3411 -0.7148  0.4522
18318SOL    HW272565  10.317  10.285   9.232  0.7828  2.9397 -1.4330
18319SOL     OW72566   1.135  11.679   2.540  0.2103 -0.5547  0.7372
18319SOL    HW172567   1.055  11.646   2.499  0.0429  1.4971 -0.7812
18319SOL    HW272568   1.114  11.770   2.563  1.7850 -0.2831  1.2398
18320SOL     OW72569   6.509  10.758   1.500 -0.3103 -0.0062  0.0480
18320SOL    HW172570   6.490  10.738   1.408 -0.4804  1.6189 -0.3095
18320SOL    HW272571   6.426  10.790   1.535 -0.5616 -1.7550  1.1383
18321SOL     OW72572  11.754   1.024   1.450  0.4231 -0.2872  0.0440
18321SOL    HW172573  11.720   0.963   1.385  3.0318 -1.1638 -0.6104
18321SOL    HW272574  11.709   1.107   1.431 -1.3930 -1.3582 -0.5948
18322SOL     OW72575   1.157  12.521   8.903 -0.4574 -0.4297 -0.2577
18322SOL    HW172576   1.132  12.560   8.819  1.7985 -1.3618 -1.4529
18322SOL    HW272577   1.155  12.427   8.887  0.5588 -0.6075  0.5240
18323SOL     OW72578   7.549   8.422   4.564 -0.0434 -0.1182 -0.3055
18323SOL    HW172579   7.478   8.421   4.628  1.0977  0.3172  1.0093
18323SOL    HW272580   7.601   8.499   4.587  0.0739  0.4195 -2.1572
18324SOL     OW72581   6.390   7.762   3.118 -0.1185 -0.4535  0.0546
18324SOL    HW172582   6.480   7.750   3.089 -0.2895  0.1559 -0.7697
18324SOL    HW272583   6.396   7.766   3.214  0.4131 -2.8016  0.1739
18325SOL     OW72584  12.241   1.121   0.694  0.0258  0.2239 -0.1629
18325SOL    HW172585  12.243   1.120   0.598 -1.1342  0.3678 -0.2097
18325SOL    HW272586  12.333   1.125   0.720  0.3635  0.0688 -1.2660
18326SOL     OW72587  10.958  12.188  11.114 -0.5031 -0.3657 -0.0259
18326SOL    HW172588  11.037  12.234  11.142 -0.2805 -1.0383  0.4731
18326SOL    HW272589  10.891  12.213  11.178 -1.0310  1.1337 -1.1099
18327SOL     OW72590  10.058  10.208   7.601  0.5743  0.3946  0.3409
18327SOL    HW172591   9.996  10.251   7.542 -1.7389 -0.2661  2.0952
18327SOL    HW272592  10.128  10.272   7.613  0.4280  1.0681 -1.9872
18328SOL     OW72593   0.677   2.645   1.457  0.3556  0.1673  0.7985
18328SOL    HW172594   0.729   2.656   1.378 -0.0975  1.2700  0.6308
18328SOL    HW272595   0.687   2.727   1.505 -1.2260  0.4253  0.7454
18329SOL     OW72596   6.938   0.512   1.231 -0.4848  0.3764  0.8022
18329SOL    HW172597   6.972   0.552   1.151  1.6762  1.0118  1.9612
18329SOL    HW272598   6.858   0.467   1.203  0.7687 -0.3740 -1.9428
18330SOL     OW72599   0.909   2.429   3.896  0.5201 -0.3252 -0.4387
18330SOL    HW172600   0.940   2.510   3.855 -1.3318  0.4217 -0.4298
18330SOL    HW272601   0.989   2.386   3.926  1.6493  0.8486 -1.6127
18331SOL     OW72602   0.982   1.268   8.785 -0.2443 -0.2287 -0.1375
18331SOL    HW172603   1.026   1.354   8.780 -0.0068 -0.3538 -0.2106
18331SOL    HW272604   1.053   1.207   8.804 -0.5441 -0.2845  0.8886
18332SOL     OW72605  10.158   3.068   1.669 -0.1133 -0.0956 -0.2394
18332SOL    HW172606  10.238   3.121   1.672 -0.4034  0.5600 -2.4851
18332SOL    HW272607  10.182   2.987   1.713  0.8724  1.1891  1.7441
18333SOL     OW72608  12.867   4.369   0.522 -0.1285 -0.1432  0.4413
18333SOL    HW172609  12.787   4.410   0.557  0.4041 -0.9655  2.7745
18333SOL    HW272610  12.896   4.430   0.454 -2.0154  0.8394  0.4260
18334SOL     OW72611  12.764   5.193   7.528  0.4436 -0.1935 -0.0209
18334SOL    HW172612  12.782   5.282   7.498  1.0202 -0.2829  0.0473
18334SOL    HW272613  12.712   5.153   7.458  0.7038  0.0014 -0.3253
18335SOL     OW72614  11.367   0.913   0.358 -0.3773 -0.1102  0.6706
18335SOL    HW172615  11.427   0.845   0.326 -0.5721 -0.6058  1.3375
18335SOL    HW272616  11.314   0.936   0.281  0.6469  0.3242  0.0809
18336SOL     OW72617  13.038  10.711  13.148 -0.3081  0.5188 -0.1528
18336SOL    HW172618  13.041  10.622  13.113  1.0330  0.5366 -0.1164
18336SOL    HW272619  12.954  10.745  13.119 -0.1965 -0.2499 -1.4378
18337SOL     OW72620   6.571  12.774   7.861 -0.1084  0.3406  0.0529
18337SOL    HW172621   6.623  12.797   7.784 -0.0072  2.6285  0.7123
18337SOL    HW272622   6.520  12.854   7.880 -0.7822 -0.4549  1.8315
18338SOL     OW72623   2.234   7.837   2.621  0.3379  0.3008  0.3331
18338SOL    HW172624   2.141   7.853   2.604  0.3335 -0.0788 -0.0164
18338SOL    HW272625   2.279   7.893   2.557  0.3391  0.0596  0.1191
18339SOL     OW72626   1.619  12.151   4.257  0.2036  0.6006  0.4668
18339SOL    HW172627   1.585  12.221   4.313 -0.0907  0.1036  0.9111
18339SOL    HW272628   1.653  12.086   4.318 -0.9720 -0.3847  0.0932
18340SOL     OW72629   4.985  13.188   4.960  0.3109  0.0366 -0.1643
18340SOL    HW172630   4.891  13.172   4.964  0.3022 -0.3343 -1.3979
18340SOL    HW272631   4.993  13.283   4.965 -0.2509  0.1828 -1.5285
18341SOL     OW72632   6.585  10.725   6.193  0.0665  0.2100  0.2153
18341SOL    HW172633   6.646  10.798   6.187 -1.0749  1.0650 -2.7175
18341SOL    HW272634   6.503  10.764   6.225 -0.8046  0.4953 -2.1906
18342SOL     OW72635  10.893  12.706  10.916  0.3047  0.2067  0.0477
18342SOL    HW172636  10.922  12.703  10.825 -0.4522  1.3403 -0.2630
18342SOL    HW272637  10.805  12.744  10.912  0.6279  1.1891  1.3103
18343SOL     OW72638  10.359   1.885  13.314  0.1562 -0.2507  0.4526
18343SOL    HW172639  10.399   1.922  13.393 -0.5464 -0.8510  1.1066
18343SOL    HW272640  10.399   1.799  13.305 -0.6983 -0.7030  0.8969
18344SOL     OW72641   5.301   4.684   7.924 -0.6415 -0.1264  0.2352
18344SOL    HW172642   5.206   4.681   7.914 -0.5351 -1.3930 -0.7654
18344SOL    HW272643   5.329   4.754   7.865 -0.8399 -0.8885 -0.7897
18345SOL     OW72644   3.472   0.672  12.559  0.1085  0.1165 -0.0567
18345SOL    HW172645   3.540   0.613  12.527  1.1795  0.7640  0.9346
18345SOL    HW272646   3.488   0.679  12.653 -0.5285  1.3075 -0.0132
18346SOL     OW72647  10.291   9.460   8.220  0.2515 -0.1714  0.2939
18346SOL    HW172648  10.201   9.489   8.204  0.5148 -0.4684 -2.1506
18346SOL    HW272649  10.293   9.440   8.314 -2.0643  0.3644  0.5337
18347SOL     OW72650   0.078   2.549   9.090  0.0154  0.7271  0.4900
18347SOL    HW172651   0.093   2.583   9.001 -0.7758  1.8691  0.7743
18347SOL    HW272652  -0.013   2.573   9.109 -0.3076 -0.8463  1.0421
18348SOL     OW72653  13.131   2.444   9.941  0.0478  0.9264 -0.3955
18348SOL    HW172654  13.214   2.426   9.897  0.5315 -1.1846  1.2660
18348SOL    HW272655  13.065   2.407   9.882  0.6506 -1.4305  0.3210
18349SOL     OW72656  11.154   6.226   4.687  0.3421 -0.9476  0.4102
18349SOL    HW172657  11.233   6.182   4.719  0.5648  0.4443  1.9289
18349SOL    HW272658  11.143   6.301   4.746 -0.8482  0.1773 -1.1461
18350SOL     OW72659  11.493  10.805   9.449  0.5188  0.1981 -0.0292
18350SOL    HW172660  11.467  10.850   9.529 -0.3923  1.3565 -0.9565
18350SOL    HW272661  11.574  10.848   9.422  1.6787 -1.1970  1.0424
18351SOL     OW72662  12.449  13.729   1.949  0.0841  0.5621  0.3836
18351SOL    HW172663  12.536  13.760   1.924  0.6267 -0.8038  0.4457
18351SOL    HW272664  12.399  13.808   1.968  1.1837  1.3908 -0.0747
18352SOL     OW72665   3.540   9.196  11.637  0.3882  0.8354 -0.3658
18352SOL    HW172666   3.465   9.179  11.694  1.1268 -3.1932 -0.3547
18352SOL    HW272667   3.611   9.220  11.697  1.0285 -2.8797  0.5942
18353SOL     OW72668  10.481  12.972   7.801 -0.6174  0.1890 -0.7805
18353SOL    HW172669  10.456  12.891   7.756 -1.3159 -0.1968  0.2473
18353SOL    HW272670  10.405  13.030   7.791 -1.0145 -0.1093  0.3395
18354SOL     OW72671   5.011   9.087  11.930 -0.3089  0.0419 -0.0963
18354SOL    HW172672   4.947   9.150  11.963 -0.2810  1.0806 -1.8660
18354SOL    HW272673   4.970   9.002  11.944 -1.1349  0.5563  0.7415
18355SOL     OW72674   7.766   9.082   1.822  0.3897  0.4651 -0.3945
18355SOL    HW172675   7.688   9.028   1.808  1.4861 -0.8848 -1.7320
18355SOL    HW272676   7.764   9.104   1.915 -1.8918  1.0131 -0.5249
18356SOL     OW72677   9.625   7.968   8.572 -0.0288  0.4988  0.3800
18356SOL    HW172678   9.669   8.043   8.531 -0.2536  0.5078  0.1483
18356SOL    HW272679   9.560   8.008   8.630 -1.1523  0.5091 -0.8183
18357SOL     OW72680   2.851   8.388   6.672  0.4263  0.2132 -0.7755
18357SOL    HW172681   2.762   8.414   6.647  0.6761  0.5157 -1.3721
18357SOL    HW272682   2.902   8.398   6.591  1.2115  0.9688 -0.1942
18358SOL     OW72683   5.126  11.841  11.646  0.0427 -0.9577 -0.0749
18358SOL    HW172684   5.216  11.810  11.653 -0.1270 -1.3799  0.4076
18358SOL    HW272685   5.114  11.896  11.724  0.2081 -0.0240 -0.7041
18359SOL     OW72686  10.965   1.006  10.293  0.4564  0.7252  0.0073
18359SOL    HW172687  10.981   0.918  10.259 -0.5047  0.6525 -0.2857
18359SOL    HW272688  10.871   1.018  10.285  0.1473  0.6795  2.7297
18360SOL     OW72689   8.925  13.922   1.532  0.3259  0.1971  0.1695
18360SOL    HW172690   8.905  13.894   1.621 -1.1102 -0.9826 -0.4874
18360SOL    HW272691   8.851  13.977   1.506  1.4705  1.8265  0.2118
18361SOL     OW72692  10.311  12.831   8.553 -0.2396  0.2299  0.0169
18361SOL    HW172693  10.400  12.808   8.527 -0.3031  1.5538 -1.5197
18361SOL    HW272694  10.258  12.757   8.524  0.3135 -0.4325  0.6771
18362SOL     OW72695   6.262   1.907   1.517 -0.0730  0.4217  0.0093
18362SOL    HW172696   6.233   1.817   1.532  2.0254 -0.4122 -0.6852
18362SOL    HW272697   6.228   1.929   1.430 -0.4566  0.2614  0.1158
18363SOL     OW72698   2.030  12.057  13.659 -0.0247 -0.5672  0.0575
18363SOL    HW172699   2.052  11.972  13.696 -0.9878 -0.0426  1.9432
18363SOL    HW272700   1.940  12.048  13.628  0.2378 -0.5211 -0.7657
18364SOL     OW72701   3.945   8.499   6.959  0.1536  0.6364  0.0608
18364SOL    HW172702   3.865   8.448   6.946  0.7119 -0.0267 -0.9134
18364SOL    HW272703   3.915   8.582   6.997 -0.9991  0.4220 -0.3445
18365SOL     OW72704   3.052  13.932   6.951 -0.0413  0.7676 -0.7218
18365SOL    HW172705   3.116  13.879   6.902 -0.5123 -0.2119 -0.3131
18365SOL    HW272706   3.102  14.006   6.984  0.9379 -0.0637 -0.2694
18366SOL     OW72707   7.709   6.663   3.621  0.1377 -0.1247  0.2957
18366SOL    HW172708   7.660   6.657   3.703  0.1257 -0.6656  0.2530
18366SOL    HW272709   7.790   6.707   3.644 -1.1774  2.6818  0.0082
18367SOL     OW72710  13.831   0.396   3.999 -0.3214 -0.3705 -0.1457
18367SOL    HW172711  13.770   0.346   4.053  0.7255 -1.3369  0.1988
18367SOL    HW272712  13.908   0.407   4.055 -0.3720  1.2899 -0.3724
18368SOL     OW72713   9.530  10.419   2.365  0.0115 -0.4342  0.9305
18368SOL    HW172714   9.550  10.512   2.369  1.1521 -0.5772 -0.5778
18368SOL    HW272715   9.457  10.407   2.426 -1.7425  1.8205 -0.5961
18369SOL     OW72716   2.013   5.893   7.361  0.3746 -0.3528  0.7072
18369SOL    HW172717   1.926   5.932   7.376 -0.6245 -1.9985 -0.4380
18369SOL    HW272718   2.073   5.950   7.408 -1.0949  1.9668 -0.0652
18370SOL     OW72719   0.656   4.578   2.187 -0.6251  0.0196  0.0919
18370SOL    HW172720   0.665   4.485   2.167  1.3958  0.1845  0.0434
18370SOL    HW272721   0.741   4.616   2.163 -1.4960  1.9302 -0.1529
18371SOL     OW72722   5.125   1.958   8.941 -0.1067  0.3464 -0.3489
18371SOL    HW172723   5.096   2.022   8.876 -0.8731  0.4969  0.1242
18371SOL    HW272724   5.171   2.009   9.007 -1.4874  0.5565  0.4810
18372SOL     OW72725   2.252  12.565   9.286 -0.2082 -0.0812  0.2530
18372SOL    HW172726   2.243  12.560   9.190 -0.8628 -0.2129  0.3114
18372SOL    HW272727   2.309  12.641   9.301 -0.3186  0.1048 -0.2359
18373SOL     OW72728   2.099  11.912   1.747  0.3767 -0.6908 -0.0025
18373SOL    HW172729   2.115  11.819   1.736 -0.1040 -0.6946 -0.7289
18373SOL    HW272730   2.010  11.926   1.714  0.8596  0.2112 -1.0266
18374SOL     OW72731   4.035  13.097   3.192 -0.6477  0.4838  0.1068
18374SOL    HW172732   4.080  13.171   3.150  1.9943 -1.8947 -1.6223
18374SOL    HW272733   4.084  13.082   3.273  0.3700 -0.7024 -0.6782
18375SOL     OW72734  12.161  13.697   6.152 -0.3178 -0.1690 -0.1943
18375SOL    HW172735  12.102  13.625   6.175 -0.9751 -0.0956 -1.5494
18375SOL    HW272736  12.128  13.729   6.068  0.8339  0.7851 -0.3092
18376SOL     OW72737   0.116  10.499  11.505 -0.4551 -0.7792 -0.3818
18376SOL    HW172738   0.134  10.576  11.451 -1.1133  0.5318  1.1816
18376SOL    HW272739   0.183  10.502  11.574 -0.2596 -1.8339 -0.5056
18377SOL     OW72740   3.746   8.846  12.547 -0.0243  0.0131  0.7086
18377SOL    HW172741   3.673   8.882  12.496 -1.7359 -1.1699  2.1905
18377SOL    HW272742   3.716   8.852  12.638  0.8810 -2.2770  1.2202
18378SOL     OW72743  13.134   5.630   2.434  0.3699 -0.2082 -0.0065
18378SOL    HW172744  13.215   5.624   2.485  1.1191  1.9222 -0.8404
18378SOL    HW272745  13.068   5.588   2.489  2.0333 -2.2500  0.6012
18379SOL     OW72746  12.032   5.151   4.009  0.1986  0.1440 -0.3675
18379SOL    HW172747  12.007   5.188   3.924 -0.1765 -0.2072 -0.4143
18379SOL    HW272748  12.003   5.217   4.072 -2.7272 -1.0559 -0.2640
18380SOL     OW72749   0.909  10.214   6.233 -0.1912 -0.0120  0.3426
18380SOL    HW172750   1.000  10.209   6.261  0.3727  1.6245 -1.0002
18380SOL    HW272751   0.862  10.247   6.310  0.6861  0.9295  0.4936
18381SOL     OW72752   3.846   8.490  10.506 -0.5105  0.2817 -0.2816
18381SOL    HW172753   3.868   8.583  10.492 -1.7010  0.7687  0.9071
18381SOL    HW272754   3.880   8.470  10.592 -3.3145  0.6825  1.0400
18382SOL     OW72755   2.972  13.281   4.417  0.0751  0.3261  0.3658
18382SOL    HW172756   3.027  13.358   4.431  1.6724 -0.7819  0.4333
18382SOL    HW272757   2.912  13.280   4.492  1.2827  0.4995  1.3722
18383SOL     OW72758   2.998  13.989  10.791 -0.2311  0.2915  0.1327
18383SOL    HW172759   2.912  14.028  10.804 -0.5024  0.4045 -1.7740
18383SOL    HW272760   3.058  14.064  10.788 -0.1466  0.2559  0.7877
18384SOL     OW72761  10.082   7.292   4.885  0.0859  0.5626  0.0917
18384SOL    HW172762  10.146   7.361   4.901  0.6791  0.1748 -0.5632
18384SOL    HW272763  10.118   7.215   4.929  0.2725  0.2416 -0.6134
18385SOL     OW72764   1.814   2.822   6.174 -0.1146 -0.7087 -0.0665
18385SOL    HW172765   1.730   2.868   6.167  0.9440  1.2693 -0.5584
18385SOL    HW272766   1.798   2.736   6.135 -1.4251  0.3453 -2.0330
18386SOL     OW72767  10.740  13.650   6.335 -0.3919 -0.9865 -1.0800
18386SOL    HW172768  10.721  13.723   6.395 -0.1418 -2.4649  0.9030
18386SOL    HW272769  10.684  13.667   6.259 -1.4863  0.4650 -0.0226
18387SOL     OW72770  12.681   9.745   4.932 -0.1096  0.1735 -0.0278
18387SOL    HW172771  12.604   9.794   4.962 -0.0072  1.3468 -1.5271
18387SOL    HW272772  12.754   9.805   4.945  0.3357 -0.3760  0.0281
18388SOL     OW72773  13.629   1.415   9.320 -0.1899  0.4020 -0.4647
18388SOL    HW172774  13.719   1.384   9.318  0.0016  0.8239  0.6288
18388SOL    HW272775  13.577   1.336   9.337  0.0608  0.2877 -0.2223
18389SOL     OW72776   9.984  12.395  10.054 -0.0091 -0.3672  0.5198
18389SOL    HW172777   9.969  12.448   9.975 -0.2089 -0.3098  0.5935
18389SOL    HW272778   9.904  12.343  10.063 -0.2977  0.1480  1.0824
18390SOL     OW72779   1.060   7.556   2.352  0.6795  0.1838  0.2639
18390SOL    HW172780   1.030   7.556   2.443  0.2496 -1.6625  0.1577
18390SOL    HW272781   1.065   7.649   2.329  0.1664  0.6757  1.9579
18391SOL     OW72782   3.077   5.581   9.235  0.3485  0.7860  0.2875
18391SOL    HW172783   3.009   5.552   9.175  2.2313 -1.6436 -0.8669
18391SOL    HW272784   3.096   5.671   9.208 -0.8602  0.7362 -0.8275
18392SOL     OW72785  10.750   4.305   4.000  0.7353 -0.3751  0.2727
18392SOL    HW172786  10.842   4.279   3.995  1.3635  0.8243  3.4087
18392SOL    HW272787  10.751   4.389   4.046 -1.8065  0.9458 -1.8103
18393SOL     OW72788   8.610   8.766  11.380 -0.4569  0.9514 -0.4243
18393SOL    HW172789   8.702   8.749  11.362 -0.2942  1.0871  0.2458
18393SOL    HW272790   8.564   8.736  11.302  0.0331 -0.4200 -0.2105
18394SOL     OW72791   2.214   7.662   5.065  0.1898 -0.0334  0.5803
18394SOL    HW172792   2.191   7.725   4.997 -0.0924 -0.1983  0.5212
18394SOL    HW272793   2.293   7.698   5.106  1.1916 -0.6461 -0.7639
18395SOL     OW72794   2.201   6.948   0.808  0.3744  0.5221 -0.2987
18395SOL    HW172795   2.120   6.997   0.822  0.9021  1.3248 -0.0074
18395SOL    HW272796   2.172   6.859   0.788 -0.5258  0.4465  1.2580
18396SOL     OW72797   8.670   2.448   8.839 -0.0286  0.0725  0.0139
18396SOL    HW172798   8.733   2.518   8.823 -0.6345  1.0340  1.5458
18396SOL    HW272799   8.633   2.428   8.753  1.6544  0.1482 -0.7631
18397SOL     OW72800   4.457   8.588   1.857  0.0236 -0.1751 -0.1992
18397SOL    HW172801   4.480   8.625   1.771 -1.1520  0.3592 -0.3022
18397SOL    HW272802   4.452   8.494   1.843 -1.7545  0.0230 -1.1347
18398SOL     OW72803   4.588   0.452  11.596 -0.0136  0.0924 -0.2718
18398SOL    HW172804   4.665   0.397  11.608  1.3280  2.2069  1.6661
18398SOL    HW272805   4.515   0.390  11.588  1.5712 -1.9438  0.2375
18399SOL     OW72806  10.028  11.780   9.045 -0.1058  0.3652  0.1673
18399SOL    HW172807   9.939  11.748   9.036  0.7009 -1.8389 -0.5327
18399SOL    HW272808  10.018  11.869   9.080 -2.4927 -0.4021  1.6468
18400SOL     OW72809  10.450   4.299  11.771  0.1971 -1.0926  0.0872
18400SOL    HW172810  10.450   4.338  11.858 -1.8531 -0.1882 -0.2522
18400SOL    HW272811  10.541   4.302  11.743  0.3952  2.3559  0.6136
18401SOL     OW72812   6.723  12.935   0.653 -0.2717 -0.5214 -0.3335
18401SOL    HW172813   6.751  12.970   0.737  0.6586 -2.3524  0.1658
18401SOL    HW272814   6.706  13.012   0.599  1.4657  0.6754  0.7533
18402SOL     OW72815   4.763  13.939   2.467 -0.3703 -0.1045 -0.0647
18402SOL    HW172816   4.813  13.868   2.508  0.6545  1.5160  1.6547
18402SOL    HW272817   4.823  14.014   2.468 -1.1935  0.6697 -2.3968
18403SOL     OW72818   5.434  10.780   1.229 -0.0962 -0.1052 -0.1078
18403SOL    HW172819   5.433  10.860   1.176 -0.6015 -0.0274  0.0163
18403SOL    HW272820   5.380  10.719   1.180 -0.9065  0.0977  0.5200
18404SOL     OW72821  12.687   8.244   6.606  0.3788  0.5195  0.1606
18404SOL    HW172822  12.691   8.246   6.701 -1.1493 -0.4776  0.2796
18404SOL    HW272823  12.621   8.178   6.586  1.8986 -0.5407 -1.6324
18405SOL     OW72824   1.098   0.890   9.924 -0.8013 -0.3778 -0.6093
18405SOL    HW172825   1.171   0.946   9.949  0.8178 -1.9337 -1.6163
18405SOL    HW272826   1.072   0.922   9.837 -0.2942 -0.7921 -0.9145
18406SOL     OW72827   4.850   4.939   2.703  0.5724  0.5081  0.1441
18406SOL    HW172828   4.900   4.894   2.771  0.8255  1.0663  0.3311
18406SOL    HW272829   4.818   4.868   2.647 -0.7240 -0.0699  1.5407
18407SOL     OW72830   8.656  11.001   6.149  0.0306 -0.8275 -0.5504
18407SOL    HW172831   8.737  10.996   6.099  0.5845  0.9011  0.0926
18407SOL    HW272832   8.684  11.025   6.238 -1.2327  3.1991 -1.0114
18408SOL     OW72833  11.691   4.707   0.166  0.2405  0.2204  0.1083
18408SOL    HW172834  11.601   4.717   0.136 -0.4958 -0.6308  1.8527
18408SOL    HW272835  11.710   4.614   0.152 -0.0059 -0.1207  1.8209
18409SOL     OW72836  10.004   5.308  11.314  0.3915 -0.5034  0.3326
18409SOL    HW172837  10.037   5.264  11.392  1.4672  0.5021  0.4726
18409SOL    HW272838  10.028   5.250  11.241 -0.9313 -1.6208  0.7364
18410SOL     OW72839   9.491   4.966   4.170  0.4096  0.2729  0.0995
18410SOL    HW172840   9.534   4.923   4.097  0.6119  0.2107  0.2550
18410SOL    HW272841   9.524   5.056   4.168  0.6103  0.2033  0.2683
18411SOL     OW72842  11.155   4.231   6.601 -0.3083 -0.3251  0.5475
18411SOL    HW172843  11.189   4.239   6.691 -0.6887 -0.7480  0.7319
18411SOL    HW272844  11.182   4.143   6.574 -0.2434 -0.2177  0.2622
18412SOL     OW72845   4.288   9.544   3.340 -0.8192  0.1808  0.1629
18412SOL    HW172846   4.223   9.604   3.302 -1.1497  0.0614  0.5369
18412SOL    HW272847   4.293   9.570   3.432  0.8803  1.2911 -0.1907
18413SOL     OW72848  10.287  14.085  13.253  0.7608  0.4619  0.3106
18413SOL    HW172849  10.266  14.136  13.332  0.9221  0.2297  0.5062
18413SOL    HW272850  10.252  14.137  13.181 -2.3757 -0.8380  0.7233
18414SOL     OW72851  11.008   9.303   0.964 -0.2517  0.6658  0.2214
18414SOL    HW172852  10.939   9.361   0.932 -2.2453 -0.5614  1.9980
18414SOL    HW272853  11.056   9.356   1.027 -0.5855  1.0712  0.1369
18415SOL     OW72854   9.325  11.105   5.187 -0.5537 -0.2980 -0.0878
18415SOL    HW172855   9.274  11.030   5.158 -1.1190  0.5376 -1.3454
18415SOL    HW272856   9.273  11.145   5.257 -1.0813 -0.1116 -0.5793
18416SOL     OW72857  13.883  10.994  10.314 -0.1896 -0.5081 -0.0796
18416SOL    HW172858  13.848  10.963  10.231  1.0044  0.9468 -1.1866
18416SOL    HW272859  13.864  11.088  10.314 -0.7161 -0.5832  1.5964
18417SOL     OW72860   7.099  12.672   0.392  0.5771  0.4980 -0.4354
18417SOL    HW172861   7.180  12.694   0.346  0.6644  0.5986 -0.2356
18417SOL    HW272862   7.096  12.733   0.466  0.7101 -0.0059 -0.0071
18418SOL     OW72863   5.338   3.905   3.382  0.0009  0.2596  0.0600
18418SOL    HW172864   5.431   3.929   3.376  0.1485 -0.2544  0.2177
18418SOL    HW272865   5.292   3.977   3.340  0.4529  0.6772  0.2704
18419SOL     OW72866  12.156   6.378   9.124  0.4108  0.3526  0.0988
18419SOL    HW172867  12.184   6.321   9.196  0.2346  0.5574  0.3338
18419SOL    HW272868  12.086   6.329   9.081  1.0889 -0.1445 -0.4679
18420SOL     OW72869  10.919   3.172   2.220  0.5923 -0.0946 -0.0456
18420SOL    HW172870  10.858   3.100   2.203 -0.9365  1.2357 -0.3311
18420SOL    HW272871  10.928   3.216   2.136 -1.0308  1.9500  0.7777
18421SOL     OW72872   1.626  11.093   7.273 -0.1321 -0.0876  0.0333
18421SOL    HW172873   1.596  11.182   7.293  0.6130  0.3017 -0.5018
18421SOL    HW272874   1.620  11.046   7.356  0.5354  0.7817  0.5964
18422SOL     OW72875   7.374   3.414   1.653  0.6525 -0.0602 -0.0228
18422SOL    HW172876   7.374   3.331   1.701  1.5900  0.0016  0.0981
18422SOL    HW272877   7.402   3.390   1.564  0.9931  0.1263  0.0307
18423SOL     OW72878   1.286   3.177   7.819  0.4046 -0.6254  0.7407
18423SOL    HW172879   1.238   3.124   7.882 -0.6985  0.6352  0.9996
18423SOL    HW272880   1.298   3.119   7.743 -2.4364 -0.7311  0.2503
18424SOL     OW72881   3.839  12.449  10.699  0.8076  0.6944  0.4635
18424SOL    HW172882   3.893  12.371  10.689 -0.5011 -0.2540  0.6261
18424SOL    HW272883   3.776  12.444  10.627  0.7041  1.6013  0.4805
18425SOL     OW72884   0.817   9.669  13.371  0.3284  0.2955 -0.1631
18425SOL    HW172885   0.767   9.668  13.289  0.8200  1.4772 -0.5045
18425SOL    HW272886   0.752   9.652  13.439 -0.1663 -0.2508 -0.7595
18426SOL     OW72887  11.749   2.629   3.555 -0.5316  0.1676 -0.2556
18426SOL    HW172888  11.706   2.650   3.637 -1.8861  0.0995 -0.9241
18426SOL    HW272889  11.826   2.686   3.553 -0.8384  0.6384  0.7457
18427SOL     OW72890   6.686   8.445   5.554  0.0165  0.0957 -0.3524
18427SOL    HW172891   6.695   8.406   5.467 -1.0197 -0.6037 -0.1704
18427SOL    HW272892   6.623   8.516   5.542  2.6124  2.4883 -0.8836
18428SOL     OW72893  13.044   8.072   2.692  0.2346 -0.2125  0.3881
18428SOL    HW172894  12.955   8.054   2.722  0.0632  0.5794  0.3854
18428SOL    HW272895  13.033   8.134   2.619  0.8335  1.0043  1.2841
18429SOL     OW72896  10.174   0.515   1.310 -0.1713  0.8717  0.4737
18429SOL    HW172897  10.158   0.421   1.321  0.3596  0.9433  2.1077
18429SOL    HW272898  10.255   0.532   1.358 -0.4135  2.2242  0.4462
18430SOL     OW72899  10.060   8.123   4.960 -0.1949  0.1890  0.5087
18430SOL    HW172900  10.076   8.051   4.900  1.4524 -0.6465  1.8714
18430SOL    HW272901  10.055   8.200   4.904 -0.3510 -0.7562 -0.8304
18431SOL     OW72902   3.207   0.235   9.439 -0.2269  0.2866  0.2532
18431SOL    HW172903   3.121   0.277   9.445 -0.4097 -0.0203 -0.0964
18431SOL    HW272904   3.213   0.207   9.347  0.2795  0.3727  0.2556
18432SOL     OW72905  10.462   3.774  10.725 -0.6333 -0.7209  0.1000
18432SOL    HW172906  10.502   3.688  10.740 -1.1714 -0.8268  1.0098
18432SOL    HW272907  10.533   3.827  10.688  0.2875 -0.9866  1.4221
18433SOL     OW72908   4.674   3.472   9.983  0.4374  0.4070  0.5896
18433SOL    HW172909   4.638   3.557   9.959 -1.6412 -0.4798  0.3609
18433SOL    HW272910   4.718   3.441   9.904  1.2045  1.2402  0.6749
18434SOL     OW72911   1.969   5.954   8.031  0.0992 -0.3251 -0.0231
18434SOL    HW172912   1.899   5.997   8.081  0.3927  0.8767 -0.5964
18434SOL    HW272913   1.924   5.913   7.957 -0.1198 -0.5029  0.2059
18435SOL     OW72914  11.728   6.075  11.958 -0.0959 -0.0859 -0.3722
18435SOL    HW172915  11.680   6.122  11.890  1.5900 -0.9044 -2.2210
18435SOL    HW272916  11.734   6.138  12.030 -0.4286  1.4742 -1.6343
18436SOL     OW72917   7.807  11.306   6.307  0.0607  0.1908 -0.0399
18436SOL    HW172918   7.865  11.349   6.245 -0.4638  1.7279  0.4668
18436SOL    HW272919   7.854  11.228   6.335  0.1404 -0.7842 -2.6413
18437SOL     OW72920  12.131   6.083   6.172 -0.3668  0.0488 -0.1004
18437SOL    HW172921  12.191   6.157   6.164 -1.3230  0.6952 -1.6618
18437SOL    HW272922  12.166   6.032   6.245  0.7180  1.6575  0.5640
18438SOL     OW72923   3.430  11.078   2.057 -0.3527 -0.1326 -0.1345
18438SOL    HW172924   3.366  11.026   2.105 -1.5712  1.2362 -0.2121
18438SOL    HW272925   3.398  11.168   2.063  0.9821  0.4512 -1.1088
18439SOL     OW72926   0.237   9.585   8.389  0.4396  0.0718 -0.2206
18439SOL    HW172927   0.280   9.500   8.382  0.4058  0.0777 -0.5471
18439SOL    HW272928   0.159   9.569   8.442  2.2054  0.5898  2.7268
18440SOL     OW72929   4.978  12.886   6.673  0.1488  0.9497 -0.1316
18440SOL    HW172930   4.905  12.924   6.723  0.8903  2.4550 -0.1302
18440SOL    HW272931   4.936  12.848   6.596 -0.5892  2.8058 -0.7098
18441SOL     OW72932   7.964  11.077  10.011 -0.0724 -0.2879 -0.2006
18441SOL    HW172933   7.879  11.032  10.010  0.0093 -0.4307 -1.5595
18441SOL    HW272934   7.942  11.168   9.991  0.0072 -0.1582  0.2990
18442SOL     OW72935  13.555   5.944   5.073 -0.3472 -0.2766  0.6781
18442SOL    HW172936  13.526   5.919   5.161 -1.4584 -1.5597 -0.0128
18442SOL    HW272937  13.648   5.925   5.072  0.0751  1.4461  2.1238
18443SOL     OW72938   2.799  13.555   0.845  0.2633  0.2387 -0.0402
18443SOL    HW172939   2.765  13.641   0.821  2.3655  1.5253  1.3759
18443SOL    HW272940   2.807  13.557   0.940  0.4601 -1.5186  0.0251
18444SOL     OW72941   4.704  13.770   0.061  0.9538  0.3286  0.3265
18444SOL    HW172942   4.713  13.747   0.153  0.5253  2.8235  1.0621
18444SOL    HW272943   4.794  13.779   0.029  1.1447  1.6225  1.1509
18445SOL     OW72944   4.890   7.953   2.922 -0.2893  0.1210 -0.1893
18445SOL    HW172945   4.878   8.047   2.934 -0.6497 -0.0142  0.6030
18445SOL    HW272946   4.953   7.928   2.990  1.9654  0.2264 -2.1339
18446SOL     OW72947   8.696  14.026  11.698 -0.4953 -0.3674 -0.7210
18446SOL    HW172948   8.676  13.957  11.761 -0.3715 -0.0343 -0.3106
18446SOL    HW272949   8.679  13.987  11.613 -1.6114 -0.5212 -0.4400
18447SOL     OW72950   8.896  10.742  11.215  0.4810 -0.4218 -0.2167
18447SOL    HW172951   8.814  10.787  11.235  1.6162  1.6233  0.0910
18447SOL    HW272952   8.946  10.805  11.164  1.1326 -2.3499 -2.1133
18448SOL     OW72953  11.934   8.050   1.605  0.0813 -0.0986 -0.2060
18448SOL    HW172954  11.892   8.133   1.629  0.0010 -0.1470 -0.1755
18448SOL    HW272955  11.907   7.989   1.674 -0.6173 -0.3875 -0.7244
18449SOL     OW72956   2.250   6.354   1.990 -0.0679  0.0234 -0.3244
18449SOL    HW172957   2.286   6.427   2.042 -1.0256 -1.1188  2.0861
18449SOL    HW272958   2.308   6.280   2.009  0.2459 -0.1637 -1.8781
18450SOL     OW72959   9.679   1.921   7.005  0.1042 -0.1606  0.7550
18450SOL    HW172960   9.602   1.864   7.007  0.2979 -0.4081  1.3405
18450SOL    HW272961   9.715   1.915   7.093  1.0571 -0.4084  0.3617
18451SOL     OW72962   5.947  12.832  13.546 -0.1708 -0.3974 -0.1819
18451SOL    HW172963   5.975  12.869  13.630 -1.7206  2.0815 -0.6268
18451SOL    HW272964   5.910  12.747  13.568 -2.5885  1.0821  2.1094
18452SOL     OW72965   3.334   7.107  12.175  0.3903  0.1583 -0.1993
18452SOL    HW172966   3.385   7.027  12.189  0.5112 -0.0675 -1.7718
18452SOL    HW272967   3.357   7.164  12.249  1.5927 -0.6103  0.0370
18453SOL     OW72968   2.088   8.706   9.385 -0.5314  0.3726  0.3374
18453SOL    HW172969   2.034   8.664   9.452 -0.3877 -0.7664 -0.2420
18453SOL    HW272970   2.166   8.652   9.380 -0.3767  0.6637 -0.4991
18454SOL     OW72971   8.414   1.759   7.801  0.4122  0.1136  0.0140
18454SOL    HW172972   8.507   1.777   7.788  0.9399  1.0798  3.9080
18454SOL    HW272973   8.410   1.666   7.822  0.9935  0.5492  2.3862
18455SOL     OW72974   5.208   1.629  11.902  0.4935 -0.4878 -0.3954
18455SOL    HW172975   5.268   1.576  11.954  1.1412  0.8192  0.2331
18455SOL    HW272976   5.252   1.713  11.891 -0.8608  0.2360 -0.6366
18456SOL     OW72977   4.989   7.876   2.705  0.0325 -0.0624  0.0880
18456SOL    HW172978   4.946   7.909   2.784 -0.8492 -0.0491 -0.3753
18456SOL    HW272979   4.991   7.951   2.646  2.7473  0.5883  0.8574
18457SOL     OW72980   5.194   0.729   9.931  0.3319 -0.1026  0.0218
18457SOL    HW172981   5.199   0.666  10.002 -0.9718 -0.5391 -0.2459
18457SOL    HW272982   5.183   0.814   9.974  1.3991 -0.1307  0.3656
18458SOL     OW72983  13.368   0.972   3.830  0.4593  0.3561  0.4546
18458SOL    HW172984  13.324   1.044   3.875  0.1213  1.7085 -1.8679
18458SOL    HW272985  13.343   0.894   3.879 -2.8215  1.3011  0.5104
18459SOL     OW72986   1.301  10.135   7.530 -0.1352 -0.2146  0.0833
18459SOL    HW172987   1.268  10.187   7.603  0.1306  1.1072 -0.6921
18459SOL    HW272988   1.320  10.049   7.567  0.9390  0.7062  1.7863
18460SOL     OW72989  12.451   7.597  10.718 -0.6995 -0.3333  0.0240
18460SOL    HW172990  12.525   7.639  10.673 -1.0649 -1.1991 -1.4763
18460SOL    HW272991  12.394   7.669  10.743  0.2769  0.2901  0.5006
18461SOL     OW72992  10.236   6.435   3.906  0.0280  0.9491 -0.7052
18461SOL    HW172993  10.182   6.362   3.935 -2.5366  2.6075 -0.9533
18461SOL    HW272994  10.294   6.398   3.840  1.5964 -1.6086  1.9147
18462SOL     OW72995   3.995   6.850   3.130 -0.5720  0.1045  0.2036
18462SOL    HW172996   4.057   6.837   3.058 -0.8253  0.1528 -0.0240
18462SOL    HW272997   3.992   6.945   3.142 -1.5641  0.1892 -0.6348
18463SOL     OW72998   7.184   1.887  12.577  0.3315 -0.1952 -0.7599
18463SOL    HW172999   7.262   1.940  12.560 -0.0737  0.5442 -0.3545
18463SOL    HW273000   7.113   1.934  12.534  0.1546 -1.0571 -1.4459
18464SOL     OW73001   7.215  13.570  13.625 -0.0739  0.4542  0.1849
18464SOL    HW173002   7.181  13.481  13.625  1.8328 -0.3505 -1.6336
18464SOL    HW273003   7.137  13.625  13.614 -1.0691 -1.1614 -1.3567
18465SOL     OW73004   4.289   6.544  11.129 -0.7342 -0.3094  0.4980
18465SOL    HW173005   4.203   6.586  11.125 -0.1259  0.9160 -1.8402
18465SOL    HW273006   4.352   6.616  11.125  0.4047 -1.2497  0.6803
18466SOL     OW73007  12.066   3.565   6.809  0.5654 -0.2091  0.9778
18466SOL    HW173008  11.998   3.556   6.742  0.9750  1.5168  0.2652
18466SOL    HW273009  12.020   3.552   6.891 -0.5721  0.4850  0.4821
18467SOL     OW73010   9.768  11.864   0.248  0.1785  0.6374  0.6373
18467SOL    HW173011   9.696  11.927   0.246 -0.2960  0.1761 -2.9534
18467SOL    HW273012   9.731  11.787   0.290 -1.5934  0.3338 -1.3340
18468SOL     OW73013   6.533  13.461   0.078 -0.4087 -0.3637 -0.6088
18468SOL    HW173014   6.454  13.487   0.126  0.1061  1.0249 -0.4515
18468SOL    HW273015   6.502  13.444  -0.011 -1.0586 -0.9731 -0.2782
18469SOL     OW73016  13.466   9.504   5.412 -0.1814  0.0398  0.3292
18469SOL    HW173017  13.532   9.572   5.429  1.4876 -1.0097 -1.6463
18469SOL    HW273018  13.510   9.422   5.432 -2.3152 -0.5900  3.1330
18470SOL     OW73019   7.302   0.374   8.455 -0.1155  0.6021 -0.3910
18470SOL    HW173020   7.257   0.337   8.379 -0.3512  0.0494  0.0088
18470SOL    HW273021   7.287   0.469   8.448 -3.3076  0.3122  0.9247
18471SOL     OW73022  10.234   5.584  11.871 -0.2507 -0.5853  0.3150
18471SOL    HW173023  10.324   5.616  11.873 -0.6652  0.5966  0.6360
18471SOL    HW273024  10.232   5.514  11.937  0.8245 -1.7636 -0.8498
18472SOL     OW73025  12.768   9.515   5.775 -0.1357 -0.2790 -0.2310
18472SOL    HW173026  12.698   9.459   5.807 -1.0050 -0.8678 -2.8489
18472SOL    HW273027  12.727   9.602   5.769 -0.6871 -0.5964 -1.6341
18473SOL     OW73028   5.578   4.353   9.436  0.4653  0.1882 -0.0122
18473SOL    HW173029   5.601   4.319   9.522  0.0160  0.7987  0.3582
18473SOL    HW273030   5.660   4.392   9.403  0.5574  0.2367  0.2727
18474SOL     OW73031   7.937  12.734  13.115 -0.1598  0.1400 -0.1417
18474SOL    HW173032   7.851  12.727  13.074 -0.0561  1.5987 -0.6686
18474SOL    HW273033   7.954  12.647  13.150 -1.0905 -0.6427 -1.5437
18475SOL     OW73034   5.113   7.290  13.563 -0.1565 -0.4092  0.0208
18475SOL    HW173035   5.124   7.383  13.579  1.6764 -0.4818 -0.6167
18475SOL    HW273036   5.188   7.266  13.509 -0.3492 -2.3511  0.5513
18476SOL     OW73037  13.528   0.960  12.517  0.1643  0.1100  0.2923
18476SOL    HW173038  13.493   0.930  12.434  0.2461 -0.2640  0.3926
18476SOL    HW273039  13.621   0.934  12.515  0.8915  2.4960 -0.6695
18477SOL     OW73040   3.798   4.629   0.337  0.4042 -0.1000 -0.0017
18477SOL    HW173041   3.843   4.599   0.258 -1.4194 -1.5141 -0.5941
18477SOL    HW273042   3.811   4.559   0.400 -0.7971 -0.4923 -0.1541
18478SOL     OW73043   1.276   8.717   7.093  0.0031  0.9173  0.4129
18478SOL    HW173044   1.245   8.667   7.017  0.5476  0.0286  0.7647
18478SOL    HW273045   1.324   8.791   7.054  1.4802 -0.2820 -0.1430
18479SOL     OW73046  11.239   9.527   3.722 -0.0457  0.1208  0.4726
18479SOL    HW173047  11.219   9.471   3.646 -1.3840 -1.1395  1.6800
18479SOL    HW273048  11.334   9.520   3.732  0.0786 -0.1707 -0.7281
18480SOL     OW73049  12.165   1.102  12.050 -0.1016  0.0960 -0.6517
18480SOL    HW173050  12.164   1.056  12.134  2.4080  2.4583  0.8499
18480SOL    HW273051  12.225   1.051  11.995  0.5068  0.0429  0.0407
18481SOL     OW73052  11.034   7.050   0.357 -0.3065 -0.0115  0.7634
18481SOL    HW173053  11.074   7.062   0.271 -3.0650  3.5487 -0.2895
18481SOL    HW273054  11.049   7.133   0.402 -1.7104 -0.6026  2.4504
18482SOL     OW73055  13.477   5.903   1.370  0.2868 -0.0681  0.0449
18482SOL    HW173056  13.452   5.847   1.444  1.9495 -0.8484  0.0794
18482SOL    HW273057  13.479   5.844   1.295 -1.8219  0.8120 -0.7605
18483SOL     OW73058  12.109  10.408  12.064  0.6017 -0.1376 -0.6552
18483SOL    HW173059  12.083  10.477  12.125 -1.4474 -1.9457  0.6551
18483SOL    HW273060  12.204  10.404  12.071  0.7022  1.9204 -0.1362
18484SOL     OW73061   7.318   6.545   1.423  0.0581  0.8514 -0.8319
18484SOL    HW173062   7.264   6.623   1.433  1.3554  1.5324  1.6790
18484SOL    HW273063   7.399   6.577   1.383  1.8203  1.5316  2.9085
18485SOL     OW73064  12.815  11.805   2.173  0.0142  0.4066 -0.4317
18485SOL    HW173065  12.808  11.776   2.082  1.1414  1.2438 -0.8153
18485SOL    HW273066  12.771  11.890   2.175 -1.9980 -0.5857  0.3569
18486SOL     OW73067  13.960   2.668   1.813 -0.4612 -0.1802  0.0352
18486SOL    HW173068  13.926   2.695   1.728 -0.8249 -1.6607 -0.3158
18486SOL    HW273069  13.912   2.722   1.876 -1.2090 -0.0513 -0.6253
18487SOL     OW73070   1.547   2.564   6.976  0.1881 -0.9479 -0.3384
18487SOL    HW173071   1.546   2.471   6.999  0.1970 -0.5710  1.3206
18487SOL    HW273072   1.471   2.600   7.021 -0.1455 -0.2522 -1.4561
18488SOL     OW73073   2.059   0.684  11.677  0.1961 -0.0294  0.5380
18488SOL    HW173074   1.982   0.673  11.621  1.3365 -0.6673 -0.9914
18488SOL    HW273075   2.031   0.652  11.763 -1.1292 -0.5727 -0.0682
18489SOL     OW73076   7.600   2.788   2.817  0.2782  0.3790  0.3331
18489SOL    HW173077   7.607   2.720   2.883 -0.2394  1.5544  1.6425
18489SOL    HW273078   7.579   2.741   2.736  0.6433 -1.0627  1.0521
18490SOL     OW73079   3.042   4.281  10.760  0.6488 -0.8113  0.2762
18490SOL    HW173080   2.988   4.201  10.757  0.0377 -0.4331  0.9060
18490SOL    HW273081   3.026   4.317  10.848  0.7025  0.1495 -0.1005
18491SOL     OW73082   6.525   3.019   6.210  0.0034  0.0613 -0.2996
18491SOL    HW173083   6.539   3.104   6.168  1.1383 -0.9019 -1.9616
18491SOL    HW273084   6.560   3.030   6.299  1.9040  0.8048 -1.0951
18492SOL     OW73085   7.811   2.486   6.962  0.1181 -0.4448  0.3554
18492SOL    HW173086   7.722   2.462   6.937  1.2335 -2.8431 -1.7131
18492SOL    HW273087   7.845   2.537   6.889  0.5114  0.3438  1.0662
18493SOL     OW73088  11.969   4.523  12.089 -0.1637 -0.6314  0.3819
18493SOL    HW173089  11.968   4.428  12.084  0.0637 -0.6027 -0.2169
18493SOL    HW273090  11.886   4.550  12.050 -0.3727 -0.5920  0.8417
18494SOL     OW73091  12.106  13.848   2.284  0.2913 -0.4892  0.3508
18494SOL    HW173092  12.031  13.905   2.298  0.9284  0.7688 -1.0131
18494SOL    HW273093  12.073  13.760   2.297 -1.2696  0.0713  0.3418
18495SOL     OW73094   2.432  11.494  11.950  0.0116 -0.1476 -0.3057
18495SOL    HW173095   2.373  11.564  11.921  1.1785  0.5315 -1.1733
18495SOL    HW273096   2.517  11.538  11.957  0.0286 -0.4859  3.2954
18496SOL     OW73097   0.837   9.794   4.752  0.0348  0.2070  0.4847
18496SOL    HW173098   0.912   9.847   4.727  0.4845 -0.0044  1.3566
18496SOL    HW273099   0.871   9.705   4.758  0.1437  0.3339  2.5012
18497SOL     OW73100   7.428  13.534   5.095  0.5873 -0.0890  0.1958
18497SOL    HW173101   7.398  13.501   5.180 -1.3831  0.9586 -0.0417
18497SOL    HW273102   7.389  13.475   5.031 -0.2821  0.7537 -0.0775
18498SOL     OW73103  10.311   9.796   4.136 -0.3562  0.3170  0.4424
18498SOL    HW173104  10.260   9.727   4.093 -2.5084  1.8011  0.4626
18498SOL    HW273105  10.254   9.826   4.207  0.7031  1.8341  0.6898
18499SOL     OW73106   9.092  11.104   6.003 -0.3870  0.0989 -0.1666
18499SOL    HW173107   9.143  11.137   6.078  0.4515 -0.9372 -0.2632
18499SOL    HW273108   9.156  11.096   5.933 -0.5363 -1.7633 -0.1329
18500SOL     OW73109   8.420   0.209   0.502 -0.1648 -0.2218  0.2122
18500SOL    HW173110   8.354   0.224   0.435 -0.4942  2.7355  1.0394
18500SOL    HW273111   8.371   0.200   0.584  0.3293 -1.2787  0.4040
18501SOL     OW73112  12.630   3.078   1.000  0.4332  0.5060 -0.0201
18501SOL    HW173113  12.596   3.153   0.950 -1.7454 -0.0359  0.5440
18501SOL    HW273114  12.637   3.110   1.090  0.8749  0.4261 -0.0213
18502SOL     OW73115   1.340   8.824   0.954 -0.2571  0.1167 -0.4354
18502SOL    HW173116   1.349   8.753   0.891  1.2852  0.4966 -0.6994
18502SOL    HW273117   1.330   8.903   0.901 -0.3407  0.2801 -0.1799
18503SOL     OW73118  13.601  13.385   1.985 -0.3477  0.6168  0.2379
18503SOL    HW173119  13.672  13.405   2.045  0.7597 -2.1257 -0.0033
18503SOL    HW273120  13.548  13.320   2.032 -0.1606 -0.6398 -1.1982
18504SOL     OW73121  10.951   7.353   1.970  0.1340 -0.0917 -0.4901
18504SOL    HW173122  10.981   7.442   1.987 -2.5174  0.7728  0.1413
18504SOL    HW273123  10.909   7.358   1.884 -2.3259 -0.0075  0.6321
18505SOL     OW73124   8.154   3.023   3.667  0.5878  0.3679 -0.1777
18505SOL    HW173125   8.117   2.955   3.611  2.7198 -2.3682  1.4734
18505SOL    HW273126   8.114   3.008   3.753  1.3144  0.9851  0.2828
18506SOL     OW73127   4.113   6.207  11.902 -0.4877 -0.1434  0.4570
18506SOL    HW173128   4.191   6.222  11.850 -1.4611  3.9587 -0.2212
18506SOL    HW273129   4.145   6.196  11.991  0.9576  1.1425  0.1441
18507SOL     OW73130  10.838   6.148   3.412  0.6018  0.6992 -0.3762
18507SOL    HW173131  10.830   6.052   3.419  1.1141  0.7101  0.6287
18507SOL    HW273132  10.749   6.179   3.401  0.4077  0.1240 -0.4835
18508SOL     OW73133   0.893   1.949   4.757  0.5803  0.6396  0.2124
18508SOL    HW173134   0.815   1.897   4.776  2.1360 -1.9851 -0.0865
18508SOL    HW273135   0.902   2.008   4.831 -0.0841 -1.0659  1.7279
18509SOL     OW73136  10.293   4.147   6.080 -0.5310 -0.4475 -0.1241
18509SOL    HW173137  10.271   4.205   6.153  0.4068 -0.0906 -0.1086
18509SOL    HW273138  10.259   4.193   6.002 -0.9119 -0.4933  0.0130
18510SOL     OW73139  10.779   5.749   4.340 -0.6435  0.1002  0.1171
18510SOL    HW173140  10.690   5.723   4.315 -0.5743 -0.8469  0.8017
18510SOL    HW273141  10.835   5.680   4.306  0.1517  1.8209 -2.3515
18511SOL     OW73142   9.044  13.125  13.758 -0.1653  0.8792 -0.1053
18511SOL    HW173143   9.016  13.215  13.772  0.8422  1.1322  0.3825
18511SOL    HW273144   8.995  13.096  13.682 -0.6506  1.7722 -0.1450
18512SOL     OW73145   3.724   1.778   7.120 -0.7280  0.2416  0.2287
18512SOL    HW173146   3.666   1.759   7.193 -1.5954 -1.5118 -0.8588
18512SOL    HW273147   3.666   1.789   7.045  0.2108  0.8991 -0.4324
18513SOL     OW73148   9.786   7.550  13.299 -0.0610 -0.0001  0.9016
18513SOL    HW173149   9.701   7.514  13.324 -0.1975 -0.9955 -0.8207
18513SOL    HW273150   9.849   7.482  13.322 -0.3891 -1.9193 -3.0124
18514SOL     OW73151   4.968   2.980   1.084 -0.1460 -1.2371 -0.2925
18514SOL    HW173152   4.932   3.049   1.028 -0.3805 -0.7188  0.4726
18514SOL    HW273153   4.933   3.000   1.171  2.3713 -0.3995  0.6181
18515SOL     OW73154   0.124   3.090   0.112  0.1952  0.2543 -0.0451
18515SOL    HW173155   0.179   3.153   0.066  2.0595 -1.8643 -0.9189
18515SOL    HW273156   0.035   3.115   0.089  0.9569  1.0151 -2.4821
18516SOL     OW73157   1.724   7.929   9.105 -0.2003 -0.0974 -0.5183
18516SOL    HW173158   1.818   7.918   9.120 -0.3173 -0.6719 -0.1728
18516SOL    HW273159   1.707   7.881   9.024 -0.0131  0.8920 -1.1514
18517SOL     OW73160   4.266   2.608   4.516  0.2257 -0.1987  0.6475
18517SOL    HW173161   4.323   2.603   4.593 -0.9235 -0.0216  1.5280
18517SOL    HW273162   4.179   2.624   4.551 -0.4014 -0.5653 -0.6730
18518SOL     OW73163   4.142   4.319  12.166 -0.0763  0.3279  0.1191
18518SOL    HW173164   4.211   4.253  12.173  0.5414  1.0149  0.6911
18518SOL    HW273165   4.062   4.271  12.184  0.0509 -0.8136 -2.0798
18519SOL     OW73166   9.981   5.110   4.296  0.0563 -0.0081  0.2486
18519SOL    HW173167  10.056   5.161   4.264 -0.3572  1.5605  1.6450
18519SOL    HW273168   9.913   5.176   4.311 -0.3746 -0.9111  2.5134
18520SOL     OW73169   6.973   9.565   1.140 -0.5053 -0.1037  0.2159
18520SOL    HW173170   7.026   9.566   1.060 -1.5142  0.5377 -0.4666
18520SOL    HW273171   7.037   9.559   1.210  0.3325 -2.7293 -0.6713
18521SOL     OW73172  10.005   1.258   4.624 -0.1057  0.3230 -0.1175
18521SOL    HW173173  10.011   1.294   4.535  0.0201 -1.9846 -1.0983
18521SOL    HW273174  10.028   1.166   4.615 -1.7773 -0.3996  2.0359
18522SOL     OW73175   6.774   8.812   1.693  0.1017 -0.3494 -0.7612
18522SOL    HW173176   6.685   8.788   1.717  0.2056  0.4153  0.4584
18522SOL    HW273177   6.766   8.850   1.605 -0.7011 -0.7005 -0.8442
18523SOL     OW73178   9.369  13.505   0.009 -0.2497 -0.5713  0.0444
18523SOL    HW173179   9.318  13.493   0.089 -0.2044 -0.2018  0.1344
18523SOL    HW273180   9.303  13.521  -0.059 -0.2503  0.7025  0.3040
18524SOL     OW73181   3.648   8.263   7.651 -0.7168 -0.9648 -0.6638
18524SOL    HW173182   3.703   8.271   7.573 -1.4555  0.6144 -1.0541
18524SOL    HW273183   3.563   8.232   7.617 -1.1800  0.1668 -0.5660
18525SOL     OW73184   5.489   4.040  11.648  0.1807 -0.4800 -0.4447
18525SOL    HW173185   5.506   3.955  11.607  0.1742 -0.2039 -1.0442
18525SOL    HW273186   5.497   4.025  11.742 -1.5099 -1.5356 -0.4308
18526SOL     OW73187  11.309   8.367   6.107 -0.1883 -0.2516 -0.3059
18526SOL    HW173188  11.224   8.361   6.150 -0.4930  0.2396 -0.8216
18526SOL    HW273189  11.323   8.280   6.070 -0.8309 -0.1218 -0.8808
18527SOL     OW73190  10.971  10.828   7.030 -0.1494 -0.3738 -0.1027
18527SOL    HW173191  11.049  10.806   7.082 -0.8340 -0.2129  1.0144
18527SOL    HW273192  10.918  10.749   7.031 -1.3393  0.3923  1.6176
18528SOL     OW73193  12.971  11.470   2.474  0.5235  0.1855  0.2676
18528SOL    HW173194  12.877  11.454   2.476  0.7472 -1.4210 -0.3078
18528SOL    HW273195  12.992  11.481   2.381  1.2702 -2.2405  0.0876
18529SOL     OW73196  11.931   2.409   1.736  0.6102 -0.0555 -0.2449
18529SOL    HW173197  11.977   2.362   1.667  1.4293  0.4684 -0.0806
18529SOL    HW273198  11.984   2.395   1.814  0.3406  0.3326  0.0155
18530SOL     OW73199  12.017   2.427   5.884  0.2841 -0.2382  0.0111
18530SOL    HW173200  11.953   2.376   5.834  0.2631  1.3670 -1.6978
18530SOL    HW273201  12.008   2.394   5.974 -0.3748 -2.5550 -0.8118
18531SOL     OW73202   2.060   6.704  11.180  0.4682 -0.1709 -0.5024
18531SOL    HW173203   1.979   6.719  11.230  0.8331  1.0663 -0.2311
18531SOL    HW273204   2.043   6.746  11.095  0.5597 -0.5608 -0.7145
18532SOL     OW73205  11.607   1.689   6.317  0.2961  0.2543 -0.0885
18532SOL    HW173206  11.693   1.685   6.358 -1.4951  0.4859  4.2804
18532SOL    HW273207  11.591   1.599   6.287  1.8209  0.1077 -0.5622
18533SOL     OW73208   6.894  10.004  13.195  0.3348 -0.0645  0.1081
18533SOL    HW173209   6.808  10.045  13.187  0.4513  0.2145  0.2428
18533SOL    HW273210   6.932  10.044  13.273 -0.2141 -1.6738  1.2484
18534SOL     OW73211   4.084   6.096   4.543  0.0544  0.2734  0.0092
18534SOL    HW173212   4.091   6.149   4.463 -1.0699 -1.1206 -1.0661
18534SOL    HW273213   4.037   6.153   4.605 -1.2990  0.5201 -1.1778
18535SOL     OW73214   0.709   7.434  12.248 -0.7294 -0.1201 -0.3558
18535SOL    HW173215   0.678   7.524  12.250 -1.9189 -0.5107 -0.2091
18535SOL    HW273216   0.788   7.437  12.193 -1.3914  0.8209 -1.3018
18536SOL     OW73217   4.973   0.759   8.021 -0.3248  0.2471 -0.0211
18536SOL    HW173218   4.933   0.845   8.007  1.7000  1.6238  1.8504
18536SOL    HW273219   5.012   0.765   8.109  1.4244 -1.9392 -0.5456
18537SOL     OW73220   8.630   8.637   6.349  0.2153 -0.1186  0.0116
18537SOL    HW173221   8.539   8.612   6.366  0.2975  0.4164  1.2881
18537SOL    HW273222   8.682   8.564   6.382  0.2355 -1.0552 -1.9515
18538SOL     OW73223   6.596   3.098  10.313  0.7182 -0.2899  0.2341
18538SOL    HW173224   6.622   3.111  10.404 -2.7634 -0.0006  1.3413
18538SOL    HW273225   6.656   3.032  10.280  1.5367 -1.0856  3.0431
18539SOL     OW73226   4.907   3.231   6.377 -0.0499  0.1447 -0.3862
18539SOL    HW173227   4.871   3.181   6.450  0.7908 -0.4085 -0.3376
18539SOL    HW273228   4.837   3.291   6.352 -1.5310 -1.7965 -1.1845
18540SOL     OW73229   5.418  10.453   8.537 -0.4112  0.3734  0.2882
18540SOL    HW173230   5.327  10.429   8.519  0.3376 -0.7124 -2.6289
18540SOL    HW273231   5.469  10.382   8.498  1.7486  1.6609  0.6198
18541SOL     OW73232  10.948   1.858  10.898 -0.0388  0.5816 -0.2851
18541SOL    HW173233  10.991   1.895  10.820  1.7609 -0.6284  0.0634
18541SOL    HW273234  10.943   1.764  10.880 -1.9983  0.6045  0.0022
18542SOL     OW73235   1.246   2.253  13.482 -0.1540 -0.2456 -0.2828
18542SOL    HW173236   1.236   2.341  13.519 -2.1738 -0.4448 -0.2658
18542SOL    HW273237   1.307   2.264  13.409  0.4130  0.9721  0.3555
18543SOL     OW73238   2.310   1.322   9.126 -0.2615  0.0438  0.6010
18543SOL    HW173239   2.367   1.340   9.201 -1.4247  0.5456  1.3878
18543SOL    HW273240   2.235   1.276   9.164 -0.6719 -0.0616 -0.3287
18544SOL     OW73241   8.616   7.009   3.148  0.3214  0.0082 -0.0354
18544SOL    HW173242   8.606   7.094   3.105  0.4653 -0.3082 -0.7107
18544SOL    HW273243   8.542   7.004   3.209 -0.8616 -0.2242 -1.4284
18545SOL     OW73244   5.584   9.562  13.252  0.4722 -0.3843  0.0785
18545SOL    HW173245   5.557   9.510  13.327 -1.1480 -1.1179 -0.9622
18545SOL    HW273246   5.569   9.653  13.279 -0.9956 -0.6833  0.3295
18546SOL     OW73247   6.251  11.026  12.268 -0.0700 -0.0152 -0.1629
18546SOL    HW173248   6.261  11.112  12.309  0.9970  0.1850 -0.8092
18546SOL    HW273249   6.244  10.965  12.341  0.4759  0.4783  0.3113
18547SOL     OW73250   1.651   4.013  12.482  0.1216 -0.4554 -0.0060
18547SOL    HW173251   1.664   4.022  12.387  1.0726  2.9339  0.3218
18547SOL    HW273252   1.569   4.060  12.499  1.0774  0.9035  1.0465
18548SOL     OW73253   2.131   5.426  10.552  0.0344  0.0077 -0.1419
18548SOL    HW173254   2.109   5.384  10.635  0.3570 -1.5827 -0.8234
18548SOL    HW273255   2.053   5.415  10.497 -0.8573  2.5871  0.4471
18549SOL     OW73256   1.371   2.517   1.663  0.4778 -0.1990  0.5196
18549SOL    HW173257   1.462   2.486   1.670  0.9519  1.2840  1.4346
18549SOL    HW273258   1.327   2.480   1.740 -0.4683 -3.0777 -1.2192
18550SOL     OW73259   3.753   5.899  12.034 -1.1930  0.4658  0.9272
18550SOL    HW173260   3.726   5.909  12.126 -0.0152 -0.5765  1.4175
18550SOL    HW273261   3.807   5.820  12.033  0.9186  1.8115 -0.1564
18551SOL     OW73262  13.587   7.139  10.992 -0.0924 -0.0448 -0.2785
18551SOL    HW173263  13.655   7.130  11.059  0.6682  1.2905 -0.8234
18551SOL    HW273264  13.543   7.054  10.991  2.0913 -1.2476 -0.4635
18552SOL     OW73265  10.276   4.263   2.350  0.0298  0.4003 -0.3293
18552SOL    HW173266  10.362   4.239   2.384 -1.0777 -3.5775  0.1608
18552SOL    HW273267  10.217   4.251   2.425 -1.2668  0.9443 -1.2197
18553SOL     OW73268   2.791   9.578  12.949 -0.5879  0.0009 -0.1963
18553SOL    HW173269   2.820   9.617  13.032 -0.7087  0.2855 -0.2872
18553SOL    HW273270   2.841   9.496  12.942 -1.1700 -0.4346  0.5533
18554SOL     OW73271   4.226  12.949   3.003  0.6040  0.0158 -0.2371
18554SOL    HW173272   4.216  12.854   2.992 -1.9194  0.2796 -0.8362
18554SOL    HW273273   4.155  12.973   3.064  0.0977  1.7147 -1.4218
18555SOL     OW73274  12.465   9.908   2.472 -0.2240 -0.5627  0.1249
18555SOL    HW173275  12.546   9.898   2.522 -1.2204  0.4504  2.0583
18555SOL    HW273276  12.410   9.834   2.499 -0.8334  0.0787  0.6791
18556SOL     OW73277   7.383   3.513   1.236 -0.5026 -0.8571 -0.3937
18556SOL    HW173278   7.358   3.424   1.261 -1.2622 -0.2159  1.2844
18556SOL    HW273279   7.300   3.554   1.208 -0.5008 -0.1436  0.6054
18557SOL     OW73280   7.856   2.398   7.917 -0.3495  0.2892  0.5137
18557SOL    HW173281   7.932   2.341   7.907 -1.3234 -0.9482 -0.1465
18557SOL    HW273282   7.835   2.427   7.828 -0.1709  1.3006  0.7858
18558SOL     OW73283  13.600  10.968  10.802 -0.5219  0.0241  0.3506
18558SOL    HW173284  13.611  10.962  10.707  0.8024  0.8009  0.4376
18558SOL    HW273285  13.590  11.061  10.820 -1.7808 -0.1902  0.8971
18559SOL     OW73286   4.653  11.935   5.014  0.1730 -0.1079  0.0925
18559SOL    HW173287   4.663  12.029   5.030 -0.3388  0.1633 -1.0623
18559SOL    HW273288   4.574  11.928   4.960  0.0775 -1.2287  0.3512
18560SOL     OW73289  13.406   2.060   2.911  0.8283 -0.6804  0.4935
18560SOL    HW173290  13.333   2.107   2.951  0.0536 -1.2606 -0.1993
18560SOL    HW273291  13.383   2.054   2.819  0.0855 -3.7793  0.7695
18561SOL     OW73292  10.794  10.662   8.275 -0.0755  0.0866  0.1228
18561SOL    HW173293  10.833  10.585   8.315 -1.0941  0.1140  1.2250
18561SOL    HW273294  10.859  10.693   8.212  0.4658 -1.4909 -0.1262
18562SOL     OW73295  11.172  10.883   8.257  0.0522 -0.5021  0.3040
18562SOL    HW173296  11.199  10.802   8.300 -0.8320 -0.1698  1.5367
18562SOL    HW273297  11.089  10.862   8.215  0.1775 -0.4189  0.0080
18563SOL     OW73298   4.531   5.783   0.871  0.5946  0.9213  0.3609
18563SOL    HW173299   4.504   5.724   0.941 -2.0678  0.7356 -0.6809
18563SOL    HW273300   4.540   5.868   0.913  2.9980  0.1485  1.5956
18564SOL     OW73301  13.810   8.667  10.600  0.9009  0.3491 -0.1964
18564SOL    HW173302  13.790   8.722  10.525 -1.1180  0.3749  0.3231
18564SOL    HW273303  13.830   8.729  10.671  1.6646  0.3366 -0.3880
18565SOL     OW73304   4.349   0.867   6.995  0.3513  0.0710 -0.4610
18565SOL    HW173305   4.418   0.931   7.013 -1.2226  1.9207 -0.6620
18565SOL    HW273306   4.269   0.919   6.995 -1.4422 -2.3601  2.5415
18566SOL     OW73307   5.072  13.625  11.715  0.6648  0.6758 -0.0991
18566SOL    HW173308   5.129  13.639  11.640 -1.2273  0.4905 -1.6410
18566SOL    HW273309   5.015  13.701  11.717  2.0804  1.8347  2.6038
18567SOL     OW73310   3.427   7.573   0.106  0.4482  0.2334 -0.2761
18567SOL    HW173311   3.411   7.658   0.146  0.8818 -0.3533  1.2078
18567SOL    HW273312   3.451   7.593   0.015 -1.4794  1.5396 -0.5575
18568SOL     OW73313   7.199   0.611   0.083 -0.3953 -0.3201 -0.4401
18568SOL    HW173314   7.204   0.515   0.079 -0.1097 -0.2828 -1.1283
18568SOL    HW273315   7.151   0.629   0.164 -0.8453 -1.0551 -0.5294
18569SOL     OW73316   2.363  11.285   3.016  0.0347  0.3237  0.1494
18569SOL    HW173317   2.353  11.345   2.942 -0.8566  2.0614  1.5922
18569SOL    HW273318   2.454  11.298   3.045  1.2479 -2.2399 -2.0748
18570SOL     OW73319  10.371  12.497   8.963  0.2787 -0.2204  0.5896
18570SOL    HW173320  10.428  12.447   9.021 -1.6536 -0.3926  2.4720
18570SOL    HW273321  10.324  12.556   9.022 -1.6300 -0.2616 -0.8214
18571SOL     OW73322  11.241   4.180   7.001 -0.0472 -0.1586  0.0738
18571SOL    HW173323  11.274   4.229   6.926  2.7583 -1.7306  0.1212
18571SOL    HW273324  11.222   4.093   6.966 -1.4185 -0.1267  0.6781
18572SOL     OW73325   0.356   8.842   4.006  0.4268 -0.0900  0.1663
18572SOL    HW173326   0.372   8.917   3.948 -0.8618  1.0886  1.2529
18572SOL    HW273327   0.281   8.798   3.967 -0.0565  0.3494  0.5837
18573SOL     OW73328   8.275   1.180   2.907  0.3126  0.0378  0.1134
18573SOL    HW173329   8.320   1.122   2.968  0.3217  0.0469  0.1151
18573SOL    HW273330   8.226   1.122   2.849  1.2339 -0.0280 -0.6257
18574SOL     OW73331   5.352   7.618  10.609 -0.5284  0.1181 -0.2745
18574SOL    HW173332   5.315   7.549  10.555 -0.6566 -1.0772  1.2887
18574SOL    HW273333   5.336   7.591  10.699  2.4464  0.4348  0.4813
18575SOL     OW73334  10.760   4.901   5.450  0.3324 -0.1485  0.6612
18575SOL    HW173335  10.725   4.989   5.464 -1.0732 -0.3526 -1.1977
18575SOL    HW273336  10.755   4.859   5.535  2.5769  2.0323  2.0111
18576SOL     OW73337   7.354   6.185  13.526  0.0292  0.1979 -0.9832
18576SOL    HW173338   7.373   6.091  13.531  2.8935  0.5930 -2.2969
18576SOL    HW273339   7.338   6.211  13.616 -0.8994 -1.5565 -0.6050
18577SOL     OW73340   8.050   5.760   1.378 -0.0425  0.0893 -0.8657
18577SOL    HW173341   8.089   5.847   1.383  0.2940 -0.1072  0.1490
18577SOL    HW273342   8.102   5.707   1.439 -0.8650 -0.5743 -0.7291
18578SOL     OW73343  12.192   7.202   6.393  0.4142 -0.3937  0.4060
18578SOL    HW173344  12.243   7.184   6.314 -0.9072 -2.2641 -0.1181
18578SOL    HW273345  12.101   7.202   6.362 -0.1083 -0.9655  1.8744
18579SOL     OW73346   9.422   0.817   8.599 -0.1310  0.1192 -0.1409
18579SOL    HW173347   9.438   0.731   8.640 -0.3330  0.7784  1.3850
18579SOL    HW273348   9.468   0.812   8.515  0.1108 -1.3742  0.0450
18580SOL     OW73349  12.370   5.099   7.719 -0.2272 -0.2064  0.2182
18580SOL    HW173350  12.347   5.179   7.674  0.5115 -0.8821 -1.4320
18580SOL    HW273351  12.453   5.119   7.763  0.0164 -0.0822 -0.2884
18581SOL     OW73352   8.709   0.037  12.913  0.3852  0.2530 -0.4498
18581SOL    HW173353   8.672  -0.007  12.836 -0.2414 -0.6638  0.3609
18581SOL    HW273354   8.639   0.038  12.977  0.9283  0.9466  0.1596
18582SOL     OW73355   8.832   9.003   1.772  0.1697 -0.1023  0.2516
18582SOL    HW173356   8.819   9.090   1.733  0.7898  0.0476  0.3819
18582SOL    HW273357   8.901   8.963   1.719 -0.8965 -0.9725 -0.5411
18583SOL     OW73358   9.557   7.801   3.894 -1.0776 -0.3594 -0.2295
18583SOL    HW173359   9.602   7.757   3.821 -2.3872 -0.3348 -1.0904
18583SOL    HW273360   9.594   7.760   3.972  1.2781  0.4728 -0.8161
18584SOL     OW73361   3.935   1.549   4.460  0.2490  0.2168  0.4152
18584SOL    HW173362   4.019   1.564   4.504  0.5632 -1.8466  0.6170
18584SOL    HW273363   3.934   1.613   4.389  2.7203 -0.6781 -0.5486
18585SOL     OW73364  11.966   8.678  10.896 -0.4844  0.0862 -0.0297
18585SOL    HW173365  11.982   8.624  10.818 -1.8660 -0.6441  0.1577
18585SOL    HW273366  11.953   8.766  10.861 -3.1753 -0.5530 -0.9410
18586SOL     OW73367  13.623  11.986   1.815  0.1301  0.0741  0.0220
18586SOL    HW173368  13.678  11.957   1.742 -1.8357 -0.9472 -1.1505
18586SOL    HW273369  13.627  12.082   1.812  1.4722  0.0237 -0.2827
18587SOL     OW73370  12.386   5.576   9.399 -0.8520  0.5051 -0.5389
18587SOL    HW173371  12.375   5.501   9.457 -0.3516  0.4598 -0.5049
18587SOL    HW273372  12.335   5.553   9.321 -0.3981 -0.0298 -0.6779
18588SOL     OW73373   4.967   1.352   1.516  0.2316 -0.3977  0.6532
18588SOL    HW173374   4.941   1.312   1.599 -0.3531  0.3258  0.8338
18588SOL    HW273375   4.962   1.281   1.452 -0.1886 -0.7582  1.0767
18589SOL     OW73376  10.856  12.338   6.781 -0.3436 -0.3770  0.7520
18589SOL    HW173377  10.802  12.298   6.849  0.1430 -1.2328  0.6519
18589SOL    HW273378  10.805  12.329   6.701 -0.6447  0.0757  0.8856
18590SOL     OW73379   2.601  14.075   7.014 -0.7641  0.0471  0.4369
18590SOL    HW173380   2.679  14.094   6.962 -1.2130  3.0681  0.6779
18590SOL    HW273381   2.584  13.982   6.999  3.0250 -0.8402  0.6192
18591SOL     OW73382   5.586   1.642   6.540 -0.7827 -0.4578  0.4517
18591SOL    HW173383   5.670   1.597   6.531 -0.4091 -0.2583  2.4185
18591SOL    HW273384   5.602   1.729   6.502 -0.0891 -0.4119  0.8366
18592SOL     OW73385  11.335  11.486   8.817 -0.3221 -0.5264  0.0855
18592SOL    HW173386  11.336  11.501   8.723 -0.1996 -1.8039 -0.1337
18592SOL    HW273387  11.278  11.555   8.852 -0.3766 -0.0535 -0.9199
18593SOL     OW73388  11.773  13.060  10.873 -0.0532 -0.0723 -0.1891
18593SOL    HW173389  11.759  12.966  10.890  0.5440 -0.2187 -0.4930
18593SOL    HW273390  11.732  13.075  10.788  1.1764 -0.3958 -0.8545
18594SOL     OW73391   9.474   1.432   3.637  0.0939  0.6063 -0.2990
18594SOL    HW173392   9.408   1.450   3.570  0.5182  1.9185 -0.3854
18594SOL    HW273393   9.523   1.514   3.645  0.9559  0.0185  0.6090
18595SOL     OW73394   6.590   9.396   6.109  0.1557 -0.1728 -0.3219
18595SOL    HW173395   6.555   9.392   6.198  0.2990  0.8004 -0.2167
18595SOL    HW273396   6.583   9.488   6.084 -0.9811 -0.6199 -1.7748
18596SOL     OW73397   6.887  14.025  10.187 -0.1416  0.2393 -0.1363
18596SOL    HW173398   6.885  14.024  10.282 -0.2139 -1.3417 -0.1315
18596SOL    HW273399   6.892  13.933  10.162 -0.2224  0.6230 -1.6656
18597SOL     OW73400   3.459  10.643   5.542  0.7887 -0.4921  0.3927
18597SOL    HW173401   3.509  10.717   5.580  1.1871  0.2526 -1.4728
18597SOL    HW273402   3.370  10.656   5.574  1.3399 -0.6699  2.1264
18598SOL     OW73403   6.076   2.838   4.954 -1.2878 -0.5725 -0.1731
18598SOL    HW173404   6.172   2.830   4.954 -1.2137 -1.8898  3.8419
18598SOL    HW273405   6.047   2.768   4.896  0.1107  0.6003 -2.4312
18599SOL     OW73406   8.390  11.864  13.946 -0.0233  0.2560  0.0368
18599SOL    HW173407   8.446  11.930  13.988  0.1636  0.1403 -0.0291
18599SOL    HW273408   8.427  11.780  13.975 -0.4548  0.1801  0.3775
18600SOL     OW73409  12.638   0.564   6.828 -0.2340  0.0300  0.1785
18600SOL    HW173410  12.665   0.591   6.740 -1.4505  1.5690  0.2344
18600SOL    HW273411  12.544   0.547   6.821 -0.1069 -1.1275  0.9085
18601SOL     OW73412   8.103   2.769  11.513  0.1952  0.4613 -0.1321
18601SOL    HW173413   8.093   2.696  11.452 -1.5204  0.1330  0.4884
18601SOL    HW273414   8.091   2.847  11.459 -1.4971  0.1706 -0.2165
18602SOL     OW73415  10.441   1.536   5.585 -0.2154 -0.3111  0.6111
18602SOL    HW173416  10.435   1.621   5.629 -0.0392 -0.0329  0.1156
18602SOL    HW273417  10.405   1.552   5.498  1.7483 -0.1691 -0.2451
18603SOL     OW73418  10.215   3.942   1.647 -0.5088 -0.1388  0.0448
18603SOL    HW173419  10.148   3.940   1.580  0.5982  3.0020 -1.3548
18603SOL    HW273420  10.167   3.955   1.729 -1.6892  0.2541 -0.6935
18604SOL     OW73421   2.855  11.070   2.729  0.1341 -0.5152 -0.4299
18604SOL    HW173422   2.794  11.144   2.739 -0.1624 -0.9649  1.6682
18604SOL    HW273423   2.939  11.105   2.757  0.3791 -0.5071 -1.1571
18605SOL     OW73424   0.761  10.641   2.467 -0.2033  0.5091  0.2571
18605SOL    HW173425   0.725  10.565   2.512 -1.3126  1.2130  0.6213
18605SOL    HW273426   0.851  10.617   2.446 -0.9528 -1.4632 -0.9733
18606SOL     OW73427  13.550  12.222   4.083 -0.3424  0.5280  0.0426
18606SOL    HW173428  13.606  12.261   4.016 -0.9914  1.2631 -0.0954
18606SOL    HW273429  13.606  12.159   4.128  0.2420  0.3788 -0.8696
18607SOL     OW73430   7.125   6.078   9.603  0.7886  0.8121 -0.7853
18607SOL    HW173431   7.056   6.144   9.598 -0.4679 -0.2538  1.1361
18607SOL    HW273432   7.096   6.008   9.545 -0.0947  0.1137  0.4555
18608SOL     OW73433   9.392   2.776   2.920  0.1966 -0.2202  0.3731
18608SOL    HW173434   9.430   2.840   2.860  0.5679 -2.0577 -1.4582
18608SOL    HW273435   9.297   2.784   2.906  0.2697 -0.4580 -0.2723
18609SOL     OW73436   9.088   0.239   1.395  0.0873 -1.1668  0.6685
18609SOL    HW173437   9.132   0.225   1.479  0.5108  0.9068  0.8574
18609SOL    HW273438   9.004   0.279   1.420  0.1021 -0.7920  0.1141
18610SOL     OW73439   8.383  11.822  11.569 -0.1112 -0.1356 -0.1847
18610SOL    HW173440   8.316  11.839  11.503  1.0454  3.2312 -0.7079
18610SOL    HW273441   8.336  11.824  11.652 -1.1233 -1.3308 -0.7016
18611SOL     OW73442   9.417   1.331   7.307 -0.0172 -0.3974  0.0981
18611SOL    HW173443   9.400   1.318   7.214 -0.2713  1.0217 -0.0844
18611SOL    HW273444   9.336   1.369   7.341  0.2240 -0.5028  0.8076
18612SOL     OW73445   6.547   4.223   7.621 -0.2271 -0.2147  0.4765
18612SOL    HW173446   6.596   4.217   7.704  0.2666 -1.0980  0.1406
18612SOL    HW273447   6.610   4.193   7.555 -0.8247 -0.1233 -0.1339
18613SOL     OW73448   7.788   2.814   6.038  0.3544 -0.0750  0.5346
18613SOL    HW173449   7.721   2.781   6.097 -2.7500  1.3364 -1.8795
18613SOL    HW273450   7.802   2.905   6.064 -1.0786  0.5756 -0.7825
18614SOL     OW73451   6.324  11.913   7.490 -0.2668  0.2253 -0.3622
18614SOL    HW173452   6.403  11.959   7.461 -0.3607  0.2393 -0.6028
18614SOL    HW273453   6.354  11.856   7.560  0.3547 -1.2882 -1.7995
18615SOL     OW73454   8.335   4.726   3.914 -0.2587 -0.0192 -0.0877
18615SOL    HW173455   8.387   4.707   3.836  0.0832 -2.7489  0.7207
18615SOL    HW273456   8.247   4.693   3.893  0.1652 -2.0252  1.1182
18616SOL     OW73457   8.265  10.373  13.874 -0.1906 -0.5219  0.3612
18616SOL    HW173458   8.262  10.297  13.815 -0.4818 -0.2491  0.0155
18616SOL    HW273459   8.337  10.427  13.840 -0.3880 -0.3417  0.2184
18617SOL     OW73460   7.587   1.358   8.317  0.4303  0.1466 -1.0073
18617SOL    HW173461   7.602   1.340   8.224  0.9499  0.8522 -1.0690
18617SOL    HW273462   7.667   1.327   8.360 -0.2232 -1.1308 -0.6557
18618SOL     OW73463  10.973   7.297   2.585 -0.0371 -0.0761  0.2167
18618SOL    HW173464  11.063   7.286   2.552  0.4498  1.6411  0.8614
18618SOL    HW273465  10.952   7.213   2.624  1.5121 -0.3522  0.5374
18619SOL     OW73466   5.406   1.067   9.072 -0.0887  0.8427 -0.2196
18619SOL    HW173467   5.330   1.119   9.046 -1.4406 -0.7889  0.2874
18619SOL    HW273468   5.369   0.992   9.119  1.9186  0.5772  1.0532
18620SOL     OW73469  14.003   0.966  10.783 -0.0187  0.1948  0.3619
18620SOL    HW173470  13.979   0.954  10.875 -1.0865  1.7224  0.3207
18620SOL    HW273471  14.098   0.956  10.782 -0.0057 -0.0368  1.6060
18621SOL     OW73472   7.643  12.454   3.071  0.0290  0.0431  0.1220
18621SOL    HW173473   7.569  12.394   3.055  0.4233 -0.1359 -1.1205
18621SOL    HW273474   7.680  12.470   2.984  0.8806  0.8837  0.6247
18622SOL     OW73475   3.974   0.898   5.929 -0.1138 -0.2632 -0.0700
18622SOL    HW173476   3.919   0.961   5.975 -0.5060  0.6286 -1.7125
18622SOL    HW273477   4.063   0.916   5.961 -0.6519 -1.7005  2.5791
18623SOL     OW73478  12.777   5.253   7.089  0.2877  0.0264 -0.1078
18623SOL    HW173479  12.823   5.220   7.012 -0.4314  0.2416 -0.6371
18623SOL    HW273480  12.750   5.342   7.066 -2.3523 -0.8387 -0.7098
18624SOL     OW73481  12.016  11.261  14.071  0.1096 -0.1416 -0.2829
18624SOL    HW173482  11.925  11.261  14.040  0.2662 -2.7526 -1.0152
18624SOL    HW273483  12.011  11.223  14.159  0.5340 -0.9605 -0.6010
18625SOL     OW73484   5.841   1.720   0.658 -0.0542 -0.4006  0.2907
18625SOL    HW173485   5.895   1.688   0.730 -0.1963 -1.9528 -0.2498
18625SOL    HW273486   5.801   1.641   0.621  0.0682  0.3352 -1.5347
18626SOL     OW73487   8.911   4.543  13.959  0.2253  0.4331  0.0860
18626SOL    HW173488   8.842   4.575  13.901  0.1251 -1.3160 -0.8202
18626SOL    HW273489   8.987   4.597  13.938  0.5868 -0.9869 -2.7267
18627SOL     OW73490   9.510   2.791   0.038  0.3183 -0.1687  0.0397
18627SOL    HW173491   9.466   2.706   0.050 -0.2464  0.2473  1.0250
18627SOL    HW273492   9.598   2.768   0.010  0.1553 -1.0906  0.2327
18628SOL     OW73493   4.255  12.952   6.691  0.2915 -0.0147 -0.1382
18628SOL    HW173494   4.240  12.929   6.600 -0.4304 -0.0570 -0.0175
18628SOL    HW273495   4.308  13.032   6.688  2.3090 -1.3129 -0.5638
18629SOL     OW73496   4.122  12.956   8.750 -0.1566  0.4180 -0.8548
18629SOL    HW173497   4.123  12.998   8.836 -2.1532 -0.9316 -0.1066
18629SOL    HW273498   4.208  12.916   8.741 -0.3901 -0.6727  1.2110
18630SOL     OW73499   2.166   3.618   9.740 -0.1335  0.1311  0.1571
18630SOL    HW173500   2.205   3.679   9.677  0.8889 -1.5445 -0.9498
18630SOL    HW273501   2.143   3.672   9.815  2.4921  1.5985  0.0449
18631SOL     OW73502   3.577   9.280   8.640 -0.0312 -0.2029 -0.2869
18631SOL    HW173503   3.573   9.307   8.549 -0.4380  0.5879 -0.0392
18631SOL    HW273504   3.577   9.184   8.636 -0.7030 -0.1838 -1.0957
18632SOL     OW73505   1.203   2.006   0.364  0.1035 -0.2924 -0.4270
18632SOL    HW173506   1.298   1.996   0.369  0.2297  1.0570  3.6018
18632SOL    HW273507   1.168   1.918   0.374  0.9019 -0.6634 -0.8153
18633SOL     OW73508   2.072   1.479  10.618 -0.3548 -0.0878 -0.8495
18633SOL    HW173509   2.165   1.480  10.594  0.0827 -0.0806  0.7318
18633SOL    HW273510   2.066   1.412  10.686 -1.0662  1.4958  0.7094
18634SOL     OW73511  10.114   9.978  12.711  0.2473 -0.4134  0.5258
18634SOL    HW173512  10.025   9.948  12.729  0.2337 -0.4181  0.4548
18634SOL    HW273513  10.119   9.980  12.615 -0.2813  1.3953  0.4998
18635SOL     OW73514   2.264  10.701   9.837 -0.9810 -0.5864 -0.0148
18635SOL    HW173515   2.239  10.726   9.926 -1.4407  3.3487 -1.0678
18635SOL    HW273516   2.190  10.648   9.806  0.1598 -3.9916  2.4882
18636SOL     OW73517  12.598   6.949   3.178 -0.0125  0.0235 -0.0579
18636SOL    HW173518  12.521   7.000   3.203 -0.0811  0.0943 -0.4145
18636SOL    HW273519  12.562   6.869   3.140  0.0946 -0.6691  1.2586
18637SOL     OW73520  12.228   7.611  10.153 -0.1120  0.4085 -0.1607
18637SOL    HW173521  12.173   7.567  10.087 -0.7580  2.0397 -0.7593
18637SOL    HW273522  12.265   7.686  10.107  2.3306 -0.3895  0.3615
18638SOL     OW73523   4.912   5.915   0.568  0.4136 -0.2584 -0.5106
18638SOL    HW173524   5.003   5.921   0.597 -0.0306  1.1192  0.7520
18638SOL    HW273525   4.882   6.006   0.564 -1.1821 -0.7179  0.0375
18639SOL     OW73526   7.747   2.337   5.883  0.1595  0.4264 -0.0656
18639SOL    HW173527   7.756   2.342   5.788  1.0535  0.8555  0.0342
18639SOL    HW273528   7.694   2.414   5.906 -0.1999  0.2300 -0.2296
18640SOL     OW73529   5.415   0.732  13.020 -0.6173  0.2012 -0.0652
18640SOL    HW173530   5.435   0.671  12.948 -1.3427 -0.6522  0.4328
18640SOL    HW273531   5.400   0.816  12.976  0.9370  0.1746 -0.7198
18641SOL     OW73532   0.033   3.928   7.332  0.3265 -0.1172  0.1554
18641SOL    HW173533   0.005   3.895   7.246  1.2047 -0.5050  0.0135
18641SOL    HW273534  -0.046   3.923   7.386  0.2674 -1.8667 -0.0353
18642SOL     OW73535   8.550  13.352   9.827 -0.4627  0.1992 -0.1676
18642SOL    HW173536   8.562  13.261   9.855 -0.6296  0.6528  1.4743
18642SOL    HW273537   8.572  13.404   9.904 -1.8777  1.4920 -0.5930
18643SOL     OW73538   9.613   6.283  11.718 -0.4383  0.2724 -0.1092
18643SOL    HW173539   9.630   6.250  11.630  0.8259 -0.7104  0.4640
18643SOL    HW273540   9.645   6.373  11.717  2.2568 -0.5876  0.0625
18644SOL     OW73541   1.837   5.382   5.053 -0.1830 -0.2317 -0.2942
18644SOL    HW173542   1.856   5.391   4.959  1.6983 -0.3985  0.0421
18644SOL    HW273543   1.753   5.427   5.064  1.1133  2.7685 -1.5099
18645SOL     OW73544   3.260   8.373   1.838  0.3601 -0.3945 -0.4468
18645SOL    HW173545   3.221   8.381   1.925 -0.1258  1.3075 -0.7846
18645SOL    HW273546   3.207   8.308   1.793 -0.8093  0.3490 -0.1870
18646SOL     OW73547   2.391  12.091  12.553  0.5673 -0.0571  0.1103
18646SOL    HW173548   2.415  12.079  12.645  0.8973  1.1648  0.1987
18646SOL    HW273549   2.455  12.153  12.519 -1.2006  1.7204 -0.1848
18647SOL     OW73550  13.353   4.366   7.471  0.3645  0.2024  0.8650
18647SOL    HW173551  13.385   4.276   7.466 -0.0959 -0.0035  1.5958
18647SOL    HW273552  13.370   4.393   7.561 -0.6091  0.4262  0.9907
18648SOL     OW73553   2.069   8.965   6.140  0.2592  0.1288 -0.1208
18648SOL    HW173554   2.082   8.872   6.162 -0.6182  0.2796  1.0849
18648SOL    HW273555   1.997   8.965   6.077  1.2975 -0.1057 -1.3748
18649SOL     OW73556   8.465   8.884   1.719 -0.3770 -0.1287 -0.0735
18649SOL    HW173557   8.518   8.952   1.760 -2.1863  1.9181 -0.9568
18649SOL    HW273558   8.428   8.836   1.793 -0.6675  1.1373  0.6327
18650SOL     OW73559  11.342   3.215   4.609 -0.0566 -0.0401  0.0943
18650SOL    HW173560  11.292   3.296   4.603  0.4152  0.3345  0.9475
18650SOL    HW273561  11.288   3.157   4.663 -0.7700 -0.6115 -1.1884
18651SOL     OW73562   8.540   2.662  13.462  0.1071 -0.5037 -0.1534
18651SOL    HW173563   8.602   2.733  13.449 -0.5483  0.1094 -0.0209
18651SOL    HW273564   8.521   2.629  13.374  0.0348 -0.1783 -0.2589
18652SOL     OW73565   2.278   8.313  13.882  0.3731  0.2966  0.0423
18652SOL    HW173566   2.263   8.407  13.889 -0.7498  0.0415  1.3223
18652SOL    HW273567   2.228   8.274  13.954 -0.2853 -1.3967 -1.2409
18653SOL     OW73568   2.742   0.424   9.939  0.1691 -0.1597 -0.3790
18653SOL    HW173569   2.753   0.494   9.876  0.5783 -0.5445 -0.7403
18653SOL    HW273570   2.647   0.417   9.951  0.1611  1.8512  1.2639
18654SOL     OW73571   1.115   0.996   7.675  0.4330  0.0149  0.2731
18654SOL    HW173572   1.133   1.089   7.664  0.2311 -0.1950 -2.3133
18654SOL    HW273573   1.047   0.977   7.610 -1.7680 -1.3632  2.7668
18655SOL     OW73574   9.994  11.203   1.889 -0.2943 -0.2755  0.4834
18655SOL    HW173575  10.008  11.168   1.801  0.1672 -1.1782  0.9129
18655SOL    HW273576   9.918  11.156   1.922 -1.7521  1.4843 -0.1597
18656SOL     OW73577  10.973   9.357  11.217  0.3594  0.6995 -0.4131
18656SOL    HW173578  11.064   9.378  11.240 -0.5257  3.2162  1.1597
18656SOL    HW273579  10.941   9.434  11.171 -1.6556  0.8998  1.2007
18657SOL     OW73580   7.421   5.638   1.483  0.2281  0.4519  0.2594
18657SOL    HW173581   7.432   5.713   1.424  1.1102  0.6024  0.5934
18657SOL    HW273582   7.338   5.655   1.528 -1.6998 -0.8067 -2.5123
18658SOL     OW73583  12.842   2.987  11.964 -0.1742 -0.0956 -0.0869
18658SOL    HW173584  12.934   3.009  11.978  0.7159 -3.7563  1.0394
18658SOL    HW273585  12.814   3.045  11.894  2.2519  2.7652  1.0857
18659SOL     OW73586   0.347   2.337   8.416 -0.1610 -0.4416  0.3854
18659SOL    HW173587   0.393   2.303   8.493 -0.0591 -0.1121  0.4703
18659SOL    HW273588   0.393   2.298   8.342  0.1080 -0.2954  0.4758
18660SOL     OW73589  11.482   7.705   3.873 -0.0645  0.1937 -0.0464
18660SOL    HW173590  11.460   7.795   3.849 -1.2516  0.2642  1.1698
18660SOL    HW273591  11.576   7.708   3.891 -0.0965  1.2123  0.0583
18661SOL     OW73592   3.477   9.782   4.703  0.2923  0.2070  0.2857
18661SOL    HW173593   3.388   9.750   4.718  1.0550 -1.9569  0.6217
18661SOL    HW273594   3.478   9.871   4.739 -1.0994 -0.5863  2.5087
18662SOL     OW73595   4.840  10.742   0.307 -0.0547 -0.0644  0.0401
18662SOL    HW173596   4.875  10.828   0.283  2.9586 -0.9840  0.6210
18662SOL    HW273597   4.830  10.697   0.223 -0.0829  0.3222 -0.1676
18663SOL     OW73598  11.265  13.213   4.036 -0.1275  0.2122 -0.5007
18663SOL    HW173599  11.334  13.217   3.969  0.1569  0.6595 -0.1883
18663SOL    HW273600  11.312  13.222   4.119 -0.4880 -0.2491 -0.2469
18664SOL     OW73601   3.901   1.559   8.659  0.4440 -0.4514 -0.1957
18664SOL    HW173602   3.938   1.471   8.660 -0.9599 -1.0609  1.5322
18664SOL    HW273603   3.863   1.571   8.745  0.5704  1.8675 -0.3927
18665SOL     OW73604  11.550   2.596   0.773 -0.3230 -0.7400  0.4801
18665SOL    HW173605  11.638   2.608   0.809 -0.6616  0.2088  1.0244
18665SOL    HW273606  11.492   2.634   0.838 -1.2784 -2.6390  0.8242
18666SOL     OW73607   3.226  12.433  10.293  0.2779 -0.0983 -0.7393
18666SOL    HW173608   3.169  12.459  10.220 -2.4661 -0.3637  1.1468
18666SOL    HW273609   3.275  12.358  10.260 -1.4878 -0.7207 -2.1165
18667SOL     OW73610   0.981   9.173   5.553  0.8920  0.0418 -0.2485
18667SOL    HW173611   0.886   9.187   5.552  0.9258  0.2839 -0.2445
18667SOL    HW273612   1.011   9.215   5.472  0.8455 -1.1566 -0.9218
18668SOL     OW73613   7.450  10.967   0.373 -0.0464 -0.1320  0.6012
18668SOL    HW173614   7.503  11.017   0.311  0.0668  2.0045  2.3106
18668SOL    HW273615   7.396  10.910   0.318 -0.3342  2.0301 -1.5080
18669SOL     OW73616  13.705  13.902   6.709 -0.0588 -0.3631  0.1282
18669SOL    HW173617  13.701  13.967   6.779  0.3329 -0.5526  0.3303
18669SOL    HW273618  13.754  13.829   6.747  0.5484 -0.2825 -0.4879
18670SOL     OW73619  11.293  14.019   5.210  0.3622 -0.0413 -0.1722
18670SOL    HW173620  11.350  14.085   5.250 -0.6919 -0.5501  2.3475
18670SOL    HW273621  11.204  14.049   5.228 -0.2006 -0.3373 -2.1994
18671SOL     OW73622  13.158   2.559   4.098  0.2246 -0.7056 -0.2644
18671SOL    HW173623  13.066   2.532   4.092  0.0301  0.0983 -1.0163
18671SOL    HW273624  13.162   2.614   4.177 -0.5097  1.3452 -1.5779
18672SOL     OW73625   3.138   6.446   8.568 -0.2497 -0.7240  0.9816
18672SOL    HW173626   3.043   6.445   8.579 -0.4644 -1.3915 -0.6453
18672SOL    HW273627   3.163   6.538   8.576 -1.4830 -0.0819 -1.7688
18673SOL     OW73628   9.566  11.805   2.643  0.1040  0.2728 -0.1928
18673SOL    HW173629   9.523  11.852   2.571  0.5376  1.0577  0.0521
18673SOL    HW273630   9.550  11.859   2.720  0.4238 -0.0956  0.1358
18674SOL     OW73631   7.063   3.367   0.825 -0.0979  0.2482  0.9461
18674SOL    HW173632   7.043   3.274   0.817 -1.5209  0.5941  0.1068
18674SOL    HW273633   7.012   3.396   0.900 -1.5971  0.8053 -0.2314
18675SOL     OW73634   6.897   1.173   3.574 -0.1408  0.9686  0.0965
18675SOL    HW173635   6.892   1.249   3.632 -1.9452  2.4751 -1.8550
18675SOL    HW273636   6.978   1.186   3.525 -0.1147  1.2761  0.2168
18676SOL     OW73637   9.261   0.115   2.322  0.4797 -0.3697 -0.2221
18676SOL    HW173638   9.227   0.158   2.244  2.0442 -1.1317 -1.3662
18676SOL    HW273639   9.191   0.125   2.387 -0.1430  1.8025 -1.1444
18677SOL     OW73640   2.906   4.143   2.511 -0.1202  0.0709  0.1395
18677SOL    HW173641   2.816   4.171   2.500 -1.0337 -2.5989  0.1847
18677SOL    HW273642   2.946   4.154   2.424 -1.3210 -1.2958 -0.6344
18678SOL     OW73643   1.017   6.308  10.713 -0.1616 -0.5270  0.1262
18678SOL    HW173644   1.081   6.308  10.642  0.5624 -3.6444  0.6050
18678SOL    HW273645   0.945   6.254  10.680 -0.8487 -0.1194  0.9290
18679SOL     OW73646  13.740  10.184   0.677 -0.1575  0.1508  0.1605
18679SOL    HW173647  13.737  10.184   0.773 -1.1209 -0.2517  0.1420
18679SOL    HW273648  13.722  10.275   0.653 -0.9810  0.0577  0.3593
18680SOL     OW73649   5.725   2.427  12.261  0.4189 -0.5992  0.3582
18680SOL    HW173650   5.652   2.368  12.274  0.3483 -0.0836  2.6119
18680SOL    HW273651   5.799   2.370  12.240  0.1207 -1.4147  1.4622
18681SOL     OW73652   3.755   6.423   9.434  0.0194 -0.0922 -0.2496
18681SOL    HW173653   3.794   6.367   9.501  1.6908  0.9134 -0.3192
18681SOL    HW273654   3.662   6.402   9.436 -0.3881  1.2308  3.7370
18682SOL     OW73655  10.329   8.858  13.390 -0.4052  0.4215 -0.1540
18682SOL    HW173656  10.326   8.771  13.430  1.7827  0.8027  1.0090
18682SOL    HW273657  10.365   8.843  13.303  0.6265  0.2056  0.2933
18683SOL     OW73658   2.348   8.379  12.833 -0.1857 -0.5146 -0.5292
18683SOL    HW173659   2.256   8.358  12.846 -0.1307 -1.0747 -1.0221
18683SOL    HW273660   2.369   8.347  12.745  0.5867 -0.7742 -0.2606
18684SOL     OW73661  14.085   6.656  12.268 -0.2832  0.4146  0.4253
18684SOL    HW173662  14.123   6.738  12.298 -0.3663  0.8281 -0.5514
18684SOL    HW273663  14.020   6.633  12.334  1.1169  0.0906  1.7347
18685SOL     OW73664   1.562  11.487   3.070 -0.2378 -0.1979 -0.3042
18685SOL    HW173665   1.563  11.574   3.030  1.2012  0.5489  1.2137
18685SOL    HW273666   1.632  11.440   3.026  0.3929  0.1409  0.3239
18686SOL     OW73667  11.671  11.014   5.061  0.4748 -0.6267  0.4036
18686SOL    HW173668  11.719  10.976   4.988  1.8659 -0.1131  1.0019
18686SOL    HW273669  11.626  11.090   5.024  2.1484  0.3579  0.2643
18687SOL     OW73670  10.348   7.452   0.623 -0.2747 -0.7140  0.1734
18687SOL    HW173671  10.321   7.411   0.541  0.2531 -0.6911 -0.0106
18687SOL    HW273672  10.354   7.545   0.603 -0.2421 -0.6959  0.2650
18688SOL     OW73673   2.867  11.738  10.085  0.2156  0.3583 -0.3061
18688SOL    HW173674   2.787  11.750  10.137  1.4087 -1.6780  2.2587
18688SOL    HW273675   2.855  11.653  10.043  2.0611 -1.4473  2.4920
18689SOL     OW73676   5.931   2.411  11.166 -0.4410  0.2441  0.2307
18689SOL    HW173677   5.962   2.489  11.212 -0.4089  0.8657 -0.8118
18689SOL    HW273678   5.843   2.435  11.135 -1.2945 -0.8685  1.6330
18690SOL     OW73679   7.195   4.564   2.862 -0.1313 -0.1548  0.2355
18690SOL    HW173680   7.244   4.645   2.845 -0.5799  0.1058  0.1859
18690SOL    HW273681   7.149   4.581   2.944  1.0523 -0.9571  1.0907
18691SOL     OW73682   1.766   5.255  12.968  0.2051 -0.4778 -0.1041
18691SOL    HW173683   1.843   5.300  13.002  1.0187 -1.4554 -0.6207
18691SOL    HW273684   1.713   5.236  13.045  1.5898 -1.8732  0.5487
18692SOL     OW73685   1.573   5.116  11.885  0.0077  0.4570 -0.2933
18692SOL    HW173686   1.636   5.074  11.826 -0.7652 -1.1980 -0.0014
18692SOL    HW273687   1.508   5.155  11.826  0.2917  0.5265 -0.5639
18693SOL     OW73688   4.621  11.229  11.300 -0.1668  0.5348 -0.1816
18693SOL    HW173689   4.635  11.149  11.351 -1.1944  0.6854  0.3813
18693SOL    HW273690   4.542  11.268  11.338 -0.7173  0.8904 -1.6002
18694SOL     OW73691  12.004  13.108  13.983  0.3538  0.5548 -0.2343
18694SOL    HW173692  11.922  13.143  13.946 -0.0209  0.2783  0.3171
18694SOL    HW273693  11.980  13.081  14.071  0.6847 -0.8878 -0.5550
18695SOL     OW73694   7.884  12.317   4.000 -0.4815 -0.1510  0.2321
18695SOL    HW173695   7.902  12.344   4.090 -0.3245  0.7268 -0.0547
18695SOL    HW273696   7.955  12.255   3.979  0.5385  1.0070  0.1229
18696SOL     OW73697   8.602   6.465   7.176  0.3792 -0.6945 -0.3015
18696SOL    HW173698   8.618   6.483   7.083  0.8074  0.4141 -0.0237
18696SOL    HW273699   8.546   6.536   7.206  1.1229 -0.4414  0.5408
18697SOL     OW73700   4.709   8.289  13.394  0.1127  0.4635 -0.3804
18697SOL    HW173701   4.638   8.351  13.379  1.4397  1.8407 -1.3346
18697SOL    HW273702   4.762   8.292  13.314 -0.4633 -2.9635 -1.0579
18698SOL     OW73703  11.643  11.451   1.134  0.2699 -0.7335 -0.5988
18698SOL    HW173704  11.605  11.508   1.201  0.2021 -1.3296 -0.1122
18698SOL    HW273705  11.656  11.507   1.058 -1.9940 -0.5707 -0.9487
18699SOL     OW73706  12.526  10.877   1.056  0.0704 -0.0399 -0.1839
18699SOL    HW173707  12.436  10.863   1.027 -0.5522 -2.2865  2.3908
18699SOL    HW273708  12.564  10.789   1.062  2.0829  0.7667 -0.1310
18700SOL     OW73709   4.639   6.491   7.475 -0.0797 -0.2185 -0.1505
18700SOL    HW173710   4.647   6.552   7.402 -2.6092  0.2606 -0.1038
18700SOL    HW273711   4.687   6.413   7.446 -0.7292  0.0838 -2.1845
18701SOL     OW73712   6.525  12.409   3.397  0.0311 -0.3390  0.5461
18701SOL    HW173713   6.548  12.455   3.316  1.2584 -1.2012  0.3680
18701SOL    HW273714   6.518  12.478   3.462  0.2758  0.2549 -0.0398
18702SOL     OW73715   7.915   1.704   1.791 -0.1460  0.0172 -0.1308
18702SOL    HW173716   7.935   1.770   1.724  1.1395 -1.8817 -1.7263
18702SOL    HW273717   7.998   1.694   1.839 -0.2729 -0.5682 -0.0344
18703SOL     OW73718   2.023   6.415   0.258 -0.1799  0.2754 -0.3549
18703SOL    HW173719   2.086   6.476   0.218  0.3179  0.3543  0.5122
18703SOL    HW273720   1.945   6.468   0.272  0.6365  1.0973  1.4774
18704SOL     OW73721  11.017   4.625   0.373  0.4390 -0.1031 -0.4711
18704SOL    HW173722  11.047   4.630   0.282  0.0861 -2.9447 -0.8291
18704SOL    HW273723  11.017   4.532   0.394 -0.3600  0.3917  2.1822
18705SOL     OW73724   0.747   4.476   2.612  0.3221 -0.2360 -0.2913
18705SOL    HW173725   0.743   4.403   2.549 -1.3075 -0.5303  0.1178
18705SOL    HW273726   0.790   4.438   2.689  0.2550 -0.5288 -0.3943
18706SOL     OW73727   3.117   1.618   7.085  0.0599  0.0438  0.2322
18706SOL    HW173728   3.082   1.551   7.026  0.6880 -0.6359  0.6083
18706SOL    HW273729   3.197   1.648   7.042  0.7651 -0.7818  0.9349
18707SOL     OW73730   9.018   4.608   0.358 -0.0049 -0.2723 -0.1125
18707SOL    HW173731   9.090   4.601   0.296  0.2082 -1.9472  0.2668
18707SOL    HW273732   9.013   4.522   0.399 -1.0477  0.3663  1.1956
18708SOL     OW73733  10.940   8.616  13.895 -0.1605  0.6741  0.3362
18708SOL    HW173734  11.013   8.630  13.955 -0.5438  0.4178  0.8720
18708SOL    HW273735  10.890   8.545  13.935 -2.0953  2.4749  1.3271
18709SOL     OW73736  13.416  13.451   2.754  0.0703  0.4488  0.1637
18709SOL    HW173737  13.385  13.531   2.796 -0.1882 -0.3263  1.5230
18709SOL    HW273738  13.471  13.410   2.821 -0.9972 -1.2314  0.0639
18710SOL     OW73739   3.902   5.789   1.319  0.1545  0.0329  0.1760
18710SOL    HW173740   3.827   5.789   1.378 -1.1766  0.6129 -1.4098
18710SOL    HW273741   3.863   5.796   1.232  2.0946  2.3903 -0.6115
18711SOL     OW73742  13.395  10.367  10.457 -0.2439  0.4554  0.2752
18711SOL    HW173743  13.320  10.371  10.399 -0.3240 -2.4217 -0.0069
18711SOL    HW273744  13.439  10.285  10.432  2.7610  1.8104  0.7059
18712SOL     OW73745   7.876  10.077   1.592  0.3724 -0.6046 -0.7542
18712SOL    HW173746   7.854   9.984   1.582  3.8782 -1.4078 -2.5278
18712SOL    HW273747   7.883  10.109   1.503  2.5794  0.4109 -0.2693
18713SOL     OW73748  14.014  11.829   1.050 -0.2438  0.0140 -0.4213
18713SOL    HW173749  13.976  11.909   1.086 -1.9855 -0.2476 -1.5783
18713SOL    HW273750  13.962  11.758   1.088  2.6414 -0.8730  2.3554
18714SOL     OW73751  13.865  12.113   4.865 -0.3501  0.2012  0.1232
18714SOL    HW173752  13.882  12.195   4.818 -0.6997  0.2070  0.0072
18714SOL    HW273753  13.896  12.129   4.954 -1.0730  0.7074  0.2924
18715SOL     OW73754  10.288   7.567   7.249  0.0000  0.2082  0.0493
18715SOL    HW173755  10.357   7.520   7.202  2.1177  1.0697  2.1224
18715SOL    HW273756  10.230   7.498   7.282 -0.3345 -0.5113 -1.9059
18716SOL     OW73757  12.174   4.513   8.408 -0.0368 -0.1139 -0.1862
18716SOL    HW173758  12.246   4.459   8.376  0.8848 -0.4008  2.1834
18716SOL    HW273759  12.209   4.602   8.408  0.7617 -0.3713  1.9118
18717SOL     OW73760   7.962   7.767  11.289 -0.5884 -0.5171 -0.2678
18717SOL    HW173761   8.023   7.693  11.289  0.6697  0.4012  1.9011
18717SOL    HW273762   8.018   7.843  11.307 -2.3489  0.3587  1.9589
18718SOL     OW73763   3.571   0.297   3.790  0.4319 -0.1508 -0.1097
18718SOL    HW173764   3.625   0.238   3.737  0.0768  1.6818 -2.6753
18718SOL    HW273765   3.618   0.380   3.789 -0.4359  0.3881  1.0868
18719SOL     OW73766  12.457   2.432  13.211  0.3404  0.3582  0.5203
18719SOL    HW173767  12.415   2.493  13.271 -1.2761 -0.1956 -0.0058
18719SOL    HW273768  12.543   2.415  13.250 -0.1565  1.0244  1.9677
18720SOL     OW73769   2.094   1.090  12.503  0.4459 -0.3349  0.1716
18720SOL    HW173770   2.014   1.046  12.476  0.2362  0.3627 -0.3436
18720SOL    HW273771   2.145   1.021  12.546 -0.9017 -0.5352  1.5443
18721SOL     OW73772   6.055  11.563  10.253 -0.3494 -0.6172  0.1248
18721SOL    HW173773   6.004  11.589  10.175  1.3926  0.5049 -0.7003
18721SOL    HW273774   6.060  11.643  10.305 -1.1045 -1.2497  1.2078
18722SOL     OW73775  12.938   3.568   6.320  0.4171 -0.5230 -0.1028
18722SOL    HW173776  12.882   3.645   6.333 -0.1484 -0.8690 -0.4529
18722SOL    HW273777  12.981   3.584   6.236  0.6829 -0.3616  0.0608
18723SOL     OW73778  11.614   8.500   8.628  0.7489  0.2078 -0.1939
18723SOL    HW173779  11.625   8.410   8.596  2.0092  0.4180 -0.4404
18723SOL    HW273780  11.561   8.543   8.561  0.6618 -0.1897 -0.3855
18724SOL     OW73781  11.911  12.319   1.534 -0.4349  0.0352 -0.4850
18724SOL    HW173782  11.944  12.363   1.613  0.4309  2.4475 -2.0697
18724SOL    HW273783  11.967  12.243   1.523  1.0690  1.0582 -0.1166
18725SOL     OW73784  12.882   2.352   3.426 -0.1293 -0.1069 -0.0419
18725SOL    HW173785  12.903   2.273   3.475 -1.8587 -1.0007 -0.6680
18725SOL    HW273786  12.806   2.389   3.472  1.3185  1.8338  0.9049
18726SOL     OW73787   4.129   2.023  11.384  0.4812  0.0603 -0.1545
18726SOL    HW173788   4.066   2.095  11.388  0.2405 -0.1614  0.1467
18726SOL    HW273789   4.119   1.979  11.468 -0.8558 -1.5502 -1.0947
18727SOL     OW73790   1.860   5.070  12.800  0.0202 -0.4566 -0.0715
18727SOL    HW173791   1.825   5.156  12.822  0.5600 -0.0107 -0.9266
18727SOL    HW273792   1.787   5.024  12.759 -0.2332 -0.3739  0.2797
18728SOL     OW73793   2.360   1.464   8.485  0.3563  0.5223  0.2097
18728SOL    HW173794   2.447   1.466   8.523  1.2224 -0.5522 -1.5762
18728SOL    HW273795   2.344   1.371   8.466 -0.6650  0.8366 -0.5851
18729SOL     OW73796  11.219   2.366  10.672 -0.4948 -0.3781 -0.0987
18729SOL    HW173797  11.306   2.329  10.656 -0.7695 -0.8752 -0.4810
18729SOL    HW273798  11.235   2.459  10.685 -0.1153 -0.0508 -2.3725
18730SOL     OW73799  11.766   1.832  12.744 -0.2770  0.1337 -0.5206
18730SOL    HW173800  11.845   1.779  12.733  0.1938  0.6507  0.2506
18730SOL    HW273801  11.736   1.812  12.833 -0.1465  1.0764 -0.2496
18731SOL     OW73802   3.763   7.550   1.402 -0.8894 -0.3135  0.3939
18731SOL    HW173803   3.803   7.634   1.423  1.6693 -1.5239  0.7109
18731SOL    HW273804   3.741   7.556   1.309  0.8476  0.1185 -0.0159
18732SOL     OW73805  12.859   6.130   4.706  0.1288 -0.6479  0.5275
18732SOL    HW173806  12.881   6.042   4.739 -0.3100 -1.1900 -0.5857
18732SOL    HW273807  12.868   6.187   4.783 -0.0888 -1.7490  1.3933
18733SOL     OW73808   0.595   9.927  14.001  0.1819  0.8932 -0.0828
18733SOL    HW173809   0.501   9.932  13.981 -0.6551 -1.0373  2.6981
18733SOL    HW273810   0.610   9.996  14.065  0.3267  0.3518  0.4769
18734SOL     OW73811  13.054  10.068  12.334  0.0660  0.1909 -0.0460
18734SOL    HW173812  13.131  10.123  12.320  0.7713 -0.6008  0.6113
18734SOL    HW273813  13.079   9.982  12.298 -1.3055  0.4602 -1.8059
18735SOL     OW73814   0.183  13.524   1.065 -0.1208  0.2818  0.4112
18735SOL    HW173815   0.196  13.468   0.989 -1.3039  0.5408 -0.0066
18735SOL    HW273816   0.249  13.593   1.056 -0.0574  0.1456 -0.2176
18736SOL     OW73817  13.337  12.779   5.005 -0.1634 -0.4176  0.0405
18736SOL    HW173818  13.266  12.825   4.960  0.4336  0.4249 -0.0645
18736SOL    HW273819  13.399  12.848   5.029  0.3579 -1.0717  0.6176
18737SOL     OW73820  10.039  10.227  11.704  0.0822 -0.1885  0.2049
18737SOL    HW173821   9.978  10.243  11.632  0.9313  0.1222 -0.4558
18737SOL    HW273822  10.047  10.311  11.749 -0.4993 -0.3991  0.7093
18738SOL     OW73823  11.606  10.548  11.659 -0.1914  0.1658  0.0965
18738SOL    HW173824  11.616  10.605  11.582 -1.0588  2.3527  1.4968
18738SOL    HW273825  11.653  10.594  11.728  1.7572 -2.4460  0.6517
18739SOL     OW73826   3.456   3.454   9.365 -0.1332 -0.1392 -0.3828
18739SOL    HW173827   3.531   3.446   9.305 -0.0161 -0.6698 -0.1796
18739SOL    HW273828   3.410   3.532   9.336  2.1364  1.9878  1.3260
18740SOL     OW73829  10.773   8.482   1.391 -0.1951 -0.3228  0.6476
18740SOL    HW173830  10.742   8.506   1.304 -0.3741  1.7723  1.2115
18740SOL    HW273831  10.732   8.398   1.410 -3.6751  1.1772  0.3922
18741SOL     OW73832  13.268  12.055   2.014  0.2677 -0.1396  0.2716
18741SOL    HW173833  13.187  12.026   2.056 -0.2465  2.1291  0.9577
18741SOL    HW273834  13.338  12.019   2.070 -0.2126 -1.8966 -0.1876
18742SOL     OW73835   7.548  13.344  12.482 -0.1982 -0.0862  0.4337
18742SOL    HW173836   7.559  13.439  12.489  2.9598 -0.3021 -0.1711
18742SOL    HW273837   7.609  13.308  12.546  1.3001 -1.6572 -1.7318
18743SOL     OW73838   6.544   7.369  13.727 -0.1464 -0.3287  0.2507
18743SOL    HW173839   6.557   7.276  13.743  0.8134 -0.4402 -1.1097
18743SOL    HW273840   6.493   7.399  13.803  0.3938 -1.7361  1.2023
18744SOL     OW73841  12.189   5.620   1.724 -0.0097 -0.0067  0.0164
18744SOL    HW173842  12.215   5.555   1.790 -1.9030 -1.1692 -0.3029
18744SOL    HW273843  12.267   5.673   1.711  1.7372 -2.4092  0.0973
18745SOL     OW73844   5.240  12.368  13.054  0.2852 -0.0136  0.2347
18745SOL    HW173845   5.300  12.377  13.128 -0.0600 -1.3849  0.7029
18745SOL    HW273846   5.203  12.280  13.063 -1.8581  0.7916  0.0075
18746SOL     OW73847   8.156   1.018  14.091  0.5360  0.1809  0.1435
18746SOL    HW173848   8.088   0.961  14.127  0.6806  0.3177  0.6384
18746SOL    HW273849   8.154   1.001  13.997 -1.1691  1.2216 -0.0536
18747SOL     OW73850   4.575  11.341   2.102  0.4200 -0.3049 -0.0230
18747SOL    HW173851   4.528  11.362   2.183  0.8060 -1.9234  0.6702
18747SOL    HW273852   4.666  11.331   2.130  0.7486  0.2114 -0.8724
18748SOL     OW73853   0.264   9.702   6.579  0.3599 -0.5144 -0.3093
18748SOL    HW173854   0.314   9.720   6.500  0.6901  3.2723  0.5597
18748SOL    HW273855   0.303   9.622   6.615  1.8775 -0.8976 -2.6005
18749SOL     OW73856   9.723   8.227   8.498 -0.5018 -1.0358 -0.0793
18749SOL    HW173857   9.801   8.217   8.444  0.9123  2.1248  1.1384
18749SOL    HW273858   9.657   8.263   8.438  0.8018  1.6667 -0.0161
18750SOL     OW73859  10.656   7.128   3.412  0.3482 -0.2580 -0.2099
18750SOL    HW173860  10.652   7.033   3.404 -1.8178 -0.2018 -0.5812
18750SOL    HW273861  10.739   7.153   3.372  1.2146 -2.0161  0.4077
18751SOL     OW73862   2.804  12.199  13.786 -0.1647 -0.0862  0.5672
18751SOL    HW173863   2.858  12.247  13.723  0.9117 -3.4587 -1.3690
18751SOL    HW273864   2.837  12.225  13.872  2.2234  0.5502 -0.4646
18752SOL     OW73865   4.297   7.568   8.632  0.1359  0.1278 -0.5595
18752SOL    HW173866   4.251   7.496   8.677 -0.0338  0.7297  0.2474
18752SOL    HW273867   4.381   7.531   8.608 -0.9038 -1.1466 -2.4669
18753SOL     OW73868   6.805  10.853   6.831 -0.0990  0.0220 -0.5202
18753SOL    HW173869   6.879  10.857   6.772  1.0720 -1.6804  0.7245
18753SOL    HW273870   6.819  10.925   6.893  1.5921 -1.3485  0.8010
18754SOL     OW73871   4.980  13.152   6.096 -0.1350 -0.3405  0.2844
18754SOL    HW173872   4.973  13.238   6.137  0.7237 -0.3095  0.3742
18754SOL    HW273873   5.074  13.135   6.090 -0.2972 -1.5796  0.9119
18755SOL     OW73874  13.236   1.131   8.175  0.1906  0.4336  0.0257
18755SOL    HW173875  13.313   1.089   8.137  1.3150  3.6477 -1.5991
18755SOL    HW273876  13.179   1.150   8.101 -1.3177 -0.1241  0.9844
18756SOL     OW73877   2.849   9.624   6.437 -0.3706 -0.0500  0.1987
18756SOL    HW173878   2.847   9.533   6.407  0.9506 -0.0842  0.1441
18756SOL    HW273879   2.769   9.634   6.488  0.4289 -1.8491  1.9476
18757SOL     OW73880   1.126   6.770   8.809 -0.2682  0.4485  0.0489
18757SOL    HW173881   1.129   6.832   8.736 -0.1474  0.8310  0.3785
18757SOL    HW273882   1.096   6.822   8.884  0.4948  0.2644  0.4859
18758SOL     OW73883  10.327   1.372   2.193 -0.0130  0.1855  0.5465
18758SOL    HW173884  10.337   1.390   2.099  1.3685  1.4093  0.9075
18758SOL    HW273885  10.241   1.330   2.199 -0.4719  0.7739 -1.1719
18759SOL     OW73886  12.326   8.921   9.880 -0.1877  0.2245  0.7319
18759SOL    HW173887  12.391   8.924   9.950 -1.0855  0.2894  1.5753
18759SOL    HW273888  12.376   8.894   9.803  0.3555 -2.7237  1.9838
18760SOL     OW73889   4.801   3.725   9.777 -0.1639 -0.2973  0.5065
18760SOL    HW173890   4.770   3.636   9.762  2.2107 -1.0908 -0.2390
18760SOL    HW273891   4.846   3.749   9.696 -0.5321  1.5098  0.7831
18761SOL     OW73892  13.435   5.898  10.774  0.3783  0.0907 -0.0600
18761SOL    HW173893  13.460   5.990  10.771 -0.3098  0.2605 -1.9376
18761SOL    HW273894  13.499   5.853  10.718 -0.2392 -0.2991 -0.4698
18762SOL     OW73895   4.838  12.003  13.512 -0.1650  0.6235 -0.0796
18762SOL    HW173896   4.923  11.994  13.468  0.2261  0.4033  0.7019
18762SOL    HW273897   4.843  12.090  13.553 -0.6122  0.9178 -0.6450
18763SOL     OW73898   0.517   1.536   9.718 -0.1790 -0.0361 -0.5721
18763SOL    HW173899   0.601   1.494   9.699  0.2646  0.2073  0.7275
18763SOL    HW273900   0.495   1.583   9.638  1.5735  0.9798 -0.5077
18764SOL     OW73901   3.250   5.737   8.982 -0.0843 -0.3315  0.0466
18764SOL    HW173902   3.177   5.774   9.032 -1.0375 -0.6705 -1.0571
18764SOL    HW273903   3.272   5.804   8.917  0.0266 -0.5771 -0.1722
18765SOL     OW73904   3.599   3.328  11.617 -0.3618  0.3419 -0.0115
18765SOL    HW173905   3.608   3.403  11.558 -0.7679 -0.6738 -1.4023
18765SOL    HW273906   3.635   3.254  11.569  0.1200 -0.3639  1.3791
18766SOL     OW73907  14.034   6.840   7.639 -0.2343 -0.2099 -0.0397
18766SOL    HW173908  14.002   6.900   7.707 -0.2994 -0.0906 -0.1751
18766SOL    HW273909  14.002   6.878   7.557  0.1919 -0.1345 -0.1693
18767SOL     OW73910  12.825   6.715   1.821  0.5498 -0.4190  0.4971
18767SOL    HW173911  12.919   6.715   1.801  0.0896  0.4497 -2.1177
18767SOL    HW273912  12.801   6.808   1.825 -0.3224 -0.6289  0.4069
18768SOL     OW73913  10.557  13.428   9.152  0.5300  0.1813 -0.4985
18768SOL    HW173914  10.472  13.469   9.141  0.2223 -0.4848 -0.6592
18768SOL    HW273915  10.619  13.490   9.113 -0.0478 -0.0473 -1.8499
18769SOL     OW73916   8.689  13.984  12.081 -0.2886  0.2064  0.5195
18769SOL    HW173917   8.651  13.921  12.019  1.3145  0.5432 -0.8902
18769SOL    HW273918   8.735  14.047  12.026  0.7563  0.8425  2.0515
18770SOL     OW73919   1.796   4.257  13.235 -0.4723 -0.2377  0.1144
18770SOL    HW173920   1.781   4.289  13.146  0.5991 -0.9025 -0.3200
18770SOL    HW273921   1.891   4.246  13.240 -0.4813  0.1581  1.4742
18771SOL     OW73922  11.021  11.480   8.397  0.0979 -0.2373  0.1436
18771SOL    HW173923  10.988  11.564   8.431  2.4274  1.4544 -1.4372
18771SOL    HW273924  11.100  11.463   8.448 -0.9951 -2.2659  1.3239
18772SOL     OW73925   1.620   6.999   7.100  0.2259 -0.2655  0.2785
18772SOL    HW173926   1.642   6.908   7.118  1.0864 -0.5099 -1.7911
18772SOL    HW273927   1.549   7.019   7.162 -0.3398 -2.4739  0.4353
18773SOL     OW73928   8.671  12.710  10.328 -0.2744 -0.3803  0.4928
18773SOL    HW173929   8.709  12.639  10.380  2.5825  2.5920  2.9562
18773SOL    HW273930   8.615  12.756  10.390  0.1352  1.0404 -0.1544
18774SOL     OW73931   1.753   4.467   6.779  0.1531 -0.2698 -0.7949
18774SOL    HW173932   1.685   4.478   6.845  1.7120 -0.1933  0.8863
18774SOL    HW273933   1.731   4.530   6.710  0.0145  1.7359  0.9991
18775SOL     OW73934   6.896  10.038   9.768 -0.8799  0.7392 -0.1403
18775SOL    HW173935   6.809  10.073   9.784 -1.3053  0.0728 -0.9138
18775SOL    HW273936   6.883   9.969   9.703  0.2786  0.9227 -0.6048
18776SOL     OW73937   4.913   9.681   2.859  0.3862  0.1456 -0.7614
18776SOL    HW173938   4.981   9.744   2.834 -0.9819  1.9564 -0.1364
18776SOL    HW273939   4.935   9.658   2.949  1.8624 -1.6786 -1.5258
18777SOL     OW73940   9.844   2.332  13.775 -0.9545  0.0997  0.1562
18777SOL    HW173941   9.882   2.267  13.717 -3.5143 -2.3756  1.0106
18777SOL    HW273942   9.772   2.371  13.724 -1.1544  0.2656  0.5592
18778SOL     OW73943   1.073   6.048  10.503 -0.7040 -0.2082  0.2496
18778SOL    HW173944   1.151   6.049  10.557  1.0368  0.9736 -2.1052
18778SOL    HW273945   1.078   5.966  10.455  0.3462  0.7994 -1.4748
18779SOL     OW73946   4.822  13.950  11.824 -0.1750 -0.0571  0.3144
18779SOL    HW173947   4.757  13.960  11.754  1.0635  1.8290 -0.6405
18779SOL    HW273948   4.900  13.993  11.790  1.0793 -0.8102  2.1089
18780SOL     OW73949   9.246   2.875  13.668  0.0956 -0.2591  0.2788
18780SOL    HW173950   9.318   2.878  13.731  0.3649  0.0128 -0.0393
18780SOL    HW273951   9.214   2.966  13.663  1.4928  0.1895 -1.5861
18781SOL     OW73952  12.566   9.233   9.890  0.6584 -0.4860 -0.3819
18781SOL    HW173953  12.640   9.208   9.834  0.8700 -0.8959  0.0791
18781SOL    HW273954  12.584   9.191   9.974  0.2635  0.0004 -0.0478
18782SOL     OW73955  11.791   8.912   5.448  0.0407 -0.1851 -0.0696
18782SOL    HW173956  11.857   8.912   5.517 -0.1772 -1.5814  0.1787
18782SOL    HW273957  11.838   8.943   5.371  0.4058  0.9598  0.5860
18783SOL     OW73958  11.310  12.523   2.296  0.6560 -0.3910  0.3430
18783SOL    HW173959  11.280  12.564   2.376  0.1807  0.9958 -0.5044
18783SOL    HW273960  11.378  12.582   2.262  0.6290 -0.7794 -0.4306
18784SOL     OW73961   3.400  12.927   0.311 -0.0092 -0.0499  0.3729
18784SOL    HW173962   3.307  12.921   0.335  0.0258  0.7297  0.7104
18784SOL    HW273963   3.434  12.840   0.331 -0.8659 -0.6562 -0.6580
18785SOL     OW73964   8.349  13.780   4.449  0.0535 -0.0422 -0.4106
18785SOL    HW173965   8.429  13.727   4.455  1.1918  1.7157  1.6289
18785SOL    HW273966   8.363  13.837   4.374  1.1368  0.8191  0.4176
18786SOL     OW73967   7.351  11.229   7.678  0.5930 -0.2215  0.2359
18786SOL    HW173968   7.290  11.281   7.627  0.8566 -0.9768 -0.8787
18786SOL    HW273969   7.316  11.140   7.674  0.2352 -0.1932  1.9668
18787SOL     OW73970   6.757   2.477   4.039  0.6582  0.3460 -0.8732
18787SOL    HW173971   6.852   2.472   4.053  0.5615 -0.2280 -0.3914
18787SOL    HW273972   6.719   2.436   4.116 -0.0101  1.1559 -0.7527
18788SOL     OW73973   6.596  10.352   2.946 -0.1676 -0.3752  0.8950
18788SOL    HW173974   6.637  10.306   3.019  1.9192 -0.0018  0.0246
18788SOL    HW273975   6.547  10.423   2.987 -1.3014 -1.7618  2.0723
18789SOL     OW73976  14.062   6.192  10.894 -0.0533 -0.2540  0.5355
18789SOL    HW173977  14.038   6.206  10.986 -0.4581  0.5233  0.3184
18789SOL    HW273978  14.105   6.273  10.868  0.1134 -0.4935  0.0527
18790SOL     OW73979   1.006   4.005  13.878  0.2454 -0.5043  0.2858
18790SOL    HW173980   0.943   4.077  13.870  0.4133 -0.3992 -0.1378
18790SOL    HW273981   0.996   3.956  13.797  1.6947  0.3251 -0.4302
18791SOL     OW73982  14.022  10.267  10.469  0.3167  0.2450  0.3380
18791SOL    HW173983  14.044  10.181  10.503  0.6271  1.1540  2.5678
18791SOL    HW273984  14.008  10.322  10.546 -3.2788  1.4106 -0.9116
18792SOL     OW73985   5.084   3.088   9.759 -0.1168 -0.3614 -0.4046
18792SOL    HW173986   5.135   3.035   9.820 -0.8787 -2.1803 -1.2956
18792SOL    HW273987   5.137   3.090   9.679  1.3609  2.8435  0.4885
18793SOL     OW73988  13.195   1.296   3.504 -0.1889 -0.0168 -0.4790
18793SOL    HW173989  13.192   1.202   3.523  0.9121  0.0581  0.1767
18793SOL    HW273990  13.104   1.323   3.502 -0.5654 -1.2632 -1.5673
18794SOL     OW73991   6.877   1.483   1.544  0.1349 -0.1917  0.1322
18794SOL    HW173992   6.954   1.539   1.541 -2.2866  3.5913  1.1460
18794SOL    HW273993   6.831   1.502   1.462 -1.5793  0.7381  1.2560
18795SOL     OW73994   5.811   7.260   1.739 -0.1569 -0.2011  0.1549
18795SOL    HW173995   5.842   7.344   1.771  0.7481 -0.6431  0.4933
18795SOL    HW273996   5.740   7.236   1.799  0.7186 -0.4590  1.1277
18796SOL     OW73997  12.923   6.861   2.780  0.2664 -0.1755 -0.8794
18796SOL    HW173998  12.915   6.918   2.704 -3.1747  0.7086 -0.0346
18796SOL    HW273999  12.905   6.918   2.855  0.9201 -1.5603  0.3948
18797SOL     OW74000   9.361   0.444   3.371 -0.0576  0.1821 -0.3221
18797SOL    HW174001   9.320   0.357   3.379 -0.0469 -0.0140 -1.9560
18797SOL    HW274002   9.292   0.499   3.334  0.1736  0.6792 -0.0210
18798SOL     OW74003   5.152   7.561   6.143 -0.1412  1.0012  0.4836
18798SOL    HW174004   5.088   7.587   6.209 -0.1271  0.2273  0.8116
18798SOL    HW274005   5.133   7.617   6.068 -1.6229  0.3641  0.3442
18799SOL     OW74006  13.421   3.097   6.357  0.2285  0.1893 -0.3855
18799SOL    HW174007  13.418   3.060   6.445  0.3530 -1.0725 -0.8986
18799SOL    HW274008  13.329   3.111   6.333  0.1883  0.3363 -0.1531
18800SOL     OW74009  10.281  10.815  13.928 -0.5551  0.0497  0.1528
18800SOL    HW174010  10.323  10.872  13.863 -1.3098 -0.4402 -0.7971
18800SOL    HW274011  10.190  10.845  13.930 -0.8643 -0.8626 -0.0591
18801SOL     OW74012  12.958   1.160   5.437  0.5323  0.5261 -0.2914
18801SOL    HW174013  12.902   1.232   5.406  0.8017  0.9549  0.2007
18801SOL    HW274014  13.038   1.203   5.466  1.6921 -0.2018 -2.2320
18802SOL     OW74015   6.588  11.213  10.887 -0.4805  0.7117  0.6141
18802SOL    HW174016   6.546  11.148  10.831  0.4747 -0.3093  1.0661
18802SOL    HW274017   6.656  11.252  10.832  0.4242 -0.2556  1.0249
18803SOL     OW74018   1.742   6.486   2.474 -0.0909  0.4976  0.2412
18803SOL    HW174019   1.808   6.549   2.506 -0.7458  1.8127 -0.8683
18803SOL    HW274020   1.659   6.519   2.509 -0.5236  0.6380 -0.8752
18804SOL     OW74021   9.243  10.777   1.736 -0.3779  0.7253 -0.4041
18804SOL    HW174022   9.231  10.729   1.818  0.0470  0.3478 -0.5621
18804SOL    HW274023   9.178  10.740   1.676 -0.1938  0.4912 -0.4603
18805SOL     OW74024   7.872   1.165   9.854 -0.7565  0.1476  1.1014
18805SOL    HW174025   7.872   1.122   9.769  0.1378 -1.5971  1.9390
18805SOL    HW274026   7.946   1.226   9.851 -1.9204  1.5969 -0.0237
18806SOL     OW74027   4.529   8.135   3.514  0.0358  0.5394  0.4585
18806SOL    HW174028   4.550   8.076   3.586  0.5487  0.8548  0.5757
18806SOL    HW274029   4.438   8.159   3.529 -0.9415 -1.9903 -0.8690
18807SOL     OW74030  13.461  12.619   4.842  0.4012 -0.2320  0.1601
18807SOL    HW174031  13.453  12.673   4.763 -0.8019 -0.6174 -0.0046
18807SOL    HW274032  13.415  12.669   4.910  1.2208 -0.0140  0.5673
18808SOL     OW74033   4.848  12.169   9.607  0.1647  0.1110  0.3540
18808SOL    HW174034   4.839  12.262   9.628 -1.2945  0.1046 -0.1264
18808SOL    HW274035   4.774  12.127   9.651 -0.2708 -0.5473 -0.9453
18809SOL     OW74036   0.849   1.166  11.592  0.0985 -0.5483  0.1449
18809SOL    HW174037   0.800   1.126  11.520  0.6159  2.6498 -2.2023
18809SOL    HW274038   0.941   1.153  11.567  0.2763  1.2905 -0.2819
18810SOL     OW74039   3.670  12.271   7.250  0.2962 -0.3738 -0.1867
18810SOL    HW174040   3.736  12.339   7.241 -0.0236  0.0948  0.9171
18810SOL    HW274041   3.683  12.215   7.173 -0.9038  2.1624 -2.3980
18811SOL     OW74042  14.026   3.639   4.420 -0.4000 -0.1106  0.2193
18811SOL    HW174043  13.995   3.729   4.413 -1.3935 -0.2181  2.4911
18811SOL    HW274044  14.082   3.638   4.498 -0.3759 -1.4449  0.2120
18812SOL     OW74045   6.705   7.709  10.269 -0.2746 -0.6888  0.4107
18812SOL    HW174046   6.619   7.738  10.239  1.1327  1.0911 -2.2509
18812SOL    HW274047   6.724   7.763  10.346 -2.0456 -2.0913  1.9100
18813SOL     OW74048  11.327  11.803   8.435 -0.3428 -0.1479  0.0551
18813SOL    HW174049  11.369  11.728   8.477 -1.4521  0.6118  2.7246
18813SOL    HW274050  11.293  11.768   8.352  0.5044 -2.1728  0.4952
18814SOL     OW74051  13.682   7.865   2.547  0.0143 -0.2866  0.0849
18814SOL    HW174052  13.719   7.805   2.612  1.6070 -0.7357 -1.1678
18814SOL    HW274053  13.754   7.922   2.523 -0.5012 -0.1899 -1.3491
18815SOL     OW74054   5.810   4.571   1.166 -0.2732 -0.2482 -0.2691
18815SOL    HW174055   5.786   4.589   1.257 -0.3682 -1.9471  0.0725
18815SOL    HW274056   5.779   4.647   1.117 -0.0379  0.7849  1.1423
18816SOL     OW74057   4.722  11.833   1.673  0.1332  0.5678 -0.5555
18816SOL    HW174058   4.720  11.900   1.604  0.2729  1.1547 -0.0050
18816SOL    HW274059   4.674  11.759   1.637  0.0228  0.9494 -1.2021
18817SOL     OW74060   5.453   9.724   0.216 -0.0491 -0.0687  0.1934
18817SOL    HW174061   5.481   9.811   0.187  0.8822 -0.8091 -1.2748
18817SOL    HW274062   5.455   9.671   0.136  0.0193 -1.5944  1.1696
18818SOL     OW74063   2.103   3.262  13.568 -0.6363  0.4560  0.6913
18818SOL    HW174064   2.163   3.314  13.513  0.3951 -1.4368 -0.0752
18818SOL    HW274065   2.053   3.210  13.505 -1.3513  0.2182  1.4481
18819SOL     OW74066  12.114   3.821   6.764 -0.2289 -0.3556 -0.1478
18819SOL    HW174067  12.093   3.860   6.849  0.9684  0.2229 -0.0926
18819SOL    HW274068  12.101   3.727   6.777 -0.5862 -0.2205  0.5157
18820SOL     OW74069   3.969   5.785  11.193 -0.3731  0.1507 -0.1518
18820SOL    HW174070   3.928   5.863  11.230 -1.6898 -0.7862  0.4564
18820SOL    HW274071   3.896   5.731  11.164  0.4318 -1.3936  0.5500
18821SOL     OW74072   6.620   1.958  13.784  0.1027 -0.3274 -0.3319
18821SOL    HW174073   6.526   1.964  13.770  0.1920  1.5881 -0.3512
18821SOL    HW274074   6.659   1.990  13.702  0.7228  0.6395  0.3099
18822SOL     OW74075   3.401   0.158   4.335  0.0556 -0.1129 -0.1980
18822SOL    HW174076   3.473   0.220   4.324  0.0841 -0.1708 -0.3329
18822SOL    HW274077   3.331   0.193   4.281 -1.1472  1.6874  2.3426
18823SOL     OW74078   8.033   9.361  11.762 -0.1976 -0.5118  0.0161
18823SOL    HW174079   8.102   9.312  11.716  2.0053  0.6404  1.8441
18823SOL    HW274080   8.015   9.435  11.705  0.3452 -0.6502 -0.3512
18824SOL     OW74081   5.925   5.653  12.798  0.3640 -0.2858  0.7466
18824SOL    HW174082   5.928   5.707  12.719 -0.2734 -0.8874  0.2872
18824SOL    HW274083   5.850   5.687  12.847  0.2334 -0.4531  0.6680
18825SOL     OW74084   6.655   7.804   5.967  0.2358  0.7051  0.1122
18825SOL    HW174085   6.737   7.794   5.918 -0.1016 -0.6312 -0.2159
18825SOL    HW274086   6.628   7.715   5.988 -1.3415  1.0902 -0.1277
18826SOL     OW74087  13.009   1.031   9.510 -0.1075  0.0951 -0.4724
18826SOL    HW174088  12.992   1.125   9.513  1.8825  0.4788 -0.3572
18826SOL    HW274089  12.956   1.000   9.436  1.0254  1.7326 -2.0561
18827SOL     OW74090  10.743   0.887  12.200 -0.1021 -0.1576  0.0150
18827SOL    HW174091  10.786   0.817  12.151 -0.9105 -0.8188  0.2275
18827SOL    HW274092  10.749   0.964  12.143  0.1245 -0.5903 -0.5541
18828SOL     OW74093   8.118   6.654   4.383  0.5039 -0.1979 -0.3672
18828SOL    HW174094   8.151   6.714   4.316  0.5540  0.6009  0.3419
18828SOL    HW274095   8.080   6.712   4.449  0.9427 -0.9311  0.5527
18829SOL     OW74096   9.597   0.955   7.452 -0.3090 -0.3967 -0.2768
18829SOL    HW174097   9.668   0.899   7.422 -0.3832 -0.3519 -0.5346
18829SOL    HW274098   9.582   0.928   7.543  0.0263 -0.4154 -0.2266
18830SOL     OW74099  13.663   7.467   5.236  0.2915 -0.0395 -0.4029
18830SOL    HW174100  13.735   7.529   5.226 -0.3217  0.9656  1.0635
18830SOL    HW274101  13.593   7.517   5.279 -0.1596 -1.7448  0.9959
18831SOL     OW74102  12.761   0.287   2.020  0.3516  0.2837 -0.0450
18831SOL    HW174103  12.774   0.214   1.959 -2.9644  0.4287 -1.1263
18831SOL    HW274104  12.809   0.260   2.099  2.9691 -0.9151 -1.8808
18832SOL     OW74105   4.091   5.562  12.275 -0.4695 -0.0301  0.6662
18832SOL    HW174106   4.131   5.504  12.340 -2.4947 -0.4567  1.6392
18832SOL    HW274107   4.142   5.642  12.279  2.1996 -1.5414 -0.4538
18833SOL     OW74108  10.609   6.514  13.094  0.1202 -0.0945  0.1368
18833SOL    HW174109  10.601   6.431  13.141  1.1994 -0.9860 -1.1734
18833SOL    HW274110  10.519   6.534  13.067 -0.0044 -1.5767 -0.6890
18834SOL     OW74111  12.161   0.975   0.929  0.3362 -0.1078  0.4644
18834SOL    HW174112  12.248   1.008   0.951 -0.4632  1.7098  1.0794
18834SOL    HW274113  12.134   1.026   0.853 -0.0633 -0.9240  0.0409
18835SOL     OW74114   9.621   0.703   4.238 -0.1662 -0.4751  0.1769
18835SOL    HW174115   9.641   0.609   4.242  0.3001 -0.5960 -2.6833
18835SOL    HW274116   9.707   0.746   4.239 -0.4008  0.0439  2.3615
18836SOL     OW74117  12.403  14.010   5.675 -0.3944 -0.1568  0.1292
18836SOL    HW174118  12.435  14.089   5.719  2.4316 -1.1459  0.0227
18836SOL    HW274119  12.445  14.011   5.589 -0.9555 -1.3748 -0.1837
18837SOL     OW74120   7.510   1.752  11.258 -0.4200  0.4850  0.1541
18837SOL    HW174121   7.571   1.812  11.216  0.7415 -0.1197  0.9228
18837SOL    HW274122   7.553   1.666  11.255 -0.9046  0.1695  1.3285
18838SOL     OW74123   9.441   1.282   0.052  0.1969 -0.6100  0.3593
18838SOL    HW174124   9.436   1.249   0.142 -0.7417 -1.5459  0.0011
18838SOL    HW274125   9.362   1.335   0.042 -0.7929 -2.1534 -0.4875
18839SOL     OW74126  13.081   7.077  10.302  0.2911  1.0536 -0.6292
18839SOL    HW174127  13.000   7.028  10.317  0.1554  1.9016  2.0756
18839SOL    HW274128  13.067   7.159  10.350  2.4279  1.5836 -0.8437
18840SOL     OW74129   3.616   4.306   6.589 -0.3345 -0.1856  0.1254
18840SOL    HW174130   3.640   4.236   6.528 -0.4180 -0.1078  0.0027
18840SOL    HW274131   3.699   4.351   6.607 -0.3598 -0.0124 -0.1783
18841SOL     OW74132  11.390  13.568  13.195  0.1532 -0.0568  0.3452
18841SOL    HW174133  11.338  13.648  13.191 -1.0624 -0.7855  0.9062
18841SOL    HW274134  11.474  13.592  13.156 -0.4515  1.2741 -0.2090
18842SOL     OW74135   8.856   5.654   2.838  0.1662 -0.0064 -0.0920
18842SOL    HW174136   8.768   5.622   2.818 -0.1983  0.9657 -0.1028
18842SOL    HW274137   8.844   5.746   2.860  1.3124  0.4453 -1.1849
18843SOL     OW74138   2.692   2.848  13.362  0.6565 -0.2566 -0.0530
18843SOL    HW174139   2.699   2.753  13.352  2.3825 -0.1768  0.1341
18843SOL    HW274140   2.679   2.861  13.456 -2.9542 -0.3942 -0.3693
18844SOL     OW74141   6.073  11.818  10.361 -0.4715 -0.6853 -0.3809
18844SOL    HW174142   6.003  11.839  10.422  1.1490  0.5494  1.1819
18844SOL    HW274143   6.095  11.902  10.320  1.3737 -0.6116  0.6523
18845SOL     OW74144   0.297   5.806  12.462 -0.0307  0.1688  0.1010
18845SOL    HW174145   0.304   5.795  12.367  1.0212  2.1703 -0.1084
18845SOL    HW274146   0.368   5.753  12.498 -0.7012 -0.9474 -0.1601
18846SOL     OW74147   3.405   4.033   3.255 -0.8002 -0.0670  0.1290
18846SOL    HW174148   3.428   4.035   3.162  1.7952  3.2629  0.6229
18846SOL    HW274149   3.461   3.965   3.292 -0.3859 -0.0660 -0.4797
18847SOL     OW74150   2.403   0.193  12.888  0.2448 -0.3523  0.1899
18847SOL    HW174151   2.419   0.104  12.920 -2.1382 -1.5685 -1.6978
18847SOL    HW274152   2.344   0.232  12.953 -2.4360 -1.8831 -1.1448
18848SOL     OW74153   8.784   0.352   0.248  0.2602  0.3546 -0.3845
18848SOL    HW174154   8.808   0.262   0.224  0.3965  0.6108 -1.2467
18848SOL    HW274155   8.748   0.389   0.167 -0.3578  0.8875  0.1271
18849SOL     OW74156   7.907  12.853   0.985  0.2130  0.0286  0.2093
18849SOL    HW174157   7.948  12.830   0.902 -0.5570  0.0208 -0.1727
18849SOL    HW274158   7.837  12.914   0.962 -0.6291 -0.7135  0.7379
18850SOL     OW74159   0.215  11.835   2.770 -0.4584 -0.5097 -0.0323
18850SOL    HW174160   0.304  11.867   2.754 -1.7551  3.4025 -0.3298
18850SOL    HW274161   0.209  11.827   2.865  0.6219 -2.5467 -0.0582
18851SOL     OW74162  10.233   8.667  11.535  0.0249  0.6125 -0.1410
18851SOL    HW174163  10.202   8.627  11.616 -1.4705  1.4153 -0.2866
18851SOL    HW274164  10.167   8.646  11.470  1.2592 -0.1117 -1.2130
18852SOL     OW74165   7.833  10.693   3.454  0.4037 -0.1118 -0.1004
18852SOL    HW174166   7.858  10.781   3.483  1.4040 -0.2314 -0.5663
18852SOL    HW274167   7.850  10.694   3.360 -1.6400 -0.1191 -0.5184
18853SOL     OW74168  11.968   2.564  11.691 -0.0490 -0.1588  0.4256
18853SOL    HW174169  11.943   2.554  11.599  1.7501  0.2681 -0.1684
18853SOL    HW274170  12.010   2.481  11.714 -0.8087 -0.3973  0.9954
18854SOL     OW74171   2.755   8.849   5.046  0.5383  0.0888 -0.3305
18854SOL    HW174172   2.834   8.902   5.057  2.1496 -2.5356  2.6894
18854SOL    HW274173   2.686   8.900   5.087  1.5012  0.9063  0.3287
18855SOL     OW74174   2.811   4.808   2.819  0.7695 -0.2561  0.1761
18855SOL    HW174175   2.876   4.877   2.806 -0.6432  0.7074 -2.5605
18855SOL    HW274176   2.759   4.838   2.894  0.8915  1.1176 -0.2615
18856SOL     OW74177   6.302  10.712   1.256  0.2201 -0.2364  0.1692
18856SOL    HW174178   6.295  10.769   1.333  0.6663  0.3767 -0.2265
18856SOL    HW274179   6.369  10.648   1.279 -1.4953 -1.7390  1.2891
18857SOL     OW74180   7.931   3.069  12.152 -0.4635 -0.1212 -0.4136
18857SOL    HW174181   8.024   3.082  12.135 -0.2971  1.0331  1.0975
18857SOL    HW274182   7.928   2.998  12.216 -0.4332  1.1295  1.0360
18858SOL     OW74183  10.913   4.077   1.344  0.6160  0.6691  0.2210
18858SOL    HW174184  10.849   4.064   1.415  1.2072 -0.7508  0.5275
18858SOL    HW274185  10.986   4.020   1.367 -0.2150 -1.9177 -2.7741
18859SOL     OW74186  12.474   6.926   9.188  0.6287 -0.1402  0.0553
18859SOL    HW174187  12.404   6.887   9.240 -1.1563  1.4006 -1.0650
18859SOL    HW274188  12.492   7.010   9.231  1.5896 -0.3671  0.1308
18860SOL     OW74189   6.107  13.333   3.825 -0.2985  0.7914  0.0244
18860SOL    HW174190   6.058  13.414   3.841 -2.0562 -0.0670 -0.7294
18860SOL    HW274191   6.129  13.336   3.732 -0.2459  0.4791  0.0244
18861SOL     OW74192   0.099   8.723   9.611 -0.6657  0.0210  0.0080
18861SOL    HW174193   0.105   8.680   9.696 -0.8014  2.2657  1.2392
18861SOL    HW274194   0.073   8.813   9.631 -0.2603  0.7608 -2.3785
18862SOL     OW74195   7.466  13.440  13.785  0.0891  0.4678 -0.2101
18862SOL    HW174196   7.391  13.388  13.756 -1.0463  1.9279 -0.0484
18862SOL    HW274197   7.467  13.515  13.725 -0.0458  1.6650  1.2100
18863SOL     OW74198   7.146   5.246   3.398 -0.4713  0.2869 -0.1585
18863SOL    HW174199   7.132   5.157   3.429 -0.5800  0.6529  0.8780
18863SOL    HW274200   7.218   5.239   3.335 -1.1897 -0.6791 -0.8881
18864SOL     OW74201   5.006  10.965   8.007 -0.7450 -0.1398  0.2593
18864SOL    HW174202   5.069  11.011   7.951 -2.8901  0.7763 -1.5546
18864SOL    HW274203   4.989  11.025   8.079 -1.8123  0.9917 -0.8904
18865SOL     OW74204   2.652   4.306   9.944 -0.3243 -0.2061  0.7454
18865SOL    HW174205   2.599   4.266  10.013 -0.7833  0.2713  0.6795
18865SOL    HW274206   2.701   4.375   9.989  0.3147 -0.7000  0.8207
18866SOL     OW74207  14.041   1.917  13.501 -0.2620  0.5627  0.2573
18866SOL    HW174208  14.111   1.979  13.481 -0.6882  0.6078 -1.2249
18866SOL    HW274209  14.047   1.851  13.432 -1.4659  0.3850  0.3048
18867SOL     OW74210   6.197  12.404  10.874 -0.7140 -0.0046  0.1014
18867SOL    HW174211   6.266  12.421  10.938  0.3138  0.7314 -1.1474
18867SOL    HW274212   6.126  12.462  10.899 -0.8844 -0.7101  1.3560
18868SOL     OW74213  12.258  10.155   8.742 -0.0892  0.2474  0.2333
18868SOL    HW174214  12.255  10.097   8.818  0.3566 -1.4638 -0.9858
18868SOL    HW274215  12.190  10.220   8.759 -1.4737 -1.3359  1.1301
18869SOL     OW74216   2.653   7.921  10.560 -0.0325  0.1973  0.5091
18869SOL    HW174217   2.720   7.872  10.513  0.6553  1.6396 -0.0556
18869SOL    HW274218   2.570   7.879  10.533  0.5388 -0.8553  0.3173
18870SOL     OW74219   8.906   3.373  11.167 -0.6308  0.6124 -0.2535
18870SOL    HW174220   8.955   3.397  11.246  0.7559 -0.4569 -0.7393
18870SOL    HW274221   8.825   3.423  11.173 -1.6724 -1.2126  3.0266
18871SOL     OW74222   5.297  10.864   0.632 -0.1064  0.3170  0.0733
18871SOL    HW174223   5.279  10.862   0.538  0.2528  1.5466 -0.0341
18871SOL    HW274224   5.382  10.819   0.641  1.2534  2.6097 -0.5642
18872SOL     OW74225  11.078  12.441   6.888  0.0853  0.3586 -0.1648
18872SOL    HW174226  11.060  12.535   6.896 -1.3775  0.0846  0.0571
18872SOL    HW274227  10.996  12.404   6.854  0.2717 -0.9864  0.7698
18873SOL     OW74228  13.793  13.841   4.445  0.3918  0.3054 -0.0633
18873SOL    HW174229  13.732  13.881   4.383  0.9247  1.8097  0.3483
18873SOL    HW274230  13.746  13.765   4.479 -0.1776 -0.1663 -1.7693
18874SOL     OW74231   4.322   8.118   4.282 -0.0835  0.2764 -0.3199
18874SOL    HW174232   4.386   8.047   4.277 -1.2977 -0.9202  0.3913
18874SOL    HW274233   4.324   8.145   4.374 -0.8454 -0.0308 -0.2057
18875SOL     OW74234   6.918   1.528   2.245 -0.6322  0.3636 -0.4611
18875SOL    HW174235   6.823   1.518   2.234 -0.6306  0.6120 -0.7161
18875SOL    HW274236   6.952   1.438   2.245 -1.0258  0.1868  1.1692
18876SOL     OW74237  11.525   8.135   0.168 -0.0736  0.0082  0.0601
18876SOL    HW174238  11.497   8.200   0.232  0.6748  2.0620 -1.5916
18876SOL    HW274239  11.458   8.137   0.100 -0.2191 -1.2517  0.1273
18877SOL     OW74240  12.014   6.896   2.014  0.0635 -0.4681 -0.0071
18877SOL    HW174241  11.925   6.877   1.986 -0.0246 -0.9280  0.5725
18877SOL    HW274242  12.064   6.818   1.990 -0.2167 -1.3105  2.0098
18878SOL     OW74243   8.952   4.789   3.511  0.0279  0.3576 -0.1272
18878SOL    HW174244   8.924   4.707   3.551  1.2633 -0.8199 -1.5426
18878SOL    HW274245   9.014   4.828   3.574  0.8395 -0.7325 -0.2300
18879SOL     OW74246   9.725  11.341   6.973  0.2682  0.3274  0.2186
18879SOL    HW174247   9.745  11.263   7.024  0.4710 -0.4718 -1.0553
18879SOL    HW274248   9.636  11.327   6.941  0.4903  0.3869 -0.4334
18880SOL     OW74249   8.878   1.183  14.031  0.2286 -0.3356  0.7708
18880SOL    HW174250   8.851   1.271  14.002  3.5346  0.8576  0.8617
18880SOL    HW274251   8.821   1.164  14.105 -2.5146  0.3932 -0.9819
18881SOL     OW74252   9.436  11.094   0.913  0.0706  0.7760 -0.5525
18881SOL    HW174253   9.463  11.005   0.889 -0.3504  0.2027  1.0193
18881SOL    HW274254   9.383  11.123   0.839 -0.5046 -0.6168 -0.7145
18882SOL     OW74255   2.499   0.386  13.246 -0.1852  0.1246 -0.0943
18882SOL    HW174256   2.520   0.300  13.282  0.4190  0.4385  0.3324
18882SOL    HW274257   2.418   0.373  13.197  0.1257 -0.7776 -0.3854
18883SOL     OW74258  13.507   6.305  11.116 -0.6540 -0.0545  0.2492
18883SOL    HW174259  13.561   6.377  11.148 -0.3481 -0.6914  1.2063
18883SOL    HW274260  13.568   6.231  11.110 -1.2994 -0.6426  0.8280
18884SOL     OW74261   9.841   5.897  13.821 -1.0273  0.2527  0.3034
18884SOL    HW174262   9.837   5.846  13.740 -3.0432 -0.7089  0.9235
18884SOL    HW274263   9.844   5.831  13.891 -1.6135  0.9996  1.0626
18885SOL     OW74264   9.623   1.018   8.277 -0.3948 -0.2883 -0.5869
18885SOL    HW174265   9.708   0.987   8.246  0.1697  0.7788 -0.1583
18885SOL    HW274266   9.642   1.059   8.362 -1.3543 -0.1056 -0.4453
18886SOL     OW74267   0.796  12.324   2.778  0.4865 -0.1689  0.3370
18886SOL    HW174268   0.859  12.395   2.784  0.1353  0.0737  1.4149
18886SOL    HW274269   0.753  12.323   2.863 -0.8255 -0.4507 -0.3001
18887SOL     OW74270   7.308   1.464  12.662 -0.3270  0.4315  0.7284
18887SOL    HW174271   7.220   1.437  12.688 -0.1197  0.8915  1.9735
18887SOL    HW274272   7.320   1.426  12.575 -2.0413  1.0123  0.2129
18888SOL     OW74273   1.999  10.471  13.745 -0.1794  0.0079 -0.0010
18888SOL    HW174274   1.949  10.486  13.665  1.7017  1.4573 -1.0112
18888SOL    HW274275   2.064  10.542  13.745 -0.0020 -0.0809  2.7280
18889SOL     OW74276   2.415  11.718   1.728 -0.3982  0.5186  0.2203
18889SOL    HW174277   2.475  11.775   1.679 -0.1276 -0.5018 -0.6873
18889SOL    HW274278   2.428  11.742   1.819  1.0133  0.7050 -0.0058
18890SOL     OW74279  10.121   6.450   5.313  0.5347  0.1565  0.1067
18890SOL    HW174280  10.037   6.410   5.335  0.6263  0.6438  1.4194
18890SOL    HW274281  10.112   6.541   5.339  0.4778  0.9625 -2.4453
18891SOL     OW74282   7.999   7.348   6.540 -0.0808  0.3861  0.1904
18891SOL    HW174283   7.989   7.434   6.499  0.6930  0.0716 -0.6979
18891SOL    HW274284   8.089   7.322   6.520 -0.7503 -1.2684 -0.8329
18892SOL     OW74285   8.651   2.730   4.236 -0.2026 -0.2915 -0.0211
18892SOL    HW174286   8.688   2.670   4.171  0.3118 -0.5856  0.5359
18892SOL    HW274287   8.677   2.817   4.206 -2.0930 -0.2074 -1.5769
18893SOL     OW74288   1.730   6.652   7.388  0.6562 -0.0576  0.1756
18893SOL    HW174289   1.755   6.734   7.431 -2.1781  0.7584  0.4425
18893SOL    HW274290   1.696   6.597   7.459 -1.2705  0.1660 -0.5053
18894SOL     OW74291   2.758   6.134   3.516  0.5251  0.4312 -0.1725
18894SOL    HW174292   2.843   6.092   3.531  0.3042  0.1081  0.1846
18894SOL    HW274293   2.761   6.213   3.570  0.8247  0.7262 -0.6158
18895SOL     OW74294   3.530   7.634   2.206  0.4034 -0.1934 -0.3826
18895SOL    HW174295   3.572   7.658   2.289 -0.2305  0.1215 -0.1478
18895SOL    HW274296   3.504   7.718   2.167 -1.3327 -0.4519  0.1759
18896SOL     OW74297   7.053   0.735   0.427 -0.0013  0.8658  0.0829
18896SOL    HW174298   6.958   0.729   0.438 -0.0177  1.6665  0.4310
18896SOL    HW274299   7.071   0.829   0.422  0.8847  0.7669  1.0406
18897SOL     OW74300   3.563   6.765  11.148  0.1977  0.5386 -0.2079
18897SOL    HW174301   3.576   6.692  11.087 -2.1500 -2.4471  2.4892
18897SOL    HW274302   3.512   6.829  11.098  0.9659 -0.3083 -2.2213
18898SOL     OW74303   4.400  10.895  11.709  0.0855  0.5940  0.0789
18898SOL    HW174304   4.445  10.811  11.703 -1.1621 -0.0042 -1.8955
18898SOL    HW274305   4.392  10.911  11.803 -0.8695 -2.1959  0.5566
18899SOL     OW74306   3.209  13.101  13.613 -0.6029 -0.2670 -0.1661
18899SOL    HW174307   3.251  13.152  13.544 -0.6804  0.3306  0.2220
18899SOL    HW274308   3.120  13.136  13.618 -0.9398 -1.0387 -0.4916
18900SOL     OW74309   1.645   8.270   3.383 -0.8156  0.4267 -0.4911
18900SOL    HW174310   1.551   8.253   3.374 -0.8640  0.2041  0.3414
18900SOL    HW274311   1.656   8.297   3.474 -0.2601  1.7784 -0.9391
18901SOL     OW74312  11.904   6.773  11.939  0.0099 -0.2998 -0.0031
18901SOL    HW174313  11.844   6.755  12.011  1.1279 -0.7597  0.8546
18901SOL    HW274314  11.862   6.735  11.862 -1.0919 -0.0111  0.4469
18902SOL     OW74315   6.389  13.819   4.741  0.0512  0.4259  0.1636
18902SOL    HW174316   6.422  13.891   4.795  0.4135  1.3048 -1.1920
18902SOL    HW274317   6.467  13.769   4.718 -0.1710 -0.2855  0.8919
18903SOL     OW74318  13.717  13.036   5.457  0.3282  0.5886  0.0681
18903SOL    HW174319  13.657  13.091   5.407  0.3266 -0.3286 -0.9714
18903SOL    HW274320  13.661  12.967   5.493  0.6420  0.0948 -0.3739
18904SOL     OW74321   6.965  12.992   6.606  0.6644  0.1192 -0.0505
18904SOL    HW174322   6.903  12.921   6.591  0.8655 -0.3377  1.1335
18904SOL    HW274323   6.990  13.021   6.519  0.1292 -0.8726 -0.5546
18905SOL     OW74324  13.563   3.047  11.081  0.3805 -0.5484 -0.1869
18905SOL    HW174325  13.570   3.099  11.161  0.2445  1.7108 -1.5757
18905SOL    HW274326  13.597   2.961  11.106 -0.1676 -0.1025  2.4313
18906SOL     OW74327   1.108  12.517   1.442 -0.5752  0.5084 -0.4475
18906SOL    HW174328   1.200  12.529   1.468 -0.3085 -0.6159 -0.8196
18906SOL    HW274329   1.058  12.535   1.522 -0.0928  1.8265 -0.4179
18907SOL     OW74330  10.129   0.161   3.394 -0.1015  0.4471  0.0936
18907SOL    HW174331  10.111   0.256   3.396  0.7434  0.7240 -2.3114
18907SOL    HW274332  10.084   0.130   3.316  2.1508 -0.5125 -0.9267
18908SOL     OW74333  11.174   0.195  13.943  0.2654 -0.6465 -0.1956
18908SOL    HW174334  11.154   0.174  14.034  1.2627 -1.8604 -0.2436
18908SOL    HW274335  11.180   0.110  13.899 -0.3578 -0.0811 -1.4481
18909SOL     OW74336  10.979   7.869   6.491  0.7885 -0.6780  0.0051
18909SOL    HW174337  11.057   7.906   6.449  1.1972 -0.1637  1.1779
18909SOL    HW274338  10.906   7.916   6.452  1.2895  1.4894  1.4694
18910SOL     OW74339  12.684   4.846   3.132  0.7953 -0.3974  0.0838
18910SOL    HW174340  12.761   4.811   3.178 -0.1183 -0.2951  1.7628
18910SOL    HW274341  12.681   4.938   3.157  0.6068 -0.1866 -0.6830
18911SOL     OW74342   6.284  13.260   1.675 -0.7193  0.1031 -0.2745
18911SOL    HW174343   6.207  13.275   1.621 -1.9604  1.1830  1.6628
18911SOL    HW274344   6.272  13.173   1.712 -1.4267  0.5434  0.5834
18912SOL     OW74345  13.045  13.792   7.867 -0.3684  0.0938  0.1421
18912SOL    HW174346  12.978  13.744   7.915 -1.5790  1.0159 -0.5759
18912SOL    HW274347  13.002  13.819   7.786  0.6220  1.3934  0.0243
18913SOL     OW74348  13.289   6.595   9.670 -0.5415 -0.3828 -0.5108
18913SOL    HW174349  13.212   6.628   9.624 -0.6727  1.2259  0.7652
18913SOL    HW274350  13.263   6.509   9.702 -1.7476  0.0445 -0.2887
18914SOL     OW74351   7.709   4.766  12.471 -0.2131  0.0793  0.0300
18914SOL    HW174352   7.775   4.835  12.471 -1.4133  1.2752 -1.0904
18914SOL    HW274353   7.691   4.749  12.379 -0.2234 -1.4896  0.2840
18915SOL     OW74354   9.523   3.763   9.260 -0.3210 -0.0083  0.1803
18915SOL    HW174355   9.559   3.851   9.271  0.9436 -0.6902  1.8963
18915SOL    HW274356   9.474   3.747   9.341  0.1397 -1.1599  0.2528
18916SOL     OW74357  10.547   2.766   2.443 -0.1129 -0.2239 -0.2328
18916SOL    HW174358  10.554   2.858   2.420 -0.4895 -0.4491 -1.3657
18916SOL    HW274359  10.636   2.733   2.438  0.0923  0.1705  0.6526
18917SOL     OW74360  13.933   5.922   4.876 -0.0074  0.0988 -0.7669
18917SOL    HW174361  14.010   5.976   4.893  0.8853 -1.2016 -0.4602
18917SOL    HW274362  13.930   5.912   4.781 -0.4003  0.9795 -0.8507
18918SOL     OW74363  13.522   8.788   7.080 -0.4674 -0.6449  0.2745
18918SOL    HW174364  13.557   8.822   6.998 -1.3867  1.5173  0.7102
18918SOL    HW274365  13.499   8.697   7.060 -0.6903 -0.1771 -1.8871
18919SOL     OW74366   7.508  10.326   0.238  0.9317  1.1594 -0.1284
18919SOL    HW174367   7.439  10.264   0.261  0.5066  1.3721 -0.8214
18919SOL    HW274368   7.583  10.298   0.292  0.2158  1.1615  0.9061
18920SOL     OW74369  11.391   4.318   6.799 -0.0801  0.0827  0.4247
18920SOL    HW174370  11.371   4.395   6.746  0.5277 -0.1061 -0.0793
18920SOL    HW274371  11.448   4.265   6.744 -0.1671 -0.5362  0.9278
18921SOL     OW74372   2.575  10.481   0.701  0.1073 -0.4902  0.0480
18921SOL    HW174373   2.576  10.573   0.673 -0.4254 -0.9402 -1.5903
18921SOL    HW274374   2.495  10.473   0.753  0.7092  0.1988  1.1160
18922SOL     OW74375   4.858   8.128   4.048  0.5493  0.1222 -0.0003
18922SOL    HW174376   4.871   8.209   3.997 -0.3934  0.5039  0.3471
18922SOL    HW274377   4.945   8.108   4.082  0.4432  2.2946  1.8176
18923SOL     OW74378   0.046  10.276   0.274 -0.3964  0.1959  0.3668
18923SOL    HW174379   0.012  10.238   0.194 -1.2799 -2.4766  1.8817
18923SOL    HW274380  -0.032  10.309   0.320 -0.2968 -0.9958  1.4241
18924SOL     OW74381   6.832   4.940  10.587 -0.0806 -0.2346 -0.2245
18924SOL    HW174382   6.822   4.889  10.507  1.4785 -1.2173  0.1629
18924SOL    HW274383   6.751   4.923  10.637 -0.3494 -0.9263 -0.8750
18925SOL     OW74384   6.809   1.799   4.557  0.2337  0.5584 -1.0123
18925SOL    HW174385   6.899   1.775   4.577 -0.0294 -0.2022 -0.7080
18925SOL    HW274386   6.811   1.829   4.467  0.7431  0.2790 -1.0925
18926SOL     OW74387  12.917  10.830  10.603  0.0799  0.5855  0.1915
18926SOL    HW174388  12.835  10.816  10.557  0.2607 -0.1611  0.0741
18926SOL    HW274389  12.978  10.768  10.563  0.4655  0.5239  0.8505
18927SOL     OW74390   0.348  11.271   7.092  0.6307 -0.3599  0.1541
18927SOL    HW174391   0.324  11.179   7.084  1.5701 -0.5492 -0.6766
18927SOL    HW274392   0.266  11.319   7.080  0.5342 -0.9893 -2.1604
18928SOL     OW74393   4.054   1.466   5.621  0.3149 -0.0007 -1.0324
18928SOL    HW174394   4.072   1.538   5.560 -1.1375  0.0261 -1.4529
18928SOL    HW274395   4.106   1.393   5.587  0.2916  0.2975 -1.7429
18929SOL     OW74396   9.765  12.821  11.018  0.0160 -0.1126  1.0382
18929SOL    HW174397   9.774  12.812  10.923  0.9321  0.2729  1.0756
18929SOL    HW274398   9.671  12.827  11.033 -0.0876  1.8695 -0.0470
18930SOL     OW74399   0.409  13.769   0.446 -0.2920 -0.0048  0.4049
18930SOL    HW174400   0.411  13.683   0.488 -0.1489  0.2150  0.8591
18930SOL    HW274401   0.365  13.825   0.510 -3.7891 -0.5058 -1.3380
18931SOL     OW74402  13.732  12.528  12.820  0.4748  0.3199  0.3128
18931SOL    HW174403  13.785  12.578  12.882  0.7030 -0.1772  0.5243
18931SOL    HW274404  13.776  12.540  12.735  0.6846  0.2499  0.4121
18932SOL     OW74405   6.168   4.791   1.235 -0.1213  0.0681 -0.8502
18932SOL    HW174406   6.134   4.842   1.308 -1.0245 -2.4261  0.6209
18932SOL    HW274407   6.092   4.779   1.177 -1.0643 -2.7009  0.7667
18933SOL     OW74408   6.712   4.610   3.881 -0.7865  0.2969  0.5930
18933SOL    HW174409   6.651   4.552   3.836 -0.0599 -0.1506  0.1655
18933SOL    HW274410   6.657   4.662   3.939 -1.7509  0.8667 -0.7702
18934SOL     OW74411   4.008   8.038   4.725 -0.1441 -0.3648  0.3544
18934SOL    HW174412   4.012   8.103   4.655  1.6556 -0.2535  0.5143
18934SOL    HW274413   4.024   7.954   4.681 -3.2576 -0.9168  0.0124
18935SOL     OW74414  11.955   8.029   8.239  0.7806 -0.1175  0.2947
18935SOL    HW174415  11.999   8.043   8.155  0.3994 -3.0416 -0.5019
18935SOL    HW274416  12.024   7.993   8.296  0.3702 -0.9144  0.2979
18936SOL     OW74417  11.931  10.498   4.660 -0.1320  0.2560 -0.4857
18936SOL    HW174418  11.883  10.503   4.578  0.7919  1.2238 -0.9951
18936SOL    HW274419  12.018  10.466   4.635  0.1538  0.5449  0.1169
18937SOL     OW74420   7.202   3.967   0.127  0.4741 -0.0724 -0.5413
18937SOL    HW174421   7.242   3.986   0.043  1.8991  0.3021  0.1837
18937SOL    HW274422   7.275   3.937   0.182 -0.2660  0.4422  0.7806
18938SOL     OW74423  11.693   2.866   6.658 -0.3113 -0.2145 -0.1906
18938SOL    HW174424  11.666   2.954   6.686  1.5642  0.7396 -1.1909
18938SOL    HW274425  11.763   2.842   6.719 -0.3103 -0.6964 -0.3787
18939SOL     OW74426  12.041   1.197   4.090  0.5773  0.0473  0.9259
18939SOL    HW174427  11.976   1.170   4.154  0.7495  0.4877  1.2956
18939SOL    HW274428  11.991   1.225   4.014  0.4123 -2.2491  0.1222
18940SOL     OW74429   9.456   4.748   3.064  0.2506  0.1513 -0.1251
18940SOL    HW174430   9.491   4.813   3.002  0.3383  0.1937 -0.0321
18940SOL    HW274431   9.406   4.800   3.127  1.4140  0.2769  0.7159
18941SOL     OW74432  12.112   1.866  10.656 -0.5101 -0.9314  0.2931
18941SOL    HW174433  12.110   1.837  10.747 -1.9824  2.4544  1.5392
18941SOL    HW274434  12.197   1.908  10.645 -0.7470 -0.3778  0.5112
18942SOL     OW74435   1.631   1.082   7.909  0.4905 -0.0242  0.0037
18942SOL    HW174436   1.562   1.133   7.951  1.9952  1.5431  0.7016
18942SOL    HW274437   1.684   1.147   7.863  2.1332 -1.0121  0.4172
18943SOL     OW74438  12.554   0.652  13.210  0.5000 -0.1312  0.5324
18943SOL    HW174439  12.530   0.704  13.287 -0.4682  0.3962 -0.1021
18943SOL    HW274440  12.634   0.693  13.178 -0.3406  1.1080 -0.0561
18944SOL     OW74441   9.381  11.523   7.798  0.0271  0.0170 -0.3832
18944SOL    HW174442   9.360  11.430   7.789 -0.5939 -0.0677  1.5509
18944SOL    HW274443   9.328  11.566   7.731  0.7310 -1.0485 -1.6618
18945SOL     OW74444   5.723   5.141   8.858  0.7956  0.1512  0.3509
18945SOL    HW174445   5.757   5.225   8.827  1.4196 -0.0870  0.3770
18945SOL    HW274446   5.716   5.087   8.780  0.3108  0.2474  0.3212
18946SOL     OW74447  11.347   0.571  10.143  0.2262  0.1767  0.3754
18946SOL    HW174448  11.310   0.658  10.126 -1.0274 -0.1269  1.3921
18946SOL    HW274449  11.333   0.522  10.062 -2.1019 -0.0670  0.8690
18947SOL     OW74450   5.263   1.272   8.329 -0.4895  0.3317  0.3058
18947SOL    HW174451   5.305   1.325   8.261 -1.3685 -0.3210 -0.7768
18947SOL    HW274452   5.169   1.286   8.316 -0.7059 -0.6967  0.6557
18948SOL     OW74453  13.048   0.757   3.065  0.0908 -0.3771  0.5436
18948SOL    HW174454  13.068   0.819   3.135  1.5129 -0.1969  0.0129
18948SOL    HW274455  12.973   0.707   3.098 -0.7790  1.2666  1.1889
18949SOL     OW74456  11.848   4.136   6.536  0.2225  0.4503 -0.9206
18949SOL    HW174457  11.817   4.118   6.447  0.4301  2.7486 -1.5103
18949SOL    HW274458  11.790   4.083   6.592 -0.6574 -0.1457 -2.3349
18950SOL     OW74459   3.648   7.568  11.384 -0.2913  0.2425 -0.9121
18950SOL    HW174460   3.709   7.551  11.312 -0.2779  0.4925 -0.9610
18950SOL    HW274461   3.667   7.658  11.410  0.1005 -0.0404 -0.2111
18951SOL     OW74462   3.159   7.139   0.439 -0.2633  0.0063  0.3932
18951SOL    HW174463   3.122   7.226   0.457 -3.1350 -1.3480  1.8182
18951SOL    HW274464   3.132   7.119   0.350 -2.2686 -0.5218  1.0551
18952SOL     OW74465   2.608   7.945   0.719  0.0054 -0.3493  0.3673
18952SOL    HW174466   2.545   7.926   0.789 -0.6609 -0.3145 -0.2112
18952SOL    HW274467   2.660   7.865   0.711 -0.4856 -0.6669  0.3201
18953SOL     OW74468   0.653   4.203  12.929  0.2502  0.8850 -0.0508
18953SOL    HW174469   0.703   4.157  12.996 -1.3579 -0.2435  0.4522
18953SOL    HW274470   0.687   4.170  12.846 -0.1172 -0.4310  0.2907
18954SOL     OW74471   9.670   5.073  14.059  0.1712 -0.3709 -0.3467
18954SOL    HW174472   9.692   4.991  14.102  2.2110 -0.3389 -1.2275
18954SOL    HW274473   9.675   5.139  14.129  2.1171 -0.5119 -0.3175
18955SOL     OW74474  11.403  13.091   1.007  0.1530 -0.1934  0.6032
18955SOL    HW174475  11.313  13.059   1.006  0.3246 -0.6885  0.2300
18955SOL    HW274476  11.428  13.091   1.099  0.3020 -1.5985  0.5841
18956SOL     OW74477  11.905   6.474   8.660  0.1579 -0.1762 -0.2371
18956SOL    HW174478  11.852   6.507   8.732 -0.1388 -0.1892 -0.4462
18956SOL    HW274479  11.991   6.458   8.699  0.5910  1.6913 -0.3179
18957SOL     OW74480   0.859   0.560   8.539 -0.3090 -0.0691  0.2342
18957SOL    HW174481   0.859   0.654   8.560 -1.9756  0.1814 -0.6938
18957SOL    HW274482   0.838   0.556   8.446  2.5840 -1.3050 -0.4750
18958SOL     OW74483   1.022   9.098   4.701  0.0568  0.1135  0.2474
18958SOL    HW174484   0.950   9.037   4.713  0.3532  0.2303  3.1734
18958SOL    HW274485   1.087   9.071   4.765  1.0183  2.2971  0.2539
18959SOL     OW74486   7.538   5.328  12.815  0.3030 -0.5198 -0.3547
18959SOL    HW174487   7.455   5.358  12.776  0.3161  0.8674  0.6247
18959SOL    HW274488   7.519   5.322  12.909  1.5881  0.8318  0.0140
18960SOL     OW74489   8.716   9.400   3.753  0.1827 -0.2011  0.3032
18960SOL    HW174490   8.668   9.428   3.675  0.2587 -0.9347 -0.0220
18960SOL    HW274491   8.747   9.481   3.793 -0.7282  0.2421  0.1358
18961SOL     OW74492  10.574   8.659   7.566  0.1586  0.7124 -0.0563
18961SOL    HW174493  10.532   8.733   7.609  0.7116  0.8264  0.2924
18961SOL    HW274494  10.648   8.697   7.519 -0.8808  0.7130 -1.7871
18962SOL     OW74495   6.008   6.795   4.000 -0.0183 -0.4045 -0.4468
18962SOL    HW174496   6.009   6.843   4.082  1.0271 -0.4777 -0.4063
18962SOL    HW274497   5.995   6.861   3.933 -0.7007 -0.3247 -0.2418
18963SOL     OW74498   6.763   2.104   4.221 -0.1221 -0.3164  0.1812
18963SOL    HW174499   6.784   2.011   4.230 -0.7951 -0.5466 -0.4928
18963SOL    HW274500   6.819   2.148   4.285  0.2591 -1.1767  0.4514
18964SOL     OW74501   9.063  11.364   0.187 -0.0022  0.1887 -0.4366
18964SOL    HW174502   9.065  11.460   0.191 -2.2037  0.2388  0.6887
18964SOL    HW274503   9.001  11.345   0.117  1.2841 -0.4777 -1.4475
18965SOL     OW74504   6.298   1.301   7.837  0.5333 -0.0940 -0.0657
18965SOL    HW174505   6.317   1.352   7.758  0.1023 -1.2469 -0.9484
18965SOL    HW274506   6.383   1.290   7.880  0.9815 -0.4846 -1.0294
18966SOL     OW74507   9.436   2.056  11.832 -0.6163  0.6509 -0.4897
18966SOL    HW174508   9.439   2.061  11.736 -0.1666  1.3755 -0.4467
18966SOL    HW274509   9.343   2.044  11.852 -0.6900  0.2820 -1.0218
18967SOL     OW74510  13.477  10.548   5.283 -0.8511  0.1619  0.2521
18967SOL    HW174511  13.460  10.589   5.368  0.9608 -1.0765  1.2917
18967SOL    HW274512  13.457  10.455   5.296  0.5152 -0.2435 -0.2969
18968SOL     OW74513   4.116  10.287   9.800 -0.5948 -0.2431 -0.5421
18968SOL    HW174514   4.052  10.298   9.730 -2.4131  0.7186  1.1509
18968SOL    HW274515   4.191  10.339   9.772  0.0360 -2.3306 -3.1234
18969SOL     OW74516   2.301   6.167   5.557 -0.6137 -0.2146  0.6691
18969SOL    HW174517   2.394   6.156   5.539 -0.8711 -1.2368 -0.1499
18969SOL    HW274518   2.276   6.245   5.507 -0.1952  0.0866  0.9240
18970SOL     OW74519   7.020   2.572  11.528 -0.0974 -1.1164 -0.8078
18970SOL    HW174520   7.005   2.496  11.472 -0.9888 -1.7716  0.2814
18970SOL    HW274521   6.950   2.569  11.593  0.1390  0.3664 -0.4413
18971SOL     OW74522   7.336   5.266  11.928 -0.4769 -0.6949 -0.2612
18971SOL    HW174523   7.293   5.274  11.843  0.8183 -2.1109 -1.1144
18971SOL    HW274524   7.384   5.183  11.922  1.7718  0.4521  0.8768
18972SOL     OW74525   1.329   6.364   1.469  0.2406 -0.2097  0.1978
18972SOL    HW174526   1.301   6.423   1.539  0.9554  1.5956 -0.9657
18972SOL    HW274527   1.301   6.407   1.389  1.7740 -0.9005 -0.7459
18973SOL     OW74528   7.783   7.842   0.085 -0.1645 -0.3929 -0.1466
18973SOL    HW174529   7.865   7.857   0.039 -0.3756  2.0215  0.1620
18973SOL    HW274530   7.806   7.852   0.178 -0.7918  0.2193 -0.0551
18974SOL     OW74531   3.373   0.572   7.754  0.1603 -0.2608  0.0741
18974SOL    HW174532   3.292   0.577   7.702  1.1821  0.9402 -1.4953
18974SOL    HW274533   3.380   0.657   7.796  0.2386 -0.6296  0.8251
18975SOL     OW74534  11.071  13.559   7.199 -0.2221  0.6661 -0.1439
18975SOL    HW174535  11.064  13.653   7.216  2.0135  1.0244 -0.8039
18975SOL    HW274536  11.136  13.528   7.262 -0.3200 -0.2608 -0.4827
18976SOL     OW74537   1.399   5.121   2.280  0.0747  0.0719 -0.2441
18976SOL    HW174538   1.427   5.212   2.292 -1.0190  0.3113  0.6543
18976SOL    HW274539   1.446   5.073   2.348  0.5039 -0.0102 -0.5945
18977SOL     OW74540   4.586  13.285   6.218 -0.0685 -0.1891  0.0358
18977SOL    HW174541   4.635  13.222   6.164  0.7713 -0.1421  0.7269
18977SOL    HW274542   4.499  13.246   6.226 -0.4716  0.1905 -2.0070
18978SOL     OW74543   5.491   4.331   2.530 -0.0542  0.3440 -0.3011
18978SOL    HW174544   5.399   4.315   2.509 -0.3517  0.5030  0.7847
18978SOL    HW274545   5.530   4.244   2.536 -0.7806  0.1006  1.8579
18979SOL     OW74546  11.274   9.633  14.083  0.2275  0.1734 -0.2187
18979SOL    HW174547  11.211   9.599  14.020  0.4711  0.6076 -0.7036
18979SOL    HW274548  11.283   9.726  14.061  0.6631  0.2273  0.1581
18980SOL     OW74549  13.693  13.010  11.938  0.2916  0.3268 -0.3380
18980SOL    HW174550  13.697  12.923  11.978 -0.0169  0.6822  0.4876
18980SOL    HW274551  13.742  13.001  11.856 -0.0651 -0.7196 -0.4493
18981SOL     OW74552  13.787   7.116  11.154  0.2494 -0.4780 -0.5641
18981SOL    HW174553  13.868   7.090  11.198  0.1221  0.3263  0.1694
18981SOL    HW274554  13.761   7.197  11.198 -0.2774 -0.0407 -1.6410
18982SOL     OW74555   5.478   6.186   1.950 -0.1725  0.3495 -0.5170
18982SOL    HW174556   5.427   6.262   1.924 -2.6731 -0.8238  0.6058
18982SOL    HW274557   5.521   6.213   2.032  1.0925  1.3459 -1.4722
18983SOL     OW74558  12.356   2.970   3.167 -0.0984 -0.0336  0.4920
18983SOL    HW174559  12.287   2.920   3.212 -0.7558 -0.1519 -0.6016
18983SOL    HW274560  12.408   2.903   3.123 -0.4563  0.1821 -0.2642
18984SOL     OW74561   5.780   0.977   7.804  0.1160 -0.3902 -0.7347
18984SOL    HW174562   5.851   1.036   7.778  1.5672 -2.2546 -1.3100
18984SOL    HW274563   5.764   0.924   7.725  1.0078 -2.7391  0.5533
18985SOL     OW74564   0.485   3.093  10.314  0.1474 -0.2275 -0.4500
18985SOL    HW174565   0.562   3.042  10.289 -0.2245  0.0563 -2.3739
18985SOL    HW274566   0.492   3.103  10.409  1.4001 -1.9150 -0.3187
18986SOL     OW74567   3.917   6.875   4.156 -0.5468  0.1209  0.1308
18986SOL    HW174568   3.990   6.923   4.118 -0.9822 -0.7176 -1.8654
18986SOL    HW274569   3.865   6.942   4.201  0.7593  0.9083  0.5201
18987SOL     OW74570   7.598   4.197  14.081 -0.4485 -0.0957  0.1374
18987SOL    HW174571   7.602   4.102  14.080 -0.3279 -0.1166  1.1563
18987SOL    HW274572   7.689   4.225  14.091 -0.5528  0.0984  0.5766
18988SOL     OW74573   3.278   6.470   8.305  0.3112  0.1912 -0.1283
18988SOL    HW174574   3.312   6.558   8.324  1.2197  0.0604 -1.0673
18988SOL    HW274575   3.262   6.431   8.391  1.8521  0.5313  0.3393
18989SOL     OW74576   7.548   2.641   7.439 -0.3924  0.6322  0.1607
18989SOL    HW174577   7.481   2.674   7.379 -0.9903 -0.1045  0.4093
18989SOL    HW274578   7.592   2.571   7.391 -0.0047  0.8981  0.1176
18990SOL     OW74579   9.964  10.619  13.098  0.1098 -0.1427  0.1974
18990SOL    HW174580   9.946  10.536  13.055 -0.4851 -0.3289  0.7934
18990SOL    HW274581   9.886  10.672  13.082  1.0465  0.8457 -1.3963
18991SOL     OW74582   7.156   2.100   5.503  0.3943  0.6443 -0.2394
18991SOL    HW174583   7.250   2.096   5.523  0.3427  1.1205  0.1130
18991SOL    HW274584   7.149   2.072   5.412  0.7377 -0.7463  0.1240
18992SOL     OW74585   7.988   9.946   6.076  0.1381  0.3677 -0.4329
18992SOL    HW174586   8.073   9.990   6.080  0.0710  0.7893 -2.5797
18992SOL    HW274587   7.926  10.012   6.108  0.4079  0.7042 -0.5948
18993SOL     OW74588   1.068   6.824   1.945 -0.1103  0.1052 -0.3470
18993SOL    HW174589   1.043   6.879   1.871 -0.0044  0.7421  0.0782
18993SOL    HW274590   1.164   6.826   1.946 -0.1037 -0.1421 -0.3677
18994SOL     OW74591   2.815   6.069   1.563  0.3373 -0.0492  0.1077
18994SOL    HW174592   2.900   6.046   1.601  1.4631  2.6486 -0.6028
18994SOL    HW274593   2.751   6.025   1.619  2.1228 -0.7850  1.6623
18995SOL     OW74594  12.062   8.635   8.669 -0.2548 -0.0637  0.0542
18995SOL    HW174595  12.027   8.722   8.690 -1.0458 -0.6722  1.4331
18995SOL    HW274596  11.987   8.588   8.632  0.6117  0.3385 -2.4080
18996SOL     OW74597   1.783   5.059   8.629  0.4123  0.2133 -0.0892
18996SOL    HW174598   1.770   5.152   8.611 -0.7493  0.1474  0.3322
18996SOL    HW274599   1.843   5.029   8.561  3.0533  1.8500  1.3459
18997SOL     OW74600  13.884   8.572   8.178 -0.1085 -0.4376  0.4152
18997SOL    HW174601  13.792   8.597   8.190 -0.1950 -0.8791  0.7388
18997SOL    HW274602  13.893   8.493   8.231 -0.0818 -1.6162 -1.2759
18998SOL     OW74603   3.818   3.194  10.384  0.6253 -0.2711 -0.0248
18998SOL    HW174604   3.786   3.108  10.359  0.8916 -0.8074  1.3575
18998SOL    HW274605   3.888   3.177  10.447 -1.3859  0.9142  2.7489
18999SOL     OW74606   1.333   2.107  11.790 -0.1431  0.0195 -0.0395
18999SOL    HW174607   1.342   2.182  11.731  1.1319 -0.3356 -0.3224
18999SOL    HW274608   1.246   2.117  11.829 -0.9711  0.3332 -1.8730
19000SOL     OW74609   7.719   4.876   9.030 -0.5221 -0.1095  0.1655
19000SOL    HW174610   7.644   4.873   8.971  0.2187  0.4690 -0.8440
19000SOL    HW274611   7.698   4.945   9.093  0.1345  1.7761 -1.5631
19001SOL     OW74612  10.363   4.193   3.104  0.0015 -0.3467  0.5787
19001SOL    HW174613  10.363   4.275   3.154  0.3093 -0.5924  0.9873
19001SOL    HW274614  10.304   4.136   3.152 -0.9140 -0.0797 -0.1951
19002SOL     OW74615   7.388   9.131   8.119 -0.4417  0.5395 -1.2862
19002SOL    HW174616   7.343   9.047   8.108 -0.0664  0.4216 -1.9307
19002SOL    HW274617   7.464   9.125   8.062  1.6489 -0.1512  1.3544
19003SOL     OW74618  13.073   4.958   4.315  0.2009  0.1850  0.2923
19003SOL    HW174619  13.025   4.952   4.232  0.6208  0.5076  0.0284
19003SOL    HW274620  13.052   5.045   4.349  0.6947  0.3748  0.1174
19004SOL     OW74621  13.362   1.605   7.064  0.2124  0.1034 -0.1993
19004SOL    HW174622  13.413   1.533   7.026  0.1100 -0.5121  0.7977
19004SOL    HW274623  13.286   1.562   7.103  0.1755  0.7430  0.4561
19005SOL     OW74624   3.407   2.583  11.391  0.0630  0.1323  0.3469
19005SOL    HW174625   3.413   2.645  11.318 -2.1827  0.9473  0.7465
19005SOL    HW274626   3.362   2.633  11.460 -0.5824 -1.5267  1.1736
19006SOL     OW74627   8.688   6.007  13.072 -0.2815 -0.3094 -0.0627
19006SOL    HW174628   8.714   5.924  13.110 -0.4481 -1.0792 -1.5581
19006SOL    HW274629   8.609   5.987  13.022  0.4185  0.4380 -1.5293
19007SOL     OW74630  11.809  13.941  10.276  0.1112 -0.3504 -0.5033
19007SOL    HW174631  11.841  14.027  10.301  1.4461 -0.5356 -1.4990
19007SOL    HW274632  11.884  13.898  10.235 -0.3924 -2.1457  0.3361
19008SOL     OW74633   3.585  13.687   4.190 -0.1243  0.8610 -0.4042
19008SOL    HW174634   3.626  13.623   4.131 -0.8518  0.2381 -0.2422
19008SOL    HW274635   3.583  13.644   4.275 -0.4154  1.1902 -0.2421
19009SOL     OW74636   1.510  13.961  13.880  0.6929 -0.1206  0.0389
19009SOL    HW174637   1.532  13.871  13.903 -0.7628 -0.4194  0.3019
19009SOL    HW274638   1.543  14.014  13.953 -1.4537 -0.7885  1.5795
19010SOL     OW74639  13.480   2.003  12.687 -0.0581  0.1933 -0.0492
19010SOL    HW174640  13.452   1.978  12.599  0.5448  0.3786 -0.2942
19010SOL    HW274641  13.464   2.098  12.691 -2.0667 -0.1289  0.7779
19011SOL     OW74642   4.652  12.056   5.469 -0.0058 -0.0867 -0.0964
19011SOL    HW174643   4.644  12.043   5.564 -0.9449  0.4467 -0.0953
19011SOL    HW274644   4.590  11.995   5.430  0.0380  0.0239 -0.3458
19012SOL     OW74645   9.624   1.979   0.897 -0.0032  0.3907 -0.0657
19012SOL    HW174646   9.611   1.932   0.979 -0.3114  1.6500  0.6276
19012SOL    HW274647   9.598   1.915   0.830  0.7640 -0.8388  0.7547
19013SOL     OW74648   1.839  12.723   8.922 -0.3683  0.3161  0.4255
19013SOL    HW174649   1.933  12.706   8.926 -0.6645 -1.4205  1.1440
19013SOL    HW274650   1.825  12.760   8.835  0.8472 -0.3323 -0.0704
19014SOL     OW74651   2.035  10.662   5.631  0.1499 -0.4176  0.5657
19014SOL    HW174652   1.947  10.691   5.655  0.6534  0.1841  1.7898
19014SOL    HW274653   2.066  10.615   5.709  1.0725 -0.2381  0.3205
19015SOL     OW74654  11.715   7.344   2.969  0.2025 -0.3260  0.6111
19015SOL    HW174655  11.630   7.387   2.957  0.0307 -0.6508  0.6401
19015SOL    HW274656  11.712   7.268   2.910  0.6385 -0.1068  0.2992
19016SOL     OW74657   5.224   1.753  11.043 -0.4706  0.6253 -0.0436
19016SOL    HW174658   5.223   1.798  10.958  0.7202  0.3779 -0.2049
19016SOL    HW274659   5.267   1.814  11.102  0.7861 -0.1082 -0.1679
19017SOL     OW74660   8.201   2.713   5.022 -0.1268 -0.3405  0.0919
19017SOL    HW174661   8.191   2.667   5.106  0.2079 -0.9563 -0.1946
19017SOL    HW274662   8.269   2.778   5.038 -1.1432  0.5918  0.7169
19018SOL     OW74663   5.012   1.605   1.615 -0.3722  0.1859  0.5035
19018SOL    HW174664   5.040   1.524   1.571  0.8115  0.9542 -0.1945
19018SOL    HW274665   4.929   1.627   1.573  0.0273  0.1196 -0.3459
19019SOL     OW74666   7.879  11.106   1.640  0.2284 -0.1825 -0.3243
19019SOL    HW174667   7.792  11.138   1.617  0.3096  0.5186  0.2789
19019SOL    HW274668   7.864  11.049   1.716  0.4083  0.9988  0.6427
19020SOL     OW74669   6.331   8.851   4.105  0.0569 -0.7132 -0.0548
19020SOL    HW174670   6.378   8.786   4.053 -0.8153 -2.1312  0.8374
19020SOL    HW274671   6.242   8.850   4.071  0.4247  1.4201 -1.2476
19021SOL     OW74672   0.834  10.458  10.211  0.0359 -1.0531 -0.2964
19021SOL    HW174673   0.754  10.498  10.176 -0.8656 -1.6441  1.0270
19021SOL    HW274674   0.827  10.365  10.187  0.7237 -0.9814 -0.8372
19022SOL     OW74675   2.489   2.767  11.910 -0.1362  0.0622 -0.3629
19022SOL    HW174676   2.410   2.779  11.856 -0.0683 -0.6245 -0.6163
19022SOL    HW274677   2.559   2.752  11.847 -0.1140 -1.0798 -0.0813
19023SOL     OW74678   4.713  12.479   8.078 -0.0621  0.3328  0.3553
19023SOL    HW174679   4.716  12.575   8.081  1.8297  0.3151  0.2980
19023SOL    HW274680   4.736  12.452   8.166 -0.0101 -0.0805  0.2138
19024SOL     OW74681   8.744   1.904   0.625 -0.7189 -0.0818  0.0821
19024SOL    HW174682   8.771   1.813   0.612  0.3304  0.2690 -0.3729
19024SOL    HW274683   8.759   1.945   0.540 -0.2963  0.7177  0.5342
19025SOL     OW74684   2.694  11.273   0.589  0.7408  0.0975 -0.2320
19025SOL    HW174685   2.693  11.282   0.684 -1.7300  0.1363 -0.1986
19025SOL    HW274686   2.744  11.348   0.557  2.6062 -0.5367  1.0240
19026SOL     OW74687   2.755  11.604  13.303  0.6918 -0.8451  0.4850
19026SOL    HW174688   2.848  11.584  13.294  1.0081  0.6322  0.2458
19026SOL    HW274689   2.736  11.594  13.396  0.4941 -3.4400  0.2480
19027SOL     OW74690  10.071   1.986   6.992  0.2689  0.3328  0.0206
19027SOL    HW174691  10.034   2.067   7.028  1.0139  0.3462  0.7857
19027SOL    HW274692  10.165   1.997   7.001  0.4305 -0.1497 -0.9261
19028SOL     OW74693  12.528  12.084  12.333  0.8473  0.9156 -0.0825
19028SOL    HW174694  12.472  12.144  12.382  0.0635  0.0558  0.1084
19028SOL    HW274695  12.610  12.082  12.382 -0.4230 -1.1309  2.2139
19029SOL     OW74696   5.718  13.480   2.846 -0.2297  0.4254 -0.3668
19029SOL    HW174697   5.722  13.426   2.766  1.2500  0.4569 -0.3502
19029SOL    HW274698   5.789  13.446   2.900 -0.8205  0.8331  0.6766
19030SOL     OW74699  11.364  13.075   5.378  0.6179 -0.2845  0.2442
19030SOL    HW174700  11.384  12.995   5.329  0.3659 -0.4197  0.3630
19030SOL    HW274701  11.395  13.146   5.320 -1.4626 -0.3424 -1.0418
19031SOL     OW74702   3.295   7.339  12.607  0.2679  0.0768  0.1189
19031SOL    HW174703   3.261   7.428  12.617  3.1071  1.1307  1.4154
19031SOL    HW274704   3.291   7.301  12.694 -2.1739 -1.6604 -0.6588
19032SOL     OW74705   0.031   4.150  11.974  0.5907 -0.0727 -0.6034
19032SOL    HW174706   0.002   4.130  12.063  2.1056  0.4898  0.0484
19032SOL    HW274707   0.076   4.071  11.945  1.5328  0.3142 -0.2275
19033SOL     OW74708  11.466   3.329   3.155 -0.0279 -0.3283  0.1879
19033SOL    HW174709  11.412   3.402   3.126 -0.2127 -0.8546 -0.8478
19033SOL    HW274710  11.404   3.258   3.173  0.1971 -0.4324  0.5732
19034SOL     OW74711   1.050   3.815   6.702 -0.0347 -0.5934  0.0949
19034SOL    HW174712   1.018   3.905   6.713  0.4274 -0.5652  1.4507
19034SOL    HW274713   1.017   3.769   6.780  1.8998 -0.9353  0.7559
19035SOL     OW74714   3.580   0.390  10.482  0.2476 -0.2213  0.1450
19035SOL    HW174715   3.589   0.439  10.400 -0.4754  0.1745  0.2910
19035SOL    HW274716   3.546   0.454  10.544  1.5644 -0.2971  0.9958
19036SOL     OW74717  10.597   9.654   2.971 -0.3302  0.0637 -0.3134
19036SOL    HW174718  10.559   9.724   3.024 -1.2460 -0.3170 -0.4544
19036SOL    HW274719  10.626   9.699   2.891 -0.5756  0.3389 -0.2496
19037SOL     OW74720   1.106   6.930   1.125  0.3258  0.7158 -0.0023
19037SOL    HW174721   1.164   7.006   1.135 -1.6983  2.2482  0.6550
19037SOL    HW274722   1.018   6.967   1.118 -0.7689 -1.6014  0.5670
19038SOL     OW74723  11.629  10.389  13.516  0.2852  0.2768 -0.1664
19038SOL    HW174724  11.694  10.384  13.587  0.3676  0.5889 -0.2186
19038SOL    HW274725  11.547  10.408  13.561  0.3677  0.6435 -0.1688
19039SOL     OW74726  11.088   0.108   3.092 -0.2641  0.0228  0.6974
19039SOL    HW174727  11.064   0.017   3.111  0.5822 -0.2756  0.4058
19039SOL    HW274728  11.007   0.148   3.060 -0.6022 -0.6847  0.6461
19040SOL     OW74729  12.988  14.035   1.569 -0.2982 -0.0690 -0.3205
19040SOL    HW174730  13.059  14.032   1.505  1.0656 -1.3185  1.1849
19040SOL    HW274731  12.976  13.945   1.597 -0.0098  0.5682  2.0553
19041SOL     OW74732   6.428   1.742   9.829  0.2774 -0.1596  0.3761
19041SOL    HW174733   6.340   1.708   9.813  0.7539 -0.6941 -1.3898
19041SOL    HW274734   6.452   1.785   9.747  1.8884 -0.5779  0.5920
19042SOL     OW74735  12.006   4.173   3.503 -0.5714 -0.3771 -0.1250
19042SOL    HW174736  11.918   4.209   3.514 -0.4421 -0.1955  0.3293
19042SOL    HW274737  12.061   4.227   3.560 -0.2301 -0.7397 -0.1088
19043SOL     OW74738   6.178   5.171   0.558 -0.7832  0.1032  0.2878
19043SOL    HW174739   6.099   5.181   0.611  0.2013  1.2966  1.6116
19043SOL    HW274740   6.210   5.083   0.578 -1.8858 -0.4683 -0.4313
19044SOL     OW74741  10.228   6.691   0.787 -0.2150  0.0866 -0.6702
19044SOL    HW174742  10.274   6.611   0.813 -0.7276 -0.5568 -1.6715
19044SOL    HW274743  10.226   6.744   0.866 -0.2781 -1.1042  0.1592
19045SOL     OW74744   6.629   2.752  13.271 -0.3429 -0.2731 -0.1443
19045SOL    HW174745   6.541   2.716  13.276 -0.7779  0.4476 -1.7926
19045SOL    HW274746   6.659   2.730  13.182 -0.4014  2.7823 -1.0204
19046SOL     OW74747   5.464  11.416   3.934 -0.7507 -0.5098 -0.1505
19046SOL    HW174748   5.492  11.378   3.850  1.2222 -0.3157  0.3623
19046SOL    HW274749   5.424  11.500   3.910  1.3228  0.3666 -0.8668
19047SOL     OW74750   5.154   0.825  13.211  0.6627 -0.0945  0.1070
19047SOL    HW174751   5.119   0.747  13.167  1.6082 -0.5428  0.1284
19047SOL    HW274752   5.245   0.803  13.230  0.6136  0.5707  1.1839
19048SOL     OW74753   9.030  10.292   8.884  0.2080  0.3033  0.2031
19048SOL    HW174754   9.109  10.338   8.854 -0.4398  1.6301  0.4353
19048SOL    HW274755   9.043  10.283   8.978  0.1825  0.3249  0.2089
19049SOL     OW74756   5.502  10.068   9.310  0.4692  0.0056 -0.4031
19049SOL    HW174757   5.478  10.150   9.267  1.1579  0.9604  0.9354
19049SOL    HW274758   5.444  10.002   9.272 -1.1292  1.3904 -0.4659
19050SOL     OW74759   3.502   9.452   5.666  0.3727  0.0524  0.7416
19050SOL    HW174760   3.457   9.374   5.632 -0.0577  0.6319 -0.0332
19050SOL    HW274761   3.595   9.435   5.647  0.2171  0.0214 -0.0405
19051SOL     OW74762  12.718   9.286  12.268  0.1662 -0.0389 -0.5429
19051SOL    HW174763  12.642   9.327  12.227  0.5192 -0.4382 -1.6666
19051SOL    HW274764  12.734   9.208  12.213  1.3970  0.0641 -0.3498
19052SOL     OW74765   1.940   2.487   5.447  0.2128  0.0507 -0.1144
19052SOL    HW174766   1.963   2.401   5.482  0.1299 -0.3517 -1.0208
19052SOL    HW274767   2.024   2.527   5.425  0.2927  0.4846  0.9271
19053SOL     OW74768   2.560   9.702   6.870  0.0888  0.1888 -0.3812
19053SOL    HW174769   2.616   9.659   6.805  0.7214  0.9414 -0.3609
19053SOL    HW274770   2.491   9.744   6.819 -1.4364 -2.0502 -0.3039
19054SOL     OW74771   4.767  11.801   5.602  0.3155  0.2988 -0.1304
19054SOL    HW174772   4.720  11.877   5.635 -2.1391 -0.5134 -1.4713
19054SOL    HW274773   4.787  11.822   5.511  0.7438 -0.1582 -0.1478
19055SOL     OW74774  11.600  13.678  13.060 -0.1381 -0.2302 -0.2307
19055SOL    HW174775  11.615  13.735  13.136 -2.7380  0.1776  0.0590
19055SOL    HW274776  11.613  13.735  12.984  0.1843 -0.0389 -0.0364
19056SOL     OW74777   8.448   1.702  12.836 -0.2896 -0.5219 -0.2857
19056SOL    HW174778   8.369   1.663  12.873  0.0605 -1.1898 -0.2183
19056SOL    HW274779   8.515   1.689  12.903  0.3456 -1.7336 -1.1183
19057SOL     OW74780  13.972   5.502   1.348 -0.0379 -0.5594 -0.2926
19057SOL    HW174781  13.905   5.569   1.337 -0.6711 -1.5066 -2.9329
19057SOL    HW274782  14.053   5.552   1.361 -0.9911  0.6137  1.5007
19058SOL     OW74783  12.327   7.134   7.618 -0.0394  0.2235  0.4859
19058SOL    HW174784  12.291   7.151   7.531 -2.1944 -1.0398  1.0290
19058SOL    HW274785  12.266   7.070   7.656  1.1581  0.3132  2.7062
19059SOL     OW74786  13.566   0.201   0.832 -0.6952 -0.3849 -0.9586
19059SOL    HW174787  13.507   0.208   0.907 -0.7454  3.4613 -1.2057
19059SOL    HW274788  13.653   0.187   0.870 -0.6360  2.0656 -0.0427
19060SOL     OW74789   8.612   9.555   2.894 -0.1785 -0.3863  0.6514
19060SOL    HW174790   8.579   9.474   2.933 -1.4087 -0.1389  0.1775
19060SOL    HW274791   8.703   9.536   2.874 -0.6691 -1.9797 -0.2867
19061SOL     OW74792  10.845   5.798   7.352 -0.0512  0.5286 -0.5646
19061SOL    HW174793  10.826   5.831   7.440  0.0770  0.7383 -0.6157
19061SOL    HW274794  10.919   5.738   7.364  0.4578  1.1342 -0.6393
19062SOL     OW74795   4.009   1.545   2.321 -0.3304  0.4300 -0.3791
19062SOL    HW174796   4.063   1.467   2.336 -1.3033 -0.3367 -0.7677
19062SOL    HW274797   4.070   1.618   2.331  0.2441 -0.2618  1.7966
19063SOL     OW74798  13.596   0.969  13.642  0.3138  0.3484  0.6525
19063SOL    HW174799  13.512   0.963  13.686  0.8146  0.9118  1.7192
19063SOL    HW274800  13.583   0.924  13.558 -1.4480  1.6441  0.1812
19064SOL     OW74801   8.778   4.661   1.548 -0.1524 -0.4423 -0.8852
19064SOL    HW174802   8.856   4.614   1.576  1.3505  2.7294  0.8104
19064SOL    HW274803   8.715   4.646   1.619  0.0822 -0.4365 -0.6729
19065SOL     OW74804  13.109   6.682   9.204 -0.3158  0.1525  0.6433
19065SOL    HW174805  13.138   6.591   9.193  0.0676  0.2771  0.6131
19065SOL    HW274806  13.063   6.682   9.288  0.7455  0.1875  1.2484
19066SOL     OW74807   5.546  13.119  10.770 -0.1760  0.0669  0.2884
19066SOL    HW174808   5.631  13.080  10.748 -0.5022 -0.8721  0.6259
19066SOL    HW274809   5.501  13.126  10.685 -0.4165 -1.0798  0.2971
19067SOL     OW74810   5.622  11.184   6.796  0.2373  0.4048 -0.1306
19067SOL    HW174811   5.670  11.127   6.857 -0.2181 -0.7677 -0.8160
19067SOL    HW274812   5.662  11.270   6.807 -0.1385  0.3579  2.1419
19068SOL     OW74813   3.047   2.533   4.418 -0.7668 -0.3654 -0.1030
19068SOL    HW174814   3.068   2.451   4.462 -2.6616 -0.7107  0.2559
19068SOL    HW274815   3.046   2.511   4.325 -1.2986 -0.7602 -0.0072
19069SOL     OW74816   7.979  13.927   6.721  0.6143 -0.0611  0.1254
19069SOL    HW174817   7.917  13.980   6.772 -1.1998  0.7684 -2.7281
19069SOL    HW274818   8.035  13.886   6.787 -0.7797  1.8679  2.6873
19070SOL     OW74819   7.128   3.891  11.052  0.1883 -0.2234  0.2885
19070SOL    HW174820   7.039   3.860  11.035  0.3261 -0.2351 -0.4442
19070SOL    HW274821   7.132   3.976  11.008  0.2724  0.1669  1.0403
19071SOL     OW74822   0.428   9.450   5.848  0.0054  0.0542 -0.4701
19071SOL    HW174823   0.445   9.461   5.941 -1.7381  0.0379 -0.1097
19071SOL    HW274824   0.498   9.498   5.804  1.1132 -0.3306  0.8315
19072SOL     OW74825   7.760   9.097  13.762 -0.0459 -0.7444  0.2065
19072SOL    HW174826   7.723   9.032  13.821 -0.9152 -0.5012 -0.0564
19072SOL    HW274827   7.696   9.169  13.761  0.4994 -0.2489 -0.1452
19073SOL     OW74828   1.238   0.732  13.380 -0.4928  0.8033 -0.0710
19073SOL    HW174829   1.157   0.718  13.333 -0.0848  1.3694 -0.9696
19073SOL    HW274830   1.236   0.825  13.404 -0.8173  0.4668  1.2719
19074SOL     OW74831   4.511   1.153   0.294  0.1949 -0.1439 -0.1361
19074SOL    HW174832   4.546   1.098   0.224 -0.0478 -1.0075  0.3934
19074SOL    HW274833   4.452   1.214   0.250  1.6101  0.6998 -0.9144
19075SOL     OW74834  10.410   5.910   8.819  0.4468  0.3578 -0.3264
19075SOL    HW174835  10.486   5.968   8.821  0.2766  0.7511 -2.4583
19075SOL    HW274836  10.398   5.890   8.726 -2.4618  0.8393 -0.1508
19076SOL     OW74837   9.341  13.767   3.437  0.5033 -0.7971 -0.0852
19076SOL    HW174838   9.291  13.820   3.499  0.0502 -1.4670  0.1331
19076SOL    HW274839   9.320  13.676   3.461  1.1577 -1.0736 -0.5387
19077SOL     OW74840  11.283   3.625   1.745  0.4469  0.3705  0.6352
19077SOL    HW174841  11.275   3.645   1.838 -0.4024 -1.4689  1.0059
19077SOL    HW274842  11.205   3.572   1.725  0.4284  1.0223 -1.2158
19078SOL     OW74843   2.590   2.473   6.165  0.5175  0.5118 -0.2152
19078SOL    HW174844   2.634   2.406   6.113  1.6663  0.6115  0.5784
19078SOL    HW274845   2.661   2.519   6.209 -0.1771  2.6980 -1.2355
19079SOL     OW74846   7.658  13.593   1.447  0.0320  0.3377 -0.1884
19079SOL    HW174847   7.645  13.627   1.535 -1.2196 -0.7404  0.0796
19079SOL    HW274848   7.653  13.670   1.390 -4.6750  0.6122  0.1958
19080SOL     OW74849   0.049   5.214   3.088 -0.7991 -0.0273  0.5966
19080SOL    HW174850  -0.002   5.141   3.123 -1.4916  0.4861  0.6779
19080SOL    HW274851   0.104   5.243   3.160  1.4982 -2.1572 -0.1455
19081SOL     OW74852   1.565  13.937   9.401 -0.1579  0.0151 -1.1233
19081SOL    HW174853   1.538  13.858   9.448 -1.2515  0.5749 -0.7649
19081SOL    HW274854   1.590  13.906   9.314  1.2469 -0.9546 -0.4012
19082SOL     OW74855   1.637  12.425   5.960 -0.2355  0.0280 -0.0787
19082SOL    HW174856   1.548  12.423   5.995 -1.0077  0.3258 -1.8965
19082SOL    HW274857   1.626  12.438   5.866  1.7709  1.9468 -0.1556
19083SOL     OW74858   1.489   1.382   7.761  0.1411  0.1436 -0.1263
19083SOL    HW174859   1.521   1.385   7.671 -0.2804 -0.0035 -0.2852
19083SOL    HW274860   1.468   1.290   7.776 -0.8809  0.3407 -0.2759
19084SOL     OW74861   3.542   2.215   2.652  0.0493 -0.0673 -0.2469
19084SOL    HW174862   3.456   2.222   2.610 -0.5160 -0.8040  0.7278
19084SOL    HW274863   3.597   2.277   2.606 -0.3585 -1.2658 -2.5043
19085SOL     OW74864   9.892   5.760   3.449 -0.8649  0.5109  0.4579
19085SOL    HW174865   9.911   5.844   3.409  3.3067 -0.8538 -0.8793
19085SOL    HW274866   9.862   5.705   3.377 -0.8676  0.0972  0.7690
19086SOL     OW74867   5.098   3.043   2.021 -0.1819 -0.0754 -0.2138
19086SOL    HW174868   5.186   3.081   2.018  0.1157 -0.7897 -1.8944
19086SOL    HW274869   5.053   3.081   1.945 -1.3638  0.3297  0.6611
19087SOL     OW74870   0.548   3.497   0.309  0.1294 -0.0906  0.4017
19087SOL    HW174871   0.610   3.543   0.253 -0.6348 -0.0383 -0.4219
19087SOL    HW274872   0.567   3.404   0.294 -1.3103 -0.1521 -1.4663
19088SOL     OW74873   0.490   9.578  10.052 -0.3581  0.5364  0.5454
19088SOL    HW174874   0.423   9.644  10.034  1.4743  2.3927 -0.0118
19088SOL    HW274875   0.536   9.612  10.129  0.0355 -0.6249  0.8422
19089SOL     OW74876   9.282   1.854   6.894  0.2901  0.1183 -0.1928
19089SOL    HW174877   9.190   1.828   6.889  0.2784 -0.0759  0.8258
19089SOL    HW274878   9.314   1.813   6.975  1.5011 -0.5150 -0.9703
19090SOL     OW74879   6.749   6.367   6.499  0.3855  0.0215  0.0826
19090SOL    HW174880   6.843   6.374   6.512  0.2458 -0.8256  1.7574
19090SOL    HW274881   6.740   6.323   6.414  1.4867  0.0223 -0.0516
19091SOL     OW74882  12.041  12.590   6.880  0.2102 -0.0515  0.0350
19091SOL    HW174883  12.055  12.650   6.807  1.6600 -0.5025 -0.0955
19091SOL    HW274884  11.997  12.643   6.947 -0.8689  0.4447 -1.0271
19092SOL     OW74885   0.273   7.683  12.455  0.2831  0.2283  0.0153
19092SOL    HW174886   0.300   7.768  12.488  0.7996  0.8657 -1.9247
19092SOL    HW274887   0.295   7.685  12.362 -0.1777 -1.8322 -0.1895
19093SOL     OW74888   5.518   1.726   8.596 -0.3131  0.1340 -0.0092
19093SOL    HW174889   5.446   1.740   8.659  0.7341  0.9489  1.0422
19093SOL    HW274890   5.473   1.708   8.513 -1.7792 -2.2682  1.1632
19094SOL     OW74891   1.459  11.700  13.290 -0.1306  0.4981 -0.5847
19094SOL    HW174892   1.475  11.644  13.214 -0.0360  0.2043 -0.3470
19094SOL    HW274893   1.479  11.789  13.259  0.4015  0.3208 -0.7537
19095SOL     OW74894   5.725   6.910   2.880  0.3967  0.5094 -0.1419
19095SOL    HW174895   5.701   6.834   2.933 -0.6491 -0.3205 -1.7167
19095SOL    HW274896   5.707   6.985   2.936  0.7876 -0.3631  1.2012
19096SOL     OW74897  12.931   4.107   2.568  0.0244 -0.1706 -0.6120
19096SOL    HW174898  12.865   4.172   2.591 -0.7088 -0.1801 -2.5001
19096SOL    HW274899  13.006   4.158   2.540 -0.5458 -0.0862 -2.0814
19097SOL     OW74900   6.764  12.547   2.315  0.0278  0.2582 -0.2516
19097SOL    HW174901   6.704  12.530   2.387 -0.9171 -0.1835 -1.1250
19097SOL    HW274902   6.729  12.626   2.273  1.0886  1.0505  0.2935
19098SOL     OW74903   8.981   0.814   3.988 -0.2035 -0.1959 -0.0920
19098SOL    HW174904   9.049   0.836   4.052  1.0213  0.4060 -1.5405
19098SOL    HW274905   8.914   0.770   4.040  0.1533  1.3417  1.8205
19099SOL     OW74906   2.408   5.127   3.692  0.1338  0.0600 -0.1849
19099SOL    HW174907   2.376   5.066   3.758 -1.4521  2.9586  1.9924
19099SOL    HW274908   2.333   5.144   3.635 -0.1619  1.5495  0.5883
19100SOL     OW74909   8.602   4.984   2.965 -0.3256 -0.4348 -0.3882
19100SOL    HW174910   8.523   4.936   2.988 -0.0220 -1.0846 -0.6660
19100SOL    HW274911   8.662   4.969   3.038  0.1604 -1.4049 -0.9559
19101SOL     OW74912   2.921  10.980   4.041 -0.3082 -0.5943  0.9472
19101SOL    HW174913   2.858  10.980   3.969  1.0560  0.1288 -0.3021
19101SOL    HW274914   2.904  11.061   4.088  0.4329  0.2278 -0.1290
19102SOL     OW74915   3.259   4.298   3.806  0.0686 -0.1715  0.5333
19102SOL    HW174916   3.305   4.364   3.858  0.3384 -0.4314  0.6329
19102SOL    HW274917   3.328   4.240   3.775 -0.1849 -0.5388  0.6420
19103SOL     OW74918   1.810  11.769   5.594 -0.4400 -0.3172 -0.1898
19103SOL    HW174919   1.901  11.787   5.569 -0.3474 -1.5566 -0.8064
19103SOL    HW274920   1.765  11.751   5.512 -1.2024  0.1003  0.1311
19104SOL     OW74921  12.757   2.250  10.144  0.5954 -0.1162 -0.5499
19104SOL    HW174922  12.722   2.327  10.190 -0.3129 -0.1159 -1.2352
19104SOL    HW274923  12.717   2.253  10.057  2.1876 -0.1885 -1.3276
19105SOL     OW74924   2.761   1.713   9.219 -0.2092  0.1772  0.1558
19105SOL    HW174925   2.753   1.687   9.311 -1.0010  0.4464  0.1630
19105SOL    HW274926   2.843   1.672   9.191 -0.0959 -0.1352  0.9026
19106SOL     OW74927   8.160   1.404   8.052 -0.6215 -0.2974 -0.2072
19106SOL    HW174928   8.117   1.431   8.134  1.0194 -2.9385  1.6699
19106SOL    HW274929   8.240   1.457   8.049 -0.3233 -0.6944  0.3470
19107SOL     OW74930   0.109   5.645  11.536 -0.2487  0.1511 -0.9292
19107SOL    HW174931   0.100   5.588  11.612 -0.5766  0.3478 -0.8181
19107SOL    HW274932   0.177   5.708  11.560 -0.5191  0.3595 -0.7059
19108SOL     OW74933   5.312  11.626   7.278 -0.4602  0.7380 -0.0735
19108SOL    HW174934   5.293  11.612   7.185 -0.6523  0.9934 -0.0734
19108SOL    HW274935   5.400  11.665   7.278 -0.9003  1.7750 -0.2241
19109SOL     OW74936   2.998   0.796  13.714 -0.8353 -0.2491  0.3910
19109SOL    HW174937   3.064   0.745  13.667 -0.3145  0.6367  0.1321
19109SOL    HW274938   3.030   0.886  13.710 -1.9470  0.1653  0.4656
19110SOL     OW74939   5.141   9.828   2.871  0.3295  0.6375 -0.0862
19110SOL    HW174940   5.211   9.786   2.822 -2.0280 -2.6420 -0.9829
19110SOL    HW274941   5.177   9.839   2.959  2.1546 -0.3938 -0.6562
19111SOL     OW74942   6.523  10.909  12.252  0.4059  0.5313 -0.0327
19111SOL    HW174943   6.428  10.911  12.240  0.3981 -2.1190 -1.1673
19111SOL    HW274944   6.539  10.825  12.296  2.3407  0.0496 -1.5350
19112SOL     OW74945   6.858   0.249  11.459 -0.3372 -0.9483  0.0612
19112SOL    HW174946   6.900   0.198  11.528  0.0824  0.2344  0.7118
19112SOL    HW274947   6.783   0.290  11.502  0.4695  0.5610  0.1094
19113SOL     OW74948  13.530   7.471  10.028  0.2857 -0.0626 -0.1793
19113SOL    HW174949  13.479   7.478   9.947  0.6096  2.1112 -0.2396
19113SOL    HW274950  13.621   7.461   9.998  0.2601 -0.6229 -0.0745
19114SOL     OW74951   3.234   7.045   6.292 -0.5113  0.3522  0.7010
19114SOL    HW174952   3.217   7.038   6.198  0.6896  0.4034  0.4639
19114SOL    HW274953   3.165   7.103   6.325 -1.5753 -0.5161  0.0472
19115SOL     OW74954  11.942   5.260   4.457 -0.3330  0.5358 -0.0972
19115SOL    HW174955  12.034   5.265   4.484 -0.3745  1.7254 -0.1295
19115SOL    HW274956  11.895   5.314   4.521 -1.1125 -0.5606  0.2878
19116SOL     OW74957  11.820   8.618   8.900  0.0915 -0.0593 -0.1617
19116SOL    HW174958  11.727   8.598   8.907  0.1309 -1.0269 -1.9330
19116SOL    HW274959  11.831   8.651   8.811  1.7689 -2.1176 -0.8050
19117SOL     OW74960  12.903  11.289   6.579  0.1914 -0.0095 -0.2887
19117SOL    HW174961  12.956  11.210   6.584  0.5138  0.1242 -1.3060
19117SOL    HW274962  12.942  11.349   6.643 -0.4761 -0.8920  0.9961
19118SOL     OW74963  11.271   8.759   1.087  0.1664 -0.2478 -0.3048
19118SOL    HW174964  11.345   8.706   1.115  0.5930  0.1915 -0.5812
19118SOL    HW274965  11.194   8.712   1.118  0.6073  0.0214  1.2675
19119SOL     OW74966   3.030   8.642   3.451  0.2941 -0.2369  0.4438
19119SOL    HW174967   3.067   8.663   3.536  0.2719 -0.9989  0.6474
19119SOL    HW274968   3.106   8.638   3.392  0.2077  1.4387  0.1604
19120SOL     OW74969   8.997  11.642   7.500  0.6486 -0.3498  0.2569
19120SOL    HW174970   8.934  11.694   7.450  0.1768 -1.7000 -0.5917
19120SOL    HW274971   8.952  11.621   7.582  1.4041  1.8223  1.3335
19121SOL     OW74972   2.964   2.524   5.219 -0.9986  0.1725  0.1615
19121SOL    HW174973   3.048   2.480   5.236 -0.8371  0.1836 -0.5913
19121SOL    HW274974   2.960   2.594   5.284 -0.8745 -0.4287  0.8308
19122SOL     OW74975   7.466   0.013   0.162  0.0587  0.2662  0.6082
19122SOL    HW174976   7.469  -0.048   0.089  0.7344  0.6086  0.3389
19122SOL    HW274977   7.489   0.098   0.124  0.4205  0.4459  1.2145
19123SOL     OW74978   7.642  12.482   3.987  0.0213 -0.1808 -0.4059
19123SOL    HW174979   7.719  12.425   3.988  0.7340  0.7612  0.3178
19123SOL    HW274980   7.678  12.571   3.990 -1.0605  0.3346 -1.5576
19124SOL     OW74981  11.494   6.899   1.444 -0.0782  0.2259 -0.0252
19124SOL    HW174982  11.496   6.826   1.382  2.8242  1.3584 -1.4461
19124SOL    HW274983  11.475   6.858   1.528 -2.2645 -1.6147 -1.2933
19125SOL     OW74984  12.968   5.598   3.318  0.5091 -0.3828 -0.3453
19125SOL    HW174985  13.051   5.558   3.290  0.8692  0.4646 -0.5229
19125SOL    HW274986  12.913   5.594   3.240  1.1384  0.9966 -0.8953
19126SOL     OW74987  13.086  12.373   1.228 -0.2458 -0.2175  0.9330
19126SOL    HW174988  13.067  12.464   1.253 -0.1843 -0.1864  0.8656
19126SOL    HW274989  13.011  12.347   1.175  1.3972  0.9999 -2.2491
19127SOL     OW74990  11.613   8.249   0.685 -0.2117  0.2236  0.2291
19127SOL    HW174991  11.707   8.260   0.670  0.6420 -3.7864  1.5994
19127SOL    HW274992  11.591   8.320   0.746  2.2205  0.5036  0.9167
19128SOL     OW74993   2.070  11.160   9.515  0.7134  0.0029  0.0158
19128SOL    HW174994   1.993  11.107   9.534 -0.0160  0.0341 -2.4741
19128SOL    HW274995   2.034  11.246   9.490  1.5945  0.2254 -0.5352
19129SOL     OW74996   4.851   3.280  12.914  0.3045  0.4236  0.1539
19129SOL    HW174997   4.770   3.253  12.957 -0.5654  0.7374 -1.2460
19129SOL    HW274998   4.840   3.254  12.823  2.1919 -0.3831  0.1127
19130SOL     OW74999   7.142   5.872   8.089 -0.3585 -0.5675  0.2336
19130SOL    HW175000   7.089   5.793   8.094 -3.0233  1.0448 -0.1800
19130SOL    HW275001   7.125   5.908   8.002  0.4575  0.6621  0.5463
19131SOL     OW75002  11.977   6.176   2.390 -0.3441  0.5196 -0.5258
19131SOL    HW175003  12.018   6.256   2.357 -0.4150  0.9689  0.4502
19131SOL    HW275004  11.947   6.199   2.478  0.3491 -0.8141  0.0924
19132SOL     OW75005   6.377   1.598   3.604 -0.0937 -0.5332 -0.3611
19132SOL    HW175006   6.428   1.528   3.563 -1.9620 -1.1733 -1.7472
19132SOL    HW275007   6.331   1.555   3.676 -0.9388 -0.7048 -0.9737
19133SOL     OW75008   3.227   6.940   2.511  0.0871 -0.2300 -0.0997
19133SOL    HW175009   3.146   6.926   2.461 -0.2774  1.5249 -0.0748
19133SOL    HW275010   3.265   7.019   2.473 -0.0567  1.0114  2.1723
19134SOL     OW75011   3.303  13.479  13.536  0.2498  0.1087  0.3425
19134SOL    HW175012   3.251  13.496  13.615 -0.0785  0.9241 -0.0461
19134SOL    HW275013   3.393  13.504  13.560  0.3801 -0.8023  0.8431
19135SOL     OW75014   0.328  12.838   0.534 -0.6548 -0.2665 -0.4540
19135SOL    HW175015   0.325  12.894   0.457 -0.4565 -0.2532 -0.4529
19135SOL    HW275016   0.401  12.872   0.586 -1.8724  0.8651  0.6236
19136SOL     OW75017   8.371  12.132   7.165  0.5019  0.5665  0.5497
19136SOL    HW175018   8.343  12.163   7.251  1.5142  1.5541  0.5588
19136SOL    HW275019   8.348  12.203   7.105  0.8154  0.3745  0.1959
19137SOL     OW75020   6.213   9.445  12.607 -0.0088 -0.3656 -0.8543
19137SOL    HW175021   6.172   9.502  12.673  3.0230  0.9732  0.0597
19137SOL    HW275022   6.187   9.356  12.633 -0.0410  0.2253  1.3427
19138SOL     OW75023   2.408   3.686   2.411 -0.1017  0.5827  0.0880
19138SOL    HW175024   2.400   3.745   2.336  1.3352  1.0550  0.2773
19138SOL    HW275025   2.346   3.721   2.475 -0.0583  1.2254 -0.2116
19139SOL     OW75026   8.798   1.899   5.484 -0.1898  0.0551  0.4469
19139SOL    HW175027   8.712   1.937   5.499  0.6736  1.2021  2.9339
19139SOL    HW275028   8.845   1.966   5.433  0.1687  0.7882  1.7064
19140SOL     OW75029  11.767   8.046  10.899  0.5148 -0.6801 -0.1652
19140SOL    HW175030  11.694   8.079  10.951 -0.2556 -0.2412 -1.4811
19140SOL    HW275031  11.740   8.060  10.808  1.7833 -1.5024 -0.6943
19141SOL     OW75032   2.413  12.439  12.646  0.0277  0.1013  0.5288
19141SOL    HW175033   2.464  12.466  12.569 -1.0246  0.3094 -0.1315
19141SOL    HW275034   2.449  12.490  12.718  2.1400 -1.3041  0.5494
19142SOL     OW75035   0.727   8.958  12.986 -0.3429  0.8424 -0.5546
19142SOL    HW175036   0.788   8.919  13.048  1.8030  0.2502 -2.8733
19142SOL    HW275037   0.656   8.994  13.040  0.9564 -0.3727  2.1046
19143SOL     OW75038  10.931   2.783  12.051  0.1310 -0.5773 -0.3156
19143SOL    HW175039  11.013   2.741  12.026  0.1534 -0.6602 -0.1047
19143SOL    HW275040  10.902   2.735  12.128 -0.2967 -0.7692 -0.5991
19144SOL     OW75041   4.850   9.847  13.788 -0.3320  0.2390  0.0836
19144SOL    HW175042   4.893   9.905  13.851  0.9530 -1.2404  0.6472
19144SOL    HW275043   4.921   9.817  13.731 -1.2111  0.2783 -1.0765
19145SOL     OW75044  11.459   4.281   4.959 -0.4526 -0.0742  0.2169
19145SOL    HW175045  11.488   4.319   5.042  0.0350 -1.2045  0.5932
19145SOL    HW275046  11.419   4.198   4.984  1.6884 -1.5213 -0.7933
19146SOL     OW75047   5.603   8.747   5.988 -0.0140 -0.0476 -0.3007
19146SOL    HW175048   5.569   8.657   5.994  0.0564 -0.0002  1.4989
19146SOL    HW275049   5.526   8.802   6.001 -0.1878  0.2106 -2.1552
19147SOL     OW75050   2.951   0.924   9.742  0.3234  0.3043 -0.1445
19147SOL    HW175051   2.908   0.993   9.692  0.2748  0.5989  0.3011
19147SOL    HW275052   2.933   0.946   9.834 -1.2728 -1.2916 -0.0072
19148SOL     OW75053  13.874   4.920   2.415 -0.3626 -0.1008 -0.6962
19148SOL    HW175054  13.942   4.988   2.411 -0.0019 -0.4474 -0.5685
19148SOL    HW275055  13.846   4.909   2.324 -1.2941  1.0740 -0.5722
19149SOL     OW75056   3.222  10.614   6.185 -0.1928 -0.3246 -0.0101
19149SOL    HW175057   3.225  10.685   6.249  0.5492  1.5463 -2.0007
19149SOL    HW275058   3.129  10.608   6.161 -0.4088 -0.7483  0.8785
19150SOL     OW75059   7.900  11.434   9.673  0.5594  0.1060 -0.3463
19150SOL    HW175060   7.823  11.484   9.649  1.6367  2.3634  0.6453
19150SOL    HW275061   7.934  11.401   9.589 -0.3875  0.7153 -0.9914
19151SOL     OW75062   4.445   4.806   2.363  0.1561 -0.2404 -0.3804
19151SOL    HW175063   4.453   4.887   2.312 -0.3100  0.2273  0.2677
19151SOL    HW275064   4.513   4.749   2.328  1.6318  1.0439  0.2825
19152SOL     OW75065   4.602   7.003   2.650  0.1269 -0.1333  0.0927
19152SOL    HW175066   4.593   7.094   2.622 -0.5072 -0.2616 -0.1131
19152SOL    HW275067   4.518   6.980   2.690 -0.1528 -1.0013 -0.9365
19153SOL     OW75068   7.521   8.496   7.928 -0.5675 -0.0337 -0.0420
19153SOL    HW175069   7.477   8.469   8.009  1.8825 -0.1281  1.3454
19153SOL    HW275070   7.604   8.534   7.957  0.3400  0.0466 -2.5112
19154SOL     OW75071   8.115  12.579   2.388  0.2208  0.8290  0.3194
19154SOL    HW175072   8.110  12.499   2.336 -1.8751 -0.5230  2.4184
19154SOL    HW275073   8.190  12.565   2.446  1.4872  1.6054 -1.0426
19155SOL     OW75074   8.390  13.660   8.353  0.1115 -0.1426  0.1245
19155SOL    HW175075   8.367  13.590   8.292  0.4221  1.4971 -1.9909
19155SOL    HW275076   8.316  13.665   8.414 -1.3447 -0.3083 -1.5715
19156SOL     OW75077  10.086   1.518   0.137  0.0129  0.6534 -0.0271
19156SOL    HW175078  10.075   1.612   0.121 -1.1125  0.7056  0.8648
19156SOL    HW275079  10.151   1.514   0.207 -0.2984  0.8079  0.2774
19157SOL     OW75080  10.637  12.551   4.850 -0.0370 -0.6335 -0.2773
19157SOL    HW175081  10.681  12.471   4.820  2.3445  0.4141  0.2164
19157SOL    HW275082  10.599  12.589   4.771 -0.0850 -1.5792 -0.7198
19158SOL     OW75083  13.657   5.067  13.314  0.0378  0.2069 -0.5480
19158SOL    HW175084  13.595   4.997  13.294  0.0072  0.5055 -1.5299
19158SOL    HW275085  13.631   5.098  13.401  1.4127 -2.4599  0.9586
19159SOL     OW75086   5.621   5.673  12.602  0.7316 -0.9165 -0.2936
19159SOL    HW175087   5.688   5.738  12.583 -0.2297 -0.1564 -1.2108
19159SOL    HW275088   5.623   5.613  12.528 -0.4165 -0.1679 -0.9661
19160SOL     OW75089  11.679   2.162   6.026  0.0866  0.7168 -1.2687
19160SOL    HW175090  11.611   2.100   6.001 -0.4934  0.7350  0.1661
19160SOL    HW275091  11.637   2.220   6.090  1.5462  0.4638 -0.0219
19161SOL     OW75092   9.930  13.891   7.996 -0.3095  0.2566  0.2024
19161SOL    HW175093   9.992  13.941   7.943  0.5322  0.4949  1.3693
19161SOL    HW275094   9.845  13.929   7.974  0.1702  1.2943  0.0534
19162SOL     OW75095  14.047   8.227   9.037 -0.4338 -0.5059 -0.4340
19162SOL    HW175096  14.081   8.317   9.036  1.7738 -1.2709 -0.7895
19162SOL    HW275097  13.970   8.231   9.093  1.0554  1.1460  1.6740
19163SOL     OW75098  10.162   3.257   0.034  0.6515 -0.3449  0.3021
19163SOL    HW175099  10.077   3.239   0.075 -0.1475  1.7680 -0.2539
19163SOL    HW275100  10.225   3.249   0.106 -0.1800 -0.7857  1.0027
19164SOL     OW75101   4.673   9.303  13.938  0.6788 -0.1796  0.0735
19164SOL    HW175102   4.606   9.314  14.006  1.6097  1.2196  0.8304
19164SOL    HW275103   4.729   9.232  13.971  0.0373 -0.8079 -0.1763
19165SOL     OW75104   6.682   9.152   2.046  0.2485 -0.1294 -0.0210
19165SOL    HW175105   6.678   9.060   2.071  1.0778 -0.6972 -1.8448
19165SOL    HW275106   6.774   9.176   2.055  0.0833  0.4416  0.1870
19166SOL     OW75107  11.563   2.332  12.031  0.5650 -0.1716  0.1658
19166SOL    HW175108  11.609   2.407  12.068  0.1062 -0.4409  1.3194
19166SOL    HW275109  11.547   2.357  11.940 -3.1100  2.9668  1.3745
19167SOL     OW75110   7.859   1.289   8.383  0.1458  0.3933 -0.0716
19167SOL    HW175111   7.918   1.364   8.379 -1.4696  1.6742 -1.4571
19167SOL    HW275112   7.860   1.262   8.474  1.7780  1.2573  0.1955
19168SOL     OW75113   2.810  11.855   8.515  0.3991 -0.2176 -0.4424
19168SOL    HW175114   2.901  11.861   8.485  0.8093 -0.3780  0.7325
19168SOL    HW275115   2.807  11.774   8.565 -0.3727 -0.1486 -0.3672
19169SOL     OW75116   6.632   8.035   2.717 -0.0829 -0.6612  0.0964
19169SOL    HW175117   6.558   8.058   2.773 -1.1905 -1.2471 -1.0688
19169SOL    HW275118   6.605   7.954   2.674  1.5692 -1.3252  0.2078
19170SOL     OW75119   2.911   2.846  12.456 -0.0598  0.0898 -0.1231
19170SOL    HW175120   2.986   2.902  12.437 -0.5181  0.5754 -0.5246
19170SOL    HW275121   2.836   2.892  12.419 -0.6274 -0.1697  0.6628
19171SOL     OW75122   0.292  12.880   1.150 -0.5944  0.1428  0.2515
19171SOL    HW175123   0.306  12.944   1.219 -2.3873 -0.6986  1.4955
19171SOL    HW275124   0.315  12.796   1.190  0.4632 -0.1497 -0.9184
19172SOL     OW75125  10.869   0.702  14.091 -0.3414 -0.3548 -0.2141
19172SOL    HW175126  10.931   0.635  14.119 -0.9802 -0.3342  1.3356
19172SOL    HW275127  10.841   0.744  14.172 -2.2064 -0.2106 -0.8836
19173SOL     OW75128   0.081   0.971   3.953 -0.4155  0.3863 -0.4774
19173SOL    HW175129   0.059   0.883   3.921 -0.6636  0.0229  0.6408
19173SOL    HW275130  -0.001   1.003   3.990  0.4116 -0.2528  2.1013
19174SOL     OW75131   4.231   3.781  11.841 -0.1364 -0.5210 -0.1055
19174SOL    HW175132   4.267   3.726  11.772  1.5755  0.5288 -0.0900
19174SOL    HW275133   4.300   3.787  11.907 -1.0240  0.0483  0.8153
19175SOL     OW75134  13.172   9.233   9.568  0.2084  0.0051  0.4455
19175SOL    HW175135  13.121   9.154   9.548  0.4979  0.4995 -2.7874
19175SOL    HW275136  13.252   9.223   9.516  1.1679  1.5312  1.5623
19176SOL     OW75137   0.257   4.637   5.751 -0.0893  0.0013 -0.1571
19176SOL    HW175138   0.329   4.576   5.771 -0.2756 -0.1096  0.1839
19176SOL    HW275139   0.183   4.580   5.730  0.3419  0.0933 -2.1603
19177SOL     OW75140   4.806   1.800   7.342  0.1296  0.1484 -0.1927
19177SOL    HW175141   4.900   1.813   7.354  0.5234 -2.0439 -0.4777
19177SOL    HW275142   4.785   1.726   7.398 -1.8057  1.6111  1.1295
19178SOL     OW75143  12.016   2.087   1.966  0.0523 -0.4641 -0.3798
19178SOL    HW175144  11.944   2.048   2.015  0.3086 -0.4370  0.0277
19178SOL    HW275145  12.007   2.181   1.982  0.8136 -0.5331  0.5845
19179SOL     OW75146   4.425   0.973  13.332  0.0644  0.5742 -0.5225
19179SOL    HW175147   4.469   0.950  13.414  1.3525 -0.4668 -1.4644
19179SOL    HW275148   4.361   1.040  13.357 -0.5854 -0.7334  1.5672
19180SOL     OW75149  13.217   9.823  11.695  0.1745 -0.0925  0.2911
19180SOL    HW175150  13.166   9.823  11.776  0.0760 -1.4756  0.2645
19180SOL    HW275151  13.152   9.814  11.626  0.3479 -0.2529  0.1497
19181SOL     OW75152   6.953   4.401  12.138  0.0272 -0.2677  0.4425
19181SOL    HW175153   6.944   4.420  12.045 -1.3287 -1.7779  0.2137
19181SOL    HW275154   6.988   4.313  12.142  0.7767  0.0554  1.3866
19182SOL     OW75155   7.961   2.122   7.196 -0.3011 -0.5561 -0.7349
19182SOL    HW175156   7.936   2.100   7.106  0.0706  0.8190 -1.2005
19182SOL    HW275157   7.991   2.213   7.191 -2.3920  0.3322  1.1813
19183SOL     OW75158   9.822   6.859  10.999  0.1726 -0.8373 -0.3229
19183SOL    HW175159   9.816   6.886  10.907  1.3659  0.3606 -0.0802
19183SOL    HW275160   9.912   6.826  11.008  0.2614 -0.3889  0.5483
19184SOL     OW75161   9.176   0.785   4.186  0.1379 -0.1618  0.0789
19184SOL    HW175162   9.159   0.761   4.278 -1.3133 -0.9262 -0.3470
19184SOL    HW275163   9.185   0.880   4.188 -2.3036  0.1434  0.7483
19185SOL     OW75164   3.910   3.603   0.880 -0.4736  0.2960  0.4924
19185SOL    HW175165   3.837   3.551   0.913 -0.2081 -1.8394 -1.9915
19185SOL    HW275166   3.871   3.660   0.814 -0.0836 -0.0593 -0.0516
19186SOL     OW75167   0.437  11.208  11.442 -0.0633  0.0622  0.2843
19186SOL    HW175168   0.406  11.199  11.352  0.9404 -0.2147 -0.0535
19186SOL    HW275169   0.416  11.125  11.483 -0.7827  0.2951  0.3938
19187SOL     OW75170  10.449   2.458   0.376 -0.1099 -0.0119 -0.2270
19187SOL    HW175171  10.478   2.387   0.433 -2.3524 -1.2872 -0.5278
19187SOL    HW275172  10.529   2.499   0.345  1.2240 -1.3111  1.3118
19188SOL     OW75173   1.594   3.122   1.381 -0.2070  0.4619 -0.0035
19188SOL    HW175174   1.664   3.070   1.342 -1.9976 -1.8455 -0.3457
19188SOL    HW275175   1.616   3.213   1.358  3.4028  0.0460  1.2033
19189SOL     OW75176   8.126  13.952   0.066  0.6325 -0.6422  0.1112
19189SOL    HW175177   8.113  13.873   0.118  0.5120 -0.2133  0.7355
19189SOL    HW275178   8.218  13.975   0.079  0.0236  0.8613  2.1480
19190SOL     OW75179  11.781   3.327   0.547  0.2409  0.3399  0.3284
19190SOL    HW175180  11.860   3.291   0.506 -0.5922  0.0285 -1.1019
19190SOL    HW275181  11.788   3.421   0.532  0.2395  0.2903  0.0025
19191SOL     OW75182   6.342   7.006   4.939 -0.1658 -0.1163  0.1100
19191SOL    HW175183   6.282   6.932   4.940  1.0325 -1.1746 -1.4085
19191SOL    HW275184   6.322   7.052   4.857  0.1665  0.3161  0.2650
19192SOL     OW75185   2.717   3.767  11.129 -0.3676 -0.0405 -0.0604
19192SOL    HW175186   2.763   3.802  11.205 -3.6115  0.3336  1.9080
19192SOL    HW275187   2.731   3.834  11.061  3.5916 -0.9437 -0.3981
19193SOL     OW75188  11.152  12.128   0.167  1.1255 -0.5437 -0.5497
19193SOL    HW175189  11.074  12.172   0.202  1.5932 -1.0758  1.3134
19193SOL    HW275190  11.117  12.059   0.110  0.1738 -1.1046  0.6589
19194SOL     OW75191  10.238  13.459   4.092  0.2144 -0.0456  0.3570
19194SOL    HW175192  10.180  13.464   4.016 -1.2257 -2.5388  1.1567
19194SOL    HW275193  10.182  13.426   4.162  2.1274 -0.4510  1.7651
19195SOL     OW75194  13.180   7.404   3.462  0.2879  0.0106  0.6383
19195SOL    HW175195  13.262   7.416   3.415 -1.4989 -0.7848 -3.0251
19195SOL    HW275196  13.187   7.316   3.501  0.1865 -1.3357 -2.1540
19196SOL     OW75197  13.988  11.312   8.625  0.1147 -0.1907  0.0901
19196SOL    HW175198  14.074  11.272   8.620  0.9210  1.4517  0.1085
19196SOL    HW275199  13.957  11.313   8.534 -0.3033 -1.5696  0.1885
19197SOL     OW75200  13.520  13.018   9.632  0.5980 -0.2866 -0.1489
19197SOL    HW175201  13.509  12.941   9.576  0.6655  0.4294 -1.1956
19197SOL    HW275202  13.615  13.027   9.641  0.5797 -1.2606  1.3642
19198SOL     OW75203   4.847  11.627  12.240  0.6883  0.1936  0.2120
19198SOL    HW175204   4.795  11.685  12.185 -1.6268 -0.6982  1.3419
19198SOL    HW275205   4.890  11.685  12.302 -0.5356  0.8134  0.4987
19199SOL     OW75206  13.858   6.524   8.356  0.3397 -0.7209 -0.2351
19199SOL    HW175207  13.851   6.430   8.340 -1.3369 -0.3182 -2.2050
19199SOL    HW275208  13.849   6.533   8.451  1.2959 -2.5690  0.0776
19200SOL     OW75209   3.592   4.698   3.586 -0.0669  0.7709  0.5176
19200SOL    HW175210   3.574   4.609   3.616 -1.7004  0.7069 -0.4911
19200SOL    HW275211   3.625   4.687   3.497  0.9517  1.1303  0.8414
19201SOL     OW75212   2.213   9.101  11.931  0.3683 -0.1047  0.2082
19201SOL    HW175213   2.211   9.127  11.839  0.3969 -0.6251  0.0547
19201SOL    HW275214   2.139   9.147  11.970 -0.8951 -1.4268 -0.5120
19202SOL     OW75215  11.188  10.993   8.826 -0.2513 -0.5216  0.1053
19202SOL    HW175216  11.113  10.954   8.872  1.2383 -1.4889  1.8459
19202SOL    HW275217  11.183  10.956   8.738  0.4672 -3.9985  1.3633
19203SOL     OW75218   6.704  11.014   1.461  0.1864 -0.0009  0.0464
19203SOL    HW175219   6.755  11.094   1.449  0.2110 -0.1584 -1.0707
19203SOL    HW275220   6.665  11.022   1.548  0.0423  1.3116 -0.1176
19204SOL     OW75221  12.639   9.285   5.858  0.1057  0.3095 -0.1159
19204SOL    HW175222  12.647   9.197   5.821  1.3321  0.4336 -0.1555
19204SOL    HW275223  12.667   9.275   5.949  2.1852  1.0261 -0.6366
19205SOL     OW75224   7.986   5.500  11.123  0.2649  0.5103  0.1546
19205SOL    HW175225   7.910   5.448  11.094 -0.1457 -0.0176  2.0248
19205SOL    HW275226   7.949   5.565  11.183  1.3960 -0.9856  2.6779
19206SOL     OW75227   1.716   9.594   3.808  0.0361 -0.3173 -0.2743
19206SOL    HW175228   1.719   9.689   3.815 -0.3778 -0.3483  0.4832
19206SOL    HW275229   1.660   9.577   3.732 -1.0663  0.0435  0.4367
19207SOL     OW75230  12.187   5.035  13.839 -0.1382  0.3028 -0.5753
19207SOL    HW175231  12.194   4.966  13.905  0.2418 -0.0031 -0.9341
19207SOL    HW275232  12.174   5.116  13.890  1.6803  0.3068 -0.0470
19208SOL     OW75233   6.388  13.860  12.303 -0.3427 -0.1868  0.0805
19208SOL    HW175234   6.483  13.873  12.305 -0.2339 -0.8616 -0.4050
19208SOL    HW275235   6.354  13.937  12.258 -0.0128 -0.0031  0.1428
19209SOL     OW75236  11.514   1.476  10.561 -0.6489 -0.0021 -0.1904
19209SOL    HW175237  11.517   1.557  10.511 -1.2919 -1.1790 -2.2430
19209SOL    HW275238  11.455   1.419  10.512 -0.1282 -1.7663  1.1210
19210SOL     OW75239  11.212  12.829  10.307 -0.0188 -0.3940 -0.3232
19210SOL    HW175240  11.271  12.763  10.270 -0.1035 -1.3165  1.1212
19210SOL    HW275241  11.126  12.804  10.274  0.2552  0.5879 -1.9223
19211SOL     OW75242   3.777   6.946   3.628 -0.2806 -0.2739  0.1399
19211SOL    HW175243   3.762   6.887   3.702 -1.0246 -0.2495  0.0154
19211SOL    HW275244   3.710   6.922   3.564 -1.1367  1.2506  0.4201
19212SOL     OW75245   1.133   1.710   5.322  0.1831 -0.1625  0.5461
19212SOL    HW175246   1.197   1.650   5.360 -1.3213 -2.1843  0.0780
19212SOL    HW275247   1.120   1.679   5.233 -0.1270  1.3377  0.0338
19213SOL     OW75248   5.991  10.471  12.393  0.3380 -0.6752  0.6416
19213SOL    HW175249   6.033  10.486  12.477 -1.4062  2.2051  1.1264
19213SOL    HW275250   6.034  10.531  12.333 -1.8309  1.1914  0.7980
19214SOL     OW75251   0.618   5.406   2.298  0.3624  0.1437  0.1022
19214SOL    HW175252   0.550   5.374   2.358  0.2395 -2.0978 -1.1259
19214SOL    HW275253   0.641   5.493   2.332 -1.6026  0.0880  1.7837
19215SOL     OW75254   4.062   5.324  12.037  0.7743 -0.1056 -0.3322
19215SOL    HW175255   4.056   5.379  11.959 -0.1041  1.6209  0.8857
19215SOL    HW275256   4.138   5.358  12.084  1.9032 -1.7792 -0.8507
19216SOL     OW75257   3.336   1.443   2.032  0.0706  0.2039  0.0233
19216SOL    HW175258   3.399   1.509   2.062 -1.2524  1.3842  0.2940
19216SOL    HW275259   3.341   1.447   1.937  1.1037 -0.4258  0.0333
19217SOL     OW75260   7.529  10.770   3.045 -0.3361  0.7225 -0.2724
19217SOL    HW175261   7.453  10.775   2.987 -0.1705 -4.7190 -1.4607
19217SOL    HW275262   7.496  10.728   3.125  1.0554 -0.2611 -0.1744
19218SOL     OW75263   5.603  13.987  11.299 -0.3362 -0.7522 -0.4023
19218SOL    HW175264   5.655  14.059  11.335 -0.8569 -0.0577 -1.0134
19218SOL    HW275265   5.627  13.982  11.207 -0.4293 -1.2564 -0.4052
19219SOL     OW75266   0.508   0.242   0.379  0.4322 -0.8750 -0.0867
19219SOL    HW175267   0.458   0.307   0.328 -1.1477 -2.0910 -0.1526
19219SOL    HW275268   0.450   0.219   0.451  1.7521 -0.8470  1.0087
19220SOL     OW75269  10.865   0.528   4.084 -0.3756  0.3436  0.1002
19220SOL    HW175270  10.771   0.506   4.079 -0.5026  1.0969 -1.3194
19220SOL    HW275271  10.871   0.591   4.155 -0.7905 -0.4487  0.8506
19221SOL     OW75272  12.729   9.811  12.934 -0.3966 -0.6086 -0.0255
19221SOL    HW175273  12.746   9.852  12.850 -1.7059 -0.4037 -0.2022
19221SOL    HW275274  12.774   9.727  12.929 -1.5327 -1.1776 -1.4588
19222SOL     OW75275  12.782  11.847  13.554 -0.1157  0.3612 -0.1490
19222SOL    HW175276  12.847  11.916  13.540  0.0203  0.5684  1.3479
19222SOL    HW275277  12.831  11.766  13.545  0.0789  0.4920 -0.2757
19223SOL     OW75278   8.011   7.486  12.430 -0.4732 -0.3215  0.8305
19223SOL    HW175279   8.006   7.391  12.435 -1.7644 -0.5972 -2.6780
19223SOL    HW275280   8.104   7.505  12.417 -0.1060 -0.9828  2.3285
19224SOL     OW75281   4.080   2.666   7.357 -0.2332 -0.0134  0.6415
19224SOL    HW175282   4.080   2.716   7.438  1.7359  2.5092 -0.7675
19224SOL    HW275283   4.173   2.645   7.342 -0.5820 -0.6261 -0.8601
19225SOL     OW75284   3.800  13.647  12.190 -0.3631  0.2543 -0.1689
19225SOL    HW175285   3.879  13.663  12.138  0.7461  0.0130  1.3830
19225SOL    HW275286   3.740  13.602  12.129  1.6638 -1.9146 -0.7072
19226SOL     OW75287   1.144   0.856   5.462  0.1873 -0.2608 -0.0175
19226SOL    HW175288   1.070   0.865   5.523  0.9385  1.5970  0.6809
19226SOL    HW275289   1.202   0.792   5.504 -0.2983 -0.5877  0.1668
19227SOL     OW75290   7.410  13.101   0.042  0.0023 -0.4191  0.2027
19227SOL    HW175291   7.325  13.073   0.077  0.4329 -0.2222  1.4704
19227SOL    HW275292   7.414  13.063  -0.045 -0.7487 -1.7278  0.7052
19228SOL     OW75293   6.743  12.343   7.447 -0.3280 -0.4383  0.5216
19228SOL    HW175294   6.666  12.385   7.486  0.1956 -0.0454  1.1649
19228SOL    HW275295   6.750  12.382   7.360 -1.2036 -0.9247  0.2236
19229SOL     OW75296  13.038  12.529   0.025 -0.2039 -0.0421  0.2580
19229SOL    HW175297  13.093  12.496  -0.046  2.0641  0.0535  1.8727
19229SOL    HW275298  12.992  12.604  -0.013  1.1657  0.1823 -1.0433
19230SOL     OW75299  11.993   8.756  12.448  0.1274  0.1417 -0.3284
19230SOL    HW175300  11.989   8.759  12.543  0.0290 -1.5409 -0.2455
19230SOL    HW275301  11.924   8.815  12.418  1.8261  2.7634  0.5665
19231SOL     OW75302   0.539   5.212   7.424 -0.0396 -0.6672 -0.0124
19231SOL    HW175303   0.451   5.198   7.390 -0.6120  2.3495 -0.0308
19231SOL    HW275304   0.526   5.241   7.514  0.8252  0.8817 -0.3553
19232SOL     OW75305   4.406   2.650  12.127  0.0871  0.0327 -0.1985
19232SOL    HW175306   4.322   2.650  12.080  0.7629 -0.1460 -1.4312
19232SOL    HW275307   4.395   2.716  12.196 -0.6654  0.8362 -1.0701
19233SOL     OW75308   9.628   8.409   9.746 -0.0389  0.6460 -0.2788
19233SOL    HW175309   9.636   8.340   9.680  0.9122  1.6662 -1.2675
19233SOL    HW275310   9.713   8.409   9.791 -0.6590 -0.0046  0.9463
19234SOL     OW75311  11.353   2.262   2.175 -0.3101 -0.4617  0.0075
19234SOL    HW175312  11.275   2.259   2.230  0.1987  0.2375  0.7828
19234SOL    HW275313  11.324   2.227   2.091 -1.0923 -1.6198  0.7237
19235SOL     OW75314   6.265   8.916  13.970  0.4169  0.4395 -0.3336
19235SOL    HW175315   6.239   8.894  14.060 -1.6357  0.9449 -0.7503
19235SOL    HW275316   6.294   9.007  13.975 -0.4344  0.7192 -0.2907
19236SOL     OW75317  10.077   8.536  13.832  0.0568 -0.1744  0.4053
19236SOL    HW175318  10.171   8.520  13.822  0.2381 -0.3012  2.0842
19236SOL    HW275319  10.071   8.624  13.868 -0.5423  0.2444 -0.6689
19237SOL     OW75320  11.273   1.933   0.145 -0.1329  0.3546 -0.1481
19237SOL    HW175321  11.348   1.992   0.130 -0.4793  1.1043  0.9403
19237SOL    HW275322  11.287   1.899   0.233  0.0083 -1.1534 -0.7284
19238SOL     OW75323   5.826   2.795   7.285 -0.0833 -0.0890 -0.0936
19238SOL    HW175324   5.817   2.853   7.360 -0.2108 -0.0932 -0.1065
19238SOL    HW275325   5.749   2.739   7.288 -0.8382  0.8750 -1.0754
19239SOL     OW75326   4.090  12.144  10.442 -0.7113 -0.3470  0.1871
19239SOL    HW175327   4.098  12.202  10.366 -1.2547  0.4445  0.7128
19239SOL    HW275328   3.997  12.149  10.466 -0.8406 -1.7142  0.0406
19240SOL     OW75329  11.609  11.315   8.502  0.2788 -0.2318  0.0389
19240SOL    HW175330  11.537  11.376   8.490  0.4066  0.0415  0.6164
19240SOL    HW275331  11.687  11.371   8.510  0.5177 -0.5097 -0.3003
19241SOL     OW75332  14.052   4.411   8.998  0.1842 -0.3557 -0.3796
19241SOL    HW175333  13.978   4.381   8.945 -1.5083 -0.0991  1.6912
19241SOL    HW275334  14.086   4.331   9.038  0.6846 -0.4017 -0.8839
19242SOL     OW75335  12.404   1.537   5.602  0.0858  0.0177  1.0220
19242SOL    HW175336  12.320   1.580   5.586 -0.0762 -0.2445  1.1596
19242SOL    HW275337  12.438   1.518   5.514  0.7908  1.6123  0.9210
19243SOL     OW75338   3.857   5.628   6.883  0.1939  0.0633  0.2187
19243SOL    HW175339   3.874   5.718   6.912 -0.0416  0.1659  0.0397
19243SOL    HW275340   3.847   5.635   6.788 -0.4795 -0.0556  0.2807
19244SOL     OW75341  13.051  10.899  13.385 -0.2408  0.0568 -0.2296
19244SOL    HW175342  13.093  10.863  13.307  1.3282  1.1852  0.0625
19244SOL    HW275343  13.018  10.985  13.358 -0.5218  0.0604  0.1051
19245SOL     OW75344  11.625  10.588  13.757  0.2854  0.2248 -0.3618
19245SOL    HW175345  11.584  10.514  13.803  0.7667 -0.1289 -0.4873
19245SOL    HW275346  11.681  10.628  13.823  2.5639 -1.5071 -1.1085
19246SOL     OW75347   1.044   3.766   0.734  0.5611 -0.0930 -0.0521
19246SOL    HW175348   0.993   3.765   0.815 -0.1879  0.1449 -0.5121
19246SOL    HW275349   1.119   3.709   0.752  0.9904  0.8175  1.1829
19247SOL     OW75350   4.047   7.236   3.469  0.1175 -0.4820  0.7535
19247SOL    HW175351   4.047   7.318   3.420  0.3992  0.1391  1.7754
19247SOL    HW275352   4.114   7.183   3.426  0.7476  0.2665  0.7933
19248SOL     OW75353  10.848   2.974   1.724 -0.3841  0.2129 -0.2511
19248SOL    HW175354  10.795   2.917   1.669  1.0269 -1.4614  0.0594
19248SOL    HW275355  10.793   2.990   1.802 -0.2621 -1.9583  0.3364
19249SOL     OW75356   5.004   0.964  10.828  0.1704  0.5112 -0.4377
19249SOL    HW175357   5.055   0.995  10.753  0.9920 -0.0823 -0.1458
19249SOL    HW275358   4.966   1.043  10.865  0.9644  0.9899 -0.6114
19250SOL     OW75359  13.241   4.357   1.194 -0.1823  0.0973 -0.0756
19250SOL    HW175360  13.293   4.321   1.122 -1.1485 -0.7445 -0.3714
19250SOL    HW275361  13.293   4.430   1.227  0.6409 -0.0050 -1.1108
19251SOL     OW75362   6.133   1.045   6.286  0.2944 -0.2067  0.0071
19251SOL    HW175363   6.172   1.120   6.331  0.1975 -0.4496  0.5128
19251SOL    HW275364   6.207   0.987   6.266  0.3539 -0.0341 -0.2695
19252SOL     OW75365   1.664   2.962   2.840  0.0304  0.1013  0.1047
19252SOL    HW175366   1.608   3.020   2.788 -0.4946 -1.0827 -0.7088
19252SOL    HW275367   1.750   3.003   2.839 -0.6343  1.5946  0.7779
19253SOL     OW75368   1.649   3.967   4.180  0.1448  0.1280 -0.1384
19253SOL    HW175369   1.629   4.059   4.164 -0.0827 -0.1065 -1.2668
19253SOL    HW275370   1.696   3.967   4.263 -0.3188  1.2017  0.1422
19254SOL     OW75371  10.224   3.394   2.162 -0.0360  0.5106 -0.4846
19254SOL    HW175372  10.200   3.472   2.111 -1.0123  0.2046 -0.5102
19254SOL    HW275373  10.208   3.321   2.102 -1.1776  0.1463  0.2229
19255SOL     OW75374  11.158  11.239  12.246  0.0327  0.0853 -0.0000
19255SOL    HW175375  11.075  11.213  12.286 -0.3195 -0.0637 -0.8226
19255SOL    HW275376  11.156  11.202  12.158  0.0450  1.8261 -0.7847
19256SOL     OW75377   6.347   3.777  11.632 -0.2687  0.0052  0.6585
19256SOL    HW175378   6.441   3.760  11.624  0.0001  1.4569  0.4532
19256SOL    HW275379   6.309   3.739  11.553  0.1890 -0.2253  0.5432
19257SOL     OW75380   2.585   7.085  11.011 -0.2329 -0.4113 -0.3206
19257SOL    HW175381   2.525   7.016  11.040  0.7324 -0.3363  2.0262
19257SOL    HW275382   2.555   7.106  10.922 -4.3817  0.3256  1.0150
19258SOL     OW75383   4.007   3.215  10.596  0.4854  0.0891  0.2528
19258SOL    HW175384   4.049   3.255  10.673  1.0882 -0.1408  0.0513
19258SOL    HW275385   4.043   3.126  10.593  2.1662  0.7388 -1.5191
19259SOL     OW75386   5.255   7.350  10.502  0.2409 -0.3319  0.3692
19259SOL    HW175387   5.274   7.329  10.410  1.0124  0.6193  0.2843
19259SOL    HW275388   5.334   7.324  10.549 -1.2126 -3.6176  1.2993
19260SOL     OW75389  11.008   0.857   4.492 -0.1096  0.0097  0.3451
19260SOL    HW175390  11.014   0.830   4.584  3.0123  1.4940  0.7343
19260SOL    HW275391  10.970   0.945   4.495 -0.1585 -0.0074  0.2176
19261SOL     OW75392   5.350  12.950   2.587 -0.6884  0.1073 -0.4623
19261SOL    HW175393   5.441  12.961   2.558 -0.6046 -2.3813 -1.4228
19261SOL    HW275394   5.319  13.039   2.605  0.7778  1.4245 -3.7060
19262SOL     OW75395   0.779   3.973   7.057 -0.5235  0.0934  0.3280
19262SOL    HW175396   0.789   3.939   7.146 -1.3965  0.0564  0.4199
19262SOL    HW275397   0.780   4.068   7.067 -2.3492  0.1163  0.6149
19263SOL     OW75398   3.810   0.226   5.255 -0.1722 -0.7608  0.0997
19263SOL    HW175399   3.798   0.144   5.207 -0.7202 -0.8892  0.4347
19263SOL    HW275400   3.793   0.202   5.347  0.9437 -0.5456  0.3753
19264SOL     OW75401   0.612   8.485  11.615  0.3073 -0.8758 -1.0114
19264SOL    HW175402   0.581   8.573  11.594 -0.8015 -0.3402  2.3212
19264SOL    HW275403   0.601   8.436  11.534 -2.0941  1.2662 -2.1123
19265SOL     OW75404  12.356  10.766   6.996 -0.4918 -0.6708 -0.1837
19265SOL    HW175405  12.273  10.795   7.034 -1.4250 -0.0162 -2.5551
19265SOL    HW275406  12.339  10.678   6.964  0.4383 -1.4208  1.2955
19266SOL     OW75407  11.077   7.907   3.024 -0.0118  0.1672  0.1024
19266SOL    HW175408  11.032   7.864   3.097  3.6322 -1.7146  1.4999
19266SOL    HW275409  11.052   7.856   2.947 -0.4969 -0.6539  0.7835
19267SOL     OW75410  10.561   5.921   3.947  0.1007  0.7179  0.6686
19267SOL    HW175411  10.633   5.967   3.903  0.4006  0.2185  0.6322
19267SOL    HW275412  10.494   5.988   3.958 -0.5393  0.5661 -1.7739
19268SOL     OW75413   2.611   7.334   8.208 -0.0076 -0.2671 -0.0738
19268SOL    HW175414   2.624   7.269   8.140  0.5652 -0.1841 -0.0524
19268SOL    HW275415   2.685   7.394   8.199 -1.2099  1.1481 -0.9354
19269SOL     OW75416  12.591   6.061  11.302 -0.2177 -0.1599  0.8715
19269SOL    HW175417  12.579   6.022  11.216 -1.8089  1.3213  0.3551
19269SOL    HW275418  12.616   6.152  11.284 -3.0209  0.9065  1.8504
19270SOL     OW75419  13.664   7.467   5.699 -0.8014  0.3726 -0.2126
19270SOL    HW175420  13.573   7.494   5.710 -0.3963  1.5673  0.3592
19270SOL    HW275421  13.707   7.543   5.661  0.4508  0.7313  1.7585
19271SOL     OW75422  10.726   3.929   3.752 -0.0195 -0.3097 -0.0679
19271SOL    HW175423  10.702   4.018   3.777 -0.2561 -0.2513 -0.5023
19271SOL    HW275424  10.813   3.938   3.713  0.1182 -0.3239  0.2330
19272SOL     OW75425   5.609   0.012   9.805 -0.2828  0.1450  0.1714
19272SOL    HW175426   5.697   0.035   9.833 -0.2288  0.1941 -0.0303
19272SOL    HW275427   5.613   0.018   9.709  0.0250 -1.7333  0.0171
19273SOL     OW75428   0.128   7.262  10.393  0.2676 -0.1740 -0.4231
19273SOL    HW175429   0.033   7.274  10.390  0.1393 -0.5602  1.2233
19273SOL    HW275430   0.143   7.179  10.347 -0.2530 -0.3953 -0.2022
19274SOL     OW75431  10.840  13.205   6.971 -0.5537  0.4262  0.1897
19274SOL    HW175432  10.823  13.254   6.891 -0.1408  0.2212 -0.0306
19274SOL    HW275433  10.754  13.190   7.009 -0.9619 -1.1433 -1.2130
19275SOL     OW75434  12.995   2.722   4.997  0.0077 -0.5075 -0.1312
19275SOL    HW175435  12.996   2.626   5.005  0.7133 -0.5661 -0.7818
19275SOL    HW275436  12.916   2.740   4.945 -1.0265 -0.5916  1.3461
19276SOL     OW75437   9.149  13.802  13.582  0.3525 -0.8395  0.0730
19276SOL    HW175438   9.115  13.882  13.541  0.6300 -1.3140 -1.1371
19276SOL    HW275439   9.217  13.832  13.642  0.0827 -0.1291  0.0319
19277SOL     OW75440   0.351  13.124   8.959 -0.2662 -0.1584  0.4134
19277SOL    HW175441   0.367  13.031   8.943 -2.5950 -0.5599  0.1136
19277SOL    HW275442   0.266  13.127   9.002 -0.8825  1.9037 -0.8334
19278SOL     OW75443   1.708   6.124   2.081 -0.7055 -0.0643 -0.4469
19278SOL    HW175444   1.722   6.201   2.026 -0.5802  0.0999 -0.1840
19278SOL    HW275445   1.742   6.149   2.167  0.6097 -0.8976 -0.6984
19279SOL     OW75446   2.056  12.472   7.957  0.1036 -0.2114 -0.1009
19279SOL    HW175447   2.076  12.518   8.038 -1.9801  0.4183  0.1311
19279SOL    HW275448   2.057  12.379   7.981  1.1402 -0.1256  0.2180
19280SOL     OW75449   1.574   8.466  10.837  0.5178  0.7630  0.1753
19280SOL    HW175450   1.666   8.489  10.827  0.5245  0.1373 -1.5822
19280SOL    HW275451   1.527   8.548  10.818  0.6816  0.5753 -1.1804
19281SOL     OW75452   7.187   5.752   1.541  0.7607 -0.0250  0.5114
19281SOL    HW175453   7.135   5.804   1.481 -0.6210  0.0432  1.7247
19281SOL    HW275454   7.144   5.667   1.544  1.9914 -0.7035 -0.1133
19282SOL     OW75455   1.043   7.512   4.074  0.0383  0.8049 -0.0499
19282SOL    HW175456   1.096   7.509   4.154 -1.7295 -0.1971  1.1556
19282SOL    HW275457   0.954   7.493   4.104 -0.9809  2.1162 -2.0329
19283SOL     OW75458  10.370   1.979   9.490 -0.1007  0.2760  0.1882
19283SOL    HW175459  10.413   2.064   9.477  2.5274 -0.8723  0.5631
19283SOL    HW275460  10.394   1.929   9.413 -0.0894 -0.6757  0.7998
19284SOL     OW75461  11.414   4.057   5.098 -0.2186  0.0842  0.0230
19284SOL    HW175462  11.370   4.038   5.181 -0.0983  0.3495  0.1498
19284SOL    HW275463  11.427   3.971   5.057 -2.3554  0.0943 -0.7951
19285SOL     OW75464   4.970  13.202  10.267  0.1834 -0.4002 -0.1082
19285SOL    HW175465   4.878  13.197  10.241  0.1794  0.3069 -0.2364
19285SOL    HW275466   4.984  13.293  10.290  2.0376  0.7804 -4.6759
19286SOL     OW75467   7.693  12.712  13.933 -0.5769 -0.3689 -0.1051
19286SOL    HW175468   7.772  12.698  13.880 -0.1828  0.2359  0.3031
19286SOL    HW275469   7.624  12.666  13.886 -0.2994  0.4232 -1.3222
19287SOL     OW75470  13.833   1.279  11.390 -0.3083  0.3462 -0.0633
19287SOL    HW175471  13.797   1.326  11.315  0.8105 -2.5184 -2.5864
19287SOL    HW275472  13.927   1.276  11.373 -0.3758 -3.4073 -0.5774
19288SOL     OW75473  12.119   7.984   2.986  0.0306  0.1517 -0.2728
19288SOL    HW175474  12.194   7.982   3.045  1.0381 -0.4475 -1.5407
19288SOL    HW275475  12.078   7.898   2.996  0.6701 -0.2460 -1.0230
19289SOL     OW75476   1.562   1.330   0.288 -0.2664  0.0391  0.2564
19289SOL    HW175477   1.631   1.275   0.326 -0.8824 -0.3765  0.8129
19289SOL    HW275478   1.481   1.284   0.310 -0.7480  0.7427 -0.0129
19290SOL     OW75479   0.891   7.415   0.696 -0.6116 -0.0642  0.2738
19290SOL    HW175480   0.875   7.508   0.714  2.4235  1.0668 -1.8168
19290SOL    HW275481   0.912   7.377   0.781  2.1636  2.2731  0.8359
19291SOL     OW75482  12.177   7.208  11.692  0.4742 -0.2884 -0.2214
19291SOL    HW175483  12.210   7.123  11.721 -0.6616  0.1773  2.7557
19291SOL    HW275484  12.242   7.271  11.722  0.2053  0.0720 -0.3844
19292SOL     OW75485   1.242   6.813   3.424  0.1732 -0.2907  0.4596
19292SOL    HW175486   1.319   6.771   3.385  0.4649  0.5114  0.1355
19292SOL    HW275487   1.257   6.907   3.409 -0.4311 -0.0685  1.2055
19293SOL     OW75488   2.280  12.349   1.289  0.3196  0.0654 -0.3061
19293SOL    HW175489   2.252  12.386   1.205  1.2498 -1.7068 -1.4803
19293SOL    HW275490   2.375  12.361   1.289  0.5428 -1.4631 -0.3485
19294SOL     OW75491   2.105  13.106   2.225  0.2082  0.4841  0.5277
19294SOL    HW175492   2.065  13.020   2.209  1.3823 -0.0092  0.0670
19294SOL    HW275493   2.198  13.086   2.239  0.7295  1.7828 -0.8156
19295SOL     OW75494   0.964   1.209   8.269  0.3081 -0.1069  0.7035
19295SOL    HW175495   1.029   1.158   8.318  1.1271 -2.3083 -2.3519
19295SOL    HW275496   1.015   1.256   8.203 -1.0002 -0.7793 -0.8700
19296SOL     OW75497   3.866   4.081   7.696  0.0377 -0.0133 -0.4860
19296SOL    HW175498   3.812   4.010   7.661 -2.5402  0.8769  1.3177
19296SOL    HW275499   3.849   4.079   7.790  0.6841  2.3657 -0.2563
19297SOL     OW75500   0.693   6.858  12.091  0.6525  0.3857  0.5019
19297SOL    HW175501   0.598   6.855  12.085  0.6086  1.1575  0.7673
19297SOL    HW275502   0.723   6.785  12.036 -0.0809  0.2230  0.3143
19298SOL     OW75503   7.500   0.957   6.487  0.1458 -0.3867  1.0031
19298SOL    HW175504   7.436   0.888   6.471  1.0658 -0.8539 -0.9016
19298SOL    HW275505   7.575   0.912   6.525  0.8976 -0.5222 -0.6063
19299SOL     OW75506   0.520  12.980   1.014 -0.2194 -0.0812 -0.4482
19299SOL    HW175507   0.440  12.931   1.034  0.2616 -0.7253 -0.0131
19299SOL    HW275508   0.502  13.069   1.043 -1.0046 -0.0692 -0.9512
19300SOL     OW75509   6.885   2.199   9.903 -0.1775  0.1006  0.2952
19300SOL    HW175510   6.811   2.151   9.868  0.8975 -0.7209 -0.9295
19300SOL    HW275511   6.938   2.132   9.947  0.2624  0.5359  0.4363
19301SOL     OW75512  12.166   5.940   5.602 -0.1428 -0.1768  0.1010
19301SOL    HW175513  12.200   6.029   5.615  1.5488 -0.8418  0.5452
19301SOL    HW275514  12.230   5.898   5.546 -0.9315 -1.1229 -0.1106
19302SOL     OW75515  12.141   3.117  14.034 -0.5000 -0.1671 -0.9356
19302SOL    HW175516  12.149   3.212  14.031 -0.8280 -0.0752  0.4839
19302SOL    HW275517  12.228   3.084  14.012 -0.1459  0.4817 -0.5270
19303SOL     OW75518   8.207  10.981  10.136 -0.3587  0.1530  0.1346
19303SOL    HW175519   8.126  10.994  10.086  0.8808 -1.2159 -2.3978
19303SOL    HW275520   8.180  10.928  10.211 -1.9351  0.4056 -0.2027
19304SOL     OW75521  12.593   2.204  13.467 -0.9033 -0.0588  0.2947
19304SOL    HW175522  12.565   2.201  13.376 -0.1520  3.8084 -0.2242
19304SOL    HW275523  12.666   2.143  13.472 -0.9414 -0.3307 -1.6821
19305SOL     OW75524   6.193   9.611   9.994 -0.1869  0.0050  0.6940
19305SOL    HW175525   6.181   9.637  10.086 -0.8321  0.9180  0.3678
19305SOL    HW275526   6.115   9.561   9.972  0.3148 -0.8660  0.8474
19306SOL     OW75527  13.938   5.349   2.880  0.2990 -0.8180 -0.8944
19306SOL    HW175528  14.007   5.415   2.875 -0.6368  0.7099  3.0285
19306SOL    HW275529  13.976   5.279   2.934 -0.2981 -1.2574 -1.0331
19307SOL     OW75530  11.375   5.798   6.941 -0.2208 -0.4387  0.1641
19307SOL    HW175531  11.455   5.774   6.988  0.9331 -2.1902 -2.4385
19307SOL    HW275532  11.402   5.872   6.886 -1.3317  1.0876  1.6070
19308SOL     OW75533   4.063   8.955   5.799 -0.1815 -0.4018 -0.4355
19308SOL    HW175534   3.989   8.934   5.742 -0.3679  1.1989 -0.8308
19308SOL    HW275535   4.083   9.046   5.779 -0.2482  0.2165  2.0926
19309SOL     OW75536   2.434  12.477  11.133  0.0738  0.3312 -0.3068
19309SOL    HW175537   2.446  12.567  11.102  0.7033 -0.0545 -1.2682
19309SOL    HW275538   2.353  12.448  11.091 -0.1741  0.4851  0.0717
19310SOL     OW75539   8.573  14.068  11.200  0.2946  0.7037 -0.4580
19310SOL    HW175540   8.593  14.012  11.275  0.0253  1.0761 -0.1017
19310SOL    HW275541   8.636  14.140  11.207  0.4146  0.6229 -0.7153
19311SOL     OW75542  13.631   2.945   8.186 -0.1028 -0.6517 -0.0880
19311SOL    HW175543  13.667   2.952   8.098 -1.5525 -0.8942 -0.7223
19311SOL    HW275544  13.613   2.852   8.198  0.2877 -0.6511  0.5554
19312SOL     OW75545   1.419   3.792  13.410 -0.0073 -0.1520  0.0747
19312SOL    HW175546   1.409   3.886  13.399 -3.4026 -0.3787  0.1792
19312SOL    HW275547   1.380   3.774  13.496 -0.7543 -1.7826 -0.5696
19313SOL     OW75548   6.587   0.685  11.012 -0.4126  0.3833 -0.2500
19313SOL    HW175549   6.617   0.683  11.103  0.7233  0.5557 -0.6091
19313SOL    HW275550   6.663   0.659  10.961 -0.7736  1.1646 -1.2186
19314SOL     OW75551   8.951   3.807   2.463  0.6259  0.1443  0.3196
19314SOL    HW175552   8.941   3.883   2.405 -0.7238 -0.2604 -0.0219
19314SOL    HW275553   9.027   3.761   2.428  1.0017  0.9363  0.0657
19315SOL     OW75554   9.704   4.077   6.208 -0.0505  0.3936 -0.6012
19315SOL    HW175555   9.664   4.064   6.122 -0.1270 -0.0673 -0.4998
19315SOL    HW275556   9.729   3.989   6.236  0.0753  0.5559 -0.2010
19316SOL     OW75557  11.563   2.075  11.317  0.0138 -0.2730  0.5890
19316SOL    HW175558  11.493   2.013  11.337 -0.4120 -0.3083 -0.8624
19316SOL    HW275559  11.542   2.153  11.368 -2.8252  0.8435 -2.0176
19317SOL     OW75560  10.916   0.583   8.014 -0.5982 -0.1877 -0.0227
19317SOL    HW175561  10.997   0.540   8.042  0.3106  1.4845  0.0255
19317SOL    HW275562  10.847   0.534   8.058  0.6090  0.7200  3.1447
19318SOL     OW75563   2.612   7.116   8.921  0.0935 -0.7413 -0.2085
19318SOL    HW175564   2.597   7.210   8.915  1.2848 -0.5019  0.2886
19318SOL    HW275565   2.693   7.107   8.973 -1.3223 -2.1173  1.9243
19319SOL     OW75566  11.340   1.439   4.996 -0.4553 -0.2461  0.5690
19319SOL    HW175567  11.331   1.534   4.992 -2.4676 -0.4048 -0.4377
19319SOL    HW275568  11.432   1.424   5.014 -0.0788  1.8935  0.7117
19320SOL     OW75569   9.620   5.249   0.708  0.0881 -0.2438  0.3722
19320SOL    HW175570   9.635   5.166   0.753 -0.6623 -0.8760 -0.5131
19320SOL    HW275571   9.528   5.247   0.683  0.1847  0.6358 -0.0869
19321SOL     OW75572  10.417   5.361  13.529 -0.2014  0.1223 -0.0405
19321SOL    HW175573  10.331   5.381  13.566  0.3723  0.5226  1.1284
19321SOL    HW275574  10.401   5.288  13.469 -1.3793  0.3146  0.0167
19322SOL     OW75575   1.187   7.271   5.865 -0.1633  0.3342  0.3646
19322SOL    HW175576   1.203   7.336   5.796  0.4273 -0.8007 -0.6185
19322SOL    HW275577   1.100   7.291   5.898 -0.8326  0.3963 -1.3329
19323SOL     OW75578   4.972   9.832   4.709 -0.0589  0.1863 -0.2979
19323SOL    HW175579   4.984   9.764   4.642 -0.0841  0.7160 -0.8479
19323SOL    HW275580   5.040   9.897   4.690 -1.3232  1.3353 -1.0736
19324SOL     OW75581  10.099  12.996  10.025 -0.4434 -0.1584  0.4671
19324SOL    HW175582  10.141  13.052   9.959  1.4337  0.8367  2.3553
19324SOL    HW275583  10.059  13.058  10.086 -1.2634 -1.0206  0.8208
19325SOL     OW75584   4.659   1.361   4.582 -0.5685  0.2817  0.5269
19325SOL    HW175585   4.686   1.354   4.673  1.2332 -1.3568 -0.0780
19325SOL    HW275586   4.730   1.409   4.539 -1.7361  1.6874  0.0799
19326SOL     OW75587   5.141   4.118  12.096  0.0270  0.5779  0.3266
19326SOL    HW175588   5.164   4.176  12.169 -1.8365 -1.0284  2.3161
19326SOL    HW275589   5.054   4.148  12.068  0.7370  1.1979 -1.3247
19327SOL     OW75590  13.499  12.044  11.902 -0.4626  0.7792  0.0432
19327SOL    HW175591  13.477  11.999  11.820  2.0689 -0.9922  0.2147
19327SOL    HW275592  13.541  11.977  11.956  1.3241  2.7778  1.2996
19328SOL     OW75593   8.247   2.226   2.106  0.1141 -0.1289  0.2829
19328SOL    HW175594   8.201   2.164   2.163 -1.9406 -0.1347 -1.2791
19328SOL    HW275595   8.191   2.304   2.106 -0.0234 -0.1806 -1.7695
19329SOL     OW75596  10.753   8.977   4.385 -0.2839  0.1430 -0.1199
19329SOL    HW175597  10.848   8.979   4.396 -0.3015 -0.6689  0.2539
19329SOL    HW275598  10.740   8.959   4.292 -0.1014  1.9036 -0.5295
19330SOL     OW75599   2.679   4.470  13.212 -0.1093  0.7015  0.0378
19330SOL    HW175600   2.691   4.419  13.292  2.9240 -0.3052 -0.9328
19330SOL    HW275601   2.710   4.558  13.234  0.1724  0.5760  0.1475
19331SOL     OW75602  12.364  10.604   7.355 -0.2942 -0.6335  0.3674
19331SOL    HW175603  12.302  10.589   7.427  0.4944 -0.1476  1.1606
19331SOL    HW275604  12.449  10.617   7.398 -0.1150  1.5677 -0.5130
19332SOL     OW75605  12.146   9.619  13.844  0.2296 -0.2756  0.0496
19332SOL    HW175606  12.104   9.705  13.846  2.0891  0.6696  1.2113
19332SOL    HW275607  12.122   9.579  13.927  1.6829  0.3458  0.8046
19333SOL     OW75608  10.300  13.319   2.249  0.4011 -0.2109  0.2281
19333SOL    HW175609  10.307  13.306   2.154 -0.0576 -0.1947  0.1876
19333SOL    HW275610  10.390  13.319   2.280  0.5514 -0.3127 -0.1969
19334SOL     OW75611   7.788   3.167   9.058 -0.0769  0.2465  0.5939
19334SOL    HW175612   7.848   3.094   9.073  0.4176  0.8426  1.6352
19334SOL    HW275613   7.702   3.126   9.046 -0.2235 -0.4645  3.3510
19335SOL     OW75614  11.366  11.046   8.226 -0.1351 -0.0538 -0.3615
19335SOL    HW175615  11.346  11.104   8.300  0.5742 -1.2785  0.8408
19335SOL    HW275616  11.296  10.980   8.229 -0.2782  0.0657 -0.9903
19336SOL     OW75617   7.961   2.442   9.438 -0.8668 -0.2855 -0.2628
19336SOL    HW175618   7.883   2.482   9.476 -0.0183  0.4938  0.7312
19336SOL    HW275619   7.977   2.365   9.492 -0.0276  0.4711  0.6204
19337SOL     OW75620  11.904  11.559   5.413 -0.3264 -0.0229 -0.4009
19337SOL    HW175621  11.815  11.582   5.387  0.0488  0.0075 -1.7504
19337SOL    HW275622  11.951  11.642   5.414 -0.3454 -0.0129  0.5048
19338SOL     OW75623   3.950  10.867   5.671  0.0147  0.2017  0.5441
19338SOL    HW175624   3.927  10.920   5.594 -1.3505  0.0682  0.8435
19338SOL    HW275625   3.937  10.926   5.745 -0.7542 -0.2988  0.8217
19339SOL     OW75626   5.174   7.583   5.624 -0.1152  0.1447  0.0221
19339SOL    HW175627   5.129   7.630   5.695  0.1813  0.9455 -0.3091
19339SOL    HW275628   5.241   7.531   5.668  1.2323  1.9733  0.2201
19340SOL     OW75629  13.484   4.944  10.505 -1.0330 -0.0146 -0.1968
19340SOL    HW175630  13.517   4.950  10.416 -0.2928  0.1367  0.0812
19340SOL    HW275631  13.428   4.866  10.505 -1.0896  0.0224 -0.8010
19341SOL     OW75632   9.487   8.536   1.677 -0.4361  0.7463 -0.0557
19341SOL    HW175633   9.514   8.545   1.586 -1.3549  2.0574 -0.2310
19341SOL    HW275634   9.449   8.449   1.683  3.6033 -1.2377  0.1949
19342SOL     OW75635  11.905   3.064  13.879 -0.2494 -0.0596  0.0918
19342SOL    HW175636  11.878   2.973  13.888  0.8994 -0.4881 -0.6018
19342SOL    HW275637  11.963   3.079  13.954  0.4786 -0.2708 -0.4111
19343SOL     OW75638   5.258  12.949   0.463  0.6673  0.1957 -0.1759
19343SOL    HW175639   5.261  13.021   0.526 -0.4346  0.5634 -0.5276
19343SOL    HW275640   5.165  12.936   0.445  0.9599  0.5595 -2.2337
19344SOL     OW75641   5.176   2.098   5.322  0.1919  0.0946  0.0809
19344SOL    HW175642   5.245   2.060   5.377  0.1960 -2.1082 -1.3074
19344SOL    HW275643   5.100   2.041   5.337  0.1870 -0.5596 -2.0875
19345SOL     OW75644   1.571  12.715  12.095 -0.3134  0.1543  0.1720
19345SOL    HW175645   1.618  12.671  12.166 -0.6303  0.1547  0.3829
19345SOL    HW275646   1.486  12.672  12.092  0.6499 -1.8488 -2.1100
19346SOL     OW75647   6.010  10.044   2.996  0.1526 -0.3077 -0.2166
19346SOL    HW175648   6.001  10.030   3.090  1.4082 -0.1490 -0.0542
19346SOL    HW275649   5.995  10.137   2.984  0.1908 -0.2919 -0.1428
19347SOL     OW75650   9.325   8.146   0.068  0.1687  0.2201  0.4223
19347SOL    HW175651   9.283   8.062   0.051  0.0094  0.5038 -0.7087
19347SOL    HW275652   9.312   8.161   0.161  0.7916 -1.3182  0.7803
19348SOL     OW75653   8.531  11.260   8.936  0.1638 -0.3142 -0.2040
19348SOL    HW175654   8.615  11.265   8.983  0.4467 -1.5547 -0.5311
19348SOL    HW275655   8.551  11.209   8.857 -0.7728 -0.0867 -0.6039
19349SOL     OW75656   2.890   8.237   2.984  0.5322 -0.2288 -0.2210
19349SOL    HW175657   2.888   8.318   3.035  1.3370  0.2318 -0.9024
19349SOL    HW275658   2.835   8.255   2.908  2.8932  0.7112 -1.8213
19350SOL     OW75659  11.259  12.391   9.421 -0.1263 -0.3932  0.1198
19350SOL    HW175660  11.242  12.468   9.366 -0.8931 -0.9560 -0.4613
19350SOL    HW275661  11.351  12.399   9.446  0.1986 -0.0160 -1.1120
19351SOL     OW75662   3.875  12.645   6.323  0.1913  0.3932  0.8477
19351SOL    HW175663   3.954  12.666   6.273 -0.6597  2.9300  0.4235
19351SOL    HW275664   3.898  12.567   6.373  1.7727 -1.0884 -1.9394
19352SOL     OW75665  11.320   4.339   0.524  0.1778  0.4768  0.0172
19352SOL    HW175666  11.303   4.319   0.432 -0.1856  2.6249 -0.4453
19352SOL    HW275667  11.246   4.301   0.570  1.1992 -2.0961 -0.3105
19353SOL     OW75668  11.989   9.520   1.644 -0.0013  0.0950 -0.4630
19353SOL    HW175669  12.022   9.510   1.733  0.0016  0.1453 -0.4582
19353SOL    HW275670  11.909   9.572   1.654  0.2339  0.4744 -0.5322
19354SOL     OW75671   6.421  11.330  12.860  0.0903 -0.3184 -0.2305
19354SOL    HW175672   6.482  11.382  12.913  2.9137 -1.7915 -1.7885
19354SOL    HW275673   6.447  11.349  12.769 -0.2769 -2.6691 -0.8853
19355SOL     OW75674   7.053   3.192   7.750 -0.6496  0.0542  0.3330
19355SOL    HW175675   7.039   3.281   7.781 -1.2921  0.6181 -1.4497
19355SOL    HW275676   7.148   3.182   7.746 -0.5572  1.1559 -0.7259
19356SOL     OW75677   7.957   5.219  13.757  0.1868 -0.1097  0.6337
19356SOL    HW175678   8.002   5.189  13.678 -0.3820  0.8953 -0.0915
19356SOL    HW275679   8.017   5.282  13.796 -0.6875  1.5379 -0.5512
19357SOL     OW75680   6.558  11.112   2.857 -0.3006  0.4866  0.4518
19357SOL    HW175681   6.539  11.023   2.886  0.4865  0.2423  0.2350
19357SOL    HW275682   6.609  11.100   2.777 -2.6728  1.1161 -1.2758
19358SOL     OW75683  11.872   4.306  11.945  0.3136 -0.0810 -0.4112
19358SOL    HW175684  11.785   4.286  11.981  0.4197 -0.3284 -0.2861
19358SOL    HW275685  11.924   4.228  11.965  0.7532  0.3460  0.1272
19359SOL     OW75686   5.704  14.081   3.153  0.1688 -0.0321  0.5393
19359SOL    HW175687   5.621  14.084   3.202 -0.7122  1.9857 -0.9004
19359SOL    HW275688   5.677  14.059   3.063  1.3707 -0.6903  0.3301
19360SOL     OW75689   1.970   5.041   5.576 -0.0229 -0.3063 -0.0909
19360SOL    HW175690   2.049   5.079   5.613  0.9866  0.2169 -2.5574
19360SOL    HW275691   1.898   5.087   5.620  1.0069 -0.4410  1.8453
19361SOL     OW75692   6.587   2.358   4.821 -0.1069 -0.0524  0.4125
19361SOL    HW175693   6.536   2.281   4.847  0.7331 -0.4575  0.9271
19361SOL    HW275694   6.639   2.379   4.898  1.5906 -0.5718 -0.5358
19362SOL     OW75695  12.241   1.996   3.644  0.3999 -0.9954 -0.1051
19362SOL    HW175696  12.301   2.008   3.718 -0.2231  2.3060  0.0230
19362SOL    HW275697  12.283   2.043   3.572 -0.5224 -1.4165 -0.9304
19363SOL     OW75698   2.999   5.380   0.836 -0.8705 -0.1900  0.5002
19363SOL    HW175699   3.003   5.390   0.741 -1.1245 -0.2299  0.4864
19363SOL    HW275700   2.953   5.458   0.867 -0.2621  0.1196  0.6441
19364SOL     OW75701   7.246   3.171   8.051 -0.0336  0.3689  0.4343
19364SOL    HW175702   7.207   3.091   8.084  3.1089 -0.6237  2.1227
19364SOL    HW275703   7.218   3.239   8.112  0.9591 -0.3701  1.7653
19365SOL     OW75704   4.363   0.868   0.621 -0.0382  0.4634  0.3919
19365SOL    HW175705   4.303   0.813   0.671 -0.5185  1.1634  0.5946
19365SOL    HW275706   4.447   0.858   0.665 -0.1550  0.0097  0.5185
19366SOL     OW75707   4.141  12.293   6.626  0.1511  0.0674 -0.2406
19366SOL    HW175708   4.155  12.200   6.638 -0.0943  0.1184  0.4518
19366SOL    HW275709   4.190  12.335   6.697 -1.4822  0.3582  0.7631
19367SOL     OW75710   9.224   9.275   7.781  0.2654  0.3255 -0.4277
19367SOL    HW175711   9.243   9.362   7.817  1.6027  0.6481 -1.8321
19367SOL    HW275712   9.211   9.290   7.687 -2.4862 -0.5941 -0.2793
19368SOL     OW75713  12.333   2.023  12.057  0.4250  0.2128 -0.0717
19368SOL    HW175714  12.429   2.022  12.054  0.4071  0.4576 -1.6154
19368SOL    HW275715  12.311   1.995  12.146  1.9484  1.2456  0.6725
19369SOL     OW75716   6.568   0.220   9.397 -0.2580 -0.2346 -0.3628
19369SOL    HW175717   6.657   0.233   9.365 -0.3773  0.8076 -0.3261
19369SOL    HW275718   6.537   0.309   9.418 -1.0879 -0.6409  0.1948
19370SOL     OW75719   9.115  12.285  12.170  0.5778  0.9527  0.3278
19370SOL    HW175720   9.036  12.232  12.168  1.7362 -1.0722  2.2722
19370SOL    HW275721   9.159  12.266  12.087  0.6157 -0.6307  0.6814
19371SOL     OW75722  10.540  12.763   7.358  0.1893 -0.5993  0.1221
19371SOL    HW175723  10.496  12.682   7.335 -0.1064 -0.4010 -0.0198
19371SOL    HW275724  10.615  12.769   7.298 -1.0866  0.3690 -1.4640
19372SOL     OW75725  10.909  12.237  11.413  0.7007 -0.3371  0.1186
19372SOL    HW175726  10.900  12.333  11.410  1.5813 -0.2558 -0.1387
19372SOL    HW275727  10.824  12.205  11.385  0.7772  0.3809 -1.0083
19373SOL     OW75728   3.046   6.917   8.523 -0.2179 -0.7219 -0.0146
19373SOL    HW175729   3.086   6.997   8.489  1.4815 -1.7454 -0.5041
19373SOL    HW275730   2.954   6.924   8.496 -0.3212  1.4455  0.7022
19374SOL     OW75731   1.458  13.965   2.713 -0.1288  0.3981 -0.2550
19374SOL    HW175732   1.549  13.938   2.700  0.4443  0.5626  2.7025
19374SOL    HW275733   1.420  13.895   2.765 -1.2203  1.0918 -0.0981
19375SOL     OW75734   5.439  13.116   8.416 -0.1057  0.1443  0.2108
19375SOL    HW175735   5.411  13.201   8.450  0.9077 -0.0022  1.4774
19375SOL    HW275736   5.405  13.053   8.480 -3.3339 -0.7629 -2.1270
19376SOL     OW75737   4.681   0.912   2.528 -0.4067  0.3464  0.1978
19376SOL    HW175738   4.632   0.993   2.542  0.1277  0.3934  2.0831
19376SOL    HW275739   4.771   0.941   2.510 -0.3032  0.1932  0.4567
19377SOL     OW75740   0.409  10.106   4.823  0.0723  0.5467 -0.4940
19377SOL    HW175741   0.382  10.197   4.811  0.5627  0.9165  1.0142
19377SOL    HW275742   0.381  10.084   4.911 -2.8423 -1.8335 -1.8719
19378SOL     OW75743   2.513   4.680   5.204 -0.7675  0.0380 -0.6583
19378SOL    HW175744   2.607   4.696   5.212 -0.6898 -0.8849  0.5294
19378SOL    HW275745   2.476   4.715   5.285 -0.8700 -3.3684  0.9366
19379SOL     OW75746   6.323   1.182   4.157 -0.6387  0.1600  0.9049
19379SOL    HW175747   6.237   1.155   4.124  0.4202 -0.2094 -1.8710
19379SOL    HW275748   6.315   1.275   4.174 -1.5093  0.2091  0.2703
19380SOL     OW75749  13.416   3.514   8.537  0.3220  0.2023  0.0021
19380SOL    HW175750  13.326   3.491   8.560 -0.9840  2.6582 -2.1277
19380SOL    HW275751  13.425   3.606   8.561  2.7931 -0.3443  1.4370
19381SOL     OW75752   2.693   1.545   5.789 -0.0905 -0.4578 -0.4731
19381SOL    HW175753   2.614   1.598   5.794 -0.1036 -0.5024 -0.2304
19381SOL    HW275754   2.736   1.556   5.874  1.4938  1.6130 -1.4379
19382SOL     OW75755  10.298  13.659  10.181 -0.0956 -0.5803 -0.7601
19382SOL    HW175756  10.283  13.733  10.122  0.3729 -0.8853 -1.2825
19382SOL    HW275757  10.220  13.655  10.235  0.5147  1.2428  0.3331
19383SOL     OW75758   6.794  11.228   0.078  0.1319 -0.3243  0.3121
19383SOL    HW175759   6.797  11.150   0.134 -1.1452 -0.2778  0.4578
19383SOL    HW275760   6.879  11.270   0.092 -0.2162 -0.2011  2.3887
19384SOL     OW75761   6.387   5.448   5.463  0.3459  0.2694  1.1674
19384SOL    HW175762   6.444   5.439   5.386  0.1876  0.5342  1.0162
19384SOL    HW275763   6.332   5.370   5.462  0.9232 -0.1491  1.4968
19385SOL     OW75764  12.526   0.681   1.465  0.4234 -0.1311 -0.7586
19385SOL    HW175765  12.618   0.658   1.478  0.0466 -2.4010 -1.7114
19385SOL    HW275766  12.514   0.679   1.370 -0.8920 -1.1083 -0.5973
19386SOL     OW75767  10.713   7.034   6.659  0.6420 -0.0916 -0.1356
19386SOL    HW175768  10.721   7.004   6.749  1.8612  2.1540  0.5686
19386SOL    HW275769  10.659   7.113   6.664  1.5459  0.6284 -1.1981
19387SOL     OW75770   2.148   3.893   3.317  0.7528 -0.5809 -0.6648
19387SOL    HW175771   2.162   3.988   3.312 -1.3082 -0.2537 -1.2750
19387SOL    HW275772   2.143   3.865   3.225  0.3520 -1.0930 -0.4948
19388SOL     OW75773   1.539  11.645  10.954  0.4388  0.0243 -0.1887
19388SOL    HW175774   1.486  11.566  10.962  0.6371 -0.0142  1.0779
19388SOL    HW275775   1.484  11.714  10.993  0.8659  0.1971  0.1180
19389SOL     OW75776   6.457  12.207  11.240  0.8618  0.0293  0.2224
19389SOL    HW175777   6.500  12.212  11.154 -0.9238  1.4588 -0.6649
19389SOL    HW275778   6.511  12.260  11.297  1.2330  0.3608 -0.4264
19390SOL     OW75779  13.287   5.608   2.906  0.1841 -0.3944 -0.1550
19390SOL    HW175780  13.270   5.521   2.869  1.5522 -0.3323 -0.9808
19390SOL    HW275781  13.269   5.668   2.833 -0.8101  0.0480  0.4264
19391SOL     OW75782   0.248   3.107   3.731  0.2487  0.0166  0.4079
19391SOL    HW175783   0.186   3.180   3.739 -0.1726 -0.2737 -0.1481
19391SOL    HW275784   0.222   3.062   3.651  1.6234  0.2978 -0.2207
19392SOL     OW75785   0.465   6.363  12.401  0.5786  0.2594 -0.3601
19392SOL    HW175786   0.370   6.373  12.413 -0.0318 -2.8704 -1.5656
19392SOL    HW275787   0.495   6.325  12.483  0.5129 -0.1140 -0.5078
19393SOL     OW75788   0.693  10.346   0.353  0.2811 -0.3522  0.0430
19393SOL    HW175789   0.627  10.281   0.380 -0.6074  1.6823  3.2959
19393SOL    HW275790   0.689  10.344   0.257 -2.1837 -2.6023  0.0435
19394SOL     OW75791   5.782   1.151   6.871 -0.7341 -0.3981  0.4338
19394SOL    HW175792   5.840   1.218   6.909  1.2471 -0.6384 -1.9334
19394SOL    HW275793   5.779   1.172   6.778 -2.2098 -2.1051  0.0442
19395SOL     OW75794  12.000   1.868   3.208 -0.1619  0.5626  0.0843
19395SOL    HW175795  12.047   1.898   3.286 -1.1658  2.1517  0.1118
19395SOL    HW275796  11.944   1.942   3.184 -0.5249 -0.2320 -1.6282
19396SOL     OW75797  10.630   4.318   9.879 -0.7589  0.1390  0.3707
19396SOL    HW175798  10.547   4.295   9.838 -0.9466 -1.0834  1.3848
19396SOL    HW275799  10.629   4.414   9.883 -1.4695  0.2005 -0.9255
19397SOL     OW75800  10.899   1.584   3.875  0.2219 -0.0766  0.2457
19397SOL    HW175801  10.805   1.570   3.861  0.4032 -0.5978 -0.5255
19397SOL    HW275802  10.906   1.605   3.968 -0.8246  1.4294  0.0315
19398SOL     OW75803   5.495  13.879  12.197  0.0517  0.0405 -0.0277
19398SOL    HW175804   5.584  13.858  12.226  1.0066  2.7721 -0.6511
19398SOL    HW275805   5.498  13.868  12.102  0.5993  2.6009 -0.3856
19399SOL     OW75806   7.404   5.336   3.841 -0.5779 -0.1720 -0.2271
19399SOL    HW175807   7.346   5.264   3.868  0.7182 -1.7072 -1.3007
19399SOL    HW275808   7.370   5.362   3.755 -1.5355  1.1132  0.5051
19400SOL     OW75809   9.574   1.322   5.564  0.4011 -0.5975 -0.3818
19400SOL    HW175810   9.554   1.229   5.574 -0.6029 -0.2840  0.8205
19400SOL    HW275811   9.491   1.362   5.538  0.2688  0.2389  1.1753
19401SOL     OW75812   9.392   3.778   6.651 -0.0074 -0.1295 -0.2436
19401SOL    HW175813   9.361   3.714   6.587  0.4378  0.2638 -0.8647
19401SOL    HW275814   9.331   3.770   6.725 -2.3130  1.3694 -1.8593
19402SOL     OW75815  10.776   1.665   7.851 -0.0680  0.4360 -0.1266
19402SOL    HW175816  10.743   1.748   7.816  0.6638  0.5792 -0.4930
19402SOL    HW275817  10.766   1.603   7.779 -1.3111  0.0114  0.3883
19403SOL     OW75818   2.719   6.506   7.414  0.2239 -0.0462 -0.1710
19403SOL    HW175819   2.774   6.494   7.337  2.3722 -0.4791  1.3583
19403SOL    HW275820   2.778   6.495   7.488 -1.5750  1.2362  1.5581
19404SOL     OW75821   6.226  11.434  13.896  0.1237  0.4305 -0.2602
19404SOL    HW175822   6.165  11.452  13.968  0.3151 -0.5282  0.1476
19404SOL    HW275823   6.169  11.417  13.821 -0.1039  0.1265 -0.0237
19405SOL     OW75824   1.234  10.257   7.198  0.2534 -0.0872  0.5435
19405SOL    HW175825   1.223  10.336   7.251 -3.0913 -0.6202  0.9060
19405SOL    HW275826   1.215  10.185   7.259  0.7138 -0.9957 -0.3657
19406SOL     OW75827   1.249  13.549   6.441  0.2109 -0.3497  0.2463
19406SOL    HW175828   1.275  13.613   6.375 -1.8612 -0.6864 -0.9994
19406SOL    HW275829   1.314  13.480   6.435  0.7553  0.2208 -0.5725
19407SOL     OW75830   4.699   6.262   9.553 -0.2223 -0.0856  0.4115
19407SOL    HW175831   4.620   6.273   9.500  0.8137 -0.3401 -1.2692
19407SOL    HW275832   4.756   6.334   9.525  0.4687 -0.4032  0.9840
19408SOL     OW75833   0.271   9.282   9.738 -0.0516  0.0938  0.1647
19408SOL    HW175834   0.325   9.354   9.770 -0.3889 -0.0735  1.1348
19408SOL    HW275835   0.335   9.216   9.709  0.2739  1.2692 -1.9654
19409SOL     OW75836  13.079   7.826  13.229  0.5428 -0.7627  0.1118
19409SOL    HW175837  13.048   7.849  13.316 -0.3579  0.4809 -0.5010
19409SOL    HW275838  13.164   7.870  13.221 -0.5850  1.4361 -0.5767
19410SOL     OW75839   0.035   9.577  10.031 -0.3165 -0.4719 -0.0920
19410SOL    HW175840  -0.023   9.535  10.096 -0.2284 -1.7356 -0.7984
19410SOL    HW275841   0.097   9.508  10.007 -0.2800  0.0186 -1.4365
19411SOL     OW75842  11.487   6.899   0.460 -0.1566  0.3462 -0.2179
19411SOL    HW175843  11.541   6.824   0.434 -1.2194 -1.0034  1.3007
19411SOL    HW275844  11.410   6.893   0.402  1.6516  2.9768 -3.2505
19412SOL     OW75845   9.030   2.169  10.668  0.1359  0.1744 -0.0571
19412SOL    HW175846   9.111   2.124  10.643 -1.1387 -2.8312  0.7320
19412SOL    HW275847   8.984   2.181  10.585 -0.2658 -1.7427 -0.1682
19413SOL     OW75848   8.292   5.748   4.281  0.0081  0.4418 -0.3655
19413SOL    HW175849   8.311   5.702   4.199  0.6303  1.4177 -0.7934
19413SOL    HW275850   8.311   5.684   4.350 -2.8961 -1.2355 -0.9877
19414SOL     OW75851   9.211   3.861   5.573  0.0654  0.2471 -0.1505
19414SOL    HW175852   9.139   3.909   5.534 -0.2435 -0.9287 -1.0998
19414SOL    HW275853   9.185   3.769   5.567  2.4669 -0.4262 -2.4268
19415SOL     OW75854   9.655  13.296   2.228  0.2271 -0.0415  0.8401
19415SOL    HW175855   9.609  13.260   2.152  3.4309 -2.1161 -0.3235
19415SOL    HW275856   9.622  13.244   2.302 -2.0552  1.1948  0.7703
19416SOL     OW75857   0.949   6.008   0.640 -0.4245  0.5780 -0.0852
19416SOL    HW175858   1.026   6.025   0.694  0.6360 -1.5094 -0.8052
19416SOL    HW275859   0.874   6.033   0.694  0.6278 -0.4464  1.9551
19417SOL     OW75860   8.076   3.342   1.674 -0.6658 -0.0146 -0.2404
19417SOL    HW175861   8.073   3.366   1.767  1.1735 -0.5907  0.0124
19417SOL    HW275862   8.116   3.255   1.673  3.8493  1.7798 -1.7287
19418SOL     OW75863  10.233  11.817   2.756 -0.1653 -0.1889 -0.9606
19418SOL    HW175864  10.200  11.800   2.668  0.7552 -2.8309 -0.8978
19418SOL    HW275865  10.154  11.834   2.808 -0.6285  3.0142 -2.4889
19419SOL     OW75866   5.317   9.583  10.444  0.0134  0.1686 -0.0829
19419SOL    HW175867   5.316   9.679  10.443  0.8685  0.1931 -1.0937
19419SOL    HW275868   5.401   9.561  10.483  0.7129 -0.1141 -1.6449
19420SOL     OW75869   0.359   5.386  13.157 -0.3298 -0.3029  0.7287
19420SOL    HW175870   0.355   5.333  13.237 -0.7013 -1.0358  0.2373
19420SOL    HW275871   0.364   5.476  13.189 -2.8843 -0.3815  1.6174
19421SOL     OW75872   4.959   1.916   5.391  0.3767 -0.2509 -0.9445
19421SOL    HW175873   4.916   1.830   5.392  0.7346 -0.4330 -0.0497
19421SOL    HW275874   4.891   1.978   5.415  1.0522 -0.8031  3.2081
19422SOL     OW75875  11.761  11.919   7.047 -0.5017  0.4403  0.9180
19422SOL    HW175876  11.741  11.914   6.954 -0.3654 -1.1072  0.9355
19422SOL    HW275877  11.817  11.995   7.057  0.1662  0.1406 -0.4067
19423SOL     OW75878  12.472  13.773   4.357  0.4360 -0.2013 -0.6379
19423SOL    HW175879  12.390  13.783   4.309 -1.2121 -1.5490  1.6830
19423SOL    HW275880  12.491  13.861   4.389  0.0957  0.1985 -1.4975
19424SOL     OW75881  10.640   2.258  12.248  0.1117 -0.1718 -0.2290
19424SOL    HW175882  10.694   2.179  12.237  1.5226  0.1461  3.3159
19424SOL    HW275883  10.559   2.226  12.286  0.0513 -0.0673 -0.2710
19425SOL     OW75884   8.915   1.974  13.086  0.0612  0.1504  0.1918
19425SOL    HW175885   8.974   1.913  13.041 -0.2346 -0.1666  0.2304
19425SOL    HW275886   8.844   1.989  13.024  0.1484  0.4780  0.1721
19426SOL     OW75887   7.516   9.365   2.380 -0.1676 -0.4523  0.0731
19426SOL    HW175888   7.533   9.319   2.298  0.3529 -2.4200  1.2286
19426SOL    HW275889   7.578   9.327   2.442 -0.6044  0.9336  1.4181
19427SOL     OW75890   5.553   7.938   7.835 -0.2547 -0.3652 -0.5262
19427SOL    HW175891   5.521   7.851   7.857  0.2099 -0.4182 -0.0488
19427SOL    HW275892   5.476   7.994   7.841 -0.0320 -0.1990  2.2285
19428SOL     OW75893   6.688   6.645  11.638  0.4727 -0.1902 -0.3232
19428SOL    HW175894   6.719   6.568  11.591 -0.7142 -0.1630 -1.1727
19428SOL    HW275895   6.593   6.636  11.640  0.4166  0.4219  1.0242
19429SOL     OW75896   2.626   0.503   6.074  0.4141  0.2571 -0.1850
19429SOL    HW175897   2.539   0.514   6.113 -0.0226 -0.6307 -0.8656
19429SOL    HW275898   2.649   0.590   6.041 -1.6745 -0.0724 -2.9140
19430SOL     OW75899  10.114   3.348   5.195  0.3241 -0.2821  0.7009
19430SOL    HW175900  10.033   3.323   5.240  0.2028 -1.1898  0.0062
19430SOL    HW275901  10.084   3.388   5.113  0.5602 -2.2476 -0.4027
19431SOL     OW75902   6.089   5.722   4.879  0.2956 -0.2750  0.2429
19431SOL    HW175903   6.086   5.818   4.873 -0.5007 -0.3595 -0.8499
19431SOL    HW275904   6.098   5.705   4.973  2.7668  0.8982  0.3069
19432SOL     OW75905   0.618   8.089  10.904 -0.7305 -1.1184  0.4484
19432SOL    HW175906   0.678   8.016  10.886 -1.4368 -1.5914 -0.0334
19432SOL    HW275907   0.644   8.157  10.841 -0.6476 -1.2935  0.2932
19433SOL     OW75908  13.565   8.185  13.396 -0.4310 -0.2244  0.0150
19433SOL    HW175909  13.547   8.098  13.432 -1.0908 -0.1198 -0.0478
19433SOL    HW275910  13.599   8.235  13.470 -0.6736 -0.3492  0.2149
19434SOL     OW75911   2.745   7.365  10.088  0.1577 -0.4853  0.0795
19434SOL    HW175912   2.684   7.409  10.146 -1.0017 -0.2742 -1.2347
19434SOL    HW275913   2.829   7.369  10.133 -0.1562  1.9420  0.5949
19435SOL     OW75914   7.695   3.071   7.630  0.1229 -0.3179 -0.0157
19435SOL    HW175915   7.738   3.039   7.710  1.9490 -0.3184 -0.9386
19435SOL    HW275916   7.767   3.091   7.571 -1.1921 -0.5043 -1.7579
19436SOL     OW75917   3.787   7.416   4.666  0.2948  0.2398 -0.0063
19436SOL    HW175918   3.714   7.355   4.658  0.3791  0.1097  0.2083
19436SOL    HW275919   3.839   7.382   4.739  0.2862  0.6236  0.1812
19437SOL     OW75920  12.301   3.182   0.599  0.4618  0.1897 -0.4746
19437SOL    HW175921  12.257   3.141   0.673  0.3959 -0.0734 -0.6578
19437SOL    HW275922  12.378   3.127   0.583  0.1425 -0.1142 -0.9943
19438SOL     OW75923   1.412   8.571  13.114  0.3245  0.1610 -0.1993
19438SOL    HW175924   1.431   8.664  13.126  0.5005  0.0216  0.6642
19438SOL    HW275925   1.407   8.560  13.019 -1.4851  1.3976 -0.3019
19439SOL     OW75926   2.534   2.728   7.677 -0.2017  0.4083 -0.2971
19439SOL    HW175927   2.454   2.705   7.725 -0.1155  0.6552 -0.0356
19439SOL    HW275928   2.524   2.821   7.656 -0.0379  0.4096 -0.3741
19440SOL     OW75929   7.055   0.437   2.290  0.3318  0.7726 -0.5411
19440SOL    HW175930   7.049   0.507   2.225 -1.7017  1.0726 -0.0802
19440SOL    HW275931   7.047   0.481   2.374  0.7260  0.1518 -0.1699
19441SOL     OW75932   5.750   4.660  13.349 -0.5301  0.2853 -0.4404
19441SOL    HW175933   5.665   4.629  13.381 -1.1102  1.5826 -0.6763
19441SOL    HW275934   5.776   4.729  13.410  0.8693 -0.7788  0.2339
19442SOL     OW75935   8.039   0.207   0.930  0.3423  0.3423 -0.3261
19442SOL    HW175936   7.995   0.285   0.963  0.2328  0.2506 -0.2545
19442SOL    HW275937   7.973   0.162   0.877  0.1106 -0.1752  0.3741
19443SOL     OW75938   2.279  12.867   2.111  0.3921 -0.0257  0.1412
19443SOL    HW175939   2.318  12.952   2.093  1.5866 -0.8508 -1.5040
19443SOL    HW275940   2.336  12.827   2.177  0.5699 -0.0432 -0.0227
19444SOL     OW75941   7.612   8.043   5.798 -0.2919 -0.0580 -0.1315
19444SOL    HW175942   7.584   7.977   5.862  0.6978  0.1309  0.5320
19444SOL    HW275943   7.599   8.126   5.843  0.6028  0.0662 -0.0912
19445SOL     OW75944   3.616   7.949   3.504  0.4959 -0.4231  0.0068
19445SOL    HW175945   3.625   7.854   3.490  1.6591 -0.4095  0.5752
19445SOL    HW275946   3.670   7.967   3.580  1.1772  0.8770 -0.7553
19446SOL     OW75947   4.562   1.887   1.474  0.1465 -0.5650 -0.7628
19446SOL    HW175948   4.571   1.975   1.438  1.6308  0.7381  2.3413
19446SOL    HW275949   4.607   1.831   1.412  1.6440  1.3169 -1.4892
19447SOL     OW75950   4.820   9.554   2.648  0.2210  0.1515 -0.1302
19447SOL    HW175951   4.831   9.459   2.654  0.6691  0.0881 -1.5968
19447SOL    HW275952   4.869   9.589   2.723  2.2579 -0.6601 -1.0127
19448SOL     OW75953   2.858   9.391   0.496 -0.3784  0.5686  0.1690
19448SOL    HW175954   2.900   9.422   0.415 -1.9573  0.8126 -0.6044
19448SOL    HW275955   2.775   9.355   0.466 -0.6160 -0.1216  1.6173
19449SOL     OW75956  13.551  13.883   4.180 -0.2061 -0.2948 -0.5406
19449SOL    HW175957  13.533  13.975   4.199  1.0293 -0.3186  0.9757
19449SOL    HW275958  13.570  13.881   4.086  1.1724  1.2701 -0.3386
19450SOL     OW75959  10.579  11.650   5.254  0.1831 -0.0832 -0.2110
19450SOL    HW175960  10.516  11.718   5.228 -0.0680  0.0649  0.7585
19450SOL    HW275961  10.525  11.584   5.297  0.7343  0.3011  1.1308
19451SOL     OW75962  12.856   6.171   8.076  0.1342 -0.8409 -0.0647
19451SOL    HW175963  12.924   6.139   8.017 -0.9211 -1.2696 -1.0851
19451SOL    HW275964  12.844   6.100   8.139  0.8508 -0.6239  0.3314
19452SOL     OW75965   6.293   0.504   3.158 -0.1795 -0.5741  0.1718
19452SOL    HW175966   6.202   0.474   3.163 -0.7060  0.3200 -2.3424
19452SOL    HW275967   6.309   0.546   3.242 -2.6268  0.6089  0.1549
19453SOL     OW75968   6.735   2.705   9.126 -0.1110 -0.4077  0.0805
19453SOL    HW175969   6.707   2.664   9.045 -2.8597 -0.3975  0.9251
19453SOL    HW275970   6.788   2.637   9.170 -0.6855 -1.3263 -0.6070
19454SOL     OW75971   6.801   3.037   6.677 -0.0548 -0.0706  0.5125
19454SOL    HW175972   6.725   3.094   6.688  1.2928  1.7840  0.8236
19454SOL    HW275973   6.876   3.097   6.679  1.3630 -1.6687 -1.0442
19455SOL     OW75974   3.708   2.451   9.484  0.0269  0.1173 -0.1910
19455SOL    HW175975   3.626   2.487   9.450  0.3370  0.9870 -0.0466
19455SOL    HW275976   3.693   2.440   9.577 -0.0813 -0.1569 -0.2419
19456SOL     OW75977   9.843   6.197   4.660 -0.3485 -0.4233  0.0353
19456SOL    HW175978   9.937   6.183   4.672 -0.3096 -0.5380 -0.3812
19456SOL    HW275979   9.822   6.150   4.579 -0.6382  0.1377 -0.2219
19457SOL     OW75980   7.503  10.471   5.602  0.0758  0.3698 -0.0108
19457SOL    HW175981   7.457  10.459   5.519  1.2228  1.0493 -0.7630
19457SOL    HW275982   7.587  10.427   5.590  1.1934  2.4212 -0.0684
19458SOL     OW75983  13.263  13.277   1.419 -0.1967 -0.0276  0.3088
19458SOL    HW175984  13.264  13.224   1.340 -0.4449  1.5439 -0.8034
19458SOL    HW275985  13.354  13.278   1.449 -0.0132 -0.2585 -0.2265
19459SOL     OW75986   2.996   7.792   6.595 -0.0920 -0.5365  0.0861
19459SOL    HW175987   2.942   7.869   6.579  1.0549 -0.0745 -1.8247
19459SOL    HW275988   3.065   7.823   6.654  1.0875  0.2704 -1.6623
19460SOL     OW75989   9.351   9.493   8.077 -0.3392  0.1582 -0.2495
19460SOL    HW175990   9.349   9.398   8.067  1.0349  0.2596 -1.8487
19460SOL    HW275991   9.354   9.507   8.172 -1.9220 -1.3188  0.0627
19461SOL     OW75992   6.706   0.565   6.820  0.1905 -0.3661  0.7100
19461SOL    HW175993   6.711   0.495   6.884 -0.3847  0.2023  1.3993
19461SOL    HW275994   6.624   0.610   6.841  1.6271  1.9276  1.7901
19462SOL     OW75995   0.928   7.837   6.694  0.1935 -0.4385 -0.3421
19462SOL    HW175996   0.974   7.836   6.778  0.2198 -1.1407 -0.3585
19462SOL    HW275997   0.982   7.891   6.637 -0.0611  0.4313  0.2168
19463SOL     OW75998  11.189   8.922  12.710 -0.7172 -0.0651 -0.7529
19463SOL    HW175999  11.170   8.872  12.789 -1.1970  0.4596 -0.5319
19463SOL    HW276000  11.151   8.869  12.639 -0.8271 -0.2351 -0.5688
19464SOL     OW76001  12.870   7.484   3.680 -0.3534 -0.1174  0.0256
19464SOL    HW176002  12.896   7.572   3.708 -2.3892  0.4389  0.3205
19464SOL    HW276003  12.850   7.493   3.586  1.4690 -0.7997 -0.4785
19465SOL     OW76004   2.297   8.134   4.797  0.2423  0.2670  0.3192
19465SOL    HW176005   2.331   8.221   4.778  0.3192  0.2002  0.1523
19465SOL    HW276006   2.208   8.135   4.760 -0.6264  1.0456  2.2933
19466SOL     OW76007   7.743  13.102  11.511  0.0114 -0.4181  0.7798
19466SOL    HW176008   7.768  13.128  11.423  2.2312  2.7070  2.1297
19466SOL    HW276009   7.652  13.133  11.521  0.5843  1.5475  0.3238
19467SOL     OW76010   1.479   6.022   4.458 -0.2961  0.0674 -0.1020
19467SOL    HW176011   1.415   5.996   4.524  1.8211  0.8280  2.4346
19467SOL    HW276012   1.562   5.984   4.488  0.9006  1.1063 -1.9075
19468SOL     OW76013   2.965  12.127  11.916  0.2644 -0.0216 -0.2116
19468SOL    HW176014   3.012  12.201  11.956 -1.9268  2.3262 -1.6876
19468SOL    HW276015   3.032  12.080  11.866  1.4617  2.0095 -0.6271
19469SOL     OW76016   0.090   3.466   0.507  0.2427 -0.5073  0.6771
19469SOL    HW176017   0.112   3.542   0.452 -3.6158 -0.2421 -0.8051
19469SOL    HW276018   0.074   3.395   0.445  1.8259 -2.0514  1.9350
19470SOL     OW76019   8.712  13.951   1.077 -0.5445 -0.2831  0.3317
19470SOL    HW176020   8.783  13.973   1.137  0.2803  0.0251 -0.7180
19470SOL    HW276021   8.742  13.872   1.032 -1.8010 -1.3771  1.3456
19471SOL     OW76022   4.902  10.836   4.610  0.2585 -0.2981 -0.1319
19471SOL    HW176023   4.855  10.911   4.647 -2.1339  0.0791 -3.5362
19471SOL    HW276024   4.970  10.876   4.555 -0.6681 -0.5481 -1.5119
19472SOL     OW76025   7.115   3.287  12.759 -0.0727 -0.2077  0.3625
19472SOL    HW176026   7.209   3.302  12.752 -0.0777 -0.1147  0.4958
19472SOL    HW276027   7.100   3.205  12.712  0.0353 -0.0847  0.1082
19473SOL     OW76028   8.766   2.314   9.440  0.0263  0.3296 -0.5282
19473SOL    HW176029   8.852   2.335   9.477 -0.1361  0.5824 -0.2892
19473SOL    HW276030   8.756   2.375   9.367  0.3482 -0.1712 -0.9927
19474SOL     OW76031   3.676   4.593   0.672  0.3532  0.3582 -0.0508
19474SOL    HW176032   3.706   4.541   0.598  0.3916  0.2077  0.0678
19474SOL    HW276033   3.592   4.630   0.644 -0.2941 -0.7744  0.3029
19475SOL     OW76034   1.574  12.483   2.789 -0.1867  0.4166 -0.7942
19475SOL    HW176035   1.653  12.503   2.840 -0.8420  0.4028  0.2582
19475SOL    HW276036   1.607  12.456   2.703  0.9069  1.4077 -0.7085
19476SOL     OW76037   7.208   2.633   8.409 -0.4491 -0.6733 -0.0972
19476SOL    HW176038   7.247   2.610   8.494 -0.5635  0.5134  0.2957
19476SOL    HW276039   7.159   2.555   8.384 -1.2330 -0.7193  1.4140
19477SOL     OW76040   8.344   7.980   4.640 -0.5114 -0.0978  0.0767
19477SOL    HW176041   8.332   8.064   4.683  1.4776  0.5966 -0.6067
19477SOL    HW276042   8.314   7.994   4.550  2.3910  0.8411 -0.8674
19478SOL     OW76043   0.796   7.220   2.956  0.0622  1.0388 -0.4247
19478SOL    HW176044   0.859   7.197   2.887  0.1669  0.4094 -0.1335
19478SOL    HW276045   0.725   7.157   2.945  0.0996  0.9092  0.0590
19479SOL     OW76046   2.213  10.671   0.674 -0.0340  0.0331 -0.7025
19479SOL    HW176047   2.278  10.636   0.613  0.1653  0.0780 -0.5150
19479SOL    HW276048   2.226  10.623   0.755  0.7980  1.0958 -0.1846
19480SOL     OW76049  13.234  11.504   9.572 -0.5110  0.5027  0.1316
19480SOL    HW176050  13.208  11.584   9.618  1.0939  0.1772  1.7572
19480SOL    HW276051  13.253  11.532   9.483  0.6993  2.1049  0.8475
19481SOL     OW76052   5.397   7.584   1.397 -0.0619 -0.6492  0.2528
19481SOL    HW176053   5.353   7.667   1.416 -0.1532 -0.7585  0.5316
19481SOL    HW276054   5.357   7.553   1.317 -1.3596 -1.3467  1.1507
19482SOL     OW76055   4.680   8.361   7.379  0.5476 -0.1659  0.0153
19482SOL    HW176056   4.717   8.433   7.431 -1.0804  1.1363 -0.5227
19482SOL    HW276057   4.622   8.316   7.440  1.3073 -0.8362  0.2571
19483SOL     OW76058  11.502   5.210  13.097  0.1511 -0.1077 -0.0062
19483SOL    HW176059  11.552   5.254  13.029  0.5977  0.5113  0.7038
19483SOL    HW276060  11.418   5.190  13.056 -0.6954  2.8539  0.0416
19484SOL     OW76061   0.480   0.552   3.002  0.0837  0.2577 -0.0757
19484SOL    HW176062   0.566   0.532   3.040  0.0329  0.5353  0.1931
19484SOL    HW276063   0.419   0.543   3.075  0.0466  1.2732  0.0334
19485SOL     OW76064  11.899  12.079   3.038  0.5875  0.1289  0.1862
19485SOL    HW176065  11.961  12.088   3.111  1.5184 -0.9218 -0.4377
19485SOL    HW276066  11.828  12.026   3.073  0.6058  0.3560  0.5768
19486SOL     OW76067   7.327   3.053   8.942 -0.9779  0.1991  0.2155
19486SOL    HW176068   7.273   3.132   8.940 -1.1882  0.0470 -0.2280
19486SOL    HW276069   7.289   2.996   8.875 -0.2405  0.1176 -0.1485
19487SOL     OW76070   1.726  12.408  12.065  0.3892 -0.1836  0.0578
19487SOL    HW176071   1.737  12.442  11.976  1.7438  1.3177  0.7406
19487SOL    HW276072   1.741  12.484  12.121  0.3615 -1.2732  1.5937
19488SOL     OW76073   4.356   0.636   1.434  0.0559  0.0893  0.4838
19488SOL    HW176074   4.376   0.709   1.376  0.1821 -0.4889 -0.2156
19488SOL    HW276075   4.439   0.618   1.479  0.2981 -0.2619 -0.0846
19489SOL     OW76076   0.414   4.418  13.182 -0.3265 -0.5998 -0.0526
19489SOL    HW176077   0.484   4.424  13.117 -1.3431  1.1907 -1.0603
19489SOL    HW276078   0.339   4.385  13.134 -1.0615  0.6345  0.2047
19490SOL     OW76079   2.808  13.192  12.564 -0.6889 -0.0670  0.0283
19490SOL    HW176080   2.791  13.117  12.620  0.1593  0.6219  1.2623
19490SOL    HW276081   2.839  13.260  12.624  0.5859  0.5932 -1.3108
19491SOL     OW76082  12.626   1.790  13.032  0.1992  0.5073 -0.4244
19491SOL    HW176083  12.604   1.794  13.125 -0.9065 -0.2075 -0.6328
19491SOL    HW276084  12.545   1.762  12.989  1.0783 -0.6340 -1.4387
19492SOL     OW76085  13.949   6.177   8.546  0.1816 -0.2803 -0.2298
19492SOL    HW176086  14.017   6.134   8.495 -0.3028  0.2840 -1.3951
19492SOL    HW276087  13.916   6.109   8.605  0.6829 -0.9756 -0.7353
19493SOL     OW76088  10.072   1.813   3.211 -0.4955  0.0933  0.0170
19493SOL    HW176089  10.011   1.758   3.260 -0.4848  0.7249  0.7649
19493SOL    HW276090  10.018   1.884   3.176 -0.4131 -0.0726 -0.4521
19494SOL     OW76091  11.649  10.361  14.005 -0.2042  0.6133 -0.2554
19494SOL    HW176092  11.611  10.281  13.969 -1.8239  1.0951  0.2856
19494SOL    HW276093  11.577  10.401  14.055  1.1516  1.3763  1.1766
19495SOL     OW76094  10.822   6.932  12.907 -0.0399 -0.2027  0.0059
19495SOL    HW176095  10.825   6.921  12.812  1.1789 -0.6564  0.0688
19495SOL    HW276096  10.802   6.845  12.940 -0.6299 -0.0101  0.1694
19496SOL     OW76097   3.034   2.941   1.907 -0.6734 -0.3365 -0.4019
19496SOL    HW176098   3.101   2.878   1.881 -1.1814 -0.9746 -0.1850
19496SOL    HW276099   2.993   2.968   1.824 -0.7601 -0.6354 -0.4574
19497SOL     OW76100   5.286   3.726   3.958 -0.2746  0.2986 -0.1709
19497SOL    HW176101   5.311   3.800   3.903 -1.8242  0.3580 -0.8520
19497SOL    HW276102   5.225   3.676   3.905  1.0866 -1.7607  0.1066
19498SOL     OW76103   1.676   7.832   8.454 -0.0690 -0.0642  0.2077
19498SOL    HW176104   1.678   7.914   8.502 -0.6136 -0.1671  0.4105
19498SOL    HW276105   1.751   7.782   8.489 -1.0710 -0.5705  1.7397
19499SOL     OW76106   3.709   4.350  13.697  0.5156 -0.2832 -0.4419
19499SOL    HW176107   3.647   4.329  13.627  0.3092 -1.0988 -0.0287
19499SOL    HW276108   3.676   4.432  13.734  1.4615  0.9672 -2.2308
19500SOL     OW76109   5.040  13.083  13.290  0.5423 -0.2922 -0.0393
19500SOL    HW176110   4.957  13.128  13.308  0.5525  0.1340 -0.9703
19500SOL    HW276111   5.104  13.153  13.282  0.5193 -0.4105 -1.7275
19501SOL     OW76112  13.789  13.030  13.362  0.0714  0.1268 -0.2643
19501SOL    HW176113  13.830  13.072  13.286 -0.2954  0.4916 -0.2642
19501SOL    HW276114  13.827  12.943  13.364  0.4237  0.2666 -0.6020
19502SOL     OW76115  12.349   4.588   9.618  0.1025  0.0689  0.0227
19502SOL    HW176116  12.435   4.585   9.659 -0.7122 -0.6054  1.7651
19502SOL    HW276117  12.316   4.676   9.635 -1.1656 -0.8576  2.9731
19503SOL     OW76118   8.232   8.353   6.095 -0.2241 -0.6785 -0.2647
19503SOL    HW176119   8.192   8.298   6.028  0.9535 -0.0701 -1.5083
19503SOL    HW276120   8.184   8.436   6.090  0.0639 -0.5304 -0.5590
19504SOL     OW76121   9.244   9.384   0.540  1.1022 -0.8568 -0.6536
19504SOL    HW176122   9.242   9.415   0.450 -1.1365  1.8633  0.1903
19504SOL    HW276123   9.153   9.362   0.560  1.4242 -0.7240  1.1489
19505SOL     OW76124   6.120   2.987   7.322 -0.3242  0.2077 -0.2800
19505SOL    HW176125   6.146   2.974   7.413  0.9306  0.1535 -0.6160
19505SOL    HW276126   6.025   2.996   7.324 -0.4928 -1.4259  0.8493
19506SOL     OW76127  11.279  11.105   3.871 -0.1108 -0.1766 -0.1200
19506SOL    HW176128  11.243  11.043   3.935 -0.2657 -0.5031 -0.5239
19506SOL    HW276129  11.257  11.191   3.907 -1.2379 -0.3666 -0.3094
19507SOL     OW76130   9.495   3.357   3.835  0.4800  0.4692  0.3353
19507SOL    HW176131   9.588   3.369   3.820  0.1279  1.1233 -1.5808
19507SOL    HW276132   9.490   3.291   3.904  2.3411  0.0958  0.1595
19508SOL     OW76133   5.779   3.303  12.664  0.2541  0.2777  0.0073
19508SOL    HW176134   5.845   3.371  12.654  0.4618  0.1557  0.5580
19508SOL    HW276135   5.738   3.320  12.749 -0.0435  0.0216 -0.0802
19509SOL     OW76136   7.977   7.437   2.657 -0.1563 -0.4872 -0.0679
19509SOL    HW176137   8.060   7.467   2.619 -0.0606 -0.1545  0.3989
19509SOL    HW276138   7.968   7.347   2.627  0.1487 -0.3758 -0.4978
19510SOL     OW76139   0.838   4.140   1.661 -0.0346  0.4505 -0.5294
19510SOL    HW176140   0.790   4.169   1.584  1.0032  0.3942 -1.2088
19510SOL    HW276141   0.909   4.087   1.627  0.8790  1.0351  0.4077
19511SOL     OW76142   6.435   3.085   0.230  0.2604 -0.2333 -0.4119
19511SOL    HW176143   6.518   3.042   0.254  0.3464  0.5597  0.7875
19511SOL    HW276144   6.367   3.023   0.257  0.3654  0.5209  1.7810
19512SOL     OW76145   9.994   9.565   6.774  0.5722  0.4367  0.4736
19512SOL    HW176146   9.980   9.659   6.786 -0.6522  0.1635  1.3036
19512SOL    HW276147   9.934   9.524   6.835 -2.1104 -0.9776 -2.8211
19513SOL     OW76148   8.828   4.195   1.112  0.1421  0.7316  0.3368
19513SOL    HW176149   8.741   4.209   1.150  0.0022  0.4936  0.1151
19513SOL    HW276150   8.810   4.162   1.024  0.4597  1.0638  0.1460
19514SOL     OW76151  11.793   3.290  11.891  0.0562  0.0233 -0.1965
19514SOL    HW176152  11.862   3.328  11.837  1.1354 -0.2770  0.9305
19514SOL    HW276153  11.839   3.232  11.951 -1.0954  0.3412  1.0402
19515SOL     OW76154  11.408  12.593  12.347  0.3652  0.1588 -0.0199
19515SOL    HW176155  11.499  12.566  12.351 -0.4094 -3.4895 -2.2035
19515SOL    HW276156  11.397  12.629  12.259 -0.6124 -1.1445 -0.4669
19516SOL     OW76157   3.511   7.527  12.001  0.0736 -0.0902 -0.4991
19516SOL    HW176158   3.591   7.520  12.052  0.9454 -0.1239 -1.8319
19516SOL    HW276159   3.538   7.567  11.918 -1.0190 -1.3944 -1.5327
19517SOL     OW76160   4.289  13.801   1.816  0.1418  0.2935  0.5407
19517SOL    HW176161   4.375  13.839   1.828  1.1188 -1.6242  0.1249
19517SOL    HW276162   4.271  13.812   1.722  1.1526 -1.5671  0.0762
19518SOL     OW76163   4.302   0.571   7.494  0.4832  0.1424  0.2681
19518SOL    HW176164   4.314   0.622   7.414  0.8949 -0.3850 -0.0104
19518SOL    HW276165   4.224   0.609   7.535  0.6033  0.7879 -0.0910
19519SOL     OW76166   7.341   0.036  11.217  0.0802  0.5718 -0.0583
19519SOL    HW176167   7.292   0.012  11.296  1.0848 -1.8020 -0.0462
19519SOL    HW276168   7.427  -0.005  11.230  0.0404 -0.5118 -2.6637
19520SOL     OW76169   6.234   0.036   5.390  0.0116  0.3002 -0.0097
19520SOL    HW176170   6.265   0.061   5.477  1.2929 -0.1107 -0.3247
19520SOL    HW276171   6.152   0.084   5.379 -0.4138 -0.0139  1.6059
19521SOL     OW76172   0.546  12.318  12.945  0.1134  0.6388 -0.1050
19521SOL    HW176173   0.505  12.326  13.031 -0.7522 -0.5230 -0.3801
19521SOL    HW276174   0.612  12.388  12.943 -0.9823  1.7598  0.8534
19522SOL     OW76175  10.776   0.126  11.727  0.1125  0.5961 -0.4145
19522SOL    HW176176  10.804   0.036  11.714  2.2186  1.1949 -0.3661
19522SOL    HW276177  10.756   0.158  11.639  1.4791  0.6981 -0.7124
19523SOL     OW76178   0.203  11.188  13.990  0.2365 -0.0063 -0.3247
19523SOL    HW176179   0.189  11.280  13.972 -0.1078 -0.0345 -0.2073
19523SOL    HW276180   0.210  11.183  14.085  2.7823  0.2494 -0.4238
19524SOL     OW76181   9.737   2.410  10.607 -0.1710  0.0926  0.2969
19524SOL    HW176182   9.685   2.452  10.676 -1.6349  0.4382 -0.9568
19524SOL    HW276183   9.752   2.480  10.543  0.4926 -0.4118 -0.1122
19525SOL     OW76184   9.987   1.181   7.864 -0.2355  0.1353  0.7266
19525SOL    HW176185   9.921   1.112   7.856 -0.2319  0.2141 -0.0066
19525SOL    HW276186   9.938   1.263   7.856 -0.1860  0.2213  1.2230
19526SOL     OW76187   0.230   7.119   6.038 -0.2547 -0.2643 -0.3395
19526SOL    HW176188   0.292   7.191   6.027  0.0162 -0.3817  0.4187
19526SOL    HW276189   0.162   7.154   6.095  0.6565 -1.0653  1.3051
19527SOL     OW76190   2.598   3.758   0.383 -0.0836  0.4057 -0.6693
19527SOL    HW176191   2.689   3.771   0.355  0.1172 -0.0386 -0.2419
19527SOL    HW276192   2.579   3.667   0.362 -1.0109  0.9537 -2.3506
19528SOL     OW76193  13.217  10.571   1.081  0.1493 -0.2393 -0.2367
19528SOL    HW176194  13.243  10.491   1.127 -0.0283  0.0594  0.4010
19528SOL    HW276195  13.124  10.581   1.102  0.2190  0.2334 -0.1538
19529SOL     OW76196   8.358   4.349   3.653 -0.0561 -0.2753  0.1584
19529SOL    HW176197   8.385   4.302   3.574 -0.2396  0.9402 -0.6500
19529SOL    HW276198   8.309   4.284   3.704 -0.7276 -0.8283 -1.1456
19530SOL     OW76199  10.570   0.338   1.969  0.5991  0.0146 -0.3384
19530SOL    HW176200  10.596   0.258   1.922  0.9480 -0.9767  1.4457
19530SOL    HW276201  10.650   0.368   2.012 -0.0424 -0.1678  1.0636
19531SOL     OW76202  13.017   5.734   7.368  0.4503  0.5466  0.3254
19531SOL    HW176203  13.086   5.800   7.370 -0.8690  2.0508 -1.1074
19531SOL    HW276204  12.988   5.732   7.277  0.4689 -2.0982  0.2892
19532SOL     OW76205   5.429   2.213   8.449  0.1606 -0.0384  0.8518
19532SOL    HW176206   5.382   2.147   8.499  1.0797 -2.5037 -1.2867
19532SOL    HW276207   5.517   2.214   8.487  0.2222 -0.2712  0.7199
19533SOL     OW76208   3.490   0.197  12.024 -0.8818 -0.1419  0.0018
19533SOL    HW176209   3.566   0.212  11.968  0.5037 -1.8782  1.3129
19533SOL    HW276210   3.456   0.112  11.997  0.7937 -1.8048  2.7340
19534SOL     OW76211   8.750   2.454   4.655 -0.9841 -0.1419 -0.3298
19534SOL    HW176212   8.722   2.371   4.618  0.1562 -0.7209  0.0353
19534SOL    HW276213   8.773   2.433   4.746  3.4070 -0.4782 -1.2898
19535SOL     OW76214   3.877   0.053   0.845 -0.9823  0.1698 -0.1427
19535SOL    HW176215   3.967   0.042   0.875 -1.2738 -0.5929  0.4872
19535SOL    HW276216   3.842  -0.036   0.842 -2.0854  0.5453  0.8074
19536SOL     OW76217  11.330   1.844   9.563 -0.1146  0.4063  0.2825
19536SOL    HW176218  11.385   1.806   9.494 -0.5227  0.7668 -0.2511
19536SOL    HW276219  11.344   1.788   9.639 -1.9758 -1.8558 -0.9135
19537SOL     OW76220  10.318   3.183   5.808 -0.2656  0.8021 -0.7230
19537SOL    HW176221  10.333   3.137   5.725 -0.1197  0.0718 -0.2980
19537SOL    HW276222  10.397   3.235   5.820  0.2644 -0.0432 -0.4397
19538SOL     OW76223   4.696  12.753   0.327 -0.1127  0.7119 -0.5561
19538SOL    HW176224   4.787  12.722   0.323  0.2295  1.0113  2.6268
19538SOL    HW276225   4.703  12.844   0.356 -1.4113  0.3024  1.2093
19539SOL     OW76226   0.905   9.961   0.373  0.3705  0.3462  0.6632
19539SOL    HW176227   0.870   9.910   0.300  0.2867  0.4315  0.6437
19539SOL    HW276228   0.928   9.896   0.439  2.1168  0.1179 -0.1263
19540SOL     OW76229  11.284   6.327  12.053  0.2412 -0.3164 -0.1041
19540SOL    HW176230  11.306   6.410  12.094  0.6197 -0.0801 -0.7545
19540SOL    HW276231  11.328   6.261  12.106 -1.2932 -0.2495  1.3013
19541SOL     OW76232   6.717   1.173   4.487 -0.4828  0.2205 -0.3189
19541SOL    HW176233   6.674   1.097   4.528 -0.8944  0.7185  0.2013
19541SOL    HW276234   6.672   1.249   4.525  1.0474  0.7817  0.4565
19542SOL     OW76235  12.382   9.268   7.470 -0.2410  0.0657 -0.0363
19542SOL    HW176236  12.372   9.321   7.392 -0.6356  0.4542  0.2723
19542SOL    HW276237  12.410   9.329   7.538 -2.6070  0.3136  0.8228
19543SOL     OW76238   9.030  11.451   0.468  0.8434 -0.1738  0.0486
19543SOL    HW176239   9.107  11.491   0.427 -0.9700  0.9657 -2.4639
19543SOL    HW276240   9.014  11.372   0.418  0.1429 -0.2079  0.3165
19544SOL     OW76241   1.277   2.938   9.925 -0.4093  0.5759  0.2807
19544SOL    HW176242   1.207   2.997   9.896 -1.3368  0.3010  1.8405
19544SOL    HW276243   1.246   2.851   9.902  1.0728  0.5978 -2.2510
19545SOL     OW76244   0.951   8.230   0.820  0.0942  0.1836  0.3113
19545SOL    HW176245   0.962   8.325   0.813  0.4344  0.1132 -0.1091
19545SOL    HW276246   1.001   8.205   0.898 -1.2625  0.5539  1.3489
19546SOL     OW76247  14.026   0.774   0.692  0.7650 -0.2602 -0.1742
19546SOL    HW176248  14.001   0.863   0.717  0.9075 -0.3457  0.2894
19546SOL    HW276249  14.075   0.784   0.610 -0.5318 -0.0625 -0.9574
19547SOL     OW76250   5.767   2.192   2.127  0.6275 -0.1919  0.1825
19547SOL    HW176251   5.826   2.175   2.053  1.7064  0.5568  0.8395
19547SOL    HW276252   5.691   2.235   2.089  2.1416  2.2731 -0.2638
19548SOL     OW76253   8.598   3.244   0.746  0.5580 -0.0832 -0.5246
19548SOL    HW176254   8.652   3.247   0.667  0.7989  3.6096 -0.3798
19548SOL    HW276255   8.644   3.298   0.809 -0.7087 -1.1945  1.4614
19549SOL     OW76256  13.328   0.222  13.279 -0.1267  0.9118 -0.0524
19549SOL    HW176257  13.234   0.241  13.280  0.1192  2.2200 -0.5904
19549SOL    HW276258  13.358   0.243  13.368 -0.4179 -0.0568  0.2971
19550SOL     OW76259   8.727   5.852   4.462 -0.0677 -0.2533 -0.4080
19550SOL    HW176260   8.638   5.821   4.475 -0.0539  0.3262  1.4400
19550SOL    HW276261   8.720   5.948   4.466  0.6425 -0.2063 -0.1337
19551SOL     OW76262  13.279   9.940  13.606 -0.4501 -0.2468  0.4536
19551SOL    HW176263  13.365   9.978  13.585 -0.1611 -0.0379  1.9399
19551SOL    HW276264  13.291   9.846  13.593 -0.2328 -0.1442 -0.1234
19552SOL     OW76265  10.544  13.544   6.573 -0.3000  0.4631  0.1453
19552SOL    HW176266  10.501  13.550   6.487  0.1027  0.6583 -0.0445
19552SOL    HW276267  10.600  13.467   6.566 -0.2266  0.5108  0.2147
19553SOL     OW76268  14.091   8.493   6.124 -0.2385  0.2651  0.2817
19553SOL    HW176269  14.044   8.449   6.053  0.7630 -0.9660  0.3438
19553SOL    HW276270  14.035   8.479   6.201 -1.6780  2.2131 -0.3371
19554SOL     OW76271  12.426   1.017   0.942  0.1120 -0.3561  0.2404
19554SOL    HW176272  12.441   1.105   0.907 -1.0975  0.1334  0.8773
19554SOL    HW276273  12.506   0.996   0.989  0.3033  0.5423  0.3374
19555SOL     OW76274  11.029  11.391   4.120 -0.3342 -0.0305  0.0925
19555SOL    HW176275  10.952  11.336   4.111 -0.6663  0.2343  1.1395
19555SOL    HW276276  10.995  11.476   4.149  0.2248  0.5253 -0.8187
19556SOL     OW76277   2.067   7.609  11.121  0.3773 -0.7113  0.5899
19556SOL    HW176278   2.044   7.572  11.036 -1.5604  0.0463  0.7295
19556SOL    HW276279   2.091   7.700  11.102  0.3366 -0.6524  0.8132
19557SOL     OW76280   4.409   9.972   5.791 -0.1886 -0.1464  0.1804
19557SOL    HW176281   4.465   9.957   5.714 -0.2828  2.3726 -0.5003
19557SOL    HW276282   4.327  10.005   5.754 -0.8698 -0.5084  1.3202
19558SOL     OW76283  10.765   4.919  12.592  0.6438 -0.3241 -1.0074
19558SOL    HW176284  10.691   4.979  12.587  0.3781 -0.7616 -3.3102
19558SOL    HW276285  10.748   4.867  12.671 -0.1501  1.2470 -0.0964
19559SOL     OW76286  11.066   2.024   1.183  0.3490 -0.4764  0.1594
19559SOL    HW176287  11.151   2.026   1.138  0.9645  3.1065  1.1713
19559SOL    HW276288  11.002   2.037   1.113  0.7932 -0.8768 -0.3370
19560SOL     OW76289  12.950  11.011   8.880 -0.5782  0.3093  0.1279
19560SOL    HW176290  12.995  11.083   8.835 -3.3256  1.3154 -1.3122
19560SOL    HW276291  12.908  11.053   8.955 -2.2633  0.2966 -0.7635
19561SOL     OW76292  13.640   7.446   7.264 -0.6852  0.2855 -0.7946
19561SOL    HW176293  13.576   7.432   7.334  1.4751 -3.1438  0.7605
19561SOL    HW276294  13.698   7.514   7.297 -0.9720  0.2706 -0.2520
19562SOL     OW76295   9.357   2.879   9.067 -0.4675 -0.1533 -0.4376
19562SOL    HW176296   9.452   2.883   9.082 -0.5921 -1.8661  1.1075
19562SOL    HW276297   9.348   2.883   8.971  1.1230  0.3970 -0.6003
19563SOL     OW76298   2.638   9.486  10.335  0.3951 -0.2757  0.4657
19563SOL    HW176299   2.683   9.414  10.290 -1.0996 -1.2071  0.3906
19563SOL    HW276300   2.567   9.510  10.276 -0.1299  0.1284  1.2508
19564SOL     OW76301  12.158   3.106   5.638 -0.1379  0.5067 -0.4885
19564SOL    HW176302  12.196   3.109   5.550  0.1000 -0.5211 -0.4422
19564SOL    HW276303  12.225   3.145   5.694  0.4673 -0.4036 -0.5460
19565SOL     OW76304   9.661  10.495  12.759 -0.1779 -0.0182  0.7532
19565SOL    HW176305   9.744  10.514  12.803  0.5788  3.5585 -1.7568
19565SOL    HW276306   9.681  10.426  12.696  1.6402  2.2071 -1.3029
19566SOL     OW76307  13.349  13.294  10.597  0.2003 -0.1092 -0.0966
19566SOL    HW176308  13.333  13.371  10.542  2.9518  1.6298  1.3526
19566SOL    HW276309  13.361  13.223  10.535 -0.2850  1.0568 -1.5891
19567SOL     OW76310   9.159   3.851  11.712 -0.1338  0.1124  0.4518
19567SOL    HW176311   9.081   3.852  11.767  0.4929  0.4385  1.3634
19567SOL    HW276312   9.143   3.780  11.650 -0.6743 -0.5699  1.3401
19568SOL     OW76313   5.721  10.477   9.150  0.0911 -0.0561 -0.1351
19568SOL    HW176314   5.725  10.572   9.146  0.7119 -0.1113 -1.0824
19568SOL    HW276315   5.718  10.449   9.059 -0.5854 -0.9322  0.1373
19569SOL     OW76316  11.391   3.062   9.293  0.0367 -0.4458  0.3020
19569SOL    HW176317  11.429   3.147   9.314 -0.4172 -0.1063 -0.2165
19569SOL    HW276318  11.296   3.076   9.296 -0.0462 -0.6747 -0.7475
19570SOL     OW76319  12.309   7.048   1.252  0.1674  0.2276 -0.1994
19570SOL    HW176320  12.251   7.058   1.177 -0.0985 -0.9459 -0.1625
19570SOL    HW276321  12.390   7.011   1.216 -0.4381 -1.6297  0.2398
19571SOL     OW76322  13.314   5.735   4.517 -0.1059 -0.4404 -0.2250
19571SOL    HW176323  13.405   5.711   4.498  0.1683  0.9771 -0.8641
19571SOL    HW276324  13.300   5.711   4.608  1.4210  0.7239  0.3526
19572SOL     OW76325   3.678   6.473   2.205  0.5700 -0.3969  0.4219
19572SOL    HW176326   3.592   6.438   2.226 -0.1535  0.5856 -0.7466
19572SOL    HW276327   3.708   6.421   2.130 -0.1094  0.8017 -0.7321
19573SOL     OW76328   7.936   6.390  13.430 -0.9826  0.4481  0.5474
19573SOL    HW176329   7.994   6.342  13.489 -0.9619 -1.3821 -0.8626
19573SOL    HW276330   7.983   6.470  13.409  0.4217 -0.3577  0.5197
19574SOL     OW76331   1.074   4.804   4.682  0.3986  0.4083  0.2030
19574SOL    HW176332   1.132   4.767   4.748 -2.3043 -2.5395  1.2027
19574SOL    HW276333   1.115   4.783   4.599  1.9005  0.5514  0.8847
19575SOL     OW76334   5.988   1.318   6.836 -0.2176  0.1508 -0.8135
19575SOL    HW176335   6.058   1.292   6.897 -1.7261 -1.2574  0.3971
19575SOL    HW276336   6.035   1.347   6.758  1.7435  0.0235  0.2469
19576SOL     OW76337   7.125   9.902  13.635 -0.4148  0.2591 -0.2774
19576SOL    HW176338   7.127   9.997  13.641  0.5882  0.3509 -1.5628
19576SOL    HW276339   7.132   9.883  13.541 -0.3811 -1.0754 -0.0337
19577SOL     OW76340   4.444   7.643  12.860  0.2920  0.1149 -0.7366
19577SOL    HW176341   4.515   7.584  12.886  0.6002  1.2016  1.0008
19577SOL    HW276342   4.368   7.585  12.848  1.2192 -0.9419 -1.7451
19578SOL     OW76343  10.052   9.398   2.396  0.2739  0.1584 -0.2776
19578SOL    HW176344  10.015   9.484   2.419 -0.2336 -0.4308  1.1924
19578SOL    HW276345   9.977   9.339   2.395  0.9533 -0.7820  1.3493
19579SOL     OW76346   1.693   1.683  13.436  0.1580  0.0223  0.4295
19579SOL    HW176347   1.640   1.604  13.436 -1.1927  0.8997 -0.1835
19579SOL    HW276348   1.647   1.743  13.495 -0.3162  1.2748 -1.1369
19580SOL     OW76349   1.394   7.803   2.193  0.0958  0.5531  0.5088
19580SOL    HW176350   1.463   7.764   2.247  0.6949  1.7608  0.6365
19580SOL    HW276351   1.413   7.773   2.105  1.5603  1.8774  0.3356
19581SOL     OW76352  12.320   5.460  12.712 -0.0287  0.5783  0.3279
19581SOL    HW176353  12.344   5.552  12.704  2.2803  0.0659  0.5567
19581SOL    HW276354  12.228   5.456  12.688  0.6705  2.4392 -3.2392
19582SOL     OW76355  13.655   6.537  12.134  0.5130  0.2331 -0.1936
19582SOL    HW176356  13.660   6.514  12.041 -0.2078  1.3882 -0.5460
19582SOL    HW276357  13.605   6.466  12.174  1.9343 -0.9425 -0.4137
19583SOL     OW76358   8.687   2.568  11.277 -0.7377 -0.2088 -0.6205
19583SOL    HW176359   8.690   2.661  11.253  0.1748  0.1001  0.5742
19583SOL    HW276360   8.594   2.548  11.284 -0.9631  0.3535 -1.8235
19584SOL     OW76361   0.094   7.485   0.792  0.4442  0.1840 -0.5297
19584SOL    HW176362   0.022   7.441   0.746 -0.1629  0.2084  0.3544
19584SOL    HW276363   0.064   7.489   0.883  1.3682  0.6296 -0.2370
19585SOL     OW76364  10.359  11.361   2.117  0.0050 -0.4936  0.4161
19585SOL    HW176365  10.448  11.326   2.118  0.3476  0.3324  0.1952
19585SOL    HW276366  10.323  11.333   2.032 -0.4179 -1.9179  1.0369
19586SOL     OW76367   9.144   1.919   9.268  0.2769  0.1173 -0.1412
19586SOL    HW176368   9.137   2.004   9.310  1.9880  0.3291 -0.2053
19586SOL    HW276369   9.132   1.937   9.175  0.3970  0.2538 -0.1306
19587SOL     OW76370   0.117   7.885   8.177  0.2478  0.0745  0.5164
19587SOL    HW176371   0.124   7.790   8.179 -1.3332 -0.1441  3.7661
19587SOL    HW276372   0.056   7.904   8.105  0.8339 -1.3073 -0.3727
19588SOL     OW76373   2.996   7.578  13.385  0.7859  0.1808  0.1430
19588SOL    HW176374   2.940   7.606  13.312  1.2521  0.5835 -0.0705
19588SOL    HW276375   2.941   7.589  13.463  0.9159  1.6716  0.0641
19589SOL     OW76376   9.009   6.005  13.444 -0.2848  0.5880  0.4429
19589SOL    HW176377   8.997   5.933  13.382  1.0889 -1.3109  2.2499
19589SOL    HW276378   9.054   6.073  13.394  3.4375 -1.9911 -0.1016
19590SOL     OW76379   3.764   8.587   2.473  0.2670  0.0473  0.0811
19590SOL    HW176380   3.832   8.647   2.442 -1.0937  1.8351  0.4109
19590SOL    HW276381   3.793   8.560   2.560  0.8945  0.2237 -0.0693
19591SOL     OW76382   2.214   0.827   4.152  0.8208 -0.0349  0.0859
19591SOL    HW176383   2.272   0.788   4.086  0.4461  2.3192 -1.7372
19591SOL    HW276384   2.264   0.902   4.186  0.3335 -0.2387  1.2961
19592SOL     OW76385   0.798  13.250   9.038  0.2410 -0.5920 -0.1938
19592SOL    HW176386   0.875  13.235   8.983  0.6922  2.1604 -0.4729
19592SOL    HW276387   0.727  13.263   8.976  0.3284  0.4274 -0.1049
19593SOL     OW76388   3.616  12.513   5.801  0.1050 -0.4229 -0.0190
19593SOL    HW176389   3.601  12.421   5.823  0.9466 -0.4577  0.4185
19593SOL    HW276390   3.586  12.562   5.877 -0.0275 -0.3495 -0.1166
19594SOL     OW76391  13.578   4.043   4.956  1.3780  0.3094  0.0303
19594SOL    HW176392  13.624   3.981   5.012  2.2194  2.2766  1.6598
19594SOL    HW276393  13.604   4.129   4.989 -0.8693  1.5527 -1.1551
19595SOL     OW76394   1.124  11.671   7.774 -0.7076  0.5832  0.0613
19595SOL    HW176395   1.079  11.629   7.701  0.8396  1.0700 -1.2257
19595SOL    HW276396   1.155  11.754   7.739  2.6370 -0.4102  0.2833
19596SOL     OW76397   6.240   6.819   3.545 -0.7071  0.0554 -0.6183
19596SOL    HW176398   6.268   6.908   3.566  1.7912 -0.4939 -1.2989
19596SOL    HW276399   6.148   6.816   3.572 -0.2132  2.0962  1.6305
19597SOL     OW76400  12.721   3.092   6.358  0.6227 -0.1769  0.3214
19597SOL    HW176401  12.732   3.068   6.450 -0.8095 -0.7421  0.3670
19597SOL    HW276402  12.744   3.185   6.354  1.3100 -0.3024  1.1220
19598SOL     OW76403  12.458  11.044  13.600 -0.3023  0.1589 -0.2125
19598SOL    HW176404  12.456  11.107  13.672 -0.6176 -0.7969  0.6349
19598SOL    HW276405  12.366  11.026  13.582 -0.2786  1.2962 -1.7031
19599SOL     OW76406   2.060  11.521  11.744  0.3419 -0.3067 -0.4461
19599SOL    HW176407   2.118  11.445  11.737  1.3591  0.5225 -1.5855
19599SOL    HW276408   2.090  11.567  11.822 -1.1674 -1.7472  1.0417
19600SOL     OW76409  11.413  11.934   4.841 -0.5254  0.7544 -0.2701
19600SOL    HW176410  11.380  11.886   4.765 -1.5097 -0.2435  0.7469
19600SOL    HW276411  11.334  11.959   4.889  0.0380  2.3478 -0.1440
19601SOL     OW76412  10.032   1.693  11.374  0.9611 -0.5115 -0.6123
19601SOL    HW176413   9.974   1.688  11.298 -0.2688  1.4548  0.1196
19601SOL    HW276414  10.120   1.697  11.337  0.3113  3.9243 -2.2981
19602SOL     OW76415   4.890  13.526  13.306 -0.4322  0.4249 -0.3080
19602SOL    HW176416   4.855  13.439  13.284  1.7089 -0.2105 -1.4596
19602SOL    HW276417   4.963  13.508  13.365 -0.0575  1.4763 -0.4298
19603SOL     OW76418  14.040   7.663   8.289  0.7700 -0.5524  0.5906
19603SOL    HW176419  13.964   7.610   8.314 -0.0859  0.0417 -0.6370
19603SOL    HW276420  14.066   7.629   8.204  0.2302  0.9247 -0.2050
19604SOL     OW76421   0.224  13.296  12.636  0.3900 -0.3447  0.3359
19604SOL    HW176422   0.162  13.334  12.698  1.1270 -0.8000  1.3830
19604SOL    HW276423   0.223  13.202  12.654  0.4426 -0.5216 -0.5144
19605SOL     OW76424   5.127   9.645   0.038 -0.3061 -0.0026  0.6618
19605SOL    HW176425   5.066   9.620  -0.031 -0.1483 -0.9248  0.8417
19605SOL    HW276426   5.072   9.672   0.111 -0.4831  0.1305  0.4786
19606SOL     OW76427  11.073  12.763   4.051  0.5640 -0.4695  0.4635
19606SOL    HW176428  11.043  12.852   4.033 -0.2105 -0.2555  2.5608
19606SOL    HW276429  11.041  12.744   4.139 -1.7954 -3.8832 -0.9118
19607SOL     OW76430   9.847   4.983   0.954  0.3382 -0.2063  0.8055
19607SOL    HW176431   9.760   5.022   0.954  0.2569 -0.3659 -0.2190
19607SOL    HW276432   9.904   5.051   0.991 -0.0346  0.3189  0.4285
19608SOL     OW76433   0.523   0.674  11.772 -0.2402 -0.4376  0.0241
19608SOL    HW176434   0.584   0.686  11.845 -0.4622  1.4544 -0.0478
19608SOL    HW276435   0.566   0.719  11.699  0.0933 -2.5063 -1.1190
19609SOL     OW76436   3.281  11.746   5.778  0.7696 -0.1765  0.6879
19609SOL    HW176437   3.261  11.668   5.726  2.5134  0.3214 -0.8287
19609SOL    HW276438   3.196  11.789   5.789  0.1874 -0.7857 -0.9943
19610SOL     OW76439  13.041  12.365   4.402  0.4490  0.8307 -0.7218
19610SOL    HW176440  13.014  12.453   4.429 -0.1785  0.1484  1.0005
19610SOL    HW276441  13.064  12.375   4.310  0.2234  2.7610 -0.6201
19611SOL     OW76442   7.431   5.018  11.811 -0.0876 -0.2988 -0.6274
19611SOL    HW176443   7.495   4.949  11.830  0.9713  1.4982  3.2665
19611SOL    HW276444   7.465   5.061  11.733  2.4153 -0.6850  0.1522
19612SOL     OW76445   2.157   7.298  13.505  0.3343  0.1120 -0.2035
19612SOL    HW176446   2.242   7.341  13.517  0.4833 -0.2632  0.0954
19612SOL    HW276447   2.178   7.214  13.463  0.0283  0.4043 -0.9638
19613SOL     OW76448   9.015  12.207  12.990 -0.6201 -0.0275 -0.0214
19613SOL    HW176449   9.032  12.241  12.903  0.5755 -0.1878  0.1321
19613SOL    HW276450   9.098  12.168  13.017 -0.7878  0.5450  1.4181
19614SOL     OW76451   1.614   2.976   7.413  0.5199  0.1087 -0.6131
19614SOL    HW176452   1.643   2.937   7.495  0.9682  1.0803 -0.2875
19614SOL    HW276453   1.695   3.008   7.372  0.1593  0.8436 -0.7780
19615SOL     OW76454   7.779  10.247   0.183 -0.3131 -0.3309  0.3911
19615SOL    HW176455   7.759  10.316   0.120 -0.2947 -1.2638 -0.6838
19615SOL    HW276456   7.818  10.177   0.130  0.6522 -0.7503  1.5992
19616SOL     OW76457   0.078   1.078   1.297  0.4096  0.9174  0.1131
19616SOL    HW176458   0.057   1.032   1.379 -0.1184  0.1443 -0.4381
19616SOL    HW276459  -0.003   1.075   1.247  0.8139  1.1161 -0.5603
19617SOL     OW76460  13.627   7.030   2.899  0.0840 -0.2255 -0.3356
19617SOL    HW176461  13.588   6.944   2.886 -0.3782 -0.3476  1.5162
19617SOL    HW276462  13.596   7.083   2.826 -1.4537 -1.0284 -0.2931
19618SOL     OW76463   6.101   2.932  12.497  0.1758 -0.0496 -0.1457
19618SOL    HW176464   6.055   2.865  12.547  0.3857  0.9017  1.3826
19618SOL    HW276465   6.141   2.988  12.563  3.5038 -0.7558 -1.3568
19619SOL     OW76466   0.171   9.618   9.522 -0.1471  0.1277 -0.3035
19619SOL    HW176467   0.266   9.630   9.523 -0.1856  0.4583 -0.7507
19619SOL    HW276468   0.159   9.523   9.524  0.1679  0.0699  1.6842
19620SOL     OW76469   8.398   2.448  11.288  0.0209 -0.1325 -0.0846
19620SOL    HW176470   8.440   2.402  11.215 -0.2518 -1.2035  0.4116
19620SOL    HW276471   8.334   2.385  11.322 -0.7700  0.8403  0.2587
19621SOL     OW76472  13.925   3.319   9.087  0.3310 -0.6275 -0.0452
19621SOL    HW176473  13.900   3.384   9.022  1.8999  0.4170  0.3366
19621SOL    HW276474  13.963   3.370   9.159 -2.3834 -1.6295  2.2972
19622SOL     OW76475   8.169   9.281   6.557  0.4532  0.1161  0.1311
19622SOL    HW176476   8.242   9.222   6.574  0.3206 -0.6359 -1.6979
19622SOL    HW276477   8.117   9.237   6.490  1.1316  2.8719 -2.4404
19623SOL     OW76478   1.685  13.374  11.784 -0.3895  1.0946  0.1220
19623SOL    HW176479   1.725  13.460  11.772  2.1262 -0.0875 -0.6862
19623SOL    HW276480   1.725  13.340  11.863 -1.1877  0.5582  0.3057
19624SOL     OW76481   5.002   0.922   4.391  0.1921  0.0903  0.0150
19624SOL    HW176482   4.966   0.930   4.302 -0.7032  0.6954  0.4207
19624SOL    HW276483   5.087   0.879   4.378 -1.1746 -2.5478 -0.8500
19625SOL     OW76484   9.624   6.952  13.249 -0.3815 -0.2081  0.4338
19625SOL    HW176485   9.690   6.883  13.242 -0.0578  0.1717 -0.4780
19625SOL    HW276486   9.622   6.975  13.341  1.0185  0.0193  0.4208
19626SOL     OW76487   3.836   7.903   5.791 -0.0393  0.0570 -0.4586
19626SOL    HW176488   3.822   7.925   5.699 -0.7435  2.2422  0.1135
19626SOL    HW276489   3.927   7.874   5.795 -0.6289 -2.3639 -2.1824
19627SOL     OW76490   3.219  11.155   9.017 -0.6386  0.0336 -0.1673
19627SOL    HW176491   3.220  11.146   9.112 -0.2737  1.1370 -0.0621
19627SOL    HW276492   3.211  11.065   8.985  1.1446 -0.5452  0.8716
19628SOL     OW76493  13.226   6.412   7.944  0.4147 -0.2492  0.2785
19628SOL    HW176494  13.200   6.415   8.036  0.3332 -2.0527  0.3460
19628SOL    HW276495  13.145   6.394   7.896  0.5602  0.0759 -0.0964
19629SOL     OW76496  13.571  10.359  13.721 -0.3251 -0.3037 -0.1945
19629SOL    HW176497  13.630  10.404  13.780 -0.5603 -0.3371  0.0671
19629SOL    HW276498  13.588  10.398  13.635 -0.1361 -0.1074 -0.0667
19630SOL     OW76499   0.378   4.631  12.824  0.5949  0.0706 -0.3272
19630SOL    HW176500   0.361   4.704  12.883  0.7763 -0.4071  0.3358
19630SOL    HW276501   0.427   4.568  12.877 -1.2334 -1.4015 -0.2561
19631SOL     OW76502  12.684   2.085   8.822  0.4303 -0.3828 -0.7186
19631SOL    HW176503  12.691   2.056   8.912 -0.8831 -1.2003 -0.8631
19631SOL    HW276504  12.663   2.178   8.828  0.6417 -0.3663 -0.1985
19632SOL     OW76505  11.914  11.748   0.375  0.2060  0.9140 -0.3708
19632SOL    HW176506  11.995  11.708   0.408 -0.3019  0.6619  0.5932
19632SOL    HW276507  11.869  11.779   0.453 -0.5838  1.1515 -0.9109
19633SOL     OW76508   0.741   3.332  12.086  0.4498 -0.5063 -0.5850
19633SOL    HW176509   0.645   3.338  12.079  0.4910  0.1512 -0.6963
19633SOL    HW276510   0.757   3.308  12.177  0.2407  1.9451  0.1739
19634SOL     OW76511   4.365   5.112   6.280 -0.3960 -0.2508 -0.6314
19634SOL    HW176512   4.367   5.124   6.185  1.2494  1.0258 -0.4757
19634SOL    HW276513   4.430   5.174   6.314  0.2047 -1.7972  1.2088
19635SOL     OW76514   0.322  10.284   8.087  0.5701 -0.1391  0.0479
19635SOL    HW176515   0.363  10.354   8.137  1.6228 -0.1141 -0.8031
19635SOL    HW276516   0.289  10.223   8.153  1.0930  0.3562  0.7743
19636SOL     OW76517   1.260   5.725  13.890  0.0382  0.6820 -0.4882
19636SOL    HW176518   1.337   5.716  13.947  0.0022  1.4674 -0.2999
19636SOL    HW276519   1.289   5.694  13.805  0.2748  0.0612 -0.1856
19637SOL     OW76520   7.704   0.827   3.245  0.2647 -0.5266 -0.8585
19637SOL    HW176521   7.670   0.913   3.222  0.8534  0.2524  1.0299
19637SOL    HW276522   7.749   0.839   3.329  0.3869 -2.6575 -0.5387
19638SOL     OW76523   4.342   8.036   3.701  0.1508 -0.4044 -0.1481
19638SOL    HW176524   4.384   7.988   3.772  1.4791  0.1733 -0.5036
19638SOL    HW276525   4.274   8.087   3.744 -0.0947 -1.2494  0.4802
19639SOL     OW76526   0.533   6.488  13.537  0.3548  0.4633  0.1906
19639SOL    HW176527   0.578   6.408  13.564 -1.0168 -0.8947 -1.3082
19639SOL    HW276528   0.604   6.550  13.518  1.4204  0.1277  2.7309
19640SOL     OW76529   5.161   0.811   1.447  0.1441  0.3964  0.4033
19640SOL    HW176530   5.175   0.885   1.506  0.7130  0.1670  0.5704
19640SOL    HW276531   5.152   0.851   1.360 -1.7658  0.8183  0.7492
19641SOL     OW76532  13.566  13.033  10.254 -0.2046 -0.0702 -0.0181
19641SOL    HW176533  13.485  13.008  10.210 -0.3952  1.9356 -0.9507
19641SOL    HW276534  13.544  13.033  10.347 -2.0154  2.5062 -0.3256
19642SOL     OW76535  11.015  13.412   6.727  0.1348  0.3629  0.3313
19642SOL    HW176536  10.927  13.376   6.724  0.1934  0.2482 -0.0307
19642SOL    HW276537  11.005  13.494   6.776  0.5931 -1.7799  4.4567
19643SOL     OW76538  13.484  11.426  10.271 -0.0325  0.0827 -0.8620
19643SOL    HW176539  13.551  11.464  10.215  1.1647  0.4039  0.7483
19643SOL    HW276540  13.421  11.387  10.209  1.6688 -0.3305 -2.4080
19644SOL     OW76541  13.950   7.688  12.296 -0.6150 -0.0783 -0.4101
19644SOL    HW176542  13.908   7.656  12.216 -2.1893 -0.9948  0.7248
19644SOL    HW276543  13.880   7.688  12.362  0.8533 -0.3552  1.2316
19645SOL     OW76544   5.312  10.356  12.621 -0.2999  0.1314  0.3419
19645SOL    HW176545   5.286  10.352  12.529  1.0753 -0.3593 -0.0482
19645SOL    HW276546   5.374  10.429  12.625 -0.2716  0.0828  0.8604
19646SOL     OW76547   6.501  10.871   5.127  0.2455  0.3139  0.0148
19646SOL    HW176548   6.577  10.833   5.083 -0.2991  0.5397 -1.1614
19646SOL    HW276549   6.537  10.937   5.186  1.0147 -0.1784  0.1034
19647SOL     OW76550   0.662   9.408  12.379 -0.4209 -0.4217  0.1691
19647SOL    HW176551   0.658   9.321  12.339  0.1952 -1.7359  2.7506
19647SOL    HW276552   0.753   9.436  12.364 -0.9050  0.3553 -1.6383
19648SOL     OW76553  11.133   3.181   1.115  0.2733  0.7221  0.0558
19648SOL    HW176554  11.224   3.183   1.144  0.3266  1.1532 -0.1366
19648SOL    HW276555  11.134   3.129   1.035  0.0224 -1.0671  1.1724
19649SOL     OW76556  12.923   6.256   5.543 -0.1588  0.3453  0.0256
19649SOL    HW176557  12.927   6.160   5.545 -2.2037  0.2338  0.7435
19649SOL    HW276558  12.927   6.278   5.450  2.1088 -0.2658 -0.0965
19650SOL     OW76559   9.952  10.089   8.541  0.6935 -0.0452  0.4307
19650SOL    HW176560   9.909  10.004   8.531  1.7611 -0.4531 -0.9913
19650SOL    HW276561  10.000  10.082   8.624  1.4743 -1.1789 -0.0869
19651SOL     OW76562   4.125   6.124   6.472 -0.7113 -0.4229 -0.3090
19651SOL    HW176563   4.083   6.039   6.487  1.9379 -1.7902  0.0998
19651SOL    HW276564   4.097   6.178   6.545 -0.1865 -1.9548  1.0977
19652SOL     OW76565   9.860   9.149   2.459 -0.0261  1.0713  0.1494
19652SOL    HW176566   9.929   9.125   2.520  1.0365  2.5791 -0.4146
19652SOL    HW276567   9.781   9.107   2.495  1.5584 -3.0761 -0.6958
19653SOL     OW76568   1.479  13.014   1.419 -0.5946 -0.7455 -0.0086
19653SOL    HW176569   1.488  13.094   1.470  1.4574 -0.6282 -0.4432
19653SOL    HW276570   1.473  13.044   1.328 -0.7407 -1.0480 -0.1016
19654SOL     OW76571  10.489   6.094  12.511  0.4981  0.2520 -0.5850
19654SOL    HW176572  10.526   6.137  12.589 -0.6292  0.7877 -0.3259
19654SOL    HW276573  10.555   6.030  12.486  0.0850 -1.3415  2.0130
19655SOL     OW76574   3.766   8.703   7.735 -0.4714  0.6530 -0.3858
19655SOL    HW176575   3.738   8.642   7.667  2.0237 -1.1326  0.0706
19655SOL    HW276576   3.800   8.779   7.687 -1.9352  0.9616 -0.9942
19656SOL     OW76577   2.938  13.427   9.541 -0.6585  0.5378 -0.2845
19656SOL    HW176578   2.877  13.487   9.499 -1.3848 -0.3124 -0.4758
19656SOL    HW276579   3.003  13.407   9.474  0.2200  1.9347  0.1102
19657SOL     OW76580   9.904   8.322   0.029  0.4580  0.0576  0.5503
19657SOL    HW176581   9.842   8.275   0.085 -1.2268 -0.2926 -1.5084
19657SOL    HW276582   9.852   8.352  -0.045  3.0330 -2.0159 -2.3417
19658SOL     OW76583   3.648   5.239  13.725  0.1296  0.3118 -0.5091
19658SOL    HW176584   3.651   5.300  13.799  2.8749  1.5520 -1.5085
19658SOL    HW276585   3.726   5.261  13.673 -0.2449 -2.3051 -2.3490
19659SOL     OW76586   5.186   5.202   4.210 -0.4057  0.0646 -0.2652
19659SOL    HW176587   5.182   5.124   4.155  2.5556 -0.1223 -0.3812
19659SOL    HW276588   5.117   5.190   4.275  0.6540 -3.2495  0.4294
19660SOL     OW76589   9.307   7.589   3.286  0.2213 -0.3402  0.9599
19660SOL    HW176590   9.399   7.564   3.284  0.9938  2.1981  0.6460
19660SOL    HW276591   9.286   7.598   3.379  0.4171 -0.4890  1.0186
19661SOL     OW76592   1.076  11.394   0.770  0.2391 -0.4730  0.1748
19661SOL    HW176593   1.138  11.412   0.700 -0.3090  3.2657  0.4350
19661SOL    HW276594   1.087  11.467   0.831 -2.3379 -1.2678  1.7522
19662SOL     OW76595   4.631  13.943  13.832 -0.2907 -0.1469  0.5085
19662SOL    HW176596   4.653  13.857  13.868  0.1685 -0.3928 -0.3328
19662SOL    HW276597   4.546  13.930  13.789  0.3578 -0.5230 -0.7132
19663SOL     OW76598   3.483  11.904  13.310 -0.1204  0.0696 -0.0201
19663SOL    HW176599   3.539  11.981  13.303 -1.2802  0.8000 -1.8608
19663SOL    HW276600   3.530  11.845  13.369  1.8081  1.2908 -0.2761
19664SOL     OW76601  10.789   4.458  11.274  0.5213  0.5021 -0.6009
19664SOL    HW176602  10.765   4.400  11.345 -0.3840  2.3921  0.7259
19664SOL    HW276603  10.838   4.529  11.316 -1.7701  2.7519 -1.4042
19665SOL     OW76604   7.878   5.489   4.855  0.4828  0.1922 -0.1419
19665SOL    HW176605   7.801   5.485   4.798 -0.1146  1.3152  0.5519
19665SOL    HW276606   7.948   5.522   4.799  0.1956  0.1750 -0.5178
19666SOL     OW76607   2.185  10.356   4.367 -0.4910 -0.0885  0.3329
19666SOL    HW176608   2.173  10.262   4.362  1.3910 -0.5189  2.3317
19666SOL    HW276609   2.162  10.379   4.457  2.5294  0.6723  1.0398
19667SOL     OW76610   9.723  11.560  11.435 -0.3083 -0.0113  0.1319
19667SOL    HW176611   9.775  11.606  11.501 -0.9295 -0.1152  0.7069
19667SOL    HW276612   9.750  11.468  11.444 -0.0874  0.0355 -0.0496
19668SOL     OW76613   4.822  11.125   2.599  0.2697  0.1807  0.5633
19668SOL    HW176614   4.763  11.198   2.617  0.6997  1.2682 -2.1248
19668SOL    HW276615   4.767  11.061   2.553  0.7312  0.3586 -0.2390
19669SOL     OW76616   4.108   9.771   0.394 -0.6182 -0.0125  0.3586
19669SOL    HW176617   4.165   9.740   0.465 -1.5736  0.6803  1.4726
19669SOL    HW276618   4.062   9.846   0.432 -1.8773 -0.2318 -0.6706
19670SOL     OW76619  10.276   2.985   9.236  0.0114 -0.0162  0.3519
19670SOL    HW176620  10.363   2.998   9.200  0.9602 -0.4902  2.3296
19670SOL    HW276621  10.250   2.897   9.206  0.4402 -0.0819  0.1772
19671SOL     OW76622   1.771  11.331   9.432  0.3577  0.5762  0.8738
19671SOL    HW176623   1.818  11.294   9.358 -0.8686 -3.5942  1.9035
19671SOL    HW276624   1.714  11.398   9.393  1.2639  0.0156 -1.5879
19672SOL     OW76625   7.109  13.775   3.815 -0.4376 -0.2604 -0.5474
19672SOL    HW176626   7.087  13.827   3.892 -0.3571  1.8063 -1.8512
19672SOL    HW276627   7.026  13.766   3.767 -0.9029 -3.0779  0.5472
19673SOL     OW76628   3.463   5.410   7.355 -0.3158 -0.1948 -0.7572
19673SOL    HW176629   3.525   5.343   7.385 -1.0791 -1.0048 -0.9737
19673SOL    HW276630   3.445   5.387   7.264 -0.4943  0.3795 -0.8710
19674SOL     OW76631  12.908   1.037  12.267 -0.2946 -0.0877 -0.0950
19674SOL    HW176632  12.883   1.080  12.349  0.3579 -1.0765  0.6383
19674SOL    HW276633  12.982   0.982  12.290 -1.0970 -1.6146 -0.9915
19675SOL     OW76634   0.458   4.831   5.588 -0.0710 -0.0942  0.4888
19675SOL    HW176635   0.405   4.779   5.648 -0.0896  0.5769  1.0743
19675SOL    HW276636   0.450   4.787   5.504  0.1998 -1.2288  1.0327
19676SOL     OW76637  10.353   5.366   5.767 -0.3477 -0.8060  0.1624
19676SOL    HW176638  10.392   5.279   5.769 -0.4346 -0.8749 -0.7345
19676SOL    HW276639  10.428   5.426   5.768 -0.1973 -0.9332 -1.1117
19677SOL     OW76640  12.500   8.980   4.126 -0.6500  0.4005  0.6804
19677SOL    HW176641  12.440   8.927   4.074  0.4983  1.7445 -2.2143
19677SOL    HW276642  12.563   8.918   4.162 -0.8596 -0.4739 -0.4278
19678SOL     OW76643  11.468   6.184  10.892 -0.2450  0.6830  0.6272
19678SOL    HW176644  11.450   6.112  10.832 -0.9113  0.6529  0.8522
19678SOL    HW276645  11.556   6.167  10.925 -0.2339  0.2062  0.3545
19679SOL     OW76646   6.241  13.795   7.171 -0.0796 -0.2682 -0.3324
19679SOL    HW176647   6.149  13.815   7.154 -0.3600 -1.2244  0.0240
19679SOL    HW276648   6.245  13.780   7.266  0.2933 -0.9608 -0.4515
19680SOL     OW76649   1.226   4.998   8.388  0.7706  0.1810 -0.0583
19680SOL    HW176650   1.275   4.939   8.447  0.5406  0.1951  0.1502
19680SOL    HW276651   1.135   4.985   8.413  0.7462  0.9719  0.3114
19681SOL     OW76652   9.070   7.726   1.704  0.3970  0.3505  0.4247
19681SOL    HW176653   8.995   7.670   1.724  0.9221 -0.7115 -0.4814
19681SOL    HW276654   9.126   7.672   1.649  0.1263  2.3161 -1.9468
19682SOL     OW76655   8.206   4.660   2.182 -0.5545  0.1308  0.0990
19682SOL    HW176656   8.275   4.640   2.245 -1.5504  2.2741  2.0646
19682SOL    HW276657   8.147   4.584   2.185  0.7532 -0.9230 -0.2539
19683SOL     OW76658   6.674   6.257   1.965  0.2299 -0.6715  0.1240
19683SOL    HW176659   6.760   6.249   2.006 -0.4303 -0.2396  1.6510
19683SOL    HW276660   6.693   6.278   1.873  1.7492 -2.6559 -0.0701
19684SOL     OW76661   3.956   6.347   0.796  0.0174  0.0423  0.0050
19684SOL    HW176662   3.984   6.429   0.837 -1.6731  0.9085 -0.4846
19684SOL    HW276663   4.037   6.309   0.760  0.7780  1.6603 -0.0628
19685SOL     OW76664   1.057   0.968   2.864 -0.3438 -0.0803  0.6662
19685SOL    HW176665   0.997   0.908   2.908 -1.2973  0.4023  0.0302
19685SOL    HW276666   1.144   0.939   2.894 -0.9327  0.1817  2.8239
19686SOL     OW76667  10.793   7.119   0.473 -0.0571 -0.0027  0.6727
19686SOL    HW176668  10.807   7.205   0.512  0.0070  0.5468 -0.5287
19686SOL    HW276669  10.876   7.097   0.431  0.4171 -1.3353  2.2107
19687SOL     OW76670  13.159  11.035   0.537  0.2512 -0.4796 -0.3892
19687SOL    HW176671  13.182  11.055   0.446 -1.0686 -0.0583 -0.6562
19687SOL    HW276672  13.068  11.006   0.533 -0.0431  0.1676  0.8630
19688SOL     OW76673  10.921   6.034   0.682  0.1807  0.1637 -0.2072
19688SOL    HW176674  10.896   6.122   0.654  0.1315 -0.1590 -1.2225
19688SOL    HW276675  10.840   5.984   0.682  0.6358 -0.7246 -2.9188
19689SOL     OW76676  10.032   7.116   3.993 -0.3393 -0.4315  0.0104
19689SOL    HW176677  10.092   7.191   3.996  0.2224 -0.8737  0.0967
19689SOL    HW276678  10.007   7.102   4.084 -2.3622  1.1382 -0.2421
19690SOL     OW76679   2.025   3.139   1.060 -0.4709 -0.1139  0.4944
19690SOL    HW176680   1.938   3.139   1.100 -0.6956 -0.5995  0.0225
19690SOL    HW276681   2.034   3.224   1.018 -0.4248  0.2148  1.1671
19691SOL     OW76682   5.872  10.582  13.099  0.3102 -0.4449 -0.7014
19691SOL    HW176683   5.857  10.544  13.012  0.6788 -0.2020 -0.8719
19691SOL    HW276684   5.802  10.545  13.153 -0.5733  0.2190 -1.3561
19692SOL     OW76685   4.240   7.893  11.901  0.4469 -0.1476  0.0353
19692SOL    HW176686   4.306   7.869  11.965 -0.1468  1.1327  1.1827
19692SOL    HW276687   4.289   7.911  11.821  1.4480  0.2760  0.7195
19693SOL     OW76688   6.319  13.123  12.323  0.2360  0.5807  0.8866
19693SOL    HW176689   6.267  13.048  12.296 -0.0271  0.8912  0.5224
19693SOL    HW276690   6.406  13.107  12.285  0.2966  0.2683  1.1471
19694SOL     OW76691   2.541  11.199  12.097 -0.3838 -0.1834 -0.0281
19694SOL    HW176692   2.582  11.173  12.015 -3.4014  0.6334 -1.9900
19694SOL    HW276693   2.511  11.288  12.082  0.8057  0.8220  2.8238
19695SOL     OW76694  12.834   0.024   4.421 -0.2690  0.1849  0.0026
19695SOL    HW176695  12.864   0.005   4.332  0.3828 -1.1265  0.4822
19695SOL    HW276696  12.838  -0.060   4.467  0.8915  1.0995  1.6955
19696SOL     OW76697  12.056  12.011  12.060  0.1655 -0.2111  0.1675
19696SOL    HW176698  12.063  11.989  11.967 -0.8728  0.4513 -0.0837
19696SOL    HW276699  11.973  11.972  12.087  0.1350  0.1813  0.6472
19697SOL     OW76700   8.475   1.296   6.513 -0.4106  0.2183  0.0057
19697SOL    HW176701   8.547   1.352   6.484 -0.9882  1.5297  0.9923
19697SOL    HW276702   8.412   1.300   6.441  0.2347 -0.4921 -0.6235
19698SOL     OW76703   8.972   0.007   5.394  0.4010 -0.5049  0.3261
19698SOL    HW176704   8.992  -0.012   5.486 -0.5415 -0.3508  0.5812
19698SOL    HW276705   9.043   0.064   5.365  0.9581 -0.9393  0.8193
19699SOL     OW76706   7.146   4.380   3.813 -0.4145 -0.1276 -0.1239
19699SOL    HW176707   7.188   4.407   3.732  0.1258  1.7547  0.7337
19699SOL    HW276708   7.107   4.460   3.848  0.5443 -0.5693  2.1519
19700SOL     OW76709  13.140   0.578  13.159 -0.3647 -0.5561 -0.5793
19700SOL    HW176710  13.227   0.539  13.151 -0.1736 -0.3600  0.4167
19700SOL    HW276711  13.088   0.533  13.093  0.0410 -1.9723  0.0231
19701SOL     OW76712   1.884  11.188   8.182  0.0570  0.1972 -0.4982
19701SOL    HW176713   1.912  11.096   8.188 -0.9523 -0.0256  1.7583
19701SOL    HW276714   1.963  11.239   8.198  0.2211 -0.3295  0.4423
19702SOL     OW76715   6.169   5.454   2.422 -0.2103 -0.0743  0.4349
19702SOL    HW176716   6.177   5.363   2.394  0.6130  0.2169 -0.3199
19702SOL    HW276717   6.074   5.470   2.427 -0.3731 -0.4816 -1.0731
19703SOL     OW76718   4.518  13.847   9.358  0.1513 -0.4007  0.6079
19703SOL    HW176719   4.428  13.817   9.343 -0.3835  1.0853  0.6740
19703SOL    HW276720   4.567  13.767   9.380 -0.6563 -1.5979 -1.5738
19704SOL     OW76721   2.891   9.252   3.646 -0.7039  0.3096  0.7305
19704SOL    HW176722   2.840   9.331   3.633  0.6265  1.0040 -0.5670
19704SOL    HW276723   2.944   9.269   3.724 -1.2529  0.2124  1.1335
19705SOL     OW76724   0.733   5.295   9.167 -0.2172  0.7610 -0.5205
19705SOL    HW176725   0.725   5.221   9.107 -0.7590  0.1388  0.2966
19705SOL    HW276726   0.766   5.367   9.113  0.4447 -0.1110 -1.2964
19706SOL     OW76727   4.533   9.556   6.901  0.0440 -0.2389  0.2041
19706SOL    HW176728   4.587   9.556   6.821 -0.1352 -1.0779  0.0826
19706SOL    HW276729   4.448   9.523   6.873  0.0081 -0.6332  0.7657
19707SOL     OW76730   3.860  12.326   7.969 -0.5845  0.1734 -0.1756
19707SOL    HW176731   3.925  12.272   7.926  0.1447  1.2589 -0.4638
19707SOL    HW276732   3.899  12.413   7.974 -2.3548  1.0828 -1.1758
19708SOL     OW76733  11.291   8.348   0.826  0.2483  0.1792 -0.3350
19708SOL    HW176734  11.276   8.409   0.754 -1.7155  0.0363 -0.1148
19708SOL    HW276735  11.300   8.262   0.784 -0.9321  0.0899 -0.4433
19709SOL     OW76736   3.715   3.081   2.333 -0.5633 -0.2731 -0.0684
19709SOL    HW176737   3.695   3.170   2.360  1.0631  0.3772 -0.8502
19709SOL    HW276738   3.668   3.069   2.251 -2.6846 -1.0260  1.1631
19710SOL     OW76739   0.181  11.103  10.469 -0.5831  0.1042  0.0580
19710SOL    HW176740   0.125  11.040  10.424  0.3520 -0.3623 -0.4801
19710SOL    HW276741   0.244  11.049  10.517  0.5262  0.6089 -0.7843
19711SOL     OW76742   4.756   6.988   4.437  0.1610  0.6813  0.5941
19711SOL    HW176743   4.778   6.960   4.349  0.6784 -0.0674  0.9457
19711SOL    HW276744   4.822   7.054   4.459  0.0235  0.8773  0.4145
19712SOL     OW76745  12.431  10.996   1.905 -0.0673  0.7191  0.5603
19712SOL    HW176746  12.436  11.082   1.863  0.1207  0.3603 -0.1595
19712SOL    HW276747  12.436  10.934   1.833  0.4783  0.0886  1.1332
19713SOL     OW76748  12.156   5.676  13.412 -0.1202 -0.3915  0.3428
19713SOL    HW176749  12.068   5.682  13.374  0.1271  0.6379 -0.0870
19713SOL    HW276750  12.177   5.765  13.439  0.3054 -0.8473  1.5913
19714SOL     OW76751   6.203   8.536   0.744  0.3786  0.2350 -0.0839
19714SOL    HW176752   6.146   8.521   0.818  0.1672  2.1822  0.2061
19714SOL    HW276753   6.147   8.524   0.667  0.1151  0.1004  0.1291
19715SOL     OW76754  12.781   8.833   9.851  0.4894  0.5207 -0.3590
19715SOL    HW176755  12.872   8.804   9.849  0.1982 -0.4036 -0.4429
19715SOL    HW276756  12.729   8.753   9.841 -0.3267  1.1589 -1.4202
19716SOL     OW76757  11.370  10.751  12.555  0.2395  0.3638 -0.0987
19716SOL    HW176758  11.450  10.804  12.560  1.8827 -1.7779 -1.3915
19716SOL    HW276759  11.338  10.765  12.466  3.3168 -3.9356 -2.2708
19717SOL     OW76760   6.175  11.926   8.698 -0.0964  0.2479 -0.3530
19717SOL    HW176761   6.179  11.964   8.610  0.0484 -1.1672 -0.9787
19717SOL    HW276762   6.119  11.849   8.689 -0.7253  0.5193  0.9770
19718SOL     OW76763   9.569   9.146  13.673 -0.5702  0.3009 -0.2300
19718SOL    HW176764   9.551   9.078  13.738 -0.0347 -0.9566 -1.3504
19718SOL    HW276765   9.566   9.228  13.723  1.2968 -0.7092  1.7180
19719SOL     OW76766   5.188  11.349   7.240 -0.6943  0.0318  0.6113
19719SOL    HW176767   5.125  11.403   7.289  0.6213  1.8572  0.3953
19719SOL    HW276768   5.273  11.388   7.259  0.1043 -0.7231 -1.1728
19720SOL     OW76769   0.312   8.819  11.525 -0.4239  0.0545 -0.4214
19720SOL    HW176770   0.282   8.900  11.483 -1.9767 -0.7800 -1.0061
19720SOL    HW276771   0.232   8.778  11.558  0.6588  0.4319  3.0511
19721SOL     OW76772  13.813   6.791  12.101  0.0623  0.6928 -0.3621
19721SOL    HW176773  13.892   6.751  12.066  0.8286  1.0819  0.8548
19721SOL    HW276774  13.748   6.720  12.104  0.9910 -0.1433  0.5257
19722SOL     OW76775   1.071   0.015  10.701 -0.5410  0.1529  0.2995
19722SOL    HW176776   1.038   0.083  10.642  0.3675 -1.7743 -2.6733
19722SOL    HW276777   1.162   0.042  10.718 -0.0027 -0.4648 -1.3195
19723SOL     OW76778   5.710  12.448   2.310  0.1579  0.5350  0.2547
19723SOL    HW176779   5.661  12.479   2.234 -1.1317 -1.0041  0.3896
19723SOL    HW276780   5.652  12.464   2.384  0.4995  0.0708  0.6298
19724SOL     OW76781   4.056   9.690   6.635 -0.3124 -0.3211 -0.1749
19724SOL    HW176782   4.054   9.769   6.690 -0.6846 -1.2748  1.2464
19724SOL    HW276783   3.976   9.697   6.582  1.3219  1.8866 -2.5818
19725SOL     OW76784   0.889   2.485   5.366 -0.5047  0.4444 -0.0139
19725SOL    HW176785   0.977   2.479   5.403  0.6995  1.9388 -2.3969
19725SOL    HW276786   0.880   2.577   5.341 -3.0469  0.4784  0.7230
19726SOL     OW76787   3.242   7.967   9.665  0.0798  0.4348  0.4541
19726SOL    HW176788   3.313   7.968   9.729  0.4913  0.3396  0.0058
19726SOL    HW276789   3.254   7.885   9.616 -0.2196  0.5120  0.2451
19727SOL     OW76790  13.540   8.433   1.115 -0.0843  0.1956  0.1917
19727SOL    HW176791  13.573   8.501   1.174 -0.4156  0.0730  0.5212
19727SOL    HW276792  13.449   8.419   1.143 -1.1793  2.0695 -2.0330
19728SOL     OW76793  12.978   4.271   6.603  0.3748 -0.0470 -0.3646
19728SOL    HW176794  13.031   4.304   6.675 -0.2575 -0.0719  0.1123
19728SOL    HW276795  12.889   4.298   6.623  0.0046 -1.0993 -0.5067
19729SOL     OW76796   8.640   0.092  13.751  0.0471 -0.2939  0.5821
19729SOL    HW176797   8.732   0.092  13.724 -0.0374 -0.8962  0.2769
19729SOL    HW276798   8.591   0.094  13.669 -0.2122 -0.5767  0.7280
19730SOL     OW76799   2.993   7.613   6.986 -0.6428  0.2374 -0.1597
19730SOL    HW176800   3.072   7.636   6.937 -0.8957  2.9838  0.5560
19730SOL    HW276801   3.021   7.605   7.077 -0.8147 -1.1814 -0.2077
19731SOL     OW76802   4.017  11.543  13.285  0.2307  0.0120  0.5670
19731SOL    HW176803   3.974  11.458  13.296  0.8173 -0.4583 -0.6534
19731SOL    HW276804   4.052  11.541  13.196 -1.3457  2.2558 -0.2157
19732SOL     OW76805   5.982  13.339   9.959 -0.0680  0.2866 -0.2671
19732SOL    HW176806   6.031  13.396   9.900  0.6070 -0.9901 -0.9856
19732SOL    HW276807   5.895  13.379   9.964  0.1792  1.0062 -1.2914
19733SOL     OW76808   5.558   4.440  12.520  0.3431 -0.4506 -0.2660
19733SOL    HW176809   5.516   4.525  12.508  1.6835  0.1735 -0.6862
19733SOL    HW276810   5.531   4.389  12.443 -1.6678 -0.9582  0.7115
19734SOL     OW76811   6.068   6.598   0.026 -0.5198  0.4849  0.0155
19734SOL    HW176812   6.087   6.657   0.099 -2.3194  1.8498 -0.5294
19734SOL    HW276813   6.123   6.629  -0.046 -1.3404  1.4446 -0.2209
19735SOL     OW76814   3.016   8.393   6.399 -0.2347 -0.2554  0.6602
19735SOL    HW176815   3.040   8.326   6.335 -0.2429 -0.0002  0.3857
19735SOL    HW276816   2.968   8.459   6.348  0.6621  0.4653  0.7220
19736SOL     OW76817   8.865   7.315  13.255 -0.4526  0.0001  0.6179
19736SOL    HW176818   8.818   7.276  13.329  1.1553 -2.6536  0.3649
19736SOL    HW276819   8.813   7.291  13.178 -0.0268 -0.8027  0.5647
19737SOL     OW76820   2.996   7.604  10.739 -0.1627 -0.0993  0.4634
19737SOL    HW176821   3.069   7.602  10.801  1.1239 -1.7040 -1.0040
19737SOL    HW276822   3.007   7.685  10.691  0.1582  0.0659  0.8116
19738SOL     OW76823   9.601  10.663   6.276 -0.0782  0.1590  0.7636
19738SOL    HW176824   9.665  10.612   6.325 -0.8864 -1.7272 -0.0739
19738SOL    HW276825   9.641  10.673   6.189 -1.8110 -3.1953 -0.6021
19739SOL     OW76826  10.007   1.138  11.008 -0.0020 -0.1713 -0.3675
19739SOL    HW176827  10.011   1.232  11.021 -0.7325 -0.0067 -1.2548
19739SOL    HW276828  10.097   1.108  11.016  0.2677  0.6390 -0.3664
19740SOL     OW76829   9.002   0.385   5.865  0.2543  0.3860 -0.2782
19740SOL    HW176830   8.943   0.453   5.897 -1.4353 -0.0092 -2.3204
19740SOL    HW276831   8.970   0.305   5.907  0.3043  0.3933 -0.2261
19741SOL     OW76832   3.518   4.370   9.142 -0.0812  0.2029  0.2431
19741SOL    HW176833   3.564   4.287   9.131  0.2421  0.2972  0.8317
19741SOL    HW276834   3.524   4.388   9.236 -4.1745 -1.4128  0.9965
19742SOL     OW76835   8.540   3.808   0.628 -0.1698 -0.6076  0.5194
19742SOL    HW176836   8.478   3.860   0.578 -1.0632 -2.1219 -0.0296
19742SOL    HW276837   8.507   3.810   0.718 -0.4639 -0.6191  0.4101
19743SOL     OW76838   8.822   8.430   1.239 -0.0333  0.3423 -0.0410
19743SOL    HW176839   8.898   8.435   1.297  0.9949  0.1850 -1.3328
19743SOL    HW276840   8.810   8.519   1.207 -0.7544  0.4797  0.5859
19744SOL     OW76841   2.259  13.148   5.855  0.0467  0.2975  0.4788
19744SOL    HW176842   2.348  13.148   5.820 -0.1444 -1.3558 -0.1056
19744SOL    HW276843   2.217  13.224   5.815  1.0523  0.8237  0.3947
19745SOL     OW76844   7.856   1.933   4.600 -0.1273  0.0459 -0.0461
19745SOL    HW176845   7.865   1.839   4.615 -3.4675 -0.4178 -0.2879
19745SOL    HW276846   7.835   1.940   4.507  0.6350  1.1353 -0.1618
19746SOL     OW76847   4.474   9.783   0.821  0.3771  0.0118 -0.3527
19746SOL    HW176848   4.484   9.688   0.834 -0.7124 -0.2151 -1.0611
19746SOL    HW276849   4.460   9.818   0.909  0.0962 -0.5784 -0.1560
19747SOL     OW76850   7.257  13.748   8.299  0.1360  0.2507 -0.6663
19747SOL    HW176851   7.209  13.752   8.382 -1.4083 -1.5444 -1.4006
19747SOL    HW276852   7.347  13.728   8.325  0.4172  2.7781  0.6882
19748SOL     OW76853   9.346  10.984  13.940 -0.0828 -0.1374 -0.1456
19748SOL    HW176854   9.338  10.895  13.973  0.9995 -0.3834 -0.4942
19748SOL    HW276855   9.422  11.020  13.986  0.3664  0.1095 -1.0590
19749SOL     OW76856   8.630   2.815   6.751 -0.4305 -0.1311  0.2350
19749SOL    HW176857   8.552   2.835   6.700 -0.6990  0.6164  0.9133
19749SOL    HW276858   8.700   2.862   6.706 -0.2635 -1.2226 -0.6720
19750SOL     OW76859   7.432   4.743  10.870  0.2291  0.7823  0.3655
19750SOL    HW176860   7.527   4.742  10.856  0.4805  2.9990  1.4068
19750SOL    HW276861   7.403   4.824  10.827 -1.1565  0.2917  0.3316
19751SOL     OW76862  12.359  11.153   7.457 -0.0753 -0.9107  0.3204
19751SOL    HW176863  12.440  11.103   7.445  0.1866 -1.0319  2.3377
19751SOL    HW276864  12.342  11.190   7.370  1.9739 -1.1095 -0.2350
19752SOL     OW76865   3.094  14.042  10.506 -0.1897  0.5573 -0.6762
19752SOL    HW176866   3.124  13.995  10.583 -1.6845 -1.0115 -0.9807
19752SOL    HW276867   3.146  14.006  10.434 -0.8387 -0.1692 -0.8020
19753SOL     OW76868   0.593   1.841   2.374 -0.2774  0.0014 -0.0622
19753SOL    HW176869   0.565   1.852   2.465 -1.4815  3.1230 -0.6606
19753SOL    HW276870   0.539   1.770   2.341 -0.5245 -0.5375  1.4048
19754SOL     OW76871  10.759   0.310   6.100  0.4518 -0.0425 -0.6429
19754SOL    HW176872  10.837   0.348   6.060  0.4357 -0.5104 -1.1355
19754SOL    HW276873  10.785   0.291   6.190  0.8314  0.0268 -0.7347
19755SOL     OW76874   6.030   3.395  13.924 -0.3191  0.5059  0.0227
19755SOL    HW176875   6.019   3.404  14.019  1.0563 -0.4510  0.3007
19755SOL    HW276876   6.017   3.484  13.891  1.1452  1.2664  1.3401
19756SOL     OW76877   8.997  12.318   6.372  0.4927  0.0379  0.1061
19756SOL    HW176878   9.015  12.229   6.341 -0.2892  0.2371 -0.9523
19756SOL    HW276879   8.945  12.305   6.451 -0.8704 -0.4536 -0.8411
19757SOL     OW76880  12.396   5.140   8.214 -0.3918 -0.3512  0.5055
19757SOL    HW176881  12.433   5.217   8.257 -1.5905  0.3732  0.2756
19757SOL    HW276882  12.448   5.129   8.134 -0.3269  0.3119  0.4564
19758SOL     OW76883   9.264   3.795   5.216  0.3803  0.0702 -0.0737
19758SOL    HW176884   9.234   3.885   5.220  0.7179  0.2564 -1.1777
19758SOL    HW276885   9.185   3.744   5.196  0.3610  0.2638 -0.5155
19759SOL     OW76886   5.382  13.536   6.770  0.0706  0.2810 -0.0754
19759SOL    HW176887   5.366  13.580   6.854  0.3629 -1.0838  0.7238
19759SOL    HW276888   5.463  13.576   6.737  0.9483 -0.4135  1.1741
19760SOL     OW76889   7.571   9.370  14.024 -0.0972  0.6354 -0.0697
19760SOL    HW176890   7.494   9.419  13.995 -0.3803  0.5463  0.5159
19760SOL    HW276891   7.640   9.436  14.031 -0.4597  0.9509  0.6517
19761SOL     OW76892   0.681   4.912   1.096  0.4160 -0.0670 -0.2367
19761SOL    HW176893   0.682   4.931   1.002  2.0605  0.8698 -0.0792
19761SOL    HW276894   0.627   4.982   1.133  2.9635  1.9815 -0.1257
19762SOL     OW76895   3.622   7.269  13.936  0.0083 -0.3265  1.1886
19762SOL    HW176896   3.704   7.241  13.895  0.6274  0.2532  2.0032
19762SOL    HW276897   3.611   7.211  14.011  0.7430  0.8573  2.2593
19763SOL     OW76898   1.764   0.739   9.727 -0.2722 -0.1140  0.1776
19763SOL    HW176899   1.788   0.831   9.716 -0.3167  0.0883  1.5902
19763SOL    HW276900   1.838   0.690   9.691  0.6488  0.4874  1.1877
19764SOL     OW76901  13.937   8.694   6.568 -0.2611  0.1975 -0.3686
19764SOL    HW176902  14.014   8.732   6.526  0.4018 -0.1578  0.5038
19764SOL    HW276903  13.925   8.610   6.525 -0.0872  0.2000 -0.4248
19765SOL     OW76904  13.348   6.262  10.072 -0.6811  0.4135 -0.4240
19765SOL    HW176905  13.410   6.190  10.064 -0.0718  0.6982  1.3097
19765SOL    HW276906  13.271   6.223  10.113 -1.6891  0.0671 -2.5451
19766SOL     OW76907   7.865  13.081  11.963  0.1921  0.2031  0.0594
19766SOL    HW176908   7.886  13.110  11.874 -0.7821 -0.8452 -0.5480
19766SOL    HW276909   7.847  12.987  11.954  2.3213 -0.4364  1.7825
19767SOL     OW76910   0.090   7.451   3.750 -0.4009  0.4645  0.1901
19767SOL    HW176911   0.175   7.418   3.721 -1.3766  0.1457 -2.5314
19767SOL    HW276912   0.089   7.542   3.721 -0.4852  0.8892  1.4585
19768SOL     OW76913   6.677  12.119   7.569  0.3577 -0.0805 -0.2570
19768SOL    HW176914   6.674  12.157   7.656 -2.6359  0.1016 -0.3373
19768SOL    HW276915   6.705  12.190   7.512  0.6123  0.2878  0.3233
19769SOL     OW76916   3.956   3.154   1.695 -0.1418  0.3360 -0.0303
19769SOL    HW176917   3.973   3.149   1.789  0.5342 -1.8463 -0.1998
19769SOL    HW276918   4.005   3.231   1.666  0.0360  0.7607  1.3302
19770SOL     OW76919  11.396   9.002   9.205  0.0166 -0.2230  0.3284
19770SOL    HW176920  11.398   8.912   9.173 -0.1477  0.0176 -0.3738
19770SOL    HW276921  11.444   8.999   9.288  3.1463 -0.3120 -1.3514
19771SOL     OW76922   6.149  11.976   8.957 -0.5412  0.4116 -0.4300
19771SOL    HW176923   6.162  11.955   8.865  1.3291  0.4830 -0.2185
19771SOL    HW276924   6.233  11.956   8.999 -0.9406  1.5956  1.0301
19772SOL     OW76925   4.019  12.818   6.743 -0.0172 -0.1156 -0.1664
19772SOL    HW176926   4.003  12.786   6.832 -0.3076  0.8530  0.1475
19772SOL    HW276927   4.106  12.856   6.747  0.7021 -1.6446 -0.7768
19773SOL     OW76928   6.139   0.512   8.593  0.1502  0.4190  0.5183
19773SOL    HW176929   6.192   0.433   8.603  0.8767  0.9107  0.6117
19773SOL    HW276930   6.069   0.486   8.532  1.5260  0.2539 -1.0604
19774SOL     OW76931   7.314   3.431  12.171  0.3126 -0.2193  0.2985
19774SOL    HW176932   7.251   3.401  12.105 -0.0792  0.1097  0.5239
19774SOL    HW276933   7.399   3.403  12.136  0.0141 -1.0715  0.2122
19775SOL     OW76934  10.915   0.885   4.906  0.5522 -0.3934 -0.2482
19775SOL    HW176935  10.855   0.863   4.835  1.6370 -0.2429 -1.2426
19775SOL    HW276936  10.859   0.891   4.984 -0.8564  0.6508 -1.2868
19776SOL     OW76937   7.591  12.513   8.984  0.3294  0.1894 -0.5255
19776SOL    HW176938   7.634  12.563   8.915 -1.0305  1.3752 -0.5648
19776SOL    HW276939   7.592  12.571   9.060  1.3868 -0.9150  0.3421
19777SOL     OW76940   8.718  14.074   8.623 -0.6038 -0.1807 -0.0649
19777SOL    HW176941   8.794  14.126   8.599 -0.0625 -0.6186  0.6703
19777SOL    HW276942   8.648  14.139   8.636  0.0369  0.3751  0.7441
19778SOL     OW76943  10.420   7.001   2.716  0.1318  0.0350  0.4098
19778SOL    HW176944  10.449   7.032   2.802  1.3280  0.1258 -0.0037
19778SOL    HW276945  10.454   7.065   2.655 -1.6250  0.5532 -0.0804
19779SOL     OW76946  13.243   6.384   4.560 -0.5516  0.2879 -0.1949
19779SOL    HW176947  13.332   6.419   4.557 -0.2163 -0.5548 -0.5337
19779SOL    HW276948  13.196   6.430   4.491  0.3155 -1.0382 -1.7366
19780SOL     OW76949   9.509   4.156   0.420  0.4489  0.2265 -0.1920
19780SOL    HW176950   9.525   4.169   0.326 -0.5816 -0.8904 -0.5434
19780SOL    HW276951   9.585   4.196   0.463 -0.0956  2.7254 -1.3671
19781SOL     OW76952   3.289  11.311   1.723 -0.4162  0.8066 -0.3148
19781SOL    HW176953   3.248  11.343   1.643 -0.9979 -1.2440 -0.8977
19781SOL    HW276954   3.219  11.314   1.789 -0.3311  1.1419 -0.2342
19782SOL     OW76955  12.536   5.517   8.524  0.0373 -0.1715 -0.3432
19782SOL    HW176956  12.543   5.611   8.541  0.4120 -0.2288 -0.1560
19782SOL    HW276957  12.448   5.494   8.552  1.1299 -0.5734  3.1916
19783SOL     OW76958   9.196   2.168   7.487 -0.1778  0.8381 -0.9159
19783SOL    HW176959   9.139   2.196   7.414 -1.0810  1.8056  0.1301
19783SOL    HW276960   9.135   2.130   7.550  0.4792  0.9029 -0.2409
19784SOL     OW76961   9.179   8.279   6.929 -0.5295 -0.3396 -0.6532
19784SOL    HW176962   9.262   8.284   6.882 -0.5836 -0.2366 -0.7377
19784SOL    HW276963   9.171   8.364   6.974 -1.0679  0.0403 -1.4489
19785SOL     OW76964   5.167   1.969   2.750 -0.6102  0.4377 -0.0964
19785SOL    HW176965   5.176   2.027   2.826 -2.0068  1.3249 -0.5737
19785SOL    HW276966   5.151   2.029   2.677 -1.2313 -0.5165 -0.7543
19786SOL     OW76967  13.018   5.846   3.023  0.1620  0.6605  0.0807
19786SOL    HW176968  12.936   5.797   3.023  0.3127  0.3920  0.6051
19786SOL    HW276969  13.053   5.836   2.935  0.9401 -1.4546  0.5894
19787SOL     OW76970   5.214  12.380   4.074 -0.2140  0.5051 -0.6110
19787SOL    HW176971   5.211  12.298   4.024 -3.8042  0.2507 -0.2895
19787SOL    HW276972   5.178  12.445   4.013 -1.7786  0.8083  0.5690
19788SOL     OW76973   2.922  10.779  13.025 -0.2223  0.0584 -0.3163
19788SOL    HW176974   2.958  10.690  13.029 -0.5825 -0.0697  0.2543
19788SOL    HW276975   2.829  10.766  13.009 -0.9699  0.1534  3.1916
19789SOL     OW76976  11.377   4.570   5.192  0.1245 -0.6149 -0.1720
19789SOL    HW176977  11.354   4.662   5.201  0.2930 -0.4156 -1.6657
19789SOL    HW276978  11.301   4.529   5.151  0.6882 -0.8082 -1.0477
19790SOL     OW76979  12.968   8.135   0.635  0.3614  0.5722  0.3019
19790SOL    HW176980  12.918   8.184   0.570  1.1118  1.2025  0.1843
19790SOL    HW276981  13.059   8.161   0.620  0.7506 -0.6474  0.4307
19791SOL     OW76982  13.348  12.106   5.565 -0.2789 -0.1110 -0.1409
19791SOL    HW176983  13.365  12.200   5.565 -0.1079 -0.1204 -1.4269
19791SOL    HW276984  13.429  12.067   5.597 -0.2218  0.1687  0.0554
19792SOL     OW76985  11.337  12.667   2.884  0.2706  0.4653 -0.1936
19792SOL    HW176986  11.412  12.613   2.908  0.2386  0.2709 -0.5320
19792SOL    HW276987  11.374  12.738   2.833  0.0162 -0.7567 -2.2009
19793SOL     OW76988  12.547   8.111   7.040  0.6298  0.2897 -0.2794
19793SOL    HW176989  12.463   8.149   7.067  0.7139 -0.5770  1.3558
19793SOL    HW276990  12.603   8.122   7.117  1.4294 -0.8119 -0.6829
19794SOL     OW76991  12.750   2.947   6.867 -0.0574 -0.2619 -0.0449
19794SOL    HW176992  12.742   3.001   6.946 -1.3260 -1.4990  0.7211
19794SOL    HW276993  12.839   2.912   6.871 -0.0906 -0.2684  0.8395
19795SOL     OW76994  10.288   0.773   6.274 -0.1061  0.0032 -0.0028
19795SOL    HW176995  10.232   0.851   6.272  0.4428  0.4975  1.7330
19795SOL    HW276996  10.227   0.699   6.277 -0.7439  0.5330  2.0891
19796SOL     OW76997   9.020   9.342   3.379  0.2318 -0.3446  0.1533
19796SOL    HW176998   9.115   9.333   3.365  0.3916  1.2271  0.0220
19796SOL    HW276999   8.985   9.255   3.364  1.4862 -0.6309 -1.2950
19797SOL     OW77000   0.853   3.642   8.842 -0.4383  0.2154 -0.5504
19797SOL    HW177001   0.914   3.581   8.884 -0.9844 -1.4369 -2.0259
19797SOL    HW277002   0.898   3.672   8.763  0.1456  2.4393  0.5545
19798SOL     OW77003  10.593   2.642   3.973  0.4569  0.0386 -0.0279
19798SOL    HW177004  10.563   2.723   4.014 -0.0124 -0.1459 -0.0038
19798SOL    HW277005  10.626   2.669   3.887 -0.4971  0.1449 -0.3683
19799SOL     OW77006   2.635  10.053   3.074  0.0650  0.0699 -0.1164
19799SOL    HW177007   2.641  10.110   2.997 -0.3451 -0.0880 -0.2632
19799SOL    HW277008   2.566   9.990   3.053  0.0991 -0.1075  0.2930
19800SOL     OW77009   7.854   3.600  11.903 -0.3606 -0.0130 -0.1309
19800SOL    HW177010   7.885   3.676  11.953  1.2219  0.1578 -1.2822
19800SOL    HW277011   7.931   3.542  11.898 -0.3046  0.1750 -2.6974
19801SOL     OW77012   6.097   0.270   3.080  0.3612  0.3835 -0.0478
19801SOL    HW177013   6.112   0.285   2.986  0.3921  0.8860  0.0316
19801SOL    HW277014   6.002   0.260   3.088  0.1818  1.9340  0.0665
19802SOL     OW77015   0.536   0.156  12.537  0.0072  0.2985 -0.1268
19802SOL    HW177016   0.558   0.114  12.454  2.0051  1.0886 -0.0653
19802SOL    HW277017   0.612   0.211  12.557 -1.3440  1.8455  1.1346
19803SOL     OW77018  11.293   8.117   7.526  0.5217 -0.2606 -0.2051
19803SOL    HW177019  11.204   8.100   7.556 -0.2448 -1.1328 -2.7553
19803SOL    HW277020  11.337   8.154   7.603 -2.1126  0.5845  1.0309
19804SOL     OW77021  12.411   1.229   3.756 -0.0983  0.5619  0.1305
19804SOL    HW177022  12.433   1.232   3.663  0.6983 -1.1733  0.2116
19804SOL    HW277023  12.494   1.208   3.799 -0.8391 -0.7522  0.9976
19805SOL     OW77024  11.114   7.091  11.356 -0.4091 -0.0530  0.1272
19805SOL    HW177025  11.184   7.065  11.417  0.2550  1.4373  0.0551
19805SOL    HW277026  11.120   7.187  11.353 -0.1773 -0.0898 -2.5775
19806SOL     OW77027  13.880  11.932  12.746  0.0022 -0.6073  0.5774
19806SOL    HW177028  13.844  11.854  12.789 -2.9907 -0.3783 -1.2114
19806SOL    HW277029  13.865  12.003  12.807  0.3934 -1.0251  1.1693
19807SOL     OW77030  11.204   5.012   2.251  0.4929  0.5420 -0.0096
19807SOL    HW177031  11.156   5.062   2.185  0.3414 -0.2478 -0.5077
19807SOL    HW277032  11.275   5.071   2.277  1.1674  0.5036 -1.6144
19808SOL     OW77033   8.036   7.756   0.271  0.0136 -0.3285 -0.1163
19808SOL    HW177034   7.969   7.697   0.236 -1.6193  0.8843  0.7993
19808SOL    HW277035   8.085   7.785   0.195 -0.6943 -1.0338 -0.8584
19809SOL     OW77036  10.189  11.338  12.724  0.4098  0.3161  0.6921
19809SOL    HW177037  10.150  11.424  12.707 -0.2438 -0.0971  0.0619
19809SOL    HW277038  10.127  11.276  12.686  2.3535 -0.3120 -1.7210
19810SOL     OW77039   9.758   1.946   5.653  0.2100  0.1367 -0.6784
19810SOL    HW177040   9.662   1.947   5.644  0.0270  2.1811  0.6682
19810SOL    HW277041   9.776   1.875   5.714 -0.5025  0.0538 -0.5589
19811SOL     OW77042   3.321   1.406   8.815  0.0116  0.1200  0.3912
19811SOL    HW177043   3.301   1.492   8.780  0.1898 -0.0928 -0.2419
19811SOL    HW277044   3.352   1.423   8.905  2.7787  0.9958 -0.6148
19812SOL     OW77045   3.750  10.922   6.263 -0.0987 -0.4879 -0.0570
19812SOL    HW177046   3.660  10.918   6.293 -0.1854 -0.8296 -0.3666
19812SOL    HW277047   3.795  10.975   6.329 -0.7287  0.5179 -0.4113
19813SOL     OW77048   8.746  10.161  13.924 -0.0502 -0.5292 -0.1493
19813SOL    HW177049   8.729  10.068  13.916  1.1137 -0.7939  0.2359
19813SOL    HW277050   8.691  10.189  13.998 -1.0361 -0.7147 -0.7895
19814SOL     OW77051   1.413   5.949   2.920 -0.4165  0.4847  0.1240
19814SOL    HW177052   1.354   5.965   2.846  0.0737 -0.5152 -0.5160
19814SOL    HW277053   1.407   6.027   2.974 -2.2516  0.4414  0.0322
19815SOL     OW77054   7.765  12.852  12.808 -0.3308 -0.2000 -0.1976
19815SOL    HW177055   7.727  12.940  12.802 -1.3788 -0.6186 -0.0756
19815SOL    HW277056   7.690  12.796  12.830  0.5451 -0.9344  1.0356
19816SOL     OW77057   8.572   5.166   2.321  0.3470  0.2147  0.4177
19816SOL    HW177058   8.651   5.133   2.365 -0.3728 -0.6268  1.1198
19816SOL    HW277059   8.594   5.167   2.228  1.3347  0.4087  0.6468
19817SOL     OW77060   4.552   1.170  10.829  0.1303 -0.6371 -0.0793
19817SOL    HW177061   4.509   1.099  10.877 -1.0492  0.6315  0.8133
19817SOL    HW277062   4.516   1.164  10.740 -1.0496 -0.3236  0.3534
19818SOL     OW77063   5.106  11.789  13.533 -0.5784 -0.1658  0.1646
19818SOL    HW177064   5.163  11.712  13.540 -0.4479 -0.1972 -0.9836
19818SOL    HW277065   5.056  11.789  13.614  1.3291  0.1046  1.4096
19819SOL     OW77066   7.179   1.042   1.806 -0.0886  0.7178 -0.5522
19819SOL    HW177067   7.148   0.986   1.735  0.1494  0.6122 -0.5711
19819SOL    HW277068   7.254   1.089   1.770  1.0120 -0.4693  0.0914
19820SOL     OW77069   9.189  13.436   1.610 -0.3080 -0.4824 -0.8301
19820SOL    HW177070   9.158  13.525   1.624 -0.4076 -0.3259 -1.9654
19820SOL    HW277071   9.166  13.416   1.519 -0.7117 -1.8357 -0.4652
19821SOL     OW77072   0.045   3.624  11.818  0.8655  0.4836  0.2140
19821SOL    HW177073   0.111   3.642  11.752 -1.0056  1.5936 -1.4496
19821SOL    HW277074   0.047   3.529  11.829  4.6934  0.5964  2.4635
19822SOL     OW77075   2.296  10.028  12.415 -0.1962 -0.4930 -0.0971
19822SOL    HW177076   2.309  10.106  12.469 -3.0054 -0.9935  1.5041
19822SOL    HW277077   2.242  10.059  12.342 -0.5186 -0.7557  0.0302
19823SOL     OW77078   3.068   3.323   0.953 -0.0828 -0.2278  0.1701
19823SOL    HW177079   3.103   3.407   0.925  1.3013 -0.5750  0.7960
19823SOL    HW277080   3.139   3.261   0.939 -1.1762 -1.3615 -0.5516
19824SOL     OW77081   3.340   2.130  10.219 -0.4006  0.0244  0.4663
19824SOL    HW177082   3.338   2.213  10.172 -1.5489 -0.0215  0.4174
19824SOL    HW277083   3.248   2.106  10.230 -0.1748  0.0388  2.7575
19825SOL     OW77084   3.192   9.174  12.733 -0.1647 -0.4509  0.1005
19825SOL    HW177085   3.278   9.198  12.767 -0.3304 -0.7570  0.7392
19825SOL    HW277086   3.193   9.079  12.730 -0.5536 -0.4599  0.2942
19826SOL     OW77087  13.353  12.517   7.690 -0.0510 -0.1671 -0.0517
19826SOL    HW177088  13.339  12.543   7.781  0.4871  1.0039 -0.2709
19826SOL    HW277089  13.445  12.538   7.674  0.3251 -1.9728 -0.3722
19827SOL     OW77090   6.096   6.258   0.314  0.4109 -0.5817  0.6377
19827SOL    HW177091   6.125   6.194   0.379 -1.6550 -3.2154 -0.8112
19827SOL    HW277092   6.001   6.258   0.322 -0.0569 -1.8820 -2.9570
19828SOL     OW77093   9.340   2.720  11.232 -0.4349 -0.5054  0.1798
19828SOL    HW177094   9.386   2.637  11.228  0.3913 -0.0259 -0.9680
19828SOL    HW277095   9.293   2.718  11.314  0.9330 -1.4056  0.9778
19829SOL     OW77096   7.870  13.941   8.497 -0.0723  0.4705 -0.4316
19829SOL    HW177097   7.776  13.959   8.503  0.0582  1.0161  0.0493
19829SOL    HW277098   7.878  13.848   8.520 -0.6008  0.1291 -1.5171
19830SOL     OW77099  13.639   8.810   2.446 -0.3220  0.0901 -0.1246
19830SOL    HW177100  13.557   8.778   2.485  0.6845 -0.1623  1.8966
19830SOL    HW277101  13.651   8.897   2.484  0.8243 -0.2595  0.3519
19831SOL     OW77102  12.635   6.068   3.464 -0.4924  0.1411  0.1635
19831SOL    HW177103  12.645   6.077   3.559 -0.2223 -1.9036  0.3780
19831SOL    HW277104  12.720   6.036   3.434 -0.6877  0.4367 -0.7314
19832SOL     OW77105  10.562   5.708  13.141 -0.4079 -0.5585 -0.1264
19832SOL    HW177106  10.503   5.633  13.133 -0.4923 -0.4135 -0.9939
19832SOL    HW277107  10.532   5.754  13.219 -1.3728 -0.5499 -0.4846
19833SOL     OW77108   6.519   6.275   3.373  0.0121  0.0947  0.3848
19833SOL    HW177109   6.464   6.258   3.297 -0.5518 -0.6912  0.9567
19833SOL    HW277110   6.475   6.231   3.446  2.0656 -1.7743  0.6136
19834SOL     OW77111  13.634   5.924   1.932 -0.6533 -0.2419  0.9999
19834SOL    HW177112  13.673   6.001   1.973 -0.1237 -0.4279  0.8552
19834SOL    HW277113  13.634   5.858   2.002 -1.1218 -0.1044  1.1287
19835SOL     OW77114   2.346   3.566   6.811 -0.5520 -0.1741  0.1928
19835SOL    HW177115   2.348   3.536   6.721  1.4929 -0.2138  0.1893
19835SOL    HW277116   2.262   3.612   6.820 -0.2017  1.0853 -2.1453
19836SOL     OW77117   0.160  13.371   0.009 -0.1468  0.3515 -0.0124
19836SOL    HW177118   0.153  13.305   0.078 -0.6008 -0.5527 -0.8841
19836SOL    HW277119   0.231  13.428   0.037 -0.5765  0.2502  1.3884
19837SOL     OW77120   8.198   0.817   4.103 -0.5559  0.0332  0.1337
19837SOL    HW177121   8.134   0.759   4.062 -0.1102 -0.0214 -0.5094
19837SOL    HW277122   8.278   0.765   4.108 -0.7081 -0.1035  1.4880
19838SOL     OW77123   3.758   2.575   2.883  0.6447 -0.3953 -0.2061
19838SOL    HW177124   3.685   2.622   2.923  1.4534  0.1487  0.6724
19838SOL    HW277125   3.784   2.511   2.948  1.1780 -0.3458 -0.3631
19839SOL     OW77126   0.261  10.366   4.764  0.1623  0.3179  0.5666
19839SOL    HW177127   0.287  10.393   4.676 -0.7248  2.5970  0.9154
19839SOL    HW277128   0.166  10.357   4.759  0.2301 -0.6981  1.0168
19840SOL     OW77129   3.579  11.475  12.793 -0.4341  0.1229 -0.2541
19840SOL    HW177130   3.548  11.558  12.757 -1.8023 -0.0757  0.4204
19840SOL    HW277131   3.500  11.423  12.804  0.2431 -0.7359  0.7030
19841SOL     OW77132   9.571  13.099   7.946  0.1764  0.0055 -0.5623
19841SOL    HW177133   9.639  13.033   7.959 -0.2363 -0.2837  0.1791
19841SOL    HW277134   9.617  13.182   7.958  0.6859 -0.1401 -1.4464
19842SOL     OW77135   6.970  13.893   5.384  0.4427  0.1231 -0.4112
19842SOL    HW177136   6.897  13.832   5.395  0.1881  0.8111  2.7288
19842SOL    HW277137   6.933  13.965   5.332 -1.2560  0.5587  1.2740
19843SOL     OW77138   6.166  13.210  12.541 -0.1854 -0.0913 -0.5175
19843SOL    HW177139   6.227  13.187  12.471 -0.5431 -0.4240 -0.7241
19843SOL    HW277140   6.221  13.249  12.609  0.1930  0.0547 -0.8982
19844SOL     OW77141   6.318  11.794  11.657  0.6280 -0.4258 -0.1600
19844SOL    HW177142   6.239  11.765  11.612  0.1717  0.9493 -0.2954
19844SOL    HW277143   6.332  11.883  11.625  2.4127 -0.7346 -0.3740
19845SOL     OW77144   9.493   7.666   6.563  0.0106  0.9897 -0.7260
19845SOL    HW177145   9.402   7.636   6.561  0.2433 -0.1752  1.9990
19845SOL    HW277146   9.538   7.611   6.499 -0.7683 -0.1470 -0.3209
19846SOL     OW77147   5.460   7.635   6.494 -0.4193  0.0566  0.0622
19846SOL    HW177148   5.435   7.657   6.404 -0.3848 -0.1450  0.0039
19846SOL    HW277149   5.378   7.621   6.540 -0.4144 -1.4842 -0.3413
19847SOL     OW77150   5.521  11.049  10.051 -0.1174 -0.1814  0.3542
19847SOL    HW177151   5.544  11.122   9.994  0.5359 -1.1642 -0.6783
19847SOL    HW277152   5.539  11.081  10.140  0.6733  0.7162 -0.1143
19848SOL     OW77153  12.896   1.727   7.208  0.0895  0.5124  0.3413
19848SOL    HW177154  12.827   1.767   7.261  0.1098 -1.0166  1.6016
19848SOL    HW277155  12.975   1.735   7.262  0.6669  1.1878 -0.5779
19849SOL     OW77156   8.364  12.536  12.036  0.5532  0.5123  0.3946
19849SOL    HW177157   8.422  12.548  11.960 -1.6907  0.1559 -1.5057
19849SOL    HW277158   8.345  12.442  12.036 -0.5095  0.7074  0.5343
19850SOL     OW77159   9.233   3.980   9.591  0.2344 -0.0720  0.4211
19850SOL    HW177160   9.321   4.000   9.557 -0.0168  0.1917 -0.0774
19850SOL    HW277161   9.186   3.944   9.516 -0.5920  1.3188  0.2467
19851SOL     OW77162   9.557   7.622   4.164  0.0641  0.3104  0.4079
19851SOL    HW177163   9.494   7.648   4.097 -0.4440  0.7259  1.0381
19851SOL    HW277164   9.548   7.688   4.233  1.0964  0.3065  0.5683
19852SOL     OW77165   8.138   2.414   6.714  0.0904 -0.1902  0.1652
19852SOL    HW177166   8.208   2.478   6.710 -0.5089  0.4790  0.1606
19852SOL    HW277167   8.162   2.355   6.785  0.4426  0.2778  0.4337
19853SOL     OW77168   4.636   2.093   6.291  0.4741 -0.4653 -0.3541
19853SOL    HW177169   4.570   2.142   6.339  1.2137 -0.7373  0.9857
19853SOL    HW277170   4.691   2.159   6.249 -0.0762 -0.2281 -0.7202
19854SOL     OW77171   2.450   7.008   8.243 -0.4159  0.7213  0.8390
19854SOL    HW177172   2.518   6.958   8.198  0.5329 -0.7024  3.6464
19854SOL    HW277173   2.421   7.072   8.178 -0.3115 -2.1419 -2.2818
19855SOL     OW77174  11.239   0.617   0.798 -0.7574 -0.5111 -0.2685
19855SOL    HW177175  11.147   0.641   0.796 -0.9714 -1.2073  0.6398
19855SOL    HW277176  11.240   0.526   0.827  0.1432 -1.0441 -1.8663
19856SOL     OW77177  13.072  10.494  10.998  0.4603 -0.5045 -0.0007
19856SOL    HW177178  13.081  10.589  10.985  0.3880 -0.4218  0.5356
19856SOL    HW277179  13.150  10.469  11.048  0.0294 -0.5680  0.6517
19857SOL     OW77180  13.816   0.621  11.276 -0.2409 -0.0094 -0.0394
19857SOL    HW177181  13.847   0.696  11.327 -1.5166  0.0599  0.6964
19857SOL    HW277182  13.822   0.547  11.337  1.7103 -0.6818 -0.9974
19858SOL     OW77183  12.472  13.263   7.069  0.5256  0.7187 -0.2662
19858SOL    HW177184  12.457  13.357   7.062 -1.9360  0.5503  1.6103
19858SOL    HW277185  12.420  13.224   6.999  0.6389  0.6732 -0.3263
19859SOL     OW77186   8.277   5.112   4.144 -0.2213 -0.3541 -0.2073
19859SOL    HW177187   8.197   5.084   4.098 -0.3703  1.6663 -1.2586
19859SOL    HW277188   8.249   5.187   4.197  0.9178  0.2012 -0.3741
19860SOL     OW77189   5.626  11.905  13.402  0.8696  0.0386 -0.7671
19860SOL    HW177190   5.615  11.837  13.335  1.6772 -0.3732 -0.4962
19860SOL    HW277191   5.669  11.860  13.474  1.8216  0.9328 -0.7484
19861SOL     OW77192  13.407   4.911  13.028 -0.6297 -0.6535 -0.4234
19861SOL    HW177193  13.501   4.894  13.017 -0.2679  0.3754  0.8488
19861SOL    HW277194  13.377   4.843  13.086  0.2125  1.1701  2.3440
19862SOL     OW77195   5.679   7.849   4.851  0.0484  0.2848 -0.1394
19862SOL    HW177196   5.757   7.861   4.798 -0.6342  0.7522 -1.0826
19862SOL    HW277197   5.640   7.768   4.819  0.2245 -0.0199  0.4220
19863SOL     OW77198   1.836  11.852  13.225 -0.0696 -0.3761  0.2678
19863SOL    HW177199   1.839  11.895  13.140  0.5093 -3.5459 -1.5077
19863SOL    HW277200   1.824  11.759  13.204  2.3205 -1.6205  3.5504
19864SOL     OW77201   8.802   8.162   4.069 -0.1328 -0.6238  0.3663
19864SOL    HW177202   8.802   8.114   3.986  0.8442 -0.4785  0.2629
19864SOL    HW277203   8.725   8.218   4.065 -0.8697 -1.6296  0.1612
19865SOL     OW77204   0.594   9.769   6.088 -0.1981  0.5913  0.0062
19865SOL    HW177205   0.629   9.839   6.144  1.0102  2.7834 -3.1981
19865SOL    HW277206   0.522   9.810   6.041  0.0590 -0.5544 -1.4423
19866SOL     OW77207   9.593   7.313  13.003  0.5780 -0.0068 -0.6203
19866SOL    HW177208   9.554   7.317  13.090  1.3869  1.5891 -0.2903
19866SOL    HW277209   9.519   7.300  12.944 -0.0179 -0.7746  0.2555
19867SOL     OW77210   3.098   3.335   5.196  0.2872 -0.2054 -0.3231
19867SOL    HW177211   3.143   3.292   5.268 -0.5858 -0.3734  0.1381
19867SOL    HW277212   3.041   3.267   5.159  0.2491  0.0553 -0.7585
19868SOL     OW77213  13.133   1.044  10.787  0.3834  0.3384 -0.0503
19868SOL    HW177214  13.097   0.984  10.853 -0.1467  1.1975  0.4504
19868SOL    HW277215  13.101   1.009  10.704  0.3170 -0.2382  0.2103
19869SOL     OW77216   8.621  10.492   3.583  0.4318  0.2826 -0.2390
19869SOL    HW177217   8.542  10.493   3.636  0.1432  1.2264 -0.6723
19869SOL    HW277218   8.608  10.561   3.518  0.4212 -1.3748 -2.0979
19870SOL     OW77219  11.826  12.528   3.066 -0.4452  0.5267  0.2485
19870SOL    HW177220  11.893  12.585   3.102  1.6055 -1.9542  0.6964
19870SOL    HW277221  11.842  12.528   2.972  2.9777 -2.9538  0.5812
19871SOL     OW77222   9.503  13.545   1.225  0.3510 -0.0297 -0.3693
19871SOL    HW177223   9.559  13.584   1.158  0.4415 -0.3733 -0.4969
19871SOL    HW277224   9.536  13.579   1.308 -0.9247  1.9035 -0.5887
19872SOL     OW77225   9.021  10.338   5.075 -0.2460 -0.3999  0.0480
19872SOL    HW177226   8.989  10.281   5.145  1.1910  0.0838  1.1369
19872SOL    HW277227   9.114  10.347   5.091 -0.3216  1.8430 -0.3804
19873SOL     OW77228   7.303  10.505   3.431  0.0933 -0.0631  0.6530
19873SOL    HW177229   7.330  10.478   3.519  0.2652 -1.4897  0.1775
19873SOL    HW277230   7.216  10.468   3.420  0.4248 -0.6451 -0.0982
19874SOL     OW77231   2.600   0.034   2.331  0.3764  0.2974  0.2720
19874SOL    HW177232   2.551   0.026   2.413  1.7924 -2.0863  0.9911
19874SOL    HW277233   2.664   0.102   2.348 -0.0980  0.6393  0.7275
19875SOL     OW77234   9.796  13.261   4.573  0.1491  0.9569 -0.1606
19875SOL    HW177235   9.791  13.331   4.508 -2.3639  1.3309  0.3188
19875SOL    HW277236   9.704  13.245   4.598  0.7813 -1.3724  0.9586
19876SOL     OW77237  10.207   3.826   6.805  0.4521 -0.0731  0.0960
19876SOL    HW177238  10.167   3.827   6.892 -1.5689  1.6121 -0.8055
19876SOL    HW277239  10.301   3.814   6.823 -0.0276 -0.8817  2.4253
19877SOL     OW77240  11.361   5.806  12.198  0.2114  0.3030  0.4200
19877SOL    HW177241  11.267   5.796  12.182  0.0465  0.8689  0.9801
19877SOL    HW277242  11.403   5.756  12.128 -0.5097 -0.3110  0.4136
19878SOL     OW77243   6.040   9.012   6.901 -0.1518 -0.2774  0.4411
19878SOL    HW177244   5.979   8.957   6.852 -1.1884  1.9675 -0.9449
19878SOL    HW277245   5.985   9.061   6.962  0.7453 -0.7589  1.6674
19879SOL     OW77246   4.559   3.346  11.692  0.3828  0.0124  0.4475
19879SOL    HW177247   4.566   3.378  11.602 -1.6302 -1.4802 -0.3190
19879SOL    HW277248   4.612   3.407  11.744 -1.2359  3.0602 -1.2342
19880SOL     OW77249   8.984   0.036  13.159  0.0938 -0.7136  0.7540
19880SOL    HW177250   9.047   0.056  13.089  0.6647 -1.1198  1.1411
19880SOL    HW277251   8.980   0.117  13.211  0.5641 -0.7963  0.9250
19881SOL     OW77252   6.812  11.980   3.288 -0.2520  0.4670  0.0621
19881SOL    HW177253   6.787  12.050   3.228  0.5947 -0.4168 -1.3919
19881SOL    HW277254   6.842  12.025   3.367  2.4327  1.9350 -1.6350
19882SOL     OW77255   4.126   0.413  10.878  1.0763  0.1938  0.4684
19882SOL    HW177256   4.128   0.379  10.789  0.9272  2.4216 -0.4495
19882SOL    HW277257   4.218   0.428  10.900  1.0461  0.8612  0.1665
19883SOL     OW77258   3.049   5.577   6.899  0.4712  0.2588 -0.2709
19883SOL    HW177259   3.050   5.663   6.940 -2.8615 -0.4771  1.6965
19883SOL    HW277260   3.051   5.595   6.805  0.3262  2.4708  0.1104
19884SOL     OW77261   3.644   6.764   7.016  0.2171  0.1748 -0.0282
19884SOL    HW177262   3.695   6.685   6.999 -0.5244  0.0858 -2.0538
19884SOL    HW277263   3.678   6.829   6.954  0.8340  1.4950  1.6134
19885SOL     OW77264  11.546  12.628   3.172  0.1620  0.0961 -0.0257
19885SOL    HW177265  11.633  12.649   3.137 -0.5164  2.5190 -0.4476
19885SOL    HW277266  11.524  12.543   3.134  0.7241  1.2117 -3.1361
19886SOL     OW77267   0.754  12.996   9.617  0.7067 -0.5803  0.0935
19886SOL    HW177268   0.666  13.018   9.586  1.2079 -0.6501 -1.4531
19886SOL    HW277269   0.740  12.927   9.683 -0.4239 -0.0915  0.3922
19887SOL     OW77270  10.021  10.927   2.091 -0.3807 -0.7561  0.0773
19887SOL    HW177271   9.926  10.918   2.082 -0.5377 -1.1582  1.8967
19887SOL    HW277272  10.034  11.015   2.127 -0.0540 -0.7199 -0.1186
19888SOL     OW77273   1.546  12.229  12.390 -0.0029  0.4088  0.5178
19888SOL    HW177274   1.577  12.311  12.428 -0.9681  0.7466  0.6141
19888SOL    HW277275   1.455  12.222  12.420  0.3244 -1.1434  1.2455
19889SOL     OW77276   5.280   8.854   0.185  0.4579 -0.0778 -0.3821
19889SOL    HW177277   5.228   8.888   0.112  1.1036 -0.2110 -0.9146
19889SOL    HW277278   5.300   8.932   0.237  0.9439  0.1957 -0.9617
19890SOL     OW77279  10.367   0.805   2.699 -0.1779  0.2580 -0.1212
19890SOL    HW177280  10.301   0.872   2.714  1.6108  2.1950 -0.3867
19890SOL    HW277281  10.446   0.839   2.742  1.2578 -0.8083 -1.7579
19891SOL     OW77282   3.976   2.008   7.585 -0.3900  0.2437  0.7369
19891SOL    HW177283   4.035   1.941   7.618  0.4091  0.2078 -0.7209
19891SOL    HW277284   3.932   2.041   7.663  0.9966 -0.2537  1.7632
19892SOL     OW77285   9.476   2.396  11.776  0.6123 -0.4077 -0.3258
19892SOL    HW177286   9.515   2.333  11.837 -0.7717 -0.6138  0.3678
19892SOL    HW277287   9.400   2.430  11.823 -0.0214  0.0157 -1.6426
19893SOL     OW77288  11.213  13.807   8.934 -0.6936 -0.2899 -0.4239
19893SOL    HW177289  11.299  13.777   8.964 -0.3064  0.1477 -1.0872
19893SOL    HW277290  11.229  13.846   8.848 -1.7766 -1.4520 -1.1972
19894SOL     OW77291   0.648   3.607  10.154 -0.2035  0.5951  0.4708
19894SOL    HW177292   0.743   3.597  10.145 -0.3933 -1.4495  0.2567
19894SOL    HW277293   0.617   3.622  10.065 -0.1770  0.2961  0.4113
19895SOL     OW77294   4.058   9.748  12.679  0.1859  0.0296  0.4867
19895SOL    HW177295   3.989   9.717  12.620 -0.5978  0.2371  1.2680
19895SOL    HW277296   4.072   9.839  12.655 -0.0861  0.0942  0.5646
19896SOL     OW77297  13.411  13.199  11.568  0.0489 -0.1726  0.2502
19896SOL    HW177298  13.329  13.163  11.603 -0.0219 -0.7435 -0.4713
19896SOL    HW277299  13.462  13.222  11.645 -0.4241 -0.6662  0.7245
19897SOL     OW77300   5.057   4.806   6.629 -0.2973  0.1380  0.1516
19897SOL    HW177301   5.017   4.746   6.691 -1.3212 -0.8392 -1.3743
19897SOL    HW277302   5.068   4.888   6.678 -1.1742 -0.5546  1.5600
19898SOL     OW77303   0.116  10.187  12.706 -0.4079 -0.0173  0.0826
19898SOL    HW177304   0.110  10.176  12.801 -1.9772 -2.2745 -0.1844
19898SOL    HW277305   0.074  10.108  12.671 -1.0314  1.3585 -2.4834
19899SOL     OW77306   0.210   2.279   5.994 -0.3505 -0.6332 -0.6307
19899SOL    HW177307   0.156   2.334   5.937 -0.0974  1.4169  0.9822
19899SOL    HW277308   0.147   2.220   6.037 -1.0129  0.2121 -0.4159
19900SOL     OW77309   9.289   8.723   5.942  0.1607  0.4124  0.2741
19900SOL    HW177310   9.222   8.687   6.000  0.1798 -0.1967 -0.0657
19900SOL    HW277311   9.245   8.794   5.896 -0.1230  0.3138  0.3856
19901SOL     OW77312   3.385   1.193   6.892 -1.2526 -0.0633  0.1368
19901SOL    HW177313   3.414   1.281   6.916 -3.9878  0.9205  0.1052
19901SOL    HW277314   3.396   1.188   6.797  3.8539 -1.8047  0.4917
19902SOL     OW77315   2.481   4.490   1.460  0.0526 -0.3555  0.0400
19902SOL    HW177316   2.487   4.439   1.541 -0.6208 -0.3171  0.1228
19902SOL    HW277317   2.511   4.431   1.391  2.5606  0.2335  0.5323
19903SOL     OW77318   9.077   8.760  12.125 -0.6966 -0.2816 -0.2881
19903SOL    HW177319   9.000   8.713  12.156 -1.0639 -0.1370 -0.9719
19903SOL    HW277320   9.043   8.842  12.089 -0.0613  0.5209  0.8778
19904SOL     OW77321  12.290  10.709  11.805  0.3271  0.1924 -0.4391
19904SOL    HW177322  12.379  10.736  11.780  0.3605  0.4006 -0.1093
19904SOL    HW277323  12.297  10.691  11.899  0.0895 -0.0812 -0.4738
19905SOL     OW77324   9.028  11.191   1.554 -0.0272  0.2283  0.3241
19905SOL    HW177325   8.994  11.201   1.466 -1.2588 -1.2953  0.5779
19905SOL    HW277326   8.969  11.242   1.609 -1.0740 -1.1998  0.5831
19906SOL     OW77327   0.907   6.899  10.049  0.0300 -0.6166  0.3401
19906SOL    HW177328   0.992   6.874  10.085  0.5911  1.0838  0.2464
19906SOL    HW277329   0.902   6.853   9.965  2.5006  1.9601 -1.4166
19907SOL     OW77330   5.702   9.063   8.317 -0.5789  0.3882  0.6898
19907SOL    HW177331   5.754   9.143   8.313  0.6925 -0.4129  0.7505
19907SOL    HW277332   5.618   9.091   8.354 -0.7928  1.9815 -0.8951
19908SOL     OW77333   5.085  10.656   2.241  0.1866 -0.0922 -0.3275
19908SOL    HW177334   5.160  10.692   2.195  0.8366  0.3225  1.0056
19908SOL    HW277335   5.011  10.671   2.182  1.2447 -1.3304 -2.0825
19909SOL     OW77336   8.737   4.296   5.103  0.4698  0.4954  0.6957
19909SOL    HW177337   8.748   4.201   5.113 -0.4144  0.4259  1.1173
19909SOL    HW277338   8.747   4.312   5.009 -1.1547 -0.2690  0.3750
19910SOL     OW77339  12.968   0.882   2.054  0.3384  0.3236 -0.0267
19910SOL    HW177340  12.949   0.882   1.960 -0.5490  0.7094  0.1399
19910SOL    HW277341  12.892   0.840   2.094  0.6030  0.3655  0.5364
19911SOL     OW77342   8.874   3.091  13.761  0.2244  0.2315 -0.4800
19911SOL    HW177343   8.944   3.095  13.696 -0.7419 -0.9874 -1.6546
19911SOL    HW277344   8.838   3.179  13.763  1.1246  0.6169 -0.5907
19912SOL     OW77345   1.908  12.353   5.691 -0.1615 -0.0165  0.1543
19912SOL    HW177346   1.858  12.272   5.702  0.8250 -1.0184 -2.0319
19912SOL    HW277347   1.991  12.336   5.735 -0.4926  0.3778  0.9414
19913SOL     OW77348  12.249   8.312   8.272 -0.4961 -0.4196 -0.0535
19913SOL    HW177349  12.236   8.396   8.315 -1.3440 -0.9232  0.7049
19913SOL    HW277350  12.342   8.292   8.283  0.0721  1.1165 -1.5854
19914SOL     OW77351   0.691  10.249   3.548 -0.1765 -0.7110 -0.3374
19914SOL    HW177352   0.681  10.162   3.587 -2.4658 -0.3515  0.0643
19914SOL    HW277353   0.768  10.243   3.493  0.4031 -2.6424  0.6167
19915SOL     OW77354   1.903   0.426   4.377  0.0887 -0.2526  0.6063
19915SOL    HW177355   1.896   0.520   4.363  1.5035 -0.0730  0.9452
19915SOL    HW277356   1.907   0.416   4.472 -0.8503 -0.7324  0.6057
19916SOL     OW77357   4.472   8.161  11.773  0.6095  0.2150 -0.0082
19916SOL    HW177358   4.480   8.165  11.869 -0.0889  1.6089  0.0165
19916SOL    HW277359   4.490   8.250  11.744  4.2538 -0.8653 -1.5209
19917SOL     OW77360   7.624  12.851   8.724  0.5136  0.1752 -0.0147
19917SOL    HW177361   7.543  12.802   8.711 -1.5523  2.6687  2.3877
19917SOL    HW277362   7.683  12.788   8.767 -0.7045 -1.2216 -0.3205
19918SOL     OW77363   2.560   7.323   2.040 -0.0679  0.3453  0.2524
19918SOL    HW177364   2.636   7.269   2.021 -1.0883 -0.7016 -1.0002
19918SOL    HW277365   2.593   7.413   2.035  1.6668 -0.0759  2.4042
19919SOL     OW77366  13.033   3.560   3.608 -0.0924 -0.5688 -0.1277
19919SOL    HW177367  13.044   3.586   3.517 -2.0457 -1.9496 -0.8277
19919SOL    HW277368  13.005   3.468   3.604 -0.9143 -0.4616  1.8170
19920SOL     OW77369   3.217   9.351  11.962 -0.1054 -0.1945  0.0143
19920SOL    HW177370   3.273   9.426  11.985  0.9918 -1.4495  1.6409
19920SOL    HW277371   3.156   9.386  11.896  0.0446  2.2560  1.0707
19921SOL     OW77372   6.651  13.282   7.946  0.6694  0.1321  0.0500
19921SOL    HW177373   6.743  13.309   7.941  0.4153  1.5242  1.8970
19921SOL    HW277374   6.604  13.363   7.964 -0.9277 -0.5870 -0.7612
19922SOL     OW77375   4.316   6.499   1.344  0.3643 -0.4291  0.0087
19922SOL    HW177376   4.341   6.439   1.414 -1.9220  0.8969  2.1353
19922SOL    HW277377   4.252   6.558   1.384  1.1190  2.3158 -2.4108
19923SOL     OW77378  12.594   3.806   3.375  0.8547  0.9306 -0.4832
19923SOL    HW177379  12.534   3.819   3.449  1.3066  0.6414 -0.0543
19923SOL    HW277380  12.641   3.725   3.397  1.7350  1.3977 -0.5735
19924SOL     OW77381   6.545  12.571   6.458 -0.5519  0.4542  0.0896
19924SOL    HW177382   6.499  12.655   6.467  0.2946  1.3441 -2.7170
19924SOL    HW277383   6.519  12.538   6.372  0.3759 -1.3870  0.4608
19925SOL     OW77384  14.033   9.945   0.421  0.1474 -0.7150  0.4434
19925SOL    HW177385  14.006   9.984   0.338  0.7173 -1.9117 -0.3358
19925SOL    HW277386  14.034   9.851   0.404  1.1032 -0.9320  1.5620
19926SOL     OW77387   0.963   5.880   0.399 -0.3133  0.2116  0.4262
19926SOL    HW177388   0.973   5.927   0.482 -0.8755  0.2973  0.4434
19926SOL    HW277389   0.935   5.792   0.424 -0.7422  0.3155  0.3150
19927SOL     OW77390  12.029   5.847   2.677  0.8532  0.2543 -0.0234
19927SOL    HW177391  12.010   5.882   2.764  1.6509  0.4475  0.0844
19927SOL    HW277392  12.113   5.887   2.653  0.8569 -0.1369 -0.7009
19928SOL     OW77393   3.478   9.076  13.372  0.4774  0.3661 -0.0239
19928SOL    HW177394   3.405   9.020  13.398  0.5252  0.3338  0.0408
19928SOL    HW277395   3.550   9.016  13.357  0.4831  0.3956 -0.1167
19929SOL     OW77396   0.584   0.359   8.794 -0.2680 -0.0979  0.2078
19929SOL    HW177397   0.636   0.433   8.764 -0.8146  0.1735 -0.0963
19929SOL    HW277398   0.627   0.329   8.874  1.5578 -1.1896 -1.1193
19930SOL     OW77399  11.394   8.541   1.505 -0.3518  0.1367  0.0683
19930SOL    HW177400  11.327   8.479   1.531 -0.5678 -0.4805 -1.8482
19930SOL    HW277401  11.451   8.493   1.445  2.5953  0.2537  2.4878
19931SOL     OW77402  10.081   1.669   2.324 -0.5631  0.0556 -0.4960
19931SOL    HW177403  10.053   1.634   2.408  0.7645 -1.9029 -0.7821
19931SOL    HW277404  10.043   1.609   2.259  2.7616 -1.8243 -0.9475
19932SOL     OW77405  13.550  10.954   1.825  0.0216 -0.2036 -0.0086
19932SOL    HW177406  13.606  10.877   1.835 -0.5962 -0.9444 -1.7750
19932SOL    HW277407  13.571  11.009   1.900  1.1864 -1.6484  0.7859
19933SOL     OW77408   9.480  10.566   1.915  0.2777  0.3913 -0.4509
19933SOL    HW177409   9.556  10.614   1.881  0.9265  0.7152  1.3628
19933SOL    HW277410   9.517  10.501   1.975 -0.8329 -0.0013 -0.1622
19934SOL     OW77411   0.212  11.864   6.451 -0.1967 -0.3969  0.3515
19934SOL    HW177412   0.216  11.918   6.372 -2.2982 -2.1574 -1.0950
19934SOL    HW277413   0.299  11.823   6.456  0.4908  0.9310 -0.0904
19935SOL     OW77414  11.397   5.983  10.719  0.4991 -0.5200 -0.0662
19935SOL    HW177415  11.307   5.951  10.715 -0.7362  2.6432 -2.0113
19935SOL    HW277416  11.440   5.942  10.644  0.3424 -1.0825  0.1434
19936SOL     OW77417  11.225   1.550   7.668 -0.2071  0.2965  0.1161
19936SOL    HW177418  11.291   1.527   7.733  0.9455  1.4226 -0.6064
19936SOL    HW277419  11.185   1.467   7.644  1.8950 -0.6287 -0.4194
19937SOL     OW77420  13.471   9.141   8.740 -0.1109  0.2201 -0.9853
19937SOL    HW177421  13.464   9.200   8.665  0.2478  0.8401 -0.5400
19937SOL    HW277422  13.495   9.197   8.813 -0.3052 -0.3999 -0.4300
19938SOL     OW77423   7.411  13.780  11.275 -0.0528  0.0620  0.5302
19938SOL    HW177424   7.384  13.752  11.363  0.3286  1.4303  1.1028
19938SOL    HW277425   7.478  13.847  11.290 -1.1451  1.5090 -0.7620
19939SOL     OW77426  10.611  12.651  10.489  0.0380 -0.3863  0.4492
19939SOL    HW177427  10.625  12.731  10.539  1.1528 -0.1471 -0.1980
19939SOL    HW277428  10.527  12.663  10.445  0.5927  0.7978 -0.3102
19940SOL     OW77429   4.686   8.305   4.752  0.1780  0.5326  0.3741
19940SOL    HW177430   4.708   8.314   4.844  0.4108  0.4261  0.3307
19940SOL    HW277431   4.707   8.214   4.731  2.3081  1.1388 -0.3424
19941SOL     OW77432   9.611  13.071   6.190 -0.8401  0.3328 -0.4095
19941SOL    HW177433   9.581  13.122   6.265  0.1631  0.0028  0.2313
19941SOL    HW277434   9.600  13.130   6.115 -0.5787  1.1555  0.1872
19942SOL     OW77435   3.824  13.722   6.990  0.1950  0.5059  0.6367
19942SOL    HW177436   3.846  13.809   7.023  1.1895 -0.4960  2.7936
19942SOL    HW277437   3.763  13.687   7.055  0.4787 -0.7233  0.2660
19943SOL     OW77438   6.859   8.686  12.725  0.3942 -0.2155 -0.1994
19943SOL    HW177439   6.797   8.759  12.721 -0.3952 -0.8026  0.7007
19943SOL    HW277440   6.876   8.674  12.819  1.6454 -0.2610 -0.4207
19944SOL     OW77441  13.732   0.942   8.243 -0.3606 -0.5315  0.2058
19944SOL    HW177442  13.768   0.991   8.317 -1.3551  0.7370 -0.1205
19944SOL    HW277443  13.731   1.004   8.171 -2.0072 -0.8941 -0.1197
19945SOL     OW77444   5.284   8.996  13.733  0.1115 -0.2898  0.4272
19945SOL    HW177445   5.202   9.043  13.751 -0.7940 -0.3906 -2.8309
19945SOL    HW277446   5.335   9.057  13.680  2.0332 -0.4245  2.0015
19946SOL     OW77447  12.157   5.066   5.776 -0.1196 -0.2697  0.2570
19946SOL    HW177448  12.142   5.076   5.682  4.2425 -0.8633 -0.7091
19946SOL    HW277449  12.151   4.972   5.791 -1.4236 -0.1275  0.7997
19947SOL     OW77450   3.101   7.987   9.136 -0.5930  0.3204 -0.1644
19947SOL    HW177451   3.026   7.964   9.081 -1.7061 -0.5172  1.5937
19947SOL    HW277452   3.062   8.027   9.214  0.9852  2.5376 -0.4239
19948SOL     OW77453   9.272  12.325  10.435  0.8854 -0.7656 -0.1829
19948SOL    HW177454   9.188  12.301  10.476  1.5308 -1.0436  1.0251
19948SOL    HW277455   9.254  12.409  10.392 -0.4649 -1.6639 -1.4552
19949SOL     OW77456   8.785   9.713   7.308 -0.8420  0.1422 -0.0635
19949SOL    HW177457   8.752   9.695   7.396 -0.8204 -0.3263 -0.1468
19949SOL    HW277458   8.839   9.637   7.287 -1.9139 -0.3980 -0.9936
19950SOL     OW77459  13.316  11.135  11.167 -0.0250 -0.1353  0.2511
19950SOL    HW177460  13.278  11.068  11.110 -1.1677  0.4361  0.3041
19950SOL    HW277461  13.260  11.212  11.154  1.5744  0.9972 -0.2333
19951SOL     OW77462   5.200   1.568   8.802  0.2022 -0.0714  0.1201
19951SOL    HW177463   5.283   1.597   8.839 -0.3614  1.1128  0.5021
19951SOL    HW277464   5.157   1.522   8.874  1.3267 -2.5097 -0.6346
19952SOL     OW77465  12.890   7.463   4.969 -0.3951 -0.3597 -0.5713
19952SOL    HW177466  12.982   7.457   4.943  0.1309 -1.6992  1.4206
19952SOL    HW277467  12.863   7.373   4.982 -1.3481  0.1071  0.9221
19953SOL     OW77468  11.838   5.334   1.604 -0.1667 -0.2498 -0.3246
19953SOL    HW177469  11.763   5.278   1.583  0.3734 -0.1266 -2.9455
19953SOL    HW277470  11.914   5.282   1.578  0.6268  0.0792  1.2273
19954SOL     OW77471   3.197   1.728   9.353  0.0474 -0.1735  0.0652
19954SOL    HW177472   3.178   1.642   9.317  1.2165 -0.6120  0.4923
19954SOL    HW277473   3.177   1.789   9.281  1.8963 -0.9983 -1.2012
19955SOL     OW77474   2.393   2.066   6.115 -0.1353  0.7779 -0.2823
19955SOL    HW177475   2.486   2.045   6.115 -0.4121 -0.7189  1.4405
19955SOL    HW277476   2.388   2.153   6.075  1.9922  0.8909 -0.4189
19956SOL     OW77477  14.024   7.144   6.458  0.6525  0.4376 -0.2955
19956SOL    HW177478  14.040   7.068   6.402  0.2291  0.3639 -0.3202
19956SOL    HW277479  13.929   7.150   6.462  0.6853  0.5553  0.2639
19957SOL     OW77480   8.101   0.037   7.791 -0.6267  0.0498 -0.6018
19957SOL    HW177481   8.098  -0.049   7.748 -0.6364  1.0086 -2.6285
19957SOL    HW277482   8.099   0.017   7.885 -2.7188 -2.0702 -1.0067
19958SOL     OW77483   3.495   6.225  13.585  1.0534  0.5421  0.5618
19958SOL    HW177484   3.470   6.313  13.614 -2.0023  0.2193 -0.7038
19958SOL    HW277485   3.507   6.234  13.490 -1.8021 -0.7391 -0.0462
19959SOL     OW77486   3.510   2.918   5.764 -0.6830 -0.1382 -0.3136
19959SOL    HW177487   3.580   2.982   5.778 -0.7930 -0.2038  0.6135
19959SOL    HW277488   3.438   2.970   5.727 -0.1812 -0.0533 -1.1803
19960SOL     OW77489   5.532   9.182   1.441 -0.5706  0.4894  0.3264
19960SOL    HW177490   5.440   9.165   1.461  0.1593 -1.3965  2.4723
19960SOL    HW277491   5.556   9.114   1.378 -0.5880  0.9201 -0.1575
19961SOL     OW77492  11.137   6.664  11.144  0.1239 -0.2760  0.4863
19961SOL    HW177493  11.186   6.631  11.219 -0.6315 -1.0277  0.6714
19961SOL    HW277494  11.151   6.759  11.146 -0.8907 -0.1054  2.3412
19962SOL     OW77495   6.379  11.548   4.075  0.1020 -0.2507  0.1176
19962SOL    HW177496   6.456  11.494   4.056  1.2636  0.6424  1.9903
19962SOL    HW277497   6.328  11.547   3.994  2.1950 -0.6930 -1.2508
19963SOL     OW77498   6.411   9.486   4.232  0.0222 -0.3152 -0.1782
19963SOL    HW177499   6.505   9.503   4.233 -0.0440  0.1909  1.8541
19963SOL    HW277500   6.402   9.399   4.271 -0.2428 -1.6079 -2.8320
19964SOL     OW77501  10.944   3.895  10.214  0.1026 -0.2912  0.1847
19964SOL    HW177502  10.869   3.844  10.244  0.9905 -1.7939 -0.0357
19964SOL    HW277503  10.985   3.927  10.295 -1.0332  0.9951  0.2914
19965SOL     OW77504   4.143   3.602  12.434  0.0184 -0.1003  0.0025
19965SOL    HW177505   4.084   3.529  12.412  0.0126 -0.3354  0.7521
19965SOL    HW277506   4.084   3.677  12.444 -0.4725 -0.7181  2.6408
19966SOL     OW77507   0.566   9.201   7.494 -0.1451  0.0245  0.1032
19966SOL    HW177508   0.470   9.195   7.494 -0.1371 -0.3720 -1.0515
19966SOL    HW277509   0.593   9.153   7.572 -0.9481  1.9711  1.6775
19967SOL     OW77510  11.723  11.273   2.351  0.0692  0.5431 -0.5387
19967SOL    HW177511  11.680  11.190   2.331 -0.4144  0.6851 -0.1216
19967SOL    HW277512  11.743  11.311   2.266  1.9009 -0.8003 -0.7579
19968SOL     OW77513   3.571   0.014   4.833  0.2231 -0.2249 -0.0595
19968SOL    HW177514   3.625   0.054   4.765  1.0453 -1.0508  0.0797
19968SOL    HW277515   3.498   0.075   4.846 -0.0650 -0.1593 -1.8161
19969SOL     OW77516   9.225   2.790  12.553  0.1437  0.3070 -0.0918
19969SOL    HW177517   9.237   2.792  12.648 -0.5086  1.5758 -0.0147
19969SOL    HW277518   9.307   2.753  12.519  0.1824 -0.6441  0.9767
19970SOL     OW77519   3.661  13.470   4.059  0.6968  0.2807  0.0747
19970SOL    HW177520   3.601  13.467   3.984  2.0946  1.1259 -1.1370
19970SOL    HW277521   3.708  13.387   4.055 -0.5689 -0.5285  1.2252
19971SOL     OW77522   6.994   8.408   4.976  0.3882  0.6475  0.0201
19971SOL    HW177523   7.024   8.348   5.044  1.9469 -1.1393 -2.0989
19971SOL    HW277524   6.985   8.354   4.898 -2.4170  2.3813 -1.0239
19972SOL     OW77525  12.520  13.589   3.406  0.1020 -0.0426 -0.0686
19972SOL    HW177526  12.448  13.608   3.466  0.2703  0.4922 -0.0351
19972SOL    HW277527  12.537  13.496   3.419 -0.1576 -0.0313  0.3894
19973SOL     OW77528   9.740   8.816  10.213 -0.2103  0.0787 -0.6025
19973SOL    HW177529   9.712   8.839  10.124  1.1292  0.1445 -1.0264
19973SOL    HW277530   9.836   8.818  10.210 -0.1115 -1.0935  0.5307
19974SOL     OW77531   8.475   1.964   3.284  0.2029 -0.1562 -0.1561
19974SOL    HW177532   8.565   1.930   3.281  0.0798 -0.7801  1.6697
19974SOL    HW277533   8.422   1.887   3.304 -0.5885  0.4121 -0.0457
19975SOL     OW77534  10.478   7.855   9.526  0.1248 -0.2347 -0.5392
19975SOL    HW177535  10.416   7.916   9.564  0.1820 -0.3085 -0.3233
19975SOL    HW277536  10.535   7.830   9.599  0.1332 -0.5046 -0.6364
19976SOL     OW77537   7.947  12.001   5.071  0.4972  0.1609 -0.1238
19976SOL    HW177538   8.033  12.001   5.115  0.2036 -0.2652  0.4611
19976SOL    HW277539   7.889  12.048   5.131  0.1459 -0.2185 -0.1628
19977SOL     OW77540   4.380   6.689   1.893 -0.2472  0.2619  0.0554
19977SOL    HW177541   4.430   6.734   1.961  0.4619  0.6130 -0.6782
19977SOL    HW277542   4.315   6.753   1.864 -0.1934  0.3042  0.0271
19978SOL     OW77543   1.760   0.620  10.005 -0.6161 -0.2756 -0.3825
19978SOL    HW177544   1.849   0.644  10.031 -0.8993 -0.0882  0.4343
19978SOL    HW277545   1.746   0.666   9.922  0.4076 -1.1169 -1.0510
19979SOL     OW77546   7.496   2.525   4.491 -0.2572  0.0712  0.2226
19979SOL    HW177547   7.552   2.488   4.423 -1.2131  0.0662 -0.5680
19979SOL    HW277548   7.550   2.592   4.533  0.2406  0.2526 -0.7031
19980SOL     OW77549   5.319   0.839   7.965  0.6231  0.6065  0.1265
19980SOL    HW177550   5.283   0.926   7.946 -1.2760  0.3287  2.0621
19980SOL    HW277551   5.374   0.819   7.890 -1.2809  2.2035 -1.8172
19981SOL     OW77552   0.340   4.242   0.292  0.2090 -0.0098 -0.3629
19981SOL    HW177553   0.378   4.269   0.375  0.5127 -1.5212  0.0127
19981SOL    HW277554   0.394   4.168   0.264 -0.8414 -0.4992 -1.1398
19982SOL     OW77555   4.176  12.929   0.902  0.4155 -0.3094  0.0128
19982SOL    HW177556   4.247  12.889   0.953  0.1176  0.2968  0.9310
19982SOL    HW277557   4.221  12.974   0.830  0.9171 -0.4488  0.2322
19983SOL     OW77558   6.185  12.027   4.051 -0.2048  0.5293 -0.5202
19983SOL    HW177559   6.135  12.090   3.999  0.0448  0.5567 -0.7328
19983SOL    HW277560   6.277  12.053   4.038 -0.2263  2.6510  2.6399
19984SOL     OW77561   2.403   7.314   3.672  0.4652  0.0280  0.0432
19984SOL    HW177562   2.406   7.229   3.628 -1.4907 -0.7571  1.3203
19984SOL    HW277563   2.485   7.356   3.646  0.8152 -1.6263 -1.8149
19985SOL     OW77564   8.665   7.808   1.203  0.1377 -0.4413 -0.7547
19985SOL    HW177565   8.748   7.856   1.207  1.1052 -2.1108  0.5155
19985SOL    HW277566   8.682   7.736   1.142  0.3196 -1.9226  0.9573
19986SOL     OW77567   7.034   7.949   9.565  0.3329 -0.2016  0.3151
19986SOL    HW177568   7.010   8.030   9.520 -2.1418  0.2593  2.2111
19986SOL    HW277569   7.053   7.887   9.495 -0.4718  1.2468 -1.2644
19987SOL     OW77570  12.083   9.735   8.715 -0.4042 -0.3427  0.4987
19987SOL    HW177571  12.011   9.795   8.736 -0.4965 -0.8050  1.5868
19987SOL    HW277572  12.042   9.650   8.702 -0.0602 -0.6676  1.3872
19988SOL     OW77573  13.269  10.624  13.812 -0.8186  0.4527  0.6111
19988SOL    HW177574  13.279  10.716  13.838 -2.8758  1.1234 -0.7132
19988SOL    HW277575  13.179  10.602  13.835  0.1649 -1.8684  2.5967
19989SOL     OW77576  11.120   2.553   2.429 -0.4773  0.0059 -0.2498
19989SOL    HW177577  11.066   2.512   2.497  0.7568 -1.2109  0.0455
19989SOL    HW277578  11.139   2.640   2.462  1.6163 -1.1562  1.9210
19990SOL     OW77579   6.925  12.803   4.379 -0.7176  0.1772  0.1233
19990SOL    HW177580   6.852  12.857   4.350 -0.1933  0.6504 -0.3292
19990SOL    HW277581   6.968  12.854   4.448 -0.0080  0.5132 -0.5517
19991SOL     OW77582   3.710   7.308  10.953  0.2948 -0.1943 -0.0119
19991SOL    HW177583   3.674   7.226  10.921 -1.2309 -0.3485  1.9526
19991SOL    HW277584   3.741   7.289  11.041  0.2205  1.2495  0.3562
19992SOL     OW77585  12.768   5.801   0.589  0.1341  0.0136 -0.3196
19992SOL    HW177586  12.851   5.770   0.624  0.3698  0.4709 -0.4687
19992SOL    HW277587  12.706   5.787   0.661 -0.0798 -2.0716 -0.8368
19993SOL     OW77588  13.998  13.960   0.840 -0.1640  0.3057 -0.0727
19993SOL    HW177589  14.034  14.020   0.905  0.1088  0.3351 -0.2521
19993SOL    HW277590  14.060  13.887   0.836  0.8557  1.1996 -1.6890
19994SOL     OW77591   3.765  10.247   7.268  0.4165 -0.2126 -0.0167
19994SOL    HW177592   3.742  10.333   7.232 -1.0284 -0.2888  0.6595
19994SOL    HW277593   3.727  10.247   7.356 -0.3308 -1.8386 -0.3023
19995SOL     OW77594   7.146   9.208   7.996 -0.1574 -0.0156  0.0212
19995SOL    HW177595   7.190   9.278   7.949 -0.0901  0.0526  0.1826
19995SOL    HW277596   7.207   9.186   8.067 -0.5531  0.3353  0.4712
19996SOL     OW77597  11.183  13.835   3.008  0.0964  0.7739  0.5306
19996SOL    HW177598  11.232  13.883   2.941 -0.0174  0.1037 -0.0350
19996SOL    HW277599  11.096  13.873   3.005 -0.7104 -1.0527 -1.6127
19997SOL     OW77600   2.663   9.247  11.461  0.1560 -0.0137  0.1987
19997SOL    HW177601   2.667   9.322  11.402  0.1093  1.2981  1.7850
19997SOL    HW277602   2.571   9.242  11.487 -0.4113 -2.2962 -1.8604
19998SOL     OW77603   6.777   7.531   1.334  0.3439  0.3454 -0.0257
19998SOL    HW177604   6.762   7.462   1.399  2.9436  0.7240  1.1252
19998SOL    HW277605   6.797   7.609   1.386  0.6371  1.1359 -1.2837
19999SOL     OW77606   7.773  13.194  11.077 -0.3510  0.6065  0.7472
19999SOL    HW177607   7.822  13.260  11.027 -0.0228  0.5824  1.0291
19999SOL    HW277608   7.733  13.243  11.149 -0.5305  0.5835  0.6626
20000SOL     OW77609   0.600   6.918  10.916  0.1500  0.1306 -0.0807
20000SOL    HW177610   0.552   6.963  10.845 -0.6871  0.1748  0.5010
20000SOL    HW277611   0.574   6.826  10.907  0.6353  0.0121 -0.2933
20001SOL     OW77612   2.125   8.584  13.899  0.0862  0.1975 -0.2569
20001SOL    HW177613   2.081   8.593  13.984  1.4551  0.2918  0.4618
20001SOL    HW277614   2.055   8.557  13.839 -0.6289 -1.3044  1.1857
20002SOL     OW77615   7.730   5.676   4.003  0.3383  0.5270  0.2594
20002SOL    HW177616   7.698   5.690   3.914  0.7147  1.3270  0.2389
20002SOL    HW277617   7.824   5.658   3.993  0.5619  1.4708  0.5441
20003SOL     OW77618  13.410   5.469   3.141 -0.5776 -0.3138  0.3530
20003SOL    HW177619  13.356   5.517   3.078  1.8571  0.0653 -1.6129
20003SOL    HW277620  13.431   5.387   3.095 -0.2439 -0.8706  1.4750
20004SOL     OW77621   5.524  10.116   0.635 -0.6507 -0.1151 -0.0675
20004SOL    HW177622   5.494  10.158   0.554  1.6591  0.4897 -0.6869
20004SOL    HW277623   5.529  10.188   0.698 -0.1183 -0.1223 -0.0986
20005SOL     OW77624   2.364  10.036   9.363 -0.3407 -0.1564  0.3763
20005SOL    HW177625   2.456  10.023   9.338 -0.0704  3.5188 -1.2209
20005SOL    HW277626   2.368  10.081   9.447 -0.3659  2.7000 -1.0167
20006SOL     OW77627  10.826   2.566  13.111  0.1386 -0.0632  0.2353
20006SOL    HW177628  10.881   2.525  13.044 -0.5092  0.8119 -0.8768
20006SOL    HW277629  10.748   2.509  13.115 -0.6753  0.8816 -1.1705
20007SOL     OW77630   1.909   9.397   2.781 -0.3252  0.1542 -0.0068
20007SOL    HW177631   1.983   9.366   2.832 -1.7114  0.2367  2.1794
20007SOL    HW277632   1.871   9.468   2.834 -1.7904  0.3075 -1.1908
20008SOL     OW77633   3.155   4.914  12.301  0.2404 -0.4850  0.1360
20008SOL    HW177634   3.248   4.935  12.294  0.3894 -1.2646 -0.2352
20008SOL    HW277635   3.110   4.993  12.270  0.7748 -0.1846  0.1197
20009SOL     OW77636   6.619   3.400   5.763 -0.3616  0.8406 -0.0729
20009SOL    HW177637   6.696   3.344   5.759 -1.2424 -0.5206  1.1416
20009SOL    HW277638   6.555   3.358   5.706 -1.0891  0.4852  0.9753
20010SOL     OW77639  10.378  10.483   2.311  0.4111 -0.4404  0.1106
20010SOL    HW177640  10.397  10.394   2.282  2.5416 -0.3051  0.9619
20010SOL    HW277641  10.447  10.504   2.374 -1.6356  0.8143  2.0855
20011SOL     OW77642   8.951   2.452  13.580  0.2554 -0.0517  0.1092
20011SOL    HW177643   8.979   2.450  13.671 -0.0781 -1.0908  0.2026
20011SOL    HW277644   8.860   2.482  13.583  1.1533  3.0446 -0.1734
20012SOL     OW77645   6.030   5.727   5.160 -0.2105  0.0536  0.4613
20012SOL    HW177646   5.986   5.642   5.153  0.5314 -0.3725  0.8563
20012SOL    HW277647   5.978   5.775   5.225 -0.8185  0.0278 -0.0014
20013SOL     OW77648   8.328  13.532  10.634  0.2527  0.0216 -0.1196
20013SOL    HW177649   8.265  13.500  10.699  1.1428  0.2672  0.8876
20013SOL    HW277650   8.289  13.613  10.601  0.0864  0.2290  0.5788
20014SOL     OW77651   2.219  13.221   5.451  0.6506  0.0062  0.1921
20014SOL    HW177652   2.314  13.217   5.462  0.8107  1.2890 -0.5228
20014SOL    HW277653   2.187  13.260   5.532  0.8892  0.9241 -0.1477
20015SOL     OW77654  13.900  12.986  12.647 -0.2511 -0.4241 -0.4264
20015SOL    HW177655  13.916  12.904  12.599 -1.0630 -0.3395 -0.8733
20015SOL    HW277656  13.805  12.997  12.641 -0.4418 -0.6545  1.6210
20016SOL     OW77657  13.338   4.400   2.383 -0.2103  0.6331 -0.4423
20016SOL    HW177658  13.332   4.378   2.290 -1.5867  1.2805 -0.5288
20016SOL    HW277659  13.279   4.338   2.426 -0.1504  0.8151 -0.0916
20017SOL     OW77660   0.291   9.857   3.909  0.1023 -0.0044  0.1759
20017SOL    HW177661   0.373   9.842   3.955 -0.5085 -0.4907  1.1502
20017SOL    HW277662   0.280   9.780   3.853  0.5708  0.3271 -0.3910
20018SOL     OW77663   3.073  10.998   8.032  0.2647  0.0743 -0.5870
20018SOL    HW177664   3.071  10.917   7.982  2.0888  0.1042 -0.7608
20018SOL    HW277665   3.118  10.975   8.113 -2.2871  0.1148  0.9820
20019SOL     OW77666   6.819   6.314   4.158 -0.1858 -0.6476  0.0896
20019SOL    HW177667   6.821   6.249   4.088  0.8951 -0.3103 -0.2011
20019SOL    HW277668   6.857   6.269   4.234 -0.0355 -0.5534  0.0689
20020SOL     OW77669   0.037   8.319   7.505 -0.8945  0.3283  0.2042
20020SOL    HW177670   0.056   8.277   7.421 -2.2953 -1.8647  0.8893
20020SOL    HW277671   0.033   8.413   7.485 -0.6463 -0.0897 -2.0502
20021SOL     OW77672   1.932   5.532   8.164 -0.2438 -0.7484 -0.3876
20021SOL    HW177673   1.882   5.476   8.223 -1.7721  1.0435  0.1287
20021SOL    HW277674   1.876   5.543   8.088 -0.2744  0.5323 -0.2097
20022SOL     OW77675   9.361   3.372   6.661  0.3222  0.7896 -0.0551
20022SOL    HW177676   9.292   3.388   6.597  1.0780  0.4710 -0.9692
20022SOL    HW277677   9.401   3.458   6.675 -0.2598  0.9802  0.4979
20023SOL     OW77678   7.188  12.125   5.770 -0.2985  0.0322  0.0267
20023SOL    HW177679   7.241  12.190   5.818  0.2030  0.5680 -1.2164
20023SOL    HW277680   7.200  12.148   5.678 -1.0405 -1.1386 -0.3760
20024SOL     OW77681  11.455   2.849   8.436  0.8975 -0.2808  0.3490
20024SOL    HW177682  11.530   2.857   8.495 -1.0825  0.4499  2.9618
20024SOL    HW277683  11.386   2.810   8.490 -0.9191 -0.0797 -1.6693
20025SOL     OW77684   7.878   4.071  12.728 -0.5335  0.2306 -0.1479
20025SOL    HW177685   7.835   4.156  12.727 -1.5501 -0.2073  1.7766
20025SOL    HW277686   7.961   4.085  12.682 -0.3302  2.4696  0.7833
20026SOL     OW77687   0.299   7.603   1.402  0.5706 -0.3025  0.3721
20026SOL    HW177688   0.390   7.576   1.401  0.2150 -1.6015 -1.3932
20026SOL    HW277689   0.281   7.624   1.494  2.7908  0.6182  0.6573
20027SOL     OW77690  12.798   9.127   3.409 -0.0607 -0.1010 -0.3838
20027SOL    HW177691  12.755   9.086   3.484  2.2739  0.1735  1.2153
20027SOL    HW277692  12.741   9.200   3.385  0.3914  1.5528  2.9930
20028SOL     OW77693   5.180   1.052  11.639  0.1171  0.2871  0.2495
20028SOL    HW177694   5.168   0.964  11.673  1.6273  0.3383  0.9785
20028SOL    HW277695   5.235   1.042  11.562  0.8117  0.6362  0.6901
20029SOL     OW77696   0.404  12.119   9.177 -0.1486 -0.2369  0.0522
20029SOL    HW177697   0.431  12.197   9.129  1.2251 -0.5186  0.3262
20029SOL    HW277698   0.404  12.049   9.112  0.0906 -0.2964  0.1159
20030SOL     OW77699   9.072  12.532   4.702  0.3737  0.3604  0.1460
20030SOL    HW177700   9.041  12.510   4.615 -0.7947  0.1270  0.6018
20030SOL    HW277701   9.125  12.457   4.728  2.1694  1.1587 -0.9959
20031SOL     OW77702   7.803   8.294   4.175  0.1940 -0.3122  0.1454
20031SOL    HW177703   7.769   8.375   4.212  1.1648 -0.1921  0.8194
20031SOL    HW277704   7.868   8.322   4.110  0.8766 -0.5434  0.7173
20032SOL     OW77705   0.111   2.281   2.384  0.4751  0.2834  0.0511
20032SOL    HW177706   0.083   2.197   2.423 -2.9735  1.3365  0.1894
20032SOL    HW277707   0.152   2.328   2.457 -0.9899  0.1130  1.0411
20033SOL     OW77708   2.272   6.790   0.265  0.3102  0.6696 -0.1806
20033SOL    HW177709   2.276   6.879   0.300 -0.7914  0.6450  0.0240
20033SOL    HW277710   2.234   6.738   0.336  0.1749  0.1957 -0.5996
20034SOL     OW77711  11.342   8.691   3.266  0.7794  0.1208  0.1671
20034SOL    HW177712  11.366   8.670   3.175  2.3345  0.6435  0.4252
20034SOL    HW277713  11.382   8.777   3.282 -0.6200  0.6557  0.9365
20035SOL     OW77714  11.189   9.859   0.251 -0.2417  0.0110 -0.8081
20035SOL    HW177715  11.257   9.874   0.317  0.4408  2.3983 -1.9484
20035SOL    HW277716  11.107   9.865   0.300  0.2615 -1.2448  0.2899
20036SOL     OW77717  13.290   8.821  12.047 -0.3743 -0.4024  0.4713
20036SOL    HW177718  13.246   8.748  12.003  0.1140 -0.1130 -0.5409
20036SOL    HW277719  13.380   8.790  12.061  0.3294  0.5478 -1.4985
20037SOL     OW77720  13.052   8.240  12.532 -0.4802 -0.5597  0.1885
20037SOL    HW177721  13.006   8.268  12.453  0.4415  1.9689  0.4389
20037SOL    HW277722  12.987   8.188  12.580 -2.1854  0.6241 -0.7161
20038SOL     OW77723  11.967   9.330  11.916 -0.3081  0.1629 -0.8375
20038SOL    HW177724  12.024   9.334  11.992  1.3563  0.9780 -2.0744
20038SOL    HW277725  11.879   9.343  11.951  0.4085  0.4582  0.9290
20039SOL     OW77726   9.109   1.216   9.580 -0.4382 -0.2329  0.6405
20039SOL    HW177727   9.159   1.295   9.604 -0.5805  0.7679 -2.0275
20039SOL    HW277728   9.172   1.162   9.533 -0.7091 -1.1253  1.2790
20040SOL     OW77729   4.426   4.938   9.227 -0.3687 -0.0899 -0.4455
20040SOL    HW177730   4.367   4.876   9.268 -0.8283  0.5513 -0.1155
20040SOL    HW277731   4.509   4.926   9.272 -0.1762 -1.1313 -1.0417
20041SOL     OW77732   6.454   3.887  12.535 -0.1843  0.2083  0.3650
20041SOL    HW177733   6.387   3.954  12.532 -0.4368 -0.0622 -0.2528
20041SOL    HW277734   6.454   3.849  12.447  0.5963  0.0304  0.4352
20042SOL     OW77735   3.048   6.122   3.078 -0.2234 -0.4061 -0.4442
20042SOL    HW177736   3.061   6.161   2.991  0.5540  1.1185  0.3123
20042SOL    HW277737   3.092   6.038   3.074  3.5326  1.3595 -0.3520
20043SOL     OW77738   7.240   2.407   7.571  0.0771  0.1371  0.6128
20043SOL    HW177739   7.220   2.450   7.654  0.8218  0.2895  0.7283
20043SOL    HW277740   7.242   2.314   7.592  1.0165  0.2192  0.9536
20044SOL     OW77741  10.983  12.538  10.135  0.1652 -0.0287  0.0015
20044SOL    HW177742  10.995  12.633  10.137  0.6576 -0.0953  0.4361
20044SOL    HW277743  10.921  12.521  10.206  0.6989 -0.1115  0.4545
20045SOL     OW77744   9.981  12.925  11.376  0.8915  0.0888 -0.4430
20045SOL    HW177745   9.956  12.991  11.441  0.3926 -0.8820  0.3789
20045SOL    HW277746  10.048  12.968  11.323  0.5662  1.2586  0.0612
20046SOL     OW77747  13.279   5.152  12.607 -0.0544  0.7095  0.3254
20046SOL    HW177748  13.246   5.087  12.545  0.5322  0.1811  0.5628
20046SOL    HW277749  13.334   5.209  12.554 -0.9601  1.3240  0.0176
20047SOL     OW77750   3.793  10.462   1.029  0.6668  0.1275  0.5518
20047SOL    HW177751   3.734  10.538   1.021  0.6429 -0.0240 -0.9923
20047SOL    HW277752   3.881  10.499   1.024  0.6820  0.1532  0.9381
20048SOL     OW77753  13.835   8.373   8.345 -0.6070 -0.0024 -0.5094
20048SOL    HW177754  13.810   8.283   8.323  0.8639 -0.4708 -0.3322
20048SOL    HW277755  13.893   8.364   8.420  0.3118  1.0247 -1.0787
20049SOL     OW77756  11.520   5.971  14.088 -0.0965 -0.2261 -0.0039
20049SOL    HW177757  11.452   6.021  14.135 -1.1193 -1.7413  0.2111
20049SOL    HW277758  11.553   5.909  14.153  0.1752 -0.7498 -0.6314
20050SOL     OW77759   1.409  11.819   4.674 -0.0172  0.2195 -0.4108
20050SOL    HW177760   1.497  11.804   4.708 -0.5858 -0.8599  0.6373
20050SOL    HW277761   1.395  11.914   4.684  0.3641  0.1442  1.0893
20051SOL     OW77762  13.735   1.607   2.938  0.0446 -0.0983  0.1994
20051SOL    HW177763  13.707   1.532   2.886 -1.1548  0.0863  0.5492
20051SOL    HW277764  13.672   1.676   2.916 -0.7311 -0.1255  2.1205
20052SOL     OW77765   7.214   0.340   0.559 -0.3951 -0.4318  0.2411
20052SOL    HW177766   7.294   0.301   0.524 -0.0271 -0.8346  1.4593
20052SOL    HW277767   7.147   0.273   0.547 -0.1319 -0.8129  0.8506
20053SOL     OW77768   7.165   6.104  12.002 -0.1534  0.3465 -0.6127
20053SOL    HW177769   7.173   6.199  12.009 -1.8059  0.5453 -0.9059
20053SOL    HW277770   7.155   6.088  11.908 -1.5895  0.0782 -0.4374
20054SOL     OW77771   6.127   1.883   2.549 -0.2514 -0.3396  0.4085
20054SOL    HW177772   6.148   1.966   2.508  0.1501  0.2723  1.8029
20054SOL    HW277773   6.188   1.821   2.510  0.8446  0.4405  0.8443
20055SOL     OW77774   1.646  12.148   1.252 -0.0187 -0.0649  0.4877
20055SOL    HW177775   1.696  12.073   1.220 -0.9003 -0.4083 -0.1196
20055SOL    HW277776   1.668  12.219   1.192  0.3150 -0.0135  0.6704
20056SOL     OW77777   5.500  12.584   9.974  0.0075 -0.5562 -0.3089
20056SOL    HW177778   5.487  12.561   9.882 -2.0826  0.0643 -0.2125
20056SOL    HW277779   5.590  12.556   9.993  0.7042 -0.1454 -2.6834
20057SOL     OW77780   2.957  11.124   8.772  0.3743  0.1777 -0.0623
20057SOL    HW177781   3.012  11.047   8.756 -0.4949 -0.0135 -2.5607
20057SOL    HW277782   2.873  11.089   8.801  1.0004  0.3996  2.1694
20058SOL     OW77783   4.510   6.577  11.935 -0.1901  0.1922 -0.5884
20058SOL    HW177784   4.488   6.516  11.864 -1.6185 -1.5202  1.2146
20058SOL    HW277785   4.442   6.644  11.930 -0.4632 -0.0871 -0.6617
20059SOL     OW77786   2.509   8.413   7.486 -0.8463  0.0902 -0.0294
20059SOL    HW177787   2.544   8.491   7.530 -1.7052 -0.5771  1.9155
20059SOL    HW277788   2.435   8.386   7.539  1.3377 -4.0089  1.3993
20060SOL     OW77789   9.492   2.568   4.658 -0.0960  0.3141  0.0013
20060SOL    HW177790   9.503   2.603   4.747  0.0023  0.5423 -0.0997
20060SOL    HW277791   9.452   2.482   4.671  1.5380 -0.4476  0.3885
20061SOL     OW77792   5.406  12.854   4.417  0.0421  0.1868 -0.8038
20061SOL    HW177793   5.391  12.806   4.498  0.9809 -0.7491 -1.1567
20061SOL    HW277794   5.454  12.932   4.444  1.1637 -0.5692 -0.5323
20062SOL     OW77795   1.840  13.271  13.292 -0.2928 -0.0276 -0.1612
20062SOL    HW177796   1.932  13.299  13.287 -0.2345 -0.3214 -0.9255
20062SOL    HW277797   1.815  13.256  13.201 -0.9051 -0.5829  0.0907
20063SOL     OW77798  12.005  11.250   4.358 -0.3553 -0.2401 -0.7515
20063SOL    HW177799  12.022  11.343   4.343  2.6697 -0.6733 -0.6454
20063SOL    HW277800  11.976  11.245   4.449  0.2732  0.5334 -0.4982
20064SOL     OW77801   4.323  12.668  12.655 -0.0988 -0.5130 -0.3438
20064SOL    HW177802   4.232  12.677  12.680 -0.1934 -0.8300 -0.5687
20064SOL    HW277803   4.334  12.726  12.580  0.6819  2.0304  1.5900
20065SOL     OW77804   6.487   8.688   3.928 -0.0887  0.5123 -0.1000
20065SOL    HW177805   6.513   8.653   3.843  1.3974 -1.3107  1.0262
20065SOL    HW277806   6.558   8.746   3.954  0.0257  0.1504  0.4061
20066SOL     OW77807   5.119  12.006   2.260  0.2695 -0.3170 -0.1826
20066SOL    HW177808   5.179  12.076   2.234  0.9197 -0.8140 -0.0747
20066SOL    HW277809   5.162  11.966   2.336  0.3044 -1.3402 -0.7319
20067SOL     OW77810  11.591  12.295   6.518 -0.0001 -0.5134  0.1783
20067SOL    HW177811  11.682  12.265   6.519  0.3474  0.5130  1.8508
20067SOL    HW277812  11.575  12.327   6.607 -1.6911  0.2541 -0.3700
20068SOL     OW77813  12.108   9.476   7.178  0.3052  0.5780  0.5169
20068SOL    HW177814  12.196   9.503   7.150  0.3689 -1.2780 -1.3418
20068SOL    HW277815  12.117   9.383   7.197 -1.3484  0.2464 -0.1975
20069SOL     OW77816   6.306   7.283  12.965 -0.1294  0.6772  0.1245
20069SOL    HW177817   6.260   7.363  12.991 -0.7226  0.7888 -1.1880
20069SOL    HW277818   6.396   7.297  12.996 -0.4098  1.5103  0.6056
20070SOL     OW77819   8.216   0.056   8.963  0.0926  0.0299 -0.5059
20070SOL    HW177820   8.248   0.009   8.886  0.7114 -1.8893  0.8254
20070SOL    HW277821   8.140   0.005   8.993  0.0226  0.5742  0.3047
20071SOL     OW77822   4.896   5.946   2.250  0.0753 -0.1804 -0.7105
20071SOL    HW177823   4.931   5.863   2.280 -0.4812 -0.2806 -0.3271
20071SOL    HW277824   4.920   5.950   2.157  1.7704  0.1198 -0.2837
20072SOL     OW77825   3.420   0.038  11.492 -0.1074  0.0114  0.1205
20072SOL    HW177826   3.403  -0.057  11.494  0.4055 -0.0740  0.7146
20072SOL    HW277827   3.515   0.045  11.487 -0.1917  0.4939 -1.3720
20073SOL     OW77828   4.138  12.436   3.395  0.1038  0.5601 -0.0457
20073SOL    HW177829   4.123  12.449   3.301  1.4822 -0.8926 -0.5060
20073SOL    HW277830   4.064  12.480   3.437  0.0865  2.3177 -1.7364
20074SOL     OW77831   8.324  12.912   2.885 -0.3361  0.4707  0.5834
20074SOL    HW177832   8.383  12.925   2.959 -0.0634  1.0645  0.2715
20074SOL    HW277833   8.366  12.844   2.832  0.3969  1.3277  0.0404
20075SOL     OW77834  12.188   6.024   3.241 -0.0175 -0.1769  0.6781
20075SOL    HW177835  12.127   6.041   3.313  0.2251  0.9006  0.6410
20075SOL    HW277836  12.273   6.017   3.284 -0.0210 -0.7105  0.6135
20076SOL     OW77837   4.393  14.043   3.662  0.1815 -0.1868  0.5561
20076SOL    HW177838   4.416  13.974   3.725 -1.3105 -1.5143 -0.2642
20076SOL    HW277839   4.353  13.996   3.589 -1.2111  1.5729  0.1122
20077SOL     OW77840  10.777   9.182   3.787  0.0596 -0.1467 -0.5136
20077SOL    HW177841  10.725   9.192   3.867 -1.5288  0.6843 -1.6054
20077SOL    HW277842  10.763   9.263   3.739  1.6425 -0.2963 -1.2958
20078SOL     OW77843  12.832   0.110   3.341  0.2916 -0.6265 -0.8593
20078SOL    HW177844  12.820   0.035   3.399  1.9657  0.3804  0.9173
20078SOL    HW277845  12.745   0.129   3.308 -0.2572 -3.0348 -1.0067
20079SOL     OW77846   8.283   2.984   2.977  0.5307 -0.0211 -0.5038
20079SOL    HW177847   8.338   3.028   2.912  0.1733 -0.7985 -1.3499
20079SOL    HW277848   8.261   2.900   2.937  2.1131 -1.5025  1.4909
20080SOL     OW77849   3.248   6.986  13.353 -0.0129 -0.5890 -0.0185
20080SOL    HW177850   3.221   7.025  13.435  1.2894 -0.2459  0.2619
20080SOL    HW277851   3.307   7.050  13.313 -1.0724 -0.4785 -1.5155
20081SOL     OW77852   5.070   5.684   0.809 -0.3036  0.0206 -0.3789
20081SOL    HW177853   5.110   5.598   0.796 -2.4808 -1.1877  0.5155
20081SOL    HW277854   5.046   5.686   0.901 -1.6727  0.9492 -0.7215
20082SOL     OW77855   6.987  12.705   0.822  0.1940 -0.2114  0.5928
20082SOL    HW177856   6.996  12.725   0.729  2.4512 -0.3454  0.7121
20082SOL    HW277857   7.008  12.788   0.866  2.8626 -1.0088  0.9820
20083SOL     OW77858   6.143   6.440   4.834 -0.1858  0.7059  0.2799
20083SOL    HW177859   6.106   6.470   4.751 -1.5007 -0.1063  0.5378
20083SOL    HW277860   6.226   6.398   4.810 -1.1653 -0.7013 -0.8239
20084SOL     OW77861   8.965  10.865   9.204  0.1345  0.2942 -0.1101
20084SOL    HW177862   8.931  10.782   9.237  1.2248 -0.3499 -0.5579
20084SOL    HW277863   8.921  10.877   9.120  0.1970  0.0030 -0.1864
20085SOL     OW77864   8.959   4.590   3.279 -0.4941  0.0127 -0.1659
20085SOL    HW177865   8.948   4.521   3.344  1.7036  0.2750  0.5567
20085SOL    HW277866   8.983   4.668   3.329 -0.1081  0.5649 -1.1661
20086SOL     OW77867   4.342   8.988   6.325 -0.1667  0.1207  0.3850
20086SOL    HW177868   4.306   8.901   6.308 -0.9006  0.6513 -0.9526
20086SOL    HW277869   4.300   9.045   6.260  0.6025  1.4026  0.9577
20087SOL     OW77870   3.597   6.346   3.071  0.2454  0.1826 -0.0845
20087SOL    HW177871   3.685   6.349   3.108  0.5502  1.7222 -0.8610
20087SOL    HW277872   3.588   6.428   3.023 -2.1450  0.7717  1.1755
20088SOL     OW77873   3.545   8.031   2.688  0.5349 -0.2382 -0.1727
20088SOL    HW177874   3.592   7.948   2.682 -0.7842 -0.9877 -0.5371
20088SOL    HW277875   3.488   8.019   2.764  2.5288  1.5310  1.7407
20089SOL     OW77876   7.688   6.965   2.917 -0.3234 -0.2920  1.1006
20089SOL    HW177877   7.709   6.987   2.827 -0.0716 -1.9521  0.7103
20089SOL    HW277878   7.605   6.917   2.911  0.1937 -1.2855  1.6179
20090SOL     OW77879   6.802   3.671   0.200  0.0959 -0.4433 -0.1870
20090SOL    HW177880   6.773   3.580   0.198  0.9543 -0.7369  0.1663
20090SOL    HW277881   6.895   3.666   0.222  0.0128  0.5514  0.4452
20091SOL     OW77882   0.630  10.762  13.625  0.1376 -0.2166 -0.4475
20091SOL    HW177883   0.542  10.724  13.623  0.6544 -1.5475  0.5048
20091SOL    HW277884   0.620  10.847  13.583 -2.0151  0.5631  1.4230
20092SOL     OW77885  10.964  10.396   3.378  0.0566  0.8004 -0.2252
20092SOL    HW177886  10.886  10.345   3.355 -0.3895  1.3087  0.1308
20092SOL    HW277887  11.018  10.395   3.298  1.0694 -1.9734  0.3807
20093SOL     OW77888   4.021  10.072  10.996  0.1005  0.6577  0.0666
20093SOL    HW177889   3.953  10.092  10.932 -0.8214 -1.9457  0.0975
20093SOL    HW277890   4.092  10.134  10.977 -1.3633  1.9516 -1.4447
20094SOL     OW77891   7.267   0.598   4.142 -0.2666 -0.0840 -0.4407
20094SOL    HW177892   7.245   0.632   4.055 -0.9185 -1.6091 -0.9227
20094SOL    HW277893   7.183   0.574   4.180  0.1884 -1.8246 -0.4552
20095SOL     OW77894   6.110   3.776   8.247  0.3638  0.1640 -0.2416
20095SOL    HW177895   6.048   3.717   8.289  0.1465  0.6389  0.1094
20095SOL    HW277896   6.075   3.864   8.262  1.0801  0.4352 -0.0880
20096SOL     OW77897   6.627   0.682   3.598 -0.2137  0.4188  0.4603
20096SOL    HW177898   6.539   0.719   3.590 -0.1545  0.1924 -2.2187
20096SOL    HW277899   6.685   0.749   3.563  0.5275 -0.0304  0.7984
20097SOL     OW77900  12.009   9.102  12.596  0.7399 -0.3107  0.0585
20097SOL    HW177901  12.016   9.133  12.686 -2.6963 -0.8248  0.6449
20097SOL    HW277902  12.095   9.065  12.577  1.8775  0.6644  2.7685
20098SOL     OW77903   1.792   9.197   5.989 -0.0970  0.6746 -0.0030
20098SOL    HW177904   1.886   9.217   5.989  0.3040 -1.0076  1.1127
20098SOL    HW277905   1.786   9.111   5.948 -1.0763  0.4847  0.5119
20099SOL     OW77906   0.769   3.725   4.047  0.1119 -0.1004 -0.5806
20099SOL    HW177907   0.769   3.791   3.978 -0.9117  0.6622  0.1261
20099SOL    HW277908   0.862   3.707   4.063  0.3658 -0.0752 -1.9384
20100SOL     OW77909   2.865   6.956  12.445  0.1630 -0.1109  0.8053
20100SOL    HW177910   2.799   6.886  12.440 -0.2281  0.1608  1.8631
20100SOL    HW277911   2.816   7.035  12.423  0.4027 -0.0588  0.4687
20101SOL     OW77912  12.644   2.808   0.631  0.3120  0.0479 -0.0715
20101SOL    HW177913  12.704   2.736   0.650 -0.0662 -0.1580  0.3575
20101SOL    HW277914  12.557   2.770   0.639  0.0965  0.6585  0.6401
20102SOL     OW77915  12.467  12.739  10.106 -0.3084  0.2479 -0.4808
20102SOL    HW177916  12.500  12.650  10.101 -0.2509  0.3187 -1.6888
20102SOL    HW277917  12.383  12.732  10.152 -0.3687 -0.4551 -0.6919
20103SOL     OW77918   4.027   1.371   7.198  0.5143 -0.0621  0.1601
20103SOL    HW177919   4.117   1.377   7.167  0.0093  0.9764 -1.1755
20103SOL    HW277920   3.982   1.445   7.157 -1.3713 -1.6004 -0.7124
20104SOL     OW77921  10.648  12.329  11.655 -0.3765  0.2718 -0.2669
20104SOL    HW177922  10.628  12.412  11.698 -0.2475 -0.1691  0.6749
20104SOL    HW277923  10.667  12.269  11.727  2.6282  0.1866 -1.0038
20105SOL     OW77924   2.497  12.985  11.606  0.0265 -0.1871 -0.0879
20105SOL    HW177925   2.446  12.907  11.625 -0.1925  0.1577  0.8064
20105SOL    HW277926   2.448  13.056  11.649  0.9920  0.2180  0.3698
20106SOL     OW77927   1.251   9.140   9.021  0.0327  0.2079  0.1763
20106SOL    HW177928   1.233   9.066   8.963  1.1909  1.9491 -2.6601
20106SOL    HW277929   1.330   9.115   9.069 -0.3467 -0.8710  0.2589
20107SOL     OW77930  10.459  11.846   3.165  0.1097 -0.2818 -0.1476
20107SOL    HW177931  10.397  11.916   3.185  0.9291  0.6177 -0.6716
20107SOL    HW277932  10.405  11.775   3.131 -0.8230 -0.2232  1.1581
20108SOL     OW77933  12.210   1.513   2.967 -0.0513  0.3491 -0.0714
20108SOL    HW177934  12.305   1.517   2.964 -0.0766  0.6169 -0.6352
20108SOL    HW277935  12.183   1.600   3.000 -0.1287  0.5702 -0.7025
20109SOL     OW77936  12.048   5.440   9.636  0.0176  0.4419  0.6113
20109SOL    HW177937  12.008   5.526   9.626  0.9771  0.7220 -1.2155
20109SOL    HW277938  11.981   5.387   9.680 -1.0966  1.7401  0.5318
20110SOL     OW77939  10.669   5.035   3.424 -0.6908  0.0968 -0.0512
20110SOL    HW177940  10.760   5.064   3.433 -0.6499  0.0977 -0.4584
20110SOL    HW277941  10.647   5.000   3.510 -0.2351 -0.1046 -0.0132
20111SOL     OW77942   6.760   4.219   0.321 -0.1195  0.3072 -0.3798
20111SOL    HW177943   6.749   4.237   0.414  1.5261  2.6400 -0.5547
20111SOL    HW277944   6.823   4.147   0.318 -1.7125 -1.1972  0.2683
20112SOL     OW77945   0.871  13.298   6.116  0.0439 -0.1461  0.1934
20112SOL    HW177946   0.891  13.272   6.206  1.2152 -2.3516 -0.6318
20112SOL    HW277947   0.783  13.264   6.100  0.5380 -1.3371 -0.0405
20113SOL     OW77948   4.084  11.423   9.127 -0.2857 -0.6559  0.3561
20113SOL    HW177949   4.173  11.386   9.131 -0.0477 -0.2410 -0.7816
20113SOL    HW277950   4.061  11.439   9.219  2.0243  2.0330  0.6228
20114SOL     OW77951   0.379   3.905  11.294 -0.5708 -0.6011  0.5752
20114SOL    HW177952   0.455   3.856  11.326 -0.4266 -0.4307  0.4984
20114SOL    HW277953   0.378   3.888  11.199  0.4036  0.7803  0.2860
20115SOL     OW77954   5.028   1.294  13.145 -0.1038 -0.5966  0.2664
20115SOL    HW177955   4.960   1.360  13.136 -1.4176 -2.0629 -1.2079
20115SOL    HW277956   5.110   1.343  13.145 -1.0588  1.0584  0.0047
20116SOL     OW77957   1.440   2.450   1.934 -0.0704  0.0175  0.3267
20116SOL    HW177958   1.457   2.421   2.024 -0.5920 -0.3215  0.3178
20116SOL    HW277959   1.353   2.417   1.914 -0.1368  0.4671 -0.1538
20117SOL     OW77960  11.158   8.272   3.712 -0.1663 -0.0119 -0.3205
20117SOL    HW177961  11.207   8.349   3.682  0.0741 -0.4192 -0.9732
20117SOL    HW277962  11.088   8.262   3.648  0.0591 -0.5985 -0.4728
20118SOL     OW77963  13.656   7.765   9.692  0.0347  0.2137 -0.3467
20118SOL    HW177964  13.719   7.825   9.732  1.1907 -1.0300 -0.2326
20118SOL    HW277965  13.693   7.678   9.708 -0.2966 -0.4273 -2.6782
20119SOL     OW77966   2.866   8.675   6.758  0.3285  0.5217  0.1091
20119SOL    HW177967   2.920   8.684   6.679 -0.6164  0.8605 -0.5094
20119SOL    HW277968   2.858   8.580   6.771  0.2315  0.4614 -0.3864
20120SOL     OW77969   7.419   2.517   9.733  1.3110 -0.7076  0.0249
20120SOL    HW177970   7.355   2.449   9.750  1.2177 -0.4351  0.7908
20120SOL    HW277971   7.499   2.487   9.776  1.5800 -0.8357 -0.5490
20121SOL     OW77972   4.224   2.412   9.799 -0.2830 -0.5395 -0.9574
20121SOL    HW177973   4.255   2.491   9.754 -0.1665  0.4934  0.7934
20121SOL    HW277974   4.139   2.438   9.837 -0.3844 -1.3465 -0.6109
20122SOL     OW77975   0.562   2.257  10.687  1.0161 -0.2354 -0.2063
20122SOL    HW177976   0.610   2.211  10.757 -1.8387  0.3313  2.3567
20122SOL    HW277977   0.557   2.348  10.718 -2.6432 -0.5059  0.3936
20123SOL     OW77978   2.944   9.351  10.009  0.5790  0.1595 -0.4388
20123SOL    HW177979   3.002   9.280  10.036  0.1454 -0.7293 -1.7579
20123SOL    HW277980   2.861   9.308   9.987 -0.2282  1.2748  0.2979
20124SOL     OW77981   6.941   0.674   3.884 -0.1226  0.6499  0.0752
20124SOL    HW177982   6.997   0.610   3.928  0.8135  1.4328  0.0715
20124SOL    HW277983   6.932   0.745   3.948  2.5386  2.5402 -1.3978
20125SOL     OW77984   0.259  11.493   1.392  0.0866  0.5255 -0.4824
20125SOL    HW177985   0.319  11.420   1.408 -0.7525  0.1673  1.2736
20125SOL    HW277986   0.315  11.570   1.393  0.6208  0.1401  0.4332
20126SOL     OW77987  10.889   0.793  11.286  0.3518 -0.5924 -0.4705
20126SOL    HW177988  10.887   0.863  11.351  0.6951 -0.6407 -0.4050
20126SOL    HW277989  10.835   0.825  11.214 -0.7931 -0.9204  0.2223
20127SOL     OW77990   8.911  14.043  10.516 -0.0429  0.3655  0.0715
20127SOL    HW177991   8.993  14.005  10.485 -0.9609  1.2151 -3.8384
20127SOL    HW277992   8.893  13.996  10.598  3.8157 -0.4582  0.6613
20128SOL     OW77993  13.187   2.076   7.887 -0.2319 -0.5218  0.1548
20128SOL    HW177994  13.205   2.103   7.797 -3.3208  1.3551 -0.0413
20128SOL    HW277995  13.170   2.157   7.934 -3.0299 -1.6365  1.2923
20129SOL     OW77996   9.426   0.853   2.973  0.2670  0.2147 -0.3887
20129SOL    HW177997   9.469   0.909   2.908  1.2494  0.0125  0.0792
20129SOL    HW277998   9.400   0.775   2.924  0.7764  0.1704 -0.5878
20130SOL     OW77999   9.956   4.722  12.787  0.2932  0.2808 -0.1668
20130SOL    HW178000   9.923   4.763  12.707 -0.2345 -1.0447 -0.6545
20130SOL    HW278001   9.878   4.685  12.829  1.0442 -2.8158 -1.2905
20131SOL     OW78002  13.468   9.085   7.283  0.1019 -0.4170 -0.1416
20131SOL    HW178003  13.433   9.012   7.334  0.0424 -0.6792 -0.5528
20131SOL    HW278004  13.541   9.047   7.234  0.8084  0.0619  0.5085
20132SOL     OW78005   6.542   4.463   1.347  0.0552 -0.2041  0.1476
20132SOL    HW178006   6.497   4.399   1.292 -2.5783 -0.7086  2.6535
20132SOL    HW278007   6.523   4.547   1.306 -3.1983 -0.4152  0.9081
20133SOL     OW78008   4.159   6.892   6.428 -0.5257  0.2130 -0.5652
20133SOL    HW178009   4.119   6.827   6.486 -1.5980  1.2219 -0.1495
20133SOL    HW278010   4.178   6.967   6.485 -1.0309  0.9853 -1.4011
20134SOL     OW78011   9.565  12.343   1.433 -0.1972  0.3021 -0.3474
20134SOL    HW178012   9.583  12.364   1.525 -1.2738  0.5881 -0.1876
20134SOL    HW278013   9.637  12.286   1.407  0.4472  0.7140  0.4959
20135SOL     OW78014   8.286   8.893   9.633 -0.4830 -0.0366 -0.4424
20135SOL    HW178015   8.340   8.816   9.619 -0.9116 -0.5503  0.6539
20135SOL    HW278016   8.219   8.865   9.695 -1.5539  0.7970 -1.1851
20136SOL     OW78017   7.195  10.990   4.896  0.0237 -0.8731 -0.6565
20136SOL    HW178018   7.117  10.949   4.858 -1.0756  0.5698 -0.0556
20136SOL    HW278019   7.180  10.989   4.990  0.8951 -0.8553 -0.5052
20137SOL     OW78020  12.042  13.866   1.739 -0.0506  0.5847 -0.1024
20137SOL    HW178021  12.074  13.809   1.669  0.5788 -0.4231  0.9757
20137SOL    HW278022  12.057  13.955   1.705 -0.1163  0.1265 -1.3935
20138SOL     OW78023   2.097  11.293   9.847  0.0821 -0.2783 -0.0723
20138SOL    HW178024   2.047  11.226   9.894 -2.4690 -0.3430 -2.6245
20138SOL    HW278025   2.177  11.247   9.820  0.7492 -0.7574  2.3889
20139SOL     OW78026   3.778   9.677   4.720 -0.4676 -0.2220  0.5755
20139SOL    HW178027   3.824   9.738   4.778 -0.5202  0.2551  0.1286
20139SOL    HW278028   3.699   9.724   4.694 -0.0723 -0.1102 -0.4855
20140SOL     OW78029  13.479  11.657  12.573 -0.3917  0.2550 -0.3204
20140SOL    HW178030  13.462  11.751  12.579 -0.6569  0.2074 -0.3083
20140SOL    HW278031  13.546  11.640  12.640 -0.5221  0.3923 -0.1537
20141SOL     OW78032  11.204   9.328   9.547 -0.0865 -0.0583 -0.1109
20141SOL    HW178033  11.275   9.355   9.489 -0.3819 -0.2125 -0.5513
20141SOL    HW278034  11.220   9.376   9.628  2.1397 -2.1627  0.8377
20142SOL     OW78035  12.517  11.431   6.688 -0.4822  0.6240 -0.3833
20142SOL    HW178036  12.576  11.471   6.624  0.6023 -1.2055 -0.6000
20142SOL    HW278037  12.554  11.455   6.773 -0.5697  1.0921 -0.4703
20143SOL     OW78038   0.919  10.123  10.507 -0.2308 -0.0878 -0.9518
20143SOL    HW178039   0.875  10.057  10.560 -0.8833  2.1396  1.5046
20143SOL    HW278040   1.011  10.099  10.510 -0.2434 -0.0015  1.3350
20144SOL     OW78041   2.068   2.678   3.251 -0.3566  0.9015 -0.3872
20144SOL    HW178042   2.116   2.654   3.331 -0.8416  1.3518  0.0406
20144SOL    HW278043   2.134   2.672   3.182 -0.1818 -0.5829 -0.1377
20145SOL     OW78044  10.674  10.726   1.461  0.0362  0.1199 -0.3080
20145SOL    HW178045  10.643  10.636   1.448 -1.5808  0.4274  1.0748
20145SOL    HW278046  10.723  10.722   1.543 -1.3065  0.7492  0.5572
20146SOL     OW78047   3.585   7.373  12.775  0.3761  0.7708 -0.1142
20146SOL    HW178048   3.650   7.352  12.708 -0.3156  0.0883 -0.6021
20146SOL    HW278049   3.501   7.361  12.731 -0.0829  1.4770  0.5465
20147SOL     OW78050   4.655   5.198  11.678 -0.0131 -0.4218 -0.1904
20147SOL    HW178051   4.647   5.146  11.758  0.7743 -0.5153 -0.1679
20147SOL    HW278052   4.722   5.154  11.627  0.8072  0.6717 -0.0903
20148SOL     OW78053  10.102   3.773   3.100  0.1888  0.1243 -0.0833
20148SOL    HW178054  10.048   3.742   3.028  0.6425 -0.5205 -0.1477
20148SOL    HW278055  10.040   3.784   3.173 -0.6097  2.4817 -1.0136
20149SOL     OW78056  11.333  10.380  10.563 -0.3228 -0.5150  0.2682
20149SOL    HW178057  11.418  10.396  10.522 -1.5302  1.6144 -1.6065
20149SOL    HW278058  11.342  10.293  10.602  2.5955 -0.4943 -0.1145
20150SOL     OW78059   6.833  11.807   1.892  0.2214  0.4113  0.1284
20150SOL    HW178060   6.804  11.851   1.811 -2.4913 -3.7375 -1.4842
20150SOL    HW278061   6.868  11.724   1.863 -1.7357 -1.6885  3.1742
20151SOL     OW78062   1.462   1.750   1.798  0.4758 -0.2465 -0.0920
20151SOL    HW178063   1.556   1.762   1.786  0.6290 -0.9116  0.3745
20151SOL    HW278064   1.422   1.827   1.757  1.2335  0.1685 -0.0650
20152SOL     OW78065  10.000   5.835   5.690 -0.4896  0.2407  0.3347
20152SOL    HW178066   9.979   5.798   5.776 -0.8838 -1.2552 -0.3770
20152SOL    HW278067  10.095   5.845   5.692 -0.5436  0.6953  1.1241
20153SOL     OW78068   9.648   2.663   2.076 -0.7709 -0.4321 -0.5987
20153SOL    HW178069   9.668   2.570   2.085 -0.3328 -0.2149  1.0574
20153SOL    HW278070   9.555   2.666   2.055 -0.7091 -1.2503 -1.0209
20154SOL     OW78071  11.585  13.377   4.708  0.6677  0.2167 -0.3071
20154SOL    HW178072  11.513  13.439   4.719  1.1545  0.6293  0.6454
20154SOL    HW278073  11.615  13.390   4.618 -1.6853 -1.3204 -1.4217
20155SOL     OW78074  13.679   0.624  12.595 -0.3094 -0.6091  0.2066
20155SOL    HW178075  13.665   0.667  12.679 -1.3712 -1.4119  0.4608
20155SOL    HW278076  13.595   0.634  12.549  0.7049  1.2132 -1.4487
20156SOL     OW78077   0.417   1.752  12.126 -0.0216 -0.4349  0.3664
20156SOL    HW178078   0.473   1.686  12.169 -1.3063 -2.0784 -0.3741
20156SOL    HW278079   0.474   1.790  12.059  0.5143 -1.4093  0.2365
20157SOL     OW78080   4.746  13.981  10.439 -0.0912 -0.2825  0.2561
20157SOL    HW178081   4.802  14.057  10.428  0.8676 -0.8480  1.1049
20157SOL    HW278082   4.720  13.983  10.531 -0.7129 -0.5415  0.0895
20158SOL     OW78083   4.994   1.201   5.271 -0.1615  0.1289  0.2360
20158SOL    HW178084   4.951   1.120   5.244 -1.2428  0.2514  1.5143
20158SOL    HW278085   5.048   1.226   5.196 -0.9561 -0.9821 -0.7311
20159SOL     OW78086  12.432  11.911   7.016 -0.5371  0.5747  0.0445
20159SOL    HW178087  12.396  11.964   7.086 -1.5690  0.2196 -0.2042
20159SOL    HW278088  12.526  11.927   7.019 -0.4803  0.0671  1.9205
20160SOL     OW78089   0.176   1.237   4.583 -0.4131  0.3176 -0.4760
20160SOL    HW178090   0.094   1.281   4.607 -0.2378 -0.0875  0.9722
20160SOL    HW278091   0.183   1.250   4.489 -2.2850  0.1512 -0.6927
20161SOL     OW78092   4.031   4.025  11.886 -0.4714 -0.0495  0.0922
20161SOL    HW178093   4.035   4.052  11.978 -2.3160 -0.0590  0.2039
20161SOL    HW278094   4.107   3.966  11.875 -0.0796  0.1539  1.5226
20162SOL     OW78095   1.748   5.232   2.697  0.2656  0.6758 -0.1832
20162SOL    HW178096   1.718   5.321   2.680 -0.8645  0.0102 -1.9365
20162SOL    HW278097   1.773   5.198   2.611  1.5831 -0.4003  0.5939
20163SOL     OW78098  13.610   5.384  11.030 -0.0613  0.2399 -0.0504
20163SOL    HW178099  13.555   5.305  11.031 -0.1966  0.2931 -1.2988
20163SOL    HW278100  13.694   5.355  11.066 -1.0705  0.3405  2.6225
20164SOL     OW78101  13.328  12.559   4.347 -0.0846 -0.1116  0.2801
20164SOL    HW178102  13.371  12.621   4.288  1.4829 -1.4352 -0.0569
20164SOL    HW278103  13.237  12.588   4.350  0.8026  2.9177  1.1369
20165SOL     OW78104   4.855  13.104   3.699  0.1334  0.0324 -0.1534
20165SOL    HW178105   4.788  13.044   3.666 -1.2465  1.3193  0.1989
20165SOL    HW278106   4.870  13.075   3.790  0.8393 -0.8915 -0.5453
20166SOL     OW78107  10.346  10.578   5.846 -0.2073  0.2379 -0.1281
20166SOL    HW178108  10.339  10.484   5.862 -2.5141  0.1667 -1.1195
20166SOL    HW278109  10.316  10.619   5.928 -0.2267  0.1007 -0.0669
20167SOL     OW78110   5.889  11.899  12.161 -0.4770 -0.0712 -0.1837
20167SOL    HW178111   5.966  11.957  12.162 -1.5884  1.4543  0.4415
20167SOL    HW278112   5.836  11.929  12.235 -2.1704 -0.3947 -1.2328
20168SOL     OW78113   9.362   7.934   4.008  0.0737 -0.3909  0.4818
20168SOL    HW178114   9.412   7.878   3.947 -0.2589 -1.1315  0.8756
20168SOL    HW278115   9.385   8.023   3.982  3.2632 -0.6529  1.9701
20169SOL     OW78116  14.017   2.747  11.812  0.0405  0.6791 -0.0696
20169SOL    HW178117  14.001   2.833  11.774 -2.0485  0.0935 -0.6844
20169SOL    HW278118  13.942   2.694  11.784  0.5262 -0.9496  1.4753
20170SOL     OW78119   5.683   1.739   1.967 -0.2167  0.3779  0.3796
20170SOL    HW178120   5.679   1.644   1.976 -1.2011  0.2552 -1.0546
20170SOL    HW278121   5.599   1.770   2.002 -1.0157  0.4659 -1.4921
20171SOL     OW78122   6.833  10.231   4.371  0.5129 -0.0118  0.0987
20171SOL    HW178123   6.836  10.303   4.433  0.1042  0.3926 -0.3458
20171SOL    HW278124   6.867  10.156   4.420  2.4451  0.8037  0.1142
20172SOL     OW78125  11.458   5.335   5.125 -0.5513  0.3981  0.2237
20172SOL    HW178126  11.379   5.299   5.085  0.1027 -1.4430  0.4912
20172SOL    HW278127  11.525   5.268   5.110  0.9510  1.8585  0.1015
20173SOL     OW78128  12.432   5.054  11.359 -0.2602  0.2375  0.2569
20173SOL    HW178129  12.384   5.024  11.282  0.2973  0.1549 -0.0602
20173SOL    HW278130  12.516   5.008  11.356 -0.0821  0.5175  0.7077
20174SOL     OW78131   6.769  10.183   4.701 -0.1531  0.5690  0.0595
20174SOL    HW178132   6.770  10.178   4.797  0.5702  1.1546  0.0863
20174SOL    HW278133   6.695  10.241   4.681 -1.2825 -0.7684  0.1864
20175SOL     OW78134   5.965  12.479   2.275  0.1037 -0.8011  0.2603
20175SOL    HW178135   5.874  12.509   2.272  0.4370  0.1708 -2.0748
20175SOL    HW278136   5.961  12.388   2.245 -0.1224 -0.8511  0.4384
20176SOL     OW78137   6.273  12.113  12.630  0.6236  0.3220 -0.0575
20176SOL    HW178138   6.318  12.049  12.576 -0.7420 -1.4485  0.8010
20176SOL    HW278139   6.212  12.062  12.683 -0.8630  2.3829  0.3633
20177SOL     OW78140   8.076   9.706   2.521  0.5200 -0.3258 -0.1377
20177SOL    HW178141   8.130   9.780   2.490  1.5749 -0.1809  1.8930
20177SOL    HW278142   8.138   9.649   2.566 -0.9281 -0.4410  1.8185
20178SOL     OW78143  12.093   6.032  11.608 -0.0098 -0.3936 -0.6634
20178SOL    HW178144  12.058   6.040  11.697  2.2480  1.9645  0.1240
20178SOL    HW278145  12.019   5.999  11.557 -3.0198  2.8780  1.1094
20179SOL     OW78146   0.286   9.152   5.084  0.2040  0.1034  0.0902
20179SOL    HW178147   0.330   9.083   5.034  0.7618  0.4849  0.0457
20179SOL    HW278148   0.284   9.227   5.024 -1.4637 -0.2149 -0.3073
20180SOL     OW78149  11.249  11.810  12.964  0.3781 -0.4711 -0.1842
20180SOL    HW178150  11.169  11.861  12.951 -0.1060 -1.1888 -0.0735
20180SOL    HW278151  11.318  11.863  12.924  0.1903  1.0908  1.4882
20181SOL     OW78152   4.272   7.885  10.267 -0.4586  0.2886 -0.0022
20181SOL    HW178153   4.239   7.906  10.180  0.4225  1.8146  0.0098
20181SOL    HW278154   4.195   7.890  10.323 -0.8065  0.5101 -0.4920
20182SOL     OW78155  10.171  10.281   7.118 -0.5314 -0.3655  0.4824
20182SOL    HW178156  10.169  10.360   7.063 -0.2313 -0.6742  0.0156
20182SOL    HW278157  10.236  10.300   7.185 -1.0810  0.1133  0.8929
20183SOL     OW78158   4.103  11.775   4.760 -0.2911  0.0824 -0.0276
20183SOL    HW178159   4.033  11.821   4.806 -1.6003  0.2929 -2.1105
20183SOL    HW278160   4.115  11.825   4.679  1.8845 -0.2918  0.0089
20184SOL     OW78161   0.154   8.491   6.473 -0.2029 -0.2653  0.1506
20184SOL    HW178162   0.132   8.506   6.565 -2.4468  0.1894 -0.4166
20184SOL    HW278163   0.119   8.404   6.455  0.1325 -0.3045 -0.3197
20185SOL     OW78164   6.128   2.694   0.896 -0.0242  0.2181  0.0814
20185SOL    HW178165   6.204   2.651   0.935 -0.8383 -1.8777 -0.5062
20185SOL    HW278166   6.054   2.664   0.949 -0.8899 -1.0146 -1.7051
20186SOL     OW78167  13.138  12.349   0.567 -0.3028  0.1249 -0.2115
20186SOL    HW178168  13.153  12.440   0.593  1.2408  0.1973 -1.2344
20186SOL    HW278169  13.049  12.330   0.598 -0.6824  1.9871 -0.0155
20187SOL     OW78170   5.513   9.988   0.239  0.8453  0.1705 -0.0127
20187SOL    HW178171   5.466  10.067   0.265  0.0676  0.1850 -1.4043
20187SOL    HW278172   5.588  10.020   0.188  0.5706  0.0269 -0.5146
20188SOL     OW78173  11.788   1.702   5.671 -0.1404  0.8173  0.2075
20188SOL    HW178174  11.851   1.720   5.601  0.9757  2.1859  1.5001
20188SOL    HW278175  11.748   1.787   5.689 -0.5444  0.4435  1.1154
20189SOL     OW78176   3.140   4.198   5.510 -0.2684  0.7867  0.1533
20189SOL    HW178177   3.079   4.130   5.481 -1.7438  1.9878  0.2542
20189SOL    HW278178   3.222   4.177   5.466 -0.3344 -1.6508  1.0333
20190SOL     OW78179   7.894  11.678   5.158  0.2085 -0.2784  0.4632
20190SOL    HW178180   7.870  11.607   5.098 -0.9709 -0.5786  1.2488
20190SOL    HW278181   7.828  11.745   5.143  0.9604  0.4050  0.1687
20191SOL     OW78182   9.178   1.744  11.195 -0.6936  0.7093  0.4146
20191SOL    HW178183   9.186   1.736  11.290 -1.0802  0.5023  0.4353
20191SOL    HW278184   9.110   1.681  11.172 -0.5532  0.7099 -0.0089
20192SOL     OW78185   2.963   4.055   5.196 -0.3260  0.0077  0.4623
20192SOL    HW178186   2.876   4.081   5.165  0.0038  2.0781  1.0637
20192SOL    HW278187   3.024   4.103   5.140  0.3628  0.1051  1.2621
20193SOL     OW78188   7.945   1.009   1.840 -0.0242  0.4905 -0.1082
20193SOL    HW178189   7.989   0.949   1.779  0.0119 -0.1168  0.4992
20193SOL    HW278190   7.971   0.978   1.927 -3.5469 -1.4702  0.4287
20194SOL     OW78191   1.783   9.235   4.034  0.4834  0.0956  0.2838
20194SOL    HW178192   1.784   9.328   4.011  0.8583  0.0740  0.1984
20194SOL    HW278193   1.876   9.212   4.046  0.5184 -0.6073 -1.1181
20195SOL     OW78194   8.624  13.061  12.698 -0.2944 -0.0047  0.3568
20195SOL    HW178195   8.655  12.982  12.743  0.0203  0.2347  0.5616
20195SOL    HW278196   8.654  13.134  12.753  1.1136  0.3461 -0.8103
20196SOL     OW78197   2.602   4.985   5.900 -0.3413  0.3985 -0.8078
20196SOL    HW178198   2.633   4.921   5.837 -3.1514  0.2628 -2.1978
20196SOL    HW278199   2.653   4.967   5.979  0.6875 -1.8740 -1.8934
20197SOL     OW78200   0.628   9.296   0.282 -0.0984 -0.6687  0.7623
20197SOL    HW178201   0.644   9.391   0.287  1.6173 -0.9865  2.1395
20197SOL    HW278202   0.560   9.280   0.349 -0.2178 -0.4494  0.6953
20198SOL     OW78203   8.033  10.754   8.598  0.0511 -0.0086  0.0748
20198SOL    HW178204   8.105  10.796   8.551 -1.5169  1.8108 -0.8207
20198SOL    HW278205   8.061  10.663   8.608  2.2013  0.5051 -0.7487
20199SOL     OW78206  12.741   9.937   2.575  0.3994  0.0775  0.0647
20199SOL    HW178207  12.782  10.013   2.533  0.0028  0.2421 -0.0306
20199SOL    HW278208  12.706   9.971   2.657  0.6286 -0.1077  0.2400
20200SOL     OW78209   9.265   1.439   6.949  0.2371  0.0207  0.8369
20200SOL    HW178210   9.291   1.530   6.963 -1.1412  0.7447 -0.8528
20200SOL    HW278211   9.348   1.390   6.947  0.8816  0.5478  5.3370
20201SOL     OW78212   8.419   0.761   5.990 -0.1201  0.4530  1.1008
20201SOL    HW178213   8.421   0.856   5.979 -0.2195  0.1611 -2.1069
20201SOL    HW278214   8.327   0.740   5.999 -0.4058  0.4347 -1.3750
20202SOL     OW78215   5.373  12.185   8.429 -0.3373 -0.2019 -0.7765
20202SOL    HW178216   5.400  12.269   8.467 -2.1075 -0.3416  0.9351
20202SOL    HW278217   5.328  12.209   8.349  0.0386  0.4074 -0.8162
20203SOL     OW78218  13.230   1.792   3.248 -0.0629  0.0341 -0.0158
20203SOL    HW178219  13.213   1.866   3.190 -0.6650 -0.3128 -0.2911
20203SOL    HW278220  13.224   1.828   3.336  2.4974  0.9340 -0.1311
20204SOL     OW78221  13.912   9.484  10.232  0.1022  0.4042 -0.1565
20204SOL    HW178222  13.947   9.550  10.292  2.1020 -1.7332  1.1937
20204SOL    HW278223  13.851   9.433  10.286 -0.5027  0.3818 -0.8444
20205SOL     OW78224  13.528  11.869   3.105 -0.0286  0.3612 -0.0809
20205SOL    HW178225  13.532  11.960   3.077  0.1752  0.8893  1.5542
20205SOL    HW278226  13.618  11.845   3.124 -0.2357  0.3042  0.8979
20206SOL     OW78227   9.337   0.669   2.784  0.3411  0.0032 -0.1145
20206SOL    HW178228   9.250   0.708   2.777 -0.3776 -1.4046  0.6233
20206SOL    HW278229   9.323   0.576   2.764  1.6389 -0.2715  0.2069
20207SOL     OW78230   8.009  13.594  12.086 -0.3601 -0.3307  0.8170
20207SOL    HW178231   8.100  13.565  12.090 -0.7542 -1.5329  1.6573
20207SOL    HW278232   8.000  13.632  11.999  0.7659 -0.8232  0.4635
20208SOL     OW78233  12.739  11.014  11.859 -0.6657 -0.3502 -0.4628
20208SOL    HW178234  12.793  10.937  11.875  2.6987  1.6299 -1.2438
20208SOL    HW278235  12.728  11.054  11.946  1.1492  0.3772 -0.5266
20209SOL     OW78236   1.771   0.182  10.255 -0.2565 -0.4163  0.0549
20209SOL    HW178237   1.847   0.175  10.197 -1.4181  0.2461 -1.6256
20209SOL    HW278238   1.808   0.190  10.342  1.5510 -2.0119 -0.5031
20210SOL     OW78239   7.981  10.717   4.968 -0.2092 -0.1810 -0.2606
20210SOL    HW178240   8.032  10.679   4.897  0.7686 -0.3514  0.5003
20210SOL    HW278241   7.891  10.719   4.936 -0.2822 -2.9032 -0.4563
20211SOL     OW78242   3.446   5.770   3.308 -0.3291 -0.3436 -0.3051
20211SOL    HW178243   3.518   5.709   3.292  0.5734  0.5711  0.1280
20211SOL    HW278244   3.467   5.846   3.253  0.8728  1.3327  2.2681
20212SOL     OW78245  13.381   6.467   4.176 -0.1812 -0.2827  0.1690
20212SOL    HW178246  13.297   6.498   4.143  0.5096  0.2621 -1.1511
20212SOL    HW278247  13.395   6.383   4.131  1.1440  0.8523 -1.6446
20213SOL     OW78248  10.480   9.167   7.953 -0.0949 -0.1498 -0.0036
20213SOL    HW178249  10.490   9.107   7.879  0.1440 -2.1210  1.5478
20213SOL    HW278250  10.410   9.227   7.926 -0.6367 -1.3784 -1.4605
20214SOL     OW78251   2.629   2.619   1.621 -0.3984  0.4984  0.6182
20214SOL    HW178252   2.724   2.620   1.629 -0.3128  0.9215 -0.2844
20214SOL    HW278253   2.599   2.697   1.667 -0.2976  0.4405  0.7812
20215SOL     OW78254   9.983   4.161   6.588  0.0353 -0.6049  0.0741
20215SOL    HW178255   9.928   4.215   6.531  0.1608 -0.0476  0.4669
20215SOL    HW278256  10.060   4.216   6.604 -0.4780 -0.2864  1.6562
20216SOL     OW78257   6.393   0.784   5.210  0.2951  0.1291  0.3936
20216SOL    HW178258   6.416   0.768   5.301  0.8442  0.0128  0.2334
20216SOL    HW278259   6.435   0.713   5.161 -0.6777 -0.2897  0.1352
20217SOL     OW78260  13.150   2.217  12.699  0.5068 -0.1500 -0.8713
20217SOL    HW178261  13.229   2.222  12.753 -0.0370  0.1370 -0.0699
20217SOL    HW278262  13.158   2.289  12.637  0.3675  0.5715 -0.0704
20218SOL     OW78263   9.644  13.900   9.644 -0.0347  0.2186 -0.4552
20218SOL    HW178264   9.728  13.857   9.629 -0.0094 -0.2398  0.9041
20218SOL    HW278265   9.666  13.986   9.679 -0.1112 -0.4256  1.2610
20219SOL     OW78266   4.396  13.487   9.531  0.3145 -0.0571 -0.1058
20219SOL    HW178267   4.304  13.474   9.555 -0.0645 -0.7351 -1.7511
20219SOL    HW278268   4.422  13.403   9.491  1.9182 -0.1764  1.0776
20220SOL     OW78269   5.343  11.050   6.018 -0.2108  0.2742  0.1604
20220SOL    HW178270   5.336  11.144   6.036 -1.5995  0.1150  0.5741
20220SOL    HW278271   5.361  11.045   5.924 -0.7077  0.9436  0.0198
20221SOL     OW78272  10.871   9.771  13.657  0.1866 -0.0078  0.4136
20221SOL    HW178273  10.877   9.821  13.576 -1.6911  0.8542  0.7680
20221SOL    HW278274  10.809   9.701  13.638  1.0699 -0.8619  0.6079
20222SOL     OW78275  10.189  11.830   1.304  0.5511  0.0811 -0.1749
20222SOL    HW178276  10.162  11.801   1.391  1.2489  0.5505  0.2069
20222SOL    HW278277  10.117  11.804   1.247 -1.1228  2.0130  0.9279
20223SOL     OW78278  12.550  11.853  13.737  0.0523  0.0360  0.1323
20223SOL    HW178279  12.629  11.867  13.686  0.5799 -0.2016  0.8565
20223SOL    HW278280  12.552  11.921  13.804  0.1074 -0.4917  0.6834
20224SOL     OW78281   6.446   3.543   2.886  0.2942 -0.6399  0.6574
20224SOL    HW178282   6.381   3.485   2.926  0.9246 -0.9600  1.2465
20224SOL    HW278283   6.524   3.489   2.878  0.9013  0.1341  1.2429
20225SOL     OW78284   0.711   5.578   8.000 -0.3832 -0.8788  0.0549
20225SOL    HW178285   0.707   5.660   7.950  1.2161 -0.1925  0.9921
20225SOL    HW278286   0.620   5.557   8.018 -0.9212 -0.2378 -1.6705
20226SOL     OW78287   2.818   2.573   6.280 -0.4165  0.0930 -0.4006
20226SOL    HW178288   2.913   2.588   6.275 -0.2159 -1.3389 -1.2865
20226SOL    HW278289   2.782   2.659   6.301  1.1169  0.5546  0.5634
20227SOL     OW78290  10.107   7.009  12.402  0.4590 -0.1899 -0.0986
20227SOL    HW178291  10.178   6.982  12.345  0.1635  0.2864 -0.7042
20227SOL    HW278292  10.028   7.002  12.348  0.2649  0.9637  0.0085
20228SOL     OW78293   5.782  10.378  13.280 -0.2793  0.5481 -0.7205
20228SOL    HW178294   5.774  10.402  13.372  1.2090 -0.0115 -0.4074
20228SOL    HW278295   5.806  10.286  13.281  2.5718  1.1795 -1.4814
20229SOL     OW78296  11.155   8.619   4.598 -0.3561  0.1658 -0.3239
20229SOL    HW178297  11.193   8.691   4.648  0.7462 -1.8453  1.9309
20229SOL    HW278298  11.060   8.630   4.610 -0.1564  0.2646  1.5459
20230SOL     OW78299  11.532   8.836  13.851  0.2039 -0.3652 -0.4480
20230SOL    HW178300  11.512   8.807  13.762  0.0118  1.3331 -0.9936
20230SOL    HW278301  11.608   8.784  13.877 -1.3590 -2.8824 -0.5052
20231SOL     OW78302   2.044   9.255   8.693 -0.1306  0.1308 -0.1741
20231SOL    HW178303   2.050   9.220   8.782 -1.1223  0.5447  0.0686
20231SOL    HW278304   2.135   9.258   8.663  0.1807 -0.4534  0.6468
20232SOL     OW78305  12.223   3.846  10.131 -0.1217 -1.3708  0.3815
20232SOL    HW178306  12.311   3.810  10.117 -0.3417 -1.0328 -2.3353
20232SOL    HW278307  12.234   3.941  10.119 -1.1646 -1.5091 -2.2721
20233SOL     OW78308   0.864   8.481   8.634  0.3405 -0.4069  0.0024
20233SOL    HW178309   0.781   8.501   8.590  0.9290  2.2492 -0.0168
20233SOL    HW278310   0.931   8.500   8.569  1.1194  1.2269  1.2310
20234SOL     OW78311   9.220  11.778  10.229  0.6815 -0.6386 -0.3634
20234SOL    HW178312   9.263  11.693  10.236  1.2621 -0.3034  0.2057
20234SOL    HW278313   9.247  11.825  10.308  1.7068  0.6680 -1.4491
20235SOL     OW78314   9.310   8.925   8.113  0.1109 -0.0376  0.0846
20235SOL    HW178315   9.282   8.839   8.145  1.1922 -0.6518 -0.5389
20235SOL    HW278316   9.255   8.941   8.037 -0.4119  0.0405  0.4747
20236SOL     OW78317  12.501   2.597   6.988 -0.5331  0.4015  0.0777
20236SOL    HW178318  12.586   2.593   7.033  0.2028 -0.6998 -1.3153
20236SOL    HW278319  12.480   2.690   6.985 -0.5317  0.5421  2.4788
20237SOL     OW78320   8.565   4.850   0.199  0.7029 -0.2686 -0.4980
20237SOL    HW178321   8.604   4.930   0.166  0.1218  0.8318  1.3457
20237SOL    HW278322   8.559   4.863   0.294 -1.2791 -1.6469 -0.3631
20238SOL     OW78323  13.236   1.704   9.154  0.1415 -0.0413  0.5353
20238SOL    HW178324  13.204   1.756   9.228  2.0017  2.5642 -0.3241
20238SOL    HW278325  13.314   1.660   9.188  0.4398  0.3786  0.4040
20239SOL     OW78326   2.000   5.988   9.134  0.2403  0.3039 -0.3655
20239SOL    HW178327   1.980   5.945   9.218 -1.3156 -2.0111 -1.8143
20239SOL    HW278328   2.095   5.978   9.125  0.3929  0.3088  0.9695
20240SOL     OW78329   7.476   1.877   8.701 -0.2275  0.5187  0.3851
20240SOL    HW178330   7.441   1.951   8.652  0.0747  0.8853  0.7065
20240SOL    HW278331   7.567   1.871   8.673 -0.2498  0.2726  0.3659
20241SOL     OW78332   0.664   2.240  12.681  0.7723 -0.4576 -0.1138
20241SOL    HW178333   0.642   2.147  12.683  1.4215 -0.6178  1.9278
20241SOL    HW278334   0.743   2.247  12.735 -0.2640  1.4809  1.2727
20242SOL     OW78335   0.243   3.772   1.368  1.1129 -0.3197 -0.5302
20242SOL    HW178336   0.200   3.712   1.429  1.4139 -2.1130 -2.0261
20242SOL    HW278337   0.328   3.790   1.409  0.7796 -0.4032  0.2245
20243SOL     OW78338   5.808   2.609   0.251 -0.0417  0.1043 -0.1360
20243SOL    HW178339   5.790   2.526   0.295 -0.1483 -0.1156 -0.5887
20243SOL    HW278340   5.746   2.671   0.290  1.5043  0.5281  1.8089
20244SOL     OW78341   7.930  11.195   3.901  0.2383  0.1214 -0.2329
20244SOL    HW178342   7.905  11.250   3.975  0.6728 -1.0442  0.8205
20244SOL    HW278343   7.848  11.156   3.870  0.2013 -0.3465  0.4420
20245SOL     OW78344  12.871   0.722  10.976  0.1079 -0.1921 -0.5640
20245SOL    HW178345  12.781   0.734  11.007 -0.2323  0.8134 -1.8694
20245SOL    HW278346  12.916   0.680  11.050 -1.3624 -0.5026  0.1955
20246SOL     OW78347   2.716   2.935   9.841 -0.1375 -0.1193  0.9485
20246SOL    HW178348   2.786   2.994   9.868  1.9975 -2.3564  0.6345
20246SOL    HW278349   2.696   2.883   9.919  1.6718 -2.3785  0.0177
20247SOL     OW78350   8.915  10.396   3.377  0.3768  0.1571  0.2843
20247SOL    HW178351   8.952  10.393   3.289  0.3390 -1.3441  0.3043
20247SOL    HW278352   8.974  10.344   3.430 -1.2367 -1.5449  0.4981
20248SOL     OW78353   7.337   1.944   0.555 -0.2004 -0.0327 -0.2650
20248SOL    HW178354   7.280   2.018   0.571  0.1362  0.1337  0.1724
20248SOL    HW278355   7.388   1.969   0.478 -0.8116 -0.2450 -0.7507
20249SOL     OW78356   9.234   3.014   3.169  0.0102  0.3974  0.0422
20249SOL    HW178357   9.191   3.074   3.230 -2.1054 -0.0932 -0.8558
20249SOL    HW278358   9.240   3.064   3.087 -0.0942 -0.0065 -0.2148
20250SOL     OW78359   6.376  11.749   3.793  0.4308  0.1340  0.1194
20250SOL    HW178360   6.395  11.794   3.876  2.6792 -1.5704  0.6403
20250SOL    HW278361   6.454  11.762   3.740 -0.6724  0.5427 -1.4679
20251SOL     OW78362   1.142   8.670  10.288  0.3534  0.4329 -0.1383
20251SOL    HW178363   1.213   8.624  10.244  1.8419  1.2628  1.2679
20251SOL    HW278364   1.165   8.666  10.381 -2.2995 -0.6518  0.5618
20252SOL     OW78365   4.112   3.236   4.266  0.1185 -0.0707  0.0903
20252SOL    HW178366   4.083   3.145   4.256 -0.1789  0.1491 -1.2506
20252SOL    HW278367   4.196   3.239   4.220  1.2594 -0.1716  2.0504
20253SOL     OW78368   4.197   1.906  12.131 -0.3754  0.0170 -0.5837
20253SOL    HW178369   4.258   1.909  12.204 -0.2419  0.7212 -0.7164
20253SOL    HW278370   4.158   1.819  12.136 -0.2319 -0.0090  0.2106
20254SOL     OW78371   1.549   0.101   6.211  0.1315 -0.0664 -0.6109
20254SOL    HW178372   1.580   0.050   6.286  1.0929  0.4990 -0.6166
20254SOL    HW278373   1.485   0.161   6.249 -0.5499 -0.8388 -0.5076
20255SOL     OW78374   8.507   2.257   2.394 -0.0164  0.2571  0.3783
20255SOL    HW178375   8.511   2.317   2.468 -1.2250 -0.0864  0.7347
20255SOL    HW278376   8.537   2.173   2.430  2.3240  0.7357 -0.2768
20256SOL     OW78377   9.940   9.224   1.745  0.1153  0.1867 -0.0973
20256SOL    HW178378   9.920   9.199   1.655  0.1099 -1.0373  0.2286
20256SOL    HW278379   9.931   9.320   1.746  1.5941  0.3927 -1.7554
20257SOL     OW78380   7.952   2.537   5.801 -0.3794 -0.0896  0.7096
20257SOL    HW178381   7.866   2.574   5.820 -0.5859 -0.1186 -0.1567
20257SOL    HW278382   7.963   2.469   5.867 -0.1742  1.2056  2.0626
20258SOL     OW78383  13.227  10.702   4.754  0.0332 -0.3213  0.3515
20258SOL    HW178384  13.236  10.633   4.820 -1.8381  0.6881  1.7906
20258SOL    HW278385  13.225  10.784   4.805  0.4371  0.6562 -1.1418
20259SOL     OW78386  12.987   7.465  12.387  1.3862 -0.3044 -0.2534
20259SOL    HW178387  12.991   7.506  12.301  1.1669  2.1715  0.8104
20259SOL    HW278388  13.072   7.484  12.427  0.4193  1.4282  1.1741
20260SOL     OW78389   4.103   9.215   7.175 -0.4241 -0.3037  0.5016
20260SOL    HW178390   4.012   9.203   7.203 -0.1332  0.1823  1.7532
20260SOL    HW278391   4.129   9.298   7.216  0.4561 -0.2315 -0.1857
20261SOL     OW78392   5.781  11.751   3.652  0.0473 -0.1193  0.2386
20261SOL    HW178393   5.866  11.781   3.620  0.0407 -0.0962  0.2431
20261SOL    HW278394   5.730  11.734   3.573  0.5637 -1.5937  0.1861
20262SOL     OW78395   4.167   0.111   4.834  0.1713  0.0748  0.0764
20262SOL    HW178396   4.108   0.186   4.825  0.2228  0.0483 -0.4929
20262SOL    HW278397   4.251   0.150   4.860 -0.3179  0.0384  1.8595
20263SOL     OW78398   1.023   9.836   1.866  0.5340  0.6955  0.0904
20263SOL    HW178399   0.976   9.848   1.783  1.1298 -1.8086 -0.6795
20263SOL    HW278400   0.965   9.874   1.932 -0.8153  1.0666 -1.2554
20264SOL     OW78401  12.745   4.561   3.588 -0.2635 -0.4871  0.3006
20264SOL    HW178402  12.759   4.481   3.638  0.1117 -0.2029  0.6590
20264SOL    HW278403  12.659   4.550   3.548  0.0596 -1.3509 -0.1884
20265SOL     OW78404  10.126   7.498   7.040  0.2910  0.1303 -0.6031
20265SOL    HW178405  10.078   7.579   7.058 -0.2485 -0.5042  0.9827
20265SOL    HW278406  10.104   7.440   7.113  0.5550 -1.5178 -1.7688
20266SOL     OW78407   3.622   9.339   8.380  0.0128 -0.3347  1.4691
20266SOL    HW178408   3.678   9.405   8.420  2.7691 -2.0548  0.6722
20266SOL    HW278409   3.619   9.363   8.287  0.9508 -1.2190  1.1931
20267SOL     OW78410  12.605  13.193   7.824 -0.8149  0.0050 -0.0818
20267SOL    HW178411  12.678  13.213   7.883 -0.8078  0.9064 -0.3858
20267SOL    HW278412  12.640  13.128   7.764 -0.8670 -1.0585  0.9906
20268SOL     OW78413  13.440   7.410  13.977  0.4082 -0.5555  0.0142
20268SOL    HW178414  13.472   7.416  13.887 -0.2426 -0.1891 -0.2013
20268SOL    HW278415  13.495   7.469  14.027 -0.7132  1.0797 -0.5886
20269SOL     OW78416   3.393  13.576   7.923 -0.2438  0.0398  0.3420
20269SOL    HW178417   3.299  13.579   7.940 -0.4820 -2.3155 -0.2104
20269SOL    HW278418   3.403  13.508   7.857  1.5357  2.7155 -2.3693
20270SOL     OW78419   2.962  10.462   5.494  0.2573 -0.0981 -0.1159
20270SOL    HW178420   2.879  10.414   5.497 -0.7369  1.5747  0.2054
20270SOL    HW278421   3.021  10.412   5.551 -0.4510 -1.4041 -0.4848
20271SOL     OW78422  13.205   9.503  11.486 -0.1611 -0.0557 -0.4732
20271SOL    HW178423  13.278   9.475  11.431 -0.3101 -0.0860 -0.6584
20271SOL    HW278424  13.182   9.589  11.451 -1.8681 -1.0945 -2.1070
20272SOL     OW78425   7.013   1.029   0.462  0.0824 -0.4970 -0.5417
20272SOL    HW178426   7.010   0.982   0.546  0.7184  1.5831  0.7264
20272SOL    HW278427   6.923   1.056   0.446  0.0647 -0.2922 -0.1260
20273SOL     OW78428   0.479  13.629   3.798 -0.3304  0.0330  0.6354
20273SOL    HW178429   0.468  13.685   3.876  0.7921 -1.1332  1.6850
20273SOL    HW278430   0.558  13.662   3.756  0.8694 -1.2671  1.7686
20274SOL     OW78431   2.419  13.868   9.312 -0.3456  0.2252  1.1915
20274SOL    HW178432   2.360  13.797   9.286 -1.3725  0.6095  2.3295
20274SOL    HW278433   2.492  13.825   9.355  0.5028 -0.2958 -0.6989
20275SOL     OW78434   1.392   6.593   5.115  0.1594 -0.5092 -0.1804
20275SOL    HW178435   1.318   6.642   5.079  0.0958  0.3609  1.0509
20275SOL    HW278436   1.353   6.526   5.170  0.2679 -1.3164 -1.0673
20276SOL     OW78437   4.075   4.083   9.740  0.1062 -0.5541  0.5953
20276SOL    HW178438   3.980   4.092   9.734  0.2234  1.5087  1.0820
20276SOL    HW278439   4.104   4.081   9.649 -0.3216  0.3362  0.4184
20277SOL     OW78440  13.308   0.116   8.877 -0.0076 -0.4139  0.1584
20277SOL    HW178441  13.341   0.066   8.952 -1.3749 -1.0547  0.3657
20277SOL    HW278442  13.341   0.205   8.891  1.1307 -0.8826  0.6243
20278SOL     OW78443   0.513  11.505   2.746 -0.2544 -0.3970  0.0882
20278SOL    HW178444   0.529  11.449   2.671 -0.5563  1.2462 -1.2680
20278SOL    HW278445   0.573  11.578   2.735 -0.9052  0.3055  0.9666
20279SOL     OW78446   4.174  10.496   0.240 -0.4808  1.4810 -0.5517
20279SOL    HW178447   4.095  10.525   0.195  1.0491  1.8714 -3.1946
20279SOL    HW278448   4.235  10.569   0.231  0.1623  1.2585  1.5728
20280SOL     OW78449   4.826  11.023   4.285  0.5532 -0.3550 -0.0063
20280SOL    HW178450   4.851  10.973   4.207 -1.5512  1.6801 -2.1267
20280SOL    HW278451   4.747  10.980   4.317 -1.3335  1.5101 -1.9082
20281SOL     OW78452   9.546   4.441   1.026  0.0033  0.0251  0.0638
20281SOL    HW178453   9.493   4.521   1.034 -0.3594 -0.2081 -0.0111
20281SOL    HW278454   9.614   4.465   0.963 -0.1838  0.2347 -0.0645
20282SOL     OW78455   2.303   7.477   8.191  0.2274 -0.0099  0.4054
20282SOL    HW178456   2.211   7.450   8.200 -0.2440  1.3287 -0.1453
20282SOL    HW278457   2.342   7.460   8.277  0.2106 -3.1174 -0.0659
20283SOL     OW78458  10.602   7.811  12.536  0.7961  0.1670  0.6269
20283SOL    HW178459  10.641   7.724  12.539 -0.4089 -0.5809 -2.1393
20283SOL    HW278460  10.516   7.801  12.578 -0.2551 -0.6260 -1.5452
20284SOL     OW78461  12.523   4.896  13.441  0.0285 -0.0994 -0.2822
20284SOL    HW178462  12.435   4.858  13.437  0.6664 -1.6538 -0.0832
20284SOL    HW278463  12.525   4.939  13.527 -0.6961  0.4125 -0.5037
20285SOL     OW78464   0.643   8.501   3.800 -0.3081  0.0017  0.3631
20285SOL    HW178465   0.695   8.489   3.721 -0.5268  0.5558  0.1319
20285SOL    HW278466   0.603   8.587   3.790 -0.8644 -0.2033  0.7713
20286SOL     OW78467   9.300  10.331   9.843 -0.1152  1.0514 -0.0917
20286SOL    HW178468   9.224  10.334   9.784  0.1529 -1.5569 -0.6877
20286SOL    HW278469   9.365  10.388   9.802 -0.8051  1.1895 -1.0248
20287SOL     OW78470   8.355   7.350   4.396  0.5929  0.2667 -0.4846
20287SOL    HW178471   8.377   7.443   4.406 -1.1306  0.6568 -0.0393
20287SOL    HW278472   8.313   7.345   4.310 -2.0196  0.5168  0.6784
20288SOL     OW78473  10.474  11.639  12.254 -0.2202  0.1981  0.3665
20288SOL    HW178474  10.466  11.551  12.217 -0.0486  0.0240  0.7349
20288SOL    HW278475  10.458  11.627  12.347 -0.0160  0.5300  0.4447
20289SOL     OW78476   6.516   2.201  10.012 -0.3984  0.4108 -0.4543
20289SOL    HW178477   6.548   2.163   9.931  0.5407  1.8640 -0.8059
20289SOL    HW278478   6.596   2.225  10.061 -0.9434 -0.1780  0.7773
20290SOL     OW78479   4.726   3.350  13.323  0.1605 -0.5376  0.0548
20290SOL    HW178480   4.651   3.321  13.374 -0.5903  1.7520  0.3711
20290SOL    HW278481   4.695   3.351  13.233 -0.1825  0.3124  0.1741
20291SOL     OW78482  11.063  12.737   9.812  0.2484 -0.2760 -0.0729
20291SOL    HW178483  11.087  12.707   9.900  1.3273 -0.2079 -0.3326
20291SOL    HW278484  11.095  12.668   9.754 -1.1222 -0.6929 -0.3897
20292SOL     OW78485   9.582   0.517  11.491 -0.7649  0.4146 -0.1032
20292SOL    HW178486   9.542   0.570  11.422  0.2324  1.0105 -0.2545
20292SOL    HW278487   9.655   0.472  11.447 -0.8952 -0.1944  0.2857
20293SOL     OW78488  10.854  11.678  13.364  0.0713  0.4267  0.1953
20293SOL    HW178489  10.883  11.644  13.279 -1.1468  0.0560 -0.0949
20293SOL    HW278490  10.889  11.767  13.367  1.1043  0.0507 -0.1833
20294SOL     OW78491   1.493   0.785   6.678 -0.2768 -0.4426  0.1792
20294SOL    HW178492   1.483   0.705   6.729 -2.3937  0.5635  1.4859
20294SOL    HW278493   1.486   0.856   6.742  0.9576  0.8376 -1.0144
20295SOL     OW78494   1.822   9.589   6.925 -0.4385  0.2881 -0.3518
20295SOL    HW178495   1.842   9.511   6.873  1.6169 -0.2683  1.1494
20295SOL    HW278496   1.841   9.663   6.867  0.2446 -0.3227 -0.9091
20296SOL     OW78497   2.627   5.128   1.605 -0.1277  0.1384 -0.7606
20296SOL    HW178498   2.683   5.125   1.528  3.0198  1.1114  1.2783
20296SOL    HW278499   2.611   5.221   1.619 -0.5415 -0.0177 -0.1727
20297SOL     OW78500   8.917   0.621  10.330 -0.4385 -0.4270  0.2039
20297SOL    HW178501   8.952   0.705  10.359 -2.2560  0.6294 -0.4962
20297SOL    HW278502   8.902   0.572  10.411 -1.1659  0.6910  0.7713
20298SOL     OW78503   0.609  12.585   3.889  0.0299  0.5509 -0.2921
20298SOL    HW178504   0.669  12.511   3.887 -1.7033 -0.9973  1.1443
20298SOL    HW278505   0.627  12.630   3.971 -0.8586 -0.0613  0.2636
20299SOL     OW78506   9.714   7.879   3.040  0.2443 -0.3299 -0.1094
20299SOL    HW178507   9.714   7.884   3.136 -2.1038 -2.6888  0.1167
20299SOL    HW278508   9.775   7.809   3.019  1.1645  0.5418 -0.4164
20300SOL     OW78509   5.499  10.569  13.898  0.0403 -0.1758 -0.1117
20300SOL    HW178510   5.533  10.595  13.983  1.0970  2.0730 -1.1248
20300SOL    HW278511   5.576  10.540  13.849 -0.3490 -0.2423 -0.6964
20301SOL     OW78512  11.865   6.744   0.151 -0.1976 -0.3372 -0.1980
20301SOL    HW178513  11.899   6.731   0.062  1.4683 -2.0665  0.5981
20301SOL    HW278514  11.885   6.661   0.195 -1.9927  0.0830  1.4915
20302SOL     OW78515   5.285  11.736   0.491 -0.5389  0.3277 -0.3415
20302SOL    HW178516   5.261  11.647   0.518 -3.4060  0.8242 -0.9417
20302SOL    HW278517   5.274  11.736   0.396  0.0988  1.1580 -0.4217
20303SOL     OW78518   5.114   0.623   2.122  0.4510 -0.5071  0.2869
20303SOL    HW178519   5.158   0.582   2.048  0.6641  1.7423 -0.9210
20303SOL    HW278520   5.026   0.586   2.121  0.5683 -0.7963 -0.8438
20304SOL     OW78521   4.429  13.942   5.093  0.0070 -0.5390 -0.2424
20304SOL    HW178522   4.447  13.941   5.187 -0.9664 -0.5940 -0.0524
20304SOL    HW278523   4.506  13.900   5.054  0.8196  0.2583  0.4501
20305SOL     OW78524  12.400   7.862   4.816 -0.0492 -0.3365 -0.3874
20305SOL    HW178525  12.419   7.930   4.751 -0.2838  0.6287  0.5155
20305SOL    HW278526  12.465   7.877   4.885 -0.2827 -0.8643 -0.0508
20306SOL     OW78527  12.736   8.214   0.010 -0.1568  0.0630 -0.1717
20306SOL    HW178528  12.775   8.133   0.043  0.5800 -0.1782 -1.5526
20306SOL    HW278529  12.811   8.272  -0.005 -0.3929 -0.0369 -1.8965
20307SOL     OW78530  11.589   3.627   9.931 -0.5285 -0.0095  0.5855
20307SOL    HW178531  11.564   3.537   9.910 -0.0969  0.2078 -0.9738
20307SOL    HW278532  11.607   3.626  10.025 -2.2857 -1.1231  0.9478
20308SOL     OW78533  13.126   4.082  12.681 -0.2476 -0.4176  0.1405
20308SOL    HW178534  13.113   4.078  12.586 -0.6159 -0.0454  0.1743
20308SOL    HW278535  13.197   4.146  12.692  2.3953 -3.0538 -0.1034
20309SOL     OW78536   0.877  13.360   1.185 -0.4065  0.4199 -0.0676
20309SOL    HW178537   0.921  13.343   1.102 -1.9547  0.0427 -0.8578
20309SOL    HW278538   0.931  13.426   1.228  0.9540 -0.1037 -0.9224
20310SOL     OW78539  12.922   1.400   1.863 -0.3497 -0.3269 -0.2698
20310SOL    HW178540  13.015   1.416   1.853 -0.3805  0.8299  0.9039
20310SOL    HW278541  12.909   1.397   1.958 -1.5883  0.1104 -0.4105
20311SOL     OW78542   6.723   9.392   8.347  0.1471  0.0452 -0.2337
20311SOL    HW178543   6.772   9.420   8.270  0.6553  1.1049  0.4475
20311SOL    HW278544   6.725   9.468   8.405  2.3071 -1.6221  2.0758
20312SOL     OW78545   4.073   5.006   7.998 -0.2028  0.4431  0.0352
20312SOL    HW178546   4.021   5.051   8.065  0.0677  0.1449  0.4521
20312SOL    HW278547   4.047   4.914   8.006  0.5552  0.2552  0.4042
20313SOL     OW78548   4.047   6.720   4.969 -0.4273  0.3181 -0.1952
20313SOL    HW178549   4.137   6.701   4.943 -0.2411 -0.4904  0.9831
20313SOL    HW278550   4.050   6.728   5.064 -1.3129  1.9563 -0.2649
20314SOL     OW78551   0.026  13.433   5.908 -0.3411 -0.4708 -0.5586
20314SOL    HW178552   0.027  13.392   5.821  1.0796  1.1385 -1.3487
20314SOL    HW278553   0.071  13.370   5.964  0.7380 -0.5599 -1.4816
20315SOL     OW78554  12.572  13.980   8.285 -0.3300  0.7049 -0.0401
20315SOL    HW178555  12.665  13.961   8.298 -0.5293  0.5717  1.3305
20315SOL    HW278556  12.526  13.911   8.332 -1.1976 -0.2544 -2.1399
20316SOL     OW78557   6.390   3.441  11.688  0.1692  0.0953  0.4603
20316SOL    HW178558   6.309   3.485  11.665  0.3495  0.7825  1.0963
20316SOL    HW278559   6.456   3.481  11.632  0.2577  0.3511  0.7396
20317SOL     OW78560   4.426   2.070   9.195  0.2865 -0.2444 -0.0714
20317SOL    HW178561   4.458   2.084   9.284  2.1140 -0.8837 -0.5863
20317SOL    HW278562   4.441   2.154   9.151  0.7716 -0.3666 -0.1520
20318SOL     OW78563   5.381   4.952  11.056  0.6069  0.1186 -0.4363
20318SOL    HW178564   5.458   4.950  11.113  0.1865  0.8647  0.1821
20318SOL    HW278565   5.417   4.944  10.967  1.4541  0.9913 -0.1946
20319SOL     OW78566   6.617   9.580  12.440 -0.1066 -0.1685  0.3052
20319SOL    HW178567   6.600   9.645  12.372 -1.3997  0.8228  1.4992
20319SOL    HW278568   6.546   9.517  12.432  0.3968 -0.7079  0.0068
20320SOL     OW78569   8.366   2.677   8.786 -0.2316 -0.7921  0.0918
20320SOL    HW178570   8.388   2.743   8.720  1.0666 -2.1141 -0.8735
20320SOL    HW278571   8.446   2.669   8.838 -0.0557 -2.1994 -0.3586
20321SOL     OW78572  12.724   8.387   2.266  0.4236  0.0263  0.4182
20321SOL    HW178573  12.652   8.353   2.319  1.5355 -0.6869  1.5404
20321SOL    HW278574  12.781   8.433   2.328  1.1851  0.1549 -0.3472
20322SOL     OW78575   8.852   4.655  12.482  0.1664  0.1868  0.1707
20322SOL    HW178576   8.769   4.664  12.436  0.7526 -0.5152 -1.0712
20322SOL    HW278577   8.854   4.564  12.510  1.3117 -0.3521 -1.4826
20323SOL     OW78578  12.139  10.099   7.249 -0.6987  0.5037 -0.3965
20323SOL    HW178579  12.122  10.189   7.223  0.1927  0.2744 -1.9137
20323SOL    HW278580  12.211  10.071   7.192 -1.5738 -1.4606 -0.6218
20324SOL     OW78581   4.366  11.002   3.527  1.0319  0.1740 -0.0556
20324SOL    HW178582   4.384  10.945   3.602 -1.9309  0.2911  0.8449
20324SOL    HW278583   4.410  10.959   3.454  2.2433 -1.0701  1.3288
20325SOL     OW78584   8.483  13.349  10.851 -0.3905 -0.6964 -0.5695
20325SOL    HW178585   8.529  13.339  10.935  0.6076 -0.3812 -1.0676
20325SOL    HW278586   8.552  13.360  10.786 -1.1648 -0.0863 -1.3264
20326SOL     OW78587   7.285   2.537   0.062  0.0792 -1.2675  0.1645
20326SOL    HW178588   7.281   2.462   0.003  0.5228  0.3127 -2.0196
20326SOL    HW278589   7.216   2.595   0.031  1.5734  0.4562 -0.1379
20327SOL     OW78590   5.831   3.698   6.226  0.4196  0.2979 -0.2258
20327SOL    HW178591   5.832   3.620   6.281  1.3880  1.5503  1.6697
20327SOL    HW278592   5.739   3.723   6.221  0.4147  0.9906  2.1868
20328SOL     OW78593   9.984   6.026   2.425 -0.1152 -0.7280 -0.1559
20328SOL    HW178594   9.978   5.966   2.350 -0.2511 -0.7392 -0.1359
20328SOL    HW278595   9.896   6.027   2.461 -0.5306  0.7724 -1.1380
20329SOL     OW78596  12.909   3.216   4.300  0.5746  0.0297  0.9210
20329SOL    HW178597  12.846   3.177   4.240 -0.3737  1.9863  0.5396
20329SOL    HW278598  12.892   3.173   4.384  1.1395 -1.9273  0.0755
20330SOL     OW78599   9.700  13.224   9.810  0.2301 -0.0392  0.1904
20330SOL    HW178600   9.754  13.148   9.834 -0.2815 -0.9452 -1.3896
20330SOL    HW278601   9.637  13.232   9.881 -0.3702 -1.7722 -0.1136
20331SOL     OW78602  10.213   6.208   0.543  0.7420 -0.2268 -0.0207
20331SOL    HW178603  10.239   6.118   0.563 -0.6830 -0.8510 -0.8696
20331SOL    HW278604  10.199   6.209   0.448 -1.3079  0.3168  0.2445
20332SOL     OW78605  12.180   4.409   2.123  0.4479  0.2500  0.0840
20332SOL    HW178606  12.169   4.329   2.175  0.3752  0.7805  0.9046
20332SOL    HW278607  12.250   4.457   2.167 -0.6889  1.4500  0.6479
20333SOL     OW78608  12.104   0.568   4.539 -0.2174  0.8825  0.1027
20333SOL    HW178609  12.129   0.603   4.454  0.1146  0.8982  0.2080
20333SOL    HW278610  12.081   0.477   4.522  0.3812  0.7357  0.0935
20334SOL     OW78611  13.009   5.789   5.023 -0.6031 -0.3225  0.2761
20334SOL    HW178612  13.093   5.818   4.988 -0.1286  0.3162  1.8302
20334SOL    HW278613  12.976   5.865   5.072 -1.2786 -1.1073  1.0785
20335SOL     OW78614   1.272   0.471   3.990 -0.3811  0.1060  0.0496
20335SOL    HW178615   1.341   0.533   3.968  0.0360 -0.2158  0.4130
20335SOL    HW278616   1.297   0.390   3.946 -1.9240  0.6832 -2.0146
20336SOL     OW78617  10.127   8.304   4.757 -0.1788  0.2552 -0.2576
20336SOL    HW178618  10.145   8.371   4.823 -0.7780  0.5870 -0.4209
20336SOL    HW278619  10.049   8.336   4.712 -0.5228 -0.5977 -0.2814
20337SOL     OW78620   6.917  11.190   6.171 -0.5242 -0.6383 -0.2700
20337SOL    HW178621   6.875  11.232   6.246 -0.0158 -1.1114  0.2924
20337SOL    HW278622   6.954  11.263   6.120 -0.5998 -0.3308  0.1086
20338SOL     OW78623   8.750   3.295  13.008 -0.3024  0.3287  0.2010
20338SOL    HW178624   8.748   3.203  13.034  0.5013  0.5048  0.9717
20338SOL    HW278625   8.667   3.331  13.039 -0.8298 -0.2365 -0.5319
20339SOL     OW78626   5.323   3.596  10.295 -0.3016  0.4926  0.0396
20339SOL    HW178627   5.392   3.661  10.286  0.3435  0.2002  2.1808
20339SOL    HW278628   5.262   3.614  10.223  0.6299  2.4732 -0.3025
20340SOL     OW78629  12.380   0.500  11.363  0.1131 -0.8642  0.2603
20340SOL    HW178630  12.337   0.517  11.279  1.3080  0.5759 -0.1157
20340SOL    HW278631  12.315   0.454  11.415 -1.0942 -0.6797 -1.0303
20341SOL     OW78632  12.936   6.363   0.373 -0.3155  0.3384  0.0218
20341SOL    HW178633  12.918   6.296   0.439 -0.6223 -1.7699 -2.0689
20341SOL    HW278634  13.021   6.338   0.337  0.2830  1.9980  0.1854
20342SOL     OW78635   7.661  12.545   5.120  0.1101 -0.4785  0.6795
20342SOL    HW178636   7.571  12.511   5.123 -1.2570  2.7532  1.0895
20342SOL    HW278637   7.654  12.631   5.161  3.4229 -0.0612  0.5794
20343SOL     OW78638   4.873   0.578  11.512 -0.3572  0.2021 -0.0294
20343SOL    HW178639   4.967   0.586  11.529 -0.0554 -0.9725 -1.0356
20343SOL    HW278640   4.832   0.617  11.589  0.9427  1.6972 -0.0476
20344SOL     OW78641  10.887  13.035   3.815  0.0132 -0.1161 -0.1432
20344SOL    HW178642  10.935  13.040   3.732 -0.2257  1.2621 -0.2268
20344SOL    HW278643  10.807  12.986   3.793  0.5573 -0.9176 -0.3960
20345SOL     OW78644   5.439   5.352   1.441 -0.0842 -0.2233  0.8030
20345SOL    HW178645   5.519   5.365   1.389 -0.1466  1.6400  1.0973
20345SOL    HW278646   5.411   5.441   1.463 -2.2447 -0.8432  0.7124
20346SOL     OW78647   8.425   1.539   9.429 -0.2215  0.2110 -0.3685
20346SOL    HW178648   8.370   1.466   9.401 -0.7170  0.5186 -0.2079
20346SOL    HW278649   8.514   1.506   9.421 -0.4713 -1.3639  2.1858
20347SOL     OW78650   6.432   2.863   4.695  0.0870  0.1087  0.1643
20347SOL    HW178651   6.477   2.779   4.681 -0.4363 -0.0226 -0.8567
20347SOL    HW278652   6.387   2.852   4.778  0.1209 -0.5872  0.1005
20348SOL     OW78653  11.202   6.481   0.722 -0.0709  0.5832 -0.1147
20348SOL    HW178654  11.128   6.536   0.700 -0.9635 -0.8601 -0.8698
20348SOL    HW278655  11.174   6.392   0.700  0.9196 -0.3370  1.9933
20349SOL     OW78656  13.067   2.796   7.932  0.0980 -0.3987  0.6390
20349SOL    HW178657  13.116   2.724   7.893  1.2910  0.7695 -0.0613
20349SOL    HW278658  13.107   2.809   8.018 -0.5893 -0.9970  1.0759
20350SOL     OW78659   2.657   7.415   3.147  0.1555 -0.2593 -0.5592
20350SOL    HW178660   2.634   7.506   3.165  2.2686  0.7362 -2.3602
20350SOL    HW278661   2.751   7.410   3.163 -0.0735 -2.4420  0.4883
20351SOL     OW78662   2.378   0.614   5.927 -0.0753 -0.2916  0.5251
20351SOL    HW178663   2.411   0.525   5.914 -4.1982 -2.0597  0.8110
20351SOL    HW278664   2.351   0.643   5.840 -1.5027 -0.6155  0.8316
20352SOL     OW78665   3.878  10.418   2.858  0.0973  0.0377 -0.0697
20352SOL    HW178666   3.890  10.401   2.765 -0.0632  1.0239 -0.2864
20352SOL    HW278667   3.967  10.435   2.891  0.2595 -1.1655  0.1519
20353SOL     OW78668   0.274   4.604   8.655 -0.4123 -0.0172  0.4765
20353SOL    HW178669   0.342   4.539   8.644 -0.0785  0.3084  0.5867
20353SOL    HW278670   0.192   4.555   8.652 -0.1240 -0.5857  1.6891
20354SOL     OW78671   7.480  14.068   5.436 -0.0110 -0.1872 -0.4834
20354SOL    HW178672   7.504  13.994   5.493 -0.7611 -1.3779 -1.6410
20354SOL    HW278673   7.453  14.026   5.354 -1.8331  1.3000 -0.7023
20355SOL     OW78674   8.069   3.180   6.109 -0.4826  0.3337  0.1765
20355SOL    HW178675   8.039   3.121   6.040  1.7001  0.0278 -0.5966
20355SOL    HW278676   8.114   3.123   6.171 -0.7802  0.8521  0.8757
20356SOL     OW78677   6.061   6.606   1.772 -0.0237  0.0123  0.1740
20356SOL    HW178678   6.092   6.571   1.688  0.6014 -1.4647  0.9794
20356SOL    HW278679   5.969   6.629   1.756 -0.0218 -0.6132 -0.8170
20357SOL     OW78680   5.216   2.469   8.453  0.2214 -0.6958 -0.2103
20357SOL    HW178681   5.199   2.553   8.495 -0.4065 -0.7538 -0.3402
20357SOL    HW278682   5.308   2.451   8.473  0.7653  0.6626 -1.3401
20358SOL     OW78683   3.683   3.725   8.437  0.2246  0.1671  0.1210
20358SOL    HW178684   3.595   3.755   8.461  0.2867  0.9513 -0.5880
20358SOL    HW278685   3.702   3.770   8.355  2.2327  1.8699  1.4334
20359SOL     OW78686   1.029  13.476   6.929 -0.0220  0.2083 -0.4357
20359SOL    HW178687   0.937  13.451   6.928  0.0969 -0.4026 -2.9381
20359SOL    HW278688   1.071  13.410   6.985 -1.2212  1.3761  2.0043
20360SOL     OW78689   3.140   0.231   8.343 -0.0729 -0.0917 -0.4399
20360SOL    HW178690   3.206   0.178   8.388 -1.2227  0.0709  1.5401
20360SOL    HW278691   3.057   0.189   8.364 -0.7943  1.0534 -0.9357
20361SOL     OW78692   2.864  10.706   7.464  0.8176 -0.1654 -0.4758
20361SOL    HW178693   2.912  10.788   7.450 -1.2979  1.1611 -0.4882
20361SOL    HW278694   2.772  10.734   7.473  0.2666 -2.3059  1.6810
20362SOL     OW78695  12.677   3.434  10.315 -0.1909 -0.4620  0.2266
20362SOL    HW178696  12.635   3.518  10.336  3.2139  1.8739 -1.3545
20362SOL    HW278697  12.615   3.390  10.257 -1.9219  1.1100  0.7740
20363SOL     OW78698   8.579  10.068   4.597 -0.4482  0.0632  0.2151
20363SOL    HW178699   8.601  10.093   4.508 -1.8387  0.1839 -0.1214
20363SOL    HW278700   8.614   9.979   4.606 -0.4348 -0.0126 -0.5055
20364SOL     OW78701   5.915   7.454   5.779  0.0485  0.1711  0.4706
20364SOL    HW178702   5.832   7.461   5.827  0.1822  0.1252  0.7141
20364SOL    HW278703   5.893   7.408   5.698 -0.0762 -0.2687  0.7500
20365SOL     OW78704  12.965  13.288  13.429 -0.3688 -0.2394  0.6327
20365SOL    HW178705  13.055  13.302  13.401 -0.3683  0.8917  1.1743
20365SOL    HW278706  12.922  13.373  13.417 -1.8493 -1.1665 -1.2905
20366SOL     OW78707  10.027  13.979   9.485  0.0096 -0.2291 -0.1016
20366SOL    HW178708  10.113  14.020   9.486 -0.0936 -0.0200  0.3540
20366SOL    HW278709  10.002  13.972   9.577  0.1187 -1.5339 -0.1596
20367SOL     OW78710   8.402   8.940   4.882  0.1268 -0.6131  0.1865
20367SOL    HW178711   8.403   9.033   4.858 -0.8203 -0.2043  1.5922
20367SOL    HW278712   8.494   8.919   4.896  0.2430  0.6130  1.5345
20368SOL     OW78713   8.177   1.927   0.125  0.4282 -0.0604  0.2422
20368SOL    HW178714   8.185   1.833   0.140  2.0507 -0.3502 -1.8485
20368SOL    HW278715   8.138   1.934   0.037  2.3199  1.1121 -0.5773
20369SOL     OW78716   6.551  11.683   4.920  0.5129  0.2075  0.1460
20369SOL    HW178717   6.542  11.761   4.866  0.1507  0.5228  0.6461
20369SOL    HW278718   6.548  11.610   4.858 -0.2991  0.5420 -0.2236
20370SOL     OW78719   1.907   5.193   2.056  0.3392 -0.3661  0.1262
20370SOL    HW178720   2.002   5.194   2.042  0.4252 -0.9609  0.6019
20370SOL    HW278721   1.878   5.281   2.035  0.9121 -0.3474 -0.6248
20371SOL     OW78722   4.327   1.052   8.231 -0.2187  0.2502  0.2686
20371SOL    HW178723   4.343   0.966   8.271 -1.0922  0.5473  1.3159
20371SOL    HW278724   4.240   1.077   8.263 -0.7512  0.7343 -1.4558
20372SOL     OW78725   1.781   3.287   7.436  0.9215  0.3412 -0.0242
20372SOL    HW178726   1.852   3.309   7.495  1.5861  1.5365 -1.1960
20372SOL    HW278727   1.816   3.217   7.380 -0.3757 -2.2095  2.1654
20373SOL     OW78728   1.959   9.497   8.765 -0.4026  0.3544 -0.0315
20373SOL    HW178729   1.971   9.403   8.753 -1.3497  0.0747  1.0077
20373SOL    HW278730   2.048   9.532   8.770 -0.0347 -0.5534  0.0666
20374SOL     OW78731   1.342   0.961   2.888 -0.3566  0.1542 -0.2009
20374SOL    HW178732   1.354   0.882   2.941 -1.3192 -0.8652 -1.4416
20374SOL    HW278733   1.404   0.951   2.817  0.1888  1.0037  0.1447
20375SOL     OW78734   6.440  11.620   0.738  0.1715 -0.7682  0.6909
20375SOL    HW178735   6.462  11.614   0.645 -0.7554 -0.6134  0.4532
20375SOL    HW278736   6.516  11.584   0.783  0.9241 -0.1803 -0.0928
20376SOL     OW78737   9.857  12.321   5.476 -0.2016 -0.1892 -0.5280
20376SOL    HW178738   9.883  12.232   5.453  0.0800  0.0550 -1.1706
20376SOL    HW278739   9.914  12.377   5.424 -1.4659  0.3673 -1.3486
20377SOL     OW78740   4.326   9.438  12.700 -0.3341 -0.0033 -0.3449
20377SOL    HW178741   4.300   9.347  12.719  2.7918 -0.9346  0.0601
20377SOL    HW278742   4.334   9.479  12.786 -1.3689  0.5672 -0.5115
20378SOL     OW78743   6.076   9.932   3.753 -0.4454 -0.6299  0.6488
20378SOL    HW178744   6.103   9.852   3.799  1.9575  0.0537  0.5579
20378SOL    HW278745   6.016   9.975   3.814 -0.6030 -1.7747  1.3341
20379SOL     OW78746   4.016  10.887  13.336  0.4529 -0.1065 -0.0669
20379SOL    HW178747   4.044  10.845  13.255 -0.0387  0.4444 -0.5345
20379SOL    HW278748   4.032  10.822  13.404  0.8199 -0.5955 -0.6144
20380SOL     OW78749   6.147  12.876   0.749 -0.0697 -0.8145 -0.3144
20380SOL    HW178750   6.085  12.826   0.801  0.7918 -1.2031  0.3691
20380SOL    HW278751   6.096  12.908   0.674 -2.0238  1.9676  2.0015
20381SOL     OW78752   4.965   4.894  13.680 -0.3454 -0.1691 -0.4840
20381SOL    HW178753   4.957   4.878  13.586 -0.0565  1.0767 -0.7366
20381SOL    HW278754   4.923   4.979  13.693  2.5500  1.3251 -0.0844
20382SOL     OW78755   1.730  11.154   4.416  0.6824 -0.3427  0.3238
20382SOL    HW178756   1.803  11.206   4.449 -0.0214  1.3771 -0.7306
20382SOL    HW278757   1.751  11.139   4.324 -0.6890  0.9707 -0.2398
20383SOL     OW78758   6.591   1.368   8.606  0.1064  0.0405  0.0125
20383SOL    HW178759   6.666   1.352   8.549  1.4455  0.6937  1.5081
20383SOL    HW278760   6.627   1.365   8.695 -1.8362 -0.5964  0.8423
20384SOL     OW78761   1.459   1.834   4.707  0.1553 -0.1149 -0.0328
20384SOL    HW178762   1.436   1.906   4.648 -0.4305 -0.0873  0.2138
20384SOL    HW278763   1.554   1.837   4.715  0.3032 -0.4977 -1.4479
20385SOL     OW78764   0.681  13.773   4.336  0.0114 -0.1725 -0.0490
20385SOL    HW178765   0.646  13.693   4.296 -0.0277  0.1516 -0.6764
20385SOL    HW278766   0.754  13.798   4.279  0.3701 -0.0636  0.4564
20386SOL     OW78767   2.704   9.882   8.995 -0.2437 -0.3643 -0.2275
20386SOL    HW178768   2.669   9.839   8.917  0.8803 -0.0146 -0.9380
20386SOL    HW278769   2.685   9.820   9.066  0.3072 -1.5131 -1.0487
20387SOL     OW78770   7.894   2.810   4.534 -0.1780 -0.4222 -0.4561
20387SOL    HW178771   7.902   2.738   4.472 -0.1201 -0.5071 -0.3487
20387SOL    HW278772   7.806   2.802   4.569  0.1709 -1.0391  0.3028
20388SOL     OW78773   5.379   3.526  10.681  0.8942  0.5646  0.2784
20388SOL    HW178774   5.339   3.538  10.595  0.5802 -0.5215  0.2499
20388SOL    HW278775   5.445   3.458  10.667  0.7846  0.3227  0.9093
20389SOL     OW78776   3.389  11.795  10.199  0.1960  0.5005 -0.8349
20389SOL    HW178777   3.440  11.871  10.171 -0.4249  1.2109 -0.0961
20389SOL    HW278778   3.298  11.824  10.191 -0.0270  0.5804  1.4334
20390SOL     OW78779  14.019   3.832  13.698  0.2444  0.7994 -0.0507
20390SOL    HW178780  14.070   3.906  13.732 -0.6003  0.6246  1.6890
20390SOL    HW278781  14.085   3.765  13.679  0.9410  1.6846 -0.9043
20391SOL     OW78782   5.942   1.206   5.872 -0.3228 -0.1930  0.2540
20391SOL    HW178783   6.013   1.165   5.921 -0.6308 -1.0511  0.0004
20391SOL    HW278784   5.966   1.195   5.780  1.5608  3.6681  0.0743
20392SOL     OW78785   0.778  12.769  13.600  0.1055  0.7177 -0.3438
20392SOL    HW178786   0.836  12.704  13.560  0.3740  1.5074 -1.2753
20392SOL    HW278787   0.834  12.818  13.659 -0.5600 -1.3098  2.1610
20393SOL     OW78788   6.517  12.325  12.356  0.2730  0.2631  0.0945
20393SOL    HW178789   6.447  12.305  12.294  0.3577  0.9617 -0.2464
20393SOL    HW278790   6.474  12.332  12.441  0.3974 -2.3998  0.4539
20394SOL     OW78791   7.220  14.055   5.719  0.4138  0.1879 -0.1781
20394SOL    HW178792   7.304  14.100   5.729 -1.4319  3.7652  1.0068
20394SOL    HW278793   7.211  14.003   5.799  1.2245  0.2021 -0.0648
20395SOL     OW78794   3.229   1.600   0.289 -0.0639  0.3054  0.3641
20395SOL    HW178795   3.237   1.615   0.195 -0.1257  0.6009  0.4027
20395SOL    HW278796   3.304   1.647   0.326  0.5162 -0.6208  0.3890
20396SOL     OW78797   1.304   6.211   8.976 -0.2628  0.2217  0.0866
20396SOL    HW178798   1.313   6.206   8.881 -0.1505  1.9798 -0.0177
20396SOL    HW278799   1.327   6.123   9.007  2.1310  0.2608 -1.3361
20397SOL     OW78800   2.941   3.462   7.009 -0.3174 -0.2874 -0.0124
20397SOL    HW178801   2.906   3.404   7.076  0.4922  0.3310  0.9595
20397SOL    HW278802   2.898   3.546   7.025 -0.9328 -0.4073 -0.9557
20398SOL     OW78803   0.480  11.067   6.762  0.2071  0.4152  0.4178
20398SOL    HW178804   0.576  11.075   6.769  0.3934 -1.9771  1.4644
20398SOL    HW278805   0.457  10.999   6.825 -2.1097  0.3694 -0.3907
20399SOL     OW78806   8.664   5.724   6.903 -0.1892  0.4517  0.1086
20399SOL    HW178807   8.593   5.746   6.843  0.7230 -0.0241 -1.2057
20399SOL    HW278808   8.743   5.752   6.857  0.4878  1.0804  1.5847
20400SOL     OW78809  10.253  13.077   0.298 -0.1533 -0.0997  0.0112
20400SOL    HW178810  10.306  12.997   0.302  0.1640  0.0785 -0.5874
20400SOL    HW278811  10.177  13.052   0.245 -0.1547 -0.0623 -0.0045
20401SOL     OW78812  13.300   9.710   7.232  0.5352  0.2264  0.0762
20401SOL    HW178813  13.301   9.619   7.260  3.4030  0.2052  0.2063
20401SOL    HW278814  13.251   9.709   7.150 -1.1869 -1.0483  1.0628
20402SOL     OW78815   1.161   0.752   1.296 -0.2434 -0.3844 -0.2821
20402SOL    HW178816   1.232   0.816   1.293 -1.0718  0.6374  0.7774
20402SOL    HW278817   1.117   0.769   1.379 -1.4526 -1.3047 -0.6990
20403SOL     OW78818   0.039   6.176  12.958  0.3159  0.3554  0.2644
20403SOL    HW178819   0.048   6.092  13.001  1.8187  0.4773  0.2540
20403SOL    HW278820   0.007   6.155  12.870 -1.8689  0.0392  1.0727
20404SOL     OW78821  12.981   3.836  12.850  0.3182 -0.3875 -0.0245
20404SOL    HW178822  12.966   3.854  12.942  2.9070  0.3794  0.3309
20404SOL    HW278823  12.957   3.917  12.805 -0.6421 -0.6534 -0.0020
20405SOL     OW78824   1.892  10.806   2.007  0.1764 -0.2587 -0.4516
20405SOL    HW178825   1.818  10.795   1.947 -0.4549  1.0430  0.0708
20405SOL    HW278826   1.904  10.900   2.015  0.6610 -0.4128  0.9755
20406SOL     OW78827   2.128   4.651  12.305  0.5865 -0.1587  0.7877
20406SOL    HW178828   2.173   4.703  12.238  0.5247 -1.8946 -0.6858
20406SOL    HW278829   2.198   4.607  12.352  0.5491 -0.5661  0.4637
20407SOL     OW78830  10.331  11.999   0.183 -0.4538 -0.0977 -0.0236
20407SOL    HW178831  10.264  11.975   0.120 -0.3459 -0.9404  0.1690
20407SOL    HW278832  10.317  11.940   0.257  1.3877 -1.3029 -0.5635
20408SOL     OW78833  10.358   9.088   2.863 -0.1813 -0.1764 -0.0380
20408SOL    HW178834  10.284   9.048   2.908 -0.1826 -0.1945 -0.0561
20408SOL    HW278835  10.326   9.173   2.834 -0.4142 -0.4750 -0.6682
20409SOL     OW78836  13.536   7.312  11.863 -0.1342 -0.3778  0.2207
20409SOL    HW178837  13.460   7.284  11.914  0.0666  2.9271  2.6308
20409SOL    HW278838  13.612   7.290  11.918  0.4558 -0.8575 -0.7524
20410SOL     OW78839   9.570  11.711  10.671 -0.0476  0.1940  0.5319
20410SOL    HW178840   9.583  11.719  10.765  0.7991  0.8945  0.3711
20410SOL    HW278841   9.484  11.669  10.662  0.9820 -2.3491  1.6362
20411SOL     OW78842   0.356   0.889   0.496 -0.8173 -0.2815 -0.2643
20411SOL    HW178843   0.280   0.832   0.481 -0.0520 -1.6675  0.8340
20411SOL    HW278844   0.404   0.845   0.566  0.5654  1.0107 -0.3735
20412SOL     OW78845  11.262  13.467   2.647  0.1409 -0.6202 -0.0613
20412SOL    HW178846  11.192  13.512   2.693 -0.1929 -2.1148  0.9748
20412SOL    HW278847  11.339  13.524   2.657 -0.8882  1.0587 -1.2596
20413SOL     OW78848   1.611   0.520   6.242  0.3261  0.0598  0.1057
20413SOL    HW178849   1.643   0.446   6.191 -1.3115 -0.0308 -0.8412
20413SOL    HW278850   1.630   0.497   6.333  3.1986  0.1779 -0.3541
20414SOL     OW78851   0.962   0.231  10.132 -0.3054  0.1164 -0.1108
20414SOL    HW178852   0.870   0.224  10.106  0.2693  1.6903 -3.1445
20414SOL    HW278853   1.008   0.254  10.050  2.7678 -0.3862  1.3176
20415SOL     OW78854   7.722  12.308   7.836 -0.2967  0.0859 -0.2629
20415SOL    HW178855   7.709  12.324   7.930 -0.7096 -4.1253  0.6216
20415SOL    HW278856   7.817  12.307   7.825 -0.2311  0.0034  0.2644
20416SOL     OW78857   5.291   8.300   3.042 -0.4895  0.0890  0.2314
20416SOL    HW178858   5.234   8.248   2.986 -0.4391  2.2386 -1.9892
20416SOL    HW278859   5.237   8.375   3.069  0.9806  1.8382 -1.4046
20417SOL     OW78860  13.025   0.950   8.671  0.5112 -0.0222  0.0965
20417SOL    HW178861  13.084   1.023   8.688  2.2978 -1.6331  1.2244
20417SOL    HW278862  13.058   0.911   8.589  0.0840 -0.0398 -0.0671
20418SOL     OW78863   2.270   7.281   8.895  0.0274 -0.0039  0.5978
20418SOL    HW178864   2.227   7.203   8.930 -1.3016 -0.4538 -1.8003
20418SOL    HW278865   2.207   7.316   8.832  1.2613  2.1244  0.4582
20419SOL     OW78866  12.051   5.517   7.330  0.5968 -0.3211 -0.8328
20419SOL    HW178867  12.122   5.454   7.325  1.1785  0.1823  0.6421
20419SOL    HW278868  12.027   5.520   7.423  1.8904  2.9804 -0.4486
20420SOL     OW78869   3.287   2.936  10.700  0.3278 -0.4298 -0.2152
20420SOL    HW178870   3.342   2.983  10.763  0.8392  2.1820 -2.3945
20420SOL    HW278871   3.198   2.965  10.719  0.4089 -0.1190 -0.3021
20421SOL     OW78872   6.895   5.471  11.719  0.4891  0.4086 -0.7157
20421SOL    HW178873   6.868   5.414  11.647  0.3570  0.4937 -0.7338
20421SOL    HW278874   6.932   5.548  11.677  0.5229  0.4056 -0.6916
20422SOL     OW78875   6.656  12.363   1.512  0.2031 -0.2993  0.6388
20422SOL    HW178876   6.707  12.420   1.454  0.4256 -0.2685  0.8610
20422SOL    HW278877   6.579  12.415   1.536 -0.1810 -0.5253 -0.0887
20423SOL     OW78878  14.048  11.419  13.311 -0.1975  0.0290  0.0932
20423SOL    HW178879  14.092  11.450  13.390  0.1918 -1.9307  0.6788
20423SOL    HW278880  13.960  11.397  13.340 -0.5975  0.8874 -0.4096
20424SOL     OW78881   7.374  13.024   9.037  0.0676 -0.2656  0.3380
20424SOL    HW178882   7.346  12.958   9.100  0.9835  0.2403  1.3041
20424SOL    HW278883   7.463  13.047   9.063  0.3026  0.3044 -0.8631
20425SOL     OW78884   2.398   9.607   3.196  0.2538  0.0318  0.6195
20425SOL    HW178885   2.360   9.567   3.274  1.0220  0.4924  1.2439
20425SOL    HW278886   2.329   9.601   3.130 -0.0328 -1.3226  1.0135
20426SOL     OW78887  11.243   2.498   0.122 -0.1470  0.1365 -0.2522
20426SOL    HW178888  11.192   2.550   0.185 -0.2876 -0.0537 -0.2084
20426SOL    HW278889  11.197   2.509   0.039 -0.7750 -0.7492 -0.0346
20427SOL     OW78890   4.535   6.130   7.377  0.4978 -0.0002 -0.1914
20427SOL    HW178891   4.628   6.149   7.391  1.1254 -2.4190 -0.6133
20427SOL    HW278892   4.534   6.071   7.302 -1.5430  1.0153 -1.0609
20428SOL     OW78893   2.420   9.305  11.543  0.0125  0.5249  0.5659
20428SOL    HW178894   2.353   9.324  11.477 -1.2880 -0.2434  1.6331
20428SOL    HW278895   2.395   9.358  11.618  0.3429 -0.1196  1.1374
20429SOL     OW78896   1.322  13.243   0.950  0.0777 -0.1362  0.6686
20429SOL    HW178897   1.380  13.317   0.935  0.1846 -0.4119 -0.3698
20429SOL    HW278898   1.237  13.271   0.917  0.4901 -1.0240 -1.3004
20430SOL     OW78899   4.375   6.788  13.495 -0.3125 -0.1088  0.4877
20430SOL    HW178900   4.464   6.801  13.528 -0.7733  1.2739  1.3063
20430SOL    HW278901   4.358   6.695  13.508  0.5122 -0.1220  1.6969
20431SOL     OW78902   3.838   0.389  13.925  0.3441  0.9689 -0.1129
20431SOL    HW178903   3.893   0.317  13.894 -1.5542 -0.3494 -0.6804
20431SOL    HW278904   3.874   0.413  14.010 -0.5623 -2.7068  1.5205
20432SOL     OW78905   5.721  13.219   7.297  0.5186  0.3668  0.2253
20432SOL    HW178906   5.689  13.168   7.222  0.3980  0.3353  0.2977
20432SOL    HW278907   5.673  13.183   7.372  2.8086 -1.6862  0.8256
20433SOL     OW78908   2.146   8.125   1.273  0.2965  0.2416 -0.2214
20433SOL    HW178909   2.199   8.112   1.195 -0.0966  1.0956 -0.6462
20433SOL    HW278910   2.210   8.139   1.343  0.6446  0.1987 -0.5261
20434SOL     OW78911   7.874  10.629   5.823  0.2525 -0.3852  0.0245
20434SOL    HW178912   7.932  10.554   5.806  1.0709  0.2903 -0.2611
20434SOL    HW278913   7.863  10.670   5.738  1.3751  0.9017  0.4568
20435SOL     OW78914   5.191   7.028   6.295 -0.5570 -0.5510 -0.9260
20435SOL    HW178915   5.281   7.016   6.263 -0.1495  0.8898 -0.3846
20435SOL    HW278916   5.136   6.996   6.223  0.3659 -1.6376 -1.1863
20436SOL     OW78917   2.887   0.902   0.838  0.5117 -0.0268  0.0899
20436SOL    HW178918   2.912   0.947   0.919 -1.4174 -0.1942  0.8315
20436SOL    HW278919   2.884   0.810   0.861 -4.0577  0.1536  1.1591
20437SOL     OW78920  11.817   5.378   6.468 -0.2118  0.0727  0.6828
20437SOL    HW178921  11.877   5.453   6.473 -0.7721  0.5202  0.8557
20437SOL    HW278922  11.778   5.373   6.555  0.4557 -0.9714  0.9393
20438SOL     OW78923   6.121   2.420   7.584  0.9176 -0.3398  0.2658
20438SOL    HW178924   6.093   2.372   7.506  3.1350 -0.6130 -0.4316
20438SOL    HW278925   6.079   2.375   7.657 -1.0126 -0.2216 -0.7091
20439SOL     OW78926   4.386   6.011   2.887 -0.1203  0.3229  0.2468
20439SOL    HW178927   4.461   6.068   2.902  0.5415 -0.1640 -1.1333
20439SOL    HW278928   4.415   5.925   2.917  0.0092  0.0635 -0.5960
20440SOL     OW78929   0.448  13.726   8.422  0.3206 -0.3914 -0.7327
20440SOL    HW178930   0.417  13.642   8.387  0.3699 -0.8793  0.3566
20440SOL    HW278931   0.367  13.776   8.437 -0.2883 -2.2646  3.6467
20441SOL     OW78932   5.372   9.781   9.662  0.1058  0.5889 -0.0580
20441SOL    HW178933   5.387   9.750   9.752 -0.9001  0.0931 -0.0468
20441SOL    HW278934   5.388   9.876   9.667  1.7634  0.3287  0.2414
20442SOL     OW78935   2.339  10.359   8.928 -0.4307 -0.1591  0.3305
20442SOL    HW178936   2.416  10.379   8.982 -0.6576  0.8379  0.3068
20442SOL    HW278937   2.354  10.270   8.897  1.0304  0.2419 -0.1980
20443SOL     OW78938   1.247  13.429   2.738 -0.1368 -0.0064  0.0307
20443SOL    HW178939   1.234  13.517   2.771  0.2548  0.2742 -0.5477
20443SOL    HW278940   1.244  13.373   2.816  1.4955  0.7055  0.6478
20444SOL     OW78941   8.268   3.467   5.295 -0.1599 -0.1646  0.9039
20444SOL    HW178942   8.336   3.400   5.284 -0.5926 -0.3758 -0.6724
20444SOL    HW278943   8.186   3.422   5.275 -0.5324  0.6297  0.6017
20445SOL     OW78944   4.363  11.019   2.299  0.2697  0.3148 -0.0385
20445SOL    HW178945   4.378  11.109   2.327  1.7802 -0.1493  0.7464
20445SOL    HW278946   4.446  10.974   2.317 -0.6376 -1.3653  0.1366
20446SOL     OW78947   6.574   0.251  12.372 -0.4332 -0.2545 -0.3239
20446SOL    HW178948   6.524   0.304  12.310  1.5701  1.4345 -0.6097
20446SOL    HW278949   6.619   0.315  12.427  0.0091 -1.7062  1.0797
20447SOL     OW78950  10.299   4.575   7.296 -0.0211  1.0052 -0.8391
20447SOL    HW178951  10.376   4.578   7.239  0.4304 -0.0612 -0.3018
20447SOL    HW278952  10.334   4.588   7.384 -0.1306 -1.6166 -0.3379
20448SOL     OW78953   4.879  10.271   3.601  0.7745  0.0120  0.2383
20448SOL    HW178954   4.788  10.274   3.571  0.8409  1.2971  0.1228
20448SOL    HW278955   4.875  10.301   3.692  0.8167 -2.0806  0.9864
20449SOL     OW78956  12.388   0.609   6.270  0.2434  0.1775  0.3080
20449SOL    HW178957  12.441   0.567   6.202 -2.6889  0.7605 -2.5570
20449SOL    HW278958  12.430   0.693   6.286  0.3212  0.5818 -1.8073
20450SOL     OW78959   6.812   2.001   3.744 -0.1225  0.0890  0.3065
20450SOL    HW178960   6.840   2.069   3.806 -0.4422 -0.1203  0.6807
20450SOL    HW278961   6.795   1.924   3.798 -2.4574  0.4958  0.2547
20451SOL     OW78962   0.171   6.731   4.441  0.4960  0.4752 -0.5926
20451SOL    HW178963   0.260   6.703   4.420  0.7776  0.9612 -0.0603
20451SOL    HW278964   0.182   6.811   4.492 -0.1559 -0.5856  1.3031
20452SOL     OW78965   3.084   5.386  12.544  0.3288  0.4881 -0.1126
20452SOL    HW178966   3.127   5.409  12.461 -0.4423  2.0728 -0.1107
20452SOL    HW278967   2.991   5.382  12.522  0.1460  0.6773  0.6203
20453SOL     OW78968   5.440   5.228   4.141  0.7673 -0.2009  0.2146
20453SOL    HW178969   5.347   5.227   4.162  0.5040  2.1570 -0.5982
20453SOL    HW278970   5.476   5.301   4.192  1.5933  0.7022 -1.5917
20454SOL     OW78971   6.455   2.799   5.419 -0.0007  0.7831 -0.8074
20454SOL    HW178972   6.498   2.745   5.353 -0.0253 -1.2149  0.7263
20454SOL    HW278973   6.526   2.826   5.478 -0.3311  0.4086 -0.2304
20455SOL     OW78974   6.266   6.880   7.795  0.6176  0.0180  0.9221
20455SOL    HW178975   6.315   6.800   7.813  1.6726  0.6617  0.9929
20455SOL    HW278976   6.308   6.947   7.849  0.9216  1.0064 -0.4826
20456SOL     OW78977   4.921   0.832   7.583  0.0587  0.4337  1.0170
20456SOL    HW178978   4.919   0.914   7.532  0.8740 -0.5999 -0.7906
20456SOL    HW278979   4.829   0.812   7.600 -0.4949 -0.3867 -2.2331
20457SOL     OW78980   0.601   7.367   4.347 -0.1648 -0.2562 -0.1417
20457SOL    HW178981   0.561   7.300   4.403 -1.1198  0.5164  0.1119
20457SOL    HW278982   0.653   7.420   4.408 -0.1977 -0.1709 -0.1886
20458SOL     OW78983   3.220   4.779  13.889 -0.3083  0.0059 -0.5045
20458SOL    HW178984   3.165   4.706  13.918 -1.1738  0.9084  0.2112
20458SOL    HW278985   3.275   4.798  13.964  0.3621 -0.3069 -0.9114
20459SOL     OW78986   1.166   2.703   9.931 -0.7206 -0.2947 -0.4214
20459SOL    HW178987   1.116   2.666   9.859 -0.6428 -1.2726 -0.0005
20459SOL    HW278988   1.105   2.701  10.006 -0.9093  1.0114 -0.5229
20460SOL     OW78989  10.240   9.323   2.753  0.4093 -0.1816  0.4461
20460SOL    HW178990  10.318   9.359   2.796  1.2835 -1.4447 -0.0425
20460SOL    HW278991  10.230   9.377   2.674  2.1449 -1.3770 -0.6667
20461SOL     OW78992   4.117   5.738   5.903  0.4007  0.0984 -0.1310
20461SOL    HW178993   4.188   5.785   5.946  1.9222 -1.0061 -1.3240
20461SOL    HW278994   4.042   5.749   5.962  0.7750  3.4853 -0.0796
20462SOL     OW78995  12.124   7.181  12.357  0.2776  0.0002 -0.2709
20462SOL    HW178996  12.154   7.237  12.429 -0.0615  2.9130 -2.2188
20462SOL    HW278997  12.204   7.150  12.315  0.4841  0.2849 -0.0891
20463SOL     OW78998  10.661  11.750   0.928 -0.1896 -0.1805  0.2200
20463SOL    HW178999  10.657  11.657   0.949  0.2812 -0.0536  0.8974
20463SOL    HW279000  10.746  11.761   0.885  0.6766  0.2728  1.9481
20464SOL     OW79001   0.808  13.048   5.863  0.0199 -0.0669  0.2137
20464SOL    HW179002   0.727  13.072   5.908  1.3257  1.9626  1.6231
20464SOL    HW279003   0.790  12.960   5.828 -2.5489  0.0601  0.9950
20465SOL     OW79004   5.266   9.341   5.612 -0.4207  0.7335 -0.8119
20465SOL    HW179005   5.247   9.248   5.624  1.3214 -0.0694 -3.5099
20465SOL    HW279006   5.180   9.381   5.599 -1.3424 -0.1531  1.9021
20466SOL     OW79007   7.360   9.032  13.741 -0.7107  0.2825 -0.3344
20466SOL    HW179008   7.415   9.111  13.741 -0.9509  0.4544 -0.5612
20466SOL    HW279009   7.288   9.053  13.801 -0.6609  0.1523 -0.2282
20467SOL     OW79010  12.057   7.181   8.503 -0.1685  0.0292 -0.1130
20467SOL    HW179011  11.981   7.206   8.557 -0.0070  1.3847 -0.4766
20467SOL    HW279012  12.036   7.213   8.416  0.4211 -0.4321 -0.4321
20468SOL     OW79013   1.682  12.877   5.191  0.5785 -0.1163  0.0727
20468SOL    HW179014   1.732  12.909   5.116  0.5828 -1.5286 -0.5653
20468SOL    HW279015   1.743  12.819   5.237  1.0005  1.6859  1.9298
20469SOL     OW79016  10.181   2.774   9.971  0.1154  0.2001 -0.2773
20469SOL    HW179017  10.177   2.698   9.913 -0.7936  1.8707 -2.5639
20469SOL    HW279018  10.093   2.780  10.009  1.1542 -1.9174  2.9074
20470SOL     OW79019   6.553   0.598   8.217  0.2359 -0.1515  0.3669
20470SOL    HW179020   6.510   0.530   8.165 -0.4921  1.0226 -0.6112
20470SOL    HW279021   6.498   0.607   8.294  0.1032 -0.3657  0.2986
20471SOL     OW79022   9.483   8.493  12.282 -0.1804  0.0474  0.2258
20471SOL    HW179023   9.435   8.554  12.226  2.4543  1.0993 -1.0902
20471SOL    HW279024   9.492   8.414  12.228  1.8025  0.8323 -0.6916
20472SOL     OW79025  11.629  12.559   5.308 -0.5962  0.1909  0.0279
20472SOL    HW179026  11.672  12.495   5.366  0.1100  0.6752  0.0442
20472SOL    HW279027  11.699  12.590   5.250 -1.0106  0.6987 -0.2064
20473SOL     OW79028  13.033   2.106   7.093 -0.4449  0.5162 -0.1792
20473SOL    HW179029  12.977   2.183   7.099 -2.0980 -0.7066  1.0386
20473SOL    HW279030  13.045   2.078   7.184 -1.6673 -1.8563 -0.6819
20474SOL     OW79031   4.491   2.521   1.108 -0.0662  0.2594  0.3593
20474SOL    HW179032   4.399   2.549   1.100 -0.7632 -2.1181 -1.0425
20474SOL    HW279033   4.495   2.477   1.193 -0.5510 -0.5923 -0.0439
20475SOL     OW79034   4.891  12.274  13.619  0.0879 -0.2696  0.0534
20475SOL    HW179035   4.902  12.320  13.702 -1.8826  0.6436 -0.1379
20475SOL    HW279036   4.971  12.292  13.570  0.8330  0.0294  1.3586
20476SOL     OW79037   7.937   1.597   9.909  0.0373  0.1873  0.7738
20476SOL    HW179038   7.899   1.661   9.849 -0.1562 -0.5915  0.0519
20476SOL    HW279039   8.031   1.599   9.890 -0.1705 -0.9668 -0.4650
20477SOL     OW79040   3.157   6.366  13.168  0.9078  0.3252  0.4507
20477SOL    HW179041   3.189   6.424  13.237  3.1686  0.3455 -0.5149
20477SOL    HW279042   3.235   6.348  13.115 -0.7379  0.2508 -2.0551
20478SOL     OW79043   8.429   3.625  11.874 -0.4419 -0.2028 -0.3524
20478SOL    HW179044   8.435   3.530  11.885 -0.5699 -0.1891 -0.1580
20478SOL    HW279045   8.443   3.639  11.780  1.8963 -0.2177 -0.0533
20479SOL     OW79046   6.961   5.442   2.449 -0.2859 -0.2320  0.1287
20479SOL    HW179047   7.011   5.360   2.442 -1.4232 -0.9139 -0.2904
20479SOL    HW279048   6.871   5.413   2.467 -1.0060  0.8671 -1.5097
20480SOL     OW79049   6.319   8.289   6.215  0.2455  0.1836 -0.6358
20480SOL    HW179050   6.317   8.365   6.273 -1.2992 -0.3049 -0.0016
20480SOL    HW279051   6.257   8.311   6.145  1.2054  0.2715 -1.4730
20481SOL     OW79052   1.134   6.487   8.512 -0.3984 -0.1073  0.2316
20481SOL    HW179053   1.070   6.558   8.513  0.0784  0.3461  1.9476
20481SOL    HW279054   1.218   6.531   8.526  0.1654 -0.8137 -0.8406
20482SOL     OW79055   2.845  12.239  12.497 -0.1034 -0.2344 -0.2089
20482SOL    HW179056   2.849  12.328  12.532  0.8594 -0.8220  1.2775
20482SOL    HW279057   2.869  12.183  12.571  2.6620 -1.5341 -1.9118
20483SOL     OW79058   2.005   4.498  10.208 -0.0308 -0.1590  0.1623
20483SOL    HW179059   2.045   4.550  10.139 -0.9111 -2.0075 -1.8808
20483SOL    HW279060   1.961   4.562  10.265  3.2328  1.6609  0.8565
20484SOL     OW79061  13.302  12.202  11.123 -0.0479 -0.0573 -0.6483
20484SOL    HW179062  13.336  12.113  11.128 -1.1625 -0.4447  1.0673
20484SOL    HW279063  13.351  12.250  11.190 -0.5749  0.1940 -0.4337
20485SOL     OW79064   0.128   5.012   7.127  0.2989  0.0397  0.2164
20485SOL    HW179065   0.193   5.000   7.057  0.8252  2.2876  0.2719
20485SOL    HW279066   0.158   4.954   7.197  0.4239 -1.3534 -0.9355
20486SOL     OW79067   9.181  10.842   5.140  0.0098 -0.0219 -0.0213
20486SOL    HW179068   9.150  10.774   5.080  0.3880 -0.7567  0.5997
20486SOL    HW279069   9.142  10.820   5.224  0.4780  0.2909  0.2811
20487SOL     OW79070  13.215   2.183   3.914  0.5384  0.2631  0.7472
20487SOL    HW179071  13.222   2.278   3.921  2.3044  0.2324 -0.1486
20487SOL    HW279072  13.280   2.149   3.976  0.5212 -0.3486  0.4377
20488SOL     OW79073   6.425   0.946  12.460 -0.4133  0.0011 -0.8734
20488SOL    HW179074   6.408   0.865  12.411  1.8060 -1.3594  0.4281
20488SOL    HW279075   6.372   0.937  12.540  0.2431 -0.4582 -0.4798
20489SOL     OW79076  13.301   8.265   3.209  0.1180  0.1338  0.4925
20489SOL    HW179077  13.288   8.356   3.182 -0.1843 -0.1169 -0.2243
20489SOL    HW279078  13.389   8.243   3.181 -0.2353 -0.1619 -0.4301
20490SOL     OW79079   3.084   8.443  12.912  0.3300  0.1137 -0.1012
20490SOL    HW179080   3.026   8.462  12.838  0.3674  0.2339 -0.1003
20490SOL    HW279081   3.029   8.458  12.989  0.6889  1.3794 -0.0664
20491SOL     OW79082   8.756   3.355  10.632  0.9123  0.1502 -0.0490
20491SOL    HW179083   8.717   3.337  10.546  0.1139  1.1048  0.1018
20491SOL    HW279084   8.831   3.295  10.637  1.1295  0.2679 -1.5169
20492SOL     OW79085   4.074  11.545  10.343 -0.1536  0.1381  0.0029
20492SOL    HW179086   4.021  11.572  10.418 -0.7323 -1.0511  0.0554
20492SOL    HW279087   4.043  11.600  10.271 -1.5419 -0.5717  0.0172
20493SOL     OW79088  12.556   3.767   0.486 -0.0358  0.0740  0.3825
20493SOL    HW179089  12.538   3.791   0.396  1.5332 -1.2139 -0.3093
20493SOL    HW279090  12.588   3.847   0.527  2.4135 -0.0698 -1.1097
20494SOL     OW79091  13.026   6.785  11.876  0.0271  0.0921 -0.1433
20494SOL    HW179092  13.037   6.844  11.801 -0.6168 -1.1663 -1.2742
20494SOL    HW279093  13.032   6.843  11.952  2.5431  1.1786 -1.0278
20495SOL     OW79094   4.169   4.075  11.382  0.1274 -0.5129  0.5110
20495SOL    HW179095   4.195   3.998  11.432  0.2584  0.3630  1.8702
20495SOL    HW279096   4.210   4.064  11.296 -0.8501 -2.5095  0.2469
20496SOL     OW79097   3.499  11.185   3.141 -0.0218  0.3371  0.1099
20496SOL    HW179098   3.422  11.240   3.156 -0.7543 -1.0035  1.6331
20496SOL    HW279099   3.567  11.225   3.196 -0.4933 -0.1226  1.0592
20497SOL     OW79100   5.070  13.266   4.033  0.5687 -0.2000  0.5036
20497SOL    HW179101   5.064  13.270   3.938  0.6580 -1.5127  0.4323
20497SOL    HW279102   4.979  13.265   4.063  0.3780 -3.4854  0.2070
20498SOL     OW79103  11.810   7.503   2.208  0.3930 -0.1358  0.5048
20498SOL    HW179104  11.778   7.574   2.263  0.5247  0.7775 -0.5639
20498SOL    HW279105  11.878   7.461   2.260  2.7157  2.6278 -0.0564
20499SOL     OW79106  12.567   1.662   2.581 -0.3477 -0.5073 -0.3921
20499SOL    HW179107  12.511   1.714   2.638  0.4792 -0.6440  0.5646
20499SOL    HW279108  12.552   1.571   2.607 -0.5716 -0.6376 -0.9513
20500SOL     OW79109  12.711  10.247   6.303 -0.3097  0.2743 -0.3306
20500SOL    HW179110  12.759  10.241   6.220  1.6469  0.9345  0.6880
20500SOL    HW279111  12.682  10.157   6.320  1.2352 -0.3133 -0.6377
20501SOL     OW79112   1.039  11.996  12.254 -0.3298 -0.3660  0.0377
20501SOL    HW179113   0.977  11.954  12.195 -0.8002  1.1191 -0.5710
20501SOL    HW279114   1.097  12.046  12.197  1.8444 -2.1534  0.5452
20502SOL     OW79115   3.682   8.432   4.084 -0.3550  0.1513  0.2867
20502SOL    HW179116   3.623   8.412   4.156  0.0061 -2.6829 -0.0883
20502SOL    HW279117   3.768   8.404   4.115 -0.0735 -0.4428 -0.9462
20503SOL     OW79118   3.735  11.467   9.398  0.3379  0.0624  0.6733
20503SOL    HW179119   3.714  11.526   9.325  2.7616  0.0341 -0.1162
20503SOL    HW279120   3.825  11.488   9.422  1.0399 -2.7704  0.8897
20504SOL     OW79121   8.874   7.995   1.201 -0.2224 -0.3403 -0.3219
20504SOL    HW179122   8.965   7.965   1.201  0.1772  0.8051  0.8163
20504SOL    HW279123   8.868   8.054   1.275 -1.9507 -0.5006 -0.2946
20505SOL     OW79124   8.065   3.009  12.502 -0.0897 -0.2025  0.7389
20505SOL    HW179125   8.076   2.967  12.417 -0.0371 -0.3699  0.8273
20505SOL    HW279126   7.971   3.029  12.506 -0.0308  0.1164  0.4995
20506SOL     OW79127   9.198   8.270   4.316 -0.0220 -0.0153 -0.7553
20506SOL    HW179128   9.235   8.188   4.283  0.0306 -0.5960  0.6784
20506SOL    HW279129   9.116   8.244   4.358  0.8272  0.3539  1.2621
20507SOL     OW79130  10.606  11.815  13.604 -0.0688  0.5333 -0.0858
20507SOL    HW179131  10.670  11.878  13.572  0.7458  0.4070  1.2512
20507SOL    HW279132  10.548  11.866  13.661  0.8245  0.0346  1.3091
20508SOL     OW79133   4.612  11.224   6.480  0.1291 -0.0254  0.2028
20508SOL    HW179134   4.690  11.178   6.512  0.1084 -0.0548  0.2111
20508SOL    HW279135   4.617  11.310   6.522  0.2259  0.0205  0.1004
20509SOL     OW79136   8.402  10.852   5.430  0.0363 -0.1383  0.6424
20509SOL    HW179137   8.474  10.872   5.490  0.4074 -1.5264  0.6850
20509SOL    HW279138   8.358  10.936   5.417  1.4484  0.6699  0.8850
20510SOL     OW79139  10.086   6.840   0.131 -0.5530  0.4686 -0.1664
20510SOL    HW179140  10.082   6.763   0.074 -2.2658  0.9858 -0.8163
20510SOL    HW279141  10.105   6.913   0.071  1.4235  0.5525  0.4935
20511SOL     OW79142   8.142   0.886  13.299  0.3658 -0.3554 -0.5547
20511SOL    HW179143   8.055   0.916  13.272  0.4190 -0.2841 -0.6482
20511SOL    HW279144   8.181   0.852  13.218 -0.0911 -1.6611 -0.2490
20512SOL     OW79145   7.543   8.360  13.528 -0.6701  0.3593  0.1224
20512SOL    HW179146   7.609   8.291  13.515  0.4112  1.4533 -0.3185
20512SOL    HW279147   7.461   8.318  13.502 -0.2245 -1.1213  0.9394
20513SOL     OW79148   2.172   1.183   2.769  0.4973 -0.8303  0.0734
20513SOL    HW179149   2.124   1.241   2.710 -2.5599 -3.0717  0.1121
20513SOL    HW279150   2.206   1.241   2.838 -2.0360  0.9716 -0.0714
20514SOL     OW79151   5.230  13.842   6.746  0.5966 -0.0745 -0.4350
20514SOL    HW179152   5.295  13.897   6.701 -1.2327  1.1953 -1.6383
20514SOL    HW279153   5.196  13.898   6.816 -1.0015  0.2586 -1.4232
20515SOL     OW79154   1.264  12.443   9.999 -0.6251  0.3719  0.2204
20515SOL    HW179155   1.345  12.394   9.985 -0.4460  0.0701  2.0576
20515SOL    HW279156   1.285  12.532   9.970 -0.4929 -0.2509 -1.7523
20516SOL     OW79157   6.051  13.731   9.349 -0.2411 -0.2629  0.0110
20516SOL    HW179158   5.986  13.716   9.418 -1.1876  0.4593 -0.6995
20516SOL    HW279159   6.021  13.810   9.305  0.3559 -0.6986 -1.2168
20517SOL     OW79160   4.140   9.878  11.452  0.3964 -0.0418 -0.1244
20517SOL    HW179161   4.093   9.880  11.536  0.9851 -0.5981  0.2311
20517SOL    HW279162   4.151   9.971  11.429  1.2925  0.1715  1.0336
20518SOL     OW79163  12.199   2.822  13.386 -0.3090 -0.0983 -0.3499
20518SOL    HW179164  12.136   2.762  13.425 -0.6982 -0.4156 -1.4394
20518SOL    HW279165  12.283   2.798  13.425 -0.3111 -1.9074 -1.3645
20519SOL     OW79166   7.411   2.938   6.153 -0.1283 -0.0494 -0.0621
20519SOL    HW179167   7.325   2.915   6.118  1.2079 -2.1687 -2.2630
20519SOL    HW279168   7.426   3.028   6.123 -1.3284  0.1465 -0.1173
20520SOL     OW79169  12.362   3.004  12.613  0.2518  0.3825  0.1936
20520SOL    HW179170  12.423   3.002  12.539 -1.1935  1.8048 -1.1203
20520SOL    HW279171  12.298   2.936  12.593  1.6632 -1.5880  1.9132
20521SOL     OW79172   8.990   7.822   1.467  0.1563 -0.4309  0.6510
20521SOL    HW179173   9.020   7.799   1.555 -1.3587 -2.1018  0.7909
20521SOL    HW279174   8.912   7.876   1.481  0.3091 -0.1241  0.3375
20522SOL     OW79175   8.895   3.660  13.219 -0.1311 -0.4783 -0.1813
20522SOL    HW179176   8.936   3.630  13.139  0.5880 -2.1417  0.7662
20522SOL    HW279177   8.968   3.674  13.280 -0.6961  0.2729  0.3481
20523SOL     OW79178   3.550   5.241   2.122 -0.2535  0.8895 -0.4441
20523SOL    HW179179   3.520   5.209   2.207 -0.9555  2.3935 -0.0915
20523SOL    HW279180   3.492   5.197   2.059 -0.6802  0.8460 -0.0314
20524SOL     OW79181   0.028   2.747   9.442  0.1367 -0.2917  0.2111
20524SOL    HW179182   0.101   2.716   9.387 -0.7842 -3.0305  0.3918
20524SOL    HW279183   0.026   2.842   9.428  3.2374 -0.2132 -0.3794
20525SOL     OW79184  12.140  10.180   3.108 -0.4926  0.7141 -0.7735
20525SOL    HW179185  12.088  10.261   3.118 -1.8729 -0.1787 -0.3905
20525SOL    HW279186  12.078  10.117   3.072  0.4257 -0.3237 -0.5739
20526SOL     OW79187  13.727  12.037   4.146 -0.5050  0.3615  0.4181
20526SOL    HW179188  13.666  11.964   4.144 -0.4492  0.2960 -1.9085
20526SOL    HW279189  13.780  12.022   4.224 -1.2027 -1.4819  0.5860
20527SOL     OW79190  12.739   6.065   9.148  0.5626  0.5707 -0.3287
20527SOL    HW179191  12.830   6.035   9.156 -0.0451 -1.5963 -0.9954
20527SOL    HW279192  12.742   6.130   9.077  1.2192 -1.5329 -2.3707
20528SOL     OW79193   0.293  12.853   9.165 -0.0115  0.3086  0.4032
20528SOL    HW179194   0.281  12.799   9.087 -2.9113  2.2549 -0.6851
20528SOL    HW279195   0.204  12.874   9.194  0.9831  1.5234  2.8968
20529SOL     OW79196  10.063  11.242   9.722 -0.3764 -0.0197 -0.0419
20529SOL    HW179197  10.063  11.328   9.764 -1.4804 -0.4757  0.9271
20529SOL    HW279198   9.982  11.201   9.751  0.6620 -1.8359  0.4394
20530SOL     OW79199  10.240   9.469   6.696 -0.2804  0.2853 -0.0358
20530SOL    HW179200  10.290   9.550   6.707 -1.0059  1.3175 -3.3092
20530SOL    HW279201  10.149   9.495   6.706 -0.4584 -0.5073  0.5552
20531SOL     OW79202   8.862  13.871  10.710  0.0404  0.3694 -0.1355
20531SOL    HW179203   8.946  13.837  10.680  1.5136  3.4212  0.1510
20531SOL    HW279204   8.850  13.832  10.797  2.3640  1.5632  0.8180
20532SOL     OW79205  10.802  12.797   4.816 -0.3015 -0.6071 -0.6192
20532SOL    HW179206  10.887  12.756   4.829  0.0372  0.7790  2.6960
20532SOL    HW279207  10.740  12.740   4.862 -1.0340 -1.0568 -2.1038
20533SOL     OW79208   9.391   3.216   6.397  0.1563  0.3750 -0.4770
20533SOL    HW179209   9.380   3.293   6.340 -1.7778 -1.3493 -2.6080
20533SOL    HW279210   9.312   3.164   6.382 -1.1080  0.2670  4.7105
20534SOL     OW79211   7.758  10.020   6.971  0.1337 -0.5764 -0.5296
20534SOL    HW179212   7.703  10.044   7.046  2.6427 -0.1101  1.2792
20534SOL    HW279213   7.823  10.089   6.965  1.8854 -2.1813 -1.1582
20535SOL     OW79214   9.710   2.370   9.921  0.4205  0.3160 -0.0441
20535SOL    HW179215   9.749   2.416   9.847 -0.8433 -0.1106 -1.0250
20535SOL    HW279216   9.645   2.431   9.956  0.3916  0.1752  0.1516
20536SOL     OW79217  10.542   7.865  13.615  0.3087  0.2783  0.3988
20536SOL    HW179218  10.598   7.841  13.540 -0.0977  1.4773 -0.3251
20536SOL    HW279219  10.558   7.958  13.626 -1.0529  0.4916  0.6061
20537SOL     OW79220  12.006   4.727   3.912 -0.5044  0.1317 -0.6084
20537SOL    HW179221  11.930   4.738   3.969 -0.6609  0.3609 -0.8591
20537SOL    HW279222  12.073   4.688   3.968 -0.8435 -0.1767 -0.4153
20538SOL     OW79223   1.201  13.556  11.043  0.0029  0.0974 -0.3080
20538SOL    HW179224   1.132  13.540  11.107  1.2165  1.2124  1.3414
20538SOL    HW279225   1.159  13.610  10.976 -0.9683 -0.0708  0.1463
20539SOL     OW79226   4.552   3.552   5.677  0.0293  0.2905  0.2444
20539SOL    HW179227   4.640   3.578   5.702 -0.5578  2.2467  0.4492
20539SOL    HW279228   4.555   3.544   5.581  0.7924 -1.2658  0.3716
20540SOL     OW79229   0.551   0.316   4.180  0.0612  0.2332  0.1525
20540SOL    HW179230   0.558   0.401   4.224  1.9816 -0.5117  1.4379
20540SOL    HW279231   0.544   0.252   4.251  0.3232 -0.8036 -0.7181
20541SOL     OW79232   5.428  10.003   2.819  0.5464 -0.7320  0.3722
20541SOL    HW179233   5.436   9.926   2.875 -0.3686 -1.2750 -0.2254
20541SOL    HW279234   5.512  10.008   2.774  0.1533 -2.1929 -0.5909
20542SOL     OW79235   1.018   9.237  10.489 -0.3928 -0.3651 -1.1478
20542SOL    HW179236   1.032   9.242  10.394  1.5468 -2.5613 -1.0701
20542SOL    HW279237   1.012   9.144  10.508 -1.5084  0.0485  0.8273
20543SOL     OW79238  12.437   5.025  13.719  0.1705  0.2181  0.3966
20543SOL    HW179239  12.515   5.077  13.743  0.7463 -0.7143  0.6083
20543SOL    HW279240  12.368   5.059  13.775  0.0953  1.9257 -0.6858
20544SOL     OW79241  13.868   3.102   6.967  0.0015 -0.0001 -0.2768
20544SOL    HW179242  13.860   3.180   6.913 -2.3583 -1.7960 -2.7998
20544SOL    HW279243  13.961   3.080   6.965  0.3386  1.4116 -1.5288
20545SOL     OW79244   7.093   0.732   1.762  0.4247 -0.6845  0.5918
20545SOL    HW179245   7.156   0.683   1.710 -0.2198 -1.1209  0.2098
20545SOL    HW279246   7.017   0.742   1.704  0.0427 -0.4005  1.1351
20546SOL     OW79247   6.169   8.572   1.983  0.5494 -0.3745 -0.7749
20546SOL    HW179248   6.204   8.555   1.896 -1.7276 -1.9740 -1.4664
20546SOL    HW279249   6.242   8.555   2.042  2.1374  0.7289 -2.3018
20547SOL     OW79250   8.831   0.448   3.314 -0.0127 -0.3186 -0.2252
20547SOL    HW179251   8.851   0.465   3.406  0.3044 -0.6524 -0.2320
20547SOL    HW279252   8.841   0.353   3.304  1.5733 -0.1137 -0.9828
20548SOL     OW79253  10.954  10.462   5.237  0.5761  0.2281 -0.0845
20548SOL    HW179254  10.903  10.460   5.156  0.2293  0.9623  0.1062
20548SOL    HW279255  10.951  10.554   5.265  2.1182  0.3141 -0.1335
20549SOL     OW79256  10.055   1.834   0.414 -0.3495 -0.7545  0.2652
20549SOL    HW179257   9.971   1.852   0.456  0.3142  0.4335  1.1514
20549SOL    HW279258  10.086   1.754   0.455 -0.8010 -0.9090  0.3106
20550SOL     OW79259   5.197  11.382   0.747  0.6905  0.5851 -0.4123
20550SOL    HW179260   5.113  11.423   0.769  0.0894  0.2175 -1.8837
20550SOL    HW279261   5.222  11.423   0.664  2.0533  0.7973  0.0818
20551SOL     OW79262   4.066   4.246   7.009 -0.0308  0.0473  0.0935
20551SOL    HW179263   4.070   4.338   7.035  0.0280  0.5129 -1.4592
20551SOL    HW279264   4.000   4.243   6.940 -0.1378 -1.1132  0.2286
20552SOL     OW79265   5.402   1.847   6.146 -0.2260  0.2906  0.0579
20552SOL    HW179266   5.342   1.883   6.080  1.6806 -0.6141 -2.2916
20552SOL    HW279267   5.441   1.924   6.187 -1.0345  0.8715 -0.2315
20553SOL     OW79268  13.841   6.061  13.700 -0.9857  0.3447  0.3303
20553SOL    HW179269  13.846   6.136  13.760 -0.2977  0.0885  0.6064
20553SOL    HW279270  13.913   6.004  13.727  0.1099  0.7708 -1.4752
20554SOL     OW79271   9.588  13.091   7.675  0.0503 -0.5949  0.3246
20554SOL    HW179272   9.572  13.099   7.769  1.0476  0.0215  0.4594
20554SOL    HW279273   9.669  13.041   7.669  2.2506  2.6794 -0.0090
20555SOL     OW79274   1.303   8.115   9.064  0.0108  0.4405 -0.9082
20555SOL    HW179275   1.308   8.207   9.089  0.4490  0.5784 -1.4673
20555SOL    HW279276   1.365   8.071   9.122 -1.1767  0.2647  0.2879
20556SOL     OW79277   1.254   1.330   9.936  0.8245 -0.5283 -0.2192
20556SOL    HW179278   1.185   1.328   9.869 -0.7931  0.6431  1.3219
20556SOL    HW279279   1.293   1.243   9.933 -2.4397 -2.1733  0.5122
20557SOL     OW79280   4.878   4.661   9.394 -0.0719  0.2464  0.0035
20557SOL    HW179281   4.867   4.595   9.325 -0.8128 -1.0148  1.2842
20557SOL    HW279282   4.973   4.668   9.404  0.0896  1.1871 -1.7940
20558SOL     OW79283   7.290   5.240   0.031 -0.2301  0.2631 -1.1355
20558SOL    HW179284   7.303   5.333   0.013 -0.5862  0.3169 -1.1154
20558SOL    HW279285   7.241   5.207  -0.045 -1.3610  0.3976 -0.4682
20559SOL     OW79286   0.431   4.383   0.977 -0.5992 -0.2870 -0.3485
20559SOL    HW179287   0.520   4.399   1.010 -0.2981 -1.0517 -0.7598
20559SOL    HW279288   0.374   4.431   1.036  0.1215  0.5801 -0.3410
20560SOL     OW79289   2.142   8.527   3.522  0.3406 -0.0623  0.4452
20560SOL    HW179290   2.212   8.462   3.518  2.4858  2.1233 -1.8890
20560SOL    HW279291   2.084   8.505   3.449 -0.3031 -0.7125  1.1427
20561SOL     OW79292  12.413   7.087  12.336 -0.4353  0.0261 -0.4738
20561SOL    HW179293  12.457   7.156  12.286 -1.6049  1.6149  0.5963
20561SOL    HW279294  12.446   7.005  12.298  1.1951  1.1508 -1.6131
20562SOL     OW79295   8.116   2.021   4.478  0.4122 -0.2140 -0.6255
20562SOL    HW179296   8.172   1.949   4.503  0.3632 -0.4819 -1.2534
20562SOL    HW279297   8.085   1.998   4.390  1.2947  1.0956 -1.3195
20563SOL     OW79298  10.213  10.102  14.089 -0.4920  0.3004  0.5798
20563SOL    HW179299  10.153  10.054  14.147 -0.1651  1.5430  1.9961
20563SOL    HW279300  10.261  10.033  14.043 -1.8617 -0.7147  0.6063
20564SOL     OW79301   9.869   2.089   3.441  0.5296  0.5922  0.4557
20564SOL    HW179302   9.789   2.044   3.413  1.2390 -1.1857  1.1403
20564SOL    HW279303   9.877   2.163   3.380 -1.0370  0.1873 -0.3016
20565SOL     OW79304   7.889   6.497  12.797  0.2845 -0.4397 -0.2468
20565SOL    HW179305   7.829   6.520  12.868  1.0775  1.1526 -0.0496
20565SOL    HW279306   7.916   6.407  12.817  1.1509  0.2413  1.9688
20566SOL     OW79307   8.319   1.730   3.885  0.1907 -0.2151 -0.5148
20566SOL    HW179308   8.309   1.641   3.850  2.1638 -0.5122 -0.4180
20566SOL    HW279309   8.380   1.772   3.825  1.7658  0.0317  1.2142
20567SOL     OW79310   5.842   9.391  12.264 -0.2896 -0.4019 -0.7778
20567SOL    HW179311   5.881   9.445  12.333 -1.5469 -0.4362 -0.0144
20567SOL    HW279312   5.917   9.360  12.213  0.5338  1.5166 -0.8519
20568SOL     OW79313   4.475  12.942   5.741  0.6946  0.3105  0.2084
20568SOL    HW179314   4.418  13.011   5.707 -0.4717 -0.1464  1.1524
20568SOL    HW279315   4.564  12.977   5.731  0.2230  1.2634 -0.8081
20569SOL     OW79316   0.134  12.150   1.126 -0.1560 -0.8408  0.4795
20569SOL    HW179317   0.055  12.174   1.076 -0.0035 -0.6306  0.3401
20569SOL    HW279318   0.152  12.060   1.100  0.7918 -0.2620 -0.9979
20570SOL     OW79319  13.272  11.596   8.420 -0.6944  0.1942 -0.3487
20570SOL    HW179320  13.300  11.687   8.426  0.2415 -0.1635  0.8961
20570SOL    HW279321  13.219  11.581   8.498 -0.7230 -0.3676 -0.4685
20571SOL     OW79322   6.001  12.921   4.360 -0.1285  0.0880 -0.2411
20571SOL    HW179323   6.069  12.881   4.414 -0.0955 -0.7898 -0.9133
20571SOL    HW279324   5.926  12.929   4.418  0.0100 -0.5424  0.0317
20572SOL     OW79325   0.993  10.954  12.762 -0.3077  0.0930  0.3548
20572SOL    HW179326   0.994  10.870  12.807 -0.1740  1.0292  2.1692
20572SOL    HW279327   1.086  10.978  12.753 -0.3679  1.5269  2.8215
20573SOL     OW79328  12.179  11.349   8.743  0.5819 -0.3591 -0.2190
20573SOL    HW179329  12.174  11.369   8.649  0.1287  0.7167  0.0116
20573SOL    HW279330  12.139  11.426   8.785  0.0346 -1.1914  0.8133
20574SOL     OW79331  13.622   8.247  10.786  0.2882  0.6160 -0.4489
20574SOL    HW179332  13.558   8.215  10.850  1.5376 -0.9399  0.0964
20574SOL    HW279333  13.638   8.171  10.729  2.4844  0.5710  0.1513
20575SOL     OW79334   0.580   9.510   9.250 -0.3618 -0.6589  0.3254
20575SOL    HW179335   0.568   9.415   9.240  1.4526 -0.7227 -2.4516
20575SOL    HW279336   0.531   9.548   9.178  3.4112 -0.0399 -2.2239
20576SOL     OW79337   5.287  13.433   0.548  0.1135 -0.2471 -0.3400
20576SOL    HW179338   5.354  13.498   0.526 -0.5182  0.8905  0.9805
20576SOL    HW279339   5.208  13.463   0.503 -0.2880  0.1842  0.6052
20577SOL     OW79340  12.333   2.034   3.899 -0.1978  0.5078 -0.5264
20577SOL    HW179341  12.337   1.978   3.977  2.8408  0.3714 -0.6815
20577SOL    HW279342  12.322   2.123   3.934  0.4009  0.3692  0.0360
20578SOL     OW79343  12.709  10.137   0.674  0.1103 -0.1920 -0.0975
20578SOL    HW179344  12.657  10.184   0.609 -0.8544  0.1028  0.8568
20578SOL    HW279345  12.701  10.044   0.649 -0.0010 -0.0635 -0.5550
20579SOL     OW79346   1.973  13.738   9.196 -0.3682  0.4120  0.0941
20579SOL    HW179347   2.062  13.717   9.227 -0.6062  0.1956  0.6419
20579SOL    HW279348   1.921  13.660   9.218 -0.1176 -0.6942 -2.8062
20580SOL     OW79349  14.011   0.954   1.572  0.0016 -0.5613 -0.2867
20580SOL    HW179350  13.958   0.920   1.500 -0.3559 -0.5240 -0.0405
20580SOL    HW279351  13.961   1.028   1.606  0.3733 -0.3149 -0.2714
20581SOL     OW79352  12.235   7.169   2.897  0.2662  0.3947 -0.1794
20581SOL    HW179353  12.190   7.254   2.901 -0.4663  0.0262 -0.3867
20581SOL    HW279354  12.211   7.125   2.978  1.2960  0.6885  0.3017
20582SOL     OW79355   6.880  10.789   1.112  0.4977 -0.0187  0.4888
20582SOL    HW179356   6.903  10.852   1.043 -1.0311  1.6328  1.4146
20582SOL    HW279357   6.958  10.783   1.166  1.2266 -0.2289 -0.5486
20583SOL     OW79358   8.560  11.265   5.668  0.3885 -0.0894  0.2511
20583SOL    HW179359   8.530  11.319   5.595  0.0266 -3.1453 -2.0651
20583SOL    HW279360   8.502  11.288   5.740 -0.7851  1.4194 -1.0973
20584SOL     OW79361   7.592   5.139  13.571  0.2679  0.4022 -0.2667
20584SOL    HW179362   7.599   5.195  13.648  2.0124 -2.1598  1.6002
20584SOL    HW279363   7.679   5.141  13.532  0.2330 -0.6144 -0.4269
20585SOL     OW79364  12.015   7.701   0.878 -0.2614  0.5193  0.0256
20585SOL    HW179365  12.051   7.776   0.831 -0.1601  2.1296  2.4874
20585SOL    HW279366  11.994   7.637   0.809 -1.0291  3.0332 -2.2596
20586SOL     OW79367   5.003  13.330   3.775  0.4333  0.1378  0.4310
20586SOL    HW179368   4.960  13.268   3.717  1.7024 -0.7109  0.3643
20586SOL    HW279369   5.034  13.399   3.717 -1.7878  1.3878  0.6072
20587SOL     OW79370  10.015   0.630   5.355  0.0073  0.1682 -0.1361
20587SOL    HW179371  10.007   0.714   5.311  0.4801 -0.0493 -0.6515
20587SOL    HW279372   9.945   0.631   5.421  0.4615  1.2493  0.3535
20588SOL     OW79373   5.726  13.689   9.820 -0.1400  0.4644 -0.1532
20588SOL    HW179374   5.689  13.753   9.880  0.7752  0.3831  0.5182
20588SOL    HW279375   5.650  13.645   9.781 -0.7581  1.4565 -0.0865
20589SOL     OW79376   6.974  11.908   5.299 -0.0972 -0.4037 -0.3942
20589SOL    HW179377   7.033  11.876   5.230  0.0789 -0.0503 -0.4123
20589SOL    HW279378   6.995  11.855   5.375  0.5552 -0.0028 -0.2768
20590SOL     OW79379   0.139   9.943  11.382 -0.5661 -0.2916 -0.9218
20590SOL    HW179380   0.092   9.884  11.441 -0.1897 -0.1762 -0.4995
20590SOL    HW279381   0.108  10.030  11.406 -0.4566 -0.2482 -0.9370
20591SOL     OW79382   5.720  12.960  12.001  0.1044 -0.5011 -0.0188
20591SOL    HW179383   5.679  13.029  12.054  0.2667 -1.7744  1.8492
20591SOL    HW279384   5.648  12.921  11.952 -0.4143 -0.6823  0.8795
20592SOL     OW79385   1.604   7.450   0.087  0.2281  0.0658  0.5921
20592SOL    HW179386   1.613   7.515   0.156  1.1809  0.6165 -0.0178
20592SOL    HW279387   1.510   7.434   0.080 -0.0501  1.5460  0.6144
20593SOL     OW79388   5.733   7.432  10.548 -0.4795  0.2129  0.0196
20593SOL    HW179389   5.798   7.415  10.616 -0.3713  0.3053 -0.0619
20593SOL    HW279390   5.745   7.361  10.485 -2.2088 -1.3370  1.3000
20594SOL     OW79391  12.157   2.275   8.357 -0.0865 -0.4836 -0.4699
20594SOL    HW179392  12.193   2.302   8.273  3.1639 -0.1704  0.8899
20594SOL    HW279393  12.130   2.184   8.344  1.8987 -0.9757 -1.4312
20595SOL     OW79394   9.465   4.507   6.870 -0.0541 -0.3891  0.2416
20595SOL    HW179395   9.420   4.483   6.789  1.0372  1.1681 -0.8720
20595SOL    HW279396   9.485   4.423   6.912 -0.7061 -1.2258 -1.0486
20596SOL     OW79397   1.970   8.505   5.561 -0.5401 -0.5333 -0.0283
20596SOL    HW179398   2.012   8.418   5.561 -2.4024 -1.5120 -1.4492
20596SOL    HW279399   1.933   8.514   5.648 -1.2535 -1.6956 -0.1797
20597SOL     OW79400  13.247   7.253   5.643  0.3647  0.0884 -0.5822
20597SOL    HW179401  13.244   7.173   5.694 -0.4042  0.1551 -0.5099
20597SOL    HW279402  13.302   7.231   5.567  0.4689 -0.3897 -0.3711
20598SOL     OW79403   0.305  10.412   8.675 -0.3887 -0.7577 -0.0767
20598SOL    HW179404   0.272  10.499   8.698  0.0140 -0.6686  0.1750
20598SOL    HW279405   0.387  10.403   8.725  0.0786 -0.8897 -0.8440
20599SOL     OW79406   4.222   0.846   3.432  0.2320  0.4101  0.1155
20599SOL    HW179407   4.288   0.910   3.405 -0.0078  1.1862  1.3285
20599SOL    HW279408   4.159   0.895   3.484 -0.5018 -0.6227  0.2543
20600SOL     OW79409   0.799   9.637   9.421 -0.1352  0.1885 -0.7796
20600SOL    HW179410   0.858   9.563   9.410 -0.8413 -0.2762 -1.6081
20600SOL    HW279411   0.724   9.616   9.365 -0.5110  1.3587 -0.7392
20601SOL     OW79412   3.528  12.345   9.769 -0.4387  0.4207 -0.7243
20601SOL    HW179413   3.573  12.406   9.711  1.0921  1.1779  1.1478
20601SOL    HW279414   3.507  12.397   9.847 -0.7189 -0.9951  0.1932
20602SOL     OW79415   7.746   1.353  11.012 -0.0482 -0.3906 -0.7226
20602SOL    HW179416   7.797   1.295  10.955  0.2378  1.1196 -2.0779
20602SOL    HW279417   7.699   1.294  11.071 -0.8715 -2.0568 -2.9420
20603SOL     OW79418  12.423   2.374  12.751 -0.2026 -0.3503 -0.1335
20603SOL    HW179419  12.452   2.308  12.814 -1.4850 -0.3389  0.4797
20603SOL    HW279420  12.481   2.361  12.675 -0.8772 -2.6670 -0.3168
20604SOL     OW79421   1.616   8.922  13.674  0.4816  0.2033  0.3759
20604SOL    HW179422   1.620   8.868  13.753 -0.9956  1.2071  1.1830
20604SOL    HW279423   1.622   8.859  13.602  1.8075 -0.7384  1.2676
20605SOL     OW79424   0.412  12.266   7.324  0.1190 -0.2916 -0.5179
20605SOL    HW179425   0.475  12.294   7.390  0.1120 -0.2628 -0.5235
20605SOL    HW279426   0.448  12.298   7.241 -0.4405  0.6858 -0.4062
20606SOL     OW79427   2.558   3.910   2.095  0.4165  0.8251 -0.6457
20606SOL    HW179428   2.495   3.896   2.166 -0.3605  1.5563 -1.1708
20606SOL    HW279429   2.531   3.849   2.027  0.4631  0.9233 -0.7510
20607SOL     OW79430   9.034   0.048   3.438 -0.2040 -0.3480  0.3957
20607SOL    HW179431   8.989  -0.024   3.394  0.0428 -1.8099  2.3956
20607SOL    HW279432   8.994   0.052   3.525  0.4003  1.3683  0.6315
20608SOL     OW79433  12.839  12.121   7.061 -0.2207  0.3334  0.3688
20608SOL    HW179434  12.848  12.214   7.082  0.5840  0.0688  1.2232
20608SOL    HW279435  12.801  12.120   6.973 -2.6143  1.4762  1.3034
20609SOL     OW79436  11.707   1.097   8.086 -0.0767 -0.4785  0.1061
20609SOL    HW179437  11.653   1.107   8.008  0.7366  0.0834 -0.4134
20609SOL    HW279438  11.652   1.127   8.158 -0.1957  0.9003 -0.5155
20610SOL     OW79439   5.980   3.737  10.120 -0.0439 -0.5808  0.2739
20610SOL    HW179440   6.023   3.822  10.110  1.1739 -1.2159 -0.0991
20610SOL    HW279441   6.005   3.688  10.042 -2.0148 -0.7740 -0.2896
20611SOL     OW79442  13.955  14.042   9.488 -0.1277 -0.6819  0.5762
20611SOL    HW179443  14.033  14.063   9.540  1.0261 -1.2581 -0.8445
20611SOL    HW279444  13.973  13.954   9.454 -0.5694 -0.1060 -1.2310
20612SOL     OW79445  12.595   2.306   2.991  0.5433  1.0196 -0.3589
20612SOL    HW179446  12.524   2.244   3.002  0.2440  1.3997 -0.1126
20612SOL    HW279447  12.605   2.315   2.896  1.4688 -0.3850 -0.4149
20613SOL     OW79448   8.210   7.929  13.153  0.4311 -0.0917 -0.7697
20613SOL    HW179449   8.256   7.910  13.235 -0.5532 -0.0447 -0.2033
20613SOL    HW279450   8.118   7.933  13.176  0.0996 -0.4277 -1.9459
20614SOL     OW79451   2.504   7.879   3.454 -0.1359  0.2707  0.2025
20614SOL    HW179452   2.592   7.915   3.444  0.5527 -1.4404 -0.2674
20614SOL    HW279453   2.475   7.909   3.541  1.3562 -0.0386  0.8308
20615SOL     OW79454   6.842  12.672  10.179 -0.6802 -0.1553  0.6439
20615SOL    HW179455   6.826  12.589  10.223  2.2041 -0.3976  1.4368
20615SOL    HW279456   6.794  12.737  10.232 -1.0180 -1.0059  1.4061
20616SOL     OW79457   1.215  12.764  10.311  0.1793  0.2175  0.0656
20616SOL    HW179458   1.252  12.814  10.238  0.8185 -0.5298 -0.1355
20616SOL    HW279459   1.232  12.818  10.388  3.0926 -0.7312  0.2179
20617SOL     OW79460  12.209   1.468   0.492  0.3378 -0.0236 -0.2678
20617SOL    HW179461  12.292   1.420   0.493  0.7707  0.5936 -2.0167
20617SOL    HW279462  12.160   1.430   0.419  0.6745  2.0521 -1.6972
20618SOL     OW79463   2.681   8.893   5.648  0.3592 -0.1322  0.0020
20618SOL    HW179464   2.763   8.909   5.694  1.0512  0.7906 -1.4902
20618SOL    HW279465   2.697   8.815   5.595 -0.0024 -0.4207  0.3072
20619SOL     OW79466   7.627   5.618  11.539 -0.4704  0.1543 -0.1962
20619SOL    HW179467   7.539   5.607  11.503 -1.0028 -1.4710  1.4273
20619SOL    HW279468   7.674   5.539  11.513 -0.4717 -0.4276  1.4282
20620SOL     OW79469   7.958   0.092  10.722 -0.1911  0.0616  0.0033
20620SOL    HW179470   7.908   0.134  10.792 -1.6267 -1.3899 -0.0819
20620SOL    HW279471   7.910   0.114  10.642  1.5684  1.9044 -0.6354
20621SOL     OW79472  11.600   9.028   0.182 -0.5217 -0.4496  0.0200
20621SOL    HW179473  11.655   9.033   0.104  0.1085 -0.4681  0.4532
20621SOL    HW279474  11.513   9.005   0.149  0.1666 -2.4373 -0.4995
20622SOL     OW79475   3.767   7.352   1.733 -0.5276 -0.8452 -0.6683
20622SOL    HW179476   3.822   7.295   1.788  1.8561  1.5034 -0.4365
20622SOL    HW279477   3.683   7.355   1.779 -0.7596 -3.9902 -0.6389
20623SOL     OW79478   9.492  11.762   2.953  0.3686 -0.0155 -0.3937
20623SOL    HW179479   9.515  11.670   2.967 -0.7125 -0.4762 -1.4002
20623SOL    HW279480   9.427  11.759   2.883  0.2906  1.5254 -0.4131
20624SOL     OW79481  11.025   2.288   8.897 -0.2331  0.9607  0.3126
20624SOL    HW179482  10.967   2.275   8.973 -0.3481 -1.4265 -0.1131
20624SOL    HW279483  11.100   2.336   8.933 -0.1383 -0.3774  2.0341
20625SOL     OW79484   3.179   3.416   3.287 -0.6688  0.2817  0.3520
20625SOL    HW179485   3.239   3.483   3.256 -0.5820 -0.0295 -0.1789
20625SOL    HW279486   3.164   3.361   3.210 -0.5936 -0.4095  0.8196
20626SOL     OW79487  11.026   5.260  10.359 -0.8854  0.4504  0.3232
20626SOL    HW179488  10.979   5.214  10.428 -0.2697  0.4490  0.7479
20626SOL    HW279489  11.095   5.309  10.404  1.5235 -1.9117 -0.4780
20627SOL     OW79490   2.328   9.009  13.613  0.1824  0.6705 -0.3216
20627SOL    HW179491   2.247   8.960  13.596  0.2728  0.9135 -1.5794
20627SOL    HW279492   2.304   9.100  13.600  1.1098  0.6389 -3.0191
20628SOL     OW79493   5.617  11.075  13.641  0.2654  0.1224 -0.1127
20628SOL    HW179494   5.698  11.041  13.603 -1.2155 -2.4932 -1.2381
20628SOL    HW279495   5.638  11.094  13.732  2.3812  0.6442 -0.6610
20629SOL     OW79496  11.793   2.106  10.257  0.6186  0.7357  0.1683
20629SOL    HW179497  11.788   2.028  10.202  2.5140  0.1329  0.7671
20629SOL    HW279498  11.730   2.090  10.327  2.3664 -1.2503  1.4067
20630SOL     OW79499   2.534  13.493   4.306  0.0534  0.1202  0.0085
20630SOL    HW179500   2.466  13.561   4.302  1.1680  1.3516  0.9016
20630SOL    HW279501   2.490  13.413   4.277 -1.7076  0.9200  0.3264
20631SOL     OW79502  10.251   4.576   1.117  0.2880  0.4237  0.1533
20631SOL    HW179503  10.285   4.663   1.138 -1.7210  1.4018 -0.3156
20631SOL    HW279504  10.210   4.547   1.198 -0.2152  0.5305 -0.0570
20632SOL     OW79505   5.297  12.368  11.470 -0.2532  0.3144  0.3685
20632SOL    HW179506   5.387  12.362  11.502 -0.9978  0.2644  2.6406
20632SOL    HW279507   5.280  12.283  11.430  0.2079 -0.3050  1.4383
20633SOL     OW79508   0.699  12.534   5.966 -0.9355 -0.0415  0.0639
20633SOL    HW179509   0.740  12.464   5.916  0.0496  0.9243 -0.5441
20633SOL    HW279510   0.605  12.517   5.960 -0.7764 -0.6118 -1.1356
20634SOL     OW79511   5.569   2.149   9.857 -0.4156  0.6995 -0.1359
20634SOL    HW179512   5.641   2.198   9.818  0.0357 -1.6655 -2.4882
20634SOL    HW279513   5.608   2.103   9.931  0.5395 -0.5015 -1.3449
20635SOL     OW79514   9.298   9.380   3.308 -0.3260 -0.0946  1.2195
20635SOL    HW179515   9.352   9.304   3.331  0.2545  0.5707  2.1014
20635SOL    HW279516   9.280   9.369   3.214  0.4635 -0.8689  1.1471
20636SOL     OW79517   3.346   8.510   8.893 -0.2761 -0.2966 -0.1736
20636SOL    HW179518   3.392   8.426   8.885 -0.9329 -0.6022 -0.9187
20636SOL    HW279519   3.410   8.569   8.933 -0.2785 -1.5444  1.8520
20637SOL     OW79520   3.069  11.680  12.678 -0.5401  0.8890  0.3834
20637SOL    HW179521   3.025  11.608  12.724 -1.4353  0.2732 -1.3424
20637SOL    HW279522   3.001  11.747  12.670 -0.2026  1.2440  0.4799
20638SOL     OW79523  11.570  11.002  11.001 -0.6357  0.4756  0.0131
20638SOL    HW179524  11.634  10.955  11.055 -0.8066  0.8532  0.5564
20638SOL    HW279525  11.520  10.933  10.957  1.0683  0.1787 -1.5495
20639SOL     OW79526   4.901   3.733   9.526 -0.0230 -0.2909  0.7175
20639SOL    HW179527   4.962   3.780   9.469 -0.3095  0.1702  0.7857
20639SOL    HW279528   4.864   3.664   9.470  1.2897 -1.2110  0.9520
20640SOL     OW79529   3.479   4.895   4.131  0.7901 -0.4896  0.1476
20640SOL    HW179530   3.412   4.833   4.159  1.5804 -0.1837  3.0407
20640SOL    HW279531   3.464   4.907   4.037 -2.2548 -1.5244  0.4159
20641SOL     OW79532   6.812  12.781   9.912  0.3458  0.1782 -0.2000
20641SOL    HW179533   6.832  12.761  10.003 -1.4222 -0.8227  0.0078
20641SOL    HW279534   6.754  12.858   9.916 -2.2831 -1.6745 -0.1880
20642SOL     OW79535   0.013   0.598   0.904  0.3967 -0.3911  0.2418
20642SOL    HW179536   0.011   0.652   0.826  0.8097 -1.0963 -0.2699
20642SOL    HW279537   0.060   0.650   0.969 -0.0884  0.2639  0.0755
20643SOL     OW79538   4.980   9.685  13.297  0.4690 -0.5321 -0.0735
20643SOL    HW179539   4.894   9.711  13.331 -0.9243 -2.9533 -1.3586
20643SOL    HW279540   5.023   9.767  13.273 -1.6796  0.7475  0.1970
20644SOL     OW79541   9.843   0.159   7.520 -0.5404  0.6521  0.0014
20644SOL    HW179542   9.818   0.072   7.487  3.0351 -0.5212 -0.0294
20644SOL    HW279543   9.821   0.219   7.449  0.2050 -0.7907 -1.5202
20645SOL     OW79544   2.856   9.013  11.094  0.3640 -0.1000 -0.1409
20645SOL    HW179545   2.804   9.027  11.174 -1.5115 -0.7166 -1.1777
20645SOL    HW279546   2.806   9.058  11.026  0.0954 -2.3596 -1.5463
20646SOL     OW79547   7.061   2.147   8.806  0.0603 -0.3243  0.1629
20646SOL    HW179548   7.034   2.055   8.815 -2.3968  0.3859  0.8746
20646SOL    HW279549   6.995   2.195   8.856  1.0184  1.8831 -0.6197
20647SOL     OW79550   3.976  12.686   6.999  0.1921 -0.2602 -0.6279
20647SOL    HW179551   4.043  12.710   7.063 -0.5469 -0.3448  0.2027
20647SOL    HW279552   3.927  12.615   7.042 -1.7294  1.1869 -0.3139
20648SOL     OW79553   3.515   3.916   0.584  0.6854 -0.4274  0.0661
20648SOL    HW179554   3.560   3.876   0.510  1.8205 -0.6699  0.8668
20648SOL    HW279555   3.527   4.010   0.572  2.2587 -0.5128  0.7635
20649SOL     OW79556   0.840   6.035   6.012  0.0543 -1.0053 -0.0394
20649SOL    HW179557   0.803   6.074   5.932 -2.9548  1.2336  2.2089
20649SOL    HW279558   0.934   6.035   5.997 -0.1167  2.6259 -2.2741
20650SOL     OW79559   0.675   5.640   8.778  0.0310 -0.4219 -0.3336
20650SOL    HW179560   0.607   5.636   8.710  1.1534 -1.0353 -1.4697
20650SOL    HW279561   0.754   5.669   8.731  0.6108  0.0940  0.9164
20651SOL     OW79562  11.174   0.724  11.418 -0.6052 -0.6670 -0.2062
20651SOL    HW179563  11.102   0.769  11.461 -0.0513  0.0120  0.0270
20651SOL    HW279564  11.245   0.789  11.414  0.3643 -1.6435  0.5211
20652SOL     OW79565  13.623   1.707   0.947  0.0309 -0.1191 -0.2150
20652SOL    HW179566  13.569   1.631   0.967 -0.9334  0.9091  1.2990
20652SOL    HW279567  13.707   1.670   0.921  0.5778 -1.7839  3.2832
20653SOL     OW79568  11.252   9.189  13.614  0.1234  0.2272  0.0140
20653SOL    HW179569  11.190   9.233  13.673 -0.5832 -1.5773  0.6804
20653SOL    HW279570  11.205   9.181  13.531 -0.6979 -1.4119  0.6076
20654SOL     OW79571   1.336   6.477   3.931  0.4902 -0.5830 -0.4453
20654SOL    HW179572   1.347   6.382   3.929  0.9358 -0.5330 -1.6762
20654SOL    HW279573   1.423   6.511   3.909 -0.2063  0.0222 -2.5025
20655SOL     OW79574  13.727  14.019   0.923 -0.8984  0.4667  0.0503
20655SOL    HW179575  13.784  14.097   0.922  1.1924 -0.9669  0.4101
20655SOL    HW279576  13.737  13.983   1.011 -1.4304 -0.4923 -0.2723
20656SOL     OW79577  10.583   2.553   3.604 -0.0030 -0.5242  0.2790
20656SOL    HW179578  10.577   2.481   3.666  0.3678 -0.9608 -0.1814
20656SOL    HW279579  10.524   2.529   3.533  0.2434 -0.4592  0.0482
20657SOL     OW79580  10.461   2.065   1.543  0.3926  0.0933 -0.0188
20657SOL    HW179581  10.386   2.055   1.484  1.4832 -3.0064 -1.0895
20657SOL    HW279582  10.452   1.992   1.605  1.7813  0.4983  0.6848
20658SOL     OW79583   8.030   3.327   6.464 -0.0286 -0.4016 -0.0997
20658SOL    HW179584   8.087   3.372   6.402  0.3592  0.3726  0.7904
20658SOL    HW279585   7.943   3.331   6.424  0.1480  0.4173 -0.4347
20659SOL     OW79586   9.342   7.589   2.607 -0.2377 -0.0622  0.7335
20659SOL    HW179587   9.435   7.592   2.584 -0.3698 -0.4002  0.1361
20659SOL    HW279588   9.314   7.501   2.582 -0.3494 -0.5350  2.3911
20660SOL     OW79589   0.209  13.771   8.091  0.1897  0.2276  0.2257
20660SOL    HW179590   0.145  13.815   8.035  0.4042  0.6029  0.2708
20660SOL    HW279591   0.257  13.842   8.132  0.5495 -0.0540  0.2933
20661SOL     OW79592  10.420   4.713   4.182  0.0586 -0.1443  0.1443
20661SOL    HW179593  10.370   4.640   4.215  1.0489 -0.3070  1.3600
20661SOL    HW279594  10.355   4.780   4.160 -0.7667 -0.9242  0.1842
20662SOL     OW79595   9.833  13.046   8.231 -0.2740  0.2126 -0.6421
20662SOL    HW179596   9.788  13.118   8.276  2.5052  2.0055 -0.4527
20662SOL    HW279597   9.897  13.014   8.294  1.5129  0.6244 -2.1186
20663SOL     OW79598   1.101   1.880  12.339 -0.6952 -0.2558 -0.0044
20663SOL    HW179599   1.042   1.869  12.414  1.1670  0.3932  1.6349
20663SOL    HW279600   1.166   1.943  12.369  1.5225 -1.7949 -1.2987
20664SOL     OW79601   4.750   4.392   2.246  0.4946  0.1658  0.1103
20664SOL    HW179602   4.785   4.302   2.244  0.7090  0.2031  1.2011
20664SOL    HW279603   4.789   4.430   2.325 -2.1248  0.1495  1.5262
20665SOL     OW79604   1.512   4.855  12.255  0.3526 -0.3511 -0.6591
20665SOL    HW179605   1.438   4.901  12.214 -1.5915 -0.1588  2.6500
20665SOL    HW279606   1.578   4.924  12.268  1.1019 -0.4556 -3.3757
20666SOL     OW79607   3.667   5.920   1.946  1.1264 -0.3888  0.6310
20666SOL    HW179608   3.651   5.833   1.982  1.3332 -0.5476  0.3406
20666SOL    HW279609   3.674   5.907   1.852 -0.8640  0.2353  0.3559
20667SOL     OW79610   8.715   9.002   1.109  0.4088 -0.1617  0.1657
20667SOL    HW179611   8.713   8.996   1.013 -0.3835 -3.5255  0.2703
20667SOL    HW279612   8.626   9.028   1.133  0.2142 -0.6827  0.0199
20668SOL     OW79613  13.937   5.881   4.602 -0.2794  0.3578  0.0458
20668SOL    HW179614  13.978   5.893   4.516 -0.2429 -3.7648 -0.7413
20668SOL    HW279615  13.843   5.893   4.585 -0.3287 -0.9060 -0.7997
20669SOL     OW79616   2.916   0.205   9.311 -0.1603 -0.1094  0.2193
20669SOL    HW179617   2.849   0.201   9.379 -1.4498 -1.7755 -1.0787
20669SOL    HW279618   2.922   0.298   9.288 -1.2355  0.1936  1.1225
20670SOL     OW79619   5.251   6.486   3.439  0.0440 -0.4398  0.1273
20670SOL    HW179620   5.244   6.496   3.534  0.3077  0.8762  0.0155
20670SOL    HW279621   5.163   6.505   3.407  0.4539  1.2604 -0.0530
20671SOL     OW79622   8.755   8.830  12.393  0.2531 -0.0786 -0.6427
20671SOL    HW179623   8.819   8.899  12.412  0.3791  0.2721 -2.1781
20671SOL    HW279624   8.761   8.771  12.468  1.3268  0.7157 -0.0623
20672SOL     OW79625   3.186   1.142   5.897  0.7182 -0.0034 -0.4347
20672SOL    HW179626   3.169   1.160   5.990  1.2737  0.1449 -0.3566
20672SOL    HW279627   3.280   1.159   5.887  0.8878 -1.1162 -0.7755
20673SOL     OW79628  13.855  12.856  10.094  0.2259  0.0739  0.2749
20673SOL    HW179629  13.764  12.886  10.098 -0.5476 -2.0316 -0.5056
20673SOL    HW279630  13.851  12.771  10.051  2.5086 -0.3867  0.8394
20674SOL     OW79631  10.047  12.840   5.991  0.0697  0.0290 -0.5356
20674SOL    HW179632  10.113  12.772   6.004 -1.5041 -1.4462  0.1700
20674SOL    HW279633   9.988  12.804   5.925  0.2914  1.5896 -1.6247
20675SOL     OW79634  14.043   9.494   1.630  0.1698 -0.0632 -0.2431
20675SOL    HW179635  14.043   9.578   1.677 -1.9731 -0.6422  0.9427
20675SOL    HW279636  14.112   9.443   1.672  0.4753  0.5876  0.0602
20676SOL     OW79637   2.120  10.778  13.631 -0.5094  0.2080 -0.1709
20676SOL    HW179638   2.026  10.774  13.618 -0.3033  0.3712 -1.9852
20676SOL    HW279639   2.134  10.861  13.677 -1.2535  0.0892  0.2871
20677SOL     OW79640  11.949   2.976   7.411 -0.2542  0.6083 -0.0276
20677SOL    HW179641  11.889   2.927   7.466 -1.2169  1.0861 -0.6232
20677SOL    HW279642  11.934   2.943   7.322  0.9210  0.1895 -0.0904
20678SOL     OW79643  10.593   6.206   1.456 -0.1970  0.8514  0.3861
20678SOL    HW179644  10.530   6.262   1.411 -1.5612 -0.9048  0.0000
20678SOL    HW279645  10.647   6.170   1.386 -2.1438 -1.6633  0.0231
20679SOL     OW79646   2.621  13.897   1.757 -0.0350 -0.2497 -0.2436
20679SOL    HW179647   2.695  13.837   1.774  0.9121  0.9322 -0.0564
20679SOL    HW279648   2.545  13.851   1.793  0.9407 -0.5809  1.5160
20680SOL     OW79649   8.489   5.891   6.758  0.2522  0.0661 -0.5384
20680SOL    HW179650   8.498   5.934   6.843  1.5923 -1.1513 -0.0247
20680SOL    HW279651   8.530   5.951   6.696  0.7117  0.2317 -0.0782
20681SOL     OW79652   4.839   6.819   0.184 -0.1165  0.2112  0.3686
20681SOL    HW179653   4.751   6.818   0.148 -0.5366  0.9512  1.3192
20681SOL    HW279654   4.858   6.728   0.205 -0.8098  0.0938  0.4923
20682SOL     OW79655   4.001   9.782  11.014  0.5608 -0.1012 -0.0605
20682SOL    HW179656   3.982   9.780  11.107  0.3229 -0.9346 -0.1194
20682SOL    HW279657   4.021   9.874  10.995  1.8687 -0.1215  1.0518
20683SOL     OW79658  13.204   1.105   8.868 -0.4602 -0.4127 -0.3190
20683SOL    HW179659  13.135   1.169   8.853 -0.3941  0.1323  1.4764
20683SOL    HW279660  13.257   1.108   8.789 -1.3964  0.5521 -0.9373
20684SOL     OW79661   3.942   0.057  10.705 -0.5156 -0.4877 -0.1160
20684SOL    HW179662   3.923   0.039  10.797 -1.8356  1.8838  0.1467
20684SOL    HW279663   3.943  -0.029  10.664  1.6823 -1.8058  2.3301
20685SOL     OW79664   6.494   3.268   3.415  0.0442  0.1309  0.0014
20685SOL    HW179665   6.447   3.351   3.406  1.7204  1.2349  0.9674
20685SOL    HW279666   6.563   3.272   3.350  0.4972 -0.2418  0.4505
20686SOL     OW79667   4.472  11.159   7.859 -0.4400  0.6047 -0.4820
20686SOL    HW179668   4.536  11.229   7.874  0.5265 -0.3841  0.1291
20686SOL    HW279669   4.524  11.085   7.828 -1.1279 -0.5711  1.0783
20687SOL     OW79670  11.833   5.708  11.099 -0.6722  0.0498  0.4309
20687SOL    HW179671  11.778   5.631  11.084 -1.0831  0.6921 -1.6674
20687SOL    HW279672  11.908   5.675  11.148 -0.6550 -1.7590 -0.7376
20688SOL     OW79673   4.214   1.294   2.629 -0.1025  0.2458  0.6655
20688SOL    HW179674   4.196   1.204   2.604 -1.1929  0.4222  0.7559
20688SOL    HW279675   4.237   1.338   2.547 -3.0938  0.6872 -0.0883
20689SOL     OW79676  12.698  10.760   3.289 -0.1339  0.1612  0.1436
20689SOL    HW179677  12.736  10.672   3.284  0.0758  0.1906  1.1147
20689SOL    HW279678  12.768  10.815   3.322 -0.0448  0.8497 -1.1307
20690SOL     OW79679   8.003   7.203   2.538  0.4059  0.1952  0.1837
20690SOL    HW179680   8.096   7.193   2.557  0.9757  1.7842 -1.4387
20690SOL    HW279681   7.997   7.195   2.443 -1.2079 -0.3505  0.2951
20691SOL     OW79682  12.187   2.709   7.919 -0.1201 -0.5304  0.0611
20691SOL    HW179683  12.163   2.788   7.969  1.7544  0.2058 -0.1078
20691SOL    HW279684  12.139   2.717   7.837 -1.2842 -0.4651  0.7271
20692SOL     OW79685   5.325  10.950   5.747 -0.0737  0.6714  0.0176
20692SOL    HW179686   5.337  10.918   5.658  1.9107  1.3919 -0.0173
20692SOL    HW279687   5.276  11.032   5.737  0.8093  1.1450 -0.4935
20693SOL     OW79688   9.495   6.664   2.951  0.2226  0.0962 -0.2848
20693SOL    HW179689   9.488   6.753   2.985  2.9974  1.0033 -1.7336
20693SOL    HW279690   9.588   6.642   2.961 -0.0732 -1.9822 -1.4889
20694SOL     OW79691   7.999  11.749   5.565 -0.0875 -0.2429 -0.3516
20694SOL    HW179692   8.016  11.839   5.592 -0.5362 -0.2557 -0.0117
20694SOL    HW279693   8.032  11.744   5.475 -1.7818  0.8127 -1.0772
20695SOL     OW79694   6.278   9.036   2.556 -0.1759 -0.3433 -0.2025
20695SOL    HW179695   6.245   8.958   2.510 -0.3345  0.2504 -1.1148
20695SOL    HW279696   6.201   9.072   2.601 -0.1629 -0.5432 -0.0182
20696SOL     OW79697   4.747   4.997   3.092 -0.0090 -0.0615  0.4981
20696SOL    HW179698   4.697   5.007   3.011  2.0150 -0.2187 -0.8375
20696SOL    HW279699   4.787   5.083   3.106 -0.4821  0.0214  1.4658
20697SOL     OW79700   3.940  13.504   0.412 -0.0539  0.4841  0.3985
20697SOL    HW179701   3.985  13.554   0.344 -3.7341  1.7672 -1.3679
20697SOL    HW279702   3.875  13.564   0.448 -1.9246 -1.7967  1.1006
20698SOL     OW79703   1.364   6.351   8.132  0.4065  0.1536  0.7227
20698SOL    HW179704   1.399   6.304   8.208 -0.3888 -0.0046  1.0017
20698SOL    HW279705   1.279   6.384   8.161  0.4602  0.8038  0.1627
20699SOL     OW79706   2.982  10.943   7.434  0.2002 -0.5140  0.3117
20699SOL    HW179707   2.928  11.016   7.466 -0.0456 -1.6850  2.8318
20699SOL    HW279708   3.070  10.979   7.427 -0.1754  0.3895  0.0273
20700SOL     OW79709   0.146  13.855   2.685  0.2502 -0.2295  0.1270
20700SOL    HW179710   0.234  13.830   2.657  0.9073  0.8722  1.0699
20700SOL    HW279711   0.152  13.949   2.702 -1.2459 -0.0417 -0.2365
20701SOL     OW79712  10.504   2.024  10.828 -0.0832 -0.5058 -0.6172
20701SOL    HW179713  10.428   2.055  10.877  2.1708  1.8517  1.7503
20701SOL    HW279714  10.473   2.012  10.739 -2.9139  1.5604 -0.0370
20702SOL     OW79715   0.993   0.538   2.099 -0.2836 -0.1896 -0.3546
20702SOL    HW179716   0.937   0.470   2.060 -0.1525 -0.8083  0.4971
20702SOL    HW279717   1.081   0.517   2.069 -0.2233 -0.4949  0.0201
20703SOL     OW79718   2.927   3.527   5.308  0.4037  0.3535 -0.2529
20703SOL    HW179719   3.006   3.473   5.310 -1.0661 -2.0057 -0.5557
20703SOL    HW279720   2.917   3.550   5.216 -0.0871 -0.7819 -0.5109
20704SOL     OW79721   4.668   6.912   6.548  0.3280 -0.1471  0.0827
20704SOL    HW179722   4.692   6.983   6.489 -1.1802  0.2807 -0.0755
20704SOL    HW279723   4.644   6.956   6.630  2.3926 -0.7360  1.0705
20705SOL     OW79724   6.157  13.536   4.006 -0.3416 -0.2270 -0.1020
20705SOL    HW179725   6.181  13.578   3.923 -2.8529  1.0258 -0.2586
20705SOL    HW279726   6.189  13.446   3.997  2.1686  0.6682 -1.1218
20706SOL     OW79727   3.370   9.782  13.386 -0.0956  0.3415 -0.5140
20706SOL    HW179728   3.388   9.873  13.364 -0.9286 -0.0370 -3.2071
20706SOL    HW279729   3.409   9.732  13.314  0.2824 -1.4651  0.8525
20707SOL     OW79730   6.629   9.926  12.446 -0.2706 -0.6614 -1.0168
20707SOL    HW179731   6.570   9.995  12.416 -1.4429 -1.1333  0.1315
20707SOL    HW279732   6.605   9.849  12.394 -0.2743 -0.7137 -0.9368
20708SOL     OW79733   1.384  12.572   0.931 -0.9603  0.3463  0.0648
20708SOL    HW179734   1.292  12.583   0.952 -1.3534 -0.0583 -1.3301
20708SOL    HW279735   1.411  12.494   0.979 -0.5334  2.0213  2.7771
20709SOL     OW79736   0.366  11.963   5.490 -0.0921  0.0368 -0.1535
20709SOL    HW179737   0.427  11.996   5.424  0.0472  2.6496  1.1106
20709SOL    HW279738   0.419  11.958   5.570 -1.0491  0.4121  0.5199
20710SOL     OW79739  11.554   0.813   5.780  0.1662  0.5781  0.0086
20710SOL    HW179740  11.613   0.888   5.792 -0.3666  1.0972 -0.5352
20710SOL    HW279741  11.556   0.767   5.864  0.3579  1.3146  0.4148
20711SOL     OW79742   8.191   8.938   5.369 -0.0640 -0.3366 -0.1518
20711SOL    HW179743   8.245   8.909   5.295 -0.5101 -0.2840 -0.4988
20711SOL    HW279744   8.166   8.857   5.414  1.2218 -0.3084  0.6713
20712SOL     OW79745  13.776  11.956   1.573  0.3326  0.3131  0.6966
20712SOL    HW179746  13.696  11.983   1.527 -0.0888  0.1446  1.3204
20712SOL    HW279747  13.840  12.024   1.552 -0.5805  1.5920  1.8740
20713SOL     OW79748  11.409   6.609   5.705 -0.1987 -0.6716 -0.2994
20713SOL    HW179749  11.429   6.569   5.790 -0.3675 -0.1810 -0.0233
20713SOL    HW279750  11.399   6.535   5.645  0.8991 -0.9858 -0.1113
20714SOL     OW79751   3.976   4.203   9.276  0.2266 -0.4315  0.0066
20714SOL    HW179752   4.005   4.284   9.236  0.1307  0.4578  1.6619
20714SOL    HW279753   4.054   4.147   9.278  1.1225  0.7805  1.6032
20715SOL     OW79754   9.893   0.458  12.718 -0.5753  0.8305 -0.1465
20715SOL    HW179755   9.829   0.471  12.788 -0.8084 -1.5583  0.1915
20715SOL    HW279756   9.852   0.497  12.641 -1.0934  1.9646  0.6678
20716SOL     OW79757   6.975   6.997   4.763 -0.9900  0.1712 -0.2436
20716SOL    HW179758   7.062   6.959   4.752 -0.9408 -0.0735  0.8654
20716SOL    HW279759   6.938   6.950   4.838 -0.9937  2.2015  1.1013
20717SOL     OW79760   5.853   8.231   2.366  0.0278 -0.3023 -0.4664
20717SOL    HW179761   5.806   8.313   2.351 -1.2884 -1.1320 -1.1109
20717SOL    HW279762   5.879   8.235   2.458 -1.6892  0.0302  0.0450
20718SOL     OW79763   3.111  11.246   5.574 -0.5611 -0.0775  0.1990
20718SOL    HW179764   3.175  11.176   5.558  0.5936  1.4285 -2.5202
20718SOL    HW279765   3.099  11.287   5.488 -0.9902  3.2126  1.6903
20719SOL     OW79766   7.281  10.264  12.112 -0.2551  0.4981 -0.0693
20719SOL    HW179767   7.376  10.252  12.109  0.0303  1.4683  2.4360
20719SOL    HW279768   7.245  10.175  12.109  0.8448  0.0221  0.4253
20720SOL     OW79769   4.482   1.724   0.204 -0.2023 -0.1094 -0.0074
20720SOL    HW179770   4.558   1.777   0.179 -0.8861  0.8121 -0.2216
20720SOL    HW279771   4.422   1.787   0.244 -1.2065 -0.6541 -0.6287
20721SOL     OW79772   3.750   9.333   7.659  0.0691  0.0139  0.0039
20721SOL    HW179773   3.685   9.386   7.614  1.4969 -0.2137 -2.4605
20721SOL    HW279774   3.767   9.259   7.601  3.3245  0.6383 -0.0559
20722SOL     OW79775   5.773  12.528  12.377 -0.0426 -0.1543 -0.3384
20722SOL    HW179776   5.701  12.574  12.420 -2.9211 -2.5352 -2.2167
20722SOL    HW279777   5.804  12.465  12.443 -1.8466 -1.2146 -0.4483
20723SOL     OW79778   6.921  11.281   7.780 -0.4107  0.0150 -0.4283
20723SOL    HW179779   6.906  11.233   7.862  0.9143 -1.6044 -1.0807
20723SOL    HW279780   6.928  11.372   7.807  2.1678 -0.6727  1.6328
20724SOL     OW79781  12.690  13.269   5.218  0.0490 -0.4440 -0.5488
20724SOL    HW179782  12.768  13.324   5.229 -0.0845 -0.0236 -1.6190
20724SOL    HW279783  12.723  13.189   5.179  0.1918 -1.0285  0.7026
20725SOL     OW79784   3.856   4.166  10.890 -0.0080  0.2671  0.0539
20725SOL    HW179785   3.936   4.135  10.850 -0.7134 -0.7675 -0.5874
20725SOL    HW279786   3.787   4.109  10.857 -0.9275  0.6980  1.1072
20726SOL     OW79787   2.451   1.863   9.594  0.2012  0.1658 -0.7240
20726SOL    HW179788   2.431   1.915   9.672  0.0052 -0.3487 -0.4247
20726SOL    HW279789   2.473   1.928   9.527  0.1721  0.6230 -0.2992
20727SOL     OW79790  10.932   5.299   0.123  0.3837 -0.2375  0.4405
20727SOL    HW179791  10.943   5.254   0.039  0.1042  2.1292 -0.9313
20727SOL    HW279792  10.841   5.328   0.123  0.9777  1.7343  0.5009
20728SOL     OW79793   7.784  10.206   5.918  0.4996  0.3083  0.1794
20728SOL    HW179794   7.725  10.139   5.952  0.1068  0.0527 -0.9615
20728SOL    HW279795   7.734  10.288   5.923  0.1355  0.1373 -0.5208
20729SOL     OW79796  11.632  13.910   0.609 -0.4654 -0.5273 -0.4426
20729SOL    HW179797  11.555  13.919   0.551 -0.2698 -0.2766 -0.6689
20729SOL    HW279798  11.656  13.818   0.602 -1.1294 -0.7552  0.1273
20730SOL     OW79799  13.731   6.638   4.570  0.0802 -0.3146  0.2993
20730SOL    HW179800  13.710   6.721   4.528 -1.7499 -0.5439  0.7043
20730SOL    HW279801  13.810   6.608   4.525  2.4210  2.8875  1.9314
20731SOL     OW79802   2.564   5.065   3.945  0.4618  0.5773  0.4990
20731SOL    HW179803   2.650   5.068   3.902  0.2466 -1.4254 -0.1982
20731SOL    HW279804   2.508   5.121   3.893  1.3864  2.1693  1.1439
20732SOL     OW79805   5.692   2.031  12.225 -0.1706  0.3894  0.0959
20732SOL    HW179806   5.678   1.947  12.180 -0.8720  0.5525 -0.0101
20732SOL    HW279807   5.608   2.049  12.267 -0.4487  1.6584 -0.9313
20733SOL     OW79808   3.422  12.845   0.020  0.3791  0.0088  0.1026
20733SOL    HW179809   3.403  12.816   0.109 -0.9789 -0.8239 -0.4207
20733SOL    HW279810   3.457  12.767  -0.023  0.3332  0.2006 -0.2820
20734SOL     OW79811   8.953   3.159   9.711  0.3775  0.6351 -0.1627
20734SOL    HW179812   8.927   3.128   9.797  0.1953 -0.3774 -0.5735
20734SOL    HW279813   9.036   3.205   9.726  0.8869 -0.4293  0.4064
20735SOL     OW79814   0.613   7.729   7.954  0.5610  0.2191  0.1415
20735SOL    HW179815   0.548   7.692   8.014  0.0655 -0.5574 -0.8483
20735SOL    HW279816   0.649   7.804   8.002 -0.7725  0.4333  0.8772
20736SOL     OW79817   0.556   5.096  11.183  0.6229  0.1286  0.1937
20736SOL    HW179818   0.531   5.125  11.095 -0.3790 -2.9237 -0.6803
20736SOL    HW279819   0.472   5.085  11.229  1.0545  0.2791  1.0371
20737SOL     OW79820   0.725   8.939  13.885  0.1937 -0.2225 -0.0402
20737SOL    HW179821   0.735   8.946  13.980  2.2966  0.7542 -0.2706
20737SOL    HW279822   0.760   9.021  13.851 -2.1124  0.2099 -1.6244
20738SOL     OW79823   4.843  11.997   0.692  0.5709 -0.0752  0.2385
20738SOL    HW179824   4.839  12.000   0.596 -0.0992  0.7860  0.2788
20738SOL    HW279825   4.835  12.089   0.719  1.3278 -0.2493  1.1067
20739SOL     OW79826   3.001   4.972  11.977 -0.3670  0.6235 -0.2631
20739SOL    HW179827   3.057   4.943  11.905  0.4942  0.9994  0.2433
20739SOL    HW279828   3.026   5.063  11.991 -1.5570  1.0037 -0.4364
20740SOL     OW79829   4.103   8.062   9.594  0.4658  0.3491 -0.0176
20740SOL    HW179830   4.123   8.119   9.520 -1.1344 -0.1532 -0.8986
20740SOL    HW279831   4.015   8.089   9.620 -0.7943 -2.3416 -1.1483
20741SOL     OW79832  13.267  12.955   3.635  0.1018  0.1400  0.1413
20741SOL    HW179833  13.232  12.867   3.623 -0.5678  0.5930 -1.4851
20741SOL    HW279834  13.278  12.989   3.546 -3.2629  3.0905  0.6613
20742SOL     OW79835   8.347  12.766   0.430 -0.5469  0.8446 -0.4208
20742SOL    HW179836   8.434  12.791   0.399 -0.1887  0.8646  0.5578
20742SOL    HW279837   8.353  12.672   0.447  0.2179  1.3072  2.4112
20743SOL     OW79838  13.482   5.581   6.028  0.2119 -0.2145 -0.8069
20743SOL    HW179839  13.440   5.509   6.075 -1.3468  1.8807  1.1975
20743SOL    HW279840  13.421   5.654   6.036  2.3747  1.7806 -1.4653
20744SOL     OW79841  14.056  10.643   1.026  0.1535  0.3338  0.0105
20744SOL    HW179842  14.012  10.560   1.009  0.5732  0.2073 -0.4971
20744SOL    HW279843  13.990  10.709   1.009 -0.5955  0.0892  1.7016
20745SOL     OW79844  12.843  10.895   1.737  0.6008  0.6142 -0.1976
20745SOL    HW179845  12.801  10.809   1.731 -0.7857  1.3381 -1.5543
20745SOL    HW279846  12.908  10.894   1.667  1.6043  0.1614  0.7238
20746SOL     OW79847  13.501   1.249  11.901  0.5072 -0.5532 -0.5781
20746SOL    HW179848  13.412   1.231  11.872 -0.1472  0.6828  0.5634
20746SOL    HW279849  13.543   1.291  11.825 -0.0260 -0.6906 -0.9529
20747SOL     OW79850   8.735   2.646   2.920  0.8157  0.0656  0.3660
20747SOL    HW179851   8.700   2.564   2.886 -0.1219  0.5113  0.2165
20747SOL    HW279852   8.821   2.654   2.880  1.0005 -0.9382  0.5402
20748SOL     OW79853   8.877   5.339   4.310 -0.5637 -0.1414 -0.1441
20748SOL    HW179854   8.829   5.393   4.374  0.8592 -0.3522  1.1583
20748SOL    HW279855   8.809   5.307   4.250 -2.0269 -0.2265  1.4668
20749SOL     OW79856   8.523  11.313   9.607 -0.1876 -0.0067  0.1410
20749SOL    HW179857   8.544  11.219   9.607 -0.8216 -0.3129 -3.5207
20749SOL    HW279858   8.443  11.320   9.658 -0.2431 -1.5123  0.3118
20750SOL     OW79859   8.789   3.955   4.413 -0.1749 -0.5930  0.0934
20750SOL    HW179860   8.749   3.868   4.416  1.1981 -1.3126 -0.9208
20750SOL    HW279861   8.816   3.966   4.322  2.5522 -0.5058  0.8307
20751SOL     OW79862  12.483  11.326   3.811  0.5314  0.4755  0.0354
20751SOL    HW179863  12.389  11.339   3.823  0.3500 -1.5240  1.2821
20751SOL    HW279864  12.509  11.392   3.747 -1.1111  3.1080  1.8936
20752SOL     OW79865   5.890  11.574   7.439  0.1902  0.1158 -0.7848
20752SOL    HW179866   5.799  11.545   7.442  0.0690  0.5795  0.3885
20752SOL    HW279867   5.940  11.502   7.479 -0.1795  1.6235  2.7351
20753SOL     OW79868   7.813  11.021   8.232 -0.4595 -0.3564  0.0293
20753SOL    HW179869   7.769  11.103   8.253  0.6773  0.2395  0.1420
20753SOL    HW279870   7.815  10.974   8.315  0.0831  0.0882  0.2737
20754SOL     OW79871   5.702   0.547   2.603  0.5165  0.3569 -0.4981
20754SOL    HW179872   5.789   0.519   2.574  0.0901 -0.1035 -1.3920
20754SOL    HW279873   5.698   0.522   2.695  1.4912  0.7913 -0.3202
20755SOL     OW79874   6.128  11.401  12.506 -0.2241 -0.6456  0.3205
20755SOL    HW179875   6.117  11.320  12.555  0.0592 -0.4043  0.7988
20755SOL    HW279876   6.039  11.435  12.495 -0.2879 -0.6652  0.7468
20756SOL     OW79877  14.027  10.707  12.813 -0.7112  0.1706  0.0131
20756SOL    HW179878  14.053  10.692  12.904  0.1671  0.4082 -0.1857
20756SOL    HW279879  13.936  10.678  12.809 -0.5050 -0.6315  0.7646
20757SOL     OW79880  13.175   5.636   1.883  0.4347 -0.1472 -0.3526
20757SOL    HW179881  13.097   5.590   1.850 -1.3291  1.0504  1.8709
20757SOL    HW279882  13.239   5.566   1.896 -0.1597 -1.1571 -2.3931
20758SOL     OW79883   5.214   4.251   8.006  0.1951  0.4817  0.1319
20758SOL    HW179884   5.211   4.201   7.924  0.2414  1.5005 -0.5056
20758SOL    HW279885   5.302   4.288   8.008 -0.4792  2.2092 -0.4459
20759SOL     OW79886   2.515  13.168   6.871 -0.7366 -0.4891 -0.4383
20759SOL    HW179887   2.443  13.225   6.897  0.0050  0.3686 -0.2194
20759SOL    HW279888   2.572  13.164   6.948  1.6840  2.3691 -1.8769
20760SOL     OW79889  12.405   0.830   3.582  0.3678 -0.0952 -0.0090
20760SOL    HW179890  12.448   0.747   3.562  0.7366  0.6883 -2.8980
20760SOL    HW279891  12.313   0.808   3.594  0.3268 -0.8504 -1.5508
20761SOL     OW79892  10.614   4.175  13.876 -0.2743 -0.4215 -0.1437
20761SOL    HW179893  10.623   4.270  13.868 -1.0125 -0.3095  0.2769
20761SOL    HW279894  10.703   4.144  13.895  0.0118  0.1591 -0.5099
20762SOL     OW79895  13.315  11.041   1.347  0.2283 -0.2061  0.3894
20762SOL    HW179896  13.250  10.981   1.310  0.6187  0.5098 -1.5983
20762SOL    HW279897  13.398  10.993   1.340  0.5644  0.5589 -1.3451
20763SOL     OW79898   4.249   5.553  13.837 -0.2522  0.2986 -0.0908
20763SOL    HW179899   4.227   5.642  13.807 -0.2484  1.1680  2.2993
20763SOL    HW279900   4.345   5.552  13.837 -0.2532  0.1898 -0.4044
20764SOL     OW79901   8.970   4.766  13.779  0.3793 -0.2480 -0.2297
20764SOL    HW179902   8.909   4.825  13.824  0.8751  0.1758 -0.1011
20764SOL    HW279903   8.931   4.752  13.693  1.6867  2.7225 -1.4559
20765SOL     OW79904   1.754   3.770   4.017 -0.0514  0.5852  0.2415
20765SOL    HW179905   1.848   3.781   4.036  0.4490 -1.8833 -0.4284
20765SOL    HW279906   1.710   3.815   4.089  1.6455  1.3161  0.8906
20766SOL     OW79907   1.560   5.171  13.973 -0.3388  0.3368 -0.1639
20766SOL    HW179908   1.536   5.085  14.006 -0.0193  0.7476  1.1959
20766SOL    HW279909   1.655   5.175  13.983 -0.4191  1.0830  0.3818
20767SOL     OW79910   9.203   4.666  14.031  1.0803  0.2091  0.0723
20767SOL    HW179911   9.235   4.668  13.941  0.2459 -1.7710 -0.3257
20767SOL    HW279912   9.238   4.585  14.068 -0.9583 -0.5331  0.5466
20768SOL     OW79913   1.911   7.381   0.711 -0.1468  0.4871 -0.4413
20768SOL    HW179914   1.958   7.409   0.790 -0.5021 -0.3882  0.1038
20768SOL    HW279915   1.825   7.354   0.744  0.2638 -1.4905 -0.8555
20769SOL     OW79916   6.698   0.155   6.238 -0.0717  0.4723  0.0008
20769SOL    HW179917   6.789   0.130   6.224 -0.1507  1.5494 -3.2579
20769SOL    HW279918   6.648   0.092   6.186 -1.2134  0.2261  1.3226
20770SOL     OW79919   6.577   9.852  13.948  0.0203  0.3028 -0.0694
20770SOL    HW179920   6.485   9.824  13.951 -0.0499  0.4242 -0.9770
20770SOL    HW279921   6.586   9.911  14.023 -0.6514  0.3241  0.0038
20771SOL     OW79922   4.097   1.554   9.834  0.1931 -0.1950 -0.5897
20771SOL    HW179923   4.138   1.490   9.776 -2.0472 -1.6318 -0.7076
20771SOL    HW279924   4.078   1.505   9.914 -0.3387  0.7027 -0.1561
20772SOL     OW79925   2.646   9.046  11.253 -0.0119 -0.2556 -0.0961
20772SOL    HW179926   2.640   9.125  11.306 -1.7678  0.0948 -0.7496
20772SOL    HW279927   2.585   9.061  11.181  2.0088 -0.8600 -2.0604
20773SOL     OW79928  11.724   1.937  11.115  0.5977  0.4919 -0.2316
20773SOL    HW179929  11.747   1.943  11.208  1.9408  1.0377 -0.5802
20773SOL    HW279930  11.631   1.956  11.112  0.3991 -0.1643  1.0738
20774SOL     OW79931  10.303   2.488   8.073 -0.0635 -0.7432 -0.1855
20774SOL    HW179932  10.339   2.421   8.015  1.4316  0.1666 -0.3658
20774SOL    HW279933  10.376   2.509   8.132  0.0008  1.7555 -1.0631
20775SOL     OW79934   6.667   2.811   3.823  0.1360  0.4057 -0.1583
20775SOL    HW179935   6.740   2.822   3.884  1.3510  3.9666 -2.0284
20775SOL    HW279936   6.707   2.781   3.742 -0.9498 -0.5477 -0.3739
20776SOL     OW79937   5.141  10.419   0.042 -1.0444  0.1193 -0.4277
20776SOL    HW179938   5.085  10.431  -0.035 -0.6564 -1.3004 -0.9554
20776SOL    HW279939   5.090  10.361   0.099 -1.4772  1.4308  0.5709
20777SOL     OW79940   9.541   3.960   4.220 -0.3561  0.1179  0.1169
20777SOL    HW179941   9.451   3.934   4.202 -0.5949  0.8772  0.1748
20777SOL    HW279942   9.569   3.904   4.292 -1.4549  1.1639  1.4116
20778SOL     OW79943   0.010   6.322   9.769  0.4712  0.6663 -0.5317
20778SOL    HW179944  -0.001   6.259   9.698 -0.2064  0.4869 -0.2724
20778SOL    HW279945   0.038   6.269   9.844  0.4288  0.7512 -0.4559
20779SOL     OW79946   0.396  13.109   0.638 -0.3266  0.0267 -0.5017
20779SOL    HW179947   0.324  13.066   0.591  0.7997 -0.0495 -2.2648
20779SOL    HW279948   0.358  13.193   0.666 -1.6624 -0.8288  0.3589
20780SOL     OW79949   2.384   5.621   4.870  0.8209 -0.2141 -0.1805
20780SOL    HW179950   2.311   5.595   4.925  0.7281  1.2750  0.4479
20780SOL    HW279951   2.442   5.670   4.928  0.9619  0.9754 -1.2673
20781SOL     OW79952   6.690   0.193   0.254 -0.3280 -0.4791 -0.0352
20781SOL    HW179953   6.740   0.153   0.325  1.0443  0.3259 -0.5275
20781SOL    HW279954   6.644   0.266   0.295 -2.1500 -1.9408  0.6791
20782SOL     OW79955  13.726   2.016   8.842  0.3366 -0.1633 -0.1092
20782SOL    HW179956  13.801   1.984   8.892  0.6238  0.3722 -0.1856
20782SOL    HW279957  13.697   2.095   8.889  0.2817  0.0477 -0.4864
20783SOL     OW79958  12.674   6.492   7.784 -0.2092 -0.0833  0.0003
20783SOL    HW179959  12.661   6.585   7.801 -0.6593  0.2395 -1.8757
20783SOL    HW279960  12.745   6.489   7.719 -1.5025 -0.8877 -1.4463
20784SOL     OW79961   8.908   3.963  12.435  1.0899 -0.2796 -0.1137
20784SOL    HW179962   8.917   3.867  12.437  0.0799 -0.4200 -0.9742
20784SOL    HW279963   8.831   3.978  12.380  1.6360  1.0596 -0.5615
20785SOL     OW79964   7.451   3.888   9.309  0.3680  0.2885  0.5759
20785SOL    HW179965   7.388   3.826   9.346 -0.1849  0.3916 -0.1805
20785SOL    HW279966   7.415   3.974   9.329 -0.5572  0.3523 -1.1935
20786SOL     OW79967   1.755   6.302   7.953  0.6304 -0.0530 -0.0802
20786SOL    HW179968   1.723   6.212   7.949  2.0970 -0.5789 -0.7392
20786SOL    HW279969   1.686   6.354   7.910 -0.3337 -0.8040  0.5110
20787SOL     OW79970  12.648   9.432  12.567  0.1651  0.3997 -0.2936
20787SOL    HW179971  12.604   9.475  12.493 -2.5820 -1.1250  0.3169
20787SOL    HW279972  12.595   9.454  12.643  0.7047 -1.1915  0.5915
20788SOL     OW79973   9.795  13.840   4.499 -0.1717 -0.4498 -0.3323
20788SOL    HW179974   9.748  13.798   4.427  1.2039  0.9940 -2.1691
20788SOL    HW279975   9.807  13.930   4.470  0.7576  0.0779  1.5641
20789SOL     OW79976   9.741   4.986   3.655 -0.0203 -0.1881 -0.2194
20789SOL    HW179977   9.811   4.945   3.704 -0.5707 -0.2659  0.5263
20789SOL    HW279978   9.684   4.913   3.629  0.0163 -0.0976 -0.5505
20790SOL     OW79979   8.305   0.956   8.429  0.4502  0.6036  0.0969
20790SOL    HW179980   8.253   0.941   8.350 -1.1292  1.2917  0.9716
20790SOL    HW279981   8.281   1.044   8.458  0.8848  0.3109  1.4242
20791SOL     OW79982   3.114   8.895   5.379 -0.4690 -0.1004  0.2312
20791SOL    HW179983   3.161   8.835   5.321 -1.7610 -0.5899 -0.3495
20791SOL    HW279984   3.059   8.838   5.432 -2.2263  0.5729 -0.7996
20792SOL     OW79985  13.165   9.338   1.352 -0.0502  0.2152 -0.1617
20792SOL    HW179986  13.190   9.389   1.429  0.5260 -0.6266  0.2272
20792SOL    HW279987  13.223   9.368   1.283  0.0745  0.3104 -0.0165
20793SOL     OW79988   3.489   4.446  10.556 -0.2427 -0.1249 -0.4387
20793SOL    HW179989   3.556   4.428  10.490  0.2793  0.2172 -0.0038
20793SOL    HW279990   3.407   4.422  10.513  0.1599 -0.6450 -0.9399
20794SOL     OW79991   7.483   9.514   6.655 -0.1545 -0.1799 -0.2756
20794SOL    HW179992   7.394   9.490   6.630 -0.5363 -0.6406  1.3760
20794SOL    HW279993   7.491   9.606   6.630  0.0332 -0.9099 -3.2708
20795SOL     OW79994  12.117   8.171   5.881 -0.1881 -0.2570 -0.2905
20795SOL    HW179995  12.194   8.129   5.844  1.2030 -1.4599  3.4662
20795SOL    HW279996  12.139   8.264   5.883  0.2979 -0.3504 -1.0805
20796SOL     OW79997   7.857   1.443   1.150 -0.0196 -0.0306  0.0374
20796SOL    HW179998   7.782   1.383   1.153  0.6473 -0.9459 -0.9300
20796SOL    HW279999   7.865   1.475   1.240 -0.1720 -1.7060  0.6939
20797SOL     OW80000   6.824  10.818   0.637  0.4062 -0.6050  0.0522
20797SOL    HW180001   6.745  10.864   0.608  1.0173 -0.3973 -1.4004
20797SOL    HW280002   6.824  10.737   0.586 -0.9728 -2.6100  3.0139
20798SOL     OW80003   4.398   6.073   7.906  0.0964  0.0189 -0.4275
20798SOL    HW180004   4.443   6.046   7.987  1.5504  2.0960 -0.4746
20798SOL    HW280005   4.315   6.111   7.936 -0.0832 -0.6557 -0.0516
20799SOL     OW80006   4.027   6.665   4.632 -0.6323  0.4243  0.0657
20799SOL    HW180007   4.106   6.620   4.660  0.3462  1.2347 -1.2989
20799SOL    HW280008   3.978   6.600   4.582 -1.5901 -0.5187  2.0782
20800SOL     OW80009   4.324   7.168   5.379  0.0398 -0.0375  0.0286
20800SOL    HW180010   4.337   7.216   5.297  0.6686  0.3932  0.3745
20800SOL    HW280011   4.411   7.132   5.399 -0.5185 -1.7827 -0.5024
20801SOL     OW80012   9.803  12.328   7.190  0.8111 -0.4076 -0.4906
20801SOL    HW180013   9.855  12.269   7.244 -0.1500 -1.5674 -0.8010
20801SOL    HW280014   9.795  12.408   7.243  2.0729 -0.5554 -0.0448
20802SOL     OW80015  12.343   3.008   0.876  1.0716  0.3428 -0.5133
20802SOL    HW180016  12.346   2.971   0.964  1.0284  1.6801  0.0724
20802SOL    HW280017  12.358   3.102   0.889 -4.3679  1.6201 -1.2603
20803SOL     OW80018   3.358   8.388  12.324 -0.2027  0.4882 -0.0377
20803SOL    HW180019   3.363   8.480  12.296 -1.9933  0.6357  0.0354
20803SOL    HW280020   3.443   8.351  12.299  0.0691  1.8388 -1.2459
20804SOL     OW80021   7.742   0.180  13.762  0.1372 -0.0831 -0.1389
20804SOL    HW180022   7.722   0.108  13.702 -0.7596 -0.2583  0.3465
20804SOL    HW280023   7.762   0.254  13.705 -2.0584  0.1384 -0.7168
20805SOL     OW80024   6.844   0.944  12.538 -0.3461  0.6534 -0.1406
20805SOL    HW180025   6.828   1.039  12.537 -0.9586  0.5565 -0.5219
20805SOL    HW280026   6.786   0.911  12.606 -1.1712  0.3988 -0.9413
20806SOL     OW80027  13.723   8.788  10.033 -0.3138  0.1625  0.8165
20806SOL    HW180028  13.717   8.863   9.974  0.1692 -0.9106 -0.6488
20806SOL    HW280029  13.633   8.774  10.062 -1.1167 -0.9397 -1.8769
20807SOL     OW80030   1.089   5.890   6.627  0.2085  0.4006 -0.1404
20807SOL    HW180031   1.077   5.799   6.654 -0.1301  0.8147  1.1848
20807SOL    HW280032   1.001   5.921   6.606  0.3743  0.3126 -0.9920
20808SOL     OW80033  11.744   8.840  10.800  1.1599  0.3676 -0.2491
20808SOL    HW180034  11.680   8.900  10.761  0.1746 -0.9414 -0.7056
20808SOL    HW280035  11.797   8.895  10.858 -0.6237  1.4222  0.4350
20809SOL     OW80036  12.440   7.438   7.904 -0.1131  0.0691  0.1776
20809SOL    HW180037  12.367   7.443   7.965  1.0499 -1.1398  1.7499
20809SOL    HW280038  12.514   7.475   7.952  1.2043 -2.3618  0.1963
20810SOL     OW80039   7.869  13.413   9.700 -0.3537  0.1740 -0.1114
20810SOL    HW180040   7.930  13.351   9.742 -0.5539  0.7038  1.0077
20810SOL    HW280041   7.921  13.491   9.684 -0.6895  0.5832  0.7310
20811SOL     OW80042  13.616   4.937  11.195  0.0025  0.2441  0.5332
20811SOL    HW180043  13.563   4.872  11.149  1.2685  1.0968 -2.3470
20811SOL    HW280044  13.642   4.893  11.276 -1.9057 -1.5592  0.2707
20812SOL     OW80045  13.468   0.335  13.808 -0.1629 -0.2833  0.7254
20812SOL    HW180046  13.391   0.302  13.854  0.2562  1.3442  2.7362
20812SOL    HW280047  13.542   0.294  13.853  0.3887 -4.9462 -3.5360
20813SOL     OW80048   7.900  13.336   1.857 -0.5576 -0.0419  0.0921
20813SOL    HW180049   7.828  13.371   1.804 -0.2395  0.7269  0.1510
20813SOL    HW280050   7.870  13.250   1.884 -2.3714  1.0698  1.8939
20814SOL     OW80051  10.600  11.963   4.942  0.1523 -0.3811  0.2699
20814SOL    HW180052  10.575  11.871   4.950  1.2609 -0.5704  2.6462
20814SOL    HW280053  10.521  12.011   4.965  0.2535 -0.8361  1.6658
20815SOL     OW80054  14.021   8.212   9.459  0.0095  0.4127 -0.3933
20815SOL    HW180055  13.992   8.137   9.407 -1.1870  0.5566  0.0520
20815SOL    HW280056  13.959   8.217   9.532  1.6643  0.2065  1.0885
20816SOL     OW80057   0.302   5.147   2.727 -1.2020  0.1192 -0.1499
20816SOL    HW180058   0.251   5.118   2.803  2.8618 -1.2821  2.3599
20816SOL    HW280059   0.367   5.207   2.764  0.9594 -0.6535 -2.4683
20817SOL     OW80060   3.352  13.855  11.551  0.2603  0.5644 -0.0316
20817SOL    HW180061   3.309  13.777  11.516  0.8751  1.2302 -2.4191
20817SOL    HW280062   3.441  13.826  11.572 -0.2695  0.0298  1.6231
20818SOL     OW80063   3.128  11.627   2.188  0.1359 -0.0013 -0.1285
20818SOL    HW180064   3.035  11.604   2.186  0.8943 -3.7738  0.5175
20818SOL    HW280065   3.160  11.604   2.100  1.3886 -4.2310  1.2262
20819SOL     OW80066   3.308  11.741   8.288  0.2483  0.2449 -0.1634
20819SOL    HW180067   3.253  11.800   8.237  1.2372  0.0790 -1.4596
20819SOL    HW280068   3.258  11.660   8.294  0.2157  0.1836 -1.0993
20820SOL     OW80069   4.814   3.675  13.059 -0.0597 -0.1216 -0.0195
20820SOL    HW180070   4.832   3.769  13.069  1.3179  0.0355 -2.8561
20820SOL    HW280071   4.879   3.632  13.114 -1.3939  0.4962  2.1794
20821SOL     OW80072   3.266   6.042   4.139 -0.2931  0.1847 -0.1301
20821SOL    HW180073   3.328   6.013   4.205 -0.1976 -0.0825 -0.3355
20821SOL    HW280074   3.288   5.991   4.061 -1.5946 -0.8407  0.1438
20822SOL     OW80075   6.408   5.991  13.906  0.7406 -0.2106 -0.0197
20822SOL    HW180076   6.463   5.991  13.828  0.2964 -1.2576 -0.3407
20822SOL    HW280077   6.320   6.011  13.873  0.5655 -0.5733  0.2273
20823SOL     OW80078   2.617   5.421  13.465 -0.2564 -0.1485  0.4164
20823SOL    HW180079   2.595   5.466  13.546  1.3992 -1.5583  1.7229
20823SOL    HW280080   2.591   5.330  13.480  2.2114 -0.9221  0.3213
20824SOL     OW80081   0.296   7.665  10.682 -0.2088  0.1423 -0.4746
20824SOL    HW180082   0.254   7.744  10.717  0.0131 -0.3229  0.8881
20824SOL    HW280083   0.271   7.665  10.590  0.8053  2.4861 -0.8331
20825SOL     OW80084  10.519   7.598   1.605 -0.1453 -0.3389  0.0025
20825SOL    HW180085  10.609   7.576   1.628 -0.4156 -0.2668  1.1931
20825SOL    HW280086  10.468   7.525   1.641 -0.6016 -0.1761 -0.3148
20826SOL     OW80087   4.610   2.805   7.695  0.3480 -0.0962 -0.1423
20826SOL    HW180088   4.609   2.885   7.746  0.3181  0.4684 -1.0038
20826SOL    HW280089   4.518   2.780   7.686  0.0984  1.2685 -2.1070
20827SOL     OW80090   2.633   8.876   0.910 -0.1950 -0.2213  0.0452
20827SOL    HW180091   2.601   8.820   0.981  0.2720 -2.3298 -1.3174
20827SOL    HW280092   2.608   8.831   0.830 -0.3409  1.8809 -1.1717
20828SOL     OW80093  11.702   5.782   2.343 -0.0405  0.2199 -0.5323
20828SOL    HW180094  11.724   5.858   2.290 -0.9961  1.4039  0.6847
20828SOL    HW280095  11.782   5.761   2.391  0.3962  0.0823 -1.3196
20829SOL     OW80096  10.913   3.329   3.774  0.6297  0.8010 -0.6848
20829SOL    HW180097  10.846   3.355   3.837  0.7963 -0.1764 -0.0846
20829SOL    HW280098  10.869   3.267   3.716  0.5740  1.4277 -1.3348
20830SOL     OW80099   4.884  10.849   4.045 -0.5345 -0.1341  0.2427
20830SOL    HW180100   4.863  10.806   3.962 -1.1301 -1.6864  1.1686
20830SOL    HW280101   4.889  10.778   4.109 -1.5382  1.1555  1.8409
20831SOL     OW80102   4.975   2.250  12.823  0.2314 -0.1313 -0.5797
20831SOL    HW180103   4.936   2.195  12.755 -1.4403 -2.5353  2.0823
20831SOL    HW280104   5.061   2.211  12.839 -0.0427 -0.6285 -0.2535
20832SOL     OW80105  12.334   4.072   9.351  0.3964  0.3932 -0.1071
20832SOL    HW180106  12.268   4.089   9.283 -1.5146  0.9810  1.7952
20832SOL    HW280107  12.398   4.142   9.340 -0.6940  1.3806 -0.3725
20833SOL     OW80108   1.940   3.680   0.803 -0.1982  0.5375 -0.0663
20833SOL    HW180109   1.936   3.614   0.872  1.0332 -0.1820 -0.6355
20833SOL    HW280110   1.937   3.630   0.722 -0.5879  1.2932 -0.5340
20834SOL     OW80111   0.832   7.573   3.629  0.0016  0.0757 -0.1966
20834SOL    HW180112   0.911   7.543   3.676  0.3312 -0.6038 -1.1623
20834SOL    HW280113   0.760   7.545   3.685  0.3986 -0.4522  0.0697
20835SOL     OW80114   1.750   1.026   1.623  0.3787  0.6270  0.5684
20835SOL    HW180115   1.667   1.040   1.578  0.2939  1.3933  0.9525
20835SOL    HW280116   1.769   1.109   1.666  1.2209  0.3814  0.6943
20836SOL     OW80117  13.479   9.967   1.283 -0.3243  0.1897 -0.3622
20836SOL    HW180118  13.508   9.881   1.313 -0.7131  0.7421  1.7927
20836SOL    HW280119  13.543   9.992   1.217  2.0252 -0.2265  1.6018
20837SOL     OW80120  12.136   6.573   7.452  0.0733 -0.1259 -0.1054
20837SOL    HW180121  12.103   6.663   7.449  0.0265  0.0303  2.3798
20837SOL    HW280122  12.223   6.582   7.493 -0.0555 -1.2140  0.4415
20838SOL     OW80123   4.714   3.326  10.599  1.3579  0.2526 -0.2484
20838SOL    HW180124   4.726   3.248  10.545  2.4602  0.7933 -0.8267
20838SOL    HW280125   4.786   3.323  10.662  2.5225  1.6883 -1.4257
20839SOL     OW80126   0.196  13.280  11.678  0.4034  0.2017  0.4242
20839SOL    HW180127   0.110  13.321  11.674  0.0880 -0.4986 -0.4154
20839SOL    HW280128   0.230  13.286  11.589  0.1979 -1.6048  0.1794
20840SOL     OW80129  10.597   7.588   7.853  0.1668 -0.3712 -0.2945
20840SOL    HW180130  10.574   7.589   7.760  1.0683 -0.2597 -0.5272
20840SOL    HW280131  10.568   7.503   7.884 -0.3324 -0.3254 -0.6303
20841SOL     OW80132   7.137   6.185  12.624 -0.7592 -0.1593 -0.1554
20841SOL    HW180133   7.055   6.173  12.673 -0.6684 -1.0576 -0.2022
20841SOL    HW280134   7.112   6.233  12.545 -0.7771  2.1285  1.1469
20842SOL     OW80135  14.028  11.437   9.910  0.6144 -0.0696  0.2587
20842SOL    HW180136  14.108  11.407   9.953  1.0480  0.0927 -0.4311
20842SOL    HW280137  14.046  11.527   9.885 -0.0597  0.2129  0.7547
20843SOL     OW80138  11.413   3.574   5.473  0.1625 -0.1891  0.5034
20843SOL    HW180139  11.485   3.512   5.463 -0.7074 -1.4757  1.7277
20843SOL    HW280140  11.334   3.523   5.456 -0.4785  1.3213 -1.3403
20844SOL     OW80141   8.284   9.383   2.772 -0.4150 -0.1252  0.6730
20844SOL    HW180142   8.190   9.390   2.753 -0.1170 -0.5389 -1.1870
20844SOL    HW280143   8.322   9.464   2.737  0.0374 -0.3935  0.5372
20845SOL     OW80144   0.566   7.923   9.749 -0.0346  0.2716 -0.1677
20845SOL    HW180145   0.556   7.997   9.808  1.1521  0.5009 -0.2347
20845SOL    HW280146   0.617   7.958   9.676  0.0577 -0.4752 -0.4644
20846SOL     OW80147   9.895   0.291   0.910 -0.1657 -0.0781 -0.0572
20846SOL    HW180148   9.873   0.240   0.987  0.6320  0.6692  0.6804
20846SOL    HW280149   9.815   0.289   0.857 -0.4141 -1.3735  0.3330
20847SOL     OW80150  10.453   0.699   6.613 -0.0508  0.3212  0.2008
20847SOL    HW180151  10.367   0.697   6.654 -0.4711 -0.2417 -0.6888
20847SOL    HW280152  10.494   0.778   6.648 -1.1926  0.9748  0.0963
20848SOL     OW80153   1.585  13.295   1.903  0.0901  0.3120 -0.8926
20848SOL    HW180154   1.679  13.315   1.903  0.2548 -0.4589 -0.7364
20848SOL    HW280155   1.544  13.375   1.936  0.7732  0.2614  0.1215
20849SOL     OW80156   4.915   7.937   3.565  0.3553  0.1559 -0.5190
20849SOL    HW180157   4.896   7.858   3.617  1.9180 -0.6172 -1.0373
20849SOL    HW280158   4.844   7.941   3.502 -1.3987  0.9139  1.3933
20850SOL     OW80159   6.992  12.904  11.590 -0.2301  0.5025 -0.5382
20850SOL    HW180160   7.079  12.865  11.593 -0.0216  1.0224  0.9678
20850SOL    HW280161   6.945  12.865  11.664 -1.2012  0.4156 -1.1808
20851SOL     OW80162   7.519   8.300   6.158  0.2360 -0.6735  0.6218
20851SOL    HW180163   7.479   8.239   6.220 -1.1817 -0.5964 -0.1853
20851SOL    HW280164   7.576   8.355   6.212  0.7664 -2.0383  1.5100
20852SOL     OW80165   1.234   5.398  12.105  0.0186 -0.0646  0.0709
20852SOL    HW180166   1.274   5.465  12.049  0.1538  1.3443  1.7601
20852SOL    HW280167   1.233   5.438  12.192 -0.8214 -1.9045  0.9471
20853SOL     OW80168   2.193   2.459   2.920  0.9029  0.1360 -0.3688
20853SOL    HW180169   2.246   2.381   2.936 -2.5634 -2.0059  1.7859
20853SOL    HW280170   2.224   2.523   2.984  0.7777 -1.1372  0.9994
20854SOL     OW80171   9.409  13.675   5.685  0.1278  0.3641  0.5052
20854SOL    HW180172   9.465  13.616   5.735 -0.2981  0.0951  0.6708
20854SOL    HW280173   9.320  13.656   5.716 -0.6077 -2.1506 -2.5867
20855SOL     OW80174   1.968   4.336   4.934 -0.4909 -0.0754 -0.0069
20855SOL    HW180175   1.969   4.243   4.914 -1.5799 -0.2932  0.8739
20855SOL    HW280176   1.914   4.375   4.865  0.1656 -0.0453 -0.5152
20856SOL     OW80177  11.613   0.123  10.391  0.1456 -0.8416 -0.3668
20856SOL    HW180178  11.547   0.162  10.333 -0.0154 -0.5459  0.0102
20856SOL    HW280179  11.697   0.148  10.352  0.0487  0.1453  0.0357
20857SOL     OW80180  13.547   4.342  13.132 -0.1267 -0.2636  0.1764
20857SOL    HW180181  13.587   4.412  13.184  0.2057  0.4710 -1.0361
20857SOL    HW280182  13.461   4.376  13.108 -0.4680 -0.7950  0.6146
20858SOL     OW80183   4.238   7.749   0.186  0.1723  0.2343  0.2379
20858SOL    HW180184   4.325   7.717   0.211  0.7722  0.3261 -1.5219
20858SOL    HW280185   4.180   7.674   0.201  0.7698 -0.2201  0.3499
20859SOL     OW80186   9.546   0.349  10.135  0.1148 -0.6468 -0.0054
20859SOL    HW180187   9.480   0.307  10.079 -0.7198 -1.2108  1.3530
20859SOL    HW280188   9.543   0.441  10.110  1.5620 -1.2190 -2.6274
20860SOL     OW80189  11.800   3.317   5.729 -0.0373 -0.4344 -0.3094
20860SOL    HW180190  11.832   3.348   5.814  0.1616  1.1190 -0.9124
20860SOL    HW280191  11.837   3.229   5.721 -0.7953 -0.9808  1.5829
20861SOL     OW80192   9.551   9.076   7.914  0.2483  0.5537 -0.0016
20861SOL    HW180193   9.457   9.068   7.897  0.2742 -0.2911  0.1908
20861SOL    HW280194   9.587   8.990   7.892  1.4990  1.7088 -3.0735
20862SOL     OW80195  11.721   6.199   5.500  0.0340  0.3765 -0.0442
20862SOL    HW180196  11.685   6.254   5.431  0.9605  0.2354 -0.6601
20862SOL    HW280197  11.645   6.156   5.539 -0.6994  1.9580  0.3541
20863SOL     OW80198   6.759  10.176   1.536 -0.0998  0.3490  0.3088
20863SOL    HW180199   6.803  10.261   1.541  0.3505  0.0649  2.2694
20863SOL    HW280200   6.830  10.113   1.523 -0.5160  0.2910 -2.1330
20864SOL     OW80201  13.082   6.062   1.214  0.6002 -0.3458  0.3992
20864SOL    HW180202  13.146   6.053   1.143  1.0208 -0.7906  0.8248
20864SOL    HW280203  13.110   5.998   1.280  0.4212  0.2952  1.1188
20865SOL     OW80204   6.555  13.257   2.470  0.1647 -0.1306  0.3755
20865SOL    HW180205   6.549  13.259   2.375  3.3461  0.3164  0.0927
20865SOL    HW280206   6.529  13.344   2.498  3.0664  1.1557 -0.5204
20866SOL     OW80207   3.851   5.673   4.067  0.0970  0.2594  0.2026
20866SOL    HW180208   3.910   5.730   4.116 -1.0755  0.4772  1.4360
20866SOL    HW280209   3.885   5.584   4.082  0.8714  0.4731 -0.2229
20867SOL     OW80210   9.758   7.108  12.587 -0.3800  0.0447  0.5519
20867SOL    HW180211   9.764   7.018  12.619 -2.0426 -0.0633  0.6140
20867SOL    HW280212   9.686   7.147  12.636 -0.2030  1.1782 -0.0516
20868SOL     OW80213   7.138  10.487   6.353  0.2130  0.0281 -0.1354
20868SOL    HW180214   7.081  10.432   6.299  0.0819 -0.0072  0.0392
20868SOL    HW280215   7.226  10.469   6.319  0.2489 -0.8097  0.3649
20869SOL     OW80216   6.019   0.427  10.668  0.1811 -0.9353  0.0277
20869SOL    HW180217   6.047   0.372  10.596 -0.2579 -0.4983 -0.4839
20869SOL    HW280218   6.083   0.411  10.738  0.2460 -1.8271 -0.2333
20870SOL     OW80219   8.119   0.528   7.027  0.1392  0.3276  0.8766
20870SOL    HW180220   8.055   0.578   7.078 -0.9173 -0.7784  0.6975
20870SOL    HW280221   8.133   0.581   6.949  1.4416  1.8228  2.0658
20871SOL     OW80222   0.962  11.799   8.991 -0.4103 -0.2923  0.1762
20871SOL    HW180223   0.993  11.743   9.063 -0.0672 -0.8256 -0.3827
20871SOL    HW280224   0.883  11.755   8.959  0.5388 -1.1467 -1.0716
20872SOL     OW80225   7.734   1.792  10.587  0.1240  0.0051  0.0211
20872SOL    HW180226   7.705   1.861  10.647 -0.1414  1.4130 -1.6468
20872SOL    HW280227   7.674   1.719  10.603  1.2536 -0.4268  2.7915
20873SOL     OW80228   0.245   0.294   8.111 -0.0957  0.4205 -0.3905
20873SOL    HW180229   0.160   0.269   8.147 -0.1933  0.2881 -0.7097
20873SOL    HW280230   0.309   0.257   8.171 -0.2067 -1.4169 -1.3452
20874SOL     OW80231   7.050   2.989  13.992 -0.4090 -0.2564 -0.6203
20874SOL    HW180232   6.993   2.920  13.956  0.8997 -2.1050  0.6348
20874SOL    HW280233   6.993   3.039  14.049 -1.0134 -1.5198 -0.0674
20875SOL     OW80234   9.659  12.603  13.456  0.1420 -0.4914 -0.1634
20875SOL    HW180235   9.728  12.611  13.522  1.4589 -2.1323 -1.2487
20875SOL    HW280236   9.700  12.553  13.385 -2.0972 -1.2485 -0.9961
20876SOL     OW80237   9.428   0.149   0.688 -0.1627  0.0034 -0.2466
20876SOL    HW180238   9.388   0.231   0.718  0.6660  0.2235  0.3031
20876SOL    HW280239   9.356   0.086   0.690 -0.2589  0.0838  1.9626
20877SOL     OW80240   0.140  10.538   8.236  0.3446 -0.2056  0.5166
20877SOL    HW180241   0.233  10.554   8.220 -0.0275  0.6744 -0.8940
20877SOL    HW280242   0.117  10.598   8.307  0.7482 -0.1246  0.5792
20878SOL     OW80243   7.091   9.356   5.757 -0.2207 -0.0550  0.0209
20878SOL    HW180244   7.186   9.342   5.754 -0.2590 -0.5117  0.6433
20878SOL    HW280245   7.080   9.451   5.752  0.2766  0.0064  0.0548
20879SOL     OW80246  10.556  13.731  11.586 -0.7525  0.4858  0.1320
20879SOL    HW180247  10.526  13.708  11.674  1.6998 -2.5790  0.3108
20879SOL    HW280248  10.586  13.822  11.595 -1.6032  0.6317  2.1573
20880SOL     OW80249   3.907  13.268  11.236  0.2745 -0.4596  0.2944
20880SOL    HW180250   3.887  13.247  11.145 -0.5973  1.0784  0.1043
20880SOL    HW280251   3.931  13.361  11.235 -1.8019  0.1513  1.9062
20881SOL     OW80252  12.863   1.001  11.801  0.3517 -0.3694 -0.3795
20881SOL    HW180253  12.815   1.033  11.877  2.0750  0.8906  0.2380
20881SOL    HW280254  12.839   0.909  11.795 -0.8209 -0.1837  0.8995
20882SOL     OW80255   7.144   8.263   3.624  0.0784  0.3465  0.1094
20882SOL    HW180256   7.073   8.322   3.598  0.6515  1.0694  0.1682
20882SOL    HW280257   7.170   8.220   3.543 -0.2240  0.2974  0.0367
20883SOL     OW80258  11.211   5.988   3.341 -0.2098 -0.7076  0.0598
20883SOL    HW180259  11.153   5.962   3.269  1.2729 -2.1319 -0.6875
20883SOL    HW280260  11.169   5.951   3.419  0.2295 -2.7323 -0.6119
20884SOL     OW80261   3.228   7.281   5.452 -0.1342 -0.4311  0.0377
20884SOL    HW180262   3.196   7.318   5.535  0.3003 -2.1064  0.9882
20884SOL    HW280263   3.152   7.234   5.416  0.1304 -1.0781  0.3142
20885SOL     OW80264   6.789   6.432   7.540 -0.1781  0.4367 -0.5678
20885SOL    HW180265   6.866   6.390   7.502 -0.4280  0.2006 -0.8197
20885SOL    HW280266   6.805   6.526   7.530  0.7827  0.4521  0.7777
20886SOL     OW80267   3.391   6.831   0.412  0.4588  0.3778  0.6925
20886SOL    HW180268   3.444   6.767   0.364 -1.9498 -2.2074  1.1675
20886SOL    HW280269   3.422   6.824   0.503  0.0924 -0.3031  0.7752
20887SOL     OW80270   1.197   2.191   3.288 -0.8730  0.4789  0.0537
20887SOL    HW180271   1.186   2.227   3.200 -1.8620 -0.6835 -0.3217
20887SOL    HW280272   1.245   2.259   3.336  2.0319  0.1184 -2.0637
20888SOL     OW80273   7.703  13.321   8.591  0.2873 -0.3555 -0.4166
20888SOL    HW180274   7.798  13.316   8.605  0.0485 -1.5714  1.0906
20888SOL    HW280275   7.668  13.249   8.644 -1.5616  0.7908 -0.0088
20889SOL     OW80276   4.315   1.867  11.783 -0.2139  0.3967 -0.3949
20889SOL    HW180277   4.249   1.802  11.804 -0.2685  0.5748  0.0060
20889SOL    HW280278   4.382   1.820  11.734 -0.5184  0.1624 -0.5817
20890SOL     OW80279   1.135   8.933  10.612 -0.0703 -0.2346  0.2984
20890SOL    HW180280   1.207   8.955  10.553 -1.0712  1.3143 -0.3883
20890SOL    HW280281   1.147   8.991  10.687 -0.9075  0.4555 -0.0825
20891SOL     OW80282  11.378   8.122   0.708  0.1498  0.1379  0.1378
20891SOL    HW180283  11.464   8.163   0.701  0.5281 -0.7276 -0.4573
20891SOL    HW280284  11.387   8.061   0.781  0.6554 -1.3222 -1.0776
20892SOL     OW80285   5.676   9.021   5.372 -0.3287 -0.3330  0.1681
20892SOL    HW180286   5.763   9.057   5.356 -1.3338  2.0598 -0.3517
20892SOL    HW280287   5.658   9.039   5.465 -1.1621  1.4399 -0.2862
20893SOL     OW80288   8.385  10.214   2.850 -0.1159  0.5091 -0.2415
20893SOL    HW180289   8.379  10.141   2.789 -0.5006  0.0503  0.3329
20893SOL    HW280290   8.313  10.272   2.826 -0.8707 -0.1470  0.3754
20894SOL     OW80291   2.292  13.412   9.126  0.3478 -0.3176 -0.6173
20894SOL    HW180292   2.245  13.335   9.094  0.9621 -0.2728 -1.6774
20894SOL    HW280293   2.384  13.386   9.124  0.5004  0.1797 -0.2165
20895SOL     OW80294  11.113   7.391  13.183  0.0787 -0.1124  0.5772
20895SOL    HW180295  11.144   7.452  13.250 -0.5221  1.0466 -0.1698
20895SOL    HW280296  11.022   7.373  13.207 -0.5379  1.2934 -0.5777
20896SOL     OW80297   4.463   6.888   1.333 -0.1814 -0.2361  0.0632
20896SOL    HW180298   4.485   6.845   1.416 -0.2411 -1.0747 -0.3469
20896SOL    HW280299   4.541   6.875   1.279 -0.2407  0.0914 -0.1023
20897SOL     OW80300   9.254   0.454  10.499 -0.4409  0.5272  0.4490
20897SOL    HW180301   9.344   0.453  10.532 -0.6419  3.1338  1.3708
20897SOL    HW280302   9.219   0.369  10.524  1.9781 -0.9186 -0.7181
20898SOL     OW80303   7.793   6.769  10.901  0.2251  0.4939  0.6630
20898SOL    HW180304   7.756   6.856  10.915 -0.0012  0.7170 -1.0200
20898SOL    HW280305   7.716   6.712  10.891  0.2546  0.7948 -1.9209
20899SOL     OW80306   2.312   0.125   2.279  0.0528 -0.1652  0.0527
20899SOL    HW180307   2.297   0.213   2.313 -1.8824 -0.0640 -0.9087
20899SOL    HW280308   2.407   0.117   2.273  0.3277  1.1803  1.8464
20900SOL     OW80309   5.322   4.520   2.731 -0.1024  0.6785  0.1004
20900SOL    HW180310   5.377   4.548   2.804  0.3503  0.0297  0.0125
20900SOL    HW280311   5.285   4.601   2.697  0.3635  1.0695  0.5072
20901SOL     OW80312   7.173   3.271   9.177 -0.3062  0.5465 -0.2497
20901SOL    HW180313   7.165   3.364   9.197  0.8465  0.1944  2.2410
20901SOL    HW280314   7.260   3.247   9.209 -0.6789 -1.4310 -0.5831
20902SOL     OW80315   1.193   4.143   1.653  0.1477  0.1055  0.1866
20902SOL    HW180316   1.187   4.103   1.740 -0.2701 -0.9746 -0.3303
20902SOL    HW280317   1.176   4.236   1.669 -1.5413 -0.3058  1.0804
20903SOL     OW80318   0.873   7.941   0.146 -0.3718  0.7431  0.1721
20903SOL    HW180319   0.904   7.861   0.103  1.9799  1.6623 -0.0167
20903SOL    HW280320   0.820   7.985   0.080 -0.8453 -0.1737 -0.0731
20904SOL     OW80321   9.546  10.779   9.551 -0.1314 -0.4350 -0.5324
20904SOL    HW180322   9.525  10.827   9.470  0.4439 -1.1136 -1.1069
20904SOL    HW280323   9.468  10.727   9.570 -0.0233 -0.8025 -1.0576
20905SOL     OW80324   0.466   6.467  13.108 -0.0190  0.4985 -0.1157
20905SOL    HW180325   0.390   6.477  13.165 -0.0947 -0.2608 -0.0721
20905SOL    HW280326   0.479   6.554  13.070 -0.0007  1.0018  1.0069
20906SOL     OW80327  11.634   1.411  10.811  0.6390 -0.4413  0.0407
20906SOL    HW180328  11.638   1.504  10.834  0.7773 -0.6701  0.9498
20906SOL    HW280329  11.609   1.411  10.718 -0.1949  0.4775  0.2511
20907SOL     OW80330  12.728   0.666   8.481 -0.4492 -0.2240  0.2457
20907SOL    HW180331  12.714   0.742   8.538  0.0561 -0.0665  0.1696
20907SOL    HW280332  12.775   0.701   8.405 -2.9717 -0.0206 -1.3153
20908SOL     OW80333   4.898   9.195   5.854 -0.2206 -0.2578  0.1470
20908SOL    HW180334   4.831   9.153   5.800  0.7778  0.6785 -1.9353
20908SOL    HW280335   4.876   9.288   5.852  1.0698  0.0599 -0.5336
20909SOL     OW80336   9.875   3.575   6.257  0.5658 -0.1793 -0.3188
20909SOL    HW180337   9.855   3.546   6.346 -2.1561  0.2049 -0.7167
20909SOL    HW280338   9.927   3.655   6.269  1.6874 -1.0513  0.8619
20910SOL     OW80339   4.305  12.413  11.021  0.5789  0.0204  0.1887
20910SOL    HW180340   4.341  12.460  11.097  2.1443  0.3880 -0.7522
20910SOL    HW280341   4.211  12.410  11.039  0.9698 -0.5606  2.5041
20911SOL     OW80342  11.893   1.564  10.608 -0.7838 -0.0462 -0.0209
20911SOL    HW180343  11.835   1.507  10.557  0.7094 -0.4671 -1.2976
20911SOL    HW280344  11.854   1.651  10.599 -1.0070 -0.2530 -1.1824
20912SOL     OW80345   5.280  12.710   4.199 -0.0225  0.4128  0.1222
20912SOL    HW180346   5.196  12.754   4.190 -0.5421 -0.2444  1.4952
20912SOL    HW280347   5.326  12.760   4.267  0.0966 -0.1066  0.4256
20913SOL     OW80348   1.840  11.116   8.878  0.3981  0.4580  0.1277
20913SOL    HW180349   1.768  11.132   8.940  0.3176 -1.0197  0.4466
20913SOL    HW280350   1.799  11.122   8.792  0.4503  2.2352  0.2011
20914SOL     OW80351   3.627   3.404   0.637 -0.4034  0.0185  0.0533
20914SOL    HW180352   3.703   3.348   0.621  0.0593  0.3872  0.8638
20914SOL    HW280353   3.578   3.359   0.706  1.3793  1.7899  2.7200
20915SOL     OW80354   9.998   2.027   3.050  0.4616 -0.1312 -0.3825
20915SOL    HW180355  10.093   2.039   3.049  0.5379 -0.6838 -1.3705
20915SOL    HW280356   9.964   2.108   3.088  1.2927  0.3422 -0.6167
20916SOL     OW80357  13.830  13.315  14.074 -0.2569  0.5461  0.1563
20916SOL    HW180358  13.815  13.255  14.147  0.4251  0.5258  0.2824
20916SOL    HW280359  13.860  13.260  14.003 -0.9449  0.5632 -0.1584
20917SOL     OW80360   3.397   4.440   0.914  0.0276  0.0737  0.5131
20917SOL    HW180361   3.454   4.514   0.935  0.1162  1.6900 -4.2167
20917SOL    HW280362   3.456   4.370   0.888 -0.0002  0.7210 -1.4484
20918SOL     OW80363   0.829   9.467  11.590  0.6037 -0.0135  0.1857
20918SOL    HW180364   0.892   9.425  11.532  0.3603 -0.2972  0.1244
20918SOL    HW280365   0.842   9.424  11.675  0.8336  0.2718  0.2948
20919SOL     OW80366   0.165   5.083  10.754  0.3490 -0.0239 -0.0218
20919SOL    HW180367   0.184   5.160  10.701 -0.8005  1.0801  1.1051
20919SOL    HW280368   0.088   5.043  10.712  0.4055 -0.0474 -0.1019
20920SOL     OW80369   2.030   4.851   5.754  0.1735  0.2736 -0.0855
20920SOL    HW180370   2.007   4.905   5.830  2.3641  2.2696 -0.7196
20920SOL    HW280371   2.007   4.905   5.679 -2.7989 -2.0247 -1.0357
20921SOL     OW80372   2.370   5.072   2.321 -0.5443 -0.3361  0.2608
20921SOL    HW180373   2.348   5.165   2.320  0.3888  0.0705  3.5972
20921SOL    HW280374   2.438   5.062   2.255  1.9925  2.2751  2.2036
20922SOL     OW80375   3.518   0.820  13.511 -0.1382 -0.1616 -0.2892
20922SOL    HW180376   3.576   0.767  13.565 -0.6062 -1.1776 -0.7452
20922SOL    HW280377   3.500   0.765  13.435 -0.9396  0.5127 -0.6060
20923SOL     OW80378   5.525   0.618   7.937 -0.3934 -0.2283 -0.2424
20923SOL    HW180379   5.449   0.562   7.954 -0.2211  0.3472  2.8334
20923SOL    HW280380   5.502   0.665   7.856 -3.0135 -0.5482  0.2381
20924SOL     OW80381  11.033   6.211  11.420 -0.0646 -0.2673  0.5680
20924SOL    HW180382  11.068   6.170  11.499 -3.5612  1.0606  3.0575
20924SOL    HW280383  11.057   6.304  11.428  0.7581 -0.3389 -0.7362
20925SOL     OW80384   0.320   2.429   3.366  0.3773 -0.4413 -0.5518
20925SOL    HW180385   0.255   2.407   3.432 -1.4084  1.7389 -1.4525
20925SOL    HW280386   0.317   2.357   3.304 -0.5819 -0.7752 -0.1317
20926SOL     OW80387   7.546   9.889  12.426  0.2162  0.0053  0.3994
20926SOL    HW180388   7.600   9.879  12.347  1.8195  1.2758  1.2712
20926SOL    HW280389   7.528   9.800  12.455 -0.7750 -0.5044 -1.6067
20927SOL     OW80390   6.108  12.492   3.152 -0.3225  0.6968  0.7084
20927SOL    HW180391   6.033  12.542   3.182 -0.1709  2.1273 -1.0949
20927SOL    HW280392   6.149  12.548   3.086 -0.1021 -1.7582 -1.3932
20928SOL     OW80393   7.756   5.002   0.843  0.3958 -1.1604 -0.5784
20928SOL    HW180394   7.675   5.053   0.855  0.6680 -0.8338 -0.1127
20928SOL    HW280395   7.726   4.918   0.808 -0.1865 -1.1861 -0.0325
20929SOL     OW80396   9.809   6.999   0.626 -0.0637 -0.3831 -0.2241
20929SOL    HW180397   9.769   7.086   0.632 -0.2728 -0.4402 -0.7163
20929SOL    HW280398   9.792   6.959   0.712 -1.2614 -0.4839 -0.4930
20930SOL     OW80399   8.978  10.980  11.552 -0.4069 -0.1918 -0.1196
20930SOL    HW180400   8.924  10.977  11.631  0.0269  1.7093  0.3162
20930SOL    HW280401   9.000  11.073  11.542  3.2681 -0.8878  0.0995
20931SOL     OW80402   4.175   4.097   5.021 -0.0236  0.2090 -0.9437
20931SOL    HW180403   4.080   4.090   5.009 -0.0878  2.8424 -2.7611
20931SOL    HW280404   4.212   4.039   4.954 -0.2846 -1.0426 -0.0503
20932SOL     OW80405   1.656   7.788   2.582  0.1937 -0.0420  0.5639
20932SOL    HW180406   1.749   7.803   2.602 -0.1607  2.8507  0.5065
20932SOL    HW280407   1.618   7.876   2.579 -2.3122 -1.0724 -0.6642
20933SOL     OW80408  13.398   4.353   4.720  0.2032 -0.3742 -0.1887
20933SOL    HW180409  13.414   4.447   4.706  0.5310 -0.3467  0.3076
20933SOL    HW280410  13.408   4.342   4.815 -1.1531 -0.6732 -0.0641
20934SOL     OW80411   4.356   6.846   5.256  0.8157  0.2791 -0.0754
20934SOL    HW180412   4.340   6.902   5.180 -2.4957 -0.7114 -0.2931
20934SOL    HW280413   4.417   6.896   5.310  2.4580  1.4699 -2.8330
20935SOL     OW80414   1.904   4.556   3.602 -0.1801 -0.3067 -0.1119
20935SOL    HW180415   1.974   4.577   3.541 -0.8587 -1.1792 -1.2341
20935SOL    HW280416   1.851   4.490   3.556 -1.5728  0.1253  0.8132
20936SOL     OW80417  10.540   4.754  13.224 -0.7653 -0.3014  0.1897
20936SOL    HW180418  10.625   4.796  13.230 -0.0827 -1.0741 -2.4568
20936SOL    HW280419  10.560   4.665  13.194 -2.4889 -0.4406 -0.6573
20937SOL     OW80420   4.543   2.566  13.442  0.2746 -0.4063 -0.6963
20937SOL    HW180421   4.517   2.475  13.455 -0.1650 -0.1317  0.4293
20937SOL    HW280422   4.516   2.611  13.522 -2.1155  1.2931 -2.3273
20938SOL     OW80423  10.730  13.795  12.371 -0.0265 -0.0466  0.3047
20938SOL    HW180424  10.708  13.745  12.292  2.4740  0.0308 -0.5500
20938SOL    HW280425  10.746  13.884  12.340 -1.9310  0.7271  1.4149
20939SOL     OW80426   1.647   0.490   8.836 -0.1386  0.2040 -0.1649
20939SOL    HW180427   1.684   0.407   8.806 -1.2639  0.4008 -2.2946
20939SOL    HW280428   1.688   0.556   8.779  1.2227  1.2374  1.9073
20940SOL     OW80429   9.035  11.638   3.150 -0.1880  0.0280  0.1042
20940SOL    HW180430   8.943  11.664   3.157 -0.5171 -0.7016 -1.1581
20940SOL    HW280431   9.031  11.544   3.132  0.7614  0.2018 -1.1154
20941SOL     OW80432   6.580   2.845  11.829  0.0311 -0.1938  0.2515
20941SOL    HW180433   6.674   2.863  11.840 -0.2632  1.4455  0.4165
20941SOL    HW280434   6.537   2.909  11.886 -1.2071 -0.6305 -0.1601
20942SOL     OW80435   1.480   0.998   3.558 -0.8325 -0.2610  0.2441
20942SOL    HW180436   1.403   1.054   3.547  0.0902  0.7361 -1.5687
20942SOL    HW280437   1.456   0.916   3.515 -0.1969  0.7847 -2.2929
20943SOL     OW80438   5.220  13.387   5.813 -0.2093  0.7187  0.2003
20943SOL    HW180439   5.166  13.434   5.749 -0.2949  2.1041  1.2605
20943SOL    HW280440   5.208  13.295   5.790 -0.7367  1.1375 -1.3833
20944SOL     OW80441  12.625  12.475   8.598 -0.6233 -0.1986  0.2431
20944SOL    HW180442  12.549  12.527   8.570 -1.0130  1.3929  3.7949
20944SOL    HW280443  12.591  12.420   8.669  1.4342  0.1960  1.5887
20945SOL     OW80444   4.823  11.916   2.994 -0.1246  0.0438 -0.0110
20945SOL    HW180445   4.855  11.828   3.015  0.3327 -0.0901 -1.2185
20945SOL    HW280446   4.730  11.903   2.975  0.3074 -0.5144 -1.9495
20946SOL     OW80447   9.771  11.937   4.059  0.4328 -0.0876 -0.1153
20946SOL    HW180448   9.820  12.018   4.043  0.8862 -0.5144 -0.9501
20946SOL    HW280449   9.717  11.956   4.136 -1.1406  1.7814 -1.5820
20947SOL     OW80450  11.750  11.595   8.469  0.3517 -0.3064  0.0209
20947SOL    HW180451  11.838  11.568   8.493  0.8772  0.6698 -0.7300
20947SOL    HW280452  11.719  11.646   8.544  0.3320 -0.8408  0.3797
20948SOL     OW80453  11.122   2.820   1.192 -0.0090  0.0516  0.2482
20948SOL    HW180454  11.112   2.823   1.287 -2.1603 -2.1499  0.2026
20948SOL    HW280455  11.037   2.849   1.158  0.6949  0.7200 -1.0423
20949SOL     OW80456   6.027   9.119   4.494 -0.2857 -0.0533  0.1671
20949SOL    HW180457   6.065   9.198   4.455  1.1661 -0.1827  1.2759
20949SOL    HW280458   6.082   9.047   4.462 -1.8703 -0.7188 -1.2106
20950SOL     OW80459   4.573   2.308   4.877 -0.4561 -0.5903  1.0125
20950SOL    HW180460   4.585   2.348   4.963 -0.8565  4.0728 -0.8133
20950SOL    HW280461   4.480   2.284   4.875 -0.6975  0.2405  1.5732
20951SOL     OW80462   5.593   8.262   4.524 -0.3740  0.4831 -0.2452
20951SOL    HW180463   5.518   8.322   4.531  0.7983  2.0229 -0.4394
20951SOL    HW280464   5.611   8.257   4.430  0.0258  0.4258 -0.1646
20952SOL     OW80465  11.871   0.992   4.229  0.1752 -0.0593  0.2796
20952SOL    HW180466  11.906   0.911   4.190 -0.0498 -0.2186  0.4065
20952SOL    HW280467  11.798   1.016   4.173  0.7548  0.5215 -0.2471
20953SOL     OW80468   7.522   7.519   2.103  1.1231 -0.0580  0.4092
20953SOL    HW180469   7.431   7.542   2.086  0.1775 -3.3911  0.3118
20953SOL    HW280470   7.547   7.573   2.178 -0.7352  1.3126  0.0986
20954SOL     OW80471   3.107   9.901   8.836  1.0302  0.2012  0.6784
20954SOL    HW180472   3.116   9.961   8.762 -2.0377  0.4030  0.3416
20954SOL    HW280473   3.065   9.954   8.905 -0.9520 -1.2403  0.6703
20955SOL     OW80474   3.995   3.281  11.560  0.1488 -0.3151 -0.4631
20955SOL    HW180475   3.956   3.196  11.580  0.9088 -0.2012  1.8419
20955SOL    HW280476   4.043   3.266  11.478  1.1638 -2.4444  0.4329
20956SOL     OW80477   1.837   6.446  12.231  0.1839  0.4249 -0.7125
20956SOL    HW180478   1.830   6.534  12.269  2.1258 -0.2267  1.3966
20956SOL    HW280479   1.902   6.455  12.162  0.4084  0.6606 -0.4744
20957SOL     OW80480  13.334   4.968  13.544 -0.3947  1.0518  0.3120
20957SOL    HW180481  13.317   4.964  13.639 -0.1286  1.7256  0.3919
20957SOL    HW280482  13.251   4.998  13.507 -1.0475 -0.8367  0.1410
20958SOL     OW80483   0.163  10.980   5.766 -0.9156 -0.2677 -0.4977
20958SOL    HW180484   0.232  10.921   5.735  0.2508  1.2430 -0.8868
20958SOL    HW280485   0.135  11.028   5.688  0.2653  1.7792  0.2721
20959SOL     OW80486   9.571  10.458   9.752  0.2463  0.0017 -0.2621
20959SOL    HW180487   9.637  10.473   9.685 -1.4414  0.3158 -1.9295
20959SOL    HW280488   9.574  10.364   9.768  0.9557 -0.0122 -0.4333
20960SOL     OW80489   3.571   1.125   7.903  0.1112 -0.1582  0.1275
20960SOL    HW180490   3.548   1.167   7.986  3.9251 -0.3931  1.4919
20960SOL    HW280491   3.594   1.036   7.927  0.1860 -0.5667 -1.3905
20961SOL     OW80492   8.699   1.173   2.633 -0.3370  0.5752 -0.2483
20961SOL    HW180493   8.627   1.118   2.663  0.1956 -0.6540 -1.1697
20961SOL    HW280494   8.656   1.248   2.592 -1.1188 -0.2607 -1.0052
20962SOL     OW80495   8.995  10.622   5.711  1.1528  0.3453 -0.1151
20962SOL    HW180496   9.005  10.571   5.791  1.1134  1.8775  0.9071
20962SOL    HW280497   9.080  10.615   5.667  1.4006  0.0684  0.4019
20963SOL     OW80498  13.123   0.907  12.375 -0.1904  0.0229  0.3502
20963SOL    HW180499  13.197   0.936  12.428  0.1848 -1.1191  0.4825
20963SOL    HW280500  13.143   0.937  12.287 -0.6284  1.5956  0.7629
20964SOL     OW80501   0.057  11.320   6.761 -0.0367  0.2782  0.1926
20964SOL    HW180502   0.085  11.242   6.714  0.2342  1.3050 -1.4320
20964SOL    HW280503   0.103  11.392   6.719  0.5240  1.2534  2.3086
20965SOL     OW80504   4.698   8.015   5.225  0.5921  0.3125  0.3236
20965SOL    HW180505   4.786   7.979   5.235  0.0376 -0.6028  2.5595
20965SOL    HW280506   4.655   7.996   5.309 -2.4396 -1.1979 -1.4424
20966SOL     OW80507   5.730   9.635   1.257  0.2106  0.4553  0.7156
20966SOL    HW180508   5.643   9.613   1.291  1.2092 -0.8680  2.5888
20966SOL    HW280509   5.776   9.674   1.332  1.3423  0.8121 -0.1419
20967SOL     OW80510   4.683  10.824   7.378  0.1153  0.2299  0.0202
20967SOL    HW180511   4.737  10.860   7.309 -0.5698 -0.3323 -0.8343
20967SOL    HW280512   4.739  10.825   7.456  0.5645  1.7988 -0.2915
20968SOL     OW80513   7.344   5.105  11.487  0.1874 -0.0100 -0.1818
20968SOL    HW180514   7.256   5.118  11.451  0.0649  0.6479  0.3334
20968SOL    HW280515   7.362   5.185  11.537 -0.0249 -1.2160  1.9708
20969SOL     OW80516  14.026   6.152   7.849 -0.0397 -0.2292  0.6529
20969SOL    HW180517  13.932   6.142   7.861 -0.0729 -0.0610  0.5427
20969SOL    HW280518  14.037   6.160   7.755  0.1124 -0.5184  0.6477
20970SOL     OW80519   4.075  13.596   6.121  0.1258  0.3705 -0.4901
20970SOL    HW180520   4.154  13.590   6.175  1.3427  0.7200 -2.1629
20970SOL    HW280521   4.086  13.528   6.055 -1.3358 -0.0440 -0.3396
20971SOL     OW80522   0.494   8.896  12.402 -0.1787 -0.4491  0.1827
20971SOL    HW180523   0.443   8.936  12.474  0.3862 -0.2605  0.4877
20971SOL    HW280524   0.582   8.932  12.414 -0.0998 -0.3559 -0.6625
20972SOL     OW80525   1.207  10.265   6.071 -0.2398 -0.9131  0.1428
20972SOL    HW180526   1.165  10.192   6.026 -2.1676 -0.5482  1.2112
20972SOL    HW280527   1.245  10.225   6.150  0.4524 -1.0699 -0.2689
20973SOL     OW80528   5.197   4.708  10.486 -1.0329 -0.3666 -0.2758
20973SOL    HW180529   5.179   4.745  10.400  0.4365  1.1528  0.0147
20973SOL    HW280530   5.231   4.782  10.537  0.5869 -1.8056  0.8165
20974SOL     OW80531   8.178   3.027   6.312  0.0716 -0.1143 -0.0169
20974SOL    HW180532   8.165   2.936   6.287 -1.7221 -0.0376  0.4734
20974SOL    HW280533   8.171   3.027   6.408 -0.3746  0.5791 -0.0418
20975SOL     OW80534   4.851   5.001   0.869  0.4700  0.4809 -0.3711
20975SOL    HW180535   4.893   5.032   0.788  2.5165  0.0019  0.4339
20975SOL    HW280536   4.844   5.080   0.923 -1.1265  0.8494 -1.0635
20976SOL     OW80537   6.053   4.374   1.222 -0.5685 -0.3350  0.3732
20976SOL    HW180538   6.127   4.395   1.279  0.7325 -0.0895 -1.3077
20976SOL    HW280539   6.010   4.458   1.207 -1.9217 -0.6290  2.2139
20977SOL     OW80540  13.553   4.256   1.455 -0.0556  0.1510 -0.2979
20977SOL    HW180541  13.565   4.228   1.364 -0.6432  0.9800 -0.6385
20977SOL    HW280542  13.520   4.178   1.500 -1.6473  0.2574 -1.2181
20978SOL     OW80543   3.323   5.321   6.210  0.3604 -0.6011  0.2343
20978SOL    HW180544   3.351   5.410   6.235 -0.0022 -0.2443 -0.6018
20978SOL    HW280545   3.404   5.269   6.215  0.4947 -0.3348  1.1522
20979SOL     OW80546   9.529   5.942   7.940 -0.0873  0.3095 -0.2400
20979SOL    HW180547   9.505   6.007   7.875 -0.2218  2.0226  1.4317
20979SOL    HW280548   9.446   5.904   7.969 -0.3482  1.6803  0.9769
20980SOL     OW80549   7.309   7.356   3.783  0.2527 -0.5967  0.1335
20980SOL    HW180550   7.235   7.401   3.824  0.8905 -0.5378  1.2765
20980SOL    HW280551   7.376   7.423   3.773  0.7488 -1.0028  0.6632
20981SOL     OW80552   9.112   1.331   7.128 -0.0009  0.3615  0.3593
20981SOL    HW180553   9.177   1.357   7.062 -0.7796  0.3163 -0.4401
20981SOL    HW280554   9.066   1.411   7.150 -1.4976 -0.0398 -1.1159
20982SOL     OW80555  12.191   9.152   3.333 -0.8251  0.0900  0.1908
20982SOL    HW180556  12.122   9.134   3.397 -0.6904 -2.6983 -0.3314
20982SOL    HW280557  12.259   9.087   3.352 -0.5357 -0.4573 -2.3596
20983SOL     OW80558   6.082   1.909   8.616  0.0808  0.1325  0.0840
20983SOL    HW180559   6.014   1.968   8.650  0.7092  0.1246  1.4584
20983SOL    HW280560   6.048   1.877   8.533 -0.4130  2.2109 -0.5647
20984SOL     OW80561  11.709  13.741   6.200  1.1599 -0.7886 -0.3063
20984SOL    HW180562  11.721  13.648   6.222 -0.1415 -1.1621 -1.0776
20984SOL    HW280563  11.617  13.748   6.173  1.1612  0.7840 -0.0149
20985SOL     OW80564   3.372  13.511   7.554 -0.4165 -0.0203 -0.0370
20985SOL    HW180565   3.317  13.584   7.583 -1.5434 -0.6959 -0.4159
20985SOL    HW280566   3.374  13.518   7.459 -1.9131 -1.4183 -0.2025
20986SOL     OW80567  12.473  11.647   3.016 -0.4258 -0.9074  0.3338
20986SOL    HW180568  12.502  11.556   3.021  1.0473 -0.5058 -0.3067
20986SOL    HW280569  12.429  11.654   2.932  0.9509 -0.6543 -0.3910
20987SOL     OW80570   9.612   4.867  10.277 -0.3505 -0.0693 -0.0418
20987SOL    HW180571   9.700   4.861  10.315 -0.4001  1.7670  0.4700
20987SOL    HW280572   9.626   4.878  10.183  0.0289  1.0706  0.1351
20988SOL     OW80573  11.639   9.715   7.952 -0.2740 -0.6473  0.5838
20988SOL    HW180574  11.664   9.760   7.871 -1.1482 -0.9032  0.1552
20988SOL    HW280575  11.677   9.627   7.944  0.1286 -0.4849  0.7154
20989SOL     OW80576   7.679  13.572   2.040  0.6209  0.1644  0.1104
20989SOL    HW180577   7.724  13.499   2.083  0.0307  0.6236  1.6015
20989SOL    HW280578   7.615  13.530   1.982  2.0182 -0.4825 -1.0095
20990SOL     OW80579   8.357   6.191   3.405  0.7758 -0.0947 -0.2194
20990SOL    HW180580   8.302   6.125   3.364  0.2030 -0.3301  0.8875
20990SOL    HW280581   8.445   6.154   3.402  0.3041 -1.5100  1.4679
20991SOL     OW80582   0.344  13.409   2.169 -0.1276 -0.1236  0.2245
20991SOL    HW180583   0.280  13.338   2.158  0.1881 -0.2083 -1.2337
20991SOL    HW280584   0.402  13.401   2.094  2.0804 -0.4856  1.8836
20992SOL     OW80585   2.284   0.159   6.692  1.0045  0.1709  0.4427
20992SOL    HW180586   2.356   0.213   6.724  0.7542  0.6987  0.1325
20992SOL    HW280587   2.212   0.177   6.752  0.6373  0.9040 -0.1957
20993SOL     OW80588   6.825   1.540   5.486 -0.1218 -0.8961 -0.0734
20993SOL    HW180589   6.795   1.511   5.400  0.9862  0.2070 -0.8656
20993SOL    HW280590   6.885   1.471   5.515 -2.0406 -2.3010  0.7962
20994SOL     OW80591  12.716   4.923  12.324 -0.1556  0.3648 -0.1476
20994SOL    HW180592  12.758   4.847  12.365  1.1462  0.4005 -1.3382
20994SOL    HW280593  12.739   4.916  12.231 -1.2346  1.4368 -0.5216
20995SOL     OW80594  10.609   1.782   6.347  0.2238  0.5367  0.3312
20995SOL    HW180595  10.618   1.792   6.441 -0.0774  0.6742  0.3467
20995SOL    HW280596  10.693   1.812   6.311  0.8691 -0.8385  0.6345
20996SOL     OW80597   0.117   0.594   7.089  0.7699 -0.1965 -0.5265
20996SOL    HW180598   0.035   0.544   7.088  0.7286 -0.1329 -0.1979
20996SOL    HW280599   0.181   0.534   7.128  1.0326 -0.4843 -1.3694
20997SOL     OW80600   9.293  10.823   5.971 -0.3775  0.0095 -0.9768
20997SOL    HW180601   9.294  10.892   5.905 -4.2038  0.5560 -0.6928
20997SOL    HW280602   9.307  10.870   6.054 -0.5138  0.0703 -0.9880
20998SOL     OW80603   7.116   4.252   1.324 -0.2788  0.3406 -0.4068
20998SOL    HW180604   7.067   4.270   1.404 -1.0050 -0.3800 -0.6731
20998SOL    HW280605   7.072   4.303   1.256  0.1139  0.6705 -0.4147
20999SOL     OW80606   0.459  11.696   6.461  0.0803  0.9343 -0.5408
20999SOL    HW180607   0.473  11.603   6.444  0.3097  0.9125 -0.2336
20999SOL    HW280608   0.493  11.710   6.549 -0.3874  1.2091 -0.3972
21000SOL     OW80609   6.216   5.901   6.069  0.0282  0.3106 -0.7983
21000SOL    HW180610   6.200   5.826   6.012 -1.5569 -0.6611  0.7839
21000SOL    HW280611   6.300   5.883   6.110  0.2085 -0.0184 -1.3087
21001SOL     OW80612  12.524   6.333   4.386 -0.3580 -0.0772 -1.1017
21001SOL    HW180613  12.570   6.341   4.469 -1.6784  0.9460 -0.4337
21001SOL    HW280614  12.554   6.250   4.350  2.7579  0.9852 -1.2051
21002SOL     OW80615   7.853   2.641   5.560 -0.2201  0.0282  0.6018
21002SOL    HW180616   7.833   2.550   5.539 -1.2033  0.1667  0.8879
21002SOL    HW280617   7.913   2.637   5.634  2.1619 -0.4377 -1.2257
21003SOL     OW80618   2.334   5.327   2.248  0.0713 -0.1041 -0.1591
21003SOL    HW180619   2.383   5.386   2.191 -0.1230 -0.4016 -0.6340
21003SOL    HW280620   2.250   5.370   2.261  0.0202 -0.1591 -0.3066
21004SOL     OW80621   7.745  12.076   8.539 -0.3254 -0.2747  0.3977
21004SOL    HW180622   7.768  12.100   8.449 -1.5661  0.0462  0.1392
21004SOL    HW280623   7.799  12.133   8.593 -1.1866  1.1850 -0.1945
21005SOL     OW80624   1.237   3.668   4.918  0.1301 -0.1738  0.6322
21005SOL    HW180625   1.294   3.594   4.939  1.8046  1.1008  0.7780
21005SOL    HW280626   1.263   3.695   4.829  0.4177  0.9924  1.0498
21006SOL     OW80627   2.854   8.744   1.141 -0.2074  0.0018  0.5070
21006SOL    HW180628   2.948   8.726   1.133 -0.4121 -0.4029 -1.5099
21006SOL    HW280629   2.836   8.808   1.072 -1.8380 -1.7349 -0.7620
21007SOL     OW80630   8.692  13.350  12.373 -0.4258  0.3454  0.0167
21007SOL    HW180631   8.722  13.273  12.420  0.4114 -0.1733 -1.3230
21007SOL    HW280632   8.729  13.341  12.285 -2.8497  0.6833 -1.1230
21008SOL     OW80633   8.901   8.394   9.988 -0.7797  0.4808  0.3352
21008SOL    HW180634   8.821   8.353  10.020 -0.1787 -1.4416 -0.4419
21008SOL    HW280635   8.950   8.322   9.948  0.5418  1.9251 -0.7796
21009SOL     OW80636   4.487   5.160  10.155 -0.1284 -0.0672  0.5026
21009SOL    HW180637   4.412   5.199  10.199  0.4168  1.5678  0.0413
21009SOL    HW280638   4.525   5.101  10.220 -3.1897 -2.9309 -0.0208
21010SOL     OW80639   3.389   9.173   0.231 -0.0093  0.2540 -0.0498
21010SOL    HW180640   3.469   9.122   0.224 -0.0012 -0.1440  2.0834
21010SOL    HW280641   3.419   9.264   0.227  0.1677  0.1426 -2.1694
21011SOL     OW80642   8.033   7.088   5.273  0.2230 -0.1258 -0.1556
21011SOL    HW180643   7.978   7.156   5.310 -0.0271  0.5914 -1.7860
21011SOL    HW280644   8.110   7.135   5.240 -0.8501 -0.2690 -3.1249
21012SOL     OW80645  13.004  13.296  10.948  0.4429  0.3809  0.2685
21012SOL    HW180646  13.070  13.357  10.916 -0.5894  2.7518  2.3848
21012SOL    HW280647  13.023  13.287  11.041  1.1874 -3.4946 -0.0786
21013SOL     OW80648   8.921   0.890  11.875  0.5146 -0.3826  0.1367
21013SOL    HW180649   8.929   0.797  11.897 -0.6887 -0.6936 -0.6317
21013SOL    HW280650   8.834   0.898  11.836  0.6008  1.0734  0.1847
21014SOL     OW80651  11.713  13.934   1.493 -0.2557 -0.8185  0.7517
21014SOL    HW180652  11.784  13.990   1.462 -1.5075 -0.1019 -0.9537
21014SOL    HW280653  11.747  13.845   1.486  0.0316 -0.5802 -1.3457
21015SOL     OW80654   9.864   5.669  10.716 -0.3733  0.1697 -0.0686
21015SOL    HW180655   9.915   5.741  10.679  1.2409 -1.2133 -0.7406
21015SOL    HW280656   9.930   5.602  10.736 -1.9628 -1.9640 -1.5139
21016SOL     OW80657   9.414   0.520   7.019 -0.4212 -0.0752  0.7760
21016SOL    HW180658   9.507   0.528   6.997 -0.3445 -3.0908 -0.5797
21016SOL    HW280659   9.389   0.607   7.050  2.5614  1.1487  0.1394
21017SOL     OW80660   4.389   0.406  13.901  0.2210  0.3931 -0.1133
21017SOL    HW180661   4.453   0.350  13.857 -1.6713 -0.6037 -1.7343
21017SOL    HW280662   4.364   0.471  13.835  0.0629  1.2339  0.7411
21018SOL     OW80663   1.268   4.879   5.765  0.0579  0.6923  0.2332
21018SOL    HW180664   1.357   4.848   5.747  0.0194 -0.5804  2.0133
21018SOL    HW280665   1.279   4.973   5.783  0.9539  0.6573 -0.0420
21019SOL     OW80666   9.113  14.045   5.913 -0.1405  0.3412 -0.0689
21019SOL    HW180667   9.057  14.120   5.894 -0.9869 -0.2315  0.1050
21019SOL    HW280668   9.087  14.017   6.001  0.0905 -0.2163 -0.1722
21020SOL     OW80669  12.432   7.876  10.070 -0.1982  0.3443 -0.3519
21020SOL    HW180670  12.438   7.945  10.003  1.3865  0.5649 -0.0206
21020SOL    HW280671  12.393   7.920  10.146  1.1872  1.0374  0.0003
21021SOL     OW80672  12.233   7.825   4.529 -0.2944 -0.2391  0.1294
21021SOL    HW180673  12.160   7.853   4.475 -0.2845  1.5155  0.9353
21021SOL    HW280674  12.211   7.736   4.555 -1.2503 -0.3912 -1.1126
21022SOL     OW80675  13.851   3.630   0.186 -0.0001  0.2373  0.3725
21022SOL    HW180676  13.937   3.664   0.209 -0.1841 -0.9298  3.2233
21022SOL    HW280677  13.869   3.555   0.129  0.6673  1.6651 -1.3589
21023SOL     OW80678   0.240  11.764  12.066 -0.1274  0.3305 -0.2960
21023SOL    HW180679   0.224  11.675  12.037 -0.7994  0.6635 -0.9803
21023SOL    HW280680   0.207  11.819  11.995 -0.3143  1.1326  0.3910
21024SOL     OW80681   2.706  12.863  13.153  0.0695  0.3606  0.7993
21024SOL    HW180682   2.612  12.876  13.139  0.4654  1.6288 -0.9163
21024SOL    HW280683   2.739  12.950  13.176  0.9961  0.1763  0.2134
21025SOL     OW80684   8.643   3.867  13.967 -0.2346 -0.1589 -0.5865
21025SOL    HW180685   8.562   3.918  13.962 -0.6500 -0.7827 -0.3748
21025SOL    HW280686   8.642   3.813  13.888 -0.6392 -1.0415  0.0027
21026SOL     OW80687   5.144  10.446   6.394 -0.1617  0.1214 -0.2212
21026SOL    HW180688   5.199  10.449   6.472  0.0173  0.0356 -0.3437
21026SOL    HW280689   5.060  10.483   6.422  0.1334  0.7717 -0.1786
21027SOL     OW80690   1.863   0.896  10.814  0.1107 -0.0803 -0.6894
21027SOL    HW180691   1.806   0.937  10.878  1.4874  1.2857 -0.2782
21027SOL    HW280692   1.840   0.938  10.731 -0.0060 -0.0878 -0.6605
21028SOL     OW80693   5.088  13.671   8.092  0.2609 -0.2013  0.1342
21028SOL    HW180694   5.105  13.620   8.013 -1.1177  1.3481 -1.2269
21028SOL    HW280695   5.171  13.717   8.109 -0.2439  1.8918 -2.3397
21029SOL     OW80696   2.740  13.029   2.300  0.5612  0.1577 -0.0900
21029SOL    HW180697   2.743  13.090   2.374  0.5112 -0.6943  0.6349
21029SOL    HW280698   2.747  13.085   2.223  0.2399  1.1061  0.5408
21030SOL     OW80699   4.800   6.019   5.423 -0.5478  0.0346 -0.0117
21030SOL    HW180700   4.852   6.027   5.343  0.4280  0.1530  0.6152
21030SOL    HW280701   4.761   5.932   5.418 -0.6315  0.1086 -0.6966
21031SOL     OW80702   4.564   9.784   5.058  0.3548 -0.4231  0.1929
21031SOL    HW180703   4.597   9.860   5.106 -0.7993  0.7444 -0.7716
21031SOL    HW280704   4.493   9.750   5.112  0.1200 -0.0988  0.0921
21032SOL     OW80705   5.336   8.886  13.467 -0.4176  0.3876 -0.1257
21032SOL    HW180706   5.309   8.858  13.555 -0.1448 -1.4878 -0.5979
21032SOL    HW280707   5.427   8.913  13.477  0.2545 -1.7100 -0.1532
21033SOL     OW80708   4.808  10.342   5.861  0.2800 -0.9270  0.2630
21033SOL    HW180709   4.806  10.256   5.818 -0.5161 -0.8532  0.1386
21033SOL    HW280710   4.798  10.322   5.954  2.0831 -1.0926  0.4663
21034SOL     OW80711   1.352   4.255   7.563 -0.2898  0.1568 -0.2496
21034SOL    HW180712   1.348   4.268   7.657 -1.0691 -0.2479 -0.2162
21034SOL    HW280713   1.391   4.167   7.553 -0.8351 -0.0819 -0.2830
21035SOL     OW80714   4.075   4.441   9.182  0.5242 -0.1807 -0.1823
21035SOL    HW180715   4.089   4.517   9.239  0.4136  0.2649 -0.7382
21035SOL    HW280716   4.162   4.422   9.147  0.3001  0.6330 -1.2073
21036SOL     OW80717  14.086   7.701  11.817  0.0885  0.4602 -0.5706
21036SOL    HW180718  14.033   7.623  11.835  0.0064  0.7975  0.7281
21036SOL    HW280719  14.122   7.686  11.729  0.1536 -1.0841 -0.3045
21037SOL     OW80720   6.729  12.473  12.289  0.5425  0.3499 -0.0586
21037SOL    HW180721   6.733  12.503  12.198  1.9521 -0.8161 -0.4197
21037SOL    HW280722   6.652  12.415  12.292  1.5759 -1.1519 -1.0490
21038SOL     OW80723  13.491   2.338   2.896  0.4346  0.4336 -0.3157
21038SOL    HW180724  13.568   2.298   2.936 -0.5632 -0.3242  0.9083
21038SOL    HW280725  13.423   2.271   2.901 -0.5393  1.3590 -0.6616
21039SOL     OW80726   5.921   0.591  11.824 -0.3489 -0.1381  0.7349
21039SOL    HW180727   5.854   0.524  11.829  0.0093 -0.8076 -1.9127
21039SOL    HW280728   5.883   0.659  11.769  1.2701 -0.8073 -1.3334
21040SOL     OW80729   9.570   2.199  12.788  0.0939  0.2292  0.4836
21040SOL    HW180730   9.650   2.239  12.755 -1.5353  1.9436 -1.7031
21040SOL    HW280731   9.537   2.260  12.853  1.5501 -1.5270  3.0539
21041SOL     OW80732   7.315  12.100  11.361 -0.2645  0.2762  0.3262
21041SOL    HW180733   7.388  12.113  11.300 -0.0567 -1.9943 -0.0025
21041SOL    HW280734   7.274  12.187  11.369  0.3730  0.8885 -2.1711
21042SOL     OW80735   9.047  12.933   1.151 -0.2465 -1.0823  0.4997
21042SOL    HW180736   9.051  13.020   1.189  0.0824 -0.0718 -1.6787
21042SOL    HW280737   9.138  12.904   1.147 -0.4577 -2.1320  2.4258
21043SOL     OW80738   9.480  12.238   6.144 -0.3615 -0.2159  0.3955
21043SOL    HW180739   9.530  12.172   6.096  0.0197  0.5578 -0.3054
21043SOL    HW280740   9.449  12.298   6.077  0.0170  0.7895  1.0892
21044SOL     OW80741  11.600   2.418   1.410 -0.3576  0.5775 -0.0342
21044SOL    HW180742  11.594   2.358   1.336 -2.9075  0.9366 -0.2064
21044SOL    HW280743  11.565   2.501   1.376 -1.4517  0.7793  1.5019
21045SOL     OW80744   4.318  12.284  11.682  0.0529  0.2247  0.2239
21045SOL    HW180745   4.273  12.202  11.666  0.3522  0.0420  0.3202
21045SOL    HW280746   4.296  12.339  11.607 -0.3973  0.1682  0.3091
21046SOL     OW80747  13.561   3.507   2.995 -1.0014 -0.2335  0.4627
21046SOL    HW180748  13.467   3.502   3.014 -1.7351  1.8913 -1.9262
21046SOL    HW280749  13.586   3.595   3.025 -0.2492 -0.0857 -0.5500
21047SOL     OW80750  13.433  11.555   8.708  0.6635 -0.6058 -0.2197
21047SOL    HW180751  13.439  11.460   8.698  1.8920 -0.7387  1.4144
21047SOL    HW280752  13.508  11.590   8.660  0.4868 -0.5008 -0.4201
21048SOL     OW80753   4.847  10.624   4.442  0.0748  0.0605  0.0999
21048SOL    HW180754   4.871  10.704   4.488  0.7790 -0.2742  0.3339
21048SOL    HW280755   4.877  10.638   4.352 -0.3871  0.3145 -0.0153
21049SOL     OW80756  12.353   6.617   7.660 -0.3901 -0.3920 -0.4799
21049SOL    HW180757  12.444   6.622   7.631  0.2254  0.9823  1.5542
21049SOL    HW280758  12.333   6.704   7.695 -2.6822 -0.4906 -1.3628
21050SOL     OW80759  11.235   8.970   5.374  0.1063 -0.7349 -0.1216
21050SOL    HW180760  11.221   9.065   5.381 -1.2869 -0.8149 -1.4612
21050SOL    HW280761  11.330   8.960   5.385  0.1185  0.6259  1.6110
21051SOL     OW80762  12.176   7.533   4.029  0.3010  0.3321  0.3534
21051SOL    HW180763  12.207   7.589   3.958  1.1969 -1.0841 -0.4388
21051SOL    HW280764  12.238   7.548   4.100  0.3520  0.5804  0.2557
21052SOL     OW80765   0.098   7.919   9.285 -0.1103  0.1679 -0.2160
21052SOL    HW180766   0.115   7.951   9.196  2.8864 -0.8910 -0.1250
21052SOL    HW280767   0.147   7.979   9.341  1.2937 -1.4222  0.3416
21053SOL     OW80768   4.711   8.737   6.342  0.2134  0.1898 -0.0836
21053SOL    HW180769   4.657   8.747   6.420 -0.0973  0.1147 -0.2878
21053SOL    HW280770   4.727   8.826   6.312 -1.3567  0.1841 -1.0817
21054SOL     OW80771   7.015   8.717   8.132  0.0603 -0.1859 -0.1611
21054SOL    HW180772   7.018   8.628   8.166 -0.3677 -0.6057 -1.1822
21054SOL    HW280773   6.968   8.710   8.049 -0.1775  1.0297 -0.1545
21055SOL     OW80774  12.615   8.919   5.755 -0.2266  0.5903  0.0778
21055SOL    HW180775  12.534   8.956   5.721 -0.5164 -0.9617 -0.9834
21055SOL    HW280776  12.587   8.846   5.810  0.4722 -0.4003 -0.8636
21056SOL     OW80777   5.702   4.728  11.060  0.3810  0.1159  0.4604
21056SOL    HW180778   5.653   4.690  11.133 -0.6386  2.2290  0.9557
21056SOL    HW280779   5.757   4.795  11.100 -0.8009  1.8855 -0.7349
21057SOL     OW80780   4.603   0.905   6.545  0.3089  0.1171 -0.6745
21057SOL    HW180781   4.620   0.975   6.483 -0.5054 -0.3757 -1.4794
21057SOL    HW280782   4.689   0.871   6.567  0.6242  0.4778 -1.3299
21058SOL     OW80783  11.888  11.998   2.582  0.4201  0.2030  0.4474
21058SOL    HW180784  11.920  12.077   2.626  0.2627  0.0794  0.7848
21058SOL    HW280785  11.936  11.926   2.624 -0.4125  0.0050  1.0656
21059SOL     OW80786  11.806   5.210   7.590  0.1500 -0.3842  0.5191
21059SOL    HW180787  11.854   5.152   7.649 -1.1961 -2.4871 -0.3439
21059SOL    HW280788  11.714   5.187   7.603 -0.4061  1.2162 -0.2736
21060SOL     OW80789   3.556  12.326   3.668  0.4217  0.1601 -0.4500
21060SOL    HW180790   3.600  12.242   3.671  0.0563 -0.0000  0.8052
21060SOL    HW280791   3.469  12.309   3.705  0.5980  1.2353  0.4977
21061SOL     OW80792  13.153   8.441   7.223 -0.3561  0.3854  0.2281
21061SOL    HW180793  13.225   8.459   7.283 -0.4296  0.8034  0.1931
21061SOL    HW280794  13.085   8.504   7.247 -1.2945 -0.9440  1.2268
21062SOL     OW80795   8.259   5.068   3.541  0.0200  0.5381 -0.4762
21062SOL    HW180796   8.333   5.074   3.601 -1.2847 -0.2916  1.3081
21062SOL    HW280797   8.252   5.155   3.502  0.3353  1.4116  1.3239
21063SOL     OW80798   3.325   0.645  13.712 -0.2119  0.5218  0.0593
21063SOL    HW180799   3.368   0.724  13.681  2.6472 -1.0572 -0.2962
21063SOL    HW280800   3.318   0.657  13.807 -1.2616  1.7857 -0.1432
21064SOL     OW80801   4.217   0.014   3.882  0.3927  0.2066  0.3783
21064SOL    HW180802   4.297   0.038   3.835 -0.4560  2.8214  0.1373
21064SOL    HW280803   4.149   0.013   3.814  0.0381 -1.2744  0.7084
21065SOL     OW80804  10.309   4.211   0.235 -0.1002  0.3098 -0.1161
21065SOL    HW180805  10.291   4.133   0.287 -0.1332  1.2645  1.3972
21065SOL    HW280806  10.365   4.181   0.164 -0.6616 -1.1916  0.0528
21066SOL     OW80807   4.698  12.941  13.430 -0.3095  0.3194  0.1202
21066SOL    HW180808   4.755  12.869  13.459  1.7302  1.6486 -0.3502
21066SOL    HW280809   4.622  12.935  13.487  0.6809 -1.0524  1.3930
21067SOL     OW80810   3.020   7.586   4.351 -0.2252  0.0509  0.3699
21067SOL    HW180811   3.013   7.674   4.314  2.6083 -0.0843 -0.7258
21067SOL    HW280812   2.970   7.531   4.292 -2.4697  0.9075  1.3498
21068SOL     OW80813  14.041   7.341   0.619 -0.0520  0.0447 -0.2585
21068SOL    HW180814  14.105   7.275   0.591 -1.5662 -0.7502 -2.1619
21068SOL    HW280815  14.031   7.398   0.543  0.4802  1.9282  1.0181
21069SOL     OW80816   3.018  13.711   3.436 -0.2826  0.7751 -0.3282
21069SOL    HW180817   3.018  13.717   3.532 -0.8453  0.1476 -0.2762
21069SOL    HW280818   3.109  13.690   3.413 -0.7052 -2.3775  0.3528
21070SOL     OW80819   3.210  13.041   2.811 -0.0169 -0.6667  0.3003
21070SOL    HW180820   3.244  13.129   2.801 -0.3234 -0.5772  0.0326
21070SOL    HW280821   3.286  12.988   2.833 -0.0358 -0.0981  1.8897
21071SOL     OW80822   5.254   6.946  13.513 -0.0809 -0.2039 -0.6845
21071SOL    HW180823   5.264   6.852  13.528 -0.4937 -0.3598 -1.3560
21071SOL    HW280824   5.159   6.960  13.512 -0.0248  0.1624 -0.9081
21072SOL     OW80825   2.673   6.619   6.148 -0.1276 -0.0607  0.2742
21072SOL    HW180826   2.617   6.619   6.071  0.9586 -0.8754 -0.5479
21072SOL    HW280827   2.750   6.670   6.122  0.3754 -0.5763  0.7145
21073SOL     OW80828   3.102   3.778  10.953 -0.6343 -0.2399  0.5485
21073SOL    HW180829   3.032   3.830  10.992  0.0639  0.4871  0.8765
21073SOL    HW280830   3.165   3.765  11.024  0.8317  1.3986 -0.3447
21074SOL     OW80831  11.885   1.538   7.137  0.1735 -0.2126  0.3195
21074SOL    HW180832  11.892   1.545   7.233 -0.2361  0.3972  0.3069
21074SOL    HW280833  11.974   1.519   7.108  0.3344 -0.2224  0.8090
21075SOL     OW80834   1.635   8.385  12.939 -0.3213 -0.4239 -0.2577
21075SOL    HW180835   1.599   8.469  12.909 -0.5506  0.6182  2.6500
21075SOL    HW280836   1.710   8.370  12.882 -0.8330  1.2719 -1.4781
21076SOL     OW80837   0.814   6.702   5.707 -0.0284  0.1088 -0.6249
21076SOL    HW180838   0.811   6.764   5.634  1.3499  1.5600  0.4567
21076SOL    HW280839   0.891   6.648   5.689 -0.4612 -0.4104 -0.9099
21077SOL     OW80840   5.899   1.210  10.893  0.4537  0.1808 -0.2570
21077SOL    HW180841   5.876   1.298  10.865 -1.1472 -0.1472 -0.0693
21077SOL    HW280842   5.889   1.212  10.989  0.3232 -0.2193 -0.2604
21078SOL     OW80843  13.448  12.809  12.909  0.3794  0.0954 -0.2621
21078SOL    HW180844  13.453  12.775  12.999  1.1353  1.6506  0.3340
21078SOL    HW280845  13.354  12.815  12.891  0.0532  2.4634  1.6009
21079SOL     OW80846   7.065   9.712   0.186  0.9187 -0.7140 -0.8019
21079SOL    HW180847   7.113   9.794   0.192  0.5421 -0.4444 -1.4009
21079SOL    HW280848   6.992   9.731   0.128 -0.2427 -0.9666  0.5197
21080SOL     OW80849  11.178   0.949  12.029  0.3354  0.0845 -0.0853
21080SOL    HW180850  11.169   0.859  11.999 -0.8437  0.3329 -0.5290
21080SOL    HW280851  11.243   0.988  11.970  1.4631 -0.6675  0.6160
21081SOL     OW80852   1.969  10.649   6.674  0.0272  0.2841 -0.1835
21081SOL    HW180853   2.026  10.666   6.599  0.1067  1.3659  0.1020
21081SOL    HW280854   2.024  10.602   6.736  0.9483  2.2026  0.5139
21082SOL     OW80855   4.133   2.172   3.180 -0.2244 -0.1740  0.0411
21082SOL    HW180856   4.187   2.247   3.156  1.9637 -1.4059  0.7224
21082SOL    HW280857   4.068   2.206   3.241  1.4774  0.9853  1.2767
21083SOL     OW80858   4.458   0.280   9.458 -0.5411 -0.6035  0.0521
21083SOL    HW180859   4.521   0.210   9.442  0.7375  0.4985 -0.0097
21083SOL    HW280860   4.439   0.273   9.552  2.0012  0.7910  0.7760
21084SOL     OW80861  13.897   0.837   3.993  0.6050 -0.6290 -1.0471
21084SOL    HW180862  13.956   0.783   3.940 -0.4464 -2.4835 -0.4271
21084SOL    HW280863  13.811   0.822   3.955  0.3923  1.4404 -1.4624
21085SOL     OW80864   4.473  12.812  11.896 -0.1917 -0.0976  0.1249
21085SOL    HW180865   4.532  12.887  11.903 -0.4965  0.6362 -3.1958
21085SOL    HW280866   4.390  12.849  11.865 -0.3552 -1.7401 -1.6267
21086SOL     OW80867   5.533  11.165  12.188 -0.1749  0.4252 -0.2651
21086SOL    HW180868   5.446  11.129  12.172 -0.5793  0.5059  1.5906
21086SOL    HW280869   5.540  11.238  12.127 -1.2736  0.2366 -0.6441
21087SOL     OW80870   3.204   9.214  10.081 -0.0656 -0.0690  0.1248
21087SOL    HW180871   3.257   9.189  10.157 -1.2191 -0.2077  0.9066
21087SOL    HW280872   3.266   9.259  10.023  0.8835 -0.1296  1.0530
21088SOL     OW80873   6.948  11.708   5.013 -0.8490 -0.4137 -0.5140
21088SOL    HW180874   6.988  11.632   4.971  0.0937 -0.2216  0.0100
21088SOL    HW280875   6.878  11.671   5.067 -0.7231 -0.8582 -0.6471
21089SOL     OW80876   2.374   0.084   7.359  0.0469 -0.3219 -0.7743
21089SOL    HW180877   2.333   0.079   7.272 -1.7996  3.3163 -0.2820
21089SOL    HW280878   2.301   0.092   7.420  1.3562  1.0874  0.7043
21090SOL     OW80879   2.353   1.207   8.364 -0.5841 -0.4728 -0.1434
21090SOL    HW180880   2.280   1.205   8.302  0.1401  1.3679 -1.1376
21090SOL    HW280881   2.431   1.215   8.309  0.0506  1.8742  0.9733
21091SOL     OW80882  13.365   8.858  11.486 -0.1698 -0.1156  0.0352
21091SOL    HW180883  13.275   8.859  11.518 -0.3449  0.5316 -0.4536
21091SOL    HW280884  13.384   8.950  11.466  0.1153 -0.4181 -1.1792
21092SOL     OW80885   5.636  13.490   7.577  0.5593  0.4785 -0.6409
21092SOL    HW180886   5.636  13.451   7.489 -1.0162  0.1366 -0.5067
21092SOL    HW280887   5.674  13.422   7.633  0.3734  0.1995 -0.8514
21093SOL     OW80888   1.718   7.987  10.382 -0.0636  0.4713 -0.0148
21093SOL    HW180889   1.689   8.074  10.410  0.8327  0.0230  2.5181
21093SOL    HW280890   1.639   7.945  10.349 -0.5041  2.2257 -1.3928
21094SOL     OW80891   7.886  10.619  12.079 -0.4867  0.2462 -0.3408
21094SOL    HW180892   7.901  10.680  12.152  1.3059 -0.5465  0.0017
21094SOL    HW280893   7.845  10.543  12.120  1.8404 -0.8130  0.1911
21095SOL     OW80894  12.713  12.039   4.017  0.4078 -0.5061  0.7639
21095SOL    HW180895  12.748  11.953   3.995  0.2367 -0.2382 -0.6780
21095SOL    HW280896  12.736  12.052   4.109  1.4471 -1.6013  0.6809
21096SOL     OW80897  14.055  12.498   8.390  0.1392 -0.5506  0.4023
21096SOL    HW180898  14.020  12.419   8.350  1.3853 -0.8230 -0.2166
21096SOL    HW280899  14.150  12.484   8.392  0.5195  1.3722 -0.7652
21097SOL     OW80900   1.761   9.921  11.664  0.0367 -0.5096  0.1189
21097SOL    HW180901   1.812  10.000  11.678  0.6917 -1.0216  0.7059
21097SOL    HW280902   1.686   9.930  11.722  0.0392 -0.2661  0.0854
21098SOL     OW80903   6.919   0.930  11.866  0.5663 -0.5106 -0.2585
21098SOL    HW180904   6.867   1.010  11.866 -0.3641 -1.0795 -1.5099
21098SOL    HW280905   6.885   0.879  11.940 -1.6913 -1.4616 -1.8351
21099SOL     OW80906   3.910  13.330   7.441 -0.1983  0.3583 -0.2173
21099SOL    HW180907   3.904  13.236   7.459  2.6936  0.5366  2.5573
21099SOL    HW280908   3.999  13.354   7.468 -1.3744  4.2197  0.8874
21100SOL     OW80909   5.764  13.774  11.440  0.1300 -0.5383 -0.3270
21100SOL    HW180910   5.857  13.762  11.419 -0.1124 -1.6747 -0.8549
21100SOL    HW280911   5.732  13.834  11.373  0.6846  0.6363  0.4358
21101SOL     OW80912  12.923   8.954  11.030  0.3564 -0.2961 -0.1754
21101SOL    HW180913  12.971   9.034  11.051 -2.1247  0.9033  1.3098
21101SOL    HW280914  12.849   8.983  10.977 -0.4618 -1.6366  0.1793
21102SOL     OW80915   4.572   7.582   9.702  0.1344  0.2230 -0.2169
21102SOL    HW180916   4.641   7.648   9.703  0.1922  0.1590  0.7358
21102SOL    HW280917   4.505   7.616   9.760 -0.1681 -0.2158 -0.3024
21103SOL     OW80918   6.167  10.045   5.425  0.0931  0.0882  0.1677
21103SOL    HW180919   6.257  10.040   5.393 -0.3477  0.4276 -1.1922
21103SOL    HW280920   6.115  10.002   5.357 -0.7895  0.0389  0.8647
21104SOL     OW80921   9.870  11.532   0.753 -0.4600 -0.1277  0.4129
21104SOL    HW180922   9.940  11.557   0.693 -1.5438  0.1018 -0.7845
21104SOL    HW280923   9.844  11.613   0.796 -2.3800  0.4945 -1.7596
21105SOL     OW80924   0.753   9.707  12.340 -0.0746 -0.2988  0.3485
21105SOL    HW180925   0.746   9.786  12.286  1.3739 -1.1114 -1.1158
21105SOL    HW280926   0.665   9.670  12.341 -0.1862 -0.1400 -1.2901
21106SOL     OW80927   9.930   5.719   5.927 -0.1082  0.5704 -0.0832
21106SOL    HW180928   9.974   5.636   5.910 -0.3301  0.5918 -0.8241
21106SOL    HW280929   9.838   5.696   5.940  0.2944  0.3544  2.9834
21107SOL     OW80930  11.549   4.974  13.241 -0.7904 -0.4554  0.3779
21107SOL    HW180931  11.528   5.064  13.215  0.2563  0.4984  2.5686
21107SOL    HW280932  11.607   4.942  13.172 -2.3315 -0.0351 -1.1974
21108SOL     OW80933   5.270   9.625  12.567  0.5762  0.0608  0.4305
21108SOL    HW180934   5.211   9.638  12.493  0.8260 -0.8603  0.0648
21108SOL    HW280935   5.213   9.596  12.638 -0.0152  2.9480  1.2920
21109SOL     OW80936   5.188  12.933  12.377 -0.2126 -0.1986  0.4835
21109SOL    HW180937   5.196  12.947  12.471  1.4061 -0.5187  0.4314
21109SOL    HW280938   5.233  12.850  12.361 -2.4951 -1.3567 -0.2859
21110SOL     OW80939   4.508   6.771   0.312 -0.0644 -0.1697  0.5029
21110SOL    HW180940   4.490   6.836   0.244 -1.8197  0.7482  1.7574
21110SOL    HW280941   4.434   6.709   0.305  1.0621 -1.5211 -0.0194
21111SOL     OW80942   4.199   1.087  13.639  0.1733 -0.1871  0.2312
21111SOL    HW180943   4.290   1.095  13.668  0.4757  0.7521 -0.8931
21111SOL    HW280944   4.204   1.091  13.544 -0.8865 -2.0696  0.0519
21112SOL     OW80945   1.840  10.638   1.496 -0.4473  0.0106 -0.2594
21112SOL    HW180946   1.876  10.603   1.578 -0.1428 -1.4177 -0.9722
21112SOL    HW280947   1.783  10.710   1.524 -1.3270 -1.2283  1.3139
21113SOL     OW80948   3.392  10.691   3.288 -0.4868  0.6541  0.4524
21113SOL    HW180949   3.406  10.767   3.345  2.2319 -0.2417  1.0870
21113SOL    HW280950   3.441  10.712   3.208 -0.3077 -0.1507  0.3479
21114SOL     OW80951   6.979   7.946   3.933 -0.5096 -0.4345 -0.0061
21114SOL    HW180952   7.055   8.003   3.918 -0.4381 -0.2302  1.0193
21114SOL    HW280953   6.917   7.971   3.865  0.2231 -0.4001 -0.6843
21115SOL     OW80954   0.006  11.830  10.821  0.4578  0.0084  0.3805
21115SOL    HW180955  -0.047  11.838  10.742 -0.1618  0.3507  0.8206
21115SOL    HW280956  -0.028  11.898  10.879  2.0471  0.8996  0.3120
21116SOL     OW80957  13.173  11.505   4.578  0.1643  0.3573  0.1574
21116SOL    HW180958  13.196  11.412   4.578  3.2130  0.9539 -2.1032
21116SOL    HW280959  13.140  11.522   4.490  0.1236  1.4866  0.3761
21117SOL     OW80960   4.143  11.261   2.218 -0.4367  0.0635  0.2092
21117SOL    HW180961   4.114  11.330   2.277  1.1855  2.1585 -1.3309
21117SOL    HW280962   4.237  11.254   2.234  0.1149  0.9234 -2.2682
21118SOL     OW80963   1.503  10.904  10.194 -0.4475  0.4580 -0.4233
21118SOL    HW180964   1.547  10.966  10.136 -2.0450 -0.1505 -2.4023
21118SOL    HW280965   1.571  10.875  10.255  0.8835  2.3790 -0.9309
21119SOL     OW80966   1.170   0.991  10.508 -0.6497  0.0399  0.2880
21119SOL    HW180967   1.123   0.959  10.585  0.8852 -0.0020  1.2473
21119SOL    HW280968   1.221   0.916  10.476  0.0600  0.5033  0.2936
21120SOL     OW80969   2.389   9.683  11.807  0.5695 -0.3200 -0.0154
21120SOL    HW180970   2.338   9.678  11.726 -0.9514 -0.4286  0.9183
21120SOL    HW280971   2.461   9.622  11.794 -0.5782 -1.5845 -0.6540
21121SOL     OW80972  12.153   2.328   1.561  0.4600 -0.8793 -0.2955
21121SOL    HW180973  12.239   2.314   1.601  0.4140 -0.3218 -0.0027
21121SOL    HW280974  12.144   2.255   1.499  1.0791 -1.0237 -0.2249
21122SOL     OW80975   2.343  12.875   0.489 -0.3434  0.2167 -0.4982
21122SOL    HW180976   2.407  12.934   0.447 -0.2871  1.7199  1.5357
21122SOL    HW280977   2.268  12.931   0.508 -1.5637 -1.1160 -1.1970
21123SOL     OW80978   0.349   1.055   4.576 -0.0883  0.4041  0.3975
21123SOL    HW180979   0.311   0.970   4.553  1.3387 -0.4119  0.9468
21123SOL    HW280980   0.274   1.114   4.583 -1.0126 -0.5519 -1.0240
21124SOL     OW80981   7.086   6.636   3.642  0.2512  0.0640 -0.4358
21124SOL    HW180982   7.069   6.668   3.554  0.5887 -1.6174 -1.1490
21124SOL    HW280983   7.030   6.559   3.651  1.4088 -0.7498  0.1808
21125SOL     OW80984   5.118  13.260   7.151  0.4753  0.3530  0.0769
21125SOL    HW180985   5.139  13.352   7.167  0.4180  0.5729 -1.0334
21125SOL    HW280986   5.162  13.239   7.069  0.9320 -0.7748  0.5864
21126SOL     OW80987   5.792  11.953   2.222  0.1452  0.2660 -0.0067
21126SOL    HW180988   5.696  11.958   2.218  0.1676  0.7269  0.0116
21126SOL    HW280989   5.812  11.940   2.315  0.1519  1.3821  0.1560
21127SOL     OW80990   4.859  10.862  12.104 -0.3345 -0.5570 -0.0457
21127SOL    HW180991   4.848  10.829  12.015 -0.1401 -0.0203 -0.2792
21127SOL    HW280992   4.790  10.929  12.114  1.2642  1.2896 -0.7574
21128SOL     OW80993   8.363   0.366   7.855  0.6154  0.1580 -0.8366
21128SOL    HW180994   8.268   0.353   7.849  0.7384 -1.0736 -0.2836
21128SOL    HW280995   8.373   0.457   7.882 -0.4144  0.2412 -0.7058
21129SOL     OW80996   6.181   7.596   0.645  0.8565  0.3837  0.0035
21129SOL    HW180997   6.145   7.683   0.627  1.3125  0.8205  1.0575
21129SOL    HW280998   6.229   7.573   0.566  1.0904  1.2960 -0.1409
21130SOL     OW80999  12.074   3.871   1.218  0.0897  0.2052 -0.1234
21130SOL    HW181000  11.985   3.862   1.251  0.5311 -0.9002  0.8524
21130SOL    HW281001  12.098   3.783   1.188  0.1872  0.8855 -2.2287
21131SOL     OW81002   0.161   6.447   8.124 -0.1797 -0.6365  0.0449
21131SOL    HW181003   0.248   6.473   8.094  0.3722 -1.0130  1.2411
21131SOL    HW281004   0.157   6.478   8.214 -1.0605 -1.1250  0.1836
21132SOL     OW81005  12.768   0.508  11.983 -0.2990 -0.6843 -0.2634
21132SOL    HW181006  12.729   0.536  12.066 -1.1596 -1.4953 -0.3710
21132SOL    HW281007  12.750   0.414  11.980 -0.2568 -0.6643 -1.3574
21133SOL     OW81008   1.834  12.149   0.135 -0.0979  0.0781 -0.6087
21133SOL    HW181009   1.769  12.079   0.135  0.2017 -0.2075 -0.1198
21133SOL    HW281010   1.795  12.218   0.082 -0.8650 -0.0242 -0.1874
21134SOL     OW81011  12.811   4.946  12.632 -0.6321  0.1374 -0.3495
21134SOL    HW181012  12.726   4.973  12.668 -0.5739  1.3990 -1.0690
21134SOL    HW281013  12.825   5.006  12.558  1.9055  1.4480  1.0565
21135SOL     OW81014   2.279  12.706  13.621 -0.3441 -0.5983  0.5698
21135SOL    HW181015   2.285  12.627  13.674 -2.4630  0.3261  2.3660
21135SOL    HW281016   2.242  12.676  13.538  0.5592 -1.7068  0.5423
21136SOL     OW81017  10.495  13.460   2.533  0.4991 -0.1445 -0.0957
21136SOL    HW181018  10.533  13.470   2.620  1.3894 -0.1132 -0.4756
21136SOL    HW281019  10.407  13.498   2.540 -0.4454 -2.4119  1.4506
21137SOL     OW81020   6.395   1.206   5.671  0.3070  0.3920  0.0092
21137SOL    HW181021   6.439   1.233   5.751 -1.6701  0.1967  1.2115
21137SOL    HW281022   6.304   1.233   5.683 -0.0186  0.4793 -2.2298
21138SOL     OW81023  11.964   5.279  10.974 -0.5149  0.1640  0.1863
21138SOL    HW181024  11.901   5.311  11.039 -0.9746  0.4962 -0.4123
21138SOL    HW281025  11.999   5.358  10.934 -0.6095 -0.0399 -0.3153
21139SOL     OW81026   0.462   2.634   1.967 -0.4085  0.1274 -0.0740
21139SOL    HW181027   0.550   2.667   1.947  0.4994 -1.5194  0.9723
21139SOL    HW281028   0.424   2.615   1.881 -0.4748  2.5026 -0.6429
21140SOL     OW81029  13.752   5.834  13.125 -0.1542  0.1438 -0.2025
21140SOL    HW181030  13.693   5.877  13.187  0.3604  1.6495 -0.7172
21140SOL    HW281031  13.811   5.904  13.097 -0.5981 -0.3963 -2.6552
21141SOL     OW81032   5.906   7.105   4.442  0.4434 -0.0309  0.7127
21141SOL    HW181033   5.833   7.049   4.418 -0.3498  0.9905  0.6851
21141SOL    HW281034   5.866   7.179   4.488  1.4619  0.5326  0.7315
21142SOL     OW81035   5.810  13.209  12.264  0.1374  0.2368  0.1810
21142SOL    HW181036   5.859  13.241  12.340 -1.0097  1.1647  0.5647
21142SOL    HW281037   5.826  13.275  12.196 -1.1412  0.9586  0.5465
21143SOL     OW81038   9.715   4.464   0.825  0.1722 -0.1932 -0.4500
21143SOL    HW181039   9.757   4.546   0.800 -0.9022  0.4047 -0.3519
21143SOL    HW281040   9.787   4.409   0.856  0.7700  1.1166  0.5791
21144SOL     OW81041  14.005   9.311   2.481 -0.1324 -0.1863 -0.4322
21144SOL    HW181042  14.025   9.251   2.553 -1.1200  0.0006  0.0134
21144SOL    HW281043  13.998   9.256   2.404 -1.9383 -0.7898  0.1264
21145SOL     OW81044   8.191   3.436  11.825  0.1607 -0.4994  0.4772
21145SOL    HW181045   8.242   3.368  11.781  0.6294 -0.4567  0.9428
21145SOL    HW281046   8.117   3.389  11.863 -0.5018 -0.4686 -0.7264
21146SOL     OW81047  10.415   0.487   2.618 -0.0193  0.0090  0.1900
21146SOL    HW181048  10.375   0.561   2.573 -2.5779 -0.7368  1.0516
21146SOL    HW281049  10.348   0.458   2.680  2.6588 -0.0086  3.3857
21147SOL     OW81050  13.121   1.564   6.582 -0.3806 -0.2515 -0.0307
21147SOL    HW181051  13.187   1.530   6.643 -0.0633 -0.7772 -0.6502
21147SOL    HW281052  13.105   1.654   6.611 -0.3328 -0.5312  0.8999
21148SOL     OW81053  11.554   2.276   4.532 -0.2785 -0.0484  0.4354
21148SOL    HW181054  11.472   2.264   4.484  0.3235  0.8623 -0.8716
21148SOL    HW281055  11.578   2.187   4.560 -1.7045 -0.3192  0.8464
21149SOL     OW81056   0.432   1.519  12.594 -0.4126 -0.0060  0.5572
21149SOL    HW181057   0.465   1.460  12.527 -1.3461  1.1252 -0.9486
21149SOL    HW281058   0.377   1.463  12.649 -1.1672 -0.5964 -0.7488
21150SOL     OW81059  12.904   7.938   3.063 -0.4519  0.0547 -0.2238
21150SOL    HW181060  12.960   7.861   3.068 -0.7265 -0.1202  0.2478
21150SOL    HW281061  12.955   8.008   3.104  0.5756  0.6153 -2.3195
21151SOL     OW81062   9.796  13.748   8.332 -0.2254  0.2699 -0.2948
21151SOL    HW181063   9.847  13.795   8.399  0.9329 -2.0477  0.5514
21151SOL    HW281064   9.845  13.761   8.251  1.7275 -1.7258  0.4594
21152SOL     OW81065   2.642   3.658   0.885 -0.2431 -0.0990  0.7510
21152SOL    HW181066   2.607   3.589   0.942 -2.0090  0.4047  0.3417
21152SOL    HW281067   2.573   3.672   0.820  1.3446 -0.0608 -1.0357
21153SOL     OW81068   3.209   9.874   3.136  0.0549  0.2858  0.3207
21153SOL    HW181069   3.207   9.926   3.216  1.8522  0.1365  0.4980
21153SOL    HW281070   3.120   9.879   3.102 -0.5429  0.9930  1.9114
21154SOL     OW81071   0.632   0.222   9.023  0.0897  0.1918 -0.1497
21154SOL    HW181072   0.563   0.167   9.062 -1.3107  1.0981 -1.2277
21154SOL    HW281073   0.713   0.176   9.043 -0.6006  0.0396  2.8629
21155SOL     OW81074  10.390   6.672   4.950 -0.0256  0.2277 -0.1388
21155SOL    HW181075  10.361   6.679   4.860 -0.5499  0.4947  0.0444
21155SOL    HW281076  10.311   6.648   4.999  0.3636 -0.4447  0.1766
21156SOL     OW81077   1.354   4.301   9.990 -0.2601 -0.6427  0.4203
21156SOL    HW181078   1.267   4.324  10.021  0.4171  0.6567  1.4523
21156SOL    HW281079   1.340   4.269   9.901 -1.5701  1.7388 -0.3265
21157SOL     OW81080  13.222  10.301  12.631  0.4246  0.4431  1.0658
21157SOL    HW181081  13.224  10.341  12.718 -2.9632 -0.1350  1.5383
21157SOL    HW281082  13.226  10.207  12.648 -1.9296  0.2350  0.8347
21158SOL     OW81083   7.489   7.109  12.665  0.0178  0.2239 -0.2965
21158SOL    HW181084   7.536   7.050  12.723 -0.9374 -0.8218 -0.5370
21158SOL    HW281085   7.549   7.182  12.650  1.7220 -1.2279 -0.9029
21159SOL     OW81086  10.831   7.024   0.803 -0.8856 -0.4094  0.0819
21159SOL    HW181087  10.911   7.059   0.763 -1.0655  0.1687  0.2164
21159SOL    HW281088  10.862   6.980   0.882 -0.6083 -0.9296 -0.3140
21160SOL     OW81089   4.529  12.457   9.513  0.7230 -0.0094  0.5591
21160SOL    HW181090   4.500  12.547   9.528 -0.9025 -0.4416  0.2648
21160SOL    HW281091   4.599  12.443   9.577  0.2879  1.1350  1.3154
21161SOL     OW81092  10.655   4.540   2.036  0.7064  0.2292 -0.0885
21161SOL    HW181093  10.674   4.626   2.072  1.2201  0.1233 -0.1003
21161SOL    HW281094  10.653   4.482   2.112  2.6222 -0.1433 -0.2763
21162SOL     OW81095   8.114   2.106  11.811  0.1508 -0.1769 -0.2669
21162SOL    HW181096   8.023   2.135  11.808  0.6454  1.6348  0.6946
21162SOL    HW281097   8.110   2.013  11.829 -1.5477 -0.7246 -3.0152
21163SOL     OW81098   0.090   1.760  11.170 -0.4189  0.4522 -0.0739
21163SOL    HW181099   0.019   1.823  11.183  0.5448  1.6964 -0.6235
21163SOL    HW281100   0.140   1.763  11.251 -1.3097 -0.8727  0.5466
21164SOL     OW81101   9.477   9.829  11.450  0.3071  0.3963 -0.7451
21164SOL    HW181102   9.393   9.828  11.495 -0.3025  0.5417 -1.8670
21164SOL    HW281103   9.534   9.881  11.507  0.0287 -0.7617  0.6703
21165SOL     OW81104   5.515   6.154   2.749  0.0027 -0.3407  0.1876
21165SOL    HW181105   5.481   6.065   2.761  0.2020 -0.2839  1.3548
21165SOL    HW281106   5.437   6.210   2.751 -0.0476 -0.4166  0.4255
21166SOL     OW81107   8.223   7.221  13.394 -0.0566  0.0198 -0.2916
21166SOL    HW181108   8.132   7.246  13.411  0.8819  2.2607  2.0958
21166SOL    HW281109   8.275   7.281  13.447  2.7718 -2.4988  0.0899
21167SOL     OW81110  10.773  13.541  11.935 -0.1453  0.4189 -0.7738
21167SOL    HW181111  10.867  13.539  11.920  0.4078 -0.1560  2.2265
21167SOL    HW281112  10.748  13.632  11.921  1.1519  0.9021 -0.0998
21168SOL     OW81113  13.195   2.133   3.626  0.0301 -0.3443 -0.0498
21168SOL    HW181114  13.192   2.141   3.722  0.2167 -1.6222  0.0818
21168SOL    HW281115  13.275   2.177   3.601 -0.8155  1.4407  0.1937
21169SOL     OW81116   6.952   7.650   4.391 -0.1546 -0.1819 -0.3789
21169SOL    HW181117   6.917   7.592   4.323 -0.0106 -0.0914 -0.5304
21169SOL    HW281118   6.937   7.738   4.357 -1.3373 -0.0890  0.3162
21170SOL     OW81119  11.544   5.979   1.680  0.1227  1.0492 -0.5566
21170SOL    HW181120  11.630   6.010   1.710 -0.0278  1.3117 -0.3873
21170SOL    HW281121  11.503   6.056   1.641 -0.3182  1.1080  0.0078
21171SOL     OW81122   0.863   5.494   6.930 -0.2292 -0.6729 -0.4430
21171SOL    HW181123   0.879   5.588   6.922  1.6749 -0.9140  0.0412
21171SOL    HW281124   0.918   5.455   6.862 -0.2698 -1.4988 -0.0071
21172SOL     OW81125  13.616  12.527   7.281 -0.0854 -0.1359 -0.5344
21172SOL    HW181126  13.604  12.436   7.309  0.5026 -0.4282 -1.1865
21172SOL    HW281127  13.701  12.552   7.317 -1.1614  0.8796  1.4336
21173SOL     OW81128   1.625  10.706   5.953 -0.6464 -0.1511 -0.1525
21173SOL    HW181129   1.533  10.724   5.932 -0.7671  1.0640  1.2054
21173SOL    HW281130   1.629  10.612   5.968 -1.6422 -0.2374 -0.4010
21174SOL     OW81131   6.560   7.936   4.697  0.2792 -0.1625 -0.1148
21174SOL    HW181132   6.589   8.019   4.661  0.6821 -0.9507 -1.7009
21174SOL    HW281133   6.465   7.935   4.683  0.4501 -0.5277 -1.3764
21175SOL     OW81134   2.404   3.111   8.434  0.0060 -0.4353  0.1862
21175SOL    HW181135   2.349   3.037   8.408  0.2549 -0.4595 -0.2744
21175SOL    HW281136   2.435   3.088   8.522 -0.3594 -0.6238  0.2692
21176SOL     OW81137   5.335   3.955   7.071  0.3650  0.5382 -0.1014
21176SOL    HW181138   5.305   3.933   7.159 -0.2789  0.5308 -0.3177
21176SOL    HW281139   5.259   3.939   7.015  0.3666  1.7624 -0.4834
21177SOL     OW81140   6.395  13.580  12.992 -0.4400  0.3599 -0.3374
21177SOL    HW181141   6.423  13.556  13.080 -0.3258  1.1522 -0.1490
21177SOL    HW281142   6.391  13.497  12.944  2.1740  0.1742 -0.3695
21178SOL     OW81143   3.031   2.041   2.753 -0.2350 -0.0597 -0.1584
21178SOL    HW181144   3.069   1.979   2.690 -0.9688  0.8514 -1.5571
21178SOL    HW281145   3.102   2.059   2.814  1.0167  0.1848 -1.6151
21179SOL     OW81146   1.353   7.248   9.987 -1.0192  0.5446  0.2468
21179SOL    HW181147   1.279   7.307   9.997 -0.1588  1.8028 -0.6044
21179SOL    HW281148   1.417   7.278  10.051 -0.8625  0.0744  0.3136
21180SOL     OW81149   7.800   3.072  12.815  0.3001 -0.1291  0.0591
21180SOL    HW181150   7.868   3.080  12.881  1.5471  0.0911 -1.2096
21180SOL    HW281151   7.735   3.138  12.839  0.5761 -0.2598  1.2146
21181SOL     OW81152   0.507   6.411   3.944  0.1583 -0.0869 -0.0528
21181SOL    HW181153   0.571   6.349   3.909  0.8470  0.4282  0.2707
21181SOL    HW281154   0.556   6.460   4.011 -0.8943 -0.5122  1.0707
21182SOL     OW81155   5.622  11.680   6.995 -0.1596 -0.3077 -0.4045
21182SOL    HW181156   5.673  11.752   6.958 -0.6732  0.7117  0.7721
21182SOL    HW281157   5.558  11.658   6.927  1.2971 -1.0630 -1.5735
21183SOL     OW81158  13.776   8.191   5.350 -0.2938  0.5634  0.5384
21183SOL    HW181159  13.784   8.242   5.269 -1.2526 -1.8224 -1.1776
21183SOL    HW281160  13.703   8.231   5.397 -0.1067  1.6253 -0.0354
21184SOL     OW81161   9.408   5.095   0.627  0.3974 -0.2798 -0.0484
21184SOL    HW181162   9.484   5.044   0.600  1.1412  0.7030  0.0942
21184SOL    HW281163   9.345   5.085   0.556  1.7100  1.0141 -1.4870
21185SOL     OW81164   2.452  11.399   4.287 -0.1078 -0.0925  0.3016
21185SOL    HW181165   2.446  11.346   4.367 -0.3679  1.0568  1.0605
21185SOL    HW281166   2.494  11.480   4.316  0.6738 -0.0461 -0.9299
21186SOL     OW81167  13.596   6.008   2.660 -0.2368  0.2837  0.0856
21186SOL    HW181168  13.516   6.039   2.703  0.0130 -0.0200  0.7859
21186SOL    HW281169  13.566   5.968   2.578 -0.8178  0.0461  0.4094
21187SOL     OW81170   6.863   1.582  12.807  0.1563  0.0309  0.0097
21187SOL    HW181171   6.834   1.499  12.845 -1.3535 -0.5190 -2.1655
21187SOL    HW281172   6.784   1.636  12.806  0.8283  1.0401  0.2188
21188SOL     OW81173   8.872   2.513   2.212  0.4547  0.3514 -0.3711
21188SOL    HW181174   8.960   2.500   2.176  0.9775 -0.3301  1.0811
21188SOL    HW281175   8.827   2.429   2.197 -0.3132  0.9957 -1.9641
21189SOL     OW81176   5.162   6.986   0.575 -0.0370  0.1513 -0.1732
21189SOL    HW181177   5.133   6.965   0.664 -1.2246 -0.7967 -0.7517
21189SOL    HW281178   5.227   7.055   0.587  0.2585 -0.3586  1.4703
21190SOL     OW81179   8.432   7.791  12.700  0.4078 -0.1731 -0.6332
21190SOL    HW181180   8.511   7.737  12.706  2.2798  2.1371 -2.5139
21190SOL    HW281181   8.396   7.790  12.788  2.6259 -1.1666  0.3516
21191SOL     OW81182   5.562  11.340  13.275  0.3022  0.2774  0.4235
21191SOL    HW181183   5.566  11.435  13.267  1.0512  0.3648  1.5929
21191SOL    HW281184   5.470  11.318  13.261  0.3758  0.9949 -1.4021
21192SOL     OW81185  14.019   2.651  12.359  0.1526  0.1222 -0.2534
21192SOL    HW181186  13.958   2.577  12.358  0.7753 -0.4065  0.0893
21192SOL    HW281187  14.064   2.644  12.443  1.5513 -0.2269 -1.0019
21193SOL     OW81188   1.579   3.759   6.937  0.2587  0.0840 -0.0832
21193SOL    HW181189   1.521   3.704   6.989 -0.4826  0.2848 -0.6696
21193SOL    HW281190   1.647   3.787   6.998 -1.7180  2.0456  1.3868
21194SOL     OW81191   7.942   0.767  11.239  0.2628 -0.4128 -0.1985
21194SOL    HW181192   7.939   0.862  11.225  0.6354 -0.3263  0.2891
21194SOL    HW281193   8.035   0.747  11.252  0.0365 -0.5880  1.3400
21195SOL     OW81194   6.946   1.098  13.495  0.0135 -0.0651  0.6475
21195SOL    HW181195   6.984   1.117  13.580  1.4433 -1.2938  0.3145
21195SOL    HW281196   6.902   1.014  13.506  0.9039 -0.6233 -0.0341
21196SOL     OW81197   4.658   0.528   7.249  0.1313  0.5671 -0.3073
21196SOL    HW181198   4.658   0.509   7.156 -0.3127  1.2308 -0.4552
21196SOL    HW281199   4.708   0.457   7.289 -1.3076 -0.7885 -0.8219
21197SOL     OW81200  11.162   0.016   4.873  0.6015  0.0956 -0.2486
21197SOL    HW181201  11.152  -0.023   4.786  0.2798 -1.0252  0.2795
21197SOL    HW281202  11.072   0.021   4.907  0.7783  0.0331  0.2271
21198SOL     OW81203  11.855  13.339   7.350  0.5874  0.2823 -0.7243
21198SOL    HW181204  11.779  13.319   7.405  0.1993  0.1764 -1.2854
21198SOL    HW281205  11.840  13.288   7.271  0.7281  1.0634 -1.2621
21199SOL     OW81206   8.547  13.500   1.560  0.0102  0.4247 -0.1746
21199SOL    HW181207   8.553  13.464   1.648  0.5014  1.9167  0.4375
21199SOL    HW281208   8.612  13.451   1.509  0.6158  0.4011  0.6042
21200SOL     OW81209  10.260  11.400  10.341 -0.1868 -0.2342  0.2098
21200SOL    HW181210  10.172  11.368  10.361 -0.1084 -0.1248  0.7311
21200SOL    HW281211  10.288  11.348  10.266 -0.0029 -1.5005  1.1227
21201SOL     OW81212  11.403   7.266  12.901 -0.5699 -0.3391 -0.3229
21201SOL    HW181213  11.322   7.314  12.885 -0.8788 -1.0743 -1.1060
21201SOL    HW281214  11.471   7.319  12.859 -0.7731 -0.1204 -0.3774
21202SOL     OW81215  11.063   5.976  11.129 -0.5258 -0.4207  0.8610
21202SOL    HW181216  11.141   6.032  11.127 -0.6425 -0.1864 -2.3112
21202SOL    HW281217  10.991   6.036  11.145 -0.4067  0.0287 -0.1871
21203SOL     OW81218  10.442  11.181   0.482  0.5359 -0.5756 -0.0313
21203SOL    HW181219  10.485  11.173   0.397  1.0329  1.8542 -0.0930
21203SOL    HW281220  10.348  11.170   0.462  0.3898  2.2602 -1.3991
21204SOL     OW81221  13.370  13.603   1.702 -0.3020 -0.9095  0.3677
21204SOL    HW181222  13.325  13.519   1.717  0.3676 -1.1935  0.8320
21204SOL    HW281223  13.339  13.659   1.774 -0.7117 -0.7667  0.0861
21205SOL     OW81224   0.661   9.638   3.489  0.0182 -0.4670  0.6812
21205SOL    HW181225   0.678   9.571   3.423 -0.5640 -1.0812  1.1332
21205SOL    HW281226   0.582   9.607   3.534  0.2670  0.0649  1.5029
21206SOL     OW81227   4.190  10.168  10.677  0.2992 -0.3094 -0.5737
21206SOL    HW181228   4.167  10.261  10.684 -1.5837 -0.8295  1.1165
21206SOL    HW281229   4.249  10.164  10.602  1.0644  2.3466 -0.2324
21207SOL     OW81230   3.205  11.430  11.042  0.2531 -0.4660 -0.3278
21207SOL    HW181231   3.187  11.418  10.948 -0.5286  0.1218 -0.2645
21207SOL    HW281232   3.222  11.524  11.051 -2.0146 -0.0675  0.4671
21208SOL     OW81233  11.434  14.016  11.473  0.1860  0.3053 -0.4910
21208SOL    HW181234  11.407  14.055  11.390  0.1510  1.8287  0.2103
21208SOL    HW281235  11.354  14.013  11.526  0.4016  0.2500 -0.1606
21209SOL     OW81236  10.117   2.932   6.420 -0.6294 -0.4148  0.4251
21209SOL    HW181237  10.094   3.018   6.455  0.8547  0.5018 -0.7215
21209SOL    HW281238  10.118   2.945   6.325  0.6061 -1.4312  0.2844
21210SOL     OW81239   4.930  13.282   2.207  0.4253  0.1630  0.2472
21210SOL    HW181240   5.023  13.263   2.201  0.8025  2.0698 -1.1977
21210SOL    HW281241   4.891  13.233   2.135  0.8599  1.8175 -1.1996
21211SOL     OW81242   4.556   6.666   2.975  0.6987 -0.5885 -0.4289
21211SOL    HW181243   4.564   6.570   2.980  0.7398 -0.7714 -2.8384
21211SOL    HW281244   4.515   6.682   2.891  0.2204  1.5381  0.1491
21212SOL     OW81245   6.999  13.966   9.529 -0.1400  0.5202  0.3191
21212SOL    HW181246   6.944  13.897   9.492 -1.8983  1.4858  1.0403
21212SOL    HW281247   6.938  14.032   9.561  1.4110  1.2669  1.9231
21213SOL     OW81248   5.651  10.536   6.710 -0.6550  0.7645 -0.5856
21213SOL    HW181249   5.633  10.450   6.750  0.1088  1.0677  0.4382
21213SOL    HW281250   5.738  10.558   6.740 -0.0685  1.0513 -2.4021
21214SOL     OW81251   1.795   1.083  11.016  0.3331 -0.5728  0.1075
21214SOL    HW181252   1.741   1.080  11.095 -0.7539  0.4727 -0.5739
21214SOL    HW281253   1.884   1.067  11.048  0.2084  1.6426  1.8467
21215SOL     OW81254   9.573   3.144   6.784 -0.0234  0.1689 -0.3537
21215SOL    HW181255   9.624   3.064   6.791  0.6268  0.6597  0.8804
21215SOL    HW281256   9.568   3.178   6.874 -0.5762  1.3187 -0.7904
21216SOL     OW81257   6.912  10.123   0.081  0.0483 -0.3363 -0.3133
21216SOL    HW181258   6.941  10.177   0.007  2.3279 -1.5944 -0.4235
21216SOL    HW281259   6.893  10.186   0.150  1.1611  0.6948 -0.9125
21217SOL     OW81260   9.332   0.436   5.344  0.1906 -0.0428 -0.1094
21217SOL    HW181261   9.356   0.506   5.284  2.4126 -1.5057 -1.0546
21217SOL    HW281262   9.395   0.443   5.417  0.4882 -1.0596 -0.2498
21218SOL     OW81263   9.213  13.299   9.723 -0.3652  0.3799 -0.0109
21218SOL    HW181264   9.226  13.387   9.689  1.5866 -0.1800 -0.8193
21218SOL    HW281265   9.269  13.294   9.801 -0.6910 -0.0560  0.2044
21219SOL     OW81266   9.091   8.559   6.180 -0.3785 -0.3669 -0.4825
21219SOL    HW181267   9.076   8.521   6.093  0.6277 -0.3777 -0.6667
21219SOL    HW281268   9.007   8.597   6.204 -0.7185 -0.5015 -1.3953
21220SOL     OW81269  13.090   3.358   8.130  0.8500 -0.3610 -0.0867
21220SOL    HW181270  13.051   3.360   8.217  0.6211 -1.3765 -0.1464
21220SOL    HW281271  13.026   3.310   8.077  1.2719 -0.2971 -0.6615
21221SOL     OW81272   4.480   6.476  12.453  0.3581  0.0127  0.4626
21221SOL    HW181273   4.439   6.548  12.404  0.5923  0.0507  0.3231
21221SOL    HW281274   4.566   6.465  12.412 -0.6036 -1.9933 -1.1546
21222SOL     OW81275   1.969   1.976  13.736  0.8835 -0.0826  0.3052
21222SOL    HW181276   1.948   2.069  13.729  0.3857 -0.2504 -0.5370
21222SOL    HW281277   2.046   1.973  13.794  1.5399  0.9360 -0.4905
21223SOL     OW81278   8.761  13.772   8.254 -0.0226 -0.2560 -0.6103
21223SOL    HW181279   8.806  13.782   8.169 -0.5546 -2.0448 -1.1437
21223SOL    HW281280   8.830  13.743   8.314  0.2443  0.4817 -0.5493
21224SOL     OW81281   2.156  12.121   4.426 -0.2494 -0.1321  0.2963
21224SOL    HW181282   2.147  12.163   4.340  2.6383  1.3582  0.5805
21224SOL    HW281283   2.167  12.028   4.407 -0.5641  0.0576 -0.8681
21225SOL     OW81284   1.126  13.207  12.532  0.5164  0.6201  0.3156
21225SOL    HW181285   1.086  13.180  12.449 -0.5717  2.6354  0.1313
21225SOL    HW281286   1.169  13.290  12.512 -0.1445  1.3664  1.8464
21226SOL     OW81287   8.776   6.016   2.267 -0.3438 -0.5515 -0.1298
21226SOL    HW181288   8.817   6.041   2.185 -0.7385  0.2998 -0.0817
21226SOL    HW281289   8.688   6.053   2.262 -0.3112 -0.3271  0.7424
21227SOL     OW81290   2.037  12.705   1.346 -0.5612 -0.3680 -0.0457
21227SOL    HW181291   2.099  12.764   1.389  1.2790 -1.7265 -0.7024
21227SOL    HW281292   2.037  12.734   1.254 -1.3324 -0.0505  0.0462
21228SOL     OW81293   7.698   2.878  11.571 -0.0699 -1.1348  0.3609
21228SOL    HW181294   7.620   2.934  11.572  0.1382 -0.8191 -0.3364
21228SOL    HW281295   7.771   2.939  11.577  0.1346 -1.4046  0.6342
21229SOL     OW81296  10.661   4.001   0.262 -0.3278  0.3856  0.0432
21229SOL    HW181297  10.744   3.979   0.221 -1.3647 -1.3944 -1.2409
21229SOL    HW281298  10.678   4.084   0.308  1.6663  0.9839 -1.6223
21230SOL     OW81299  13.233   0.720   1.090 -0.8193 -0.5367  0.4498
21230SOL    HW181300  13.231   0.782   1.163  0.1554 -0.0629  0.0910
21230SOL    HW281301  13.253   0.635   1.131  2.2285  0.1128  0.5581
21231SOL     OW81302   5.122  10.086   7.463 -0.0147  0.2245 -0.4659
21231SOL    HW181303   5.063  10.028   7.415 -0.0732 -0.6686  0.6277
21231SOL    HW281304   5.067  10.125   7.531  0.1417  1.1909 -0.8887
21232SOL     OW81305  10.482   9.816  10.403 -0.1545  0.1206  0.5352
21232SOL    HW181306  10.550   9.827  10.470  1.8816 -0.2424 -1.3660
21232SOL    HW281307  10.529   9.787  10.325 -2.2597  1.5202 -1.3960
21233SOL     OW81308   7.703   7.094   3.645  0.4798  0.0905 -0.5965
21233SOL    HW181309   7.631   7.067   3.703 -0.6649  0.8464 -1.6368
21233SOL    HW281310   7.665   7.162   3.589  1.9475  0.3377 -1.3250
21234SOL     OW81311   2.761  11.609   9.208 -0.2667  0.2186 -0.2485
21234SOL    HW181312   2.681  11.617   9.156  0.0933  1.7408 -0.6390
21234SOL    HW281313   2.830  11.594   9.143 -0.0611  0.2154 -0.0323
21235SOL     OW81314   5.077  10.813   2.809 -0.1981 -0.6863  0.7847
21235SOL    HW181315   5.100  10.820   2.716  1.7466  0.0707  1.2746
21235SOL    HW281316   5.065  10.720   2.824  0.2274 -0.8877 -0.0582
21236SOL     OW81317   5.475   1.248  10.017  0.0010 -0.6153  0.1371
21236SOL    HW181318   5.508   1.239   9.927  0.6618 -0.8281  0.3973
21236SOL    HW281319   5.553   1.261  10.070 -0.4572  0.4564  0.5737
21237SOL     OW81320   3.210  11.673   5.496  0.1466 -0.0772 -0.3321
21237SOL    HW181321   3.228  11.742   5.432 -0.3131 -0.5912 -1.0307
21237SOL    HW281322   3.164  11.605   5.446 -1.1307 -0.0537  0.7613
21238SOL     OW81323   3.941   4.039   7.343  0.3230 -0.1412 -0.0239
21238SOL    HW181324   4.035   4.054   7.335  0.1562  0.6581 -0.6533
21238SOL    HW281325   3.909   4.039   7.253 -0.0815 -1.9015  0.0823
21239SOL     OW81326  11.017  10.067   8.898 -0.1262 -0.1415 -0.5135
21239SOL    HW181327  10.933  10.025   8.914  0.6525 -1.7534 -0.4712
21239SOL    HW281328  11.007  10.156   8.932 -1.0765 -1.0121  1.6116
21240SOL     OW81329   2.314   2.039   6.881  0.5524  0.1246 -0.4488
21240SOL    HW181330   2.384   2.019   6.818  2.0854  1.7620  0.6385
21240SOL    HW281331   2.359   2.047   6.965 -1.0165  0.7407  0.3689
21241SOL     OW81332   5.502   4.459   4.265 -0.1108 -0.5496  0.0256
21241SOL    HW181333   5.541   4.372   4.262 -0.2967 -0.6471  0.4367
21241SOL    HW281334   5.492   4.484   4.173 -1.5978 -1.6498 -0.1526
21242SOL     OW81335   6.567   6.211  11.514 -0.9468 -0.4592  0.0180
21242SOL    HW181336   6.623   6.236  11.441 -0.6391 -1.8323 -0.2293
21242SOL    HW281337   6.624   6.219  11.591 -1.7885  2.8937  0.4547
21243SOL     OW81338   4.447  11.108  12.350 -0.4276  0.3678 -0.1936
21243SOL    HW181339   4.367  11.143  12.312 -1.5439 -1.6825  0.1114
21243SOL    HW281340   4.417  11.043  12.414  1.4535  0.9732  1.4132
21244SOL     OW81341   3.860  13.304   5.777  0.3127  0.4066  0.2886
21244SOL    HW181342   3.847  13.241   5.707  0.5555  1.8177 -1.0685
21244SOL    HW281343   3.786  13.289   5.836 -0.7517  0.1884 -1.0523
21245SOL     OW81344  13.976   5.964   6.887  0.2770  0.3374 -0.3608
21245SOL    HW181345  13.974   5.869   6.876  0.0115  0.4912 -1.9391
21245SOL    HW281346  13.982   5.998   6.797  1.4996  1.7866  0.2292
21246SOL     OW81347  12.301   0.680   2.503 -0.2244 -0.0173 -0.1424
21246SOL    HW181348  12.246   0.733   2.561 -0.0071 -0.5847  0.5894
21246SOL    HW281349  12.380   0.663   2.554 -0.2927 -1.0527 -0.3623
21247SOL     OW81350   4.189  13.585   4.062  0.5200 -0.1965  0.3410
21247SOL    HW181351   4.183  13.650   4.131  1.9539  1.4839 -1.0010
21247SOL    HW281352   4.101  13.582   4.024  0.6495  1.7986 -0.2316
21248SOL     OW81353  11.595  11.608   6.878  0.1164  0.3125 -0.2453
21248SOL    HW181354  11.616  11.564   6.961 -1.5783 -0.6445 -0.2745
21248SOL    HW281355  11.675  11.600   6.826  1.6708  2.0632  1.7063
21249SOL     OW81356  11.924   7.482   3.160  0.3838  0.2203 -0.0427
21249SOL    HW181357  11.913   7.483   3.255  1.9129 -2.1499  0.2442
21249SOL    HW281358  11.838   7.457   3.126 -0.2984  1.5211  0.6300
21250SOL     OW81359   1.616   3.072   7.026  0.3120 -0.0188 -0.1032
21250SOL    HW181360   1.660   2.995   7.061  1.5335  1.5179  2.0016
21250SOL    HW281361   1.660   3.089   6.943  1.1946 -0.6315  0.2237
21251SOL     OW81362   4.917   9.244   5.099 -0.0875 -0.5920 -0.2494
21251SOL    HW181363   4.840   9.301   5.107 -0.2100 -0.7136 -0.5329
21251SOL    HW281364   4.950   9.236   5.188  0.2271  0.3264 -0.2750
21252SOL     OW81365   7.602   3.074   1.147  0.7043 -0.5531  0.0729
21252SOL    HW181366   7.653   3.153   1.167 -1.0669  0.3943  1.1142
21252SOL    HW281367   7.574   3.086   1.056  3.0941 -1.5952 -0.8985
21253SOL     OW81368  10.962   4.843   9.900 -0.0274  0.0099  0.4050
21253SOL    HW181369  10.945   4.897   9.977  2.2341  1.5120 -0.0362
21253SOL    HW281370  11.041   4.794   9.923 -0.3431 -0.8737 -0.3390
21254SOL     OW81371   7.079   2.215   3.210 -0.4116  0.8985  0.2212
21254SOL    HW181372   7.020   2.247   3.279 -0.7945 -0.6001  0.6185
21254SOL    HW281373   7.149   2.280   3.207 -1.8000  2.4625  0.0820
21255SOL     OW81374   8.171   2.382   6.002 -0.8837 -1.0131  0.0297
21255SOL    HW181375   8.254   2.336   6.012 -0.9093 -1.3914 -1.2231
21255SOL    HW281376   8.148   2.413   6.090  1.2874  0.3506  0.1863
21256SOL     OW81377  11.335  11.519   0.240  0.2390  0.2451 -0.0166
21256SOL    HW181378  11.277  11.474   0.178  1.4452 -1.9532  0.3268
21256SOL    HW281379  11.288  11.517   0.323  0.2160 -0.2839 -0.0405
21257SOL     OW81380   4.671  13.873   2.968 -0.1074 -0.0718  0.0976
21257SOL    HW181381   4.714  13.955   2.991  0.3931 -0.7828  1.8576
21257SOL    HW281382   4.586  13.878   3.010 -0.3812 -0.1367 -0.4457
21258SOL     OW81383   2.956   0.246  12.507 -0.1729  0.2437  0.2130
21258SOL    HW181384   2.892   0.317  12.511  1.1792  1.4156  2.0104
21258SOL    HW281385   3.021   0.275  12.444  1.9443  2.0792  3.0271
21259SOL     OW81386  12.281   6.088   9.599  0.1318  0.0753  0.0942
21259SOL    HW181387  12.188   6.101   9.579 -0.2487 -1.6933  0.5434
21259SOL    HW281388  12.308   6.017   9.542  0.6114 -0.9465  1.5440
21260SOL     OW81389   3.132  11.391   7.518 -0.0459  0.4113  0.3328
21260SOL    HW181390   3.154  11.477   7.482 -1.2040  0.4089 -0.4133
21260SOL    HW281391   3.207  11.368   7.574  0.1142  2.0540  0.8318
21261SOL     OW81392  10.029  11.812   2.955 -0.2990  0.7574 -0.2396
21261SOL    HW181393   9.971  11.741   2.927  0.7165 -0.7221  1.2742
21261SOL    HW281394   9.976  11.865   3.015 -0.8358  0.8918 -0.8216
21262SOL     OW81395   1.275   6.043  10.685 -0.0053  0.6565 -0.6457
21262SOL    HW181396   1.362   6.006  10.667 -0.1433 -1.2891  2.0001
21262SOL    HW281397   1.283   6.079  10.773 -2.0084 -0.0880 -0.1110
21263SOL     OW81398   8.701   0.203   5.798 -0.4034 -0.1296  0.0440
21263SOL    HW181399   8.691   0.282   5.745 -0.6075 -0.6321 -0.6833
21263SOL    HW281400   8.615   0.191   5.840  0.2207  1.1863  1.8463
21264SOL     OW81401   2.143   3.990  11.478  0.1553 -0.1224 -0.4086
21264SOL    HW181402   2.197   3.916  11.506 -0.8318 -1.0728 -0.9412
21264SOL    HW281403   2.077   3.999  11.547  1.2182  1.3160  0.4611
21265SOL     OW81404  11.027   3.118   0.326 -0.0453 -0.0108  0.2145
21265SOL    HW181405  11.043   3.143   0.417 -0.8161 -0.7036  0.5492
21265SOL    HW281406  11.114   3.122   0.285  0.5962 -1.2102  1.3637
21266SOL     OW81407  14.074   1.919   1.901  0.1034 -0.0868 -0.5192
21266SOL    HW181408  14.007   1.881   1.958  0.8225  0.4748  0.7235
21266SOL    HW281409  14.134   1.964   1.960 -0.2783  2.3651 -1.8670
21267SOL     OW81410   0.669  10.108   4.751 -0.0294 -0.4207 -0.3035
21267SOL    HW181411   0.577  10.130   4.736  0.0668  1.2028  1.1402
21267SOL    HW281412   0.680  10.116   4.846  1.2541 -2.1178 -0.2680
21268SOL     OW81413  10.928   3.530  12.536  0.2625  0.2054 -0.0047
21268SOL    HW181414  10.875   3.465  12.489  0.1574  0.2105  0.1065
21268SOL    HW281415  11.003   3.545  12.479  0.8621 -0.8431  0.4823
21269SOL     OW81416   6.880   8.223   0.068  0.7718  0.5032  0.1777
21269SOL    HW181417   6.964   8.206   0.111  0.7460  0.5977  0.2661
21269SOL    HW281418   6.889   8.312   0.034  0.8610  0.3598 -0.1765
21270SOL     OW81419  13.035   0.037   9.409  0.6132 -0.0740 -0.3375
21270SOL    HW181420  13.102   0.005   9.470 -0.4577 -1.4938  0.1660
21270SOL    HW281421  13.012  -0.040   9.357 -1.1348  0.1755  0.0123
21271SOL     OW81422   9.314  12.825  10.695  0.5175 -0.0060 -0.1472
21271SOL    HW181423   9.275  12.905  10.730 -2.5177 -1.3990  0.0352
21271SOL    HW281424   9.372  12.855  10.625 -3.1433  2.3321 -2.5351
21272SOL     OW81425  13.148   2.388  11.292 -0.0826 -0.8055  0.5577
21272SOL    HW181426  13.079   2.357  11.349  0.3479  0.6907  1.9781
21272SOL    HW281427  13.128   2.480  11.277  1.8386 -0.1857  1.4487
21273SOL     OW81428   0.915   6.765   4.369 -0.4119  0.0375  0.3251
21273SOL    HW181429   0.938   6.672   4.364  0.1968  0.1294  1.1924
21273SOL    HW281430   0.821   6.768   4.351 -0.5729 -0.8307  0.9765
21274SOL     OW81431   4.206  11.059   2.535  0.3280  0.5432  0.2360
21274SOL    HW181432   4.169  10.978   2.568  0.0981  0.8150  0.6497
21274SOL    HW281433   4.261  11.032   2.461 -1.4506  0.2344 -1.0217
21275SOL     OW81434   4.659  13.489   0.496  0.1253 -0.5579 -0.2428
21275SOL    HW181435   4.626  13.553   0.558 -1.3696  0.1941 -1.7255
21275SOL    HW281436   4.743  13.460   0.533  0.3438  1.4645  0.9899
21276SOL     OW81437   7.826   0.101  13.118 -0.2748 -0.0434  0.0605
21276SOL    HW181438   7.864   0.182  13.087  0.9889 -0.7875 -0.4200
21276SOL    HW281439   7.735   0.104  13.089  0.0512  0.6947 -0.9322
21277SOL     OW81440   4.761   5.303   3.608 -0.6382  0.5355 -0.1194
21277SOL    HW181441   4.677   5.346   3.620 -0.0966  1.5282  0.2155
21277SOL    HW281442   4.741   5.209   3.609 -1.6273  0.7444  0.7426
21278SOL     OW81443   8.954   5.949   9.531  0.4467 -0.1981  0.2025
21278SOL    HW181444   8.863   5.978   9.534  0.6263  0.4672 -0.3594
21278SOL    HW281445   8.958   5.889   9.456  0.2730 -0.9860  0.8108
21279SOL     OW81446   2.525   9.953  10.560 -0.1098 -0.1454  0.1347
21279SOL    HW181447   2.469   9.916  10.492 -0.1623 -0.4223  0.3294
21279SOL    HW281448   2.504   9.903  10.638  0.4366 -0.2706  0.2013
21280SOL     OW81449   2.689   5.738   5.370  0.3228  0.4435  0.2542
21280SOL    HW181450   2.712   5.778   5.286  0.9093 -0.5626 -0.0829
21280SOL    HW281451   2.730   5.651   5.367  0.7767  0.5751  1.7761
21281SOL     OW81452   1.898   8.209  13.076  0.5308 -0.2129  0.5326
21281SOL    HW181453   1.985   8.225  13.113  0.8367  1.6377 -0.8223
21281SOL    HW281454   1.856   8.295  13.076 -0.6891 -0.7821 -0.3381
21282SOL     OW81455   5.083   2.821  12.923  0.4917 -0.2932  0.0545
21282SOL    HW181456   5.112   2.816  13.014  1.4676 -1.1834 -0.2727
21282SOL    HW281457   5.156   2.863  12.877  0.0093  0.1502 -0.3131
21283SOL     OW81458  12.166   4.190   2.282  0.2533  0.3603  0.0523
21283SOL    HW181459  12.176   4.228   2.370  1.0326  0.3092 -0.0063
21283SOL    HW281460  12.233   4.122   2.278  0.0748  0.2175 -0.5071
21284SOL     OW81461   9.190   2.696   2.714 -0.1901  0.0680  0.1157
21284SOL    HW181462   9.164   2.783   2.684  1.1086  0.3683 -0.1807
21284SOL    HW281463   9.274   2.679   2.672 -0.1663 -1.1184  0.5839
21285SOL     OW81464   6.459  12.701   3.413 -0.1110 -0.3331 -0.3877
21285SOL    HW181465   6.450  12.733   3.503  0.7330 -1.8921  0.2818
21285SOL    HW281466   6.369  12.690   3.382 -0.4067  0.1759  0.2743
21286SOL     OW81467   8.177   5.205   0.163 -0.7297  0.3736 -0.3618
21286SOL    HW181468   8.124   5.127   0.145 -1.7621  0.6138  1.4268
21286SOL    HW281469   8.124   5.256   0.224  0.4970  1.8687 -0.5024
21287SOL     OW81470  10.037   7.147   5.230  0.0121 -0.3445 -0.7926
21287SOL    HW181471  10.131   7.144   5.251 -0.2658  0.2433  0.6138
21287SOL    HW281472   9.997   7.085   5.291 -0.7267  0.8010 -0.0722
21288SOL     OW81473  12.993  11.356   3.429  0.1887 -0.5652  0.5303
21288SOL    HW181474  12.973  11.446   3.406 -0.2652 -0.1447  2.4045
21288SOL    HW281475  13.088  11.349   3.420  0.1722 -0.0601 -0.0871
21289SOL     OW81476   2.165   2.567   4.926 -0.2341  0.1167  0.7266
21289SOL    HW181477   2.086   2.612   4.956 -1.0405  0.3952 -1.6192
21289SOL    HW281478   2.230   2.636   4.915  1.2587 -0.3226  4.8002
21290SOL     OW81479   1.481   9.688   6.843  0.0732  0.2539 -0.0436
21290SOL    HW181480   1.558   9.642   6.811  0.2709 -1.4798  2.5808
21290SOL    HW281481   1.488   9.682   6.939 -3.5572 -0.4397  0.3142
21291SOL     OW81482   1.047  13.714   1.346 -0.1002 -0.5214 -0.5757
21291SOL    HW181483   1.075  13.672   1.428  0.4193 -0.3602 -0.6683
21291SOL    HW281484   1.067  13.648   1.279 -0.2063 -0.5159 -0.6115
21292SOL     OW81485   5.640  11.628  10.350  0.0419 -0.4786  1.0230
21292SOL    HW181486   5.707  11.608  10.415  3.2742  1.0118 -1.5438
21292SOL    HW281487   5.624  11.722  10.361 -1.2699 -0.7037  1.2125
21293SOL     OW81488  12.823   7.124   6.255  0.0217  0.0705  0.3518
21293SOL    HW181489  12.860   7.049   6.209 -1.2508 -0.9459  0.9104
21293SOL    HW281490  12.838   7.105   6.348 -2.1005 -0.5580  0.6249
21294SOL     OW81491   3.860   9.487   0.666  0.2350  0.3893  0.0077
21294SOL    HW181492   3.819   9.500   0.751 -2.4591 -2.1720 -0.7314
21294SOL    HW281493   3.815   9.549   0.608  0.2943  0.3881 -0.0395
21295SOL     OW81494   1.470   8.112  11.503 -0.4241 -0.0067  0.5111
21295SOL    HW181495   1.429   8.186  11.547  0.5451  0.0439  1.3781
21295SOL    HW281496   1.497   8.054  11.575 -0.2227 -0.6870 -0.1028
21296SOL     OW81497  11.432   5.569  13.011 -0.1563 -0.5729  0.0146
21296SOL    HW181498  11.431   5.657  13.049 -0.9835 -0.5725 -0.0018
21296SOL    HW281499  11.443   5.584  12.917 -0.1113 -0.4920  0.0327
21297SOL     OW81500  12.968   4.200   1.049  0.1137 -0.4809 -1.1055
21297SOL    HW181501  13.006   4.206   1.136 -0.8832 -1.3099 -0.5903
21297SOL    HW281502  13.001   4.278   1.003 -1.7220  1.7094  0.9684
21298SOL     OW81503  12.889   7.108  10.510 -0.5620 -0.1995 -0.1052
21298SOL    HW181504  12.812   7.053  10.523 -0.3225 -0.0353  2.6433
21298SOL    HW281505  12.859   7.197  10.531  0.5262 -0.2735  2.1308
21299SOL     OW81506   3.362  12.393  11.649 -0.5916 -0.0470 -0.4127
21299SOL    HW181507   3.431  12.455  11.672  0.3229 -0.6574 -1.4090
21299SOL    HW281508   3.406  12.328  11.594 -1.4764 -1.6400  0.6784
21300SOL     OW81509  10.730   4.599   4.437 -0.2513 -0.5303  0.3332
21300SOL    HW181510  10.635   4.611   4.440 -0.1162  1.3799 -1.3003
21300SOL    HW281511  10.763   4.653   4.509 -0.3275  0.4901 -0.3635
21301SOL     OW81512  12.765   3.587  11.710  0.1250 -0.2387 -0.5229
21301SOL    HW181513  12.715   3.632  11.641 -1.6424 -2.1652 -0.6164
21301SOL    HW281514  12.719   3.609  11.791  1.1829  0.6592 -0.1522
21302SOL     OW81515  12.077   4.355   1.507  0.0597 -0.4886  0.4255
21302SOL    HW181516  12.072   4.440   1.464  1.4176 -0.4206  0.3314
21302SOL    HW281517  11.999   4.308   1.479 -0.6002  0.6495  0.3115
21303SOL     OW81518   1.053   4.003   2.963  0.0405  0.3646 -0.1447
21303SOL    HW181519   0.976   3.968   2.917 -0.4840  0.4050  0.6834
21303SOL    HW281520   1.041   4.098   2.959  1.6729  0.5698 -2.7550
21304SOL     OW81521   7.930  13.517   0.991 -0.1817  0.0265  0.1119
21304SOL    HW181522   8.021  13.493   1.007  0.2855  0.3931 -1.7594
21304SOL    HW281523   7.934  13.583   0.923 -1.9015 -0.8926 -0.9551
21305SOL     OW81524  10.110   2.138   7.384 -0.1823  0.5107  0.2334
21305SOL    HW181525  10.116   2.208   7.448  0.3523  0.2771  0.4508
21305SOL    HW281526  10.179   2.158   7.320  0.7948 -0.4350  0.9387
21306SOL     OW81527   9.299   2.375  13.654  0.0620  0.0362  0.2719
21306SOL    HW181528   9.314   2.448  13.593  0.2540  0.6724  1.0553
21306SOL    HW281529   9.204   2.367  13.658  0.0423  0.1312  0.0535
21307SOL     OW81530   1.034   6.905   7.141 -0.1589  0.2158 -0.6047
21307SOL    HW181531   0.986   6.825   7.164 -0.7553  0.1741 -1.8846
21307SOL    HW281532   0.966   6.972   7.134  0.2749  0.7178 -0.0785
21308SOL     OW81533  11.753  13.853   8.914  0.5458 -0.4253 -0.1632
21308SOL    HW181534  11.792  13.890   8.994  0.2915 -0.6093  0.0481
21308SOL    HW281535  11.754  13.759   8.928  0.7276 -0.4697 -0.4858
21309SOL     OW81536   7.350  12.324  13.397  0.5038 -0.2255  0.3390
21309SOL    HW181537   7.442  12.321  13.370  0.4101  0.6316 -0.1165
21309SOL    HW281538   7.306  12.373  13.328 -0.0322  0.6123  1.2340
21310SOL     OW81539   3.136   7.645  12.983 -0.3328  0.2402  0.1167
21310SOL    HW181540   3.070   7.581  13.008  0.6565 -1.2356 -0.8883
21310SOL    HW281541   3.104   7.728  13.018 -1.3989 -0.8694  1.9090
21311SOL     OW81542   0.717   4.875  10.904  0.0283 -0.1378 -0.7144
21311SOL    HW181543   0.687   4.873  10.995  1.0966 -1.3390 -0.3466
21311SOL    HW281544   0.641   4.849  10.853 -0.4617  0.1091 -0.1157
21312SOL     OW81545   6.242   2.719   1.827  0.5236  0.2349  0.3222
21312SOL    HW181546   6.317   2.758   1.873  0.7243  0.1487  0.0713
21312SOL    HW281547   6.240   2.628   1.856  0.8588  0.0886 -0.0896
21313SOL     OW81548  11.197  10.921   4.057 -0.1531  0.0412  0.0155
21313SOL    HW181549  11.160  10.981   4.122 -0.0630  1.6328 -1.3211
21313SOL    HW281550  11.272  10.882   4.100  0.7331  2.1070  0.4754
21314SOL     OW81551   8.257  13.934   7.204  0.0065 -0.3274  0.6897
21314SOL    HW181552   8.197  14.007   7.219 -1.6176 -1.4186 -0.3032
21314SOL    HW281553   8.328  13.972   7.152 -0.9439  0.4902 -0.0384
21315SOL     OW81554   7.934   0.059   7.383  0.0417 -0.2602 -0.5842
21315SOL    HW181555   7.938   0.139   7.437 -0.6294 -0.9607  0.5492
21315SOL    HW281556   8.018   0.016   7.399  0.2229 -0.0126 -0.8487
21316SOL     OW81557   1.250   1.202   6.782  0.7422  0.2914 -0.5485
21316SOL    HW181558   1.161   1.169   6.789  1.0203 -0.9550 -2.1684
21316SOL    HW281559   1.301   1.148   6.842  0.3514  1.4021  0.8341
21317SOL     OW81560   9.045   8.795   7.999 -0.2565  0.5949 -0.3192
21317SOL    HW181561   9.099   8.739   7.944 -1.6350 -0.4806 -0.6508
21317SOL    HW281562   9.001   8.853   7.938 -0.5358  0.5163 -0.1959
21318SOL     OW81563   2.838  11.460   0.449  0.0760 -0.2293  0.5342
21318SOL    HW181564   2.780  11.484   0.378  0.4695  0.8351  0.5619
21318SOL    HW281565   2.925  11.459   0.410  0.0679 -1.9877  0.4469
21319SOL     OW81566  12.923  12.887  12.773 -0.5062  0.2499  0.9639
21319SOL    HW181567  12.916  12.983  12.771  4.6982  0.9164 -0.6350
21319SOL    HW281568  12.914  12.860  12.681  1.6412 -0.2223  0.8395
21320SOL     OW81569   8.027   9.995   5.386  0.3725  0.0045 -0.0819
21320SOL    HW181570   8.100  10.035   5.435 -1.0179  3.0628 -0.2744
21320SOL    HW281571   7.989   9.932   5.447  0.4862  1.6069  1.7470
21321SOL     OW81572   8.599  13.766   9.909 -0.4631  0.6284  0.9445
21321SOL    HW181573   8.549  13.845   9.929 -0.7330  0.8090 -0.3663
21321SOL    HW281574   8.690  13.791   9.923 -0.6847 -0.0352  4.5059
21322SOL     OW81575   6.454  12.136   6.958  0.1251 -0.4658  0.7283
21322SOL    HW181576   6.535  12.178   6.927 -1.1474  0.3639 -1.7320
21322SOL    HW281577   6.480  12.045   6.975  1.1946 -0.8554 -2.2490
21323SOL     OW81578   5.685   4.017   4.079 -0.2831  0.2772  0.4346
21323SOL    HW181579   5.665   4.013   3.986  0.3590 -1.4948  0.3463
21323SOL    HW281580   5.769   4.063   4.084 -1.0845  1.8502  0.3153
21324SOL     OW81581   0.249   0.102   3.702 -0.3490  0.3838 -0.4273
21324SOL    HW181582   0.160   0.127   3.729 -1.0339 -1.2426 -1.0654
21324SOL    HW281583   0.290   0.184   3.677 -0.6655  1.6106  2.6227
21325SOL     OW81584  11.572  11.790  11.298 -0.4852 -0.1936  0.1868
21325SOL    HW181585  11.493  11.843  11.290  0.6664  1.9409  1.9084
21325SOL    HW281586  11.578  11.769  11.391  2.1540  1.8037  0.5987
21326SOL     OW81587   3.564   8.006   0.516  0.0223  0.2507 -0.1305
21326SOL    HW181588   3.643   8.042   0.475 -0.5658  1.0563 -0.5790
21326SOL    HW281589   3.492   8.053   0.474 -0.6315  0.7489  1.4627
21327SOL     OW81590   8.728   3.610  11.248  0.7435 -0.1258  0.8260
21327SOL    HW181591   8.716   3.670  11.322 -0.2576 -0.2856  0.8123
21327SOL    HW281592   8.639   3.581  11.227  1.1222 -0.8555  0.2036
21328SOL     OW81593   7.411   1.362   7.462 -0.1945  0.0161  0.5253
21328SOL    HW181594   7.408   1.318   7.547 -0.0311  0.4937  0.7823
21328SOL    HW281595   7.349   1.435   7.470 -1.6091 -1.0139 -0.3989
21329SOL     OW81596  12.949   8.577  12.139 -0.3155 -0.6106  0.5525
21329SOL    HW181597  13.033   8.548  12.175  0.6621  1.0579 -0.2564
21329SOL    HW281598  12.912   8.499  12.099  1.8382 -0.9781 -0.8764
21330SOL     OW81599   1.387   7.441  12.207 -0.4626  0.0983 -0.2229
21330SOL    HW181600   1.435   7.501  12.151  0.4152 -1.0825 -0.7811
21330SOL    HW281601   1.449   7.419  12.277 -1.4589  1.3620  1.1300
21331SOL     OW81602   9.259  10.124   7.063  0.2604 -0.2088 -0.6191
21331SOL    HW181603   9.240  10.204   7.112 -1.6552 -0.6698 -0.5612
21331SOL    HW281604   9.174  10.090   7.036  1.0947 -1.6059 -1.6776
21332SOL     OW81605   7.294  13.055  12.970  0.6675  0.5709 -0.4166
21332SOL    HW181606   7.216  13.068  13.025  0.3571 -0.2381 -0.6572
21332SOL    HW281607   7.359  13.017  13.029  0.2987 -0.3999 -0.6244
21333SOL     OW81608   6.160   1.372   5.570  0.0096  0.4976 -0.5644
21333SOL    HW181609   6.159   1.466   5.553  1.5205  0.7157  0.3848
21333SOL    HW281610   6.096   1.360   5.641  0.9523  1.0624  0.4026
21334SOL     OW81611  10.642   1.722   3.301 -0.0305 -0.1449 -0.2059
21334SOL    HW181612  10.648   1.729   3.397 -3.3578  1.0052  0.0495
21334SOL    HW281613  10.596   1.640   3.286 -0.2378  0.0687 -0.7554
21335SOL     OW81614   7.920   4.987   1.695 -0.1567 -0.6001  0.4118
21335SOL    HW181615   7.829   4.968   1.672  0.1907 -1.1064 -0.6106
21335SOL    HW281616   7.928   5.082   1.686 -0.6133 -0.5397  0.6341
21336SOL     OW81617   5.141   2.506  11.251  0.3893 -0.6312  0.0671
21336SOL    HW181618   5.095   2.520  11.168  1.7937 -0.9447 -0.7936
21336SOL    HW281619   5.076   2.463  11.307 -1.7718  2.7039  0.4056
21337SOL     OW81620   4.943   3.769   4.010 -0.3218 -0.4298  0.3933
21337SOL    HW181621   4.986   3.725   3.937  0.7411  0.2211  0.6171
21337SOL    HW281622   4.864   3.717   4.025  0.3714 -1.6519 -0.0278
21338SOL     OW81623   9.228   2.545   4.163 -0.1936 -0.0570 -0.0094
21338SOL    HW181624   9.287   2.614   4.135  0.2569 -0.9719 -1.4620
21338SOL    HW281625   9.276   2.498   4.231 -0.0307  0.3531  0.1597
21339SOL     OW81626   7.330  14.043  13.824 -0.0885 -0.1443 -0.2623
21339SOL    HW181627   7.302  14.066  13.735 -0.6923  0.0706 -0.0221
21339SOL    HW281628   7.404  13.984  13.812 -0.7514 -0.8503 -0.9123
21340SOL     OW81629  11.695  12.280   3.060 -0.1925 -0.0772 -0.4832
21340SOL    HW181630  11.750  12.217   3.014  0.9738  0.6863 -0.1751
21340SOL    HW281631  11.741  12.364   3.050 -0.5832  0.3293  0.9487
21341SOL     OW81632  11.546   9.992   2.584  0.4072  0.5012  0.2438
21341SOL    HW181633  11.490   9.915   2.595  0.3408  0.3040 -1.2787
21341SOL    HW281634  11.548  10.032   2.671  1.6824 -2.0387  1.4976
21342SOL     OW81635   9.452   3.658   0.201 -0.3193 -0.3210  0.2573
21342SOL    HW181636   9.467   3.605   0.279 -2.2928 -0.4211  0.6217
21342SOL    HW281637   9.407   3.737   0.234  0.6039  0.5645 -0.5406
21343SOL     OW81638  12.388   8.310  13.221  0.3813  0.1426  0.1788
21343SOL    HW181639  12.330   8.377  13.184 -0.9209 -1.5389 -0.9809
21343SOL    HW281640  12.438   8.278  13.146 -0.8205 -1.8894  0.1596
21344SOL     OW81641   1.856   7.647   1.329 -0.3231 -0.0567 -0.7562
21344SOL    HW181642   1.905   7.604   1.259 -0.7275  0.1610 -1.1788
21344SOL    HW281643   1.808   7.718   1.285 -1.0552 -0.2941 -0.3651
21345SOL     OW81644   0.532   5.062   5.436  0.2792 -0.0568  0.2398
21345SOL    HW181645   0.624   5.037   5.439  0.2055 -0.3173  0.3401
21345SOL    HW281646   0.487   4.995   5.489 -0.0094 -0.1190 -0.0814
21346SOL     OW81647   2.868   1.689   1.292  0.1817 -0.0028 -0.0460
21346SOL    HW181648   2.872   1.609   1.344 -0.0615 -0.5896 -0.9145
21346SOL    HW281649   2.841   1.660   1.205  0.3779  0.9894 -0.4507
21347SOL     OW81650  12.357   9.368   3.420 -0.1102 -0.3630 -0.1865
21347SOL    HW181651  12.313   9.291   3.384 -0.3987 -1.2085  1.8648
21347SOL    HW281652  12.348   9.435   3.352 -0.6839 -1.8412 -1.6184
21348SOL     OW81653  12.529   3.882   2.612  0.2945 -0.7669 -0.2361
21348SOL    HW181654  12.537   3.834   2.695 -1.3364 -0.7495 -0.0465
21348SOL    HW281655  12.523   3.813   2.546  1.1971 -0.7832 -0.3110
21349SOL     OW81656   0.531   5.913   8.012 -0.5458  0.0893  0.6987
21349SOL    HW181657   0.558   5.880   7.927  0.5959  0.8000  0.7624
21349SOL    HW281658   0.456   5.859   8.037 -1.0663  0.0463 -0.8695
21350SOL     OW81659   5.239  10.916  13.232 -0.3194  0.3912 -0.0619
21350SOL    HW181660   5.180  10.857  13.279  0.9665 -0.4179  0.5950
21350SOL    HW281661   5.185  10.992  13.211 -2.0168 -0.9548 -0.8697
21351SOL     OW81662   2.793   8.655   9.193  0.1393 -0.0737  0.2194
21351SOL    HW181663   2.702   8.658   9.224  0.1740 -0.7219  0.4177
21351SOL    HW281664   2.829   8.577   9.235 -0.0263 -1.4523 -2.0094
21352SOL     OW81665   8.470   5.146   1.011 -0.7321  0.0623 -0.3562
21352SOL    HW181666   8.386   5.128   0.968 -2.2494  1.6239  1.7734
21352SOL    HW281667   8.449   5.205   1.083  2.0768 -0.2761  0.8929
21353SOL     OW81668   0.988   0.366   3.298  0.1324 -0.0179 -0.1467
21353SOL    HW181669   0.997   0.461   3.294  0.7613 -0.0041  1.0961
21353SOL    HW281670   0.894   0.351   3.313 -0.2205  0.3247 -1.8695
21354SOL     OW81671   8.135  10.592   9.805 -0.2215 -0.0099  0.1237
21354SOL    HW181672   8.104  10.536   9.876 -1.7492 -0.0508 -0.5509
21354SOL    HW281673   8.228  10.605   9.825 -0.4877 -0.4212  1.8570
21355SOL     OW81674   2.648   3.623   8.669  0.1742 -0.2242  0.2633
21355SOL    HW181675   2.661   3.605   8.762  0.8774 -0.6256  0.0896
21355SOL    HW281676   2.556   3.651   8.663  0.4638  1.0190  1.2528
21356SOL     OW81677  13.898  12.469   0.463  1.1537  0.8502  0.3790
21356SOL    HW181678  13.857  12.394   0.419  1.1593  1.3266 -0.4512
21356SOL    HW281679  13.870  12.461   0.554  0.9359 -0.0116  0.2462
21357SOL     OW81680   2.252   3.017   5.350  0.4896  0.4207  0.4401
21357SOL    HW181681   2.277   3.063   5.269 -0.0713  0.6894  0.4115
21357SOL    HW281682   2.265   3.082   5.419 -0.2717  0.6242  0.4041
21358SOL     OW81683   2.616  10.228   1.003  0.1576 -0.0035 -0.5193
21358SOL    HW181684   2.711  10.238   1.009  0.4070 -2.5902  3.2248
21358SOL    HW281685   2.581  10.306   1.045  0.6027  0.5994 -1.2382
21359SOL     OW81686   1.796   8.162   7.320 -0.4811  0.1525  0.6524
21359SOL    HW181687   1.790   8.068   7.335  0.0078 -0.3713 -1.9105
21359SOL    HW281688   1.720   8.183   7.266 -0.7463  1.3007  1.4351
21360SOL     OW81689   7.620   4.009   0.594  0.0079  0.1722 -0.2717
21360SOL    HW181690   7.560   4.035   0.523 -1.3486 -0.4781  0.5999
21360SOL    HW281691   7.629   3.914   0.584 -0.6417 -0.0104  0.7421
21361SOL     OW81692   6.695   3.279  11.600 -0.3703 -0.4572  1.1121
21361SOL    HW181693   6.709   3.372  11.582  1.4297 -0.6290  1.3950
21361SOL    HW281694   6.780   3.249  11.633  0.3502 -3.1031 -2.6151
21362SOL     OW81695  10.750   0.736   5.916 -1.0600 -0.5433  0.1084
21362SOL    HW181696  10.705   0.664   5.960 -1.2907 -1.4479 -1.5376
21362SOL    HW281697  10.680   0.787   5.875 -0.8490  0.2800  0.7493
21363SOL     OW81698  10.282  11.196  13.445  0.5205 -0.5796  0.3719
21363SOL    HW181699  10.247  11.272  13.399 -0.0416 -0.3382  1.1647
21363SOL    HW281700  10.226  11.123  13.418  1.1131 -0.7356 -0.4550
21364SOL     OW81701   1.020   4.181   0.044  0.4957 -0.1781  0.5067
21364SOL    HW181702   0.966   4.233  -0.017  0.8081  0.4685  0.7677
21364SOL    HW281703   0.956   4.140   0.103  0.1471 -1.3616 -0.6652
21365SOL     OW81704   9.919   4.235  12.217  0.0195 -0.1001  0.3862
21365SOL    HW181705   9.979   4.248  12.291  0.1436  0.4642  0.1923
21365SOL    HW281706   9.974   4.199  12.148 -0.2385 -1.3137  0.7864
21366SOL     OW81707   9.186   3.618   7.922 -0.3773 -0.0917  0.0035
21366SOL    HW181708   9.094   3.630   7.945 -0.1979 -0.6732  1.0855
21366SOL    HW281709   9.184   3.579   7.835 -1.1962 -1.2486  0.5161
21367SOL     OW81710   0.291   2.952   7.389 -1.3404  0.0435 -0.2179
21367SOL    HW181711   0.270   2.867   7.350  0.4623  0.0868 -1.3708
21367SOL    HW281712   0.357   2.990   7.331 -1.4263  1.8487  0.7819
21368SOL     OW81713   5.482   2.621   8.190  0.2665  0.0273  0.3746
21368SOL    HW181714   5.427   2.545   8.211 -2.3540  1.6424 -0.1968
21368SOL    HW281715   5.571   2.590   8.205 -0.4671 -3.8261 -1.8479
21369SOL     OW81716   9.008   3.270  13.162 -0.0464 -0.5204 -0.3991
21369SOL    HW181717   8.992   3.179  13.185 -2.5329  0.3350  1.7934
21369SOL    HW281718   8.925   3.302  13.128  0.2795  1.3006  0.3722
21370SOL     OW81719  11.569   0.457  11.903  0.1413  0.4844  0.2134
21370SOL    HW181720  11.624   0.386  11.870 -1.2635 -1.4522  1.7652
21370SOL    HW281721  11.550   0.511  11.826  2.4156  0.0261 -0.7349
21371SOL     OW81722   3.588   7.649   3.175  0.6106  0.2203 -0.1787
21371SOL    HW181723   3.555   7.568   3.215  0.3880  0.3992  0.0081
21371SOL    HW281724   3.633   7.621   3.096  2.3120 -0.2867  0.9202
21372SOL     OW81725   6.634  10.544   6.599 -0.6862 -0.1537  0.2862
21372SOL    HW181726   6.726  10.566   6.584 -0.5783  1.1118  2.3818
21372SOL    HW281727   6.587  10.628   6.590 -1.8668 -0.9472 -1.8437
21373SOL     OW81728   8.130  12.263   5.480  0.2014  0.3445 -0.8435
21373SOL    HW181729   8.043  12.300   5.493  0.0916 -0.2960  0.3889
21373SOL    HW281730   8.116  12.184   5.429 -0.4192 -1.5939  2.0834
21374SOL     OW81731   2.104   8.860  13.531 -0.0904 -0.3415  0.4520
21374SOL    HW181732   2.024   8.809  13.542 -0.7035  0.6086  0.5732
21374SOL    HW281733   2.130   8.847  13.440 -1.2725  0.5659 -0.0424
21375SOL     OW81734   1.190   3.393  10.923  0.2252 -0.0207 -0.3531
21375SOL    HW181735   1.119   3.394  10.987 -0.1259  0.9171 -0.7340
21375SOL    HW281736   1.250   3.461  10.953  1.2624 -1.1894  0.2773
21376SOL     OW81737  11.229   9.596   2.799  0.2162 -0.1931  0.0168
21376SOL    HW181738  11.301   9.538   2.774  0.1521 -0.0048 -0.6377
21376SOL    HW281739  11.153   9.560   2.753  0.3511  0.9074 -1.1275
21377SOL     OW81740   3.430   6.232   8.997  0.5028  0.1749 -0.0611
21377SOL    HW181741   3.401   6.303   9.055 -1.3960 -1.9699  1.8511
21377SOL    HW281742   3.400   6.257   8.910 -0.4199  1.5606  0.6243
21378SOL     OW81743   0.958  13.617   4.582  0.4857 -0.2780  0.2775
21378SOL    HW181744   0.964  13.523   4.568  0.0241 -0.3351  0.4397
21378SOL    HW281745   0.975  13.656   4.497  0.3092 -0.5246  0.1300
21379SOL     OW81746  12.410  12.975  12.187  0.0005 -0.3105 -0.7581
21379SOL    HW181747  12.495  12.997  12.148  0.3399 -0.2177  0.0311
21379SOL    HW281748  12.353  13.048  12.162  0.1471 -0.3699 -1.2877
21380SOL     OW81749   3.161   1.642   2.440 -0.1581  0.0269  0.4213
21380SOL    HW181750   3.090   1.597   2.394  0.0237  0.4513 -0.2852
21380SOL    HW281751   3.195   1.576   2.500 -1.9652  0.1871  1.7215
21381SOL     OW81752   2.367   6.321   4.597 -0.3246 -0.2183 -0.4885
21381SOL    HW181753   2.456   6.346   4.622 -0.1013  0.5801 -2.0056
21381SOL    HW281754   2.354   6.360   4.511 -1.6659 -1.4789 -0.8927
21382SOL     OW81755   4.634   4.591   0.595  0.2903 -0.5138 -0.6739
21382SOL    HW181756   4.646   4.549   0.509 -0.2116 -0.7525 -0.6350
21382SOL    HW281757   4.712   4.645   0.607  2.0788 -3.1133  0.2369
21383SOL     OW81758   3.322  12.604   8.150 -0.1846 -0.0966  0.0166
21383SOL    HW181759   3.239  12.557   8.156 -0.5580  0.1286 -2.4159
21383SOL    HW281760   3.305  12.687   8.195 -1.8340  0.5882 -1.7222
21384SOL     OW81761   2.258   6.264   7.413 -0.0519  0.5170  0.2466
21384SOL    HW181762   2.252   6.216   7.330  2.6813 -2.0608  1.3361
21384SOL    HW281763   2.330   6.326   7.399 -0.9731  1.5674  0.0790
21385SOL     OW81764  12.760   7.445   5.899  0.0276  0.7368  0.0211
21385SOL    HW181765  12.732   7.388   5.970  3.6854  1.0771  2.0027
21385SOL    HW281766  12.817   7.390   5.845 -0.5346  1.2103 -1.0782
21386SOL     OW81767   4.946  12.373   7.552  0.1239 -0.3349  0.0343
21386SOL    HW181768   4.959  12.367   7.647 -0.2453  0.3755  0.1381
21386SOL    HW281769   5.021  12.327   7.515  0.9128  0.4217  0.6584
21387SOL     OW81770   9.045  10.200   3.862 -0.5551  0.3083  0.4010
21387SOL    HW181771   9.050  10.288   3.826  0.0275 -0.6879 -2.1219
21387SOL    HW281772   9.129  10.161   3.841 -0.8598 -0.9124  1.3628
21388SOL     OW81773   0.927  10.169   5.834 -0.2470  0.0246  0.4737
21388SOL    HW181774   0.960  10.174   5.744  1.3649  0.5618  1.0603
21388SOL    HW281775   0.992  10.116   5.881 -2.3355 -2.4507  0.8197
21389SOL     OW81776   4.131   5.119  13.523 -0.4751 -0.2664  0.0960
21389SOL    HW181777   4.047   5.083  13.494 -1.1297  0.2049  1.2955
21389SOL    HW281778   4.110   5.207  13.554  0.5981  0.1181 -0.2106
21390SOL     OW81779   6.388   1.969   2.818 -0.1313 -0.3476 -0.2780
21390SOL    HW181780   6.385   1.983   2.724 -0.8539 -0.1478 -0.2324
21390SOL    HW281781   6.297   1.949   2.842  0.0726 -0.5498  0.3506
21391SOL     OW81782   0.254   5.220   3.593  0.1778 -0.0028 -0.2067
21391SOL    HW181783   0.229   5.309   3.566 -1.2749 -0.1536  0.5256
21391SOL    HW281784   0.234   5.218   3.687 -1.1151 -1.5052 -0.4678
21392SOL     OW81785  12.015   8.529   5.374 -0.0599  0.4540 -0.8260
21392SOL    HW181786  11.962   8.558   5.301 -1.4464  2.6462  0.9129
21392SOL    HW281787  11.975   8.446   5.402 -0.3792  0.3197 -1.6641
21393SOL     OW81788   6.148   7.216  11.997 -0.0888  0.2501 -0.5145
21393SOL    HW181789   6.142   7.145  12.061 -0.2460  1.9904  1.5129
21393SOL    HW281790   6.231   7.259  12.018  0.7042 -0.1138 -2.6460
21394SOL     OW81791   7.434  13.867   7.756  0.5772  0.4580  0.1650
21394SOL    HW181792   7.373  13.940   7.748  1.8446  1.3865 -2.2746
21394SOL    HW281793   7.514  13.907   7.792  0.6952 -0.0990  0.5225
21395SOL     OW81794   7.136   4.003   8.554  0.6853  0.5567 -0.4242
21395SOL    HW181795   7.188   3.925   8.535  0.3351  0.9382 -3.4704
21395SOL    HW281796   7.047   3.970   8.568  0.8801  0.2859  0.2274
21396SOL     OW81797   2.810   7.278   2.572  0.3988 -0.5895 -0.1977
21396SOL    HW181798   2.809   7.368   2.538  0.5731 -1.1416 -1.7687
21396SOL    HW281799   2.899   7.264   2.602  0.3911 -0.2536 -0.0223
21397SOL     OW81800   0.273  13.643  10.664  0.2896  0.0008  0.0299
21397SOL    HW181801   0.260  13.627  10.758 -0.8048 -0.5478 -0.1933
21397SOL    HW281802   0.193  13.610  10.624  0.9391 -0.1684 -1.1444
21398SOL     OW81803   0.321   2.277   7.695  0.0302 -0.1105 -0.0133
21398SOL    HW181804   0.358   2.261   7.608  1.4469  0.8858  0.3642
21398SOL    HW281805   0.232   2.243   7.690  0.2544 -0.5447 -1.6901
21399SOL     OW81806  12.104   8.088   2.747  0.1118  0.4022  0.2225
21399SOL    HW181807  12.197   8.094   2.726  0.7524  0.2972  2.7100
21399SOL    HW281808  12.101   8.036   2.827 -2.2753 -1.1782 -0.7906
21400SOL     OW81809  10.041   2.515   1.540  0.7143  0.1896  0.0096
21400SOL    HW181810  10.092   2.579   1.589  0.5760  2.1496 -2.1982
21400SOL    HW281811  10.068   2.528   1.449 -0.8809 -1.4599 -0.7638
21401SOL     OW81812   5.535   3.412  12.543  0.5822 -0.3182 -0.1322
21401SOL    HW181813   5.458   3.438  12.594  0.7525  0.0769 -0.0733
21401SOL    HW281814   5.597   3.378  12.608 -0.2638 -2.4541 -0.3733
21402SOL     OW81815   5.205   2.867  10.358 -0.1294 -0.4192 -0.0724
21402SOL    HW181816   5.223   2.944  10.305  1.6748 -1.0469 -0.4228
21402SOL    HW281817   5.146   2.898  10.427 -0.8892  0.8492 -1.2544
21403SOL     OW81818   9.423  11.502   3.593  0.4962  0.3229  0.2907
21403SOL    HW181819   9.468  11.548   3.664 -0.4490  2.4448 -0.3805
21403SOL    HW281820   9.481  11.510   3.518  1.6108 -2.1409  0.8051
21404SOL     OW81821   3.639   6.837   4.428  0.0501 -0.0762 -0.5520
21404SOL    HW181822   3.652   6.833   4.333 -2.1507  0.1654 -0.9279
21404SOL    HW281823   3.633   6.746   4.456  1.3762 -0.1641 -0.5119
21405SOL     OW81824   9.945   7.245   0.220 -0.0135 -0.5353 -0.2858
21405SOL    HW181825   9.945   7.333   0.259  3.9412 -0.4655 -0.1046
21405SOL    HW281826   9.909   7.258   0.132  1.6792  1.5700 -0.7388
21406SOL     OW81827   4.397   3.043  11.028 -0.3486  0.4346  0.4304
21406SOL    HW181828   4.341   2.983  11.078  1.0836 -1.2367  0.1492
21406SOL    HW281829   4.404   3.003  10.942  0.3670  1.1991  0.1254
21407SOL     OW81830   0.901  14.072   1.579 -0.5827 -0.3931  0.5155
21407SOL    HW181831   0.956  14.061   1.502  0.6754 -0.0963  1.3507
21407SOL    HW281832   0.866  14.161   1.571 -1.7573 -0.9121 -0.5050
21408SOL     OW81833   0.360   6.283   0.199  0.2202  0.1815 -0.7777
21408SOL    HW181834   0.365   6.212   0.134 -0.9789  1.1138 -1.9492
21408SOL    HW281835   0.278   6.266   0.247  1.2616 -0.6894  0.7882
21409SOL     OW81836   9.652   0.296   0.117  0.0305  0.6704 -0.2151
21409SOL    HW181837   9.666   0.208   0.152 -1.8954  0.5322  0.3254
21409SOL    HW281838   9.721   0.349   0.157  0.5593 -0.3722  0.2978
21410SOL     OW81839   3.264   7.552   6.939  0.3407 -0.1555  0.1868
21410SOL    HW181840   3.354   7.528   6.915  0.6207 -0.6538  1.6411
21410SOL    HW281841   3.273   7.637   6.983  0.1655 -0.3784  0.6656
21411SOL     OW81842  10.666  12.862   2.035 -0.3457 -0.0843 -0.3085
21411SOL    HW181843  10.709  12.779   2.013 -0.3024  0.1451 -1.1119
21411SOL    HW281844  10.737  12.920   2.059 -0.4135 -0.4190  0.7837
21412SOL     OW81845  12.510   4.190   0.839 -0.1789 -0.6729 -0.1770
21412SOL    HW181846  12.455   4.241   0.898 -0.4088 -1.3867  0.2299
21412SOL    HW281847  12.549   4.256   0.781  2.0935  0.4164  2.3639
21413SOL     OW81848   0.418   2.878   2.538  0.0247 -0.5868  0.1645
21413SOL    HW181849   0.438   2.971   2.549  0.8877 -0.6923 -0.3954
21413SOL    HW281850   0.345   2.861   2.597  0.9665  0.0656  1.5560
21414SOL     OW81851  12.237  10.313  13.163 -0.7288  0.1378  0.0595
21414SOL    HW181852  12.317  10.350  13.199 -0.8030  0.9481 -0.5655
21414SOL    HW281853  12.265  10.266  13.085 -0.8825  0.6789 -0.3321
21415SOL     OW81854  11.752  13.264   5.908  0.8172 -0.4388  0.3649
21415SOL    HW181855  11.776  13.289   5.819 -0.4171 -1.8763 -0.4315
21415SOL    HW281856  11.657  13.267   5.908  0.7453  3.2856  2.8492
21416SOL     OW81857   0.944   5.046   6.547  0.5275  0.1661  0.3249
21416SOL    HW181858   1.012   5.111   6.530  0.2980  0.4784  0.6012
21416SOL    HW281859   0.916   5.016   6.460 -0.1053  1.1935  0.1645
21417SOL     OW81860  11.625  11.731  10.178  0.1649  0.5038  0.5950
21417SOL    HW181861  11.550  11.737  10.236 -0.1963  2.2978  0.0329
21417SOL    HW281862  11.630  11.818  10.137  1.9641  0.1242 -0.0925
21418SOL     OW81863   3.048   1.184   2.470  0.4097 -0.0065  0.1083
21418SOL    HW181864   2.978   1.137   2.425  1.9188 -1.6667 -0.6327
21418SOL    HW281865   3.058   1.140   2.554  0.0417  0.7453  0.5555
21419SOL     OW81866  11.355   7.766   6.037  0.4167  0.1018  0.5184
21419SOL    HW181867  11.414   7.711   6.088  0.8860 -0.7552 -0.8815
21419SOL    HW281868  11.413   7.824   5.988  0.1401 -0.7464 -0.8735
21420SOL     OW81869   6.544   1.098   6.374 -0.4650 -0.0818 -0.0633
21420SOL    HW181870   6.631   1.136   6.371  0.5759 -2.3222 -1.1090
21420SOL    HW281871   6.497   1.140   6.302  0.1601  0.2653 -0.2804
21421SOL     OW81872  13.067   2.349   1.676  0.1052 -1.0940 -0.0541
21421SOL    HW181873  13.074   2.427   1.732 -1.8339 -0.8386 -0.0968
21421SOL    HW281874  13.017   2.379   1.600  0.7367 -2.0062 -0.8445
21422SOL     OW81875   1.604   5.651  13.686 -0.5440  0.2792  0.5186
21422SOL    HW181876   1.615   5.706  13.609 -0.5405  1.0257  1.0417
21422SOL    HW281877   1.512   5.625  13.683 -1.1754  2.2081  1.4771
21423SOL     OW81878   2.153   5.571   0.177 -0.1070 -0.3462 -0.5277
21423SOL    HW181879   2.083   5.505   0.172 -0.8586  0.5263 -2.0481
21423SOL    HW281880   2.141   5.612   0.263 -0.6277 -1.1023 -0.2311
21424SOL     OW81881   4.093  11.357  11.170 -0.0612 -0.2416  0.2059
21424SOL    HW181882   4.033  11.315  11.231  0.3155 -0.8029  0.1946
21424SOL    HW281883   4.081  11.451  11.185  0.5863 -0.3731  1.6874
21425SOL     OW81884   4.287   7.603  12.225 -0.4459 -0.0961  0.6024
21425SOL    HW181885   4.226   7.629  12.294 -0.8015 -0.9857  0.6376
21425SOL    HW281886   4.238   7.613  12.144 -0.3596 -0.0232  0.5583
21426SOL     OW81887   8.370  12.953   1.042  0.0235  0.3256 -0.0058
21426SOL    HW181888   8.323  13.015   0.987  0.0653  0.4429  0.0914
21426SOL    HW281889   8.313  12.938   1.117  0.0065  0.2360 -0.0347
21427SOL     OW81890  12.444   0.533   8.488 -0.5348  0.2840  0.2930
21427SOL    HW181891  12.503   0.548   8.562  0.5617 -0.1831 -0.4567
21427SOL    HW281892  12.392   0.614   8.482  0.4594  0.9638  0.6011
21428SOL     OW81893  11.091   3.939  12.589 -0.3893  0.0262 -0.0716
21428SOL    HW181894  11.091   3.892  12.673 -1.1214  0.4143  0.1549
21428SOL    HW281895  11.001   3.969  12.578  0.2342  2.2381  0.2897
21429SOL     OW81896   5.123   7.256   6.079  0.0012  0.4636  0.0983
21429SOL    HW181897   5.201   7.283   6.126 -0.2071  0.9260  0.1865
21429SOL    HW281898   5.120   7.161   6.089  0.3900  0.4746  0.3360
21430SOL     OW81899  10.679   5.967  12.971  0.3232  0.0193  0.0975
21430SOL    HW181900  10.649   5.877  12.959  1.6442 -0.1206 -2.9122
21430SOL    HW281901  10.699   5.973  13.065 -1.8071 -2.0971  0.7881
21431SOL     OW81902   8.289  12.453   5.958  0.5728  0.0014  0.0704
21431SOL    HW181903   8.245  12.534   5.933  1.6577  0.5549 -0.0801
21431SOL    HW281904   8.248  12.429   6.041  0.3811  0.8137  0.2223
21432SOL     OW81905   5.536   9.541  12.502 -0.3511  0.0775  0.3295
21432SOL    HW181906   5.525   9.605  12.431  2.0742  0.2834  0.0644
21432SOL    HW281907   5.463   9.558  12.561 -2.2166  0.1894 -1.8613
21433SOL     OW81908   6.326   2.475   0.925  0.4615 -0.2287  0.0291
21433SOL    HW181909   6.385   2.495   0.998  0.6949 -0.2426 -0.1551
21433SOL    HW281910   6.385   2.453   0.852  0.2234 -0.6531 -0.0377
21434SOL     OW81911  12.756  11.409   0.047 -0.7006  0.3928  0.3488
21434SOL    HW181912  12.761  11.336   0.109  0.8945  1.4790  1.5861
21434SOL    HW281913  12.756  11.366  -0.039 -0.0597 -1.0796  1.0400
21435SOL     OW81914   5.264  13.234   6.066 -0.3667 -0.3744  0.2576
21435SOL    HW181915   5.323  13.271   6.132 -0.9024  1.3863 -0.1755
21435SOL    HW281916   5.247  13.307   6.006  1.6882 -2.3727 -3.0375
21436SOL     OW81917   9.302  13.972   1.113  0.3986  0.3006 -0.7037
21436SOL    HW181918   9.273  14.006   1.198  1.4198  1.5755 -0.8379
21436SOL    HW281919   9.245  14.014   1.049  1.0539  1.0620 -0.7998
21437SOL     OW81920  12.683  10.800   9.165 -0.5539 -0.3039  0.2989
21437SOL    HW181921  12.647  10.825   9.080  1.1789 -1.1811 -0.7277
21437SOL    HW281922  12.611  10.754   9.208 -1.2832 -0.3396 -0.9023
21438SOL     OW81923  12.187   4.962   3.867 -0.4700  0.3414  0.4130
21438SOL    HW181924  12.148   4.880   3.838  0.2604  0.4868 -1.0875
21438SOL    HW281925  12.113   5.013   3.901 -1.1418 -0.4149  0.1186
21439SOL     OW81926  10.453  13.855   4.668  0.1248  0.1894  0.7786
21439SOL    HW181927  10.452  13.789   4.738 -1.9666  0.0443  0.6727
21439SOL    HW281928  10.452  13.803   4.587  0.1292  0.3593  0.6705
21440SOL     OW81929  10.287   1.829   3.401 -0.2123 -0.3972  0.6688
21440SOL    HW181930  10.296   1.735   3.416 -0.6914 -1.2053 -3.1367
21440SOL    HW281931  10.202   1.839   3.357  0.0434  1.7568  0.5200
21441SOL     OW81932  11.034   3.541   7.237  0.4202  0.0870  0.3950
21441SOL    HW181933  11.129   3.547   7.226  0.5256  0.3410  1.3519
21441SOL    HW281934  11.022   3.508   7.326 -0.3905 -0.1906  0.1955
21442SOL     OW81935   8.822  11.962   0.076 -0.4447 -0.3554  0.4557
21442SOL    HW181936   8.883  11.925   0.013 -1.2450 -0.9212 -0.0057
21442SOL    HW281937   8.864  12.043   0.105  0.1663 -0.3444 -0.4201
21443SOL     OW81938   2.068   3.602   5.157  0.1513  0.1626 -0.2167
21443SOL    HW181939   2.006   3.565   5.219  0.8229  0.5985  0.7387
21443SOL    HW281940   2.047   3.696   5.154  0.5652  0.2610 -0.1152
21444SOL     OW81941   1.615   6.556   9.817 -0.3249 -0.1738 -0.0710
21444SOL    HW181942   1.531   6.592   9.846 -0.5381 -0.6642 -0.0796
21444SOL    HW281943   1.677   6.585   9.884 -0.7949 -1.2107  0.8431
21445SOL     OW81944   4.528  10.740   4.990 -0.0049  0.5665 -0.0919
21445SOL    HW181945   4.456  10.794   5.023 -0.7375 -0.3550 -0.1273
21445SOL    HW281946   4.520  10.658   5.039  0.0937 -0.0963 -1.1671
21446SOL     OW81947   0.931   1.076   0.660  0.0611 -0.1729 -0.1575
21446SOL    HW181948   1.024   1.054   0.655  0.4536  1.1925  0.7769
21446SOL    HW281949   0.889   0.995   0.690  1.0708 -0.5129  0.3854
21447SOL     OW81950  12.446   4.948  12.363 -0.5171 -0.0389  0.4917
21447SOL    HW181951  12.428   5.040  12.346 -1.6792 -0.5912 -1.6154
21447SOL    HW281952  12.540   4.939  12.351 -0.6458  0.5614 -1.1228
21448SOL     OW81953  13.118   0.677  13.840 -0.6620 -0.0439  0.0958
21448SOL    HW181954  13.170   0.735  13.784 -1.5114  1.3221  0.6608
21448SOL    HW281955  13.046   0.648  13.785 -1.1680  0.8173  0.2876
21449SOL     OW81956   9.272   0.259   1.630 -0.1933 -0.0103  0.6637
21449SOL    HW181957   9.222   0.341   1.629  2.0757  1.4729 -0.6830
21449SOL    HW281958   9.293   0.245   1.722 -2.2848 -0.2193  1.1574
21450SOL     OW81959   5.822   4.549  13.068 -0.6145  0.6441 -0.0635
21450SOL    HW181960   5.832   4.603  13.146  0.0187  0.5461 -0.0706
21450SOL    HW281961   5.884   4.586  13.005 -1.3201  0.8971 -0.6196
21451SOL     OW81962   8.218  11.031   9.582 -0.2449 -0.0809 -0.4133
21451SOL    HW181963   8.182  11.082   9.654  0.8939  0.0430  0.0994
21451SOL    HW281964   8.235  11.095   9.513  1.3356  0.3210  0.2881
21452SOL     OW81965   8.315   2.465   3.303  0.3704  0.5736  0.3278
21452SOL    HW181966   8.316   2.371   3.284  1.5370 -0.0558  2.9840
21452SOL    HW281967   8.407   2.490   3.305  0.1265  1.4601  0.9526
21453SOL     OW81968  12.749  11.633   0.242 -0.3029 -0.6614 -0.1665
21453SOL    HW181969  12.741  11.576   0.166  0.1734 -0.0131 -0.7261
21453SOL    HW281970  12.837  11.670   0.234 -0.2604 -0.5619  0.6869
21454SOL     OW81971   0.259   5.438   5.898  0.3650  0.0058 -0.8547
21454SOL    HW181972   0.164   5.447   5.893  0.4262  0.3998 -1.4654
21454SOL    HW281973   0.293   5.518   5.859  0.9628  0.3800  0.3958
21455SOL     OW81974  10.183   2.103   6.597  0.0002  0.3342 -0.0882
21455SOL    HW181975  10.238   2.066   6.528  1.1191  1.0580  0.3836
21455SOL    HW281976  10.238   2.170   6.639 -0.7711  0.1660  1.2680
21456SOL     OW81977   5.268   6.870  12.129  0.3725 -0.5757  0.7011
21456SOL    HW181978   5.175   6.894  12.125  0.4502 -0.4545 -0.6184
21456SOL    HW281979   5.313   6.937  12.079  0.9958 -1.5021 -0.0134
21457SOL     OW81980   8.265   0.073  13.837  0.1941  0.5414 -0.5614
21457SOL    HW181981   8.226   0.145  13.887  1.7592  0.6681  0.5306
21457SOL    HW281982   8.293   0.114  13.755 -0.0219  0.8999 -0.4597
21458SOL     OW81983   0.435   3.148   2.623  0.3761 -0.0843 -0.3171
21458SOL    HW181984   0.530   3.154   2.618  0.3992 -0.2426 -0.0930
21458SOL    HW281985   0.415   3.156   2.717 -0.0066  2.2669 -0.5443
21459SOL     OW81986   4.559   9.641   1.532 -0.0903  0.0292 -0.0490
21459SOL    HW181987   4.607   9.718   1.502  0.3939  0.4389  1.6365
21459SOL    HW281988   4.539   9.592   1.453 -1.5226  2.4968 -1.3207
21460SOL     OW81989   2.510  13.050   7.858  0.3753  0.0087 -0.1205
21460SOL    HW181990   2.500  13.087   7.771  0.2978 -0.5823 -0.3698
21460SOL    HW281991   2.604  13.049   7.874  0.3278  1.7195  0.5248
21461SOL     OW81992   7.520  13.027   7.935 -0.6392  0.0855 -0.4030
21461SOL    HW181993   7.514  13.101   7.995 -1.2953 -0.3179  0.0345
21461SOL    HW281994   7.468  12.958   7.975  1.1993 -1.1686 -0.0349
21462SOL     OW81995   0.409  10.148   1.153 -0.4135 -0.1544  0.2378
21462SOL    HW181996   0.329  10.131   1.104 -0.2643 -1.1285  0.3069
21462SOL    HW281997   0.470  10.183   1.089 -0.5164 -0.5557 -0.0861
21463SOL     OW81998   1.564  13.652  11.922  0.1891 -0.6754  0.2509
21463SOL    HW181999   1.640  13.636  11.866  0.7706 -0.4971  0.9779
21463SOL    HW282000   1.534  13.740  11.899  0.8303 -0.3397  0.6765
21464SOL     OW82001   0.538   5.493   4.046 -0.0513  0.4843  0.3281
21464SOL    HW182002   0.554   5.440   4.123 -0.3764 -0.6974 -0.3923
21464SOL    HW282003   0.560   5.437   3.972 -0.7180  1.2284 -0.4707
21465SOL     OW82004  13.760   4.072   8.814 -0.4361  0.5870 -0.2602
21465SOL    HW182005  13.731   4.161   8.793 -1.5418  0.3928  0.3887
21465SOL    HW282006  13.815   4.083   8.892  2.4250  1.1156 -2.2061
21466SOL     OW82007   3.287   6.613   5.411  0.2501  0.1175  0.0066
21466SOL    HW182008   3.327   6.692   5.376  1.2472 -0.8381 -1.1192
21466SOL    HW282009   3.358   6.566   5.454  0.1704 -1.1256 -1.1342
21467SOL     OW82010  12.506   4.436   0.241 -0.0894  1.4181 -0.6156
21467SOL    HW182011  12.565   4.511   0.234 -1.3249  2.4978  0.1617
21467SOL    HW282012  12.432   4.457   0.185  0.1578  0.1339 -1.4760
21468SOL     OW82013   7.669  12.613   2.436  0.3008  0.1911 -0.0853
21468SOL    HW182014   7.733  12.548   2.463 -0.1125 -0.3167 -0.3067
21468SOL    HW282015   7.677  12.617   2.341 -0.8305 -0.7971 -0.2582
21469SOL     OW82016   9.889   3.653   4.363 -0.1733 -0.0347 -0.1388
21469SOL    HW182017   9.951   3.683   4.430  1.2672  1.0428 -1.8651
21469SOL    HW282018   9.936   3.584   4.316 -0.9360 -0.3785 -0.4015
21470SOL     OW82019  12.959   1.914   0.383 -0.2711 -0.2001 -0.2807
21470SOL    HW182020  12.943   1.897   0.290 -1.1861  2.0350 -0.5814
21470SOL    HW282021  12.960   2.009   0.391  2.0133 -0.3016  1.6692
21471SOL     OW82022   6.258   8.540   5.079 -0.1034  0.4594  0.2655
21471SOL    HW182023   6.336   8.564   5.029  0.3291  0.3062  0.8539
21471SOL    HW282024   6.199   8.502   5.014 -0.2427  1.8188 -0.4217
21472SOL     OW82025   0.119  11.654  13.023  0.1052  0.1262  0.8545
21472SOL    HW182026   0.075  11.569  13.015  0.6932 -0.1716  0.7528
21472SOL    HW282027   0.052  11.712  13.060 -0.5627 -0.1700  0.1324
21473SOL     OW82028   1.859   8.030   2.172  0.5342  0.7286 -0.1780
21473SOL    HW182029   1.778   8.057   2.129 -0.9133 -2.1140  0.5604
21473SOL    HW282030   1.903   7.975   2.107 -0.5243 -1.6385  0.9764
21474SOL     OW82031  11.095   7.729   1.056  0.1902 -0.5357  0.7736
21474SOL    HW182032  11.098   7.666   0.984 -0.6287  0.0709  0.1830
21474SOL    HW282033  11.173   7.711   1.108  1.7057  0.0856 -1.1697
21475SOL     OW82034   1.441  10.706   7.496 -0.5928 -0.2976 -0.4258
21475SOL    HW182035   1.474  10.618   7.517 -0.7119 -0.3308 -0.3759
21475SOL    HW282036   1.519  10.762   7.500 -0.8102 -0.0476  1.5390
21476SOL     OW82037  10.199   4.601  10.273  0.3815 -0.3083 -0.3553
21476SOL    HW182038  10.146   4.659  10.218 -0.3974  0.0049  0.7043
21476SOL    HW282039  10.215   4.524  10.218 -0.2683  0.0511 -1.0661
21477SOL     OW82040   9.248   3.973   8.881  0.2951  0.1164  0.1476
21477SOL    HW182041   9.238   3.920   8.803  0.5403  1.1820 -0.6333
21477SOL    HW282042   9.316   4.036   8.859  2.8687 -1.6566  2.4018
21478SOL     OW82043   6.995  13.149  14.027 -0.0651 -0.0363  0.0929
21478SOL    HW182044   6.987  13.173  14.119 -1.1882  1.9851 -0.4667
21478SOL    HW282045   6.913  13.105  14.006  0.1951 -0.5071  0.0604
21479SOL     OW82046  11.720   6.151   8.122  0.0095 -0.6837 -0.2656
21479SOL    HW182047  11.788   6.178   8.060  0.2042  0.2373  0.3268
21479SOL    HW282048  11.754   6.177   8.208  0.4225 -3.2911  0.4289
21480SOL     OW82049  13.060   0.758   7.440 -0.0343 -0.0615 -0.4430
21480SOL    HW182050  13.119   0.749   7.515 -0.2461  0.7447 -0.1660
21480SOL    HW282051  12.972   0.757   7.479 -0.1334  0.7058 -0.6376
21481SOL     OW82052   0.165   2.792   7.901  0.3091  0.1389 -0.0962
21481SOL    HW182053   0.229   2.859   7.928 -0.0482  0.2268  0.5785
21481SOL    HW282054   0.200   2.755   7.821  0.9012  0.6124 -0.0606
21482SOL     OW82055   1.408  13.996   8.914  0.0471  0.8248  0.4232
21482SOL    HW182056   1.486  13.944   8.895 -0.6907 -0.0739 -0.2290
21482SOL    HW282057   1.335  13.934   8.906 -0.9106  2.0584 -0.8472
21483SOL     OW82058   0.676   1.373  11.029 -0.3203 -0.0565  0.0122
21483SOL    HW182059   0.655   1.287  11.066 -0.4138 -0.3827 -0.7764
21483SOL    HW282060   0.756   1.399  11.075 -1.0522  0.0755  1.2527
21484SOL     OW82061  11.704   9.087   6.219 -0.5170 -0.4711 -0.1140
21484SOL    HW182062  11.664   9.143   6.284  0.3614 -0.0184  0.0447
21484SOL    HW282063  11.717   9.143   6.143  0.5400 -0.3890  0.1105
21485SOL     OW82064   4.698  12.690   4.557 -0.2771  0.5411 -0.3525
21485SOL    HW182065   4.641  12.762   4.532 -0.7801 -0.0558 -0.9681
21485SOL    HW282066   4.674  12.669   4.647  0.3908  1.6255  0.0853
21486SOL     OW82067   5.197   9.738   1.934  0.4196 -0.1662 -0.5468
21486SOL    HW182068   5.270   9.746   1.995 -0.4719 -0.5625  0.6188
21486SOL    HW282069   5.133   9.803   1.964 -0.6571 -1.3725 -0.1061
21487SOL     OW82070   9.936   7.773   8.105 -0.1492  0.1461  0.0438
21487SOL    HW182071  10.027   7.746   8.103 -0.1976 -0.1313  1.0204
21487SOL    HW282072   9.912   7.785   8.013  1.0650  0.9264 -0.1901
21488SOL     OW82073   2.850   4.443   5.306 -0.5673 -0.1055 -0.3651
21488SOL    HW182074   2.884   4.506   5.369 -0.6871  0.6292 -1.0151
21488SOL    HW282075   2.772   4.406   5.348  0.2165 -0.7644  0.5443
21489SOL     OW82076   8.085  10.602  11.182 -0.2679  0.7758  0.5204
21489SOL    HW182077   8.116  10.641  11.263  0.1246  2.3409 -0.3507
21489SOL    HW282078   8.158  10.611  11.120 -0.8789  0.4461 -0.2834
21490SOL     OW82079  11.018   4.290  12.048 -0.0950  0.0426 -0.7692
21490SOL    HW182080  10.936   4.299  12.097 -1.5631  0.7443 -3.1910
21490SOL    HW282081  11.064   4.373  12.064  0.4508 -0.5576  1.0182
21491SOL     OW82082   1.090   1.390   4.208  0.0788 -0.5079  0.1403
21491SOL    HW182083   1.127   1.322   4.265  1.8618  0.6754  0.5068
21491SOL    HW282084   1.040   1.343   4.143  0.8003 -2.1414  0.7148
21492SOL     OW82085   1.187   7.569  10.218  0.7975  0.1571 -0.5113
21492SOL    HW182086   1.154   7.641  10.165  2.1391  0.9954 -0.2581
21492SOL    HW282087   1.201   7.606  10.305 -1.2980 -1.1837  0.4938
21493SOL     OW82088   1.053   9.564  13.017  0.3435  0.1968 -0.2314
21493SOL    HW182089   1.093   9.548  12.931  0.1772  0.4431 -0.3520
21493SOL    HW282090   1.016   9.652  13.011 -0.3839 -0.0996 -0.1801
21494SOL     OW82091   1.028   3.363   5.690  0.0967 -0.2926 -0.1591
21494SOL    HW182092   0.955   3.308   5.664  0.9685 -1.5036 -0.1014
21494SOL    HW282093   1.057   3.326   5.774  0.6495  0.3042 -0.0792
21495SOL     OW82094   6.831  13.412   9.317 -0.1973 -0.1994 -0.4156
21495SOL    HW182095   6.829  13.477   9.247  0.9652 -0.8830 -1.1057
21495SOL    HW282096   6.757  13.354   9.297 -1.6970  1.2647  0.6097
21496SOL     OW82097   2.985  14.091   9.765  0.1184  0.0564  0.2871
21496SOL    HW182098   2.922  14.034   9.722  0.7263 -0.3599 -0.0719
21496SOL    HW282099   3.058  14.098   9.702  0.0316  1.2708  0.2954
21497SOL     OW82100   1.500  10.185  12.189  0.4476 -0.5692  0.3148
21497SOL    HW182101   1.523  10.251  12.124  1.4022 -0.1702  1.0261
21497SOL    HW282102   1.406  10.194  12.201  0.8209  2.1032  1.8961
21498SOL     OW82103   4.627  11.401   3.303 -0.0592 -0.1117  0.1799
21498SOL    HW182104   4.693  11.467   3.324  1.8499 -1.9010  0.1230
21498SOL    HW282105   4.594  11.427   3.217  1.7047  0.0444 -0.5017
21499SOL     OW82106  13.180   3.969   9.824  0.2758 -0.1260  0.3787
21499SOL    HW182107  13.274   3.970   9.805  0.4157 -1.0523  1.0142
21499SOL    HW282108  13.139   3.948   9.739  0.7002 -0.7224  0.3158
21500SOL     OW82109   2.497   5.474  13.938  0.7508 -0.1013 -0.1737
21500SOL    HW182110   2.476   5.447  14.027  1.3483  0.0803  0.0267
21500SOL    HW282111   2.546   5.400  13.901  2.7806  0.8168  0.5235
21501SOL     OW82112   2.976  10.222   3.472 -0.0840  0.0646 -0.4527
21501SOL    HW182113   2.890  10.215   3.513 -0.4080  0.1371 -1.0903
21501SOL    HW282114   2.970  10.303   3.421 -0.0816 -0.5791 -1.5003
21502SOL     OW82115   5.002   5.658   4.577 -0.7152 -0.1474 -0.4568
21502SOL    HW182116   5.078   5.610   4.544 -1.3077 -0.2247 -1.7374
21502SOL    HW282117   4.965   5.602   4.645  0.2539 -0.1853  0.0607
21503SOL     OW82118   4.680   3.762   0.713  0.5657  0.2649  0.1868
21503SOL    HW182119   4.687   3.802   0.800 -0.1820 -2.4792  1.6245
21503SOL    HW282120   4.596   3.792   0.680  0.0081 -0.0619  1.2372
21504SOL     OW82121  13.979   1.223   7.896 -0.1906  0.0557  0.3135
21504SOL    HW182122  14.016   1.140   7.865  0.0867  0.2088  0.2231
21504SOL    HW282123  14.016   1.235   7.983 -0.7202 -0.2174  0.5816
21505SOL     OW82124   2.972   2.319  11.885  0.1123  0.3781  0.1300
21505SOL    HW182125   3.047   2.358  11.929  0.6670  1.8305 -1.9852
21505SOL    HW282126   2.938   2.255  11.949  2.1073  0.8510  1.7806
21506SOL     OW82127  11.442   1.490   8.960  0.5129  0.4037  0.0795
21506SOL    HW182128  11.405   1.568   9.001  0.6936 -0.0553  1.1515
21506SOL    HW282129  11.537   1.500   8.972  0.5723  0.2869 -0.2774
21507SOL     OW82130   2.294   8.228   1.500  0.0568  0.2437  0.0041
21507SOL    HW182131   2.289   8.230   1.596  0.2612 -1.6245  0.0913
21507SOL    HW282132   2.242   8.303   1.472 -2.4102 -0.7742  1.5432
21508SOL     OW82133   5.572   1.790   3.336  0.2075 -0.5696 -0.0878
21508SOL    HW182134   5.624   1.844   3.277 -0.1844 -0.4370 -0.3111
21508SOL    HW282135   5.632   1.769   3.408  1.1218 -1.9149 -1.2081
21509SOL     OW82136   9.355   0.839   3.248 -0.2288 -0.3402 -0.0480
21509SOL    HW182137   9.310   0.757   3.230  2.9313 -1.9777 -1.3306
21509SOL    HW282138   9.405   0.857   3.169  2.6109  0.3760  1.7490
21510SOL     OW82139   1.296   7.340  13.325  0.2232 -0.1066 -0.4631
21510SOL    HW182140   1.343   7.332  13.408 -2.5273 -0.5722  1.1829
21510SOL    HW282141   1.331   7.419  13.285  2.2619 -0.3496  0.6738
21511SOL     OW82142   3.187   2.762   5.261  0.1130  0.1745  0.0316
21511SOL    HW182143   3.182   2.856   5.240  0.2115  1.1281  3.6879
21511SOL    HW282144   3.112   2.746   5.318  1.9815 -1.0530  2.3393
21512SOL     OW82145   4.857   4.226   9.071  0.8370 -0.0017  0.1574
21512SOL    HW182146   4.793   4.275   9.123  2.2889  1.8187  0.3278
21512SOL    HW282147   4.844   4.258   8.982  3.2052  2.4829  0.5667
21513SOL     OW82148   5.225   9.007   3.171 -0.2604  0.0932 -0.5754
21513SOL    HW182149   5.247   8.935   3.231 -1.1831  0.2708 -0.0032
21513SOL    HW282150   5.277   8.989   3.092  0.5230 -0.4698  0.0538
21514SOL     OW82151   0.638  11.859   2.240  0.1216  0.0958  0.0405
21514SOL    HW182152   0.709  11.916   2.267 -1.4989  2.6917 -0.7622
21514SOL    HW282153   0.578  11.858   2.315  0.4739 -1.2755  0.3424
21515SOL     OW82154   9.759   3.722   7.134 -0.0914  0.4303  0.0260
21515SOL    HW182155   9.705   3.801   7.139 -2.7982 -1.1725 -1.6951
21515SOL    HW282156   9.727   3.666   7.205  0.6969  0.1984  0.2118
21516SOL     OW82157  10.147   1.386   3.679 -0.0230  0.3129  0.3903
21516SOL    HW182158  10.208   1.453   3.647  0.0484  0.8169  1.5500
21516SOL    HW282159  10.131   1.410   3.770 -0.9671 -0.5508  0.4609
21517SOL     OW82160   2.477  13.418   0.290 -0.2872 -0.1597  0.4548
21517SOL    HW182161   2.555  13.413   0.345  1.3367  3.5955 -1.1737
21517SOL    HW282162   2.493  13.355   0.220  0.7828 -0.1773  0.7030
21518SOL     OW82163   3.251  12.715   5.523 -0.0096  0.6430 -0.4089
21518SOL    HW182164   3.342  12.742   5.538 -0.7486  2.4985  1.1874
21518SOL    HW282165   3.224  12.673   5.605 -0.4773 -0.3155 -1.0354
21519SOL     OW82166  11.411   2.068   6.891  0.8835  0.8403 -0.6087
21519SOL    HW182167  11.405   2.159   6.864  2.3609  0.6154 -1.7829
21519SOL    HW282168  11.366   2.019   6.821 -0.8649  0.7192  0.5488
21520SOL     OW82169   8.311   5.906  13.910  0.0795  0.3107 -0.1315
21520SOL    HW182170   8.401   5.932  13.893 -0.4285  0.9639 -2.1648
21520SOL    HW282171   8.263   5.989  13.916 -0.4279 -0.0339  0.7453
21521SOL     OW82172   3.348   7.907   0.038  0.2457 -0.0635 -0.7120
21521SOL    HW182173   3.343   7.853   0.117  0.9789 -0.4539 -0.9263
21521SOL    HW282174   3.257   7.916   0.009  0.0027 -0.1982 -0.0190
21522SOL     OW82175   5.151  11.263  11.491  0.6585  0.2056  0.5402
21522SOL    HW182176   5.231  11.246  11.540  0.0628 -0.4129  1.3358
21522SOL    HW282177   5.090  11.297  11.555  0.1390  0.2336  0.0429
21523SOL     OW82178   9.770   2.277   2.926  0.6578 -0.1195 -0.1736
21523SOL    HW182179   9.745   2.190   2.957 -0.9332  0.3775  0.0197
21523SOL    HW282180   9.698   2.334   2.954  1.0657  1.0415 -1.4045
21524SOL     OW82181  11.870   3.446   5.964 -0.6209 -0.3429 -0.2779
21524SOL    HW182182  11.943   3.405   6.010  0.5144  0.9299 -0.8662
21524SOL    HW282183  11.855   3.528   6.011 -1.0368 -0.1426 -0.7488
21525SOL     OW82184   0.032   1.039  12.129 -0.1237  0.0364 -0.1480
21525SOL    HW182185  -0.011   1.116  12.094  3.2327  1.2188 -2.2052
21525SOL    HW282186  -0.004   0.966  12.078  1.1042  1.1341 -2.8062
21526SOL     OW82187  12.075   2.398   3.759 -0.5029  0.1784  0.1854
21526SOL    HW182188  12.106   2.396   3.668  0.0854 -3.5810  0.3307
21526SOL    HW282189  12.127   2.467   3.800  2.2263 -0.7731 -1.4189
21527SOL     OW82190   1.712   6.425  12.590  0.3841 -0.2836  0.3360
21527SOL    HW182191   1.781   6.483  12.559  0.4535 -0.6261 -0.1525
21527SOL    HW282192   1.725   6.422  12.685  0.1651  0.7707  0.4154
21528SOL     OW82193  10.665   0.452   8.193 -0.6210 -0.3566  0.0983
21528SOL    HW182194  10.742   0.425   8.243 -0.3644  0.5340  0.1882
21528SOL    HW282195  10.617   0.370   8.179  0.1832 -0.8830  0.2918
21529SOL     OW82196  13.427   5.866  12.316  0.6168  0.2600 -0.1184
21529SOL    HW182197  13.515   5.897  12.336  0.2678  2.0251 -1.0838
21529SOL    HW282198  13.386   5.939  12.270 -1.1765 -0.7268 -0.1788
21530SOL     OW82199   8.331   9.208   8.019 -0.6885  0.2757  0.2510
21530SOL    HW182200   8.266   9.140   8.033 -0.4717 -0.2880 -1.2285
21530SOL    HW282201   8.320   9.268   8.092 -0.9053 -1.3189  1.5800
21531SOL     OW82202  13.538   2.506   5.878 -0.1352  0.0364 -0.0189
21531SOL    HW182203  13.483   2.580   5.901  0.2704  0.1108  0.7231
21531SOL    HW282204  13.550   2.457   5.959 -1.8964 -1.8833 -0.8221
21532SOL     OW82205   6.950   3.849   3.023 -0.3790  0.0039  0.3229
21532SOL    HW182206   6.971   3.776   3.081 -0.8334 -1.4435 -1.2386
21532SOL    HW282207   6.855   3.848   3.016 -0.3561  0.4176 -0.1288
21533SOL     OW82208   8.350  11.405   1.234  0.0480 -0.3491  0.2620
21533SOL    HW182209   8.405  11.362   1.169  2.0675 -0.1692  1.7589
21533SOL    HW282210   8.288  11.338   1.262 -0.7550 -0.4840 -1.6264
21534SOL     OW82211  12.426   1.943  13.737  0.1733 -0.4274  0.0802
21534SOL    HW182212  12.411   1.989  13.654 -1.2551 -2.2005 -0.7277
21534SOL    HW282213  12.447   1.853  13.711 -0.2219 -0.9987  1.6261
21535SOL     OW82214   7.589   1.084  13.950  0.0495  0.3443 -0.0997
21535SOL    HW182215   7.510   1.036  13.973  0.1338  1.1651  2.1799
21535SOL    HW282216   7.653   1.016  13.930 -0.5585 -0.4069  0.4455
21536SOL     OW82217   8.101   8.114   1.893  0.7363  0.4942 -0.0398
21536SOL    HW182218   8.051   8.113   1.812  0.5351  0.6959  0.0806
21536SOL    HW282219   8.184   8.072   1.871  0.8710  0.9803 -0.4701
21537SOL     OW82220   0.437   7.174  13.458  0.3159  0.7145  0.3895
21537SOL    HW182221   0.406   7.134  13.377  1.1046  0.6516  0.1136
21537SOL    HW282222   0.525   7.140  13.469 -0.7212 -1.5686  2.7820
21538SOL     OW82223   2.989   5.015   2.811  0.3650  0.0153  0.0590
21538SOL    HW182224   3.040   5.049   2.885  1.7990  2.7228 -2.0314
21538SOL    HW282225   3.054   4.991   2.746 -0.9272  1.3466 -1.8026
21539SOL     OW82226  13.754   5.042   7.826 -0.7361 -0.4948  0.0291
21539SOL    HW182227  13.758   5.089   7.742  1.9233 -2.6764 -1.2248
21539SOL    HW282228  13.671   4.995   7.823  0.1513 -2.0562 -2.3583
21540SOL     OW82229   9.878   3.686   5.976  0.4911 -0.0497 -0.5516
21540SOL    HW182230   9.922   3.753   5.924  0.7625 -0.2266 -0.5506
21540SOL    HW282231   9.932   3.677   6.055 -1.5088  2.3911  1.2374
21541SOL     OW82232  11.410   1.883  13.220 -0.2773 -0.2467 -0.2999
21541SOL    HW182233  11.400   1.804  13.167 -1.2473  0.2200 -0.8526
21541SOL    HW282234  11.500   1.881  13.252  0.1793 -0.7857 -1.5836
21542SOL     OW82235   1.185  13.404   1.790 -0.1159  0.0327 -0.3804
21542SOL    HW182236   1.197  13.331   1.730 -0.1204  0.4486 -0.8925
21542SOL    HW282237   1.168  13.362   1.875  1.8890 -0.5616 -0.2357
21543SOL     OW82238   6.767   2.183  12.326 -0.1562 -0.1581  0.3030
21543SOL    HW182239   6.744   2.175  12.233 -3.2327  2.3989  0.6837
21543SOL    HW282240   6.804   2.271  12.334 -0.3591 -0.1728  1.5439
21544SOL     OW82241  12.736   5.179  12.484  0.2534  0.1312  0.4469
21544SOL    HW182242  12.696   5.127  12.414  0.0821 -0.7177  1.1550
21544SOL    HW282243  12.663   5.228  12.522  0.0899 -0.4791  0.9358
21545SOL     OW82244   7.561  13.241  11.894  0.2890 -0.2445  0.2471
21545SOL    HW182245   7.591  13.181  11.963 -0.2495  0.8871  1.5056
21545SOL    HW282246   7.482  13.199  11.859 -0.2425 -0.1701  1.3073
21546SOL     OW82247  12.440   1.891   9.482 -0.0054 -0.4010 -0.0188
21546SOL    HW182248  12.381   1.894   9.558  0.3502 -2.7259  0.4316
21546SOL    HW282249  12.391   1.843   9.416  0.1951  0.4617 -0.8113
21547SOL     OW82250   2.926   1.387   7.674  0.4186 -0.0795 -0.0083
21547SOL    HW182251   2.868   1.456   7.706 -0.5412 -0.1865 -1.4142
21547SOL    HW282252   3.014   1.420   7.690  0.0108  0.0331  2.2866
21548SOL     OW82253   4.707  12.390   7.418 -1.5923 -0.2963 -0.4309
21548SOL    HW182254   4.704  12.474   7.372 -0.5059  0.2687  0.4513
21548SOL    HW282255   4.800  12.378   7.438 -1.9066 -1.0134  0.6952
21549SOL     OW82256   3.876   7.172  13.813  0.1873  0.3127 -0.2616
21549SOL    HW182257   3.922   7.207  13.736  1.5234 -0.2420  0.2540
21549SOL    HW282258   3.841   7.088  13.784  0.3359  0.2927 -0.3853
21550SOL     OW82259   9.999  13.035  11.721 -0.4111  0.4165  0.2718
21550SOL    HW182260  10.065  12.965  11.721 -0.1709  0.6328  1.0578
21550SOL    HW282261   9.922  12.995  11.763 -0.7034  0.2468 -0.4070
21551SOL     OW82262  13.846   0.313   9.955 -0.4689  0.1676 -0.2502
21551SOL    HW182263  13.767   0.261   9.942  0.5849 -1.4175 -0.6914
21551SOL    HW282264  13.868   0.300  10.047  0.4713 -1.2677 -0.6372
21552SOL     OW82265   3.756   2.707   8.372 -0.0111 -0.1591  0.3589
21552SOL    HW182266   3.662   2.695   8.386  0.0822 -0.7008  0.5709
21552SOL    HW282267   3.779   2.783   8.425 -0.5410  0.7035 -0.6224
21553SOL     OW82268   1.744   3.163   1.071 -1.2710  0.4188 -0.5983
21553SOL    HW182269   1.690   3.239   1.048 -1.4738  0.5881  0.4085
21553SOL    HW282270   1.708   3.092   1.018 -2.7126  0.4614  0.2713
21554SOL     OW82271  10.184   2.955   3.033 -0.2996  0.0972 -0.3746
21554SOL    HW182272  10.197   3.040   2.990  0.8724  0.0813 -0.0975
21554SOL    HW282273  10.144   2.900   2.965 -0.0576  0.5581 -0.9012
21555SOL     OW82274  12.081  13.328  13.225 -0.5256 -0.8330 -0.6128
21555SOL    HW182275  11.997  13.283  13.232 -0.4401 -0.8261  0.9539
21555SOL    HW282276  12.128  13.302  13.304  0.0619  0.9122 -0.3425
21556SOL     OW82277   2.015   1.967  11.106  0.0795  0.1639  0.1093
21556SOL    HW182278   1.980   1.985  11.193 -0.5912  1.4998 -0.4207
21556SOL    HW282279   1.941   1.929  11.058 -0.1389  1.2744 -0.4588
21557SOL     OW82280  10.101   2.573   4.258 -0.4410 -0.3128 -0.0130
21557SOL    HW182281  10.163   2.632   4.301  1.4073 -1.4869 -0.9285
21557SOL    HW282282  10.016   2.596   4.296  0.3788  1.9864  0.6425
21558SOL     OW82283   7.319   4.310  13.055 -0.4251  0.3209  0.1973
21558SOL    HW182284   7.382   4.247  13.021 -1.2942  0.6242 -2.1903
21558SOL    HW282285   7.249   4.256  13.091  0.3962 -0.0222  1.3223
21559SOL     OW82286  12.108   3.598   9.844 -0.2220  0.1884 -0.0716
21559SOL    HW182287  12.166   3.656   9.795 -0.0899  0.3350  0.2480
21559SOL    HW282288  12.032   3.652   9.866 -0.4909 -0.0099 -0.5087
21560SOL     OW82289   9.350   6.407   6.389  0.1704 -0.4641  0.1998
21560SOL    HW182290   9.317   6.334   6.338 -0.4472 -0.0462  0.0006
21560SOL    HW282291   9.282   6.474   6.383  1.4266  0.7812 -1.0098
21561SOL     OW82292   1.966   2.141   2.009 -0.2971 -0.1853  0.1858
21561SOL    HW182293   1.874   2.135   1.986 -0.2827  0.8625 -0.1970
21561SOL    HW282294   2.008   2.183   1.934  0.6181 -1.2655  0.0608
21562SOL     OW82295   0.340  10.601   2.455  0.5054 -0.0908  0.3070
21562SOL    HW182296   0.373  10.673   2.509 -0.2528 -0.5826  1.4634
21562SOL    HW282297   0.250  10.627   2.432 -0.0332 -0.9669  1.3365
21563SOL     OW82298   5.249   6.718  12.704 -0.6483 -0.5667 -0.4091
21563SOL    HW182299   5.196   6.692  12.780 -0.6239  1.0052  0.1735
21563SOL    HW282300   5.338   6.726  12.738  0.0203 -3.0431 -1.3517
21564SOL     OW82301   5.998   6.801  12.317  0.1643 -0.5929 -0.4910
21564SOL    HW182302   5.903   6.814  12.311  0.0936 -0.6102  0.4642
21564SOL    HW282303   6.011   6.709  12.292  0.0024 -0.4329 -1.1938
21565SOL     OW82304   5.254   3.351   1.937  0.3543  0.3900  0.7547
21565SOL    HW182305   5.299   3.424   1.895  0.5654 -0.0475  0.2042
21565SOL    HW282306   5.163   3.360   1.911  0.0672  1.3789  2.0138
21566SOL     OW82307  11.263   5.817  12.618 -0.1436  0.1506 -0.3725
21566SOL    HW182308  11.311   5.823  12.701  1.4176 -0.0885 -1.2105
21566SOL    HW282309  11.323   5.855  12.554 -1.1129 -0.1397 -1.4774
21567SOL     OW82310   9.833   0.826  12.799 -0.0853  0.1514  0.5791
21567SOL    HW182311   9.903   0.761  12.799  1.2366  1.4777 -0.6839
21567SOL    HW282312   9.874   0.905  12.835 -0.7123  1.1243 -0.7537
21568SOL     OW82313   2.042   3.469   1.009 -0.4484  0.5485 -0.2052
21568SOL    HW182314   2.050   3.474   1.104 -0.7776  2.2476 -0.2274
21568SOL    HW282315   2.130   3.446   0.979 -0.1068  0.9214  0.4747
21569SOL     OW82316   0.638   1.700  10.441 -0.6400 -0.1553 -0.1231
21569SOL    HW182317   0.714   1.750  10.409 -1.7811  3.1901  1.8825
21569SOL    HW282318   0.661   1.678  10.531 -2.2159  1.4745  0.7305
21570SOL     OW82319   6.347  13.584  12.203  0.1998 -0.5111 -0.2501
21570SOL    HW182320   6.366  13.664  12.252  1.3903 -0.7427 -0.3065
21570SOL    HW282321   6.300  13.615  12.125 -0.4049  0.0084  0.3159
21571SOL     OW82322  13.386  11.426   7.612  0.3032 -0.2695 -0.0637
21571SOL    HW182323  13.356  11.352   7.560  1.9051  0.9116 -2.9008
21571SOL    HW282324  13.412  11.387   7.696 -0.9244 -2.5187 -0.6274
21572SOL     OW82325   5.381   2.725   1.576  0.2091  0.4569 -0.4209
21572SOL    HW182326   5.368   2.806   1.626 -0.7188 -1.2557  2.3549
21572SOL    HW282327   5.422   2.665   1.638  1.2922 -1.1333 -2.5243
21573SOL     OW82328   4.592   2.284   9.726  0.4403 -0.3261  0.5542
21573SOL    HW182329   4.673   2.299   9.678  0.3020 -0.2762  0.3350
21573SOL    HW282330   4.576   2.367   9.772  0.5217 -0.3411  0.6088
21574SOL     OW82331   2.909   9.982   3.079 -0.1629 -0.5174 -0.2771
21574SOL    HW182332   2.897   9.888   3.065 -0.8981 -0.1846 -2.2411
21574SOL    HW282333   2.820  10.018   3.073  0.0904  0.2826  0.6402
21575SOL     OW82334   1.855   1.831   7.566  0.1260  0.4464  0.1288
21575SOL    HW182335   1.847   1.751   7.514  1.1319  1.0824 -1.0509
21575SOL    HW282336   1.946   1.831   7.597 -1.1628 -1.6225  4.8732
21576SOL     OW82337   0.240  10.658   3.502  0.5397  0.5548 -0.5063
21576SOL    HW182338   0.169  10.635   3.563  1.4250 -1.3258 -0.1053
21576SOL    HW282339   0.207  10.735   3.455 -0.3338  1.8862  2.0707
21577SOL     OW82340   6.982  11.733   6.785  0.0293  0.1403  0.4390
21577SOL    HW182341   7.018  11.818   6.762 -1.0733  0.3375 -0.6413
21577SOL    HW282342   7.047  11.670   6.753  1.0672  0.5542  1.6553
21578SOL     OW82343   9.607  12.326   4.576  0.3561 -0.0971 -0.3284
21578SOL    HW182344   9.571  12.248   4.618 -0.9621  0.0298 -1.1490
21578SOL    HW282345   9.544  12.395   4.597  1.4051  0.7249  0.2197
21579SOL     OW82346   7.033   9.345   0.820  0.3042 -0.3009 -0.0147
21579SOL    HW182347   7.060   9.260   0.786  0.9198  0.3881 -1.3556
21579SOL    HW282348   6.966   9.376   0.758 -0.7541 -0.2913  1.0981
21580SOL     OW82349  11.234   9.953  13.216  0.1641  0.0169 -0.3543
21580SOL    HW182350  11.244  10.030  13.272 -0.1222 -1.4654  1.9075
21580SOL    HW282351  11.312   9.900  13.234  0.6264 -0.0120 -2.2881
21581SOL     OW82352  13.646   1.528   4.352  0.0768 -0.5914  0.1439
21581SOL    HW182353  13.695   1.607   4.329  0.5052 -0.8310  0.2084
21581SOL    HW282354  13.685   1.499   4.434 -2.2247  0.9202  1.8972
21582SOL     OW82355   3.259   9.116   1.858  0.1151  0.0268  0.1013
21582SOL    HW182356   3.166   9.096   1.873  0.4100 -1.1807  0.4253
21582SOL    HW282357   3.292   9.042   1.807  1.4161 -0.7542  1.9509
21583SOL     OW82358   3.114   2.336  12.895  0.7500 -0.4364 -0.3135
21583SOL    HW182359   3.042   2.373  12.845  2.4517  0.3094 -2.3785
21583SOL    HW282360   3.134   2.402  12.961  0.8731  0.3146 -1.0861
21584SOL     OW82361   2.763   8.673   5.513 -0.2670 -0.1747  0.0681
21584SOL    HW182362   2.748   8.586   5.477 -0.0568  0.1226 -0.7768
21584SOL    HW282363   2.851   8.669   5.550 -0.1426 -0.2369 -0.2341
21585SOL     OW82364   3.294   6.170   9.767  0.3275 -0.1252  0.0139
21585SOL    HW182365   3.320   6.259   9.743 -0.5747  0.1536  0.0055
21585SOL    HW282366   3.271   6.129   9.683 -1.8479  0.5236  0.2102
21586SOL     OW82367   9.965   9.095  12.851 -0.3533 -0.3158  0.1527
21586SOL    HW182368   9.944   9.066  12.940  1.2092 -0.2783  0.5542
21586SOL    HW282369   9.937   9.186  12.849  0.0628 -0.1678  0.7693
21587SOL     OW82370   3.787  11.677   0.744 -0.4727  0.3462  0.3319
21587SOL    HW182371   3.789  11.601   0.802  0.2801  1.1133  1.3452
21587SOL    HW282372   3.702  11.671   0.700 -0.0080 -1.6349 -0.4008
21588SOL     OW82373   9.006   5.359   5.492 -0.1071  0.6296  0.3869
21588SOL    HW182374   8.919   5.339   5.525 -0.2993  1.0877  0.1645
21588SOL    HW282375   9.063   5.294   5.533 -0.9566 -1.6480 -1.7411
21589SOL     OW82376   9.531  12.800   6.133 -0.3850 -0.0444 -0.1326
21589SOL    HW182377   9.495  12.771   6.216  0.4109  0.5487  0.4312
21589SOL    HW282378   9.550  12.893   6.146  1.8329 -0.4296 -0.2065
21590SOL     OW82379  12.968   7.953   5.566 -0.3419 -0.1013 -0.3545
21590SOL    HW182380  13.008   8.035   5.595 -1.8283  0.8944 -1.0076
21590SOL    HW282381  12.969   7.960   5.470 -1.3746 -0.3986 -0.3869
21591SOL     OW82382   5.830   4.561  12.589  0.3193  0.5163  0.0609
21591SOL    HW182383   5.821   4.504  12.665 -1.0291  0.7914  0.1370
21591SOL    HW282384   5.761   4.533  12.529  3.0023 -1.5409 -2.3688
21592SOL     OW82385  12.405  13.633   2.560 -0.0040  0.0534 -0.5122
21592SOL    HW182386  12.419  13.612   2.468  0.5646  0.7368 -0.5889
21592SOL    HW282387  12.376  13.724   2.560 -2.3006 -0.5884 -0.1748
21593SOL     OW82388   1.006   2.001   7.859  0.3157 -0.0209 -0.2051
21593SOL    HW182389   1.034   1.910   7.859 -1.7362 -0.6894 -0.5948
21593SOL    HW282390   0.923   2.002   7.812  0.4237  2.1129 -0.4940
21594SOL     OW82391   2.599   7.775  12.604 -0.3793 -0.6478 -0.2220
21594SOL    HW182392   2.660   7.840  12.569 -2.0995  1.1619 -0.0216
21594SOL    HW282393   2.567   7.728  12.526 -0.6461  0.1438 -0.6020
21595SOL     OW82394  10.665   0.685   3.461  0.1068  0.7586 -0.2307
21595SOL    HW182395  10.632   0.740   3.390 -0.2373  0.2368 -0.4791
21595SOL    HW282396  10.753   0.720   3.479 -1.1891  3.3865  1.7215
21596SOL     OW82397  13.716   2.464   3.685  0.1815 -0.4012 -0.0095
21596SOL    HW182398  13.788   2.469   3.622  0.0369  1.3948 -0.0941
21596SOL    HW282399  13.742   2.524   3.755 -0.8208 -0.4258  0.4004
21597SOL     OW82400   1.611   5.697  12.182 -0.6456  0.7240 -0.2540
21597SOL    HW182401   1.675   5.707  12.112 -0.0043  0.0353  0.2288
21597SOL    HW282402   1.642   5.756  12.251  0.4785 -0.8827  0.6805
21598SOL     OW82403   7.717   9.245  11.680 -0.9823  0.3948 -0.4258
21598SOL    HW182404   7.783   9.252  11.748 -2.2969 -0.1779  0.9629
21598SOL    HW282405   7.756   9.188  11.614 -0.2280 -0.2420  0.5399
21599SOL     OW82406   2.852  13.961  11.759  0.4192  0.1097 -0.1561
21599SOL    HW182407   2.868  13.996  11.847  0.5144 -0.4280  0.0397
21599SOL    HW282408   2.936  13.923  11.732  0.4075  0.3217 -0.5045
21600SOL     OW82409   7.407  10.490   1.102 -0.0511 -0.1989 -0.2803
21600SOL    HW182410   7.495  10.469   1.134  0.0013  1.5702  0.8741
21600SOL    HW282411   7.371  10.406   1.074  1.3507 -1.2389  0.8766
21601SOL     OW82412   8.541   3.552  13.514 -0.1862 -0.6948  0.3178
21601SOL    HW182413   8.550   3.604  13.434  1.8359 -1.6748 -0.1704
21601SOL    HW282414   8.631   3.526  13.536 -0.6403 -0.2752  3.0653
21602SOL     OW82415   1.423   3.228   5.850 -0.0778  0.7948  0.6333
21602SOL    HW182416   1.511   3.216   5.815 -1.6700 -1.1761 -3.3919
21602SOL    HW282417   1.410   3.323   5.852  1.6891  1.0765  0.0062
21603SOL     OW82418  12.626   4.701  13.922  0.3200 -0.0588  0.2266
21603SOL    HW182419  12.601   4.633  13.860 -0.5827  0.7329 -0.3116
21603SOL    HW282420  12.548   4.758  13.928  0.2673 -0.2549  2.2875
21604SOL     OW82421  11.411  12.063   9.561  0.2789  0.2286 -0.0131
21604SOL    HW182422  11.441  12.085   9.473 -0.6415  0.3750 -0.3001
21604SOL    HW282423  11.481  12.008   9.597  0.8560  0.5108 -0.6739
21605SOL     OW82424   0.456  12.786  12.214 -0.3744  0.1807 -0.0515
21605SOL    HW182425   0.443  12.857  12.277 -1.1149 -0.4935  0.5861
21605SOL    HW282426   0.458  12.830  12.128 -1.9824  0.8827  0.2272
21606SOL     OW82427   8.216   3.324   4.708  0.0838  0.1680  0.3688
21606SOL    HW182428   8.127   3.293   4.725 -0.1017  0.0305 -0.7733
21606SOL    HW282429   8.215   3.416   4.735 -0.6984  0.4486 -0.5905
21607SOL     OW82430   9.918  13.983   6.974 -0.7038 -0.8100 -0.0347
21607SOL    HW182431   9.892  14.069   6.942  0.5999 -0.1238  0.6513
21607SOL    HW282432   9.842  13.927   6.957 -2.0304  0.7244  0.5287
21608SOL     OW82433   1.870   5.937  12.788 -0.5505  0.2668  0.1380
21608SOL    HW182434   1.890   5.987  12.868 -2.6577  0.0414  0.8612
21608SOL    HW282435   1.862   5.846  12.818 -1.3828  0.1807 -0.3090
21609SOL     OW82436   8.316  11.145   9.045 -0.2461  0.3100 -0.1166
21609SOL    HW182437   8.338  11.089   9.119 -2.3386  0.7549  0.9336
21609SOL    HW282438   8.400  11.165   9.003  0.7895 -1.4998  0.9858
21610SOL     OW82439   7.186  12.132   6.938 -0.1895 -0.0338 -0.5399
21610SOL    HW182440   7.224  12.044   6.933  0.7377  0.3311 -0.1112
21610SOL    HW282441   7.261  12.190   6.949 -0.8441  0.7548 -0.1349
21611SOL     OW82442   2.802   9.159  13.459  1.0302 -0.3265 -0.3765
21611SOL    HW182443   2.743   9.140  13.387  0.5832 -0.0806 -0.0786
21611SOL    HW282444   2.745   9.170  13.535  1.3833  0.6814 -0.2420
21612SOL     OW82445  12.539  11.996   6.304  0.0112  0.3159 -0.4912
21612SOL    HW182446  12.528  11.927   6.369  1.0606 -0.7445 -1.3987
21612SOL    HW282447  12.626  11.982   6.268 -0.0686  1.6352 -1.2714
21613SOL     OW82448   6.193   6.537   5.898 -0.1881  0.3486 -0.4521
21613SOL    HW182449   6.187   6.566   5.807 -1.4790  0.5548 -0.3212
21613SOL    HW282450   6.105   6.505   5.919 -0.4057  1.9217  1.2545
21614SOL     OW82451  11.139   6.830   4.599  0.6134  0.2589  0.2617
21614SOL    HW182452  11.209   6.782   4.556  2.3394  2.1317  0.8392
21614SOL    HW282453  11.090   6.871   4.528  0.4089 -0.6131 -0.1123
21615SOL     OW82454  10.040   7.385   9.866 -0.3306  0.1179 -0.4732
21615SOL    HW182455  10.059   7.456   9.927  1.5399 -0.5567 -0.1875
21615SOL    HW282456  10.002   7.316   9.921  2.8675 -1.1288  0.3791
21616SOL     OW82457   3.791   6.538  10.981  0.2756 -0.2593  0.0299
21616SOL    HW182458   3.821   6.605  10.919 -1.2060 -1.3292 -1.9785
21616SOL    HW282459   3.700   6.522  10.956  0.0031 -1.6490  1.7171
21617SOL     OW82460   5.488   4.585   5.778  1.0484 -0.4185 -0.1638
21617SOL    HW182461   5.562   4.543   5.734  0.7385 -1.2317  0.0645
21617SOL    HW282462   5.466   4.525   5.849  1.1526  0.5813  0.7322
21618SOL     OW82463   7.237   2.793  12.047 -0.3793  0.4308  0.4164
21618SOL    HW182464   7.231   2.745  11.964  1.1995  1.2693 -0.2284
21618SOL    HW282465   7.235   2.885  12.021 -3.4264  0.8341  1.6238
21619SOL     OW82466  10.561   2.287   5.534  0.4263 -0.0331  0.4914
21619SOL    HW182467  10.638   2.342   5.546 -0.2665  0.6785  1.8585
21619SOL    HW282468  10.568   2.256   5.444  0.2178  3.2989 -0.8177
21620SOL     OW82469   4.051   7.358   5.365 -0.5196 -0.2889  0.6246
21620SOL    HW182470   4.143   7.351   5.389 -0.2336 -0.7232 -0.5673
21620SOL    HW282471   4.004   7.340   5.447  0.4236 -1.2466  0.9804
21621SOL     OW82472  10.843  10.084   5.171  0.2634  0.3899  0.3214
21621SOL    HW182473  10.780  10.014   5.154  0.6364  0.1342 -0.0316
21621SOL    HW282474  10.791  10.165   5.169 -0.0134  0.2006 -0.2217
21622SOL     OW82475   1.717  12.130  13.605  0.2916 -0.5533 -0.6321
21622SOL    HW182476   1.786  12.167  13.549 -0.0156  1.4050  0.2028
21622SOL    HW282477   1.737  12.163  13.692 -2.3169  1.0947 -0.5602
21623SOL     OW82478  10.091   7.362   2.748  0.1436  0.1263 -0.1066
21623SOL    HW182479  10.185   7.347   2.746  0.1237 -0.0189  0.0138
21623SOL    HW282480  10.076   7.405   2.832  0.1917  0.7744 -0.4248
21624SOL     OW82481   6.144  13.450   4.982  0.6361  0.6766  0.1350
21624SOL    HW182482   6.049  13.454   4.984  0.5111  1.2110 -2.6437
21624SOL    HW282483   6.165  13.357   4.983  0.0565  0.5476  0.2319
21625SOL     OW82484   4.945  11.714   5.787 -0.1272  0.5398  0.3753
21625SOL    HW182485   4.881  11.773   5.746 -1.7869 -1.0170  0.5550
21625SOL    HW282486   5.008  11.694   5.718 -0.5758  1.1297 -0.2108
21626SOL     OW82487   6.318   7.289   4.184 -0.3278 -0.0050 -0.0416
21626SOL    HW182488   6.256   7.346   4.231 -1.2757 -0.9771 -0.0814
21626SOL    HW282489   6.377   7.350   4.140 -2.4323  1.0706 -1.5956
21627SOL     OW82490   3.904  13.969   6.949  0.5260  0.5092 -0.1576
21627SOL    HW182491   3.835  13.989   6.886  1.4242  0.7168 -1.1226
21627SOL    HW282492   3.980  13.948   6.894  1.3892  0.8583  0.8695
21628SOL     OW82493   2.797  10.788   2.681  0.1687 -0.1545  0.2310
21628SOL    HW182494   2.869  10.851   2.671 -0.9767  0.9910 -1.3129
21628SOL    HW282495   2.823  10.714   2.626 -0.4337  0.8822 -1.5423
21629SOL     OW82496   0.531   1.609  11.003  0.5292  0.6499  0.6908
21629SOL    HW182497   0.450   1.560  11.017 -0.0577  1.2613 -0.4603
21629SOL    HW282498   0.600   1.544  11.014 -0.2989 -1.4982 -4.3024
21630SOL     OW82499  11.818   8.651   7.213  0.5518  0.1620 -0.0223
21630SOL    HW182500  11.908   8.684   7.210  0.5140  0.2752  0.0935
21630SOL    HW282501  11.827   8.557   7.198  0.6178  0.2904 -0.8717
21631SOL     OW82502  12.461  10.057   8.529  0.4058 -0.1470 -0.4333
21631SOL    HW182503  12.399  10.009   8.585  0.4091 -1.8892 -1.8324
21631SOL    HW282504  12.530  10.086   8.589 -0.0867 -1.0784  0.6330
21632SOL     OW82505   0.550  12.900   2.461 -0.0282 -0.8640 -0.0476
21632SOL    HW182506   0.456  12.888   2.451 -0.2441 -0.0536  0.8932
21632SOL    HW282507   0.583  12.813   2.485 -0.4696 -1.2306 -0.7467
21633SOL     OW82508  10.410   4.601   9.926 -0.1977  0.7408  0.1572
21633SOL    HW182509  10.327   4.560   9.901  0.1710 -0.7787  1.2669
21633SOL    HW282510  10.447   4.632   9.843 -0.4147 -1.4110 -0.8187
21634SOL     OW82511  12.413   5.527   5.642  0.4471 -0.0878  0.4915
21634SOL    HW182512  12.502   5.500   5.665  0.2720 -2.9854 -1.6412
21634SOL    HW282513  12.363   5.518   5.722  1.4832 -1.4299  1.0144
21635SOL     OW82514  12.994   1.688   3.504 -0.2120  0.3060 -0.0290
21635SOL    HW182515  12.966   1.712   3.592  1.0184 -0.2652  0.5363
21635SOL    HW282516  12.961   1.759   3.449  0.2860  1.4655  1.1051
21636SOL     OW82517  13.740  10.028   3.646  0.4202 -0.1735 -0.5539
21636SOL    HW182518  13.720  10.018   3.553 -2.3718 -0.4519 -0.0072
21636SOL    HW282519  13.727   9.941   3.684  2.4263 -0.2761 -0.0094
21637SOL     OW82520   8.095  12.803  13.498  0.0015 -0.1386 -0.2530
21637SOL    HW182521   8.120  12.813  13.589  0.7680  0.6845 -0.5418
21637SOL    HW282522   8.040  12.724  13.497  0.7394 -0.6947  0.7627
21638SOL     OW82523   9.478   1.485   9.760 -0.0785  0.1925  0.1722
21638SOL    HW182524   9.473   1.394   9.731  2.0396 -0.1795  0.8372
21638SOL    HW282525   9.505   1.480   9.852 -0.0742  1.4890  0.2592
21639SOL     OW82526   2.937   9.417   1.208 -0.2919  0.3215 -0.0248
21639SOL    HW182527   2.854   9.441   1.248 -1.5836  1.3642 -3.0406
21639SOL    HW282528   2.919   9.414   1.114  3.2844  1.5197 -0.9249
21640SOL     OW82529   6.216   9.690   1.527  0.6508  0.0439 -0.4636
21640SOL    HW182530   6.183   9.612   1.483  1.6983 -0.5884 -0.1687
21640SOL    HW282531   6.288   9.658   1.581 -0.0774  0.9263  1.0997
21641SOL     OW82532   3.427  10.926   3.449 -0.2070 -0.4808 -0.4326
21641SOL    HW182533   3.516  10.894   3.464 -0.7504 -1.6162  0.5010
21641SOL    HW282534   3.386  10.925   3.535 -0.9740  0.5573 -0.7658
21642SOL     OW82535   6.480  10.682   4.458  0.1953 -0.2472  0.6086
21642SOL    HW182536   6.415  10.752   4.452 -0.2751 -0.6860  0.5363
21642SOL    HW282537   6.429  10.603   4.474  0.6666 -0.7004 -0.0986
21643SOL     OW82538   6.110   9.237   2.392 -0.5313 -0.9399 -0.1646
21643SOL    HW182539   6.129   9.184   2.314  0.2610  0.2791 -0.8372
21643SOL    HW282540   6.192   9.280   2.412 -0.7853 -1.0648  1.2502
21644SOL     OW82541   0.972   5.817   4.488 -0.2069  0.5206 -0.4281
21644SOL    HW182542   0.982   5.722   4.495 -1.9805  0.2936 -0.4835
21644SOL    HW282543   0.916   5.840   4.563 -1.9712  1.1103 -1.8554
21645SOL     OW82544   6.013  13.965  12.380 -0.1343  0.2455  0.0816
21645SOL    HW182545   5.990  13.873  12.371  1.1644 -0.1198  0.2701
21645SOL    HW282546   5.999  13.985  12.472  0.2859  0.0250  0.1957
21646SOL     OW82547   4.300   4.903   7.874 -0.0914 -0.3066  0.7295
21646SOL    HW182548   4.334   4.992   7.880  0.3556 -0.5326  1.8241
21646SOL    HW282549   4.213   4.907   7.913 -0.4074 -0.1943  0.0295
21647SOL     OW82550   2.984  13.245   0.958 -0.1597 -0.0704 -0.1518
21647SOL    HW182551   3.017  13.321   0.911 -0.9814  0.4163  0.0504
21647SOL    HW282552   3.059  13.184   0.959  0.7685  1.0445  0.4116
21648SOL     OW82553  11.091   9.098   3.769 -0.6673  0.3931  0.1249
21648SOL    HW182554  11.105   9.073   3.678 -0.0245  0.9441  0.0734
21648SOL    HW282555  11.014   9.155   3.767 -1.4739 -0.6606  0.1062
21649SOL     OW82556   4.672   1.310   9.045  0.0438 -0.0009 -0.6924
21649SOL    HW182557   4.750   1.357   9.016  0.2176  0.9699  1.2224
21649SOL    HW282558   4.603   1.338   8.985  1.0200 -0.4584 -2.0736
21650SOL     OW82559  10.166   9.715  12.525 -0.5644  0.1269  0.4451
21650SOL    HW182560  10.123   9.675  12.600 -1.8348  0.4103 -0.1119
21650SOL    HW282561  10.115   9.687  12.450  0.7802 -0.2703 -0.3530
21651SOL     OW82562   5.039   5.480   1.582  0.3159 -0.0516 -0.1604
21651SOL    HW182563   5.119   5.470   1.633  1.3073  0.1860 -1.6023
21651SOL    HW282564   4.972   5.433   1.632  1.4075 -0.4636  0.9534
21652SOL     OW82565   5.333   2.195   3.034 -0.2506  0.3174 -0.0917
21652SOL    HW182566   5.318   2.174   3.127  1.9608 -2.0890 -0.1735
21652SOL    HW282567   5.246   2.188   2.994 -0.9272 -0.6896  1.4526
21653SOL     OW82568   8.078   6.308   7.842 -0.4381  0.5121 -0.2891
21653SOL    HW182569   8.068   6.229   7.895 -1.8333  1.0606  0.3161
21653SOL    HW282570   8.158   6.350   7.874 -0.0118 -0.3347 -0.2171
21654SOL     OW82571   2.623  12.036  12.119  0.0824  0.3873 -0.1030
21654SOL    HW182572   2.703  12.083  12.144  1.3416 -1.2684 -0.8514
21654SOL    HW282573   2.588  12.004  12.202  0.8716  0.0920  0.1249
21655SOL     OW82574   1.079   6.770  12.610 -0.5756 -0.6205 -0.1964
21655SOL    HW182575   0.996   6.795  12.571  0.1804  1.5511 -0.5422
21655SOL    HW282576   1.145   6.796  12.545  0.4446 -1.2191  0.5697
21656SOL     OW82577  10.515   5.272   2.135  0.0879  0.4512  0.6758
21656SOL    HW182578  10.611   5.264   2.135  0.0732  0.2747  1.0926
21656SOL    HW282579  10.484   5.187   2.166 -0.2475  0.0721 -0.6126
21657SOL     OW82580  10.546   0.548   3.043  0.0370 -0.4737  0.4050
21657SOL    HW182581  10.463   0.594   3.027 -0.1989 -0.3134  1.9665
21657SOL    HW282582  10.583   0.536   2.956 -0.9189  0.7844 -0.2184
21658SOL     OW82583   2.618   2.098   8.656  0.1212 -0.2303  0.0987
21658SOL    HW182584   2.625   2.048   8.737 -0.7905  0.1291  0.4096
21658SOL    HW282585   2.709   2.111   8.628  0.4554 -0.2390  1.1396
21659SOL     OW82586   1.427  13.749   6.646 -0.5406  0.6746  0.2851
21659SOL    HW182587   1.392  13.673   6.693 -0.4835  0.5556  0.1346
21659SOL    HW282588   1.370  13.821   6.672 -2.0967  0.1238 -1.4010
21660SOL     OW82589  12.283   6.632  11.788  0.3183 -0.4386  0.0470
21660SOL    HW182590  12.218   6.564  11.806 -1.1597  0.6767 -0.8596
21660SOL    HW282591  12.336   6.597  11.717  0.1856 -1.0395  0.2432
21661SOL     OW82592   9.222   1.092   9.359 -0.3940  0.5733  0.0224
21661SOL    HW182593   9.292   1.115   9.297  0.6159 -0.1538  0.8382
21661SOL    HW282594   9.229   0.997   9.367 -1.2471  0.5399  0.4122
21662SOL     OW82595   5.218  11.175   2.045  0.6004 -0.4795 -0.4041
21662SOL    HW182596   5.267  11.145   2.121 -0.3580 -1.7770 -0.2516
21662SOL    HW282597   5.178  11.095   2.009 -0.4319  0.3556 -1.1978
21663SOL     OW82598  14.043   5.409   6.551  0.0875 -0.1985 -0.5103
21663SOL    HW182599  14.082   5.458   6.622 -0.1172 -1.6925  0.6813
21663SOL    HW282600  14.032   5.473   6.480 -2.2139  2.0380  1.6672
21664SOL     OW82601  12.232  12.290   2.689  0.6660 -0.5811 -0.0742
21664SOL    HW182602  12.320  12.312   2.659  0.5053  1.2380  0.6957
21664SOL    HW282603  12.239  12.287   2.785  0.1310 -1.6376 -0.0460
21665SOL     OW82604  13.835  12.942   8.968 -0.3393 -0.4094  0.5756
21665SOL    HW182605  13.776  12.875   9.002 -0.3816 -0.8940 -0.4236
21665SOL    HW282606  13.901  12.953   9.036 -0.1107 -1.7508  0.5841
21666SOL     OW82607   1.090   7.448   4.940 -0.1881 -0.2086 -0.6325
21666SOL    HW182608   1.061   7.536   4.915  0.9260  0.2253 -0.4429
21666SOL    HW282609   1.017   7.391   4.915 -1.1007  0.8137 -0.3606
21667SOL     OW82610   1.541  11.105   1.618 -0.0503  0.6468  0.0452
21667SOL    HW182611   1.465  11.091   1.674  0.5876  0.1157  0.8002
21667SOL    HW282612   1.552  11.022   1.572  0.6072  0.4038  0.6216
21668SOL     OW82613  10.441   3.646  11.462 -0.6729 -0.3485  0.2001
21668SOL    HW182614  10.362   3.591  11.473 -1.2010  0.2570 -0.4938
21668SOL    HW282615  10.507   3.602  11.515 -1.4666 -0.8957  0.7744
21669SOL     OW82616   6.261   0.787  12.110 -0.9149  0.3734  0.8824
21669SOL    HW182617   6.332   0.751  12.163 -1.2265  0.5765  1.4412
21669SOL    HW282618   6.286   0.878  12.094 -1.2008  0.5373  1.3515
21670SOL     OW82619  13.386  11.378   7.130  0.5013  0.1430 -0.5090
21670SOL    HW182620  13.457  11.375   7.065  2.1780  0.7075  1.2001
21670SOL    HW282621  13.388  11.292   7.172 -1.1246 -0.5195 -1.6915
21671SOL     OW82622   8.576   2.293   4.291 -0.0122 -0.1950 -0.0653
21671SOL    HW182623   8.546   2.227   4.228 -1.2752  2.0993 -2.0545
21671SOL    HW282624   8.512   2.364   4.283  1.1866  1.2298  2.0845
21672SOL     OW82625   9.336   4.245   6.330 -0.2959  0.4299  0.4048
21672SOL    HW182626   9.358   4.253   6.237 -0.9581  0.8943  0.2771
21672SOL    HW282627   9.300   4.157   6.339  1.7318 -0.4361  0.6620
21673SOL     OW82628   9.969   4.322   3.773  0.2034 -0.2454 -0.3181
21673SOL    HW182629  10.013   4.289   3.851  0.1235 -0.0939 -0.2091
21673SOL    HW282630   9.877   4.325   3.796  0.3192  1.0940  0.0560
21674SOL     OW82631   2.447   6.827   8.532  0.0933 -0.5308  0.4209
21674SOL    HW182632   2.434   6.798   8.623  0.8334  1.0113  1.0594
21674SOL    HW282633   2.474   6.918   8.540 -0.5765 -0.1312 -1.4062
21675SOL     OW82634  11.663   8.205   9.697 -0.1830 -0.0022 -0.1168
21675SOL    HW182635  11.708   8.234   9.777 -2.4026  1.4169  0.7139
21675SOL    HW282636  11.583   8.163   9.729 -0.6496 -0.2587 -1.5652
21676SOL     OW82637  11.177  13.995   3.253 -0.1439  0.4334 -0.2047
21676SOL    HW182638  11.175  13.911   3.207  0.6355  1.4570 -2.2270
21676SOL    HW282639  11.104  13.990   3.315 -1.1096 -1.1186 -1.3822
21677SOL     OW82640   4.484   9.318   1.043  0.4304  0.0440  0.7094
21677SOL    HW182641   4.551   9.250   1.038  0.6287  0.1965  1.2336
21677SOL    HW282642   4.420   9.285   1.105 -0.7113 -0.7182 -0.8236
21678SOL     OW82643  13.378  12.566  10.784 -0.6044  0.2736 -0.3189
21678SOL    HW182644  13.368  12.485  10.834 -0.6916  0.2805 -0.3239
21678SOL    HW282645  13.390  12.635  10.850 -0.0836  0.1939 -0.3327
21679SOL     OW82646   3.785   9.381   5.656 -0.5159  0.6204 -0.0533
21679SOL    HW182647   3.795   9.332   5.738  1.1752  1.3928  0.2663
21679SOL    HW282648   3.863   9.436   5.652 -0.2002  0.1346 -2.5246
21680SOL     OW82649   6.337   3.570  13.019 -0.3674 -0.4867 -0.1388
21680SOL    HW182650   6.242   3.578  13.026 -0.6517 -1.9962 -1.7093
21680SOL    HW282651   6.355   3.570  12.925  1.3480  1.1366  0.1270
21681SOL     OW82652   1.104   1.866   9.525 -0.3369 -0.0869  0.7902
21681SOL    HW182653   1.176   1.825   9.478 -1.8525 -2.5332  0.4079
21681SOL    HW282654   1.140   1.885   9.612  0.5682 -2.0238  0.8904
21682SOL     OW82655   9.322   4.610  13.048 -0.2343  0.0635  0.0225
21682SOL    HW182656   9.374   4.548  13.098  0.5142 -0.4808 -1.4117
21682SOL    HW282657   9.255   4.557  13.005 -2.7120  0.8413  2.5996
21683SOL     OW82658   8.491   1.069   9.388 -0.5201  0.0759  1.1193
21683SOL    HW182659   8.557   1.004   9.411 -0.8175 -0.5308  0.3072
21683SOL    HW282660   8.508   1.091   9.296 -2.0188 -0.8428  0.5701
21684SOL     OW82661   8.912   7.320  12.931  0.0817  0.8065 -0.5862
21684SOL    HW182662   8.841   7.276  12.978 -1.5162  3.5897 -0.2004
21684SOL    HW282663   8.978   7.251  12.918 -1.6504 -1.3296  1.0935
21685SOL     OW82664   9.513   2.506  11.493 -0.0267  0.4209  0.5656
21685SOL    HW182665   9.584   2.555  11.451 -0.6262  0.2251 -0.7454
21685SOL    HW282666   9.539   2.499  11.585  1.6757  0.2919  0.1050
21686SOL     OW82667   1.555   8.190   3.818 -0.0867 -0.6084 -0.0794
21686SOL    HW182668   1.606   8.122   3.773 -1.7860 -1.6577 -0.4987
21686SOL    HW282669   1.563   8.267   3.762 -0.7903 -1.4171 -1.3260
21687SOL     OW82670   9.423  13.723   3.096  0.3005 -0.3005 -0.3189
21687SOL    HW182671   9.402  13.804   3.049 -1.2829  0.1029  0.9948
21687SOL    HW282672   9.492  13.749   3.158 -0.8854  0.3488  0.7908
21688SOL     OW82673   5.354   1.796   4.629 -0.1681 -0.2560 -0.2068
21688SOL    HW182674   5.403   1.774   4.550  0.4656  2.1019 -0.5325
21688SOL    HW282675   5.405   1.759   4.701  0.3212 -0.6670 -0.7610
21689SOL     OW82676   5.079   1.586   2.867  0.3454  0.3373  0.3125
21689SOL    HW182677   5.034   1.589   2.952 -0.5002 -0.1619 -0.0945
21689SOL    HW282678   5.168   1.616   2.885  0.2133  0.1214  1.4006
21690SOL     OW82679   5.949   0.850   0.883 -0.6803  0.3950  0.2494
21690SOL    HW182680   5.907   0.915   0.826 -1.4565 -0.1355  0.2087
21690SOL    HW282681   5.877   0.814   0.935 -0.1334  0.1289  0.8304
21691SOL     OW82682   4.840   4.140   4.708 -0.4025 -0.4685  0.1766
21691SOL    HW182683   4.907   4.117   4.773  0.7415  0.0802 -0.7616
21691SOL    HW282684   4.822   4.233   4.724  0.9716  0.0757 -1.1732
21692SOL     OW82685  10.688   2.576  12.481  0.1331 -0.0468 -0.4486
21692SOL    HW182686  10.770   2.528  12.492 -0.1500 -0.7239 -1.1417
21692SOL    HW282687  10.672   2.573  12.386 -1.1579 -0.7332 -0.2286
21693SOL     OW82688   3.535   1.824   2.674 -0.5908 -0.6462 -0.0769
21693SOL    HW182689   3.588   1.904   2.676 -0.9436 -0.4013  1.6113
21693SOL    HW282690   3.553   1.784   2.589  1.1372  0.2108 -0.1524
21694SOL     OW82691   2.403   0.086  13.311  0.7868  0.1691 -0.4058
21694SOL    HW182692   2.444   0.119  13.390 -0.6327  0.0755  0.4104
21694SOL    HW282693   2.475   0.049  13.260  2.2484  3.0291 -0.6525
21695SOL     OW82694   4.746  10.601  10.273  0.0978  0.6019 -0.1535
21695SOL    HW182695   4.699  10.682  10.254 -0.1933  0.4827  0.0493
21695SOL    HW282696   4.838  10.627  10.274  0.1540  0.5621 -1.9616
21696SOL     OW82697   6.627   1.504   1.090  0.0520 -0.0969  0.2592
21696SOL    HW182698   6.647   1.432   1.151  0.1874 -0.5115 -0.2641
21696SOL    HW282699   6.549   1.546   1.127  0.4309 -0.0199  0.9907
21697SOL     OW82700  12.150   5.133   8.005  0.5529 -0.6633 -0.3816
21697SOL    HW182701  12.218   5.191   8.041  0.0452  1.5634 -2.7377
21697SOL    HW282702  12.199   5.058   7.971  1.6214 -0.0103 -0.3414
21698SOL     OW82703   8.045   1.958  13.958  0.0068 -0.0641 -0.0865
21698SOL    HW182704   8.032   2.051  13.976 -2.5519 -0.4191  0.2293
21698SOL    HW282705   8.099   1.956  13.879 -0.5637  1.7306 -0.5619
21699SOL     OW82706   1.175   5.584   8.720  0.1717  0.0277  0.1775
21699SOL    HW182707   1.178   5.491   8.743  0.1053  0.3488  1.5773
21699SOL    HW282708   1.260   5.618   8.748  0.9078  0.0785 -1.9129
21700SOL     OW82709   4.159   8.749  13.286 -0.6529  0.0472  0.1898
21700SOL    HW182710   4.221   8.819  13.263 -1.0801  0.0682 -0.9499
21700SOL    HW282711   4.088   8.793  13.331 -1.4118  0.5294 -1.4202
21701SOL     OW82712   5.178   1.271  10.922  0.0101  0.3189  0.0554
21701SOL    HW182713   5.182   1.183  10.885 -0.0959  0.8172 -1.1671
21701SOL    HW282714   5.103   1.312  10.879  0.5728  1.2886 -0.0237
21702SOL     OW82715   5.697   3.807   0.738 -0.1472  1.0842 -0.2425
21702SOL    HW182716   5.671   3.870   0.670 -2.2653 -0.4155 -0.9066
21702SOL    HW282717   5.617   3.761   0.760  0.6352  0.9969  2.8219
21703SOL     OW82718  11.724   4.111   0.579  0.5122 -0.0801 -0.1966
21703SOL    HW182719  11.761   4.178   0.636  0.4843 -0.8072  0.6813
21703SOL    HW282720  11.784   4.107   0.504  1.1052  0.1496  0.2640
21704SOL     OW82721   0.774   0.205   9.344 -0.0683  0.4640 -0.6203
21704SOL    HW182722   0.745   0.296   9.340 -0.1160  0.4517 -0.5544
21704SOL    HW282723   0.810   0.196   9.432  0.1927  0.4967 -0.7247
21705SOL     OW82724  13.177   4.167  11.669 -0.6909 -0.4397  0.1595
21705SOL    HW182725  13.145   4.106  11.736  0.9793 -1.0077  0.4986
21705SOL    HW282726  13.250   4.120  11.627  1.0212  1.5044  0.8010
21706SOL     OW82727   9.096  12.480   3.567 -0.4351 -0.0134 -0.1350
21706SOL    HW182728   9.086  12.393   3.528  0.8751 -0.4926  0.5314
21706SOL    HW282729   9.130  12.464   3.655 -0.9939  1.1479  0.3113
21707SOL     OW82730  13.179   5.466  13.275  0.4389 -0.0941 -0.7288
21707SOL    HW182731  13.130   5.548  13.270 -0.9308 -0.8013  0.2672
21707SOL    HW282732  13.243   5.472  13.204  0.8234  2.0937 -0.2752
21708SOL     OW82733   2.173  13.879   9.718 -0.5814 -0.3883  0.3410
21708SOL    HW182734   2.177  13.813   9.648  1.1560  0.4197 -0.3901
21708SOL    HW282735   2.260  13.920   9.716 -1.1587  0.9583  1.7221
21709SOL     OW82736   3.674  12.884   2.458  0.5315 -0.0996 -0.9067
21709SOL    HW182737   3.692  12.809   2.515 -0.7857 -0.0344 -0.3594
21709SOL    HW282738   3.650  12.954   2.519  0.6356  0.4426 -1.4791
21710SOL     OW82739  10.847   1.024   7.089 -0.3875 -0.3454  0.5454
21710SOL    HW182740  10.803   0.971   7.023  1.2416 -1.2994  0.1831
21710SOL    HW282741  10.905   1.081   7.040 -0.8140  0.5517  1.0473
21711SOL     OW82742  10.002   8.786   2.819 -0.2905  0.4180  0.2698
21711SOL    HW182743  10.064   8.738   2.764 -1.6362 -2.2211  0.8809
21711SOL    HW282744   9.925   8.800   2.763 -1.1739 -1.1600  1.0243
21712SOL     OW82745  12.724   5.526   6.066  0.7502 -0.3227 -0.1029
21712SOL    HW182746  12.711   5.445   6.115  0.8546 -0.8741 -0.9768
21712SOL    HW282747  12.805   5.562   6.102  1.9347 -1.7448 -1.2131
21713SOL     OW82748   6.156   9.604   4.535  0.4456  0.2342  0.4892
21713SOL    HW182749   6.169   9.538   4.603 -1.3116  0.0214  0.6620
21713SOL    HW282750   6.137   9.553   4.456  1.1072  0.5123  0.1382
21714SOL     OW82751   1.419  13.659   0.570 -0.0214 -0.1020  0.1023
21714SOL    HW182752   1.345  13.710   0.536  0.7125  0.8710 -0.0869
21714SOL    HW282753   1.461  13.718   0.633  0.9294 -0.4214 -0.2277
21715SOL     OW82754   2.774   5.480   9.516  0.0634  0.5862  0.9258
21715SOL    HW182755   2.795   5.570   9.489 -1.5789  0.7265 -0.0067
21715SOL    HW282756   2.830   5.464   9.592  4.7861  0.3219 -2.1529
21716SOL     OW82757  11.476   8.552   9.342  0.3213 -0.0427  0.0313
21716SOL    HW182758  11.411   8.528   9.277 -0.5901  1.7780  0.1956
21716SOL    HW282759  11.525   8.472   9.358 -2.0729 -1.5905  0.1278
21717SOL     OW82760   9.780   7.854   8.311  0.0312  0.3361  0.3196
21717SOL    HW182761   9.871   7.848   8.281  0.2571 -0.3368  1.0838
21717SOL    HW282762   9.778   7.931   8.368 -0.1170  0.9207 -0.4674
21718SOL     OW82763   1.648  10.854  12.930 -0.0566 -0.0462  0.0489
21718SOL    HW182764   1.555  10.867  12.947 -0.1390 -0.2133 -0.2651
21718SOL    HW282765   1.652  10.822  12.840  0.2084 -1.1192  0.4211
21719SOL     OW82766  13.546   0.467   5.051  0.5036  0.1648  0.3584
21719SOL    HW182767  13.468   0.442   5.001  0.5102  1.3171 -0.2689
21719SOL    HW282768  13.619   0.446   4.993  0.6298 -0.3819  0.7142
21720SOL     OW82769   6.346   8.302   9.006 -0.2591  0.0218 -0.5609
21720SOL    HW182770   6.335   8.354   8.927 -1.4903 -0.1148 -0.5046
21720SOL    HW282771   6.272   8.241   9.006  0.9068 -1.4657 -0.4069
21721SOL     OW82772   5.943   4.619   5.340  0.2401  0.5614 -0.3543
21721SOL    HW182773   5.920   4.712   5.348 -0.5691  0.5155 -1.8118
21721SOL    HW282774   5.954   4.589   5.430 -0.7903  1.7598  0.1978
21722SOL     OW82775   3.163   8.702  11.570 -0.0460 -0.7525  0.1144
21722SOL    HW182776   3.128   8.691  11.659 -0.2465  0.2063  0.1680
21722SOL    HW282777   3.111   8.641  11.517 -0.7918 -0.4301  0.4515
21723SOL     OW82778   4.033  13.190  10.153 -0.1156 -0.2142  0.5967
21723SOL    HW182779   4.095  13.248  10.107 -1.6954  0.9778 -0.1351
21723SOL    HW282780   4.020  13.232  10.238 -0.2230 -0.2304  0.5882
21724SOL     OW82781   7.759   5.199  12.685 -0.3508  0.2839 -0.2941
21724SOL    HW182782   7.732   5.135  12.619 -2.9418 -2.5956  3.1970
21724SOL    HW282783   7.678   5.223  12.730  1.3751  1.2189  2.5713
21725SOL     OW82784   2.219   6.668  12.339 -0.1552 -0.2026 -0.5124
21725SOL    HW182785   2.304   6.691  12.301 -0.6309  0.6456 -1.0841
21725SOL    HW282786   2.163   6.743  12.321 -0.5822 -0.0291  1.3141
21726SOL     OW82787   3.598  12.522   0.165  0.2515  0.3895  0.0750
21726SOL    HW182788   3.673  12.530   0.107  0.3208  0.0539  0.1159
21726SOL    HW282789   3.523  12.512   0.106  0.0687  2.0013  0.0068
21727SOL     OW82790   0.809   2.742   6.987  0.3380  0.3289 -0.0346
21727SOL    HW182791   0.761   2.672   6.943 -1.0554  0.2570  1.5185
21727SOL    HW282792   0.779   2.822   6.945  0.7155  0.1131 -0.7238
21728SOL     OW82793   2.283   1.017   2.001  0.2731  0.0093  1.1386
21728SOL    HW182794   2.246   0.929   1.992  1.1779 -0.4058  1.3277
21728SOL    HW282795   2.308   1.022   2.093  2.6296 -0.5521  0.6026
21729SOL     OW82796   3.910   4.536   8.449 -0.1165  0.2607  0.1952
21729SOL    HW182797   3.896   4.628   8.428 -1.4367 -0.2345 -1.3129
21729SOL    HW282798   3.998   4.533   8.488  0.0994  2.0849 -0.0663
21730SOL     OW82799  12.442  13.063   2.560  0.1407  0.3835  0.2314
21730SOL    HW182800  12.468  13.083   2.470  2.2210 -0.9174  0.4730
21730SOL    HW282801  12.358  13.017   2.551 -0.2231  1.2222 -0.9304
21731SOL     OW82802   3.638   9.793   6.578 -0.2872  0.2233 -0.4041
21731SOL    HW182803   3.711   9.771   6.520 -0.4415 -0.4213 -0.3606
21731SOL    HW282804   3.646   9.732   6.651 -0.3865  0.7005  0.0092
21732SOL     OW82805   4.091   5.260   6.855  0.1721  0.4422  0.0043
21732SOL    HW182806   4.182   5.238   6.835  0.3471  1.2980 -0.1837
21732SOL    HW282807   4.041   5.225   6.781  0.2638 -0.6260  0.4381
21733SOL     OW82808   3.260  10.908   8.217 -0.0800  0.0035 -0.0154
21733SOL    HW182809   3.221  10.929   8.302 -0.3256  0.6365 -0.2744
21733SOL    HW282810   3.260  10.813   8.213  1.3968 -0.0826  1.3587
21734SOL     OW82811   6.250   3.694  11.119 -0.3254 -0.4143  0.1440
21734SOL    HW182812   6.184   3.762  11.126 -0.3089  0.1516 -3.5232
21734SOL    HW282813   6.333   3.740  11.131 -0.2564  0.5795 -3.1696
21735SOL     OW82814   7.024   3.666   3.207  0.4209  0.0332  0.0218
21735SOL    HW182815   7.086   3.701   3.271  0.5642  0.6987 -0.4623
21735SOL    HW282816   7.053   3.576   3.193  2.0672  0.6697 -1.0849
21736SOL     OW82817   5.836   8.953   6.092 -0.6762 -0.0749  0.0443
21736SOL    HW182818   5.890   8.904   6.030 -2.1029  0.6496 -1.8408
21736SOL    HW282819   5.893   9.023   6.123 -0.0705 -0.2020 -0.7590
21737SOL     OW82820   7.208  13.812   5.227 -0.9000  0.3412  0.5815
21737SOL    HW182821   7.304  13.809   5.230 -0.9368 -0.1722  2.8009
21737SOL    HW282822   7.181  13.798   5.318 -3.0835  0.8046  0.0480
21738SOL     OW82823   6.449  13.522   2.811  0.0010  0.1469 -0.0007
21738SOL    HW182824   6.377  13.459   2.811  0.0665  0.0727 -0.2239
21738SOL    HW282825   6.490  13.510   2.897 -0.0390 -0.0544 -0.0081
21739SOL     OW82826   7.870   4.156  11.946 -0.1949 -0.0518 -0.0896
21739SOL    HW182827   7.960   4.175  11.923  0.1198 -1.0147  0.2972
21739SOL    HW282828   7.875   4.110  12.029 -1.1483  1.1234  0.6581
21740SOL     OW82829   0.884   9.633  11.927  0.0231  0.2540 -0.5464
21740SOL    HW182830   0.920   9.684  12.000 -0.8704  1.0108 -0.6107
21740SOL    HW282831   0.860   9.549  11.966 -0.2008  0.5571 -0.0093
21741SOL     OW82832   6.628   4.946   0.232 -0.1927 -0.2510  0.6116
21741SOL    HW182833   6.722   4.927   0.231 -0.6569 -2.9508 -0.3290
21741SOL    HW282834   6.618   5.013   0.165  0.8010 -2.0070 -1.4507
21742SOL     OW82835  12.800   7.847  11.115 -0.0351  0.7687  0.5545
21742SOL    HW182836  12.799   7.809  11.027 -0.3030  2.0390 -0.0163
21742SOL    HW282837  12.727   7.805  11.160  1.2240 -1.2869  0.8225
21743SOL     OW82838  10.491   1.588   6.175  0.5303  0.2308  0.2032
21743SOL    HW182839  10.506   1.656   6.240  2.2145 -0.8756  1.0188
21743SOL    HW282840  10.519   1.628   6.092 -1.6782  1.6573  0.0288
21744SOL     OW82841   5.177   0.390   7.240  0.1491 -0.2601  0.0214
21744SOL    HW182842   5.178   0.385   7.145  0.3852 -0.3578  0.0280
21744SOL    HW282843   5.085   0.380   7.264  0.1930 -1.0937 -0.1478
21745SOL     OW82844   9.765   5.483   5.254  0.3061  0.2588  0.2921
21745SOL    HW182845   9.673   5.473   5.281  0.1786 -1.1814 -0.5421
21745SOL    HW282846   9.813   5.425   5.313  0.6004  0.5416  0.3293
21746SOL     OW82847   9.658  11.956   4.308  0.0207  0.1403 -0.3197
21746SOL    HW182848   9.700  12.032   4.349  0.1496  0.5972 -1.2669
21746SOL    HW282849   9.572  11.951   4.350 -0.3351  1.3552 -0.8440
21747SOL     OW82850   5.866   8.315   5.430  0.0606  0.2185  0.3099
21747SOL    HW182851   5.909   8.324   5.515 -1.7608  0.5138  1.2552
21747SOL    HW282852   5.823   8.400   5.417 -0.1748 -0.0394 -0.6297
21748SOL     OW82853  12.734   3.037  10.685  0.2626  0.0109  0.6532
21748SOL    HW182854  12.813   3.002  10.726  1.3220  0.5271 -0.8360
21748SOL    HW282855  12.761   3.122  10.650 -0.7124 -0.1477 -0.5740
21749SOL     OW82856   2.687   4.630  10.678  0.3717 -0.3400  0.0065
21749SOL    HW182857   2.660   4.722  10.672  0.0771 -0.4138  0.1958
21749SOL    HW282858   2.758   4.630  10.742  1.0794 -0.0923 -0.7538
21750SOL     OW82859   1.766   9.876   4.883 -0.3061  0.2008 -0.4787
21750SOL    HW182860   1.849   9.835   4.908 -0.3303 -0.6870 -1.7295
21750SOL    HW282861   1.731   9.911   4.964 -0.7592 -3.1829  0.9499
21751SOL     OW82862  13.042  13.900   9.962 -0.5344 -0.3691  0.0316
21751SOL    HW182863  13.112  13.874  10.021 -1.4902  1.3490  2.0526
21751SOL    HW282864  12.977  13.830   9.967 -0.7357 -0.1147  1.3141
21752SOL     OW82865   1.416   6.151   2.673 -0.2651 -0.2827  0.7548
21752SOL    HW182866   1.499   6.167   2.717  0.7844 -2.4301 -0.3174
21752SOL    HW282867   1.440   6.126   2.584 -2.1325  0.0046  0.1242
21753SOL     OW82868   8.911  11.501   9.824  0.2368 -0.2426 -0.3991
21753SOL    HW182869   8.881  11.546   9.903 -0.0582 -0.2399 -0.5136
21753SOL    HW282870   8.833  11.493   9.769 -0.1866 -2.5674  0.4160
21754SOL     OW82871   9.873  12.752   1.031 -0.5807  0.4369 -0.1588
21754SOL    HW182872   9.864  12.657   1.041  1.8779  0.1919  0.3996
21754SOL    HW282873   9.951  12.774   1.083  1.9602  1.9671 -4.1530
21755SOL     OW82874  12.692   1.290   8.355  0.2052 -0.7920  0.5529
21755SOL    HW182875  12.611   1.255   8.318 -0.5767  2.0293 -0.6282
21755SOL    HW282876  12.667   1.374   8.393  2.6726  0.5374 -0.5259
21756SOL     OW82877   5.588   0.096  12.943  0.3389 -0.0101  0.0824
21756SOL    HW182878   5.605   0.008  12.908 -1.0812  0.3909 -1.6967
21756SOL    HW282879   5.664   0.147  12.917 -0.3640  0.0999 -1.8951
21757SOL     OW82880   2.783   7.858   7.788  0.2670  1.0359  0.2616
21757SOL    HW182881   2.792   7.952   7.806 -0.7648  1.2359 -0.2111
21757SOL    HW282882   2.709   7.830   7.842 -1.3680  1.1534 -1.7653
21758SOL     OW82883  12.962   5.601   1.708  0.7202 -0.1679  0.1405
21758SOL    HW182884  13.009   5.616   1.626 -0.4310  1.4015 -0.2994
21758SOL    HW282885  12.872   5.584   1.680  0.1130  1.3302  1.0745
21759SOL     OW82886   1.834   1.563   4.857  0.8007 -0.2865  0.0309
21759SOL    HW182887   1.790   1.517   4.785  0.0786  1.8448 -0.9748
21759SOL    HW282888   1.925   1.534   4.851  0.5472 -0.9493 -1.0809
21760SOL     OW82889   6.365   2.807   4.956  0.4296 -0.2294  0.1272
21760SOL    HW182890   6.413   2.734   4.994 -0.6519  0.5953  3.3718
21760SOL    HW282891   6.371   2.877   5.021 -0.4095  1.8487 -1.8849
21761SOL     OW82892  11.056   1.583  13.159  0.5785 -0.4177  0.3913
21761SOL    HW182893  11.040   1.564  13.066 -0.1849  0.4677  0.3260
21761SOL    HW282894  11.080   1.499  13.197  1.0993 -0.7530 -0.6509
21762SOL     OW82895  13.945   9.047   1.702  0.3677 -0.0253  0.3710
21762SOL    HW182896  13.953   9.139   1.727 -2.3758 -0.0299  1.5721
21762SOL    HW282897  14.014   9.003   1.752  0.0306  1.0554  1.8529
21763SOL     OW82898   6.374   2.939  12.794  0.2873 -0.1446 -0.1100
21763SOL    HW182899   6.434   2.998  12.840  0.7511 -1.1120  0.5711
21763SOL    HW282900   6.408   2.851  12.814 -1.4863 -0.7293  0.4832
21764SOL     OW82901   7.503   4.249  13.330 -0.1335 -0.0156 -0.1831
21764SOL    HW182902   7.477   4.163  13.298 -0.3340 -0.1413  0.3171
21764SOL    HW282903   7.421   4.295  13.345 -0.0340  0.8456 -1.9690
21765SOL     OW82904   3.653   3.408   2.509  0.6643  0.3971  0.1670
21765SOL    HW182905   3.722   3.389   2.573 -1.0097 -0.7184  1.7805
21765SOL    HW282906   3.637   3.502   2.518  0.8091  0.3474  1.0419
21766SOL     OW82907  12.219   1.426   3.333 -0.2343 -0.1449 -0.4823
21766SOL    HW182908  12.252   1.468   3.412 -1.1882 -0.2401 -0.0215
21766SOL    HW282909  12.296   1.389   3.291  1.1564  3.9790 -2.1615
21767SOL     OW82910   1.926  13.935   2.079 -0.6808  0.4518 -0.2339
21767SOL    HW182911   1.976  13.905   2.004  0.0872 -2.1144  1.1651
21767SOL    HW282912   1.981  14.001   2.121 -0.4397  0.7841 -1.0608
21768SOL     OW82913  10.456   8.259  13.962 -0.0429  0.3655  0.2012
21768SOL    HW182914  10.453   8.302  14.047 -2.2410  0.6060  0.0689
21768SOL    HW282915  10.451   8.330  13.898 -0.3476  0.0939 -0.0847
21769SOL     OW82916   5.960   8.650   0.314  0.9115 -0.1929  0.0760
21769SOL    HW182917   5.939   8.743   0.312  1.2110 -0.1386 -1.0156
21769SOL    HW282918   6.013   8.635   0.236 -0.0020 -1.4931 -0.3363
21770SOL     OW82919   1.379   6.298   6.787 -0.4144  0.2659  0.6610
21770SOL    HW182920   1.433   6.376   6.799 -2.6255  1.8660  0.9951
21770SOL    HW282921   1.432   6.226   6.820  2.1065  1.4504 -0.5859
21771SOL     OW82922   7.493   3.865   5.188  0.0745  0.0023  0.3530
21771SOL    HW182923   7.480   3.960   5.193 -0.2646 -0.0628  0.9058
21771SOL    HW282924   7.587   3.854   5.176  0.2624  0.3935  1.3217
21772SOL     OW82925   1.074   0.795   2.151 -0.2734  0.0560 -0.7231
21772SOL    HW182926   1.159   0.822   2.187 -0.8814 -0.3388  1.1225
21772SOL    HW282927   1.067   0.702   2.171 -1.8405  0.4310  0.7397
21773SOL     OW82928   4.836   1.633   6.330 -0.0089  0.3194  0.3640
21773SOL    HW182929   4.792   1.631   6.246 -1.1039  1.1419  0.8897
21773SOL    HW282930   4.867   1.544   6.344 -1.4824 -0.2832 -0.0540
21774SOL     OW82931  12.058  13.042  12.730 -0.3570  0.7183 -0.1650
21774SOL    HW182932  11.965  13.057  12.715 -0.1354  2.3443 -0.0437
21774SOL    HW282933  12.066  13.036  12.825 -0.2179  1.5788 -0.1134
21775SOL     OW82934   4.240   7.600   5.808  0.4429  0.2080 -0.1724
21775SOL    HW182935   4.324   7.602   5.854  0.9607  0.7329 -1.1215
21775SOL    HW282936   4.191   7.674   5.843  0.5485  0.1713  0.0533
21776SOL     OW82937  10.512  13.719   8.874  0.2548 -0.3844 -0.0554
21776SOL    HW182938  10.451  13.678   8.812  1.4859 -1.6473 -0.5011
21776SOL    HW282939  10.469  13.800   8.900 -1.3110 -0.9116 -0.8424
21777SOL     OW82940   1.835   9.442  12.276  0.3074 -0.3248 -0.0004
21777SOL    HW182941   1.846   9.349  12.295  1.1489  0.1376  2.1063
21777SOL    HW282942   1.891   9.486  12.340 -2.7044  1.7573  1.4335
21778SOL     OW82943   1.915  11.031   5.438 -0.3802 -0.1934  0.2961
21778SOL    HW182944   1.954  11.027   5.351 -1.5737 -1.1656 -0.2104
21778SOL    HW282945   1.860  10.953   5.444 -0.0203 -0.3729  2.0762
21779SOL     OW82946   7.473   6.519   5.488  0.1347  0.7007  0.1296
21779SOL    HW182947   7.377   6.521   5.491  0.1292  0.7227 -0.0340
21779SOL    HW282948   7.494   6.440   5.439  0.1940  0.8383 -0.0674
21780SOL     OW82949  10.118   7.052   1.832  0.7340 -0.7378 -0.5889
21780SOL    HW182950  10.135   6.964   1.798  0.4218 -1.4723  1.0555
21780SOL    HW282951  10.087   7.037   1.921  0.4007  1.0413 -0.3788
21781SOL     OW82952   0.566  13.267  11.108  0.0648  0.1351  0.1731
21781SOL    HW182953   0.631  13.197  11.119 -0.9791 -0.4977  3.6202
21781SOL    HW282954   0.481  13.222  11.112 -0.6497  1.2956 -0.9388
21782SOL     OW82955   8.695  11.376  13.522 -0.5793  0.2608 -0.3502
21782SOL    HW182956   8.723  11.401  13.611 -0.3932  0.8413 -0.5666
21782SOL    HW282957   8.758  11.418  13.464  1.3120 -2.7962 -0.6951
21783SOL     OW82958  11.226  10.021   9.809 -0.3253  0.0475 -1.1921
21783SOL    HW182959  11.213  10.096   9.867 -0.0681 -0.1797 -0.8332
21783SOL    HW282960  11.229  10.058   9.721  1.9928  0.7479 -0.8839
21784SOL     OW82961   7.825   3.324   5.477  0.1152 -0.5344  0.0663
21784SOL    HW182962   7.773   3.288   5.406 -0.0839  0.3590 -0.2478
21784SOL    HW282963   7.776   3.301   5.557  1.6670 -3.9290  0.2309
21785SOL     OW82964   3.699   7.458   2.113  0.0185  0.1260  0.3061
21785SOL    HW182965   3.766   7.514   2.073 -0.1437 -0.3385 -0.6256
21785SOL    HW282966   3.630   7.518   2.140  0.2047  0.4592  0.0434
21786SOL     OW82967  11.294   6.418   1.437  0.0626  0.2357 -0.6191
21786SOL    HW182968  11.248   6.352   1.385  2.1970  0.2382 -2.6771
21786SOL    HW282969  11.267   6.502   1.400 -0.6393  0.4032  0.2501
21787SOL     OW82970  11.874   7.382   4.242 -0.3488 -0.4077 -1.0360
21787SOL    HW182971  11.805   7.320   4.218  1.7530 -2.5118 -2.0279
21787SOL    HW282972  11.907   7.351   4.326  0.0118  0.0046 -1.0189
21788SOL     OW82973  13.676  10.208   0.948 -0.2562 -0.2335  0.3276
21788SOL    HW182974  13.680  10.136   1.010  0.9961 -1.5043 -1.1476
21788SOL    HW282975  13.586  10.240   0.954 -1.0613 -2.3705  0.5403
21789SOL     OW82976  11.266   3.099  12.623  0.5412 -0.0678  0.1767
21789SOL    HW182977  11.187   3.068  12.578 -0.0059  0.5559  0.6822
21789SOL    HW282978  11.277   3.039  12.696 -0.1098  0.4862  0.7443
21790SOL     OW82979   6.344  10.769   5.942 -0.2143 -0.7736  0.4615
21790SOL    HW182980   6.389  10.833   5.998  1.4732 -0.0826 -1.5746
21790SOL    HW282981   6.253  10.799   5.939  0.4991  1.4374 -0.2685
21791SOL     OW82982   8.054   9.357   5.044  0.2207  0.6970 -0.5948
21791SOL    HW182983   8.046   9.275   4.995  3.5075  0.1869 -0.5114
21791SOL    HW282984   8.072   9.329   5.134 -0.1502  1.5678 -0.2347
21792SOL     OW82985   5.401   4.582   9.437  0.1657 -0.1546 -0.2790
21792SOL    HW182986   5.450   4.499   9.436  1.3497  0.5188 -0.6520
21792SOL    HW282987   5.438   4.632   9.364 -1.8297 -0.0072 -1.2515
21793SOL     OW82988   9.535   0.179   3.105  0.1439 -0.5110  0.2971
21793SOL    HW182989   9.612   0.227   3.136 -0.1614 -0.3068  0.7460
21793SOL    HW282990   9.566   0.089   3.094  0.3357 -0.5248  0.9130
21794SOL     OW82991   0.687   4.817  11.178 -0.0066 -0.2924  0.2340
21794SOL    HW182992   0.695   4.733  11.133  0.8599  1.2418 -2.7002
21794SOL    HW282993   0.594   4.839  11.171 -0.0744 -0.5885  0.1934
21795SOL     OW82994   7.673  14.017   9.915  0.6134 -0.2979  0.1011
21795SOL    HW182995   7.759  13.995   9.951  1.4653  0.8756 -1.1490
21795SOL    HW282996   7.624  13.934   9.918  1.6711 -0.9181  1.0956
21796SOL     OW82997   5.922  10.102   4.333 -0.6054 -0.0490 -0.0061
21796SOL    HW182998   5.928  10.022   4.384 -1.6743  0.4461  0.9460
21796SOL    HW282999   5.835  10.099   4.293 -0.5656  0.5288 -0.1465
21797SOL     OW83000   0.504   7.737  11.021 -0.0706 -0.4023 -0.1954
21797SOL    HW183001   0.468   7.815  10.977 -0.2334  0.2682  1.0767
21797SOL    HW283002   0.473   7.664  10.968 -0.8692  0.3313 -0.7885
21798SOL     OW83003   3.202   9.996   0.329  0.1921  0.7133  0.4745
21798SOL    HW183004   3.237   9.910   0.309 -0.6526  0.6326 -0.7413
21798SOL    HW283005   3.211  10.004   0.424  0.2772 -0.7046  0.6073
21799SOL     OW83006   9.074  13.222   3.929  0.0799 -0.5436 -0.2947
21799SOL    HW183007   9.149  13.209   3.987 -0.6896 -0.9674  0.6269
21799SOL    HW283008   9.112  13.221   3.841  0.9583 -2.2304  0.0623
21800SOL     OW83009   6.493   3.662   4.497  0.1343  0.1877  0.2875
21800SOL    HW183010   6.413   3.712   4.510  0.2258  0.1941  0.8095
21800SOL    HW283011   6.526   3.644   4.585 -0.1400 -1.1750  0.1371
21801SOL     OW83012   7.377   4.190  11.081  0.1564  0.0106 -0.5378
21801SOL    HW183013   7.302   4.203  11.139  0.2503 -0.8996 -0.1915
21801SOL    HW283014   7.350   4.229  10.998 -0.3224  0.5490 -0.1356
21802SOL     OW83015   0.965   2.923   1.334 -0.4163 -0.4208  0.1621
21802SOL    HW183016   1.038   2.962   1.381 -1.6266  2.7506 -0.2922
21802SOL    HW283017   0.891   2.929   1.394 -0.5886 -2.6820  0.2613
21803SOL     OW83018   5.882   8.423  12.612 -0.6190  0.1911 -0.0672
21803SOL    HW183019   5.811   8.452  12.669 -0.4866 -1.8002  1.1949
21803SOL    HW283020   5.961   8.431  12.666 -0.0832  0.8196 -0.9049
21804SOL     OW83021   8.858  12.287  11.400 -0.6973  0.3524  0.1343
21804SOL    HW183022   8.934  12.278  11.342 -0.6163  0.4513  0.2229
21804SOL    HW283023   8.872  12.221  11.467 -0.2678  0.9058  0.6077
21805SOL     OW83024  10.821   3.369   9.039  0.6037 -0.3369  0.2164
21805SOL    HW183025  10.808   3.279   9.070  2.0004 -0.6137  0.0624
21805SOL    HW283026  10.863   3.414   9.113  1.1437 -0.1734 -0.1892
21806SOL     OW83027   0.016   8.612  13.194  0.2059 -0.0438 -0.2518
21806SOL    HW183028  -0.057   8.564  13.232  0.7315 -1.0281 -0.4433
21806SOL    HW283029   0.038   8.679  13.259 -0.6877  0.0872 -0.0806
21807SOL     OW83030   5.264  11.985  11.072 -0.0772  0.0544 -0.3991
21807SOL    HW183031   5.246  12.034  10.992  0.9392 -0.6712 -1.1056
21807SOL    HW283032   5.235  11.896  11.053 -0.7061  0.0755  0.3978
21808SOL     OW83033   4.648   2.078   1.257 -0.0363  0.2195  0.2067
21808SOL    HW183034   4.726   2.109   1.211 -0.2214  0.5778  0.1340
21808SOL    HW283035   4.602   2.023   1.194 -0.4347  0.9348 -0.1331
21809SOL     OW83036  10.425   2.616   4.864 -0.2387 -0.0921  0.1342
21809SOL    HW183037  10.391   2.586   4.780 -1.7561  3.2123 -0.5733
21809SOL    HW283038  10.511   2.652   4.843 -0.4995  0.4797  0.0370
21810SOL     OW83039  10.446   7.330  12.044  1.0283 -0.1215 -0.1642
21810SOL    HW183040  10.378   7.382  12.087  0.3271 -1.7998  0.8894
21810SOL    HW283041  10.397   7.261  11.998  1.9141  0.2103 -1.6362
21811SOL     OW83042   1.005   6.954   6.637  0.2377 -0.6396  0.7200
21811SOL    HW183043   0.951   7.001   6.574  0.1521  0.7012  1.7481
21811SOL    HW283044   0.985   6.995   6.721  2.7662 -0.1757  1.1594
21812SOL     OW83045   5.533   2.892   3.886 -0.1807 -0.5078  0.5344
21812SOL    HW183046   5.581   2.922   3.809  0.8838  0.5339  1.5574
21812SOL    HW283047   5.443   2.920   3.870  0.3419  1.1892  0.3818
21813SOL     OW83048  12.639  11.028   7.444  0.5899  0.2863  0.0912
21813SOL    HW183049  12.672  11.026   7.354  0.7603  1.0453  0.1252
21813SOL    HW283050  12.699  11.087   7.489 -0.0818  0.6892  0.4658
21814SOL     OW83051  10.765   7.886  12.881  0.0200  0.1584 -0.4592
21814SOL    HW183052  10.774   7.955  12.816 -0.0394 -0.6994 -1.4152
21814SOL    HW283053  10.672   7.883  12.902  0.1202  0.8068  0.0954
21815SOL     OW83054  10.788   7.924   1.772 -0.3198 -0.7319 -0.1058
21815SOL    HW183055  10.743   8.000   1.737 -0.3664 -1.0355 -0.7299
21815SOL    HW283056  10.777   7.930   1.867 -0.5160 -0.0915 -0.1662
21816SOL     OW83057  11.739   7.489  11.255 -0.8000  0.2962  0.3137
21816SOL    HW183058  11.778   7.537  11.181  0.1390 -0.8958  0.0019
21816SOL    HW283059  11.687   7.555  11.301 -0.0272  1.4781 -0.4316
21817SOL     OW83060   7.823  12.155  11.400  0.1029  0.1366  0.0246
21817SOL    HW183061   7.741  12.174  11.446  0.3056 -1.9567  1.3804
21817SOL    HW283062   7.839  12.232  11.346 -3.2861  0.2283 -1.0740
21818SOL     OW83063   7.795   1.504   7.808 -0.2330 -0.0890  0.6782
21818SOL    HW183064   7.776   1.554   7.887  0.6919 -0.5730  1.2285
21818SOL    HW283065   7.891   1.495   7.808 -0.2757 -0.6812 -0.1317
21819SOL     OW83066   8.824   6.348   7.337  0.4532 -0.1796 -0.2838
21819SOL    HW183067   8.738   6.387   7.320 -0.0521 -0.1265  1.9903
21819SOL    HW283068   8.852   6.314   7.253 -1.9523 -0.4919 -1.0442
21820SOL     OW83069  13.530  12.753   1.426 -0.0051 -0.3110  0.1343
21820SOL    HW183070  13.550  12.771   1.517 -2.2289  2.6973  0.1869
21820SOL    HW283071  13.527  12.839   1.384 -0.0535 -1.5117 -2.5605
21821SOL     OW83072   6.202   8.383   5.984  0.0344  0.0279  0.2309
21821SOL    HW183073   6.145   8.333   5.925 -0.3183 -0.6194  1.1020
21821SOL    HW283074   6.200   8.472   5.949 -0.1842 -0.3331 -0.7193
21822SOL     OW83075  10.857   8.232  12.171 -0.3249  0.1059 -0.3998
21822SOL    HW183076  10.914   8.301  12.136 -0.6228 -0.0683 -1.2496
21822SOL    HW283077  10.829   8.266  12.257 -0.9712  1.3426 -1.0663
21823SOL     OW83078   7.576   3.339   1.455  0.2941  0.2744 -0.1351
21823SOL    HW183079   7.604   3.311   1.367 -0.7930 -1.1562 -0.0695
21823SOL    HW283080   7.650   3.390   1.489  1.0078  0.2836 -1.6121
21824SOL     OW83081   5.964  13.895  11.949 -0.1768  0.0915  0.0818
21824SOL    HW183082   5.951  13.963  11.883 -0.8469  0.9020  1.0177
21824SOL    HW283083   6.050  13.915  11.988  0.8072 -1.1195 -1.3349
21825SOL     OW83084   5.066  10.418   5.968  0.0434 -0.3410 -0.0370
21825SOL    HW183085   4.980  10.381   5.949  0.2906 -0.5436 -0.7996
21825SOL    HW283086   5.113  10.413   5.885  1.1042 -1.0882  0.5743
21826SOL     OW83087   0.566   6.939   1.734 -0.7957  0.3431 -0.2779
21826SOL    HW183088   0.486   6.905   1.694 -1.8498  1.2706  0.9657
21826SOL    HW283089   0.536   7.007   1.795  0.8020 -0.4051  1.4361
21827SOL     OW83090   5.430  13.162   3.311 -0.5223  0.6609  0.4058
21827SOL    HW183091   5.368  13.130   3.246 -0.1112  1.6465 -0.5086
21827SOL    HW283092   5.385  13.152   3.395 -0.7962 -1.3029  0.0863
21828SOL     OW83093   8.929  10.559   7.129  0.3421 -0.1917  0.3144
21828SOL    HW183094   8.926  10.512   7.212  1.3143 -1.2788 -0.2188
21828SOL    HW283095   9.001  10.621   7.140  0.0487  0.1155  0.5025
21829SOL     OW83096   7.777  10.212   4.081  0.2978  0.0224 -0.0703
21829SOL    HW183097   7.842  10.155   4.041 -0.2519 -1.4266  1.0040
21829SOL    HW283098   7.787  10.197   4.175 -1.6191 -0.3147  0.1190
21830SOL     OW83099  13.771   4.135   6.146  0.3475  0.5166 -0.0405
21830SOL    HW183100  13.807   4.145   6.234  0.4723 -1.2524  0.1446
21830SOL    HW283101  13.676   4.136   6.158  0.2971 -2.1161  0.5262
21831SOL     OW83102   7.335   1.870   6.434  0.4341  0.3025 -0.4021
21831SOL    HW183103   7.392   1.794   6.446  0.5957  0.3412 -0.9230
21831SOL    HW283104   7.278   1.869   6.511  0.5364 -0.2560 -0.3286
21832SOL     OW83105  13.688   9.036   5.541  0.0153  0.1248 -0.3389
21832SOL    HW183106  13.775   9.016   5.508  0.3879  1.0141  0.0798
21832SOL    HW283107  13.698   9.118   5.589 -0.5959 -0.8393  1.5576
21833SOL     OW83108   7.374   8.377   7.510  0.4202  0.1288 -0.1502
21833SOL    HW183109   7.362   8.407   7.420 -0.0248  1.7150  0.4175
21833SOL    HW283110   7.435   8.439   7.548  0.4676 -0.4285  0.7125
21834SOL     OW83111   1.386  13.945   0.863  0.6476  0.0634 -0.3466
21834SOL    HW183112   1.460  13.885   0.854  1.7127  0.8112  2.5603
21834SOL    HW283113   1.328  13.901   0.925  1.0715  1.6275  1.2211
21835SOL     OW83114   6.270   2.543   3.917  0.1014 -0.3296  0.3047
21835SOL    HW183115   6.337   2.527   3.851 -0.2088  2.0712 -0.7134
21835SOL    HW283116   6.305   2.615   3.970 -1.1990  0.2331  0.4324
21836SOL     OW83117  12.745   9.822   3.825 -0.4467  0.1386  0.2852
21836SOL    HW183118  12.827   9.826   3.775  0.0004 -1.6273  0.8312
21836SOL    HW283119  12.700   9.745   3.791 -0.7930 -0.2733  1.6192
21837SOL     OW83120   0.007  12.035   8.163 -0.0452  0.6171 -0.4077
21837SOL    HW183121  -0.017  11.969   8.097 -1.1736 -0.7353  1.2544
21837SOL    HW283122   0.074  11.993   8.216  0.8926  1.7171 -0.6655
21838SOL     OW83123  11.774   2.701   4.103 -0.4538 -0.0462 -0.1097
21838SOL    HW183124  11.727   2.721   4.184 -1.7207 -1.1860 -0.5162
21838SOL    HW283125  11.803   2.610   4.115  0.2566  0.1204 -0.5286
21839SOL     OW83126   2.116   6.214   3.351  0.6552  0.4286 -0.0588
21839SOL    HW183127   2.024   6.186   3.349  0.4029  1.2565 -0.5105
21839SOL    HW283128   2.116   6.300   3.309  1.3686  1.2450  1.5342
21840SOL     OW83129   9.281   0.321   3.116 -0.1007  0.4774  0.1860
21840SOL    HW183130   9.357   0.280   3.157 -0.3277  1.3773  1.5802
21840SOL    HW283131   9.243   0.252   3.062 -0.7758 -1.3937  2.8502
21841SOL     OW83132   9.444  11.897   2.011 -0.4491  0.0099  0.1859
21841SOL    HW183133   9.435  11.919   2.104 -0.8109 -0.1133  0.1816
21841SOL    HW283134   9.486  11.811   2.010  1.8546  1.0430  0.1913
21842SOL     OW83135  11.630   8.380   7.382  0.0101 -0.2934  0.0986
21842SOL    HW183136  11.640   8.292   7.417 -0.0066  0.0133  0.8800
21842SOL    HW283137  11.666   8.375   7.293  1.0041 -0.8262  0.5155
21843SOL     OW83138   0.239   9.837   6.815  1.0067  0.0889 -0.5995
21843SOL    HW183139   0.278   9.764   6.862  0.5374 -0.1672 -0.6088
21843SOL    HW283140   0.229   9.805   6.725 -0.9798 -0.5394 -0.2025
21844SOL     OW83141   2.326   2.339   8.313  0.1449 -0.3141 -0.4724
21844SOL    HW183142   2.270   2.324   8.236  0.4565 -0.9927 -0.5773
21844SOL    HW283143   2.370   2.255   8.327  0.5227 -0.0258  0.1051
21845SOL     OW83144  11.395   3.889   6.105 -0.4469  0.1943 -0.1867
21845SOL    HW183145  11.445   3.937   6.171 -0.7784 -0.5823  0.6437
21845SOL    HW283146  11.311   3.870   6.147 -0.1022 -1.6597 -0.2362
21846SOL     OW83147  10.765   1.372  10.333  0.0192  0.6555  0.3599
21846SOL    HW183148  10.830   1.321  10.381 -0.9141 -0.1147  0.8288
21846SOL    HW283149  10.713   1.415  10.400 -0.1451  1.0374 -0.0061
21847SOL     OW83150   9.714  12.864   8.059 -0.3123  0.0282 -0.0983
21847SOL    HW183151   9.767  12.908   8.126 -3.2147  0.3757  2.1615
21847SOL    HW283152   9.733  12.771   8.071  0.0633  0.1624  0.3977
21848SOL     OW83153   4.631   9.659   7.642 -0.3445  0.0604  0.0961
21848SOL    HW183154   4.581   9.728   7.599 -0.7772 -0.3574 -0.0772
21848SOL    HW283155   4.702   9.705   7.685 -0.4225  0.5813 -0.3152
21849SOL     OW83156   0.890  12.884   6.270 -0.1736 -0.7923 -0.9179
21849SOL    HW183157   0.964  12.855   6.217  0.6795 -0.9901  0.3395
21849SOL    HW283158   0.861  12.806   6.317  0.7983 -0.1078  0.8956
21850SOL     OW83159   7.471  11.279   3.261 -0.6500 -0.2417 -1.0078
21850SOL    HW183160   7.565  11.294   3.274 -1.0918  1.9253  0.1526
21850SOL    HW283161   7.451  11.203   3.316 -0.0003  0.8043  0.7472
21851SOL     OW83162   9.003   7.384   4.067 -0.5745  0.0504 -0.1757
21851SOL    HW183163   9.061   7.309   4.068 -0.9117 -0.2161 -0.1843
21851SOL    HW283164   9.058   7.459   4.089  0.2234  0.1388 -2.2714
21852SOL     OW83165  11.253   9.832   9.995 -0.1698 -0.1203 -0.0976
21852SOL    HW183166  11.250   9.902   9.930 -0.5984 -1.1490 -1.2237
21852SOL    HW283167  11.166   9.791   9.990  0.4052 -1.3704 -0.2067
21853SOL     OW83168   0.681   8.429   7.837  0.0252  0.0481  0.2127
21853SOL    HW183169   0.596   8.468   7.858 -0.6246 -1.5466  0.6949
21853SOL    HW283170   0.679   8.417   7.742  0.3670  1.4192  0.0098
21854SOL     OW83171   0.818  12.823   8.611 -0.2935 -0.4609  0.1837
21854SOL    HW183172   0.793  12.841   8.520  2.7647 -1.1616 -0.9152
21854SOL    HW283173   0.775  12.893   8.661 -0.8041  0.9064 -1.9989
21855SOL     OW83174   2.893  12.305   6.994  0.1413 -0.1968  0.0356
21855SOL    HW183175   2.932  12.384   6.956 -1.3661  0.4439 -0.2176
21855SOL    HW283176   2.906  12.315   7.089  1.1222 -0.3079 -0.0697
21856SOL     OW83177   9.913   4.965   0.160  0.4887  0.7243  0.0048
21856SOL    HW183178   9.836   4.975   0.216  0.0453 -1.2953 -0.1729
21856SOL    HW283179   9.972   5.035   0.188 -0.3356  0.7110  1.9477
21857SOL     OW83180  13.106  11.673  14.060 -0.3025  0.7477 -0.4273
21857SOL    HW183181  13.199  11.651  14.053 -0.7046 -0.7622 -1.5572
21857SOL    HW283182  13.090  11.684  14.153  1.0854  1.4533 -0.2445
21858SOL     OW83183   9.059   1.449   6.493  0.1167 -0.3365 -0.1999
21858SOL    HW183184   9.146   1.434   6.456  0.6621  1.5788  0.1859
21858SOL    HW283185   9.076   1.489   6.578 -1.1224  1.0343 -0.5639
21859SOL     OW83186   7.796   9.214   4.286 -0.3383  0.3980 -0.0040
21859SOL    HW183187   7.733   9.147   4.312 -1.0842  0.4304 -1.5969
21859SOL    HW283188   7.812   9.264   4.366  0.3392 -1.7059  1.2715
21860SOL     OW83189   1.557  10.195   7.948 -0.4223 -0.3431 -0.6524
21860SOL    HW183190   1.576  10.248   8.025 -1.5923  2.7246 -2.2948
21860SOL    HW283191   1.510  10.119   7.982  0.5251  0.0652  1.7699
21861SOL     OW83192   6.059   8.391   1.339 -0.0155 -0.4866  0.1857
21861SOL    HW183193   6.115   8.316   1.318  0.1111 -0.4809  0.5119
21861SOL    HW283194   6.117   8.453   1.382 -0.6166 -1.1605  2.0630
21862SOL     OW83195   9.665   4.791   4.367  0.0882 -0.2158  0.1286
21862SOL    HW183196   9.579   4.824   4.394  0.0425 -0.5566  0.4084
21862SOL    HW283197   9.664   4.796   4.271  0.1046  0.6425  0.1680
21863SOL     OW83198   4.329  11.590  10.420  0.1077 -0.1363  0.0696
21863SOL    HW183199   4.344  11.516  10.478  0.0306  0.3897  0.7827
21863SOL    HW283200   4.239  11.579  10.389  0.4827 -0.9467 -0.7314
21864SOL     OW83201   9.157  12.658   6.024 -0.3379  0.0868  0.0664
21864SOL    HW183202   9.068  12.695   6.025 -0.4035 -0.0288  1.9458
21864SOL    HW283203   9.209  12.719   6.077  0.2349 -0.9096  0.6669
21865SOL     OW83204   9.881   3.195  12.678  0.2439  0.2457  0.2229
21865SOL    HW183205   9.809   3.143  12.714  0.2695  0.8489  1.1953
21865SOL    HW283206   9.957   3.137  12.683 -0.0846 -0.2548 -0.4319
21866SOL     OW83207   2.716   2.072   7.568  0.0199 -0.4753  0.3424
21866SOL    HW183208   2.633   2.047   7.607 -0.5850  1.0613  0.0834
21866SOL    HW283209   2.774   2.086   7.643 -0.5214  0.3662  0.6113
21867SOL     OW83210  10.928   2.180   0.737 -0.2444 -0.7711  0.2143
21867SOL    HW183211  10.989   2.200   0.808  1.2064 -1.7810 -0.6872
21867SOL    HW283212  10.959   2.232   0.663 -0.6523 -1.0746 -0.1756
21868SOL     OW83213  11.312   5.980   8.431  0.6752 -0.0557  0.1765
21868SOL    HW183214  11.358   5.991   8.348  0.6606 -1.0177  0.0269
21868SOL    HW283215  11.380   5.952   8.493  0.2867 -1.7678 -0.1134
21869SOL     OW83216  14.036   2.737   5.702 -0.0742 -0.2827  0.4180
21869SOL    HW183217  13.972   2.717   5.771 -0.4186 -2.1923 -0.3789
21869SOL    HW283218  13.987   2.789   5.638 -0.9752 -1.8849 -0.2774
21870SOL     OW83219  13.135   2.817   6.073  0.2451 -0.1168 -0.0076
21870SOL    HW183220  13.230   2.819   6.060  0.2461 -0.3391 -0.0294
21870SOL    HW283221  13.122   2.757   6.146  0.0503 -0.8160 -0.6147
21871SOL     OW83222   1.072   9.700   3.138  0.7727  0.5900  0.2643
21871SOL    HW183223   1.094   9.672   3.227 -1.3743 -0.6251  0.4818
21871SOL    HW283224   1.017   9.778   3.151 -0.7193 -0.4024  0.1188
21872SOL     OW83225   1.752  10.986   8.638  0.0961 -0.7016  0.3314
21872SOL    HW183226   1.733  11.057   8.577  0.6902  0.1967  1.1790
21872SOL    HW283227   1.832  10.945   8.604 -1.6133 -2.6994 -1.6449
21873SOL     OW83228   3.323  12.791   9.128 -0.4249 -0.1840  0.7219
21873SOL    HW183229   3.301  12.824   9.041 -0.5673 -0.5909  0.5999
21873SOL    HW283230   3.408  12.748   9.116 -0.5892 -0.5106  0.7114
21874SOL     OW83231   2.181   3.271   6.210  0.0958 -0.1730  0.0711
21874SOL    HW183232   2.149   3.335   6.273 -0.3220 -1.3217  1.0585
21874SOL    HW283233   2.116   3.202   6.210 -0.7792  0.5232 -2.8961
21875SOL     OW83234  11.101   6.109   2.543 -0.2155  0.2658  0.3174
21875SOL    HW183235  11.188   6.101   2.505 -0.5705  1.7975 -0.9129
21875SOL    HW283236  11.116   6.144   2.631  0.4417 -0.1517  0.3735
21876SOL     OW83237  13.581   2.122  13.380  0.1251 -0.4833 -0.0868
21876SOL    HW183238  13.633   2.147  13.304  0.5364 -0.3642  0.2306
21876SOL    HW283239  13.549   2.205  13.416  1.4602 -0.3857  0.9463
21877SOL     OW83240   4.626   4.418  12.655  0.6195  0.0280  0.4415
21877SOL    HW183241   4.634   4.476  12.731  0.3218 -1.7384  1.8742
21877SOL    HW283242   4.580   4.341  12.688 -1.9666  0.2844 -2.1535
21878SOL     OW83243   5.775   2.126   1.030  0.0980  0.0972 -0.4036
21878SOL    HW183244   5.722   2.180   0.972 -1.9255  1.8265  2.7782
21878SOL    HW283245   5.713   2.086   1.090  2.0503 -1.6853  0.5714
21879SOL     OW83246   3.002   2.522  13.375  0.2156 -0.1952  0.3718
21879SOL    HW183247   3.078   2.564  13.335 -0.1888 -1.7988 -2.3112
21879SOL    HW283248   3.038   2.450  13.426  0.5428 -0.3819 -0.1202
21880SOL     OW83249   5.735   1.598   4.482 -0.3874  0.0055  0.2973
21880SOL    HW183250   5.728   1.687   4.517  1.4352  0.4756 -0.4258
21880SOL    HW283251   5.792   1.606   4.406 -1.1251 -1.6162 -0.4799
21881SOL     OW83252  13.765   2.236   2.756 -0.1313  0.4906  0.7475
21881SOL    HW183253  13.748   2.271   2.844  2.3139  0.8845  1.1232
21881SOL    HW283254  13.782   2.143   2.771 -2.7071 -0.1231  0.2472
21882SOL     OW83255   4.338  12.565   4.863  0.2877 -0.2357  0.6039
21882SOL    HW183256   4.251  12.528   4.846  0.1425  0.8391 -1.2400
21882SOL    HW283257   4.381  12.500   4.919 -0.6019 -2.2749 -0.9500
21883SOL     OW83258   7.797   0.379   5.082 -0.1885 -0.1002  0.0443
21883SOL    HW183259   7.743   0.305   5.109 -1.4043  0.9735  0.6781
21883SOL    HW283260   7.826   0.357   4.994 -0.3254 -1.4315  0.3138
21884SOL     OW83261   9.172  11.350   9.157  0.2835 -0.0152  0.5550
21884SOL    HW183262   9.135  11.326   9.072 -0.7496  3.3449 -0.0788
21884SOL    HW283263   9.111  11.311   9.220  0.8119 -2.1740 -0.1655
21885SOL     OW83264   9.623   4.929   6.618 -0.4844  0.2662 -0.4181
21885SOL    HW183265   9.561   5.001   6.611 -0.9041 -0.1554 -1.1084
21885SOL    HW283266   9.682   4.941   6.544 -0.4830 -0.0271 -0.4648
21886SOL     OW83267   6.621   1.535   3.185  0.1005 -0.3690 -0.0450
21886SOL    HW183268   6.603   1.629   3.190  0.0236 -0.4095  0.4756
21886SOL    HW283269   6.534   1.494   3.182  0.0851 -0.5086  1.4503
21887SOL     OW83270   3.292   0.033   5.477  0.0473  0.5317  0.4081
21887SOL    HW183271   3.377   0.004   5.510  0.0138  0.3432  0.3251
21887SOL    HW283272   3.300   0.129   5.472  0.8332  0.4003 -1.2095
21888SOL     OW83273   9.104   6.529  14.083  0.0948 -0.2832 -0.4656
21888SOL    HW183274   9.063   6.599  14.134 -0.4375  0.2829 -1.6440
21888SOL    HW283275   9.137   6.468  14.149 -1.5151 -0.1254  0.5416
21889SOL     OW83276   9.473   2.097   2.681 -0.2009  0.5395 -0.4014
21889SOL    HW183277   9.394   2.143   2.710 -0.2670  0.2468 -0.1158
21889SOL    HW283278   9.442   2.009   2.658 -0.2650  0.9441 -1.9809
21890SOL     OW83279   5.130  12.752  11.876  0.2121  0.0693  0.7673
21890SOL    HW183280   5.202  12.777  11.819  0.2853  0.2230  0.9265
21890SOL    HW283281   5.171  12.710  11.951  0.1829  0.7481  1.1701
21891SOL     OW83282   6.359   8.253   4.414  0.0427  0.2805  0.4703
21891SOL    HW183283   6.304   8.175   4.402  0.2087  0.1858  0.3276
21891SOL    HW283284   6.310   8.306   4.477 -0.9605  0.8875 -0.7796
21892SOL     OW83285  14.071  12.406   7.533 -0.5554 -0.2453  0.4654
21892SOL    HW183286  14.130  12.338   7.500  0.1705  0.8898 -0.6555
21892SOL    HW283287  14.112  12.434   7.615 -0.6561 -0.8775  0.7404
21893SOL     OW83288   8.007  10.079  13.473 -0.1550 -0.1738 -0.1536
21893SOL    HW183289   7.922  10.115  13.448  0.0300  0.6444  0.3626
21893SOL    HW283290   8.063  10.095  13.397 -0.1944  0.2283 -0.0986
21894SOL     OW83291  11.444   9.060  12.382  0.2900 -0.4316 -0.0230
21894SOL    HW183292  11.395   8.979  12.365 -0.7190  0.4648 -1.6149
21894SOL    HW283293  11.376   9.125  12.400  0.9579  0.5257 -0.8463
21895SOL     OW83294   7.600   0.278  11.156 -0.4659 -0.2484  0.2731
21895SOL    HW183295   7.591   0.244  11.245 -1.2288  2.2324  1.2290
21895SOL    HW283296   7.516   0.260  11.114  0.2985 -2.5095 -0.4328
21896SOL     OW83297  13.550   5.653  13.937 -0.5679 -0.1712 -0.0757
21896SOL    HW183298  13.496   5.638  13.860 -1.8789 -0.2412  0.8336
21896SOL    HW283299  13.505   5.606  14.008 -0.1848  1.0809  1.0396
21897SOL     OW83300  12.205   1.739   7.153 -0.3016  0.1674 -0.1826
21897SOL    HW183301  12.149   1.806   7.193  0.0649  0.5131 -0.2345
21897SOL    HW283302  12.294   1.776   7.161  0.4555 -1.9071  3.2179
21898SOL     OW83303   7.895   1.316  11.949  0.1651 -0.0451  0.0235
21898SOL    HW183304   7.809   1.275  11.950  0.7790 -1.3915  0.5751
21898SOL    HW283305   7.948   1.261  11.891  0.4514  1.2802 -1.0463
21899SOL     OW83306   4.465   3.020   0.200  0.0344 -0.9457 -0.0871
21899SOL    HW183307   4.501   3.005   0.112 -0.3407 -0.9461 -0.2432
21899SOL    HW283308   4.383   3.067   0.185  0.7121  0.4412  0.3462
21900SOL     OW83309  13.364  10.007   3.096  0.5840  0.2771 -0.3493
21900SOL    HW183310  13.314   9.949   3.154  1.4892  0.9285  1.1386
21900SOL    HW283311  13.298  10.049   3.041 -0.1408 -1.8005 -1.1907
21901SOL     OW83312   3.871   8.472   2.708 -0.5984  0.2433 -0.2917
21901SOL    HW183313   3.926   8.402   2.743 -1.9333 -0.7273 -0.0815
21901SOL    HW283314   3.893   8.548   2.763  0.1731 -0.2434  0.1011
21902SOL     OW83315  12.026   7.639  13.413 -0.0851  0.5573 -0.0146
21902SOL    HW183316  12.045   7.619  13.321 -2.1885  0.3935 -0.4639
21902SOL    HW283317  12.002   7.732  13.412  0.0396  0.5927  0.3907
21903SOL     OW83318   7.496   5.838   3.882 -0.0968 -0.0360  0.3626
21903SOL    HW183319   7.552   5.838   3.959 -0.9540  2.1999  1.0453
21903SOL    HW283320   7.549   5.879   3.813  0.5152 -1.6526 -0.1932
21904SOL     OW83321   4.138  10.216   0.193 -0.6894  0.5693  0.7119
21904SOL    HW183322   4.156  10.304   0.226  1.1972  0.1082  0.9877
21904SOL    HW283323   4.121  10.228   0.100 -1.4164  1.3266  0.9342
21905SOL     OW83324   0.865  10.433   8.562  0.2264 -0.1148  0.3520
21905SOL    HW183325   0.816  10.503   8.603  0.6760  0.0113  0.6807
21905SOL    HW283326   0.822  10.353   8.591  0.5224 -0.0252  1.0517
21906SOL     OW83327   1.022  10.715   1.588 -0.5897 -0.1311 -0.3741
21906SOL    HW183328   1.112  10.743   1.606 -0.0483 -1.5166 -0.8048
21906SOL    HW283329   1.029  10.621   1.576 -2.3613 -0.5103  1.2257
21907SOL     OW83330  13.778   1.021   0.553  0.4487  0.5725  0.2170
21907SOL    HW183331  13.692   1.000   0.518  1.0214 -0.0496 -0.8332
21907SOL    HW283332  13.772   0.999   0.646 -0.6702  1.0144  0.2670
21908SOL     OW83333   6.850   3.080  11.392 -0.3861 -0.0464 -0.0229
21908SOL    HW183334   6.816   2.997  11.358  1.4286 -0.9361  0.1698
21908SOL    HW283335   6.784   3.110  11.455 -1.9127 -0.4082 -1.4004
21909SOL     OW83336   8.188   5.664   7.139  0.1644  0.1455 -0.4978
21909SOL    HW183337   8.181   5.658   7.043  0.0236  1.4752 -0.5915
21909SOL    HW283338   8.097   5.672   7.168 -0.0034 -2.4817 -0.0234
21910SOL     OW83339   2.027  12.696  10.424 -0.2539  0.8251 -0.5337
21910SOL    HW183340   2.098  12.749  10.460  0.5893 -0.7884  0.2897
21910SOL    HW283341   2.045  12.694  10.330  0.0655  1.4618 -0.4928
21911SOL     OW83342  11.455   5.578   6.724 -0.0991 -0.5669 -0.0288
21911SOL    HW183343  11.515   5.651   6.705 -0.1912 -0.6729 -0.7680
21911SOL    HW283344  11.407   5.606   6.802  0.0474  0.0631 -0.1564
21912SOL     OW83345   8.366  13.384  10.259 -0.2465 -0.0051 -0.4429
21912SOL    HW183346   8.342  13.340  10.341  0.4414  1.3334  0.5240
21912SOL    HW283347   8.461  13.376  10.255 -0.4400 -1.8675 -2.2146
21913SOL     OW83348   4.615  13.418   5.422  0.4840 -0.2197 -0.5726
21913SOL    HW183349   4.693  13.448   5.469 -0.2765 -0.3764  0.8398
21913SOL    HW283350   4.648  13.388   5.337  1.8899  0.1660 -0.1814
21914SOL     OW83351  11.700   5.524   3.696 -0.1028  0.1388 -0.0618
21914SOL    HW183352  11.651   5.600   3.665 -0.0460  0.2163  0.0406
21914SOL    HW283353  11.660   5.502   3.779  2.0075  2.1043  1.6025
21915SOL     OW83354  12.415  13.130   1.071  0.2194  0.4295 -0.0700
21915SOL    HW183355  12.357  13.063   1.034  1.6768 -0.8878 -0.0982
21915SOL    HW283356  12.404  13.122   1.166  0.5952 -0.0706 -0.0627
21916SOL     OW83357   5.343   9.919   5.392 -0.6180 -0.3862 -0.8270
21916SOL    HW183358   5.287   9.933   5.316 -0.3320 -0.3785 -1.0391
21916SOL    HW283359   5.432   9.925   5.357 -0.4729 -2.0304 -0.8088
21917SOL     OW83360  10.319   2.777   7.853 -0.4250  0.0615  0.0468
21917SOL    HW183361  10.287   2.688   7.867 -0.8162 -0.0807 -1.5591
21917SOL    HW283362  10.242   2.827   7.826 -0.4156  1.1672  1.8370
21918SOL     OW83363  10.377   9.070   3.584 -0.2491  0.0757  0.2275
21918SOL    HW183364  10.395   8.977   3.578 -0.3643 -0.1350  2.2842
21918SOL    HW283365  10.294   9.082   3.538 -0.3183 -0.8683  0.0962
21919SOL     OW83366   4.673   3.927   1.090  0.1884  0.4339  0.1170
21919SOL    HW183367   4.731   3.954   1.019 -0.3177  0.4222 -0.3065
21919SOL    HW283368   4.651   3.836   1.069  2.6060 -0.6921  2.0081
21920SOL     OW83369   1.348  13.861  13.125 -0.1113  0.8021 -0.1956
21920SOL    HW183370   1.282  13.863  13.056 -0.1645  1.9024 -0.1221
21920SOL    HW283371   1.336  13.943  13.173  0.9699  0.7819  0.1417
21921SOL     OW83372  12.073   2.666  12.984 -0.7222 -0.0822 -0.3058
21921SOL    HW183373  12.165   2.688  12.971 -0.1391 -1.2756  1.4762
21921SOL    HW283374  12.027   2.716  12.917  0.9015  3.0509  0.7127
21922SOL     OW83375   0.714   9.365   2.482  0.3334  0.0023 -0.2449
21922SOL    HW183376   0.795   9.347   2.435 -0.6102 -1.0271 -1.5382
21922SOL    HW283377   0.688   9.281   2.519 -1.3998 -0.2430 -1.9116
21923SOL     OW83378  12.555   5.731  13.126  0.0964 -0.1051  0.2625
21923SOL    HW183379  12.634   5.711  13.175 -1.3568  0.4253  3.0162
21923SOL    HW283380  12.486   5.681  13.170 -1.2069 -0.2492 -1.7979
21924SOL     OW83381   1.006   5.021  10.521 -0.3784  0.6926 -0.0480
21924SOL    HW183382   0.914   5.038  10.539 -0.8086  0.8198 -2.1532
21924SOL    HW283383   1.033   4.959  10.589 -1.7497  1.3261  1.1257
21925SOL     OW83384   7.408   1.507   1.522  0.4905  0.1350  0.4778
21925SOL    HW183385   7.329   1.526   1.573  0.6799 -2.4387  1.9064
21925SOL    HW283386   7.441   1.593   1.495 -2.4708  1.3156  0.2558
21926SOL     OW83387   2.070   4.713   0.804  0.0552  0.2357  0.8125
21926SOL    HW183388   2.054   4.804   0.831 -0.6625  1.0650 -2.0523
21926SOL    HW283389   2.159   4.694   0.835  1.6465  3.1849 -1.3852
21927SOL     OW83390   6.761   0.021  10.452  0.0405  0.1429 -0.1209
21927SOL    HW183391   6.773  -0.061  10.500  0.8976 -0.9104 -2.0154
21927SOL    HW283392   6.720   0.080  10.515  0.1211 -1.4849  1.5424
21928SOL     OW83393  10.072   4.905   2.817 -0.6943  0.1261 -0.2394
21928SOL    HW183394  10.147   4.956   2.847 -2.3452  2.0079  0.9478
21928SOL    HW283395  10.044   4.949   2.736 -1.0741  0.0367 -0.1603
21929SOL     OW83396   4.165   8.623  14.077 -0.1883  0.0758 -0.1060
21929SOL    HW183397   4.239   8.633  14.017 -0.7541  0.3060 -0.7903
21929SOL    HW283398   4.204   8.593  14.159  0.8066  1.3193 -0.0823
21930SOL     OW83399   1.748   5.594   7.985  0.0791 -0.7093 -0.1273
21930SOL    HW183400   1.735   5.612   7.892  0.0108 -0.8441 -0.1442
21930SOL    HW283401   1.668   5.551   8.013  0.3106 -1.1473 -0.1321
21931SOL     OW83402   4.930   4.398   2.977  0.0086 -0.1088 -0.1959
21931SOL    HW183403   5.012   4.389   2.927 -0.4155  1.0793 -1.1579
21931SOL    HW283404   4.901   4.308   2.992  1.7965 -0.5818  0.7150
21932SOL     OW83405   8.703   2.064   2.781 -0.2022  0.5613  0.2530
21932SOL    HW183406   8.768   2.088   2.716 -1.6201  0.1984 -1.3782
21932SOL    HW283407   8.728   1.976   2.809  0.9628  1.0965  0.9419
21933SOL     OW83408  13.459  12.455   6.531 -0.1276  0.5915  0.5290
21933SOL    HW183409  13.400  12.402   6.586 -0.9570  0.2956 -0.6190
21933SOL    HW283410  13.539  12.464   6.584 -0.7470 -0.0331  1.6097
21934SOL     OW83411   4.826   5.695   6.257  0.4390  0.6143 -0.2156
21934SOL    HW183412   4.879   5.734   6.188 -0.4834  0.9106 -0.7703
21934SOL    HW283413   4.802   5.769   6.313  1.2602  0.3634  0.4950
21935SOL     OW83414   4.230   9.288  13.783  0.1525 -0.9338 -0.5046
21935SOL    HW183415   4.145   9.303  13.823 -0.3978 -1.0712 -1.6040
21935SOL    HW283416   4.290   9.278  13.858 -0.7016 -0.4005  0.2698
21936SOL     OW83417  13.255  11.968   1.228 -0.3975  0.1932  0.3571
21936SOL    HW183418  13.164  11.995   1.224 -0.4102  0.1512  0.3586
21936SOL    HW283419  13.269  11.943   1.320 -0.2014  0.8390  0.5124
21937SOL     OW83420   8.877   2.363   4.251 -0.5354 -0.0648 -0.0530
21937SOL    HW183421   8.832   2.289   4.292  0.1081 -1.0410 -1.0467
21937SOL    HW283422   8.906   2.417   4.324  0.5787 -1.7536  0.8147
21938SOL     OW83423  13.207  11.235  12.908  0.3683  0.2766 -0.2235
21938SOL    HW183424  13.143  11.275  12.850 -2.1617 -0.8709  1.5882
21938SOL    HW283425  13.255  11.174  12.852 -1.2469 -0.0246 -1.3546
21939SOL     OW83426   0.669   0.080  10.901 -0.2221  0.1299 -0.6124
21939SOL    HW183427   0.645   0.147  10.965 -0.5773  0.9991 -1.6208
21939SOL    HW283428   0.635  -0.001  10.937 -0.5100  0.6184  0.2492
21940SOL     OW83429   5.773   1.920  14.056 -0.7053  0.2356 -0.1632
21940SOL    HW183430   5.687   1.962  14.067 -1.1132 -0.7425  0.5666
21940SOL    HW283431   5.787   1.873  14.137  1.9168  2.7233  1.0213
21941SOL     OW83432   2.815   5.620  10.141  0.5304 -0.1652 -0.3207
21941SOL    HW183433   2.838   5.598  10.051  1.9792 -2.4116  0.5314
21941SOL    HW283434   2.847   5.710  10.153 -0.5745  0.5435 -2.2764
21942SOL     OW83435   7.739  11.939   0.915 -0.5281 -0.0846 -0.1982
21942SOL    HW183436   7.781  12.007   0.968  0.2222 -0.2167 -0.6159
21942SOL    HW283437   7.759  11.963   0.825  0.7627 -1.4899 -0.3201
21943SOL     OW83438  12.726   9.243   0.671  0.4450  0.0675 -0.5204
21943SOL    HW183439  12.712   9.269   0.580  2.9484  0.8737 -0.7534
21943SOL    HW283440  12.821   9.243   0.681  0.2266  0.3368  2.1954
21944SOL     OW83441  13.566   3.827   1.729 -0.0755  0.2299  0.4472
21944SOL    HW183442  13.512   3.752   1.703  1.4180 -0.5099 -0.6592
21944SOL    HW283443  13.574   3.820   1.824 -1.7046  0.2384  0.6168
21945SOL     OW83444   0.953   2.951   4.871  0.3175  0.0321 -0.2400
21945SOL    HW183445   0.970   2.889   4.942 -1.3621 -1.2724 -0.8970
21945SOL    HW283446   0.917   3.028   4.914 -1.1196 -0.9189  0.3418
21946SOL     OW83447   2.018   0.622   4.135  0.3692 -0.1618 -0.7359
21946SOL    HW183448   2.061   0.702   4.164  0.2956  0.4755 -2.2944
21946SOL    HW283449   2.034   0.619   4.041  2.8855 -3.4914 -0.4011
21947SOL     OW83450   6.501   5.199   1.782 -0.0871 -0.0796 -0.1450
21947SOL    HW183451   6.430   5.219   1.722 -0.5974  0.3057  0.5700
21947SOL    HW283452   6.576   5.249   1.748 -0.2723 -0.1497 -0.6582
21948SOL     OW83453  10.878  13.449   8.106  0.0998 -0.1967  0.2786
21948SOL    HW183454  10.918  13.446   8.193  0.6614 -2.8766  0.0109
21948SOL    HW283455  10.799  13.397   8.115 -0.3234  0.2893 -0.5998
21949SOL     OW83456   2.706   5.364   1.062 -0.7355  0.1041  0.0412
21949SOL    HW183457   2.707   5.269   1.045 -0.4225 -0.0953  1.1336
21949SOL    HW283458   2.662   5.401   0.985  0.0138 -0.8283 -0.8640
21950SOL     OW83459   3.733   6.774   6.117 -0.0845 -0.2230 -0.5050
21950SOL    HW183460   3.776   6.736   6.040 -0.2998 -2.1148  0.2439
21950SOL    HW283461   3.775   6.730   6.191 -1.9227 -0.6560  0.3256
21951SOL     OW83462   1.236   4.114  13.767  0.4506  0.2838 -0.2366
21951SOL    HW183463   1.282   4.159  13.838 -0.2217  0.7872 -0.1140
21951SOL    HW283464   1.158   4.077  13.808  0.4752 -0.1340 -0.5506
21952SOL     OW83465  13.123   6.462   7.534  0.1399  0.2111 -0.1728
21952SOL    HW183466  13.065   6.538   7.526  0.7992  0.5515 -2.6453
21952SOL    HW283467  13.089   6.400   7.470 -0.3889 -1.6668  1.8160
21953SOL     OW83468   0.780   3.763   2.268  0.2716  0.0686 -0.5726
21953SOL    HW183469   0.815   3.743   2.181  2.2593  2.2094 -0.3584
21953SOL    HW283470   0.725   3.840   2.254 -0.5082 -0.3853 -0.1067
21954SOL     OW83471   0.397   3.343   9.685 -0.5153 -0.5284  0.2958
21954SOL    HW183472   0.346   3.421   9.707 -0.5526 -0.4017 -0.2193
21954SOL    HW283473   0.386   3.333   9.590 -2.7954 -2.7654  0.6896
21955SOL     OW83474   3.749   0.161   5.528  0.1121 -0.3007 -0.1987
21955SOL    HW183475   3.737   0.255   5.511 -0.2178 -0.1840  0.6351
21955SOL    HW283476   3.746   0.153   5.623  1.0345 -1.0449 -0.2088
21956SOL     OW83477   5.453  13.629   0.511 -0.5225 -0.3693 -0.2324
21956SOL    HW183478   5.492  13.695   0.569 -1.7889 -0.3400  0.6338
21956SOL    HW283479   5.370  13.667   0.484 -1.0952 -1.4387 -0.0380
21957SOL     OW83480   8.914   6.487   8.331 -0.0708 -0.0456  0.1380
21957SOL    HW183481   8.934   6.396   8.352 -1.5280 -0.5073 -0.3387
21957SOL    HW283482   8.989   6.517   8.279  0.6321 -0.8144  0.6860
21958SOL     OW83483   1.881   4.283  11.955  0.2850  0.5970  0.1496
21958SOL    HW183484   1.869   4.283  12.050  1.3549  1.2788  0.3013
21958SOL    HW283485   1.835   4.205  11.925  0.6882 -0.1145  1.3272
21959SOL     OW83486   1.286  13.318   7.065  0.0372 -0.2812  0.4204
21959SOL    HW183487   1.203  13.285   7.100  0.7822 -1.1329  1.4408
21959SOL    HW283488   1.292  13.408   7.097 -0.9056  0.1073 -0.4294
21960SOL     OW83489   7.427   9.472  12.206  0.1438 -0.6274  0.1458
21960SOL    HW183490   7.332   9.475  12.222 -0.1784 -0.9201 -1.5588
21960SOL    HW283491   7.446   9.553  12.160  1.0448  0.1816  1.8407
21961SOL     OW83492   9.889   6.129  11.655 -0.4140 -0.2369  0.7983
21961SOL    HW183493   9.840   6.098  11.731 -1.6867  0.2781  0.2246
21961SOL    HW283494   9.858   6.219  11.641 -1.3516 -0.8051 -1.2036
21962SOL     OW83495   4.182   6.186   5.363  0.1093  0.0793 -0.2141
21962SOL    HW183496   4.211   6.125   5.431  0.1668  1.1429  0.7340
21962SOL    HW283497   4.202   6.272   5.398 -0.6683  0.6851 -1.2206
21963SOL     OW83498   0.831   1.324   6.609  0.2380  0.1432  0.0900
21963SOL    HW183499   0.745   1.291   6.582 -0.1322  0.8008  0.4406
21963SOL    HW283500   0.893   1.258   6.577 -0.5762 -1.7282  2.1182
21964SOL     OW83501   1.101  10.525   1.827  0.1907 -0.5770 -0.0608
21964SOL    HW183502   1.103  10.498   1.736  0.7354  0.0107 -0.2379
21964SOL    HW283503   1.009  10.519   1.853 -0.0084 -0.4599 -0.7351
21965SOL     OW83504  10.461   3.622  13.368  0.0524 -0.3496  0.3359
21965SOL    HW183505  10.436   3.535  13.399 -0.2087 -1.6239 -3.0164
21965SOL    HW283506  10.556   3.618  13.359  0.0578 -0.2173  0.3244
21966SOL     OW83507  13.696   2.946   1.188 -0.4402  0.1103 -0.4067
21966SOL    HW183508  13.739   3.014   1.241 -1.2535 -0.4893  1.0941
21966SOL    HW283509  13.760   2.924   1.120  0.3963  1.3622 -0.0495
21967SOL     OW83510   5.860   0.814   6.104 -0.7064  0.3156  0.0249
21967SOL    HW183511   5.785   0.754   6.111 -0.5160  0.2078  1.4464
21967SOL    HW283512   5.865   0.856   6.190  2.9070 -2.1650  1.2993
21968SOL     OW83513   2.177  12.896  12.345  0.0930 -0.2257  0.1269
21968SOL    HW183514   2.140  12.821  12.299  1.0517 -0.5979 -0.0712
21968SOL    HW283515   2.245  12.929  12.286 -1.2712  1.7075 -0.4400
21969SOL     OW83516   9.313   1.224  11.669 -0.4027  0.1635 -0.0255
21969SOL    HW183517   9.373   1.225  11.594  0.1764  1.8768  0.4018
21969SOL    HW283518   9.348   1.158  11.728  1.6925  1.7701  0.6446
21970SOL     OW83519   9.580   2.205  10.484  0.3466  0.2961 -0.1741
21970SOL    HW183520   9.634   2.272  10.524 -0.5191  1.2566 -0.5652
21970SOL    HW283521   9.505   2.196  10.543  0.4635 -0.3691 -0.1091
21971SOL     OW83522   7.520   4.070  10.099  0.1596  0.0200 -0.3509
21971SOL    HW183523   7.529   3.996  10.159  0.5111  1.1520  1.0409
21971SOL    HW283524   7.570   4.141  10.140 -0.8174  1.2759 -1.2416
21972SOL     OW83525   6.750   6.536  11.038  0.0570  0.7135 -0.5774
21972SOL    HW183526   6.674   6.490  11.073  0.1472  1.5130  0.7311
21972SOL    HW283527   6.809   6.466  11.010  0.3810 -0.0280  1.7597
21973SOL     OW83528   5.903  13.723  10.813 -0.0164  0.0700  0.2745
21973SOL    HW183529   5.969  13.787  10.842 -0.7674  0.9975 -0.0005
21973SOL    HW283530   5.892  13.742  10.719  0.9660 -1.5950 -0.2228
21974SOL     OW83531   5.067   1.191   7.719 -0.5203  0.2287 -0.2289
21974SOL    HW183532   4.973   1.193   7.737 -0.4837  0.0160 -0.0094
21974SOL    HW283533   5.073   1.198   7.624 -0.7891 -0.4617 -0.3046
21975SOL     OW83534   4.418   0.277   5.509  0.2846  0.3261 -0.3668
21975SOL    HW183535   4.451   0.333   5.579  0.4118  0.1149 -0.2565
21975SOL    HW283536   4.337   0.319   5.480  0.2220  0.4023 -0.0801
21976SOL     OW83537   0.904   0.472   1.830  0.0043 -0.2732  0.1599
21976SOL    HW183538   0.949   0.393   1.857  0.6172  0.1845  0.4951
21976SOL    HW283539   0.830   0.441   1.777  0.0770 -1.0704  0.5167
21977SOL     OW83540   7.777   3.002   4.969  0.3572 -0.2471  0.2304
21977SOL    HW183541   7.854   2.956   5.000  0.6578  0.7033  0.9418
21977SOL    HW283542   7.720   3.008   5.045  0.0477 -0.0124 -0.0128
21978SOL     OW83543  13.469  12.435   6.967 -0.0272  0.5015  0.4012
21978SOL    HW183544  13.436  12.506   6.911 -0.1060 -0.7755 -1.2660
21978SOL    HW283545  13.563  12.449   6.972 -0.0931  0.9428  0.4071
21979SOL     OW83546   1.169   3.394   8.621 -0.2413  0.0452 -0.1232
21979SOL    HW183547   1.087   3.403   8.574 -0.8568  0.1566  0.9531
21979SOL    HW283548   1.217   3.326   8.573 -0.3099  1.0169 -1.6322
21980SOL     OW83549  13.928   5.980  12.577  0.5663  0.1993  0.3538
21980SOL    HW183550  13.969   6.027  12.505  1.0992 -2.0181 -0.8953
21980SOL    HW283551  13.940   6.037  12.653  1.5017  1.8554 -0.9679
21981SOL     OW83552  12.959   4.002   8.701 -0.6933  0.2692  0.3036
21981SOL    HW183553  13.010   4.050   8.767  0.3541 -0.8212  0.3087
21981SOL    HW283554  13.014   3.928   8.676 -1.4876  0.1075 -1.0963
21982SOL     OW83555   7.210  13.802   0.373  0.6182  0.3921 -0.3397
21982SOL    HW183556   7.206  13.812   0.278  0.2790  0.1385 -0.3564
21982SOL    HW283557   7.279  13.737   0.387  1.3257  1.1320 -0.3536
21983SOL     OW83558   3.708   2.322   0.822 -0.3141 -0.6378  0.5162
21983SOL    HW183559   3.754   2.367   0.892  0.4912 -1.0105  0.2340
21983SOL    HW283560   3.708   2.384   0.749 -1.5613 -0.0674  0.9782
21984SOL     OW83561   3.816   3.789   4.699 -0.3467 -0.5040 -0.3094
21984SOL    HW183562   3.787   3.802   4.608  0.5257  0.1488 -0.5083
21984SOL    HW283563   3.854   3.873   4.724 -2.8452  0.1837  1.5528
21985SOL     OW83564   5.295   1.621  10.395 -0.4829 -0.2815 -0.1068
21985SOL    HW183565   5.222   1.602  10.454 -0.0111 -3.6488 -0.3984
21985SOL    HW283566   5.363   1.559  10.420  0.6042 -0.2556 -2.6719
21986SOL     OW83567   8.797  10.116   7.306  0.7383  0.3983 -0.2331
21986SOL    HW183568   8.719  10.110   7.362  1.1206  2.0163  0.5427
21986SOL    HW283569   8.870  10.100   7.365  1.1491  2.1072 -0.2430
21987SOL     OW83570   5.231  11.364  13.785  0.5933  0.0009  0.0322
21987SOL    HW183571   5.315  11.395  13.750  0.7473 -0.8582 -0.3761
21987SOL    HW283572   5.172  11.366  13.710  0.7089 -1.0492 -0.1005
21988SOL     OW83573   1.109   2.077  13.614 -0.1462 -0.3013  0.2178
21988SOL    HW183574   1.149   2.136  13.550  0.0930  0.8547  1.3933
21988SOL    HW283575   1.184   2.034  13.656 -0.3349 -2.4191 -1.4515
21989SOL     OW83576   6.995   0.527  10.027 -0.2462  0.3396  0.1289
21989SOL    HW183577   6.915   0.547  10.075 -1.1160 -1.2279 -0.5700
21989SOL    HW283578   6.986   0.574   9.944 -1.5727 -1.5284 -0.8832
21990SOL     OW83579   2.664  10.018   4.501  0.2057 -0.3340  0.4573
21990SOL    HW183580   2.703  10.066   4.574  1.0767 -0.7122  0.2508
21990SOL    HW283581   2.576   9.995   4.532  0.6832 -0.7869  1.5159
21991SOL     OW83582   2.453   9.718   8.289  0.2078 -0.3794 -0.3982
21991SOL    HW183583   2.547   9.735   8.279  0.2854  1.7249  2.6746
21991SOL    HW283584   2.410   9.795   8.252 -0.0762  0.3938  1.4395
21992SOL     OW83585   3.192   7.435   5.772 -0.0031 -0.1089 -0.4265
21992SOL    HW183586   3.185   7.423   5.867 -0.7452  0.5987 -0.3732
21992SOL    HW283587   3.153   7.356   5.735  1.8491 -1.1874 -0.1772
21993SOL     OW83588   0.780   9.688   8.227 -0.6549  0.6567 -0.3536
21993SOL    HW183589   0.750   9.614   8.175  3.5129 -2.1013  0.6594
21993SOL    HW283590   0.842   9.733   8.169 -1.0718  1.7344  0.0136
21994SOL     OW83591  10.859   2.887   2.971 -0.2279 -0.5600  0.7119
21994SOL    HW183592  10.789   2.884   3.036  1.7115 -0.4729  2.9615
21994SOL    HW283593  10.857   2.977   2.938 -1.3965 -0.6681  0.4675
21995SOL     OW83594   7.696  13.256   2.588 -0.9153  0.3742  0.2826
21995SOL    HW183595   7.684  13.325   2.523 -1.1902 -0.9326 -1.1329
21995SOL    HW283596   7.631  13.274   2.656 -0.1164  2.2028  0.6222
21996SOL     OW83597   2.544   5.320  11.174 -0.7173  0.1586  0.3113
21996SOL    HW183598   2.631   5.352  11.154 -1.3490  2.5501  1.1044
21996SOL    HW283599   2.544   5.230  11.142  0.8443  1.1850 -2.9795
21997SOL     OW83600  12.469   1.637   4.640 -0.2171  0.0859  0.0478
21997SOL    HW183601  12.385   1.597   4.619  0.2001 -0.2283 -1.0714
21997SOL    HW283602  12.506   1.663   4.556  0.9912 -0.1523  0.4706
21998SOL     OW83603  13.028   4.502   8.247  0.5094  0.6648 -0.3445
21998SOL    HW183604  13.021   4.579   8.190 -1.3101 -0.1636 -1.3062
21998SOL    HW283605  13.000   4.429   8.193  1.1976 -0.5502  0.8771
21999SOL     OW83606   3.175   7.625  12.139  0.2872 -0.0372 -0.3204
21999SOL    HW183607   3.248   7.582  12.183 -1.2330 -0.7929  1.6397
21999SOL    HW283608   3.156   7.702  12.194 -1.2724 -0.6593  0.0707
22000SOL     OW83609   4.020  10.699   4.827 -0.3071 -0.2269 -0.0045
22000SOL    HW183610   3.931  10.699   4.863  0.3707  0.4775  1.7913
22000SOL    HW283611   4.067  10.635   4.881  0.9793  1.5373  1.0569
22001SOL     OW83612   5.482  12.502   4.104  0.6536 -0.2942 -0.1695
22001SOL    HW183613   5.492  12.502   4.009  0.9734 -0.1631 -0.1355
22001SOL    HW283614   5.561  12.544   4.137 -0.2579  1.3569  0.0631
22002SOL     OW83615  11.870   8.476   8.565 -0.0780  0.4853 -0.2016
22002SOL    HW183616  11.856   8.510   8.476  1.7761  3.0997  0.3646
22002SOL    HW283617  11.788   8.494   8.611 -0.2236  1.3825 -0.7801
22003SOL     OW83618   5.361   0.344   9.607 -0.0610  0.4385  0.8079
22003SOL    HW183619   5.350   0.249   9.608 -0.7249  0.4930  2.9661
22003SOL    HW283620   5.416   0.361   9.531  0.1805 -1.6807  0.4578
22004SOL     OW83621   5.863   7.756   2.954  0.0648  0.0994 -0.1527
22004SOL    HW183622   5.913   7.760   3.035  1.7026  0.1218 -1.1375
22004SOL    HW283623   5.814   7.673   2.961  1.8486 -1.0083 -0.0497
22005SOL     OW83624   4.316   8.980   6.800  0.5330 -0.2506  0.2881
22005SOL    HW183625   4.382   9.036   6.760  0.9664  0.3061  1.7070
22005SOL    HW283626   4.362   8.933   6.869 -0.2889 -0.7891  0.4916
22006SOL     OW83627  10.182   5.995  10.310  0.5838  0.1037 -0.2061
22006SOL    HW183628  10.150   5.935  10.243 -0.1866  0.6702 -0.3607
22006SOL    HW283629  10.107   6.009  10.368  1.4047 -0.8711  1.1685
22007SOL     OW83630  10.435   3.506   8.522  0.1770  0.1355 -0.3114
22007SOL    HW183631  10.511   3.490   8.578  1.0335  0.9970 -1.1875
22007SOL    HW283632  10.406   3.594   8.547 -0.7243 -0.2958  0.2101
22008SOL     OW83633   9.859  11.018  13.636  0.1735 -0.3562  0.0395
22008SOL    HW183634   9.892  10.931  13.660  1.3250 -0.4882 -1.8091
22008SOL    HW283635   9.901  11.078  13.697 -0.0390 -1.0064  0.8421
22009SOL     OW83636   2.927  11.009   1.951 -0.4454 -0.1824 -0.5793
22009SOL    HW183637   2.869  11.033   1.879 -1.4009 -1.5804 -0.3241
22009SOL    HW283638   3.002  10.968   1.908 -0.6139 -0.2461 -0.8170
22010SOL     OW83639   4.696  12.039   6.808 -1.0685 -0.2359 -0.0475
22010SOL    HW183640   4.778  12.089   6.808  0.2410 -2.2601 -0.2400
22010SOL    HW283641   4.716  11.960   6.859 -2.7473 -1.0326 -0.5508
22011SOL     OW83642  11.074   7.947   6.030 -0.2442 -0.4954  0.0220
22011SOL    HW183643  11.134   7.875   6.051  0.3915 -0.3022 -1.0749
22011SOL    HW283644  11.053   7.986   6.115  1.0125 -0.7129  0.4536
22012SOL     OW83645  13.812   0.256   3.050  0.1743 -0.2589  0.1239
22012SOL    HW183646  13.817   0.317   2.976  0.8402 -0.7100 -0.2171
22012SOL    HW283647  13.746   0.294   3.108 -1.1512 -0.4495 -1.1947
22013SOL     OW83648   1.713  13.961   5.915 -0.3416 -0.4744  0.3704
22013SOL    HW183649   1.664  14.036   5.882  1.0370 -0.1514 -1.0764
22013SOL    HW283650   1.771  13.997   5.982 -1.2048 -0.6571  1.2414
22014SOL     OW83651   8.839   0.361  11.959  0.2819  0.2284 -0.0441
22014SOL    HW183652   8.767   0.414  11.925  0.0227  0.0424  0.2080
22014SOL    HW283653   8.915   0.385  11.905  0.0843  0.5879 -0.1647
22015SOL     OW83654   2.927   1.024  10.628 -0.4278  0.0578  0.0284
22015SOL    HW183655   2.927   1.097  10.690  2.1023 -0.3718  0.6523
22015SOL    HW283656   3.020   1.007  10.611 -0.9564 -2.4669 -0.7595
22016SOL     OW83657   2.163  12.837   7.306 -0.2183  0.0818  0.0601
22016SOL    HW183658   2.177  12.761   7.361 -1.4638 -2.1925 -2.5531
22016SOL    HW283659   2.247  12.850   7.261 -0.7904 -1.6128 -1.5863
22017SOL     OW83660   6.298   5.461   2.116 -0.4225 -0.0775 -0.7469
22017SOL    HW183661   6.333   5.393   2.173 -2.1564 -0.9256 -0.6485
22017SOL    HW283662   6.367   5.527   2.114  0.5080 -0.9347  0.7196
22018SOL     OW83663   7.838   1.721  11.461 -0.3129 -0.0196 -0.0460
22018SOL    HW183664   7.913   1.692  11.408 -0.9530 -0.4581 -0.7385
22018SOL    HW283665   7.847   1.673  11.543  1.1103  1.2256  0.5754
22019SOL     OW83666   0.029   4.819  13.233 -0.2827 -0.2745  0.0405
22019SOL    HW183667  -0.041   4.867  13.189 -1.4530 -3.9314 -2.5261
22019SOL    HW283668  -0.011   4.789  13.315 -0.4679  0.6667  0.3068
22020SOL     OW83669  12.506   3.008  10.279 -0.2602 -0.2523 -0.0062
22020SOL    HW183670  12.452   3.048  10.211  0.6695  0.8680 -0.1214
22020SOL    HW283671  12.517   3.076  10.345  0.8397 -0.5010  0.1015
22021SOL     OW83672   8.082   7.233   2.974  0.8640 -0.2288 -0.2393
22021SOL    HW183673   8.109   7.307   2.920 -0.2939 -0.2182 -0.8411
22021SOL    HW283674   8.072   7.270   3.062 -2.5383  1.1380 -1.0188
22022SOL     OW83675   6.046  13.719   1.719  0.2913  0.2737  0.3857
22022SOL    HW183676   6.041  13.718   1.623 -1.5120  1.2339  0.4125
22022SOL    HW283677   6.116  13.658   1.740  2.5758  1.9816 -1.6346
22023SOL     OW83678   9.626   9.524   7.692 -0.5418  0.3841 -0.2349
22023SOL    HW183679   9.619   9.435   7.726  0.1815  0.4923  0.2231
22023SOL    HW283680   9.573   9.577   7.752 -0.5092  0.3464 -0.1733
22024SOL     OW83681   3.645  12.137  10.962 -0.4523  0.2248  0.2121
22024SOL    HW183682   3.681  12.212  11.008 -1.2890  0.1795  0.9750
22024SOL    HW283683   3.555  12.130  10.994 -1.4519  0.8321 -2.2110
22025SOL     OW83684   0.210  12.290  13.319  0.1197  0.1767 -0.4416
22025SOL    HW183685   0.213  12.284  13.414  0.2163  1.0385 -0.3793
22025SOL    HW283686   0.118  12.308  13.299 -0.1170 -1.1196 -0.5998
22026SOL     OW83687   5.280  10.346   7.187 -0.3139  0.4019  0.2545
22026SOL    HW183688   5.302  10.302   7.105  1.8493 -0.8146  1.4003
22026SOL    HW283689   5.190  10.319   7.205 -0.5292 -0.0030 -1.2752
22027SOL     OW83690   1.317   1.647   6.937 -1.0136  0.0583 -0.7184
22027SOL    HW183691   1.228   1.618   6.916 -0.0584 -1.9157 -2.3233
22027SOL    HW283692   1.366   1.566   6.949  0.9407  1.0819 -1.4630
22028SOL     OW83693   3.388   2.880   1.189  0.6512  0.0032 -0.4062
22028SOL    HW183694   3.411   2.937   1.263 -0.8454  0.7206 -0.4459
22028SOL    HW283695   3.353   2.940   1.123 -0.3765 -0.8866 -0.7023
22029SOL     OW83696  10.330   6.249  10.227  0.3186 -0.3556 -0.0660
22029SOL    HW183697  10.420   6.216  10.231  0.5238  0.2404  2.4427
22029SOL    HW283698  10.277   6.179  10.267 -0.2266 -0.3627 -0.7799
22030SOL     OW83699   2.739   9.796   7.706 -0.2711 -0.2621  0.2000
22030SOL    HW183700   2.662   9.739   7.708  0.0135 -0.7317  4.1447
22030SOL    HW283701   2.810   9.740   7.674 -1.0411 -0.4623 -1.2678
22031SOL     OW83702  11.491   0.750   1.609  0.3465  0.1667  0.2761
22031SOL    HW183703  11.469   0.770   1.700 -0.6920 -0.8006  0.2634
22031SOL    HW283704  11.428   0.800   1.557 -0.3426 -0.7975  0.1620
22032SOL     OW83705   4.744   1.917   4.690  0.2949  0.0539  0.0338
22032SOL    HW183706   4.740   1.906   4.785  3.0169  1.7608  0.4332
22032SOL    HW283707   4.734   2.011   4.676  3.2462  0.3142 -1.0099
22033SOL     OW83708   2.376   2.347   6.278  0.0989 -0.5153  0.4606
22033SOL    HW183709   2.450   2.400   6.251  1.9927 -2.0983  2.2446
22033SOL    HW283710   2.392   2.327   6.370 -1.3256 -2.8561  0.3065
22034SOL     OW83711  11.266   4.743  11.791  0.6120  0.5345 -0.3296
22034SOL    HW183712  11.321   4.808  11.834  0.9092 -0.5050  0.9019
22034SOL    HW283713  11.273   4.665  11.845 -0.6763 -0.1765 -1.1272
22035SOL     OW83714  10.131   4.236  13.437  0.9374  0.2695  0.0484
22035SOL    HW183715  10.198   4.227  13.505  2.0051  1.5436 -0.7744
22035SOL    HW283716  10.178   4.274  13.362 -0.7707  1.5425 -0.4431
22036SOL     OW83717   8.233   0.581   0.309  0.5080 -0.0628  0.8308
22036SOL    HW183718   8.268   0.644   0.245 -0.9182  0.1694  0.2195
22036SOL    HW283719   8.246   0.623   0.394 -0.9810  1.4154  0.3936
22037SOL     OW83720   9.127  10.048  13.364  0.6005 -0.1490 -0.4436
22037SOL    HW183721   9.171  10.122  13.407  1.2230  0.2072 -1.6464
22037SOL    HW283722   9.191   9.977  13.368 -1.0176 -1.6555  3.2991
22038SOL     OW83723   5.703   3.316   5.203 -0.1561  0.4028 -0.2416
22038SOL    HW183724   5.630   3.370   5.233  1.3726  2.5209 -0.0732
22038SOL    HW283725   5.662   3.243   5.157 -2.3863  0.8274  0.9149
22039SOL     OW83726   0.883   5.626   6.266 -0.3831 -0.3293  0.1315
22039SOL    HW183727   0.799   5.665   6.288  0.0497  0.3537  0.6311
22039SOL    HW283728   0.942   5.656   6.336  0.2156 -0.9968 -0.0737
22040SOL     OW83729  12.611   5.890  12.212  0.7035 -0.0149 -0.1081
22040SOL    HW183730  12.571   5.815  12.168  0.8639  0.4723 -1.0946
22040SOL    HW283731  12.655   5.851  12.288 -0.5351 -0.7147  0.2900
22041SOL     OW83732   7.925   0.858  13.524 -0.1858 -0.0979 -0.1470
22041SOL    HW183733   7.908   0.803  13.448  1.9639  0.8573 -1.4030
22041SOL    HW283734   7.878   0.815  13.595 -1.7548 -1.3775 -1.8527
22042SOL     OW83735   2.482   1.602   2.486  0.0489 -0.3872 -0.0406
22042SOL    HW183736   2.492   1.694   2.512 -0.5063 -0.0966 -0.8153
22042SOL    HW283737   2.388   1.587   2.486  0.1727 -1.2022  0.8720
22043SOL     OW83738   8.995   0.647  11.975 -0.7860  0.1437 -0.1566
22043SOL    HW183739   9.086   0.669  11.996 -0.9696 -1.1796  2.4126
22043SOL    HW283740   8.955   0.630  12.060 -2.8083 -1.6772 -1.3988
22044SOL     OW83741   0.032   8.863   1.119 -0.2329 -0.0268 -0.5972
22044SOL    HW183742   0.014   8.941   1.067 -1.1634  1.4676  1.7991
22044SOL    HW283743   0.071   8.897   1.200  1.6511 -2.2675 -0.4517
22045SOL     OW83744  11.400   4.959   7.065 -0.1385  0.5403  0.4252
22045SOL    HW183745  11.474   4.918   7.021 -1.0067 -1.5596  0.7715
22045SOL    HW283746  11.367   5.025   7.004  0.7994  0.1110 -0.5530
22046SOL     OW83747  12.393  10.949   2.323 -0.5006  0.6482  0.0603
22046SOL    HW183748  12.377  10.855   2.310 -0.2171  0.7571 -1.2597
22046SOL    HW283749  12.477  10.953   2.368  0.8544  0.2664 -2.2458
22047SOL     OW83750   7.989   9.262  12.475  0.2123  0.5932  0.1537
22047SOL    HW183751   7.957   9.177  12.447  1.5463 -1.3578  3.8932
22047SOL    HW283752   8.080   9.265  12.446 -0.0420  1.1301 -0.6271
22048SOL     OW83753   6.608  13.848   8.442 -0.4560  0.1096 -0.0745
22048SOL    HW183754   6.522  13.886   8.458 -0.8130 -0.5760 -0.3656
22048SOL    HW283755   6.637  13.816   8.527 -1.0719 -0.8669 -0.2283
22049SOL     OW83756   2.709  10.254   8.360 -0.7031  0.2967 -0.4602
22049SOL    HW183757   2.718  10.279   8.452 -1.8041 -2.1601  0.3947
22049SOL    HW283758   2.798  10.236   8.331 -0.4211  0.3406  0.3524
22050SOL     OW83759  11.031   7.102  13.447  0.3422  0.1109  0.7791
22050SOL    HW183760  10.977   7.163  13.498 -0.7346 -1.6084  1.8047
22050SOL    HW283761  10.978   7.023  13.440  2.9782 -2.0433  2.6182
22051SOL     OW83762  12.224   5.460   5.329 -0.1755 -0.1105 -0.0826
22051SOL    HW183763  12.161   5.529   5.349  1.4703  0.8532  2.1634
22051SOL    HW283764  12.194   5.385   5.380  1.4618  0.9478  2.6165
22052SOL     OW83765   2.498   0.610   1.032 -0.1450  0.1159 -0.0592
22052SOL    HW183766   2.461   0.526   1.007  1.5384 -0.7318  0.1512
22052SOL    HW283767   2.585   0.611   0.993 -0.6976  2.4818 -1.4213
22053SOL     OW83768   1.695  12.583  13.950 -0.5903  0.8577 -0.5333
22053SOL    HW183769   1.741  12.660  13.918 -0.7115  0.4672 -1.6660
22053SOL    HW283770   1.605  12.594  13.920 -0.5090  0.0558 -1.1096
22054SOL     OW83771   1.366   2.708   9.249  0.5902 -0.2712 -0.2632
22054SOL    HW183772   1.421   2.671   9.318  2.0729  0.3126 -1.0625
22054SOL    HW283773   1.338   2.793   9.283  0.2518 -0.5323  0.1150
22055SOL     OW83774  11.467   1.207  11.727 -0.0984  0.2146 -0.2241
22055SOL    HW183775  11.484   1.158  11.808  0.2244 -0.6165 -0.7713
22055SOL    HW283776  11.530   1.279  11.729  0.1697 -0.0228  0.0888
22056SOL     OW83777   6.511  12.517  13.653  0.0197  0.0566  1.1424
22056SOL    HW183778   6.477  12.526  13.564  1.6048 -1.2251  0.3607
22056SOL    HW283779   6.543  12.604  13.676  0.2652  0.2298  0.1588
22057SOL     OW83780   5.388   1.132   7.682  0.3533 -0.2164  0.8795
22057SOL    HW183781   5.310   1.169   7.723  0.0259  1.7247 -1.3072
22057SOL    HW283782   5.456   1.199   7.695  0.2430  0.4669 -1.5507
22058SOL     OW83783  12.829  12.969   9.589 -0.4222 -0.6443 -0.1732
22058SOL    HW183784  12.854  12.970   9.497  1.1718  2.7372  0.1572
22058SOL    HW283785  12.740  13.005   9.591  0.5558  1.9672 -0.2903
22059SOL     OW83786   0.973   6.990   9.340  0.2647  0.1868  0.1745
22059SOL    HW183787   0.914   6.981   9.415 -0.1696 -0.9067 -0.2694
22059SOL    HW283788   0.953   6.913   9.286  0.7855  0.8021 -0.9058
22060SOL     OW83789  11.507   0.637  11.299 -0.5326  0.6027  0.0186
22060SOL    HW183790  11.448   0.677  11.363  0.8217  0.9480  1.0920
22060SOL    HW283791  11.577   0.599  11.352  0.3411  0.4218 -1.2345
22061SOL     OW83792   5.026  11.690   0.592  0.0357  0.2636 -0.0702
22061SOL    HW183793   5.110  11.685   0.638  0.5634  0.6536 -0.9484
22061SOL    HW283794   5.010  11.784   0.584 -1.8186  0.2481  2.3831
22062SOL     OW83795   5.984  10.337   7.213  0.0775  0.5340 -0.5893
22062SOL    HW183796   5.914  10.272   7.207  0.5934 -0.1546  0.5781
22062SOL    HW283797   5.969  10.395   7.138 -0.4508 -0.8718 -1.6053
22063SOL     OW83798  13.992   5.134   7.208  0.0968 -0.1881 -0.3015
22063SOL    HW183799  14.014   5.227   7.211 -0.1128 -0.1584  0.5013
22063SOL    HW283800  14.072   5.091   7.178  1.2110 -0.0475  2.2566
22064SOL     OW83801  10.648   3.888  10.061 -0.0078 -0.1643  0.4874
22064SOL    HW183802  10.565   3.934  10.070 -0.2649 -0.6397  0.5623
22064SOL    HW283803  10.703   3.947  10.009 -1.0020 -0.6366 -1.1799
22065SOL     OW83804   8.103   8.035   3.160  0.0236 -0.0113 -0.5540
22065SOL    HW183805   8.184   8.012   3.206  0.3871  0.0542 -1.1557
22065SOL    HW283806   8.049   7.957   3.168  0.4627 -0.3497 -0.8402
22066SOL     OW83807   6.956  13.747   4.659 -0.1122  0.7524  0.2759
22066SOL    HW183808   7.031  13.754   4.717  0.2418  0.4194 -0.1426
22066SOL    HW283809   6.966  13.663   4.616 -1.0980  0.3826  0.7276
22067SOL     OW83810   2.284  14.081   5.764  0.1101 -0.5091  0.1641
22067SOL    HW183811   2.375  14.105   5.748 -0.1645  0.5050  0.0821
22067SOL    HW283812   2.287  14.030   5.845  0.6920 -0.0784  0.4223
22068SOL     OW83813   7.757   6.813   3.955  0.1903  0.1392 -0.1029
22068SOL    HW183814   7.824   6.809   4.023  0.3607  0.4465 -0.2504
22068SOL    HW283815   7.691   6.872   3.991  0.7583  1.1107 -0.6153
22069SOL     OW83816   6.887   6.391   9.198  0.0175  0.1602  0.0851
22069SOL    HW183817   6.947   6.381   9.125  0.2649 -2.4050  0.5294
22069SOL    HW283818   6.942   6.382   9.276 -0.6107  0.0642  0.5278
22070SOL     OW83819   4.881   2.214   5.603  0.1714 -0.2750  0.5049
22070SOL    HW183820   4.850   2.169   5.682 -0.0457 -0.3331  0.3885
22070SOL    HW283821   4.807   2.268   5.576 -0.0410 -0.8618 -0.1112
22071SOL     OW83822   1.767   9.519   9.399  0.0755  0.1958 -0.5035
22071SOL    HW183823   1.843   9.577   9.401  1.0086 -0.8849 -2.2357
22071SOL    HW283824   1.781   9.459   9.473  0.8100  0.1184 -0.7024
22072SOL     OW83825  11.557   5.102   0.108  0.6734  0.6015  0.1297
22072SOL    HW183826  11.516   5.156   0.041 -1.2205 -0.6385  0.1873
22072SOL    HW283827  11.527   5.140   0.191  0.0023 -0.0081  0.1808
22073SOL     OW83828  10.300   7.771   1.683  0.3518 -0.2303 -0.4873
22073SOL    HW183829  10.251   7.696   1.648 -0.8996  1.1587 -1.8424
22073SOL    HW283830  10.386   7.763   1.643  0.6195 -1.5472  0.2769
22074SOL     OW83831   8.232   6.188   3.726  0.0768  0.1532 -0.5043
22074SOL    HW183832   8.312   6.171   3.676 -0.7946  0.2085 -1.9783
22074SOL    HW283833   8.194   6.265   3.685 -1.6775 -0.9632 -1.0736
22075SOL     OW83834   1.459   2.438   5.517 -0.0188 -0.0172 -0.6378
22075SOL    HW183835   1.517   2.398   5.452  0.7153  0.4713 -0.3104
22075SOL    HW283836   1.484   2.397   5.600 -0.5055 -0.1800 -0.5744
22076SOL     OW83837   3.529   9.272   9.451 -0.2140 -0.1113 -0.0705
22076SOL    HW183838   3.473   9.337   9.493 -1.1207 -0.5112 -0.6162
22076SOL    HW283839   3.522   9.194   9.506  0.3334  0.0334  0.2128
22077SOL     OW83840   2.401   9.541   2.397  0.6059 -0.0391  0.1976
22077SOL    HW183841   2.447   9.491   2.329  1.4628  0.6070  0.2894
22077SOL    HW283842   2.470   9.576   2.452 -0.0855 -0.5997  1.4630
22078SOL     OW83843   4.752   2.378   6.347  0.0088 -0.9651  0.2967
22078SOL    HW183844   4.777   2.428   6.425  0.8978 -0.3951 -0.3300
22078SOL    HW283845   4.691   2.435   6.301 -1.6161 -1.8725  1.2357
22079SOL     OW83846   1.565   2.566   4.904  0.0390 -0.4347  0.4218
22079SOL    HW183847   1.605   2.653   4.902  0.9431 -0.8410  0.3315
22079SOL    HW283848   1.639   2.505   4.901 -0.5530 -1.2094  1.0562
22080SOL     OW83849  12.129   7.639   0.490 -0.4469  0.3799  0.1101
22080SOL    HW183850  12.147   7.677   0.576 -1.3129  0.7575  0.1346
22080SOL    HW283851  12.033   7.636   0.485 -0.3973 -0.6206 -0.4163
22081SOL     OW83852   9.721   4.542   4.444  0.1062 -0.3493  0.5621
22081SOL    HW183853   9.721   4.638   4.440  1.3817 -0.3328  0.5515
22081SOL    HW283854   9.679   4.515   4.363  3.1474  0.2034 -1.3297
22082SOL     OW83855   7.653   5.684  11.847  0.0671  0.5752 -0.6246
22082SOL    HW183856   7.564   5.685  11.884  0.0375 -2.7678 -0.2922
22082SOL    HW283857   7.641   5.654  11.756  0.8294 -0.1800 -0.4934
22083SOL     OW83858   8.428  11.028   5.927  0.3746  0.7337 -0.7030
22083SOL    HW183859   8.438  10.956   5.864 -0.4580 -0.5993  0.5980
22083SOL    HW283860   8.507  11.023   5.981 -0.1927  0.0503  0.0834
22084SOL     OW83861   2.659  11.869   8.161 -0.1149 -0.5391  0.6850
22084SOL    HW183862   2.663  11.842   8.069  1.7626 -0.9763  0.8481
22084SOL    HW283863   2.663  11.787   8.210  0.2632 -0.2465  1.1549
22085SOL     OW83864   6.881   4.338   3.743  0.1831 -0.8770  0.3347
22085SOL    HW183865   6.837   4.421   3.761 -0.3544 -1.0822  0.0097
22085SOL    HW283866   6.972   4.353   3.770  0.1368 -0.1281  0.1202
22086SOL     OW83867   9.677   0.406   6.077  0.7449  0.5777 -0.3986
22086SOL    HW183868   9.685   0.497   6.050  2.0532  0.3651 -0.8004
22086SOL    HW283869   9.765   0.370   6.065  0.8898 -0.0895  2.1870
22087SOL     OW83870   1.983   7.829  10.331  0.3445  0.1222  0.1717
22087SOL    HW183871   1.963   7.870  10.247  0.8579 -0.2349 -0.1308
22087SOL    HW283872   1.911   7.855  10.388  0.3119  0.8801 -0.2051
22088SOL     OW83873   8.580   0.877   4.297  0.3879 -0.0661  0.1892
22088SOL    HW183874   8.506   0.906   4.243  0.2827 -0.3954  0.1550
22088SOL    HW283875   8.604   0.955   4.348  0.9432  0.4631 -0.8388
22089SOL     OW83876  11.066   0.180   8.705  0.0099 -0.5168 -0.1912
22089SOL    HW183877  11.096   0.254   8.757  0.8701 -1.1007  0.1646
22089SOL    HW283878  11.132   0.170   8.637  1.4776 -2.6818  1.4156
22090SOL     OW83879   4.959   1.063   3.201  0.4664 -0.0512  0.1890
22090SOL    HW183880   4.878   1.062   3.149  2.0038  0.2306 -2.4296
22090SOL    HW283881   4.957   0.981   3.250 -1.2626 -0.1944 -0.0475
22091SOL     OW83882   7.016   1.023   9.745  0.1622  0.0237 -0.7876
22091SOL    HW183883   7.007   0.934   9.711 -2.5260  0.6116 -1.8441
22091SOL    HW283884   7.034   1.076   9.668  0.4708  0.5908 -0.3354
22092SOL     OW83885  11.614   5.226   9.797  0.7307 -0.1199 -0.0361
22092SOL    HW183886  11.585   5.293   9.860 -2.1325 -1.1600 -0.0793
22092SOL    HW283887  11.596   5.143   9.841  1.5782 -0.8685 -1.0622
22093SOL     OW83888   7.538   7.172   9.540 -0.2918  0.1650  0.2234
22093SOL    HW183889   7.576   7.260   9.534  0.7852 -0.1853  1.4612
22093SOL    HW283890   7.568   7.139   9.625 -1.9544 -0.8160  0.4645
22094SOL     OW83891   0.788   4.540   8.800 -0.0487 -0.6585 -0.0845
22094SOL    HW183892   0.866   4.595   8.795  0.2067 -0.8099  1.5723
22094SOL    HW283893   0.821   4.452   8.818 -0.5188 -1.1623 -1.5177
22095SOL     OW83894  12.077   2.059   1.467  0.2832 -0.0034  0.2749
22095SOL    HW183895  12.120   2.051   1.552  1.4778 -0.7591 -0.3651
22095SOL    HW283896  11.984   2.067   1.488  0.4102 -1.4567  1.6190
22096SOL     OW83897   9.964  12.634   5.137 -0.0742  0.0111 -0.7274
22096SOL    HW183898   9.869  12.643   5.149 -0.0145 -0.4494  0.1426
22096SOL    HW283899   9.973  12.587   5.054 -0.6160 -0.1865 -0.6770
22097SOL     OW83900  12.325   3.977   6.966  0.4139 -0.7774  0.5750
22097SOL    HW183901  12.322   3.913   6.895  0.3444 -1.0092  0.7863
22097SOL    HW283902  12.416   3.977   6.994  0.9481  0.8778 -0.9296
22098SOL     OW83903   6.313   0.654   8.016  0.1809 -0.1224  0.4667
22098SOL    HW183904   6.281   0.689   8.099  1.0036 -0.9431  1.1580
22098SOL    HW283905   6.402   0.689   8.008 -0.2322  0.7442 -0.5734
22099SOL     OW83906   8.235  10.055   0.327 -0.0274  0.4610 -0.1615
22099SOL    HW183907   8.276  10.110   0.260  0.5305 -0.0131 -0.2095
22099SOL    HW283908   8.248  10.103   0.409  0.2159  0.5265 -0.2392
22100SOL     OW83909   4.304   1.622   5.447 -0.4029  0.4013 -0.4956
22100SOL    HW183910   4.321   1.530   5.427 -0.7977  0.0460  0.7371
22100SOL    HW283911   4.209   1.630   5.444 -0.6039  0.0120  2.3778
22101SOL     OW83912   4.753   4.419  13.108  0.4986  0.2101 -0.1271
22101SOL    HW183913   4.711   4.475  13.174 -0.9175  2.4195 -2.7005
22101SOL    HW283914   4.695   4.424  13.032  2.6679 -1.1711 -1.9969
22102SOL     OW83915  11.529   2.314  13.189  0.0948 -0.1854  0.6900
22102SOL    HW183916  11.465   2.368  13.143  1.3652  1.0728  0.3483
22102SOL    HW283917  11.476   2.252  13.240 -1.3690 -0.6784 -1.3097
22103SOL     OW83918   3.794  14.034   2.458 -0.0321  0.2702  0.3716
22103SOL    HW183919   3.835  13.959   2.416  0.4819  1.0790 -0.6272
22103SOL    HW283920   3.700  14.019   2.450  0.0689 -0.0806 -0.1547
22104SOL     OW83921   0.123   6.411   4.968 -0.0705 -0.2112 -0.2056
22104SOL    HW183922   0.046   6.467   4.971  0.0317 -0.1236  1.1895
22104SOL    HW283923   0.099   6.334   5.019  0.4186 -0.6402 -0.6062
22105SOL     OW83924   0.515   7.132   8.913 -0.4044  0.3052  0.0664
22105SOL    HW183925   0.501   7.226   8.901 -2.0074  0.0545 -0.3017
22105SOL    HW283926   0.427   7.095   8.910 -0.1952 -0.8508  3.7546
22106SOL     OW83927  11.401   1.085   3.998  0.1789 -0.3635  0.2959
22106SOL    HW183928  11.395   1.092   3.902 -0.7100 -1.8087  0.2133
22106SOL    HW283929  11.311   1.093   4.028  0.4264 -0.1607  0.9941
22107SOL     OW83930   5.727  12.020   3.641 -0.1714  0.2287  0.1204
22107SOL    HW183931   5.753  11.928   3.645 -1.0165 -0.0312 -0.0978
22107SOL    HW283932   5.759  12.058   3.723  1.6622  0.1582 -0.5230
22108SOL     OW83933   4.157  13.215  13.672  0.3913 -0.1873  0.5887
22108SOL    HW183934   4.135  13.123  13.659 -1.7658  0.3217  0.1922
22108SOL    HW283935   4.091  13.262  13.620  0.8549  1.5887  1.5449
22109SOL     OW83936   8.071   6.151   9.125  0.4899 -0.1346  0.6508
22109SOL    HW183937   8.003   6.086   9.141 -1.7983  2.0294  0.1832
22109SOL    HW283938   8.083   6.150   9.030  1.2811 -0.5791  0.7347
22110SOL     OW83939  12.879  10.439   9.112  0.0349 -0.3326  0.2584
22110SOL    HW183940  12.902  10.353   9.146  1.3643  0.0915  0.4729
22110SOL    HW283941  12.784  10.434   9.098  0.1160 -1.8768  0.0954
22111SOL     OW83942  12.868   6.769   7.313  0.2200  0.0802 -0.2873
22111SOL    HW183943  12.952   6.739   7.277 -0.3797 -3.0632  0.5989
22111SOL    HW283944  12.803   6.716   7.267 -1.0291  0.4351  1.0190
22112SOL     OW83945   5.545   9.884  14.055  0.0000  0.2613  0.1210
22112SOL    HW183946   5.620   9.893  14.115 -0.2585  2.9791  0.1517
22112SOL    HW283947   5.578   9.913  13.970 -0.1143 -1.9488 -0.7459
22113SOL     OW83948  12.517   5.810   2.555 -0.0203 -0.0890 -0.0201
22113SOL    HW183949  12.562   5.767   2.482 -2.5135 -2.3286 -0.3544
22113SOL    HW283950  12.426   5.783   2.547 -1.1416  2.7112  1.7438
22114SOL     OW83951   7.504  12.865  11.952  0.1700 -0.1648 -0.2149
22114SOL    HW183952   7.511  12.937  12.015 -0.8058 -0.3803  0.1536
22114SOL    HW283953   7.476  12.907  11.871 -4.2105 -0.4435  0.9068
22115SOL     OW83954  13.980  10.505  12.534  0.1331  0.1415 -0.1376
22115SOL    HW183955  14.071  10.532  12.550  0.4809 -0.7966 -0.4403
22115SOL    HW283956  13.975  10.495  12.439 -0.3606  0.4117 -0.1422
22116SOL     OW83957   8.961   8.929   5.628 -0.4358 -0.2115 -0.7345
22116SOL    HW183958   9.033   8.948   5.689  0.7502 -1.2317 -1.7670
22116SOL    HW283959   8.989   8.968   5.545 -1.0438 -0.6671 -1.1575
22117SOL     OW83960  12.692   0.604   7.910  0.3736 -0.4439  0.1258
22117SOL    HW183961  12.661   0.573   7.995 -1.1273 -0.5584 -0.4223
22117SOL    HW283962  12.649   0.688   7.898  0.4382 -0.5051 -0.5874
22118SOL     OW83963   0.756   1.060   8.105 -0.1293  0.1248  0.3241
22118SOL    HW183964   0.806   1.049   8.024 -1.0090  0.5364 -0.2853
22118SOL    HW283965   0.809   1.119   8.158  0.5820 -0.3590  0.1696
22119SOL     OW83966   0.431   1.085   8.649 -0.1657  0.3077  0.5519
22119SOL    HW183967   0.521   1.109   8.626 -0.3642 -0.0711 -0.6832
22119SOL    HW283968   0.440   1.037   8.732  0.5640  1.7671  1.3569
22120SOL     OW83969  10.049   6.473   0.971  0.1823 -0.0871 -0.3086
22120SOL    HW183970  10.133   6.482   0.924 -0.6396  0.7550 -1.6846
22120SOL    HW283971  10.068   6.501   1.060  1.8869 -2.0386  0.0319
22121SOL     OW83972  12.981   0.508   7.629 -0.5999 -0.2174 -0.0806
22121SOL    HW183973  12.972   0.452   7.706 -0.1587  0.5922  0.5774
22121SOL    HW283974  12.895   0.548   7.617 -1.0954 -1.5079 -0.9398
22122SOL     OW83975  10.510   4.390   7.725  0.1173 -0.4834 -0.2360
22122SOL    HW183976  10.577   4.364   7.788  0.7785  2.1128  0.2586
22122SOL    HW283977  10.434   4.412   7.779 -0.1549 -0.6479 -0.5499
22123SOL     OW83978   0.936   0.502   2.502  0.2758  0.0105  0.0259
22123SOL    HW183979   1.027   0.483   2.476 -0.1625 -0.7754 -0.9980
22123SOL    HW283980   0.894   0.533   2.422 -0.3405  0.4832  0.5238
22124SOL     OW83981  13.354   2.329  10.093 -0.1493 -0.1998 -0.0542
22124SOL    HW183982  13.267   2.349  10.129 -0.3845  0.5200 -0.9828
22124SOL    HW283983  13.374   2.241  10.126 -2.0460 -1.1721 -1.2805
22125SOL     OW83984   2.848   1.493   4.781  0.1572 -0.4626  0.6964
22125SOL    HW183985   2.863   1.530   4.868  0.8712  0.3501  0.2501
22125SOL    HW283986   2.877   1.403   4.788  1.8325  0.0554  0.8773
22126SOL     OW83987   7.335   4.055   4.009 -0.2705 -0.0677 -0.1290
22126SOL    HW183988   7.365   3.981   4.062 -0.8645  0.4041  0.8991
22126SOL    HW283989   7.414   4.106   3.992 -0.0019 -0.4703 -0.1012
22127SOL     OW83990  13.050   9.255   0.265 -0.0524  0.5752  0.1851
22127SOL    HW183991  12.976   9.294   0.219  1.3356  2.0834 -0.8605
22127SOL    HW283992  13.011   9.186   0.319 -1.9841  0.1175 -1.6748
22128SOL     OW83993   0.608   3.060  10.564  0.0275  0.3539  0.1907
22128SOL    HW183994   0.679   3.123  10.550 -0.2544  0.4875 -0.6636
22128SOL    HW283995   0.652   2.976  10.573  0.2869  0.4000 -0.5818
22129SOL     OW83996  11.398   5.003   0.698  0.3415 -0.1225 -0.0145
22129SOL    HW183997  11.333   5.069   0.672  0.4208 -0.5700 -1.4399
22129SOL    HW283998  11.393   4.937   0.629  0.8775 -1.1825  0.9385
22130SOL     OW83999  11.845   8.486  11.600 -1.1994  0.1251  0.0386
22130SOL    HW184000  11.779   8.420  11.581  0.1755 -1.4656  0.5335
22130SOL    HW284001  11.884   8.457  11.683  0.0073  1.0981 -0.1707
22131SOL     OW84002   8.815   1.857   2.500  0.1741 -0.1428  0.6286
22131SOL    HW184003   8.833   1.930   2.559 -0.4934 -0.2731  0.9954
22131SOL    HW284004   8.884   1.863   2.433 -0.0317  0.9844  0.5023
22132SOL     OW84005   8.595   4.764   4.407  0.1793 -0.0352  0.0693
22132SOL    HW184006   8.562   4.733   4.492 -0.3601  0.1700 -0.0576
22132SOL    HW284007   8.675   4.714   4.393  1.1284  1.0330  1.4176
22133SOL     OW84008  11.778  10.126  10.577  0.3392 -0.4608  0.5762
22133SOL    HW184009  11.831  10.166  10.646  1.5789 -0.3382 -0.4104
22133SOL    HW284010  11.827  10.144  10.496 -2.3624  1.7638 -0.7329
22134SOL     OW84011   5.815   3.946   9.823  0.0992  0.3471 -0.4679
22134SOL    HW184012   5.900   3.956   9.780  0.4797  0.7159  0.3382
22134SOL    HW284013   5.764   3.892   9.763  0.1524  1.8951 -2.0124
22135SOL     OW84014  13.836   7.842   1.046 -0.0342  0.3419  0.8129
22135SOL    HW184015  13.828   7.767   0.987 -0.6579  0.8972  0.1796
22135SOL    HW284016  13.916   7.886   1.017 -0.7679  1.0695 -0.1712
22136SOL     OW84017   0.278   4.080   7.932 -0.8377 -0.1757  0.3353
22136SOL    HW184018   0.265   3.992   7.966  0.5944 -0.8208 -0.6619
22136SOL    HW284019   0.265   4.071   7.837  0.4780  0.4047  0.0731
22137SOL     OW84020   2.077  10.683  10.753  0.1033 -0.5126  0.1536
22137SOL    HW184021   2.022  10.614  10.715  0.0682 -1.1557  1.3207
22137SOL    HW284022   2.135  10.637  10.813  1.1927  0.3001 -0.2553
22138SOL     OW84023   8.276   2.961   0.224 -0.3524  0.2362 -0.0813
22138SOL    HW184024   8.368   2.943   0.244 -0.4998  0.8958  1.3231
22138SOL    HW284025   8.257   3.043   0.268 -1.6790  0.0061 -0.1625
22139SOL     OW84026   0.331   7.509   6.203 -0.5512  0.2246  0.4527
22139SOL    HW184027   0.345   7.484   6.112 -0.7998 -0.5943  0.6273
22139SOL    HW284028   0.377   7.441   6.253 -2.6006 -0.8525  0.9829
22140SOL     OW84029   2.277   4.036   2.719 -0.7156  0.8236  0.0481
22140SOL    HW184030   2.361   4.078   2.737 -0.3032 -0.3406  0.9913
22140SOL    HW284031   2.217   4.072   2.784 -0.9236  1.5539 -0.5390
22141SOL     OW84032  11.020  12.553   2.430  0.0701 -0.0546  0.2059
22141SOL    HW184033  11.066  12.479   2.471 -1.1860 -0.0728  1.6690
22141SOL    HW284034  10.945  12.512   2.388 -0.3593  0.3249  0.6002
22142SOL     OW84035   1.965   1.845   2.926 -0.1699  0.5831 -0.2475
22142SOL    HW184036   1.959   1.753   2.901 -1.4532  0.5827 -0.0451
22142SOL    HW284037   1.883   1.862   2.973  0.3014  1.6825  0.2250
22143SOL     OW84038   6.403   9.244   0.330 -0.3880  0.6716 -0.0912
22143SOL    HW184039   6.381   9.336   0.319  0.9407  1.1365  0.8530
22143SOL    HW284040   6.397   9.229   0.425 -0.3085 -0.1435 -0.2054
22144SOL     OW84041   4.121   2.263   4.292  0.0593  0.3148 -0.3313
22144SOL    HW184042   4.056   2.333   4.286  1.2025  1.3508 -1.1541
22144SOL    HW284043   4.205   2.308   4.282  0.9470 -0.9238  1.1141
22145SOL     OW84044   7.382   1.875   1.144  0.2694 -0.1392  0.2245
22145SOL    HW184045   7.320   1.946   1.126 -0.4194 -0.6575  0.5251
22145SOL    HW284046   7.363   1.809   1.077  0.1401 -0.5222  0.6353
22146SOL     OW84047   2.442   5.455   4.258 -0.2280  0.8127  0.0462
22146SOL    HW184048   2.482   5.524   4.204  0.5824  0.1282 -0.2421
22146SOL    HW284049   2.436   5.494   4.345 -0.3662  1.4753 -0.2460
22147SOL     OW84050  12.864   3.107   0.506 -0.8039  0.4254 -0.5674
22147SOL    HW184051  12.876   3.012   0.496  0.2911  0.5084 -0.1879
22147SOL    HW284052  12.946   3.145   0.473  0.0125  1.0593  1.9662
22148SOL     OW84053  12.143   5.913   7.057  0.1754  0.6749 -0.3184
22148SOL    HW184054  12.065   5.907   7.003  0.8193 -0.7221 -1.1675
22148SOL    HW284055  12.155   5.825   7.092  1.3209  0.8804 -0.1438
22149SOL     OW84056   3.210   5.363   7.072 -0.0308 -0.5514  0.5983
22149SOL    HW184057   3.140   5.395   7.016 -1.8165 -2.1609  1.7867
22149SOL    HW284058   3.263   5.307   7.015  0.5877  0.9642 -0.3977
22150SOL     OW84059   7.093   5.162   1.277  0.1739  0.0764  0.0079
22150SOL    HW184060   7.147   5.085   1.298 -1.0540 -0.9409 -0.4087
22150SOL    HW284061   7.067   5.197   1.362 -0.4001 -0.8403  0.2347
22151SOL     OW84062  11.502   0.684  13.071  0.0153  0.1115  0.1503
22151SOL    HW184063  11.413   0.716  13.080 -0.2097  0.0043 -1.4478
22151SOL    HW284064  11.546   0.711  13.152 -1.5142 -0.0680  1.0615
22152SOL     OW84065   6.339   0.557   5.998 -0.3322 -0.5826 -0.5279
22152SOL    HW184066   6.330   0.617   6.072 -0.2784 -0.6109 -0.4985
22152SOL    HW284067   6.327   0.613   5.921 -1.9444 -0.8207 -0.4832
22153SOL     OW84068  10.638   0.746  13.956  0.0342  0.6007  0.1219
22153SOL    HW184069  10.719   0.730  14.004  0.3334  0.8619 -0.2824
22153SOL    HW284070  10.570   0.703  14.007  0.0311  2.4710  1.8023
22154SOL     OW84071   3.031   5.355   1.440 -0.5406 -0.0470  0.1670
22154SOL    HW184072   3.010   5.409   1.364 -0.7122 -0.0473  0.2143
22154SOL    HW284073   3.059   5.271   1.403 -0.0922  0.1326  0.0878
22155SOL     OW84074   9.034   6.742   8.562 -0.2865  0.2548  0.2134
22155SOL    HW184075   8.978   6.819   8.561 -0.4020  0.1975  1.1521
22155SOL    HW284076   9.006   6.693   8.640  0.6911 -0.0567  0.3802
22156SOL     OW84077   3.719   8.951  13.323  0.2296 -0.9673 -0.2563
22156SOL    HW184078   3.708   8.869  13.370  1.4945 -1.4299 -0.7180
22156SOL    HW284079   3.715   8.927  13.230 -1.9347 -0.1177 -0.4408
22157SOL     OW84080   9.305   9.914   6.910 -0.2607 -0.3350  0.7528
22157SOL    HW184081   9.374   9.938   6.848  0.4183 -1.7645  0.9073
22157SOL    HW284082   9.301   9.987   6.971  1.3992 -0.3918  0.9718
22158SOL     OW84083   4.269   8.553   5.390  0.5362 -0.1054 -0.1280
22158SOL    HW184084   4.260   8.619   5.321  3.0923  1.2573  0.7136
22158SOL    HW284085   4.222   8.591   5.465  1.0275  0.2460  0.0086
22159SOL     OW84086   1.683   5.341   9.028  0.3332 -0.0926 -0.3690
22159SOL    HW184087   1.748   5.304   8.968  0.9718 -0.0297  0.2618
22159SOL    HW284088   1.710   5.432   9.039  1.3339 -0.5506  1.4125
22160SOL     OW84089   1.537   9.521   9.012  0.4537  0.5241  0.2073
22160SOL    HW184090   1.501   9.547   9.097  0.3539  0.4381  0.1906
22160SOL    HW284091   1.592   9.445   9.032  0.1152  0.2574  0.1362
22161SOL     OW84092   8.583   4.997   7.572  0.4134 -0.4137  0.3643
22161SOL    HW184093   8.505   4.943   7.578  1.0579 -1.4377 -0.0719
22161SOL    HW284094   8.644   4.959   7.636  0.1499  1.1043  1.5485
22162SOL     OW84095   7.792   9.560   0.211 -0.1835 -0.0514  0.1453
22162SOL    HW184096   7.768   9.597   0.126  0.0090  1.0852  0.5708
22162SOL    HW284097   7.855   9.622   0.248  1.5313 -1.7075  0.1451
22163SOL     OW84098  10.421  13.835   4.139  0.0541 -0.5323 -0.2886
22163SOL    HW184099  10.450  13.878   4.219  1.5267 -1.0609 -0.5022
22163SOL    HW284100  10.422  13.905   4.073  0.9242 -0.5240 -0.2890
22164SOL     OW84101   9.365   9.759   7.252  0.5590  0.1382  0.1519
22164SOL    HW184102   9.387   9.708   7.330 -0.0768  1.0257  0.9304
22164SOL    HW284103   9.448   9.770   7.206  0.6643 -1.8629 -0.2264
22165SOL     OW84104  12.457  12.628   2.280 -0.1179 -0.3233  0.2429
22165SOL    HW184105  12.405  12.706   2.298 -2.3094 -1.6992  0.2782
22165SOL    HW284106  12.526  12.658   2.221 -1.1441  1.5635 -0.0797
22166SOL     OW84107  13.486   0.113   7.911  0.6784  0.2377  0.5756
22166SOL    HW184108  13.486   0.069   7.826  2.8365  0.8803  0.1989
22166SOL    HW284109  13.396   0.145   7.920  0.0015 -1.1360 -0.7450
22167SOL     OW84110   7.378   8.710   7.889 -0.0563  0.1819 -0.1265
22167SOL    HW184111   7.290   8.709   7.851 -0.0221 -1.7770 -0.2481
22167SOL    HW284112   7.398   8.618   7.904  1.2871  0.7054  1.5383
22168SOL     OW84113  11.586   1.756   6.025  0.2329  0.0249  0.2185
22168SOL    HW184114  11.557   1.846   6.009 -0.8300 -0.5217 -1.1139
22168SOL    HW284115  11.563   1.739   6.116  0.4784  1.1070  0.5005
22169SOL     OW84116   2.088   2.224   6.532 -0.0973  0.2253  0.2886
22169SOL    HW184117   2.053   2.308   6.561 -1.1313 -0.0963  0.0278
22169SOL    HW284118   2.032   2.199   6.458  0.4170 -0.5204  0.1395
22170SOL     OW84119  13.597   5.676   7.131 -0.2702  0.3689  0.0388
22170SOL    HW184120  13.608   5.724   7.048 -0.4921  0.9458  0.3346
22170SOL    HW284121  13.539   5.603   7.109  1.3533 -0.7275 -0.7777
22171SOL     OW84122  11.738   5.888  12.362  0.2327 -0.4440 -0.1414
22171SOL    HW184123  11.788   5.965  12.389  0.0361 -0.7965  1.3523
22171SOL    HW284124  11.765   5.871  12.272  1.9920  0.0145  0.2664
22172SOL     OW84125  13.519  10.305  12.630  0.3781 -0.9009 -0.4285
22172SOL    HW184126  13.424  10.313  12.623  0.4526  0.3374 -0.2693
22172SOL    HW284127  13.553  10.343  12.549  0.7293 -2.1190 -0.8801
22173SOL     OW84128   6.949   0.036   3.221  0.1134 -0.8486  0.0668
22173SOL    HW184129   6.948  -0.056   3.249  0.9283 -0.7827  0.3350
22173SOL    HW284130   6.946   0.032   3.126 -0.3771 -1.1339  0.0879
22174SOL     OW84131  13.359   2.242  11.264 -0.0532 -0.0409  0.0840
22174SOL    HW184132  13.284   2.303  11.266 -0.5773 -0.5485 -1.8798
22174SOL    HW284133  13.389   2.245  11.173 -0.2843 -2.9176 -0.1623
22175SOL     OW84134   0.466   6.682   9.392  0.3381 -0.1429 -0.2498
22175SOL    HW184135   0.487   6.771   9.422 -1.0211  0.2607 -0.4350
22175SOL    HW284136   0.481   6.627   9.469  0.5772  0.3253  0.0486
22176SOL     OW84137   0.786  10.118   5.251  0.2010  0.3291  0.0891
22176SOL    HW184138   0.753  10.028   5.246  0.4712  0.2081  0.4440
22176SOL    HW284139   0.832  10.122   5.335  1.9379  0.1788 -0.7908
22177SOL     OW84140   0.489   3.062  11.539  0.8118 -0.4869  0.2844
22177SOL    HW184141   0.543   2.985  11.560 -2.5046 -2.4287  2.7478
22177SOL    HW284142   0.433   3.033  11.467  0.1418 -0.0686  0.6317
22178SOL     OW84143   9.723   7.622  10.346  0.1091 -0.1261 -0.2731
22178SOL    HW184144   9.701   7.659  10.431 -2.8897  0.9119 -1.3643
22178SOL    HW284145   9.688   7.533  10.348 -0.8332  0.2154 -0.6791
22179SOL     OW84146   3.404   8.347   5.077 -0.3232 -0.1611 -0.2918
22179SOL    HW184147   3.452   8.336   4.995 -1.0300 -0.3526 -0.6763
22179SOL    HW284148   3.369   8.261   5.097  0.8868 -0.4305  0.8847
22180SOL     OW84149   1.586   9.875   3.801 -0.1518 -0.4826  0.1644
22180SOL    HW184150   1.498   9.838   3.795  0.4432 -2.3011  1.6354
22180SOL    HW284151   1.599   9.920   3.718 -1.7057 -1.9060 -0.9136
22181SOL     OW84152   4.990   7.360  10.626 -0.5180  0.5116  0.1810
22181SOL    HW184153   5.082   7.371  10.599  0.2697 -1.2341  1.9454
22181SOL    HW284154   4.954   7.299  10.562  0.8544 -2.2504  1.8724
22182SOL     OW84155   8.388   0.079   6.398 -0.7771  0.1669 -0.1154
22182SOL    HW184156   8.314   0.095   6.456 -0.3087 -0.2962  0.6267
22182SOL    HW284157   8.461   0.059   6.457  0.4626  2.5367 -0.7244
22183SOL     OW84158   0.114   8.558   9.371  0.0215 -0.2910 -0.0170
22183SOL    HW184159   0.099   8.572   9.464  1.7664 -0.2213  0.2909
22183SOL    HW284160   0.172   8.481   9.367  0.3949  0.0211 -0.9969
22184SOL     OW84161  13.149   3.954  13.649 -0.2745  0.2775  0.2122
22184SOL    HW184162  13.202   3.913  13.580 -0.3185 -1.3947  1.1215
22184SOL    HW284163  13.205   3.951  13.726 -0.8797  0.5277  0.6643
22185SOL     OW84164   7.740  12.055   5.488 -0.0651 -0.1814  0.2315
22185SOL    HW184165   7.709  12.110   5.560  0.0325  0.7194 -0.3981
22185SOL    HW284166   7.689  11.975   5.495 -0.3547  0.0694  1.0523
22186SOL     OW84167   2.675  10.685  13.252  0.8873 -0.1274  0.1136
22186SOL    HW184168   2.762  10.648  13.238  0.8909 -0.3271  0.6350
22186SOL    HW284169   2.616  10.609  13.251  0.5599  0.1113 -1.3892
22187SOL     OW84170   9.640  13.118   4.772 -0.2098 -0.3174  0.5798
22187SOL    HW184171   9.573  13.102   4.706 -0.7007 -1.0536  1.2296
22187SOL    HW284172   9.687  13.035   4.779 -1.2152 -0.8069  2.2816
22188SOL     OW84173   2.424   4.126   8.396  0.3753  0.7798  0.3485
22188SOL    HW184174   2.446   4.192   8.331  0.7185  0.4051  0.0714
22188SOL    HW284175   2.509   4.095   8.428  0.2637 -0.3635 -0.3891
22189SOL     OW84176  10.802   4.165   9.217 -0.0015  0.7092 -0.1878
22189SOL    HW184177  10.874   4.112   9.252  0.2698  0.9990 -0.2931
22189SOL    HW284178  10.724   4.134   9.263  0.2412  0.5966  0.1524
22190SOL     OW84179   6.383  11.416  11.257  0.0500  0.4377  0.0386
22190SOL    HW184180   6.360  11.509  11.253  0.8050  0.7017  1.2141
22190SOL    HW284181   6.378  11.386  11.166  2.6020  2.3271 -0.8392
22191SOL     OW84182  13.348  11.815   3.949  0.2701  0.2961  0.8590
22191SOL    HW184183  13.424  11.864   3.917  0.1747  0.0499  0.2358
22191SOL    HW284184  13.313  11.771   3.871 -1.6648  1.9371  0.7178
22192SOL     OW84185  11.193   5.614  10.744 -0.8994  0.4723  0.1961
22192SOL    HW184186  11.246   5.560  10.803  1.6563  1.5933 -0.9218
22192SOL    HW284187  11.188   5.563  10.664 -1.3655  0.4706  0.2234
22193SOL     OW84188   0.356   9.763   7.731 -0.2399 -0.0831 -0.0605
22193SOL    HW184189   0.320   9.851   7.743  1.3629  0.5135  0.7232
22193SOL    HW284190   0.333   9.740   7.641  1.0409  2.0361 -1.0177
22194SOL     OW84191   6.274  13.111  13.904  0.0845  0.5861  0.1771
22194SOL    HW184192   6.314  13.039  13.855 -1.2201 -0.5534  0.7244
22194SOL    HW284193   6.245  13.071  13.986 -1.1575  1.6127  0.2678
22195SOL     OW84194   1.187   5.448  11.505  0.3004  0.0856 -0.7089
22195SOL    HW184195   1.246   5.391  11.554  0.1903  0.5008 -0.0818
22195SOL    HW284196   1.160   5.515  11.568  1.2345  1.4489 -1.6930
22196SOL     OW84197   3.681  13.482   3.697 -0.3641 -0.1327  0.2153
22196SOL    HW184198   3.617  13.469   3.767  0.1954  1.3534  1.0578
22196SOL    HW284199   3.753  13.424   3.718  0.3716  1.2328  1.6606
22197SOL     OW84200   7.433  11.335  12.496  0.2803  0.0104  0.0121
22197SOL    HW184201   7.512  11.380  12.466  0.0607  1.4999  1.5138
22197SOL    HW284202   7.378  11.329  12.418  0.0075  3.1036 -0.1324
22198SOL     OW84203   0.800  10.645   2.178 -0.1523 -0.2868 -0.0304
22198SOL    HW184204   0.860  10.710   2.216 -0.3111 -0.3662  0.3637
22198SOL    HW284205   0.713  10.672   2.209 -0.4525  0.4017 -1.3962
22199SOL     OW84206   4.315   3.564   7.208  0.5650 -0.1266 -0.1068
22199SOL    HW184207   4.362   3.561   7.291  0.9092  0.5309 -0.2750
22199SOL    HW284208   4.254   3.637   7.216  0.4801 -0.1645 -0.3694
22200SOL     OW84209   5.541   5.868   8.866 -0.1369  0.0220  0.1978
22200SOL    HW184210   5.518   5.790   8.916 -2.0772  0.6069  0.2914
22200SOL    HW284211   5.483   5.867   8.790  1.4114  0.1895 -1.0514
22201SOL     OW84212   2.092   7.223   8.478 -0.5682 -0.6679  0.2624
22201SOL    HW184213   2.059   7.255   8.394 -0.5972 -0.3120  0.4070
22201SOL    HW284214   2.094   7.301   8.534 -1.5607 -1.0841  0.9152
22202SOL     OW84215   0.865  12.119  11.783 -0.6895  0.0518  0.5633
22202SOL    HW184216   0.822  12.133  11.867 -1.6732 -0.2625  0.1258
22202SOL    HW284217   0.826  12.038  11.749 -0.9953  0.6796 -0.6163
22203SOL     OW84218   1.221   8.414   0.628 -0.6075  0.1672 -0.0281
22203SOL    HW184219   1.194   8.341   0.572  0.3405 -1.2276  1.2597
22203SOL    HW284220   1.149   8.424   0.691  0.9884 -2.5514  2.4551
22204SOL     OW84221   3.068  10.210  13.604 -0.8452  0.0225 -0.2978
22204SOL    HW184222   3.120  10.170  13.674  0.8998  2.5505 -0.0230
22204SOL    HW284223   2.983  10.165  13.609 -0.8007  0.0235  3.4117
22205SOL     OW84224   4.587   3.192   3.944 -0.0942 -0.1953  0.2222
22205SOL    HW184225   4.572   3.098   3.948 -1.1066 -0.1753 -1.8245
22205SOL    HW284226   4.682   3.201   3.938 -0.0628 -1.1885 -1.1097
22206SOL     OW84227   9.830   2.907  13.189 -0.7258 -0.6376  0.2385
22206SOL    HW184228   9.806   2.999  13.183 -1.2643 -0.8029 -0.2748
22206SOL    HW284229   9.923   2.907  13.207 -0.9440  0.0186  1.4573
22207SOL     OW84230  10.186   0.257   9.153  0.0913 -0.5275  0.3343
22207SOL    HW184231  10.260   0.215   9.197  0.4027  0.1954  0.5128
22207SOL    HW284232  10.155   0.191   9.091 -1.3468 -2.2087  2.6447
22208SOL     OW84233   7.374  12.590   9.190 -0.2250  0.4934  0.4624
22208SOL    HW184234   7.387  12.498   9.166 -0.4390  0.5541  0.0974
22208SOL    HW284235   7.353  12.588   9.283  0.6156  0.2461  0.6529
22209SOL     OW84236  12.838   3.045   5.090 -0.0465 -0.5974 -0.1757
22209SOL    HW184237  12.788   3.062   5.170  1.6593 -1.5812  1.1365
22209SOL    HW284238  12.917   3.000   5.119  0.4814 -1.2670 -2.4568
22210SOL     OW84239   3.053   0.012   2.332  0.1138  0.0160 -0.0588
22210SOL    HW184240   3.101  -0.052   2.279 -2.1042 -0.7749 -1.2802
22210SOL    HW284241   3.012   0.070   2.268 -2.5532 -0.8947  0.6807
22211SOL     OW84242   2.087   0.959   2.673  0.1971  0.4491  0.0730
22211SOL    HW184243   2.009   0.969   2.617  1.1893 -2.0865 -1.9512
22211SOL    HW284244   2.119   1.049   2.684 -2.2946  1.4477 -0.0008
22212SOL     OW84245  11.318  13.001   4.990  0.2366  0.2626 -0.4992
22212SOL    HW184246  11.410  13.023   4.974  0.3970  0.4316  0.5280
22212SOL    HW284247  11.322  12.925   5.049 -0.2501  0.8935  0.3749
22213SOL     OW84248   5.452  11.543   1.769  0.3909 -0.4866 -0.1344
22213SOL    HW184249   5.377  11.503   1.814 -0.2114  0.7805  0.0458
22213SOL    HW284250   5.502  11.469   1.734 -0.9598 -1.3666 -0.2756
22214SOL     OW84251  11.139   8.644  14.068  0.9746 -0.0654 -0.7533
22214SOL    HW184252  11.227   8.606  14.064  1.4034  0.9620 -1.4364
22214SOL    HW284253  11.153   8.738  14.061  0.2481  0.7269  4.7357
22215SOL     OW84254  10.590   3.314   5.515 -0.0875  0.1054  0.1354
22215SOL    HW184255  10.637   3.389   5.478  0.7316  1.4221  3.5590
22215SOL    HW284256  10.498   3.341   5.514  0.1590  1.0128  0.9939
22216SOL     OW84257   0.802  12.396   3.879 -0.5648 -0.0636 -0.4304
22216SOL    HW184258   0.837  12.427   3.963  1.7225 -1.2787 -0.8538
22216SOL    HW284259   0.757  12.314   3.901 -3.3973  1.4951  0.1121
22217SOL     OW84260   9.460  13.924   6.597  0.4607  0.1310 -0.3774
22217SOL    HW184261   9.535  13.880   6.636 -0.5066 -1.5419 -0.3217
22217SOL    HW284262   9.421  13.859   6.539 -1.0307  0.9142 -0.3019
22218SOL     OW84263  11.140   3.680   4.711 -0.1643 -0.1022 -0.0415
22218SOL    HW184264  11.195   3.741   4.661 -1.4725  0.0172 -1.3938
22218SOL    HW284265  11.051   3.710   4.695 -0.7051 -1.0220  1.1298
22219SOL     OW84266   2.378   5.109   4.901 -0.5962  1.0772 -0.2079
22219SOL    HW184267   2.467   5.141   4.915 -0.5983  0.7527  0.5803
22219SOL    HW284268   2.384   5.057   4.821  0.0822  0.4797  0.2186
22220SOL     OW84269   8.783  13.682   4.122  0.1714  0.4383 -0.5031
22220SOL    HW184270   8.691  13.703   4.104  0.1873  1.1145  0.1286
22220SOL    HW284271   8.782  13.652   4.213  0.8861  2.8470  0.3971
22221SOL     OW84272   4.410   3.554  10.844  0.5618  0.1889 -0.0824
22221SOL    HW184273   4.478   3.501  10.885 -0.1854  0.2658  1.3185
22221SOL    HW284274   4.332   3.498  10.846  0.0278  0.9288  0.4342
22222SOL     OW84275   2.112   6.988   9.384  0.0594  0.2552  0.0144
22222SOL    HW184276   2.106   6.894   9.395 -0.6040  0.3454  0.4967
22222SOL    HW284277   2.033   7.023   9.427  1.0472  1.1278  1.2089
22223SOL     OW84278   4.136   7.344   8.687  0.2425  0.1577  0.9014
22223SOL    HW184279   4.077   7.334   8.612 -0.9819  0.7075  1.7480
22223SOL    HW284280   4.087   7.306   8.760  0.5960  1.3639  1.7931
22224SOL     OW84281   8.933  13.990   6.584 -0.3877  0.4746 -0.0023
22224SOL    HW184282   8.989  13.975   6.660 -2.4304 -3.6859  0.9649
22224SOL    HW284283   8.948  13.915   6.527  1.8104  3.8618 -4.5553
22225SOL     OW84284   7.976   3.195  13.037 -0.2435 -0.5484  0.7072
22225SOL    HW184285   7.921   3.271  13.017  0.0896 -1.0570 -2.9480
22225SOL    HW284286   8.051   3.231  13.084 -0.7653  1.1661  0.2993
22226SOL     OW84287   1.012   6.719  11.315 -0.3690 -0.5009 -0.4399
22226SOL    HW184288   1.076   6.782  11.281  0.6686 -1.6425 -0.6562
22226SOL    HW284289   0.970   6.684  11.236  1.0211 -2.0915 -0.5162
22227SOL     OW84290   6.101   1.063   4.648  0.2344  0.0441 -0.1884
22227SOL    HW184291   6.094   1.003   4.574 -0.5377  0.1037 -0.1765
22227SOL    HW284292   6.017   1.109   4.649  0.6487  0.8217  0.0614
22228SOL     OW84293   4.857   1.884   7.756  0.1777 -0.3619 -0.3833
22228SOL    HW184294   4.824   1.929   7.678 -0.3472 -1.0488 -0.5652
22228SOL    HW284295   4.786   1.892   7.820  0.3291 -0.4037 -0.2106
22229SOL     OW84296   1.479   2.238  12.646  0.4779  0.4648  0.5410
22229SOL    HW184297   1.571   2.224  12.621 -0.1120  0.8049 -2.0845
22229SOL    HW284298   1.435   2.156  12.624 -0.1052  0.8334  0.3044
22230SOL     OW84299   6.722  11.532   9.143  0.1735  0.6458  0.3248
22230SOL    HW184300   6.741  11.611   9.092 -0.0889  0.3217 -0.2878
22230SOL    HW284301   6.774  11.541   9.222 -0.5380  1.8618  0.6755
22231SOL     OW84302   2.004   6.046   2.259 -0.1288 -0.2346  0.2168
22231SOL    HW184303   1.964   5.984   2.197  0.4718 -1.5553  1.1137
22231SOL    HW284304   2.081   6.001   2.292 -0.0565  0.7294  1.4302
22232SOL     OW84305  11.494   5.636   2.203 -0.1007  0.5296 -0.4870
22232SOL    HW184306  11.417   5.686   2.175 -0.9031 -0.6167 -0.3944
22232SOL    HW284307  11.545   5.698   2.256 -1.4974  1.0157  0.3425
22233SOL     OW84308   0.668   0.603  10.123 -0.0875  0.1569  0.1002
22233SOL    HW184309   0.582   0.617  10.163 -0.4612  3.0815 -1.4641
22233SOL    HW284310   0.653   0.611  10.029  1.8644  0.5337 -0.2178
22234SOL     OW84311   3.539   7.298   4.627 -0.4650  0.1124  0.2045
22234SOL    HW184312   3.513   7.230   4.690 -1.9584 -0.0539 -0.5412
22234SOL    HW284313   3.513   7.380   4.669 -0.3685  0.0917  0.3060
22235SOL     OW84314   9.305  10.239  13.470  0.2929  0.3272 -0.1039
22235SOL    HW184315   9.319  10.291  13.549 -0.4497  1.2002 -0.5438
22235SOL    HW284316   9.305  10.302  13.399  0.4834 -0.4044 -0.7673
22236SOL     OW84317  11.919   0.703   6.792 -0.0938  0.7899  0.2330
22236SOL    HW184318  12.004   0.666   6.768 -0.2531  0.8904 -0.4988
22236SOL    HW284319  11.867   0.627   6.818  0.7370  0.8855  2.3687
22237SOL     OW84320  11.417   2.908  13.039 -0.0922 -0.0412  0.9378
22237SOL    HW184321  11.480   2.836  13.045 -1.7691 -1.7315 -0.4126
22237SOL    HW284322  11.454   2.976  13.095  1.6314 -1.8871  2.2294
22238SOL     OW84323   0.958   5.767   5.528 -0.2050  0.3626  0.1232
22238SOL    HW184324   1.007   5.770   5.445  0.0788 -0.3699  0.2573
22238SOL    HW284325   0.870   5.738   5.503  0.5395 -2.3497  0.3288
22239SOL     OW84326  11.538   6.524   1.452 -0.5278  0.9590  0.4581
22239SOL    HW184327  11.573   6.488   1.533  1.6545 -0.8367 -1.1325
22239SOL    HW284328  11.450   6.486   1.444 -0.0592 -0.3215  1.1228
22240SOL     OW84329  13.371   7.684   7.563 -0.0614 -0.1495 -0.3032
22240SOL    HW184330  13.289   7.653   7.603  0.9160 -1.3891  0.8790
22240SOL    HW284331  13.355   7.776   7.543 -1.5855 -0.2442  0.3209
22241SOL     OW84332  10.915   3.742   3.589 -0.3517  0.1556 -0.0583
22241SOL    HW184333  10.938   3.651   3.571 -2.4927 -0.6017  0.7491
22241SOL    HW284334  10.973   3.768   3.661 -0.2704 -0.8185  0.2369
22242SOL     OW84335   4.322   3.737   4.248 -0.2203 -0.0743  0.4219
22242SOL    HW184336   4.368   3.658   4.275 -0.0598 -0.2661 -0.3786
22242SOL    HW284337   4.312   3.727   4.153 -0.5601  0.6770  0.3745
22243SOL     OW84338  11.227   7.223   1.561 -0.1471  0.0326 -0.7560
22243SOL    HW184339  11.245   7.315   1.577 -2.6030  0.8363 -2.1082
22243SOL    HW284340  11.180   7.193   1.639 -0.5902  0.3177 -0.9133
22244SOL     OW84341   1.427   1.820   3.092  0.3026  0.3644 -0.2022
22244SOL    HW184342   1.418   1.906   3.051  1.2337  1.5874  1.9555
22244SOL    HW284343   1.517   1.794   3.073  0.2823  0.2509 -0.1435
22245SOL     OW84344  12.044  10.642  10.984 -0.4045 -0.0283 -0.3108
22245SOL    HW184345  12.097  10.657  11.062  0.9025  0.7007 -1.3030
22245SOL    HW284346  12.036  10.547  10.979 -0.7073 -0.0752  0.8306
22246SOL     OW84347  13.245  11.868   3.063  0.6001  0.0600 -0.5311
22246SOL    HW184348  13.338  11.849   3.074  0.3791 -0.4415  0.6126
22246SOL    HW284349  13.243  11.940   3.000  1.8986  1.4162  0.8849
22247SOL     OW84350   1.206  10.464  10.448  0.1343 -0.4898  0.4249
22247SOL    HW184351   1.281  10.521  10.465  0.5448 -0.5934 -0.8886
22247SOL    HW284352   1.155  10.510  10.381 -0.8692 -0.5183  1.1562
22248SOL     OW84353  12.722  11.187  12.893 -0.3711 -0.4464 -0.1540
22248SOL    HW184354  12.726  11.270  12.940 -2.4311  0.5979 -1.6390
22248SOL    HW284355  12.705  11.212  12.802  0.6314 -2.4618 -0.9549
22249SOL     OW84356  12.065  13.853   3.904  0.3726 -0.5670  0.2105
22249SOL    HW184357  12.011  13.919   3.947  0.2235  0.4736 -1.4719
22249SOL    HW284358  12.016  13.772   3.914  1.0112 -0.7109  3.1486
22250SOL     OW84359   7.122   5.688   3.232 -0.4036  0.5837  0.0324
22250SOL    HW184360   7.062   5.628   3.276  0.7182 -0.0683  0.7339
22250SOL    HW284361   7.161   5.739   3.304  0.6734  0.2361 -0.2870
22251SOL     OW84362   7.079  12.071  13.733 -0.3675  0.3576 -0.0151
22251SOL    HW184363   7.142  12.002  13.711  1.1676  1.7673 -0.1732
22251SOL    HW284364   7.093  12.139  13.668 -0.2725  1.8048  1.4642
22252SOL     OW84365  12.798   8.272  13.422 -0.0441  0.8241 -0.2945
22252SOL    HW184366  12.728   8.216  13.390  0.0999  0.3786  0.1468
22252SOL    HW284367  12.754   8.345  13.465 -0.2306  0.6883 -0.2589
22253SOL     OW84368   6.011   9.099   6.531 -0.3314  0.1735 -0.0602
22253SOL    HW184369   5.949   9.086   6.460 -2.8475 -0.2987  2.0661
22253SOL    HW284370   5.965   9.155   6.594  2.4304  2.0067  0.5014
22254SOL     OW84371   2.765  12.879   0.741  0.0698  0.5534 -0.3649
22254SOL    HW184372   2.851  12.844   0.718 -0.4201 -0.8719 -0.1193
22254SOL    HW284373   2.703  12.821   0.698 -0.7928  0.3975  1.0365
22255SOL     OW84374   3.232   6.662   4.372 -0.2225 -0.4480 -0.0231
22255SOL    HW184375   3.285   6.740   4.390 -0.0348 -0.4298 -0.6252
22255SOL    HW284376   3.201   6.675   4.282  0.6232 -1.5219 -0.4848
22256SOL     OW84377   2.524   7.573   1.702  0.4771 -0.1851 -0.1718
22256SOL    HW184378   2.581   7.536   1.635  1.8424 -0.4057  1.0502
22256SOL    HW284379   2.565   7.656   1.726  1.7137 -1.4046  2.3749
22257SOL     OW84380  10.756   9.363   8.649  0.1166  0.5132  0.2239
22257SOL    HW184381  10.741   9.333   8.739 -1.5689  0.6168 -0.0004
22257SOL    HW284382  10.675   9.342   8.602  1.1853 -0.1335 -1.4507
22258SOL     OW84383   3.429   9.739   9.602 -0.3586 -0.5543 -0.5398
22258SOL    HW184384   3.445   9.687   9.523 -1.1531 -0.0701 -1.0400
22258SOL    HW284385   3.357   9.797   9.578  0.0498  0.2942  0.2362
22259SOL     OW84386   3.901  14.014   7.225 -0.1887 -0.1335  0.3392
22259SOL    HW184387   3.931  14.040   7.138  1.6710 -1.3884  0.5369
22259SOL    HW284388   3.806  14.006   7.217 -0.0017 -0.7352 -1.7372
22260SOL     OW84389   1.192   6.778  10.471  0.1275 -0.4316 -0.6449
22260SOL    HW184390   1.175   6.813  10.559  0.2081 -0.4158 -0.6357
22260SOL    HW284391   1.108   6.784  10.426  0.6901  2.3277 -1.5504
22261SOL     OW84392  13.798  11.359   1.775  0.5940 -0.3945  0.3044
22261SOL    HW184393  13.856  11.411   1.831  1.2666 -1.1084  0.3031
22261SOL    HW284394  13.856  11.291   1.739 -0.3969 -1.5770  0.8739
22262SOL     OW84395   3.556  11.792  10.900 -0.1278 -0.3881 -0.0412
22262SOL    HW184396   3.586  11.849  10.829  0.4289 -0.7484 -0.1083
22262SOL    HW284397   3.484  11.840  10.941  0.0266  0.1515 -0.3853
22263SOL     OW84398   6.091   2.082   7.864 -0.3985  0.3094 -0.1480
22263SOL    HW184399   6.135   2.029   7.930  0.5199  1.1796 -0.0324
22263SOL    HW284400   6.135   2.167   7.868  0.0233  0.2531 -2.1965
22264SOL     OW84401   5.684   8.321  13.639  0.5904 -0.2831 -0.2775
22264SOL    HW184402   5.701   8.339  13.732  0.2776  0.3064 -0.3297
22264SOL    HW284403   5.702   8.404  13.595  1.0247 -0.6385 -0.7890
22265SOL     OW84404   8.753   4.463   0.968 -0.1571 -0.2368  0.0310
22265SOL    HW184405   8.812   4.488   1.039 -0.1779 -0.7721  0.2418
22265SOL    HW284406   8.779   4.374   0.945 -1.1514 -0.6394  0.4098
22266SOL     OW84407   2.953   0.427   9.155 -0.1106  0.3833  0.3575
22266SOL    HW184408   2.945   0.520   9.136 -1.9394  0.4313  1.2126
22266SOL    HW284409   2.924   0.384   9.074  2.5183  0.4828 -0.7294
22267SOL     OW84410  12.922  10.342   1.275 -0.2327  0.3990 -0.0653
22267SOL    HW184411  13.017  10.331   1.272 -0.1157  1.3652 -0.0406
22267SOL    HW284412  12.902  10.407   1.208 -0.6253  1.7625  1.2957
22268SOL     OW84413   4.920   2.759   6.244 -0.0768  0.5386 -0.6750
22268SOL    HW184414   4.894   2.709   6.167  0.1110  1.2363 -1.2003
22268SOL    HW284415   4.955   2.694   6.304 -0.5632 -0.0587 -1.0284
22269SOL     OW84416   8.444  10.644   9.435 -0.2584  0.1454  0.2627
22269SOL    HW184417   8.489  10.709   9.381 -0.1100 -0.2241 -0.0650
22269SOL    HW284418   8.449  10.679   9.524  0.8654  0.0231  0.2694
22270SOL     OW84419  11.114  12.356   9.974 -0.3264  0.1836 -0.1363
22270SOL    HW184420  11.062  12.391  10.046 -1.5494  0.1836 -0.9864
22270SOL    HW284421  11.065  12.381   9.895  1.3191  0.7942 -1.0203
22271SOL     OW84422  10.883   4.748   3.925 -0.3953 -0.6120 -0.0633
22271SOL    HW184423  10.798   4.723   3.888 -0.0894 -2.1623  0.1902
22271SOL    HW284424  10.863   4.788   4.009 -0.8977 -0.7314 -0.1246
22272SOL     OW84425  13.299   0.009   3.176 -0.1807 -0.0309  0.4694
22272SOL    HW184426  13.301   0.025   3.270 -1.8468  0.2719  0.4675
22272SOL    HW284427  13.207   0.010   3.153  0.1744 -0.6344 -1.0889
22273SOL     OW84428  10.624   3.546   3.248 -0.1953 -0.2729  0.4542
22273SOL    HW184429  10.568   3.479   3.209 -0.3586 -0.3662  0.8398
22273SOL    HW284430  10.642   3.607   3.176 -0.2909 -0.5684  0.1758
22274SOL     OW84431   5.087   8.385   5.259 -0.1069  0.3572 -0.4273
22274SOL    HW184432   5.124   8.473   5.260  0.6434  0.0521  0.3059
22274SOL    HW284433   5.010   8.391   5.316  0.5104  0.3248  0.4386
22275SOL     OW84434   8.690  12.406   8.315  0.7606 -0.0454 -0.2212
22275SOL    HW184435   8.770  12.361   8.342  1.5103  1.5860  0.3746
22275SOL    HW284436   8.714  12.454   8.236 -0.0613 -0.7193 -0.9090
22276SOL     OW84437  10.244   6.395   6.269  0.0535  0.0675  0.0685
22276SOL    HW184438  10.332   6.431   6.277 -0.3000  0.7984  0.7921
22276SOL    HW284439  10.226   6.397   6.175  1.0892 -0.8184 -0.1702
22277SOL     OW84440   2.951   6.336   5.004 -0.0183  0.4109  0.6806
22277SOL    HW184441   3.007   6.260   4.989 -0.9366 -0.0762 -0.3902
22277SOL    HW284442   3.001   6.390   5.065  0.5924 -1.1148  1.6068
22278SOL     OW84443   9.028   9.297   2.131  0.0738  0.3386 -0.2849
22278SOL    HW184444   9.061   9.215   2.168 -0.7687 -1.2985 -2.8619
22278SOL    HW284445   8.944   9.311   2.174 -1.2215 -1.8972 -1.8170
22279SOL     OW84446   1.670  11.526  13.797  0.3071 -0.0615 -0.2754
22279SOL    HW184447   1.712  11.605  13.829 -2.2447  0.7989  1.2412
22279SOL    HW284448   1.694  11.458  13.860  0.3906  0.1433 -0.0860
22280SOL     OW84449  10.552   3.484   9.763  0.3215  0.1016 -0.0253
22280SOL    HW184450  10.461   3.515   9.758  0.1326 -0.4118  0.1785
22280SOL    HW284451  10.578   3.501   9.853  0.0724 -0.7222  0.2066
22281SOL     OW84452  12.057  13.174   9.145 -0.0254  0.2182 -1.0922
22281SOL    HW184453  11.989  13.148   9.207  0.0932  1.3188 -0.4683
22281SOL    HW284454  12.121  13.103   9.149 -0.5101 -0.2108 -0.7138
22282SOL     OW84455   3.799  12.309   0.740  0.0437 -0.0242 -0.3344
22282SOL    HW184456   3.737  12.272   0.803 -1.6289  1.0927 -1.2543
22282SOL    HW284457   3.813  12.240   0.676 -0.4483 -0.2090 -0.2463
22283SOL     OW84458  13.745  13.191   8.950  0.0664  0.1186  0.2118
22283SOL    HW184459  13.778  13.101   8.958 -0.8932 -0.2146  0.5193
22283SOL    HW284460  13.804  13.232   8.886  0.0760 -0.9359 -0.4856
22284SOL     OW84461   6.661  11.429  10.409 -0.0519  0.1799 -0.1050
22284SOL    HW184462   6.604  11.376  10.465 -0.2939 -1.3896 -1.7561
22284SOL    HW284463   6.745  11.382  10.410  0.5418  1.1945  0.4242
22285SOL     OW84464   2.845   0.158  13.758  0.4646  0.9101 -0.6584
22285SOL    HW184465   2.891   0.088  13.804 -0.8690  0.7030  0.4376
22285SOL    HW284466   2.862   0.142  13.666  2.6855  0.9472 -0.3016
22286SOL     OW84467   4.100  12.059   7.777 -0.3797  0.0695 -0.8706
22286SOL    HW184468   4.147  12.132   7.738  0.5431 -0.6992 -1.2271
22286SOL    HW284469   4.082  12.087   7.867  0.1347  0.6486 -0.9447
22287SOL     OW84470  12.255   5.766   8.758  0.5840 -0.0097  0.5583
22287SOL    HW184471  12.322   5.699   8.745  2.0796  1.6127 -0.5786
22287SOL    HW284472  12.179   5.734   8.710  1.2577 -0.9035  0.0647
22288SOL     OW84473   7.171   2.297  11.846 -0.0399  0.3184  0.0218
22288SOL    HW184474   7.254   2.344  11.848 -0.0057  0.3080 -0.9417
22288SOL    HW284475   7.121   2.333  11.919  1.1816 -0.3782  1.2557
22289SOL     OW84476  12.250  10.563   0.121 -0.0544  0.3391 -0.3437
22289SOL    HW184477  12.239  10.531   0.211  0.6696 -0.4806 -0.5338
22289SOL    HW284478  12.193  10.509   0.068 -0.9533  1.2306 -0.3156
22290SOL     OW84479   1.732   8.832  12.208  0.4272 -0.0061 -0.1454
22290SOL    HW184480   1.765   8.801  12.124  1.2085  0.2749  0.0495
22290SOL    HW284481   1.809   8.864  12.254 -0.0598  0.2820  0.4956
22291SOL     OW84482   0.147  10.772  11.481 -0.4490  0.2465 -0.7852
22291SOL    HW184483   0.199  10.773  11.561  0.4142 -2.5386 -1.2287
22291SOL    HW284484   0.134  10.865  11.460 -1.6642  1.1439  3.1168
22292SOL     OW84485   2.597   3.174   2.591 -0.2194  0.1601  0.0129
22292SOL    HW184486   2.613   3.156   2.499 -0.1771  1.5951 -0.2900
22292SOL    HW284487   2.644   3.105   2.638  1.3574  0.4781 -1.0042
22293SOL     OW84488   6.050   1.107   5.286 -0.2964 -0.0511 -0.3618
22293SOL    HW184489   6.065   1.029   5.232 -1.5558 -0.1767 -0.5396
22293SOL    HW284490   6.134   1.120   5.332 -0.3938 -2.2192  0.5653
22294SOL     OW84491   2.379   6.691   3.310 -0.4910  0.1735 -0.1428
22294SOL    HW184492   2.304   6.747   3.330 -1.6723 -1.3475 -0.2170
22294SOL    HW284493   2.368   6.668   3.218  1.3937  1.8336 -0.8634
22295SOL     OW84494  12.012   3.321   7.674 -0.5259 -0.0520 -0.2354
22295SOL    HW184495  12.063   3.245   7.649  0.4959  0.5059  0.0923
22295SOL    HW284496  11.983   3.303   7.763 -1.1279 -0.4714 -0.5058
22296SOL     OW84497   5.473  11.021  12.962  0.0564  0.1050  0.0953
22296SOL    HW184498   5.535  10.965  12.915 -0.0071 -1.8194  2.1529
22296SOL    HW284499   5.404  10.962  12.992  0.1336  1.1781  2.6405
22297SOL     OW84500   7.835  10.531   7.014 -0.0021  0.0232  0.4147
22297SOL    HW184501   7.847  10.481   7.095 -2.7012 -0.8395  0.3815
22297SOL    HW284502   7.760  10.587   7.030 -1.1099 -0.7254 -1.6936
22298SOL     OW84503   0.377   1.851  12.491 -0.0880  0.1160 -0.5045
22298SOL    HW184504   0.426   1.772  12.470 -0.3236 -0.4626  1.0407
22298SOL    HW284505   0.286   1.827  12.474 -0.1847 -0.0427  0.2076
22299SOL     OW84506   1.281  10.029  10.654  0.0374  0.0466 -0.4425
22299SOL    HW184507   1.267  10.002  10.744  2.0749  2.2011  0.6364
22299SOL    HW284508   1.243  10.117  10.650 -0.4657 -0.2114 -1.8553
22300SOL     OW84509  13.541  12.969   2.786 -0.2762  0.5661  0.5318
22300SOL    HW184510  13.489  13.017   2.722  0.4453 -0.6725 -1.0665
22300SOL    HW284511  13.630  13.002   2.773 -0.0125 -0.1725  0.3798
22301SOL     OW84512  11.296   0.021  10.683  0.1078 -0.1402  0.3132
22301SOL    HW184513  11.301   0.091  10.748 -1.0661  0.2906 -0.0361
22301SOL    HW284514  11.216  -0.026  10.705  0.7700 -1.2643  0.4112
22302SOL     OW84515   2.812   1.447   6.078  0.0752 -0.6121  0.3149
22302SOL    HW184516   2.780   1.368   6.124 -0.6546 -0.0847  0.7343
22302SOL    HW284517   2.865   1.492   6.144  1.3066 -1.2338 -0.2278
22303SOL     OW84518  10.125   8.056   0.254  0.2386  0.1874 -0.0835
22303SOL    HW184519  10.150   8.077   0.164 -1.4891  0.2230 -0.5960
22303SOL    HW284520  10.059   7.987   0.245  0.4914 -0.2550  1.2049
22304SOL     OW84521  10.377   5.095  14.039 -0.1446  0.3899 -0.5592
22304SOL    HW184522  10.384   5.045  14.121  1.2280  0.6875 -0.4643
22304SOL    HW284523  10.460   5.079  13.994 -0.2392  1.4886 -1.1580
22305SOL     OW84524   6.078   4.927   3.854  0.1631  0.1057 -0.3019
22305SOL    HW184525   6.144   4.866   3.820  0.3504  0.5202 -0.6860
22305SOL    HW284526   6.070   4.905   3.947  1.2914  0.4573 -0.1140
22306SOL     OW84527   6.096  12.729  10.782 -0.3056 -0.0046  0.2186
22306SOL    HW184528   6.060  12.659  10.837  1.0681 -1.1775 -0.3257
22306SOL    HW284529   6.061  12.713  10.695 -0.0913  0.0587  0.1184
22307SOL     OW84530   3.888   7.546  11.960 -0.4815  0.1109  0.5423
22307SOL    HW184531   3.846   7.604  11.896 -1.3076 -0.3406  0.6682
22307SOL    HW284532   3.956   7.601  12.000 -1.1530  0.9536  0.5637
22308SOL     OW84533   2.147  13.879  10.037  0.3513  0.0085 -0.1514
22308SOL    HW184534   2.170  13.880   9.945  1.4333 -2.9864 -0.0420
22308SOL    HW284535   2.228  13.854  10.082 -0.2579  0.9372  1.5755
22309SOL     OW84536   2.838   8.010   7.401  0.0011 -0.5859  0.2501
22309SOL    HW184537   2.818   7.920   7.427 -0.9032 -0.7723 -0.9697
22309SOL    HW284538   2.857   8.055   7.483  1.0438 -2.0124  0.8340
22310SOL     OW84539   6.505  12.102   3.823 -0.3545  0.2313  0.1969
22310SOL    HW184540   6.585  12.143   3.792 -0.3950 -0.2475 -0.5725
22310SOL    HW284541   6.443  12.174   3.833 -0.2460  0.4279 -0.5428
22311SOL     OW84542   5.407   7.683  11.853 -0.0540 -0.3840 -0.1352
22311SOL    HW184543   5.410   7.699  11.947  0.3134  0.2943 -0.2570
22311SOL    HW284544   5.318   7.650  11.837 -0.0914 -0.5785  0.4564
22312SOL     OW84545  11.533  13.563   8.104 -0.4587 -0.1792 -0.4394
22312SOL    HW184546  11.529  13.630   8.035 -0.1023 -0.5662 -0.8387
22312SOL    HW284547  11.564  13.484   8.060 -2.4954 -1.0906 -0.3352
22313SOL     OW84548   2.075   2.172   0.618 -0.1438 -0.0356  0.3185
22313SOL    HW184549   2.072   2.160   0.523  1.5720  0.7873  0.1131
22313SOL    HW284550   1.986   2.198   0.642 -0.9726 -1.6312 -0.8368
22314SOL     OW84551  13.142   5.626  11.052 -0.1562 -0.0432  0.3494
22314SOL    HW184552  13.079   5.605  11.121 -0.5936  1.0983  0.3182
22314SOL    HW284553  13.219   5.657  11.099 -0.2643  0.2384  0.3411
22315SOL     OW84554   2.589   5.548   0.563  0.7206  0.3535 -0.1377
22315SOL    HW184555   2.651   5.539   0.490 -0.1240 -0.4452 -0.7783
22315SOL    HW284556   2.578   5.642   0.573  0.4096  0.4706 -1.4266
22316SOL     OW84557  10.173   7.802   1.405 -0.0683 -0.6055  0.2638
22316SOL    HW184558  10.147   7.817   1.314  0.4773  0.6326  0.2983
22316SOL    HW284559  10.268   7.813   1.405 -0.2877  1.6982  1.3899
22317SOL     OW84560  13.653   0.085   3.530  0.1161 -0.1850 -0.0278
22317SOL    HW184561  13.690   0.028   3.598  0.5654  1.2208  0.9565
22317SOL    HW284562  13.728   0.136   3.499 -0.6181  1.3219  0.5978
22318SOL     OW84563   8.759   9.539  13.407  0.4120  0.0266 -0.0391
22318SOL    HW184564   8.761   9.444  13.395  1.7452 -0.1221  1.0840
22318SOL    HW284565   8.693   9.553  13.474  0.1209 -0.1015 -0.3004
22319SOL     OW84566   4.702   0.934   1.544 -0.6003 -0.4871 -0.3076
22319SOL    HW184567   4.635   0.996   1.573 -2.2460 -1.6553 -1.4823
22319SOL    HW284568   4.741   0.901   1.626 -2.0176 -0.3866  0.4377
22320SOL     OW84569  12.743   4.426   0.982  0.5003  0.4291  0.1022
22320SOL    HW184570  12.830   4.401   0.952 -0.6342 -1.6766 -1.6960
22320SOL    HW284571  12.696   4.450   0.902 -0.7667  0.9272  0.9664
22321SOL     OW84572   4.872  12.594   0.059 -0.1191  0.0778 -0.0959
22321SOL    HW184573   4.874  12.507   0.098 -2.8474  0.2184  0.5728
22321SOL    HW284574   4.909  12.652   0.126 -1.1013 -0.2056  0.7097
22322SOL     OW84575  12.706   2.512   9.795 -0.3092 -0.4109  0.8996
22322SOL    HW184576  12.735   2.422   9.808 -0.3678 -0.4171  0.9921
22322SOL    HW284577  12.680   2.516   9.703 -0.2253 -0.4655  0.8740
22323SOL     OW84578   6.226  13.517   1.790  0.0857 -0.1213  0.7092
22323SOL    HW184579   6.317  13.548   1.788 -0.0895  0.4670  1.4237
22323SOL    HW284580   6.231  13.427   1.758  1.5390 -1.5332  4.2635
22324SOL     OW84581   3.047   5.226   8.835 -0.2499  0.6020 -0.3671
22324SOL    HW184582   3.000   5.304   8.805 -0.6905 -0.5043 -2.7826
22324SOL    HW284583   2.990   5.187   8.901 -0.5895  1.6361 -0.0222
22325SOL     OW84584  12.432   8.182  10.643  0.1535  0.1652  0.3064
22325SOL    HW184585  12.414   8.264  10.689  0.4908  0.8612 -0.7659
22325SOL    HW284586  12.357   8.170  10.586 -0.9961 -1.4811  2.0382
22326SOL     OW84587   3.763   0.467   3.716 -0.2548 -0.2019 -0.0984
22326SOL    HW184588   3.775   0.554   3.754  0.1615 -0.3165  0.0327
22326SOL    HW284589   3.702   0.481   3.643 -0.6253  0.1043  0.2708
22327SOL     OW84590  10.642   0.501  12.004  0.0402  0.8698  0.7411
22327SOL    HW184591  10.680   0.587  12.019  1.1097  0.7502 -1.0796
22327SOL    HW284592  10.711   0.439  12.027 -0.5322  0.4924  1.5010
22328SOL     OW84593   6.465  10.010   0.768 -0.1292 -0.7793  0.1029
22328SOL    HW184594   6.477  10.039   0.858  0.5060 -1.3950  0.2187
22328SOL    HW284595   6.526  10.063   0.717 -2.2331  1.4049 -0.3669
22329SOL     OW84596   0.876   5.540   1.787  0.0805 -0.4393 -0.2818
22329SOL    HW184597   0.878   5.447   1.810 -1.0391 -0.0658  1.5442
22329SOL    HW284598   0.787   5.556   1.757 -0.3843  0.4377  1.4397
22330SOL     OW84599   2.144   9.753   0.215  0.4014 -0.0351 -0.2448
22330SOL    HW184600   2.155   9.751   0.310  0.5925  1.8447 -0.1964
22330SOL    HW284601   2.221   9.707   0.181  0.8478  0.1669  0.4773
22331SOL     OW84602   9.710   4.631  12.934  0.0784  0.0340  0.0184
22331SOL    HW184603   9.753   4.553  12.900 -2.1582 -1.4598  0.4656
22331SOL    HW284604   9.731   4.632  13.027 -2.3732 -1.8695  0.6863
22332SOL     OW84605   0.250   1.392  13.764 -0.1010  0.1712 -0.2553
22332SOL    HW184606   0.288   1.397  13.677  0.6341  1.6269  0.1147
22332SOL    HW284607   0.320   1.420  13.823 -0.0910 -2.1888  0.9845
22333SOL     OW84608   7.162  13.087  11.256 -0.3948  0.1044 -0.5981
22333SOL    HW184609   7.104  13.015  11.231 -0.9046  0.3761 -0.1940
22333SOL    HW284610   7.240  13.043  11.290  0.1939 -0.2726 -2.3514
22334SOL     OW84611   4.123   2.484   1.550  0.1367 -0.6781  0.0576
22334SOL    HW184612   4.048   2.429   1.573  0.0837 -0.4940  0.3310
22334SOL    HW284613   4.185   2.424   1.508 -0.1977 -0.8172 -0.2531
22335SOL     OW84614  13.733  11.244   7.740  0.2396 -0.0507  0.0248
22335SOL    HW184615  13.765  11.206   7.822  1.5294 -0.3466 -0.5917
22335SOL    HW284616  13.649  11.202   7.725  0.1517 -0.2485  1.0178
22336SOL     OW84617  12.981   5.482  12.931  0.0999  0.3266 -0.0186
22336SOL    HW184618  12.996   5.573  12.957  0.3107  0.6280 -1.1562
22336SOL    HW284619  12.894   5.461  12.966  0.3173  0.7388  0.8160
22337SOL     OW84620   1.717   7.513  10.985  0.0717  0.1417 -0.9420
22337SOL    HW184621   1.684   7.425  10.967 -0.8234  0.0382  0.8783
22337SOL    HW284622   1.808   7.511  10.958 -0.0119 -1.2638 -1.1989
22338SOL     OW84623   1.174   3.024   0.277 -0.4593  0.1010  0.0071
22338SOL    HW184624   1.236   2.991   0.212 -0.8470  0.9321 -0.8150
22338SOL    HW284625   1.145   3.108   0.242 -0.2860  0.8262  1.5326
22339SOL     OW84626   5.558  12.350   5.594  0.0514  0.2730  0.4112
22339SOL    HW184627   5.565  12.384   5.684  0.4382  1.6249 -0.1131
22339SOL    HW284628   5.648  12.343   5.564 -0.1073  1.5378 -0.4629
22340SOL     OW84629   7.524  11.789   8.779 -0.8121 -0.2520  0.0821
22340SOL    HW184630   7.481  11.797   8.694  0.2609  0.7612 -0.3979
22340SOL    HW284631   7.494  11.705   8.813 -1.9754 -0.2621 -0.8847
22341SOL     OW84632   9.660   2.836   9.887  0.0223 -0.0013  0.3927
22341SOL    HW184633   9.613   2.767   9.840  2.3407 -1.0424 -0.5973
22341SOL    HW284634   9.746   2.838   9.845  1.0189  1.4735  2.3546
22342SOL     OW84635   0.006  12.032  11.434  0.2448  0.4018  0.1344
22342SOL    HW184636   0.027  11.951  11.387  1.5999  0.1389  1.1059
22342SOL    HW284637  -0.019  12.094  11.366 -1.6425 -1.0298 -0.5888
22343SOL     OW84638   7.175   2.119  13.469 -0.5532  0.0430 -0.6759
22343SOL    HW184639   7.120   2.183  13.424 -0.9225 -0.5319 -1.0434
22343SOL    HW284640   7.251   2.108  13.412  0.2287  1.2281  0.0755
22344SOL     OW84641  12.185   5.997   2.326  0.1966 -0.7338  0.7311
22344SOL    HW184642  12.266   6.005   2.374  0.0381 -0.8996  1.0287
22344SOL    HW284643  12.135   6.076   2.349  0.8709  0.1205 -0.6084
22345SOL     OW84644   4.729   1.899   9.639  0.0190 -0.1567 -0.4006
22345SOL    HW184645   4.658   1.963   9.639 -0.1915 -0.3442 -2.0343
22345SOL    HW284646   4.687   1.817   9.613  0.7475 -0.3681 -0.9547
22346SOL     OW84647   1.056   4.681   6.180 -0.1111  0.3086 -0.0596
22346SOL    HW184648   1.079   4.700   6.271  0.2756 -1.9797  0.3838
22346SOL    HW284649   1.124   4.725   6.129  0.1306  0.9590  0.7913
22347SOL     OW84650   6.616   6.270   0.484 -0.2520  0.0642 -0.5110
22347SOL    HW184651   6.585   6.269   0.575 -0.6497 -0.7269 -0.6434
22347SOL    HW284652   6.608   6.361   0.457 -1.3783  0.0897 -0.1646
22348SOL     OW84653  12.940   5.987   5.449  0.3109  0.6008 -0.2281
22348SOL    HW184654  12.868   6.000   5.388  0.2038  1.7030  0.1198
22348SOL    HW284655  12.959   5.893   5.443 -1.9032  0.0443  0.5356
22349SOL     OW84656   6.491   6.172   0.009 -0.5662 -0.5051  0.6951
22349SOL    HW184657   6.460   6.119  -0.065 -2.3280  0.7150  0.4847
22349SOL    HW284658   6.412   6.211   0.045  0.3834 -0.2202  2.5889
22350SOL     OW84659   6.395   6.993   2.855  0.6088 -0.0202  0.1210
22350SOL    HW184660   6.476   7.043   2.859  0.6538 -0.0302 -0.5253
22350SOL    HW284661   6.334   7.050   2.808  0.3440 -0.1473  0.3109
22351SOL     OW84662   6.126   2.978   8.006 -0.2923  0.5541 -0.2058
22351SOL    HW184663   6.180   2.903   8.031  0.5788  0.6596 -1.6028
22351SOL    HW284664   6.175   3.018   7.934 -0.2979  2.9858  1.0684
22352SOL     OW84665   1.806   6.271  11.978 -0.0499 -0.0647 -0.3648
22352SOL    HW184666   1.760   6.252  11.897 -1.0418  0.8861 -0.0422
22352SOL    HW284667   1.747   6.242  12.047  0.5341 -0.3280  0.0348
22353SOL     OW84668  10.355   0.817  13.294  0.8347 -0.2869 -0.1897
22353SOL    HW184669  10.317   0.753  13.233  2.2160 -1.0743 -0.2641
22353SOL    HW284670  10.430   0.771  13.333  0.2094  0.3097  1.8645
22354SOL     OW84671   4.537   7.842  10.337  0.0219 -0.2397  0.2811
22354SOL    HW184672   4.531   7.793  10.419 -1.3858  2.8342  2.2422
22354SOL    HW284673   4.446   7.863  10.315  0.5179  1.0248 -0.6930
22355SOL     OW84674   9.717   1.585  12.768 -0.2210 -0.2744 -0.0022
22355SOL    HW184675   9.651   1.653  12.753  0.0046 -0.3295 -1.3022
22355SOL    HW284676   9.773   1.622  12.836 -1.0482  0.1447  0.4772
22356SOL     OW84677   4.388  12.401  10.640  0.2201 -0.1618  0.0029
22356SOL    HW184678   4.294  12.397  10.658 -0.0892 -1.2086 -1.6141
22356SOL    HW284679   4.429  12.368  10.720 -0.6999  1.4274  1.1748
22357SOL     OW84680   0.442   4.001  11.903  0.1661  1.0559 -0.2049
22357SOL    HW184681   0.529   3.974  11.932  0.4388  0.4572 -1.5149
22357SOL    HW284682   0.450   4.095  11.885  0.5058  1.0222 -0.2230
22358SOL     OW84683  10.191   2.457  12.032  0.1897 -0.6229  0.1084
22358SOL    HW184684  10.117   2.433  12.087  0.8227  0.1470  1.3438
22358SOL    HW284685  10.155   2.461  11.943 -1.2406 -0.2284  0.6798
22359SOL     OW84686   9.555   5.127   3.791  0.1455  0.5224 -0.0077
22359SOL    HW184687   9.601   5.100   3.711  0.8167 -0.1604  0.5896
22359SOL    HW284688   9.491   5.191   3.761 -0.3167 -0.4680 -1.2547
22360SOL     OW84689   1.470   7.638   1.075  0.0474 -0.3229 -0.4680
22360SOL    HW184690   1.453   7.546   1.095 -0.1559  0.0267  1.0571
22360SOL    HW284691   1.488   7.638   0.981  3.1746 -2.3997 -0.0431
22361SOL     OW84692   2.967  10.005   9.455  0.3944 -0.2783  0.2277
22361SOL    HW184693   2.875   9.979   9.469  0.3508 -1.1493 -1.3865
22361SOL    HW284694   3.018   9.934   9.494  0.3107 -1.4153 -1.6498
22362SOL     OW84695  13.914   4.513   3.468 -0.5440  0.4393  0.3662
22362SOL    HW184696  13.864   4.456   3.409  0.0336  0.1220  0.1794
22362SOL    HW284697  13.962   4.572   3.409  0.7356 -0.4617  0.4621
22363SOL     OW84698  11.637  11.888  12.641  0.6494 -0.2543  0.3190
22363SOL    HW184699  11.626  11.961  12.579 -0.6598 -1.1919 -0.6083
22363SOL    HW284700  11.724  11.901  12.678 -0.0915  2.6248  1.3148
22364SOL     OW84701   3.426  12.372  11.069  0.1061 -0.0594 -0.3620
22364SOL    HW184702   3.519  12.362  11.090  0.5666  0.5822 -1.9610
22364SOL    HW284703   3.388  12.286  11.088  0.1700  0.5951  3.9167
22365SOL     OW84704   8.143   2.203  12.462  0.3119 -0.8041 -0.3136
22365SOL    HW184705   8.134   2.221  12.369 -1.0610 -2.0932 -0.4640
22365SOL    HW284706   8.237   2.188  12.475  0.4879 -0.7966 -1.5192
22366SOL     OW84707   3.733   1.524   2.290 -0.2509 -0.2397 -0.2738
22366SOL    HW184708   3.829   1.524   2.285 -0.1173 -2.2324  1.1562
22366SOL    HW284709   3.707   1.447   2.240 -1.2058  0.8056 -1.4375
22367SOL     OW84710   1.371   9.717   5.474  0.5346  0.6115 -0.1336
22367SOL    HW184711   1.454   9.678   5.502 -0.3723  0.3580  2.5599
22367SOL    HW284712   1.386   9.811   5.475  0.3440  0.6908  2.3813
22368SOL     OW84713   4.350   5.630   2.557 -0.3846  0.0303 -0.1217
22368SOL    HW184714   4.437   5.597   2.579 -0.0915  1.0306  0.2702
22368SOL    HW284715   4.352   5.642   2.462  0.0410  0.4433 -0.0597
22369SOL     OW84716   6.935   5.867  12.881 -0.2763 -0.1565 -0.2505
22369SOL    HW184717   6.968   5.927  12.814 -1.1848 -1.0129 -1.5115
22369SOL    HW284718   6.946   5.914  12.964  0.1614  1.2343 -1.0739
22370SOL     OW84719   5.877   3.722   5.936 -0.0683  0.1186 -0.1056
22370SOL    HW184720   5.833   3.712   6.020  2.4724 -1.6803  1.1240
22370SOL    HW284721   5.852   3.644   5.886 -0.6838  0.6377 -0.6376
22371SOL     OW84722  13.462   6.483   8.868  0.4212 -0.3044 -0.1845
22371SOL    HW184723  13.395   6.425   8.904  0.4907 -1.1423 -1.3568
22371SOL    HW284724  13.485   6.541   8.941 -1.3877 -0.1540  0.3026
22372SOL     OW84725  11.912  11.512  10.734  0.0735 -0.2205 -0.3846
22372SOL    HW184726  11.962  11.442  10.776  2.0794  1.3929  0.0794
22372SOL    HW284727  11.921  11.587  10.794 -1.9437  0.4774 -0.8820
22373SOL     OW84728   3.213   2.238   7.050  0.1354  0.5830 -0.3552
22373SOL    HW184729   3.268   2.169   7.087  0.0582 -0.8233 -2.6321
22373SOL    HW284730   3.250   2.253   6.962 -0.6217  2.5798 -0.3735
22374SOL     OW84731  13.959  13.139  13.876  1.2548  0.5844 -0.0643
22374SOL    HW184732  13.935  13.139  13.784  1.7439  0.5639 -0.1951
22374SOL    HW284733  13.952  13.048  13.904  0.6125  0.6644  0.0550
22375SOL     OW84734  13.824   0.348   0.467 -0.6261  0.1376 -0.5860
22375SOL    HW184735  13.853   0.398   0.543 -2.1081  0.1956 -0.0206
22375SOL    HW284736  13.737   0.317   0.491 -0.8362 -0.4329 -1.9991
22376SOL     OW84737  11.787   5.455   5.788 -0.2716  0.4392  1.7894
22376SOL    HW184738  11.879   5.450   5.762 -0.6280 -0.1930  0.5549
22376SOL    HW284739  11.750   5.523   5.732 -0.9398 -0.5580  0.9782
22377SOL     OW84740  10.027  12.377   4.189 -0.6825  0.2688 -0.3203
22377SOL    HW184741  10.057  12.466   4.171 -0.2813  0.0117 -0.9380
22377SOL    HW284742  10.018  12.337   4.103 -0.8088 -0.3073 -0.0431
22378SOL     OW84743  13.558   0.587   4.409 -0.2562  0.4471  0.3496
22378SOL    HW184744  13.637   0.593   4.355  0.0334 -1.5436  0.4928
22378SOL    HW284745  13.584   0.621   4.494  0.6613 -0.7526  0.5797
22379SOL     OW84746  13.005  13.260   3.239  0.4882  0.2219  0.2969
22379SOL    HW184747  13.071  13.330   3.236 -0.6229  1.3878  1.3667
22379SOL    HW284748  13.053  13.182   3.266  1.7976  0.4968 -1.0788
22380SOL     OW84749  10.623   7.370   1.153 -0.4834 -1.0333 -0.1234
22380SOL    HW184750  10.670   7.334   1.228 -0.5587 -0.3636  0.2501
22380SOL    HW284751  10.537   7.395   1.188 -0.6719 -1.1050 -0.5270
22381SOL     OW84752   9.336   9.698   7.588  0.3197 -0.1014 -1.0637
22381SOL    HW184753   9.334   9.689   7.683 -0.6867  0.2616 -1.0373
22381SOL    HW284754   9.246   9.723   7.564  1.2066  2.7229 -1.8355
22382SOL     OW84755   7.854   5.601   7.435 -0.9443  0.1031 -0.1417
22382SOL    HW184756   7.886   5.523   7.390 -0.2031 -0.7634  1.7597
22382SOL    HW284757   7.785   5.568   7.493 -1.0247  0.9389  0.2502
22383SOL     OW84758  11.516   8.047   6.800 -0.2772 -0.3090 -0.3711
22383SOL    HW184759  11.502   8.093   6.883 -1.7107  0.3798 -0.9684
22383SOL    HW284760  11.429   8.020   6.771  0.1934 -0.5884 -1.6314
22384SOL     OW84761   4.944  13.871   5.695 -0.7923  0.3720 -0.1610
22384SOL    HW184762   4.915  13.878   5.786 -0.5665 -1.6194  0.1185
22384SOL    HW284763   4.870  13.834   5.649 -0.5744  0.4722 -0.5986
22385SOL     OW84764  12.379   3.359   1.198 -0.5254 -0.0932 -0.4799
22385SOL    HW184765  12.438   3.424   1.158 -0.3017  0.3165  0.5009
22385SOL    HW284766  12.357   3.396   1.283 -0.0284 -1.5214  0.2918
22386SOL     OW84767   2.019   4.130   0.283  0.0767 -0.4784 -0.1387
22386SOL    HW184768   1.968   4.187   0.341  0.4498  1.0103 -1.2092
22386SOL    HW284769   2.106   4.169   0.282 -0.0248 -0.1965 -2.0046
22387SOL     OW84770  12.412   7.638   9.329 -0.5651  0.0900 -0.0327
22387SOL    HW184771  12.375   7.558   9.367 -0.5916 -0.0524 -0.3550
22387SOL    HW284772  12.420   7.698   9.403 -2.0606  0.3605 -0.0569
22388SOL     OW84773   7.250   0.571   0.357 -0.2787  0.3267  0.4790
22388SOL    HW184774   7.207   0.648   0.394 -0.6131  0.2588  0.2318
22388SOL    HW284775   7.222   0.499   0.414  0.4996  0.4730  1.0628
22389SOL     OW84776   0.494   3.342  12.388 -0.3584 -0.4732  0.1121
22389SOL    HW184777   0.540   3.387  12.316 -0.8260  0.6326  0.4760
22389SOL    HW284778   0.452   3.413  12.436  1.5954 -0.9259  2.7088
22390SOL     OW84779   8.031   1.447   0.128 -0.3216 -0.2327  0.1419
22390SOL    HW184780   8.002   1.408   0.211 -0.3937  2.8832  1.7491
22390SOL    HW284781   7.953   1.491   0.094  0.7717  2.6692  1.0822
22391SOL     OW84782  10.795  11.703   9.391 -0.1694  0.4651 -0.3940
22391SOL    HW184783  10.808  11.787   9.434  2.0485  1.4658 -2.7997
22391SOL    HW284784  10.727  11.720   9.326 -1.4968 -0.3220  0.7233
22392SOL     OW84785   9.892   4.480   6.667 -0.0319  0.2460 -0.0459
22392SOL    HW184786   9.827   4.505   6.601 -0.5398  0.7023  0.6147
22392SOL    HW284787   9.845   4.421   6.726  0.4620 -0.2837 -0.1670
22393SOL     OW84788   3.155  13.912   8.404 -0.8274  0.2181  0.3614
22393SOL    HW184789   3.173  13.821   8.379 -2.5908 -0.4984  1.4975
22393SOL    HW284790   3.240  13.947   8.428 -0.3331 -1.8017  1.8761
22394SOL     OW84791  11.615   8.777   9.362 -0.2307 -0.0392 -0.6498
22394SOL    HW184792  11.568   8.696   9.382 -1.1812  0.4491 -0.8237
22394SOL    HW284793  11.696   8.772   9.413 -0.9883 -0.4029  0.5574
22395SOL     OW84794   3.149   5.549   9.478 -0.6515  1.1486  0.5921
22395SOL    HW184795   3.144   5.457   9.505 -1.7235  1.2270  0.7014
22395SOL    HW284796   3.107   5.552   9.392  0.6559  1.3097 -0.0730
22396SOL     OW84797   8.283  12.861   8.988  0.0070 -0.2648 -0.1379
22396SOL    HW184798   8.209  12.886   9.042  0.7103  2.3147 -0.2153
22396SOL    HW284799   8.339  12.809   9.045 -1.2700 -1.2322  0.2695
22397SOL     OW84800   2.668   5.661   8.751  0.0112 -0.0952  0.1747
22397SOL    HW184801   2.587   5.667   8.701  0.2177  0.2150 -0.1300
22397SOL    HW284802   2.657   5.724   8.822  0.3915  0.6978 -0.4576
22398SOL     OW84803   3.808   0.339  11.373 -0.0313 -0.2737  0.1111
22398SOL    HW184804   3.898   0.307  11.375  0.0837  0.0469  2.2074
22398SOL    HW284805   3.760   0.272  11.324  1.0977 -1.1725  0.1956
22399SOL     OW84806   3.175   7.786   8.091  0.1166 -0.1349  0.0668
22399SOL    HW184807   3.148   7.732   8.016  2.4114  1.3337 -2.0038
22399SOL    HW284808   3.120   7.864   8.086 -1.2056 -0.9399  1.3011
22400SOL     OW84809   7.956   8.208   1.086 -0.2109 -0.4075 -0.2931
22400SOL    HW184810   7.950   8.200   0.990  0.2854 -2.1259 -0.2181
22400SOL    HW284811   7.930   8.298   1.104  4.1460  1.6342 -2.4673
22401SOL     OW84812   1.757  13.147  10.532  0.5218  0.1420  0.1885
22401SOL    HW184813   1.785  13.187  10.614 -0.1469 -0.6423  0.8187
22401SOL    HW284814   1.828  13.086  10.510 -0.2744 -1.3223  1.4116
22402SOL     OW84815   6.339  12.881   8.961  0.1646 -0.2771 -0.7473
22402SOL    HW184816   6.261  12.933   8.939  0.6561  0.9913  0.3519
22402SOL    HW284817   6.398  12.894   8.888 -0.0432  0.0577 -0.8572
22403SOL     OW84818  10.434   6.238   2.369  0.0969  0.0775  0.4371
22403SOL    HW184819  10.354   6.291   2.367  0.2851  0.3468 -0.6287
22403SOL    HW284820  10.410   6.157   2.325 -0.5519 -1.3348  3.1488
22404SOL     OW84821   6.501  13.565  11.265 -0.1850  0.1420 -0.4011
22404SOL    HW184822   6.422  13.616  11.249  0.6035  1.0347 -1.6953
22404SOL    HW284823   6.477  13.475  11.243 -1.2088  0.1527  0.5904
22405SOL     OW84824   1.462  11.959  13.975  0.4344  0.7783 -0.3393
22405SOL    HW184825   1.432  11.868  13.975 -0.5524  1.0910 -0.4654
22405SOL    HW284826   1.527  11.962  14.045  0.2483  0.0454 -0.1187
22406SOL     OW84827   2.063  12.588   8.820 -0.3666 -0.1582 -0.2913
22406SOL    HW184828   2.074  12.537   8.739  0.3958  1.0243 -0.9666
22406SOL    HW284829   2.076  12.524   8.890 -1.1538 -1.2366 -1.0775
22407SOL     OW84830   8.553  13.834   3.811 -0.2139  0.8806  0.0058
22407SOL    HW184831   8.502  13.904   3.769 -1.2553 -0.2024 -0.5987
22407SOL    HW284832   8.633  13.877   3.841 -1.5293  2.6830  1.1169
22408SOL     OW84833  13.117  11.396  10.478  1.0395  0.4418  0.2323
22408SOL    HW184834  13.185  11.329  10.476 -1.0070 -1.7552 -0.1828
22408SOL    HW284835  13.059  11.374  10.406 -0.3007  2.0505  0.7423
22409SOL     OW84836   7.561  13.025   1.999 -0.1838 -0.0816 -0.3834
22409SOL    HW184837   7.537  13.118   1.998  1.5821  0.4122  0.4155
22409SOL    HW284838   7.493  12.985   2.053  0.0540  1.0633  0.8252
22410SOL     OW84839   5.431   3.841   8.514 -0.0191  0.4202  0.0149
22410SOL    HW184840   5.412   3.750   8.539 -0.0463  0.3795 -0.1578
22410SOL    HW284841   5.464   3.836   8.425  2.1790  0.3277  0.7595
22411SOL     OW84842   8.829   0.690  11.344 -0.1144  0.2552 -0.1886
22411SOL    HW184843   8.860   0.760  11.286 -0.5493  0.1105 -0.6045
22411SOL    HW284844   8.838   0.727  11.432  1.6454  0.0438 -0.2447
22412SOL     OW84845   3.791   3.277   3.890  0.0812 -0.1999 -0.4353
22412SOL    HW184846   3.702   3.252   3.866  0.4081 -1.7479 -0.1226
22412SOL    HW284847   3.847   3.232   3.827  0.6030  2.5783 -2.1075
22413SOL     OW84848   7.026   1.140  11.127  0.6297 -0.3293  0.9123
22413SOL    HW184849   7.011   1.195  11.050 -0.8689  1.7656  2.5884
22413SOL    HW284850   7.111   1.099  11.110  0.1742 -0.3118 -2.0084
22414SOL     OW84851  10.350   9.055  12.578  0.5144  0.5344 -0.3648
22414SOL    HW184852  10.376   8.975  12.532  2.0270  1.1534 -0.6470
22414SOL    HW284853  10.300   9.024  12.653 -2.1357 -0.5118 -2.3734
22415SOL     OW84854   7.599   7.057   7.512 -0.1065 -0.1303 -0.3380
22415SOL    HW184855   7.511   7.093   7.514 -0.1450 -0.2160  0.9568
22415SOL    HW284856   7.586   6.962   7.506 -0.0794 -0.0999 -0.9008
22416SOL     OW84857   8.221  11.067   1.853 -0.0623 -0.5867  0.3283
22416SOL    HW184858   8.170  11.023   1.785  0.4455  2.1874 -2.0031
22416SOL    HW284859   8.310  11.068   1.819  0.1289  1.2400  0.8090
22417SOL     OW84860  11.829   6.809   4.747 -0.0003  0.4543 -0.3015
22417SOL    HW184861  11.920   6.819   4.721 -0.3835  1.0305 -1.5010
22417SOL    HW284862  11.804   6.723   4.715  0.1801  0.1930  0.2455
22418SOL     OW84863   6.479   3.136   5.480 -0.5609 -0.3707 -0.0479
22418SOL    HW184864   6.514   3.166   5.396 -1.0975 -3.0316 -1.3319
22418SOL    HW284865   6.445   3.215   5.522  1.1920  1.2921 -1.5821
22419SOL     OW84866   9.055   0.793  12.337 -0.2348  0.2404  0.4712
22419SOL    HW184867   9.019   0.877  12.365  2.2119  2.2954 -2.0242
22419SOL    HW284868   8.980   0.746  12.300 -1.6925  1.1404  2.1353
22420SOL     OW84869   0.686   8.608   5.368 -0.3061  0.1095 -0.1748
22420SOL    HW184870   0.738   8.535   5.400  2.5248  0.4214 -3.4735
22420SOL    HW284871   0.602   8.569   5.343  0.6543 -1.7588 -0.6187
22421SOL     OW84872   1.211   5.200  11.939  0.8617 -0.6085 -0.1782
22421SOL    HW184873   1.213   5.275  12.000  0.8701 -0.6158 -0.1698
22421SOL    HW284874   1.272   5.224  11.870  0.8910 -0.6228 -0.1574
22422SOL     OW84875  11.381   4.631  13.288  0.1735  0.3172 -0.7229
22422SOL    HW184876  11.336   4.547  13.302  1.5356 -0.2486  0.6074
22422SOL    HW284877  11.321   4.682  13.234 -2.0582 -0.3735  0.9370
22423SOL     OW84878   6.691   1.687   5.725 -0.2063 -0.4511  0.2697
22423SOL    HW184879   6.784   1.667   5.718 -0.3395 -1.0903  0.2303
22423SOL    HW284880   6.660   1.686   5.635 -0.6928 -2.5300  0.4042
22424SOL     OW84881  10.791  12.458   5.285 -0.0538  0.0197  0.6501
22424SOL    HW184882  10.732  12.530   5.264 -0.1010  0.8022  3.1901
22424SOL    HW284883  10.736  12.380   5.277 -0.8262  0.5367  0.8120
22425SOL     OW84884  10.355   0.162  11.074 -0.4824  0.0458  0.3766
22425SOL    HW184885  10.284   0.223  11.094 -2.7565 -1.5845 -1.9958
22425SOL    HW284886  10.352   0.097  11.144 -1.4962 -0.0967  0.2177
22426SOL     OW84887  12.129   6.932   4.946  0.2983  0.1354  0.0013
22426SOL    HW184888  12.093   6.891   4.868 -2.0408 -0.2679  1.1981
22426SOL    HW284889  12.210   6.884   4.964 -0.8114 -1.9697 -0.3425
22427SOL     OW84890   4.767   9.699  12.113  0.0427 -0.4307 -0.1724
22427SOL    HW184891   4.790   9.610  12.139 -2.4063 -2.0913 -2.9944
22427SOL    HW284892   4.725   9.737  12.190  0.9242 -1.7826  1.0270
22428SOL     OW84893   4.503   5.315  11.917 -0.1889  0.0502 -0.0648
22428SOL    HW184894   4.565   5.287  11.851 -0.1116  0.8718 -0.3556
22428SOL    HW284895   4.479   5.404  11.891 -0.9771 -0.0145  0.4130
22429SOL     OW84896   3.193   3.824  13.555  0.7995  0.0251  0.2906
22429SOL    HW184897   3.122   3.883  13.579 -0.9916 -1.4663 -0.9989
22429SOL    HW284898   3.211   3.845  13.463  0.5415 -1.0005 -0.0083
22430SOL     OW84899   0.271   5.895  11.430  0.0197  0.3454  0.1430
22430SOL    HW184900   0.196   5.929  11.383 -1.0032 -2.6740 -0.6547
22430SOL    HW284901   0.344   5.904  11.369 -0.9918 -2.1339 -1.5748
22431SOL     OW84902   5.309   8.665  10.659  0.3683 -0.0317 -0.2945
22431SOL    HW184903   5.374   8.732  10.639  0.5865  0.0698  0.6793
22431SOL    HW284904   5.225   8.703  10.634  0.3477  1.1244  1.3836
22432SOL     OW84905   3.274   3.881  12.004  0.2020 -0.2425  0.1993
22432SOL    HW184906   3.230   3.833  11.934 -2.9871  1.3538  0.8959
22432SOL    HW284907   3.271   3.972  11.977  2.2843  0.0514  0.8006
22433SOL     OW84908   4.206  11.742  13.548  0.5733  0.3254 -0.2063
22433SOL    HW184909   4.259  11.665  13.529  1.9618  0.8984  1.0862
22433SOL    HW284910   4.225  11.803  13.477  1.6457  0.4973  0.2016
22434SOL     OW84911   9.676  10.817   3.261  0.0399 -0.3976 -0.1176
22434SOL    HW184912   9.693  10.888   3.323  1.2043  0.4467 -1.3518
22434SOL    HW284913   9.580  10.816   3.251  0.0017  0.9624 -0.0248
22435SOL     OW84914   1.803   8.719   2.995 -0.0434 -0.1028  0.0152
22435SOL    HW184915   1.871   8.676   3.046 -0.7947 -2.9791 -1.2347
22435SOL    HW284916   1.851   8.773   2.932  0.9548  0.1369  0.9368
22436SOL     OW84917   9.336   6.659   1.964 -0.4789  0.1695  0.4892
22436SOL    HW184918   9.269   6.601   1.926  0.9027 -0.5848 -0.9342
22436SOL    HW284919   9.418   6.626   1.928  0.8309  0.2245  3.2379
22437SOL     OW84920  13.791   2.990   7.408 -0.1441 -0.2290 -0.1917
22437SOL    HW184921  13.875   2.981   7.452 -0.3881 -0.3378  0.2611
22437SOL    HW284922  13.733   2.930   7.455 -0.2572 -0.8089 -1.0553
22438SOL     OW84923   0.278  13.687   5.530  0.0561  0.1325  0.2929
22438SOL    HW184924   0.277  13.783   5.534  1.7214  0.1465  1.6576
22438SOL    HW284925   0.337  13.661   5.601 -0.1197 -1.9062 -0.2480
22439SOL     OW84926   7.947  12.115   1.736  0.1740 -0.5732 -0.0732
22439SOL    HW184927   7.944  12.157   1.823 -1.6758 -1.9614  0.5993
22439SOL    HW284928   8.019  12.052   1.742 -1.7889 -2.8405  1.6164
22440SOL     OW84929   2.127   7.767  14.017  1.0497 -0.5342 -0.0050
22440SOL    HW184930   2.136   7.859  13.993  0.1130 -0.5423 -0.4557
22440SOL    HW284931   2.144   7.764  14.111  0.0485  0.2809  0.2215
22441SOL     OW84932  13.864   8.736  13.341  0.3653 -0.4051 -0.0635
22441SOL    HW184933  13.777   8.747  13.379 -0.1584  2.2550 -1.7826
22441SOL    HW284934  13.917   8.700  13.413 -1.6881 -0.2897  1.5908
22442SOL     OW84935  10.274   0.960   3.098  0.0570 -0.2010 -0.0676
22442SOL    HW184936  10.343   1.007   3.052 -0.4640  1.7637  1.0407
22442SOL    HW284937  10.269   0.875   3.055  2.6388 -0.1166 -0.6617
22443SOL     OW84938   4.843   7.049   1.513 -0.3352 -0.3792  0.0578
22443SOL    HW184939   4.908   7.100   1.561 -0.0257 -0.0040 -0.7432
22443SOL    HW284940   4.883   7.033   1.427 -1.8387  1.0693 -0.9852
22444SOL     OW84941  11.280  12.881   5.923 -0.3712  0.3255  0.6327
22444SOL    HW184942  11.311  12.903   5.836  1.6480 -0.1640  1.1721
22444SOL    HW284943  11.252  12.790   5.917  2.3907 -0.6597  1.0377
22445SOL     OW84944  12.511   1.169  13.349 -0.1700  0.0223  0.0630
22445SOL    HW184945  12.556   1.176  13.266  1.4641 -1.2260  0.7806
22445SOL    HW284946  12.552   1.234  13.405 -2.0104  1.6321 -0.3568
22446SOL     OW84947  12.882   9.984   5.332  0.0589  0.0372 -0.1201
22446SOL    HW184948  12.946   9.946   5.392  0.8070 -0.6117 -1.2773
22446SOL    HW284949  12.804   9.931   5.343 -0.1870  0.6264  1.0710
22447SOL     OW84950  13.602   8.655   5.454 -0.2790 -0.1817 -0.0896
22447SOL    HW184951  13.566   8.707   5.383 -0.9412  0.7463  0.8873
22447SOL    HW284952  13.686   8.623   5.422  0.5354  2.1808 -0.4332
22448SOL     OW84953   7.376   1.458   1.100 -0.0640  0.0559 -0.2905
22448SOL    HW184954   7.442   1.524   1.078 -0.9052  1.7296  1.7825
22448SOL    HW284955   7.303   1.508   1.135 -1.4871 -1.9093 -0.2593
22449SOL     OW84956   0.253   0.619   6.812  0.1677  0.2294 -0.6702
22449SOL    HW184957   0.203   0.635   6.731 -0.6854 -1.2367 -0.4758
22449SOL    HW284958   0.187   0.619   6.881  0.8515  1.1174  0.0099
22450SOL     OW84959  12.457   1.019   6.872  0.0419 -0.4941  0.2543
22450SOL    HW184960  12.370   1.050   6.899  0.3955 -1.0115  2.1273
22450SOL    HW284961  12.515   1.093   6.888  0.3360 -0.9664  1.4415
22451SOL     OW84962   9.818   2.554   9.025 -0.0862  0.2613  0.0403
22451SOL    HW184963   9.768   2.472   9.026 -0.9934  0.8098  0.6454
22451SOL    HW284964   9.768   2.613   9.081  1.3430  0.7838  0.7870
22452SOL     OW84965  11.716   7.820  13.813 -0.2636  0.0175 -0.0047
22452SOL    HW184966  11.675   7.797  13.730 -0.7046  1.6485 -0.2768
22452SOL    HW284967  11.807   7.837  13.791  0.2603 -2.0710  0.3317
22453SOL     OW84968   7.996  11.579   7.641 -0.6899  0.4968 -0.2550
22453SOL    HW184969   8.085  11.591   7.673 -0.1158 -1.0357 -1.1570
22453SOL    HW284970   7.941  11.595   7.717  0.4498  0.1129  0.6771
22454SOL     OW84971  11.506  13.170   7.707 -0.4871 -0.3444  0.0762
22454SOL    HW184972  11.556  13.105   7.758 -1.5935  0.0381  1.7290
22454SOL    HW284973  11.428  13.123   7.678 -0.9435  0.0406  0.6637
22455SOL     OW84974   0.242   5.781   9.808 -0.2275 -0.2583  0.3081
22455SOL    HW184975   0.299   5.816   9.876  1.8355 -1.0242 -0.9239
22455SOL    HW284976   0.278   5.695   9.789 -1.9675 -0.8790 -0.4034
22456SOL     OW84977   7.160  13.085   5.082  0.1446 -0.1475 -0.8153
22456SOL    HW184978   7.227  13.093   5.015 -1.7953  1.0140 -2.7347
22456SOL    HW284979   7.118  13.171   5.085 -1.3787 -0.8759  0.2051
22457SOL     OW84980   3.112   3.427  14.055 -0.2162 -0.3456  0.0332
22457SOL    HW184981   3.161   3.458  14.131  1.2115 -1.0138 -0.5695
22457SOL    HW284982   3.059   3.354  14.088  1.2510 -1.3825  0.1978
22458SOL     OW84983   9.160   4.087   9.301 -0.0233  0.4909 -0.1445
22458SOL    HW184984   9.151   4.082   9.206  0.2244  0.4654 -0.1683
22458SOL    HW284985   9.158   3.996   9.331 -0.7793  0.5297 -0.0567
22459SOL     OW84986  13.776   6.991  12.991 -0.1863 -0.5420 -0.0065
22459SOL    HW184987  13.783   7.032  12.905  1.8561 -1.0074 -0.1093
22459SOL    HW284988  13.707   6.926  12.981 -0.3488 -0.2246 -1.1189
22460SOL     OW84989   6.541   6.595   2.212  0.0527  0.4087 -0.2691
22460SOL    HW184990   6.619   6.650   2.217 -0.2267  0.8185 -0.3698
22460SOL    HW284991   6.571   6.508   2.240  0.5947  0.5082 -0.5290
22461SOL     OW84992   8.580   6.052  13.426  0.8664  0.8695 -0.1191
22461SOL    HW184993   8.606   5.968  13.466 -0.5866 -0.3764 -1.6490
22461SOL    HW284994   8.519   6.090  13.489  1.0043  0.4482  0.2775
22462SOL     OW84995   9.267  12.185   7.445  0.5801  0.1445  0.1504
22462SOL    HW184996   9.266  12.094   7.415 -1.7336 -0.3586  1.5319
22462SOL    HW284997   9.305  12.181   7.533  0.6584  0.5616  0.1373
22463SOL     OW84998   4.434  13.993   3.361 -0.4451  0.0847  0.2131
22463SOL    HW184999   4.414  14.085   3.345  0.7658  0.4632  0.7982
22463SOL    HW285000   4.382  13.946   3.296 -0.4906  1.2205 -0.5964
22464SOL     OW85001  12.030  10.211   4.143  0.3353  0.2504 -0.0855
22464SOL    HW185002  12.002  10.128   4.182 -0.1917 -0.1359 -1.2518
22464SOL    HW285003  12.079  10.254   4.213  0.2251 -0.8354  0.6944
22465SOL     OW85004   0.388  13.072   6.374  0.2085 -0.3209  0.2714
22465SOL    HW185005   0.383  13.047   6.281 -0.6678 -0.5497  0.3665
22465SOL    HW285006   0.345  13.157   6.378 -1.3739 -1.1026  0.7226
22466SOL     OW85007   7.730   3.313   1.174 -0.6535 -0.0020  0.8793
22466SOL    HW185008   7.805   3.336   1.120 -0.4324 -0.8188  0.8217
22466SOL    HW285009   7.660   3.372   1.145 -0.7145 -0.8093 -0.7152
22467SOL     OW85010   5.484   7.952   9.126  0.1456 -0.2912 -0.1755
22467SOL    HW185011   5.495   7.933   9.033 -0.6473 -0.0125 -0.3312
22467SOL    HW285012   5.403   8.001   9.131  0.0751 -0.4823  0.6943
22468SOL     OW85013   4.511   9.873   5.549  0.2527 -0.1024 -0.5847
22468SOL    HW185014   4.589   9.824   5.523 -0.0797 -0.5209 -0.7898
22468SOL    HW285015   4.491   9.927   5.472  1.1776  1.0971 -0.0352
22469SOL     OW85016  11.985   5.599   4.556 -0.5522  0.3286 -0.3985
22469SOL    HW185017  12.006   5.513   4.592 -3.0536  0.2019  1.0092
22469SOL    HW285018  12.068   5.646   4.554  0.4219 -1.1973  1.3806
22470SOL     OW85019   3.556   0.853  14.085 -0.3276  0.0010 -0.1551
22470SOL    HW185020   3.626   0.896  14.036 -0.9662  1.5649  0.2118
22470SOL    HW285021   3.599   0.818  14.163  0.2110  0.0509 -0.4279
22471SOL     OW85022   9.726  11.842  11.739 -0.3294 -0.2511 -0.1954
22471SOL    HW185023   9.787  11.786  11.692 -0.8708 -0.6237 -0.4601
22471SOL    HW285024   9.761  11.845  11.828  0.5061  0.1800 -0.5287
22472SOL     OW85025   8.782  13.115  10.517  0.1222  0.8297 -0.4363
22472SOL    HW185026   8.855  13.053  10.517 -0.6773 -0.1433 -1.5457
22472SOL    HW285027   8.726  13.087  10.590 -1.6061 -1.5155 -2.4867
22473SOL     OW85028  13.934  10.614   3.342  0.3958  0.5654  0.2924
22473SOL    HW185029  13.850  10.583   3.376  0.1498  0.4092 -0.4314
22473SOL    HW285030  13.916  10.633   3.250  1.5052 -0.8824 -0.2506
22474SOL     OW85031  10.248  10.738   2.277 -0.6969  0.1025 -0.8465
22474SOL    HW185032  10.302  10.660   2.263  2.0002  2.0606 -2.4517
22474SOL    HW285033  10.212  10.758   2.190 -0.8631  0.9859 -0.5853
22475SOL     OW85034   8.705   5.524   5.407 -0.1780 -0.3773  0.6734
22475SOL    HW185035   8.653   5.446   5.387 -1.1511  0.2643  0.6388
22475SOL    HW285036   8.752   5.543   5.326 -0.1312 -0.7765  0.6030
22476SOL     OW85037   1.404   1.267   5.006  0.3886 -0.0442 -0.1922
22476SOL    HW185038   1.367   1.328   5.070  0.5610  0.4085 -0.5222
22476SOL    HW285039   1.495   1.255   5.034  1.6660  3.1121 -2.4309
22477SOL     OW85040   5.394   7.282  12.981 -0.0951 -0.4668 -0.5077
22477SOL    HW185041   5.477   7.234  12.981 -0.0956 -0.5573  1.3509
22477SOL    HW285042   5.341   7.237  13.047 -2.3219 -1.4655 -2.8110
22478SOL     OW85043   2.536   8.550   4.109 -0.1757 -0.3926 -0.4179
22478SOL    HW185044   2.511   8.472   4.159  0.9523 -0.4820  0.0376
22478SOL    HW285045   2.629   8.538   4.091  0.4717  1.6733  1.1979
22479SOL     OW85046   0.245   5.182  13.334 -1.1066  0.6643 -0.2052
22479SOL    HW185047   0.178   5.202  13.268 -2.8256 -2.9992  0.1680
22479SOL    HW285048   0.232   5.248  13.401 -3.4042  0.9779 -0.8555
22480SOL     OW85049   2.145   1.396  12.395 -0.4475  0.4194  0.2568
22480SOL    HW185050   2.084   1.327  12.368  1.8687 -0.5654 -3.0604
22480SOL    HW285051   2.170   1.371  12.484 -0.7733 -2.2915 -0.3086
22481SOL     OW85052   8.264   6.957   1.378 -0.5778  0.4489 -0.1372
22481SOL    HW185053   8.203   6.994   1.442 -0.5807  0.1118  0.0606
22481SOL    HW285054   8.315   6.893   1.428 -1.1175 -0.4040 -0.6338
22482SOL     OW85055  13.302   4.674   5.581 -0.2902  0.3585  0.1122
22482SOL    HW185056  13.330   4.723   5.503 -1.7535 -1.5815 -1.7710
22482SOL    HW285057  13.376   4.616   5.600 -0.5557 -0.3736 -0.9671
22483SOL     OW85058   2.517   3.664   6.400 -0.0806 -0.5662  0.0047
22483SOL    HW185059   2.445   3.708   6.445 -0.3447 -2.3619  1.4387
22483SOL    HW285060   2.526   3.580   6.445  3.0569 -0.3241  0.0105
22484SOL     OW85061   0.708   2.872  13.614  0.0694  0.0051  0.2446
22484SOL    HW185062   0.673   2.784  13.598 -0.6325  0.2207  0.5797
22484SOL    HW285063   0.646   2.930  13.571  1.0713  0.3002 -0.8581
22485SOL     OW85064   9.527   3.968  11.266 -0.1337 -0.6975  0.3549
22485SOL    HW185065   9.533   4.026  11.189  1.3591 -0.5053  0.5957
22485SOL    HW285066   9.449   3.915  11.249 -0.9224  0.6205 -0.3991
22486SOL     OW85067   2.181   6.545  11.776  0.0957 -0.2025  0.2477
22486SOL    HW185068   2.254   6.538  11.837  1.2330 -3.6185 -1.2384
22486SOL    HW285069   2.115   6.484  11.809 -0.1319 -0.5630 -0.8152
22487SOL     OW85070  11.557   2.146   4.913 -0.2464 -0.5509 -0.6425
22487SOL    HW185071  11.505   2.078   4.869 -1.1823  0.4695 -1.1892
22487SOL    HW285072  11.519   2.228   4.881  0.6195  0.2270  0.2778
22488SOL     OW85073   4.875   4.246  12.639 -0.3774 -0.2827  0.4320
22488SOL    HW185074   4.895   4.220  12.549  1.3009 -0.2230  0.7502
22488SOL    HW285075   4.828   4.329  12.630  0.7388  0.2985 -0.3911
22489SOL     OW85076   0.137   1.924   4.774 -0.1641  0.2607  0.1580
22489SOL    HW185077   0.137   1.937   4.869 -0.3927 -1.0131  0.3569
22489SOL    HW285078   0.063   1.864   4.759 -0.3361  0.7112 -0.8692
22490SOL     OW85079   9.178   1.276   1.898  0.5859 -0.3464 -0.0479
22490SOL    HW185080   9.091   1.310   1.876  0.7345  1.5936  1.9778
22490SOL    HW285081   9.167   1.181   1.901 -1.6099 -0.1344  0.6087
22491SOL     OW85082   2.758   4.753  12.624  0.0239 -0.3528 -0.2970
22491SOL    HW185083   2.840   4.730  12.667 -0.6190 -1.0797  0.5826
22491SOL    HW285084   2.698   4.773  12.696  0.0143  2.3734 -0.9606
22492SOL     OW85085   0.397   4.737   0.374  0.0450  0.2961  0.6860
22492SOL    HW185086   0.308   4.706   0.394  0.5274 -0.6564  1.4133
22492SOL    HW285087   0.447   4.657   0.358  1.0261  0.7698  1.3371
22493SOL     OW85088  10.817   6.181   3.962  0.7541  0.9491  0.1559
22493SOL    HW185089  10.818   6.106   3.902 -1.1312  0.5095  0.6161
22493SOL    HW285090  10.821   6.258   3.906  0.7413  0.5274 -0.4270
22494SOL     OW85091   9.937   6.907   2.534  0.1717 -0.5204  0.0963
22494SOL    HW185092   9.930   7.002   2.527 -0.5747 -0.5394  0.5364
22494SOL    HW285093  10.030   6.891   2.553  0.4843  0.0570 -0.8660
22495SOL     OW85094  13.857  11.693   2.610  0.0003 -0.0742  0.4616
22495SOL    HW185095  13.763  11.673   2.611 -0.6591  2.4676  2.6016
22495SOL    HW285096  13.866  11.762   2.544  0.1506  0.4545  1.0300
22496SOL     OW85097  10.645   0.883   2.855 -0.2359 -0.1878 -0.2506
22496SOL    HW185098  10.676   0.817   2.916  0.8089  1.9621  1.6994
22496SOL    HW285099  10.585   0.938   2.907 -1.5240  0.1039 -1.9464
22497SOL     OW85100   1.019   8.313   7.793  0.4789 -0.3160 -0.5768
22497SOL    HW185101   1.055   8.237   7.745 -1.8989 -1.0853 -1.2551
22497SOL    HW285102   0.953   8.275   7.851  0.2181  1.1139  0.0778
22498SOL     OW85103   1.780   9.892  12.489 -0.5331  0.1250  0.4911
22498SOL    HW185104   1.775   9.822  12.424 -0.6020  1.3321 -0.8755
22498SOL    HW285105   1.870   9.888  12.522 -0.0668  0.3325 -0.7034
22499SOL     OW85106  11.696  13.318   5.206 -0.0481  0.1939  0.2310
22499SOL    HW185107  11.717  13.295   5.297  2.4390 -0.0848 -0.3285
22499SOL    HW285108  11.605  13.292   5.195  0.4133 -2.5150  1.8467
22500SOL     OW85109   5.686  13.874   1.893 -0.2003  0.6734 -0.2271
22500SOL    HW185110   5.734  13.954   1.913  0.3577  0.1391  0.6679
22500SOL    HW285111   5.751  13.804   1.902 -0.8988  0.0355 -0.0362
22501SOL     OW85112   2.973   8.480   6.008  0.3681  0.6673  0.1800
22501SOL    HW185113   2.928   8.520   5.933 -0.5578 -1.2953 -0.3759
22501SOL    HW285114   3.053   8.442   5.971 -0.4566 -0.9635 -0.0152
22502SOL     OW85115   6.808  10.763  11.182 -0.4059  0.1773 -0.5161
22502SOL    HW185116   6.781  10.720  11.263 -2.1138 -0.4729 -1.3867
22502SOL    HW285117   6.805  10.856  11.202  0.0532  0.0129  0.3968
22503SOL     OW85118   0.194   8.329  11.449  0.2056 -0.0909  0.3978
22503SOL    HW185119   0.279   8.292  11.473  0.1348 -0.5525 -0.0626
22503SOL    HW285120   0.163   8.275  11.377  0.6139  1.5381 -1.0684
22504SOL     OW85121   5.175  10.259   2.577 -0.5072  0.4059 -0.4574
22504SOL    HW185122   5.169  10.185   2.638  1.0770  1.2122  0.7483
22504SOL    HW285123   5.122  10.232   2.502 -1.0471 -1.3863  0.5010
22505SOL     OW85124  11.311   5.813  13.147  0.5633  0.1004 -0.5469
22505SOL    HW185125  11.382   5.849  13.201 -0.8860  1.9295  0.2762
22505SOL    HW285126  11.284   5.885  13.091 -0.3631 -0.6800 -1.1462
22506SOL     OW85127   6.299   7.804   7.263  0.2906 -0.3447  0.2781
22506SOL    HW185128   6.205   7.792   7.250  0.3026 -1.6624  1.1376
22506SOL    HW285129   6.337   7.718   7.243  1.0787 -0.3682  1.7390
22507SOL     OW85130   8.396   6.418   9.555  0.2530 -0.7127 -0.0882
22507SOL    HW185131   8.450   6.465   9.619 -0.1494 -0.0037 -0.2539
22507SOL    HW285132   8.433   6.444   9.470 -0.8824  0.5194 -0.2499
22508SOL     OW85133  10.939   1.417   6.341 -0.5328 -0.2771  0.4076
22508SOL    HW185134  10.937   1.433   6.247  1.9582 -1.4670  0.0517
22508SOL    HW285135  10.850   1.436   6.371 -0.7517  2.8069 -1.6863
22509SOL     OW85136  13.321  11.976  10.716  0.2050 -0.3046  0.6727
22509SOL    HW185137  13.236  12.000  10.752  0.4408  0.4877  0.7324
22509SOL    HW285138  13.373  12.056  10.724  0.7876 -0.6242  0.1499
22510SOL     OW85139   1.957   3.512  12.751  0.1507 -0.2120 -0.0237
22510SOL    HW185140   1.934   3.494  12.660  0.3590 -0.1326 -0.0913
22510SOL    HW285141   1.931   3.432  12.798  2.0468 -1.1405 -0.4779
22511SOL     OW85142  12.488  10.050   7.304 -0.1445 -0.2146 -0.5496
22511SOL    HW185143  12.536  10.125   7.269 -2.0915  2.3622  1.7596
22511SOL    HW285144  12.414  10.038   7.245  1.0727 -1.5458 -1.8758
22512SOL     OW85145   0.706  12.798   5.795 -0.5709  0.4068 -0.3410
22512SOL    HW185146   0.699  12.735   5.867 -1.4047  0.5629 -0.2857
22512SOL    HW285147   0.635  12.776   5.736  0.1002  0.2936 -1.1231
22513SOL     OW85148   4.568  12.800   8.820  0.6279  0.2880 -0.0070
22513SOL    HW185149   4.488  12.838   8.784 -0.8188 -1.4398  1.2032
22513SOL    HW285150   4.539  12.748   8.895  3.1937  1.7950  2.2376
22514SOL     OW85151  11.360   5.087  11.289 -0.1920 -0.2783  0.2499
22514SOL    HW185152  11.282   5.065  11.341 -0.8899 -1.3711 -1.1879
22514SOL    HW285153  11.372   5.011  11.231  1.3236  0.3405 -0.2873
22515SOL     OW85154  12.693   3.725  12.802  0.1459  0.3393 -0.3474
22515SOL    HW185155  12.768   3.741  12.858  0.0118  1.5439 -0.4837
22515SOL    HW285156  12.622   3.777  12.841 -1.0441 -1.8254  0.5897
22516SOL     OW85157  13.502   7.858   2.848  0.2020  0.0914  0.0995
22516SOL    HW185158  13.522   7.945   2.882  0.6186 -0.2139  0.6673
22516SOL    HW285159  13.507   7.867   2.753 -0.5101  0.8619  0.1285
22517SOL     OW85160   5.227   1.088   6.329  0.1784  0.1499 -0.4457
22517SOL    HW185161   5.233   1.175   6.369  0.5576  0.1815 -0.5649
22517SOL    HW285162   5.256   1.102   6.239 -3.2076  0.6328 -1.5963
22518SOL     OW85163  10.443   1.471   8.543  0.6201 -0.3721 -0.1871
22518SOL    HW185164  10.349   1.470   8.523  0.9812  1.1881 -2.3766
22518SOL    HW285165  10.449   1.433   8.630 -2.1313  0.1263  0.3375
22519SOL     OW85166   7.424  12.953   1.706 -0.4250  0.0935  0.1917
22519SOL    HW185167   7.487  12.998   1.762  0.7217  0.8591 -1.6342
22519SOL    HW285168   7.351  12.931   1.765  0.4647  1.3349  1.8383
22520SOL     OW85169   2.017   2.790   5.612  0.4292  0.3554  0.3605
22520SOL    HW185170   1.936   2.744   5.634  0.7234  0.6273  2.1430
22520SOL    HW285171   1.988   2.878   5.588  0.0589 -0.0963 -0.9814
22521SOL     OW85172   8.333   0.775   0.551  0.3533 -0.1543  0.6379
22521SOL    HW185173   8.251   0.752   0.594 -0.6387  0.0041 -1.0888
22521SOL    HW285174   8.391   0.700   0.568 -0.0546 -0.1774  2.0442
22522SOL     OW85175   6.277   8.949  13.149  0.3930  0.3532  0.1019
22522SOL    HW185176   6.354   8.900  13.179 -0.3337 -0.6155  0.4402
22522SOL    HW285177   6.279   9.031  13.199 -0.1310 -0.7169  1.9685
22523SOL     OW85178   4.566  10.794   6.554 -0.6565  0.1251  0.0168
22523SOL    HW185179   4.481  10.761   6.525 -0.9679  1.0130 -0.1260
22523SOL    HW285180   4.604  10.834   6.476  0.6849 -1.7923 -0.3660
22524SOL     OW85181   3.874   6.627   6.530 -0.1956  0.2307  0.0615
22524SOL    HW185182   3.800   6.572   6.559 -1.1236  0.7552 -1.2021
22524SOL    HW285183   3.915   6.656   6.611 -1.7884  0.4622  0.8369
22525SOL     OW85184   7.974  11.495   4.864  0.2033  0.3717  0.1436
22525SOL    HW185185   7.908  11.564   4.867 -1.3856 -1.0276 -0.5416
22525SOL    HW285186   7.966  11.458   4.776 -0.6860 -2.1711  1.1983
22526SOL     OW85187   2.200   0.226  12.046  0.0333 -0.1305  0.1718
22526SOL    HW185188   2.181   0.155  12.107 -0.3675 -0.3573 -0.2118
22526SOL    HW285189   2.144   0.208  11.970 -1.2656  1.4623  0.7059
22527SOL     OW85190  10.957   2.193  12.569 -0.0903  0.1052  0.2168
22527SOL    HW185191  11.023   2.125  12.554 -1.8357 -1.9024  1.0613
22527SOL    HW285192  10.991   2.244  12.642  0.9675 -0.2902  0.0185
22528SOL     OW85193  14.013  12.023   9.559  0.4250 -0.3558 -0.3621
22528SOL    HW185194  14.003  12.101   9.504  4.0430 -0.1561 -0.9693
22528SOL    HW285195  14.046  11.956   9.499  1.4774 -1.0541  0.9578
22529SOL     OW85196   8.875   8.635  11.573  0.1583  0.2344 -0.3829
22529SOL    HW185197   8.789   8.593  11.577  0.8960 -1.2399  2.0191
22529SOL    HW285198   8.877   8.692  11.650  1.1296  0.6323 -0.6935
22530SOL     OW85199   2.790   0.227  10.135 -0.7421 -0.0238  0.0329
22530SOL    HW185200   2.776   0.264  10.048  1.1599  0.1532 -0.2434
22530SOL    HW285201   2.754   0.293  10.195 -2.0352 -0.1312 -0.5838
22531SOL     OW85202  10.887   0.754   6.722  0.4617 -0.4075  0.1148
22531SOL    HW185203  10.934   0.789   6.646 -0.8095  0.3640 -0.3496
22531SOL    HW285204  10.870   0.663   6.700 -0.9965  0.1221 -1.1222
22532SOL     OW85205   8.458   4.675   9.370  0.2896 -0.0311  0.2749
22532SOL    HW185206   8.442   4.768   9.384  1.8385  0.3890 -0.5128
22532SOL    HW285207   8.371   4.636   9.365 -0.4626  1.7277 -1.6364
22533SOL     OW85208   2.173  13.680   5.767 -0.0367  0.9655 -0.4474
22533SOL    HW185209   2.202  13.755   5.714 -2.0921  1.9905 -0.2106
22533SOL    HW285210   2.085  13.660   5.734 -0.1053 -0.4232  0.4859
22534SOL     OW85211  11.358   1.327   9.163 -0.1640  0.5032  0.4168
22534SOL    HW185212  11.391   1.377   9.089  1.2937 -1.7237 -0.5428
22534SOL    HW285213  11.372   1.236   9.139 -0.9537 -0.3461  2.8558
22535SOL     OW85214   0.080  14.066  10.647 -0.4948 -0.0727 -0.1046
22535SOL    HW185215   0.048  14.117  10.721  2.0569  0.3373  0.8208
22535SOL    HW285216   0.065  14.122  10.570 -0.1617  0.9140  0.5378
22536SOL     OW85217   7.966  12.030   7.060  0.5397  0.3178  0.2226
22536SOL    HW185218   8.013  11.957   7.101 -0.3750  0.9637  2.5445
22536SOL    HW285219   7.980  12.017   6.966  1.1616 -2.3046  0.6050
22537SOL     OW85220   2.856  10.510   3.129  0.4027  0.2284  0.3037
22537SOL    HW185221   2.791  10.526   3.198 -0.2366  1.4473 -0.5378
22537SOL    HW285222   2.882  10.419   3.141 -0.9756 -0.0908  1.0732
22538SOL     OW85223   9.481   2.420   4.297  0.2681  0.1831 -0.0039
22538SOL    HW185224   9.523   2.446   4.216 -0.2283  2.9786  0.5415
22538SOL    HW285225   9.543   2.444   4.366 -0.7328  1.0943  0.6062
22539SOL     OW85226  11.778   8.993   9.914 -0.3904  0.2051  0.1135
22539SOL    HW185227  11.695   8.949   9.895  0.2491 -0.7873 -0.4346
22539SOL    HW285228  11.776   9.009  10.008 -0.6004 -1.0873  0.3408
22540SOL     OW85229   1.736   1.041   2.282 -0.2537  0.3310 -0.1340
22540SOL    HW185230   1.796   1.052   2.209 -1.0142  1.7384 -0.5842
22540SOL    HW285231   1.793   1.037   2.359  0.4756  0.5143 -0.6497
22541SOL     OW85232   4.311   1.073   7.627  0.4024  0.8147  0.0353
22541SOL    HW185233   4.247   1.096   7.694 -0.0201  0.9520 -0.4103
22541SOL    HW285234   4.266   1.009   7.572  0.9509  0.2597  0.2231
22542SOL     OW85235   5.375  12.490  13.966  0.6590  0.6574 -0.1915
22542SOL    HW185236   5.464  12.523  13.962  0.7127  0.6548  0.7540
22542SOL    HW285237   5.368  12.447  14.052 -0.3202  0.8785 -0.1398
22543SOL     OW85238   7.240   6.115   1.367 -0.3753  0.5399  0.2822
22543SOL    HW185239   7.325   6.075   1.387  0.0355 -0.4344 -2.8371
22543SOL    HW285240   7.175   6.051   1.396  0.1592 -0.6392 -0.9947
22544SOL     OW85241   0.282   8.865   5.968 -0.9166  0.4645  0.0351
22544SOL    HW185242   0.373   8.893   5.957 -0.2415 -1.3814  0.5383
22544SOL    HW285243   0.246   8.863   5.879 -0.5147  1.3479 -0.1518
22545SOL     OW85244   6.788   1.142   5.619  0.8572 -0.0033  0.5623
22545SOL    HW185245   6.864   1.137   5.677  0.7131 -0.1166  0.7431
22545SOL    HW285246   6.771   1.236   5.610  0.4901  0.0034  1.2249
22546SOL     OW85247   5.348  10.934   7.411 -0.2882  0.4327 -0.3910
22546SOL    HW185248   5.336  10.982   7.328  1.1083 -1.5606 -1.8228
22546SOL    HW285249   5.343  11.002   7.478 -1.1772  2.1715 -2.1138
22547SOL     OW85250   1.613   2.333   3.270  0.0738  0.4064 -0.6351
22547SOL    HW185251   1.654   2.273   3.207  0.8826 -0.7311  0.9176
22547SOL    HW285252   1.661   2.415   3.260 -1.1331  0.9508 -2.8833
22548SOL     OW85253  13.203   1.882  13.617  0.2405  0.0748  0.0529
22548SOL    HW185254  13.121   1.877  13.567 -0.1591  2.9812  0.2141
22548SOL    HW285255  13.249   1.957  13.579  0.6935  1.3751  2.8892
22549SOL     OW85256  12.100   6.839   7.407 -0.3410 -0.1327  0.4895
22549SOL    HW185257  12.005   6.843   7.398 -0.2505  0.8790 -0.2644
22549SOL    HW285258  12.128   6.931   7.409  0.5817 -0.4108  1.2014
22550SOL     OW85259   4.322   4.272   3.645  0.5175 -0.3622 -0.0301
22550SOL    HW185260   4.316   4.222   3.726 -0.1011 -1.1740 -0.5647
22550SOL    HW285261   4.314   4.207   3.576  1.8956  0.2005 -0.7681
22551SOL     OW85262   0.545   1.843   5.779  0.0414  0.2224  0.4762
22551SOL    HW185263   0.541   1.855   5.684 -1.3756  0.8800  0.5842
22551SOL    HW285264   0.540   1.748   5.791  0.2183  0.1319 -0.1067
22552SOL     OW85265   6.322   0.951   9.666  0.0210 -0.3498 -0.5725
22552SOL    HW185266   6.263   0.995   9.605 -1.1687  0.5866  1.1444
22552SOL    HW285267   6.263   0.902   9.724  1.0019 -0.3976  0.4115
22553SOL     OW85268   1.675   4.359   2.844 -0.1884 -0.3583  0.1582
22553SOL    HW185269   1.692   4.347   2.937  0.2759  0.6919  0.2217
22553SOL    HW285270   1.711   4.445   2.824 -1.9631  0.2526 -0.5868
22554SOL     OW85271  10.345  12.674   3.936  0.6728  0.6720  0.1589
22554SOL    HW185272  10.392  12.745   3.980  2.4488  0.5175 -1.3888
22554SOL    HW285273  10.253  12.693   3.954  1.0583  3.4680 -0.2950
22555SOL     OW85274   2.241  13.247   1.231 -0.4784 -0.2830 -0.4580
22555SOL    HW185275   2.159  13.201   1.213 -0.1267 -1.3550  0.5430
22555SOL    HW285276   2.303  13.209   1.169 -0.2835 -0.8948  0.1011
22556SOL     OW85277  12.667   9.026  11.567 -0.2265 -0.1616 -0.5773
22556SOL    HW185278  12.719   9.099  11.600  0.4223 -1.2625  1.0134
22556SOL    HW285279  12.577   9.057  11.570  0.0105  0.4961  0.3705
22557SOL     OW85280   6.920   6.534   3.403 -0.0471 -0.1266  0.0603
22557SOL    HW185281   6.857   6.607   3.407 -0.0661 -0.1784  1.1901
22557SOL    HW285282   6.945   6.529   3.311  0.1509  1.4805 -0.0056
22558SOL     OW85283   0.667   6.517   4.773 -0.9062 -0.1944  0.1272
22558SOL    HW185284   0.725   6.450   4.737 -1.4694 -0.3896 -0.4308
22558SOL    HW285285   0.686   6.516   4.867 -0.4909 -0.7288  0.0470
22559SOL     OW85286   6.853   8.495   9.018  0.5725 -0.2045 -0.2252
22559SOL    HW185287   6.782   8.481   8.955  0.5370 -1.7039  0.1149
22559SOL    HW285288   6.818   8.562   9.077 -1.1979 -1.8857  0.7704
22560SOL     OW85289   2.010  13.661   4.476 -0.4627 -0.3948  0.2581
22560SOL    HW185290   2.018  13.745   4.431  0.5355 -0.2052  0.7556
22560SOL    HW285291   2.091  13.615   4.457 -0.9800 -1.2353  0.0370
22561SOL     OW85292   4.212   5.500   3.606 -0.0498  0.4528  0.0154
22561SOL    HW185293   4.234   5.526   3.516  1.6380  1.9074  0.7802
22561SOL    HW285294   4.126   5.458   3.599  0.2641  0.0658 -2.3323
22562SOL     OW85295   6.920   6.592   4.365 -0.1722  1.0297 -0.1983
22562SOL    HW185296   6.898   6.514   4.416  0.9714  1.2005  0.6170
22562SOL    HW285297   6.838   6.639   4.356 -0.8282 -0.1331 -0.4756
22563SOL     OW85298   5.457   0.288   1.150 -0.0861  0.3940 -0.0288
22563SOL    HW185299   5.517   0.297   1.224  1.4534  0.4974 -1.2324
22563SOL    HW285300   5.514   0.293   1.073 -1.6704  0.5801 -1.2307
22564SOL     OW85301   6.016  10.915  11.050  0.1706 -0.4548  0.4206
22564SOL    HW185302   6.020  10.982  10.982 -0.7353  0.0776  0.8711
22564SOL    HW285303   6.083  10.851  11.025  0.8780  0.4840 -0.1569
22565SOL     OW85304  12.059   3.592   7.542 -0.0218  0.3670  1.1119
22565SOL    HW185305  12.134   3.624   7.492 -0.2977  0.5093  0.7816
22565SOL    HW285306  12.088   3.507   7.577 -0.5635 -0.8585 -1.1844
22566SOL     OW85307   3.187   5.126   3.014  0.1559 -0.7358 -0.3470
22566SOL    HW185308   3.177   5.196   2.950 -0.2337 -0.8166 -0.3740
22566SOL    HW285309   3.280   5.103   3.010  0.2385 -0.3761 -0.4987
22567SOL     OW85310  11.378   0.893   1.223  0.1883  0.3003 -0.0612
22567SOL    HW185311  11.354   0.828   1.157  1.1558  2.6401 -2.9433
22567SOL    HW285312  11.472   0.883   1.233  0.3676  1.2725 -0.6376
22568SOL     OW85313   9.961   0.957  13.147  0.3059 -0.6573  0.3264
22568SOL    HW185314   9.990   0.882  13.096 -0.5762  0.6462 -2.2683
22568SOL    HW285315  10.042   1.006  13.167  0.5945 -0.7562 -0.5801
22569SOL     OW85316  10.699  11.506  12.043 -0.1445 -0.4276  0.2213
22569SOL    HW185317  10.614  11.473  12.013  0.8978 -1.5395 -1.6838
22569SOL    HW285318  10.734  11.435  12.097  0.3275 -0.7221 -0.4649
22570SOL     OW85319   2.069   5.332   9.366 -0.3279 -0.0445 -0.1898
22570SOL    HW185320   1.984   5.297   9.343 -0.0013  1.0195 -3.5768
22570SOL    HW285321   2.050   5.418   9.405 -0.8261 -0.1959 -0.0994
22571SOL     OW85322  12.103  12.291   8.008  0.2983  0.4648 -0.0835
22571SOL    HW185323  12.103  12.195   7.999  1.5156  0.3007  1.2231
22571SOL    HW285324  12.023  12.319   7.965 -0.2692 -1.1809 -0.1797
22572SOL     OW85325  14.056  10.991   8.953  0.0609  0.4551 -0.7170
22572SOL    HW185326  14.144  11.025   8.971  0.4095  0.9942 -3.0892
22572SOL    HW285327  14.001  11.069   8.950 -0.3166  0.2094 -0.2518
22573SOL     OW85328   2.699  11.404   1.675 -0.1799 -0.2260  0.3759
22573SOL    HW185329   2.701  11.473   1.740 -1.0560 -1.2479  1.5352
22573SOL    HW285330   2.614  11.414   1.631 -1.0999 -1.5625  1.7383
22574SOL     OW85331   2.558   6.755   0.930 -0.0979  0.6153  0.1622
22574SOL    HW185332   2.535   6.681   0.986  0.8256 -0.3699 -0.7263
22574SOL    HW285333   2.653   6.754   0.926 -0.0464  2.0008  0.2971
22575SOL     OW85334  12.943   7.280   4.322  0.0329 -0.3869  0.6368
22575SOL    HW185335  12.898   7.198   4.340  0.4440 -0.6351  0.5450
22575SOL    HW285336  12.976   7.270   4.233  1.5873 -0.8261  1.2407
22576SOL     OW85337  10.004   8.747   5.085 -0.5635 -0.4615  0.0661
22576SOL    HW185338  10.028   8.665   5.128 -2.9043  0.2534  3.1017
22576SOL    HW285339  10.086   8.780   5.049  1.1966 -2.3341  2.0613
22577SOL     OW85340  11.310   1.317   4.754  0.5608 -0.2659  0.3732
22577SOL    HW185341  11.321   1.362   4.838 -3.3955  0.7903  0.5377
22577SOL    HW285342  11.240   1.253   4.770 -0.3469  0.0063 -2.0746
22578SOL     OW85343   5.098   7.031   0.874 -0.4782 -0.1064  0.6942
22578SOL    HW185344   5.003   7.028   0.881 -0.5514  0.8311  0.1335
22578SOL    HW285345   5.121   7.122   0.892  0.2281 -0.0893 -0.2506
22579SOL     OW85346   9.703   4.850  10.036 -0.3810 -0.1737 -0.3774
22579SOL    HW185347   9.771   4.912  10.010 -1.9653  2.4490  1.3019
22579SOL    HW285348   9.634   4.861   9.970 -1.2060  0.9005  0.6161
22580SOL     OW85349   0.516   1.576   2.333  0.4305 -0.2100 -0.1709
22580SOL    HW185350   0.573   1.564   2.409 -1.1291 -3.0323  0.6858
22580SOL    HW285351   0.539   1.503   2.275 -1.3228 -0.5938 -0.4298
22581SOL     OW85352   0.066   0.061   5.326 -0.2395  0.9411  0.2150
22581SOL    HW185353   0.049  -0.013   5.269 -0.2502  1.2018 -0.1257
22581SOL    HW285354  -0.015   0.112   5.323 -0.4609  0.6435  0.9447
22582SOL     OW85355  12.784   2.163   3.252 -0.0581 -0.5467  0.1331
22582SOL    HW185356  12.822   2.239   3.293 -1.2772  1.7428 -2.6079
22582SOL    HW285357  12.690   2.169   3.272 -0.0516 -1.9826  0.7588
22583SOL     OW85358  11.321   9.255   8.578 -0.5289 -0.3592 -0.4755
22583SOL    HW185359  11.385   9.312   8.621 -0.0507 -1.2854  0.0647
22583SOL    HW285360  11.290   9.306   8.504  0.6576  0.2112 -0.6029
22584SOL     OW85361   7.967   6.839   4.564 -0.7816  0.1283 -0.6833
22584SOL    HW185362   7.957   6.804   4.653  0.9064  1.4359  0.0920
22584SOL    HW285363   7.878   6.846   4.530 -1.6090  1.1216  1.5223
22585SOL     OW85364  13.884   1.853   1.640  0.3335  0.5013 -0.1801
22585SOL    HW185365  13.927   1.836   1.556 -0.3221  2.0001 -0.8621
22585SOL    HW285366  13.954   1.887   1.696  0.9314 -1.1661  0.1561
22586SOL     OW85367   7.636   0.290   1.901 -0.4563 -0.7058  0.0489
22586SOL    HW185368   7.648   0.319   1.811 -0.0535 -3.8079 -1.0324
22586SOL    HW285369   7.623   0.370   1.951 -1.7679  1.0906 -2.9090
22587SOL     OW85370   5.665   7.826   3.377 -0.5425  0.2465  0.1764
22587SOL    HW185371   5.627   7.866   3.299 -2.1863 -2.9541 -0.8621
22587SOL    HW285372   5.597   7.832   3.444 -1.1348 -1.3744 -0.2378
22588SOL     OW85373   8.805   2.065   2.272  0.0615 -0.6288  0.5253
22588SOL    HW185374   8.721   2.049   2.315 -0.1365  0.3503  0.5339
22588SOL    HW285375   8.794   2.151   2.230  0.9330 -0.6592  0.2188
22589SOL     OW85376  10.691  11.193  11.046 -0.0549  0.2125  0.0156
22589SOL    HW185377  10.719  11.188  10.954  0.4739  0.7383  0.1499
22589SOL    HW285378  10.772  11.198  11.096 -0.3516  2.0449  0.3817
22590SOL     OW85379   2.620   3.214   7.913 -0.1889  0.1853  0.0092
22590SOL    HW185380   2.531   3.213   7.949  0.5553 -2.3749  2.1154
22590SOL    HW285381   2.656   3.298   7.939 -1.6072  0.7870  0.1164
22591SOL     OW85382   4.630   8.250  12.645 -0.2319 -0.0587  0.4591
22591SOL    HW185383   4.621   8.170  12.697 -0.2148 -0.1725  0.2882
22591SOL    HW285384   4.678   8.223  12.567  1.2951  0.4674  1.1799
22592SOL     OW85385   1.502  12.249   7.922  0.3944 -0.5332  0.1317
22592SOL    HW185386   1.577  12.284   7.970  0.2305  0.7057 -0.4848
22592SOL    HW285387   1.446  12.211   7.990  0.4040  0.7551  0.8944
22593SOL     OW85388  13.215  14.067   1.408  0.3472  0.3488  0.4199
22593SOL    HW185389  13.234  14.007   1.336 -0.6441  0.7159 -0.1657
22593SOL    HW285390  13.274  14.142   1.393 -0.5316  0.8604 -0.5843
22594SOL     OW85391   1.521   6.605   4.865  0.3021  0.3208 -0.1424
22594SOL    HW185392   1.502   6.691   4.903 -2.0534 -0.0988 -0.1928
22594SOL    HW285393   1.502   6.543   4.935  3.5221 -0.2012  0.4370
22595SOL     OW85394   6.464  11.788   8.492 -0.3583 -0.8242  0.4790
22595SOL    HW185395   6.492  11.734   8.566  0.1428 -0.4105  0.5996
22595SOL    HW285396   6.476  11.878   8.523  2.0369 -0.5880 -0.8660
22596SOL     OW85397   6.007   2.368  11.606 -0.0555 -0.0205  1.1513
22596SOL    HW185398   6.040   2.323  11.528 -0.2130  0.0869  1.0223
22596SOL    HW285399   5.971   2.450  11.573 -0.0745  0.0492  1.3440
22597SOL     OW85400  11.131   7.717   0.318 -0.2331  0.1534 -0.3268
22597SOL    HW185401  11.153   7.633   0.359 -0.3756  0.1913 -0.1705
22597SOL    HW285402  11.209   7.771   0.330  0.0136 -0.0954 -0.7972
22598SOL     OW85403   7.510   3.898   0.168  0.1797 -0.4738  0.2165
22598SOL    HW185404   7.460   3.846   0.106  1.6568 -0.6843 -0.8345
22598SOL    HW285405   7.599   3.864   0.162  0.5765  0.2417  1.6542
22599SOL     OW85406   2.058  10.788   0.098  0.1408 -0.0088  0.6175
22599SOL    HW185407   2.149  10.765   0.081  0.5367  0.8022  1.5902
22599SOL    HW285408   2.051  10.794   0.193 -1.1134 -0.7780  0.5976
22600SOL     OW85409  11.547  13.293   9.986 -0.0035 -0.0382 -0.0803
22600SOL    HW185410  11.632  13.248   9.986 -0.5587 -1.1689  1.5331
22600SOL    HW285411  11.504  13.262  10.065 -1.3164  1.7041 -0.0588
22601SOL     OW85412   9.195   2.200  13.940  0.1729  0.1234  0.3451
22601SOL    HW185413   9.289   2.198  13.923  0.0834 -0.0171 -0.1516
22601SOL    HW285414   9.163   2.276  13.892  0.2369  1.0212  1.6596
22602SOL     OW85415  10.205   3.913   3.540 -0.1894  0.3362  0.2316
22602SOL    HW185416  10.144   3.914   3.613  0.9001  1.9738  1.1658
22602SOL    HW285417  10.244   3.826   3.542 -0.2503  0.3288  1.5438
22603SOL     OW85418   0.835   1.907   0.873 -0.6851 -0.1956 -0.3953
22603SOL    HW185419   0.892   1.843   0.916 -1.0416 -1.1442 -1.2881
22603SOL    HW285420   0.884   1.988   0.874  0.6258 -0.9548 -0.9800
22604SOL     OW85421   4.414   6.508  13.546  0.7648 -0.0467 -0.4243
22604SOL    HW185422   4.386   6.480  13.633  0.5071  1.0309 -0.1386
22604SOL    HW285423   4.372   6.447  13.486  0.5965 -0.5381  0.1820
22605SOL     OW85424   3.782   8.390  13.370 -0.0698 -0.1739 -0.3902
22605SOL    HW185425   3.842   8.424  13.303 -1.7597  1.6274 -1.0830
22605SOL    HW285426   3.700   8.375  13.323 -0.5165 -1.5106  0.7629
22606SOL     OW85427   9.008  10.995   7.800 -0.2571 -0.1580 -0.5016
22606SOL    HW185428   8.926  10.996   7.752  0.0937  0.0351 -1.1073
22606SOL    HW285429   9.058  10.923   7.762 -0.1297 -0.2469 -0.1704
22607SOL     OW85430  12.725   3.627   1.365 -1.1507 -0.0297  0.4376
22607SOL    HW185431  12.658   3.578   1.414 -0.0183  0.9794  3.2432
22607SOL    HW285432  12.803   3.623   1.421  0.3046  1.2054 -1.3717
22608SOL     OW85433  10.659   1.017   0.239  0.2580 -0.1072 -0.2150
22608SOL    HW185434  10.622   1.075   0.306  2.3891  0.7027  0.3470
22608SOL    HW285435  10.598   0.943   0.235 -1.1341  0.9086  0.9594
22609SOL     OW85436  11.938   5.476   6.970  0.0686 -0.0942  0.0228
22609SOL    HW185437  11.914   5.505   7.058 -0.2917 -0.7490  0.1424
22609SOL    HW285438  11.962   5.384   6.980  2.7802  0.5135 -0.0647
22610SOL     OW85439   0.015   6.956   2.665  0.0676  0.0608  0.5294
22610SOL    HW185440   0.052   6.904   2.737 -0.5493 -0.3338  0.5742
22610SOL    HW285441  -0.011   7.039   2.706  0.3748  0.1140  0.6141
22611SOL     OW85442   7.556  14.080  13.247  0.2459  0.6732 -0.1707
22611SOL    HW185443   7.557  14.111  13.156 -1.8263  0.2616 -0.3907
22611SOL    HW285444   7.641  14.107  13.283  2.7345 -2.2314 -3.2052
22612SOL     OW85445   5.480   4.775   6.155 -0.1310 -0.4437  0.3202
22612SOL    HW185446   5.433   4.822   6.086  1.2104  0.4310 -0.0298
22612SOL    HW285447   5.563   4.822   6.164  1.5010 -2.9782 -0.3919
22613SOL     OW85448  12.214   9.998   2.157  0.1625 -0.3382  0.1310
22613SOL    HW185449  12.207   9.913   2.200 -1.0057 -1.6574 -2.4031
22613SOL    HW285450  12.156  10.055   2.207  0.2188 -1.2742  1.3164
22614SOL     OW85451   7.220  11.956   8.236  0.2000 -0.2928 -0.2164
22614SOL    HW185452   7.145  11.904   8.266  0.8527  0.0499  2.2562
22614SOL    HW285453   7.183  12.018   8.173 -1.7590  0.3389  1.4446
22615SOL     OW85454  13.149   0.277   1.898  0.1241 -0.7122  0.4133
22615SOL    HW185455  13.171   0.197   1.851  0.4296 -0.2098 -0.3204
22615SOL    HW285456  13.058   0.295   1.873  0.0283 -0.8641  0.6430
22616SOL     OW85457   3.119   9.439   2.135  0.7530  0.1032 -0.6076
22616SOL    HW185458   3.205   9.417   2.171  0.8841  0.2253 -0.8469
22616SOL    HW285459   3.138   9.478   2.050  0.5474  1.7667  0.0904
22617SOL     OW85460  11.172   1.388  11.383  0.1881  0.4587  0.3196
22617SOL    HW185461  11.101   1.418  11.327 -0.4231 -0.9252  0.3103
22617SOL    HW285462  11.251   1.398  11.330 -0.1002  1.1532  0.0026
22618SOL     OW85463   7.301   5.376  12.687  0.3518 -0.1449  0.0886
22618SOL    HW185464   7.236   5.306  12.678  1.0190 -0.6925 -0.6442
22618SOL    HW285465   7.296   5.423  12.604 -0.1421  0.7337  0.6062
22619SOL     OW85466   3.121  11.175   6.397  0.0500  0.0347 -0.2755
22619SOL    HW185467   3.032  11.185   6.430  0.1126  0.0915 -0.1257
22619SOL    HW285468   3.175  11.165   6.475  0.0468 -1.0405 -0.3982
22620SOL     OW85469   4.640  13.736   4.825 -0.8125  0.2522 -0.0317
22620SOL    HW185470   4.595  13.675   4.766 -1.2049  0.5192 -0.0081
22620SOL    HW285471   4.612  13.822   4.796  0.4946  0.4864 -0.6993
22621SOL     OW85472   3.782   3.141   4.839  0.3490  0.3209  0.3850
22621SOL    HW185473   3.755   3.156   4.930 -0.7580  0.7580  0.0072
22621SOL    HW285474   3.699   3.125   4.793  0.9050  0.0635 -0.5436
22622SOL     OW85475   3.253   4.402   6.700 -0.0846  0.3016  0.4908
22622SOL    HW185476   3.219   4.346   6.769 -1.3056  0.6672  0.2135
22622SOL    HW285477   3.179   4.457   6.675  0.7076  1.0958 -0.1844
22623SOL     OW85478  11.217  12.602   1.752 -0.7218 -0.3253 -0.3958
22623SOL    HW185479  11.289  12.539   1.757  1.1154  1.6460 -0.7897
22623SOL    HW285480  11.146  12.560   1.801  1.1991 -1.6604  1.4319
22624SOL     OW85481   7.457   4.212   4.944  0.1151 -0.6108 -0.0417
22624SOL    HW185482   7.365   4.219   4.920  0.4265  0.5803 -0.9857
22624SOL    HW285483   7.474   4.118   4.947 -1.0667 -0.8373 -0.0748
22625SOL     OW85484  13.154   4.991   0.875 -0.3017  0.4864  0.0023
22625SOL    HW185485  13.076   4.967   0.824  0.6860  0.5621 -1.5987
22625SOL    HW285486  13.136   5.080   0.905 -0.9922  0.3679 -0.0415
22626SOL     OW85487   5.782   6.999   2.030  0.9285 -0.0386 -0.3935
22626SOL    HW185488   5.713   6.940   2.060  1.2194 -0.8971 -1.3796
22626SOL    HW285489   5.766   7.080   2.079 -0.7758 -0.2019 -0.6002
22627SOL     OW85490  12.737   1.158  12.759 -0.4842 -0.0455 -0.0936
22627SOL    HW185491  12.653   1.137  12.800 -0.4108 -0.2170 -0.0313
22627SOL    HW285492  12.760   1.244  12.795 -0.5889 -0.0391 -0.0413
22628SOL     OW85493  12.644   0.922   6.687  0.2211  0.1033 -0.0270
22628SOL    HW185494  12.702   0.922   6.764 -0.8176 -0.8940  0.7966
22628SOL    HW285495  12.558   0.947   6.722 -0.1787  0.0384 -0.9404
22629SOL     OW85496  11.310   7.265   2.252 -0.0776 -0.2825  0.1342
22629SOL    HW185497  11.280   7.214   2.177  0.0571  1.0164 -0.8469
22629SOL    HW285498  11.384   7.315   2.218  0.0897  0.2073  1.1869
22630SOL     OW85499   6.687  10.070   3.227 -0.1667  0.0825 -0.2824
22630SOL    HW185500   6.687  10.166   3.224 -0.1165  0.0656 -1.4648
22630SOL    HW285501   6.775  10.047   3.256 -0.5037  0.4017  1.0272
22631SOL     OW85502  13.241   3.373   1.050  0.2777  0.7852 -0.3653
22631SOL    HW185503  13.211   3.460   1.076  0.9036  0.8806  0.0731
22631SOL    HW285504  13.324   3.362   1.096 -0.6015 -0.7447  0.9686
22632SOL     OW85505  10.690   3.039   9.780  0.1108  0.3686 -0.0399
22632SOL    HW185506  10.693   3.114   9.839  1.3401 -0.2619  0.7596
22632SOL    HW285507  10.623   2.981   9.816 -1.5684  1.4933 -1.2338
22633SOL     OW85508  10.722  12.199  11.879 -0.1022  0.2497 -0.1865
22633SOL    HW185509  10.664  12.224  11.951  1.5850  3.0343  0.3734
22633SOL    HW285510  10.808  12.232  11.906  0.4030  2.5144 -3.8780
22634SOL     OW85511   2.419   7.522   5.277 -0.0600  0.6398  0.1491
22634SOL    HW185512   2.495   7.514   5.335 -0.3763 -0.4325  0.4421
22634SOL    HW285513   2.446   7.481   5.195  0.0755  1.3432 -0.1689
22635SOL     OW85514   7.200   8.500   7.746  0.5615 -0.2927 -0.6989
22635SOL    HW185515   7.110   8.532   7.733  0.5052  0.2979  0.9165
22635SOL    HW285516   7.232   8.483   7.658 -0.7265  0.6390 -1.3841
22636SOL     OW85517   0.761   0.098   3.550  0.2101 -0.5063  0.1254
22636SOL    HW185518   0.752   0.007   3.576  0.8799 -0.4721  0.5076
22636SOL    HW285519   0.744   0.148   3.630  2.3040 -0.4035  0.5648
22637SOL     OW85520   7.809  13.612   5.581 -0.0158 -0.7545  0.4139
22637SOL    HW185521   7.796  13.705   5.598 -0.7610 -0.6285 -0.7143
22637SOL    HW285522   7.741  13.568   5.632 -1.0255 -0.5151 -0.6924
22638SOL     OW85523   3.216  10.824   3.048  0.4921 -0.8185 -0.0976
22638SOL    HW185524   3.274  10.863   3.114  0.7954 -1.5834  0.0922
22638SOL    HW285525   3.226  10.882   2.972  1.1014 -0.6395  0.1063
22639SOL     OW85526   0.111   6.005  11.651 -0.8010 -0.2210  0.1913
22639SOL    HW185527   0.141   5.958  11.729  0.0057  1.2125  0.7840
22639SOL    HW285528   0.172   5.979  11.583  0.0141  0.4191  0.6654
22640SOL     OW85529   4.946   1.146   2.650 -0.2611 -0.2667 -0.4759
22640SOL    HW185530   4.903   1.098   2.721  0.0339  0.2593  0.0689
22640SOL    HW285531   5.028   1.177   2.689  0.4188 -0.8913 -1.3719
22641SOL     OW85532   0.302   1.949   0.603 -0.8310  0.1497 -0.6239
22641SOL    HW185533   0.355   2.023   0.574 -0.8772  0.6861  0.6174
22641SOL    HW285534   0.365   1.884   0.633 -0.8331  0.1171 -0.6881
22642SOL     OW85535  11.836  13.159   6.629  0.3101 -0.1392 -0.5550
22642SOL    HW185536  11.785  13.078   6.627 -2.0417  1.1898  1.0591
22642SOL    HW285537  11.922  13.132   6.663 -0.7509 -1.8107  0.9890
22643SOL     OW85538   7.933   5.733  11.254 -0.1043 -0.3108  0.0647
22643SOL    HW185539   7.965   5.815  11.292  1.0609 -1.9335  2.8908
22643SOL    HW285540   7.838   5.735  11.268  0.1810 -0.4724  2.5956
22644SOL     OW85541  11.355  12.869   8.517  0.2247  0.4931  0.2480
22644SOL    HW185542  11.374  12.777   8.497 -1.5911 -0.0906  0.9742
22644SOL    HW285543  11.268  12.867   8.558  1.0238  2.3203  2.2172
22645SOL     OW85544  12.185  13.663   8.078  0.1414  0.3338  0.4618
22645SOL    HW185545  12.199  13.628   7.989 -1.9510 -0.4446  0.3899
22645SOL    HW285546  12.219  13.594   8.135 -0.2003 -0.0061  0.2659
22646SOL     OW85547  13.865  12.579   7.389 -0.0917  0.3370  0.6137
22646SOL    HW185548  13.904  12.588   7.302 -1.5770  0.2573 -0.0828
22646SOL    HW285549  13.914  12.506   7.429  1.2366  0.9855  0.2351
22647SOL     OW85550   6.632  11.954  13.970 -0.4692  1.0636  0.0931
22647SOL    HW185551   6.603  11.986  13.885  1.0864  1.1299 -0.4491
22647SOL    HW285552   6.695  11.885  13.950  0.3219  1.4406  1.1624
22648SOL     OW85553   5.433   1.630   2.472 -0.0446  0.2142 -0.1679
22648SOL    HW185554   5.502   1.659   2.413  0.5499 -2.5856 -1.0202
22648SOL    HW285555   5.432   1.695   2.542  3.9587  0.0908  0.2587
22649SOL     OW85556   0.342   0.590  13.907 -0.6399 -0.3762  0.2922
22649SOL    HW185557   0.373   0.668  13.861 -1.6094  0.1933  0.5561
22649SOL    HW285558   0.320   0.528  13.837 -2.6570  0.6950 -0.1066
22650SOL     OW85559   1.304  11.340  10.089 -0.3806 -0.0084 -0.6228
22650SOL    HW185560   1.261  11.422  10.066  0.9901  0.9008 -0.0391
22650SOL    HW285561   1.311  11.292  10.006 -1.7280  0.1841 -0.8631
22651SOL     OW85562  11.449   8.069   9.730  0.3584  0.3145  0.1954
22651SOL    HW185563  11.447   8.003   9.800  0.0317 -0.1964 -0.2914
22651SOL    HW285564  11.449   8.018   9.649  1.0498  0.9035 -0.1829
22652SOL     OW85565   8.703  12.397   3.766  0.3814 -0.4331 -0.3024
22652SOL    HW185566   8.754  12.317   3.778 -0.3205 -0.8941 -0.4001
22652SOL    HW285567   8.736  12.434   3.683  0.6095 -0.6833 -0.3242
22653SOL     OW85568   4.647   0.692   2.820  0.3019 -0.0327 -0.3754
22653SOL    HW185569   4.634   0.663   2.730  0.9491  0.5799 -0.6741
22653SOL    HW285570   4.558   0.699   2.856 -0.4708  4.2780 -2.4361
22654SOL     OW85571   7.936  13.636   0.410  0.1117  0.3302 -0.0247
22654SOL    HW185572   7.927  13.722   0.370 -0.6556  0.1760 -0.2026
22654SOL    HW285573   8.001  13.648   0.479  1.1816  0.6786 -1.0737
22655SOL     OW85574   7.124  12.686   8.824 -0.2432 -0.2519 -0.1297
22655SOL    HW185575   7.056  12.722   8.767 -0.0072 -0.7490 -0.7240
22655SOL    HW285576   7.090  12.600   8.850 -0.8143  0.3562  1.3023
22656SOL     OW85577  10.751   7.902   3.888 -0.1393  0.4756 -0.0980
22656SOL    HW185578  10.831   7.954   3.893  1.5821 -1.9982 -0.1519
22656SOL    HW285579  10.748   7.870   3.798 -2.0298  1.6959 -0.5163
22657SOL     OW85580   6.950   4.305  12.893 -0.3912 -0.0434  1.0920
22657SOL    HW185581   6.935   4.378  12.833 -1.4488  0.0842  1.4818
22657SOL    HW285582   7.037   4.272  12.871 -1.0587 -0.5355 -1.0937
22658SOL     OW85583   1.190  11.304   7.887 -0.5264  0.0698  0.5109
22658SOL    HW185584   1.241  11.327   7.965  1.7599 -1.0367 -0.5934
22658SOL    HW285585   1.191  11.208   7.885  0.9499  0.0673 -1.7637
22659SOL     OW85586   9.504   2.211   2.219  0.0195 -0.3629 -0.0320
22659SOL    HW185587   9.566   2.163   2.274 -1.4965  0.9756  3.0671
22659SOL    HW285588   9.445   2.143   2.185 -0.2364 -1.0705  1.7338
22660SOL     OW85589   5.668   2.929   0.978 -0.0968  0.5221  0.3089
22660SOL    HW185590   5.652   2.877   1.057 -0.9130 -0.3298 -0.3959
22660SOL    HW285591   5.594   2.988   0.973 -1.1615 -0.8551 -0.9239
22661SOL     OW85592   5.432   8.030  12.462  0.3905  0.0680  0.7129
22661SOL    HW185593   5.499   8.064  12.521  2.7832  0.4560 -2.0103
22661SOL    HW285594   5.435   8.087  12.386 -2.3053 -0.6055 -0.0052
22662SOL     OW85595  10.480   3.952   3.037  0.0407  0.7879  0.0723
22662SOL    HW185596  10.459   3.904   3.117  0.4020  0.2907 -0.1255
22662SOL    HW285597  10.451   4.041   3.054 -0.5183  0.5315  0.4993
22663SOL     OW85598   3.712  10.811   1.990  0.1157  0.1424  0.0087
22663SOL    HW185599   3.639  10.797   1.929  0.2462 -0.0509 -0.1063
22663SOL    HW285600   3.678  10.785   2.075  0.1532 -0.2647 -0.0994
22664SOL     OW85601   1.233   2.923   5.147  0.1258  0.5528 -0.5056
22664SOL    HW185602   1.278   2.980   5.209 -0.6886  0.7581 -0.0893
22664SOL    HW285603   1.283   2.931   5.065  0.5467  1.1480 -0.1939
22665SOL     OW85604   3.214  13.071   6.754 -0.4137  0.4693 -0.7745
22665SOL    HW185605   3.257  13.154   6.774  0.5941 -0.2775  0.2964
22665SOL    HW285606   3.176  13.084   6.668  1.3601  1.4336 -1.4782
22666SOL     OW85607  11.423   4.786   1.075 -0.3369  0.3951  0.9017
22666SOL    HW185608  11.330   4.792   1.097 -0.2882  0.1327  1.1908
22666SOL    HW285609  11.425   4.771   0.981 -0.6376 -0.8852  1.0755
22667SOL     OW85610   9.948  11.246   5.655 -0.4175  0.1490  0.0582
22667SOL    HW185611   9.909  11.298   5.725  1.1302  1.1820  0.2072
22667SOL    HW285612   9.995  11.176   5.699  1.2248  1.2623  0.1480
22668SOL     OW85613  12.092   7.034   7.690  0.0168  0.0640  0.6485
22668SOL    HW185614  12.081   7.096   7.763 -0.7635  0.9829 -0.2194
22668SOL    HW285615  12.004   7.024   7.654  0.2668 -0.9912  0.3120
22669SOL     OW85616  10.434   0.233   8.434  0.0931 -0.4883 -0.2031
22669SOL    HW185617  10.498   0.181   8.483  1.3805  1.7186  0.5720
22669SOL    HW285618  10.461   0.323   8.447 -1.8870  0.4031 -1.7575
22670SOL     OW85619  12.539   8.567   7.810 -0.8151 -0.3730 -0.2827
22670SOL    HW185620  12.559   8.566   7.904  0.4494  0.3474 -0.5228
22670SOL    HW285621  12.507   8.479   7.791 -0.0229 -0.8679  0.6160
22671SOL     OW85622  14.077   7.944   0.548  0.7651  0.5151  0.2401
22671SOL    HW185623  14.104   7.910   0.462 -0.3954  2.3381 -0.9027
22671SOL    HW285624  14.059   8.036   0.532 -2.3658  0.2757  1.7617
22672SOL     OW85625   8.958  12.164   1.778  0.1335 -0.2101 -0.5102
22672SOL    HW185626   8.927  12.230   1.717 -1.4016 -1.0071 -0.6354
22672SOL    HW285627   9.008  12.213   1.843  0.4525  0.8470 -1.5192
22673SOL     OW85628   5.002  10.225  12.599  0.0366  0.2987  0.1388
22673SOL    HW185629   5.003  10.314  12.636 -0.2547  0.7995 -1.0157
22673SOL    HW285630   5.071  10.226  12.532  0.5189 -0.5778  0.6078
22674SOL     OW85631   1.197   2.051   9.928 -0.1921  0.1861  0.2120
22674SOL    HW185632   1.213   1.956   9.926  0.0008  0.1644  1.5316
22674SOL    HW285633   1.123   2.064   9.870 -0.7015 -0.8936  0.5833
22675SOL     OW85634   6.279  11.603  12.294  0.3453  0.4679  0.1771
22675SOL    HW185635   6.374  11.594  12.297  0.2867 -0.0637  1.0060
22675SOL    HW285636   6.256  11.631  12.383 -0.4040 -1.0113  0.4802
22676SOL     OW85637   6.440   3.018   7.412 -0.3905 -0.3458  0.3392
22676SOL    HW185638   6.360   2.968   7.427 -1.1190 -0.0001 -2.0566
22676SOL    HW285639   6.503   2.954   7.378  0.3347 -0.5665  1.9810
22677SOL     OW85640   5.832  13.982   3.577 -0.1737  0.0628  0.6445
22677SOL    HW185641   5.862  13.935   3.655 -1.9880 -0.9956  0.7530
22677SOL    HW285642   5.813  13.913   3.513 -0.3470  0.8219 -0.1439
22678SOL     OW85643   9.057   5.670   7.044 -0.3270  0.7086  0.3468
22678SOL    HW185644   9.035   5.723   6.968 -0.9489  0.5144  0.3852
22678SOL    HW285645   9.047   5.579   7.014 -1.0728  0.6339  0.7929
22679SOL     OW85646  11.127  13.996   9.713  0.0479 -0.4509  0.7174
22679SOL    HW185647  11.204  14.009   9.658 -0.8957  0.0827 -0.5576
22679SOL    HW285648  11.156  14.014   9.802  1.0817  1.0860  0.1086
22680SOL     OW85649   8.349   1.163   3.312 -0.3011 -0.0156 -0.2740
22680SOL    HW185650   8.300   1.242   3.288  1.3065  1.1837  0.2298
22680SOL    HW285651   8.386   1.132   3.229 -1.4467 -0.6493 -0.5775
22681SOL     OW85652  13.259   5.469  10.540 -0.1319  0.7327 -0.3812
22681SOL    HW185653  13.291   5.429  10.621  2.2228  0.0786 -1.5259
22681SOL    HW285654  13.166   5.449  10.538 -0.3286  0.9897  2.2530
22682SOL     OW85655  11.742  12.750  10.022 -0.1547 -0.0881  0.0787
22682SOL    HW185656  11.698  12.806   9.959 -0.6255  0.6225  1.0112
22682SOL    HW285657  11.734  12.662   9.986  1.3051  0.4797 -1.8365
22683SOL     OW85658  10.728  12.588   1.380  0.0178  0.0180 -0.2089
22683SOL    HW185659  10.780  12.648   1.326  1.5449 -0.7595  0.3361
22683SOL    HW285660  10.770  12.592   1.466 -1.4311  0.0626  0.5238
22684SOL     OW85661   1.130   7.294   8.759 -0.1363 -0.4432 -0.0181
22684SOL    HW185662   1.083   7.325   8.682  1.7405 -1.0319 -1.5060
22684SOL    HW285663   1.102   7.203   8.770 -1.6815  0.1293  1.0978
22685SOL     OW85664  12.352   0.953  11.890  0.5392 -0.2751  0.5729
22685SOL    HW185665  12.410   1.026  11.869  1.7891 -1.4974 -0.4727
22685SOL    HW285666  12.342   0.905  11.807 -2.6363  0.2720  0.5236
22686SOL     OW85667  10.176  13.074   6.026  0.6610 -0.2950 -0.0984
22686SOL    HW185668  10.268  13.048   6.033  0.5333 -0.8364 -0.4149
22686SOL    HW285669  10.128  12.992   6.018  0.0733 -0.0592  0.8048
22687SOL     OW85670   2.751   1.541   6.424  0.0706  0.3488 -0.3195
22687SOL    HW185671   2.840   1.563   6.398  0.4160  0.5398  0.9830
22687SOL    HW285672   2.704   1.624   6.424 -0.1674  0.2260 -1.1674
22688SOL     OW85673  10.365  10.375   7.298 -0.1280  0.1540  0.2216
22688SOL    HW185674  10.431  10.313   7.330  0.4908  0.3815 -0.5994
22688SOL    HW285675  10.395  10.460   7.329  0.5502  0.3955 -1.0455
22689SOL     OW85676  10.988   7.964   7.511 -0.1495  0.2511 -0.3070
22689SOL    HW185677  11.057   7.982   7.446 -0.6174  0.9285 -0.6283
22689SOL    HW285678  10.910   8.007   7.475 -0.9055 -1.0625 -0.2626
22690SOL     OW85679   2.053   1.041   8.976 -0.3028 -0.1786 -0.0573
22690SOL    HW185680   2.001   1.120   8.993  0.6024  0.4922 -0.3442
22690SOL    HW285681   2.063   1.038   8.881  0.0082 -0.4173 -0.0194
22691SOL     OW85682  12.655   8.625   2.763  0.6143 -0.2860 -0.0174
22691SOL    HW185683  12.602   8.703   2.747  0.7687 -0.1600  0.0708
22691SOL    HW285684  12.737   8.659   2.799 -0.3123 -0.6412  2.6304
22692SOL     OW85685  13.326  10.951  12.544  0.0451  1.0153 -0.2114
22692SOL    HW185686  13.379  10.871  12.542 -1.8753 -0.3635  1.0005
22692SOL    HW285687  13.368  11.005  12.611  1.6549  1.3002 -1.3915
22693SOL     OW85688   5.327  10.801   4.380 -0.1130 -0.0031  0.0919
22693SOL    HW185689   5.240  10.841   4.386 -0.1419  0.2724 -1.6894
22693SOL    HW285690   5.352  10.785   4.471 -1.5854  0.8515  0.6850
22694SOL     OW85691  10.853   2.917   2.632 -0.7646 -0.0864 -0.1296
22694SOL    HW185692  10.857   2.901   2.726 -2.2242 -0.0038 -0.0250
22694SOL    HW285693  10.803   2.998   2.623  2.7468  2.2310 -0.8418
22695SOL     OW85694  11.487  10.720   4.060 -0.3047 -0.3896  0.3597
22695SOL    HW185695  11.436  10.697   4.137 -1.0822  2.7097  0.9138
22695SOL    HW285696  11.569  10.672   4.071 -0.0975  0.4226  3.5298
22696SOL     OW85697   1.783  13.976   0.609 -0.1513  0.4612 -0.4378
22696SOL    HW185698   1.788  14.023   0.692 -0.1299  0.5027 -0.4623
22696SOL    HW285699   1.861  13.920   0.608 -1.4342 -1.4394  0.7094
22697SOL     OW85700  12.354  11.279   6.052  0.3297 -0.6905  0.2701
22697SOL    HW185701  12.438  11.249   6.016  0.7436  0.1116  0.5383
22697SOL    HW285702  12.376  11.357   6.103 -0.7781  0.4804 -0.9332
22698SOL     OW85703  13.704   8.981   6.911 -0.0160 -0.2574  0.7382
22698SOL    HW185704  13.658   9.059   6.941 -0.6151 -0.1354 -0.4426
22698SOL    HW285705  13.751   9.009   6.833 -1.0321 -1.2855 -0.2828
22699SOL     OW85706  12.281  10.901   9.944 -0.1366 -0.3179  0.1004
22699SOL    HW185707  12.216  10.942   9.888 -1.1338 -0.2362  1.2726
22699SOL    HW285708  12.295  10.815   9.906 -1.8070 -0.7813  0.4679
22700SOL     OW85709   9.978   6.456   1.363  0.1556  0.3575 -0.2823
22700SOL    HW185710   9.983   6.506   1.445  1.7823 -0.4325  0.1366
22700SOL    HW285711  10.039   6.499   1.304  1.4454 -0.9447  0.0227
22701SOL     OW85712  13.439   6.643   5.539 -0.3982  0.0277 -1.1508
22701SOL    HW185713  13.382   6.585   5.590 -0.7501  1.0459 -0.3344
22701SOL    HW285714  13.527   6.625   5.572 -0.5133 -0.0052 -0.8587
22702SOL     OW85715  12.460   8.096   6.265  0.4899  0.0957  0.0124
22702SOL    HW185716  12.493   8.007   6.253  1.4461  0.5816 -1.2661
22702SOL    HW285717  12.369   8.092   6.238  0.3110 -0.6424  0.6839
22703SOL     OW85718   1.702   4.327  10.506  0.0588  0.3099 -0.4511
22703SOL    HW185719   1.640   4.259  10.536  0.8640 -0.0261  0.5012
22703SOL    HW285720   1.648   4.406  10.499 -0.4017  0.1468  0.8670
22704SOL     OW85721  11.220  12.952   3.254  0.7693 -0.0677 -0.4658
22704SOL    HW185722  11.231  13.047   3.244  1.0567 -0.2022 -1.5387
22704SOL    HW285723  11.301  12.923   3.294  1.4464 -0.0835 -1.7842
22705SOL     OW85724   5.260   4.087   2.819 -0.1808  0.2465  0.2200
22705SOL    HW185725   5.309   4.020   2.772 -1.2892  0.2739 -1.0250
22705SOL    HW285726   5.237   4.152   2.752  0.6094  1.7535  1.3406
22706SOL     OW85727  13.814   2.096   4.367  0.1665  0.5027 -0.4259
22706SOL    HW185728  13.886   2.033   4.365 -0.9488 -0.9045  1.0771
22706SOL    HW285729  13.850   2.172   4.414  0.9409  0.2075 -0.5219
22707SOL     OW85730  11.801   2.480  13.967 -0.0906 -0.1803  0.0628
22707SOL    HW185731  11.712   2.468  13.934  0.0156 -0.1744 -0.2344
22707SOL    HW285732  11.857   2.461  13.891  0.1458  0.2453  0.1292
22708SOL     OW85733   6.218  12.776  12.977  0.1566  0.0528  0.1443
22708SOL    HW185734   6.184  12.838  12.912 -0.0713  0.3267  0.5140
22708SOL    HW285735   6.313  12.781  12.968  0.1498  0.6174  0.3069
22709SOL     OW85736   5.960   0.908  12.216 -0.0757 -0.1267 -0.3790
22709SOL    HW185737   6.002   0.978  12.267 -0.6189 -0.4915  0.5914
22709SOL    HW285738   6.008   0.829  12.240 -2.0356 -0.7798  1.7338
22710SOL     OW85739  12.843   1.218   0.329  0.0954 -0.1000 -0.0456
22710SOL    HW185740  12.905   1.291   0.336 -0.1684  0.0982  0.2267
22710SOL    HW285741  12.899   1.142   0.312  0.5840 -0.1926  1.7648
22711SOL     OW85742   8.009   4.348   5.403  0.2502 -0.5084 -0.2208
22711SOL    HW185743   7.972   4.361   5.490  0.2348 -1.4783 -0.0780
22711SOL    HW285744   7.941   4.379   5.343  0.6053  1.0129  0.1057
22712SOL     OW85745   3.031   1.437   5.843 -0.5388  0.2526 -0.0177
22712SOL    HW185746   3.003   1.444   5.934 -0.6256 -0.2563 -0.0045
22712SOL    HW285747   3.084   1.357   5.840 -0.1030  0.5448 -0.3009
22713SOL     OW85748  10.214   1.815   9.645  0.0183  0.0055 -0.0247
22713SOL    HW185749  10.248   1.894   9.603  2.1095 -0.2230  1.0938
22713SOL    HW285750  10.269   1.745   9.612 -0.3970 -0.6506  0.6464
22714SOL     OW85751  13.763   3.220   3.396  0.7072 -0.4160 -0.0101
22714SOL    HW185752  13.695   3.155   3.382  0.1671  0.5977 -2.5111
22714SOL    HW285753  13.753   3.246   3.488 -1.7678 -0.8572 -0.0972
22715SOL     OW85754   9.810   8.275  13.301 -0.0943  0.3661  0.0958
22715SOL    HW185755   9.761   8.197  13.326 -0.2471  0.9879  1.9338
22715SOL    HW285756   9.901   8.256  13.325 -0.0120  0.4937 -0.1098
22716SOL     OW85757  10.633  10.099   2.448  0.2642  0.1096  0.1255
22716SOL    HW185758  10.550  10.119   2.491  0.1598 -0.6537  0.2924
22716SOL    HW285759  10.688  10.175   2.465 -0.4721  0.7232 -0.1805
22717SOL     OW85760   2.862   1.250  10.765 -0.3661  0.2927  0.3630
22717SOL    HW185761   2.797   1.200  10.816  0.6117 -0.0806  1.2763
22717SOL    HW285762   2.908   1.302  10.831  0.2989  0.5061 -0.2661
22718SOL     OW85763  12.577   4.891   0.318 -0.0664 -0.4315 -0.0305
22718SOL    HW185764  12.670   4.912   0.321  0.0808 -0.9087 -0.9984
22718SOL    HW285765  12.567   4.818   0.379 -0.1535  0.7994  1.4933
22719SOL     OW85766   2.703  13.535  11.872  0.2242 -0.2208  0.7101
22719SOL    HW185767   2.626  13.591  11.884 -0.3482 -0.7923 -0.1607
22719SOL    HW285768   2.771  13.576  11.925 -0.3173  1.0209  0.4841
22720SOL     OW85769  13.107   9.516   0.380 -0.1514  0.4054 -0.0395
22720SOL    HW185770  13.120   9.450   0.312 -0.5719  1.7777 -1.5096
22720SOL    HW285771  13.012   9.516   0.395  0.1000 -1.1650  1.9292
22721SOL     OW85772   1.713  13.457   6.028  0.1774  0.0560  0.1427
22721SOL    HW185773   1.629  13.434   5.987 -1.7737  3.0125  2.0562
22721SOL    HW285774   1.715  13.406   6.109 -0.2584  0.6425  0.5324
22722SOL     OW85775  14.064   8.479   8.012 -0.9946 -0.1887 -0.2098
22722SOL    HW185776  13.994   8.507   8.070  1.4752 -0.7488  3.4061
22722SOL    HW285777  14.062   8.383   8.015  0.5855 -0.2239  0.9710
22723SOL     OW85778   5.067   6.790   3.808  0.2215  0.7302 -0.0636
22723SOL    HW185779   4.974   6.809   3.811  0.4503  2.2110 -1.4013
22723SOL    HW285780   5.078   6.715   3.867 -1.8800  0.1474 -0.3456
22724SOL     OW85781   4.306  12.422  10.252 -0.3329  0.0558  0.1304
22724SOL    HW185782   4.349  12.495  10.297 -0.4315  1.1132 -1.4405
22724SOL    HW285783   4.216  12.425  10.283  0.1831 -0.9301  1.8971
22725SOL     OW85784   3.897   3.858  11.036 -0.1780 -0.3195  0.0829
22725SOL    HW185785   3.898   3.807  10.955 -1.2305  2.5286 -1.8994
22725SOL    HW285786   3.807   3.892  11.042  0.7335  2.2940  0.5288
22726SOL     OW85787   6.003   3.775   3.361  0.1217 -0.2668 -0.2862
22726SOL    HW185788   6.046   3.701   3.319  1.9505  0.4418  0.2241
22726SOL    HW285789   6.030   3.770   3.453 -1.4570 -0.1450  0.2210
22727SOL     OW85790   1.236  11.448   2.334  0.1563  0.2764  0.6522
22727SOL    HW185791   1.167  11.508   2.361  1.0193  2.2363 -1.1523
22727SOL    HW285792   1.317  11.494   2.355  0.8452 -0.1589 -0.8900
22728SOL     OW85793   4.466   2.990   6.264  0.4918  0.2799 -0.2114
22728SOL    HW185794   4.383   2.999   6.217  0.1690 -0.6812  0.1579
22728SOL    HW285795   4.516   2.927   6.212  0.1348 -0.7874  0.7006
22729SOL     OW85796   4.674  12.750  11.621 -0.5654 -0.1026 -0.2697
22729SOL    HW185797   4.748  12.718  11.674  0.1987 -0.3675 -1.4474
22729SOL    HW285798   4.605  12.685  11.636 -0.2057 -0.4241  0.0421
22730SOL     OW85799   2.566   6.157   5.523 -0.2427 -0.1999 -0.3772
22730SOL    HW185800   2.602   6.070   5.537 -0.8757 -0.2282  1.2286
22730SOL    HW285801   2.639   6.208   5.486  0.7603 -0.8545  0.6525
22731SOL     OW85802   3.690   4.107   3.977  0.2987 -0.7407  0.3819
22731SOL    HW185803   3.779   4.077   3.962  0.8993 -0.1456  2.5223
22731SOL    HW285804   3.670   4.161   3.901  1.1094 -2.2236 -0.9514
22732SOL     OW85805  11.430   3.678  14.075  0.5484  0.2902 -0.1662
22732SOL    HW185806  11.496   3.609  14.066  1.2280  1.0172 -0.8029
22732SOL    HW285807  11.348   3.630  14.089  1.1179 -0.6337  0.1290
22733SOL     OW85808  14.047   4.951  10.625 -0.1069 -0.0340 -0.3160
22733SOL    HW185809  14.067   4.903  10.544 -0.3282 -0.8110  0.0793
22733SOL    HW285810  13.952   4.941  10.635 -0.0428 -0.1588  0.1704
22734SOL     OW85811   2.882  10.680   2.057 -0.1594  0.2436 -0.3259
22734SOL    HW185812   2.809  10.661   2.115 -0.7826 -1.1324 -1.4972
22734SOL    HW285813   2.912  10.767   2.084 -1.2427  0.1868  1.1712
22735SOL     OW85814   6.023   5.169  14.048  0.1680 -0.2028  0.2364
22735SOL    HW185815   6.064   5.252  14.022  0.0753  0.0338  0.8191
22735SOL    HW285816   5.957   5.194  14.112  0.1989 -0.7359  0.4837
22736SOL     OW85817   4.257   8.144  13.538 -0.4045 -0.1351  0.6529
22736SOL    HW185818   4.255   8.049  13.553 -2.6512  0.0397  1.9710
22736SOL    HW285819   4.255   8.182  13.626 -0.5274  1.1352  0.1220
22737SOL     OW85820   1.647  10.411   9.597  0.6072  0.2291  0.6627
22737SOL    HW185821   1.599  10.453   9.669  1.3814 -0.3160  1.5156
22737SOL    HW285822   1.714  10.475   9.574  0.7211  0.1628  0.8113
22738SOL     OW85823   6.209   3.018   1.274  0.4739 -0.4411 -0.0912
22738SOL    HW185824   6.123   3.044   1.240  0.7271 -0.3255 -0.6525
22738SOL    HW285825   6.190   2.944   1.332 -0.2483  0.9473  1.5241
22739SOL     OW85826   3.935   1.101  12.717  0.0179  0.1690  0.0974
22739SOL    HW185827   3.913   1.187  12.681  1.3962 -0.6313 -3.0055
22739SOL    HW285828   3.858   1.047  12.698 -0.2826  0.3452  0.7721
22740SOL     OW85829  12.337  11.083   8.490  0.2606 -0.6158  0.1665
22740SOL    HW185830  12.269  11.096   8.557  1.4769  1.0665  1.1556
22740SOL    HW285831  12.296  11.111   8.408 -0.9523 -1.8203  0.3232
22741SOL     OW85832   6.535  11.824  12.747 -0.0280 -0.1676  0.5547
22741SOL    HW185833   6.513  11.909  12.784 -0.8988 -0.3295  0.4190
22741SOL    HW285834   6.506  11.761  12.813  1.1263 -0.3550  0.9150
22742SOL     OW85835   7.851   9.568  12.191 -0.0916  0.4230  0.0458
22742SOL    HW185836   7.907   9.575  12.269  0.9839 -1.3302 -0.5319
22742SOL    HW285837   7.899   9.617  12.124 -1.3865  2.5928  0.6133
22743SOL     OW85838  11.084   2.613   0.313 -1.0579 -0.0940 -0.4254
22743SOL    HW185839  11.039   2.693   0.284  1.9385  1.5987 -0.8346
22743SOL    HW285840  11.126   2.638   0.396  1.6741 -0.4632 -1.5867
22744SOL     OW85841  12.118   4.634   6.071 -0.2506  0.2824 -0.3126
22744SOL    HW185842  12.153   4.662   6.156 -0.6478 -0.1116 -0.0177
22744SOL    HW285843  12.023   4.638   6.081 -0.3421 -1.7127 -0.0645
22745SOL     OW85844   8.903  12.414   1.070 -0.1210 -0.3912 -0.2014
22745SOL    HW185845   8.816  12.441   1.098  0.4640  0.1999  1.1890
22745SOL    HW285846   8.933  12.354   1.139  0.2296 -1.2839 -1.1156
22746SOL     OW85847   1.818   3.982   5.238 -0.5077 -0.8080  0.4494
22746SOL    HW185848   1.860   4.056   5.283  0.4391 -1.5985  0.9249
22746SOL    HW285849   1.763   3.941   5.305 -4.3486  1.7780 -0.8207
22747SOL     OW85850   4.947   0.250   0.305 -0.2450  0.1235  0.2463
22747SOL    HW185851   4.988   0.270   0.221 -1.5224  0.2635 -0.3650
22747SOL    HW285852   4.857   0.283   0.297 -0.9565 -1.4895  0.9704
22748SOL     OW85853   6.448  12.009  10.937 -0.0210  0.2219 -0.2814
22748SOL    HW185854   6.422  11.939  10.997  0.2963 -0.1081 -0.5351
22748SOL    HW285855   6.493  12.072  10.993  1.2045 -0.5763 -0.3388
22749SOL     OW85856   8.944   9.296   4.974 -0.1263 -0.0486 -0.1777
22749SOL    HW185857   9.024   9.341   5.002  1.0075 -2.0023 -0.0865
22749SOL    HW285858   8.887   9.296   5.051  0.3605  0.1358  0.1840
22750SOL     OW85859   5.049   3.768   9.284  0.3348 -0.3817  0.1949
22750SOL    HW185860   5.004   3.745   9.203 -0.4703 -0.0034  0.5253
22750SOL    HW285861   5.133   3.805   9.255  0.0749 -0.2895 -0.4606
22751SOL     OW85862   8.254   4.437  13.170 -0.8177  0.1701 -0.6782
22751SOL    HW185863   8.173   4.465  13.213 -1.0711 -0.0644 -0.9967
22751SOL    HW285864   8.321   4.448  13.237 -1.5238 -2.2695  0.5609
22752SOL     OW85865   2.239   4.403   2.422 -0.3854 -0.4679 -0.0476
22752SOL    HW185866   2.164   4.415   2.364 -1.0383 -1.3263  0.5919
22752SOL    HW285867   2.314   4.399   2.363 -0.8789  0.0150 -0.7261
22753SOL     OW85868   8.972  10.139   7.729 -0.0239 -0.4718 -0.5446
22753SOL    HW185869   8.953  10.147   7.822 -2.0954 -2.2972 -0.7354
22753SOL    HW285870   8.981  10.229   7.699  1.2221  0.1421  1.4849
22754SOL     OW85871   6.741   5.072  12.053 -0.0543  0.2699 -0.2226
22754SOL    HW185872   6.810   5.007  12.063  0.1365  0.3258 -1.0685
22754SOL    HW285873   6.782   5.155  12.076 -0.6926 -0.0251  2.3552
22755SOL     OW85874   6.757   5.319  10.231 -0.1048  0.0174  0.0813
22755SOL    HW185875   6.811   5.363  10.298 -0.0575 -2.1462  1.5697
22755SOL    HW285876   6.818   5.299  10.160  0.0675  1.4366 -0.2003
22756SOL     OW85877   4.468  12.147   3.698  0.2887  0.0740  0.3881
22756SOL    HW185878   4.478  12.100   3.781  0.3308  1.9286  1.4838
22756SOL    HW285879   4.389  12.109   3.659  1.0314 -1.7835  0.5580
22757SOL     OW85880  11.249  13.454  12.959 -0.1638  0.2704  0.3808
22757SOL    HW185881  11.302  13.491  13.029 -0.3370  1.1587  0.0551
22757SOL    HW285882  11.164  13.437  13.000 -0.4889  1.4588  0.2189
22758SOL     OW85883   5.859  12.580  11.773  0.0420 -0.3574 -0.0293
22758SOL    HW185884   5.837  12.555  11.684  0.1166  2.5501 -0.9706
22758SOL    HW285885   5.955  12.579  11.775  0.1711  2.0402 -0.9063
22759SOL     OW85886  11.671  11.650   3.035 -0.3125  0.4843 -0.6156
22759SOL    HW185887  11.624  11.609   3.108  1.5402  0.6236  0.7180
22759SOL    HW285888  11.651  11.594   2.960 -0.4574 -1.0080  0.4818
22760SOL     OW85889  14.002   7.502  10.316 -0.7983 -0.7463  0.5409
22760SOL    HW185890  13.954   7.520  10.397  0.7967  2.0128  0.9769
22760SOL    HW285891  13.976   7.572  10.256  0.0474 -1.2343 -0.4237
22761SOL     OW85892  13.875   0.347  12.315 -0.2410 -0.4693  0.6070
22761SOL    HW185893  13.867   0.387  12.401 -2.1043  0.2936  0.1368
22761SOL    HW285894  13.823   0.267  12.321  0.7772 -1.1495  0.5814
22762SOL     OW85895   6.137   9.469   3.681  0.1253  0.2036  0.0477
22762SOL    HW185896   6.181   9.550   3.707 -0.4889  0.4196  0.4429
22762SOL    HW285897   6.049   9.496   3.657 -0.6125 -0.5236  1.7473
22763SOL     OW85898   6.721   5.295  11.159 -0.6324 -0.3344 -0.4537
22763SOL    HW185899   6.807   5.277  11.121  0.1326 -0.2551  1.1608
22763SOL    HW285900   6.711   5.230  11.228 -0.4591  1.5532  1.4650
22764SOL     OW85901  12.448   2.000   4.416  0.3911 -0.2367  0.0731
22764SOL    HW185902  12.385   2.060   4.458  0.5170  0.8478 -1.2079
22764SOL    HW285903  12.533   2.031   4.447  0.5824  1.4240 -1.8932
22765SOL     OW85904  13.627   8.759   7.871  0.2038  0.0355  0.4624
22765SOL    HW185905  13.575   8.825   7.824  0.3756 -0.9539 -1.1892
22765SOL    HW285906  13.669   8.808   7.942  1.9590  2.2253 -1.8978
22766SOL     OW85907   3.899   6.940  13.263  0.4337  0.0874 -0.3358
22766SOL    HW185908   3.900   6.970  13.172 -1.1531 -1.0190 -0.7551
22766SOL    HW285909   3.851   7.008  13.310 -0.6915 -0.3649 -0.7727
22767SOL     OW85910   3.859   6.050   0.841 -0.7287  0.7718  0.6427
22767SOL    HW185911   3.840   6.144   0.839 -0.3173  0.8455 -1.2739
22767SOL    HW285912   3.799   6.011   0.778 -0.4253 -0.1643  0.9064
22768SOL     OW85913   8.053   3.574  10.775 -0.1935 -0.1244  0.0682
22768SOL    HW185914   8.126   3.628  10.746 -2.1784  2.3361 -0.6775
22768SOL    HW285915   8.009   3.548  10.694  0.1129 -2.0905  0.4730
22769SOL     OW85916   7.575   7.901  14.019 -0.2162  0.0966  0.1201
22769SOL    HW185917   7.543   7.817  13.986 -0.4610  0.6692 -1.1526
22769SOL    HW285918   7.651   7.879  14.073 -0.0386 -0.9018 -0.5190
22770SOL     OW85919   3.831   1.136   1.711  0.9029  0.4324  0.4532
22770SOL    HW185920   3.883   1.072   1.662  1.5076  1.5209 -0.3824
22770SOL    HW285921   3.760   1.085   1.750  0.3402 -0.4911 -1.6430
22771SOL     OW85922   3.918   1.089   3.832 -0.1119  0.7593  0.3158
22771SOL    HW185923   3.831   1.114   3.801  0.5945  0.6797 -1.8860
22771SOL    HW285924   3.964   1.172   3.841  0.6924  0.6637 -2.1853
22772SOL     OW85925   4.422  11.501   2.757 -0.3290  0.3428  0.2882
22772SOL    HW185926   4.439  11.567   2.690  0.2877  1.6981  1.6868
22772SOL    HW285927   4.357  11.543   2.815 -1.0245 -0.8734  0.4177
22773SOL     OW85928  11.480   4.064   4.558  0.2231 -0.4332 -0.1691
22773SOL    HW185929  11.487   4.030   4.647  1.6251  1.1448  0.3691
22773SOL    HW285930  11.570   4.063   4.525 -0.1039  0.1298 -1.1282
22774SOL     OW85931  14.073   9.249   8.314 -0.6311 -0.6358  0.2035
22774SOL    HW185932  14.037   9.273   8.400 -2.0949  1.8418 -0.9592
22774SOL    HW285933  14.016   9.179   8.283 -0.1001 -1.5375  1.2268
22775SOL     OW85934   0.127  13.788   0.926 -0.2410  0.2073  0.1558
22775SOL    HW185935   0.187  13.846   0.973  0.4766 -0.0317 -0.4566
22775SOL    HW285936   0.183  13.737   0.868 -0.9288 -0.7233  0.2893
22776SOL     OW85937  12.544   5.949   2.774  0.1413  0.5795 -0.4781
22776SOL    HW185938  12.543   5.905   2.690 -0.9482  1.8309 -1.1615
22776SOL    HW285939  12.594   6.030   2.759 -1.4835  1.6357 -0.4032
22777SOL     OW85940   6.492  12.394  13.141 -0.6123 -0.1519  0.1391
22777SOL    HW185941   6.489  12.311  13.189 -0.1901 -0.7768 -0.8755
22777SOL    HW285942   6.586  12.412  13.131 -0.6084 -1.1247 -2.2083
22778SOL     OW85943   8.563  12.890  11.887  0.5911  0.4736 -0.1856
22778SOL    HW185944   8.591  12.809  11.930  0.3393 -0.1808 -1.2033
22778SOL    HW285945   8.478  12.869  11.849  1.4903  0.4852 -2.3359
22779SOL     OW85946   2.925  10.806   7.824  0.0090 -0.3645 -0.0381
22779SOL    HW185947   2.950  10.736   7.885 -0.4024  0.9958  1.7794
22779SOL    HW285948   2.976  10.789   7.745  1.5170 -1.4966  1.1213
22780SOL     OW85949   0.070   2.510   6.148 -0.1679  0.1314  0.0862
22780SOL    HW185950   0.004   2.526   6.080 -0.6502  2.8849  1.0505
22780SOL    HW285951   0.153   2.529   6.105 -0.3559  0.4282 -0.1577
22781SOL     OW85952   4.825   3.371   9.203 -0.0838 -0.0745  0.7559
22781SOL    HW185953   4.790   3.431   9.269 -0.1604 -0.2046  0.8329
22781SOL    HW285954   4.751   3.352   9.146  0.1021  0.4490  0.3208
22782SOL     OW85955   3.088  10.480   6.657  0.2691  0.0427 -0.0452
22782SOL    HW185956   3.138  10.549   6.702  1.1072  0.6295 -1.8132
22782SOL    HW285957   3.082  10.510   6.567  0.6382 -2.1931 -0.8674
22783SOL     OW85958   8.929   7.081   9.784 -1.0498 -0.1432 -0.5135
22783SOL    HW185959   8.858   7.018   9.797 -2.0237  0.6330 -1.7878
22783SOL    HW285960   8.902   7.159   9.833 -0.2332 -0.4240  0.4072
22784SOL     OW85961  13.648  13.617   4.526 -0.2319  0.2390  0.3527
22784SOL    HW185962  13.713  13.551   4.501  0.8096  0.9228  1.1352
22784SOL    HW285963  13.604  13.580   4.602  0.2973  0.3982  0.7435
22785SOL     OW85964   3.228  11.981  11.496  0.1415  0.0879 -0.1038
22785SOL    HW185965   3.172  11.981  11.573  2.0249 -0.2257  1.3560
22785SOL    HW285966   3.286  11.905  11.509  1.7602  1.1388 -0.8332
22786SOL     OW85967  10.188   1.725   2.674 -0.3388  0.2369  0.2927
22786SOL    HW185968  10.244   1.757   2.744  1.8877 -0.6185 -0.9854
22786SOL    HW285969  10.246   1.723   2.597 -1.6135 -2.4272 -0.6967
22787SOL     OW85970   3.417   4.803   0.744  0.4248 -0.5773 -0.2650
22787SOL    HW185971   3.342   4.820   0.801 -0.1791 -2.0716 -0.5644
22787SOL    HW285972   3.399   4.851   0.664  0.8972  0.8931  0.4793
22788SOL     OW85973   6.321   5.012   1.141  0.2027  0.3058  0.4481
22788SOL    HW185974   6.377   4.946   1.099 -0.8244 -0.1339 -0.2733
22788SOL    HW285975   6.251   4.962   1.182 -0.5686  0.9343 -0.0657
22789SOL     OW85976   9.158   0.680   7.299  0.0086 -0.4856  0.0087
22789SOL    HW185977   9.077   0.647   7.260  0.5158 -0.6301 -0.9536
22789SOL    HW285978   9.219   0.606   7.294  0.4073 -0.1665  0.1034
22790SOL     OW85979   7.805  12.451   9.659 -0.2950  0.2305  0.3073
22790SOL    HW185980   7.776  12.541   9.676 -1.9106 -0.4137  1.1957
22790SOL    HW285981   7.726  12.405   9.633  0.9973 -0.3389 -3.0907
22791SOL     OW85982  10.369  11.006   2.033 -0.1459  0.2965 -0.2889
22791SOL    HW185983  10.304  10.936   2.027 -1.1035  1.2030 -0.8591
22791SOL    HW285984  10.442  10.977   1.978 -1.1141  0.3464 -1.6436
22792SOL     OW85985   8.381   0.484   2.090 -0.2586 -1.1804  0.2994
22792SOL    HW185986   8.289   0.508   2.105 -0.4268 -1.4995 -0.1999
22792SOL    HW285987   8.398   0.415   2.154  0.4357  0.6843  2.2366
22793SOL     OW85988   3.330  13.986   0.086  0.3148 -0.0552  0.1850
22793SOL    HW185989   3.421  13.968   0.061 -0.0767 -1.8759 -0.1317
22793SOL    HW285990   3.319  14.080   0.074  1.6184 -0.0846 -1.6108
22794SOL     OW85991  13.466   4.365   2.090  0.0294  0.4492 -0.4047
22794SOL    HW185992  13.554   4.329   2.095 -0.4037 -0.6438 -0.2889
22794SOL    HW285993  13.439   4.350   1.999  0.0244  0.9468 -0.4898
22795SOL     OW85994   8.517   8.106   6.185  0.2346  0.0927  0.1364
22795SOL    HW185995   8.489   8.015   6.193  2.2882 -0.6339 -0.4090
22795SOL    HW285996   8.488   8.148   6.266 -0.7526 -1.0185  0.3803
22796SOL     OW85997   9.372  12.003  11.813 -0.2174 -0.0517  0.1296
22796SOL    HW185998   9.437  12.070  11.792 -2.9001  3.9948  3.2754
22796SOL    HW285999   9.415  11.946  11.876  1.0925  0.8725  0.1040
22797SOL     OW86000  13.298  12.825   7.253 -0.3886  0.6103 -0.8974
22797SOL    HW186001  13.347  12.870   7.321 -1.9542  1.3885 -0.2287
22797SOL    HW286002  13.299  12.733   7.280  1.2399  0.4873 -1.2775
22798SOL     OW86003  11.427   8.711  11.056  0.4196  0.2629 -0.1772
22798SOL    HW186004  11.456   8.796  11.090  0.6581 -0.2135  0.8317
22798SOL    HW286005  11.499   8.682  11.000  0.1582  0.9114 -0.8631
22799SOL     OW86006   1.025   3.460   1.808  0.3091  0.2390  0.2528
22799SOL    HW186007   1.034   3.414   1.891 -0.2152 -1.9413 -0.8011
22799SOL    HW286008   0.934   3.490   1.806 -0.8249 -2.8783 -0.9277
22800SOL     OW86009  11.818   4.211   8.171  0.8587  0.4619  0.0079
22800SOL    HW186010  11.747   4.199   8.108  1.1293  0.2044 -0.2486
22800SOL    HW286011  11.798   4.149   8.241  0.4540  0.8819  0.2777
22801SOL     OW86012  13.084   7.011   7.303  0.1785  0.1010  0.3743
22801SOL    HW186013  13.023   7.070   7.348 -2.0821 -2.5411  1.0457
22801SOL    HW286014  13.147   6.986   7.370  0.7779  1.1705  0.2454
22802SOL     OW86015   0.239   7.846   5.839 -0.3781 -0.0297 -0.2410
22802SOL    HW186016   0.214   7.937   5.855  0.5448  0.1641  0.1493
22802SOL    HW286017   0.159   7.804   5.808 -0.9279  0.8034  0.0292
22803SOL     OW86018   0.246   9.919   0.114  0.3795 -0.5718 -0.2677
22803SOL    HW186019   0.244   9.970   0.194  0.2074  0.5082 -0.9417
22803SOL    HW286020   0.324   9.864   0.122  0.4985 -0.2937  0.5276
22804SOL     OW86021  10.610  12.451  10.702 -0.2859  0.1338  0.0673
22804SOL    HW186022  10.655  12.381  10.655  0.9204  0.5971  0.4951
22804SOL    HW286023  10.602  12.521  10.637 -0.8885 -0.1364 -0.1615
22805SOL     OW86024   8.760   7.913   2.617  0.1734  0.0988 -0.0549
22805SOL    HW186025   8.681   7.966   2.610 -0.0804 -0.3851 -1.0801
22805SOL    HW286026   8.752   7.848   2.547  0.7287 -0.9595  0.8215
22806SOL     OW86027   8.392   3.258  12.689 -0.0551  0.0283  0.0790
22806SOL    HW186028   8.452   3.210  12.745  0.7465  0.2682 -0.5584
22806SOL    HW286029   8.354   3.326  12.745 -0.8814 -1.0673  0.8763
22807SOL     OW86030   0.569   6.631  11.816 -0.4424  0.3671  0.1959
22807SOL    HW186031   0.625   6.559  11.787  0.3504  0.9632  0.2181
22807SOL    HW286032   0.593   6.704  11.760 -1.4837  0.5363 -0.0537
22808SOL     OW86033   1.502   3.461   1.822  0.8118  0.3480 -0.1379
22808SOL    HW186034   1.430   3.399   1.828  0.6448  0.4590 -0.8934
22808SOL    HW286035   1.532   3.455   1.731  0.2253  1.9732 -0.4817
22809SOL     OW86036   1.189   5.005   1.931 -0.5503 -0.3402  0.4017
22809SOL    HW186037   1.235   5.080   1.967 -0.3841 -0.4874  0.4971
22809SOL    HW286038   1.207   4.934   1.992  0.5777 -0.8573 -0.4892
22810SOL     OW86039   5.237   3.527  11.515  0.1522  0.6196  0.0860
22810SOL    HW186040   5.224   3.536  11.421 -1.5272 -0.0251  0.2260
22810SOL    HW286041   5.291   3.449  11.524 -1.8400 -0.8672 -0.2731
22811SOL     OW86042   3.294   6.485   0.508  0.0583  0.2432 -0.3884
22811SOL    HW186043   3.235   6.538   0.455  0.5213  1.0502 -0.1017
22811SOL    HW286044   3.325   6.417   0.448 -1.5919 -0.5461 -0.3896
22812SOL     OW86045   7.420   0.436  12.684 -0.4069 -0.5438  0.0244
22812SOL    HW186046   7.471   0.380  12.625  0.0870  0.8691 -0.9178
22812SOL    HW286047   7.486   0.482  12.736 -0.7052  0.9681 -0.9011
22813SOL     OW86048   2.577   0.517   0.616 -0.1277 -0.3464  0.1782
22813SOL    HW186049   2.616   0.434   0.586 -1.0600 -0.3710 -1.0082
22813SOL    HW286050   2.630   0.541   0.693 -0.0876 -2.2523  0.8105
22814SOL     OW86051  12.586   9.567  10.906  0.6309 -0.4670  0.0846
22814SOL    HW186052  12.653   9.584  10.839  1.2441 -0.5670  0.6652
22814SOL    HW286053  12.598   9.638  10.970  0.3522 -0.6357  0.3223
22815SOL     OW86054   0.722   4.163   2.724 -0.1955 -0.1146  0.1483
22815SOL    HW186055   0.787   4.115   2.775  0.4054 -1.5177 -1.8125
22815SOL    HW286056   0.655   4.187   2.788  0.0434 -2.6073  1.4602
22816SOL     OW86057   7.785   2.525   8.494  0.1492 -0.5683 -0.4069
22816SOL    HW186058   7.869   2.557   8.460 -0.4999  3.0106  0.8789
22816SOL    HW286059   7.723   2.541   8.423 -0.2518  1.8138  0.3727
22817SOL     OW86060  10.259   2.719  12.288  0.1719 -0.3800  0.8908
22817SOL    HW186061  10.195   2.728  12.218 -1.3770  1.9072  2.4487
22817SOL    HW286062  10.293   2.807  12.301  0.3001 -0.6789  3.0586
22818SOL     OW86063   5.443   6.486  10.708  0.3444 -0.3912 -0.3740
22818SOL    HW186064   5.512   6.540  10.747  0.4735 -1.3476  0.7913
22818SOL    HW286065   5.386   6.464  10.782 -1.0670  0.1517 -1.2705
22819SOL     OW86066   3.261   8.235   3.617 -0.3613  0.5710  0.1556
22819SOL    HW186067   3.273   8.248   3.711  0.5125 -0.2229  0.1600
22819SOL    HW286068   3.304   8.310   3.577 -1.3191  1.2710  0.3936
22820SOL     OW86069   4.898  13.133   6.953 -0.5357 -0.5572 -0.1074
22820SOL    HW186070   4.857  13.089   7.027 -0.4325  0.3917  0.5354
22820SOL    HW286071   4.850  13.101   6.876 -0.8713 -1.2896  0.4017
22821SOL     OW86072   7.028   9.026  13.387 -0.5042 -0.2384 -0.0975
22821SOL    HW186073   7.121   9.032  13.364 -0.3564 -1.1739  0.2358
22821SOL    HW286074   7.024   8.965  13.460 -1.1393  1.6062  1.4974
22822SOL     OW86075   4.595   5.544  13.040  0.0221  0.3669  0.4799
22822SOL    HW186076   4.646   5.576  13.115 -0.3137  2.0197  0.0312
22822SOL    HW286077   4.504   5.555  13.067 -0.1107 -0.1954  0.2790
22823SOL     OW86078   2.004  13.005   8.977 -0.3915  0.3703  0.0820
22823SOL    HW186079   2.041  13.092   8.990 -0.3811  0.1460  1.6665
22823SOL    HW286080   2.026  12.984   8.886  2.4567  0.6919  0.6173
22824SOL     OW86081   0.111   8.573   7.806 -0.0318  0.3502 -0.3766
22824SOL    HW186082   0.047   8.537   7.868  1.5388 -2.9096 -0.4422
22824SOL    HW286083   0.187   8.594   7.859  0.4242 -0.0529 -0.8617
22825SOL     OW86084  10.490   9.022   5.084 -0.2069 -0.2588  0.1519
22825SOL    HW186085  10.539   8.940   5.084  0.8040  0.3362  0.3080
22825SOL    HW286086  10.505   9.060   4.998 -0.0938  0.1064  0.3324
22826SOL     OW86087   0.238  10.526   6.405  0.2309 -0.2896 -0.4035
22826SOL    HW186088   0.309  10.519   6.469 -0.0810  0.5961  0.0525
22826SOL    HW286089   0.281  10.542   6.322  0.5788  0.0533 -0.1611
22827SOL     OW86090   0.905  10.874   4.631 -0.2081 -0.0884  0.6302
22827SOL    HW186091   0.873  10.796   4.585 -0.2869 -0.0785  0.6672
22827SOL    HW286092   0.836  10.893   4.695  0.2229 -0.5268  1.2428
22828SOL     OW86093   2.923  13.264   2.653 -0.4664  0.0736 -0.0721
22828SOL    HW186094   3.006  13.279   2.698  0.0372 -2.0615 -0.2145
22828SOL    HW286095   2.924  13.172   2.629 -2.4183  0.2483 -1.0572
22829SOL     OW86096  10.589   5.023   5.041  0.3404  0.5151 -0.5918
22829SOL    HW186097  10.645   4.967   5.094 -2.0569 -1.7474 -0.2615
22829SOL    HW286098  10.552   4.965   4.975 -1.8355  1.7707 -0.5783
22830SOL     OW86099   7.265   1.701   4.493 -0.0816 -0.0786 -0.1373
22830SOL    HW186100   7.280   1.614   4.457 -0.0288 -0.0840 -0.1029
22830SOL    HW286101   7.352   1.741   4.497  0.1190 -0.5976  1.3097
22831SOL     OW86102   8.765   5.047   4.620 -0.7159 -0.5080 -0.5094
22831SOL    HW186103   8.697   5.011   4.677 -0.0908  1.3566  1.5663
22831SOL    HW286104   8.841   4.990   4.635  0.0458  1.0419  2.1772
22832SOL     OW86105   9.056   5.544  13.118 -0.0651  0.3104  0.1743
22832SOL    HW186106   9.146   5.513  13.125  0.1366  0.9454  0.4951
22832SOL    HW286107   9.028   5.557  13.208 -0.4485  0.2041  0.0731
22833SOL     OW86108   5.446   1.689   4.863  0.4932  0.9948  0.0720
22833SOL    HW186109   5.420   1.772   4.903  1.3700  1.4087 -0.1906
22833SOL    HW286110   5.542   1.691   4.864  0.5274  0.5663 -1.1243
22834SOL     OW86111   1.912   2.120  13.377 -0.6463 -0.5083  0.0597
22834SOL    HW186112   1.921   2.024  13.379 -2.4586 -0.7100  0.5133
22834SOL    HW286113   1.863   2.141  13.456  0.1433  0.8662  0.2045
22835SOL     OW86114   5.940   8.229   5.685  0.7249 -0.1619 -0.4082
22835SOL    HW186115   5.862   8.276   5.713  1.6556  1.3999 -0.2774
22835SOL    HW286116   5.991   8.217   5.765  0.7237 -0.9702 -0.5215
22836SOL     OW86117   0.070   4.181  12.664  0.0892 -0.6639  0.1670
22836SOL    HW186118   0.023   4.199  12.583 -1.7002 -0.7473  1.1535
22836SOL    HW286119   0.158   4.215  12.648 -0.3187 -0.3602 -1.6683
22837SOL     OW86120  10.475   2.423   9.636 -0.1779  0.1873  0.6620
22837SOL    HW186121  10.512   2.497   9.683  1.7003 -0.3958  0.1757
22837SOL    HW286122  10.549   2.383   9.591 -1.1838 -1.8175  0.6672
22838SOL     OW86123   7.814   0.581   3.468  0.0259 -0.5308 -0.4243
22838SOL    HW186124   7.773   0.609   3.550  3.2158 -0.7090  1.3951
22838SOL    HW286125   7.800   0.654   3.409  0.1953  0.9267  1.2497
22839SOL     OW86126   1.059   5.139   9.173  0.1466  0.2522  0.0667
22839SOL    HW186127   1.073   5.170   9.263  0.1422 -2.0560  0.9343
22839SOL    HW286128   1.055   5.218   9.121 -2.2556  1.8259  2.4054
22840SOL     OW86129   3.249   6.258   8.767 -0.1157 -0.1329 -0.3930
22840SOL    HW186130   3.227   6.166   8.780  1.3808 -0.3420  1.1124
22840SOL    HW286131   3.187   6.289   8.702 -0.3683 -2.3187 -1.2748
22841SOL     OW86132   0.489  10.072   0.622  0.4255 -0.2200 -0.5914
22841SOL    HW186133   0.396  10.085   0.642  0.3461  0.4306 -1.3507
22841SOL    HW286134   0.535  10.109   0.697  0.1204  1.9275 -1.4102
22842SOL     OW86135   9.151   4.937   3.686  0.0365  0.6468  0.2423
22842SOL    HW186136   9.125   4.952   3.777  0.2042 -1.1002  0.6214
22842SOL    HW286137   9.246   4.945   3.686  0.1438 -0.4931  0.4856
22843SOL     OW86138   9.789  11.011  11.935  0.0626 -0.2105  0.1879
22843SOL    HW186139   9.764  11.077  11.871 -1.4606 -1.2705 -0.3634
22843SOL    HW286140   9.883  11.001  11.924  0.4451  2.2505  0.6942
22844SOL     OW86141  13.650   2.148  11.285 -0.4026 -0.3433 -0.4891
22844SOL    HW186142  13.628   2.233  11.324 -0.6960  0.0028 -1.3769
22844SOL    HW286143  13.566   2.103  11.279 -0.7063  0.4065 -2.5506
22845SOL     OW86144   5.167  10.210   9.374 -0.0135  0.5298  0.5480
22845SOL    HW186145   5.172  10.162   9.291 -0.0104  0.2936  0.6851
22845SOL    HW286146   5.210  10.294   9.356 -0.4872  0.6915  0.1610
22846SOL     OW86147   2.951   9.119   3.429 -0.1120  0.3723 -0.0873
22846SOL    HW186148   2.926   9.153   3.515 -1.8053 -0.1652 -0.3251
22846SOL    HW286149   2.936   9.192   3.369 -0.6804  0.2042 -0.1583
22847SOL     OW86150  13.800  10.709   0.785 -0.3130  0.2448  0.0434
22847SOL    HW186151  13.817  10.752   0.868 -1.1044  1.8610 -0.5799
22847SOL    HW286152  13.728  10.648   0.803 -1.8778  2.0523  0.1496
22848SOL     OW86153   7.494  13.796   6.983  0.1811  0.1325 -0.4455
22848SOL    HW186154   7.398  13.793   6.984  0.0053  2.5134 -1.6023
22848SOL    HW286155   7.517  13.843   7.063  0.2832  0.5366 -0.7067
22849SOL     OW86156   5.772   5.755   4.460 -0.5240  0.2036  0.1750
22849SOL    HW186157   5.855   5.735   4.502 -1.6437  1.6106  3.4282
22849SOL    HW286158   5.782   5.725   4.370  3.1629 -0.4088  0.6419
22850SOL     OW86159   8.190   1.519  12.694 -0.5503 -0.1133  0.1309
22850SOL    HW186160   8.131   1.444  12.702 -0.6399  0.1159  1.8992
22850SOL    HW286161   8.157   1.567  12.617  0.0053 -2.2646 -1.5308
22851SOL     OW86162   7.768   8.658   6.775  0.2643  0.0079  0.3135
22851SOL    HW186163   7.746   8.747   6.747  0.0235 -0.1560 -0.0345
22851SOL    HW286164   7.732   8.651   6.863 -1.0361 -0.2174 -0.2084
22852SOL     OW86165   4.165  12.912  11.563 -0.1697  0.2147 -0.0592
22852SOL    HW186166   4.230  12.841  11.560  1.1159  1.3764 -0.5933
22852SOL    HW286167   4.081  12.867  11.549  0.7436 -1.0520 -1.9785
22853SOL     OW86168   0.424   1.629   9.475 -0.1945 -0.5794  0.5483
22853SOL    HW186169   0.333   1.602   9.462 -0.1973 -1.5862  2.2970
22853SOL    HW286170   0.474   1.580   9.410 -0.9351  0.5688 -0.9576
22854SOL     OW86171  11.889   1.731   2.893 -0.1393 -0.6237  0.2771
22854SOL    HW186172  11.949   1.660   2.872 -0.0156 -0.7642  1.0581
22854SOL    HW286173  11.945   1.808   2.902 -0.1102 -0.6899  0.6879
22855SOL     OW86174   6.344   4.280   8.245  0.0788  0.1792  0.3050
22855SOL    HW186175   6.315   4.370   8.257  1.8326  0.8358 -0.0056
22855SOL    HW286176   6.376   4.276   8.155  0.5079 -0.5996  0.4762
22856SOL     OW86177   8.605   0.494  13.701  0.1397  0.5334 -0.2133
22856SOL    HW186178   8.699   0.477  13.710 -0.0997 -0.6220  0.1968
22856SOL    HW286179   8.589   0.489  13.606  0.8016  2.5685 -0.4823
22857SOL     OW86180   2.268   6.501   5.178 -0.0670 -0.4613  0.1380
22857SOL    HW186181   2.189   6.547   5.208  1.0121  0.8907  1.0451
22857SOL    HW286182   2.333   6.570   5.167  0.5517 -1.3437 -2.2309
22858SOL     OW86183  10.616   7.357   7.987  0.4175  0.3104 -0.3853
22858SOL    HW186184  10.679   7.309   7.933 -0.7684 -0.9000 -0.7577
22858SOL    HW286185  10.664   7.378   8.067  1.6357  0.4774 -1.1233
22859SOL     OW86186   4.555   7.023   6.777 -0.2876 -0.3963 -0.2726
22859SOL    HW186187   4.515   7.093   6.829  0.0079  0.8286 -1.6412
22859SOL    HW286188   4.480   6.977   6.737 -0.4319  0.6900 -1.3008
22860SOL     OW86189   9.245   7.205  13.813  0.3499  0.5411 -0.0352
22860SOL    HW186190   9.268   7.252  13.893 -0.6060 -1.5302  1.5533
22860SOL    HW286191   9.178   7.259  13.772  1.7357  2.2666 -0.1724
22861SOL     OW86192   8.625  12.417   1.096  0.1357 -0.2930 -0.8399
22861SOL    HW186193   8.581  12.502   1.086 -1.5657 -0.9929  0.3074
22861SOL    HW286194   8.574  12.357   1.042  0.5632 -0.8479 -0.6307
22862SOL     OW86195   1.859   4.572  12.302 -0.5976 -0.1985 -0.2908
22862SOL    HW186196   1.835   4.487  12.265  0.2096 -0.4896 -0.1685
22862SOL    HW286197   1.954   4.569  12.310 -0.7129 -0.0745  1.6115
22863SOL     OW86198   6.524  10.383   5.578  0.3451 -0.3917 -0.2596
22863SOL    HW186199   6.526  10.297   5.620 -0.0510 -0.4510 -0.3559
22863SOL    HW286200   6.484  10.367   5.492 -2.7181  0.3604  0.9000
22864SOL     OW86201   3.600   5.465  10.625  0.0999 -0.1140  0.0328
22864SOL    HW186202   3.680   5.517  10.636 -0.9171  1.7007 -0.7499
22864SOL    HW286203   3.536   5.506  10.683 -1.0679  0.3115 -1.5010
22865SOL     OW86204  13.696   8.062   3.248 -0.7475 -0.3085 -0.4669
22865SOL    HW186205  13.743   7.991   3.293  0.3511  0.0701 -0.9861
22865SOL    HW286206  13.752   8.085   3.174 -0.8191  1.4668 -0.0154
22866SOL     OW86207  11.649  12.125   4.147 -0.5002 -0.0331  0.2851
22866SOL    HW186208  11.723  12.067   4.130 -0.6698 -0.3101  0.4799
22866SOL    HW286209  11.669  12.166   4.232 -0.4311  0.1142  0.1976
22867SOL     OW86210  11.987   2.868   9.134 -0.1250  0.3841  0.3505
22867SOL    HW186211  11.912   2.839   9.081  0.8767  2.3383 -2.3759
22867SOL    HW286212  11.973   2.962   9.146  0.6512  0.3098  2.0233
22868SOL     OW86213   3.354   3.928  10.919 -0.0439 -0.3996 -0.0983
22868SOL    HW186214   3.423   3.919  10.985  2.5690 -0.8135 -2.6799
22868SOL    HW286215   3.298   3.851  10.931 -0.5160  0.2613  2.4606
22869SOL     OW86216   7.669   5.754  11.249  0.5650  0.2418 -0.4755
22869SOL    HW186217   7.617   5.716  11.178 -0.1840  0.5260 -0.0776
22869SOL    HW286218   7.655   5.848  11.241  0.1218  0.2470  0.3293
22870SOL     OW86219   8.438   4.016  11.532 -0.5233 -0.0182  0.3809
22870SOL    HW186220   8.530   4.043  11.543 -0.4537 -0.6805  1.6088
22870SOL    HW286221   8.432   3.933  11.578 -1.6121 -0.2784 -0.2007
22871SOL     OW86222   0.438   0.154  10.509 -0.0418  0.1299  0.1468
22871SOL    HW186223   0.504   0.222  10.497  1.9020 -1.8529 -1.1073
22871SOL    HW286224   0.475   0.077  10.466 -1.8745 -1.8969  1.9589
22872SOL     OW86225   7.532   8.588   1.873  0.6888 -0.1602  0.2352
22872SOL    HW186226   7.534   8.617   1.964 -1.5904  1.5616 -0.1933
22872SOL    HW286227   7.581   8.505   1.874  3.0990  1.1358  2.4549
22873SOL     OW86228  13.004  11.778  12.418  0.5689 -0.3626  0.4172
22873SOL    HW186229  13.071  11.717  12.389  0.6684 -1.2271  2.2841
22873SOL    HW286230  13.007  11.773  12.514 -2.7765 -1.1944  0.6229
22874SOL     OW86231   7.437   2.676  11.725  0.1268  0.6139  0.2654
22874SOL    HW186232   7.365   2.735  11.744  1.9732  3.1172  0.0572
22874SOL    HW286233   7.427   2.604  11.787 -2.4803  0.8823  0.2308
22875SOL     OW86234   0.186  11.232   5.179  0.3197  0.2335  0.2279
22875SOL    HW186235   0.250  11.188   5.235 -2.8162 -0.7468  3.4410
22875SOL    HW286236   0.178  11.320   5.217 -0.5250  0.1981  0.1474
22876SOL     OW86237   6.479   0.923   1.176  0.1807  0.2259 -0.2015
22876SOL    HW186238   6.559   0.887   1.214 -0.3982 -0.0794  0.7710
22876SOL    HW286239   6.434   0.964   1.250 -0.4616  0.5766 -0.7786
22877SOL     OW86240   7.683  10.132   3.351 -0.3205  0.4972  0.0171
22877SOL    HW186241   7.665  10.164   3.439  0.2774 -0.4514  0.5038
22877SOL    HW286242   7.636  10.048   3.346  1.4393 -0.5488  0.2563
22878SOL     OW86243   0.881   0.588   7.811  0.2006  0.3273 -0.1020
22878SOL    HW186244   0.883   0.600   7.716 -0.2279  0.6462 -0.0740
22878SOL    HW286245   0.788   0.593   7.834  0.2557 -0.2735  0.2729
22879SOL     OW86246   0.858  13.047   1.218  0.0913  0.0823 -0.1865
22879SOL    HW186247   0.800  13.104   1.269 -2.1413  0.1107 -2.5487
22879SOL    HW286248   0.928  13.105   1.188 -1.0445  1.1485 -0.8703
22880SOL     OW86249  13.528   4.106   9.283 -0.0986 -0.0805 -0.2847
22880SOL    HW186250  13.450   4.053   9.297  0.6512 -1.1647 -0.0615
22880SOL    HW286251  13.531   4.120   9.189 -0.0730 -0.8135 -0.3971
22881SOL     OW86252   5.830   0.800   7.266 -0.1636  0.2408 -0.2080
22881SOL    HW186253   5.873   0.830   7.346 -0.4576  2.6503 -0.8740
22881SOL    HW286254   5.899   0.758   7.216  0.9359  2.0086 -0.2618
22882SOL     OW86255   9.455   4.619   4.809 -0.2793  0.2213 -0.2126
22882SOL    HW186256   9.523   4.552   4.808 -2.9597 -2.7352  0.6437
22882SOL    HW286257   9.469   4.665   4.892  0.9369  0.0205 -0.2869
22883SOL     OW86258   2.744   4.986  12.119  0.4314  0.3560 -0.0062
22883SOL    HW186259   2.758   4.940  12.202 -1.9486  1.0080  0.8419
22883SOL    HW286260   2.819   4.961  12.065  1.8798 -0.3642  2.2006
22884SOL     OW86261   8.437   1.189   5.092 -0.2718 -0.3054 -0.4777
22884SOL    HW186262   8.484   1.272   5.100  1.5260 -1.2437 -0.6631
22884SOL    HW286263   8.500   1.123   5.123 -1.9049 -1.5302  0.3521
22885SOL     OW86264  11.943  13.775   0.769  1.0592 -0.6188 -0.4759
22885SOL    HW186265  11.986  13.787   0.853 -0.6202  0.7485  0.2548
22885SOL    HW286266  11.942  13.862   0.729  0.6087 -0.9728 -1.2729
22886SOL     OW86267   5.839   0.256  11.595  0.2919 -0.4804 -0.4973
22886SOL    HW186268   5.751   0.237  11.627  0.4434  0.1503  0.3405
22886SOL    HW286269   5.830   0.339  11.548  0.3616 -0.6367 -0.7899
22887SOL     OW86270   8.563   1.987   2.399  0.0051 -0.3338  0.1082
22887SOL    HW186271   8.631   1.923   2.419 -0.5817 -1.1121 -0.3744
22887SOL    HW286272   8.491   1.936   2.362 -0.6811  0.5329  0.2159
22888SOL     OW86273   0.088  10.777   4.617  0.2215  0.7023  0.1828
22888SOL    HW186274   0.043  10.784   4.533 -1.0530 -1.9129  0.5370
22888SOL    HW286275   0.176  10.747   4.595 -0.0550  0.1978 -0.2437
22889SOL     OW86276   7.167   7.971  13.368  0.5241  0.4263 -0.3170
22889SOL    HW186277   7.085   7.955  13.414  0.1503  0.6928 -0.8872
22889SOL    HW286278   7.225   7.901  13.398 -0.4310 -0.7844 -1.1840
22890SOL     OW86279   5.285   2.947   0.804 -0.1073  0.2884 -0.2243
22890SOL    HW186280   5.342   2.919   0.732 -1.1118  1.8098 -1.7206
22890SOL    HW286281   5.334   3.016   0.848  0.2621 -0.2262  0.1805
22891SOL     OW86282  13.117  10.581   1.975  0.3320 -0.3407  0.4409
22891SOL    HW186283  13.186  10.518   1.954 -0.5476 -1.1418 -0.0895
22891SOL    HW286284  13.161  10.666   1.971  0.8816 -0.6691 -1.7966
22892SOL     OW86285   9.574  12.355   5.493  0.0983  0.2071  0.1731
22892SOL    HW186286   9.586  12.442   5.529  1.4289 -0.0044  0.2996
22892SOL    HW286287   9.663  12.323   5.479 -0.3712 -0.5030 -1.3845
22893SOL     OW86288  12.901   0.442  13.350 -0.4056  0.1505 -0.1612
22893SOL    HW186289  12.830   0.446  13.414 -0.4750  0.9060 -0.2758
22893SOL    HW286290  12.859   0.413  13.269 -0.1364 -1.8761  0.3595
22894SOL     OW86291  12.862   7.480   2.043 -0.2954 -0.4239  0.0261
22894SOL    HW186292  12.796   7.438   2.097 -0.2181 -0.0631  0.4087
22894SOL    HW286293  12.921   7.409   2.017 -0.4304 -0.6261  0.2675
22895SOL     OW86294   4.642  13.760  10.328  0.3171  0.1184  0.4963
22895SOL    HW186295   4.630  13.684  10.385  0.3360 -0.0581  0.2717
22895SOL    HW286296   4.655  13.834  10.387 -0.2274  0.0359  0.7238
22896SOL     OW86297   0.043   2.376   9.859 -0.2640  0.3091  0.0748
22896SOL    HW186298  -0.009   2.313   9.909 -0.3111  0.4879  0.2528
22896SOL    HW286299  -0.003   2.459   9.870  0.1544  0.5069  0.3861
22897SOL     OW86300   8.518  13.195   7.182 -0.2721 -0.2892 -0.2024
22897SOL    HW186301   8.569  13.195   7.263 -0.5274 -0.8489 -0.0313
22897SOL    HW286302   8.462  13.117   7.189 -1.8150  0.7837  0.0409
22898SOL     OW86303   2.840   2.356   1.566  0.3847  0.4928 -0.3783
22898SOL    HW186304   2.776   2.288   1.547  0.6369  0.3690 -0.8070
22898SOL    HW286305   2.840   2.363   1.661 -1.0754  1.2788 -0.4165
22899SOL     OW86306  10.642   2.801   1.250  0.0343 -0.3884  0.0239
22899SOL    HW186307  10.661   2.710   1.229  0.8190 -0.0637 -0.7633
22899SOL    HW286308  10.700   2.851   1.192  0.9938  0.6080  1.7641
22900SOL     OW86309   8.406   1.940   2.711 -0.3757  0.1442  0.6335
22900SOL    HW186310   8.493   1.941   2.671 -0.5253  0.7524  0.3140
22900SOL    HW286311   8.419   1.975   2.799 -0.0137 -1.3601  1.2189
22901SOL     OW86312   2.120  11.989   2.892 -0.6940 -0.0956 -0.2856
22901SOL    HW186313   2.072  11.908   2.909 -0.1187 -0.3050  0.3854
22901SOL    HW286314   2.178  11.999   2.967 -0.8965  1.0507 -0.2658
22902SOL     OW86315   2.377  12.693   3.781 -0.5599  0.2975  0.1141
22902SOL    HW186316   2.284  12.683   3.760 -0.4312 -1.1871  0.1353
22902SOL    HW286317   2.382  12.776   3.828 -2.0858 -0.1769  1.2086
22903SOL     OW86318  10.781  10.720  13.398 -0.4822  0.4413 -0.2536
22903SOL    HW186319  10.792  10.764  13.314 -0.1741  0.7549 -0.0498
22903SOL    HW286320  10.870  10.701  13.428 -0.6202 -1.9890 -1.2035
22904SOL     OW86321   5.897   0.234   0.223 -0.5473 -0.3631  0.6244
22904SOL    HW186322   5.957   0.229   0.297 -0.2939 -1.9537  0.3608
22904SOL    HW286323   5.896   0.144   0.188  0.2891  0.5751 -2.0408
22905SOL     OW86324   7.258   1.327  12.937 -0.2781 -0.3785 -0.2822
22905SOL    HW186325   7.234   1.281  12.856 -0.2394  0.0126 -0.5165
22905SOL    HW286326   7.354   1.331  12.935 -0.2142 -1.3314  0.3196
22906SOL     OW86327   4.625   2.320   0.950  0.7913  0.0777 -0.0141
22906SOL    HW186328   4.560   2.254   0.929 -0.2439  1.3731 -1.1153
22906SOL    HW286329   4.580   2.380   1.010  2.0866 -0.7771  1.9307
22907SOL     OW86330   1.432  10.616   8.663  0.2106 -0.2899 -0.2316
22907SOL    HW186331   1.519  10.627   8.624 -0.0835 -2.0988 -1.5328
22907SOL    HW286332   1.423  10.521   8.675 -1.3366 -0.0822  0.4954
22908SOL     OW86333  12.849   2.615   7.892 -0.5266 -0.2619  0.2367
22908SOL    HW186334  12.915   2.597   7.826 -1.3486 -1.0840 -0.3970
22908SOL    HW286335  12.825   2.707   7.878 -0.8943 -0.5009 -0.8159
22909SOL     OW86336  13.784   6.986  10.283  0.6503  0.8745  0.3241
22909SOL    HW186337  13.861   6.993  10.227  0.4864  0.1779  0.0114
22909SOL    HW286338  13.802   7.047  10.355  2.3020 -0.5478  1.2065
22910SOL     OW86339   3.421  11.325   3.633  0.6146 -0.5790 -0.0439
22910SOL    HW186340   3.492  11.266   3.657 -0.3954 -1.7681  0.1248
22910SOL    HW286341   3.343  11.286   3.673 -0.1977  0.4956 -0.5209
22911SOL     OW86342  12.656   5.030   1.024 -0.0540 -0.1879  0.6699
22911SOL    HW186343  12.659   5.032   1.120 -0.9828 -1.4873  0.7497
22911SOL    HW286344  12.647   4.938   1.002 -0.1723  0.1218 -0.6690
22912SOL     OW86345   7.407  11.713   1.093 -0.2502  0.2112  0.0166
22912SOL    HW186346   7.442  11.665   1.018  0.2442  0.0600  0.3408
22912SOL    HW286347   7.483  11.729   1.149 -0.5989  0.4095  0.4382
22913SOL     OW86348   9.789  10.611  13.436 -0.0087  0.3965 -0.1540
22913SOL    HW186349   9.795  10.515  13.435  1.2459  0.4125  1.2909
22913SOL    HW286350   9.712  10.631  13.383  0.4293 -1.3314 -1.5460
22914SOL     OW86351   4.240   5.638   1.727  0.3217  0.1392  0.2262
22914SOL    HW186352   4.151   5.626   1.760  0.4685  0.4687  0.7550
22914SOL    HW286353   4.273   5.549   1.715 -0.3308  0.0015 -0.6905
22915SOL     OW86354   0.654   2.776  11.376  0.2508 -0.1248 -0.7778
22915SOL    HW186355   0.569   2.782  11.420  0.7589  0.7547  0.1172
22915SOL    HW286356   0.632   2.767  11.283 -0.8653 -2.4663 -0.3659
22916SOL     OW86357   6.827   2.059   4.941 -0.0676  0.3499 -0.3790
22916SOL    HW186358   6.759   2.079   5.005  0.7672  0.8709  0.3660
22916SOL    HW286359   6.822   1.963   4.931  0.0198  0.2123  0.7366
22917SOL     OW86360   7.034   2.748  12.382 -0.0261  0.0461 -0.7130
22917SOL    HW186361   7.058   2.841  12.389 -1.0301  0.2817 -0.3864
22917SOL    HW286362   7.105   2.702  12.427 -1.2076  0.8658  2.1646
22918SOL     OW86363   1.170   8.864  12.143 -0.1007 -0.1183  0.4911
22918SOL    HW186364   1.156   8.772  12.167  2.8228 -0.7500  0.1321
22918SOL    HW286365   1.231   8.860  12.069 -0.2620  2.1286  0.1729
22919SOL     OW86366   6.429   9.853   5.814 -0.4221  0.3091 -0.3645
22919SOL    HW186367   6.341   9.816   5.809 -0.4851  0.3827  0.1534
22919SOL    HW286368   6.458   9.836   5.904  0.3890 -0.3649 -0.7424
22920SOL     OW86369   3.807  13.606   0.802  0.0058  0.1366 -0.0720
22920SOL    HW186370   3.799  13.605   0.706  0.3435  1.9427 -0.1508
22920SOL    HW286371   3.772  13.522   0.830 -0.6536 -0.1787 -1.7514
22921SOL     OW86372  13.406   6.188  10.507 -0.4927 -0.4170 -0.4807
22921SOL    HW186373  13.433   6.220  10.593 -0.9314  0.0461 -0.5105
22921SOL    HW286374  13.424   6.261  10.447 -0.8276 -0.4861 -0.6676
22922SOL     OW86375   7.415  11.248  11.492  0.0365  0.0704 -0.2122
22922SOL    HW186376   7.426  11.164  11.536 -1.5027  0.1981  0.4760
22922SOL    HW286377   7.372  11.304  11.556 -2.6102  0.1548 -1.9110
22923SOL     OW86378   9.861   6.140   8.658  0.0163  0.1700 -0.3846
22923SOL    HW186379   9.826   6.055   8.632 -0.2031  0.7643 -2.1429
22923SOL    HW286380   9.954   6.136   8.637 -0.2293  0.7803 -1.6867
22924SOL     OW86381   8.235   2.104   1.835 -0.6011  0.2866 -0.4531
22924SOL    HW186382   8.265   2.115   1.925  2.5059  0.1664 -1.3472
22924SOL    HW286383   8.208   2.012   1.830  3.5614 -1.1243 -0.6104
22925SOL     OW86384   4.228  10.908  10.037  0.0315  0.6024 -0.1829
22925SOL    HW186385   4.169  10.836  10.011 -1.2245  1.3471  0.5357
22925SOL    HW286386   4.314  10.866  10.045 -0.1264 -0.3156 -2.3168
22926SOL     OW86387   0.811   1.633   1.002 -0.6406  0.0847 -0.1391
22926SOL    HW186388   0.718   1.611   1.009 -0.1052 -1.8680  2.0063
22926SOL    HW286389   0.852   1.588   1.076  2.1481  0.2129 -1.4867
22927SOL     OW86390   2.423  10.049  10.845  0.0900 -0.2554 -0.2441
22927SOL    HW186391   2.392  10.048  10.936 -2.3009 -0.1732 -1.0041
22927SOL    HW286392   2.468   9.965  10.835  0.2166 -0.3553  0.9523
22928SOL     OW86393   4.347   5.190   2.875  0.0272  0.1394  0.0728
22928SOL    HW186394   4.272   5.239   2.843 -0.5253 -0.0180  1.1044
22928SOL    HW286395   4.401   5.255   2.920  0.8840  0.3923 -1.2636
22929SOL     OW86396   7.760   8.570   4.912 -0.2608 -0.7098 -0.1585
22929SOL    HW186397   7.679   8.543   4.957 -0.3424 -2.9047 -1.5079
22929SOL    HW286398   7.806   8.489   4.894  1.5276  0.3930 -0.8291
22930SOL     OW86399   6.057  13.950   4.904  0.0031 -0.0646  0.5950
22930SOL    HW186400   6.081  14.042   4.909 -0.0559 -0.0245  0.1790
22930SOL    HW286401   6.121  13.905   4.960  0.6808  0.1123 -0.0174
22931SOL     OW86402   3.399  12.740   8.645  0.4589  0.4161 -0.3487
22931SOL    HW186403   3.376  12.782   8.728 -1.3358 -1.2926  0.0630
22931SOL    HW286404   3.319  12.742   8.594  0.7399 -1.1833 -0.8878
22932SOL     OW86405  13.846  11.576   0.602 -0.7092  0.3357  0.1785
22932SOL    HW186406  13.834  11.663   0.640 -0.0269  1.2415 -1.5554
22932SOL    HW286407  13.870  11.520   0.676 -3.5616  1.0075  1.7784
22933SOL     OW86408  12.249   6.379   4.432 -0.2420 -0.0175  0.3286
22933SOL    HW186409  12.332   6.335   4.420  0.7743  1.6993  0.6712
22933SOL    HW286410  12.191   6.312   4.469  0.8449 -1.3430 -0.2898
22934SOL     OW86411   0.379  10.903   7.518  0.2880  0.8212 -0.1963
22934SOL    HW186412   0.322  10.935   7.449  0.3554  0.5283 -0.3893
22934SOL    HW286413   0.454  10.865   7.472  0.0542  0.0931  0.0112
22935SOL     OW86414  11.752   9.855  12.973  0.3097 -0.0482 -0.3512
22935SOL    HW186415  11.806   9.783  12.939 -2.3127 -1.6937 -1.2753
22935SOL    HW286416  11.781   9.931  12.923  3.1742 -0.3356  0.6685
22936SOL     OW86417   5.728   4.879  12.261  0.2672 -0.8386  0.3043
22936SOL    HW186418   5.687   4.795  12.242  0.6244 -0.8806 -0.3120
22936SOL    HW286419   5.710   4.933  12.183  1.2385 -0.8094  0.0820
22937SOL     OW86420   3.273   4.694   3.799 -0.2396 -0.7784  0.4372
22937SOL    HW186421   3.329   4.772   3.802  1.3671 -1.8476 -0.3867
22937SOL    HW286422   3.257   4.678   3.706 -2.4719 -0.1714  0.6603
22938SOL     OW86423   0.731   6.122   5.770  0.8575 -0.2007  0.3662
22938SOL    HW186424   0.662   6.057   5.757 -0.3681  1.4435 -2.1324
22938SOL    HW286425   0.772   6.131   5.684  0.9605  2.3087  0.6048
22939SOL     OW86426   5.685   9.965   9.602  0.3683 -0.2840 -0.6068
22939SOL    HW186427   5.632  10.044   9.592 -0.7730 -0.9077  0.1443
22939SOL    HW286428   5.691   9.953   9.697 -0.9791 -2.0212 -0.6814
22940SOL     OW86429  12.762  13.998  12.190 -0.3864 -0.0988 -0.2514
22940SOL    HW186430  12.740  13.922  12.136 -2.1048  0.8644 -1.0193
22940SOL    HW286431  12.803  14.060  12.129 -0.2478  0.1140  0.0540
22941SOL     OW86432   4.966   6.769   7.132 -0.6360 -0.1080  0.1654
22941SOL    HW186433   4.904   6.817   7.077  0.1380  0.6082 -0.0936
22941SOL    HW286434   5.052   6.788   7.094 -0.1781 -0.4070  1.0272
22942SOL     OW86435   5.547   9.507   5.663 -0.2257 -0.4308  0.0643
22942SOL    HW186436   5.578   9.596   5.647  1.9503 -1.2496 -0.5180
22942SOL    HW286437   5.453   9.511   5.645  0.1684  1.2845 -2.0359
22943SOL     OW86438   3.769   9.516   8.514  0.1793 -0.1952  0.4533
22943SOL    HW186439   3.723   9.549   8.591 -0.5446 -0.9811  0.3744
22943SOL    HW286440   3.844   9.575   8.504 -0.4569  0.7305  0.9570
22944SOL     OW86441   5.012   0.528   3.421  0.0473 -0.1339  1.0235
22944SOL    HW186442   4.975   0.601   3.372 -0.9709 -0.0808  1.8268
22944SOL    HW286443   4.936   0.483   3.458  0.7496 -0.3238  2.3173
22945SOL     OW86444   5.961   9.181   3.343 -0.1459  0.2781  0.5137
22945SOL    HW186445   5.893   9.223   3.395 -0.2516  0.6142  0.1107
22945SOL    HW286446   6.043   9.203   3.388 -0.2905 -0.0427  0.9403
22946SOL     OW86447   9.381   6.299  11.273  0.1265 -0.3765 -0.2340
22946SOL    HW186448   9.301   6.247  11.285  0.5023 -1.0227 -0.4772
22946SOL    HW286449   9.445   6.257  11.330  0.2360  0.2822  0.1381
22947SOL     OW86450   9.009   4.399   5.521  0.2188  0.4381  0.3882
22947SOL    HW186451   9.077   4.449   5.567  0.5980  0.2958 -0.0176
22947SOL    HW286452   9.057   4.341   5.462 -0.2771  0.8907 -0.4713
22948SOL     OW86453  12.854   7.189   8.695 -0.1560 -0.0687  0.3029
22948SOL    HW186454  12.945   7.205   8.671  0.2297 -1.0748  1.0333
22948SOL    HW286455  12.820   7.136   8.623  0.1026 -0.4703  0.4760
22949SOL     OW86456   3.307   4.689   5.653  0.2205 -0.4012 -0.4749
22949SOL    HW186457   3.281   4.640   5.731  1.8885  0.0779  0.4429
22949SOL    HW286458   3.328   4.621   5.589  0.1620 -0.8505 -0.0315
22950SOL     OW86459   8.726  11.771   7.741  0.0595 -0.1573  0.3428
22950SOL    HW186460   8.794  11.705   7.727  1.5707  1.7061 -1.8837
22950SOL    HW286461   8.662  11.755   7.672  0.2277  0.4303  0.0440
22951SOL     OW86462   1.153   8.185   0.500  0.2634 -0.2417 -0.0950
22951SOL    HW186463   1.108   8.150   0.424 -2.3955 -0.2956  1.3624
22951SOL    HW286464   1.218   8.119   0.523 -1.9455 -2.4466  0.2455
22952SOL     OW86465  13.614   9.892   4.517 -0.0106  0.7849  0.5648
22952SOL    HW186466  13.592   9.970   4.466 -0.8628 -0.3832 -0.9058
22952SOL    HW286467  13.564   9.821   4.476  0.3552 -0.4614  2.1729
22953SOL     OW86468   3.331  13.811   0.636  0.6337 -0.0316  0.0803
22953SOL    HW186469   3.417  13.845   0.657  0.1268  1.8333 -0.6100
22953SOL    HW286470   3.271  13.856   0.696 -0.1068  0.6251 -1.1019
22954SOL     OW86471   0.519   2.997   6.959 -0.0327  0.3022  0.1314
22954SOL    HW186472   0.592   3.001   6.899 -0.1365  3.5160  0.0652
22954SOL    HW286473   0.453   2.945   6.913  1.2807 -0.5917 -0.8206
22955SOL     OW86474   3.501   3.310   8.174 -0.3923  0.1456  0.0449
22955SOL    HW186475   3.413   3.346   8.183 -0.1769  0.5624  0.4607
22955SOL    HW286476   3.546   3.371   8.116 -0.1113  0.4043  0.5315
22956SOL     OW86477  13.842   1.591   8.913 -0.4345  0.2911 -0.3949
22956SOL    HW186478  13.781   1.654   8.952 -1.5545 -0.4127 -0.9392
22956SOL    HW286479  13.921   1.641   8.896 -1.0411  1.3745 -0.1302
22957SOL     OW86480   9.181   1.960   0.997  0.1719  0.2959  0.0710
22957SOL    HW186481   9.269   1.972   1.032  0.2301  2.7900 -0.7314
22957SOL    HW286482   9.132   1.919   1.069  1.1675  1.9617  1.7951
22958SOL     OW86483   8.271   6.293  10.964 -0.2572 -0.1377  0.4140
22958SOL    HW186484   8.256   6.368  10.907 -0.2153  0.5302  1.2498
22958SOL    HW286485   8.277   6.331  11.052  3.8187 -0.5475  0.5000
22959SOL     OW86486  13.005  11.136  12.152  0.2569 -0.0395  0.7574
22959SOL    HW186487  12.962  11.129  12.238  0.4740  0.2705  0.8953
22959SOL    HW286488  13.086  11.183  12.170  0.7919 -0.8568  0.5425
22960SOL     OW86489   2.318  10.550   2.947 -0.7926  0.5391 -0.2630
22960SOL    HW186490   2.294  10.474   2.894 -2.0982  1.0434 -0.4495
22960SOL    HW286491   2.362  10.609   2.885 -0.1795  0.1223 -0.2230
22961SOL     OW86492   0.021   1.722   7.413  0.2913  0.2821 -0.1773
22961SOL    HW186493   0.033   1.639   7.458  1.7376  1.1355  1.1147
22961SOL    HW286494   0.109   1.760   7.408 -0.5780  2.8415  1.5847
22962SOL     OW86495   0.180  12.194  12.148 -0.3296  0.0167  0.4222
22962SOL    HW186496   0.198  12.252  12.073 -3.3967  1.1847  0.4000
22962SOL    HW286497   0.137  12.118  12.109 -1.4211  0.3723  0.8647
22963SOL     OW86498  13.937   0.345  10.202  0.5588 -0.2749  0.2886
22963SOL    HW186499  13.956   0.314  10.290 -1.8887 -1.4289  0.4790
22963SOL    HW286500  13.910   0.436  10.214  1.0127 -0.1793  0.6151
22964SOL     OW86501  12.039   0.579   9.291 -0.0141 -0.6491 -0.5817
22964SOL    HW186502  12.033   0.538   9.205  0.0525  0.7307 -1.2607
22964SOL    HW286503  12.046   0.673   9.273 -1.3056 -0.2043  0.9509
22965SOL     OW86504   7.202   1.505   4.931  0.3483 -0.0636  0.2330
22965SOL    HW186505   7.198   1.582   4.989 -0.2459  0.4610 -0.4721
22965SOL    HW286506   7.292   1.504   4.900  0.1290  0.9341 -0.4970
22966SOL     OW86507   4.538   2.163  13.714 -0.3104 -0.0639  0.0550
22966SOL    HW186508   4.476   2.204  13.774 -0.1195  1.4042 -0.6825
22966SOL    HW286509   4.624   2.191  13.748 -0.1477 -0.3673 -0.1122
22967SOL     OW86510   4.673   1.424   1.540 -0.2071  0.1017 -0.1105
22967SOL    HW186511   4.762   1.421   1.507 -0.3148  0.2536 -0.4129
22967SOL    HW286512   4.629   1.490   1.487 -0.8813 -0.9346 -0.9029
22968SOL     OW86513   4.140  13.831  11.788 -0.2306 -0.1738 -0.3841
22968SOL    HW186514   4.162  13.921  11.764  1.4934 -0.1934  0.9364
22968SOL    HW286515   4.217  13.779  11.761 -1.8228 -1.5742 -2.6041
22969SOL     OW86516   4.155   7.354   5.841  0.3417  0.2481  0.3671
22969SOL    HW186517   4.242   7.316   5.851  0.4126  0.2984 -0.0315
22969SOL    HW286518   4.170   7.449   5.843  0.5805  0.3133 -1.7402
22970SOL     OW86519  10.116   0.573   2.314 -0.4397 -0.1893 -0.4611
22970SOL    HW186520  10.137   0.537   2.227  0.7276 -1.1786  0.2009
22970SOL    HW286521  10.080   0.499   2.362  1.4797 -0.3987  0.7545
22971SOL     OW86522   7.648   5.871   4.473 -0.1051  0.2121  0.3275
22971SOL    HW186523   7.631   5.963   4.489 -0.5839  0.1590  0.1296
22971SOL    HW286524   7.578   5.824   4.518 -1.1471  0.0386 -1.3879
22972SOL     OW86525   1.158   7.021   9.005 -0.0114  0.3733 -0.2155
22972SOL    HW186526   1.117   7.105   8.982  0.8349  0.7638 -0.3549
22972SOL    HW286527   1.243   7.024   8.961 -0.9130 -1.6134 -2.2722
22973SOL     OW86528   3.044  13.429   5.203 -0.0672  0.0804 -0.2074
22973SOL    HW186529   3.104  13.499   5.179  1.0167 -1.0395 -0.8686
22973SOL    HW286530   3.097  13.369   5.257 -1.3425  0.4542  1.5722
22974SOL     OW86531  12.808  11.840   3.848  0.7671 -0.2810 -0.0237
22974SOL    HW186532  12.771  11.753   3.863 -0.1128 -0.0098 -0.4987
22974SOL    HW286533  12.841  11.837   3.758  0.4362 -0.0304 -0.1575
22975SOL     OW86534   2.834   9.524   8.293  0.5986 -0.2695 -0.2627
22975SOL    HW186535   2.758   9.500   8.345  0.1904 -1.9574 -1.5347
22975SOL    HW286536   2.908   9.519   8.354 -0.2453  1.2679  0.9534
22976SOL     OW86537   6.808   1.525  13.624  0.6024 -0.4455 -0.2547
22976SOL    HW186538   6.821   1.432  13.645  0.6114 -0.8417 -1.8292
22976SOL    HW286539   6.716   1.531  13.599  0.4217  0.1315  0.5189
22977SOL     OW86540   6.325  10.218  13.152  0.1775 -0.3626 -0.0280
22977SOL    HW186541   6.328  10.313  13.140  0.6116 -0.4489 -0.6569
22977SOL    HW286542   6.344  10.182  13.066  0.9979 -1.0206  0.4053
22978SOL     OW86543  13.338   9.695   1.736 -0.2076  0.2100  0.4363
22978SOL    HW186544  13.312   9.626   1.675  0.4535 -0.1867  0.5887
22978SOL    HW286545  13.357   9.649   1.817  0.2857  0.5662  0.5276
22979SOL     OW86546   6.458   9.954   7.345 -0.0718 -0.5277  0.5133
22979SOL    HW186547   6.402   9.994   7.279 -0.3689  2.0876  2.2043
22979SOL    HW286548   6.546   9.959   7.308 -0.2685  0.6073  0.1847
22980SOL     OW86549   3.369  11.195   5.255 -0.3164 -0.4378  0.1158
22980SOL    HW186550   3.424  11.116   5.255 -1.8795 -1.5807 -0.1384
22980SOL    HW286551   3.339  11.203   5.165  1.0399  1.3873 -0.2191
22981SOL     OW86552   6.868   0.774   4.517 -0.4000 -0.0953  0.3479
22981SOL    HW186553   6.793   0.822   4.481  0.2058  0.9094  0.3832
22981SOL    HW286554   6.897   0.828   4.591  0.1098 -0.6822  0.5773
22982SOL     OW86555   8.884  10.602   0.741  0.0938  0.2965 -0.3115
22982SOL    HW186556   8.828  10.674   0.771  0.4953  0.0736  0.9989
22982SOL    HW286557   8.845  10.523   0.777  1.0336  0.1038  0.3220
22983SOL     OW86558   7.997   2.999   9.150  0.2700  0.1293 -0.0441
22983SOL    HW186559   7.997   3.030   9.241  1.1401  0.7177 -0.2378
22983SOL    HW286560   8.088   3.002   9.123 -0.0898  0.9111 -1.2622
22984SOL     OW86561   0.481  12.373  11.833  0.4706 -0.3203 -0.4043
22984SOL    HW186562   0.553  12.436  11.826  0.3194 -0.0137  0.6353
22984SOL    HW286563   0.498  12.310  11.763  0.1406  1.3522 -2.0747
22985SOL     OW86564   0.385   3.028   4.412 -0.0485  0.1334  0.0584
22985SOL    HW186565   0.316   3.005   4.350 -0.1725  2.6679 -0.8341
22985SOL    HW286566   0.456   2.966   4.391 -0.3738  0.4084 -2.1260
22986SOL     OW86567   6.597  12.848  11.540 -0.2715  0.8016  0.2828
22986SOL    HW186568   6.537  12.809  11.476 -0.9062  1.5882  0.3782
22986SOL    HW286569   6.556  12.832  11.625  0.4156  0.0291  0.4715
22987SOL     OW86570   1.083   3.224   4.751 -0.2877  0.4528  0.1361
22987SOL    HW186571   1.082   3.319   4.765 -1.2961  0.5573 -0.5078
22987SOL    HW286572   0.996   3.195   4.779 -0.5173 -0.0588 -1.0421
22988SOL     OW86573   0.113  13.877   3.388 -0.0959 -0.0618 -0.2327
22988SOL    HW186574   0.046  13.940   3.415  0.6265  0.9959 -0.8442
22988SOL    HW286575   0.096  13.800   3.441 -0.9213  0.6897  0.6305
22989SOL     OW86576   2.835   1.114  11.392 -0.1152  0.5121  0.1427
22989SOL    HW186577   2.846   1.138  11.484  0.9519  0.5985  0.0089
22989SOL    HW286578   2.780   1.183  11.355  1.7841  2.0796  0.0787
22990SOL     OW86579  13.278   4.816   5.256  0.8062 -0.1817  0.0562
22990SOL    HW186580  13.265   4.772   5.172  0.8849  1.0542 -0.6240
22990SOL    HW286581  13.205   4.877   5.262  2.3829  1.8669 -0.5443
22991SOL     OW86582   1.590  10.295  10.877 -0.1743  0.0644 -0.2023
22991SOL    HW186583   1.509  10.328  10.838  0.3146  0.2355 -1.1066
22991SOL    HW286584   1.648  10.371  10.882 -0.7190  0.4055  2.3231
22992SOL     OW86585  12.502   3.767   1.788 -0.2798  0.3042 -0.6150
22992SOL    HW186586  12.595   3.785   1.779  0.6697 -3.0475  0.9864
22992SOL    HW286587  12.476   3.732   1.703  0.1148  0.5136 -0.8244
22993SOL     OW86588   4.456   3.344   3.551 -0.2337 -0.2286 -0.3030
22993SOL    HW186589   4.376   3.391   3.530 -0.9284 -1.3341 -0.2005
22993SOL    HW286590   4.439   3.254   3.523  0.7356 -0.6121  0.2941
22994SOL     OW86591   5.214   0.486  11.871 -0.6732  0.0117 -0.0953
22994SOL    HW186592   5.139   0.482  11.931 -1.2676 -0.4038 -0.8426
22994SOL    HW286593   5.176   0.469  11.785 -0.0277  1.8429 -0.7715
22995SOL     OW86594   0.960  10.875   5.525  0.2259  0.2129  0.0461
22995SOL    HW186595   0.984  10.810   5.591 -0.0514  0.7498  0.6772
22995SOL    HW286596   0.941  10.955   5.574 -0.4876  0.4818 -0.6370
22996SOL     OW86597  13.266  10.756   5.260 -0.2976 -0.4783  0.0047
22996SOL    HW186598  13.314  10.832   5.227 -0.7958  0.0612  0.5173
22996SOL    HW286599  13.331  10.708   5.311  0.0908 -0.5530 -0.5479
22997SOL     OW86600   7.470   3.041  12.501 -0.0586  0.4529 -0.0102
22997SOL    HW186601   7.481   3.104  12.430  0.3777  0.2367 -0.1380
22997SOL    HW286602   7.410   2.976  12.465  0.2340  0.2938 -0.2157
22998SOL     OW86603  12.705  13.651   8.325  0.1798  0.5821 -0.3570
22998SOL    HW186604  12.750  13.606   8.254 -0.7213 -0.9041 -0.0114
22998SOL    HW286605  12.675  13.581   8.383 -0.9212  1.6549  0.4080
22999SOL     OW86606   6.192  12.414   7.172  0.5657 -0.0015  0.0335
22999SOL    HW186607   6.125  12.441   7.109  1.7254  0.2583 -1.1499
22999SOL    HW286608   6.226  12.332   7.136  0.2167 -0.6505  1.1477
23000SOL     OW86609  11.729   9.859   1.926 -0.1473 -0.4524  0.0370
23000SOL    HW186610  11.717   9.766   1.947 -0.3414 -0.4914 -0.2328
23000SOL    HW286611  11.716   9.904   2.010 -1.5433 -0.5549 -0.0916
23001SOL     OW86612   8.140   8.735   3.203  0.5759 -0.3688  0.3484
23001SOL    HW186613   8.095   8.797   3.261 -0.6238 -1.6486  0.8404
23001SOL    HW286614   8.133   8.775   3.116  0.2289  0.4029  0.7178
23002SOL     OW86615  11.185  12.232   0.448  0.1802  0.2403  0.4392
23002SOL    HW186616  11.159  12.199   0.362 -1.0118 -0.0835  0.9081
23002SOL    HW286617  11.237  12.160   0.486 -1.1433 -0.5222  0.8556
23003SOL     OW86618   2.814   8.046   9.751 -0.1023  0.1898  0.8429
23003SOL    HW186619   2.754   8.040   9.677  1.1002 -0.2908 -0.1163
23003SOL    HW286620   2.890   8.092   9.716  1.4038 -1.9430  1.1500
23004SOL     OW86621  12.568   3.026   8.875 -0.1995  0.8801  0.4310
23004SOL    HW186622  12.481   3.025   8.835  0.0546  0.2841 -0.1296
23004SOL    HW286623  12.626   3.058   8.805  0.3397 -0.7314  0.1121
23005SOL     OW86624   2.051   3.978   9.064 -1.3132 -0.1882 -0.2499
23005SOL    HW186625   2.074   4.049   9.003  1.4574  1.3990  2.3487
23005SOL    HW286626   2.098   3.902   9.031  0.1152  0.6296 -0.1801
23006SOL     OW86627   7.355   1.724   0.932  0.2736  0.0488 -0.0935
23006SOL    HW186628   7.438   1.758   0.899 -0.3391  1.7507  0.0134
23006SOL    HW286629   7.345   1.639   0.889  2.4536 -0.6081  0.5451
23007SOL     OW86630  10.007   9.708   9.033 -0.2332  0.4068 -0.2902
23007SOL    HW186631  10.077   9.677   9.089  0.2586  0.5845 -0.7919
23007SOL    HW286632   9.927   9.691   9.082  0.2244  1.1872  0.7638
23008SOL     OW86633   0.832   6.427   3.741  0.4175 -0.2112 -0.4697
23008SOL    HW186634   0.824   6.480   3.820  1.0502 -1.5148  0.4954
23008SOL    HW286635   0.919   6.387   3.747  0.4909 -0.3111 -1.8510
23009SOL     OW86636   7.451  11.665   3.525  0.0438  0.5727 -0.1891
23009SOL    HW186637   7.489  11.733   3.470 -0.0386  1.7543  1.1512
23009SOL    HW286638   7.429  11.709   3.607 -4.6910  0.1367 -0.9660
23010SOL     OW86639   2.962  13.953   3.797 -0.7186  0.9250  0.1250
23010SOL    HW186640   2.925  13.882   3.745 -0.7123  1.1592 -0.2016
23010SOL    HW286641   3.015  13.908   3.864 -1.5594  0.5945  0.5789
23011SOL     OW86642   3.709  12.420   1.168 -0.0971 -0.1404 -0.1022
23011SOL    HW186643   3.680  12.469   1.090 -0.2019 -0.0261  0.0090
23011SOL    HW286644   3.677  12.331   1.153  0.7459 -0.3711 -0.6694
23012SOL     OW86645   5.192   1.773   8.618  0.2014 -0.0370  0.2498
23012SOL    HW186646   5.172   1.706   8.683 -0.4952 -0.2680 -0.1918
23012SOL    HW286647   5.175   1.731   8.534 -2.2641  1.2763 -0.0033
23013SOL     OW86648   5.940   5.989   0.338 -0.2981  0.0115  0.1010
23013SOL    HW186649   5.932   6.047   0.414  1.3362 -0.1967  0.4636
23013SOL    HW286650   5.940   5.901   0.374 -2.8634 -0.3125 -0.4603
23014SOL     OW86651   8.589   1.331   7.351  0.3243  0.1207  0.0819
23014SOL    HW186652   8.593   1.350   7.445 -0.5220  1.5616 -0.1447
23014SOL    HW286653   8.498   1.305   7.335  0.7997 -1.5293 -0.1219
23015SOL     OW86654   0.587   1.805   6.401 -0.2182 -0.1800 -0.6791
23015SOL    HW186655   0.517   1.816   6.465 -0.7771 -2.0920 -0.9241
23015SOL    HW286656   0.668   1.809   6.453 -0.4909  1.3777 -0.3153
23016SOL     OW86657   5.068   4.983  12.052 -0.3802 -0.0952  0.1713
23016SOL    HW186658   5.087   5.075  12.072  1.1046 -0.3363 -0.0227
23016SOL    HW286659   5.112   4.967  11.969 -1.1804 -0.8107 -0.1241
23017SOL     OW86660   1.538   0.954   4.947 -0.4785 -0.3798 -0.1224
23017SOL    HW186661   1.584   0.871   4.938  0.2830  0.0770 -0.5754
23017SOL    HW286662   1.456   0.941   4.899 -0.9426 -1.2714  0.8764
23018SOL     OW86663  11.247   2.120   8.451  0.0194 -0.4778  0.0579
23018SOL    HW186664  11.196   2.176   8.392  0.5378  0.1190  0.1711
23018SOL    HW286665  11.335   2.120   8.415  0.9248  1.7318  2.0208
23019SOL     OW86666   5.240   0.110   6.160  0.9620  0.2189  0.6148
23019SOL    HW186667   5.307   0.130   6.094  1.3025  0.3328  0.9910
23019SOL    HW286668   5.259   0.020   6.186 -0.8280 -0.8204 -1.3848
23020SOL     OW86669   9.018   0.870  11.245 -0.1047 -0.1573  0.2068
23020SOL    HW186670   9.096   0.859  11.192  1.4348 -3.1087  2.7183
23020SOL    HW286671   9.051   0.895  11.332 -2.1653  0.8316  0.7811
23021SOL     OW86672   6.284  14.085   4.654  0.4214 -0.5511 -0.4479
23021SOL    HW186673   6.330  14.073   4.737 -1.7818  0.1126  0.9831
23021SOL    HW286674   6.221  14.012   4.652  0.2050 -0.3469 -1.3631
23022SOL     OW86675   1.291  12.261  10.614 -0.2421 -0.2091 -0.0042
23022SOL    HW186676   1.225  12.318  10.653  0.4747  0.0913  0.8063
23022SOL    HW286677   1.245  12.180  10.594 -0.8785  0.0306  0.4597
23023SOL     OW86678   4.375  10.563   4.772  0.3160  0.1385  0.5024
23023SOL    HW186679   4.424  10.629   4.723 -1.1287  1.1528  0.3806
23023SOL    HW286680   4.428  10.483   4.764  2.3068  1.3320  0.9819
23024SOL     OW86681   3.530   0.092   0.346  0.5469  0.1129 -0.2101
23024SOL    HW186682   3.447   0.100   0.392  0.2881 -1.0775 -0.4304
23024SOL    HW286683   3.523   0.152   0.272  0.8518  1.8216  1.0999
23025SOL     OW86684   3.777  10.004   6.318 -0.3333 -0.5113 -0.4774
23025SOL    HW186685   3.865  10.007   6.281 -0.0315  0.3354  0.2820
23025SOL    HW286686   3.725   9.957   6.252  0.3767  0.1601 -1.5561
23026SOL     OW86687   4.631   4.026   2.758 -0.3114 -0.0925 -0.2597
23026SOL    HW186688   4.539   4.004   2.741 -0.7349  0.8412  0.6867
23026SOL    HW286689   4.639   4.118   2.731  0.6975 -0.5276 -1.5495
23027SOL     OW86690   5.737   8.991  11.947  0.7375 -0.1092  0.4223
23027SOL    HW186691   5.776   9.078  11.939  1.7067 -0.6171 -0.8807
23027SOL    HW286692   5.643   9.005  11.940  0.7133  1.0225  2.3054
23028SOL     OW86693   5.012   4.110   9.594  0.1054 -0.7097  0.1009
23028SOL    HW186694   4.932   4.096   9.544 -2.3574  0.1082  3.4609
23028SOL    HW286695   5.027   4.027   9.639  2.8840 -1.7879 -2.4951
23029SOL     OW86696   1.122   2.129   1.472 -0.1156 -0.0194 -0.0805
23029SOL    HW186697   1.035   2.167   1.458 -0.9585 -1.7693  0.1001
23029SOL    HW286698   1.156   2.115   1.384 -0.7411 -0.8343 -0.2092
23030SOL     OW86699  10.268  13.044   8.294  0.1310 -0.1480 -0.7961
23030SOL    HW186700  10.263  12.984   8.220 -0.8600  0.9909 -1.6973
23030SOL    HW286701  10.193  13.021   8.349  0.0241 -0.0408 -0.8974
23031SOL     OW86702   7.053   7.148  13.135  0.2296  0.2555  0.6267
23031SOL    HW186703   7.063   7.053  13.144 -1.1383  0.0992  0.8075
23031SOL    HW286704   7.140   7.180  13.113  0.2513 -1.3394 -1.9229
23032SOL     OW86705  11.363   5.969  11.820  0.5131  0.0884  0.3903
23032SOL    HW186706  11.292   6.032  11.829  0.2344 -0.1688  0.0257
23032SOL    HW286707  11.330   5.890  11.863  0.0954 -0.4144 -0.8135
23033SOL     OW86708   0.472   1.543  11.268  0.5612 -0.3870  0.0458
23033SOL    HW186709   0.535   1.598  11.316 -1.6728  0.9643  1.6213
23033SOL    HW286710   0.485   1.566  11.176  1.9184  0.2891  0.3729
23034SOL     OW86711  11.384   4.360   6.419 -0.5517 -0.1624 -0.4272
23034SOL    HW186712  11.447   4.317   6.477 -2.3772  0.7090  2.3674
23034SOL    HW286713  11.303   4.309   6.430 -2.1551  2.5458  1.2940
23035SOL     OW86714   7.698  11.939  12.067 -0.1429 -0.1743 -0.2297
23035SOL    HW186715   7.636  11.994  12.019 -1.1791 -0.9841  0.1319
23035SOL    HW286716   7.668  11.849  12.051  1.0750 -0.6049 -0.2223
23036SOL     OW86717   3.320  11.882  10.446 -0.3797 -0.2874 -0.1109
23036SOL    HW186718   3.268  11.817  10.492 -1.7072 -0.5474 -1.8937
23036SOL    HW286719   3.368  11.833  10.379 -0.1735  0.3419 -0.4377
23037SOL     OW86720   2.366  12.822   7.116  0.1101  0.1007  0.2729
23037SOL    HW186721   2.445  12.804   7.065 -1.0561 -2.7948 -0.7435
23037SOL    HW286722   2.297  12.831   7.051 -0.9628 -1.0073  1.1901
23038SOL     OW86723   0.804   4.806  11.479 -0.5893  0.7859  0.7315
23038SOL    HW186724   0.829   4.797  11.388 -2.4232  0.3536  0.2297
23038SOL    HW286725   0.867   4.869  11.515  1.0393 -0.1071 -0.4237
23039SOL     OW86726   2.935  13.148   3.017 -0.5444  0.1815 -0.0557
23039SOL    HW186727   3.021  13.153   2.974 -0.6490  1.7205 -0.1379
23039SOL    HW286728   2.882  13.215   2.974 -0.9938  1.0110  1.6878
23040SOL     OW86729   9.998   1.403   7.498 -0.2973  0.3333  0.8158
23040SOL    HW186730  10.057   1.355   7.556  0.2929 -0.8033 -0.6625
23040SOL    HW286731  10.048   1.479   7.470  0.4310 -0.5068 -0.2521
23041SOL     OW86732   2.313   9.410   9.090 -0.3487 -0.0819  0.2635
23041SOL    HW186733   2.275   9.331   9.127  1.3876  0.2255  3.0255
23041SOL    HW286734   2.255   9.480   9.120 -1.3724 -0.1513 -1.4137
23042SOL     OW86735  11.770  10.490   4.442  0.1855 -0.3687  0.4732
23042SOL    HW186736  11.693  10.547   4.451 -0.8772 -1.4879 -0.9430
23042SOL    HW286737  11.804  10.510   4.355  0.2831 -1.3068  0.2900
23043SOL     OW86738  12.651   1.111   1.732 -0.3609 -0.0214  0.4757
23043SOL    HW186739  12.567   1.076   1.700  0.9767 -0.9562 -2.3391
23043SOL    HW286740  12.675   1.178   1.668  0.8670  0.5378  1.4724
23044SOL     OW86741   1.064   2.321   0.237 -0.3283  0.2400 -0.1662
23044SOL    HW186742   1.024   2.315   0.150 -0.8669  3.9446 -0.3378
23044SOL    HW286743   1.150   2.360   0.221 -0.2918  0.6414  0.9201
23045SOL     OW86744   5.492   0.590   4.300  0.1803  0.2419 -0.4121
23045SOL    HW186745   5.528   0.550   4.379 -0.0378  1.2343  0.2070
23045SOL    HW286746   5.422   0.530   4.273  0.0285  0.0623  0.3454
23046SOL     OW86747   5.287  12.195   2.212 -0.1123 -0.6471 -0.1529
23046SOL    HW186748   5.377  12.207   2.182 -0.2851 -1.1345 -0.8782
23046SOL    HW286749   5.286  12.233   2.300  1.2882 -2.3221  0.6504
23047SOL     OW86750   1.966   3.688   2.551 -0.9321 -0.2316 -0.0034
23047SOL    HW186751   1.973   3.751   2.623  0.5690 -0.0658 -0.2552
23047SOL    HW286752   1.979   3.603   2.593  0.6409 -0.0905 -0.1196
23048SOL     OW86753   3.534   6.978   7.124 -0.0330  0.5209 -0.2833
23048SOL    HW186754   3.591   6.907   7.095  0.3248  0.9538 -0.6388
23048SOL    HW286755   3.461   6.933   7.167 -0.1763 -0.0979 -1.1417
23049SOL     OW86756   4.953  10.391  12.050 -0.3456  0.0604 -0.1588
23049SOL    HW186757   4.896  10.457  12.010  0.1394  0.4643 -0.1853
23049SOL    HW286758   4.892  10.322  12.079 -0.8680  0.5802  0.0057
23050SOL     OW86759  12.284   2.846   5.679 -0.3711 -0.1203  0.7901
23050SOL    HW186760  12.197   2.885   5.675 -0.3302  0.0716  1.5962
23050SOL    HW286761  12.308   2.850   5.772  0.5145 -0.1383  0.5689
23051SOL     OW86762   1.569   3.612  12.359 -0.2380 -0.1943 -0.8198
23051SOL    HW186763   1.605   3.642  12.443 -3.2969  0.3978  0.4357
23051SOL    HW286764   1.561   3.518  12.369  1.8866 -0.4994 -1.5735
23052SOL     OW86765   1.021   3.868  10.338 -0.8157 -0.0333  0.4295
23052SOL    HW186766   1.021   3.845  10.431 -1.0220 -1.7766  0.0371
23052SOL    HW286767   1.072   3.797  10.297  1.0821  1.8000 -0.5563
23053SOL     OW86768   3.794   3.235  11.309 -0.0737 -0.4222 -0.6739
23053SOL    HW186769   3.856   3.170  11.341  1.8780 -0.6966 -4.5113
23053SOL    HW286770   3.844   3.316  11.305 -1.3383  0.4615  0.2851
23054SOL     OW86771   4.593   7.144   3.499 -0.2077  0.0843 -0.0581
23054SOL    HW186772   4.522   7.207   3.488  0.1906  0.3931 -0.9265
23054SOL    HW286773   4.666   7.181   3.449  0.1813 -0.8258 -0.1749
23055SOL     OW86774   5.435  11.405  10.310 -0.2197 -0.4026 -0.3814
23055SOL    HW186775   5.437  11.449  10.225  0.1454  0.6389  0.1584
23055SOL    HW286776   5.370  11.453  10.360  1.7719  1.0298  0.9858
23056SOL     OW86777  13.332  13.201  11.984  0.2569 -0.1610 -0.0867
23056SOL    HW186778  13.323  13.110  12.012 -0.7703  0.0824  0.4066
23056SOL    HW286779  13.251  13.220  11.937 -0.2284  0.9470  1.1364
23057SOL     OW86780   3.578  13.510  13.602  0.1630 -0.0722  0.2165
23057SOL    HW186781   3.596  13.514  13.696  0.3331 -1.0636  0.2373
23057SOL    HW286782   3.656  13.471  13.564 -0.0645 -0.0373 -0.2917
23058SOL     OW86783   0.633   0.079   1.218 -0.0862 -0.4117  0.0112
23058SOL    HW186784   0.546   0.050   1.244 -0.0164  0.2475  1.0332
23058SOL    HW286785   0.655   0.148   1.280  1.6989 -1.4395  0.6086
23059SOL     OW86786  10.806   0.125   3.480  0.4437 -0.4973 -0.5030
23059SOL    HW186787  10.777   0.136   3.571  1.7032  0.9432 -0.2442
23059SOL    HW286788  10.764   0.197   3.433  1.8351  0.3242 -0.5362
23060SOL     OW86789   1.012  13.929   0.964 -1.1127 -1.2447  0.1474
23060SOL    HW186790   1.075  13.890   1.025 -1.6325 -3.0133 -0.3777
23060SOL    HW286791   0.963  13.992   1.017  1.3639  0.5901  0.4629
23061SOL     OW86792   7.976   5.276  12.992 -0.1162  0.1723 -0.3335
23061SOL    HW186793   8.021   5.350  13.031  1.3223 -1.3759  1.0840
23061SOL    HW286794   7.919   5.243  13.062  0.6982 -1.1842 -0.2702
23062SOL     OW86795   2.713   6.278  10.851  0.5149 -0.3192  0.0315
23062SOL    HW186796   2.742   6.369  10.856 -1.7267  0.5499 -1.3129
23062SOL    HW286797   2.621   6.283  10.825 -0.4146 -2.9169  2.2891
23063SOL     OW86798   1.147   3.799  11.526 -0.0288 -0.0635 -0.0935
23063SOL    HW186799   1.111   3.840  11.604  1.0965 -0.1851  0.5049
23063SOL    HW286800   1.240   3.788  11.545  0.3651  0.3144 -1.6211
23064SOL     OW86801  12.693   4.219  12.941  0.4323 -0.0375  0.0713
23064SOL    HW186802  12.695   4.279  12.866 -0.9033 -0.0368  0.0181
23064SOL    HW286803  12.784   4.213  12.969  1.0242 -0.3384 -1.7896
23065SOL     OW86804   4.249  10.602   9.688 -0.1047 -0.2878 -0.3964
23065SOL    HW186805   4.299  10.552   9.624 -2.7979  0.2652 -3.1585
23065SOL    HW286806   4.245  10.691   9.651 -2.0154 -0.0324  0.3152
23066SOL     OW86807   7.313   7.987   2.833 -0.1349  0.1750  0.1681
23066SOL    HW186808   7.339   8.033   2.913  0.8405  2.0614 -1.1564
23066SOL    HW286809   7.389   7.994   2.775 -0.7922 -1.2046 -0.9290
23067SOL     OW86810  11.661   8.013   2.785 -0.3310 -0.5285  0.8782
23067SOL    HW186811  11.728   8.076   2.759 -0.6477 -1.0398 -1.3441
23067SOL    HW286812  11.631   8.044   2.870  0.7568  1.2987  0.6410
23068SOL     OW86813  10.314  12.174   3.444  0.0425 -0.0846  0.0385
23068SOL    HW186814  10.310  12.269   3.441  0.2186 -0.0873 -0.6489
23068SOL    HW286815  10.377  12.154   3.513 -0.4377  0.2815  0.5822
23069SOL     OW86816  12.427   5.935  12.546 -0.5090  0.1740  0.9765
23069SOL    HW186817  12.375   6.011  12.572  0.4498  1.1639  0.1143
23069SOL    HW286818  12.517   5.967  12.546 -0.1837 -0.6736 -0.3518
23070SOL     OW86819   0.431   0.838   9.100 -0.1284  0.0299 -0.1390
23070SOL    HW186820   0.501   0.900   9.081  0.0033  0.5075  1.7448
23070SOL    HW286821   0.366   0.890   9.147 -1.7671 -0.4171 -1.7965
23071SOL     OW86822   0.108   1.390   6.179  0.2960 -0.1368 -0.1915
23071SOL    HW186823   0.184   1.341   6.146  0.8498  0.3458  0.3645
23071SOL    HW286824   0.046   1.322   6.205  1.3927 -0.5815  1.3750
23072SOL     OW86825   3.987   8.297  10.182  0.4197  0.2905 -0.5093
23072SOL    HW186826   3.899   8.269  10.204  0.7666 -0.6733 -0.2745
23072SOL    HW286827   3.991   8.289  10.086  0.4995 -0.4640 -0.4501
23073SOL     OW86828   9.731   7.212  12.313  0.3008  0.7834 -0.4257
23073SOL    HW186829   9.736   7.146  12.382 -2.2558 -0.6436 -1.4556
23073SOL    HW286830   9.755   7.294  12.356 -1.0896 -0.0597  2.1392
23074SOL     OW86831   5.879   3.387  11.671 -0.2639  0.1178 -0.5655
23074SOL    HW186832   5.848   3.462  11.721 -0.4523  1.1561 -2.1564
23074SOL    HW286833   5.969   3.409  11.648  0.4709 -1.2138  0.8997
23075SOL     OW86834   6.467   0.187   6.857  0.4303  0.3543 -0.3960
23075SOL    HW186835   6.450   0.098   6.827  0.6565 -0.4074  1.5886
23075SOL    HW286836   6.487   0.236   6.777 -0.8364 -1.0841 -1.6662
23076SOL     OW86837   6.934   1.005   6.154 -0.0919 -0.1373 -0.4001
23076SOL    HW186838   6.973   0.997   6.067 -0.7303  0.7343 -0.7896
23076SOL    HW286839   7.008   1.016   6.213  0.2903  0.6852 -1.0164
23077SOL     OW86840   7.621   3.872   9.521 -0.6266 -0.3402 -0.1058
23077SOL    HW186841   7.580   3.863   9.434  2.0409  0.3580 -1.5496
23077SOL    HW286842   7.577   3.947   9.560 -2.2045 -0.9431 -0.6131
23078SOL     OW86843   8.072   6.659   2.438 -0.3979 -0.0947  0.0494
23078SOL    HW186844   8.036   6.619   2.517 -1.6674  1.9874  0.6136
23078SOL    HW286845   8.155   6.697   2.466  0.3657 -1.4678 -0.2676
23079SOL     OW86846  13.794   2.274   8.057  0.2914  0.4677 -0.2422
23079SOL    HW186847  13.819   2.362   8.086 -0.4543  0.5646  0.1185
23079SOL    HW286848  13.699   2.276   8.051  0.3657  0.2420 -2.0853
23080SOL     OW86849   1.331  12.872   3.321  0.0744  0.0429 -0.7042
23080SOL    HW186850   1.421  12.890   3.347 -0.4194  2.2644 -0.3388
23080SOL    HW286851   1.280  12.883   3.402 -0.5231 -1.3644 -0.8621
23081SOL     OW86852   3.068  12.145   4.371  0.4416 -0.7054 -0.0425
23081SOL    HW186853   3.049  12.236   4.393 -0.2597 -0.3610 -1.8966
23081SOL    HW286854   3.060  12.098   4.454  2.5265  1.1323  1.3003
23082SOL     OW86855   4.491  10.994   9.319  0.0958 -0.2606  0.2350
23082SOL    HW186856   4.475  10.928   9.386 -1.9677  0.2722  0.3508
23082SOL    HW286857   4.458  11.075   9.357  1.4841  0.6326 -0.3656
23083SOL     OW86858   7.763  12.255   5.285 -0.3649 -0.5709  0.1719
23083SOL    HW186859   7.784  12.180   5.340  1.9979 -1.2466 -1.4863
23083SOL    HW286860   7.668  12.265   5.294 -0.6246 -3.1048  1.2580
23084SOL     OW86861   7.550   2.798   9.175  0.3287  0.1503 -0.1870
23084SOL    HW186862   7.521   2.713   9.142  2.1422 -0.8203  0.5215
23084SOL    HW286863   7.498   2.812   9.254 -2.3256  1.3455 -2.0039
23085SOL     OW86864   0.652   7.821   3.483  0.0647 -0.2404 -0.1720
23085SOL    HW186865   0.579   7.764   3.457 -1.5748  1.3726  0.6994
23085SOL    HW286866   0.712   7.817   3.409 -1.7262 -0.3096 -1.7056
23086SOL     OW86867   3.389   7.890  11.959  0.3368 -0.1659  0.8442
23086SOL    HW186868   3.351   7.842  12.033  1.4697  1.1643  2.3831
23086SOL    HW286869   3.337   7.971  11.954  0.8835  0.1861  0.8194
23087SOL     OW86870   2.549   4.730   1.198 -0.4385  0.4976 -0.2011
23087SOL    HW186871   2.517   4.808   1.244  2.1616  0.8352  1.2441
23087SOL    HW286872   2.527   4.658   1.256  0.6788  0.6631  0.4766
23088SOL     OW86873  12.080  12.435   5.675  0.2077  0.0689  0.3240
23088SOL    HW186874  11.986  12.438   5.690 -0.0314 -0.1743 -0.9818
23088SOL    HW286875  12.103  12.525   5.653  0.5915  0.4667  2.1651
23089SOL     OW86876   9.820   1.565   7.151  0.0735  0.1060 -0.0029
23089SOL    HW186877   9.875   1.493   7.122 -1.7444 -1.1826 -0.3988
23089SOL    HW286878   9.874   1.643   7.136  1.7995 -1.0696 -0.2784
23090SOL     OW86879   7.893   7.111   1.531 -0.0224 -0.0239  0.2871
23090SOL    HW186880   7.830   7.051   1.571 -0.4026 -1.6985 -2.5412
23090SOL    HW286881   7.976   7.090   1.573 -0.1013 -2.7717 -0.6919
23091SOL     OW86882  11.285   3.201   6.300 -0.3196 -0.0695 -0.2219
23091SOL    HW186883  11.333   3.173   6.222  0.3242 -1.0965  0.5154
23091SOL    HW286884  11.193   3.190   6.277 -0.1833  0.7534 -1.2316
23092SOL     OW86885   0.798   2.935   6.802  0.9170 -0.3739 -0.2058
23092SOL    HW186886   0.826   2.858   6.753  0.8011 -0.0614 -0.7778
23092SOL    HW286887   0.846   3.007   6.762 -0.1736  0.0802 -0.7660
23093SOL     OW86888   7.395  13.552   2.310 -0.5128 -0.3203 -0.0593
23093SOL    HW186889   7.333  13.529   2.241  2.4243 -0.7901 -2.7335
23093SOL    HW286890   7.445  13.625   2.274  1.8496 -1.2831  1.0835
23094SOL     OW86891  11.402   8.197  11.526 -0.4169  0.0631  0.2385
23094SOL    HW186892  11.434   8.173  11.439  0.5082  0.2793  0.4988
23094SOL    HW286893  11.341   8.269  11.511  0.5326  0.8084 -0.1625
23095SOL     OW86894   9.364   3.589  10.632 -0.2417 -0.4945  0.1278
23095SOL    HW186895   9.323   3.554  10.553 -2.5589 -1.2239  1.5691
23095SOL    HW286896   9.328   3.678  10.640  0.1701 -0.3364  0.2617
23096SOL     OW86897  10.287  10.326   0.295 -0.0091  0.3825 -0.0709
23096SOL    HW186898  10.285  10.399   0.233  0.5926  0.6412  0.2043
23096SOL    HW286899  10.258  10.364   0.378  0.3639  0.3224  0.0879
23097SOL     OW86900  12.200   0.597   8.171  0.1933  0.4919  0.7080
23097SOL    HW186901  12.134   0.614   8.103  0.0329 -1.0556  0.4338
23097SOL    HW286902  12.200   0.676   8.225 -0.2289  1.4515 -0.6378
23098SOL     OW86903   9.243  11.111  11.085  0.1355 -0.9367  0.9300
23098SOL    HW186904   9.213  11.186  11.137 -0.0117 -1.0527  1.0127
23098SOL    HW286905   9.304  11.149  11.022 -0.6368 -0.5918  0.3683
23099SOL     OW86906  10.216   7.828   2.508  0.1449 -0.1674  0.2137
23099SOL    HW186907  10.307   7.806   2.490 -0.6940 -1.5981 -3.0027
23099SOL    HW286908  10.210   7.922   2.493  0.7680 -0.3576 -1.4178
23100SOL     OW86909  12.819  12.234   4.550  0.2353 -0.2027  0.0586
23100SOL    HW186910  12.877  12.296   4.506 -0.3304  0.0244 -0.3694
23100SOL    HW286911  12.734  12.245   4.508 -0.0144 -0.8600  0.3697
23101SOL     OW86912   5.026   6.970  12.148 -0.5516 -0.2791  0.0320
23101SOL    HW186913   5.024   7.058  12.186 -1.6205 -1.3470  2.6812
23101SOL    HW286914   4.941   6.959  12.106 -0.9867 -0.4940  0.9336
23102SOL     OW86915   8.831   7.988   6.098 -0.4064  0.6788 -0.4871
23102SOL    HW186916   8.740   8.014   6.083 -0.1594  1.7636 -0.1865
23102SOL    HW286917   8.880   8.070   6.096  0.8494 -0.0418 -2.4957
23103SOL     OW86918   4.088   2.004   2.977  0.5900  0.2115  0.3152
23103SOL    HW186919   4.170   1.955   2.977 -0.1329 -1.0995 -1.2646
23103SOL    HW286920   4.096   2.065   3.051  3.5217  1.1292 -0.6370
23104SOL     OW86921   2.222  10.546   8.749 -0.1109  0.0281 -0.0239
23104SOL    HW186922   2.191  10.537   8.659  1.1720  0.8527 -0.5679
23104SOL    HW286923   2.314  10.521   8.746 -0.1374 -0.2776  1.1379
23105SOL     OW86924  11.928   0.584   0.271 -0.3563  0.5530 -0.5537
23105SOL    HW186925  11.937   0.661   0.328 -0.7717  0.9024 -0.9455
23105SOL    HW286926  12.012   0.539   0.277 -0.1670  0.9502 -0.1863
23106SOL     OW86927   1.211   6.324  10.507  0.3328 -0.2787  0.2045
23106SOL    HW186928   1.234   6.280  10.426 -1.9282 -2.9156  0.8056
23106SOL    HW286929   1.237   6.263  10.576 -0.4793  0.5223  1.2690
23107SOL     OW86930   6.724   8.600  14.030  0.0443  0.3253  0.1929
23107SOL    HW186931   6.777   8.675  14.057 -0.2557  0.5381  0.1951
23107SOL    HW286932   6.787   8.530  14.017  0.3009  0.5036  0.4537
23108SOL     OW86933  12.215   7.553  10.610  0.4547 -0.2732  0.4527
23108SOL    HW186934  12.246   7.603  10.685  1.0554 -0.9429  0.6573
23108SOL    HW286935  12.281   7.566  10.542  0.3195 -0.3210  0.3097
23109SOL     OW86936   0.463   9.043   9.154 -1.0269  0.3232  0.0340
23109SOL    HW186937   0.453   8.999   9.239 -2.1291  2.4132  1.0725
23109SOL    HW286938   0.419   8.985   9.092 -0.4174 -1.1335  0.9231
23110SOL     OW86939  12.139   5.109   3.444  0.2374  0.2770 -0.6704
23110SOL    HW186940  12.048   5.137   3.440  0.0766 -0.2261 -0.6310
23110SOL    HW286941  12.141   5.026   3.396  0.5232 -0.0944 -0.0391
23111SOL     OW86942  11.241   0.269   7.511  0.1740  0.1366  0.4097
23111SOL    HW186943  11.178   0.255   7.581  0.0696  0.5238  0.3937
23111SOL    HW286944  11.324   0.235   7.546  0.5272  1.8731  1.3980
23112SOL     OW86945   7.846   1.406  12.999  0.2420 -0.1291  0.9016
23112SOL    HW186946   7.933   1.444  13.007 -0.5452  2.4728 -1.1130
23112SOL    HW286947   7.813   1.439  12.915 -2.1299 -2.2493  0.8494
23113SOL     OW86948   5.940   1.995   3.314 -0.5772 -0.2598 -0.1465
23113SOL    HW186949   5.910   1.957   3.232  0.8814 -0.6617 -0.5260
23113SOL    HW286950   5.908   2.085   3.312 -0.8885 -0.3846 -0.9850
23114SOL     OW86951   8.606  10.221  12.215 -0.2685 -0.4395  0.4797
23114SOL    HW186952   8.673  10.158  12.243  0.5370  0.3538  0.3648
23114SOL    HW286953   8.617  10.295  12.275 -1.4537 -0.5435  0.8447
23115SOL     OW86954   1.982  13.731  12.635  0.4197 -0.3120 -0.0607
23115SOL    HW186955   1.953  13.655  12.584 -0.9727  0.8820 -1.1524
23115SOL    HW286956   1.905  13.754  12.689  1.2904 -0.4866  1.3177
23116SOL     OW86957   5.563   6.348  12.322 -0.7061 -0.8476 -0.0073
23116SOL    HW186958   5.647   6.316  12.289 -0.5296 -1.3669  0.9014
23116SOL    HW286959   5.576   6.356  12.416 -1.9073 -1.6732  0.2499
23117SOL     OW86960   7.193   7.062   0.054 -0.4405  0.0666 -0.2682
23117SOL    HW186961   7.154   7.098   0.134  0.6747  0.7645 -0.0088
23117SOL    HW286962   7.285   7.046   0.078 -0.2296 -0.2330 -1.2483
23118SOL     OW86963   2.367   3.501   9.260 -0.2864 -0.1779  0.3005
23118SOL    HW186964   2.334   3.466   9.342 -0.0971  2.0200  1.3850
23118SOL    HW286965   2.293   3.548   9.222  0.6490  2.3899  1.3756
23119SOL     OW86966   9.941  12.219  10.680  0.2710  0.5111  0.4119
23119SOL    HW186967   9.922  12.142  10.733  0.5317  1.7939  2.4856
23119SOL    HW286968  10.028  12.201  10.642  0.5257 -0.0319  1.2358
23120SOL     OW86969   1.623  12.643   9.775  0.2447 -0.1300  0.3025
23120SOL    HW186970   1.718  12.643   9.770  0.3068  2.4915  0.3725
23120SOL    HW286971   1.595  12.589   9.701  1.7670  0.2457 -0.5839
23121SOL     OW86972   5.479  13.517  10.069 -0.2604  0.4364 -0.2670
23121SOL    HW186973   5.405  13.525  10.009 -2.1020 -0.2487  1.7828
23121SOL    HW286974   5.481  13.601  10.115  0.5768  0.6344 -0.6515
23122SOL     OW86975   2.523   8.644   4.464  0.3729  0.5557  0.2884
23122SOL    HW186976   2.559   8.611   4.547 -0.2342  0.3237  0.4611
23122SOL    HW286977   2.432   8.615   4.464  0.1872  1.1316 -0.1590
23123SOL     OW86978   7.486   8.625   7.610  0.4270 -0.1092  0.4827
23123SOL    HW186979   7.452   8.713   7.592 -0.2156 -0.5382 -0.5046
23123SOL    HW286980   7.508   8.626   7.703  0.0867  0.9835  0.5627
23124SOL     OW86981   0.338  11.072   2.666  0.4523 -0.2405 -0.3386
23124SOL    HW186982   0.364  11.134   2.597  1.5065  0.7460  0.9098
23124SOL    HW286983   0.339  11.123   2.746 -2.8730 -0.8072  0.2236
23125SOL     OW86984   1.208  12.404  11.979  0.0380 -0.1675  0.5748
23125SOL    HW186985   1.125  12.438  11.946 -0.2409 -0.5572  0.8641
23125SOL    HW286986   1.250  12.478  12.022  1.3732  0.9634 -2.3807
23126SOL     OW86987   1.468   9.947   9.773  0.1667 -0.0556  0.5290
23126SOL    HW186988   1.556   9.956   9.736 -0.2787  0.4762 -0.4495
23126SOL    HW286989   1.440   9.859   9.747 -0.1481  0.3172 -0.4717
23127SOL     OW86990  10.286   2.555   5.098  0.0813  0.5026 -0.3887
23127SOL    HW186991  10.318   2.590   5.014 -0.6720 -0.1502 -0.9585
23127SOL    HW286992  10.331   2.471   5.107 -1.5576 -0.5127 -1.2861
23128SOL     OW86993  13.836   1.250   6.001 -0.2515 -0.2182  0.1583
23128SOL    HW186994  13.906   1.210   6.053  0.6150  3.2964  2.0161
23128SOL    HW286995  13.757   1.236   6.053 -0.0988 -0.1426  0.4110
23129SOL     OW86996   1.359   5.372  12.967  0.1128 -0.2731  0.4047
23129SOL    HW186997   1.279   5.424  12.960  0.5978  0.5007  0.4812
23129SOL    HW286998   1.334   5.284  12.937 -0.2766  0.4591 -1.4996
23130SOL     OW86999   4.964   8.475   2.848 -0.1978  0.2239  0.2562
23130SOL    HW187000   5.035   8.484   2.912 -1.9966  0.6720  2.2731
23130SOL    HW287001   5.000   8.515   2.768  2.3982 -1.0409  0.6690
23131SOL     OW87002   0.372   5.764  12.198 -0.5767 -0.5697  0.5215
23131SOL    HW187003   0.296   5.815  12.167 -0.0170  0.5627  0.9673
23131SOL    HW287004   0.368   5.683  12.147  0.1534  1.0890 -2.4424
23132SOL     OW87005  12.822   5.900   6.450 -0.2364  0.1457  0.1297
23132SOL    HW187006  12.787   5.959   6.515 -0.9816  0.0754 -0.2003
23132SOL    HW287007  12.863   5.957   6.385 -3.7461  0.6379 -1.9162
23133SOL     OW87008   5.713   3.437   7.797  0.2237 -0.1561 -0.0148
23133SOL    HW187009   5.643   3.378   7.824  0.4580 -0.2503  0.3861
23133SOL    HW287010   5.689   3.463   7.708 -0.3781 -0.0995  0.1590
23134SOL     OW87011   1.995   2.228   9.288 -0.0552  0.3757 -0.7989
23134SOL    HW187012   2.070   2.221   9.347  0.1264  1.7102 -0.8492
23134SOL    HW287013   2.023   2.182   9.209  0.1675 -0.3482 -0.3156
23135SOL     OW87014   8.139   4.006  11.942  0.3240 -0.0273  0.0557
23135SOL    HW187015   8.161   4.032  12.031 -0.8554 -0.4058  0.4830
23135SOL    HW287016   8.150   3.911  11.941  1.6717  0.1143 -0.6169
23136SOL     OW87017   2.767   8.650   4.640  0.5325  0.0939  0.7124
23136SOL    HW187018   2.805   8.614   4.720  0.7628 -1.1046  0.0769
23136SOL    HW287019   2.810   8.735   4.629  1.2323 -0.1751  1.3126
23137SOL     OW87020   6.755   9.793   0.947 -0.4073 -0.4480  0.4141
23137SOL    HW187021   6.845   9.781   0.979  0.5033 -0.7081 -2.0849
23137SOL    HW287022   6.729   9.707   0.916 -0.6387  0.0940 -0.9630
23138SOL     OW87023   6.644   9.455   8.895  0.0059 -0.5806  0.2529
23138SOL    HW187024   6.694   9.435   8.975 -1.0379 -1.7784  0.6331
23138SOL    HW287025   6.709   9.451   8.825  0.8066 -0.1990  0.9566
23139SOL     OW87026  13.701   6.268   9.678 -0.2104 -0.4729  0.5462
23139SOL    HW187027  13.714   6.217   9.758 -1.7453 -1.7088  0.0691
23139SOL    HW287028  13.608   6.292   9.680  0.4592  2.4260  0.7757
23140SOL     OW87029  10.425   9.680   6.355  1.0919  0.6052 -0.1400
23140SOL    HW187030  10.502   9.699   6.303  1.0396 -0.2780 -0.5543
23140SOL    HW287031  10.458   9.630   6.430  0.7743 -1.0529 -1.0591
23141SOL     OW87032   8.917   4.811   0.227  0.1700  0.0584 -0.0131
23141SOL    HW187033   8.850   4.788   0.163  0.1249  0.5014 -0.1274
23141SOL    HW287034   8.933   4.730   0.276 -0.1811 -0.1416 -0.2292
23142SOL     OW87035   2.361   4.862  12.418  0.1543  0.6048 -0.3084
23142SOL    HW187036   2.387   4.925  12.484 -1.0394 -0.9753  1.7988
23142SOL    HW287037   2.408   4.782  12.442  0.5207  0.2556 -2.0427
23143SOL     OW87038   2.600   7.636   8.200 -0.7532 -0.2043  0.4550
23143SOL    HW187039   2.523   7.588   8.171  0.0383 -0.7693 -0.7925
23143SOL    HW287040   2.669   7.611   8.138  0.3646  0.4937  1.3717
23144SOL     OW87041   4.167   3.013   4.884  0.1852 -0.5720 -0.6046
23144SOL    HW187042   4.257   3.029   4.856  0.1924 -0.7986 -0.7098
23144SOL    HW287043   4.113   3.050   4.814  0.1729  0.7514  0.0682
23145SOL     OW87044  13.548   9.005   5.904  0.0430 -0.2094 -0.1420
23145SOL    HW187045  13.510   9.081   5.946  1.3882  0.9650 -0.9469
23145SOL    HW287046  13.610   8.970   5.969 -0.5242 -0.5988  0.1996
23146SOL     OW87047  11.517   5.180  12.284 -0.5554 -0.5069  0.3735
23146SOL    HW187048  11.598   5.129  12.294 -1.0448 -1.3577  0.1262
23146SOL    HW287049  11.541   5.269  12.308  0.2583 -0.9110  1.1126
23147SOL     OW87050  14.011  10.044   4.667 -0.2044  0.4616 -0.0016
23147SOL    HW187051  13.917  10.063   4.658 -0.5516 -1.1735 -0.3461
23147SOL    HW287052  14.034  10.000   4.584  0.3527 -0.9663  0.8725
23148SOL     OW87053   8.017   6.480   1.253 -0.0653 -0.7345  0.6258
23148SOL    HW187054   8.068   6.560   1.268 -0.3697 -0.5799  0.8757
23148SOL    HW287055   7.973   6.464   1.336  0.6122 -1.6254  0.8264
23149SOL     OW87056   2.043   5.449   1.174  0.7838 -0.4219  0.0884
23149SOL    HW187057   2.033   5.507   1.249  0.4849  0.2920 -0.4828
23149SOL    HW287058   2.047   5.361   1.211 -0.4593 -0.1723  0.8656
23150SOL     OW87059   8.213   4.722  13.126  0.2968  0.5302  0.2836
23150SOL    HW187060   8.258   4.804  13.146  0.7912  0.8333 -1.7895
23150SOL    HW287061   8.120   4.742  13.138  0.4404  1.2731  0.2293
23151SOL     OW87062   3.634  13.062   1.424 -0.1890  0.1717 -0.4343
23151SOL    HW187063   3.580  13.129   1.381 -0.5601  0.4928  0.5004
23151SOL    HW287064   3.711  13.054   1.368 -1.4608 -0.7376 -2.1260
23152SOL     OW87065  10.589  11.210   4.964  0.2721 -0.7634  0.2929
23152SOL    HW187066  10.613  11.300   4.987  0.3152 -0.8529  0.6069
23152SOL    HW287067  10.578  11.211   4.869  3.1091 -1.0972 -0.1211
23153SOL     OW87068   2.317   4.742   0.641  0.1465  0.0679  0.4102
23153SOL    HW187069   2.385   4.762   0.706  0.2276  0.6469  0.1463
23153SOL    HW287070   2.259   4.818   0.643  0.2638  0.1789 -0.3496
23154SOL     OW87071   9.206   1.251   3.597  0.3312 -0.1227 -0.4058
23154SOL    HW187072   9.215   1.345   3.582  3.6295  0.2821  2.5805
23154SOL    HW287073   9.135   1.243   3.660  0.0802  0.3759 -0.6286
23155SOL     OW87074   0.002  10.291   4.787  0.7487  0.1914 -0.5915
23155SOL    HW187075  -0.030  10.207   4.753 -0.7462  0.9874 -1.2256
23155SOL    HW287076  -0.006  10.283   4.882  1.4473 -0.6836 -0.5878
23156SOL     OW87077  10.422   4.900   0.502 -0.0907 -0.5314 -1.0375
23156SOL    HW187078  10.374   4.982   0.488 -0.3345 -0.8312 -2.0291
23156SOL    HW287079  10.505   4.913   0.456  0.8309 -0.0128  0.6735
23157SOL     OW87080   6.883   6.611   1.822 -0.5060  0.4738  0.8510
23157SOL    HW187081   6.890   6.533   1.768 -0.6783  0.0035  1.4907
23157SOL    HW287082   6.805   6.656   1.789  0.6308  1.3633 -0.7421
23158SOL     OW87083   2.319   8.255   8.735  0.3968  0.4492 -0.1660
23158SOL    HW187084   2.252   8.193   8.762 -0.0394  0.2554 -1.5773
23158SOL    HW287085   2.383   8.203   8.687  0.4183  0.9426 -0.7012
23159SOL     OW87086  13.862   0.226  11.131 -0.3129  0.1825 -0.0701
23159SOL    HW187087  13.929   0.160  11.113 -0.4538 -0.3253  1.1847
23159SOL    HW287088  13.896   0.306  11.090 -0.0393 -0.6093 -1.4284
23160SOL     OW87089   1.439   3.424   6.409 -0.1176 -0.1322 -0.5671
23160SOL    HW187090   1.453   3.518   6.413  1.1576 -0.2907 -0.6090
23160SOL    HW287091   1.451   3.402   6.317 -1.6914 -0.1834 -0.7851
23161SOL     OW87092  12.343   1.364  12.948 -0.8423  0.8648  0.2170
23161SOL    HW187093  12.422   1.390  12.901 -1.8065  2.7546 -0.4552
23161SOL    HW287094  12.344   1.416  13.028 -1.1287  0.5073  0.4544
23162SOL     OW87095   0.523   1.096   1.232 -0.1049 -0.6350  0.3152
23162SOL    HW187096   0.530   1.081   1.138  1.6993 -2.1958  0.6418
23162SOL    HW287097   0.602   1.057   1.269 -0.7528 -0.0408  2.4881
23163SOL     OW87098   8.019   3.061  11.296  0.0700 -0.4639  0.4646
23163SOL    HW187099   7.937   3.074  11.343 -0.5855 -0.7464 -0.5732
23163SOL    HW287100   8.018   3.129  11.228  0.8703 -0.2430  0.6587
23164SOL     OW87101  12.822   6.413  11.410  0.1955  0.2364  0.2243
23164SOL    HW187102  12.859   6.327  11.431 -1.8250 -0.3235  1.8346
23164SOL    HW287103  12.766   6.398  11.335  1.2508  0.5658 -0.6511
23165SOL     OW87104  10.002   0.539   0.899 -0.6232  0.2357 -0.1775
23165SOL    HW187105   9.925   0.593   0.882 -0.3347  0.6640 -0.1238
23165SOL    HW287106   9.969   0.449   0.897 -0.9767  0.3709 -0.9889
23166SOL     OW87107   2.977   4.753   6.463 -0.2752  0.2116  0.7032
23166SOL    HW187108   2.906   4.768   6.400 -0.2872 -0.2693  0.5965
23166SOL    HW287109   2.960   4.815   6.534  0.9466  2.3155 -0.7395
23167SOL     OW87110   7.938   3.430  11.367 -0.2563 -0.3830  0.5031
23167SOL    HW187111   7.957   3.359  11.306  1.5287 -0.3354  0.9224
23167SOL    HW287112   7.870   3.482  11.325 -2.9793 -3.3111  0.9836
23168SOL     OW87113   1.602   1.694  11.872  0.2353 -0.0167 -0.0827
23168SOL    HW187114   1.537   1.764  11.882 -1.7316 -1.5607 -1.2599
23168SOL    HW287115   1.551   1.618  11.844  2.7396 -1.0061 -2.3496
23169SOL     OW87116   5.777  11.866   2.912 -0.4132 -0.4518 -0.3481
23169SOL    HW187117   5.868  11.880   2.887 -0.9329  1.4483 -1.3854
23169SOL    HW287118   5.765  11.921   2.990 -0.4093 -1.5576  0.4538
23170SOL     OW87119  12.554   4.971  12.746  0.0440 -0.3823  0.0763
23170SOL    HW187120  12.488   4.914  12.708  1.6249 -2.3176  0.0284
23170SOL    HW287121  12.513   5.057  12.750 -1.1627 -0.6440 -3.4117
23171SOL     OW87122  10.599  13.721   2.873 -0.0439  0.2066  0.5284
23171SOL    HW187123  10.547  13.786   2.826  0.4411  0.1104 -0.1647
23171SOL    HW287124  10.685  13.725   2.831  0.3573  0.0092  1.3208
23172SOL     OW87125   2.225   8.722   2.443 -0.0747  0.2189  0.2173
23172SOL    HW187126   2.183   8.808   2.441  0.0874  0.3000  0.3027
23172SOL    HW287127   2.314   8.737   2.411 -0.5520 -0.2073 -1.3849
23173SOL     OW87128  13.631   6.270   6.517 -0.4715 -0.3243  0.1228
23173SOL    HW187129  13.589   6.244   6.434 -1.7170 -2.4119  1.3121
23173SOL    HW287130  13.616   6.364   6.523 -2.5434 -0.5281 -0.8670
23174SOL     OW87131  12.715   2.137   4.439 -0.6222 -0.2894 -0.1843
23174SOL    HW187132  12.727   2.124   4.533 -0.6546 -0.6377 -0.2269
23174SOL    HW287133  12.640   2.195   4.432  0.7652  1.6242  0.0735
23175SOL     OW87134  12.641   5.252   8.560  0.1487  0.3037 -0.0127
23175SOL    HW187135  12.594   5.335   8.567 -1.2044 -0.5878  2.4540
23175SOL    HW287136  12.725   5.276   8.519 -0.9096  2.5382 -1.0850
23176SOL     OW87137   4.882  10.574   5.077 -0.2725  0.0536 -0.1836
23176SOL    HW187138   4.887  10.654   5.129  0.7099  0.5124 -0.9315
23176SOL    HW287139   4.790  10.550   5.077 -0.2276 -0.3601  2.3149
23177SOL     OW87140   3.147   3.606   7.992  0.3293  0.6004 -0.6544
23177SOL    HW187141   3.100   3.574   7.915  0.8309  0.4748 -0.9071
23177SOL    HW287142   3.078   3.644   8.047 -0.4919 -1.7936  0.1321
23178SOL     OW87143   4.179   1.798   7.540  0.2840  0.5058  0.2608
23178SOL    HW187144   4.270   1.827   7.527  0.7037  1.3578  3.8801
23178SOL    HW287145   4.185   1.732   7.609 -1.8035 -0.1181 -0.0862
23179SOL     OW87146   5.997   3.203   9.685 -0.2278 -0.3433 -0.8435
23179SOL    HW187147   5.935   3.186   9.615 -0.9523 -1.3768  0.0123
23179SOL    HW287148   5.951   3.176   9.765  1.3730 -1.3119 -0.1932
23180SOL     OW87149  10.239  10.862  12.308 -0.1026  0.0919 -0.1106
23180SOL    HW187150  10.184  10.796  12.352  1.3829 -1.9456 -1.1371
23180SOL    HW287151  10.262  10.924  12.377 -0.9548 -0.8640  1.0881
23181SOL     OW87152   5.922  13.489   8.159  0.2582 -0.0495  0.4610
23181SOL    HW187153   6.003  13.478   8.109 -0.1447  0.1595 -0.2665
23181SOL    HW287154   5.866  13.542   8.102  0.0232  0.7888  1.4352
23182SOL     OW87155   9.663  10.822  10.405  0.3481 -0.0049  0.3652
23182SOL    HW187156   9.699  10.874  10.477  1.2876 -0.4806  0.2673
23182SOL    HW287157   9.619  10.885  10.348  1.0863  0.6179  0.4693
23183SOL     OW87158   4.456   7.851  12.052  0.0990  0.3760  0.5746
23183SOL    HW187159   4.529   7.866  11.991 -1.4572  2.0323 -0.9857
23183SOL    HW287160   4.489   7.783  12.111  1.5276 -1.7805 -2.4129
23184SOL     OW87161   1.620  11.084   9.367 -0.5779 -0.1943 -0.3329
23184SOL    HW187162   1.697  11.071   9.422 -1.5654 -0.0984  1.1159
23184SOL    HW287163   1.600  10.997   9.333 -0.6460 -0.4714  0.4048
23185SOL     OW87164   0.443   3.851   4.657 -0.7082 -0.0374  0.4933
23185SOL    HW187165   0.374   3.916   4.650  0.7215  1.4571 -0.6265
23185SOL    HW287166   0.405   3.770   4.623 -2.3411  0.3447  1.3537
23186SOL     OW87167   9.462   1.346  13.683 -0.0935  0.7006 -0.1719
23186SOL    HW187168   9.490   1.416  13.624  0.5181 -0.3647 -1.1926
23186SOL    HW287169   9.395   1.299  13.635  0.8863 -0.5977 -0.3387
23187SOL     OW87170   1.794   5.153   8.140  0.8035  0.6966 -0.0030
23187SOL    HW187171   1.701   5.142   8.161  1.1191  0.2191  1.2334
23187SOL    HW287172   1.795   5.220   8.072 -0.6165 -1.0263 -1.8618
23188SOL     OW87173   2.993  11.437   9.206  0.4594  0.3928 -0.2417
23188SOL    HW187174   3.051  11.445   9.282  0.8195 -3.3167  0.0800
23188SOL    HW287175   3.048  11.398   9.138 -1.2541 -2.2461 -0.2554
23189SOL     OW87176   9.266   4.990   2.780  0.0217  0.3126 -0.5896
23189SOL    HW187177   9.294   4.899   2.768  1.3716  0.9315 -2.7623
23189SOL    HW287178   9.340   5.034   2.821 -0.6139  0.4573  0.4292
23190SOL     OW87179   2.971   1.626   7.447 -0.1471 -0.4321  0.1323
23190SOL    HW187180   3.050   1.679   7.440 -0.6143  0.2318 -0.2198
23190SOL    HW287181   2.930   1.655   7.529  0.9494 -2.1549  1.3509
23191SOL     OW87182   3.827  12.177  10.108  0.3024  0.2611  0.1811
23191SOL    HW187183   3.820  12.101  10.167 -1.1356  1.0358  1.0744
23191SOL    HW287184   3.829  12.138  10.020  0.8614 -0.8579  0.6639
23192SOL     OW87185   6.415  11.429  12.595  0.4154 -0.0352 -0.5092
23192SOL    HW187186   6.327  11.448  12.563  0.6944  0.8546 -0.7717
23192SOL    HW287187   6.461  11.513  12.591  1.1601 -0.4065 -0.0011
23193SOL     OW87188   3.445   9.781  12.745  0.2989  0.7433  0.1025
23193SOL    HW187189   3.364   9.788  12.694 -0.3924  0.7143  1.1660
23193SOL    HW287190   3.495   9.712  12.701 -1.1483 -0.6811  0.6000
23194SOL     OW87191  13.554   3.379  12.135  0.1990  0.0014  0.6363
23194SOL    HW187192  13.486   3.441  12.160 -2.3490 -2.1363 -0.4405
23194SOL    HW287193  13.594   3.416  12.057 -0.0507  1.0798  1.0102
23195SOL     OW87194  13.998   6.257   1.326  0.0803  0.2314  0.0945
23195SOL    HW187195  14.038   6.292   1.405 -1.4909  2.3829  0.0390
23195SOL    HW287196  13.919   6.310   1.314 -0.9912 -1.5969 -1.6140
23196SOL     OW87197  12.693   2.089   4.734  0.4506  0.4480  0.6393
23196SOL    HW187198  12.770   2.124   4.779  1.1074  1.7844 -1.3664
23196SOL    HW287199  12.724   2.012   4.688  0.5963  0.9315 -0.0923
23197SOL     OW87200   7.547  13.251   8.100  0.0591 -0.2811  0.9453
23197SOL    HW187201   7.621  13.310   8.113  0.7039 -0.0991 -2.5896
23197SOL    HW287202   7.470  13.303   8.124  0.8892  0.1734  2.8000
23198SOL     OW87203   1.118  11.036   5.276  0.0072 -0.1825  0.2827
23198SOL    HW187204   1.152  10.960   5.229 -2.1096 -2.0181  1.5265
23198SOL    HW287205   1.031  11.009   5.306 -0.5419  2.5056  1.3732
23199SOL     OW87206   0.099   5.662   4.502  0.7043 -0.1206 -0.4978
23199SOL    HW187207   0.058   5.716   4.434 -0.2737 -0.5403 -0.2596
23199SOL    HW287208   0.083   5.572   4.474 -0.4670 -0.3131  0.7069
23200SOL     OW87209   6.257  10.891   1.452 -0.0172 -0.1654  0.0705
23200SOL    HW187210   6.187  10.952   1.476 -0.5560 -0.6346 -0.2920
23200SOL    HW287211   6.247  10.818   1.513  0.8259  0.2359  0.7119
23201SOL     OW87212   7.575  11.322  10.600  0.7981 -0.2549  0.4790
23201SOL    HW187213   7.510  11.283  10.542  1.3874  0.1898 -0.5048
23201SOL    HW287214   7.594  11.407  10.561  2.1304 -0.4664  0.6151
23202SOL     OW87215   5.560  10.134   1.651 -0.3975  0.2248 -0.2212
23202SOL    HW187216   5.586  10.094   1.569  0.1354 -0.5391  0.3087
23202SOL    HW287217   5.527  10.221   1.626 -1.0930 -0.3351 -1.3300
23203SOL     OW87218  10.271   1.189   1.327 -0.2847  0.6972  0.3335
23203SOL    HW187219  10.184   1.177   1.289  0.0844  0.0620 -0.3415
23203SOL    HW287220  10.315   1.105   1.312  0.0708  0.6288  1.6634
23204SOL     OW87221   8.076   2.017  12.653 -0.2137 -0.1852  0.7534
23204SOL    HW187222   8.097   2.072  12.578  1.0261 -0.7608  0.6599
23204SOL    HW287223   8.153   1.961  12.665 -1.0221 -1.1967  1.4715
23205SOL     OW87224   9.533  11.579  12.246  0.0677 -0.9223  0.9332
23205SOL    HW187225   9.451  11.558  12.291 -0.9476  2.8550  1.1406
23205SOL    HW287226   9.522  11.669  12.217  3.8267 -0.5811  0.1348
23206SOL     OW87227   4.055   6.542  10.147  0.0045 -0.5032 -0.1138
23206SOL    HW187228   4.030   6.503  10.231  0.1516 -2.4986 -0.9443
23206SOL    HW287229   4.137   6.587  10.164  0.4198 -1.5299  0.6599
23207SOL     OW87230   0.806  12.722   7.541  0.8176  0.2564  0.6954
23207SOL    HW187231   0.765  12.767   7.615  1.3710  0.4369  0.8925
23207SOL    HW287232   0.825  12.634   7.573  0.6588  0.1964  0.6269
23208SOL     OW87233   6.576  13.180  13.772 -0.2981 -0.2177 -0.4282
23208SOL    HW187234   6.514  13.109  13.759  1.2840 -2.3884  2.6849
23208SOL    HW287235   6.651  13.157  13.717 -0.0962 -0.5674 -0.0126
23209SOL     OW87236  11.322  13.868   4.263  0.0796  0.2335  0.1605
23209SOL    HW187237  11.286  13.834   4.180  0.0039 -0.1846  0.3599
23209SOL    HW287238  11.314  13.795   4.324  2.1855 -0.2324 -0.0352
23210SOL     OW87239   5.456   0.078   0.082  0.5966 -0.6128 -0.4777
23210SOL    HW187240   5.440   0.151   0.143 -0.5560  0.7280 -2.2716
23210SOL    HW287241   5.480   0.121  -0.000 -2.5215 -2.0692 -2.3228
23211SOL     OW87242   1.359   2.130  10.142 -0.0201  0.1320  0.3451
23211SOL    HW187243   1.441   2.140  10.094 -0.4128 -1.0446 -0.6091
23211SOL    HW287244   1.291   2.133  10.075 -0.5900 -1.4217  0.8069
23212SOL     OW87245   4.025  11.118   0.266  1.0877  0.6698 -0.2702
23212SOL    HW187246   4.003  11.208   0.241  0.4407  0.2442 -1.2702
23212SOL    HW287247   3.984  11.064   0.199  2.0863 -0.3446 -0.0792
23213SOL     OW87248   2.537   6.591   7.115 -0.5176 -0.3675  0.3152
23213SOL    HW187249   2.622   6.568   7.077 -0.8505 -2.0794  0.5024
23213SOL    HW287250   2.489   6.632   7.043  0.8520  1.7842  0.5393
23214SOL     OW87251   9.090   6.631   5.680 -0.4540  0.0092  0.3618
23214SOL    HW187252   9.006   6.677   5.673 -0.4060 -0.0359 -0.7354
23214SOL    HW287253   9.075   6.563   5.744 -0.1670  2.3009  3.0481
23215SOL     OW87254  11.001   7.703   3.148 -0.4376 -0.4161  0.0580
23215SOL    HW187255  11.021   7.666   3.234 -1.0386 -0.8053  0.0370
23215SOL    HW287256  11.020   7.632   3.087  1.2454  0.2759 -0.2693
23216SOL     OW87257   6.736  12.065   7.162 -0.5690  0.2145  0.1482
23216SOL    HW187258   6.699  12.138   7.112  0.2929  1.2513  0.9574
23216SOL    HW287259   6.784  12.014   7.097  0.1838  1.3039 -0.1937
23217SOL     OW87260   5.157   0.469   4.464  0.2468  0.1936 -0.4112
23217SOL    HW187261   5.121   0.398   4.411  0.6134 -0.9161  0.7705
23217SOL    HW287262   5.082   0.505   4.511  0.2108 -0.1696 -0.1796
23218SOL     OW87263   2.953   2.751  11.906  0.2040  0.1140  0.4986
23218SOL    HW187264   2.919   2.811  11.971  0.6658  0.4196  0.4672
23218SOL    HW287265   3.043   2.781  11.890  0.4341 -0.5695  0.4671
23219SOL     OW87266  11.061   7.718   2.379  0.0887  0.1716 -0.5773
23219SOL    HW187267  11.019   7.775   2.444 -0.2192 -1.1653  0.4437
23219SOL    HW287268  10.988   7.680   2.330  0.2300 -0.1823 -0.5173
23220SOL     OW87269   7.774   9.313   5.882  0.3376 -0.4863  0.5446
23220SOL    HW187270   7.760   9.300   5.975  1.1402  1.7755  1.0439
23220SOL    HW287271   7.689   9.294   5.841  0.5250 -3.7905  1.3506
23221SOL     OW87272   8.078  13.967   3.889 -0.2010  0.0742 -0.0292
23221SOL    HW187273   8.069  13.891   3.831 -0.0469  1.2311 -1.6625
23221SOL    HW287274   8.034  13.942   3.970 -1.6704 -1.1174 -1.1466
23222SOL     OW87275   0.343   4.492  10.369  0.1707  0.3616  0.1036
23222SOL    HW187276   0.337   4.518  10.277  1.3273  0.7293  0.1129
23222SOL    HW287277   0.396   4.561  10.409 -1.9286  1.2676  1.4878
23223SOL     OW87278  13.000  11.875   1.872 -0.3583 -0.4344 -0.3290
23223SOL    HW187279  13.048  11.940   1.821  0.8174  0.2383  1.5164
23223SOL    HW287280  12.908  11.897   1.860  0.0206  2.1274  0.8603
23224SOL     OW87281   1.340  13.400  10.204 -0.4168 -0.2642 -0.0818
23224SOL    HW187282   1.276  13.423  10.137 -0.9649 -0.2454  0.4462
23224SOL    HW287283   1.327  13.465  10.273 -0.1160 -0.5148  0.2161
23225SOL     OW87284   3.966  11.631   0.526 -0.5199  0.3154  0.2348
23225SOL    HW187285   3.947  11.679   0.606  1.0054  0.8465  0.3016
23225SOL    HW287286   3.983  11.699   0.461 -2.1244 -0.0975 -0.6677
23226SOL     OW87287   6.996   3.367   3.530  0.0296 -0.1510  0.0537
23226SOL    HW187288   6.911   3.332   3.558 -0.8428  1.8360  0.0388
23226SOL    HW287289   7.046   3.373   3.611 -0.7544  0.9806  0.4864
23227SOL     OW87290  12.828   8.241   8.933  0.8088  0.2443 -0.3488
23227SOL    HW187291  12.920   8.265   8.926  0.7668  0.4892 -0.0549
23227SOL    HW287292  12.829   8.149   8.960  0.9680 -0.2221 -1.8665
23228SOL     OW87293   4.217   6.553   9.017  0.1904 -0.0730 -0.1083
23228SOL    HW187294   4.122   6.549   9.003 -0.0025  1.7320  0.4566
23228SOL    HW287295   4.233   6.487   9.086 -0.7955  0.2318  0.4399
23229SOL     OW87296  12.576   7.998  11.470  0.0720  0.3291  0.1694
23229SOL    HW187297  12.523   8.058  11.419  1.3729 -0.2845 -2.0356
23229SOL    HW287298  12.514   7.953  11.527 -1.0839  2.8964  1.1005
23230SOL     OW87299   1.791   3.406   7.057  0.2250 -0.5235 -0.1487
23230SOL    HW187300   1.828   3.492   7.035 -0.6489 -0.2276 -0.5049
23230SOL    HW287301   1.867   3.353   7.082  0.9472 -0.0496 -1.2319
23231SOL     OW87302   5.478   6.226   2.465 -0.1639  0.0129  0.3379
23231SOL    HW187303   5.390   6.190   2.458 -0.2935  0.2174  0.8685
23231SOL    HW287304   5.505   6.206   2.555  0.9096 -1.3566 -0.2529
23232SOL     OW87305   5.925   5.414   3.524 -0.3058 -0.1338  0.8958
23232SOL    HW187306   6.013   5.383   3.544  1.0258  1.2980 -2.0969
23232SOL    HW287307   5.875   5.334   3.508  1.8500 -1.0736 -2.2010
23233SOL     OW87308   5.632  12.813  11.507  0.3629 -0.3637  0.6240
23233SOL    HW187309   5.626  12.740  11.444 -0.5214 -0.7963  1.1893
23233SOL    HW287310   5.610  12.773  11.591 -2.1006  0.9269  0.6658
23234SOL     OW87311   8.376   3.626   8.052  0.0457 -0.1285  0.0559
23234SOL    HW187312   8.410   3.710   8.082 -1.2424 -0.8373  4.1195
23234SOL    HW287313   8.281   3.637   8.051 -0.0621 -0.7813 -2.1736
23235SOL     OW87314   5.016   4.497   3.226 -0.1840  0.1959  0.4858
23235SOL    HW187315   5.008   4.592   3.219  0.1922  0.1335 -1.2174
23235SOL    HW287316   4.973   4.463   3.148 -0.6296 -1.0675  1.2510
23236SOL     OW87317  11.564   2.306   7.032 -0.2197  0.6076  0.2164
23236SOL    HW187318  11.508   2.240   6.992 -1.0384  1.3586  0.0963
23236SOL    HW287319  11.652   2.268   7.029 -0.7746 -0.7950  0.8324
23237SOL     OW87320   2.252   0.878  12.328  0.0947  0.4555 -0.5846
23237SOL    HW187321   2.264   0.866  12.234  3.3563 -0.2655 -0.1979
23237SOL    HW287322   2.279   0.968  12.344 -0.0649  0.4486 -0.2678
23238SOL     OW87323   9.750   5.218   3.961  0.1992 -0.4401  0.0957
23238SOL    HW187324   9.817   5.252   3.901  0.8486 -1.5806  0.1414
23238SOL    HW287325   9.688   5.172   3.904  1.2527 -2.2393  0.2987
23239SOL     OW87326  10.821   4.287   7.294 -0.1847 -0.2880 -0.5628
23239SOL    HW187327  10.834   4.371   7.251  0.2002 -0.2189 -0.3143
23239SOL    HW287328  10.871   4.225   7.241 -0.6756 -0.4088 -0.8935
23240SOL     OW87329   2.218   3.395   2.703  0.9699 -0.1179  0.1308
23240SOL    HW187330   2.124   3.380   2.697  1.0286 -0.3265 -0.2896
23240SOL    HW287331   2.256   3.332   2.642  1.4681 -1.0858  1.3810
23241SOL     OW87332  11.291  10.345  13.282 -0.5232  0.0525  0.0602
23241SOL    HW187333  11.208  10.298  13.275 -0.5472 -0.0703  1.0862
23241SOL    HW287334  11.265  10.435  13.306 -0.5366  0.8786 -2.7212
23242SOL     OW87335  12.001   8.712   9.978 -0.0517 -0.1193 -0.0033
23242SOL    HW187336  11.946   8.778   9.935 -0.2170 -0.5142 -0.4209
23242SOL    HW287337  12.035   8.755  10.056 -0.3301  0.3874 -0.1563
23243SOL     OW87338   2.414  14.002   9.734 -0.0186 -0.0184 -0.2024
23243SOL    HW187339   2.470  13.924   9.739 -1.2322 -0.8921  0.5495
23243SOL    HW287340   2.471  14.074   9.761  0.8514 -0.8163  0.1682
23244SOL     OW87341   5.262   2.164  10.080 -0.0774  0.6673  0.3132
23244SOL    HW187342   5.280   2.164   9.986  1.4294 -0.5533  0.5767
23244SOL    HW287343   5.256   2.072  10.104  0.7398  0.9265  1.6259
23245SOL     OW87344   2.716   0.423   6.809 -0.0932  0.3190  0.0654
23245SOL    HW187345   2.760   0.508   6.816  1.0596 -0.1831 -0.6609
23245SOL    HW287346   2.760   0.379   6.736  1.2835 -1.9899  2.0854
23246SOL     OW87347   7.426  10.128  11.549 -0.0764  0.2732 -0.0538
23246SOL    HW187348   7.504  10.181  11.566 -1.4895  2.3146  0.4637
23246SOL    HW287349   7.369  10.144  11.624 -0.4900 -2.2460  0.2462
23247SOL     OW87350   1.173  11.785   5.336  0.0444  0.1103 -0.0016
23247SOL    HW187351   1.247  11.829   5.377 -0.2893  0.9790 -0.3026
23247SOL    HW287352   1.165  11.826   5.250 -0.7322 -0.0156 -0.0020
23248SOL     OW87353  13.011   8.722   8.327 -0.1181  0.4679  0.2224
23248SOL    HW187354  12.977   8.633   8.318  0.9587  0.0952 -0.3017
23248SOL    HW287355  13.103   8.710   8.346  0.6302  1.4675 -2.3309
23249SOL     OW87356   8.594  10.635   1.360  0.5629  0.7430 -0.5356
23249SOL    HW187357   8.611  10.655   1.268 -0.4914 -0.9008 -1.1244
23249SOL    HW287358   8.647  10.558   1.379  1.6270  1.7114  0.5886
23250SOL     OW87359  12.741   0.860  10.371  0.1007  0.0673 -0.3808
23250SOL    HW187360  12.653   0.846  10.404 -0.3596  0.7915 -1.2623
23250SOL    HW287361  12.796   0.801  10.423 -1.1006 -1.5789 -0.8964
23251SOL     OW87362   4.327   6.292   8.568 -0.5825  0.5003  0.0832
23251SOL    HW187363   4.312   6.272   8.660  0.2877  0.2223  0.1725
23251SOL    HW287364   4.297   6.215   8.521 -0.1724  0.2636  0.2044
23252SOL     OW87365   2.042   9.581   0.758  0.1229  0.0805  0.5236
23252SOL    HW187366   1.971   9.645   0.765 -1.0370 -0.5698 -2.8859
23252SOL    HW287367   2.122   9.632   0.765 -0.7439  1.4835  0.6122
23253SOL     OW87368   3.655   7.688   3.445  0.2361 -0.3489  0.6485
23253SOL    HW187369   3.629   7.596   3.450 -0.2139 -0.1986  1.2028
23253SOL    HW287370   3.660   7.706   3.351 -0.5657 -0.6999  0.5240
23254SOL     OW87371  12.624  12.896   1.766  0.1005 -0.0098 -0.3769
23254SOL    HW187372  12.632  12.800   1.764  2.4751  0.1322 -0.1674
23254SOL    HW287373  12.657  12.920   1.853 -0.2762  1.0327 -0.5179
23255SOL     OW87374   5.539   7.771  13.764  0.6052  0.7274 -0.1394
23255SOL    HW187375   5.633   7.763  13.750  0.8447  1.8832  0.6805
23255SOL    HW287376   5.531   7.829  13.839 -0.7333 -0.8923  1.0468
23256SOL     OW87377   6.067   8.756   4.145  0.4237  0.0648  0.0959
23256SOL    HW187378   6.094   8.666   4.125 -0.8562 -0.2420 -0.3603
23256SOL    HW287379   6.098   8.772   4.234  1.5418 -0.4621 -0.1823
23257SOL     OW87380  14.049  12.449   1.649 -0.7948 -0.4549 -0.7147
23257SOL    HW187381  14.042  12.500   1.730 -0.7097  0.1069 -1.0526
23257SOL    HW287382  14.083  12.364   1.677  0.8014  0.2585 -0.3462
23258SOL     OW87383   2.718   3.506   7.876 -0.3286 -0.9496  0.5699
23258SOL    HW187384   2.663   3.525   7.800 -2.2970 -0.8676  1.9261
23258SOL    HW287385   2.798   3.469   7.840 -1.7980 -2.3532 -1.4841
23259SOL     OW87386   8.645   6.111   1.782 -0.1904  0.7658 -0.3529
23259SOL    HW187387   8.626   6.041   1.845  1.5665  1.0354  0.5321
23259SOL    HW287388   8.605   6.081   1.701 -0.4904 -0.7206  0.2992
23260SOL     OW87389   5.058   1.894   4.313  0.0451 -0.5714 -0.1305
23260SOL    HW187390   5.018   1.981   4.304  1.7163  0.1496 -1.0797
23260SOL    HW287391   5.102   1.896   4.397  0.7355 -0.1967 -0.4933
23261SOL     OW87392   0.393   6.186   8.863  0.1289  0.2198 -0.1753
23261SOL    HW187393   0.300   6.172   8.880  0.1053  1.0162  0.4326
23261SOL    HW287394   0.415   6.122   8.795 -0.4642 -1.1503  0.8707
23262SOL     OW87395   7.650   4.582   5.034  0.1955 -0.1162 -0.3072
23262SOL    HW187396   7.707   4.647   5.074  0.5314 -2.2764  3.1735
23262SOL    HW287397   7.562   4.616   5.046  0.4538  2.1722 -3.6586
23263SOL     OW87398   1.658   7.480   8.856  0.0267  0.5599 -0.2084
23263SOL    HW187399   1.730   7.433   8.899 -0.3675  0.0177 -0.1433
23263SOL    HW287400   1.594   7.412   8.834 -1.3926  1.2605  1.5260
23264SOL     OW87401   8.780   7.685   0.453 -0.2145 -0.2539 -0.1173
23264SOL    HW187402   8.808   7.759   0.508 -0.0413  1.6993 -2.6261
23264SOL    HW287403   8.738   7.625   0.514  2.2254  0.4890  2.5447
23265SOL     OW87404   2.630  11.252   2.574 -0.1901  0.1201 -0.4905
23265SOL    HW187405   2.635  11.165   2.536  0.6732  0.0298 -0.1925
23265SOL    HW287406   2.557  11.247   2.637  0.6546 -0.7698  0.4578
23266SOL     OW87407   4.595   3.604   3.076 -0.0969  0.4171 -0.0282
23266SOL    HW187408   4.589   3.695   3.105  0.0180  1.0991 -2.0019
23266SOL    HW287409   4.648   3.608   2.997 -2.0808 -1.0417 -1.5228
23267SOL     OW87410   7.053   9.101   7.642  0.1889  0.2079  0.7552
23267SOL    HW187411   7.008   9.107   7.726 -0.5919  0.9080  0.2978
23267SOL    HW287412   7.131   9.156   7.652  0.4250 -0.2050  1.2186
23268SOL     OW87413   7.961  11.899   7.957  0.0187  0.3117  0.0976
23268SOL    HW187414   8.031  11.878   7.896 -0.1342  0.0273  0.0135
23268SOL    HW287415   7.993  11.973   8.008  0.3591  0.2117  0.0272
23269SOL     OW87416   6.207  10.066   9.403 -0.3978 -0.3642  0.0006
23269SOL    HW187417   6.114  10.073   9.427  0.0032  1.9107  1.1467
23269SOL    HW287418   6.244  10.007   9.470 -0.6204  0.4765  0.8875
23270SOL     OW87419   9.969  13.480  12.772  0.1292 -0.2202 -0.0230
23270SOL    HW187420   9.965  13.475  12.676 -1.6789 -0.2554  0.0207
23270SOL    HW287421   9.905  13.417  12.802 -0.4823  0.9238  1.1712
23271SOL     OW87422  10.782   4.013   5.572  0.0748  0.3392  0.0758
23271SOL    HW187423  10.751   4.065   5.499  0.8758  0.4121 -0.2305
23271SOL    HW287424  10.874   3.996   5.551  0.4762  0.8549  1.3431
23272SOL     OW87425   0.856   5.740   8.580 -0.3628  0.2929 -0.1511
23272SOL    HW187426   0.909   5.786   8.645  1.3378 -0.2105 -1.1177
23272SOL    HW287427   0.814   5.809   8.530 -1.5840  0.6882  1.3439
23273SOL     OW87428   3.004   4.127   5.985 -0.5084 -0.2865 -0.7916
23273SOL    HW187429   2.914   4.159   5.988 -1.0443 -1.5623 -2.3096
23273SOL    HW287430   3.054   4.200   5.947 -1.1865 -0.1582 -1.4520
23274SOL     OW87431  10.620   9.779   8.151  0.2590  0.1492  0.1263
23274SOL    HW187432  10.635   9.838   8.078 -2.4136 -0.4339 -0.9948
23274SOL    HW287433  10.702   9.729   8.158  0.3664 -0.2964 -2.9798
23275SOL     OW87434   8.186  10.841   2.840  0.1003  0.1239 -0.2756
23275SOL    HW187435   8.261  10.888   2.803  0.7387 -0.9233 -0.3577
23275SOL    HW287436   8.110  10.878   2.795  0.6973  0.2592 -1.1992
23276SOL     OW87437   9.882   1.308  13.855  0.1795  0.2703  0.4617
23276SOL    HW187438   9.852   1.231  13.807  2.7880 -0.2551 -0.4980
23276SOL    HW287439   9.833   1.305  13.937 -1.8840 -0.7482 -0.7073
23277SOL     OW87440   6.944   4.499  12.671 -0.2189 -0.1826 -0.4050
23277SOL    HW187441   6.917   4.590  12.684 -1.1443 -0.4505 -0.3709
23277SOL    HW287442   6.995   4.501  12.590  1.1757  0.6274  0.4466
23278SOL     OW87443   7.381   3.224   5.450 -0.0566  0.6617 -0.1385
23278SOL    HW187444   7.317   3.154   5.468  1.5895 -0.3903  2.0553
23278SOL    HW287445   7.327   3.298   5.420 -2.1092 -0.7162 -0.0891
23279SOL     OW87446   4.894  11.185   3.918  0.2033  0.2610 -1.1247
23279SOL    HW187447   4.817  11.129   3.930  1.0198 -0.5413  0.8021
23279SOL    HW287448   4.860  11.274   3.932 -0.3993 -0.0809 -0.2777
23280SOL     OW87449   1.711   7.492   7.389  0.1865 -0.1844 -0.3577
23280SOL    HW187450   1.637   7.539   7.351  0.5517 -0.4531 -1.4310
23280SOL    HW287451   1.672   7.436   7.456 -0.5356 -0.0388 -0.6469
23281SOL     OW87452  13.874   2.855   3.239 -0.4829 -0.1316  0.1221
23281SOL    HW187453  13.807   2.905   3.286  1.1178  1.1860  1.1160
23281SOL    HW287454  13.925   2.922   3.193  0.5864 -1.0302 -0.0475
23282SOL     OW87455   4.672   0.221   1.364 -0.1322 -0.1157  0.0326
23282SOL    HW187456   4.682   0.135   1.324  0.6279 -0.7274  1.4621
23282SOL    HW287457   4.598   0.260   1.319 -1.0901 -1.8954 -0.0252
23283SOL     OW87458   3.429  10.984  11.912  0.4451  0.3303 -0.0378
23283SOL    HW187459   3.493  10.913  11.908 -0.1251 -0.1819 -0.2030
23283SOL    HW287460   3.364  10.954  11.976  0.3269  0.8109  0.0702
23284SOL     OW87461  10.156   4.069   5.298  0.2241 -0.4460 -0.0438
23284SOL    HW187462  10.158   4.153   5.252  0.2766 -1.6019 -2.2795
23284SOL    HW287463  10.072   4.068   5.344  0.5125  1.0791  0.5703
23285SOL     OW87464  11.457   9.170   2.247  0.2488  0.0948 -0.3434
23285SOL    HW187465  11.532   9.208   2.293 -0.1655  0.0942  0.3547
23285SOL    HW287466  11.392   9.155   2.316 -0.6753  0.7983 -1.0345
23286SOL     OW87467   2.114   4.744   1.910  0.7604 -0.5483  0.1480
23286SOL    HW187468   2.133   4.686   1.836 -1.8974  0.0150 -1.1147
23286SOL    HW287469   2.126   4.832   1.874 -0.5625 -0.2702  0.3432
23287SOL     OW87470   7.861   7.408  13.494  0.1289 -0.5597  0.4834
23287SOL    HW187471   7.855   7.408  13.590  1.6779 -1.7068  0.6078
23287SOL    HW287472   7.873   7.500  13.471 -1.9549 -0.0333  1.2199
23288SOL     OW87473   4.865   8.955   7.869  0.1509  0.0976 -0.4209
23288SOL    HW187474   4.806   8.893   7.912  1.0106 -0.9848 -0.7543
23288SOL    HW287475   4.849   8.943   7.776  2.3528 -1.8260 -0.6621
23289SOL     OW87476   7.882   5.473   2.180 -0.3455 -0.2585 -0.4912
23289SOL    HW187477   7.815   5.532   2.214 -0.6016 -0.9478  0.2380
23289SOL    HW287478   7.849   5.447   2.094 -0.5995  0.0694 -0.4938
23290SOL     OW87479   6.288   8.283  12.781 -0.6100 -0.8296 -0.2385
23290SOL    HW187480   6.337   8.360  12.752  0.5578 -0.8576  1.5283
23290SOL    HW287481   6.334   8.209  12.742 -0.0939 -0.7742  0.2570
23291SOL     OW87482   1.677   4.780   1.922  0.2389 -0.3282 -0.2543
23291SOL    HW187483   1.741   4.850   1.911 -0.2928  0.2037 -0.0373
23291SOL    HW287484   1.721   4.702   1.890  0.9960  0.0268 -0.0915
23292SOL     OW87485   6.467  13.125   2.185  0.4955 -1.1298 -0.8117
23292SOL    HW187486   6.385  13.171   2.166  1.5726  2.7059  2.4261
23292SOL    HW287487   6.521  13.141   2.108  0.0442  1.3129 -0.6944
23293SOL     OW87488   5.771  13.664   0.663 -0.5892 -0.0676  0.3677
23293SOL    HW187489   5.848  13.713   0.633 -1.3930  0.8217 -0.3038
23293SOL    HW287490   5.699  13.728   0.659 -1.5040 -1.0769  0.2736
23294SOL     OW87491   7.469   6.486  13.601 -0.4763 -0.3910 -0.0141
23294SOL    HW187492   7.547   6.453  13.645 -1.8705 -0.6088  2.5311
23294SOL    HW287493   7.473   6.451  13.512  1.6954 -1.3656  0.4249
23295SOL     OW87494   7.687   8.188   5.173 -0.5410 -0.2980 -0.2664
23295SOL    HW187495   7.736   8.125   5.226  0.2438  0.1216 -0.4777
23295SOL    HW287496   7.747   8.263   5.164 -1.2909  0.2932 -0.3830
23296SOL     OW87497  13.567   3.957  11.930  0.0444  0.0283  0.0361
23296SOL    HW187498  13.655   3.978  11.962  0.0035 -1.3971  1.1554
23296SOL    HW287499  13.531   4.042  11.903  2.4045  0.4142 -2.2239
23297SOL     OW87500   9.260   9.256   4.847 -0.0060 -0.2913  0.1025
23297SOL    HW187501   9.273   9.313   4.771 -0.2949  0.7256  0.7918
23297SOL    HW287502   9.315   9.180   4.829  0.9748  0.5313 -0.5137
23298SOL     OW87503  11.171  13.625   7.536  0.8661  0.0291  0.4279
23298SOL    HW187504  11.137  13.708   7.568  0.7558  0.1378  0.0377
23298SOL    HW287505  11.171  13.568   7.612 -0.6406 -0.1165  0.3383
23299SOL     OW87506   2.796  11.704   4.309  0.5080 -0.3160 -0.1738
23299SOL    HW187507   2.874  11.648   4.303  0.6220 -0.0662 -1.1342
23299SOL    HW287508   2.829  11.792   4.292  0.1114 -0.1321  0.0168
23300SOL     OW87509   3.760  13.332   2.374 -0.4012 -0.0315 -0.4189
23300SOL    HW187510   3.729  13.401   2.432 -1.6094  0.0755 -1.1474
23300SOL    HW287511   3.794  13.378   2.297  0.4944 -0.1964 -0.1313
23301SOL     OW87512   5.862  13.590   6.393 -0.1345 -0.1203 -0.0941
23301SOL    HW187513   5.922  13.597   6.319 -0.8066  0.8069 -0.5771
23301SOL    HW287514   5.909  13.538   6.458 -0.6829 -3.6686 -2.3069
23302SOL     OW87515   2.633   0.225   0.269  0.1476  0.5673  0.1838
23302SOL    HW187516   2.664   0.316   0.273 -0.7824  0.8547  1.4404
23302SOL    HW287517   2.538   0.232   0.283  0.0749 -0.5966  0.3130
23303SOL     OW87518  10.101   7.340   1.856  0.3155 -0.4680  0.1689
23303SOL    HW187519  10.117   7.251   1.825 -0.5576 -1.3406  2.0343
23303SOL    HW287520  10.028   7.331   1.917 -1.2780  1.9043 -1.2545
23304SOL     OW87521  12.760   5.525  12.761 -0.5782 -0.5507 -0.2899
23304SOL    HW187522  12.820   5.451  12.752 -0.2959 -0.2437 -1.1153
23304SOL    HW287523  12.816   5.596  12.795 -0.8581 -0.7255  0.5475
23305SOL     OW87524   8.401   6.128  13.650  0.1643  0.4561  0.9747
23305SOL    HW187525   8.308   6.112  13.631  0.1979 -0.7234  1.6734
23305SOL    HW287526   8.412   6.222  13.641 -1.0669  0.5882  0.7118
23306SOL     OW87527  12.340  11.586  10.962 -0.0298 -0.1066 -0.0798
23306SOL    HW187528  12.351  11.501  10.918  2.2945  0.1902 -0.1860
23306SOL    HW287529  12.245  11.596  10.971 -0.3886 -2.4585 -0.5565
23307SOL     OW87530   2.622   9.994   7.522 -0.5204 -0.4901 -0.3783
23307SOL    HW187531   2.545  10.039   7.557 -0.3160 -1.3809  1.3263
23307SOL    HW287532   2.629   9.915   7.575  1.6628 -0.3467 -0.3763
23308SOL     OW87533   4.185  10.477   4.542  0.4003  0.4774 -0.9333
23308SOL    HW187534   4.240  10.550   4.570  1.6475 -0.3251 -1.2240
23308SOL    HW287535   4.202  10.469   4.448 -0.0644  0.0860 -0.9886
23309SOL     OW87536   9.633   7.714   4.599 -0.3219  0.3538 -0.0666
23309SOL    HW187537   9.693   7.662   4.653  0.0186  2.0683  1.2573
23309SOL    HW287538   9.558   7.655   4.585  1.0849 -1.3746 -0.7088
23310SOL     OW87539   0.807   1.218  12.722 -0.4543 -0.0470 -0.2920
23310SOL    HW187540   0.889   1.173  12.741 -0.5453  0.0104  0.2677
23310SOL    HW287541   0.743   1.148  12.710 -0.6006 -0.0828  0.5986
23311SOL     OW87542  14.001   0.997  13.016 -0.1686 -0.1844 -0.0276
23311SOL    HW187543  13.906   0.993  13.007 -0.1807 -0.7333  0.2713
23311SOL    HW287544  14.024   1.087  12.992 -0.7750 -0.0087  0.0316
23312SOL     OW87545   0.466  13.687  13.605  0.3901 -0.3105  0.0159
23312SOL    HW187546   0.413  13.609  13.588 -1.3146  0.7775  0.1794
23312SOL    HW287547   0.471  13.693  13.700  0.5055 -0.2103  0.0039
23313SOL     OW87548   4.729  12.534   5.227  0.6554  0.0340 -0.1966
23313SOL    HW187549   4.779  12.603   5.271 -0.1946  1.2907 -1.1097
23313SOL    HW287550   4.721  12.465   5.293  2.0524  0.5335  0.5491
23314SOL     OW87551  14.086   5.527   3.363 -0.4840 -0.1511 -0.4098
23314SOL    HW187552  14.089   5.592   3.294 -0.6691  0.2930 -0.0066
23314SOL    HW287553  14.149   5.460   3.336  2.3284  1.8029  0.7848
23315SOL     OW87554   8.313   0.110  12.794  0.4632  0.1752 -0.2675
23315SOL    HW187555   8.382   0.060  12.750 -0.5059  0.2546 -1.9683
23315SOL    HW287556   8.354   0.195  12.813  1.4658 -0.5035  0.7127
23316SOL     OW87557  10.251   8.559  11.023  0.8069 -0.5945 -0.1876
23316SOL    HW187558  10.271   8.512  10.942 -1.2629 -1.6235 -0.1676
23316SOL    HW287559  10.205   8.638  10.994 -0.5179 -1.2825 -0.0331
23317SOL     OW87560  11.104   9.741  11.946  0.3146 -0.0943  0.5622
23317SOL    HW187561  11.112   9.707  11.857  1.2647 -1.1115  1.0049
23317SOL    HW287562  11.087   9.664  12.000 -1.2971  0.6362  1.1608
23318SOL     OW87563   6.412   8.504  12.415  0.3859 -0.6286  0.1205
23318SOL    HW187564   6.430   8.415  12.386  2.6883 -0.6831  1.4687
23318SOL    HW287565   6.463   8.559  12.356 -2.7118  0.1006 -2.1302
23319SOL     OW87566  12.274  11.755   3.722 -0.0398  0.0676  0.1328
23319SOL    HW187567  12.262  11.841   3.683 -0.4477 -0.2180 -0.3899
23319SOL    HW287568  12.244  11.765   3.812 -0.5484  0.3499 -0.0652
23320SOL     OW87569   2.482  11.269   0.412  0.4245 -0.5635 -0.6064
23320SOL    HW187570   2.435  11.318   0.478  1.9752  1.5452 -0.9510
23320SOL    HW287571   2.561  11.237   0.456 -1.0587 -3.9318 -0.0664
23321SOL     OW87572   0.619   1.244   8.529  0.1491 -0.0440 -0.1237
23321SOL    HW187573   0.650   1.298   8.456  0.2511  0.7185  0.4583
23321SOL    HW287574   0.545   1.293   8.565 -0.3192 -0.7406 -0.1168
23322SOL     OW87575  13.683  10.374  11.690 -0.2234 -0.0984 -0.1725
23322SOL    HW187576  13.760  10.391  11.636 -0.4894  1.4095 -0.1104
23322SOL    HW287577  13.610  10.368  11.627 -0.3166  0.2191 -0.0947
23323SOL     OW87578   1.789   1.256  11.686 -0.3850 -0.5144  0.0945
23323SOL    HW187579   1.745   1.248  11.771  0.2408 -0.7593  0.3994
23323SOL    HW287580   1.863   1.196  11.691  0.1515  0.0957 -0.3126
23324SOL     OW87581  10.242   5.207   1.279 -0.0726 -0.5279 -0.2828
23324SOL    HW187582  10.238   5.138   1.345 -0.1427 -1.1659 -0.9397
23324SOL    HW287583  10.168   5.188   1.221 -0.1181  0.1329 -0.4439
23325SOL     OW87584   9.619   2.233  11.231  0.3271 -0.3619 -0.2147
23325SOL    HW187585   9.603   2.169  11.300  1.3721  0.5422  0.8923
23325SOL    HW287586   9.686   2.291  11.266 -0.3178  1.1260 -1.3440
23326SOL     OW87587  13.355  13.004   6.296  0.3940 -0.5911 -0.1180
23326SOL    HW187588  13.290  13.014   6.228  1.6391 -0.8293 -1.3994
23326SOL    HW287589  13.364  13.091   6.335 -0.1161 -0.3828 -0.4646
23327SOL     OW87590  11.004  12.408   1.928  0.2196  0.2129  0.2698
23327SOL    HW187591  10.982  12.501   1.937 -1.3111 -0.1742  0.7406
23327SOL    HW287592  11.061  12.390   2.002 -0.3306  0.5430  0.7815
23328SOL     OW87593  11.897   7.096   7.338 -0.4234  0.1035 -0.0693
23328SOL    HW187594  11.914   7.144   7.257  3.2070 -0.0204  0.4428
23328SOL    HW287595  11.864   7.011   7.310 -0.9562  0.6906 -1.2845
23329SOL     OW87596   2.927  13.449   2.403 -0.0755  0.1906 -0.1592
23329SOL    HW187597   2.899  13.498   2.481 -1.4197  1.7203 -1.5337
23329SOL    HW287598   2.993  13.388   2.436  1.2084  2.4561  1.7995
23330SOL     OW87599   2.086   9.315  10.674 -0.0231 -0.1406  0.3841
23330SOL    HW187600   2.137   9.333  10.596 -2.1856  0.5985 -0.9581
23330SOL    HW287601   2.059   9.223  10.664  2.3583 -1.0998  1.9681
23331SOL     OW87602   0.630  12.262   3.274 -0.1599 -0.1098 -0.0003
23331SOL    HW187603   0.715  12.275   3.316 -0.0747 -1.3969  0.2548
23331SOL    HW287604   0.613  12.168   3.282 -0.5624 -0.2483 -2.0724
23332SOL     OW87605   1.693  11.700   3.242  1.2200 -0.1840 -0.0797
23332SOL    HW187606   1.662  11.739   3.324  0.3287 -0.1498 -0.4312
23332SOL    HW287607   1.618  11.704   3.183  1.6084 -0.9464 -0.6429
23333SOL     OW87608   9.216  13.776   1.908  0.0351  0.2249 -0.3925
23333SOL    HW187609   9.267  13.794   1.829  1.4449 -0.3929  0.3378
23333SOL    HW287610   9.246  13.841   1.971 -2.7857  2.2738 -0.9992
23334SOL     OW87611   8.082   8.635  13.595  0.5648 -0.3662 -0.9327
23334SOL    HW187612   8.084   8.646  13.500  0.2550  0.9813 -0.7979
23334SOL    HW287613   7.989   8.632  13.617  0.6338 -0.4434 -0.6454
23335SOL     OW87614  10.887   1.627  10.319 -0.0640 -0.1444  0.2951
23335SOL    HW187615  10.841   1.544  10.306  0.5704 -0.7061  1.4958
23335SOL    HW287616  10.967   1.619  10.266  0.4004 -0.6547  1.0505
23336SOL     OW87617   9.031   1.009   4.844 -0.1750  0.3070  0.1856
23336SOL    HW187618   8.992   1.022   4.758  1.2137 -0.4050 -0.5900
23336SOL    HW287619   8.975   1.059   4.904 -0.1149  2.3194 -1.3555
23337SOL     OW87620  13.658  13.725   9.681 -0.3167  0.2420  0.2160
23337SOL    HW187621  13.638  13.713   9.589 -0.5171  0.1018  0.2757
23337SOL    HW287622  13.705  13.808   9.686 -2.0230  1.2578  0.2260
23338SOL     OW87623  12.882   9.231   4.067  0.0977  0.4204  0.2914
23338SOL    HW187624  12.855   9.187   3.985 -0.3979  0.4120  0.4514
23338SOL    HW287625  12.832   9.313   4.067  0.4968  0.6642  0.3331
23339SOL     OW87626   0.845   7.791   1.751 -0.8207  0.1206 -0.4739
23339SOL    HW187627   0.838   7.830   1.664  0.5423 -1.1700 -1.2051
23339SOL    HW287628   0.767   7.737   1.760 -1.1796  0.5950 -0.7047
23340SOL     OW87629   5.412  12.899  10.957 -0.3332  0.2393  0.0706
23340SOL    HW187630   5.321  12.884  10.932 -0.1880 -0.7831  0.1210
23340SOL    HW287631   5.443  12.967  10.897 -1.5266  1.6092  0.9698
23341SOL     OW87632   9.361  11.529   9.253 -0.3719  0.1565  0.5407
23341SOL    HW187633   9.310  11.469   9.199  0.4372 -1.2675  1.2854
23341SOL    HW287634   9.338  11.505   9.343  0.8856  0.1279  0.8716
23342SOL     OW87635   9.959   8.793   0.794 -0.3707 -0.7144  0.0868
23342SOL    HW187636   9.897   8.771   0.725 -0.8663 -1.3864  0.7397
23342SOL    HW287637   9.908   8.847   0.855 -0.0782 -0.5529  0.1874
23343SOL     OW87638   5.840  10.076   3.892 -0.3627 -0.4047 -0.5648
23343SOL    HW187639   5.856  10.090   3.798 -2.3855 -0.2115 -0.9333
23343SOL    HW287640   5.823  10.164   3.927 -2.6715 -0.7305 -0.7060
23344SOL     OW87641   6.878  11.494   8.085  0.7543  0.3118 -0.1056
23344SOL    HW187642   6.957  11.475   8.136  0.8129  2.7792  0.8719
23344SOL    HW287643   6.806  11.482   8.147  0.6245  0.9885 -0.1197
23345SOL     OW87644  12.812   7.400   9.675 -0.2117 -0.5566  0.1177
23345SOL    HW187645  12.869   7.333   9.638 -0.3599 -1.0585  0.7739
23345SOL    HW287646  12.724   7.375   9.646 -0.0263  0.9367 -1.9885
23346SOL     OW87647   5.637   6.148  13.791 -0.3855  0.0008 -0.6399
23346SOL    HW187648   5.560   6.096  13.813 -0.0622 -0.4560 -0.5618
23346SOL    HW287649   5.606   6.210  13.724 -0.4960 -1.1391 -1.6935
23347SOL     OW87650  10.428   7.781   7.117  0.1614  0.6435 -0.3732
23347SOL    HW187651  10.467   7.716   7.059  1.4091  0.8660  0.2026
23347SOL    HW287652  10.351   7.737   7.153 -0.0058  0.1177 -1.3341
23348SOL     OW87653   1.449   5.732   8.206  0.3226  0.1307  0.0090
23348SOL    HW187654   1.398   5.776   8.138 -2.6641 -0.3129  1.8025
23348SOL    HW287655   1.471   5.647   8.169 -0.2297  0.3345 -0.8020
23349SOL     OW87656   0.824  13.685   0.612  0.0352 -0.3785  0.0674
23349SOL    HW187657   0.777  13.723   0.538 -1.8286  1.2196  1.9483
23349SOL    HW287658   0.872  13.759   0.650  1.7908 -1.3810 -0.0698
23350SOL     OW87659   3.966  10.547  12.356 -0.3605  0.2927 -0.2287
23350SOL    HW187660   4.001  10.481  12.416  0.2882  1.6374  0.9267
23350SOL    HW287661   3.883  10.573  12.396  0.0309  1.1253  0.0608
23351SOL     OW87662   5.739   5.750   0.912  0.1502  0.5113  0.0194
23351SOL    HW187663   5.739   5.733   1.006  0.8178 -1.8084 -0.3449
23351SOL    HW287664   5.665   5.810   0.898 -0.9890 -0.4210  1.8013
23352SOL     OW87665   7.279   0.433   3.311 -0.1430 -0.4594 -0.1764
23352SOL    HW187666   7.337   0.498   3.351 -3.1937  1.6932  1.2109
23352SOL    HW287667   7.211   0.419   3.377 -2.4067 -1.0752 -2.4757
23353SOL     OW87668   5.065   8.883   5.864  0.4367 -0.3372 -0.8157
23353SOL    HW187669   5.094   8.803   5.908  2.0770  0.2828 -0.7132
23353SOL    HW287670   4.996   8.853   5.805 -1.6652 -1.2466  1.8679
23354SOL     OW87671   4.855  12.103   3.856  0.4153  0.3836  0.6202
23354SOL    HW187672   4.827  12.191   3.829  0.1915  0.8196  2.2034
23354SOL    HW287673   4.838  12.100   3.950  2.4149 -0.5984  1.0089
23355SOL     OW87674   5.739   6.743   3.534 -0.2271  0.5202 -0.2624
23355SOL    HW187675   5.677   6.686   3.489  0.6670  1.2281 -2.5405
23355SOL    HW287676   5.716   6.735   3.627 -2.0052 -1.2256 -0.7800
23356SOL     OW87677  12.311  11.319  10.868 -0.1493  0.2501 -0.1498
23356SOL    HW187678  12.241  11.330  10.803 -0.5020 -0.5639  0.0819
23356SOL    HW287679  12.270  11.270  10.939  0.2013  1.2042  0.7451
23357SOL     OW87680   5.181  12.594  11.398 -0.3463 -0.2731 -0.2036
23357SOL    HW187681   5.223  12.509  11.406 -1.2126 -0.5848  1.3673
23357SOL    HW287682   5.089  12.578  11.418 -0.6181  0.9466 -0.3788
23358SOL     OW87683   2.583  11.914  10.505 -0.1905  0.5912 -0.4293
23358SOL    HW187684   2.659  11.921  10.564  0.4887 -1.5977 -0.9418
23358SOL    HW287685   2.616  11.944  10.420 -0.3830  1.1557 -0.3106
23359SOL     OW87686  11.672   7.638  10.522 -0.2406 -0.1213  0.0090
23359SOL    HW187687  11.589   7.685  10.536 -1.1051 -1.4519 -0.5078
23359SOL    HW287688  11.673   7.571  10.589  1.0226  0.6266  0.7771
23360SOL     OW87689  12.594  13.384   4.899 -0.4489  0.0594  0.2427
23360SOL    HW187690  12.643  13.399   4.818  1.2884 -2.2526  0.7592
23360SOL    HW287691  12.512  13.344   4.870 -0.6590  0.9561 -0.4462
23361SOL     OW87692   8.888   1.894  11.025  0.5928 -0.2034 -0.0778
23361SOL    HW187693   8.914   1.802  11.033 -2.9434 -1.4064 -0.8075
23361SOL    HW287694   8.948   1.930  10.959  1.4045 -2.2691 -0.5557
23362SOL     OW87695   0.169   2.085   5.505  0.4253  0.5807  0.2909
23362SOL    HW187696   0.231   2.083   5.432  1.4392 -0.6311  1.1487
23362SOL    HW287697   0.170   1.996   5.540 -1.6083  0.5923  0.5208
23363SOL     OW87698   3.608   4.039  10.811 -0.3051  0.7181  0.1084
23363SOL    HW187699   3.595   3.971  10.877 -1.1191 -1.0368 -1.7531
23363SOL    HW287700   3.523   4.049  10.770  1.0382 -1.8531 -3.8976
23364SOL     OW87701   6.181   0.083  11.118  0.1425  0.0204  0.0127
23364SOL    HW187702   6.135   0.090  11.202 -1.4493 -0.7907 -0.7360
23364SOL    HW287703   6.272   0.106  11.138 -0.4762  1.2324  1.6635
23365SOL     OW87704  13.476   5.603  12.300 -0.1556 -0.3172 -0.0254
23365SOL    HW187705  13.435   5.555  12.372 -1.1465  1.9938  1.0644
23365SOL    HW287706  13.417   5.677  12.284  0.9775  0.2339 -2.0121
23366SOL     OW87707  11.029  11.902   0.595 -0.1639  0.2479  0.1945
23366SOL    HW187708  11.024  11.878   0.502 -0.6471  0.4665  0.1638
23366SOL    HW287709  10.996  11.991   0.599  0.9986  0.6885  0.4089
23367SOL     OW87710   4.881  12.250   4.418  0.2162  0.3387 -0.0520
23367SOL    HW187711   4.881  12.179   4.482 -0.7093  0.6309  0.2899
23367SOL    HW287712   4.861  12.328   4.470 -2.2969  0.3451 -0.9181
23368SOL     OW87713  12.289   6.986   3.615  0.0479 -0.3754 -0.1041
23368SOL    HW187714  12.224   7.029   3.670  2.7369  0.2248  2.9024
23368SOL    HW287715  12.245   6.974   3.531 -3.0282  2.2874  0.9149
23369SOL     OW87716   8.684   0.388   2.310 -0.6404 -0.1731 -0.6983
23369SOL    HW187717   8.638   0.314   2.268 -2.5543  0.7681 -0.3667
23369SOL    HW287718   8.645   0.394   2.397 -0.9336  1.5608 -0.9193
23370SOL     OW87719   2.506  11.382   6.507  0.1097  0.0103  0.4056
23370SOL    HW187720   2.598  11.365   6.489 -0.4181 -1.3544 -1.3892
23370SOL    HW287721   2.472  11.298   6.538 -0.6536  0.3165  0.4142
23371SOL     OW87722  12.300   1.024   0.419  0.2875 -0.0712 -0.4001
23371SOL    HW187723  12.305   1.073   0.336 -0.3867 -0.1231 -0.4822
23371SOL    HW287724  12.258   0.941   0.395 -0.2571  0.0682  0.0545
23372SOL     OW87725  11.108   7.897   4.120 -0.1455  0.0292  0.2633
23372SOL    HW187726  11.152   7.914   4.203 -0.6865 -3.4936  1.4402
23372SOL    HW287727  11.020   7.871   4.145 -0.8304  0.4791 -1.5767
23373SOL     OW87728   7.511  13.371   9.947 -1.0163  0.1230  0.4388
23373SOL    HW187729   7.541  13.450   9.992  0.5678 -1.1137  1.7232
23373SOL    HW287730   7.527  13.388   9.854 -0.3484  1.1773  0.7327
23374SOL     OW87731   0.475   4.703  12.585  0.4292  0.0953 -0.1292
23374SOL    HW187732   0.540   4.768  12.612  1.0284 -0.8787  0.8695
23374SOL    HW287733   0.444   4.665  12.667 -1.1167  0.2590 -0.6142
23375SOL     OW87734   3.457   0.569   3.788  0.0805  0.2493 -0.5196
23375SOL    HW187735   3.366   0.591   3.810  0.2361 -0.1994  0.6199
23375SOL    HW287736   3.464   0.475   3.807  1.3054  0.6540  1.3315
23376SOL     OW87737   0.183   0.734  12.219 -0.1401 -0.0281 -0.3978
23376SOL    HW187738   0.171   0.814  12.271 -0.6811  0.7805 -1.7249
23376SOL    HW287739   0.180   0.664  12.284  0.6305  1.0303  0.8326
23377SOL     OW87740   0.660   6.409   4.166  0.1836  0.1073 -0.4839
23377SOL    HW187741   0.634   6.318   4.178  1.9054 -0.5480 -1.3341
23377SOL    HW287742   0.685   6.440   4.253 -2.9518  0.6807  0.3131
23378SOL     OW87743   0.274   7.889   2.331 -0.5015 -0.2751  0.1972
23378SOL    HW187744   0.287   7.795   2.347 -1.2822 -0.1575  1.7103
23378SOL    HW287745   0.207   7.915   2.395 -2.1660  0.7987 -1.8603
23379SOL     OW87746  11.680   9.626   9.119  0.1816  0.4729 -0.2675
23379SOL    HW187747  11.638   9.664   9.041  0.9039  0.3451 -0.7250
23379SOL    HW287748  11.736   9.557   9.084 -1.7342 -1.6635  0.5927
23380SOL     OW87749   7.996   5.127  12.774 -0.7850 -0.7237  0.3064
23380SOL    HW187750   7.913   5.137  12.728  0.2508  2.3113 -1.2156
23380SOL    HW287751   7.988   5.184  12.850  0.0452  0.1083 -0.1973
23381SOL     OW87752   4.890   2.971   7.849 -0.2714  0.0204 -0.1495
23381SOL    HW187753   4.920   2.944   7.937  0.2496  1.0109 -0.0049
23381SOL    HW287754   4.948   3.044   7.826 -0.6439  0.0043 -1.1722
23382SOL     OW87755   6.887   8.817   0.031 -0.2469  0.4875 -0.4486
23382SOL    HW187756   6.845   8.879   0.092 -0.0510 -0.7368  1.0076
23382SOL    HW287757   6.980   8.837   0.037 -0.0755 -0.5200  0.7780
23383SOL     OW87758   5.414   0.503   3.415 -0.2583 -0.0010  0.5170
23383SOL    HW187759   5.401   0.597   3.422  0.8960  0.0588  2.2856
23383SOL    HW287760   5.330   0.470   3.383 -1.0467  1.4984  0.9507
23384SOL     OW87761   7.989  13.806  11.903 -0.0364  0.1599  0.6826
23384SOL    HW187762   8.010  13.867  11.973  0.3459  2.5687 -1.3859
23384SOL    HW287763   7.907  13.839  11.865 -0.9580 -1.8436  0.7386
23385SOL     OW87764   9.242   0.143  10.996 -0.1613  0.3899 -0.3345
23385SOL    HW187765   9.165   0.190  11.028  0.1970  1.0864 -0.4688
23385SOL    HW287766   9.301   0.212  10.965  0.4728 -0.1374 -0.3321
23386SOL     OW87767   8.475  13.283   9.472 -0.2809  0.4090 -0.1293
23386SOL    HW187768   8.493  13.309   9.381  1.3286  0.3575  0.1378
23386SOL    HW287769   8.555  13.306   9.519 -0.0806 -1.9428  0.7691
23387SOL     OW87770  11.967   4.735   6.712 -0.2302  0.0938  0.0843
23387SOL    HW187771  11.959   4.771   6.800  0.8652 -1.7958  1.0251
23387SOL    HW287772  11.877   4.710   6.688 -0.4526  0.1053  0.8974
23388SOL     OW87773   5.059   0.070   2.925 -0.5700 -0.2487 -0.1551
23388SOL    HW187774   4.991   0.009   2.897 -0.4556 -0.7358  0.5892
23388SOL    HW287775   5.014   0.153   2.941 -1.0183 -0.6015  0.4486
23389SOL     OW87776   4.696   3.729   8.196  0.1538  0.4712 -0.0600
23389SOL    HW187777   4.785   3.694   8.194  0.4297  1.0114  1.5666
23389SOL    HW287778   4.688   3.778   8.114  2.3313  2.6862  0.9279
23390SOL     OW87779   0.661   2.088   6.967  0.5962 -0.3560 -0.2390
23390SOL    HW187780   0.684   2.003   6.930  0.6185 -0.0847 -0.8716
23390SOL    HW287781   0.660   2.147   6.891 -0.2461  0.0350  0.0648
23391SOL     OW87782   7.766   5.936  13.689  0.4202 -0.1196 -0.5271
23391SOL    HW187783   7.768   5.975  13.777  1.7817  1.3284 -1.1534
23391SOL    HW287784   7.766   6.011  13.630  1.2094 -1.0747 -1.7917
23392SOL     OW87785   0.154   0.881  10.959  0.0483 -0.2050  0.0389
23392SOL    HW187786   0.179   0.915  10.873  0.9562  1.4398  0.8987
23392SOL    HW287787   0.209   0.929  11.021 -1.8823  0.0581  1.6817
23393SOL     OW87788   3.469   6.362  10.152 -0.1985  0.1655 -0.1420
23393SOL    HW187789   3.454   6.280  10.103  0.4414  0.2186 -0.4352
23393SOL    HW287790   3.413   6.426  10.109 -0.3464 -0.0072 -0.2091
23394SOL     OW87791   9.209   8.768   9.846  0.3423 -0.6844 -0.1904
23394SOL    HW187792   9.229   8.851   9.889  0.0752 -1.2416  1.0483
23394SOL    HW287793   9.294   8.739   9.811  0.9195 -0.9880  1.3751
23395SOL     OW87794   1.559   2.892   4.129  0.0703 -0.0485 -0.3355
23395SOL    HW187795   1.610   2.967   4.101 -0.7415  0.5562 -0.2131
23395SOL    HW287796   1.469   2.922   4.128 -0.2045 -0.8050  0.3840
23396SOL     OW87797   0.584   0.296   5.587  0.1849  0.1526 -0.1959
23396SOL    HW187798   0.601   0.227   5.522 -2.7127 -0.1830 -0.7429
23396SOL    HW287799   0.560   0.372   5.535  2.5680  1.4255  0.4402
23397SOL     OW87800   6.353   1.076  11.099 -0.9877 -0.3361 -0.1950
23397SOL    HW187801   6.401   1.022  11.036 -0.5780  0.8513 -0.9476
23397SOL    HW287802   6.401   1.159  11.099 -4.0773  1.6724 -2.5102
23398SOL     OW87803   2.550  11.203   9.602  0.4360 -0.4146  0.2503
23398SOL    HW187804   2.461  11.187   9.634  0.8110 -0.4168  1.3267
23398SOL    HW287805   2.544  11.284   9.552 -0.2791 -0.7148 -0.1630
23399SOL     OW87806   5.971  10.831   5.982 -0.6339 -0.7465 -0.7118
23399SOL    HW187807   5.896  10.780   6.012 -0.0717 -0.8954  0.4977
23399SOL    HW287808   5.964  10.830   5.887 -0.5814 -3.1875 -0.7585
23400SOL     OW87809  12.307   8.823  11.139  0.4844 -0.0777 -0.2635
23400SOL    HW187810  12.364   8.886  11.095  0.7726 -0.3466 -0.2717
23400SOL    HW287811  12.363   8.781  11.204  0.2364 -0.1784 -0.1129
23401SOL     OW87812  10.514  12.146   3.644  0.0069  0.5717 -0.3727
23401SOL    HW187813  10.501  12.220   3.704 -0.8267  1.5765 -1.7544
23401SOL    HW287814  10.598  12.109   3.671  0.5337  2.1275  0.2434
23402SOL     OW87815   3.356   6.923  14.033  0.0345  0.3419  0.3898
23402SOL    HW187816   3.362   6.828  14.035 -0.5803  0.2926  0.2141
23402SOL    HW287817   3.350   6.949  14.125 -2.4313  0.0019  0.3833
23403SOL     OW87818  12.461   9.774  12.923 -0.3846  0.1469 -0.3562
23403SOL    HW187819  12.409   9.837  12.972  1.0602  0.4993  0.7854
23403SOL    HW287820  12.552   9.803  12.934  0.0799 -0.3266 -2.4369
23404SOL     OW87821  13.238   4.108   0.706 -0.5965  0.5077 -0.2711
23404SOL    HW187822  13.151   4.135   0.674 -1.3091  0.2202  1.2935
23404SOL    HW287823  13.254   4.165   0.781 -1.3846 -2.1510  2.0913
23405SOL     OW87824  13.281  13.872   2.350 -0.3517  0.4072  0.2427
23405SOL    HW187825  13.325  13.815   2.287  0.4712  1.2295  0.0590
23405SOL    HW287826  13.235  13.937   2.296 -2.3190 -0.7598  0.3963
23406SOL     OW87827  10.119   9.359  14.005  0.0962  0.2026  0.1803
23406SOL    HW187828  10.122   9.264  13.998 -0.2738  0.2860 -1.7944
23406SOL    HW287829  10.118   9.377  14.099 -1.5825 -1.8075  0.6079
23407SOL     OW87830   4.272   5.330  12.976 -0.0809 -0.2109  0.2125
23407SOL    HW187831   4.334   5.402  12.969 -0.0199 -0.4039 -1.6138
23407SOL    HW287832   4.188   5.373  12.993  0.1716  0.1870  0.4841
23408SOL     OW87833   0.385  10.945   1.530 -0.0772  0.3386  0.1666
23408SOL    HW187834   0.430  10.974   1.609 -1.7563  2.7558  0.3359
23408SOL    HW287835   0.302  10.908   1.562 -0.0940 -0.1049 -0.3783
23409SOL     OW87836   4.009   9.258   7.792 -0.8991  0.1319  0.9266
23409SOL    HW187837   3.927   9.222   7.825 -0.5301 -0.1548  1.5344
23409SOL    HW287838   3.982   9.318   7.722 -1.5183 -1.4255 -0.2324
23410SOL     OW87839   9.290   0.723  10.760  1.0381 -0.2637 -0.7882
23410SOL    HW187840   9.385   0.709  10.759  1.2808  0.5529  1.8716
23410SOL    HW287841   9.255   0.650  10.810  0.2634 -0.4516 -1.5837
23411SOL     OW87842  11.803  13.071   5.687 -0.1455 -0.1653  0.2812
23411SOL    HW187843  11.710  13.069   5.708 -0.0219  1.7940  1.3210
23411SOL    HW287844  11.820  13.163   5.665  1.1336 -0.8735 -2.0513
23412SOL     OW87845   5.655   6.333   0.707  0.3809 -0.4792 -0.3132
23412SOL    HW187846   5.603   6.331   0.627 -0.8542 -0.0829  0.4310
23412SOL    HW287847   5.628   6.415   0.751  0.1580 -1.2292  1.0199
23413SOL     OW87848   2.830   5.775   9.462 -0.3657 -0.1669 -0.8847
23413SOL    HW187849   2.866   5.804   9.378 -0.0152  0.5716 -0.4795
23413SOL    HW287850   2.739   5.751   9.441 -0.0554 -0.7383 -1.6289
23414SOL     OW87851   7.455   8.876   5.209 -0.8220 -0.0906  0.6329
23414SOL    HW187852   7.470   8.969   5.191 -1.9046  0.3905  1.9754
23414SOL    HW287853   7.383   8.852   5.151  0.0608 -0.3736 -0.3850
23415SOL     OW87854   5.173   9.593   4.758 -0.7531 -0.0592 -0.1222
23415SOL    HW187855   5.118   9.591   4.680 -1.7680  0.6601  0.5527
23415SOL    HW287856   5.124   9.543   4.823 -0.5339  0.4533  0.4431
23416SOL     OW87857   6.787   3.516  11.018 -0.1408 -0.4509 -0.1260
23416SOL    HW187858   6.737   3.454  10.965  0.4380  0.7739 -2.2247
23416SOL    HW287859   6.811   3.466  11.096 -1.0277 -2.3621 -0.9982
23417SOL     OW87860   8.244   7.566   2.139  0.4484  0.2745  0.2507
23417SOL    HW187861   8.270   7.624   2.067 -0.3653  0.4476  0.0850
23417SOL    HW287862   8.157   7.597   2.164  0.1668 -0.6386  0.4205
23418SOL     OW87863   2.983  13.140  10.672  0.0220 -0.2315 -0.3476
23418SOL    HW187864   2.935  13.132  10.590  1.5399 -0.1501 -1.2798
23418SOL    HW287865   2.924  13.103  10.738 -1.7987  0.9382 -1.2289
23419SOL     OW87866   1.498   1.855   6.224  0.0977 -0.3229 -0.1094
23419SOL    HW187867   1.490   1.901   6.308  2.2206 -0.9089  0.4745
23419SOL    HW287868   1.524   1.924   6.162  0.6677 -0.2533  0.1975
23420SOL     OW87869   8.487  13.386   4.919  0.0730 -0.2827  0.0904
23420SOL    HW187870   8.401  13.413   4.888 -0.0861 -2.6775 -1.7852
23420SOL    HW287871   8.548  13.446   4.876 -0.4796 -0.3773 -0.8334
23421SOL     OW87872  13.697   3.547   5.763 -0.3309  0.0362  0.4313
23421SOL    HW187873  13.749   3.474   5.729  0.0265  0.7870 -0.7043
23421SOL    HW287874  13.762   3.609   5.795 -0.4828  0.9932 -1.0266
23422SOL     OW87875   8.059  10.359   4.299 -0.1341  0.9210  0.1840
23422SOL    HW187876   8.152  10.369   4.280 -0.2299  0.9098 -0.3057
23422SOL    HW287877   8.054  10.280   4.352  0.2483  1.5167  1.1314
23423SOL     OW87878  12.773   7.928   6.313  0.0685  0.0788 -0.0974
23423SOL    HW187879  12.823   8.000   6.350 -1.9566  0.9409  1.1418
23423SOL    HW287880  12.784   7.856   6.375  0.2230  0.0867 -0.1164
23424SOL     OW87881   5.764  12.317   2.696  0.4071 -0.6314  0.4762
23424SOL    HW187882   5.841  12.374   2.695  0.4047 -0.5247 -2.2792
23424SOL    HW287883   5.793  12.238   2.741  2.4274 -0.8588 -1.0601
23425SOL     OW87884   2.078   7.031   4.247  0.0519 -0.0678 -0.0491
23425SOL    HW187885   2.099   6.993   4.162  0.7528 -0.3984  0.2667
23425SOL    HW287886   2.012   6.973   4.283 -1.9436  1.2847 -1.2826
23426SOL     OW87887   5.615   9.020   6.241  0.1040  0.0554 -1.0737
23426SOL    HW187888   5.676   9.029   6.168 -0.4820 -0.8257 -1.6888
23426SOL    HW287889   5.659   8.962   6.302 -0.0450 -0.4544 -1.4459
23427SOL     OW87890  11.347   0.068   0.676  0.0701  0.1162 -0.1923
23427SOL    HW187891  11.360   0.076   0.581  1.4461 -0.1592 -0.0517
23427SOL    HW287892  11.336  -0.026   0.691  1.3979 -0.0219  0.0652
23428SOL     OW87893   1.790  10.187  12.390  0.5459  0.5960  0.5918
23428SOL    HW187894   1.753  10.104  12.420  0.3756 -0.2509 -1.7817
23428SOL    HW287895   1.880  10.187  12.424  0.2065 -0.0330  1.5313
23429SOL     OW87896  11.423   1.007   6.001 -0.2820 -0.0700  0.6909
23429SOL    HW187897  11.453   1.088   5.960  0.2360  0.0417  1.2914
23429SOL    HW287898  11.359   0.972   5.939 -1.3196  1.3380  0.9160
23430SOL     OW87899   5.471   6.922   0.091 -0.2074 -0.1603 -0.1007
23430SOL    HW187900   5.408   6.949   0.158  0.6141 -0.6631  0.8997
23430SOL    HW287901   5.541   6.988   0.096 -0.9764  0.8295 -1.7318
23431SOL     OW87902   4.913   6.483   7.594  0.4228  0.5357 -0.0169
23431SOL    HW187903   4.930   6.505   7.502  0.8613  0.6557  0.0905
23431SOL    HW287904   4.821   6.457   7.596  1.1262 -2.4302 -1.0467
23432SOL     OW87905   3.981  11.035   2.006  0.2823 -0.4379 -0.0816
23432SOL    HW187906   3.984  11.067   1.917  3.5128  2.0538  0.7554
23432SOL    HW287907   3.897  11.067   2.040  0.6555  1.9372 -1.1724
23433SOL     OW87908   0.005   1.118   7.457  0.1871  0.5619 -0.2762
23433SOL    HW187909  -0.074   1.150   7.500  0.4504  2.3092 -0.9912
23433SOL    HW287910   0.077   1.159   7.505  0.6002  0.0023 -0.4126
23434SOL     OW87911  12.637   1.893   4.103  0.3771  0.1760  0.5845
23434SOL    HW187912  12.698   1.844   4.157 -0.3885  1.9505  3.2567
23434SOL    HW287913  12.674   1.981   4.099  0.0596  0.2672 -1.2908
23435SOL     OW87914   1.943  10.435   7.932 -0.5305 -0.5997  0.1319
23435SOL    HW187915   2.033  10.442   7.899 -0.9797  0.0686 -0.9970
23435SOL    HW287916   1.896  10.388   7.864 -1.1111 -0.6869  0.5855
23436SOL     OW87917  11.970   4.914   5.996 -0.0197  0.0361  0.3350
23436SOL    HW187918  11.966   4.914   6.092  1.6043  0.8393  0.4425
23436SOL    HW287919  12.062   4.934   5.977 -0.9852  3.4394 -1.3930
23437SOL     OW87920   3.674   9.438   5.325  0.0268  0.3378  0.1806
23437SOL    HW187921   3.767   9.454   5.341 -0.1290  0.7106  0.7143
23437SOL    HW287922   3.642   9.517   5.282 -0.1657  0.4346  0.4967
23438SOL     OW87923   6.865   9.459   0.307 -0.2930  0.1004  0.4622
23438SOL    HW187924   6.929   9.516   0.350 -1.2264 -0.8123  3.2858
23438SOL    HW287925   6.907   9.373   0.305 -0.5317 -0.0121  0.0888
23439SOL     OW87926  12.285   9.406   5.355 -0.3967  0.0025  0.0450
23439SOL    HW187927  12.260   9.320   5.323 -1.3513  0.2174  0.1880
23439SOL    HW287928  12.381   9.404   5.357 -0.4042 -1.7327  1.8510
23440SOL     OW87929   3.979  12.891  12.626  0.1735 -0.0048  0.7309
23440SOL    HW187930   4.012  12.832  12.558 -0.4134 -0.2216  0.6274
23440SOL    HW287931   4.004  12.978  12.595 -0.3472 -0.0766  0.0848
23441SOL     OW87932  12.533   3.580   6.195 -0.3940  0.1353 -0.4931
23441SOL    HW187933  12.586   3.519   6.143 -0.8363  0.3843 -1.2545
23441SOL    HW287934  12.514   3.533   6.276  1.7756  0.3920  0.2103
23442SOL     OW87935  13.797  11.003   9.161 -0.3430  0.4882 -0.6482
23442SOL    HW187936  13.806  11.064   9.087 -1.0593  0.7111 -0.5682
23442SOL    HW287937  13.797  11.059   9.238 -0.6940  0.3623 -0.5539
23443SOL     OW87938  13.815   9.559  13.492 -0.6945  0.1464 -0.4084
23443SOL    HW187939  13.721   9.563  13.473 -0.8074 -0.2295  0.0554
23443SOL    HW287940  13.857   9.577  13.408 -1.1829  0.2651 -0.6307
23444SOL     OW87941  13.078  14.069   7.946  0.1292 -0.2132 -0.1994
23444SOL    HW187942  13.091  13.984   7.902  0.1119 -0.6031  0.5352
23444SOL    HW287943  12.984  14.086   7.937  0.4095  0.6253 -1.9362
23445SOL     OW87944   1.108  11.203   1.363 -0.8169  0.5530 -0.1624
23445SOL    HW187945   1.134  11.216   1.454 -0.1336  0.5584 -0.3575
23445SOL    HW287946   1.079  11.112   1.359  1.9116 -0.3668 -0.5768
23446SOL     OW87947  12.223   9.052   2.381 -0.4816 -0.4871 -0.3117
23446SOL    HW187948  12.188   9.094   2.302  0.2512  0.1699 -0.2991
23446SOL    HW287949  12.302   9.006   2.352  1.0840  1.6103  0.3956
23447SOL     OW87950   4.604  11.927   2.554  0.1694  0.5076 -0.4894
23447SOL    HW187951   4.532  11.967   2.507  1.1242  0.7410 -1.7947
23447SOL    HW287952   4.674  11.993   2.552  0.6058  0.0870  0.2944
23448SOL     OW87953   3.295  10.442   3.354  0.4324 -0.2586  0.4250
23448SOL    HW187954   3.332  10.530   3.347  0.6921 -0.4661 -1.1372
23448SOL    HW287955   3.370  10.386   3.375  0.0328  0.0361  3.0373
23449SOL     OW87956  11.581   3.540   9.496  0.0553 -0.1243 -0.2881
23449SOL    HW187957  11.531   3.499   9.566  1.9943  0.1151  1.3476
23449SOL    HW287958  11.581   3.633   9.519  1.2152 -0.1261 -0.2263
23450SOL     OW87959  10.768  11.072   2.390 -0.4547 -0.1798  0.1812
23450SOL    HW187960  10.837  11.072   2.456  0.0043 -1.0975 -0.2819
23450SOL    HW287961  10.738  10.982   2.387 -0.3740 -0.1795 -0.9553
23451SOL     OW87962  10.568   9.133   1.101 -0.2235  0.0237 -0.0973
23451SOL    HW187963  10.564   9.042   1.129 -0.9985  0.4760  1.3699
23451SOL    HW287964  10.607   9.130   1.013 -0.4546 -1.7253 -0.1680
23452SOL     OW87965   8.859   3.877   3.594 -0.0236 -0.1774  0.3264
23452SOL    HW187966   8.846   3.785   3.567 -0.7481 -1.1139  3.4484
23452SOL    HW287967   8.926   3.873   3.663  0.9356  1.8720 -0.4080
23453SOL     OW87968  10.667  10.367  12.805 -0.0938 -0.1720  0.0597
23453SOL    HW187969  10.740  10.339  12.751  0.8987 -0.1079  1.3261
23453SOL    HW287970  10.694  10.452  12.839 -0.1005 -0.7947  1.6989
23454SOL     OW87971  12.271   2.681   4.658 -0.4668  0.2398  0.0299
23454SOL    HW187972  12.242   2.708   4.745 -1.4510  0.1754 -0.2703
23454SOL    HW287973  12.220   2.603   4.638  2.2306 -1.8673  0.8097
23455SOL     OW87974   5.342  13.139   2.337  0.0704 -0.3039  0.4526
23455SOL    HW187975   5.294  13.152   2.419  1.0592  0.2387  0.9622
23455SOL    HW287976   5.406  13.070   2.358 -0.3128 -0.8467 -0.1429
23456SOL     OW87977   0.228   2.507   4.910 -0.1656  0.1105  0.5898
23456SOL    HW187978   0.159   2.573   4.910  0.1183  0.4346  1.6748
23456SOL    HW287979   0.215   2.459   4.992  0.0070 -0.7925  0.1076
23457SOL     OW87980  13.388   6.169   4.394 -0.3157  0.3090  0.1503
23457SOL    HW187981  13.367   6.117   4.315  1.6842 -1.3092  0.5937
23457SOL    HW287982  13.458   6.228   4.366 -1.1885  1.3688  0.1653
23458SOL     OW87983   2.732   2.945   6.656 -0.1320 -0.4551  0.1145
23458SOL    HW187984   2.746   3.036   6.683  0.1826 -0.3608 -0.3631
23458SOL    HW287985   2.637   2.934   6.658 -0.3162  0.4978 -1.7641
23459SOL     OW87986   6.449  10.243   3.539 -0.3858  0.1851 -0.3880
23459SOL    HW187987   6.506  10.185   3.589  1.4097  1.2499 -1.1227
23459SOL    HW287988   6.377  10.263   3.599  0.8674  0.1336  1.2102
23460SOL     OW87989   0.748   0.111   0.422 -0.4820 -0.5641  0.4203
23460SOL    HW187990   0.796   0.159   0.490  0.4796 -1.0970  0.1385
23460SOL    HW287991   0.658   0.145   0.427  0.1877  1.3935  0.1202
23461SOL     OW87992   1.484  12.041   0.321 -0.3240  0.4437 -0.5216
23461SOL    HW187993   1.532  12.056   0.403 -1.2339  1.3600 -0.1271
23461SOL    HW287994   1.423  11.971   0.342 -0.7226  0.8407 -0.3257
23462SOL     OW87995  12.954   9.265   8.276  0.3913  0.1530  0.5127
23462SOL    HW187996  12.885   9.312   8.323 -1.2715 -0.9376 -0.7177
23462SOL    HW287997  13.006   9.224   8.345 -1.6407 -0.9475  1.4756
23463SOL     OW87998   4.719   7.731   3.430 -0.5504  0.0762  0.4253
23463SOL    HW187999   4.768   7.705   3.508  0.0003  3.6293  1.4479
23463SOL    HW288000   4.635   7.763   3.464 -1.6917 -1.3872 -0.8513
23464SOL     OW88001  12.844   3.274   7.697  0.1706 -0.5126 -0.2974
23464SOL    HW188002  12.752   3.270   7.726  0.7018 -0.6384  1.4946
23464SOL    HW288003  12.879   3.188   7.720  0.4221 -0.9943 -2.2785
23465SOL     OW88004  13.172   6.410  10.721  0.1632  0.6579 -0.0156
23465SOL    HW188005  13.211   6.405  10.807 -0.5242 -0.8952  0.2358
23465SOL    HW288006  13.081   6.438  10.737  0.6418  2.6432 -0.4592
23466SOL     OW88007   7.094   6.326   9.368  0.3447 -0.0611  0.1902
23466SOL    HW188008   7.164   6.262   9.358 -0.1660 -0.8718  1.6091
23466SOL    HW288009   7.074   6.327   9.461  0.6019  2.4755  0.2948
23467SOL     OW88010   6.270   1.058  11.618 -0.0867  0.0223  0.1124
23467SOL    HW188011   6.304   1.043  11.530  0.4223  0.6103  0.2040
23467SOL    HW288012   6.330   1.009  11.675  0.2166  0.5044  0.2155
23468SOL     OW88013   9.181  12.121  13.451 -0.2338  0.1231 -0.0950
23468SOL    HW188014   9.217  12.195  13.500  0.3956 -0.7906  0.8633
23468SOL    HW288015   9.129  12.073  13.515 -1.7275  0.4404 -1.0334
23469SOL     OW88016   3.302   0.268   4.072 -0.0247  0.8585 -0.9432
23469SOL    HW188017   3.237   0.198   4.080  0.7294  0.0656 -1.4942
23469SOL    HW288018   3.252   0.349   4.079 -0.7614  0.2880  1.0582
23470SOL     OW88019   9.788   3.571   9.873  0.4888  0.6104  0.0438
23470SOL    HW188020   9.716   3.612   9.922  0.1056  1.2557 -1.0181
23470SOL    HW288021   9.852   3.641   9.862 -0.5965  1.3152 -2.6247
23471SOL     OW88022  10.569   2.608   5.446  0.0678 -0.1060 -0.1185
23471SOL    HW188023  10.570   2.597   5.541 -1.6183 -4.0097 -0.3988
23471SOL    HW288024  10.479   2.589   5.420  0.3732  1.2898 -2.5262
23472SOL     OW88025  11.697   4.918   0.377  0.1865 -0.1215 -0.0114
23472SOL    HW188026  11.605   4.943   0.370 -0.0237 -0.8472  0.1128
23472SOL    HW288027  11.711   4.855   0.307  0.4858 -0.3132  0.2184
23473SOL     OW88028   6.616  12.784   0.950 -0.3176 -0.0466 -0.1399
23473SOL    HW188029   6.671  12.854   0.917  1.2575 -1.1483  0.0504
23473SOL    HW288030   6.528  12.807   0.921  0.4697  0.9100 -1.9082
23474SOL     OW88031   3.221   6.473  12.673  0.4821 -0.4452  0.0373
23474SOL    HW188032   3.199   6.470  12.766 -0.2768 -0.9655 -0.1513
23474SOL    HW288033   3.145   6.514  12.631  1.3884  1.0722 -0.2031
23475SOL     OW88034   6.274  12.445   9.811  0.0732 -0.3538 -0.2857
23475SOL    HW188035   6.183  12.457   9.837  0.3414 -0.6652  0.8234
23475SOL    HW288036   6.298  12.528   9.769 -0.0098  0.6706  1.5822
23476SOL     OW88037   2.103   5.177   8.431  0.0679  0.7282  0.5762
23476SOL    HW188038   2.157   5.175   8.509 -0.1750  1.0872  0.7579
23476SOL    HW288039   2.115   5.266   8.396 -0.2579  0.7497  0.5169
23477SOL     OW88040  11.124   3.603   0.709 -0.4652 -0.1798 -0.1821
23477SOL    HW188041  11.186   3.585   0.780 -0.6333 -0.0408  0.0034
23477SOL    HW288042  11.165   3.568   0.631 -0.6134 -1.0183  0.1110
23478SOL     OW88043   1.836   2.505   6.226  0.2853 -0.0272 -0.1487
23478SOL    HW188044   1.931   2.501   6.239  0.0255 -1.5835  1.8217
23478SOL    HW288045   1.800   2.491   6.313 -1.8139  3.3850 -0.3020
23479SOL     OW88046   3.502  12.838   5.487 -0.0156  0.3182 -0.1666
23479SOL    HW188047   3.580  12.794   5.522  0.8041  1.5490 -0.3648
23479SOL    HW288048   3.508  12.824   5.392 -0.9188 -0.9365 -0.0628
23480SOL     OW88049   5.877  13.389   8.420 -0.1050  0.2460  0.1343
23480SOL    HW188050   5.913  13.406   8.333  0.1740 -1.3456 -0.0984
23480SOL    HW288051   5.795  13.342   8.402  0.0421 -0.2495  0.7139
23481SOL     OW88052  12.301   2.129   4.634  0.8140 -0.2296  0.6003
23481SOL    HW188053  12.213   2.114   4.599  1.0260 -3.0916  0.9947
23481SOL    HW288054  12.308   2.224   4.643 -1.4513  0.2268 -1.3646
23482SOL     OW88055   3.199   6.056   9.525 -0.7932  0.2968 -0.1079
23482SOL    HW188056   3.202   5.962   9.542 -0.5063  0.5498  1.3142
23482SOL    HW288057   3.207   6.064   9.429 -0.3227 -1.0857 -0.1919
23483SOL     OW88058   4.152  12.139  11.061  0.0338 -0.2560  0.0851
23483SOL    HW188059   4.170  12.137  11.155 -1.8038  1.3158  0.5607
23483SOL    HW288060   4.210  12.073  11.023  1.1236 -0.6380  2.2591
23484SOL     OW88061   9.034   9.439   9.649  0.0961  0.0475 -0.1645
23484SOL    HW188062   8.988   9.484   9.578  1.5506  2.0571  0.0980
23484SOL    HW288063   9.095   9.504   9.683  2.3488 -2.1587  0.2477
23485SOL     OW88064  11.412   4.745  12.116  0.1577  0.2305  0.0779
23485SOL    HW188065  11.411   4.808  12.044  0.8612  1.1107  0.7953
23485SOL    HW288066  11.415   4.800  12.195 -1.0884 -0.6932  0.8048
23486SOL     OW88067   3.513  10.530   9.928 -0.6033  0.5119 -0.2838
23486SOL    HW188068   3.498  10.613   9.973 -0.6292  0.7210 -0.6774
23486SOL    HW288069   3.428  10.508   9.888 -0.4709  0.5474 -0.5905
23487SOL     OW88070  11.431   0.928   8.810 -0.3024 -0.7533  0.0640
23487SOL    HW188071  11.345   0.908   8.847  0.6603 -1.3554  2.1825
23487SOL    HW288072  11.479   0.845   8.815  0.0948 -0.7001 -2.1012
23488SOL     OW88073   2.344   3.651   1.269 -0.3272 -0.0552  0.4238
23488SOL    HW188074   2.294   3.660   1.188 -0.5297 -1.0141  0.4396
23488SOL    HW288075   2.371   3.741   1.290 -0.0220  0.1717 -0.8544
23489SOL     OW88076   0.752   3.718  12.514 -0.3450  0.7052  0.6271
23489SOL    HW188077   0.794   3.803  12.504 -1.7708  1.2842 -0.8415
23489SOL    HW288078   0.805   3.659  12.460  0.8399  0.5404  1.9077
23490SOL     OW88079  12.288  12.105  13.802  0.0171  0.1971 -0.1195
23490SOL    HW188080  12.298  12.010  13.794  1.6408  0.3360 -0.0766
23490SOL    HW288081  12.197  12.122  13.775 -0.1295 -1.2967 -0.6757
23491SOL     OW88082  11.445   5.907   3.892  0.0054  0.4449  0.0905
23491SOL    HW188083  11.422   5.973   3.827 -0.0776  1.9551  1.5802
23491SOL    HW288084  11.516   5.946   3.942  0.4879 -0.9352  0.5251
23492SOL     OW88085  11.197   6.926  11.136 -0.5572 -0.1051 -0.2845
23492SOL    HW188086  11.159   6.986  11.201 -0.7987  0.5122 -0.9822
23492SOL    HW288087  11.291   6.947  11.137 -0.6778  0.4647 -0.7075
23493SOL     OW88088   1.406  10.433  13.069 -0.3991 -0.1635 -0.2143
23493SOL    HW188089   1.319  10.430  13.030  0.0222 -1.2396 -1.1181
23493SOL    HW288090   1.396  10.489  13.147 -2.2759 -1.5793  0.6308
23494SOL     OW88091  12.209   4.381   1.186 -0.3185  0.4113  0.0077
23494SOL    HW188092  12.208   4.458   1.243 -0.4263 -0.8286  1.7565
23494SOL    HW288093  12.299   4.375   1.154  0.3900 -0.2264  2.0192
23495SOL     OW88094   3.976  11.000   7.843  0.2533  0.6498  0.4547
23495SOL    HW188095   3.952  11.093   7.848  0.7737  0.7289  2.6192
23495SOL    HW288096   4.065  10.997   7.876  0.9432 -0.4309 -1.4052
23496SOL     OW88097   1.083  12.283  13.250  0.1740 -0.4559  0.0518
23496SOL    HW188098   1.155  12.346  13.241 -1.0453  1.1071  0.8176
23496SOL    HW288099   1.124  12.197  13.236  2.5358  0.2144  2.1698
23497SOL     OW88100   1.928  10.071   1.413 -0.4892 -0.3805  0.4192
23497SOL    HW188101   1.890  10.006   1.472  0.4208 -1.3584 -0.0296
23497SOL    HW288102   1.878  10.151   1.429 -1.3757 -1.0859  1.2717
23498SOL     OW88103   7.726  13.864   5.428 -0.0553 -0.2759  0.0202
23498SOL    HW188104   7.663  13.815   5.480  0.6665  0.3417  1.5515
23498SOL    HW288105   7.691  13.862   5.339 -1.6141 -0.9244  0.6149
23499SOL     OW88106   4.608  10.443   5.390  0.3401 -0.4725  0.6467
23499SOL    HW188107   4.560  10.525   5.401  2.1928  0.8531 -0.7152
23499SOL    HW288108   4.689  10.455   5.440  0.2093 -1.9180  1.2880
23500SOL     OW88109   8.785   9.882   7.785 -0.1682  0.1356  0.0868
23500SOL    HW188110   8.842   9.942   7.736 -0.9959 -2.0274 -3.9061
23500SOL    HW288111   8.845   9.823   7.830  0.7130  0.3919 -0.7192
23501SOL     OW88112   7.604  11.014   2.959 -0.8500  0.7564  0.0838
23501SOL    HW188113   7.595  10.926   2.996  1.9876  0.5952  0.6367
23501SOL    HW288114   7.540  11.017   2.889 -2.1329 -1.1589  1.0789
23502SOL     OW88115   1.433  10.280   9.829 -0.0013  0.2622  0.0692
23502SOL    HW188116   1.402  10.365   9.861 -0.2117  0.5687 -0.9313
23502SOL    HW288117   1.360  10.245   9.779  0.5038  0.0276 -0.5191
23503SOL     OW88118   6.767   1.285  13.419  0.2905 -0.1721 -0.0602
23503SOL    HW188119   6.843   1.250  13.465  2.0911  1.1136 -1.8140
23503SOL    HW288120   6.710   1.210  13.405  2.3365 -1.7158 -0.6562
23504SOL     OW88121   9.504  13.170   0.702 -0.4631 -0.5523 -0.1964
23504SOL    HW188122   9.580  13.160   0.644 -0.4378 -2.4023  0.0774
23504SOL    HW288123   9.524  13.112   0.776 -1.1987  0.5689  0.9055
23505SOL     OW88124  11.675   3.363   2.366 -0.2040  0.3144  0.0139
23505SOL    HW188125  11.632   3.436   2.410 -4.1174 -1.3412 -0.6430
23505SOL    HW288126  11.689   3.394   2.276 -0.4512  0.7433  0.1208
23506SOL     OW88127   6.902  13.295  12.171  0.1083  0.0132 -0.4386
23506SOL    HW188128   6.969  13.256  12.226  0.6990 -0.7031 -1.6364
23506SOL    HW288129   6.850  13.221  12.139 -0.2268  0.4122 -0.8435
23507SOL     OW88130   8.481  11.015  13.965  0.0259  0.1261 -0.6403
23507SOL    HW188131   8.577  11.019  13.969  0.0563 -0.7534 -0.2915
23507SOL    HW288132   8.452  11.088  14.020  0.5000 -0.2230  0.0972
23508SOL     OW88133   8.992   0.822   8.217 -0.0825  0.3099  0.6424
23508SOL    HW188134   9.031   0.782   8.295 -0.2714  1.0727  1.1444
23508SOL    HW288135   9.067   0.856   8.167  0.0272 -0.0287  0.5731
23509SOL     OW88136   7.639  12.955   0.352 -0.4952  0.0376  0.4342
23509SOL    HW188137   7.723  12.998   0.335 -0.3512  0.6893  2.5331
23509SOL    HW288138   7.574  13.017   0.318 -0.1659  0.1618  0.0254
23510SOL     OW88139  13.078   8.590   6.632  0.0858 -0.1673  0.3107
23510SOL    HW188140  13.134   8.516   6.609 -0.5360 -0.1626 -1.3165
23510SOL    HW288141  12.993   8.569   6.594  0.0170  1.5753 -0.5815
23511SOL     OW88142   7.171   8.690  12.794 -0.1955 -0.0769 -0.2638
23511SOL    HW188143   7.144   8.650  12.877 -0.0532 -2.5428 -1.3257
23511SOL    HW288144   7.223   8.767  12.820 -0.4721 -0.5585  1.9022
23512SOL     OW88145  11.557  11.907   3.782 -0.4486  0.6772 -0.2730
23512SOL    HW188146  11.580  11.988   3.736  0.3569 -0.7975 -2.5929
23512SOL    HW288147  11.515  11.852   3.716  0.7305 -1.5324  0.6960
23513SOL     OW88148   0.313   8.067  12.247 -0.3443 -0.1854 -0.1250
23513SOL    HW188149   0.286   7.976  12.248 -4.5569  0.8725 -0.0106
23513SOL    HW288150   0.247   8.112  12.194  2.1878  2.7008 -1.1878
23514SOL     OW88151  11.862  13.121   9.752 -0.4997  0.1095 -0.1162
23514SOL    HW188152  11.873  13.216   9.758  0.0802  0.1210 -1.1325
23514SOL    HW288153  11.916  13.086   9.823  0.0707  0.5121 -0.3403
23515SOL     OW88154  10.139   1.119  13.219 -0.1728 -0.3128  0.1208
23515SOL    HW188155  10.235   1.123  13.221 -0.0864 -1.0734 -1.4866
23515SOL    HW288156  10.111   1.208  13.198  0.1394  0.0399  1.1356
23516SOL     OW88157   2.808   0.746   9.977  0.5105  0.1429  0.1550
23516SOL    HW188158   2.846   0.680  10.035  0.0403 -0.1894  0.0933
23516SOL    HW288159   2.829   0.829  10.018  0.4229 -0.0798  0.6598
23517SOL     OW88160   2.220   5.600   1.431  0.8082 -0.0497 -0.1341
23517SOL    HW188161   2.235   5.542   1.505 -0.3036 -0.8363 -0.4927
23517SOL    HW288162   2.252   5.550   1.355  0.0385 -0.1304 -0.4171
23518SOL     OW88163  10.320   7.589   0.237  0.7338 -0.1103 -0.2944
23518SOL    HW188164  10.356   7.590   0.148 -0.5333  0.7830 -0.8241
23518SOL    HW288165  10.340   7.675   0.273  2.5682 -0.9702  0.8835
23519SOL     OW88166   9.292   7.116   8.507 -0.2290 -0.4229 -0.2272
23519SOL    HW188167   9.341   7.172   8.567  0.6972 -1.2086 -0.2354
23519SOL    HW288168   9.241   7.177   8.454  0.9212  0.4282 -0.3821
23520SOL     OW88169   0.168  11.646   9.254 -0.2403 -0.2879 -0.0146
23520SOL    HW188170   0.241  11.700   9.221 -0.9091  0.9621  0.5148
23520SOL    HW288171   0.173  11.565   9.202 -0.1121  0.8675 -1.8767
23521SOL     OW88172   2.873   2.352   7.957  0.3993 -0.1086 -0.8358
23521SOL    HW188173   2.819   2.355   8.036 -1.8388 -0.6024 -2.2404
23521SOL    HW288174   2.963   2.349   7.989 -0.4402 -0.8798  1.6799
23522SOL     OW88175   0.913   0.471   9.515 -0.4520  0.3001  0.3095
23522SOL    HW188176   0.822   0.453   9.539 -0.1762  1.1163  2.1350
23522SOL    HW288177   0.938   0.547   9.569  1.0205  0.6860 -0.8480
23523SOL     OW88178   8.494   1.958   5.795  0.2933  0.6620 -0.5718
23523SOL    HW188179   8.580   1.947   5.834  0.3600  2.7641  0.0213
23523SOL    HW288180   8.474   2.051   5.807 -2.8828 -0.0738  1.0420
23524SOL     OW88181  12.021   5.615   5.422  0.3506 -0.6464  0.0686
23524SOL    HW188182  12.016   5.662   5.505  1.0382 -1.3474  0.5150
23524SOL    HW288183  11.931   5.586   5.406 -0.0559  0.6262 -0.1233
23525SOL     OW88184   5.306  10.107   6.599 -0.2243 -0.0762  0.0469
23525SOL    HW188185   5.225  10.150   6.574  0.5258  0.1297 -2.2645
23525SOL    HW288186   5.286  10.014   6.595 -0.5194 -0.0182  0.1604
23526SOL     OW88187   3.776  11.286  13.626  0.2483 -0.0098  0.5011
23526SOL    HW188188   3.805  11.361  13.677  0.1576 -0.1407  0.7502
23526SOL    HW288189   3.680  11.293  13.625  0.2575  0.0603  0.2451
23527SOL     OW88190  13.890   3.961   8.427  0.2797  0.4630  0.1925
23527SOL    HW188191  13.927   3.918   8.350  0.4822  0.0319  0.5281
23527SOL    HW288192  13.897   3.896   8.497  0.7738  1.1154  0.7570
23528SOL     OW88193   5.240   7.642   3.187 -0.3049  0.5490  0.0078
23528SOL    HW188194   5.264   7.551   3.167  0.9366  0.7650  0.4672
23528SOL    HW288195   5.251   7.650   3.281 -0.6149  1.1287  0.0003
23529SOL     OW88196   6.344  11.771   6.362  0.5684  0.0675 -0.3897
23529SOL    HW188197   6.409  11.837   6.388  1.3936 -0.5865 -0.7660
23529SOL    HW288198   6.375  11.690   6.402  0.4229 -0.4189 -1.2523
23530SOL     OW88199   2.805   4.793   4.284  0.7389  0.2319  0.0061
23530SOL    HW188200   2.744   4.727   4.252  1.1398  0.0848 -0.4722
23530SOL    HW288201   2.827   4.845   4.207  0.6323  0.7623  0.3258
23531SOL     OW88202  14.080   6.991   8.067  0.0599  0.2059 -0.3194
23531SOL    HW188203  14.085   6.908   8.115 -0.4122  1.2511  1.6236
23531SOL    HW288204  14.166   7.000   8.026 -0.0225 -1.4227 -0.9158
23532SOL     OW88205   1.642  11.665  10.436 -0.3892 -0.0678 -1.1795
23532SOL    HW188206   1.734  11.694  10.435 -0.8773  1.6871 -0.3045
23532SOL    HW288207   1.631  11.624  10.522 -1.2492  3.0455  0.3844
23533SOL     OW88208   0.884   6.611   3.487  0.1494 -0.1292  0.1706
23533SOL    HW188209   0.832   6.658   3.552  0.0079 -0.3991  0.2521
23533SOL    HW288210   0.901   6.676   3.419  1.3845  0.5316  1.0708
23534SOL     OW88211   0.624   9.601   5.708  0.1131 -0.2595 -0.5724
23534SOL    HW188212   0.719   9.593   5.703  0.0616 -1.0099 -0.3977
23534SOL    HW288213   0.605   9.683   5.662  0.9472  0.5317  0.4405
23535SOL     OW88214  12.462   6.441   6.616  0.0368 -0.1420 -0.2720
23535SOL    HW188215  12.510   6.414   6.694 -0.0831  2.0899  0.6719
23535SOL    HW288216  12.374   6.462   6.648 -0.3482 -0.2691 -1.2097
23536SOL     OW88217   9.957   0.637  12.013 -0.1805 -0.5411  0.3327
23536SOL    HW188218   9.994   0.559  12.056  1.0903 -0.5130 -0.6567
23536SOL    HW288219   9.973   0.708  12.075 -0.1187 -0.8333  0.6577
23537SOL     OW88220   8.221   8.649   3.452 -0.3959 -0.2351  0.0822
23537SOL    HW188221   8.190   8.672   3.364 -1.7811  1.2330  0.8893
23537SOL    HW288222   8.165   8.701   3.511 -1.0484 -2.8728  1.9532
23538SOL     OW88223  12.237  11.697   1.199  0.2168 -0.3891 -0.5009
23538SOL    HW188224  12.173  11.634   1.165  0.2512 -0.9094  0.3564
23538SOL    HW288225  12.223  11.776   1.148 -1.0225 -0.5404 -0.4191
23539SOL     OW88226  11.990   3.491   5.581 -0.2277  0.0751 -0.4645
23539SOL    HW188227  11.967   3.427   5.648  1.8262 -0.6594 -0.3992
23539SOL    HW288228  12.017   3.569   5.630 -0.9140  0.3403 -0.5019
23540SOL     OW88229   3.995   7.668   4.085  0.4396  0.3926  0.1713
23540SOL    HW188230   4.000   7.746   4.030 -1.0040  0.1926 -0.2817
23540SOL    HW288231   4.019   7.699   4.172  0.1437  1.2873 -0.0505
23541SOL     OW88232   9.972   7.731   8.691 -0.4798 -0.3875 -0.2144
23541SOL    HW188233   9.958   7.643   8.726 -1.0539 -0.3184 -0.2567
23541SOL    HW288234  10.037   7.771   8.750  1.3071 -1.5117 -1.3302
23542SOL     OW88235   4.590   8.498   3.009 -0.2729 -0.6552 -0.1572
23542SOL    HW188236   4.641   8.579   3.011 -1.8771  0.3982 -0.0267
23542SOL    HW288237   4.539   8.503   2.928  0.6832 -2.2580 -0.9025
23543SOL     OW88238   3.791   0.819   9.740 -0.6612 -0.6594 -0.6582
23543SOL    HW188239   3.720   0.795   9.800  0.2245  1.4938  1.4479
23543SOL    HW288240   3.871   0.794   9.786  0.0929  2.0513 -0.3161
23544SOL     OW88241  10.987   6.499  12.773 -0.0608 -0.0540 -0.1866
23544SOL    HW188242  11.072   6.540  12.790  0.5165 -1.3737  0.1596
23544SOL    HW288243  11.004   6.440  12.700 -0.5052 -0.8753  0.3690
23545SOL     OW88244  10.357   1.238   0.180  0.2075  0.3089  0.5723
23545SOL    HW188245  10.404   1.274   0.105 -0.7927  0.0652 -0.1920
23545SOL    HW288246  10.295   1.306   0.205 -0.0422  0.0545  0.6446
23546SOL     OW88247  12.347   3.979   1.645 -0.3528 -0.2969  0.2511
23546SOL    HW188248  12.413   3.921   1.682 -0.1321 -0.2172 -0.0216
23546SOL    HW288249  12.333   3.947   1.556 -0.2009  0.0899  0.0840
23547SOL     OW88250   8.637   2.361  14.068 -0.1548  0.1832 -0.0811
23547SOL    HW188251   8.650   2.271  14.039 -0.0918  0.4486 -0.9090
23547SOL    HW288252   8.697   2.412  14.014 -0.5352  0.7729  0.0489
23548SOL     OW88253  12.646   7.596  10.221  0.5342 -0.5400  0.4549
23548SOL    HW188254  12.691   7.586  10.137  1.3045 -1.7677  1.0005
23548SOL    HW288255  12.698   7.662  10.268  0.0467  0.2227 -0.0489
23549SOL     OW88256  13.554   8.048   9.051 -0.1779 -0.4174  0.1906
23549SOL    HW188257  13.483   8.087   9.103  1.0018  2.2001  0.0052
23549SOL    HW288258  13.510   7.984   8.995 -1.7879 -1.8546  2.8854
23550SOL     OW88259   5.674  10.094  13.881 -0.0256  0.2384 -0.0641
23550SOL    HW188260   5.686  10.149  13.958  0.3043  0.6643 -0.4130
23550SOL    HW288261   5.617  10.144  13.823  0.7403  0.4778 -0.6280
23551SOL     OW88262   1.964  11.216  10.603  0.3437 -0.3807 -0.3548
23551SOL    HW188263   1.899  11.224  10.533 -0.9061 -2.2929  0.5013
23551SOL    HW288264   2.042  11.180  10.560  0.6983  1.3519 -1.2729
23552SOL     OW88265  10.009   3.177   5.447  0.1915 -0.3843  0.2832
23552SOL    HW188266   9.983   3.094   5.407  2.0415 -0.8209 -0.1224
23552SOL    HW288267   9.928   3.226   5.456 -0.9420 -2.1905  0.4445
23553SOL     OW88268   8.628   0.782   7.067  0.4952 -0.0146 -0.0397
23553SOL    HW188269   8.638   0.828   7.151  0.0401  1.3144 -0.6810
23553SOL    HW288270   8.639   0.851   7.001 -0.3022 -0.8252 -1.0472
23554SOL     OW88271   4.338  10.592  12.537  0.6380  0.5008 -0.4657
23554SOL    HW188272   4.356  10.570  12.446  1.5780  0.5211 -0.2987
23554SOL    HW288273   4.407  10.547  12.586  0.1163  0.4533  0.2414
23555SOL     OW88274   6.861   4.088  12.761  0.5210  0.3077 -0.2457
23555SOL    HW188275   6.840   4.148  12.689 -1.3746  1.2561  0.9880
23555SOL    HW288276   6.883   4.146  12.834 -1.3261 -0.4503  0.9819
23556SOL     OW88277   7.333  10.889   3.831  0.2962  0.1590  0.7925
23556SOL    HW188278   7.358  10.819   3.771 -0.6210  0.1563  0.3941
23556SOL    HW288279   7.269  10.848   3.890  0.6761  0.3409  1.3376
23557SOL     OW88280  11.022  10.566   8.882  0.1295  0.1896 -0.0317
23557SOL    HW188281  10.996  10.597   8.795 -0.0660 -1.7368 -0.6951
23557SOL    HW288282  11.113  10.594   8.891 -0.0104  0.8740 -0.6209
23558SOL     OW88283  10.274   9.830   6.601  0.6810  0.0579 -0.5343
23558SOL    HW188284  10.264   9.819   6.507  0.9383 -0.5797 -0.4900
23558SOL    HW288285  10.331   9.758   6.628  0.0850 -0.1496  0.2079
23559SOL     OW88286   7.724   0.765   0.714  0.2027 -0.5274  0.0854
23559SOL    HW188287   7.744   0.713   0.636 -0.8856 -0.9691  0.0831
23559SOL    HW288288   7.758   0.852   0.694  0.1737 -0.7031 -0.7876
23560SOL     OW88289   3.231   6.451   5.143  0.1952 -0.3313 -0.0363
23560SOL    HW188290   3.267   6.475   5.228 -1.0830  0.3571  0.3395
23560SOL    HW288291   3.307   6.431   5.089  1.0696  0.0964  1.0080
23561SOL     OW88292   2.723  10.684   5.571 -0.0341  0.4637  0.4932
23561SOL    HW188293   2.675  10.611   5.533 -0.6175  1.3716 -0.5543
23561SOL    HW288294   2.805  10.645   5.602 -0.4607 -0.6807  0.2452
23562SOL     OW88295  10.745   5.111   8.825  0.5176  0.2081  0.1588
23562SOL    HW188296  10.667   5.156   8.855  1.0882  1.0345  0.4369
23562SOL    HW288297  10.778   5.066   8.902  1.2767  1.2939  0.4888
23563SOL     OW88298   9.476  10.337   6.886 -0.3448  0.3764 -0.9394
23563SOL    HW188299   9.445  10.369   6.971  1.5463  1.3855 -0.5683
23563SOL    HW288300   9.543  10.273   6.908 -0.4122  0.0376 -1.7005
23564SOL     OW88301  11.823   9.283  10.836 -0.1062  0.4553  0.1012
23564SOL    HW188302  11.839   9.364  10.885 -0.5532  1.0312 -0.6773
23564SOL    HW288303  11.892   9.281  10.770  1.7731 -1.3691  1.9538
23565SOL     OW88304   0.646   8.029   7.817  0.2450 -0.0353 -0.2065
23565SOL    HW188305   0.570   8.087   7.824 -0.3716 -0.7511 -0.7212
23565SOL    HW288306   0.639   7.971   7.892 -0.2144 -0.6512 -0.7080
23566SOL     OW88307   0.791   2.229   5.797  0.0763  0.2556  0.5815
23566SOL    HW188308   0.808   2.136   5.815 -0.4951 -0.0846 -0.5596
23566SOL    HW288309   0.800   2.237   5.702 -1.6423  0.9822  0.4466
23567SOL     OW88310   4.613   0.306  13.763  0.3981  0.2007 -0.9161
23567SOL    HW188311   4.583   0.259  13.685  0.1456 -0.0443 -0.6724
23567SOL    HW288312   4.673   0.245  13.807 -0.0755  0.0275 -0.5003
23568SOL     OW88313  12.280  12.064   7.207  0.3332  0.4397 -0.2277
23568SOL    HW188314  12.236  12.132   7.258  0.2588 -1.4019  2.3938
23568SOL    HW288315  12.242  11.982   7.240  1.4351 -0.9587 -2.2248
23569SOL     OW88316   7.610  12.694   0.327 -0.2501 -0.4415 -0.2260
23569SOL    HW188317   7.622  12.788   0.345 -0.5395 -0.8508  2.4803
23569SOL    HW288318   7.557  12.692   0.247 -1.5221  1.7260  0.4729
23570SOL     OW88319  11.498   2.758   5.928  0.0636 -0.7008  0.2841
23570SOL    HW188320  11.518   2.800   6.013 -0.0233  0.1214 -0.0912
23570SOL    HW288321  11.569   2.695   5.916  0.0619 -0.8430  0.9872
23571SOL     OW88322   2.223  10.828   8.678  0.2390  0.4069 -0.5516
23571SOL    HW188323   2.211  10.739   8.709 -0.7089  0.3273 -1.1086
23571SOL    HW288324   2.161  10.880   8.730  0.4678  0.6724 -0.5422
23572SOL     OW88325   9.691   8.052   0.122  0.1162  0.1424  0.0571
23572SOL    HW188326   9.639   7.976   0.150  1.6735 -1.4811 -1.2118
23572SOL    HW288327   9.742   8.020   0.047  0.2795  2.6844 -1.0165
23573SOL     OW88328  12.748   8.171  10.511 -0.5043  0.3524  0.0983
23573SOL    HW188329  12.724   8.200  10.599 -0.5883  0.8312 -0.0808
23573SOL    HW288330  12.687   8.217  10.453  0.6824  1.4179 -0.3467
23574SOL     OW88331   1.106   5.829   8.273  0.0583  0.2677  0.1568
23574SOL    HW188332   1.022   5.825   8.319  0.7855 -1.8924  1.5048
23574SOL    HW288333   1.163   5.879   8.332 -0.1844  1.4937 -0.6261
23575SOL     OW88334  13.586   7.821   4.153 -0.2404  0.4638 -0.1773
23575SOL    HW188335  13.570   7.811   4.247 -0.7278 -0.4548 -0.3451
23575SOL    HW288336  13.588   7.731   4.120 -1.3516  0.8051 -1.2471
23576SOL     OW88337  14.019   2.471   0.035 -0.3519 -0.0186  0.0486
23576SOL    HW188338  13.964   2.398   0.064  1.3640 -0.7074  1.8020
23576SOL    HW288339  14.077   2.488   0.109  2.0920  0.3600 -1.8057
23577SOL     OW88340   5.940   2.736   2.448  0.4370  0.0285  0.2928
23577SOL    HW188341   5.904   2.821   2.473 -2.4540 -0.6421 -1.1564
23577SOL    HW288342   5.992   2.754   2.370  1.1644  0.6569  0.9038
23578SOL     OW88343   0.464   5.542   2.609 -0.3213 -0.6219  0.2923
23578SOL    HW188344   0.545   5.530   2.559 -0.0596  0.8507  0.3098
23578SOL    HW288345   0.494   5.559   2.699 -0.4247  2.7042 -0.1863
23579SOL     OW88346   5.143   9.204   4.908 -0.3982 -0.3733  0.0573
23579SOL    HW188347   5.115   9.263   4.838 -2.1938  0.3880  1.3529
23579SOL    HW288348   5.071   9.205   4.970  0.2395 -2.7038  0.9125
23580SOL     OW88349   1.845   6.652  12.443  0.0438  0.3235  0.1131
23580SOL    HW188350   1.751   6.660  12.424 -0.0292 -0.6383 -0.0002
23580SOL    HW288351   1.872   6.740  12.466 -0.9880  0.5449  0.5566
23581SOL     OW88352   1.210  11.323   9.577  0.6199  0.3231  0.2504
23581SOL    HW188353   1.247  11.268   9.508 -0.3467 -0.4993  0.3648
23581SOL    HW288354   1.232  11.412   9.550  0.4827  0.0038 -0.9976
23582SOL     OW88355  11.746   1.065   5.048 -0.5935  0.0539  0.1762
23582SOL    HW188356  11.767   1.084   5.139 -1.4092 -0.3974  0.4655
23582SOL    HW288357  11.669   1.118   5.029 -0.7020 -0.1981 -0.1023
23583SOL     OW88358   6.451  10.297   1.203 -0.3620  0.3094  0.4799
23583SOL    HW188359   6.464  10.247   1.283 -0.4166  0.3668  0.5246
23583SOL    HW288360   6.357  10.290   1.185 -0.4284  0.6818  0.6753
23584SOL     OW88361   4.195   5.286   5.650  0.2061  0.2431 -0.3826
23584SOL    HW188362   4.179   5.380   5.654  0.7696  0.4533 -2.2622
23584SOL    HW288363   4.109   5.247   5.664 -0.0055  1.0006  0.5979
23585SOL     OW88364   5.939   8.378   2.629 -0.3436 -0.0446 -0.2526
23585SOL    HW188365   5.882   8.455   2.625 -1.1204 -0.6471 -2.3321
23585SOL    HW288366   5.900   8.324   2.697 -1.4896  0.1717 -0.7056
23586SOL     OW88367   7.579  14.018   8.469  0.0289 -0.3832  0.4725
23586SOL    HW188368   7.591  14.092   8.529 -0.4191 -0.2270  0.3719
23586SOL    HW288369   7.616  14.049   8.386 -1.2414  0.1939  0.0940
23587SOL     OW88370   9.039   2.675   6.860  0.6263  0.2482 -0.1196
23587SOL    HW188371   9.056   2.599   6.916  2.5059  0.9196  0.3212
23587SOL    HW288372   8.990   2.736   6.916  0.5228  0.0058  0.0547
23588SOL     OW88373  12.480   1.548   2.941  0.0152  0.0430  0.2088
23588SOL    HW188374  12.574   1.534   2.930  0.2802  1.1428  0.9061
23588SOL    HW288375  12.464   1.634   2.903 -0.5222  0.2855  0.9573
23589SOL     OW88376   9.438  12.676   1.810 -0.0107  0.6002 -0.3283
23589SOL    HW188377   9.503  12.705   1.746  0.1988 -0.6396 -0.6977
23589SOL    HW288378   9.361  12.651   1.758  0.1372 -0.3522 -0.1100
23590SOL     OW88379   6.594  13.125  12.212  0.4651  0.4876 -0.0936
23590SOL    HW188380   6.589  13.213  12.248  0.2814  0.4703 -0.0731
23590SOL    HW288381   6.624  13.071  12.285  0.1541  0.4621  0.0154
23591SOL     OW88382  11.145   1.950   8.631  0.0348 -0.1523  0.7653
23591SOL    HW188383  11.066   1.915   8.589 -0.2279  1.4625 -0.2073
23591SOL    HW288384  11.191   1.995   8.560  1.3046 -0.1650  1.5507
23592SOL     OW88385   9.576   5.076   5.540  0.1431 -0.1271  0.0616
23592SOL    HW188386   9.589   5.131   5.617  0.0977 -2.1097  1.5777
23592SOL    HW288387   9.498   5.025   5.559  0.5826 -1.2455 -0.9351
23593SOL     OW88388   9.383   5.457  12.539  0.2682 -0.2491 -0.3280
23593SOL    HW188389   9.475   5.467  12.563  0.3199 -0.8574 -0.2550
23593SOL    HW288390   9.343   5.414  12.615  0.1660 -1.0310 -0.8161
23594SOL     OW88391   9.380  12.798   8.675  0.0836 -0.0742  0.4086
23594SOL    HW188392   9.365  12.844   8.758  1.7220  1.0647  0.1131
23594SOL    HW288393   9.308  12.826   8.619 -0.2844  0.2207  1.0139
23595SOL     OW88394   5.024   2.113   3.801 -0.1632  0.2242 -0.5644
23595SOL    HW188395   5.022   2.159   3.717  0.0790  1.3195  0.0141
23595SOL    HW288396   4.990   2.176   3.864  0.8933 -0.0999  0.3776
23596SOL     OW88397  13.211   5.259  11.007  0.2494 -0.5138  0.1717
23596SOL    HW188398  13.214   5.309  10.926 -1.7628  0.4389  0.6430
23596SOL    HW288399  13.300   5.225  11.017  1.1802  1.3808 -1.1449
23597SOL     OW88400   8.623  12.185   9.114  0.1358  0.4668 -0.1415
23597SOL    HW188401   8.602  12.271   9.152 -1.3176 -0.4035  1.1745
23597SOL    HW288402   8.717  12.188   9.097  0.3393  1.8973  1.0140
23598SOL     OW88403   7.192   3.255  11.957 -0.0035 -0.1902  0.1426
23598SOL    HW188404   7.109   3.214  11.978 -0.1507 -1.6187 -2.7791
23598SOL    HW288405   7.168   3.337  11.913  0.0499 -1.1046 -1.6524
23599SOL     OW88406   9.984  11.770   7.350 -0.0512  0.0123 -0.0189
23599SOL    HW188407   9.957  11.731   7.432  2.5499 -0.8288  0.5051
23599SOL    HW288408  10.070  11.809   7.368  1.3546 -1.5798 -2.6569
23600SOL     OW88409   6.476   9.587   2.731 -0.2219  0.4844  0.4359
23600SOL    HW188410   6.418   9.597   2.806  1.5202  2.3088  1.6486
23600SOL    HW288411   6.486   9.492   2.721 -1.0587  0.1788  2.0587
23601SOL     OW88412  10.494   1.333   6.385  0.5470 -0.2682 -0.4509
23601SOL    HW188413  10.525   1.251   6.346  1.6904 -0.7967  1.4495
23601SOL    HW288414  10.398   1.326   6.381  0.5787 -0.0074 -3.6078
23602SOL     OW88415   6.525   3.969   3.776 -0.1071  0.3632 -0.2928
23602SOL    HW188416   6.472   4.024   3.833 -0.8939  0.9987 -1.5778
23602SOL    HW288417   6.587   4.029   3.735  0.3795 -0.0629 -0.1836
23603SOL     OW88418  10.343   2.574  11.844 -0.3054 -0.1128 -0.2142
23603SOL    HW188419  10.320   2.528  11.925 -0.1694 -3.8080 -2.0345
23603SOL    HW288420  10.259   2.598  11.805 -0.4240  0.3238  0.3048
23604SOL     OW88421   5.657   6.957   3.897 -0.1113  0.1507  0.2316
23604SOL    HW188422   5.581   6.920   3.943 -0.1099 -0.3456 -0.1570
23604SOL    HW288423   5.620   6.994   3.816  0.0931 -0.3316 -0.0874
23605SOL     OW88424   3.921   8.873   0.330 -0.2942  0.3254 -0.9803
23605SOL    HW188425   4.011   8.905   0.337 -0.6113  1.0827 -0.0515
23605SOL    HW288426   3.910   8.849   0.238  0.3690  1.7101 -1.4380
23606SOL     OW88427   3.574  10.628   3.982 -0.9625 -0.1448  0.4245
23606SOL    HW188428   3.572  10.627   4.078 -0.6754 -1.6484  0.4373
23606SOL    HW288429   3.519  10.554   3.956 -0.7416  0.0314 -0.5667
23607SOL     OW88430   6.487   5.909   6.229 -0.2355  0.0491 -0.0453
23607SOL    HW188431   6.536   5.826   6.230  3.3855  1.9416 -0.9304
23607SOL    HW288432   6.537   5.964   6.169 -3.4547  2.4182 -0.8111
23608SOL     OW88433   6.163  10.515   2.479  0.4201 -0.5938 -0.7998
23608SOL    HW188434   6.072  10.534   2.502  0.8507 -0.4275  0.8555
23608SOL    HW288435   6.170  10.540   2.387 -0.2659  3.0708 -0.0206
23609SOL     OW88436   2.360   9.474   0.351 -0.0251  0.1403 -0.4455
23609SOL    HW188437   2.443   9.504   0.314  0.2948 -0.3652 -0.1422
23609SOL    HW288438   2.304   9.460   0.275 -0.2464  1.6416 -0.5998
23610SOL     OW88439  13.890   1.519   1.356 -0.4044  0.0996 -0.2122
23610SOL    HW188440  13.859   1.579   1.288  1.2775  0.5928 -0.5818
23610SOL    HW288441  13.844   1.547   1.435  1.6649  3.1811  0.0863
23611SOL     OW88442   7.396   1.262   1.353 -0.0372 -0.0094 -0.2671
23611SOL    HW188443   7.370   1.351   1.378  0.6859  0.7146 -1.9385
23611SOL    HW288444   7.329   1.234   1.290  0.5796 -0.0224 -0.9264
23612SOL     OW88445   5.938  13.442  12.749 -1.0857  0.2034 -0.2769
23612SOL    HW188446   6.022  13.409  12.784 -1.0087 -1.4040 -1.8055
23612SOL    HW288447   5.880  13.443  12.825 -0.1430 -0.3000  0.4880
23613SOL     OW88448  11.918   1.650   4.698 -0.8324 -0.0777 -0.1020
23613SOL    HW188449  11.984   1.698   4.648  0.9167 -1.7107  0.5516
23613SOL    HW288450  11.851   1.716   4.717  1.9794  2.4835  1.7986
23614SOL     OW88451   2.106   8.367   2.152  0.3984 -0.9583  0.2439
23614SOL    HW188452   2.017   8.388   2.183  0.0858 -2.2058  0.2336
23614SOL    HW288453   2.104   8.273   2.136  2.2309 -1.3476  1.9448
23615SOL     OW88454  10.371  12.329   2.621 -0.4665  0.2417  0.6667
23615SOL    HW188455  10.376  12.346   2.527 -0.1293 -1.9711  0.2126
23615SOL    HW288456  10.315  12.252   2.628  1.2711 -0.9940  2.0280
23616SOL     OW88457   6.546  11.624   8.699  0.5763  0.1234  0.9805
23616SOL    HW188458   6.620  11.569   8.676  0.0157 -1.3296  2.4796
23616SOL    HW288459   6.530  11.607   8.791 -1.2581  0.8442  0.8543
23617SOL     OW88460   2.509   8.488   5.826  0.0972  0.2333  0.0390
23617SOL    HW188461   2.493   8.542   5.748 -1.2585  0.1933  0.2510
23617SOL    HW288462   2.447   8.522   5.891 -0.1126 -0.9589  0.4835
23618SOL     OW88463  10.250  13.509   5.836 -0.1348  0.3668 -0.6815
23618SOL    HW188464  10.215  13.454   5.906  3.0419 -0.1690  0.6792
23618SOL    HW288465  10.242  13.599   5.870  0.0389  0.2330 -0.2784
23619SOL     OW88466  10.654  13.919  13.932 -0.0887 -0.0551 -0.2940
23619SOL    HW188467  10.595  13.957  13.997 -0.1712  1.0242 -0.9887
23619SOL    HW288468  10.655  13.981  13.859  1.9477 -0.0029 -0.2919
23620SOL     OW88469   4.157  10.461   4.947  0.2967  0.2560 -0.0272
23620SOL    HW188470   4.232  10.506   4.907  0.1190  1.4385  0.9065
23620SOL    HW288471   4.162  10.372   4.914  0.3755  1.0621 -2.3693
23621SOL     OW88472  12.789  11.079   1.040  0.0869  0.0510  0.0328
23621SOL    HW188473  12.806  11.010   0.976 -2.0537  0.6953 -1.3490
23621SOL    HW288474  12.838  11.155   1.007  1.8337 -0.5530  1.1432
23622SOL     OW88475   0.856   9.704   8.488 -0.2205 -0.3773 -0.3597
23622SOL    HW188476   0.849   9.688   8.394  1.3707 -3.0862 -0.1024
23622SOL    HW288477   0.824   9.624   8.528  0.0664  0.3510  1.3924
23623SOL     OW88478   0.662  12.273   9.992 -0.3536 -0.0397 -0.7839
23623SOL    HW188479   0.726  12.275   9.921 -0.3657  1.3596 -0.7924
23623SOL    HW288480   0.668  12.360  10.032 -1.5839 -0.1964 -0.1992
23624SOL     OW88481   6.438   4.237   7.980  0.0941 -0.6528  0.1270
23624SOL    HW188482   6.485   4.318   7.967  1.5261 -1.1789  1.6468
23624SOL    HW288483   6.494   4.169   7.942 -0.9303 -0.9928 -0.8346
23625SOL     OW88484  10.362  12.852   1.619  0.3782 -0.0146 -0.3247
23625SOL    HW188485  10.376  12.925   1.559  0.9738  0.5351  0.4724
23625SOL    HW288486  10.290  12.879   1.675 -0.8146 -0.9125 -1.3617
23626SOL     OW88487   8.266   8.936   0.972 -0.1887 -0.3847  0.7500
23626SOL    HW188488   8.191   8.967   1.022  0.0485  0.7793  0.4138
23626SOL    HW288489   8.266   8.989   0.893  1.9077  0.8141  1.4693
23627SOL     OW88490  13.882   1.015   4.976  0.1333  0.3206 -0.2690
23627SOL    HW188491  13.838   1.100   4.985  1.4004  1.0381 -0.6508
23627SOL    HW288492  13.958   1.033   4.921  2.2711 -0.3747  2.2736
23628SOL     OW88493   9.767   9.780   5.100 -0.4963 -0.2161 -0.2065
23628SOL    HW188494   9.813   9.818   5.026 -0.8850  2.0493  0.6528
23628SOL    HW288495   9.674   9.799   5.083 -0.6157  0.0493  0.7046
23629SOL     OW88496   0.506  10.187   2.537 -0.5531 -0.2124 -0.5781
23629SOL    HW188497   0.435  10.176   2.601 -0.9815  0.4540 -0.9385
23629SOL    HW288498   0.498  10.111   2.479 -0.1876 -0.8043  0.1095
23630SOL     OW88499   0.298  10.207   2.718 -0.5258 -0.0106  0.0717
23630SOL    HW188500   0.204  10.186   2.719 -0.6162  0.0858  3.2475
23630SOL    HW288501   0.339  10.134   2.764  0.8070  0.5761 -0.1511
23631SOL     OW88502   9.572  11.527   6.577  0.2251 -0.2833  0.0069
23631SOL    HW188503   9.567  11.599   6.640 -1.2994  0.3402 -0.7781
23631SOL    HW288504   9.660  11.532   6.541  1.4181 -1.1385  2.6099
23632SOL     OW88505   0.718   2.934   6.072  0.4293 -0.5773 -0.1809
23632SOL    HW188506   0.775   2.880   6.016  1.5223 -1.4907  1.7053
23632SOL    HW288507   0.779   2.985   6.125 -0.4788 -1.4275  1.7554
23633SOL     OW88508   9.968   5.325   3.816 -0.1815  0.7909 -0.1048
23633SOL    HW188509  10.031   5.326   3.888  0.6551  1.3266 -0.8215
23633SOL    HW288510   9.921   5.408   3.824  0.7383  1.4080 -0.8610
23634SOL     OW88511  13.690  11.392   8.193 -0.2373 -0.0387  0.0087
23634SOL    HW188512  13.625  11.447   8.235  1.0208  1.8705 -0.4275
23634SOL    HW288513  13.693  11.423   8.102  0.7489 -0.5831 -0.1628
23635SOL     OW88514   6.741   5.313   4.683  0.2622  0.3086 -0.7891
23635SOL    HW188515   6.745   5.335   4.589  0.4047  2.1873 -0.3788
23635SOL    HW288516   6.648   5.324   4.705  0.5786  2.2556 -0.2257
23636SOL     OW88517   6.956   4.934   3.091  0.1697 -0.3148 -0.1059
23636SOL    HW188518   7.005   5.012   3.067  0.1975 -0.4038 -0.3412
23636SOL    HW288519   7.015   4.861   3.071 -0.3289 -0.4645 -1.0938
23637SOL     OW88520   7.805   9.745   8.419  0.4658 -0.1502  0.0515
23637SOL    HW188521   7.790   9.730   8.512 -1.9603 -2.1790 -0.5625
23637SOL    HW288522   7.796   9.839   8.407  2.6046  0.4011  2.0745
23638SOL     OW88523   8.907   2.787   8.414 -0.0385  0.3739  0.7490
23638SOL    HW188524   8.945   2.854   8.470  0.0146  0.1886  0.9357
23638SOL    HW288525   8.942   2.805   8.327  0.2956  0.3406  0.8766
23639SOL     OW88526   0.714  13.667   9.857 -0.1667  0.0233 -0.7551
23639SOL    HW188527   0.678  13.611   9.927 -2.9643  0.0929 -1.9926
23639SOL    HW288528   0.706  13.756   9.892 -1.6820  0.0707 -1.1466
23640SOL     OW88529  13.184  13.033  13.724 -0.2739  0.4072 -0.1673
23640SOL    HW188530  13.270  12.990  13.724 -0.4646 -0.1036 -2.6451
23640SOL    HW288531  13.203  13.124  13.704 -0.2620  0.4943  0.2239
23641SOL     OW88532   4.116   5.634   9.480  0.0620 -0.3374  0.5181
23641SOL    HW188533   4.106   5.568   9.548  0.1841 -0.9610 -0.0657
23641SOL    HW288534   4.055   5.607   9.412  2.5044 -1.8091 -1.2467
23642SOL     OW88535   9.252   2.362   8.024  0.4022 -0.3107 -0.1908
23642SOL    HW188536   9.166   2.405   8.029 -0.3329 -1.7840  0.4115
23642SOL    HW288537   9.254   2.324   7.936  0.2382 -0.6591 -0.0458
23643SOL     OW88538  10.262  13.471  11.680 -0.5162 -0.5267 -0.1100
23643SOL    HW188539  10.255  13.545  11.620 -0.5030 -1.8548 -1.8411
23643SOL    HW288540  10.177  13.427  11.674  0.1755 -1.8269 -0.7543
23644SOL     OW88541   8.830   5.284   1.588  0.0247  0.2153 -0.1629
23644SOL    HW188542   8.874   5.353   1.538 -1.1322  1.6264  0.6916
23644SOL    HW288543   8.775   5.240   1.523  0.7167  0.1174 -0.7027
23645SOL     OW88544   6.830   1.725   1.365  0.3100 -0.1464 -0.2203
23645SOL    HW188545   6.854   1.688   1.280 -0.9130 -3.0650  0.5819
23645SOL    HW288546   6.914   1.733   1.411  0.5863 -4.0796  0.2721
23646SOL     OW88547   9.141  11.005   4.895  0.0376 -0.0678 -0.0811
23646SOL    HW188548   9.172  10.950   4.967 -0.7804  0.1809  0.4734
23646SOL    HW288549   9.219  11.055   4.868  0.0642  0.8458  1.5552
23647SOL     OW88550   9.250   3.224   0.336  0.1227  0.3656 -0.2791
23647SOL    HW188551   9.188   3.174   0.282 -0.0018 -1.1275  1.1644
23647SOL    HW288552   9.322   3.245   0.276 -0.7286  0.1679 -1.4151
23648SOL     OW88553   7.662  10.645   2.601  0.2049 -0.1396  0.0178
23648SOL    HW188554   7.574  10.618   2.625  0.4413 -1.0720 -0.1126
23648SOL    HW288555   7.712  10.643   2.683  0.5793 -1.5992 -0.2069
23649SOL     OW88556   0.824  11.537   7.748 -0.2184 -0.4618 -0.2968
23649SOL    HW188557   0.858  11.456   7.710  0.2764 -0.1153 -0.6095
23649SOL    HW288558   0.810  11.595   7.673  0.3713  0.0862 -0.0025
23650SOL     OW88559   3.524  10.226   4.638  0.3915 -0.1783 -0.6075
23650SOL    HW188560   3.454  10.194   4.581  0.4361  0.3846 -0.9925
23650SOL    HW288561   3.603  10.184   4.604 -0.1562 -4.7968  2.7346
23651SOL     OW88562   1.647   0.712   9.053 -0.2730 -0.3084 -0.6780
23651SOL    HW188563   1.642   0.637   8.994 -0.0910 -1.1615  0.3684
23651SOL    HW288564   1.677   0.784   8.997  1.3250 -1.4245 -1.3324
23652SOL     OW88565   9.202  12.165   4.067 -0.1797  0.5671  0.1537
23652SOL    HW188566   9.274  12.217   4.104  0.6489 -0.5330  0.1522
23652SOL    HW288567   9.246  12.104   4.007 -1.2996  0.9935 -1.1430
23653SOL     OW88568   5.923  13.461   2.122  0.1983 -0.3209 -0.4025
23653SOL    HW188569   6.001  13.459   2.178  0.3370 -1.5696 -0.6071
23653SOL    HW288570   5.852  13.433   2.180 -0.1116  0.7888 -0.2241
23654SOL     OW88571  11.875   3.961  12.438 -0.2553 -0.3246 -0.4799
23654SOL    HW188572  11.902   3.960  12.530  0.2657 -0.7192 -0.6280
23654SOL    HW288573  11.902   4.046  12.406 -1.6183  0.3406  0.0586
23655SOL     OW88574  11.668  10.887   7.853  0.1818 -0.0064  0.1810
23655SOL    HW188575  11.620  10.804   7.853 -0.0900  0.1488  0.3586
23655SOL    HW288576  11.637  10.931   7.932 -0.2905  0.6250 -0.3493
23656SOL     OW88577   4.764  12.086   1.523 -0.0732  0.0404  0.0946
23656SOL    HW188578   4.682  12.135   1.519 -0.0034  0.1100 -0.8297
23656SOL    HW288579   4.817  12.133   1.586 -0.5036  0.3746  0.2152
23657SOL     OW88580  11.377   2.448   5.439 -0.1992  0.2225 -0.5558
23657SOL    HW188581  11.440   2.430   5.369 -0.9890  0.8258 -1.4459
23657SOL    HW288582  11.293   2.415   5.406 -0.3985 -0.5135  0.5857
23658SOL     OW88583   6.734   5.352   0.136  0.0864  0.5500 -0.7142
23658SOL    HW188584   6.713   5.267   0.098  0.0541 -1.0569  2.5542
23658SOL    HW288585   6.826   5.345   0.162 -0.1731  1.1080  0.4416
23659SOL     OW88586   4.512  12.552   3.897 -0.1068  0.1212 -0.6674
23659SOL    HW188587   4.518  12.492   3.971 -3.6292 -0.3862 -0.5936
23659SOL    HW288588   4.509  12.495   3.820  0.8320  0.4925 -0.9938
23660SOL     OW88589   0.458   5.537   8.043  0.2426 -0.3538 -0.2918
23660SOL    HW188590   0.416   5.457   8.075 -1.9336  0.3592 -1.1863
23660SOL    HW288591   0.386   5.599   8.031  1.8551  1.7984  0.4115
23661SOL     OW88592  13.695   2.663   9.462  0.2298 -0.3307  0.4228
23661SOL    HW188593  13.644   2.611   9.524 -0.3108 -1.0638 -0.6084
23661SOL    HW288594  13.634   2.680   9.389  0.5176  1.3847  0.5258
23662SOL     OW88595   1.651   0.545   5.765  0.0501  0.2706 -0.3587
23662SOL    HW188596   1.557   0.530   5.754  0.2443 -0.4098 -1.2166
23662SOL    HW288597   1.664   0.635   5.733 -0.1525 -0.0042 -1.2482
23663SOL     OW88598  14.025  11.041  12.467  0.3744  0.2521  0.4386
23663SOL    HW188599  13.943  11.075  12.431 -0.3561 -1.3173  0.5695
23663SOL    HW288600  14.091  11.065  12.402 -0.4212  0.1946 -0.4102
23664SOL     OW88601  10.580   6.154   3.327  0.6180 -0.6752 -0.1518
23664SOL    HW188602  10.563   6.104   3.247  2.5381  0.0533 -1.0727
23664SOL    HW288603  10.517   6.119   3.391 -1.0561 -1.1870 -1.9904
23665SOL     OW88604   3.129   9.748  10.282  0.1920 -0.2325 -0.2119
23665SOL    HW188605   3.078   9.827  10.300  1.4157  0.2696  1.2975
23665SOL    HW288606   3.070   9.694  10.230 -0.9463  1.3626 -0.6861
23666SOL     OW88607   8.707   5.620   2.257 -0.0069  0.4314  0.2115
23666SOL    HW188608   8.799   5.633   2.234  0.2861 -0.9866  0.4345
23666SOL    HW288609   8.673   5.560   2.190  0.1322 -1.5620  1.7970
23667SOL     OW88610   3.958   9.787  11.275 -0.0869  0.5704 -0.2130
23667SOL    HW188611   3.916   9.711  11.317 -2.2222  1.3925 -0.7117
23667SOL    HW288612   4.027   9.813  11.336 -0.0884 -1.0289  0.5429
23668SOL     OW88613  11.592   1.934   9.269 -0.5010  0.0935 -0.9486
23668SOL    HW188614  11.688   1.938   9.271 -0.4883  1.3181  2.3680
23668SOL    HW288615  11.565   2.025   9.260 -1.1980  0.3983  2.8460
23669SOL     OW88616   8.709   3.609   5.971 -0.4121 -0.5404  0.1960
23669SOL    HW188617   8.746   3.540   5.915  0.5733  0.9922 -1.1179
23669SOL    HW288618   8.679   3.677   5.911  0.2544  0.9757  1.4901
23670SOL     OW88619   0.491   2.615   9.414 -0.6560 -0.1665 -0.0046
23670SOL    HW188620   0.413   2.629   9.467  0.1043 -3.1283  2.1507
23670SOL    HW288621   0.459   2.567   9.337 -1.0415 -1.3616  0.8636
23671SOL     OW88622   3.518   7.249  11.989  0.1265  0.3906  0.3884
23671SOL    HW188623   3.518   7.345  11.988 -1.1644  0.4085 -1.0681
23671SOL    HW288624   3.426   7.225  11.997  0.5352 -0.7698  2.1506
23672SOL     OW88625   3.915   2.841   5.086  0.0111  0.5169 -0.3072
23672SOL    HW188626   3.824   2.859   5.062  0.1228  1.9890  0.2925
23672SOL    HW288627   3.946   2.782   5.017 -1.3954 -0.0534 -0.4985
23673SOL     OW88628   8.815   8.112   3.329  0.1008 -0.0290  0.1374
23673SOL    HW188629   8.835   8.145   3.241  1.3633 -0.4333  0.2558
23673SOL    HW288630   8.874   8.161   3.387 -0.0488 -0.4503  0.6531
23674SOL     OW88631   3.908   1.348   3.133 -0.4827  0.0211  0.6600
23674SOL    HW188632   3.861   1.430   3.118 -0.2389 -0.1019 -1.0067
23674SOL    HW288633   3.880   1.320   3.220 -2.3955  0.6671  0.3076
23675SOL     OW88634   4.058  13.405   0.900 -0.2865  0.2318  0.0365
23675SOL    HW188635   4.045  13.497   0.920 -0.0087 -0.0439  1.6146
23675SOL    HW288636   4.019  13.393   0.813 -2.2866  1.3792  0.7007
23676SOL     OW88637   4.168   0.744   6.244 -0.7759  0.2012 -1.1738
23676SOL    HW188638   4.127   0.696   6.171 -1.9711  1.5624 -1.4434
23676SOL    HW288639   4.210   0.820   6.202  1.5356 -0.7866 -0.8160
23677SOL     OW88640   6.245   5.384   5.146  0.5804 -0.0992  0.3449
23677SOL    HW188641   6.167   5.420   5.188  2.2046  2.0015  1.7777
23677SOL    HW288642   6.258   5.440   5.069  1.2541  0.3123  0.7396
23678SOL     OW88643  12.827  13.174   0.260 -0.4315 -0.0810  0.2792
23678SOL    HW188644  12.898  13.228   0.294 -1.1418  1.0326  0.0336
23678SOL    HW288645  12.770  13.159   0.336  1.6578 -3.7718  1.3481
23679SOL     OW88646   4.390   4.911   2.864 -0.0752 -0.1873  0.4970
23679SOL    HW188647   4.377   4.890   2.957 -1.8315  1.5838  0.7065
23679SOL    HW288648   4.362   5.002   2.856  0.5242 -0.1477 -1.6963
23680SOL     OW88649   3.825  13.634   8.510  0.0589  0.1273 -0.4830
23680SOL    HW188650   3.834  13.696   8.582  0.2859  0.5186 -0.8384
23680SOL    HW288651   3.733  13.608   8.511  0.2342 -0.4846  0.4351
23681SOL     OW88652   8.916   6.719   0.077  0.1365  0.0745  0.3383
23681SOL    HW188653   8.851   6.704   0.145 -0.2502  3.9314  1.0536
23681SOL    HW288654   8.864   6.736  -0.002  0.2313  1.8175  0.6055
23682SOL     OW88655  13.849   1.708   1.177  0.0028  0.2253 -0.0224
23682SOL    HW188656  13.850   1.803   1.169  1.3292  0.2564  0.3590
23682SOL    HW288657  13.882   1.676   1.093  2.4433  0.2237  0.8581
23683SOL     OW88658   6.238  12.704  10.178  0.3559 -0.0251  0.4249
23683SOL    HW188659   6.194  12.624  10.150 -3.8046  3.0044 -2.8797
23683SOL    HW288660   6.188  12.733  10.255  0.4275  0.4853  0.2827
23684SOL     OW88661   5.195   8.667   3.617 -0.1136  0.6994  0.2169
23684SOL    HW188662   5.100   8.658   3.612  0.0047 -0.1841 -0.8919
23684SOL    HW288663   5.228   8.615   3.544  1.4225 -2.5947  2.9137
23685SOL     OW88664   5.467   7.766   9.429 -0.3561 -0.2589 -0.7342
23685SOL    HW188665   5.413   7.757   9.508 -1.2847 -0.1437 -1.3332
23685SOL    HW288666   5.557   7.770   9.461 -0.7410  0.1243  0.3368
23686SOL     OW88667  12.700   3.756   7.026 -0.0011  0.4487  0.3044
23686SOL    HW188668  12.673   3.690   7.090  0.5951  0.8327  0.9683
23686SOL    HW288669  12.789   3.779   7.052 -0.1362  1.3874 -0.0293
23687SOL     OW88670  13.483  10.790  11.353  0.3938  0.0396  0.2321
23687SOL    HW188671  13.508  10.881  11.364  1.3134 -0.0208 -1.2003
23687SOL    HW288672  13.387  10.791  11.357  0.4160  0.9286  1.0422
23688SOL     OW88673   0.700   5.132   8.959 -0.2130 -0.8180 -0.0928
23688SOL    HW188674   0.756   5.174   8.893  0.2007  0.6620  1.1410
23688SOL    HW288675   0.736   5.044   8.968  0.7744 -0.4890 -0.6448
23689SOL     OW88676   9.692   7.714   8.592  0.3936 -0.3226  0.3075
23689SOL    HW188677   9.786   7.717   8.608  0.1387  0.5469  1.8262
23689SOL    HW288678   9.667   7.806   8.583 -0.1769 -0.5941 -1.0118
23690SOL     OW88679   3.175  11.091   3.998 -0.0846  0.2645  0.1666
23690SOL    HW188680   3.212  11.032   4.063  2.4477  0.0848 -1.2646
23690SOL    HW288681   3.084  11.065   3.989  0.0821 -1.1280  2.0173
23691SOL     OW88682   7.909   0.985   4.704  0.5223 -0.4327 -0.9539
23691SOL    HW188683   7.975   0.918   4.684 -1.6311 -2.5324 -1.4861
23691SOL    HW288684   7.845   0.940   4.759 -0.8129  1.3131 -0.9942
23692SOL     OW88685   9.594  12.770   1.054  0.1941  0.5805  0.0630
23692SOL    HW188686   9.580  12.697   1.115 -0.2132  0.8659  0.3167
23692SOL    HW288687   9.689  12.770   1.038  0.2740  0.3561  0.5125
23693SOL     OW88688  12.190   0.616   6.643 -0.1362  0.3392  0.2837
23693SOL    HW188689  12.149   0.584   6.563  0.9808 -0.4492 -0.0088
23693SOL    HW288690  12.245   0.689   6.615 -0.1957  0.4392  0.4248
23694SOL     OW88691   1.818  12.189   9.340  0.3967  0.2395  0.3094
23694SOL    HW188692   1.847  12.099   9.354 -2.5983 -0.6955  1.1866
23694SOL    HW288693   1.864  12.240   9.406  1.5772 -0.7431  0.2772
23695SOL     OW88694   3.848   7.930   7.562 -0.2238 -0.2524 -0.1756
23695SOL    HW188695   3.936   7.891   7.560 -0.9090 -1.9275  0.7876
23695SOL    HW288696   3.835   7.962   7.472  0.8730 -1.1236 -0.6808
23696SOL     OW88697   7.666  11.191   9.220 -0.2698  0.1835  0.5727
23696SOL    HW188698   7.663  11.253   9.147  1.6115  0.1784  0.4327
23696SOL    HW288699   7.760  11.176   9.234 -0.3290  2.1236  4.6140
23697SOL     OW88700  12.649   2.398   8.474 -0.5738 -0.2803 -0.3555
23697SOL    HW188701  12.676   2.399   8.566  0.5163  1.3029 -0.6681
23697SOL    HW288702  12.730   2.386   8.425 -0.9207  0.5577 -1.1654
23698SOL     OW88703   0.201   6.232   3.266 -0.3937  0.4408 -0.0762
23698SOL    HW188704   0.273   6.279   3.224 -0.9236  1.1647 -0.2013
23698SOL    HW288705   0.155   6.189   3.194  0.1406 -0.3679  0.0468
23699SOL     OW88706   3.718  10.391   0.757  0.6187  0.2959  0.1726
23699SOL    HW188707   3.712  10.414   0.849  0.8929  1.7413 -0.1421
23699SOL    HW288708   3.725  10.295   0.756  1.9734  0.3406  1.7216
23700SOL     OW88709   7.971  12.512   8.363 -0.0918 -0.0661 -0.2799
23700SOL    HW188710   8.054  12.553   8.385  0.4798 -0.4552 -1.6179
23700SOL    HW288711   7.906  12.582   8.371  0.0773 -0.1051  2.2400
23701SOL     OW88712  11.323   0.099   6.454 -0.6605  0.5142 -0.2542
23701SOL    HW188713  11.399   0.157   6.458 -0.0982 -0.2179 -0.0886
23701SOL    HW288714  11.315   0.077   6.361 -0.9065  0.8948 -0.3244
23702SOL     OW88715   9.587   4.367   9.570 -0.6268  0.6348  0.1073
23702SOL    HW188716   9.550   4.386   9.483 -0.0855 -1.5256 -0.6537
23702SOL    HW288717   9.543   4.429   9.628 -0.6564  2.4912 -1.7528
23703SOL     OW88718   4.921  13.000   8.857 -0.2602  0.0554 -0.0046
23703SOL    HW188719   4.959  13.003   8.769  0.4127  0.5570  0.2896
23703SOL    HW288720   4.838  13.046   8.849  0.0920  0.6632 -0.2453
23704SOL     OW88721  12.650   3.574  10.813  0.3244  0.3714  0.3401
23704SOL    HW188722  12.604   3.657  10.802 -0.1630  0.5112  2.8988
23704SOL    HW288723  12.730   3.585  10.761 -0.3279  1.9052 -0.4340
23705SOL     OW88724   1.678   7.704   8.109  0.2549  0.1595  0.3041
23705SOL    HW188725   1.591   7.668   8.090  0.7094 -0.5127 -0.6196
23705SOL    HW288726   1.661   7.785   8.157 -0.8903  0.3453 -0.3835
23706SOL     OW88727  13.959   6.978   1.529 -0.5731 -0.7945 -0.6362
23706SOL    HW188728  14.010   6.968   1.448 -0.5251 -1.6679 -0.5101
23706SOL    HW288729  13.901   7.052   1.511  0.0831 -0.3816 -1.1252
23707SOL     OW88730   7.137   1.282   5.945 -0.1916 -0.6352 -0.2156
23707SOL    HW188731   7.208   1.218   5.952 -0.7548 -1.0821  2.2901
23707SOL    HW288732   7.073   1.240   5.888  0.2258 -1.5493 -0.0276
23708SOL     OW88733   3.810   6.779   5.382  0.1085  0.9503 -0.0159
23708SOL    HW188734   3.734   6.762   5.437 -0.2976 -1.9472 -1.3254
23708SOL    HW288735   3.838   6.868   5.407 -1.5153  0.7371  3.0185
23709SOL     OW88736  12.483   0.138  10.534 -0.0756 -0.6360  0.1190
23709SOL    HW188737  12.525   0.223  10.524 -0.3502 -0.4378  0.6642
23709SOL    HW288738  12.555   0.075  10.528  0.1868 -0.3425  0.1978
23710SOL     OW88739   1.109  11.776   0.028  0.0914  0.4256  0.7909
23710SOL    HW188740   1.139  11.861   0.061  0.9427 -0.2487  1.8410
23710SOL    HW288741   1.171  11.714   0.065  1.3209 -0.4151 -2.3212
23711SOL     OW88742   6.119   5.534   0.973  0.6106 -0.0582 -0.2102
23711SOL    HW188743   6.157   5.613   1.010  0.7121  0.6277 -1.6840
23711SOL    HW288744   6.194   5.484   0.941  0.4879 -0.3087 -0.1100
23712SOL     OW88745   8.741  11.184   5.457  0.2575  0.2411  0.2603
23712SOL    HW188746   8.814  11.238   5.487  0.4561 -0.5833  1.3008
23712SOL    HW288747   8.672  11.200   5.522 -0.2205  0.4037 -0.2779
23713SOL     OW88748   1.840  11.139   7.628  0.7646  0.1439  0.4080
23713SOL    HW188749   1.776  11.104   7.690 -0.0708 -0.7506 -0.8945
23713SOL    HW288750   1.906  11.070   7.620 -0.5323 -0.9950 -1.6498
23714SOL     OW88751   3.124  10.423   5.739  0.2082  0.1758  0.1593
23714SOL    HW188752   3.188  10.360   5.706  0.5410  1.1690 -1.1808
23714SOL    HW288753   3.170  10.468   5.810  0.4237 -0.1899  0.2578
23715SOL     OW88754  11.418   1.696   4.481  0.4651  0.3753 -0.2055
23715SOL    HW188755  11.493   1.635   4.480 -0.5289 -0.9022  0.0988
23715SOL    HW288756  11.353   1.653   4.537 -0.6364  1.2958 -0.7395
23716SOL     OW88757   0.744   4.108  12.640 -0.3689  0.1931  0.1047
23716SOL    HW188758   0.831   4.148  12.635 -0.1543 -0.3385 -0.4981
23716SOL    HW288759   0.732   4.066  12.555 -0.7184 -0.7639  0.6142
23717SOL     OW88760   6.953   4.368   3.040  0.6537  0.4127  0.0601
23717SOL    HW188761   6.877   4.353   3.097  1.8495 -1.3310  1.2727
23717SOL    HW288762   6.989   4.281   3.024  0.5578  0.8675 -3.2010
23718SOL     OW88763   5.318   6.279   0.303 -0.0451 -0.1227 -0.1009
23718SOL    HW188764   5.314   6.187   0.329  1.2885 -0.7972 -2.0814
23718SOL    HW288765   5.377   6.320   0.367  0.9947 -1.1180 -0.4001
23719SOL     OW88766   6.580   5.141   0.047  0.0525 -0.3695  0.2739
23719SOL    HW188767   6.491   5.173   0.061 -0.1919 -0.0357 -1.6611
23719SOL    HW288768   6.599   5.163  -0.045  1.1670 -2.6557 -0.1257
23720SOL     OW88769  12.700   7.614   1.792  0.3339 -0.2430  0.2731
23720SOL    HW188770  12.720   7.525   1.764 -2.2151 -0.2892 -1.8365
23720SOL    HW288771  12.739   7.669   1.724  1.0719  0.2305  1.0579
23721SOL     OW88772  10.658  12.673   0.037  0.7275 -0.6877  0.2818
23721SOL    HW188773  10.624  12.674  -0.053  1.1235 -0.7169  0.1260
23721SOL    HW288774  10.752  12.690   0.026  0.8482 -1.1013  0.6567
23722SOL     OW88775  14.076   1.525   9.830  0.1690  0.0051 -0.3786
23722SOL    HW188776  13.984   1.514   9.804 -0.0034  1.1760 -0.3160
23722SOL    HW288777  14.085   1.619   9.846  0.6207 -0.4213  2.4430
23723SOL     OW88778   4.869  10.447   9.847 -0.0607 -0.4790 -0.1329
23723SOL    HW188779   4.948  10.445   9.794  0.3483 -1.5670  0.4892
23723SOL    HW288780   4.888  10.390   9.922 -0.8184  0.5752  0.9055
23724SOL     OW88781  12.010   4.764  12.208 -0.5061 -0.7694 -0.0677
23724SOL    HW188782  11.990   4.686  12.156  1.4839 -1.2172 -0.2555
23724SOL    HW288783  12.024   4.731  12.297  1.6941 -0.9139 -0.4029
23725SOL     OW88784  12.065  13.041   6.737 -0.3580  0.2098  1.1731
23725SOL    HW188785  12.072  12.948   6.758  0.6663  0.0341  0.1748
23725SOL    HW288786  12.067  13.086   6.822 -1.0594 -0.6721  1.6708
23726SOL     OW88787   1.504   0.917   3.931  0.5141 -0.2960 -0.0266
23726SOL    HW188788   1.427   0.892   3.881 -0.2389  1.6692  0.0691
23726SOL    HW288789   1.560   0.963   3.869  0.2212  0.9039  0.5680
23727SOL     OW88790   3.729   5.022   5.014 -0.3034  1.0810 -0.2311
23727SOL    HW188791   3.677   4.942   5.025 -3.2465  2.5489 -2.1634
23727SOL    HW288792   3.720   5.068   5.098 -1.8602  1.0855 -0.3576
23728SOL     OW88793   0.579   4.468   3.312 -0.1337  0.4383  0.3411
23728SOL    HW188794   0.535   4.553   3.303 -0.9194  0.0074 -0.0160
23728SOL    HW288795   0.574   4.449   3.406 -0.5464  0.4852  0.3328
23729SOL     OW88796   1.473   1.622   9.413 -0.0877  0.2793 -0.3243
23729SOL    HW188797   1.489   1.685   9.343  0.8683  0.5287  0.1166
23729SOL    HW288798   1.550   1.565   9.413 -0.1318  0.2059  0.4434
23730SOL     OW88799  13.908   8.868  13.664 -0.5400 -0.2867 -0.2705
23730SOL    HW188800  13.817   8.891  13.647 -0.8119  0.3595  1.8419
23730SOL    HW288801  13.903   8.786  13.714  0.1510 -1.1848 -1.5902
23731SOL     OW88802   6.405  11.249   8.339 -0.6027 -0.1008 -0.0089
23731SOL    HW188803   6.393  11.169   8.389 -1.8211 -0.8491 -1.4236
23731SOL    HW288804   6.338  11.246   8.271  0.0163  1.5977 -0.7730
23732SOL     OW88805   0.514   9.248   7.858  0.1390 -0.0844 -0.0836
23732SOL    HW188806   0.550   9.335   7.846 -0.7036  0.0861 -1.7753
23732SOL    HW288807   0.458   9.255   7.936  0.8605  0.5903  0.3853
23733SOL     OW88808  11.401   3.951   1.476 -0.0258  0.5894 -0.6949
23733SOL    HW188809  11.422   3.897   1.400 -5.8088 -0.7496 -1.8212
23733SOL    HW288810  11.409   3.892   1.551  0.4072  0.2609 -0.9991
23734SOL     OW88811   6.510   4.304   4.880 -0.3595 -0.1877  0.2842
23734SOL    HW188812   6.500   4.209   4.868  0.4183 -0.2758  0.2654
23734SOL    HW288813   6.421   4.338   4.877 -0.6811 -0.9648  0.6711
23735SOL     OW88814   0.295   9.561  11.491  0.5137  0.3162  0.0953
23735SOL    HW188815   0.384   9.545  11.524  0.3405 -2.0868 -0.4006
23735SOL    HW288816   0.240   9.500  11.541 -0.2337 -1.0434 -2.2696
23736SOL     OW88817   1.623  11.431  12.186 -0.3695  0.0230 -0.5719
23736SOL    HW188818   1.608  11.344  12.222 -1.2550  0.7693  0.9840
23736SOL    HW288819   1.563  11.437  12.111 -1.8649  0.0074  0.5750
23737SOL     OW88820   2.606  11.632   0.607 -0.1366  0.3533  0.6197
23737SOL    HW188821   2.654  11.653   0.526 -1.6527  0.2975 -0.3271
23737SOL    HW288822   2.675  11.619   0.672  1.1523  0.0648 -0.7305
23738SOL     OW88823  10.999   1.523  12.894 -0.0249  0.4202  0.4322
23738SOL    HW188824  10.989   1.586  12.823  1.1913 -0.2161 -0.3471
23738SOL    HW288825  10.953   1.445  12.863  0.8108  0.0196  0.1567
23739SOL     OW88826  11.856   1.389   4.590 -0.3239  0.1369 -0.3958
23739SOL    HW188827  11.890   1.460   4.645  0.8300 -1.2675  0.7821
23739SOL    HW288828  11.922   1.377   4.523 -1.2116  1.1061 -1.4886
23740SOL     OW88829   0.696   5.797   7.819  0.1792  0.2878  0.5289
23740SOL    HW188830   0.759   5.869   7.825  1.1316 -0.5640  0.9453
23740SOL    HW288831   0.664   5.800   7.728 -1.1552  2.3308  0.9893
23741SOL     OW88832  11.446   1.136  11.166  0.2993 -0.0805 -0.5324
23741SOL    HW188833  11.535   1.169  11.176  0.2002 -0.0598  0.4311
23741SOL    HW288834  11.394   1.214  11.145  0.2237  0.2441  0.7588
23742SOL     OW88835   4.195   3.445  12.645 -0.6567 -0.2197 -0.3665
23742SOL    HW188836   4.219   3.517  12.702  2.4427  0.7269 -2.5909
23742SOL    HW288837   4.186   3.484  12.558 -0.1816 -2.2685 -1.4239
23743SOL     OW88838   3.131  12.964   3.991  0.3460  0.6537 -0.0506
23743SOL    HW188839   3.103  13.043   4.036 -0.6237  0.8667 -0.9989
23743SOL    HW288840   3.057  12.940   3.935 -0.3902 -2.2651  1.9054
23744SOL     OW88841   3.215  10.305   4.754 -0.7849  0.2914  0.1014
23744SOL    HW188842   3.237  10.359   4.830 -0.1238 -0.7703  0.6729
23744SOL    HW288843   3.212  10.367   4.681 -0.6006  1.1881  0.8423
23745SOL     OW88844   6.185  11.475   0.680  0.1934 -0.6910 -0.0944
23745SOL    HW188845   6.116  11.439   0.736  0.1057 -2.0624 -1.0435
23745SOL    HW288846   6.138  11.525   0.613  0.3102  1.2196  1.1506
23746SOL     OW88847  14.047  11.414  12.947  0.2729  0.0864 -0.0065
23746SOL    HW188848  13.954  11.421  12.925  0.5210  3.9390 -0.5277
23746SOL    HW288849  14.084  11.358  12.879 -1.3796  0.0407 -0.9149
23747SOL     OW88850   6.919   7.823   9.171 -0.3878  0.4745  0.0262
23747SOL    HW188851   6.981   7.817   9.244 -0.1463  1.9089 -0.0217
23747SOL    HW288852   6.934   7.743   9.120 -0.3673 -0.4124  1.3743
23748SOL     OW88853   1.295  13.004   2.069  0.2654 -0.0260  0.0846
23748SOL    HW188854   1.265  13.095   2.066  1.0302  0.2295 -0.0837
23748SOL    HW288855   1.214  12.952   2.070 -0.1920  0.6109 -1.3523
23749SOL     OW88856   4.657   3.755   6.799  0.2139  0.1582 -0.0019
23749SOL    HW188857   4.601   3.756   6.721 -1.3130  1.0557  1.0391
23749SOL    HW288858   4.596   3.736   6.871  1.0360  2.1368  1.3096
23750SOL     OW88859   2.652   7.129   2.999 -0.3424 -0.1631 -0.1109
23750SOL    HW188860   2.584   7.086   3.051 -0.5524  0.3242  0.0153
23750SOL    HW288861   2.658   7.217   3.034  1.1781 -0.5379  0.6508
23751SOL     OW88862   0.460   5.167   9.071 -0.1744  0.4151  0.0919
23751SOL    HW188863   0.447   5.259   9.048  0.4926  0.3395 -0.6229
23751SOL    HW288864   0.554   5.152   9.060  0.0723  0.1599  2.1503
23752SOL     OW88865   0.326   2.128  10.732  0.1361 -0.1902  0.1191
23752SOL    HW188866   0.281   2.154  10.651 -1.0196 -1.4648  0.3164
23752SOL    HW288867   0.406   2.180  10.732 -0.3765  0.6734 -1.2724
23753SOL     OW88868   4.426   6.084   4.010 -0.1989  0.6407 -0.4281
23753SOL    HW188869   4.451   6.117   3.924  1.0625 -0.7462 -0.6250
23753SOL    HW288870   4.506   6.090   4.062 -0.0855 -1.4868 -0.2949
23754SOL     OW88871   9.487   8.729  12.416 -0.7882 -0.1747 -0.4975
23754SOL    HW188872   9.517   8.793  12.351  0.3091  0.4966  0.6062
23754SOL    HW288873   9.504   8.644  12.375 -0.6737  0.2275 -1.3200
23755SOL     OW88874   2.012  10.956  10.299  0.2013  0.0270 -0.3620
23755SOL    HW188875   2.015  10.879  10.355  1.5067 -0.5879 -1.2202
23755SOL    HW288876   2.099  10.996  10.310  1.6597 -1.6937 -3.9996
23756SOL     OW88877   5.499  10.840   6.805 -0.4454  0.1281  0.0552
23756SOL    HW188878   5.446  10.872   6.732  0.2201  0.1340 -0.4327
23756SOL    HW288879   5.467  10.751   6.821  0.6986 -0.6003 -1.5243
23757SOL     OW88880  13.135   2.279   8.060 -0.5091 -0.5992  0.2169
23757SOL    HW188881  13.055   2.312   8.100 -0.0317  1.3364 -0.3382
23757SOL    HW288882  13.201   2.345   8.079  0.5383 -1.2881 -0.8667
23758SOL     OW88883   0.153   2.966   5.564  0.2457  0.4533 -0.0646
23758SOL    HW188884   0.060   2.954   5.584  0.4691  0.1090  0.8265
23758SOL    HW288885   0.159   2.951   5.470 -0.4551 -0.4894  0.0240
23759SOL     OW88886  14.013   4.603   6.293  0.2939  0.3264 -0.0097
23759SOL    HW188887  13.930   4.568   6.323 -0.9042  1.8070 -1.4200
23759SOL    HW288888  14.076   4.532   6.307 -1.2773 -0.9823  0.6755
23760SOL     OW88889  13.854   6.504   1.181 -0.8200 -0.0919  0.2693
23760SOL    HW188890  13.885   6.490   1.091 -1.2478 -0.0936  0.1182
23760SOL    HW288891  13.763   6.473   1.179 -0.5357 -1.0185  0.9499
23761SOL     OW88892  12.986   2.828   8.616  1.4900  0.2137 -0.2346
23761SOL    HW188893  12.962   2.764   8.684 -0.7936 -0.5189 -1.6188
23761SOL    HW288894  12.980   2.913   8.660  0.4266 -0.2634  0.5998
23762SOL     OW88895   3.124   3.381  10.277  0.1167 -0.3543  0.2913
23762SOL    HW188896   3.053   3.323  10.251 -1.6350  1.6239  0.4038
23762SOL    HW288897   3.111   3.394  10.371  0.1265  0.6245  0.1700
23763SOL     OW88898   4.635   0.561   1.581  0.1592 -0.0432 -0.4000
23763SOL    HW188899   4.687   0.623   1.632  0.0815  0.5573 -1.0282
23763SOL    HW288900   4.699   0.513   1.529  0.1460  0.1827 -0.6264
23764SOL     OW88901   2.605  13.349   1.147 -0.0533  0.6034 -0.1844
23764SOL    HW188902   2.547  13.297   1.091  0.9110  0.2191 -0.8365
23764SOL    HW288903   2.578  13.325   1.236 -0.5073 -0.0127 -0.4723
23765SOL     OW88904   5.481   3.843  10.207 -0.2677  0.2322  0.5555
23765SOL    HW188905   5.571   3.868  10.190 -0.4698  0.9304  0.4652
23765SOL    HW288906   5.431   3.881  10.135 -0.5158 -1.0512  0.0168
23766SOL     OW88907   3.294   2.933   8.204 -0.1761  0.0761 -0.0202
23766SOL    HW188908   3.248   2.946   8.121 -1.7503  0.2106  0.8292
23766SOL    HW288909   3.245   2.985   8.267 -0.9555 -2.4705  1.6182
23767SOL     OW88910  12.197   7.379   2.084 -0.0983  0.1591 -0.4562
23767SOL    HW188911  12.188   7.318   2.011 -0.6463  0.3731 -0.5681
23767SOL    HW288912  12.291   7.378   2.104 -0.0224 -0.3074 -0.8093
23768SOL     OW88913   5.379   4.584   0.463  0.1131  0.7453  0.1034
23768SOL    HW188914   5.346   4.544   0.543  1.3691  1.2483  0.8962
23768SOL    HW288915   5.323   4.661   0.450 -1.0132 -0.1079 -0.3275
23769SOL     OW88916   5.197   6.920   3.579 -0.1816  0.0093  0.0162
23769SOL    HW188917   5.137   6.918   3.505  0.9941 -1.7612 -0.9663
23769SOL    HW288918   5.141   6.912   3.656 -1.3008 -0.0077 -0.7787
23770SOL     OW88919   2.686   5.324   4.091 -0.4798 -0.4533  0.2266
23770SOL    HW188920   2.743   5.295   4.162  1.1956 -2.0448 -1.6214
23770SOL    HW288921   2.607   5.271   4.100  0.8218 -2.6490 -0.5932
23771SOL     OW88922   3.053   4.096  11.836  0.1483 -0.2292 -0.3953
23771SOL    HW188923   3.084   4.111  11.925  0.3592  2.0040 -0.7682
23771SOL    HW288924   2.961   4.123  11.838  0.2890  0.3283 -0.9278
23772SOL     OW88925   2.747   8.526   7.803 -0.4907 -0.1138 -0.0326
23772SOL    HW188926   2.734   8.584   7.878  3.1824 -0.6070  1.1911
23772SOL    HW288927   2.696   8.448   7.824 -0.9503  0.4557  1.0763
23773SOL     OW88928  10.409   6.011   4.707  0.2551 -0.0548 -0.3921
23773SOL    HW188929  10.424   6.036   4.616 -1.9861  0.8329 -0.5761
23773SOL    HW288930  10.474   6.062   4.756 -0.0705  1.3158 -1.3183
23774SOL     OW88931   0.985  12.300   8.741 -0.1364 -0.0631 -0.3520
23774SOL    HW188932   0.956  12.286   8.651 -0.1253 -2.2669 -0.0683
23774SOL    HW288933   0.915  12.263   8.795  1.0066 -1.1446  0.4525
23775SOL     OW88934   9.381   2.129   5.409  0.2817  0.7116  0.4474
23775SOL    HW188935   9.348   2.219   5.401  0.6934  0.7653 -0.7990
23775SOL    HW288936   9.473   2.135   5.385 -0.2044 -0.3868 -2.1034
23776SOL     OW88937  13.417  13.898  13.442  0.5393  0.0335 -0.2440
23776SOL    HW188938  13.402  13.968  13.378  0.8901  2.6218  2.3054
23776SOL    HW288939  13.511  13.881  13.438  0.2883 -1.2603 -1.7023
23777SOL     OW88940   8.432   3.732   2.780  0.0264  0.1940 -0.1307
23777SOL    HW188941   8.391   3.664   2.726 -0.4266 -0.1040  0.5727
23777SOL    HW288942   8.496   3.773   2.722 -2.1680  1.6058 -1.7363
23778SOL     OW88943  10.732   1.143  12.594  0.0353 -0.1059 -0.0213
23778SOL    HW188944  10.823   1.142  12.623  0.5250 -2.2624 -1.3852
23778SOL    HW288945  10.730   1.211  12.526  0.8304 -0.5152 -0.4776
23779SOL     OW88946   9.958   6.350  11.905  0.4119 -0.8265  0.3959
23779SOL    HW188947   9.936   6.442  11.890 -1.1422 -1.1684  0.3403
23779SOL    HW288948  10.029   6.331  11.844  0.9421  0.3993  0.6103
23780SOL     OW88949   6.929   0.336   5.124  0.2459  0.0424  0.2001
23780SOL    HW188950   6.910   0.416   5.174  1.4776  0.0184  0.7354
23780SOL    HW288951   6.979   0.281   5.185  2.3837  0.2842 -1.2319
23781SOL     OW88952   2.934   3.266  11.887 -0.5765  0.5622 -0.5873
23781SOL    HW188953   2.870   3.206  11.848  0.6727 -0.5165 -1.0245
23781SOL    HW288954   2.896   3.353  11.873 -1.1649  0.0653 -2.3699
23782SOL     OW88955  11.869   4.929  13.359  0.1630  0.1524 -0.1779
23782SOL    HW188956  11.892   4.839  13.383  0.0880  0.7108  2.2716
23782SOL    HW288957  11.953   4.975  13.353  0.2052 -0.0707 -1.4889
23783SOL     OW88958   4.474   3.866   8.753 -0.6786 -0.3953  0.3820
23783SOL    HW188959   4.432   3.943   8.792 -1.4321 -0.1887 -0.7715
23783SOL    HW288960   4.436   3.861   8.665 -0.0006 -1.5934  0.1440
23784SOL     OW88961   2.486   1.447  11.998 -0.5121 -0.6449  0.3632
23784SOL    HW188962   2.579   1.425  11.989 -0.3266  0.8081 -3.0953
23784SOL    HW288963   2.485   1.528  12.049  0.0123 -1.1739  1.2277
23785SOL     OW88964   8.336  13.302   6.452  0.0495 -0.3120  0.2535
23785SOL    HW188965   8.295  13.388   6.456 -2.1782 -1.3195  0.0929
23785SOL    HW288966   8.283  13.247   6.509  1.1090 -1.7191 -0.0650
23786SOL     OW88967   6.601   3.360   2.758  0.1558  0.2512 -1.0334
23786SOL    HW188968   6.684   3.353   2.712  0.2089  1.4909 -1.1751
23786SOL    HW288969   6.553   3.429   2.711 -0.2499  0.7446  0.0559
23787SOL     OW88970   3.958   9.158  11.905 -0.1757 -0.4948 -0.5951
23787SOL    HW188971   4.008   9.099  11.849  0.6236  0.4766 -0.9370
23787SOL    HW288972   4.013   9.169  11.983 -1.0919 -1.5130  0.2280
23788SOL     OW88973  13.971   4.828   3.516 -0.3325  0.1141 -0.4089
23788SOL    HW188974  14.055   4.867   3.491  0.1948 -0.5253  0.3066
23788SOL    HW288975  13.926   4.812   3.433  0.1768  0.6216 -0.7931
23789SOL     OW88976   1.307  10.690   4.806  0.5126 -0.9684 -0.2196
23789SOL    HW188977   1.324  10.755   4.875 -1.2204  0.1596 -0.7800
23789SOL    HW288978   1.328  10.736   4.724 -0.0856 -1.3508 -0.5906
23790SOL     OW88979   3.078  13.835  11.681  0.5596  0.3852  0.4608
23790SOL    HW188980   3.046  13.761  11.629  1.2120  0.3581  0.0940
23790SOL    HW288981   3.090  13.906  11.618  0.9440  0.4819  0.6383
23791SOL     OW88982   7.518   1.972  10.693 -0.2498 -0.3263 -0.8250
23791SOL    HW188983   7.499   2.065  10.678 -0.9947 -0.3324 -0.0202
23791SOL    HW288984   7.444   1.926  10.653 -0.0984 -0.5565 -0.8426
23792SOL     OW88985   0.775   0.215   1.461 -0.3073  0.0747 -0.3676
23792SOL    HW188986   0.705   0.222   1.525  0.6976  0.8674  0.6772
23792SOL    HW288987   0.797   0.306   1.440  0.7208 -0.1543 -0.3236
23793SOL     OW88988   7.172   6.987  12.690 -0.4761  1.0259  0.3195
23793SOL    HW188989   7.192   6.910  12.743 -0.7224  0.3297 -0.5836
23793SOL    HW288990   7.106   7.034  12.740 -2.0229 -0.5360 -0.1718
23794SOL     OW88991   8.742   1.717  12.546 -0.2960 -0.3643 -0.4383
23794SOL    HW188992   8.651   1.693  12.526 -1.0462  1.4380  0.5399
23794SOL    HW288993   8.786   1.721  12.462 -1.5143  0.1033 -1.0741
23795SOL     OW88994  10.654   9.521  10.958  0.8311  0.2456  0.5655
23795SOL    HW188995  10.732   9.529  11.013 -0.0392  0.5559  1.7931
23795SOL    HW288996  10.581   9.541  11.017 -0.3361 -1.9027 -0.0502
23796SOL     OW88997   1.020   9.695  11.702  0.6532 -0.2100  0.3024
23796SOL    HW188998   1.026   9.627  11.634  1.1128 -1.2701  1.3739
23796SOL    HW288999   0.949   9.665  11.759 -0.1128  0.9618  0.0022
23797SOL     OW89000  13.891   3.723   5.846 -0.2399  0.0693  0.2959
23797SOL    HW189001  13.852   3.788   5.905 -0.6133 -0.0445  0.1795
23797SOL    HW289002  13.977   3.705   5.883  0.2206  1.2643 -0.1321
23798SOL     OW89003   5.646  12.634   3.141  0.2409  0.0488  0.1345
23798SOL    HW189004   5.654  12.660   3.049  0.1256 -1.4124 -0.3134
23798SOL    HW289005   5.556  12.656   3.165  0.3325  0.6204 -0.0436
23799SOL     OW89006   5.067   3.491   6.334 -0.7693 -0.0614  0.1906
23799SOL    HW189007   4.984   3.454   6.365 -1.1895  1.5129  1.0775
23799SOL    HW289008   5.109   3.419   6.286 -1.2093 -1.9093  2.3624
23800SOL     OW89009   6.139  12.665   6.967  0.5287 -0.1442  0.7563
23800SOL    HW189010   6.179  12.718   7.036 -0.7101  0.5437  0.9745
23800SOL    HW289011   6.065  12.622   7.010 -1.5294  1.8861 -0.5668
23801SOL     OW89012   1.893  12.126   2.837  0.4391 -0.1565 -0.4548
23801SOL    HW189013   1.972  12.081   2.867 -1.2322 -2.4787  0.7828
23801SOL    HW289014   1.911  12.219   2.853  1.9419 -0.8150  2.2849
23802SOL     OW89015   2.376   9.138   0.815  0.1258 -0.4285  0.9217
23802SOL    HW189016   2.325   9.219   0.815  0.1099 -0.3161 -2.2442
23802SOL    HW289017   2.350   9.093   0.735  0.1116 -3.6659  2.5766
23803SOL     OW89018   4.174   9.420   4.272 -0.3033  0.0467  0.3166
23803SOL    HW189019   4.193   9.479   4.199 -1.5823  0.0572 -0.0304
23803SOL    HW289020   4.081   9.436   4.292 -0.0006  0.0038  1.9104
23804SOL     OW89021   3.330   1.254  10.107  0.1189 -0.5342 -0.2559
23804SOL    HW189022   3.335   1.341  10.068  0.1657  0.2030  1.3009
23804SOL    HW289023   3.245   1.252  10.150  0.6375 -0.7665  0.7889
23805SOL     OW89024   7.398   6.333   4.745 -0.5130  0.2207  0.0224
23805SOL    HW189025   7.431   6.350   4.656  1.5132  0.4820  0.7644
23805SOL    HW289026   7.417   6.240   4.759  0.4937  0.5114  0.6737
23806SOL     OW89027   9.938   6.061   5.059  0.5225  0.1053 -0.1045
23806SOL    HW189028  10.027   6.086   5.086  0.7770 -0.6604 -0.1898
23806SOL    HW289029   9.951   6.012   4.977  0.2610 -1.7961  0.9203
23807SOL     OW89030   1.349   1.636  11.673 -0.1483  0.1595 -0.2024
23807SOL    HW189031   1.263   1.612  11.707 -0.1134 -0.3179 -0.4405
23807SOL    HW289032   1.364   1.576  11.600  0.0568  0.7427 -0.6526
23808SOL     OW89033   6.033   3.459   6.303 -0.4276 -0.3599  1.0835
23808SOL    HW189034   5.946   3.469   6.343  0.7111  1.0897  3.4552
23808SOL    HW289035   6.054   3.366   6.315 -1.2460 -0.5079  1.4401
23809SOL     OW89036  13.956  11.708   1.389  0.3410  0.0597 -0.0185
23809SOL    HW189037  14.000  11.625   1.406  1.7594  0.8688  0.4513
23809SOL    HW289038  13.875  11.704   1.440  1.5489 -0.0915  1.9892
23810SOL     OW89039  11.776   2.433   0.162 -0.4702 -0.0461 -0.4533
23810SOL    HW189040  11.685   2.404   0.169 -0.4429 -0.4011 -1.3565
23810SOL    HW289041  11.783   2.465   0.072  0.0192  0.9780 -0.0636
23811SOL     OW89042   2.057  10.641   2.957 -0.3321 -0.6763  0.3634
23811SOL    HW189043   2.098  10.725   2.977 -1.5416  0.1966 -0.6641
23811SOL    HW289044   2.131  10.580   2.949  0.8131  0.8205 -1.3589
23812SOL     OW89045   6.571  10.648   3.410 -0.4837 -0.1798  0.0116
23812SOL    HW189046   6.480  10.616   3.415 -0.4247 -0.1260  1.8452
23812SOL    HW289047   6.563  10.743   3.416 -0.3413 -0.1260 -0.6008
23813SOL     OW89048   5.378   8.303   1.570 -0.1328 -0.1973  0.0118
23813SOL    HW189049   5.352   8.306   1.478 -0.0157  0.0345 -0.0154
23813SOL    HW289050   5.366   8.212   1.596 -2.2531  0.1165  0.3608
23814SOL     OW89051  13.813   3.086  10.359  0.0247 -0.0804 -0.0937
23814SOL    HW189052  13.826   3.181  10.359 -1.4143  0.1333 -0.3052
23814SOL    HW289053  13.718   3.075  10.353  0.1651 -1.5365  0.1399
23815SOL     OW89054  11.312  13.474   1.417 -0.1729  0.0115  0.2758
23815SOL    HW189055  11.316  13.428   1.501  0.7146  1.8626  1.3130
23815SOL    HW289056  11.403  13.499   1.400 -0.5932  1.1607 -0.3511
23816SOL     OW89057   1.154  10.272   3.472  0.5411 -0.3484  0.0877
23816SOL    HW189058   1.093  10.242   3.539  0.3999 -0.3380 -0.0334
23816SOL    HW289059   1.238  10.278   3.516  0.0532  1.7226  0.8256
23817SOL     OW89060   4.260  10.092  12.452 -0.2040  0.1049 -0.2706
23817SOL    HW189061   4.210  10.056  12.378  3.0822 -1.1719 -2.1283
23817SOL    HW289062   4.307  10.167  12.415  0.2747  0.4444  0.9824
23818SOL     OW89063   8.919   8.174   5.391 -0.3797  0.0057  0.5792
23818SOL    HW189064   8.864   8.181   5.312  1.2815  1.0411 -0.5411
23818SOL    HW289065   8.858   8.187   5.463 -1.8861 -0.5382 -0.5308
23819SOL     OW89066   5.230   6.150   2.511  0.1273 -0.1652 -0.4193
23819SOL    HW189067   5.152   6.098   2.530  0.4157 -0.9243 -1.2383
23819SOL    HW289068   5.204   6.240   2.530 -0.8424 -0.4454 -0.3620
23820SOL     OW89069   5.354   1.190  11.810  0.5204 -0.0391  0.5217
23820SOL    HW189070   5.315   1.199  11.897 -0.7896 -0.6502  0.0094
23820SOL    HW289071   5.285   1.152  11.756  1.1872  0.7013 -0.8907
23821SOL     OW89072  13.698  11.450   2.767  0.3279  0.0885 -0.1378
23821SOL    HW189073  13.739  11.425   2.850  0.5097  0.8702  0.0235
23821SOL    HW289074  13.733  11.388   2.703 -0.5262 -1.1025  0.5227
23822SOL     OW89075   8.856   5.655   0.521  0.0505 -0.0003  0.5670
23822SOL    HW189076   8.846   5.573   0.570 -0.0710  0.1930  0.8680
23822SOL    HW289077   8.816   5.722   0.577  0.1970  0.2738  0.3484
23823SOL     OW89078   8.123  13.377   1.301 -0.6319  0.5438 -0.0604
23823SOL    HW189079   8.174  13.372   1.382 -1.3390 -2.6837  0.3435
23823SOL    HW289080   8.033  13.388   1.329 -0.6905  1.3020 -0.5229
23824SOL     OW89081   4.180   3.094   5.855 -0.5390  0.3099  0.1383
23824SOL    HW189082   4.100   3.125   5.811  0.0736  1.4864 -0.1933
23824SOL    HW289083   4.251   3.141   5.811  0.2014  0.5955  1.5748
23825SOL     OW89084  12.392   0.473  11.809 -0.1308 -0.1703 -0.2641
23825SOL    HW189085  12.425   0.436  11.727 -1.3382  0.9124 -1.2797
23825SOL    HW289086  12.297   0.475  11.799 -0.2940  0.1341  1.1035
23826SOL     OW89087   2.363  13.545   0.747  0.0290  0.0414  0.4662
23826SOL    HW189088   2.440  13.488   0.745 -0.9792 -1.4082  0.7686
23826SOL    HW289089   2.305  13.503   0.811 -2.1177 -0.4242 -1.6593
23827SOL     OW89090   6.771  12.452  13.062 -0.0267 -0.5211 -0.0453
23827SOL    HW189091   6.851  12.404  13.043 -0.3457 -0.9190 -0.3842
23827SOL    HW289092   6.800  12.543  13.070  0.3508 -0.5611 -0.8828
23828SOL     OW89093  10.414   8.523   5.230 -0.2155  0.0283  0.1635
23828SOL    HW189094  10.461   8.442   5.210 -0.7039 -0.1559 -0.2520
23828SOL    HW289095  10.430   8.538   5.323  0.8870  0.1100 -0.0196
23829SOL     OW89096   6.404   1.128  10.409  0.1491  0.0688  0.1917
23829SOL    HW189097   6.491   1.134  10.371  0.1724  0.5660  0.3230
23829SOL    HW289098   6.416   1.077  10.489  0.5871  1.4099  1.0039
23830SOL     OW89099   4.211   1.859   6.145 -0.2449 -0.1484  0.0634
23830SOL    HW189100   4.261   1.938   6.167 -1.6105  1.1317 -1.1498
23830SOL    HW289101   4.247   1.830   6.062 -1.8080  1.1452 -1.1370
23831SOL     OW89102  10.795   4.664   9.260 -0.0645 -0.6460  0.4268
23831SOL    HW189103  10.839   4.744   9.287  0.4682 -0.5503 -0.6826
23831SOL    HW289104  10.843   4.594   9.305  1.8977 -0.6294 -1.4915
23832SOL     OW89105  12.714   1.934   0.687  0.6144  0.5325 -0.5343
23832SOL    HW189106  12.751   1.848   0.709  1.6164  0.2580 -2.9008
23832SOL    HW289107  12.651   1.915   0.617 -0.6391  1.5328  0.2972
23833SOL     OW89108   1.492  11.833   6.736  0.3210 -0.0942 -0.3865
23833SOL    HW189109   1.500  11.759   6.676 -0.1729  0.1406 -0.7512
23833SOL    HW289110   1.417  11.883   6.703 -0.7572 -0.6191  1.1481
23834SOL     OW89111   5.872   5.828  13.934  0.0939  0.1759  0.8851
23834SOL    HW189112   5.864   5.861  14.024 -1.7058  0.4748  0.6627
23834SOL    HW289113   5.872   5.907  13.880 -0.1206 -0.0385  0.5686
23835SOL     OW89114   2.294   7.639   4.183 -0.2614  0.1789 -0.0140
23835SOL    HW189115   2.272   7.547   4.199  3.2975 -0.4422  2.5803
23835SOL    HW289116   2.320   7.642   4.091  0.7204 -1.7390  0.1479
23836SOL     OW89117  11.634   6.992   4.592  0.5834  0.2881  0.0275
23836SOL    HW189118  11.686   6.932   4.645  0.3577  1.1755  1.3108
23836SOL    HW289119  11.692   7.067   4.578  1.0731 -0.4284 -2.0515
23837SOL     OW89120   3.813  11.504  12.576  0.3007 -0.1109  0.2434
23837SOL    HW189121   3.730  11.467  12.607  0.7352 -1.3594 -0.0285
23837SOL    HW289122   3.843  11.442  12.510  2.0308 -0.3029  1.1726
23838SOL     OW89123   4.183   2.427   9.135 -0.5049 -0.0970  0.0276
23838SOL    HW189124   4.097   2.451   9.169 -0.4543 -1.6347  1.3489
23838SOL    HW289125   4.164   2.371   9.060 -0.6054  2.4441 -2.0060
23839SOL     OW89126  11.173   5.495   9.559 -0.3292  0.5702 -0.0482
23839SOL    HW189127  11.186   5.476   9.652 -0.5681  2.2693  0.3716
23839SOL    HW289128  11.183   5.590   9.553 -0.3408  0.4871 -1.7690
23840SOL     OW89129   0.412   2.626   8.224  0.0999  0.2893  0.7283
23840SOL    HW189130   0.350   2.638   8.295  0.1396  2.1960  0.5006
23840SOL    HW289131   0.472   2.700   8.232  2.0590 -1.2083  0.6365
23841SOL     OW89132   5.004  13.825  13.450 -0.0783  0.0670  0.0499
23841SOL    HW189133   4.970  13.772  13.522 -0.2937  1.0025  0.6506
23841SOL    HW289134   5.098  13.808  13.451  0.1802  1.3869  1.6831
23842SOL     OW89135   8.721   6.445   5.395 -0.6239  0.6964 -0.2753
23842SOL    HW189136   8.746   6.390   5.469 -2.5144 -0.5010 -0.4870
23842SOL    HW289137   8.683   6.523   5.435  0.5561  1.1584 -0.0002
23843SOL     OW89138   8.550   4.504   4.158 -0.2484 -0.0741 -0.3570
23843SOL    HW189139   8.578   4.595   4.151 -0.0373  0.1683  2.4232
23843SOL    HW289140   8.455   4.508   4.163 -0.1609  0.2985  2.1226
23844SOL     OW89141   0.753   3.377   3.954 -0.2153 -0.3830  0.1766
23844SOL    HW189142   0.823   3.334   4.002  0.4225  0.0977 -0.3044
23844SOL    HW289143   0.690   3.403   4.021  1.2053  1.3032  0.9280
23845SOL     OW89144   2.635  13.693   0.581 -0.1352 -0.3065 -0.2742
23845SOL    HW189145   2.548  13.729   0.562  0.4427  0.1096 -2.3834
23845SOL    HW289146   2.664  13.741   0.658 -1.3320  0.3283 -0.1872
23846SOL     OW89147   1.713  10.818   1.800  0.3700  0.6527  0.7488
23846SOL    HW189148   1.749  10.892   1.751  0.9774  2.2444  3.3994
23846SOL    HW289149   1.621  10.841   1.814 -0.2178 -0.5418 -0.8715
23847SOL     OW89150   5.636   6.823  13.639  0.4714 -0.3280  0.0919
23847SOL    HW189151   5.647   6.839  13.545  0.3062 -2.8307 -0.4098
23847SOL    HW289152   5.711   6.768  13.663 -1.0702 -2.2684  0.6968
23848SOL     OW89153  10.703  10.570   5.113  0.0250 -0.2246  0.0524
23848SOL    HW189154  10.608  10.580   5.118 -0.3582 -1.9219 -2.2062
23848SOL    HW289155  10.737  10.659   5.122 -1.7128  0.3621  1.3731
23849SOL     OW89156   2.690   2.642   7.865  0.3007  0.0968  0.4825
23849SOL    HW189157   2.633   2.672   7.795  0.3092 -0.4277  0.2488
23849SOL    HW289158   2.634   2.586   7.919  0.1875  0.8082  1.1191
23850SOL     OW89159   2.986  12.751  12.116 -0.2247  0.6492  0.2451
23850SOL    HW189160   2.912  12.693  12.137  0.8901 -0.5134  1.1151
23850SOL    HW289161   2.977  12.768  12.023 -0.3919 -1.2882 -0.1466
23851SOL     OW89162   9.817  12.989   9.942  0.2481  0.1185 -0.3598
23851SOL    HW189163   9.750  12.973  10.009 -0.2922 -2.2029 -1.3305
23851SOL    HW289164   9.890  13.028   9.989 -0.0043 -1.6644  1.6867
23852SOL     OW89165   2.712   5.764   0.890  0.0394  0.1098  0.1143
23852SOL    HW189166   2.670   5.826   0.950 -0.3068  0.0334 -0.0456
23852SOL    HW289167   2.712   5.808   0.805 -0.3483 -0.1637 -0.0329
23853SOL     OW89168   2.495   8.792   1.159  0.4972 -0.0798 -0.1596
23853SOL    HW189169   2.538   8.763   1.240  1.3435 -0.4432 -0.7230
23853SOL    HW289170   2.408   8.819   1.186 -0.7041 -3.8904  0.3198
23854SOL     OW89171   5.401   1.944   5.444 -0.2841 -0.1426 -0.3972
23854SOL    HW189172   5.378   1.892   5.520 -0.5500  0.9284  0.2694
23854SOL    HW289173   5.468   1.892   5.399 -0.9908 -1.3441 -0.1043
23855SOL     OW89174   9.149   9.751   8.117  0.3920  0.3786  0.3670
23855SOL    HW189175   9.196   9.788   8.192 -1.2849 -2.2403  2.9220
23855SOL    HW289176   9.169   9.657   8.120 -2.9140 -0.4516  0.0835
23856SOL     OW89177   3.001   2.366   3.860  0.1868  0.8023 -0.1664
23856SOL    HW189178   3.066   2.325   3.803  1.1559  1.8523  0.1460
23856SOL    HW289179   2.991   2.304   3.933  1.8144  1.1915  0.4222
23857SOL     OW89180   9.749  11.184   3.564 -0.9254 -0.3928 -0.6076
23857SOL    HW189181   9.840  11.192   3.590 -1.2790 -0.7209  0.7807
23857SOL    HW289182   9.731  11.262   3.512  0.2897 -0.6092 -1.3955
23858SOL     OW89183  12.624  13.825  12.799  0.2648  0.2520  0.3110
23858SOL    HW189184  12.654  13.909  12.766  0.9844 -0.2768 -0.4524
23858SOL    HW289185  12.681  13.807  12.874 -0.1451  0.6161  0.7121
23859SOL     OW89186  13.373  13.798   5.991 -0.0926 -0.0587 -0.0316
23859SOL    HW189187  13.428  13.849   6.050  0.6306 -0.5812 -0.2344
23859SOL    HW289188  13.305  13.761   6.047 -0.8246  1.3644  0.0681
23860SOL     OW89189   5.287   4.637   9.889  0.1389  0.5786  0.5377
23860SOL    HW189190   5.309   4.617   9.798  0.6411  1.4696  0.4541
23860SOL    HW289191   5.203   4.593   9.904  1.1986 -1.5983  0.3837
23861SOL     OW89192   5.344   3.310   2.961  0.2965  0.5036 -0.1852
23861SOL    HW189193   5.390   3.309   3.045  0.5028  1.2010 -0.2873
23861SOL    HW289194   5.253   3.327   2.983 -0.3726 -2.8257  0.2095
23862SOL     OW89195   7.909   4.996  12.494  0.5006  0.2053 -0.1047
23862SOL    HW189196   7.876   5.054  12.426 -0.3772  0.4150  0.4750
23862SOL    HW289197   8.002   4.985  12.474  0.4785  1.0735 -0.7441
23863SOL     OW89198   2.683   6.810   6.901  0.0834  0.1022  0.1810
23863SOL    HW189199   2.700   6.903   6.916  3.5848 -0.2888 -0.4134
23863SOL    HW289200   2.596   6.807   6.862  0.3069  3.2506 -0.8010
23864SOL     OW89201  10.155   8.695   4.079 -0.3157  0.3548  0.1158
23864SOL    HW189202  10.139   8.612   4.123  1.3774  1.0341  2.2310
23864SOL    HW289203  10.248   8.694   4.058 -1.0499 -0.0267 -3.9415
23865SOL     OW89204   4.675  11.071  13.207  0.0324  1.0208  0.0686
23865SOL    HW189205   4.587  11.092  13.176 -0.5745  1.1604  1.8163
23865SOL    HW289206   4.717  11.029  13.132 -1.7275  0.3464 -0.5923
23866SOL     OW89207   5.099   3.834   9.996 -0.1872  0.2676 -0.3035
23866SOL    HW189208   5.068   3.920  10.025 -1.2157 -0.4435  0.8052
23866SOL    HW289209   5.052   3.772  10.051  2.0402 -0.9729  0.3102
23867SOL     OW89210   4.384  13.273   5.289  0.1454 -0.0905  0.3046
23867SOL    HW189211   4.391  13.323   5.208 -0.4663 -0.0371  0.2779
23867SOL    HW289212   4.299  13.229   5.283  0.6369 -1.0876  0.3588
23868SOL     OW89213  11.581   6.807  13.769  0.1307 -0.2352  0.0745
23868SOL    HW189214  11.609   6.732  13.716 -2.4302 -0.7136 -0.7387
23868SOL    HW289215  11.524   6.770  13.836  1.4299  0.6634  1.7488
23869SOL     OW89216  12.566   4.414  14.048 -0.0663  0.0907 -0.3663
23869SOL    HW189217  12.570   4.431  13.953 -1.4222  0.8138 -0.3201
23869SOL    HW289218  12.553   4.501  14.087  0.5996 -0.1927  0.4967
23870SOL     OW89219   6.723   0.837   9.972  0.1956  0.3547  0.0821
23870SOL    HW189220   6.647   0.856  10.028  1.0472  1.1422  1.0066
23870SOL    HW289221   6.709   0.889   9.893 -1.5969 -1.6336 -1.0328
23871SOL     OW89222  10.825  10.531  11.200 -0.2716  0.1625 -0.5376
23871SOL    HW189223  10.857  10.511  11.112 -0.1810  2.9339 -1.2058
23871SOL    HW289224  10.730  10.544  11.189 -0.5153 -0.9305  0.0920
23872SOL     OW89225   9.760   6.269   1.392 -0.2800 -0.1845  0.3375
23872SOL    HW189226   9.814   6.215   1.335  0.3333  0.4154  0.3342
23872SOL    HW289227   9.817   6.341   1.418 -0.0885 -1.0877  2.7565
23873SOL     OW89228  13.281   6.594   1.978  0.4926  0.4501 -0.0134
23873SOL    HW189229  13.343   6.522   1.994 -1.1569 -1.2511 -0.9647
23873SOL    HW289230  13.268   6.594   1.883  0.8490  2.4010 -0.1026
23874SOL     OW89231   3.759   2.999  13.309  0.2418  0.8436 -0.1593
23874SOL    HW189232   3.697   2.941  13.353 -0.4138  1.2127 -0.5850
23874SOL    HW289233   3.771   3.072  13.370  1.8708 -0.1897  0.8506
23875SOL     OW89234  13.847   0.749   2.525  0.5586 -0.0730  0.0561
23875SOL    HW189235  13.779   0.772   2.588 -0.4885 -0.4110 -0.9248
23875SOL    HW289236  13.903   0.688   2.573 -0.8721 -1.2409  0.3182
23876SOL     OW89237  10.307   7.419   1.678 -0.1313 -0.3660  0.4137
23876SOL    HW189238  10.255   7.386   1.604  1.1640 -2.1119  0.2137
23876SOL    HW289239  10.242   7.447   1.742 -1.3257 -1.4802 -0.2460
23877SOL     OW89240   3.944  10.744   7.119 -0.0345 -0.0114  0.4232
23877SOL    HW189241   3.962  10.799   7.195 -1.0586  0.3190  0.4414
23877SOL    HW289242   3.973  10.795   7.044 -2.2815  1.2094  0.3183
23878SOL     OW89243   4.781   2.560   9.340  0.6021  0.6208  0.0689
23878SOL    HW189244   4.822   2.477   9.362 -0.0050  0.7029  1.5850
23878SOL    HW289245   4.851   2.611   9.300  1.6872  0.3275  1.5228
23879SOL     OW89246  10.455   8.828   3.581  0.0941  0.1123 -0.4204
23879SOL    HW189247  10.546   8.810   3.561  0.3820  1.5905 -0.5736
23879SOL    HW289248  10.423   8.748   3.622  1.7574 -0.0607  0.6364
23880SOL     OW89249   4.269   3.707   2.992 -0.5185  0.1338  0.2755
23880SOL    HW189250   4.324   3.766   3.044 -1.1116  0.8210  0.1367
23880SOL    HW289251   4.282   3.736   2.902 -2.2321  1.2905  0.3602
23881SOL     OW89252  13.213   8.012   1.943  0.2630 -0.2088  0.2931
23881SOL    HW189253  13.230   7.927   1.903  0.5568  0.3824 -0.8754
23881SOL    HW289254  13.150   8.054   1.884  1.1944  0.9369  0.0668
23882SOL     OW89255  11.982  13.586   2.368 -0.0223  0.7503 -0.0474
23882SOL    HW189256  12.009  13.574   2.459 -2.4950  0.4430  0.7194
23882SOL    HW289257  12.019  13.511   2.322 -0.6223 -0.3292  1.1802
23883SOL     OW89258   8.871   5.189   9.552 -0.3357 -0.4638 -0.4586
23883SOL    HW189259   8.908   5.139   9.625 -2.4060  0.3430  1.2471
23883SOL    HW289260   8.947   5.216   9.500  1.2591 -0.6909  1.6458
23884SOL     OW89261   5.357   2.674   8.844 -0.4915 -0.3853  0.0441
23884SOL    HW189262   5.423   2.740   8.863 -0.7424  0.0318 -0.5213
23884SOL    HW289263   5.399   2.591   8.866 -1.1569  0.0887  3.6693
23885SOL     OW89264   4.716   9.351   2.941  0.0740 -0.1730  0.1325
23885SOL    HW189265   4.732   9.318   2.852 -1.5644 -0.0231 -0.2452
23885SOL    HW289266   4.623   9.370   2.943  0.0742 -0.2105  1.9228
23886SOL     OW89267   5.012   8.860  13.639  0.2145  0.3786 -0.7910
23886SOL    HW189268   4.998   8.773  13.678  0.0931  0.1369 -1.3699
23886SOL    HW289269   4.997   8.847  13.546 -0.4731  1.1651 -0.7989
23887SOL     OW89270   7.791   1.548  10.279 -0.2058  0.7432 -0.3589
23887SOL    HW189271   7.851   1.615  10.312 -0.0886  1.3689 -1.7938
23887SOL    HW289272   7.848   1.473  10.259  0.3436  1.7158 -2.7763
23888SOL     OW89273  10.122  12.367   9.787  1.0096 -0.2947 -0.0782
23888SOL    HW189274  10.156  12.429   9.852  0.5452  0.3423 -0.4276
23888SOL    HW289275  10.077  12.422   9.723 -2.5739 -1.1799  1.4307
23889SOL     OW89276   6.923   6.327  10.921 -0.1101 -0.1062  0.1366
23889SOL    HW189277   6.937   6.252  10.980  1.3779  1.3178  1.7318
23889SOL    HW289278   6.867   6.293  10.852 -0.4481 -2.3810  1.4132
23890SOL     OW89279   4.624   9.546   6.273  0.0215  0.0500 -0.0794
23890SOL    HW189280   4.691   9.541   6.204  0.1962  0.5841  0.0465
23890SOL    HW289281   4.566   9.472   6.255  0.6431 -0.4203 -0.1915
23891SOL     OW89282   5.485  11.993   0.937 -0.1286  0.5360  0.2038
23891SOL    HW189283   5.569  11.972   0.978  0.9694  2.9059 -0.6434
23891SOL    HW289284   5.459  12.077   0.975 -1.5553  0.3926 -0.3799
23892SOL     OW89285   4.649  12.010   8.311 -0.1123 -0.1755  0.2773
23892SOL    HW189286   4.582  12.079   8.313  1.1347  1.1216 -0.8107
23892SOL    HW289287   4.641  11.971   8.224 -0.4313 -1.0612  0.6860
23893SOL     OW89288  12.610  13.502   2.730 -0.4649 -0.4806  0.4534
23893SOL    HW189289  12.554  13.550   2.668 -0.8719  0.7944  1.7615
23893SOL    HW289290  12.658  13.440   2.675 -0.1066  1.2421 -1.2965
23894SOL     OW89291   6.834  13.800  10.527  0.3781  0.0620 -0.1637
23894SOL    HW189292   6.742  13.790  10.551  0.4949 -0.6076  0.0420
23894SOL    HW289293   6.851  13.727  10.467  1.6926 -2.1308  2.6251
23895SOL     OW89294   2.526   1.473   4.161 -0.3964  0.4221  0.2360
23895SOL    HW189295   2.611   1.433   4.141 -0.1922  0.7541  0.4555
23895SOL    HW289296   2.530   1.496   4.253 -0.7810  0.3066  0.2856
23896SOL     OW89297   5.861   0.642   0.593  0.2675  0.0549 -0.3538
23896SOL    HW189298   5.855   0.686   0.508  2.0177  1.3203  0.1043
23896SOL    HW289299   5.835   0.551   0.575  0.0507  0.4260 -2.1206
23897SOL     OW89300   1.274   0.206  14.052 -0.6263  0.3056  0.3198
23897SOL    HW189301   1.255   0.181  13.962  0.3307 -0.4112  0.3020
23897SOL    HW289302   1.278   0.302  14.050 -0.5780  0.2917 -0.4026
23898SOL     OW89303   2.115   3.466  13.950 -0.3172 -0.0102  0.6583
23898SOL    HW189304   2.163   3.520  14.013 -1.0250  0.9923  0.3661
23898SOL    HW289305   2.134   3.376  13.976 -0.0232  0.3827  1.8599
23899SOL     OW89306   6.256  13.000  11.716 -0.7061 -0.4982  0.0092
23899SOL    HW189307   6.203  13.031  11.643 -0.4707  0.9154  0.3966
23899SOL    HW289308   6.200  12.937  11.762 -1.9108  0.6258  0.1596
23900SOL     OW89309   0.942  12.760   2.825 -0.1543 -0.5504 -0.3391
23900SOL    HW189310   0.987  12.742   2.743  1.3434  0.0192  0.3212
23900SOL    HW289311   0.995  12.714   2.891 -0.0038  0.8774  0.5699
23901SOL     OW89312   6.243  12.517   2.768 -0.1885 -0.3303  0.2741
23901SOL    HW189313   6.180  12.583   2.796 -0.9533 -1.1554  0.5579
23901SOL    HW289314   6.275  12.549   2.684  0.9976  1.4117  1.3240
23902SOL     OW89315   5.622  10.179   7.817  0.6775  0.0296 -0.3197
23902SOL    HW189316   5.688  10.109   7.825 -0.0475 -0.7344 -0.8073
23902SOL    HW289317   5.590  10.171   7.727 -0.2409  0.2366 -0.0183
23903SOL     OW89318   7.385  13.124   0.387 -0.5678 -0.3650  0.4155
23903SOL    HW189319   7.361  13.202   0.437 -0.7461  0.2236 -0.5777
23903SOL    HW289320   7.451  13.154   0.324 -2.4179 -0.4190 -1.6687
23904SOL     OW89321   6.944   5.135  11.023 -0.0830  0.0518 -0.4337
23904SOL    HW189322   6.945   5.089  10.939 -0.0757  1.0608 -1.0059
23904SOL    HW289323   6.905   5.073  11.084  1.5854 -1.4068 -0.7553
23905SOL     OW89324  11.892   2.206   1.203 -0.0431 -0.2088 -0.4995
23905SOL    HW189325  11.822   2.147   1.174  0.6985 -3.1036  2.9682
23905SOL    HW289326  11.879   2.215   1.297  2.9086  1.0695 -0.1056
23906SOL     OW89327  11.986   7.542  12.632  0.2528  0.1621  0.1295
23906SOL    HW189328  12.037   7.580  12.703  1.3495 -1.3746  0.2131
23906SOL    HW289329  12.028   7.458  12.614 -0.5129  0.1301 -1.7771
23907SOL     OW89330   3.508   0.078   2.973 -0.3920  0.2832 -0.4451
23907SOL    HW189331   3.528   0.078   2.880 -1.4918  0.4293 -0.6898
23907SOL    HW289332   3.419   0.044   2.979 -0.0502 -0.5101  0.6273
23908SOL     OW89333   2.602   3.220   5.368  0.2944  0.0940 -0.0588
23908SOL    HW189334   2.512   3.214   5.400  0.9242 -1.5518  1.5579
23908SOL    HW289335   2.593   3.241   5.275 -1.8255 -2.1533 -0.4468
23909SOL     OW89336   2.842   2.307   6.777 -0.6772  0.1329 -0.2418
23909SOL    HW189337   2.884   2.392   6.794 -0.7743  0.4022 -1.2641
23909SOL    HW289338   2.904   2.261   6.721 -0.0210 -1.0326  1.3743
23910SOL     OW89339   3.851  12.815   2.714 -0.3944 -0.0949  0.2001
23910SOL    HW189340   3.905  12.745   2.677 -0.5961 -0.2039  0.1129
23910SOL    HW289341   3.838  12.789   2.805  0.6350  0.4902  0.5335
23911SOL     OW89342   9.184   6.576   2.950 -0.1870  0.0897 -0.5048
23911SOL    HW189343   9.159   6.586   2.859  2.1683  0.4686 -1.1730
23911SOL    HW289344   9.275   6.604   2.954  0.1147 -0.9274  1.7551
23912SOL     OW89345  10.520   7.843   7.935 -0.2831  0.1836 -0.1782
23912SOL    HW189346  10.548   7.752   7.925  4.4101  1.2820  0.5540
23912SOL    HW289347  10.510   7.855   8.030 -2.9532  0.0414 -0.3735
23913SOL     OW89348   2.053  12.926   0.682 -0.5548  0.5138  0.2381
23913SOL    HW189349   2.102  12.917   0.764 -1.5086 -1.1717  0.6649
23913SOL    HW289350   2.044  13.021   0.670  3.9673  1.0872 -0.6478
23914SOL     OW89351   5.102  12.629   6.572 -0.2500 -0.6203 -0.5303
23914SOL    HW189352   5.053  12.693   6.520  1.7099 -0.5177 -2.3860
23914SOL    HW289353   5.193  12.642   6.546  0.4596 -2.6786  0.7096
23915SOL     OW89354   7.735   2.859  13.908 -0.7880  0.1393 -0.6642
23915SOL    HW189355   7.781   2.792  13.858  1.7221  1.6628 -0.5702
23915SOL    HW289356   7.741   2.829  13.999  1.4059  0.9764 -0.4754
23916SOL     OW89357  11.337   7.778   4.888  0.1355 -0.2859  0.0427
23916SOL    HW189358  11.406   7.775   4.821 -1.2559 -1.3325 -1.4148
23916SOL    HW289359  11.256   7.771   4.839 -0.9672 -0.6054  1.8341
23917SOL     OW89360  13.296  10.468   1.800 -0.0224 -0.3185 -0.0980
23917SOL    HW189361  13.390  10.472   1.818 -0.1740 -2.7322  1.6396
23917SOL    HW289362  13.289  10.412   1.723 -0.0347  0.3610 -0.6019
23918SOL     OW89363  12.758   2.659   3.690 -0.0146 -0.4714  0.5190
23918SOL    HW189364  12.849   2.685   3.697 -0.1479 -0.0132  0.5765
23918SOL    HW289365  12.709   2.728   3.735 -0.5260  0.1950 -0.9888
23919SOL     OW89366  12.171  12.275   7.372  0.1625  0.1326  0.5637
23919SOL    HW189367  12.091  12.233   7.405 -1.0439  0.4878 -1.7206
23919SOL    HW289368  12.147  12.367   7.361  0.6430  0.1201 -0.7887
23920SOL     OW89369  10.128   6.374  11.657  0.0073  0.1153  0.2225
23920SOL    HW189370  10.042   6.385  11.618 -0.6810  0.1158  1.6787
23920SOL    HW289371  10.140   6.279  11.664 -0.6815  0.0977  1.6376
23921SOL     OW89372   4.823  13.610   7.004  0.8824 -0.3813 -0.1068
23921SOL    HW189373   4.781  13.557   7.072  2.9552 -0.0679  1.5318
23921SOL    HW289374   4.872  13.547   6.951  1.1941 -0.3874  0.1861
23922SOL     OW89375   1.514   5.006   6.020 -0.2421  0.0312 -0.1062
23922SOL    HW189376   1.585   5.070   6.029  0.3124 -0.6857  0.8132
23922SOL    HW289377   1.460   5.020   6.097  0.5764 -1.4163  0.7728
23923SOL     OW89378   2.429   6.839   4.456 -0.4059 -0.1076  1.0064
23923SOL    HW189379   2.439   6.780   4.382 -1.2548  0.4163  0.4545
23923SOL    HW289380   2.519   6.853   4.488  0.1810  0.8466 -0.8795
23924SOL     OW89381   3.157  13.714   7.273  0.5915  0.1570 -0.4405
23924SOL    HW189382   3.074  13.746   7.237 -0.1540 -0.1111  0.9524
23924SOL    HW289383   3.146  13.619   7.276  0.4559  0.1900  0.8227
23925SOL     OW89384   1.071  11.363   9.905 -0.2065  0.0222  0.1689
23925SOL    HW189385   0.986  11.321   9.896 -0.3551  0.2251  0.5902
23925SOL    HW289386   1.134  11.300   9.869 -0.5361 -0.1071 -0.1842
23926SOL     OW89387   8.760   2.807   4.479 -0.6263 -0.1817  0.2085
23926SOL    HW189388   8.727   2.781   4.393 -1.2118  1.6651 -0.1670
23926SOL    HW289389   8.852   2.828   4.464 -0.4872 -0.7434  0.2459
23927SOL     OW89390   3.210   4.004  13.934  0.1445  0.0306 -0.4061
23927SOL    HW189391   3.179   3.939  13.871 -0.3727  0.9146 -1.0919
23927SOL    HW289392   3.215   3.957  14.017  1.8349 -1.4408 -1.2736
23928SOL     OW89393  11.588  11.593  10.860 -0.6612  0.4216  0.0977
23928SOL    HW189394  11.602  11.505  10.825 -2.4105  0.2748 -0.3373
23928SOL    HW289395  11.671  11.638  10.845 -0.1768 -0.7490 -0.9302
23929SOL     OW89396   5.918   1.339   5.160  0.4319  0.6126  0.5988
23929SOL    HW189397   5.851   1.325   5.094  0.1048  0.4070  0.9728
23929SOL    HW289398   5.942   1.250   5.189  0.9121  0.6804  0.4177
23930SOL     OW89399   6.798  10.155   2.763 -0.3824 -0.7591 -0.1961
23930SOL    HW189400   6.734  10.143   2.693 -0.7136 -0.5616  0.0742
23930SOL    HW289401   6.748  10.188   2.837  0.3095  1.2345 -0.5470
23931SOL     OW89402  10.820  12.810   0.634  0.3933 -0.6223  0.0991
23931SOL    HW189403  10.812  12.747   0.562 -1.8282  1.8925 -2.0765
23931SOL    HW289404  10.729  12.828   0.659  1.0785 -0.3875  2.6739
23932SOL     OW89405   1.061   9.712  10.790 -0.1600 -0.4313  0.5708
23932SOL    HW189406   1.072   9.631  10.741  0.4410 -0.9336  1.5043
23932SOL    HW289407   1.020   9.686  10.872 -0.1829  0.2393  0.7803
23933SOL     OW89408   3.675   2.786  11.040 -0.0544 -0.1421  0.2026
23933SOL    HW189409   3.732   2.716  11.071  0.2189 -0.8856 -1.7871
23933SOL    HW289410   3.733   2.844  10.991 -0.3057  1.4519  1.6926
23934SOL     OW89411   3.094   4.558   2.674 -0.4846  0.5437  0.2034
23934SOL    HW189412   3.115   4.536   2.584  0.4309  0.0324  0.5278
23934SOL    HW289413   3.003   4.588   2.671 -0.7475 -0.2916 -0.7491
23935SOL     OW89414   2.505   1.463   0.202 -0.4334 -0.2724 -0.0056
23935SOL    HW189415   2.517   1.467   0.107  3.5641  1.1498  0.3825
23935SOL    HW289416   2.441   1.532   0.222 -1.1832 -0.4730 -1.5951
23936SOL     OW89417   8.199   3.771   2.596  0.4983 -0.3421  0.3423
23936SOL    HW189418   8.182   3.863   2.615 -1.0565 -0.3695 -0.7478
23936SOL    HW289419   8.172   3.724   2.675 -0.6287 -0.0193  0.1571
23937SOL     OW89420   9.228   9.351   3.986 -0.1234 -0.0459  0.1417
23937SOL    HW189421   9.316   9.314   3.999 -0.3216 -0.7941 -0.5404
23937SOL    HW289422   9.209   9.335   3.893 -0.9030  0.2866  0.2350
23938SOL     OW89423  11.260  12.452   5.544 -0.4276  0.2356 -0.2568
23938SOL    HW189424  11.283  12.479   5.455 -0.0502 -0.7109 -0.4568
23938SOL    HW289425  11.165  12.449   5.545 -0.4011 -1.6039 -1.2089
23939SOL     OW89426  11.919   1.672   5.183  0.4460  0.0431  0.3744
23939SOL    HW189427  11.880   1.594   5.144  1.9748 -0.5742  0.0100
23939SOL    HW289428  11.895   1.744   5.125 -1.7184  0.0494  1.1754
23940SOL     OW89429   7.163  12.577  10.797 -0.7950 -0.3562 -0.5908
23940SOL    HW189430   7.194  12.564  10.887  1.2915  0.6427 -1.0949
23940SOL    HW289431   7.129  12.667  10.797 -0.9155 -0.4032 -0.7649
23941SOL     OW89432  13.176   7.230  13.622 -0.0475  0.2864  0.3636
23941SOL    HW189433  13.123   7.271  13.690  0.5005  1.7586 -0.0405
23941SOL    HW289434  13.267   7.247  13.649  0.2277 -1.5050  0.6463
23942SOL     OW89435   0.447   9.941   9.785 -0.1781  0.1281  0.3740
23942SOL    HW189436   0.397   9.871   9.828 -0.6341 -0.7241 -1.4144
23942SOL    HW289437   0.489   9.897   9.711  2.4434  1.0386  1.2083
23943SOL     OW89438   7.352   4.651   4.724  0.1931 -0.2227  0.0527
23943SOL    HW189439   7.295   4.576   4.740 -0.5266  0.5976  1.6551
23943SOL    HW289440   7.413   4.622   4.656 -0.4655 -2.0207  0.1823
23944SOL     OW89441   6.257  11.307   2.567 -0.1221 -0.0852  0.0901
23944SOL    HW189442   6.256  11.354   2.483  3.7684  0.6422  0.2794
23944SOL    HW289443   6.254  11.376   2.633  0.6571 -0.3911  0.4548
23945SOL     OW89444   2.335   7.178   5.406  0.6519 -0.0498  0.1537
23945SOL    HW189445   2.281   7.243   5.361  0.2632 -0.2584  0.3094
23945SOL    HW289446   2.336   7.206   5.497 -0.0807 -0.6170  0.3541
23946SOL     OW89447   0.640   8.026   1.887  0.0020 -0.2157  0.1586
23946SOL    HW189448   0.660   7.971   1.963  0.6668  0.3721  0.4271
23946SOL    HW289449   0.675   7.978   1.812  0.4619 -0.2326  0.3770
23947SOL     OW89450   1.310   5.508   9.757 -0.5860  0.3835  0.3136
23947SOL    HW189451   1.315   5.442   9.689  1.6513 -1.2056  1.8563
23947SOL    HW289452   1.360   5.582   9.722 -0.6800  0.1514 -0.3187
23948SOL     OW89453   3.372   1.637  12.271 -0.1490 -0.1345 -0.5337
23948SOL    HW189454   3.306   1.620  12.204 -0.3833 -1.5029  0.0210
23948SOL    HW289455   3.449   1.666  12.222 -1.1478  1.6264 -1.1865
23949SOL     OW89456   2.460   7.430   1.361 -0.0024 -0.6084  0.1530
23949SOL    HW189457   2.536   7.456   1.413  0.1914  0.5523 -0.6728
23949SOL    HW289458   2.484   7.343   1.326  1.1953 -0.0302 -0.5333
23950SOL     OW89459  13.751   1.329   9.903  0.8811  0.6601  0.4223
23950SOL    HW189460  13.725   1.302   9.815 -0.3663  0.6580  0.7660
23950SOL    HW289461  13.749   1.425   9.900  0.7635  0.6593  0.4670
23951SOL     OW89462   3.407   0.667  10.387  0.3234 -0.0741  0.0835
23951SOL    HW189463   3.419   0.733  10.455 -0.7627  1.3731 -1.0642
23951SOL    HW289464   3.496   0.643  10.362  0.7357  0.0743  1.3498
23952SOL     OW89465   0.233   2.771   9.233 -0.0926  0.4192  0.5725
23952SOL    HW189466   0.217   2.686   9.191 -0.8701  0.5364  0.6205
23952SOL    HW289467   0.295   2.815   9.174 -0.3050  0.1345  0.1276
23953SOL     OW89468   2.831  11.758   3.130 -0.2711  0.5477 -0.0300
23953SOL    HW189469   2.907  11.816   3.134  0.1134  0.0761 -0.3724
23953SOL    HW289470   2.867  11.674   3.099 -0.7611  0.0378  0.7445
23954SOL     OW89471   8.674   4.680   3.843 -0.2615  0.0328  0.0162
23954SOL    HW189472   8.669   4.713   3.933  1.1211  0.5851 -0.0993
23954SOL    HW289473   8.618   4.602   3.844 -0.8282  0.4285  1.1644
23955SOL     OW89474   7.612   7.453   6.789  0.2214 -0.0615  0.0963
23955SOL    HW189475   7.630   7.531   6.736 -1.1808 -0.0228 -0.3431
23955SOL    HW289476   7.679   7.390   6.763  0.4080  0.4483 -0.6857
23956SOL     OW89477   2.146   3.289   7.748 -0.1365 -0.1347  0.3562
23956SOL    HW189478   2.090   3.297   7.671  1.4009  0.5041 -0.7565
23956SOL    HW289479   2.086   3.276   7.821 -1.6922  0.2210 -0.8181
23957SOL     OW89480  13.278   1.326   9.701  0.1357  0.7737  0.2552
23957SOL    HW189481  13.189   1.291   9.702  0.0827  0.8059 -1.1588
23957SOL    HW289482  13.333   1.250   9.683  0.2454  0.9956 -0.3774
23958SOL     OW89483  12.245  12.835   3.897  0.2296 -0.1322 -0.4026
23958SOL    HW189484  12.246  12.774   3.971 -0.7856 -0.1699 -0.4116
23958SOL    HW289485  12.304  12.796   3.833 -0.6646 -1.2782 -0.5471
23959SOL     OW89486   0.323  11.967   5.147 -0.1967 -0.1322 -0.0130
23959SOL    HW189487   0.414  11.962   5.176 -0.1833  0.6890  0.1034
23959SOL    HW289488   0.296  11.875   5.137  0.9437 -0.3879 -1.0147
23960SOL     OW89489   0.300   4.640   6.595 -0.1989  0.9014  0.4034
23960SOL    HW189490   0.343   4.562   6.631  0.1903  0.3392 -1.2141
23960SOL    HW289491   0.316   4.708   6.661 -0.1993 -0.2609  1.6589
23961SOL     OW89492   4.625   9.248  12.660 -0.0191  0.0490  0.1364
23961SOL    HW189493   4.551   9.214  12.610 -0.6708  1.0452  0.3983
23961SOL    HW289494   4.626   9.342  12.642 -0.7918  0.5911  2.5984
23962SOL     OW89495  14.024   1.145   0.900  0.1002  0.0184  0.1884
23962SOL    HW189496  14.110   1.121   0.868  0.2886  0.9548 -0.0495
23962SOL    HW289497  13.975   1.171   0.821 -0.0141  0.6090  0.4468
23963SOL     OW89498   6.286  11.030  11.419  0.0610 -0.4146 -0.2047
23963SOL    HW189499   6.257  11.087  11.490 -0.2534 -0.4650 -0.2922
23963SOL    HW289500   6.205  10.995  11.381  0.2528 -0.9836 -0.1006
23964SOL     OW89501   9.807   1.032   0.431 -0.1913 -0.0694 -0.4283
23964SOL    HW189502   9.883   1.037   0.374 -0.6558  1.3041 -0.9661
23964SOL    HW289503   9.824   1.096   0.500 -0.5069 -0.3226 -0.1092
23965SOL     OW89504   1.828   5.386   5.502  0.6194 -0.1466 -0.3637
23965SOL    HW189505   1.756   5.327   5.478  0.2558  0.4152 -0.6695
23965SOL    HW289506   1.839   5.373   5.596  1.1668 -1.3858 -0.5682
23966SOL     OW89507   4.545   3.587   7.391 -0.4427  0.2868  0.3276
23966SOL    HW189508   4.478   3.541   7.440  0.8064 -0.1068  1.7596
23966SOL    HW289509   4.607   3.617   7.458 -0.1297  2.2516 -0.7490
23967SOL     OW89510  12.277  13.229   6.734 -0.5184  0.1898 -0.1403
23967SOL    HW189511  12.338  13.223   6.660  1.0128 -0.1047  1.0999
23967SOL    HW289512  12.211  13.162   6.717 -0.0527 -0.0365 -1.1025
23968SOL     OW89513   7.410   5.140   2.266 -0.1685 -0.7942  0.0207
23968SOL    HW189514   7.338   5.130   2.203  0.1925 -1.2532 -0.3284
23968SOL    HW289515   7.407   5.232   2.291  0.5677 -0.2382 -1.7602
23969SOL     OW89516   7.501   6.173   9.199 -0.1177 -0.0385  0.5294
23969SOL    HW189517   7.438   6.158   9.129 -0.2774  1.4454  0.3217
23969SOL    HW289518   7.448   6.190   9.276  0.0528 -0.8385  0.8294
23970SOL     OW89519   7.346   3.270   3.286 -0.1956 -0.1163 -0.4548
23970SOL    HW189520   7.328   3.357   3.250 -1.7521 -0.5723 -0.8223
23970SOL    HW289521   7.359   3.285   3.379 -1.7822  0.3655 -0.2908
23971SOL     OW89522   4.065  13.410   3.449  0.5371 -0.2715 -0.4791
23971SOL    HW189523   4.140  13.360   3.417  0.3951 -0.9469  0.1983
23971SOL    HW289524   4.103  13.470   3.514  0.9966  1.8951 -2.6196
23972SOL     OW89525   7.236  11.748   6.393 -0.2415 -0.4921 -0.4754
23972SOL    HW189526   7.170  11.711   6.335 -0.6985 -2.8543  1.3536
23972SOL    HW289527   7.205  11.726   6.481  1.1158  1.6693  0.6181
23973SOL     OW89528   9.925   5.047   3.063  0.0233  0.1857  0.1273
23973SOL    HW189529  10.011   5.017   3.092  0.6797 -0.5962 -2.3246
23973SOL    HW289530   9.935   5.141   3.050  1.1026 -0.1363 -1.7536
23974SOL     OW89531   8.673  12.683   3.043  0.1226 -0.0486  0.3588
23974SOL    HW189532   8.595  12.651   2.997 -0.5350  1.7128  0.2020
23974SOL    HW289533   8.743  12.625   3.014 -0.6756 -0.2431 -1.2711
23975SOL     OW89534   0.414  12.717   3.756  0.0223  0.4825 -0.5136
23975SOL    HW189535   0.500  12.683   3.781  0.9227  2.0096 -1.3802
23975SOL    HW289536   0.380  12.652   3.695  0.5188 -0.1760 -0.1069
23976SOL     OW89537   3.080   8.158  13.539 -0.0844 -0.2567 -0.1392
23976SOL    HW189538   3.168   8.141  13.572  0.1664  0.0121 -0.6622
23976SOL    HW289539   3.067   8.252  13.551 -1.5635 -0.7385  2.9662
23977SOL     OW89540   1.258   3.494   3.166  0.8415  0.2009  0.3581
23977SOL    HW189541   1.287   3.582   3.188 -1.4197  0.4786  2.6949
23977SOL    HW289542   1.312   3.437   3.220  1.8467  0.1629 -0.6565
23978SOL     OW89543   2.344   2.828   3.283 -0.3662  0.3102 -0.8911
23978SOL    HW189544   2.293   2.787   3.353  0.6141  0.2560 -0.1733
23978SOL    HW289545   2.280   2.880   3.233 -1.0934  0.3428  0.0428
23979SOL     OW89546   2.068   6.197   4.305  0.2282  0.1179 -0.0198
23979SOL    HW189547   2.155   6.231   4.327  0.4065  0.1163 -0.7009
23979SOL    HW289548   2.025   6.185   4.389  0.9128  0.0580  0.3251
23980SOL     OW89549   0.733  10.958   1.952  0.4631  0.3011 -0.0282
23980SOL    HW189550   0.690  10.982   2.035  0.9795  1.5494 -0.1056
23980SOL    HW289551   0.821  10.931   1.977  0.6382  0.7326 -0.1659
23981SOL     OW89552  12.605   8.111   5.866 -0.1027 -0.4830  0.3406
23981SOL    HW189553  12.645   8.156   5.791 -0.6626 -1.8826 -0.8415
23981SOL    HW289554  12.679   8.093   5.924  0.3591  0.5258  0.0998
23982SOL     OW89555   6.803  11.959   4.844  0.0196  0.4471 -0.1920
23982SOL    HW189556   6.881  11.913   4.814  0.5932  1.7612 -0.7705
23982SOL    HW289557   6.739  11.947   4.773  0.9580  2.4789 -1.4902
23983SOL     OW89558   7.845   5.749  13.046 -0.1916  0.1601 -0.2272
23983SOL    HW189559   7.938   5.752  13.022  0.0609  1.9391  0.8259
23983SOL    HW289560   7.805   5.821  12.996 -0.9282 -0.3272 -0.3535
23984SOL     OW89561   6.794   2.442   2.454  0.3714 -0.0431  0.0175
23984SOL    HW189562   6.797   2.433   2.549 -0.4873 -1.8641 -0.0896
23984SOL    HW289563   6.703   2.465   2.435  0.6415  0.7537 -0.3417
23985SOL     OW89564   3.178  13.739   8.193 -0.0978  0.3016 -0.0759
23985SOL    HW189565   3.147  13.690   8.117  0.7473  2.1993 -1.7088
23985SOL    HW289566   3.240  13.679   8.236  0.0545 -0.5018 -1.3610
23986SOL     OW89567  12.067   5.430  10.510 -0.0716  0.0771  0.1206
23986SOL    HW189568  12.057   5.420  10.416  1.7076  0.9928 -0.2161
23986SOL    HW289569  12.053   5.524  10.525 -1.0108 -0.1688  0.8841
23987SOL     OW89570   9.369   4.558  10.359  0.5324 -0.2763 -0.3735
23987SOL    HW189571   9.368   4.624  10.428  0.2250 -0.6047 -0.0563
23987SOL    HW289572   9.457   4.521  10.362  0.6472 -0.0107 -0.4304
23988SOL     OW89573   4.387   3.282   5.989  0.4049  0.3217 -0.1305
23988SOL    HW189574   4.454   3.315   6.049  0.0887  0.1681  0.3136
23988SOL    HW289575   4.418   3.308   5.902  0.4345  1.3162  0.1590
23989SOL     OW89576  10.153   0.899   3.651 -0.5320 -0.0441 -0.0072
23989SOL    HW189577  10.075   0.874   3.701 -1.2124  1.6279 -0.1604
23989SOL    HW289578  10.127   0.894   3.560 -0.8120  1.4760 -0.0368
23990SOL     OW89579   4.465   1.041   9.072  0.2797 -0.1580  0.1437
23990SOL    HW189580   4.381   1.087   9.070  1.2158  1.6398 -0.8235
23990SOL    HW289581   4.445   0.956   9.111 -1.4249  1.3627  2.9318
23991SOL     OW89582   3.302   2.724   3.148 -0.3172 -0.1020 -0.1433
23991SOL    HW189583   3.379   2.693   3.197 -0.4401 -2.9877 -1.5493
23991SOL    HW289584   3.257   2.782   3.209 -0.3160 -3.2216  3.1659
23992SOL     OW89585  13.328   9.803  12.995 -0.0212 -0.2531  0.1166
23992SOL    HW189586  13.283   9.722  13.019  1.0675 -0.5300  1.3313
23992SOL    HW289587  13.392   9.776  12.929 -0.4000 -0.1734 -0.2895
23993SOL     OW89588  11.798  11.899   5.396  0.0506  0.3365 -0.2278
23993SOL    HW189589  11.741  11.854   5.333  0.4084 -0.5520  0.0690
23993SOL    HW289590  11.754  11.886   5.480  1.5885 -2.0054  0.3062
23994SOL     OW89591  10.404   2.776  12.706  0.1955 -0.0931  0.5322
23994SOL    HW189592  10.401   2.697  12.653  0.9862  0.5830 -0.5746
23994SOL    HW289593  10.323   2.823  12.686  1.1303  0.8618 -1.2830
23995SOL     OW89594  13.644   9.984   7.047  0.2638 -0.1393  0.4156
23995SOL    HW189595  13.595  10.033   6.981  2.0734  0.0874 -0.8459
23995SOL    HW289596  13.602  10.007   7.130 -0.6245  1.4490 -0.4158
23996SOL     OW89597   3.813   9.717   0.141 -0.0097 -0.4385 -0.7655
23996SOL    HW189598   3.785   9.688   0.054 -1.1347  1.2770 -1.0024
23996SOL    HW289599   3.899   9.758   0.126 -0.6720  0.8087 -1.2767
23997SOL     OW89600   6.830   1.779  13.808 -0.6469  0.3799 -0.0175
23997SOL    HW189601   6.764   1.849  13.809 -1.9378 -0.7799 -0.2919
23997SOL    HW289602   6.888   1.800  13.880 -1.2077  1.5626  0.1101
23998SOL     OW89603   7.170  12.572  13.925  0.1446 -0.2525 -0.1798
23998SOL    HW189604   7.202  12.488  13.893  0.1731 -0.4571  0.3736
23998SOL    HW289605   7.099  12.596  13.864 -0.3063 -0.9916  0.0428
23999SOL     OW89606   5.364  10.368   3.765  0.1760 -0.6048 -0.7357
23999SOL    HW189607   5.332  10.362   3.855  0.9341  0.4378 -0.3736
23999SOL    HW289608   5.285  10.370   3.711 -0.3133 -0.2952 -0.0185
24000SOL     OW89609   3.900  13.400   8.330  0.0992 -0.0261 -0.0783
24000SOL    HW189610   3.933  13.489   8.346 -1.1329  0.4283  0.0108
24000SOL    HW289611   3.806  13.405   8.348 -0.3633 -0.8511 -2.0560
24001SOL     OW89612   3.712  10.696  12.532  0.9957 -0.1027 -0.6037
24001SOL    HW189613   3.781  10.649  12.579  2.3166  1.7418 -0.5817
24001SOL    HW289614   3.648  10.720  12.600  2.3108  1.5314  0.1354
24002SOL     OW89615   8.733   9.174  12.989  0.4827 -0.0347  0.2233
24002SOL    HW189616   8.821   9.138  12.980  0.2359 -0.4201 -0.8605
24002SOL    HW289617   8.745   9.269  12.981  0.5843 -0.1953 -2.3337
24003SOL     OW89618   3.214   4.330   4.413 -0.3486  0.9465  0.2375
24003SOL    HW189619   3.206   4.234   4.407  1.6566  0.6976  0.7607
24003SOL    HW289620   3.147   4.363   4.353  0.3421 -0.8264 -1.6366
24004SOL     OW89621  10.804   7.208   5.186  0.2432  0.5633 -0.1867
24004SOL    HW189622  10.894   7.241   5.185  0.1558  0.7949 -0.8400
24004SOL    HW289623  10.762   7.256   5.257  0.6087  0.5381  0.0479
24005SOL     OW89624   2.023   5.398   2.706 -0.0896  0.8318 -0.4305
24005SOL    HW189625   1.964   5.343   2.759 -1.3033 -0.5719 -3.0411
24005SOL    HW289626   2.103   5.403   2.758 -1.3526  0.0078  1.7506
24006SOL     OW89627  10.376   1.397  12.347  0.7694  0.4597  0.5725
24006SOL    HW189628  10.419   1.343  12.413  1.4532 -1.4918 -1.3773
24006SOL    HW289629  10.345   1.474  12.396  2.5966 -0.1349  2.8420
24007SOL     OW89630   1.969   4.115   2.804  0.0097  0.2266  0.0641
24007SOL    HW189631   1.990   4.027   2.771  0.8873  0.0990  0.9077
24007SOL    HW289632   1.916   4.099   2.882  0.3156  0.4386  0.3171
24008SOL     OW89633  11.564   7.847  12.530 -0.1063 -0.1123  0.6987
24008SOL    HW189634  11.648   7.809  12.557  1.5053  1.1233 -2.1823
24008SOL    HW289635  11.580   7.941  12.527 -0.1819 -0.0445 -3.7564
24009SOL     OW89636   2.793  13.295   9.263  0.3530 -0.0610 -0.4833
24009SOL    HW189637   2.887  13.289   9.278  0.1522 -0.8069  0.5966
24009SOL    HW289638   2.774  13.227   9.198  0.8797  1.6486 -2.5321
24010SOL     OW89639  10.234   1.041   2.746 -0.1000  0.4442  0.3399
24010SOL    HW189640  10.167   1.106   2.766  0.5332  1.1413  0.2135
24010SOL    HW289641  10.313   1.092   2.731 -0.2085 -0.0830 -2.6522
24011SOL     OW89642   7.211   8.102   0.902  0.0028 -0.0474 -0.1211
24011SOL    HW189643   7.208   8.197   0.885  0.4136 -0.2838 -1.6566
24011SOL    HW289644   7.161   8.091   0.982 -1.6720  1.2668 -0.9104
24012SOL     OW89645  11.767  11.259  11.852  0.2750 -0.0054  0.0031
24012SOL    HW189646  11.852  11.224  11.878  0.9840  1.9277  0.5263
24012SOL    HW289647  11.703  11.196  11.885  1.4766 -1.1464  0.2234
24013SOL     OW89648  12.252   6.918   3.339 -0.1036  0.1657 -0.1162
24013SOL    HW189649  12.276   7.010   3.330 -1.3366  0.7546  1.9575
24013SOL    HW289650  12.335   6.871   3.334  0.4030  1.1822 -2.7470
24014SOL     OW89651   6.822   4.967   1.149 -0.5901 -0.4690 -0.3260
24014SOL    HW189652   6.750   4.970   1.212 -0.5261 -1.3598 -0.2042
24014SOL    HW289653   6.890   4.915   1.192  0.0499  0.1906 -0.5264
24015SOL     OW89654  11.397   1.978   6.592 -0.2798  1.1188 -0.5519
24015SOL    HW189655  11.370   1.893   6.557 -0.9131  1.0088  0.1741
24015SOL    HW289656  11.486   1.965   6.622 -0.3378  0.7421 -0.5380
24016SOL     OW89657   3.977   3.448   9.473 -0.4115  0.3772  0.5897
24016SOL    HW189658   3.990   3.407   9.388 -0.7189  2.4180 -0.5127
24016SOL    HW289659   3.897   3.409   9.507 -1.3266  0.8317 -0.9351
24017SOL     OW89660   2.165   0.422   3.135 -0.3757  0.1335  0.5505
24017SOL    HW189661   2.208   0.337   3.140 -1.0497 -0.2798 -0.4574
24017SOL    HW289662   2.232   0.480   3.100 -0.0328 -0.0677  0.8687
24018SOL     OW89663   4.914   5.330   1.811  0.3936 -0.2818  0.2303
24018SOL    HW189664   4.840   5.359   1.865  0.7012 -0.6647  0.8714
24018SOL    HW289665   4.972   5.285   1.873  0.0260 -2.1108 -0.6829
24019SOL     OW89666   2.545   9.980   8.683 -0.4616  0.0257  0.7911
24019SOL    HW189667   2.514   9.892   8.704 -0.8916 -0.2665 -0.9128
24019SOL    HW289668   2.636   9.967   8.657 -0.9892 -0.2248 -1.1020
24020SOL     OW89669  12.123   7.917  12.433 -0.9482  0.2147  0.2585
24020SOL    HW189670  12.137   7.822  12.437 -1.3088  0.1291 -0.3649
24020SOL    HW289671  12.133   7.946  12.524 -0.0235 -0.2951  0.3269
24021SOL     OW89672  11.849   5.844  12.798 -0.3556  0.2189 -0.6213
24021SOL    HW189673  11.933   5.802  12.817 -0.5794  0.7255  1.8965
24021SOL    HW289674  11.818   5.801  12.719  0.6992 -2.3977  0.2820
24022SOL     OW89675   1.936   3.606  13.470 -0.1513  0.2796  0.2348
24022SOL    HW189676   1.924   3.667  13.543  0.2150  1.5078 -0.7064
24022SOL    HW289677   2.001   3.544  13.502  0.8200  1.4381  0.5910
24023SOL     OW89678   6.493   0.582   5.046 -0.5190 -0.7074  0.0938
24023SOL    HW189679   6.587   0.566   5.041 -0.3671 -0.2701  1.3623
24023SOL    HW289680   6.457   0.501   5.083 -0.7562 -1.1620 -1.0753
24024SOL     OW89681  10.646   4.693   5.656 -0.0564 -0.0944  0.5560
24024SOL    HW189682  10.630   4.599   5.665  0.0252 -0.1802 -0.1293
24024SOL    HW289683  10.581   4.734   5.713 -0.7077 -0.5386  0.1465
24025SOL     OW89684   8.764   5.142   3.569 -0.3210 -0.0790  0.2494
24025SOL    HW189685   8.848   5.186   3.555 -0.6530  0.4291 -0.1918
24025SOL    HW289686   8.780   5.084   3.643  0.8385 -1.0856 -0.7294
24026SOL     OW89687   7.908   5.976   4.800 -0.6270 -0.0806 -0.6665
24026SOL    HW189688   7.995   5.980   4.761 -1.1924 -0.4841 -2.0217
24026SOL    HW289689   7.884   6.067   4.815  0.0275  0.0313 -0.2717
24027SOL     OW89690  11.782   0.164  10.187 -0.2193 -0.0991 -0.4464
24027SOL    HW189691  11.872   0.169  10.155 -0.9845 -0.2144 -2.7619
24027SOL    HW289692  11.733   0.228  10.135 -1.2638  1.0095  1.7512
24028SOL     OW89693   4.666   8.829  12.657 -0.0384  0.5219 -0.0916
24028SOL    HW189694   4.725   8.798  12.588  0.0910  0.7944 -0.1098
24028SOL    HW289695   4.674   8.925  12.653 -1.5858  0.6393 -1.0581
24029SOL     OW89696   3.899  10.665  10.497 -0.1743  0.0505  0.1118
24029SOL    HW189697   3.974  10.627  10.451 -0.0845  0.1727  0.1572
24029SOL    HW289698   3.899  10.621  10.582  0.2812  0.5739  0.3886
24030SOL     OW89699   5.112   7.703   1.916 -0.9478 -0.2330  1.0033
24030SOL    HW189700   5.028   7.712   1.871 -1.0272  0.9251  1.3573
24030SOL    HW289701   5.173   7.675   1.848 -1.2552  0.6113  0.3647
24031SOL     OW89702   5.362   1.550  12.308  0.1804  0.3907  0.0004
24031SOL    HW189703   5.382   1.518  12.220  1.4108  2.3411 -0.4923
24031SOL    HW289704   5.293   1.614  12.295  1.3798  1.7839  0.1999
24032SOL     OW89705  10.209   1.901  11.501 -0.5450  0.1512  0.2339
24032SOL    HW189706  10.119   1.903  11.467 -1.0075  4.2228  1.1489
24032SOL    HW289707  10.207   1.959  11.577  2.3704 -1.7188  1.9049
24033SOL     OW89708   8.014   3.289   2.010  0.7430  0.3310  0.0996
24033SOL    HW189709   7.991   3.349   2.082 -1.8227  0.1893 -0.5026
24033SOL    HW289710   8.105   3.310   1.990  0.9600  1.6678  2.1396
24034SOL     OW89711  12.339   1.383   9.891 -0.5819  0.1081 -0.1677
24034SOL    HW189712  12.331   1.337   9.974  2.0747  2.4208  1.5559
24034SOL    HW289713  12.415   1.343   9.848 -0.0044  0.9784  0.0250
24035SOL     OW89714  13.801   0.475   8.410 -0.1484  0.4498  0.6024
24035SOL    HW189715  13.820   0.406   8.474 -2.4880  0.4740  1.3856
24035SOL    HW289716  13.820   0.557   8.455 -0.2287  0.4235  0.6816
24036SOL     OW89717   1.182   0.590   8.357 -0.2966 -0.1825  0.6191
24036SOL    HW189718   1.228   0.605   8.440 -2.0769  1.0526  1.4434
24036SOL    HW289719   1.168   0.495   8.355  1.6701 -0.5133  0.6366
24037SOL     OW89720   3.903  11.509   2.119  0.3036  0.1067  0.0313
24037SOL    HW189721   3.975  11.533   2.177 -0.8428 -0.2584  1.6996
24037SOL    HW289722   3.825  11.515   2.175 -1.2014  2.1009 -2.1151
24038SOL     OW89723   3.294  13.528  10.009  0.0018 -0.0163 -0.0470
24038SOL    HW189724   3.238  13.510   9.933 -0.5363 -0.6788  0.4905
24038SOL    HW289725   3.305  13.443  10.051 -0.2508  0.4456  0.9786
24039SOL     OW89726   4.543  11.158   3.681  0.5725 -0.0512  0.0329
24039SOL    HW189727   4.478  11.104   3.636  0.7084  1.5138 -2.2180
24039SOL    HW289728   4.626  11.136   3.638  1.0641  0.0403  0.9167
24040SOL     OW89729  10.680   0.854   9.139  0.2994 -0.3141  0.4987
24040SOL    HW189730  10.754   0.844   9.079 -0.9628 -0.2829 -1.1207
24040SOL    HW289731  10.705   0.927   9.195  1.7919 -0.7607  0.4609
24041SOL     OW89732   5.579   1.646   6.093  0.0129 -0.0058 -0.3197
24041SOL    HW189733   5.544   1.718   6.146 -0.3509 -0.5580  0.2042
24041SOL    HW289734   5.634   1.597   6.153 -3.0472 -2.6444  0.6443
24042SOL     OW89735   7.721  10.445   1.573  0.1316  0.2430 -0.6857
24042SOL    HW189736   7.705  10.539   1.588 -0.1881  0.1496 -0.4307
24042SOL    HW289737   7.642  10.414   1.529  0.7440  0.3446 -1.8804
24043SOL     OW89738  11.164   9.579   3.995 -0.0704 -0.8450  0.0835
24043SOL    HW189739  11.195   9.520   3.927 -0.1324 -2.3979  1.3491
24043SOL    HW289740  11.240   9.633   4.017 -0.7463  1.7391 -3.1386
24044SOL     OW89741   5.516   1.211   8.481 -0.3958 -0.3958 -0.3668
24044SOL    HW189742   5.453   1.175   8.418 -0.6957 -3.0531  1.2839
24044SOL    HW289743   5.601   1.184   8.447 -0.1288  2.1682 -1.9653
24045SOL     OW89744   2.369   5.988   2.108  0.1507 -0.2288 -0.5899
24045SOL    HW189745   2.395   6.061   2.052  0.8067  0.1364  0.1596
24045SOL    HW289746   2.399   6.014   2.196 -1.0471 -0.6713 -0.0283
24046SOL     OW89747   7.488   4.853   1.439  0.1622  0.1088 -1.1624
24046SOL    HW189748   7.487   4.774   1.494  2.7331  0.3279 -0.6791
24046SOL    HW289749   7.475   4.820   1.350  1.7581 -0.9942 -1.0345
24047SOL     OW89750  11.297  10.494   6.039 -0.2366 -0.5906 -0.5883
24047SOL    HW189751  11.299  10.579   5.996  0.0253 -0.7175 -0.8239
24047SOL    HW289752  11.211  10.457   6.016  0.1772 -0.9521 -1.5691
24048SOL     OW89753  13.136   6.037   3.171  0.0524 -0.1444 -0.0135
24048SOL    HW189754  13.133   5.954   3.124  3.0227  0.2238 -1.0256
24048SOL    HW289755  13.194   6.021   3.246 -1.2202  0.4383  1.1507
24049SOL     OW89756   1.531  10.164   0.636  0.1491  0.1075 -0.2134
24049SOL    HW189757   1.496  10.250   0.660  1.1999 -0.0682  2.2402
24049SOL    HW289758   1.626  10.175   0.640  0.2964 -1.0904 -0.1109
24050SOL     OW89759   7.787   1.994   0.478  0.0200  0.0421 -0.2840
24050SOL    HW189760   7.777   2.072   0.533 -1.3490 -0.1940 -0.1643
24050SOL    HW289761   7.790   2.029   0.388 -1.0315  0.2204 -0.2616
24051SOL     OW89762   8.295   6.448   5.342  0.3592 -0.4999 -0.0387
24051SOL    HW189763   8.289   6.543   5.337  0.0303 -0.5648 -0.9670
24051SOL    HW289764   8.238   6.416   5.273  0.6058 -1.3735  0.1490
24052SOL     OW89765   4.193   0.562  11.671  0.4396  0.5290  0.3173
24052SOL    HW189766   4.169   0.552  11.579  1.5356  1.1239 -0.0520
24052SOL    HW289767   4.165   0.651  11.693 -2.8980 -0.6924  1.5736
24053SOL     OW89768   2.489  14.071  10.150  0.2268  0.2117 -0.1022
24053SOL    HW189769   2.438  13.990  10.153  0.0321  0.2775 -1.1239
24053SOL    HW289770   2.423  14.141  10.151  0.2697  0.2988 -1.3227
24054SOL     OW89771   5.629   0.580   1.694  0.3297 -0.8836 -0.2984
24054SOL    HW189772   5.630   0.670   1.659 -1.0706  0.1682  2.1173
24054SOL    HW289773   5.538   0.552   1.685  0.1026 -0.8833  1.6229
24055SOL     OW89774   2.034  10.589   1.997  0.4901 -0.1758 -0.4766
24055SOL    HW189775   2.116  10.618   1.957  0.9273 -0.0964  0.4403
24055SOL    HW289776   1.974  10.662   1.982  0.6907 -0.0766 -0.8260
24056SOL     OW89777   3.434   2.744   4.866 -0.5157  0.1059  0.5973
24056SOL    HW189778   3.433   2.690   4.787 -0.0235 -1.3441  1.5471
24056SOL    HW289779   3.354   2.719   4.913 -0.1753  0.0405  1.1486
24057SOL     OW89780   2.335   4.737   7.632 -0.1722 -1.1290 -0.0609
24057SOL    HW189781   2.309   4.667   7.572  2.7828 -2.0955 -0.3630
24057SOL    HW289782   2.414   4.704   7.675  0.6964  1.5735  0.6212
24058SOL     OW89783   6.690   8.683  10.882 -0.0032  0.6081  0.6741
24058SOL    HW189784   6.778   8.720  10.892  0.0070  0.7478  0.0891
24058SOL    HW289785   6.692   8.601  10.932  1.3298 -0.8267 -1.5908
24059SOL     OW89786   1.252  10.251   9.529  0.2815 -0.0372  0.1158
24059SOL    HW189787   1.203  10.320   9.574 -0.5208 -1.1405  0.9811
24059SOL    HW289788   1.231  10.263   9.436 -0.0556  0.7056  0.2835
24060SOL     OW89789  11.928   4.256  13.285  0.1295  0.1566  0.1959
24060SOL    HW189790  11.938   4.163  13.266  0.0700 -0.1069  1.3623
24060SOL    HW289791  12.006   4.278  13.336 -0.3476  0.4911  0.7964
24061SOL     OW89792  10.658   6.896   0.638 -0.3012 -0.2895  0.2800
24061SOL    HW189793  10.583   6.954   0.625 -1.5865 -1.3480  2.3993
24061SOL    HW289794  10.720   6.949   0.689 -0.0981  0.2097 -0.4745
24062SOL     OW89795   3.256   2.292   2.590  0.5728 -0.1298 -0.1377
24062SOL    HW189796   3.223   2.304   2.679  1.1675 -0.3169  0.1127
24062SOL    HW289797   3.181   2.258   2.541  0.4756 -0.8747  0.5084
24063SOL     OW89798   2.761   4.859  11.284 -0.0797  0.2413  0.2542
24063SOL    HW189799   2.766   4.766  11.307  0.6841  0.4713  1.1076
24063SOL    HW289800   2.805   4.904  11.357 -3.2667  1.5623  1.5747
24064SOL     OW89801   2.813   7.225  12.359  0.1166  0.0312  0.1884
24064SOL    HW189802   2.835   7.276  12.281  0.9541 -1.2474 -0.4458
24064SOL    HW289803   2.876   7.254  12.425  0.1372  0.3138  0.0499
24065SOL     OW89804   1.578   6.428   5.324 -0.4370  0.1427  0.5359
24065SOL    HW189805   1.485   6.404   5.324 -0.5239  0.4238 -0.6317
24065SOL    HW289806   1.597   6.449   5.233  0.0976  2.7124  1.1494
24066SOL     OW89807   2.174   2.908   3.071  0.6412 -0.1873 -0.4137
24066SOL    HW189808   2.087   2.918   3.111  1.2758 -1.1648  1.2883
24066SOL    HW289809   2.162   2.839   3.006 -0.0111  0.1920 -0.7088
24067SOL     OW89810   4.571  11.607  13.694 -0.3466  0.1276  0.3929
24067SOL    HW189811   4.505  11.584  13.629 -0.2248  0.1607  0.2569
24067SOL    HW289812   4.586  11.701  13.681 -0.2883  0.1254  0.4385
24068SOL     OW89813   6.292   8.304   8.722 -0.4112 -0.3327 -0.3359
24068SOL    HW189814   6.228   8.264   8.663 -1.1842  0.6199 -0.1518
24068SOL    HW289815   6.366   8.243   8.721 -0.9155 -0.9506 -1.3170
24069SOL     OW89816  10.691   4.627   2.567 -0.0210  0.1800 -0.7450
24069SOL    HW189817  10.776   4.630   2.523 -0.3826  0.7654 -1.4213
24069SOL    HW289818  10.703   4.564   2.638  1.5092  1.6202  0.3273
24070SOL     OW89819   3.347   9.388   2.624 -0.2935 -0.4610 -0.4069
24070SOL    HW189820   3.368   9.325   2.693  1.0834  0.0678 -0.3018
24070SOL    HW289821   3.266   9.354   2.585 -0.6949 -1.1749  0.9568
24071SOL     OW89822   6.666  10.429   5.226  0.0709  0.3316 -0.0523
24071SOL    HW189823   6.614  10.354   5.254  0.9155  0.2827  1.4743
24071SOL    HW289824   6.756  10.396   5.222  0.2954  0.9724 -0.5100
24072SOL     OW89825   5.781   9.622   6.390 -0.3956  0.4473  0.4072
24072SOL    HW189826   5.872   9.617   6.362 -0.1367  1.4095  1.0246
24072SOL    HW289827   5.741   9.686   6.330 -1.3249 -1.7565 -1.4668
24073SOL     OW89828   3.377   2.890  13.371 -0.6622 -0.5178 -0.0568
24073SOL    HW189829   3.300   2.928  13.416 -0.5659 -1.2853  0.7928
24073SOL    HW289830   3.452   2.927  13.418 -0.5606 -1.3703  0.4655
24074SOL     OW89831   2.391   2.898   1.578 -0.5117 -0.1499  0.1986
24074SOL    HW189832   2.410   2.892   1.672  0.4135 -1.7477 -0.0405
24074SOL    HW289833   2.453   2.836   1.538 -0.5179  0.9080 -1.5200
24075SOL     OW89834  11.351   8.168   6.413  0.5222  0.8035  0.0801
24075SOL    HW189835  11.397   8.144   6.493  0.5772 -0.2345 -0.2505
24075SOL    HW289836  11.421   8.200   6.355  0.7498 -0.1580 -0.1894
24076SOL     OW89837  11.954   4.143   0.409  0.2685 -0.4565  0.4817
24076SOL    HW189838  11.970   4.070   0.349  0.3398  0.4158 -0.5958
24076SOL    HW289839  12.025   4.138   0.473  2.1372  0.4775 -1.3915
24077SOL     OW89840  10.284   3.396  13.924  0.2469  0.0728  0.0145
24077SOL    HW189841  10.258   3.347  14.001 -1.1864 -0.7673 -0.9493
24077SOL    HW289842  10.225   3.366  13.855  0.6481  1.6985 -1.1133
24078SOL     OW89843   0.338  12.725   7.226 -0.4913 -0.2028 -0.1115
24078SOL    HW189844   0.290  12.789   7.280  0.3538  0.0733  0.3315
24078SOL    HW289845   0.429  12.736   7.251 -0.3060 -1.4936 -0.1389
24079SOL     OW89846   5.570  11.629   5.823 -0.0682  0.1140 -0.1273
24079SOL    HW189847   5.631  11.678   5.878 -2.0314 -1.0558  3.4115
24079SOL    HW289848   5.616  11.549   5.801  0.5175  0.2629  0.5237
24080SOL     OW89849  10.319  11.018   3.048  0.1300  0.2456  0.5025
24080SOL    HW189850  10.271  11.071   3.112 -0.6680 -0.7680  0.7704
24080SOL    HW289851  10.278  10.932   3.053  0.4176 -0.0046 -0.9888
24081SOL     OW89852   4.806  13.983   4.589 -0.1707 -0.0435 -0.6063
24081SOL    HW189853   4.742  13.989   4.660 -1.4039  0.9219 -1.7358
24081SOL    HW289854   4.873  14.048   4.612 -0.4544  0.1190 -0.2266
24082SOL     OW89855   3.875   4.902   1.437 -0.4221 -0.3951  0.4062
24082SOL    HW189856   3.797   4.857   1.402  0.5013 -1.3470 -0.5163
24082SOL    HW289857   3.888   4.862   1.523  0.2127 -1.7735 -0.2804
24083SOL     OW89858   1.166   0.469   0.056 -0.2791 -0.7808  0.3254
24083SOL    HW189859   1.195   0.452   0.146  0.9162 -1.1349 -0.1118
24083SOL    HW289860   1.150   0.564   0.054  0.6906 -0.6026  0.6368
24084SOL     OW89861   5.558   1.017   2.794 -0.0698  0.1471  0.2104
24084SOL    HW189862   5.606   0.934   2.785 -0.6150 -0.4010  1.8665
24084SOL    HW289863   5.470   0.997   2.763  0.5397  0.9829 -2.2409
24085SOL     OW89864   5.163  11.790   9.722  0.7878 -0.3355 -0.1053
24085SOL    HW189865   5.143  11.880   9.697 -2.3410 -0.9910 -0.3604
24085SOL    HW289866   5.174  11.744   9.639 -0.2398 -0.6798 -0.0582
24086SOL     OW89867   4.308   5.911   3.442  0.3169 -0.1127 -0.2844
24086SOL    HW189868   4.218   5.882   3.428  0.3032  0.0037 -0.4442
24086SOL    HW289869   4.348   5.909   3.355  0.7069 -0.9484 -0.0926
24087SOL     OW89870   2.505   7.162  13.034  0.6074 -0.4614  0.0330
24087SOL    HW189871   2.451   7.228  13.077  0.6642 -0.0342 -0.5484
24087SOL    HW289872   2.484   7.080  13.080  0.9629  0.0516  1.1394
24088SOL     OW89873  10.959  13.606  11.133 -0.1249  0.1062  0.1314
24088SOL    HW189874  10.920  13.528  11.171 -0.7510  0.3071 -0.0898
24088SOL    HW289875  11.034  13.573  11.083  3.4252  0.1203  4.7384
24089SOL     OW89876   7.405   7.190   2.920 -0.4740  0.4704  0.3343
24089SOL    HW189877   7.396   7.100   2.890  0.0483  0.8454 -1.0121
24089SOL    HW289878   7.319   7.211   2.957 -0.2391 -0.9438  1.8167
24090SOL     OW89879   2.114   8.009   0.198 -0.5461 -0.7765  0.2467
24090SOL    HW189880   2.198   8.033   0.160 -0.7564 -0.2730  0.0893
24090SOL    HW289881   2.105   8.068   0.273 -0.2951 -1.5214  0.8716
24091SOL     OW89882   2.311   9.704  13.400  0.0820 -0.2576  0.9101
24091SOL    HW189883   2.228   9.744  13.375  0.1250 -0.1664  0.9129
24091SOL    HW289884   2.377   9.772  13.384  0.1154 -0.2091  1.2337
24092SOL     OW89885   8.921   7.289   0.684  0.5245 -0.2336 -0.4391
24092SOL    HW189886   8.835   7.271   0.722  0.1539 -0.7946 -1.5056
24092SOL    HW289887   8.906   7.363   0.625  0.9384  0.1451 -0.0780
24093SOL     OW89888   4.013  12.733  13.577 -0.4700  0.1369  0.3057
24093SOL    HW189889   4.071  12.693  13.512  0.7933  1.9150  0.2644
24093SOL    HW289890   3.967  12.803  13.530  0.3793  1.3783  1.2333
24094SOL     OW89891   4.857   0.511   9.780 -0.2187 -0.6202  0.5012
24094SOL    HW189892   4.911   0.556   9.715 -2.0209  0.8082 -0.1033
24094SOL    HW289893   4.918   0.487   9.850  1.2654  0.4974 -0.3411
24095SOL     OW89894   0.890   6.372   8.346 -0.0569 -0.0580  0.4298
24095SOL    HW189895   0.889   6.462   8.376 -1.6988 -0.6528  2.4165
24095SOL    HW289896   0.943   6.373   8.266  1.0904  2.3803  1.1453
24096SOL     OW89897   0.994   4.253  12.507 -0.1950 -0.5599  0.0152
24096SOL    HW189898   1.012   4.345  12.524  1.0678 -0.1113 -3.1092
24096SOL    HW289899   1.072   4.206  12.538  0.4651 -0.1907 -1.0330
24097SOL     OW89900  12.626   4.734  11.093 -0.7991 -0.1878 -0.0372
24097SOL    HW189901  12.621   4.721  11.188  0.3099 -1.0928 -0.0848
24097SOL    HW289902  12.640   4.829  11.083 -1.3214 -0.0266  0.6815
24098SOL     OW89903  10.614   3.961   0.807 -0.3646  0.1912  0.1125
24098SOL    HW189904  10.572   4.026   0.862  0.4817  0.2303  0.7299
24098SOL    HW289905  10.633   3.888   0.866 -0.9133 -0.4441 -0.4774
24099SOL     OW89906   1.213   3.027  12.568  0.8338 -0.4176 -0.3708
24099SOL    HW189907   1.190   3.024  12.661  1.3672  1.5982 -0.1119
24099SOL    HW289908   1.129   3.042  12.523  0.8930  1.8987  0.1329
24100SOL     OW89909  12.433  11.111   9.287 -0.2647 -0.0327  0.3830
24100SOL    HW189910  12.500  11.171   9.319 -0.8279 -0.0616  1.6943
24100SOL    HW289911  12.402  11.150   9.206  1.1416  0.1140 -0.1181
24101SOL     OW89912   9.510   4.280   0.165  0.3937  0.2919  0.3165
24101SOL    HW189913   9.446   4.342   0.129 -0.2796 -0.4313  0.2630
24101SOL    HW289914   9.560   4.251   0.089  2.1357  2.3335  0.5850
24102SOL     OW89915   2.631   4.986   5.150 -0.1167  0.4306  0.1479
24102SOL    HW189916   2.682   4.920   5.197 -0.5201  0.3258  0.4458
24102SOL    HW289917   2.692   5.023   5.087  0.4372  0.5903  0.7696
24103SOL     OW89918   7.083  12.667  13.251  0.1369  0.6932 -0.0499
24103SOL    HW189919   7.126  12.583  13.239  0.4228  0.7580  0.5121
24103SOL    HW289920   7.094  12.711  13.166 -2.6774 -1.0006 -1.4274
24104SOL     OW89921   4.897   4.470   4.965 -0.1335 -0.3346  0.0930
24104SOL    HW189922   4.850   4.454   4.883  0.4001  0.2666 -0.3348
24104SOL    HW289923   4.832   4.452   5.033 -0.8535  0.0356 -0.4778
24105SOL     OW89924  10.872   8.970   8.043 -0.2210 -0.0128  0.1660
24105SOL    HW189925  10.942   8.995   7.983  0.1776  0.3965  0.7791
24105SOL    HW289926  10.918   8.934   8.119 -0.5175  2.1451  1.4685
24106SOL     OW89927   0.417   1.031   6.351  0.0365  0.0272 -0.2060
24106SOL    HW189928   0.329   1.005   6.378  0.6172 -0.5988  1.1869
24106SOL    HW289929   0.444   0.965   6.288 -1.3620  1.5396 -2.5574
24107SOL     OW89930   9.381   4.306   6.071  0.6172 -0.5990  0.1763
24107SOL    HW189931   9.351   4.376   6.012  1.5838  1.9279  2.4480
24107SOL    HW289932   9.415   4.239   6.013 -0.3960  0.7763 -2.1693
24108SOL     OW89933   7.942   6.248   6.089 -0.0248  0.2045  0.4572
24108SOL    HW189934   7.915   6.331   6.049 -1.2124 -0.3678  0.0327
24108SOL    HW289935   8.035   6.240   6.066 -0.3170  0.6055 -0.9823
24109SOL     OW89936   5.489   3.769  13.987  0.5120 -0.0649  0.0198
24109SOL    HW189937   5.561   3.712  13.958  1.4333  1.2725 -0.4422
24109SOL    HW289938   5.518   3.802  14.072  0.6600  0.7919 -0.3480
24110SOL     OW89939   2.360   9.172   1.427 -0.3886 -0.1331 -0.1710
24110SOL    HW189940   2.456   9.162   1.432 -0.2663  1.2689  0.6847
24110SOL    HW289941   2.346   9.264   1.406 -1.5675 -0.3601 -0.4625
24111SOL     OW89942  10.114   8.840   8.647 -0.3652  0.5641 -0.1503
24111SOL    HW189943  10.186   8.788   8.683 -0.2685  1.0413  0.3668
24111SOL    HW289944  10.039   8.820   8.704 -1.4718 -2.0893 -2.2954
24112SOL     OW89945   6.090  10.672   3.525  0.0668 -0.1332 -0.1489
24112SOL    HW189946   6.023  10.735   3.501  0.3583  0.0023 -0.6195
24112SOL    HW289947   6.097  10.613   3.449 -0.9284 -1.3693  0.6744
24113SOL     OW89948   8.964   9.859   2.107 -0.0390  0.2580 -0.1576
24113SOL    HW189949   8.946   9.772   2.143 -0.2565  0.5085  0.3460
24113SOL    HW289950   9.022   9.842   2.033 -1.0719 -0.4296 -0.8446
24114SOL     OW89951   2.421  11.197   2.757 -0.4628  0.0452  0.4550
24114SOL    HW189952   2.413  11.102   2.751 -0.2809  0.0906 -0.5842
24114SOL    HW289953   2.471  11.211   2.838 -0.5535 -0.7298  0.6593
24115SOL     OW89954  11.091   7.150  11.000 -0.2730 -0.5130 -0.3951
24115SOL    HW189955  11.092   7.054  11.010 -0.3528 -0.4897 -0.1520
24115SOL    HW289956  11.119   7.165  10.910 -2.8042 -0.8666 -1.2937
24116SOL     OW89957  12.462  10.546   8.640 -0.2126 -0.7106 -0.2043
24116SOL    HW189958  12.503  10.633   8.650 -0.4891 -0.7673  1.9691
24116SOL    HW289959  12.404  10.556   8.565  1.5809  0.2316 -1.5661
24117SOL     OW89960   2.329  13.798   6.533  0.1938  0.0038 -0.6914
24117SOL    HW189961   2.402  13.750   6.573  0.0939 -0.6523 -1.2658
24117SOL    HW289962   2.339  13.781   6.439 -0.9312 -0.4274 -0.7423
24118SOL     OW89963  13.675  12.361  10.961  0.1120 -0.3239  0.0446
24118SOL    HW189964  13.642  12.291  10.905  1.1735  0.3395 -1.4868
24118SOL    HW289965  13.611  12.431  10.951 -0.5593 -0.7861  0.9875
24119SOL     OW89966  14.074   6.433   2.547 -0.3142 -0.2484  0.3173
24119SOL    HW189967  14.148   6.417   2.489 -0.6178  0.3871 -0.2578
24119SOL    HW289968  14.100   6.510   2.598  0.0663 -0.9655  1.2359
24120SOL     OW89969   7.611   2.299   0.155  0.2467 -0.5071 -0.0677
24120SOL    HW189970   7.632   2.336   0.069  1.1163 -0.5569  0.1183
24120SOL    HW289971   7.609   2.374   0.213  1.4851 -0.6695  0.2090
24121SOL     OW89972   9.409   0.640  12.204 -0.0622 -0.3307 -0.2399
24121SOL    HW189973   9.361   0.673  12.128  2.2393 -0.2868 -1.7629
24121SOL    HW289974   9.456   0.564  12.172 -0.2173 -1.2355  1.5734
24122SOL     OW89975   3.956   1.707  12.989 -0.1779 -0.1437  0.1891
24122SOL    HW189976   3.877   1.667  12.953 -0.6271  0.1852  0.7848
24122SOL    HW289977   3.986   1.768  12.922  0.2813 -1.1554 -0.5563
24123SOL     OW89978  12.007   6.717   5.322  0.4154  0.1832  0.6225
24123SOL    HW189979  11.928   6.741   5.273 -0.4230  0.1043  1.8940
24123SOL    HW289980  12.040   6.799   5.357  0.3951  0.0971  0.8427
24124SOL     OW89981  11.632  11.588   5.339  0.4356  0.0303 -0.3938
24124SOL    HW189982  11.606  11.515   5.282  1.1021 -0.5689  0.0572
24124SOL    HW289983  11.599  11.565   5.425  0.8275  0.1652 -0.2053
24125SOL     OW89984   9.165   5.113   5.189 -0.1311 -0.6090 -0.3458
24125SOL    HW189985   9.092   5.174   5.190  0.2837 -0.0798  1.0421
24125SOL    HW289986   9.124   5.026   5.184 -0.9053 -0.3418  0.8034
24126SOL     OW89987   0.325   0.556  10.758  0.2090  0.0797  0.0366
24126SOL    HW189988   0.398   0.616  10.767  1.0858 -0.8924 -0.3845
24126SOL    HW289989   0.273   0.591  10.686  0.4142  0.6105  0.1463
24127SOL     OW89990   5.125   0.263  10.342  0.5575 -0.2655  0.3813
24127SOL    HW189991   5.089   0.351  10.352  1.3705  0.2973 -1.3034
24127SOL    HW289992   5.208   0.265  10.390  0.0029 -0.5113  1.3739
24128SOL     OW89993   1.560   7.884  10.086 -0.2088  0.0526  0.0580
24128SOL    HW189994   1.559   7.789  10.083  0.5218 -0.0130  1.3189
24128SOL    HW289995   1.629   7.910  10.025  0.4581 -0.2968  0.6465
24129SOL     OW89996  10.095   8.448  12.834  0.1941 -0.2277  0.5338
24129SOL    HW189997  10.083   8.380  12.768 -0.6854  1.5118 -1.1961
24129SOL    HW289998  10.159   8.411  12.895  0.7012 -2.0904 -1.0187
24130SOL     OW89999   9.609  11.302   5.605  0.2024  0.6315  0.0139
24130SOL    HW190000   9.540  11.279   5.667  0.8722  1.1838  0.9909
24130SOL    HW290001   9.656  11.373   5.647  0.9764  0.6905 -0.9247
24131SOL     OW90002   3.744   0.476   9.709 -0.1695 -0.0549  0.5225
24131SOL    HW190003   3.831   0.512   9.688 -0.5797  1.9394  1.9286
24131SOL    HW290004   3.686   0.514   9.644 -0.0517 -1.2443 -0.3050
24132SOL     OW90005  10.081  10.196   0.786  0.4740 -0.4688 -0.3046
24132SOL    HW190006  10.015  10.263   0.771 -1.0621 -0.8838  3.4946
24132SOL    HW290007  10.163  10.245   0.798 -0.1092  0.5035 -0.2119
24133SOL     OW90008   1.246   1.161  10.707 -0.1003  0.1166  0.1438
24133SOL    HW190009   1.151   1.144  10.706 -0.2303  0.8250 -0.5955
24133SOL    HW290010   1.286   1.074  10.707 -0.7573 -0.1892  0.3447
24134SOL     OW90011   2.826   8.464   9.851 -0.8062  0.7306 -0.4575
24134SOL    HW190012   2.820   8.559   9.866 -2.1947  0.5219  0.5243
24134SOL    HW290013   2.867   8.456   9.765  0.3988  2.1877 -0.0735
24135SOL     OW90014  10.034  10.201   2.851  0.2259  0.3464 -0.2469
24135SOL    HW190015  10.094  10.176   2.921  1.6331  1.4041 -1.0231
24135SOL    HW290016   9.967  10.254   2.895  0.7954  0.5626  0.3779
24136SOL     OW90017  13.131   8.929   3.461 -0.3663 -0.2667 -0.2468
24136SOL    HW190018  13.107   9.010   3.506 -1.6071 -0.5402 -0.3671
24136SOL    HW290019  13.134   8.863   3.531  0.5745 -0.1350 -0.1582
24137SOL     OW90020  11.399  11.207  12.621 -0.2878  0.4267 -0.0094
24137SOL    HW190021  11.485  11.242  12.644  0.2218 -0.3927 -0.5692
24137SOL    HW290022  11.393  11.125  12.669 -0.3822  0.0585 -0.6415
24138SOL     OW90023  12.912   1.570   0.577  0.0352  0.3203 -0.1835
24138SOL    HW190024  12.962   1.631   0.522 -1.0777  0.1383 -1.4811
24138SOL    HW290025  12.968   1.493   0.585 -0.0655  0.0345 -1.7834
24139SOL     OW90026  12.947   7.502   3.294  0.3115  0.2334  0.5871
24139SOL    HW190027  13.005   7.457   3.355  1.8702 -0.4106 -1.2894
24139SOL    HW290028  12.960   7.595   3.312  1.6046  0.0804  0.5023
24140SOL     OW90029   4.853   0.468   7.958 -0.1124 -0.2706  0.1536
24140SOL    HW190030   4.895   0.551   7.979 -2.0351  0.8848 -0.3372
24140SOL    HW290031   4.776   0.465   8.014 -0.9457 -0.9529 -0.9831
24141SOL     OW90032  12.237   0.076   7.386 -0.4510  0.1822 -0.1927
24141SOL    HW190033  12.216   0.019   7.312 -0.4722 -0.8902  0.6344
24141SOL    HW290034  12.168   0.143   7.383 -2.6073 -1.8323  0.9226
24142SOL     OW90035   0.113  12.936   4.250 -0.0835  0.0249  0.2963
24142SOL    HW190036   0.122  13.026   4.219 -3.5554  0.8518  1.3047
24142SOL    HW290037   0.040  12.901   4.199  0.3033 -1.7723  0.9232
24143SOL     OW90038   8.797   7.687   0.162  0.1058  0.4246  0.8060
24143SOL    HW190039   8.826   7.652   0.246 -1.6959  2.0319  2.1980
24143SOL    HW290040   8.709   7.720   0.179 -0.2295  1.0412 -1.6796
24144SOL     OW90041   4.791  13.248   4.117 -0.3263  0.3656 -0.5783
24144SOL    HW190042   4.806  13.173   4.175 -0.8724  0.1821 -0.6738
24144SOL    HW290043   4.697  13.263   4.120 -0.0716  2.0867  0.7282
24145SOL     OW90044   1.011   6.368   7.005 -0.3044  0.2568 -0.3731
24145SOL    HW190045   1.042   6.453   7.038  0.9443 -0.2828 -0.1013
24145SOL    HW290046   1.073   6.345   6.936 -2.2819  0.8701 -2.5088
24146SOL     OW90047  12.382   0.141   2.983  0.8419  0.4317 -0.3345
24146SOL    HW190048  12.354   0.172   3.069 -1.2809 -2.6518  0.2657
24146SOL    HW290049  12.302   0.143   2.930  0.7043 -2.9322 -0.4538
24147SOL     OW90050   4.820   4.541   6.426 -0.7109 -0.3507 -0.0620
24147SOL    HW190051   4.739   4.489   6.424 -1.9612  1.4937  0.4548
24147SOL    HW290052   4.830   4.572   6.336 -0.0455 -1.3202 -0.3368
24148SOL     OW90053   3.113   9.450   4.259 -0.0327 -0.2265  0.2045
24148SOL    HW190054   3.169   9.382   4.296 -2.1944 -1.9908  0.4970
24148SOL    HW290055   3.026   9.431   4.294 -1.0800  1.5927 -1.1952
24149SOL     OW90056   8.106   3.343   6.906  0.9481 -0.1627  0.0027
24149SOL    HW190057   8.136   3.252   6.910  0.8277 -0.1640  1.4482
24149SOL    HW290058   8.124   3.378   6.993  0.7585  1.1279 -0.4632
24150SOL     OW90059   1.269  14.046   1.658  0.4250  0.1683 -0.2453
24150SOL    HW190060   1.329  14.018   1.589  0.7552 -0.7290  0.3882
24150SOL    HW290061   1.255  14.139   1.642  1.1916  0.1613 -0.9965
24151SOL     OW90062   8.699  10.088   6.191  0.3904  0.1522  0.4865
24151SOL    HW190063   8.750  10.150   6.243 -0.5240  2.8198 -1.5409
24151SOL    HW290064   8.760  10.016   6.174  1.8059  0.8471  2.2366
24152SOL     OW90065   7.644   9.177  12.502 -0.3725 -0.0912  0.4488
24152SOL    HW190066   7.615   9.212  12.586 -0.8932 -1.0926  0.7000
24152SOL    HW290067   7.685   9.252  12.458 -1.1083  0.7270  1.1168
24153SOL     OW90068  12.861   9.870   8.993  0.0209 -0.1287 -0.6668
24153SOL    HW190069  12.795   9.916   9.044  1.3061  0.8494  0.1512
24153SOL    HW290070  12.834   9.883   8.902 -1.6403 -0.9091 -0.3264
24154SOL     OW90071   9.821   2.071   1.230  0.0762  0.1624  0.0257
24154SOL    HW190072   9.875   2.129   1.284  0.9980 -0.5196 -0.1471
24154SOL    HW290073   9.735   2.072   1.273  0.4490  0.5916  0.7908
24155SOL     OW90074   0.170  11.347   9.402  0.2439 -0.0864 -0.0768
24155SOL    HW190075   0.248  11.398   9.421  0.0562 -0.2152  1.0954
24155SOL    HW290076   0.162  11.286   9.475 -1.5860  0.6738  0.4151
24156SOL     OW90077  10.399   5.488  13.165 -0.0502  0.2820 -0.1700
24156SOL    HW190078  10.306   5.476  13.147 -1.0867  2.0135  3.1345
24156SOL    HW290079  10.428   5.403  13.197 -1.4195  0.4826  1.7933
24157SOL     OW90080  11.802   1.484   4.943  0.2646 -0.1225 -0.3011
24157SOL    HW190081  11.797   1.514   4.853 -1.0334  0.2761 -0.1206
24157SOL    HW290082  11.717   1.441   4.959  1.0883 -1.6465  0.2350
24158SOL     OW90083   4.824   3.808   4.875 -0.3434 -0.0686 -0.5782
24158SOL    HW190084   4.869   3.891   4.859 -0.9056  0.2487 -0.5559
24158SOL    HW290085   4.786   3.785   4.790  1.0685 -1.0910 -0.9703
24159SOL     OW90086   5.855   8.307   5.131  0.3059  0.3486 -0.2723
24159SOL    HW190087   5.760   8.295   5.127  0.3975 -0.8750  0.7133
24159SOL    HW290088   5.878   8.294   5.223  1.6899 -1.7468 -0.8187
24160SOL     OW90089  12.803   7.486   7.342  0.0177  0.0823  0.1028
24160SOL    HW190090  12.715   7.491   7.304 -0.9701 -1.7294  1.9741
24160SOL    HW290091  12.820   7.574   7.374 -2.1237 -0.0003  1.7023
24161SOL     OW90092  11.351   4.720   7.194  0.5752 -0.1702  0.0719
24161SOL    HW190093  11.362   4.650   7.129  0.5743 -1.6308  1.5775
24161SOL    HW290094  11.360   4.801   7.144  0.0228 -1.2256 -1.8386
24162SOL     OW90095   0.229   3.943   0.436  0.1490  0.1240 -0.4959
24162SOL    HW190096   0.198   3.923   0.524 -0.7817  2.3900 -0.2192
24162SOL    HW290097   0.323   3.924   0.438 -0.0593 -0.8999  0.6251
24163SOL     OW90098   0.201   5.320  10.088 -0.0540  0.0072 -0.2169
24163SOL    HW190099   0.267   5.295  10.153  1.1652 -0.7703 -1.6756
24163SOL    HW290100   0.225   5.409  10.063 -0.3087  0.1771  0.1434
24164SOL     OW90101   0.321   9.804  12.471  0.2991  0.3188  0.3555
24164SOL    HW190102   0.370   9.721  12.476  0.5650  0.5157  3.2947
24164SOL    HW290103   0.335   9.844  12.557 -2.1439  2.0864  0.0193
24165SOL     OW90104   7.575  11.185   1.385 -0.5810  0.2271 -0.3859
24165SOL    HW190105   7.506  11.251   1.385 -1.0441 -0.2335  0.6679
24165SOL    HW290106   7.629  11.206   1.461  0.2866  0.4115 -1.0350
24166SOL     OW90107   0.644  10.762   7.452  0.0734  0.0694  0.1575
24166SOL    HW190108   0.731  10.801   7.453 -0.3708  1.0950  0.5960
24166SOL    HW290109   0.656  10.676   7.492  0.9390  0.0539 -0.1092
24167SOL     OW90110  10.009  11.070  12.182  0.4741  0.1720  0.2700
24167SOL    HW190111   9.993  11.012  12.256  0.8920 -0.2842  0.0070
24167SOL    HW290112   9.993  11.016  12.105 -0.2079  0.7177  0.0236
24168SOL     OW90113   1.062   3.103   9.545 -0.5688 -0.2046 -0.5335
24168SOL    HW190114   0.986   3.142   9.588  0.3272  1.1105 -0.0492
24168SOL    HW290115   1.043   3.107   9.452 -1.2217 -0.1765 -0.4015
24169SOL     OW90116   6.376  12.427   0.425 -0.1901  0.2526  0.0784
24169SOL    HW190117   6.382  12.489   0.498 -0.2930  0.7841 -0.3552
24169SOL    HW290118   6.465  12.396   0.412 -0.2730 -0.3473  0.8504
24170SOL     OW90119   4.652   0.969   5.600  0.1195 -0.1582  0.2476
24170SOL    HW190120   4.657   0.874   5.609 -0.0807 -0.1521  0.4350
24170SOL    HW290121   4.741   0.999   5.613  0.6104 -0.4949 -1.9600
24171SOL     OW90122  13.134   0.150   8.607 -0.4233 -0.4464  0.1654
24171SOL    HW190123  13.098   0.236   8.626  0.1349  0.0906 -1.0880
24171SOL    HW290124  13.163   0.156   8.516  0.5832 -1.6203  0.3836
24172SOL     OW90125   7.094   2.707   7.314  0.2279  0.0630  0.0366
24172SOL    HW190126   7.108   2.666   7.229 -2.0098 -0.7846  0.0099
24172SOL    HW290127   7.060   2.794   7.293  0.3531  0.1203  0.0707
24173SOL     OW90128   1.073  14.010  12.218 -0.1241  0.1567 -0.4191
24173SOL    HW190129   1.071  13.927  12.170  1.8043  0.6802 -1.4886
24173SOL    HW290130   1.003  14.062  12.179  0.2439 -0.0915 -1.4446
24174SOL     OW90131   1.312   6.585   7.833 -0.0830  0.0221  0.1056
24174SOL    HW190132   1.368   6.617   7.763 -0.2801  1.0679  0.4136
24174SOL    HW290133   1.230   6.561   7.789  0.4808 -1.2639 -0.3038
24175SOL     OW90134  10.859   9.894  12.281  0.5726 -0.5060 -0.1079
24175SOL    HW190135  10.819   9.827  12.226 -1.9133  0.7260  0.0585
24175SOL    HW290136  10.887   9.962  12.220 -0.3957 -0.0146 -0.0158
24176SOL     OW90137   1.543  13.207   7.146  0.2000 -0.2009 -0.1522
24176SOL    HW190138   1.525  13.140   7.212 -0.5721 -0.0402 -0.2006
24176SOL    HW290139   1.459  13.225   7.105  0.5388  0.2460 -0.6724
24177SOL     OW90140   2.229   0.435   2.773  0.2670 -0.0477  0.1716
24177SOL    HW190141   2.250   0.525   2.798  1.0880  0.6523 -2.6214
24177SOL    HW290142   2.147   0.442   2.725  1.0749 -0.4855 -1.3561
24178SOL     OW90143   3.305   7.535   9.483 -0.2216  0.0540  0.6917
24178SOL    HW190144   3.228   7.510   9.534 -0.4660  0.0223  0.3110
24178SOL    HW290145   3.337   7.452   9.447 -0.2755  0.1288  0.4760
24179SOL     OW90146   1.317   6.316   1.958 -0.3384  0.4820  0.3529
24179SOL    HW190147   1.346   6.237   1.911  0.4131  0.9646 -0.0122
24179SOL    HW290148   1.225   6.326   1.933 -0.0250  0.5718 -0.8101
24180SOL     OW90149  13.558   1.655  12.476  0.0542 -0.3318 -0.2508
24180SOL    HW190150  13.632   1.641  12.417 -0.7308  0.8327 -1.5665
24180SOL    HW290151  13.539   1.749  12.469  0.3072 -0.0174  2.3424
24181SOL     OW90152  12.297   9.594   2.847 -0.2856 -0.1122  0.2568
24181SOL    HW190153  12.220   9.640   2.880  1.0502  1.6751  1.0651
24181SOL    HW290154  12.329   9.544   2.923  0.5573  0.8881  0.5835
24182SOL     OW90155   1.127   5.310  13.323  0.7277 -0.1158  0.3749
24182SOL    HW190156   1.038   5.293  13.294  1.4260 -3.8819 -0.1067
24182SOL    HW290157   1.177   5.319  13.241  1.1305 -0.4179  0.5849
24183SOL     OW90158   6.443  12.169   0.832 -0.1889  0.0748 -0.8503
24183SOL    HW190159   6.531  12.204   0.842 -0.0343 -0.1076 -1.5126
24183SOL    HW290160   6.396  12.198   0.910  0.6116 -0.3017 -0.2231
24184SOL     OW90161  13.907  10.309  13.025  0.1860  0.4020 -0.2684
24184SOL    HW190162  13.855  10.279  12.950 -0.2557 -1.6844  0.7987
24184SOL    HW290163  13.842  10.322  13.095  0.9123 -1.2232  0.7754
24185SOL     OW90164  11.311   7.857  13.921 -0.2029 -0.0205  0.0679
24185SOL    HW190165  11.378   7.824  13.861  1.2220  1.0036  1.0446
24185SOL    HW290166  11.297   7.785  13.982 -0.7572 -0.6056 -0.7196
24186SOL     OW90167   6.156   0.169  13.982 -0.2816 -0.6623 -0.2725
24186SOL    HW190168   6.189   0.187  13.894  0.7447  0.2372  0.2662
24186SOL    HW290169   6.062   0.162  13.972 -0.2022 -0.3086 -1.4051
24187SOL     OW90170   0.630   2.714  11.107  0.3763  0.3375  0.4067
24187SOL    HW190171   0.572   2.638  11.120  0.3684  0.5785  1.9920
24187SOL    HW290172   0.708   2.677  11.067  1.2372 -0.9634  3.0401
24188SOL     OW90173   1.227   4.581   8.245  0.1538  0.3616  0.0445
24188SOL    HW190174   1.221   4.493   8.281  1.7321  0.0628 -0.3479
24188SOL    HW290175   1.193   4.572   8.156 -1.1492  0.5054  0.5120
24189SOL     OW90176  10.982   4.389  11.766  0.1536 -0.2493 -0.0980
24189SOL    HW190177  11.005   4.331  11.839 -2.1980 -0.7871  0.2976
24189SOL    HW290178  11.066   4.411  11.725  1.2169 -3.4760  0.0831
24190SOL     OW90179  13.522   6.567   6.906 -0.0309  0.5103 -0.4598
24190SOL    HW190180  13.473   6.637   6.949  0.6320  0.7299 -0.0523
24190SOL    HW290181  13.613   6.596   6.909  0.5521 -1.2641  1.5141
24191SOL     OW90182  13.523   6.426  11.833  0.2716 -0.2622 -0.6453
24191SOL    HW190183  13.525   6.331  11.825 -2.1486 -0.3598 -0.7351
24191SOL    HW290184  13.592   6.456  11.773  1.3747 -1.9340 -0.2877
24192SOL     OW90185   9.296   2.936   9.845 -0.1247  0.0351 -0.1450
24192SOL    HW190186   9.265   2.891   9.923 -2.3201  0.6355 -0.6176
24192SOL    HW290187   9.314   2.866   9.782  2.0230 -0.4843  0.9287
24193SOL     OW90188   1.675   1.428   6.370 -0.5074 -0.4723 -0.3142
24193SOL    HW190189   1.605   1.480   6.331  0.0601  0.8059  0.2880
24193SOL    HW290190   1.646   1.337   6.362 -1.7290 -0.0377 -1.0268
24194SOL     OW90191  10.824   2.504  13.845 -0.1903  0.1089  0.0438
24194SOL    HW190192  10.788   2.424  13.807 -0.0428 -0.6048  1.3511
24194SOL    HW290193  10.752   2.567  13.843 -0.2741  0.0001 -1.1026
24195SOL     OW90194  12.183   6.533  10.974  0.2482  0.0147  0.2174
24195SOL    HW190195  12.216   6.609  10.926  0.3465  0.0773  0.3816
24195SOL    HW290196  12.142   6.570  11.052 -0.9688 -0.0116 -0.4002
24196SOL     OW90197   1.820   9.631  13.130 -0.0791 -0.7910 -0.0953
24196SOL    HW190198   1.826   9.687  13.053  0.4605 -1.9661 -0.9456
24196SOL    HW290199   1.838   9.543  13.096 -0.9453 -1.4822  1.1811
24197SOL     OW90200   1.059   0.421  13.882 -0.0568  0.6476 -0.4659
24197SOL    HW190201   1.055   0.335  13.841  0.2715  1.1100 -1.5013
24197SOL    HW290202   1.076   0.403  13.975  1.3290 -0.3611 -0.8903
24198SOL     OW90203   5.560   6.407  13.217 -0.1783  0.1978  0.2618
24198SOL    HW190204   5.593   6.457  13.142 -0.7926  0.9144  0.4696
24198SOL    HW290205   5.506   6.468  13.266  1.1891  0.1255  1.9943
24199SOL     OW90206  10.445  13.609   7.090 -0.0823  0.1335 -0.2419
24199SOL    HW190207  10.528  13.653   7.108  0.0460 -0.4799  0.7079
24199SOL    HW290208  10.383  13.681   7.077  0.5976  0.5997 -1.0274
24200SOL     OW90209   2.883  13.243  11.955  0.6228 -0.1518  0.3748
24200SOL    HW190210   2.880  13.325  12.004  1.6882  0.6857 -0.8830
24200SOL    HW290211   2.817  13.254  11.886  0.2176 -0.6846  0.6709
24201SOL     OW90212   2.644   6.406   4.522 -0.5515  0.3604 -0.0203
24201SOL    HW190213   2.708   6.419   4.592 -1.2654  3.1904  0.2189
24201SOL    HW290214   2.674   6.462   4.451 -1.2568 -0.4404 -0.9745
24202SOL     OW90215  12.911   3.189  13.176 -0.4020  0.3799  0.1221
24202SOL    HW190216  12.990   3.202  13.228 -0.4284  0.1001  0.2317
24202SOL    HW290217  12.942   3.154  13.093 -0.3841  0.5823  0.0422
24203SOL     OW90218   5.565   1.538  11.448  0.6838  0.0528  0.1117
24203SOL    HW190219   5.543   1.561  11.539  3.6869  0.2606  0.9065
24203SOL    HW290220   5.532   1.449  11.437 -0.3922  0.2997  1.1417
24204SOL     OW90221   1.500   1.030   1.220  0.3217  0.1371 -0.4450
24204SOL    HW190222   1.526   1.027   1.128 -0.7768 -2.4462 -0.7676
24204SOL    HW290223   1.439   1.103   1.226  1.4064  1.1641 -1.4287
24205SOL     OW90224  11.589   4.253   1.971 -0.4518 -0.3542 -0.4108
24205SOL    HW190225  11.527   4.300   1.916 -2.4033 -0.6071  1.4251
24205SOL    HW290226  11.654   4.319   1.995 -1.8867  0.8601  0.2853
24206SOL     OW90227   3.849   8.140   9.630  0.1101 -0.0474  0.1980
24206SOL    HW190228   3.839   8.227   9.668  0.8948  1.0177 -1.8349
24206SOL    HW290229   3.786   8.138   9.558  0.0242 -1.2084  0.2885
24207SOL     OW90230   7.011   5.884   4.702 -0.4656  0.5550 -0.1885
24207SOL    HW190231   7.076   5.905   4.770 -1.2673  4.7602 -0.4605
24207SOL    HW290232   6.939   5.843   4.750  0.9501 -1.2160  0.5900
24208SOL     OW90233   3.738   9.604  13.072  0.6765  0.4121  0.2282
24208SOL    HW190234   3.654   9.629  13.110  0.5209  0.0069  0.1512
24208SOL    HW290235   3.749   9.663  12.997 -1.5306 -2.2093 -2.3585
24209SOL     OW90236  12.268  10.171  11.153  0.0735 -0.3828  0.0514
24209SOL    HW190237  12.174  10.153  11.157  0.0811 -0.6867 -0.9490
24209SOL    HW290238  12.295  10.177  11.245 -0.8776 -0.5122  0.3497
24210SOL     OW90239   8.341   8.880   5.148  0.5660 -0.7114  0.3604
24210SOL    HW190240   8.339   8.896   5.054 -0.1511 -0.6073  0.3827
24210SOL    HW290241   8.433   8.865   5.168  0.9380  0.7625 -0.1081
24211SOL     OW90242   3.455   8.512  11.625 -0.8582  0.4960  0.1127
24211SOL    HW190243   3.394   8.577  11.591 -1.3558 -0.7564 -1.5398
24211SOL    HW290244   3.509   8.488  11.549  0.9000  0.6986  1.2578
24212SOL     OW90245   6.608  11.041   6.631  0.1771  0.1993 -0.2547
24212SOL    HW190246   6.584  11.010   6.719  1.7312  2.6526  1.1369
24212SOL    HW290247   6.549  11.115   6.615 -0.2099 -0.3315 -1.4030
24213SOL     OW90248   3.057   7.928   0.937  0.5665  0.9544 -0.1941
24213SOL    HW190249   3.144   7.967   0.943 -0.4418  3.1412  2.0211
24213SOL    HW290250   3.005   7.994   0.891 -0.3458  0.5546  0.2342
24214SOL     OW90251  10.136  10.754   1.481  0.0849 -0.2053 -0.1417
24214SOL    HW190252  10.218  10.800   1.465  1.1105 -0.9527  2.3713
24214SOL    HW290253  10.150  10.667   1.444 -0.1590  0.1349 -1.0376
24215SOL     OW90254  11.954   2.504  11.430  0.2013  0.0931 -0.3490
24215SOL    HW190255  11.929   2.580  11.376  1.1238  1.2731  0.8039
24215SOL    HW290256  11.873   2.454  11.441 -0.3952  0.8222 -1.2762
24216SOL     OW90257   1.348  13.304   3.939  0.0114 -0.1344 -0.0458
24216SOL    HW190258   1.433  13.272   3.969  0.4939  1.0061 -0.1106
24216SOL    HW290259   1.367  13.348   3.856 -0.4345  1.0276  0.4328
24217SOL     OW90260   7.353  13.086  12.649  0.2212  0.0284 -0.9488
24217SOL    HW190261   7.323  13.164  12.601  1.7290 -0.4403 -2.7660
24217SOL    HW290262   7.338  13.108  12.741  0.1010  2.2555 -1.4354
24218SOL     OW90263   3.688  11.264   9.869 -0.0956  0.5412  0.4386
24218SOL    HW190264   3.622  11.290   9.805 -0.2348 -2.9010 -1.0038
24218SOL    HW290265   3.647  11.194   9.919  1.8875 -0.6165  0.5488
24219SOL     OW90266   9.497   8.869   0.597  0.3002 -0.1786 -0.2435
24219SOL    HW190267   9.426   8.930   0.577 -0.6697 -0.7235  1.3334
24219SOL    HW290268   9.474   8.789   0.549 -1.5911 -1.2183  2.2114
24220SOL     OW90269  10.923   3.649   8.443 -0.2952  0.2914 -0.2060
24220SOL    HW190270  10.947   3.558   8.428  1.0740  0.7933 -1.3913
24220SOL    HW290271  10.960   3.696   8.368 -0.6846  1.8592  0.5334
24221SOL     OW90272  11.941  13.446  13.744 -0.0986  0.5551 -0.3853
24221SOL    HW190273  11.869  13.417  13.688  0.3141 -0.8083 -0.2553
24221SOL    HW290274  11.974  13.525  13.702 -0.1785 -0.1056 -1.7421
24222SOL     OW90275   4.876   9.484   5.810 -0.9132 -0.8150  0.6470
24222SOL    HW190276   4.934   9.548   5.851 -1.5120 -1.3631  2.4523
24222SOL    HW290277   4.799   9.534   5.783  0.2588 -0.1179 -1.5946
24223SOL     OW90278   8.429   0.175   1.621  0.3396  0.2620 -0.4918
24223SOL    HW190279   8.351   0.230   1.618  1.5802  2.0383 -1.8196
24223SOL    HW290280   8.398   0.088   1.596 -1.5810  0.3816  1.1715
24224SOL     OW90281   1.059  11.575   6.484  0.8061 -0.4414 -0.3078
24224SOL    HW190282   1.006  11.653   6.498 -1.4054 -2.0195  0.6802
24224SOL    HW290283   1.009  11.523   6.421  2.2956 -1.0326 -1.0495
24225SOL     OW90284   0.952   9.812  13.056 -0.1544  0.2034 -0.0220
24225SOL    HW190285   0.940   9.859  12.973  0.8578  1.4694  0.5258
24225SOL    HW290286   0.995   9.875  13.114  0.7121 -1.2040  0.9349
24226SOL     OW90287   8.059   8.316   3.168  0.0007 -0.2356  0.0030
24226SOL    HW190288   8.134   8.369   3.140 -1.5643  1.9751 -0.2240
24226SOL    HW290289   8.093   8.226   3.169  2.3549  0.5531 -1.0810
24227SOL     OW90290   1.557  13.651   9.344  0.0362 -0.2645 -0.2027
24227SOL    HW190291   1.545  13.706   9.267 -0.6354  0.6216  0.5175
24227SOL    HW290292   1.468  13.629   9.372  0.2869 -1.5248 -0.3276
24228SOL     OW90293   3.268   1.136  11.456 -0.6201 -0.4174  0.3350
24228SOL    HW190294   3.208   1.191  11.506 -0.8005 -0.7900  0.5338
24228SOL    HW290295   3.261   1.049  11.496 -0.2213 -0.5514  0.1264
24229SOL     OW90296   9.231   7.887  12.713  0.2549 -0.3374 -0.2234
24229SOL    HW190297   9.157   7.826  12.710  1.7745 -2.4361  1.4769
24229SOL    HW290298   9.309   7.831  12.715  1.8292  1.7144  0.1573
24230SOL     OW90299   2.954   4.405   6.234 -0.1034 -0.4236  0.1632
24230SOL    HW190300   2.897   4.448   6.171  1.6404 -0.8720 -1.8415
24230SOL    HW290301   3.036   4.454   6.228  1.7959 -3.4875 -1.8085
24231SOL     OW90302  10.049   8.800  12.955 -0.2354  0.1115  0.3290
24231SOL    HW190303  10.037   8.785  13.049  0.5244  0.0049  0.4202
24231SOL    HW290304  10.047   8.895  12.946 -0.1154  0.1300  0.4831
24232SOL     OW90305   6.078  10.858   1.137  0.2855  0.5312  0.0528
24232SOL    HW190306   6.113  10.785   1.188  0.4432  0.6554  0.1254
24232SOL    HW290307   5.983  10.851   1.146  0.2679 -0.1783 -0.6686
24233SOL     OW90308   7.904   7.417   8.189 -0.0880 -0.3761 -0.6356
24233SOL    HW190309   7.977   7.448   8.244 -0.2860 -0.8565 -0.0994
24233SOL    HW290310   7.914   7.322   8.188 -1.7419 -0.6222  0.9292
24234SOL     OW90311   1.856   9.141   1.187 -0.2461  0.5922  0.0589
24234SOL    HW190312   1.923   9.169   1.250 -1.1057 -0.6294  1.5722
24234SOL    HW290313   1.896   9.158   1.102  1.8110  0.3305  0.9068
24235SOL     OW90314   4.280   9.598   7.755 -0.0205 -0.2983 -0.0123
24235SOL    HW190315   4.294   9.563   7.667 -3.2244 -2.1515  0.0404
24235SOL    HW290316   4.221   9.672   7.743  0.0009 -0.1879  0.5319
24236SOL     OW90317   6.710   6.928  12.683 -0.0697  0.8341 -0.1518
24236SOL    HW190318   6.628   6.919  12.635 -0.1780  0.3209  0.1189
24236SOL    HW290319   6.743   6.839  12.691  0.1024  0.9457  0.4449
24237SOL     OW90320   9.078   8.827  13.365  0.2322 -0.0382  0.0541
24237SOL    HW190321   9.095   8.734  13.356  0.2598  0.0181 -0.4869
24237SOL    HW290322   9.002   8.843  13.310 -2.2095 -0.4414  3.0294
24238SOL     OW90323   8.909   6.529   7.918 -0.2959 -0.0101  0.0445
24238SOL    HW190324   8.892   6.623   7.927  0.1738 -0.0187  1.0857
24238SOL    HW290325   8.964   6.523   7.840  2.6604  0.9866  1.8981
24239SOL     OW90326   9.766   2.937   1.468  0.3583 -0.7552  0.3577
24239SOL    HW190327   9.754   2.858   1.520  2.0286 -1.2746  0.0348
24239SOL    HW290328   9.851   2.971   1.497  0.8975 -0.5634 -1.3530
24240SOL     OW90329   3.957   3.298  12.747  0.3585 -0.2046 -0.1965
24240SOL    HW190330   4.008   3.377  12.734 -0.4868  0.1888 -1.2575
24240SOL    HW290331   4.011   3.228  12.710  2.0508 -0.5237  2.5832
24241SOL     OW90332  12.630   2.304  12.548  0.0425 -0.2367  0.1244
24241SOL    HW190333  12.699   2.369  12.561 -0.3002  0.0610  0.4688
24241SOL    HW290334  12.677   2.221  12.536  0.6086  0.3600 -2.5573
24242SOL     OW90335   0.758  11.207   1.140 -0.0632 -0.1344 -0.1415
24242SOL    HW190336   0.700  11.213   1.063  2.1995 -1.6855 -2.1224
24242SOL    HW290337   0.767  11.297   1.171 -1.2012  0.5158 -1.5843
24243SOL     OW90338  10.971  10.476   8.340  0.0844 -0.0044  0.3548
24243SOL    HW190339  11.002  10.395   8.380  0.2470  0.3967  1.0701
24243SOL    HW290340  11.050  10.526   8.320  0.1419 -1.0437 -2.4205
24244SOL     OW90341   5.027   0.385   0.081 -0.0848 -0.2055 -0.2733
24244SOL    HW190342   5.067   0.344   0.004  0.5691  1.8157 -1.0585
24244SOL    HW290343   5.100   0.429   0.125 -0.7925  0.2718  0.4342
24245SOL     OW90344   2.768  12.703   9.740  0.0397 -0.6833 -0.3506
24245SOL    HW190345   2.823  12.673   9.811 -0.8600 -0.2645  0.5460
24245SOL    HW290346   2.722  12.779   9.775  1.2488  0.9608 -2.1136
24246SOL     OW90347   0.450   5.458   4.387 -0.3760  0.0630  0.2868
24246SOL    HW190348   0.398   5.381   4.367 -2.8672  1.4920  0.7903
24246SOL    HW290349   0.505   5.432   4.461 -1.8970 -0.9633  1.1055
24247SOL     OW90350   4.909   8.562  12.959  0.5270 -0.0451 -0.0842
24247SOL    HW190351   4.951   8.557  12.873  1.2021 -1.7256  0.3016
24247SOL    HW290352   4.822   8.525  12.945 -0.3879  2.1306 -0.5727
24248SOL     OW90353   5.685   2.100   8.487 -0.1057  0.6087 -0.3260
24248SOL    HW190354   5.762   2.108   8.543  0.3630 -1.9033 -0.5049
24248SOL    HW290355   5.685   2.009   8.459  0.1642  1.8563 -5.1409
24249SOL     OW90356   0.047   2.181  11.976  0.4172  0.0605  0.2107
24249SOL    HW190357   0.016   2.271  11.971 -2.6862 -0.9043  0.4233
24249SOL    HW290358   0.062   2.165  12.069 -2.4576 -0.6172  0.6294
24250SOL     OW90359   4.835   2.349   6.857 -0.4477  0.4223  0.1453
24250SOL    HW190360   4.770   2.387   6.916 -0.0180 -0.4778  1.2367
24250SOL    HW290361   4.783   2.296   6.796 -0.8736  1.1768 -0.1678
24251SOL     OW90362   2.020   0.288  12.527  0.4898 -0.6497  0.3719
24251SOL    HW190363   2.085   0.239  12.578  0.2531 -0.7535  0.5731
24251SOL    HW290364   1.957   0.223  12.498  0.2500 -0.4874  0.5222
24252SOL     OW90365   5.639  10.719   2.338 -0.3652 -0.7255  0.5812
24252SOL    HW190366   5.725  10.745   2.307 -0.4422 -0.3338  0.6906
24252SOL    HW290367   5.613  10.788   2.400 -1.1289 -0.3763 -0.1142
24253SOL     OW90368  13.457  13.949  13.898 -0.3105 -0.0272 -0.0279
24253SOL    HW190369  13.452  13.883  13.968  0.8425  0.4845  0.5661
24253SOL    HW290370  13.527  13.918  13.841 -1.8423 -0.9105 -1.4988
24254SOL     OW90371   6.693   9.275  11.682  0.2952 -0.9462 -0.3982
24254SOL    HW190372   6.661   9.234  11.602  0.2210 -2.5417  0.4173
24254SOL    HW290373   6.623   9.262  11.746  0.9242 -0.9309  0.3077
24255SOL     OW90374   7.102  11.188   8.347  0.2804  0.2651  0.0534
24255SOL    HW190375   7.008  11.192   8.368  0.1266 -1.1147 -0.2660
24255SOL    HW290376   7.141  11.143   8.422  0.1516 -2.1699 -1.2659
24256SOL     OW90377  12.542   1.510   5.023  0.3053 -0.3906 -0.5939
24256SOL    HW190378  12.450   1.535   5.017 -0.1302 -1.8067 -0.3294
24256SOL    HW290379  12.585   1.558   4.952 -0.6313  0.3118 -0.6989
24257SOL     OW90380   1.703   8.839   8.538  0.1028 -0.3477  0.0609
24257SOL    HW190381   1.729   8.856   8.629  0.9612  0.9277 -0.3916
24257SOL    HW290382   1.779   8.796   8.498 -0.6593 -1.8949  0.1853
24258SOL     OW90383   6.078   0.419   8.843 -0.3170 -0.3258 -0.0561
24258SOL    HW190384   6.108   0.471   8.768  0.2392  0.1919  0.5198
24258SOL    HW290385   5.994   0.384   8.815 -0.3691  0.3084 -0.7228
24259SOL     OW90386   0.505   4.797   6.229  0.4775  0.2088  0.1517
24259SOL    HW190387   0.598   4.774   6.232  0.1557 -1.3212 -0.8378
24259SOL    HW290388   0.504   4.891   6.248  2.2387  0.3106 -0.0330
24260SOL     OW90389   7.392  12.507   1.674  0.1180  0.1707  0.0533
24260SOL    HW190390   7.458  12.514   1.743  0.3025 -0.4009 -0.0619
24260SOL    HW290391   7.344  12.427   1.695  0.2294 -0.0484 -0.5324
24261SOL     OW90392   5.815  12.972   8.799 -0.3969  0.2441  0.7590
24261SOL    HW190393   5.783  12.955   8.710  0.8548  2.6683 -0.2511
24261SOL    HW290394   5.910  12.964   8.792 -0.1393  2.2987  1.3704
24262SOL     OW90395  12.671  10.967   2.198  0.9560  0.5363  0.5483
24262SOL    HW190396  12.757  10.926   2.185  0.2672 -0.7116 -0.2429
24262SOL    HW290397  12.610  10.912   2.149  0.1474  3.3295 -1.8751
24263SOL     OW90398   7.486   7.218   8.790 -0.5345 -0.1633  0.2236
24263SOL    HW190399   7.416   7.284   8.795 -0.9153 -0.5490 -0.0093
24263SOL    HW290400   7.565   7.267   8.812 -1.1682 -0.2406  3.1152
24264SOL     OW90401  10.711   5.359   8.354  0.4528  0.1598 -0.1099
24264SOL    HW190402  10.733   5.421   8.285 -1.1892 -1.5639 -2.3441
24264SOL    HW290403  10.757   5.278   8.329 -2.1058 -1.2344 -0.6760
24265SOL     OW90404   1.587   2.847   5.800  0.8243  0.5327  0.8802
24265SOL    HW190405   1.549   2.880   5.881 -2.8892  0.5518 -0.6977
24265SOL    HW290406   1.613   2.757   5.820 -1.3055  0.0720  1.7901
24266SOL     OW90407   3.722   0.909  11.179  0.3838  0.0265  0.2436
24266SOL    HW190408   3.693   0.834  11.128  1.1297 -0.6934  0.8439
24266SOL    HW290409   3.787   0.873  11.240  0.4749  1.0882  0.8024
24267SOL     OW90410  10.271   0.597  12.401  0.3657 -0.3566 -0.2045
24267SOL    HW190411  10.320   0.668  12.359 -0.7237 -0.2811 -1.4045
24267SOL    HW290412  10.335   0.526  12.410  1.6828  0.9762  1.6921
24268SOL     OW90413  10.266   3.239  13.149  0.2695 -0.4415  0.0279
24268SOL    HW190414  10.305   3.268  13.067 -2.5522  0.2317 -1.2139
24268SOL    HW290415  10.219   3.159  13.126 -1.8028  0.5595  0.5345
24269SOL     OW90416   4.439  13.976  13.491  0.0638 -0.2072 -0.3749
24269SOL    HW190417   4.504  13.922  13.447  0.3547  0.5212 -0.8600
24269SOL    HW290418   4.435  13.940  13.580 -0.0873 -1.2997 -0.8079
24270SOL     OW90419   5.374  11.805   8.069  0.0865  0.1333  0.3403
24270SOL    HW190420   5.309  11.870   8.097  0.4606  0.5927  0.1572
24270SOL    HW290421   5.380  11.744   8.143  0.5576  0.9453  0.9984
24271SOL     OW90422   3.009   6.246   3.317  0.1496  0.1121 -0.6361
24271SOL    HW190423   3.034   6.177   3.379 -1.4370 -0.5472 -0.6717
24271SOL    HW290424   2.998   6.200   3.233 -0.7724  0.4064 -0.6896
24272SOL     OW90425   6.074   1.453  10.445  0.0801 -0.4319  0.0123
24272SOL    HW190426   6.115   1.389  10.504 -1.1141 -1.3339 -0.1040
24272SOL    HW290427   6.144   1.477  10.385  0.5434 -1.7286 -0.0153
24273SOL     OW90428  13.119  12.494  13.827 -0.1866 -0.1490  0.7520
24273SOL    HW190429  13.117  12.525  13.736  0.0492  0.8189  1.0648
24273SOL    HW290430  13.044  12.435  13.834 -1.5862  1.5526  0.5581
24274SOL     OW90431   1.560  10.476   7.853 -0.2900 -0.8042  0.0560
24274SOL    HW190432   1.597  10.388   7.838  3.7765  0.9747 -2.0395
24274SOL    HW290433   1.596  10.503   7.937 -3.3541 -1.7884  1.8216
24275SOL     OW90434   6.999   6.470   5.363  0.6192  0.0614 -0.3687
24275SOL    HW190435   6.999   6.471   5.267  0.4264 -1.0541 -0.3952
24275SOL    HW290436   6.910   6.441   5.386  0.8849 -0.3715  0.1222
24276SOL     OW90437   4.199   8.805   2.377  0.2699  0.1153 -0.1881
24276SOL    HW190438   4.282   8.826   2.333  0.5590 -2.0277 -0.8157
24276SOL    HW290439   4.166   8.889   2.409  2.6392  1.0496  0.0015
24277SOL     OW90440   6.139   4.577  11.578 -0.1895 -0.1966 -0.6029
24277SOL    HW190441   6.087   4.542  11.650 -2.0992  1.9507 -0.8295
24277SOL    HW290442   6.162   4.501  11.525  2.6127 -2.1070  2.9600
24278SOL     OW90443   9.413   1.464   5.990 -0.3179 -0.2192 -0.9806
24278SOL    HW190444   9.351   1.394   5.969 -2.0891  0.7716  0.6503
24278SOL    HW290445   9.473   1.424   6.054 -1.5171 -0.2257  0.1959
24279SOL     OW90446  12.542   2.913   1.611 -0.4460  0.5071  0.1250
24279SOL    HW190447  12.624   2.896   1.656 -0.3898 -1.4140 -0.6288
24279SOL    HW290448  12.474   2.901   1.678 -0.2100  0.6130  0.3841
24280SOL     OW90449  10.717  14.002   4.764  0.3471 -0.0458 -0.2308
24280SOL    HW190450  10.682  14.008   4.675  0.8315 -1.5248 -0.5499
24280SOL    HW290451  10.693  13.914   4.793 -1.2392  0.9594  1.7530
24281SOL     OW90452   0.105   5.385   0.072 -0.1212  0.1370  0.4615
24281SOL    HW190453   0.190   5.343   0.073 -0.2070 -0.0332  0.8295
24281SOL    HW290454   0.064   5.359   0.155  0.5087  2.3181  1.5542
24282SOL     OW90455   6.285  12.487   8.078 -0.4470 -0.5633  0.7987
24282SOL    HW190456   6.343  12.516   8.148  0.9345 -0.4701 -0.3497
24282SOL    HW290457   6.214  12.552   8.077  0.1266  0.0800  1.3419
24283SOL     OW90458   8.542   7.763   0.262  0.3186 -0.6774  0.4430
24283SOL    HW190459   8.540   7.668   0.267 -0.3833 -0.6896  0.0534
24283SOL    HW290460   8.570   7.791   0.349 -3.2268 -1.1274  1.9098
24284SOL     OW90461  13.524  12.682   2.818  0.0773 -0.0896  0.2181
24284SOL    HW190462  13.506  12.774   2.804  1.8668  0.8357  3.0668
24284SOL    HW290463  13.598  12.662   2.760 -1.1770 -0.1872 -1.4152
24285SOL     OW90464   5.345   7.988   2.836 -0.4124  0.4696  0.0073
24285SOL    HW190465   5.320   7.912   2.888 -0.9429  0.1112 -0.7441
24285SOL    HW290466   5.385   7.951   2.757 -0.1255  0.9844 -0.0932
24286SOL     OW90467  12.130   1.532   1.283 -0.1711  0.4908  0.1833
24286SOL    HW190468  12.074   1.599   1.322 -0.2699  0.3635  0.2660
24286SOL    HW290469  12.068   1.469   1.245 -0.0674  0.9840 -0.8347
24287SOL     OW90470   5.726   4.958   0.558 -0.4858 -0.1240 -0.2698
24287SOL    HW190471   5.809   4.911   0.549  0.6413  1.3261  1.6454
24287SOL    HW290472   5.679   4.939   0.477  2.2588  0.0490 -2.0637
24288SOL     OW90473  11.389  10.965   1.682 -0.4364  0.2177 -0.8001
24288SOL    HW190474  11.308  10.952   1.732 -0.4753 -0.4512 -1.0183
24288SOL    HW290475  11.454  10.913   1.730  0.3082  2.1452  0.3930
24289SOL     OW90476   6.980   1.852   6.368  0.2181 -0.4187 -1.0317
24289SOL    HW190477   6.948   1.848   6.458  0.9231  1.2390 -0.6660
24289SOL    HW290478   6.946   1.934   6.334  1.9647  0.1888 -1.4371
24290SOL     OW90479   1.329   8.365   1.591  0.2696 -0.2028 -0.3917
24290SOL    HW190480   1.422   8.350   1.571 -0.4726 -0.5085 -4.3897
24290SOL    HW290481   1.282   8.329   1.515 -3.2042 -0.5175  1.7119
24291SOL     OW90482   4.064  13.880   7.884 -0.0371  0.2678 -0.1692
24291SOL    HW190483   4.114  13.885   7.803  1.5262 -1.2554  0.6312
24291SOL    HW290484   4.093  13.956   7.935 -0.1874  0.6040 -0.5869
24292SOL     OW90485   2.754  12.218   4.604 -0.0243 -0.0850 -0.1467
24292SOL    HW190486   2.838  12.237   4.647 -1.2711  1.7763  1.6584
24292SOL    HW290487   2.718  12.304   4.582 -1.3633 -0.8495 -1.1259
24293SOL     OW90488   3.751   4.290   7.001 -0.0981 -0.4360 -0.3600
24293SOL    HW190489   3.665   4.320   6.971  1.3130  4.3779 -0.5017
24293SOL    HW290490   3.800   4.275   6.920  0.0307 -0.1585 -0.3359
24294SOL     OW90491   8.039  10.276   3.457 -0.2970  0.2220 -0.8688
24294SOL    HW190492   8.011  10.197   3.505 -1.8379 -0.0481 -2.1300
24294SOL    HW290493   8.123  10.251   3.418  0.8614  0.3499  1.3523
24295SOL     OW90494  13.913  11.722   5.555  0.2522  0.3051  0.1837
24295SOL    HW190495  13.818  11.721   5.541  0.5125  2.1196 -2.5035
24295SOL    HW290496  13.947  11.661   5.490  0.9481 -0.5735  1.3417
24296SOL     OW90497   1.329   7.535   9.222 -0.4663 -0.3552  0.1185
24296SOL    HW190498   1.348   7.614   9.272 -1.5680 -1.3587  2.2299
24296SOL    HW290499   1.414   7.493   9.211 -0.1995 -0.1334  1.2248
24297SOL     OW90500  12.894   7.559  11.839  0.2595  0.0716 -0.3074
24297SOL    HW190501  12.980   7.553  11.798  0.4063  1.8542 -0.3530
24297SOL    HW290502  12.885   7.652  11.861 -1.5140 -0.1407 -0.0034
24298SOL     OW90503   7.196  13.835   0.080 -0.1796 -0.0643  0.0133
24298SOL    HW190504   7.107  13.853   0.112 -0.4804 -0.3739 -0.6412
24298SOL    HW290505   7.186  13.760   0.023  0.5941 -0.4163  0.3312
24299SOL     OW90506   1.049  12.557  11.819 -0.3594  0.7348  0.4844
24299SOL    HW190507   1.022  12.513  11.739 -1.1777 -0.8817  1.5997
24299SOL    HW290508   0.976  12.615  11.841 -0.9131 -0.1402  0.9903
24300SOL     OW90509   9.449   2.028   4.445  0.4910  0.6403  0.0706
24300SOL    HW190510   9.396   1.948   4.453  1.3346 -0.0694 -1.0019
24300SOL    HW290511   9.534   1.997   4.413  0.7302  1.9966 -0.7051
24301SOL     OW90512  11.816   0.663   0.022 -0.1053 -0.0588  0.2131
24301SOL    HW190513  11.833   0.631   0.111  1.9267 -0.5924 -0.3086
24301SOL    HW290514  11.783   0.752   0.034 -1.0130 -0.5339  1.5177
24302SOL     OW90515  13.361   4.364   4.175  0.2728  0.4098 -0.2112
24302SOL    HW190516  13.439   4.338   4.125  1.0241 -0.0384  1.1387
24302SOL    HW290517  13.392   4.372   4.265 -1.1452  0.7392  0.2705
24303SOL     OW90518   7.087   3.034  10.786  0.6590  0.0961 -0.3953
24303SOL    HW190519   7.054   3.106  10.840 -0.6101 -0.5834 -0.2249
24303SOL    HW290520   7.009   2.990  10.754  1.4010 -1.6370  0.0795
24304SOL     OW90521   7.657  10.198   0.954  0.0584 -0.3846  0.0459
24304SOL    HW190522   7.622  10.135   1.018 -3.1579  0.0908 -1.0904
24304SOL    HW290523   7.585  10.214   0.894  1.7712  2.0774 -1.5274
24305SOL     OW90524   1.261   0.002  13.519  0.0737 -0.1291  0.1903
24305SOL    HW190525   1.183  -0.051  13.537  0.3341 -0.2597  0.9604
24305SOL    HW290526   1.229   0.092  13.517 -0.4098 -0.2985 -1.3326
24306SOL     OW90527   2.424   9.193  12.266  0.2357  0.5724 -0.3637
24306SOL    HW190528   2.357   9.198  12.335 -0.1316  0.7436 -0.7279
24306SOL    HW290529   2.507   9.187  12.313 -0.0308  0.4396  0.0950
24307SOL     OW90530  10.384   7.586   1.097  0.0974  0.3042  0.4492
24307SOL    HW190531  10.298   7.599   1.056  1.2368 -0.7651 -2.6219
24307SOL    HW290532  10.387   7.493   1.117  1.0706  0.0117 -0.9428
24308SOL     OW90533   4.383   1.555   6.603 -0.4077  0.3000  0.1466
24308SOL    HW190534   4.365   1.619   6.534  0.2691 -1.3477 -1.6645
24308SOL    HW290535   4.474   1.571   6.627  0.2198 -0.7827 -1.3127
24309SOL     OW90536   5.967   0.365   4.426  0.3514  0.2323  0.1384
24309SOL    HW190537   6.036   0.329   4.370  0.4965  0.7951 -0.0560
24309SOL    HW290538   5.886   0.338   4.384  0.4581  0.2500 -0.0793
24310SOL     OW90539   1.460   5.649  14.081  0.2308 -0.0025 -0.1356
24310SOL    HW190540   1.543   5.658  14.127 -0.2869 -1.3271  1.1390
24310SOL    HW290541   1.396   5.689  14.140 -0.3135 -0.8560 -0.1297
24311SOL     OW90542   2.042  10.663   8.969  0.1259  0.4852  0.2576
24311SOL    HW190543   2.063  10.746   9.010  2.4710  0.7906 -1.3486
24311SOL    HW290544   1.971  10.684   8.907 -0.4623  0.9004  1.0623
24312SOL     OW90545   2.192  13.037   8.222  0.6079  0.2700  0.7671
24312SOL    HW190546   2.280  13.006   8.245  0.2136 -0.4613  1.3229
24312SOL    HW290547   2.176  13.000   8.135  0.9239  0.5785  0.5722
24313SOL     OW90548   1.227  13.579   2.164  0.3250  1.0953 -0.4442
24313SOL    HW190549   1.307  13.629   2.177  0.3936  0.7849  0.4081
24313SOL    HW290550   1.188  13.572   2.251 -0.1985  0.5340 -0.7112
24314SOL     OW90551  10.833  11.704  13.771  0.2727 -0.1328  0.4332
24314SOL    HW190552  10.754  11.724  13.720 -0.7665 -0.7057  1.7779
24314SOL    HW290553  10.898  11.766  13.738  0.1486 -1.4759 -2.6899
24315SOL     OW90554  12.250  11.267   0.325  0.2520  0.0342 -0.1897
24315SOL    HW190555  12.307  11.216   0.382  1.7847  1.6849 -0.1521
24315SOL    HW290556  12.219  11.205   0.260  4.1265 -0.5369 -1.7340
24316SOL     OW90557   9.594   0.744   9.681 -0.3006  0.3014 -0.1613
24316SOL    HW190558   9.542   0.669   9.710  0.7423  0.0049  1.0444
24316SOL    HW290559   9.666   0.706   9.630 -1.4224  0.7355 -2.1776
24317SOL     OW90560   6.083   7.075  13.351  0.1682 -0.4122  0.6882
24317SOL    HW190561   6.112   7.090  13.441 -0.8118 -0.9769  1.1211
24317SOL    HW290562   6.103   6.984  13.333 -0.6277 -0.6096  0.7393
24318SOL     OW90563   3.920  14.044   0.443 -0.3415  0.1524 -0.0658
24318SOL    HW190564   3.925  14.034   0.538 -1.1691  0.7983  0.0596
24318SOL    HW290565   3.849  13.984   0.417 -1.3425  1.2863 -0.0356
24319SOL     OW90566   9.639   2.887  11.974  0.2961  0.4794 -0.2853
24319SOL    HW190567   9.553   2.845  11.982  0.5279  0.1577  0.7477
24319SOL    HW290568   9.639   2.927  11.887 -1.8038  2.4878  0.5414
24320SOL     OW90569   3.837   0.400   2.595  0.1271  0.6098 -0.0773
24320SOL    HW190570   3.902   0.347   2.640  0.2045  0.9603  0.2315
24320SOL    HW290571   3.756   0.349   2.601 -0.0371  0.9732  1.1076
24321SOL     OW90572   4.946   5.141   0.652  0.1343  0.1155 -0.0956
24321SOL    HW190573   5.007   5.113   0.583 -1.7912 -0.6757 -1.5473
24321SOL    HW290574   4.912   5.226   0.622 -0.6308 -0.1761 -0.0671
24322SOL     OW90575   5.277   3.775  13.519  0.2645 -0.0427 -0.0141
24322SOL    HW190576   5.200   3.752  13.571  0.5606  0.8748  0.8667
24322SOL    HW290577   5.321   3.842  13.571  0.0515  1.6487 -1.9245
24323SOL     OW90578   7.455  13.393   3.949 -0.1578  0.5240 -0.2149
24323SOL    HW190579   7.377  13.425   3.904  0.4661  1.1734 -0.8584
24323SOL    HW290580   7.491  13.327   3.891  0.4741  1.1378 -0.5313
24324SOL     OW90581   7.720   4.845   4.809  0.0323 -0.0090 -0.1180
24324SOL    HW190582   7.683   4.779   4.868 -1.1136  0.2784 -0.4871
24324SOL    HW290583   7.708   4.809   4.722  1.6601 -0.4005 -0.2009
24325SOL     OW90584   6.000   2.675   0.043 -0.0657 -0.7519  0.1683
24325SOL    HW190585   5.934   2.650   0.107  0.2778 -0.9279  0.4509
24325SOL    HW290586   5.951   2.726  -0.022  0.2043  2.7322  2.4721
24326SOL     OW90587   1.141   2.877   8.530 -0.6099  0.0149 -0.0749
24326SOL    HW190588   1.197   2.817   8.579 -1.4779 -0.3364  0.4949
24326SOL    HW290589   1.056   2.872   8.573 -1.3588 -0.1871 -1.5149
24327SOL     OW90590   7.937   9.686   2.293  0.1195 -0.2498  0.3317
24327SOL    HW190591   7.842   9.690   2.302  0.1637 -0.7024  1.1423
24327SOL    HW290592   7.970   9.699   2.382  0.8204 -0.0390  0.0482
24328SOL     OW90593  11.903   3.314  10.386 -0.0929  0.1662 -0.0959
24328SOL    HW190594  11.890   3.409  10.376  1.4290  0.3572 -0.5187
24328SOL    HW290595  11.994   3.306  10.414 -0.4596 -1.1417  0.7622
24329SOL     OW90596  12.634  11.493   6.952  0.0386 -0.0299  0.5683
24329SOL    HW190597  12.716  11.542   6.943 -0.0497  0.3157  1.4934
24329SOL    HW290598  12.569  11.561   6.971 -0.5751 -0.2407 -0.6775
24330SOL     OW90599  11.064  14.009   8.798 -0.6673  0.1450 -0.2897
24330SOL    HW190600  11.064  14.095   8.757 -0.5624  1.6617  2.6515
24330SOL    HW290601  11.004  14.017   8.872  0.2975 -1.8920  0.8153
24331SOL     OW90602   2.101   0.306   6.093  0.0835 -0.0020 -0.0703
24331SOL    HW190603   2.145   0.359   6.159 -2.2289 -0.3806  1.8889
24331SOL    HW290604   2.113   0.355   6.011  1.2096  1.5804  0.9870
24332SOL     OW90605   9.562   9.314   0.188 -0.4664 -0.0281  0.0365
24332SOL    HW190606   9.585   9.340   0.099  0.8470  1.9595  0.8612
24332SOL    HW290607   9.646   9.315   0.235 -1.2224 -0.3456  1.4529
24333SOL     OW90608  12.676   1.505  10.941  0.2227  0.2572  0.1491
24333SOL    HW190609  12.760   1.479  10.979 -0.8218 -1.0415  1.7027
24333SOL    HW290610  12.611   1.468  11.000 -1.4572  2.8062  0.0289
24334SOL     OW90611   4.089   1.996   1.886  0.1697  0.2613 -0.2498
24334SOL    HW190612   4.052   2.070   1.838  0.7233  0.0020 -1.1110
24334SOL    HW290613   4.041   1.920   1.853  2.8164 -0.3874 -3.0448
24335SOL     OW90614   2.489   1.238   5.281  0.0336 -0.4519  0.0861
24335SOL    HW190615   2.545   1.302   5.325  0.7940 -0.2821 -1.0797
24335SOL    HW290616   2.404   1.280   5.276 -0.4191 -0.9605  2.4402
24336SOL     OW90617   9.594   2.955   2.374 -0.1734 -0.1660 -0.2325
24336SOL    HW190618   9.553   2.996   2.451 -0.2542  0.7785 -0.7638
24336SOL    HW290619   9.580   3.018   2.303 -1.9301 -1.9299 -1.5438
24337SOL     OW90620  12.332  12.082  10.487  0.5348  0.8292  0.1390
24337SOL    HW190621  12.360  11.993  10.467 -0.3101  0.7457 -0.8014
24337SOL    HW290622  12.374  12.103  10.570  1.3356 -0.1710  0.0061
24338SOL     OW90623   3.273  11.929   3.179  0.1664 -0.2162  0.7589
24338SOL    HW190624   3.329  11.997   3.215 -0.2684  0.3015  0.4721
24338SOL    HW290625   3.307  11.848   3.217  1.8938 -0.0720 -0.3668
24339SOL     OW90626   4.274   1.820   1.360 -0.4432 -0.3317 -0.0019
24339SOL    HW190627   4.320   1.739   1.380 -0.0238 -0.0491  0.1996
24339SOL    HW290628   4.277   1.870   1.441  0.3994  0.4044 -0.4579
24340SOL     OW90629   1.890   1.583   7.070  0.0185 -0.3254 -0.6529
24340SOL    HW190630   1.822   1.527   7.032 -0.9960 -0.1878  0.8717
24340SOL    HW290631   1.911   1.542   7.154  0.5966  0.5758 -0.3415
24341SOL     OW90632   9.194   9.753   5.026  0.0930  0.7629  0.9331
24341SOL    HW190633   9.178   9.688   5.094  1.3587  0.0405  0.5871
24341SOL    HW290634   9.260   9.712   4.969  1.0517  2.4027  0.8001
24342SOL     OW90635  13.297  13.762   9.199 -0.3658 -0.0204 -0.2351
24342SOL    HW190636  13.238  13.794   9.268 -0.9371 -0.3205 -0.5813
24342SOL    HW290637  13.250  13.689   9.159  0.2494 -0.2744 -0.5082
24343SOL     OW90638   7.345  10.756   8.464 -0.0106 -0.2526 -0.2488
24343SOL    HW190639   7.407  10.696   8.507  0.3584  0.5133  0.3047
24343SOL    HW290640   7.377  10.761   8.373  1.6741  1.2839  0.3648
24344SOL     OW90641   1.632  10.980   2.127 -0.6310  0.0592 -0.2181
24344SOL    HW190642   1.655  11.026   2.207  2.5988 -2.8761  0.8039
24344SOL    HW290643   1.675  11.030   2.057  0.4354  0.1799  0.4989
24345SOL     OW90644  11.300   5.306  10.052  0.3472  0.2232  0.2968
24345SOL    HW190645  11.394   5.303  10.072  0.4478 -0.9692 -0.2457
24345SOL    HW290646  11.262   5.238  10.108 -0.1439  0.4395  0.2325
24346SOL     OW90647   9.371   4.192   1.685  0.4883  0.1719 -0.0344
24346SOL    HW190648   9.425   4.185   1.606  0.0222  0.4591 -0.3802
24346SOL    HW290649   9.311   4.118   1.679  1.4412 -0.7014  0.8208
24347SOL     OW90650   7.023   1.651  13.372 -0.6125 -0.4461  0.3830
24347SOL    HW190651   7.054   1.734  13.335 -2.2580  0.0924  0.1204
24347SOL    HW290652   7.089   1.587  13.345 -0.6685  0.2981 -1.7255
24348SOL     OW90653   2.694   8.234   9.338 -0.1362 -0.7702 -0.4605
24348SOL    HW190654   2.737   8.214   9.255 -0.2015 -0.0136 -0.6827
24348SOL    HW290655   2.643   8.314   9.321  0.1778 -0.3708  0.4135
24349SOL     OW90656   6.229   0.017  11.758  0.1660  0.3895  0.2353
24349SOL    HW190657   6.277  -0.060  11.790  0.6554  1.1881  1.4873
24349SOL    HW290658   6.255   0.025  11.666  1.6105  0.1758  0.6007
24350SOL     OW90659   4.638  13.275   6.783 -0.1286  0.3706 -1.3322
24350SOL    HW190660   4.713  13.334   6.780  0.4549 -0.3767 -2.1045
24350SOL    HW290661   4.561  13.332   6.788  0.2697  1.3289 -4.1770
24351SOL     OW90662   6.373   1.176  13.811  0.5841  0.4439 -0.2493
24351SOL    HW190663   6.380   1.221  13.726  0.3059  1.9174  0.4923
24351SOL    HW290664   6.331   1.239  13.869  1.7997 -0.1089  1.3068
24352SOL     OW90665  13.520   5.157  12.836 -0.3373  0.4723 -0.0192
24352SOL    HW190666  13.456   5.196  12.775 -0.4522  1.1516  0.5240
24352SOL    HW290667  13.466   5.107  12.897 -0.1438 -1.1012 -1.0962
24353SOL     OW90668   7.328   7.132   2.121  0.0952  0.6226 -0.2930
24353SOL    HW190669   7.318   7.043   2.088 -0.0139  0.7887 -0.7141
24353SOL    HW290670   7.286   7.187   2.055 -2.0057  0.8109  1.0919
24354SOL     OW90671   4.440  13.381   9.196  0.3745 -0.5394  0.0725
24354SOL    HW190672   4.467  13.329   9.271  0.6688  0.8197  0.9516
24354SOL    HW290673   4.381  13.324   9.146 -1.1260 -0.9456  2.1791
24355SOL     OW90674   3.152   6.808   3.263 -0.5617  0.7496  0.6108
24355SOL    HW190675   3.111   6.754   3.330 -2.1455 -1.6450 -2.0445
24355SOL    HW290676   3.214   6.750   3.220  0.0406  2.0382 -0.3224
24356SOL     OW90677   3.421  11.959   6.166  0.3108  0.1703 -0.1428
24356SOL    HW190678   3.351  12.021   6.185  2.3424  2.9668 -1.2168
24356SOL    HW290679   3.397  11.921   6.081  0.3657  1.6398 -0.8504
24357SOL     OW90680   1.814  13.714   6.338 -0.0921  0.3847  0.8102
24357SOL    HW190681   1.863  13.664   6.403 -2.0705 -0.1456  2.0050
24357SOL    HW290682   1.722  13.698   6.361 -0.8862  0.2102 -2.1082
24358SOL     OW90683  10.020  13.056  13.897  0.2615  0.1325 -0.3104
24358SOL    HW190684   9.950  13.012  13.850 -1.1179 -0.2203  1.9061
24358SOL    HW290685  10.100  13.019  13.862 -0.7110 -0.6103 -1.8307
24359SOL     OW90686   2.975  13.681   1.171 -0.0026 -0.6124 -0.1245
24359SOL    HW190687   3.007  13.714   1.087 -1.1310 -1.4567 -0.9175
24359SOL    HW290688   2.916  13.609   1.147  0.4943 -1.5858  1.4343
24360SOL     OW90689   1.722   9.274  11.042  0.1755 -0.2906  0.2926
24360SOL    HW190690   1.766   9.201  11.086 -1.2278 -2.1120 -1.1433
24360SOL    HW290691   1.792   9.333  11.016  1.3329 -0.9781  1.7131
24361SOL     OW90692  12.442   3.737   1.528  0.2335 -0.1002  0.4301
24361SOL    HW190693  12.478   3.789   1.456 -0.4264  0.4483  0.4839
24361SOL    HW290694  12.476   3.649   1.513  1.2765  0.3153  0.2727
24362SOL     OW90695   1.931   6.983   8.484  0.6499 -0.4745  0.3800
24362SOL    HW190696   1.986   7.061   8.479 -0.1434  0.1181  0.6070
24362SOL    HW290697   1.904   6.967   8.393  1.3513 -0.8910  0.2389
24363SOL     OW90698   6.004  13.601   3.712  0.7597  0.4462  0.0295
24363SOL    HW190699   5.936  13.598   3.644 -1.6941 -0.3463  2.3509
24363SOL    HW290700   6.039  13.690   3.705 -2.2984  1.8177  0.2636
24364SOL     OW90701   0.117   4.816   2.499  0.3467 -0.6781  0.4028
24364SOL    HW190702   0.060   4.883   2.462 -1.0018 -0.5633  2.5054
24364SOL    HW290703   0.106   4.740   2.441 -0.0736  0.1072 -0.5607
24365SOL     OW90704   7.478   1.793   4.956  0.5624 -0.7830 -0.6489
24365SOL    HW190705   7.471   1.720   4.894  2.2568 -1.2948 -0.3121
24365SOL    HW290706   7.573   1.804   4.968  0.3037  0.6485  0.2853
24366SOL     OW90707  10.770  10.658   5.789  0.1232  0.0771 -0.6018
24366SOL    HW190708  10.734  10.735   5.744  0.4923  0.5389 -0.1319
24366SOL    HW290709  10.865  10.673   5.788  0.2961 -0.9205 -1.4654
24367SOL     OW90710  12.478   0.700   3.045  0.4879  0.3688  0.1170
24367SOL    HW190711  12.556   0.743   3.078  0.3071  1.1222 -0.4239
24367SOL    HW290712  12.461   0.741   2.961  0.1093 -0.5235 -0.2558
24368SOL     OW90713  13.804   2.156   9.700  0.3759 -0.2218  0.9421
24368SOL    HW190714  13.758   2.094   9.757  1.8186 -0.3264  2.0585
24368SOL    HW290715  13.806   2.237   9.750  0.0805  0.2084  0.2592
24369SOL     OW90716   9.363   5.530   6.236 -0.4550 -0.7094 -0.5836
24369SOL    HW190717   9.364   5.436   6.254 -2.6436 -0.4594  1.4051
24369SOL    HW290718   9.278   5.544   6.193 -1.3574  0.6235  1.4733
24370SOL     OW90719   1.498   9.000   8.681 -0.0480 -0.4676  0.2755
24370SOL    HW190720   1.547   8.945   8.621  2.0183 -0.1338  1.5402
24370SOL    HW290721   1.423   8.948   8.707  0.1616 -1.4185 -0.9633
24371SOL     OW90722   7.838  11.132   2.769 -0.0044 -0.3682 -0.3091
24371SOL    HW190723   7.838  11.212   2.716  1.2633 -0.0768  0.0947
24371SOL    HW290724   7.820  11.062   2.706  2.8370 -0.1933 -1.4940
24372SOL     OW90725   2.581  13.392   0.814 -0.8226  0.0507  0.1044
24372SOL    HW190726   2.608  13.304   0.789 -1.2046  0.0971 -0.4890
24372SOL    HW290727   2.659  13.430   0.854 -0.5272 -0.4059 -0.0286
24373SOL     OW90728   7.303   6.636   0.816  0.0953  0.2994  0.0325
24373SOL    HW190729   7.389   6.602   0.844  0.9319  3.2112  1.3375
24373SOL    HW290730   7.250   6.635   0.896 -0.2243  0.9780 -0.1699
24374SOL     OW90731  10.928   4.512   9.439  0.2504  0.4974 -0.5789
24374SOL    HW190732  10.859   4.467   9.488  0.7120 -1.4358 -1.6320
24374SOL    HW290733  10.963   4.576   9.502 -0.1711 -0.8736  1.1326
24375SOL     OW90734  13.198   7.508   4.289  0.2231 -0.0391 -0.3122
24375SOL    HW190735  13.166   7.477   4.374  1.1738 -0.8264 -0.2216
24375SOL    HW290736  13.119   7.525   4.238 -0.3540  0.1841  0.6408
24376SOL     OW90737   8.264   3.617   5.058 -0.8019  0.0027 -0.4979
24376SOL    HW190738   8.340   3.675   5.059 -0.9291  0.1785  0.9699
24376SOL    HW290739   8.277   3.558   5.132 -1.8838 -0.2338 -0.4772
24377SOL     OW90740  12.818   0.206   4.099  0.3720  0.5281  0.1341
24377SOL    HW190741  12.815   0.163   4.013 -1.7422  0.6005  0.1137
24377SOL    HW290742  12.726   0.216   4.123  0.8825 -1.1987  3.2856
24378SOL     OW90743  10.488   6.076  14.018  0.0075  0.1713  0.0107
24378SOL    HW190744  10.417   6.038  14.070 -0.6685 -0.2731 -1.1969
24378SOL    HW290745  10.514   6.007  13.958  2.8878 -0.3925  1.7064
24379SOL     OW90746   8.014  11.491  10.315  0.0417 -0.0592 -0.1166
24379SOL    HW190747   7.977  11.524  10.234 -1.0897  0.7954  0.7223
24379SOL    HW290748   8.020  11.567  10.372  0.0206 -0.7911  0.8990
24380SOL     OW90749  13.521  13.271   1.160  0.1783  0.1313  0.7943
24380SOL    HW190750  13.538  13.365   1.169  0.9189  0.1473 -0.5065
24380SOL    HW290751  13.433  13.266   1.123  0.4375  0.3563  0.1289
24381SOL     OW90752  13.490   2.578   7.217  0.7388 -0.0806 -0.4032
24381SOL    HW190753  13.411   2.579   7.163 -0.0723  0.5346  0.7525
24381SOL    HW290754  13.458   2.564   7.306  1.7514  1.9124  0.3387
24382SOL     OW90755   3.544   2.636   6.186  0.0120  0.0121 -0.5882
24382SOL    HW190756   3.635   2.618   6.163  0.1924  0.6129 -0.3506
24382SOL    HW290757   3.539   2.731   6.195 -0.2642 -0.1238  0.9530
24383SOL     OW90758  11.140  10.597   3.004 -0.2039 -0.0479 -0.3670
24383SOL    HW190759  11.231  10.613   3.029 -0.4180 -0.0689  0.4343
24383SOL    HW290760  11.122  10.662   2.936  0.3126  0.1492 -0.3178
24384SOL     OW90761   0.590  13.412   8.446 -0.0194 -0.4963 -0.3563
24384SOL    HW190762   0.531  13.469   8.495  0.8097  0.4736 -0.4522
24384SOL    HW290763   0.571  13.324   8.478  0.1334  0.0499  1.3225
24385SOL     OW90764  13.610   6.712   9.409 -0.7608  0.3868  0.6782
24385SOL    HW190765  13.603   6.797   9.365  1.6073 -0.1333 -0.8165
24385SOL    HW290766  13.534   6.663   9.378 -0.1285  0.6737 -1.4362
24386SOL     OW90767   1.786   7.216   6.699  0.7012 -0.6889 -0.1245
24386SOL    HW190768   1.753   7.233   6.788 -0.3011 -1.5479 -0.3289
24386SOL    HW290769   1.822   7.128   6.704  0.4724 -0.8088 -0.6267
24387SOL     OW90770   7.321  10.393   7.094 -0.0160  0.3961  0.6256
24387SOL    HW190771   7.255  10.344   7.143  0.1798  0.6037  1.0992
24387SOL    HW290772   7.287  10.396   7.004 -1.0217  1.1587  1.0166
24388SOL     OW90773  11.209   3.671   2.008 -0.1550 -0.6500 -0.0998
24388SOL    HW190774  11.161   3.588   2.009 -1.8270  0.2688  0.0981
24388SOL    HW290775  11.264   3.668   2.086  0.1816 -1.7737 -0.3633
24389SOL     OW90776   5.006   6.227  11.003  0.0993  0.9144 -0.8281
24389SOL    HW190777   5.090   6.215  10.958  0.9310 -1.7689  1.1910
24389SOL    HW290778   4.948   6.161  10.963 -0.3123  1.1089 -0.5614
24390SOL     OW90779  13.656   2.913   3.984  0.6184 -0.4038  0.5104
24390SOL    HW190780  13.594   2.972   4.027 -1.6839 -2.8507  0.7503
24390SOL    HW290781  13.709   2.877   4.055 -0.3028 -1.2031  0.8075
24391SOL     OW90782  11.399   3.798   5.042 -0.3059 -0.0930  0.1005
24391SOL    HW190783  11.456   3.732   5.080 -0.3390 -1.1842 -1.6379
24391SOL    HW290784  11.313   3.758   5.038 -0.1615 -0.3095 -1.7169
24392SOL     OW90785  12.101   3.878   0.747  0.5914 -0.1050 -0.6128
24392SOL    HW190786  12.132   3.819   0.678  0.2094  0.9734 -1.7466
24392SOL    HW290787  12.181   3.918   0.782  0.8795 -1.5017  0.3934
24393SOL     OW90788  13.623   1.387   2.387  0.0543 -0.1087 -0.0041
24393SOL    HW190789  13.681   1.391   2.463  0.7669  0.8268 -0.5689
24393SOL    HW290790  13.562   1.316   2.406  1.8009 -1.5788  0.3164
24394SOL     OW90791   0.593   8.187   2.258 -0.0389 -0.6900  0.0683
24394SOL    HW190792   0.624   8.191   2.348  2.5062  0.0114 -0.7581
24394SOL    HW290793   0.638   8.112   2.220  0.7779  0.4053 -1.2176
24395SOL     OW90794   2.499  13.091   2.737  0.5364 -0.2801 -0.4713
24395SOL    HW190795   2.496  13.186   2.746 -1.0029 -0.2633 -0.8291
24395SOL    HW290796   2.592  13.070   2.727  1.0892  0.9778  1.5801
24396SOL     OW90797   7.120  13.399   2.751  0.1046  0.1208 -0.1070
24396SOL    HW190798   7.159  13.314   2.731  1.0483  0.1518  1.4492
24396SOL    HW290799   7.095  13.434   2.665  1.6274 -0.8135 -0.9928
24397SOL     OW90800   5.875  11.890  10.533  0.1846  0.0377  0.2075
24397SOL    HW190801   5.805  11.841  10.577 -1.1146 -0.1336 -1.9144
24397SOL    HW290802   5.885  11.969  10.586 -0.1942 -0.8447  1.6740
24398SOL     OW90803  11.566  10.153   6.243 -0.1422  0.2435  0.1741
24398SOL    HW190804  11.635  10.177   6.304  2.5111 -2.6994 -1.3483
24398SOL    HW290805  11.585  10.203   6.164 -1.5143  1.4619  0.5550
24399SOL     OW90806   3.080  13.677  12.716  0.1763 -0.9040  0.0682
24399SOL    HW190807   3.112  13.678  12.807  0.1794 -1.0868  0.0680
24399SOL    HW290808   3.065  13.770  12.696 -1.2555 -0.9633  0.7482
24400SOL     OW90809  11.983   8.151   1.299  0.7701  0.0335  1.0401
24400SOL    HW190810  11.988   8.187   1.210  1.3226 -0.7945  0.7174
24400SOL    HW290811  12.045   8.203   1.349 -0.3601  1.2433  1.2268
24401SOL     OW90812  10.276   5.930  13.279  0.0446 -0.3190 -0.0653
24401SOL    HW190813  10.371   5.918  13.282 -0.0351 -1.1262 -0.4959
24401SOL    HW290814  10.259   5.970  13.194  0.0907  0.8454  0.4519
24402SOL     OW90815   8.981   6.808   4.268 -0.0148 -0.2640 -0.2703
24402SOL    HW190816   8.927   6.752   4.324 -0.4605  1.1855  0.8189
24402SOL    HW290817   8.926   6.827   4.192 -0.5376  0.1200  0.1981
24403SOL     OW90818   5.112  12.480  12.821  0.0118 -0.1241 -0.7158
24403SOL    HW190819   5.129  12.454  12.912  0.2639 -0.2643 -0.8023
24403SOL    HW290820   5.030  12.529  12.825  1.2354  2.0132 -0.0316
24404SOL     OW90821   8.338   5.882   7.190 -0.2209  0.0282  0.4832
24404SOL    HW190822   8.286   5.928   7.255 -0.0310  0.7510  0.1282
24404SOL    HW290823   8.293   5.798   7.179 -2.1981  1.1987 -0.9206
24405SOL     OW90824   7.281  12.553   8.495  0.2289 -0.4751  0.2945
24405SOL    HW190825   7.330  12.493   8.439  0.4705 -0.9771  1.0184
24405SOL    HW290826   7.340  12.570   8.569 -0.0531  0.2224  0.3604
24406SOL     OW90827   2.350  10.711   8.347 -0.0820 -0.4752  0.4205
24406SOL    HW190828   2.272  10.717   8.403 -1.4632  0.1772 -1.4386
24406SOL    HW290829   2.397  10.635   8.379 -2.3496 -1.8982  0.6414
24407SOL     OW90830   2.241   8.040   6.723 -0.3453 -0.3926 -0.0344
24407SOL    HW190831   2.323   7.992   6.726 -1.0848 -1.7832 -0.8915
24407SOL    HW290832   2.266   8.132   6.722  1.1897 -0.7945 -0.2875
24408SOL     OW90833   2.513   7.840   6.263  0.4860  0.5951 -0.4774
24408SOL    HW190834   2.481   7.930   6.269 -1.5404 -0.0821 -0.1065
24408SOL    HW290835   2.587   7.844   6.203  1.4557  2.7409  0.7803
24409SOL     OW90836   9.271  11.501  13.667 -0.5029  0.6413 -0.2894
24409SOL    HW190837   9.359  11.467  13.649 -0.8489 -0.1040 -0.6256
24409SOL    HW290838   9.284  11.595  13.680  0.8205  0.1512  2.8613
24410SOL     OW90839   0.075   5.449   4.847  0.0315 -0.3538  0.0132
24410SOL    HW190840   0.038   5.439   4.935  0.7378  0.9222  0.4751
24410SOL    HW290841   0.161   5.407   4.852 -0.3426 -1.1983 -0.3828
24411SOL     OW90842   3.192  13.390   0.432  0.3511 -1.1201  0.0484
24411SOL    HW190843   3.115  13.347   0.394 -0.4049  0.1900  0.0283
24411SOL    HW290844   3.160  13.476   0.458  2.4304  0.6604 -2.6792
24412SOL     OW90845   1.199  10.227  10.236 -0.0838 -0.1044  0.0121
24412SOL    HW190846   1.278  10.211  10.183  1.4220  0.0137  2.1067
24412SOL    HW290847   1.228  10.286  10.305 -2.3325  0.8763  0.1886
24413SOL     OW90848   6.300   2.117   4.686 -0.1828  0.5099 -0.3833
24413SOL    HW190849   6.257   2.197   4.655 -2.3976 -1.1077 -1.7643
24413SOL    HW290850   6.228   2.060   4.714  1.3840 -0.7103  1.4537
24414SOL     OW90851   3.226   3.689  13.015 -0.2045  0.0207  0.0027
24414SOL    HW190852   3.215   3.596  12.998 -0.3073 -0.1132  0.7752
24414SOL    HW290853   3.221   3.730  12.929  0.4562 -0.7440 -0.4175
24415SOL     OW90854  13.703   7.991   6.278  0.2964  0.0740 -0.6838
24415SOL    HW190855  13.673   7.915   6.329 -2.4452  1.1631 -0.5142
24415SOL    HW290856  13.715   8.060   6.344 -3.0673  1.4327 -1.2636
24416SOL     OW90857  10.926   4.399   5.508 -0.2577 -0.9536 -0.0173
24416SOL    HW190858  10.948   4.350   5.587  0.4196  0.3173  0.6141
24416SOL    HW290859  10.833   4.420   5.518 -0.2817 -1.1653  0.2217
24417SOL     OW90860  12.156  12.306   4.505  0.7085  0.5254  0.1890
24417SOL    HW190861  12.212  12.307   4.427 -2.0345  1.4045 -1.9086
24417SOL    HW290862  12.112  12.221   4.502 -0.4815  1.1298 -0.0968
24418SOL     OW90863   0.183   9.739   8.148 -0.2290  0.0895  0.4818
24418SOL    HW190864   0.144   9.697   8.072 -1.5531  0.0849  1.1300
24418SOL    HW290865   0.191   9.669   8.213 -1.7402  0.6374  1.3014
24419SOL     OW90866  11.743   9.414  10.479  0.3657  0.2589 -0.2227
24419SOL    HW190867  11.706   9.466  10.408 -0.5495 -0.4930 -0.3261
24419SOL    HW290868  11.733   9.468  10.557 -3.5389 -0.8711  0.2791
24420SOL     OW90869  12.835   4.168   5.014  0.3206  0.4110 -0.0758
24420SOL    HW190870  12.746   4.148   5.041 -0.4841  3.2268 -0.2747
24420SOL    HW290871  12.890   4.114   5.071 -1.4639  0.5454  1.9004
24421SOL     OW90872   5.212   0.138   8.348 -0.4746  0.3380 -0.2059
24421SOL    HW190873   5.139   0.104   8.400 -0.0015 -0.9349 -0.3357
24421SOL    HW290874   5.233   0.066   8.288  1.2084  0.4764  0.1773
24422SOL     OW90875   4.199   0.717   0.199  0.3465  0.0332  0.2172
24422SOL    HW190876   4.272   0.684   0.252  1.4644  0.6000 -0.8927
24422SOL    HW290877   4.224   0.696   0.109 -1.2836 -0.4952 -0.1312
24423SOL     OW90878  11.319   4.056  12.640  0.3019  0.6774  0.1755
24423SOL    HW190879  11.283   4.101  12.716 -1.0869  2.8829 -1.6173
24423SOL    HW290880  11.243   4.016  12.597  0.9280  0.1210 -0.4459
24424SOL     OW90881  13.581   2.587   2.397 -0.1565  0.4126  0.4247
24424SOL    HW190882  13.649   2.550   2.453  0.2756  0.0669 -0.3136
24424SOL    HW290883  13.526   2.638   2.456 -0.2076 -0.6342  1.2994
24425SOL     OW90884  10.434   8.536   5.514 -0.1566  0.4826 -0.5332
24425SOL    HW190885  10.463   8.553   5.604 -0.6074  0.2795 -0.3476
24425SOL    HW290886  10.403   8.621   5.483 -1.1607  0.3014 -0.0645
24426SOL     OW90887   9.299  10.578   5.847  0.3022  0.1714  0.4686
24426SOL    HW190888   9.337  10.602   5.763  0.6047 -0.9829  0.2511
24426SOL    HW290889   9.302  10.658   5.899  1.8923  0.4313  0.0281
24427SOL     OW90890   1.798   0.377   9.275  0.3826 -0.0289 -0.6901
24427SOL    HW190891   1.853   0.419   9.209 -0.3351  0.9193 -0.7164
24427SOL    HW290892   1.722   0.344   9.226  0.5840 -0.7024 -0.5578
24428SOL     OW90893   3.551   2.337  12.173  0.3419  0.0580  0.2856
24428SOL    HW190894   3.536   2.407  12.237  0.8579  0.3037  0.1502
24428SOL    HW290895   3.644   2.346  12.150 -0.0369  0.5949 -1.2110
24429SOL     OW90896   9.821   8.521  13.860 -0.7218 -0.1681 -0.5573
24429SOL    HW190897   9.915   8.528  13.842 -0.3323  2.4089  1.8289
24429SOL    HW290898   9.785   8.602  13.826 -1.7826 -0.3407  0.1336
24430SOL     OW90899   8.466  11.069  10.652  0.6241 -0.2110 -0.0398
24430SOL    HW190900   8.536  11.015  10.613  0.2833 -0.3699 -0.4423
24430SOL    HW290901   8.459  11.144  10.593  2.3503  1.2541  1.4798
24431SOL     OW90902  10.429   5.341  11.168 -0.0368 -0.4287 -0.0953
24431SOL    HW190903  10.408   5.431  11.192 -2.1240 -0.8326 -0.1563
24431SOL    HW290904  10.475   5.305  11.244 -0.8372  0.1728  0.6933
24432SOL     OW90905   1.222   8.269  12.737 -0.6430 -0.2004  0.2000
24432SOL    HW190906   1.231   8.194  12.797 -0.3085  0.8121  1.4754
24432SOL    HW290907   1.163   8.238  12.669  1.4803 -2.4933 -0.7565
24433SOL     OW90908   8.544   2.431  10.150  0.3286  0.0603  0.2444
24433SOL    HW190909   8.491   2.352  10.161 -1.4016  1.1599  0.1565
24433SOL    HW290910   8.604   2.410  10.079  0.8610 -1.6232  1.1223
24434SOL     OW90911   5.025   6.619   5.632  0.0871 -0.5558  0.0486
24434SOL    HW190912   4.997   6.711   5.634  0.9500 -0.2837  0.2145
24434SOL    HW290913   5.120   6.623   5.639  0.3143 -1.3775 -1.8107
24435SOL     OW90914   6.040   6.959   1.592 -0.4304  0.4695 -0.1554
24435SOL    HW190915   5.979   6.917   1.653 -0.6177  2.4973  1.1634
24435SOL    HW290916   6.117   6.979   1.645  0.2149  0.5061 -1.0898
24436SOL     OW90917   1.998  10.355   8.864  0.2217  0.1737 -0.2676
24436SOL    HW190918   2.028  10.264   8.859 -0.3636 -0.0141 -0.3863
24436SOL    HW290919   1.936  10.364   8.792 -1.0767  0.1479  0.8015
24437SOL     OW90920   7.400   8.462   4.823  0.4887 -0.0253 -0.2879
24437SOL    HW190921   7.355   8.461   4.908 -0.7704 -0.7011 -0.9276
24437SOL    HW290922   7.486   8.422   4.841 -1.0548 -3.6397  0.0667
24438SOL     OW90923   7.747   1.653   2.630 -0.2477 -0.2041  0.1373
24438SOL    HW190924   7.735   1.690   2.543  0.4913  2.1023  0.9302
24438SOL    HW290925   7.753   1.730   2.688 -1.4524 -1.6493  2.3335
24439SOL     OW90926  10.599   0.824   2.054  0.0277 -0.0578 -0.0097
24439SOL    HW190927  10.533   0.785   2.111  0.5459 -0.0107  0.6346
24439SOL    HW290928  10.553   0.842   1.972 -0.3403 -1.5489 -0.1486
24440SOL     OW90929  13.180   5.904   1.704 -0.0637  0.1366 -0.3261
24440SOL    HW190930  13.191   5.824   1.755 -0.3924 -0.3184 -0.9652
24440SOL    HW290931  13.233   5.969   1.751  0.5942 -0.5629 -0.0687
24441SOL     OW90932   2.841   7.115  10.907  0.2198 -0.2463 -0.1210
24441SOL    HW190933   2.756   7.095  10.946 -0.4604 -0.3723 -1.5954
24441SOL    HW290934   2.849   7.210  10.915 -0.0073 -0.2505  0.1524
24442SOL     OW90935   4.174   9.221   1.184  0.3461  0.9303 -0.0042
24442SOL    HW190936   4.081   9.217   1.207 -0.0736  0.2170 -1.6797
24442SOL    HW290937   4.181   9.297   1.126  0.2176 -0.5864 -2.1260
24443SOL     OW90938  10.589   3.259   1.437  0.2077 -0.1052 -0.2569
24443SOL    HW190939  10.573   3.177   1.391  1.4563 -1.4165  1.4766
24443SOL    HW290940  10.683   3.275   1.425  0.2909  0.2094  0.7148
24444SOL     OW90941  10.699   4.583   5.924 -0.0065  0.4057 -0.4422
24444SOL    HW190942  10.653   4.667   5.927  0.7174  0.7988  0.0133
24444SOL    HW290943  10.779   4.598   5.974 -1.2688 -1.4433  2.3696
24445SOL     OW90944   2.433  12.578   8.579 -0.0263 -0.3676  0.4187
24445SOL    HW190945   2.475  12.553   8.497 -2.6602 -1.8025 -0.5998
24445SOL    HW290946   2.405  12.495   8.618  1.7288  0.2039  3.1876
24446SOL     OW90947   1.031   3.713   1.125  0.0907 -0.6468 -0.0903
24446SOL    HW190948   1.059   3.688   1.213 -0.3739  0.7951  0.4909
24446SOL    HW290949   1.035   3.808   1.125 -2.2329 -0.5084 -0.8385
24447SOL     OW90950   8.177  12.495  10.036  0.7480 -0.2247  0.6117
24447SOL    HW190951   8.271  12.511  10.022  0.5759  0.8797  0.6060
24447SOL    HW290952   8.143  12.478   9.948  0.4465  2.3541  0.1526
24448SOL     OW90953   5.349   2.218  10.644 -0.2673 -0.2316 -0.8671
24448SOL    HW190954   5.312   2.300  10.612  0.6267  0.0470 -1.2404
24448SOL    HW290955   5.293   2.150  10.608 -1.4535  0.2413  0.0525
24449SOL     OW90956  11.585  13.544   5.499  0.4958  0.1063 -0.3141
24449SOL    HW190957  11.513  13.587   5.453  1.8017  1.0373 -1.6009
24449SOL    HW290958  11.555  13.455   5.514 -0.7518  0.3536 -1.2126
24450SOL     OW90959   3.852  11.163   4.629  0.2767 -0.3474  0.1992
24450SOL    HW190960   3.856  11.258   4.619 -0.0299 -0.5913 -3.4955
24450SOL    HW290961   3.925  11.143   4.688  1.1876  2.0679  0.0340
24451SOL     OW90962   7.482   4.174   1.095  0.4032  0.1324  0.4483
24451SOL    HW190963   7.495   4.262   1.060 -0.8744 -0.1454 -0.8312
24451SOL    HW290964   7.515   4.116   1.026 -0.1507 -0.4068  0.6278
24452SOL     OW90965   3.830   7.995  12.042  0.3618 -0.2588  0.5223
24452SOL    HW190966   3.796   7.982  12.131  1.6678 -0.8725  0.9577
24452SOL    HW290967   3.755   7.982  11.985 -1.0809  2.4024  1.6045
24453SOL     OW90968   1.802   8.812  13.274  0.1325 -0.1558  0.3023
24453SOL    HW190969   1.890   8.831  13.242  0.3807 -1.3210  0.2243
24453SOL    HW290970   1.816   8.764  13.355 -0.2825 -2.9036 -1.1073
24454SOL     OW90971  10.219   1.998   1.438 -0.3669  0.1772 -0.1028
24454SOL    HW190972  10.153   1.989   1.507 -0.9357  0.2293 -0.6337
24454SOL    HW290973  10.175   2.049   1.369  0.1054 -0.1075 -0.6223
24455SOL     OW90974  11.746   3.094   2.286  0.4124 -0.4835  0.2029
24455SOL    HW190975  11.675   3.075   2.224  2.1987 -0.7659 -1.8592
24455SOL    HW290976  11.723   3.178   2.324 -0.4956 -0.0364 -1.2579
24456SOL     OW90977   0.679  10.080  12.851  0.3235  0.3875  0.4842
24456SOL    HW190978   0.708  10.045  12.766  1.7551  0.6370  0.8398
24456SOL    HW290979   0.584  10.085  12.844  0.4670  1.4127 -1.5190
24457SOL     OW90980  11.212  12.469   7.708 -0.1159 -0.3944  0.1070
24457SOL    HW190981  11.212  12.459   7.803 -0.0534  0.4688  0.2115
24457SOL    HW290982  11.121  12.492   7.687 -0.0757 -0.3465 -0.0122
24458SOL     OW90983   8.306   2.736   1.291  0.5398 -0.3440  0.3872
24458SOL    HW190984   8.316   2.787   1.211 -2.0781 -1.1480 -0.5802
24458SOL    HW290985   8.263   2.795   1.353  1.8243  0.0277  0.9487
24459SOL     OW90986  13.511   5.529  12.930  0.3264  0.4739 -0.2454
24459SOL    HW190987  13.561   5.464  12.879  0.1710  1.2129 -1.3904
24459SOL    HW290988  13.570   5.604  12.936  0.0934  0.6302  0.1268
24460SOL     OW90989   2.852   4.940   6.038 -0.0642  0.0591 -0.4015
24460SOL    HW190990   2.809   4.857   6.014 -0.4516  0.0068  0.4393
24460SOL    HW290991   2.945   4.923   6.024  0.0353 -1.1216  1.4201
24461SOL     OW90992   5.944   4.143   6.984  0.1413 -0.4151 -0.3303
24461SOL    HW190993   5.998   4.149   7.062 -0.3113 -0.3361 -0.0190
24461SOL    HW290994   5.855   4.160   7.015  0.1704  1.5016 -1.1572
24462SOL     OW90995  11.314   7.216   4.494 -0.0039  0.3093  0.2952
24462SOL    HW190996  11.246   7.180   4.438  1.5195  0.2869 -1.6807
24462SOL    HW290997  11.305   7.170   4.577 -1.5202 -0.6553 -0.3750
24463SOL     OW90998   3.578  12.181   5.305 -0.3200  0.4840 -0.2996
24463SOL    HW190999   3.579  12.099   5.355 -1.0813  1.6237  1.7174
24463SOL    HW291000   3.528  12.160   5.226 -2.9766 -0.3840  1.4508
24464SOL     OW91001   2.632   3.640   4.808 -0.0283 -0.3368 -0.5291
24464SOL    HW191002   2.557   3.589   4.778 -0.1557 -1.4772  1.6212
24464SOL    HW291003   2.599   3.730   4.811 -0.3811 -0.3450 -2.4325
24465SOL     OW91004   5.112   0.139  13.488 -0.1497  0.6916 -0.3743
24465SOL    HW191005   5.165   0.114  13.563  0.7725  0.0410 -1.2028
24465SOL    HW291006   5.022   0.135  13.519  0.1812 -0.1813  0.5207
24466SOL     OW91007  13.341   0.280   5.187  0.2481 -0.2099  0.6377
24466SOL    HW191008  13.265   0.338   5.186 -0.3930 -0.9283 -2.2554
24466SOL    HW291009  13.416   0.338   5.172 -0.1364  0.1273 -0.0119
24467SOL     OW91010   0.715   6.588  12.876 -0.9317 -0.0310 -0.0699
24467SOL    HW191011   0.660   6.602  12.953 -1.3475 -0.9200 -0.1825
24467SOL    HW291012   0.653   6.580  12.803 -0.4848  2.1280 -0.7487
24468SOL     OW91013   9.059   6.843   3.435 -0.0895 -0.2530  0.0996
24468SOL    HW191014   8.990   6.838   3.501  0.7792 -0.0610  1.0516
24468SOL    HW291015   9.020   6.890   3.362 -1.2917 -1.0706  0.1921
24469SOL     OW91016   6.871   4.825   7.859 -0.0607 -0.0978  0.3045
24469SOL    HW191017   6.881   4.920   7.851 -0.4391 -0.1129 -0.4543
24469SOL    HW291018   6.789   4.806   7.814 -0.2869 -0.7195  0.9716
24470SOL     OW91019   8.359   2.145   4.454 -0.2457 -0.2531  0.4631
24470SOL    HW191020   8.274   2.136   4.497 -1.2855  2.4362 -0.8110
24470SOL    HW291021   8.395   2.227   4.489  1.7990 -1.2657  0.8680
24471SOL     OW91022   9.610  11.563  13.451 -0.5401  0.0772  0.2932
24471SOL    HW191023   9.565  11.479  13.454 -2.0100  0.8536  0.7530
24471SOL    HW291024   9.629  11.583  13.543  1.2764 -0.4600  0.0961
24472SOL     OW91025   9.135   8.978   5.850 -0.3278 -0.1771  0.6138
24472SOL    HW191026   9.143   9.072   5.864  0.7050 -0.0954 -0.3798
24472SOL    HW291027   9.102   8.944   5.933 -0.8918  1.0782  0.9231
24473SOL     OW91028   4.633   0.513   9.599 -0.2774 -0.2461 -0.4243
24473SOL    HW191029   4.641   0.422   9.630  2.5976 -0.3603 -1.1354
24473SOL    HW291030   4.693   0.562   9.654 -2.1528  1.3781  0.2499
24474SOL     OW91031  11.098   8.584   1.182 -0.1941 -0.2759 -0.1592
24474SOL    HW191032  11.078   8.518   1.116  0.3055  0.4351 -1.0487
24474SOL    HW291033  11.053   8.554   1.261 -1.6915 -0.5911 -1.1049
24475SOL     OW91034   9.531   6.843   2.464 -0.3143 -0.2894  0.2381
24475SOL    HW191035   9.497   6.830   2.552  0.5874 -3.3234  0.2313
24475SOL    HW291036   9.498   6.770   2.413 -1.1038  1.5704 -2.1346
24476SOL     OW91037   5.836   9.139   9.934  0.2101  0.3929 -0.7640
24476SOL    HW191038   5.921   9.181   9.946 -0.3688  0.9655  2.3884
24476SOL    HW291039   5.776   9.210   9.912  0.0339  0.5249  0.0979
24477SOL     OW91040   4.042   9.577  12.240 -0.4123  0.0103  0.0032
24477SOL    HW191041   3.990   9.634  12.297 -0.0224 -1.5452  2.0470
24477SOL    HW291042   4.127   9.621  12.233 -0.8394  0.7932 -0.3661
24478SOL     OW91043   5.172   3.712   7.256  0.2446  0.4753  0.1335
24478SOL    HW191044   5.089   3.739   7.216 -0.2340 -1.7104 -0.5065
24478SOL    HW291045   5.146   3.651   7.325  1.2847 -2.3076 -1.7396
24479SOL     OW91046   1.782   3.010   9.145 -0.1606  0.1938  0.2735
24479SOL    HW191047   1.750   3.024   9.056 -1.3395 -0.4034  0.5752
24479SOL    HW291048   1.724   3.064   9.200 -1.1335 -1.3841  0.8943
24480SOL     OW91049  12.050   6.207   1.729  0.0294 -0.2544  0.0406
24480SOL    HW191050  12.111   6.278   1.711 -0.6036  0.5590  0.9795
24480SOL    HW291051  12.093   6.154   1.796  0.6322 -0.9483 -0.8785
24481SOL     OW91052   6.276   1.936   5.941  0.0494 -0.3770 -0.2912
24481SOL    HW191053   6.316   1.881   6.008  0.1119 -0.0095 -0.0179
24481SOL    HW291054   6.327   1.919   5.862 -1.2519 -2.3097 -0.7786
24482SOL     OW91055   0.700   3.342   7.203 -0.0507 -0.2807 -0.2635
24482SOL    HW191056   0.704   3.423   7.254 -0.9429 -1.4096  1.7051
24482SOL    HW291057   0.787   3.303   7.214 -0.1514 -0.3857  0.1584
24483SOL     OW91058   0.952   8.434   6.741 -0.3117 -0.7399  0.0437
24483SOL    HW191059   1.043   8.458   6.725 -0.8229  1.1159 -0.4046
24483SOL    HW291060   0.950   8.339   6.732  1.3365 -0.6985 -1.2643
24484SOL     OW91061   8.731   2.362   9.972 -0.0186 -0.1423  0.0202
24484SOL    HW191062   8.806   2.306   9.990  0.8032  1.3639  1.5777
24484SOL    HW291063   8.763   2.427   9.910 -0.1122  0.3174  0.4455
24485SOL     OW91064   6.185   3.864   5.404 -0.0126 -0.1304  0.2313
24485SOL    HW191065   6.227   3.798   5.349 -1.0510  0.1505 -0.9548
24485SOL    HW291066   6.254   3.893   5.464  1.0855 -0.6391 -0.7403
24486SOL     OW91067  11.403   9.839   8.257  0.1988 -0.1069 -0.7834
24486SOL    HW191068  11.398   9.820   8.351 -1.1429  0.4218 -0.7312
24486SOL    HW291069  11.346   9.914   8.244 -0.5325 -0.8633 -2.1951
24487SOL     OW91070   1.620   1.204  10.287 -0.0143 -0.3340  0.0363
24487SOL    HW191071   1.568   1.157  10.352  0.5758  0.0696  0.8072
24487SOL    HW291072   1.620   1.146  10.210  1.4871 -2.0603  1.2543
24488SOL     OW91073  13.470   4.648   0.022  0.3903 -0.2306 -0.1907
24488SOL    HW191074  13.563   4.638   0.039 -0.1102 -1.0692  2.5992
24488SOL    HW291075  13.440   4.559  -0.000  0.3097  0.1329 -1.6266
24489SOL     OW91076   5.095   1.540  13.745 -0.2083  0.0625 -0.5677
24489SOL    HW191077   5.053   1.624  13.733 -0.2572  0.3489  1.2313
24489SOL    HW291078   5.038   1.493  13.806  1.8916  0.4283  1.8822
24490SOL     OW91079   5.623  13.359   9.639  0.3995  0.6390  0.4752
24490SOL    HW191080   5.716  13.376   9.655  0.1093  2.9080  0.0445
24490SOL    HW291081   5.620  13.318   9.553  0.9659  1.1878  0.1892
24491SOL     OW91082   6.577   2.798   0.803 -0.1060  0.0185 -0.2301
24491SOL    HW191083   6.536   2.718   0.769 -0.8624  0.0902  0.4705
24491SOL    HW291084   6.559   2.796   0.897 -0.1392  1.0136 -0.2016
24492SOL     OW91085   6.380   8.816   0.475  0.1430 -0.0409 -0.1865
24492SOL    HW191086   6.351   8.726   0.491 -1.0760  0.3717  0.0412
24492SOL    HW291087   6.320   8.870   0.527  2.9751  0.7779  2.5761
24493SOL     OW91088  11.341   5.396   2.808  0.2024  0.0638 -0.0984
24493SOL    HW191089  11.385   5.315   2.831 -0.1262  0.4731  2.2033
24493SOL    HW291090  11.407   5.446   2.759  1.2711 -0.5576  0.6655
24494SOL     OW91091   5.255   1.633   1.411  0.0044  0.2451  0.2242
24494SOL    HW191092   5.262   1.644   1.506  1.4155  2.7783 -0.0909
24494SOL    HW291093   5.187   1.694   1.384  1.0076  1.0487 -0.5774
24495SOL     OW91094   1.128   3.886  12.470  0.1677 -0.0280  0.0399
24495SOL    HW191095   1.082   3.926  12.544 -1.5325  0.9982 -1.4847
24495SOL    HW291096   1.220   3.888  12.495 -0.3611  0.1864  2.1504
24496SOL     OW91097   4.678   1.605   6.097 -0.8992  0.0819  0.6327
24496SOL    HW191098   4.695   1.591   6.004 -0.1994  1.8073  0.4645
24496SOL    HW291099   4.627   1.529   6.124 -1.9168 -0.0003 -1.3668
24497SOL     OW91100  11.748  13.994   7.864 -0.5650 -0.0673 -0.1372
24497SOL    HW191101  11.726  13.979   7.772 -1.4049 -1.3164  0.2336
24497SOL    HW291102  11.837  14.029   7.863 -1.1838  1.6205 -1.5097
24498SOL     OW91103   7.878  13.351   2.819 -0.0446  0.1420  0.3268
24498SOL    HW191104   7.901  13.431   2.773  0.6228 -0.1161  0.2099
24498SOL    HW291105   7.806  13.377   2.877 -0.3220  0.6574 -0.2402
24499SOL     OW91106  11.489   6.616   2.011  0.1042 -0.3604 -0.1925
24499SOL    HW191107  11.414   6.608   2.070  0.8803  1.0444  1.0547
24499SOL    HW291108  11.561   6.643   2.067  1.3021 -0.5958 -1.5420
24500SOL     OW91109   0.710   2.342   2.956  0.2329 -0.0944  0.2771
24500SOL    HW191110   0.726   2.337   2.862 -0.5071  1.0842  0.0631
24500SOL    HW291111   0.646   2.413   2.966  0.9622  0.4179  1.7465
24501SOL     OW91112  10.175   0.428   5.414 -0.2226 -0.2536 -0.1079
24501SOL    HW191113  10.125   0.509   5.403 -0.7838 -0.6930 -0.8940
24501SOL    HW291114  10.120   0.361   5.374  1.1047 -0.7178 -1.2037
24502SOL     OW91115   0.809   9.475   6.270 -0.5733 -0.5520 -0.4432
24502SOL    HW191116   0.766   9.538   6.329  0.1938  0.8115 -1.2675
24502SOL    HW291117   0.749   9.401   6.265 -0.9096 -0.4883  1.6138
24503SOL     OW91118   2.832  13.297   3.379  0.0510 -0.3669  0.2632
24503SOL    HW191119   2.924  13.315   3.400  0.2245 -0.2336 -0.5776
24503SOL    HW291120   2.810  13.361   3.310 -0.3003 -1.1988 -0.4121
24504SOL     OW91121  11.799   4.734   8.954  0.6089 -0.2582  0.1518
24504SOL    HW191122  11.867   4.802   8.954  0.3343  0.0544 -1.5523
24504SOL    HW291123  11.845   4.654   8.929  0.0920  0.3782 -3.4803
24505SOL     OW91124  10.422   3.240   2.618  0.8386  0.1347 -0.0685
24505SOL    HW191125  10.453   3.285   2.697  0.2879  0.3359  0.0435
24505SOL    HW291126  10.423   3.308   2.551 -0.4437  0.4745  0.2107
24506SOL     OW91127  13.902   9.114  13.451 -0.1250 -0.6420 -0.2396
24506SOL    HW191128  13.939   9.103  13.364 -2.4055  1.3360 -1.5790
24506SOL    HW291129  13.922   9.032  13.496  1.8649 -1.3788 -2.2919
24507SOL     OW91130  10.776   9.710  11.408  0.2143 -0.3362 -0.0532
24507SOL    HW191131  10.798   9.767  11.482 -1.6051  0.1395  0.1788
24507SOL    HW291132  10.730   9.767  11.346 -0.5144 -1.2571 -0.3955
24508SOL     OW91133   6.931  13.159   5.740 -0.2989  0.3836  0.1886
24508SOL    HW191134   6.949  13.137   5.649  2.8220  1.1722  0.5281
24508SOL    HW291135   6.853  13.215   5.736 -0.8008 -0.3639 -1.8351
24509SOL     OW91136  12.847   8.646   5.295  0.9147  0.2618 -0.2646
24509SOL    HW191137  12.783   8.692   5.241  0.9218  0.7663  0.1520
24509SOL    HW291138  12.907   8.714   5.325  0.5057  0.1166  0.9546
24510SOL     OW91139   2.007   1.318   1.697 -0.0235  0.0319  0.3297
24510SOL    HW191140   2.065   1.244   1.717 -0.1777 -0.2408 -0.2094
24510SOL    HW291141   2.050   1.393   1.738  1.4791  0.0923 -1.2432
24511SOL     OW91142   2.983   2.930   1.301  0.0702 -0.0422  0.7893
24511SOL    HW191143   3.010   2.938   1.209  1.8086 -1.0153  1.1755
24511SOL    HW291144   2.888   2.925   1.297 -0.0193  1.7141 -0.8070
24512SOL     OW91145   9.867   8.352   4.654 -0.0183  0.6922 -0.1047
24512SOL    HW191146   9.837   8.262   4.641 -0.9914  0.8916  0.6048
24512SOL    HW291147   9.813   8.385   4.726  1.3639  1.3626  0.6828
24513SOL     OW91148   3.949  12.923   3.965  1.1655 -0.1759 -0.1223
24513SOL    HW191149   4.043  12.903   3.963  1.3350  0.5764 -2.3867
24513SOL    HW291150   3.918  12.904   3.876 -0.3314  1.7101 -0.0677
24514SOL     OW91151   4.513   3.677  12.468  0.1464  0.0554  0.1648
24514SOL    HW191152   4.473   3.592  12.449  0.4024 -0.6491  2.3960
24514SOL    HW291153   4.447   3.742  12.443 -0.8182 -0.9015  0.1514
24515SOL     OW91154   9.342  11.270   0.671  0.3785 -0.2605 -0.0157
24515SOL    HW191155   9.424  11.305   0.708  0.5021 -0.5130 -0.0523
24515SOL    HW291156   9.364  11.249   0.581 -0.2236  1.4419 -0.6088
24516SOL     OW91157   0.650   8.212  11.190  0.1913 -0.0649 -0.1065
24516SOL    HW191158   0.713   8.257  11.135 -0.0927 -0.1840 -0.5306
24516SOL    HW291159   0.570   8.208  11.138  0.3922 -1.6750 -0.3679
24517SOL     OW91160  11.258   0.374   0.902  0.0814  0.4169  0.1411
24517SOL    HW191161  11.204   0.297   0.883  3.0506 -1.4014 -1.7495
24517SOL    HW291162  11.299   0.354   0.986 -0.2383  0.6321  0.3511
24518SOL     OW91163   6.198  13.105   7.788 -0.5129 -0.3736  0.1625
24518SOL    HW191164   6.202  13.189   7.834 -0.1564  0.7909 -1.8655
24518SOL    HW291165   6.150  13.124   7.708  1.5907 -1.5050 -1.4820
24519SOL     OW91166   2.285   3.280   7.238  0.4203  0.4799  0.4458
24519SOL    HW191167   2.331   3.340   7.297  1.5961  0.0017  0.0403
24519SOL    HW291168   2.346   3.265   7.166 -0.4961  0.0607 -0.2705
24520SOL     OW91169   2.028  12.337   8.326  0.2635 -0.2257 -0.2381
24520SOL    HW191170   2.063  12.253   8.296  0.5914 -0.6052  1.1389
24520SOL    HW291171   1.933  12.328   8.317  0.3561 -0.2337 -1.3476
24521SOL     OW91172   3.266   9.919   1.581 -0.7699 -0.0209  0.4096
24521SOL    HW191173   3.298   9.833   1.610 -1.4916  0.3089  2.3636
24521SOL    HW291174   3.191   9.936   1.638 -0.8128  1.7874 -0.1448
24522SOL     OW91175  13.459  10.009   0.202  0.4916  0.2628 -0.4861
24522SOL    HW191176  13.423  10.043   0.120  2.7626  0.0599 -1.6777
24522SOL    HW291177  13.469  10.086   0.258 -0.8536  0.4444 -0.4819
24523SOL     OW91178   8.720   7.964   5.111 -0.4568 -0.1852  0.0521
24523SOL    HW191179   8.673   8.025   5.054 -0.9397 -1.3616 -0.8516
24523SOL    HW291180   8.809   7.963   5.077 -0.5136 -0.1817 -0.0963
24524SOL     OW91181   0.928   9.986   9.583 -0.3839  0.4451 -0.7798
24524SOL    HW191182   0.965  10.043   9.651 -0.5290  1.3237 -1.4154
24524SOL    HW291183   0.863  10.041   9.539 -0.5927 -0.2488 -1.3483
24525SOL     OW91184   8.952   0.575  13.913 -0.2081  0.2155  0.9989
24525SOL    HW191185   8.992   0.526  13.984 -0.6342 -1.3483  0.2141
24525SOL    HW291186   8.908   0.649  13.955  0.7864  0.1452  2.1839
24526SOL     OW91187   5.718  11.788  11.749 -0.4871  0.0336 -0.3467
24526SOL    HW191188   5.646  11.850  11.760 -1.1624 -0.8548  0.4216
24526SOL    HW291189   5.781  11.813  11.816  0.5049  1.5567 -1.7774
24527SOL     OW91190  11.626   9.910   7.157 -0.1243  0.1656 -0.1425
24527SOL    HW191191  11.663   9.872   7.077  1.2325  1.2420 -0.0619
24527SOL    HW291192  11.557   9.849   7.183 -0.4664 -0.3000 -2.0290
24528SOL     OW91193   1.673  11.653  12.666 -0.2425 -0.2891 -0.4594
24528SOL    HW191194   1.599  11.708  12.640 -0.6430 -0.6402 -0.0720
24528SOL    HW291195   1.698  11.686  12.752  0.6525  0.4352 -0.9891
24529SOL     OW91196   9.959  13.161   8.674 -0.2493  0.0585 -0.0931
24529SOL    HW191197   9.893  13.231   8.678 -0.9869 -0.6402  0.3636
24529SOL    HW291198   9.908  13.080   8.671  0.5776 -0.4472 -1.4807
24530SOL     OW91199  10.138   5.379  13.648  0.2668  0.1639 -0.1011
24530SOL    HW191200  10.110   5.290  13.668  0.0897  0.5944  1.7023
24530SOL    HW291201  10.060   5.421  13.613  0.6291 -0.6590 -2.0096
24531SOL     OW91202   1.107  13.501   1.183  0.2848 -0.4735 -0.3588
24531SOL    HW191203   1.158  13.515   1.103  0.6859 -0.9949 -0.2045
24531SOL    HW291204   1.120  13.408   1.203  0.9488 -0.1393  0.8305
24532SOL     OW91205   5.018   1.459   4.763 -0.4130  0.4852  0.2816
24532SOL    HW191206   5.002   1.472   4.670 -0.6442  0.6287  0.3401
24532SOL    HW291207   4.939   1.493   4.806 -1.5045 -1.9907  0.4060
24533SOL     OW91208   3.993  10.772   6.325 -0.6867 -0.3947 -0.3179
24533SOL    HW191209   3.999  10.796   6.417 -0.1869 -0.4189 -0.3414
24533SOL    HW291210   3.917  10.820   6.293 -0.1047  0.6406 -0.1939
24534SOL     OW91211   7.125   0.385   4.455 -0.1491 -0.0984  0.0005
24534SOL    HW191212   7.104   0.363   4.365 -1.8912  1.3808 -0.0140
24534SOL    HW291213   7.129   0.301   4.500 -0.6348 -0.7747 -1.1796
24535SOL     OW91214  10.864   4.307  13.186  0.2876  0.1564  0.4954
24535SOL    HW191215  10.810   4.339  13.259 -0.8424 -2.1693  0.7671
24535SOL    HW291216  10.803   4.258  13.131  1.6910 -0.6151 -0.4284
24536SOL     OW91217   2.897  12.975   8.064  0.5623 -0.3278  0.2279
24536SOL    HW191218   2.860  13.005   8.147  2.4959  1.4505  0.5164
24536SOL    HW291219   2.869  12.883   8.058 -1.6129  0.1525  1.6416
24537SOL     OW91220   7.076   0.276   9.222  0.0759  0.0882  0.2119
24537SOL    HW191221   7.139   0.217   9.180  0.5987  0.6392  0.2045
24537SOL    HW291222   7.114   0.295   9.308 -0.4543 -0.1689  0.5042
24538SOL     OW91223   4.149   4.647   2.165  0.3517 -0.3278 -0.1488
24538SOL    HW191224   4.122   4.735   2.191 -0.1861 -0.3687 -0.5538
24538SOL    HW291225   4.199   4.614   2.240 -0.3275 -0.0708  0.4309
24539SOL     OW91226   2.762  12.708  12.932  0.1756 -0.1683 -0.3199
24539SOL    HW191227   2.736  12.773  12.998  1.3801  0.1404 -0.1289
24539SOL    HW291228   2.836  12.662  12.971 -0.2043 -1.1803 -0.7560
24540SOL     OW91229   0.942  12.508   1.654 -0.2914  0.1934  0.2343
24540SOL    HW191230   0.880  12.556   1.599  0.8832  1.2309 -0.2120
24540SOL    HW291231   0.888  12.471   1.723 -1.5154  0.4888 -0.5297
24541SOL     OW91232  13.101   6.635   0.538 -0.1190  0.3115 -0.0432
24541SOL    HW191233  13.014   6.611   0.571 -0.9944 -0.0350 -2.4084
24541SOL    HW291234  13.136   6.694   0.605 -2.4372  0.9798  0.7066
24542SOL     OW91235   3.758  12.370  13.450  0.0430 -0.3002  0.1009
24542SOL    HW191236   3.827  12.367  13.384 -0.9251  1.1923 -1.0490
24542SOL    HW291237   3.796  12.327  13.527  2.7687  1.6328 -0.0187
24543SOL     OW91238   1.722   8.091  11.008  0.3060  0.0817  0.0851
24543SOL    HW191239   1.701   8.032  11.080  3.1132 -0.9956  0.1522
24543SOL    HW291240   1.679   8.053  10.932  0.7869 -1.1723  0.4250
24544SOL     OW91241  12.865  12.994   5.400  0.2655 -0.4637 -0.1652
24544SOL    HW191242  12.769  13.004   5.400  0.0325 -2.2167  1.1567
24544SOL    HW291243  12.887  12.977   5.491  2.0869  1.4599 -0.1686
24545SOL     OW91244   4.092   7.032  11.785 -0.2177  0.4198 -0.1529
24545SOL    HW191245   4.160   7.024  11.718 -0.7294 -0.7472 -0.5647
24545SOL    HW291246   4.129   6.988  11.862 -0.3089  0.1968 -0.2335
24546SOL     OW91247   7.060  14.012   2.084  0.6414 -0.0672  0.4564
24546SOL    HW191248   6.989  13.954   2.111  1.2765 -1.2415 -0.2719
24546SOL    HW291249   7.099  13.968   2.009  1.6152  0.9641  0.3304
24547SOL     OW91250  13.260  10.211   6.518 -0.4124  0.7103 -0.0528
24547SOL    HW191251  13.190  10.146   6.516  0.7348 -0.5548 -0.6052
24547SOL    HW291252  13.248  10.256   6.602 -1.1564 -0.3139  0.4110
24548SOL     OW91253  10.806   3.318   2.011  0.0339 -0.0286  0.5512
24548SOL    HW191254  10.747   3.390   2.036  0.8625  0.2599  1.7469
24548SOL    HW291255  10.748   3.254   1.968 -0.6144  1.6123 -1.1666
24549SOL     OW91256  10.652  11.830  11.195  0.3260 -0.1065  0.6577
24549SOL    HW191257  10.678  11.921  11.187  0.0143  0.0717  1.5725
24549SOL    HW291258  10.689  11.787  11.118 -0.6917  1.0489 -0.5075
24550SOL     OW91259  13.125   0.542  14.082  0.2093  0.2402 -0.3956
24550SOL    HW191260  13.106   0.599  14.008 -0.0037  1.7743  0.8023
24550SOL    HW291261  13.219   0.527  14.077  0.3232  0.9692 -0.5348
24551SOL     OW91262  12.864   2.914  10.891  0.0081  0.3326  0.1977
24551SOL    HW191263  12.784   2.911  10.944  0.4079 -0.1511  0.7973
24551SOL    HW291264  12.904   2.828  10.903 -0.0095  0.1298 -1.1001
24552SOL     OW91265   8.420  10.907  12.888 -0.5532 -0.1256 -0.5029
24552SOL    HW191266   8.332  10.933  12.860 -1.1828 -1.0433  0.5158
24552SOL    HW291267   8.457  10.863  12.812 -0.0054  2.3442 -1.7743
24553SOL     OW91268   6.788   1.418  11.378 -0.2689  0.5225  0.4013
24553SOL    HW191269   6.823   1.331  11.396 -0.8682  0.6559  2.4489
24553SOL    HW291270   6.694   1.411  11.394 -0.4062  1.3994  0.0338
24554SOL     OW91271  11.355   1.756   0.971  0.1601  0.2030 -0.1359
24554SOL    HW191272  11.441   1.796   0.979 -0.6741  2.0952 -0.2403
24554SOL    HW291273  11.344   1.740   0.877  0.4785 -0.2534 -0.0977
24555SOL     OW91274   1.681   6.407  10.380  0.5314  0.3145 -0.0872
24555SOL    HW191275   1.629   6.470  10.330  0.2025 -0.4033 -0.6692
24555SOL    HW291276   1.703   6.453  10.461  3.1134  2.4212 -1.7869
24556SOL     OW91277  10.389   8.974   1.523 -0.2894 -0.5950  0.0894
24556SOL    HW191278  10.376   8.895   1.574 -1.0888 -0.4702  0.0850
24556SOL    HW291279  10.472   9.010   1.556 -1.3284  0.0900  2.1125
24557SOL     OW91280  10.950  11.973  10.403 -0.2023  0.2524 -0.2396
24557SOL    HW191281  11.041  11.950  10.423  0.0296 -0.1394 -1.6340
24557SOL    HW291282  10.951  12.069  10.395  0.0621  0.2606 -0.1173
24558SOL     OW91283   5.542  13.627  11.506 -0.2046 -0.3770 -0.2147
24558SOL    HW191284   5.625  13.675  11.504 -0.0640 -0.3107  2.7693
24558SOL    HW291285   5.534  13.590  11.418  2.8347 -0.1545 -0.7056
24559SOL     OW91286   6.815   3.897  13.858 -0.2620  0.4567  0.1076
24559SOL    HW191287   6.788   3.987  13.874 -0.4613  0.2004  1.2467
24559SOL    HW291288   6.764   3.844  13.919  1.1905 -0.2521  0.7679
24560SOL     OW91289   9.029   3.638   5.601  0.4235 -0.5670  0.8189
24560SOL    HW191290   8.981   3.649   5.519  1.8785 -1.8651 -0.2510
24560SOL    HW291291   8.969   3.588   5.657 -0.0579 -0.8487  0.0647
24561SOL     OW91292   2.612  12.445   0.883  0.3864  0.0811 -0.6140
24561SOL    HW191293   2.596  12.501   0.807 -0.5135  1.5353  0.6063
24561SOL    HW291294   2.682  12.489   0.931 -1.5916  1.2641  1.3360
24562SOL     OW91295   1.593   4.442   8.640  0.4467  0.7184  0.1820
24562SOL    HW191296   1.539   4.363   8.632  1.0151  0.3819 -0.3721
24562SOL    HW291297   1.639   4.448   8.556  0.1890  1.8070  0.1024
24563SOL     OW91298   6.432   3.763   1.270  0.0007  0.2390 -0.5710
24563SOL    HW191299   6.507   3.802   1.314  0.5028 -0.5824 -0.6755
24563SOL    HW291300   6.468   3.727   1.189 -0.1649 -1.5927  0.1244
24564SOL     OW91301  11.133   4.069  11.901  0.0263 -0.4406  0.0659
24564SOL    HW191302  11.072   4.136  11.931 -1.1582 -1.6953  0.5338
24564SOL    HW291303  11.122   3.997  11.963 -0.3007 -1.9237 -1.6410
24565SOL     OW91304  11.126   9.012   3.497 -0.2601  0.3426 -0.3300
24565SOL    HW191305  11.047   9.018   3.443 -0.4758  0.2925 -0.0217
24565SOL    HW291306  11.190   8.969   3.440  0.0676  1.8959 -1.1696
24566SOL     OW91307  13.833   0.792   6.365  0.5142  0.0201  0.0880
24566SOL    HW191308  13.769   0.855   6.331 -0.1364 -0.0688  1.0924
24566SOL    HW291309  13.844   0.816   6.457  1.4580 -0.3656  0.0913
24567SOL     OW91310   9.062   5.160   4.444  0.3719  0.6806 -0.3401
24567SOL    HW191311   9.029   5.071   4.435  1.4294  0.2044  0.3529
24567SOL    HW291312   8.998   5.214   4.397 -0.0984 -0.4689 -1.0571
24568SOL     OW91313   6.144   2.368   9.936  0.0619 -0.2284  0.2191
24568SOL    HW191314   6.111   2.342   9.850  0.2946 -1.8819  0.6045
24568SOL    HW291315   6.215   2.430   9.916 -1.1523  0.9396 -0.6870
24569SOL     OW91316  12.418   9.680   9.706 -0.4547  0.2239  0.1639
24569SOL    HW191317  12.387   9.600   9.665  0.7131 -0.1112 -0.0962
24569SOL    HW291318  12.379   9.750   9.653 -1.1299 -0.1685  0.1298
24570SOL     OW91319  13.635   9.157   9.711 -0.2038 -0.1581 -0.5194
24570SOL    HW191320  13.693   9.149   9.786 -1.9138 -0.0068  0.8901
24570SOL    HW291321  13.679   9.220   9.653  1.1310 -0.2533  0.3566
24571SOL     OW91322   2.913  10.709  10.849  0.0456  0.5776 -0.0561
24571SOL    HW191323   2.921  10.804  10.858 -0.7180  0.6286  0.1771
24571SOL    HW291324   2.883  10.697  10.758 -1.6875  0.6976  0.4659
24572SOL     OW91325   6.899   1.810   5.510  0.1703 -0.7349 -0.4373
24572SOL    HW191326   6.891   1.721   5.476 -0.2982  0.1935 -2.9972
24572SOL    HW291327   6.937   1.860   5.438  1.7792  0.9100  1.4142
24573SOL     OW91328   8.666  13.994   0.478 -0.1032 -0.3588 -0.0582
24573SOL    HW191329   8.635  14.068   0.425 -0.3938  0.4894  1.2627
24573SOL    HW291330   8.612  13.996   0.556 -1.2393 -2.9999 -0.6704
24574SOL     OW91331  13.160   1.086   2.647 -0.3667  0.2380  0.0938
24574SOL    HW191332  13.074   1.067   2.610 -0.5716 -1.8139  1.4721
24574SOL    HW291333  13.222   1.037   2.593 -0.5169 -1.4957  1.3930
24575SOL     OW91334   9.045   2.928   2.665  0.2999  0.2216  0.1277
24575SOL    HW191335   9.073   3.019   2.652  0.3926  0.0546 -0.9699
24575SOL    HW291336   9.023   2.923   2.758  2.1146  0.8543  0.6318
24576SOL     OW91337  10.700   7.640  13.327 -0.5118 -0.0483 -0.1057
24576SOL    HW191338  10.764   7.592  13.274 -0.5272 -0.1077 -0.0705
24576SOL    HW291339  10.621   7.587  13.322 -0.7681  0.3840 -0.7286
24577SOL     OW91340   1.089   4.984  10.236  0.7590  0.2147 -0.3629
24577SOL    HW191341   1.065   5.057  10.179  1.7819  0.6321 -0.2929
24577SOL    HW291342   1.041   5.000  10.318 -1.9296 -1.2023 -1.5331
24578SOL     OW91343  13.320   9.566   6.664  0.1651 -0.1876  0.3339
24578SOL    HW191344  13.336   9.481   6.624 -0.7955 -0.5270  0.6499
24578SOL    HW291345  13.407   9.605   6.673  0.8634 -1.9408  1.9998
24579SOL     OW91346   2.908  12.468  13.553  0.0908 -0.0623  0.2751
24579SOL    HW191347   2.927  12.506  13.639 -1.8632  0.1732  0.6429
24579SOL    HW291348   2.847  12.530  13.512 -2.4151 -2.2268  0.5022
24580SOL     OW91349   8.642   0.541  11.198  0.1217 -0.0794  0.0367
24580SOL    HW191350   8.552   0.547  11.228  0.3478  1.7879  0.4983
24580SOL    HW291351   8.694   0.578  11.270  1.2723 -1.1918 -0.1867
24581SOL     OW91352   1.704   5.321   6.768 -0.0478  0.5122  0.2764
24581SOL    HW191353   1.758   5.400   6.754 -0.3433  0.1937 -4.9851
24581SOL    HW291354   1.768   5.250   6.772  0.1252  0.6559  0.1485
24582SOL     OW91355  13.787  11.082  12.363  0.1557  0.3180  0.2966
24582SOL    HW191356  13.716  11.144  12.347  0.8169  0.6945 -1.5360
24582SOL    HW291357  13.773  11.012  12.299 -0.1754 -1.0972  1.8614
24583SOL     OW91358   9.658   5.897   6.172  0.1810 -0.1209  0.6975
24583SOL    HW191359   9.568   5.866   6.160 -0.3650  1.0219  1.6730
24583SOL    HW291360   9.651   5.972   6.230  1.8054 -0.1614  1.0134
24584SOL     OW91361   0.104   9.483  11.146 -0.2700 -0.2745 -0.0571
24584SOL    HW191362   0.087   9.486  11.052  0.5835  0.3333 -0.2052
24584SOL    HW291363   0.032   9.431  11.182 -1.4043  0.6740 -0.8687
24585SOL     OW91364   7.554  12.078   7.672  0.2073 -0.2142 -0.2810
24585SOL    HW191365   7.534  12.149   7.733  0.5564  0.4623 -0.9413
24585SOL    HW291366   7.637  12.041   7.705 -0.3827 -0.8647  0.5313
24586SOL     OW91367   5.974   3.202   1.574 -0.0587 -0.4520 -0.3973
24586SOL    HW191368   5.925   3.279   1.603 -1.6882 -2.0830  1.5076
24586SOL    HW291369   6.025   3.176   1.651 -1.1239 -2.4247 -0.3090
24587SOL     OW91370   4.450   6.975   0.106  0.4634  0.9365  0.0375
24587SOL    HW191371   4.360   7.005   0.094  0.2458  0.4548  0.4130
24587SOL    HW291372   4.501   7.055   0.115  0.1955  1.2302 -1.0209
24588SOL     OW91373  12.603  12.466   5.801 -0.4773 -0.3539 -0.1364
24588SOL    HW191374  12.566  12.381   5.780  1.3448 -0.8194 -1.7667
24588SOL    HW291375  12.697  12.452   5.802 -0.1710  1.4374  0.5824
24589SOL     OW91376   8.375  12.288   9.849 -0.0262  0.1510  0.1189
24589SOL    HW191377   8.321  12.241   9.914 -0.8944  0.5786 -0.2790
24589SOL    HW291378   8.341  12.258   9.764 -0.4360  1.3135 -0.1386
24590SOL     OW91379  13.365   9.738   3.685  0.1183 -0.0131  0.2315
24590SOL    HW191380  13.387   9.794   3.759 -0.1818  0.4834 -0.0475
24590SOL    HW291381  13.331   9.658   3.725 -0.3221  0.3683  0.6319
24591SOL     OW91382   3.625   5.815   5.045  0.1858  0.2501 -0.1140
24591SOL    HW191383   3.710   5.856   5.059  1.2878 -1.7417 -0.6137
24591SOL    HW291384   3.628   5.785   4.955 -1.2093  0.4301 -0.2396
24592SOL     OW91385  13.404   1.580   8.461 -0.9879 -0.4074  0.1481
24592SOL    HW191386  13.345   1.520   8.416 -1.6906 -0.0924  0.6359
24592SOL    HW291387  13.351   1.619   8.530  0.0987 -0.9738  1.3517
24593SOL     OW91388   9.070   0.704  13.702 -0.3677  0.0940 -0.1623
24593SOL    HW191389   9.027   0.655  13.772  0.8506 -1.1235 -0.2286
24593SOL    HW291390   9.103   0.783  13.744  0.7434 -0.8300  0.7778
24594SOL     OW91391   4.938  10.155   6.745 -0.4211 -0.5027  0.5266
24594SOL    HW191392   4.976  10.150   6.657 -0.9611 -0.2126  0.2662
24594SOL    HW291393   4.950  10.246   6.771  2.0879 -1.1347  1.8663
24595SOL     OW91394  11.190   2.363   3.918 -0.2017 -0.5963  0.2977
24595SOL    HW191395  11.157   2.326   4.000 -2.2538  0.8947  0.2127
24595SOL    HW291396  11.133   2.328   3.850  1.4409 -1.7699 -0.5525
24596SOL     OW91397  13.268  10.454   0.524  0.0124 -0.2858  0.1725
24596SOL    HW191398  13.253  10.367   0.488 -1.4444 -0.1763  0.4598
24596SOL    HW291399  13.205  10.462   0.595  0.6379  0.7357  0.6377
24597SOL     OW91400   3.864   3.268   0.368 -0.1825  0.5487 -0.0078
24597SOL    HW191401   3.769   3.268   0.356 -0.0454  2.3700 -1.7241
24597SOL    HW291402   3.881   3.192   0.422 -2.5699 -0.1433 -0.0926
24598SOL     OW91403   1.330  13.893  12.609 -0.1039 -0.8781  0.2443
24598SOL    HW191404   1.399  13.943  12.653  1.1919 -0.5175 -2.0294
24598SOL    HW291405   1.325  13.811  12.657  0.9608 -0.3765  1.2614
24599SOL     OW91406  13.796  11.946  11.543  0.2916  0.2351 -0.3090
24599SOL    HW191407  13.871  11.997  11.572  0.2667 -0.9094  1.9298
24599SOL    HW291408  13.813  11.857  11.574 -1.7878 -0.1527 -0.1137
24600SOL     OW91409   3.256   6.836   3.617 -0.2304  0.4278  0.3618
24600SOL    HW191410   3.181   6.830   3.676 -0.5430 -0.4998 -0.1114
24600SOL    HW291411   3.241   6.768   3.551  0.7521  0.5950 -0.0610
24601SOL     OW91412  12.809   3.733   9.809 -0.6919 -0.3595  0.8352
24601SOL    HW191413  12.756   3.733   9.729 -0.2963 -0.5531  0.5745
24601SOL    HW291414  12.873   3.663   9.796  0.7123  0.9592  0.4533
24602SOL     OW91415   3.079  10.392   1.889 -0.0219 -0.6980 -0.2371
24602SOL    HW191416   3.096  10.427   1.976 -0.4368  0.1662 -0.4953
24602SOL    HW291417   3.165  10.389   1.847  0.0716 -0.3533 -0.0757
24603SOL     OW91418   5.172  11.646   8.687 -0.1198 -0.3506  0.1205
24603SOL    HW191419   5.225  11.654   8.608 -1.2161  0.0862 -0.5910
24603SOL    HW291420   5.084  11.672   8.660 -0.3587  0.5925  1.6629
24604SOL     OW91421   3.524   9.653   3.582  0.6186  1.0724  0.2941
24604SOL    HW191422   3.614   9.661   3.548  0.9292  0.6297  0.9924
24604SOL    HW291423   3.479   9.730   3.548  0.7616  0.3714 -1.6063
24605SOL     OW91424   6.820  12.976   0.927  0.5429 -0.1197  0.0792
24605SOL    HW191425   6.796  12.989   1.019 -1.9516  0.3162 -0.5621
24605SOL    HW291426   6.913  12.955   0.929  0.1015 -2.3875  2.9000
24606SOL     OW91427  10.243   1.235   5.006  0.3226  0.5860 -0.5026
24606SOL    HW191428  10.288   1.152   5.023  0.0264  0.6153  0.4977
24606SOL    HW291429  10.173   1.238   5.071 -0.3477  1.1264 -1.2314
24607SOL     OW91430   7.688   1.881   4.122 -0.4180 -0.1039 -0.3246
24607SOL    HW191431   7.728   1.957   4.078  1.9239 -1.1079 -0.1091
24607SOL    HW291432   7.679   1.816   4.053  0.0731 -0.5093 -0.0171
24608SOL     OW91433   9.430   0.760   4.438  0.0563  0.0426  0.1548
24608SOL    HW191434   9.501   0.780   4.498  0.9751 -0.7043 -0.6418
24608SOL    HW291435   9.468   0.698   4.376 -1.5692 -1.1408  0.2782
24609SOL     OW91436   5.258   0.097   9.817 -0.0445 -0.2986  0.2634
24609SOL    HW191437   5.186   0.120   9.876  1.0019  1.1268  1.0339
24609SOL    HW291438   5.244   0.004   9.799 -1.7464 -0.1930  0.8406
24610SOL     OW91439  11.874  11.499   0.765  0.2850 -0.0658 -0.3227
24610SOL    HW191440  11.806  11.549   0.810  0.3018 -0.1697 -0.1820
24610SOL    HW291441  11.880  11.539   0.678 -0.0135 -0.1109 -0.3626
24611SOL     OW91442   2.609   6.049  12.318  0.3638 -0.4441 -0.4254
24611SOL    HW191443   2.652   6.053  12.403  1.1737  1.2916 -0.8702
24611SOL    HW291444   2.516   6.040  12.338  0.4722  0.7020  0.6614
24612SOL     OW91445  12.292   3.298   9.992  0.5565 -0.0640  0.4011
24612SOL    HW191446  12.219   3.314   9.932  0.0107 -0.4705  0.9365
24612SOL    HW291447  12.258   3.232  10.053  1.2084  0.0989  0.9487
24613SOL     OW91448  12.952   2.437   4.463  0.6005  0.6771  0.1549
24613SOL    HW191449  12.863   2.432   4.497  0.0114  1.0237 -1.2583
24613SOL    HW291450  12.984   2.523   4.490  0.9662  0.0973  1.6680
24614SOL     OW91451  11.331   4.046  10.438  0.0918 -0.7888  0.1699
24614SOL    HW191452  11.416   4.008  10.416  0.6755  0.0622  0.8383
24614SOL    HW291453  11.351   4.138  10.458 -0.8425 -0.7849  1.1863
24615SOL     OW91454   0.405   8.063   3.439  0.0505 -0.5052 -0.0024
24615SOL    HW191455   0.334   8.121   3.467  0.0884 -0.4421 -0.0388
24615SOL    HW291456   0.418   8.004   3.513  1.0593  0.5164  0.6545
24616SOL     OW91457   1.030   7.361   8.504 -0.2536  0.2143 -0.4558
24616SOL    HW191458   1.064   7.279   8.468  0.4480  1.0096 -1.6756
24616SOL    HW291459   1.079   7.429   8.459 -1.0471  1.3265  0.3074
24617SOL     OW91460   0.768   9.924  10.978 -0.4293 -0.6912  0.3341
24617SOL    HW191461   0.742   9.925  10.886 -0.0655  1.3281  0.2119
24617SOL    HW291462   0.839   9.861  10.982 -0.2403 -0.5696 -0.8394
24618SOL     OW91463   2.396  12.491   9.958 -0.5157 -0.0782  0.6720
24618SOL    HW191464   2.423  12.447  10.039 -2.8283 -1.2226  0.8977
24618SOL    HW291465   2.337  12.561   9.987  1.0581  1.5449  0.1189
24619SOL     OW91466   7.689  13.990   7.858  0.6200 -0.0339  0.2701
24619SOL    HW191467   7.724  14.071   7.894  1.6871  0.0252 -0.8069
24619SOL    HW291468   7.762  13.929   7.862  0.4843 -0.2969 -0.8668
24620SOL     OW91469  12.118  13.020  10.085  0.1581  0.2204  0.3819
24620SOL    HW191470  12.153  13.103  10.117  1.4977 -0.5706  1.0586
24620SOL    HW291471  12.057  12.992  10.154  0.9879 -0.1583  0.9825
24621SOL     OW91472   7.944  13.757  12.324 -0.7055 -0.1036 -0.1015
24621SOL    HW191473   7.859  13.714  12.327 -0.4513 -0.6346 -0.3666
24621SOL    HW291474   7.991  13.713  12.254  0.9457 -2.0367  2.0468
24622SOL     OW91475   2.792  13.507  11.599 -0.3431  0.5889 -0.5267
24622SOL    HW191476   2.852  13.435  11.616 -2.6200 -1.2761  0.1505
24622SOL    HW291477   2.760  13.533  11.685 -1.0894  1.0045 -0.9130
24623SOL     OW91478   3.117   2.803   4.699  0.0424  0.3867  0.3776
24623SOL    HW191479   3.059   2.770   4.767  0.9874 -1.0613  0.5315
24623SOL    HW291480   3.068   2.791   4.618  0.4581 -1.8227  0.3860
24624SOL     OW91481  13.408   3.282   5.344 -0.6387 -0.2505 -0.0828
24624SOL    HW191482  13.498   3.295   5.373 -0.5448 -1.6578  0.3453
24624SOL    HW291483  13.409   3.309   5.252  0.4445 -1.0516 -0.3340
24625SOL     OW91484  11.873   4.672   2.806 -0.2656  0.0192 -0.4890
24625SOL    HW191485  11.819   4.724   2.747  0.1158  0.3493 -0.5470
24625SOL    HW291486  11.897   4.595   2.754  0.6570  0.6439 -1.0190
24626SOL     OW91487   8.864   6.471   1.547  0.7792 -0.3186 -0.4613
24626SOL    HW191488   8.903   6.556   1.568 -1.6660  0.7478  0.2234
24626SOL    HW291489   8.856   6.427   1.631  1.4034 -0.9461 -0.7242
24627SOL     OW91490  13.354   4.021   3.465 -0.2034 -0.3367  0.0760
24627SOL    HW191491  13.421   4.024   3.397  1.0578 -0.2140  1.2897
24627SOL    HW291492  13.383   4.083   3.532  0.1464 -2.5093  2.0823
24628SOL     OW91493   4.090  10.902  10.549  0.2923  0.1789 -0.3248
24628SOL    HW191494   4.115  10.935  10.463 -0.2132  1.6127  0.0419
24628SOL    HW291495   3.995  10.891  10.545  0.2915  0.0447 -0.0127
24629SOL     OW91496   8.025  10.377  13.016  0.0267  0.2360  0.0067
24629SOL    HW191497   7.936  10.344  13.006  0.4888 -1.8360  1.8624
24629SOL    HW291498   8.072  10.346  12.939 -0.6764  0.7429 -0.6325
24630SOL     OW91499   2.769   2.742  11.205  0.2505 -0.0637 -0.7539
24630SOL    HW191500   2.676   2.728  11.222  0.0190  1.1042 -0.9916
24630SOL    HW291501   2.808   2.756  11.291  0.3664 -1.3631 -0.5750
24631SOL     OW91502   2.539   7.264   2.397 -0.1166 -0.6640  0.0250
24631SOL    HW191503   2.572   7.202   2.331  1.9184  1.8847 -1.5563
24631SOL    HW291504   2.614   7.284   2.451 -0.1539  1.7439 -0.6793
24632SOL     OW91505  10.276   0.010   0.299  0.0957 -0.1447 -0.7012
24632SOL    HW191506  10.289   0.059   0.380 -1.1336 -0.1032 -0.5014
24632SOL    HW291507  10.184   0.028   0.275  0.7945  0.9555 -2.8502
24633SOL     OW91508  13.267  13.938  12.177  0.1617  0.0058  0.4512
24633SOL    HW191509  13.357  13.946  12.207  0.5724 -0.2023 -0.6747
24633SOL    HW291510  13.220  14.010  12.221  0.8734  0.1308  1.0188
24634SOL     OW91511   4.135   9.163  13.063  0.2964 -0.8786  0.0900
24634SOL    HW191512   4.094   9.183  13.146  0.2568  1.0302 -0.3500
24634SOL    HW291513   4.087   9.086  13.030 -1.1093 -0.3442  0.8245
24635SOL     OW91514  12.315   9.532   6.250 -0.6013 -0.1509  0.1081
24635SOL    HW191515  12.294   9.473   6.178 -0.2108  0.7772 -0.7857
24635SOL    HW291516  12.267   9.496   6.325  0.4291 -2.1668 -0.1467
24636SOL     OW91517   2.861   0.110   0.203 -0.4863  0.2515  0.4622
24636SOL    HW191518   2.881   0.162   0.125  0.8069 -0.3356  0.3717
24636SOL    HW291519   2.770   0.131   0.223 -0.8795  0.3510 -1.2544
24637SOL     OW91520   2.583  11.589   9.450  0.5429 -0.5592 -0.2333
24637SOL    HW191521   2.649  11.572   9.518  1.4840  1.7365 -0.5008
24637SOL    HW291522   2.625  11.559   9.370  1.6885  1.5868 -0.5213
24638SOL     OW91523   4.235  13.301  11.123  0.0635 -0.0645 -0.4240
24638SOL    HW191524   4.171  13.247  11.077  0.4804 -1.3277  0.4134
24638SOL    HW291525   4.226  13.275  11.215  1.4979 -0.0020 -0.2433
24639SOL     OW91526   7.834  10.481   2.043  0.1070  0.1951  0.6268
24639SOL    HW191527   7.861  10.391   2.059 -1.4577 -0.5032 -0.3697
24639SOL    HW291528   7.897  10.514   1.979 -0.5470 -0.9787 -0.7007
24640SOL     OW91529   2.014   4.624   5.970 -0.3473  0.2128  0.2174
24640SOL    HW191530   2.058   4.636   6.054  0.8343  0.1573 -0.3692
24640SOL    HW291531   1.999   4.712   5.938  0.4047  0.2247 -0.1115
24641SOL     OW91532   9.095   7.424  13.343 -0.2765 -0.6500  0.6784
24641SOL    HW191533   9.011   7.391  13.314 -1.2156  0.7920  1.6225
24641SOL    HW291534   9.074   7.505  13.391  1.8718  1.8747 -2.1994
24642SOL     OW91535   2.832  12.081   1.319  0.4032 -0.0007 -0.0190
24642SOL    HW191536   2.887  12.023   1.267 -1.4997 -1.6603 -0.3227
24642SOL    HW291537   2.750  12.088   1.269  0.0252  1.7579  0.7567
24643SOL     OW91538   9.982   5.277  11.991  0.4894 -0.2944 -0.1491
24643SOL    HW191539   9.944   5.243  11.910 -0.4588  0.4120 -0.0193
24643SOL    HW291540  10.045   5.210  12.018  1.8109  0.0514 -2.1471
24644SOL     OW91541   5.388   1.203   7.229 -0.2707  0.0710 -0.9247
24644SOL    HW191542   5.480   1.194   7.205 -0.0608  0.6387 -0.3647
24644SOL    HW291543   5.349   1.253   7.157 -0.3020 -0.7860 -1.5084
24645SOL     OW91544   2.507   2.846   0.978 -0.3498  0.6959  0.2403
24645SOL    HW191545   2.426   2.862   1.026 -0.7806 -0.0998 -0.1981
24645SOL    HW291546   2.553   2.778   1.028 -0.1486  0.8531  0.2701
24646SOL     OW91547  10.077   9.347   3.321  0.4224  0.2368  0.0106
24646SOL    HW191548  10.007   9.409   3.341 -0.4864 -0.5335 -0.6775
24646SOL    HW291549  10.157   9.400   3.321 -0.2181  1.2264  0.3137
24647SOL     OW91550   8.800   6.767   8.312 -0.5423  0.6048  0.6543
24647SOL    HW191551   8.850   6.709   8.369  1.9901  1.9664 -0.0297
24647SOL    HW291552   8.841   6.756   8.226 -2.3680  0.7809 -0.2863
24648SOL     OW91553   7.716  10.805   1.600  0.8281  0.2637  0.6803
24648SOL    HW191554   7.704  10.900   1.601  1.0460  0.3018  0.0718
24648SOL    HW291555   7.752  10.785   1.687  1.6104  0.8555  0.5060
24649SOL     OW91556  11.032   6.096  10.207 -0.4337  0.6118 -0.5641
24649SOL    HW191557  11.112   6.043  10.204  1.1853  2.7358  1.6122
24649SOL    HW291558  11.047   6.158  10.278 -3.4368  2.0999 -1.0813
24650SOL     OW91559   5.628   3.031   8.534 -0.2275 -0.0859  0.3520
24650SOL    HW191560   5.570   3.016   8.609 -0.6877 -2.4510 -0.3962
24650SOL    HW291561   5.569   3.040   8.459  0.2807  0.8262  0.0531
24651SOL     OW91562   7.451   0.836   7.741 -0.2385  0.0383 -0.1583
24651SOL    HW191563   7.358   0.854   7.756  0.1993  2.0218  0.4753
24651SOL    HW291564   7.472   0.768   7.804 -0.4397  2.2867  2.5563
24652SOL     OW91565  10.176  14.048   8.217  0.4557 -0.9568 -0.3260
24652SOL    HW191566  10.157  13.956   8.235 -0.2280 -0.9839 -1.1492
24652SOL    HW291567  10.229  14.047   8.137 -0.3146 -0.5967 -0.8555
24653SOL     OW91568   0.733   7.027   3.698  0.9529 -0.4871  0.2061
24653SOL    HW191569   0.666   6.974   3.743  1.2922 -0.0395  1.2595
24653SOL    HW291570   0.809   6.969   3.691  0.3463 -1.1519 -1.3970
24654SOL     OW91571   9.312  10.489   1.696  0.5114 -0.2504  0.0545
24654SOL    HW191572   9.388  10.483   1.638  0.8732  0.9265  0.3884
24654SOL    HW291573   9.348  10.513   1.781 -0.2162  0.1948  0.2491
24655SOL     OW91574   1.173   4.101  10.923 -0.6280 -0.2458  0.3681
24655SOL    HW191575   1.262   4.075  10.900 -0.5454 -0.7055  1.1721
24655SOL    HW291576   1.118   4.063  10.854 -0.2874 -0.7485  0.3729
24656SOL     OW91577   7.955   3.769   3.649 -0.5796  0.4252 -0.1408
24656SOL    HW191578   8.006   3.850   3.649  0.3888 -0.1036 -2.5316
24656SOL    HW291579   7.976   3.727   3.733  2.1313  0.7352 -0.5811
24657SOL     OW91580   7.418   2.831   3.228  0.0332 -0.3937 -0.0061
24657SOL    HW191581   7.434   2.737   3.243 -1.7491 -0.6878  0.2794
24657SOL    HW291582   7.500   2.863   3.188  1.9350 -1.3300  2.8266
24658SOL     OW91583   2.916   8.325   0.302 -0.1687  0.2590  0.1684
24658SOL    HW191584   2.906   8.289   0.214 -2.6069 -1.3944  1.0210
24658SOL    HW291585   2.839   8.379   0.315 -0.1492  0.0147  1.4633
24659SOL     OW91586   3.980   8.915   6.105  0.1409  0.2765  0.0844
24659SOL    HW191587   4.034   8.918   6.026  0.9798 -0.9781  0.5775
24659SOL    HW291588   3.927   8.835   6.095 -0.4249  0.6040  0.3791
24660SOL     OW91589  10.001   2.209   4.465  0.3688  0.4722 -0.3497
24660SOL    HW191590  10.048   2.161   4.397 -0.7372 -0.4859 -0.4627
24660SOL    HW291591   9.952   2.276   4.417 -0.1252  0.0293 -0.4778
24661SOL     OW91592  11.389   5.055   6.630 -0.3239 -0.2517 -0.1951
24661SOL    HW191593  11.473   5.046   6.585 -0.4855  0.1158 -0.5680
24661SOL    HW291594  11.324   5.061   6.560 -0.5384  0.6794  0.0737
24662SOL     OW91595   0.581  11.868   7.891  0.5346 -0.0763 -0.0044
24662SOL    HW191596   0.659  11.813   7.885  0.1612 -0.5370 -0.6637
24662SOL    HW291597   0.508  11.808   7.881  0.1377  0.6830 -2.2761
24663SOL     OW91598  11.850   8.816   4.598  0.0283  0.1271  0.3238
24663SOL    HW191599  11.878   8.883   4.535 -1.5072 -0.9627 -1.6303
24663SOL    HW291600  11.756   8.829   4.607 -0.3248 -1.7862 -0.1584
24664SOL     OW91601  10.848   0.865  12.743 -0.3629  0.3145  0.2492
24664SOL    HW191602  10.754   0.853  12.744 -0.3390  0.1295  0.3413
24664SOL    HW291603  10.882   0.798  12.803 -0.1755  0.3921  0.2331
24665SOL     OW91604  12.155   5.946  13.757 -0.5437  0.2205  0.3640
24665SOL    HW191605  12.224   6.012  13.758 -0.6848  0.3901 -0.2085
24665SOL    HW291606  12.115   5.956  13.670 -0.3049 -0.8824  0.1148
24666SOL     OW91607   4.350  11.989   5.831 -0.0878  0.3860  0.3667
24666SOL    HW191608   4.326  12.051   5.762 -0.3387  0.3067  0.3780
24666SOL    HW291609   4.279  11.996   5.895 -1.2508 -1.4183 -0.6223
24667SOL     OW91610  10.758   4.231  10.759 -0.7356  0.3599  0.1128
24667SOL    HW191611  10.756   4.165  10.829  1.5913  1.1240  1.0161
24667SOL    HW291612  10.675   4.278  10.768 -0.3924  0.6515  2.6639
24668SOL     OW91613   4.259  12.095  12.574  0.0222 -0.1227 -0.0659
24668SOL    HW191614   4.353  12.110  12.585  0.2284 -0.6629 -1.0166
24668SOL    HW291615   4.231  12.057  12.658  0.6416  0.0487  0.2265
24669SOL     OW91616  12.594  11.328   7.194  0.3173 -0.1589  0.2128
24669SOL    HW191617  12.594  11.381   7.274  2.5724  0.9194 -0.4306
24669SOL    HW291618  12.596  11.392   7.123  1.5434 -1.0916 -0.6280
24670SOL     OW91619   6.993   3.821  12.816  0.3886 -0.2493 -0.8889
24670SOL    HW191620   6.978   3.739  12.769 -1.0611  0.1130 -1.0975
24670SOL    HW291621   6.926   3.881  12.782 -1.6414 -0.3380  2.5048
24671SOL     OW91622   4.621   2.804   8.955  0.1715  0.4762 -0.1148
24671SOL    HW191623   4.568   2.735   8.996  0.4525 -0.5379 -1.4002
24671SOL    HW291624   4.695   2.816   9.015  0.4803 -0.8415 -0.1981
24672SOL     OW91625  13.791  12.904   4.717 -0.7718  0.3442 -0.4634
24672SOL    HW191626  13.820  12.837   4.655 -0.0592 -1.4877  1.6959
24672SOL    HW291627  13.702  12.877   4.741  0.5785 -1.9166  2.7952
24673SOL     OW91628   8.673  13.340  11.739 -0.0515  0.5683  0.5536
24673SOL    HW191629   8.595  13.332  11.683  0.2589 -0.0111  0.1930
24673SOL    HW291630   8.674  13.258  11.789  1.3284 -0.2728 -0.7591
24674SOL     OW91631   8.851   8.506   2.190  0.2251  0.2823  0.4253
24674SOL    HW191632   8.851   8.414   2.163 -0.5781  0.7839 -1.4743
24674SOL    HW291633   8.766   8.519   2.233  0.3443  0.1389  0.7061
24675SOL     OW91634  11.793   3.479  11.611 -0.3917 -0.6874 -1.0179
24675SOL    HW191635  11.777   3.459  11.519 -1.1388  1.6398 -1.4702
24675SOL    HW291636  11.706   3.501  11.647  0.2975  2.1163 -0.8136
24676SOL     OW91637   4.297   8.242  13.808  0.3881 -0.6958  0.0351
24676SOL    HW191638   4.224   8.304  13.806  0.7819 -0.2466 -0.8906
24676SOL    HW291639   4.266   8.170  13.863 -0.6461 -0.3945 -0.1363
24677SOL     OW91640  13.168  11.092   5.889 -0.4239  0.9403 -0.4013
24677SOL    HW191641  13.137  11.144   5.815 -1.7406  0.2078 -0.4005
24677SOL    HW291642  13.250  11.133   5.914 -0.9289  2.4114 -1.0172
24678SOL     OW91643   6.306  10.779   0.974  0.1078 -0.2098 -0.4892
24678SOL    HW191644   6.344  10.759   1.059  2.2432  2.3444 -0.7328
24678SOL    HW291645   6.235  10.840   0.992 -1.6057 -2.1124 -0.3713
24679SOL     OW91646   8.726   2.193  13.392 -0.1859  0.0059 -0.1317
24679SOL    HW191647   8.747   2.201  13.485 -1.3666  0.2928  0.1250
24679SOL    HW291648   8.631   2.198  13.388 -0.0948  1.5544 -1.4965
24680SOL     OW91649   5.702   1.986   2.304 -0.2332 -0.1983  0.1866
24680SOL    HW191650   5.712   2.069   2.258 -0.5589  0.5623  1.4613
24680SOL    HW291651   5.609   1.965   2.297 -0.1985 -0.3261  0.0947
24681SOL     OW91652   0.393   0.724   0.126 -0.1424  0.0786  0.6992
24681SOL    HW191653   0.404   0.648   0.070  1.5076  0.0599  1.0015
24681SOL    HW291654   0.360   0.689   0.209  0.4588 -0.2816  0.7860
24682SOL     OW91655   8.348  11.648  11.275  0.1358  0.6307 -0.5221
24682SOL    HW191656   8.306  11.719  11.323 -1.0343  0.1769 -0.8485
24682SOL    HW291657   8.399  11.602  11.342  0.8081  1.6799 -0.2842
24683SOL     OW91658  11.082   2.117   0.169  0.6652 -0.3909 -0.0361
24683SOL    HW191659  11.126   2.032   0.165  0.2976 -0.5827 -0.0104
24683SOL    HW291660  11.139   2.172   0.223  0.1995 -1.0399  1.1524
24684SOL     OW91661  10.150   8.577   6.691  0.0646  0.0090  0.2369
24684SOL    HW191662  10.190   8.660   6.665 -0.4852  0.4378  0.7454
24684SOL    HW291663  10.123   8.537   6.608  0.6415  0.1711 -0.0346
24685SOL     OW91664   1.146   9.314   3.128 -0.2911  0.7196 -0.2293
24685SOL    HW191665   1.191   9.235   3.097  0.7640  1.2737 -0.1466
24685SOL    HW291666   1.163   9.316   3.222 -0.9558  0.6549 -0.0990
24686SOL     OW91667   1.593   6.779   6.163 -0.0698 -0.3299 -0.1895
24686SOL    HW191668   1.661   6.712   6.170  0.3381  0.1526  0.6720
24686SOL    HW291669   1.569   6.797   6.254 -0.0582  0.8024 -0.3970
24687SOL     OW91670   0.940  13.678  14.003  0.7454 -0.2383  0.0157
24687SOL    HW191671   0.977  13.671  13.915 -1.5784 -2.2662 -0.9263
24687SOL    HW291672   0.871  13.744  13.995  0.0383 -0.9538  0.0838
24688SOL     OW91673   2.882   9.240   9.451 -0.3961 -0.5521  0.0999
24688SOL    HW191674   2.889   9.159   9.502  0.0476 -0.3834  0.3130
24688SOL    HW291675   2.858   9.210   9.363  1.4973 -1.0897 -0.2923
24689SOL     OW91676  12.726  10.916   7.200 -0.4284  0.0477  0.0497
24689SOL    HW191677  12.794  10.849   7.212 -0.9569 -0.1174  2.9915
24689SOL    HW291678  12.776  10.997   7.189  0.2143 -0.5430 -1.6507
24690SOL     OW91679   2.622   7.733  10.102  0.0087  0.6523  0.3924
24690SOL    HW191680   2.659   7.690  10.179 -1.3413  0.9657  1.2458
24690SOL    HW291681   2.527   7.719  10.109 -0.2681  1.8605 -0.4883
24691SOL     OW91682  12.819   5.354  13.998  0.5583  0.7824 -0.0696
24691SOL    HW191683  12.856   5.391  13.919 -1.3813  1.1988 -0.8439
24691SOL    HW291684  12.755   5.290  13.967  1.1981 -0.5361  1.2023
24692SOL     OW91685   9.883  12.468   3.296 -0.0855 -0.0729  0.6270
24692SOL    HW191686   9.931  12.528   3.240  0.2076  0.6785  1.6619
24692SOL    HW291687   9.849  12.523   3.367 -2.9216 -0.4435 -0.2915
24693SOL     OW91688  12.333   4.893  12.596  0.1520 -0.1869  0.2272
24693SOL    HW191689  12.283   4.975  12.591 -1.1092 -0.9129  0.5039
24693SOL    HW291690  12.385   4.893  12.516  0.9493  1.3552  0.7055
24694SOL     OW91691   4.807   0.954   8.256 -0.1588 -0.4243  0.1673
24694SOL    HW191692   4.804   0.968   8.350 -2.5461  1.5764 -0.1034
24694SOL    HW291693   4.736   0.893   8.238 -1.5249  1.3036 -0.5578
24695SOL     OW91694  11.582   6.079   7.056 -0.1232  0.4873 -0.3176
24695SOL    HW191695  11.655   6.108   7.110 -0.6637  1.2863  0.0108
24695SOL    HW291696  11.509   6.069   7.118  0.3117 -2.8778 -0.1677
24696SOL     OW91697   7.524   2.652  13.805 -0.3992  0.6127  0.1486
24696SOL    HW191698   7.568   2.684  13.883  1.0945 -0.9691  0.0108
24696SOL    HW291699   7.576   2.687  13.732  0.1792 -0.6063 -0.0373
24697SOL     OW91700  12.022   1.659   6.634 -0.8114 -0.4912 -0.2695
24697SOL    HW191701  12.098   1.716   6.645 -0.5707 -0.7682 -0.4900
24697SOL    HW291702  12.041   1.583   6.689 -0.4600 -1.0275 -1.1205
24698SOL     OW91703   8.747   1.459   6.132 -0.0815 -0.4184 -0.2474
24698SOL    HW191704   8.773   1.449   6.223  1.7549 -4.5128 -1.0146
24698SOL    HW291705   8.656   1.430   6.129 -1.3922  3.0201  0.6126
24699SOL     OW91706   2.025   8.766   6.588  0.3374 -0.0559 -0.1072
24699SOL    HW191707   2.116   8.793   6.599  0.0038  0.4134  2.1497
24699SOL    HW291708   2.012   8.698   6.654 -1.2096  0.6961  0.4165
24700SOL     OW91709  11.152   3.233   6.741 -0.4508 -0.1810 -0.2824
24700SOL    HW191710  11.092   3.232   6.815  0.7700  1.2354  0.7851
24700SOL    HW291711  11.117   3.300   6.682  0.4011  1.1661  0.6799
24701SOL     OW91712  12.333  10.977  11.104  0.0094  0.6089 -0.4381
24701SOL    HW191713  12.304  10.919  11.034  0.6879  0.4129 -0.5643
24701SOL    HW291714  12.274  11.052  11.099  0.2872  0.7769 -1.4751
24702SOL     OW91715   1.244  10.933   3.322 -0.3327  0.4786  0.0391
24702SOL    HW191716   1.162  10.948   3.368  0.8689  1.1536  2.0864
24702SOL    HW291717   1.243  10.840   3.301 -0.3408 -0.2250  2.7949
24703SOL     OW91718   7.655  11.842   6.310 -0.1058  0.4468 -0.0904
24703SOL    HW191719   7.687  11.842   6.401 -0.8378 -1.2802  0.2091
24703SOL    HW291720   7.721  11.794   6.261 -0.6789 -0.3824 -0.0695
24704SOL     OW91721   9.026   4.368  13.667 -0.4473  0.0844  0.0032
24704SOL    HW191722   9.037   4.437  13.601 -0.8773 -0.4708 -0.6612
24704SOL    HW291723   9.106   4.316  13.661 -0.5032  0.0102 -0.1210
24705SOL     OW91724   2.362   6.084   4.392  0.1979  0.4832  0.2438
24705SOL    HW191725   2.336   6.062   4.482 -0.0883 -0.9657 -0.1685
24705SOL    HW291726   2.457   6.096   4.397 -0.0455  2.3916  1.1005
24706SOL     OW91727  13.999   4.433   2.853  0.1572 -0.6232  0.1687
24706SOL    HW191728  13.919   4.483   2.840  0.9812  1.3168  1.8663
24706SOL    HW291729  13.988   4.355   2.800 -1.3793  1.1736 -2.3862
24707SOL     OW91730   2.389   9.719  14.013  1.1840  0.5572 -0.0410
24707SOL    HW191731   2.322   9.655  13.990 -0.8134  2.2238  0.8190
24707SOL    HW291732   2.377   9.790  13.950  0.6444  1.8490  1.4719
24708SOL     OW91733  12.315   5.415  11.603 -0.7057  0.5526 -0.1535
24708SOL    HW191734  12.342   5.323  11.606 -0.1648  0.6716 -1.0011
24708SOL    HW291735  12.337   5.450  11.689 -1.7647 -0.3297  0.5156
24709SOL     OW91736   1.254   3.335   7.153  0.0737 -0.6944  0.2249
24709SOL    HW191737   1.170   3.380   7.149 -0.1740 -1.1714 -0.1925
24709SOL    HW291738   1.290   3.344   7.065 -0.7245 -2.6536 -0.3731
24710SOL     OW91739   7.433   6.363   0.955 -0.0502  0.0576  0.1398
24710SOL    HW191740   7.390   6.315   0.884 -0.7102  1.2857 -0.3214
24710SOL    HW291741   7.422   6.307   1.031 -0.8543 -0.5126 -0.3713
24711SOL     OW91742   5.146   1.724   4.817 -0.1586  0.0107  0.1191
24711SOL    HW191743   5.215   1.743   4.753 -0.6817  1.9215  0.0526
24711SOL    HW291744   5.066   1.718   4.764 -0.3242 -0.2732  0.4002
24712SOL     OW91745  10.384   7.411   1.978  0.0723 -0.1512 -0.2078
24712SOL    HW191746  10.383   7.456   2.062  1.2822  1.2057 -0.8792
24712SOL    HW291747  10.291   7.400   1.956 -0.2935 -1.1477  1.5707
24713SOL     OW91748   0.928   6.753  13.840  0.1260 -0.1585 -0.2334
24713SOL    HW191749   0.945   6.790  13.753  1.1040  0.1143  0.0683
24713SOL    HW291750   0.932   6.658  13.826  0.5505 -0.1112 -0.4279
24714SOL     OW91751  12.873   4.240  10.638  0.5404 -0.5846  0.6537
24714SOL    HW191752  12.884   4.214  10.547 -0.6519  1.0874 -0.0171
24714SOL    HW291753  12.835   4.164  10.681 -0.1501 -0.9407 -0.5665
24715SOL     OW91754  10.351   0.458   9.512 -0.2143 -0.4062  0.7485
24715SOL    HW191755  10.427   0.441   9.455 -1.6895 -1.1295 -1.1102
24715SOL    HW291756  10.315   0.541   9.480 -0.4876 -0.3073  1.3043
24716SOL     OW91757   9.311   3.925  12.386  0.0521 -0.1035 -0.1073
24716SOL    HW191758   9.264   3.917  12.302 -0.2278  0.3246  0.0055
24716SOL    HW291759   9.398   3.890  12.368  0.1726  0.4998 -0.7344
24717SOL     OW91760  10.208   2.439   0.256  0.0183 -0.2310 -0.3293
24717SOL    HW191761  10.212   2.344   0.244  2.6204 -0.1205 -0.9762
24717SOL    HW291762  10.292   2.461   0.297 -0.2914  1.8558 -0.7201
24718SOL     OW91763   5.319  13.442  13.053  0.0967  0.5679  0.7603
24718SOL    HW191764   5.411  13.437  13.028 -0.2355 -1.4590 -0.2565
24718SOL    HW291765   5.274  13.470  12.974 -0.1635  1.6635  1.2843
24719SOL     OW91766  12.368   3.154   8.366 -0.1627  0.0853 -0.1393
24719SOL    HW191767  12.275   3.177   8.363  0.0994  1.4262  0.8308
24719SOL    HW291768  12.394   3.149   8.275 -1.2053 -0.4301 -0.4286
24720SOL     OW91769  12.591   4.329  10.303 -0.3003 -0.3030  0.6043
24720SOL    HW191770  12.669   4.355  10.352 -0.8669  2.1546  0.3232
24720SOL    HW291771  12.609   4.354  10.212 -1.9490  1.7789  0.7783
24721SOL     OW91772   9.149  13.856   3.620 -0.1600  0.0277 -0.8565
24721SOL    HW191773   9.092  13.896   3.554  0.7644  1.1301 -1.0347
24721SOL    HW291774   9.114  13.768   3.632 -2.0323  0.7369 -0.7783
24722SOL     OW91775  12.962   6.283  13.034  0.1230  0.0876 -0.2110
24722SOL    HW191776  12.872   6.315  13.031  0.7664  1.9693 -0.8832
24722SOL    HW291777  13.004   6.322  12.957  1.7281 -0.0766  0.5392
24723SOL     OW91778   8.907   7.496   3.146 -0.1846 -0.0788  0.2968
24723SOL    HW191779   8.823   7.532   3.117 -0.3232 -1.0426 -0.5279
24723SOL    HW291780   8.884   7.424   3.204  0.0958  0.8659  1.6327
24724SOL     OW91781   7.492   1.644  13.449  0.3716  0.1253  0.1015
24724SOL    HW191782   7.429   1.678  13.513  1.2957  0.2412  0.9870
24724SOL    HW291783   7.439   1.592  13.388 -0.9185  2.1011 -0.5739
24725SOL     OW91784   5.488  12.108   3.533  0.1776  0.2825  0.1470
24725SOL    HW191785   5.452  12.119   3.621  0.4370  0.3320  0.2464
24725SOL    HW291786   5.570  12.061   3.546 -0.7546 -1.5579 -0.2312
24726SOL     OW91787   5.063   1.831   1.314 -0.9520  0.0637  0.4080
24726SOL    HW191788   5.021   1.768   1.255  0.6007 -0.2381 -0.4435
24726SOL    HW291789   5.018   1.914   1.297 -2.8044 -0.7122  1.3036
24727SOL     OW91790   0.850   0.064   1.056 -0.0156 -0.4175 -0.2327
24727SOL    HW191791   0.773   0.083   1.109 -0.1178 -2.7242  0.5547
24727SOL    HW291792   0.916   0.128   1.085 -0.5614 -0.6272  1.5433
24728SOL     OW91793  11.650   2.458   7.711  0.2464  0.2302 -0.2459
24728SOL    HW191794  11.685   2.505   7.635  0.3946  1.0330  0.3048
24728SOL    HW291795  11.678   2.367   7.698 -2.1361 -0.2950 -2.6053
24729SOL     OW91796   6.838   4.605   2.032 -0.2257  0.5246 -0.3825
24729SOL    HW191797   6.815   4.615   1.939  1.7817  1.5525 -0.8337
24729SOL    HW291798   6.847   4.695   2.064  0.0247  0.1803  0.5505
24730SOL     OW91799   0.475   5.694   5.892 -0.0384 -0.1057 -0.0042
24730SOL    HW191800   0.555   5.720   5.937  0.0004  0.9054 -0.6253
24730SOL    HW291801   0.406   5.704   5.957  0.0700  0.9620 -0.0377
24731SOL     OW91802  11.050   5.235   4.289  0.1363  0.4639  0.0708
24731SOL    HW191803  11.101   5.314   4.271 -0.2117  0.4862 -0.9202
24731SOL    HW291804  11.098   5.190   4.357  0.3467  1.5278  0.6569
24732SOL     OW91805  13.430   3.930  10.078  0.4330 -0.2277  0.3125
24732SOL    HW191806  13.484   3.971  10.011  0.5783 -1.4833 -0.3625
24732SOL    HW291807  13.473   3.953  10.161  1.1857 -0.0407 -0.1227
24733SOL     OW91808   3.266   1.839   2.760  0.6522 -0.3956  0.3861
24733SOL    HW191809   3.278   1.752   2.799  2.2839  0.4220  1.8198
24733SOL    HW291810   3.344   1.853   2.707  0.9734  0.6428  1.1040
24734SOL     OW91811   9.222   8.509  10.340 -0.0200 -0.3680 -0.1738
24734SOL    HW191812   9.287   8.471  10.399  0.1343 -0.2609 -0.2739
24734SOL    HW291813   9.140   8.502  10.388  0.0424 -0.6241 -0.0989
24735SOL     OW91814   1.944   5.598  10.081  0.4466  0.0992  0.1789
24735SOL    HW191815   1.872   5.658  10.100  0.2923 -0.4067  1.3457
24735SOL    HW291816   2.011   5.620  10.146  0.8352 -0.2440 -0.1020
24736SOL     OW91817   6.849   7.097   4.145  0.1785  1.0305  0.4664
24736SOL    HW191818   6.770   7.136   4.109  0.3097  0.7418 -0.1480
24736SOL    HW291819   6.921   7.151   4.112  0.3619  0.2621 -0.4150
24737SOL     OW91820   6.871  13.392   4.850 -0.1847 -0.0489  0.5370
24737SOL    HW191821   6.829  13.467   4.809 -0.7153 -0.1316  0.9160
24737SOL    HW291822   6.799  13.331   4.868  0.3697 -1.1180 -0.7571
24738SOL     OW91823   1.370  11.342  10.630  0.4380 -0.9845  0.3311
24738SOL    HW191824   1.329  11.409  10.575  1.7432 -1.0971 -0.8191
24738SOL    HW291825   1.448  11.385  10.666  1.3272 -1.8876 -0.4800
24739SOL     OW91826  12.513   8.596   4.181 -0.0626  0.0100  0.3761
24739SOL    HW191827  12.563   8.672   4.209  0.2559  0.1562 -0.5612
24739SOL    HW291828  12.547   8.576   4.094 -0.3448 -1.0261  0.4919
24740SOL     OW91829   9.898  11.634   3.580 -0.5906  0.2227  0.3303
24740SOL    HW191830   9.860  11.561   3.530  2.3300 -1.5250  0.4717
24740SOL    HW291831   9.967  11.669   3.523  0.9489 -0.0045  1.9784
24741SOL     OW91832  11.487  12.883   9.232  0.3360  0.0343 -0.6646
24741SOL    HW191833  11.561  12.924   9.277 -0.9864  0.7886  0.9328
24741SOL    HW291834  11.443  12.831   9.300 -1.4296  0.7737 -1.1725
24742SOL     OW91835   1.535   1.655   6.007 -0.5582  0.5397  0.2465
24742SOL    HW191836   1.528   1.699   6.092 -1.5403  0.3346  0.2867
24742SOL    HW291837   1.449   1.616   5.993 -0.1303 -0.2022 -0.4292
24743SOL     OW91838   0.232   5.245   3.912  0.2610 -0.0261 -0.3868
24743SOL    HW191839   0.231   5.340   3.926 -0.0858  0.1536 -1.5374
24743SOL    HW291840   0.157   5.212   3.962  0.3289  0.3142 -0.0601
24744SOL     OW91841   9.218   2.905   0.327 -0.0112  0.4864 -0.0031
24744SOL    HW191842   9.154   2.976   0.325 -0.4372  0.1013 -0.0720
24744SOL    HW291843   9.298   2.944   0.292 -0.3695  0.8154 -0.4708
24745SOL     OW91844  10.763  13.190  11.961 -0.3240  0.5287 -1.1488
24745SOL    HW191845  10.707  13.250  11.911 -1.0345  1.1473  0.3381
24745SOL    HW291846  10.851  13.204  11.924 -0.3071  3.1205 -0.3395
24746SOL     OW91847  12.558   0.523   8.960 -0.2085 -0.4380  0.0996
24746SOL    HW191848  12.546   0.615   8.936 -1.1044 -0.2473  1.1896
24746SOL    HW291849  12.652   0.508   8.951 -0.1415  0.3910 -0.7372
24747SOL     OW91850   5.596   5.944   6.495 -0.5346  0.5207 -0.0977
24747SOL    HW191851   5.599   5.850   6.477 -0.4704  0.2042  1.4768
24747SOL    HW291852   5.564   5.982   6.413 -3.9736 -1.1795  0.3007
24748SOL     OW91853   0.896   4.928   7.837 -0.4661 -0.3342 -0.1055
24748SOL    HW191854   0.928   4.996   7.897  1.9474 -0.3353 -1.2770
24748SOL    HW291855   0.894   4.970   7.751 -0.5527 -1.2974 -0.5841
24749SOL     OW91856   3.540   0.344   5.039 -0.6416  0.5966 -0.2338
24749SOL    HW191857   3.516   0.302   5.122 -1.6165  1.0550 -0.2805
24749SOL    HW291858   3.629   0.377   5.054 -1.5712  2.5422  1.3744
24750SOL     OW91859   3.764  13.779   3.907  0.3434  0.1501  0.5883
24750SOL    HW191860   3.754  13.874   3.903  1.4842  0.2387 -0.7925
24750SOL    HW291861   3.676  13.745   3.893 -0.1453  0.9925  1.4938
24751SOL     OW91862  13.734   5.749   5.558 -0.0238  0.2204 -0.1587
24751SOL    HW191863  13.829   5.754   5.565 -0.0762 -0.3929  1.3529
24751SOL    HW291864  13.702   5.818   5.616 -0.5334  1.9993 -2.4278
24752SOL     OW91865  10.640  14.092  11.213 -0.1063  0.5673 -0.1937
24752SOL    HW191866  10.565  14.048  11.172 -1.1914  1.7197  0.4625
24752SOL    HW291867  10.694  14.021  11.247 -1.2403 -0.2903 -0.1229
24753SOL     OW91868  10.845   7.483   4.686  0.4082 -0.8251  0.7435
24753SOL    HW191869  10.820   7.452   4.773  1.0507 -1.8644  0.5719
24753SOL    HW291870  10.762   7.495   4.640  0.1019 -1.1306  1.2097
24754SOL     OW91871  11.599   8.223   4.246 -0.2632  0.3055  0.3598
24754SOL    HW191872  11.647   8.260   4.172 -0.2838  2.0780  1.1704
24754SOL    HW291873  11.534   8.165   4.207  2.2782 -1.9562 -0.8081
24755SOL     OW91874  11.440   4.678   1.838  0.0347  1.1461 -0.3888
24755SOL    HW191875  11.502   4.679   1.911 -0.8044 -2.0905  0.5509
24755SOL    HW291876  11.477   4.615   1.776 -1.8382 -0.2482 -0.1673
24756SOL     OW91877   9.921  14.088  12.797  0.4540  0.2249 -0.2114
24756SOL    HW191878   9.999  14.063  12.747  0.0893 -0.0760 -0.6307
24756SOL    HW291879   9.950  14.162  12.850  1.3504 -0.5901  0.4888
24757SOL     OW91880  12.782   2.726   4.827  0.7512  0.3505 -0.1940
24757SOL    HW191881  12.724   2.673   4.881  0.4360  1.2110  0.3296
24757SOL    HW291882  12.768   2.693   4.738 -1.1472  1.0192 -0.2015
24758SOL     OW91883  13.877   3.176  11.517 -0.6286  0.1120  0.0630
24758SOL    HW191884  13.844   3.223  11.441  0.5839  2.1137  0.7122
24758SOL    HW291885  13.969   3.202  11.524  0.7710 -3.9199 -0.6650
24759SOL     OW91886   2.285  11.901   3.633 -0.4629 -0.5448  0.4323
24759SOL    HW191887   2.222  11.863   3.694 -1.6035 -1.1403 -1.0613
24759SOL    HW291888   2.337  11.826   3.602  0.8044 -0.1056  1.3983
24760SOL     OW91889   8.164   4.889  11.348 -0.0855  0.0709 -0.4590
24760SOL    HW191890   8.143   4.908  11.439 -1.3144 -0.0188 -0.7051
24760SOL    HW291891   8.250   4.930  11.334 -0.0185  0.3334  0.6474
24761SOL     OW91892   1.718  12.817   8.059 -0.0853  0.4196  0.0633
24761SOL    HW191893   1.666  12.855   7.988  1.1857 -0.3379 -1.3581
24761SOL    HW291894   1.713  12.881   8.130 -0.3864  1.8466 -1.1880
24762SOL     OW91895   1.352   0.546   5.307 -0.2849 -0.2015 -0.1784
24762SOL    HW191896   1.437   0.576   5.277 -1.3441  0.7383 -2.4362
24762SOL    HW291897   1.303   0.626   5.327 -2.0460 -0.4084 -3.1384
24763SOL     OW91898  12.061   1.947  12.551 -0.7360 -0.6025  0.2667
24763SOL    HW191899  12.025   1.870  12.509 -1.1380 -1.5290  2.2026
24763SOL    HW291900  12.012   2.020  12.513 -0.1626 -1.2175 -1.7885
24764SOL     OW91901   4.008   1.203   0.723  0.2337  0.0993 -0.2658
24764SOL    HW191902   3.940   1.149   0.684 -0.5987  0.3039  0.8581
24764SOL    HW291903   4.090   1.164   0.693 -0.3713 -0.4972 -1.1712
24765SOL     OW91904  13.084   5.099   2.040  0.0818 -0.3579  0.7022
24765SOL    HW191905  13.115   5.045   2.113  2.3227 -2.2139 -1.4432
24765SOL    HW291906  13.159   5.105   1.981 -1.9201  0.1674 -1.9688
24766SOL     OW91907  11.621   5.251   5.717 -0.6810  0.4236  0.5455
24766SOL    HW191908  11.639   5.323   5.778 -1.0654 -1.2559  2.7334
24766SOL    HW291909  11.692   5.189   5.731 -1.4628 -0.5747  0.2130
24767SOL     OW91910   3.965   4.137  12.808 -0.0096  0.0484  0.1465
24767SOL    HW191911   4.036   4.115  12.747  0.9826 -0.2251  1.3415
24767SOL    HW291912   3.951   4.231  12.796  0.8307  0.1821  0.1501
24768SOL     OW91913   0.855   1.562   2.915 -0.4995  0.0580 -0.6953
24768SOL    HW191914   0.891   1.564   2.827 -1.1492 -0.0181 -0.9706
24768SOL    HW291915   0.925   1.595   2.971 -0.4471  1.1271 -1.3727
24769SOL     OW91916  10.190   2.898   3.301  0.6650  0.1596  0.4455
24769SOL    HW191917  10.276   2.860   3.287  0.6371  0.2853 -0.1323
24769SOL    HW291918  10.164   2.930   3.214 -0.3710 -0.7269  0.3991
24770SOL     OW91919  12.457   6.477  12.552 -0.1277  0.0648 -0.4282
24770SOL    HW191920  12.446   6.384  12.572  0.8933 -0.2152 -1.0784
24770SOL    HW291921  12.430   6.522  12.632 -0.5400 -0.7931 -0.0705
24771SOL     OW91922   5.053   2.784   9.824 -0.0066 -0.1307 -0.2132
24771SOL    HW191923   4.981   2.833   9.863  0.1125 -0.8441  0.9514
24771SOL    HW291924   5.037   2.789   9.730 -0.7260  0.9960 -0.0498
24772SOL     OW91925   8.819  11.585   8.986 -0.7789  0.1224  0.3877
24772SOL    HW191926   8.848  11.554   9.073  0.4715 -0.5305 -0.2320
24772SOL    HW291927   8.794  11.676   9.000  0.8531  0.4852  1.1563
24773SOL     OW91928  10.133  10.206   4.015 -0.0383 -0.1015  0.0952
24773SOL    HW191929  10.078  10.168   3.947 -0.1995  1.2199 -0.5418
24773SOL    HW291930  10.209  10.148   4.020  0.3893  0.2301 -1.8183
24774SOL     OW91931   6.767   0.278   7.948 -0.8619 -0.5349  0.1888
24774SOL    HW191932   6.764   0.362   7.902 -1.4284 -1.8212 -2.2983
24774SOL    HW291933   6.838   0.288   8.011  0.3152  1.2187 -1.3005
24775SOL     OW91934   0.859   1.805   9.613  0.1577  0.0159  0.2902
24775SOL    HW191935   0.942   1.814   9.565 -1.0846  0.8430 -1.8304
24775SOL    HW291936   0.842   1.711   9.614  1.3958 -0.2271  1.3093
24776SOL     OW91937  13.822   4.675   4.007 -0.0969  0.2935 -0.0681
24776SOL    HW191938  13.893   4.618   3.975 -1.1078 -1.5407  0.7709
24776SOL    HW291939  13.793   4.723   3.929 -0.8495 -2.2187 -1.4626
24777SOL     OW91940   2.263   9.462   8.296 -0.2014 -0.7054  0.2966
24777SOL    HW191941   2.344   9.478   8.249 -0.7867 -0.3854 -0.6376
24777SOL    HW291942   2.202   9.430   8.229 -0.9117 -0.7080  0.9271
24778SOL     OW91943  13.525  10.841  11.630 -0.2819  0.0299  0.3462
24778SOL    HW191944  13.611  10.884  11.621  0.2301 -0.9503  0.4454
24778SOL    HW291945  13.511  10.799  11.546  1.0023 -2.7692  1.4084
24779SOL     OW91946  11.860   3.381  12.298 -0.3083  0.3747 -0.3716
24779SOL    HW191947  11.775   3.338  12.298 -1.7526  3.0256  0.6795
24779SOL    HW291948  11.867   3.420  12.211 -0.6514  1.0446 -0.0988
24780SOL     OW91949  12.140   5.010  11.431 -0.2076 -0.3945  0.3720
24780SOL    HW191950  12.192   4.941  11.472 -1.7593 -1.6120  0.3627
24780SOL    HW291951  12.179   5.020  11.344  0.4108 -0.8339  0.5916
24781SOL     OW91952  13.789  13.804   1.917  0.0742  0.0325 -0.3781
24781SOL    HW191953  13.764  13.753   1.840 -0.3071  0.5675 -0.6156
24781SOL    HW291954  13.796  13.740   1.988  1.4152 -0.6269 -1.0597
24782SOL     OW91955   1.257   4.779   6.034 -0.0225 -0.3011  0.9538
24782SOL    HW191956   1.273   4.837   6.108 -2.2483  2.4499 -0.5021
24782SOL    HW291957   1.296   4.824   5.959  2.0000 -2.9029  0.3186
24783SOL     OW91958   7.666   5.390   4.715  0.5297 -0.2663 -0.2696
24783SOL    HW191959   7.587   5.341   4.739 -0.3997  2.0214  1.7118
24783SOL    HW291960   7.654   5.410   4.622 -1.8610  0.9388  0.1998
24784SOL     OW91961   0.336  13.041  13.399  0.6355  0.0412  0.3564
24784SOL    HW191962   0.399  13.103  13.362  1.2185 -0.1241  1.0496
24784SOL    HW291963   0.383  13.000  13.472 -0.5488  0.5048  1.4098
24785SOL     OW91964   5.007  10.457   8.827 -0.3696 -0.0453 -0.0074
24785SOL    HW191965   4.918  10.480   8.852  0.4024  0.5113  2.4445
24785SOL    HW291966   5.060  10.530   8.859  1.2403 -1.5030  0.7819
24786SOL     OW91967   1.281  12.308   1.571  0.7992 -0.0599 -0.4932
24786SOL    HW191968   1.311  12.396   1.546  1.1514  0.4321  1.4593
24786SOL    HW291969   1.354  12.270   1.619  0.9020 -1.7343 -1.8882
24787SOL     OW91970   8.740  10.451   6.962 -0.1649 -0.2905 -0.6461
24787SOL    HW191971   8.800  10.500   7.018  0.5801 -0.3626 -1.3678
24787SOL    HW291972   8.655  10.493   6.976  0.0312 -0.2221  0.4296
24788SOL     OW91973  10.559   3.759   0.364  0.3082  0.1505 -0.1684
24788SOL    HW191974  10.605   3.836   0.330  1.0452 -0.8593 -1.5627
24788SOL    HW291975  10.481   3.752   0.310  0.9581 -0.8615 -1.0238
24789SOL     OW91976   7.820   3.288  10.686 -0.4010 -0.2292  0.0530
24789SOL    HW191977   7.802   3.335  10.605 -1.9396 -1.4778 -0.3894
24789SOL    HW291978   7.763   3.330  10.751 -0.6317 -0.4795  0.0150
24790SOL     OW91979   7.629   0.864   1.295  0.3324  0.0006  0.2804
24790SOL    HW191980   7.711   0.887   1.251 -0.0017  0.9593  0.1301
24790SOL    HW291981   7.612   0.939   1.353 -0.9491  0.2937 -0.4366
24791SOL     OW91982   7.269   0.890  13.609  0.6390  0.4182  0.7454
24791SOL    HW191983   7.236   0.829  13.675  0.1583  0.3483  0.4488
24791SOL    HW291984   7.216   0.969  13.621  1.3090  0.8156  1.1773
24792SOL     OW91985   2.178   3.729   5.648 -0.5461  0.2836 -0.6778
24792SOL    HW191986   2.203   3.820   5.630 -1.3187  0.6923  0.2499
24792SOL    HW291987   2.260   3.680   5.641  0.5939  1.5574  2.1693
24793SOL     OW91988   0.868  13.778  12.335 -0.5703  0.7417  0.9726
24793SOL    HW191989   0.904  13.802  12.421 -1.1601 -1.1536  1.7809
24793SOL    HW291990   0.944  13.777  12.277  0.3665 -0.9517  2.1577
24794SOL     OW91991  12.666  10.501   1.887 -0.0471  0.2108  0.1390
24794SOL    HW191992  12.669  10.426   1.827 -1.2534 -0.7015  1.1489
24794SOL    HW291993  12.739  10.556   1.860 -0.1168 -0.5024 -1.7086
24795SOL     OW91994  13.243   6.619   2.289 -0.3241  0.1264 -0.0006
24795SOL    HW191995  13.182   6.575   2.347 -0.1736 -1.0252 -0.6889
24795SOL    HW291996  13.246   6.709   2.321 -0.2394 -0.4677  1.7719
24796SOL     OW91997  13.301  10.359   7.507  0.3516  0.4915  0.0121
24796SOL    HW191998  13.358  10.286   7.531 -0.5149  0.0198  0.7470
24796SOL    HW291999  13.226  10.318   7.463  0.5738  1.0976 -0.9749
24797SOL     OW92000  10.403   4.130   1.580  0.2494  0.2143  0.3470
24797SOL    HW192001  10.356   4.047   1.571 -0.6740  0.8645 -1.4802
24797SOL    HW292002  10.454   4.136   1.499  1.5831  0.6947  1.1979
24798SOL     OW92003   4.393  13.973   8.921 -0.5319  0.6038  0.0692
24798SOL    HW192004   4.465  13.932   8.970 -0.1917 -0.3795 -1.2158
24798SOL    HW292005   4.432  14.053   8.884  0.0098 -0.1094 -0.9185
24799SOL     OW92006   6.634   8.521   5.815  0.0590  0.3334  0.0545
24799SOL    HW192007   6.608   8.609   5.788 -0.7126  0.2024  0.3574
24799SOL    HW292008   6.673   8.483   5.737  0.6235  1.0199 -0.0150
24800SOL     OW92009   7.672   8.062  11.866  0.0900 -0.5585  0.0025
24800SOL    HW192010   7.670   8.009  11.786  1.0683 -0.8866  0.1737
24800SOL    HW292011   7.649   8.150  11.837  0.2411 -0.7120 -0.6096
24801SOL     OW92012   0.550   3.243   8.103  0.2839 -0.2560 -0.9907
24801SOL    HW192013   0.472   3.233   8.156  1.5128 -0.4123  0.8592
24801SOL    HW292014   0.558   3.337   8.088  0.2680 -0.1573 -0.3666
24802SOL     OW92015   3.578   0.449   4.403  0.5062  0.0734 -0.0658
24802SOL    HW192016   3.519   0.458   4.477  1.8372 -1.5878  1.3030
24802SOL    HW292017   3.658   0.495   4.429  0.2507  1.3586 -1.4252
24803SOL     OW92018  10.030   8.698   4.695 -0.2484 -0.2706 -0.4732
24803SOL    HW192019   9.995   8.623   4.744 -2.2507  0.5616 -0.5316
24803SOL    HW292020  10.125   8.690   4.704 -0.4441 -0.2773  3.4168
24804SOL     OW92021   8.565   1.155   1.687  0.2334  0.0701  0.3164
24804SOL    HW192022   8.648   1.158   1.639  0.4825  0.5535  0.7597
24804SOL    HW292023   8.542   1.063   1.690  0.6295 -0.0439 -0.0325
24805SOL     OW92024   5.603   1.300   5.377 -0.3713  0.3528 -0.4396
24805SOL    HW192025   5.515   1.338   5.385 -0.3455  0.4818 -0.7257
24805SOL    HW292026   5.591   1.227   5.317 -0.1418  0.8696 -1.1373
24806SOL     OW92027  11.815  13.794  13.546 -0.5436 -0.7464  0.3633
24806SOL    HW192028  11.779  13.706  13.534  0.1171 -1.1666  1.3349
24806SOL    HW292029  11.876  13.805  13.473 -0.4593 -1.1860  0.3652
24807SOL     OW92030   9.301   9.252   6.958  0.3249  0.4325  0.2352
24807SOL    HW192031   9.349   9.235   6.877 -1.1436  0.5644 -0.7203
24807SOL    HW292032   9.316   9.345   6.976  0.9348  0.3195  0.3049
24808SOL     OW92033   5.684  12.090   8.028 -0.2046  0.2299  0.0046
24808SOL    HW192034   5.719  12.138   8.103 -2.1390 -0.1726  1.2193
24808SOL    HW292035   5.736  12.121   7.954  0.3983  2.1807  1.1717
24809SOL     OW92036   8.348   1.558   4.503 -0.2297  0.1827  0.9615
24809SOL    HW192037   8.336   1.472   4.544 -1.0625  0.1583  0.6958
24809SOL    HW292038   8.291   1.555   4.426  0.8288  0.4619  0.1557
24810SOL     OW92039   4.202   1.399  11.717 -0.4115 -0.0893 -0.1418
24810SOL    HW192040   4.222   1.460  11.788 -2.3988  0.8240 -0.2810
24810SOL    HW292041   4.287   1.363  11.690  0.6856  1.7146  0.7580
24811SOL     OW92042   0.410   0.615  10.242  0.0145  0.0414  0.6391
24811SOL    HW192043   0.339   0.592  10.182 -0.4619  1.0587  0.7879
24811SOL    HW292044   0.380   0.584  10.328 -0.5781  1.0666  0.8204
24812SOL     OW92045   0.037   2.804  11.143  0.2719 -0.3867 -0.0038
24812SOL    HW192046   0.128   2.778  11.133  0.4620  0.0497  0.5016
24812SOL    HW292047  -0.009   2.725  11.171  0.8122 -0.2510  1.3910
24813SOL     OW92048   9.613  13.076   1.916 -0.1353 -0.2483  0.3827
24813SOL    HW192049   9.568  12.993   1.902 -0.0278 -0.1711 -0.5278
24813SOL    HW292050   9.544  13.138   1.939 -0.6898  0.0695 -1.8300
24814SOL     OW92051   7.827   3.076   2.272  0.5373  0.2569 -0.2574
24814SOL    HW192052   7.746   3.028   2.280  0.8276 -0.0853  0.7279
24814SOL    HW292053   7.865   3.047   2.188  1.3620 -2.2668  0.8966
24815SOL     OW92054   6.012  12.801  10.305  0.4218 -0.4285  0.5608
24815SOL    HW192055   5.927  12.817  10.263  0.2700 -0.2914  0.9118
24815SOL    HW292056   6.052  12.887  10.314  0.7878 -0.5401  0.0075
24816SOL     OW92057   2.890   5.637   2.836  0.2993  0.1209  0.2370
24816SOL    HW192058   2.852   5.713   2.792  0.5565  1.0987  1.6505
24816SOL    HW292059   2.862   5.562   2.783 -0.0803  1.1698 -1.1022
24817SOL     OW92060  11.692  11.706   5.725  0.5824  0.0454 -0.0826
24817SOL    HW192061  11.785  11.685   5.726  0.3890 -1.0044 -1.4137
24817SOL    HW292062  11.688  11.801   5.718  1.5725 -0.0047 -1.5233
24818SOL     OW92063  10.170  12.524   9.491  0.9011 -0.2781  0.4683
24818SOL    HW192064  10.161  12.615   9.463 -1.1380 -0.2988  0.9036
24818SOL    HW292065  10.094  12.480   9.453  1.6102 -1.7166  0.6485
24819SOL     OW92066  10.151   5.480   3.209 -0.2452 -0.1884 -0.2760
24819SOL    HW192067  10.125   5.551   3.151  0.7749  0.5844  0.1904
24819SOL    HW292068  10.112   5.502   3.294  1.5761  0.8225  0.3510
24820SOL     OW92069   9.666   9.636  12.684 -0.5652 -0.4830  0.5145
24820SOL    HW192070   9.573   9.644  12.704 -0.5404  0.2979  0.3690
24820SOL    HW292071   9.669   9.598  12.597 -0.7374 -0.9769  0.7233
24821SOL     OW92072   5.354   5.312   7.952  0.1488  0.3142  0.0788
24821SOL    HW192073   5.343   5.376   7.881 -2.4660 -1.2020 -1.0132
24821SOL    HW292074   5.266   5.298   7.987  0.8939 -1.3805  1.4679
24822SOL     OW92075   8.837   8.033   9.467 -0.0832 -0.3705  0.2306
24822SOL    HW192076   8.894   8.096   9.423 -1.5614  1.5985  0.9158
24822SOL    HW292077   8.841   8.058   9.560  0.3873 -2.2529  0.7501
24823SOL     OW92078   5.994   5.232  12.314 -0.4524 -0.0176  0.1949
24823SOL    HW192079   5.931   5.170  12.351  0.4549 -0.5997  0.8191
24823SOL    HW292080   5.974   5.316  12.356 -1.7574  0.1582 -0.7316
24824SOL     OW92081   2.430  11.030  12.989  0.0953 -0.8949 -0.4364
24824SOL    HW192082   2.411  10.973  12.915  0.3861 -2.0067  0.3190
24824SOL    HW292083   2.526  11.037  12.991  0.2210 -2.3650  0.8793
24825SOL     OW92084  10.824   4.139   0.714 -0.0481 -0.1090 -0.0981
24825SOL    HW192085  10.873   4.074   0.663  0.0881 -0.0326 -0.0637
24825SOL    HW292086  10.794   4.091   0.791 -0.4777 -0.2932 -0.3784
24826SOL     OW92087  13.922   9.711  12.495 -0.1876  0.0889 -0.3772
24826SOL    HW192088  13.883   9.767  12.563 -1.4005 -1.3622  0.1704
24826SOL    HW292089  14.005   9.682  12.534 -0.3607  0.1355  0.0339
24827SOL     OW92090   9.570  11.607   9.990  0.5421  0.3520 -0.2185
24827SOL    HW192091   9.496  11.551  10.011  0.6465  0.1781 -0.3173
24827SOL    HW292092   9.637  11.584  10.055  1.2689 -0.9626 -1.3821
24828SOL     OW92093  12.912  11.858   9.257  0.0500  0.2706 -0.2556
24828SOL    HW192094  12.976  11.806   9.306 -0.9259 -0.6554  0.0725
24828SOL    HW292095  12.877  11.919   9.323 -0.6213 -0.3732 -0.0098
24829SOL     OW92096   4.537  13.303   8.319 -0.0929 -0.3205 -0.4814
24829SOL    HW192097   4.558  13.216   8.352  1.0957 -0.2154 -0.9136
24829SOL    HW292098   4.535  13.359   8.397  0.8195 -0.4281 -0.3730
24830SOL     OW92099   1.391   0.222   8.400 -0.1807 -0.0481  0.0420
24830SOL    HW192100   1.383   0.271   8.482  0.1118  1.5663 -0.8539
24830SOL    HW292101   1.483   0.231   8.376 -0.3123 -0.3300 -0.5851
24831SOL     OW92102  13.040   0.228   3.817 -0.0926 -0.0617  0.0594
24831SOL    HW192103  13.091   0.182   3.884 -0.2303  1.0975  0.9922
24831SOL    HW292104  13.105   0.258   3.754  0.4632  1.5326  1.3164
24832SOL     OW92105   1.432   9.045   4.543  0.2773 -0.2514 -0.2147
24832SOL    HW192106   1.469   9.067   4.457  0.7012 -0.3346 -0.0528
24832SOL    HW292107   1.340   9.026   4.525 -0.0219  1.2747 -0.4272
24833SOL     OW92108   2.727   5.541   6.959 -0.3287 -0.0666 -0.1897
24833SOL    HW192109   2.743   5.634   6.974  0.9172 -0.4292  0.9213
24833SOL    HW292110   2.814   5.500   6.968 -1.1587 -1.5856  1.4571
24834SOL     OW92111   9.353   6.332   1.247 -0.0454  0.0409  0.2650
24834SOL    HW192112   9.410   6.257   1.233 -0.9946 -1.1577  2.3667
24834SOL    HW292113   9.385   6.373   1.327  0.3577  1.8443 -0.7482
24835SOL     OW92114   3.426   0.391  13.749  0.0701 -0.2325  0.0209
24835SOL    HW192115   3.515   0.379  13.715 -0.2702  1.1590 -1.4718
24835SOL    HW292116   3.396   0.473  13.710 -2.5657 -1.6090 -1.0564
24836SOL     OW92117  10.542  11.266   8.707 -0.0294  0.3977  0.0098
24836SOL    HW192118  10.553  11.251   8.801 -1.4794  0.0695  0.1537
24836SOL    HW292119  10.623  11.308   8.680 -0.0383  1.5739  1.6419
24837SOL     OW92120  12.754   2.249  11.976  0.5032  0.1114 -0.4333
24837SOL    HW192121  12.842   2.250  12.013 -0.0314  1.3933  0.8920
24837SOL    HW292122  12.762   2.295  11.893  1.3268 -0.9598 -0.9627
24838SOL     OW92123   1.101   1.552   6.866  0.2504  0.4108 -0.6126
24838SOL    HW192124   1.028   1.512   6.913  1.4915 -0.5611  0.5607
24838SOL    HW292125   1.073   1.550   6.774 -1.7851  1.3958 -0.0778
24839SOL     OW92126  12.595  10.940  11.330 -0.2756 -0.5357  0.0211
24839SOL    HW192127  12.618  10.847  11.332 -1.6036 -0.8794  0.4620
24839SOL    HW292128  12.596  10.967  11.422 -0.8671 -0.3853 -0.0111
24840SOL     OW92129   2.335   7.551   9.644  0.0862  0.0930 -0.1300
24840SOL    HW192130   2.315   7.632   9.596 -2.4415  0.6100  1.5764
24840SOL    HW292131   2.358   7.488   9.576 -3.0671  0.8460 -2.1000
24841SOL     OW92132  11.814   7.798  12.598  0.3907 -0.4530  0.4976
24841SOL    HW192133  11.896   7.749  12.592  0.9590  0.4019  1.0465
24841SOL    HW292134  11.803   7.837  12.511  0.1612 -1.1784  0.1908
24842SOL     OW92135   6.996   4.951  12.315 -0.6337 -0.4086  0.4557
24842SOL    HW192136   7.004   5.015  12.244 -1.4693 -0.9155 -0.1114
24842SOL    HW292137   7.085   4.941  12.347 -0.3664  0.4505  0.0305
24843SOL     OW92138  13.454  13.050  10.524 -0.5720  0.2225  0.0906
24843SOL    HW192139  13.511  13.116  10.562 -0.1345  0.1025 -0.3375
24843SOL    HW292140  13.461  12.975  10.584  1.7253 -0.7291 -1.2061
24844SOL     OW92141   5.224   9.630   3.777 -0.1803 -0.1973  0.7435
24844SOL    HW192142   5.140   9.624   3.732 -0.5764 -3.1468  1.6858
24844SOL    HW292143   5.204   9.610   3.868  1.2872  1.0749  1.4017
24845SOL     OW92144   7.407  12.876   3.965 -0.3281  0.0801  0.3322
24845SOL    HW192145   7.418  12.965   3.930 -0.7618 -0.1926 -0.5244
24845SOL    HW292146   7.416  12.819   3.889 -2.1791 -0.4822  0.4776
24846SOL     OW92147   7.873   9.504   1.293  0.1506  0.0439  0.3667
24846SOL    HW192148   7.784   9.525   1.320  0.2149 -1.1212  1.6043
24846SOL    HW292149   7.917   9.478   1.374  1.8909  1.4294 -0.0747
24847SOL     OW92150   2.837   5.478   4.469  0.0981  0.5439  0.3058
24847SOL    HW192151   2.911   5.492   4.529 -1.0039  0.7251  1.6570
24847SOL    HW292152   2.842   5.385   4.446  0.5420  0.4808  0.6438
24848SOL     OW92153   1.090  12.843   0.990 -0.2418  0.7282 -0.3170
24848SOL    HW192154   1.039  12.769   0.958  0.6730 -0.2555  0.4032
24848SOL    HW292155   1.139  12.807   1.064  2.6069  1.1957 -1.8335
24849SOL     OW92156   9.588  12.901   9.163 -0.4142  1.2459 -0.2354
24849SOL    HW192157   9.535  12.908   9.243 -1.1237  0.5034 -0.6360
24849SOL    HW292158   9.553  12.968   9.105 -0.7795  0.8986 -0.4196
24850SOL     OW92159   2.079  10.096   5.017 -0.2249 -0.4357 -0.1960
24850SOL    HW192160   2.059  10.055   5.101 -1.8265  1.4231  0.4043
24850SOL    HW292161   2.140  10.167   5.038 -0.0094 -0.4657 -0.7089
24851SOL     OW92162   5.585   2.164   0.453 -0.5481  0.7934  0.3160
24851SOL    HW192163   5.544   2.150   0.539 -0.4395 -0.4243  0.1793
24851SOL    HW292164   5.519   2.210   0.402 -0.6551  1.4403  1.0118
24852SOL     OW92165   7.164   0.981   8.703  0.1952  0.3327 -0.6479
24852SOL    HW192166   7.242   0.977   8.649 -0.2692  2.1842 -1.5485
24852SOL    HW292167   7.171   1.063   8.751 -1.8281  1.2862 -1.8406
24853SOL     OW92168   4.753   6.876  10.924  0.2440 -0.2124  0.0378
24853SOL    HW192169   4.664   6.909  10.915 -0.2213 -1.7960 -1.4513
24853SOL    HW292170   4.769   6.827  10.844  2.6161  0.3585  0.0914
24854SOL     OW92171  13.071   3.160   7.360 -0.2002 -0.1427  0.4453
24854SOL    HW192172  13.082   3.117   7.445  3.8158  1.6095  1.0440
24854SOL    HW292173  13.144   3.128   7.308 -0.4322  1.6471 -1.0543
24855SOL     OW92174   6.475   1.256  11.306  0.1793 -0.2694 -0.6618
24855SOL    HW192175   6.477   1.176  11.359 -0.9199 -0.6038 -1.1054
24855SOL    HW292176   6.471   1.327  11.369 -2.7136 -0.7052 -0.2458
24856SOL     OW92177  12.965   4.225  12.864 -0.1615  0.4070  0.5170
24856SOL    HW192178  13.031   4.162  12.836 -0.2425  0.7765 -0.5369
24856SOL    HW292179  12.927   4.258  12.783 -0.2174  1.7256  1.0587
24857SOL     OW92180   0.837  11.972  10.530 -0.1543  0.3389  0.3897
24857SOL    HW192181   0.821  12.055  10.484  0.5197 -0.4388 -1.3349
24857SOL    HW292182   0.929  11.953  10.512 -0.5915 -1.3603 -0.2580
24858SOL     OW92183   0.280   4.567   5.023 -0.2205 -0.1809 -0.5668
24858SOL    HW192184   0.247   4.494   5.075 -0.2258  0.4596  0.3593
24858SOL    HW292185   0.375   4.554   5.020 -0.4677 -2.4937 -3.9468
24859SOL     OW92186   5.897   9.059   5.539  0.3456  0.4949 -0.0185
24859SOL    HW192187   5.853   9.125   5.591  0.6409  0.4525  0.2851
24859SOL    HW292188   5.990   9.072   5.556  0.3682 -0.7552  0.9685
24860SOL     OW92189  10.273   0.961  12.212  0.6691  0.1345  0.2251
24860SOL    HW192190  10.333   0.925  12.277  0.4336 -1.1223 -0.2365
24860SOL    HW292191  10.281   0.904  12.136 -0.5662  0.3671 -0.1102
24861SOL     OW92192  11.702   6.809   6.826  0.1290 -0.3244 -0.6125
24861SOL    HW192193  11.765   6.757   6.877 -0.5493  0.1177  0.7038
24861SOL    HW292194  11.750   6.832   6.747  1.1360 -1.2298 -0.2940
24862SOL     OW92195  11.891   5.749   6.270  0.3943 -0.4493  0.2639
24862SOL    HW192196  11.956   5.722   6.206 -0.5783 -2.6510  0.0980
24862SOL    HW292197  11.808   5.747   6.222 -0.4106 -2.5097  1.5818
24863SOL     OW92198  11.245   5.570   1.459  0.4239 -0.1774 -0.0309
24863SOL    HW192199  11.262   5.658   1.493  0.8005 -0.3953  0.3558
24863SOL    HW292200  11.331   5.529   1.454  0.1914 -0.7106  0.3020
24864SOL     OW92201   8.257   1.448   7.581  0.6801  0.0628 -0.3164
24864SOL    HW192202   8.330   1.502   7.551  1.4899 -1.7440 -1.7916
24864SOL    HW292203   8.213   1.421   7.500 -0.6638 -0.1773  0.4730
24865SOL     OW92204  11.965  14.034   0.651 -0.0901 -0.0024  0.0702
24865SOL    HW192205  11.995  14.124   0.664  0.1126 -0.1293  0.5030
24865SOL    HW292206  11.927  14.034   0.563 -2.9149  1.2645  1.1894
24866SOL     OW92207  12.877   0.102   7.795  0.1918 -0.0302 -0.0606
24866SOL    HW192208  12.816   0.139   7.732  0.5839  0.2382 -0.2896
24866SOL    HW292209  12.855   0.145   7.878  1.8345  2.1579 -0.6726
24867SOL     OW92210   9.244  12.984  12.896 -0.8010 -0.8239 -0.5290
24867SOL    HW192211   9.325  12.939  12.920 -0.4066 -0.5330 -1.2932
24867SOL    HW292212   9.180  12.955  12.962  0.0610 -0.6144  0.4209
24868SOL     OW92213  13.195   6.912   8.037  0.4052  0.1830  0.0408
24868SOL    HW192214  13.166   6.854   8.108 -0.0956 -0.5142 -0.7196
24868SOL    HW292215  13.123   6.974   8.026 -0.0769 -0.4896 -0.6933
24869SOL     OW92216   7.729   3.795   5.870  0.3877  0.1215 -0.2634
24869SOL    HW192217   7.731   3.747   5.787 -0.0673 -0.4270  0.0344
24869SOL    HW292218   7.808   3.766   5.916  0.8499  0.7255 -0.6608
24870SOL     OW92219  12.884   5.868   2.514 -0.4231  0.0868 -0.1707
24870SOL    HW192220  12.804   5.920   2.510 -0.5486  0.1277  1.8263
24870SOL    HW292221  12.856   5.779   2.495 -0.3385  0.5157 -2.7812
24871SOL     OW92222   8.204  11.998   1.737 -0.3013  0.5005 -0.0811
24871SOL    HW192223   8.193  11.905   1.754  0.1548  0.4129 -0.2660
24871SOL    HW292224   8.269  12.027   1.802  1.5811  0.1366 -1.7167
24872SOL     OW92225  10.899  11.677  11.947 -0.4136  0.0515 -0.1161
24872SOL    HW192226  10.876  11.750  11.890 -0.7589  0.8014  0.9506
24872SOL    HW292227  10.814  11.636  11.968 -0.2219 -0.6749 -0.7261
24873SOL     OW92228   6.410   1.719  14.016  0.0805  0.5381  0.5119
24873SOL    HW192229   6.340   1.756  14.069 -0.9111 -0.7853  0.1939
24873SOL    HW292230   6.490   1.755  14.052 -0.5381 -0.4684  3.0907
24874SOL     OW92231   8.873   8.266   2.447 -0.2306 -0.2167 -0.3636
24874SOL    HW192232   8.854   8.272   2.353  1.5636  0.9283 -0.7036
24874SOL    HW292233   8.863   8.356   2.478  1.0828 -0.2242  0.1257
24875SOL     OW92234   8.828  10.377   3.964  0.5201 -0.0410 -0.0631
24875SOL    HW192235   8.740  10.343   3.949  0.3551  0.6078 -0.6370
24875SOL    HW292236   8.845  10.433   3.888  1.0884  0.5121  0.4615
24876SOL     OW92237   8.468  11.499   2.213 -0.0850  0.3026 -0.1162
24876SOL    HW192238   8.552  11.452   2.213 -0.6162 -0.9799 -3.9599
24876SOL    HW292239   8.408  11.442   2.260  0.3694 -0.6464 -0.6605
24877SOL     OW92240   3.810   8.332   5.018  0.3090  0.9046  0.5371
24877SOL    HW192241   3.829   8.365   5.106  1.4934 -0.1484  0.7145
24877SOL    HW292242   3.896   8.309   4.983 -0.3933 -2.0468  0.4919
24878SOL     OW92243  11.721   6.000  13.639  0.0143 -0.0851 -0.3089
24878SOL    HW192244  11.677   5.915  13.637  1.8580 -1.1160  0.2790
24878SOL    HW292245  11.677   6.048  13.710 -0.7096 -0.7414 -0.3029
24879SOL     OW92246   7.339  12.717   2.915  0.1460  0.0819 -1.0975
24879SOL    HW192247   7.345  12.692   3.007  1.7515 -0.8991 -1.4301
24879SOL    HW292248   7.317  12.810   2.917  0.9225  0.2690  0.3001
24880SOL     OW92249   2.968  12.526   4.183  0.7411 -0.5347  0.3505
24880SOL    HW192250   3.043  12.527   4.123  1.1578 -1.3898  0.8445
24880SOL    HW292251   2.910  12.458   4.149  1.0858 -1.1836  1.0254
24881SOL     OW92252   8.793   1.904  10.642 -0.2751  1.2231  0.1422
24881SOL    HW192253   8.875   1.934  10.680  0.4739  0.3769 -0.7412
24881SOL    HW292254   8.789   1.945  10.555 -0.4414  0.7195 -0.0943
24882SOL     OW92255  11.619  12.825   4.783 -0.3403  0.3998  0.3811
24882SOL    HW192256  11.712  12.822   4.802 -0.6013 -2.1062  1.7916
24882SOL    HW292257  11.614  12.837   4.688  1.5301 -1.7992 -0.0846
24883SOL     OW92258  11.698   6.370   7.340 -0.2539  0.2064 -0.2123
24883SOL    HW192259  11.719   6.404   7.253 -0.7857  1.3033  0.0638
24883SOL    HW292260  11.782   6.367   7.386  0.0052 -0.2344 -0.7163
24884SOL     OW92261   3.542   7.672   4.236  0.2622  0.2025  0.0948
24884SOL    HW192262   3.459   7.709   4.206  0.4207  2.3153  2.0191
24884SOL    HW292263   3.547   7.696   4.328  3.0695  0.2886  0.0116
24885SOL     OW92264   6.535  10.843   4.802 -0.0763 -0.7235  0.3825
24885SOL    HW192265   6.520  10.909   4.870 -1.8485 -1.0586  0.3746
24885SOL    HW292266   6.605  10.880   4.748  0.5467  0.0808  1.6958
24886SOL     OW92267  10.499   5.216  13.229 -0.5163 -0.5716 -0.1833
24886SOL    HW192268  10.466   5.149  13.169  0.7334  0.2481 -1.8872
24886SOL    HW292269  10.585   5.186  13.255 -0.5087 -0.2765  0.1543
24887SOL     OW92270   1.903  11.253  13.794  0.4607 -0.1140  0.3049
24887SOL    HW192271   1.933  11.335  13.832  2.4060 -0.2200 -0.8937
24887SOL    HW292272   1.832  11.225  13.852  1.7322  0.9034  2.4846
24888SOL     OW92273   5.698   9.860  13.713  0.1544 -0.4532 -0.1454
24888SOL    HW192274   5.705   9.943  13.759 -0.3975  0.6511 -1.9792
24888SOL    HW292275   5.788   9.828  13.708  0.8637  1.5659 -2.0377
24889SOL     OW92276   8.445  10.530   1.081  0.5097 -0.0170  0.1736
24889SOL    HW192277   8.536  10.553   1.064  0.4323  0.4107  0.3325
24889SOL    HW292278   8.399  10.556   1.001  0.8475 -2.2450 -0.8233
24890SOL     OW92279   5.721   7.328   3.919 -0.0651  0.5153  0.1833
24890SOL    HW192280   5.674   7.276   3.853  0.0339  2.6155 -1.6831
24890SOL    HW292281   5.812   7.326   3.890  0.0122  1.3276  0.3526
24891SOL     OW92282   4.696   2.935   9.511 -0.2292 -0.5245 -0.1962
24891SOL    HW192283   4.682   2.850   9.552  1.3315  0.0224  1.6053
24891SOL    HW292284   4.703   2.916   9.417 -0.9007 -2.2175  0.0607
24892SOL     OW92285   4.687   3.100   1.689 -0.7320  0.2580 -0.6438
24892SOL    HW192286   4.641   3.141   1.762  3.6441  2.1005  1.4008
24892SOL    HW292287   4.689   3.007   1.711  0.2441  0.7363  1.5330
24893SOL     OW92288   9.523   9.716   0.309 -0.1224 -0.4267 -0.3984
24893SOL    HW192289   9.604   9.682   0.349 -0.1502 -1.3289 -1.0688
24893SOL    HW292290   9.461   9.720   0.381 -0.0909 -1.7631 -0.2684
24894SOL     OW92291  11.969  13.290   7.595  0.5520 -0.2136  0.0116
24894SOL    HW192292  11.929  13.349   7.531  0.1440  0.3767  0.8008
24894SOL    HW292293  11.923  13.207   7.583  1.0626 -0.3686 -1.0376
24895SOL     OW92294   8.657  11.434  10.016 -0.1825 -0.1104 -0.0739
24895SOL    HW192295   8.725  11.374   9.986 -1.7326 -1.2344 -1.4521
24895SOL    HW292296   8.649  11.416  10.110 -0.5654 -2.0403 -0.4469
24896SOL     OW92297  10.997   4.179   7.509  0.0378 -0.5435 -0.2574
24896SOL    HW192298  10.963   4.212   7.425  0.6257 -2.2457 -1.2028
24896SOL    HW292299  11.092   4.191   7.502 -0.0240  1.1017  1.0141
24897SOL     OW92300  13.228   0.805   4.643  0.4096  0.3266 -0.4216
24897SOL    HW192301  13.178   0.783   4.563 -0.4026  0.1417  0.1228
24897SOL    HW292302  13.226   0.900   4.647 -0.2271  0.3124 -0.2164
24898SOL     OW92303  12.005   1.848  13.366  0.6004 -0.5089 -0.0988
24898SOL    HW192304  11.990   1.907  13.441  1.7165 -1.4998  0.9437
24898SOL    HW292305  12.008   1.907  13.290  0.8562  0.6939  0.8070
24899SOL     OW92306  12.426   0.808   5.433  0.3664 -0.0184  1.0191
24899SOL    HW192307  12.415   0.764   5.349  1.4401  0.1592  0.7696
24899SOL    HW292308  12.378   0.890   5.424  0.7616  0.1552  0.4451
24900SOL     OW92309   7.551   4.478   8.741  0.2446 -0.3689  0.2880
24900SOL    HW192310   7.538   4.573   8.740 -3.0505 -0.6999  1.2242
24900SOL    HW292311   7.509   4.447   8.662 -0.0058 -1.1592  0.7196
24901SOL     OW92312   7.717   7.792  12.526 -0.6415 -0.4964 -0.0007
24901SOL    HW192313   7.628   7.821  12.546 -0.7790  0.0228 -1.2404
24901SOL    HW292314   7.743   7.847  12.452  1.3861  0.5972  1.4385
24902SOL     OW92315   3.786  11.257   3.840  0.3443 -0.1889  0.7586
24902SOL    HW192316   3.852  11.234   3.776 -1.1649 -0.2245 -0.8644
24902SOL    HW292317   3.803  11.349   3.861 -0.6821  0.6782 -1.7768
24903SOL     OW92318   8.771   4.854   1.785 -0.6083  0.0873  0.4435
24903SOL    HW192319   8.821   4.803   1.722 -0.2339  0.7823  0.1632
24903SOL    HW292320   8.782   4.809   1.868 -0.6085 -0.4987  0.1301
24904SOL     OW92321  11.711  11.848   4.408  0.2374 -0.0069  0.4033
24904SOL    HW192322  11.735  11.934   4.443 -1.3024 -0.0660  1.7424
24904SOL    HW292323  11.743  11.785   4.473 -1.6731 -0.1861  1.2459
24905SOL     OW92324   1.384   5.417   5.289  0.2472  0.3435 -0.7626
24905SOL    HW192325   1.387   5.424   5.385 -0.7762  0.5046 -0.7279
24905SOL    HW292326   1.412   5.504   5.259 -1.1943  0.9244 -0.5490
24906SOL     OW92327   8.393   2.288   1.483 -0.0239  0.2755  0.2655
24906SOL    HW192328   8.347   2.349   1.425  1.7373 -0.7545 -2.3554
24906SOL    HW292329   8.344   2.206   1.476  0.9812 -0.2510 -0.9530
24907SOL     OW92330   9.022  13.363  10.388 -0.8631 -0.2273  0.4929
24907SOL    HW192331   9.094  13.401  10.337 -0.7968 -0.7852  0.1627
24907SOL    HW292332   9.066  13.315  10.458 -0.9145 -0.5986  0.2699
24908SOL     OW92333  13.222  11.237   7.909 -0.1790 -0.4389 -0.1471
24908SOL    HW192334  13.137  11.197   7.922 -0.4744  0.4180  0.6988
24908SOL    HW292335  13.203  11.330   7.898  0.4222 -0.5614 -2.7645
24909SOL     OW92336   3.838   4.852   2.354 -0.1008 -0.0664 -0.3246
24909SOL    HW192337   3.824   4.841   2.260 -0.1343  0.3640 -0.3679
24909SOL    HW292338   3.793   4.777   2.393 -1.0736  0.3772 -0.5721
24910SOL     OW92339   8.348  13.665   6.960 -0.8298 -0.3786  0.2128
24910SOL    HW192340   8.295  13.617   7.024 -0.5394 -0.8476  0.1016
24910SOL    HW292341   8.427  13.613   6.950 -1.0877 -0.5716 -0.9042
24911SOL     OW92342   6.762   0.955  10.634 -0.6363  0.2157 -0.0129
24911SOL    HW192343   6.786   0.948  10.541 -2.0815  2.0951 -0.5944
24911SOL    HW292344   6.804   0.879  10.675  1.8107  0.4625 -1.8130
24912SOL     OW92345   3.650   0.332   6.567  0.2224  0.3719  0.5895
24912SOL    HW192346   3.686   0.245   6.584  1.2790  0.4313 -1.1219
24912SOL    HW292347   3.718   0.392   6.596  0.8529  0.5282 -1.1416
24913SOL     OW92348  10.457   8.987   5.462  0.1006  0.2021  0.5705
24913SOL    HW192349  10.516   8.983   5.387  1.7436  0.4056  1.7851
24913SOL    HW292350  10.423   9.076   5.461  1.5444  0.7890  1.0674
24914SOL     OW92351  12.675   3.273  10.945 -0.1997 -0.0208  0.1363
24914SOL    HW192352  12.761   3.250  10.910  0.2393 -1.4701  1.9928
24914SOL    HW292353  12.644   3.343  10.888  1.4777 -0.5955 -1.5933
24915SOL     OW92354   0.867   6.529  10.011  0.1332 -0.0654 -0.0745
24915SOL    HW192355   0.787   6.528  10.064  0.1480  0.6568 -0.0169
24915SOL    HW292356   0.923   6.594  10.054  1.1604 -1.2587  0.4570
24916SOL     OW92357  10.730   8.265   6.008 -0.7082 -0.0851 -0.3382
24916SOL    HW192358  10.684   8.185   6.033 -2.5076  0.7080 -0.9670
24916SOL    HW292359  10.703   8.281   5.918  1.9511 -0.3307 -1.2841
24917SOL     OW92360   3.967   1.009   7.326 -0.3300  0.0210 -0.0091
24917SOL    HW192361   3.941   1.082   7.271 -0.8166  0.6721  1.0474
24917SOL    HW292362   3.923   0.932   7.289  2.6410 -0.4271 -3.0600
24918SOL     OW92363   0.051   3.724   6.018  0.5470  0.0001 -0.4888
24918SOL    HW192364   0.121   3.790   6.025  0.4421 -0.0273  0.9254
24918SOL    HW292365   0.094   3.648   5.978  1.2821  0.0477  0.1988
24919SOL     OW92366   7.024   1.047   0.954  0.3516 -0.0174  0.5304
24919SOL    HW192367   7.018   0.978   1.019 -0.4140  0.6940  1.2373
24919SOL    HW292368   7.008   1.128   1.003  1.2777  0.6702 -0.2645
24920SOL     OW92369   0.230   2.609  13.610 -0.1025  0.2237 -0.1185
24920SOL    HW192370   0.277   2.692  13.599  1.7564 -1.0599 -3.3006
24920SOL    HW292371   0.218   2.601  13.705 -0.5125  4.1150  0.3167
24921SOL     OW92372  13.675   4.317   5.046  0.3931 -0.6603 -0.3097
24921SOL    HW192373  13.738   4.291   5.114  0.0066 -3.9302 -1.0452
24921SOL    HW292374  13.728   4.366   4.983  0.9293  1.7183  1.8397
24922SOL     OW92375  13.740   5.795  12.683 -0.4826 -0.0920  0.5287
24922SOL    HW192376  13.829   5.830  12.691 -1.1838  1.6111  1.2928
24922SOL    HW292377  13.753   5.705  12.652  1.5835 -0.4943  2.2991
24923SOL     OW92378   3.179   9.657   6.966  0.4115  0.3960 -0.7787
24923SOL    HW192379   3.211   9.569   6.949 -1.7723 -0.7252  0.5053
24923SOL    HW292380   3.108   9.670   6.904  0.6781  1.2490 -0.9228
24924SOL     OW92381  11.232   3.380   5.942  0.9538  0.0889 -0.4676
24924SOL    HW192382  11.256   3.299   5.988  1.8087 -0.6163 -2.0910
24924SOL    HW292383  11.215   3.353   5.852 -0.5682  1.4623 -0.6263
24925SOL     OW92384   2.598   3.659   8.968  0.3961  0.2984  0.4265
24925SOL    HW192385   2.546   3.653   9.049  1.6362  1.2901  1.3507
24925SOL    HW292386   2.683   3.622   8.992  0.7764  0.5859 -0.4424
24926SOL     OW92387  10.432   8.525  11.894  0.0493 -0.0160 -0.4639
24926SOL    HW192388  10.399   8.435  11.891  0.7377 -0.2363 -1.6724
24926SOL    HW292389  10.359   8.575  11.931 -0.1140 -1.1505  0.8453
24927SOL     OW92390   0.482   3.904   8.893  0.2601  0.7574 -0.4422
24927SOL    HW192391   0.463   3.932   8.983 -0.2183 -0.5746 -0.0958
24927SOL    HW292392   0.565   3.945   8.872  0.9799  0.1539  1.0553
24928SOL     OW92393   5.901   8.770  13.585 -0.0402  0.0893  0.1403
24928SOL    HW192394   5.971   8.763  13.650 -0.7395 -0.4759  0.8614
24928SOL    HW292395   5.944   8.803  13.506  0.9103  0.3625  0.7580
24929SOL     OW92396   9.135  12.698   9.166  0.8716 -0.2880  0.5233
24929SOL    HW192397   9.112  12.789   9.182  0.1899 -0.4055  0.2407
24929SOL    HW292398   9.157  12.694   9.073 -0.4565 -0.6762  0.2072
24930SOL     OW92399   4.917  13.736   8.554  0.3627 -0.3701  0.0727
24930SOL    HW192400   4.890  13.676   8.624  0.3212 -0.4251  0.0099
24930SOL    HW292401   4.951  13.678   8.486  2.4009 -0.2292  0.9055
24931SOL     OW92402  13.346  13.591   1.218  0.5038  0.1150 -0.3358
24931SOL    HW192403  13.350  13.639   1.301  0.0849 -1.5618  0.7064
24931SOL    HW292404  13.393  13.647   1.156  1.0071  1.3295  1.0626
24932SOL     OW92405   3.626  12.607   4.505 -0.4575 -0.3095 -0.1179
24932SOL    HW192406   3.545  12.564   4.478  0.0543 -1.4653  0.1163
24932SOL    HW292407   3.657  12.554   4.578 -0.0399  0.7562  0.4982
24933SOL     OW92408  11.645  13.826   8.405 -0.2358 -0.0882 -0.0839
24933SOL    HW192409  11.716  13.766   8.382  1.1989  1.6337 -0.3904
24933SOL    HW292410  11.658  13.846   8.498  0.8318  1.6046 -0.5515
24934SOL     OW92411  11.887   3.180   3.204 -0.3946  0.3990  0.7377
24934SOL    HW192412  11.801   3.166   3.163 -0.1634 -0.8176  0.6254
24934SOL    HW292413  11.937   3.101   3.182  0.2278  0.3773  2.1293
24935SOL     OW92414  12.204  12.805   2.404  0.2990  0.3387 -0.3176
24935SOL    HW192415  12.135  12.741   2.392  1.3352 -0.7495 -0.6447
24935SOL    HW292416  12.204  12.857   2.323  0.2871 -0.0758 -0.5831
24936SOL     OW92417   9.306  10.347   4.712 -0.5824 -0.6981 -0.1045
24936SOL    HW192418   9.210  10.354   4.709 -0.7579 -2.3576  0.3984
24936SOL    HW292419   9.324  10.301   4.794  0.7042  0.0903  0.0868
24937SOL     OW92420  13.867   7.464   3.456  0.0135 -0.1760  0.1073
24937SOL    HW192421  13.779   7.479   3.422  0.6110  1.7799 -0.7805
24937SOL    HW292422  13.890   7.376   3.426 -0.4441  0.5230 -2.5777
24938SOL     OW92423   8.403   7.886  11.758  0.1685  0.2919  0.2333
24938SOL    HW192424   8.470   7.829  11.797 -0.6873  0.3296  1.8066
24938SOL    HW292425   8.338   7.825  11.723 -0.9035  0.2478  2.1923
24939SOL     OW92426  12.608  11.698   5.890  0.2765 -0.4899 -0.3012
24939SOL    HW192427  12.700  11.713   5.870  0.4399 -0.3071  0.5498
24939SOL    HW292428  12.595  11.737   5.977 -0.8238  0.3569 -0.8034
24940SOL     OW92429   9.971  10.148   5.891  0.0639  0.0421 -0.1012
24940SOL    HW192430   9.933  10.220   5.942 -0.2110  0.7440 -1.2822
24940SOL    HW292431   9.895  10.101   5.856  0.2253 -1.1593  1.0699
24941SOL     OW92432  10.482   9.643  11.800  0.2152  0.4516 -0.1788
24941SOL    HW192433  10.557   9.626  11.743  0.3579 -1.9786  0.6071
24941SOL    HW292434  10.411   9.663  11.740  0.2948 -2.2477 -1.3398
24942SOL     OW92435   2.858   6.809   4.338 -0.4973 -0.0901 -0.9564
24942SOL    HW192436   2.926   6.830   4.274 -0.0511 -0.3088 -0.5583
24942SOL    HW292437   2.856   6.713   4.340  0.1846 -0.1001  0.0727
24943SOL     OW92438   0.171  11.322  12.483 -0.2981 -0.0366  0.4943
24943SOL    HW192439   0.221  11.404  12.481  0.3134 -0.3620  1.8264
24943SOL    HW292440   0.233  11.254  12.457 -0.7818 -0.1232 -0.5144
24944SOL     OW92441   3.595  13.863  12.089 -0.0855  0.1728  0.1317
24944SOL    HW192442   3.549  13.913  12.022 -0.0900  0.6070  0.4551
24944SOL    HW292443   3.590  13.773  12.059  0.3968  0.4175 -0.7481
24945SOL     OW92444  12.521   2.331   6.195 -0.1954 -0.1976  0.0235
24945SOL    HW192445  12.476   2.299   6.117 -1.0518 -0.4896  0.6186
24945SOL    HW292446  12.476   2.288   6.268  1.0542 -0.5080  0.6557
24946SOL     OW92447   0.580   5.763   2.025  0.0761 -0.4851 -0.2019
24946SOL    HW192448   0.653   5.783   2.084 -1.0842  1.0699  0.8137
24946SOL    HW292449   0.581   5.836   1.962 -0.5560 -0.4770 -0.2042
24947SOL     OW92450  10.553   5.165   2.493  0.1654  0.0023  0.2355
24947SOL    HW192451  10.626   5.219   2.463 -0.1479 -0.4282 -1.3860
24947SOL    HW292452  10.594   5.094   2.542  0.7733  0.2221  0.0473
24948SOL     OW92453   2.656   7.084  10.245 -0.5972  0.2946 -0.2168
24948SOL    HW192454   2.745   7.054  10.265 -0.8371 -1.6368 -1.8530
24948SOL    HW292455   2.665   7.179  10.237  1.0859  0.2617  0.6936
24949SOL     OW92456  11.114   6.121  12.891  0.0808  0.2211  0.2788
24949SOL    HW192457  11.052   6.184  12.928 -2.2468 -3.1698  2.7721
24949SOL    HW292458  11.061   6.065  12.834  1.3530 -1.3232  0.5321
24950SOL     OW92459   0.544   2.642   6.011 -0.5605  0.2887  0.3108
24950SOL    HW192460   0.497   2.574   6.060 -0.4841 -0.9482 -1.2473
24950SOL    HW292461   0.477   2.684   5.958 -0.3598  0.3979  0.1413
24951SOL     OW92462   3.395  10.574  12.479  0.3440 -0.1419 -0.1919
24951SOL    HW192463   3.397  10.644  12.544  1.2934 -0.4879  0.1733
24951SOL    HW292464   3.454  10.604  12.409  1.3003 -0.8496  0.2832
24952SOL     OW92465  12.191  12.422  13.316  1.1849  0.3251  0.1829
24952SOL    HW192466  12.285  12.438  13.306  1.2414 -0.0226  0.1329
24952SOL    HW292467  12.153  12.509  13.332  1.2369  0.7557 -1.8001
24953SOL     OW92468   4.392   7.104   5.909  0.3712 -0.1243  0.3560
24953SOL    HW192469   4.349   7.041   5.851  0.2334  0.6346 -0.3935
24953SOL    HW292470   4.450   7.051   5.963 -0.4198 -0.9969  0.3833
24954SOL     OW92471   5.021   8.808   1.911  0.1139  0.0326 -0.0975
24954SOL    HW192472   4.976   8.755   1.845 -1.1939  1.0945 -0.0770
24954SOL    HW292473   5.110   8.773   1.912 -0.9293 -2.8698  0.6533
24955SOL     OW92474   3.344   2.944   1.927  0.5245  0.4832  0.2364
24955SOL    HW192475   3.430   2.925   1.889  0.6428  0.3560  0.5647
24955SOL    HW292476   3.317   3.026   1.885  0.2567 -0.0943 -0.7768
24956SOL     OW92477   2.295  12.400   7.605  0.0016 -0.6292 -0.6202
24956SOL    HW192478   2.316  12.429   7.694  1.9609 -1.7156 -0.6814
24956SOL    HW292479   2.240  12.322   7.618  0.7525 -1.1238 -0.3241
24957SOL     OW92480  11.010   8.863   7.575  0.3192 -0.1426  0.0775
24957SOL    HW192481  11.031   8.956   7.569 -0.8558  0.1491  0.1666
24957SOL    HW292482  11.087   8.823   7.616  0.0554  1.0991  1.8842
24958SOL     OW92483   5.154   8.190   2.828  0.1897  0.6309  0.1102
24958SOL    HW192484   5.217   8.121   2.806  0.1298  0.7693 -0.5232
24958SOL    HW292485   5.169   8.258   2.762 -1.0985  0.3600 -0.4946
24959SOL     OW92486  11.919   4.862   6.949 -0.4451 -0.5311 -0.4767
24959SOL    HW192487  11.981   4.839   7.018 -0.4035 -1.2325 -0.7401
24959SOL    HW292488  11.896   4.954   6.966  1.1590 -0.0548 -0.7498
24960SOL     OW92489  12.158  12.927  11.919  0.0482  0.4613 -0.0422
24960SOL    HW192490  12.229  12.989  11.939 -0.0520  0.3168  0.7718
24960SOL    HW292491  12.083  12.960  11.967 -0.5080  0.7111 -1.0446
24961SOL     OW92492   0.680   4.732   2.505 -0.0025  0.0414  0.1344
24961SOL    HW192493   0.601   4.713   2.454 -1.2320  1.6933  1.3273
24961SOL    HW292494   0.683   4.663   2.572 -0.0999 -0.3521 -0.2629
24962SOL     OW92495   3.700   5.549   7.907  0.4493 -0.1395 -0.4823
24962SOL    HW192496   3.765   5.571   7.839 -0.1493 -0.5096 -1.1882
24962SOL    HW292497   3.733   5.469   7.946 -0.0028 -0.8042 -1.4252
24963SOL     OW92498   9.279   0.487   4.395 -0.2263  0.0451  0.2766
24963SOL    HW192499   9.322   0.572   4.399 -0.9331  0.3841  0.9241
24963SOL    HW292500   9.191   0.506   4.362 -0.2613 -0.4835  0.0536
24964SOL     OW92501  12.384   6.005   5.917  0.3987  0.1099 -0.2990
24964SOL    HW192502  12.421   5.953   5.845 -1.3458 -1.0576 -0.4189
24964SOL    HW292503  12.337   6.077   5.873 -0.9250 -0.7747 -0.4009
24965SOL     OW92504  12.024   3.006   6.916 -0.1252 -0.1496 -0.5766
24965SOL    HW192505  12.117   2.987   6.908 -0.1904  0.2662 -3.7362
24965SOL    HW292506  12.019   3.092   6.957  0.8791 -0.0818 -0.5894
24966SOL     OW92507   9.746   6.073   2.530 -0.6060 -0.0279 -0.5111
24966SOL    HW192508   9.719   6.157   2.493 -1.3242 -0.4401 -0.9605
24966SOL    HW292509   9.667   6.019   2.525  0.2152 -1.1907 -1.6181
24967SOL     OW92510  12.477  12.395  12.384  0.1132 -0.1154 -0.0799
24967SOL    HW192511  12.426  12.475  12.385  0.6474  0.2428  1.2949
24967SOL    HW292512  12.424  12.331  12.432  0.7128  0.1232  0.9354
24968SOL     OW92513   3.891   3.607   2.412  0.6601  0.2091 -0.3072
24968SOL    HW192514   3.826   3.658   2.363  1.9323  1.0427 -1.1862
24968SOL    HW292515   3.891   3.521   2.371 -0.5870 -0.1394  0.3616
24969SOL     OW92516  13.839   2.287   0.117  0.7044  0.0487  0.0923
24969SOL    HW192517  13.758   2.243   0.091  0.9564 -0.2095 -0.2741
24969SOL    HW292518  13.908   2.226   0.091  1.0955  0.8951 -0.8862
24970SOL     OW92519   2.783   9.809   1.845  0.4220 -0.1942 -0.1640
24970SOL    HW192520   2.813   9.826   1.934  0.4221 -1.6053  0.1250
24970SOL    HW292521   2.749   9.720   1.848  3.2215 -1.4838 -2.2647
24971SOL     OW92522  13.666   1.422  10.735  0.0616 -0.4587  0.1835
24971SOL    HW192523  13.620   1.497  10.698 -0.9659  0.2108  2.5727
24971SOL    HW292524  13.630   1.346  10.689 -2.7969  0.1394  1.2362
24972SOL     OW92525  11.452   1.837   2.333 -0.4654  0.0663 -0.6371
24972SOL    HW192526  11.507   1.877   2.266 -1.1172 -0.3454 -1.4436
24972SOL    HW292527  11.474   1.883   2.413  1.4123 -0.4045 -0.8237
24973SOL     OW92528   4.598  10.221   8.188 -0.1724  0.1280  0.5059
24973SOL    HW192529   4.537  10.202   8.117 -0.6297 -1.3395  1.2422
24973SOL    HW292530   4.677  10.172   8.166 -0.1441  0.0505  0.7792
24974SOL     OW92531  13.662  13.512   7.617 -0.1859 -0.3632  0.3635
24974SOL    HW192532  13.664  13.421   7.647  0.5810 -0.4814 -0.0306
24974SOL    HW292533  13.610  13.510   7.537 -0.2805 -0.4273  0.4255
24975SOL     OW92534   0.885   0.717   0.414 -0.0952 -0.1153  0.2619
24975SOL    HW192535   0.876   0.736   0.321  1.2551 -1.1416 -0.1184
24975SOL    HW292536   0.978   0.726   0.431 -0.2533 -0.4665  1.3929
24976SOL     OW92537   5.124   9.993   6.873 -0.1391 -0.6804 -0.0052
24976SOL    HW192538   5.091  10.058   6.812  0.4978  0.8242  1.1759
24976SOL    HW292539   5.173   9.931   6.819 -1.0259 -0.3680 -1.2006
24977SOL     OW92540   5.567  13.931   5.408 -0.2339 -0.2141 -0.4763
24977SOL    HW192541   5.474  13.911   5.418 -0.3696  0.6635  0.1323
24977SOL    HW292542   5.607  13.848   5.383 -1.2999 -0.4317 -1.5744
24978SOL     OW92543   3.482   6.808   6.048 -0.3417  0.2368 -0.6942
24978SOL    HW192544   3.449   6.875   6.108 -1.0629  1.6150 -2.5241
24978SOL    HW292545   3.574   6.797   6.072 -0.9573 -0.4656  1.6567
24979SOL     OW92546   7.875  11.886  13.203  0.2318 -0.7273 -0.1186
24979SOL    HW192547   7.897  11.977  13.222  0.1940 -0.6383 -0.4955
24979SOL    HW292548   7.830  11.855  13.281  2.2749 -1.1227  0.9766
24980SOL     OW92549   1.380   4.247   9.391  0.1428 -0.0399 -0.0040
24980SOL    HW192550   1.453   4.255   9.329 -0.7228  0.0360 -1.0402
24980SOL    HW292551   1.388   4.324   9.447  2.0796 -1.0901  1.2743
24981SOL     OW92552  13.432   9.241   1.629  0.1018  0.0626  0.3306
24981SOL    HW192553  13.391   9.170   1.680  0.0821 -0.5712 -0.5309
24981SOL    HW292554  13.512   9.202   1.595  0.0081  0.3984 -0.2914
24982SOL     OW92555   9.497   5.948   1.604  0.4795  0.0793  0.0952
24982SOL    HW192556   9.544   6.029   1.621  0.0251  0.2799  0.4181
24982SOL    HW292557   9.405   5.970   1.618  0.3820 -0.5873  0.5902
24983SOL     OW92558   7.430   3.493   7.830 -0.2027  0.4615 -0.4702
24983SOL    HW192559   7.524   3.474   7.827 -0.3502 -0.2019 -1.3878
24983SOL    HW292560   7.414   3.519   7.921  0.8239  0.3673 -0.2448
24984SOL     OW92561  12.603   4.090  13.506 -0.3857  0.0202 -0.6622
24984SOL    HW192562  12.649   4.171  13.483 -1.7279  0.1399 -3.2875
24984SOL    HW292563  12.515   4.119  13.531 -1.2073 -0.6186 -2.6339
24985SOL     OW92564   5.748  10.992   8.908  0.6260 -0.2155  0.2416
24985SOL    HW192565   5.699  10.910   8.896  0.0327 -0.1894  2.1942
24985SOL    HW292566   5.695  11.058   8.864  0.1425 -0.5798  0.2682
24986SOL     OW92567   9.961   8.840   4.447 -0.1111  0.4189  0.0486
24986SOL    HW192568  10.014   8.796   4.513  0.1617 -1.1930 -1.1799
24986SOL    HW292569   9.983   8.933   4.455  0.1071  0.2209  2.0104
24987SOL     OW92570   1.754   3.591   4.849  0.3597 -0.2472  0.4779
24987SOL    HW192571   1.693   3.538   4.798 -1.5685  1.3704  0.9530
24987SOL    HW292572   1.839   3.577   4.807 -0.8209 -0.3352 -2.1127
24988SOL     OW92573   6.812   1.948   1.038 -0.4926 -0.4080 -0.0934
24988SOL    HW192574   6.752   1.906   0.977 -1.0953  1.5339 -0.9321
24988SOL    HW292575   6.758   1.970   1.114 -0.6132  0.4114 -0.4093
24989SOL     OW92576  14.025   5.856  12.203 -0.2153  0.2566 -0.5628
24989SOL    HW192577  13.991   5.800  12.273  0.0372  1.0697  0.2314
24989SOL    HW292578  13.955   5.857  12.137 -0.2040 -1.0053 -0.6183
24990SOL     OW92579  12.769   3.650  11.078 -0.0531  0.3233 -0.4022
24990SOL    HW192580  12.693   3.623  11.128 -0.4758  0.3382 -1.0289
24990SOL    HW292581  12.740   3.650  10.987  0.9258 -0.4801 -0.7366
24991SOL     OW92582  12.738   9.635   1.809  0.0571  0.1116  0.3196
24991SOL    HW192583  12.778   9.550   1.795  0.9056  0.3750  1.0287
24991SOL    HW292584  12.782   9.670   1.887 -0.7262  0.9217  0.4225
24992SOL     OW92585   8.278  10.105   3.762 -0.0513  0.1998 -0.1409
24992SOL    HW192586   8.260  10.126   3.853  1.1939 -1.0003  0.4080
24992SOL    HW292587   8.218  10.033   3.742 -1.0033  1.0844 -0.5970
24993SOL     OW92588   4.599  13.715   1.652 -0.3774 -0.2590  0.1504
24993SOL    HW192589   4.661  13.749   1.587 -0.5394  1.0302  0.6542
24993SOL    HW292590   4.653  13.659   1.709  0.1756  0.2556  0.1421
24994SOL     OW92591   1.803  10.253  10.517 -0.0575  0.4924 -0.5796
24994SOL    HW192592   1.846  10.182  10.470 -0.8621 -0.5791  0.2795
24994SOL    HW292593   1.711  10.228  10.520 -0.1077  0.7966  1.0889
24995SOL     OW92594  13.891   1.638   0.896 -0.2409  0.1481  0.2959
24995SOL    HW192595  13.907   1.730   0.877  0.4352  0.1004  0.6150
24995SOL    HW292596  13.950   1.591   0.837  0.4409 -0.0428  1.1165
24996SOL     OW92597   3.923   0.575   2.806  0.5898 -0.6203 -0.2073
24996SOL    HW192598   3.880   0.637   2.864  0.1731 -0.8507 -0.2729
24996SOL    HW292599   3.852   0.530   2.760  0.8486 -1.8879  0.5937
24997SOL     OW92600   4.474   1.909   6.936  0.0775 -0.8572  0.0944
24997SOL    HW192601   4.554   1.896   6.986 -0.5405  0.9744  1.6780
24997SOL    HW292602   4.406   1.923   7.002 -0.7363  1.9182 -1.1569
24998SOL     OW92603  11.737   8.132  13.644 -0.1644 -0.0534  0.0862
24998SOL    HW192604  11.694   8.172  13.720  1.7982 -1.0038  1.8010
24998SOL    HW292605  11.666   8.118  13.581 -2.6195 -2.3171  3.0376
24999SOL     OW92606   9.984  11.188  12.584 -0.2602 -0.2762 -0.1831
24999SOL    HW192607   9.978  11.190  12.488 -2.2740  0.8255 -0.0713
24999SOL    HW292608   9.969  11.096  12.607  1.3020 -0.7633 -0.9238
25000SOL     OW92609   8.988   5.582   2.212 -0.2391 -0.0288  0.5571
25000SOL    HW192610   8.974   5.488   2.202 -0.6890  0.0481  0.4192
25000SOL    HW292611   9.044   5.590   2.289 -0.1423 -0.4131  0.5283
25001SOL     OW92612   1.728   2.043   5.629 -0.1420  0.3850 -0.2859
25001SOL    HW192613   1.725   2.133   5.663  0.5016 -0.1743  1.3131
25001SOL    HW292614   1.660   1.996   5.677 -0.3120 -0.0658 -0.9436
25002SOL     OW92615  12.236  12.996  13.881  0.1874  0.5802  0.0025
25002SOL    HW192616  12.179  12.949  13.819  1.3814 -0.2919 -0.4834
25002SOL    HW292617  12.176  13.048  13.934 -1.0058  0.1677 -0.8871
25003SOL     OW92618   9.888   0.502   8.295  0.2753 -0.0598 -0.0787
25003SOL    HW192619   9.950   0.503   8.368 -0.9964 -0.6229  1.0500
25003SOL    HW292620   9.884   0.410   8.269 -3.4595 -0.9922  2.9431
25004SOL     OW92621  14.054  12.890   8.429 -0.0730 -0.2714 -0.2615
25004SOL    HW192622  14.062  12.830   8.503  2.6183 -0.8831 -0.9601
25004SOL    HW292623  14.064  12.977   8.467  3.0434 -0.6461  0.0027
25005SOL     OW92624   5.040  11.593   1.761  0.5572 -0.1150  0.2276
25005SOL    HW192625   4.975  11.597   1.691  0.6671  0.5233  0.1571
25005SOL    HW292626   5.100  11.665   1.743  0.4975  0.1564  1.0554
25006SOL     OW92627   9.104   9.379  10.273 -0.5717  0.6292  0.6037
25006SOL    HW192628   9.025   9.433  10.276 -0.8156  0.3048  0.0955
25006SOL    HW292629   9.143   9.389  10.360  0.3234  3.0034  0.0257
25007SOL     OW92630  10.437   3.123   9.953 -0.2285  0.0370  0.0594
25007SOL    HW192631  10.414   3.167   9.871 -2.1496  2.8870  1.9214
25007SOL    HW292632  10.524   3.157   9.975  0.5125 -1.1174 -0.9526
25008SOL     OW92633   6.165   7.512  13.160  0.3672 -0.1642  0.1988
25008SOL    HW192634   6.092   7.499  13.221 -0.5747  1.4716 -0.5333
25008SOL    HW292635   6.235   7.457  13.196  0.3052  1.6492  3.4797
25009SOL     OW92636  11.909  10.027  12.492 -0.1613  0.1454  0.3154
25009SOL    HW192637  11.824  10.009  12.532 -0.5507 -0.3089 -0.6878
25009SOL    HW292638  11.890  10.041  12.399  0.5863  2.2876  0.4450
25010SOL     OW92639  11.841   7.423   8.839  0.2328 -0.1367 -0.0138
25010SOL    HW192640  11.885   7.489   8.893 -0.2519  0.9814 -0.9486
25010SOL    HW292641  11.900   7.348   8.841  0.7288  0.2509  1.2013
25011SOL     OW92642   0.343   5.837   7.414  0.5049  0.3708  0.2712
25011SOL    HW192643   0.248   5.827   7.410  0.7507 -2.8414 -0.6118
25011SOL    HW292644   0.372   5.835   7.323  1.4687  0.2059  0.5588
25012SOL     OW92645   1.556   7.593  11.868  0.1956 -0.3551 -0.9607
25012SOL    HW192646   1.611   7.523  11.904  0.3712  1.0911  1.8093
25012SOL    HW292647   1.471   7.552  11.854  0.1136 -1.0501  1.2283
25013SOL     OW92648  12.448   3.695   8.837 -0.0212  0.2265  0.1322
25013SOL    HW192649  12.366   3.738   8.813  0.3867  0.2736 -1.2232
25013SOL    HW292650  12.433   3.602   8.821 -0.8467 -0.2256  2.9064
25014SOL     OW92651   2.711   3.152   4.814 -0.6094  0.2138  0.0006
25014SOL    HW192652   2.638   3.175   4.758  0.7601  1.4191 -1.3776
25014SOL    HW292653   2.751   3.236   4.838  0.7906 -0.4432  0.0506
25015SOL     OW92654  10.429   7.058  12.981  0.0722 -0.0158  0.6857
25015SOL    HW192655  10.475   7.012  13.051  1.0943  0.4296  0.3293
25015SOL    HW292656  10.489   7.128  12.955 -1.2675  1.2990  0.9544
25016SOL     OW92657  11.213   6.099   6.037 -0.3035  0.0231 -0.1132
25016SOL    HW192658  11.150   6.111   5.965  0.5115  1.3739 -0.6299
25016SOL    HW292659  11.178   6.153   6.108  0.0141  0.3961 -0.2382
25017SOL     OW92660   8.383   3.754   1.254  0.0662  0.1136 -0.5775
25017SOL    HW192661   8.378   3.804   1.336  0.6296 -1.1469  0.2596
25017SOL    HW292662   8.412   3.818   1.189 -2.1548  1.5780 -0.2302
25018SOL     OW92663   6.515  11.177  11.346  0.1312 -0.1661  0.6591
25018SOL    HW192664   6.496  11.259  11.300  0.6677  0.4824  1.5715
25018SOL    HW292665   6.435  11.126  11.339  0.4271 -0.4220 -1.6562
25019SOL     OW92666   8.554   9.372   3.310  0.1754 -0.4359  0.3912
25019SOL    HW192667   8.461   9.385   3.329  0.2337  1.0585 -0.1981
25019SOL    HW292668   8.599   9.426   3.374  0.6012 -0.4629  0.1162
25020SOL     OW92669   2.848   8.231   3.776 -0.4678 -0.2121  0.4236
25020SOL    HW192670   2.859   8.139   3.803 -0.3667  0.0598  1.3532
25020SOL    HW292671   2.913   8.279   3.828 -0.7442  0.4297  0.1879
25021SOL     OW92672  12.099   2.282  14.021 -0.1443  0.0159 -0.6091
25021SOL    HW192673  12.148   2.259  13.942 -1.1602  0.5750 -1.4188
25021SOL    HW292674  12.054   2.202  14.046 -1.0345  0.2215 -1.4965
25022SOL     OW92675  13.423   0.174   5.434 -0.0169 -0.1880 -0.0937
25022SOL    HW192676  13.402   0.204   5.346 -1.5210  0.1158  0.3377
25022SOL    HW292677  13.361   0.103   5.451  1.7726 -1.8259 -0.1075
25023SOL     OW92678   3.462   4.282  11.260  0.1208 -0.6515  0.2500
25023SOL    HW192679   3.375   4.322  11.270  0.0136 -0.3592 -1.5624
25023SOL    HW292680   3.445   4.189  11.251 -0.0240 -0.5880 -0.1602
25024SOL     OW92681   7.792   3.756   1.647 -0.1083 -0.2459 -0.6011
25024SOL    HW192682   7.854   3.717   1.585  0.6198  0.9106 -0.6214
25024SOL    HW292683   7.712   3.704   1.636  0.3504 -0.7579 -1.7200
25025SOL     OW92684   2.109   0.783   3.108 -0.0887 -0.4841  0.4593
25025SOL    HW192685   2.183   0.788   3.168  0.2544 -2.0098  0.2137
25025SOL    HW292686   2.034   0.760   3.163  0.0911 -1.2171  0.4039
25026SOL     OW92687   5.637   1.356  10.668 -0.2140  0.6009 -0.1425
25026SOL    HW192688   5.596   1.442  10.656 -0.3384  0.4388 -0.9490
25026SOL    HW292689   5.644   1.345  10.763 -2.8630  0.2355  0.0630
25027SOL     OW92690   9.323   8.532   6.384 -0.6869 -1.1584  0.3293
25027SOL    HW192691   9.255   8.561   6.323 -0.6974 -2.1886 -0.1684
25027SOL    HW292692   9.401   8.520   6.330 -0.3546 -0.8722  0.7393
25028SOL     OW92693   9.376   1.345   3.908  0.5513 -0.3325  0.0183
25028SOL    HW192694   9.369   1.437   3.936 -0.5434 -0.1699 -0.7205
25028SOL    HW292695   9.435   1.348   3.832  0.6065 -0.2620  0.0629
25029SOL     OW92696   6.611   4.443   2.020  0.1467  0.4408  0.1526
25029SOL    HW192697   6.702   4.473   2.018 -0.0484  1.0526 -1.9395
25029SOL    HW292698   6.617   4.348   2.026  0.8966  0.5143  0.6840
25030SOL     OW92699   9.697   3.445   1.624 -0.4064  0.3594 -0.1071
25030SOL    HW192700   9.679   3.380   1.556 -2.4532 -1.5064  1.9768
25030SOL    HW292701   9.611   3.464   1.662  0.6746  0.6728  2.4262
25031SOL     OW92702   8.096  12.929   3.044 -0.1253  0.6076  0.7254
25031SOL    HW192703   8.157  12.919   2.971 -0.5915  0.9985  0.2770
25031SOL    HW292704   8.133  13.000   3.096  0.0030  0.5854  0.6664
25032SOL     OW92705   5.086   4.280   3.451  0.5177  0.6253 -0.1206
25032SOL    HW192706   5.056   4.350   3.393  0.6404  0.1054 -0.8158
25032SOL    HW292707   5.155   4.236   3.402 -0.6973 -1.0505 -0.4092
25033SOL     OW92708   2.150  13.091   6.503 -0.0386  0.1506 -0.3899
25033SOL    HW192709   2.107  13.031   6.565  0.1408 -1.4605 -1.7389
25033SOL    HW292710   2.223  13.040   6.468 -0.9029  0.4708 -2.8808
25034SOL     OW92711   0.591   2.159   0.963  0.5143 -0.0754  0.6547
25034SOL    HW192712   0.556   2.071   0.946  0.5467 -0.0343  0.3744
25034SOL    HW292713   0.524   2.218   0.928 -0.0024  0.0315  1.7739
25035SOL     OW92714  10.779   0.357  13.030  0.1346 -0.2363  0.5395
25035SOL    HW192715  10.709   0.376  12.968  1.5988  0.4647 -0.9629
25035SOL    HW292716  10.763   0.417  13.103  0.2736  1.3478 -0.6798
25036SOL     OW92717   9.688   7.443   0.479 -0.2660  0.3362 -0.0335
25036SOL    HW192718   9.754   7.510   0.498  0.8114 -0.4385 -0.9144
25036SOL    HW292719   9.667   7.405   0.564  1.2900 -0.1695  0.1565
25037SOL     OW92720   4.796  12.485   8.816 -0.2395 -0.3163  0.0875
25037SOL    HW192721   4.774  12.560   8.760  1.1853  0.2140  0.2054
25037SOL    HW292722   4.803  12.411   8.755 -2.2183 -0.5251  0.0385
25038SOL     OW92723  10.666   0.523  10.637  0.0469  0.3046 -0.0818
25038SOL    HW192724  10.637   0.575  10.713  0.6346  0.5751 -0.0330
25038SOL    HW292725  10.725   0.582  10.590  0.2592 -0.1206 -0.3494
25039SOL     OW92726   8.340   2.790   3.473 -0.7285 -0.4482 -0.3995
25039SOL    HW192727   8.324   2.851   3.401 -1.0100 -0.4873 -0.3690
25039SOL    HW292728   8.266   2.730   3.470 -0.9957 -0.1538  0.2364
25040SOL     OW92729   3.478   9.081   4.600  0.5887 -0.2896 -0.0349
25040SOL    HW192730   3.508   8.990   4.611  2.3015  0.4265  1.8005
25040SOL    HW292731   3.461   9.111   4.689 -2.4441  0.4806 -0.7730
25041SOL     OW92732  13.831   9.765   6.651  0.4072  0.8567 -0.0443
25041SOL    HW192733  13.902   9.794   6.707  1.4330 -0.8667 -0.3887
25041SOL    HW292734  13.863   9.685   6.609 -0.4962  1.7649 -2.7127
25042SOL     OW92735  13.458   1.210  12.904  0.0981  0.4325 -0.3678
25042SOL    HW192736  13.525   1.212  12.836 -0.2036  0.1727 -0.6824
25042SOL    HW292737  13.475   1.129  12.952  1.3031  1.4090  0.9054
25043SOL     OW92738   4.881   1.279   5.684 -0.0671  0.1569 -0.2471
25043SOL    HW192739   4.946   1.345   5.660 -1.7368  1.8691 -0.2913
25043SOL    HW292740   4.852   1.304   5.771 -0.6000 -0.6287 -0.1912
25044SOL     OW92741   4.768   1.249   2.443  0.0783 -0.5884 -0.1935
25044SOL    HW192742   4.811   1.205   2.516  0.2124 -1.6982 -0.9221
25044SOL    HW292743   4.801   1.339   2.447  1.1120 -0.9678  0.3194
25045SOL     OW92744   2.773   4.241   1.113  0.0654  0.3598 -0.1802
25045SOL    HW192745   2.790   4.154   1.148  0.9011  0.9723  0.9706
25045SOL    HW292746   2.795   4.234   1.020 -1.2898 -1.0312 -0.4462
25046SOL     OW92747   4.206   2.461  13.128  0.3482 -0.1974  0.2006
25046SOL    HW192748   4.195   2.378  13.174  1.0164 -0.4141 -0.0212
25046SOL    HW292749   4.298   2.484  13.141  0.1265  0.6112  0.4298
25047SOL     OW92750  14.011  11.003   4.106 -0.1767  0.5905  0.0798
25047SOL    HW192751  14.032  11.078   4.161 -1.4905  0.5145  0.7310
25047SOL    HW292752  13.927  11.025   4.066 -0.2464 -0.2401 -0.2624
25048SOL     OW92753   3.056  13.790  10.986  0.4167 -0.2906  0.5015
25048SOL    HW192754   3.013  13.866  10.947  0.1200  0.0326  1.4394
25048SOL    HW292755   3.077  13.817  11.075  1.1341 -1.0011  0.5540
25049SOL     OW92756   9.594   2.408  13.657 -0.2177 -0.5623 -0.1506
25049SOL    HW192757   9.600   2.386  13.564 -0.5203  2.9947 -1.1674
25049SOL    HW292758   9.506   2.380  13.683 -0.9690  0.3541 -1.5888
25050SOL     OW92759   9.019   8.526   7.972 -0.5568 -0.6552 -0.2674
25050SOL    HW192760   9.013   8.555   7.881  3.0944 -2.7554 -1.3687
25050SOL    HW292761   9.000   8.605   8.023  0.9633  1.6286 -2.9336
25051SOL     OW92762  12.391  12.980   7.929  0.2227 -0.0113  0.3029
25051SOL    HW192763  12.379  12.986   8.024  1.3951  1.2382  0.3997
25051SOL    HW292764  12.469  13.032   7.911 -0.6412  0.7389 -1.5028
25052SOL     OW92765  12.496   2.108   7.662 -0.0085 -0.1343 -0.7429
25052SOL    HW192766  12.495   2.110   7.757  1.8403  2.0434 -0.6922
25052SOL    HW292767  12.405   2.091   7.637 -1.1458  2.2248  1.4099
25053SOL     OW92768   0.012   0.510   8.661  0.2302 -0.0419  0.1625
25053SOL    HW192769   0.058   0.582   8.617 -0.9362 -0.3042 -1.5910
25053SOL    HW292770   0.082   0.456   8.697  1.3895 -0.5159 -2.5389
25054SOL     OW92771   4.665   1.551   6.773 -0.2563 -0.4259  0.2755
25054SOL    HW192772   4.758   1.572   6.783 -0.2506  0.1399 -0.7398
25054SOL    HW292773   4.626   1.577   6.856  0.2528  0.8705  0.1469
25055SOL     OW92774   6.001   0.394   9.401 -0.3951  0.4129 -0.0416
25055SOL    HW192775   5.993   0.482   9.440 -2.1184  0.4907 -0.4903
25055SOL    HW292776   5.989   0.408   9.307  0.0205 -0.2321 -0.1962
25056SOL     OW92777   3.257   2.010   6.838 -0.1754  0.1099  0.2386
25056SOL    HW192778   3.300   2.092   6.812 -1.2600  0.4268 -0.6477
25056SOL    HW292779   3.170   2.037   6.865 -0.1891 -0.6445  0.9849
25057SOL     OW92780   7.220  11.442  10.502  0.0693  0.0769  0.0351
25057SOL    HW192781   7.182  11.523  10.536 -1.9917 -0.8007 -0.0356
25057SOL    HW292782   7.302  11.432  10.550  0.4750  2.2798 -0.0986
25058SOL     OW92783   5.189  11.561   8.982 -0.2650 -0.1582 -0.0222
25058SOL    HW192784   5.196  11.653   9.010 -1.4405 -0.1719  0.3525
25058SOL    HW292785   5.208  11.563   8.888  3.4271 -0.0614  0.5698
25059SOL     OW92786  12.010   2.383   5.562  0.3838  0.2486  0.5773
25059SOL    HW192787  12.056   2.452   5.609  0.0507  1.0672 -0.2703
25059SOL    HW292788  12.068   2.307   5.568  1.3527  0.9541  0.4289
25060SOL     OW92789   3.259  11.523  13.484  0.4058 -0.0649 -0.3130
25060SOL    HW192790   3.311  11.510  13.563  2.2303 -1.6734 -1.6899
25060SOL    HW292791   3.284  11.610  13.452 -0.7359  0.8248  1.0888
25061SOL     OW92792  12.621  13.809  10.584  0.7093  0.2451 -0.2002
25061SOL    HW192793  12.618  13.713  10.592  0.0462  0.3563  1.2111
25061SOL    HW292794  12.536  13.832  10.547 -0.2997  0.4562  2.0887
25062SOL     OW92795   2.314   9.136   5.866 -0.0381  0.6634 -0.5203
25062SOL    HW192796   2.352   9.216   5.831  0.9633  1.7484  2.6829
25062SOL    HW292797   2.334   9.068   5.801  1.8439  2.4054 -1.8516
25063SOL     OW92798   7.553   7.558   0.363 -0.1098  0.5039 -0.3586
25063SOL    HW192799   7.502   7.477   0.352 -0.5865  0.9939 -2.0984
25063SOL    HW292800   7.491   7.628   0.343  0.3706  1.3155  0.8675
25064SOL     OW92801   1.422   8.175   9.664 -0.0136 -0.1059 -0.2579
25064SOL    HW192802   1.437   8.081   9.677  2.8658  0.2904 -0.0245
25064SOL    HW292803   1.444   8.189   9.571  1.4784  0.5894  0.1694
25065SOL     OW92804   9.541   9.902   5.845 -0.1482  0.0084  0.1837
25065SOL    HW192805   9.502   9.923   5.930 -1.7682 -0.6344 -0.3651
25065SOL    HW292806   9.544   9.806   5.843 -0.8544 -0.0100 -0.7845
25066SOL     OW92807   9.060   3.679  10.874 -0.1598 -0.2438  0.3677
25066SOL    HW192808   9.037   3.763  10.834 -1.0207  0.5577  2.3625
25066SOL    HW292809   9.153   3.687  10.896 -0.5700  0.8282  1.8650
25067SOL     OW92810  10.912  10.158   4.209  0.0465 -0.4759 -0.4300
25067SOL    HW192811  10.978  10.109   4.258 -0.4892 -1.7553 -0.9397
25067SOL    HW292812  10.832  10.147   4.260 -0.0425  0.0101 -0.4647
25068SOL     OW92813   7.204  11.182   3.877  0.1344 -0.3977  0.3559
25068SOL    HW192814   7.262  11.245   3.833 -2.1375  0.9036 -0.9776
25068SOL    HW292815   7.259  11.105   3.891  1.9564  0.4402 -1.5722
25069SOL     OW92816   3.595   7.803   1.170  0.1986 -0.1427 -0.1566
25069SOL    HW192817   3.560   7.713   1.170 -0.4572  0.0945 -0.9401
25069SOL    HW292818   3.656   7.805   1.096  0.2279  0.0530 -0.1272
25070SOL     OW92819   0.577  13.283   1.940 -0.4791  0.3554  0.1089
25070SOL    HW192820   0.560  13.229   2.018  1.6422  0.0993  0.4329
25070SOL    HW292821   0.672  13.295   1.939 -0.6104  1.5630 -1.6645
25071SOL     OW92822  13.003   3.541  10.495 -0.0226  0.2661 -0.1968
25071SOL    HW192823  13.079   3.504  10.539  0.3229  0.9788 -0.1678
25071SOL    HW292824  12.983   3.620  10.546 -2.0855 -0.9850  1.0712
25072SOL     OW92825   6.845   1.624   6.137  0.7741  0.1609  0.5808
25072SOL    HW192826   6.901   1.700   6.124 -1.1365  1.7569  1.2970
25072SOL    HW292827   6.810   1.634   6.225 -0.7167 -0.7056  0.1210
25073SOL     OW92828  12.960  13.142   6.012  0.8104  0.0697  0.3696
25073SOL    HW192829  12.886  13.116   6.068  0.2099 -0.0204 -0.4473
25073SOL    HW292830  12.920  13.195   5.943  1.5630  0.2967  0.0992
25074SOL     OW92831   0.653   3.583  11.562 -0.5456  0.1536 -0.0934
25074SOL    HW192832   0.638   3.491  11.585 -0.5684  0.1135 -0.2654
25074SOL    HW292833   0.748   3.590  11.554 -0.6349 -0.4838 -2.5851
25075SOL     OW92834  11.361  11.251  12.939  0.6438 -0.2390  0.5278
25075SOL    HW192835  11.437  11.308  12.932 -0.3724  0.9764 -2.8966
25075SOL    HW292836  11.380  11.178  12.880 -1.6698  1.3716 -2.4808
25076SOL     OW92837  12.584   4.706   1.486 -0.4233 -0.1918  0.1115
25076SOL    HW192838  12.625   4.693   1.400  0.9816 -0.7148  0.8305
25076SOL    HW292839  12.526   4.631   1.496 -1.5212  0.4949 -0.8736
25077SOL     OW92840  11.087   6.482   2.494  0.3190  0.8222 -0.0235
25077SOL    HW192841  11.147   6.442   2.557  2.1486  4.1168  0.4987
25077SOL    HW292842  11.000   6.465   2.531  1.0502 -1.1175  0.9930
25078SOL     OW92843   7.003   2.926  12.930 -0.4619  0.2027  0.2061
25078SOL    HW192844   6.998   2.832  12.911  2.1792  0.1057 -0.3558
25078SOL    HW292845   7.028   2.966  12.847  0.0409  1.2082  0.8238
25079SOL     OW92846   4.022   9.474  13.945 -0.0648 -0.3806  0.1469
25079SOL    HW192847   4.027   9.420  14.024 -0.7479  0.6190  0.8914
25079SOL    HW292848   4.042   9.562  13.975 -0.3334  0.0098 -0.8055
25080SOL     OW92849   9.719  10.439  10.049 -0.0303  0.4641 -0.0437
25080SOL    HW192850   9.764  10.519  10.023  0.6163 -0.0802 -0.6431
25080SOL    HW292851   9.644  10.469  10.101  1.4798  1.3512  1.7149
25081SOL     OW92852   7.146  10.756   2.055 -0.0699 -0.1037  0.3827
25081SOL    HW192853   7.131  10.677   2.002  0.2885 -0.0986  0.2723
25081SOL    HW292854   7.059  10.779   2.088 -0.4625  0.4218 -0.9415
25082SOL     OW92855  11.265  13.433  13.734 -0.3230  0.0434 -0.2602
25082SOL    HW192856  11.229  13.520  13.716 -1.0143 -0.1006  0.3941
25082SOL    HW292857  11.216  13.401  13.810  0.6680 -0.4712  0.1940
25083SOL     OW92858   1.370   4.520  13.028  0.3308 -0.5677 -0.0073
25083SOL    HW192859   1.355   4.488  12.938 -1.5603 -1.6211  0.6224
25083SOL    HW292860   1.408   4.444  13.073  1.9554  0.1824 -0.0404
25084SOL     OW92861  12.512  10.543   1.510  0.0509 -0.2014 -0.3291
25084SOL    HW192862  12.515  10.631   1.473 -0.7115  0.4817  1.1138
25084SOL    HW292863  12.604  10.515   1.514  0.2766  0.4127 -1.0505
25085SOL     OW92864  13.765  13.854   1.600 -0.0882  0.2073 -0.2068
25085SOL    HW192865  13.834  13.893   1.654  0.2625  1.7382 -1.6627
25085SOL    HW292866  13.804  13.773   1.567  0.1588 -0.0855  0.7505
25086SOL     OW92867   9.238   3.075   7.672 -0.1233  0.8895 -0.0352
25086SOL    HW192868   9.311   3.126   7.637  0.4550 -0.4690 -0.9062
25086SOL    HW292869   9.161   3.108   7.627  0.3406  0.5361 -1.1218
25087SOL     OW92870   5.879   9.994   1.902 -0.0760 -0.0726 -0.1329
25087SOL    HW192871   5.963  10.038   1.920 -0.4470  0.3165  0.7357
25087SOL    HW292872   5.821  10.026   1.972 -1.2251  0.4153 -1.2768
25088SOL     OW92873  10.575  13.782   6.722  0.3949 -0.2893 -0.2448
25088SOL    HW192874  10.563  13.728   6.643  0.4224 -2.1371  0.9421
25088SOL    HW292875  10.659  13.753   6.758 -0.7552 -1.3528  1.7944
25089SOL     OW92876   3.113   1.792  11.371 -0.4670  0.0208 -0.1834
25089SOL    HW192877   3.166   1.817  11.295  1.5357  1.4351  1.5746
25089SOL    HW292878   3.129   1.698  11.382 -0.6030 -0.1496 -1.3414
25090SOL     OW92879   1.568  12.453  11.342  0.7219 -0.1953 -0.6941
25090SOL    HW192880   1.514  12.400  11.283 -0.3885 -1.4142  1.3041
25090SOL    HW292881   1.508  12.521  11.374  1.1574  0.1252 -0.5556
25091SOL     OW92882  10.706  11.860  13.967  0.8497  0.5470  0.1289
25091SOL    HW192883  10.742  11.784  13.921  2.3188  0.3699  1.5068
25091SOL    HW292884  10.719  11.841  14.060  2.6917  3.1088  0.5078
25092SOL     OW92885  11.723   3.730   5.135  0.0197  0.2955  0.3272
25092SOL    HW192886  11.655   3.662   5.133  0.1139  0.1817  0.8575
25092SOL    HW292887  11.733   3.756   5.044 -0.3432 -0.0825  0.1750
25093SOL     OW92888   3.604   0.133   3.246 -0.0478  0.0456 -0.5610
25093SOL    HW192889   3.590   0.138   3.151 -3.5483 -1.4588 -0.2668
25093SOL    HW292890   3.532   0.182   3.284  0.6676 -0.3074  1.3599
25094SOL     OW92891  10.766   7.287   4.394  0.2853 -0.2423  0.3270
25094SOL    HW192892  10.708   7.360   4.414  2.2528  0.9795  1.8956
25094SOL    HW292893  10.786   7.248   4.478  0.2002 -1.9084 -0.3859
25095SOL     OW92894   3.943  11.475   3.938 -0.6087  0.3200 -0.0493
25095SOL    HW192895   3.958  11.567   3.959 -0.8371 -0.0867  2.2000
25095SOL    HW292896   4.028  11.433   3.957 -0.7652 -0.0504 -0.1679
25096SOL     OW92897   9.920   4.815   9.289 -0.0713  0.3300 -0.2233
25096SOL    HW192898  10.005   4.817   9.245 -0.5434 -2.2173 -1.3970
25096SOL    HW292899   9.915   4.900   9.334  2.3485  1.2325 -1.4589
25097SOL     OW92900   3.635  10.471   9.477 -0.1504  0.1558  0.5408
25097SOL    HW192901   3.554  10.450   9.522  0.8679  0.7825  2.7873
25097SOL    HW292902   3.694  10.501   9.546  2.5424 -1.7852 -0.7392
25098SOL     OW92903  12.907   7.546   8.144 -0.2428 -0.3242 -0.4940
25098SOL    HW192904  12.985   7.600   8.130 -0.5181  0.0971 -0.4086
25098SOL    HW292905  12.941   7.463   8.179  0.1717 -0.1745 -0.5370
25099SOL     OW92906   3.841  11.066  13.261 -0.1220  0.4893 -0.2806
25099SOL    HW192907   3.905  11.006  13.298  0.2781  0.4674 -0.9991
25099SOL    HW292908   3.760  11.048  13.309  0.1167 -0.2974 -0.1711
25100SOL     OW92909   2.039   3.250   8.435 -0.0960  0.6499 -0.2040
25100SOL    HW192910   2.124   3.292   8.427 -0.0426  0.7869  0.9884
25100SOL    HW292911   1.993   3.302   8.501 -1.3780  1.0050 -1.3187
25101SOL     OW92912  11.839   7.773   6.317 -0.1836 -0.5536 -0.1121
25101SOL    HW192913  11.925   7.780   6.278 -1.0274  1.6699 -1.7792
25101SOL    HW292914  11.838   7.840   6.386 -0.8328  0.0829 -0.7169
25102SOL     OW92915  11.393  11.002  12.808 -0.0490 -0.2636 -0.2947
25102SOL    HW192916  11.308  10.960  12.817 -0.0671  0.0938  1.8456
25102SOL    HW292917  11.451  10.933  12.776 -0.5935 -1.2980  0.8445
25103SOL     OW92918   5.448  11.305   2.249  0.0102 -0.2314 -0.2300
25103SOL    HW192919   5.421  11.249   2.322  1.1095  0.0434  0.4013
25103SOL    HW292920   5.368  11.353   2.225 -0.4211 -0.4997  0.6245
25104SOL     OW92921  10.931   7.093  12.487 -0.0913  0.2006  0.2524
25104SOL    HW192922  11.014   7.078  12.533 -0.2494  1.4962  0.9971
25104SOL    HW292923  10.955   7.091  12.394  0.3991 -1.4637  0.3954
25105SOL     OW92924   8.857   4.805   5.712 -0.4417 -0.1290 -0.8470
25105SOL    HW192925   8.875   4.873   5.647  2.5933  0.7181  0.7014
25105SOL    HW292926   8.830   4.729   5.660 -1.9341  1.5968 -2.7651
25106SOL     OW92927   8.307  11.887   7.100 -0.1597 -0.5808 -0.1658
25106SOL    HW192928   8.312  11.963   7.158 -0.0360 -0.0296 -0.8791
25106SOL    HW292929   8.399  11.862   7.085 -0.0849  0.4272 -1.5727
25107SOL     OW92930  11.007  12.455  13.273  0.1733  0.0898 -0.3704
25107SOL    HW192931  11.038  12.531  13.322  1.4751 -1.6615  1.7049
25107SOL    HW292932  11.069  12.445  13.201  0.7824  0.2162  0.1384
25108SOL     OW92933   6.397   4.007   6.028 -0.0175  0.2119  0.2163
25108SOL    HW192934   6.365   3.973   6.111 -0.8142  0.6681  0.1059
25108SOL    HW292935   6.397   3.931   5.970 -1.5623  0.3220  0.0359
25109SOL     OW92936  13.964   5.621  13.351  0.1082  0.2735  0.3630
25109SOL    HW192937  13.913   5.543  13.326  0.2906 -0.6872  2.7548
25109SOL    HW292938  13.949   5.630  13.445  1.3001  2.2683  0.4029
25110SOL     OW92939   3.160  10.625   7.031 -0.0200  0.3571 -0.8729
25110SOL    HW192940   3.097  10.553   7.039 -0.6967  0.9174 -1.0276
25110SOL    HW292941   3.110  10.695   6.989  0.0959  1.5458  0.8808
25111SOL     OW92942   0.685   8.425   4.691  0.5124  0.2721 -0.6456
25111SOL    HW192943   0.603   8.430   4.642 -1.0373 -2.0842  1.4675
25111SOL    HW292944   0.717   8.515   4.692 -2.9829  1.6727 -0.0970
25112SOL     OW92945  14.024   2.103   0.037  0.0383  0.0155  0.1073
25112SOL    HW192946  13.998   2.015   0.010 -1.1731  0.5924 -0.7049
25112SOL    HW292947  14.108   2.117  -0.007  1.4288 -1.5666  2.0945
25113SOL     OW92948   5.221   2.896   7.689 -0.3299  0.2401 -0.4952
25113SOL    HW192949   5.152   2.899   7.622  1.0014  1.6760 -1.8784
25113SOL    HW292950   5.291   2.845   7.650 -0.9564 -2.2760  1.3712
25114SOL     OW92951   7.096   2.853   5.779 -0.2000 -0.1014  0.2188
25114SOL    HW192952   7.139   2.768   5.770  2.8628  1.4299 -1.0191
25114SOL    HW292953   7.101   2.891   5.691 -1.6600  1.3320  0.7118
25115SOL     OW92954   1.609   9.285   1.271 -0.1521 -0.2390  0.2360
25115SOL    HW192955   1.568   9.218   1.325 -0.1634 -1.0388 -0.7243
25115SOL    HW292956   1.678   9.239   1.223 -0.8530  0.1706 -1.2338
25116SOL     OW92957  13.636   5.514   1.038  0.2383 -0.3661 -0.3665
25116SOL    HW192958  13.620   5.420   1.046 -0.7040 -0.1885 -0.0908
25116SOL    HW292959  13.604   5.537   0.951 -1.2340  0.0218  0.2535
25117SOL     OW92960   6.567  10.061  13.249 -0.7684 -0.2901 -0.5378
25117SOL    HW192961   6.582  10.153  13.270 -1.2128 -0.0557 -1.2232
25117SOL    HW292962   6.475  10.056  13.224 -1.2729 -1.2918  1.3613
25118SOL     OW92963  13.698   2.674   6.917  0.2356  0.0228  0.0613
25118SOL    HW192964  13.764   2.605   6.922  0.2990  0.1734  2.1471
25118SOL    HW292965  13.730   2.732   6.848  2.6569  0.4109  1.4079
25119SOL     OW92966   1.301   6.191  10.270 -0.1521 -0.4266  0.2276
25119SOL    HW192967   1.391   6.185  10.301  0.5286  1.5940 -1.1430
25119SOL    HW292968   1.307   6.241  10.189 -2.5080 -0.2662  0.0872
25120SOL     OW92969   7.330   1.899   3.331 -0.0126  0.1003 -0.3672
25120SOL    HW192970   7.419   1.871   3.308  0.6856  1.4475  0.5372
25120SOL    HW292971   7.340   1.991   3.355 -1.5409  0.0817  0.4435
25121SOL     OW92972   5.637   7.143  12.966  0.0544 -0.0898  0.2424
25121SOL    HW192973   5.684   7.091  12.901  1.6691  0.8902  0.5711
25121SOL    HW292974   5.654   7.098  13.049 -0.8356 -0.5439  0.1961
25122SOL     OW92975  13.835   3.275  12.981 -0.3950 -0.6122 -0.5197
25122SOL    HW192976  13.775   3.252  12.910 -1.6532 -1.3219  0.7285
25122SOL    HW292977  13.886   3.348  12.946 -1.3753 -0.5717 -1.9467
25123SOL     OW92978  13.829   2.666   0.061 -0.4334  0.4724 -0.6162
25123SOL    HW192979  13.836   2.706  -0.026 -1.3218  1.3621 -0.2981
25123SOL    HW292980  13.892   2.594   0.059  0.2966  1.1022 -1.6469
25124SOL     OW92981  13.047   5.476   6.960  0.2233 -0.2736 -0.4122
25124SOL    HW192982  13.009   5.563   6.952 -0.6411 -0.6131 -0.0674
25124SOL    HW292983  13.134   5.484   6.920 -0.8017  0.1042 -2.7382
25125SOL     OW92984   5.887  13.424   9.683  0.1199  0.0426  0.2147
25125SOL    HW192985   5.953  13.493   9.693 -0.1510  0.2376  0.6334
25125SOL    HW292986   5.905  13.387   9.596  0.2712  0.6348 -0.0128
25126SOL     OW92987  11.247   0.787   3.395  0.2530  0.2382  0.3318
25126SOL    HW192988  11.158   0.798   3.362  0.0971  0.8550  0.9263
25126SOL    HW292989  11.254   0.694   3.414  0.1737 -0.0422 -0.9210
25127SOL     OW92990   6.615   2.183   2.695 -0.3560 -0.5510  0.2253
25127SOL    HW192991   6.682   2.122   2.728  2.1602  1.7520 -0.2223
25127SOL    HW292992   6.587   2.232   2.772 -0.2987 -0.4433  0.1793
25128SOL     OW92993   1.129   7.832   2.261  0.0274  0.1099 -0.8921
25128SOL    HW192994   1.124   7.865   2.350 -0.4641  0.5827 -1.0932
25128SOL    HW292995   1.223   7.833   2.240  0.1847 -0.4169 -0.2331
25129SOL     OW92996   3.928  12.480   7.232 -0.2051  0.7352  0.0519
25129SOL    HW192997   3.979  12.557   7.258  0.7958 -0.3898  1.5871
25129SOL    HW292998   3.977  12.406   7.266 -1.1458 -0.6221 -1.3820
25130SOL     OW92999   8.972   2.157  10.936  0.3426 -0.1874 -0.0427
25130SOL    HW193000   8.992   2.135  10.845 -0.0651  0.8946 -0.4023
25130SOL    HW293001   8.971   2.252  10.938  0.8141 -0.1947  1.2047
25131SOL     OW93002  10.145   0.592   0.624  0.1826  0.0677  0.4205
25131SOL    HW193003  10.085   0.600   0.698 -0.1182  0.5852  0.1291
25131SOL    HW293004  10.125   0.667   0.569 -0.3651 -0.8828 -0.7344
25132SOL     OW93005   2.557  10.231   5.889 -0.1842  0.0775 -0.8287
25132SOL    HW193006   2.502  10.208   5.814 -0.7558 -1.6672  0.0742
25132SOL    HW293007   2.634  10.274   5.850 -1.4120  1.0921 -2.2305
25133SOL     OW93008   2.165  12.523   3.929  0.2345  0.3110  0.1092
25133SOL    HW193009   2.151  12.588   3.998 -0.9243  1.6606 -1.3450
25133SOL    HW293010   2.251  12.486   3.949  0.2393  1.1734  1.8627
25134SOL     OW93011   7.757   1.900  10.880 -0.3187 -0.6342  0.2989
25134SOL    HW193012   7.739   1.813  10.916 -2.0066 -0.2217  0.5381
25134SOL    HW293013   7.671   1.941  10.871  0.3661  0.6819 -0.6796
25135SOL     OW93014   0.346   1.644   1.224 -0.2408  0.3441  0.3734
25135SOL    HW193015   0.389   1.729   1.224  1.2733 -0.3810  0.5343
25135SOL    HW293016   0.328   1.626   1.317  0.3100  0.0776  0.4305
25136SOL     OW93017   9.897   1.813   0.122  0.0055 -0.2162  0.3298
25136SOL    HW193018   9.847   1.771   0.191  0.2271  1.6136  1.6886
25136SOL    HW293019   9.831   1.862   0.071  0.0717  0.0340  0.4800
25137SOL     OW93020  12.622   2.664   6.160 -0.7236  0.5143  0.9325
25137SOL    HW193021  12.694   2.724   6.181 -2.4397  2.1066  2.6188
25137SOL    HW293022  12.598   2.625   6.244 -2.3695  0.6653  0.5647
25138SOL     OW93023   7.053  12.726   5.975 -0.2811 -0.1950  0.6674
25138SOL    HW193024   6.980  12.771   5.933  0.4884  0.0392 -0.4779
25138SOL    HW293025   7.017  12.643   6.005 -0.6860 -0.7358 -1.2299
25139SOL     OW93026   3.956   7.666   3.605 -0.5968 -0.0114  0.2248
25139SOL    HW193027   3.944   7.583   3.649  3.0027 -0.7409  0.1115
25139SOL    HW293028   3.989   7.725   3.672  3.6966 -0.7876 -0.9020
25140SOL     OW93029   0.992  12.718   3.290  0.3078  0.4213  0.7987
25140SOL    HW193030   1.006  12.672   3.207 -0.9843  0.1771  0.6903
25140SOL    HW293031   1.033  12.663   3.356 -2.4058 -1.7478  0.8701
25141SOL     OW93032  10.286   4.948  11.400  0.3336  0.4047  0.1957
25141SOL    HW193033  10.331   4.878  11.447  0.5926  0.3300 -0.1616
25141SOL    HW293034  10.210   4.969  11.455 -0.5536 -1.1377 -0.3870
25142SOL     OW93035   7.216  10.926   6.978  0.4271 -0.1764 -0.0545
25142SOL    HW193036   7.248  10.928   6.888 -2.9365 -2.3076 -1.5094
25142SOL    HW293037   7.203  11.019   7.000  3.0424  0.5061 -0.9408
25143SOL     OW93038   0.852   7.684  11.886 -0.8427 -0.2771 -0.1846
25143SOL    HW193039   0.843   7.701  11.793 -2.0264  2.4629  0.3282
25143SOL    HW293040   0.900   7.760  11.920 -0.2231 -1.3255  1.4033
25144SOL     OW93041   2.057   2.101  12.625  0.2542 -0.1327 -0.0280
25144SOL    HW193042   2.143   2.058  12.621 -0.4086 -1.4309 -1.2638
25144SOL    HW293043   2.027   2.104  12.535 -1.0121  0.3019  0.3863
25145SOL     OW93044  11.256   6.050   5.615 -0.1753 -0.2112  0.5526
25145SOL    HW193045  11.276   5.958   5.635 -1.6181 -0.7513 -0.3102
25145SOL    HW293046  11.293   6.064   5.527  0.0208  0.0324  0.6724
25146SOL     OW93047  11.222   8.931  13.981 -0.0517 -0.2967 -0.2111
25146SOL    HW193048  11.287   8.999  13.963 -2.5474  1.8605 -1.5882
25146SOL    HW293049  11.152   8.976  14.028 -0.6045 -2.5827  1.3257
25147SOL     OW93050   3.092   8.337  11.768 -0.2766  0.0725  0.2705
25147SOL    HW193051   3.185   8.314  11.767 -0.4387 -0.6677 -1.3071
25147SOL    HW293052   3.091   8.431  11.785  0.8249  0.2642 -0.5749
25148SOL     OW93053   8.217  11.686   0.888 -0.4704 -0.0782  0.3229
25148SOL    HW193054   8.138  11.633   0.901  0.0809 -1.3115 -1.0251
25148SOL    HW293055   8.274  11.663   0.962 -0.2215 -1.4744 -0.2661
25149SOL     OW93056   1.603   7.865   4.014  0.7272 -0.5429 -0.2924
25149SOL    HW193057   1.613   7.880   3.920  0.1607 -1.2280 -0.4736
25149SOL    HW293058   1.543   7.934   4.043 -0.0949 -1.0726 -0.6861
25150SOL     OW93059   2.516  12.570   0.067  0.0153 -0.0851 -0.6107
25150SOL    HW193060   2.566  12.488   0.065 -0.5262 -0.4205 -0.9500
25150SOL    HW293061   2.437  12.550   0.016 -0.4072  0.4643 -0.1754
25151SOL     OW93062   4.054   9.788   4.633  0.5773 -0.1596  0.1834
25151SOL    HW193063   4.009   9.785   4.718 -0.4108 -1.1009 -0.3453
25151SOL    HW293064   4.096   9.702   4.625 -1.3869 -1.0552 -1.3167
25152SOL     OW93065   0.148   1.220   9.172 -0.0390 -0.0957 -0.2613
25152SOL    HW193066   0.211   1.164   9.218 -0.4189  0.5059  1.0327
25152SOL    HW293067   0.084   1.245   9.239 -2.4493 -1.7400 -1.7878
25153SOL     OW93068   1.146   7.396  11.968 -0.1740 -0.0652 -0.0341
25153SOL    HW193069   1.241   7.391  11.976 -0.1089 -0.2208 -0.7885
25153SOL    HW293070   1.129   7.367  11.879 -0.9477 -0.2316  0.1650
25154SOL     OW93071  10.727   3.347   2.945  0.2618  0.1393  0.5859
25154SOL    HW193072  10.755   3.433   2.913  1.0097  0.6461  2.4418
25154SOL    HW293073  10.635   3.359   2.967  0.0911  0.1597 -0.1250
25155SOL     OW93074   4.229  13.081   4.146 -0.0749  0.8166  0.4632
25155SOL    HW193075   4.214  13.160   4.096 -2.2020 -0.0338 -0.3482
25155SOL    HW293076   4.307  13.042   4.107  1.2915  2.6963  1.1919
25156SOL     OW93077   1.430   0.873   0.331  0.1066  0.4137 -0.5183
25156SOL    HW193078   1.493   0.884   0.401 -0.9756  0.4566  0.4784
25156SOL    HW293079   1.344   0.879   0.374 -0.5789 -0.4904 -1.6960
25157SOL     OW93080   7.703   4.735  10.856 -0.1511  0.2333  0.2442
25157SOL    HW193081   7.715   4.689  10.772 -0.2564  1.2307 -0.3347
25157SOL    HW293082   7.697   4.665  10.921 -0.3784 -0.5770 -0.6220
25158SOL     OW93083   9.813   5.231   3.594  0.2473 -0.7178 -0.1559
25158SOL    HW193084   9.863   5.232   3.676 -0.6695  0.1360  0.4198
25158SOL    HW293085   9.783   5.141   3.585  2.5963 -1.4702 -0.9821
25159SOL     OW93086   3.922  13.866   2.757  0.4627  0.2049 -0.0114
25159SOL    HW193087   4.012  13.882   2.728 -0.1757  0.2082 -2.1456
25159SOL    HW293088   3.878  13.951   2.747 -0.2366 -0.2438 -0.8459
25160SOL     OW93089   7.714   5.694   5.004  0.7018  0.1959 -0.6942
25160SOL    HW193090   7.750   5.669   4.918  1.6512  0.4897 -0.3909
25160SOL    HW293091   7.750   5.629   5.064 -0.3344 -0.2887 -0.5691
25161SOL     OW93092   9.222   2.889   6.807 -0.0379 -0.7643 -0.0248
25161SOL    HW193093   9.288   2.890   6.876 -1.5380  0.5902  1.4580
25161SOL    HW293094   9.154   2.831   6.839 -2.1110  2.0864  1.0883
25162SOL     OW93095  13.319   5.470   9.515  0.3227  0.1906  0.1119
25162SOL    HW193096  13.300   5.382   9.550  2.5969 -0.6049 -0.4612
25162SOL    HW293097  13.388   5.503   9.573  1.4043  0.4505 -1.2825
25163SOL     OW93098  12.199  10.787   2.113  0.3488 -0.2123  0.5784
25163SOL    HW193099  12.293  10.795   2.124  0.4826 -0.4339 -0.2962
25163SOL    HW293100  12.176  10.856   2.050 -0.1228  0.0305  1.0048
25164SOL     OW93101  10.268   7.325   6.810 -0.1909  0.7360  0.3441
25164SOL    HW193102  10.211   7.359   6.878 -0.7228 -0.7011  0.6512
25164SOL    HW293103  10.312   7.250   6.851 -2.0192 -1.4581 -1.4028
25165SOL     OW93104   6.514   3.490   7.559 -0.1427  0.2161  0.3611
25165SOL    HW193105   6.514   3.584   7.541 -0.4959  0.0016 -0.7952
25165SOL    HW293106   6.422   3.465   7.554  0.0221 -0.3221 -0.0283
25166SOL     OW93107  11.552  13.297   3.290 -0.0402 -0.4849  0.2631
25166SOL    HW193108  11.645  13.276   3.304  0.1781 -0.0188 -0.4277
25166SOL    HW293109  11.510  13.275   3.373  0.8419  0.1432  0.8954
25167SOL     OW93110  13.385   0.876  10.962  0.7242  0.9467 -0.3190
25167SOL    HW193111  13.393   0.971  10.967 -0.8012  1.2350 -2.2576
25167SOL    HW293112  13.292   0.860  10.945  1.0073 -0.8749 -0.3812
25168SOL     OW93113   9.232   1.659   3.746  0.2751  0.2740  0.0884
25168SOL    HW193114   9.144   1.640   3.777 -0.2074  0.5055 -1.0843
25168SOL    HW293115   9.261   1.577   3.704  1.2027 -0.2747  1.7305
25169SOL     OW93116   3.004  12.034   3.055 -0.1708 -0.1956  0.2996
25169SOL    HW193117   3.044  12.120   3.059 -0.6343 -0.0107  0.9537
25169SOL    HW293118   2.931  12.044   2.993 -0.8365  0.1345  1.1305
25170SOL     OW93119   3.255   0.568   4.089  0.4432 -0.2258 -0.0302
25170SOL    HW193120   3.194   0.611   4.149 -0.1879 -0.7154 -0.3033
25170SOL    HW293121   3.245   0.615   4.007  0.0806 -0.5940 -0.2037
25171SOL     OW93122   3.218   3.938   1.075  0.0518 -0.2942  0.0513
25171SOL    HW193123   3.166   3.865   1.110 -0.2037 -0.0868  0.1051
25171SOL    HW293124   3.161   4.014   1.083 -0.1006 -0.2749 -1.0397
25172SOL     OW93125   4.767   5.067   3.923 -0.1947  0.0831 -0.5865
25172SOL    HW193126   4.687   5.024   3.895 -0.2105 -0.0828 -0.2870
25172SOL    HW293127   4.827   5.056   3.850 -0.3815  0.0436 -0.7357
25173SOL     OW93128  11.926   5.276   2.428 -0.0571 -0.2021 -0.1991
25173SOL    HW193129  11.933   5.316   2.341  0.5134 -0.8532 -0.4525
25173SOL    HW293130  11.947   5.184   2.414  0.0005 -0.3171  0.6294
25174SOL     OW93131   8.273   7.860   1.368  0.0468 -0.5633 -0.0940
25174SOL    HW193132   8.204   7.834   1.428 -1.4375  2.1879 -0.4454
25174SOL    HW293133   8.227   7.899   1.294  1.8545  3.7049  0.7366
25175SOL     OW93134   8.985  10.274   9.387  0.3384  0.5936  0.5661
25175SOL    HW193135   8.904  10.319   9.408 -0.8211 -0.4582 -1.3686
25175SOL    HW293136   8.981  10.192   9.435  0.4034  0.6606  0.6883
25176SOL     OW93137  13.955  11.628   4.360 -0.2587  0.0209  0.2682
25176SOL    HW193138  13.994  11.682   4.291  0.0134 -0.4875  0.0152
25176SOL    HW293139  14.030  11.590   4.405 -0.4498 -0.9233 -0.1852
25177SOL     OW93140  12.814  11.412   0.532  0.1184 -0.5663 -0.1966
25177SOL    HW193141  12.903  11.419   0.567  1.4601  1.1882 -3.5380
25177SOL    HW293142  12.771  11.494   0.556 -0.1189 -0.7919  0.1621
25178SOL     OW93143   1.599   7.481   3.276  0.0108  0.3154  0.0316
25178SOL    HW193144   1.604   7.461   3.182  0.9508  0.6516 -0.0016
25178SOL    HW293145   1.534   7.551   3.281 -1.3948 -0.9105 -0.1388
25179SOL     OW93146  13.876  11.234   7.138 -0.1370 -0.4719 -0.0568
25179SOL    HW193147  13.815  11.288   7.188 -0.8047 -0.0381 -1.3142
25179SOL    HW293148  13.865  11.146   7.174 -0.3133 -0.0983  0.8220
25180SOL     OW93149   8.581   0.868   4.624 -0.1940  0.9069  0.1437
25180SOL    HW193150   8.536   0.853   4.707 -0.6120  0.2216 -0.1914
25180SOL    HW293151   8.547   0.952   4.594 -2.2632 -0.1531 -0.6937
25181SOL     OW93152   0.439   9.813  11.650 -0.1816  0.0857 -0.4565
25181SOL    HW193153   0.490   9.792  11.572 -0.9842 -0.5908 -0.8051
25181SOL    HW293154   0.498   9.796  11.723 -0.0197 -1.0510 -0.8414
25182SOL     OW93155   5.782   6.732   3.834 -0.3081 -0.0133  0.9967
25182SOL    HW193156   5.862   6.735   3.886  0.2183 -1.1551  0.2866
25182SOL    HW293157   5.736   6.813   3.856  1.0701  0.6970  1.3601
25183SOL     OW93158   0.704   0.844   3.201  0.2123 -0.4718  0.1111
25183SOL    HW193159   0.618   0.808   3.222  0.2139 -0.7690 -0.3879
25183SOL    HW293160   0.732   0.886   3.282 -0.6798  0.1872  0.0882
25184SOL     OW93161   7.533   7.945   0.904  0.8110  0.0238  0.0348
25184SOL    HW193162   7.537   8.040   0.902  0.3014  0.0409 -2.1549
25184SOL    HW293163   7.620   7.916   0.878  0.1319 -0.0237 -2.4126
25185SOL     OW93164   5.730   8.546  13.485  0.5059  0.2854 -0.1887
25185SOL    HW193165   5.741   8.564  13.392  0.4211 -0.3932 -0.3300
25185SOL    HW293166   5.783   8.613  13.528 -0.1788  1.1820 -0.6896
25186SOL     OW93167   2.791   7.650   9.462 -0.1800 -0.2484 -0.2803
25186SOL    HW193168   2.838   7.722   9.504 -0.6762 -1.3802  2.4116
25186SOL    HW293169   2.819   7.572   9.510  0.1424 -1.9007 -2.9152
25187SOL     OW93170  11.986   9.384  10.309  0.3178  0.2014 -0.1606
25187SOL    HW193171  11.924   9.353  10.244 -0.0883 -0.2094  0.4089
25187SOL    HW293172  11.935   9.391  10.390  0.9523  0.0875  0.2615
25188SOL     OW93173   1.285  13.134  11.336 -0.7138 -0.5910 -0.4201
25188SOL    HW193174   1.191  13.121  11.326 -1.0401  0.2369  1.1781
25188SOL    HW293175   1.305  13.097  11.422  0.3972 -0.6375 -0.6870
25189SOL     OW93176   4.314  12.819   4.956 -0.0631  0.0366  0.0198
25189SOL    HW193177   4.368  12.836   5.033  0.7240  1.7904 -0.8577
25189SOL    HW293178   4.366  12.758   4.903  0.7451  1.0877 -0.4409
25190SOL     OW93179   7.317   8.028   8.622  0.5624  0.7885  0.1697
25190SOL    HW193180   7.277   8.115   8.621 -0.7378  0.2918 -2.9767
25190SOL    HW293181   7.363   8.022   8.538 -1.8228 -2.5152 -1.1286
25191SOL     OW93182   7.333   1.569   2.532 -0.3061  0.0849  0.5816
25191SOL    HW193183   7.270   1.500   2.510  0.8199 -0.5193 -0.9511
25191SOL    HW293184   7.406   1.524   2.573  1.2966 -0.0151 -2.1531
25192SOL     OW93185   2.288   2.489  12.202 -0.4404  0.3373  0.1599
25192SOL    HW193186   2.205   2.442  12.205 -1.9650  2.6456 -2.4168
25192SOL    HW293187   2.332   2.455  12.124  0.4574  0.1034  0.7499
25193SOL     OW93188   9.484  12.111   1.823  0.3601  0.2176 -0.2052
25193SOL    HW193189   9.434  12.050   1.877  0.3355 -2.3332 -2.8584
25193SOL    HW293190   9.523  12.056   1.755  2.3589  2.8868 -1.3926
25194SOL     OW93191  13.605  13.577   7.325 -0.0796 -0.0827 -0.5251
25194SOL    HW193192  13.572  13.658   7.286 -0.5623  0.3885  0.8049
25194SOL    HW293193  13.549  13.508   7.290 -0.1672  0.2545 -1.0536
25195SOL     OW93194   2.458  10.827  13.323 -0.5863  0.1475  0.1671
25195SOL    HW193195   2.394  10.758  13.340  0.5124 -0.5475  1.7536
25195SOL    HW293196   2.528  10.784  13.274 -0.4234  0.4076  0.1699
25196SOL     OW93197   4.885   8.174   6.373  0.0998 -0.4172  0.3514
25196SOL    HW193198   4.975   8.203   6.356  0.4638 -1.6534  0.1332
25196SOL    HW293199   4.890   8.079   6.376 -1.1546 -0.4882  0.6659
25197SOL     OW93200  13.986  11.175   1.314 -0.6131  0.3577 -0.6831
25197SOL    HW193201  14.066  11.130   1.342 -0.0475  2.2374  0.9851
25197SOL    HW293202  14.016  11.235   1.246 -1.1108 -0.7090 -1.8825
25198SOL     OW93203  11.884   7.311   0.188 -0.6936 -0.5941 -0.1049
25198SOL    HW193204  11.979   7.312   0.198 -0.6216  0.8718 -0.7388
25198SOL    HW293205  11.865   7.224   0.152  0.3740 -0.9945  0.2612
25199SOL     OW93206  10.435  12.394   1.584  0.1648  0.0116 -0.0359
25199SOL    HW193207  10.416  12.301   1.576  0.4438 -0.0055 -0.5190
25199SOL    HW293208  10.353  12.437   1.559 -0.0365 -0.1046  0.4129
25200SOL     OW93209   1.337  11.692   3.270 -0.9524 -0.1150 -0.0376
25200SOL    HW193210   1.392  11.701   3.348 -1.3018  1.9248  0.0192
25200SOL    HW293211   1.251  11.723   3.298 -1.9158 -2.2002 -0.4439
25201SOL     OW93212   6.963  13.999   6.267  0.0661  0.1358 -0.5623
25201SOL    HW193213   6.894  13.954   6.219 -0.4254 -0.6468  0.8226
25201SOL    HW293214   7.039  13.996   6.209  0.2479 -3.0665 -0.3291
25202SOL     OW93215   3.081  13.536   4.458  0.6287  0.4360 -0.4503
25202SOL    HW193216   3.110  13.569   4.543  2.1165 -0.8369 -0.4214
25202SOL    HW293217   2.999  13.582   4.441  0.9978  1.7172  1.0387
25203SOL     OW93218  12.952   8.995   8.785  0.4068 -0.2240 -0.2006
25203SOL    HW193219  12.933   9.006   8.878  0.2890  0.7659 -0.3318
25203SOL    HW293220  12.941   8.901   8.769 -0.4151 -0.2744  0.5949
25204SOL     OW93221   3.581   1.660   6.651  0.3479  0.8199  0.1941
25204SOL    HW193222   3.614   1.685   6.565 -2.2267 -0.5231 -1.2972
25204SOL    HW293223   3.630   1.580   6.673  0.3807  0.6463 -0.4808
25205SOL     OW93224  10.876   9.384   6.225 -0.0374  0.3503  0.1278
25205SOL    HW193225  10.925   9.380   6.306  0.3357 -0.2228 -0.1168
25205SOL    HW293226  10.850   9.476   6.217 -1.7511  0.0747  1.8610
25206SOL     OW93227   5.995   7.291   6.132 -0.1124 -0.4884 -0.0056
25206SOL    HW193228   6.034   7.218   6.084 -0.1806 -2.0980  2.2164
25206SOL    HW293229   6.053   7.365   6.116  1.5463 -1.7645 -0.1004
25207SOL     OW93230  12.416  11.904   5.662  0.4302 -0.2029 -1.0494
25207SOL    HW193231  12.462  11.828   5.699  1.3092  1.1814  0.8384
25207SOL    HW293232  12.483  11.953   5.616  0.9382  1.6946  1.5028
25208SOL     OW93233   1.176  10.201  13.122 -0.5703  0.1196 -0.0130
25208SOL    HW193234   1.148  10.256  13.049 -1.8521 -0.7127 -0.1902
25208SOL    HW293235   1.176  10.112  13.087  1.0865 -0.0644  0.3722
25209SOL     OW93236   6.952   6.786  11.319 -0.0949 -0.2786  0.0862
25209SOL    HW193237   6.880   6.823  11.369 -0.5145 -0.8475 -0.0873
25209SOL    HW293238   6.927   6.798  11.228  0.9424  1.2983 -0.0193
25210SOL     OW93239  10.096  10.118   6.850 -0.3567 -0.4185 -0.5024
25210SOL    HW193240  10.070  10.176   6.778  1.8307  0.1951 -0.8552
25210SOL    HW293241  10.108  10.176   6.925  0.5080 -0.5967 -0.4953
25211SOL     OW93242   7.264   2.561  13.850  0.5544  0.2745  0.0891
25211SOL    HW193243   7.213   2.612  13.787 -0.6418 -0.6904  0.2283
25211SOL    HW293244   7.355   2.586  13.833  0.4186 -0.8445 -2.8595
25212SOL     OW93245   2.091  12.749   1.088  0.0840  0.6486  1.0039
25212SOL    HW193246   2.157  12.781   1.026  0.3025  0.5703  1.1938
25212SOL    HW293247   2.010  12.792   1.060  0.2506  0.8881  0.8778
25213SOL     OW93248   5.125   3.908  11.056  0.4005  0.1470  0.3938
25213SOL    HW193249   5.046   3.871  11.017  0.6713  1.6956 -1.7687
25213SOL    HW293250   5.196   3.851  11.026  0.3873  0.1628  0.3332
25214SOL     OW93251   5.903   0.340   8.060  0.4522  0.1652  0.4606
25214SOL    HW193252   5.980   0.369   8.011 -0.4615  1.7396 -0.1220
25214SOL    HW293253   5.837   0.409   8.045 -1.2545 -1.3830  0.4986
25215SOL     OW93254  13.594   0.439   8.112 -0.2737  0.5311  0.0998
25215SOL    HW193255  13.561   0.526   8.089  0.2355  0.7008 -0.0001
25215SOL    HW293256  13.524   0.400   8.164 -1.5799  0.0427 -1.8961
25216SOL     OW93257   2.618   4.649   9.064  0.4723  0.1910  0.4026
25216SOL    HW193258   2.604   4.617   8.975 -1.3440  0.5391  0.5272
25216SOL    HW293259   2.569   4.589   9.119 -1.7003  2.1752  0.7797
25217SOL     OW93260   7.266  11.482   8.494  0.6596  0.0580  0.3352
25217SOL    HW193261   7.348  11.440   8.522  0.1668 -2.0510 -1.1303
25217SOL    HW293262   7.229  11.518   8.574  1.4984 -1.7568  1.6130
25218SOL     OW93263   9.573   6.032   4.612 -0.8205  0.8417  0.1545
25218SOL    HW193264   9.615   5.946   4.605 -0.8029  0.8869 -0.3594
25218SOL    HW293265   9.486   6.014   4.647 -1.0682  0.5331 -0.5977
25219SOL     OW93266  11.215   7.502  10.562 -0.3584  0.3001 -0.1351
25219SOL    HW193267  11.306   7.530  10.569 -0.6557  1.9708 -2.0096
25219SOL    HW293268  11.168   7.558  10.624 -0.2761  0.3938 -0.1568
25220SOL     OW93269   9.814   3.238  10.525 -0.1244 -0.1220  0.2947
25220SOL    HW193270   9.776   3.213  10.441 -0.8686  2.7928 -0.3162
25220SOL    HW293271   9.888   3.294  10.503 -0.1068  0.4008  1.5802
25221SOL     OW93272  10.374   7.825  12.680  0.1279 -0.1563  0.5794
25221SOL    HW193273  10.316   7.749  12.684  0.9852 -0.9913 -1.5751
25221SOL    HW293274  10.422   7.822  12.764 -0.3801 -1.5623  0.8491
25222SOL     OW93275   8.094   9.806   3.866 -0.0329 -0.1210 -0.3017
25222SOL    HW193276   8.045   9.738   3.911 -0.0469  0.9097  1.3098
25222SOL    HW293277   8.182   9.769   3.856 -0.2927 -0.7424 -0.3439
25223SOL     OW93278   9.312  10.160   3.807 -0.8379  0.1775 -0.8959
25223SOL    HW193279   9.344  10.137   3.720  1.0072 -0.9479  0.0195
25223SOL    HW293280   9.356  10.242   3.828 -0.9119  0.1972 -0.8169
25224SOL     OW93281   3.666  13.058   5.172  0.0279  0.6796  0.3884
25224SOL    HW193282   3.670  13.031   5.080  1.6876 -0.0605  0.6395
25224SOL    HW293283   3.573  13.056   5.194 -0.2031 -1.5323 -0.5914
25225SOL     OW93284   1.138  10.526   5.498  0.0361 -0.0600 -0.0744
25225SOL    HW193285   1.190  10.592   5.452  1.0357 -0.2291  0.7873
25225SOL    HW293286   1.070  10.577   5.543  0.2703  0.2934 -0.1114
25226SOL     OW93287   8.562   7.750   4.986 -0.1196 -0.5103  0.0538
25226SOL    HW193288   8.617   7.806   5.040 -1.0111 -0.0743  0.5330
25226SOL    HW293289   8.620   7.719   4.916  0.5131  0.6059  0.0708
25227SOL     OW93290  10.053  10.141  12.032 -0.0094 -0.0965 -0.3139
25227SOL    HW193291   9.958  10.151  12.045  0.3635  0.1841  2.9244
25227SOL    HW293292  10.082  10.227  12.002 -0.6028  0.1678 -0.1511
25228SOL     OW93293  11.813   8.723   4.281 -0.3056  0.1146  0.0836
25228SOL    HW193294  11.835   8.673   4.360 -0.5055 -0.2643 -0.1003
25228SOL    HW293295  11.898   8.748   4.244 -0.1618 -1.3695 -0.6366
25229SOL     OW93296   9.356  13.411   0.821  0.6573 -0.2153 -0.7654
25229SOL    HW193297   9.327  13.393   0.910  1.9698  0.9960 -0.0581
25229SOL    HW293298   9.387  13.327   0.788  0.4568 -0.6073  0.0234
25230SOL     OW93299   6.851  12.866   1.548  0.2961 -0.4802  0.4940
25230SOL    HW193300   6.854  12.774   1.576 -0.1016 -0.7261 -0.2449
25230SOL    HW293301   6.893  12.866   1.462 -2.2816 -0.5072 -0.8671
25231SOL     OW93302  11.994  11.292  12.793  0.3265  1.1006 -0.5541
25231SOL    HW193303  11.962  11.370  12.839  0.8044  1.0567 -0.1354
25231SOL    HW293304  12.055  11.252  12.854 -0.1897  0.1904 -0.6165
25232SOL     OW93305   3.153  13.335   5.627  0.1221 -0.0345  0.1632
25232SOL    HW193306   3.215  13.402   5.656 -1.0073  1.2769 -0.4077
25232SOL    HW293307   3.130  13.288   5.708  0.9560  0.2044  0.5583
25233SOL     OW93308  10.717  12.120   3.367 -0.1583 -0.7560 -0.7861
25233SOL    HW193309  10.632  12.084   3.341 -0.8290 -1.1821  1.7245
25233SOL    HW293310  10.714  12.211   3.339 -0.6240 -1.2441 -2.4469
25234SOL     OW93311  11.809   2.630   5.610  0.0779 -0.4413  0.2360
25234SOL    HW193312  11.715   2.629   5.631 -0.2766  1.2958 -1.0180
25234SOL    HW293313  11.835   2.538   5.614 -1.9106 -1.0962 -0.3037
25235SOL     OW93314   2.641   5.587   8.242  0.1432 -0.1335  0.3061
25235SOL    HW193315   2.614   5.612   8.330  0.8857 -1.3548  0.9194
25235SOL    HW293316   2.572   5.528   8.211 -1.1980  1.9187 -0.8162
25236SOL     OW93317   3.192   1.682  14.005 -0.2155  0.4335  0.3224
25236SOL    HW193318   3.153   1.751  14.058 -0.4410 -0.6790  1.6528
25236SOL    HW293319   3.127   1.663  13.938 -0.6784  0.6767  0.6965
25237SOL     OW93320   8.130  12.287  10.479 -0.4118  0.6739 -0.3491
25237SOL    HW193321   8.189  12.361  10.495 -1.0344  1.0109  0.4858
25237SOL    HW293322   8.092  12.306  10.393 -0.7427  1.4561 -0.0431
25238SOL     OW93323   7.762  11.964   2.394 -1.0584  0.5081  0.5217
25238SOL    HW193324   7.672  11.931   2.402 -1.1548  0.7139  0.3163
25238SOL    HW293325   7.751  12.054   2.363 -0.7451  0.0874 -0.8740
25239SOL     OW93326  10.728  13.220   8.532 -0.7685 -0.3196 -0.3392
25239SOL    HW193327  10.688  13.221   8.445 -2.1857 -0.9683  0.2702
25239SOL    HW293328  10.728  13.127   8.557 -0.1347 -0.1697  0.2440
25240SOL     OW93329   7.442  13.329   5.977  0.6063 -0.3074  0.3718
25240SOL    HW193330   7.353  13.362   5.965  0.9518  0.7496  0.5965
25240SOL    HW293331   7.432  13.256   6.039 -0.1929 -0.7413 -0.2479
25241SOL     OW93332   0.095   0.856   7.017  0.3663  0.2554 -0.4074
25241SOL    HW193333   0.161   0.880   7.082 -2.0633  0.7720  2.0395
25241SOL    HW293334   0.074   0.765   7.037 -1.0302  0.6818  0.2057
25242SOL     OW93335  10.225  10.294   5.808 -0.3175 -0.5063 -0.2265
25242SOL    HW193336  10.232  10.267   5.716  0.4595  0.6338 -0.5225
25242SOL    HW293337  10.196  10.215   5.854 -1.7994 -0.8295 -1.5938
25243SOL     OW93338  14.009  11.276   2.875 -0.1234 -0.1515 -0.1044
25243SOL    HW193339  14.050  11.303   2.794 -0.8427 -1.0294 -0.7889
25243SOL    HW293340  14.056  11.196   2.901 -0.4981 -0.3938 -0.1620
25244SOL     OW93341   3.100   0.923   1.628 -0.2414 -0.4500 -0.1991
25244SOL    HW193342   3.138   0.947   1.713  0.5795 -1.3849 -0.2834
25244SOL    HW293343   3.042   0.848   1.648 -0.9983  0.0993 -0.2866
25245SOL     OW93344  11.711   2.269   5.107 -0.1082  0.2334 -0.1772
25245SOL    HW193345  11.774   2.336   5.080 -0.5685 -0.1179 -2.3275
25245SOL    HW293346  11.687   2.225   5.026 -2.1543 -0.5025  0.7519
25246SOL     OW93347   8.425   9.979   3.234  0.4328 -0.0020 -0.4963
25246SOL    HW193348   8.456  10.064   3.202  1.7882  1.0790  3.1689
25246SOL    HW293349   8.350  10.000   3.291  0.5870 -1.2658  0.2178
25247SOL     OW93350   4.158   8.074   3.048  0.3886  0.1890 -0.2952
25247SOL    HW193351   4.251   8.091   3.067  0.5702 -1.3824  0.3382
25247SOL    HW293352   4.133   8.145   2.989  1.5868  1.5095  0.6999
25248SOL     OW93353   4.298   4.904  10.927 -0.7343  0.0313 -0.0930
25248SOL    HW193354   4.356   4.903  10.850 -0.6553  0.1450 -0.0348
25248SOL    HW293355   4.241   4.828  10.915  1.0392 -1.5729  1.0814
25249SOL     OW93356   8.592   8.994   0.212 -0.1021 -0.0004 -0.5107
25249SOL    HW193357   8.540   8.921   0.246  1.1894  0.2876  2.3308
25249SOL    HW293358   8.647   8.955   0.144 -0.5284 -1.3353 -0.1172
25250SOL     OW93359   7.837   8.854   7.593 -0.1090  0.1460  0.6277
25250SOL    HW193360   7.918   8.849   7.543 -0.3009 -0.0312  0.3378
25250SOL    HW293361   7.768   8.862   7.528 -0.4290 -0.8274  0.8290
25251SOL     OW93362   0.682   4.550   9.086 -0.2828 -0.3646  0.0131
25251SOL    HW193363   0.772   4.583   9.086  0.4032 -2.1120 -1.0977
25251SOL    HW293364   0.637   4.602   9.020 -0.1527  0.6387  0.6966
25252SOL     OW93365   0.199   2.689   7.308  0.9334  0.1636  0.5639
25252SOL    HW193366   0.164   2.640   7.383  0.7396 -1.1420 -0.3465
25252SOL    HW293367   0.129   2.685   7.242  0.6930  2.1697  0.6439
25253SOL     OW93368   0.066   0.136   7.089 -0.1776 -0.2754 -0.4804
25253SOL    HW193369   0.026   0.162   7.172  3.6943 -0.3285  1.6602
25253SOL    HW293370   0.091   0.219   7.048  1.4881 -0.2493  0.4861
25254SOL     OW93371   4.621   4.243  13.863  0.4971  0.0985 -0.1211
25254SOL    HW193372   4.660   4.285  13.786 -0.1239  0.4009 -0.2826
25254SOL    HW293373   4.658   4.291  13.937  1.1432 -0.2331 -0.2240
25255SOL     OW93374   4.347   0.682  13.220  0.0112  0.3761 -0.4183
25255SOL    HW193375   4.437   0.669  13.248 -0.6895 -3.0954  0.7432
25255SOL    HW293376   4.312   0.749  13.279  1.2989  0.3559  0.3900
25256SOL     OW93377  11.565   8.667   7.161 -0.4317  0.4682  0.2105
25256SOL    HW193378  11.647   8.646   7.207 -0.5262 -0.5533 -0.0568
25256SOL    HW293379  11.499   8.670   7.231 -0.3396  0.3032  0.3052
25257SOL     OW93380   0.750   0.014   9.890 -0.0679 -0.2451  0.4221
25257SOL    HW193381   0.804  -0.014   9.816 -0.3653 -3.2831  1.2286
25257SOL    HW293382   0.718   0.101   9.865  0.4605 -0.8245 -2.6579
25258SOL     OW93383   3.156   8.824   3.607 -0.4216  0.2860  0.0931
25258SOL    HW193384   3.206   8.812   3.526 -0.1680  2.5065 -0.1567
25258SOL    HW293385   3.217   8.869   3.666 -1.7450  2.0599  0.1741
25259SOL     OW93386   4.979   1.015  12.227 -0.0060 -0.2160  0.4398
25259SOL    HW193387   5.061   0.966  12.221  2.4942  3.4994  0.3195
25259SOL    HW293388   4.961   1.020  12.321  1.6508  1.3431  0.7201
25260SOL     OW93389   7.440   7.921   0.384  0.3323 -0.5348  0.3100
25260SOL    HW193390   7.417   7.949   0.472 -1.1045 -0.8831  0.0643
25260SOL    HW293391   7.433   8.000   0.330 -0.8158 -0.7378  0.1478
25261SOL     OW93392  13.560   9.436  11.296  0.3795 -0.6670  0.0883
25261SOL    HW193393  13.592   9.464  11.210 -0.4929 -0.6926 -0.2464
25261SOL    HW293394  13.486   9.379  11.277  0.3058 -0.8355  0.8578
25262SOL     OW93395  11.216   3.933  13.500 -0.2562 -0.0525 -0.1778
25262SOL    HW193396  11.251   4.022  13.497 -1.1759  0.2967 -0.6924
25262SOL    HW293397  11.288   3.881  13.535 -0.1525  1.1142  1.4700
25263SOL     OW93398   4.833   2.394   3.800  0.2712 -0.0714  0.1972
25263SOL    HW193399   4.749   2.393   3.754 -0.0868  0.0113  0.8356
25263SOL    HW293400   4.863   2.485   3.794  0.7307 -0.2744 -0.7571
25264SOL     OW93401  12.915  10.999   0.356 -0.3911 -0.1009 -0.2306
25264SOL    HW193402  12.938  10.951   0.276 -1.2365  0.6635 -0.9536
25264SOL    HW293403  12.933  11.091   0.334 -0.3569  0.0863  0.5679
25265SOL     OW93404   5.946   3.171   8.021  0.2430  0.4496  0.2251
25265SOL    HW193405   6.008   3.102   7.997 -2.8458 -1.7333 -2.2199
25265SOL    HW293406   5.885   3.176   7.948  0.1286  5.8839  0.2414
25266SOL     OW93407   9.025  13.589   3.321 -0.6451  0.0447  0.0302
25266SOL    HW193408   9.072  13.549   3.394  1.1430  0.3724 -0.8814
25266SOL    HW293409   8.954  13.527   3.301 -0.2433 -0.7749  1.0702
25267SOL     OW93410   7.931   9.910   2.722 -0.6703 -0.0957  0.7825
25267SOL    HW193411   7.993   9.855   2.769  0.1330  1.9467  2.2448
25267SOL    HW293412   7.941   9.884   2.630  1.7037 -0.4532  1.0792
25268SOL     OW93413   5.776  12.792  10.173 -0.0688 -0.0261 -0.4195
25268SOL    HW193414   5.736  12.825  10.093  0.2969  1.0757 -0.1639
25268SOL    HW293415   5.726  12.833  10.244 -0.6285 -1.2701 -0.0555
25269SOL     OW93416   0.351   5.271   0.152 -0.5255  0.4431  0.2237
25269SOL    HW193417   0.407   5.213   0.203 -1.3849 -1.2595 -0.6673
25269SOL    HW293418   0.363   5.357   0.192  1.5119 -0.1388  1.0180
25270SOL     OW93419   8.361   7.101  13.956 -0.3438 -0.4047 -0.6073
25270SOL    HW193420   8.359   7.196  13.958 -0.8479 -0.3851 -1.5780
25270SOL    HW293421   8.269   7.074  13.965 -0.1940 -0.8038 -0.2168
25271SOL     OW93422   6.589   0.691  10.300 -0.8661 -0.2848  0.3343
25271SOL    HW193423   6.533   0.730  10.233 -0.0272 -0.1161 -0.2744
25271SOL    HW293424   6.540   0.705  10.382 -0.5904  2.1217  0.1714
25272SOL     OW93425  13.846   6.267  12.268 -0.1667  0.0657 -0.2722
25272SOL    HW193426  13.870   6.216  12.346  1.3812  1.9576  0.5693
25272SOL    HW293427  13.778   6.327  12.300 -0.9180 -0.4235 -0.8999
25273SOL     OW93428   6.525  10.010   2.087 -0.2007  0.3512  0.2587
25273SOL    HW193429   6.443  10.009   2.039 -1.0953  1.4318  1.6719
25273SOL    HW293430   6.514   9.946   2.157  0.0652  0.6695  0.6005
25274SOL     OW93431   9.244  12.466   7.405  0.2958  0.2998  0.4517
25274SOL    HW193432   9.262  12.374   7.427 -0.4827 -0.3683 -1.4627
25274SOL    HW293433   9.314  12.490   7.344 -0.4028  0.4168 -0.3369
25275SOL     OW93434  10.475  10.630  12.483  0.1974 -0.5068  0.0833
25275SOL    HW193435  10.554  10.646  12.431 -0.4464  0.4251 -0.6513
25275SOL    HW293436  10.453  10.539  12.466  0.8568 -0.6390 -0.0771
25276SOL     OW93437  11.909  10.253   2.360  0.3665  0.3710 -0.3274
25276SOL    HW193438  11.850  10.238   2.286 -0.5403 -0.6812  0.5735
25276SOL    HW293439  11.973  10.316   2.327  1.0270 -1.3343 -2.5827
25277SOL     OW93440  12.795   2.367  10.924 -0.2248  0.1714 -0.1215
25277SOL    HW193441  12.729   2.395  10.987  0.1914  1.9169 -0.4224
25277SOL    HW293442  12.832   2.288  10.962 -2.7590 -1.1455 -0.1475
25278SOL     OW93443   9.467   1.786   7.672  0.2298  0.2951  0.3481
25278SOL    HW193444   9.429   1.868   7.701 -0.9283 -0.6794  1.6888
25278SOL    HW293445   9.393   1.735   7.639  0.9745 -0.1206 -0.7506
25279SOL     OW93446   8.960   0.643   1.358  0.3226 -0.4269  0.6896
25279SOL    HW193447   8.958   0.548   1.346  1.4070 -0.4843  0.8444
25279SOL    HW293448   8.869   0.667   1.371 -0.0191 -1.3889  0.1896
25280SOL     OW93449  10.439   3.387   7.476 -0.2976  0.2285 -0.0076
25280SOL    HW193450  10.382   3.314   7.451 -0.3599 -0.0080  0.7829
25280SOL    HW293451  10.495   3.401   7.399 -1.5042  0.5539 -0.8482
25281SOL     OW93452   0.480   2.982   1.267 -0.2301 -0.2828 -0.6059
25281SOL    HW193453   0.452   2.916   1.331  1.0860 -1.1461 -0.8844
25281SOL    HW293454   0.516   2.931   1.195 -0.3678  0.7296 -1.4097
25282SOL     OW93455   6.622   9.441   6.751 -0.0935  0.2584 -0.1463
25282SOL    HW193456   6.539   9.465   6.793  0.4448  0.7717  0.6370
25282SOL    HW293457   6.595   9.398   6.670 -1.1269  2.2657 -0.9443
25283SOL     OW93458   9.975   3.198   6.500  0.6304 -0.2960  0.0577
25283SOL    HW193459  10.010   3.163   6.582  0.1532 -0.1002  0.3507
25283SOL    HW293460   9.996   3.291   6.502 -1.3226  0.1693  1.0169
25284SOL     OW93461   3.315  13.106  12.697  0.6671  0.4824  0.4701
25284SOL    HW193462   3.328  13.042  12.767 -0.4906  0.1730  0.4383
25284SOL    HW293463   3.256  13.171  12.734  2.3543  1.9128  0.7066
25285SOL     OW93464   2.245  11.096   1.833  0.3700  0.6055  0.3239
25285SOL    HW193465   2.254  11.069   1.741  1.6856  0.7149  0.4089
25285SOL    HW293466   2.334  11.106   1.864 -0.0701  1.0673  1.4873
25286SOL     OW93467  12.433  11.505   1.598 -0.3338  0.6301  0.2668
25286SOL    HW193468  12.361  11.498   1.662 -0.6325  0.3254 -0.1031
25286SOL    HW293469  12.460  11.597   1.603  0.6573  0.2939  1.9258
25287SOL     OW93470   2.126   3.485   2.336  0.0638  0.1072  0.5002
25287SOL    HW193471   2.202   3.520   2.382 -0.2302  1.0397  0.2948
25287SOL    HW293472   2.162   3.448   2.255  0.2165  1.2542  0.0298
25288SOL     OW93473   0.243   9.936  10.957 -0.5294 -0.1516 -0.2678
25288SOL    HW193474   0.265  10.001  10.889 -0.5174 -0.2198 -0.3281
25288SOL    HW293475   0.301   9.958  11.030 -0.9791  0.3170 -0.0422
25289SOL     OW93476   7.816   0.465   6.244  0.9247 -0.4937 -0.1640
25289SOL    HW193477   7.745   0.429   6.297  0.0361  0.7541 -0.4429
25289SOL    HW293478   7.877   0.503   6.307 -0.3224  1.3438  0.0294
25290SOL     OW93479   8.348   0.405  12.478 -0.1277 -0.3660  0.4173
25290SOL    HW193480   8.305   0.320  12.467  1.1975 -1.1205  0.8179
25290SOL    HW293481   8.277   0.469  12.473 -1.0171 -1.4024 -1.0383
25291SOL     OW93482   2.234  10.420   5.798 -0.4685  0.3317  0.3485
25291SOL    HW193483   2.145  10.451   5.812 -0.7097 -0.7019  1.2582
25291SOL    HW293484   2.289  10.494   5.826 -0.9746  1.8765 -2.3803
25292SOL     OW93485   2.754   8.792   1.828  0.7595  0.0752  0.2107
25292SOL    HW193486   2.728   8.704   1.801  0.3002  0.3051 -0.1243
25292SOL    HW293487   2.717   8.849   1.761  1.7793  0.4627 -0.0393
25293SOL     OW93488  10.245   9.590  11.409 -0.1231 -0.1684  0.1172
25293SOL    HW193489  10.241   9.630  11.496  2.6622 -1.3887  0.9234
25293SOL    HW293490  10.242   9.496  11.425  0.5574 -0.4238 -1.0886
25294SOL     OW93491   1.988   3.406   9.683 -0.1535 -0.0791  0.4035
25294SOL    HW193492   2.035   3.483   9.714  0.6001 -0.8409  1.2292
25294SOL    HW293493   2.045   3.332   9.706 -1.3092 -0.9566  0.5595
25295SOL     OW93494   5.594  11.938  13.059  0.1457  0.1744  0.2912
25295SOL    HW193495   5.516  11.911  13.011  0.3080  0.1320  0.0493
25295SOL    HW293496   5.619  11.861  13.110  0.6815 -0.1822 -0.4946
25296SOL     OW93497   3.093   4.425  13.186  0.1410 -0.3626 -0.5279
25296SOL    HW193498   3.082   4.360  13.255  0.0106  1.1543  0.9408
25296SOL    HW293499   3.187   4.423  13.165  0.1981 -0.7522 -0.2387
25297SOL     OW93500   0.684   7.428   4.620  0.2215  0.3874  0.5401
25297SOL    HW193501   0.729   7.344   4.629 -2.2469 -1.1666 -0.5472
25297SOL    HW293502   0.616   7.427   4.687 -0.6644  0.9144 -0.3145
25298SOL     OW93503   6.630   5.980   0.483  0.1975 -0.4412  0.5820
25298SOL    HW193504   6.623   6.075   0.482 -0.4005 -0.3781  3.0796
25298SOL    HW293505   6.717   5.961   0.448  0.9460  1.1304  1.4898
25299SOL     OW93506  13.531   6.083   5.423  0.1116 -0.0271 -0.1899
25299SOL    HW193507  13.604   6.138   5.395 -0.4438  0.2151 -1.2078
25299SOL    HW293508  13.556   5.995   5.396 -0.3623  0.1862 -1.3892
25300SOL     OW93509   6.343   2.253  11.205 -0.1852 -0.3417  0.0989
25300SOL    HW193510   6.258   2.228  11.168 -0.6101 -1.1672  1.5234
25300SOL    HW293511   6.342   2.349  11.205 -0.6762 -0.3395 -0.8555
25301SOL     OW93512  13.207  13.441   4.810 -1.0350  0.4212  0.5288
25301SOL    HW193513  13.117  13.458   4.839 -0.1936  2.7632  2.1348
25301SOL    HW293514  13.261  13.471   4.884  1.0987  0.8711 -1.1277
25302SOL     OW93515  10.119  12.293   7.817 -0.0382  0.2400 -0.5593
25302SOL    HW193516  10.166  12.268   7.738 -0.1222 -0.7527 -0.3125
25302SOL    HW293517  10.058  12.220   7.832 -0.1162  0.4816  0.3353
25303SOL     OW93518   5.309   4.258   0.856 -0.1096  0.2171  0.0461
25303SOL    HW193519   5.237   4.206   0.892 -0.7288  0.1488 -1.2428
25303SOL    HW293520   5.301   4.343   0.898  0.4905 -0.4788  1.6557
25304SOL     OW93521  11.166  11.971   6.218  0.6441  0.0938 -0.2707
25304SOL    HW193522  11.208  12.013   6.293  0.3302  0.6458 -0.3973
25304SOL    HW293523  11.230  11.908   6.186  0.1326 -1.3922  1.5025
25305SOL     OW93524   8.613  13.026   4.967  0.2767 -0.1092 -0.1832
25305SOL    HW193525   8.689  13.025   4.908  0.7158  2.2613  0.2603
25305SOL    HW293526   8.564  12.948   4.942  2.4529 -1.3239 -1.0016
25306SOL     OW93527   4.131   8.240  10.418  0.6677 -0.5594 -0.3992
25306SOL    HW193528   4.100   8.284  10.339  0.0427  0.9005  0.6120
25306SOL    HW293529   4.196   8.177  10.386 -0.8428 -1.2848 -2.2240
25307SOL     OW93530  11.044   1.175  13.466  0.1985  0.5632 -0.2661
25307SOL    HW193531  11.122   1.153  13.517 -0.4272  0.6862  0.7755
25307SOL    HW293532  10.976   1.117  13.500 -0.6715  1.8746  0.2942
25308SOL     OW93533   2.278   2.779  10.380  0.2811 -0.0002  0.5957
25308SOL    HW193534   2.193   2.776  10.336  0.4928 -1.3732  0.2238
25308SOL    HW293535   2.311   2.867  10.363 -0.8234  0.3743  0.2930
25309SOL     OW93536   8.842   4.355  11.920 -0.2181 -0.1571  0.3173
25309SOL    HW193537   8.873   4.359  12.011 -2.6567 -0.9400  1.2727
25309SOL    HW293538   8.832   4.261  11.903 -1.4668  0.0298 -0.0985
25310SOL     OW93539   9.826  13.680  10.501 -0.0691 -0.3954 -0.2910
25310SOL    HW193540   9.757  13.739  10.534 -0.2613 -0.0200 -1.3226
25310SOL    HW293541   9.793  13.651  10.416  0.3940 -1.3795 -0.1418
25311SOL     OW93542  12.270   0.965   9.246 -0.0702 -0.1155 -0.2356
25311SOL    HW193543  12.272   0.917   9.163 -0.3594 -0.4711 -0.0386
25311SOL    HW293544  12.330   1.038   9.232  0.9347 -0.9276 -0.3068
25312SOL     OW93545   3.723   2.395   8.522 -0.0583  0.2036  0.4734
25312SOL    HW193546   3.649   2.342   8.551 -1.3336  1.3363 -0.5764
25312SOL    HW293547   3.720   2.473   8.579  0.3164  0.2730  0.4018
25313SOL     OW93548  12.367   2.931  13.982 -0.4177  0.0921  0.1515
25313SOL    HW193549  12.316   2.898  13.908  0.2931 -1.3800  0.2871
25313SOL    HW293550  12.319   2.900  14.059  0.9595 -1.8821  0.2855
25314SOL     OW93551   1.168   9.508  13.278  0.6472  0.0985 -0.0578
25314SOL    HW193552   1.116   9.515  13.198  0.3136 -3.0851 -0.2717
25314SOL    HW293553   1.126   9.568  13.339 -1.7693 -0.4804 -1.0032
25315SOL     OW93554   1.088  13.491   5.659 -0.2953 -0.0118 -0.1076
25315SOL    HW193555   1.071  13.583   5.681 -1.5822 -0.4468  0.7916
25315SOL    HW293556   1.049  13.441   5.730  0.4408 -1.2748 -0.5538
25316SOL     OW93557   5.404   1.485   6.657  0.0921 -0.2553 -0.2094
25316SOL    HW193558   5.460   1.451   6.727 -0.3527  0.8227  0.7192
25316SOL    HW293559   5.459   1.548   6.611 -0.2460  0.6627  0.5845
25317SOL     OW93560  10.585   9.729   0.368 -0.0968  0.7994 -0.0890
25317SOL    HW193561  10.652   9.791   0.396 -0.0053  1.0460 -0.8403
25317SOL    HW293562  10.634   9.656   0.330 -0.0083 -1.2483  3.5209
25318SOL     OW93563   1.532   5.150   9.493 -0.0064 -0.6555 -0.4012
25318SOL    HW193564   1.616   5.188   9.467 -0.2426  0.8155  0.8325
25318SOL    HW293565   1.555   5.070   9.539  0.7451 -0.1415  0.1380
25319SOL     OW93566   2.419   0.653   6.318  0.9583  0.2461  0.2848
25319SOL    HW193567   2.339   0.626   6.363  0.5853 -0.3252 -0.6901
25319SOL    HW293568   2.388   0.703   6.243  1.5785  1.4441  0.8025
25320SOL     OW93569   7.309   6.903   1.947  0.0028  0.4232  0.2614
25320SOL    HW193570   7.300   6.809   1.962  0.7089  0.4748  1.0592
25320SOL    HW293571   7.320   6.911   1.852  1.0177 -0.3922  0.2971
25321SOL     OW93572  10.223   3.952   0.923  0.0791  0.6672 -0.4289
25321SOL    HW193573  10.201   4.022   0.862 -0.5062 -0.3587 -1.4155
25321SOL    HW293574  10.139   3.928   0.963  0.1291 -0.0851 -0.7651
25322SOL     OW93575   7.372  11.606  12.024 -0.4776  0.4413  0.4780
25322SOL    HW193576   7.367  11.660  11.945  0.3033  0.6910  0.5887
25322SOL    HW293577   7.458  11.627  12.061  0.9236 -2.6093 -0.7388
25323SOL     OW93578   0.043   0.708  11.339  0.5178  1.0404  0.0223
25323SOL    HW193579  -0.007   0.707  11.420  0.7644 -0.4742  0.1853
25323SOL    HW293580  -0.021   0.685  11.271  0.6915  0.5138  0.0365
25324SOL     OW93581   3.842  11.499   4.634 -0.6084  0.0215 -0.2112
25324SOL    HW193582   3.930  11.521   4.604 -1.2782  1.3989 -1.3291
25324SOL    HW293583   3.785  11.525   4.561 -2.1885  1.9696  1.5947
25325SOL     OW93584  12.923  10.254   6.661 -0.2603 -0.0001 -0.2555
25325SOL    HW193585  13.011  10.275   6.692  0.3958 -0.9012 -1.4330
25325SOL    HW293586  12.866  10.281   6.733  1.0451 -0.2142  0.9156
25326SOL     OW93587  13.803   4.344   8.377 -0.5649 -0.2010  0.1504
25326SOL    HW193588  13.861   4.343   8.301  0.9674  1.3711  1.1951
25326SOL    HW293589  13.732   4.403   8.352  0.9620  1.9560  0.5243
25327SOL     OW93590   2.475   6.609  11.190  0.9045  0.0791 -0.2866
25327SOL    HW193591   2.447   6.677  11.251  0.8274 -0.8767  0.7846
25327SOL    HW293592   2.555   6.573  11.229  0.6006 -0.8509 -0.5022
25328SOL     OW93593   0.620   1.647  12.359 -0.2973  0.5081 -0.5521
25328SOL    HW193594   0.626   1.564  12.405 -1.1195 -1.1295 -3.2201
25328SOL    HW293595   0.706   1.660  12.321  0.1778  1.5294  0.7672
25329SOL     OW93596   5.875  12.931   3.182  0.1683 -0.1024 -0.4043
25329SOL    HW193597   5.928  12.863   3.140 -0.7111 -0.3146 -1.2134
25329SOL    HW293598   5.878  12.910   3.275  0.0168 -1.1856 -0.6296
25330SOL     OW93599   6.720   8.150   5.924 -0.0251  0.1028  0.1920
25330SOL    HW193600   6.719   8.062   5.886 -2.0433  0.4352 -0.6554
25330SOL    HW293601   6.756   8.205   5.856  0.1726  0.1018  0.2954
25331SOL     OW93602   7.571   8.826   3.718  0.5900 -0.1748  0.0245
25331SOL    HW193603   7.531   8.744   3.689 -1.8329  0.4761  1.2509
25331SOL    HW293604   7.501   8.872   3.764  2.2972  1.9287  0.6998
25332SOL     OW93605   1.295   9.396  12.299 -0.2418 -0.3830 -0.3540
25332SOL    HW193606   1.386   9.369  12.305  0.0381  0.7269  0.8928
25332SOL    HW293607   1.253   9.328  12.246  0.8402 -2.0785  0.8725
25333SOL     OW93608   1.938  10.720  12.692  0.0466  0.2128  0.1158
25333SOL    HW193609   1.842  10.729  12.695  0.0334  0.8112 -1.2826
25333SOL    HW293610   1.970  10.791  12.748 -0.3250  0.4894 -0.0119
25334SOL     OW93611   0.550  13.478   5.265  0.1134  0.2213  0.3701
25334SOL    HW193612   0.588  13.475   5.177  1.2080  2.1049  0.7328
25334SOL    HW293613   0.457  13.494   5.251 -0.2425 -2.1536 -0.4775
25335SOL     OW93614   7.575   6.351   5.311 -0.1745 -0.0912 -0.6283
25335SOL    HW193615   7.660   6.374   5.347 -0.8408  1.0840  0.2863
25335SOL    HW293616   7.593   6.323   5.221  0.9884  1.8350 -1.0444
25336SOL     OW93617  12.065   3.732   5.954  0.0082  0.0970 -0.6665
25336SOL    HW193618  11.987   3.737   6.009  0.3455 -2.0680  0.0916
25336SOL    HW293619  12.034   3.751   5.865 -1.0592  0.8719 -0.1372
25337SOL     OW93620   5.072  12.607   8.583  0.8690 -0.2242 -0.2662
25337SOL    HW193621   5.146  12.607   8.645  0.6628 -0.0404 -0.0152
25337SOL    HW293622   5.016  12.679   8.614  1.4499  0.7952 -1.4886
25338SOL     OW93623   9.460   5.054  10.451 -0.2250 -0.5699  0.2542
25338SOL    HW193624   9.494   4.994  10.385 -1.5607 -0.8675 -0.2091
25338SOL    HW293625   9.376   5.016  10.476 -0.0941 -0.0436  1.5640
25339SOL     OW93626   7.947  10.370   5.758  0.0562 -0.1540 -0.0925
25339SOL    HW193627   7.996  10.321   5.692  0.6685  0.3739 -0.0414
25339SOL    HW293628   7.895  10.304   5.803 -2.0434 -0.2866 -2.5065
25340SOL     OW93629   5.450   0.621   1.311 -0.4043 -0.1241 -0.2138
25340SOL    HW193630   5.373   0.640   1.259 -1.6414 -0.8020  1.2759
25340SOL    HW293631   5.416   0.592   1.396  1.4201 -2.5025 -0.1717
25341SOL     OW93632   2.842  13.879   6.267 -0.4748  0.0060 -0.1878
25341SOL    HW193633   2.757  13.873   6.309  0.1660 -4.4614  0.9841
25341SOL    HW293634   2.822  13.888   6.174 -2.2738 -1.2864  0.0258
25342SOL     OW93635  10.265  11.709   4.523  0.4347  0.2778  0.0885
25342SOL    HW193636  10.338  11.763   4.555  1.7991 -0.7992 -1.0599
25342SOL    HW293637  10.305  11.649   4.460 -0.8801 -2.4439  1.6524
25343SOL     OW93638   0.600   7.400   3.454  0.7256 -0.9437 -0.1985
25343SOL    HW193639   0.689   7.411   3.421  1.0614  0.2065  0.9897
25343SOL    HW293640   0.606   7.328   3.516  1.0781 -0.2365  0.6192
25344SOL     OW93641   3.481  10.968   7.575  0.8896  0.4636 -0.9513
25344SOL    HW193642   3.457  11.039   7.516 -0.4700 -0.5000 -1.6048
25344SOL    HW293643   3.423  10.979   7.651  0.2408 -0.2977 -1.3302
25345SOL     OW93644   7.940  12.445  12.233 -0.3382 -0.6979  0.4725
25345SOL    HW193645   7.999  12.385  12.280  0.2908 -0.5606 -0.1211
25345SOL    HW293646   7.988  12.528  12.230 -0.2651 -0.7648 -0.5989
25346SOL     OW93647   1.610   9.934   5.149 -0.1506 -0.0846 -0.3561
25346SOL    HW193648   1.693   9.886   5.149 -0.1586 -0.1383 -1.6557
25346SOL    HW293649   1.619   9.998   5.219  0.8694 -0.3010 -0.2773
25347SOL     OW93650   7.347  12.920   1.021 -0.5026 -0.3027  0.4635
25347SOL    HW193651   7.376  12.991   1.078  2.4899 -0.0624 -1.1633
25347SOL    HW293652   7.355  12.841   1.074 -1.3247  0.2758  1.4756
25348SOL     OW93653   9.844   3.719  12.625 -0.3602 -0.4152  0.3760
25348SOL    HW193654   9.889   3.776  12.688 -1.4949  0.5670  0.3495
25348SOL    HW293655   9.907   3.706  12.555  0.4542 -0.4293  1.0860
25349SOL     OW93656   1.622  13.154   5.016  0.5061  0.1681  0.1102
25349SOL    HW193657   1.693  13.094   5.039 -0.0271 -0.4525  0.1557
25349SOL    HW293658   1.666  13.237   4.996  1.3591 -0.5177 -1.0047
25350SOL     OW93659   1.685   3.794   5.714 -0.7052  0.5415 -0.1183
25350SOL    HW193660   1.595   3.811   5.743 -0.0729  3.1836  0.5415
25350SOL    HW293661   1.688   3.833   5.626 -0.3920 -0.2383 -0.4603
25351SOL     OW93662   4.332   2.699   6.382 -0.5035  0.3573 -0.3473
25351SOL    HW193663   4.289   2.633   6.436 -1.4653  0.4542 -0.9756
25351SOL    HW293664   4.398   2.649   6.332  0.7014  0.3343  1.1753
25352SOL     OW93665   0.266   3.164   2.429  0.1575  0.1630  0.9430
25352SOL    HW193666   0.339   3.148   2.489  0.1593 -0.0420  0.8863
25352SOL    HW293667   0.205   3.217   2.480  1.9029  3.4453 -0.0993
25353SOL     OW93668  13.317   8.730   8.188  0.1200  0.2687  0.2433
25353SOL    HW193669  13.284   8.666   8.125  3.3813 -0.3180 -1.0480
25353SOL    HW293670  13.314   8.684   8.272  0.7244 -0.9723 -0.3795
25354SOL     OW93671  12.694  13.711   2.288  0.4089 -0.2281  0.0288
25354SOL    HW193672  12.778  13.757   2.284  1.1784 -1.5391  0.1480
25354SOL    HW293673  12.628  13.778   2.275  1.4517  0.9654  0.6926
25355SOL     OW93674   5.027  10.555   2.881 -0.1379  0.3807 -0.0113
25355SOL    HW193675   5.029  10.483   2.944 -0.8617  0.2622 -0.1084
25355SOL    HW293676   5.093  10.532   2.816  1.1951  0.9079  1.1211
25356SOL     OW93677  11.250   8.487   9.180  0.5093 -0.1259 -0.4850
25356SOL    HW193678  11.213   8.462   9.264 -1.2146 -0.4482 -1.2912
25356SOL    HW293679  11.241   8.408   9.126 -2.4379  1.2574 -2.2387
25357SOL     OW93680   3.866   6.962   5.010  0.4725  0.0188 -0.6737
25357SOL    HW193681   3.955   6.947   5.041  0.0048 -0.3306  0.5939
25357SOL    HW293682   3.818   6.883   5.035 -0.1993  0.2034 -1.3318
25358SOL     OW93683  10.451   9.619  11.154 -0.3962  0.1586 -0.5966
25358SOL    HW193684  10.415   9.674  11.223 -1.3367  0.5062 -1.3352
25358SOL    HW293685  10.426   9.530  11.179  1.1220  0.0399  0.5964
25359SOL     OW93686   3.080   0.769   7.898 -0.1537  0.1257  0.3475
25359SOL    HW193687   3.044   0.681   7.906 -0.1607 -0.1284 -1.8609
25359SOL    HW293688   3.089   0.800   7.988 -1.1419 -1.7165  1.1223
25360SOL     OW93689   7.676   2.294  13.716  0.3962 -0.0123 -0.0896
25360SOL    HW193690   7.682   2.218  13.659  0.5357 -0.6660  0.7867
25360SOL    HW293691   7.689   2.369  13.657  3.6789 -0.7548 -0.4619
25361SOL     OW93692   0.080   2.526   1.890  0.2236  0.6400  0.4912
25361SOL    HW193693   0.076   2.567   1.976 -2.0581 -0.4159  0.9691
25361SOL    HW293694   0.020   2.578   1.836 -0.9116 -0.6493  0.4773
25362SOL     OW93695   5.133  12.759  10.467 -0.6063  0.0477  0.1547
25362SOL    HW193696   5.146  12.852  10.446 -0.0823 -0.1312 -0.3284
25362SOL    HW293697   5.073  12.727  10.400  0.7726 -0.4326 -0.9033
25363SOL     OW93698   0.451  10.417   2.855 -0.3237  0.0461  0.0255
25363SOL    HW193699   0.519  10.370   2.903 -0.3083 -0.2110 -0.2445
25363SOL    HW293700   0.421  10.354   2.789 -0.1722  0.4786 -0.4600
25364SOL     OW93701   2.123   9.539   6.452  0.2316 -0.3452  0.3999
25364SOL    HW193702   2.123   9.617   6.396 -0.1584 -0.3223  0.4303
25364SOL    HW293703   2.168   9.472   6.399 -0.1840 -0.3387  0.0300
25365SOL     OW93704   7.632  13.777   9.192  0.3191 -0.3126  0.0386
25365SOL    HW193705   7.649  13.817   9.107 -0.7379  1.4707  0.6096
25365SOL    HW293706   7.684  13.828   9.254 -0.8116  0.0388  0.7432
25366SOL     OW93707   5.007  12.235   5.638  0.7354 -0.3099 -0.3162
25366SOL    HW193708   5.100  12.243   5.616  1.5570  2.2498  3.1740
25366SOL    HW293709   4.968  12.317   5.608 -0.0842 -0.7588 -0.4949
25367SOL     OW93710   6.486   3.021   3.314  0.3995  0.6691 -0.4970
25367SOL    HW193711   6.579   3.014   3.296  0.0632  0.7238 -2.3902
25367SOL    HW293712   6.477   3.101   3.367  1.3890  0.7739 -0.4785
25368SOL     OW93713   6.257   2.612  13.513 -0.0494 -0.6927  0.4407
25368SOL    HW193714   6.261   2.520  13.488 -0.5282 -1.0507  1.6267
25368SOL    HW293715   6.165   2.627  13.535 -0.0126  0.1281  0.0599
25369SOL     OW93716   8.516   5.958   8.668 -0.1099  0.0676 -0.1777
25369SOL    HW193717   8.605   5.954   8.632 -0.1130  1.1598 -0.3535
25369SOL    HW293718   8.471   6.023   8.613 -0.4341  0.9744  1.1185
25370SOL     OW93719   0.130  11.566   4.729 -0.4644  0.0793  0.1961
25370SOL    HW193720   0.136  11.553   4.823 -1.4475 -1.0400  0.1227
25370SOL    HW293721   0.217  11.597   4.703 -0.1248  0.1851  1.4232
25371SOL     OW93722   4.264   5.597   3.342  0.2354  0.1124  0.0159
25371SOL    HW193723   4.207   5.580   3.267 -0.7914 -1.3792  1.0738
25371SOL    HW293724   4.349   5.618   3.303 -0.7420  1.3335 -1.5750
25372SOL     OW93725   4.080  13.986  10.179 -0.3941  0.0032  0.3888
25372SOL    HW193726   4.093  14.045  10.254  2.2609  2.0988 -1.5175
25372SOL    HW293727   4.168  13.954  10.159 -1.1422 -1.0504 -1.4501
25373SOL     OW93728   9.008   6.701   1.686  0.1175  0.4215  0.0791
25373SOL    HW193729   9.068   6.744   1.625  0.3332  0.3884  0.2705
25373SOL    HW293730   9.062   6.637   1.732 -0.4554 -0.9834 -1.1156
25374SOL     OW93731   7.068  11.897  10.160 -0.0030 -0.4939 -0.0322
25374SOL    HW193732   7.100  11.937  10.079  0.8169 -1.4316 -0.2010
25374SOL    HW293733   7.066  11.803  10.141 -0.5755 -0.6541  0.7753
25375SOL     OW93734   1.296   6.228   6.011 -0.8493 -0.3425 -0.5402
25375SOL    HW193735   1.303   6.315   6.051 -1.4513 -0.9150  0.8517
25375SOL    HW293736   1.366   6.226   5.946 -0.5857  1.0429 -0.3269
25376SOL     OW93737   3.949   9.291   1.826 -0.6467  0.3851 -0.2310
25376SOL    HW193738   3.859   9.313   1.849 -1.5450 -2.6155 -0.4908
25376SOL    HW293739   3.983   9.247   1.904 -0.6077 -1.5524 -1.2901
25377SOL     OW93740   5.318   4.275   3.818  0.2309 -0.4269 -0.1113
25377SOL    HW193741   5.239   4.312   3.778 -0.1084 -0.4976  0.4816
25377SOL    HW293742   5.289   4.243   3.903  1.3913  1.7806  1.2153
25378SOL     OW93743  10.801   1.119   0.542 -0.0883 -0.4920  0.7477
25378SOL    HW193744  10.855   1.059   0.594  0.7673  0.3880  0.8884
25378SOL    HW293745  10.782   1.192   0.601  1.1384  0.6626 -0.2314
25379SOL     OW93746   8.492   1.782   3.639 -0.4716 -0.3659 -0.1101
25379SOL    HW193747   8.514   1.731   3.561 -1.3729 -0.2300 -0.4743
25379SOL    HW293748   8.555   1.754   3.705 -0.9146 -1.9510 -0.3086
25380SOL     OW93749   4.365  10.119   3.923  0.0872 -0.0777 -0.3106
25380SOL    HW193750   4.370  10.193   3.983 -0.5894 -0.5265  0.3201
25380SOL    HW293751   4.335  10.046   3.978 -0.7162 -0.4578 -1.2212
25381SOL     OW93752   4.639  12.411   4.983  0.2391 -0.0388 -0.1570
25381SOL    HW193753   4.612  12.327   5.020 -0.9939  1.1976  1.9788
25381SOL    HW293754   4.671  12.461   5.059  1.4203  1.2548 -1.4499
25382SOL     OW93755   2.784   3.814   5.864 -0.0655 -0.3016  0.3812
25382SOL    HW193756   2.739   3.741   5.907 -0.5191 -1.3396 -1.7033
25382SOL    HW293757   2.877   3.793   5.872 -0.0841  0.0898  1.7600
25383SOL     OW93758   2.496   3.302   7.080  0.1923 -0.6451 -0.2609
25383SOL    HW193759   2.496   3.220   7.030 -0.1971  0.2944 -1.8861
25383SOL    HW293760   2.527   3.368   7.018 -0.5152  0.6276  0.6832
25384SOL     OW93761   2.801  12.694   8.462  0.3422 -0.5669 -0.1692
25384SOL    HW193762   2.737  12.766   8.464  0.1114 -0.7106 -1.4682
25384SOL    HW293763   2.816  12.673   8.554 -0.5909  0.2674  0.1951
25385SOL     OW93764   8.636   9.970   0.501 -0.5200  0.4790 -0.0236
25385SOL    HW193765   8.633   9.987   0.407 -0.6803  0.2714 -0.0567
25385SOL    HW293766   8.641   9.874   0.507  0.1950  0.5231  0.1591
25386SOL     OW93767   7.676   2.024  12.887 -0.6226 -0.1861 -0.0611
25386SOL    HW193768   7.733   2.101  12.880  0.0113 -0.7438 -1.5318
25386SOL    HW293769   7.607   2.051  12.947 -0.3344  1.4827 -0.4123
25387SOL     OW93770   0.438   4.324   2.519 -0.0617 -0.1676  0.1528
25387SOL    HW193771   0.484   4.270   2.456  1.7032  0.9580  0.4081
25387SOL    HW293772   0.466   4.291   2.604 -0.5415 -0.1264  0.3322
25388SOL     OW93773   2.716  10.625  10.289 -0.0535 -0.3664  0.1343
25388SOL    HW193774   2.796  10.663  10.324  0.6806 -0.2768 -1.5350
25388SOL    HW293775   2.696  10.552  10.348  1.7584 -0.9329  0.1002
25389SOL     OW93776   2.336   4.324   2.904 -0.4498 -0.4640  0.0405
25389SOL    HW193777   2.271   4.349   2.838  0.6555  1.0772 -0.5003
25389SOL    HW293778   2.408   4.287   2.854 -0.1961 -0.6098  0.5091
25390SOL     OW93779  13.728   6.281   3.591  0.1173 -0.5900 -0.2290
25390SOL    HW193780  13.812   6.244   3.618 -0.0852 -0.1257  1.1194
25390SOL    HW293781  13.690   6.215   3.533 -0.2342 -2.5481  2.0834
25391SOL     OW93782   0.241  11.773   3.032 -0.3273 -0.3245 -0.2485
25391SOL    HW193783   0.304  11.701   3.027 -0.6098 -0.5714 -0.2641
25391SOL    HW293784   0.276  11.831   3.098 -1.1395 -1.4905  1.2683
25392SOL     OW93785   6.672   0.831  13.830  0.0955  0.2359  0.7807
25392SOL    HW193786   6.765   0.836  13.853  0.4385 -0.0741 -0.4662
25392SOL    HW293787   6.636   0.915  13.857  1.0026  0.8213  0.2253
25393SOL     OW93788   7.400  11.674   4.682 -0.4482 -0.6493 -0.0042
25393SOL    HW193789   7.326  11.669   4.621  0.1267  1.4281 -0.9496
25393SOL    HW293790   7.392  11.594   4.735 -3.2559 -0.6036 -0.1914
25394SOL     OW93791   0.529   4.853  12.044  0.2312 -0.3518  0.1895
25394SOL    HW193792   0.606   4.806  12.010 -1.1635 -3.5517  1.1148
25394SOL    HW293793   0.554   4.878  12.133  0.7722  0.1638 -0.0967
25395SOL     OW93794   4.894   1.466   8.995 -0.0501 -0.0554 -0.1318
25395SOL    HW193795   4.981   1.481   9.031  0.4396 -1.8717 -0.4641
25395SOL    HW293796   4.901   1.489   8.903  0.2705 -0.8400 -0.3066
25396SOL     OW93797   5.103   0.510   5.776  0.1077 -0.2676  0.2478
25396SOL    HW193798   5.157   0.525   5.698  0.3724 -0.8254  0.3243
25396SOL    HW293799   5.149   0.442   5.825  0.1957  0.4155  1.1367
25397SOL     OW93800   1.991   0.946   8.041  0.2585  0.1811  0.1921
25397SOL    HW193801   1.992   0.876   7.976 -0.8283  0.9121 -0.6563
25397SOL    HW293802   2.008   0.902   8.124 -0.3786 -1.0945 -0.3191
25398SOL     OW93803   4.385  11.817   4.850 -0.6702 -0.5196  0.1462
25398SOL    HW193804   4.401  11.737   4.900 -1.7740  0.4255  2.1555
25398SOL    HW293805   4.299  11.805   4.810  0.2429 -1.3034 -1.6959
25399SOL     OW93806   7.703   2.012  13.628  0.2313  0.5039 -0.0196
25399SOL    HW193807   7.637   1.967  13.575  0.0288 -1.3273  1.6441
25399SOL    HW293808   7.785   1.967  13.607  0.2081  0.0061  0.8895
25400SOL     OW93809  11.144   6.922  11.949  0.1636  0.4411  0.4652
25400SOL    HW193810  11.133   6.893  12.039 -1.5457  1.0553  0.4912
25400SOL    HW293811  11.221   6.979  11.951  1.5865 -1.4214  1.0368
25401SOL     OW93812   0.807   7.676   4.349  0.0799 -0.0857  0.0016
25401SOL    HW193813   0.843   7.747   4.296  0.3462  0.6869  1.1824
25401SOL    HW293814   0.749   7.720   4.411 -0.0423 -0.9430  0.5033
25402SOL     OW93815   2.726   1.434  13.071 -0.2191  0.3393  0.0949
25402SOL    HW193816   2.773   1.489  13.133  1.6167  1.1040 -1.8448
25402SOL    HW293817   2.790   1.369  13.042 -1.4882 -0.9984  0.1382
25403SOL     OW93818  11.696   6.006   8.527 -0.0312 -0.6588 -0.3455
25403SOL    HW193819  11.776   5.990   8.577  0.8156  3.4406 -0.0304
25403SOL    HW293820  11.719   5.984   8.436  0.8769 -1.1458 -0.0050
25404SOL     OW93821   3.196   8.574   0.553 -0.0178  0.7346  0.3678
25404SOL    HW193822   3.271   8.618   0.513  0.0569  0.0215 -0.3021
25404SOL    HW293823   3.124   8.636   0.544 -0.1355  0.3930 -1.3780
25405SOL     OW93824   6.493   8.128   8.701  0.5670 -0.5511  0.1755
25405SOL    HW193825   6.537   8.170   8.627 -0.0410 -0.6338 -0.2474
25405SOL    HW293826   6.563   8.102   8.760  1.1807 -1.9102 -1.1122
25406SOL     OW93827   6.209   7.597   1.948  0.3118  0.2094  0.4578
25406SOL    HW193828   6.226   7.523   2.007 -1.0477 -0.3508  0.1894
25406SOL    HW293829   6.117   7.620   1.964  0.8624  2.2293  0.9378
25407SOL     OW93830  13.299   9.984   4.714 -0.1843 -0.0392  0.1865
25407SOL    HW193831  13.268  10.051   4.775  0.5111  1.0126 -0.5780
25407SOL    HW293832  13.369  10.026   4.665  0.1362 -1.2734 -0.4664
25408SOL     OW93833   6.556   7.221  13.384  0.0141 -0.3932  0.3989
25408SOL    HW193834   6.599   7.306  13.396  0.5066 -0.7909  1.5265
25408SOL    HW293835   6.628   7.161  13.363 -0.3803 -0.4724 -0.8325
25409SOL     OW93836   1.109  13.110   6.091 -0.2511 -0.2160  0.0844
25409SOL    HW193837   1.014  13.110   6.102 -0.3600  1.1064 -0.6247
25409SOL    HW293838   1.123  13.077   6.002 -0.2393  2.0865 -0.8183
25410SOL     OW93839   0.977  10.667   6.460  0.3933 -0.6058 -0.4814
25410SOL    HW193840   1.023  10.737   6.413  1.2980 -0.9015 -0.0607
25410SOL    HW293841   1.032  10.589   6.447  1.2923 -0.4648  1.9726
25411SOL     OW93842   3.980   6.322   4.697 -0.0176 -0.4506 -0.0888
25411SOL    HW193843   3.952   6.389   4.759  0.8063  2.4868 -2.6698
25411SOL    HW293844   3.939   6.347   4.614  0.2652 -3.2368 -1.1859
25412SOL     OW93845   1.088   4.507  13.073  0.2463  0.4419 -0.5752
25412SOL    HW193846   1.070   4.413  13.069 -1.6023  0.8092 -2.7708
25412SOL    HW293847   1.177   4.516  13.038  0.8779 -0.5364  0.6895
25413SOL     OW93848   2.039   9.734   4.290  0.2396 -0.3693 -0.4809
25413SOL    HW193849   2.081   9.665   4.341  0.6283  0.9495  1.0872
25413SOL    HW293850   1.945   9.719   4.302  0.3158  0.0418  0.8938
25414SOL     OW93851   6.930  11.400  12.086  0.1653 -0.4219 -0.4624
25414SOL    HW193852   6.897  11.417  12.175 -2.8293 -2.4015 -1.0302
25414SOL    HW293853   7.012  11.354  12.100  0.1779  0.0156  1.2407
25415SOL     OW93854  10.771   1.752   5.560 -0.3249 -0.0898 -0.5293
25415SOL    HW193855  10.699   1.741   5.497  0.3154  1.3668 -1.5782
25415SOL    HW293856  10.847   1.714   5.515 -0.4561 -1.9118  0.7034
25416SOL     OW93857  10.506  11.957   6.454 -0.3028 -0.1412  0.0127
25416SOL    HW193858  10.561  11.959   6.375 -0.0888  1.6044  0.1591
25416SOL    HW293859  10.417  11.964   6.420 -0.1323  3.4920 -0.1109
25417SOL     OW93860  11.912  10.589   6.557  0.1916 -0.0106  0.3772
25417SOL    HW193861  11.822  10.617   6.571 -0.0415 -0.3957 -0.3320
25417SOL    HW293862  11.910  10.538   6.477  1.1055  0.2794  0.1508
25418SOL     OW93863   4.324   9.378   3.132  0.5419  0.1029  0.2110
25418SOL    HW193864   4.343   9.449   3.070  1.3690  0.4823  0.8765
25418SOL    HW293865   4.301   9.422   3.213 -0.8610 -0.3916  0.1083
25419SOL     OW93866  10.571   4.663   3.325 -0.2165 -0.1114 -0.4432
25419SOL    HW193867  10.595   4.676   3.416  0.1502  0.2606 -0.5898
25419SOL    HW293868  10.627   4.590   3.296 -1.6834 -1.5364  0.1468
25420SOL     OW93869  13.149   0.447   3.946  0.2847  0.0886  0.9718
25420SOL    HW193870  13.174   0.377   3.884 -0.6461  2.6556 -2.6527
25420SOL    HW293871  13.085   0.406   4.004 -0.5362 -2.0151 -1.2412
25421SOL     OW93872   0.835   8.276   3.816  0.0052 -0.4319  0.4208
25421SOL    HW193873   0.779   8.347   3.845 -1.2842 -1.1542 -0.2075
25421SOL    HW293874   0.824   8.274   3.721  0.8964 -0.7648  0.3093
25422SOL     OW93875  10.300  12.967  11.738  0.4289  0.2469 -0.2357
25422SOL    HW193876  10.364  12.911  11.694  0.0508 -0.3538 -0.0346
25422SOL    HW293877  10.319  13.055  11.705 -1.2128 -0.4091 -3.3760
25423SOL     OW93878  13.922   6.711   7.198  0.1834 -0.0490  0.3860
25423SOL    HW193879  13.852   6.654   7.229  0.6199 -0.7728  0.0530
25423SOL    HW293880  14.001   6.659   7.208  0.2642 -0.7316 -2.8404
25424SOL     OW93881   0.067   0.590   8.208  0.1264  0.4579 -0.2656
25424SOL    HW193882   0.027   0.503   8.214 -0.0696  0.5467 -0.2887
25424SOL    HW293883   0.010   0.646   8.261  0.0342  0.6492 -0.5668
25425SOL     OW93884   2.249  11.703  11.909 -1.0661 -0.3455  0.1090
25425SOL    HW193885   2.265  11.781  11.857 -1.1693 -0.0817  0.4695
25425SOL    HW293886   2.251  11.733  12.000 -4.0610 -0.1583  0.2091
25426SOL     OW93887   9.644  13.411   5.129 -0.1562  0.4128 -0.7223
25426SOL    HW193888   9.699  13.446   5.198  0.4218 -1.6958 -0.0339
25426SOL    HW293889   9.676  13.322   5.115 -1.5717  0.0892 -2.2840
25427SOL     OW93890   9.327   3.927   5.898  0.2162  0.1734 -0.2685
25427SOL    HW193891   9.254   3.953   5.954  0.2018 -0.4023 -0.0124
25427SOL    HW293892   9.309   3.836   5.876  0.7370  0.0997 -0.3980
25428SOL     OW93893  13.263   8.591   8.433 -0.1717 -0.2753  0.0948
25428SOL    HW193894  13.312   8.664   8.472  1.8357 -0.9600 -0.9911
25428SOL    HW293895  13.244   8.533   8.507 -0.5557  0.6557  0.7473
25429SOL     OW93896  12.898   8.134   6.451 -0.5869  0.1392 -0.3931
25429SOL    HW193897  12.897   8.099   6.540  0.1111 -0.3547 -0.5756
25429SOL    HW293898  12.853   8.218   6.458  1.0922  0.9952  0.8031
25430SOL     OW93899   9.421   9.106   0.348  0.1375 -0.5743 -0.2848
25430SOL    HW193900   9.396   9.123   0.438  3.6181 -1.0061  0.9278
25430SOL    HW293901   9.442   9.193   0.313  2.2759 -0.6840  0.5910
25431SOL     OW93902   1.860   4.188   3.753  0.0727  0.1437  0.1373
25431SOL    HW193903   1.882   4.102   3.716 -1.4849 -1.1552  2.0407
25431SOL    HW293904   1.765   4.192   3.750 -0.0126  0.7771  2.1939
25432SOL     OW93905   9.050  12.061   2.426  0.2172 -0.5047 -0.0017
25432SOL    HW193906   9.079  12.010   2.351 -0.3349 -0.0151 -0.5612
25432SOL    HW293907   9.116  12.129   2.437  0.1648 -0.4195 -0.2116
25433SOL     OW93908   2.905   5.267   4.250 -0.0990  0.0857 -0.0725
25433SOL    HW193909   2.971   5.218   4.201  0.3765  0.2219  0.4138
25433SOL    HW293910   2.941   5.356   4.256 -1.1562  0.6410 -1.3423
25434SOL     OW93911  11.986   8.852  10.217  0.4614  0.0224  0.6712
25434SOL    HW193912  12.026   8.939  10.209  1.4758 -0.3860  1.1588
25434SOL    HW293913  12.055   8.797  10.255 -0.1532 -1.0087  0.3373
25435SOL     OW93914  11.134  12.216   3.358 -0.4357  0.3433 -0.0152
25435SOL    HW193915  11.115  12.157   3.285  0.9704  0.3967 -0.4390
25435SOL    HW293916  11.163  12.158   3.429 -3.1102  0.1378  1.0460
25436SOL     OW93917  12.945  12.611  10.178  0.1814 -0.0592  0.1179
25436SOL    HW193918  12.859  12.572  10.165  0.1296  0.0654  0.0823
25436SOL    HW293919  12.985  12.559  10.248  0.0635 -0.0925  0.1599
25437SOL     OW93920   5.762  12.601  10.729 -0.3488  0.5312  0.0853
25437SOL    HW193921   5.688  12.660  10.743  0.4373  1.6623 -0.3225
25437SOL    HW293922   5.815  12.644  10.662  0.7110 -0.1971  0.4175
25438SOL     OW93923  12.420   0.860  13.807  0.2819  0.4177  0.3264
25438SOL    HW193924  12.440   0.928  13.743  0.6544 -0.7050 -0.7783
25438SOL    HW293925  12.327   0.841  13.794 -0.4266  2.2391  2.1721
25439SOL     OW93926   4.568  13.334  11.775 -0.9300  0.1099 -0.2277
25439SOL    HW193927   4.606  13.247  11.765 -0.8840 -0.1256  1.7521
25439SOL    HW293928   4.577  13.354  11.868 -1.2417  2.1007 -0.5819
25440SOL     OW93929   4.123  14.015  12.508 -0.0770  0.0312 -0.6868
25440SOL    HW193930   4.210  14.049  12.487  0.6507 -0.5242  1.2058
25440SOL    HW293931   4.140  13.930  12.549 -1.4923  0.0023 -0.0958
25441SOL     OW93932   5.045  12.987   9.155  0.7183 -0.0428 -0.2477
25441SOL    HW193933   5.092  13.056   9.107  1.5767 -0.2388  0.3092
25441SOL    HW293934   4.954  12.997   9.126  1.3577 -0.9823 -2.9659
25442SOL     OW93935   9.245   3.700   6.169 -0.0225 -0.1371 -0.0029
25442SOL    HW193936   9.256   3.665   6.080 -1.0479  1.4381 -0.7995
25442SOL    HW293937   9.150   3.694   6.184  0.0225  0.5465  0.5703
25443SOL     OW93938   6.260   0.785   6.858  0.1160 -0.7037  0.3775
25443SOL    HW193939   6.290   0.870   6.826  1.2295 -0.9207  0.8106
25443SOL    HW293940   6.193   0.806   6.923 -1.4291 -0.2291 -1.2694
25444SOL     OW93941   2.509   5.926  13.490 -0.2486 -0.0031  0.6628
25444SOL    HW193942   2.445   5.856  13.476 -0.0661 -0.3415  1.4808
25444SOL    HW293943   2.498   5.950  13.581  2.6722 -2.0061  1.6844
25445SOL     OW93944   9.249  11.887  13.322  0.0364 -0.3386  0.2550
25445SOL    HW193945   9.158  11.861  13.323 -0.0500 -0.0504  1.0718
25445SOL    HW293946   9.252  11.967  13.375  0.9659 -1.0945  1.4213
25446SOL     OW93947  13.833  11.356   5.354  0.4442 -0.1697  0.0934
25446SOL    HW193948  13.910  11.301   5.336  0.7683 -0.7749  2.8867
25446SOL    HW293949  13.795  11.318   5.433 -0.2403  2.7094  1.2551
25447SOL     OW93950   5.983  11.313  10.980  0.2025  0.6971  0.7375
25447SOL    HW193951   6.014  11.228  10.950 -0.0834  0.6151  0.6767
25447SOL    HW293952   5.995  11.371  10.905 -1.5798  0.2452  0.0521
25448SOL     OW93953   4.687   1.022   4.374 -0.8513  0.1084  0.0057
25448SOL    HW193954   4.691   0.973   4.292  0.1770 -0.7160  0.5176
25448SOL    HW293955   4.767   1.074   4.376 -0.3382 -0.6756  0.9453
25449SOL     OW93956  10.400   9.849  11.345 -0.3646  0.0251 -0.5574
25449SOL    HW193957  10.395   9.922  11.408  2.4513  1.2695 -1.6059
25449SOL    HW293958  10.487   9.858  11.306 -1.3849 -1.6644 -3.4756
25450SOL     OW93959   5.199   4.834   0.996 -0.6453 -0.1826 -0.3014
25450SOL    HW193960   5.230   4.914   1.037 -0.4293  0.3795 -1.5033
25450SOL    HW293961   5.251   4.827   0.915 -1.0079 -1.2701 -0.4617
25451SOL     OW93962   2.055  11.045   5.180 -0.0551  0.0322 -0.3036
25451SOL    HW193963   2.038  11.135   5.152  0.5076  0.5916  1.0259
25451SOL    HW293964   2.026  10.991   5.107 -1.1019  1.2518 -0.8390
25452SOL     OW93965   7.361  11.852   2.202 -0.0266  0.1445 -0.5250
25452SOL    HW193966   7.360  11.816   2.290 -0.9832  0.1331 -0.5290
25452SOL    HW293967   7.379  11.945   2.214 -0.5565  0.2187 -0.2796
25453SOL     OW93968   9.669  11.132   0.322 -0.5531  0.1403  0.4611
25453SOL    HW193969   9.673  11.216   0.276 -0.3074  0.3008  0.7684
25453SOL    HW293970   9.731  11.076   0.277 -0.9343  0.0306  0.0703
25454SOL     OW93971   4.614  11.317   1.116 -0.2575 -0.0974 -0.1516
25454SOL    HW193972   4.651  11.291   1.201  2.3589  0.5169 -1.0232
25454SOL    HW293973   4.621  11.238   1.062  0.2625  0.1655 -0.4717
25455SOL     OW93974  10.924  12.386  12.490  0.7099  0.3962 -0.2645
25455SOL    HW193975  10.889  12.334  12.417  1.7280 -0.5445 -0.1165
25455SOL    HW293976  10.968  12.322  12.546  1.1054  1.2895  0.4741
25456SOL     OW93977   9.455   0.993   8.079 -0.5513 -0.4364  0.2630
25456SOL    HW193978   9.511   0.924   8.043  0.2247  0.6165 -0.6374
25456SOL    HW293979   9.496   1.016   8.163 -0.1929 -0.3466  0.0663
25457SOL     OW93980  13.846  10.743   5.549 -0.1544  0.4524 -0.1976
25457SOL    HW193981  13.869  10.780   5.634  1.0887  0.3991 -0.4937
25457SOL    HW293982  13.915  10.773   5.490  0.6462 -1.9077 -0.5548
25458SOL     OW93983   6.397  12.124   6.163 -0.0259 -0.7143  0.5002
25458SOL    HW193984   6.457  12.049   6.161 -0.2789 -0.9539  1.3317
25458SOL    HW293985   6.350  12.115   6.246 -0.7686 -0.1836  0.1565
25459SOL     OW93986   3.781  10.404   4.293 -0.9656  0.1867 -0.7659
25459SOL    HW193987   3.782  10.312   4.269 -0.7139 -0.0196 -0.0027
25459SOL    HW293988   3.711  10.411   4.358 -0.8224  0.4839 -0.6420
25460SOL     OW93989   1.997   0.144  13.652  0.3993  0.3178  0.3467
25460SOL    HW193990   1.949   0.198  13.589 -1.4620 -0.1931  1.2485
25460SOL    HW293991   2.055   0.090  13.598 -1.8733 -0.8649 -1.0964
25461SOL     OW93992   5.766  13.428   4.709 -0.1593 -0.0484  0.4495
25461SOL    HW193993   5.785  13.518   4.735  2.1187 -0.1629 -0.5361
25461SOL    HW293994   5.847  13.380   4.728 -0.3254 -1.2805 -1.6281
25462SOL     OW93995  10.761  12.579  13.237 -0.2730 -0.2644 -0.5113
25462SOL    HW193996  10.828  12.511  13.233 -1.7674 -1.7073 -3.1154
25462SOL    HW293997  10.774  12.631  13.157 -0.2444  1.5096  0.5843
25463SOL     OW93998  13.173  12.592   3.392  0.3866  0.2836  0.2755
25463SOL    HW193999  13.235  12.582   3.320 -0.4300  4.1699 -1.2545
25463SOL    HW294000  13.093  12.550   3.361  0.6658  0.0707 -0.1577
25464SOL     OW94001  12.725   3.159   5.330 -0.0132 -0.0797  0.8511
25464SOL    HW194002  12.685   3.230   5.279  0.6956  0.9261  1.6653
25464SOL    HW294003  12.747   3.199   5.414 -0.8960 -1.6298  1.8813
25465SOL     OW94004  10.458   1.964   1.207 -0.8228  0.7555  0.4146
25465SOL    HW194005  10.416   1.917   1.279 -1.0865  0.0262 -0.2063
25465SOL    HW294006  10.461   1.901   1.135  1.3211  0.7956  0.4132
25466SOL     OW94007   5.970   3.319  10.941  0.3313  0.1659  0.0407
25466SOL    HW194008   6.045   3.368  10.976 -0.1181  0.5744  0.4569
25466SOL    HW294009   5.899   3.384  10.938 -0.1004 -0.3029 -0.0121
25467SOL     OW94010   5.588  10.538   5.320 -0.2060 -0.2748  0.9544
25467SOL    HW194011   5.572  10.599   5.392  1.1277 -0.4087  1.3901
25467SOL    HW294012   5.664  10.575   5.274  0.8152 -1.7330  1.4098
25468SOL     OW94013  11.233  11.154   2.955 -0.1522  0.2827  0.4972
25468SOL    HW194014  11.174  11.199   3.016  0.0379 -0.1724  1.0274
25468SOL    HW294015  11.174  11.106   2.897 -0.3391  0.8223  0.2250
25469SOL     OW94016   1.446  12.609   1.946  0.5490  0.3710  0.2270
25469SOL    HW194017   1.507  12.631   2.017  1.8320  1.4016 -1.1322
25469SOL    HW294018   1.361  12.599   1.990  1.6803 -1.4381  2.2380
25470SOL     OW94019   8.052   0.699   3.728 -0.3361 -0.1391  0.2929
25470SOL    HW194020   8.072   0.620   3.777 -1.2781 -0.8093 -0.3594
25470SOL    HW294021   8.107   0.766   3.767  1.3614 -1.3579  0.0958
25471SOL     OW94022  11.219  12.975   3.837  0.5212  0.3021  0.3155
25471SOL    HW194023  11.152  12.997   3.901 -0.6152 -1.3631 -0.2237
25471SOL    HW294024  11.172  12.970   3.754  1.2457 -1.0646 -0.0437
25472SOL     OW94025  13.527   4.511   8.531  0.4656 -0.6313  0.0566
25472SOL    HW194026  13.491   4.445   8.590 -1.0168 -0.3278 -0.4660
25472SOL    HW294027  13.575   4.461   8.465  0.0582 -1.1513  0.1427
25473SOL     OW94028  10.736  12.461   7.938  0.2775 -0.0588  0.0799
25473SOL    HW194029  10.718  12.410   7.859  0.1206  1.7837 -1.1363
25473SOL    HW294030  10.652  12.463   7.984 -0.4064  1.1677 -1.1447
25474SOL     OW94031   1.866   5.996   0.953 -0.0525  0.4049 -0.4802
25474SOL    HW194032   1.793   5.958   1.003  1.4219 -0.1489  1.3716
25474SOL    HW294033   1.835   5.997   0.863 -2.8119  1.3553  0.3876
25475SOL     OW94034  11.625   1.528   3.476  0.9214 -0.4720 -0.5157
25475SOL    HW194035  11.706   1.580   3.482  0.6286  0.1103 -1.5442
25475SOL    HW294036  11.642   1.452   3.532  0.3224  2.0146  3.4485
25476SOL     OW94037   2.605  11.910   3.082  0.0092  0.3219  0.6215
25476SOL    HW194038   2.653  11.836   3.119 -0.8048 -1.0225 -0.8808
25476SOL    HW294039   2.633  11.986   3.134  0.4427 -1.1142  2.5653
25477SOL     OW94040  12.982   7.346   7.643 -0.4288 -0.1560  0.4281
25477SOL    HW194041  12.977   7.362   7.737 -1.7677  1.2520  0.1732
25477SOL    HW294042  12.995   7.433   7.605  0.1633 -0.7149 -0.6858
25478SOL     OW94043  10.245   0.761   6.798  0.2294  0.0991 -0.1647
25478SOL    HW194044  10.238   0.856   6.811 -0.6570 -0.1575  1.5653
25478SOL    HW294045  10.183   0.741   6.728 -0.0856  0.7131 -0.0670
25479SOL     OW94046  10.134   5.131  13.276 -0.1870  0.2793 -0.5454
25479SOL    HW194047  10.143   5.099  13.366 -0.0745 -2.2905 -1.3809
25479SOL    HW294048  10.218   5.173  13.256 -0.3593  1.2418  0.6326
25480SOL     OW94049   1.821   0.465  11.050 -0.2267  0.3070  0.3076
25480SOL    HW194050   1.878   0.519  10.995 -0.8998  0.9022  0.1766
25480SOL    HW294051   1.739   0.460  11.002  0.0769 -1.5509 -0.0820
25481SOL     OW94052   5.155  12.663   5.597  0.3520 -0.3434  0.2839
25481SOL    HW194053   5.173  12.638   5.688  1.2878 -0.6376  0.0228
25481SOL    HW294054   5.152  12.579   5.550 -0.9847 -0.2644  0.1725
25482SOL     OW94055   9.637  10.680   2.608 -0.6487 -0.7195  0.0777
25482SOL    HW194056   9.649  10.772   2.630  0.8174 -0.4277 -1.6702
25482SOL    HW294057   9.576  10.682   2.534 -0.4957 -1.1206 -0.0609
25483SOL     OW94058   2.385  13.925   1.981  0.1285 -0.4064 -0.1374
25483SOL    HW194059   2.420  13.859   2.042  0.7088 -1.0225 -1.0938
25483SOL    HW294060   2.360  13.874   1.904 -1.4358  0.2457 -0.0851
25484SOL     OW94061   5.454  11.502   3.132  0.4840 -0.3234  0.2294
25484SOL    HW194062   5.454  11.565   3.204 -0.2983  0.3818 -0.3623
25484SOL    HW294063   5.495  11.549   3.059 -2.0584  0.3593 -0.8853
25485SOL     OW94064  12.536   0.158   4.058 -0.0497  0.5468  0.5235
25485SOL    HW194065  12.504   0.237   4.014 -0.6948  0.6075  1.0973
25485SOL    HW294066  12.478   0.088   4.029  1.1858  0.0275 -0.8664
25486SOL     OW94067  10.450   1.987  11.408  0.9530 -0.3438 -0.7389
25486SOL    HW194068  10.362   1.953  11.422  1.4748 -2.0622 -1.4310
25486SOL    HW294069  10.507   1.910  11.413  2.6908  0.9793  1.8201
25487SOL     OW94070   8.792  10.512   0.007  0.5418 -0.3107 -0.5380
25487SOL    HW194071   8.717  10.454   0.024  0.3445  0.2111  0.4722
25487SOL    HW294072   8.855  10.457  -0.039 -0.2419 -0.9151 -0.9077
25488SOL     OW94073   0.201  12.117  13.055 -0.4316 -0.0759  0.4790
25488SOL    HW194074   0.225  12.138  13.145  0.8667 -1.0185  0.3835
25488SOL    HW294075   0.160  12.031  13.061 -0.1835 -0.2200  0.1660
25489SOL     OW94076  10.806   0.767  10.510  0.2828 -0.3550 -0.4205
25489SOL    HW194077  10.788   0.754  10.417  0.7768 -0.6043 -0.4837
25489SOL    HW294078  10.901   0.763  10.517  0.3071  0.5844 -0.0360
25490SOL     OW94079   8.500  13.391   6.825  0.6493 -0.2238 -0.4595
25490SOL    HW194080   8.521  13.378   6.733  1.3989 -1.4909 -0.1424
25490SOL    HW294081   8.585  13.391   6.869  0.2643 -0.3939  0.3008
25491SOL     OW94082   0.857   0.056   4.193 -0.1985 -0.2556  0.2645
25491SOL    HW194083   0.889   0.089   4.277  0.4353 -1.2631  0.4298
25491SOL    HW294084   0.850   0.134   4.138  0.1387  0.3101  1.0065
25492SOL     OW94085   1.608   5.352   5.740 -0.0478 -0.0655 -0.0733
25492SOL    HW194086   1.581   5.444   5.742 -2.6030 -0.7113 -0.7710
25492SOL    HW294087   1.637   5.337   5.650 -1.4581 -0.3425 -0.5157
25493SOL     OW94088   0.629   9.412  13.283 -0.8095  0.3773 -0.3762
25493SOL    HW194089   0.707   9.440  13.234 -0.8958  1.5692  0.1312
25493SOL    HW294090   0.568   9.485  13.274 -2.4182 -1.0510 -1.8383
25494SOL     OW94091   2.883  11.482   5.283 -0.3034  0.6048 -0.3049
25494SOL    HW194092   2.818  11.531   5.333  1.4406  1.3019  1.4172
25494SOL    HW294093   2.905  11.540   5.210 -0.4400  1.1012  0.0364
25495SOL     OW94094   0.008   2.930   3.027  0.5656  0.1302  0.5175
25495SOL    HW194095   0.022   2.847   2.981 -0.7746  0.3239 -0.2843
25495SOL    HW294096   0.090   2.945   3.074  1.3036 -0.9936 -0.3516
25496SOL     OW94097   0.271  13.541   5.306 -0.3346  0.3081  0.0413
25496SOL    HW194098   0.279  13.588   5.389 -1.1551  0.6956 -0.0832
25496SOL    HW294099   0.265  13.449   5.330  0.6162  0.3185  0.3320
25497SOL     OW94100   6.727   0.263   6.772  0.0322 -0.4124 -0.0211
25497SOL    HW194101   6.741   0.312   6.691 -1.0332  1.1661  0.6900
25497SOL    HW294102   6.776   0.181   6.760 -2.0611 -1.3532 -3.2232
25498SOL     OW94103   5.365  13.401   2.162  0.3865 -0.2545  0.2819
25498SOL    HW194104   5.373  13.325   2.219 -0.8118  0.3391  1.2927
25498SOL    HW294105   5.423  13.467   2.201 -0.0943  0.0033  0.5685
25499SOL     OW94106   5.685   4.086   2.510 -0.1194 -0.1728 -0.3795
25499SOL    HW194107   5.703   4.005   2.462 -2.7701 -0.8805 -0.3237
25499SOL    HW294108   5.770   4.114   2.542  1.3657 -1.1676 -3.1420
25500SOL     OW94109   3.150   6.264  11.174 -0.4138  0.3952  0.0303
25500SOL    HW194110   3.158   6.188  11.231 -1.9976 -0.6022 -1.0148
25500SOL    HW294111   3.072   6.247  11.121  1.0172  1.1757 -2.5319
25501SOL     OW94112   8.579  13.094   9.873 -0.4354  0.4660 -0.1675
25501SOL    HW194113   8.621  13.082   9.958 -0.5451  0.7312 -0.0769
25501SOL    HW294114   8.604  13.016   9.823  0.7060  0.9217 -0.3411
25502SOL     OW94115   1.102   2.514   6.576  0.4614  0.3923  0.7266
25502SOL    HW194116   1.098   2.431   6.527 -0.5458  0.1511  1.2086
25502SOL    HW294117   1.121   2.580   6.509 -2.2653  0.2701 -0.2792
25503SOL     OW94118   7.500   3.886  10.357  0.4489 -0.3216  0.3180
25503SOL    HW194119   7.532   3.861  10.444 -1.4650 -0.0800  1.1412
25503SOL    HW294120   7.469   3.805  10.318  0.4492 -0.2861  0.2446
25504SOL     OW94121   0.488   5.109   0.326  0.3610 -1.1505  0.4682
25504SOL    HW194122   0.580   5.100   0.350 -0.1811 -1.7172  2.5812
25504SOL    HW294123   0.442   5.051   0.388 -1.5523  0.4695  0.6562
25505SOL     OW94124   1.475   3.168   5.484 -0.2438  0.2717 -0.4409
25505SOL    HW194125   1.550   3.109   5.483 -1.3419 -1.2272  0.2733
25505SOL    HW294126   1.507   3.248   5.526  0.8943 -0.4285  0.0714
25506SOL     OW94127  12.333   5.603   2.491 -0.0101  0.1204 -0.7830
25506SOL    HW194128  12.310   5.588   2.399  0.7530 -1.6122 -0.7302
25506SOL    HW294129  12.260   5.566   2.540 -0.1785  0.5910 -0.6726
25507SOL     OW94130  10.214  10.548   3.589  0.1801 -0.1655 -0.4312
25507SOL    HW194131  10.195  10.494   3.666 -0.1474 -0.9743 -1.0722
25507SOL    HW294132  10.307  10.533   3.571  0.8600  1.7270  1.0940
25508SOL     OW94133   0.482   4.562   4.564  0.0848 -0.0211 -0.4791
25508SOL    HW194134   0.445   4.488   4.613  1.2822 -0.6956 -0.5583
25508SOL    HW294135   0.416   4.581   4.496 -0.0575 -1.2952 -0.7241
25509SOL     OW94136   6.013   3.499   3.168  0.2862 -0.4365 -0.3340
25509SOL    HW194137   5.945   3.499   3.100  0.1175 -1.1001 -0.1676
25509SOL    HW294138   5.971   3.459   3.244  0.5741  0.0169  0.0676
25510SOL     OW94139   5.319  11.241  13.254  0.4787  0.0669 -0.5864
25510SOL    HW194140   5.279  11.179  13.192 -0.0773  0.5098 -0.6834
25510SOL    HW294141   5.349  11.186  13.327 -0.6662 -0.2550 -0.3320
25511SOL     OW94142   5.895   7.137   1.406  0.0152  0.4805  0.2652
25511SOL    HW194143   5.927   7.078   1.474  0.9212  0.0681 -0.5108
25511SOL    HW294144   5.967   7.199   1.392 -0.5020  1.0996  0.2835
25512SOL     OW94145   3.682   4.871   5.979 -0.2150 -0.1843 -0.2375
25512SOL    HW194146   3.685   4.799   5.915  0.3300 -0.4126  0.0307
25512SOL    HW294147   3.767   4.866   6.024 -0.5737 -0.0033  0.4779
25513SOL     OW94148   1.071   4.732   1.746 -0.4531  0.0849 -0.3423
25513SOL    HW194149   1.089   4.699   1.834  0.0310  0.3730 -0.3303
25513SOL    HW294150   1.122   4.675   1.688 -1.1624 -0.4190 -0.4811
25514SOL     OW94151   3.721   0.371   6.229  0.4837  0.3193  0.3101
25514SOL    HW194152   3.626   0.376   6.231  0.4823  0.5342 -0.3280
25514SOL    HW294153   3.749   0.419   6.308  0.0308 -0.9945  1.3047
25515SOL     OW94154   8.135   8.157   2.880 -0.0571 -0.1012 -0.2116
25515SOL    HW194155   8.040   8.173   2.878 -0.1660 -0.7816 -0.8713
25515SOL    HW294156   8.146   8.086   2.943 -0.2040 -1.2745 -1.4521
25516SOL     OW94157   8.893   8.284   5.097  0.9608 -0.3758 -0.2214
25516SOL    HW194158   8.862   8.222   5.031 -2.1519  2.4248 -1.6532
25516SOL    HW294159   8.976   8.317   5.062  0.8968 -1.1372 -1.1378
25517SOL     OW94160  12.950   9.040  10.426  0.2929  0.1464 -0.0917
25517SOL    HW194161  12.871   8.987  10.411  0.3638  0.4356 -1.5939
25517SOL    HW294162  12.926   9.098  10.498 -0.0276 -1.4226  1.1201
25518SOL     OW94163   2.838   6.231  12.758  0.6091 -0.4778 -0.0770
25518SOL    HW194164   2.750   6.225  12.797  0.5910 -1.1957 -0.2248
25518SOL    HW294165   2.891   6.274  12.825  0.1007  0.1549 -0.0648
25519SOL     OW94166   6.501   7.618   2.845  0.0224 -0.1912 -0.5978
25519SOL    HW194167   6.541   7.570   2.773  0.3950  1.4221 -1.5342
25519SOL    HW294168   6.428   7.665   2.804 -1.6621 -1.5582  0.6907
25520SOL     OW94169   3.570   8.961  12.331 -0.4053  0.2520 -0.1462
25520SOL    HW194170   3.493   8.982  12.278  0.8621 -0.0377 -2.2504
25520SOL    HW294171   3.615   9.045  12.341 -0.5669  0.2794  0.3479
25521SOL     OW94172   1.818   8.877   6.434 -0.5637 -0.4129 -0.2216
25521SOL    HW194173   1.753   8.885   6.503  0.3733  0.2551  0.6163
25521SOL    HW294174   1.893   8.836   6.476 -0.1681 -0.4744 -0.9739
25522SOL     OW94175   7.292   3.253   7.008 -0.2455 -0.6674  0.8316
25522SOL    HW194176   7.296   3.262   7.103  0.7335  0.9425  0.6914
25522SOL    HW294177   7.240   3.329   6.979  1.8336  0.5096 -0.0522
25523SOL     OW94178   7.043   0.572  12.666 -0.1645  0.3250 -0.5086
25523SOL    HW194179   7.078   0.496  12.620 -0.0029 -0.5510  0.9929
25523SOL    HW294180   7.007   0.627  12.597  0.7865 -0.5427 -1.7406
25524SOL     OW94181   9.236   4.200   0.449 -0.6200  0.4500 -0.4533
25524SOL    HW194182   9.234   4.143   0.525 -0.9961  0.2975 -0.5737
25524SOL    HW294183   9.324   4.190   0.413  0.0269  1.5486  0.7348
25525SOL     OW94184  11.882  12.654   3.950  0.2158 -0.0360 -0.2241
25525SOL    HW194185  11.963  12.606   3.932  0.3282  0.6066 -1.5627
25525SOL    HW294186  11.886  12.674   4.043  0.3243 -2.2914  0.3117
25526SOL     OW94187   5.553   8.072  12.984  0.2433 -0.2766  0.5198
25526SOL    HW194188   5.591   8.032  13.063 -0.4021 -1.1632  0.4013
25526SOL    HW294189   5.463   8.041  12.982 -0.1377  0.8233  0.1399
25527SOL     OW94190  13.585   1.714   6.483 -0.1155  0.2959  0.0971
25527SOL    HW194191  13.560   1.726   6.574  1.4442  0.6597  0.4902
25527SOL    HW294192  13.525   1.646   6.451  2.1246 -3.2823  2.6619
25528SOL     OW94193  10.264  11.254   9.473 -0.2623 -0.2957 -0.0911
25528SOL    HW194194  10.170  11.265   9.490 -0.2630 -1.8695  1.2566
25528SOL    HW294195  10.303  11.248   9.560  0.7450 -1.9812 -0.6017
25529SOL     OW94196   2.635  10.789   7.057 -0.3301  0.1663  0.1382
25529SOL    HW194197   2.695  10.855   7.090 -1.0156  1.1633 -0.5420
25529SOL    HW294198   2.552  10.836   7.047 -0.4164 -0.3563 -1.9446
25530SOL     OW94199   2.567   3.348   3.522  0.0293  0.1589  0.3263
25530SOL    HW194200   2.583   3.433   3.480  1.3995  0.0387  0.5722
25530SOL    HW294201   2.654   3.317   3.548 -0.4935 -1.1499  0.5861
25531SOL     OW94202   9.959   9.667   0.720  0.1472 -0.5999  0.2584
25531SOL    HW194203   9.943   9.600   0.787 -1.4504  1.1166  1.6981
25531SOL    HW294204   9.969   9.749   0.769 -0.2732  0.6050 -1.5638
25532SOL     OW94205   3.911   2.517   0.160  0.1873 -0.6549 -0.5173
25532SOL    HW194206   3.839   2.495   0.101  0.9579  0.4839 -1.9309
25532SOL    HW294207   3.980   2.551   0.103  2.2631 -2.6163  0.6780
25533SOL     OW94208   1.259   0.721  10.369 -0.1506  0.2117 -0.3860
25533SOL    HW194209   1.211   0.657  10.315 -0.4923 -0.4215  0.6348
25533SOL    HW294210   1.326   0.668  10.413  0.7832  0.9007 -0.9530
25534SOL     OW94211   6.575   6.851   3.180 -0.1969  0.7970  0.3481
25534SOL    HW194212   6.524   6.802   3.244 -1.2087 -0.6920 -1.4886
25534SOL    HW294213   6.613   6.784   3.123  1.5308  2.0112 -0.0143
25535SOL     OW94214   7.437   3.242  10.224 -0.4720  0.1718 -0.1916
25535SOL    HW194215   7.352   3.246  10.180 -0.1787  0.3624 -0.7537
25535SOL    HW294216   7.430   3.305  10.296 -0.8175  0.1645 -0.2166
25536SOL     OW94217   9.947   6.349   3.743 -0.1186  0.1053 -0.3432
25536SOL    HW194218   9.995   6.405   3.683 -0.3974  0.3685 -0.3175
25536SOL    HW294219  10.014   6.318   3.805 -0.2387  1.7370  0.6586
25537SOL     OW94220   7.467  12.159   8.624  0.4140 -0.4214  0.2388
25537SOL    HW194221   7.561  12.167   8.608  0.4714  1.2516  1.1651
25537SOL    HW294222   7.429  12.145   8.537  1.5059 -1.1232 -0.1455
25538SOL     OW94223   0.482   8.454  11.869 -0.1925 -0.1109  0.3007
25538SOL    HW194224   0.522   8.418  11.790  0.5043  0.9684  0.1474
25538SOL    HW294225   0.538   8.424  11.941 -0.9753 -1.3146  0.4347
25539SOL     OW94226   2.231   1.979  12.943  0.8297  0.3224  0.3585
25539SOL    HW194227   2.297   2.027  12.892  0.3552 -1.5319 -2.2003
25539SOL    HW294228   2.276   1.899  12.971  0.3364  0.1435  0.6453
25540SOL     OW94229  13.580   8.676   2.019  0.1773 -0.0537 -0.2145
25540SOL    HW194230  13.526   8.737   2.068  0.6680 -0.8499  1.3779
25540SOL    HW294231  13.664   8.722   2.009  0.9085 -0.7800  1.9109
25541SOL     OW94232  13.347   9.188   3.469 -0.1232  0.6905  0.4710
25541SOL    HW194233  13.365   9.099   3.437  0.1643  1.2388 -0.9806
25541SOL    HW294234  13.284   9.224   3.405 -1.1575  1.1370  1.7022
25542SOL     OW94235   3.322   2.927  11.765  0.1051  0.1060 -0.0308
25542SOL    HW194236   3.299   3.019  11.774  1.0075  0.4558 -1.0917
25542SOL    HW294237   3.353   2.900  11.851 -0.7117  0.6256  0.4355
25543SOL     OW94238   3.646  14.080   6.821 -0.2647 -0.5653 -0.2268
25543SOL    HW194239   3.589  14.042   6.755 -0.4865 -0.0586 -0.3374
25543SOL    HW294240   3.592  14.083   6.901  0.0274 -1.2457  0.0023
25544SOL     OW94241   4.640   0.349   2.205 -0.1400  0.1345 -0.1760
25544SOL    HW194242   4.639   0.271   2.150  0.6751 -1.0683  1.4208
25544SOL    HW294243   4.710   0.403   2.170  0.7852 -0.9012  0.0284
25545SOL     OW94244  12.692  13.405   4.645  0.0549  0.3669 -0.2117
25545SOL    HW194245  12.634  13.480   4.631  0.6767  0.7051 -1.0780
25545SOL    HW294246  12.677  13.349   4.569 -0.1020 -0.1933  0.2238
25546SOL     OW94247  12.053   4.695  13.638  0.0360  0.2443 -0.1154
25546SOL    HW194248  12.088   4.701  13.726  0.9316  1.9353 -0.5347
25546SOL    HW294249  11.959   4.682  13.650 -0.0293  1.5661  1.1300
25547SOL     OW94250   8.813  11.311   7.118  0.1202 -0.0492  0.4553
25547SOL    HW194251   8.783  11.360   7.041 -0.0658 -0.6839  0.1148
25547SOL    HW294252   8.751  11.238   7.125 -0.9542  0.9288  2.2437
25548SOL     OW94253   5.982   5.039  13.179 -0.6267 -0.1594  0.1482
25548SOL    HW194254   5.894   5.069  13.156 -0.3209  0.5278 -0.1423
25548SOL    HW294255   6.026   5.026  13.095 -0.1124  0.5401  0.2926
25549SOL     OW94256   4.144  13.801  13.121 -0.2588  0.0907 -0.0418
25549SOL    HW194257   4.135  13.706  13.113 -0.9804  0.0135  1.4092
25549SOL    HW294258   4.231  13.819  13.085  0.1899 -1.2036  0.3220
25550SOL     OW94259  13.765   1.610   9.925  0.4739  0.1085 -0.7175
25550SOL    HW194260  13.718   1.688   9.897  0.6869  0.0460 -1.2714
25550SOL    HW294261  13.784   1.625  10.018 -1.3959 -0.2590 -0.2394
25551SOL     OW94262   0.633  10.944   2.225 -0.5375 -0.0855 -0.2666
25551SOL    HW194263   0.681  10.970   2.304 -3.5106  0.3902  1.5323
25551SOL    HW294264   0.595  10.858   2.247 -1.9945  0.3728 -0.8670
25552SOL     OW94265  13.892  11.598   1.129  0.5152 -0.4107  0.2602
25552SOL    HW194266  13.860  11.593   1.219  1.9157  0.1430  0.8241
25552SOL    HW294267  13.815  11.619   1.077 -0.1952 -0.0252  1.4355
25553SOL     OW94268   3.589   8.014  13.925  0.0997 -0.0231 -0.4501
25553SOL    HW194269   3.517   7.965  13.965  1.0579 -1.3993 -0.3325
25553SOL    HW294270   3.625   7.953  13.861 -0.2791  1.4972 -2.1747
25554SOL     OW94271  10.801  13.943  11.711 -0.9966 -0.2777  0.0025
25554SOL    HW194272  10.849  13.909  11.636  0.2435  0.9989  0.1845
25554SOL    HW294273  10.827  13.887  11.784  1.9718  1.5971  0.5593
25555SOL     OW94274   7.206   2.834   6.037  0.5155 -0.5870 -0.1829
25555SOL    HW194275   7.142   2.868   5.973 -1.8588 -1.4463  1.5761
25555SOL    HW294276   7.206   2.739   6.021  0.6321 -0.6932  0.4469
25556SOL     OW94277  13.673   9.780   3.713 -0.1491 -0.1512  0.1893
25556SOL    HW194278  13.581   9.761   3.696 -0.2099 -1.4681  1.7880
25556SOL    HW294279  13.698   9.719   3.783  2.1004 -0.2167 -0.5998
25557SOL     OW94280   9.092   3.203   8.121  0.0387 -0.2361 -0.1169
25557SOL    HW194281   9.172   3.188   8.172 -0.8516 -0.9773  1.0966
25557SOL    HW294282   9.021   3.169   8.176 -1.1262  0.4282 -1.1620
25558SOL     OW94283   5.198   0.662   8.934 -0.3169  0.1474 -0.0541
25558SOL    HW194284   5.200   0.695   8.844 -1.1693 -1.1547 -0.5818
25558SOL    HW294285   5.175   0.570   8.925  0.2768 -0.1792  1.4685
25559SOL     OW94286   8.744   8.215   2.826  0.6565 -0.2462  0.5323
25559SOL    HW194287   8.679   8.192   2.760  0.6855 -0.3525  0.5406
25559SOL    HW294288   8.827   8.182   2.791  0.4122 -2.0112  1.4854
25560SOL     OW94289   3.115   7.811  11.087  0.0516 -0.6412 -0.0386
25560SOL    HW194290   3.185   7.749  11.066  0.7473 -0.0852  0.5841
25560SOL    HW294291   3.106   7.805  11.182  0.7840  0.8711  0.1554
25561SOL     OW94292   3.301   7.006   1.493  0.2702 -0.4637  0.3504
25561SOL    HW194293   3.209   6.996   1.516  0.6108  0.5139  2.3509
25561SOL    HW294294   3.324   6.924   1.448 -1.3171 -1.1173  0.6711
25562SOL     OW94295   4.682   9.090   1.462  0.2304  0.3161 -0.0339
25562SOL    HW194296   4.739   9.140   1.404  0.6915 -0.7792 -0.5452
25562SOL    HW294297   4.593   9.116   1.436  0.4216 -0.2561 -1.3481
25563SOL     OW94298   5.675   5.436   1.309 -0.0080 -0.2540 -0.2090
25563SOL    HW194299   5.660   5.529   1.294  1.6094  0.0759  0.0058
25563SOL    HW294300   5.751   5.414   1.255 -0.7009 -1.5984 -0.6913
25564SOL     OW94301   3.995   5.189   9.513  0.9494  0.9653 -0.3645
25564SOL    HW194302   3.984   5.095   9.529  1.2985  1.1308  1.0643
25564SOL    HW294303   4.034   5.195   9.426  1.0585 -0.2166 -0.4110
25565SOL     OW94304   5.294   5.125   1.064  0.0194 -0.0533 -0.2601
25565SOL    HW194305   5.376   5.115   1.111 -1.2265  0.6559  2.2226
25565SOL    HW294306   5.260   5.210   1.091 -0.3795  0.8474 -3.2364
25566SOL     OW94307   4.339   3.391   5.721 -0.0421  0.1146  0.0325
25566SOL    HW194308   4.265   3.445   5.694  0.3265  0.4270 -0.3636
25566SOL    HW294309   4.414   3.450   5.719 -0.2297  0.6449  3.4480
25567SOL     OW94310   5.015   2.620   0.185 -0.2796 -0.5477  0.4311
25567SOL    HW194311   5.042   2.651   0.099  0.9860 -2.0138  0.2644
25567SOL    HW294312   5.096   2.602   0.232 -0.9453 -1.1851  1.3957
25568SOL     OW94313   5.724   1.802   4.864  0.5457  0.1654 -0.6639
25568SOL    HW194314   5.751   1.798   4.956  0.5236 -0.8369 -0.6877
25568SOL    HW294315   5.716   1.895   4.845  1.8155  0.4266 -0.0169
25569SOL     OW94316  11.725   7.169  10.593  0.3324  0.1965  0.2199
25569SOL    HW194317  11.680   7.247  10.625 -0.8765 -0.4064  0.0635
25569SOL    HW294318  11.783   7.201  10.524 -0.3854  0.9374 -0.0583
25570SOL     OW94319   5.250   1.942  12.447  0.6997 -0.5206  0.0102
25570SOL    HW194320   5.204   1.899  12.376 -0.4641  1.4898 -0.5292
25570SOL    HW294321   5.220   1.897  12.526  0.1669 -1.2179 -0.5771
25571SOL     OW94322  13.484   1.939  12.099 -0.6548  0.0920  0.1552
25571SOL    HW194323  13.461   1.856  12.141  1.2850 -1.6638 -1.9644
25571SOL    HW294324  13.422   1.946  12.026 -1.5535  1.1488  0.9915
25572SOL     OW94325  11.356  12.306  10.528  0.1451 -0.0245 -0.7292
25572SOL    HW194326  11.274  12.280  10.570  0.3383  1.5019  0.7103
25572SOL    HW294327  11.329  12.338  10.442 -0.6376 -0.4445 -0.6543
25573SOL     OW94328   5.688   2.722   2.675 -0.3674  0.0990 -0.3647
25573SOL    HW194329   5.781   2.709   2.654 -0.1457  0.5300  0.3112
25573SOL    HW294330   5.641   2.684   2.601  0.3689  2.4726 -2.1521
25574SOL     OW94331   9.913   1.593   4.023  0.0323  0.1475  0.2146
25574SOL    HW194332   9.944   1.682   4.041  1.5357  0.3059 -2.6149
25574SOL    HW294333   9.835   1.606   3.969  0.0188 -0.2603  0.1330
25575SOL     OW94334   6.671   0.471  12.014  0.1991  0.8556  0.2078
25575SOL    HW194335   6.622   0.488  11.933  1.7989 -3.8745 -2.1506
25575SOL    HW294336   6.762   0.490  11.991  0.7707 -1.2389  0.5298
25576SOL     OW94337  11.053  13.863   7.580  0.0114  0.4422 -0.0601
25576SOL    HW194338  11.033  13.891   7.669 -2.5540  2.1921 -1.0721
25576SOL    HW294339  11.085  13.942   7.536  1.7660 -0.5220 -0.6156
25577SOL     OW94340   1.786   3.875   4.832 -0.2943  0.0527  0.0893
25577SOL    HW194341   1.753   3.786   4.829  0.0119 -0.1054  1.1882
25577SOL    HW294342   1.855   3.877   4.766  0.2706 -0.7704  0.6373
25578SOL     OW94343   3.941   3.858  11.315  0.5798 -0.2126 -0.3305
25578SOL    HW194344   3.944   3.865  11.219  1.4506  1.0576 -0.2289
25578SOL    HW294345   3.863   3.806  11.332  0.5691 -0.7069 -1.7451
25579SOL     OW94346   0.597  12.164   7.082  0.1409  0.1352 -0.0433
25579SOL    HW194347   0.649  12.186   7.005  1.0677 -0.8856  0.2647
25579SOL    HW294348   0.661  12.154   7.152 -0.6715  0.8383  0.8225
25580SOL     OW94349   0.949   8.532   8.296 -0.2884  0.1182 -0.5750
25580SOL    HW194350   0.926   8.539   8.203  0.0589  0.7086 -0.6225
25580SOL    HW294351   0.971   8.621   8.322  1.3533 -0.3024 -0.3909
25581SOL     OW94352   4.349   2.633   5.383 -0.0422 -0.3193 -0.6707
25581SOL    HW194353   4.304   2.569   5.437 -0.8478  1.0119  0.2904
25581SOL    HW294354   4.289   2.652   5.311 -0.1240 -0.1015 -0.5467
25582SOL     OW94355  11.825   7.180   1.559  0.4117  0.9123  0.0028
25582SOL    HW194356  11.896   7.217   1.505  1.0183  0.5707  0.5486
25582SOL    HW294357  11.814   7.091   1.527  0.6100  0.7857  0.2864
25583SOL     OW94358   8.175   3.059   5.099 -0.4364 -0.4143 -0.1419
25583SOL    HW194359   8.093   3.106   5.081 -0.3594 -0.4297 -0.5463
25583SOL    HW294360   8.234   3.087   5.029 -0.9227 -2.4026 -1.4233
25584SOL     OW94361   8.776  12.562   5.682  0.4322 -0.4304 -0.1092
25584SOL    HW194362   8.863  12.549   5.719 -0.6752 -0.2275  2.8675
25584SOL    HW294363   8.719  12.573   5.758 -1.9637  1.0346 -1.9535
25585SOL     OW94364  13.644  12.477  11.957 -0.5495  0.5677  0.2215
25585SOL    HW194365  13.564  12.526  11.938 -0.3922  1.0354  0.7210
25585SOL    HW294366  13.633  12.448  12.047 -1.2380 -1.5099 -0.4836
25586SOL     OW94367   1.424  11.759   1.372  0.1771  0.2080  0.3851
25586SOL    HW194368   1.461  11.740   1.285 -0.5855 -0.1336  0.1255
25586SOL    HW294369   1.452  11.685   1.426 -2.8822 -1.9234 -0.6556
25587SOL     OW94370  13.729   8.854   3.238  0.6125 -0.1154  0.5628
25587SOL    HW194371  13.731   8.936   3.188  0.2408 -0.0077  0.7204
25587SOL    HW294372  13.780   8.793   3.186 -1.8625 -0.7603 -1.2951
25588SOL     OW94373  12.556  12.580  12.056  0.5404  0.2066 -0.2410
25588SOL    HW194374  12.511  12.544  11.979  0.5544  1.3857 -0.8233
25588SOL    HW294375  12.488  12.587  12.122  0.7062 -1.6152  0.1559
25589SOL     OW94376   1.904  11.024   5.903  0.0934 -0.1886 -0.2020
25589SOL    HW194377   1.813  11.036   5.878  0.0744 -0.1065 -0.0961
25589SOL    HW294378   1.950  11.100   5.867  0.5120 -1.2961 -2.1319
25590SOL     OW94379   7.033  11.299   3.528 -0.6795 -0.4110  0.3250
25590SOL    HW194380   7.113  11.351   3.525 -0.6864 -0.4478 -1.8791
25590SOL    HW294381   6.968  11.357   3.567 -0.2962  0.6914 -0.6397
25591SOL     OW94382   1.430   7.874  13.377 -0.3552  0.0263  0.1434
25591SOL    HW194383   1.499   7.841  13.320  0.2422 -0.2617  1.0112
25591SOL    HW294384   1.387   7.942  13.326  0.6286  0.2711 -0.3848
25592SOL     OW94385  10.265   3.841  12.374  0.4122  0.0653  0.3777
25592SOL    HW194386  10.208   3.860  12.300 -1.3872 -0.6072  1.5321
25592SOL    HW294387  10.341   3.796  12.336 -0.6835 -0.6528 -1.0154
25593SOL     OW94388   0.319  11.972  11.497  0.6375 -0.5966 -0.6622
25593SOL    HW194389   0.231  11.946  11.526  1.3047 -1.4580  0.7156
25593SOL    HW294390   0.378  11.933  11.562  1.8884  2.7158  0.4175
25594SOL     OW94391   4.775  13.558   0.247 -0.3014 -0.6573 -0.0240
25594SOL    HW194392   4.736  13.567   0.334  2.0024 -1.5938  1.1997
25594SOL    HW294393   4.707  13.516   0.195 -2.0653  0.7461  1.0431
25595SOL     OW94394  11.917  10.195   8.542 -0.1523  0.1761 -0.2495
25595SOL    HW194395  11.997  10.164   8.499  1.9849  3.2984  1.0962
25595SOL    HW294396  11.874  10.250   8.477  0.6382  1.1964  0.0647
25596SOL     OW94397   9.596   9.699   1.638 -0.4374 -0.2645 -0.1611
25596SOL    HW194398   9.651   9.623   1.618  2.0227  0.7741  2.0192
25596SOL    HW294399   9.562   9.682   1.726 -2.7000 -0.2841 -0.9654
25597SOL     OW94400   9.834   3.952  12.355 -0.1681 -0.0322 -0.0159
25597SOL    HW194401   9.874   3.880  12.305  2.3200 -0.3374  2.1829
25597SOL    HW294402   9.752   3.916  12.387 -1.7912  0.1025 -3.5048
25598SOL     OW94403   4.117   6.835   0.233 -0.0776 -0.1112  0.5513
25598SOL    HW194404   4.133   6.850   0.326 -1.8629  0.6431  0.7790
25598SOL    HW294405   4.139   6.918   0.191  0.9110 -0.5116  0.2590
25599SOL     OW94406   2.102   5.544   6.538 -0.0487 -0.2840 -0.0187
25599SOL    HW194407   2.170   5.592   6.585  0.6407 -1.6436  0.4196
25599SOL    HW294408   2.031   5.534   6.601  1.1689 -2.7587  1.0797
25600SOL     OW94409   7.702   4.251  13.133 -0.1211  0.1324 -0.1769
25600SOL    HW194410   7.648   4.202  13.071 -0.5598  2.1213 -1.4325
25600SOL    HW294411   7.646   4.262  13.210 -0.4949 -0.1724 -0.3989
25601SOL     OW94412   3.715  12.082  13.262  0.0972  0.0432  0.4749
25601SOL    HW194413   3.735  12.000  13.215 -1.4258 -0.2391  0.2831
25601SOL    HW294414   3.793  12.098  13.315  0.8828 -0.9273 -0.3395
25602SOL     OW94415   2.279   2.741   5.341  0.5540 -0.1427 -0.3895
25602SOL    HW194416   2.248   2.829   5.360  3.6451  0.8594  0.4754
25602SOL    HW294417   2.245   2.723   5.253 -1.6340  1.1160  0.1162
25603SOL     OW94418   2.774   2.286   3.662  0.0239  0.5029  0.1599
25603SOL    HW194419   2.815   2.306   3.579  0.0140  2.2699  0.5464
25603SOL    HW294420   2.841   2.304   3.728 -0.9420  2.2614  0.7163
25604SOL     OW94421   2.126  11.776   9.578 -0.3857 -0.0342 -0.3959
25604SOL    HW194422   2.211  11.763   9.534 -0.2771  1.2105 -0.5944
25604SOL    HW294423   2.072  11.702   9.547  0.7468 -1.1056  0.0971
25605SOL     OW94424   5.124   0.516   1.814  0.3367  0.4682  0.0727
25605SOL    HW194425   5.107   0.606   1.787  1.6995  0.1536 -2.0645
25605SOL    HW294426   5.039   0.472   1.806 -0.1820  1.3841  0.4161
25606SOL     OW94427   0.088   6.646   6.723  0.1943 -0.4811  0.6678
25606SOL    HW194428   0.073   6.738   6.700  1.5791 -0.2408  0.6733
25606SOL    HW294429   0.050   6.637   6.811  1.4557  0.5124  1.3430
25607SOL     OW94430   1.448   6.585   6.557 -0.5087  0.2081  0.5012
25607SOL    HW194431   1.381   6.552   6.497 -0.8985  2.6115 -0.4892
25607SOL    HW294432   1.403   6.595   6.641 -0.4861 -1.2563  0.7125
25608SOL     OW94433   9.739   0.225   1.878 -0.3119 -0.1577  0.5438
25608SOL    HW194434   9.788   0.145   1.895 -1.1307 -0.9430 -0.6844
25608SOL    HW294435   9.672   0.226   1.947  0.8712  0.5166  1.7455
25609SOL     OW94436  11.258   7.505   0.429  0.1637 -0.3026  0.4460
25609SOL    HW194437  11.284   7.413   0.419  0.3115 -0.1828 -0.3152
25609SOL    HW294438  11.340   7.554   0.419 -0.1863  0.0251 -1.0976
25610SOL     OW94439  10.956   8.492   4.064 -0.5676 -0.8437  1.0187
25610SOL    HW194440  11.036   8.470   4.110 -0.5165  1.5134  2.2115
25610SOL    HW294441  10.985   8.525   3.979 -0.1548  0.7469  1.7405
25611SOL     OW94442   3.660  13.242   3.521  0.2357 -0.3652 -0.6015
25611SOL    HW194443   3.656  13.170   3.459 -1.4350 -0.8869  0.0640
25611SOL    HW294444   3.571  13.249   3.556  0.5202  1.5557 -0.1206
25612SOL     OW94445  12.346  11.135   1.111 -0.0296  0.2698  0.6525
25612SOL    HW194446  12.267  11.101   1.069  1.3148  0.4432 -2.2343
25612SOL    HW294447  12.342  11.100   1.200 -2.8130 -0.5660  0.3081
25613SOL     OW94448  12.227   7.726   2.344  0.0426 -0.0678 -0.4254
25613SOL    HW194449  12.261   7.639   2.323  1.1674  0.5927 -1.5136
25613SOL    HW294450  12.177   7.714   2.425  0.2623 -1.6907 -0.5006
25614SOL     OW94451  13.720  10.462   6.310 -0.4128  0.0975  0.3573
25614SOL    HW194452  13.657  10.528   6.340  0.2884  1.3528 -0.8147
25614SOL    HW294453  13.667  10.382   6.299 -1.3661  0.5509  1.3989
25615SOL     OW94454  13.678   9.099   1.546 -0.4922 -0.1094 -0.7099
25615SOL    HW194455  13.740   9.031   1.568 -1.2950 -0.1209  1.7269
25615SOL    HW294456  13.732   9.177   1.533  0.0897 -0.0711  1.5425
25616SOL     OW94457  11.638   0.903   2.583  0.0581 -0.1033  0.0618
25616SOL    HW194458  11.653   0.837   2.651 -1.2013 -0.8499 -0.3453
25616SOL    HW294459  11.546   0.893   2.560 -0.6597  2.9899  1.1705
25617SOL     OW94460   7.637   5.747   6.991 -0.2943  0.1146 -0.0162
25617SOL    HW194461   7.577   5.691   7.040 -0.1976 -0.6750 -0.7752
25617SOL    HW294462   7.690   5.686   6.939  2.8067  0.5595  2.3246
25618SOL     OW94463   1.682  10.863   7.491 -0.2535 -0.2616 -0.2218
25618SOL    HW194464   1.689  10.803   7.566  0.1343  1.7664  1.4389
25618SOL    HW294465   1.770  10.864   7.453  0.2525  0.6439  0.9111
25619SOL     OW94466   4.493   6.170   4.594 -0.6903  0.1749 -0.4233
25619SOL    HW194467   4.464   6.170   4.503 -2.5510 -0.5681  0.1251
25619SOL    HW294468   4.413   6.164   4.645  0.3669 -0.7006  1.2419
25620SOL     OW94469   1.550  10.874   3.743  0.1222  0.2512  0.2347
25620SOL    HW194470   1.490  10.868   3.670  0.3665  1.0293 -0.0400
25620SOL    HW294471   1.539  10.791   3.790 -1.6085  0.6218  0.5499
25621SOL     OW94472   3.616  11.679  11.734  0.1197  0.1158 -0.2573
25621SOL    HW194473   3.673  11.627  11.792  0.4533  0.8764  0.1170
25621SOL    HW294474   3.559  11.726  11.794  0.9790  1.5004 -0.4879
25622SOL     OW94475   7.144   3.770  11.785  0.1986  0.1813 -0.0288
25622SOL    HW194476   7.202   3.832  11.740 -0.1787 -1.0585 -2.3929
25622SOL    HW294477   7.059   3.813  11.785  0.3286  0.4427  0.0558
25623SOL     OW94478   6.472   8.785   4.626 -0.3687  0.2442 -0.1581
25623SOL    HW194479   6.516   8.728   4.690  0.3645  0.6685 -0.2760
25623SOL    HW294480   6.511   8.761   4.542  0.1271  1.0881 -0.1772
25624SOL     OW94481   5.808  12.597  13.687  0.2675 -0.3281 -0.2370
25624SOL    HW194482   5.763  12.513  13.701  0.1146 -0.0034  1.3545
25624SOL    HW294483   5.744  12.663  13.713  0.8913  0.2288 -0.0983
25625SOL     OW94484   8.590  10.698  12.794  0.1415  0.3410  0.0766
25625SOL    HW194485   8.601  10.747  12.875  0.2162 -1.4158  1.1733
25625SOL    HW294486   8.664  10.638  12.791 -1.6248 -1.9753  0.4827
25626SOL     OW94487   9.676  12.565   8.072 -0.2465  0.4388 -0.6283
25626SOL    HW194488   9.605  12.500   8.074 -0.6555  0.8653 -0.9707
25626SOL    HW294489   9.746  12.525   8.123 -0.0049 -0.8239 -1.8764
25627SOL     OW94490  12.903  14.005   3.535 -0.2140  0.7880 -0.9300
25627SOL    HW194491  12.862  13.921   3.517 -2.1577  1.2125  0.9764
25627SOL    HW294492  12.982  13.984   3.585 -0.4201  0.0914 -0.8937
25628SOL     OW94493   8.516  11.013   2.459 -0.6543 -0.1547 -0.4735
25628SOL    HW194494   8.534  11.071   2.385 -3.2570  1.0424 -0.2733
25628SOL    HW294495   8.424  10.989   2.449 -0.7740 -0.8662  1.7777
25629SOL     OW94496   4.626   2.148   0.223  0.2463  0.1371 -0.0349
25629SOL    HW194497   4.617   2.243   0.232  0.1634  0.0729  0.5493
25629SOL    HW294498   4.613   2.114   0.311  0.5521 -0.3977 -0.1933
25630SOL     OW94499   0.902  11.254   5.971  0.0968  0.3461 -0.2447
25630SOL    HW194500   0.947  11.306   6.038 -1.1114  1.1975 -0.0721
25630SOL    HW294501   0.868  11.318   5.909  1.0950 -0.4274 -1.6420
25631SOL     OW94502  12.553   7.847   6.180 -0.1841 -0.4452  0.1663
25631SOL    HW194503  12.633   7.866   6.228  0.3282  1.6098 -1.3516
25631SOL    HW294504  12.539   7.753   6.192  2.0703 -0.7339  1.0098
25632SOL     OW94505   0.008   9.905   2.128 -0.0980  0.1716  0.1720
25632SOL    HW194506   0.025   9.815   2.157  2.1001 -1.2135 -4.4534
25632SOL    HW294507  -0.075   9.900   2.081  0.2986  0.3806 -0.5652
25633SOL     OW94508   9.944   9.643   4.452 -0.3748 -0.3291 -0.2494
25633SOL    HW194509   9.908   9.681   4.371  0.3154 -0.1820 -0.4966
25633SOL    HW294510   9.880   9.666   4.519  0.1165  1.5119 -0.3463
25634SOL     OW94511   3.140   4.115   4.922 -0.0729 -0.6201  0.3205
25634SOL    HW194512   3.193   4.055   4.869 -0.0928  0.4749 -0.9926
25634SOL    HW294513   3.056   4.119   4.877 -0.5319 -0.6292  1.1553
25635SOL     OW94514   7.901   6.109   3.944 -0.2678  0.1678  0.6209
25635SOL    HW194515   7.855   6.052   4.005 -0.5281 -0.4035 -0.0977
25635SOL    HW294516   7.941   6.050   3.881  0.8755  0.6943  0.8181
25636SOL     OW94517  11.322   5.204   3.778  0.0934 -0.1727  0.0937
25636SOL    HW194518  11.287   5.280   3.826 -0.9158 -0.1449 -0.6503
25636SOL    HW294519  11.312   5.131   3.839 -0.9163 -0.0869  0.0535
25637SOL     OW94520   4.261   2.897   1.507  0.5014  0.7485 -0.0520
25637SOL    HW194521   4.290   2.987   1.523  1.1374  0.2316  2.1758
25637SOL    HW294522   4.223   2.870   1.591  0.2296 -1.0204 -0.7140
25638SOL     OW94523  13.611   1.229  10.137  0.0891 -0.0407  0.6745
25638SOL    HW194524  13.551   1.301  10.155  0.1843  0.2427 -0.0997
25638SOL    HW294525  13.658   1.256  10.058 -0.5064 -1.3402 -0.1645
25639SOL     OW94526   5.658   8.690   4.625  0.6954  0.2261  0.1909
25639SOL    HW194527   5.698   8.691   4.538 -1.3028  0.1323 -0.8019
25639SOL    HW294528   5.649   8.783   4.647 -1.5590  0.4044 -1.1464
25640SOL     OW94529   4.350  13.201   4.405 -0.3509  0.0751  0.2067
25640SOL    HW194530   4.327  13.146   4.330  0.7433  0.2393 -0.2652
25640SOL    HW294531   4.339  13.291   4.373 -1.2000  0.1481  0.6769
25641SOL     OW94532   6.104   1.571   0.715 -0.4764  0.0946  0.2876
25641SOL    HW194533   6.052   1.579   0.794  0.7031  1.3484  0.9702
25641SOL    HW294534   6.193   1.596   0.741  0.2560 -0.9183 -1.0865
25642SOL     OW94535   8.257  11.603   9.987  0.6728 -0.1252 -0.5270
25642SOL    HW194536   8.222  11.686   9.957 -1.2578 -0.2692  1.1402
25642SOL    HW294537   8.307  11.625  10.066 -0.6117 -0.5943  0.4582
25643SOL     OW94538  12.008   4.262   0.176 -0.4045  0.7202 -0.4086
25643SOL    HW194539  11.978   4.206   0.247 -1.8205  0.7444 -0.9479
25643SOL    HW294540  12.078   4.213   0.133 -1.2477 -0.4023 -0.5284
25644SOL     OW94541  10.457   2.977   0.396  0.1713 -1.1775 -0.2618
25644SOL    HW194542  10.484   2.984   0.488  0.1841  0.8751 -0.3938
25644SOL    HW294543  10.362   2.970   0.400  0.0813  0.0435 -0.1262
25645SOL     OW94544   0.557   3.425  10.823 -0.5251 -0.1469 -0.4605
25645SOL    HW194545   0.489   3.408  10.758  0.0837 -0.5057 -1.0158
25645SOL    HW294546   0.561   3.345  10.875 -0.6383 -0.0694 -0.3348
25646SOL     OW94547  10.766  10.651  11.451  0.2448 -0.5475 -0.0477
25646SOL    HW194548  10.772  10.593  11.374  0.9944 -0.8482  0.2365
25646SOL    HW294549  10.848  10.700  11.451 -0.2142  0.2351 -0.0499
25647SOL     OW94550   8.779  10.110   1.864  0.0063  0.6701 -0.6198
25647SOL    HW194551   8.776  10.138   1.772  0.1823 -0.2309 -0.9103
25647SOL    HW294552   8.853  10.049   1.868  0.6464  1.4844  0.3516
25648SOL     OW94553  12.204   0.281   2.280 -0.0489  0.1057  0.1817
25648SOL    HW194554  12.283   0.232   2.257 -1.3756 -3.0854  1.8662
25648SOL    HW294555  12.216   0.304   2.373 -0.0027  2.0122 -0.2500
25649SOL     OW94556   1.767  13.092   7.807 -0.6754  0.1474  0.0798
25649SOL    HW194557   1.799  13.169   7.855 -1.1717  0.0140  0.6361
25649SOL    HW294558   1.706  13.050   7.867 -0.4868 -0.6302 -0.2585
25650SOL     OW94559  10.961  11.632   0.357 -0.0846  0.3286 -0.3985
25650SOL    HW194560  10.914  11.683   0.423 -0.2267 -2.3585  1.7444
25650SOL    HW294561  10.897  11.567   0.328  1.0003 -0.6564 -0.6297
25651SOL     OW94562   8.596  10.512   5.104  0.1221  0.6364  0.4036
25651SOL    HW194563   8.562  10.441   5.158  1.3943 -0.1860  0.1688
25651SOL    HW294564   8.518  10.557   5.071 -0.6882  0.1951  1.6476
25652SOL     OW94565  10.072  12.486   0.908 -0.4879  0.3812  0.0530
25652SOL    HW194566  10.066  12.467   1.001  1.4646 -0.7046  0.0224
25652SOL    HW294567  10.142  12.551   0.902 -0.3397  0.1655 -0.6729
25653SOL     OW94568   4.217  12.635   2.205  0.4798 -0.1773  0.1239
25653SOL    HW194569   4.201  12.570   2.273  0.5135  0.7995  1.0878
25653SOL    HW294570   4.271  12.588   2.140 -1.1261 -1.6800 -0.2054
25654SOL     OW94571   4.469  13.087   7.900  0.0559 -0.4940  0.4736
25654SOL    HW194572   4.457  13.080   7.806  1.9191 -0.9596  0.2348
25654SOL    HW294573   4.402  13.150   7.928 -0.8246 -0.6990 -1.0682
25655SOL     OW94574   1.676   1.511  11.198 -0.0320  0.1522 -0.5284
25655SOL    HW194575   1.694   1.449  11.127  0.6216  0.9291 -1.0488
25655SOL    HW294576   1.750   1.571  11.197 -0.7541  1.0634 -0.1549
25656SOL     OW94577   8.766   4.816  11.737 -0.1014 -0.3661  0.2157
25656SOL    HW194578   8.809   4.743  11.781  1.2269  0.9139  1.1201
25656SOL    HW294579   8.806   4.818  11.650  2.3725  1.2713  1.2880
25657SOL     OW94580   4.448   4.771   2.639  0.0988 -0.0781 -0.6641
25657SOL    HW194581   4.421   4.845   2.693  0.4971  0.6916 -1.4843
25657SOL    HW294582   4.409   4.788   2.554  1.6861  0.1578 -1.3870
25658SOL     OW94583   3.538   4.129  12.106 -0.2037  0.4762  0.0417
25658SOL    HW194584   3.575   4.138  12.194 -0.5429 -0.3918  0.2835
25658SOL    HW294585   3.471   4.062  12.115  1.7054 -1.8166 -1.4631
25659SOL     OW94586   4.226  13.518   4.816  0.1298  0.4178  0.3950
25659SOL    HW194587   4.217  13.428   4.785  0.3064  0.0243  1.4273
25659SOL    HW294588   4.286  13.511   4.891 -0.9312  1.1863  1.3461
25660SOL     OW94589   3.400   0.685   0.357  0.9646  0.3471 -0.0067
25660SOL    HW194590   3.408   0.611   0.297 -0.5401  1.3234 -1.4845
25660SOL    HW294591   3.347   0.651   0.430  0.8553 -0.2210 -0.3443
25661SOL     OW94592   6.299  12.505  12.899  0.2214  0.1422 -0.1033
25661SOL    HW194593   6.209  12.481  12.877  0.3700 -0.2589 -0.3031
25661SOL    HW294594   6.293  12.594  12.934 -0.4968 -0.5488  1.6472
25662SOL     OW94595   2.119   6.559   7.480 -0.2566  0.2170  0.3359
25662SOL    HW194596   2.058   6.596   7.543 -1.6303 -2.5998  0.8226
25662SOL    HW294597   2.205   6.564   7.523 -0.4992  1.9534  0.6877
25663SOL     OW94598   5.472   9.347  10.749 -0.4443 -0.2493  0.1872
25663SOL    HW194599   5.466   9.262  10.705 -1.7228 -0.0194 -0.0992
25663SOL    HW294600   5.499   9.408  10.680 -2.4570  0.1124 -0.3378
25664SOL     OW94601   8.884  12.875   3.862  0.1017  0.1594  0.5647
25664SOL    HW194602   8.820  12.831   3.918  0.8070 -0.9016  0.5675
25664SOL    HW294603   8.967  12.830   3.881  0.1590 -1.1396 -2.2300
25665SOL     OW94604   9.623   1.629   2.114  0.2857 -0.4617  0.3026
25665SOL    HW194605   9.658   1.612   2.201  0.9847  0.0090  0.1214
25665SOL    HW294606   9.689   1.596   2.054  0.2635  0.1037 -0.0430
25666SOL     OW94607  13.738  10.577   3.991  0.1290  0.1652 -0.0933
25666SOL    HW194608  13.698  10.638   4.053  0.9614 -0.9901  1.6617
25666SOL    HW294609  13.818  10.547   4.035  0.5835 -0.9277 -1.6092
25667SOL     OW94610   1.418   3.362  11.124  0.1581  0.3562 -0.4009
25667SOL    HW194611   1.347   3.378  11.187 -0.8539  0.0196 -1.4343
25667SOL    HW294612   1.424   3.444  11.074 -0.8754 -0.2871 -1.6289
25668SOL     OW94613  13.564   1.870   9.433 -0.0875  0.4445  0.6757
25668SOL    HW194614  13.646   1.898   9.393 -0.2216  0.6537  0.5491
25668SOL    HW294615  13.586   1.787   9.476  0.5129  1.1310  1.7428
25669SOL     OW94616   1.430   4.351  11.858  0.3659  0.1556 -0.0657
25669SOL    HW194617   1.491   4.422  11.839 -0.6540  0.3658 -3.1157
25669SOL    HW294618   1.442   4.288  11.786 -1.6535 -0.6979  0.2568
25670SOL     OW94619   1.241  12.533   6.810 -0.6730  0.0860 -0.2036
25670SOL    HW194620   1.311  12.471   6.791 -0.8139  0.5975 -2.7213
25670SOL    HW294621   1.168  12.479   6.839  0.1729 -0.5955  0.7542
25671SOL     OW94622   8.916  13.199   3.160 -0.3302 -0.2064 -0.3442
25671SOL    HW194623   8.830  13.168   3.131  0.0011 -0.0891 -1.4903
25671SOL    HW294624   8.954  13.242   3.083  1.0425 -0.8736 -0.0757
25672SOL     OW94625  13.249   7.686  10.960  0.5170  0.4505  0.4794
25672SOL    HW194626  13.179   7.622  10.972 -0.4446  1.5784  1.1368
25672SOL    HW294627  13.222   7.738  10.885  1.2198  0.1906  0.0342
25673SOL     OW94628   7.562  12.037   6.587  0.1815  0.6742 -0.2350
25673SOL    HW194629   7.567  12.122   6.631 -0.7147  0.8862 -0.5162
25673SOL    HW294630   7.652  12.006   6.584  0.5836  1.8392 -0.5585
25674SOL     OW94631  12.899  10.829  13.940 -0.6642  0.2222 -0.3924
25674SOL    HW194632  12.922  10.742  13.905  0.6607 -0.5858  2.2201
25674SOL    HW294633  12.911  10.888  13.866 -0.5620 -1.6822 -1.9789
25675SOL     OW94634   9.171   0.885   9.022 -0.5321 -0.8725  0.0241
25675SOL    HW194635   9.134   0.970   9.045  0.9232  0.1763 -1.3072
25675SOL    HW294636   9.095   0.830   9.002 -1.4617  0.6310 -0.7706
25676SOL     OW94637  13.001  10.526  10.140 -0.3618 -0.1656 -0.2420
25676SOL    HW194638  13.082  10.496  10.181 -0.3827 -0.3224 -0.3168
25676SOL    HW294639  12.976  10.455  10.080 -0.7897 -0.3112  0.1047
25677SOL     OW94640   4.324   4.210   7.339 -0.2372 -0.0527 -0.3078
25677SOL    HW194641   4.403   4.207   7.394 -0.6824 -0.3058  0.3315
25677SOL    HW294642   4.292   4.120   7.338 -0.5016  0.0457 -0.5854
25678SOL     OW94643   9.559   5.753   3.551  0.1297 -0.2204  0.0601
25678SOL    HW194644   9.599   5.808   3.485 -0.4726  1.1207  0.7787
25678SOL    HW294645   9.631   5.732   3.611  0.2777  0.1219  0.0042
25679SOL     OW94646   2.284  13.445   3.013  0.4878 -0.6017  0.3743
25679SOL    HW194647   2.220  13.464   3.081 -0.3863 -1.6607 -0.1114
25679SOL    HW294648   2.250  13.366   2.970  2.1451 -1.2007  0.1181
25680SOL     OW94649  11.957   3.904   3.353  0.1989  0.1479 -0.4243
25680SOL    HW194650  11.944   3.924   3.446 -0.4483 -0.6796 -0.3274
25680SOL    HW294651  12.004   3.820   3.352  0.9693  0.5684 -0.8461
25681SOL     OW94652   4.838   2.062   0.044  0.3698  0.5971 -0.5939
25681SOL    HW194653   4.760   2.109   0.073  0.1191  0.1646 -0.5439
25681SOL    HW294654   4.826   2.054  -0.051  1.4869  2.5473 -0.9479
25682SOL     OW94655  12.367   3.967  12.137 -0.0305 -0.0003 -0.2918
25682SOL    HW194656  12.272   3.963  12.148  0.0327 -0.7147  0.0869
25682SOL    HW294657  12.401   3.967  12.227  0.3174  0.6892 -0.4177
25683SOL     OW94658  10.115   1.266   6.030  0.2278 -0.2779  0.2402
25683SOL    HW194659  10.166   1.298   6.105 -1.7914  1.0055  1.1407
25683SOL    HW294660  10.102   1.344   5.976 -2.2372 -0.1368  0.9397
25684SOL     OW94661   3.180   1.996   9.921  0.4252  0.1510  0.8743
25684SOL    HW194662   3.110   2.016   9.858  1.1609  1.6699  0.4962
25684SOL    HW294663   3.135   1.990  10.005 -0.4757 -1.2366  0.3355
25685SOL     OW94664   0.440   1.445   4.708 -0.9100  0.4973  0.1950
25685SOL    HW194665   0.371   1.423   4.770 -1.9610 -1.4930 -1.5486
25685SOL    HW294666   0.514   1.388   4.732 -0.3951  1.5132  1.0996
25686SOL     OW94667  11.967   1.610  13.592  0.2860 -0.0251 -0.0296
25686SOL    HW194668  11.907   1.658  13.650 -1.7092 -1.9464 -0.3753
25686SOL    HW294669  12.027   1.566  13.651 -1.4355 -1.5858  0.6411
25687SOL     OW94670  10.585   1.447   3.591  0.3062 -0.4065 -0.0061
25687SOL    HW194671  10.609   1.368   3.639  0.1350  0.0651  0.8792
25687SOL    HW294672  10.514   1.420   3.532  0.5124 -0.9876  0.0076
25688SOL     OW94673   7.177  12.528   7.078 -0.2516 -0.0932 -0.1896
25688SOL    HW194674   7.198  12.547   6.986 -2.4959 -2.1228 -1.2614
25688SOL    HW294675   7.107  12.589   7.100 -0.6130 -0.4675 -0.2865
25689SOL     OW94676   3.645   0.843   8.042  0.0507  0.2396  0.4792
25689SOL    HW194677   3.597   0.782   8.098 -0.0276  1.0176  1.2757
25689SOL    HW294678   3.663   0.793   7.962  2.8154 -1.9555  2.2683
25690SOL     OW94679   1.338   1.339   8.804 -0.5226  0.7808  0.6125
25690SOL    HW194680   1.325   1.244   8.793  3.1954  0.1375  0.5184
25690SOL    HW294681   1.306   1.377   8.723  1.0166 -0.8281 -0.8217
25691SOL     OW94682  12.626   6.089   6.571  0.7218  0.2077 -0.0123
25691SOL    HW194683  12.537   6.068   6.545  1.5053  0.2797 -3.1435
25691SOL    HW294684  12.616   6.152   6.643 -1.7386  0.6884 -0.7022
25692SOL     OW94685  13.822   4.268   8.629 -0.6042 -0.3514  0.0839
25692SOL    HW194686  13.834   4.313   8.545 -1.7682 -1.8174 -0.9136
25692SOL    HW294687  13.892   4.203   8.631 -1.4972 -1.3544 -0.4978
25693SOL     OW94688   1.317   2.354   0.442 -0.1988 -0.0787  0.3647
25693SOL    HW194689   1.260   2.281   0.466 -1.0328  0.2664 -0.5175
25693SOL    HW294690   1.371   2.320   0.371  0.2537 -0.2050  0.7660
25694SOL     OW94691   4.221   0.733   8.567 -0.1914 -0.4991 -0.1852
25694SOL    HW194692   4.238   0.762   8.477 -0.0531 -2.3336 -0.7997
25694SOL    HW294693   4.159   0.661   8.557  0.3770 -1.1942  1.1329
25695SOL     OW94694  12.207   2.551   9.087  0.5755 -0.3603 -0.2732
25695SOL    HW194695  12.256   2.591   9.015  0.8584 -0.5432 -0.1881
25695SOL    HW294696  12.272   2.541   9.157  0.0569  0.7799  0.3960
25696SOL     OW94697  11.390   4.592   6.686 -0.5072 -0.8371 -0.2423
25696SOL    HW194698  11.299   4.615   6.706 -0.1157  0.8840 -0.3503
25696SOL    HW294699  11.399   4.609   6.592  1.1232  3.6923  0.4776
25697SOL     OW94700   2.701   9.456  11.278  0.7022 -0.3334  0.2056
25697SOL    HW194701   2.662   9.536  11.312  2.1912  0.4915  0.0153
25697SOL    HW294702   2.664   9.447  11.190 -1.8255 -1.5560  1.2599
25698SOL     OW94703  10.008   1.280   0.870  0.0828 -0.0015  0.1238
25698SOL    HW194704  10.020   1.308   0.960 -2.0230  1.3237  0.0373
25698SOL    HW294705   9.914   1.287   0.854  0.1561 -1.8703 -1.6631
25699SOL     OW94706   0.929   9.175   4.043 -0.1533  0.0312 -0.2812
25699SOL    HW194707   0.892   9.106   3.988  0.5014 -1.4129  1.0411
25699SOL    HW294708   0.894   9.256   4.005 -0.1975 -0.9279 -2.4348
25700SOL     OW94709   3.212   3.086  13.693 -0.1964 -0.1964 -0.0722
25700SOL    HW194710   3.144   3.074  13.760 -0.3832  1.1846  0.0229
25700SOL    HW294711   3.171   3.055  13.612 -0.2989 -1.0317  0.2962
25701SOL     OW94712   2.839   3.393  10.050 -0.2550 -0.4389  0.2198
25701SOL    HW194713   2.836   3.328   9.979  0.5648 -0.9169  0.6018
25701SOL    HW294714   2.815   3.343  10.128 -1.7316  0.2153  0.2130
25702SOL     OW94715   7.443  10.026   3.975 -0.1295  0.2597  0.5371
25702SOL    HW194716   7.356  10.025   3.935 -0.3163 -0.4254  0.9613
25702SOL    HW294717   7.453   9.940   4.014  2.0117 -0.8888 -2.2006
25703SOL     OW94718   3.017  10.124   8.260  0.0861  0.5818 -0.1652
25703SOL    HW194719   2.945  10.081   8.214 -0.8885 -0.0129  1.7864
25703SOL    HW294720   3.092  10.067   8.245 -0.5114 -0.2741  0.0069
25704SOL     OW94721   3.995  12.592   7.876 -0.8460 -0.1159 -0.2127
25704SOL    HW194722   3.982  12.678   7.917 -1.1297  0.4141 -1.3820
25704SOL    HW294723   4.008  12.611   7.783  2.1070 -1.0891 -0.1166
25705SOL     OW94724  11.883   1.079   9.310 -0.4354  0.4477 -0.5726
25705SOL    HW194725  11.919   1.168   9.322  1.0738  0.0157 -1.6255
25705SOL    HW294726  11.853   1.054   9.397 -0.0220  1.6437 -0.0615
25706SOL     OW94727  10.535   2.542   8.770 -0.6851 -0.1753 -0.2635
25706SOL    HW194728  10.544   2.629   8.808 -0.9159 -0.3868  0.2890
25706SOL    HW294729  10.555   2.482   8.842 -2.2837 -0.5956 -0.1452
25707SOL     OW94730   1.152   4.758  12.009 -0.4464 -0.2128 -0.4556
25707SOL    HW194731   1.202   4.684  12.043  1.2654  1.0258 -0.1713
25707SOL    HW294732   1.138   4.814  12.085  0.4007  0.9175 -1.1155
25708SOL     OW94733   9.818   4.180   9.978 -0.2955  0.3978  0.2850
25708SOL    HW194734   9.826   4.100   9.925 -1.4498  0.6812 -0.3452
25708SOL    HW294735   9.807   4.250   9.914  0.4648  1.0405  0.8434
25709SOL     OW94736   7.660   5.432   6.548 -0.5412  0.1680  0.6101
25709SOL    HW194737   7.684   5.385   6.468 -1.0479  0.6848  0.1448
25709SOL    HW294738   7.588   5.489   6.522 -0.9497  0.0867  1.5217
25710SOL     OW94739   0.492   5.912  11.258 -0.4812  0.4639 -0.1937
25710SOL    HW194740   0.584   5.907  11.283 -0.7811  0.5998  0.9698
25710SOL    HW294741   0.480   5.840  11.196 -0.2624 -1.4241  1.8465
25711SOL     OW94742   2.416   4.556   0.447 -0.0405  0.5403 -0.6666
25711SOL    HW194743   2.397   4.637   0.400 -0.4684  0.7309 -0.1703
25711SOL    HW294744   2.381   4.570   0.535  2.1002  0.7901  0.2084
25712SOL     OW94745   2.208   5.881   1.388  0.0558  0.0947 -0.0832
25712SOL    HW194746   2.114   5.897   1.396 -0.4075 -0.4319 -3.1334
25712SOL    HW294747   2.218   5.788   1.409 -0.3743 -0.2092 -1.1508
25713SOL     OW94748   1.379  12.645   4.749  0.1297 -0.7911  0.0201
25713SOL    HW194749   1.321  12.609   4.682  1.3949  0.5291 -1.9135
25713SOL    HW294750   1.339  12.729   4.773 -0.3674 -1.2996  1.0382
25714SOL     OW94751   9.571   1.931   9.466 -0.0913 -0.4347 -0.3010
25714SOL    HW194752   9.635   1.908   9.398  2.4896 -1.4824  2.2719
25714SOL    HW294753   9.558   1.851   9.516 -3.7423 -0.3190 -0.8072
25715SOL     OW94754  10.686  13.493  11.531  0.3575 -0.5717  0.2928
25715SOL    HW194755  10.601  13.449  11.526 -0.1480  0.3369  0.7451
25715SOL    HW294756  10.671  13.568  11.588  1.0810  0.4906 -0.8720
25716SOL     OW94757   0.958   8.751   4.513  0.2118  0.7816 -0.1376
25716SOL    HW194758   0.871   8.712   4.517  0.8538 -0.6234  0.7325
25716SOL    HW294759   1.013   8.684   4.473  0.8648  1.7435 -0.8886
25717SOL     OW94760   5.288  13.029   3.070 -0.1647 -0.2213  0.2526
25717SOL    HW194761   5.307  12.942   3.107  0.2238 -0.7327 -1.1076
25717SOL    HW294762   5.197  13.023   3.041  0.6343 -1.1374 -2.3194
25718SOL     OW94763   8.267  10.855   8.449  0.0346 -0.5263 -0.2235
25718SOL    HW194764   8.257  10.950   8.445 -1.6803 -0.6564  0.1591
25718SOL    HW294765   8.360  10.841   8.465  0.8108  0.9895 -2.7948
25719SOL     OW94766  10.495  12.446   6.447 -0.0243  0.2291 -0.4156
25719SOL    HW194767  10.484  12.479   6.357 -1.0271  1.2558  0.0491
25719SOL    HW294768  10.477  12.352   6.440 -2.1225  0.6068 -1.0099
25720SOL     OW94769   3.648   0.156   1.098  0.0759 -0.1023 -0.4707
25720SOL    HW194770   3.650   0.077   1.045 -0.0609 -0.2595 -0.2447
25720SOL    HW294771   3.722   0.146   1.158  0.0546 -0.0638 -0.4379
25721SOL     OW94772   8.222   9.493   1.755  0.0573  0.0236 -0.2413
25721SOL    HW194773   8.260   9.580   1.762  0.7172 -0.4045  2.1841
25721SOL    HW294774   8.127   9.508   1.762  0.0262  0.6626 -1.6568
25722SOL     OW94775   9.534   2.303   6.160 -0.8903 -0.0476 -0.7844
25722SOL    HW194776   9.440   2.291   6.147 -1.1393  1.0125 -0.0469
25722SOL    HW294777   9.541   2.376   6.221  0.4016 -0.7385 -0.0803
25723SOL     OW94778   0.700   2.430   1.960 -0.2783  0.4602  0.3441
25723SOL    HW194779   0.747   2.421   2.043  2.8972  0.5987 -1.2703
25723SOL    HW294780   0.675   2.522   1.956 -1.6961  0.1632  1.6931
25724SOL     OW94781  11.630   2.174   1.836  0.4610  0.2470  0.5831
25724SOL    HW194782  11.630   2.258   1.790  0.2922 -0.5846 -0.9915
25724SOL    HW294783  11.541   2.140   1.822  0.1776  0.2548  2.1270
25725SOL     OW94784   7.518   2.734   0.320 -0.1053 -0.1117 -0.0780
25725SOL    HW194785   7.454   2.788   0.274 -1.2779  0.4787  2.0784
25725SOL    HW294786   7.603   2.769   0.292 -0.7921  1.1128 -0.7199
25726SOL     OW94787   7.111   2.513  11.150  0.3775  0.3035 -0.1199
25726SOL    HW194788   7.032   2.548  11.107  0.7127  0.6497 -0.4632
25726SOL    HW294789   7.082   2.431  11.190 -0.1564  0.4189 -0.2590
25727SOL     OW94790  11.427   5.960  12.463  0.4448 -0.5844  0.0166
25727SOL    HW194791  11.521   5.977  12.468  0.0369  2.1097  0.1233
25727SOL    HW294792  11.411   5.939  12.371  0.8243  1.8772 -0.6935
25728SOL     OW94793  11.515   6.132   5.103 -0.4281  0.2793  0.0245
25728SOL    HW194794  11.564   6.051   5.085  0.1662  0.4226  0.9042
25728SOL    HW294795  11.541   6.192   5.034 -1.5521 -0.5441 -1.1594
25729SOL     OW94796   2.032   3.562   1.793  0.0766 -0.7135  0.0932
25729SOL    HW194797   2.127   3.549   1.792  0.3671  0.5784 -3.6040
25729SOL    HW294798   2.020   3.651   1.826  0.4748  0.2086 -2.0901
25730SOL     OW94799   4.001   1.418  11.298 -0.1517 -0.5066  0.2019
25730SOL    HW194800   3.937   1.349  11.317 -0.7908 -0.1871 -0.7096
25730SOL    HW294801   3.963   1.497  11.336 -1.5008  0.1624 -2.3265
25731SOL     OW94802   4.000  14.039  12.020 -0.5188  0.3085 -0.4210
25731SOL    HW194803   4.071  14.066  11.962 -0.7366 -0.2161 -0.9461
25731SOL    HW294804   3.924  14.031  11.963 -1.3806  2.2491  0.3612
25732SOL     OW94805  10.663  10.953   8.665  0.1041  0.6277 -0.0775
25732SOL    HW194806  10.749  10.952   8.624  0.1987 -0.8291  0.0967
25732SOL    HW294807  10.601  10.957   8.592  0.3079  0.7759 -0.2408
25733SOL     OW94808   0.347  11.090  13.225 -0.2602  0.6130  0.5390
25733SOL    HW194809   0.321  11.022  13.287  0.6198  0.4274  0.7223
25733SOL    HW294810   0.401  11.149  13.276  1.0350  0.0980 -0.1797
25734SOL     OW94811   1.914   3.362   0.548  0.1012 -0.1833  0.1906
25734SOL    HW194812   1.933   3.455   0.560  0.7015 -0.3235  0.3516
25734SOL    HW294813   1.859   3.358   0.470  0.5092  0.2577 -0.1213
25735SOL     OW94814   7.071   7.428   6.828 -0.2525  0.1140  0.3184
25735SOL    HW194815   7.159   7.421   6.863  0.6247 -0.1469 -1.7685
25735SOL    HW294816   7.030   7.498   6.879  1.1609  0.2401  1.3249
25736SOL     OW94817   0.263  10.480  10.050  0.5154 -0.2511  0.3866
25736SOL    HW194818   0.340  10.423  10.055  0.7931  0.1116  0.3513
25736SOL    HW294819   0.259  10.520  10.137  0.4181 -0.2063  0.3600
25737SOL     OW94820   6.594   9.210  11.431  0.3415 -0.2337 -0.0226
25737SOL    HW194821   6.581   9.154  11.354  0.4538  0.8345 -0.8392
25737SOL    HW294822   6.621   9.294  11.395 -0.8454  0.6679  1.1281
25738SOL     OW94823  12.544  12.375   9.032 -0.3608  0.1246 -0.2755
25738SOL    HW194824  12.591  12.372   9.115  1.2188 -0.2168 -1.1544
25738SOL    HW294825  12.536  12.283   9.006  0.8478  0.3235 -1.4102
25739SOL     OW94826   6.833   6.995   7.740  0.5502 -0.0397  0.2137
25739SOL    HW194827   6.820   6.915   7.688 -0.4918 -0.3991  0.9780
25739SOL    HW294828   6.808   7.066   7.681  0.0836 -0.3854 -0.0143
25740SOL     OW94829  12.154  11.361   1.460 -0.3169  0.5298 -0.4977
25740SOL    HW194830  12.130  11.271   1.479  0.2962 -0.2294 -3.0366
25740SOL    HW294831  12.083  11.395   1.406 -1.6876  2.3999  2.2314
25741SOL     OW94832  11.104   8.725  12.926  0.3231 -0.3439  0.5226
25741SOL    HW194833  11.014   8.758  12.924  0.4073 -0.0931  0.9060
25741SOL    HW294834  11.147   8.776  12.994  1.1097  0.4379 -0.5366
25742SOL     OW94835  14.027   1.134   3.300 -0.2795  0.8993 -0.3254
25742SOL    HW194836  14.007   1.115   3.208 -4.7894  1.7336  0.2315
25742SOL    HW294837  14.031   1.229   3.304 -5.3135  1.3630  0.8099
25743SOL     OW94838   3.719   0.255  10.022  0.0797  0.0968  0.1298
25743SOL    HW194839   3.720   0.350  10.026 -0.2253  0.1140 -0.1779
25743SOL    HW294840   3.736   0.234   9.930 -2.8396 -0.0603 -0.4603
25744SOL     OW94841   3.213   4.907  12.770  0.7840  0.3291 -0.2984
25744SOL    HW194842   3.187   4.989  12.729 -0.4466  0.2311  0.2452
25744SOL    HW294843   3.182   4.839  12.710  1.2758  0.2367 -0.4556
25745SOL     OW94844   6.193   5.025   5.722 -0.1499  0.1368  0.1179
25745SOL    HW194845   6.286   5.012   5.737 -0.1908 -0.1024  0.1638
25745SOL    HW294846   6.188   5.111   5.679  0.1111  0.0446 -0.0986
25746SOL     OW94847  10.552   2.940   7.888  0.2054 -0.2130  0.4778
25746SOL    HW194848  10.571   3.019   7.838  0.7703 -0.4670  0.2893
25746SOL    HW294849  10.496   2.888   7.831  0.3347 -0.2236  0.3614
25747SOL     OW94850  12.362   3.536   9.512 -0.1026  0.2078  0.1113
25747SOL    HW194851  12.380   3.443   9.526 -0.7665  0.1842  0.8632
25747SOL    HW294852  12.328   3.567   9.596  2.0747  1.6319  0.5258
25748SOL     OW94853   9.807   6.730  11.631  0.3546  0.3416 -0.5008
25748SOL    HW194854   9.813   6.701  11.721  1.4317  0.4584 -0.5227
25748SOL    HW294855   9.720   6.702  11.602 -0.0403  0.3942  0.5922
25749SOL     OW94856  11.327  10.108  10.693  0.4672  0.4821  0.1480
25749SOL    HW194857  11.325  10.012  10.684 -0.7303  0.4425  0.5822
25749SOL    HW294858  11.280  10.124  10.775 -0.3293  1.4983 -0.4873
25750SOL     OW94859   8.403   2.020  10.186 -0.5010  0.0817  0.1277
25750SOL    HW194860   8.313   2.041  10.209 -1.1180 -2.4612  0.2777
25750SOL    HW294861   8.449   2.010  10.269 -0.9324 -1.8430  0.1794
25751SOL     OW94862  12.022   4.578  12.843 -0.0175 -0.0936 -0.3887
25751SOL    HW194863  11.998   4.514  12.910 -1.4855 -0.5182 -1.2779
25751SOL    HW294864  11.947   4.638  12.840  1.1725  1.4834  0.1655
25752SOL     OW94865   7.431  10.060   6.549 -0.0086 -0.2405 -0.4532
25752SOL    HW194866   7.489  10.124   6.508  0.7710 -1.6148 -1.6133
25752SOL    HW294867   7.344  10.099   6.543  0.5839  1.2543  0.0592
25753SOL     OW94868   3.254   4.543   8.491  0.5033  0.4601 -0.0781
25753SOL    HW194869   3.181   4.569   8.434 -0.9530 -4.3511 -0.8403
25753SOL    HW294870   3.317   4.502   8.431  1.0527 -0.6821  1.2396
25754SOL     OW94871   8.402   2.131  12.539 -0.3884 -0.0620  0.1989
25754SOL    HW194872   8.430   2.207  12.489 -2.2212  0.6592  0.1992
25754SOL    HW294873   8.478   2.073  12.539  0.6103  1.1864 -0.9246
25755SOL     OW94874   9.867  13.523  13.353 -0.4122  0.1032 -0.5181
25755SOL    HW194875   9.812  13.571  13.291 -0.9041 -0.0990 -0.2506
25755SOL    HW294876   9.924  13.469  13.298  0.9385  1.7958 -0.8540
25756SOL     OW94877   6.792   2.660   5.522 -0.4603  0.4164  0.1293
25756SOL    HW194878   6.789   2.648   5.617 -2.2602 -2.2841 -0.1251
25756SOL    HW294879   6.718   2.717   5.503 -0.0534  1.0210  0.3557
25757SOL     OW94880   7.197   2.409   6.753 -0.3909  0.6678  0.2874
25757SOL    HW194881   7.279   2.360   6.757  0.7843  2.5713  0.9856
25757SOL    HW294882   7.214   2.478   6.689 -1.3163  1.3100  0.7103
25758SOL     OW94883   7.538   9.039   0.554 -0.0016 -0.4060  0.6289
25758SOL    HW194884   7.563   8.951   0.526 -1.3168 -0.6715  0.1862
25758SOL    HW294885   7.543   9.037   0.649  1.3118 -0.5199  0.5748
25759SOL     OW94886   7.607   2.981   8.599  0.1868  0.7266  0.1245
25759SOL    HW194887   7.620   2.937   8.683 -2.4687  1.3355  0.9290
25759SOL    HW294888   7.521   2.952   8.569  0.6499  1.3039 -1.9380
25760SOL     OW94889   1.265  10.362  11.903  0.2687 -0.3201 -0.2686
25760SOL    HW194890   1.234  10.382  11.992  0.1663  0.1036 -0.3965
25760SOL    HW294891   1.358  10.343  11.914  0.6304  1.2932 -0.2709
25761SOL     OW94892   8.966   9.383  11.313 -0.2739 -0.0154  0.9551
25761SOL    HW194893   8.957   9.477  11.301  1.0200  0.1036  0.8249
25761SOL    HW294894   9.044   9.359  11.263 -0.6332 -1.1754  0.9015
25762SOL     OW94895   7.787  11.092  11.969 -0.3896  0.2150 -0.0503
25762SOL    HW194896   7.724  11.075  12.038 -0.1916 -0.3771 -0.0017
25762SOL    HW294897   7.851  11.020  11.977  0.6289  1.1370  0.2937
25763SOL     OW94898   1.195  12.121  12.041  0.3426 -0.6888 -0.3399
25763SOL    HW194899   1.208  12.213  12.061  0.1510 -0.6162 -0.5519
25763SOL    HW294900   1.178  12.118  11.947 -0.5212 -0.8494 -0.1828
25764SOL     OW94901   3.313  11.783   5.241  0.2137  0.2061 -0.5532
25764SOL    HW194902   3.266  11.704   5.216 -1.9119  2.0362 -2.8052
25764SOL    HW294903   3.274  11.853   5.188  2.4324  2.6866  0.8109
25765SOL     OW94904   5.556  13.919   0.227 -0.0757  0.1357 -0.0929
25765SOL    HW194905   5.512  13.948   0.147 -0.4539 -1.1955 -0.3941
25765SOL    HW294906   5.572  14.000   0.276  1.3449  1.1390 -2.0764
25766SOL     OW94907  11.865  13.174   1.624 -0.3316  0.4961  0.2425
25766SOL    HW194908  11.825  13.100   1.577 -0.3205  0.4484  0.3076
25766SOL    HW294909  11.924  13.133   1.687  0.9978  0.5982 -0.8880
25767SOL     OW94910   8.517   4.941   3.934  0.1590 -0.1433  0.7438
25767SOL    HW194911   8.492   5.000   3.863  2.8909 -0.3797 -0.5483
25767SOL    HW294912   8.460   4.865   3.923  0.6811 -0.3054 -1.4539
25768SOL     OW94913  14.027   9.666   0.312  0.2464 -0.8210  0.1248
25768SOL    HW194914  14.038   9.581   0.354 -0.3811 -2.1061 -2.1133
25768SOL    HW294915  14.072   9.658   0.228  1.4545  1.6167  0.4311
25769SOL     OW94916  13.312   8.662   4.013 -0.0951  0.1159 -0.3806
25769SOL    HW194917  13.388   8.607   4.030  0.1629  0.7685  0.6291
25769SOL    HW294918  13.348   8.745   3.983 -0.4245  0.2586 -0.3897
25770SOL     OW94919   0.108   8.756   6.215  0.5180 -0.0023 -0.1912
25770SOL    HW194920   0.141   8.793   6.133  0.2186 -1.2426 -0.8979
25770SOL    HW294921   0.042   8.692   6.188 -1.2530  1.1802  1.1132
25771SOL     OW94922   6.963   1.589   5.768  0.2465 -0.3023  0.2877
25771SOL    HW194923   7.043   1.626   5.807  0.2871  0.9070 -0.8633
25771SOL    HW294924   6.973   1.604   5.674 -1.0878 -0.6501  0.0699
25772SOL     OW94925  12.160   1.913   8.668 -0.3290 -0.1662 -0.4981
25772SOL    HW194926  12.211   1.979   8.716 -0.1163 -0.0620 -0.8592
25772SOL    HW294927  12.210   1.832   8.680 -0.9108 -0.3991  0.4546
25773SOL     OW94928   4.114  13.755  12.582 -0.5461  0.3279 -0.0348
25773SOL    HW194929   4.094  13.706  12.503 -2.8023  0.6089  0.2971
25773SOL    HW294930   4.052  13.722  12.647  1.3413 -0.0065  1.7122
25774SOL     OW94931   5.651   2.520   3.358  0.0653  0.2294  0.0645
25774SOL    HW194932   5.665   2.613   3.377 -1.7291  0.5032  0.2457
25774SOL    HW294933   5.581   2.519   3.293 -0.6528 -1.0116  0.8006
25775SOL     OW94934   5.936  12.620   4.408 -0.4939  0.0356  0.0882
25775SOL    HW194935   5.960  12.684   4.475 -2.1066 -0.2930  1.0176
25775SOL    HW294936   6.009  12.623   4.346  1.3664 -0.0528  2.1204
25776SOL     OW94937   8.099  13.839   1.939  0.4256  0.3968 -0.0908
25776SOL    HW194938   8.076  13.839   2.032 -1.0091  0.9031 -0.4210
25776SOL    HW294939   8.149  13.758   1.926  1.3240  0.6972  1.2614
25777SOL     OW94940   1.969   6.884  13.154  0.2558 -0.1982 -0.0715
25777SOL    HW194941   1.888   6.932  13.141 -0.6203 -1.0792  1.7350
25777SOL    HW294942   1.957   6.803  13.104  0.8736  0.5163 -1.4177
25778SOL     OW94943   0.555   9.121  13.163 -0.1245  0.2688 -0.2439
25778SOL    HW194944   0.575   9.210  13.192 -0.5329  0.8037 -1.5517
25778SOL    HW294945   0.515   9.080  13.240  1.4261  0.7091  0.8534
25779SOL     OW94946   4.240  11.208   5.718 -0.2831 -0.6103 -0.4656
25779SOL    HW194947   4.297  11.258   5.776 -0.4953 -2.0815  1.0800
25779SOL    HW294948   4.152  11.217   5.755 -0.4966 -1.2361 -0.7975
25780SOL     OW94949   8.927   8.236   1.767  0.2924 -0.7902  0.2148
25780SOL    HW194950   8.845   8.238   1.718  1.1504  1.7423 -1.2991
25780SOL    HW294951   8.923   8.313   1.824  2.3890  0.6957 -1.4503
25781SOL     OW94952   9.807   1.023  12.360 -0.9257 -0.2763  0.5099
25781SOL    HW194953   9.754   0.980  12.427 -2.9753 -0.1743 -0.9687
25781SOL    HW294954   9.772   1.112  12.355  1.0684  0.6173  1.1943
25782SOL     OW94955  12.462  11.606   7.747 -0.1045  0.2062 -0.5501
25782SOL    HW194956  12.515  11.568   7.817 -0.6661  1.5413  0.6581
25782SOL    HW294957  12.486  11.699   7.747  0.1950  0.1633 -2.4457
25783SOL     OW94958  13.916   2.000   5.624 -0.3914 -0.1889  0.3725
25783SOL    HW194959  13.932   2.094   5.620 -1.9681  0.0969 -0.2797
25783SOL    HW294960  13.952   1.973   5.709 -0.2051  1.0595  0.7144
25784SOL     OW94961   6.214  10.702   5.597 -0.1254 -0.5966  0.2606
25784SOL    HW194962   6.203  10.632   5.662 -0.4907  0.8709  1.8423
25784SOL    HW294963   6.262  10.770   5.643 -3.7556  2.1967  0.4112
25785SOL     OW94964   4.868   2.534   9.677 -0.0057  0.1645  0.1631
25785SOL    HW194965   4.920   2.489   9.743  1.1483  0.5649 -0.4496
25785SOL    HW294966   4.932   2.576   9.620 -1.0141  1.0447 -0.3581
25786SOL     OW94967   0.428  12.783  11.248 -0.6869  0.3763 -0.0804
25786SOL    HW194968   0.362  12.802  11.181  1.7473  1.4153 -2.3504
25786SOL    HW294969   0.436  12.687  11.246 -1.2305  0.3316 -0.7106
25787SOL     OW94970   3.321  11.292  10.277  0.1929  0.2649 -0.1351
25787SOL    HW194971   3.416  11.305  10.268  0.1976 -0.4097 -1.1672
25787SOL    HW294972   3.290  11.374  10.316  1.3264  0.1079  1.1693
25788SOL     OW94973   3.639   8.218   1.291  0.1526 -0.0611  0.0437
25788SOL    HW194974   3.577   8.220   1.219 -0.8434  1.2744  0.9045
25788SOL    HW294975   3.717   8.177   1.254  0.3052  2.1523 -2.3124
25789SOL     OW94976   8.721   9.684   7.571 -0.5390  0.1355  0.3400
25789SOL    HW194977   8.781   9.655   7.640 -0.6176  0.0590  0.3773
25789SOL    HW294978   8.681   9.603   7.539  0.5750  0.0216 -0.8025
25790SOL     OW94979   2.773  11.471   9.620  0.1310 -0.0827  0.8692
25790SOL    HW194980   2.821  11.547   9.652  3.5710 -1.1558 -1.2662
25790SOL    HW294981   2.811  11.397   9.667 -0.2443 -0.8749 -0.0409
25791SOL     OW94982   2.477  11.051   5.710  0.1774 -0.4903  0.0652
25791SOL    HW194983   2.519  11.137   5.708  0.3435 -0.5615  0.3433
25791SOL    HW294984   2.543  10.994   5.749 -0.0063 -0.7007  0.0677
25792SOL     OW94985   5.930   6.769  13.744 -0.0464  0.0834 -0.6507
25792SOL    HW194986   5.965   6.857  13.761  1.0509 -0.1516 -1.5416
25792SOL    HW294987   5.868   6.753  13.815 -0.3234  1.6083 -0.5276
25793SOL     OW94988  13.338  10.845  10.513  0.1721 -0.2019  0.0467
25793SOL    HW194989  13.353  10.838  10.419  0.2147  1.5701 -0.1212
25793SOL    HW294990  13.425  10.865  10.550 -0.1004  0.6825  0.2423
25794SOL     OW94991  13.963  13.744  11.488  0.7072 -0.3451  0.7031
25794SOL    HW194992  13.950  13.651  11.505  1.1605 -0.8176 -1.3528
25794SOL    HW294993  13.877  13.776  11.460 -0.0336  0.4349  3.4730
25795SOL     OW94994   5.850   7.038   4.071  0.0963 -0.3585 -0.3997
25795SOL    HW194995   5.795   7.016   3.996  0.7396  0.3784 -1.1066
25795SOL    HW294996   5.795   7.021   4.147 -1.4207  1.1571 -1.1016
25796SOL     OW94997   3.646   4.574   5.603 -0.1464 -0.5497 -0.0049
25796SOL    HW194998   3.562   4.539   5.573 -0.4843 -0.4123  0.7531
25796SOL    HW294999   3.641   4.569   5.699  0.2132  0.5860  0.0882
25797SOL     OW95000   3.336   8.132   0.395  0.6176  0.1343  0.2297
25797SOL    HW195001   3.331   8.127   0.299 -0.6847  2.2902  0.1030
25797SOL    HW295002   3.252   8.170   0.421  1.6777  1.3962  2.0493
25798SOL     OW95003   2.119   3.199   0.648  0.4277  0.1519 -0.3034
25798SOL    HW195004   2.039   3.237   0.611  0.1506 -0.7956 -0.7034
25798SOL    HW295005   2.161   3.157   0.573 -0.2732 -2.0473  0.4614
25799SOL     OW95006  12.891  11.708   5.689  0.3242 -0.0488  0.9814
25799SOL    HW195007  12.958  11.677   5.750  1.9040  0.8007 -0.2753
25799SOL    HW295008  12.926  11.691   5.602 -1.3603 -0.1130  0.2655
25800SOL     OW95009   8.217   9.492   0.670 -0.0649  0.2568 -0.2668
25800SOL    HW195010   8.177   9.448   0.594  0.5386 -0.1598 -0.3491
25800SOL    HW295011   8.206   9.585   0.652 -1.9982  0.1679  0.2393
25801SOL     OW95012   1.417   7.625   8.123  0.0444  0.7904 -0.4057
25801SOL    HW195013   1.333   7.634   8.077 -0.4280 -0.5714  0.1316
25801SOL    HW295014   1.393   7.631   8.216  0.5159  0.1958 -0.2440
25802SOL     OW95015   9.136   8.580   0.064  0.0222  0.4926  0.3369
25802SOL    HW195016   9.182   8.620  -0.010  1.0231 -0.8219  0.2055
25802SOL    HW295017   9.205   8.560   0.127 -0.8713  2.0782  1.9090
25803SOL     OW95018   9.878  13.648   8.583 -0.7800 -0.3795 -0.1250
25803SOL    HW195019   9.809  13.697   8.627 -0.6805 -0.5688  0.2469
25803SOL    HW295020   9.942  13.714   8.557 -1.4959 -0.0969 -1.2249
25804SOL     OW95021   0.462   8.975   7.128  0.1521  0.3407  0.3403
25804SOL    HW195022   0.431   8.967   7.218 -1.7405 -2.7134 -0.3923
25804SOL    HW295023   0.533   8.911   7.122  0.9203  1.2262 -0.1114
25805SOL     OW95024   6.288   4.802  13.757 -0.2222 -0.1970  0.1540
25805SOL    HW195025   6.361   4.757  13.715  1.1311  2.2520 -0.2328
25805SOL    HW295026   6.315   4.810  13.849 -0.3960 -0.0172  0.1885
25806SOL     OW95027   2.998  11.825   2.421 -0.2471  0.3882 -0.4351
25806SOL    HW195028   2.975  11.777   2.341 -1.2863  2.2713 -1.3427
25806SOL    HW295029   3.019  11.757   2.485  0.7823 -1.1783 -2.3425
25807SOL     OW95030  13.799   3.038  13.517  0.0491 -0.1195  0.2905
25807SOL    HW195031  13.882   3.085  13.510 -0.5628  0.8900 -0.4410
25807SOL    HW295032  13.732   3.104  13.500 -0.8576 -1.1798 -0.4472
25808SOL     OW95033  12.538   2.722   2.937  0.1074 -0.3884 -0.2038
25808SOL    HW195034  12.452   2.740   2.901 -1.5665 -3.4579  1.8674
25808SOL    HW295035  12.587   2.684   2.864  0.4138  2.7003 -1.8175
25809SOL     OW95036  10.613   3.259   8.344  0.0667 -0.3448  0.1929
25809SOL    HW195037  10.553   3.293   8.278  1.3970  1.4217 -0.1900
25809SOL    HW295038  10.609   3.324   8.415  1.9233  0.1604 -0.1051
25810SOL     OW95039  12.907   7.616   5.765  0.2965  0.1266  0.1025
25810SOL    HW195040  12.886   7.676   5.693  0.6199  1.5730  1.1452
25810SOL    HW295041  12.822   7.590   5.800  0.1486 -0.1669 -0.4625
25811SOL     OW95042   3.759   4.974   7.586 -0.1944 -0.5098  0.1469
25811SOL    HW195043   3.718   4.915   7.523 -0.0248 -1.2256  0.6935
25811SOL    HW295044   3.853   4.958   7.577 -0.1829 -0.8529  0.7915
25812SOL     OW95045   1.397   3.466  10.739  0.4248  0.0378  0.0311
25812SOL    HW195046   1.480   3.421  10.727  1.6094  0.9490  3.5482
25812SOL    HW295047   1.338   3.400  10.775  0.7337  0.2053  0.8525
25813SOL     OW95048   5.898   0.008  10.858 -0.3996 -0.1135 -0.2829
25813SOL    HW195049   5.844   0.035  10.783 -3.1025  0.7354  1.8018
25813SOL    HW295050   5.957   0.082  10.872 -2.0190  1.1534  0.2411
25814SOL     OW95051  10.800  11.236   4.049  0.3692  0.6670 -0.0802
25814SOL    HW195052  10.761  11.196   3.971 -0.6592  1.2363  0.1171
25814SOL    HW295053  10.792  11.170   4.117 -0.8062  0.9727  0.1010
25815SOL     OW95054  12.817   6.468   9.118 -0.2075  0.3069 -0.1534
25815SOL    HW195055  12.829   6.443   9.209  0.6126  0.2583 -0.2685
25815SOL    HW295056  12.879   6.539   9.104  0.8520 -0.7527 -1.0964
25816SOL     OW95057   9.587   7.384   5.355 -0.5555 -0.0425  0.1184
25816SOL    HW195058   9.629   7.466   5.326  0.3400 -0.7951 -0.8069
25816SOL    HW295059   9.536   7.356   5.279 -0.4903 -0.5669  0.2655
25817SOL     OW95060  12.927   0.052  13.147  0.2466 -0.8795  0.0061
25817SOL    HW195061  12.925   0.131  13.093  1.5298 -1.0932 -0.3913
25817SOL    HW295062  12.954   0.083  13.233  0.1537 -0.7995  0.0068
25818SOL     OW95063   6.692   0.776   2.102 -0.5051  0.2495 -0.1861
25818SOL    HW195064   6.770   0.797   2.052 -0.2499 -0.1445  0.0461
25818SOL    HW295065   6.719   0.783   2.194 -0.0990 -2.1743 -0.0728
25819SOL     OW95066   9.564   5.995  11.168 -0.7383  0.4200 -0.1648
25819SOL    HW195067   9.518   5.945  11.236  0.3285  1.8931  1.7505
25819SOL    HW295068   9.636   5.939  11.141  0.0493  0.5827  1.4734
25820SOL     OW95069   9.643   6.258  12.843  0.4787  0.0711  0.2650
25820SOL    HW195070   9.660   6.164  12.833 -0.2437 -0.1477  0.9899
25820SOL    HW295071   9.581   6.278  12.772  0.1449 -0.1392  0.4940
25821SOL     OW95072   0.980  12.388   3.641  0.4110 -0.9148 -0.2547
25821SOL    HW195073   0.973  12.391   3.736 -1.2849 -0.5624 -0.3534
25821SOL    HW295074   1.028  12.467   3.618 -0.6993 -0.0612  0.2364
25822SOL     OW95075  13.510  10.067   0.592 -0.5903  0.2672  0.3335
25822SOL    HW195076  13.451  10.059   0.667 -1.9069  0.9348 -0.5941
25822SOL    HW295077  13.595  10.089   0.631 -0.9259 -0.7391  1.6963
25823SOL     OW95078   4.892   5.768   2.678 -0.3945 -0.7309 -0.0454
25823SOL    HW195079   4.818   5.760   2.738 -0.0472 -0.0646  0.4803
25823SOL    HW295080   4.962   5.717   2.720 -0.5621 -1.4239 -0.5791
25824SOL     OW95081   0.368   0.508  11.934  0.1515  0.2123 -0.5451
25824SOL    HW195082   0.350   0.423  11.892  0.9150  0.4660 -1.3952
25824SOL    HW295083   0.411   0.560  11.867  1.2881  0.6795  0.5132
25825SOL     OW95084   2.007   0.900   4.623 -0.1995  0.2910  0.0156
25825SOL    HW195085   2.024   0.970   4.560 -0.6185  0.9157  0.5893
25825SOL    HW295086   2.032   0.937   4.708  1.3756 -0.8989  0.1312
25826SOL     OW95087  10.291  12.086  11.669  0.4531  0.1904  0.7810
25826SOL    HW195088  10.289  12.149  11.742 -1.2525  1.0798  0.0267
25826SOL    HW295089  10.357  12.120  11.610  0.9590  0.1575  1.3213
25827SOL     OW95090   3.255   6.439   7.012 -0.5340  0.4408 -0.1766
25827SOL    HW195091   3.262   6.534   7.005  0.5954  0.2733 -1.9816
25827SOL    HW295092   3.312   6.416   7.086 -0.8157  1.1568  0.2724
25828SOL     OW95093   5.808   2.510   4.415 -0.1020  0.4980  0.0806
25828SOL    HW195094   5.767   2.438   4.368 -0.6639  0.9911 -0.1984
25828SOL    HW295095   5.795   2.586   4.359  0.0653  0.9121  0.5925
25829SOL     OW95096  12.903  13.156   4.285  0.0263  0.1001  0.3834
25829SOL    HW195097  12.830  13.097   4.266  0.0889 -0.1301  0.8560
25829SOL    HW295098  12.931  13.188   4.199  0.9468 -1.6934 -0.0396
25830SOL     OW95099  12.584  13.749  12.198 -0.8652 -0.3391  0.2873
25830SOL    HW195100  12.488  13.754  12.200 -0.9015 -0.8291 -0.0442
25830SOL    HW295101  12.605  13.719  12.109 -0.2605  2.4225 -0.5953
25831SOL     OW95102   2.057  12.191   3.444  0.2416 -0.2418  0.0639
25831SOL    HW195103   2.123  12.212   3.510  0.9226  0.9658 -0.9692
25831SOL    HW295104   2.013  12.274   3.426 -0.5370 -0.7335 -0.3679
25832SOL     OW95105   9.767  11.776   0.862  0.3903 -0.2683 -0.1357
25832SOL    HW195106   9.718  11.737   0.790 -1.7821 -0.1915  1.2008
25832SOL    HW295107   9.810  11.853   0.823 -0.2562 -0.5531 -1.4609
25833SOL     OW95108   9.051   0.636  11.636  0.4058 -0.1082  0.0723
25833SOL    HW195109   8.975   0.599  11.593 -0.8335  1.7313  0.5606
25833SOL    HW295110   9.020   0.661  11.724  1.3247  1.3375  0.0349
25834SOL     OW95111  10.464   1.479   2.653  0.1481  0.4001  0.7870
25834SOL    HW195112  10.551   1.507   2.625 -0.2271 -0.1322 -1.0494
25834SOL    HW295113  10.407   1.552   2.631 -0.1735 -0.0612  0.0639
25835SOL     OW95114   0.336  10.259   9.297 -0.0217  0.1921 -0.3799
25835SOL    HW195115   0.299  10.280   9.382 -0.9098  0.0887 -0.7248
25835SOL    HW295116   0.374  10.341   9.266 -0.5451  0.4741 -0.2930
25836SOL     OW95117   6.167   0.617  13.283  0.0932  0.5559  0.4978
25836SOL    HW195118   6.103   0.663  13.229 -2.2172 -0.3815  2.2808
25836SOL    HW295119   6.213   0.686  13.330  1.5210  1.3309 -1.8600
25837SOL     OW95120   1.546   7.646   9.036  0.4806  0.5649  0.4752
25837SOL    HW195121   1.578   7.600   9.114 -0.2019 -0.8645 -0.0384
25837SOL    HW295122   1.554   7.582   8.965 -1.4508  0.8605 -0.0818
25838SOL     OW95123   9.064   7.360   6.163 -0.1924 -0.3703  0.0861
25838SOL    HW195124   8.993   7.420   6.183 -0.4987 -0.6342 -0.2082
25838SOL    HW295125   9.091   7.326   6.249 -0.0057  0.1966  0.2532
25839SOL     OW95126   0.836   9.745   5.951  0.2139  0.3074  0.2658
25839SOL    HW195127   0.871   9.809   5.889  1.1306  1.9314  2.3256
25839SOL    HW295128   0.745   9.771   5.964  0.7572  1.7113  1.5985
25840SOL     OW95129   3.429   3.850  11.548 -0.2518  0.3247 -0.5433
25840SOL    HW195130   3.366   3.803  11.603  0.8986 -0.7240 -0.0913
25840SOL    HW295131   3.423   3.941  11.577 -2.1912  0.4479 -1.1254
25841SOL     OW95132   3.061   0.808  11.099 -0.1805 -0.3823  0.5683
25841SOL    HW195133   3.152   0.783  11.079 -0.5791 -1.1639 -0.3743
25841SOL    HW295134   3.050   0.894  11.058  0.5311  0.3739  1.8928
25842SOL     OW95135  12.837   0.934   6.902  0.2738 -0.1224  0.1173
25842SOL    HW195136  12.928   0.912   6.887  0.1630  0.1213 -1.0099
25842SOL    HW295137  12.804   0.866   6.961  1.3773  0.2422  1.1871
25843SOL     OW95138   6.640   4.727   8.982  0.1744 -0.3915  0.2622
25843SOL    HW195139   6.624   4.691   8.894 -1.9078  2.0868 -0.5172
25843SOL    HW295140   6.722   4.686   9.010  1.2494 -0.8643 -3.0732
25844SOL     OW95141   1.625   3.545  10.984  0.8066  0.3645 -0.2623
25844SOL    HW195142   1.535   3.576  10.990  0.6167 -0.2258  0.0902
25844SOL    HW295143   1.678   3.624  10.983  0.3253  0.7062  0.3298
25845SOL     OW95144   9.137   4.165  11.970 -1.2405  0.4015 -0.3066
25845SOL    HW195145   9.230   4.153  11.954 -1.3770 -0.8568 -0.1996
25845SOL    HW295146   9.130   4.257  11.998 -0.2855  1.0490 -2.0344
25846SOL     OW95147   4.348   4.043   2.654  0.6046  0.1403 -0.3104
25846SOL    HW195148   4.380   4.097   2.582  0.5380  0.1930 -0.3009
25846SOL    HW295149   4.305   4.105   2.713  0.9379  0.1435 -0.0671
25847SOL     OW95150  11.119   2.129   5.129 -0.3341  0.6558  0.6907
25847SOL    HW195151  11.119   2.099   5.038  1.8729  1.1582  0.4776
25847SOL    HW295152  11.031   2.164   5.142 -0.0406  2.7291 -1.9962
25848SOL     OW95153   2.197  10.558   6.161 -0.4990 -0.3982 -0.1925
25848SOL    HW195154   2.213  10.466   6.183  2.1587 -0.0547 -0.3229
25848SOL    HW295155   2.236  10.569   6.075 -0.6997  0.8753 -0.1406
25849SOL     OW95156   0.852   3.039   1.826  0.2519  0.0743 -0.5481
25849SOL    HW195157   0.793   3.114   1.832 -1.0909 -1.0081  0.5845
25849SOL    HW295158   0.871   3.017   1.917  0.0310 -1.3894 -0.8403
25850SOL     OW95159   8.504   0.735   5.327 -0.6549 -0.0551 -0.1930
25850SOL    HW195160   8.418   0.764   5.358  0.0944  1.0887  0.9236
25850SOL    HW295161   8.554   0.720   5.407 -0.1214 -1.7727 -0.8037
25851SOL     OW95162  12.464   4.305   7.857  0.2051 -0.2049  1.0420
25851SOL    HW195163  12.395   4.357   7.816 -0.0883 -0.7667  0.8047
25851SOL    HW295164  12.418   4.228   7.892  0.7567 -0.7764  0.5405
25852SOL     OW95165   7.122   3.985   1.247 -0.1016 -0.2832  0.4907
25852SOL    HW195166   7.164   3.981   1.161 -3.2419  1.6201 -1.2766
25852SOL    HW295167   7.124   4.077   1.271 -1.6473 -0.3971  1.1637
25853SOL     OW95168   1.565  12.946   9.991 -0.5620 -0.3615 -0.4564
25853SOL    HW195169   1.490  12.889   9.976 -0.5119 -0.5437 -0.0365
25853SOL    HW295170   1.540  13.001  10.066  0.5351 -1.9356  1.1588
25854SOL     OW95171   1.860  13.815   1.159  0.2880  0.0164  0.0363
25854SOL    HW195172   1.905  13.740   1.198 -0.8028  0.0778  1.4800
25854SOL    HW295173   1.786  13.776   1.112 -0.6201  0.1994  1.2764
25855SOL     OW95174   0.053   8.980   7.725 -0.2241 -0.0735  0.4754
25855SOL    HW195175   0.057   9.068   7.687  0.6811 -0.5009 -0.4381
25855SOL    HW295176   0.144   8.958   7.743 -0.4406 -0.8730  0.5965
25856SOL     OW95177   3.849   0.143   0.142  0.1032 -0.7225 -0.1318
25856SOL    HW195178   3.922   0.167   0.199 -0.3037 -1.1319  0.5697
25856SOL    HW295179   3.890   0.108   0.063  0.6634 -0.8620  0.2212
25857SOL     OW95180  11.922   0.038   0.389  0.2160 -0.3824 -0.0908
25857SOL    HW195181  11.924   0.125   0.348  0.6639 -0.7159 -0.8016
25857SOL    HW295182  11.830   0.023   0.409  0.3037  0.9933  1.6869
25858SOL     OW95183   2.371   7.943  11.314 -0.1810  0.1035  0.2169
25858SOL    HW195184   2.460   7.928  11.282  0.1891  1.4638  0.5486
25858SOL    HW295185   2.359   8.038  11.309 -1.3757  0.0042  0.7971
25859SOL     OW95186  11.981   7.270  13.564 -0.5805 -0.6740 -0.6713
25859SOL    HW195187  12.004   7.361  13.579 -2.9635 -0.1060 -0.0918
25859SOL    HW295188  11.938   7.269  13.478 -1.2148 -1.0921 -0.3619
25860SOL     OW95189   5.392   6.500   5.768  0.3342 -0.3214 -0.6522
25860SOL    HW195190   5.311   6.463   5.734  0.0628  0.5884 -1.0399
25860SOL    HW295191   5.401   6.463   5.856 -0.3086 -0.7128 -0.7454
25861SOL     OW95192   7.193   8.974   0.524 -0.0976 -0.0252  0.4053
25861SOL    HW195193   7.231   8.969   0.437  2.0456  0.6517  1.2311
25861SOL    HW295194   7.226   8.897   0.570  0.2056  0.5273  1.1312
25862SOL     OW95195  13.305  10.654   3.813 -0.5457  0.3758 -0.1429
25862SOL    HW195196  13.336  10.619   3.729  0.0185 -2.0102  0.9791
25862SOL    HW295197  13.282  10.745   3.794  1.9584  0.6645 -2.2896
25863SOL     OW95198   6.409  12.362  12.595 -0.3615  0.2717  0.0500
25863SOL    HW195199   6.452  12.383  12.678  3.2281 -1.6144 -1.1232
25863SOL    HW295200   6.366  12.278  12.611 -2.2318  1.2949  0.7127
25864SOL     OW95201   6.464  10.012   5.410  0.5533 -0.0257 -0.4253
25864SOL    HW195202   6.430  10.030   5.498  0.6231  0.7213 -0.5422
25864SOL    HW295203   6.556   9.992   5.424  0.3556 -0.8177 -0.2357
25865SOL     OW95204   1.553  11.400   3.797  0.0949 -0.2197  0.0637
25865SOL    HW195205   1.620  11.390   3.865 -0.2711  0.3952  0.5192
25865SOL    HW295206   1.470  11.391   3.844 -0.2992  3.4401  0.3454
25866SOL     OW95207   8.104  12.899   9.417 -0.2365 -0.2840  0.0201
25866SOL    HW195208   8.101  12.969   9.481  0.5646 -0.2829  0.0665
25866SOL    HW295209   8.175  12.842   9.446 -0.5590 -0.8573 -0.2826
25867SOL     OW95210   7.082   4.759  12.523  0.4388 -0.0716 -0.8308
25867SOL    HW195211   7.152   4.771  12.459  1.4898 -1.2402  0.0502
25867SOL    HW295212   7.127   4.756  12.608 -0.6748 -0.8292 -0.2439
25868SOL     OW95213   9.374   4.203   5.774 -0.4596  0.0592  0.7875
25868SOL    HW195214   9.400   4.113   5.793  0.2530  0.1446  0.2561
25868SOL    HW295215   9.280   4.197   5.753 -0.5114 -0.4937  1.1567
25869SOL     OW95216  13.121   8.901  10.624 -0.8468 -0.1599 -0.1091
25869SOL    HW195217  13.065   8.945  10.560  0.3701  0.3187 -0.8731
25869SOL    HW295218  13.178   8.970  10.658  0.4361 -0.9421 -0.6088
25870SOL     OW95219   4.127  13.819   8.683  0.3043  0.1161  0.6590
25870SOL    HW195220   4.141  13.806   8.777 -1.3434  0.9072  1.0444
25870SOL    HW295221   4.071  13.896   8.678  0.6876  0.3106 -1.0046
25871SOL     OW95222  12.915   4.180   5.399 -0.6873  0.3504  0.2368
25871SOL    HW195223  12.923   4.133   5.316  0.4645  0.8762  0.0205
25871SOL    HW295224  12.825   4.164   5.427 -0.3688 -1.9206  0.1594
25872SOL     OW95225   1.558  11.649   4.061  0.7835 -0.0186  0.2176
25872SOL    HW195226   1.567  11.556   4.039 -1.8439 -0.7497  1.7461
25872SOL    HW295227   1.627  11.664   4.126  1.0759 -0.9846  0.1571
25873SOL     OW95228   0.282   4.911  10.537  0.3158  0.4561  0.3006
25873SOL    HW195229   0.212   4.944  10.480  0.5840 -2.1078 -1.6854
25873SOL    HW295230   0.241   4.903  10.623 -0.9074  1.9044 -0.1134
25874SOL     OW95231   1.260   5.748   3.071  0.2000 -0.3361  0.3449
25874SOL    HW195232   1.332   5.695   3.103 -1.7299 -2.3515  1.6484
25874SOL    HW295233   1.302   5.822   3.028  2.9954 -0.6347  2.3024
25875SOL     OW95234   2.000   0.641  10.878 -0.8041 -0.8074  0.2273
25875SOL    HW195235   2.091   0.651  10.908 -1.2006 -1.2644  1.6964
25875SOL    HW295236   1.964   0.729  10.882 -0.7304 -0.7948  0.7621
25876SOL     OW95237  12.653   4.127   2.621 -0.7738 -0.1491 -0.1986
25876SOL    HW195238  12.593   4.055   2.602 -1.8520 -0.1229  2.5849
25876SOL    HW295239  12.654   4.133   2.717  1.3410  1.8472 -0.2451
25877SOL     OW95240   8.380  10.994   7.951 -0.3065  0.5562 -0.0575
25877SOL    HW195241   8.317  10.962   8.015  0.1265 -1.2145 -0.4638
25877SOL    HW295242   8.462  10.951   7.975  0.3086  1.3502 -0.6817
25878SOL     OW95243   3.941   4.767   0.974  0.3671  0.2396  0.0256
25878SOL    HW195244   3.919   4.706   0.904 -0.8022  0.6878 -0.0280
25878SOL    HW295245   3.856   4.800   1.004  0.9709  2.1483 -0.2406
25879SOL     OW95246   6.978   7.743   0.581 -0.0008  0.5379 -0.4134
25879SOL    HW195247   6.998   7.793   0.660 -1.4389  0.5101  0.0016
25879SOL    HW295248   6.954   7.809   0.516 -0.4568  0.4769 -0.3107
25880SOL     OW95249   0.008  11.337  11.902 -0.0673 -1.0928  0.6193
25880SOL    HW195250  -0.058  11.383  11.850  0.4364 -1.3088 -0.2427
25880SOL    HW295251  -0.040  11.304  11.978 -0.7264 -0.3593  0.5353
25881SOL     OW95252   1.209   6.938  13.352  0.0054 -0.3176  0.2632
25881SOL    HW195253   1.270   6.965  13.284 -0.1207  1.4316  0.7945
25881SOL    HW295254   1.260   6.943  13.433 -0.5862  0.3813  0.6132
25882SOL     OW95255  13.429  11.002   2.987 -0.1726  0.0070  0.4367
25882SOL    HW195256  13.452  11.093   2.971  1.4236 -0.3577  0.5120
25882SOL    HW295257  13.405  10.999   3.080 -1.5350  0.5740  0.1323
25883SOL     OW95258  13.302   3.788  12.598 -0.0845  0.6019 -0.4350
25883SOL    HW195259  13.209   3.800  12.581  0.0377  0.9370 -0.8935
25883SOL    HW295260  13.336   3.877  12.609  0.0348  0.4447  0.5621
25884SOL     OW95261  11.933   5.406  13.731 -0.1364  0.1744 -0.4494
25884SOL    HW195262  11.883   5.330  13.702  0.7437 -1.2560  1.5416
25884SOL    HW295263  11.881   5.481  13.704 -1.7456 -1.1672 -1.2466
25885SOL     OW95264  13.127  13.918   3.760  0.0788 -0.4517  0.1485
25885SOL    HW195265  13.209  13.966   3.763  0.4246 -0.9880 -0.4687
25885SOL    HW295266  13.059  13.985   3.770  0.5330  0.2180 -1.0153
25886SOL     OW95267  13.637   4.743  12.902  0.0103  0.0021 -0.0504
25886SOL    HW195268  13.729   4.770  12.904  0.2334 -0.7234  2.0002
25886SOL    HW295269  13.638   4.651  12.877 -0.1677  0.0281 -0.1590
25887SOL     OW95270   5.004   7.102   4.688 -0.1876 -0.0122  0.1259
25887SOL    HW195271   5.015   7.014   4.652  2.1864 -0.6175  2.0354
25887SOL    HW295272   4.954   7.088   4.769 -0.8812  0.5975 -0.1864
25888SOL     OW95273   8.362   0.555  11.214  0.3864  0.4339 -0.4042
25888SOL    HW195274   8.297   0.600  11.270 -0.0910  2.3362 -2.3441
25888SOL    HW295275   8.314   0.536  11.133  0.9519 -2.6066 -0.1528
25889SOL     OW95276   3.780   6.285   6.709  0.3139 -0.2061 -0.0229
25889SOL    HW195277   3.795   6.355   6.772 -1.6288  0.8256 -0.6076
25889SOL    HW295278   3.815   6.319   6.627 -1.3320  0.4781 -0.4838
25890SOL     OW95279   6.890  13.185   5.230 -0.1478  0.5465  0.7938
25890SOL    HW195280   6.920  13.257   5.174 -0.4640  0.5929  0.6858
25890SOL    HW295281   6.809  13.218   5.270 -0.2875  0.2532  0.7498
25891SOL     OW95282   6.455   1.002   1.508  0.3079  0.6183 -0.7569
25891SOL    HW195283   6.547   1.006   1.483  0.4852  2.1709  0.0083
25891SOL    HW295284   6.454   0.952   1.590  0.3570 -0.0296 -1.1410
25892SOL     OW95285   1.437   6.448   9.408 -0.0036  0.1753 -0.1020
25892SOL    HW195286   1.469   6.381   9.348  1.3219  0.2742  0.4512
25892SOL    HW295287   1.449   6.530   9.360 -0.3988  0.1257 -0.2857
25893SOL     OW95288  12.187  11.936   0.371  0.6818 -0.0307  0.5931
25893SOL    HW195289  12.207  11.965   0.282  2.3318 -1.0531  0.5676
25893SOL    HW295290  12.092  11.941   0.378  0.6851  2.8137 -0.2307
25894SOL     OW95291  11.584   7.268   4.458 -0.0113 -0.4816 -0.6579
25894SOL    HW195292  11.633   7.190   4.431 -0.6281 -1.2989  0.5080
25894SOL    HW295293  11.493   7.240   4.460  0.0418 -0.7490  2.9654
25895SOL     OW95294   6.102   9.606  11.631  0.4900 -0.3970 -0.4849
25895SOL    HW195295   6.150   9.533  11.594  0.2165 -1.1652  0.6161
25895SOL    HW295296   6.077   9.660  11.556  0.5189 -1.5470 -1.3384
25896SOL     OW95297   8.892   0.085  11.949 -0.4630 -1.1231  0.6758
25896SOL    HW195298   8.839   0.154  11.988 -0.2330 -0.1944 -0.5844
25896SOL    HW295299   8.976   0.091  11.995  0.2467  0.8084 -0.7009
25897SOL     OW95300   2.300   6.493   8.773  0.3274 -0.0214  0.5009
25897SOL    HW195301   2.383   6.536   8.751  1.3670 -1.6272  1.0991
25897SOL    HW295302   2.261   6.471   8.689 -0.0079  1.6186  0.1896
25898SOL     OW95303   2.718   7.237   1.660 -0.1265  0.2627 -0.3571
25898SOL    HW195304   2.724   7.322   1.705  0.6847 -1.1941  2.5610
25898SOL    HW295305   2.801   7.229   1.614  0.1629  0.7019  0.0734
25899SOL     OW95306  12.997  12.604  12.118 -0.2932  0.1538  0.0050
25899SOL    HW195307  12.914  12.557  12.127 -0.3465  0.2622  0.0838
25899SOL    HW295308  12.989  12.653  12.036 -1.1058  1.7451  0.9816
25900SOL     OW95309   9.134   4.611   5.650  0.4285  0.0381  0.0221
25900SOL    HW195310   9.148   4.687   5.594 -2.2421 -0.5152 -1.5820
25900SOL    HW295311   9.085   4.645   5.725 -0.0643  0.0579 -0.3022
25901SOL     OW95312   1.122   3.339   7.662 -0.1790  0.0150 -0.1764
25901SOL    HW195313   1.154   3.290   7.737  0.9649  1.4372  0.3104
25901SOL    HW295314   1.040   3.378   7.692  0.4188  0.8183  0.4746
25902SOL     OW95315   3.149   4.538   1.076  0.2644  0.1082 -0.5952
25902SOL    HW195316   3.212   4.495   1.018  1.0438  0.0731  0.2532
25902SOL    HW295317   3.067   4.537   1.027  0.5291 -1.3167 -1.0726
25903SOL     OW95318   8.479   5.002   2.531 -0.1259  0.2175 -0.0608
25903SOL    HW195319   8.548   4.971   2.589 -0.1647  0.1363 -0.0579
25903SOL    HW295320   8.521   5.068   2.476  0.6266 -1.6188 -1.8217
25904SOL     OW95321   2.672   9.630   3.248  0.4433 -0.4924 -0.1065
25904SOL    HW195322   2.714   9.575   3.314 -0.4801 -2.4450 -1.0431
25904SOL    HW295323   2.594   9.580   3.223  0.6377  0.2904 -2.4689
25905SOL     OW95324   4.914   2.677  11.904  0.1808 -0.2346 -0.2301
25905SOL    HW195325   4.920   2.720  11.819  2.7083 -2.4757 -1.3330
25905SOL    HW295326   4.909   2.584  11.883 -1.1774 -0.7683  2.1023
25906SOL     OW95327   3.062   5.292  14.072  0.1610 -0.6266  0.5358
25906SOL    HW195328   3.126   5.290  14.001 -1.6889 -1.4238 -1.1980
25906SOL    HW295329   3.037   5.200  14.084 -2.4306 -0.1409 -0.5805
25907SOL     OW95330  12.448  11.048  10.545  0.0510 -0.1980 -0.2743
25907SOL    HW195331  12.517  11.048  10.479  1.0109  0.3758  0.7120
25907SOL    HW295332  12.379  11.103  10.507  1.3135  1.6116 -0.1050
25908SOL     OW95333  13.333  13.658   2.903 -0.3659  0.5882 -0.2298
25908SOL    HW195334  13.378  13.691   2.981 -0.7705 -0.8698  0.6487
25908SOL    HW295335  13.382  13.696   2.830 -0.1547  2.2075  0.7158
25909SOL     OW95336   6.392  11.673   1.284  0.3512 -0.4569  0.3709
25909SOL    HW195337   6.434  11.595   1.321  0.2356 -0.8776 -0.3594
25909SOL    HW295338   6.358  11.720   1.360 -0.0796 -1.4119  0.7862
25910SOL     OW95339   4.431   2.528   9.011  0.6567  0.2754  0.2309
25910SOL    HW195340   4.471   2.541   9.097  1.8932 -0.5629 -0.1919
25910SOL    HW295341   4.380   2.448   9.020  0.7801  0.1918  0.1964
25911SOL     OW95342  11.880   7.933  11.811  0.3747  0.2344  0.0283
25911SOL    HW195343  11.913   8.022  11.815  1.2155 -0.0976  2.3868
25911SOL    HW295344  11.823   7.925  11.888 -0.1712 -1.0727 -0.4766
25912SOL     OW95345  11.515   2.650  13.346 -0.3376  0.0929 -0.4370
25912SOL    HW195346  11.434   2.670  13.298  0.4064  0.5080 -1.5650
25912SOL    HW295347  11.576   2.622  13.278  1.3922  2.5999 -0.0579
25913SOL     OW95348   4.123   5.459  11.080  0.1553 -0.1609 -0.0886
25913SOL    HW195349   4.148   5.419  10.997  0.4741  0.2382 -0.1851
25913SOL    HW295350   4.132   5.553  11.066  0.4978 -0.1013  0.4933
25914SOL     OW95351   1.367   5.705   1.508  0.4571 -0.1095 -0.1547
25914SOL    HW195352   1.394   5.788   1.546  0.6449 -0.0613 -0.3931
25914SOL    HW295353   1.393   5.711   1.416 -0.2821 -0.0968 -0.3697
25915SOL     OW95354  10.967  11.575   9.190  0.6244  0.2170 -0.0309
25915SOL    HW195355  10.914  11.584   9.269  0.6437 -0.3301  0.0516
25915SOL    HW295356  10.952  11.655   9.140 -1.4391 -0.5298 -0.7197
25916SOL     OW95357   8.605   5.458   2.807 -0.0455 -0.3302 -0.0669
25916SOL    HW195358   8.642   5.396   2.746  1.9877  1.2198 -0.5196
25916SOL    HW295359   8.597   5.410   2.889  0.5062 -1.4663 -0.6626
25917SOL     OW95360   6.936   0.611   2.849  0.2027 -0.1359  0.2621
25917SOL    HW195361   7.029   0.630   2.856  0.1640  0.3575 -0.4635
25917SOL    HW295362   6.911   0.579   2.936  1.3124 -1.5261  0.1153
25918SOL     OW95363   7.038   0.416   7.820  0.1189 -0.6861 -0.3565
25918SOL    HW195364   7.115   0.397   7.873 -1.1924 -3.9248  0.6379
25918SOL    HW295365   7.055   0.372   7.736 -0.8982 -2.1646  0.1666
25919SOL     OW95366   6.020   7.093   1.938 -0.3301  0.2049  0.0268
25919SOL    HW195367   5.931   7.077   1.972 -0.0285 -1.1753  0.2130
25919SOL    HW295368   6.043   7.013   1.891  1.2382  0.1034  0.9013
25920SOL     OW95369   6.491  12.783   0.303  0.0290  0.5749  0.1888
25920SOL    HW195370   6.429  12.755   0.371 -0.6196 -0.6584 -0.8620
25920SOL    HW295371   6.477  12.721   0.232  1.6731  0.9908 -0.5353
25921SOL     OW95372   8.830  13.223   9.680 -0.3596 -0.3978 -0.1451
25921SOL    HW195373   8.882  13.281   9.737 -0.5290  0.0979 -0.4863
25921SOL    HW295374   8.750  13.207   9.729 -0.4811 -0.0171 -0.2185
25922SOL     OW95375  11.899   1.839   1.017  0.5660 -0.2619 -1.2989
25922SOL    HW195376  11.975   1.896   1.005  1.5289 -0.9347  1.0298
25922SOL    HW295377  11.937   1.752   1.033 -0.6810 -0.6083 -0.0426
25923SOL     OW95378  13.211  11.376   0.474 -0.3499  0.0906  0.3673
25923SOL    HW195379  13.181  11.457   0.516 -1.1891  0.0879 -0.1907
25923SOL    HW295380  13.277  11.341   0.533 -0.3980  0.8804  0.9091
25924SOL     OW95381   9.407   5.568   3.432 -0.0468  0.2464 -0.3430
25924SOL    HW195382   9.456   5.637   3.476  0.8581 -0.1525 -0.7059
25924SOL    HW295383   9.458   5.488   3.447  0.1073  0.0383 -1.8079
25925SOL     OW95384   7.407   4.798  11.261  0.1388  0.3862 -0.0064
25925SOL    HW195385   7.492   4.839  11.245  0.2329 -0.5681 -2.2685
25925SOL    HW295386   7.395   4.804  11.356  3.9301 -1.7399  0.8177
25926SOL     OW95387   2.473  11.067   9.932  0.3909  0.2899  0.7047
25926SOL    HW195388   2.421  11.094   9.856 -0.2457 -0.5327  0.8406
25926SOL    HW295389   2.509  10.981   9.908  2.4962  1.2227  0.2305
25927SOL     OW95390  11.398  13.136  14.002 -0.0992  0.4367  0.8923
25927SOL    HW195391  11.475  13.139  14.060  0.2912 -0.1599  0.4283
25927SOL    HW295392  11.330  13.094  14.054 -0.0779  0.8626  1.2680
25928SOL     OW95393  13.567   8.261   3.689  0.0425 -0.0314  0.0362
25928SOL    HW195394  13.500   8.318   3.724  2.5630  2.0110  1.9319
25928SOL    HW295395  13.637   8.321   3.662  1.5272 -2.0768 -0.9028
25929SOL     OW95396   4.104   7.582   1.513  0.1987 -0.1324  0.4096
25929SOL    HW195397   4.033   7.646   1.511  0.5103  0.2094  0.1494
25929SOL    HW295398   4.128   7.574   1.605 -0.1007 -0.1675  0.4861
25930SOL     OW95399  11.738   0.477   8.362  0.1652 -0.6367  0.2562
25930SOL    HW195400  11.825   0.517   8.362  0.5628 -1.4998  0.4631
25930SOL    HW295401  11.710   0.481   8.270 -0.3209  1.1929  0.4317
25931SOL     OW95402  12.778   2.453   1.779  0.2388  0.5026 -0.1396
25931SOL    HW195403  12.860   2.494   1.808  0.2528  0.6207 -0.3456
25931SOL    HW295404  12.759   2.493   1.695  0.8195 -0.6723 -0.8570
25932SOL     OW95405   4.381  12.247   5.370  0.2662 -0.3777 -0.6065
25932SOL    HW195406   4.362  12.218   5.460  1.6412 -1.3883 -0.6133
25932SOL    HW295407   4.440  12.322   5.382 -0.2411  0.0377 -0.6649
25933SOL     OW95408   5.784   1.709  11.394  0.5872  0.1852  0.4597
25933SOL    HW195409   5.821   1.776  11.453 -1.0275  2.0003 -0.4817
25933SOL    HW295410   5.710   1.672  11.444 -0.4353  1.3316 -0.1542
25934SOL     OW95411   1.249  10.039   9.916 -0.1571 -0.2979 -0.1561
25934SOL    HW195412   1.309  10.079   9.979  0.0154 -0.9023  0.0664
25934SOL    HW295413   1.306  10.003   9.848 -0.3288  0.1137 -0.5225
25935SOL     OW95414  13.262  13.264  13.626  0.3870 -0.7185 -0.6576
25935SOL    HW195415  13.195  13.310  13.576  0.1491 -2.6875 -2.2960
25935SOL    HW295416  13.313  13.334  13.669 -1.9674  0.8676 -0.2541
25936SOL     OW95417   3.803   2.932   9.530  0.7004  0.1133  0.3925
25936SOL    HW195418   3.832   3.023   9.516 -1.4815  0.7482 -0.2902
25936SOL    HW295419   3.709   2.938   9.540  0.3558 -2.2045 -0.7655
25937SOL     OW95420   4.971   8.649   4.298 -0.0283  0.0544  0.1559
25937SOL    HW195421   4.897   8.706   4.277  0.2899  0.9696  1.4116
25937SOL    HW295422   4.994   8.672   4.388  1.7711 -0.2280 -0.2070
25938SOL     OW95423   8.470  12.778  10.127  0.0675 -0.0734  0.0969
25938SOL    HW195424   8.444  12.732  10.048 -2.5789  0.4432  0.5762
25938SOL    HW295425   8.540  12.724  10.164  0.5580 -0.9390 -1.9373
25939SOL     OW95426   5.208  11.998   6.887 -0.7060  0.2735 -0.1788
25939SOL    HW195427   5.214  11.971   6.979  0.1004 -1.0154 -0.5936
25939SOL    HW295428   5.239  12.088   6.887 -0.2447  0.1256  0.7427
25940SOL     OW95429   8.344   6.404   1.750  1.0774 -0.1859 -0.0195
25940SOL    HW195430   8.438   6.396   1.731  1.0178 -1.2186  0.0715
25940SOL    HW295431   8.339   6.400   1.845  0.9936  0.5177  0.0069
25941SOL     OW95432  10.400   7.399   3.678 -0.1965  0.4743  0.2328
25941SOL    HW195433  10.388   7.395   3.583  1.3013  1.5097 -0.0290
25941SOL    HW295434  10.430   7.311   3.702  0.6628  0.5611 -0.4663
25942SOL     OW95435   7.269   8.376   0.285  0.1964 -0.4467  0.0698
25942SOL    HW195436   7.329   8.350   0.355  2.4441 -0.4140 -1.7101
25942SOL    HW295437   7.293   8.467   0.266 -0.4248 -0.4301 -0.6818
25943SOL     OW95438   4.043   2.839   2.067 -0.2516 -0.0264 -0.0091
25943SOL    HW195439   3.955   2.828   2.030  0.4209 -0.7752 -1.4659
25943SOL    HW295440   4.068   2.752   2.096 -0.0207  0.2063  0.5119
25944SOL     OW95441  11.881   6.498   2.481  0.2768 -0.6095  0.1193
25944SOL    HW195442  11.912   6.585   2.506  1.4693  0.1167 -3.3763
25944SOL    HW295443  11.805   6.514   2.426 -0.0568 -1.8573  0.1936
25945SOL     OW95444  12.991   1.614  12.941  0.0794  1.2261 -0.1051
25945SOL    HW195445  13.029   1.625  13.029  2.2625 -0.7844 -0.6946
25945SOL    HW295446  13.066   1.593  12.885 -1.7983 -3.3787 -1.3320
25946SOL     OW95447   8.906  13.160   8.007 -0.3778 -0.4471 -0.3592
25946SOL    HW195448   8.969  13.197   8.069 -0.8120  2.6493 -1.5522
25946SOL    HW295449   8.959  13.131   7.933 -0.0871 -1.3880  0.2095
25947SOL     OW95450   5.794  13.694  11.863 -0.0656 -0.0267  0.5066
25947SOL    HW195451   5.853  13.768  11.881  1.0487 -0.1780 -2.0411
25947SOL    HW295452   5.850  13.617  11.874  0.2152 -0.1867 -1.6374
25948SOL     OW95453   0.940   4.535   4.694 -0.3342  0.9259 -0.3099
25948SOL    HW195454   0.881   4.609   4.706 -1.4882 -0.2748  1.8966
25948SOL    HW295455   1.028   4.572   4.707 -0.9790  1.6485  2.7179
25949SOL     OW95456   6.936   9.477   1.571 -0.5511  0.1842 -0.3070
25949SOL    HW195457   6.952   9.519   1.487 -0.0217 -1.0970 -0.8836
25949SOL    HW295458   7.009   9.416   1.582 -1.6749 -1.1737  0.0758
25950SOL     OW95459   2.864   0.672   1.384  0.0943  0.5795 -0.1461
25950SOL    HW195460   2.783   0.721   1.397 -0.6835 -0.7449  0.0844
25950SOL    HW295461   2.837   0.581   1.379  1.2580  0.2745 -2.6776
25951SOL     OW95462   2.175   2.663   4.312 -0.4007 -0.0688 -0.0803
25951SOL    HW195463   2.129   2.716   4.246 -0.7708 -2.2834 -1.7059
25951SOL    HW295464   2.105   2.620   4.361 -0.1200  1.2851  1.6535
25952SOL     OW95465  12.656   9.370   3.585 -0.1163 -0.2485  0.4654
25952SOL    HW195466  12.591   9.303   3.607 -0.2254 -0.4265 -0.3705
25952SOL    HW295467  12.654   9.376   3.490 -0.1070  0.9506  0.5173
25953SOL     OW95468   9.705  11.880   2.366 -0.3077  0.1607 -0.2365
25953SOL    HW195469   9.769  11.872   2.295  0.1108 -0.4284  0.1975
25953SOL    HW295470   9.683  11.790   2.389 -0.8495  0.3532  0.0260
25954SOL     OW95471  13.243   3.806   2.805  0.5261 -0.0771 -0.0860
25954SOL    HW195472  13.155   3.771   2.822  0.3294  0.1879 -0.5370
25954SOL    HW295473  13.239   3.897   2.831  0.3009  0.2614 -1.2288
25955SOL     OW95474   7.053   2.735   8.925 -0.2694 -0.2386 -0.0429
25955SOL    HW195475   7.094   2.784   8.996  0.5823 -0.6188 -0.2572
25955SOL    HW295476   7.044   2.646   8.959  0.0751 -0.4065 -0.3823
25956SOL     OW95477  10.784  12.106   3.654 -0.2712  0.2806 -0.0075
25956SOL    HW195478  10.789  12.187   3.704 -2.8951  0.8636 -0.5228
25956SOL    HW295479  10.774  12.135   3.563  1.5696 -0.7190 -0.5847
25957SOL     OW95480  10.956  10.505   4.553 -0.5668  0.6395 -0.1436
25957SOL    HW195481  10.863  10.499   4.572 -0.3568  2.6257  2.0915
25957SOL    HW295482  10.990  10.417   4.567 -1.7740  0.3797  1.3386
25958SOL     OW95483   4.022  11.714   4.049  0.1104  0.1936 -0.5009
25958SOL    HW195484   3.987  11.802   4.060  0.6879  0.8371 -3.0727
25958SOL    HW295485   4.114  11.721   4.073 -0.1710 -0.0889  0.7006
25959SOL     OW95486  11.324   8.365   3.008 -0.5741  0.3531  0.1367
25959SOL    HW195487  11.234   8.399   3.006 -1.9049 -2.9010 -0.8118
25959SOL    HW295488  11.315   8.275   3.040  2.2972 -0.2851 -0.6121
25960SOL     OW95489   3.978  11.513   4.249  0.1647  0.1186 -0.4108
25960SOL    HW195490   3.955  11.433   4.200  0.6358 -0.2787 -0.0008
25960SOL    HW295491   4.058  11.544   4.207  0.9192 -0.5668  0.4674
25961SOL     OW95492   0.786   1.226   5.823  0.5808  0.3119  0.0495
25961SOL    HW195493   0.861   1.211   5.765 -0.0321  1.2425 -1.0378
25961SOL    HW295494   0.747   1.308   5.791 -1.4214 -0.5976 -0.0449
25962SOL     OW95495  11.915  13.373  12.593 -0.7310  0.2410  0.1399
25962SOL    HW195496  12.001  13.368  12.553 -0.2541 -2.6729  1.2623
25962SOL    HW295497  11.931  13.410  12.680 -0.8767  1.2297 -0.2511
25963SOL     OW95498   5.777  13.410   1.634 -0.4570  0.4540  0.1248
25963SOL    HW195499   5.869  13.384   1.634 -0.3272  0.9126  0.0455
25963SOL    HW295500   5.742  13.373   1.715 -1.2189 -3.2468 -1.6795
25964SOL     OW95501   4.816   7.388  14.079 -0.4611 -0.0436  0.2548
25964SOL    HW195502   4.789   7.311  14.028 -0.1003 -0.3194  0.4698
25964SOL    HW295503   4.876   7.435  14.020  0.2409 -0.5530  0.5426
25965SOL     OW95504  13.028   9.522   4.420  0.0126 -0.0380  0.1408
25965SOL    HW195505  12.947   9.573   4.416 -0.0863 -0.2585 -1.9351
25965SOL    HW295506  13.017   9.465   4.496 -0.3865  2.1150  1.7932
25966SOL     OW95507   3.725   0.408   4.776  0.0658  0.3008  0.0736
25966SOL    HW195508   3.740   0.457   4.857  1.3145 -0.1080  0.1220
25966SOL    HW295509   3.748   0.469   4.706 -1.3690  0.7769 -0.0130
25967SOL     OW95510  12.178   3.438   7.159  0.1408 -0.1103  0.6522
25967SOL    HW195511  12.131   3.380   7.219  0.1026 -2.7308 -1.7044
25967SOL    HW295512  12.113   3.503   7.132 -0.9740 -1.2127  0.5731
25968SOL     OW95513  10.830   0.497  10.251 -0.2152 -0.0145 -0.7690
25968SOL    HW195514  10.749   0.493  10.199 -1.0903  0.9408  0.4768
25968SOL    HW295515  10.885   0.428  10.214 -1.3342 -0.2492 -2.0797
25969SOL     OW95516   6.152   9.802  13.346  0.0052  0.2078 -0.2980
25969SOL    HW195517   6.237   9.758  13.350 -0.0724  0.1462  1.7594
25969SOL    HW295518   6.093   9.744  13.394 -1.0827  0.5403 -1.1942
25970SOL     OW95519   4.684  12.573   1.949 -0.3836 -0.3886 -0.3132
25970SOL    HW195520   4.633  12.569   2.029  0.5607  0.7511  0.3858
25970SOL    HW295521   4.744  12.498   1.954 -0.6561 -0.5973 -0.1912
25971SOL     OW95522   4.300   4.789   9.993 -0.1219 -0.0382 -0.7808
25971SOL    HW195523   4.385   4.756   9.964  0.3735  0.8545 -0.3740
25971SOL    HW295524   4.255   4.712  10.029  1.0986 -0.2231  0.3938
25972SOL     OW95525   5.805  12.348   0.337  0.5364  0.3428 -0.4441
25972SOL    HW195526   5.805  12.253   0.352  0.5070  0.3664 -0.2890
25972SOL    HW295527   5.783  12.385   0.422 -0.1029  0.4670 -0.6617
25973SOL     OW95528  12.898   5.215   1.114  0.1869  0.5801 -0.5205
25973SOL    HW195529  12.855   5.133   1.090 -1.0870  1.3839 -1.1564
25973SOL    HW295530  12.828   5.268   1.153  1.0613  1.2321  0.2018
25974SOL     OW95531  11.352   3.320   6.945  0.2488 -0.1655  0.4461
25974SOL    HW195532  11.351   3.249   6.881  0.5328  0.0490  0.2030
25974SOL    HW295533  11.306   3.392   6.901  0.4946  0.0013  0.4595
25975SOL     OW95534   0.141   2.176  13.941  0.1655 -0.3417  0.1616
25975SOL    HW195535   0.212   2.118  13.914 -0.1854  0.0452 -1.6794
25975SOL    HW295536   0.184   2.245  13.991  0.8347 -1.0908  0.6545
25976SOL     OW95537   4.606  12.005   7.223 -0.2648  0.2350 -0.4980
25976SOL    HW195538   4.570  11.941   7.285 -1.2865  0.5458 -0.7581
25976SOL    HW295539   4.532  12.031   7.169  0.2222  1.3513 -0.6616
25977SOL     OW95540   9.847   4.575  13.768 -0.0928 -0.0092 -0.1807
25977SOL    HW195541   9.878   4.511  13.833  0.7017  0.2467 -0.2932
25977SOL    HW295542   9.908   4.649  13.777 -0.7464  0.5631 -0.3413
25978SOL     OW95543   0.196   8.214   9.980  0.0665  0.1877  0.1218
25978SOL    HW195544   0.136   8.204  10.054  0.4978  0.6346  0.5380
25978SOL    HW295545   0.145   8.262   9.915  0.4322  1.9629  1.0689
25979SOL     OW95546   9.337   9.454   4.262 -0.1815 -0.7503 -0.2337
25979SOL    HW195547   9.296   9.530   4.302  0.5127 -0.4202 -0.1223
25979SOL    HW295548   9.286   9.436   4.184  0.3245  0.5507 -0.9026
25980SOL     OW95549   3.593  12.650  13.981  0.0583  0.3052 -0.5109
25980SOL    HW195550   3.667  12.589  13.986  0.0743  0.3746  0.2539
25980SOL    HW295551   3.516  12.594  13.987  0.0570  0.2884 -0.6748
25981SOL     OW95552  11.491   8.339   2.794  0.0484 -0.1445  0.0605
25981SOL    HW195553  11.428   8.340   2.867 -1.3168 -1.7425 -1.0143
25981SOL    HW295554  11.577   8.340   2.837 -0.6950  0.8765  1.6199
25982SOL     OW95555   1.766   4.123   4.565  0.0386 -0.0057  0.4080
25982SOL    HW195556   1.731   4.129   4.654 -0.3044  0.7222  0.2320
25982SOL    HW295557   1.750   4.033   4.538  1.3795 -0.6292  1.5828
25983SOL     OW95558  13.201   1.633   0.424 -0.1997  0.0083 -0.0907
25983SOL    HW195559  13.182   1.717   0.465 -1.4276 -0.3153  0.0650
25983SOL    HW295560  13.256   1.587   0.487 -0.3732  0.3075  0.2858
25984SOL     OW95561  13.437   3.397  13.042  0.0469  0.0849  0.7686
25984SOL    HW195562  13.433   3.363  12.953 -1.9139 -1.1832  1.2970
25984SOL    HW295563  13.455   3.491  13.031  1.2153 -0.2906 -0.8715
25985SOL     OW95564  11.876   4.167   7.044 -0.0120  0.6457  0.0124
25985SOL    HW195565  11.916   4.224   7.110  0.0411 -0.1653  0.6950
25985SOL    HW295566  11.799   4.215   7.014  0.8048  1.7104 -0.4708
25986SOL     OW95567   9.976  13.300   5.076  0.0449 -0.1060 -0.1131
25986SOL    HW195568  10.007  13.288   5.165  0.3488  0.9521 -0.0534
25986SOL    HW295569   9.899  13.245   5.069  0.4426 -0.7662  0.5633
25987SOL     OW95570   6.684   9.318  13.612  0.2301 -0.2579  0.1417
25987SOL    HW195571   6.703   9.231  13.648 -0.0284 -0.4909 -0.2793
25987SOL    HW295572   6.742   9.326  13.536 -0.3228 -0.3953 -0.3012
25988SOL     OW95573  13.455   0.532   0.284  0.0933  0.4946  0.1216
25988SOL    HW195574  13.461   0.609   0.227  0.9605  0.0638 -0.3865
25988SOL    HW295575  13.515   0.550   0.356  2.7960 -0.9996 -1.5961
25989SOL     OW95576   8.293  11.639   0.208  0.0640  0.0289  0.2785
25989SOL    HW195577   8.318  11.726   0.177 -0.1602 -0.0519 -0.1385
25989SOL    HW295578   8.296  11.646   0.303 -0.1427  0.5477  0.2504
25990SOL     OW95579  12.929   4.797   0.582  0.3138  0.8873  0.3803
25990SOL    HW195580  12.883   4.737   0.640  1.2414 -1.1648 -0.8854
25990SOL    HW295581  13.022   4.783   0.601  0.8377 -1.6073 -2.9797
25991SOL     OW95582   4.152   2.799   5.727  0.3330  0.4382  0.8758
25991SOL    HW195583   4.075   2.743   5.737  1.4198 -1.2205  0.3605
25991SOL    HW295584   4.225   2.744   5.753  1.5969  1.2147 -0.8512
25992SOL     OW95585   8.416   9.216   0.268  0.0494 -0.7175  0.7410
25992SOL    HW195586   8.445   9.209   0.359 -0.7805 -4.4538  0.8756
25992SOL    HW295587   8.474   9.157   0.220 -1.1943 -0.8448 -0.6716
25993SOL     OW95588  10.926   8.124   6.204  0.0098  0.3179 -0.2317
25993SOL    HW195589  10.859   8.132   6.136 -0.5142 -0.1493  0.2133
25993SOL    HW295590  10.882   8.076   6.275 -0.0288  2.3177  1.1652
25994SOL     OW95591  11.813   2.336   3.310  0.4133 -0.3992 -0.7698
25994SOL    HW195592  11.742   2.343   3.374 -0.2352 -1.0922 -1.3872
25994SOL    HW295593  11.778   2.278   3.242  0.7721  0.9031 -2.1356
25995SOL     OW95594   7.188   5.842   3.458 -0.4582 -0.3812 -0.2441
25995SOL    HW195595   7.236   5.798   3.529  0.4224  0.0141 -0.5704
25995SOL    HW295596   7.122   5.895   3.503 -0.0526 -0.3073  0.2784
25996SOL     OW95597   5.541   2.535   5.117 -0.2141  1.2844  0.3114
25996SOL    HW195598   5.473   2.520   5.052 -1.0779  1.9529  1.0501
25996SOL    HW295599   5.593   2.608   5.081 -0.0513  0.9670 -0.1085
25997SOL     OW95600  12.227  13.171   5.805  0.5745 -0.1747 -0.1079
25997SOL    HW195601  12.199  13.209   5.721 -0.0985  0.1284  0.2479
25997SOL    HW295602  12.270  13.089   5.781  0.8900  0.1850 -0.7940
25998SOL     OW95603   8.248  13.657   4.085  0.3863 -0.3311  1.0688
25998SOL    HW195604   8.192  13.587   4.118  1.8035 -1.5519  1.0105
25998SOL    HW295605   8.224  13.665   3.992 -0.1400 -0.3855  1.1991
25999SOL     OW95606   4.952  10.624  12.405  0.2661  0.0355 -0.2320
25999SOL    HW195607   4.991  10.577  12.332  0.8051 -0.8302  0.5846
25999SOL    HW295608   4.858  10.629  12.384  0.5373  0.5655 -1.3653
26000SOL     OW95609   8.603   3.106   7.687 -0.0639 -0.8274 -0.2671
26000SOL    HW195610   8.644   3.061   7.613  2.2520  1.0033 -0.2018
26000SOL    HW295611   8.510   3.089   7.677  0.2830 -1.5282 -2.9905
26001SOL     OW95612   2.212   3.156   4.373  0.2013 -0.0292 -0.5561
26001SOL    HW195613   2.295   3.198   4.350 -0.1554  0.6233 -0.6572
26001SOL    HW295614   2.238   3.081   4.427  0.7952  1.1908  0.9517
26002SOL     OW95615   5.995   3.393   6.896 -0.5357 -0.1296  0.2933
26002SOL    HW195616   6.008   3.459   6.964  1.3616 -1.6865  1.5634
26002SOL    HW295617   5.901   3.375   6.899 -0.8477  1.3899  0.9679
26003SOL     OW95618   5.583   1.268   8.998 -0.2676  0.3927 -0.2923
26003SOL    HW195619   5.554   1.228   8.916  0.1212  0.9623 -0.7137
26003SOL    HW295620   5.559   1.204   9.066 -1.1053  0.1726 -0.7846
26004SOL     OW95621  10.151  11.496   7.679  0.6268  0.2333  0.4857
26004SOL    HW195622  10.185  11.540   7.601 -1.5455  0.6594 -0.2858
26004SOL    HW295623  10.190  11.409   7.677  1.7884  0.7495 -0.2125
26005SOL     OW95624  13.131   9.254   5.837 -0.7906 -0.2842  0.5913
26005SOL    HW195625  13.091   9.169   5.855 -2.0197  0.2832  0.6310
26005SOL    HW295626  13.204   9.233   5.778 -0.1778 -1.5102  1.7327
26006SOL     OW95627   0.500   6.856   7.942  1.1792  0.2297 -0.1807
26006SOL    HW195628   0.540   6.799   7.877 -0.8882  2.2089 -3.4486
26006SOL    HW295629   0.532   6.944   7.920 -2.6323  1.5239 -1.3138
26007SOL     OW95630   5.321   0.683   8.195  0.3457 -0.2841 -0.6135
26007SOL    HW195631   5.328   0.746   8.123  1.0368 -0.1695 -0.4492
26007SOL    HW295632   5.269   0.611   8.158 -0.4492  0.3768 -0.7969
26008SOL     OW95633   5.379  12.528   8.548 -0.9566  0.7181 -0.0541
26008SOL    HW195634   5.341  12.602   8.501 -0.4801  0.0658 -1.5137
26008SOL    HW295635   5.451  12.566   8.599 -0.6998  1.2539 -0.8101
26009SOL     OW95636   1.107  10.610   0.609 -0.0474 -0.4866  0.0090
26009SOL    HW195637   1.125  10.537   0.668  0.7772  0.1659  0.6033
26009SOL    HW295638   1.193  10.646   0.588 -0.4934  1.5022  1.3014
26010SOL     OW95639  12.859  10.601   6.046 -0.8023  0.3132 -0.0392
26010SOL    HW195640  12.884  10.651   5.968 -1.9300 -0.2701 -0.7998
26010SOL    HW295641  12.765  10.588   6.037 -1.1547  1.1578  1.9872
26011SOL     OW95642  11.497   2.112   5.501 -0.0350 -0.0843  0.1775
26011SOL    HW195643  11.409   2.076   5.509  0.4814 -1.3934  0.2697
26011SOL    HW295644  11.500   2.146   5.411 -0.6378  0.0010  0.1840
26012SOL     OW95645   7.409  13.205   5.556 -0.7545  0.0018 -0.2655
26012SOL    HW195646   7.328  13.166   5.589 -0.1662 -1.8690 -0.8711
26012SOL    HW295647   7.477  13.173   5.615 -0.4460  1.7085  0.3525
26013SOL     OW95648  13.178   3.221   5.018 -0.6268  0.3519 -0.4450
26013SOL    HW195649  13.095   3.232   4.971 -1.1190 -0.9250  0.0941
26013SOL    HW295650  13.165   3.268   5.101 -2.1999 -2.7138  1.2222
26014SOL     OW95651   2.542   2.487   2.706 -0.2328 -0.5166  0.1274
26014SOL    HW195652   2.488   2.416   2.742  1.8023 -2.4048 -0.3568
26014SOL    HW295653   2.557   2.462   2.615 -0.3167  1.1229 -0.3765
26015SOL     OW95654   7.727   9.533   2.686 -0.0479  0.1481 -0.5305
26015SOL    HW195655   7.699   9.621   2.660  1.4870  0.9935  0.4764
26015SOL    HW295656   7.822   9.540   2.697  0.0086 -1.4219  0.3611
26016SOL     OW95657   0.113  13.432   1.517  0.5436 -0.6957  0.6875
26016SOL    HW195658   0.113  13.398   1.428 -2.5439  0.2761  0.2052
26016SOL    HW295659   0.065  13.366   1.568  2.7218 -1.5030  1.8227
26017SOL     OW95660   4.729   2.378   3.270 -0.1151 -0.5997  0.6506
26017SOL    HW195661   4.704   2.289   3.246  0.2405 -0.4914 -0.1556
26017SOL    HW295662   4.797   2.402   3.206  1.9386 -0.8267  2.6057
26018SOL     OW95663   1.339  11.129   6.566 -0.2879 -0.0767  0.2768
26018SOL    HW195664   1.271  11.194   6.547  1.0196  0.9816 -1.0253
26018SOL    HW295665   1.359  11.141   6.659  0.2748  1.7804 -0.0399
26019SOL     OW95666  13.122   7.751   3.977 -0.3583  0.2434  0.4971
26019SOL    HW195667  13.134   7.825   4.037 -2.0953  2.6498 -1.8679
26019SOL    HW295668  13.211   7.725   3.954  0.3401 -0.1425  3.2777
26020SOL     OW95669   4.163   6.258   0.607  0.2602 -0.2705  0.5431
26020SOL    HW195670   4.147   6.165   0.625 -3.2492  0.2371  0.9080
26020SOL    HW295671   4.174   6.263   0.512  3.5805 -1.2773  0.7523
26021SOL     OW95672   3.064   2.785   3.310 -0.5165  0.6380  0.2458
26021SOL    HW195673   3.118   2.861   3.331  0.3603  0.5034 -1.3657
26021SOL    HW295674   3.018   2.765   3.391 -0.8682  2.9577  0.6945
26022SOL     OW95675   6.570  14.089   0.696 -0.0443  0.3368  0.0187
26022SOL    HW195676   6.628  14.103   0.621  0.4513  0.0849  0.3504
26022SOL    HW295677   6.552  14.176   0.731 -0.5046  0.4792 -0.5575
26023SOL     OW95678   6.600   8.281  13.842  0.0098  0.2993 -0.3869
26023SOL    HW195679   6.599   8.306  13.749  1.2733 -2.0355 -1.1267
26023SOL    HW295680   6.556   8.195  13.843  0.9948 -0.2146  0.9737
26024SOL     OW95681  10.897   0.969  13.565 -0.1607  0.1835 -0.2439
26024SOL    HW195682  10.902   0.922  13.648 -1.3855  1.2660  0.4954
26024SOL    HW295683  10.829   0.922  13.515 -1.0861  0.8739  0.3272
26025SOL     OW95684   5.975   8.996  11.202 -0.1428  0.3749  0.1273
26025SOL    HW195685   5.931   8.925  11.249  0.2256  0.9526  1.4001
26025SOL    HW295686   5.954   9.075  11.253  1.0795  0.8856 -0.1261
26026SOL     OW95687   7.125   8.517   1.622  0.0535 -0.2189 -0.4053
26026SOL    HW195688   7.049   8.530   1.679 -0.9599  0.3123 -1.8356
26026SOL    HW295689   7.123   8.424   1.601  0.2021 -0.3389  0.0991
26027SOL     OW95690   5.854   1.510  12.884  0.1454 -1.0631 -0.1253
26027SOL    HW195691   5.831   1.496  12.976  0.8516 -1.3110  0.0200
26027SOL    HW295692   5.773   1.542  12.844 -0.1498 -0.8743  0.5967
26028SOL     OW95693  12.487   7.932   4.488 -0.1430 -0.1601 -0.6474
26028SOL    HW195694  12.466   8.024   4.500 -1.2538 -0.5004  0.1889
26028SOL    HW295695  12.404   7.886   4.503 -0.2433 -1.1365 -3.5683
26029SOL     OW95696  10.819   9.932  12.799  0.2607 -0.2721  0.5808
26029SOL    HW195697  10.833   9.996  12.868 -1.2691 -0.3337  0.9713
26029SOL    HW295698  10.883   9.956  12.731  1.2333  0.2692  1.6511
26030SOL     OW95699   2.318   5.827   6.042 -0.5571 -0.1958 -0.4346
26030SOL    HW195700   2.245   5.887   6.027  0.5054  0.8094 -1.8306
26030SOL    HW295701   2.277   5.740   6.044 -1.6839  0.2402 -2.3170
26031SOL     OW95702   4.325   6.398   5.752 -0.6882  0.1891 -0.2579
26031SOL    HW195703   4.358   6.318   5.793 -0.1059  0.2893 -0.5316
26031SOL    HW295704   4.369   6.402   5.667 -1.1390  0.5069 -0.4791
26032SOL     OW95705   3.842   3.874  12.128  0.1793  0.2856  0.5036
26032SOL    HW195706   3.784   3.829  12.188  0.2147 -0.6462 -0.1445
26032SOL    HW295707   3.869   3.807  12.065  1.3562  0.8729  0.3478
26033SOL     OW95708   1.529  13.008  13.448 -0.1811 -0.0433 -0.6068
26033SOL    HW195709   1.553  13.034  13.359  2.2499 -0.7743 -0.2455
26033SOL    HW295710   1.601  13.040  13.502 -1.3699 -0.0582  1.0444
26034SOL     OW95711   1.166   4.758   4.406 -0.0995 -0.1764 -0.0642
26034SOL    HW195712   1.213   4.674   4.407  2.1054  0.9280 -1.4737
26034SOL    HW295713   1.108   4.752   4.330 -0.3457 -0.5984  0.1511
26035SOL     OW95714   7.053   2.372   5.543 -0.5708  0.1856  0.4796
26035SOL    HW195715   6.971   2.370   5.494 -0.9353 -0.6283  1.1144
26035SOL    HW295716   7.079   2.281   5.551  0.2549  0.4169  0.5384
26036SOL     OW95717   1.133   4.503  10.020  0.3411 -0.3235  0.4556
26036SOL    HW195718   1.131   4.591  10.057  1.7542 -0.4663  0.9485
26036SOL    HW295719   1.065   4.455  10.067 -1.1442  0.7359 -0.5215
26037SOL     OW95720   7.705   4.503   1.141 -0.2014  0.4678 -0.2433
26037SOL    HW195721   7.748   4.460   1.215 -1.6714  0.5903  0.7234
26037SOL    HW295722   7.748   4.467   1.064  1.1542  0.0901  0.6393
26038SOL     OW95723   7.642   2.090   7.664  0.4602  0.3541  0.0372
26038SOL    HW195724   7.594   2.030   7.607  0.5368 -0.9969  1.3182
26038SOL    HW295725   7.592   2.171   7.661 -1.1732 -0.5845  0.2762
26039SOL     OW95726   1.506   4.074   4.739 -0.8781 -0.7739 -0.8307
26039SOL    HW195727   1.543   4.010   4.799  0.2982  1.7228  1.3222
26039SOL    HW295728   1.412   4.074   4.759 -0.8603 -1.6696 -0.7307
26040SOL     OW95729   9.210  10.107  11.641 -0.2994  0.2336  0.0668
26040SOL    HW195730   9.153  10.079  11.712  0.0143 -0.7005 -0.0349
26040SOL    HW295731   9.157  10.097  11.562 -0.4623  0.7288  0.1127
26041SOL     OW95732   6.589  12.234   9.657  0.0246 -0.4253  0.4822
26041SOL    HW195733   6.684  12.230   9.654  0.0189 -0.0515 -0.4689
26041SOL    HW295734   6.568  12.325   9.639 -0.5281 -0.5818  0.3147
26042SOL     OW95735   9.267   1.532   2.313  0.6254  0.2643 -0.1765
26042SOL    HW195736   9.209   1.608   2.314  0.3165  0.0370 -0.3874
26042SOL    HW295737   9.303   1.531   2.224 -1.0846 -1.0884 -0.9327
26043SOL     OW95738  12.215  11.846   6.405 -0.4817  0.1115 -0.2083
26043SOL    HW195739  12.250  11.816   6.488 -3.3937  0.6918  1.3721
26043SOL    HW295740  12.201  11.766   6.354  1.7638 -0.2127 -0.4257
26044SOL     OW95741   6.984   7.636  13.937  0.5340 -0.0375  0.0021
26044SOL    HW195742   6.978   7.655  14.031 -0.6791 -2.3964  0.4869
26044SOL    HW295743   6.894   7.620  13.910  0.9788 -0.4155 -1.3207
26045SOL     OW95744  11.967   8.271  10.701 -0.5682  0.1132 -0.4446
26045SOL    HW195745  12.035   8.315  10.651 -1.0738  2.8051  1.0614
26045SOL    HW295746  12.009   8.248  10.784 -0.6736 -1.1579 -0.7175
26046SOL     OW95747   8.997   1.623  10.960  0.3986  0.0148  0.4351
26046SOL    HW195748   9.080   1.575  10.955 -0.2315 -1.2117  1.1682
26046SOL    HW295749   8.946   1.591  10.886 -0.1516 -0.7385  1.1172
26047SOL     OW95750   1.454   9.551   5.742  0.5662 -0.4125  0.1866
26047SOL    HW195751   1.390   9.491   5.782 -0.0157  1.2934  1.9387
26047SOL    HW295752   1.422   9.638   5.764  1.3020  0.5951 -2.4415
26048SOL     OW95753   1.585  12.893   8.946  0.3251  0.4906  0.3884
26048SOL    HW195754   1.527  12.817   8.946  0.2023  0.5836  0.0372
26048SOL    HW295755   1.668  12.860   8.912  0.3699  0.4437  0.5401
26049SOL     OW95756  13.340   1.705  10.779  0.2934 -0.5410  0.6205
26049SOL    HW195757  13.288   1.746  10.710  0.6551  0.3163  0.8469
26049SOL    HW295758  13.285   1.711  10.857  1.1186  1.3818  1.1250
26050SOL     OW95759   5.604  12.032   9.711 -0.0105  0.3003  0.5453
26050SOL    HW195760   5.524  11.993   9.746  0.4752 -0.5730  0.7214
26050SOL    HW295761   5.617  12.110   9.765 -0.2237 -0.0803  1.1695
26051SOL     OW95762  11.577   6.311   6.890  0.2494 -0.2835  0.1167
26051SOL    HW195763  11.589   6.226   6.933  1.0641  0.3153  1.0943
26051SOL    HW295764  11.484   6.330   6.902 -0.0358 -1.2017 -0.4632
26052SOL     OW95765   7.208   5.459   5.166 -0.1962 -0.5370  0.2685
26052SOL    HW195766   7.248   5.417   5.090  2.2406 -0.8352  1.6298
26052SOL    HW295767   7.143   5.395   5.196  0.5591 -1.5102 -0.1120
26053SOL     OW95768   9.184   8.973  10.024 -0.3175 -0.6226  0.5078
26053SOL    HW195769   9.241   8.930  10.088 -0.9841  0.0016  1.5584
26053SOL    HW295770   9.207   9.065  10.030  1.3139 -0.7740 -1.9494
26054SOL     OW95771  13.995   8.625   4.612  0.1425 -0.2270  0.2395
26054SOL    HW195772  13.914   8.660   4.575  0.0257  0.8644  1.4785
26054SOL    HW295773  14.001   8.536   4.576 -3.1893 -1.5071  2.3741
26055SOL     OW95774   5.867   0.337   7.288  0.1898  0.7147 -0.0561
26055SOL    HW195775   5.810   0.350   7.364 -0.4261  1.5365 -0.6382
26055SOL    HW295776   5.943   0.291   7.323  0.1416  1.4993  1.1579
26056SOL     OW95777   2.033   6.756   4.027 -0.0995 -0.2326  0.0966
26056SOL    HW195778   1.946   6.770   3.989  0.6581  0.8315 -1.3746
26056SOL    HW295779   2.090   6.742   3.951  1.0865 -0.4233  0.9988
26057SOL     OW95780   6.738   6.551   5.867 -0.2608  0.5288 -0.4051
26057SOL    HW195781   6.833   6.564   5.871  0.1187 -1.7762 -0.6801
26057SOL    HW295782   6.722   6.510   5.783 -1.6006  1.2689 -0.5494
26058SOL     OW95783  13.851  11.489   3.030 -0.2969 -1.0333  0.5297
26058SOL    HW195784  13.933  11.450   2.999  0.7097  1.6581 -0.6242
26058SOL    HW295785  13.879  11.563   3.084 -1.7170  1.6043 -2.0007
26059SOL     OW95786  13.321   5.232   7.940  0.2894 -0.2812  0.3748
26059SOL    HW195787  13.347   5.197   8.025  2.7949  2.3238  0.8354
26059SOL    HW295788  13.349   5.166   7.877 -0.2824 -1.6075  1.4680
26060SOL     OW95789  10.440   9.621   5.005  0.2101 -0.1593  0.0394
26060SOL    HW195790  10.442   9.638   4.911  0.3366 -0.8465 -0.0829
26060SOL    HW295791  10.505   9.681   5.042 -0.8807  1.1792 -0.1318
26061SOL     OW95792   2.818   4.518   0.156 -0.0473  0.2968 -0.1452
26061SOL    HW195793   2.734   4.483   0.186  0.1343 -1.6533 -1.7137
26061SOL    HW295794   2.841   4.464   0.080  1.2081  2.6922 -1.5874
26062SOL     OW95795   2.532  12.293  13.774  0.1509 -0.5277  0.1287
26062SOL    HW195796   2.586  12.217  13.752  1.3585  0.5275 -0.7301
26062SOL    HW295797   2.549  12.355  13.703 -1.1221  0.3900  0.5949
26063SOL     OW95798   0.706  11.482   8.219  0.0571 -0.3198  0.3215
26063SOL    HW195799   0.708  11.435   8.135 -0.7638 -0.6550  0.4826
26063SOL    HW295800   0.659  11.424   8.278 -0.7892  0.5884  0.5832
26064SOL     OW95801   0.032   9.561   2.457 -0.1501  0.2433 -0.3669
26064SOL    HW195802   0.040   9.600   2.544  0.0482  0.2230 -0.3756
26064SOL    HW295803  -0.013   9.478   2.472  0.0527  0.1535 -0.2615
26065SOL     OW95804   0.182  12.174   4.607 -0.0384  0.2924 -0.2504
26065SOL    HW195805   0.165  12.180   4.701 -1.2384 -0.2520 -0.4235
26065SOL    HW295806   0.096  12.184   4.566  0.7139  2.7638 -1.4179
26066SOL     OW95807  10.370   0.031   3.355 -0.2020  0.0232  0.1046
26066SOL    HW195808  10.371  -0.024   3.433 -1.6311 -1.0320 -0.5864
26066SOL    HW295809  10.291   0.085   3.365  0.0527  0.4612 -0.2313
26067SOL     OW95810   6.298  12.751   6.431  0.1233 -0.8422  0.4748
26067SOL    HW195811   6.279  12.718   6.343  0.9878  0.5786 -0.2878
26067SOL    HW295812   6.213  12.760   6.473 -0.2653 -2.0083 -0.0249
26068SOL     OW95813  13.836   6.808  11.238 -0.1617  0.5327 -0.0843
26068SOL    HW195814  13.774   6.787  11.308 -1.1067  2.0141 -0.4283
26068SOL    HW295815  13.789   6.868  11.181  1.5701  1.6939 -0.3946
26069SOL     OW95816   1.245   6.191   8.458  0.8698 -0.0161  0.3340
26069SOL    HW195817   1.170   6.250   8.462 -0.8370 -2.1187  1.6373
26069SOL    HW295818   1.314   6.242   8.417 -0.5351  2.8016  1.2555
26070SOL     OW95819   0.084  13.171   9.006 -0.4450 -0.2723  0.3680
26070SOL    HW195820   0.043  13.094   9.046 -1.4591 -0.6870 -1.3751
26070SOL    HW295821   0.023  13.243   9.024  1.1291  0.5264  3.1666
26071SOL     OW95822   0.593   2.126   1.913 -0.2848  0.0314 -0.3836
26071SOL    HW195823   0.537   2.173   1.974 -0.6917  0.7472 -1.2854
26071SOL    HW295824   0.667   2.186   1.897  0.4857 -0.6815  0.3794
26072SOL     OW95825   0.595   1.631   2.846 -0.2101  0.3755  0.4340
26072SOL    HW195826   0.541   1.572   2.899  0.1688 -1.8052 -1.4354
26072SOL    HW295827   0.685   1.609   2.871  0.1213 -2.4705 -2.6094
26073SOL     OW95828   4.086  10.683  13.499 -0.2268  0.0849 -0.2545
26073SOL    HW195829   4.140  10.701  13.576 -0.3382 -0.4824 -0.0430
26073SOL    HW295830   4.066  10.590  13.505 -1.0447  0.2420 -0.4435
26074SOL     OW95831  11.040   8.800   5.307 -0.1414 -0.1164 -0.2332
26074SOL    HW195832  11.081   8.877   5.348 -1.9995 -0.0494  1.6756
26074SOL    HW295833  11.060   8.728   5.368  1.3715 -1.1680 -1.8758
26075SOL     OW95834   3.214   9.046  12.396  0.4342 -0.1267 -0.0448
26075SOL    HW195835   3.238   8.993  12.472  2.0203  0.3957 -0.1355
26075SOL    HW295836   3.181   9.128  12.433 -1.5119 -0.9350  0.0861
26076SOL     OW95837  11.447  11.555  12.741  0.0245 -0.3992 -0.0067
26076SOL    HW195838  11.494  11.471  12.741 -0.9986 -1.3865  5.5758
26076SOL    HW295839  11.368  11.538  12.791 -1.4497  3.4450 -0.7069
26077SOL     OW95840  12.679   6.281   1.402  0.5329 -0.6628 -0.7599
26077SOL    HW195841  12.659   6.359   1.454  2.0590 -0.7629  0.0481
26077SOL    HW295842  12.747   6.311   1.341  1.8399 -1.5554  0.2069
26078SOL     OW95843   7.325  10.909   1.870 -0.9523 -0.0580 -0.2385
26078SOL    HW195844   7.350  10.823   1.836 -1.9077 -0.5494  0.2803
26078SOL    HW295845   7.255  10.891   1.932 -0.6542  1.0290  0.4447
26079SOL     OW95846   6.626  12.522  10.601 -0.3237 -0.1353 -0.7421
26079SOL    HW195847   6.540  12.541  10.637 -0.0804  1.0518 -0.7467
26079SOL    HW295848   6.688  12.555  10.667  0.1420 -1.5261 -0.4501
26080SOL     OW95849   0.003   0.153   1.295 -0.1230 -0.3524 -0.0486
26080SOL    HW195850  -0.054   0.229   1.281  0.1086 -0.2184 -0.2779
26080SOL    HW295851   0.091   0.190   1.298 -0.1657 -0.2716  2.3720
26081SOL     OW95852  13.369   5.526   0.034  0.5868 -0.2027  0.0886
26081SOL    HW195853  13.454   5.539   0.077  1.3092 -0.8103 -1.1114
26081SOL    HW295854  13.357   5.431   0.034  1.3978 -0.3754 -2.4642
26082SOL     OW95855   9.781  12.193   6.177  0.4412  0.4313 -0.4408
26082SOL    HW195856   9.719  12.220   6.109 -0.1671 -0.7899 -0.3854
26082SOL    HW295857   9.866  12.196   6.133  0.1229  0.2366 -1.0826
26083SOL     OW95858   5.746   7.279   2.123  0.4481  0.2117 -0.2134
26083SOL    HW195859   5.664   7.236   2.145  0.7295 -0.1206  0.2255
26083SOL    HW295860   5.769   7.328   2.202  0.3645  0.7947 -0.5466
26084SOL     OW95861  10.143   3.913   8.522 -0.2327 -0.2980  0.4368
26084SOL    HW195862  10.170   4.005   8.525 -3.3817  0.8784 -2.0630
26084SOL    HW295863  10.102   3.897   8.607  0.2771  0.5993  0.8729
26085SOL     OW95864  11.932   5.957  13.437  0.2293  0.0336 -0.4326
26085SOL    HW195865  11.889   5.904  13.370  1.6600 -0.3401 -1.1103
26085SOL    HW295866  11.867   5.968  13.506 -0.6510 -1.1971 -1.0403
26086SOL     OW95867   6.164   3.211   8.790  0.1664  0.3116  0.5156
26086SOL    HW195868   6.080   3.249   8.813  0.5034  1.5506 -0.2087
26086SOL    HW295869   6.184   3.246   8.703  1.6867  0.5164  0.9093
26087SOL     OW95870   5.698  11.889  12.438  0.2188 -0.0530  0.3111
26087SOL    HW195871   5.706  11.974  12.395 -0.7124 -0.5383 -0.8568
26087SOL    HW295872   5.604  11.874  12.445  0.3254 -1.9020 -1.4043
26088SOL     OW95873  11.835  11.571  11.444  0.0658  0.4891  0.0253
26088SOL    HW195874  11.752  11.618  11.435 -0.2113 -0.3175 -2.5803
26088SOL    HW295875  11.810  11.487  11.481 -0.2041  0.4876 -0.1529
26089SOL     OW95876   1.302   8.589  12.325 -0.4839 -0.3943 -0.0848
26089SOL    HW195877   1.344   8.557  12.404 -1.0612 -0.2143  0.3001
26089SOL    HW295878   1.365   8.570  12.255  0.4192  0.2420  0.5231
26090SOL     OW95879   3.607   9.754   0.756 -0.0785  0.1592 -0.3751
26090SOL    HW195880   3.535   9.814   0.779 -0.7314  0.3617 -2.6661
26090SOL    HW295881   3.593   9.735   0.663 -0.1169 -3.8629  0.2578
26091SOL     OW95882   6.705   8.512  10.242 -0.1638 -0.2919 -0.2004
26091SOL    HW195883   6.691   8.417  10.242 -0.0089 -0.3176  0.2664
26091SOL    HW295884   6.800   8.522  10.250 -0.3203 -0.1009  2.0978
26092SOL     OW95885   9.851   7.836   4.150  0.0025 -0.8297  0.2432
26092SOL    HW195886   9.773   7.826   4.204 -0.6925 -0.5611 -0.6910
26092SOL    HW295887   9.823   7.891   4.077  1.2539 -0.1383  0.2630
26093SOL     OW95888  13.162   7.161   7.573  0.2977  0.8194 -0.1647
26093SOL    HW195889  13.092   7.217   7.606  0.0048  0.4803 -0.2029
26093SOL    HW295890  13.241   7.194   7.614  0.0421  0.8902  0.2716
26094SOL     OW95891   0.948   2.266  10.952 -0.2153 -0.5188  0.3530
26094SOL    HW195892   0.970   2.239  11.041  1.2121  2.3265  0.9839
26094SOL    HW295893   1.032   2.268  10.906 -0.7141 -0.3564 -0.5756
26095SOL     OW95894   3.662   6.565   1.872 -0.3402  0.4212  0.1907
26095SOL    HW195895   3.574   6.590   1.898  0.1114  2.9986 -0.4989
26095SOL    HW295896   3.652   6.534   1.782 -0.7348 -0.8618  0.6524
26096SOL     OW95897  13.463  11.080  10.251 -0.3274 -0.3834 -0.2759
26096SOL    HW195898  13.455  10.986  10.267  0.3328 -0.8329 -2.3217
26096SOL    HW295899  13.376  11.107  10.222 -0.8835 -0.0402  1.5610
26097SOL     OW95900   9.327   1.947   3.016 -0.3974 -0.0664  0.1226
26097SOL    HW195901   9.248   1.899   2.991 -0.1326 -0.2727 -0.3399
26097SOL    HW295902   9.313   2.036   2.981  0.0130 -0.3797 -0.8955
26098SOL     OW95903   0.787   4.710   6.184 -0.2698  0.1409 -0.1439
26098SOL    HW195904   0.748   4.686   6.100  2.1667 -1.4551 -0.9396
26098SOL    HW295905   0.880   4.691   6.173  0.3659  1.3569  2.4352
26099SOL     OW95906   5.490   6.810  13.040  0.4961  0.4676  0.6058
26099SOL    HW195907   5.442   6.827  13.121  1.0346  2.4772  0.5622
26099SOL    HW295908   5.573   6.772  13.069  1.1941  2.2929  1.1546
26100SOL     OW95909   1.887  11.033   0.148  0.0126 -0.8360  0.4398
26100SOL    HW195910   1.970  10.987   0.132 -0.8150 -2.3942  0.5116
26100SOL    HW295911   1.821  10.979   0.106 -0.8931  0.8814 -0.4244
26101SOL     OW95912  12.928   3.795  13.825 -0.1992 -0.0747 -0.9348
26101SOL    HW195913  12.999   3.851  13.792  1.6319  0.2382  2.9770
26101SOL    HW295914  12.968   3.709  13.836 -0.1418  0.2328  1.8165
26102SOL     OW95915  13.369  11.873  11.691  0.4639 -0.0491  0.5398
26102SOL    HW195916  13.284  11.912  11.669  0.8006  0.8069  0.7101
26102SOL    HW295917  13.348  11.785  11.722 -0.1947 -0.6062 -1.3599
26103SOL     OW95918  10.606   8.402   4.853 -0.2274  0.8359 -0.2134
26103SOL    HW195919  10.702   8.403   4.845 -0.0852  0.1062  1.1290
26103SOL    HW295920  10.590   8.359   4.937 -1.7285  1.4659 -0.1598
26104SOL     OW95921  12.449  10.231   8.306  0.4963 -0.8874 -0.5216
26104SOL    HW195922  12.444  10.190   8.392 -1.2925 -0.9134 -0.6069
26104SOL    HW295923  12.359  10.230   8.273  0.2799  3.0282 -0.5546
26105SOL     OW95924  11.400   8.661  14.055 -0.6070  0.3204  0.0057
26105SOL    HW195925  11.437   8.729  13.999  1.6653 -0.9785 -0.2305
26105SOL    HW295926  11.404   8.697  14.143  0.9575  0.4145 -0.0663
26106SOL     OW95927   0.447   0.484   0.017 -0.4272 -0.0371 -0.0495
26106SOL    HW195928   0.387   0.413   0.039  0.1137 -0.5154 -0.0986
26106SOL    HW295929   0.415   0.517  -0.067 -0.3003 -0.6502 -0.3452
26107SOL     OW95930  11.649   4.431  11.104  0.0776  0.2289  0.5572
26107SOL    HW195931  11.659   4.526  11.100  0.8213  0.2678  2.4237
26107SOL    HW295932  11.556   4.417  11.119 -0.3849  0.5413 -1.7151
26108SOL     OW95933   1.353   5.681  12.131 -0.1064 -0.7143  0.0496
26108SOL    HW195934   1.323   5.722  12.212 -0.4317 -0.4224 -0.2157
26108SOL    HW295935   1.449   5.690  12.134 -0.2319  1.5727 -0.7723
26109SOL     OW95936   6.610   0.951   6.716  0.2105 -0.0856  0.2392
26109SOL    HW195937   6.553   1.013   6.671 -1.1306 -1.2624  0.2459
26109SOL    HW295938   6.686   1.003   6.742 -0.2724  1.2428 -0.8872
26110SOL     OW95939  10.160   9.337  11.524 -0.4308 -0.5000 -0.0327
26110SOL    HW195940  10.192   9.378  11.604 -0.1674 -1.7320  0.5090
26110SOL    HW295941  10.151   9.244  11.546 -2.0449 -0.5928 -0.8909
26111SOL     OW95942   8.907  10.853   4.872  0.7190 -0.0584 -0.5577
26111SOL    HW195943   8.867  10.875   4.956 -0.3954 -0.0664 -1.0731
26111SOL    HW295944   8.973  10.921   4.858 -0.5139  1.1662 -0.6414
26112SOL     OW95945   3.349  13.521   4.910  0.2134 -0.5571  0.3983
26112SOL    HW195946   3.441  13.513   4.935  0.9777  1.8224 -1.3469
26112SOL    HW295947   3.321  13.431   4.893  2.5355 -1.2480 -0.1058
26113SOL     OW95948   3.980   9.921   3.193  0.1788  0.0518 -0.2258
26113SOL    HW195949   3.997  10.014   3.204  1.6334 -0.2113 -0.1010
26113SOL    HW295950   3.952   9.913   3.102 -1.7646  0.8277  0.2533
26114SOL     OW95951   2.189   9.432   2.524  0.1809  0.1010 -0.3786
26114SOL    HW195952   2.160   9.451   2.434 -1.8985  3.1292  0.7642
26114SOL    HW295953   2.224   9.515   2.556 -2.1209  0.0821  2.5897
26115SOL     OW95954   7.551  13.140  13.679  0.2263  0.5950  0.4055
26115SOL    HW195955   7.555  13.233  13.701 -1.6335  0.8067  0.0306
26115SOL    HW295956   7.556  13.138  13.584 -2.4305  0.6020  0.1823
26116SOL     OW95957   9.269  11.330   4.532 -0.1999 -0.8234 -0.2523
26116SOL    HW195958   9.322  11.406   4.507 -1.6485  0.0107 -0.9552
26116SOL    HW295959   9.307  11.299   4.614  1.6555 -0.5795 -0.9754
26117SOL     OW95960   5.428   3.778   9.731 -0.1127 -0.4490 -0.3885
26117SOL    HW195961   5.379   3.712   9.681  0.2381 -1.3022  0.3543
26117SOL    HW295962   5.361   3.822   9.784 -0.5250  0.6395 -1.7658
26118SOL     OW95963   1.898   5.984   0.619 -0.7863 -0.2524 -0.3241
26118SOL    HW195964   1.891   5.889   0.634  1.8530 -0.3725  0.7458
26118SOL    HW295965   1.888   5.994   0.525 -0.9144 -1.6351 -0.4768
26119SOL     OW95966  10.888  11.290   3.702 -0.6200  0.0686 -0.4979
26119SOL    HW195967  10.803  11.318   3.738 -0.0301 -0.3560  1.3149
26119SOL    HW295968  10.945  11.282   3.778  0.6023 -1.2752 -1.4963
26120SOL     OW95969  11.452   1.303   0.567  0.2837  0.2248  0.1519
26120SOL    HW195970  11.401   1.365   0.619 -0.2512  0.8653 -1.0793
26120SOL    HW295971  11.529   1.285   0.619 -0.2577  0.7987  1.1805
26121SOL     OW95972   0.651  10.956   9.486 -0.5391  0.3078  0.1718
26121SOL    HW195973   0.723  11.008   9.521  1.6814 -0.5078 -2.7539
26121SOL    HW295974   0.582  11.019   9.468  0.6565  1.6697  0.1489
26122SOL     OW95975   4.035   0.311   9.360 -0.1547  0.0409 -0.1608
26122SOL    HW195976   4.118   0.298   9.315  0.2904 -0.2581  0.7263
26122SOL    HW295977   3.970   0.319   9.290  0.3130 -1.7712 -0.8374
26123SOL     OW95978  12.080   6.014   2.999 -0.2689 -0.2422  0.2836
26123SOL    HW195979  12.106   6.018   3.091  1.3856 -1.1517 -0.1058
26123SOL    HW295980  12.145   6.067   2.953 -0.8627 -0.0948 -0.4094
26124SOL     OW95981   5.880  11.105   4.979 -0.2098  0.4247 -0.2010
26124SOL    HW195982   5.870  11.148   5.064  0.9797 -0.5515  0.4618
26124SOL    HW295983   5.838  11.020   4.991  0.2061  0.1761 -0.4874
26125SOL     OW95984   3.702  13.506  12.689 -0.0186 -0.6933 -0.5626
26125SOL    HW195985   3.718  13.411  12.689 -0.4993 -0.8520 -3.2040
26125SOL    HW295986   3.686  13.527  12.597 -1.2983  1.7358  0.1433
26126SOL     OW95987  12.458   6.533   0.046 -0.0217  0.8303 -0.0594
26126SOL    HW195988  12.401   6.456   0.046  2.3176 -1.0305 -1.8545
26126SOL    HW295989  12.440   6.576  -0.038  0.5370  0.7526 -0.2216
26127SOL     OW95990   4.420  12.513   8.343  0.0086 -0.3701  0.0019
26127SOL    HW195991   4.438  12.470   8.259  1.2857 -0.2603  0.1987
26127SOL    HW295992   4.414  12.441   8.406  0.4291 -0.3780  0.0391
26128SOL     OW95993  14.032  13.932   6.256 -0.1786 -0.0582  0.1800
26128SOL    HW195994  14.107  13.876   6.274 -1.5676 -2.1092 -0.1164
26128SOL    HW295995  14.067  14.004   6.203  1.8604  0.0176  1.5517
26129SOL     OW95996   0.164   5.255   1.017 -0.2536 -0.0153 -0.5538
26129SOL    HW195997   0.237   5.231   0.960  0.3543 -1.4073  0.7382
26129SOL    HW295998   0.139   5.342   0.989  2.1544  0.6547 -0.8280
26130SOL     OW95999   6.125  12.227   2.705 -0.5523 -0.1835  0.2554
26130SOL    HW196000   6.154  12.175   2.781  1.5746  0.5103 -0.0063
26130SOL    HW296001   6.158  12.315   2.723  0.5832 -0.1434 -1.7328
26131SOL     OW96002   5.668   2.819  12.751 -0.5347 -0.3717 -0.6097
26131SOL    HW196003   5.721   2.868  12.687 -0.3192  0.9342  0.5140
26131SOL    HW296004   5.729   2.758  12.792 -0.1151  0.3843 -0.0760
26132SOL     OW96005   3.427   4.926  10.256  0.0323 -0.0276  0.7876
26132SOL    HW196006   3.516   4.947  10.284 -0.3552  0.6148  1.5815
26132SOL    HW296007   3.378   4.917  10.338 -0.7367  0.0760  0.3493
26133SOL     OW96008   2.658   9.937  12.496  0.8138  0.7473 -0.0513
26133SOL    HW196009   2.685   9.913  12.407  0.2628  1.2724 -0.3681
26133SOL    HW296010   2.658   9.854  12.544 -0.4457  0.1915 -0.9600
26134SOL     OW96011   4.012   1.219   4.091  0.5014  0.1690  0.1081
26134SOL    HW196012   4.049   1.220   4.179  1.9455  0.6369 -0.4616
26134SOL    HW296013   4.088   1.234   4.034 -0.5388  0.7798 -1.1573
26135SOL     OW96014   0.106   0.123   9.799 -0.7903  0.5417 -0.0441
26135SOL    HW196015   0.036   0.088   9.853 -0.7608  1.7819  0.8325
26135SOL    HW296016   0.181   0.131   9.859 -0.1030 -0.0824 -0.7927
26136SOL     OW96017   4.148   9.248  13.405 -0.4143 -0.0398  0.7699
26136SOL    HW196018   4.092   9.194  13.349  1.0811 -0.7544 -0.0661
26136SOL    HW296019   4.156   9.331  13.359  0.6492 -0.5569 -0.0061
26137SOL     OW96020   5.590   8.014  12.132  1.1649 -0.0976  0.0266
26137SOL    HW196021   5.661   8.061  12.177  1.3102  0.5249 -0.8420
26137SOL    HW296022   5.635   7.954  12.073  0.9672 -0.6141  0.3925
26138SOL     OW96023   6.345   4.867   5.439  0.4930  0.0976 -0.3779
26138SOL    HW196024   6.400   4.921   5.497  0.8355  1.2553 -1.7270
26138SOL    HW296025   6.296   4.811   5.499  1.1679  0.9261  1.0140
26139SOL     OW96026  14.055  10.418  10.122 -0.2435  0.4870  0.0797
26139SOL    HW196027  13.979  10.385  10.170  0.7371 -2.2175 -0.0947
26139SOL    HW296028  14.022  10.435  10.033 -0.6667 -0.6615  0.0064
26140SOL     OW96029   6.419   1.127   2.476 -0.2546  0.0898 -0.0060
26140SOL    HW196030   6.325   1.143   2.486 -0.1892  1.4063 -1.2063
26140SOL    HW296031   6.456   1.214   2.459  0.8662 -0.6824 -1.7504
26141SOL     OW96032   9.374   3.383   3.193  0.5980 -0.1765 -0.8111
26141SOL    HW196033   9.357   3.420   3.106 -0.2414  1.1185 -0.1391
26141SOL    HW296034   9.291   3.392   3.240  1.8808  2.3800  1.2421
26142SOL     OW96035   9.423   9.986   2.444  0.2386 -0.2933  0.3284
26142SOL    HW196036   9.500   9.985   2.501 -0.5358  1.0373  1.4354
26142SOL    HW296037   9.382  10.071   2.460 -1.6143 -1.0774 -0.0414
26143SOL     OW96038   1.735   5.611   3.087 -0.2023  0.0018 -0.0471
26143SOL    HW196039   1.758   5.686   3.033 -1.5653  0.5043  0.0192
26143SOL    HW296040   1.807   5.550   3.076 -0.1428  0.3525 -1.9249
26144SOL     OW96041  12.365   5.337  10.915  0.0367  0.3876 -0.8985
26144SOL    HW196042  12.355   5.432  10.917 -0.5705  0.3602  1.9187
26144SOL    HW296043  12.454   5.321  10.948 -0.1031 -0.0274 -0.7094
26145SOL     OW96044   5.863   3.270  13.751  0.4837  0.5716  0.1227
26145SOL    HW196045   5.919   3.303  13.821 -1.0102  2.9197  0.3121
26145SOL    HW296046   5.881   3.328  13.677  1.6588 -1.5513 -1.3867
26146SOL     OW96047  12.065   9.601   9.956  0.1166 -0.1711  0.1898
26146SOL    HW196048  12.031   9.679   9.913 -0.8320  0.1572  1.4603
26146SOL    HW296049  12.047   9.530   9.895 -0.5425  0.3741 -0.2657
26147SOL     OW96050   7.373  11.189   4.862 -0.2385  0.7061  0.0744
26147SOL    HW196051   7.298  11.129   4.861 -0.1291  0.5563 -1.1164
26147SOL    HW296052   7.408  11.182   4.950 -1.4066  0.5040  0.5511
26148SOL     OW96053   3.113   9.177   4.956  0.2551  0.3340  0.0399
26148SOL    HW196054   3.159   9.178   4.873  2.1873  0.3319  1.0521
26148SOL    HW296055   3.122   9.266   4.990  0.3578  0.0787  0.6974
26149SOL     OW96056   1.343   1.168   6.529 -0.3551 -0.1886  0.1840
26149SOL    HW196057   1.438   1.160   6.536 -0.5114 -1.5723  1.1964
26149SOL    HW296058   1.315   1.203   6.614 -0.5929  2.6828 -0.9502
26150SOL     OW96059   3.297  11.796   7.067 -0.1987 -0.0574  0.2959
26150SOL    HW196060   3.248  11.718   7.096 -0.9738  0.1644 -0.3861
26150SOL    HW296061   3.352  11.818   7.142  0.0464 -1.2672  0.5065
26151SOL     OW96062   4.780   7.835  12.515  0.2431 -0.4802 -0.4560
26151SOL    HW196063   4.847   7.792  12.568  0.8161  1.9481  0.9306
26151SOL    HW296064   4.697   7.798  12.547  0.6850 -0.3374  0.9221
26152SOL     OW96065  11.585   2.700   4.701 -0.0885  0.1456  0.5531
26152SOL    HW196066  11.606   2.638   4.771  1.3463  1.1677  1.0975
26152SOL    HW296067  11.643   2.775   4.718 -0.7968  1.0590 -0.8585
26153SOL     OW96068   3.538   9.442  10.706  0.4856  0.0479 -0.2198
26153SOL    HW196069   3.497   9.415  10.788 -0.8739 -1.1436 -1.2152
26153SOL    HW296070   3.510   9.532  10.693  0.6621  0.2254  0.5742
26154SOL     OW96071   0.016   6.565   3.507 -0.1527  0.5095 -0.4461
26154SOL    HW196072  -0.027   6.497   3.456  1.7724  0.0096 -1.5098
26154SOL    HW296073   0.094   6.588   3.456 -1.0061  3.9492 -0.4213
26155SOL     OW96074  12.279   3.390   2.471  0.3279 -0.0539 -0.0538
26155SOL    HW196075  12.199   3.343   2.449  0.9768 -1.1625 -0.1330
26155SOL    HW296076  12.271   3.474   2.427 -1.5829  0.5909  1.3839
26156SOL     OW96077   9.784   7.676   7.826  0.2519  0.1833  0.0261
26156SOL    HW196078   9.802   7.770   7.817  1.4491 -0.0065  0.2775
26156SOL    HW296079   9.690   7.669   7.814  0.3272  1.2244 -1.6365
26157SOL     OW96080   4.976   0.862  11.571 -0.1723  0.0042  0.4825
26157SOL    HW196081   5.034   0.826  11.638 -0.3177 -0.3696  0.4111
26157SOL    HW296082   4.904   0.901  11.621 -0.5349 -0.7151  0.5405
26158SOL     OW96083   5.483   9.346   0.597 -0.5879 -0.1049  0.0647
26158SOL    HW196084   5.394   9.380   0.594 -1.0148 -1.1934 -0.8948
26158SOL    HW296085   5.537   9.421   0.617 -1.9011  0.1763  2.9913
26159SOL     OW96086   8.238  13.949   3.318 -0.6482 -0.1724  0.4658
26159SOL    HW196087   8.248  13.919   3.227  0.5054 -1.2942  0.9441
26159SOL    HW296088   8.315  14.003   3.334 -1.1014  0.4312  0.6355
26160SOL     OW96089  13.054  11.024   2.750 -0.1253  0.0539  0.0948
26160SOL    HW196090  13.082  11.100   2.698 -0.9994 -0.3795 -1.0589
26160SOL    HW296091  13.083  10.949   2.698 -1.4741 -0.3945 -0.0324
26161SOL     OW96092   8.880   9.000   8.642 -0.0254  0.2682 -0.3312
26161SOL    HW196093   8.788   9.023   8.630 -1.2154 -3.0951  1.1048
26161SOL    HW296094   8.903   8.954   8.560 -0.8149 -1.9056  0.5744
26162SOL     OW96095   6.508   0.953   5.645  0.2054 -0.9130  0.3911
26162SOL    HW196096   6.483   1.045   5.634  1.5634 -0.3935  1.4098
26162SOL    HW296097   6.602   0.955   5.661  0.0513 -2.3837  1.7129
26163SOL     OW96098  13.700   5.312   7.270 -0.3065  0.3622  0.2420
26163SOL    HW196099  13.702   5.222   7.235 -0.9118  0.8238 -1.0680
26163SOL    HW296100  13.698   5.301   7.365  1.1119 -0.9826  0.1516
26164SOL     OW96101   3.805   8.806   2.042 -0.6378  0.2215 -0.1526
26164SOL    HW196102   3.769   8.729   1.998 -0.8794  0.3776 -0.2258
26164SOL    HW296103   3.875   8.771   2.098 -1.6024 -0.2220  0.8214
26165SOL     OW96104   1.109   4.292  11.456  0.1292 -0.1743 -0.1856
26165SOL    HW196105   1.052   4.369  11.453 -1.4819 -1.3598 -1.8900
26165SOL    HW296106   1.198   4.328  11.448 -0.5787  1.5210 -0.9164
26166SOL     OW96107   1.275  11.479   1.886  0.0600 -0.0009  0.0510
26166SOL    HW196108   1.367  11.505   1.894 -0.4919  2.3670 -0.7667
26166SOL    HW296109   1.250  11.452   1.975  1.2145  0.4471  0.5323
26167SOL     OW96110   7.298   0.953   4.679  0.0673  0.0453  0.1924
26167SOL    HW196111   7.211   0.992   4.691 -0.8634 -1.4221 -1.3615
26167SOL    HW296112   7.319   0.968   4.587  0.9808 -0.5862  0.2869
26168SOL     OW96113   3.584   9.711   4.427  0.1972  0.2575 -0.3358
26168SOL    HW196114   3.662   9.679   4.472 -0.0062  1.1295  0.7086
26168SOL    HW296115   3.530   9.748   4.498 -0.3957  1.1722 -1.2384
26169SOL     OW96116   2.135   6.012   1.798  0.3525  0.0001  0.5206
26169SOL    HW196117   2.142   5.936   1.856  0.1403 -0.3507  0.0884
26169SOL    HW296118   2.077   6.072   1.845 -0.2164 -0.4896  0.4580
26170SOL     OW96119   6.995  11.946  13.993 -0.2824  0.1687  0.1020
26170SOL    HW196120   6.931  11.888  13.951  0.9218 -1.2808  0.1650
26170SOL    HW296121   7.030  11.999  13.922 -1.2093  0.6463 -0.0083
26171SOL     OW96122   6.262   8.286   1.726 -0.4621 -0.0748  0.0874
26171SOL    HW196123   6.203   8.250   1.792  0.2209  1.1949  1.4415
26171SOL    HW296124   6.244   8.380   1.726  0.6515  0.1598 -0.3977
26172SOL     OW96125   0.464   3.003   6.136 -0.8268 -0.3442  0.5268
26172SOL    HW196126   0.438   2.998   6.228  0.8545  0.8305  1.0964
26172SOL    HW296127   0.547   2.955   6.131 -1.4209 -1.3224 -0.6250
26173SOL     OW96128   4.704   5.879  11.426 -0.6548 -0.4669 -0.0876
26173SOL    HW196129   4.614   5.848  11.410 -0.0117 -1.3934 -2.1718
26173SOL    HW296130   4.757   5.800  11.423  0.6424  0.4177 -2.3250
26174SOL     OW96131   3.324  14.028   7.369  0.6765  0.4486 -0.4913
26174SOL    HW196132   3.315  13.934   7.387  0.2054  0.4945 -0.4797
26174SOL    HW296133   3.244  14.051   7.322  0.7461  0.8659 -0.4080
26175SOL     OW96134   3.807   4.334   4.576 -0.1391 -0.2762 -0.2990
26175SOL    HW196135   3.896   4.370   4.575  0.3863 -1.4975  0.2939
26175SOL    HW296136   3.751   4.408   4.551  0.7651  1.2530  1.9212
26176SOL     OW96137   8.289   8.496   3.087  0.5517 -0.3944  0.2940
26176SOL    HW196138   8.301   8.490   2.992 -0.3671 -2.7044  0.2568
26176SOL    HW296139   8.276   8.589   3.103  1.3399  0.1299 -1.7595
26177SOL     OW96140   9.083   5.793  12.194  0.0576  0.1814 -0.0833
26177SOL    HW196141   9.020   5.726  12.168 -0.3397  1.3616 -2.3839
26177SOL    HW296142   9.073   5.799  12.290 -0.1148 -2.7475  0.1610
26178SOL     OW96143   4.580  10.057  12.403 -0.7383  1.0289  0.4325
26178SOL    HW196144   4.538  10.143  12.406 -0.9248  0.9153  1.3156
26178SOL    HW296145   4.640  10.057  12.477 -1.7791 -0.1209  1.3272
26179SOL     OW96146   0.524  12.811  13.028 -0.2372  0.1476  0.0534
26179SOL    HW196147   0.452  12.874  13.039  1.4991  2.5986 -1.5683
26179SOL    HW296148   0.601  12.865  13.010  1.3442 -2.4631 -1.7464
26180SOL     OW96149   6.410   3.808  13.937  0.5285  1.3420 -0.3075
26180SOL    HW196150   6.490   3.763  13.962 -0.3310 -0.0558  0.0608
26180SOL    HW296151   6.345   3.777  14.000 -0.2668  2.5548 -0.5083
26181SOL     OW96152   2.669   2.170  11.730 -0.2667  0.4826 -0.4753
26181SOL    HW196153   2.604   2.240  11.728  0.0634  0.7820 -0.7053
26181SOL    HW296154   2.668   2.139  11.821  0.3805  1.5242 -0.1041
26182SOL     OW96155  13.816   2.796  12.250  0.3586  0.4191  0.2287
26182SOL    HW196156  13.793   2.741  12.175  1.4631  0.9231 -0.4999
26182SOL    HW296157  13.880   2.745  12.298 -1.7994 -0.7887  2.0125
26183SOL     OW96158   1.740   5.893  11.653 -0.5257 -0.6846 -0.2660
26183SOL    HW196159   1.792   5.962  11.694 -0.5673  0.4419 -1.9799
26183SOL    HW296160   1.657   5.894  11.700  0.0270 -0.6060  0.7187
26184SOL     OW96161  10.011   2.061  11.232 -0.1664  0.1316 -0.0545
26184SOL    HW196162   9.950   1.987  11.238  0.9156 -0.9245 -1.5596
26184SOL    HW296163   9.978   2.113  11.159  0.8812 -0.6345 -1.1075
26185SOL     OW96164   3.382   9.516   5.247 -0.2061  0.0440  0.1836
26185SOL    HW196165   3.465   9.554   5.218 -1.0848  1.0745 -1.0847
26185SOL    HW296166   3.400   9.488   5.337  2.2551 -2.1563 -0.8616
26186SOL     OW96167   7.861   1.694   4.722 -0.3580  0.2476  0.2446
26186SOL    HW196168   7.810   1.617   4.698  1.0415 -1.4328  2.2928
26186SOL    HW296169   7.951   1.663   4.729  0.3621  2.2129  0.5667
26187SOL     OW96170  10.644  12.567   4.101 -0.5560  0.3555  0.1666
26187SOL    HW196171  10.686  12.482   4.089 -0.7931  0.3189 -0.4217
26187SOL    HW296172  10.667  12.592   4.190  1.2154  0.6158 -0.3342
26188SOL     OW96173  10.791  11.234   1.265 -0.0875 -0.2875 -0.6274
26188SOL    HW196174  10.787  11.255   1.172 -2.1599 -0.8634 -0.7208
26188SOL    HW296175  10.807  11.140   1.268  0.5231 -0.1780 -0.3928
26189SOL     OW96176   8.219  11.817   1.299 -0.4104 -0.6964  0.2505
26189SOL    HW196177   8.259  11.769   1.226 -0.8404  0.1539 -0.5635
26189SOL    HW296178   8.271  11.897   1.307 -0.2655 -0.8528  0.9998
26190SOL     OW96179   6.112  13.547   0.155 -0.2876 -0.2811 -0.6104
26190SOL    HW196180   6.140  13.525   0.244  2.7983 -1.1213 -1.6632
26190SOL    HW296181   6.082  13.638   0.161  0.0161 -0.2691  1.2449
26191SOL     OW96182   6.811   0.150   7.506 -0.0526 -0.1683  0.1164
26191SOL    HW196183   6.758   0.118   7.433 -0.5294  2.1706 -0.6640
26191SOL    HW296184   6.763   0.227   7.538  0.9896 -0.2016  1.8510
26192SOL     OW96185   2.466  13.453   1.712 -0.2391  0.0265  0.2052
26192SOL    HW196186   2.477  13.470   1.805 -2.7115  1.3778  0.3276
26192SOL    HW296187   2.435  13.363   1.707 -0.4773  0.0735  0.7368
26193SOL     OW96188  11.123   8.124  12.815  0.0575 -0.2183 -0.4065
26193SOL    HW196189  11.208   8.140  12.774 -0.0202 -0.6561 -0.7414
26193SOL    HW296190  11.100   8.034  12.790  1.1368 -1.4537  2.5360
26194SOL     OW96191   1.146  12.431   4.377  0.0093  0.1767  0.4786
26194SOL    HW196192   1.205  12.367   4.338  0.1464  1.2488 -1.1697
26194SOL    HW296193   1.059  12.405   4.346 -0.5879 -1.8362  3.4898
26195SOL     OW96194   6.812   5.829  13.455 -0.5391 -0.1965 -0.1207
26195SOL    HW196195   6.770   5.906  13.416 -0.8121 -1.1867 -1.9197
26195SOL    HW296196   6.900   5.858  13.477 -1.5783  1.4706  2.2296
26196SOL     OW96197  12.180   7.354   5.092  0.0593 -0.2377  0.0339
26196SOL    HW196198  12.158   7.317   5.178 -0.9259 -2.0864 -0.9626
26196SOL    HW296199  12.099   7.395   5.062 -0.3277 -1.6704 -0.9912
26197SOL     OW96200   3.113   0.744   4.275 -0.3518 -0.1065 -0.1796
26197SOL    HW196201   3.152   0.820   4.317  1.5325 -0.9491 -0.2919
26197SOL    HW296202   3.019   0.759   4.280 -0.1230  0.9494  2.1766
26198SOL     OW96203  14.077  13.669   1.644 -0.1570 -0.1570 -0.4025
26198SOL    HW196204  14.012  13.639   1.581  1.4043 -0.1633 -2.1114
26198SOL    HW296205  14.140  13.597   1.651 -0.3400 -0.2018  1.2890
26199SOL     OW96206   0.253  11.639   7.635 -0.3323  0.4802 -0.6711
26199SOL    HW196207   0.326  11.577   7.631  0.7990  1.7896 -0.8705
26199SOL    HW296208   0.237  11.662   7.543 -0.5014  0.7830 -0.5649
26200SOL     OW96209  12.326  11.774  13.993 -0.6355  0.2454  0.0527
26200SOL    HW196210  12.375  11.691  14.000 -1.0534 -0.1838 -1.5556
26200SOL    HW296211  12.246  11.759  14.043 -2.3214 -1.6571 -2.9136
26201SOL     OW96212   5.517   3.120  12.023 -0.0642 -0.5269  0.0619
26201SOL    HW196213   5.575   3.159  12.089 -0.3995  0.4657 -0.2172
26201SOL    HW296214   5.434   3.107  12.069  0.0269 -0.8611  0.1350
26202SOL     OW96215   1.368   0.283  12.489 -0.0170 -0.1408  0.0693
26202SOL    HW196216   1.380   0.213  12.553  1.0997 -1.8600 -1.9177
26202SOL    HW296217   1.454   0.297  12.451 -0.8544 -0.1683 -2.0104
26203SOL     OW96218   0.275   0.721  11.672 -0.6947 -0.3061 -0.2967
26203SOL    HW196219   0.356   0.698  11.717 -0.2423 -2.2907 -2.0000
26203SOL    HW296220   0.217   0.751  11.742  1.3220  0.7075  1.0152
26204SOL     OW96221  13.796   9.265   1.917 -0.2046 -0.0140  0.3595
26204SOL    HW196222  13.885   9.238   1.897 -0.7083 -1.4735 -0.0593
26204SOL    HW296223  13.800   9.360   1.923  1.0113  0.0899 -1.5170
26205SOL     OW96224  12.215   4.129  10.601  0.0666 -0.2186  0.5318
26205SOL    HW196225  12.170   4.165  10.524 -0.3809 -0.9908  0.4193
26205SOL    HW296226  12.149   4.132  10.670  0.7408  1.3063  1.1505
26206SOL     OW96227   8.404  13.370   1.963 -0.4350 -0.3458  0.2155
26206SOL    HW196228   8.480  13.327   2.003 -0.5916  0.3865  1.3730
26206SOL    HW296229   8.339  13.300   1.954  0.4926 -1.0598 -1.1484
26207SOL     OW96230   3.177   5.334   2.854  0.0510 -0.2375  0.1689
26207SOL    HW196231   3.240   5.337   2.782 -2.3437  0.2913 -2.0689
26207SOL    HW296232   3.187   5.419   2.898  0.2422  0.2578 -0.8027
26208SOL     OW96233   2.371   8.260   5.759 -0.8374  0.1287  0.0395
26208SOL    HW196234   2.451   8.311   5.775  0.4293 -1.4906 -0.7849
26208SOL    HW296235   2.350   8.220   5.843  1.1655 -2.0252 -0.3964
26209SOL     OW96236   8.998  12.584  13.558 -0.2053  0.0226  0.4575
26209SOL    HW196237   9.006  12.490  13.540  1.8471  0.2072  0.0874
26209SOL    HW296238   8.911  12.608  13.526 -0.8814 -1.7909  0.8168
26210SOL     OW96239   7.416  11.515   7.166  0.2359 -0.3405 -0.4401
26210SOL    HW196240   7.455  11.457   7.231 -1.8254 -1.1321  0.1478
26210SOL    HW296241   7.322  11.508   7.180 -0.3260 -0.6808 -3.6025
26211SOL     OW96242  13.136   3.617   1.136  0.5495  0.3575  0.2410
26211SOL    HW196243  13.056   3.652   1.096 -0.0229 -0.0893  0.9586
26211SOL    HW296244  13.156   3.678   1.207 -1.0414 -1.2193  2.1686
26212SOL     OW96245   7.625   3.830  10.618  0.0281  0.0453  0.5063
26212SOL    HW196246   7.560   3.857  10.684  0.1130  1.1443  0.1548
26212SOL    HW296247   7.696   3.893  10.627 -0.8746  1.5731 -2.0389
26213SOL     OW96248  13.063   7.236  11.273 -0.0414 -0.5639 -1.1447
26213SOL    HW196249  13.094   7.166  11.215 -1.7412 -1.9960 -0.4055
26213SOL    HW296250  13.007   7.290  11.217 -0.4100 -1.0241 -1.2242
26214SOL     OW96251  11.904   5.805   0.244  0.1835  0.0483 -0.1167
26214SOL    HW196252  11.814   5.818   0.213  0.7962 -0.2701 -2.1881
26214SOL    HW296253  11.916   5.710   0.242  0.1439 -0.0315  1.5873
26215SOL     OW96254  10.779  11.836   3.553 -0.2643 -0.1557 -0.0422
26215SOL    HW196255  10.698  11.837   3.502 -0.2561 -1.8676 -0.1298
26215SOL    HW296256  10.767  11.906   3.618 -2.0593 -0.7199  0.2864
26216SOL     OW96257   3.274  13.703   3.382 -0.7579  0.2856  0.2498
26216SOL    HW196258   3.312  13.716   3.295 -2.3579  1.6159 -0.3063
26216SOL    HW296259   3.349  13.680   3.437  0.4689  0.4745 -1.2407
26217SOL     OW96260  13.127  12.636   0.906  0.4371 -0.5109 -0.6217
26217SOL    HW196261  13.064  12.682   0.852  0.6617 -0.2569 -0.6714
26217SOL    HW296262  13.112  12.668   0.995  1.6396  0.8722 -0.8767
26218SOL     OW96263   5.727  13.065   4.816  0.1556 -0.3492  0.0591
26218SOL    HW196264   5.726  13.049   4.910 -0.4166 -2.7780 -0.2940
26218SOL    HW296265   5.672  13.143   4.804  1.3245  0.8206  1.8076
26219SOL     OW96266   3.653   8.261  10.161  0.0890  0.3112 -0.0029
26219SOL    HW196267   3.629   8.317  10.235 -1.4573 -0.8852  0.4614
26219SOL    HW296268   3.570   8.239  10.120  0.5235 -2.4148  0.4256
26220SOL     OW96269   6.874  12.018   4.461 -0.1859  0.4973 -0.0704
26220SOL    HW196270   6.853  12.105   4.494 -0.1491  1.1412 -1.6473
26220SOL    HW296271   6.809  12.002   4.393 -0.6277 -1.0297  0.6704
26221SOL     OW96272   7.385  12.839   4.494  0.0696  0.2629  0.3230
26221SOL    HW196273   7.362  12.823   4.403 -0.1953 -1.7141  0.6801
26221SOL    HW296274   7.475  12.873   4.491  0.0862  0.1404 -0.6695
26222SOL     OW96275   0.467   7.852   2.883  0.5520 -0.0884 -0.2567
26222SOL    HW196276   0.407   7.815   2.818  1.5260 -0.8797 -0.7238
26222SOL    HW296277   0.473   7.785   2.950  0.1992  0.3836  0.2555
26223SOL     OW96278   0.081   8.747   2.576 -0.2409  0.4087  0.2583
26223SOL    HW196279   0.054   8.684   2.642  2.0127  0.9465  1.8110
26223SOL    HW296280   0.005   8.804   2.565 -2.7789 -2.9993 -2.0051
26224SOL     OW96281   8.931   6.638  13.185  0.4208 -0.0100  0.3205
26224SOL    HW196282   8.988   6.702  13.228 -0.2383  1.0247 -0.2788
26224SOL    HW296283   8.989   6.591  13.125  0.9131  0.0694  0.7314
26225SOL     OW96284   5.102   4.608   1.117  0.0502 -0.2097  0.2178
26225SOL    HW196285   5.041   4.635   1.186 -1.1348  0.0780 -0.9220
26225SOL    HW296286   5.130   4.691   1.077  0.1380 -0.4241 -0.1629
26226SOL     OW96287   5.677   3.200   1.984 -0.2036 -0.2360 -0.5620
26226SOL    HW196288   5.658   3.136   2.052 -1.1287 -1.3415 -1.8069
26226SOL    HW296289   5.736   3.263   2.026 -1.3104 -0.4557  1.4795
26227SOL     OW96290  11.997   7.846  13.724 -0.2918 -0.1164 -0.0620
26227SOL    HW196291  12.061   7.808  13.784  0.3875  0.6007 -0.3017
26227SOL    HW296292  12.047   7.862  13.643 -1.0213 -0.4544 -0.5869
26228SOL     OW96293   0.632   2.938  12.494  0.4330  0.1103 -0.0829
26228SOL    HW196294   0.727   2.928  12.493  0.6268  0.8037  2.7785
26228SOL    HW296295   0.599   2.855  12.528 -0.0065 -0.0703 -0.9122
26229SOL     OW96296   9.771   6.746  13.843 -0.3283  0.6631  0.0618
26229SOL    HW196297   9.756   6.758  13.937  0.6551  0.1445  0.2947
26229SOL    HW296298   9.693   6.700  13.812 -0.7720  1.0630  0.5721
26230SOL     OW96299   0.244   3.587   4.865  0.3250 -0.0884 -0.1633
26230SOL    HW196300   0.279   3.509   4.823  0.4856  1.8598 -4.0694
26230SOL    HW296301   0.321   3.631   4.902  0.4011 -1.0213  0.8630
26231SOL     OW96302  13.326  13.459  11.536  0.0217 -0.4369  0.2830
26231SOL    HW196303  13.364  13.380  11.574  1.7606  1.3798  2.6449
26231SOL    HW296304  13.382  13.479  11.461  2.3015  0.7400  2.1612
26232SOL     OW96305   5.936   0.770  10.012 -0.0038 -0.7363 -0.7199
26232SOL    HW196306   5.965   0.823   9.937  1.6352 -1.5205 -0.6860
26232SOL    HW296307   6.013   0.766  10.069 -1.4494  0.5473  1.4715
26233SOL     OW96308   9.103   0.276   5.382  0.1566 -0.0606  0.0062
26233SOL    HW196309   9.173   0.339   5.399  1.0976 -0.6038 -1.6105
26233SOL    HW296310   9.059   0.308   5.303 -0.0446 -0.8336 -0.2076
26234SOL     OW96311   2.331  13.856  10.926 -0.3671 -0.2835 -0.2090
26234SOL    HW196312   2.268  13.927  10.913 -0.7103 -0.5787 -0.1922
26234SOL    HW296313   2.370  13.842  10.840 -0.4779 -0.2436 -0.2655
26235SOL     OW96314   2.103  13.122  13.215  0.4369  0.2542 -0.1200
26235SOL    HW196315   2.172  13.074  13.169  1.8990  1.3611  0.7990
26235SOL    HW296316   2.129  13.214  13.207 -1.4296  0.7877 -0.4876
26236SOL     OW96317   9.967  10.301   4.997  0.3856 -0.5451 -0.7202
26236SOL    HW196318   9.935  10.278   4.909 -0.1833  1.8396 -1.2106
26236SOL    HW296319   9.960  10.397   5.001  1.0832 -0.5254  1.6835
26237SOL     OW96320   1.461  13.306   6.161 -0.9320 -0.0619  0.0652
26237SOL    HW196321   1.397  13.348   6.219 -0.5819  1.7538 -0.7854
26237SOL    HW296322   1.540  13.299   6.213 -1.3506 -0.8678  0.6176
26238SOL     OW96323  10.765   3.293  11.507 -0.0165  0.5186  0.2314
26238SOL    HW196324  10.795   3.274  11.418 -0.4885 -0.5815  0.2881
26238SOL    HW296325  10.785   3.213  11.556 -1.0948  0.5533  0.7622
26239SOL     OW96326   4.770   6.561  11.759 -0.0460  0.2235  0.3729
26239SOL    HW196327   4.794   6.634  11.817  0.4746 -0.1149  0.5989
26239SOL    HW296328   4.715   6.505  11.814  0.3797 -0.0556  0.5214
26240SOL     OW96329  12.657  11.596   3.913  0.2435  0.5686 -0.2139
26240SOL    HW196330  12.697  11.509   3.913 -0.5436  0.1664 -1.7496
26240SOL    HW296331  12.575  11.584   3.961 -0.3080  0.2164 -1.2193
26241SOL     OW96332   2.830   8.711   1.531  0.1490 -0.2984  0.3823
26241SOL    HW196333   2.872   8.795   1.549  0.9678 -0.2441 -1.6115
26241SOL    HW296334   2.884   8.647   1.578  1.1013  0.0284 -0.2322
26242SOL     OW96335   8.712   0.735  11.761  0.1953  0.1403  0.1125
26242SOL    HW196336   8.682   0.672  11.827  1.3621 -0.1456  0.3924
26242SOL    HW296337   8.647   0.729  11.691 -2.0215  1.6467  1.8997
26243SOL     OW96338   3.467   7.344   0.474 -0.4423 -0.2458 -0.0805
26243SOL    HW196339   3.481   7.260   0.518 -2.1362 -0.3354  0.3504
26243SOL    HW296340   3.465   7.408   0.545 -0.3697  0.0009 -0.2990
26244SOL     OW96341   9.620  12.105  11.131  0.4464 -0.0915  0.5241
26244SOL    HW196342   9.657  12.045  11.066  0.2971  0.8833 -0.5023
26244SOL    HW296343   9.696  12.145  11.173  0.5653  0.1707  0.0735
26245SOL     OW96344   6.239   9.452  11.822  1.1140  0.7926  0.3285
26245SOL    HW196345   6.237   9.495  11.907 -1.9394 -0.4908  1.0233
26245SOL    HW296346   6.195   9.514  11.763  1.2812  0.7642  0.1722
26246SOL     OW96347  10.392   7.339   7.104 -0.2177  0.5055  0.2538
26246SOL    HW196348  10.357   7.250   7.099  0.8234 -0.1032  2.4108
26246SOL    HW296349  10.486   7.329   7.093 -0.2578  1.6030 -1.3604
26247SOL     OW96350   7.347   4.348  12.726  0.3658  0.0008  0.3385
26247SOL    HW196351   7.389   4.364  12.641 -0.9505  0.5601 -0.2289
26247SOL    HW296352   7.374   4.424  12.779  0.9973 -0.2286  0.3594
26248SOL     OW96353  12.555   9.783  12.069 -0.2593  0.2669 -0.1229
26248SOL    HW196354  12.555   9.842  11.994  2.0025  0.5700  0.0515
26248SOL    HW296355  12.550   9.840  12.145  0.9945  0.2339  0.0162
26249SOL     OW96356   8.417   5.836   1.307  0.1723 -0.2429 -0.4489
26249SOL    HW196357   8.451   5.788   1.383 -1.6147 -1.4172 -0.3155
26249SOL    HW296358   8.350   5.894   1.344 -0.6844 -0.8021 -1.0789
26250SOL     OW96359   1.036   8.294   2.096 -0.2154  0.1491 -0.8761
26250SOL    HW196360   1.077   8.238   2.161  1.5697  1.5771 -0.6820
26250SOL    HW296361   0.952   8.319   2.135 -0.4750 -1.3312 -0.4330
26251SOL     OW96362   5.708  13.388   9.308 -0.1228 -0.1164 -0.1132
26251SOL    HW196363   5.650  13.447   9.357  0.3646  0.5560 -0.3340
26251SOL    HW296364   5.790  13.388   9.358 -0.6710 -2.0527  0.9095
26252SOL     OW96365   9.606   4.553   3.271  0.5715  0.2226  0.2081
26252SOL    HW196366   9.578   4.641   3.296  0.5284  0.1330  0.4792
26252SOL    HW296367   9.546   4.528   3.201 -2.0241 -1.1314  2.6839
26253SOL     OW96368  12.385   6.915  11.186 -0.4768 -0.2782 -0.3485
26253SOL    HW196369  12.306   6.937  11.236 -1.0349 -1.9242 -0.4244
26253SOL    HW296370  12.445   6.987  11.202 -1.9034  0.8891 -0.0706
26254SOL     OW96371   5.402  10.829   3.878  0.2065  0.2029 -0.2304
26254SOL    HW196372   5.386  10.924   3.881  0.1993  0.2239 -0.7590
26254SOL    HW296373   5.322  10.792   3.841  0.4407  0.0578 -0.6024
26255SOL     OW96374   3.733   8.639   1.275 -0.0574  0.2082  0.0738
26255SOL    HW196375   3.757   8.731   1.284 -0.5115  0.4553 -1.0447
26255SOL    HW296376   3.682   8.620   1.353  2.7625 -0.0467  1.9823
26256SOL     OW96377   0.785   5.067   3.335 -0.0034  0.0253  0.0677
26256SOL    HW196378   0.751   5.149   3.371  0.7340  0.4784 -0.2334
26256SOL    HW296379   0.741   5.058   3.250 -1.4810 -0.8648  0.8927
26257SOL     OW96380  13.605   9.176   8.374  0.1938  0.4462  0.5425
26257SOL    HW196381  13.671   9.231   8.331 -0.1125  0.0543 -0.4714
26257SOL    HW296382  13.560   9.234   8.435  0.3180  1.1564 -0.0299
26258SOL     OW96383   8.049   4.570   4.685  0.5309 -0.1024  0.2956
26258SOL    HW196384   8.022   4.497   4.740  1.8694  0.8299  2.2851
26258SOL    HW296385   7.981   4.576   4.618 -1.2240 -1.2309  1.8872
26259SOL     OW96386  11.363   3.388   2.318  0.4565 -0.4704 -0.1662
26259SOL    HW196387  11.307   3.312   2.311  0.3407 -0.3296 -0.8498
26259SOL    HW296388  11.446   3.354   2.351  0.5251 -0.9529 -0.8238
26260SOL     OW96389  13.279  12.556   2.762 -0.1083  0.0709  0.1713
26260SOL    HW196390  13.353  12.617   2.773 -0.6132  0.8130 -0.4800
26260SOL    HW296391  13.319  12.477   2.726  0.5750 -0.0370  1.1273
26261SOL     OW96392   1.356   5.598   0.823 -0.7379  0.4444  0.2727
26261SOL    HW196393   1.447   5.622   0.805 -0.7459  1.7294  1.7627
26261SOL    HW296394   1.343   5.619   0.915 -1.8492 -2.0207  0.7672
26262SOL     OW96395   9.197   7.242   9.395  0.0387 -0.3705  0.4394
26262SOL    HW196396   9.241   7.317   9.435  1.4298 -0.8745 -0.0792
26262SOL    HW296397   9.265   7.199   9.343 -0.8462 -1.7112  0.3304
26263SOL     OW96398   6.532   9.282   5.879  0.1188 -0.0176  0.8965
26263SOL    HW196399   6.510   9.370   5.849  0.0838  0.1564  1.4304
26263SOL    HW296400   6.568   9.295   5.967  0.8246 -0.4588  0.6807
26264SOL     OW96401   8.442   5.904   0.292 -0.2755 -0.4673 -0.2481
26264SOL    HW196402   8.535   5.923   0.297 -0.3444 -0.2119  0.0604
26264SOL    HW296403   8.407   5.967   0.229 -0.1439 -0.9341 -0.7963
26265SOL     OW96404   9.113  11.169  10.537  0.1861 -0.1125  0.5616
26265SOL    HW196405   9.105  11.240  10.601  0.0223  0.6112 -0.2467
26265SOL    HW296406   9.033  11.175  10.485  0.9328  0.1612 -0.5720
26266SOL     OW96407  13.004   4.046   5.628 -0.6284  0.3290 -0.0543
26266SOL    HW196408  13.079   3.987   5.629 -1.2449 -0.4974  1.1141
26266SOL    HW296409  12.997   4.076   5.537  1.3353  0.7642 -0.1064
26267SOL     OW96410   2.448   9.711   6.161  0.3960  0.0210 -0.1703
26267SOL    HW196411   2.360   9.740   6.182  0.8223 -0.3456  2.4000
26267SOL    HW296412   2.438   9.618   6.140 -0.2882  0.7541 -3.8096
26268SOL     OW96413   1.531   7.533   6.241  0.1301  0.2938 -0.1230
26268SOL    HW196414   1.549   7.439   6.238  0.2408  0.3354 -1.0934
26268SOL    HW296415   1.610   7.574   6.206 -1.6392  0.4726 -4.6698
26269SOL     OW96416   9.132  10.583   4.574 -0.5260 -0.2297 -0.0685
26269SOL    HW196417   9.068  10.600   4.643  0.4270 -1.9271  1.3143
26269SOL    HW296418   9.096  10.509   4.526 -0.1783 -0.4155 -0.0465
26270SOL     OW96419   0.237  12.531  10.198 -0.7614  0.4955  0.6600
26270SOL    HW196420   0.279  12.541  10.113 -1.1233  0.7919  0.5115
26270SOL    HW296421   0.263  12.609  10.247 -2.7687  1.7481 -0.1440
26271SOL     OW96422  10.854   3.017   3.393 -0.2363 -0.3251 -0.0568
26271SOL    HW196423  10.813   2.930   3.386 -0.2637 -0.4961  1.8713
26271SOL    HW296424  10.783   3.078   3.373 -0.8611 -0.6872  0.9943
26272SOL     OW96425   9.684  10.148   5.093 -0.0108  0.4176 -0.0435
26272SOL    HW196426   9.751  10.128   5.158  1.1051 -1.5017 -1.6523
26272SOL    HW296427   9.606  10.104   5.125  0.3018  0.1960  0.4265
26273SOL     OW96428   8.069  13.088  13.444  0.5248  0.3999  0.1743
26273SOL    HW196429   8.068  13.126  13.532 -1.0882 -1.0289  0.8232
26273SOL    HW296430   8.125  13.011  13.453 -1.1316 -0.8187  0.4858
26274SOL     OW96431   0.967  13.979   4.700 -0.2099  0.3416 -0.0903
26274SOL    HW196432   0.892  13.987   4.641  0.5649  1.0439 -1.0044
26274SOL    HW296433   0.927  13.967   4.787 -1.3941  1.2204 -0.4792
26275SOL     OW96434  10.406   7.093   6.841 -0.4244  0.0172  0.3744
26275SOL    HW196435  10.366   7.019   6.795 -1.5313  0.9750 -0.2639
26275SOL    HW296436  10.369   7.089   6.929 -0.2116 -0.4012  0.4436
26276SOL     OW96437   1.259   9.614   7.135  0.4014  0.1428  0.1083
26276SOL    HW196438   1.257   9.552   7.062 -1.0766 -0.6831  0.8112
26276SOL    HW296439   1.297   9.694   7.097 -0.5094 -0.1882 -1.6270
26277SOL     OW96440  13.678  11.863   1.133  0.6477  0.0150  0.1697
26277SOL    HW196441  13.665  11.802   1.205 -0.0410 -0.2466 -0.1658
26277SOL    HW296442  13.676  11.808   1.054  1.6381  0.2612 -0.0406
26278SOL     OW96443  12.935   0.435   1.717 -0.4068  0.0115 -0.2506
26278SOL    HW196444  13.013   0.432   1.661 -0.4957  1.8233 -0.5323
26278SOL    HW296445  12.907   0.344   1.724  2.1048 -0.7934  0.4054
26279SOL     OW96446   6.523   8.645   9.767  0.0597  0.4479  0.3821
26279SOL    HW196447   6.570   8.648   9.851  0.4635  1.6116  0.1274
26279SOL    HW296448   6.456   8.577   9.780 -0.6578  1.4020  2.0505
26280SOL     OW96449  10.606   2.694   2.967 -0.3236  0.0269 -0.1156
26280SOL    HW196450  10.624   2.763   3.030 -1.4085 -0.4864  0.7942
26280SOL    HW296451  10.588   2.741   2.885 -0.5714  0.8052  0.3711
26281SOL     OW96452   8.187  10.686   7.827 -0.2427 -0.0599  0.2305
26281SOL    HW196453   8.215  10.594   7.825 -0.4276 -0.1871  1.8366
26281SOL    HW296454   8.268  10.736   7.833  0.1386  0.1898 -4.0516
26282SOL     OW96455   7.798   3.043   4.237  0.0854  0.7807  0.4039
26282SOL    HW196456   7.776   2.950   4.243  0.7260  0.4970 -1.1278
26282SOL    HW296457   7.754   3.083   4.311 -0.5131 -0.6888  0.8786
26283SOL     OW96458   5.337   9.418   1.605 -0.2776 -0.3558 -0.4554
26283SOL    HW196459   5.310   9.334   1.568  1.4411 -1.3852  0.4790
26283SOL    HW296460   5.330   9.405   1.699 -0.8227  0.8685 -0.3175
26284SOL     OW96461   3.639   3.832  12.861  0.4678 -0.2500 -0.1696
26284SOL    HW196462   3.693   3.898  12.904 -2.0887  1.1738  1.1180
26284SOL    HW296463   3.610   3.775  12.932  0.2408 -0.9443 -0.8052
26285SOL     OW96464   4.281   4.058  12.755 -0.2771 -0.3512 -0.0767
26285SOL    HW196465   4.335   3.982  12.778 -0.7224 -0.2754  1.2899
26285SOL    HW296466   4.318   4.130  12.807 -0.1252  0.2979 -1.0416
26286SOL     OW96467   6.819  12.965   3.150 -0.1573  0.5162 -0.1623
26286SOL    HW196468   6.870  13.028   3.201 -0.4744  0.2195  0.5382
26286SOL    HW296469   6.883  12.900   3.120 -0.2452 -0.5460  1.7494
26287SOL     OW96470   1.162   6.467   6.139 -0.2921 -0.1424  0.2733
26287SOL    HW196471   1.228   6.535   6.130  0.2792 -0.5690  1.0575
26287SOL    HW296472   1.155   6.454   6.234 -0.4335 -1.1267  0.1348
26288SOL     OW96473   1.298  10.491   7.951 -0.2734  0.0940 -0.1602
26288SOL    HW196474   1.376  10.482   7.896  0.5158 -0.4565  1.0138
26288SOL    HW296475   1.332  10.504   8.039 -1.5018 -0.6951  0.4577
26289SOL     OW96476   0.725   9.660  12.801  0.3382  0.4789 -0.5558
26289SOL    HW196477   0.751   9.681  12.711 -0.9686  1.4007 -0.7529
26289SOL    HW296478   0.728   9.744  12.847 -1.8241  0.5900 -0.5134
26290SOL     OW96479  10.478   9.710   0.887 -0.8863 -0.1888  0.6356
26290SOL    HW196480  10.504   9.646   0.820 -0.9748  0.6762 -0.2373
26290SOL    HW296481  10.437   9.657   0.955 -1.1369 -1.0471 -0.1574
26291SOL     OW96482  11.556   7.877  10.667 -0.1216  0.0739 -0.5339
26291SOL    HW196483  11.649   7.896  10.679  0.4768 -0.5396 -3.4856
26291SOL    HW296484  11.522   7.951  10.616 -1.3230  0.3454  0.5910
26292SOL     OW96485  13.078  12.221   8.359 -0.6315 -0.5425 -0.3138
26292SOL    HW196486  13.055  12.314   8.359  0.9373 -0.0713 -2.6657
26292SOL    HW296487  13.172  12.219   8.373 -0.5662 -1.7620 -0.8019
26293SOL     OW96488   7.006   1.699  11.490  0.0850 -0.0805  0.0528
26293SOL    HW196489   7.089   1.654  11.500 -0.4454 -0.9411  0.7775
26293SOL    HW296490   7.023   1.789  11.517  0.3417 -0.7148  2.1771
26294SOL     OW96491  13.043  11.335   5.404  0.4196  0.4463  0.0156
26294SOL    HW196492  13.092  11.308   5.327  0.4605  1.7248 -0.4264
26294SOL    HW296493  13.096  11.403   5.445  0.0684  0.2757  0.7889
26295SOL     OW96494  13.113   1.501   7.458 -0.1082  0.7814 -0.2574
26295SOL    HW196495  13.064   1.575   7.423  0.7389  1.8125  0.6543
26295SOL    HW296496  13.142   1.452   7.381  0.5816  2.2329 -0.9441
26296SOL     OW96497  11.379   1.742   0.687 -0.3050 -0.6851 -0.4510
26296SOL    HW196498  11.345   1.656   0.661 -0.3913 -0.3504 -1.4872
26296SOL    HW296499  11.427   1.773   0.610 -0.0663  0.0956  0.0020
26297SOL     OW96500  10.073  13.490  11.282 -0.0023 -0.3375  0.3348
26297SOL    HW196501  10.125  13.418  11.317 -0.7271 -0.8597  0.3665
26297SOL    HW296502  10.109  13.505  11.194  0.4675 -0.4060  0.5109
26298SOL     OW96503   1.685   1.984  11.933 -0.1162  0.1084  0.8393
26298SOL    HW196504   1.719   2.022  11.851  0.4809  1.3397  1.6242
26298SOL    HW296505   1.670   1.892  11.912  1.8022 -0.0407 -0.1539
26299SOL     OW96506   5.305   4.300   6.964  0.1645  0.0847  0.3581
26299SOL    HW196507   5.334   4.222   6.918  0.0876 -0.2779  0.9151
26299SOL    HW296508   5.383   4.355   6.971  0.1600  0.1721 -0.2559
26300SOL     OW96509   0.071  13.862  13.979 -0.0786 -0.0075  0.5209
26300SOL    HW196510   0.096  13.890  13.891 -1.5929  1.0298  0.4003
26300SOL    HW296511   0.047  13.770  13.969  2.9427 -0.9190  0.5365
26301SOL     OW96512   2.901   5.137   3.343  0.4062 -0.2208  0.1784
26301SOL    HW196513   2.967   5.206   3.346 -0.2410  0.3707  1.0955
26301SOL    HW296514   2.926   5.084   3.267  2.1877 -0.2697  0.7420
26302SOL     OW96515  13.517   2.808  10.337 -0.1915 -0.2030 -0.4857
26302SOL    HW196516  13.433   2.764  10.350 -0.3080 -0.9589 -3.1482
26302SOL    HW296517  13.500   2.899  10.359 -1.7571 -0.3305 -1.0687
26303SOL     OW96518  10.992  10.046   5.898 -0.1828  0.4838  0.3179
26303SOL    HW196519  11.081  10.080   5.885  0.4534 -0.5385  1.7547
26303SOL    HW296520  10.970  10.003   5.816  0.3711  1.3425 -0.2941
26304SOL     OW96521   4.297  10.573   1.134 -0.3037 -0.6008  0.4821
26304SOL    HW196522   4.289  10.507   1.066 -0.0768  0.8684 -1.0324
26304SOL    HW296523   4.388  10.604   1.127 -0.6505  0.4873  0.5518
26305SOL     OW96524  11.367   3.958  12.191 -0.0792 -0.2286 -0.6074
26305SOL    HW196525  11.363   3.866  12.215  0.8664  0.0503  0.7602
26305SOL    HW296526  11.456   3.985  12.215 -0.0416  0.8138 -1.8431
26306SOL     OW96527   2.258  10.303   2.869  0.5914  0.1345  0.4907
26306SOL    HW196528   2.261  10.266   2.957  0.3577  0.2006  0.5284
26306SOL    HW296529   2.280  10.230   2.811  1.5274  0.2789  0.6500
26307SOL     OW96530  10.376   4.239  12.839  0.4703  0.4501  0.1953
26307SOL    HW196531  10.304   4.198  12.790 -0.4753  0.0156  1.8662
26307SOL    HW296532  10.449   4.178  12.829  0.6083  0.8292 -1.4151
26308SOL     OW96533   3.385  11.426   7.606  0.1471 -0.1409 -0.7852
26308SOL    HW196534   3.368  11.519   7.593  2.8206  0.2988 -1.8184
26308SOL    HW296535   3.401  11.417   7.700  0.7734  0.6366 -0.8072
26309SOL     OW96536  13.982   2.211  13.315  0.0824 -0.0923 -0.1253
26309SOL    HW196537  13.954   2.145  13.251  1.3843 -0.9508  0.1496
26309SOL    HW296538  14.073   2.231  13.291  0.0266  0.8606  0.4176
26310SOL     OW96539   6.219   3.930   2.236 -0.6579  0.4029 -0.2879
26310SOL    HW196540   6.262   3.845   2.226  1.1737  1.2475  0.0116
26310SOL    HW296541   6.136   3.911   2.279  0.4938 -1.0614  1.3876
26311SOL     OW96542   9.826   5.338   4.207 -0.2815 -0.7727  0.4845
26311SOL    HW196543   9.797   5.429   4.215 -0.1299 -0.8372  2.0836
26311SOL    HW296544   9.770   5.301   4.139 -0.9640  0.2749  0.4504
26312SOL     OW96545  11.823   6.048   7.211 -0.7659  0.0673 -0.6366
26312SOL    HW196546  11.907   6.094   7.222 -0.5695 -0.2280 -0.8758
26312SOL    HW296547  11.818   5.990   7.288  0.9118 -2.4685 -2.2604
26313SOL     OW96548   4.306  10.820   9.137  0.4772  0.6222  0.0845
26313SOL    HW196549   4.373  10.863   9.191 -0.3583  0.8053  1.0095
26313SOL    HW296550   4.353  10.748   9.095  1.1428  0.3948  1.1601
26314SOL     OW96551  12.751  13.635   7.374  1.1183  0.3431 -0.6343
26314SOL    HW196552  12.834  13.655   7.415  2.1424 -1.2060 -1.8220
26314SOL    HW296553  12.767  13.647   7.280  0.5242 -1.5668 -1.0210
26315SOL     OW96554  10.671   2.619   0.260 -0.2365  0.4225 -0.2050
26315SOL    HW196555  10.607   2.624   0.188 -0.6012  1.3153  0.1758
26315SOL    HW296556  10.749   2.663   0.225  0.1796 -0.6301 -0.6541
26316SOL     OW96557  12.003   5.029   2.369 -0.1767 -0.2691 -0.2894
26316SOL    HW196558  11.933   4.973   2.335 -1.4156  0.1378  1.4572
26316SOL    HW296559  12.055   4.971   2.426  0.2205 -0.2952 -0.6750
26317SOL     OW96560   0.037   3.755  11.381 -0.1810  0.0521  0.4185
26317SOL    HW196561  -0.049   3.779  11.414 -0.7281 -2.1951  0.7803
26317SOL    HW296562   0.098   3.807  11.434 -1.1882 -0.8496  2.5701
26318SOL     OW96563   9.711   0.503   2.119 -0.3765  0.2057  1.1966
26318SOL    HW196564   9.763   0.583   2.109  0.3150 -0.1678  1.6992
26318SOL    HW296565   9.701   0.492   2.214  0.1241 -0.6714  1.1607
26319SOL     OW96566   9.615   5.078   2.525 -0.2060 -0.3899 -0.3992
26319SOL    HW196567   9.619   5.126   2.443 -3.2947 -0.7732 -0.8902
26319SOL    HW296568   9.565   5.136   2.584  2.2402  0.0382  1.4069
26320SOL     OW96569   3.012   8.984   5.083  0.1664  0.2635  0.0182
26320SOL    HW196570   3.057   9.049   5.030  1.1871 -1.0151 -0.7732
26320SOL    HW296571   3.061   8.983   5.165  1.7104 -1.1332 -0.8449
26321SOL     OW96572   5.497   7.063  13.732 -0.2355  0.4173  0.4255
26321SOL    HW196573   5.562   7.005  13.693 -1.0308 -0.2534  0.0730
26321SOL    HW296574   5.450   7.008  13.795  0.9162  1.4342  2.2560
26322SOL     OW96575  11.498  12.410   2.641 -0.3129  0.2686  0.4068
26322SOL    HW196576  11.571  12.358   2.673 -1.0692 -0.8770  0.3193
26322SOL    HW296577  11.538  12.476   2.584  0.7203  0.2269  1.0624
26323SOL     OW96578   2.925   3.107   9.946  0.1620  0.3807 -0.3404
26323SOL    HW196579   2.949   3.043  10.013  0.8947  1.1303  0.1294
26323SOL    HW296580   3.008   3.140   9.913 -0.2034  1.0876 -0.5782
26324SOL     OW96581   0.609   9.532   8.596  0.5244 -0.5802 -0.0795
26324SOL    HW196582   0.581   9.496   8.512  0.2754 -2.0736  0.6053
26324SOL    HW296583   0.605   9.627   8.584  1.3074 -0.7345 -2.0108
26325SOL     OW96584  10.470   6.667  13.903  0.2515  0.4883 -0.0715
26325SOL    HW196585  10.507   6.743  13.947 -0.1642  0.4460  0.3625
26325SOL    HW296586  10.545   6.609  13.888  0.3323  0.2733  1.0586
26326SOL     OW96587  13.582   7.040   6.755 -0.5065 -0.0005 -0.0693
26326SOL    HW196588  13.574   7.012   6.847  3.8657 -0.1565  0.4798
26326SOL    HW296589  13.569   7.135   6.758 -3.3144 -0.2932  0.0785
26327SOL     OW96590   4.269  11.365  10.965  0.1216  0.5851 -0.3574
26327SOL    HW196591   4.201  11.352  11.031 -2.0176  1.3101 -2.2715
26327SOL    HW296592   4.344  11.317  10.998 -1.4439 -0.6007  1.7084
26328SOL     OW96593   1.015   5.617  11.079 -0.4325 -0.0352  0.5837
26328SOL    HW196594   0.993   5.705  11.048 -1.5590  0.0817  1.6391
26328SOL    HW296595   0.943   5.593  11.137 -0.1691 -1.6882  0.2746
26329SOL     OW96596  11.607  11.824   0.651 -0.6145  0.6131 -0.6105
26329SOL    HW196597  11.605  11.777   0.735  0.4201  3.2992  1.0678
26329SOL    HW296598  11.548  11.775   0.594 -0.7258 -1.7956  1.4160
26330SOL     OW96599   2.794   6.464   4.309  0.4337  0.1782  0.0293
26330SOL    HW196600   2.816   6.370   4.311  0.0170 -0.0462 -2.7832
26330SOL    HW296601   2.736   6.474   4.234  0.6495  2.7564  0.1149
26331SOL     OW96602  11.215   4.286   8.486  0.0391  0.5344  0.0001
26331SOL    HW196603  11.241   4.378   8.481  1.9895 -0.0667 -2.4156
26331SOL    HW296604  11.202   4.271   8.580 -0.5293  3.2832  0.4628
26332SOL     OW96605   6.629  10.895  11.655 -0.4113 -0.2349  0.1019
26332SOL    HW196606   6.629  10.989  11.674  1.0320 -0.5294  1.8615
26332SOL    HW296607   6.589  10.888  11.568  2.5384  2.3512 -1.6641
26333SOL     OW96608   7.147   3.655  12.635 -0.5665  0.1230  0.1204
26333SOL    HW196609   7.093   3.631  12.559 -0.3256 -0.1434  0.0297
26333SOL    HW296610   7.236   3.663  12.599 -0.0523 -2.1313  0.7473
26334SOL     OW96611   1.757   1.064  13.651  0.3026  0.0235 -0.3088
26334SOL    HW196612   1.755   1.124  13.726 -1.0339  1.0134 -1.0900
26334SOL    HW296613   1.838   1.014  13.663 -0.6094 -0.9310  2.5911
26335SOL     OW96614   9.299   5.960   1.206  0.2366  0.7113  0.2493
26335SOL    HW196615   9.315   6.011   1.126  0.6564 -1.4395 -1.1281
26335SOL    HW296616   9.375   5.980   1.261  1.5811 -0.0974 -1.2025
26336SOL     OW96617   9.973   6.375   6.402 -0.0853 -0.1179  0.0946
26336SOL    HW196618   9.925   6.319   6.341 -1.3938  0.1460  0.8455
26336SOL    HW296619  10.055   6.395   6.357 -1.1179  0.3003 -1.7033
26337SOL     OW96620  11.241   5.611   3.051  0.0017  0.1069 -0.3851
26337SOL    HW196621  11.304   5.641   3.117 -0.0900  2.1857 -1.1802
26337SOL    HW296622  11.242   5.679   2.984 -0.8246 -1.3470 -1.9457
26338SOL     OW96623   0.024   0.332   6.517 -0.9409 -0.7298  0.3581
26338SOL    HW196624   0.007   0.321   6.423 -0.9575 -0.1557  0.2931
26338SOL    HW296625  -0.052   0.380   6.549 -0.7234 -0.5400  0.5852
26339SOL     OW96626  10.482   8.738   7.947 -0.4001 -0.1517  0.0054
26339SOL    HW196627  10.418   8.709   8.012 -3.0046  2.7597 -1.0475
26339SOL    HW296628  10.540   8.797   7.995  0.2289 -1.1169  0.4791
26340SOL     OW96629   3.359   7.043  11.611  0.2150  0.0742 -0.4181
26340SOL    HW196630   3.415   7.120  11.623 -0.7600  0.6893  0.4517
26340SOL    HW296631   3.419   6.970  11.598  1.1672  0.9532 -1.0243
26341SOL     OW96632  13.428   8.724   9.893  0.3321  0.2977  0.1506
26341SOL    HW196633  13.439   8.751   9.985  0.6152  1.8296 -0.2990
26341SOL    HW296634  13.454   8.801   9.843 -0.3493 -0.3316 -1.2150
26342SOL     OW96635   4.325   4.276   7.684  0.2755 -0.6708 -0.6618
26342SOL    HW196636   4.377   4.202   7.652 -0.9526 -1.7946 -0.1269
26342SOL    HW296637   4.237   4.260   7.652  0.2136  1.2584 -1.6287
26343SOL     OW96638   1.404   3.060   6.270  0.0977 -0.3104  0.1032
26343SOL    HW196639   1.460   3.060   6.347  1.8458  0.0338 -1.0843
26343SOL    HW296640   1.315   3.051   6.303  0.8844 -1.2500  2.0656
26344SOL     OW96641   5.070   0.909   0.132 -0.1760 -0.5975 -0.0700
26344SOL    HW196642   5.129   0.852   0.182  1.2847 -0.5672 -1.6596
26344SOL    HW296643   5.006   0.939   0.196  1.6656 -0.4528  1.8222
26345SOL     OW96644  11.368   9.817  12.063 -0.2236  0.0612  0.4647
26345SOL    HW196645  11.401   9.785  11.979  1.6699  0.6606  0.9217
26345SOL    HW296646  11.274   9.828  12.049  0.2057  1.3577 -1.9798
26346SOL     OW96647   0.181   1.025   3.200  0.1210  0.5618 -0.3796
26346SOL    HW196648   0.242   1.088   3.161  0.8939  1.6210  2.3129
26346SOL    HW296649   0.121   1.079   3.251  0.1348 -0.7714  1.1426
26347SOL     OW96650  11.961  12.130   7.426  0.2636 -0.2602 -0.4985
26347SOL    HW196651  11.900  12.076   7.476  0.0546 -0.4197 -0.9246
26347SOL    HW296652  11.979  12.080   7.347  2.9959 -1.4877  0.7419
26348SOL     OW96653   5.562   8.362   5.108 -0.4380 -0.3853 -0.6938
26348SOL    HW196654   5.477   8.333   5.143  0.1469  0.5032  1.6288
26348SOL    HW296655   5.558   8.457   5.113  0.6124 -0.3321 -0.7389
26349SOL     OW96656   6.078   3.139  12.765  0.1072  0.5767 -0.7733
26349SOL    HW196657   6.010   3.196  12.802 -0.5563 -0.1118 -0.9102
26349SOL    HW296658   6.074   3.060  12.818 -1.0469 -0.5449 -2.4463
26350SOL     OW96659   9.201  13.319  11.422  0.4792  0.2431  0.0647
26350SOL    HW196660   9.194  13.412  11.399  0.4549 -0.0618 -1.2167
26350SOL    HW296661   9.130  13.305  11.484 -0.4004  0.7705 -0.7960
26351SOL     OW96662  12.498   2.199  12.971 -0.4079 -0.7672  0.0603
26351SOL    HW196663  12.556   2.123  12.977  1.9160  0.9434  0.3325
26351SOL    HW296664  12.518   2.252  13.048 -2.1647  0.0478  0.0125
26352SOL     OW96665   5.029  11.928   5.491  0.5069  0.2245 -0.3197
26352SOL    HW196666   5.031  12.018   5.525 -1.1163 -0.1218  0.8237
26352SOL    HW296667   5.086  11.879   5.550  1.3817  0.4766 -0.9350
26353SOL     OW96668  13.919   7.067   1.787 -0.0864 -0.6266  0.6927
26353SOL    HW196669  13.896   7.018   1.708 -1.6718 -1.0418  1.3696
26353SOL    HW296670  13.969   7.142   1.756 -1.1980 -0.4608 -0.7685
26354SOL     OW96671   5.386  12.717   0.479  0.2452 -0.2241 -0.5536
26354SOL    HW196672   5.327  12.789   0.454 -0.7314 -0.9778 -0.4448
26354SOL    HW296673   5.415  12.681   0.395 -1.3627 -1.3863 -0.6513
26355SOL     OW96674   8.755   8.735  10.739 -0.4372 -0.0945 -0.3978
26355SOL    HW196675   8.682   8.675  10.720 -0.7916  0.6837 -1.6204
26355SOL    HW296676   8.789   8.758  10.653  1.1469 -0.2722  0.1496
26356SOL     OW96677   1.117  12.575  11.179  0.5458  0.1649  0.6164
26356SOL    HW196678   1.026  12.547  11.167 -0.6982  3.1191  2.1965
26356SOL    HW296679   1.161  12.550  11.098 -1.5032 -1.8215  0.0119
26357SOL     OW96680   2.122  11.459  12.714  0.6773 -0.4267 -0.1581
26357SOL    HW196681   2.195  11.521  12.716  2.2498 -2.2052  0.4897
26357SOL    HW296682   2.080  11.474  12.629 -0.8725  3.4590  1.0667
26358SOL     OW96683   0.484  11.472   6.309 -0.3465 -0.1884 -0.1637
26358SOL    HW196684   0.527  11.397   6.267 -0.8493 -0.8226  0.4326
26358SOL    HW296685   0.404  11.486   6.257 -0.5837 -0.4849  0.1214
26359SOL     OW96686  10.443   1.656  12.488  0.0582 -0.3348 -0.1200
26359SOL    HW196687  10.460   1.713  12.413  3.1641 -1.1321 -0.1579
26359SOL    HW296688  10.378   1.704  12.540 -0.0937  1.5486 -1.9060
26360SOL     OW96689  10.328   9.410   7.885 -0.3303  0.6065 -0.0377
26360SOL    HW196690  10.233   9.398   7.877 -0.6680  1.5749  1.8523
26360SOL    HW296691  10.338   9.503   7.904  1.1163  0.7409 -1.2803
26361SOL     OW96692   7.158   6.626   8.955  0.1306  0.5893 -0.0176
26361SOL    HW196693   7.186   6.645   8.865  2.9518 -1.5573  0.2663
26361SOL    HW296694   7.209   6.686   9.009  1.5181 -0.8016  0.2964
26362SOL     OW96695   3.146   4.933   2.625  0.5702  0.2693  0.4251
26362SOL    HW196696   3.175   4.912   2.537 -0.0179  1.7607 -0.1583
26362SOL    HW296697   3.227   4.946   2.675  0.9334 -1.9044  0.4948
26363SOL     OW96698  13.535   0.860   7.038  0.1088  0.3760  0.1139
26363SOL    HW196699  13.536   0.819   6.951  0.1011  1.3310 -0.3471
26363SOL    HW296700  13.506   0.790   7.097 -1.8656  0.2549 -0.9228
26364SOL     OW96701   2.132  10.917   1.465  0.1772  0.2588  0.3229
26364SOL    HW196702   2.169  10.975   1.399  0.1627 -0.0518  0.0324
26364SOL    HW296703   2.120  10.834   1.418  1.8532 -0.5201  1.1734
26365SOL     OW96704   3.218   3.180   9.561  0.3419 -0.5259  0.1201
26365SOL    HW196705   3.136   3.213   9.525 -0.2867 -1.2072  0.9091
26365SOL    HW296706   3.280   3.187   9.488 -0.2839  0.4260 -0.3520
26366SOL     OW96707   0.599   8.402   7.569 -0.0248  0.0129 -0.1718
26366SOL    HW196708   0.512   8.408   7.607 -0.5674 -2.6241 -0.8663
26366SOL    HW296709   0.585   8.385   7.476  1.2881  2.4383 -0.9099
26367SOL     OW96710   2.434   2.024   7.131  0.1927  0.1944 -0.1824
26367SOL    HW196711   2.392   2.027   7.218 -0.1816  0.9653 -0.3762
26367SOL    HW296712   2.526   2.042   7.148 -0.1659  2.2374 -0.0960
26368SOL     OW96713   7.669   1.208   0.959 -0.6428  0.6168  0.5109
26368SOL    HW196714   7.679   1.241   1.048  0.6788  0.1427  0.5687
26368SOL    HW296715   7.759   1.201   0.926 -0.8819 -1.9210  0.1585
26369SOL     OW96716   7.640   0.264  13.441  0.0709  0.3454  0.1621
26369SOL    HW196717   7.725   0.288  13.475 -0.3525  0.2752  1.2979
26369SOL    HW296718   7.629   0.172  13.466 -0.9084  0.7369  1.2417
26370SOL     OW96719   4.006  12.505  11.044  0.0431 -0.1521 -0.2336
26370SOL    HW196720   4.012  12.541  11.132 -0.5514 -1.3231  0.3070
26370SOL    HW296721   3.924  12.538  11.009 -0.2970 -0.6335  0.1021
26371SOL     OW96722   8.354   5.490  13.300  0.2482  0.3122 -0.3842
26371SOL    HW196723   8.401   5.418  13.259  0.4577  0.7572 -0.9363
26371SOL    HW296724   8.303   5.449  13.370 -0.4484 -0.5080 -1.3585
26372SOL     OW96725  12.503   2.895   8.102 -0.1072  0.4347 -0.6614
26372SOL    HW196726  12.435   2.876   8.037 -1.2894 -0.2936  0.7354
26372SOL    HW296727  12.521   2.810   8.142  0.1253  0.9820  0.4084
26373SOL     OW96728   6.429  12.103  10.458 -0.1309 -0.2396 -0.1692
26373SOL    HW196729   6.470  12.189  10.446 -1.1794  0.0957 -1.7311
26373SOL    HW296730   6.390  12.107  10.545 -0.5911  1.0869 -0.4040
26374SOL     OW96731   3.984   5.122  12.384 -0.8045  0.1135 -0.6592
26374SOL    HW196732   3.958   5.209  12.353 -1.5771  0.1001 -0.0697
26374SOL    HW296733   3.920   5.063  12.344 -1.4692  0.0368  0.4729
26375SOL     OW96734  13.232   7.921  12.112  0.3682  0.1258  0.1177
26375SOL    HW196735  13.240   7.912  12.017  1.5026  1.2591  0.0899
26375SOL    HW296736  13.258   7.835  12.146  2.8461  0.5576 -0.4897
26376SOL     OW96737  10.041   1.551  13.448 -0.6641 -0.2809  0.1998
26376SOL    HW196738  10.092   1.471  13.451  1.3690  0.9301 -0.4410
26376SOL    HW296739   9.977   1.542  13.519  0.1745 -2.0063  0.7693
26377SOL     OW96740   6.498  13.991  10.897  0.5090 -0.0201 -0.2893
26377SOL    HW196741   6.505  14.069  10.951  0.1076  0.6780 -1.2105
26377SOL    HW296742   6.558  14.006  10.825 -0.3190 -0.0854 -1.0172
26378SOL     OW96743   3.519   8.901   6.767  0.2012  0.4294  0.7670
26378SOL    HW196744   3.598   8.870   6.722 -0.3372  1.2572 -0.8217
26378SOL    HW296745   3.495   8.829   6.825  1.8426 -0.0311  0.9126
26379SOL     OW96746   4.389   5.494   9.570 -0.3072 -0.1955  0.2551
26379SOL    HW196747   4.438   5.420   9.533 -0.1229 -0.8608  1.7538
26379SOL    HW296748   4.301   5.460   9.584 -0.3839  0.0519  0.3836
26380SOL     OW96749   8.137  12.414  11.323 -0.8583  0.5348  0.1389
26380SOL    HW196750   8.222  12.431  11.283 -0.7747  0.7531  0.4060
26380SOL    HW296751   8.148  12.440  11.414 -0.9236 -0.3463  0.4009
26381SOL     OW96752   1.148   5.653   1.763 -0.2892 -0.3358  0.1818
26381SOL    HW196753   1.055   5.636   1.781  0.0701 -1.5338  1.1263
26381SOL    HW296754   1.187   5.565   1.757  0.6841  0.1408 -0.8244
26382SOL     OW96755   1.672   3.784  13.794 -0.5418  0.3710 -0.1648
26382SOL    HW196756   1.681   3.874  13.761  1.2917  0.9381  1.6915
26382SOL    HW296757   1.748   3.739  13.759  0.4571  0.5129  1.7336
26383SOL     OW96758   8.289  12.356   1.960  0.1786 -0.1189  0.1017
26383SOL    HW196759   8.366  12.320   1.915  0.6750  1.1195 -0.0890
26383SOL    HW296760   8.307  12.341   2.053  1.9361  2.4039  0.2769
26384SOL     OW96761   2.045   9.282   3.031  0.3296  0.2819  0.0207
26384SOL    HW196762   2.038   9.367   3.075 -0.6610  0.8010 -1.0974
26384SOL    HW296763   2.082   9.224   3.098 -0.1548  1.2846  1.2007
26385SOL     OW96764   8.917   6.578  13.896  0.3592  0.9339  0.1395
26385SOL    HW196765   8.875   6.496  13.868  1.1405  0.7799 -0.5826
26385SOL    HW296766   8.979   6.550  13.964  1.0664  0.8410 -0.5372
26386SOL     OW96767   8.072   5.569  12.270  0.0092 -0.6461 -0.6959
26386SOL    HW196768   8.008   5.519  12.219 -0.9968  0.0002 -0.1021
26386SOL    HW296769   8.115   5.625  12.205 -1.9785  0.9291 -0.7796
26387SOL     OW96770   5.292   3.170   7.475  0.1386  0.3097 -0.0558
26387SOL    HW196771   5.236   3.206   7.543 -1.4727 -1.6833 -0.2336
26387SOL    HW296772   5.333   3.093   7.516  2.1026  1.1913 -0.2199
26388SOL     OW96773   8.094   0.601   5.772 -0.0961  0.2539  0.0828
26388SOL    HW196774   8.138   0.519   5.750 -1.0724 -0.4254  0.5844
26388SOL    HW296775   8.081   0.644   5.688 -1.3032 -1.0135 -0.4166
26389SOL     OW96776  11.478  12.681   1.047  0.2341 -0.7799  0.0104
26389SOL    HW196777  11.463  12.644   0.960  0.7196 -0.1692 -0.3391
26389SOL    HW296778  11.500  12.773   1.031  2.2040 -1.1093  0.6291
26390SOL     OW96779   9.598  12.615   2.366 -0.1105 -0.0891 -0.3933
26390SOL    HW196780   9.660  12.673   2.411 -1.5727  0.2067  1.3238
26390SOL    HW296781   9.512  12.651   2.387 -0.9652 -1.6948 -1.0324
26391SOL     OW96782  13.076   9.941   0.914  0.0526 -0.4267 -0.2090
26391SOL    HW196783  13.000   9.998   0.900  0.5544  0.5613  0.9147
26391SOL    HW296784  13.053   9.890   0.993  0.2031 -0.7560 -0.3756
26392SOL     OW96785   1.262   9.022   7.465  0.0220  0.1025  0.4860
26392SOL    HW196786   1.270   8.928   7.449 -0.1711  0.0931  0.4457
26392SOL    HW296787   1.173   9.044   7.439  0.7764  0.7373 -1.7154
26393SOL     OW96788   0.720   0.962   1.331  0.1450  0.4940  0.3744
26393SOL    HW196789   0.802   0.957   1.381  0.4913  2.3078  0.0370
26393SOL    HW296790   0.743   0.928   1.245  0.5773  1.1219  0.2391
26394SOL     OW96791   3.194   5.875   1.865 -0.9971 -0.1064  0.3533
26394SOL    HW196792   3.109   5.847   1.899 -1.0731  0.2783  0.4779
26394SOL    HW296793   3.227   5.936   1.931 -1.6999  1.6310 -0.8435
26395SOL     OW96794   1.636  10.754   0.438  1.1649  0.0979  0.2748
26395SOL    HW196795   1.642  10.699   0.516 -1.8319  0.3829  0.8304
26395SOL    HW296796   1.698  10.826   0.454  1.9993 -0.8490  1.4824
26396SOL     OW96797   3.983   8.247   4.444 -0.0306  0.0037 -0.4403
26396SOL    HW196798   3.987   8.342   4.432  0.9819  0.1038  0.4885
26396SOL    HW296799   4.072   8.217   4.426 -0.2381 -0.7150 -0.2862
26397SOL     OW96800   4.808  10.547   5.548  0.3753 -0.1916  0.2615
26397SOL    HW196801   4.799  10.609   5.620  1.5389  0.0038  0.2628
26397SOL    HW296802   4.883  10.579   5.498  1.0956 -1.6768  0.3457
26398SOL     OW96803   3.483   3.949   9.678 -0.0736 -0.4498 -0.1550
26398SOL    HW196804   3.485   3.889   9.753 -0.0351 -2.0245 -1.3445
26398SOL    HW296805   3.413   4.011   9.698 -0.9124 -1.6109  0.6308
26399SOL     OW96806   4.190   6.051   2.082  0.5201 -0.3194 -0.1016
26399SOL    HW196807   4.145   6.116   2.136  0.1889 -1.1493  0.6659
26399SOL    HW296808   4.281   6.053   2.112  0.5164 -0.2004 -0.0967
26400SOL     OW96809  13.689  11.534   4.264 -0.6339  0.7993  0.3652
26400SOL    HW196810  13.779  11.558   4.288 -0.3180 -1.1657  1.3379
26400SOL    HW296811  13.646  11.516   4.347 -1.2271 -0.5491 -0.2066
26401SOL     OW96812   6.822   1.798   8.336  0.0393 -0.2656  0.2034
26401SOL    HW196813   6.830   1.704   8.319 -0.6580 -0.4245  0.7384
26401SOL    HW296814   6.729   1.816   8.324  0.3736  0.6367 -1.2852
26402SOL     OW96815   2.987   6.008   6.647 -0.7018  0.2731 -0.3066
26402SOL    HW196816   3.028   6.009   6.560  0.2056 -0.7191  0.0916
26402SOL    HW296817   2.959   6.099   6.661 -0.2059  0.6012 -1.3330
26403SOL     OW96818   9.097  12.713  11.848  0.2215  0.1784  0.2550
26403SOL    HW196819   9.161  12.680  11.912  0.8116 -1.1033 -0.9287
26403SOL    HW296820   9.098  12.648  11.778 -0.2816  1.6033 -1.1405
26404SOL     OW96821  10.728  11.274   8.950 -0.1693 -0.2687  0.5785
26404SOL    HW196822  10.666  11.223   9.002 -0.4554 -0.3571  0.1578
26404SOL    HW296823  10.797  11.298   9.012 -0.6105 -0.1846  1.0436
26405SOL     OW96824   0.808   5.233   0.491 -0.7776  0.4456  0.3420
26405SOL    HW196825   0.782   5.188   0.572  1.3156  0.5941  1.1703
26405SOL    HW296826   0.902   5.248   0.502 -0.5316  0.8690 -1.9584
26406SOL     OW96827   8.510  11.789  12.619 -0.7370  0.0001  0.0598
26406SOL    HW196828   8.599  11.756  12.613 -1.4092 -1.7531 -1.2589
26406SOL    HW296829   8.481  11.795  12.528 -2.0564  0.3017  0.4754
26407SOL     OW96830  11.147  12.113  10.662 -0.3023  0.1253 -0.5873
26407SOL    HW196831  11.148  12.024  10.625 -1.7293 -0.5696  0.9096
26407SOL    HW296832  11.177  12.102  10.752  3.2697  1.8078 -1.3598
26408SOL     OW96833   4.341   0.696  12.930 -0.3078  0.5144 -0.4530
26408SOL    HW196834   4.386   0.615  12.955  2.4548  1.9378 -0.4347
26408SOL    HW296835   4.321   0.739  13.014 -2.1695 -0.2850 -0.4463
26409SOL     OW96836   2.470  11.275  12.393  0.2257  0.1532  0.0018
26409SOL    HW196837   2.410  11.342  12.426  0.9140  0.7013  0.1509
26409SOL    HW296838   2.514  11.317  12.319  0.5527 -0.1952 -0.0043
26410SOL     OW96839  13.644   2.693   0.350  0.0067  0.0198  0.2159
26410SOL    HW196840  13.568   2.731   0.307 -0.7758 -1.0700  0.5710
26410SOL    HW296841  13.620   2.601   0.363  0.5266  0.1257  2.2511
26411SOL     OW96842   9.579   0.795   0.997 -0.2026 -1.0416 -0.1200
26411SOL    HW196843   9.585   0.881   0.955 -1.0688 -1.6406 -1.5713
26411SOL    HW296844   9.522   0.809   1.073  2.2345  0.2796  1.5633
26412SOL     OW96845   1.384  10.767   6.732 -0.0191  0.0340  0.1695
26412SOL    HW196846   1.468  10.811   6.724  0.2398 -0.5270 -0.3363
26412SOL    HW296847   1.395  10.706   6.804  0.0705 -0.1613 -0.0066
26413SOL     OW96848   6.161   6.496   1.533 -0.0118  0.7818  0.0833
26413SOL    HW196849   6.128   6.541   1.455  0.0242  0.7025  0.0215
26413SOL    HW296850   6.185   6.409   1.501 -1.9443  0.0301  0.5880
26414SOL     OW96851   9.754   3.323   4.407 -0.2184 -0.3223 -0.2695
26414SOL    HW196852   9.839   3.366   4.403 -1.2190  1.6588 -1.3866
26414SOL    HW296853   9.758   3.271   4.488  1.9629 -0.1578 -0.2103
26415SOL     OW96854   0.841   0.509  11.741 -0.2409 -0.1686 -0.3351
26415SOL    HW196855   0.850   0.419  11.710 -0.1119  0.4287 -2.1329
26415SOL    HW296856   0.865   0.504  11.833  1.5741 -1.6624 -0.8120
26416SOL     OW96857   0.879   5.666   5.806 -0.4677 -0.5564  0.1901
26416SOL    HW196858   0.949   5.665   5.871  0.9001  2.7063 -1.0133
26416SOL    HW296859   0.925   5.666   5.722 -2.0954 -1.8567 -0.7523
26417SOL     OW96860   6.690  11.848  11.113 -0.1575 -0.9382  0.2422
26417SOL    HW196861   6.692  11.862  11.207 -2.5063  0.9809  0.0940
26417SOL    HW296862   6.665  11.756  11.102 -0.6756 -0.9551  1.4833
26418SOL     OW96863   4.205  12.958   1.538  0.2998 -0.3030 -0.3988
26418SOL    HW196864   4.210  12.965   1.633  0.0871 -2.6798 -0.1488
26418SOL    HW296865   4.111  12.958   1.519  0.3132 -1.0117 -0.4810
26419SOL     OW96866  12.973   2.787   7.197 -1.1266 -0.7846  0.3243
26419SOL    HW196867  12.911   2.819   7.262 -0.2648  0.4007  0.5913
26419SOL    HW296868  12.962   2.846   7.122 -1.1635 -1.3130 -0.0945
26420SOL     OW96869   4.549   1.826   3.298 -0.4187  0.0168  0.4770
26420SOL    HW196870   4.528   1.777   3.219 -0.4222  2.4826 -1.1626
26420SOL    HW296871   4.466   1.834   3.344 -0.9524  0.6527 -0.5568
26421SOL     OW96872   9.557  12.729   7.871 -0.0627 -0.0903 -0.2004
26421SOL    HW196873   9.594  12.652   7.914  1.0472 -0.1103 -1.1348
26421SOL    HW296874   9.602  12.803   7.912  0.2057 -0.0514 -0.5583
26422SOL     OW96875  13.371   3.537   8.244  0.6747  0.0594  0.0588
26422SOL    HW196876  13.390   3.531   8.338 -1.2762  0.8011  0.5449
26422SOL    HW296877  13.301   3.473   8.230  0.0178  0.9004 -0.5954
26423SOL     OW96878   6.890   9.485   8.138 -0.3390 -0.4490 -0.3891
26423SOL    HW196879   6.942   9.445   8.068 -0.5994  0.2035 -0.9763
26423SOL    HW296880   6.938   9.564   8.162 -1.0674  0.1936 -0.9792
26424SOL     OW96881   6.387  11.627   5.386  0.0840  0.0590  0.1190
26424SOL    HW196882   6.385  11.534   5.364 -1.7438 -0.3190  1.6357
26424SOL    HW296883   6.338  11.669   5.316  0.8732 -0.1106 -0.5466
26425SOL     OW96884  13.045   8.049   2.165 -0.4969 -0.1153 -0.8631
26425SOL    HW196885  12.958   8.080   2.139 -0.4350 -0.0006 -0.9332
26425SOL    HW296886  13.094   8.043   2.083 -0.6497 -0.8407 -0.9079
26426SOL     OW96887   3.805  10.258   2.552  0.3563  0.2541  0.3100
26426SOL    HW196888   3.897  10.276   2.569  0.5940 -0.1357 -0.5424
26426SOL    HW296889   3.801  10.163   2.539 -0.0562  0.3469 -0.2755
26427SOL     OW96890   7.348   5.956   2.947 -0.0393  0.3530 -0.0172
26427SOL    HW196891   7.343   6.044   2.910  1.9538  0.4252 -0.2444
26427SOL    HW296892   7.375   5.970   3.038 -0.9223  0.0096  0.3051
26428SOL     OW96893   0.319   3.882  10.759  0.2142 -0.3015 -0.3014
26428SOL    HW196894   0.357   3.798  10.731  0.2291 -0.0075 -1.2089
26428SOL    HW296895   0.228   3.878  10.730 -0.0327 -0.3688  0.4706
26429SOL     OW96896  10.154   7.748  12.932  0.0443  0.4692 -0.1022
26429SOL    HW196897  10.211   7.687  12.886 -1.9002 -0.6274 -1.2020
26429SOL    HW296898  10.165   7.725  13.025 -0.9550 -1.9341 -0.5010
26430SOL     OW96899   3.256   8.637  12.688  0.0311  0.0798  0.0338
26430SOL    HW196900   3.165   8.609  12.678  0.4959 -1.4260 -0.2272
26430SOL    HW296901   3.305   8.556  12.702  1.2513  0.9200  0.8785
26431SOL     OW96902   6.026  10.905   0.536  0.4648  0.3747  0.2364
26431SOL    HW196903   6.096  10.849   0.503 -0.6781 -1.1080  0.1963
26431SOL    HW296904   5.994  10.859   0.614  0.4880  1.7826  1.1186
26432SOL     OW96905   2.228  10.942   6.513  0.1465  0.0494 -0.1126
26432SOL    HW196906   2.194  10.862   6.552  1.4065 -0.5895 -0.2485
26432SOL    HW296907   2.298  10.912   6.455 -0.1910  1.1645 -1.1303
26433SOL     OW96908  13.645   7.024   0.307  0.2541 -0.9911 -0.3560
26433SOL    HW196909  13.680   7.014   0.395  1.0245  0.0973 -0.5288
26433SOL    HW296910  13.567   6.967   0.306 -0.4538 -0.1270  1.3758
26434SOL     OW96911  13.894  13.793  12.823  0.5414 -0.0196  0.2387
26434SOL    HW196912  13.863  13.855  12.757 -1.1398 -0.4831  0.5534
26434SOL    HW296913  13.899  13.709  12.777  0.6653 -0.0829  0.3649
26435SOL     OW96914  12.399   4.698   5.300 -0.2470 -0.0718 -0.0646
26435SOL    HW196915  12.431   4.644   5.227  1.1056  1.2047 -0.4672
26435SOL    HW296916  12.342   4.763   5.259  1.3480  1.3101 -0.1833
26436SOL     OW96917  10.518   2.572   0.036 -0.3260  0.0062 -0.3362
26436SOL    HW196918  10.445   2.518   0.007  0.1608 -0.5562 -0.5333
26436SOL    HW296919  10.550   2.614  -0.044  0.7078 -1.1662 -0.5692
26437SOL     OW96920   5.345  12.676   0.847 -0.2601  0.5432  0.3401
26437SOL    HW196921   5.398  12.703   0.923 -0.5460  1.2902  0.2733
26437SOL    HW296922   5.286  12.749   0.831 -1.3609 -0.3074  0.4370
26438SOL     OW96923   1.244   6.497   2.807  0.0548 -0.1626 -0.3077
26438SOL    HW196924   1.186   6.507   2.882  0.5879  0.9111 -0.0215
26438SOL    HW296925   1.186   6.508   2.731  0.0146  1.9230 -0.0265
26439SOL     OW96926   7.540   2.526   7.150  0.2822  0.0873 -0.3270
26439SOL    HW196927   7.538   2.550   7.057  1.9109 -1.2556 -0.7425
26439SOL    HW296928   7.449   2.539   7.179 -0.2632  0.5541 -2.0875
26440SOL     OW96929  10.551   9.469  11.432  0.9192  0.0789  0.7933
26440SOL    HW196930  10.616   9.538  11.447 -0.2062  1.6112 -0.9190
26440SOL    HW296931  10.469   9.516  11.417  0.4117 -1.4997 -2.0856
26441SOL     OW96932  12.292   4.540   8.099  0.0045 -0.1183  0.0008
26441SOL    HW196933  12.335   4.496   8.173 -0.9200  1.3991  1.5223
26441SOL    HW296934  12.365   4.572   8.045  0.6957 -2.6980 -0.7448
26442SOL     OW96935   5.879  14.008   8.375  0.5889 -0.2501  0.2056
26442SOL    HW196936   5.905  14.091   8.334  2.1887 -1.3149 -1.0387
26442SOL    HW296937   5.783  14.014   8.381  0.2813  0.2620 -3.1558
26443SOL     OW96938  13.779   7.579   9.189  0.3968  0.0383  0.0895
26443SOL    HW196939  13.729   7.498   9.187  1.5798 -0.7178 -2.3903
26443SOL    HW296940  13.843   7.566   9.259  0.1074 -0.8593  0.1949
26444SOL     OW96941   5.713   4.811   4.009 -0.5469 -0.5183  0.2152
26444SOL    HW196942   5.718   4.750   4.082 -1.4731  1.6016  2.1648
26444SOL    HW296943   5.721   4.897   4.049 -0.7705  0.7287 -2.2407
26445SOL     OW96944  12.641  12.825   8.401  0.5747 -0.1800 -0.4910
26445SOL    HW196945  12.578  12.856   8.466 -0.2742  0.1479 -1.4424
26445SOL    HW296946  12.720  12.806   8.452  0.4136  1.4520  0.4535
26446SOL     OW96947  13.071  12.047  12.976  0.1855 -0.1976  0.9290
26446SOL    HW196948  13.005  12.055  12.907  0.5392 -2.2761  0.2732
26446SOL    HW296949  13.055  12.121  13.034 -2.3099 -0.2800  0.4364
26447SOL     OW96950   7.472   0.754  12.264  0.0620 -0.2059 -0.0030
26447SOL    HW196951   7.404   0.795  12.211  0.7055 -0.1901 -0.8247
26447SOL    HW296952   7.443   0.663  12.273  0.3914 -0.4358 -1.1474
26448SOL     OW96953   0.297   8.006   0.945  0.2716  0.1854  0.1282
26448SOL    HW196954   0.337   8.054   0.872  0.4771  1.0482  0.7904
26448SOL    HW296955   0.337   8.045   1.023 -0.0628 -0.6193  0.7039
26449SOL     OW96956   6.368   1.898   8.584 -0.0286  0.2419  0.1798
26449SOL    HW196957   6.415   1.911   8.666  0.1786 -0.5741  0.2059
26449SOL    HW296958   6.279   1.928   8.602 -0.3302 -1.1019  1.1298
26450SOL     OW96959  11.169   9.774   3.606  0.3415 -0.1608  0.6937
26450SOL    HW196960  11.095   9.812   3.653  0.0926  0.0913  0.1064
26450SOL    HW296961  11.199   9.703   3.662 -1.4333 -1.3931  0.1834
26451SOL     OW96962   1.461   3.890   0.761 -0.0516 -0.3589  0.4564
26451SOL    HW196963   1.451   3.863   0.669 -2.1009  0.6981  0.3064
26451SOL    HW296964   1.552   3.868   0.783 -0.1496 -2.6944 -1.1248
26452SOL     OW96965   6.322  12.280  12.180  0.3645 -0.0686 -0.4758
26452SOL    HW196966   6.314  12.299  12.087 -0.4791  0.9021 -0.2178
26452SOL    HW296967   6.258  12.337  12.222  2.5551  1.4875  0.9627
26453SOL     OW96968   3.182  10.638  13.593  0.7091 -0.1093 -0.3620
26453SOL    HW196969   3.131  10.716  13.571  0.4895 -0.5587 -1.5112
26453SOL    HW296970   3.125  10.588  13.651  0.7010  0.3883  0.0738
26454SOL     OW96971   5.893  11.458  13.549 -0.0250 -0.2046 -0.0832
26454SOL    HW196972   5.944  11.525  13.505  0.9187  0.0772  1.3814
26454SOL    HW296973   5.911  11.378  13.500 -0.9940  0.5319 -1.7135
26455SOL     OW96974   2.218   6.120  14.039 -0.0910 -0.4352  0.0126
26455SOL    HW196975   2.205   6.142  14.131  3.5482 -0.9695  0.7915
26455SOL    HW296976   2.214   6.204  13.993 -1.4581 -0.1138  0.6773
26456SOL     OW96977   3.565   3.417   5.031 -0.1316 -0.2851 -0.3601
26456SOL    HW196978   3.592   3.328   5.056 -0.2590 -0.4019 -0.6358
26456SOL    HW296979   3.634   3.446   4.972  1.2448  0.7562  1.6485
26457SOL     OW96980  12.179  10.783   4.486 -0.2641 -0.1054 -0.2734
26457SOL    HW196981  12.246  10.822   4.541 -0.6655  1.2711 -0.7153
26457SOL    HW296982  12.171  10.843   4.411 -0.7117 -1.1884 -1.1227
26458SOL     OW96983   7.886   5.947   9.157 -0.5039 -0.2980 -0.2281
26458SOL    HW196984   7.823   5.962   9.227  1.2518  0.2712  1.3053
26458SOL    HW296985   7.833   5.945   9.077 -2.5590 -0.9003  1.0732
26459SOL     OW96986   4.419   1.219   8.568  0.1641  0.0542  0.0377
26459SOL    HW196987   4.476   1.189   8.497 -1.7554 -0.2267 -1.4468
26459SOL    HW296988   4.393   1.139   8.613  2.7721  0.3228  2.3179
26460SOL     OW96989   1.726   5.571   4.310 -0.2869  0.0545  0.1135
26460SOL    HW196990   1.774   5.567   4.227 -0.7660 -0.4962 -0.1488
26460SOL    HW296991   1.777   5.517   4.370 -0.7817 -0.8910 -0.2852
26461SOL     OW96992   7.592  11.449  11.791 -0.0278 -0.5343 -0.0438
26461SOL    HW196993   7.504  11.428  11.821 -0.6503  1.4637 -0.2912
26461SOL    HW296994   7.625  11.367  11.754 -1.6249 -1.4273  0.3967
26462SOL     OW96995   1.048   9.068   0.832 -0.3317 -0.1406 -0.4614
26462SOL    HW196996   1.110   9.085   0.903 -0.8045  0.4359 -0.1736
26462SOL    HW296997   1.102   9.044   0.757  0.1920 -0.4164 -0.0000
26463SOL     OW96998  10.747   7.390   0.904  0.8843 -0.7665  0.3559
26463SOL    HW196999  10.832   7.354   0.931  1.1073  1.1494  2.5660
26463SOL    HW297000  10.686   7.359   0.971  0.1486 -0.8455 -0.3413
26464SOL     OW97001   1.536  10.671   0.941 -0.5648 -0.1728  0.1569
26464SOL    HW197002   1.619  10.719   0.938 -0.7622  0.1797  0.3066
26464SOL    HW297003   1.553  10.596   0.998 -0.2271 -0.3374 -0.1552
26465SOL     OW97004   6.380   3.316  12.756 -0.1211  0.4880 -0.1768
26465SOL    HW197005   6.453   3.256  12.750 -0.0264  0.4622  0.9994
26465SOL    HW297006   6.318   3.273  12.815  0.2490  1.8175  1.2356
26466SOL     OW97007   1.255  11.709  12.922 -0.1502 -0.2577 -0.2329
26466SOL    HW197008   1.236  11.761  13.000  3.3185  1.7156 -0.4770
26466SOL    HW297009   1.227  11.765  12.849  0.6557 -0.1043 -0.4366
26467SOL     OW97010   3.964   3.952   1.383 -0.0379  0.4290 -0.2000
26467SOL    HW197011   3.982   3.858   1.386 -2.3292 -0.0420  0.1522
26467SOL    HW297012   4.014   3.984   1.308  0.7267 -1.0638 -0.3592
26468SOL     OW97013   3.199  11.974  13.600  0.1166  0.2960 -0.4427
26468SOL    HW197014   3.134  11.937  13.660  1.0064 -2.4275 -0.9854
26468SOL    HW297015   3.279  11.979  13.653  0.3952 -0.1243 -0.8170
26469SOL     OW97016   3.207   7.280   8.394 -0.6655 -0.1360  0.0901
26469SOL    HW197017   3.204   7.327   8.311 -1.2677 -0.7208 -0.2267
26469SOL    HW297018   3.138   7.215   8.388 -2.2121  1.2243  1.9292
26470SOL     OW97019  11.119   7.323   4.833  0.7539  0.9578 -0.0655
26470SOL    HW197020  11.034   7.284   4.851  0.4549  1.5960 -0.0836
26470SOL    HW297021  11.140   7.374   4.911  1.8296 -0.4031  0.5839
26471SOL     OW97022  12.631   5.076   6.036  0.0893  0.3045 -0.0225
26471SOL    HW197023  12.618   4.984   6.010  2.0957  0.3659 -1.4425
26471SOL    HW297024  12.610   5.126   5.957  3.6473  0.6850 -0.8873
26472SOL     OW97025   1.085  13.048   5.828  0.3524 -0.0670  0.0872
26472SOL    HW197026   1.101  12.993   5.751 -0.2620  0.7952 -0.6779
26472SOL    HW297027   0.992  13.033   5.848  0.6133 -0.6163  0.9393
26473SOL     OW97028  13.029  13.830   1.138  0.2545 -0.1002  0.3201
26473SOL    HW197029  13.072  13.868   1.062 -2.8789  3.4421  0.0350
26473SOL    HW297030  13.037  13.735   1.126  2.2123  0.3513 -2.9443
26474SOL     OW97031   7.484  12.319   0.753  0.2159 -0.0720 -0.2604
26474SOL    HW197032   7.417  12.368   0.705  0.4827  0.7582  0.2102
26474SOL    HW297033   7.495  12.238   0.703 -2.1346 -0.8691  0.3828
26475SOL     OW97034   1.881   9.779  13.575  0.7262  0.8534  0.3966
26475SOL    HW197035   1.833   9.707  13.534  0.3694  0.3557  1.6110
26475SOL    HW297036   1.904   9.838  13.504  0.3106 -0.0651 -0.5142
26476SOL     OW97037  11.477   9.322  11.525  0.4197  0.3720  0.2918
26476SOL    HW197038  11.493   9.319  11.620 -0.1162  3.4019  0.5803
26476SOL    HW297039  11.509   9.238  11.493  1.0800 -0.5626  3.0844
26477SOL     OW97040   7.217   9.499   0.118  0.2718  0.3370 -0.2945
26477SOL    HW197041   7.287   9.558   0.089  2.2519 -1.3532  0.7397
26477SOL    HW297042   7.154   9.557   0.161  2.5282  1.7299  1.4228
26478SOL     OW97043   6.087   6.524   6.471  0.5453  0.3587 -0.5548
26478SOL    HW197044   6.088   6.434   6.437  0.1129 -0.2970  1.0771
26478SOL    HW297045   6.109   6.578   6.395  0.7823 -1.1137 -1.5865
26479SOL     OW97046   6.787  13.348   9.574  0.9488 -0.9324  0.4918
26479SOL    HW197047   6.764  13.362   9.482 -1.1508 -0.7363  0.9980
26479SOL    HW297048   6.798  13.436   9.610 -1.7790 -0.7900  1.2004
26480SOL     OW97049   9.703   1.434   3.201  0.1049  0.0652 -0.2571
26480SOL    HW197050   9.698   1.528   3.183 -0.9808  0.2183  0.6715
26480SOL    HW297051   9.784   1.422   3.251  1.4957  0.1060 -2.3886
26481SOL     OW97052   8.314  10.234  12.347 -0.1633 -0.0720  0.3691
26481SOL    HW197053   8.390  10.203  12.298 -0.2260 -1.0733  0.8703
26481SOL    HW297054   8.263  10.285  12.284  0.7759  0.3819 -0.0436
26482SOL     OW97055   8.078   7.459   3.739  0.0106  0.0917  0.0164
26482SOL    HW197056   8.066   7.368   3.768  1.4029 -0.0075  0.4056
26482SOL    HW297057   8.006   7.507   3.779 -0.0020 -0.6346  0.9138
26483SOL     OW97058   2.169   3.455  11.765 -0.2172 -0.1971  0.7881
26483SOL    HW197059   2.259   3.429  11.781 -0.3144  0.1343  2.0179
26483SOL    HW297060   2.174   3.515  11.691  0.3313 -1.5719 -0.3187
26484SOL     OW97061   6.825   1.319   6.309  0.2484  0.5334 -0.1451
26484SOL    HW197062   6.885   1.337   6.237  0.0487  1.2379 -0.1408
26484SOL    HW297063   6.751   1.273   6.269  0.7781 -0.3267 -0.1511
26485SOL     OW97064   6.524   4.501  12.662  0.0315  0.1236  0.3678
26485SOL    HW197065   6.485   4.427  12.708  1.8609 -0.3087  1.3005
26485SOL    HW297066   6.606   4.467  12.626  0.2297  1.3305 -0.3847
26486SOL     OW97067   9.437   5.781   5.275 -0.1053  0.5766  0.0935
26486SOL    HW197068   9.438   5.875   5.295  2.9704  0.2548  2.1362
26486SOL    HW297069   9.488   5.773   5.195  2.2466  0.4912  1.5207
26487SOL     OW97070  13.204  12.294   1.886  0.3108 -0.2641  1.0285
26487SOL    HW197071  13.250  12.211   1.902 -0.8672 -0.7186  2.1975
26487SOL    HW297072  13.123  12.287   1.937 -0.5139  0.9981 -0.0446
26488SOL     OW97073   1.684   3.524   1.988 -0.3061  0.2207 -0.3822
26488SOL    HW197074   1.682   3.459   2.057  2.2775 -1.8132 -2.0458
26488SOL    HW297075   1.615   3.497   1.927 -0.6675  0.3448 -0.0329
26489SOL     OW97076  11.208   3.427   4.682 -0.2917 -0.3456  0.1217
26489SOL    HW197077  11.204   3.522   4.695 -1.0801 -0.5696  1.9066
26489SOL    HW297078  11.118   3.397   4.700 -0.5264 -1.2706 -2.2451
26490SOL     OW97079   0.739  13.222   4.016  0.2475 -0.4057  0.2114
26490SOL    HW197080   0.733  13.182   3.929 -0.3070 -1.5494  0.7527
26490SOL    HW297081   0.653  13.260   4.031  0.1502 -0.7292  0.4930
26491SOL     OW97082   6.951   7.744   8.310  0.3346  0.8202  0.5859
26491SOL    HW197083   7.019   7.788   8.361  1.1996 -0.5317  0.6516
26491SOL    HW297084   6.983   7.748   8.219  0.6220 -0.0158  0.6456
26492SOL     OW97085   4.223  10.266   4.765 -0.0851  0.0721 -0.8957
26492SOL    HW197086   4.229  10.188   4.711  0.3104 -0.8953  0.4932
26492SOL    HW297087   4.227  10.339   4.703 -1.8285 -0.9814 -2.3622
26493SOL     OW97088   6.108   3.126  10.493  0.3634  0.4807 -0.3925
26493SOL    HW197089   6.054   3.087  10.562 -0.3876  0.3454 -1.0378
26493SOL    HW297090   6.049   3.134  10.418  1.0650  0.9655 -0.9091
26494SOL     OW97091   4.970   5.156  11.284 -0.0622 -0.6075  0.2037
26494SOL    HW197092   5.061   5.167  11.257  0.4318  2.0085  2.5190
26494SOL    HW297093   4.921   5.158  11.201  1.7920  0.6193 -0.9532
26495SOL     OW97094   3.075   7.951  13.958 -0.5002  0.1125 -0.5746
26495SOL    HW197095   3.060   7.856  13.961  0.1939  0.0059 -0.3412
26495SOL    HW297096   3.019   7.981  13.887 -1.3515 -0.3486 -0.1125
26496SOL     OW97097  12.268   5.181   8.659 -0.5372  0.2730 -0.5868
26496SOL    HW197098  12.325   5.112   8.624 -0.2130 -0.2420  0.8614
26496SOL    HW297099  12.317   5.217   8.733 -0.7906  1.9583 -1.2172
26497SOL     OW97100  12.474   9.005   0.055  0.3316  0.4117 -0.4260
26497SOL    HW197101  12.499   9.035   0.143  1.0515  0.2177 -0.5555
26497SOL    HW297102  12.529   9.055  -0.004  1.2096 -0.7839 -0.6686
26498SOL     OW97103   4.912   1.331  10.757  0.5695 -0.0778  0.0494
26498SOL    HW197104   4.886   1.423  10.768  1.1653  0.2899 -1.3588
26498SOL    HW297105   4.971   1.332  10.682 -0.0973 -1.7394 -0.5366
26499SOL     OW97106   2.370   2.652  11.639 -0.1225 -0.3634 -0.5988
26499SOL    HW197107   2.335   2.632  11.726 -1.7355  1.9841 -0.6317
26499SOL    HW297108   2.297   2.636  11.579 -0.0250  0.9934 -1.1195
26500SOL     OW97109   8.196  13.673   6.681  0.3811  0.3363 -0.1936
26500SOL    HW197110   8.165  13.660   6.771  0.6069  1.1801  0.0152
26500SOL    HW297111   8.127  13.723   6.638 -0.0753 -0.7177 -0.7292
26501SOL     OW97112   6.561  12.472   9.344 -0.4178  0.0731  0.0835
26501SOL    HW197113   6.467  12.473   9.325 -0.1490 -0.0297 -1.3777
26501SOL    HW297114   6.567  12.472   9.439 -1.8967  0.3177  0.1902
26502SOL     OW97115   1.746   0.074   4.333  0.0097 -0.2350  0.1687
26502SOL    HW197116   1.836   0.081   4.367  0.3138 -0.1663 -0.6270
26502SOL    HW297117   1.717  -0.013   4.360  0.3886 -0.3321  0.2753
26503SOL     OW97118   7.311   3.596   2.673 -0.5752 -0.1320 -0.2808
26503SOL    HW197119   7.385   3.653   2.697  1.6134 -3.1415  0.7299
26503SOL    HW297120   7.243   3.617   2.737 -0.0972  1.7011 -0.3145
26504SOL     OW97121   0.221   7.165  10.733 -0.0491 -0.5124  0.0722
26504SOL    HW197122   0.234   7.251  10.694 -1.4516 -0.5758 -0.5859
26504SOL    HW297123   0.307   7.123  10.727  0.0357 -0.1185 -2.0136
26505SOL     OW97124  11.188  12.117   9.402  0.1509  0.2835 -0.6489
26505SOL    HW197125  11.175  12.206   9.369  1.3027  0.1989 -1.3794
26505SOL    HW297126  11.258  12.125   9.467 -0.2235  0.0096 -0.2037
26506SOL     OW97127  10.442  12.540   7.246 -0.5969  0.0894 -0.3000
26506SOL    HW197128  10.520  12.515   7.296 -1.1881 -0.1003  0.5536
26506SOL    HW297129  10.454  12.499   7.160  0.5153  0.5503 -0.3804
26507SOL     OW97130  12.208   8.154  10.477 -0.1889  0.3396  0.1187
26507SOL    HW197131  12.127   8.142  10.528 -0.1077 -0.2997  0.1124
26507SOL    HW297132  12.178   8.183  10.391 -0.3051  1.8072  0.6274
26508SOL     OW97133   9.516   1.209   9.359 -0.2980  0.1299 -0.1311
26508SOL    HW197134   9.555   1.125   9.386 -0.1326  0.0374 -0.6489
26508SOL    HW297135   9.522   1.209   9.264  0.2911  1.0079 -0.1114
26509SOL     OW97136   9.382   3.412  11.724  0.4065  0.3058  0.0865
26509SOL    HW197137   9.437   3.410  11.645 -0.0356  1.3872 -0.2650
26509SOL    HW297138   9.302   3.366  11.698  0.7718 -0.4776  0.3192
26510SOL     OW97139   4.002  13.919   4.568 -0.1392  0.1005 -0.2328
26510SOL    HW197140   4.042  13.880   4.490  1.2340  0.5596  0.2262
26510SOL    HW297141   4.010  14.013   4.554  0.6251  0.1836  0.7130
26511SOL     OW97142   0.898   3.596  10.069 -0.1193  0.0349  0.0916
26511SOL    HW197143   0.941   3.590   9.984 -1.1861 -0.5726 -0.4271
26511SOL    HW297144   0.948   3.537  10.126  2.2979  2.4457  0.7029
26512SOL     OW97145   5.204   2.007   4.547 -0.2619 -0.6476  0.3432
26512SOL    HW197146   5.270   1.940   4.561  1.3896  0.6627 -0.7563
26512SOL    HW297147   5.203   2.057   4.629  1.0974  0.0860 -0.0442
26513SOL     OW97148   9.548   6.346  13.368  0.6149  0.4215  0.5880
26513SOL    HW197149   9.593   6.361  13.451  1.4038 -0.2475  0.2929
26513SOL    HW297150   9.614   6.305  13.312 -0.6921 -1.8191  0.5788
26514SOL     OW97151   2.534   4.972   0.854 -0.2228  0.4458 -0.3062
26514SOL    HW197152   2.617   5.003   0.890  0.0192 -1.4518  0.8734
26514SOL    HW297153   2.467   5.014   0.908  0.0289  0.4265  0.0225
26515SOL     OW97154  11.716   3.642   1.477 -0.0898 -0.2970  0.7591
26515SOL    HW197155  11.781   3.601   1.535 -0.7126 -3.2673 -0.4623
26515SOL    HW297156  11.634   3.597   1.498 -0.6994 -0.1683 -1.1823
26516SOL     OW97157   2.105   9.652   6.694 -0.4000 -1.0935 -0.6601
26516SOL    HW197158   2.096   9.593   6.620 -1.4393 -0.2269 -1.2630
26516SOL    HW297159   2.024   9.702   6.695 -0.4609 -1.1581  1.1494
26517SOL     OW97160   1.841  13.489   5.285  0.5223  0.0568  0.1330
26517SOL    HW197161   1.851  13.409   5.336  0.3416  1.1111  1.8952
26517SOL    HW297162   1.928  13.529   5.286  0.1179  0.9777  1.2281
26518SOL     OW97163   7.849   6.846   8.714 -0.3048  0.1224 -0.7157
26518SOL    HW197164   7.768   6.895   8.723  0.4099  1.0117  1.7646
26518SOL    HW297165   7.851   6.787   8.789  0.9618 -0.4652 -1.1729
26519SOL     OW97166   1.528   7.265   6.188  0.2936  0.4524 -0.5542
26519SOL    HW197167   1.570   7.281   6.103  0.7323 -0.2259 -0.4662
26519SOL    HW297168   1.436   7.290   6.173  0.4726  0.8211 -1.0831
26520SOL     OW97169   2.181  13.229   1.962 -0.6575 -0.4551  0.0699
26520SOL    HW197170   2.270  13.205   1.987  0.0997  0.1573 -1.8678
26520SOL    HW297171   2.126  13.198   2.034  0.6801 -4.0343 -0.2748
26521SOL     OW97172   0.375  10.502   7.480 -0.1868 -0.1154 -0.3307
26521SOL    HW197173   0.317  10.574   7.503  0.2993  0.6865 -1.5071
26521SOL    HW297174   0.318  10.425   7.479 -0.7677  0.2818  0.6726
26522SOL     OW97175   5.492   2.139   5.826  0.2721 -0.0735 -0.3319
26522SOL    HW197176   5.427   2.207   5.810 -1.6237 -1.0225  2.5760
26522SOL    HW297177   5.566   2.185   5.867  0.6194  0.7138 -1.7925
26523SOL     OW97178  12.746  12.043   3.531  0.3282  0.3586 -0.2670
26523SOL    HW197179  12.762  12.077   3.443  0.5547 -2.6230 -1.4945
26523SOL    HW297180  12.783  11.955   3.530 -1.2060 -0.4198  2.2697
26524SOL     OW97181   2.142  13.596   6.442  0.1968  0.3311  0.4453
26524SOL    HW197182   2.053  13.584   6.476 -0.5539  1.0060 -1.2057
26524SOL    HW297183   2.162  13.688   6.457  0.2288  0.4114 -0.0699
26525SOL     OW97184   5.294   2.025   8.604  0.2054 -0.0791 -0.0052
26525SOL    HW197185   5.204   2.028   8.636  0.3575 -0.7720  0.5195
26525SOL    HW297186   5.314   1.932   8.596  1.3094  0.0177  1.1696
26526SOL     OW97187   9.747   1.441   1.947  0.0744  0.0635 -0.0826
26526SOL    HW197188   9.730   1.359   1.900  1.3196 -0.3312  0.1115
26526SOL    HW297189   9.842   1.449   1.948  0.2152 -0.5366  3.3682
26527SOL     OW97190   1.022   2.131   0.536  0.3137 -0.3278 -0.6056
26527SOL    HW197191   0.966   2.053   0.535 -1.3775  0.8265 -1.7545
26527SOL    HW297192   1.080   2.120   0.461  0.5951 -0.8106 -0.3253
26528SOL     OW97193  11.246   5.814  10.517  0.1427 -0.2648  0.0887
26528SOL    HW197194  11.192   5.824  10.595  0.9047 -0.3391  0.6342
26528SOL    HW297195  11.190   5.845  10.446 -0.5947 -0.2837  0.6442
26529SOL     OW97196  13.387   7.297   1.517 -0.8148 -0.5258  0.3787
26529SOL    HW197197  13.347   7.312   1.431 -1.9590 -0.5413  0.8885
26529SOL    HW297198  13.445   7.222   1.503 -1.4808 -0.9431 -0.2383
26530SOL     OW97199   5.304   6.835   6.685 -0.0898 -0.3804 -0.1550
26530SOL    HW197200   5.306   6.786   6.603  1.5857  0.8422 -0.9098
26530SOL    HW297201   5.239   6.904   6.671 -1.1547 -1.2804  0.2545
26531SOL     OW97202  11.309  14.080   9.999 -0.0671 -0.1018  0.7389
26531SOL    HW197203  11.262  14.077  10.082  0.1187  1.7773  0.9604
26531SOL    HW297204  11.379  14.015  10.009  0.8505  1.0747  2.6743
26532SOL     OW97205   3.846  10.799  11.309  0.2476 -0.3305 -0.1051
26532SOL    HW197206   3.851  10.752  11.226 -0.1172 -0.7551  0.1066
26532SOL    HW297207   3.807  10.883  11.286 -0.3501 -0.6504 -0.2916
26533SOL     OW97208   3.416   4.609   0.539  0.2576  0.0119  0.0604
26533SOL    HW197209   3.372   4.659   0.608 -2.6943 -0.8045 -1.0662
26533SOL    HW297210   3.433   4.672   0.470 -0.1492  0.1296  0.0677
26534SOL     OW97211  12.621   0.636  11.024  0.4871  0.2011 -0.1618
26534SOL    HW197212  12.535   0.676  11.039 -0.1015  0.1666 -2.8991
26534SOL    HW297213  12.619   0.555  11.074 -0.9678  0.3668  0.0985
26535SOL     OW97214  10.201   4.139   9.966 -0.5174  0.0698 -0.3000
26535SOL    HW197215  10.147   4.125  10.043  0.3860  1.2925  0.5932
26535SOL    HW297216  10.140   4.173   9.900 -1.2690 -0.8487 -0.1022
26536SOL     OW97217   9.447   0.265   2.465 -0.0655 -0.4779 -0.1591
26536SOL    HW197218   9.369   0.231   2.419  0.2042 -0.3416 -0.7293
26536SOL    HW297219   9.476   0.192   2.519 -1.1722 -0.2104  0.8388
26537SOL     OW97220   4.025  12.307   5.584 -0.8067  0.7316 -0.1866
26537SOL    HW197221   4.040  12.401   5.575  0.7197  0.4785 -0.5374
26537SOL    HW297222   4.017  12.275   5.494 -1.0488  0.4785 -0.0787
26538SOL     OW97223  11.006   4.074   9.608 -0.6561 -0.4445 -0.2359
26538SOL    HW197224  11.068   4.143   9.634 -1.3272  0.3577 -0.7324
26538SOL    HW297225  11.043   3.995   9.646  1.4015 -0.2264 -1.5567
26539SOL     OW97226   0.963  12.751   0.221  0.6200  0.1283  0.3451
26539SOL    HW197227   0.923  12.675   0.179 -1.0734  1.3698 -0.3688
26539SOL    HW297228   0.947  12.738   0.315 -1.0824  0.3472  0.1127
26540SOL     OW97229  13.644   8.931  13.602  0.5336 -0.0103  0.0690
26540SOL    HW197230  13.618   8.854  13.551  0.7107 -1.0612  1.4908
26540SOL    HW297231  13.597   8.921  13.685  1.9925  0.4362  0.9832
26541SOL     OW97232   0.638   0.243   9.750 -0.4979 -0.4921  0.5884
26541SOL    HW197233   0.606   0.321   9.704 -0.8154 -1.4205 -0.8185
26541SOL    HW297234   0.566   0.180   9.743 -0.2252 -0.9391  1.6596
26542SOL     OW97235  12.625   4.460   1.848 -0.0369 -0.2149  0.4555
26542SOL    HW197236  12.636   4.366   1.835  0.7703 -0.0389 -0.2019
26542SOL    HW297237  12.714   4.494   1.853 -0.2925  0.6805 -0.6536
26543SOL     OW97238   1.632   5.250   4.057 -0.4970  0.3558 -0.2751
26543SOL    HW197239   1.594   5.164   4.072 -0.5227  0.2749 -0.7858
26543SOL    HW297240   1.724   5.233   4.037 -1.0515  0.1537 -3.2051
26544SOL     OW97241   3.605   3.761   0.343  0.2162  0.2558  0.1869
26544SOL    HW197242   3.693   3.735   0.317  0.3879  0.5584  0.4514
26544SOL    HW297243   3.553   3.682   0.335  0.7617 -0.2218  1.1219
26545SOL     OW97244   0.422   6.049  11.777 -0.2849  0.2728  0.2392
26545SOL    HW197245   0.511   6.032  11.746 -0.2340  0.0422  0.5075
26545SOL    HW297246   0.397   5.970  11.824 -0.7244  0.2431 -0.0325
26546SOL     OW97247  10.124   1.620  12.183 -0.2060 -0.3166  0.3859
26546SOL    HW197248  10.139   1.619  12.277 -0.7001 -0.5854  0.4689
26546SOL    HW297249  10.156   1.705  12.154 -2.3311  0.8470  1.2069
26547SOL     OW97250   0.227  10.180  11.748 -0.5989  0.1173  0.8104
26547SOL    HW197251   0.314  10.215  11.731  0.5326 -2.0472  1.7361
26547SOL    HW297252   0.216  10.110  11.684 -2.2221  1.1235 -0.0922
26548SOL     OW97253   1.977  10.475   5.133  0.0905 -0.1994 -0.2732
26548SOL    HW197254   1.982  10.539   5.204  1.5355 -0.4759 -0.0947
26548SOL    HW297255   2.035  10.404   5.161 -1.4288 -1.6128 -0.4740
26549SOL     OW97256  11.515   3.078   4.066 -0.0828  0.5786  0.1014
26549SOL    HW197257  11.454   3.141   4.105  1.3309  0.8237  2.1185
26549SOL    HW297258  11.473   2.993   4.079 -0.1625  0.7684  1.2245
26550SOL     OW97259  11.172   0.389  13.592 -0.1592  0.1806 -0.0077
26550SOL    HW197260  11.238   0.375  13.525 -0.3851  3.0805 -0.9860
26550SOL    HW297261  11.221   0.394  13.674  0.5436  0.0090 -0.4080
26551SOL     OW97262   8.942   1.049   2.609 -0.1389  0.6808 -0.3465
26551SOL    HW197263   8.940   0.990   2.684 -1.6952 -0.2198 -1.0675
26551SOL    HW297264   8.857   1.093   2.610  0.1025  1.1970 -1.1559
26552SOL     OW97265  10.572  10.452   8.533  0.6276 -0.1464 -0.0024
26552SOL    HW197266  10.637  10.420   8.596  0.0907  2.4961  2.0442
26552SOL    HW297267  10.595  10.544   8.519 -1.1433  0.1586 -1.2453
26553SOL     OW97268  12.161  12.465   0.144  0.2376  0.1625  0.3203
26553SOL    HW197269  12.203  12.540   0.103 -0.0406  0.2821  0.2559
26553SOL    HW297270  12.095  12.503   0.202  2.4808  0.1778  3.1054
26554SOL     OW97271  11.945  12.126   0.359  0.2529 -0.7338 -0.4448
26554SOL    HW197272  11.860  12.166   0.378 -1.2565 -4.0288  0.5781
26554SOL    HW297273  11.994  12.132   0.442  0.7844  0.5383 -0.8307
26555SOL     OW97274  10.122  12.835   1.155  0.3279  0.4481  0.5405
26555SOL    HW197275  10.123  12.852   1.249  1.6395 -4.4641  1.6755
26555SOL    HW297276  10.211  12.856   1.126 -0.0937  2.0216  0.2936
26556SOL     OW97277   8.290  10.029   5.492  0.6953 -0.6378 -0.0383
26556SOL    HW197278   8.370  10.009   5.541  0.5237  0.7654  0.8306
26556SOL    HW297279   8.295   9.971   5.415  2.7158 -0.3560 -0.1770
26557SOL     OW97280   4.031   6.948   9.755  0.3423 -0.0214  0.0839
26557SOL    HW197281   4.029   6.994   9.839  1.6260  0.5822 -0.1989
26557SOL    HW297282   4.039   7.017   9.690  3.2526 -0.5827 -0.3019
26558SOL     OW97283   2.101   6.919   9.976 -0.4175  0.4173 -0.6373
26558SOL    HW197284   2.033   6.937   9.912 -1.2608  1.6693  0.5485
26558SOL    HW297285   2.119   6.826   9.966 -2.6263 -0.0614 -0.7009
26559SOL     OW97286  12.358  11.495   3.299  0.8660 -0.3828  0.0170
26559SOL    HW197287  12.399  11.578   3.327  0.4054 -0.2409  0.2809
26559SOL    HW297288  12.410  11.467   3.224  0.4923  0.5948 -0.6208
26560SOL     OW97289  13.066   8.994   5.894 -0.6795 -0.5504  0.2457
26560SOL    HW197290  13.138   8.937   5.867 -1.2203 -0.5553 -1.2586
26560SOL    HW297291  13.003   8.989   5.822 -0.9474  1.5737  0.2710
26561SOL     OW97292  10.287   4.055   2.096  0.1457  0.6813  0.2453
26561SOL    HW197293  10.339   4.034   2.173  2.2991  0.4376 -1.1675
26561SOL    HW297294  10.334   4.128   2.055 -0.8081  0.6573 -0.9458
26562SOL     OW97295   5.882   2.780   2.065  0.0711  0.5162 -0.1486
26562SOL    HW197296   5.882   2.847   1.997  0.4853  0.0936 -0.5689
26562SOL    HW297297   5.907   2.699   2.020  1.0491  0.3638  0.6187
26563SOL     OW97298   8.618  10.294   7.174 -0.1512  0.2814 -0.6752
26563SOL    HW197299   8.659  10.323   7.092  0.1100  0.8926 -0.3319
26563SOL    HW297300   8.680  10.232   7.211 -0.5705 -0.5106 -1.2571
26564SOL     OW97301   0.179  12.570   3.319 -0.3292  0.2321 -0.0466
26564SOL    HW197302   0.094  12.528   3.306 -0.1657  0.4247 -1.9808
26564SOL    HW297303   0.243  12.499   3.305 -0.1337  0.3820  0.0778
26565SOL     OW97304   4.553  12.117  11.710  0.1477  0.6356  0.1907
26565SOL    HW197305   4.477  12.155  11.667 -1.5970 -1.1164  1.5468
26565SOL    HW297306   4.551  12.153  11.798  0.9778  0.6587  0.2082
26566SOL     OW97307   6.069   1.747   8.146 -0.2770 -0.1226  0.2233
26566SOL    HW197308   6.101   1.658   8.160 -0.9016 -0.1400  1.7683
26566SOL    HW297309   6.147   1.799   8.129  0.1739 -0.8279  0.0992
26567SOL     OW97310  13.872   9.900   2.011  0.3450 -0.4842 -0.5927
26567SOL    HW197311  13.800   9.875   2.069  0.0152  0.8484 -0.3900
26567SOL    HW297312  13.832   9.960   1.948  1.3476  0.6406 -0.1972
26568SOL     OW97313   7.104   8.663   9.534 -0.3050 -0.4967  0.0365
26568SOL    HW197314   7.194   8.682   9.562  0.9260 -2.5639 -2.1567
26568SOL    HW297315   7.108   8.664   9.438 -3.0544  1.0233 -0.1574
26569SOL     OW97316  12.571   7.504   1.128  0.1463 -0.3232 -0.2889
26569SOL    HW197317  12.650   7.520   1.077  1.1080  1.7888  1.6765
26569SOL    HW297318  12.500   7.541   1.075  1.0343  1.3129 -0.4019
26570SOL     OW97319   7.284   0.355   2.777 -0.5190 -0.0903  0.5018
26570SOL    HW197320   7.353   0.409   2.815 -1.0455 -0.0675  1.4811
26570SOL    HW297321   7.246   0.309   2.853 -0.6582 -1.1624 -0.1936
26571SOL     OW97322  13.037   7.530  10.897  0.0581  0.0089 -0.0377
26571SOL    HW197323  13.076   7.485  10.823 -1.4895 -2.3960  0.4780
26571SOL    HW297324  12.953   7.562  10.864 -0.4068 -0.6190  0.4993
26572SOL     OW97325   3.127  13.228   4.098 -0.2542  0.5262 -0.2006
26572SOL    HW197326   3.162  13.317   4.103 -0.5977  0.7918 -1.8808
26572SOL    HW297327   3.038  13.239   4.065 -1.4619 -0.2499  2.5764
26573SOL     OW97328  12.915  13.165  13.149 -0.1133 -0.2145  0.0607
26573SOL    HW197329  12.906  13.218  13.228 -0.1766  0.3671 -0.3312
26573SOL    HW297330  13.009  13.144  13.144 -0.0879 -0.1390  0.2134
26574SOL     OW97331  10.149  12.206   5.614  0.0139  0.2357 -0.1606
26574SOL    HW197332  10.172  12.298   5.628 -0.8468  0.4086  0.2100
26574SOL    HW297333  10.167  12.164   5.698 -1.7818  0.5526  0.4291
26575SOL     OW97334  10.064  10.392   4.737 -0.5309  0.5554  0.5334
26575SOL    HW197335   9.979  10.434   4.725 -2.2132 -2.1971  1.8904
26575SOL    HW297336  10.074  10.334   4.662  0.1456  0.8084  0.4136
26576SOL     OW97337   9.904  13.757  11.934  0.3028  0.4448 -0.0994
26576SOL    HW197338   9.955  13.677  11.924 -0.1018  0.1913 -0.1480
26576SOL    HW297339   9.921  13.806  11.853 -0.6767 -0.3011 -0.7923
26577SOL     OW97340   1.329  13.010  11.561 -0.0187  0.2784  0.0144
26577SOL    HW197341   1.399  13.071  11.585  0.2175  0.6012 -1.4020
26577SOL    HW297342   1.254  13.037  11.613  0.5509  0.7389  0.6098
26578SOL     OW97343  10.739   1.730  12.309 -0.3595  0.7846  0.3050
26578SOL    HW197344  10.653   1.772  12.305 -0.8346  0.0731  2.1620
26578SOL    HW297345  10.799   1.800  12.334 -0.7581  0.8767  1.0409
26579SOL     OW97346   4.590   9.895   6.496 -0.0723  1.3650 -0.2588
26579SOL    HW197347   4.523   9.854   6.441 -0.2435 -0.0129  0.9379
26579SOL    HW297348   4.670   9.848   6.474  0.1421  1.7657 -0.3430
26580SOL     OW97349   8.151   9.236   2.089  0.0556 -0.6034  0.5644
26580SOL    HW197350   8.137   9.274   2.176 -1.5257  1.4798 -0.5043
26580SOL    HW297351   8.245   9.244   2.074  0.2849 -0.5693  1.8800
26581SOL     OW97352   2.881   3.282   7.209 -0.0005  0.2521 -0.0857
26581SOL    HW197353   2.800   3.294   7.259 -1.0025 -2.9595 -0.6513
26581SOL    HW297354   2.947   3.333   7.256 -2.0573  1.9101  1.1720
26582SOL     OW97355   1.036  10.457   2.219 -0.1652 -0.0239 -0.5159
26582SOL    HW197356   0.946  10.444   2.190 -0.3352 -0.1736  0.0700
26582SOL    HW297357   1.064  10.538   2.177  0.3928 -1.3737 -3.0034
26583SOL     OW97358   9.195   9.612   2.954  0.0409  0.1657  0.3413
26583SOL    HW197359   9.119   9.608   2.896  0.2479  1.5768 -0.0694
26583SOL    HW297360   9.166   9.665   3.029  1.0646  2.2315 -0.6252
26584SOL     OW97361   2.787   8.005   6.563  0.6256 -0.6304  0.0532
26584SOL    HW197362   2.704   8.010   6.609  0.6470 -0.2135  0.0493
26584SOL    HW297363   2.772   8.050   6.480  0.6637 -1.1450 -0.2376
26585SOL     OW97364   8.584  10.720   4.863 -0.5129 -0.2947 -0.2870
26585SOL    HW197365   8.613  10.673   4.785  1.2867 -0.1835  0.2765
26585SOL    HW297366   8.649  10.699   4.929 -1.9506 -0.3058  1.1861
26586SOL     OW97367   2.345  12.074   5.593 -0.4131  0.1986 -0.4306
26586SOL    HW197368   2.255  12.043   5.610 -1.4930  2.4896 -1.5681
26586SOL    HW297369   2.373  12.111   5.676 -0.3830 -0.7452  0.0019
26587SOL     OW97370   7.438  12.722   3.620  0.0632 -0.0272 -0.2598
26587SOL    HW197371   7.470  12.730   3.530  1.3186 -1.5051  0.0163
26587SOL    HW297372   7.372  12.791   3.628  1.5832  1.6853 -1.5643
26588SOL     OW97373  13.460   8.544   3.382  0.1216 -1.0174  0.1091
26588SOL    HW197374  13.458   8.633   3.348 -0.9139 -0.9181  0.3870
26588SOL    HW297375  13.526   8.499   3.329  0.6656 -0.0853 -0.0179
26589SOL     OW97376  12.998   6.402   9.352 -0.0426  0.3971  0.8308
26589SOL    HW197377  13.025   6.461   9.423  2.6016 -0.8493  0.9995
26589SOL    HW297378  12.931   6.346   9.392  0.3019  0.7223  1.9000
26590SOL     OW97379   4.914   3.745   9.043  0.1412 -0.3682 -0.1745
26590SOL    HW197380   4.853   3.819   9.033  0.3953 -0.0311  0.6690
26590SOL    HW297381   4.874   3.674   8.993 -0.9745 -0.1664  0.4066
26591SOL     OW97382   8.668   0.318   8.344  0.4024  0.4143  0.0028
26591SOL    HW197383   8.663   0.413   8.357 -2.0254  0.2577  0.7048
26591SOL    HW297384   8.650   0.307   8.250  0.1720  0.6392  0.0173
26592SOL     OW97385   9.844   5.501   3.563 -0.3392  0.1131  0.2297
26592SOL    HW197386   9.842   5.410   3.591 -0.3956  0.4885  1.5058
26592SOL    HW297387   9.843   5.497   3.468 -1.2077 -1.1974  0.2699
26593SOL     OW97388   8.211   7.338   1.156 -0.1231  0.1204  0.3977
26593SOL    HW197389   8.295   7.329   1.110  0.0848  0.3281  0.7331
26593SOL    HW297390   8.207   7.430   1.180  0.8072 -0.3643  2.7330
26594SOL     OW97391  11.810  13.875   6.420  0.2336 -0.2845  0.0298
26594SOL    HW197392  11.779  13.828   6.343  0.8179 -1.1447  0.2988
26594SOL    HW297393  11.732  13.919   6.454 -0.0087  0.1585 -1.0794
26595SOL     OW97394   7.958   1.693   7.021 -0.0383 -0.4380 -0.3398
26595SOL    HW197395   8.036   1.742   6.996 -0.2661 -0.1503 -0.4970
26595SOL    HW297396   7.955   1.699   7.117  0.6322 -1.2257 -0.2543
26596SOL     OW97397   9.357  14.071  12.445  0.1069 -0.2471 -0.4034
26596SOL    HW197398   9.367  14.165  12.459 -1.8226  0.0284 -0.6255
26596SOL    HW297399   9.273  14.050  12.485  0.6090 -1.9341 -0.1673
26597SOL     OW97400  10.430  12.485  11.368  0.4842 -0.3895  0.3901
26597SOL    HW197401  10.511  12.514  11.324  0.8944 -1.2537  0.5579
26597SOL    HW297402  10.364  12.486  11.299  0.4034  1.2154  0.4524
26598SOL     OW97403   2.404   2.089  13.386 -0.1081  0.4279  0.5068
26598SOL    HW197404   2.363   2.163  13.431 -0.2183  1.2556 -0.8784
26598SOL    HW297405   2.347   2.015  13.404 -1.1218  1.1331  0.2653
26599SOL     OW97406   6.657   4.282  11.975  0.6185 -0.4483 -0.5022
26599SOL    HW197407   6.601   4.208  11.952 -0.7072  0.0735  0.8304
26599SOL    HW297408   6.715   4.248  12.044  0.0364 -0.2814  0.0811
26600SOL     OW97409   0.357   1.546   0.593 -0.5756  0.3301  0.0699
26600SOL    HW197410   0.317   1.520   0.676 -1.4422  1.2246 -0.0484
26600SOL    HW297411   0.434   1.489   0.584 -0.5520  0.1243  1.4097
26601SOL     OW97412  10.903   5.226  11.437 -0.0897 -0.3040 -1.0162
26601SOL    HW197413  10.834   5.201  11.499  1.2830 -2.5451 -0.2856
26601SOL    HW297414  10.926   5.315  11.462 -1.8968  0.0855 -0.5400
26602SOL     OW97415   7.686   3.303   4.009 -0.3676 -0.1755 -0.6623
26602SOL    HW197416   7.761   3.350   4.045 -0.2964 -0.4290 -0.4783
26602SOL    HW297417   7.709   3.211   4.017 -0.1614 -0.2370 -1.7563
26603SOL     OW97418   0.587   3.701   5.560 -0.3170 -0.1184 -0.2899
26603SOL    HW197419   0.647   3.773   5.580 -1.8986  1.2935 -0.3928
26603SOL    HW297420   0.515   3.743   5.513 -1.1688 -1.8360 -0.5828
26604SOL     OW97421   5.364  10.038  12.606  0.1218 -0.3918  0.0344
26604SOL    HW197422   5.296   9.971  12.619  0.4017 -1.0390 -1.6457
26604SOL    HW297423   5.315  10.120  12.596 -0.4959 -0.9596 -1.9240
26605SOL     OW97424  10.244   2.972  11.401  0.1888 -0.1390  0.0568
26605SOL    HW197425  10.233   2.989  11.307 -0.1334 -0.7173 -0.0131
26605SOL    HW297426  10.163   3.004  11.441 -0.7314 -2.0661 -0.1569
26606SOL     OW97427   8.979   8.914   6.066 -0.3890 -0.8068  0.3931
26606SOL    HW197428   8.911   8.969   6.029 -0.4654 -1.9928 -1.3546
26606SOL    HW297429   8.934   8.833   6.090  0.3264 -1.4650 -0.4328
26607SOL     OW97430   1.950   8.523   9.693 -0.0871 -0.4764  0.7032
26607SOL    HW197431   1.858   8.541   9.711  0.0510  1.6325 -0.4350
26607SOL    HW297432   1.951   8.490   9.603  0.4345  2.2977 -0.4288
26608SOL     OW97433   4.010  10.428   2.617  0.1113  0.1159 -0.2354
26608SOL    HW197434   4.024  10.485   2.541  0.6169 -0.0467 -0.2728
26608SOL    HW297435   4.067  10.353   2.601 -0.1470 -0.1482  0.0711
26609SOL     OW97436   3.279   0.483   0.528 -0.4766 -0.3195 -0.0595
26609SOL    HW197437   3.366   0.480   0.567 -0.2288 -0.8214 -0.6453
26609SOL    HW297438   3.265   0.395   0.493 -1.0092 -0.0957 -0.4221
26610SOL     OW97439  12.307   6.331   3.245  0.3640  0.2714  0.4298
26610SOL    HW197440  12.275   6.288   3.166 -1.4546  0.4448  1.0354
26610SOL    HW297441  12.315   6.260   3.309  3.5286 -0.2006 -0.2892
26611SOL     OW97442   8.563   8.522   2.625  0.3489 -0.0548  0.3408
26611SOL    HW197443   8.515   8.440   2.613 -0.1851  0.2237  0.5147
26611SOL    HW297444   8.536   8.553   2.712  1.5143 -0.3231  0.8143
26612SOL     OW97445  14.063   3.075   0.907 -0.4258 -0.5285 -0.2656
26612SOL    HW197446  14.011   3.071   0.827  1.0811 -0.0172 -1.3056
26612SOL    HW297447  14.153   3.085   0.877  0.0215  1.4734  1.4993
26613SOL     OW97448   7.087   5.302   4.667  0.1886 -0.2447 -0.9004
26613SOL    HW197449   6.996   5.299   4.637  0.0855 -1.9010 -0.5476
26613SOL    HW297450   7.124   5.219   4.637  0.9147 -0.6305  0.9415
26614SOL     OW97451   4.930   2.694   8.658  0.1146 -0.2523  0.9006
26614SOL    HW197452   4.954   2.761   8.722  1.9653  0.3038 -0.2893
26614SOL    HW297453   5.010   2.678   8.608 -1.1993 -0.7119 -1.2190
26615SOL     OW97454   5.348   0.621  10.725 -0.0472  0.3260 -0.3538
26615SOL    HW197455   5.357   0.700  10.779  2.9600  0.3861 -0.7975
26615SOL    HW297456   5.400   0.555  10.770 -0.5977 -0.7411 -1.2353
26616SOL     OW97457   6.275   8.819   3.722  0.0541  0.5102  0.4743
26616SOL    HW197458   6.349   8.868   3.759  3.1562 -3.0203 -0.4814
26616SOL    HW297459   6.271   8.849   3.631  0.7368  0.3108  0.3707
26617SOL     OW97460   7.236  11.116   5.634 -0.4448  0.2706 -0.1333
26617SOL    HW197461   7.230  11.094   5.727  0.4412  0.2122 -0.0763
26617SOL    HW297462   7.242  11.212   5.634 -1.3518  0.3388 -0.1982
26618SOL     OW97463   4.908  14.037   3.934  0.4184 -0.5898  0.1746
26618SOL    HW197464   4.948  14.121   3.955 -1.3694  1.1252 -2.5502
26618SOL    HW297465   4.945  14.014   3.849 -0.9994 -1.2059 -0.3096
26619SOL     OW97466  12.632  10.767  12.382 -0.9620  0.2447 -0.2561
26619SOL    HW197467  12.555  10.754  12.326  0.2902 -0.7683 -1.8477
26619SOL    HW297468  12.669  10.679  12.391 -0.4251  0.5976  1.1626
26620SOL     OW97469  11.936   1.796   9.654  0.4658  0.2347  0.0094
26620SOL    HW197470  11.906   1.833   9.571 -0.3736 -0.7245 -0.1341
26620SOL    HW297471  11.993   1.723   9.629  0.4215  0.1061  0.2774
26621SOL     OW97472  11.891   8.006   5.843 -0.4514 -0.2298 -0.2473
26621SOL    HW197473  11.961   8.071   5.836  0.3385 -1.0031  0.1914
26621SOL    HW297474  11.874   7.999   5.936  0.2727 -1.4363 -0.1717
26622SOL     OW97475  13.825   7.977   1.286 -0.2530 -0.5802 -0.1762
26622SOL    HW197476  13.771   8.054   1.265  0.2303 -0.2405 -0.1862
26622SOL    HW297477  13.811   7.917   1.213 -0.8754 -0.6379 -0.0187
26623SOL     OW97478  11.188  11.214   6.276  0.0643  0.1595  0.1985
26623SOL    HW197479  11.175  11.309   6.275  1.9040  0.4964 -2.6070
26623SOL    HW297480  11.264  11.200   6.332  0.3184  0.4542 -0.0692
26624SOL     OW97481   2.846  13.854   2.912 -0.1112  0.2518 -0.1476
26624SOL    HW197482   2.775  13.790   2.915  0.0323  0.1153  0.5383
26624SOL    HW297483   2.825  13.916   2.982 -1.0520  1.8285 -1.7329
26625SOL     OW97484   8.236  10.206   7.771 -0.6921  0.2250 -0.2874
26625SOL    HW197485   8.145  10.197   7.799 -0.5300  2.0008  0.9773
26625SOL    HW297486   8.287  10.155   7.834 -0.6342  1.1728  0.4471
26626SOL     OW97487  12.903   0.777   4.502  0.1767  0.1923 -0.1737
26626SOL    HW197488  12.810   0.756   4.508  0.0877  0.9044  1.6113
26626SOL    HW297489  12.928   0.800   4.592  2.2197 -0.5881 -0.4771
26627SOL     OW97490  12.557   1.007   3.118 -0.4830 -0.0750  0.5713
26627SOL    HW197491  12.564   1.032   3.210 -2.0587  0.7391  0.5049
26627SOL    HW297492  12.463   1.014   3.098 -0.2471 -0.7832 -0.9427
26628SOL     OW97493   3.278   2.842   7.797  0.0635 -0.2647  0.1511
26628SOL    HW197494   3.369   2.863   7.818  0.0876 -0.1525 -0.0602
26628SOL    HW297495   3.226   2.899   7.853  0.1145  2.1582 -2.1065
26629SOL     OW97496   5.754   1.389   5.750  0.5694  0.0306 -0.1641
26629SOL    HW197497   5.808   1.353   5.820 -0.7227 -2.4444 -0.2950
26629SOL    HW297498   5.711   1.312   5.712 -1.5012  1.6594 -1.3267
26630SOL     OW97499   9.105   6.623   3.730  0.0692 -0.1829  0.1683
26630SOL    HW197500   9.072   6.708   3.761  0.7244  0.6383 -1.3175
26630SOL    HW297501   9.199   6.627   3.745  0.0259 -0.9251  0.6894
26631SOL     OW97502  12.570  11.406   3.486  0.2848  0.0107  1.0491
26631SOL    HW197503  12.552  11.398   3.392 -1.0158 -1.9899  1.3968
26631SOL    HW297504  12.533  11.491   3.510 -0.3398  0.0713 -0.0378
26632SOL     OW97505   8.650   0.767   8.530  0.5563 -0.0190  0.2159
26632SOL    HW197506   8.681   0.848   8.488  0.0561  1.0394  1.7841
26632SOL    HW297507   8.684   0.697   8.475  5.1963  0.9921  1.3022
26633SOL     OW97508   9.508  11.646   2.111  0.0434  0.1304  0.1322
26633SOL    HW197509   9.556  11.605   2.183 -0.1481  0.5125  0.4854
26633SOL    HW297510   9.436  11.585   2.093  0.4633 -0.2835 -0.1816
26634SOL     OW97511   3.595   9.385   9.211  0.3132  0.2358  0.1084
26634SOL    HW197512   3.595   9.314   9.147  0.6248  0.5962 -0.2990
26634SOL    HW297513   3.597   9.341   9.296  1.4746 -0.2409 -0.1515
26635SOL     OW97514  10.718   1.959  12.810 -0.2698  0.4896  0.0401
26635SOL    HW197515  10.776   1.927  12.879 -0.4236 -0.5117 -0.2760
26635SOL    HW297516  10.670   1.881  12.781  0.7577  0.5873 -2.1209
26636SOL     OW97517   2.584   8.615  11.379 -0.2993  0.2639 -0.0919
26636SOL    HW197518   2.668   8.658  11.361  0.2435 -0.3746  0.8287
26636SOL    HW297519   2.538   8.677  11.436 -0.8842  1.0570 -1.3851
26637SOL     OW97520   0.447   0.316  12.769 -0.2933 -0.5828 -0.4903
26637SOL    HW197521   0.467   0.255  12.697  0.4072 -0.7516 -0.1548
26637SOL    HW297522   0.351   0.319  12.770 -0.3654 -1.9695 -0.2824
26638SOL     OW97523   1.660  10.919   6.403 -0.5671 -0.1159 -0.2016
26638SOL    HW197524   1.699  10.912   6.316 -1.8505  0.5439 -0.8739
26638SOL    HW297525   1.730  10.897   6.464  0.5211 -0.0124 -1.3828
26639SOL     OW97526  10.322  13.250  13.746 -0.1619 -0.1214 -0.6449
26639SOL    HW197527  10.290  13.336  13.772  0.6489 -0.1405  0.4743
26639SOL    HW297528  10.415  13.252  13.767 -0.1609 -1.3146 -0.5031
26640SOL     OW97529   3.443   5.014   8.289  0.0006 -0.1727 -0.5377
26640SOL    HW197530   3.532   5.048   8.276 -0.9626  2.1341 -1.6254
26640SOL    HW297531   3.413   5.056   8.370 -0.4354 -0.2149 -0.6778
26641SOL     OW97532   0.800   1.206   3.563 -0.0826  0.5237  0.6978
26641SOL    HW197533   0.755   1.286   3.587  1.7539  1.1294  2.3972
26641SOL    HW297534   0.884   1.236   3.527 -0.3402 -0.5925 -0.9358
26642SOL     OW97535   4.276   4.257   9.989  0.4403  0.1743 -0.1200
26642SOL    HW197536   4.369   4.233   9.988  0.5295  0.2095 -3.0943
26642SOL    HW297537   4.272   4.341   9.943 -1.2909 -1.4333 -3.2322
26643SOL     OW97538  12.696  11.621  13.838 -0.2515  0.2052 -0.0476
26643SOL    HW197539  12.626  11.668  13.792  0.3245 -0.7959 -2.0927
26643SOL    HW297540  12.744  11.689  13.885  0.0710  1.6121 -2.2370
26644SOL     OW97541   7.998  13.976  12.109  0.6862 -0.2810 -0.6052
26644SOL    HW197542   7.990  13.978  12.204  0.6368 -2.1715 -0.5238
26644SOL    HW297543   7.908  13.981  12.077  0.6907  0.1792 -0.5412
26645SOL     OW97544   2.675   8.786   4.017 -0.1928 -0.0183  0.3162
26645SOL    HW197545   2.630   8.702   4.021 -0.5060  0.0967 -0.4430
26645SOL    HW297546   2.665   8.813   3.925 -0.1234  0.8539  0.5607
26646SOL     OW97547   1.147  13.140  11.721  0.3277  0.0917 -0.8477
26646SOL    HW197548   1.063  13.106  11.751  1.7219 -1.3051  1.8689
26646SOL    HW297549   1.165  13.214  11.778  2.2916 -1.5741  0.8857
26647SOL     OW97550   2.103   6.619   8.368 -0.3335 -0.6175  0.5474
26647SOL    HW197551   2.126   6.535   8.407 -1.4316 -0.4462  1.6090
26647SOL    HW297552   2.045   6.660   8.431 -2.4100 -0.4065 -1.3627
26648SOL     OW97553   1.852   7.003   6.928  0.2795 -0.3544 -0.2105
26648SOL    HW197554   1.837   6.928   6.985  1.9764 -0.4668  0.1433
26648SOL    HW297555   1.879   6.964   6.845 -2.9998 -0.2353 -1.5041
26649SOL     OW97556   5.881  11.125   3.481 -0.4307 -0.0215 -0.1518
26649SOL    HW197557   5.793  11.164   3.475 -1.0026 -0.8926  1.7862
26649SOL    HW297558   5.914  11.154   3.566  1.9744  1.7877 -1.5849
26650SOL     OW97559   5.937   8.716   3.753 -0.2569 -0.0635 -0.4472
26650SOL    HW197560   5.851   8.675   3.767 -0.6948  1.0801  0.3382
26650SOL    HW297561   5.942   8.729   3.658  0.3903 -2.8952 -0.9109
26651SOL     OW97562  10.922   0.230   3.821  0.1124 -0.4802  0.4941
26651SOL    HW197563  10.893   0.293   3.887  0.6217 -0.4947  0.7371
26651SOL    HW297564  10.979   0.280   3.763 -0.4326 -0.4375 -0.0141
26652SOL     OW97565   6.845   0.495   9.571  0.1928  0.4785  0.4950
26652SOL    HW197566   6.859   0.420   9.513 -0.0040 -0.1517  1.2421
26652SOL    HW297567   6.804   0.457   9.649  1.7669  1.0551  1.6641
26653SOL     OW97568   9.625   6.992   0.351  0.2414 -0.9619 -0.5544
26653SOL    HW197569   9.592   7.078   0.328  0.1299 -0.2563  1.9246
26653SOL    HW297570   9.711   6.987   0.309  0.3543  0.4683 -0.5461
26654SOL     OW97571   4.381  13.578   5.300 -0.3689  0.4672 -0.3792
26654SOL    HW197572   4.385  13.670   5.274  0.7373  0.2016 -1.2230
26654SOL    HW297573   4.404  13.530   5.220  1.2406 -0.4510  0.5953
26655SOL     OW97574   0.208  13.041   3.919 -0.0677  0.1677 -0.0075
26655SOL    HW197575   0.252  13.023   3.836 -0.2928  2.0844 -0.5901
26655SOL    HW297576   0.223  12.962   3.972  2.1122 -0.1642 -0.9951
26656SOL     OW97577  10.830  12.724  12.688 -0.6209 -0.0324 -0.5229
26656SOL    HW197578  10.762  12.784  12.720 -0.7143 -0.8625  0.8981
26656SOL    HW297579  10.905  12.781  12.669 -0.9023  0.6042  0.2490
26657SOL     OW97580  10.282  11.091   3.330  0.2972  0.1882  0.7710
26657SOL    HW197581  10.297  11.127   3.417 -1.3426 -0.3958  1.3438
26657SOL    HW297582  10.356  11.031   3.315 -0.1079 -0.7688  2.3860
26658SOL     OW97583  11.921   1.190   0.528 -0.1020  0.0894 -0.0256
26658SOL    HW197584  11.873   1.111   0.553 -0.5325  0.3618  0.0054
26658SOL    HW297585  11.866   1.232   0.462  0.9219 -0.5198 -1.3295
26659SOL     OW97586  11.374   9.239   7.036  0.0472  0.1694 -0.6981
26659SOL    HW197587  11.343   9.151   7.056 -1.0484  0.2060 -2.0455
26659SOL    HW297588  11.470   9.233   7.040 -0.0090 -1.1455 -1.0058
26660SOL     OW97589   7.134   3.660   2.454  0.6893 -0.4730 -0.1932
26660SOL    HW197590   7.197   3.634   2.522  1.0604  0.6565 -0.0947
26660SOL    HW297591   7.179   3.726   2.403 -0.6749  0.9164  0.3346
26661SOL     OW97592   9.510   4.959   6.180  0.0643  0.0722  0.1348
26661SOL    HW197593   9.493   4.955   6.274 -1.6608  0.6846 -0.1108
26661SOL    HW297594   9.483   4.873   6.147  1.3893 -0.4230  0.2682
26662SOL     OW97595   4.742  11.216   8.804  0.1919  0.3169  0.0237
26662SOL    HW197596   4.776  11.214   8.893  0.2067  1.0456  0.0389
26662SOL    HW297597   4.722  11.308   8.788  2.1492  0.5529 -1.4526
26663SOL     OW97598   2.990   5.069  12.677 -0.5060  0.3550  0.7613
26663SOL    HW197599   2.896   5.062  12.661 -0.5423 -0.7830  1.4266
26663SOL    HW297600   3.004   5.162  12.696 -1.2766  0.7810 -0.6294
26664SOL     OW97601  12.203  12.043   4.212  0.3625  0.2752  0.0211
26664SOL    HW197602  12.293  12.055   4.181  0.4057 -1.6574 -0.7520
26664SOL    HW297603  12.212  11.993   4.293  0.0302  1.0104  0.5145
26665SOL     OW97604   4.794   9.666   4.173 -0.5347  0.5363 -0.4313
26665SOL    HW197605   4.713   9.714   4.157 -0.5370  0.8354  0.4307
26665SOL    HW297606   4.778   9.615   4.252  0.3269  1.1307  0.1560
26666SOL     OW97607  11.361   2.191   6.384  0.0400 -0.4820 -0.0282
26666SOL    HW197608  11.437   2.232   6.343  0.3369  0.8118  1.7315
26666SOL    HW297609  11.398   2.135   6.452 -0.5476  0.9041  1.5046
26667SOL     OW97610   2.930  12.283   2.314  0.9552 -0.1228 -0.0691
26667SOL    HW197611   2.861  12.218   2.305 -0.1576  1.0277 -0.1944
26667SOL    HW297612   3.011  12.232   2.320  0.0821 -1.5126  0.3604
26668SOL     OW97613   5.938   3.576  11.196  0.3012  0.3084  0.2302
26668SOL    HW197614   5.899   3.551  11.279  0.0090  0.8847  0.2681
26668SOL    HW297615   5.866   3.611  11.144  0.1528 -1.5139 -0.8798
26669SOL     OW97616  13.424   4.055   1.623  0.4265  0.1239  0.1460
26669SOL    HW197617  13.400   4.107   1.700  1.1676 -0.1483  0.5715
26669SOL    HW297618  13.484   3.988   1.657  1.5526  0.6057 -0.8166
26670SOL     OW97619   3.461   8.712  11.840  0.2054  0.4844 -0.5444
26670SOL    HW197620   3.548   8.697  11.803  0.5093  0.1739  0.2908
26670SOL    HW297621   3.414   8.630  11.824  0.4697  0.1978  0.1123
26671SOL     OW97622  13.317   4.125   8.617 -0.1996 -0.0993  0.1763
26671SOL    HW197623  13.390   4.156   8.564 -0.4772  0.6969  0.2473
26671SOL    HW297624  13.328   4.168   8.701 -0.2609 -0.6690  0.4834
26672SOL     OW97625  11.107  11.490  13.752 -0.1925  0.5052 -0.2105
26672SOL    HW197626  11.021  11.529  13.735  0.1989  1.1725 -0.7198
26672SOL    HW297627  11.088  11.411  13.803 -1.2254 -0.2109 -1.6486
26673SOL     OW97628   9.750   1.728   8.566 -0.1394 -0.6258  0.2574
26673SOL    HW197629   9.743   1.721   8.661  0.5846  2.1669  0.6021
26673SOL    HW297630   9.683   1.668   8.533 -0.8972 -1.1541  2.5195
26674SOL     OW97631   9.942   6.228   7.590 -0.0354  0.5216  0.1293
26674SOL    HW197632   9.990   6.178   7.655  0.8608 -0.7399 -1.4397
26674SOL    HW297633   9.958   6.183   7.507 -0.2783  2.6293 -1.1622
26675SOL     OW97634  13.157  12.427  12.373 -0.3870 -0.2533 -0.0876
26675SOL    HW197635  13.089  12.445  12.309 -0.1415  0.9746 -0.0204
26675SOL    HW297636  13.239  12.437  12.325 -0.2306 -1.4374 -0.0972
26676SOL     OW97637   0.634   0.410   7.179 -0.4020  0.2394 -0.3942
26676SOL    HW197638   0.656   0.461   7.257 -2.8606  0.1859  0.4089
26676SOL    HW297639   0.645   0.471   7.107  2.1347  0.2274 -0.1249
26677SOL     OW97640   5.117  11.147  13.094 -0.1283 -0.3341 -0.1227
26677SOL    HW197641   5.120  11.114  13.004 -1.0837 -1.7563  0.3347
26677SOL    HW297642   5.029  11.184  13.102  0.7441  1.9647 -0.4583
26678SOL     OW97643   4.696   7.163   0.275  0.2551  0.2163 -0.0303
26678SOL    HW197644   4.640   7.217   0.219  1.5671  0.8553 -0.7774
26678SOL    HW297645   4.785   7.186   0.249  0.8747 -1.5145  0.4090
26679SOL     OW97646   5.878   9.427   9.209  0.1629 -0.4964  0.0464
26679SOL    HW197647   5.922   9.487   9.149  1.2090 -2.2018 -0.9620
26679SOL    HW297648   5.880   9.342   9.165 -2.5548 -1.0475  0.7764
26680SOL     OW97649  13.999   1.679   4.163  0.4995  0.1430  0.5323
26680SOL    HW197650  13.910   1.690   4.198  0.4740 -0.5370  0.6944
26680SOL    HW297651  13.994   1.714   4.074  0.0848  0.1673  0.5624
26681SOL     OW97652   8.222   8.348  14.086 -0.3814  0.5610 -0.0027
26681SOL    HW197653   8.248   8.363  13.995 -0.1156  0.9958  0.1407
26681SOL    HW297654   8.302   8.316  14.129 -0.4090  0.7052  0.1581
26682SOL     OW97655   5.901   6.586   4.911  0.4355  0.1812  0.7907
26682SOL    HW197656   5.852   6.504   4.901  0.9115 -0.0316  0.0734
26682SOL    HW297657   5.990   6.564   4.882 -0.1101  1.6763 -2.5237
26683SOL     OW97658   0.969  11.950   1.209 -0.2760 -0.0496 -0.3092
26683SOL    HW197659   0.970  12.033   1.160 -2.4546  1.3891  1.8660
26683SOL    HW297660   1.061  11.935   1.230  0.1739  1.9896 -0.5567
26684SOL     OW97661   2.544  12.129   9.473 -0.0338  0.0396  0.1915
26684SOL    HW197662   2.608  12.164   9.535  1.2617  0.7434 -1.4575
26684SOL    HW297663   2.501  12.207   9.437 -0.9506 -0.3664  0.3854
26685SOL     OW97664   6.176  13.808   2.727  0.2140 -0.3314  0.1164
26685SOL    HW197665   6.211  13.892   2.697 -0.1660 -0.3863 -0.5085
26685SOL    HW297666   6.236  13.743   2.692 -1.0833 -0.5116 -1.9811
26686SOL     OW97667   2.137   7.418   4.919  0.0965 -0.3190  0.9712
26686SOL    HW197668   2.133   7.489   4.983 -0.3014 -0.8996  1.6092
26686SOL    HW297669   2.135   7.338   4.972 -2.5085 -0.8646  0.1731
26687SOL     OW97670   2.899   9.958   5.858  0.1058  0.2777  0.2002
26687SOL    HW197671   2.961  10.000   5.917  0.0924 -0.4663  0.7584
26687SOL    HW297672   2.823   9.940   5.912 -0.1227  0.0846 -0.1814
26688SOL     OW97673   9.732   8.675   4.684  0.2284 -0.4294  0.3810
26688SOL    HW197674   9.731   8.685   4.779 -1.9109  1.6871  0.2307
26688SOL    HW297675   9.825   8.676   4.661  0.7769  2.4256  2.2151
26689SOL     OW97676   3.267  12.279   7.494 -0.6048 -0.0978 -0.1898
26689SOL    HW197677   3.349  12.232   7.485 -0.2932  0.2124  0.9338
26689SOL    HW297678   3.278  12.357   7.439 -0.1585 -0.0764 -0.0698
26690SOL     OW97679  10.041   4.825  10.153 -0.2960  0.1008 -0.2689
26690SOL    HW197680  10.122   4.873  10.137 -0.2975  0.2586  0.1781
26690SOL    HW297681  10.012   4.855  10.239 -0.8374  0.0528 -0.4314
26691SOL     OW97682   4.453   6.780   0.610  0.3616 -0.1835  0.0398
26691SOL    HW197683   4.448   6.807   0.518  1.8282  1.0639  0.2841
26691SOL    HW297684   4.372   6.814   0.649 -0.8008 -1.6583 -0.9678
26692SOL     OW97685  10.964  13.854   3.993 -0.7441 -0.2066  0.1809
26692SOL    HW197686  10.990  13.946   3.985 -0.2958 -0.3036  0.4834
26692SOL    HW297687  10.917  13.850   4.076  0.6304 -0.5538  0.9785
26693SOL     OW97688   9.428   8.377   3.057  0.3068 -0.5523  0.2343
26693SOL    HW197689   9.385   8.379   2.971 -1.6261 -1.0773  1.1390
26693SOL    HW297690   9.486   8.302   3.053 -0.2849 -0.9892 -0.3849
26694SOL     OW97691  10.614   4.274  11.163 -0.1827  0.4069 -0.3030
26694SOL    HW197692  10.566   4.232  11.234  1.8711  0.0345  0.9715
26694SOL    HW297693  10.648   4.355  11.201  0.7618  0.3180 -0.9260
26695SOL     OW97694   8.056  10.175   4.495 -0.3674  0.6770 -0.9296
26695SOL    HW197695   8.003  10.144   4.569 -0.3591  0.0566 -1.1707
26695SOL    HW297696   8.139  10.126   4.503 -0.7717 -0.2263 -1.9525
26696SOL     OW97697   3.315   5.178   3.919  0.1308  0.4128  0.1139
26696SOL    HW197698   3.306   5.273   3.905 -0.7400  0.6174  1.8835
26696SOL    HW297699   3.396   5.169   3.969  0.4506  0.1620 -0.4367
26697SOL     OW97700   0.132   2.379   3.533 -0.4303 -0.8250  0.2657
26697SOL    HW197701   0.126   2.291   3.570 -1.9971 -0.7273  0.3129
26697SOL    HW297702   0.042   2.414   3.538  0.3110  1.1465  1.1655
26698SOL     OW97703  13.058  10.754   5.444 -0.2403 -0.7628  0.2384
26698SOL    HW197704  13.065  10.658   5.446 -0.8434 -0.8447 -0.9417
26698SOL    HW297705  13.120  10.780   5.376  1.5297 -0.1155  1.9972
26699SOL     OW97706   1.385   6.453   0.649 -0.2846 -0.1889  0.4154
26699SOL    HW197707   1.350   6.382   0.595  1.1000 -0.1797 -0.5493
26699SOL    HW297708   1.313   6.515   0.658 -1.5702 -1.7457  1.3804
26700SOL     OW97709   1.390  12.674   6.119  0.0701 -0.2473 -0.2013
26700SOL    HW197710   1.408  12.582   6.140 -1.6662 -0.0209  2.7412
26700SOL    HW297711   1.477  12.714   6.111  0.8622 -2.1548 -1.9018
26701SOL     OW97712   5.537   3.168   5.939 -0.3238  0.0782 -0.6631
26701SOL    HW197713   5.517   3.237   6.002 -0.1631 -0.4723  0.0119
26701SOL    HW297714   5.588   3.104   5.989 -1.9261 -1.3781 -0.7761
26702SOL     OW97715   5.124   8.892   6.952  0.3782  0.6443 -0.6432
26702SOL    HW197716   5.088   8.898   7.040  1.1928  0.3673 -0.2764
26702SOL    HW297717   5.059   8.933   6.896 -1.5996 -1.8299 -0.3429
26703SOL     OW97718   8.369   8.896   2.150 -0.2992 -0.7780  0.2174
26703SOL    HW197719   8.316   8.943   2.086  1.1504  0.5422 -0.0750
26703SOL    HW297720   8.308   8.837   2.193 -1.9094  0.4015 -0.3588
26704SOL     OW97721   7.190  13.577   4.718 -0.0588  0.3118 -0.3985
26704SOL    HW197722   7.176  13.519   4.793 -0.3443  1.4787  0.4811
26704SOL    HW297723   7.145  13.533   4.646 -0.1771 -0.6134  0.2170
26705SOL     OW97724   7.563   0.167   3.310 -0.5072  0.2615  0.1708
26705SOL    HW197725   7.619   0.102   3.266  0.7766  1.2015  0.3395
26705SOL    HW297726   7.554   0.135   3.399  0.9286  0.7687  0.5228
26706SOL     OW97727   5.924   7.763   4.188 -0.4192  0.0547  0.3509
26706SOL    HW197728   5.937   7.817   4.109  1.4363  0.6886  1.0426
26706SOL    HW297729   5.852   7.806   4.234 -0.3056  0.7713 -0.1155
26707SOL     OW97730   9.945   5.096  14.016  0.1558 -0.6011 -0.2079
26707SOL    HW197731   9.870   5.098  13.958  0.1590 -2.2107 -0.3106
26707SOL    HW297732   9.917   5.040  14.089  1.4788 -1.8221 -0.6056
26708SOL     OW97733   3.897   5.829  10.043 -0.3801  0.2642  0.0712
26708SOL    HW197734   3.988   5.845  10.015 -0.2592 -0.7489 -0.1369
26708SOL    HW297735   3.887   5.734  10.039 -1.0409  0.2599  1.4048
26709SOL     OW97736  13.711  12.066  14.057  0.6421  0.2425  0.2799
26709SOL    HW197737  13.732  12.144  14.006 -2.5974  0.2531 -1.3002
26709SOL    HW297738  13.746  11.994  14.005  1.0297  0.4875  0.1977
26710SOL     OW97739   4.699   4.626   4.049 -0.2136 -0.3605 -0.4342
26710SOL    HW197740   4.727   4.536   4.065 -0.0060 -0.3876 -0.9317
26710SOL    HW297741   4.620   4.636   4.102  0.7372 -0.2646  1.0291
26711SOL     OW97742  11.994   9.366   0.251 -0.7220  0.0267 -0.2680
26711SOL    HW197743  11.934   9.433   0.282 -0.7702 -0.0426 -0.2119
26711SOL    HW297744  11.959   9.284   0.286  0.0394  0.1080  0.7210
26712SOL     OW97745   9.087   4.716   5.206  0.0691 -0.2766 -0.2056
26712SOL    HW197746   9.116   4.777   5.138 -1.1972  0.1102 -0.4166
26712SOL    HW297747   9.003   4.683   5.174 -0.3599 -0.3755  0.9941
26713SOL     OW97748  10.122   5.089  13.746  0.3127  0.1467  0.2904
26713SOL    HW197749  10.063   5.081  13.820  0.2611  0.5485  0.2935
26713SOL    HW297750  10.203   5.045  13.775 -0.9345 -3.2036 -0.8122
26714SOL     OW97751   1.373   0.144   6.800 -0.5825 -0.3853  0.1418
26714SOL    HW197752   1.358   0.093   6.720 -2.2872 -1.8578  1.3151
26714SOL    HW297753   1.321   0.223   6.788  0.1904  0.0190 -0.7024
26715SOL     OW97754   8.310   5.712   5.656 -0.2668 -0.3648 -0.1504
26715SOL    HW197755   8.273   5.800   5.664 -1.4293 -0.8989  0.5300
26715SOL    HW297756   8.332   5.704   5.563  0.2432  0.7758 -0.1527
26716SOL     OW97757   1.825   0.811   8.451  0.0301  0.2648 -0.0529
26716SOL    HW197758   1.751   0.864   8.422 -0.4525 -0.4572 -0.1651
26716SOL    HW297759   1.867   0.781   8.370 -0.3657 -0.4320 -0.0123
26717SOL     OW97760   6.269  13.422   8.202  0.0527  1.5434 -0.2739
26717SOL    HW197761   6.340  13.459   8.254  1.3315 -1.9070  0.7170
26717SOL    HW297762   6.197  13.411   8.264  0.7202 -0.2205  0.2753
26718SOL     OW97763   3.664   0.685   8.408  0.0451  0.1801 -0.2722
26718SOL    HW197764   3.716   0.615   8.446  2.1841  0.8886 -1.7005
26718SOL    HW297765   3.577   0.647   8.396 -0.4069 -0.5262  3.7484
26719SOL     OW97766   6.634  11.285   2.413 -0.2534 -0.0724  0.1461
26719SOL    HW197767   6.703  11.233   2.453 -0.3376  0.6267  1.2474
26719SOL    HW297768   6.606  11.345   2.482 -0.0633  1.5330 -1.1214
26720SOL     OW97769   1.421  10.010   1.986  0.1445 -0.5513 -0.6022
26720SOL    HW197770   1.360   9.942   2.016  0.0464  0.2750  1.1485
26720SOL    HW297771   1.371  10.060   1.922 -1.4069  0.7075  1.5024
26721SOL     OW97772  11.796   8.717   1.857  0.9863  0.4643 -0.2911
26721SOL    HW197773  11.736   8.778   1.900  0.4754 -0.2471  0.0372
26721SOL    HW297774  11.785   8.735   1.764  1.1063  1.1076 -0.1881
26722SOL     OW97775  12.764  11.313   7.584  0.1777  0.4852  0.2774
26722SOL    HW197776  12.738  11.381   7.522  0.2472  0.1614 -0.1149
26722SOL    HW297777  12.692  11.310   7.647 -0.2470  0.3177 -0.2080
26723SOL     OW97778   5.969  12.456   8.983 -0.8247 -0.2108 -0.1174
26723SOL    HW197779   5.964  12.499   8.898  0.4746  1.9703  0.8449
26723SOL    HW297780   6.019  12.376   8.966 -0.7810  0.0816 -1.4466
26724SOL     OW97781  10.308  11.762  13.989 -0.2671  0.0124  0.0228
26724SOL    HW197782  10.278  11.758  13.898  2.7760 -0.0613 -1.1297
26724SOL    HW297783  10.253  11.828  14.030 -2.2799 -0.5431 -1.6249
26725SOL     OW97784   7.896   5.603   3.433 -0.2460 -0.8290  0.4645
26725SOL    HW197785   7.968   5.617   3.372 -0.3957  0.2414  0.5181
26725SOL    HW297786   7.833   5.550   3.384 -0.4980  0.2638 -0.4324
26726SOL     OW97787   6.221   6.412   1.000  0.8088  0.6700 -0.2212
26726SOL    HW197788   6.227   6.400   0.905  2.4825 -1.2118  0.0507
26726SOL    HW297789   6.308   6.445   1.025  0.9031 -0.3293  0.8238
26727SOL     OW97790  13.400   9.503   1.911  0.0582 -0.5071  0.0245
26727SOL    HW197791  13.370   9.490   2.001 -2.7484 -0.1787 -0.7792
26727SOL    HW297792  13.427   9.417   1.882 -0.0487 -0.8295  0.8387
26728SOL     OW97793  13.713   9.934  10.554 -0.2666 -0.2440 -1.2579
26728SOL    HW197794  13.788   9.874  10.555  0.4010  0.5773 -0.0311
26728SOL    HW297795  13.638   9.879  10.578  0.3530 -0.5948 -0.0599
26729SOL     OW97796   1.908   7.451  10.488 -0.0981  0.3492 -0.3959
26729SOL    HW197797   1.840   7.455  10.556 -0.8466  0.3634 -1.1229
26729SOL    HW297798   1.859   7.456  10.406  0.8058  0.5152 -0.9353
26730SOL     OW97799   0.913   6.533   9.091  0.3768  0.0427 -0.5114
26730SOL    HW197800   0.916   6.438   9.099  1.8481  0.1500  0.6676
26730SOL    HW297801   0.821   6.553   9.073 -0.6528 -1.3930  2.4878
26731SOL     OW97802   3.489  11.349   9.697 -0.3081 -0.6448 -0.3323
26731SOL    HW197803   3.478  11.444   9.699  0.4568 -0.5486  1.4050
26731SOL    HW297804   3.413  11.315   9.745  1.2132 -0.6056  2.3656
26732SOL     OW97805   6.874   8.698  13.326 -0.4789 -0.1822  0.0406
26732SOL    HW197806   6.883   8.764  13.258 -1.4469  0.6718  0.7012
26732SOL    HW297807   6.876   8.615  13.280 -0.1920  0.3480 -0.9214
26733SOL     OW97808   9.172   7.467   5.090 -0.1227 -0.0807 -0.5232
26733SOL    HW197809   9.109   7.503   5.152 -0.1574 -0.3257 -0.4166
26733SOL    HW297810   9.210   7.544   5.047 -2.2936  0.0413 -2.3910
26734SOL     OW97811   0.966  12.979   2.505  0.6676  0.0590  0.5447
26734SOL    HW197812   0.906  12.970   2.431  0.1642 -3.4262  1.2071
26734SOL    HW297813   0.909  12.997   2.580 -0.0696 -4.7237  1.4603
26735SOL     OW97814   0.849  11.396   0.562  1.1181 -0.1914 -0.4064
26735SOL    HW197815   0.920  11.359   0.511  2.6249  2.2024 -0.1941
26735SOL    HW297816   0.891  11.437   0.637 -0.6437 -0.0261  0.5575
26736SOL     OW97817  11.202   6.425   3.607  0.5434 -0.5684 -0.3989
26736SOL    HW197818  11.227   6.371   3.532 -1.4045  0.0494 -1.5676
26736SOL    HW297819  11.231   6.513   3.584  0.0801 -0.4034 -0.3558
26737SOL     OW97820   9.532  10.168   7.215 -0.5458 -0.3000 -0.5242
26737SOL    HW197821   9.570  10.084   7.241 -1.2975  0.1423  2.3257
26737SOL    HW297822   9.437  10.152   7.213 -0.7176  0.5168  0.3580
26738SOL     OW97823  12.404   7.542   8.476  0.1164  0.1203  0.1045
26738SOL    HW197824  12.351   7.620   8.489  0.0310  0.4660 -1.9874
26738SOL    HW297825  12.404   7.498   8.561 -0.7219  1.8340  1.0250
26739SOL     OW97826   9.249   2.412   3.015 -0.5238 -0.1771  0.0449
26739SOL    HW197827   9.246   2.419   3.110 -1.2076  1.2123 -0.0494
26739SOL    HW297828   9.343   2.409   2.994 -0.3084  1.2169  0.6824
26740SOL     OW97829   2.206   0.268   7.075  0.1232  0.3916  0.1259
26740SOL    HW197830   2.299   0.253   7.061  0.3385  1.6775  0.0943
26740SOL    HW297831   2.164   0.225   7.000  0.7127  0.1628 -0.0845
26741SOL     OW97832  10.404   3.480  10.807 -0.1623 -0.2872  0.0223
26741SOL    HW197833  10.446   3.436  10.881 -0.1352  0.7662  0.6564
26741SOL    HW297834  10.447   3.444  10.729  0.3642 -0.8330  0.5628
26742SOL     OW97835  10.576   3.997  12.286  0.2289 -0.5247  0.7029
26742SOL    HW197836  10.620   3.939  12.349 -2.9974 -3.3244  0.6522
26742SOL    HW297837  10.510   4.043  12.337  0.5885  0.6633  0.1295
26743SOL     OW97838   6.529   3.065   3.767  0.0370 -0.6862 -0.2442
26743SOL    HW197839   6.586   2.989   3.778  0.1560 -0.6341 -0.4863
26743SOL    HW297840   6.474   3.066   3.845  0.9504 -0.2349  0.4103
26744SOL     OW97841   7.137   8.336   2.527  0.6125  0.4213  0.6544
26744SOL    HW197842   7.108   8.320   2.617 -0.4611  1.0120  0.4409
26744SOL    HW297843   7.056   8.357   2.480  0.9913 -1.0057 -0.7158
26745SOL     OW97844   1.216   6.301  11.754 -0.1563  0.0530  0.2435
26745SOL    HW197845   1.178   6.255  11.829  0.6271 -0.4917  0.3209
26745SOL    HW297846   1.303   6.328  11.784  0.6625 -1.2293 -0.8321
26746SOL     OW97847  13.384   4.354  14.030  0.2899  0.2392 -0.3628
26746SOL    HW197848  13.396   4.276  14.084  0.7674  0.6922  0.1948
26746SOL    HW297849  13.438   4.338  13.952  0.2253 -0.0775 -0.3409
26747SOL     OW97850   6.182   3.400   7.457  0.3210 -0.1601 -0.0988
26747SOL    HW197851   6.191   3.339   7.384  0.5936 -0.8490  0.4934
26747SOL    HW297852   6.088   3.404   7.474  0.3325 -0.7039  0.0956
26748SOL     OW97853   8.644  11.977  13.739  0.5713 -0.1418 -0.3398
26748SOL    HW197854   8.680  12.060  13.709  0.1962 -0.0460 -0.5291
26748SOL    HW297855   8.607  11.998  13.826 -0.8390  0.2539 -1.0011
26749SOL     OW97856  10.406  11.654   3.839  0.4835 -0.3379 -0.0703
26749SOL    HW197857  10.389  11.677   3.930  0.4282 -0.0048 -0.1643
26749SOL    HW297858  10.394  11.736   3.791  1.2575 -0.3394 -0.2851
26750SOL     OW97859   3.277   1.026   9.480  0.0490  0.0283 -0.8543
26750SOL    HW197860   3.257   1.042   9.572  0.9271  2.0125 -0.9523
26750SOL    HW297861   3.193   1.003   9.441 -0.3806 -0.6111  0.3779
26751SOL     OW97862   6.161   0.211   4.298  0.3112  0.7495 -0.5574
26751SOL    HW197863   6.243   0.258   4.283  0.2243  1.2539  0.4827
26751SOL    HW297864   6.189   0.125   4.330  0.4755  1.5368  1.6241
26752SOL     OW97865   8.640  13.790  11.893 -0.2512 -0.1318  0.3438
26752SOL    HW197866   8.728  13.768  11.862  0.2115 -0.5918  1.8513
26752SOL    HW297867   8.593  13.707  11.894 -0.5182  0.0156  0.1000
26753SOL     OW97868   9.027   3.947  10.744 -0.4223  0.0158 -0.1224
26753SOL    HW197869   9.047   3.961  10.837  0.0466 -1.2758 -0.0067
26753SOL    HW297870   9.096   3.995  10.698 -0.1673 -0.0228  0.2124
26754SOL     OW97871   2.050   1.809   4.477  0.3363 -0.1311  0.3589
26754SOL    HW197872   2.000   1.845   4.549  0.8676 -0.7528  1.0550
26754SOL    HW297873   1.987   1.756   4.427  0.1050 -0.1932  0.7190
26755SOL     OW97874   4.665   2.683   5.184 -0.2643 -0.1288  0.1844
26755SOL    HW197875   4.683   2.637   5.266  2.0404 -0.1330 -0.2805
26755SOL    HW297876   4.690   2.774   5.202 -1.1837  0.1886 -0.0773
26756SOL     OW97877   3.947   9.289   3.842 -0.5737 -0.0222 -0.1347
26756SOL    HW197878   3.880   9.353   3.866  1.3355  1.4372  1.7456
26756SOL    HW297879   4.004   9.335   3.780 -0.6296 -0.8185 -0.7866
26757SOL     OW97880   1.962   8.454  13.260 -0.1094  0.8392  0.5645
26757SOL    HW197881   1.974   8.372  13.308 -0.3755 -0.4611 -1.4642
26757SOL    HW297882   2.042   8.464  13.208 -0.5732  1.2201 -0.1018
26758SOL     OW97883   8.937   1.612   6.788  0.6417  0.7859 -0.4773
26758SOL    HW197884   8.887   1.585   6.711 -0.5284  1.4121  0.0235
26758SOL    HW297885   8.960   1.703   6.771  1.2379  0.6315 -0.5087
26759SOL     OW97886  11.997   5.867   5.294  0.3796  0.6448 -0.8469
26759SOL    HW197887  11.989   5.771   5.290 -0.0011  0.6660 -0.5930
26759SOL    HW297888  11.984   5.896   5.204 -0.8769  0.5622 -0.7119
26760SOL     OW97889   1.573   3.080   9.350  0.2854 -0.2122  0.2235
26760SOL    HW197890   1.618   3.010   9.399  1.0212  0.5019  0.5986
26760SOL    HW297891   1.522   3.126   9.417  0.5568  0.1930  0.1527
26761SOL     OW97892   0.972   2.625   2.202  0.4172  0.3589 -0.2069
26761SOL    HW197893   0.923   2.706   2.214  0.0897  0.1961 -0.4287
26761SOL    HW297894   1.044   2.631   2.264  0.9066  1.2212 -0.8233
26762SOL     OW97895   5.870   5.962   5.801 -0.4388 -0.1997  0.4769
26762SOL    HW197896   5.845   6.029   5.737 -0.0101 -0.3884  0.1056
26762SOL    HW297897   5.949   5.922   5.764  0.7871  0.7978  1.8864
26763SOL     OW97898  13.461   3.630  12.192  0.0343 -0.0324  0.2545
26763SOL    HW197899  13.467   3.648  12.286  2.1862 -1.5027  0.4631
26763SOL    HW297900  13.542   3.666  12.156  0.4908 -1.7944 -0.5931
26764SOL     OW97901  12.992  13.487   7.289  0.1121 -0.2396  0.0184
26764SOL    HW197902  13.077  13.502   7.247 -0.6803 -1.1616 -2.0719
26764SOL    HW297903  12.938  13.561   7.262  0.0034 -0.0916  0.6309
26765SOL     OW97904  10.875   0.591   5.095  0.1886 -0.1424 -0.6589
26765SOL    HW197905  10.956   0.564   5.052  0.6113  1.4341 -0.9288
26765SOL    HW297906  10.903   0.651   5.164 -0.8009  1.2545 -1.4301
26766SOL     OW97907  13.033   7.931  12.535  0.1226  0.2003  0.2565
26766SOL    HW197908  12.982   7.907  12.457 -0.9269  2.8442  0.0278
26766SOL    HW297909  12.968   7.942  12.604  0.7310  0.7405  0.7555
26767SOL     OW97910   6.961  12.332  10.509 -0.0289 -0.1533 -0.7882
26767SOL    HW197911   7.052  12.358  10.519 -0.8146  2.2611  1.3459
26767SOL    HW297912   6.948  12.264  10.575 -0.6560  2.5009  2.0514
26768SOL     OW97913   4.880   3.690  11.185  0.4212 -0.3962  0.2546
26768SOL    HW197914   4.929   3.718  11.262  1.8451 -0.0726 -0.7405
26768SOL    HW297915   4.912   3.602  11.167  1.8590  0.4083 -1.3357
26769SOL     OW97916   5.033   4.500  12.007 -0.5521  0.5920 -0.3376
26769SOL    HW197917   5.104   4.559  12.032  0.5737  0.2283 -2.5236
26769SOL    HW297918   4.979   4.551  11.947 -0.3112 -0.1632 -1.2101
26770SOL     OW97919   2.502   6.883   1.701 -1.0999 -0.0223  0.7130
26770SOL    HW197920   2.571   6.901   1.765 -0.4356  2.1569 -0.5001
26770SOL    HW297921   2.421   6.902   1.749 -0.6673  0.7566  1.1643
26771SOL     OW97922   9.037   6.186  12.678  0.2792  0.1709  0.1029
26771SOL    HW197923   8.971   6.251  12.704  0.2023  0.4565 -0.7578
26771SOL    HW297924   8.995   6.102  12.696 -1.0418  0.2941 -1.9119
26772SOL     OW97925  12.617   8.260   9.159  0.0672  0.1290  0.3412
26772SOL    HW197926  12.708   8.280   9.139 -0.0620 -0.1454 -0.5682
26772SOL    HW297927  12.569   8.290   9.082 -0.6863  0.8136  1.0533
26773SOL     OW97928   7.454   7.099   0.637 -0.3365 -0.4226 -0.8383
26773SOL    HW197929   7.398   7.078   0.711 -1.9847  0.9681 -1.6169
26773SOL    HW297930   7.507   7.173   0.668  0.1497 -0.8830 -0.5445
26774SOL     OW97931   2.855   9.878   4.363  1.1275  0.8568 -0.1209
26774SOL    HW197932   2.831   9.934   4.289  0.1894  1.7271  0.8140
26774SOL    HW297933   2.776   9.873   4.416  1.5462 -0.4325  0.4169
26775SOL     OW97934   5.284   6.249   5.112  0.2262  0.4218  0.1462
26775SOL    HW197935   5.369   6.239   5.155  0.7884 -2.1411 -1.3702
26775SOL    HW297936   5.291   6.333   5.067  1.7980  0.4583  0.3761
26776SOL     OW97937  13.928  11.035   9.476  0.3442 -0.2193  0.2051
26776SOL    HW197938  13.861  11.021   9.543 -0.3901  0.5069 -0.3668
26776SOL    HW297939  14.010  11.012   9.519 -0.2765 -1.2316  0.8825
26777SOL     OW97940   5.163   4.094  11.716 -0.1658  0.1063 -0.2124
26777SOL    HW197941   5.167   4.185  11.747 -3.0636  0.5230 -0.7650
26777SOL    HW297942   5.134   4.101  11.625  0.2790 -1.3804 -0.4929
26778SOL     OW97943  10.928   4.729   1.213  0.3708 -0.7169 -0.1287
26778SOL    HW197944  10.941   4.701   1.122  1.3448  0.9248 -0.5271
26778SOL    HW297945  10.853   4.677   1.243 -0.3636 -0.8573 -2.0518
26779SOL     OW97946  12.864   9.860   6.364 -0.0815 -0.1223  0.3640
26779SOL    HW197947  12.862   9.780   6.418  0.4258 -0.3381  0.0715
26779SOL    HW297948  12.956   9.873   6.344 -0.2288  0.1713 -0.1415
26780SOL     OW97949   9.119  13.481   5.298  0.2343  0.5879  0.0042
26780SOL    HW197950   9.113  13.388   5.321 -0.2954  1.1276  2.3695
26780SOL    HW297951   9.207  13.507   5.324  0.7669  0.5211 -1.6849
26781SOL     OW97952  11.943   5.633   2.911  0.1413 -0.5728  0.4297
26781SOL    HW197953  11.894   5.564   2.957 -0.2506 -0.2188  0.5422
26781SOL    HW297954  11.878   5.676   2.856  0.2786  0.0584  0.7620
26782SOL     OW97955  11.645   1.266  10.168  0.6053 -0.2797 -0.1346
26782SOL    HW197956  11.700   1.188  10.166  1.5736  0.3638  0.5054
26782SOL    HW297957  11.679   1.322  10.098 -0.9191 -0.9425 -1.4666
26783SOL     OW97958   8.994   2.695   5.459  0.6714  0.1176 -0.1213
26783SOL    HW197959   8.923   2.754   5.484 -0.0777 -0.8051 -0.0230
26783SOL    HW297960   9.028   2.732   5.378 -0.6141  0.0222 -0.7323
26784SOL     OW97961   8.411  11.934   2.965 -0.0550 -0.3698 -0.1427
26784SOL    HW197962   8.374  11.999   3.025  1.0797  1.3584 -1.2355
26784SOL    HW297963   8.414  11.854   3.017 -1.7221  0.3549  1.1907
26785SOL     OW97964   7.149  12.112  10.352 -0.1462 -0.2668 -0.6502
26785SOL    HW197965   7.168  12.036  10.297  1.9068 -0.0124 -0.3679
26785SOL    HW297966   7.227  12.167  10.344 -0.6911  0.7856  0.8674
26786SOL     OW97967   5.553  10.681   1.792  0.3295  0.3055  0.2403
26786SOL    HW197968   5.485  10.618   1.817 -1.4650  1.7435 -0.7393
26786SOL    HW297969   5.527  10.763   1.835  0.9825  1.0892 -0.8003
26787SOL     OW97970   8.029   5.793   7.490 -0.1035  0.1771  0.3641
26787SOL    HW197971   8.090   5.740   7.542 -0.8294  0.6180  1.7417
26787SOL    HW297972   7.955   5.734   7.473  0.2822 -0.0701 -0.4784
26788SOL     OW97973   5.152   3.718  12.871  0.6078  0.1272 -0.1613
26788SOL    HW197974   5.133   3.639  12.921  0.8552 -0.1018 -0.4211
26788SOL    HW297975   5.145   3.789  12.934  0.7938 -0.1448  0.1714
26789SOL     OW97976   2.013   3.017  13.752 -0.3211 -0.4879  0.4084
26789SOL    HW197977   1.935   3.060  13.788 -1.1170 -0.3390 -1.4221
26789SOL    HW297978   2.066   3.089  13.718 -0.3333 -0.7414 -0.1482
26790SOL     OW97979   7.858   1.827   1.229 -0.0160 -0.1673  0.1288
26790SOL    HW197980   7.817   1.775   1.160 -1.2169  0.3390  0.4441
26790SOL    HW297981   7.843   1.777   1.309 -0.4423  0.2495  0.3120
26791SOL     OW97982  14.059   9.210   5.534  0.0965 -0.2075  0.4250
26791SOL    HW197983  14.115   9.199   5.457  0.7645  0.2575  0.8378
26791SOL    HW297984  14.068   9.302   5.558  0.1701 -0.4214  1.2649
26792SOL     OW97985  10.419   9.620   5.454  0.8628  0.2520  0.0869
26792SOL    HW197986  10.514   9.611   5.447  0.7921 -2.7749  1.4372
26792SOL    HW297987  10.392   9.545   5.506 -2.3718  0.6670 -0.7977
26793SOL     OW97988   0.083   2.994   1.537  0.0908  0.1139 -0.6127
26793SOL    HW197989   0.011   2.935   1.513  0.8474 -0.3886 -1.7176
26793SOL    HW297990   0.049   3.043   1.611 -1.6672  0.4010 -1.5506
26794SOL     OW97991  10.288   3.989   3.305 -0.4792 -0.2520  0.2600
26794SOL    HW197992  10.257   3.955   3.389 -0.2321 -1.2487 -0.0276
26794SOL    HW297993  10.339   3.916   3.268  1.0769  0.8507  0.1270
26795SOL     OW97994   6.458   0.854   3.267 -0.3000  0.2783  0.3962
26795SOL    HW197995   6.502   0.770   3.259  0.0396  0.4463  0.4740
26795SOL    HW297996   6.527   0.919   3.257 -0.6463  0.5582 -0.2321
26796SOL     OW97997   8.400   3.606   0.190  0.3819 -0.1459 -0.4542
26796SOL    HW197998   8.484   3.627   0.232 -0.2745  1.4283  0.1441
26796SOL    HW297999   8.414   3.626   0.097  0.9239 -0.7755 -0.5196
26797SOL     OW98000   6.760  10.510   1.175 -0.0644 -0.0608  0.4793
26797SOL    HW198001   6.787  10.601   1.160 -2.6398  0.5634 -1.0721
26797SOL    HW298002   6.711  10.487   1.096 -0.1515 -2.5717  1.1829
26798SOL     OW98003   5.304   8.898  12.635 -0.4210 -0.1273  0.4104
26798SOL    HW198004   5.239   8.828  12.633 -0.6014  0.0380  0.4956
26798SOL    HW298005   5.253   8.979  12.623 -0.0847 -0.1010 -1.0929
26799SOL     OW98006  12.804  11.078  13.416  0.2037  0.1453 -0.4009
26799SOL    HW198007  12.722  11.103  13.372  0.2277 -0.5073 -0.8244
26799SOL    HW298008  12.835  11.160  13.455 -1.5331  0.0843  1.2623
26800SOL     OW98009   6.849   9.109   5.144 -0.0042 -0.1858 -0.0887
26800SOL    HW198010   6.933   9.152   5.156  0.7416 -1.8540  1.1974
26800SOL    HW298011   6.834   9.110   5.050  2.0759 -0.9138 -0.4820
26801SOL     OW98012  11.781   4.438   4.099 -0.5256 -0.4995 -0.3457
26801SOL    HW198013  11.875   4.453   4.105 -0.4840 -0.7417 -0.3885
26801SOL    HW298014  11.761   4.377   4.170 -0.7448 -0.0199  0.0170
26802SOL     OW98015   5.596  10.907  12.382  0.4480 -0.1909 -0.0976
26802SOL    HW198016   5.611  10.817  12.409  1.1225 -0.1575 -0.3676
26802SOL    HW298017   5.567  10.901  12.291 -1.0241 -0.2393  0.3373
26803SOL     OW98018  11.302   5.460   7.251 -0.2444  0.2348  0.2929
26803SOL    HW198019  11.220   5.412   7.264 -0.4953  0.9024  1.2432
26803SOL    HW298020  11.338   5.471   7.339 -0.0578  1.5352  0.0814
26804SOL     OW98021   8.345  12.809   2.295  0.0063  0.0036  0.3388
26804SOL    HW198022   8.329  12.714   2.297 -0.3447 -0.0006 -1.2216
26804SOL    HW298023   8.314  12.840   2.380 -2.2369 -0.9563 -0.0558
26805SOL     OW98024   2.124   0.402   5.836  0.4131 -0.6406 -0.3310
26805SOL    HW198025   2.071   0.472   5.873  2.7347  1.7635 -1.2670
26805SOL    HW298026   2.122   0.416   5.742  2.0044 -0.9719 -0.4490
26806SOL     OW98027   9.450  10.495  11.086 -0.1743  0.1834  1.1789
26806SOL    HW198028   9.503  10.567  11.118 -1.2307  0.4129  2.5009
26806SOL    HW298029   9.389  10.476  11.158 -1.7551 -0.1778 -0.1924
26807SOL     OW98030   5.089   2.713  12.355  0.0146  0.1728  0.7619
26807SOL    HW198031   5.171   2.732  12.309  0.5863  0.3274  1.8299
26807SOL    HW298032   5.114   2.652  12.424 -0.8099  0.0900  0.9933
26808SOL     OW98033   2.811   9.942   3.780 -0.3074 -0.8737  0.7900
26808SOL    HW198034   2.733   9.990   3.807  1.4615  0.8349  3.3226
26808SOL    HW298035   2.866   9.939   3.858  1.9508 -2.4811 -0.7205
26809SOL     OW98036  11.235   5.580   6.516 -0.1323  0.1620  0.1080
26809SOL    HW198037  11.293   5.619   6.581 -1.5689  0.9359  0.9510
26809SOL    HW298038  11.285   5.504   6.483  1.7798  1.3878  0.0197
26810SOL     OW98039  12.602   3.195   1.549  0.5798  0.0609  0.4586
26810SOL    HW198040  12.566   3.187   1.461 -0.3746  2.6583  0.5115
26810SOL    HW298041  12.585   3.111   1.591 -2.2200 -0.0615 -0.7141
26811SOL     OW98042   1.720  11.424  11.413  0.4629  0.4793 -0.1802
26811SOL    HW198043   1.795  11.396  11.361  2.7606  3.6330  1.1406
26811SOL    HW298044   1.704  11.514  11.386 -0.3121  1.1548  2.2581
26812SOL     OW98045  12.656   4.847   5.100  0.5906  0.5733 -0.6040
26812SOL    HW198046  12.595   4.832   5.028  1.4123  4.0503 -2.2458
26812SOL    HW298047  12.617   4.919   5.149  2.7388  2.1226 -1.0511
26813SOL     OW98048   8.297  11.004   8.723 -0.0083  0.0181 -0.3637
26813SOL    HW198049   8.247  11.075   8.764  0.6788  1.7459 -2.3093
26813SOL    HW298050   8.370  10.988   8.783 -0.7984  0.1472  0.6531
26814SOL     OW98051   1.246  11.221   8.701  0.1803 -0.3148  0.0317
26814SOL    HW198052   1.171  11.162   8.705  0.5756 -0.7362  2.3410
26814SOL    HW298053   1.322  11.163   8.697  0.4815  0.0758 -0.0005
26815SOL     OW98054   4.476   1.411   3.285  0.4509 -0.2800  0.1371
26815SOL    HW198055   4.386   1.384   3.266  1.3708 -2.8929 -0.9633
26815SOL    HW298056   4.486   1.495   3.241 -1.5353  0.2172  0.5702
26816SOL     OW98057   8.023   0.638  12.669  0.7863  0.1557  0.1647
26816SOL    HW198058   8.028   0.558  12.616  1.1050 -0.4086  1.0149
26816SOL    HW298059   7.936   0.634  12.709  1.1084 -0.1979  0.8469
26817SOL     OW98060  13.687  11.143  13.348 -0.0043  0.1311 -0.6042
26817SOL    HW198061  13.646  11.121  13.265 -1.1751  0.2223 -0.0671
26817SOL    HW298062  13.753  11.208  13.326 -1.1879  1.1225 -1.2942
26818SOL     OW98063   4.639   6.301  11.838 -0.3168 -0.1676  0.1543
26818SOL    HW198064   4.688   6.242  11.781 -1.8494 -0.3917 -0.9837
26818SOL    HW298065   4.673   6.283  11.926 -0.7013 -2.7540 -0.1412
26819SOL     OW98066  13.842   7.962   7.808  0.7714 -0.1144 -0.1245
26819SOL    HW198067  13.751   7.992   7.806  1.1513  1.0627 -0.3441
26819SOL    HW298068  13.880   7.994   7.726  1.6272  0.1926  0.3854
26820SOL     OW98069   1.255   2.601   5.847 -0.6349 -0.0728  0.3228
26820SOL    HW198070   1.201   2.582   5.770 -0.1656 -0.9401  0.1965
26820SOL    HW298071   1.259   2.697   5.851 -2.6695  0.0430  0.6830
26821SOL     OW98072   0.233   6.325  13.537 -0.6577 -0.4068 -0.4771
26821SOL    HW198073   0.184   6.363  13.610 -0.4747 -2.2284  0.6456
26821SOL    HW298074   0.299   6.269  13.578  0.1122 -0.7102 -2.0283
26822SOL     OW98075  11.682   1.868  13.014  0.1589 -0.3095 -0.0186
26822SOL    HW198076  11.627   1.946  13.002 -1.5755 -1.5900 -0.8804
26822SOL    HW298077  11.690   1.859  13.109  1.5115  1.6200  0.1024
26823SOL     OW98078   0.040  10.075   1.135 -0.0864 -0.1420 -0.0572
26823SOL    HW198079   0.081  10.055   1.051 -1.9714 -2.4112 -0.5322
26823SOL    HW298080   0.070  10.163   1.156  2.2661 -0.3781 -1.9664
26824SOL     OW98081   9.082   1.770   9.876  0.0724  0.0976  0.2401
26824SOL    HW198082   9.106   1.837   9.939  1.4058  0.3711 -0.5319
26824SOL    HW298083   9.126   1.796   9.795 -0.8403 -0.7495 -0.5623
26825SOL     OW98084  12.135  13.388   7.799  0.5608 -0.4103 -1.0646
26825SOL    HW198085  12.052  13.353   7.765  0.6790 -0.7588 -0.9957
26825SOL    HW298086  12.194  13.385   7.724  0.7678 -1.0032 -0.8820
26826SOL     OW98087  10.797   6.897  12.637  0.2042 -0.0455  0.0184
26826SOL    HW198088  10.839   6.961  12.580 -0.0690  0.7886  0.7358
26826SOL    HW298089  10.805   6.814  12.590  2.3803  0.1260 -0.0176
26827SOL     OW98090  12.666   5.481   5.808 -0.2868  0.0941  0.0407
26827SOL    HW198091  12.663   5.496   5.903 -0.6637  0.8926 -0.0827
26827SOL    HW298092  12.751   5.439   5.793  0.6926  1.7606  0.5179
26828SOL     OW98093  10.421  13.932   7.546  0.3288  0.2630 -0.1448
26828SOL    HW198094  10.515  13.947   7.545  0.2051  1.0311 -0.9070
26828SOL    HW298095  10.382  14.018   7.535 -0.4475 -0.1776 -0.9754
26829SOL     OW98096   2.088   4.935   4.454  0.2857  0.1989 -0.0444
26829SOL    HW198097   2.142   4.856   4.446  0.5804  0.2670  1.0864
26829SOL    HW298098   2.006   4.913   4.409  0.2703 -0.8500  0.4616
26830SOL     OW98099   1.195   8.596   8.040  0.0380 -0.2122  0.4118
26830SOL    HW198100   1.132   8.524   8.030  0.3236 -0.6950  1.8983
26830SOL    HW298101   1.195   8.639   7.955 -0.9554 -1.3089 -0.1758
26831SOL     OW98102   8.439   1.772  13.205 -0.3904  0.0502 -0.1087
26831SOL    HW198103   8.459   1.784  13.112  1.1217  0.9183  0.3027
26831SOL    HW298104   8.524   1.770  13.249 -1.0904  0.5424  1.3577
26832SOL     OW98105   1.967   1.421   5.725  0.1041 -0.0589 -0.3517
26832SOL    HW198106   1.873   1.411   5.738 -0.5293  1.8275 -2.7399
26832SOL    HW298107   1.997   1.473   5.800 -1.2529  1.3610 -0.7371
26833SOL     OW98108   5.358   6.248   3.608  0.0245 -0.1961 -0.0409
26833SOL    HW198109   5.268   6.278   3.619  0.5382  2.2224 -1.6303
26833SOL    HW298110   5.356   6.192   3.529 -0.0332  0.1373 -0.2765
26834SOL     OW98111   3.824   2.230  11.941  0.2788  0.2311  0.4597
26834SOL    HW198112   3.858   2.320  11.931 -0.3972  0.2805 -2.0761
26834SOL    HW298113   3.898   2.181  11.976  0.9781  1.5780  0.9521
26835SOL     OW98114   6.463   5.972   6.647 -0.4099  0.1466  0.1656
26835SOL    HW198115   6.430   6.043   6.703 -0.6626 -0.2801  0.5582
26835SOL    HW298116   6.489   6.017   6.567 -3.0812  0.3884 -0.6809
26836SOL     OW98117   9.244   9.829   3.830  0.1901  0.1065 -0.5714
26836SOL    HW198118   9.175   9.763   3.823  2.1719 -2.1216 -0.5679
26836SOL    HW298119   9.226   9.891   3.759 -1.3998 -0.7802 -0.9825
26837SOL     OW98120   0.604  12.586   7.853 -0.7425  0.0085 -0.0834
26837SOL    HW198121   0.617  12.667   7.803 -2.1463  1.4486  1.7338
26837SOL    HW298122   0.685  12.574   7.902 -1.4487  1.9371  1.7162
26838SOL     OW98123  13.424  10.191   7.183  0.0802 -0.0290 -0.0526
26838SOL    HW198124  13.403  10.192   7.277  1.3078 -1.0337  0.2542
26838SOL    HW298125  13.365  10.124   7.147  1.2049 -1.3350  0.4406
26839SOL     OW98126   1.912   8.124   9.506  0.2913  0.1498  0.8298
26839SOL    HW198127   1.849   8.066   9.462  0.0186  0.7261  0.4491
26839SOL    HW298128   1.942   8.073   9.582  1.1701 -1.0858 -0.2836
26840SOL     OW98129  10.582   1.080   0.777  0.5656  0.1968  0.0624
26840SOL    HW198130  10.627   1.160   0.806  0.8959  0.2061 -0.4701
26840SOL    HW298131  10.489   1.103   0.778  0.4988  0.0217  1.6879
26841SOL     OW98132  12.888   1.709  11.198  0.4554 -0.1390  0.4186
26841SOL    HW198133  12.918   1.630  11.152 -0.7308  0.2310 -1.0646
26841SOL    HW298134  12.967   1.762  11.208  1.0604 -1.0160  0.3960
26842SOL     OW98135   2.157   0.579   6.185  0.4266  0.0891 -0.2894
26842SOL    HW198136   2.136   0.661   6.140  0.8254 -0.1132 -0.8693
26842SOL    HW298137   2.072   0.543   6.211  0.2585  0.7597  0.1137
26843SOL     OW98138  11.092   5.977   4.604  0.6280  0.1680  0.3183
26843SOL    HW198139  11.175   5.962   4.559  0.0325  1.9207 -1.5188
26843SOL    HW298140  11.103   6.062   4.648 -0.6156  1.1791 -1.2067
26844SOL     OW98141  13.308   6.425   7.287 -0.4423 -0.4680 -0.1575
26844SOL    HW198142  13.352   6.389   7.210 -1.9735  0.8100 -1.7190
26844SOL    HW298143  13.306   6.353   7.350  2.0123 -1.1600 -0.7633
26845SOL     OW98144   5.003   7.889   9.036  0.1854  0.4886 -0.2598
26845SOL    HW198145   4.996   7.970   9.086  3.8940 -0.1778  1.6979
26845SOL    HW298146   5.063   7.909   8.965  1.2430 -0.5010  0.3176
26846SOL     OW98147  10.097   5.757   0.057 -0.0706 -0.2338  0.1499
26846SOL    HW198148  10.063   5.670   0.036 -0.0022 -0.4674  0.9591
26846SOL    HW298149  10.076   5.810  -0.020 -0.6406 -0.8201 -0.1140
26847SOL     OW98150  13.510   5.445  12.677 -0.3296 -0.0397  0.7648
26847SOL    HW198151  13.449   5.445  12.603 -0.0598 -1.3598  0.5151
26847SOL    HW298152  13.476   5.513  12.736 -1.4342 -0.0298  0.1510
26848SOL     OW98153  12.190   4.235   8.208 -0.1969  0.6688 -0.5364
26848SOL    HW198154  12.227   4.157   8.249 -0.4585  1.6147  1.6428
26848SOL    HW298155  12.254   4.304   8.226 -1.0477  1.4409 -0.3540
26849SOL     OW98156  12.230   7.653  11.452  0.6779  0.3439  0.2298
26849SOL    HW198157  12.235   7.747  11.435 -0.9115  0.3744 -0.1910
26849SOL    HW298158  12.180   7.645  11.533 -0.0795 -0.1639 -0.2720
26850SOL     OW98159  11.364  13.077   1.298 -0.3201 -0.1088 -0.3414
26850SOL    HW198160  11.418  13.137   1.350  1.2580 -0.5042 -1.4640
26850SOL    HW298161  11.392  12.990   1.325 -1.9366 -0.3905  0.5835
26851SOL     OW98162   9.733   0.459  12.915 -0.3583  0.2279 -0.0475
26851SOL    HW198163   9.694   0.451  13.002 -0.7683 -2.0416 -0.3630
26851SOL    HW298164   9.658   0.475  12.857 -0.5592 -1.4285 -0.3159
26852SOL     OW98165   5.754   1.188   2.834 -0.4114 -0.5612 -0.6876
26852SOL    HW198166   5.685   1.123   2.833 -0.2169 -0.8197  0.9081
26852SOL    HW298167   5.748   1.229   2.920  0.8213  0.0581 -0.8672
26853SOL     OW98168  12.157  11.833   9.844  0.3728  0.8418  0.0376
26853SOL    HW198169  12.215  11.791   9.781 -1.8227 -1.9816 -0.3383
26853SOL    HW298170  12.205  11.829   9.927  0.6170 -2.0001 -0.1182
26854SOL     OW98171   7.191   0.693   2.724  0.7931  0.1888 -0.3655
26854SOL    HW198172   7.268   0.727   2.678  0.7914 -0.1305 -0.6066
26854SOL    HW298173   7.148   0.637   2.661 -1.3689  2.7305 -1.3195
26855SOL     OW98174  11.312  10.779  11.852  0.1838  0.0880  0.3071
26855SOL    HW198175  11.325  10.783  11.757  1.4841 -1.8734  0.3470
26855SOL    HW298176  11.217  10.787  11.863 -0.1527 -1.1679 -1.2978
26856SOL     OW98177   7.739   1.167   2.141 -0.2997 -0.1822 -0.1159
26856SOL    HW198178   7.717   1.207   2.225  0.2142 -0.0713 -0.0296
26856SOL    HW298179   7.834   1.174   2.135 -0.2173 -1.1603 -0.2130
26857SOL     OW98180   8.665   7.217  13.069 -0.0266 -0.7606  0.4294
26857SOL    HW198181   8.605   7.248  13.002 -0.8753 -0.6318  1.2386
26857SOL    HW298182   8.609   7.183  13.138  0.8199 -0.5574  1.2383
26858SOL     OW98183   9.696  12.852   9.535  0.3353  0.2588  0.2246
26858SOL    HW198184   9.674  12.795   9.608  1.3767  1.3247  1.4268
26858SOL    HW298185   9.771  12.903   9.566 -0.0433  1.6969 -1.0882
26859SOL     OW98186   9.414  13.918   5.033  0.7629 -0.5618  0.0948
26859SOL    HW198187   9.408  13.957   4.946  0.2547 -1.6310 -0.3667
26859SOL    HW298188   9.508  13.917   5.053  0.7613  2.0302  0.6965
26860SOL     OW98189   7.387  10.410  14.037 -0.4505  0.2765 -0.0994
26860SOL    HW198190   7.435  10.360  13.971  0.8766  0.7844  0.4408
26860SOL    HW298191   7.445  10.411  14.113  0.5306  4.2459 -0.6891
26861SOL     OW98192   8.002   7.757   1.125  0.1197  0.3534  0.1986
26861SOL    HW198193   8.038   7.776   1.038  1.7324 -1.1022  0.4861
26861SOL    HW298194   8.035   7.827   1.181  0.2916  0.5028 -0.0857
26862SOL     OW98195   6.937  11.905  12.027  0.4399  0.0758  0.0648
26862SOL    HW198196   6.860  11.881  11.975  0.1628  1.9961 -0.5031
26862SOL    HW298197   6.907  11.979  12.080  2.1487  1.6389 -1.0076
26863SOL     OW98198  11.351   4.442   9.906  0.6558 -0.0562 -0.1073
26863SOL    HW198199  11.368   4.498   9.981  0.2975 -0.0623 -0.0190
26863SOL    HW298200  11.417   4.373   9.911  1.2451  0.4861 -0.3475
26864SOL     OW98201  11.325   1.634  13.084 -0.1882  0.1198  0.2680
26864SOL    HW198202  11.333   1.670  12.996 -0.7999  1.1873  0.6244
26864SOL    HW298203  11.230   1.628  13.099 -0.1026 -1.0291  0.4835
26865SOL     OW98204   8.568   2.819   0.869  0.2932 -0.3122 -0.4428
26865SOL    HW198205   8.550   2.740   0.919 -0.4347 -0.2008 -0.5187
26865SOL    HW298206   8.615   2.789   0.792 -0.3433 -0.7257 -0.6793
26866SOL     OW98207   2.708  12.626   2.034 -0.4003  0.7280 -0.6250
26866SOL    HW198208   2.732  12.633   2.127  1.1920 -1.1681 -0.8380
26866SOL    HW298209   2.617  12.598   2.035 -0.4230  0.7825  0.3488
26867SOL     OW98210   7.594   2.198   1.011 -0.4924 -0.1489 -0.3036
26867SOL    HW198211   7.649   2.130   0.972  1.7705  0.7337  1.1987
26867SOL    HW298212   7.620   2.278   0.965  0.8301  0.5707  1.5967
26868SOL     OW98213   6.792  12.369  10.281  0.0378  0.3213  0.3758
26868SOL    HW198214   6.857  12.349  10.348 -1.4099 -2.4458  1.1026
26868SOL    HW298215   6.823  12.324  10.202  0.2350  1.0622  0.0275
26869SOL     OW98216   1.338   4.877   2.591 -0.1274  1.0111 -0.7199
26869SOL    HW198217   1.368   4.962   2.560 -0.2718  0.5262 -2.3092
26869SOL    HW298218   1.408   4.845   2.648  1.5685  0.7078 -2.8546
26870SOL     OW98219   3.068   4.888  10.319  0.0364 -0.4257 -0.4722
26870SOL    HW198220   3.102   4.811  10.366 -0.3268 -1.0917 -1.2717
26870SOL    HW298221   3.107   4.881  10.231  0.2839  0.5071 -0.4440
26871SOL     OW98222   7.325  12.706   5.923 -0.1760  0.1702  0.0997
26871SOL    HW198223   7.345  12.784   5.872 -1.0988 -0.4224 -1.2310
26871SOL    HW298224   7.242  12.725   5.967  0.3520  0.4812  0.9911
26872SOL     OW98225   7.549   9.483  13.561  0.3312  0.2663  0.2826
26872SOL    HW198226   7.523   9.568  13.527  2.0480  1.2750  1.3346
26872SOL    HW298227   7.643   9.478  13.544  0.7285 -0.3650  2.2919
26873SOL     OW98228  14.028   0.039  11.678 -0.5827 -0.1710  0.1848
26873SOL    HW198229  14.077   0.090  11.743 -0.6295 -1.6959  1.4849
26873SOL    HW298230  13.936   0.047  11.706 -0.4086 -2.5587  1.6503
26874SOL     OW98231  13.061   3.900   2.360  0.3603 -0.5516 -0.1883
26874SOL    HW198232  12.994   3.927   2.422  0.5001  0.0008 -0.2740
26874SOL    HW298233  13.140   3.947   2.387  0.3687 -0.1255 -0.9076
26875SOL     OW98234  12.138   1.664   1.020  0.2691 -0.9386  0.1962
26875SOL    HW198235  12.216   1.719   1.030  0.7647 -1.3605 -1.1489
26875SOL    HW298236  12.141   1.604   1.095  0.2100  0.2546  1.1790
26876SOL     OW98237   9.942   2.283  12.320 -0.2115  0.3118 -0.4494
26876SOL    HW198238   9.927   2.363  12.269 -1.0257  0.2922 -0.2597
26876SOL    HW298239   9.947   2.213  12.255  0.4739  0.5121 -0.6148
26877SOL     OW98240  12.976  13.250   9.310  0.7027  0.2920 -0.3374
26877SOL    HW198241  13.010  13.171   9.268 -1.2740 -0.8036  0.0313
26877SOL    HW298242  12.999  13.240   9.402 -1.2880 -0.8924  0.0752
26878SOL     OW98243  10.244  11.982   3.216  0.4124  0.2080 -0.6704
26878SOL    HW198244  10.246  12.046   3.287  1.6108 -0.5799  0.0505
26878SOL    HW298245  10.177  12.014   3.156  0.2971  1.5934  0.1627
26879SOL     OW98246  11.686  12.268   0.379  0.1467 -0.4612 -0.0421
26879SOL    HW198247  11.630  12.200   0.416 -1.6156  1.2469  0.6697
26879SOL    HW298248  11.679  12.341   0.442 -0.2372  1.3219 -2.0277
26880SOL     OW98249   2.302   0.299  13.850 -0.1597  0.1154  0.0717
26880SOL    HW198250   2.342   0.287  13.936  1.7068  0.9441 -0.6312
26880SOL    HW298251   2.269   0.213  13.826 -4.4736  0.5006  3.2801
26881SOL     OW98252   4.191   9.203   0.378  0.1564 -0.3277  0.2030
26881SOL    HW198253   4.120   9.249   0.422 -0.6163 -0.1143 -1.2030
26881SOL    HW298254   4.182   9.112   0.406  1.0522  0.1405  2.1816
26882SOL     OW98255   4.139   4.545   5.248 -0.1048  0.4177 -0.6211
26882SOL    HW198256   4.129   4.493   5.328  0.3928 -0.5463 -1.1677
26882SOL    HW298257   4.090   4.497   5.182 -0.9229  1.4701 -0.8006
26883SOL     OW98258   7.457  10.738   1.307 -0.1881  0.4396  0.6255
26883SOL    HW198259   7.445  10.666   1.370 -2.0131 -0.2092 -0.3857
26883SOL    HW298260   7.393  10.804   1.334 -0.2944  0.5760  0.0599
26884SOL     OW98261   2.060   1.234  13.408  0.0917  0.3527  0.1607
26884SOL    HW198262   1.974   1.237  13.366  0.6515  0.2097 -1.0404
26884SOL    HW298263   2.099   1.152  13.376  1.5944  1.5544 -1.2310
26885SOL     OW98264  11.346   3.696   3.129  0.0214 -0.4388  0.3830
26885SOL    HW198265  11.430   3.677   3.172  0.7103 -0.3187 -0.8565
26885SOL    HW298266  11.355   3.658   3.042 -0.0136  2.1535 -0.8468
26886SOL     OW98267   4.174   2.464   0.259  0.3527  0.1939 -0.1781
26886SOL    HW198268   4.083   2.487   0.274  0.4744 -0.6752  2.4982
26886SOL    HW298269   4.176   2.429   0.170 -2.2491 -1.2031  0.2047
26887SOL     OW98270  12.199   1.451  13.258 -0.1960 -0.2950  0.4283
26887SOL    HW198271  12.124   1.433  13.315 -1.0882  2.0030  0.1019
26887SOL    HW298272  12.225   1.541  13.279  0.3490  0.1267 -1.7330
26888SOL     OW98273  10.841   0.908   4.047 -0.2016 -0.0036  1.0759
26888SOL    HW198274  10.876   0.887   3.960 -0.0755  1.8706  0.6426
26888SOL    HW298275  10.750   0.877   4.043 -0.4688  0.8661 -0.0560
26889SOL     OW98276   2.596   3.172   0.638  0.3007  0.4185  0.0966
26889SOL    HW198277   2.577   3.180   0.731  1.9835 -0.4422  0.5624
26889SOL    HW298278   2.569   3.256   0.601 -1.0338  0.5197  1.2231
26890SOL     OW98279   1.523   5.902   1.852  0.6183 -0.4311  0.0386
26890SOL    HW198280   1.515   5.808   1.868 -0.0564 -0.5345 -0.8141
26890SOL    HW298281   1.504   5.912   1.759  1.0222  0.5128  0.0474
26891SOL     OW98282   6.078   2.690  11.280  0.0947  0.7399 -0.4160
26891SOL    HW198283   6.168   2.673  11.250  1.2646  2.7225  1.6465
26891SOL    HW298284   6.036   2.734  11.206  0.6114 -0.7361 -1.6211
26892SOL     OW98285   6.170  11.216   3.718  0.0761 -0.0051 -0.4303
26892SOL    HW198286   6.112  11.284   3.684 -1.8327 -0.6238  1.3473
26892SOL    HW298287   6.174  11.151   3.647  0.2403  0.9583 -1.3338
26893SOL     OW98288   0.526   0.799  10.537  0.7849 -0.5440 -0.0228
26893SOL    HW198289   0.608   0.758  10.509  2.3735  0.7886  2.2822
26893SOL    HW298290   0.513   0.766  10.626 -2.0328 -1.7999 -0.7926
26894SOL     OW98291   6.152  12.433   5.331 -0.0492 -0.2188 -0.5683
26894SOL    HW198292   6.143  12.371   5.403  1.1603 -1.7263 -1.6540
26894SOL    HW298293   6.112  12.514   5.364 -3.7250 -2.1091  0.1160
26895SOL     OW98294  10.144  12.265   9.332  0.4250 -0.3041  0.3875
26895SOL    HW198295  10.137  12.229   9.421  0.9539  0.3572  0.7065
26895SOL    HW298296  10.079  12.335   9.330  0.9841  0.2238  0.5306
26896SOL     OW98297   6.363   5.475  13.220  0.4308 -0.1262  0.2809
26896SOL    HW198298   6.373   5.478  13.125 -0.4193  1.2572  0.2144
26896SOL    HW298299   6.349   5.382  13.239  0.3474 -0.3925 -0.9764
26897SOL     OW98300   1.499   2.340  10.689 -0.0437 -0.1424 -0.7605
26897SOL    HW198301   1.492   2.432  10.713  0.9387 -0.7176  2.2523
26897SOL    HW298302   1.593   2.325  10.677 -0.3087 -0.4727 -2.8321
26898SOL     OW98303  11.832   1.121   6.047 -0.3836 -0.5072 -0.3323
26898SOL    HW198304  11.863   1.185   6.111 -1.8381 -1.2983  1.2312
26898SOL    HW298305  11.747   1.093   6.080 -0.1533 -2.6639 -1.3904
26899SOL     OW98306   3.542   1.006   5.166 -0.4828  0.0015 -0.1001
26899SOL    HW198307   3.555   0.916   5.137 -0.6305 -0.1854  0.4194
26899SOL    HW298308   3.618   1.053   5.131  1.0038 -0.8349  1.8310
26900SOL     OW98309  13.251   7.744  13.842  0.0345  0.0986 -0.5509
26900SOL    HW198310  13.289   7.776  13.923 -0.0672 -2.7097  0.7283
26900SOL    HW298311  13.326   7.717  13.789  0.0420  0.6214 -0.8136
26901SOL     OW98312   0.276   6.310  10.039 -0.4137  0.3159 -0.4254
26901SOL    HW198313   0.315   6.388   9.998  0.4400  0.2644  0.2739
26901SOL    HW298314   0.219   6.345  10.108  1.7805  0.3134  1.4967
26902SOL     OW98315  13.582  13.745   0.559  0.1650 -0.5469  0.1098
26902SOL    HW198316  13.649  13.698   0.509 -0.2153  0.6807 -1.6343
26902SOL    HW298317  13.632  13.793   0.626  0.8867 -0.8124 -0.2306
26903SOL     OW98318   9.971  13.365  13.167  0.2356  0.1643  0.1082
26903SOL    HW198319   9.908  13.296  13.145  0.7915 -0.6601  1.0810
26903SOL    HW298320  10.055  13.320  13.174  0.9102  1.2166 -0.8993
26904SOL     OW98321   2.655  13.898  11.569  0.7286 -0.0407  0.0404
26904SOL    HW198322   2.646  13.986  11.535 -0.7762 -0.1739  0.0507
26904SOL    HW298323   2.726  13.904  11.633  1.1974  0.9613 -0.5511
26905SOL     OW98324   6.113   3.506  11.904  0.0167  0.3729 -0.2917
26905SOL    HW198325   6.027   3.548  11.902  0.0896  0.6428  1.3944
26905SOL    HW298326   6.176   3.578  11.905  0.1869  0.2275  0.7790
26906SOL     OW98327   0.036  13.382  12.824  0.0237  0.0951 -0.0213
26906SOL    HW198328  -0.041  13.437  12.811  1.9381  2.5700 -1.5931
26906SOL    HW298329   0.054  13.388  12.918 -1.2221  0.1183  0.2288
26907SOL     OW98330   2.898   2.775   4.498 -0.1817 -0.2370 -0.2205
26907SOL    HW198331   2.808   2.759   4.467  0.0989 -0.1908 -1.0874
26907SOL    HW298332   2.945   2.695   4.475 -0.2499 -0.7391  1.2837
26908SOL     OW98333   3.101  10.870  13.511  0.2598  0.0544 -0.3938
26908SOL    HW198334   3.008  10.886  13.491  0.4807  0.8436 -0.7997
26908SOL    HW298335   3.148  10.937  13.462  1.0511 -0.3134 -0.1468
26909SOL     OW98336   0.756   3.547   1.816  0.7753 -0.4121 -0.0708
26909SOL    HW198337   0.714   3.463   1.835  0.7142 -0.4284 -0.2684
26909SOL    HW298338   0.699   3.588   1.751  1.0392 -0.4149 -0.3056
26910SOL     OW98339   9.787  10.112   1.329 -0.2681  0.5254  0.0555
26910SOL    HW198340   9.752  10.058   1.399  3.1903 -2.6680 -0.3575
26910SOL    HW298341   9.816  10.192   1.373  0.0946 -0.5984  1.9573
26911SOL     OW98342  10.546  11.471   3.466  0.2640 -0.2443 -0.2934
26911SOL    HW198343  10.574  11.459   3.556 -0.9543 -0.6536  0.0499
26911SOL    HW298344  10.619  11.437   3.414 -0.1941 -2.8331  0.5936
26912SOL     OW98345   9.577   0.515  12.683 -0.0203  0.1311 -0.0730
26912SOL    HW198346   9.487   0.530  12.653  0.2306  1.7114 -0.0919
26912SOL    HW298347   9.632   0.545  12.612  0.5539  2.1580  1.1501
26913SOL     OW98348   4.398   8.882   2.217 -0.3437 -0.2111  0.0595
26913SOL    HW198349   4.390   8.921   2.130 -2.9935 -2.7177 -0.9735
26913SOL    HW298350   4.450   8.804   2.204 -1.7418 -1.2488  0.4047
26914SOL     OW98351  13.374   4.881   9.439 -0.0365 -0.1894 -0.9320
26914SOL    HW198352  13.448   4.880   9.500  0.0835 -0.7437 -1.0846
26914SOL    HW298353  13.345   4.972   9.439  0.1133 -0.1326 -0.2262
26915SOL     OW98354   0.752   8.777  12.005  0.1623  0.5280 -0.6781
26915SOL    HW198355   0.668   8.752  11.967  0.0234  0.4915 -0.3593
26915SOL    HW298356   0.770   8.708  12.070  0.3384  0.6443 -0.6020
26916SOL     OW98357   1.568  11.087  13.641 -0.6664 -0.8206 -0.5708
26916SOL    HW198358   1.524  11.009  13.675  1.3622 -1.4225  0.9126
26916SOL    HW298359   1.531  11.160  13.691  1.4023 -1.5585  2.3285
26917SOL     OW98360   6.946   9.223   8.304  0.2998 -0.2016 -0.4427
26917SOL    HW198361   6.955   9.314   8.278  2.2089  0.4257  2.0559
26917SOL    HW298362   6.858   9.217   8.342  0.9861  1.2391  1.4793
26918SOL     OW98363   0.933   4.328  11.924  0.3755  0.1223 -0.3929
26918SOL    HW198364   0.967   4.243  11.952  0.3925  0.6835  1.4625
26918SOL    HW298365   1.011   4.382  11.912  0.3402  0.0255 -1.1210
26919SOL     OW98366   4.562   4.835  12.691  0.2310 -0.1351 -0.1041
26919SOL    HW198367   4.578   4.826  12.785  0.6704  0.3888 -0.1215
26919SOL    HW298368   4.646   4.812  12.651  0.6316  1.4753 -0.2652
26920SOL     OW98369   5.719   0.387   0.123  0.1836  0.0403  0.2251
26920SOL    HW198370   5.639   0.353   0.162 -1.1275 -0.0286 -2.2949
26920SOL    HW298371   5.789   0.354   0.179 -1.3529 -2.4605  0.8408
26921SOL     OW98372   2.537   8.340  13.029 -0.1055  0.6773 -0.3197
26921SOL    HW198373   2.529   8.434  13.048 -1.5755  0.1718  2.0430
26921SOL    HW298374   2.482   8.326  12.952  0.1879  1.7402 -0.7408
26922SOL     OW98375  12.346   2.950   5.945 -0.4315  0.5159 -0.0460
26922SOL    HW198376  12.368   3.034   5.986 -1.6481  1.0830 -0.4947
26922SOL    HW298377  12.278   2.913   6.001 -0.2136  0.0432 -0.0940
26923SOL     OW98378   1.808   5.734   3.385  0.7600 -0.0383 -0.2479
26923SOL    HW198379   1.803   5.733   3.290  0.9456 -1.4975 -0.2656
26923SOL    HW298380   1.886   5.682   3.405  1.0935  0.7812  0.6971
26924SOL     OW98381  11.555   1.912   2.071 -0.8519  0.2218  0.1875
26924SOL    HW198382  11.535   1.819   2.058 -1.0317  0.2256  0.4407
26924SOL    HW298383  11.529   1.954   1.988  0.6621 -0.1683 -0.5262
26925SOL     OW98384  13.180  13.237  12.374  0.0266  0.3084 -0.0808
26925SOL    HW198385  13.270  13.254  12.346 -0.0245  1.0822  0.1990
26925SOL    HW298386  13.188  13.176  12.448  0.4161  1.4004  0.8029
26926SOL     OW98387  12.147   6.618  13.037 -0.2830  0.4233 -0.4325
26926SOL    HW198388  12.195   6.536  13.048 -0.8207  0.3196  1.6081
26926SOL    HW298389  12.215   6.684  13.026  0.3536  0.1870  1.6999
26927SOL     OW98390  12.077   8.209   1.929 -0.1635  0.5257  0.2984
26927SOL    HW198391  12.149   8.263   1.896  0.9014 -2.5987 -3.2272
26927SOL    HW298392  12.007   8.220   1.864  0.1277 -2.1616 -0.6034
26928SOL     OW98393  13.266   4.846   1.976  0.2894 -0.2005 -0.4898
26928SOL    HW198394  13.355   4.835   2.009  0.4467  0.4633 -0.6977
26928SOL    HW298395  13.270   4.920   1.916 -0.5703  0.3955  0.1534
26929SOL     OW98396   3.831  10.004   8.156  0.2746  0.3581 -0.3612
26929SOL    HW198397   3.885   9.956   8.092 -0.6085 -1.3650  0.1269
26929SOL    HW298398   3.891  10.022   8.229  0.6305 -0.0076 -0.5582
26930SOL     OW98399  12.423   8.941   1.848  0.4093 -0.5266 -0.4196
26930SOL    HW198400  12.504   8.945   1.798  1.3201 -0.4696  0.9811
26930SOL    HW298401  12.364   8.888   1.795  1.9370 -2.0145 -0.7315
26931SOL     OW98402   1.286  10.903   2.155  0.1516 -0.2635 -0.0477
26931SOL    HW198403   1.229  10.975   2.128 -0.8067 -1.1192 -0.3371
26931SOL    HW298404   1.319  10.930   2.241 -1.2034 -0.0436  0.4279
26932SOL     OW98405   1.007   8.245   3.559  0.2689 -0.5499 -0.5796
26932SOL    HW198406   1.026   8.204   3.644  0.5256 -0.0339 -0.3803
26932SOL    HW298407   1.030   8.178   3.495 -0.4527 -1.1431 -0.2296
26933SOL     OW98408   7.824   9.052   6.191  0.1303 -0.1837 -0.1841
26933SOL    HW198409   7.778   9.130   6.159  1.6439 -0.5081 -3.5375
26933SOL    HW298410   7.764   8.980   6.172 -0.0532 -0.1423  0.2167
26934SOL     OW98411  12.265  12.387   9.320  0.2030  0.4647  0.3387
26934SOL    HW198412  12.192  12.349   9.368  1.1754  0.4592  1.9107
26934SOL    HW298413  12.227  12.460   9.271 -1.1830 -0.7786 -0.5269
26935SOL     OW98414   9.268   5.714  11.603 -0.1780  0.3786  0.2757
26935SOL    HW198415   9.263   5.716  11.699  1.0574  1.4516  0.3418
26935SOL    HW298416   9.341   5.656  11.583  0.3219  1.0820  0.0283
26936SOL     OW98417   9.865   0.591   4.717 -0.4626 -0.4202 -0.4294
26936SOL    HW198418   9.872   0.683   4.740 -2.7009 -0.6640  1.5481
26936SOL    HW298419   9.852   0.546   4.800  0.0080 -2.4745 -1.4095
26937SOL     OW98420   7.583   2.684   4.685 -0.3534  0.7929 -0.0590
26937SOL    HW198421   7.648   2.652   4.747  0.3236  2.7237  0.2920
26937SOL    HW298422   7.568   2.775   4.710 -0.8244  1.3268 -2.0773
26938SOL     OW98423   9.294  13.183   7.919  0.2421  0.3947 -0.3601
26938SOL    HW198424   9.366  13.121   7.916  1.1740  1.5076 -1.7952
26938SOL    HW298425   9.334  13.267   7.943 -0.5804  1.0104 -1.0602
26939SOL     OW98426   6.070  13.480  11.327 -0.5863 -0.7512 -0.4630
26939SOL    HW198427   6.148  13.513  11.281  0.0126 -2.3403 -0.6524
26939SOL    HW298428   6.069  13.527  11.410  0.5322 -0.6566 -0.4915
26940SOL     OW98429   6.929   8.761   5.254  0.1103 -0.4404 -0.5719
26940SOL    HW198430   6.956   8.766   5.162  0.2406  2.7313 -0.4600
26940SOL    HW298431   6.976   8.833   5.297 -1.3509 -0.7002  1.6044
26941SOL     OW98432   6.165   5.735   2.840 -0.0190 -1.1771  0.2400
26941SOL    HW198433   6.153   5.796   2.912  1.9060 -0.8101  0.3014
26941SOL    HW298434   6.097   5.758   2.777  0.0687  0.3976  0.6826
26942SOL     OW98435   6.841  11.849   5.578  0.5357  0.5194  0.0598
26942SOL    HW198436   6.932  11.821   5.562  0.5625  0.5829  0.1008
26942SOL    HW298437   6.788  11.782   5.536  0.6055  1.1549 -1.0922
26943SOL     OW98438   5.440   2.306   8.212 -0.2583  0.2401  0.2707
26943SOL    HW198439   5.422   2.292   8.305  0.9398 -0.8789  0.3563
26943SOL    HW298440   5.372   2.258   8.166  2.2114 -4.1002  0.5867
26944SOL     OW98441   6.959   2.031  12.480  0.1627 -0.5020 -0.0266
26944SOL    HW198442   6.912   2.001  12.558  0.6643 -0.6079  0.2445
26944SOL    HW298443   6.891   2.051  12.416 -0.3700  1.5742  1.1208
26945SOL     OW98444   6.054   9.996  11.640 -0.0502 -0.2687 -0.2029
26945SOL    HW198445   5.976   9.954  11.677  0.1474 -1.5083 -1.1083
26945SOL    HW298446   6.081   9.937  11.569  0.7412  0.9944 -0.9877
26946SOL     OW98447   2.858   5.983   0.496  0.3529 -0.5054  0.7579
26946SOL    HW198448   2.869   6.077   0.508  1.0776 -0.4404 -0.2806
26946SOL    HW298449   2.942   5.945   0.522  0.5599 -0.7191 -0.1822
26947SOL     OW98450  10.845  13.710  10.570 -0.3395 -0.0046 -0.4751
26947SOL    HW198451  10.793  13.637  10.535 -0.2559  0.5892 -1.8813
26947SOL    HW298452  10.936  13.683  10.558 -0.2908 -0.5670  0.9774
26948SOL     OW98453   6.897   0.846  12.229  0.1014  0.0790  0.1711
26948SOL    HW198454   6.844   0.886  12.298  0.8430  0.9913  0.2461
26948SOL    HW298455   6.981   0.828  12.272  0.4932  0.4411 -0.4258
26949SOL     OW98456   4.420   5.810   7.453  0.0832  0.5078 -0.1024
26949SOL    HW198457   4.324   5.813   7.460  0.0792  0.2855 -0.0614
26949SOL    HW298458   4.451   5.855   7.531  0.0021  1.8298 -0.8067
26950SOL     OW98459   2.001   3.995   9.914 -0.3545  0.0881  0.7246
26950SOL    HW198460   1.982   4.088   9.904 -0.0354  0.1785  0.9471
26950SOL    HW298461   1.918   3.951   9.894  0.2899  0.1892 -2.8624
26951SOL     OW98462   8.581   8.766   1.467 -0.4097  0.1679 -0.1470
26951SOL    HW198463   8.541   8.733   1.387 -0.8963 -1.6880  0.7986
26951SOL    HW298464   8.507   8.789   1.523 -0.0966  0.1262  0.2914
26952SOL     OW98465   3.209  11.776   6.547  0.6251 -0.8332 -0.5428
26952SOL    HW198466   3.209  11.851   6.607  0.8719 -0.0626 -1.4840
26952SOL    HW298467   3.286  11.725   6.572 -0.3142 -1.5499  1.0197
26953SOL     OW98468  14.085   8.976   2.302 -0.0789 -0.3686  0.8367
26953SOL    HW198469  14.022   8.961   2.373 -1.6490  1.6665 -0.0241
26953SOL    HW298470  14.058   9.059   2.264  2.9000  0.3545  0.0971
26954SOL     OW98471   0.703   9.454   8.090 -0.3788 -0.5853 -0.1285
26954SOL    HW198472   0.665   9.471   8.004 -2.4421 -1.3495  0.5816
26954SOL    HW298473   0.798   9.462   8.076 -0.7022  0.1305 -2.2591
26955SOL     OW98474   0.277   3.135  12.129 -0.2413 -0.6531  0.3636
26955SOL    HW198475   0.246   3.116  12.040  0.0465  1.0580 -0.1375
26955SOL    HW298476   0.221   3.082  12.186 -0.7761 -1.3786 -0.8035
26956SOL     OW98477   1.067  11.688   3.962  0.3109  0.2153  0.2247
26956SOL    HW198478   1.119  11.711   3.885 -1.7983  0.4045 -1.2421
26956SOL    HW298479   1.114  11.614   4.002  0.9379 -0.6039 -1.8732
26957SOL     OW98480   9.696   9.833  13.808 -0.0321  0.2220 -0.5725
26957SOL    HW198481   9.745   9.856  13.887  2.5744 -3.7199 -0.7660
26957SOL    HW298482   9.763   9.816  13.742 -1.9411 -0.5249 -2.4369
26958SOL     OW98483   4.553   9.743   8.644 -0.4907  0.4092 -0.3702
26958SOL    HW198484   4.565   9.814   8.580  1.5615 -0.1201 -0.6386
26958SOL    HW298485   4.508   9.785   8.717 -1.0923  1.5034 -1.3297
26959SOL     OW98486   3.797   0.213  12.933  0.1728 -0.0890 -0.1275
26959SOL    HW198487   3.883   0.251  12.952  0.1636 -0.4459  0.6582
26959SOL    HW298488   3.801   0.125  12.969 -0.1962 -0.4407 -0.9435
26960SOL     OW98489   5.650  13.979   3.861  0.2772 -0.1442 -0.0874
26960SOL    HW198490   5.639  14.050   3.923  0.1530 -0.6055  0.4260
26960SOL    HW298491   5.615  13.902   3.906 -0.3361 -0.3821 -0.9452
26961SOL     OW98492   1.290   5.324   0.736 -0.6379  0.1942 -0.2990
26961SOL    HW198493   1.308   5.406   0.781 -0.9107  0.1715 -0.1437
26961SOL    HW298494   1.372   5.275   0.743  0.3262  1.3769 -2.4698
26962SOL     OW98495  11.864   2.479  11.075 -0.2489  0.5906 -0.2730
26962SOL    HW198496  11.816   2.399  11.093  0.0768  0.2834 -0.7658
26962SOL    HW298497  11.814   2.521  11.004 -0.1629  0.5948 -0.3316
26963SOL     OW98498   8.298  14.092  10.359 -0.0038  0.4356  0.1149
26963SOL    HW198499   8.365  14.159  10.369  0.3175  0.2640 -0.8488
26963SOL    HW298500   8.221  14.139  10.327  0.2293  0.3458 -0.5860
26964SOL     OW98501   2.953   4.133   8.432  0.5766 -0.1222 -0.0598
26964SOL    HW198502   3.045   4.122   8.409  0.6760  1.0887 -0.2926
26964SOL    HW298503   2.922   4.203   8.376 -0.6137 -0.7878 -0.2817
26965SOL     OW98504   3.940   6.589   1.722  0.4262  0.1501 -0.6165
26965SOL    HW198505   3.958   6.505   1.765  1.5189  0.6374 -0.1052
26965SOL    HW298506   3.851   6.579   1.688 -0.3570 -0.3998  1.4419
26966SOL     OW98507   9.315  10.287   1.371  0.2798  0.2266 -0.1003
26966SOL    HW198508   9.358  10.359   1.417  2.0303 -0.9332  0.1768
26966SOL    HW298509   9.321  10.311   1.279  1.7173  0.0335 -0.0820
26967SOL     OW98510   9.020   2.633   3.965  0.2272  0.4835  0.3262
26967SOL    HW198511   9.066   2.558   4.001  1.9563  1.6599  0.7030
26967SOL    HW298512   9.084   2.677   3.910 -0.9107  1.3799 -0.3399
26968SOL     OW98513  13.543   0.421   1.464 -0.1567 -0.2686 -0.4783
26968SOL    HW198514  13.531   0.513   1.440 -0.4274 -0.4429 -1.0410
26968SOL    HW298515  13.456   0.392   1.491 -0.1492 -0.4513 -0.6471
26969SOL     OW98516   9.110  12.390   9.140  0.5113 -0.4890  0.1059
26969SOL    HW198517   9.083  12.405   9.230  1.0245  0.1495  0.1616
26969SOL    HW298518   9.125  12.477   9.104 -0.0024 -0.7221 -0.6988
26970SOL     OW98519  11.410   4.306  10.522  0.2986  0.2444  0.0745
26970SOL    HW198520  11.373   4.356  10.595  1.7964  3.3391 -1.1145
26970SOL    HW298521  11.388   4.356  10.444  1.6746 -1.1104 -1.2697
26971SOL     OW98522   2.713   9.315   5.921  0.0265  0.2669 -0.0030
26971SOL    HW198523   2.729   9.368   5.999  0.0899  1.2597 -0.6618
26971SOL    HW298524   2.736   9.373   5.848  2.2624 -1.3933 -0.7440
26972SOL     OW98525   9.120   2.328   9.911  0.2702 -0.5649 -0.3638
26972SOL    HW198526   9.077   2.247   9.887  0.2260  0.2692 -3.6105
26972SOL    HW298527   9.165   2.309   9.993 -2.0799 -2.9470  0.4776
26973SOL     OW98528   1.878   8.302   7.795  0.5534 -0.5395 -0.2955
26973SOL    HW198529   1.813   8.243   7.834 -0.5829 -0.7260 -2.3399
26973SOL    HW298530   1.858   8.388   7.832  2.1219 -1.2830  2.5957
26974SOL     OW98531   6.002   5.757   1.843  0.6629  0.0325  0.3497
26974SOL    HW198532   6.072   5.768   1.908  2.3964 -2.0140 -1.0338
26974SOL    HW298533   6.012   5.831   1.783  1.5591 -0.1565  0.2555
26975SOL     OW98534   2.996   3.946   5.445  0.6397 -0.2478  0.3217
26975SOL    HW198535   2.996   3.971   5.353  2.0123 -0.5730  0.2128
26975SOL    HW298536   2.905   3.959   5.474  0.4569  1.0297 -0.7469
26976SOL     OW98537  10.174  11.409   1.059  0.3335  0.4554 -0.3487
26976SOL    HW198538  10.203  11.335   1.111 -0.8181  0.4945  0.3708
26976SOL    HW298539  10.255  11.454   1.035  0.9508 -0.2040  0.4376
26977SOL     OW98540  13.758   1.769   4.244 -0.1417  0.7662 -0.3972
26977SOL    HW198541  13.735   1.804   4.331  1.4066  1.0388 -0.0594
26977SOL    HW298542  13.724   1.834   4.182  1.6355  2.3428  0.1739
26978SOL     OW98543  12.265   4.322  13.376  0.3291  0.0664 -0.6869
26978SOL    HW198544  12.297   4.285  13.459  2.5116  1.7112 -0.6728
26978SOL    HW298545  12.182   4.363  13.398  1.1264  0.9451  0.9035
26979SOL     OW98546  10.485   8.460   3.027 -0.2096 -0.3525  0.1315
26979SOL    HW198547  10.502   8.507   3.108 -0.8850 -0.6098  0.4283
26979SOL    HW298548  10.444   8.378   3.054 -1.0678 -0.1437 -0.5032
26980SOL     OW98549  10.189  11.151  13.897 -0.0104 -0.5828  0.0926
26980SOL    HW198550  10.279  11.126  13.876  0.7657 -1.8753  4.0576
26980SOL    HW298551  10.139  11.070  13.892 -0.8978  0.0043 -1.4036
26981SOL     OW98552   9.626   2.327   1.294 -0.1954 -0.0505  0.0171
26981SOL    HW198553   9.718   2.351   1.303  0.5342 -2.1488 -1.1303
26981SOL    HW298554   9.612   2.261   1.362 -1.3202  1.2783  1.1602
26982SOL     OW98555  10.061   4.291   2.189  0.1791 -0.4022  0.0266
26982SOL    HW198556  10.088   4.348   2.117  1.7173 -1.8516 -0.5943
26982SOL    HW298557  10.142   4.266   2.232 -0.5212 -1.5013  0.7518
26983SOL     OW98558   3.075   6.287   6.917 -0.6691 -0.3141  0.0709
26983SOL    HW198559   3.115   6.208   6.952 -1.8138 -0.4309  1.1985
26983SOL    HW298560   3.127   6.358   6.954 -0.6010 -0.5029  0.3473
26984SOL     OW98561  12.528   7.178  12.997 -0.1788 -0.5602  0.5105
26984SOL    HW198562  12.578   7.251  13.032  0.7208 -1.0481  0.2908
26984SOL    HW298563  12.457   7.219  12.947  0.2501  0.1614  0.4792
26985SOL     OW98564   6.099  12.384  11.524 -0.4413 -0.4661  0.1340
26985SOL    HW198565   6.138  12.373  11.437 -0.2821 -1.1908  0.2863
26985SOL    HW298566   6.008  12.408  11.507 -0.9179 -2.3505 -0.2786
26986SOL     OW98567   2.766   0.099   3.531  0.1522  0.3752  0.0501
26986SOL    HW198568   2.812   0.133   3.454  0.8768  1.8120  1.0695
26986SOL    HW298569   2.819   0.128   3.605 -1.0636 -0.1161  1.1479
26987SOL     OW98570  13.981   3.018   5.889 -0.0047 -0.3919 -0.3381
26987SOL    HW198571  13.980   3.056   5.977  0.9217 -1.2889  0.0855
26987SOL    HW298572  13.958   2.926   5.902 -0.1482 -0.4702 -1.0760
26988SOL     OW98573   0.960   5.304   8.220  0.2741 -0.1240  0.1854
26988SOL    HW198574   0.985   5.394   8.242 -1.1273  0.3500 -0.0523
26988SOL    HW298575   0.872   5.294   8.257  0.4756 -1.4579  0.3456
26989SOL     OW98576   8.044   9.600  11.569  0.2888 -0.2310 -0.4299
26989SOL    HW198577   8.003   9.627  11.487 -0.4501  0.5064  0.1612
26989SOL    HW298578   8.038   9.678  11.625  1.4546 -0.4794  0.0764
26990SOL     OW98579   9.399   2.374   4.835 -0.0254 -0.0279 -0.4170
26990SOL    HW198580   9.455   2.319   4.779  2.1634  0.5317  1.1073
26990SOL    HW298581   9.316   2.325   4.840  0.8778 -1.7732 -1.3757
26991SOL     OW98582   9.825   5.285   6.372  0.1820  0.1205  0.4748
26991SOL    HW198583   9.909   5.279   6.326  1.4282  3.6689  1.9540
26991SOL    HW298584   9.848   5.276   6.464 -1.6049 -2.0587  0.7905
26992SOL     OW98585   3.415  10.085   5.107  0.6799 -0.2573 -0.7840
26992SOL    HW198586   3.343  10.142   5.135  1.7759  0.5323  0.5313
26992SOL    HW298587   3.397  10.001   5.149 -0.6303 -0.7819 -2.2678
26993SOL     OW98588  10.159  13.990   5.946 -0.0572 -0.1404 -0.9107
26993SOL    HW198589  10.156  14.070   5.999 -1.0504 -1.6814  1.5784
26993SOL    HW298590  10.085  13.997   5.886 -2.2056 -0.5047  1.5146
26994SOL     OW98591   6.870   3.603  13.187  0.4411  0.1960 -0.1537
26994SOL    HW198592   6.901   3.553  13.111 -0.3178 -1.6224  0.6826
26994SOL    HW298593   6.834   3.684  13.150 -0.6080 -0.9822 -1.8076
26995SOL     OW98594  10.234   8.873   0.261  0.1261 -0.2464  0.1255
26995SOL    HW198595  10.214   8.872   0.355 -2.7855  1.0397 -0.3453
26995SOL    HW298596  10.297   8.944   0.251  0.2538 -0.2022  1.0820
26996SOL     OW98597   4.517  10.586  10.713  1.4775 -0.2052 -0.1572
26996SOL    HW198598   4.465  10.508  10.696 -0.9508  1.0858  0.9017
26996SOL    HW298599   4.472  10.656  10.665  2.8040  0.8265  0.0414
26997SOL     OW98600  10.707   7.126   3.831  0.0551 -0.4738  0.3938
26997SOL    HW198601  10.633   7.137   3.771  0.7399  1.3832 -0.1808
26997SOL    HW298602  10.667   7.104   3.915 -0.9680 -2.4234 -0.5383
26998SOL     OW98603   2.736   7.582  10.307 -0.2779 -0.0826  0.2410
26998SOL    HW198604   2.805   7.518  10.290  0.0047  0.1489  0.5208
26998SOL    HW298605   2.766   7.631  10.383 -0.2794  0.6901 -0.2489
26999SOL     OW98606   0.400   7.660   7.287 -0.5732 -0.1460 -0.0207
26999SOL    HW198607   0.486   7.663   7.245 -0.7314  1.2166 -0.3115
26999SOL    HW298608   0.419   7.638   7.379 -0.0802 -1.4780 -0.4237
27000SOL     OW98609  13.302   1.943  11.868  0.4183  0.0823 -0.2415
27000SOL    HW198610  13.234   1.878  11.881  1.3222 -0.8947 -0.2365
27000SOL    HW298611  13.360   1.905  11.801  0.9847  0.8555 -0.2123
27001SOL     OW98612   1.562   4.298   9.143  0.7837  0.1460 -0.4765
27001SOL    HW198613   1.639   4.248   9.115  1.9782  1.7332 -0.1513
27001SOL    HW298614   1.519   4.323   9.062  0.0649 -1.4720 -0.6500
27002SOL     OW98615  13.887   1.464   9.609  0.0994  0.3810 -0.3157
27002SOL    HW198616  13.920   1.550   9.582  0.1153  0.5922  0.3419
27002SOL    HW298617  13.797   1.481   9.638  0.1893  0.2303  0.0660
27003SOL     OW98618   8.415  11.867  13.621  0.4171  0.3146  0.0041
27003SOL    HW198619   8.486  11.854  13.558  0.0713  1.2953 -0.6072
27003SOL    HW298620   8.457  11.855  13.706  1.7607  2.4456 -0.2658
27004SOL     OW98621   5.052   3.204   3.000 -0.0543 -0.2810  0.2563
27004SOL    HW198622   4.982   3.265   2.975  0.7659  0.4928 -0.1913
27004SOL    HW298623   5.052   3.206   3.096 -1.1520 -0.8843  0.2873
27005SOL     OW98624   8.541   5.244   1.305  0.0069 -0.4465  1.1925
27005SOL    HW198625   8.593   5.176   1.347 -0.8052 -1.1389  1.1066
27005SOL    HW298626   8.450   5.213   1.313 -0.2394 -0.1674 -0.3066
27006SOL     OW98627  13.425   0.977   9.206 -0.1856 -0.1299  0.2289
27006SOL    HW198628  13.459   0.889   9.191  0.6774 -0.0034  1.2853
27006SOL    HW298629  13.361   0.966   9.276 -0.2022  0.0581  0.2427
27007SOL     OW98630   0.312   3.411  13.361 -0.0888 -0.0039  0.4263
27007SOL    HW198631   0.244   3.348  13.338 -1.2389  0.5538  2.1148
27007SOL    HW298632   0.268   3.496  13.361  0.8649  0.5100  0.5412
27008SOL     OW98633   6.602   3.572   8.705 -0.5123 -0.3046  0.6762
27008SOL    HW198634   6.646   3.528   8.778  0.3695 -1.0713 -0.2724
27008SOL    HW298635   6.523   3.519   8.690  0.4060 -1.4785 -0.2833
27009SOL     OW98636   2.602  13.794   5.981  0.6931  0.4714 -0.5975
27009SOL    HW198637   2.652  13.722   6.019  0.3331  0.6386  0.1952
27009SOL    HW298638   2.654  13.821   5.905  1.6937  0.5107  0.0889
27010SOL     OW98639   5.604   4.122   1.839 -0.0386 -0.3324 -0.5207
27010SOL    HW198640   5.563   4.110   1.924  1.2197  0.8395  0.3014
27010SOL    HW298641   5.602   4.217   1.824  0.7041 -0.4188 -1.2849
27011SOL     OW98642  12.875   0.492  11.621  0.2485  0.0381 -0.3134
27011SOL    HW198643  12.943   0.550  11.654  0.4133 -0.1787 -0.2719
27011SOL    HW298644  12.803   0.551  11.597  0.3550  0.2470 -0.1285
27012SOL     OW98645   6.813   4.175  13.902  0.5964  0.2703  0.0647
27012SOL    HW198646   6.873   4.249  13.893 -0.3606  1.1959  1.0290
27012SOL    HW298647   6.727   4.215  13.915 -0.5711 -0.9815 -2.8313
27013SOL     OW98648   5.602   5.955   3.971  0.2195 -0.0532 -0.2509
27013SOL    HW198649   5.507   5.959   3.985  0.3175 -0.9867  0.8474
27013SOL    HW298650   5.621   5.861   3.966  1.1223  0.1200 -0.2310
27014SOL     OW98651   6.053   1.448   7.900  0.1898 -0.4049 -0.1306
27014SOL    HW198652   6.121   1.384   7.880  0.2113 -0.1805 -0.8087
27014SOL    HW298653   6.087   1.498   7.974  0.0610 -1.3342  0.5833
27015SOL     OW98654   5.259   3.370  10.434 -0.3937 -0.6354 -0.2789
27015SOL    HW198655   5.198   3.320  10.379  0.7530 -1.2374 -1.0338
27015SOL    HW298656   5.278   3.449  10.382 -0.5708 -0.4136 -0.0115
27016SOL     OW98657  12.382   9.475   7.288 -0.2573  0.7302  0.2168
27016SOL    HW198658  12.375   9.571   7.290 -0.0410  0.7352  1.0610
27016SOL    HW298659  12.475   9.459   7.271 -0.2858  0.6687  0.1223
27017SOL     OW98660   5.319  13.064   9.354  0.7873 -0.1370  0.2322
27017SOL    HW198661   5.257  13.094   9.421 -1.2728 -1.6249 -0.8846
27017SOL    HW298662   5.323  12.969   9.366  2.5383 -0.1130 -0.0250
27018SOL     OW98663   2.386   6.630   7.585 -0.0326  0.1917  0.1533
27018SOL    HW198664   2.426   6.629   7.499 -0.0119 -1.9477  0.1504
27018SOL    HW298665   2.460   6.633   7.646  0.0513 -0.6072  0.1045
27019SOL     OW98666   8.864  11.765  10.277  0.5449 -0.4213 -0.8125
27019SOL    HW198667   8.866  11.734  10.187  2.2676  1.0628 -1.3380
27019SOL    HW298668   8.936  11.719  10.320 -0.9055 -1.9159  0.1478
27020SOL     OW98669   9.185  12.458   5.139 -0.4182  0.7204  0.1047
27020SOL    HW198670   9.152  12.547   5.148  0.5295  0.9717  1.1829
27020SOL    HW298671   9.223  12.437   5.223  1.2612  0.0665 -0.7770
27021SOL     OW98672   3.992   5.171   8.567  0.1638 -0.4151  0.1006
27021SOL    HW198673   3.907   5.185   8.610  0.7238  0.3173  0.9997
27021SOL    HW298674   4.016   5.256   8.531 -0.1568 -0.9529 -1.4647
27022SOL     OW98675  10.365   0.216   2.972  0.7870  0.2620 -0.2426
27022SOL    HW198676  10.291   0.183   3.023  1.7178 -1.1502  0.2506
27022SOL    HW298677  10.431   0.240   3.037  0.1990  3.1867 -0.5698
27023SOL     OW98678  12.469  13.971   4.687  0.3417  0.0664 -0.3380
27023SOL    HW198679  12.399  13.919   4.648  0.3542 -0.8897  0.8556
27023SOL    HW298680  12.423  14.038   4.739  0.3150 -0.1377 -0.0980
27024SOL     OW98681   9.292   6.820   2.216  0.3064  0.4059 -0.4023
27024SOL    HW198682   9.287   6.805   2.122  0.1044  0.6165 -0.4263
27024SOL    HW298683   9.347   6.749   2.249 -1.5337 -1.0717 -0.3755
27025SOL     OW98684  10.923   1.444   5.663  0.2597  0.0262 -0.4733
27025SOL    HW198685  10.831   1.430   5.640  0.5447 -0.1872 -1.5646
27025SOL    HW298686  10.964   1.359   5.647  0.3958 -0.2994  1.4176
27026SOL     OW98687   1.727   2.044  12.580  0.0093  0.1738  0.2922
27026SOL    HW198688   1.792   2.047  12.509 -1.0957  1.4817 -0.7165
27026SOL    HW298689   1.669   1.972  12.555  0.7932 -0.7137  0.9702
27027SOL     OW98690   5.363   6.675  11.896  0.2631 -0.3556 -0.2394
27027SOL    HW198691   5.450   6.636  11.883 -0.2985 -1.8763  0.2913
27027SOL    HW298692   5.376   6.738  11.966  0.7495 -1.3960  0.6529
27028SOL     OW98693   3.561   2.287   2.908 -0.0385 -0.7203  0.1405
27028SOL    HW198694   3.583   2.370   2.865  0.2505 -1.3466 -0.9500
27028SOL    HW298695   3.541   2.227   2.837 -2.4364 -1.0149  0.9733
27029SOL     OW98696   8.865   2.657  13.195 -0.3864  0.9641  0.0480
27029SOL    HW198697   8.917   2.579  13.213 -3.9522 -1.6615  0.1481
27029SOL    HW298698   8.906   2.697  13.119  1.3217 -1.2795 -0.3036
27030SOL     OW98699   7.725   1.894   2.872  0.4588  0.5249  0.1031
27030SOL    HW198700   7.811   1.892   2.830  0.3910 -0.0957 -0.0117
27030SOL    HW298701   7.706   1.803   2.893 -0.0221  0.6964  0.4418
27031SOL     OW98702  11.747   5.923   2.611 -0.3823  0.3016  0.0366
27031SOL    HW198703  11.826   5.890   2.568 -2.3666 -1.5637 -2.5052
27031SOL    HW298704  11.730   5.860   2.681 -1.3159 -1.2680 -1.5132
27032SOL     OW98705  10.445   6.455  11.274 -0.1116  0.3530 -0.2532
27032SOL    HW198706  10.481   6.460  11.185 -0.7664 -1.6161 -0.6711
27032SOL    HW298707  10.359   6.415  11.264 -0.5006  0.7513  1.2054
27033SOL     OW98708  13.730   7.377   3.044 -0.6790 -0.4373 -0.4265
27033SOL    HW198709  13.688   7.461   3.022  0.0807  0.2763  0.7380
27033SOL    HW298710  13.660   7.327   3.087 -1.0503 -0.3036 -0.8535
27034SOL     OW98711   2.468   1.439   9.307 -0.2891  0.1602  0.3656
27034SOL    HW198712   2.502   1.516   9.262  0.2786 -1.3771 -2.0384
27034SOL    HW298713   2.544   1.401   9.351 -0.1697 -0.0669 -0.0407
27035SOL     OW98714  10.037   8.695  13.559  0.1382  0.1043 -0.0687
27035SOL    HW198715  10.031   8.640  13.637  0.9977  0.5211  0.3129
27035SOL    HW298716  10.118   8.666  13.517  0.7700  1.2732  0.3035
27036SOL     OW98717   9.908   6.686  11.353 -0.7244 -0.1736 -0.2094
27036SOL    HW198718   9.880   6.598  11.329 -0.1777  0.2685 -2.7165
27036SOL    HW298719   9.855   6.744  11.299 -0.4909  1.0239  0.8047
27037SOL     OW98720   7.887   3.109   6.887  0.2539 -0.6978  0.1954
27037SOL    HW198721   7.931   3.062   6.958  2.9604 -3.1382 -2.7445
27037SOL    HW298722   7.923   3.198   6.891 -0.9726 -0.2335  2.7775
27038SOL     OW98723   4.624  10.279   2.138  0.2024  0.2957  0.3128
27038SOL    HW198724   4.652  10.291   2.229 -1.4884  0.0448  0.9118
27038SOL    HW298725   4.598  10.187   2.133 -0.2860  0.4544 -0.2377
27039SOL     OW98726   2.654   1.921   7.332  0.1456 -0.4206  0.2156
27039SOL    HW198727   2.665   1.995   7.391  1.0637  0.2453 -0.7616
27039SOL    HW298728   2.743   1.896   7.307 -0.1952 -1.2087 -0.2591
27040SOL     OW98729   5.956   2.945  11.400  0.2034 -0.2056  0.1445
27040SOL    HW198730   5.928   2.870  11.348 -0.4837  0.6841 -0.7792
27040SOL    HW298731   6.006   3.000  11.340  0.9451 -0.0336  0.8852
27041SOL     OW98732   7.326   6.112   2.122 -0.2488  0.4958 -0.2678
27041SOL    HW198733   7.271   6.136   2.047 -2.3350  1.6391  1.5334
27041SOL    HW298734   7.398   6.176   2.120 -0.7352  1.0443 -0.8328
27042SOL     OW98735  10.859   2.382  12.396  0.2101  0.4554 -0.3196
27042SOL    HW198736  10.794   2.343  12.339  1.6986 -1.6774 -0.6998
27042SOL    HW298737  10.877   2.314  12.462  3.7868 -0.1645 -1.7151
27043SOL     OW98738  11.437   9.655  10.078  0.6529 -0.0107  0.3083
27043SOL    HW198739  11.387   9.733  10.054 -0.8360 -0.6661  1.1324
27043SOL    HW298740  11.405   9.587  10.018  0.0151 -0.6036  1.2925
27044SOL     OW98741   8.606  13.282  11.186  0.3561  0.2283 -0.5394
27044SOL    HW198742   8.627  13.207  11.241 -0.5848 -0.7522 -1.4623
27044SOL    HW298743   8.510  13.278  11.177 -0.0471  2.8844  1.2597
27045SOL     OW98744  11.115   5.398   0.965  0.6074 -0.3101 -0.3019
27045SOL    HW198745  11.127   5.439   1.051 -1.2509  0.4174 -0.3261
27045SOL    HW298746  11.050   5.329   0.980  0.5946 -0.4669 -1.0426
27046SOL     OW98747   0.319   6.327  12.679 -0.0868  0.6820 -0.4478
27046SOL    HW198748   0.378   6.305  12.751  0.1055 -1.2727 -1.1297
27046SOL    HW298749   0.319   6.249  12.623 -2.6297  0.9545 -0.9629
27047SOL     OW98750  13.756   4.199   3.875  0.0337  0.1129 -0.1899
27047SOL    HW198751  13.779   4.136   3.806  0.9664 -1.4578  1.4797
27047SOL    HW298752  13.832   4.258   3.878  0.6873 -0.7373  0.4828
27048SOL     OW98753   6.743  11.970  10.151  0.2171 -0.3391 -0.2763
27048SOL    HW198754   6.776  11.997  10.236 -2.5478  2.5695  0.0413
27048SOL    HW298755   6.806  12.005  10.088  1.1996 -0.7377  0.4614
27049SOL     OW98756   9.202   2.676   6.625 -0.0905  0.1136 -0.0034
27049SOL    HW198757   9.164   2.751   6.671  0.0215 -0.0897  0.4319
27049SOL    HW298758   9.193   2.603   6.687  0.2106 -0.1299 -0.2425
27050SOL     OW98759   1.434   5.696   1.245 -0.6514 -0.4482  0.2183
27050SOL    HW198760   1.500   5.654   1.189 -0.2161  1.3206 -0.6546
27050SOL    HW298761   1.351   5.676   1.202 -0.5023 -0.9037  0.1354
27051SOL     OW98762  11.993  12.484  10.069 -0.1654 -0.0348  0.4590
27051SOL    HW198763  12.082  12.483  10.033  0.0509  2.7953  0.7229
27051SOL    HW298764  11.936  12.482   9.993  0.1793  0.6067  0.1767
27052SOL     OW98765  12.083   7.578   8.434 -0.1072 -0.9257  0.2906
27052SOL    HW198766  12.010   7.568   8.494  0.5774 -0.0687  1.3075
27052SOL    HW298767  12.134   7.498   8.445  0.9635 -0.0411  2.2298
27053SOL     OW98768  11.380  10.327  10.028  0.1319 -0.1923  1.0461
27053SOL    HW198769  11.360  10.259  10.093 -1.3576 -1.6615 -0.7977
27053SOL    HW298770  11.305  10.386  10.031 -0.5590 -0.9606 -0.1050
27054SOL     OW98771  10.900   0.196   2.849  0.0405  0.6110 -0.3624
27054SOL    HW198772  10.955   0.263   2.808  0.4352  1.9499  2.1433
27054SOL    HW298773  10.816   0.204   2.805  0.6579  1.3920 -1.4429
27055SOL     OW98774   1.125   4.446   5.107 -0.1248 -0.0760  0.4451
27055SOL    HW198775   1.171   4.522   5.143  0.0011 -0.1845  0.5153
27055SOL    HW298776   1.187   4.407   5.046  0.1018 -0.5485  0.9601
27056SOL     OW98777  11.829   4.814   5.264 -0.3781  0.2343  0.4268
27056SOL    HW198778  11.744   4.840   5.301 -1.0167  0.7384 -1.2828
27056SOL    HW298779  11.879   4.895   5.257 -0.5400  0.2751 -0.4259
27057SOL     OW98780   6.018  12.295   4.873  0.0448 -0.1367  0.6608
27057SOL    HW198781   5.983  12.212   4.906 -1.3388  0.6131  1.1576
27057SOL    HW298782   6.106  12.273   4.842 -1.1561 -2.3243 -1.5137
27058SOL     OW98783   5.030   6.058   1.123 -0.1802 -0.6456  0.3164
27058SOL    HW198784   4.941   6.030   1.143 -1.3221  1.8854 -0.6962
27058SOL    HW298785   5.050   6.016   1.039 -0.8935 -0.4196  0.0151
27059SOL     OW98786   4.482   7.065   0.990 -0.2595  0.0058  0.2233
27059SOL    HW198787   4.549   7.090   1.054 -1.3673 -2.0270  2.3031
27059SOL    HW298788   4.518   6.987   0.947  0.0173  0.7454 -0.9360
27060SOL     OW98789   6.068  12.982   3.919 -0.0293 -0.4668  0.1219
27060SOL    HW198790   6.114  13.061   3.947 -1.1794 -0.3867  2.0151
27060SOL    HW298791   6.040  13.000   3.829 -0.1027  1.2140  0.4569
27061SOL     OW98792  10.173  13.011  11.211 -0.8722  0.2231  0.4491
27061SOL    HW198793  10.269  13.012  11.216 -0.9255  0.6395  1.9306
27061SOL    HW298794  10.152  12.925  11.175  0.0420 -0.1483  0.7658
27062SOL     OW98795  11.156   2.003   0.540  0.3670  0.1746 -0.1194
27062SOL    HW198796  11.217   1.938   0.575 -0.1893  0.1649  0.8477
27062SOL    HW298797  11.208   2.051   0.475  1.1947 -0.3020  0.1708
27063SOL     OW98798  12.258   0.425   1.214  0.1108 -0.5850  0.1531
27063SOL    HW198799  12.263   0.393   1.304  0.3895 -0.9623  0.0051
27063SOL    HW298800  12.348   0.427   1.184 -0.0852 -1.8294 -0.5829
27064SOL     OW98801  13.966   1.038   5.347 -0.2094 -0.7904  0.0674
27064SOL    HW198802  13.924   0.963   5.306 -0.8381 -0.5953  0.3485
27064SOL    HW298803  13.926   1.045   5.434 -1.1668  0.6847 -0.4453
27065SOL     OW98804  13.732  11.451  10.469 -0.6038  0.0619  0.2891
27065SOL    HW198805  13.779  11.438  10.552  0.5826  0.0797 -0.3461
27065SOL    HW298806  13.664  11.515  10.490  0.2579  0.7694  1.0555
27066SOL     OW98807   2.360   2.687   0.773 -0.2941 -0.0854  0.1203
27066SOL    HW198808   2.395   2.759   0.825  1.1186  0.8531 -1.9816
27066SOL    HW298809   2.282   2.722   0.730 -0.4583 -0.2883  0.2509
27067SOL     OW98810  11.789   9.101   3.643 -0.3683 -0.3386 -0.1424
27067SOL    HW198811  11.714   9.158   3.658 -1.8087 -2.4380  1.1692
27067SOL    HW298812  11.822   9.080   3.730  1.4508  0.0750 -0.6713
27068SOL     OW98813   9.181  10.774   0.070  0.3149 -0.4768  0.0244
27068SOL    HW198814   9.102  10.770   0.017 -0.0064  0.7988  0.3652
27068SOL    HW298815   9.176  10.698   0.128 -0.7493 -0.3189  0.1541
27069SOL     OW98816   6.695   1.804   0.839  0.5666  0.1279 -0.0686
27069SOL    HW198817   6.661   1.716   0.858  3.0584 -1.2372 -1.3500
27069SOL    HW298818   6.655   1.827   0.755  0.4912 -0.1636 -0.1157
27070SOL     OW98819  14.009   8.765   0.318  0.4642  0.0722  0.0305
27070SOL    HW198820  13.919   8.790   0.339 -0.3485 -0.1144 -2.8289
27070SOL    HW298821  14.044   8.840   0.270  1.5172 -0.2341  0.2981
27071SOL     OW98822   0.128   5.731   7.014  0.2220  0.4942  0.3131
27071SOL    HW198823   0.033   5.738   7.025  0.1603  1.5705 -0.6168
27071SOL    HW298824   0.148   5.795   6.946  1.5773  0.0299  0.2501
27072SOL     OW98825   7.395   7.885   3.453 -0.0350  0.0466  0.2105
27072SOL    HW198826   7.406   7.817   3.519  2.3946 -0.1596 -0.3425
27072SOL    HW298827   7.468   7.945   3.468  1.3122 -0.6293 -2.9774
27073SOL     OW98828  12.498   0.967   2.654  0.4522 -0.5780 -0.1456
27073SOL    HW198829  12.437   0.988   2.584 -0.5844  0.9888  1.1527
27073SOL    HW298830  12.562   0.909   2.614  0.3381  0.8525 -2.5899
27074SOL     OW98831   6.137   3.642   4.571 -0.9835  0.7851 -0.1179
27074SOL    HW198832   6.125   3.591   4.491  0.2120  1.9874 -1.1014
27074SOL    HW298833   6.047   3.660   4.601 -1.4444 -1.0643 -0.2276
27075SOL     OW98834   0.017  12.217   3.666  0.0875 -0.4322  0.1019
27075SOL    HW198835   0.038  12.311   3.665 -2.1752  0.1394 -0.5597
27075SOL    HW298836   0.053  12.184   3.584 -0.7039  0.3009 -0.5675
27076SOL     OW98837   9.680   2.413   5.954  0.4166 -0.2498  0.2976
27076SOL    HW198838   9.637   2.496   5.972  1.8855  0.6697 -0.2683
27076SOL    HW298839   9.652   2.355   6.025 -0.2406  0.8683  0.9664
27077SOL     OW98840   6.943  10.475  11.888  0.5959 -0.0013  0.7085
27077SOL    HW198841   6.991  10.398  11.918  0.7377 -1.1588 -2.1713
27077SOL    HW298842   6.854  10.463  11.922  1.3652  0.2830  2.9718
27078SOL     OW98843   0.592   5.615   6.201 -0.2864 -0.3737 -0.2210
27078SOL    HW198844   0.546   5.539   6.165 -2.3400  0.1705  1.1144
27078SOL    HW298845   0.639   5.652   6.127 -1.8537 -1.0883 -1.6346
27079SOL     OW98846   4.314   1.019  11.709 -0.6197  0.2584  0.5721
27079SOL    HW198847   4.395   0.971  11.693 -1.4722 -1.8320  2.0699
27079SOL    HW298848   4.342   1.110  11.724  1.6518 -0.6765  2.6102
27080SOL     OW98849  10.580   3.787  12.117  0.8904 -0.2109  0.0831
27080SOL    HW198850  10.513   3.718  12.116  0.7882 -0.1109 -0.0507
27080SOL    HW298851  10.546   3.851  12.179  1.1082 -0.4008  0.4002
27081SOL     OW98852  11.959   4.583   3.692 -0.1224  0.0222 -0.1836
27081SOL    HW198853  11.968   4.655   3.755 -4.1576  0.6357 -0.0703
27081SOL    HW298854  12.013   4.610   3.617  0.3704  1.9808  0.8181
27082SOL     OW98855   5.353   9.209   1.164 -0.7881  0.2504 -0.3748
27082SOL    HW198856   5.422   9.170   1.218 -1.8274 -1.3274 -0.1190
27082SOL    HW298857   5.334   9.293   1.207 -0.0781  0.0194  0.4165
27083SOL     OW98858   3.154   4.599   0.344  0.3128 -0.6259  0.6371
27083SOL    HW198859   3.232   4.574   0.294  0.2655 -0.2346  0.3595
27083SOL    HW298860   3.140   4.526   0.404  1.0499 -0.5830  0.8758
27084SOL     OW98861   5.792  12.825   2.633 -0.7936 -0.3035 -0.7182
27084SOL    HW198862   5.796  12.737   2.596  0.0695 -0.5480 -0.0855
27084SOL    HW298863   5.878  12.838   2.672 -0.8401  0.9071 -0.9781
27085SOL     OW98864   8.710   4.614   8.052  0.4002  0.0866 -0.6842
27085SOL    HW198865   8.781   4.569   8.099  1.1729  0.6943 -1.2440
27085SOL    HW298866   8.693   4.558   7.976 -0.1355 -0.3621 -0.2410
27086SOL     OW98867   3.234  10.358  10.939  0.1469  0.1056 -0.0105
27086SOL    HW198868   3.256  10.433  10.995  0.4064  0.0687 -0.0598
27086SOL    HW298869   3.152  10.325  10.974  1.4190 -1.3458  1.8469
27087SOL     OW98870  12.482   0.045   7.472 -0.0259 -0.0414 -0.1000
27087SOL    HW198871  12.527  -0.031   7.434 -0.2083 -0.6573  0.8676
27087SOL    HW298872  12.405   0.058   7.416 -0.5044 -1.1794  0.2680
27088SOL     OW98873   6.281   2.047   9.013  0.0249 -0.1866  0.0186
27088SOL    HW198874   6.199   2.011   9.046  0.0433 -0.7319 -0.4982
27088SOL    HW298875   6.256   2.096   8.934  0.0898  0.3741  0.3395
27089SOL     OW98876  12.932   7.090   4.707  0.3856 -0.0743 -0.3227
27089SOL    HW198877  12.896   7.002   4.714  0.5889 -0.0996  0.4476
27089SOL    HW298878  13.018   7.078   4.666 -0.4401 -0.0078 -2.2060
27090SOL     OW98879   2.334  12.337   8.931  0.4192  0.1937 -0.2209
27090SOL    HW198880   2.426  12.314   8.945  0.2130 -1.2555 -1.1140
27090SOL    HW298881   2.313  12.302   8.844 -1.6970 -1.9485  1.0246
27091SOL     OW98882   1.007   8.456  12.733  0.0891 -0.5841  0.6020
27091SOL    HW198883   1.047   8.504  12.661 -0.9257  0.7861  0.9061
27091SOL    HW298884   1.078   8.406  12.771  0.8131 -0.7084 -0.8420
27092SOL     OW98885   8.513  10.082  11.515 -0.0196  0.2885  0.0812
27092SOL    HW198886   8.465  10.115  11.439  1.8157  1.3276 -0.6872
27092SOL    HW298887   8.493  10.145  11.584  0.4957  0.9110 -0.3303
27093SOL     OW98888   8.271   1.491  12.303  0.1221  0.3635 -0.1500
27093SOL    HW198889   8.224   1.572  12.286  2.6944  1.6092 -2.0175
27093SOL    HW298890   8.347   1.518  12.355 -1.2810 -1.6387  3.2786
27094SOL     OW98891   1.428  13.624   4.441 -0.0630  0.0695 -0.3765
27094SOL    HW198892   1.473  13.566   4.380  0.0001 -0.8016  0.4764
27094SOL    HW298893   1.495  13.648   4.505 -0.5855 -0.5834  0.4386
27095SOL     OW98894   8.843   5.410   2.464  0.1115 -0.2725 -0.2873
27095SOL    HW198895   8.772   5.472   2.446  0.4876  0.1547 -0.3430
27095SOL    HW298896   8.854   5.362   2.382 -0.7007 -0.9584 -0.0017
27096SOL     OW98897  10.405  11.281   9.718  0.2255 -0.7298  0.2543
27096SOL    HW198898  10.360  11.281   9.802  1.2806  1.1444  0.8737
27096SOL    HW298899  10.497  11.266   9.739  1.1562  3.3958 -0.0166
27097SOL     OW98900   0.512  11.975   3.942  0.1163  0.1038  0.1956
27097SOL    HW198901   0.488  11.986   4.034  1.4588  0.2585  0.5484
27097SOL    HW298902   0.551  11.888   3.937  0.3036  0.2079 -0.1776
27098SOL     OW98903  10.379   8.360   6.647  0.4730  0.1211 -0.2766
27098SOL    HW198904  10.424   8.327   6.569 -2.0860 -2.4226 -0.8375
27098SOL    HW298905  10.409   8.303   6.718 -1.0597 -0.9645 -0.4699
27099SOL     OW98906   0.080  10.599   7.405 -0.5453  0.6361  0.1166
27099SOL    HW198907   0.097  10.629   7.494 -0.0635  0.3674  0.1153
27099SOL    HW298908   0.090  10.678   7.351  0.5703  0.5201  0.1342
27100SOL     OW98909   5.144   4.167  13.621 -0.1320  0.2473 -0.3687
27100SOL    HW198910   5.091   4.236  13.663 -2.4974 -2.4796  1.5018
27100SOL    HW298911   5.080   4.112  13.577  1.8360 -0.0546 -3.0607
27101SOL     OW98912   2.391   4.799   5.414 -0.3722  0.0139 -0.3803
27101SOL    HW198913   2.348   4.884   5.403 -0.9900 -0.0927  0.9506
27101SOL    HW298914   2.402   4.791   5.509  1.7563 -0.3908 -0.6098
27102SOL     OW98915   9.043  10.877  12.069 -0.4892  0.0186  0.4169
27102SOL    HW198916   9.028  10.895  12.162  1.1731  0.3799  0.6326
27102SOL    HW298917   9.134  10.901  12.054 -0.0338 -2.2126 -0.7731
27103SOL     OW98918   4.355   6.408   8.285 -0.2921  0.4048 -0.1042
27103SOL    HW198919   4.326   6.402   8.376 -1.9266  3.1080 -0.3292
27103SOL    HW298920   4.436   6.460   8.289 -0.1949  0.2593 -0.1656
27104SOL     OW98921   6.652   0.347   7.600 -0.4078  0.5320 -0.2707
27104SOL    HW198922   6.643   0.422   7.541  1.6025  1.5130  0.5559
27104SOL    HW298923   6.615   0.376   7.683  1.3158  1.0599  0.3565
27105SOL     OW98924   3.124   7.710   1.496 -0.1836 -0.7876  0.4550
27105SOL    HW198925   3.044   7.680   1.452 -0.2430  1.0266 -0.8017
27105SOL    HW298926   3.097   7.722   1.587 -1.4228 -0.0750  0.0297
27106SOL     OW98927   9.394   5.808  12.047  0.2515 -0.2145 -0.5180
27106SOL    HW198928   9.406   5.740  12.113  1.2432 -0.0586 -0.5305
27106SOL    HW298929   9.475   5.858  12.048 -0.5594  1.1518 -0.3212
27107SOL     OW98930  13.860   3.386  11.828  0.4137  0.0117 -0.2330
27107SOL    HW198931  13.798   3.314  11.837 -0.2154  0.5887  0.0627
27107SOL    HW298932  13.833   3.432  11.749 -0.2973  0.9853  0.5548
27108SOL     OW98933  13.396   4.944   7.545  0.0919 -0.5190  0.9273
27108SOL    HW198934  13.399   4.966   7.452 -1.3303 -0.9803  0.7458
27108SOL    HW298935  13.445   4.863   7.552  0.0648 -0.5711  0.5473
27109SOL     OW98936   4.924   1.747  12.268  0.4989  0.0321 -0.1715
27109SOL    HW198937   4.891   1.834  12.244  0.3875 -0.4545 -1.9121
27109SOL    HW298938   4.858   1.687  12.235  1.2081 -0.7800 -0.1348
27110SOL     OW98939   8.146   3.657  11.670  0.3841  0.7735 -0.1304
27110SOL    HW198940   8.176   3.706  11.747 -0.9493  0.1785  0.7864
27110SOL    HW298941   8.135   3.567  11.701  2.4813 -0.1329 -1.7138
27111SOL     OW98942   2.263  10.757   2.354 -1.0678  0.0066 -0.3194
27111SOL    HW198943   2.265  10.852   2.340  0.9028  0.2318  1.0669
27111SOL    HW298944   2.225  10.746   2.441 -0.5249 -0.3960 -0.1276
27112SOL     OW98945   0.527   4.105  14.016 -0.6735  0.1440 -0.1628
27112SOL    HW198946   0.565   4.190  13.993  2.6359 -0.6941  1.5621
27112SOL    HW298947   0.515   4.108  14.111 -1.2114 -1.0631 -0.1690
27113SOL     OW98948  12.305   1.995   2.496 -0.5807  0.1734  0.1846
27113SOL    HW198949  12.393   2.024   2.519 -0.8038  1.0392 -0.0309
27113SOL    HW298950  12.286   2.038   2.412 -0.8192 -0.8095 -0.2897
27114SOL     OW98951  14.092   9.676  13.032  0.5576 -0.2907 -0.0862
27114SOL    HW198952  14.045   9.692  12.950  0.9028  1.2576 -0.0160
27114SOL    HW298953  14.157   9.609  13.009 -0.5054 -1.1693 -0.6117
27115SOL     OW98954   2.155   7.862   1.778 -0.2294  0.4346 -0.5370
27115SOL    HW198955   2.214   7.927   1.740 -2.6174  1.5802 -2.5365
27115SOL    HW298956   2.185   7.779   1.743  2.1860  0.4862  1.1707
27116SOL     OW98957   5.603   3.685   1.574  0.0113 -0.6862  0.3546
27116SOL    HW198958   5.696   3.668   1.589  0.5136  1.5669  0.1647
27116SOL    HW298959   5.586   3.769   1.617 -1.4229 -0.0482 -1.2918
27117SOL     OW98960  13.195   3.386   9.093  0.0507  0.0779 -0.7618
27117SOL    HW198961  13.250   3.385   9.014  3.7587  1.7467  1.5183
27117SOL    HW298962  13.226   3.312   9.144 -1.3765 -0.1883 -0.2426
27118SOL     OW98963   8.460   3.064  11.188  0.1303 -0.1826 -0.1126
27118SOL    HW198964   8.429   3.097  11.272  1.8951  0.2191  0.4186
27118SOL    HW298965   8.405   3.108  11.123 -0.4998  0.3738  0.7802
27119SOL     OW98966   1.412   8.564   0.046 -0.2579  0.3296 -0.0160
27119SOL    HW198967   1.357   8.628   0.001 -2.5005  0.1934  2.3411
27119SOL    HW298968   1.392   8.480   0.004 -1.9208  0.2866  0.7984
27120SOL     OW98969   1.236   4.158  10.486 -0.4409  0.4493  0.3214
27120SOL    HW198970   1.243   4.252  10.472 -0.1012  0.3085 -0.5258
27120SOL    HW298971   1.327   4.129  10.496 -0.3719 -0.0726 -1.4827
27121SOL     OW98972   4.324   9.011  11.579 -0.2848 -0.2078 -0.2384
27121SOL    HW198973   4.342   8.921  11.553  0.2036  0.2135 -1.4318
27121SOL    HW298974   4.362   9.064  11.509  0.1314  0.9532  0.8225
27122SOL     OW98975   7.565  13.806  13.353  0.3262 -0.3061  0.1458
27122SOL    HW198976   7.592  13.895  13.330 -0.0425 -0.5302 -1.2774
27122SOL    HW298977   7.625  13.750  13.304 -1.7707 -0.8141 -2.0471
27123SOL     OW98978   9.339   5.049  12.521 -0.1733 -0.4235  0.1273
27123SOL    HW198979   9.274   5.070  12.453  0.1164  0.2085  0.0372
27123SOL    HW298980   9.423   5.060  12.477  0.0018 -0.8746  0.3512
27124SOL     OW98981  11.407   0.512   5.134  0.4794 -0.4590  0.7377
27124SOL    HW198982  11.431   0.487   5.045 -0.8218 -2.1525  0.8051
27124SOL    HW298983  11.373   0.601   5.126 -0.5480 -0.9487 -0.6354
27125SOL     OW98984   9.589  12.626   6.959  0.0589 -0.4196  0.3082
27125SOL    HW198985   9.649  12.607   6.887 -0.0328  0.5987 -0.0621
27125SOL    HW298986   9.514  12.568   6.945  0.3029 -0.6365 -0.0892
27126SOL     OW98987  11.181  13.322   8.513  0.4464 -0.3505 -0.5111
27126SOL    HW198988  11.231  13.278   8.582 -0.5705 -1.3822 -0.4002
27126SOL    HW298989  11.148  13.401   8.555 -0.1059 -0.9350  0.1869
27127SOL     OW98990   7.860   2.616   6.747 -0.2779 -0.9364  0.0292
27127SOL    HW198991   7.890   2.587   6.661 -1.8752  0.3191 -1.0252
27127SOL    HW298992   7.869   2.711   6.745 -0.6827 -0.8552  1.1164
27128SOL     OW98993  13.317  13.354   2.345  0.5411 -0.2356 -0.0752
27128SOL    HW198994  13.279  13.332   2.430 -1.5099  0.0818 -0.8748
27128SOL    HW298995  13.353  13.441   2.357  1.0267 -0.5277  0.6870
27129SOL     OW98996   0.529   3.508   7.943  0.2794 -0.3546  1.0886
27129SOL    HW198997   0.558   3.445   7.878 -0.2074  0.5717 -0.0603
27129SOL    HW298998   0.435   3.493   7.951 -0.0507  0.9321 -0.0348
27130SOL     OW98999   3.413  11.105  12.603  0.3532  0.3105  0.1817
27130SOL    HW199000   3.325  11.084  12.573 -0.4116  1.7809  1.2763
27130SOL    HW299001   3.463  11.025  12.587 -1.5216 -1.0734  0.8953
27131SOL     OW99002   1.859  10.872  11.839 -0.3970 -0.1311 -0.4052
27131SOL    HW199003   1.786  10.870  11.900  0.5097 -2.7261  0.7481
27131SOL    HW299004   1.837  10.804  11.774  1.2670 -1.5577  0.4345
27132SOL     OW99005   3.039   2.367   0.007  0.0912  0.1633 -0.1340
27132SOL    HW199006   2.965   2.410   0.051 -0.0430 -0.3129  0.1153
27132SOL    HW299007   2.999   2.319  -0.065  0.4254  1.8532 -1.5253
27133SOL     OW99008  10.149   5.890   4.949  0.1951  0.1505  0.4126
27133SOL    HW199009  10.215   5.830   4.914  1.1719  1.8192 -0.7791
27133SOL    HW299010  10.190   5.930   5.025 -0.4505 -0.6301  1.1971
27134SOL     OW99011   7.345   9.004   2.312 -0.1168  0.2469  0.4160
27134SOL    HW199012   7.394   9.016   2.393  0.9883  0.1878 -0.2269
27134SOL    HW299013   7.324   8.911   2.311 -0.1863  0.2582  0.6574
27135SOL     OW99014   2.697   3.561   9.869  0.1698 -0.4857  0.0687
27135SOL    HW199015   2.741   3.505   9.933 -0.5955 -1.7153 -0.4519
27135SOL    HW299016   2.724   3.650   9.893  2.1836 -1.1049  0.3561
27136SOL     OW99017  11.863   4.032   6.001 -0.0486  0.4414 -0.0068
27136SOL    HW199018  11.811   4.022   5.921  0.5473 -0.6675 -0.2866
27136SOL    HW299019  11.953   4.040   5.969  0.1529  0.4071  0.5425
27137SOL     OW99020   5.206   1.306   3.404  0.2186 -0.3125  0.0081
27137SOL    HW199021   5.200   1.229   3.460  0.6705  0.0004  0.4955
27137SOL    HW299022   5.116   1.323   3.375 -0.0929 -0.1777  1.0436
27138SOL     OW99023   3.115   9.450  12.315 -0.7186  0.2069 -0.0878
27138SOL    HW199024   3.166   9.460  12.235  1.6366 -0.7486  1.1925
27138SOL    HW299025   3.136   9.527  12.367  0.0300 -0.5403  0.7479
27139SOL     OW99026  10.712   7.587   0.167 -0.2346  0.3604  0.0120
27139SOL    HW199027  10.709   7.633   0.083 -1.7987  0.2550 -0.0209
27139SOL    HW299028  10.767   7.641   0.223  0.7431  0.4895 -1.0381
27140SOL     OW99029   9.770   6.129  13.458  0.7958 -0.2661  0.1548
27140SOL    HW199030   9.781   6.146  13.551  0.3411  0.4482  0.0860
27140SOL    HW299031   9.696   6.069  13.453  0.7677 -0.2376  0.2461
27141SOL     OW99032   5.129  12.673   6.841 -0.6214 -0.0199  0.7004
27141SOL    HW199033   5.124  12.635   6.753  1.5664  0.7836  0.1521
27141SOL    HW299034   5.096  12.762   6.830 -0.3204  0.0898  0.6735
27142SOL     OW99035   4.710  10.150   5.637 -0.2273 -0.6804 -0.1370
27142SOL    HW199036   4.735  10.147   5.545  0.9040 -1.0148  0.1756
27142SOL    HW299037   4.621  10.186   5.636  0.3160  0.7193 -1.2525
27143SOL     OW99038   9.971  12.645   4.451  0.3615  0.1861  0.2430
27143SOL    HW199039   9.878  12.661   4.464  0.4189  0.3744  0.4389
27143SOL    HW299040   9.998  12.595   4.529  0.4124  0.0840  0.1607
27144SOL     OW99041   0.721  12.093  12.024 -0.0208  0.1132  0.0827
27144SOL    HW199042   0.640  12.041  12.024  0.3587 -0.4970 -0.4227
27144SOL    HW299043   0.701  12.168  12.081 -1.8496  1.4197 -2.0885
27145SOL     OW99044   0.400  12.359  13.602 -0.1604 -0.6305  0.4959
27145SOL    HW199045   0.325  12.410  13.571  1.6347  1.2891 -1.0037
27145SOL    HW299046   0.469  12.424  13.616  1.1359 -2.2700  2.2497
27146SOL     OW99047   9.470   9.953   6.123  0.3176 -0.0917  0.3759
27146SOL    HW199048   9.498   9.891   6.189  1.5212 -1.4780 -1.3308
27146SOL    HW299049   9.377   9.934   6.109  0.6379 -1.4864 -0.0367
27147SOL     OW99050  10.145  10.415  11.375 -0.4571 -0.1468 -0.2300
27147SOL    HW199051  10.081  10.352  11.408 -0.2657 -0.7256 -0.9382
27147SOL    HW299052  10.190  10.446  11.454 -0.0954 -1.3998  0.0839
27148SOL     OW99053  10.384  13.660   9.157 -0.3694 -0.4519  0.3394
27148SOL    HW199054  10.293  13.634   9.172 -0.0356 -0.9396  1.6263
27148SOL    HW299055  10.378  13.732   9.094 -1.6127 -0.6832  0.1520
27149SOL     OW99056   0.326   7.508   1.678 -0.2949  0.2011 -0.4765
27149SOL    HW199057   0.417   7.490   1.701  0.3575  2.6024 -0.8477
27149SOL    HW299058   0.285   7.536   1.760 -0.3604  0.2985 -0.5417
27150SOL     OW99059   6.557   3.126   8.773 -0.2243 -0.1806 -0.4779
27150SOL    HW199060   6.546   3.190   8.703 -0.9336 -0.7383 -0.8809
27150SOL    HW299061   6.523   3.044   8.737 -0.3843 -0.5252  0.4322
27151SOL     OW99062   2.628  10.601  11.058 -0.1646 -0.5397 -0.5210
27151SOL    HW199063   2.576  10.681  11.049 -0.4373 -0.8573 -2.1281
27151SOL    HW299064   2.719  10.632  11.059 -0.1953 -0.2264 -2.4406
27152SOL     OW99065   8.983  13.241   3.439 -0.1761  0.9781 -0.0719
27152SOL    HW199066   9.051  13.308   3.439  1.1568 -0.2953 -1.4226
27152SOL    HW299067   8.978  13.212   3.348  1.0333 -2.3722  0.7778
27153SOL     OW99068   3.848   8.285  12.955 -0.5042 -0.5213  0.7923
27153SOL    HW199069   3.862   8.254  13.045 -0.2619  0.8069  1.2363
27153SOL    HW299070   3.783   8.355  12.964 -0.1208 -0.0546  0.0082
27154SOL     OW99071  13.703   8.551   8.532  0.0109  0.0014  0.2408
27154SOL    HW199072  13.790   8.589   8.541  0.7629 -1.3914 -0.7923
27154SOL    HW299073  13.702   8.513   8.444 -1.3476 -0.7358  0.5366
27155SOL     OW99074   6.323   1.083   9.013 -0.2736 -0.2885  0.3204
27155SOL    HW199075   6.272   1.128   8.946  0.5807  0.2704  0.0289
27155SOL    HW299076   6.330   0.993   8.980  0.0874 -0.0364 -0.3226
27156SOL     OW99077   0.741  11.263   6.634 -0.4810 -0.3001  0.4826
27156SOL    HW199078   0.819  11.226   6.677 -0.6191 -1.3547 -0.1536
27156SOL    HW299079   0.725  11.344   6.682  1.2122  0.1189  0.4145
27157SOL     OW99080   5.249   5.846  11.805 -0.0877 -0.1634  0.1649
27157SOL    HW199081   5.185   5.792  11.851 -0.9041 -0.5131 -1.3083
27157SOL    HW299082   5.199   5.890  11.736  0.9281  0.9924  0.1176
27158SOL     OW99083   7.526   2.859   2.190  0.1386 -0.0327  0.0771
27158SOL    HW199084   7.480   2.929   2.236  0.0368  0.1055 -0.2378
27158SOL    HW299085   7.461   2.789   2.184 -0.2921  0.4487 -1.0632
27159SOL     OW99086  12.724  10.845   5.109 -0.1292 -0.0298  0.5381
27159SOL    HW199087  12.776  10.841   5.028 -0.7791 -0.7572  0.1392
27159SOL    HW299088  12.639  10.878   5.080  0.9981  4.4816  1.6736
27160SOL     OW99089   2.734  11.868  12.479 -0.2030  0.0378 -0.6716
27160SOL    HW199090   2.812  11.893  12.430 -1.1154  1.2879 -1.5556
27160SOL    HW299091   2.768  11.834  12.562  1.5227 -3.9871 -2.7664
27161SOL     OW99092   0.590  11.701   3.937 -0.1537 -0.5597 -0.3924
27161SOL    HW199093   0.671  11.696   3.885 -0.3699 -1.0688 -0.6857
27161SOL    HW299094   0.535  11.631   3.902  0.2214 -1.8341  1.4251
27162SOL     OW99095  11.568   1.799   1.338 -0.0264 -0.1943  0.3186
27162SOL    HW199096  11.646   1.819   1.390  1.5771  1.4552 -2.5030
27162SOL    HW299097  11.572   1.704   1.325  2.8866  0.0453 -1.5868
27163SOL     OW99098   9.319   5.965   4.663 -0.3565  0.0205  0.0387
27163SOL    HW199099   9.296   5.957   4.755 -2.3187  0.6569 -0.3558
27163SOL    HW299100   9.275   5.892   4.620  0.7202 -0.4030 -0.3880
27164SOL     OW99101  12.596  12.139   7.800 -0.2812  0.3413 -0.2546
27164SOL    HW199102  12.567  12.185   7.722 -1.5815 -0.5702 -0.3412
27164SOL    HW299103  12.517  12.125   7.851  0.3590 -0.1590  0.6493
27165SOL     OW99104   7.800  10.715   1.860  0.4083  0.1108 -0.2682
27165SOL    HW199105   7.870  10.651   1.852 -1.5457 -1.8903 -3.6825
27165SOL    HW299106   7.729  10.668   1.903 -0.2560  0.7634 -0.6303
27166SOL     OW99107   6.720   9.759   2.204 -0.3051  0.3483 -0.2481
27166SOL    HW199108   6.714   9.691   2.137  1.5961 -0.1182  0.0092
27166SOL    HW299109   6.632   9.798   2.206 -0.4451  0.3412 -2.9325
27167SOL     OW99110   7.713  12.106   2.875  0.6242  0.2504 -0.0895
27167SOL    HW199111   7.807  12.110   2.891  0.6123  0.1318  0.0092
27167SOL    HW299112   7.684  12.197   2.888  0.6315  0.1753  0.4721
27168SOL     OW99113  11.373  10.970   0.952  0.2531  0.1751 -0.6748
27168SOL    HW199114  11.362  11.037   1.019 -0.8241  0.6071 -1.2629
27168SOL    HW299115  11.316  10.899   0.980  0.6423 -0.0927 -0.5635
27169SOL     OW99116  12.842   6.022  13.064 -0.3226  0.1384  0.0371
27169SOL    HW199117  12.764   6.076  13.075 -1.1173 -0.5396 -1.8623
27169SOL    HW299118  12.895   6.069  13.000 -0.5874 -0.8210 -0.9195
27170SOL     OW99119   0.560   5.175   8.486 -0.0224 -0.2152  0.5749
27170SOL    HW199120   0.548   5.268   8.468  1.4644  0.6441  3.4130
27170SOL    HW299121   0.515   5.160   8.569 -1.6377 -2.4932 -0.5909
27171SOL     OW99122   4.293   8.221   4.558  0.2179  0.5914 -0.1005
27171SOL    HW199123   4.323   8.173   4.635  1.0702  1.0034 -0.1718
27171SOL    HW299124   4.326   8.310   4.569  0.5202  0.6093 -1.0293
27172SOL     OW99125   1.093   0.938  14.058  0.0075  0.3334  0.2525
27172SOL    HW199126   1.158   1.003  14.084  0.7394 -0.8917  1.6988
27172SOL    HW299127   1.124   0.856  14.098 -0.8868 -0.9058 -1.4474
27173SOL     OW99128  10.349  13.206   5.315 -0.1319 -0.5458  0.1647
27173SOL    HW199129  10.417  13.215   5.249  0.0078 -0.5041  0.3141
27173SOL    HW299130  10.337  13.111   5.324 -1.1532 -0.5494 -0.9460
27174SOL     OW99131   2.178  10.759  12.918 -0.1518 -0.2642  0.2709
27174SOL    HW199132   2.124  10.835  12.897  1.1233  1.2740  2.1525
27174SOL    HW299133   2.235  10.748  12.842 -1.0728 -0.0215 -0.4675
27175SOL     OW99134   7.849  13.024   5.326  0.0042  0.0764 -0.8672
27175SOL    HW199135   7.878  13.067   5.246 -0.1866  0.9757 -0.4681
27175SOL    HW299136   7.818  13.096   5.382  0.1358 -0.5267  0.0081
27176SOL     OW99137   3.546  12.480   7.599  0.1156  0.5436  0.1047
27176SOL    HW199138   3.490  12.557   7.586 -0.1229  0.2691 -0.5136
27176SOL    HW299139   3.623  12.497   7.544 -0.7732 -0.4989 -1.5244
27177SOL     OW99140   1.311   0.225  13.779 -0.1265  0.2334  0.3224
27177SOL    HW199141   1.382   0.172  13.744 -0.9508 -0.0904 -0.9097
27177SOL    HW299142   1.239   0.214  13.717 -1.4809  0.0595  1.8506
27178SOL     OW99143   4.099   5.654   3.849  0.0080  0.2196  0.2050
27178SOL    HW199144   4.097   5.683   3.758  0.6974 -0.7968 -0.1572
27178SOL    HW299145   4.136   5.727   3.898 -1.5757  1.2845 -0.1009
27179SOL     OW99146   5.763   4.837  13.847  0.1697 -0.5725 -0.1179
27179SOL    HW199147   5.733   4.928  13.837 -0.2629 -0.6274  0.6071
27179SOL    HW299148   5.854   4.846  13.876 -0.7785 -0.2576  3.1329
27180SOL     OW99149  10.982  14.012   0.801  0.1331  0.0734 -0.1511
27180SOL    HW199150  10.934  13.983   0.724 -0.5128 -0.6675  0.5229
27180SOL    HW299151  11.018  13.933   0.840  2.3321  0.6422 -0.8860
27181SOL     OW99152  11.077   5.881   0.505 -0.1537 -0.0380  0.2146
27181SOL    HW199153  11.002   5.920   0.549 -0.4296 -0.0290 -0.2585
27181SOL    HW299154  11.092   5.936   0.429  1.2590  0.8294  1.0753
27182SOL     OW99155  10.654   9.345   7.691  0.3190  0.3090  0.5037
27182SOL    HW199156  10.698   9.428   7.707  0.0989  0.7686 -1.0397
27182SOL    HW299157  10.722   9.279   7.704  1.0403  0.8930 -0.2130
27183SOL     OW99158  10.657   1.828   7.125  0.1273  0.0448 -0.2075
27183SOL    HW199159  10.582   1.792   7.078  0.1845  0.5854 -0.7139
27183SOL    HW299160  10.732   1.777   7.093  0.5047  1.8249 -2.3602
27184SOL     OW99161   0.689   2.377   9.018  0.0712 -0.2497  0.1212
27184SOL    HW199162   0.732   2.462   9.020 -1.6186  0.6496  2.0999
27184SOL    HW299163   0.640   2.377   8.936  2.1377 -0.4838 -1.1896
27185SOL     OW99164   3.504   6.170  11.665 -0.0745  0.2553  0.3351
27185SOL    HW199165   3.557   6.096  11.694 -2.0440 -1.0336  0.7747
27185SOL    HW299166   3.443   6.133  11.602 -1.6571  1.3348  1.1751
27186SOL     OW99167   2.338  11.185   6.610 -0.1585 -0.5455  0.0037
27186SOL    HW199168   2.326  11.197   6.704  1.4787 -1.3546  0.3507
27186SOL    HW299169   2.305  11.097   6.592  2.5821 -1.8021  0.5244
27187SOL     OW99170  10.924   7.180   9.608 -0.1841 -0.2896  0.0012
27187SOL    HW199171  11.003   7.232   9.597 -0.6859  0.4704 -0.1416
27187SOL    HW299172  10.870   7.203   9.532 -0.4043 -1.0521 -0.0778
27188SOL     OW99173  11.742   5.031  10.480  0.0782 -0.0942  0.2971
27188SOL    HW199174  11.654   5.066  10.464  0.0848  0.2997  1.0585
27188SOL    HW299175  11.779   5.089  10.547  0.5821 -0.7873  0.6364
27189SOL     OW99176  13.648   4.998   2.564 -0.5363  0.4904  0.0524
27189SOL    HW199177  13.715   4.961   2.507 -1.9747 -4.1066  0.9218
27189SOL    HW299178  13.576   5.021   2.505  0.2745  1.7997 -0.4800
27190SOL     OW99179   5.287  12.841  11.657  0.4056  0.3156  0.3501
27190SOL    HW199180   5.349  12.771  11.634  0.1460  0.4858 -0.9021
27190SOL    HW299181   5.267  12.884  11.574  0.0257  1.4462  1.0103
27191SOL     OW99182   7.558   3.321  13.827 -0.1105  0.1225  0.0645
27191SOL    HW199183   7.494   3.386  13.796 -1.3126 -1.7065 -1.5091
27191SOL    HW299184   7.592   3.281  13.747 -0.0892 -1.8246  1.0098
27192SOL     OW99185   1.106  13.956   8.455  0.2294 -0.1353 -0.2004
27192SOL    HW199186   1.105  13.880   8.396 -0.8528 -1.3589  1.3081
27192SOL    HW299187   1.150  13.925   8.534 -0.5199  0.6838  0.5662
27193SOL     OW99188  10.008   3.109  11.486 -0.0700 -0.1332  0.5434
27193SOL    HW199189   9.938   3.047  11.471  0.3738 -0.9759  1.7747
27193SOL    HW299190   9.984   3.153  11.568  0.5102  0.0478  0.6225
27194SOL     OW99191   9.852   0.162   1.174 -0.6058 -0.1128  0.5637
27194SOL    HW199192   9.899   0.234   1.216  0.9369 -0.4266 -0.5229
27194SOL    HW299193   9.921   0.098   1.154 -1.6415 -0.9898 -0.3075
27195SOL     OW99194  11.445   0.364   3.502  0.2756  0.3762  0.2981
27195SOL    HW199195  11.464   0.334   3.591 -1.4879 -0.0270  0.5598
27195SOL    HW299196  11.491   0.302   3.445  1.6625  0.8137  0.9044
27196SOL     OW99197  10.278   0.077   7.509 -0.0197  0.2184 -0.2043
27196SOL    HW199198  10.198   0.128   7.507 -0.0790  0.1034 -1.3835
27196SOL    HW299199  10.330   0.116   7.579 -1.0769  0.3172  0.5483
27197SOL     OW99200   2.826   5.485   0.403  0.3340  0.2821  0.3036
27197SOL    HW199201   2.864   5.403   0.433  0.4889  0.1759 -0.1776
27197SOL    HW299202   2.868   5.502   0.319 -0.0351  0.6148  0.1823
27198SOL     OW99203   0.981   3.277   0.652  0.6772  0.3056  0.1619
27198SOL    HW199204   0.962   3.349   0.591 -2.5121 -0.9056 -0.4332
27198SOL    HW299205   1.048   3.226   0.607 -1.3026 -0.3339 -2.2958
27199SOL     OW99206   5.468   6.267   6.893 -0.1404  0.2558  0.4088
27199SOL    HW199207   5.460   6.173   6.882  0.9995  0.1174  0.6151
27199SOL    HW299208   5.527   6.295   6.823  0.2202  0.6759  0.8660
27200SOL     OW99209  11.106   6.082  13.269 -0.2328  0.0231 -0.3135
27200SOL    HW199210  11.068   6.168  13.286 -0.5717 -0.1570 -0.1677
27200SOL    HW299211  11.188   6.101  13.222  2.5002  0.7753  4.1653
27201SOL     OW99212   3.918   7.463  10.528 -0.4016 -0.6193  0.0638
27201SOL    HW199213   3.861   7.475  10.452  0.8601  1.1847 -0.6775
27201SOL    HW299214   3.940   7.370  10.528  1.4033 -0.3409 -3.2139
27202SOL     OW99215   6.999   4.963  10.796  0.3389 -0.2372 -0.2385
27202SOL    HW199216   6.955   4.969  10.711 -0.5449 -0.6098  0.1755
27202SOL    HW299217   6.950   4.895  10.843  0.6249  0.1807  0.6795
27203SOL     OW99218   7.531  11.370   7.417 -0.9272  0.0143  0.8882
27203SOL    HW199219   7.590  11.440   7.445 -1.0241 -0.3430  2.0250
27203SOL    HW299220   7.446  11.395   7.451 -0.8826 -0.8559  1.6848
27204SOL     OW99221   6.309   2.323  10.187  0.2874 -0.3156 -0.1018
27204SOL    HW199222   6.381   2.282  10.140  0.9969  0.1309  0.5797
27204SOL    HW299223   6.253   2.359  10.118 -0.2433 -2.1943 -0.7142
27205SOL     OW99224   6.539  12.048  12.176 -0.0990  0.1113 -0.3235
27205SOL    HW199225   6.457  12.077  12.134 -0.2392 -1.5383 -1.2992
27205SOL    HW299226   6.514  12.029  12.266 -0.7986 -0.2922 -0.5894
27206SOL     OW99227   6.043  12.011  10.756 -0.5663  0.7568 -0.2196
27206SOL    HW199228   6.021  12.024  10.848  1.8991  1.1859  0.3729
27206SOL    HW299229   6.062  12.098  10.723 -0.3383  0.4797 -0.8337
27207SOL     OW99230   7.775   0.247   2.465  0.8170 -0.0024 -0.3402
27207SOL    HW199231   7.779   0.164   2.511  1.3471  0.8650  1.2283
27207SOL    HW299232   7.690   0.244   2.419  1.1137 -1.6424 -0.8612
27208SOL     OW99233   7.912   6.904   1.007  0.8089 -0.3709  0.1286
27208SOL    HW199234   7.957   6.978   1.048  2.5033 -0.4301 -1.4774
27208SOL    HW299235   7.840   6.944   0.959  2.0294  0.3834 -1.1770
27209SOL     OW99236   0.552   0.615   4.030  0.3900 -0.0603  0.4296
27209SOL    HW199237   0.521   0.704   4.046  2.8407  0.9070  0.3199
27209SOL    HW299238   0.569   0.580   4.117 -1.3395 -0.7739  0.5157
27210SOL     OW99239   4.902   8.366  12.668  0.1021 -0.0211  0.4393
27210SOL    HW199240   4.820   8.323  12.693  0.8775 -0.5495  2.2155
27210SOL    HW299241   4.958   8.295  12.636 -0.4172  0.4679 -1.6832
27211SOL     OW99242   7.165   2.882   9.118 -0.2135 -0.4116 -0.1023
27211SOL    HW199243   7.119   2.916   9.195  0.4871  0.0486  0.1298
27211SOL    HW299244   7.245   2.934   9.113  0.9375 -2.0550  0.2913
27212SOL     OW99245  12.584   7.851   5.407 -0.5523 -0.0850 -0.0472
27212SOL    HW199246  12.636   7.828   5.483 -2.1226  0.3200  1.2101
27212SOL    HW299247  12.539   7.770   5.383 -0.9052  0.0414  0.1702
27213SOL     OW99248  10.072  13.936  12.545  0.4336 -0.3428  0.1416
27213SOL    HW199249  10.142  13.941  12.610  0.0630  1.1086  0.4666
27213SOL    HW299250  10.069  13.844  12.521  0.8493 -0.8571  1.8820
27214SOL     OW99251   0.660   9.673  14.076  0.2645  0.0368 -0.1022
27214SOL    HW199252   0.716   9.630  14.011  0.2816 -1.8419  1.0923
27214SOL    HW299253   0.649   9.762  14.042  2.1894 -0.1726 -1.4642
27215SOL     OW99254   1.778   6.700   1.225  0.1118  0.0548  0.1697
27215SOL    HW199255   1.838   6.773   1.214  1.0554 -0.6350  0.5352
27215SOL    HW299256   1.814   6.630   1.170 -0.6369 -0.2212  0.0098
27216SOL     OW99257   7.172  13.902   1.078 -0.2843 -0.7839 -0.2181
27216SOL    HW199258   7.185  13.856   1.161  0.6076 -0.0482  0.0555
27216SOL    HW299259   7.077  13.911   1.070 -0.3871 -1.1335  0.5594
27217SOL     OW99260   8.356   1.176  10.489 -0.3148  0.1827  0.1510
27217SOL    HW199261   8.416   1.170  10.415  0.2281  0.1512  0.5856
27217SOL    HW299262   8.330   1.268  10.491  0.0972  0.3028  0.2450
27218SOL     OW99263  11.018  12.913   6.220 -0.6987  0.0211 -0.4568
27218SOL    HW199264  11.002  12.916   6.125 -0.0802 -2.0649 -0.6785
27218SOL    HW299265  10.982  12.829   6.247 -2.0138  1.1196  1.4394
27219SOL     OW99266   8.502   2.729   6.298 -0.0704 -0.1791  0.2440
27219SOL    HW199267   8.578   2.766   6.252  0.0644 -0.6978  0.0434
27219SOL    HW299268   8.464   2.804   6.345 -0.1136  0.3293 -0.5783
27220SOL     OW99269   1.764   8.422   2.541 -0.0944 -0.0898 -0.1982
27220SOL    HW199270   1.708   8.499   2.545  0.4425  0.3610 -0.9225
27220SOL    HW299271   1.784   8.401   2.633 -3.2957 -1.7075  0.2450
27221SOL     OW99272  11.233   9.365   2.112 -0.7467 -0.2831  0.3949
27221SOL    HW199273  11.190   9.298   2.058 -0.5693 -0.4536  0.4666
27221SOL    HW299274  11.298   9.317   2.162  0.0917  0.0912 -0.3079
27222SOL     OW99275   9.898   3.200   7.591  0.6109  0.4717  0.1781
27222SOL    HW199276   9.848   3.147   7.529  0.0922  2.5505 -1.3053
27222SOL    HW299277   9.873   3.167   7.677 -0.0344 -1.3323 -0.6514
27223SOL     OW99278   0.464  12.767   9.487  0.5376  0.0101 -0.2024
27223SOL    HW199279   0.501  12.752   9.401  0.7205  1.2973 -0.3751
27223SOL    HW299280   0.482  12.859   9.505 -0.0907 -0.0633  0.9213
27224SOL     OW99281   5.528   4.685   4.403 -0.2434 -0.2163 -0.1545
27224SOL    HW199282   5.530   4.666   4.496 -0.4743 -0.0997 -0.1262
27224SOL    HW299283   5.485   4.609   4.363  0.5150 -0.6121 -0.2546
27225SOL     OW99284   5.746   3.269  11.255  0.0999 -1.1012 -0.0730
27225SOL    HW199285   5.726   3.280  11.162  0.0831  0.1528  0.0592
27225SOL    HW299286   5.701   3.189  11.280 -0.7017 -0.9442 -0.9306
27226SOL     OW99287   9.861  10.074  14.038  0.4542  0.1557 -0.3578
27226SOL    HW199288   9.800  10.114  14.101 -0.3095  0.8998 -1.5343
27226SOL    HW299289   9.910  10.010  14.090 -0.8606  0.0197  0.7696
27227SOL     OW99290   0.837   5.210   8.528 -0.6657 -0.1615 -0.3319
27227SOL    HW199291   0.858   5.303   8.525 -0.6857 -0.1270  0.6076
27227SOL    HW299292   0.744   5.206   8.509 -0.4780 -0.0766 -1.3524
27228SOL     OW99293   3.120   3.515  11.268  0.1845 -0.4944 -0.1557
27228SOL    HW199294   3.163   3.430  11.261  0.6575 -0.1906 -1.2155
27228SOL    HW299295   3.027   3.497  11.252  0.3044 -0.8006 -0.5196
27229SOL     OW99296   8.051  11.600  11.690  0.9778 -0.0437 -0.0773
27229SOL    HW199297   7.974  11.648  11.659  1.3867  2.2041  2.0841
27229SOL    HW299298   8.022  11.509  11.691 -0.5088  0.3005 -2.4806
27230SOL     OW99299  10.409   2.400   7.030 -0.6174  0.3565  0.1537
27230SOL    HW199300  10.364   2.460   6.969 -0.7660  2.8106  2.4825
27230SOL    HW299301  10.499   2.398   6.999 -1.0289  0.1642 -1.1090
27231SOL     OW99302  11.483  13.589   9.584  0.4311  0.4603  0.1519
27231SOL    HW199303  11.434  13.554   9.658 -0.9676  1.9955  0.0094
27231SOL    HW299304  11.566  13.619   9.622 -0.1832  1.0497  1.0772
27232SOL     OW99305   4.295  11.896   3.071  0.4228  0.2224 -0.1848
27232SOL    HW199306   4.206  11.893   3.107 -0.0468 -1.6148 -1.3445
27232SOL    HW299307   4.302  11.983   3.032 -0.3043  0.9421  1.2024
27233SOL     OW99308   8.685   5.533   0.979  0.0092  0.0307 -0.8391
27233SOL    HW199309   8.714   5.450   1.017 -0.8523  0.3274  0.5576
27233SOL    HW299310   8.734   5.600   1.027 -1.4833  0.4410  0.2148
27234SOL     OW99311   9.559   2.468   4.002  0.3110 -0.2889 -0.9053
27234SOL    HW199312   9.652   2.465   3.979  0.7355 -0.8419  0.7722
27234SOL    HW299313   9.521   2.529   3.938  1.8993  0.3165 -1.3241
27235SOL     OW99314   0.769   1.756  10.890  0.0957  0.3692  0.4435
27235SOL    HW199315   0.689   1.715  10.923 -0.6124  1.5664  0.2853
27235SOL    HW299316   0.767   1.845  10.927  2.5493 -0.2537  2.3920
27236SOL     OW99317   5.089   2.201   2.891  0.0340  0.4026  0.2930
27236SOL    HW199318   5.114   2.226   2.802 -0.6867 -1.9560 -0.6391
27236SOL    HW299319   4.994   2.191   2.888 -0.0289  0.4436  1.3964
27237SOL     OW99320  12.501   3.395   8.384  0.3430 -0.1484 -0.3615
27237SOL    HW199321  12.485   3.419   8.292  1.4451 -0.7259 -0.7264
27237SOL    HW299322  12.463   3.308   8.393  0.9070 -0.4202 -0.5065
27238SOL     OW99323   1.370   3.389   9.736 -0.0581 -0.0890  0.1151
27238SOL    HW199324   1.445   3.401   9.794  1.0604 -1.7015 -0.9260
27238SOL    HW299325   1.331   3.476   9.729  0.9251  0.5219  1.7191
27239SOL     OW99326   7.300   8.931   8.435  0.0284  0.2251 -0.3111
27239SOL    HW199327   7.264   8.853   8.393  0.7629 -0.2641 -0.0401
27239SOL    HW299328   7.289   9.001   8.370  0.4755 -0.3584 -1.0196
27240SOL     OW99329   5.812   3.735   7.109 -0.0703 -0.1842  0.1446
27240SOL    HW199330   5.899   3.750   7.146 -0.6260 -1.0128  1.8878
27240SOL    HW299331   5.772   3.670   7.167 -1.8321  0.1282 -0.6537
27241SOL     OW99332   6.216   5.433   0.566 -0.1444 -0.5734  0.7278
27241SOL    HW199333   6.303   5.463   0.538 -1.4450  1.6098 -1.4424
27241SOL    HW299334   6.218   5.338   0.553  1.9764 -0.6397  1.0720
27242SOL     OW99335   5.658  14.035  13.744 -0.3464 -0.5294 -0.1414
27242SOL    HW199336   5.671  13.956  13.692  0.1255 -0.4934 -0.0810
27242SOL    HW299337   5.671  14.007  13.834 -2.8028 -0.9684  0.1486
27243SOL     OW99338   8.527  11.690   2.387 -0.1520 -0.7253 -0.5387
27243SOL    HW199339   8.523  11.617   2.326 -0.1222 -0.6899 -0.5840
27243SOL    HW299340   8.526  11.768   2.331  0.5774 -0.6985 -0.5258
27244SOL     OW99341   2.439   6.569   0.760  0.3224 -0.7770  0.3241
27244SOL    HW199342   2.480   6.654   0.775  0.2330 -1.0359  2.3954
27244SOL    HW299343   2.512   6.507   0.755  0.5231 -0.4743 -2.9694
27245SOL     OW99344   1.292   9.163  10.692 -0.6429  0.3520  0.3071
27245SOL    HW199345   1.350   9.107  10.641  0.4611  0.1738  1.6992
27245SOL    HW299346   1.342   9.185  10.770 -1.5243  2.2772  0.3807
27246SOL     OW99347  11.644   1.461   6.662 -0.1308 -0.1447  0.3139
27246SOL    HW199348  11.654   1.516   6.585  1.8401  0.6148  1.0542
27246SOL    HW299349  11.551   1.438   6.663 -0.2380 -0.1243 -2.2181
27247SOL     OW99350   5.571   8.046   5.346  0.1814 -0.2806 -0.2934
27247SOL    HW199351   5.591   8.034   5.254 -0.7981  1.0679 -0.7122
27247SOL    HW299352   5.653   8.025   5.391  1.2490  0.8456 -1.6172
27248SOL     OW99353   7.310   6.149   8.986 -0.0908  0.1623  0.0997
27248SOL    HW199354   7.333   6.232   8.945  0.1732  0.9591  1.8160
27248SOL    HW299355   7.217   6.138   8.968 -0.1242  0.8203 -0.1487
27249SOL     OW99356   2.439   7.635   2.607  0.4243  0.0339  0.1857
27249SOL    HW199357   2.531   7.655   2.623  0.6237 -1.9807  2.0507
27249SOL    HW299358   2.397   7.720   2.593  2.4078  1.0421  0.1164
27250SOL     OW99359   5.774   9.304   5.690 -0.2750  0.2623  0.2064
27250SOL    HW199360   5.684   9.321   5.717 -0.5168 -2.7878  1.6657
27250SOL    HW299361   5.821   9.286   5.772  0.8968 -1.2943 -0.7541
27251SOL     OW99362  12.083   6.848   1.651  0.1150  0.3535 -0.5637
27251SOL    HW199363  11.997   6.879   1.682 -0.1524  0.1440 -1.0925
27251SOL    HW299364  12.114   6.918   1.594  0.0406  0.1764 -0.8226
27252SOL     OW99365   8.710  13.629   7.943  0.4907 -0.0108  0.3402
27252SOL    HW199366   8.788  13.673   7.911  0.0989 -0.1058 -0.7809
27252SOL    HW299367   8.744  13.553   7.992  1.1243  0.8609  1.2946
27253SOL     OW99368   9.676   0.203   4.451 -1.0262 -0.5577 -0.0369
27253SOL    HW199369   9.726   0.129   4.416  0.7113  0.3297  0.4803
27253SOL    HW299370   9.585   0.180   4.433 -0.5982 -3.0876  0.6340
27254SOL     OW99371   9.630   2.400   5.180 -0.1552  0.0840  0.6584
27254SOL    HW199372   9.553   2.392   5.125  0.7712  1.7267 -0.9765
27254SOL    HW299373   9.645   2.311   5.213 -0.5756 -1.0813 -2.0148
27255SOL     OW99374   1.132  10.281  10.636 -0.5240 -0.1563  0.2973
27255SOL    HW199375   1.143  10.345  10.565  1.6686 -1.0560 -0.2423
27255SOL    HW299376   1.039  10.258  10.632 -0.4213 -0.4647 -2.5683
27256SOL     OW99377   1.839   4.341   7.573 -0.6403 -0.1177  0.0455
27256SOL    HW199378   1.801   4.291   7.500 -1.1731 -0.0080  0.2397
27256SOL    HW299379   1.913   4.288   7.602 -0.5285 -0.2471 -0.4633
27257SOL     OW99380   9.026   9.955  11.475 -0.4594 -0.0836  0.3289
27257SOL    HW199381   8.986  10.021  11.419 -0.3740 -0.1739  0.1612
27257SOL    HW299382   8.960   9.887  11.483 -0.4967 -0.0399  0.3925
27258SOL     OW99383   5.434   2.264  12.894 -0.6755 -0.2207  0.3137
27258SOL    HW199384   5.488   2.337  12.863 -0.9330  0.1971  0.8284
27258SOL    HW299385   5.471   2.243  12.980 -1.1521 -0.1225  0.5425
27259SOL     OW99386   3.791   6.292  13.472 -0.0222 -0.4542  0.3166
27259SOL    HW199387   3.848   6.335  13.409 -0.2584  0.6304  0.8261
27259SOL    HW299388   3.714   6.265  13.421  1.2116 -2.6356 -0.5459
27260SOL     OW99389   8.801  10.639   4.447  0.0935  0.3517 -0.0888
27260SOL    HW199390   8.846  10.624   4.529  1.1268  1.4678 -0.4161
27260SOL    HW299391   8.742  10.712   4.465 -1.1450 -0.6873  0.1685
27261SOL     OW99392   2.261   1.347   5.581 -0.0520 -0.8565  0.5670
27261SOL    HW199393   2.229   1.317   5.496  1.8928  0.2385 -0.6384
27261SOL    HW299394   2.246   1.442   5.580  0.5388 -0.7503  1.1822
27262SOL     OW99395  10.552  10.050   4.114 -0.2075 -0.1051 -0.1386
27262SOL    HW199396  10.480  10.036   4.052  0.5146  2.2866 -1.6816
27262SOL    HW299397  10.560  10.146   4.120  1.5989 -0.2950  1.4733
27263SOL     OW99398  13.443  13.590   2.375 -0.2815 -0.4710 -0.3383
27263SOL    HW199399  13.467  13.649   2.304 -0.5401 -1.3170 -1.1503
27263SOL    HW299400  13.482  13.629   2.453 -1.9778  1.7537 -0.5106
27264SOL     OW99401  13.183   6.599   5.393  0.0756 -0.3410 -0.0445
27264SOL    HW199402  13.275   6.585   5.412  0.5205  1.6636 -0.5515
27264SOL    HW299403  13.141   6.517   5.419  2.0356 -1.4552 -0.2067
27265SOL     OW99404   1.060  12.004   3.072 -0.2139  0.2488 -0.6018
27265SOL    HW199405   1.028  12.090   3.099 -2.6560 -0.3290 -1.4462
27265SOL    HW299406   1.149  11.999   3.109  0.0488  3.1455 -0.6228
27266SOL     OW99407  10.884   9.259   5.424  0.2497 -0.6593 -0.4265
27266SOL    HW199408  10.941   9.268   5.500 -1.9064 -0.2507  1.2394
27266SOL    HW299409  10.896   9.341   5.376  1.2641 -0.7082 -0.2765
27267SOL     OW99410  13.093  10.326  12.070  0.2598 -0.4993  0.5027
27267SOL    HW199411  13.020  10.322  12.132  0.3108 -0.9938  0.5351
27267SOL    HW299412  13.169  10.299  12.121  0.4739  0.0540  0.4783
27268SOL     OW99413   7.571   1.664   1.147 -0.1274  0.4664  0.1076
27268SOL    HW199414   7.519   1.742   1.166  1.2361  1.5381 -0.3777
27268SOL    HW299415   7.583   1.623   1.233 -0.4801  1.0452  0.4461
27269SOL     OW99416   0.470   9.499   0.704  0.0566 -0.4028  0.8180
27269SOL    HW199417   0.535   9.502   0.774 -0.8619  0.3417  1.6709
27269SOL    HW299418   0.401   9.560   0.732  0.3220  1.0477 -1.3956
27270SOL     OW99419   3.901   9.455  10.879 -0.0592  0.6217 -0.2787
27270SOL    HW199420   3.937   9.486  10.962 -2.2723  1.1045  0.5688
27270SOL    HW299421   3.855   9.374  10.900  0.2733  0.1520 -1.2676
27271SOL     OW99422  12.748   5.038  11.807 -0.2431  0.2463 -0.0606
27271SOL    HW199423  12.737   5.053  11.713 -0.5163 -1.1641 -0.2784
27271SOL    HW299424  12.838   5.065  11.825  0.0781 -0.2099 -0.9061
27272SOL     OW99425  10.073   3.522   6.585 -0.3400  0.3054  0.2102
27272SOL    HW199426  10.120   3.465   6.646 -0.3708 -0.9749 -0.8963
27272SOL    HW299427  10.105   3.610   6.604  0.7089 -0.2452  1.0974
27273SOL     OW99428   1.807   3.966  13.505 -0.0227 -0.9453  0.3629
27273SOL    HW199429   1.718   3.993  13.485  0.8461  1.3039 -0.8361
27273SOL    HW299430   1.852   3.968  13.420  1.7695  0.5379  1.2866
27274SOL     OW99431   9.976  12.448   6.284 -0.0504 -0.8134  0.1974
27274SOL    HW199432   9.969  12.543   6.291  0.3050 -0.7062 -0.7763
27274SOL    HW299433   9.964  12.416   6.374  1.2225  0.2303  0.7720
27275SOL     OW99434   2.518   9.211   8.857 -0.0222 -0.2291  0.6799
27275SOL    HW199435   2.504   9.212   8.952  0.1849 -1.1126  0.7279
27275SOL    HW299436   2.613   9.218   8.847 -0.1412  2.1355  0.4482
27276SOL     OW99437   9.305   3.852  11.195  0.1467  0.1014 -0.8931
27276SOL    HW199438   9.277   3.787  11.130 -0.7797 -0.1393 -0.2654
27276SOL    HW299439   9.254   3.930  11.174 -0.1726  0.0140 -0.4298
27277SOL     OW99440   4.851   5.589   6.530 -0.2240 -0.7999 -0.5147
27277SOL    HW199441   4.947   5.581   6.530 -0.1890 -0.3952 -0.7990
27277SOL    HW299442   4.834   5.669   6.481 -0.7311 -1.1080 -0.8508
27278SOL     OW99443   4.057   3.394   7.977 -0.4006 -0.0994  0.2156
27278SOL    HW199444   4.135   3.417   8.029 -0.4816 -1.7846  1.1959
27278SOL    HW299445   4.086   3.320   7.924 -1.0483 -0.0619 -0.1899
27279SOL     OW99446   5.089   3.968   8.661  0.1116  0.0041 -0.1245
27279SOL    HW199447   5.119   3.951   8.750  1.0336 -0.4971 -0.5190
27279SOL    HW299448   5.099   3.884   8.616  1.1602  0.6406 -1.1224
27280SOL     OW99449   5.185   7.385   2.842  0.5288  0.1588  0.0477
27280SOL    HW199450   5.145   7.472   2.849  1.3216  0.5873 -0.4940
27280SOL    HW299451   5.277   7.399   2.865  0.4780 -0.7146  0.8361
27281SOL     OW99452   8.167  10.714   4.109 -0.3529 -0.4006 -0.1438
27281SOL    HW199453   8.184  10.720   4.203 -1.2008  2.1324 -0.0523
27281SOL    HW299454   8.082  10.671   4.102 -0.6549  0.1062  0.3280
27282SOL     OW99455  14.029  10.874   6.363 -0.0111 -0.2662  0.2925
27282SOL    HW199456  14.124  10.887   6.375  0.0290 -0.9008  0.7140
27282SOL    HW299457  14.023  10.806   6.296 -0.1562 -0.7100  0.7525
27283SOL     OW99458   4.107   6.837  10.914  0.2804 -0.0039  0.7118
27283SOL    HW199459   4.200   6.825  10.895  0.3622  0.1765  0.9909
27283SOL    HW299460   4.098   6.930  10.933 -0.0910  0.1227 -0.0239
27284SOL     OW99461   8.642   1.018   3.598  0.0235 -0.3173  0.0237
27284SOL    HW199462   8.670   0.927   3.595  1.0312 -0.0208  0.1486
27284SOL    HW299463   8.562   1.017   3.651 -0.5520 -1.2626 -0.8269
27285SOL     OW99464   7.335   8.295  11.464  0.0370 -0.1818 -0.4150
27285SOL    HW199465   7.349   8.371  11.408 -0.1123 -0.1993 -0.4774
27285SOL    HW299466   7.356   8.220  11.408  1.3088 -0.1549 -0.0107
27286SOL     OW99467   1.695   5.234   4.776  0.1800 -0.4524 -0.2458
27286SOL    HW199468   1.675   5.226   4.869 -1.0786 -1.3047 -0.5700
27286SOL    HW299469   1.767   5.172   4.761  0.2052 -0.5045  0.0965
27287SOL     OW99470   9.442   4.320  12.382  0.1086  0.2368 -0.4980
27287SOL    HW199471   9.409   4.374  12.453 -0.5834  0.2274 -0.7953
27287SOL    HW299472   9.507   4.374  12.338  1.0763 -0.0288  0.5748
27288SOL     OW99473  10.404   8.831  12.460  0.0142  0.4291 -0.1302
27288SOL    HW199474  10.371   8.780  12.386 -1.5168  0.4354  0.4996
27288SOL    HW299475  10.418   8.766  12.529 -0.0145  0.6137  0.0477
27289SOL     OW99476   6.329   0.886   8.833 -0.1008 -0.3764  0.0227
27289SOL    HW199477   6.248   0.851   8.795  0.4461 -2.6722  0.7856
27289SOL    HW299478   6.352   0.960   8.778 -2.0271 -0.4802 -0.9897
27290SOL     OW99479   1.756   7.057  13.097 -0.4830 -0.0595  0.5382
27290SOL    HW199480   1.775   7.103  13.179  0.7716  0.3096  0.0625
27290SOL    HW299481   1.795   7.113  13.029 -0.5817 -0.8892 -0.2147
27291SOL     OW99482   9.276  11.582   5.698 -0.4355  0.9545 -0.0451
27291SOL    HW199483   9.345  11.628   5.746 -0.4003  0.4408  0.4184
27291SOL    HW299484   9.255  11.506   5.754 -1.5665  1.2475 -0.0460
27292SOL     OW99485   6.536  13.445  12.063 -0.3355  0.3421  0.4888
27292SOL    HW199486   6.478  13.491  12.124 -0.6265 -0.0731  0.5320
27292SOL    HW299487   6.561  13.366  12.110 -0.2739  0.1952  0.2082
27293SOL     OW99488  10.588   9.452   4.327  0.1112 -0.2624 -0.5463
27293SOL    HW199489  10.570   9.492   4.412  0.4919  1.4891 -1.2494
27293SOL    HW299490  10.521   9.384   4.317  0.3375 -0.8042  1.3312
27294SOL     OW99491   9.028   0.281  11.114  0.1171  0.0328 -0.0421
27294SOL    HW199492   9.054   0.368  11.143  1.3120  1.1399 -3.8858
27294SOL    HW299493   8.943   0.294  11.072  0.5045 -0.5350 -1.0315
27295SOL     OW99494   4.733   2.569   1.293 -0.0397  0.4112  0.0258
27295SOL    HW199495   4.673   2.619   1.349 -0.4806 -1.8415  1.7264
27295SOL    HW299496   4.741   2.621   1.213 -3.5000  1.3454  0.1130
27296SOL     OW99497  11.768   8.772   8.633 -0.2227 -0.3407 -0.0576
27296SOL    HW199498  11.818   8.852   8.618 -1.4896  0.3252 -0.8385
27296SOL    HW299499  11.766   8.728   8.548 -0.9460 -0.3664 -0.0338
27297SOL     OW99500   7.959   2.590  10.790 -0.1271  0.1419  0.1388
27297SOL    HW199501   7.908   2.665  10.821  1.6173  1.6318 -0.4277
27297SOL    HW299502   7.949   2.593  10.694  1.3463  0.7386 -0.0172
27298SOL     OW99503   9.693  12.928   5.148 -0.3468  0.5703  0.3285
27298SOL    HW199504   9.751  12.958   5.218  2.7593  0.0679 -1.7975
27298SOL    HW299505   9.674  12.837   5.170 -0.5713  0.8101  1.1771
27299SOL     OW99506   3.254   9.483   8.628 -0.2297 -0.2661  0.7065
27299SOL    HW199507   3.202   9.531   8.692  0.1576  1.1049  0.0142
27299SOL    HW299508   3.293   9.550   8.572 -0.7628 -1.4077 -1.1440
27300SOL     OW99509   9.608   3.714  10.878  0.2238 -0.0025  0.3381
27300SOL    HW199510   9.652   3.636  10.912 -0.3902  0.2425  1.7976
27300SOL    HW299511   9.644   3.786  10.930 -1.2969  0.3048  1.0340
27301SOL     OW99512   6.422   0.371   1.901 -0.3344 -0.1685  0.2703
27301SOL    HW199513   6.436   0.286   1.942  1.0404  0.3336  0.8991
27301SOL    HW299514   6.493   0.426   1.933 -1.7687  1.5401  0.7179
27302SOL     OW99515   3.415   9.905   7.687  0.0644  0.1586  0.0559
27302SOL    HW199516   3.467   9.856   7.624  1.2857  0.9447  0.4215
27302SOL    HW299517   3.325   9.878   7.670  0.2477  0.9631 -2.5845
27303SOL     OW99518   7.051  11.900   3.126  0.1813  0.0080 -0.1915
27303SOL    HW199519   7.039  11.811   3.093  0.1515 -1.0563  2.4341
27303SOL    HW299520   6.979  11.913   3.187  1.2638  1.0926  0.9149
27304SOL     OW99521  13.136   1.983   8.931  0.2871 -0.0296 -0.7364
27304SOL    HW199522  13.056   1.983   8.878 -0.2109 -0.7088  0.0045
27304SOL    HW299523  13.138   1.897   8.972  1.9151 -0.3863 -1.4874
27305SOL     OW99524  13.597   7.754   6.430  0.0406  0.1426  0.3535
27305SOL    HW199525  13.578   7.671   6.385  1.7785 -0.1181  0.0515
27305SOL    HW299526  13.672   7.734   6.486 -0.8380  0.9955  1.8962
27306SOL     OW99527  11.553   5.885   4.951 -0.3319 -0.0083  0.4888
27306SOL    HW199528  11.462   5.906   4.931  0.7388  2.0664 -3.0932
27306SOL    HW299529  11.560   5.791   4.933 -1.5017  0.0306 -0.2672
27307SOL     OW99530   1.638   6.702   5.790  0.3504  0.1703 -0.4461
27307SOL    HW199531   1.645   6.797   5.796  0.2268  0.1617 -0.1669
27307SOL    HW299532   1.624   6.685   5.697  1.2658  0.3617 -0.6287
27308SOL     OW99533  11.623  12.494   4.807  0.2034  0.0083 -0.1555
27308SOL    HW199534  11.604  12.425   4.871  0.7114  0.1650  0.1729
27308SOL    HW299535  11.616  12.575   4.858  2.6446  0.0313  0.2330
27309SOL     OW99536   2.224  11.624   8.855 -0.3509 -0.4498 -0.0047
27309SOL    HW199537   2.312  11.629   8.819  0.4457 -2.6183  1.4288
27309SOL    HW299538   2.235  11.643   8.948 -1.6666  0.8025 -0.0745
27310SOL     OW99539  13.777   0.441  13.873 -0.0240  0.2146  0.3681
27310SOL    HW199540  13.747   0.355  13.902  1.4767 -0.0670  1.1505
27310SOL    HW299541  13.734   0.454  13.788  1.3684 -2.2551 -0.8022
27311SOL     OW99542   7.263   2.322   9.094  0.3101  0.1635  0.3207
27311SOL    HW199543   7.358   2.336   9.090  0.7931 -2.5894 -3.2624
27311SOL    HW299544   7.253   2.250   9.155  1.1214 -2.0180 -1.9419
27312SOL     OW99545  11.452   1.084   9.055  0.1066  0.5219  0.5220
27312SOL    HW199546  11.536   1.131   9.059  1.0832 -1.0664 -0.3889
27312SOL    HW299547  11.462   1.024   8.982 -1.3988 -0.5366  1.1493
27313SOL     OW99548   1.702   5.954  10.447  0.3061  0.1905  0.0269
27313SOL    HW199549   1.735   5.865  10.449 -0.8759 -0.2667 -0.1571
27313SOL    HW299550   1.781   6.009  10.441  0.9923 -0.9154 -1.8904
27314SOL     OW99551   5.806   0.117   2.527  1.0283 -0.3102 -0.0929
27314SOL    HW199552   5.745   0.146   2.459  0.3457  1.0184  1.0421
27314SOL    HW299553   5.754   0.060   2.583  1.2113 -0.3116  0.0775
27315SOL     OW99554   6.654   1.690   8.632 -0.0640  0.1535 -0.3003
27315SOL    HW199555   6.565   1.665   8.659 -0.0909  0.2321 -0.3152
27315SOL    HW299556   6.710   1.621   8.668  0.0151  0.7839  0.8642
27316SOL     OW99557   9.050  12.229   4.273  0.6496  0.4905  0.1796
27316SOL    HW199558   9.103  12.198   4.199 -0.7328  1.1756 -1.1801
27316SOL    HW299559   8.966  12.254   4.233 -0.5810 -0.2075  2.1721
27317SOL     OW99560   6.136   0.969   0.388 -0.0368 -0.0092 -0.4457
27317SOL    HW199561   6.231   0.978   0.379  0.1494  0.0472  1.1917
27317SOL    HW299562   6.123   0.883   0.426 -0.2636  1.4565  3.2144
27318SOL     OW99563   4.143   7.582  14.067  0.1104 -0.4752  0.2519
27318SOL    HW199564   4.104   7.564  13.981  1.2719  0.1904 -0.4429
27318SOL    HW299565   4.202   7.656  14.052 -0.8764  0.7587  1.9857
27319SOL     OW99566   7.633  12.286   3.498  0.5725 -0.7361 -0.3625
27319SOL    HW199567   7.685  12.239   3.563 -1.2585 -2.6358 -0.2017
27319SOL    HW299568   7.543  12.281   3.529  0.1962  2.9075 -0.3772
27320SOL     OW99569   8.816   8.917   1.467 -0.0870 -0.0695  0.1405
27320SOL    HW199570   8.727   8.885   1.451 -0.0574  0.2245 -0.6402
27320SOL    HW299571   8.873   8.851   1.428 -0.0203  0.7802 -1.2718
27321SOL     OW99572   7.550   4.799   8.754  0.2933  0.2003  0.2654
27321SOL    HW199573   7.499   4.851   8.816 -1.3877 -2.2109  1.0427
27321SOL    HW299574   7.533   4.840   8.669 -2.0209  0.2360  0.6770
27322SOL     OW99575   6.079   2.208   5.024 -0.0781  0.0845 -0.2709
27322SOL    HW199576   6.131   2.158   4.961  0.5930 -1.8848  1.7094
27322SOL    HW299577   6.021   2.261   4.970 -0.3890 -2.3740 -2.5957
27323SOL     OW99578  12.738   7.849  12.896  0.2414 -0.5985  0.4983
27323SOL    HW199579  12.763   7.909  12.966  0.7426 -1.5528  1.1669
27323SOL    HW299580  12.784   7.767  12.917  0.0847 -1.0222 -0.7328
27324SOL     OW99581   2.228   9.321   9.572  0.6688 -0.9526 -0.1673
27324SOL    HW199582   2.230   9.305   9.667  1.2607  0.2302  0.0432
27324SOL    HW299583   2.238   9.416   9.564 -1.5925 -0.7258 -1.3467
27325SOL     OW99584   2.384   8.574   1.557 -0.8188  0.1498  0.4958
27325SOL    HW199585   2.308   8.540   1.508  0.0665  1.3704 -1.8690
27325SOL    HW299586   2.421   8.496   1.599 -0.7010 -1.3663 -2.1646
27326SOL     OW99587  11.677   9.451  12.294  0.4138  0.3235  0.2731
27326SOL    HW199588  11.743   9.502  12.341  0.2276 -1.3611  2.5293
27326SOL    HW299589  11.595   9.468  12.341  0.5318 -2.7659  1.8732
27327SOL     OW99590   3.390  12.581  10.069 -0.3329 -0.9178  0.6755
27327SOL    HW199591   3.453  12.534  10.124 -1.6915 -2.3178  1.1100
27327SOL    HW299592   3.354  12.648  10.126 -0.8538 -1.5856  1.1528
27328SOL     OW99593  11.359   8.524   5.356  0.2072  0.4363 -0.4132
27328SOL    HW199594  11.338   8.434   5.380  2.3012  0.2474  0.8747
27328SOL    HW299595  11.327   8.577   5.429  1.6746  0.4057  0.2827
27329SOL     OW99596   2.394   7.891   9.357  0.0262 -0.5610  0.4621
27329SOL    HW199597   2.303   7.870   9.381 -0.2016 -0.3065 -0.1586
27329SOL    HW299598   2.437   7.806   9.349 -0.2058 -0.6904  0.5821
27330SOL     OW99599   1.999   6.297   7.270  0.6693  0.1327 -0.4389
27330SOL    HW199600   2.043   6.268   7.190  1.9994 -0.9600  0.6362
27330SOL    HW299601   2.071   6.322   7.329 -0.2457  0.3913  0.5936
27331SOL     OW99602  11.755   2.561  11.986 -0.4212  0.0234  0.4292
27331SOL    HW199603  11.814   2.490  11.962  2.4664  2.4041 -0.0509
27331SOL    HW299604  11.785   2.636  11.935 -2.0874  2.0915  2.2764
27332SOL     OW99605   5.114  13.307  13.670  0.2733 -0.4453 -0.4178
27332SOL    HW199606   5.178  13.237  13.684  0.4520 -0.3168 -0.5888
27332SOL    HW299607   5.032  13.260  13.650  0.1644 -0.6157  0.4207
27333SOL     OW99608   4.839   9.344   6.631 -0.0971  0.4661  0.1528
27333SOL    HW199609   4.906   9.387   6.577  0.6901  1.0899  1.5863
27333SOL    HW299610   4.885   9.316   6.709 -1.0643 -1.1210  0.1996
27334SOL     OW99611   6.428   9.628   8.090  0.4772  0.3992  0.1140
27334SOL    HW199612   6.347   9.675   8.070 -0.4400 -0.8892  0.6672
27334SOL    HW299613   6.478   9.630   8.009 -0.7247  0.0509 -0.6646
27335SOL     OW99614   8.141  13.119   7.215 -0.2471 -0.1077  0.1120
27335SOL    HW199615   8.160  13.048   7.153  0.0773  0.0503  0.0298
27335SOL    HW299616   8.180  13.090   7.297  0.3679  0.2232 -0.0609
27336SOL     OW99617   1.410  10.973   8.690 -0.4629  0.3669 -0.1694
27336SOL    HW199618   1.394  10.903   8.627 -2.4711  0.7226 -0.1385
27336SOL    HW299619   1.505  10.980   8.695 -0.1904  0.2461 -3.0948
27337SOL     OW99620  11.875   3.222   6.711  0.0593 -0.2196  0.1034
27337SOL    HW199621  11.831   3.137   6.710  1.3103 -0.9527  1.7355
27337SOL    HW299622  11.951   3.208   6.768 -1.4678  2.8161  3.2842
27338SOL     OW99623   0.520   3.688   1.682  0.0020 -0.2755 -0.3281
27338SOL    HW199624   0.502   3.678   1.589  0.6742  0.9309 -0.6056
27338SOL    HW299625   0.488   3.607   1.722 -0.6992 -0.6066 -1.5406
27339SOL     OW99626   1.822   9.517  11.282  0.4570 -0.1199 -0.0856
27339SOL    HW199627   1.792   9.553  11.365  0.7165 -0.4947  0.1759
27339SOL    HW299628   1.862   9.591  11.237  1.2415 -0.1319  0.5690
27340SOL     OW99629  11.652   3.988  11.990 -0.3793 -0.0391  0.0881
27340SOL    HW199630  11.634   4.079  11.967 -0.1466  0.1688  0.7006
27340SOL    HW299631  11.657   3.988  12.086 -1.3346 -0.8744  0.1570
27341SOL     OW99632   6.291  11.072  10.413 -0.1889 -0.2147  0.3426
27341SOL    HW199633   6.339  11.151  10.390  0.2659 -0.5666  0.0593
27341SOL    HW299634   6.199  11.094  10.399 -0.0668  0.2814  0.3256
27342SOL     OW99635   6.680   5.682  13.685  0.0062  0.1295 -0.2646
27342SOL    HW199636   6.725   5.735  13.618  0.2279  1.0468  0.5818
27342SOL    HW299637   6.657   5.601  13.640  0.5206  0.5580 -1.3397
27343SOL     OW99638   9.317   4.052   9.924  0.2371  0.0306  0.3385
27343SOL    HW199639   9.356   4.097   9.999  0.5936  0.7138 -0.2433
27343SOL    HW299640   9.388   4.000   9.887  0.1630 -0.0053  0.2464
27344SOL     OW99641  13.175  10.868   7.834  0.0437 -0.2912 -0.3706
27344SOL    HW199642  13.104  10.829   7.886 -0.3058 -0.6149 -1.0878
27344SOL    HW299643  13.130  10.917   7.765  0.5140  0.0025 -0.4770
27345SOL     OW99644   9.355   8.720   2.204  0.3801 -0.1066  0.1920
27345SOL    HW199645   9.332   8.628   2.189  0.3256 -0.0684  0.0377
27345SOL    HW299646   9.449   8.724   2.186 -0.0792  0.4028 -2.4775
27346SOL     OW99647   6.684   8.115   2.366 -0.0690 -0.3742  0.1605
27346SOL    HW199648   6.670   8.073   2.451  0.0979 -1.8633 -0.5110
27346SOL    HW299649   6.776   8.095   2.345  0.2862  1.1039  0.2078
27347SOL     OW99650   8.397   2.500   7.832 -0.5268 -0.1912  0.3417
27347SOL    HW199651   8.367   2.529   7.746 -0.4187 -2.3061 -0.4903
27347SOL    HW299652   8.491   2.484   7.820 -0.5257 -0.5537  0.8251
27348SOL     OW99653  12.838   2.598   1.065  0.6677 -0.0068  0.4055
27348SOL    HW199654  12.778   2.670   1.045 -0.1771 -0.8511 -0.1861
27348SOL    HW299655  12.916   2.641   1.100  0.2967  1.2162 -0.2156
27349SOL     OW99656   6.121   5.473   3.135  0.2858  0.6080 -0.2955
27349SOL    HW199657   6.077   5.420   3.202 -0.8630  2.0019  0.0973
27349SOL    HW299658   6.115   5.420   3.056 -0.6537  0.0484  0.1284
27350SOL     OW99659   3.713   8.762   0.483 -0.3036 -0.4873  0.0556
27350SOL    HW199660   3.768   8.742   0.559  0.1883 -0.0941 -0.1861
27350SOL    HW299661   3.776   8.780   0.413 -0.7377  0.1400 -0.1824
27351SOL     OW99662   3.687  10.010  13.067 -0.3497  0.1771 -0.0850
27351SOL    HW199663   3.685  10.043  12.977 -1.0036  0.8214  0.1565
27351SOL    HW299664   3.595   9.992  13.088 -0.1028 -0.9464  0.1094
27352SOL     OW99665   0.020   1.131   8.777  0.1156 -0.1708  0.1356
27352SOL    HW199666   0.008   1.226   8.770 -1.5054 -0.3998 -0.8121
27352SOL    HW299667   0.104   1.120   8.821  0.3104  1.7024  0.3010
27353SOL     OW99668   3.425  12.319  13.689  0.2444  0.3142  0.2730
27353SOL    HW199669   3.441  12.283  13.602 -0.5585 -2.6622  1.2524
27353SOL    HW299670   3.345  12.372  13.678  0.4219  0.3739 -0.8661
27354SOL     OW99671   1.853   8.289  13.553 -0.1909  0.1398  0.1520
27354SOL    HW199672   1.865   8.228  13.627 -1.2127  1.7045  1.6727
27354SOL    HW299673   1.926   8.269  13.495  1.7777  0.0781  2.4702
27355SOL     OW99674   8.674   1.460   5.606  0.0257  0.3253 -0.5415
27355SOL    HW199675   8.610   1.459   5.535  1.3285 -1.4936 -1.7771
27355SOL    HW299676   8.666   1.548   5.644 -0.3325  1.5803 -3.2804
27356SOL     OW99677   2.120   1.233   4.878 -0.1419 -0.7223 -0.1889
27356SOL    HW199678   2.130   1.327   4.891 -0.1492 -0.6523 -0.6722
27356SOL    HW299679   2.140   1.219   4.785  0.3479 -1.2662 -0.0118
27357SOL     OW99680   1.749   7.351  13.444  0.3765 -0.4008  0.3007
27357SOL    HW199681   1.802   7.278  13.412  0.0208 -0.5240 -0.0140
27357SOL    HW299682   1.805   7.428  13.430  0.0372 -0.3752 -1.1514
27358SOL     OW99683   5.115   2.361   9.006 -0.1084  0.0675 -0.0256
27358SOL    HW199684   5.157   2.302   9.068  0.4261  0.7292  0.2511
27358SOL    HW299685   5.169   2.357   8.928 -0.1955  0.0271 -0.0843
27359SOL     OW99686  13.357   5.235   0.049  0.1221 -0.7149 -0.0084
27359SOL    HW199687  13.443   5.220   0.089 -0.2420  2.3390  2.3106
27359SOL    HW299688  13.297   5.185   0.104  0.0056  0.7878  1.3151
27360SOL     OW99689   4.803   9.358   9.495 -0.3419 -0.0577 -1.0865
27360SOL    HW199690   4.780   9.448   9.473 -1.2905 -0.0865 -0.2733
27360SOL    HW299691   4.725   9.323   9.538  0.6786 -0.6565  0.3576
27361SOL     OW99692   7.767   5.420   0.857 -0.1603  0.7419  0.8673
27361SOL    HW199693   7.720   5.425   0.941  0.2861  1.2533  1.0887
27361SOL    HW299694   7.764   5.510   0.823 -0.4244  0.5150  0.2873
27362SOL     OW99695  11.964  12.994   2.683  0.0444  0.4984  0.0028
27362SOL    HW199696  11.979  13.033   2.770 -0.2770  0.7501 -0.0496
27362SOL    HW299697  11.908  12.919   2.700  0.3590  0.2773  0.0631
27363SOL     OW99698   0.880  11.453   3.828 -0.7893 -0.5570  0.5611
27363SOL    HW199699   0.876  11.394   3.904  0.4002  1.4177  2.2524
27363SOL    HW299700   0.845  11.536   3.861  0.5280  0.5828 -0.7897
27364SOL     OW99701   2.295   1.566   8.228  0.1374  0.1499 -0.2288
27364SOL    HW199702   2.315   1.538   8.317 -3.2245 -1.6498  0.1205
27364SOL    HW299703   2.280   1.661   8.236  1.2177  0.2565  0.8070
27365SOL     OW99704   2.512   5.437   1.576 -0.7070  0.3772  0.0612
27365SOL    HW199705   2.531   5.401   1.663 -0.3471 -2.4914 -1.0839
27365SOL    HW299706   2.419   5.460   1.580 -2.1425 -4.3144 -0.0457
27366SOL     OW99707  10.424  13.968  13.726  0.0414  0.2173 -0.0345
27366SOL    HW199708  10.329  13.975  13.717 -0.0724 -1.1330 -0.0868
27366SOL    HW299709  10.439  13.876  13.745  1.4479  0.1237 -1.4016
27367SOL     OW99710   3.466   8.409   3.573  0.5603 -0.3381 -0.2321
27367SOL    HW199711   3.459   8.481   3.511  0.3866 -0.4676 -0.3641
27367SOL    HW299712   3.560   8.388   3.573  0.7133  0.3279  0.3213
27368SOL     OW99713   8.238   1.825   1.042 -0.2118  0.0924  0.4126
27368SOL    HW199714   8.287   1.818   0.959 -1.6556  1.4233 -0.6050
27368SOL    HW299715   8.294   1.782   1.106  0.3451 -2.2507 -1.4943
27369SOL     OW99716   5.195   7.729  13.376  0.1600  0.3160 -0.2602
27369SOL    HW199717   5.149   7.812  13.364 -1.5469 -0.5493  0.0453
27369SOL    HW299718   5.227   7.707  13.289  0.0790  0.9723 -0.4652
27370SOL     OW99719   9.794   3.740   1.001 -0.4982 -0.2967  0.4201
27370SOL    HW199720   9.847   3.678   0.950 -1.0963  0.8463 -1.6649
27370SOL    HW299721   9.740   3.684   1.057  0.9540 -1.5598  0.6440
27371SOL     OW99722  10.404   5.036   7.150  0.0763  0.0194 -0.3874
27371SOL    HW199723  10.384   5.130   7.158  0.2061 -0.0850  2.3112
27371SOL    HW299724  10.441   5.026   7.063 -0.8041  2.3139 -1.0935
27372SOL     OW99725  11.481   0.022   5.428  0.3296 -0.0061 -0.3252
27372SOL    HW199726  11.410   0.033   5.491  0.5784 -1.7883  0.3170
27372SOL    HW299727  11.511  -0.068   5.441  2.5845  0.6263 -0.6961
27373SOL     OW99728   1.074   8.156   4.605  0.3060  0.1405  0.3239
27373SOL    HW199729   1.102   8.226   4.546  0.8238 -1.0513 -0.8964
27373SOL    HW299730   1.067   8.079   4.549 -0.0255 -0.8441  1.6724
27374SOL     OW99731  12.578  11.945   4.387  0.0513 -0.3329  0.0311
27374SOL    HW199732  12.531  11.914   4.464 -2.5863 -0.9151 -1.6724
27374SOL    HW299733  12.580  11.869   4.328  0.4533  0.5611 -1.1443
27375SOL     OW99734   7.817   8.918   3.613 -0.2083 -0.5417 -0.2618
27375SOL    HW199735   7.878   8.950   3.680  0.0168 -0.5638 -0.4541
27375SOL    HW299736   7.735   8.902   3.660 -1.0876  2.5449 -0.5243
27376SOL     OW99737   7.236  12.453   5.893 -0.4346 -0.2311 -0.1755
27376SOL    HW199738   7.146  12.441   5.924 -0.0480  0.1745  1.1641
27376SOL    HW299739   7.246  12.547   5.882 -0.2426 -0.2936 -0.5495
27377SOL     OW99740  10.107  13.673   5.627  0.2568  0.0989 -0.1877
27377SOL    HW199741  10.109  13.577   5.629 -0.6915  0.0390 -1.4399
27377SOL    HW299742  10.113  13.698   5.720  2.4539 -1.0811  0.0688
27378SOL     OW99743   3.034  11.829   5.701  0.0356 -0.0973  0.2895
27378SOL    HW199744   3.017  11.917   5.667  1.4148 -0.4669 -1.5811
27378SOL    HW299745   2.988  11.770   5.640 -0.8505 -0.7097  1.5003
27379SOL     OW99746   0.928  13.542   6.016  0.2455 -0.5230  0.7484
27379SOL    HW199747   0.856  13.547   5.953  0.0091 -2.9972  0.7124
27379SOL    HW299748   0.904  13.469   6.073  1.4279  0.3734  2.4706
27380SOL     OW99749  10.344   0.062   3.711 -0.1526  0.0605  0.0885
27380SOL    HW199750  10.422   0.101   3.750  0.5345 -0.7972 -0.4100
27380SOL    HW299751  10.309   0.130   3.653  1.4448 -0.2782 -1.3470
27381SOL     OW99752   6.619   4.776   4.280  0.1099 -0.5428 -0.1416
27381SOL    HW199753   6.610   4.749   4.371  2.0900 -1.4522 -0.1533
27381SOL    HW299754   6.533   4.809   4.256 -0.1879  0.7602  2.3778
27382SOL     OW99755   9.642  10.718  11.590 -0.0471 -0.3726  0.7463
27382SOL    HW199756   9.716  10.753  11.540 -0.8791 -1.0996 -1.1280
27382SOL    HW299757   9.589  10.794  11.611 -0.2215 -0.1167 -0.4989
27383SOL     OW99758  12.868  12.602  13.356 -0.2369 -0.1609 -0.4314
27383SOL    HW199759  12.776  12.586  13.337 -0.7747  0.6080  1.3424
27383SOL    HW299760  12.882  12.694  13.335 -0.1981  0.0412  0.4539
27384SOL     OW99761  10.483  14.050   8.752  1.1094 -0.0584  0.6028
27384SOL    HW199762  10.570  14.072   8.785  1.3099 -0.2779  0.2299
27384SOL    HW299763  10.484  14.075   8.660  1.3901 -1.6752  0.1236
27385SOL     OW99764   1.981   5.469  11.052  0.2160  0.1965  0.2838
27385SOL    HW199765   2.027   5.407  11.109  2.5468  0.6001 -1.0418
27385SOL    HW299766   2.026   5.552  11.066  0.2945  0.4900 -1.4816
27386SOL     OW99767  10.726  12.167   0.699 -0.3046 -0.3491  0.3475
27386SOL    HW199768  10.818  12.180   0.678 -0.4743  0.9832  0.3784
27386SOL    HW299769  10.690  12.255   0.709 -1.7564 -0.8168 -0.4034
27387SOL     OW99770   4.445   2.649   3.850  0.2658  0.2031 -0.0290
27387SOL    HW199771   4.358   2.688   3.849  1.7735  3.9167 -0.3847
27387SOL    HW299772   4.497   2.705   3.793  2.6533 -2.7141 -0.9686
27388SOL     OW99773  11.343  10.427   5.499 -0.3908 -0.2319  0.0882
27388SOL    HW199774  11.295  10.416   5.417 -0.7526  0.4196  0.2081
27388SOL    HW299775  11.422  10.375   5.487 -1.0973 -1.2923 -0.1230
27389SOL     OW99776   2.233   1.169   3.113 -0.1376 -0.2937 -0.0061
27389SOL    HW199777   2.164   1.123   3.064 -0.4884  1.0795 -0.8790
27389SOL    HW299778   2.259   1.241   3.055  1.3816 -0.2264  0.7155
27390SOL     OW99779   0.574   5.275   7.723  0.1729  0.3076  0.0302
27390SOL    HW199780   0.627   5.351   7.697 -1.2356  1.0340 -0.8385
27390SOL    HW299781   0.498   5.313   7.768 -0.3145 -0.6189  0.0111
27391SOL     OW99782   6.192   4.659   3.299  0.1619  0.3074 -0.4962
27391SOL    HW199783   6.241   4.649   3.218  0.8639 -1.0956  0.0778
27391SOL    HW299784   6.115   4.603   3.288  1.1972 -1.3799  0.4967
27392SOL     OW99785  10.736   0.853   7.282 -0.2205  0.4970  0.4954
27392SOL    HW199786  10.774   0.921   7.226  0.4127 -0.4431 -0.2683
27392SOL    HW299787  10.811   0.799   7.307 -1.0280 -1.6729 -1.4166
27393SOL     OW99788   6.654   3.533  11.858  0.5045 -0.4908 -0.2397
27393SOL    HW199789   6.726   3.532  11.920  0.6661 -0.3411 -0.4247
27393SOL    HW299790   6.577   3.512  11.910  0.5002  0.5075  0.1814
27394SOL     OW99791   1.221   5.652   7.044  0.2220 -0.3461 -0.0551
27394SOL    HW199792   1.278   5.612   7.110  0.7152 -2.0940 -1.4399
27394SOL    HW299793   1.275   5.656   6.965 -1.7245 -2.9088 -1.6842
27395SOL     OW99794   0.756   2.726   9.479 -0.2610 -0.4100 -0.1110
27395SOL    HW199795   0.712   2.810   9.487 -0.9016 -0.6585 -0.8806
27395SOL    HW299796   0.696   2.672   9.427  1.1754 -0.5954 -1.6811
27396SOL     OW99797   8.987  13.156   1.909 -0.4220 -0.3275  0.1434
27396SOL    HW199798   8.905  13.154   1.858 -1.5612  1.9557  1.7207
27396SOL    HW299799   8.959  13.173   1.999  1.7141 -1.6316  1.1272
27397SOL     OW99800   3.595   6.072   9.540 -0.1944  0.5495  0.3441
27397SOL    HW199801   3.621   6.127   9.613  1.3449  1.0076 -0.5032
27397SOL    HW299802   3.556   5.994   9.580  0.2052  0.9961  1.6240
27398SOL     OW99803  13.719   7.002   1.179  0.3052 -0.0526  0.0452
27398SOL    HW199804  13.765   7.003   1.095  1.3817  0.2980  0.6188
27398SOL    HW299805  13.723   6.910   1.207  0.5901 -0.0399  0.0505
27399SOL     OW99806  10.000   7.007   9.787  0.0844  0.3366  0.1541
27399SOL    HW199807   9.957   7.084   9.825  0.4668  0.9157 -0.5719
27399SOL    HW299808   9.967   7.002   9.698 -0.0637 -0.4494  0.2413
27400SOL     OW99809  11.285  11.491   7.697  0.3617  0.1675 -0.1041
27400SOL    HW199810  11.251  11.466   7.611 -0.1546 -0.4229  0.2593
27400SOL    HW299811  11.358  11.431   7.712  0.6477  0.4751 -0.2599
27401SOL     OW99812   7.916   3.198   0.373  0.6948  0.2680 -0.0344
27401SOL    HW199813   8.003   3.159   0.384  0.9445  0.9656  0.4926
27401SOL    HW299814   7.894   3.234   0.460 -0.2477 -0.1612 -0.0793
27402SOL     OW99815   0.420   3.646   1.149 -0.7484  0.3059  0.3882
27402SOL    HW199816   0.453   3.651   1.239 -1.8346 -1.1345  0.9028
27402SOL    HW299817   0.328   3.671   1.156 -0.9662 -0.2919 -0.2431
27403SOL     OW99818   3.253   5.817  11.552 -0.3540  0.3049 -0.4128
27403SOL    HW199819   3.332   5.832  11.603  0.0822 -0.2057 -0.9326
27403SOL    HW299820   3.210   5.743  11.594 -0.4717  0.4717 -0.2360
27404SOL     OW99821   4.860   5.918  13.049  0.0671  0.2001 -0.4273
27404SOL    HW199822   4.940   5.922  12.997  1.1335  0.7640  1.1778
27404SOL    HW299823   4.803   5.986  13.012  1.0809  1.0743 -0.4129
27405SOL     OW99824   2.514   5.892   1.498 -0.2425  0.2924  0.3339
27405SOL    HW199825   2.440   5.881   1.439 -0.0654 -0.2848  0.2077
27405SOL    HW299826   2.591   5.882   1.442 -0.0517 -1.7681  0.8659
27406SOL     OW99827   7.361   5.400   2.358 -0.0790  0.6985  0.2005
27406SOL    HW199828   7.269   5.376   2.373  0.1209  1.6389  3.6919
27406SOL    HW299829   7.364   5.493   2.377  1.7786  0.4725  1.1441
27407SOL     OW99830   3.522   5.649  12.394  0.8440 -0.3089 -0.0110
27407SOL    HW199831   3.513   5.665  12.300  1.0611  2.2477  0.3508
27407SOL    HW299832   3.580   5.573  12.400  0.9696 -0.4118 -1.9174
27408SOL     OW99833   1.911   8.319   8.112 -0.4085 -0.1293 -0.3559
27408SOL    HW199834   1.948   8.387   8.168  0.1302 -0.9395  0.2926
27408SOL    HW299835   1.988   8.278   8.071 -0.7319 -0.3404 -0.7568
27409SOL     OW99836   0.440  10.946   0.420 -0.2883  0.5317 -0.3099
27409SOL    HW199837   0.400  10.870   0.377 -0.1171 -2.1121  3.7575
27409SOL    HW299838   0.526  10.916   0.447  1.0971  3.3118 -1.1994
27410SOL     OW99839   3.467   0.231   5.302 -0.3062  0.3492  0.3666
27410SOL    HW199840   3.413   0.308   5.284 -0.7694 -0.1695 -0.5728
27410SOL    HW299841   3.550   0.266   5.333  0.2218  1.3463 -1.9424
27411SOL     OW99842   4.657  13.014  12.707  0.2605 -0.1634 -0.0921
27411SOL    HW199843   4.631  12.953  12.639  1.0457 -1.5076  0.7495
27411SOL    HW299844   4.734  12.973  12.748  0.4010  1.0612  0.9589
27412SOL     OW99845   4.552   2.598   1.894  0.3116  0.0341  0.0107
27412SOL    HW199846   4.594   2.516   1.868  1.1197  0.0197  1.2773
27412SOL    HW299847   4.460   2.587   1.870  0.4166 -1.2168  0.1003
27413SOL     OW99848   6.680   3.927   1.769  0.1306  0.4571 -0.0341
27413SOL    HW199849   6.758   3.953   1.721  0.7118 -1.5878 -0.3228
27413SOL    HW299850   6.711   3.904   1.856 -0.5345  1.7925  0.5791
27414SOL     OW99851  10.693   1.693   3.575  0.4952 -0.2070 -0.5657
27414SOL    HW199852  10.785   1.708   3.597  0.4397 -0.9514  0.2330
27414SOL    HW299853  10.684   1.597   3.576 -0.5793 -0.1208  0.6487
27415SOL     OW99854   2.807   9.878  12.843  0.0115 -0.5454  0.2272
27415SOL    HW199855   2.761   9.795  12.832  0.2583 -0.4577 -1.8514
27415SOL    HW299856   2.741   9.945  12.824  0.4460 -0.3679 -0.7468
27416SOL     OW99857   5.151   2.485   0.627 -0.3093  0.6195  0.5407
27416SOL    HW199858   5.095   2.527   0.693  0.7914 -0.1967  2.0491
27416SOL    HW299859   5.238   2.519   0.645  0.3932 -1.2905  0.9599
27417SOL     OW99860   4.491  10.317  13.567 -0.0272 -0.3715 -0.2162
27417SOL    HW199861   4.540  10.377  13.511 -1.3343  1.5222  0.5877
27417SOL    HW299862   4.400  10.329  13.542 -0.4808 -0.6794  1.2193
27418SOL     OW99863   1.639   7.029  10.027  0.6718  0.0984 -0.6493
27418SOL    HW199864   1.567   7.092  10.028  0.5198 -0.0748  0.1411
27418SOL    HW299865   1.711   7.076   9.986  0.0981  0.2528 -1.5177
27419SOL     OW99866   8.353   4.917  11.794 -0.7430  0.2824 -0.0784
27419SOL    HW199867   8.271   4.879  11.827  0.0067 -1.6671 -0.3700
27419SOL    HW299868   8.422   4.876  11.845  0.1194  1.5773 -0.1352
27420SOL     OW99869   6.724   4.775   0.896 -0.3161  0.5999  0.3188
27420SOL    HW199870   6.753   4.853   0.944  0.0313  0.3272  0.5501
27420SOL    HW299871   6.783   4.770   0.821  0.0799  0.1871  0.6550
27421SOL     OW99872   6.487  13.050   7.807 -0.0109 -0.0728  0.2898
27421SOL    HW199873   6.484  13.131   7.856  0.4798  0.0691  0.0968
27421SOL    HW299874   6.399  13.039   7.772 -0.1749  0.1857  0.6219
27422SOL     OW99875   1.244  13.500   6.727 -0.2650  0.5861 -0.7648
27422SOL    HW199876   1.156  13.483   6.761 -0.7147  1.0544 -1.6753
27422SOL    HW299877   1.232  13.513   6.633  1.0129 -1.0496 -1.1983
27423SOL     OW99878   9.420  13.740   2.179 -0.2040  0.0589  0.8196
27423SOL    HW199879   9.474  13.748   2.258 -0.1514 -2.6896  1.1665
27423SOL    HW299880   9.481  13.707   2.112 -0.8607 -0.5028  0.4858
27424SOL     OW99881  10.871   3.267   1.043 -0.0864  0.0468  0.2326
27424SOL    HW199882  10.855   3.361   1.055  0.9439  0.6039 -2.0780
27424SOL    HW299883  10.966   3.257   1.050 -0.2453 -0.9759  1.1847
27425SOL     OW99884   4.180   1.064   0.566  0.4547 -0.2719  0.7863
27425SOL    HW199885   4.265   1.021   0.556  0.3984 -0.6696  1.8478
27425SOL    HW299886   4.121   1.013   0.511  0.9301  0.1411 -0.1365
27426SOL     OW99887   1.452   1.183   5.425  0.6126  0.2773 -0.1234
27426SOL    HW199888   1.544   1.209   5.414  0.9092 -0.4713  0.4990
27426SOL    HW299889   1.427   1.148   5.339  1.3199 -0.7118  0.0490
27427SOL     OW99890  13.929   5.730  12.438 -0.0624  0.2809  0.0391
27427SOL    HW199891  13.843   5.689  12.442  0.8709 -1.9004 -0.2738
27427SOL    HW299892  13.921   5.810  12.490 -1.8112 -0.7801  1.5329
27428SOL     OW99893  13.174  11.481   5.602 -0.0096 -0.0283 -0.3621
27428SOL    HW199894  13.218  11.531   5.533 -0.7940  3.0989  1.2473
27428SOL    HW299895  13.245  11.449   5.657  0.4757  1.3585 -0.1362
27429SOL     OW99896  13.661   7.900   8.062 -0.5415 -1.3091 -0.6537
27429SOL    HW199897  13.693   7.812   8.043 -1.6313 -1.3935 -2.3926
27429SOL    HW299898  13.578   7.886   8.108 -0.1240 -1.1547  0.1629
27430SOL     OW99899   9.205   1.395   8.461  0.1220  0.3082  0.1967
27430SOL    HW199900   9.291   1.410   8.423  0.1800  2.5198  1.0755
27430SOL    HW299901   9.215   1.314   8.511  1.7392  0.6106  0.4114
27431SOL     OW99902  13.527  13.900   5.808 -0.0666  0.4410 -0.1424
27431SOL    HW199903  13.456  13.849   5.847  1.2940 -1.2241  0.2759
27431SOL    HW299904  13.604  13.876   5.859  0.7214  2.7071 -0.1568
27432SOL     OW99905  10.817  13.668  13.910 -0.0071 -0.5101  0.2868
27432SOL    HW199906  10.748  13.602  13.904 -1.3282  0.9383 -1.2435
27432SOL    HW299907  10.777  13.748  13.879  2.1164  0.6208  0.2759
27433SOL     OW99908   4.644   0.454  10.476 -0.5409 -0.1987 -0.0710
27433SOL    HW199909   4.705   0.499  10.417  1.0630 -1.0347  0.8869
27433SOL    HW299910   4.657   0.497  10.561 -0.8654 -0.7605  0.2686
27434SOL     OW99911   4.537   4.516  12.935  0.0386 -0.3621  0.0945
27434SOL    HW199912   4.456   4.518  12.884 -0.8507 -0.4300  1.4406
27434SOL    HW299913   4.543   4.603  12.974 -0.6814 -1.0459  1.8729
27435SOL     OW99914   4.692   0.400   0.870  0.8739 -0.4699  0.1144
27435SOL    HW199915   4.604   0.381   0.902  0.4832  0.3319 -0.4310
27435SOL    HW299916   4.719   0.477   0.919 -0.3305  1.7129 -2.3816
27436SOL     OW99917   4.453   1.519   2.432  0.4712 -0.6412 -0.1483
27436SOL    HW199918   4.448   1.472   2.349 -0.4125 -0.4935 -0.1858
27436SOL    HW299919   4.375   1.575   2.433  0.1719 -1.0534  1.0359
27437SOL     OW99920  12.652   5.654   3.464  0.2435 -0.3479  0.2325
27437SOL    HW199921  12.678   5.714   3.394  1.1367  0.5121  1.2568
27437SOL    HW299922  12.565   5.624   3.438  0.9175 -0.7960 -1.6968
27438SOL     OW99923  12.813   0.382   1.297 -0.1076 -0.0309 -0.0934
27438SOL    HW199924  12.827   0.302   1.245 -1.7106 -0.4444  0.0304
27438SOL    HW299925  12.786   0.349   1.383 -1.1032  0.6265 -0.1399
27439SOL     OW99926  10.980   9.546   2.643  0.2243  0.2378  0.1337
27439SOL    HW199927  10.891   9.572   2.668 -0.0467 -1.2599  0.8632
27439SOL    HW299928  10.975   9.450   2.635  1.4566  0.2627 -1.1611
27440SOL     OW99929   6.055   7.828   4.447  0.1413 -0.0938 -0.5965
27440SOL    HW199930   5.975   7.793   4.408  0.7288 -0.2364 -1.7231
27440SOL    HW299931   6.122   7.761   4.429  0.8562  0.7265 -1.1155
27441SOL     OW99932  12.962  10.183  11.899 -0.3156 -0.6227 -0.0305
27441SOL    HW199933  13.009  10.100  11.903  0.1157 -0.3813 -0.0487
27441SOL    HW299934  13.012  10.242  11.955 -0.7004 -0.4106  0.0993
27442SOL     OW99935  11.613  10.885   3.247 -0.2452  0.2209  0.7941
27442SOL    HW199936  11.548  10.939   3.200  2.0540  1.9637 -0.5960
27442SOL    HW299937  11.667  10.949   3.294  1.6114 -0.9805  0.3902
27443SOL     OW99938   6.735   1.770   7.338 -0.1573  0.1343 -0.1964
27443SOL    HW199939   6.817   1.750   7.293 -0.8840 -1.3114 -0.9540
27443SOL    HW299940   6.748   1.737   7.426 -0.4336 -1.5357 -0.7407
27444SOL     OW99941   4.975   9.941   3.427  0.4633  0.5924  0.0225
27444SOL    HW199942   4.950   9.930   3.519  0.6448  0.8140  0.1005
27444SOL    HW299943   4.911  10.004   3.393 -0.4469 -0.5236 -0.3685
27445SOL     OW99944   3.362  11.953  13.841 -0.1423 -0.2107 -0.5731
27445SOL    HW199945   3.456  11.935  13.848 -0.0003 -0.0532 -1.7470
27445SOL    HW299946   3.351  12.039  13.881 -0.1520 -1.0883  1.4303
27446SOL     OW99947   7.058   8.967   4.055  0.3483  0.3443 -0.4837
27446SOL    HW199948   6.996   8.918   4.110  0.8458 -1.2391 -1.2838
27446SOL    HW299949   7.098   9.030   4.115 -0.3770 -0.1576  0.5693
27447SOL     OW99950  12.169  13.458   9.181  0.1699 -0.1941 -0.4555
27447SOL    HW199951  12.250  13.430   9.138  0.1685 -0.4905 -0.2640
27447SOL    HW299952  12.110  13.384   9.172 -0.2443  0.1879 -1.0027
27448SOL     OW99953   9.410   5.776   6.148  0.6438 -0.4067 -0.4110
27448SOL    HW199954   9.410   5.748   6.056  1.3247  0.0686 -0.5657
27448SOL    HW299955   9.410   5.694   6.198 -0.7328 -0.6772 -0.8131
27449SOL     OW99956  14.075   0.365   2.669 -0.3387 -0.1874  0.1992
27449SOL    HW199957  14.133   0.400   2.602 -1.3863 -2.6600 -2.1679
27449SOL    HW299958  13.997   0.421   2.665 -0.5096 -0.4881 -0.8837
27450SOL     OW99959  12.022   4.398  11.747  0.2408  0.0244  0.5113
27450SOL    HW199960  11.958   4.363  11.810 -2.3550  0.5564 -1.6550
27450SOL    HW299961  12.016   4.341  11.671  0.5395  1.4977 -0.6772
27451SOL     OW99962   1.790  11.548   8.641 -0.5712  0.1043  0.3972
27451SOL    HW199963   1.859  11.574   8.702 -0.8697 -2.2027  1.8522
27451SOL    HW299964   1.733  11.625   8.635 -0.3834  0.5199  2.8695
27452SOL     OW99965   9.238  13.587   0.649 -0.4631  0.5405  0.4682
27452SOL    HW199966   9.264  13.675   0.677  0.3654 -0.3391  2.6350
27452SOL    HW299967   9.292  13.528   0.700 -0.1998 -1.2745 -1.7606
27453SOL     OW99968   6.009   0.944  10.437  0.7605 -0.2973  0.3436
27453SOL    HW199969   6.061   0.865  10.449 -0.1080 -0.7512  1.3237
27453SOL    HW299970   6.011   0.987  10.522  0.0112 -0.0381  0.2364
27454SOL     OW99971  11.747   9.338   2.137  0.3148 -0.0844  0.4279
27454SOL    HW199972  11.745   9.252   2.180  3.0086  0.4716  1.8745
27454SOL    HW299973  11.783   9.320   2.050  0.0677 -0.5333  0.4154
27455SOL     OW99974   4.095   5.901  13.676 -0.4286  0.2365 -0.7480
27455SOL    HW199975   4.068   5.987  13.645 -0.1910 -0.1784 -2.1400
27455SOL    HW299976   4.035   5.840  13.633 -0.5542 -0.3198  0.1766
27456SOL     OW99977   6.259   6.094   8.710  0.1771 -0.3127  0.1355
27456SOL    HW199978   6.305   6.056   8.635  0.7224 -1.0282  0.8121
27456SOL    HW299979   6.169   6.063   8.700  0.1498 -0.0620 -0.4448
27457SOL     OW99980  12.932   4.331   9.465 -0.0143 -0.2745 -0.0984
27457SOL    HW199981  12.868   4.264   9.490  1.2838 -0.7778  2.1800
27457SOL    HW299982  12.994   4.334   9.538  1.2501  1.8570 -1.1397
27458SOL     OW99983   9.644  12.660   5.904  0.0769  0.0436 -0.0191
27458SOL    HW199984   9.621  12.728   5.967 -0.9181 -0.4523  0.1657
27458SOL    HW299985   9.649  12.580   5.956  0.0511 -0.2311 -0.4367
27459SOL     OW99986   6.630   7.033   5.621 -0.0365 -0.0337  0.3336
27459SOL    HW199987   6.686   6.960   5.647 -0.2404 -0.7522 -1.1428
27459SOL    HW299988   6.686   7.085   5.563 -0.3640  0.1647  0.1957
27460SOL     OW99989   4.316   1.940   0.255  0.4902  0.1239 -0.3279
27460SOL    HW199990   4.298   1.931   0.348  0.8102 -1.5995 -0.4047
27460SOL    HW299991   4.279   2.026   0.232 -1.9433 -0.5285  0.8193
27461SOL     OW99992   2.973   7.005  14.048 -0.5857 -0.3972 -0.0683
27461SOL    HW199993   3.001   7.054  14.125 -0.1023 -1.0437  0.1812
27461SOL    HW299994   2.947   6.919  14.083  0.6613 -1.0742 -0.7328
27462SOL     OW99995  10.270   2.841   9.547 -0.0008 -0.6180  0.0429
27462SOL    HW199996  10.238   2.917   9.595 -0.1692 -0.3104 -0.5496
27462SOL    HW299997  10.254   2.862   9.455  2.6525 -0.0542 -0.3831
27463SOL     OW99998  12.392   9.439   5.783 -0.2895 -0.8895 -0.3258
27463SOL    HW199999  12.423   9.521   5.744 -1.8082 -0.8857 -1.6022
27463SOL    HW2    0  12.472   9.396   5.815  0.4465  1.4707  1.2070
27464SOL     OW    1   1.050   4.034  10.673  0.1605  1.0779  0.7682
27464SOL    HW1    2   0.980   4.099  10.681 -3.4409 -2.3129 -0.4214
27464SOL    HW2    3   1.102   4.064  10.599 -1.8884  2.1984 -0.2965
27465SOL     OW    4   7.234  13.704  11.077  1.0489 -0.1357  0.4150
27465SOL    HW1    5   7.274  13.733  10.996  0.7698 -0.6357  0.0952
27465SOL    HW2    6   7.282  13.750  11.146  0.4698  1.2744 -0.0754
27466SOL     OW    7   6.903   3.438   1.032  0.4521 -0.3335  0.0430
27466SOL    HW1    8   6.833   3.501   1.049 -0.2821 -0.7164 -1.4192
27466SOL    HW2    9   6.861   3.352   1.040  1.1542 -0.6306  0.7626
27467SOL     OW   10  11.063   5.339   5.950  0.0055  0.0201  0.3330
27467SOL    HW1   11  11.055   5.299   5.864 -0.3039 -1.7931  1.1475
27467SOL    HW2   12  11.082   5.265   6.009 -1.3107  0.9742  2.0348
27468SOL     OW   13   9.202  12.910   2.275 -0.1054 -0.4653  0.4769
27468SOL    HW1   14   9.254  12.832   2.295  0.2527 -0.4062 -0.2099
27468SOL    HW2   15   9.222  12.929   2.184 -0.0282  0.5524  0.6983
27469SOL     OW   16   4.070   8.095   5.653 -0.3646  0.8602  0.0789
27469SOL    HW1   17   4.150   8.138   5.682  0.9566 -2.2590  1.5297
27469SOL    HW2   18   4.087   8.072   5.562  1.1437 -1.1296  0.7911
27470SOL     OW   19  12.442   7.430   2.167  0.7155  0.4183  0.7278
27470SOL    HW1   20  12.521   7.387   2.199  0.4858 -0.4484  0.1875
27470SOL    HW2   21  12.472   7.512   2.128  1.2852  0.3171  0.9489
27471SOL     OW   22  10.649   5.624   1.496 -0.0075 -0.1840  0.0414
27471SOL    HW1   23  10.719   5.663   1.443  1.6972 -0.5913  1.8341
27471SOL    HW2   24  10.570   5.672   1.472  1.1108  1.0789 -1.2692
27472SOL     OW   25   1.573   7.322   9.227 -1.0643 -0.0730 -0.0344
27472SOL    HW1   26   1.622   7.315   9.309 -1.6187  0.7216  0.3797
27472SOL    HW2   27   1.620   7.388   9.176 -0.8396 -0.4137 -0.2686
27473SOL     OW   28   1.516   1.746  12.205 -0.6252  0.1831  0.5378
27473SOL    HW1   29   1.474   1.660  12.210  0.9615 -0.6286  0.4398
27473SOL    HW2   30   1.525   1.763  12.112 -0.2871  0.1277  0.5612
27474SOL     OW   31   4.510   1.334  13.076  0.0137 -0.3443  0.3689
27474SOL    HW1   32   4.464   1.273  13.019  0.6618  0.5559 -1.1859
27474SOL    HW2   33   4.600   1.302  13.079  0.1824  0.0957  0.1642
27475SOL     OW   34   5.246   9.990   4.657  0.3399  0.4836 -0.1675
27475SOL    HW1   35   5.305  10.065   4.665 -0.8245  1.7262 -2.2704
27475SOL    HW2   36   5.244   9.972   4.563 -1.9284 -0.0666 -0.0591
27476SOL     OW   37  11.223   9.360  11.667  0.9991  0.3649 -0.2130
27476SOL    HW1   38  11.266   9.381  11.583  1.3787  0.6057  0.0373
27476SOL    HW2   39  11.293   9.321  11.720  0.9075  0.7383  0.1906
27477SOL     OW   40   3.078   1.980   6.432 -0.1091 -0.0336  0.3437
27477SOL    HW1   41   3.071   1.885   6.423 -0.5858 -0.0182  0.5263
27477SOL    HW2   42   3.134   2.007   6.359  2.1270 -0.7304  1.7125
27478SOL     OW   43   2.998   2.974  11.260 -0.1537 -0.3351 -0.8152
27478SOL    HW1   44   2.922   3.011  11.305  0.4637  1.0095 -0.8088
27478SOL    HW2   45   3.070   2.985  11.323 -0.0322 -2.0931 -0.5969
27479SOL     OW   46  11.347  10.622  13.405  0.0018  0.1819 -0.1455
27479SOL    HW1   47  11.303  10.695  13.362  0.3209 -0.6612 -1.9873
27479SOL    HW2   48  11.432  10.657  13.432  0.2430  0.4668 -1.2242
27480SOL     OW   49   4.203   8.660   3.179 -0.2329 -0.3476  0.3138
27480SOL    HW1   50   4.155   8.662   3.262  2.0027 -1.3155  1.7303
27480SOL    HW2   51   4.265   8.732   3.185  0.2215 -0.6733 -0.3494
27481SOL     OW   52   5.081   4.463   9.919  0.1309 -0.3257 -0.1745
27481SOL    HW1   53   5.125   4.428   9.996 -0.7327  1.0622  0.9879
27481SOL    HW2   54   5.044   4.386   9.876  1.4473 -1.2217  0.2444
27482SOL     OW   55  12.122  11.643   0.040  0.1560 -0.0681  0.7745
27482SOL    HW1   56  12.173  11.603   0.111 -0.0036 -1.3466  0.1889
27482SOL    HW2   57  12.038  11.665   0.080 -0.3485 -1.8208  0.7267
27483SOL     OW   58   8.711   1.818   8.477 -0.2094  0.0516  0.3212
27483SOL    HW1   59   8.734   1.730   8.507  2.4021  0.7207  0.5574
27483SOL    HW2   60   8.650   1.850   8.543  1.1751 -0.5077  1.9571
27484SOL     OW   61   0.282   8.599   5.131  0.2079  1.0060  0.0667
27484SOL    HW1   62   0.236   8.516   5.146 -0.2218  1.2104 -0.0834
27484SOL    HW2   63   0.351   8.601   5.197 -0.3426  0.9362  0.6588
27485SOL     OW   64  13.965  10.101   0.899  0.1775  0.1483 -0.0635
27485SOL    HW1   65  13.943  10.058   0.982 -0.4194  0.9059  0.1840
27485SOL    HW2   66  13.908  10.059   0.834 -1.0366  1.1354  0.3295
27486SOL     OW   67   5.828   3.785  10.384 -0.1701  0.5153  0.0154
27486SOL    HW1   68   5.827   3.693  10.409 -0.6140  0.6800  0.6238
27486SOL    HW2   69   5.888   3.789  10.309  1.2730  0.0443  1.1184
27487SOL     OW   70  12.419  10.414   8.890 -0.0194  0.1930 -0.0747
27487SOL    HW1   71  12.452  10.430   8.802 -1.1700  0.0599 -0.5475
27487SOL    HW2   72  12.327  10.392   8.878  0.2915 -1.9578  0.9624
27488SOL     OW   73   4.999   7.529   3.036  0.4256  0.1045 -0.3536
27488SOL    HW1   74   5.043   7.586   3.099  1.0621  0.6478 -1.2586
27488SOL    HW2   75   4.936   7.480   3.088  0.4715  1.0129  0.5988
27489SOL     OW   76  10.878   4.969   2.484 -0.2761 -0.0804 -0.5262
27489SOL    HW1   77  10.843   4.989   2.397 -0.6531  0.9762 -0.1458
27489SOL    HW2   78  10.801   4.954   2.538 -0.0272 -2.3288 -0.6909
27490SOL     OW   79   3.350  13.706   2.195 -0.1837 -0.0542 -0.6582
27490SOL    HW1   80   3.308  13.622   2.175  2.5967 -1.8504  0.4458
27490SOL    HW2   81   3.432  13.705   2.146  0.1018  1.8540 -0.2935
27491SOL     OW   82  13.105   2.593  11.659 -0.0111  0.3539 -0.2500
27491SOL    HW1   83  13.017   2.592  11.622 -0.8278  0.2707  1.5987
27491SOL    HW2   84  13.096   2.640  11.742  1.6159 -0.0142  0.1786
27492SOL     OW   85   6.323  12.148   5.213  0.2478  0.2761 -0.3665
27492SOL    HW1   86   6.358  12.236   5.204  0.1688  0.4418  0.7709
27492SOL    HW2   87   6.380  12.093   5.160  1.5781  0.7113  0.5592
27493SOL     OW   88   8.647  11.597   5.097 -0.2013 -0.4515  0.2212
27493SOL    HW1   89   8.661  11.611   5.190 -0.5474 -1.3721  0.4243
27493SOL    HW2   90   8.704  11.522   5.075  2.8254  2.0075 -1.1624
27494SOL     OW   91   0.714   5.289   1.728  0.0363 -0.3444  0.2056
27494SOL    HW1   92   0.746   5.199   1.741  2.2203  0.3882  0.2946
27494SOL    HW2   93   0.678   5.289   1.639 -0.2974 -1.4020  0.3339
27495SOL     OW   94   8.366   0.345  10.595  1.1601 -0.0351  0.3390
27495SOL    HW1   95   8.386   0.302  10.678  1.5850 -0.3991  0.0525
27495SOL    HW2   96   8.428   0.417  10.589 -0.4044  1.4987  1.4478
27496SOL     OW   97   7.215   8.477   7.267 -0.4576 -0.1480  0.8406
27496SOL    HW1   98   7.145   8.472   7.332 -1.4666 -1.0097 -0.2645
27496SOL    HW2   99   7.239   8.570   7.266 -1.9011  0.2653  0.9358
27497SOL     OW  100   3.410   4.721  10.853 -0.8244 -0.4857  0.2146
27497SOL    HW1  101   3.409   4.663  10.929  3.0026 -0.2067  0.6970
27497SOL    HW2  102   3.477   4.684  10.796 -2.0976  0.5269 -2.0683
27498SOL     OW  103   8.536  10.567   8.538  0.1429  0.2105  0.7710
27498SOL    HW1  104   8.620  10.600   8.505 -0.2855  0.8387  0.2769
27498SOL    HW2  105   8.517  10.491   8.482 -0.1389  0.7273  0.1478
27499SOL     OW  106   4.162   0.360  14.023 -0.5110 -0.0990 -0.3429
27499SOL    HW1  107   4.220   0.408  13.964 -0.3653  1.4414  0.9670
27499SOL    HW2  108   4.095   0.423  14.047 -1.3752 -1.1327  0.0225
27500SOL     OW  109  10.907   7.214   6.299  0.6367 -0.3426  0.4889
27500SOL    HW1  110  10.871   7.210   6.387  0.0712 -1.0211  0.2407
27500SOL    HW2  111  10.955   7.131   6.289 -1.7056 -1.6458 -0.8122
27501SOL     OW  112  12.110  12.572   4.947  0.9762  0.2315  0.1691
27501SOL    HW1  113  12.101  12.659   4.907 -1.1214  1.3515  2.7491
27501SOL    HW2  114  12.157  12.589   5.029 -0.3249 -0.8776  1.1840
27502SOL     OW  115   9.151   6.768  13.899 -0.0100  0.1200 -0.5138
27502SOL    HW1  116   9.068   6.737  13.934  0.5166 -0.0179  0.6667
27502SOL    HW2  117   9.171   6.846  13.951  1.4681 -0.8674  0.4489
27503SOL     OW  118   7.434   2.001   3.645 -0.1876  0.4222  0.1363
27503SOL    HW1  119   7.361   2.063   3.641 -1.5143 -1.1507 -2.0154
27503SOL    HW2  120   7.490   2.025   3.572 -1.0722 -1.2431 -1.1562
27504SOL     OW  121  10.672   3.339   4.849  0.4905  0.3143 -0.5128
27504SOL    HW1  122  10.662   3.244   4.850  0.1059  0.3305 -1.3911
27504SOL    HW2  123  10.608   3.371   4.912  2.0255 -0.0841  1.3554
27505SOL     OW  124   2.838   6.315   3.919  0.1142  0.5652  0.3546
27505SOL    HW1  125   2.801   6.233   3.951  0.1900  0.6747  0.7212
27505SOL    HW2  126   2.845   6.302   3.824  0.6360 -0.0559  0.4722
27506SOL     OW  127   5.890  13.073   2.497 -0.1659 -0.4165 -0.3086
27506SOL    HW1  128   5.878  13.012   2.570  0.2488 -1.3168 -0.9759
27506SOL    HW2  129   5.856  13.026   2.421  2.2984 -0.8034 -1.2592
27507SOL     OW  130  10.752  11.769  12.920 -1.2300  0.3583  0.0126
27507SOL    HW1  131  10.752  11.720  12.838  0.2328 -0.3744  0.4067
27507SOL    HW2  132  10.742  11.860  12.893 -0.9985  0.1100 -0.9707
27508SOL     OW  133   9.122   4.550  13.452 -0.0231 -0.8781  0.0063
27508SOL    HW1  134   9.190   4.483  13.449  0.1931 -0.6653  0.0011
27508SOL    HW2  135   9.094   4.560  13.362 -0.8816 -1.7757  0.1559
27509SOL     OW  136   8.975  12.638   8.074 -0.7611 -0.1579 -0.1235
27509SOL    HW1  137   9.027  12.699   8.127  0.6204 -1.5431  0.1920
27509SOL    HW2  138   8.980  12.672   7.985 -0.8530  0.7335  0.2077
27510SOL     OW  139   8.928   0.788   0.720  0.4468 -0.5585  0.4977
27510SOL    HW1  140   8.909   0.756   0.632  1.8151  0.9183 -0.3932
27510SOL    HW2  141   8.976   0.870   0.706 -0.6469  0.5488  2.6215
27511SOL     OW  142   7.931  12.440   8.992 -0.2950  0.8752  0.8690
27511SOL    HW1  143   7.860  12.439   9.057 -1.3474  0.5908 -0.2512
27511SOL    HW2  144   7.891  12.475   8.913  1.0694  1.5958  0.4622
27512SOL     OW  145  11.610   3.630  13.732  0.1035  0.2710  0.4892
27512SOL    HW1  146  11.703   3.633  13.708  0.0153  1.3764  0.2455
27512SOL    HW2  147  11.610   3.590  13.819  0.6409 -1.3951 -0.2295
27513SOL     OW  148   2.496  12.537   8.107  0.5511 -0.5912  0.5849
27513SOL    HW1  149   2.571  12.522   8.051  1.1696  0.8916  0.9643
27513SOL    HW2  150   2.532  12.543   8.196 -0.1527 -0.9240  0.9089
27514SOL     OW  151   9.242   5.277   4.276 -0.3658 -0.0176 -0.2046
27514SOL    HW1  152   9.199   5.363   4.283  0.7417  0.5451 -0.1727
27514SOL    HW2  153   9.201   5.224   4.345 -2.3170 -0.0984 -1.3238
27515SOL     OW  154  13.435  13.050   3.047  0.1010 -0.0660  0.7999
27515SOL    HW1  155  13.484  13.003   2.979  0.6425  1.0472  0.3958
27515SOL    HW2  156  13.454  13.142   3.031 -0.3646  0.2619  2.0164
27516SOL     OW  157  10.911   6.059   1.703  0.1450 -0.2186  0.0509
27516SOL    HW1  158  10.845   5.997   1.671  0.1321 -0.4398  0.4954
27516SOL    HW2  159  10.862   6.140   1.717 -0.2327 -0.6163  1.2012
27517SOL     OW  160  11.144   8.432  13.682  0.0709 -0.2401 -0.2732
27517SOL    HW1  161  11.108   8.506  13.731  0.1838  0.6000 -1.4212
27517SOL    HW2  162  11.191   8.380  13.748 -0.5097  0.3746  0.6536
27518SOL     OW  163   1.301  12.914   4.756 -0.0678  0.3577  0.2326
27518SOL    HW1  164   1.211  12.945   4.769 -0.1982  0.3083 -0.5033
27518SOL    HW2  165   1.352  12.993   4.738 -0.0236  0.3495  0.3194
27519SOL     OW  166   1.301   8.816  11.907 -0.6926 -0.1204  0.0352
27519SOL    HW1  167   1.253   8.831  11.825  1.8571  0.7222 -1.4412
27519SOL    HW2  168   1.393   8.814  11.880  0.1105 -2.9494  2.4722
27520SOL     OW  169  11.094  12.425   4.063 -0.0240  0.2520 -0.0233
27520SOL    HW1  170  11.073  12.511   4.098  0.4424  0.4699 -0.2787
27520SOL    HW2  171  11.185  12.409   4.088  0.1019  0.1202 -0.5418
27521SOL     OW  172   4.082  12.087  11.644  0.2110  0.3555  0.5584
27521SOL    HW1  173   4.022  12.018  11.619  0.4918  0.0406  0.7474
27521SOL    HW2  174   4.042  12.168  11.610 -0.9986  0.3320  1.8546
27522SOL     OW  175   2.461   9.953  11.794  0.0083 -0.7152 -0.3016
27522SOL    HW1  176   2.478   9.859  11.793  0.6622 -0.5971 -0.9114
27522SOL    HW2  177   2.446   9.975  11.702 -0.0618 -0.2057 -0.1688
27523SOL     OW  178   9.699  10.365   7.195  0.2329 -0.1514 -0.0180
27523SOL    HW1  179   9.627  10.302   7.190  0.3995 -0.3329 -0.1360
27523SOL    HW2  180   9.778  10.313   7.180  0.5337 -0.2111  1.5719
27524SOL     OW  181  13.988   1.247  12.023  0.4052 -0.1449  0.2094
27524SOL    HW1  182  13.982   1.241  11.927  2.6584 -3.3649  0.1183
27524SOL    HW2  183  13.897   1.248  12.052 -0.3368 -0.0326 -1.9372
27525SOL     OW  184  13.899  10.016   1.225 -0.8843 -0.2066 -0.3129
27525SOL    HW1  185  13.993  10.023   1.209 -0.6328 -0.2931  1.0624
27525SOL    HW2  186  13.870  10.106   1.237 -0.8321 -0.2332  0.0189
27526SOL     OW  187   0.007   1.803   7.837 -0.0451  0.1675 -0.2741
27526SOL    HW1  188  -0.077   1.821   7.794  0.3420  0.7545 -0.7893
27526SOL    HW2  189   0.006   1.708   7.853 -0.3685  0.0111 -1.1932
27527SOL     OW  190   7.197   1.511   1.696 -0.0716 -0.1812  0.2756
27527SOL    HW1  191   7.169   1.517   1.787 -1.1532 -2.6197  0.1856
27527SOL    HW2  192   7.253   1.433   1.693 -1.4514 -1.1856 -1.4126
27528SOL     OW  193  10.956   7.027   4.714  0.1612  0.9168  0.2153
27528SOL    HW1  194  10.984   6.939   4.690 -0.4678  1.1108 -1.2935
27528SOL    HW2  195  10.936   7.021   4.808 -0.1253 -0.6103  0.0706
27529SOL     OW  196  11.296   2.940  13.368 -0.3517  0.2111 -0.8905
27529SOL    HW1  197  11.376   2.985  13.395 -0.2551 -0.0903 -0.6690
27529SOL    HW2  198  11.324   2.883  13.296  0.0357 -1.2965  0.3877
27530SOL     OW  199   8.196  10.030   3.374 -0.2353  0.7516 -0.1590
27530SOL    HW1  200   8.106  10.020   3.342  0.1947  0.2443 -1.2849
27530SOL    HW2  201   8.197   9.982   3.457 -0.7770 -0.0950 -0.6154
27531SOL     OW  202   3.839   8.943  12.174 -0.0958  0.2265  0.4107
27531SOL    HW1  203   3.832   9.029  12.215  0.7244  0.5202 -0.0547
27531SOL    HW2  204   3.749   8.919  12.154 -0.4917  0.2708  1.9808
27532SOL     OW  205   7.813  12.353   3.727 -0.4618  0.1903 -0.6896
27532SOL    HW1  206   7.830  12.372   3.819  2.6381  0.3637 -1.1936
27532SOL    HW2  207   7.768  12.431   3.694  0.7005  1.2485  0.1367
27533SOL     OW  208   5.604  10.788   7.547 -0.0279  0.3580  0.6344
27533SOL    HW1  209   5.594  10.781   7.642  0.8203  2.0709  0.8849
27533SOL    HW2  210   5.520  10.821   7.516  0.1892  1.3063  1.0114
27534SOL     OW  211   1.580   7.026  13.480  0.1611  0.2329 -0.1134
27534SOL    HW1  212   1.595   7.119  13.500  0.4686  0.2267 -0.3107
27534SOL    HW2  213   1.540   7.027  13.393  1.0966  0.1322 -0.5574
27535SOL     OW  214   8.142   5.576   1.579 -0.2691 -0.1533  0.3903
27535SOL    HW1  215   8.151   5.570   1.674 -2.4066  0.3087  0.6759
27535SOL    HW2  216   8.165   5.489   1.547 -1.3407 -0.9027  1.5395
27536SOL     OW  217   2.964  13.397  13.063 -0.1310  0.4583 -0.2347
27536SOL    HW1  218   3.028  13.361  13.002 -0.9912  0.3126 -1.0777
27536SOL    HW2  219   2.992  13.364  13.149  2.4385  2.5237 -0.1373
27537SOL     OW  220   8.515   9.973   7.235 -0.5569 -0.6108 -0.9172
27537SOL    HW1  221   8.510  10.069   7.231  2.5709 -0.2627  0.7683
27537SOL    HW2  222   8.572   9.950   7.162  2.8090 -0.5683  1.4986
27538SOL     OW  223   4.099   1.089  10.804  0.5609 -0.6172  0.1756
27538SOL    HW1  224   4.078   1.122  10.717  0.6672 -1.8097 -0.3330
27538SOL    HW2  225   4.133   1.165  10.851  1.3165 -0.1241 -1.1012
27539SOL     OW  226   3.846   5.259   5.221 -0.3967  0.4495  0.2647
27539SOL    HW1  227   3.930   5.245   5.265 -1.3543 -0.5974  1.8377
27539SOL    HW2  228   3.792   5.185   5.249 -1.5242  0.5271 -1.5715
27540SOL     OW  229  12.238   9.525   1.827  0.2143 -0.2080  0.1375
27540SOL    HW1  230  12.326   9.527   1.864  1.1460 -1.4763 -1.7937
27540SOL    HW2  231  12.224   9.614   1.792  1.3119 -0.3462 -0.7063
27541SOL     OW  232   5.394   8.565   1.417  0.5379  0.4612 -0.5430
27541SOL    HW1  233   5.459   8.500   1.392  0.4100 -0.8493  2.2471
27541SOL    HW2  234   5.421   8.594   1.504 -2.2205  0.3414  0.4399
27542SOL     OW  235   3.603   5.319   3.792  0.2121  0.3984  0.2722
27542SOL    HW1  236   3.525   5.368   3.766 -0.7070 -0.6729  0.9121
27542SOL    HW2  237   3.676   5.379   3.776 -0.8634  2.0083  1.1576
27543SOL     OW  238   5.347   7.177   3.831 -0.6058 -0.2567  0.0627
27543SOL    HW1  239   5.382   7.088   3.833 -0.6775 -0.2825  1.3546
27543SOL    HW2  240   5.415   7.229   3.788 -0.8136 -1.0145 -1.2289
27544SOL     OW  241   4.865  12.427  13.850 -0.0481  0.4108 -0.4696
27544SOL    HW1  242   4.954  12.433  13.885  0.0189 -1.2703 -0.2571
27544SOL    HW2  243   4.811  12.405  13.926 -0.2259 -1.1424 -1.0015
27545SOL     OW  244   3.436   7.358   8.858  0.7937 -0.2214 -0.1043
27545SOL    HW1  245   3.501   7.428   8.855 -0.5368  1.0692  0.0966
27545SOL    HW2  246   3.466   7.301   8.929  0.9527  1.1738  1.0179
27546SOL     OW  247   3.065   4.396   8.772  0.2958 -0.0337  0.4095
27546SOL    HW1  248   3.115   4.328   8.726 -2.1968 -1.2768 -0.6846
27546SOL    HW2  249   3.064   4.366   8.863 -0.2591 -1.1881  0.0509
27547SOL     OW  250   2.021   7.070  10.479 -0.4779 -0.0077  0.3185
27547SOL    HW1  251   2.052   7.063  10.388  2.0827  1.7071  0.9343
27547SOL    HW2  252   1.931   7.101  10.471 -0.1350  0.6481 -1.6459
27548SOL     OW  253   8.046   1.003  12.845  0.1314 -0.4429  0.2188
27548SOL    HW1  254   8.090   0.957  12.916  1.5173  1.8582  0.9572
27548SOL    HW2  255   7.953   0.993  12.863  0.3621 -2.7323  0.4075
27549SOL     OW  256  10.445   5.678   4.456  0.0371  0.7000 -0.4663
27549SOL    HW1  257  10.372   5.735   4.481  0.9721  1.9220 -0.4271
27549SOL    HW2  258  10.479   5.717   4.376  0.4127 -0.0889 -0.7023
27550SOL     OW  259   9.442  13.628  13.622 -0.3658  0.0529  0.2717
27550SOL    HW1  260   9.440  13.595  13.532 -2.1381 -1.3253  0.7797
27550SOL    HW2  261   9.422  13.721  13.613  1.2070  0.3287 -0.8700
27551SOL     OW  262   1.014  11.083   3.086 -0.3004  0.7187 -0.4488
27551SOL    HW1  263   1.023  10.996   3.125  0.9221  0.7027 -0.7252
27551SOL    HW2  264   0.939  11.122   3.131 -0.7479 -0.4110 -0.2006
27552SOL     OW  265  12.371   6.059   7.981 -0.0299  0.0520 -0.0363
27552SOL    HW1  266  12.397   6.034   8.070  1.3287  0.1682 -0.3669
27552SOL    HW2  267  12.427   6.006   7.924 -0.1930  0.6812 -0.8038
27553SOL     OW  268  13.574  10.233   9.076  0.0874 -0.1824  0.5049
27553SOL    HW1  269  13.548  10.324   9.061  1.8665  0.6502  2.0742
27553SOL    HW2  270  13.596  10.199   8.989  1.8151  1.7185  0.1262
27554SOL     OW  271   0.543   8.787   2.630 -0.0713  0.0696  0.2660
27554SOL    HW1  272   0.486   8.728   2.580 -0.4092  2.0045 -1.7953
27554SOL    HW2  273   0.622   8.737   2.646 -1.7839 -2.2943  2.1706
27555SOL     OW  274   6.324   1.428   7.584 -0.0381 -0.0683 -0.0873
27555SOL    HW1  275   6.274   1.443   7.504 -0.0850  0.8645  0.1110
27555SOL    HW2  276   6.399   1.487   7.577 -0.3331  0.4338  0.8003
27556SOL     OW  277  12.862   3.045  10.108 -0.7384  0.4886 -0.1016
27556SOL    HW1  278  12.830   3.118  10.160  0.9537  1.4478 -0.3383
27556SOL    HW2  279  12.956   3.040  10.128 -0.5884 -0.8493 -1.0034
27557SOL     OW  280  13.438   0.373   7.225 -0.0714 -0.1612  0.1810
27557SOL    HW1  281  13.350   0.372   7.187  0.0218 -1.1413 -0.0387
27557SOL    HW2  282  13.423   0.391   7.318 -0.3596  1.4150 -0.1541
27558SOL     OW  283   3.109  13.572   7.917 -0.3852  0.1628 -0.2784
27558SOL    HW1  284   3.042  13.504   7.908 -1.3920  1.2377 -1.1241
27558SOL    HW2  285   3.077  13.645   7.864  1.2837  0.8489 -0.3924
27559SOL     OW  286   8.035   7.360   0.381 -0.1279 -0.5022 -0.6538
27559SOL    HW1  287   8.064   7.270   0.397 -1.6754 -0.9251 -0.0689
27559SOL    HW2  288   8.084   7.387   0.303  4.8416  0.2783  2.2413
27560SOL     OW  289  11.093   1.504   5.862 -0.2233  0.3428 -0.7093
27560SOL    HW1  290  11.037   1.507   5.785 -0.1234 -0.6056 -0.8323
27560SOL    HW2  291  11.136   1.419   5.857 -0.7576 -0.0511  0.7617
27561SOL     OW  292   4.050  11.967  11.933 -0.0752  0.3797 -0.3569
27561SOL    HW1  293   4.126  11.914  11.959  0.4024 -0.3945 -2.9741
27561SOL    HW2  294   4.072  11.998  11.845 -1.7070  2.3813 -0.1274
27562SOL     OW  295   3.677   9.964   6.060  0.3511  0.3166 -0.0913
27562SOL    HW1  296   3.699   9.966   5.967  0.0818  1.5720 -0.1441
27562SOL    HW2  297   3.599  10.019   6.068 -0.9096 -1.4598  0.5740
27563SOL     OW  298   2.880  11.842   7.736  0.6901  0.3235  0.8055
27563SOL    HW1  299   2.938  11.768   7.758  1.3776  0.8221  0.6911
27563SOL    HW2  300   2.863  11.832   7.642  2.8947  1.7445  0.1946
27564SOL     OW  301   3.040   3.823   8.607  0.3688 -0.0857  0.0626
27564SOL    HW1  302   2.993   3.740   8.614 -0.7823  0.2056 -2.9191
27564SOL    HW2  303   3.102   3.811   8.535  0.4743  1.4930 -0.1568
27565SOL     OW  304   9.839   3.906   2.332  0.0065 -0.3246 -0.2645
27565SOL    HW1  305   9.781   3.954   2.391 -0.3637 -1.6645  0.5000
27565SOL    HW2  306   9.926   3.939   2.351 -0.4273  1.5837 -1.2924
27566SOL     OW  307   5.442  13.039  11.469 -0.0973 -0.0495 -0.4795
27566SOL    HW1  308   5.420  13.022  11.377 -0.0805 -0.8709 -0.3386
27566SOL    HW2  309   5.488  12.960  11.497  0.0953  0.2927  0.1710
27567SOL     OW  310   7.527   4.680   2.669 -1.1179  0.2445 -0.0687
27567SOL    HW1  311   7.551   4.606   2.725  0.3195 -0.3128 -1.3176
27567SOL    HW2  312   7.609   4.729   2.660 -1.5848  0.8986 -0.7990
27568SOL     OW  313  13.843   0.597   3.205 -0.4327 -0.7982  0.3648
27568SOL    HW1  314  13.790   0.589   3.284 -1.7675  1.0273 -0.2705
27568SOL    HW2  315  13.853   0.692   3.192 -1.5162 -0.9699 -2.4136
27569SOL     OW  316  10.623   4.390   5.222  0.0820 -0.1989  0.6961
27569SOL    HW1  317  10.671   4.454   5.275 -1.5362  2.9448 -1.2613
27569SOL    HW2  318  10.536   4.429   5.211 -0.4861 -1.9345 -1.9832
27570SOL     OW  319  11.374   0.048   3.643 -0.1371  0.3388  0.1719
27570SOL    HW1  320  11.455   0.099   3.637  0.9168 -1.2565  0.0321
27570SOL    HW2  321  11.362   0.032   3.736 -0.4456  0.7929  0.2129
27571SOL     OW  322   0.829  13.323   1.569  0.0570 -0.2629  0.2230
27571SOL    HW1  323   0.798  13.408   1.601  0.2877 -0.1727  0.2109
27571SOL    HW2  324   0.840  13.271   1.649 -0.6365 -0.4726  0.1883
27572SOL     OW  325   6.890  13.344   3.961 -0.2503  0.2819  0.7392
27572SOL    HW1  326   6.912  13.267   4.014  0.5935  0.4189  0.5942
27572SOL    HW2  327   6.932  13.417   4.005  0.2437  0.4334  0.0348
27573SOL     OW  328   6.610   4.897   5.966  0.2853 -0.0160  0.0364
27573SOL    HW1  329   6.701   4.870   5.978  0.0718 -0.0495  1.8663
27573SOL    HW2  330   6.560   4.816   5.978  0.0047 -0.1037 -1.4733
27574SOL     OW  331   6.148  10.747  11.966  0.3474 -0.2449  0.2737
27574SOL    HW1  332   6.158  10.843  11.965 -3.3810  0.3161  1.5733
27574SOL    HW2  333   6.125  10.725  11.876  0.2100  0.2195  0.1923
27575SOL     OW  334  11.477   4.822  11.356 -0.0987  0.0416  0.0680
27575SOL    HW1  335  11.406   4.853  11.412 -0.9775 -1.1742 -0.3471
27575SOL    HW2  336  11.454   4.853  11.269 -0.3605 -0.7541 -0.1467
27576SOL     OW  337  10.787  11.644   4.688 -0.1123 -0.1331  0.3645
27576SOL    HW1  338  10.821  11.677   4.771  0.9420  0.5879 -0.3271
27576SOL    HW2  339  10.783  11.722   4.632 -0.1787 -0.7233 -0.4597
27577SOL     OW  340  11.319   4.468   7.039 -0.4361 -0.1998  0.4459
27577SOL    HW1  341  11.398   4.503   6.997 -0.8016  1.0256  0.7459
27577SOL    HW2  342  11.340   4.376   7.056 -0.2772 -0.7689 -2.3980
27578SOL     OW  343  12.519  10.815  11.722  0.4005 -0.0340 -0.3367
27578SOL    HW1  344  12.525  10.894  11.667 -0.0155 -0.6386 -1.2765
27578SOL    HW2  345  12.527  10.848  11.812  1.6656  0.9196 -0.7725
27579SOL     OW  346   6.694   9.798   3.577 -0.0752  0.1922  0.1945
27579SOL    HW1  347   6.622   9.734   3.580  0.2957 -0.1822  1.4969
27579SOL    HW2  348   6.772   9.747   3.600  1.0100  0.1352 -3.0688
27580SOL     OW  349   3.102  12.544  13.944 -0.2944 -0.7581 -0.0005
27580SOL    HW1  350   3.063  12.540  13.857 -0.7505 -1.3690  0.2348
27580SOL    HW2  351   3.085  12.634  13.973  1.5506  0.0869 -1.3119
27581SOL     OW  352   9.893   2.823   3.808 -0.4067 -0.1153 -0.0145
27581SOL    HW1  353   9.987   2.812   3.814 -0.3290  0.7188  0.3789
27581SOL    HW2  354   9.858   2.761   3.873 -0.0691  0.5001  0.7679
27582SOL     OW  355   5.368  13.015   1.196  0.4799  0.4476 -0.4449
27582SOL    HW1  356   5.321  13.077   1.139  3.4717  2.4350 -0.9985
27582SOL    HW2  357   5.361  13.054   1.283  0.4528  0.3435 -0.4014
27583SOL     OW  358   6.401  11.350   1.224  0.3596 -0.3209 -0.1433
27583SOL    HW1  359   6.479  11.390   1.262  0.2210 -0.0059 -0.1838
27583SOL    HW2  360   6.403  11.259   1.254 -0.7784  0.3810  2.2151
27584SOL     OW  361   1.501   2.986   6.030  0.2362 -0.3062  0.5025
27584SOL    HW1  362   1.478   3.049   5.962 -0.6130 -0.7315  0.3795
27584SOL    HW2  363   1.458   3.018   6.109  2.1971  0.8355  1.1555
27585SOL     OW  364   2.077   7.601   6.133 -0.5591  0.3997  0.5306
27585SOL    HW1  365   2.080   7.553   6.215  0.8666  0.7012  0.6744
27585SOL    HW2  366   2.111   7.687   6.154  1.3852 -0.0255 -0.6840
27586SOL     OW  367   5.975  13.001   3.654 -0.1833  0.9596  0.2259
27586SOL    HW1  368   6.045  12.958   3.605  0.4346  1.3319  0.7806
27586SOL    HW2  369   5.925  13.048   3.587  0.1987  0.8386 -0.1505
27587SOL     OW  370   1.598   6.556   0.782  0.0631  0.3578  0.1584
27587SOL    HW1  371   1.517   6.525   0.742 -0.4709  1.5267  0.2845
27587SOL    HW2  372   1.591   6.651   0.781  0.9515  0.4613  1.1646
27588SOL     OW  373   7.530   1.919   3.087  0.4576 -0.2305 -0.2308
27588SOL    HW1  374   7.457   1.950   3.033  1.9410  0.2033 -2.0636
27588SOL    HW2  375   7.606   1.969   3.056  1.9737 -2.2313  0.0867
27589SOL     OW  376  10.098   0.269   7.491  0.1364 -0.3414  0.1583
27589SOL    HW1  377  10.004   0.252   7.500  0.5232 -1.9773  1.6401
27589SOL    HW2  378  10.107   0.306   7.403 -1.6858 -1.9511 -0.7967
27590SOL     OW  379   1.065   2.162  12.506  0.3991  0.1035 -0.1414
27590SOL    HW1  380   1.019   2.082  12.531  1.4027 -0.4067  0.1313
27590SOL    HW2  381   1.153   2.152  12.543  0.6067  1.2390 -0.2900
27591SOL     OW  382  11.281   7.950  11.962  0.0112  0.0478  0.0392
27591SOL    HW1  383  11.210   7.945  11.898  0.0416 -0.3051  0.0305
27591SOL    HW2  384  11.345   7.886  11.931 -0.7148 -1.3628  1.3290
27592SOL     OW  385  13.762   7.595   3.919  0.3584  0.0613  0.5329
27592SOL    HW1  386  13.847   7.602   3.961  0.7248  1.0407 -0.3344
27592SOL    HW2  387  13.779   7.612   3.826 -0.3333 -2.6326 -0.1789
27593SOL     OW  388   5.387   5.833  12.735  0.3109  0.2163 -0.2240
27593SOL    HW1  389   5.472   5.799  12.706  0.5569  2.4319 -2.4619
27593SOL    HW2  390   5.328   5.815  12.661 -1.4810 -1.9528  1.5674
27594SOL     OW  391   7.398   9.259   2.991  0.0256 -0.4310  0.1225
27594SOL    HW1  392   7.439   9.261   2.904 -0.4385  1.0126 -0.0834
27594SOL    HW2  393   7.309   9.292   2.977  0.3374  1.0210  1.3325
27595SOL     OW  394   5.597   1.202   5.646 -0.0447  0.2125  0.1819
27595SOL    HW1  395   5.593   1.232   5.555 -0.6911 -0.3079  0.0294
27595SOL    HW2  396   5.587   1.107   5.640 -0.2249  0.1894  0.8068
27596SOL     OW  397  12.212   0.535   7.139  0.4362  0.2596 -0.9071
27596SOL    HW1  398  12.148   0.537   7.210 -1.0674 -2.2084 -2.0509
27596SOL    HW2  399  12.195   0.615   7.090 -2.6977 -0.7698 -1.7975
27597SOL     OW  400   6.551   8.403   0.065 -0.1899  0.0484  0.2030
27597SOL    HW1  401   6.587   8.351  -0.007 -1.2969 -0.3018 -0.1176
27597SOL    HW2  402   6.627   8.430   0.116  0.4568 -1.3576  0.0185
27598SOL     OW  403   2.550  11.944   7.018 -0.1271  0.6770  0.3811
27598SOL    HW1  404   2.523  11.922   6.928  2.8485 -3.2586  0.1824
27598SOL    HW2  405   2.630  11.996   7.007  0.9283 -0.8368  0.6537
27599SOL     OW  406   4.807  10.633   0.861 -0.1236 -0.3732 -0.2177
27599SOL    HW1  407   4.807  10.594   0.774 -1.0645 -0.8519 -0.0190
27599SOL    HW2  408   4.897  10.660   0.876  0.5094 -2.2216 -0.4763
27600SOL     OW  409   6.098   1.758   5.208  0.9075 -0.1113  0.4688
27600SOL    HW1  410   6.028   1.721   5.155  0.8045  1.2828 -0.3920
27600SOL    HW2  411   6.057   1.829   5.257  1.5020  0.0950  0.6831
27601SOL     OW  412  12.865  10.343  11.215  0.4114  0.3487  0.5953
27601SOL    HW1  413  12.853  10.334  11.121  0.3508  1.9074  0.4324
27601SOL    HW2  414  12.779  10.324  11.253  0.0294  1.3074  0.2140
27602SOL     OW  415   6.068   5.834   4.339  0.3361  0.4662 -0.2219
27602SOL    HW1  416   6.131   5.853   4.409  2.1200  0.0840 -1.6684
27602SOL    HW2  417   6.031   5.748   4.363  1.0196  0.2786  0.1934
27603SOL     OW  418   6.684  10.174  11.715  0.0382 -0.3065  0.4172
27603SOL    HW1  419   6.734  10.254  11.735  0.4085 -0.5198  0.3488
27603SOL    HW2  420   6.593  10.201  11.725  0.0479  0.6949 -1.5961
27604SOL     OW  421   6.351  10.941  11.869  0.6087 -0.5611  0.1860
27604SOL    HW1  422   6.274  10.994  11.846  0.2955 -1.7024 -1.5927
27604SOL    HW2  423   6.391  10.988  11.942 -1.6973  0.1403  1.0913
27605SOL     OW  424   8.194   0.448  10.221 -0.5027 -0.4533  0.0129
27605SOL    HW1  425   8.169   0.356  10.235  0.2439 -0.5297  0.9176
27605SOL    HW2  426   8.116   0.498  10.247 -0.2609 -0.7504  1.3262
27606SOL     OW  427  13.460  10.536   8.298  0.3995  0.0998 -0.0767
27606SOL    HW1  428  13.376  10.491   8.285  0.8169 -1.4214  2.0366
27606SOL    HW2  429  13.478  10.577   8.213 -2.8586  1.1816 -0.4088
27607SOL     OW  430  12.977   0.343   7.385  0.4259  0.0087 -0.8880
27607SOL    HW1  431  12.917   0.399   7.336 -0.1512  1.3095  1.1600
27607SOL    HW2  432  12.982   0.383   7.472  1.0690 -2.3732  0.2755
27608SOL     OW  433   1.941   2.016  12.388 -0.2235 -0.4189  0.2709
27608SOL    HW1  434   1.899   2.047  12.308 -1.4239 -0.7872  0.7405
27608SOL    HW2  435   1.959   1.924  12.371  1.3680 -0.0431 -0.3036
27609SOL     OW  436  12.062   3.342   6.135 -0.1381  0.2099  0.6037
27609SOL    HW1  437  12.147   3.323   6.096 -0.3439  1.9353 -0.7744
27609SOL    HW2  438  12.082   3.366   6.226  0.8681  0.7031  0.2673
27610SOL     OW  439   4.426  13.425   0.697 -0.3644 -0.0121  0.5641
27610SOL    HW1  440   4.511  13.409   0.739 -0.4512  0.5134  0.9469
27610SOL    HW2  441   4.363  13.425   0.770 -0.4436  1.5122  0.5272
27611SOL     OW  442   0.072   9.471   7.184  0.5893  0.1316  0.2861
27611SOL    HW1  443   0.120   9.390   7.174 -0.2349 -0.4697  1.0696
27611SOL    HW2  444   0.133   9.539   7.155  1.0819 -0.8031 -0.9331
27612SOL     OW  445  12.059   3.251   7.290  0.2547 -0.0633  0.1017
27612SOL    HW1  446  12.085   3.184   7.353  0.3406  0.5529  0.7260
27612SOL    HW2  447  11.971   3.277   7.318  1.0968  1.7135  1.2712
27613SOL     OW  448   4.138  13.708   0.370 -0.1687 -0.0639  0.1478
27613SOL    HW1  449   4.106  13.796   0.349 -2.9171 -0.6740  1.2647
27613SOL    HW2  450   4.148  13.665   0.285 -0.1620  0.8783 -0.3437
27614SOL     OW  451  13.157   6.804   3.419 -0.0598 -0.4539 -0.1371
27614SOL    HW1  452  13.158   6.741   3.491  1.0584 -1.8822 -1.3457
27614SOL    HW2  453  13.078   6.781   3.369 -1.4638  1.2522  1.1640
27615SOL     OW  454   5.190  12.311   8.253 -0.5022  0.2701  0.1859
27615SOL    HW1  455   5.187  12.396   8.209 -1.5924 -0.2157 -0.7224
27615SOL    HW2  456   5.134  12.322   8.330 -2.2713 -0.1399 -0.9647
27616SOL     OW  457   9.638  12.881   8.532  0.6217  0.1428  0.0844
27616SOL    HW1  458   9.597  12.899   8.447  1.2965 -0.5082 -0.3912
27616SOL    HW2  459   9.568  12.840   8.584  0.0127  1.1467  0.0893
27617SOL     OW  460  11.399   1.779   3.919  0.3826 -0.2696 -0.2923
27617SOL    HW1  461  11.304   1.778   3.931  0.1731 -0.7692 -1.7548
27617SOL    HW2  462  11.426   1.868   3.938 -0.5665  0.1896 -1.0188
27618SOL     OW  463  10.474   0.530   7.567 -0.4745 -0.3463 -0.1248
27618SOL    HW1  464  10.484   0.605   7.625 -0.9067 -0.7696  0.5188
27618SOL    HW2  465  10.412   0.473   7.613  0.0269 -1.2010 -0.4887
27619SOL     OW  466  13.111   9.425   9.138  0.1078  0.0109 -0.1504
27619SOL    HW1  467  13.153   9.490   9.194  2.4758  0.8368 -2.6890
27619SOL    HW2  468  13.044   9.473   9.090 -0.2522 -0.1573  0.1740
27620SOL     OW  469   9.316  14.026   8.615  0.0490 -0.2137  0.0976
27620SOL    HW1  470   9.302  14.080   8.537  1.3043  0.2946  0.2008
27620SOL    HW2  471   9.377  13.958   8.586  1.3257  0.5662  0.8637
27621SOL     OW  472   2.645   0.799   3.243 -0.7121 -0.1310  0.0806
27621SOL    HW1  473   2.664   0.893   3.242  2.6074 -0.6633 -2.2385
27621SOL    HW2  474   2.664   0.772   3.333 -2.2046  1.4279  0.9188
27622SOL     OW  475   2.299   6.596   9.029 -0.2877 -0.4037 -0.0099
27622SOL    HW1  476   2.323   6.553   8.947 -1.8136 -0.4555 -0.4585
27622SOL    HW2  477   2.291   6.689   9.006  3.5843  0.3904  1.0814
27623SOL     OW  478   1.360  13.587  12.717 -0.2648  0.0983 -0.2283
27623SOL    HW1  479   1.324  13.551  12.635  0.4480 -0.2629 -0.3985
27623SOL    HW2  480   1.286  13.588  12.777 -0.3122 -1.8570 -0.1661
27624SOL     OW  481   0.796   0.744   0.150  0.2583 -0.1583 -0.1568
27624SOL    HW1  482   0.766   0.661   0.112  0.4698 -0.5632  0.5467
27624SOL    HW2  483   0.736   0.810   0.114  1.4790 -0.2491 -2.5462
27625SOL     OW  484   4.998   5.340  12.350  0.4016 -0.0681  0.6876
27625SOL    HW1  485   5.034   5.278  12.287 -0.6576 -0.5519  0.5452
27625SOL    HW2  486   4.926   5.293  12.391 -0.3094  1.0045  0.6942
27626SOL     OW  487   2.797   2.102  13.061  0.2110  0.2041  0.4054
27626SOL    HW1  488   2.854   2.025  13.058  1.3784  1.0496 -0.1242
27626SOL    HW2  489   2.729   2.079  13.124  1.4630 -0.6353  1.5198
27627SOL     OW  490  10.822  13.084   8.166 -0.7884 -0.1277  0.4981
27627SOL    HW1  491  10.888  13.113   8.229 -0.0008  0.2281 -0.4482
27627SOL    HW2  492  10.871  13.074   8.084 -1.9454  0.3247 -0.2742
27628SOL     OW  493   6.881   7.963   5.608 -0.6110  0.6412  0.4170
27628SOL    HW1  494   6.876   8.054   5.639  2.2313  0.3142  2.1147
27628SOL    HW2  495   6.961   7.959   5.557 -0.4299 -1.0427  0.7853
27629SOL     OW  496   8.176  11.235   2.578  0.1090 -0.0650  0.1212
27629SOL    HW1  497   8.128  11.238   2.661 -1.7948  1.8645 -0.9343
27629SOL    HW2  498   8.110  11.209   2.514  0.8768  1.0270 -1.1612
27630SOL     OW  499  10.430   6.200   2.696  0.2512 -0.2616 -0.1965
27630SOL    HW1  500  10.458   6.205   2.605  0.3421 -1.7327 -0.2806
27630SOL    HW2  501  10.450   6.110   2.722 -0.0415  0.0481  1.1904
27631SOL     OW  502  11.299   9.325   9.259  0.1628 -0.6528  0.3368
27631SOL    HW1  503  11.352   9.274   9.199 -0.2319  1.0491 -1.5827
27631SOL    HW2  504  11.341   9.314   9.344  0.7217 -3.1857 -0.1894
27632SOL     OW  505  12.027   9.488   9.552 -0.2762  0.5486 -0.3725
27632SOL    HW1  506  11.989   9.458   9.470  0.3422  0.0259 -0.4751
27632SOL    HW2  507  11.997   9.579   9.561  0.8740  1.1292 -1.9392
27633SOL     OW  508   8.895   8.445   4.017  0.0457  0.2386 -0.1673
27633SOL    HW1  509   8.809   8.456   4.058  0.8654 -1.8762  2.3999
27633SOL    HW2  510   8.878   8.391   3.940 -0.8772 -0.5548  0.5669
27634SOL     OW  511   1.829   5.002  11.544 -0.2648  0.3211 -0.3074
27634SOL    HW1  512   1.832   4.935  11.476  1.1821 -0.2720  0.3049
27634SOL    HW2  513   1.906   4.985  11.599  0.3195  2.6524 -0.2941
27635SOL     OW  514   3.269   8.375   9.919 -0.0439 -0.3263 -0.1855
27635SOL    HW1  515   3.245   8.389   9.828 -0.3797  0.4183  0.0081
27635SOL    HW2  516   3.199   8.418   9.969  1.1712  1.0854  0.3960
27636SOL     OW  517   5.172   9.716   6.554  0.0840 -0.6232 -0.5475
27636SOL    HW1  518   5.266   9.723   6.540  0.2932 -1.3669  0.3807
27636SOL    HW2  519   5.133   9.766   6.482  1.1803 -0.2791 -0.9218
27637SOL     OW  520   3.794  11.797   9.428 -0.0318  0.0440  0.1924
27637SOL    HW1  521   3.794  11.745   9.347  0.0399 -0.4250  0.4907
27637SOL    HW2  522   3.738  11.873   9.408 -2.2893 -1.4312  0.5817
27638SOL     OW  523  14.002  12.099   2.253 -0.4607 -0.2952 -0.0698
27638SOL    HW1  524  13.955  12.109   2.170 -0.1820 -0.4256 -0.2432
27638SOL    HW2  525  14.071  12.164   2.250 -1.1408  0.4794  0.5525
27639SOL     OW  526  13.895   7.201   9.475 -0.2591 -0.2711 -0.0929
27639SOL    HW1  527  13.862   7.130   9.419 -0.2714 -1.8447  1.7852
27639SOL    HW2  528  13.990   7.186   9.477 -0.3964 -1.1123  1.3692
27640SOL     OW  529  12.776   7.358  11.696  0.4804 -0.4472 -0.6554
27640SOL    HW1  530  12.849   7.329  11.642  0.3019  0.5915 -1.4869
27640SOL    HW2  531  12.814   7.420  11.757  0.3124  0.0196 -1.0230
27641SOL     OW  532  11.315   4.649   0.230  0.0445  0.0138  0.2005
27641SOL    HW1  533  11.295   4.708   0.302  0.9527  0.7593 -0.1360
27641SOL    HW2  534  11.349   4.705   0.160  1.3870 -0.9295  0.0412
27642SOL     OW  535  13.449   8.782   0.527 -0.1111  0.1850 -0.2287
27642SOL    HW1  536  13.467   8.695   0.563 -1.7745 -1.1426 -2.3543
27642SOL    HW2  537  13.512   8.839   0.570  3.4402 -2.6164 -1.2501
27643SOL     OW  538   5.848   8.491   3.098  0.0326  0.5059 -0.0680
27643SOL    HW1  539   5.881   8.540   3.023 -0.1658  1.9795  0.7745
27643SOL    HW2  540   5.878   8.539   3.174  0.7614 -1.3154  0.8546
27644SOL     OW  541   2.835  10.471   8.993  0.3104  0.6030 -0.2772
27644SOL    HW1  542   2.743  10.474   9.022  0.3159 -1.1085  0.0207
27644SOL    HW2  543   2.866  10.562   9.002 -0.5209  0.6982  2.4023
27645SOL     OW  544  11.460  13.190  12.360  0.4724  0.4157  0.0410
27645SOL    HW1  545  11.496  13.205  12.447  1.0966  0.5770 -0.2334
27645SOL    HW2  546  11.377  13.237  12.359  0.4194  0.3342  0.5779
27646SOL     OW  547   9.248  13.303  10.827  0.3589  0.9003 -0.0004
27646SOL    HW1  548   9.338  13.291  10.857  0.6683  0.2344 -1.1637
27646SOL    HW2  549   9.241  13.397  10.807 -0.1042  1.5684  2.8246
27647SOL     OW  550   3.180   9.690   7.256 -0.2774  0.2322 -0.6653
27647SOL    HW1  551   3.144   9.701   7.168  0.7468 -1.8991 -1.4087
27647SOL    HW2  552   3.238   9.614   7.249 -1.1313 -0.7946  2.1457
27648SOL     OW  553   8.827   4.373   3.188 -0.1841  0.9504  0.6052
27648SOL    HW1  554   8.815   4.344   3.279 -0.2630  0.9155  0.5838
27648SOL    HW2  555   8.890   4.445   3.194  2.0854 -0.8998  0.3892
27649SOL     OW  556   5.128  10.423   3.992 -0.0320 -0.1791  0.3692
27649SOL    HW1  557   5.088  10.373   4.063 -1.0858  0.1464  0.0192
27649SOL    HW2  558   5.169  10.497   4.037 -2.2169  1.0110  0.5433
27650SOL     OW  559   8.876  13.951  12.347  0.2317  0.1036 -0.3528
27650SOL    HW1  560   8.867  13.981  12.438  0.4099  1.7633 -0.8519
27650SOL    HW2  561   8.791  13.969  12.307  0.6846  0.9752 -0.9470
27651SOL     OW  562   1.790   1.704   5.503 -0.3767 -0.1067 -0.3245
27651SOL    HW1  563   1.794   1.786   5.551 -1.6272 -0.8964  1.2071
27651SOL    HW2  564   1.697   1.690   5.486 -0.0719 -0.5393 -1.7974
27652SOL     OW  565   1.683  10.618   0.676  0.0169 -0.3509  0.0465
27652SOL    HW1  566   1.591  10.595   0.664 -0.5145  0.0257  2.7153
27652SOL    HW2  567   1.681  10.695   0.733  1.9722 -0.2001 -0.0251
27653SOL     OW  568   5.783  11.512   1.566  0.0125 -0.2526  0.6728
27653SOL    HW1  569   5.867  11.477   1.597  1.1355  1.8223  0.1592
27653SOL    HW2  570   5.789  11.606   1.581 -1.3858  0.2202 -1.2606
27654SOL     OW  571   1.244   9.578   9.409 -0.0180  0.2530 -0.0525
27654SOL    HW1  572   1.283   9.492   9.390 -0.2593  0.6668 -2.9665
27654SOL    HW2  573   1.313   9.641   9.386 -0.4470  0.8756  0.3400
27655SOL     OW  574   1.995   6.095   4.538 -0.6015 -0.4634 -0.0729
27655SOL    HW1  575   1.915   6.148   4.542  0.0927  0.5456  0.9561
27655SOL    HW2  576   1.982   6.027   4.604 -0.1002  0.4694  1.0161
27656SOL     OW  577   1.546   3.762  11.889  0.2073  0.5747  0.0896
27656SOL    HW1  578   1.611   3.698  11.861 -1.6358 -1.9851  1.2358
27656SOL    HW2  579   1.542   3.752  11.984 -3.1019 -0.8196 -0.0692
27657SOL     OW  580   6.565   1.066   4.804  0.5079 -0.0440  1.0270
27657SOL    HW1  581   6.650   1.070   4.849  0.7695  1.1990  0.4656
27657SOL    HW2  582   6.533   0.978   4.822  2.2554 -0.8060  0.6688
27658SOL     OW  583   6.811   7.909  13.825  0.1802  0.0751 -0.3168
27658SOL    HW1  584   6.746   7.932  13.758 -0.5377 -1.1837 -0.0877
27658SOL    HW2  585   6.808   7.813  13.828 -0.7018  0.1287  2.3980
27659SOL     OW  586  10.789  11.026  11.479  0.5055  0.8486  0.2085
27659SOL    HW1  587  10.815  10.968  11.550 -0.1608  0.3983  0.0993
27659SOL    HW2  588  10.713  10.983  11.440 -0.8064  2.3889  0.9108
27660SOL     OW  589   2.754   2.004   3.655  0.6149  0.2154  0.4732
27660SOL    HW1  590   2.749   2.096   3.680  1.2627 -0.5888  4.1385
27660SOL    HW2  591   2.806   2.003   3.575  2.4432  2.9147  1.4881
27661SOL     OW  592   0.689  10.232   8.642  0.7452  0.1343 -0.5154
27661SOL    HW1  593   0.726  10.147   8.617  0.8343 -0.5593  1.7336
27661SOL    HW2  594   0.647  10.216   8.727 -0.3225  2.0728 -0.6139
27662SOL     OW  595   7.732   1.129   4.297 -0.5552  0.5333 -0.1719
27662SOL    HW1  596   7.697   1.082   4.372  2.3992 -0.5794  0.6256
27662SOL    HW2  597   7.723   1.067   4.224  0.8374 -0.2492  0.2984
27663SOL     OW  598  11.249   3.016   7.401  0.2883  0.4588 -0.5578
27663SOL    HW1  599  11.318   3.044   7.341  0.4676  0.9164 -0.1417
27663SOL    HW2  600  11.212   2.938   7.360  1.1313  0.1341 -0.7223
27664SOL     OW  601  13.741  12.635   1.103  0.2092  0.2489 -0.0073
27664SOL    HW1  602  13.823  12.667   1.142  0.8001 -1.6114  0.4106
27664SOL    HW2  603  13.744  12.540   1.118 -2.5978  0.2563  1.0743
27665SOL     OW  604  11.713  10.945   9.392 -0.1721 -0.2156  0.6742
27665SOL    HW1  605  11.696  11.038   9.408  0.3951 -0.1335  0.8240
27665SOL    HW2  606  11.795  10.927   9.438 -1.4028 -1.3521  2.5704
27666SOL     OW  607   7.148   5.100   2.977  0.5993  0.0395  0.5952
27666SOL    HW1  608   7.242   5.086   2.989  0.8980 -0.8067 -2.0494
27666SOL    HW2  609   7.143   5.159   2.901 -0.9828 -1.4895 -0.5606
27667SOL     OW  610   8.850  11.253  12.891  0.1463  0.0756 -0.0873
27667SOL    HW1  611   8.805  11.177  12.929 -0.7516  0.7545  0.2606
27667SOL    HW2  612   8.822  11.255  12.800 -1.7982  1.3392  0.4667
27668SOL     OW  613  11.092   7.549   9.378  0.0336  0.3318 -0.1744
27668SOL    HW1  614  11.012   7.601   9.386  0.5438  1.3833 -1.3742
27668SOL    HW2  615  11.108   7.545   9.283  0.9256 -0.6022 -0.0015
27669SOL     OW  616   4.889   2.277   4.978 -0.4158 -0.2485  0.9011
27669SOL    HW1  617   4.884   2.313   4.889  1.2241 -1.1273  0.3999
27669SOL    HW2  618   4.867   2.351   5.035 -0.9198  0.4913 -0.2149
27670SOL     OW  619  10.496   1.926   2.180 -0.0209  0.1656 -0.7716
27670SOL    HW1  620  10.579   1.900   2.220 -0.6775 -0.1559  0.4063
27670SOL    HW2  621  10.469   1.850   2.128 -0.8850 -0.7781  0.9839
27671SOL     OW  622  10.284   2.996  12.038 -0.2434 -0.2041  0.2143
27671SOL    HW1  623  10.292   3.089  12.058 -0.0246  0.0207 -0.8453
27671SOL    HW2  624  10.339   2.952  12.103  0.5148  0.4932  0.0583
27672SOL     OW  625   1.061   9.240   5.965 -0.5477  0.0283  0.4021
27672SOL    HW1  626   0.986   9.297   5.950 -0.9118 -1.0187 -2.3421
27672SOL    HW2  627   1.026   9.151   5.958  0.8963 -0.4897 -0.9266
27673SOL     OW  628   8.009   4.022   7.648  0.1434 -0.2282 -0.0444
27673SOL    HW1  629   7.940   4.029   7.714 -1.6075 -1.7452 -1.5839
27673SOL    HW2  630   8.089   4.009   7.698 -0.4917  2.3723  1.8413
27674SOL     OW  631   3.686   1.976   3.664  0.0007  0.3291  0.0288
27674SOL    HW1  632   3.682   2.048   3.727  1.9100 -0.7287  1.4537
27674SOL    HW2  633   3.727   1.904   3.712 -1.8907 -1.7780 -1.3213
27675SOL     OW  634   0.943   0.590   0.788  0.2673  0.0979 -0.7047
27675SOL    HW1  635   0.914   0.534   0.860 -0.1124  0.0400 -0.9049
27675SOL    HW2  636   0.954   0.531   0.714 -0.4270  0.3286 -0.9999
27676SOL     OW  637   9.296   0.929   7.364 -0.3037  0.6389 -0.1486
27676SOL    HW1  638   9.266   0.844   7.331  3.2723 -0.1151 -1.8835
27676SOL    HW2  639   9.327   0.976   7.286 -1.5784  3.3634  0.8459
27677SOL     OW  640   1.426   0.018   9.782  0.3010  0.3290  0.5779
27677SOL    HW1  641   1.448   0.063   9.863  0.9991  1.5076 -0.2280
27677SOL    HW2  642   1.491  -0.052   9.774 -0.0648 -0.0984  1.2540
27678SOL     OW  643   6.412  13.977   2.643  0.0126 -0.5367  0.0536
27678SOL    HW1  644   6.486  13.926   2.675  0.2919  1.0011  2.0563
27678SOL    HW2  645   6.415  13.967   2.547  2.1160 -1.4127  0.1718
27679SOL     OW  646  12.598   4.629   3.007 -0.6212  0.5420  0.6884
27679SOL    HW1  647  12.635   4.642   2.919  0.3995 -0.5581  0.9338
27679SOL    HW2  648  12.600   4.716   3.047 -2.5146  1.3975 -0.8700
27680SOL     OW  649   9.737   4.303   3.125 -0.1748 -0.4850  0.6130
27680SOL    HW1  650   9.829   4.308   3.099 -0.9643  0.0752 -2.4658
27680SOL    HW2  651   9.709   4.394   3.134 -0.5467 -0.6450  1.1287
27681SOL     OW  652  11.879   7.875   1.831  0.2308 -0.5232  0.0311
27681SOL    HW1  653  11.971   7.850   1.835 -0.0823 -1.4961  2.5594
27681SOL    HW2  654  11.834   7.796   1.801  0.0518 -0.4974  0.2344
27682SOL     OW  655   7.225  12.223  12.959  0.2874 -0.4210  0.6672
27682SOL    HW1  656   7.161  12.210  13.029  0.8044 -2.1064  0.8727
27682SOL    HW2  657   7.206  12.154  12.896  0.5979  0.3459 -0.2881
27683SOL     OW  658   2.660   6.111   4.466 -0.2164 -0.1957  0.1639
27683SOL    HW1  659   2.651   6.202   4.495 -0.4972 -0.3588  0.5970
27683SOL    HW2  660   2.750   6.104   4.435 -0.0898  0.1367  0.4565
27684SOL     OW  661  10.674   2.044   6.190  0.0634  0.1255  0.2147
27684SOL    HW1  662  10.626   1.984   6.134  1.2343  1.0338 -1.8770
27684SOL    HW2  663  10.746   1.991   6.225 -0.0181 -0.1760 -0.0664
27685SOL     OW  664  10.051   1.710   5.697  0.0881  0.4222  0.1080
27685SOL    HW1  665  10.107   1.717   5.775 -0.6643  2.3630  0.5396
27685SOL    HW2  666   9.962   1.705   5.732 -0.2191  0.6534 -0.6194
27686SOL     OW  667   9.909  10.767  13.711 -0.2160  0.3709 -0.1269
27686SOL    HW1  668   9.919  10.723  13.627  0.9147  0.3952 -0.0100
27686SOL    HW2  669   9.900  10.695  13.774 -1.2971  0.3544 -0.2803
27687SOL     OW  670   8.613   1.386   3.218 -0.1888 -0.2950 -0.1311
27687SOL    HW1  671   8.521   1.364   3.232  0.0767 -0.9809  0.6097
27687SOL    HW2  672   8.615   1.425   3.131 -1.2634  0.2233  0.0529
27688SOL     OW  673  13.259   6.202   5.464  0.9284 -0.1740 -0.0874
27688SOL    HW1  674  13.332   6.260   5.445  0.2483  1.0654  0.9356
27688SOL    HW2  675  13.268   6.181   5.557 -2.1455  3.3083  1.2515
27689SOL     OW  676   7.483   4.586  11.975 -0.2443 -0.4403  0.0082
27689SOL    HW1  677   7.559   4.643  11.984 -0.5921  0.0106  0.1482
27689SOL    HW2  678   7.464   4.586  11.881  1.9310 -3.2307 -0.5609
27690SOL     OW  679   3.891   0.813   9.475 -0.2373 -0.0048 -0.2732
27690SOL    HW1  680   3.927   0.725   9.465 -0.5538 -0.0231 -1.3994
27690SOL    HW2  681   3.867   0.819   9.568  1.8213 -0.2962  0.3283
27691SOL     OW  682   2.761   7.015  11.234 -0.0415 -0.2019  0.4291
27691SOL    HW1  683   2.688   7.024  11.174  1.4181 -0.9734 -1.5822
27691SOL    HW2  684   2.816   7.091  11.218  0.1881 -0.2172  1.0837
27692SOL     OW  685   9.935  11.799  10.498  0.5432 -0.8388 -0.4085
27692SOL    HW1  686   9.849  11.775  10.462  0.7530 -1.5263 -0.4607
27692SOL    HW2  687   9.949  11.737  10.569  0.6810 -0.2687  0.0632
27693SOL     OW  688  10.875   7.639  12.948  0.0562  0.1559  0.1101
27693SOL    HW1  689  10.901   7.596  12.867  3.0344  2.4546 -0.3427
27693SOL    HW2  690  10.851   7.728  12.922 -0.0003  0.6073  1.6196
27694SOL     OW  691   8.356  13.586   6.475 -0.2041 -0.0741 -0.2126
27694SOL    HW1  692   8.293  13.592   6.403 -0.9063  0.5561  0.4289
27694SOL    HW2  693   8.305  13.610   6.552  1.0659  1.5287  0.1841
27695SOL     OW  694  13.363  10.894   4.600  0.4597  0.2299  0.3357
27695SOL    HW1  695  13.425  10.826   4.574 -0.2458 -1.0572  1.8400
27695SOL    HW2  696  13.297  10.848   4.652 -1.2616  1.7130 -0.4369
27696SOL     OW  697   4.026  11.169   1.725 -0.6163 -0.6120 -0.6033
27696SOL    HW1  698   4.049  11.180   1.633 -0.0715  1.0197 -0.3131
27696SOL    HW2  699   3.931  11.154   1.725 -0.9410  1.2004 -1.3560
27697SOL     OW  700  12.310   9.830   8.643  0.0109  0.1882  0.0499
27697SOL    HW1  701  12.309   9.781   8.560 -1.9467 -0.2072  0.2670
27697SOL    HW2  702  12.237   9.794   8.693  0.8218  0.8027  1.7507
27698SOL     OW  703   4.813   7.439   0.540 -0.6496  0.4863  0.3298
27698SOL    HW1  704   4.873   7.364   0.546 -0.7416  0.3868  0.0543
27698SOL    HW2  705   4.790   7.443   0.447 -0.1127  1.2775  0.2313
27699SOL     OW  706  11.103   8.033   7.278  0.1628  0.1420 -0.0699
27699SOL    HW1  707  11.155   8.112   7.277  1.5031 -0.7071  0.3833
27699SOL    HW2  708  11.144   7.976   7.213 -1.4974  0.2241 -1.2740
27700SOL     OW  709   1.055   3.492   9.251  0.1814  0.4173 -0.8338
27700SOL    HW1  710   1.032   3.582   9.230  0.1524  0.6089 -0.0397
27700SOL    HW2  711   1.150   3.492   9.258  0.0988  0.8363  0.9549
27701SOL     OW  712   2.639   3.251   0.318  0.0021  0.5509  0.2275
27701SOL    HW1  713   2.587   3.171   0.311 -0.0378  0.4893  1.1409
27701SOL    HW2  714   2.706   3.230   0.382  0.9407  0.7596 -0.6569
27702SOL     OW  715   5.376  13.931   7.841  0.0629 -0.9497  0.0801
27702SOL    HW1  716   5.287  13.960   7.860 -0.2673 -0.4036 -2.0579
27702SOL    HW2  717   5.365  13.848   7.796  0.5188 -0.2567 -1.3756
27703SOL     OW  718  10.730   4.948  11.934  0.3837 -0.0562 -0.7079
27703SOL    HW1  719  10.735   5.029  11.883 -0.7224  1.4036  1.3490
27703SOL    HW2  720  10.776   4.968  12.016 -0.0096 -1.4616 -0.1121
27704SOL     OW  721   2.878   1.712  10.307 -0.6186 -0.5579 -0.5891
27704SOL    HW1  722   2.828   1.772  10.363 -0.8973 -1.0750 -0.2702
27704SOL    HW2  723   2.830   1.629  10.314 -0.0273 -0.9107 -0.7276
27705SOL     OW  724   2.257  10.133   0.100 -0.2521 -0.6658 -0.0084
27705SOL    HW1  725   2.349  10.129   0.074  0.3966 -2.0121  2.1960
27705SOL    HW2  726   2.220  10.050   0.070 -0.7278 -0.2128 -0.7106
27706SOL     OW  727  11.961  10.585   5.651 -0.1186 -0.0908 -0.3866
27706SOL    HW1  728  11.865  10.587   5.643 -0.0849 -2.0328 -2.2748
27706SOL    HW2  729  11.990  10.666   5.609 -0.9197  0.0094 -0.7735
27707SOL     OW  730  10.794   2.209   7.402 -0.1886  0.1734  0.3500
27707SOL    HW1  731  10.835   2.289   7.437  1.1577 -1.5582  3.0949
27707SOL    HW2  732  10.860   2.141   7.415 -0.7812 -1.2850 -3.0633
27708SOL     OW  733   9.853   7.541   8.207 -0.2855 -0.1603 -0.0272
27708SOL    HW1  734   9.912   7.614   8.188 -0.1885 -0.5537 -1.3495
27708SOL    HW2  735   9.766   7.574   8.187 -0.2309 -0.4295 -0.7322
27709SOL     OW  736  13.462   9.409  12.993 -0.1952 -0.1323  0.2470
27709SOL    HW1  737  13.374   9.436  13.020 -0.6140 -1.0015 -0.2206
27709SOL    HW2  738  13.487   9.344  13.059 -0.2500 -0.5007 -0.0922
27710SOL     OW  739  12.090  12.687   1.660  0.4599  0.2358  0.4491
27710SOL    HW1  740  12.062  12.607   1.705  2.4859 -1.2623 -0.7842
27710SOL    HW2  741  12.140  12.655   1.584  1.2555  2.6826 -0.1309
27711SOL     OW  742  10.265   2.679   8.259 -0.5426  0.4655 -0.2108
27711SOL    HW1  743  10.347   2.663   8.305 -1.3870 -0.7558  0.9199
27711SOL    HW2  744  10.259   2.607   8.196 -0.8277  0.4604 -0.1765
27712SOL     OW  745   0.270   0.378  13.064 -0.2291  0.2444 -0.5807
27712SOL    HW1  746   0.243   0.288  13.085 -0.5186  0.2457 -0.9339
27712SOL    HW2  747   0.251   0.387  12.971 -2.1881  1.3481 -0.1396
27713SOL     OW  748  11.669   3.220   9.460  0.2222 -0.9562 -0.3016
27713SOL    HW1  749  11.668   3.306   9.501  0.5934 -0.1421 -1.9201
27713SOL    HW2  750  11.651   3.159   9.531 -1.3165  0.5401  0.6785
27714SOL     OW  751  12.863   2.819   9.185  0.1678  0.0099  0.2108
27714SOL    HW1  752  12.958   2.827   9.186  0.0904  1.0420  0.0178
27714SOL    HW2  753  12.832   2.899   9.142 -0.8670  0.4756  1.7459
27715SOL     OW  754   6.799   1.178   4.215 -0.0304  0.2010  0.5715
27715SOL    HW1  755   6.719   1.164   4.163  0.7993 -2.6914 -0.0928
27715SOL    HW2  756   6.774   1.155   4.304 -0.8610  3.0191  1.1597
27716SOL     OW  757  12.093  11.395   6.099  0.0395 -0.3904  0.3674
27716SOL    HW1  758  12.141  11.315   6.077 -0.4419 -0.5592 -0.0668
27716SOL    HW2  759  12.161  11.463   6.101  0.0802 -0.2897 -1.9891
27717SOL     OW  760   3.277  12.384   5.631 -0.7087  0.0661  0.4287
27717SOL    HW1  761   3.332  12.323   5.679 -1.0334  0.2438  1.0358
27717SOL    HW2  762   3.215  12.329   5.582 -0.4286 -0.1104  0.2723
27718SOL     OW  763   8.576   0.676  12.580 -0.3259  0.1023 -0.6222
27718SOL    HW1  764   8.585   0.627  12.499 -0.4873 -1.2808  0.1647
27718SOL    HW2  765   8.483   0.670  12.602 -0.2551  0.3252 -0.2515
27719SOL     OW  766   6.041   5.041   0.847 -1.4075 -0.7931 -0.3354
27719SOL    HW1  767   6.036   4.953   0.812  0.3352 -0.1537 -2.4029
27719SOL    HW2  768   5.971   5.089   0.804  0.0280 -0.2917 -2.2725
27720SOL     OW  769   9.406   5.657   2.801 -0.0757  0.2801 -0.4882
27720SOL    HW1  770   9.413   5.752   2.812 -0.5077  0.2187  0.3722
27720SOL    HW2  771   9.314   5.643   2.778  0.1583  0.1271 -1.3971
27721SOL     OW  772   5.133   8.946   4.840  0.0375 -0.1158 -0.1038
27721SOL    HW1  773   5.144   9.040   4.830 -0.9657  0.0275 -0.0305
27721SOL    HW2  774   5.210   8.907   4.799 -0.1577  0.7100 -1.3060
27722SOL     OW  775   5.979   4.575   0.895 -0.2010 -0.3945 -0.6798
27722SOL    HW1  776   5.919   4.542   0.963 -1.4537  0.5465 -1.3026
27722SOL    HW2  777   5.931   4.646   0.853  1.2413  0.1616 -1.4272
27723SOL     OW  778  10.600  13.237   3.373  0.4163  0.8617  0.0626
27723SOL    HW1  779  10.659  13.231   3.448  1.0053  0.9499 -0.3797
27723SOL    HW2  780  10.611  13.153   3.328  0.5357  1.0474 -0.2599
27724SOL     OW  781  12.567   8.394   8.326 -0.4014 -0.2713 -0.3651
27724SOL    HW1  782  12.636   8.328   8.321 -0.4246 -0.2808 -0.5770
27724SOL    HW2  783  12.586   8.443   8.406 -0.7365 -0.9327  0.1344
27725SOL     OW  784   3.429   4.047  13.698  0.0273  0.2216 -0.3818
27725SOL    HW1  785   3.356   4.095  13.660 -0.4864 -0.0347  0.2659
27725SOL    HW2  786   3.464   4.105  13.766 -0.4185 -0.1871  0.2095
27726SOL     OW  787   5.246   6.634  12.270 -0.5651 -0.7310 -0.2612
27726SOL    HW1  788   5.221   6.669  12.355 -1.7616  0.4609 -1.0680
27726SOL    HW2  789   5.260   6.711  12.215 -0.1672 -1.4822 -1.2435
27727SOL     OW  790  13.368   3.312   9.539 -0.8582  0.5842 -0.1281
27727SOL    HW1  791  13.359   3.402   9.570 -0.9274  1.6968 -3.0640
27727SOL    HW2  792  13.461   3.303   9.517 -0.8597 -0.0352  0.0988
27728SOL     OW  793   8.856   6.933  11.427  0.0994 -0.0101 -0.0679
27728SOL    HW1  794   8.886   6.842  11.431 -1.0092 -0.4442 -0.9821
27728SOL    HW2  795   8.837   6.955  11.518 -0.8414 -1.1521  0.0426
27729SOL     OW  796  11.086   3.728   3.215  0.2575  0.3457 -0.2272
27729SOL    HW1  797  11.036   3.659   3.172 -0.3429  0.7297 -0.1573
27729SOL    HW2  798  11.178   3.708   3.194  0.2276 -1.3612  1.1160
27730SOL     OW  799   0.957   7.648   0.138 -0.0932  0.6072  0.0071
27730SOL    HW1  800   0.867   7.617   0.144 -0.3173  1.1672 -0.3940
27730SOL    HW2  801   1.009   7.578   0.178 -0.6957  0.2554  0.1895
27731SOL     OW  802   1.079   3.683   4.240 -0.0213 -0.0147 -0.1961
27731SOL    HW1  803   1.037   3.647   4.162 -0.4053  0.7371 -0.3474
27731SOL    HW2  804   1.006   3.721   4.290  0.3003  0.0320  0.2414
27732SOL     OW  805   3.977   5.696   1.784  0.4670  0.1844  0.3560
27732SOL    HW1  806   3.936   5.778   1.756 -1.5695 -1.1800 -0.9568
27732SOL    HW2  807   3.958   5.690   1.877  1.1238  1.4441  0.5870
27733SOL     OW  808   7.570   0.107  13.019  0.2661 -0.1201  0.1813
27733SOL    HW1  809   7.590   0.186  12.969  1.0699 -0.2498  0.2802
27733SOL    HW2  810   7.512   0.057  12.963  1.5979 -0.5291 -0.8975
27734SOL     OW  811  12.130   1.953   0.835 -0.1239  0.1943 -0.3650
27734SOL    HW1  812  12.224   1.968   0.842  0.0200 -1.0090  0.6959
27734SOL    HW2  813  12.122   1.869   0.789 -0.4884 -1.5129  2.5653
27735SOL     OW  814   1.437   2.033  12.976  0.0522  0.0638 -0.0604
27735SOL    HW1  815   1.416   1.971  13.047 -1.0579 -0.3663 -0.7369
27735SOL    HW2  816   1.470   1.978  12.905 -0.5082  0.2790 -0.5010
27736SOL     OW  817   8.320   6.075   5.056 -0.3101 -0.0101 -0.1975
27736SOL    HW1  818   8.310   5.997   5.110 -1.1456  1.3059  1.6820
27736SOL    HW2  819   8.414   6.090   5.052 -0.2301 -0.1450  0.9289
27737SOL     OW  820   5.947   0.501   7.769 -0.2577 -0.0548  0.6362
27737SOL    HW1  821   6.020   0.467   7.821 -0.3462  0.4102  1.0727
27737SOL    HW2  822   5.902   0.562   7.828 -0.9407 -0.2617  0.3397
27738SOL     OW  823   3.307   9.258   4.357  0.6057  0.1514  0.0994
27738SOL    HW1  824   3.321   9.171   4.318  0.0295  0.6600 -1.2957
27738SOL    HW2  825   3.395   9.292   4.372  0.8431 -0.1161 -0.6478
27739SOL     OW  826  13.530  13.854   3.905  0.4220 -0.5391 -0.2575
27739SOL    HW1  827  13.563  13.823   3.821 -0.6580  1.1624 -1.3709
27739SOL    HW2  828  13.443  13.814   3.913 -0.3432  0.9057 -0.9813
27740SOL     OW  829   1.184   0.560   9.101 -0.1210  0.5360  0.9570
27740SOL    HW1  830   1.131   0.501   9.154 -1.9808  0.7606 -0.5247
27740SOL    HW2  831   1.189   0.517   9.015  0.2019  1.5895  0.4245
27741SOL     OW  832   2.668   1.288  12.381  0.4258 -0.0824  0.4575
27741SOL    HW1  833   2.616   1.285  12.300  0.7000  0.4094  0.2586
27741SOL    HW2  834   2.741   1.347  12.360  1.2911 -1.0824  0.5962
27742SOL     OW  835   3.021   5.866   9.096 -0.0118  0.1344  0.1264
27742SOL    HW1  836   2.932   5.838   9.117 -0.2863  1.1007  0.3263
27742SOL    HW2  837   3.025   5.956   9.129  1.0390  0.0977  0.1128
27743SOL     OW  838  11.322  10.480  10.893 -0.6023 -0.9560  0.6067
27743SOL    HW1  839  11.310  10.539  10.819 -1.3699 -0.7229  0.9073
27743SOL    HW2  840  11.402  10.431  10.873 -0.6669 -0.7146 -0.2449
27744SOL     OW  841   0.459  13.729   9.067  0.3887 -0.2658  0.1732
27744SOL    HW1  842   0.467  13.662   9.134 -0.0531  0.3118  0.8169
27744SOL    HW2  843   0.377  13.707   9.022 -0.2326  0.3640  0.9828
27745SOL     OW  844   7.214  13.802  13.387 -0.2111 -0.8232  0.0636
27745SOL    HW1  845   7.138  13.843  13.428 -0.0107 -0.8293  0.4448
27745SOL    HW2  846   7.246  13.868  13.325 -0.2775 -0.6564  0.2052
27746SOL     OW  847  11.119   7.066   2.102 -0.8787  0.1255 -0.1521
27746SOL    HW1  848  11.108   6.980   2.142 -0.8335 -0.1588 -0.7408
27746SOL    HW2  849  11.047   7.119   2.136 -0.6351 -0.0028  0.5810
27747SOL     OW  850   4.279   8.976  14.069  0.2327  0.3443 -0.2337
27747SOL    HW1  851   4.185   8.990  14.056  0.1254  0.5010  0.6284
27747SOL    HW2  852   4.313   8.959  13.981 -0.3425  1.8075 -0.7748
27748SOL     OW  853  10.753   0.007  12.899 -0.8858 -0.5102 -0.3618
27748SOL    HW1  854  10.847   0.017  12.909 -1.0253 -0.0839  0.6470
27748SOL    HW2  855  10.741  -0.016  12.807  0.2081 -0.7312 -0.4650
27749SOL     OW  856   8.504  12.027  12.069  0.5400  0.6024  0.1821
27749SOL    HW1  857   8.576  12.040  12.007 -1.1226  1.9594 -1.5758
27749SOL    HW2  858   8.432  12.077  12.033 -0.9744  0.2496  2.5064
27750SOL     OW  859  11.659   2.805   7.051 -0.2247  0.6624 -0.5935
27750SOL    HW1  860  11.615   2.741   7.107  0.2196  1.0432  0.2150
27750SOL    HW2  861  11.593   2.872   7.033  0.3982  2.1522  2.0550
27751SOL     OW  862   9.441   2.566  13.885 -0.2516 -0.0865  0.6064
27751SOL    HW1  863   9.361   2.549  13.836 -0.0731  2.9765 -0.9916
27751SOL    HW2  864   9.415   2.560  13.977 -1.4410 -2.4572  0.1913
27752SOL     OW  865  12.005   6.364   3.331 -0.6222  0.0368  0.8080
27752SOL    HW1  866  12.035   6.455   3.340 -0.3891 -0.0891  1.3422
27752SOL    HW2  867  12.025   6.341   3.240  0.4592  0.1225  1.0048
27753SOL     OW  868  11.180   4.821   0.730 -0.1866 -0.0838  0.3909
27753SOL    HW1  869  11.157   4.906   0.770 -2.3550 -0.6172  0.4103
27753SOL    HW2  870  11.253   4.789   0.783 -1.5432  0.2511  2.6071
27754SOL     OW  871   5.868   7.876  10.059 -0.2134  0.4067  0.1290
27754SOL    HW1  872   5.946   7.827  10.084 -1.2960 -0.7002  1.5286
27754SOL    HW2  873   5.892   7.967  10.072  1.3505  0.2000 -1.0212
27755SOL     OW  874  10.892   1.909   6.288 -1.2629  0.8243  0.1933
27755SOL    HW1  875  10.977   1.872   6.315 -1.9244  0.3193  1.7038
27755SOL    HW2  876  10.900   1.920   6.194  0.3093  0.2988  0.2296
27756SOL     OW  877   0.218   1.900   8.483  0.4375  0.2549 -0.2736
27756SOL    HW1  878   0.185   1.989   8.471 -3.5338 -1.2243 -1.8069
27756SOL    HW2  879   0.272   1.885   8.405 -0.5851  0.6862 -1.0930
27757SOL     OW  880   1.482   3.470   2.429  0.3111  0.2791  0.3167
27757SOL    HW1  881   1.492   3.493   2.337 -0.4229 -1.7554 -0.3226
27757SOL    HW2  882   1.501   3.551   2.476  1.0239  1.2873 -1.5906
27758SOL     OW  883   6.503   7.447   4.077 -0.0753  0.3961 -0.0955
27758SOL    HW1  884   6.511   7.537   4.048 -0.1767  0.7879  1.0367
27758SOL    HW2  885   6.521   7.450   4.171 -2.9724 -0.2662  0.5880
27759SOL     OW  886   2.669  10.705   9.621  0.1398  0.2352 -0.0270
27759SOL    HW1  887   2.641  10.797   9.627 -1.1498 -0.0822 -0.7691
27759SOL    HW2  888   2.685  10.692   9.527  0.0139 -0.3808  0.0382
27760SOL     OW  889   7.835   0.137  12.706  0.2457  0.1412  0.6306
27760SOL    HW1  890   7.858   0.139  12.613 -1.1534  0.1323  0.2572
27760SOL    HW2  891   7.919   0.142  12.752  0.8768  1.8581 -0.6149
27761SOL     OW  892   6.958   2.450   9.851 -0.2727  0.5397 -0.1001
27761SOL    HW1  893   6.967   2.470   9.944 -3.2144  0.8675  0.1972
27761SOL    HW2  894   6.913   2.365   9.849  0.3189  0.2279 -1.2522
27762SOL     OW  895   9.388   4.474   0.601  0.1734  0.6183 -0.5947
27762SOL    HW1  896   9.328   4.421   0.549 -0.8347  0.5889  0.5761
27762SOL    HW2  897   9.393   4.430   0.686  0.3058  1.6987 -0.0166
27763SOL     OW  898   0.653   4.304  10.646 -0.0600 -0.8637 -0.4075
27763SOL    HW1  899   0.732   4.256  10.668  0.0012 -1.2572 -1.4706
27763SOL    HW2  900   0.582   4.255  10.688  0.3437  0.2069  1.6616
27764SOL     OW  901   9.501  11.252  11.720 -0.4637 -0.4973  0.1947
27764SOL    HW1  902   9.416  11.291  11.737 -0.6277 -1.0178  0.5851
27764SOL    HW2  903   9.489  11.202  11.639 -0.1020  0.6921 -0.6338
27765SOL     OW  904   8.803   9.217   4.472  0.0121 -0.0589 -0.0310
27765SOL    HW1  905   8.871   9.171   4.521  1.0368  0.6945 -0.6899
27765SOL    HW2  906   8.831   9.208   4.380 -1.5130 -0.8987 -0.4406
27766SOL     OW  907   1.939   5.274  13.785 -0.1680  0.1435 -0.4298
27766SOL    HW1  908   2.010   5.314  13.835 -0.4964 -1.2842  1.2720
27766SOL    HW2  909   1.912   5.342  13.723  0.6876  1.7651  0.9091
27767SOL     OW  910   4.879   4.937   0.400  0.4895 -0.0665  0.4468
27767SOL    HW1  911   4.955   4.984   0.434 -0.2065  0.7191  0.9634
27767SOL    HW2  912   4.816   5.006   0.380  0.4664 -0.5779 -1.4289
27768SOL     OW  913  10.090   6.363   1.991  0.9867  0.1774  0.0107
27768SOL    HW1  914  10.173   6.320   2.010  2.2931  2.1102 -1.0233
27768SOL    HW2  915  10.114   6.446   1.950 -1.4548  0.9943  0.0508
27769SOL     OW  916   3.445   5.927   6.573  0.0477 -0.3187  0.0883
27769SOL    HW1  917   3.377   5.984   6.609  0.3770 -0.4284  0.9017
27769SOL    HW2  918   3.519   5.986   6.556 -0.7401  0.0856 -2.2504
27770SOL     OW  919   4.626  11.952   8.018  0.0879 -0.4815 -0.2215
27770SOL    HW1  920   4.667  12.029   7.980  2.9053 -2.9554 -2.6803
27770SOL    HW2  921   4.552  11.932   7.960 -0.1114 -0.1461 -0.0848
27771SOL     OW  922  13.041   2.913   2.233 -0.4143  0.1336 -0.3286
27771SOL    HW1  923  12.962   2.908   2.287 -0.6041 -0.1019 -0.6259
27771SOL    HW2  924  13.089   2.989   2.267  0.0269 -0.6689  0.9227
27772SOL     OW  925   1.834  11.774  11.837  0.6685 -0.5524 -0.3348
27772SOL    HW1  926   1.835  11.692  11.886  1.4744 -0.8018 -0.7554
27772SOL    HW2  927   1.873  11.753  11.752  0.8264  0.2428 -0.4761
27773SOL     OW  928   0.250  12.313   7.947 -0.2797 -0.0824 -0.1499
27773SOL    HW1  929   0.326  12.370   7.960 -0.3881  0.3574 -1.2725
27773SOL    HW2  930   0.259  12.245   8.013  1.4242 -0.3869 -0.6416
27774SOL     OW  931  12.841   4.879  12.953  0.2429 -0.0608  0.6444
27774SOL    HW1  932  12.775   4.814  12.978 -0.8776  1.4202  1.7286
27774SOL    HW2  933  12.793   4.961  12.947  1.7138  0.7873 -0.1470
27775SOL     OW  934  12.625  13.977   5.524  0.5627  0.1823  0.0036
27775SOL    HW1  935  12.712  13.982   5.564  1.9330 -2.2107 -2.3151
27775SOL    HW2  936  12.619  13.886   5.493 -3.0642  0.0919  0.6302
27776SOL     OW  937   2.162   0.403  12.823  0.1916 -0.1690  0.0318
27776SOL    HW1  938   2.159   0.369  12.913 -0.3117  0.0745  0.1090
27776SOL    HW2  939   2.188   0.327  12.770  0.4881 -0.3146  0.3782
27777SOL     OW  940   9.678   7.770   4.933 -1.1719  0.4502  0.0460
27777SOL    HW1  941   9.765   7.740   4.906 -1.8406 -1.2562 -0.3100
27777SOL    HW2  942   9.690   7.864   4.951  0.3878  0.6133 -1.5219
27778SOL     OW  943  13.224   7.834   4.220  0.1438  0.0641  0.0774
27778SOL    HW1  944  13.216   7.889   4.297  2.0627 -0.0747  0.4199
27778SOL    HW2  945  13.164   7.761   4.237  1.3193 -0.5313  1.9755
27779SOL     OW  946   0.036   1.408   3.594 -0.0684 -0.1681  0.2181
27779SOL    HW1  947   0.086   1.345   3.646  1.8905  1.0265 -0.1142
27779SOL    HW2  948   0.100   1.446   3.534 -1.3332  1.5948 -0.0990
27780SOL     OW  949   2.381   0.863  13.963 -0.3803  0.3053 -0.1109
27780SOL    HW1  950   2.444   0.866  13.891  0.8205  2.0773  0.9376
27780SOL    HW2  951   2.348   0.773  13.962  0.7487 -0.1393 -1.8897
27781SOL     OW  952   5.500   1.188   9.393 -0.4063  0.3552  0.4815
27781SOL    HW1  953   5.594   1.177   9.382 -0.1723 -0.7761  2.9670
27781SOL    HW2  954   5.474   1.120   9.455 -2.9730  0.3509 -0.4406
27782SOL     OW  955   2.382   4.530  13.713  0.0172 -0.2561  0.0221
27782SOL    HW1  956   2.291   4.516  13.685  0.3018 -1.4933 -0.3520
27782SOL    HW2  957   2.376   4.544  13.807 -0.7909  2.3024 -0.3103
27783SOL     OW  958  13.840   7.951  13.122  0.3180 -0.1221 -0.6564
27783SOL    HW1  959  13.883   7.978  13.204 -1.7110  0.6964  0.2092
27783SOL    HW2  960  13.873   7.863  13.105  1.8591  0.2398  0.2593
27784SOL     OW  961   5.492   6.187   4.929 -0.2315 -0.6138  0.3267
27784SOL    HW1  962   5.502   6.098   4.897  0.3533  0.1537 -1.8121
27784SOL    HW2  963   5.403   6.191   4.964 -0.1706 -2.0753  0.6926
27785SOL     OW  964  11.403   1.561   1.654 -0.2307  0.7233  0.3465
27785SOL    HW1  965  11.419   1.578   1.747  0.7264  0.8546  0.1623
27785SOL    HW2  966  11.331   1.498   1.654  0.8240 -0.5427  1.2458
27786SOL     OW  967   3.272   0.964   4.407 -0.1660  0.0992  0.2544
27786SOL    HW1  968   3.230   0.993   4.488 -0.2466  0.7148 -0.0086
27786SOL    HW2  969   3.333   0.896   4.435 -2.1155 -1.6489  0.5366
27787SOL     OW  970   3.181   3.127   5.395 -0.4782 -0.0852  0.6098
27787SOL    HW1  971   3.251   3.090   5.448  1.0863  0.0333 -1.2503
27787SOL    HW2  972   3.185   3.079   5.313 -2.0190  0.5332  0.1406
27788SOL     OW  973  10.118   6.064   9.907  0.5059 -0.2624 -0.5910
27788SOL    HW1  974  10.161   5.980   9.923  1.0826  0.0973 -0.1890
27788SOL    HW2  975  10.047   6.068   9.971  1.0919 -0.0287  0.0637
27789SOL     OW  976   9.872  11.999   0.496 -0.5577  0.3100 -0.2410
27789SOL    HW1  977   9.947  12.048   0.462 -0.2444  0.6329  0.8720
27789SOL    HW2  978   9.867  11.922   0.440 -0.2506  0.9644 -1.1998
27790SOL     OW  979   9.703  10.331  13.357 -0.1031 -0.1272 -0.0204
27790SOL    HW1  980   9.647  10.370  13.423 -1.3904  0.4431 -1.3876
27790SOL    HW2  981   9.699  10.237  13.374 -0.1129  0.0344  0.9159
27791SOL     OW  982   2.019   0.067  12.829  0.0420  0.2891 -0.1023
27791SOL    HW1  983   1.981   0.033  12.748  0.4615 -1.6975  0.4863
27791SOL    HW2  984   2.104   0.102  12.803 -0.9266  2.1852 -0.9408
27792SOL     OW  985  11.881   4.911   1.735 -0.4484  0.2749  0.1562
27792SOL    HW1  986  11.934   4.940   1.809  0.8851  0.0623 -0.6930
27792SOL    HW2  987  11.936   4.925   1.659 -0.5301 -2.4872 -0.5176
27793SOL     OW  988  11.232   7.156   6.363  0.6682 -0.2594 -0.7356
27793SOL    HW1  989  11.226   7.109   6.280  1.3258 -0.2854 -0.7727
27793SOL    HW2  990  11.212   7.091   6.430  0.0778 -0.2249 -0.8712
27794SOL     OW  991  11.780   0.615  10.882 -0.1022  1.0874  0.3948
27794SOL    HW1  992  11.690   0.586  10.895  0.1483  0.8610  1.7942
27794SOL    HW2  993  11.796   0.676  10.954  0.9751  0.8354  0.3814
27795SOL     OW  994  11.212  11.981   0.783  0.3324 -0.7581 -0.5974
27795SOL    HW1  995  11.262  12.006   0.706 -0.5219 -0.3780 -1.0391
27795SOL    HW2  996  11.131  11.943   0.748 -1.6328  2.4640  0.0235
27796SOL     OW  997   5.102   6.635  11.887  0.0074 -0.0732 -0.0607
27796SOL    HW1  998   5.197   6.645  11.882  0.1791 -0.6710  1.5409
27796SOL    HW2  999   5.082   6.644  11.980 -1.3614 -1.1821 -0.2267
27797SOL     OW 1000   0.215   3.184   8.635  0.4347 -0.1421 -0.2992
27797SOL    HW1 1001   0.150   3.243   8.672 -0.3423 -0.8816 -0.4584
27797SOL    HW2 1002   0.299   3.219   8.664 -0.0427  0.7079  0.0774
27798SOL     OW 1003   7.532   5.494  13.476  0.2024  0.0806  0.3389
27798SOL    HW1 1004   7.619   5.531  13.462  1.4547 -1.9852  1.9674
27798SOL    HW2 1005   7.530   5.418  13.417 -0.8042  0.4990 -0.1850
27799SOL     OW 1006   3.043   0.766   5.919 -0.2310  0.1554  0.4288
27799SOL    HW1 1007   3.093   0.685   5.930  2.6027  1.6126 -0.6114
27799SOL    HW2 1008   3.009   0.761   5.830  0.0716  0.1596  0.3114
27800SOL     OW 1009   9.863   6.175   9.170 -0.0767 -0.5946  0.9405
27800SOL    HW1 1010   9.897   6.101   9.119 -0.6693 -1.1252  1.2987
27800SOL    HW2 1011   9.901   6.164   9.257  1.6597  0.8161  0.4155
27801SOL     OW 1012  10.943  12.291   2.728 -0.6637  0.1603 -0.1405
27801SOL    HW1 1013  10.906  12.209   2.694  0.3561 -0.0452 -0.7901
27801SOL    HW2 1014  11.015  12.311   2.668 -1.5114  2.0732 -0.5833
27802SOL     OW 1015   8.957   6.832   1.230  0.7940 -0.1962  0.1982
27802SOL    HW1 1016   9.010   6.754   1.242 -0.2748 -1.1419 -0.9600
27802SOL    HW2 1017   8.999   6.898   1.285  1.6600 -1.5939  1.2914
27803SOL     OW 1018   9.794   6.433  10.395 -0.4999 -0.5509 -0.4977
27803SOL    HW1 1019   9.717   6.455  10.343 -0.1622  0.4811 -0.5706
27803SOL    HW2 1020   9.868   6.459  10.341 -0.1514  1.4065  0.8460
27804SOL     OW 1021   2.059  11.921   3.456 -0.2129 -0.2013  0.0503
27804SOL    HW1 1022   2.138  11.908   3.510  0.2132  0.8600 -0.2878
27804SOL    HW2 1023   2.057  12.015   3.440 -2.0704 -0.0818  0.8120
27805SOL     OW 1024   7.875   7.952   1.377  0.3534  0.2677  0.2652
27805SOL    HW1 1025   7.829   8.034   1.362 -0.1183 -0.1322 -0.5305
27805SOL    HW2 1026   7.939   7.973   1.445 -0.9096  0.8547  1.3169
27806SOL     OW 1027   8.003   1.260   9.507  0.4613 -0.3354 -0.0939
27806SOL    HW1 1028   8.034   1.273   9.597  0.5917  1.0848 -0.3171
27806SOL    HW2 1029   8.078   1.223   9.461  0.9980  0.6397 -0.0256
27807SOL     OW 1030  12.466  11.496  12.374  0.4165  0.0455 -0.1159
27807SOL    HW1 1031  12.472  11.589  12.354 -1.4984 -0.0531 -1.3911
27807SOL    HW2 1032  12.534  11.455  12.321 -0.1060  0.5146 -1.1680
27808SOL     OW 1033   0.422   1.130   9.539 -0.2504  0.0600  0.0954
27808SOL    HW1 1034   0.347   1.121   9.598  0.2081  0.8185  0.8071
27808SOL    HW2 1035   0.484   1.063   9.568 -0.5004 -0.3448 -0.2825
27809SOL     OW 1036  13.323  10.131  11.585 -0.1155 -0.1835 -0.6562
27809SOL    HW1 1037  13.305  10.038  11.600 -0.6153 -0.4772 -2.7909
27809SOL    HW2 1038  13.236  10.170  11.574  0.1254  0.4248 -0.4134
27810SOL     OW 1039   8.096  12.646  12.894  0.1460 -0.4266 -0.1175
27810SOL    HW1 1040   8.068  12.700  12.820 -0.7542 -1.1221 -0.3094
27810SOL    HW2 1041   8.064  12.693  12.971  1.7914  0.7251 -0.0709
27811SOL     OW 1042   8.429   2.635   7.272  0.6014 -0.4338  0.6811
27811SOL    HW1 1043   8.485   2.659   7.198  0.8126  0.6393  1.1584
27811SOL    HW2 1044   8.414   2.541   7.262  1.0919 -0.4095 -0.3999
27812SOL     OW 1045   7.760   9.445   5.244  0.1077  0.1149 -0.3156
27812SOL    HW1 1046   7.836   9.502   5.262 -0.8895  1.0911  1.0028
27812SOL    HW2 1047   7.745   9.399   5.326 -0.6648 -0.1558 -0.6046
27813SOL     OW 1048   5.917   4.734   0.084  0.3687 -0.4901  0.4703
27813SOL    HW1 1049   5.993   4.688   0.050  0.6364 -1.3063  2.1095
27813SOL    HW2 1050   5.898   4.692   0.168 -1.5774  0.0327  0.3491
27814SOL     OW 1051   8.481   6.377   5.087 -0.3054  0.0155 -0.0900
27814SOL    HW1 1052   8.490   6.472   5.082 -1.4849  0.1445 -0.0998
27814SOL    HW2 1053   8.386   6.363   5.093 -0.3457 -1.2574 -2.5602
27815SOL     OW 1054   6.941   4.381   5.347  0.1635 -0.9946 -0.3455
27815SOL    HW1 1055   6.853   4.345   5.356  0.6561 -2.0521  0.3328
27815SOL    HW2 1056   6.972   4.346   5.263  0.4916 -1.8583  0.1250
27816SOL     OW 1057   1.638   6.059   7.984  0.0960 -0.9119  0.2389
27816SOL    HW1 1058   1.666   6.060   8.075 -0.5882  0.7811  0.4847
27816SOL    HW2 1059   1.550   6.021   7.986 -0.4044  0.2115  0.4865
27817SOL     OW 1060  12.680   1.522   7.284  0.2727 -0.0773 -0.0926
27817SOL    HW1 1061  12.745   1.593   7.282 -0.2401  0.4071  0.0305
27817SOL    HW2 1062  12.652   1.517   7.375 -2.3242  2.0464 -0.6376
27818SOL     OW 1063  10.796  12.356   0.376 -0.4306 -0.3975 -0.1218
27818SOL    HW1 1064  10.864  12.417   0.402 -0.9307 -0.0650  0.4389
27818SOL    HW2 1065  10.843  12.278   0.345  0.2036 -0.4969  1.0407
27819SOL     OW 1066  10.920  11.152   5.679  0.0455 -0.7875 -0.2854
27819SOL    HW1 1067  10.876  11.228   5.641  0.8757 -0.1994 -0.0967
27819SOL    HW2 1068  10.849  11.091   5.700 -0.5821 -0.2882 -0.9331
27820SOL     OW 1069  10.275   8.095   2.944 -0.0396 -0.0419 -0.0517
27820SOL    HW1 1070  10.313   8.124   3.027  0.7975  0.1586 -0.4972
27820SOL    HW2 1071  10.187   8.066   2.967  0.4657 -0.7772  1.0630
27821SOL     OW 1072   6.276   9.884   2.086  0.8036  0.2123  0.4988
27821SOL    HW1 1073   6.319   9.827   2.023  0.9743  0.2093  0.6192
27821SOL    HW2 1074   6.217   9.826   2.135  1.8072 -0.0830  1.3912
27822SOL     OW 1075   0.701  13.696   1.244  0.5862  0.2418  0.0441
27822SOL    HW1 1076   0.757  13.655   1.177  1.2677  0.5047  0.4373
27822SOL    HW2 1077   0.667  13.775   1.201 -0.7579 -0.7196 -0.7254
27823SOL     OW 1078   1.541   9.252  14.012 -0.6418  0.2668 -0.3764
27823SOL    HW1 1079   1.513   9.343  14.026  0.3024  0.4078  0.7525
27823SOL    HW2 1080   1.468   9.199  14.046 -0.1758  0.6273  1.2678
27824SOL     OW 1081  10.790  10.909  13.183 -0.3855  0.1539  0.2084
27824SOL    HW1 1082  10.735  10.966  13.129  0.0622  0.5716  0.1875
27824SOL    HW2 1083  10.861  10.965  13.213  0.3638 -0.5195 -0.2575
27825SOL     OW 1084  13.731   3.682  12.198  0.3226 -0.2772  0.5805
27825SOL    HW1 1085  13.768   3.609  12.248  0.4725  0.1803  1.1464
27825SOL    HW2 1086  13.787   3.687  12.120  0.0683 -1.0102  0.3381
27826SOL     OW 1087   8.652  13.289   2.031 -0.0597 -0.0909  0.5910
27826SOL    HW1 1088   8.683  13.360   2.088  2.6056 -1.4128  0.9534
27826SOL    HW2 1089   8.690  13.210   2.069  0.8681 -1.1860 -2.3053
27827SOL     OW 1090   3.841  13.579  10.871  1.1739 -0.1718  0.7326
27827SOL    HW1 1091   3.756  13.543  10.844  1.0668  1.1200 -0.7751
27827SOL    HW2 1092   3.904  13.514  10.842  0.7182 -1.5686  2.6249
27828SOL     OW 1093   8.457  13.316   7.496  0.4464 -0.5714 -0.3547
27828SOL    HW1 1094   8.520  13.276   7.557  0.6109 -1.4333 -1.0631
27828SOL    HW2 1095   8.498  13.398   7.469  2.3631 -2.0949 -2.4855
27829SOL     OW 1096   4.360  11.317  11.321 -0.1766 -0.2848  0.1657
27829SOL    HW1 1097   4.286  11.290  11.266  1.5054  0.3885 -2.6589
27829SOL    HW2 1098   4.338  11.406  11.347 -0.9807 -0.5887  0.5749
27830SOL     OW 1099   7.829  11.908   4.702  0.2474 -0.0286  0.6853
27830SOL    HW1 1100   7.851  11.860   4.782 -0.5142 -0.7771  0.4641
27830SOL    HW2 1101   7.822  11.841   4.635 -1.1942  0.3239  0.4392
27831SOL     OW 1102   4.427   1.234  10.108 -0.0901 -0.1067 -0.4124
27831SOL    HW1 1103   4.491   1.192  10.165 -1.0262  0.0799  0.8350
27831SOL    HW2 1104   4.472   1.312  10.074 -0.6637  2.0795  3.2937
27832SOL     OW 1105  10.447  13.675   7.811  0.1644  0.3188 -0.2826
27832SOL    HW1 1106  10.521  13.735   7.817 -1.5764  2.4919  1.9181
27832SOL    HW2 1107  10.475  13.596   7.857  0.2483  2.2732  3.3917
27833SOL     OW 1108  12.584   6.724   5.828 -0.2040 -0.4771 -0.0852
27833SOL    HW1 1109  12.572   6.629   5.822 -2.1519 -0.3702  1.2027
27833SOL    HW2 1110  12.616   6.738   5.918 -1.4019  0.1735  0.2580
27834SOL     OW 1111   9.060   1.865   1.606 -0.1490  0.2074 -0.1106
27834SOL    HW1 1112   8.970   1.838   1.624  0.2386 -1.0556  0.0137
27834SOL    HW2 1113   9.052   1.934   1.540 -1.1736 -0.4680 -0.7185
27835SOL     OW 1114  14.042   5.244   5.200  0.5673 -0.4907 -0.5607
27835SOL    HW1 1115  14.125   5.207   5.231  0.0373 -1.3349 -0.1185
27835SOL    HW2 1116  14.068   5.324   5.154  1.7167 -1.2746 -1.3322
27836SOL     OW 1117   5.007   4.816  11.196  0.1974  0.0263 -0.2653
27836SOL    HW1 1118   5.087   4.780  11.235  1.3539  1.1343 -1.4908
27836SOL    HW2 1119   5.039   4.881  11.134 -1.6966  0.6668 -0.6151
27837SOL     OW 1120   4.423   0.520  11.800  0.4067 -0.1152  0.0108
27837SOL    HW1 1121   4.493   0.496  11.740 -0.3359  2.5736 -2.1530
27837SOL    HW2 1122   4.352   0.551  11.742 -0.5189  2.2282  2.2061
27838SOL     OW 1123  12.353   0.173   0.375  0.1815 -0.1511  0.0349
27838SOL    HW1 1124  12.286   0.115   0.411 -1.2863  2.3280  1.6660
27838SOL    HW2 1125  12.433   0.148   0.420 -0.3825 -1.0014  0.5914
27839SOL     OW 1126   8.985   8.350  14.056  0.5070  0.0209  0.2451
27839SOL    HW1 1127   8.903   8.398  14.067 -0.1258 -1.2412  1.3103
27839SOL    HW2 1128   9.052   8.412  14.087 -0.0311  1.0261 -0.5443
27840SOL     OW 1129   5.345   4.405   8.336 -0.4608 -0.0943 -0.2292
27840SOL    HW1 1130   5.321   4.315   8.360  0.4531  0.1583  1.9062
27840SOL    HW2 1131   5.441   4.405   8.337 -0.4484  1.0174  0.4043
27841SOL     OW 1132   5.803   7.728  13.128  0.4137 -0.0770  0.6586
27841SOL    HW1 1133   5.724   7.781  13.140  0.1790 -0.4632  0.8597
27841SOL    HW2 1134   5.770   7.640  13.113  0.8243 -0.5666  2.3871
27842SOL     OW 1135  12.010   1.764   1.393 -0.2674  0.1996  0.1480
27842SOL    HW1 1136  11.921   1.764   1.430 -1.7258  0.9416 -2.9920
27842SOL    HW2 1137  12.054   1.838   1.436 -2.3137  1.8905 -0.4791
27843SOL     OW 1138   0.572   8.567   6.837  0.7231 -0.3903  0.1190
27843SOL    HW1 1139   0.657   8.531   6.862  1.6003  0.9476 -0.7641
27843SOL    HW2 1140   0.593   8.630   6.767 -1.2079 -1.3902 -1.4368
27844SOL     OW 1141   7.066  12.892  12.646 -0.0615  0.4994  0.1969
27844SOL    HW1 1142   7.049  12.985  12.660  0.1745  0.3691  1.4689
27844SOL    HW2 1143   6.999  12.864  12.583 -0.1105  1.5252 -0.2219
27845SOL     OW 1144   0.154  13.645   0.227 -0.1201  0.1231 -0.2491
27845SOL    HW1 1145   0.232  13.639   0.282 -0.8929 -0.2317  0.8396
27845SOL    HW2 1146   0.136  13.739   0.222 -0.7929  0.1021  1.2372
27846SOL     OW 1147   0.686   9.216   1.271  0.4949  0.0358 -0.1270
27846SOL    HW1 1148   0.644   9.131   1.285 -0.1848  0.0264 -1.9842
27846SOL    HW2 1149   0.699   9.251   1.359  2.1619 -2.6197  0.7962
27847SOL     OW 1150   9.400   5.863   1.986  0.1658 -0.2397 -0.6204
27847SOL    HW1 1151   9.312   5.847   1.951 -0.6986  0.4125  1.1784
27847SOL    HW2 1152   9.395   5.837   2.077  1.9843 -0.5853 -0.5810
27848SOL     OW 1153  12.910  13.797   6.256  0.0662 -0.2412  0.0121
27848SOL    HW1 1154  12.844  13.729   6.242  1.0812 -0.8918 -1.9766
27848SOL    HW2 1155  12.912  13.810   6.351 -2.1104 -0.9808  0.1981
27849SOL     OW 1156   1.890  12.729  13.401  0.5910  0.1369 -0.3308
27849SOL    HW1 1157   1.847  12.698  13.322  0.6066  1.4922 -0.9019
27849SOL    HW2 1158   1.892  12.824  13.392  1.3737  0.2701  0.9000
27850SOL     OW 1159  11.132  11.177  13.728  0.0944 -0.7002  0.6538
27850SOL    HW1 1160  11.122  11.084  13.711  4.3908 -1.5105  1.3014
27850SOL    HW2 1161  11.216  11.200  13.687 -1.0668  3.0998 -0.0387
27851SOL     OW 1162  10.472   4.950   7.741 -0.7199  0.0699 -0.0845
27851SOL    HW1 1163  10.516   4.869   7.765 -0.8350  0.1757  0.4845
27851SOL    HW2 1164  10.483   4.956   7.646 -0.6000 -0.5451 -0.1115
27852SOL     OW 1165   8.471  13.683  11.507  0.6688 -0.3510 -0.3692
27852SOL    HW1 1166   8.376  13.682  11.521  0.1672  4.5694 -1.7179
27852SOL    HW2 1167   8.485  13.620  11.436 -1.3187 -1.9241  0.5177
27853SOL     OW 1168   4.835   8.507   0.779  0.1054  0.3398 -0.0943
27853SOL    HW1 1169   4.841   8.455   0.699 -1.0990 -0.5434  0.3775
27853SOL    HW2 1170   4.834   8.598   0.748  0.3003  0.0313 -1.0375
27854SOL     OW 1171   8.610  10.761   0.453 -0.6007  0.2208  0.4688
27854SOL    HW1 1172   8.574  10.673   0.456 -1.7917  0.7076  1.2170
27854SOL    HW2 1173   8.704  10.749   0.437 -0.7288 -1.1675  0.6839
27855SOL     OW 1174   8.340  13.474   0.573  0.4088 -0.2164  0.0024
27855SOL    HW1 1175   8.272  13.409   0.556 -0.4095  0.2921  1.1697
27855SOL    HW2 1176   8.359  13.465   0.666 -0.5029  1.8893  0.4540
27856SOL     OW 1177   6.344   9.655   2.945  0.2970  0.6112 -0.1868
27856SOL    HW1 1178   6.371   9.712   3.017 -1.4171  0.6567  0.4743
27856SOL    HW2 1179   6.289   9.588   2.987  0.6093 -0.3422 -1.2375
27857SOL     OW 1180  13.765   0.004   5.016  0.4848 -0.3450 -0.3550
27857SOL    HW1 1181  13.725  -0.023   4.934 -0.1147  1.4379 -0.7056
27857SOL    HW2 1182  13.851   0.038   4.991  0.4806 -0.2108 -0.1933
27858SOL     OW 1183   3.199  10.351   7.348  0.0953 -0.1002 -0.2098
27858SOL    HW1 1184   3.233  10.320   7.263  1.7999  1.3568 -0.1426
27858SOL    HW2 1185   3.159  10.435   7.327  1.5172  0.8068  0.5382
27859SOL     OW 1186   2.321   9.085   9.087 -0.1696 -0.3079 -0.0067
27859SOL    HW1 1187   2.297   9.120   9.173 -1.1409 -1.1915  0.1058
27859SOL    HW2 1188   2.417   9.085   9.087 -0.1562  0.3207  0.8146
27860SOL     OW 1189   3.197   1.136   7.442  0.0145  0.0697 -0.2733
27860SOL    HW1 1190   3.143   1.119   7.519 -1.4927 -3.3815 -1.8987
27860SOL    HW2 1191   3.137   1.172   7.377  1.1918  2.6036 -0.0771
27861SOL     OW 1192   3.708   4.440   3.848 -0.0523  0.4579 -0.0196
27861SOL    HW1 1193   3.682   4.481   3.931  0.7025  0.7450  0.0825
27861SOL    HW2 1194   3.639   4.464   3.786  0.8944  2.8180 -0.2395
27862SOL     OW 1195   8.923  12.813   5.625  0.7522 -0.0580 -0.0990
27862SOL    HW1 1196   8.873  12.888   5.592  0.5765 -0.2635 -0.3014
27862SOL    HW2 1197   8.886  12.738   5.578  1.5401 -0.1571 -0.5701
27863SOL     OW 1198   8.697   3.300   1.785  0.1430 -0.1357 -0.0144
27863SOL    HW1 1199   8.721   3.341   1.702  2.1555 -0.6819  0.2383
27863SOL    HW2 1200   8.709   3.369   1.850  1.1107 -0.4110  0.1129
27864SOL     OW 1201  10.487   7.827  12.951  0.6732 -0.3229  0.4497
27864SOL    HW1 1202  10.476   7.739  12.989  0.7677 -0.2478  0.6549
27864SOL    HW2 1203  10.451   7.886  13.017 -1.2826 -0.3242 -0.5620
27865SOL     OW 1204  10.563   6.461  11.794  0.2043 -0.5122  0.2042
27865SOL    HW1 1205  10.559   6.422  11.707  2.4996  1.0120 -0.6483
27865SOL    HW2 1206  10.473   6.488  11.811 -0.3138 -0.9229 -1.6335
27866SOL     OW 1207  11.317   5.227  12.129  0.0773 -0.2407  0.3029
27866SOL    HW1 1208  11.320   5.306  12.076 -0.3872 -0.1769  0.3673
27866SOL    HW2 1209  11.406   5.215  12.161  0.2458  0.0008 -0.0819
27867SOL     OW 1210  14.010   2.435  10.617  0.1390 -0.3769  0.2057
27867SOL    HW1 1211  13.981   2.526  10.622 -1.5891 -0.9138  0.6558
27867SOL    HW2 1212  14.079   2.428  10.684 -0.3397  0.3975  0.8014
27868SOL     OW 1213   6.740   2.234  10.203 -0.4933 -0.2647  0.0641
27868SOL    HW1 1214   6.804   2.167  10.228  0.6622  0.3376 -1.1524
27868SOL    HW2 1215   6.741   2.296  10.276 -0.0956 -0.5524  0.3094
27869SOL     OW 1216   9.289   4.722  11.963  0.2907 -0.3118 -0.4594
27869SOL    HW1 1217   9.325   4.786  12.025 -1.7172  0.3034  0.1363
27869SOL    HW2 1218   9.348   4.727  11.888 -1.5132  4.8839 -2.0022
27870SOL     OW 1219  13.963   4.780   2.982 -0.4119 -0.3060  0.4596
27870SOL    HW1 1220  13.867   4.784   2.984 -0.3680  1.5033  1.1249
27870SOL    HW2 1221  13.987   4.825   2.901 -0.1049 -0.0087  0.7147
27871SOL     OW 1222  12.183   8.470   8.856 -0.0806 -0.7678  0.0088
27871SOL    HW1 1223  12.235   8.522   8.917 -0.9032  0.1342 -0.0364
27871SOL    HW2 1224  12.154   8.533   8.789 -0.4344 -1.4427 -0.4874
27872SOL     OW 1225   8.331   2.892  10.920 -0.5473 -0.0193 -0.1882
27872SOL    HW1 1226   8.253   2.930  10.960 -0.9132  0.5993 -1.4450
27872SOL    HW2 1227   8.352   2.817  10.976 -0.6108  1.2006  1.5392
27873SOL     OW 1228   5.111   1.042   8.383  0.0062  0.0589  0.2825
27873SOL    HW1 1229   5.166   1.117   8.362  0.6706 -0.6133 -0.4445
27873SOL    HW2 1230   5.132   1.021   8.474 -0.1490  0.7108  0.4719
27874SOL     OW 1231   8.202   3.383   3.068  0.0646 -0.7963  0.4541
27874SOL    HW1 1232   8.272   3.361   3.130 -1.8791 -0.0753  3.1136
27874SOL    HW2 1233   8.192   3.478   3.076 -0.6076 -0.7643 -0.5860
27875SOL     OW 1234   5.479   6.112   8.596  0.2334 -0.9071 -0.2750
27875SOL    HW1 1235   5.407   6.052   8.614 -0.2610 -0.4769 -0.8018
27875SOL    HW2 1236   5.465   6.140   8.506  1.0113 -0.7493 -0.3526
27876SOL     OW 1237   4.930   3.189   4.594  0.2080  0.5876  0.3947
27876SOL    HW1 1238   4.853   3.174   4.649 -1.8913  2.9127 -1.6298
27876SOL    HW2 1239   4.995   3.226   4.653 -0.7354 -0.1021  1.9248
27877SOL     OW 1240   7.514   1.268   4.208  0.1965  0.3026  0.3449
27877SOL    HW1 1241   7.608   1.278   4.223  0.2873  2.5076 -1.2500
27877SOL    HW2 1242   7.494   1.180   4.239  2.4264  0.4227  2.3880
27878SOL     OW 1243   6.942   6.220   4.719  0.2701 -0.1503 -0.3210
27878SOL    HW1 1244   6.865   6.197   4.771  0.0605  1.2111  0.0139
27878SOL    HW2 1245   6.987   6.137   4.704 -1.1618 -0.9513 -0.3582
27879SOL     OW 1246   7.051   1.040   6.650  0.5322 -0.3758 -0.3820
27879SOL    HW1 1247   7.119   1.019   6.715 -0.4750 -0.4701  0.6612
27879SOL    HW2 1248   7.049   0.963   6.594  0.8520 -0.6464 -0.0369
27880SOL     OW 1249  11.756  11.486   6.453  0.4235 -0.5299  0.6352
27880SOL    HW1 1250  11.704  11.420   6.500 -0.5425  0.1154  0.4927
27880SOL    HW2 1251  11.835  11.439   6.426 -0.0118 -1.4946  0.9908
27881SOL     OW 1252  13.079   6.893   3.100  0.2468 -0.6911  0.0776
27881SOL    HW1 1253  13.128   6.813   3.118  0.9354 -0.0691  1.0441
27881SOL    HW2 1254  13.103   6.953   3.170 -0.9032  0.0907 -0.1599
27882SOL     OW 1255   2.882   2.442   7.681 -0.8014  0.7215  0.3458
27882SOL    HW1 1256   2.900   2.452   7.775  0.2416  1.8315  0.0613
27882SOL    HW2 1257   2.922   2.519   7.641 -0.8565  0.0477 -1.0688
27883SOL     OW 1258   6.839  11.121   5.124  0.1295  0.4065  0.2170
27883SOL    HW1 1259   6.796  11.082   5.048  1.4843 -0.8202  0.0329
27883SOL    HW2 1260   6.848  11.213   5.102  0.6973  0.0300 -1.2382
27884SOL     OW 1261   4.817   2.557  12.568 -0.5354 -0.2282  0.4695
27884SOL    HW1 1262   4.740   2.575  12.621  0.4540 -0.6395  2.1088
27884SOL    HW2 1263   4.888   2.543  12.631  0.6419 -1.0174 -0.9481
27885SOL     OW 1264  10.016   2.328   2.359  0.4510  0.2550  0.6014
27885SOL    HW1 1265  10.016   2.415   2.321 -1.7541 -0.0204 -0.1733
27885SOL    HW2 1266   9.983   2.271   2.289  0.1308 -0.9015  1.6541
27886SOL     OW 1267   0.118   4.817  10.031  0.1997 -0.3142 -0.1355
27886SOL    HW1 1268   0.067   4.885  10.075 -2.4224 -0.6684 -2.3442
27886SOL    HW2 1269   0.187   4.865   9.984  0.9172  0.3465  1.5061
27887SOL     OW 1270  11.711  12.355   6.989  0.1734 -0.9038  0.0829
27887SOL    HW1 1271  11.661  12.377   7.068  0.7323  1.7732 -0.2216
27887SOL    HW2 1272  11.665  12.400   6.918  1.0072 -1.3449 -0.7579
27888SOL     OW 1273   9.389   9.202   6.440  0.9829  0.4364  0.2658
27888SOL    HW1 1274   9.388   9.124   6.385 -0.6293  0.1418  0.6514
27888SOL    HW2 1275   9.406   9.274   6.380 -1.8012  0.2477 -0.8897
27889SOL     OW 1276   8.863  10.305   2.414  0.9053  0.5320  0.3939
27889SOL    HW1 1277   8.848  10.231   2.355  0.1132  0.4372  0.6989
27889SOL    HW2 1278   8.956  10.326   2.404  0.8507  0.3151 -0.6468
27890SOL     OW 1279   5.580   7.527   1.181 -0.1842 -0.4090  0.3827
27890SOL    HW1 1280   5.585   7.508   1.275 -1.8351  1.8183  1.0213
27890SOL    HW2 1281   5.496   7.488   1.154  0.1989 -0.8800 -0.1402
27891SOL     OW 1282   2.632  11.432   4.608 -0.3632  0.4695 -0.4000
27891SOL    HW1 1283   2.582  11.379   4.546  0.7188 -0.1257 -0.7937
27891SOL    HW2 1284   2.611  11.396   4.694  2.8438 -2.9506 -0.7970
27892SOL     OW 1285   3.709   0.677  13.645 -0.9415 -0.0984  0.1768
27892SOL    HW1 1286   3.691   0.583  13.637  1.6594 -0.5885 -1.3479
27892SOL    HW2 1287   3.801   0.680  13.671 -0.7650  2.0330 -0.5768
27893SOL     OW 1288  11.525   9.582   8.166  0.3715  0.0123 -0.3947
27893SOL    HW1 1289  11.548   9.631   8.088  1.8042 -2.6315 -1.7856
27893SOL    HW2 1290  11.479   9.645   8.222 -0.9608  1.9683 -3.4354
27894SOL     OW 1291  11.526   9.674   4.942 -0.1843  0.6691 -0.8991
27894SOL    HW1 1292  11.566   9.589   4.954  1.6280  1.6111  0.1078
27894SOL    HW2 1293  11.583   9.720   4.880  1.6027  2.7195  1.9988
27895SOL     OW 1294   2.388   8.277   8.390  0.5826  0.1213  0.6688
27895SOL    HW1 1295   2.378   8.303   8.299  1.3167  0.2301  0.6184
27895SOL    HW2 1296   2.313   8.318   8.435  0.4564  0.4119  0.1971
27896SOL     OW 1297  10.482   3.075   8.132 -0.2072 -0.2960 -0.6278
27896SOL    HW1 1298  10.502   3.045   8.043 -0.9258 -0.8232 -0.6230
27896SOL    HW2 1299  10.544   3.029   8.187  2.8799  2.8506 -1.1251
27897SOL     OW 1300  10.889   3.857   6.839 -0.3728 -0.3412 -0.0915
27897SOL    HW1 1301  10.859   3.881   6.752  0.0746  1.7204  0.2666
27897SOL    HW2 1302  10.840   3.914   6.898  0.8775 -0.1466  0.8174
27898SOL     OW 1303  12.516   2.889   3.469  0.1696  0.2431 -0.2713
27898SOL    HW1 1304  12.522   2.858   3.379  0.6742  0.4725 -0.3180
27898SOL    HW2 1305  12.607   2.901   3.497  0.0303 -0.0901  0.3603
27899SOL     OW 1306   4.278   7.036  11.296 -0.0697 -0.0577  0.2785
27899SOL    HW1 1307   4.337   7.054  11.223  1.0511  1.1121  1.4187
27899SOL    HW2 1308   4.200   7.088  11.277 -0.5297 -1.1637 -0.9514
27900SOL     OW 1309  12.481   9.233   1.522  0.2212  0.5355  0.4519
27900SOL    HW1 1310  12.508   9.168   1.588  0.2494  1.7478  1.6651
27900SOL    HW2 1311  12.556   9.291   1.513 -0.1803  1.0130  0.1401
27901SOL     OW 1312  10.162   0.481   4.880 -0.0154  0.1567 -0.6576
27901SOL    HW1 1313  10.103   0.462   4.952  0.5686 -0.3868 -0.3128
27901SOL    HW2 1314  10.201   0.396   4.857 -0.6292  0.2186 -2.0062
27902SOL     OW 1315   7.325   1.567   0.713  0.1054 -0.4261 -0.7586
27902SOL    HW1 1316   7.274   1.603   0.640  0.1394 -2.3307 -1.7660
27902SOL    HW2 1317   7.416   1.586   0.689  0.2911 -2.9375 -2.3920
27903SOL     OW 1318   0.985   6.502  11.730 -0.6770  0.0405 -0.0258
27903SOL    HW1 1319   1.021   6.544  11.652 -1.8898  1.2580  0.0176
27903SOL    HW2 1320   1.019   6.413  11.728  1.4500  0.7905 -0.5157
27904SOL     OW 1321  14.018  13.545  13.664 -0.6064  0.0311 -0.2809
27904SOL    HW1 1322  14.089  13.483  13.646  0.6660  1.4006 -0.1385
27904SOL    HW2 1323  13.998  13.532  13.756 -0.5259 -0.3278 -0.3098
27905SOL     OW 1324   6.050  10.594   2.064 -0.2424 -0.5961 -0.1443
27905SOL    HW1 1325   5.969  10.597   2.013  0.7596  0.5102 -1.7616
27905SOL    HW2 1326   6.120  10.593   1.998  1.1010 -0.0768  1.2120
27906SOL     OW 1327   1.461  13.762   1.264 -0.1362  0.2108  0.2660
27906SOL    HW1 1328   1.501  13.795   1.344  1.4664 -0.9164 -0.0155
27906SOL    HW2 1329   1.468  13.667   1.272 -0.3579  0.0752 -1.0026
27907SOL     OW 1330   2.852  10.999   2.203 -0.2270  0.4605 -0.3853
27907SOL    HW1 1331   2.877  11.009   2.111 -2.6321  1.2249 -1.0458
27907SOL    HW2 1332   2.827  11.087   2.231 -2.9397 -0.2648 -0.1756
27908SOL     OW 1333   9.541  11.040   3.004  0.3887 -0.3389 -0.0649
27908SOL    HW1 1334   9.601  11.010   2.936  1.7088  0.6680  0.6100
27908SOL    HW2 1335   9.511  10.959   3.047  0.1012 -0.9369 -1.3372
27909SOL     OW 1336  10.728   1.546   2.657  0.7331 -0.5598  0.2046
27909SOL    HW1 1337  10.791   1.545   2.585  0.5544 -1.9050  0.0499
27909SOL    HW2 1338  10.733   1.636   2.691  0.1730  0.4236 -2.0555
27910SOL     OW 1339  10.113   1.225   7.175  0.0958  0.3081  0.0531
27910SOL    HW1 1340  10.205   1.246   7.159  0.4406 -0.4557  0.9335
27910SOL    HW2 1341  10.111   1.193   7.265 -0.8952 -0.4946 -0.2353
27911SOL     OW 1342   7.887  13.668   8.527 -0.4169 -0.1296 -0.8322
27911SOL    HW1 1343   7.815  13.624   8.572  1.3226 -2.0780  0.2202
27911SOL    HW2 1344   7.892  13.625   8.442  1.1678 -2.0250  0.1295
27912SOL     OW 1345   5.483   8.656   5.671 -0.3017 -0.1639 -0.1587
27912SOL    HW1 1346   5.505   8.689   5.584 -0.8441 -0.1063 -0.2748
27912SOL    HW2 1347   5.507   8.563   5.668 -1.4789 -0.4662 -0.7851
27913SOL     OW 1348   5.127  13.734   5.023 -0.0433 -1.0830 -0.1676
27913SOL    HW1 1349   5.211  13.748   5.066  0.1422  0.1884 -0.9063
27913SOL    HW2 1350   5.146  13.741   4.929 -1.3249  1.6224 -0.3146
27914SOL     OW 1351   2.410   1.031   9.701  0.0989  0.3092  0.8387
27914SOL    HW1 1352   2.390   1.125   9.700  0.7031  0.4427 -0.1530
27914SOL    HW2 1353   2.479   1.022   9.768  0.5983  0.7092  0.3903
27915SOL     OW 1354  12.915   6.370   8.738 -0.0845  0.1068  0.1522
27915SOL    HW1 1355  13.005   6.387   8.711 -0.1737 -1.2981 -1.1372
27915SOL    HW2 1356  12.923   6.323   8.821  0.3767 -0.0116  0.0410
27916SOL     OW 1357   2.359  10.913   0.260  0.2459  0.5130 -0.1786
27916SOL    HW1 1358   2.395  10.980   0.202 -0.2791  0.7339 -0.2546
27916SOL    HW2 1359   2.353  10.835   0.206 -1.2101  0.9886 -0.7291
27917SOL     OW 1360   5.230  13.009   6.615 -0.1474  0.1502 -0.4014
27917SOL    HW1 1361   5.157  12.958   6.651 -1.0154 -1.2212 -3.7074
27917SOL    HW2 1362   5.283  13.032   6.691 -2.0213 -2.0263  1.7485
27918SOL     OW 1363   2.122   1.784   4.922 -0.6400 -0.0737  0.2694
27918SOL    HW1 1364   2.062   1.822   4.986 -0.5482  0.5716 -0.0227
27918SOL    HW2 1365   2.200   1.840   4.926  0.6029 -1.7690  1.7608
27919SOL     OW 1366   7.989   2.290   5.480 -0.4634  0.1271  0.0494
27919SOL    HW1 1367   7.905   2.306   5.523 -1.4965 -0.3110 -1.6899
27919SOL    HW2 1368   7.967   2.233   5.406  1.6382 -1.3487  0.4958
27920SOL     OW 1369  13.748   3.494  13.963  0.1052  0.0686 -0.9043
27920SOL    HW1 1370  13.782   3.571  13.918  0.8757  0.9196  1.0247
27920SOL    HW2 1371  13.655   3.512  13.975  0.1007  0.2806 -1.2312
27921SOL     OW 1372  13.648  12.283  13.800 -0.1188 -0.1241  0.0176
27921SOL    HW1 1373  13.604  12.295  13.884 -0.4102 -1.3123  0.0484
27921SOL    HW2 1374  13.602  12.343  13.740 -2.1514 -1.6540 -0.0700
27922SOL     OW 1375  10.229  12.768  10.103 -0.7968  0.1537  0.0463
27922SOL    HW1 1376  10.231  12.688  10.050 -1.5750  0.5454 -0.5922
27922SOL    HW2 1377  10.170  12.826  10.055 -0.9742  0.7649  1.0007
27923SOL     OW 1378   4.396   1.596   6.227  0.1390 -0.1173  0.6169
27923SOL    HW1 1379   4.475   1.545   6.245  0.8148  0.8178  0.3977
27923SOL    HW2 1380   4.418   1.685   6.255 -0.7915  0.1863  0.4308
27924SOL     OW 1381   3.681   8.918  12.787  0.2119  0.2249  0.0600
27924SOL    HW1 1382   3.687   8.875  12.872  2.4398 -0.0433 -0.1776
27924SOL    HW2 1383   3.679   9.012  12.807 -1.1056  0.1346  0.4425
27925SOL     OW 1384   8.423  11.655   3.503  0.5821 -0.2293  0.0840
27925SOL    HW1 1385   8.432  11.698   3.418  1.1041  0.9239  0.7002
27925SOL    HW2 1386   8.408  11.726   3.565  1.3184 -0.9388  1.1219
27926SOL     OW 1387   1.567   3.470   0.727  0.0785 -0.4347  0.6337
27926SOL    HW1 1388   1.584   3.403   0.661  0.3299 -1.9096  2.1242
27926SOL    HW2 1389   1.653   3.503   0.750 -0.1428  1.8654 -1.4492
27927SOL     OW 1390   8.179   0.590   8.009  0.4248  0.4694 -0.0328
27927SOL    HW1 1391   8.165   0.541   7.928  2.2628  0.6287 -0.4862
27927SOL    HW2 1392   8.264   0.632   7.998  0.3684  1.1315  1.6763
27928SOL     OW 1393  13.375  12.499  11.821 -0.0563  0.2367  0.5991
27928SOL    HW1 1394  13.435  12.467  11.754 -1.2076  2.5822 -1.7423
27928SOL    HW2 1395  13.298  12.442  11.814  0.1761 -0.0688  0.5478
27929SOL     OW 1396   1.289   3.415   4.224  0.2050  0.2929 -0.0735
27929SOL    HW1 1397   1.285   3.371   4.139  0.0010  0.4046 -0.1195
27929SOL    HW2 1398   1.261   3.504   4.207 -0.1068  0.2406  0.1655
27930SOL     OW 1399   2.936   2.760   7.964  0.3804 -0.0284 -0.0539
27930SOL    HW1 1400   2.852   2.723   7.937  0.4192  0.4178 -0.8226
27930SOL    HW2 1401   3.000   2.721   7.905  1.1006 -2.2004  2.0350
27931SOL     OW 1402   2.587   5.931   8.268 -0.0389 -0.2639  0.5445
27931SOL    HW1 1403   2.619   5.889   8.348 -0.3725 -0.9803  0.3081
27931SOL    HW2 1404   2.604   5.867   8.198  1.1385  0.7334 -0.1279
27932SOL     OW 1405   1.834   7.996   1.628 -0.1385 -0.2722  0.2851
27932SOL    HW1 1406   1.896   7.992   1.555 -0.8719  2.8073 -0.6674
27932SOL    HW2 1407   1.869   8.064   1.686 -1.5503  0.0949  0.7518
27933SOL     OW 1408   2.467   4.169  12.791  0.1437  0.0707 -0.0655
27933SOL    HW1 1409   2.421   4.137  12.869  0.9172  1.4041  0.9939
27933SOL    HW2 1410   2.524   4.238  12.824 -1.6879  2.8277 -2.1942
27934SOL     OW 1411  11.974   9.975   3.390 -0.7291 -0.0785 -0.4814
27934SOL    HW1 1412  11.947  10.052   3.340  0.4700  0.4989 -0.2551
27934SOL    HW2 1413  11.904   9.963   3.454 -1.0841  0.6258 -0.7221
27935SOL     OW 1414   4.247   8.607   0.755  0.1619 -0.4013 -0.6841
27935SOL    HW1 1415   4.219   8.547   0.823  0.3068  0.9698  0.6364
27935SOL    HW2 1416   4.306   8.668   0.799 -0.6247  1.2075 -1.7615
27936SOL     OW 1417  10.138   8.635   0.985 -0.1164  0.2715 -0.0993
27936SOL    HW1 1418  10.055   8.653   0.941 -0.5808 -2.4602 -0.5290
27936SOL    HW2 1419  10.193   8.594   0.918  1.0017  0.5500  0.6037
27937SOL     OW 1420   2.319   5.324  11.751  0.2696 -0.2162 -0.1477
27937SOL    HW1 1421   2.230   5.298  11.726 -0.5588  1.0281  1.2850
27937SOL    HW2 1422   2.313   5.419  11.760  0.6018 -0.4190  3.9043
27938SOL     OW 1423  12.389   3.964  11.138 -0.3679  0.1220  0.2419
27938SOL    HW1 1424  12.462   3.982  11.198 -0.2823 -0.1238  0.2113
27938SOL    HW2 1425  12.339   3.896  11.182  0.0925 -0.5814 -0.2915
27939SOL     OW 1426   6.603   3.786   5.428 -0.2520  0.0610 -0.1259
27939SOL    HW1 1427   6.582   3.693   5.421  1.1866 -0.4156  1.3902
27939SOL    HW2 1428   6.667   3.791   5.499  0.5666  2.0680 -0.9430
27940SOL     OW 1429   3.762   1.924   6.505 -0.1220  0.3108 -0.2966
27940SOL    HW1 1430   3.691   1.887   6.452 -1.2607  1.0575  0.6551
27940SOL    HW2 1431   3.723   1.937   6.591  2.1019 -2.3393  1.2870
27941SOL     OW 1432  11.090   1.338   5.077 -0.0854  0.1867  0.0717
27941SOL    HW1 1433  11.065   1.272   5.013 -1.4057  0.7140  0.0101
27941SOL    HW2 1434  11.174   1.371   5.046  1.1773 -2.1705  0.6818
27942SOL     OW 1435  14.044   7.907   4.226  0.0052 -0.5699  0.1349
27942SOL    HW1 1436  13.958   7.918   4.185 -0.4131 -0.2750  1.0718
27942SOL    HW2 1437  14.038   7.824   4.273 -0.6089  0.5407  2.1530
27943SOL     OW 1438   9.782   1.049   3.132  0.1888 -1.1485 -0.0771
27943SOL    HW1 1439   9.829   1.059   3.049 -2.5344 -1.0180 -1.7116
27943SOL    HW2 1440   9.813   0.966   3.167  0.1402 -2.0961 -2.1538
27944SOL     OW 1441   0.740   7.712   3.220  0.2081 -0.5229 -0.2352
27944SOL    HW1 1442   0.800   7.653   3.267  0.1722  0.4027  1.0240
27944SOL    HW2 1443   0.674   7.653   3.184  0.4974 -1.3223  0.4837
27945SOL     OW 1444   6.958   0.734   7.367  0.5650  0.4582  0.6032
27945SOL    HW1 1445   6.863   0.737   7.378  0.4062  3.2369 -0.6817
27945SOL    HW2 1446   6.988   0.821   7.394  2.9445 -0.7015  2.0565
27946SOL     OW 1447   7.746  13.314  13.416 -0.6243 -0.0377 -0.2693
27946SOL    HW1 1448   7.786  13.300  13.502  0.8777  0.1204 -0.8993
27946SOL    HW2 1449   7.671  13.371  13.433  0.0934  0.6079  0.8509
27947SOL     OW 1450   9.340  13.387  12.449  0.1534  0.5709 -0.5667
27947SOL    HW1 1451   9.398  13.459  12.473 -0.2412  0.4326  0.8946
27947SOL    HW2 1452   9.257  13.430  12.426 -0.5299  0.5721  1.6553
27948SOL     OW 1453   7.255   1.552  12.235  0.2854  0.6984  0.0730
27948SOL    HW1 1454   7.204   1.472  12.247  0.1379  0.7413 -0.2518
27948SOL    HW2 1455   7.194   1.614  12.196  0.9920  0.2214 -1.9380
27949SOL     OW 1456  12.134   3.812   6.486 -0.4677 -0.0362 -0.2848
27949SOL    HW1 1457  12.151   3.905   6.475  3.6185 -0.6365 -0.5874
27949SOL    HW2 1458  12.127   3.800   6.581  1.4488  0.3225 -0.0644
27950SOL     OW 1459   2.094   2.830   7.095 -0.2298  0.3526 -0.8715
27950SOL    HW1 1460   2.083   2.752   7.149 -0.7072  0.1686 -1.2219
27950SOL    HW2 1461   2.145   2.890   7.149 -0.8689  0.2550 -0.1385
27951SOL     OW 1462   4.410   7.893  13.443 -0.4870  0.6792  0.2177
27951SOL    HW1 1463   4.441   7.979  13.416 -0.1722  0.1526 -1.1524
27951SOL    HW2 1464   4.331   7.911  13.495  0.0957  1.8261  0.7431
27952SOL     OW 1465   5.746  14.049   7.552 -0.2255  0.1175  0.0543
27952SOL    HW1 1466   5.665  14.071   7.597  0.0397  1.3478 -0.0306
27952SOL    HW2 1467   5.810  14.037   7.622 -0.6647 -1.7754  0.1712
27953SOL     OW 1468   8.001  13.055  10.361  0.7981  0.4433  0.6630
27953SOL    HW1 1469   7.955  13.009  10.431  1.1551 -0.0351  0.5826
27953SOL    HW2 1470   7.931  13.099  10.312  0.3493 -0.6978  0.2338
27954SOL     OW 1471   6.497   8.067   6.609 -0.3084 -0.1808  0.3424
27954SOL    HW1 1472   6.581   8.024   6.623 -0.6745 -0.4687  1.7585
27954SOL    HW2 1473   6.478   8.053   6.516  1.2595  0.0112 -0.0377
27955SOL     OW 1474   3.607  10.339   2.731 -0.1005  0.0062  0.1781
27955SOL    HW1 1475   3.536  10.279   2.705 -1.2755  1.7595 -0.8394
27955SOL    HW2 1476   3.679  10.317   2.673 -0.6886 -0.0998 -0.5267
27956SOL     OW 1477   1.696  11.702   5.345 -0.1781  0.1286  0.3905
27956SOL    HW1 1478   1.709  11.714   5.250  2.6645 -1.3401  0.4849
27956SOL    HW2 1479   1.612  11.658   5.352 -0.2908 -0.0610 -1.5087
27957SOL     OW 1480   6.528   4.826  12.403  1.0292 -0.2305 -0.5717
27957SOL    HW1 1481   6.459   4.861  12.347  2.5172  2.4961 -0.8656
27957SOL    HW2 1482   6.510   4.732  12.407 -4.6497  0.5392  2.0930
27958SOL     OW 1483   0.457   7.326   5.163  0.3908  0.4978 -0.1332
27958SOL    HW1 1484   0.417   7.413   5.173  0.5698  0.4956  0.7437
27958SOL    HW2 1485   0.420   7.275   5.235  1.3647  0.2666  0.2147
27959SOL     OW 1486   0.524   6.986   5.873 -0.1136 -0.2941  0.0890
27959SOL    HW1 1487   0.535   6.973   5.779  0.1371 -2.0721  0.3188
27959SOL    HW2 1488   0.584   7.057   5.895 -0.2624  0.2203 -1.1071
27960SOL     OW 1489   1.583   7.146   5.020 -0.4994 -0.4038 -0.2282
27960SOL    HW1 1490   1.615   7.233   4.997  0.7636 -0.6773  0.4089
27960SOL    HW2 1491   1.649   7.086   4.988 -0.7818 -1.0536  0.3682
27961SOL     OW 1492   6.630  12.588   3.127  0.1834 -0.0393  0.4242
27961SOL    HW1 1493   6.594  12.675   3.111  0.0615 -0.0419  0.6837
27961SOL    HW2 1494   6.573  12.529   3.078  1.4286  0.1996 -1.3946
27962SOL     OW 1495   2.849   5.681  10.546 -0.1478 -0.0849 -0.0991
27962SOL    HW1 1496   2.915   5.641  10.603  3.2554  2.8740 -1.5711
27962SOL    HW2 1497   2.866   5.643  10.460  1.0438  2.0163 -0.8693
27963SOL     OW 1498   4.995  12.321   5.896  0.3180 -0.7366  0.2375
27963SOL    HW1 1499   5.015  12.292   5.807 -0.5635  0.7186 -0.4702
27963SOL    HW2 1500   4.969  12.412   5.887 -0.6625 -0.8010  1.8671
27964SOL     OW 1501   6.286   7.723  13.026  0.3031 -0.1232  0.0848
27964SOL    HW1 1502   6.229   7.673  13.084 -0.4965  2.5126  1.7369
27964SOL    HW2 1503   6.225   7.768  12.966  0.3246  3.4215  2.4216
27965SOL     OW 1504   9.938  12.032   3.341 -0.1781 -0.1549  0.0239
27965SOL    HW1 1505   9.899  12.015   3.426 -0.3829 -0.0297 -0.0443
27965SOL    HW2 1506   9.989  12.112   3.353 -1.6620  0.9111 -0.4177
27966SOL     OW 1507   3.566   1.619   5.303  0.3746 -0.2742 -0.4599
27966SOL    HW1 1508   3.597   1.540   5.348 -0.7053 -0.2462  0.3804
27966SOL    HW2 1509   3.524   1.586   5.223 -0.4377 -0.6037  0.0902
27967SOL     OW 1510   8.130   2.350   1.781 -0.5837 -0.4125 -0.4798
27967SOL    HW1 1511   8.179   2.271   1.804  1.0771  0.5681 -0.4519
27967SOL    HW2 1512   8.095   2.333   1.694 -0.1321 -1.1260 -0.5238
27968SOL     OW 1513  14.063   6.423   7.926  0.3632  0.0964  0.0330
27968SOL    HW1 1514  14.045   6.337   7.889  1.0438 -0.1930  0.3610
27968SOL    HW2 1515  14.124   6.406   7.998 -0.2247  0.7487  0.6945
27969SOL     OW 1516  10.347   9.218  12.361 -0.2763  0.0462  0.1308
27969SOL    HW1 1517  10.343   9.144  12.421 -1.2774  0.2141  0.2817
27969SOL    HW2 1518  10.300   9.289  12.406 -2.4447 -0.2800 -1.4599
27970SOL     OW 1519  10.068   4.552  10.811  0.9227  0.4241 -0.1251
27970SOL    HW1 1520  10.145   4.597  10.776  0.0904  1.8566 -0.1877
27970SOL    HW2 1521  10.024   4.617  10.865  0.1918 -0.6341  0.6022
27971SOL     OW 1522   2.287   6.058   9.734  1.0051  0.4170  0.2662
27971SOL    HW1 1523   2.279   6.068   9.829 -1.2695  0.1304  0.1762
27971SOL    HW2 1524   2.216   5.998   9.711  1.5080  0.5021 -1.6181
27972SOL     OW 1525   7.198   4.143   4.317 -0.0957 -0.3942 -0.5809
27972SOL    HW1 1526   7.160   4.174   4.235 -1.4878 -1.4818 -0.3924
27972SOL    HW2 1527   7.123   4.132   4.375  0.3858 -3.2718 -0.3791
27973SOL     OW 1528   1.826   5.663   5.499 -0.2645 -0.0513 -0.4261
27973SOL    HW1 1529   1.783   5.664   5.585 -0.7170 -0.7185 -0.6362
27973SOL    HW2 1530   1.840   5.570   5.481  1.8068  0.1433 -0.1155
27974SOL     OW 1531   6.084  11.283   4.222 -0.1578 -0.0848 -0.2084
27974SOL    HW1 1532   6.103  11.292   4.129  0.4169  0.8228 -0.0115
27974SOL    HW2 1533   6.165  11.247   4.259  0.2654  1.2181  0.2015
27975SOL     OW 1534   6.242   3.603   6.210  0.3343 -0.3726  0.0450
27975SOL    HW1 1535   6.166   3.559   6.247  0.4935 -0.6334  0.0654
27975SOL    HW2 1536   6.286   3.535   6.158  1.7941 -0.8791  1.8400
27976SOL     OW 1537   3.490  12.480   8.316  0.1587  0.2082 -0.5275
27976SOL    HW1 1538   3.444  12.517   8.241  2.2025  1.3854 -1.2880
27976SOL    HW2 1539   3.486  12.385   8.303 -0.2248  0.3702 -1.6732
27977SOL     OW 1540   8.761   6.161   1.459  0.0415 -0.2595  0.2133
27977SOL    HW1 1541   8.692   6.218   1.425  0.1702 -0.6717 -0.7580
27977SOL    HW2 1542   8.840   6.190   1.414  0.5099  0.1579  1.2590
27978SOL     OW 1543   2.597  10.885  11.046 -0.3897  0.8390 -0.1289
27978SOL    HW1 1544   2.563  10.891  11.136  2.2443  1.8760  0.9011
27978SOL    HW2 1545   2.643  10.967  11.033 -1.2906  1.0072 -2.7707
27979SOL     OW 1546  12.776  12.864   2.676  0.1328 -0.0143 -0.1889
27979SOL    HW1 1547  12.683  12.855   2.696  0.4295 -0.8349  0.9197
27979SOL    HW2 1548  12.811  12.775   2.685  1.0093  0.2578 -0.7383
27980SOL     OW 1549   5.958   6.539   5.396  0.1512 -0.1297 -0.2987
27980SOL    HW1 1550   5.908   6.492   5.329  0.0767 -0.2017 -0.1926
27980SOL    HW2 1551   6.017   6.596   5.346 -1.2973  1.3222 -0.4319
27981SOL     OW 1552   9.902   4.550   0.000  0.3215 -0.4849 -0.0425
27981SOL    HW1 1553   9.946   4.482   0.050  3.5052  0.8365 -0.8290
27981SOL    HW2 1554   9.958   4.627   0.009 -2.4768  1.7584 -0.1796
27982SOL     OW 1555   4.990  11.698   5.332 -0.1509  0.2516  0.2258
27982SOL    HW1 1556   4.988  11.777   5.387 -0.5950 -0.5479  1.3928
27982SOL    HW2 1557   4.929  11.717   5.261  0.9230  1.5625 -0.3923
27983SOL     OW 1558   5.030   7.877   2.351  0.2892 -0.2302  0.3439
27983SOL    HW1 1559   5.102   7.859   2.411  0.7929  0.7394  0.0533
27983SOL    HW2 1560   4.993   7.960   2.382 -0.4562 -0.5202  0.2547
27984SOL     OW 1561   8.647   0.997   5.224  0.0945  0.7477  0.0640
27984SOL    HW1 1562   8.691   0.952   5.296  1.2604  3.2352  1.0149
27984SOL    HW2 1563   8.709   0.994   5.151 -0.4803 -0.4745 -0.4075
27985SOL     OW 1564  11.767  12.036   4.614  0.0147  0.0312  0.3768
27985SOL    HW1 1565  11.739  11.968   4.674 -0.5307  1.1695  1.4707
27985SOL    HW2 1566  11.784  12.112   4.671 -1.8645  1.5871 -1.0054
27986SOL     OW 1567   0.507  11.357   9.609  0.0931 -0.0125 -0.2633
27986SOL    HW1 1568   0.531  11.439   9.566 -2.4293  1.5861  1.1194
27986SOL    HW2 1569   0.565  11.353   9.685  0.8284 -0.0158 -0.8032
27987SOL     OW 1570  11.919   3.819   3.013 -0.3009  0.0854  0.5834
27987SOL    HW1 1571  11.939   3.907   3.045 -3.1496  0.6657  1.0642
27987SOL    HW2 1572  11.954   3.818   2.924 -0.4024  1.8168  0.4829
27988SOL     OW 1573   0.893   3.127   2.110 -0.0719  0.1923 -0.1830
27988SOL    HW1 1574   0.817   3.180   2.090 -0.3153 -0.1400 -0.1425
27988SOL    HW2 1575   0.952   3.187   2.156 -0.6980  0.2141  0.6135
27989SOL     OW 1576  11.302   0.413  11.985  0.2873  0.6314 -0.1753
27989SOL    HW1 1577  11.373   0.424  11.921 -0.6483  1.2506 -1.1533
27989SOL    HW2 1578  11.257   0.333  11.958  0.9665 -0.1099  0.8226
27990SOL     OW 1579   0.983  10.544   0.373 -0.0040 -0.4764  0.1871
27990SOL    HW1 1580   0.894  10.544   0.409 -0.5724 -0.6153 -1.1337
27990SOL    HW2 1581   1.036  10.589   0.438 -1.3532  1.0702  0.2776
27991SOL     OW 1582   5.482  12.009   6.675 -0.2848  0.3029  0.5028
27991SOL    HW1 1583   5.521  12.095   6.690  1.2264 -0.0130 -1.2715
27991SOL    HW2 1584   5.388  12.026   6.670  0.0654  2.1474 -1.3474
27992SOL     OW 1585   2.056  13.655   3.233 -0.3539  0.1479 -0.4193
27992SOL    HW1 1586   2.074  13.561   3.237 -0.8259  0.0731 -0.0373
27992SOL    HW2 1587   2.141  13.696   3.252 -0.4549 -0.2080  0.9666
27993SOL     OW 1588   7.617  10.342   8.528  0.0025 -0.5573  0.0637
27993SOL    HW1 1589   7.583  10.420   8.572  2.3473  0.5967 -0.0636
27993SOL    HW2 1590   7.627  10.278   8.599 -0.2546 -0.1602  0.4687
27994SOL     OW 1591   4.317   2.348   7.271 -0.4345  0.0346 -0.2562
27994SOL    HW1 1592   4.280   2.265   7.303  0.1468 -0.5781 -1.1472
27994SOL    HW2 1593   4.302   2.346   7.177  0.7910  0.3232 -0.4667
27995SOL     OW 1594   4.530  13.679  11.983 -0.2389 -0.6065 -0.0309
27995SOL    HW1 1595   4.440  13.678  12.015 -0.1280 -2.5392  0.3523
27995SOL    HW2 1596   4.524  13.718  11.896 -1.4912 -0.9278 -0.1111
27996SOL     OW 1597   2.428   1.110   7.650 -0.2442  0.1640 -0.6196
27996SOL    HW1 1598   2.434   1.040   7.585 -0.0624 -0.9745  0.5944
27996SOL    HW2 1599   2.356   1.166   7.619 -0.6317 -0.7624 -1.4137
27997SOL     OW 1600  11.087   5.130   2.030 -0.1446 -0.1764  0.3096
27997SOL    HW1 1601  10.994   5.147   2.019  0.1724  3.1051  1.5456
27997SOL    HW2 1602  11.123   5.137   1.941 -1.0416 -1.7164 -0.2139
27998SOL     OW 1603   6.460   3.711   7.748  0.1453  0.1105  0.3682
27998SOL    HW1 1604   6.466   3.664   7.831 -0.3535  0.2212  0.4728
27998SOL    HW2 1605   6.436   3.800   7.773  1.0648  0.4208  0.1686
27999SOL     OW 1606   1.815   4.691   8.590  0.0023 -0.1631 -0.8791
27999SOL    HW1 1607   1.773   4.695   8.503  0.3653 -0.6287 -1.0803
27999SOL    HW2 1608   1.834   4.598   8.603 -1.8787 -0.4121  0.5856
28000SOL     OW 1609  12.089  11.743   3.955  0.3654  0.2880  0.3131
28000SOL    HW1 1610  12.038  11.722   3.876  1.9455 -1.3590 -0.3371
28000SOL    HW2 1611  12.023  11.764   4.021 -1.2161 -1.9942 -0.4201
28001SOL     OW 1612   6.761  11.625  10.710  0.4421  0.2928 -0.6644
28001SOL    HW1 1613   6.753  11.721  10.710  0.2893  0.2878 -1.3301
28001SOL    HW2 1614   6.855  11.609  10.719  0.6728  0.5577 -2.2279
28002SOL     OW 1615   8.416  13.846   5.938 -0.5077 -0.4328 -0.2339
28002SOL    HW1 1616   8.337  13.874   5.985 -0.2070 -0.7464  0.4652
28002SOL    HW2 1617   8.415  13.898   5.858 -0.1825  1.3053  0.8346
28003SOL     OW 1618   2.081   0.491  13.227  0.3287 -0.0982  0.0769
28003SOL    HW1 1619   2.085   0.583  13.200  0.5420 -0.1386 -0.0322
28003SOL    HW2 1620   2.085   0.494  13.323  1.0021 -0.0220  0.0553
28004SOL     OW 1621   7.990  10.817   4.655  0.1747  0.0821 -0.1290
28004SOL    HW1 1622   7.960  10.754   4.589  0.6494 -0.0438 -0.2335
28004SOL    HW2 1623   8.085  10.802   4.660  0.1234 -0.0126  0.6872
28005SOL     OW 1624   2.574   4.153   4.740 -0.1231 -0.4140 -0.1492
28005SOL    HW1 1625   2.636   4.215   4.703  0.4260  0.2457  1.7868
28005SOL    HW2 1626   2.489   4.197   4.733  0.1337  0.1702  0.3752
28006SOL     OW 1627  11.005  12.232   4.312  0.2430 -0.1368  0.7943
28006SOL    HW1 1628  11.019  12.142   4.283  1.5006  0.0182  0.8774
28006SOL    HW2 1629  11.092  12.264   4.334 -0.2688  0.8997  1.3751
28007SOL     OW 1630   7.561   1.303   3.816 -0.6269 -0.0156  0.0863
28007SOL    HW1 1631   7.568   1.224   3.869 -1.0985  0.0111  0.1932
28007SOL    HW2 1632   7.469   1.331   3.826 -0.7480 -0.0619 -0.8049
28008SOL     OW 1633   5.263   5.593  12.494  0.0854  0.0790  0.0114
28008SOL    HW1 1634   5.223   5.674  12.527  1.4902  1.3863 -1.3204
28008SOL    HW2 1635   5.189   5.542  12.461 -0.9096  0.4892  1.5056
28009SOL     OW 1636   0.632  11.909   0.387  0.0841  0.0437  0.0353
28009SOL    HW1 1637   0.568  11.904   0.458  2.6525 -2.0687  2.3918
28009SOL    HW2 1638   0.656  12.001   0.383  1.4772 -0.0290  3.5686
28010SOL     OW 1639   4.159   2.341   5.247  0.5549 -0.6406 -0.3636
28010SOL    HW1 1640   4.163   2.433   5.273 -0.4129 -0.2135 -1.5993
28010SOL    HW2 1641   4.066   2.318   5.255  0.3668 -0.7747 -2.3076
28011SOL     OW 1642   8.368   5.347  12.147  0.4450 -0.3443  0.3690
28011SOL    HW1 1643   8.335   5.299  12.071 -0.1357 -0.6911  0.8292
28011SOL    HW2 1644   8.380   5.437  12.116 -0.3800 -0.3467  0.0351
28012SOL     OW 1645  11.753   9.041   4.258  0.1724 -0.7693 -0.4502
28012SOL    HW1 1646  11.746   8.997   4.342 -0.9721  0.6824  0.2514
28012SOL    HW2 1647  11.847   9.054   4.245  0.3213 -0.2637  1.0002
28013SOL     OW 1648  12.848   1.747  11.669 -0.5612 -0.7879 -0.4891
28013SOL    HW1 1649  12.829   1.774  11.759  1.6037 -3.0331  0.7566
28013SOL    HW2 1650  12.887   1.825  11.629 -0.0682 -0.2066  1.0338
28014SOL     OW 1651  10.228   2.844  11.806  0.1094  0.1354  0.0439
28014SOL    HW1 1652  10.144   2.800  11.819 -0.5418  1.2498 -0.2776
28014SOL    HW2 1653  10.248   2.884  11.890  1.2576 -1.6466  0.6744
28015SOL     OW 1654  13.250  13.308   8.914 -0.1121 -0.0299 -0.1702
28015SOL    HW1 1655  13.179  13.323   8.977 -0.2506 -2.3702  0.3118
28015SOL    HW2 1656  13.327  13.347   8.956 -0.3581 -0.8688  1.1232
28016SOL     OW 1657   6.177   2.191   9.713  0.2026  0.0969 -0.0545
28016SOL    HW1 1658   6.210   2.136   9.784  2.5757  0.0622 -1.0965
28016SOL    HW2 1659   6.255   2.224   9.669 -1.1637  0.8076 -2.1408
28017SOL     OW 1660  13.126   9.158  12.829  0.0165 -0.3711 -0.9007
28017SOL    HW1 1661  13.147   9.108  12.750  0.1959 -0.3061 -0.8917
28017SOL    HW2 1662  13.120   9.091  12.898  1.0837 -0.2933 -0.7183
28018SOL     OW 1663   2.951   2.206  11.316 -0.2474 -0.5433 -0.2638
28018SOL    HW1 1664   2.902   2.225  11.397  0.6955 -0.0860  0.2112
28018SOL    HW2 1665   2.961   2.111  11.316 -2.3851 -0.8250 -1.1225
28019SOL     OW 1666  12.248  12.529   7.063  0.5072  0.5259  0.3938
28019SOL    HW1 1667  12.187  12.530   7.137 -0.2118  0.5668 -0.2010
28019SOL    HW2 1668  12.195  12.547   6.986  0.9199 -1.3613 -0.3864
28020SOL     OW 1669   6.636   7.243   9.301 -0.1933 -0.5192 -0.7122
28020SOL    HW1 1670   6.559   7.270   9.352 -2.3314 -1.3545 -3.2330
28020SOL    HW2 1671   6.659   7.156   9.335  0.4660  0.2582  0.8852
28021SOL     OW 1672   9.194   3.390   2.527  0.0390 -0.0452 -1.2496
28021SOL    HW1 1673   9.146   3.312   2.503  0.2613 -0.1635 -1.3170
28021SOL    HW2 1674   9.146   3.427   2.601  0.2055 -0.5127 -0.9007
28022SOL     OW 1675   3.763   9.068  10.705 -0.1142  0.0192 -0.0255
28022SOL    HW1 1676   3.759   9.097  10.796  0.9867 -1.2868  0.4700
28022SOL    HW2 1677   3.824   9.129  10.662  1.1463 -0.7067  0.6801
28023SOL     OW 1678   8.875  13.548  10.553 -0.1757 -0.3074  0.2548
28023SOL    HW1 1679   8.860  13.606  10.479  0.3364  0.1200  0.4768
28023SOL    HW2 1680   8.919  13.472  10.515  1.6933  0.6575  0.3389
28024SOL     OW 1681  11.041   0.061   6.739  0.0617 -0.4456  0.3349
28024SOL    HW1 1682  10.965   0.093   6.691 -0.7079 -0.8836  1.2196
28024SOL    HW2 1683  11.013   0.062   6.831  0.9233 -1.1762  0.6149
28025SOL     OW 1684   2.092  12.720   4.140 -0.0243 -0.0937  0.1094
28025SOL    HW1 1685   2.044  12.772   4.076 -0.3736  1.4604  1.5357
28025SOL    HW2 1686   2.162  12.779   4.170 -0.1218 -0.6245  1.4346
28026SOL     OW 1687   1.169   7.402   1.230 -0.5723  0.1247  0.3111
28026SOL    HW1 1688   1.212   7.317   1.220 -0.4277  0.2224  0.0897
28026SOL    HW2 1689   1.153   7.410   1.324  1.3959  0.7994  0.6439
28027SOL     OW 1690  11.086   2.504  12.332 -0.3159  0.2986  0.0403
28027SOL    HW1 1691  11.143   2.437  12.368 -1.7510 -0.2124  1.4749
28027SOL    HW2 1692  10.998   2.477  12.358 -0.9745  2.5097  0.3015
28028SOL     OW 1693  13.739   9.498   8.821  0.0065 -0.7416 -0.0243
28028SOL    HW1 1694  13.817   9.546   8.851  0.6716 -1.5559 -0.3935
28028SOL    HW2 1695  13.738   9.510   8.726 -0.2717 -0.8013 -0.0300
28029SOL     OW 1696  12.616   8.493  11.197 -0.3622  0.1474  0.4093
28029SOL    HW1 1697  12.592   8.410  11.156 -1.0275  0.5653 -0.0681
28029SOL    HW2 1698  12.707   8.508  11.171 -0.1072 -0.6206  0.8328
28030SOL     OW 1699  12.927   5.285  10.755  0.1303  0.0571 -0.2628
28030SOL    HW1 1700  13.003   5.343  10.764  1.0555 -1.2197  0.4177
28030SOL    HW2 1701  12.861   5.340  10.713  1.4070  1.2191 -0.8579
28031SOL     OW 1702   2.725   0.266   6.150  0.3516  0.5305 -0.0529
28031SOL    HW1 1703   2.638   0.233   6.170  0.5586  0.0353  0.0357
28031SOL    HW2 1704   2.710   0.356   6.120  0.0624  1.5497  2.8571
28032SOL     OW 1705   2.553   6.426   8.978 -0.0984 -0.1885  0.3669
28032SOL    HW1 1706   2.567   6.484   9.053 -1.5515 -0.1698  0.6631
28032SOL    HW2 1707   2.534   6.341   9.017 -0.3674 -0.2957  0.0050
28033SOL     OW 1708  10.824   9.880   7.405  0.1575  0.6683  0.2314
28033SOL    HW1 1709  10.912   9.852   7.382  0.4861  1.1798  0.8330
28033SOL    HW2 1710  10.822   9.880   7.501 -0.5382  0.5268  0.2275
28034SOL     OW 1711   0.430   6.967  12.357  0.3471  0.4481  0.0476
28034SOL    HW1 1712   0.421   6.949  12.263 -1.5244 -1.1420  0.4532
28034SOL    HW2 1713   0.413   6.882  12.399  0.7281  1.2190  1.8376
28035SOL     OW 1714  13.249   0.927   2.402 -0.1769  0.2982 -0.3834
28035SOL    HW1 1715  13.319   0.872   2.436  1.6847  2.4920 -0.3745
28035SOL    HW2 1716  13.268   0.937   2.309  0.9395  2.6829  0.0207
28036SOL     OW 1717  11.712   3.419   3.079 -0.1946  0.8135 -0.0749
28036SOL    HW1 1718  11.738   3.503   3.117 -1.7527  1.0641  0.4864
28036SOL    HW2 1719  11.638   3.390   3.131  0.3268 -0.9549 -0.2368
28037SOL     OW 1720   6.470   2.038  10.822  0.5329  0.5785  0.4206
28037SOL    HW1 1721   6.473   1.987  10.903  0.7431  0.2244  0.1913
28037SOL    HW2 1722   6.560   2.068  10.809  0.2988  1.5161  0.8711
28038SOL     OW 1723   0.574  13.471  10.030  0.0808 -0.6566  0.1522
28038SOL    HW1 1724   0.514  13.523  10.085  1.1360  0.5582  0.1871
28038SOL    HW2 1725   0.520  13.442   9.957 -0.4051  0.9970 -0.1745
28039SOL     OW 1726   0.705  11.188   5.176 -0.5814 -0.1119 -0.7019
28039SOL    HW1 1727   0.702  11.163   5.268  0.5623  2.0463 -0.0142
28039SOL    HW2 1728   0.747  11.113   5.133  1.0351 -0.2086  0.9237
28040SOL     OW 1729   3.286   0.333   9.837  0.2829 -0.3441  0.0355
28040SOL    HW1 1730   3.325   0.408   9.792 -0.9184 -0.2048 -0.8105
28040SOL    HW2 1731   3.194   0.334   9.810 -0.1794 -1.0224  1.4843
28041SOL     OW 1732   9.408   9.630  12.761  0.0260 -0.0904  0.1272
28041SOL    HW1 1733   9.403   9.535  12.751  0.2582 -0.2652  1.4173
28041SOL    HW2 1734   9.322   9.654  12.798 -0.2328  0.2805 -0.7027
28042SOL     OW 1735  13.554  11.110   4.116  0.6310  0.3143  0.5063
28042SOL    HW1 1736  13.526  11.167   4.045 -0.3306 -0.8298 -0.0606
28042SOL    HW2 1737  13.487  11.121   4.183  0.1909 -0.4775  0.2067
28043SOL     OW 1738  13.375   3.504  13.407 -0.1348  0.3215  0.3218
28043SOL    HW1 1739  13.337   3.469  13.488 -0.4884  1.7113  0.7858
28043SOL    HW2 1740  13.427   3.432  13.372  1.1958  0.1114  2.5311
28044SOL     OW 1741   0.053   4.164   4.093 -0.2055  0.0876 -0.3786
28044SOL    HW1 1742   0.098   4.082   4.071 -0.6584 -0.1395 -0.4738
28044SOL    HW2 1743   0.018   4.149   4.180  0.7378  0.6257  0.1052
28045SOL     OW 1744   6.857   8.240  13.409 -0.4330 -0.5964  0.0544
28045SOL    HW1 1745   6.884   8.157  13.447 -0.6501 -1.0334 -0.7257
28045SOL    HW2 1746   6.813   8.216  13.327  1.2280  0.3812 -1.1866
28046SOL     OW 1747  13.605   9.806   2.754  0.5423 -0.6058  0.5021
28046SOL    HW1 1748  13.615   9.711   2.763 -0.6714 -0.6340  1.9550
28046SOL    HW2 1749  13.612   9.839   2.843  0.5456  0.6400  0.0538
28047SOL     OW 1750   2.307   6.750  10.723 -0.1696 -0.7594 -0.0866
28047SOL    HW1 1751   2.258   6.674  10.752 -0.5145 -0.2957  0.5848
28047SOL    HW2 1752   2.279   6.765  10.633 -2.4161  0.3849  0.7363
28048SOL     OW 1753   3.188  12.462  13.538 -0.9042 -0.3085 -1.0324
28048SOL    HW1 1754   3.097  12.491  13.546 -0.8640 -0.3617 -0.3124
28048SOL    HW2 1755   3.184  12.383  13.484 -1.3593 -0.6340 -0.5324
28049SOL     OW 1756  13.895   3.301   2.379 -0.5490 -0.1305  0.5186
28049SOL    HW1 1757  13.802   3.316   2.395 -0.9613 -0.8977 -1.0219
28049SOL    HW2 1758  13.898   3.246   2.301  1.1936 -0.4528  0.7728
28050SOL     OW 1759   8.031   2.581  12.410  0.2081 -0.4101 -0.3543
28050SOL    HW1 1760   8.115   2.556  12.449  0.1614 -0.5268 -0.3261
28050SOL    HW2 1761   7.972   2.508  12.432  0.1410 -0.4008 -0.5071
28051SOL     OW 1762  11.225   5.686  10.035  0.6159 -0.3592  0.1278
28051SOL    HW1 1763  11.318   5.662  10.040  0.7887 -1.7330 -4.4746
28051SOL    HW2 1764  11.190   5.628   9.967 -3.3971  0.8839  0.9046
28052SOL     OW 1765   3.002   9.382  12.831 -0.4749  0.7271 -0.2934
28052SOL    HW1 1766   2.952   9.318  12.880 -0.3549  1.3471  0.6528
28052SOL    HW2 1767   3.082   9.335  12.805 -1.6523 -0.3798 -2.1326
28053SOL     OW 1768   1.790   6.890   7.533 -0.4288 -0.3851 -0.1548
28053SOL    HW1 1769   1.770   6.963   7.475  0.6756 -0.1070 -0.2193
28053SOL    HW2 1770   1.793   6.929   7.621  0.3475 -0.3003 -0.2107
28054SOL     OW 1771   7.800  13.210  10.231  0.0776 -0.5171 -0.0846
28054SOL    HW1 1772   7.705  13.215  10.230  0.0469 -0.9539  0.3175
28054SOL    HW2 1773   7.829  13.301  10.222 -0.3742 -0.3844 -0.2247
28055SOL     OW 1774   5.801   8.576   1.353  0.1048  0.2770 -0.0676
28055SOL    HW1 1775   5.738   8.505   1.343  0.2580 -0.3759  2.7231
28055SOL    HW2 1776   5.885   8.531   1.366  0.8234  1.0921 -1.5700
28056SOL     OW 1777   8.457   8.215   5.485 -0.2414 -0.6845 -0.3620
28056SOL    HW1 1778   8.517   8.164   5.431  0.8447  0.7990 -0.6182
28056SOL    HW2 1779   8.394   8.251   5.424  1.0384  1.0637 -0.7033
28057SOL     OW 1780   2.114   0.965   6.695  0.3172 -0.4136 -0.4297
28057SOL    HW1 1781   2.089   0.873   6.705  1.7328 -0.9438 -1.4544
28057SOL    HW2 1782   2.208   0.963   6.678  0.9745  1.4225  2.2533
28058SOL     OW 1783  12.836   9.720   7.464  0.3735  0.2601 -0.2546
28058SOL    HW1 1784  12.867   9.810   7.478  0.2195  0.5108 -1.4016
28058SOL    HW2 1785  12.743   9.724   7.484  0.3667  0.3659 -0.3042
28059SOL     OW 1786  12.477   1.877   8.367  0.2007  0.1306 -0.4946
28059SOL    HW1 1787  12.388   1.842   8.362  0.4661 -0.9016  1.1013
28059SOL    HW2 1788  12.466   1.966   8.401 -0.2249  0.0511 -0.4154
28060SOL     OW 1789  10.388  11.345   3.268 -0.7606  0.1051 -0.4014
28060SOL    HW1 1790  10.405  11.383   3.354 -1.0006  0.0572 -0.3305
28060SOL    HW2 1791  10.398  11.250   3.282  0.8863  0.1956 -0.8207
28061SOL     OW 1792   3.659   6.612  11.844  0.3432  0.6959  0.0193
28061SOL    HW1 1793   3.665   6.641  11.935 -0.3590  1.0018 -0.0309
28061SOL    HW2 1794   3.664   6.517  11.849  2.8941  0.7640  0.1727
28062SOL     OW 1795  12.092   3.302   9.152  0.1629  0.1347  0.1211
28062SOL    HW1 1796  12.017   3.246   9.133  0.8579 -0.5734 -0.6673
28062SOL    HW2 1797  12.064   3.390   9.128 -0.5732 -0.0477  0.3025
28063SOL     OW 1798  10.009   4.072  10.937 -0.3582  0.5835 -0.1078
28063SOL    HW1 1799   9.992   4.166  10.950  0.3596  0.8028 -0.6307
28063SOL    HW2 1800  10.043   4.067  10.847 -2.2396 -0.4487 -0.8026
28064SOL     OW 1801   0.385   3.086  12.765 -0.3475  0.1780 -0.2702
28064SOL    HW1 1802   0.296   3.102  12.797 -0.2021  0.1803  0.1422
28064SOL    HW2 1803   0.377   3.089  12.670  0.1125  5.6184 -0.4232
28065SOL     OW 1804   3.524  11.834   5.908 -0.4167  0.2220 -0.2989
28065SOL    HW1 1805   3.457  11.791   5.855  0.4385  0.2111 -1.4003
28065SOL    HW2 1806   3.545  11.914   5.860  0.6359  0.0301 -0.1787
28066SOL     OW 1807   3.115   5.534  10.591  0.0527 -0.2813  0.5484
28066SOL    HW1 1808   3.158   5.479  10.656  0.3978  1.1027  1.5346
28066SOL    HW2 1809   3.182   5.551  10.525 -0.6662 -2.8017 -0.9944
28067SOL     OW 1810   9.028  11.884   7.984  0.2972 -0.1773 -0.0343
28067SOL    HW1 1811   8.963  11.903   7.916  1.8430  0.7112 -1.3317
28067SOL    HW2 1812   9.001  11.938   8.058 -0.5533  0.0220 -0.4703
28068SOL     OW 1813   5.297   0.179   5.183 -1.3572 -0.3970  0.7591
28068SOL    HW1 1814   5.376   0.129   5.205 -0.3298  0.1681 -1.3600
28068SOL    HW2 1815   5.227   0.114   5.178 -0.0735 -1.7244 -1.8292
28069SOL     OW 1816   2.289  11.461   5.291 -0.0879 -0.4098 -0.9627
28069SOL    HW1 1817   2.259  11.551   5.283 -1.1736 -0.5805  0.5979
28069SOL    HW2 1818   2.208  11.409   5.294  0.4537 -1.2386 -0.0549
28070SOL     OW 1819   8.794  12.428  13.379 -0.6820  0.0578 -0.1577
28070SOL    HW1 1820   8.731  12.402  13.312 -0.7026 -0.5311  0.0849
28070SOL    HW2 1821   8.834  12.509  13.344 -1.4080  0.3187 -0.4079
28071SOL     OW 1822   2.366   0.002   8.192  0.7055  0.0752 -0.0087
28071SOL    HW1 1823   2.329   0.090   8.181 -0.6567 -0.4989 -0.2060
28071SOL    HW2 1824   2.414  -0.014   8.111 -1.8673 -0.6446 -1.5108
28072SOL     OW 1825   1.833  11.608   0.568 -0.1279 -0.0300 -0.3639
28072SOL    HW1 1826   1.918  11.639   0.600 -1.2865  0.9786  1.9281
28072SOL    HW2 1827   1.855  11.538   0.507  2.3487  0.0260  0.3547
28073SOL     OW 1828   8.606  13.862  10.623 -0.2013 -0.7853  0.3815
28073SOL    HW1 1829   8.696  13.866  10.655  0.6908  0.8633 -1.9963
28073SOL    HW2 1830   8.604  13.783  10.569 -0.0937 -0.6807  0.2237
28074SOL     OW 1831  13.141   2.811  10.581  0.0565  0.3770  0.0965
28074SOL    HW1 1832  13.186   2.769  10.507 -0.5967  1.3741 -0.8884
28074SOL    HW2 1833  13.049   2.789  10.568 -0.1470  1.1548  0.2150
28075SOL     OW 1834  11.961   8.781  13.985 -0.2180 -0.4401 -0.0469
28075SOL    HW1 1835  12.034   8.721  13.971 -1.4735 -1.3971 -3.5997
28075SOL    HW2 1836  11.883   8.728  13.971 -1.6117  1.0108  1.6128
28076SOL     OW 1837   3.485  10.685   5.263 -0.6709 -0.0376 -0.1402
28076SOL    HW1 1838   3.510  10.680   5.356 -0.3610  2.2439 -0.0419
28076SOL    HW2 1839   3.560  10.648   5.216  0.0805  0.6903  0.4540
28077SOL     OW 1840   3.647   9.568  12.418 -1.0142  0.0590 -0.1891
28077SOL    HW1 1841   3.586   9.551  12.490  1.0597  0.4890  1.7630
28077SOL    HW2 1842   3.721   9.509  12.435  0.3059  1.4373 -0.9456
28078SOL     OW 1843   9.242   6.033  11.894  0.2208 -0.0786  0.2316
28078SOL    HW1 1844   9.155   5.995  11.880 -0.1986  0.7272  0.6065
28078SOL    HW2 1845   9.287   5.970  11.950  0.1216 -0.8308 -0.5142
28079SOL     OW 1846   8.927   7.887   2.213  0.1063 -0.1493  0.7325
28079SOL    HW1 1847   8.849   7.937   2.237  0.9245  0.9032  1.2731
28079SOL    HW2 1848   9.000   7.935   2.253  1.0822 -0.8331 -0.1647
28080SOL     OW 1849   0.784   5.229   1.155 -0.0797 -0.0112  0.4358
28080SOL    HW1 1850   0.876   5.214   1.133 -0.4921  0.1761 -1.6170
28080SOL    HW2 1851   0.776   5.199   1.245  1.6555 -1.4259  0.1812
28081SOL     OW 1852   1.403   5.575   8.874  0.3781  0.2427 -0.4359
28081SOL    HW1 1853   1.366   5.531   8.950 -1.0074 -3.2664 -2.8984
28081SOL    HW2 1854   1.482   5.619   8.907 -0.0489 -1.2591  2.9340
28082SOL     OW 1855   0.711   3.496  13.884  0.0411  0.0007  0.0726
28082SOL    HW1 1856   0.690   3.417  13.834  0.0662 -0.1905  0.3581
28082SOL    HW2 1857   0.800   3.518  13.858  0.0549 -0.1004  0.0315
28083SOL     OW 1858   6.848  13.673   7.977 -0.7417 -0.6442  0.6108
28083SOL    HW1 1859   6.885  13.728   7.908 -1.2543 -1.7535 -0.5737
28083SOL    HW2 1860   6.854  13.727   8.056  2.0793 -0.2560  0.2133
28084SOL     OW 1861   7.774   2.075   3.225  0.2295  0.0942 -0.0132
28084SOL    HW1 1862   7.745   2.043   3.310  0.6193 -0.0587  0.0622
28084SOL    HW2 1863   7.716   2.149   3.207  1.9769  1.9775  1.6954
28085SOL     OW 1864  13.336   2.982  12.213  0.2837 -0.0551 -0.1807
28085SOL    HW1 1865  13.311   3.072  12.231 -0.5869  0.0267 -1.6161
28085SOL    HW2 1866  13.295   2.931  12.282 -1.8129  0.3579 -1.0564
28086SOL     OW 1867  12.288   0.242   3.236  0.2221 -0.0920  0.6912
28086SOL    HW1 1868  12.208   0.295   3.240  0.3590  0.3151 -1.1536
28086SOL    HW2 1869  12.349   0.286   3.295  0.1928  1.6104 -0.4945
28087SOL     OW 1870   8.000   1.149   3.714  0.3618  0.2473  0.1972
28087SOL    HW1 1871   7.931   1.108   3.765  1.5680  1.1451  2.7042
28087SOL    HW2 1872   7.961   1.229   3.680 -0.0794  0.3136  0.8571
28088SOL     OW 1873   1.818   4.624   7.612 -0.1853 -0.1202 -0.0060
28088SOL    HW1 1874   1.849   4.535   7.595 -2.0623 -0.8540  0.1393
28088SOL    HW2 1875   1.735   4.612   7.658  0.0578  1.7405  1.0094
28089SOL     OW 1876   0.209  12.604   2.361 -0.2981  0.7692 -0.0857
28089SOL    HW1 1877   0.290  12.582   2.316  0.7951  2.4310  0.9753
28089SOL    HW2 1878   0.140  12.577   2.300  1.0576  0.5910 -1.6024
28090SOL     OW 1879   2.344   4.764   3.785 -0.6610 -0.8791  0.3416
28090SOL    HW1 1880   2.262   4.783   3.831 -0.3700  1.4987  0.0012
28090SOL    HW2 1881   2.317   4.726   3.702 -1.4200 -0.4408  0.3802
28091SOL     OW 1882   7.369  13.978   1.691 -0.3142  0.7877 -0.7247
28091SOL    HW1 1883   7.361  13.945   1.602 -3.2139  1.0754 -0.6855
28091SOL    HW2 1884   7.439  14.043   1.687  1.0131 -0.6663 -2.2767
28092SOL     OW 1885  12.174   7.357  12.582 -0.2955 -0.2822 -0.1074
28092SOL    HW1 1886  12.143   7.367  12.672 -0.6123  0.4376 -0.2820
28092SOL    HW2 1887  12.268   7.373  12.587 -0.3561  0.0313  0.0601
28093SOL     OW 1888   2.253   2.022  10.974 -0.3477 -0.2667 -0.4471
28093SOL    HW1 1889   2.240   1.959  10.903 -2.4161 -0.9211  0.4450
28093SOL    HW2 1890   2.178   2.010  11.032  0.7697  0.9094  1.3797
28094SOL     OW 1891   4.873  10.465  13.907 -0.7689 -0.6096 -0.2080
28094SOL    HW1 1892   4.959  10.475  13.866 -0.2289 -1.2033  0.7368
28094SOL    HW2 1893   4.811  10.499  13.842  0.1114 -0.8694 -1.2138
28095SOL     OW 1894   3.319   7.526   2.057 -0.0751  1.0226  0.3684
28095SOL    HW1 1895   3.327   7.612   2.017  1.4740  0.9601  0.5119
28095SOL    HW2 1896   3.351   7.538   2.147  1.3614  0.0310  0.0099
28096SOL     OW 1897   5.208  10.700   7.394  0.7403  0.0247  0.0348
28096SOL    HW1 1898   5.249  10.786   7.397  0.8091  0.1740 -2.7401
28096SOL    HW2 1899   5.279  10.640   7.370  0.4677 -0.6266  0.8354
28097SOL     OW 1900   9.837  12.989   7.338 -0.1449  0.4753 -0.1467
28097SOL    HW1 1901   9.875  13.048   7.272  1.1110 -0.2883 -0.1408
28097SOL    HW2 1902   9.773  12.937   7.290 -0.1280  0.7608 -0.4878
28098SOL     OW 1903   7.422  10.717   2.126 -0.1825  0.1472 -0.2196
28098SOL    HW1 1904   7.410  10.667   2.207  1.3911 -1.9341 -1.1644
28098SOL    HW2 1905   7.336  10.755   2.109 -2.5107 -4.5855 -0.8533
28099SOL     OW 1906  11.566  13.935   6.533 -0.2410 -0.2945  0.4836
28099SOL    HW1 1907  11.572  13.869   6.602  0.4607  0.2689  0.9830
28099SOL    HW2 1908  11.482  13.920   6.492  0.0086 -1.6503  0.4343
28100SOL     OW 1909   4.733   4.576   0.304  0.1281  0.3175 -0.1502
28100SOL    HW1 1910   4.817   4.545   0.337  0.3573 -0.0045 -1.0173
28100SOL    HW2 1911   4.755   4.640   0.236 -0.3384  1.1900  0.4922
28101SOL     OW 1912  13.349   7.945   7.462 -0.3592 -0.5405  0.0362
28101SOL    HW1 1913  13.437   7.930   7.427 -0.6180 -3.2984  0.3384
28101SOL    HW2 1914  13.336   8.039   7.454  1.7294 -0.3312 -2.1124
28102SOL     OW 1915   5.307   3.019  12.907  0.2749 -0.5754  0.3912
28102SOL    HW1 1916   5.396   3.018  12.943  0.3284 -1.2073  0.2640
28102SOL    HW2 1917   5.272   3.104  12.931  0.7060 -0.5518  0.9587
28103SOL     OW 1918   0.819   5.904  10.988  0.3178  0.0144 -0.2321
28103SOL    HW1 1919   0.789   5.843  10.921  0.5977 -0.2511 -0.1130
28103SOL    HW2 1920   0.889   5.954  10.946  2.4065 -1.9786  0.6730
28104SOL     OW 1921  12.473   5.820   0.825 -0.3905 -0.1290 -0.2208
28104SOL    HW1 1922  12.515   5.900   0.856  2.4682 -1.8042  0.6238
28104SOL    HW2 1923  12.442   5.777   0.905 -0.2624 -0.7006 -0.4721
28105SOL     OW 1924  11.660  13.205   5.437 -0.1644  0.3335  0.0050
28105SOL    HW1 1925  11.612  13.250   5.506 -0.1119 -0.8876  0.8441
28105SOL    HW2 1926  11.608  13.128   5.417 -0.0474  0.5306 -1.1564
28106SOL     OW 1927   1.444   6.862   4.912 -0.0771 -0.2633 -0.3768
28106SOL    HW1 1928   1.473   6.950   4.935  0.4704 -0.3958 -0.5261
28106SOL    HW2 1929   1.400   6.872   4.827  1.4269 -0.3546 -1.2121
28107SOL     OW 1930   3.792   5.381  11.331  0.3548 -0.0855 -0.2191
28107SOL    HW1 1931   3.828   5.353  11.247 -1.7966  1.3906 -1.7528
28107SOL    HW2 1932   3.700   5.356  11.327  0.1777  0.1444  1.6577
28108SOL     OW 1933  12.252  12.646   9.651  0.3912  0.2148  0.5184
28108SOL    HW1 1934  12.278  12.554   9.647  1.0635  0.4248 -0.1443
28108SOL    HW2 1935  12.193  12.657   9.577  1.4531  0.6576 -0.2771
28109SOL     OW 1936   2.351   3.032  11.300  0.2168 -0.0953 -0.4388
28109SOL    HW1 1937   2.358   3.094  11.227 -0.1884  0.5163  0.0326
28109SOL    HW2 1938   2.258   3.012  11.306 -0.0999  1.5826  1.2945
28110SOL     OW 1939   8.783   1.690   4.898  0.3576  0.0386 -0.4190
28110SOL    HW1 1940   8.804   1.754   4.967  1.5126 -1.1062  0.3583
28110SOL    HW2 1941   8.833   1.719   4.822  0.5604  0.2981 -0.1898
28111SOL     OW 1942   2.936   0.551  10.116  0.0574  0.1415 -0.4374
28111SOL    HW1 1943   2.905   0.505  10.038  0.5897  0.4822 -0.8534
28111SOL    HW2 1944   2.946   0.482  10.182 -1.9291  0.0524 -0.1501
28112SOL     OW 1945   2.674   6.815   7.345 -0.4952  0.4595  0.1081
28112SOL    HW1 1946   2.654   6.722   7.346  2.8402 -0.4110 -0.9226
28112SOL    HW2 1947   2.603   6.854   7.294 -1.1657 -1.7830 -0.8169
28113SOL     OW 1948   1.774   2.266   0.141 -0.1358  0.3484 -0.2503
28113SOL    HW1 1949   1.787   2.196   0.206  0.1390 -0.8205 -1.5150
28113SOL    HW2 1950   1.738   2.221   0.065  1.3287  1.3414 -1.5982
28114SOL     OW 1951   8.018  11.573  12.594 -0.5153  0.2680 -0.3921
28114SOL    HW1 1952   8.071  11.510  12.643 -0.9569  0.4355  0.3111
28114SOL    HW2 1953   7.947  11.596  12.654 -0.4261  1.3405 -0.6822
28115SOL     OW 1954  13.923  10.394   2.442  0.1240  0.5637  0.3253
28115SOL    HW1 1955  14.013  10.401   2.472  0.5683 -0.8516 -0.5665
28115SOL    HW2 1956  13.892  10.484   2.437  1.3235  1.0420  1.1079
28116SOL     OW 1957   3.686  13.644   3.285 -0.1071  0.1196 -0.1291
28116SOL    HW1 1958   3.717  13.555   3.273 -1.6223 -0.3629 -0.7012
28116SOL    HW2 1959   3.765  13.695   3.303  1.4405 -0.5628 -3.9648
28117SOL     OW 1960  12.186  10.504   4.550 -0.7383 -0.3853 -0.4526
28117SOL    HW1 1961  12.271  10.465   4.530 -0.3602 -0.2368  0.7617
28117SOL    HW2 1962  12.185  10.585   4.500  0.3895  0.2374  0.4705
28118SOL     OW 1963  13.112   2.215   5.486  0.3640 -0.1205  0.2282
28118SOL    HW1 1964  13.114   2.291   5.428 -1.9703 -0.5013 -0.4287
28118SOL    HW2 1965  13.137   2.142   5.430 -0.2489 -0.2526  0.1295
28119SOL     OW 1966  11.541   6.751   2.938 -0.7346 -0.1142  0.1520
28119SOL    HW1 1967  11.614   6.736   2.878  2.3502 -0.0488  3.5413
28119SOL    HW2 1968  11.538   6.672   2.992 -2.4232  0.3951  0.8588
28120SOL     OW 1969  13.796  13.756   6.413 -0.0929 -0.3818  0.0884
28120SOL    HW1 1970  13.704  13.736   6.393  0.2475 -2.4812  0.3883
28120SOL    HW2 1971  13.820  13.824   6.351 -2.0175  0.6750  0.4157
28121SOL     OW 1972   2.239  13.923   8.780 -0.4361 -0.4645  0.1361
28121SOL    HW1 1973   2.244  13.896   8.871  0.9754  1.0911  0.5821
28121SOL    HW2 1974   2.327  13.907   8.745 -0.1677  1.4054 -0.1577
28122SOL     OW 1975  13.369   3.266  10.248  0.6607  0.2835 -0.3941
28122SOL    HW1 1976  13.287   3.231  10.283  1.0956 -1.5574 -1.1022
28122SOL    HW2 1977  13.346   3.352  10.215 -1.2631 -0.6317 -1.5983
28123SOL     OW 1978   8.796  10.263   4.630 -0.4682  0.1336 -0.5554
28123SOL    HW1 1979   8.725  10.210   4.594  0.2938 -0.6142 -0.9785
28123SOL    HW2 1980   8.814  10.225   4.716  0.8271 -1.0472 -1.3060
28124SOL     OW 1981  11.306   5.021   3.979 -0.5381 -0.0658 -0.4768
28124SOL    HW1 1982  11.280   4.973   4.058  0.4397 -0.9872 -0.6910
28124SOL    HW2 1983  11.352   4.956   3.925  0.8279  1.0952 -0.7699
28125SOL     OW 1984   3.078   2.191   0.227  0.6000 -0.5630  0.1603
28125SOL    HW1 1985   3.140   2.257   0.258  0.3279  0.7868 -1.9751
28125SOL    HW2 1986   3.065   2.211   0.134 -2.0285 -1.5844  0.1985
28126SOL     OW 1987  12.109  13.702   6.884  0.8250  0.2308 -0.1332
28126SOL    HW1 1988  12.094  13.623   6.833 -2.1094 -0.9375  2.2457
28126SOL    HW2 1989  12.093  13.774   6.822 -1.6995 -1.0972 -1.1689
28127SOL     OW 1990  11.601   8.748   1.521  0.0415 -0.3349  0.4017
28127SOL    HW1 1991  11.549   8.669   1.509 -0.0025 -0.4978  1.5988
28127SOL    HW2 1992  11.537   8.818   1.533  0.0915 -0.1976 -0.0771
28128SOL     OW 1993   8.687  10.686   1.728  1.0281  0.1764  0.0269
28128SOL    HW1 1994   8.722  10.708   1.642  0.7745  2.3560  0.4358
28128SOL    HW2 1995   8.592  10.694   1.718  0.9979  0.4544  0.5096
28129SOL     OW 1996  11.067   9.477   4.228  0.1663 -0.2135  0.3951
28129SOL    HW1 1997  11.107   9.508   4.147 -0.6079  1.6108  0.6598
28129SOL    HW2 1998  11.139   9.437   4.277  0.4919 -2.0926 -1.4910
28130SOL     OW 1999   7.980   4.920   1.027  0.5477  0.1796  0.1883
28130SOL    HW1 2000   7.931   4.891   0.951 -0.3647 -1.3717  1.3119
28130SOL    HW2 2001   7.925   4.988   1.066 -0.2243 -0.7768  0.8207
28131SOL     OW 2002   6.117  12.077   7.569  0.3102 -0.0366  0.0127
28131SOL    HW1 2003   6.178  12.007   7.546 -0.5132 -1.3198  1.5924
28131SOL    HW2 2004   6.055  12.037   7.630 -0.7910  1.8141  0.1956
28132SOL     OW 2005   0.488  11.520   1.850  0.2946 -0.4583  0.0888
28132SOL    HW1 2006   0.474  11.520   1.756  0.4062  0.6508  0.0699
28132SOL    HW2 2007   0.507  11.611   1.873  1.5703 -0.9162  0.9877
28133SOL     OW 2008   1.675  10.424   6.654 -0.2576 -0.1743  0.3308
28133SOL    HW1 2009   1.665  10.375   6.735  1.1821 -1.2279 -0.0972
28133SOL    HW2 2010   1.710  10.509   6.681 -0.0455 -0.4223  0.8361
28134SOL     OW 2011   0.034   5.980   5.180  0.1801 -0.2867 -0.4605
28134SOL    HW1 2012   0.035   6.076   5.184  1.2414 -0.3238  0.5058
28134SOL    HW2 2013   0.071   5.959   5.095  1.2308  0.1481 -0.1193
28135SOL     OW 2014   8.912   4.522   2.504  0.5807 -0.3200 -0.4835
28135SOL    HW1 2015   9.005   4.528   2.482  0.4549  0.7815 -0.7723
28135SOL    HW2 2016   8.908   4.453   2.571  1.4121 -1.3071 -1.4074
28136SOL     OW 2017  11.250   7.937   4.364 -0.6480  0.0602 -0.2514
28136SOL    HW1 2018  11.191   7.902   4.431  0.1035  0.3447  0.5676
28136SOL    HW2 2019  11.290   8.014   4.404 -0.9351  0.8345 -1.3929
28137SOL     OW 2020   4.087  13.121  12.908  0.5143 -0.2532 -0.0435
28137SOL    HW1 2021   4.120  13.034  12.927  0.3653 -0.1616  0.6848
28137SOL    HW2 2022   3.995  13.108  12.885  0.4563 -0.2770  0.1994
28138SOL     OW 2023   8.798   3.020   3.783 -1.1814 -0.0959  0.1046
28138SOL    HW1 2024   8.845   2.938   3.774 -1.0889  0.0014 -0.3440
28138SOL    HW2 2025   8.709   2.995   3.809 -1.0811 -0.3225  0.2262
28139SOL     OW 2026  10.586  12.887   5.076  0.4666  0.3440  0.7151
28139SOL    HW1 2027  10.593  12.978   5.050 -1.0586  0.2928  0.0156
28139SOL    HW2 2028  10.494  12.876   5.100  0.8040 -0.8152  1.5676
28140SOL     OW 2029   8.846   1.893   7.252 -0.1844 -0.0317  0.7125
28140SOL    HW1 2030   8.930   1.914   7.212  0.2289 -1.8608  0.5543
28140SOL    HW2 2031   8.806   1.829   7.193 -0.8045 -0.6613  1.7817
28141SOL     OW 2032  11.870  12.720   3.418 -0.0551  0.0143  0.1572
28141SOL    HW1 2033  11.933  12.706   3.348  0.3888  0.7040  0.4152
28141SOL    HW2 2034  11.805  12.779   3.381  0.8861  1.4418  0.7316
28142SOL     OW 2035   3.667   5.020   7.890 -0.5424  0.1996 -0.0423
28142SOL    HW1 2036   3.690   4.954   7.825 -2.4098 -1.0178  0.4574
28142SOL    HW2 2037   3.654   4.971   7.971  1.5805  1.6657  1.2801
28143SOL     OW 2038  13.199  12.204   6.110 -0.2287  0.0690 -0.1857
28143SOL    HW1 2039  13.187  12.235   6.200 -0.3236 -1.2811  0.2906
28143SOL    HW2 2040  13.214  12.283   6.059 -0.2766  0.8670  1.0041
28144SOL     OW 2041  11.576   0.451  13.633  0.1569  0.1205  0.4176
28144SOL    HW1 2042  11.544   0.524  13.686  1.5121 -0.7484  2.5722
28144SOL    HW2 2043  11.523   0.376  13.660  0.7366 -0.2963  0.4244
28145SOL     OW 2044  13.111   7.732   4.932 -0.0469  0.1352 -0.2634
28145SOL    HW1 2045  13.126   7.642   4.962  1.0219 -0.1652 -1.6555
28145SOL    HW2 2046  13.171   7.745   4.859 -1.1149  1.5498 -0.9568
28146SOL     OW 2047   2.352   8.824  13.225 -0.2829 -0.1258 -0.0636
28146SOL    HW1 2048   2.382   8.895  13.282 -1.6680  0.2472  0.2420
28146SOL    HW2 2049   2.392   8.746  13.261  2.4736  0.6006 -1.2656
28147SOL     OW 2050   2.094   0.746   1.032  0.6500  0.1493 -0.1360
28147SOL    HW1 2051   2.041   0.805   1.085 -1.9215 -1.1490 -1.0592
28147SOL    HW2 2052   2.146   0.696   1.095  0.0998  0.8634  0.9089
28148SOL     OW 2053   6.934   2.446   8.781 -0.1193 -0.0820  0.3090
28148SOL    HW1 2054   6.933   2.541   8.771  0.1567 -0.1401 -0.3216
28148SOL    HW2 2055   6.887   2.413   8.705  1.4270 -0.5125 -0.5164
28149SOL     OW 2056   0.360  10.533   7.066  0.0212 -0.4028  0.7144
28149SOL    HW1 2057   0.433  10.534   7.004  0.2960 -0.8899  1.0230
28149SOL    HW2 2058   0.290  10.580   7.022  0.2477 -0.6573  0.0825
28150SOL     OW 2059   1.889   4.898  13.076  0.1216 -0.1956  0.5705
28150SOL    HW1 2060   1.819   4.850  13.033 -0.5780  0.9533  0.3746
28150SOL    HW2 2061   1.897   4.979  13.026  0.4987  0.3866  1.5428
28151SOL     OW 2062   3.805  10.921   8.829 -0.0318  0.2506  0.5044
28151SOL    HW1 2063   3.726  10.975   8.828 -0.6780 -0.5704  2.5266
28151SOL    HW2 2064   3.876  10.984   8.842 -0.5651  0.8278  0.7132
28152SOL     OW 2065   5.202   2.480   8.183  0.6546 -0.7071 -0.3235
28152SOL    HW1 2066   5.196   2.484   8.278  0.9606 -1.0158 -0.2923
28152SOL    HW2 2067   5.200   2.387   8.162 -2.2659 -0.6273 -0.8086
28153SOL     OW 2068   5.798   6.898   1.740 -0.4011 -0.6751 -0.3830
28153SOL    HW1 2069   5.798   6.931   1.830  1.0177 -0.2275 -0.5112
28153SOL    HW2 2070   5.737   6.955   1.693  1.0697  1.0395 -0.3220
28154SOL     OW 2071  12.343   5.805   0.257  1.0659 -0.4861  0.5646
28154SOL    HW1 2072  12.375   5.716   0.240  1.1558 -0.4967  0.7858
28154SOL    HW2 2073  12.316   5.803   0.349 -0.1163 -0.6421  0.2308
28155SOL     OW 2074   3.549   4.841  12.227  0.2030  0.4804  0.4480
28155SOL    HW1 2075   3.523   4.855  12.318  0.5352 -0.5709  0.7246
28155SOL    HW2 2076   3.467   4.826  12.180 -0.1896  3.2033  0.1051
28156SOL     OW 2077   9.103  12.055   5.765 -0.5066  0.5007  0.2940
28156SOL    HW1 2078   9.195  12.081   5.762 -0.5182  0.4883 -0.2734
28156SOL    HW2 2079   9.100  11.971   5.720 -0.8363  0.6191  0.0979
28157SOL     OW 2080  12.983   3.738   0.513 -0.2771 -0.4060  0.2098
28157SOL    HW1 2081  12.989   3.721   0.419  0.2139 -0.0223  0.1718
28157SOL    HW2 2082  13.073   3.750   0.542 -0.4297 -0.4446  0.7206
28158SOL     OW 2083   6.530   0.929  10.918 -0.2301 -0.1760  0.6046
28158SOL    HW1 2084   6.545   0.844  10.960  0.3039  0.6491  2.1569
28158SOL    HW2 2085   6.604   0.983  10.946 -1.4596  1.3244  1.1251
28159SOL     OW 2086  11.313  13.173   6.701 -0.8011 -0.1076 -0.5789
28159SOL    HW1 2087  11.220  13.183   6.718 -0.5991 -0.0100  0.5108
28159SOL    HW2 2088  11.355  13.234   6.762 -0.0247 -0.1894 -1.0240
28160SOL     OW 2089   5.809  10.575   3.323  0.3917 -0.5026  0.1859
28160SOL    HW1 2090   5.806  10.559   3.418  0.8100 -1.2475  0.0722
28160SOL    HW2 2091   5.832  10.491   3.285 -1.4727 -0.6616 -0.7187
28161SOL     OW 2092   6.229   2.167   2.501 -0.4688  0.2537  0.3857
28161SOL    HW1 2093   6.210   2.236   2.437 -1.7652  0.3394  0.8409
28161SOL    HW2 2094   6.227   2.212   2.586  0.5712  0.0085  0.5570
28162SOL     OW 2095   2.964   0.855   7.030  0.4912  0.2240  0.4833
28162SOL    HW1 2096   3.051   0.835   7.066 -0.0932  0.4552  2.1057
28162SOL    HW2 2097   2.906   0.790   7.070  0.0537 -0.6314 -1.4257
28163SOL     OW 2098  10.647   3.088   7.084  0.2725  0.0732  0.0456
28163SOL    HW1 2099  10.671   3.041   7.004  0.2369  0.1029  0.0171
28163SOL    HW2 2100  10.720   3.075   7.143  0.3138  0.0788 -0.0042
28164SOL     OW 2101   1.492  12.138  13.455 -0.6078  0.0107  0.1336
28164SOL    HW1 2102   1.569  12.116  13.507 -1.1979  0.1221  1.0790
28164SOL    HW2 2103   1.504  12.230  13.431 -0.1830 -0.1302 -0.2124
28165SOL     OW 2104   8.621  13.055   8.522 -0.2589 -0.1926  0.0566
28165SOL    HW1 2105   8.634  12.992   8.450  1.4252  1.1727 -0.8895
28165SOL    HW2 2106   8.697  13.043   8.578  0.4768  1.4514 -0.5288
28166SOL     OW 2107   3.872  11.818   9.705  0.2034  0.3574  0.0832
28166SOL    HW1 2108   3.838  11.810   9.616 -1.2010  1.1157  0.5371
28166SOL    HW2 2109   3.923  11.737   9.718 -0.5308 -0.3023 -0.9944
28167SOL     OW 2110   0.973   2.952   5.438  0.1442  0.2801  0.1511
28167SOL    HW1 2111   0.968   2.894   5.514  1.3250 -1.5322 -1.0750
28167SOL    HW2 2112   1.064   2.980   5.435  0.1137  0.3279 -0.5825
28168SOL     OW 2113  11.876  13.271  13.398  0.0611  0.6571  0.1738
28168SOL    HW1 2114  11.780  13.276  13.394  0.0594  0.0739 -1.0333
28168SOL    HW2 2115  11.896  13.279  13.491 -1.2056  0.1246  0.5246
28169SOL     OW 2116   1.168   8.564   9.234  0.2762  0.4460  0.6248
28169SOL    HW1 2117   1.118   8.606   9.164  0.8162  1.0847  0.6132
28169SOL    HW2 2118   1.106   8.506   9.277  0.1031 -0.5227 -0.8450
28170SOL     OW 2119   8.634   9.141  13.575 -0.9012  0.5831 -0.1612
28170SOL    HW1 2120   8.558   9.093  13.542 -1.4121  0.5778  0.9556
28170SOL    HW2 2121   8.696   9.073  13.602 -0.5425  0.5875 -0.9515
28171SOL     OW 2122   2.533  13.387   2.670 -0.1200  0.6092  0.1953
28171SOL    HW1 2123   2.555  13.469   2.712 -0.4713 -0.5296  2.8085
28171SOL    HW2 2124   2.439  13.394   2.652 -1.0051 -0.3586  3.6054
28172SOL     OW 2125  13.708  12.449  11.253  0.2904 -0.1208 -0.0970
28172SOL    HW1 2126  13.778  12.511  11.232  1.3441 -0.8009  1.2211
28172SOL    HW2 2127  13.628  12.501  11.248  0.7364  0.4337 -2.6759
28173SOL     OW 2128   8.559   2.106   8.207 -0.4221 -0.1157  0.0476
28173SOL    HW1 2129   8.548   2.104   8.112  0.1879 -0.0167 -0.0319
28173SOL    HW2 2130   8.511   2.183   8.236  0.6589  0.7540 -0.3707
28174SOL     OW 2131   0.009   8.470   1.665 -0.3308 -0.2199  0.2552
28174SOL    HW1 2132   0.085   8.431   1.708 -0.1724  0.3355  0.4887
28174SOL    HW2 2133   0.046   8.536   1.606 -0.6927  1.0577  1.4220
28175SOL     OW 2134   7.013   7.417   1.271  0.1897 -0.0560 -0.4917
28175SOL    HW1 2135   6.922   7.445   1.268 -0.3922 -1.8174 -2.8654
28175SOL    HW2 2136   7.050   7.460   1.348 -2.2975  1.6866 -0.1745
28176SOL     OW 2137   0.466   7.999  11.896 -0.1825 -0.2049 -0.2213
28176SOL    HW1 2138   0.456   7.925  11.836  1.6376  0.1856 -1.0660
28176SOL    HW2 2139   0.379   8.039  11.900  0.0743  1.3829 -4.8338
28177SOL     OW 2140   2.160   3.922   3.048 -0.2473  0.1243  0.0684
28177SOL    HW1 2141   2.142   3.851   2.986  0.4378  0.3615 -0.4148
28177SOL    HW2 2142   2.081   3.975   3.048 -1.0811 -1.0440  1.0136
28178SOL     OW 2143  10.228  10.422   1.674  0.1490  0.1160 -0.0106
28178SOL    HW1 2144  10.210  10.349   1.614  0.0206 -0.6705  0.9595
28178SOL    HW2 2145  10.254  10.380   1.756 -0.8903  1.1396  0.8814
28179SOL     OW 2146   2.983   5.196   5.389 -0.4397 -0.3832 -0.1279
28179SOL    HW1 2147   2.895   5.234   5.393 -1.0935 -1.5547 -1.9518
28179SOL    HW2 2148   3.006   5.200   5.296  0.3443 -2.4215 -0.0701
28180SOL     OW 2149  12.222   0.824   7.468 -0.1347  0.2248  0.4558
28180SOL    HW1 2150  12.143   0.771   7.456  0.2749 -0.5448  1.0357
28180SOL    HW2 2151  12.284   0.790   7.403  0.1711 -0.1137  0.9123
28181SOL     OW 2152   2.889   0.656  12.551  0.5109 -0.3373 -0.3268
28181SOL    HW1 2153   2.923   0.690  12.468  0.7108 -1.2863 -0.6401
28181SOL    HW2 2154   2.965   0.651  12.608  0.4426 -0.0695 -0.2074
28182SOL     OW 2155  11.776  12.913   2.105 -0.1305  0.1430 -0.4315
28182SOL    HW1 2156  11.723  12.991   2.089  0.4754  0.4303 -1.0662
28182SOL    HW2 2157  11.744  12.849   2.041 -0.6645 -0.1617  0.1256
28183SOL     OW 2158   6.109   0.530   0.238  0.2514 -0.3023 -0.6276
28183SOL    HW1 2159   6.036   0.506   0.294  0.8987 -0.9199 -0.0337
28183SOL    HW2 2160   6.145   0.447   0.207  1.5853 -0.0759  0.2539
28184SOL     OW 2161   4.727  11.691   6.465  0.6260 -0.2452  0.4627
28184SOL    HW1 2162   4.674  11.698   6.386  0.6297  0.7026  0.5413
28184SOL    HW2 2163   4.685  11.750   6.528  1.0435 -0.4410  0.9335
28185SOL     OW 2164  13.455   5.781   0.914 -0.1211 -0.5559  0.3372
28185SOL    HW1 2165  13.371   5.794   0.869 -0.7108  0.9523  1.7771
28185SOL    HW2 2166  13.431   5.755   1.003  0.9610 -1.0295  0.5004
28186SOL     OW 2167  10.458  10.547   1.576 -0.1128 -0.3037 -0.0727
28186SOL    HW1 2168  10.386  10.500   1.619  0.0907 -1.5148 -0.9765
28186SOL    HW2 2169  10.423  10.634   1.559 -1.7091 -1.1295 -1.2877
28187SOL     OW 2170   3.875   4.875   6.681 -0.2054 -0.3101 -0.2891
28187SOL    HW1 2171   3.868   4.913   6.768  1.3056  0.6707 -0.5500
28187SOL    HW2 2172   3.948   4.814   6.686  1.4310  1.4197 -1.3433
28188SOL     OW 2173  13.757   8.368   2.235  0.1375  0.2248 -0.5722
28188SOL    HW1 2174  13.681   8.360   2.293  1.1092  0.2176  0.7639
28188SOL    HW2 2175  13.801   8.449   2.263  0.0623  0.7929 -2.0309
28189SOL     OW 2176  10.094   0.050   3.842 -0.3384  0.4764  0.0110
28189SOL    HW1 2177  10.183   0.042   3.808 -0.8525  0.1966 -1.3350
28189SOL    HW2 2178  10.094  -0.003   3.922  1.3229  2.3951  1.3645
28190SOL     OW 2179   0.426   7.821   1.274 -0.0755 -0.2044  0.7973
28190SOL    HW1 2180   0.394   7.865   1.195  1.9065 -0.3143 -0.1442
28190SOL    HW2 2181   0.376   7.739   1.278  0.4396 -0.6568 -0.9417
28191SOL     OW 2182   0.617   6.941  11.759  0.1319  0.1373  0.1411
28191SOL    HW1 2183   0.540   6.991  11.787 -0.7296 -1.3131  0.4819
28191SOL    HW2 2184   0.605   6.928  11.665 -1.2174 -1.8835  0.5087
28192SOL     OW 2185   8.214  13.072   8.216 -0.0029  0.1880 -0.3334
28192SOL    HW1 2186   8.205  12.978   8.199 -2.1168  0.2044  0.3060
28192SOL    HW2 2187   8.303  13.093   8.190 -0.7407 -1.0918 -4.8944
28193SOL     OW 2188   8.727   5.538  10.848  0.3337 -0.2072 -0.5777
28193SOL    HW1 2189   8.641   5.570  10.877 -0.0746 -1.1909 -0.6682
28193SOL    HW2 2190   8.746   5.590  10.770  0.2352  0.6308 -0.0660
28194SOL     OW 2191  12.693   7.938   8.986 -0.0058  0.1150 -0.3119
28194SOL    HW1 2192  12.683   7.922   9.080 -2.3042  0.1219 -0.4900
28194SOL    HW2 2193  12.764   7.881   8.958  1.0878  0.5207  1.5127
28195SOL     OW 2194   3.241   1.868  13.505  0.3138  0.7549  0.4227
28195SOL    HW1 2195   3.164   1.893  13.557  0.3980 -0.0774  0.9671
28195SOL    HW2 2196   3.292   1.949  13.497 -0.3972  1.2094  0.4384
28196SOL     OW 2197  12.824  12.405   2.291 -0.7701  0.2822 -0.2930
28196SOL    HW1 2198  12.788  12.441   2.210 -1.0788  1.3251  0.2866
28196SOL    HW2 2199  12.784  12.458   2.361  1.0049  0.7400  0.4334
28197SOL     OW 2200  13.319   7.771  12.582  0.5190  0.3662  0.2308
28197SOL    HW1 2201  13.263   7.849  12.593  2.0350  1.4834  0.3611
28197SOL    HW2 2202  13.406   7.800  12.609  1.5115 -0.8737 -1.4307
28198SOL     OW 2203  12.430  13.727   8.323 -0.0823  1.0103 -0.5231
28198SOL    HW1 2204  12.522  13.702   8.311 -0.2367  1.2417 -2.6160
28198SOL    HW2 2205  12.393  13.659   8.379  1.3265  0.8590  0.2639
28199SOL     OW 2206   8.035   6.732   0.806 -0.0356  0.5268  0.8856
28199SOL    HW1 2207   8.119   6.695   0.831 -1.4110 -1.1428  3.4620
28199SOL    HW2 2208   8.015   6.795   0.875 -1.3352  0.1423  0.8917
28200SOL     OW 2209  10.831  11.084   7.094  0.1717  0.4367  0.2607
28200SOL    HW1 2210  10.869  11.162   7.135 -0.9918  0.5275  1.2288
28200SOL    HW2 2211  10.906  11.035   7.062  1.0724  0.8838  1.6008
28201SOL     OW 2212  13.951  10.461   3.726  0.0039  0.1094  0.0043
28201SOL    HW1 2213  14.028  10.405   3.719 -0.6697 -0.6420 -2.1540
28201SOL    HW2 2214  13.986  10.549   3.742  1.1762 -0.5364  1.1762
28202SOL     OW 2215   4.225   2.184   8.100 -0.5444 -1.1076 -0.4248
28202SOL    HW1 2216   4.253   2.143   8.018 -0.4018  1.5380 -1.8008
28202SOL    HW2 2217   4.305   2.224   8.135 -1.0271 -0.3008 -0.2150
28203SOL     OW 2218  11.221   5.252  13.828 -0.2809  0.2324 -0.0479
28203SOL    HW1 2219  11.148   5.222  13.882  0.6540 -2.6158 -0.2230
28203SOL    HW2 2220  11.300   5.224  13.876  0.7191  1.9258 -0.5845
28204SOL     OW 2221  13.454   4.469   7.238  0.4015 -0.0845 -0.4216
28204SOL    HW1 2222  13.420   4.420   7.313  1.2067 -0.4110 -0.2640
28204SOL    HW2 2223  13.407   4.553   7.241  1.3968  0.4563  1.2540
28205SOL     OW 2224  12.464   4.396   4.767 -0.1246  0.5462  0.0055
28205SOL    HW1 2225  12.464   4.304   4.794 -0.1422  0.2433 -0.9690
28205SOL    HW2 2226  12.556   4.416   4.751 -0.0967  0.7695  0.4264
28206SOL     OW 2227   4.181   6.545   0.467  0.4152 -0.5749 -0.0728
28206SOL    HW1 2228   4.243   6.533   0.539  1.9097 -3.0463 -1.6141
28206SOL    HW2 2229   4.097   6.517   0.504  0.5586  0.8168  1.4461
28207SOL     OW 2230   3.744   3.188   5.110  0.3434  0.4913  0.5334
28207SOL    HW1 2231   3.751   3.165   5.203  0.4308 -1.7823  0.0406
28207SOL    HW2 2232   3.813   3.253   5.096  1.7567 -0.6894  1.6554
28208SOL     OW 2233   3.735   8.913   9.979 -0.2511  0.3004  0.2952
28208SOL    HW1 2234   3.665   8.874  10.030 -0.0880  0.7364  0.8730
28208SOL    HW2 2235   3.730   8.872   9.893 -0.5022 -0.4801  0.6819
28209SOL     OW 2236   4.370   3.275   4.903 -0.0514 -0.4576 -0.1269
28209SOL    HW1 2237   4.386   3.256   4.995  2.8994  0.8781 -0.2175
28209SOL    HW2 2238   4.385   3.192   4.858 -0.8209 -0.9588  0.5242
28210SOL     OW 2239   5.149   6.906   5.420 -0.4702 -0.3554 -0.7121
28210SOL    HW1 2240   5.199   6.826   5.406  1.5778  0.7982 -0.4579
28210SOL    HW2 2241   5.140   6.912   5.516  0.8178  0.4704 -0.6059
28211SOL     OW 2242  13.351   0.515   2.479 -0.2479 -0.1257 -0.0045
28211SOL    HW1 2243  13.375   0.430   2.445 -1.2109 -0.8154  0.9648
28211SOL    HW2 2244  13.408   0.528   2.555  1.4327  1.1151 -1.3707
28212SOL     OW 2245  13.565   8.871   8.671  0.1630  0.1288  0.3333
28212SOL    HW1 2246  13.521   8.955   8.683 -1.3015 -0.4925 -0.5007
28212SOL    HW2 2247  13.655   8.887   8.702 -0.1985  1.8634  0.6018
28213SOL     OW 2248   0.835   9.456   5.948  0.1839 -0.1147  0.2791
28213SOL    HW1 2249   0.814   9.536   5.900  0.6094 -0.4074 -0.4008
28213SOL    HW2 2250   0.861   9.487   6.035 -0.5964  0.4191  0.3348
28214SOL     OW 2251   5.641  11.084  13.280 -0.4692 -0.3899  0.1960
28214SOL    HW1 2252   5.601  11.161  13.319 -0.9607 -1.0579  1.0305
28214SOL    HW2 2253   5.656  11.109  13.188 -0.7327  0.6387  0.4214
28215SOL     OW 2254   7.212   3.279   4.365  0.3250  0.1580  0.6404
28215SOL    HW1 2255   7.123   3.261   4.396  0.0556  0.4765  0.0649
28215SOL    HW2 2256   7.258   3.308   4.443  0.2662 -1.1866  1.2039
28216SOL     OW 2257   9.191  12.935   7.609  0.2897 -0.8500 -0.5498
28216SOL    HW1 2258   9.230  12.856   7.573  1.5001 -0.0641 -1.0270
28216SOL    HW2 2259   9.119  12.955   7.550  1.3483 -0.3921 -1.7168
28217SOL     OW 2260   3.964   5.175   1.334  0.0966  0.0887 -0.4205
28217SOL    HW1 2261   3.955   5.089   1.374 -1.4670 -0.0315 -0.9527
28217SOL    HW2 2262   4.004   5.158   1.249  0.7760  0.0224 -0.0940
28218SOL     OW 2263   3.708  12.220   1.953  0.2681  0.1768  0.3766
28218SOL    HW1 2264   3.622  12.178   1.963  0.6161 -1.1472 -1.6044
28218SOL    HW2 2265   3.687  12.312   1.936 -0.6786  0.1371  1.2126
28219SOL     OW 2266   0.488   1.503   3.263 -0.2166  0.1864  0.3900
28219SOL    HW1 2267   0.555   1.570   3.278 -0.3584  1.0690 -2.3028
28219SOL    HW2 2268   0.533   1.420   3.278  1.2348  0.7953 -0.3874
28220SOL     OW 2269   6.143   2.049  13.943 -0.0221 -0.3923  0.3099
28220SOL    HW1 2270   6.172   1.987  13.876 -2.1640  0.2849 -1.3330
28220SOL    HW2 2271   6.136   1.996  14.023  0.4814 -1.7186 -0.4870
28221SOL     OW 2272  11.447  13.171  11.340 -0.3226 -0.2497 -0.4782
28221SOL    HW1 2273  11.517  13.112  11.366 -0.0177 -0.2278 -1.2173
28221SOL    HW2 2274  11.371  13.114  11.329 -0.7692 -0.1120  1.5131
28222SOL     OW 2275   6.912   0.057  11.068  0.7403 -0.0730  0.4586
28222SOL    HW1 2276   7.007   0.051  11.053  0.4093 -1.4799 -1.4672
28222SOL    HW2 2277   6.879  -0.030  11.047 -0.9630  0.2711  1.5220
28223SOL     OW 2278  12.649  12.981   2.010  0.7299  0.3271 -0.1341
28223SOL    HW1 2279  12.574  13.037   1.991 -0.5106 -1.2810 -0.2266
28223SOL    HW2 2280  12.680  13.010   2.095 -0.2250  0.8045  0.0663
28224SOL     OW 2281  10.358  13.434   5.485  0.2105 -0.6153 -0.5147
28224SOL    HW1 2282  10.268  13.445   5.517  0.4829  1.0577 -0.2322
28224SOL    HW2 2283  10.348  13.385   5.403 -0.9697 -0.3325 -0.5676
28225SOL     OW 2284  13.720   6.252   8.831  0.5735  0.0177  0.8034
28225SOL    HW1 2285  13.754   6.187   8.893 -0.7628 -1.3350  0.1850
28225SOL    HW2 2286  13.799   6.295   8.796  1.4825 -1.0631  1.4530
28226SOL     OW 2287   1.689   0.811   5.740  0.3709  0.3036  0.2229
28226SOL    HW1 2288   1.760   0.875   5.733  1.0496 -0.4706 -0.1589
28226SOL    HW2 2289   1.609   0.864   5.750  0.7548  1.2391 -1.3925
28227SOL     OW 2290  11.197   6.969   6.552  0.0881 -0.0123  0.4377
28227SOL    HW1 2291  11.132   6.990   6.618 -0.6803  0.6187 -0.4978
28227SOL    HW2 2292  11.205   6.873   6.556 -0.0338  0.0063  1.3371
28228SOL     OW 2293   2.793   9.018   8.994  0.1512  0.5169 -0.3582
28228SOL    HW1 2294   2.859   8.951   9.008  0.4518  0.5030 -1.6533
28228SOL    HW2 2295   2.792   9.030   8.899  0.6073  2.8163 -0.1360
28229SOL     OW 2296   9.922   2.949   5.331 -0.0567  0.4445  0.7009
28229SOL    HW1 2297   9.860   2.887   5.370  0.6815  0.2688  1.6390
28229SOL    HW2 2298   9.933   2.917   5.241  0.5392 -1.0032  1.2484
28230SOL     OW 2299  13.074   7.321  11.959 -0.6242  0.3661 -0.0883
28230SOL    HW1 2300  13.088   7.320  11.864  0.6259 -1.1719  0.0524
28230SOL    HW2 2301  13.112   7.404  11.989  0.7908 -0.0080 -0.7443
28231SOL     OW 2302   7.168  12.098  11.778  0.1349 -0.1951  0.0125
28231SOL    HW1 2303   7.081  12.081  11.815  0.3679 -1.6750 -0.0598
28231SOL    HW2 2304   7.224  12.033  11.819  1.1444  0.4736 -0.2663
28232SOL     OW 2305   3.947   1.844   8.669  0.1708  0.3392 -0.5870
28232SOL    HW1 2306   3.922   1.758   8.637  1.4915 -0.0513 -0.6261
28232SOL    HW2 2307   3.864   1.886   8.692 -0.4294 -1.4291  0.7155
28233SOL     OW 2308  12.564   9.370   5.327  0.3113  0.4710  0.8555
28233SOL    HW1 2309  12.625   9.303   5.360  0.4739  0.6988  1.0186
28233SOL    HW2 2310  12.599   9.393   5.241 -0.7720 -0.9797 -0.0177
28234SOL     OW 2311   0.121   5.489  11.789 -0.2350 -0.1721  0.1812
28234SOL    HW1 2312   0.157   5.406  11.821 -2.1472 -0.7133  1.0387
28234SOL    HW2 2313   0.138   5.551  11.860 -1.3181 -0.5352  0.7860
28235SOL     OW 2314   1.821   9.841   5.857 -0.3054  0.1463  0.1998
28235SOL    HW1 2315   1.747   9.843   5.918 -0.2525  0.2061  0.2616
28235SOL    HW2 2316   1.787   9.796   5.780 -0.7629  1.2203 -0.2421
28236SOL     OW 2317  12.923  13.616   6.670 -0.2274  0.0575 -0.3201
28236SOL    HW1 2318  12.857  13.547   6.659  0.6842 -1.1809  1.5086
28236SOL    HW2 2319  12.912  13.646   6.760  0.6569  0.9732 -0.4936
28237SOL     OW 2320   3.836  10.009  12.378  0.1503  0.6725  0.1732
28237SOL    HW1 2321   3.866  10.098  12.363 -0.2561  0.9727  1.0271
28237SOL    HW2 2322   3.745  10.019  12.407 -0.1770 -0.0800 -0.5436
28238SOL     OW 2323   5.332   0.791   6.393 -0.2250 -0.2240  0.0333
28238SOL    HW1 2324   5.326   0.759   6.483 -0.3571 -1.5463 -0.4151
28238SOL    HW2 2325   5.312   0.884   6.399  1.2562  0.0489  1.5681
28239SOL     OW 2326  11.008  10.915   7.837  0.5136  0.1282 -0.1449
28239SOL    HW1 2327  10.963  10.886   7.758  1.2668 -1.8871  0.1280
28239SOL    HW2 2328  11.072  10.979   7.805 -0.2177  0.4820 -0.9528
28240SOL     OW 2329   8.238   7.628   1.205 -0.3408  0.3058  0.8717
28240SOL    HW1 2330   8.289   7.706   1.227 -1.4244  1.6248 -1.0379
28240SOL    HW2 2331   8.158   7.661   1.165 -0.6439 -1.7895 -0.4397
28241SOL     OW 2332   8.358  13.921   6.268 -0.6296 -0.0388 -0.4222
28241SOL    HW1 2333   8.356  14.004   6.316  0.1643  0.0493 -0.5405
28241SOL    HW2 2334   8.450  13.908   6.245 -0.7454 -0.9506 -0.4080
28242SOL     OW 2335  12.389   1.148   5.983 -0.5933 -0.0227 -0.5071
28242SOL    HW1 2336  12.340   1.155   6.065 -1.1988  0.0682 -0.8719
28242SOL    HW2 2337  12.353   1.217   5.927 -0.7677 -0.6139 -1.1407
28243SOL     OW 2338   2.923   8.713  13.431 -0.0727 -0.1450  0.1877
28243SOL    HW1 2339   2.866   8.691  13.504  0.2062  0.9718  0.7687
28243SOL    HW2 2340   2.871   8.774  13.378 -0.0415 -0.4534 -0.1962
28244SOL     OW 2341  10.211   1.163   1.877 -0.2298  0.0551 -0.0567
28244SOL    HW1 2342  10.299   1.136   1.903 -0.4654 -1.6958 -0.9752
28244SOL    HW2 2343  10.188   1.106   1.804 -1.4618  1.6473 -0.9859
28245SOL     OW 2344  10.678  13.066   7.251 -0.4694  0.0409  0.2568
28245SOL    HW1 2345  10.705  12.981   7.216  1.0834  0.1705  1.0455
28245SOL    HW2 2346  10.669  13.050   7.345 -1.0050  0.5519  0.2923
28246SOL     OW 2347   6.844   7.351  13.899 -0.3467 -0.7905 -0.3565
28246SOL    HW1 2348   6.797   7.281  13.855 -0.3090 -0.5577 -0.7750
28246SOL    HW2 2349   6.824   7.339  13.992  0.3071 -1.8271 -0.3351
28247SOL     OW 2350   5.321   5.703  13.419  0.2789 -0.1878 -0.0532
28247SOL    HW1 2351   5.336   5.635  13.353 -0.2332  0.1094 -0.4841
28247SOL    HW2 2352   5.236   5.740  13.395 -0.2288 -0.5274  1.1753
28248SOL     OW 2353  13.626   7.229   0.676 -0.0285 -0.0961 -0.5107
28248SOL    HW1 2354  13.553   7.203   0.731 -0.8692  1.4326 -0.8529
28248SOL    HW2 2355  13.660   7.147   0.640 -2.0563 -0.7811 -0.9667
28249SOL     OW 2356  13.036  10.588   9.481  0.9668 -0.8638 -0.0201
28249SOL    HW1 2357  13.004  10.616   9.395 -3.0923 -1.8081  0.9842
28249SOL    HW2 2358  13.097  10.657   9.507 -1.7736  2.3666 -1.4064
28250SOL     OW 2359   2.429   7.010   2.552 -0.3913 -0.1198 -0.2978
28250SOL    HW1 2360   2.474   7.052   2.625  1.4551 -0.7268 -1.0247
28250SOL    HW2 2361   2.413   7.082   2.490  0.8802 -0.1088 -0.6395
28251SOL     OW 2362   4.784  10.809  10.081 -0.4057  0.2395  0.2270
28251SOL    HW1 2363   4.859  10.791  10.024  0.6537  1.0038  1.3288
28251SOL    HW2 2364   4.793  10.901  10.104 -0.9322  0.0084  1.4490
28252SOL     OW 2365   2.040   4.119   4.727  0.4096  0.2889  0.2126
28252SOL    HW1 2366   1.985   4.042   4.714  0.4197  0.1779  0.7973
28252SOL    HW2 2367   2.084   4.104   4.810  1.4864  0.2884 -0.3356
28253SOL     OW 2368   4.383  11.000  12.010  0.1330  0.0858 -0.0626
28253SOL    HW1 2369   4.324  10.939  12.056  0.5751 -1.1418 -1.0600
28253SOL    HW2 2370   4.331  11.080  11.999  0.2313  0.7115  3.1250
28254SOL     OW 2371  11.347   1.217   7.369 -0.5437 -0.1978 -0.7915
28254SOL    HW1 2372  11.345   1.299   7.319 -0.2143  1.0623  1.1822
28254SOL    HW2 2373  11.261   1.211   7.409  0.1266  0.3483  0.8136
28255SOL     OW 2374   7.279  11.034   8.530  0.3739  0.5063  0.1150
28255SOL    HW1 2375   7.368  11.055   8.501  0.1530 -0.8231 -1.6427
28255SOL    HW2 2376   7.275  10.939   8.528 -1.1709  0.5557 -0.0481
28256SOL     OW 2377   2.241  13.857   3.831  0.4645  0.4216  0.0560
28256SOL    HW1 2378   2.236  13.946   3.795  0.7441 -0.4288 -2.2057
28256SOL    HW2 2379   2.314  13.816   3.785  0.4154 -0.9659  1.1400
28257SOL     OW 2380   9.313   8.912  12.855 -0.2887  0.4721  0.1354
28257SOL    HW1 2381   9.233   8.873  12.892 -0.4279  1.0663  0.4726
28257SOL    HW2 2382   9.332   8.858  12.778  0.2058 -1.0367  1.2555
28258SOL     OW 2383   2.479   7.377   7.508  0.5450 -0.0388  0.1577
28258SOL    HW1 2384   2.546   7.308   7.509  1.0467  0.4202 -0.7737
28258SOL    HW2 2385   2.426   7.357   7.431  0.2389  0.2074  0.3020
28259SOL     OW 2386   1.984   3.542   3.167  0.0327  0.2970 -0.3567
28259SOL    HW1 2387   1.935   3.536   3.249  1.6056  0.2424  0.5990
28259SOL    HW2 2388   1.926   3.500   3.103 -0.4428 -1.3697  1.0776
28260SOL     OW 2389  10.282  10.670   6.326 -0.2822 -0.0764  0.5066
28260SOL    HW1 2390  10.206  10.638   6.374 -0.2024  0.8331  1.2756
28260SOL    HW2 2391  10.357  10.644   6.381 -0.0984 -0.1879  0.2051
28261SOL     OW 2392   1.769   1.428  12.953  0.7658 -0.0333 -0.4811
28261SOL    HW1 2393   1.821   1.348  12.955  0.1428 -0.5284 -2.2302
28261SOL    HW2 2394   1.796   1.471  12.871 -0.9296  0.1243 -0.9852
28262SOL     OW 2395   6.982   3.071   9.833  0.2127  0.1508  0.0040
28262SOL    HW1 2396   6.975   2.976   9.827 -0.1321  0.1986 -0.3826
28262SOL    HW2 2397   7.031   3.086   9.914 -1.1918 -0.2999  0.9840
28263SOL     OW 2398   8.719   5.722  13.826 -0.0150  0.0471  0.1336
28263SOL    HW1 2399   8.708   5.695  13.917 -1.0168 -0.5370 -0.1464
28263SOL    HW2 2400   8.742   5.815  13.831  0.5460 -0.1307  0.9963
28264SOL     OW 2401   5.350   9.715   3.498 -0.1719  0.2053 -0.3021
28264SOL    HW1 2402   5.312   9.660   3.566  0.9006 -0.4195 -0.1818
28264SOL    HW2 2403   5.439   9.734   3.529  0.0887  0.5079 -1.1888
28265SOL     OW 2404   8.383   9.728   6.342  0.0920  0.0281 -0.2067
28265SOL    HW1 2405   8.438   9.665   6.295 -0.3840 -0.8115  0.3264
28265SOL    HW2 2406   8.351   9.787   6.274 -1.6842 -1.9623 -1.2686
28266SOL     OW 2407   5.143   6.050  12.624 -0.5520  0.4010  0.1008
28266SOL    HW1 2408   5.058   6.094  12.613 -0.1535  1.4919  1.1643
28266SOL    HW2 2409   5.207   6.114  12.591  0.0186  0.5403  1.4262
28267SOL     OW 2410  10.676  12.480   8.414 -0.4920  0.3028 -0.1117
28267SOL    HW1 2411  10.771  12.495   8.409 -0.3987 -0.2447 -0.0447
28267SOL    HW2 2412  10.660  12.407   8.354 -1.1645  1.6356 -1.6402
28268SOL     OW 2413   8.196   3.802   7.167 -0.3591 -0.2800 -0.3005
28268SOL    HW1 2414   8.204   3.837   7.256 -0.8238  1.6836 -0.9810
28268SOL    HW2 2415   8.109   3.830   7.138 -0.7009 -1.9403 -0.9633
28269SOL     OW 2416  11.316   8.628   5.651 -0.0507 -0.4067  0.0875
28269SOL    HW1 2417  11.330   8.576   5.730  3.6983  0.5255  0.1887
28269SOL    HW2 2418  11.336   8.717   5.677  0.9154 -0.0221 -1.7837
28270SOL     OW 2419   8.174   7.770   9.746 -0.0426 -0.2498 -0.1406
28270SOL    HW1 2420   8.142   7.852   9.708 -0.0816 -0.7790 -1.2952
28270SOL    HW2 2421   8.126   7.702   9.698 -0.1423 -0.9489  0.9258
28271SOL     OW 2422   8.738  12.485   6.326 -0.3366 -0.0440  0.0106
28271SOL    HW1 2423   8.780  12.400   6.341 -0.8057  0.0250  2.0116
28271SOL    HW2 2424   8.809  12.542   6.295 -0.0995 -1.2107 -1.7440
28272SOL     OW 2425   1.900  13.135   8.346 -0.2159 -0.1889  0.3214
28272SOL    HW1 2426   1.992  13.119   8.327 -0.3936 -1.1657  0.2484
28272SOL    HW2 2427   1.893  13.230   8.354  0.9769 -0.1646  1.2801
28273SOL     OW 2428   0.110   1.680   0.759 -0.3953  0.6281 -0.6552
28273SOL    HW1 2429   0.149   1.623   0.826  0.8014  1.9138 -0.2080
28273SOL    HW2 2430   0.106   1.766   0.801 -0.1609  1.3352 -2.0460
28274SOL     OW 2431   0.713  10.042   4.489  0.1102  0.7062  0.4954
28274SOL    HW1 2432   0.650  10.107   4.460  0.5453  1.4283  1.1399
28274SOL    HW2 2433   0.700  10.036   4.584 -1.3659 -1.6902  0.2420
28275SOL     OW 2434   2.757   7.688   6.922  0.0732 -0.9201 -0.2754
28275SOL    HW1 2435   2.760   7.784   6.917  0.3617 -0.9870 -2.1335
28275SOL    HW2 2436   2.839   7.664   6.964  0.4287 -0.3881 -0.6516
28276SOL     OW 2437   5.161  12.717   3.352  0.6289 -0.5063 -0.0440
28276SOL    HW1 2438   5.153  12.649   3.419  0.4708 -1.2836 -0.8229
28276SOL    HW2 2439   5.098  12.784   3.378 -0.1359 -1.2523  0.0633
28277SOL     OW 2440  12.869   6.499   5.653  0.4904  0.3164  0.1378
28277SOL    HW1 2441  12.878   6.406   5.634 -2.1426 -0.4547  2.0649
28277SOL    HW2 2442  12.816   6.534   5.581 -0.4448 -0.2367  0.5299
28278SOL     OW 2443  11.427  13.258   5.215  0.2063 -0.2055  0.2425
28278SOL    HW1 2444  11.396  13.262   5.124  0.7286  0.1922  0.0763
28278SOL    HW2 2445  11.386  13.334   5.257 -2.0089 -1.7355  0.9912
28279SOL     OW 2446   7.788   7.387  13.755 -0.0960  0.3466 -0.2575
28279SOL    HW1 2447   7.805   7.312  13.812  2.8562  1.0014 -0.1327
28279SOL    HW2 2448   7.760   7.456  13.815  0.5546  0.3059  0.1044
28280SOL     OW 2449   9.269   4.212  13.597 -0.1598 -0.5609  0.1502
28280SOL    HW1 2450   9.349   4.172  13.632  0.3080  0.5217  0.3684
28280SOL    HW2 2451   9.290   4.230  13.505 -0.1450 -0.2873  0.2054
28281SOL     OW 2452   0.870   4.308   4.524  0.6310  0.1238 -0.0943
28281SOL    HW1 2453   0.784   4.323   4.485 -0.3420 -0.6289  1.6362
28281SOL    HW2 2454   0.891   4.390   4.569  0.1853 -0.1216  0.5795
28282SOL     OW 2455   1.605   5.323   7.616 -0.1540 -0.4083  0.1729
28282SOL    HW1 2456   1.600   5.235   7.579  2.1550  0.0847 -1.5139
28282SOL    HW2 2457   1.653   5.375   7.551 -2.1811  2.3705  0.6813
28283SOL     OW 2458   1.327   2.760   7.012  0.1049  0.0229 -0.3204
28283SOL    HW1 2459   1.320   2.846   6.971  0.0843  0.5625  0.7789
28283SOL    HW2 2460   1.237   2.734   7.031  0.0973 -0.3379 -0.8083
28284SOL     OW 2461   7.976   8.529  13.986 -0.5169 -0.3312 -0.4639
28284SOL    HW1 2462   7.909   8.461  13.995  0.3229 -0.9775  1.3752
28284SOL    HW2 2463   8.044   8.489  13.932  0.0587 -1.0543  0.7660
28285SOL     OW 2464   7.196  13.991   3.992 -0.0792  0.1609 -0.8204
28285SOL    HW1 2465   7.170  14.019   3.904  0.4782  1.9371 -0.4586
28285SOL    HW2 2466   7.113  13.986   4.040 -0.1160  3.5878 -0.2911
28286SOL     OW 2467  12.337   8.068   5.748 -0.0632 -0.8576  0.1610
28286SOL    HW1 2468  12.346   7.985   5.700  1.8044 -0.2247 -0.6822
28286SOL    HW2 2469  12.426   8.101   5.756 -0.4774 -0.0743  2.6263
28287SOL     OW 2470  12.064   0.190   5.145 -0.2353 -0.0846  0.0266
28287SOL    HW1 2471  12.159   0.191   5.158  0.1066 -0.1675 -2.0869
28287SOL    HW2 2472  12.027   0.205   5.232  1.7069 -0.2259  0.9152
28288SOL     OW 2473   1.808   6.219   6.584  0.3184 -0.6477 -0.4117
28288SOL    HW1 2474   1.814   6.213   6.680 -0.6239  1.7715 -0.1309
28288SOL    HW2 2475   1.871   6.288   6.561  1.2541 -1.8771 -1.6831
28289SOL     OW 2476   4.330  14.048  11.202  0.5693 -0.1397  0.2235
28289SOL    HW1 2477   4.397  14.083  11.144  1.0129 -2.3288 -0.6850
28289SOL    HW2 2478   4.248  14.086  11.169  0.7565 -1.6029 -2.1856
28290SOL     OW 2479  10.619   2.051   4.356 -0.0656 -0.1469  0.2974
28290SOL    HW1 2480  10.707   2.057   4.318  0.0959  0.5177  0.7622
28290SOL    HW2 2481  10.579   1.977   4.310  0.9421 -0.8514  0.5048
28291SOL     OW 2482   7.926   2.522  10.193 -1.0264 -0.6533  0.3223
28291SOL    HW1 2483   7.965   2.502  10.108  1.5688 -0.0356  1.2656
28291SOL    HW2 2484   7.871   2.599  10.177 -0.9728 -0.8460 -0.8728
28292SOL     OW 2485  13.858   7.052  12.190  0.4803 -0.2826  0.4083
28292SOL    HW1 2486  13.953   7.047  12.182  0.4433 -0.4529  0.0439
28292SOL    HW2 2487  13.828   6.964  12.169  0.2116 -0.0980  0.0023
28293SOL     OW 2488   4.425   5.235  13.653  0.7597  0.7438  0.3224
28293SOL    HW1 2489   4.453   5.204  13.739  1.5564 -0.3787 -0.2978
28293SOL    HW2 2490   4.449   5.163  13.594 -0.2386  1.2721 -0.7607
28294SOL     OW 2491  13.360   8.957   6.284  0.2079  0.5379 -0.8787
28294SOL    HW1 2492  13.313   8.974   6.366  0.3349 -1.0399 -0.4373
28294SOL    HW2 2493  13.433   9.019   6.285  0.5030  0.2186  0.4717
28295SOL     OW 2494   2.248  11.326  11.696  0.6811 -0.2274 -0.1463
28295SOL    HW1 2495   2.195  11.251  11.668 -1.0124 -0.4433  3.1260
28295SOL    HW2 2496   2.327  11.286  11.731  0.0021 -0.5130  1.1272
28296SOL     OW 2497   3.415  11.601  13.683 -0.7087 -0.1238  0.0558
28296SOL    HW1 2498   3.477  11.674  13.681 -0.7365 -0.0868 -2.3342
28296SOL    HW2 2499   3.355  11.622  13.755  0.4839  1.1585  0.7147
28297SOL     OW 2500   9.742   2.804   0.563  0.0060  0.2147 -0.7102
28297SOL    HW1 2501   9.814   2.743   0.581  0.9743  1.5261  0.0722
28297SOL    HW2 2502   9.682   2.793   0.637  0.6233  0.7986 -0.0989
28298SOL     OW 2503  12.171  13.559   9.437  0.2397 -0.3360  0.4777
28298SOL    HW1 2504  12.171  13.500   9.361  1.6453 -1.4135  1.2516
28298SOL    HW2 2505  12.208  13.641   9.405  1.7274 -1.0915  0.1796
28299SOL     OW 2506   8.909  11.582   7.762 -0.6581 -0.1712  0.7415
28299SOL    HW1 2507   8.977  11.602   7.827  1.2245  1.0717 -1.4582
28299SOL    HW2 2508   8.842  11.534   7.812  1.2639 -0.4673  3.2791
28300SOL     OW 2509   9.706  11.011   5.663  0.3210 -0.1197  0.3893
28300SOL    HW1 2510   9.731  11.098   5.632  0.1488 -0.8714 -2.0141
28300SOL    HW2 2511   9.782  10.982   5.713  1.1618  0.6664 -0.3830
28301SOL     OW 2512   1.148   4.415   0.981  0.2354 -0.0240 -0.1083
28301SOL    HW1 2513   1.164   4.367   1.062 -0.8718 -0.3765 -0.0819
28301SOL    HW2 2514   1.203   4.493   0.988  0.7455 -0.4373  0.6221
28302SOL     OW 2515   3.628  13.301   5.930  0.3995 -0.3404 -0.0367
28302SOL    HW1 2516   3.593  13.309   5.842  0.0722  2.3726  0.2772
28302SOL    HW2 2517   3.609  13.210   5.955 -1.7612 -0.4321 -1.7864
28303SOL     OW 2518   2.674   8.182   0.195 -0.0852 -0.6240 -0.0279
28303SOL    HW1 2519   2.665   8.161   0.288 -1.3657 -1.9478 -0.4101
28303SOL    HW2 2520   2.737   8.118   0.162  0.8842  0.2718  0.0351
28304SOL     OW 2521   7.957  11.027   6.720 -0.1697 -0.2348 -0.2593
28304SOL    HW1 2522   7.978  10.985   6.804 -2.2314 -0.7144  0.0851
28304SOL    HW2 2523   7.927  11.115   6.745  0.9551  0.2886 -0.6892
28305SOL     OW 2524   5.844   9.575   4.733  0.0330  0.3555  0.8275
28305SOL    HW1 2525   5.798   9.612   4.657  0.8655  0.9004  0.5698
28305SOL    HW2 2526   5.936   9.590   4.714  0.2533  0.5025  1.9541
28306SOL     OW 2527   8.790   9.755   6.380  0.1359  0.4824  0.5410
28306SOL    HW1 2528   8.777   9.685   6.445 -0.0735 -0.5330 -0.5670
28306SOL    HW2 2529   8.779   9.836   6.430 -1.2179 -0.2704  1.5444
28307SOL     OW 2530   9.792   2.047   6.047 -0.8243 -0.0942  0.2175
28307SOL    HW1 2531   9.808   2.114   6.114  0.1301  0.5059 -0.5743
28307SOL    HW2 2532   9.873   2.045   5.995 -0.7723 -1.9729  0.3004
28308SOL     OW 2533  10.469  10.124   0.374  0.0873  0.6776 -0.5767
28308SOL    HW1 2534  10.427  10.101   0.456  2.0340 -0.3181  0.2035
28308SOL    HW2 2535  10.428  10.207   0.348 -2.3280 -0.2505  0.0569
28309SOL     OW 2536  10.816  11.781  12.326  0.3175  0.7057  0.1194
28309SOL    HW1 2537  10.772  11.796  12.242  1.5374  2.7092 -0.2394
28309SOL    HW2 2538  10.895  11.732  12.302  0.2676  0.5834  0.2068
28310SOL     OW 2539   4.626  11.250   9.550 -0.2862  0.2427  0.4426
28310SOL    HW1 2540   4.665  11.338   9.557 -1.9429  0.9765  0.7505
28310SOL    HW2 2541   4.585  11.235   9.635  1.4985 -1.6262  1.0460
28311SOL     OW 2542  11.478   3.190  10.519  0.7292 -0.1012  0.7762
28311SOL    HW1 2543  11.501   3.159  10.431  0.4728  0.2251  0.5925
28311SOL    HW2 2544  11.558   3.180  10.570  1.7339  2.3839 -0.1997
28312SOL     OW 2545   2.894   0.889   2.825 -0.3108  0.3823 -0.0176
28312SOL    HW1 2546   2.944   0.827   2.878 -0.2685  1.3328  1.0868
28312SOL    HW2 2547   2.806   0.886   2.862 -0.5858  0.1750 -0.6769
28313SOL     OW 2548   4.293   1.522   1.038  0.4381  0.3980 -0.3879
28313SOL    HW1 2549   4.228   1.568   1.091  0.7744 -1.6689  2.0178
28313SOL    HW2 2550   4.243   1.480   0.968 -0.7289 -0.4683  0.9260
28314SOL     OW 2551  11.341   9.477   4.651 -0.0190  0.1635  0.2312
28314SOL    HW1 2552  11.414   9.480   4.588  1.2396 -0.5484  1.5879
28314SOL    HW2 2553  11.384   9.480   4.737 -1.5953 -0.4814  1.0760
28315SOL     OW 2554   5.980   0.690   1.177 -0.0440  0.0874 -0.0094
28315SOL    HW1 2555   5.934   0.623   1.228 -1.4101  2.1061  1.6115
28315SOL    HW2 2556   6.018   0.748   1.243  2.9623 -0.2043 -1.3493
28316SOL     OW 2557   9.875   2.081  12.791  0.2275 -0.1504 -0.0073
28316SOL    HW1 2558   9.943   2.086  12.857  0.7937 -0.5848 -0.5511
28316SOL    HW2 2559   9.855   2.173  12.770 -0.4064  0.0077  1.1993
28317SOL     OW 2560   4.335   2.748   2.150  0.2462 -0.2030 -0.1698
28317SOL    HW1 2561   4.269   2.817   2.161 -1.4863 -1.6154 -1.2004
28317SOL    HW2 2562   4.411   2.792   2.112 -1.2447  0.9663 -1.9372
28318SOL     OW 2563  13.983   5.752   5.247 -0.4957  0.1538 -0.0125
28318SOL    HW1 2564  13.975   5.724   5.338 -3.4562  0.3110 -0.1212
28318SOL    HW2 2565  14.041   5.828   5.249  0.6210 -0.6892  1.4919
28319SOL     OW 2566   2.355   0.337   6.440  0.3843  0.3674 -0.1577
28319SOL    HW1 2567   2.389   0.400   6.504 -2.2040  1.4949  0.2633
28319SOL    HW2 2568   2.262   0.360   6.432  0.1131 -1.2389 -2.6083
28320SOL     OW 2569   5.494   6.285   5.298  0.1466 -0.8043  0.1417
28320SOL    HW1 2570   5.487   6.357   5.361 -0.6923 -0.7973  0.0491
28320SOL    HW2 2571   5.494   6.206   5.352 -1.0176 -0.8185  0.1420
28321SOL     OW 2572  11.754  10.256   8.304 -0.3418 -0.5644  0.0688
28321SOL    HW1 2573  11.695  10.206   8.247  0.7609 -0.3348 -1.3515
28321SOL    HW2 2574  11.721  10.346   8.299  0.4857 -0.3024 -1.2967
28322SOL     OW 2575   6.866   6.520   0.299  0.1421 -0.3547  0.5285
28322SOL    HW1 2576   6.911   6.489   0.220 -0.8336 -3.0844  0.9609
28322SOL    HW2 2577   6.888   6.613   0.303  0.4813 -0.1515 -2.7935
28323SOL     OW 2578   3.945   0.736  12.307  0.3281  0.2705 -0.7925
28323SOL    HW1 2579   3.987   0.796  12.368  0.4949 -0.5542 -0.0662
28323SOL    HW2 2580   3.851   0.746  12.324  0.4225 -1.3332  1.0163
28324SOL     OW 2581   5.585  11.174   8.787  0.1203 -0.1831  0.1128
28324SOL    HW1 2582   5.576  11.244   8.851 -0.6042 -1.1420  1.0866
28324SOL    HW2 2583   5.497  11.138   8.777  0.8421 -2.5448  1.4972
28325SOL     OW 2584   4.493   3.982   0.227  0.1449 -0.1119 -0.4775
28325SOL    HW1 2585   4.558   3.967   0.295 -1.4653 -0.7848  0.9790
28325SOL    HW2 2586   4.498   4.076   0.210 -0.1233  0.2733  1.3487
28326SOL     OW 2587  11.555  10.415  12.269  0.2055  0.0300  0.0817
28326SOL    HW1 2588  11.586  10.484  12.327 -0.4576  0.1740  0.2771
28326SOL    HW2 2589  11.620  10.411  12.199 -0.2704  1.5748 -0.4919
28327SOL     OW 2590   1.728   1.162   0.437  0.1259  0.3393  0.5059
28327SOL    HW1 2591   1.824   1.163   0.444  0.0606  0.8668  1.4686
28327SOL    HW2 2592   1.697   1.163   0.528 -0.7991 -0.0210  0.2099
28328SOL     OW 2593   3.900   7.159   1.877  0.1264  0.4172  0.2677
28328SOL    HW1 2594   3.869   7.154   1.967 -0.1580 -1.5953  0.1033
28328SOL    HW2 2595   3.851   7.091   1.830  0.1526  1.5110 -1.4535
28329SOL     OW 2596   5.552  11.791   0.386 -0.2355 -0.7693  0.5186
28329SOL    HW1 2597   5.566  11.715   0.329 -0.2333 -0.8534  0.6322
28329SOL    HW2 2598   5.470  11.773   0.431 -0.5909 -0.3849  0.0339
28330SOL     OW 2599   0.298  13.336   6.336  0.6104 -0.3197  0.0119
28330SOL    HW1 2600   0.282  13.403   6.402 -2.0026 -0.7690 -0.0799
28330SOL    HW2 2601   0.315  13.385   6.255 -0.3352  0.2413  0.1422
28331SOL     OW 2602   5.390   2.409   5.757 -0.1835  0.3554 -0.3410
28331SOL    HW1 2603   5.331   2.372   5.692 -0.8274  1.3759 -0.3513
28331SOL    HW2 2604   5.467   2.435   5.708  0.0935 -0.5318 -0.4005
28332SOL     OW 2605  12.481   6.377   1.900  0.5257  0.4057  0.6739
28332SOL    HW1 2606  12.569   6.407   1.880  0.9681 -0.0257  1.8947
28332SOL    HW2 2607  12.493   6.312   1.969 -1.0063  3.1479  3.7753
28333SOL     OW 2608  11.531   1.214   6.489  0.2707 -0.3580  0.5127
28333SOL    HW1 2609  11.473   1.149   6.450 -0.6796  1.8624 -2.1229
28333SOL    HW2 2610  11.485   1.244   6.567 -1.3621  0.1660 -0.6156
28334SOL     OW 2611   8.826  10.809   7.506 -0.5301 -0.0561  0.2723
28334SOL    HW1 2612   8.815  10.756   7.427 -1.2245 -1.0155  0.9851
28334SOL    HW2 2613   8.780  10.891   7.486  1.3926  0.7317 -1.2115
28335SOL     OW 2614   1.380   3.063   8.201  1.0119  0.6717 -0.0533
28335SOL    HW1 2615   1.432   3.121   8.256  0.4150  0.9293  0.2543
28335SOL    HW2 2616   1.405   3.086   8.111  1.8144  0.4138  0.1024
28336SOL     OW 2617   1.096  12.212  12.916  0.0009  0.6385  0.2996
28336SOL    HW1 2618   1.044  12.136  12.889 -0.6375  1.1501  0.0661
28336SOL    HW2 2619   1.047  12.250  12.989  1.2984 -0.2598  1.7024
28337SOL     OW 2620   0.365   7.377   7.202  0.3169 -0.3215 -0.1085
28337SOL    HW1 2621   0.393   7.365   7.112 -0.8991 -1.4352 -0.3702
28337SOL    HW2 2622   0.380   7.470   7.220  0.1326  0.0219 -1.6299
28338SOL     OW 2623   0.920   9.136   8.022  0.5716  0.3040 -0.1042
28338SOL    HW1 2624   0.974   9.197   8.073  0.7430  0.6725 -0.7046
28338SOL    HW2 2625   0.831   9.150   8.053  0.9823 -1.5463  2.1378
28339SOL     OW 2626   3.412   4.795   4.932 -0.7089 -0.0512 -0.1270
28339SOL    HW1 2627   3.389   4.841   5.012 -0.7184 -0.0007 -0.1587
28339SOL    HW2 2628   3.340   4.734   4.918  1.0496 -2.9101  2.0426
28340SOL     OW 2629  12.778   8.088   9.422  0.0332  0.3127 -0.4455
28340SOL    HW1 2630  12.712   8.019   9.412  0.4483  0.1150 -2.0944
28340SOL    HW2 2631  12.727   8.169   9.429 -0.4455 -0.0693  1.1140
28341SOL     OW 2632   0.071  11.515  10.533  0.1240  0.4274 -0.0074
28341SOL    HW1 2633   0.015  11.588  10.507 -1.8163 -0.3889  1.5992
28341SOL    HW2 2634   0.043  11.493  10.622  0.6297 -2.2780 -0.4073
28342SOL     OW 2635   4.481   3.550   8.243 -0.1212 -0.3025 -0.0648
28342SOL    HW1 2636   4.451   3.577   8.156  0.0735 -1.3791 -0.4797
28342SOL    HW2 2637   4.568   3.589   8.252 -0.1478 -0.1771 -0.3547
28343SOL     OW 2638   2.957   3.982   6.242 -0.4371 -0.0044  0.3412
28343SOL    HW1 2639   2.984   4.004   6.153  0.1172 -0.4283  0.3941
28343SOL    HW2 2640   2.873   4.025   6.254 -0.5849 -0.0669 -0.4387
28344SOL     OW 2641  13.751   6.632   9.949  0.2584 -0.5411 -0.7203
28344SOL    HW1 2642  13.671   6.677   9.921 -0.2049 -1.3426 -0.6994
28344SOL    HW2 2643  13.777   6.579   9.874  0.2065 -1.0492 -0.3861
28345SOL     OW 2644   8.718   0.849   8.829 -0.4695 -0.4265  0.1473
28345SOL    HW1 2645   8.797   0.799   8.850  0.6613  0.3845 -1.8724
28345SOL    HW2 2646   8.681   0.804   8.753 -1.5282 -0.3080  0.5732
28346SOL     OW 2647   9.801   9.678   6.212  0.1890 -0.2993 -0.1382
28346SOL    HW1 2648   9.895   9.670   6.196 -0.0108  0.1346 -1.6516
28346SOL    HW2 2649   9.767   9.589   6.199  0.3297 -0.3766  0.0191
28347SOL     OW 2650  12.853  11.328   1.273 -0.0336  0.1193  0.8690
28347SOL    HW1 2651  12.849  11.412   1.318 -0.8073 -0.0736  1.1735
28347SOL    HW2 2652  12.764  11.313   1.241  0.5091  0.2634 -0.7592
28348SOL     OW 2653   1.261   7.983   5.565  0.0538 -0.2406 -0.0384
28348SOL    HW1 2654   1.331   7.984   5.631  0.5809  0.9845 -0.5837
28348SOL    HW2 2655   1.197   8.047   5.598  0.6581  0.9197 -1.0262
28349SOL     OW 2656   1.441  10.313   5.079  0.4276  0.8399  0.0583
28349SOL    HW1 2657   1.494  10.249   5.031 -0.3347  1.1810 -1.2727
28349SOL    HW2 2658   1.447  10.393   5.027 -0.4880  1.1991  0.4907
28350SOL     OW 2659   3.012   9.147   0.423 -0.8522  0.3518 -0.4912
28350SOL    HW1 2660   2.983   9.238   0.430  0.6312  0.8572 -0.6172
28350SOL    HW2 2661   3.094   9.144   0.472 -0.3464 -0.6728 -1.3725
28351SOL     OW 2662   0.814   6.193   1.727  0.1562  0.5638  0.3762
28351SOL    HW1 2663   0.852   6.281   1.721 -0.4392  0.7953 -0.2207
28351SOL    HW2 2664   0.866   6.148   1.793  1.9016  0.6384 -0.8945
28352SOL     OW 2665   2.848   2.514  10.443 -0.1312 -0.0319  0.1824
28352SOL    HW1 2666   2.905   2.551  10.511  0.7612  0.2151 -0.6713
28352SOL    HW2 2667   2.767   2.491  10.489  0.7589 -0.6776  1.5110
28353SOL     OW 2668  10.926   4.500  12.719 -0.1460 -0.3014  0.1794
28353SOL    HW1 2669  10.875   4.480  12.797 -0.8963 -0.1060 -0.2600
28353SOL    HW2 2670  10.862   4.513  12.650  0.4259  1.3092 -0.0797
28354SOL     OW 2671   7.263   7.702   1.582 -0.1815 -0.0455 -0.9342
28354SOL    HW1 2672   7.245   7.794   1.599 -1.4001 -0.3681 -0.4030
28354SOL    HW2 2673   7.358   7.694   1.595 -0.3535  0.6927  1.2381
28355SOL     OW 2674   2.908   0.264   6.685  0.0697  0.4710 -0.3920
28355SOL    HW1 2675   2.996   0.229   6.699 -0.2135 -0.4091 -0.7462
28355SOL    HW2 2676   2.853   0.186   6.676 -0.8015  1.0080  0.1435
28356SOL     OW 2677   6.720  11.810   6.849  0.3188  0.8367 -0.1444
28356SOL    HW1 2678   6.764  11.792   6.932 -0.8376 -0.2463  0.2703
28356SOL    HW2 2679   6.781  11.779   6.782  0.8184  0.7555  0.3450
28357SOL     OW 2680  10.444   2.813   3.360 -0.0800  0.6856  0.2422
28357SOL    HW1 2681  10.433   2.720   3.380 -0.2728  0.3194 -1.3995
28357SOL    HW2 2682  10.456   2.855   3.445 -2.6136 -0.4590  1.2618
28358SOL     OW 2683  12.283  13.939  12.133  0.1459 -0.3421  0.0837
28358SOL    HW1 2684  12.243  13.879  12.196  1.5220 -1.4241 -0.0383
28358SOL    HW2 2685  12.315  13.882  12.062  0.2604  0.6786 -0.7085
28359SOL     OW 2686   6.686   5.710   7.502  0.3747  0.3448 -0.2160
28359SOL    HW1 2687   6.691   5.805   7.510  0.9999  0.3852 -1.0343
28359SOL    HW2 2688   6.766   5.678   7.544 -1.6964 -0.1133  3.9168
28360SOL     OW 2689   5.328   2.625   2.351  0.3390  0.2018  0.1719
28360SOL    HW1 2690   5.263   2.684   2.312 -1.0372 -1.3829 -0.0309
28360SOL    HW2 2691   5.409   2.645   2.305 -0.5284  0.5958 -1.2557
28361SOL     OW 2692  12.663   0.298   9.669  0.0692  0.6792 -0.5637
28361SOL    HW1 2693  12.742   0.245   9.659 -0.1832  0.3777 -0.9950
28361SOL    HW2 2694  12.659   0.350   9.589 -0.7711 -0.1284 -1.0639
28362SOL     OW 2695   2.790   4.232   7.796 -0.0829 -0.0484 -0.2745
28362SOL    HW1 2696   2.863   4.191   7.842  0.8207 -0.0542 -1.6799
28362SOL    HW2 2697   2.781   4.318   7.838  1.3871  0.3489 -0.7204
28363SOL     OW 2698  11.413   3.879   2.818 -0.0784  0.0389  0.5068
28363SOL    HW1 2699  11.325   3.916   2.807  0.3371  0.4414 -2.0784
28363SOL    HW2 2700  11.398   3.784   2.822 -0.5978  0.0420 -0.8511
28364SOL     OW 2701   1.738   5.300   1.106  0.4407  0.0502  0.1972
28364SOL    HW1 2702   1.709   5.217   1.067 -1.0931  0.3113  0.7013
28364SOL    HW2 2703   1.815   5.324   1.055  1.8981 -2.4548  1.0346
28365SOL     OW 2704  10.386  12.026  11.158  0.1350 -0.2064  0.2238
28365SOL    HW1 2705  10.422  11.960  11.099 -2.9303 -1.5367 -0.3046
28365SOL    HW2 2706  10.416  12.110  11.121 -0.2826 -1.0717 -2.2273
28366SOL     OW 2707   4.865   4.573  11.796 -0.5550  0.0708 -0.4354
28366SOL    HW1 2708   4.907   4.659  11.786  1.2180 -0.8491 -1.4462
28366SOL    HW2 2709   4.846   4.545  11.706 -0.4608 -0.8891 -0.1655
28367SOL     OW 2710   7.401   0.441   9.260 -0.7851 -0.0283  0.1303
28367SOL    HW1 2711   7.400   0.364   9.204 -2.8312 -0.1808  0.3129
28367SOL    HW2 2712   7.493   0.452   9.284 -0.0274 -0.6868 -2.2127
28368SOL     OW 2713  10.657   9.310  13.162 -0.0474 -0.6249 -0.5307
28368SOL    HW1 2714  10.576   9.306  13.111  0.3756  0.8456 -1.3769
28368SOL    HW2 2715  10.727   9.298  13.097  0.5065  1.3235 -0.3728
28369SOL     OW 2716   9.763  11.121  12.892 -0.4311  0.0810 -0.4449
28369SOL    HW1 2717   9.679  11.157  12.920 -1.6593 -3.4975  1.1404
28369SOL    HW2 2718   9.742  11.067  12.815  0.4834 -0.4440 -0.3433
28370SOL     OW 2719   1.495   2.755  12.050 -0.8513  0.0420 -0.0609
28370SOL    HW1 2720   1.459   2.714  11.971 -2.2382 -0.1417  0.6294
28370SOL    HW2 2721   1.422   2.754  12.112  0.4441 -0.5566  1.5066
28371SOL     OW 2722  11.240  12.345   4.399  0.5201  0.0016  0.3767
28371SOL    HW1 2723  11.321  12.337   4.348 -0.0578 -1.5442 -0.3721
28371SOL    HW2 2724  11.221  12.438   4.400  1.2917  0.2050 -1.0794
28372SOL     OW 2725   2.437   8.247   2.393 -0.6207 -0.0552  0.4671
28372SOL    HW1 2726   2.404   8.333   2.419  1.4406  1.1114 -0.4908
28372SOL    HW2 2727   2.532   8.252   2.408 -0.3905 -1.9831 -0.0778
28373SOL     OW 2728  13.330  10.523   6.898 -0.5539  0.1006  0.2272
28373SOL    HW1 2729  13.293  10.587   6.838  1.3315 -0.1513 -1.3259
28373SOL    HW2 2730  13.425  10.537   6.892 -0.1909 -1.5985  1.2540
28374SOL     OW 2731  14.064   5.384   7.219 -0.4186  0.4118 -0.4665
28374SOL    HW1 2732  14.075   5.465   7.169 -1.7212  1.3904  0.7451
28374SOL    HW2 2733  14.078   5.411   7.310  2.7704 -1.4840 -0.2641
28375SOL     OW 2734   7.370  12.284   3.574 -0.0011 -0.3569 -0.2647
28375SOL    HW1 2735   7.324  12.209   3.614 -2.2220  0.5823 -0.8965
28375SOL    HW2 2736   7.392  12.340   3.648  0.0631 -0.7977  0.0540
28376SOL     OW 2737   6.367   9.798   4.629 -0.4724  0.1051 -0.2467
28376SOL    HW1 2738   6.322   9.730   4.579  0.9206 -0.6779 -0.4854
28376SOL    HW2 2739   6.440   9.824   4.573 -0.4625  1.1620  0.2400
28377SOL     OW 2740  12.269  13.830   6.471 -0.4062  0.0797 -0.3367
28377SOL    HW1 2741  12.187  13.859   6.431  0.2181  0.7570 -1.1744
28377SOL    HW2 2742  12.310  13.775   6.404 -1.3808 -2.5032  1.0707
28378SOL     OW 2743  11.382  13.314   4.948  0.4165  0.4924  0.8057
28378SOL    HW1 2744  11.436  13.371   4.894  1.5598 -0.5037  0.8642
28378SOL    HW2 2745  11.419  13.227   4.935 -1.5620 -0.3413  0.3550
28379SOL     OW 2746   3.045   1.155   7.674 -0.4168  0.2417  0.0078
28379SOL    HW1 2747   2.973   1.218   7.683 -1.0327 -0.7097  3.0446
28379SOL    HW2 2748   3.073   1.139   7.764  0.0168 -3.4814 -0.6426
28380SOL     OW 2749   5.844   9.810   5.984 -0.5136 -0.5254 -0.4382
28380SOL    HW1 2750   5.816   9.741   5.924  0.4491 -1.9955  0.7122
28380SOL    HW2 2751   5.874   9.763   6.061  0.0829  1.2168  0.4396
28381SOL     OW 2752   6.903   9.875   6.322  0.1832  0.6784 -0.9216
28381SOL    HW1 2753   6.876   9.785   6.340 -0.3263  0.8788 -0.6626
28381SOL    HW2 2754   6.827   9.929   6.347  0.1213  1.1087 -1.9886
28382SOL     OW 2755  10.013  11.070   5.347  0.3241  0.2689 -0.0801
28382SOL    HW1 2756   9.989  11.161   5.366  1.9416  0.4318  1.4470
28382SOL    HW2 2757   9.936  11.034   5.303 -0.8866  1.9912  0.5032
28383SOL     OW 2758   3.778   7.426   8.310 -0.0295 -0.2133 -0.5501
28383SOL    HW1 2759   3.704   7.366   8.323 -1.0023  0.8426 -1.0371
28383SOL    HW2 2760   3.744   7.494   8.252  1.8198 -0.5535 -2.1361
28384SOL     OW 2761   5.600   6.983   3.294  0.2780  0.2178 -0.0671
28384SOL    HW1 2762   5.561   6.909   3.340  0.4521  1.7638  2.7521
28384SOL    HW2 2763   5.685   6.950   3.263  0.9389 -0.4627  2.2910
28385SOL     OW 2764  12.393   7.057   2.486  0.0828 -0.0168  0.4545
28385SOL    HW1 2765  12.472   7.106   2.508 -0.4635  0.3271  1.7180
28385SOL    HW2 2766  12.359   7.100   2.408 -0.5390  1.8332  1.6859
28386SOL     OW 2767  13.852  12.140   3.690 -0.4230  0.1235 -0.6775
28386SOL    HW1 2768  13.819  12.166   3.604  0.7885 -0.3660 -1.3064
28386SOL    HW2 2769  13.942  12.172   3.692  0.4146 -2.0493 -0.6274
28387SOL     OW 2770   7.883   7.142  12.929  0.9679 -0.6485 -0.4567
28387SOL    HW1 2771   7.892   7.215  12.868  0.7587 -1.0916 -1.0245
28387SOL    HW2 2772   7.919   7.067  12.882  0.4445 -1.0749 -0.1898
28388SOL     OW 2773   0.956   7.393   5.902 -0.3208 -0.5694 -0.0398
28388SOL    HW1 2774   0.912   7.460   5.953  0.2802  0.7692 -1.1984
28388SOL    HW2 2775   0.911   7.393   5.817  1.3992  0.3478 -1.0066
28389SOL     OW 2776   3.814   0.221   9.739 -0.1337 -0.0953  0.0484
28389SOL    HW1 2777   3.810   0.188   9.649 -0.2410  1.0958 -0.4087
28389SOL    HW2 2778   3.795   0.314   9.730 -0.5404 -0.0448  1.3678
28390SOL     OW 2779   5.694  10.444   9.930 -0.1971  0.8641 -0.0107
28390SOL    HW1 2780   5.695  10.381   9.858  0.3208 -1.7319  2.0911
28390SOL    HW2 2781   5.780  10.436   9.971  0.3739  3.9369 -0.3478
28391SOL     OW 2782   1.229   9.590   6.755 -0.2254 -0.2853  0.0857
28391SOL    HW1 2783   1.301   9.653   6.755  0.0040 -0.5445  0.2838
28391SOL    HW2 2784   1.259   9.518   6.811 -0.4625 -0.5961 -0.1779
28392SOL     OW 2785   0.661   7.178   8.654 -0.2172 -0.2068 -0.5542
28392SOL    HW1 2786   0.739   7.123   8.661 -1.4421 -1.9402  0.0520
28392SOL    HW2 2787   0.612   7.162   8.734 -2.0396 -0.5103 -1.6597
28393SOL     OW 2788   4.789  10.624  12.711  0.0018 -0.0046 -0.2033
28393SOL    HW1 2789   4.780  10.636  12.806 -0.5321 -0.5998 -0.1720
28393SOL    HW2 2790   4.868  10.570  12.701 -0.8489 -1.3260  0.0150
28394SOL     OW 2791   9.217  10.926   2.886 -0.3811 -0.3307 -0.0751
28394SOL    HW1 2792   9.296  10.891   2.845 -1.0396 -1.5400 -0.3535
28394SOL    HW2 2793   9.160  10.949   2.812  0.2371  1.8887  0.0825
28395SOL     OW 2794   3.632   4.051   6.373  1.6445 -0.5006  0.9947
28395SOL    HW1 2795   3.536   4.062   6.374  1.7163  0.1755  1.2318
28395SOL    HW2 2796   3.645   3.959   6.351  0.9538 -0.3583 -0.1040
28396SOL     OW 2797   8.714   7.991   4.666 -0.1530  0.0369  0.2736
28396SOL    HW1 2798   8.758   7.912   4.634 -2.1127 -0.9059 -0.2100
28396SOL    HW2 2799   8.624   7.964   4.684 -0.6100  1.9228  1.1154
28397SOL     OW 2800  10.784  13.615   2.045 -0.3860 -0.3228  0.3761
28397SOL    HW1 2801  10.836  13.582   1.971 -0.3944  0.9694 -0.2314
28397SOL    HW2 2802  10.830  13.583   2.122  0.0975 -0.9981 -0.1695
28398SOL     OW 2803   4.355   2.954  11.756 -0.2008  0.0395 -0.5915
28398SOL    HW1 2804   4.341   2.954  11.661  1.4681  0.3671 -0.8673
28398SOL    HW2 2805   4.419   2.885  11.771 -0.6270 -0.1796  0.3510
28399SOL     OW 2806   4.443   5.133   5.986  0.3302  0.5009  0.2256
28399SOL    HW1 2807   4.470   5.225   5.987  0.4227  0.4734  0.9178
28399SOL    HW2 2808   4.492   5.095   5.914  1.6449  0.6101  1.0224
28400SOL     OW 2809  12.183   7.912   1.198 -0.1126  0.0425 -0.0361
28400SOL    HW1 2810  12.192   7.886   1.106 -0.7685 -1.3795  0.2802
28400SOL    HW2 2811  12.089   7.922   1.211  0.0604  1.6317  0.1349
28401SOL     OW 2812   5.235  10.821   9.416 -0.3588  0.0116 -0.0494
28401SOL    HW1 2813   5.197  10.897   9.461 -0.6807 -0.5227  0.6079
28401SOL    HW2 2814   5.323  10.813   9.454  0.0383  0.6290 -0.8208
28402SOL     OW 2815   5.745   9.244  11.856 -0.6256 -0.2283  0.2533
28402SOL    HW1 2816   5.677   9.270  11.794 -0.9975 -1.1309  0.2646
28402SOL    HW2 2817   5.809   9.198  11.802 -0.2860  0.1473  0.3313
28403SOL     OW 2818   6.824   0.453  12.472 -0.0783 -0.2076 -0.3240
28403SOL    HW1 2819   6.899   0.394  12.476 -0.0993 -0.2055  0.1466
28403SOL    HW2 2820   6.803   0.471  12.564  0.2993  1.0118 -0.4594
28404SOL     OW 2821   6.687  12.254   3.663 -0.0256  0.1572  0.6828
28404SOL    HW1 2822   6.660  12.331   3.613  1.5846  0.4977  0.2900
28404SOL    HW2 2823   6.731  12.291   3.740 -1.6555 -0.3699  1.9188
28405SOL     OW 2824   5.084   7.376   5.410 -0.9352  0.2703  0.1147
28405SOL    HW1 2825   5.142   7.402   5.338 -2.5821  1.2280 -0.9191
28405SOL    HW2 2826   5.079   7.281   5.403 -0.6611  0.3061 -0.7073
28406SOL     OW 2827  13.220   2.812   2.766  0.0732  0.2633 -0.0546
28406SOL    HW1 2828  13.179   2.740   2.718 -0.8189 -0.8355  2.2248
28406SOL    HW2 2829  13.146   2.860   2.804  0.7684  0.5799  0.9332
28407SOL     OW 2830   8.919   3.310   1.121  0.4891 -0.0260 -0.0012
28407SOL    HW1 2831   8.983   3.355   1.065 -0.4860 -0.1523 -1.2644
28407SOL    HW2 2832   8.834   3.339   1.088 -0.1233 -0.0085  1.5280
28408SOL     OW 2833   4.885   9.955   7.808  0.3946 -0.4695 -0.0770
28408SOL    HW1 2834   4.814   9.896   7.832  0.7008 -2.0367 -2.6450
28408SOL    HW2 2835   4.952   9.941   7.875 -0.5360 -1.1706  0.7347
28409SOL     OW 2836   6.994   6.960  13.690 -0.4677 -0.0237  0.1502
28409SOL    HW1 2837   7.021   7.010  13.613 -0.5481 -0.9929 -0.5190
28409SOL    HW2 2838   6.996   7.024  13.761 -0.2701  0.8588 -0.6242
28410SOL     OW 2839  11.522   2.530   8.600  0.5344  0.0483 -0.5720
28410SOL    HW1 2840  11.443   2.496   8.642 -0.3255 -0.6872 -2.6625
28410SOL    HW2 2841  11.496   2.546   8.509  2.8338 -0.3645 -1.3707
28411SOL     OW 2842   7.029   1.430   9.688  0.3394  0.5374  0.3238
28411SOL    HW1 2843   7.014   1.357   9.748  1.0124  0.1200 -0.0092
28411SOL    HW2 2844   6.970   1.413   9.614 -0.9841  1.4011  1.1311
28412SOL     OW 2845   7.279  13.635  10.061 -0.1154  0.4262 -0.3994
28412SOL    HW1 2846   7.194  13.602  10.089 -0.4435  1.5337 -0.0362
28412SOL    HW2 2847   7.271  13.647   9.967 -0.0280 -0.3900 -0.5177
28413SOL     OW 2848   6.258   1.704   9.097  0.4754  0.2431 -0.3495
28413SOL    HW1 2849   6.336   1.673   9.051  0.2944 -1.4431  0.3914
28413SOL    HW2 2850   6.187   1.695   9.033  0.3671 -1.3075 -0.0546
28414SOL     OW 2851   5.457  12.315  12.487  0.2678 -0.1459 -0.1909
28414SOL    HW1 2852   5.516  12.306  12.562  0.8229  0.4709 -0.5307
28414SOL    HW2 2853   5.504  12.374  12.427 -0.0811 -0.7651 -1.1023
28415SOL     OW 2854   4.941   8.193   5.551  0.4012 -0.2268 -0.2599
28415SOL    HW1 2855   4.959   8.248   5.475  1.2916 -1.2928 -0.8631
28415SOL    HW2 2856   5.016   8.205   5.609  0.3929 -0.4595 -0.1964
28416SOL     OW 2857   2.500   3.902   1.511 -0.0421  0.0773 -0.3043
28416SOL    HW1 2858   2.437   3.895   1.582 -0.7301  0.6572 -0.8443
28416SOL    HW2 2859   2.546   3.818   1.511 -1.5968 -0.8188 -0.6306
28417SOL     OW 2860   4.523   7.979  13.804 -0.0970 -0.0304 -0.3794
28417SOL    HW1 2861   4.517   7.977  13.900 -0.5805 -0.7388 -0.4166
28417SOL    HW2 2862   4.545   7.889  13.780 -0.0396  0.1334 -0.9403
28418SOL     OW 2863   5.531  13.698   2.603  0.2914  0.6663  0.0985
28418SOL    HW1 2864   5.443  13.725   2.630 -0.4135 -0.3054 -1.1400
28418SOL    HW2 2865   5.578  13.686   2.685 -0.4990  1.9080  0.7738
28419SOL     OW 2866   8.250  13.712   8.570  0.5147 -0.3715 -0.1115
28419SOL    HW1 2867   8.291  13.733   8.654  1.3612  1.2730 -0.8834
28419SOL    HW2 2868   8.181  13.650   8.592  2.2354 -1.8676  1.4974
28420SOL     OW 2869  13.075  13.937   2.835  0.2402 -0.0909  0.2763
28420SOL    HW1 2870  13.123  13.879   2.893  0.4941  0.3847  0.5482
28420SOL    HW2 2871  13.141  13.975   2.777  0.1362  0.2476  0.3768
28421SOL     OW 2872   3.619   7.303  10.056 -0.1777  0.6216 -0.7161
28421SOL    HW1 2873   3.572   7.240  10.109 -0.2235  1.6648  0.5386
28421SOL    HW2 2874   3.645   7.255   9.977 -0.6223 -0.8013 -0.0132
28422SOL     OW 2875  10.227   8.028   5.144  0.1831  0.1206  0.1335
28422SOL    HW1 2876  10.181   8.087   5.085 -0.8499  0.2478  1.0232
28422SOL    HW2 2877  10.317   8.025   5.111  0.0193  1.4288 -0.4797
28423SOL     OW 2878  13.945   1.745  11.995  0.8290 -0.7717 -0.0723
28423SOL    HW1 2879  13.907   1.830  11.974 -1.0232 -0.9138  2.3577
28423SOL    HW2 2880  14.010   1.763  12.063  0.8136 -1.2527  0.0751
28424SOL     OW 2881  10.307   0.794   4.645  0.1319 -0.0042  0.2847
28424SOL    HW1 2882  10.338   0.703   4.641 -0.8260 -0.3321 -0.0178
28424SOL    HW2 2883  10.363   0.841   4.582  0.8365 -0.3124  0.6692
28425SOL     OW 2884   9.943   1.566   8.357 -0.4565 -0.2340  0.8347
28425SOL    HW1 2885   9.868   1.599   8.406 -0.4385  1.1683 -0.0463
28425SOL    HW2 2886   9.954   1.627   8.285 -0.0497 -1.8490 -0.5454
28426SOL     OW 2887   1.516  14.000   1.967  0.0966 -0.2704  0.0416
28426SOL    HW1 2888   1.515  13.906   1.984 -1.9091  0.0788  2.2694
28426SOL    HW2 2889   1.426  14.028   1.978  0.8724  2.1484  0.7813
28427SOL     OW 2890  10.360   3.458   5.289 -0.8791  0.1084 -0.0111
28427SOL    HW1 2891  10.328   3.430   5.375  0.4506  0.6349  0.6794
28427SOL    HW2 2892  10.295   3.424   5.228 -1.2069 -1.3473  1.0861
28428SOL     OW 2893   2.208  12.919   7.927 -0.3154  0.5021  0.1581
28428SOL    HW1 2894   2.231  12.884   7.841  2.5110  0.8279  0.6949
28428SOL    HW2 2895   2.117  12.891   7.940 -0.0992 -1.5262 -1.9311
28429SOL     OW 2896  11.522   9.894  13.411  0.0182 -0.1690  0.1434
28429SOL    HW1 2897  11.513   9.989  13.413 -1.2496 -0.2754  0.2541
28429SOL    HW2 2898  11.614   9.879  13.386 -0.0497  1.0642 -0.9545
28430SOL     OW 2899   2.855   5.651   6.017 -0.2601  0.7223 -0.3608
28430SOL    HW1 2900   2.899   5.644   5.932 -1.6351 -2.7828 -0.9309
28430SOL    HW2 2901   2.919   5.619   6.080 -0.3974  0.0605 -0.5539
28431SOL     OW 2902  13.696   9.417   7.847  0.5323  0.3597 -0.3990
28431SOL    HW1 2903  13.686   9.393   7.755  2.5777 -2.4674 -0.0194
28431SOL    HW2 2904  13.670   9.339   7.896  0.8811  1.2835  1.3670
28432SOL     OW 2905   3.400   4.064   2.521  0.5586  0.0316  0.2652
28432SOL    HW1 2906   3.341   4.129   2.559  0.0556  1.2616 -2.3338
28432SOL    HW2 2907   3.342   4.002   2.476  1.1543 -0.2581 -0.1214
28433SOL     OW 2908  13.493   9.652  12.845 -0.0440 -0.0151 -0.3467
28433SOL    HW1 2909  13.492   9.573  12.900  0.7401  0.4933  0.4200
28433SOL    HW2 2910  13.544   9.627  12.769 -0.1111 -0.3621 -0.2804
28434SOL     OW 2911  13.742   7.726   6.822 -0.3830 -0.0364  0.0267
28434SOL    HW1 2912  13.755   7.678   6.904 -0.8982 -0.5363 -0.1785
28434SOL    HW2 2913  13.797   7.679   6.759 -0.7560 -0.2592 -0.1350
28435SOL     OW 2914   2.393  13.390  13.112  0.3732 -0.2709 -0.3622
28435SOL    HW1 2915   2.482  13.426  13.112  1.0231 -1.7796  0.7951
28435SOL    HW2 2916   2.405  13.297  13.095 -1.2365 -0.1136 -2.9380
28436SOL     OW 2917  12.041   5.619  11.629  0.4827 -0.1275  0.2125
28436SOL    HW1 2918  12.090   5.672  11.566  0.2927 -0.5533 -0.2970
28436SOL    HW2 2919  12.077   5.644  11.715  0.7280  0.4695 -0.0574
28437SOL     OW 2920   1.507  13.093  12.381 -0.2494 -0.7189 -0.0555
28437SOL    HW1 2921   1.465  13.175  12.352 -0.2285 -0.7462 -0.1658
28437SOL    HW2 2922   1.531  13.049  12.299  0.3354 -0.5301  0.0089
28438SOL     OW 2923  13.840  12.856   2.097  0.7566 -0.3436 -0.4594
28438SOL    HW1 2924  13.916  12.800   2.086  0.9928 -0.2333  0.5094
28438SOL    HW2 2925  13.860  12.935   2.046  1.1490 -0.4445 -0.4598
28439SOL     OW 2926   3.142   4.945   9.314  0.3409  0.4067  0.2531
28439SOL    HW1 2927   3.196   4.935   9.392  1.6924  0.8630 -0.5741
28439SOL    HW2 2928   3.128   5.039   9.306  0.6194  0.4046 -0.3076
28440SOL     OW 2929  13.538  11.428   4.040 -0.3230  0.4776 -0.6289
28440SOL    HW1 2930  13.550  11.489   3.966 -1.1987 -0.0804 -1.2569
28440SOL    HW2 2931  13.577  11.473   4.114  1.4426  0.6604 -1.6021
28441SOL     OW 2932   1.377   6.616   6.072 -0.2546 -0.2749  0.5030
28441SOL    HW1 2933   1.472   6.620   6.081 -0.1279  0.6655 -0.8791
28441SOL    HW2 2934   1.346   6.694   6.118 -0.3092 -0.2804  0.4752
28442SOL     OW 2935   9.275   7.031  13.451 -0.0808 -1.2118 -0.0327
28442SOL    HW1 2936   9.250   7.037  13.359 -1.8402  0.0345  0.4635
28442SOL    HW2 2937   9.211   6.970  13.489  0.4434 -1.4844  0.4356
28443SOL     OW 2938   1.072   8.701   0.992  0.1138 -0.0898 -0.7163
28443SOL    HW1 2939   1.095   8.630   1.052  0.1098 -0.6195 -1.3298
28443SOL    HW2 2940   1.154   8.749   0.979  0.0109  0.3122  0.0713
28444SOL     OW 2941   3.646  11.498   5.803  0.3402 -0.0958 -0.6381
28444SOL    HW1 2942   3.572  11.489   5.863  0.6872  0.5353 -0.1070
28444SOL    HW2 2943   3.610  11.542   5.726  0.5255  1.9058  0.3645
28445SOL     OW 2944  13.973   5.135   0.535  0.2045 -0.2050 -0.1141
28445SOL    HW1 2945  14.005   5.208   0.588  1.3211 -1.6654  1.3103
28445SOL    HW2 2946  13.891   5.109   0.578  0.5840 -0.7256  0.3206
28446SOL     OW 2947   2.326   9.808   9.572  0.0948  0.1706  0.3234
28446SOL    HW1 2948   2.336   9.893   9.529 -2.0920  0.1001 -0.4318
28446SOL    HW2 2949   2.303   9.829   9.662 -3.3665  0.5584 -0.5117
28447SOL     OW 2950   9.120   5.651   3.640 -0.1907  0.0426 -0.2546
28447SOL    HW1 2951   9.131   5.585   3.571 -1.4152  0.0996 -0.5269
28447SOL    HW2 2952   9.208   5.664   3.674  0.2685 -0.8175 -1.0453
28448SOL     OW 2953   0.140   9.456  10.398  0.0887 -0.3170  0.6684
28448SOL    HW1 2954   0.124   9.361  10.399 -1.4111 -0.0840  1.0462
28448SOL    HW2 2955   0.052   9.495  10.400  0.6894  1.0834  0.5969
28449SOL     OW 2956   3.724   5.700   1.497 -0.0622 -0.5355 -0.1342
28449SOL    HW1 2957   3.646   5.674   1.448  0.0548 -1.2151  0.0334
28449SOL    HW2 2958   3.764   5.617   1.525  0.7939 -0.2018 -0.3355
28450SOL     OW 2959  11.764   2.817   2.400  0.3606 -0.0012  0.6259
28450SOL    HW1 2960  11.838   2.878   2.406  0.3096  0.3451 -1.5181
28450SOL    HW2 2961  11.804   2.730   2.401  0.7397  0.1650  0.2227
28451SOL     OW 2962  12.901   3.983   6.285  0.3094  0.1314 -0.0971
28451SOL    HW1 2963  12.912   3.995   6.379 -1.1016 -1.1742  0.2652
28451SOL    HW2 2964  12.830   4.043   6.261  0.2427  0.0058 -0.2125
28452SOL     OW 2965   0.173   2.360   7.002 -0.2714  0.1853  0.0836
28452SOL    HW1 2966   0.136   2.315   6.926 -0.4032 -0.8467  0.7431
28452SOL    HW2 2967   0.126   2.324   7.077  0.1799  0.8532  0.7053
28453SOL     OW 2968   7.639   3.931  13.798  0.0213 -0.1159 -0.2461
28453SOL    HW1 2969   7.727   3.965  13.809  0.4546 -1.1633 -0.4004
28453SOL    HW2 2970   7.646   3.869  13.725 -1.0021  0.3588 -0.7722
28454SOL     OW 2971   5.332  11.371  10.947 -0.6002  0.5016 -0.3226
28454SOL    HW1 2972   5.256  11.387  10.891 -0.5294  1.5625 -0.1380
28454SOL    HW2 2973   5.365  11.459  10.968 -0.2365  0.1034  0.8436
28455SOL     OW 2974   4.934   1.391   6.913 -0.1734 -0.6720  0.1547
28455SOL    HW1 2975   4.846   1.359   6.931 -0.9567  0.6809 -1.0670
28455SOL    HW2 2976   4.939   1.475   6.959 -0.5995  0.6380 -2.0298
28456SOL     OW 2977  11.786   2.804  13.684  0.6183 -0.2689  0.1632
28456SOL    HW1 2978  11.804   2.892  13.653  0.5006 -0.5632 -0.7582
28456SOL    HW2 2979  11.816   2.804  13.775 -0.2600  0.9981  0.4756
28457SOL     OW 2980   5.436  13.625   5.303  0.0300  0.3256  0.0811
28457SOL    HW1 2981   5.385  13.679   5.364 -0.9874 -1.3298  0.7598
28457SOL    HW2 2982   5.514  13.601   5.353 -0.1174  0.1473  0.2285
28458SOL     OW 2983  13.498   4.872  13.350  0.0093  0.7209 -0.0039
28458SOL    HW1 2984  13.436   4.810  13.310  0.1497  0.2234  0.5376
28458SOL    HW2 2985  13.443   4.926  13.408 -0.1270  1.1699 -0.5446
28459SOL     OW 2986  11.325  12.854   7.074 -0.1574  0.5129  0.2634
28459SOL    HW1 2987  11.308  12.946   7.053 -1.3722 -0.0642 -1.5582
28459SOL    HW2 2988  11.420  12.849   7.086 -0.1156  2.0629  0.7907
28460SOL     OW 2989   6.580   5.202   3.823 -0.0965 -0.2361 -0.0186
28460SOL    HW1 2990   6.498   5.171   3.785  0.0625 -0.0800 -0.4891
28460SOL    HW2 2991   6.553   5.264   3.891 -0.4105 -1.2104  0.7733
28461SOL     OW 2992  12.367  13.469   2.327 -0.3464 -0.1337 -0.0390
28461SOL    HW1 2993  12.459  13.448   2.312 -0.3788 -1.3263  1.2567
28461SOL    HW2 2994  12.330  13.480   2.239  0.7530 -0.8849 -0.6178
28462SOL     OW 2995   2.077  13.582   9.757 -0.2373 -0.1018  0.1842
28462SOL    HW1 2996   2.107  13.585   9.848  0.5455  0.9040 -0.0920
28462SOL    HW2 2997   2.050  13.672   9.737  0.0528 -0.2034 -0.7170
28463SOL     OW 2998   4.146   2.787   7.878  0.0888 -0.1174 -0.0521
28463SOL    HW1 2999   4.183   2.785   7.966 -1.2772 -1.5004  0.5345
28463SOL    HW2 3000   4.086   2.861   7.878 -0.7595 -0.7748  0.5900
28464SOL     OW 3001   1.482   1.981   0.339 -0.4820  0.2555 -0.5548
28464SOL    HW1 3002   1.471   1.923   0.414 -0.2555  1.1421  0.1732
28464SOL    HW2 3003   1.574   1.971   0.314 -0.7885 -0.8080 -1.3862
28465SOL     OW 3004  12.633   6.171  13.232  0.2734  0.0594 -0.1083
28465SOL    HW1 3005  12.652   6.157  13.325  2.5697  1.4356 -0.2889
28465SOL    HW2 3006  12.564   6.108  13.212 -1.3909  0.7157  2.8751
28466SOL     OW 3007   4.104  11.614   5.413  0.1823  0.1235 -0.1661
28466SOL    HW1 3008   4.041  11.605   5.484  2.1418  0.5661  1.7538
28466SOL    HW2 3009   4.171  11.548   5.430 -0.3966 -1.3625 -2.9838
28467SOL     OW 3010   7.329   8.221  13.416  0.3230 -0.4643 -0.6033
28467SOL    HW1 3011   7.282   8.270  13.348 -1.6688 -1.9963 -0.4353
28467SOL    HW2 3012   7.267   8.154  13.444  2.1412 -1.6989  0.7112
28468SOL     OW 3013   4.946  11.452   8.980  0.1547  0.3906  0.1426
28468SOL    HW1 3014   5.029  11.498   8.989  0.8677 -1.0484  1.3389
28468SOL    HW2 3015   4.905  11.491   8.903  2.8784 -0.2773 -1.7809
28469SOL     OW 3016   2.217   1.630  11.748  0.4140  0.1826 -0.4060
28469SOL    HW1 3017   2.230   1.725  11.743  2.0468 -0.0074 -0.1952
28469SOL    HW2 3018   2.140   1.620  11.804  0.7486  1.3731  0.3146
28470SOL     OW 3019  12.253   6.083  10.726  0.4449 -0.3434  0.8263
28470SOL    HW1 3020  12.222   6.002  10.765 -0.3039 -0.4325  0.0621
28470SOL    HW2 3021  12.320   6.114  10.787  1.5494 -2.0929  0.5959
28471SOL     OW 3022   4.494   5.859   7.720  0.1178 -0.5826  0.0955
28471SOL    HW1 3023   4.437   5.923   7.763  0.4894 -0.9757  1.2052
28471SOL    HW2 3024   4.558   5.835   7.787  0.7966 -1.1217 -0.7242
28472SOL     OW 3025  14.006   7.552   6.728  0.0896  0.0150  0.0489
28472SOL    HW1 3026  13.993   7.465   6.766  0.1194  0.2196  0.5390
28472SOL    HW2 3027  14.081   7.541   6.669 -2.1193 -1.1599 -2.7608
28473SOL     OW 3028   3.759  10.212   1.129  0.1320 -0.0787  0.4712
28473SOL    HW1 3029   3.831  10.158   1.095 -2.7246 -2.6900 -2.1108
28473SOL    HW2 3030   3.761  10.291   1.075 -0.5067 -1.3969 -1.6150
28474SOL     OW 3031   3.963  13.685   1.699  0.4080  0.4053 -0.2135
28474SOL    HW1 3032   4.026  13.688   1.628 -1.0489  1.1790 -1.5336
28474SOL    HW2 3033   3.901  13.616   1.674  0.8522 -0.5639  1.2118
28475SOL     OW 3034   1.330   1.924   9.702  0.1237 -0.1481  0.1607
28475SOL    HW1 3035   1.408   1.922   9.646 -0.6277 -2.5825 -0.9091
28475SOL    HW2 3036   1.314   2.017   9.717  2.7322  0.4484 -0.2637
28476SOL     OW 3037   1.577  11.891   6.331 -0.0915 -0.3339 -0.3435
28476SOL    HW1 3038   1.603  11.802   6.306 -0.0695 -0.4685  0.1487
28476SOL    HW2 3039   1.612  11.902   6.419 -1.2588 -0.3441  0.1475
28477SOL     OW 3040   4.151   6.760   4.376 -0.1379  0.1488  0.5848
28477SOL    HW1 3041   4.069   6.775   4.329 -2.1036 -1.0569  3.3104
28477SOL    HW2 3042   4.156   6.832   4.440  1.4134  0.6735 -0.0817
28478SOL     OW 3043   2.325   5.232   0.101 -0.6342  0.1055  0.8821
28478SOL    HW1 3044   2.380   5.201   0.173  0.2376 -1.2228 -0.3233
28478SOL    HW2 3045   2.361   5.191   0.023 -0.7284  2.5492 -0.5397
28479SOL     OW 3046   4.196  11.263  13.750 -0.1388  0.2289  0.2935
28479SOL    HW1 3047   4.106  11.291  13.766  0.1713  1.7116 -0.3084
28479SOL    HW2 3048   4.245  11.345  13.740  0.9906 -0.5389 -0.9269
28480SOL     OW 3049   5.930   0.912   5.740  0.0086  0.4649 -0.6356
28480SOL    HW1 3050   5.893   0.969   5.807 -1.0900 -0.8917 -0.0407
28480SOL    HW2 3051   6.024   0.927   5.745 -0.2742  2.4483 -0.7310
28481SOL     OW 3052   0.977   6.641  11.065 -0.1179  0.2799 -0.2051
28481SOL    HW1 3053   0.896   6.590  11.060 -0.6394  1.0584  0.1001
28481SOL    HW2 3054   1.043   6.584  11.026 -0.5828 -0.8101  0.5312
28482SOL     OW 3055   9.880   9.908  12.878 -0.1952 -0.2201 -0.3774
28482SOL    HW1 3056   9.851   9.817  12.884  0.9973 -0.5821  0.1367
28482SOL    HW2 3057   9.955   9.914  12.938 -0.6934  1.2841  0.1572
28483SOL     OW 3058  10.044  10.414  12.768  0.6376  0.3776 -0.2814
28483SOL    HW1 3059  10.131  10.454  12.771  0.3205  1.0824 -0.2181
28483SOL    HW2 3060  10.040  10.358  12.846  0.9392  0.5449 -0.1462
28484SOL     OW 3061   6.134   5.867   5.735  0.0574 -0.7504  0.1109
28484SOL    HW1 3062   6.158   5.806   5.665 -1.2001 -2.7970  1.3565
28484SOL    HW2 3063   6.128   5.812   5.813 -1.4461  0.9279  1.2496
28485SOL     OW 3064   0.837   5.268   4.323 -0.3536 -0.0400 -0.0560
28485SOL    HW1 3065   0.748   5.258   4.287 -0.0510 -0.6728 -0.6340
28485SOL    HW2 3066   0.885   5.313   4.254 -0.5599  1.5625  0.7943
28486SOL     OW 3067  11.692   0.157   6.666 -0.1357  0.4329 -0.4116
28486SOL    HW1 3068  11.776   0.176   6.708 -0.4976  1.3031 -0.0489
28486SOL    HW2 3069  11.661   0.078   6.710 -1.1625  2.0667  2.0555
28487SOL     OW 3070  11.892   6.213   2.010 -0.1651  0.3034  0.4434
28487SOL    HW1 3071  11.978   6.233   1.975 -0.2713  0.1080  0.0717
28487SOL    HW2 3072  11.909   6.158   2.087  0.0996  1.3021  1.1228
28488SOL     OW 3073   5.808   1.221  13.028  0.4509  0.5495  0.6443
28488SOL    HW1 3074   5.730   1.228  12.973 -0.4457  1.1805  1.9284
28488SOL    HW2 3075   5.874   1.181  12.972 -0.5238  0.8353 -0.7608
28489SOL     OW 3076   1.229  11.940   1.925 -0.0708  0.4009 -0.6910
28489SOL    HW1 3077   1.165  12.010   1.937  0.9218  1.0239  1.5020
28489SOL    HW2 3078   1.186  11.879   1.865 -1.8210  1.8282 -0.9950
28490SOL     OW 3079   0.930   5.041   4.843 -0.1232 -0.3194  0.2125
28490SOL    HW1 3080   0.965   4.956   4.815 -1.0099 -1.2107  1.6668
28490SOL    HW2 3081   0.840   5.041   4.811  0.3228  0.7859 -1.1471
28491SOL     OW 3082  11.662  12.109   5.027  0.2940  0.6990 -0.7197
28491SOL    HW1 3083  11.729  12.148   4.971  0.8862 -0.6911 -1.0179
28491SOL    HW2 3084  11.676  12.149   5.113  3.0437 -1.1543 -0.1659
28492SOL     OW 3085   8.216  12.530   2.869  0.1170 -0.7719 -0.3318
28492SOL    HW1 3086   8.308  12.552   2.859  0.0148 -0.0296  0.2910
28492SOL    HW2 3087   8.203  12.519   2.963 -0.3781 -1.1082 -0.4332
28493SOL     OW 3088   9.041   3.320   3.996  0.0626 -0.0294  0.3781
28493SOL    HW1 3089   8.964   3.275   4.031  0.2310 -2.7357 -2.2420
28493SOL    HW2 3090   9.107   3.313   4.065 -1.0258 -0.6760  1.3969
28494SOL     OW 3091   5.359   4.759   3.142  0.4890  0.1042  0.5459
28494SOL    HW1 3092   5.400   4.700   3.204  0.0270  1.3251  2.0728
28494SOL    HW2 3093   5.406   4.745   3.060  0.9841 -1.6858  1.0947
28495SOL     OW 3094   1.133  11.473   3.703  0.0310  0.6761  0.2338
28495SOL    HW1 3095   1.177  11.554   3.727 -0.8077  1.3718 -0.5256
28495SOL    HW2 3096   1.055  11.470   3.759 -0.4351  0.8761 -0.3984
28496SOL     OW 3097   9.953   6.023  11.136 -0.2939 -0.6143 -0.1097
28496SOL    HW1 3098   9.983   5.963  11.068 -0.4799 -1.1566  0.2764
28496SOL    HW2 3099  10.014   6.010  11.209  0.2085  0.3297 -0.3442
28497SOL     OW 3100   5.787   5.061   3.458  0.3450  0.0398 -0.0119
28497SOL    HW1 3101   5.714   5.095   3.510 -0.3567 -1.6176  0.1649
28497SOL    HW2 3102   5.835   5.006   3.520  0.2134 -0.9673 -0.7837
28498SOL     OW 3103  12.688  12.896   8.814 -0.3100 -0.9130  0.0865
28498SOL    HW1 3104  12.718  12.826   8.756 -0.0064 -0.1416 -0.7069
28498SOL    HW2 3105  12.608  12.862   8.854 -1.9206 -0.5834 -2.6381
28499SOL     OW 3106   9.807   7.681   1.388 -0.2117 -0.2411 -0.1102
28499SOL    HW1 3107   9.853   7.693   1.305 -0.7064 -2.1186 -0.6918
28499SOL    HW2 3108   9.865   7.721   1.453  0.4200  0.8028 -1.2828
28500SOL     OW 3109  13.194  11.101  11.470  0.3457 -0.8944 -0.2253
28500SOL    HW1 3110  13.153  11.104  11.557 -1.6991  0.0957 -1.1366
28500SOL    HW2 3111  13.219  11.192  11.453  0.2751 -0.9924 -0.8626
28501SOL     OW 3112  11.394  11.402  13.720 -0.8016  0.4119 -0.9492
28501SOL    HW1 3113  11.302  11.424  13.727 -1.0128 -0.4758 -0.8192
28501SOL    HW2 3114  11.439  11.466  13.775 -1.7903 -2.2410  3.4318
28502SOL     OW 3115  13.347   4.229   6.409  0.0240 -0.0642  0.4394
28502SOL    HW1 3116  13.322   4.153   6.461 -1.0498 -2.5490 -3.3063
28502SOL    HW2 3117  13.266   4.258   6.369  0.9963  0.7801 -0.9906
28503SOL     OW 3118   0.288   4.171   9.503  0.1716  0.6066 -0.3596
28503SOL    HW1 3119   0.241   4.088   9.509  0.6905  0.3625  0.6905
28503SOL    HW2 3120   0.223   4.233   9.471 -0.8074  0.2264  0.7819
28504SOL     OW 3121   8.710   0.653   0.223  0.1425  0.0932  0.2745
28504SOL    HW1 3122   8.619   0.632   0.243  0.7619 -0.9453  2.3540
28504SOL    HW2 3123   8.746   0.572   0.187 -0.2806  1.1995 -2.9559
28505SOL     OW 3124  10.821  10.047   9.815 -0.9868 -0.0673  0.1754
28505SOL    HW1 3125  10.747  10.071   9.870 -0.3971  1.2416  0.4287
28505SOL    HW2 3126  10.887  10.016   9.877 -0.8272  0.0687  0.0701
28506SOL     OW 3127   3.362   0.990   3.962  0.1255  0.6344 -0.7633
28506SOL    HW1 3128   3.395   1.077   3.935 -0.0487  0.4702 -1.5434
28506SOL    HW2 3129   3.430   0.956   4.020  0.0764  1.4025 -0.2413
28507SOL     OW 3130   4.275   2.673   1.155 -0.3950 -0.1694 -0.6825
28507SOL    HW1 3131   4.206   2.650   1.216  0.2544 -0.1695  0.0587
28507SOL    HW2 3132   4.290   2.767   1.170  0.3866 -0.3615 -0.1886
28508SOL     OW 3133  10.702   1.337  11.331  0.1548  0.1758  0.1395
28508SOL    HW1 3134  10.757   1.349  11.409  1.7889  0.3321 -0.9939
28508SOL    HW2 3135  10.707   1.244  11.313  3.5423  0.6698 -2.3221
28509SOL     OW 3136   5.098   8.821   4.503  0.2565  0.0486  0.0471
28509SOL    HW1 3137   5.046   8.899   4.483  1.3299  0.5219 -1.0102
28509SOL    HW2 3138   5.160   8.850   4.570  0.0535 -0.1544  0.3251
28510SOL     OW 3139   0.820   5.643   3.605  0.0460  0.5417  0.4771
28510SOL    HW1 3140   0.783   5.729   3.589 -0.5889 -0.0667 -1.7170
28510SOL    HW2 3141   0.839   5.608   3.517 -2.4070 -2.6680  1.0246
28511SOL     OW 3142   2.711   6.609   3.775  0.4849 -0.1756 -0.4987
28511SOL    HW1 3143   2.682   6.700   3.787  0.4452  0.2527 -3.1433
28511SOL    HW2 3144   2.639   6.556   3.810 -0.3434  0.8330 -0.6118
28512SOL     OW 3145  13.306   4.548  11.213  0.6301 -0.3005 -0.4319
28512SOL    HW1 3146  13.340   4.501  11.289 -1.4596 -2.7880 -0.9151
28512SOL    HW2 3147  13.355   4.514  11.139 -1.6156 -2.7898 -0.9313
28513SOL     OW 3148   7.925   0.884   0.129  0.3626 -0.5907 -0.0042
28513SOL    HW1 3149   7.904   0.969   0.091  1.3094 -0.7484 -0.9304
28513SOL    HW2 3150   7.891   0.889   0.218  1.5951  1.2918  0.4279
28514SOL     OW 3151   2.845   6.605   6.928  0.1323 -0.0820  0.0754
28514SOL    HW1 3152   2.866   6.576   6.839 -2.5955 -0.3552 -0.5932
28514SOL    HW2 3153   2.792   6.683   6.915  0.0774  0.1416  1.4970
28515SOL     OW 3154   1.475   9.208  13.212 -0.0485  0.2625 -0.0767
28515SOL    HW1 3155   1.381   9.196  13.198 -0.2445 -1.0541  1.9018
28515SOL    HW2 3156   1.481   9.279  13.276  0.3441  0.6284 -0.5120
28516SOL     OW 3157  13.043  13.723   8.235 -0.7195 -0.0530 -0.6900
28516SOL    HW1 3158  13.119  13.771   8.202 -1.2006  2.1330  1.0642
28516SOL    HW2 3159  13.014  13.670   8.161  2.0214 -0.4161 -1.6483
28517SOL     OW 3160   5.274   7.218   1.430  0.3263  0.3235 -0.2629
28517SOL    HW1 3161   5.228   7.176   1.357 -0.0890  1.1316 -0.4806
28517SOL    HW2 3162   5.230   7.303   1.440  1.7860  1.1421 -0.4972
28518SOL     OW 3163   2.166   9.890   4.111 -0.1667 -0.6912 -0.0358
28518SOL    HW1 3164   2.127   9.860   4.029  1.6075 -1.0868 -0.7785
28518SOL    HW2 3165   2.152   9.818   4.172 -2.8773  0.2036  0.5548
28519SOL     OW 3166  13.054   5.930  11.244 -0.0132 -0.0524 -0.1424
28519SOL    HW1 3167  13.149   5.938  11.245  0.1164 -1.2779 -0.8425
28519SOL    HW2 3168  13.038   5.836  11.234 -1.2742  0.3473 -2.5259
28520SOL     OW 3169   7.790   3.795   6.271  0.0511 -0.3858  0.3466
28520SOL    HW1 3170   7.822   3.741   6.199 -0.1455 -1.8330  1.3082
28520SOL    HW2 3171   7.727   3.855   6.230  0.5442 -0.6314 -0.8013
28521SOL     OW 3172   4.864   3.692   0.543  0.2821 -0.1568  0.6989
28521SOL    HW1 3173   4.871   3.602   0.574  0.7969 -0.2405  0.3511
28521SOL    HW2 3174   4.809   3.735   0.608  1.6696 -0.2130  1.9661
28522SOL     OW 3175  12.426   4.921   4.876  0.4263 -0.2052  0.4155
28522SOL    HW1 3176  12.364   4.977   4.923  1.1776  1.4027 -0.4484
28522SOL    HW2 3177  12.443   4.967   4.794  1.6453 -1.3303  0.0021
28523SOL     OW 3178   3.027   4.685  13.193 -0.1310 -0.2048  0.7614
28523SOL    HW1 3179   3.006   4.711  13.283  1.5600 -1.1662  1.4992
28523SOL    HW2 3180   3.032   4.590  13.196 -0.0579 -0.2480 -0.3568
28524SOL     OW 3181   7.507   1.801  11.768  0.0269 -0.3977 -0.0742
28524SOL    HW1 3182   7.451   1.723  11.759 -0.0770 -0.5127  1.4108
28524SOL    HW2 3183   7.545   1.794  11.855  1.3709  0.3522 -0.5734
28525SOL     OW 3184  11.141   2.911  11.590 -0.0708 -0.7569  0.7023
28525SOL    HW1 3185  11.220   2.858  11.582  0.3688 -0.2351  1.4604
28525SOL    HW2 3186  11.131   2.952  11.505  1.2221  0.1885  0.9804
28526SOL     OW 3187   3.845   5.967   5.146 -0.5317  0.1396 -0.4339
28526SOL    HW1 3188   3.825   6.051   5.188  0.0082 -0.4151  1.0231
28526SOL    HW2 3189   3.927   5.940   5.187 -1.1702 -1.5260 -0.2087
28527SOL     OW 3190   9.721   5.237   4.692  0.0127 -0.4296 -0.1225
28527SOL    HW1 3191   9.677   5.234   4.607 -1.6505 -0.1229  0.6923
28527SOL    HW2 3192   9.715   5.148   4.725  1.4010 -0.7398 -0.6705
28528SOL     OW 3193  10.618   2.415   0.980 -0.0849  0.1986  0.0206
28528SOL    HW1 3194  10.562   2.358   1.032  0.7927  0.0120  0.7862
28528SOL    HW2 3195  10.568   2.432   0.900 -0.2743 -1.8280 -0.3352
28529SOL     OW 3196   1.988  12.676   7.734  0.2229  0.7343 -0.3544
28529SOL    HW1 3197   2.019  12.660   7.823  1.2786 -0.0077 -0.8423
28529SOL    HW2 3198   1.933  12.601   7.713  2.1742 -0.5168 -1.2850
28530SOL     OW 3199  11.465   1.475   7.811 -0.1812  0.2135 -0.0353
28530SOL    HW1 3200  11.459   1.400   7.752  0.2037 -2.0773  2.6700
28530SOL    HW2 3201  11.554   1.473   7.845 -0.3294  1.5900  0.5192
28531SOL     OW 3202   6.557   9.738   6.315 -0.7562  0.3617  0.1542
28531SOL    HW1 3203   6.581   9.831   6.320 -0.8127  0.5856 -2.5114
28531SOL    HW2 3204   6.632   9.692   6.352  1.0059  1.3407 -2.0330
28532SOL     OW 3205   6.551  13.742   0.658  0.6338 -0.4072 -0.0303
28532SOL    HW1 3206   6.587  13.785   0.736  1.4163  1.6876 -1.4526
28532SOL    HW2 3207   6.457  13.739   0.673  0.6441  1.1341  0.4825
28533SOL     OW 3208   5.608   0.395  12.227  0.5921  0.9048  0.3604
28533SOL    HW1 3209   5.701   0.405  12.206  0.9422  1.8687  2.1175
28533SOL    HW2 3210   5.563   0.406  12.144  2.1002 -1.1845 -0.8365
28534SOL     OW 3211   1.118  11.548   0.360  0.5759 -0.1673 -0.3730
28534SOL    HW1 3212   1.071  11.506   0.287  0.0965  0.1924 -0.2801
28534SOL    HW2 3213   1.132  11.477   0.423  1.6075 -0.6406 -1.1011
28535SOL     OW 3214   2.635   5.431   9.262 -0.0107 -0.3314  0.1855
28535SOL    HW1 3215   2.582   5.352   9.253  1.3710 -1.4082  1.0628
28535SOL    HW2 3216   2.697   5.410   9.333  3.7033 -0.4151 -2.7764
28536SOL     OW 3217   4.620   5.793  11.737  0.2985  0.3754  0.4656
28536SOL    HW1 3218   4.658   5.780  11.651  2.1536  0.1017  1.2917
28536SOL    HW2 3219   4.630   5.887  11.754 -0.5510  0.5254  0.1829
28537SOL     OW 3220   0.862   2.982   2.550 -0.3279 -0.4967  0.3328
28537SOL    HW1 3221   0.896   2.911   2.604 -0.5757 -1.2486 -0.4924
28537SOL    HW2 3222   0.936   3.010   2.496 -0.5553 -0.9579 -0.2191
28538SOL     OW 3223  14.035  11.589   2.813  0.0525  0.5120  0.2285
28538SOL    HW1 3224  13.983  11.631   2.745 -0.2550  0.6266  0.5263
28538SOL    HW2 3225  14.027  11.495   2.795  1.3250  0.5809 -0.8601
28539SOL     OW 3226   4.417   2.317   5.247  0.2155 -0.0915  0.0080
28539SOL    HW1 3227   4.452   2.399   5.214  0.0440  0.7390  1.7868
28539SOL    HW2 3228   4.322   2.328   5.241  0.1937 -0.3084 -0.0585
28540SOL     OW 3229   0.729   5.770  10.559  0.3820 -0.0893 -0.3670
28540SOL    HW1 3230   0.743   5.793  10.467  1.2714  0.6480 -0.0617
28540SOL    HW2 3231   0.726   5.675  10.560 -3.9533 -0.2101 -1.7766
28541SOL     OW 3232  11.461   1.521   1.343  0.3734  0.4254 -0.6242
28541SOL    HW1 3233  11.406   1.544   1.418  1.6476  0.5144  0.3215
28541SOL    HW2 3234  11.419   1.563   1.268 -0.3249  1.2736  0.2253
28542SOL     OW 3235   1.342   6.858   4.673  0.5021 -0.0316 -0.1623
28542SOL    HW1 3236   1.382   6.824   4.593 -0.9663 -4.0915  0.5404
28542SOL    HW2 3237   1.248   6.862   4.653  0.0743 -1.4135  1.3447
28543SOL     OW 3238   3.926   0.525   0.340 -1.1530 -0.4115 -0.0361
28543SOL    HW1 3239   3.884   0.466   0.402 -2.8155  0.0073 -0.7142
28543SOL    HW2 3240   3.867   0.600   0.332 -0.7862 -0.2453 -1.7710
28544SOL     OW 3241  12.024  10.708   5.879  0.5340  0.0323 -0.3694
28544SOL    HW1 3242  11.998  10.624   5.843  4.4550 -1.6172  0.1632
28544SOL    HW2 3243  12.069  10.752   5.807  2.3495 -0.3132  0.4954
28545SOL     OW 3244   9.784   1.447   2.923  0.1054 -0.4186 -0.2622
28545SOL    HW1 3245   9.753   1.426   3.011 -1.4466  2.4774  0.0200
28545SOL    HW2 3246   9.856   1.509   2.937  0.6883 -0.9031 -1.0414
28546SOL     OW 3247   5.098   2.760   2.088  0.0921 -0.3692 -0.0626
28546SOL    HW1 3248   5.082   2.853   2.069 -0.1023 -0.1502  1.1042
28546SOL    HW2 3249   5.138   2.726   2.008  1.2839  1.0064 -0.1019
28547SOL     OW 3250   5.646   1.589   5.143 -0.1687 -0.0218 -0.2539
28547SOL    HW1 3251   5.565   1.618   5.099  0.5310 -0.7193 -2.0862
28547SOL    HW2 3252   5.647   1.494   5.131 -0.2501 -0.3505  1.9033
28548SOL     OW 3253  13.819   9.898  11.178  0.4930  0.5778 -0.0156
28548SOL    HW1 3254  13.842   9.871  11.267  1.4778  0.8071 -0.1792
28548SOL    HW2 3255  13.888   9.859  11.124 -1.6282 -2.0040 -1.0882
28549SOL     OW 3256  13.259   6.747   6.774 -0.3781 -0.6585 -0.0391
28549SOL    HW1 3257  13.276   6.710   6.860 -1.4186  0.1960  0.5669
28549SOL    HW2 3258  13.240   6.840   6.791  2.4237  0.3164 -1.5038
28550SOL     OW 3259  12.074   2.905   2.714 -0.5341 -0.5541 -0.1419
28550SOL    HW1 3260  12.053   2.997   2.728  0.5850 -0.6272  2.7681
28550SOL    HW2 3261  11.991   2.859   2.726 -1.1099  0.0034 -1.6599
28551SOL     OW 3262   6.077   4.801   5.583 -0.3672 -0.1616 -0.0094
28551SOL    HW1 3263   6.088   4.888   5.620 -0.8483  1.1816 -2.7761
28551SOL    HW2 3264   6.136   4.745   5.634  2.3975  2.3912 -0.1073
28552SOL     OW 3265  13.254   0.753   1.791 -0.2169  0.0514 -0.2953
28552SOL    HW1 3266  13.294   0.762   1.878 -1.0652 -2.0376  0.3799
28552SOL    HW2 3267  13.176   0.808   1.795  0.1864  0.6276 -0.0548
28553SOL     OW 3268   3.733   7.563  12.229 -0.4493 -0.2481 -0.0827
28553SOL    HW1 3269   3.786   7.526  12.159 -0.1443 -1.9194  0.9762
28553SOL    HW2 3270   3.796   7.595  12.293 -0.7226 -0.5476  0.3407
28554SOL     OW 3271   6.836   7.979   8.435  0.0549 -0.2790  0.3912
28554SOL    HW1 3272   6.780   7.967   8.511 -0.5576  1.5886  0.2763
28554SOL    HW2 3273   6.841   7.892   8.395 -0.1130 -1.1651  2.1834
28555SOL     OW 3274   0.763  12.758  12.788 -0.1029 -0.1761 -0.6541
28555SOL    HW1 3275   0.854  12.769  12.815 -0.2301 -0.1619 -0.2238
28555SOL    HW2 3276   0.714  12.818  12.844 -0.6210 -1.7015  0.5848
28556SOL     OW 3277   0.143   9.716   1.497 -0.3943  0.1798  0.1181
28556SOL    HW1 3278   0.054   9.712   1.531 -1.3622 -1.0654 -2.3123
28556SOL    HW2 3279   0.145   9.797   1.445 -0.5027 -0.3748 -0.7668
28557SOL     OW 3280  13.582   1.449   3.716 -0.0765  0.3347 -0.3172
28557SOL    HW1 3281  13.648   1.510   3.684  0.4330 -0.5078 -0.9189
28557SOL    HW2 3282  13.536   1.496   3.785  2.1750  0.3933  1.2261
28558SOL     OW 3283   1.210   2.425  13.893  0.0107  0.3353 -0.0571
28558SOL    HW1 3284   1.192   2.331  13.898 -0.2020  0.2889 -1.3930
28558SOL    HW2 3285   1.299   2.434  13.928  1.1649 -0.7749 -2.5040
28559SOL     OW 3286  11.860   9.470   1.028  0.0685 -0.0770  0.0196
28559SOL    HW1 3287  11.939   9.421   1.048  0.3205  0.0543 -0.6248
28559SOL    HW2 3288  11.874   9.503   0.939 -0.8606 -0.3499 -0.2393
28560SOL     OW 3289   2.514   3.505  12.989  0.0801 -0.3969  0.6010
28560SOL    HW1 3290   2.576   3.567  12.951  1.7663 -2.9989 -1.2227
28560SOL    HW2 3291   2.548   3.487  13.077  1.3238 -0.9179  0.0408
28561SOL     OW 3292   2.899   1.025   4.146 -0.2827 -0.4279  0.3026
28561SOL    HW1 3293   2.974   1.052   4.094 -1.2203  1.1907 -0.2867
28561SOL    HW2 3294   2.931   1.023   4.236  0.3199  0.8723  0.1356
28562SOL     OW 3295  10.434   7.417  13.906 -0.5879 -0.9552  0.3132
28562SOL    HW1 3296  10.407   7.500  13.945 -0.2019 -0.1262 -1.0957
28562SOL    HW2 3297  10.512   7.391  13.954 -0.1495  0.0131  0.1510
28563SOL     OW 3298   0.578   4.710   7.546 -0.0969 -0.8005  0.3801
28563SOL    HW1 3299   0.503   4.678   7.496 -0.1618 -0.8886  0.5317
28563SOL    HW2 3300   0.623   4.630   7.575 -0.1746 -0.7521  0.6326
28564SOL     OW 3301  12.146  10.642   3.086  0.8515  0.5094 -0.4880
28564SOL    HW1 3302  12.095  10.715   3.122 -1.1075 -0.1136 -1.8046
28564SOL    HW2 3303  12.195  10.681   3.013  0.7341  0.7433 -0.4438
28565SOL     OW 3304   6.802   2.070  13.565  0.1411  0.2931 -0.6490
28565SOL    HW1 3305   6.751   2.139  13.524 -0.1689  0.1483 -0.5177
28565SOL    HW2 3306   6.858   2.115  13.628  0.0498  0.4395 -0.6732
28566SOL     OW 3307   9.888   0.527   7.455  0.1878  0.3835 -0.4566
28566SOL    HW1 3308   9.805   0.513   7.500  0.2294  1.4253 -0.0236
28566SOL    HW2 3309   9.954   0.521   7.525  0.2089  2.5407 -0.2210
28567SOL     OW 3310   4.627   3.189   2.187  0.3095  0.2839 -0.5870
28567SOL    HW1 3311   4.688   3.194   2.261 -0.0634  1.1368 -0.3275
28567SOL    HW2 3312   4.541   3.205   2.225  0.1211  0.8066 -1.2104
28568SOL     OW 3313  10.982   8.364   0.349 -0.5187  0.2682 -0.1596
28568SOL    HW1 3314  11.028   8.404   0.422  0.8193 -1.2867 -0.0905
28568SOL    HW2 3315  11.013   8.410   0.271 -0.7684  0.8906  0.1082
28569SOL     OW 3316  10.706   1.774  10.128 -0.2325  0.2404  0.3933
28569SOL    HW1 3317  10.760   1.761  10.206 -0.3832 -3.0628  0.0901
28569SOL    HW2 3318  10.762   1.750  10.055 -0.9410  0.5487 -0.2680
28570SOL     OW 3319   7.058   1.758   0.168 -0.5397 -0.2654 -0.5324
28570SOL    HW1 3320   7.029   1.675   0.204  1.3835 -1.4773 -1.6130
28570SOL    HW2 3321   7.142   1.739   0.127  0.1649  2.2939 -0.4927
28571SOL     OW 3322   1.942   0.093   1.880  0.3088 -0.6612  0.2060
28571SOL    HW1 3323   2.020   0.103   1.934  1.4433  0.5509 -1.5581
28571SOL    HW2 3324   1.870   0.121   1.936  1.3147 -0.3358  1.3847
28572SOL     OW 3325  12.561   5.909   9.802 -0.1713  0.0981  0.1564
28572SOL    HW1 3326  12.474   5.940   9.826 -0.3741  2.0352 -2.6056
28572SOL    HW2 3327  12.621   5.966   9.850 -0.4793  0.2077  0.4078
28573SOL     OW 3328  11.333  11.851   2.190  0.3061 -0.2934  0.2365
28573SOL    HW1 3329  11.349  11.875   2.099  1.1685 -1.7062 -0.0159
28573SOL    HW2 3330  11.365  11.926   2.240  2.4638 -0.6122 -0.5368
28574SOL     OW 3331   3.065  12.194   9.045 -0.3065  0.2254  0.3919
28574SOL    HW1 3332   3.150  12.203   9.001 -1.8524 -0.0051 -2.9220
28574SOL    HW2 3333   3.004  12.168   8.976 -3.0347 -0.1576  2.7305
28575SOL     OW 3334   7.668  11.822   5.024  0.0541 -0.1114  0.3059
28575SOL    HW1 3335   7.638  11.745   4.977  0.1560  1.0963 -1.8545
28575SOL    HW2 3336   7.588  11.872   5.042  0.3027  1.2647 -2.0712
28576SOL     OW 3337  14.046  13.124   6.867 -0.3678 -0.6298 -0.9092
28576SOL    HW1 3338  14.109  13.126   6.939  1.1810  0.5826 -2.2159
28576SOL    HW2 3339  13.966  13.087   6.905  0.3301  0.1425  1.4469
28577SOL     OW 3340  10.331   2.841   8.545  0.5441 -0.2384  0.4367
28577SOL    HW1 3341  10.344   2.867   8.637  0.5943 -0.6632  0.5528
28577SOL    HW2 3342  10.388   2.764   8.534  1.4619  0.5144 -0.2847
28578SOL     OW 3343  13.496   5.959  11.056  0.2348 -0.1758  0.2001
28578SOL    HW1 3344  13.560   6.020  11.020 -1.6873  1.3803 -0.7888
28578SOL    HW2 3345  13.473   5.903  10.982 -1.2244  0.8045 -0.1206
28579SOL     OW 3346  13.575   5.617   8.560 -0.2202 -0.0522 -0.2039
28579SOL    HW1 3347  13.508   5.609   8.493  0.0481 -2.4906 -0.2457
28579SOL    HW2 3348  13.534   5.586   8.641 -0.8969  3.8494  1.1779
28580SOL     OW 3349   5.607   5.581  13.107 -0.2957 -0.2788  0.2064
28580SOL    HW1 3350   5.513   5.569  13.091 -0.1089 -1.5563 -0.0085
28580SOL    HW2 3351   5.642   5.492  13.110  0.7829  0.1612  1.0881
28581SOL     OW 3352   7.663   8.348   7.700 -0.1300  0.0463 -0.0338
28581SOL    HW1 3353   7.744   8.399   7.700 -0.4225  0.5479  1.1203
28581SOL    HW2 3354   7.611   8.385   7.772 -0.9555 -0.9287 -0.1029
28582SOL     OW 3355   0.763   8.832   8.438  0.0603  0.2613 -0.2832
28582SOL    HW1 3356   0.668   8.826   8.446  0.1557  1.1046  2.1566
28582SOL    HW2 3357   0.794   8.856   8.525  2.4077  1.4483 -1.3306
28583SOL     OW 3358  11.961   8.799  13.145  0.1308  0.1562  0.5202
28583SOL    HW1 3359  11.885   8.746  13.168 -0.7960  1.3577  0.2917
28583SOL    HW2 3360  11.990   8.763  13.061 -1.6977  1.2154 -0.6368
28584SOL     OW 3361  10.477   9.814   2.700  0.1381  0.2234 -0.1932
28584SOL    HW1 3362  10.559   9.834   2.745  1.5120  0.2197 -2.5319
28584SOL    HW2 3363  10.419   9.888   2.721  1.0401  0.6747  0.7725
28585SOL     OW 3364   9.730   8.918   9.953  0.4667  0.1835 -0.5507
28585SOL    HW1 3365   9.797   8.892   9.890 -0.9753  0.7148 -2.3846
28585SOL    HW2 3366   9.651   8.929   9.901 -0.8257  0.5783  1.3869
28586SOL     OW 3367  13.441   2.091   2.177  0.4067 -0.8269  0.0006
28586SOL    HW1 3368  13.502   2.161   2.154 -1.1985  1.1666  1.5108
28586SOL    HW2 3369  13.484   2.044   2.248  1.0023 -0.6495 -0.2358
28587SOL     OW 3370   5.877  13.402  12.103 -0.0337  0.0051 -0.6477
28587SOL    HW1 3371   5.878  13.396  12.007  0.5251  0.6266 -0.6881
28587SOL    HW2 3372   5.967  13.425  12.126 -0.6421  2.0615 -0.1284
28588SOL     OW 3373   0.808   4.647   6.595  0.7457  0.5191  0.3038
28588SOL    HW1 3374   0.820   4.741   6.604  0.7700  0.4443  1.1360
28588SOL    HW2 3375   0.818   4.613   6.684  1.0760 -0.3069 -0.0373
28589SOL     OW 3376   5.814   2.425   0.985 -0.3458  0.0403  0.3665
28589SOL    HW1 3377   5.752   2.366   0.942 -1.7973 -0.4596  2.8962
28589SOL    HW2 3378   5.899   2.382   0.973 -0.9344 -0.9618 -0.4597
28590SOL     OW 3379   7.011  11.795   8.286 -0.1163 -0.2663  0.0113
28590SOL    HW1 3380   6.963  11.757   8.212 -0.2158 -1.3651  0.6114
28590SOL    HW2 3381   6.971  11.755   8.363  0.3851  0.4018  0.6338
28591SOL     OW 3382   5.014   9.195   2.086 -0.3015  0.0654 -0.0693
28591SOL    HW1 3383   5.051   9.153   2.008 -1.1284 -1.9814  0.5837
28591SOL    HW2 3384   5.085   9.190   2.151 -0.1153  0.4722 -0.2334
28592SOL     OW 3385   4.921   0.285   2.970 -0.2025 -0.3085 -0.0135
28592SOL    HW1 3386   4.904   0.336   3.049 -0.5112 -0.1126 -0.2042
28592SOL    HW2 3387   4.898   0.344   2.898  0.9084 -0.1782 -0.2749
28593SOL     OW 3388   3.516  13.342   5.701  0.5910 -0.3315  0.3277
28593SOL    HW1 3389   3.466  13.271   5.659  0.1390 -0.6411  1.3589
28593SOL    HW2 3390   3.465  13.421   5.682  1.6493 -0.0818 -1.7385
28594SOL     OW 3391   8.187   5.768   2.062  0.5006  0.1404 -0.1648
28594SOL    HW1 3392   8.159   5.709   1.992 -0.5777 -1.7239  1.7303
28594SOL    HW2 3393   8.249   5.717   2.114  0.5146  1.1092  0.8185
28595SOL     OW 3394   7.002   8.242   4.432  0.3330 -0.3701 -0.4398
28595SOL    HW1 3395   6.959   8.328   4.439  1.9014  0.6783 -2.4246
28595SOL    HW2 3396   6.950   8.195   4.368  2.3884  1.2543 -3.5856
28596SOL     OW 3397   4.197   9.539   5.591  0.0248  0.7627  0.0426
28596SOL    HW1 3398   4.171   9.454   5.555 -0.3700  1.4201 -1.2974
28596SOL    HW2 3399   4.288   9.527   5.618 -0.4588 -0.4730  1.1969
28597SOL     OW 3400   5.787  13.362   5.779 -0.2912  0.1678  0.1387
28597SOL    HW1 3401   5.721  13.414   5.824 -1.0420 -1.5977  1.2065
28597SOL    HW2 3402   5.869  13.410   5.792 -0.4435 -0.2245  3.5201
28598SOL     OW 3403  11.595  12.928   7.400  0.2118 -0.0942  0.1451
28598SOL    HW1 3404  11.522  12.915   7.339  0.1863  1.0018 -0.0802
28598SOL    HW2 3405  11.591  12.852   7.458  0.5277 -1.4242 -1.4835
28599SOL     OW 3406   3.746   9.811   2.694 -0.0574 -0.4246 -0.1844
28599SOL    HW1 3407   3.758   9.870   2.619  2.1834  0.6783  0.9624
28599SOL    HW2 3408   3.659   9.772   2.680  0.3603 -0.4665 -3.4626
28600SOL     OW 3409  12.315   2.223   3.502  0.5849 -0.1763 -0.6916
28600SOL    HW1 3410  12.225   2.236   3.470  0.7343 -0.2561 -1.1486
28600SOL    HW2 3411  12.313   2.256   3.592 -0.3637 -1.8358 -0.0649
28601SOL     OW 3412   9.751  13.375   0.040  0.2610  0.1682 -0.2484
28601SOL    HW1 3413   9.805  13.358   0.117  1.7319 -1.1087 -1.4776
28601SOL    HW2 3414   9.813  13.373  -0.033 -1.0636  1.4366 -1.4763
28602SOL     OW 3415  13.593  11.952   7.796 -0.0720  0.0047 -0.2849
28602SOL    HW1 3416  13.519  12.012   7.786 -0.1781  0.1627  1.2079
28602SOL    HW2 3417  13.658  11.982   7.733 -1.7906 -1.0138 -2.6847
28603SOL     OW 3418  10.687   7.972   4.431 -0.1310 -1.0303  0.5238
28603SOL    HW1 3419  10.765   7.962   4.377 -0.1497 -0.1477  0.3251
28603SOL    HW2 3420  10.700   8.054   4.478 -1.2715 -0.4930 -0.0652
28604SOL     OW 3421  11.765  12.408  11.202 -0.5736  0.3125 -0.0756
28604SOL    HW1 3422  11.716  12.439  11.125  0.2153  3.7070  0.6357
28604SOL    HW2 3423  11.722  12.450  11.276  0.5811 -0.4141  1.0417
28605SOL     OW 3424   6.021  12.076   7.243  0.0280 -0.2080 -0.3312
28605SOL    HW1 3425   6.049  11.986   7.256  3.3542  0.6464 -0.5944
28605SOL    HW2 3426   6.081  12.109   7.176  0.6566  2.8805  1.5650
28606SOL     OW 3427   8.189   2.762   0.817  0.1751  0.1161 -0.2284
28606SOL    HW1 3428   8.227   2.727   0.736  0.6704 -0.6849  0.3417
28606SOL    HW2 3429   8.249   2.833   0.842 -0.1690  0.5985 -0.7369
28607SOL     OW 3430   9.128   9.939   9.383  0.5317  0.3361 -0.3733
28607SOL    HW1 3431   9.047   9.912   9.340  0.5976  4.3306 -3.7029
28607SOL    HW2 3432   9.197   9.917   9.320  1.4446  1.1218  0.3132
28608SOL     OW 3433   8.964   3.421  10.910  0.0292 -0.4657 -0.2233
28608SOL    HW1 3434   8.932   3.416  11.001  1.0166  0.3285  0.1851
28608SOL    HW2 3435   8.988   3.513  10.898  0.3552 -0.6603 -1.1374
28609SOL     OW 3436  10.182   1.775  13.876 -0.2364  0.0391  0.1682
28609SOL    HW1 3437  10.121   1.709  13.908 -0.9875  0.2977 -0.6872
28609SOL    HW2 3438  10.175   1.847  13.939  0.3617 -0.5724  0.9356
28610SOL     OW 3439   7.486  11.839   0.442  0.4469 -0.1455  0.4482
28610SOL    HW1 3440   7.526  11.755   0.421 -1.3565 -0.6765 -1.0629
28610SOL    HW2 3441   7.558  11.902   0.437  1.1892 -1.0781 -1.9952
28611SOL     OW 3442   1.677   0.731   4.941  0.0359  0.3699  0.2103
28611SOL    HW1 3443   1.734   0.744   5.017  0.6753  4.3851 -0.7246
28611SOL    HW2 3444   1.736   0.700   4.873 -0.3369 -2.1472  0.9211
28612SOL     OW 3445  10.522   4.345   5.854 -0.3856 -0.2467 -0.0521
28612SOL    HW1 3446  10.456   4.349   5.923 -0.3338  0.8410 -0.0486
28612SOL    HW2 3447  10.581   4.418   5.872 -0.8812  0.6170 -1.7393
28613SOL     OW 3448  13.097   4.580  13.017 -0.2162 -0.2041  0.4833
28613SOL    HW1 3449  13.034   4.579  13.088  0.0594  0.8616  0.7479
28613SOL    HW2 3450  13.045   4.598  12.938 -0.2670  0.5287  0.6815
28614SOL     OW 3451  13.387   2.492   6.527  0.0988  0.4110 -0.2187
28614SOL    HW1 3452  13.317   2.550   6.556 -0.7053 -1.1506  1.1100
28614SOL    HW2 3453  13.467   2.537   6.555 -0.4988  0.8995  0.7830
28615SOL     OW 3454   7.958  10.502   6.753  0.3063 -0.0373 -0.4283
28615SOL    HW1 3455   7.895  10.502   6.825  1.4414  0.0919  0.5943
28615SOL    HW2 3456   8.008  10.421   6.765  0.1680 -0.2698 -1.3767
28616SOL     OW 3457  13.369  11.496   2.837  0.4763  0.3727 -0.3183
28616SOL    HW1 3458  13.344  11.537   2.754  1.7227  0.7279 -0.5466
28616SOL    HW2 3459  13.297  11.437   2.857 -0.4152  1.1730 -1.0292
28617SOL     OW 3460  10.189   5.654   2.562  0.1874 -0.0051 -0.4179
28617SOL    HW1 3461  10.099   5.648   2.592 -0.3326  0.6857 -1.7409
28617SOL    HW2 3462  10.219   5.564   2.554  0.3349 -0.2299  1.9893
28618SOL     OW 3463  10.857  11.193   6.622  0.4447 -0.7375  0.2759
28618SOL    HW1 3464  10.877  11.149   6.539  1.2259 -0.3777  0.2671
28618SOL    HW2 3465  10.912  11.148   6.686  2.5560  1.2352  0.0020
28619SOL     OW 3466   2.107   2.537   6.505  0.6214 -0.1487  0.0424
28619SOL    HW1 3467   2.131   2.620   6.463  0.4261 -0.0944  0.0343
28619SOL    HW2 3468   2.128   2.549   6.597 -0.7926  0.4647  0.3134
28620SOL     OW 3469   4.119  13.267   2.464 -0.3237  0.4264  0.0944
28620SOL    HW1 3470   4.037  13.217   2.461 -0.8008  1.2030 -0.2669
28620SOL    HW2 3471   4.094  13.354   2.432  0.4092  1.0002  1.0550
28621SOL     OW 3472  12.281   2.376   2.145  0.0544  0.0573  0.1800
28621SOL    HW1 3473  12.325   2.388   2.230 -0.2695  1.4169  0.1703
28621SOL    HW2 3474  12.318   2.445   2.090 -1.7386  0.9446  0.0346
28622SOL     OW 3475   0.986  13.540  11.658  0.0340 -0.0968 -0.2373
28622SOL    HW1 3476   0.935  13.462  11.635 -4.0200  2.2050  0.0242
28622SOL    HW2 3477   1.030  13.517  11.740 -0.4112 -2.2953 -0.5564
28623SOL     OW 3478   7.042   5.108   3.933 -0.5553  0.1418  0.3750
28623SOL    HW1 3479   7.048   5.204   3.933 -2.9988  0.3537  0.2227
28623SOL    HW2 3480   6.948   5.090   3.925  0.0264 -2.3071 -2.0174
28624SOL     OW 3481   9.049   7.661  13.490 -0.7656 -0.0990  0.1275
28624SOL    HW1 3482   9.020   7.698  13.407 -1.0638 -0.0621  0.2456
28624SOL    HW2 3483   9.042   7.733  13.553 -1.6326 -0.4210  0.4184
28625SOL     OW 3484   1.062  11.405  10.814 -0.5787  0.1993  0.4967
28625SOL    HW1 3485   1.081  11.498  10.823  1.2786 -0.0062 -0.8738
28625SOL    HW2 3486   1.052  11.391  10.720 -0.1726 -1.1129  0.6295
28626SOL     OW 3487   1.645   9.273   8.972  0.1277 -0.2867 -0.4061
28626SOL    HW1 3488   1.727   9.292   9.018  0.6079 -1.5785 -0.7037
28626SOL    HW2 3489   1.610   9.195   9.015 -1.0793  0.3686 -0.1390
28627SOL     OW 3490   8.547  10.976   5.609 -0.2987 -0.3630  0.0747
28627SOL    HW1 3491   8.566  10.926   5.688  0.4070 -0.8513 -0.3903
28627SOL    HW2 3492   8.589  11.061   5.623 -0.5246 -0.2993  0.3868
28628SOL     OW 3493   4.711  12.668   7.317 -0.1762 -0.0382  0.3397
28628SOL    HW1 3494   4.782  12.732   7.326 -1.6155  1.6101  0.6502
28628SOL    HW2 3495   4.665  12.694   7.237 -0.9293 -0.5498  0.5930
28629SOL     OW 3496  12.047   6.536  12.242  0.0588  0.0882  0.4653
28629SOL    HW1 3497  12.082   6.560  12.156  2.3978  0.2444  1.4165
28629SOL    HW2 3498  12.034   6.619  12.287 -1.8858  0.0560  0.0528
28630SOL     OW 3499  13.480   8.874  13.835 -0.5234  0.1268 -0.4715
28630SOL    HW1 3500  13.477   8.913  13.923  3.6426 -3.1994  1.5141
28630SOL    HW2 3501  13.425   8.796  13.842  0.2037 -0.4034 -0.6749
28631SOL     OW 3502   9.048  13.470   8.317  0.0150  0.1005  0.1482
28631SOL    HW1 3503   8.977  13.405   8.315 -0.1238  0.2513  0.1298
28631SOL    HW2 3504   9.012  13.543   8.367  0.2257  0.1006  0.3000
28632SOL     OW 3505   7.352   2.952   8.480 -0.3651  0.6401  0.3246
28632SOL    HW1 3506   7.348   3.045   8.502 -1.6336  1.0645 -1.4828
28632SOL    HW2 3507   7.280   2.913   8.530 -0.7946  0.9069 -0.0794
28633SOL     OW 3508  10.050   4.359   4.907  0.4647  0.7620 -0.0009
28633SOL    HW1 3509  10.012   4.298   4.844 -0.3045  0.4008  0.8067
28633SOL    HW2 3510  10.144   4.356   4.888  0.1697  1.5193 -1.8844
28634SOL     OW 3511   7.422   2.424  11.858 -0.1154 -0.2050 -0.3133
28634SOL    HW1 3512   7.469   2.379  11.788 -0.2215 -0.1090 -0.4469
28634SOL    HW2 3513   7.484   2.429  11.930 -0.2524 -0.9737 -0.1363
28635SOL     OW 3514   8.315   4.219  10.884  0.1332 -0.0070  0.7903
28635SOL    HW1 3515   8.304   4.158  10.811  1.4114 -0.0967  0.6429
28635SOL    HW2 3516   8.316   4.306  10.844  0.0041 -0.0034  0.7957
28636SOL     OW 3517  12.842  12.249   4.926 -0.0235  0.7517  0.5740
28636SOL    HW1 3518  12.763  12.251   4.873 -1.0313  1.6973  2.0310
28636SOL    HW2 3519  12.879  12.162   4.912  0.6854  1.4776 -2.8899
28637SOL     OW 3520  13.367  13.150   7.274  0.3306  0.1133  0.1935
28637SOL    HW1 3521  13.407  13.071   7.308  1.1606  1.7240  3.3274
28637SOL    HW2 3522  13.274  13.141   7.296  0.5286  0.2508  1.1276
28638SOL     OW 3523   3.216   0.459   7.163 -0.3912  0.0077 -0.3006
28638SOL    HW1 3524   3.201   0.438   7.070 -0.0268  1.0451 -0.6027
28638SOL    HW2 3525   3.294   0.409   7.186 -0.7916 -0.6811 -0.3922
28639SOL     OW 3526   8.102  12.908  11.943  0.5079 -0.0634 -0.4524
28639SOL    HW1 3527   8.036  12.975  11.957  0.3467 -0.2591 -0.2688
28639SOL    HW2 3528   8.069  12.855  11.871 -0.3001 -1.1103  0.6456
28640SOL     OW 3529  11.375   2.849  11.974  0.6922 -0.3913  0.5290
28640SOL    HW1 3530  11.362   2.760  11.940 -0.8803  0.2974 -0.8313
28640SOL    HW2 3531  11.465   2.871  11.950  0.5998 -1.0690 -0.5173
28641SOL     OW 3532  13.769   7.694   0.182  0.0355  0.2628 -0.4115
28641SOL    HW1 3533  13.772   7.637   0.259 -0.5881  0.3801 -0.2926
28641SOL    HW2 3534  13.858   7.729   0.174 -0.1944  1.2396  1.0051
28642SOL     OW 3535   2.464  13.848   0.414  0.3837  0.2401 -0.2006
28642SOL    HW1 3536   2.436  13.885   0.330  0.7845 -0.6781 -0.7588
28642SOL    HW2 3537   2.387  13.855   0.470  0.0577  0.7158 -0.6998
28643SOL     OW 3538  13.972  14.078   4.608  0.0179  0.0446 -0.3648
28643SOL    HW1 3539  13.911  14.046   4.541 -0.8348  0.3118  0.2784
28643SOL    HW2 3540  14.058  14.049   4.577 -0.3283  0.3966 -1.7249
28644SOL     OW 3541   5.847  10.951  13.577 -0.3162 -0.3954 -0.2970
28644SOL    HW1 3542   5.896  11.000  13.511 -0.6944 -0.9221 -0.9816
28644SOL    HW2 3543   5.914  10.905  13.627 -0.0205  0.0468 -0.2864
28645SOL     OW 3544   9.374  11.547   4.754 -0.4540 -0.2593  0.2066
28645SOL    HW1 3545   9.457  11.516   4.717 -0.2450 -1.0927  1.3140
28645SOL    HW2 3546   9.333  11.469   4.791 -0.6530  0.5012  1.6981
28646SOL     OW 3547  12.577   6.169   4.099  0.3757  0.0539 -0.0296
28646SOL    HW1 3548  12.495   6.126   4.122  0.1450 -0.7779 -2.1615
28646SOL    HW2 3549  12.555   6.221   4.021  2.0019 -0.7783 -1.0999
28647SOL     OW 3550   0.233   0.589   0.322 -0.3513  0.2106  0.1959
28647SOL    HW1 3551   0.233   0.493   0.327  1.2095  0.2617  2.2916
28647SOL    HW2 3552   0.150   0.610   0.280 -0.2789 -2.0760 -1.2990
28648SOL     OW 3553   0.501  11.361  10.056 -0.3307 -0.2376  0.0776
28648SOL    HW1 3554   0.518  11.342  10.148 -1.0019  0.4890  0.3615
28648SOL    HW2 3555   0.408  11.381  10.052 -0.1199  0.6747 -0.5977
28649SOL     OW 3556   3.750   2.203   8.238 -0.2628  0.1161  0.3085
28649SOL    HW1 3557   3.810   2.184   8.166  1.8575  2.3174  1.3678
28649SOL    HW2 3558   3.750   2.298   8.245 -1.9747  0.0561  1.9842
28650SOL     OW 3559   1.070   8.443   0.235  0.0917 -0.4836 -0.0851
28650SOL    HW1 3560   1.069   8.536   0.258  1.1750 -0.3577 -0.4802
28650SOL    HW2 3561   1.154   8.411   0.267  0.5251 -0.8897 -1.5221
28651SOL     OW 3562   3.194  10.128   7.497 -0.0383  0.3503 -0.2106
28651SOL    HW1 3563   3.103  10.107   7.473  0.4204 -1.9268 -0.1729
28651SOL    HW2 3564   3.210  10.213   7.457 -2.4826  1.2689  0.6105
28652SOL     OW 3565   3.648   7.257   9.309  0.2253  0.0112  0.1480
28652SOL    HW1 3566   3.733   7.294   9.332  1.2424 -0.4117 -2.5887
28652SOL    HW2 3567   3.663   7.163   9.303 -0.9400 -0.2888  1.4365
28653SOL     OW 3568   2.864   8.352  11.074 -0.1018  0.6425 -0.4013
28653SOL    HW1 3569   2.922   8.298  11.128 -1.1725  0.1196  0.2517
28653SOL    HW2 3570   2.870   8.314  10.987  1.4516  1.3410 -0.6476
28654SOL     OW 3571   9.899   3.992   0.338 -0.5423  0.0707  0.4705
28654SOL    HW1 3572   9.988   3.983   0.373 -0.5386  0.5357  0.5858
28654SOL    HW2 3573   9.888   4.086   0.325 -1.8970  0.2720  2.7250
28655SOL     OW 3574  14.030   7.729  10.170  0.1562 -0.1970 -0.2295
28655SOL    HW1 3575  14.069   7.763  10.089  2.9674  0.7971  1.3814
28655SOL    HW2 3576  14.004   7.807  10.219  0.0183 -0.6884  0.4995
28656SOL     OW 3577   5.297  12.422   8.989 -0.1318  0.6078 -0.1551
28656SOL    HW1 3578   5.380  12.470   8.985  0.9648 -1.2462 -1.1474
28656SOL    HW2 3579   5.247  12.453   8.914 -1.3876  3.3765  1.6635
28657SOL     OW 3580   3.151   9.562   5.716 -1.0227  0.2262 -0.3666
28657SOL    HW1 3581   3.150   9.503   5.640 -0.0721 -0.9168  0.4573
28657SOL    HW2 3582   3.238   9.549   5.755 -2.3577 -1.3054  2.4568
28658SOL     OW 3583   7.758  13.559   9.260  0.4484  0.3058  1.2474
28658SOL    HW1 3584   7.692  13.515   9.313  0.2798  0.4118  1.1272
28658SOL    HW2 3585   7.714  13.638   9.229 -0.1063 -0.6959 -0.6448
28659SOL     OW 3586  10.943   0.321   0.434  0.4242 -0.2317 -0.2635
28659SOL    HW1 3587  10.903   0.395   0.387 -2.2215 -1.0250  0.5366
28659SOL    HW2 3588  10.912   0.244   0.387 -0.8645 -0.9680  1.6449
28660SOL     OW 3589   4.193   8.026   2.512 -0.0219 -0.0471 -0.2293
28660SOL    HW1 3590   4.116   7.987   2.471  0.6215 -0.6935 -0.8737
28660SOL    HW2 3591   4.250   7.951   2.531  0.6042  0.4426 -0.1196
28661SOL     OW 3592   5.725   6.933   6.484  0.2329 -0.1403 -0.4584
28661SOL    HW1 3593   5.790   7.004   6.487  1.3564 -1.0842 -1.3362
28661SOL    HW2 3594   5.778   6.853   6.480 -0.9152 -1.3237  3.5312
28662SOL     OW 3595  13.368   9.416   0.568 -0.0076  0.4121 -0.0809
28662SOL    HW1 3596  13.316   9.344   0.534  2.1183 -0.5422 -1.5102
28662SOL    HW2 3597  13.318   9.495   0.546 -0.5627 -0.4213 -1.9406
28663SOL     OW 3598   3.954  13.276  10.401 -0.3401  0.8194 -0.0492
28663SOL    HW1 3599   3.915  13.357  10.434 -0.3495  0.9708 -0.4232
28663SOL    HW2 3600   4.030  13.261  10.457 -1.0923  0.3671  0.8758
28664SOL     OW 3601  12.852   3.991   9.072  0.2396 -0.2365 -0.9160
28664SOL    HW1 3602  12.782   3.982   9.137 -0.3666  1.3144 -1.3009
28664SOL    HW2 3603  12.823   3.939   8.997  0.4690 -1.2182 -0.3399
28665SOL     OW 3604   4.490  13.771   6.202  0.3767  0.4679  0.4630
28665SOL    HW1 3605   4.513  13.814   6.284  1.3348  1.0167 -0.0787
28665SOL    HW2 3606   4.553  13.804   6.138 -0.7726  0.5797 -0.6703
28666SOL     OW 3607   9.003   3.237  10.714  0.0003 -0.3306 -0.1597
28666SOL    HW1 3608   9.029   3.161  10.767 -0.7441 -0.4637  0.0254
28666SOL    HW2 3609   8.984   3.305  10.778  0.1581 -0.1478 -0.3054
28667SOL     OW 3610   9.758   9.509   1.519  0.0341 -0.1251  0.0016
28667SOL    HW1 3611   9.723   9.422   1.539 -2.2560  0.6100 -0.4888
28667SOL    HW2 3612   9.797   9.500   1.433  1.1005 -0.9768  0.5490
28668SOL     OW 3613   6.693  13.462  11.668 -0.0494 -0.0336 -0.2258
28668SOL    HW1 3614   6.693  13.385  11.724 -0.0980  1.0931  1.4029
28668SOL    HW2 3615   6.779  13.503  11.684  0.0001  0.2231 -1.1109
28669SOL     OW 3616   2.084   9.486   5.007 -0.0931  0.4770 -0.1260
28669SOL    HW1 3617   2.025   9.487   5.082  0.3977  1.7800  0.2698
28669SOL    HW2 3618   2.171   9.499   5.045  0.2785  0.1058 -0.8332
28670SOL     OW 3619   9.363   1.764   8.515  0.7047 -0.4785 -1.4293
28670SOL    HW1 3620   9.268   1.755   8.524  0.9506 -1.9645  0.1023
28670SOL    HW2 3621   9.388   1.691   8.458  1.2745 -2.1912  0.8999
28671SOL     OW 3622   2.663   5.830  12.606 -0.6525  0.0441 -0.5053
28671SOL    HW1 3623   2.691   5.921  12.594 -0.9412  0.0205 -1.4696
28671SOL    HW2 3624   2.569   5.836  12.618 -0.8891 -0.2068 -1.9982
28672SOL     OW 3625   0.032   7.680  13.351  0.4214  0.8055  0.1985
28672SOL    HW1 3626  -0.001   7.659  13.438  2.2331 -1.5016  0.4008
28672SOL    HW2 3627   0.003   7.608  13.296 -0.2853  1.9948 -1.0662
28673SOL     OW 3628   7.988  13.081  12.444 -0.3066 -1.0850  0.2041
28673SOL    HW1 3629   8.066  13.098  12.390 -0.3314 -1.2622  0.1120
28673SOL    HW2 3630   8.019  13.024  12.514 -0.1330 -0.3482  0.7480
28674SOL     OW 3631  12.082   0.732  12.119  0.4543 -0.2854  0.0933
28674SOL    HW1 3632  11.988   0.745  12.135  0.2993  0.3216 -1.1243
28674SOL    HW2 3633  12.124   0.807  12.162  0.3429 -0.3280  0.2788
28675SOL     OW 3634  10.244   1.661  10.318  0.0708  0.0002  0.1415
28675SOL    HW1 3635  10.186   1.590  10.288 -0.2128  0.1750  0.2725
28675SOL    HW2 3636  10.296   1.683  10.241 -0.6258  0.4182 -0.2216
28676SOL     OW 3637   0.485  12.315   0.992  0.1613 -0.0361  0.0522
28676SOL    HW1 3638   0.453  12.320   0.902  0.2302 -0.9019 -0.0293
28676SOL    HW2 3639   0.484  12.405   1.023  0.8134  0.3619 -1.0487
28677SOL     OW 3640  11.052  13.371   5.314  0.0455 -0.5938  0.0992
28677SOL    HW1 3641  11.080  13.313   5.243 -1.6168 -1.4463  0.0835
28677SOL    HW2 3642  10.960  13.389   5.295  0.0119  0.4838  1.1704
28678SOL     OW 3643   3.502   3.287  13.355 -0.1407 -0.9398 -0.7695
28678SOL    HW1 3644   3.461   3.361  13.400 -1.2825 -0.7591 -2.0466
28678SOL    HW2 3645   3.428   3.232  13.328  0.7000 -2.8019  0.5215
28679SOL     OW 3646  10.506   9.202   2.417 -0.4187  0.0141  0.2138
28679SOL    HW1 3647  10.541   9.238   2.336 -0.9044  0.5008  0.2178
28679SOL    HW2 3648  10.460   9.122   2.390  0.3864 -0.4364  0.1629
28680SOL     OW 3649   1.430  12.736   6.759  0.3877 -0.2206 -0.4183
28680SOL    HW1 3650   1.493  12.704   6.694  0.2888 -1.6264  0.1309
28680SOL    HW2 3651   1.388  12.656   6.792 -2.3875  0.6897 -1.4560
28681SOL     OW 3652   9.281   7.340   2.557  0.0491  0.0922 -0.3335
28681SOL    HW1 3653   9.354   7.312   2.501 -0.6949  0.3307 -1.4570
28681SOL    HW2 3654   9.230   7.260   2.571  0.2024  0.0449 -0.0315
28682SOL     OW 3655  10.441   8.120   4.977 -0.1722 -0.3378  0.5471
28682SOL    HW1 3656  10.501   8.050   4.954  0.5620  0.6081 -0.5548
28682SOL    HW2 3657  10.424   8.165   4.894 -0.3319  1.0080  1.2812
28683SOL     OW 3658   2.491  12.974   4.438  0.3473  0.3553  0.4406
28683SOL    HW1 3659   2.498  12.951   4.531 -0.0755  1.7003  0.8141
28683SOL    HW2 3660   2.509  13.067   4.434 -0.7193  0.5474 -0.6883
28684SOL     OW 3661  11.209   8.720   1.399  0.3394  0.0293  0.5436
28684SOL    HW1 3662  11.296   8.686   1.379  0.0668 -0.2129 -0.2757
28684SOL    HW2 3663  11.154   8.642   1.407  0.0383  0.2113  0.2653
28685SOL     OW 3664  11.892   5.288   0.236 -0.1835 -0.1889 -0.3033
28685SOL    HW1 3665  11.940   5.220   0.284  0.6830  1.3235  1.0506
28685SOL    HW2 3666  11.910   5.269   0.144 -0.6814 -2.2939 -0.0216
28686SOL     OW 3667   0.598  12.083   8.438  0.6250  0.4802 -0.3090
28686SOL    HW1 3668   0.503  12.098   8.430  0.7753  0.6797 -1.9168
28686SOL    HW2 3669   0.628  12.152   8.497 -0.2524  0.2679  0.4151
28687SOL     OW 3670   7.628  13.014   6.053 -0.5078  0.6233  0.4997
28687SOL    HW1 3671   7.552  13.048   6.101 -0.6814 -0.0421  0.7089
28687SOL    HW2 3672   7.688  13.088   6.048 -0.2700  0.5945  2.2087
28688SOL     OW 3673   2.580   0.926  11.782 -0.3176 -0.2738  0.6308
28688SOL    HW1 3674   2.614   0.884  11.703  1.5034 -0.4503  1.4352
28688SOL    HW2 3675   2.535   1.004  11.752 -0.9915 -1.1385 -0.6751
28689SOL     OW 3676   7.653  11.481  12.315 -0.1413 -0.3140 -0.5104
28689SOL    HW1 3677   7.744  11.472  12.344 -1.0201 -2.8385  1.9183
28689SOL    HW2 3678   7.652  11.442  12.227  0.9541 -1.1775 -0.1683
28690SOL     OW 3679   3.903   7.053  13.026  0.2623  0.0645  0.5899
28690SOL    HW1 3680   3.809   7.071  13.030  0.0381 -1.1565  2.1827
28690SOL    HW2 3681   3.945   7.137  13.042 -0.5191  0.7149 -0.5898
28691SOL     OW 3682   2.549   9.223  10.658  0.2777 -0.1251 -0.1586
28691SOL    HW1 3683   2.511   9.184  10.579  0.7717 -2.5601  0.6946
28691SOL    HW2 3684   2.475   9.228  10.719  0.4208 -0.8516  0.0932
28692SOL     OW 3685   0.436  11.696   1.364 -0.5239  0.1130 -0.1250
28692SOL    HW1 3686   0.390  11.780   1.373 -1.3002 -0.0676 -1.9887
28692SOL    HW2 3687   0.500  11.712   1.295 -2.0468 -1.3294 -1.9682
28693SOL     OW 3688   9.996   2.837   7.301 -0.4308  0.0132  0.2810
28693SOL    HW1 3689  10.021   2.775   7.369 -1.5991 -1.3572 -0.4738
28693SOL    HW2 3690  10.037   2.919   7.326  2.7547 -1.4605  0.3301
28694SOL     OW 3691   4.997  12.263   5.208 -0.0077 -0.0902 -0.0525
28694SOL    HW1 3692   4.908  12.275   5.240 -0.1142  0.2008 -0.4561
28694SOL    HW2 3693   4.997  12.300   5.120  0.4267 -0.3916 -0.1841
28695SOL     OW 3694   4.202  10.138  13.742 -0.3342 -0.2896  0.3433
28695SOL    HW1 3695   4.119  10.093  13.761  0.5895 -1.8645  0.8608
28695SOL    HW2 3696   4.266  10.067  13.736  1.2565  1.0019  1.4616
28696SOL     OW 3697   0.890   6.194   5.360  0.1370  0.3982  0.1982
28696SOL    HW1 3698   0.823   6.190   5.291 -0.8681 -1.6388  1.1936
28696SOL    HW2 3699   0.860   6.264   5.418  1.1293  2.3170 -1.4766
28697SOL     OW 3700   1.984   3.936  10.738 -0.0392 -0.2273  0.2374
28697SOL    HW1 3701   1.971   3.901  10.650  1.1693 -0.0653 -0.0232
28697SOL    HW2 3702   2.062   3.891  10.770 -0.7420 -0.6293  1.4201
28698SOL     OW 3703  13.563  13.402   6.604 -0.2671  0.3159 -0.1252
28698SOL    HW1 3704  13.655  13.427   6.611  0.2070 -1.4988  0.7502
28698SOL    HW2 3705  13.533  13.395   6.694 -0.4023 -1.9400 -0.2998
28699SOL     OW 3706   5.014   0.063  10.822 -0.2132 -0.0537  0.2504
28699SOL    HW1 3707   5.103   0.068  10.787 -0.4381 -1.8980 -0.6872
28699SOL    HW2 3708   4.963   0.124  10.768  0.1849 -0.0589 -0.1333
28700SOL     OW 3709   3.906  12.268  13.650 -0.3588 -0.3692 -0.5637
28700SOL    HW1 3710   3.984  12.284  13.704 -1.0583 -1.1444  0.7245
28700SOL    HW2 3711   3.869  12.187  13.685 -1.7998  0.0329 -1.0791
28701SOL     OW 3712   4.599   3.870   5.471 -0.4463 -0.2498  0.6489
28701SOL    HW1 3713   4.577   3.927   5.397 -0.5319 -0.5247  0.4606
28701SOL    HW2 3714   4.532   3.890   5.537  0.0515  0.5074  0.9284
28702SOL     OW 3715  13.871  13.304  12.416  0.2788 -0.3560  0.5681
28702SOL    HW1 3716  13.923  13.233  12.456 -2.0257 -2.0138  0.8596
28702SOL    HW2 3717  13.788  13.302  12.464  0.2412  2.8831  0.8388
28703SOL     OW 3718  11.124   8.702   2.006 -0.4834 -1.1034 -0.1358
28703SOL    HW1 3719  11.038   8.712   1.965 -0.1049  1.8001 -0.4511
28703SOL    HW2 3720  11.108   8.716   2.099 -0.1900  1.4077 -0.3931
28704SOL     OW 3721   6.481  11.193   0.092 -0.3821 -0.5816  0.2925
28704SOL    HW1 3722   6.489  11.108   0.048  1.1263 -0.5660  0.4654
28704SOL    HW2 3723   6.571  11.215   0.117 -0.8941  0.5719  1.2002
28705SOL     OW 3724   9.950   7.034   1.542 -0.0999  0.0286 -0.4357
28705SOL    HW1 3725   9.947   7.120   1.500  2.8089  1.6649  2.2264
28705SOL    HW2 3726   9.901   7.046   1.623  0.5247 -0.7231  0.0662
28706SOL     OW 3727   0.220   1.399  13.483  0.2739 -0.1218  0.0387
28706SOL    HW1 3728   0.183   1.319  13.446  1.9451  0.0897 -2.3120
28706SOL    HW2 3729   0.150   1.435  13.537 -0.7700 -2.7759  0.6052
28707SOL     OW 3730   3.190   3.772   9.607  0.2039  0.7672 -0.3573
28707SOL    HW1 3731   3.285   3.771   9.615  0.2109 -1.5405 -0.0668
28707SOL    HW2 3732   3.173   3.830   9.532  1.8494  0.8083 -0.7351
28708SOL     OW 3733   1.325   2.139   4.960 -0.4131 -0.0047  0.4676
28708SOL    HW1 3734   1.262   2.095   4.903  0.1109 -1.4897  0.9610
28708SOL    HW2 3735   1.375   2.196   4.902  0.2614 -1.6585 -0.6434
28709SOL     OW 3736   9.683   5.362   6.166 -0.4231  0.5605  0.0954
28709SOL    HW1 3737   9.743   5.326   6.231  1.2704  0.2483 -1.5567
28709SOL    HW2 3738   9.707   5.455   6.159 -0.5869  0.5915 -0.0943
28710SOL     OW 3739   5.471   3.973  12.632  0.3261 -0.5586 -0.2502
28710SOL    HW1 3740   5.460   3.994  12.540  0.9775 -1.5539 -0.5740
28710SOL    HW2 3741   5.431   3.887  12.643 -2.0147  0.5845  0.9746
28711SOL     OW 3742   7.248   1.644   1.286 -0.5908 -0.3186 -0.0397
28711SOL    HW1 3743   7.288   1.590   1.354 -0.0449  0.5551  0.3450
28711SOL    HW2 3744   7.198   1.709   1.334  0.9018  1.1600 -0.4106
28712SOL     OW 3745  13.193   1.384   3.098  0.1166 -0.3396 -0.2955
28712SOL    HW1 3746  13.232   1.452   3.043  1.2825 -0.6752  0.0928
28712SOL    HW2 3747  13.121   1.429   3.143  0.4669  0.4745 -0.5184
28713SOL     OW 3748   7.593   8.136   1.426 -0.5519  0.8187  0.0509
28713SOL    HW1 3749   7.661   8.141   1.493 -0.4956 -0.6217  0.1472
28713SOL    HW2 3750   7.640   8.117   1.345 -0.7721  0.6287 -0.0332
28714SOL     OW 3751   0.419   6.623   8.041  0.0148 -0.1781 -0.7929
28714SOL    HW1 3752   0.370   6.677   8.104 -0.3817  0.9940 -2.0549
28714SOL    HW2 3753   0.456   6.687   7.979  1.7197 -1.1749 -0.8580
28715SOL     OW 3754   9.068   0.542   2.899 -0.1968 -0.1281  0.0044
28715SOL    HW1 3755   9.084   0.453   2.870  0.5251 -0.2239  0.6675
28715SOL    HW2 3756   8.985   0.566   2.858 -0.2635 -1.0061 -0.3920
28716SOL     OW 3757  13.044  13.103   6.339  0.0628  0.2973 -0.1226
28716SOL    HW1 3758  13.107  13.076   6.273  1.0754 -1.5585  1.4938
28716SOL    HW2 3759  13.064  13.196   6.354  2.2034 -0.1380  0.0596
28717SOL     OW 3760   7.319   7.400   1.551 -0.0137 -0.1221  0.0358
28717SOL    HW1 3761   7.410   7.416   1.525  0.2517 -2.6485 -0.8486
28717SOL    HW2 3762   7.279   7.487   1.550  2.4015  1.1004  0.6297
28718SOL     OW 3763   3.801   6.824  12.887  0.3044 -0.6743  0.0735
28718SOL    HW1 3764   3.803   6.905  12.837 -0.0449 -1.1938 -0.8104
28718SOL    HW2 3765   3.883   6.824  12.936  0.7438 -0.2232 -0.6334
28719SOL     OW 3766   0.463   8.599   4.131 -0.2279 -0.0997  0.4483
28719SOL    HW1 3767   0.437   8.684   4.095  0.3744  0.3582  1.0503
28719SOL    HW2 3768   0.443   8.536   4.062  1.9051  0.8684 -1.1573
28720SOL     OW 3769   0.715   3.171   9.087 -0.5714  0.7292  0.0371
28720SOL    HW1 3770   0.793   3.123   9.058 -0.7937  1.0299 -1.1153
28720SOL    HW2 3771   0.750   3.243   9.139 -0.1280  0.4259  0.1732
28721SOL     OW 3772   8.256   4.355  10.287 -0.2525  0.5086 -0.4684
28721SOL    HW1 3773   8.266   4.351  10.192  0.0201 -0.7707 -0.4084
28721SOL    HW2 3774   8.176   4.406  10.301  0.1261  1.3761 -1.3426
28722SOL     OW 3775   5.408   0.039  11.861 -0.1935 -0.6254  0.8028
28722SOL    HW1 3776   5.350   0.060  11.934 -0.5757 -0.8782  0.5781
28722SOL    HW2 3777   5.385  -0.051  11.837  0.6984 -0.9393  1.0773
28723SOL     OW 3778  11.160  13.877   2.707  0.4911  0.1624  0.3346
28723SOL    HW1 3779  11.073  13.911   2.725 -0.0065  1.0767 -3.0100
28723SOL    HW2 3780  11.199  13.942   2.648  3.1643 -0.6110  1.1099
28724SOL     OW 3781   2.402   6.312   9.850 -0.1635  0.3187 -0.0698
28724SOL    HW1 3782   2.438   6.237   9.898 -0.2123  1.9132  2.7156
28724SOL    HW2 3783   2.331   6.344   9.906 -0.2372  2.3367 -1.2038
28725SOL     OW 3784  12.540   4.264   6.918 -0.3795 -0.0309 -0.1362
28725SOL    HW1 3785  12.560   4.199   6.985 -1.7319  0.9125  1.2513
28725SOL    HW2 3786  12.446   4.280   6.927 -0.7709 -0.3222 -2.7229
28726SOL     OW 3787  12.165  12.960   9.816  0.6538 -0.0656  0.2570
28726SOL    HW1 3788  12.098  12.901   9.784 -0.9024  2.1062 -0.7747
28726SOL    HW2 3789  12.146  12.969   9.910 -0.0993 -0.0089  0.1065
28727SOL     OW 3790  13.847   4.955  12.494 -0.3084 -0.1047  0.1317
28727SOL    HW1 3791  13.934   4.959  12.534 -0.5494  0.0325  0.6535
28727SOL    HW2 3792  13.830   5.045  12.465 -0.5852  0.0381  0.7140
28728SOL     OW 3793   1.664   3.535  11.393 -0.0726  0.3657 -0.1401
28728SOL    HW1 3794   1.744   3.566  11.435 -0.0845  2.0254 -1.2485
28728SOL    HW2 3795   1.640   3.456  11.441  2.7461 -0.7282 -0.3649
28729SOL     OW 3796  11.416   4.283  13.731  0.1156  0.2706  1.0974
28729SOL    HW1 3797  11.441   4.307  13.821  2.2436 -1.4480  1.0599
28729SOL    HW2 3798  11.481   4.327  13.676  0.8468 -1.2547  0.6841
28730SOL     OW 3799   6.873   3.803   7.316  0.0399  0.0538 -0.4286
28730SOL    HW1 3800   6.965   3.826   7.301 -0.1900  0.3400 -1.4350
28730SOL    HW2 3801   6.870   3.779   7.409  0.8081  1.5689  0.0214
28731SOL     OW 3802  13.419   2.397  11.791 -0.5124 -0.3738  0.4750
28731SOL    HW1 3803  13.355   2.425  11.857 -1.0518 -2.1336  0.7619
28731SOL    HW2 3804  13.371   2.401  11.709 -0.2810  0.4421  0.3686
28732SOL     OW 3805   3.859  11.807   8.290 -0.2175 -0.0098  0.4492
28732SOL    HW1 3806   3.769  11.840   8.288 -0.1220  0.3328  1.2238
28732SOL    HW2 3807   3.881  11.791   8.199 -1.4151 -1.0620  0.3294
28733SOL     OW 3808  12.745   5.546   4.329 -0.1654  0.2008 -0.1993
28733SOL    HW1 3809  12.687   5.474   4.351 -0.4813  0.7238  0.7133
28733SOL    HW2 3810  12.832   5.507   4.327 -0.5217 -0.6135 -1.6757
28734SOL     OW 3811  12.136  11.318   9.823  0.3904  0.3003 -0.6288
28734SOL    HW1 3812  12.048  11.325   9.860  0.4923 -0.1431 -0.3046
28734SOL    HW2 3813  12.126  11.346   9.732  0.1386  1.3933 -0.2823
28735SOL     OW 3814   7.293  10.551   7.762  0.0590  0.7129  0.6438
28735SOL    HW1 3815   7.198  10.559   7.771 -0.0746 -0.8620  0.7797
28735SOL    HW2 3816   7.308  10.458   7.745  1.5192  1.0670 -0.1392
28736SOL     OW 3817  10.183   6.882   4.047  0.3030  0.0964  0.4476
28736SOL    HW1 3818  10.150   6.967   4.020  1.5315  0.1913 -0.8717
28736SOL    HW2 3819  10.188   6.831   3.966  1.7444 -0.4433  0.8422
28737SOL     OW 3820  11.910   0.796   7.603  0.0524  0.3644 -0.1896
28737SOL    HW1 3821  11.990   0.802   7.655 -0.3076  0.0621  0.4063
28737SOL    HW2 3822  11.939   0.759   7.519  0.4538 -0.2315  0.2040
28738SOL     OW 3823  13.248   4.526   2.764  0.3051  0.3226  0.1944
28738SOL    HW1 3824  13.233   4.556   2.854  1.8113  1.5806  0.0778
28738SOL    HW2 3825  13.177   4.566   2.714 -1.0446 -1.0883  0.9265
28739SOL     OW 3826   6.748   7.769   6.313  0.1108  0.3221  0.5824
28739SOL    HW1 3827   6.731   7.821   6.235 -0.5193  0.5979  0.8938
28739SOL    HW2 3828   6.702   7.687   6.298  1.2106 -0.2057  0.0357
28740SOL     OW 3829   0.980   2.453   0.484  0.3876 -0.6615 -0.0368
28740SOL    HW1 3830   0.990   2.413   0.398 -0.2067 -1.0243  0.0554
28740SOL    HW2 3831   0.955   2.381   0.542  1.0201 -0.4693  0.4959
28741SOL     OW 3832   9.425  12.031   1.169 -0.2882 -0.1697 -0.6004
28741SOL    HW1 3833   9.393  12.112   1.208 -0.7204 -0.1631 -0.9712
28741SOL    HW2 3834   9.406  12.040   1.076 -0.6241 -0.8308 -0.6000
28742SOL     OW 3835   2.618   9.726   4.081 -0.0860  0.0547 -0.0184
28742SOL    HW1 3836   2.541   9.670   4.070 -0.9512  0.8062  1.8419
28742SOL    HW2 3837   2.688   9.667   4.109 -0.6541 -0.2858  0.6993
28743SOL     OW 3838   9.373   4.280   8.973 -0.2937  0.2761  0.4735
28743SOL    HW1 3839   9.285   4.311   8.952 -0.9451 -0.8230  1.4781
28743SOL    HW2 3840   9.401   4.232   8.895 -0.7585  0.2593  0.3186
28744SOL     OW 3841  10.905  11.795  10.757 -0.1802 -0.3632  0.1398
28744SOL    HW1 3842  10.866  11.788  10.844  0.0732 -1.2503  0.1958
28744SOL    HW2 3843  10.995  11.764  10.769  0.3477  0.9958 -0.1216
28745SOL     OW 3844  10.607  10.940   7.207  0.5938  0.6463  0.8737
28745SOL    HW1 3845  10.691  10.976   7.180 -0.3398  2.3870  0.0600
28745SOL    HW2 3846  10.555  10.937   7.126 -0.2843  0.1095  1.4380
28746SOL     OW 3847   8.048  11.497   0.474  0.0008 -0.1356  0.1873
28746SOL    HW1 3848   8.053  11.402   0.457 -1.0294 -0.2529  0.4730
28746SOL    HW2 3849   8.110  11.512   0.545  1.4698 -0.2900 -1.0188
28747SOL     OW 3850   4.779   0.702   8.739 -0.1055  0.0571  0.3554
28747SOL    HW1 3851   4.751   0.621   8.782 -0.0073 -0.2221 -0.1014
28747SOL    HW2 3852   4.841   0.674   8.672 -1.0215  0.3752 -0.6537
28748SOL     OW 3853   4.071   6.344   0.229 -0.0389 -0.5461  0.0661
28748SOL    HW1 3854   4.079   6.392   0.312  1.2255 -1.9304  0.7982
28748SOL    HW2 3855   4.066   6.252   0.255  0.1825 -0.9901 -1.3847
28749SOL     OW 3856  13.583   0.835   2.619 -0.5074 -0.4586 -0.1766
28749SOL    HW1 3857  13.557   0.754   2.663  0.2596 -0.7401 -0.2386
28749SOL    HW2 3858  13.550   0.904   2.676 -0.3533 -0.8159  0.3568
28750SOL     OW 3859   1.835   3.453  13.211  0.3384  0.1552 -0.2573
28750SOL    HW1 3860   1.905   3.422  13.154  0.5890  0.7470 -0.2740
28750SOL    HW2 3861   1.755   3.418  13.172  0.4398  1.0974 -1.3475
28751SOL     OW 3862   7.916   1.940  11.097  0.5355  0.2699 -0.0860
28751SOL    HW1 3863   7.874   1.936  11.011 -0.0615  1.2719  0.1412
28751SOL    HW2 3864   7.979   1.868  11.096  0.3295  0.0802 -1.2473
28752SOL     OW 3865  11.929   1.535   0.853 -0.4828 -0.8638 -0.6272
28752SOL    HW1 3866  11.996   1.604   0.850  0.0639 -1.0825  2.6634
28752SOL    HW2 3867  11.975   1.456   0.824  0.2393 -0.7071  0.0633
28753SOL     OW 3868   4.238  11.414   2.563  0.2221  0.4139  0.3133
28753SOL    HW1 3869   4.295  11.436   2.636 -1.6929  4.4973  0.8695
28753SOL    HW2 3870   4.172  11.356   2.601  0.3176  0.9784  1.3786
28754SOL     OW 3871   8.775  12.453   3.499  0.8035  0.0070 -0.9452
28754SOL    HW1 3872   8.859  12.408   3.505  0.7815 -0.0915 -1.3070
28754SOL    HW2 3873   8.719  12.393   3.450  0.5572  0.1225 -0.8101
28755SOL     OW 3874  12.758  10.500  12.940 -0.5620  0.5231  0.3132
28755SOL    HW1 3875  12.710  10.507  12.858 -1.9796 -1.6650  0.8634
28755SOL    HW2 3876  12.751  10.587  12.980 -2.1054  0.8989 -0.7016
28756SOL     OW 3877   6.316  10.641   4.160 -0.1991  0.3593  0.3114
28756SOL    HW1 3878   6.290  10.727   4.195  0.3621 -0.0501  1.8395
28756SOL    HW2 3879   6.302  10.581   4.233 -1.6706 -1.0829 -1.1008
28757SOL     OW 3880   8.261   0.941  13.564  0.3108  0.5718  0.0724
28757SOL    HW1 3881   8.237   0.957  13.472  1.8210 -0.4644 -0.5510
28757SOL    HW2 3882   8.309   1.019  13.591 -0.1594  0.8905 -0.0027
28758SOL     OW 3883  12.717  11.191   2.477 -0.0477  0.8869  0.4304
28758SOL    HW1 3884  12.683  11.192   2.387 -0.5202  0.4728  0.6014
28758SOL    HW2 3885  12.778  11.118   2.478 -0.0618  0.8761  0.4534
28759SOL     OW 3886  12.756   0.247  10.129 -0.5955  0.0959 -0.1298
28759SOL    HW1 3887  12.747   0.342  10.141  1.3746  0.2366  0.5936
28759SOL    HW2 3888  12.790   0.238  10.040  0.0009  0.1390  0.0891
28760SOL     OW 3889  12.053  11.798   5.425 -0.0647  0.0112  0.1483
28760SOL    HW1 3890  11.985  11.866   5.419 -0.5959 -0.5395 -0.1521
28760SOL    HW2 3891  12.120  11.827   5.363  0.5140  1.1285  1.2305
28761SOL     OW 3892   0.477   1.170  10.944  0.7445  0.0095  0.4443
28761SOL    HW1 3893   0.424   1.098  10.979  1.7869 -0.6829  0.6292
28761SOL    HW2 3894   0.451   1.246  10.996 -0.9242 -0.0400 -0.2572
28762SOL     OW 3895   9.347   5.979  10.041  0.8305  0.1110  0.2310
28762SOL    HW1 3896   9.272   5.971   9.982  2.0456  1.1907 -1.5651
28762SOL    HW2 3897   9.331   5.915  10.111 -1.3024 -0.2870 -0.5669
28763SOL     OW 3898   7.582  10.552   4.974  0.3773 -0.4436  0.0016
28763SOL    HW1 3899   7.560  10.594   5.057 -0.5825 -0.6510 -0.1336
28763SOL    HW2 3900   7.654  10.604   4.939  0.8606 -0.4147  1.0120
28764SOL     OW 3901  13.377   9.150   2.141 -0.5526  0.4245  0.7625
28764SOL    HW1 3902  13.432   9.209   2.192  0.1823  0.0543  0.4147
28764SOL    HW2 3903  13.399   9.168   2.050 -1.4973  0.7316  0.5773
28765SOL     OW 3904  11.078   4.960  10.662 -0.0639  0.3827 -0.0596
28765SOL    HW1 3905  11.096   5.005  10.745  1.8379  0.5110 -0.4819
28765SOL    HW2 3906  11.120   5.016  10.595  0.8380 -1.0900 -0.7815
28766SOL     OW 3907  11.525   3.327   5.695  0.3913 -0.0336  0.0788
28766SOL    HW1 3908  11.618   3.307   5.708  1.4846  4.0531 -0.2616
28766SOL    HW2 3909  11.520   3.364   5.607 -1.3307  0.9280  0.5321
28767SOL     OW 3910  13.930   9.654   9.710 -0.0035 -0.1960  0.4880
28767SOL    HW1 3911  14.007   9.685   9.661 -0.9067  0.7668 -0.3933
28767SOL    HW2 3912  13.909   9.570   9.670  0.2142 -0.1652  0.3029
28768SOL     OW 3913   6.645   0.542   0.898  0.4036  0.2627  0.5657
28768SOL    HW1 3914   6.698   0.477   0.851  0.2914  0.7670 -0.2814
28768SOL    HW2 3915   6.632   0.504   0.985 -0.8873 -1.5337 -0.3553
28769SOL     OW 3916  13.312  10.363   3.427  0.0147 -0.0055 -0.0053
28769SOL    HW1 3917  13.348  10.333   3.343 -0.8488  0.0734 -0.4152
28769SOL    HW2 3918  13.374  10.429   3.458  0.8202 -0.6931 -0.1328
28770SOL     OW 3919  11.512   3.419   8.137  0.6197  0.7119 -0.0513
28770SOL    HW1 3920  11.463   3.497   8.161  0.4791  0.3741  0.7926
28770SOL    HW2 3921  11.602   3.449   8.126  0.3474  1.2200 -0.9942
28771SOL     OW 3922   4.508   3.837   2.013 -0.0721 -0.7148  0.1861
28771SOL    HW1 3923   4.560   3.881   2.080  1.5431 -2.2631  0.0294
28771SOL    HW2 3924   4.527   3.884   1.932 -0.8433  0.2154  0.5235
28772SOL     OW 3925   5.449   3.040  13.657 -0.0674  0.4156 -0.3605
28772SOL    HW1 3926   5.416   3.130  13.655  0.5370  0.6707  0.3868
28772SOL    HW2 3927   5.534   3.047  13.701 -0.3686 -0.6300  0.4268
28773SOL     OW 3928   9.395   1.308   0.926 -0.3130 -0.3615 -0.1799
28773SOL    HW1 3929   9.392   1.235   0.988  1.0581  0.1546  0.5303
28773SOL    HW2 3930   9.469   1.288   0.869 -1.4300 -0.7233 -1.5724
28774SOL     OW 3931   6.095   2.824  12.057  0.0524 -0.3625  0.0810
28774SOL    HW1 3932   6.136   2.883  12.120 -0.9185  0.2028  0.1950
28774SOL    HW2 3933   6.017   2.871  12.026  0.9000 -0.2809 -2.1422
28775SOL     OW 3934   9.884   8.598  12.568 -0.1557 -0.0830  0.1556
28775SOL    HW1 3935   9.791   8.610  12.551  0.1721  1.2695 -0.8927
28775SOL    HW2 3936   9.896   8.626  12.659 -0.4619  1.8032 -0.3359
28776SOL     OW 3937   3.281   7.855  12.439 -0.1001  0.0294 -0.5814
28776SOL    HW1 3938   3.355   7.869  12.381  0.8135  0.8310  0.7356
28776SOL    HW2 3939   3.319   7.819  12.519 -1.2750 -0.6357 -0.2979
28777SOL     OW 3940   5.383   2.861   4.228  0.0434  0.0834 -0.0469
28777SOL    HW1 3941   5.302   2.914   4.223  1.0103  1.5714 -0.6965
28777SOL    HW2 3942   5.380   2.805   4.151  0.3071  1.1929 -0.8901
28778SOL     OW 3943   5.058   6.854   4.502  0.1121  0.2000 -0.1040
28778SOL    HW1 3944   5.145   6.828   4.474 -0.2720  0.1861 -1.3722
28778SOL    HW2 3945   5.037   6.930   4.446 -0.6967  0.1723  0.1503
28779SOL     OW 3946   2.561   1.313   3.764  0.1478 -0.4146  0.0489
28779SOL    HW1 3947   2.591   1.392   3.718 -0.6680 -1.4774 -2.4898
28779SOL    HW2 3948   2.498   1.345   3.829  2.1393  1.2619  1.2968
28780SOL     OW 3949   7.987  11.593   9.453 -0.0589  0.1577  0.4248
28780SOL    HW1 3950   8.036  11.638   9.383 -0.9652 -0.0585 -0.3709
28780SOL    HW2 3951   7.978  11.503   9.422  0.4211 -0.2124  1.3143
28781SOL     OW 3952   1.057   8.092   9.895  0.7256 -0.0787  0.1907
28781SOL    HW1 3953   1.021   8.142   9.968  2.6245  1.0428  0.4532
28781SOL    HW2 3954   1.137   8.052   9.931  0.0459 -2.1066 -0.4487
28782SOL     OW 3955   1.263   0.495  12.968 -0.1370  0.0123 -0.8118
28782SOL    HW1 3956   1.267   0.403  12.994 -1.8232  0.8011  2.8723
28782SOL    HW2 3957   1.170   0.511  12.952  0.1525  1.0580 -1.5874
28783SOL     OW 3958   0.539   3.097   8.873  0.2369  0.3805  0.2369
28783SOL    HW1 3959   0.485   3.177   8.871 -1.4749 -0.7302 -1.1157
28783SOL    HW2 3960   0.604   3.114   8.941  0.0367  2.9789 -0.0996
28784SOL     OW 3961  11.655  13.288   1.864 -0.1284  0.2784  0.5554
28784SOL    HW1 3962  11.655  13.220   1.931 -1.5437  0.6219  0.9311
28784SOL    HW2 3963  11.624  13.245   1.785  0.6765  0.0912  0.3263
28785SOL     OW 3964  12.342   5.073   6.844  0.3731  0.2000 -0.4597
28785SOL    HW1 3965  12.402   5.070   6.919 -1.2590 -1.4016  0.8852
28785SOL    HW2 3966  12.272   5.131   6.872  0.7413  1.2526 -1.6208
28786SOL     OW 3967  12.827   2.545  12.584  0.6044  0.5873 -0.2094
28786SOL    HW1 3968  12.770   2.592  12.523  0.1955 -0.0503 -0.3261
28786SOL    HW2 3969  12.814   2.589  12.668  1.5672  1.8065 -0.6704
28787SOL     OW 3970   4.201   7.112   6.574 -0.3565  0.1088  0.1870
28787SOL    HW1 3971   4.199   7.206   6.555 -1.0544 -0.3002 -1.9243
28787SOL    HW2 3972   4.160   7.105   6.660  1.1322  1.8563  1.1431
28788SOL     OW 3973  12.113  11.039   0.950 -0.0522 -0.5958  0.2605
28788SOL    HW1 3974  12.069  10.953   0.949 -0.3263 -0.4557 -0.0293
28788SOL    HW2 3975  12.165  11.040   0.870  1.0590 -1.0440  0.9455
28789SOL     OW 3976  13.027   1.948   5.333 -0.6464 -0.2764 -1.0362
28789SOL    HW1 3977  13.015   1.900   5.415 -0.2954 -0.0382 -0.8399
28789SOL    HW2 3978  12.943   1.989   5.317  0.0696  2.1334  0.7964
28790SOL     OW 3979   0.148   6.075   5.570  0.8242 -0.5164  0.1594
28790SOL    HW1 3980   0.167   6.128   5.493 -0.3516 -2.4204 -1.5610
28790SOL    HW2 3981   0.233   6.052   5.606  1.3549  1.9746  0.6233
28791SOL     OW 3982   1.635   6.077   7.676  0.5121  0.1517  0.3983
28791SOL    HW1 3983   1.705   6.102   7.735  1.1256  1.1314 -0.6885
28791SOL    HW2 3984   1.574   6.151   7.678  1.1472  0.7709 -1.0506
28792SOL     OW 3985   4.621   7.045  12.662 -0.3202  0.5002 -0.3368
28792SOL    HW1 3986   4.576   7.022  12.743  0.1685  1.5753  0.2668
28792SOL    HW2 3987   4.670   7.124  12.684  0.0685  0.6296 -1.6017
28793SOL     OW 3988   0.118   3.780   5.089  0.7228  0.2698  0.0642
28793SOL    HW1 3989   0.211   3.797   5.077  0.6243  0.2849 -0.7291
28793SOL    HW2 3990   0.074   3.861   5.064  0.4176 -0.2078 -1.0041
28794SOL     OW 3991   1.830  13.430   5.790  0.3400 -0.0811  0.1271
28794SOL    HW1 3992   1.780  13.449   5.869 -3.4209 -0.6489 -1.9070
28794SOL    HW2 3993   1.817  13.336   5.776 -0.7445  0.3373 -2.1101
28795SOL     OW 3994   0.166  11.516   4.236 -0.6490  0.0318  0.0295
28795SOL    HW1 3995   0.108  11.484   4.305 -0.7277 -0.5704 -0.3050
28795SOL    HW2 3996   0.197  11.436   4.192 -0.2013  0.3840 -0.3031
28796SOL     OW 3997   6.711   9.032  13.712 -0.6583  0.1090 -0.6997
28796SOL    HW1 3998   6.635   8.998  13.760  0.0667  2.5385  2.4967
28796SOL    HW2 3999   6.786   8.992  13.755 -0.0284  0.5535 -1.3798
28797SOL     OW 4000   2.322  11.204   7.669 -0.8167 -0.3068 -0.1419
28797SOL    HW1 4001   2.261  11.229   7.739 -2.7691 -0.9739 -1.5269
28797SOL    HW2 4002   2.343  11.286   7.625  0.0696  0.0540  0.9018
28798SOL     OW 4003   3.267   5.832   3.748 -0.0447 -0.3299  0.3358
28798SOL    HW1 4004   3.325   5.903   3.778 -1.9481  1.0332  0.9508
28798SOL    HW2 4005   3.291   5.818   3.657  0.3547  1.1494  0.1907
28799SOL     OW 4006   6.578   5.855   3.738  0.4870  0.7821 -0.5615
28799SOL    HW1 4007   6.587   5.761   3.754  2.1894  1.1173  0.5944
28799SOL    HW2 4008   6.568   5.894   3.824 -2.8914  1.5082 -1.1152
28800SOL     OW 4009   3.376   8.042  10.443 -0.2095  0.0966  0.7948
28800SOL    HW1 4010   3.334   8.127  10.431 -0.2288 -0.1050 -0.7083
28800SOL    HW2 4011   3.470   8.061  10.440 -0.2109  0.1150  0.8613
28801SOL     OW 4012   3.792   1.361   1.870 -0.2110 -1.0782 -0.2445
28801SOL    HW1 4013   3.830   1.434   1.821  1.7346 -1.9209 -0.0925
28801SOL    HW2 4014   3.804   1.285   1.812  0.9662 -1.8595  0.9568
28802SOL     OW 4015   0.271   9.214   7.185  0.1918 -0.2590 -0.7452
28802SOL    HW1 4016   0.344   9.273   7.203 -0.2599  0.3414 -0.8924
28802SOL    HW2 4017   0.313   9.132   7.158  0.8328 -0.2944  0.3194
28803SOL     OW 4018   4.651  11.123   1.773 -0.5566 -0.4769  0.0134
28803SOL    HW1 4019   4.597  11.082   1.841 -0.9878 -1.1508 -0.7223
28803SOL    HW2 4020   4.589  11.142   1.702  0.2068 -1.4834 -0.9453
28804SOL     OW 4021   8.892  10.074   1.430  0.1305 -0.3713  0.6220
28804SOL    HW1 4022   8.907  10.120   1.348 -1.3320 -0.2081  0.4216
28804SOL    HW2 4023   8.798  10.054   1.430  0.2459 -1.0324  1.9072
28805SOL     OW 4024   5.717   4.352   4.764  0.3625  0.5502 -0.1579
28805SOL    HW1 4025   5.695   4.378   4.675  0.7885  0.0007 -0.4301
28805SOL    HW2 4026   5.636   4.362   4.813 -0.1017  0.0220 -0.8021
28806SOL     OW 4027   9.013   4.081   6.261  0.0483  0.2014  0.2604
28806SOL    HW1 4028   9.102   4.046   6.273  0.8590  1.5399 -1.3604
28806SOL    HW2 4029   8.963   4.046   6.335  2.4420  1.1085  2.4829
28807SOL     OW 4030  10.314  12.759   7.104 -0.2004 -0.6433  0.6588
28807SOL    HW1 4031  10.366  12.691   7.147 -0.6774 -0.2537  1.8875
28807SOL    HW2 4032  10.276  12.716   7.028  1.6505 -1.0239 -0.1163
28808SOL     OW 4033  10.992   2.678  10.084  0.6547 -0.0819  0.2587
28808SOL    HW1 4034  11.026   2.607  10.138 -1.5700 -0.6466  1.0470
28808SOL    HW2 4035  10.939   2.731  10.144  0.3154  0.8408 -0.8166
28809SOL     OW 4036  11.680   9.446   0.668  0.4330 -0.1712  0.4169
28809SOL    HW1 4037  11.587   9.459   0.685  0.3474  0.4022 -0.4049
28809SOL    HW2 4038  11.685   9.361   0.625  0.2308 -0.0099  0.0698
28810SOL     OW 4039   7.804  13.441  12.202  0.3581  0.5055 -0.1172
28810SOL    HW1 4040   7.878  13.470  12.149  1.6381  1.3547  1.9647
28810SOL    HW2 4041   7.817  13.347  12.213  0.6419  0.4999 -0.4905
28811SOL     OW 4042   8.606   4.432  10.900 -0.2313  0.4446  0.0636
28811SOL    HW1 4043   8.671   4.501  10.884 -1.6442  1.5008 -1.4488
28811SOL    HW2 4044   8.655   4.351  10.888  0.5179  1.1896 -2.7339
28812SOL     OW 4045   8.662   7.611   3.112  0.1389  0.3906 -0.6940
28812SOL    HW1 4046   8.642   7.673   3.042  0.4678  1.5344  0.2053
28812SOL    HW2 4047   8.577   7.577   3.139  0.0368 -0.4474 -1.9569
28813SOL     OW 4048   2.848   4.050   8.667 -0.7587  0.3476  0.2783
28813SOL    HW1 4049   2.760   4.026   8.638 -1.1275  1.4168  0.5045
28813SOL    HW2 4050   2.893   4.074   8.586 -0.9390  0.6510  0.2691
28814SOL     OW 4051  10.458   0.602   5.835 -0.5112  0.8065  0.5079
28814SOL    HW1 4052  10.369   0.616   5.865 -0.8559  2.2863 -1.0634
28814SOL    HW2 4053  10.451   0.596   5.740  0.8477 -1.0543  0.4581
28815SOL     OW 4054   7.646  10.239   3.633 -0.6850  0.3030  0.6140
28815SOL    HW1 4055   7.571  10.229   3.691  0.2702  0.8539  1.9969
28815SOL    HW2 4056   7.707  10.170   3.661 -0.2885  0.4522  0.1338
28816SOL     OW 4057  13.777  13.361   6.972  0.1351  0.2418  0.3964
28816SOL    HW1 4058  13.743  13.445   6.943  0.7879 -0.0534 -1.3208
28816SOL    HW2 4059  13.865  13.380   7.004  0.3420  0.1960 -0.1378
28817SOL     OW 4060   0.525   5.899   5.711  0.0169  0.1026 -0.2407
28817SOL    HW1 4061   0.499   5.809   5.728  1.0164 -0.7031 -2.5256
28817SOL    HW2 4062   0.449   5.952   5.734  0.0190 -1.0503  2.9214
28818SOL     OW 4063   2.049   3.327   7.490  0.2366  0.5048 -0.8551
28818SOL    HW1 4064   2.100   3.407   7.497  1.8422 -0.5479  0.2732
28818SOL    HW2 4065   2.090   3.279   7.418  0.5279 -0.1180 -0.2894
28819SOL     OW 4066   4.010  13.757  12.029 -0.1023 -0.3283  0.4767
28819SOL    HW1 4067   3.978  13.839  12.068 -0.2780 -0.1837  0.0409
28819SOL    HW2 4068   4.037  13.782  11.940  1.6266 -0.3670  0.9591
28820SOL     OW 4069   3.099   3.026  13.430  0.3061  0.9680  0.3083
28820SOL    HW1 4070   3.068   2.976  13.354  0.3066  1.2795  0.1035
28820SOL    HW2 4071   3.132   3.108  13.393  1.5199  0.5840  0.4944
28821SOL     OW 4072   6.828   6.718   2.480  0.0500 -0.1595 -0.0372
28821SOL    HW1 4073   6.768   6.778   2.435  2.5236  2.0439 -0.6849
28821SOL    HW2 4074   6.872   6.671   2.409 -0.5771 -1.4555  0.4080
28822SOL     OW 4075   3.421   1.499   5.084  0.5115  0.0903 -0.1525
28822SOL    HW1 4076   3.369   1.423   5.110 -0.5964  1.1891  0.9818
28822SOL    HW2 4077   3.484   1.464   5.021 -1.4568 -1.3738 -1.4617
28823SOL     OW 4078   8.274  11.906  12.168  0.6481  0.1717 -0.7458
28823SOL    HW1 4079   8.248  11.852  12.093  0.1092 -0.6362 -0.0054
28823SOL    HW2 4080   8.341  11.965  12.134  1.3258 -1.0361 -1.5657
28824SOL     OW 4081  10.782   8.665   6.509  0.0105  0.1896  0.1851
28824SOL    HW1 4082  10.794   8.703   6.595 -0.1562 -1.0708  0.7859
28824SOL    HW2 4083  10.800   8.736   6.448  1.5712  0.7213  1.2184
28825SOL     OW 4084  10.551   5.464  11.728 -0.5619  0.0083  0.7276
28825SOL    HW1 4085  10.640   5.469  11.762 -0.9290 -0.4691  1.8053
28825SOL    HW2 4086  10.506   5.539  11.768 -0.1401  1.4956 -1.4545
28826SOL     OW 4087   1.040   2.283   4.827 -0.0908  0.0165 -0.4885
28826SOL    HW1 4088   0.947   2.263   4.836  0.3647 -1.3085  2.1421
28826SOL    HW2 4089   1.058   2.346   4.897  0.9638  0.4931 -1.1517
28827SOL     OW 4090   3.988  11.202   0.901 -0.2210  0.6238  0.0713
28827SOL    HW1 4091   3.971  11.164   0.816  0.3889  1.5572 -0.4896
28827SOL    HW2 4092   4.084  11.209   0.906 -0.1838 -0.2917  1.2342
28828SOL     OW 4093  13.741   1.749   8.210  0.0356  0.4698 -0.2147
28828SOL    HW1 4094  13.810   1.774   8.271  1.5901 -0.1240 -1.6523
28828SOL    HW2 4095  13.673   1.816   8.222  0.5581  0.7381  1.6519
28829SOL     OW 4096   2.709   1.944   9.098 -0.3516  0.0298  0.3945
28829SOL    HW1 4097   2.686   1.985   9.182 -1.1459  1.3347 -0.4247
28829SOL    HW2 4098   2.733   1.854   9.121 -2.5683 -0.2802  1.8097
28830SOL     OW 4099   4.986   1.196   4.443  0.3748  0.3262 -0.4663
28830SOL    HW1 4100   4.995   1.165   4.534  2.2088  2.6898  0.2392
28830SOL    HW2 4101   5.005   1.119   4.390 -2.2811 -1.5515  1.0330
28831SOL     OW 4102  11.469   1.757   3.085 -0.2707 -0.2578  0.9299
28831SOL    HW1 4103  11.504   1.822   3.145  1.0652  0.2441 -0.3552
28831SOL    HW2 4104  11.542   1.698   3.066 -0.5731 -0.2463 -0.4155
28832SOL     OW 4105   4.114   6.327  11.019  0.4077 -0.6448  0.5008
28832SOL    HW1 4106   4.046   6.392  11.038  1.1609 -0.1239  1.5171
28832SOL    HW2 4107   4.172   6.331  11.094  3.1371  0.9050 -1.5267
28833SOL     OW 4108   2.238   7.434  11.217 -0.3231  0.5720 -0.1338
28833SOL    HW1 4109   2.168   7.494  11.193 -0.4445  0.0366 -1.2098
28833SOL    HW2 4110   2.280   7.474  11.293 -2.5844  0.2703  1.3554
28834SOL     OW 4111   2.340   5.728   8.027  0.1567  0.4064 -0.4573
28834SOL    HW1 4112   2.271   5.711   8.090  0.2903  0.6302 -0.2479
28834SOL    HW2 4113   2.299   5.785   7.961  0.6763  2.2041  0.7275
28835SOL     OW 4114   2.627  10.842   5.797 -0.2308  0.4702 -0.2715
28835SOL    HW1 4115   2.713  10.875   5.825  0.2750 -0.7006 -0.4031
28835SOL    HW2 4116   2.645  10.794   5.717 -0.9095 -0.3307  0.0479
28836SOL     OW 4117   7.079   6.032   3.677 -0.1004  0.3862  0.1617
28836SOL    HW1 4118   7.164   6.074   3.685 -0.5524  1.4507 -0.4259
28836SOL    HW2 4119   7.040   6.069   3.598  0.1613 -2.4504 -1.4210
28837SOL     OW 4120   7.301  12.129   0.498  0.5173  0.3025 -0.1162
28837SOL    HW1 4121   7.350  12.082   0.566  0.3534  0.9205  0.4446
28837SOL    HW2 4122   7.299  12.220   0.529 -0.7674  0.3386 -0.2486
28838SOL     OW 4123   5.159   6.716   2.740 -0.0182 -0.0177  0.2859
28838SOL    HW1 4124   5.235   6.660   2.753  0.2224  0.6465  2.0584
28838SOL    HW2 4125   5.138   6.708   2.647 -0.0470 -3.0608  0.4502
28839SOL     OW 4126   1.364   4.673   6.519 -0.7938 -0.2169 -0.0229
28839SOL    HW1 4127   1.379   4.640   6.607 -1.2741  0.3419  0.2801
28839SOL    HW2 4128   1.368   4.768   6.528  1.2892 -0.1683 -1.0099
28840SOL     OW 4129   6.112   7.545  13.553  0.4343  0.3639 -0.3030
28840SOL    HW1 4130   6.026   7.513  13.579  0.9703  0.1897  1.4406
28840SOL    HW2 4131   6.095   7.625  13.504 -0.7381 -0.0726 -0.6175
28841SOL     OW 4132   1.621   4.548  11.029 -0.1536  0.3873 -0.0855
28841SOL    HW1 4133   1.576   4.607  11.089  0.4372  0.7807 -0.0228
28841SOL    HW2 4134   1.714   4.573  11.035 -0.0884  0.4597 -1.1842
28842SOL     OW 4135   2.214   3.107   1.540 -0.1203 -0.0596 -0.1113
28842SOL    HW1 4136   2.180   3.080   1.455 -2.1037  1.5121  0.1290
28842SOL    HW2 4137   2.296   3.058   1.549 -1.3192 -2.5335 -1.5808
28843SOL     OW 4138   3.898  10.772  12.150  0.6816 -0.0799  0.2373
28843SOL    HW1 4139   3.918  10.821  12.229 -0.7465 -0.4790  0.8768
28843SOL    HW2 4140   3.982  10.733  12.124  0.9242 -1.1754  2.4058
28844SOL     OW 4141   0.060   1.735   6.303 -0.2743 -0.0182 -0.6952
28844SOL    HW1 4142  -0.020   1.743   6.250 -1.2720 -1.7879  0.4401
28844SOL    HW2 4143   0.104   1.658   6.268 -0.0648 -0.1824 -0.0873
28845SOL     OW 4144  10.808   4.613   6.633 -0.4663 -0.0068 -0.0076
28845SOL    HW1 4145  10.748   4.561   6.687 -0.8607 -0.0516 -0.4758
28845SOL    HW2 4146  10.775   4.702   6.640 -1.4572 -0.2307 -1.3729
28846SOL     OW 4147   1.713   4.740  12.465  0.0806 -0.5086  0.0512
28846SOL    HW1 4148   1.662   4.782  12.396  0.0390  0.4821  0.6608
28846SOL    HW2 4149   1.762   4.671  12.421  1.5903  1.3520 -1.3693
28847SOL     OW 4150   7.001  12.195   0.495  0.1205 -0.2141  0.6163
28847SOL    HW1 4151   7.044  12.267   0.448  1.0246 -1.7337 -1.0616
28847SOL    HW2 4152   6.912  12.225   0.510  0.8373  1.7499  1.1753
28848SOL     OW 4153   2.483   2.151  12.890  0.3539 -0.5268 -0.1463
28848SOL    HW1 4154   2.570   2.150  12.849  0.2107  0.5662 -0.5093
28848SOL    HW2 4155   2.500   2.145  12.983  0.8633  0.2888 -0.1768
28849SOL     OW 4156  11.682   4.025  10.109  0.1189  0.3919  0.4174
28849SOL    HW1 4157  11.667   3.996  10.019  1.1155  1.3405 -0.0809
28849SOL    HW2 4158  11.678   3.945  10.161 -1.2789 -0.0708 -0.3378
28850SOL     OW 4159   1.294   4.233  11.116 -0.2153  0.0548 -0.0382
28850SOL    HW1 4160   1.246   4.196  11.042  1.0195 -0.3220 -0.6772
28850SOL    HW2 4161   1.232   4.229  11.189 -0.2841 -3.1512 -0.1033
28851SOL     OW 4162  13.139   2.451   7.411 -0.6307 -0.1601  0.0377
28851SOL    HW1 4163  13.150   2.474   7.318  0.1316  0.0265  0.1687
28851SOL    HW2 4164  13.196   2.512   7.458 -0.7032 -0.5188  0.5990
28852SOL     OW 4165   1.460   5.428  11.855 -0.5103  0.3330  0.3021
28852SOL    HW1 4166   1.412   5.511  11.853 -4.1584 -1.5173  1.9526
28852SOL    HW2 4167   1.439   5.386  11.771  1.4791  1.0262 -0.6115
28853SOL     OW 4168   6.146   3.591   2.353 -0.9174 -0.4152  0.3652
28853SOL    HW1 4169   6.196   3.515   2.321  0.6348 -0.2245  2.1288
28853SOL    HW2 4170   6.192   3.617   2.434 -0.9551  2.8353 -0.5270
28854SOL     OW 4171  12.480  11.362  13.641 -0.4918  0.2557  0.1832
28854SOL    HW1 4172  12.500  11.418  13.566  1.9807 -0.1674  0.4211
28854SOL    HW2 4173  12.389  11.382  13.663 -1.5677 -0.0764 -3.3068
28855SOL     OW 4174   3.096   6.706   7.201 -0.1047 -0.2160 -0.3934
28855SOL    HW1 4175   3.011   6.747   7.185  0.2781  1.2670  1.1688
28855SOL    HW2 4176   3.128   6.684   7.113 -1.2011  1.0335 -1.1487
28856SOL     OW 4177   6.205   6.379  11.766  0.5925 -0.3119 -0.0349
28856SOL    HW1 4178   6.181   6.402  11.677  2.0203 -0.4066 -0.4673
28856SOL    HW2 4179   6.301   6.378  11.766  0.6156 -0.8412  1.3625
28857SOL     OW 4180   3.369  10.921   0.662  0.3834 -0.0937  0.1482
28857SOL    HW1 4181   3.433  10.988   0.684 -0.8295  1.0879  0.1647
28857SOL    HW2 4182   3.410  10.839   0.690  1.2702  0.7773  1.5173
28858SOL     OW 4183  12.470   0.441   5.304 -0.3367  0.0858 -0.2560
28858SOL    HW1 4184  12.447   0.364   5.357  0.1853  0.1198  0.0286
28858SOL    HW2 4185  12.390   0.461   5.256 -0.2323 -1.1649 -0.9922
28859SOL     OW 4186   0.092  13.999   4.457  0.2107  0.2191  0.4145
28859SOL    HW1 4187   0.147  14.005   4.535 -1.2455  0.6790  1.4401
28859SOL    HW2 4188   0.118  13.916   4.416  1.0567  0.0137  1.3231
28860SOL     OW 4189   4.269  11.388  14.039 -0.1341 -0.2710  0.4604
28860SOL    HW1 4190   4.249  11.452  13.971  1.3509 -1.5314 -1.2843
28860SOL    HW2 4191   4.196  11.326  14.036 -0.2863 -0.0842  0.3089
28861SOL     OW 4192  11.275  10.705   9.154  0.1822  0.0167  0.3737
28861SOL    HW1 4193  11.189  10.745   9.142  0.0058 -0.3617  0.3680
28861SOL    HW2 4194  11.268  10.656   9.236  0.1132 -0.7324 -0.0717
28862SOL     OW 4195  13.291   6.309   2.440  0.4891  0.8055 -1.0191
28862SOL    HW1 4196  13.230   6.383   2.446  0.0422  0.3574  2.3503
28862SOL    HW2 4197  13.299   6.278   2.531  3.1261 -1.3080 -1.8433
28863SOL     OW 4198   0.855  10.622   7.636  0.4194 -0.1207 -0.2782
28863SOL    HW1 4199   0.793  10.549   7.631 -0.8240  0.9574 -1.6458
28863SOL    HW2 4200   0.906  10.605   7.715  1.4706 -3.4229 -1.4949
28864SOL     OW 4201   6.021   9.152   3.074 -0.1022 -0.3130  0.0336
28864SOL    HW1 4202   6.003   9.170   3.166  0.1669 -1.3105  0.2957
28864SOL    HW2 4203   5.951   9.198   3.026 -0.0017  0.5557  0.6989
28865SOL     OW 4204   7.318  12.763   2.302 -0.5293  0.1312  0.2684
28865SOL    HW1 4205   7.344  12.725   2.386  0.6290  0.5829  0.1313
28865SOL    HW2 4206   7.240  12.815   2.322 -0.1518  0.3883  1.1121
28866SOL     OW 4207  13.494  13.190   9.166  0.4750  0.5272 -0.2955
28866SOL    HW1 4208  13.505  13.188   9.071 -1.2406 -2.0754 -0.5349
28866SOL    HW2 4209  13.543  13.114   9.198 -2.0960 -0.9517  0.4023
28867SOL     OW 4210  10.089   8.384   9.938 -0.2846  0.7449 -0.0883
28867SOL    HW1 4211  10.104   8.478   9.947 -1.2554  0.8004  1.2613
28867SOL    HW2 4212   9.995   8.377   9.922 -0.4849 -0.0391  1.2591
28868SOL     OW 4213   6.006  11.844   3.489  0.4929  0.4047  0.4228
28868SOL    HW1 4214   5.967  11.895   3.418 -0.7788 -0.5614  0.3891
28868SOL    HW2 4215   6.096  11.828   3.461  0.5744  1.6567 -0.0723
28869SOL     OW 4216   9.125   2.771  11.024  0.0467 -0.2899  0.1263
28869SOL    HW1 4217   9.161   2.750  11.110  0.8239 -2.5954 -0.6948
28869SOL    HW2 4218   9.189   2.737  10.962 -1.6913 -0.9858 -1.3810
28870SOL     OW 4219  10.218  12.009   8.924  0.4194 -0.1600  0.9693
28870SOL    HW1 4220  10.170  12.014   9.006  0.0141  0.6446  0.7042
28870SOL    HW2 4221  10.151  11.992   8.858  0.7847 -1.1428  0.8430
28871SOL     OW 4222   1.468   2.048  10.974 -0.5355 -0.1679 -0.0244
28871SOL    HW1 4223   1.530   1.979  10.950  0.3174  0.3891  0.5324
28871SOL    HW2 4224   1.433   2.079  10.890  1.5826  1.0103 -0.5494
28872SOL     OW 4225   2.866   4.143   9.899  0.0185  0.2092  0.2132
28872SOL    HW1 4226   2.907   4.176   9.979 -0.5687 -0.4808  0.8127
28872SOL    HW2 4227   2.781   4.187   9.897  0.7484  1.6505 -1.0334
28873SOL     OW 4228   7.326   7.936   8.876  0.5540 -0.0435 -0.0276
28873SOL    HW1 4229   7.237   7.954   8.907  0.0957 -1.0564 -0.7056
28873SOL    HW2 4230   7.324   7.958   8.782  0.4124 -1.9989 -0.5220
28874SOL     OW 4231   7.295   5.493   4.479 -0.0060 -0.5729 -0.3069
28874SOL    HW1 4232   7.222   5.445   4.440  0.0919 -1.4071  0.5215
28874SOL    HW2 4233   7.262   5.523   4.564 -0.4619  1.8494 -1.2620
28875SOL     OW 4234   4.817   3.884  10.936  0.6912 -0.0998  0.4974
28875SOL    HW1 4235   4.821   3.794  10.969 -1.8837 -0.2518  0.5805
28875SOL    HW2 4236   4.730   3.892  10.899  1.7302  1.6495 -1.7869
28876SOL     OW 4237  10.584  10.292  11.156 -0.0407  0.4088 -0.0642
28876SOL    HW1 4238  10.616  10.237  11.084 -1.1275 -0.3568  0.0050
28876SOL    HW2 4239  10.541  10.366  11.113  0.6072  0.7296 -0.1716
28877SOL     OW 4240   2.192  13.439  12.848  0.0865 -0.2723  0.0774
28877SOL    HW1 4241   2.278  13.427  12.889  0.7178  1.0642 -0.7844
28877SOL    HW2 4242   2.165  13.527  12.875  0.3454  0.4901 -2.0156
28878SOL     OW 4243   5.048  12.197   3.304  0.3653 -0.3668  0.5641
28878SOL    HW1 4244   5.140  12.215   3.282  0.0786  0.7432  0.1844
28878SOL    HW2 4245   5.051  12.164   3.394  1.2920 -2.2439 -0.1042
28879SOL     OW 4246   2.628   7.017   6.363 -0.1513  0.2851  0.3249
28879SOL    HW1 4247   2.538   7.013   6.331 -1.4102  0.4612  3.4239
28879SOL    HW2 4248   2.644   7.110   6.379  1.1878  0.4264 -1.5781
28880SOL     OW 4249   1.524  13.989   5.074  0.0513  0.0103 -0.1869
28880SOL    HW1 4250   1.437  13.972   5.109 -0.2198  0.7619 -0.4878
28880SOL    HW2 4251   1.509  14.020   4.985  0.8097 -4.2269 -2.0134
28881SOL     OW 4252   0.513   0.699   1.876 -0.3933  0.0720 -0.2862
28881SOL    HW1 4253   0.507   0.606   1.895  0.9164 -0.5047 -2.3925
28881SOL    HW2 4254   0.603   0.722   1.897 -0.5800  0.7560 -0.2168
28882SOL     OW 4255   5.284   9.582   3.060 -0.3277  0.7921 -0.3573
28882SOL    HW1 4256   5.346   9.653   3.076  0.6050 -0.5366  3.0248
28882SOL    HW2 4257   5.339   9.509   3.032 -0.1038 -0.4191  2.7463
28883SOL     OW 4258   0.406   0.934  13.186 -0.1093 -0.6310 -0.0119
28883SOL    HW1 4259   0.331   0.934  13.245  0.5487 -0.2600  0.8334
28883SOL    HW2 4260   0.464   0.868  13.222  1.3215  1.1500  1.1066
28884SOL     OW 4261   7.752  10.135  13.349  0.0733 -0.0527  0.5135
28884SOL    HW1 4262   7.779  10.134  13.257 -0.6915  0.1244  0.2846
28884SOL    HW2 4263   7.680  10.072  13.353 -0.9398  1.0935  0.6668
28885SOL     OW 4264   9.466   0.033   1.741  0.7645  0.4682  0.8952
28885SOL    HW1 4265   9.381   0.011   1.704  1.1859 -1.1892  0.8371
28885SOL    HW2 4266   9.447   0.074   1.825 -0.1264  1.7847  0.0739
28886SOL     OW 4267   7.853   1.353   3.628  0.2053 -0.0541 -0.1623
28886SOL    HW1 4268   7.784   1.290   3.607 -1.2996  1.9882 -1.7873
28886SOL    HW2 4269   7.824   1.393   3.710  0.5715 -0.6388  0.2617
28887SOL     OW 4270  10.806   5.470  11.875  0.2113  0.6204  0.3871
28887SOL    HW1 4271  10.756   5.487  11.955  1.6668 -0.9707  1.6986
28887SOL    HW2 4272  10.897   5.467  11.904  0.7332 -0.4363 -1.2636
28888SOL     OW 4273  13.969  11.695  10.507 -0.2145 -0.1341  0.3959
28888SOL    HW1 4274  13.921  11.626  10.551 -0.2392  0.4720  1.3458
28888SOL    HW2 4275  13.906  11.731  10.444 -0.5090 -0.3505  0.5615
28889SOL     OW 4276   9.074   1.641   4.271  0.1233  0.1374 -0.3579
28889SOL    HW1 4277   9.153   1.695   4.284 -0.2252  0.4714  0.4134
28889SOL    HW2 4278   9.109   1.554   4.251  0.7160 -0.0328  1.2664
28890SOL     OW 4279  13.956   0.623  12.229  0.4441 -0.2097  0.8164
28890SOL    HW1 4280  14.003   0.544  12.201  1.5178  0.8715 -0.5560
28890SOL    HW2 4281  13.867   0.610  12.195  0.6205 -0.8008  0.5567
28891SOL     OW 4282   2.900   8.961   9.520 -0.8436  0.2764 -1.0274
28891SOL    HW1 4283   2.839   8.914   9.578 -1.9403  0.7676 -1.7508
28891SOL    HW2 4284   2.932   8.894   9.460 -0.7948  0.0428 -0.7415
28892SOL     OW 4285  13.275   6.916  10.173 -0.0838 -0.1285  0.0297
28892SOL    HW1 4286  13.198   6.958  10.212 -0.9362  0.3358 -2.0276
28892SOL    HW2 4287  13.340   6.986  10.168 -0.2283  0.0037 -0.0307
28893SOL     OW 4288  13.364   8.607  11.708  0.1445 -0.0676  0.0421
28893SOL    HW1 4289  13.426   8.638  11.774  1.3333 -0.1665 -0.9887
28893SOL    HW2 4290  13.411   8.617  11.625 -0.7667 -1.3273 -0.6509
28894SOL     OW 4291   8.638  11.108   3.054 -0.3841 -0.1423  0.6023
28894SOL    HW1 4292   8.596  11.032   3.092  0.3442  0.0502  1.8578
28894SOL    HW2 4293   8.619  11.180   3.115 -0.2151  0.4487 -0.0266
28895SOL     OW 4294   5.174   6.363   5.651 -0.0107  0.2844 -0.4048
28895SOL    HW1 4295   5.088   6.384   5.685  0.1873 -0.8803  0.8816
28895SOL    HW2 4296   5.162   6.281   5.603 -0.1289  1.4984 -2.5724
28896SOL     OW 4297   3.816   9.192   6.465 -0.5313  0.0218  0.2898
28896SOL    HW1 4298   3.854   9.266   6.514 -0.5904  0.1970  0.0677
28896SOL    HW2 4299   3.743   9.163   6.519 -0.2885 -0.1023  0.5555
28897SOL     OW 4300   2.022   0.705   0.377 -0.3328  0.2304  0.2683
28897SOL    HW1 4301   2.113   0.679   0.365 -0.1875  1.2907 -1.2223
28897SOL    HW2 4302   1.975   0.661   0.307 -1.3322 -1.7711  2.0863
28898SOL     OW 4303   4.369  13.339  12.139 -0.1999  0.2138 -0.3402
28898SOL    HW1 4304   4.436  13.357  12.205  0.5354  2.7304 -1.6432
28898SOL    HW2 4305   4.295  13.396  12.164  0.3545  1.7438 -1.9845
28899SOL     OW 4306   5.846   1.326   8.047  0.0383 -0.6054  0.1394
28899SOL    HW1 4307   5.922   1.313   7.991  0.8744 -1.5046  1.4191
28899SOL    HW2 4308   5.882   1.359   8.129 -0.8856 -1.5254  0.9486
28900SOL     OW 4309   2.442  10.762   7.681 -1.4207  0.3032  0.8147
28900SOL    HW1 4310   2.516  10.721   7.725  0.0011  0.7860 -0.9982
28900SOL    HW2 4311   2.410  10.695   7.620 -2.0880  0.3205  1.1340
28901SOL     OW 4312   8.941   9.101   3.301 -0.1116  0.1498 -0.0997
28901SOL    HW1 4313   8.848   9.090   3.284  0.6325 -1.0847 -4.4832
28901SOL    HW2 4314   8.968   9.019   3.343 -0.5523 -0.7170 -1.4548
28902SOL     OW 4315   5.573   7.444   4.112  0.0215 -0.8445 -0.0783
28902SOL    HW1 4316   5.632   7.417   4.042  1.0870 -0.9068  0.8261
28902SOL    HW2 4317   5.485   7.426   4.078  0.4630  0.0832 -1.7945
28903SOL     OW 4318   2.096   5.633  12.627 -0.3558 -0.1907 -0.4090
28903SOL    HW1 4319   2.184   5.669  12.621 -0.2174 -0.2072  1.0510
28903SOL    HW2 4320   2.098   5.554  12.573  0.3395  0.1365 -0.8697
28904SOL     OW 4321   2.619   8.737   8.203  0.3308 -0.1216 -0.0919
28904SOL    HW1 4322   2.658   8.821   8.227  1.2692  0.2832 -2.6730
28904SOL    HW2 4323   2.661   8.714   8.120 -2.1013 -1.6502 -1.0117
28905SOL     OW 4324   3.150  11.302  11.627 -0.3615  0.2573 -0.1878
28905SOL    HW1 4325   3.236  11.259  11.633 -0.5402  0.0120  0.6181
28905SOL    HW2 4326   3.171  11.395  11.625 -0.0418  0.1802 -0.6821
28906SOL     OW 4327  11.273   4.910   4.231  0.3806  0.4506  0.5840
28906SOL    HW1 4328  11.261   4.989   4.284  3.0757  0.1728  1.7486
28906SOL    HW2 4329  11.367   4.895   4.231  0.3039 -0.7433 -2.6615
28907SOL     OW 4330   2.626   5.466  12.064 -0.1887 -0.5978 -0.4419
28907SOL    HW1 4331   2.601   5.558  12.051  0.2123 -0.6486 -1.6751
28907SOL    HW2 4332   2.615   5.426  11.978 -0.8605 -1.8441  0.2038
28908SOL     OW 4333  12.062   5.080   0.388  0.0352 -0.7482  1.0974
28908SOL    HW1 4334  12.143   5.096   0.436  1.0105 -1.1254 -0.3757
28908SOL    HW2 4335  12.010   5.025   0.448  1.4118 -1.6042  1.5546
28909SOL     OW 4336   8.597   6.172   4.948 -0.2001 -0.0244  0.3363
28909SOL    HW1 4337   8.673   6.159   5.005 -0.9392 -0.6434  1.2348
28909SOL    HW2 4338   8.552   6.248   4.985  0.2021  0.6114 -0.4579
28910SOL     OW 4339  11.872   3.666   6.139 -0.0902 -0.1893 -0.8331
28910SOL    HW1 4340  11.778   3.682   6.129 -0.2301  0.4116  1.0208
28910SOL    HW2 4341  11.889   3.682   6.232  1.9105  0.0084 -1.1906
28911SOL     OW 4342   6.830  11.481   2.695 -0.4648  0.0770  0.7018
28911SOL    HW1 4343   6.905  11.444   2.647  0.0155  1.5569  0.2479
28911SOL    HW2 4344   6.822  11.426   2.773 -0.3751 -1.5245 -0.3780
28912SOL     OW 4345   0.191   8.487   3.128  0.1266 -0.3701 -0.1440
28912SOL    HW1 4346   0.188   8.566   3.073 -1.4912  1.0834  1.8900
28912SOL    HW2 4347   0.213   8.519   3.215  1.5158 -2.4747  0.3392
28913SOL     OW 4348   8.580  10.508   9.795  0.0517  0.2147 -0.2959
28913SOL    HW1 4349   8.635  10.475   9.725  0.0448 -2.1081  0.7022
28913SOL    HW2 4350   8.516  10.439   9.811  1.4672 -0.5071  3.4882
28914SOL     OW 4351   6.007   7.346   3.559 -0.1267  0.4258  0.2030
28914SOL    HW1 4352   6.029   7.438   3.546 -0.9666  0.8045  1.2852
28914SOL    HW2 4353   6.000   7.336   3.654  0.7392 -0.9557  0.1472
28915SOL     OW 4354   5.761   3.651   2.000 -0.2406 -0.1278 -0.2949
28915SOL    HW1 4355   5.744   3.556   2.002  1.3662 -0.4725 -0.9861
28915SOL    HW2 4356   5.809   3.668   2.081 -1.3756  0.3101  0.3091
28916SOL     OW 4357  12.400   0.553   4.526  0.0849  0.4709  0.2858
28916SOL    HW1 4358  12.322   0.519   4.570  0.0523  0.0740 -0.0746
28916SOL    HW2 4359  12.400   0.510   4.440 -0.6407  2.3263 -0.6863
28917SOL     OW 4360   8.921   6.982   8.595 -0.5598  0.1923  0.4826
28917SOL    HW1 4361   8.856   7.007   8.661  2.4392  1.3995  3.2295
28917SOL    HW2 4362   8.933   7.061   8.542  1.6724  1.5647  2.8048
28918SOL     OW 4363   3.821  11.864  13.140 -0.3044 -0.0339 -0.0397
28918SOL    HW1 4364   3.837  11.933  13.076 -0.8957  0.6719  0.5558
28918SOL    HW2 4365   3.761  11.804  13.096  0.4275 -0.3350 -0.6608
28919SOL     OW 4366   8.481   1.884   9.577  0.1216  0.0170 -0.1779
28919SOL    HW1 4367   8.573   1.881   9.604 -0.2676 -0.0246  1.2032
28919SOL    HW2 4368   8.472   1.813   9.513  1.1646  0.3640 -0.7368
28920SOL     OW 4369   1.864   3.161   9.875 -0.2322  0.0722 -0.3613
28920SOL    HW1 4370   1.808   3.200   9.808  0.1622  1.4889  0.0951
28920SOL    HW2 4371   1.898   3.236   9.925 -0.3742 -0.9192  1.3121
28921SOL     OW 4372   8.552   6.168   6.612  0.1385 -0.2334 -0.8008
28921SOL    HW1 4373   8.538   6.235   6.546  1.0838  0.1876 -0.5892
28921SOL    HW2 4374   8.478   6.178   6.672  0.5220  0.9685 -0.4941
28922SOL     OW 4375   3.625   7.839  10.659  0.1038  0.7795 -0.4586
28922SOL    HW1 4376   3.603   7.837  10.566  1.5304  0.9606 -0.8133
28922SOL    HW2 4377   3.629   7.747  10.685 -1.6344  0.7408 -0.2230
28923SOL     OW 4378   2.275  12.848   4.301  0.1726 -0.2248  0.1184
28923SOL    HW1 4379   2.364  12.860   4.334  1.4410 -0.8318 -2.7908
28923SOL    HW2 4380   2.232  12.932   4.319  1.6914  0.5027  0.5635
28924SOL     OW 4381   7.082  12.969   7.505  0.6081 -0.5117  0.3399
28924SOL    HW1 4382   7.004  12.935   7.463  0.1145  0.3350  0.5436
28924SOL    HW2 4383   7.148  12.972   7.436 -0.2790  1.1519 -0.4793
28925SOL     OW 4384  13.344  10.044   8.924 -0.7676  0.6966 -0.3917
28925SOL    HW1 4385  13.356   9.951   8.907 -1.0307  0.5048  0.4361
28925SOL    HW2 4386  13.250  10.054   8.940 -0.3659  0.4800  2.8843
28926SOL     OW 4387   7.296   2.114   6.845  0.6199  0.1750  0.2958
28926SOL    HW1 4388   7.375   2.110   6.790 -0.6315 -2.3393 -1.5323
28926SOL    HW2 4389   7.306   2.040   6.905 -1.2180 -1.5831 -1.4177
28927SOL     OW 4390   0.320   1.953  11.361  0.6616 -0.3324 -0.6796
28927SOL    HW1 4391   0.274   2.020  11.309  3.1152  1.4029 -0.8038
28927SOL    HW2 4392   0.302   1.976  11.452  0.2821 -0.4208 -0.7322
28928SOL     OW 4393   0.150   2.861   8.754 -1.2002 -0.6648  0.5158
28928SOL    HW1 4394   0.126   2.771   8.774 -1.6354 -0.5196  0.6464
28928SOL    HW2 4395   0.103   2.882   8.674 -0.8126 -0.6724  0.2836
28929SOL     OW 4396  11.057   1.826   7.158 -0.0452 -0.0052  0.4095
28929SOL    HW1 4397  11.004   1.834   7.237 -1.1156 -0.2957 -0.2624
28929SOL    HW2 4398  11.098   1.912   7.147 -0.6676  0.3376  0.7399
28930SOL     OW 4399   3.460   3.098   7.959  0.0855  0.4081  0.1685
28930SOL    HW1 4400   3.495   3.115   8.046 -0.7194 -0.5154  0.6923
28930SOL    HW2 4401   3.453   3.002   7.954 -3.4355  0.5208  0.5576
28931SOL     OW 4402   0.490   3.044   0.802  0.7225 -0.2592 -0.3809
28931SOL    HW1 4403   0.503   2.979   0.733  0.2968  0.9228 -1.6212
28931SOL    HW2 4404   0.528   3.124   0.767 -0.8649  0.7546  0.1023
28932SOL     OW 4405  10.356  12.491   4.492  0.3489  0.3796  0.2583
28932SOL    HW1 4406  10.337  12.481   4.398  1.3541 -0.7151  0.1491
28932SOL    HW2 4407  10.425  12.427   4.509 -0.5439 -0.1704  1.9871
28933SOL     OW 4408  12.832  12.678  13.828  0.0600 -0.0908 -0.4189
28933SOL    HW1 4409  12.831  12.583  13.827 -0.1587 -0.2185  2.6068
28933SOL    HW2 4410  12.916  12.702  13.789  1.5808 -1.7357  1.5918
28934SOL     OW 4411   1.271   7.985   1.452  0.1557 -0.1067  0.0086
28934SOL    HW1 4412   1.357   8.007   1.487  0.1691  0.5228 -0.4112
28934SOL    HW2 4413   1.282   7.898   1.414  0.4205 -0.3331  0.5908
28935SOL     OW 4414   3.063   1.797   4.951  0.5905  0.7509  0.1405
28935SOL    HW1 4415   3.001   1.831   5.015  0.3169 -0.2892  0.4454
28935SOL    HW2 4416   3.014   1.731   4.903 -0.1452  3.4127 -3.1483
28936SOL     OW 4417   0.690  13.881   6.641 -0.7543  0.0584 -0.6879
28936SOL    HW1 4418   0.771  13.932   6.639 -0.4897 -0.2367  0.7814
28936SOL    HW2 4419   0.713  13.802   6.690 -1.4638 -0.9286 -1.8816
28937SOL     OW 4420  11.822   7.430  10.430 -0.8836  0.4429  0.5730
28937SOL    HW1 4421  11.795   7.516  10.463  1.1522  1.8047 -1.1074
28937SOL    HW2 4422  11.900   7.408  10.481 -1.2805 -0.3494  0.8557
28938SOL     OW 4423  13.461   7.059   0.877 -0.4313 -0.0708 -0.2490
28938SOL    HW1 4424  13.377   7.046   0.920 -0.4463  0.6658 -0.0366
28938SOL    HW2 4425  13.514   6.984   0.904 -0.2953  0.5827  1.4321
28939SOL     OW 4426   1.274   8.374  11.887 -0.1708 -0.1113  0.0405
28939SOL    HW1 4427   1.308   8.307  11.945  0.0086 -0.6641 -0.6807
28939SOL    HW2 4428   1.179   8.364  11.889 -0.3285  1.3096  1.9128
28940SOL     OW 4429   7.000  10.337  13.968  0.2459 -0.3084 -0.0291
28940SOL    HW1 4430   7.038  10.416  14.006 -1.1047  0.5545 -0.4007
28940SOL    HW2 4431   7.074  10.277  13.957  1.1016  0.4175  1.4355
28941SOL     OW 4432   9.486   4.046   9.488 -0.1743 -0.5369 -0.0047
28941SOL    HW1 4433   9.530   4.096   9.557 -1.6180 -1.5467  1.7355
28941SOL    HW2 4434   9.537   4.064   9.409  0.1945  2.5515  0.7966
28942SOL     OW 4435   7.832   2.647   3.022  0.5080  0.0623  0.0124
28942SOL    HW1 4436   7.859   2.621   2.934  0.0264  0.8766 -0.3815
28942SOL    HW2 4437   7.736   2.644   3.019  0.4968 -0.9814  0.8437
28943SOL     OW 4438  11.321   0.714   6.321 -0.0302 -0.1519 -0.3022
28943SOL    HW1 4439  11.406   0.669   6.320  0.9474  1.6173 -0.6134
28943SOL    HW2 4440  11.265   0.656   6.373  1.7126 -0.7864  1.0061
28944SOL     OW 4441   2.162  10.015   8.043 -0.0787  0.3013  0.2023
28944SOL    HW1 4442   2.143   9.975   7.958 -0.0448 -0.1221  0.3918
28944SOL    HW2 4443   2.254  10.042   8.036 -0.1080  0.3652  0.0637
28945SOL     OW 4444   6.964   1.805   2.579  0.4666 -0.1637  0.3847
28945SOL    HW1 4445   6.951   1.900   2.580 -2.0392 -0.4484 -0.1066
28945SOL    HW2 4446   6.987   1.784   2.670  0.9197  0.8730  0.5304
28946SOL     OW 4447   1.890   9.044  13.902 -0.2702 -0.1508  0.5580
28946SOL    HW1 4448   1.914   9.117  13.845 -2.2257  0.4371  0.4007
28946SOL    HW2 4449   1.931   8.967  13.862 -1.5128  0.2546 -1.6476
28947SOL     OW 4450   6.519   8.956   9.113  0.3520 -0.7190  0.3936
28947SOL    HW1 4451   6.481   8.897   9.178  0.5489 -1.7926 -0.4429
28947SOL    HW2 4452   6.611   8.965   9.139  0.3442 -0.8590  0.4651
28948SOL     OW 4453   8.098   3.212  12.674 -0.5160 -0.6213  0.2425
28948SOL    HW1 4454   8.192   3.213  12.687 -0.1838  0.2165 -1.8292
28948SOL    HW2 4455   8.080   3.129  12.630 -0.4842 -0.0880 -0.8106
28949SOL     OW 4456   8.730  12.848   7.246 -0.0334  0.3285  0.2112
28949SOL    HW1 4457   8.789  12.780   7.212  0.4875 -0.1957  2.0517
28949SOL    HW2 4458   8.777  12.930   7.230 -0.1301  0.1877 -0.9313
28950SOL     OW 4459   2.956   5.225   1.131 -0.2472 -0.0627 -0.5432
28950SOL    HW1 4460   3.051   5.222   1.124 -0.0789 -1.7770  1.4702
28950SOL    HW2 4461   2.932   5.310   1.094  2.1890  0.9982  0.0876
28951SOL     OW 4462   3.901   3.041   6.141  0.0609  0.1929 -0.2620
28951SOL    HW1 4463   3.883   3.023   6.048  1.7549  1.6561 -0.9508
28951SOL    HW2 4464   3.894   2.956   6.184 -2.1218 -0.3010 -1.4522
28952SOL     OW 4465   4.172   9.373  12.089 -0.1371 -0.3052  0.2474
28952SOL    HW1 4466   4.155   9.304  12.152 -0.2394 -0.8793 -0.3978
28952SOL    HW2 4467   4.133   9.451  12.128  0.5607 -0.4660  1.2825
28953SOL     OW 4468   7.049   3.476   0.577  0.2912  0.0132 -0.0953
28953SOL    HW1 4469   7.075   3.414   0.509 -0.0813  0.7403 -0.9121
28953SOL    HW2 4470   7.090   3.442   0.657  1.2723 -0.4884 -0.7938
28954SOL     OW 4471   2.800  11.764   8.930  0.3512  0.3227  0.0856
28954SOL    HW1 4472   2.809  11.737   8.838 -0.2008  1.8793 -0.4597
28954SOL    HW2 4473   2.856  11.841   8.938 -2.5089  2.6177 -0.0752
28955SOL     OW 4474   8.168   7.777   3.434  0.5120 -0.3088  0.3271
28955SOL    HW1 4475   8.113   7.788   3.357 -0.4801 -0.6120  0.9787
28955SOL    HW2 4476   8.162   7.684   3.456 -0.5264  0.0454  1.7045
28956SOL     OW 4477   4.078  12.125   9.159  0.1395 -0.2492 -0.1152
28956SOL    HW1 4478   4.099  12.170   9.241 -0.5306 -1.0656  0.5248
28956SOL    HW2 4479   4.055  12.195   9.099  0.0634  0.3384  0.5781
28957SOL     OW 4480   5.036   2.957   6.760  0.2756 -0.1993  0.0637
28957SOL    HW1 4481   4.965   2.955   6.696 -0.7700  1.2785  1.1257
28957SOL    HW2 4482   5.094   2.885   6.733 -2.4771 -2.6719  0.1768
28958SOL     OW 4483   2.445   3.277   4.638  0.0616 -0.8551  0.1566
28958SOL    HW1 4484   2.365   3.224   4.643 -0.8357  0.4266  0.0977
28958SOL    HW2 4485   2.441   3.319   4.552 -0.0977  0.5198  0.8044
28959SOL     OW 4486   6.850   0.166   5.348 -0.0689  0.3565  0.4379
28959SOL    HW1 4487   6.857   0.178   5.442 -0.6284 -0.7648  0.6246
28959SOL    HW2 4488   6.769   0.210   5.324  0.1161  0.7155  0.4525
28960SOL     OW 4489   6.645  11.526   0.900 -0.0032 -0.4060 -0.3065
28960SOL    HW1 4490   6.574  11.469   0.931  0.0769 -1.4022 -1.8478
28960SOL    HW2 4491   6.652  11.594   0.968 -0.2800 -2.0596  1.4706
28961SOL     OW 4492  10.589   3.488   3.709 -0.1334  0.1399 -0.3510
28961SOL    HW1 4493  10.635   3.447   3.783 -0.3010 -0.8255 -0.7705
28961SOL    HW2 4494  10.579   3.579   3.735 -0.9259 -0.3498  1.1870
28962SOL     OW 4495   3.044   2.851   3.897 -0.5043 -0.5427  0.9574
28962SOL    HW1 4496   2.990   2.921   3.935 -1.8178 -0.2098 -1.3565
28962SOL    HW2 4497   2.990   2.773   3.904 -0.7797 -0.4710 -0.1912
28963SOL     OW 4498   8.397   3.255   2.026 -0.2656 -0.2201  0.2193
28963SOL    HW1 4499   8.379   3.204   2.105 -0.0061 -0.4595  0.1228
28963SOL    HW2 4500   8.476   3.305   2.047 -0.6529  0.3354  0.4035
28964SOL     OW 4501  11.748   2.555  12.258  0.6540 -0.0434 -0.4322
28964SOL    HW1 4502  11.732   2.575  12.166  1.4640 -0.2863 -0.6334
28964SOL    HW2 4503  11.670   2.508  12.287 -0.2039  1.1967 -0.6210
28965SOL     OW 4504  13.646  13.295   7.805 -0.1531 -0.3491  0.0818
28965SOL    HW1 4505  13.726  13.321   7.850 -0.5393  1.5866 -0.2624
28965SOL    HW2 4506  13.612  13.223   7.857 -0.0004  1.0832  2.3036
28966SOL     OW 4507  10.456   0.442  10.908  0.2763 -0.0046 -0.2557
28966SOL    HW1 4508  10.526   0.462  10.971 -0.4691 -0.2325  0.6814
28966SOL    HW2 4509  10.400   0.519  10.910 -0.4496 -0.5373  0.3476
28967SOL     OW 4510  10.206  10.883   9.006 -0.2328 -0.3692 -0.3921
28967SOL    HW1 4511  10.291  10.890   8.963 -0.6632  0.4259 -1.1404
28967SOL    HW2 4512  10.218  10.923   9.092  0.1780 -0.3513 -0.4598
28968SOL     OW 4513  13.468   2.101   5.534 -0.1321  0.1799 -0.0771
28968SOL    HW1 4514  13.401   2.068   5.474  0.0472  0.3378 -0.3663
28968SOL    HW2 4515  13.419   2.151   5.599 -0.1648  1.7958 -1.2881
28969SOL     OW 4516  11.319   0.896   9.242 -0.5130 -0.2865  0.0420
28969SOL    HW1 4517  11.389   0.882   9.306  0.0818  0.6138 -0.3949
28969SOL    HW2 4518  11.356   0.958   9.179 -1.9307  0.7279  0.1571
28970SOL     OW 4519   4.479  10.314   4.107 -0.4630 -0.0542  0.1766
28970SOL    HW1 4520   4.528  10.244   4.150  1.7303  0.4744 -1.3290
28970SOL    HW2 4521   4.492  10.391   4.164  2.5276  0.6730 -1.3037
28971SOL     OW 4522   2.831  13.770  13.832 -0.3545  0.2945  0.6370
28971SOL    HW1 4523   2.908  13.801  13.784 -0.7475 -1.6796 -1.4481
28971SOL    HW2 4524   2.851  13.790  13.923  2.2746  0.5837  0.1000
28972SOL     OW 4525  13.037  12.409   7.836 -0.1469  0.0314 -0.0013
28972SOL    HW1 4526  12.979  12.333   7.832 -0.7701  0.4566  0.8211
28972SOL    HW2 4527  13.025  12.453   7.752 -1.4246  0.4047  0.3643
28973SOL     OW 4528   4.545   5.594   3.112  0.5906 -0.4880  0.3551
28973SOL    HW1 4529   4.568   5.641   3.032 -0.1709  0.2018  0.5277
28973SOL    HW2 4530   4.586   5.645   3.182 -0.7082  0.2796  0.5923
28974SOL     OW 4531  12.745  13.900   4.741  0.3969 -0.0589 -0.4122
28974SOL    HW1 4532  12.778  13.968   4.799 -0.6245  0.0198  0.1060
28974SOL    HW2 4533  12.655  13.927   4.722 -0.3061 -1.6634  0.4562
28975SOL     OW 4534  10.239  11.967   6.322  0.1747  0.0568 -0.3981
28975SOL    HW1 4535  10.151  11.932   6.308 -1.5626  3.3844  0.9761
28975SOL    HW2 4536  10.251  12.033   6.254  2.2763 -1.3008 -1.4351
28976SOL     OW 4537  13.184   9.551  10.619  0.0474 -0.5359  0.4681
28976SOL    HW1 4538  13.231   9.553  10.702  0.7191  0.6278  0.0781
28976SOL    HW2 4539  13.198   9.637  10.581 -1.5108 -0.5353 -0.1780
28977SOL     OW 4540  11.069   0.994   2.120  0.0670 -0.2897 -0.0457
28977SOL    HW1 4541  10.998   1.028   2.175 -1.1422  1.2903 -2.4325
28977SOL    HW2 4542  11.143   0.985   2.181 -1.6369 -0.3107  2.1771
28978SOL     OW 4543   2.299   3.179  13.750  0.0118 -0.3043  0.5748
28978SOL    HW1 4544   2.259   3.246  13.695 -0.6044 -1.3665 -0.3111
28978SOL    HW2 4545   2.286   3.098  13.701  1.0576 -1.0168  1.4587
28979SOL     OW 4546   3.394  11.393   5.884 -0.8793  0.3679 -0.1943
28979SOL    HW1 4547   3.378  11.302   5.862 -0.3996  0.5277 -1.2934
28979SOL    HW2 4548   3.330  11.442   5.833 -0.7599  0.6755 -0.0535
28980SOL     OW 4549   4.209   6.871   6.062 -0.2475 -0.2303  0.6959
28980SOL    HW1 4550   4.228   6.877   5.968 -1.3543  1.9314  0.5388
28980SOL    HW2 4551   4.181   6.780   6.075 -1.5753 -0.1988 -1.4156
28981SOL     OW 4552  12.229  10.941   4.854  0.3250 -0.2146 -0.0115
28981SOL    HW1 4553  12.205  10.851   4.833 -0.4020 -0.6781  2.4644
28981SOL    HW2 4554  12.151  10.977   4.898  0.9857  1.2728 -0.0015
28982SOL     OW 4555   3.360   4.643   8.804  0.0635  0.1632 -0.0745
28982SOL    HW1 4556   3.276   4.632   8.847  0.0540 -3.5435 -0.7236
28982SOL    HW2 4557   3.409   4.563   8.825  3.8386  2.4473  0.9421
28983SOL     OW 4558   6.324   2.000   7.147  0.6534  0.3150  0.0372
28983SOL    HW1 4559   6.272   2.080   7.151  0.9741  0.5323 -0.0874
28983SOL    HW2 4560   6.377   2.002   7.227  1.4798  0.8007 -0.5019
28984SOL     OW 4561  12.158   1.627   4.023  0.4078  0.3753  0.2107
28984SOL    HW1 4562  12.079   1.590   3.984 -0.4143  1.5657  0.7123
28984SOL    HW2 4563  12.229   1.595   3.967 -0.6907  1.6974 -2.0379
28985SOL     OW 4564   4.536   1.340   9.810  0.0211  0.0873  0.3060
28985SOL    HW1 4565   4.576   1.360   9.895 -0.6704 -0.3083  0.7356
28985SOL    HW2 4566   4.590   1.387   9.746  0.6418  0.2630  0.9493
28986SOL     OW 4567   0.800   6.360   8.796  0.3919 -0.3315  0.2148
28986SOL    HW1 4568   0.875   6.413   8.822 -0.8530  2.0555 -0.7439
28986SOL    HW2 4569   0.830   6.314   8.717  0.6091  1.3573 -0.7416
28987SOL     OW 4570   0.756   5.420   5.899 -0.1515 -0.0098 -0.4636
28987SOL    HW1 4571   0.788   5.371   5.824  3.3495 -0.3734  1.0540
28987SOL    HW2 4572   0.767   5.512   5.874 -1.4361 -0.0448 -1.2554
28988SOL     OW 4573   8.235   3.498  10.956 -0.3934  0.2261  0.6836
28988SOL    HW1 4574   8.171   3.506  10.885 -1.0849  1.5628  1.4346
28988SOL    HW2 4575   8.231   3.582  11.002  0.4839 -0.3966  1.9470
28989SOL     OW 4576   2.400   8.923  10.576  0.3833  0.5469  0.4072
28989SOL    HW1 4577   2.490   8.893  10.563  0.2577 -0.8921  2.3777
28989SOL    HW2 4578   2.387   8.990  10.510  1.8155 -1.4962 -2.1470
28990SOL     OW 4579  10.512   1.341  12.792  0.2023 -0.4556 -0.4797
28990SOL    HW1 4580  10.586   1.396  12.765 -1.1588  2.2606  0.9650
28990SOL    HW2 4581  10.519   1.336  12.887 -0.8891 -1.0524 -0.4111
28991SOL     OW 4582   5.628   2.645  12.020  0.0606 -0.4063 -0.0835
28991SOL    HW1 4583   5.704   2.606  12.062 -0.7730 -1.8351  0.1750
28991SOL    HW2 4584   5.627   2.736  12.051  1.0483 -0.6560  0.7303
28992SOL     OW 4585   5.114   8.933   3.920 -0.3676  0.9730 -0.7131
28992SOL    HW1 4586   5.101   9.025   3.897  0.3590  1.4306  0.6092
28992SOL    HW2 4587   5.037   8.888   3.883 -0.7250  2.0883 -1.3858
28993SOL     OW 4588   9.058  13.617   0.948  0.3190  0.3745 -0.1581
28993SOL    HW1 4589   9.131  13.582   1.000  0.3386 -0.7854 -0.9204
28993SOL    HW2 4590   9.092  13.620   0.858 -0.2065  0.8968 -0.3432
28994SOL     OW 4591   3.132   6.830  10.082  0.1197 -0.0037 -0.7258
28994SOL    HW1 4592   3.197   6.895  10.108  0.9020 -0.5094 -1.3747
28994SOL    HW2 4593   3.079   6.874  10.015 -1.1012  0.8701  0.7531
28995SOL     OW 4594   2.058   8.571   4.283 -0.0806  0.2120  0.1789
28995SOL    HW1 4595   2.083   8.507   4.217  1.0582  0.5782  0.2226
28995SOL    HW2 4596   1.966   8.553   4.301 -0.0670 -0.7030 -0.5885
28996SOL     OW 4597  12.497   4.282   9.361  0.0018  0.5917  0.4841
28996SOL    HW1 4598  12.572   4.305   9.416 -1.3686  1.6436  2.0433
28996SOL    HW2 4599  12.498   4.346   9.291  2.2307 -1.2426 -1.3146
28997SOL     OW 4600   0.739   4.018   2.026  0.0056  0.1969 -0.3605
28997SOL    HW1 4601   0.696   4.005   2.111 -0.1434  0.5556 -0.3796
28997SOL    HW2 4602   0.687   3.966   1.965 -0.0906  0.2100 -0.2911
28998SOL     OW 4603   0.416  10.539   1.068  0.3422 -0.4743  0.7892
28998SOL    HW1 4604   0.364  10.509   1.142 -1.1959  3.8784  1.7943
28998SOL    HW2 4605   0.353  10.548   0.996  0.4038  1.2433  0.9023
28999SOL     OW 4606   7.202   0.378   9.446 -0.0351 -0.4196 -0.0293
28999SOL    HW1 4607   7.268   0.412   9.386 -0.2630  2.0401  0.9837
28999SOL    HW2 4608   7.197   0.444   9.515 -1.3470 -2.0776  1.5470
29000SOL     OW 4609  12.267  11.118   2.128 -0.5087 -0.1018  0.1046
29000SOL    HW1 4610  12.327  11.071   2.185 -2.0052 -1.8818  0.3108
29000SOL    HW2 4611  12.303  11.105   2.040  0.0222 -0.1347  0.3205
29001SOL     OW 4612   4.274   7.406   6.515  0.3184  0.1086  0.2140
29001SOL    HW1 4613   4.218   7.483   6.505  0.8697  0.4665 -0.1034
29001SOL    HW2 4614   4.306   7.388   6.427  0.6689 -0.1299  0.3896
29002SOL     OW 4615   8.495   9.498   5.596 -0.5015  0.1048  0.0544
29002SOL    HW1 4616   8.532   9.502   5.685 -1.6067 -1.3469  0.6052
29002SOL    HW2 4617   8.405   9.470   5.609 -0.3069 -1.4246 -1.6197
29003SOL     OW 4618   6.237   0.669  13.882 -0.1196 -0.1529 -0.8708
29003SOL    HW1 4619   6.212   0.589  13.928 -1.1824  0.2357 -0.7446
29003SOL    HW2 4620   6.266   0.729  13.951 -2.0092  0.5381 -0.6438
29004SOL     OW 4621   8.732  11.463  12.460 -0.5936  0.4886 -0.2057
29004SOL    HW1 4622   8.670  11.403  12.419  0.0047  0.0535 -0.4889
29004SOL    HW2 4623   8.813  11.452  12.410  0.2035 -0.1663  1.1877
29005SOL     OW 4624   4.735  10.603   7.163  0.0621  0.2066 -0.0662
29005SOL    HW1 4625   4.813  10.639   7.206 -0.5413  1.2110  0.2044
29005SOL    HW2 4626   4.720  10.660   7.088 -1.1382  0.8017  0.5935
29006SOL     OW 4627  12.970   1.342   5.051 -0.0765  0.4251 -0.4593
29006SOL    HW1 4628  12.991   1.402   4.980 -0.0229  1.1417  0.1427
29006SOL    HW2 4629  12.883   1.310   5.031 -0.7440  1.8905 -0.0233
29007SOL     OW 4630   5.066   9.493   9.575  0.9447 -1.0542  0.2099
29007SOL    HW1 4631   4.981   9.455   9.553  0.2431 -0.2925  1.5110
29007SOL    HW2 4632   5.092   9.541   9.497 -2.2314  2.9475  1.3044
29008SOL     OW 4633  12.529   8.639  13.351  0.6083 -0.4986 -0.6310
29008SOL    HW1 4634  12.493   8.719  13.312 -0.1410  0.7302  2.3419
29008SOL    HW2 4635  12.474   8.569  13.316 -0.0557  0.4997 -1.6717
29009SOL     OW 4636  11.370   9.302   7.911 -0.1485  0.1347  0.0164
29009SOL    HW1 4637  11.458   9.305   7.947 -0.2127 -1.4209  0.3698
29009SOL    HW2 4638  11.370   9.227   7.851 -1.1076  0.3811 -0.3200
29010SOL     OW 4639   9.883   3.575   8.793  0.0060 -0.7817  0.5786
29010SOL    HW1 4640   9.832   3.510   8.842 -1.3659 -0.0752  0.1501
29010SOL    HW2 4641   9.861   3.658   8.836  0.9455 -0.4796  0.4853
29011SOL     OW 4642   0.042   4.183   7.440  0.1726  0.1762 -0.0840
29011SOL    HW1 4643   0.070   4.254   7.383 -0.1166  0.0789 -0.3514
29011SOL    HW2 4644   0.044   4.105   7.385  1.3953 -0.1947  0.4544
29012SOL     OW 4645  13.856   0.503   6.350 -0.6308 -0.2172  0.5036
29012SOL    HW1 4646  13.793   0.480   6.419 -1.7895 -0.9276 -0.7427
29012SOL    HW2 4647  13.862   0.598   6.354 -3.9310  0.2112 -1.0326
29013SOL     OW 4648   9.730  12.252   1.780 -0.5518 -0.6493 -0.2336
29013SOL    HW1 4649   9.738  12.323   1.718  0.1122 -1.0725 -0.6447
29013SOL    HW2 4650   9.638  12.224   1.774 -0.4648 -0.7509 -1.0899
29014SOL     OW 4651   1.978   6.233   4.914 -0.1616  0.2747  0.2437
29014SOL    HW1 4652   1.949   6.142   4.919 -2.2803  0.8366 -0.4145
29014SOL    HW2 4653   2.057   6.237   4.968 -0.4399 -1.7815  0.8799
29015SOL     OW 4654   5.677   7.028  13.267  0.5915  0.3752 -0.0069
29015SOL    HW1 4655   5.736   7.104  13.261 -0.3999  1.2226  0.6789
29015SOL    HW2 4656   5.732   6.954  13.243  1.7025  1.2553 -0.2922
29016SOL     OW 4657   1.617   4.870   5.427  0.1072  0.0978 -0.4488
29016SOL    HW1 4658   1.659   4.802   5.375  0.7704  0.4164 -0.3445
29016SOL    HW2 4659   1.675   4.882   5.502 -0.4781  0.1349  0.0098
29017SOL     OW 4660   8.435   0.414  10.848 -0.4598 -0.0334  0.4093
29017SOL    HW1 4661   8.510   0.356  10.850  0.5201  1.1291 -0.5095
29017SOL    HW2 4662   8.369   0.372  10.902 -0.2386 -2.5705 -1.1425
29018SOL     OW 4663   3.782   7.690   4.549 -0.7153  0.6804  0.2226
29018SOL    HW1 4664   3.749   7.616   4.600 -0.3307  1.0164  0.9786
29018SOL    HW2 4665   3.709   7.751   4.544 -1.7648 -0.6358 -2.2548
29019SOL     OW 4666   0.890   8.494  11.725 -0.0255  0.2250  0.0536
29019SOL    HW1 4667   0.801   8.460  11.729  0.8875 -2.3407  0.3966
29019SOL    HW2 4668   0.933   8.459  11.803  1.1850  1.7649  0.1259
29020SOL     OW 4669   1.757   6.705  13.298 -0.1553 -0.2830 -0.1839
29020SOL    HW1 4670   1.775   6.665  13.214 -0.8363  1.0262 -0.9857
29020SOL    HW2 4671   1.673   6.668  13.325 -0.6556  0.3754 -0.7972
29021SOL     OW 4672   8.327  12.556   6.809 -0.5142  0.3046 -0.3285
29021SOL    HW1 4673   8.255  12.572   6.749  0.5907  0.7430 -1.5923
29021SOL    HW2 4674   8.297  12.590   6.893 -2.3889 -1.0212 -0.4129
29022SOL     OW 4675   7.777   3.842   1.995  0.0560  0.2470 -0.7383
29022SOL    HW1 4676   7.710   3.776   1.978  0.5560 -0.6566  0.5822
29022SOL    HW2 4677   7.760   3.912   1.931 -3.0224  0.7268  0.4304
29023SOL     OW 4678   3.839  11.759   1.677 -0.3482  0.0451  0.2272
29023SOL    HW1 4679   3.853  11.848   1.709  0.0236 -0.4908  1.6287
29023SOL    HW2 4680   3.858  11.703   1.752 -0.8086 -1.2147 -0.5597
29024SOL     OW 4681  12.592   9.298  13.173  1.1323  0.6324 -0.3878
29024SOL    HW1 4682  12.559   9.377  13.130 -1.0064  0.4326  0.7558
29024SOL    HW2 4683  12.675   9.325  13.212  1.4297  1.7261 -1.7003
29025SOL     OW 4684   4.093   3.390   5.299 -0.3265 -0.0433 -0.0044
29025SOL    HW1 4685   4.149   3.320   5.333 -0.5609  0.9649  2.7330
29025SOL    HW2 4686   4.154   3.455   5.263  0.0782 -0.2528  0.2975
29026SOL     OW 4687   0.336   5.540   8.792  0.3613  0.2969 -0.0149
29026SOL    HW1 4688   0.267   5.505   8.849 -1.1404 -0.4896 -2.1962
29026SOL    HW2 4689   0.411   5.482   8.807 -0.8849 -1.6108 -0.8006
29027SOL     OW 4690  14.037   8.235   7.022  0.3920  0.1783 -0.1440
29027SOL    HW1 4691  13.945   8.212   7.039 -0.2437  0.6155 -2.6723
29027SOL    HW2 4692  14.060   8.292   7.095 -1.2405 -0.1933  0.7234
29028SOL     OW 4693   5.496  10.752   0.878 -0.0034 -0.2335  0.0651
29028SOL    HW1 4694   5.417  10.715   0.918 -2.7541  2.1474 -2.6844
29028SOL    HW2 4695   5.507  10.703   0.797  3.3348 -2.5411  1.6821
29029SOL     OW 4696  11.683  10.800   2.024 -0.5569  0.0237 -0.0081
29029SOL    HW1 4697  11.667  10.717   2.070 -0.5022  0.2354  0.3984
29029SOL    HW2 4698  11.741  10.849   2.082 -1.6281  0.8798  0.3817
29030SOL     OW 4699   4.707   7.962   5.956 -0.2477  0.1053 -0.1176
29030SOL    HW1 4700   4.723   7.970   5.862 -3.0183  0.5278 -0.6178
29030SOL    HW2 4701   4.718   8.051   5.990 -0.0412  0.0988 -0.1629
29031SOL     OW 4702  13.690   0.330   7.882  0.0754  0.7632 -0.2046
29031SOL    HW1 4703  13.657   0.380   7.956 -0.3713  3.1974 -1.9502
29031SOL    HW2 4704  13.626   0.259   7.870  0.6777 -0.2913  2.2504
29032SOL     OW 4705   8.906   6.527   5.002  0.2625  0.0183  0.5148
29032SOL    HW1 4706   8.825   6.551   4.958 -0.0282  0.0453  1.0568
29032SOL    HW2 4707   8.963   6.603   4.991  0.8306 -0.6179 -1.2927
29033SOL     OW 4708  14.057   8.526  12.250  0.6477  0.4245  0.6087
29033SOL    HW1 4709  14.143   8.490  12.271  0.5145 -0.3173 -0.0689
29033SOL    HW2 4710  14.002   8.449  12.235  0.3484  0.9069 -0.8532
29034SOL     OW 4711  10.792  13.736   4.507 -0.6785  0.0318  0.0308
29034SOL    HW1 4712  10.735  13.692   4.569 -1.4274 -1.1241 -1.4310
29034SOL    HW2 4713  10.829  13.666   4.454  1.4586  0.8191  0.3594
29035SOL     OW 4714   0.110  13.344   6.766 -0.1457 -0.0095 -0.0020
29035SOL    HW1 4715   0.097  13.419   6.824 -1.5026  0.3326 -0.6964
29035SOL    HW2 4716   0.046  13.279   6.796  2.3217 -1.7973  1.8947
29036SOL     OW 4717   6.422  11.807   9.054 -0.4465 -0.2507  0.1318
29036SOL    HW1 4718   6.346  11.765   9.095 -0.3888 -0.7025 -0.2038
29036SOL    HW2 4719   6.476  11.733   9.024 -0.3138  0.0652 -0.4175
29037SOL     OW 4720   1.862  13.816   1.550  0.0819 -0.1836  0.3758
29037SOL    HW1 4721   1.844  13.876   1.623 -0.4060 -0.8810  0.8367
29037SOL    HW2 4722   1.782  13.765   1.541  0.1829 -0.1832 -0.5826
29038SOL     OW 4723   5.367   3.461   9.163 -0.0482  0.3216 -0.2038
29038SOL    HW1 4724   5.387   3.369   9.143 -0.7826  0.5770 -2.4866
29038SOL    HW2 4725   5.274   3.461   9.183 -0.3909  0.7059 -1.6496
29039SOL     OW 4726  10.734   7.347   2.975  0.0788  0.4418 -0.1326
29039SOL    HW1 4727  10.755   7.420   2.917 -0.8812  1.9197  1.3125
29039SOL    HW2 4728  10.685   7.386   3.047 -1.1227 -1.7372  0.3381
29040SOL     OW 4729   2.466   0.011   4.553  0.0278 -0.3175 -0.0852
29040SOL    HW1 4730   2.421   0.004   4.637  0.9531 -0.6533  0.3965
29040SOL    HW2 4731   2.521  -0.068   4.548 -0.6708 -0.7584 -1.4044
29041SOL     OW 4732   5.663   0.448  10.997 -0.2408 -0.5317 -0.6797
29041SOL    HW1 4733   5.695   0.427  10.909  0.7870  2.3015 -1.0798
29041SOL    HW2 4734   5.669   0.543  11.003  1.3496 -0.6967  3.0708
29042SOL     OW 4735   0.959   3.052  10.380 -0.0064  0.0656  0.1177
29042SOL    HW1 4736   1.040   3.080  10.337 -0.4838  1.1109 -0.1290
29042SOL    HW2 4737   0.989   3.004  10.457  0.8506  0.4512  0.0427
29043SOL     OW 4738   7.926  13.899   4.085 -0.3178 -0.1310 -0.5911
29043SOL    HW1 4739   7.973  13.872   4.163  0.9342 -0.5326 -1.4580
29043SOL    HW2 4740   7.889  13.819   4.049 -0.0677 -0.0922 -0.9394
29044SOL     OW 4741  11.552   6.820  12.154  0.1609  0.4153 -0.1099
29044SOL    HW1 4742  11.516   6.854  12.072 -1.1940  0.1329  0.3344
29044SOL    HW2 4743  11.490   6.848  12.221 -0.5448 -2.0684  0.3950
29045SOL     OW 4744   2.414  12.259   2.995 -0.9673  0.2980  0.2681
29045SOL    HW1 4745   2.343  12.221   3.047  1.0967 -2.2996  1.4596
29045SOL    HW2 4746   2.487  12.268   3.057  0.3795  0.8647 -1.3321
29046SOL     OW 4747   9.335  11.412   9.517 -1.0713  0.0181 -0.3291
29046SOL    HW1 4748   9.429  11.404   9.535 -1.0859 -1.4963 -0.8462
29046SOL    HW2 4749   9.298  11.329   9.546 -1.8220 -0.5635 -2.7991
29047SOL     OW 4750   8.205   6.473   3.634 -0.0420 -0.5667 -0.1748
29047SOL    HW1 4751   8.297   6.458   3.655  0.3668  2.3232  0.5121
29047SOL    HW2 4752   8.162   6.488   3.718 -2.0430 -5.2483 -0.0670
29048SOL     OW 4753   5.190   7.693   2.506 -0.2287  0.0041  0.2597
29048SOL    HW1 4754   5.107   7.678   2.552 -0.3808  1.5326  0.5506
29048SOL    HW2 4755   5.204   7.613   2.455 -1.2881 -0.7506  1.1002
29049SOL     OW 4756  11.192   6.177  11.857  0.8975  0.1835  0.0479
29049SOL    HW1 4757  11.239   6.244  11.907  0.0789  1.1475 -0.4329
29049SOL    HW2 4758  11.106   6.215  11.842 -0.2337 -1.6768  1.2744
29050SOL     OW 4759   1.927  12.146   7.102 -0.0413  0.0287  0.3863
29050SOL    HW1 4760   1.893  12.182   7.020  0.6159 -0.6939 -0.2220
29050SOL    HW2 4761   1.854  12.096   7.138 -0.7078  1.2941  0.8436
29051SOL     OW 4762  12.090   8.117  13.993 -0.3021 -0.1307  0.2020
29051SOL    HW1 4763  12.013   8.064  13.972 -1.1305  0.0117  2.5104
29051SOL    HW2 4764  12.057   8.187  14.049  1.1674  1.3744 -0.7178
29052SOL     OW 4765   2.023   9.138   5.155 -0.3684  0.0224 -0.2032
29052SOL    HW1 4766   2.044   9.098   5.239 -0.4420 -1.3435 -0.7926
29052SOL    HW2 4767   1.943   9.094   5.127  1.1809 -1.7442 -2.2881
29053SOL     OW 4768   8.047   9.806  12.360  0.2206 -0.1941  0.7583
29053SOL    HW1 4769   8.050   9.855  12.442  1.0456  1.2583 -0.0841
29053SOL    HW2 4770   8.059   9.873  12.292  0.2251 -1.4412 -0.5174
29054SOL     OW 4771  11.443   5.420   5.424 -0.3023 -0.4126  0.4282
29054SOL    HW1 4772  11.427   5.335   5.465  2.6779 -1.0899  0.4718
29054SOL    HW2 4773  11.465   5.399   5.333 -1.4067  0.5199 -0.0677
29055SOL     OW 4774   4.886   3.677   5.782 -0.4941  0.2604 -0.4854
29055SOL    HW1 4775   4.869   3.685   5.688 -0.9583  0.8386 -0.3610
29055SOL    HW2 4776   4.932   3.758   5.805  0.5309 -0.3238 -0.3970
29056SOL     OW 4777   2.299   8.245   9.118 -0.1966  0.4653  0.0390
29056SOL    HW1 4778   2.390   8.220   9.137 -0.4536 -0.6278 -0.1503
29056SOL    HW2 4779   2.270   8.183   9.052 -0.8078  1.3781 -0.5764
29057SOL     OW 4780   9.966   7.741   4.935 -0.2343 -0.6414  0.4904
29057SOL    HW1 4781   9.979   7.805   4.866  0.7080  1.1755  2.2607
29057SOL    HW2 4782  10.000   7.659   4.899  0.0591  0.1931 -1.2254
29058SOL     OW 4783   6.499  13.140   3.223  0.0407  0.4472 -0.1338
29058SOL    HW1 4784   6.541  13.187   3.151  0.5807  0.2654  0.0595
29058SOL    HW2 4785   6.557  13.154   3.298  0.4905 -0.9628 -0.1977
29059SOL     OW 4786   6.433   3.536  10.234 -0.2655 -0.0946 -0.0883
29059SOL    HW1 4787   6.405   3.479  10.162  0.5615 -1.2794  0.5069
29059SOL    HW2 4788   6.443   3.478  10.309  3.4572  0.2259 -0.1360
29060SOL     OW 4789   2.331   7.369   6.170 -0.2563  0.0845  0.4111
29060SOL    HW1 4790   2.248   7.397   6.209 -0.7424 -1.2708  0.3905
29060SOL    HW2 4791   2.378   7.327   6.243 -0.4458 -0.9261 -0.0345
29061SOL     OW 4792   8.340   9.972   2.194  0.3615 -0.4969 -0.0114
29061SOL    HW1 4793   8.290   9.895   2.165  0.2771 -0.5314  0.2221
29061SOL    HW2 4794   8.340  10.030   2.118  0.8686 -0.9445 -0.3622
29062SOL     OW 4795   9.567   1.710  10.213 -0.4244 -0.2097  0.2684
29062SOL    HW1 4796   9.627   1.711  10.288  1.3756 -2.0413 -1.0391
29062SOL    HW2 4797   9.574   1.798  10.175  1.1510 -0.2556  0.3892
29063SOL     OW 4798  12.039  11.796   1.430 -0.3661 -0.0696  0.1078
29063SOL    HW1 4799  11.977  11.735   1.469  0.9070 -1.0110  0.6927
29063SOL    HW2 4800  12.069  11.752   1.350  0.6793 -0.3066  0.6167
29064SOL     OW 4801   0.975  10.236   3.682 -0.1709  0.4679 -0.2089
29064SOL    HW1 4802   0.973  10.148   3.718  0.8399  0.7366  0.5691
29064SOL    HW2 4803   0.912  10.285   3.735  0.4805  0.5930  0.4638
29065SOL     OW 4804  13.879   4.099  13.601  0.3009 -0.7378  0.2490
29065SOL    HW1 4805  13.912   4.137  13.683 -1.8078 -0.5524  1.0878
29065SOL    HW2 4806  13.953   4.050  13.565  2.2190  1.6916  0.6615
29066SOL     OW 4807   3.133  13.927   7.988  0.1975  0.2051  0.1058
29066SOL    HW1 4808   3.122  13.881   8.071 -0.6492 -2.7417 -1.5315
29066SOL    HW2 4809   3.045  13.933   7.952  0.7682 -0.2624 -1.4291
29067SOL     OW 4810  10.983   2.842  12.950 -0.4199 -0.0362 -0.5230
29067SOL    HW1 4811  10.944   2.929  12.943 -1.0135  0.1249  3.0084
29067SOL    HW2 4812  10.911   2.782  12.936 -0.8811  0.1793  0.7464
29068SOL     OW 4813   7.351   1.440   3.215 -0.3896 -0.6248  0.3330
29068SOL    HW1 4814   7.268   1.452   3.169 -0.0793  0.4608  0.0412
29068SOL    HW2 4815   7.408   1.507   3.179  0.7529 -1.6158  0.2364
29069SOL     OW 4816   4.544  11.109   4.526  0.0693 -0.1768 -0.3910
29069SOL    HW1 4817   4.477  11.116   4.594  0.9950 -1.5058  0.7205
29069SOL    HW2 4818   4.521  11.177   4.463 -0.9893  0.9181  1.0992
29070SOL     OW 4819   6.035   2.912  13.536  0.0089 -0.5456 -0.5834
29070SOL    HW1 4820   6.066   2.870  13.456 -0.4355 -2.1995  0.0683
29070SOL    HW2 4821   6.113   2.918  13.591  0.6076  1.7548 -1.5326
29071SOL     OW 4822   1.650   0.833   8.202 -0.7362  0.0970  0.4988
29071SOL    HW1 4823   1.669   0.807   8.112  1.1769 -1.2757  1.2403
29071SOL    HW2 4824   1.624   0.752   8.245  0.0591  0.4105  1.5914
29072SOL     OW 4825  13.126   5.895   6.275 -0.2052  0.9478 -0.0589
29072SOL    HW1 4826  13.198   5.879   6.336  0.5951 -0.2788 -1.2887
29072SOL    HW2 4827  13.142   5.983   6.242  0.7748  0.6692 -0.3607
29073SOL     OW 4828   6.864   6.451   1.543  0.6419  0.2899  0.0953
29073SOL    HW1 4829   6.883   6.542   1.518  2.0406 -0.4819 -1.8193
29073SOL    HW2 4830   6.937   6.400   1.508  0.6222 -1.4541  2.3429
29074SOL     OW 4831   9.623  10.105   0.130 -0.2020  0.1108  0.2697
29074SOL    HW1 4832   9.621  10.021   0.084  2.4807  0.0406  0.1094
29074SOL    HW2 4833   9.633  10.082   0.222  0.6699  0.2168  0.2125
29075SOL     OW 4834   0.378  10.304  12.022  0.1102  0.1781 -0.1572
29075SOL    HW1 4835   0.396  10.214  12.049 -0.5108 -0.0126 -0.3562
29075SOL    HW2 4836   0.284  10.305  12.004  0.0341  0.9826  0.2682
29076SOL     OW 4837  10.485  11.381   5.488  0.4963 -0.6304  0.0148
29076SOL    HW1 4838  10.396  11.379   5.523  0.1034 -0.0446 -0.9144
29076SOL    HW2 4839  10.474  11.393   5.394  1.5714  0.8887  0.0433
29077SOL     OW 4840   8.650  12.693   1.910 -0.0981 -0.2662 -0.3928
29077SOL    HW1 4841   8.742  12.671   1.892 -0.0315  0.0716 -0.4639
29077SOL    HW2 4842   8.602  12.656   1.835  0.0470  0.0682 -0.6544
29078SOL     OW 4843   7.535  13.654   6.761  0.0286 -0.4275  0.1138
29078SOL    HW1 4844   7.464  13.590   6.753  0.7839 -1.2271 -0.4147
29078SOL    HW2 4845   7.532  13.682   6.852 -1.3254 -0.0067 -0.0318
29079SOL     OW 4846   3.265   6.909  13.735 -0.4297  0.2915  0.6190
29079SOL    HW1 4847   3.316   6.981  13.700 -1.4290  0.6003 -0.2295
29079SOL    HW2 4848   3.174   6.933  13.719 -0.7978 -2.2376 -2.0270
29080SOL     OW 4849   7.238  12.053   3.622 -0.1750 -0.1288 -0.3576
29080SOL    HW1 4850   7.314  12.001   3.598  0.0316  0.5417 -1.2171
29080SOL    HW2 4851   7.216  12.025   3.711 -0.6527 -2.3502 -1.1215
29081SOL     OW 4852   0.980   3.940   3.407 -0.3975  0.1620 -0.5818
29081SOL    HW1 4853   0.893   3.930   3.368 -0.5060 -1.4577  0.0089
29081SOL    HW2 4854   0.968   4.006   3.476 -1.7759 -1.7301  1.1156
29082SOL     OW 4855   2.048   1.531   4.613 -0.1991 -0.3670 -0.9964
29082SOL    HW1 4856   2.139   1.502   4.608 -0.2815 -1.0482  0.7273
29082SOL    HW2 4857   2.051   1.617   4.655 -0.3176 -0.1692 -1.3898
29083SOL     OW 4858   6.345  11.024   5.458  0.3313 -0.0229  0.6686
29083SOL    HW1 4859   6.427  11.054   5.418 -0.9346  2.2406 -0.3849
29083SOL    HW2 4860   6.361  11.031   5.552  1.1341  1.0784  0.4767
29084SOL     OW 4861   6.750  12.057   2.023  0.4678  0.0702  0.0740
29084SOL    HW1 4862   6.761  11.964   2.004 -2.7296 -0.5662  0.7853
29084SOL    HW2 4863   6.761  12.064   2.118 -0.3754  0.1989  0.1715
29085SOL     OW 4864   6.848   4.611   9.132  0.1251  0.5239  0.1839
29085SOL    HW1 4865   6.816   4.524   9.107 -1.9210  0.8893  1.3834
29085SOL    HW2 4866   6.943   4.600   9.137  0.0239 -1.3181 -0.8446
29086SOL     OW 4867   8.617   6.621  14.072 -0.4341 -0.0169  0.6017
29086SOL    HW1 4868   8.681   6.664  14.129  0.6887 -0.2566 -0.4226
29086SOL    HW2 4869   8.591   6.688  14.010 -1.1615  0.0662  0.9916
29087SOL     OW 4870   9.156   0.273   2.097 -0.4940  0.4099  0.0361
29087SOL    HW1 4871   9.135   0.363   2.071 -0.7151  0.5224  0.5826
29087SOL    HW2 4872   9.071   0.230   2.105 -0.6335  0.9895  2.7005
29088SOL     OW 4873   3.539  12.045   6.802  0.0407 -0.1773  0.0481
29088SOL    HW1 4874   3.576  12.133   6.802 -2.7334  1.0977 -1.3597
29088SOL    HW2 4875   3.578  12.002   6.726  0.4883  0.2272  0.0482
29089SOL     OW 4876   4.442   1.794  10.284  0.4096 -0.2299 -0.4654
29089SOL    HW1 4877   4.501   1.798  10.359 -2.1406  0.2789  1.6756
29089SOL    HW2 4878   4.456   1.877  10.238  2.1588 -0.6427 -0.7383
29090SOL     OW 4879  12.457  12.904   3.397 -0.8716 -0.4631 -0.0002
29090SOL    HW1 4880  12.540  12.952   3.395 -0.8227 -0.3922  1.8521
29090SOL    HW2 4881  12.405  12.948   3.464 -2.4962 -0.4148 -1.2290
29091SOL     OW 4882  11.060  13.370  12.561 -0.0598 -0.2592 -0.1054
29091SOL    HW1 4883  10.988  13.350  12.502 -0.1718 -0.4192  0.0848
29091SOL    HW2 4884  11.060  13.298  12.625 -0.0335 -0.0087  0.1775
29092SOL     OW 4885   4.145   0.174  12.167  0.2175 -0.4126 -0.5839
29092SOL    HW1 4886   4.175   0.240  12.104 -2.1711  0.3188 -1.0904
29092SOL    HW2 4887   4.130   0.096  12.114 -2.9405  0.5350 -1.3587
29093SOL     OW 4888  11.958   9.437   2.968  0.1191 -0.1060  0.1083
29093SOL    HW1 4889  11.980   9.530   2.967  0.5751 -0.0380  3.5327
29093SOL    HW2 4890  12.038   9.395   3.000 -0.2995 -1.6284 -0.7623
29094SOL     OW 4891   3.464  14.070  10.638 -0.1617 -0.4731 -0.1441
29094SOL    HW1 4892   3.546  14.021  10.646  0.2172  0.1941  0.0947
29094SOL    HW2 4893   3.396  14.005  10.657  0.2713 -1.1768 -0.9368
29095SOL     OW 4894   3.236  12.450  12.848 -0.1808  0.0597 -0.2111
29095SOL    HW1 4895   3.182  12.497  12.785 -1.1301 -0.1089  0.4533
29095SOL    HW2 4896   3.326  12.473  12.824 -0.5397  0.4062 -1.2901
29096SOL     OW 4897   4.859   0.010  13.865  0.2597  0.1196 -0.1928
29096SOL    HW1 4898   4.836   0.070  13.937  0.6513 -1.2883  1.1621
29096SOL    HW2 4899   4.781  -0.046  13.856  0.3172  0.1200 -0.6964
29097SOL     OW 4900   7.461   5.525  13.751 -0.1723  0.0920 -0.3031
29097SOL    HW1 4901   7.508   5.608  13.751  0.1764 -0.0944  0.3792
29097SOL    HW2 4902   7.496   5.477  13.676  0.3467  0.1695 -0.1148
29098SOL     OW 4903   0.889   7.225   9.229  0.0671 -0.1777  0.3321
29098SOL    HW1 4904   0.930   7.145   9.262  0.8430  0.2407  0.4056
29098SOL    HW2 4905   0.939   7.295   9.269 -0.1636  0.3479 -0.2872
29099SOL     OW 4906   2.638   3.960   9.774 -0.2918 -0.3359  0.6041
29099SOL    HW1 4907   2.692   3.938   9.698  0.4914 -1.4695  1.4701
29099SOL    HW2 4908   2.697   4.004   9.834 -1.2746  2.0117 -0.0478
29100SOL     OW 4909   7.251  13.597   9.777  0.0108  0.5296 -0.5615
29100SOL    HW1 4910   7.256  13.503   9.794  0.9533  0.4060 -1.3955
29100SOL    HW2 4911   7.192  13.605   9.703  1.1188  0.4276 -1.4876
29101SOL     OW 4912  12.577   1.555  10.344 -0.5612 -0.2723  0.7445
29101SOL    HW1 4913  12.621   1.622  10.396 -0.6235  0.2418  0.1441
29101SOL    HW2 4914  12.573   1.592  10.256 -1.4194 -0.6826  0.6046
29102SOL     OW 4915  12.326   6.181   2.984  0.3571  0.1299 -0.4599
29102SOL    HW1 4916  12.401   6.226   2.946  0.8903  1.1562  1.6624
29102SOL    HW2 4917  12.362   6.105   3.029  0.3835  1.2853  1.6157
29103SOL     OW 4918  11.058   0.285  12.133  0.2761  0.0678  0.3011
29103SOL    HW1 4919  11.040   0.345  12.206  0.3747  0.8877 -0.3287
29103SOL    HW2 4920  11.140   0.242  12.157 -0.1105 -0.2661  1.0430
29104SOL     OW 4921   1.901   1.274   3.053 -0.2922  0.2824  0.2517
29104SOL    HW1 4922   1.937   1.186   3.046  0.9206  0.5308  2.3593
29104SOL    HW2 4923   1.965   1.330   3.009 -0.4582  0.2284 -0.0563
29105SOL     OW 4924   1.341   3.099  13.823 -0.1697 -0.2552  0.3717
29105SOL    HW1 4925   1.414   3.135  13.874 -1.0894 -0.4368  1.8823
29105SOL    HW2 4926   1.382   3.044  13.757  1.1131  0.7397  0.3114
29106SOL     OW 4927   0.608  12.485   1.374  0.4519 -0.0733  0.4816
29106SOL    HW1 4928   0.608  12.506   1.467  1.4261 -2.0969  0.9853
29106SOL    HW2 4929   0.700  12.468   1.353  0.7477  3.1089 -1.5967
29107SOL     OW 4930   9.270   4.865   4.779 -0.3745 -0.2112 -0.1625
29107SOL    HW1 4931   9.326   4.793   4.750 -1.9523 -1.7154  0.3444
29107SOL    HW2 4932   9.328   4.940   4.784  0.8549 -0.7940 -3.2081
29108SOL     OW 4933  13.907   4.952   9.150 -0.0560  0.0966  0.6442
29108SOL    HW1 4934  13.975   4.889   9.175 -0.1931 -1.1824 -1.8815
29108SOL    HW2 4935  13.953   5.036   9.148  1.7780 -0.8143 -1.6131
29109SOL     OW 4936   3.141   3.303   2.559 -0.0555  0.0787 -0.5267
29109SOL    HW1 4937   3.195   3.226   2.572 -1.5839 -0.7754  1.3294
29109SOL    HW2 4938   3.202   3.373   2.537  1.4621 -1.4387 -1.2908
29110SOL     OW 4939   2.359   0.446   9.387  0.3049 -0.3438 -0.0544
29110SOL    HW1 4940   2.264   0.440   9.376  0.2317 -0.1700  0.4589
29110SOL    HW2 4941   2.394   0.380   9.328 -0.2436 -2.3094  1.6918
29111SOL     OW 4942  11.086  12.205  13.884 -0.2289 -0.3860 -0.5775
29111SOL    HW1 4943  11.130  12.123  13.908 -0.7826 -0.4526  0.2500
29111SOL    HW2 4944  10.994  12.182  13.876 -0.3251  0.0605 -0.8045
29112SOL     OW 4945   7.732   6.986  13.111  0.0967  0.5655  0.1543
29112SOL    HW1 4946   7.761   7.054  13.050 -1.0935 -0.0438 -1.1395
29112SOL    HW2 4947   7.637   6.982  13.099  0.2311 -2.0485 -0.6260
29113SOL     OW 4948   0.868   4.962   6.313 -0.0973 -0.4591  0.1394
29113SOL    HW1 4949   0.898   4.992   6.227 -0.1300 -0.8244 -0.0052
29113SOL    HW2 4950   0.817   4.883   6.293  0.1102 -0.6915  0.5183
29114SOL     OW 4951  13.953   0.758   4.969  0.4780  0.0733 -0.0316
29114SOL    HW1 4952  13.966   0.748   5.063 -0.8007 -1.1922  0.0504
29114SOL    HW2 4953  13.921   0.848   4.958 -2.4471 -0.6923  1.1880
29115SOL     OW 4954   0.507   3.955   2.174  0.0249  0.6659 -0.4964
29115SOL    HW1 4955   0.454   3.911   2.240  1.9262 -0.9320  0.0540
29115SOL    HW2 4956   0.455   3.949   2.094 -0.2111 -1.7760 -0.2203
29116SOL     OW 4957   1.935   1.165   8.438 -0.5665  0.0821 -0.5088
29116SOL    HW1 4958   1.896   1.246   8.404  0.0885  1.0666  0.9752
29116SOL    HW2 4959   1.869   1.098   8.419 -2.7266  1.5407  1.1971
29117SOL     OW 4960  11.069  11.962   4.564 -0.3256  0.3362  0.3440
29117SOL    HW1 4961  11.092  11.945   4.472  0.0018  0.9499  0.3090
29117SOL    HW2 4962  10.997  11.901   4.582  1.0503 -1.3896  0.3465
29118SOL     OW 4963   5.581   4.696   8.427 -0.3292  0.0612 -0.5690
29118SOL    HW1 4964   5.499   4.708   8.379 -0.8827  0.2318  0.4067
29118SOL    HW2 4965   5.619   4.616   8.390 -1.9551 -1.2182  0.3661
29119SOL     OW 4966   3.831   1.752   6.169 -0.3775  0.0527  0.1933
29119SOL    HW1 4967   3.803   1.668   6.133 -1.0081  0.4549 -0.2846
29119SOL    HW2 4968   3.768   1.815   6.134  1.1711  1.0179 -1.0271
29120SOL     OW 4969   7.009  13.158   5.482  0.8717  0.0796 -0.2217
29120SOL    HW1 4970   7.054  13.074   5.488  0.3329 -0.2499 -0.6966
29120SOL    HW2 4971   6.961  13.154   5.400 -0.6863  0.0752  0.6434
29121SOL     OW 4972  12.247  10.751   1.577  0.1861  0.1679 -0.4084
29121SOL    HW1 4973  12.168  10.803   1.591  0.6761  1.1024 -0.9879
29121SOL    HW2 4974  12.235  10.673   1.631 -0.0715  1.3903  1.3857
29122SOL     OW 4975  10.267  13.803  11.947  0.1899  0.4320  0.3859
29122SOL    HW1 4976  10.312  13.830  12.027 -0.0977  0.9239  0.3913
29122SOL    HW2 4977  10.234  13.885  11.910 -0.4028  0.1177  0.2074
29123SOL     OW 4978   0.921  12.824   9.337  0.0800  0.0113  0.3233
29123SOL    HW1 4979   0.916  12.880   9.415  0.6096 -0.2394  0.5441
29123SOL    HW2 4980   0.947  12.883   9.267 -0.2110  0.2039  0.3747
29124SOL     OW 4981   1.423  10.492   1.593  0.1454 -0.2780  0.0291
29124SOL    HW1 4982   1.473  10.498   1.675  0.8771 -0.1607 -0.4175
29124SOL    HW2 4983   1.482  10.445   1.533 -0.6402 -0.9512 -0.2339
29125SOL     OW 4984   2.962  11.904   8.023 -0.0622  0.0818 -0.3001
29125SOL    HW1 4985   3.022  11.978   8.026  1.2049 -0.8305 -1.6238
29125SOL    HW2 4986   2.879  11.938   8.055  1.2420  1.2942  1.9799
29126SOL     OW 4987   9.132   9.053   2.861  0.4117  0.3282  0.0679
29126SOL    HW1 4988   9.162   9.023   2.776  0.7503  0.6590  0.0711
29126SOL    HW2 4989   9.159   8.984   2.922  1.5622  0.8285  0.1370
29127SOL     OW 4990   7.425  13.825   8.038  0.3603 -0.1597 -0.1995
29127SOL    HW1 4991   7.391  13.752   7.987  0.0107 -0.3907  0.3504
29127SOL    HW2 4992   7.347  13.872   8.068  0.5346 -0.2805  0.4694
29128SOL     OW 4993  11.398  10.137  11.258  0.1346  0.0658  0.2330
29128SOL    HW1 4994  11.307  10.164  11.243  0.0248 -0.7674 -0.7737
29128SOL    HW2 4995  11.395  10.041  11.251  1.0610  0.0217  0.3792
29129SOL     OW 4996  11.737   9.945   3.146  0.1769 -0.6243 -0.1962
29129SOL    HW1 4997  11.769   9.857   3.168  0.4628 -0.7480 -1.0582
29129SOL    HW2 4998  11.813   9.989   3.107 -0.0865 -0.1491 -0.1795
29130SOL     OW 4999  12.688   9.770   7.069 -0.1722 -0.1129 -0.3206
29130SOL    HW1 5000  12.681   9.716   6.990  0.0034  0.0310 -0.4341
29130SOL    HW2 5001  12.733   9.714   7.132  1.9146  0.6023 -1.0944
29131SOL     OW 5002   3.128   2.866   4.371 -1.0217 -0.0120 -0.2372
29131SOL    HW1 5003   3.068   2.940   4.365 -0.0912  0.6885 -1.3769
29131SOL    HW2 5004   3.071   2.789   4.378 -2.0233  0.7018 -0.3038
29132SOL     OW 5005   9.903   8.213   1.111  0.4814  0.1007 -0.1819
29132SOL    HW1 5006   9.859   8.285   1.065  0.7753  0.7608  0.5502
29132SOL    HW2 5007   9.855   8.134   1.083 -0.3385  0.6615 -0.3929
29133SOL     OW 5008   1.453  12.759  13.345 -0.1689  0.3587 -0.3900
29133SOL    HW1 5009   1.463  12.843  13.389 -0.7768  0.5777 -0.6505
29133SOL    HW2 5010   1.427  12.699  13.415  2.3385 -0.1360  0.2182
29134SOL     OW 5011   1.666  10.721  12.697 -0.0298  0.0336  0.4295
29134SOL    HW1 5012   1.638  10.643  12.744  0.3520 -1.1942 -1.2974
29134SOL    HW2 5013   1.593  10.740  12.638  0.0914  0.6931  0.4863
29135SOL     OW 5014   1.426  10.045   3.976  0.0424 -0.5324  0.2755
29135SOL    HW1 5015   1.519  10.039   3.999  0.3385 -0.0470 -0.7429
29135SOL    HW2 5016   1.412   9.972   3.916  0.1530  0.2915 -0.7797
29136SOL     OW 5017  12.039   9.829  13.091 -0.2957  0.3489  0.6418
29136SOL    HW1 5018  12.058   9.919  13.116 -1.5327  0.1323  2.5236
29136SOL    HW2 5019  12.090   9.776  13.153 -1.5197 -0.2173  1.1852
29137SOL     OW 5020   3.438   0.443   5.630  0.1461 -0.3824 -0.1692
29137SOL    HW1 5021   3.350   0.437   5.592 -0.4963  1.2319  0.9566
29137SOL    HW2 5022   3.440   0.377   5.699 -0.8338  0.6837  0.9347
29138SOL     OW 5023   7.632   6.973   4.732  0.3316  0.1204  0.2228
29138SOL    HW1 5024   7.559   6.967   4.671  1.3019 -0.9692 -0.8848
29138SOL    HW2 5025   7.647   6.883   4.760  1.6590  0.2283 -0.0912
29139SOL     OW 5026  12.864  12.303   6.033 -0.0073  0.2267  0.4071
29139SOL    HW1 5027  12.906  12.219   6.013 -1.3703 -0.2396 -0.7283
29139SOL    HW2 5028  12.866  12.351   5.950 -1.5575  0.2151  0.3233
29140SOL     OW 5029   9.594   5.895  11.450  1.1797  0.0165  0.2265
29140SOL    HW1 5030   9.641   5.819  11.417  1.5607  0.3025  0.0931
29140SOL    HW2 5031   9.580   5.876  11.543  1.2600 -0.2196  0.1908
29141SOL     OW 5032   1.047  12.553  13.747  0.0736  0.1715 -0.7315
29141SOL    HW1 5033   1.085  12.636  13.776 -0.8655  0.7150 -0.9961
29141SOL    HW2 5034   1.003  12.519  13.824  2.2159 -1.1614 -0.0283
29142SOL     OW 5035   3.482   2.535   9.077 -0.5861  0.4579  0.3644
29142SOL    HW1 5036   3.548   2.480   9.034 -0.9927 -1.3107  1.8693
29142SOL    HW2 5037   3.521   2.559   9.161 -1.3681  0.4008  0.7582
29143SOL     OW 5038  10.192  10.406   8.228  0.5395 -0.3723 -0.9657
29143SOL    HW1 5039  10.142  10.325   8.241  0.0999 -0.1439 -1.2059
29143SOL    HW2 5040  10.224  10.428   8.316  0.5948 -0.7631 -0.8857
29144SOL     OW 5041   8.777   4.322  13.778  0.1711 -0.0589 -0.5437
29144SOL    HW1 5042   8.753   4.414  13.771 -0.9463 -0.3584 -0.9370
29144SOL    HW2 5043   8.855   4.313  13.724  0.1450  0.6033 -0.6977
29145SOL     OW 5044   4.576   0.396  11.232  0.3243  0.5342  0.0968
29145SOL    HW1 5045   4.482   0.376  11.227 -0.2178  2.6821  0.5824
29145SOL    HW2 5046   4.584   0.482  11.192  2.1551  0.2814 -0.1542
29146SOL     OW 5047   5.016   9.377   3.280  0.0097 -0.0690 -0.0190
29146SOL    HW1 5048   5.100   9.369   3.235 -0.1869 -1.4321 -0.1891
29146SOL    HW2 5049   5.022   9.460   3.327  1.6131 -0.3205  0.2790
29147SOL     OW 5050  12.507   0.896  12.100 -0.7531  0.0157 -0.0991
29147SOL    HW1 5051  12.481   0.804  12.100  0.1513 -0.2564  0.0553
29147SOL    HW2 5052  12.449   0.938  12.037 -0.6318 -0.8265 -0.8004
29148SOL     OW 5053   5.638  11.280   3.147  0.0624  0.2323  0.6014
29148SOL    HW1 5054   5.609  11.370   3.159 -0.6056 -0.1365  2.0109
29148SOL    HW2 5055   5.729  11.287   3.119 -0.5294  1.3700 -1.2261
29149SOL     OW 5056   6.390   1.994   7.762 -0.4032 -0.6504 -0.0009
29149SOL    HW1 5057   6.325   1.930   7.734 -1.0651  0.0384 -0.0993
29149SOL    HW2 5058   6.342   2.077   7.762  0.3619 -0.1997  0.3773
29150SOL     OW 5059   2.522   5.851   6.275 -0.1699  0.4819 -0.1357
29150SOL    HW1 5060   2.437   5.831   6.235 -0.9710  2.9988  0.1632
29150SOL    HW2 5061   2.527   5.946   6.274  1.9842  0.4362  1.2725
29151SOL     OW 5062   4.108   5.098   9.279  0.5995 -0.6029 -0.0369
29151SOL    HW1 5063   4.162   5.020   9.284  1.0577 -0.2687  0.2693
29151SOL    HW2 5064   4.168   5.167   9.251  0.5363 -0.0313  1.1978
29152SOL     OW 5065   2.213   6.551   1.507 -0.4796  0.2415 -0.0970
29152SOL    HW1 5066   2.149   6.606   1.553 -0.0162  1.7307 -1.1690
29152SOL    HW2 5067   2.285   6.611   1.487  2.4235 -1.8054  3.0970
29153SOL     OW 5068   5.431  13.970   2.375 -0.2108  0.4053 -0.4627
29153SOL    HW1 5069   5.511  14.022   2.370  0.9186 -1.1199  0.6783
29153SOL    HW2 5070   5.405  13.975   2.467 -0.4073 -0.5609 -0.4597
29154SOL     OW 5071   8.212  12.767  12.140 -0.3140 -0.3660 -0.4950
29154SOL    HW1 5072   8.193  12.800  12.052 -2.4866 -1.4437 -0.4927
29154SOL    HW2 5073   8.243  12.677  12.125 -1.4762 -0.8453 -0.1727
29155SOL     OW 5074   5.980  10.087   1.160  0.0907  0.2792 -0.0603
29155SOL    HW1 5075   5.929  10.051   1.088 -0.0578  1.0294 -0.3378
29155SOL    HW2 5076   6.020  10.010   1.202 -2.3791 -0.4753  1.0653
29156SOL     OW 5077   7.935   4.383   4.883 -0.0623  0.3854 -0.7560
29156SOL    HW1 5078   7.844   4.408   4.898 -0.0408  0.9542 -1.4956
29156SOL    HW2 5079   7.934   4.287   4.879 -0.2727  0.2464  1.3769
29157SOL     OW 5080   8.217   9.271   3.568  0.1197 -0.5830 -0.3521
29157SOL    HW1 5081   8.163   9.287   3.646 -1.1006  2.8313 -1.6691
29157SOL    HW2 5082   8.170   9.203   3.520 -1.6437  0.3898 -0.1286
29158SOL     OW 5083   1.562   3.599   6.718 -0.0427 -0.3512  0.0734
29158SOL    HW1 5084   1.550   3.672   6.657 -0.0191 -0.2799  0.1536
29158SOL    HW2 5085   1.593   3.640   6.799 -0.0755 -0.4448  0.1340
29159SOL     OW 5086   6.484   0.076   8.961 -0.6840  0.4344  0.2164
29159SOL    HW1 5087   6.493   0.158   8.913  1.0261  0.3728  0.3688
29159SOL    HW2 5088   6.510   0.099   9.051  0.6875 -0.4388  0.0648
29160SOL     OW 5089  11.308   3.414   8.380 -0.5166 -0.0858  0.2194
29160SOL    HW1 5090  11.334   3.335   8.428  0.0942  0.6000  1.0465
29160SOL    HW2 5091  11.259   3.381   8.304  1.8569 -1.3945 -0.8513
29161SOL     OW 5092   2.391   7.994  13.700  0.4177 -0.0538 -0.2243
29161SOL    HW1 5093   2.405   8.009  13.794  2.4543 -0.1758 -0.4670
29161SOL    HW2 5094   2.444   7.917  13.680  0.1246  0.0642 -1.5105
29162SOL     OW 5095   7.606  11.930   1.406  0.3010 -0.0706 -0.3510
29162SOL    HW1 5096   7.699  11.938   1.428  0.4166 -0.3282 -0.7477
29162SOL    HW2 5097   7.590  11.836   1.403  0.2918 -0.0457 -1.3675
29163SOL     OW 5098   1.037   7.675   1.559 -0.6815 -0.2590  0.3617
29163SOL    HW1 5099   1.026   7.730   1.482 -1.4999 -1.0548 -0.1120
29163SOL    HW2 5100   1.068   7.735   1.627 -0.9840  0.6606 -0.2910
29164SOL     OW 5101   3.499   5.249  13.087 -0.1971  0.1557  0.2697
29164SOL    HW1 5102   3.454   5.165  13.088  1.4184 -0.7537 -0.5116
29164SOL    HW2 5103   3.428   5.314  13.083 -1.4672 -1.1402  0.8336
29165SOL     OW 5104   4.953   0.642   7.401  0.6389 -0.3022  0.2068
29165SOL    HW1 5105   4.972   0.715   7.342 -0.8827 -0.4482 -0.5133
29165SOL    HW2 5106   4.937   0.683   7.486 -0.3900  0.2464 -0.2326
29166SOL     OW 5107  11.999  12.199   2.201 -0.6871  0.6268  0.5048
29166SOL    HW1 5108  12.066  12.186   2.268  0.5147 -1.0344 -0.8955
29166SOL    HW2 5109  12.047  12.233   2.126 -2.2327  3.8728  0.8268
29167SOL     OW 5110   5.267   8.699   2.399  0.1070  0.1118  0.6373
29167SOL    HW1 5111   5.255   8.609   2.371 -0.4559 -0.1844  1.7917
29167SOL    HW2 5112   5.207   8.750   2.345  1.3088 -0.0118 -0.8891
29168SOL     OW 5113   3.831   2.125  13.239 -0.0763  0.3695  0.5750
29168SOL    HW1 5114   3.904   2.066  13.223  0.3146  1.1996 -0.8780
29168SOL    HW2 5115   3.835   2.189  13.168 -2.4306  0.2380  0.2228
29169SOL     OW 5116   8.339   7.375  13.974 -0.2621 -0.3101 -0.0480
29169SOL    HW1 5117   8.397   7.448  13.993 -1.1368  1.5924 -3.6686
29169SOL    HW2 5118   8.253   7.415  13.961 -0.8328 -1.9265 -1.8641
29170SOL     OW 5119   0.059   8.809   8.441 -0.1712  0.1721  0.0484
29170SOL    HW1 5120   0.100   8.833   8.524  0.6998  1.3370 -0.6926
29170SOL    HW2 5121   0.132   8.788   8.383 -0.5155  2.4202 -1.3455
29171SOL     OW 5122  13.215   7.098   3.240 -0.2711  0.3938 -0.1306
29171SOL    HW1 5123  13.307   7.071   3.247 -0.1005  1.2324  1.1902
29171SOL    HW2 5124  13.187   7.110   3.331 -1.6383  0.3344 -0.5297
29172SOL     OW 5125   1.199   6.156   1.654  1.0736  0.4910  0.0373
29172SOL    HW1 5126   1.195   6.214   1.578  0.6614 -0.4937 -0.7033
29172SOL    HW2 5127   1.108   6.135   1.674  1.2546 -0.9756 -0.5500
29173SOL     OW 5128   1.207  13.831   7.836  0.3058 -0.2424 -0.1043
29173SOL    HW1 5129   1.112  13.842   7.839  0.3278 -0.1848  0.4934
29173SOL    HW2 5130   1.242  13.918   7.859  0.4991 -0.3171 -0.1122
29174SOL     OW 5131   8.577   1.779   1.278 -0.0350 -0.7825  0.2985
29174SOL    HW1 5132   8.574   1.840   1.203  0.7218  2.9985  3.0452
29174SOL    HW2 5133   8.652   1.722   1.259  1.0025  0.9670 -1.2552
29175SOL     OW 5134  12.892   8.977   5.660  0.3016 -0.3137 -0.4855
29175SOL    HW1 5135  12.875   9.070   5.669  1.8076 -0.1812  1.9965
29175SOL    HW2 5136  12.810   8.935   5.684  0.4453  0.4060  1.5051
29176SOL     OW 5137  11.581   3.640   1.955  0.1336 -0.1495  0.6540
29176SOL    HW1 5138  11.518   3.568   1.959  0.2461 -0.2719  0.3063
29176SOL    HW2 5139  11.538   3.713   2.000 -0.8797  0.2289 -0.8329
29177SOL     OW 5140  12.074   1.032  11.664 -0.0856 -0.0147  0.1784
29177SOL    HW1 5141  12.050   0.946  11.698 -0.2466  0.1406  0.4637
29177SOL    HW2 5142  12.132   1.014  11.591 -1.6602 -0.4403 -1.0317
29178SOL     OW 5143  11.327   2.703  11.511 -0.1047  0.0330 -0.0713
29178SOL    HW1 5144  11.319   2.653  11.592 -0.7709  0.4621  0.1294
29178SOL    HW2 5145  11.421   2.705  11.493 -0.1109 -2.1349 -0.6219
29179SOL     OW 5146  13.113  13.176   7.847 -0.6448 -0.2689 -0.4058
29179SOL    HW1 5147  13.121  13.084   7.872 -0.0363  0.1852  1.1747
29179SOL    HW2 5148  13.162  13.223   7.914 -0.3541  1.1622 -1.5873
29180SOL     OW 5149  12.555   4.066   8.732  0.4115 -0.0425 -0.2774
29180SOL    HW1 5150  12.503   4.145   8.746  0.7843  0.2630 -0.5894
29180SOL    HW2 5151  12.582   4.040   8.821  0.2219  0.1358 -0.1654
29181SOL     OW 5152   9.879   4.679  13.440  0.2995 -0.2037 -0.2727
29181SOL    HW1 5153   9.881   4.729  13.521 -0.8820 -1.7523  0.7820
29181SOL    HW2 5154   9.952   4.713  13.388 -0.5877  2.7151  0.2391
29182SOL     OW 5155   8.115  11.848  12.787 -0.1953  0.9032  0.3556
29182SOL    HW1 5156   8.114  11.833  12.882 -1.9591 -3.0960 -0.0902
29182SOL    HW2 5157   8.023  11.857  12.763 -0.0411 -1.1595 -1.2425
29183SOL     OW 5158  10.390   2.749   1.367  0.3685  0.0842  0.1513
29183SOL    HW1 5159  10.412   2.766   1.459  1.8345 -1.5221  0.1279
29183SOL    HW2 5160  10.449   2.806   1.318  0.6115 -0.1615  0.1644
29184SOL     OW 5161   5.089   8.526  13.973  0.0629  0.3131  0.2570
29184SOL    HW1 5162   5.139   8.545  14.053 -0.0272 -0.3401  0.4713
29184SOL    HW2 5163   5.103   8.433  13.957 -1.3870  0.0222  0.5424
29185SOL     OW 5164  12.003   9.067  10.608  0.3791 -0.5229  0.0620
29185SOL    HW1 5165  12.001   9.015  10.689 -0.2283 -1.3165 -0.4466
29185SOL    HW2 5166  12.025   9.156  10.637 -0.4362 -0.6617  1.1681
29186SOL     OW 5167   6.961   9.150   1.037 -0.6126  0.1843  0.3740
29186SOL    HW1 5168   6.950   9.189   0.950  2.7228 -0.3194 -0.4253
29186SOL    HW2 5169   6.945   9.222   1.098  0.8619  1.6653 -0.8738
29187SOL     OW 5170  13.530   2.402  12.948 -0.3659  0.4988 -0.0763
29187SOL    HW1 5171  13.553   2.446  13.030  0.0393  0.1543  0.0011
29187SOL    HW2 5172  13.521   2.472  12.884 -0.3800  0.7465  0.1965
29188SOL     OW 5173   6.468   5.264  13.692  0.2698 -0.0835 -0.6509
29188SOL    HW1 5174   6.486   5.310  13.774  1.0030 -0.6118 -0.5101
29188SOL    HW2 5175   6.528   5.304  13.629 -0.7136  0.7391 -1.0855
29189SOL     OW 5176   2.967   1.286  13.409  0.2958 -0.1807 -0.5492
29189SOL    HW1 5177   3.027   1.359  13.397  1.3905 -1.0513 -0.5500
29189SOL    HW2 5178   2.879   1.324  13.400  0.8679  0.8647 -1.8743
29190SOL     OW 5179   3.769  13.374   6.167 -0.1597  0.0692  0.0200
29190SOL    HW1 5180   3.727  13.361   6.082  0.0833  2.4853 -0.5370
29190SOL    HW2 5181   3.750  13.465   6.190  1.9160  0.2446  1.3592
29191SOL     OW 5182   0.306   6.449  13.330  0.0375 -0.4701 -0.0653
29191SOL    HW1 5183   0.393   6.453  13.369 -0.7163  1.5428  1.6125
29191SOL    HW2 5184   0.251   6.413  13.399 -0.8409  0.4180 -0.2812
29192SOL     OW 5185   8.049   5.626   0.806 -0.4208  0.0337  0.3076
29192SOL    HW1 5186   8.133   5.643   0.764  0.3559 -2.3929  0.7055
29192SOL    HW2 5187   8.042   5.691   0.876  1.4623 -0.1635  0.7154
29193SOL     OW 5188  13.939   8.910   0.755  0.3158  0.9568 -0.3825
29193SOL    HW1 5189  13.930   8.934   0.662  2.5976  0.6888 -0.7131
29193SOL    HW2 5190  14.015   8.852   0.758  0.4217  1.1357  1.7019
29194SOL     OW 5191   6.810   9.516   0.048 -0.1045 -0.1112  0.1575
29194SOL    HW1 5192   6.726   9.471   0.058  0.0244 -0.0077  2.3481
29194SOL    HW2 5193   6.853   9.503   0.133  1.7906  0.4470 -0.6821
29195SOL     OW 5194   0.263   4.919   3.243  0.4285 -0.2382  0.1693
29195SOL    HW1 5195   0.338   4.933   3.186  1.1761 -2.3754  0.5407
29195SOL    HW2 5196   0.213   4.850   3.200 -1.1990  0.9311  0.0886
29196SOL     OW 5197   3.806   9.334   9.929  0.3099 -0.0802  0.5706
29196SOL    HW1 5198   3.782   9.380   9.849  1.6058 -0.5849 -0.1346
29196SOL    HW2 5199   3.812   9.404   9.995 -2.1998  0.1575  0.6317
29197SOL     OW 5200   3.016   4.274  10.111  0.4570  0.3251  0.3484
29197SOL    HW1 5201   3.001   4.249  10.203  1.1319 -0.2744  0.3071
29197SOL    HW2 5202   3.111   4.280  10.103  0.3722  1.2179 -0.1065
29198SOL     OW 5203   7.178  12.302  13.602  0.3982  0.3354  0.1316
29198SOL    HW1 5204   7.095  12.325  13.561 -0.0094 -0.9058  0.2159
29198SOL    HW2 5205   7.244  12.319  13.535 -0.0700  0.0431 -0.4105
29199SOL     OW 5206   2.951   4.693  12.810  0.0829  0.4388  0.1665
29199SOL    HW1 5207   2.994   4.768  12.769 -0.1029  0.1304 -0.6221
29199SOL    HW2 5208   2.924   4.724  12.895  0.4398  1.1220  0.0375
29200SOL     OW 5209  11.734   8.292   2.903  0.1146 -0.2082  0.3997
29200SOL    HW1 5210  11.778   8.290   2.818 -2.3005 -0.2368 -0.9625
29200SOL    HW2 5211  11.799   8.260   2.965  1.4230 -1.9229 -1.7124
29201SOL     OW 5212  13.613   9.327   0.065 -0.4320  0.5031 -0.4592
29201SOL    HW1 5213  13.570   9.298   0.146 -2.5263  0.0577 -1.6618
29201SOL    HW2 5214  13.547   9.315  -0.003  1.0557  1.4627 -2.1613
29202SOL     OW 5215   6.932   7.028   5.701 -0.1895 -0.3182 -0.3101
29202SOL    HW1 5216   6.959   7.070   5.619 -0.1126 -0.6393 -0.4507
29202SOL    HW2 5217   6.968   6.940   5.696  0.5466 -0.0705  0.4522
29203SOL     OW 5218   2.744   4.187   4.025 -0.6241 -0.0478 -0.0352
29203SOL    HW1 5219   2.729   4.273   4.064 -0.1410  0.5982 -1.2314
29203SOL    HW2 5220   2.679   4.182   3.954  0.1772 -0.1299 -0.7768
29204SOL     OW 5221  11.520   0.904   9.463  0.0151 -0.0613 -0.4817
29204SOL    HW1 5222  11.595   0.862   9.420 -0.2126 -0.4944 -0.4594
29204SOL    HW2 5223  11.547   0.913   9.554  0.1039 -0.0762 -0.5059
29205SOL     OW 5224   8.528   7.938   0.479  1.2616 -0.0280 -0.0769
29205SOL    HW1 5225   8.437   7.917   0.499  1.0194  0.3957 -0.7065
29205SOL    HW2 5226   8.551   8.005   0.544  0.2696  1.8365 -1.5498
29206SOL     OW 5227  11.310   5.307   9.181 -0.2872 -0.1119  0.6123
29206SOL    HW1 5228  11.319   5.367   9.108  1.6989  0.7694  1.4986
29206SOL    HW2 5229  11.268   5.358   9.250  0.6659  0.0648  1.0907
29207SOL     OW 5230   8.463   7.204  13.256  0.4681  0.0600  0.2717
29207SOL    HW1 5231   8.492   7.287  13.293  2.0253 -0.8619  1.2436
29207SOL    HW2 5232   8.379   7.187  13.299 -0.1424  1.3629 -0.3461
29208SOL     OW 5233   4.354   6.510   2.534  0.4067  0.2123  0.3253
29208SOL    HW1 5234   4.260   6.512   2.520  0.3327 -2.0331  0.0709
29208SOL    HW2 5235   4.390   6.566   2.465 -0.6506 -0.4831 -0.8390
29209SOL     OW 5236   0.533   5.662  12.518 -0.3201  0.0668 -0.2852
29209SOL    HW1 5237   0.555   5.599  12.587 -0.8498 -0.1245 -0.2841
29209SOL    HW2 5238   0.575   5.627  12.439  2.0111  1.3255  0.2949
29210SOL     OW 5239  13.250   9.017   9.201  0.0982  0.2647  0.2093
29210SOL    HW1 5240  13.178   8.957   9.180  1.5547 -1.9904  1.1370
29210SOL    HW2 5241  13.208   9.090   9.247 -1.5992 -0.9849  0.7648
29211SOL     OW 5242   5.869   5.474   2.425 -0.5503  0.1291 -0.0594
29211SOL    HW1 5243   5.792   5.488   2.480 -1.7930 -3.1846 -0.7351
29211SOL    HW2 5244   5.896   5.562   2.399 -2.7070  1.5315  2.0168
29212SOL     OW 5245   7.802   7.328   3.174  0.3439 -0.1916 -0.1478
29212SOL    HW1 5246   7.786   7.236   3.191  0.8089 -0.3905 -0.7342
29212SOL    HW2 5247   7.870   7.353   3.237  0.8457 -0.4840 -0.5594
29213SOL     OW 5248   5.679   1.044   0.424  0.5577 -0.4124 -0.1116
29213SOL    HW1 5249   5.752   1.020   0.367  0.1799  0.5702 -1.0434
29213SOL    HW2 5250   5.722   1.083   0.501  1.0731 -1.9201  0.3929
29214SOL     OW 5251  10.030   3.366   7.406 -0.0162  0.0800 -0.2074
29214SOL    HW1 5252   9.976   3.323   7.473  0.7057 -0.5873 -0.0518
29214SOL    HW2 5253  10.120   3.342   7.428  0.1771 -0.9501 -1.9752
29215SOL     OW 5254   3.067  12.226   5.267  0.4548  0.0285 -0.7562
29215SOL    HW1 5255   3.107  12.313   5.268  1.6833 -0.5050 -1.3406
29215SOL    HW2 5256   3.128  12.171   5.317 -0.6249 -0.3817  0.1462
29216SOL     OW 5257   0.973   2.649   1.652 -0.3439 -0.6670  0.1183
29216SOL    HW1 5258   0.983   2.629   1.745 -1.0811 -0.0988  0.3387
29216SOL    HW2 5259   1.036   2.593   1.608 -1.1844 -2.2560  0.8203
29217SOL     OW 5260  12.224  11.496   5.737 -0.0690  0.2220 -0.3111
29217SOL    HW1 5261  12.309  11.518   5.776 -0.7069  0.6981  0.8385
29217SOL    HW2 5262  12.219  11.400   5.745  0.5553  0.1412 -0.8130
29218SOL     OW 5263   1.026   0.455   0.365  0.3106  0.1265 -0.7867
29218SOL    HW1 5264   1.050   0.404   0.443  0.7750  0.8160 -0.4588
29218SOL    HW2 5265   1.081   0.533   0.371 -0.2033  0.5422 -1.4078
29219SOL     OW 5266   7.963  10.451  11.879  0.2449 -0.0212  0.5166
29219SOL    HW1 5267   7.909  10.478  11.954 -0.4363  0.3197 -0.0759
29219SOL    HW2 5268   7.971  10.356  11.887 -2.9781 -0.5617 -0.9406
29220SOL     OW 5269   6.883  13.435   0.803 -0.1526  0.2307 -0.0125
29220SOL    HW1 5270   6.882  13.479   0.718 -0.7119  0.2045 -0.0253
29220SOL    HW2 5271   6.866  13.505   0.866 -1.1384  0.0269 -0.0408
29221SOL     OW 5272  13.974   9.487   2.889  0.7670  0.0140 -0.0436
29221SOL    HW1 5273  14.069   9.483   2.883  0.8938 -0.8458  1.7432
29221SOL    HW2 5274  13.956   9.574   2.927  1.1862 -1.1762  3.2308
29222SOL     OW 5275   4.974  13.582   8.322 -0.0379 -0.1420  0.5378
29222SOL    HW1 5276   5.041  13.545   8.379 -0.3273 -1.8857 -0.1723
29222SOL    HW2 5277   5.022  13.612   8.245 -0.0984 -2.1522 -0.3370
29223SOL     OW 5278  11.415   9.373   0.815 -0.1470 -0.4388 -0.4516
29223SOL    HW1 5279  11.499   9.331   0.831  0.1309  0.6940  1.2921
29223SOL    HW2 5280  11.352   9.319   0.862 -0.1193 -0.2211 -0.1627
29224SOL     OW 5281   1.459   3.984   9.710 -0.2749  0.0590  0.2669
29224SOL    HW1 5282   1.530   3.984   9.645  1.4994  0.9284  2.0931
29224SOL    HW2 5283   1.411   4.065   9.692 -1.9998 -1.3370 -2.0683
29225SOL     OW 5284   7.715   3.070   0.200 -0.2808  0.2814 -1.0755
29225SOL    HW1 5285   7.744   3.151   0.158 -0.7295  0.0255 -1.8866
29225SOL    HW2 5286   7.783   3.051   0.265 -0.8091  2.0053  0.0638
29226SOL     OW 5287   7.759   8.219   2.872  0.0920  0.1385  0.1506
29226SOL    HW1 5288   7.811   8.292   2.905 -0.2370  0.6978 -0.5546
29226SOL    HW2 5289   7.687   8.259   2.824  0.0868 -0.6392 -0.5343
29227SOL     OW 5290   6.217   2.609   4.308 -0.2781 -0.2221 -0.1108
29227SOL    HW1 5291   6.143   2.670   4.315 -1.0528 -1.2362  1.0992
29227SOL    HW2 5292   6.181   2.535   4.258 -0.0215 -0.6224  0.2941
29228SOL     OW 5293   4.526   3.397   2.464  0.1666 -0.3210  0.2651
29228SOL    HW1 5294   4.594   3.355   2.517  1.5626 -0.2930 -1.3788
29228SOL    HW2 5295   4.497   3.472   2.516  2.2823  0.3731  0.5639
29229SOL     OW 5296   5.342   7.430   9.011  0.1418 -0.3719 -0.1701
29229SOL    HW1 5297   5.372   7.504   8.959 -0.1646 -1.0891 -1.4148
29229SOL    HW2 5298   5.408   7.421   9.080  0.2249  0.9892 -0.0408
29230SOL     OW 5299   3.323  11.778  12.604 -0.1015 -0.2187  0.5344
29230SOL    HW1 5300   3.402  11.767  12.657 -0.4156  0.6795  1.2212
29230SOL    HW2 5301   3.255  11.728  12.650 -0.0262 -0.6719  0.1573
29231SOL     OW 5302   2.806  11.727  10.630  0.0536 -0.4936 -0.4250
29231SOL    HW1 5303   2.740  11.763  10.688 -0.0349 -0.3614 -0.6064
29231SOL    HW2 5304   2.796  11.632  10.638 -1.1759 -0.5048 -1.5719
29232SOL     OW 5305  13.706   8.917  12.835  0.2764 -0.0297  0.2394
29232SOL    HW1 5306  13.776   8.978  12.859 -0.4658  1.0711 -0.2908
29232SOL    HW2 5307  13.680   8.944  12.747  1.2625 -2.3906 -0.8727
29233SOL     OW 5308   5.808   4.076  10.482 -0.6280  0.7937 -0.5437
29233SOL    HW1 5309   5.842   4.056  10.394 -0.6888 -1.2939 -0.1507
29233SOL    HW2 5310   5.879   4.124  10.524 -0.8331  2.3878 -1.8942
29234SOL     OW 5311   8.633  12.094  12.315 -0.2521 -0.6666  0.3221
29234SOL    HW1 5312   8.603  12.040  12.242 -0.0272 -0.4572  0.0695
29234SOL    HW2 5313   8.567  12.163  12.323 -0.1800 -0.5844  0.1978
29235SOL     OW 5314   5.131  12.593   2.531 -0.1429 -0.2861 -0.0033
29235SOL    HW1 5315   5.036  12.598   2.542 -0.1855  1.1434 -0.7266
29235SOL    HW2 5316   5.153  12.500   2.544 -1.6984 -0.7155 -0.3043
29236SOL     OW 5317   4.927  12.664  12.278 -0.5297  0.1188 -0.1391
29236SOL    HW1 5318   4.875  12.738  12.247 -1.8926 -1.3065 -1.4131
29236SOL    HW2 5319   4.907  12.593  12.217  2.1862 -0.8038 -0.1148
29237SOL     OW 5320   7.888   0.022   5.725  0.2392  0.0313 -0.2462
29237SOL    HW1 5321   7.978   0.022   5.759 -0.7064  0.9204  2.5396
29237SOL    HW2 5322   7.888   0.090   5.658  1.5294  0.3359  0.0300
29238SOL     OW 5323   2.412   6.639   0.089 -0.0914 -0.2856  0.0472
29238SOL    HW1 5324   2.361   6.694   0.149  0.1729  1.7432 -1.4711
29238SOL    HW2 5325   2.503   6.654   0.115 -0.0329 -0.2231 -0.1961
29239SOL     OW 5326   8.859   2.821   3.511 -0.0901 -0.1516  0.5727
29239SOL    HW1 5327   8.811   2.740   3.532  0.8785 -1.0169 -0.3919
29239SOL    HW2 5328   8.915   2.835   3.586  1.4094 -1.7154 -0.1783
29240SOL     OW 5329   8.834   3.267  12.708 -0.0861 -0.2377 -0.4717
29240SOL    HW1 5330   8.813   3.242  12.798 -1.3733  0.2108 -0.6127
29240SOL    HW2 5331   8.927   3.288  12.709 -0.0366 -0.4494  0.7062
29241SOL     OW 5332  10.204   0.421  14.018  0.2944 -0.4868  0.3658
29241SOL    HW1 5333  10.232   0.331  13.999 -0.2555 -0.6759  0.4392
29241SOL    HW2 5334  10.223   0.432  14.111  2.1856  0.1475 -0.0510
29242SOL     OW 5335  13.078   5.615   5.598 -0.4096  0.3875  0.0969
29242SOL    HW1 5336  13.041   5.533   5.566  3.2994 -1.1824 -0.7903
29242SOL    HW2 5337  13.064   5.677   5.527  0.0260 -0.6203 -0.9086
29243SOL     OW 5338  10.203  12.241   7.586  0.4568 -0.5269 -0.1517
29243SOL    HW1 5339  10.271  12.227   7.520  0.6933 -1.5917  0.2994
29243SOL    HW2 5340  10.142  12.168   7.574 -0.4118  0.1976 -0.2909
29244SOL     OW 5341   1.271   9.095   5.349 -0.3002 -0.1664 -0.2709
29244SOL    HW1 5342   1.222   9.176   5.362 -1.7260 -0.9919 -0.2750
29244SOL    HW2 5343   1.267   9.050   5.434  2.0052  0.5150  0.2768
29245SOL     OW 5344   9.454  13.271   2.012 -0.6633 -0.4543  0.1168
29245SOL    HW1 5345   9.449  13.357   1.970 -1.1389  0.0248  1.1272
29245SOL    HW2 5346   9.363  13.243   2.022 -0.5497 -0.6129  0.7266
29246SOL     OW 5347   9.200  13.889   6.994 -0.1013 -0.0073  0.3673
29246SOL    HW1 5348   9.256  13.816   6.968  0.4274  0.5869 -0.2148
29246SOL    HW2 5349   9.190  13.942   6.915 -2.0297 -0.4101  0.2954
29247SOL     OW 5350   9.112   9.991   1.799 -0.3756  0.2247 -0.4362
29247SOL    HW1 5351   9.196   9.947   1.789 -0.4023 -0.3367  1.4960
29247SOL    HW2 5352   9.130  10.083   1.776  0.8506  0.1779  0.2533
29248SOL     OW 5353   3.876  11.455   0.889 -0.1275  0.0582 -0.6636
29248SOL    HW1 5354   3.793  11.416   0.915 -0.9228  1.9282 -0.2239
29248SOL    HW2 5355   3.932  11.381   0.869 -1.3012 -1.3276  0.8696
29249SOL     OW 5356   0.092   7.459  11.544 -0.0726  0.3027 -0.3407
29249SOL    HW1 5357   0.130   7.547  11.541  2.0384 -0.5082  0.3378
29249SOL    HW2 5358   0.078   7.436  11.453 -0.2561  1.1742 -0.5438
29250SOL     OW 5359   7.070   2.764   0.562  0.4327 -0.0570 -0.5039
29250SOL    HW1 5360   7.018   2.684   0.575  0.1711  0.3085  0.8838
29250SOL    HW2 5361   7.159   2.739   0.586  0.1799  0.2847  0.8911
29251SOL     OW 5362  12.820   7.509   5.485  0.0020  0.7626  0.1465
29251SOL    HW1 5363  12.725   7.526   5.483 -0.4343  0.3601  5.2592
29251SOL    HW2 5364  12.826   7.413   5.475 -0.0661  0.8026 -0.3338
29252SOL     OW 5365   9.507   7.322  12.499  0.2161 -0.9677 -0.1943
29252SOL    HW1 5366   9.470   7.313  12.411 -0.2470  3.8108 -0.7230
29252SOL    HW2 5367   9.600   7.335  12.485  0.4753 -2.1481  0.2751
29253SOL     OW 5368   9.165   2.254   7.795  0.4363  0.3182  0.2694
29253SOL    HW1 5369   9.235   2.303   7.752 -0.1900 -1.3019 -2.8833
29253SOL    HW2 5370   9.112   2.219   7.723 -0.8836 -2.4555  2.3918
29254SOL     OW 5371   7.223   5.033   2.111  0.4016  0.0559  0.1072
29254SOL    HW1 5372   7.248   4.974   2.040  0.1225  1.0324 -0.8271
29254SOL    HW2 5373   7.133   5.007   2.133 -0.5745  1.5644 -1.8647
29255SOL     OW 5374   0.505   4.817   4.983  0.6099 -0.6616 -0.4348
29255SOL    HW1 5375   0.514   4.722   4.979 -0.1670 -0.7367 -0.6154
29255SOL    HW2 5376   0.594   4.849   4.997  1.2252 -1.2979 -2.5482
29256SOL     OW 5377  11.507   2.240   8.791 -0.1854  0.0986  0.3077
29256SOL    HW1 5378  11.591   2.246   8.747 -0.8248 -1.3483 -1.1735
29256SOL    HW2 5379  11.484   2.331   8.811  1.3288  0.5666  0.0138
29257SOL     OW 5380   5.035  13.167   2.799 -0.2495 -0.8014  0.1062
29257SOL    HW1 5381   5.039  13.128   2.887  2.3088 -0.2397  0.3365
29257SOL    HW2 5382   5.010  13.094   2.742 -2.5800 -1.0322  1.3080
29258SOL     OW 5383   1.033   8.923  12.652  0.0934 -0.6129  0.0384
29258SOL    HW1 5384   0.954   8.874  12.676 -0.4826 -0.5142 -1.5286
29258SOL    HW2 5385   1.045   8.986  12.722 -1.1080 -0.7800  0.4140
29259SOL     OW 5386   1.077   0.751   9.350  0.0415 -0.3551  0.2104
29259SOL    HW1 5387   1.072   0.673   9.406 -0.1794 -1.1156 -0.8245
29259SOL    HW2 5388   1.150   0.802   9.385  0.3124 -1.1224  0.7910
29260SOL     OW 5389  10.946   3.831   4.383  0.0978 -0.1304  0.3212
29260SOL    HW1 5390  10.948   3.836   4.478  0.3220 -0.1167  0.3165
29260SOL    HW2 5391  10.872   3.774   4.364 -1.2071  1.4440  0.4342
29261SOL     OW 5392  13.212   8.501   3.107 -1.4094  0.5093  0.1613
29261SOL    HW1 5393  13.137   8.459   3.066  0.9985 -2.3901 -1.7453
29261SOL    HW2 5394  13.264   8.533   3.033  0.3100  0.3189  1.2337
29262SOL     OW 5395   2.254   9.497   8.811  0.1668  0.0648 -0.4847
29262SOL    HW1 5396   2.292   9.433   8.751 -0.0154 -0.2345 -0.2792
29262SOL    HW2 5397   2.258   9.455   8.897  1.9604  1.1224  0.0118
29263SOL     OW 5398   4.665   2.498   0.745  0.4411 -0.0285 -0.2964
29263SOL    HW1 5399   4.666   2.442   0.822  0.9525  0.8247  0.3384
29263SOL    HW2 5400   4.576   2.492   0.712  0.1486 -0.2330  0.5017
29264SOL     OW 5401  10.235  13.573   2.616  0.0404 -0.0413 -0.0189
29264SOL    HW1 5402  10.160  13.604   2.565  0.1367 -0.8037 -0.6397
29264SOL    HW2 5403  10.238  13.632   2.692  0.0961  1.3236 -1.0477
29265SOL     OW 5404   9.261  12.315   1.013  0.3513  0.3038  0.1082
29265SOL    HW1 5405   9.285  12.294   1.103  2.2489 -1.1678 -0.6740
29265SOL    HW2 5406   9.169  12.339   1.018  1.2293  4.1567  3.0041
29266SOL     OW 5407  10.648  10.058   9.091 -0.1657  0.3756 -0.3065
29266SOL    HW1 5408  10.627  10.007   9.013  1.4602 -0.5123 -0.2143
29266SOL    HW2 5409  10.717  10.008   9.135  0.5747  1.9936  0.4840
29267SOL     OW 5410  11.757   9.235   8.726 -0.1722  0.0116 -0.3343
29267SOL    HW1 5411  11.747   9.214   8.819 -1.9116  0.2498 -0.4155
29267SOL    HW2 5412  11.833   9.186   8.698  0.8169  0.4827  1.3765
29268SOL     OW 5413  11.435   4.880  10.317 -0.9122  0.1135 -0.3034
29268SOL    HW1 5414  11.341   4.863  10.316 -0.8282 -0.4480  0.4776
29268SOL    HW2 5415  11.444   4.960  10.370 -0.7816 -1.1777  1.7470
29269SOL     OW 5416   0.944   2.802   2.783  0.0684  0.2067  0.4329
29269SOL    HW1 5417   0.951   2.707   2.797 -0.3117  0.5839  3.8567
29269SOL    HW2 5418   1.029   2.837   2.808  0.1502  0.8203 -0.6438
29270SOL     OW 5419   5.228  12.506   7.524  0.5928 -0.3172 -0.0820
29270SOL    HW1 5420   5.299  12.561   7.555 -0.6500  0.9850  0.5399
29270SOL    HW2 5421   5.208  12.539   7.437 -0.8301  0.9489  0.6843
29271SOL     OW 5422  11.518   4.609   6.367  0.0317 -0.2261 -0.7225
29271SOL    HW1 5423  11.459   4.649   6.303  0.6828 -0.5534 -1.5480
29271SOL    HW2 5424  11.473   4.531   6.396 -0.5461  0.2552 -0.3103
29272SOL     OW 5425   5.192  14.086   6.526 -0.2956 -0.2060 -0.2934
29272SOL    HW1 5426   5.189  14.178   6.552  0.3420 -0.3795  0.4150
29272SOL    HW2 5427   5.104  14.053   6.541 -0.0118 -0.2465  1.5149
29273SOL     OW 5428   4.386   9.887  12.635 -0.0473 -0.8171 -0.1137
29273SOL    HW1 5429   4.344   9.966  12.601  0.9095 -0.8364 -1.4212
29273SOL    HW2 5430   4.403   9.834  12.558  1.7833 -1.0893  0.4266
29274SOL     OW 5431   8.758   7.630   4.759  0.0759 -0.3727 -0.4613
29274SOL    HW1 5432   8.837   7.684   4.748 -0.7299  0.9248 -0.0980
29274SOL    HW2 5433   8.774   7.553   4.704  0.7702  0.7810 -1.9657
29275SOL     OW 5434   2.177   9.236   2.804 -0.0716  0.2266 -0.5314
29275SOL    HW1 5435   2.198   9.325   2.774  2.1005  0.0696  0.3396
29275SOL    HW2 5436   2.151   9.247   2.895  0.5960 -0.0660 -0.3023
29276SOL     OW 5437   1.366  11.816   4.141 -0.0001  0.2488  0.7181
29276SOL    HW1 5438   1.335  11.788   4.227  0.0002 -1.3927  0.2283
29276SOL    HW2 5439   1.437  11.756   4.120  0.2748  0.8846 -0.2548
29277SOL     OW 5440  12.695   8.802   4.218 -0.3672  0.3407  0.0922
29277SOL    HW1 5441  12.720   8.806   4.311 -0.6403  0.6245  0.1560
29277SOL    HW2 5442  12.772   8.834   4.172 -0.2430  0.2334  0.2235
29278SOL     OW 5443  10.600   5.739   9.796  1.0231 -0.7333  0.0241
29278SOL    HW1 5444  10.557   5.654   9.785 -0.6959  0.1780 -0.7775
29278SOL    HW2 5445  10.604   5.775   9.707 -0.0321  0.8085  0.5582
29279SOL     OW 5446   0.740   3.603   5.218 -0.0622  0.0594 -0.0868
29279SOL    HW1 5447   0.752   3.698   5.222 -0.6818  0.1060  1.0702
29279SOL    HW2 5448   0.666   3.591   5.159  0.8980  0.1933 -1.3551
29280SOL     OW 5449   1.573   7.334   4.447 -0.3492 -0.3421  0.5864
29280SOL    HW1 5450   1.504   7.322   4.382  0.6168 -2.7360 -0.1148
29280SOL    HW2 5451   1.651   7.296   4.406  0.7912 -0.0070  2.3507
29281SOL     OW 5452  13.288   6.945  13.867 -0.0686  0.0306  0.7673
29281SOL    HW1 5453  13.298   6.979  13.956 -1.4925 -0.9264  1.3273
29281SOL    HW2 5454  13.277   6.851  13.878  1.5425 -0.3588 -0.5892
29282SOL     OW 5455   5.010   5.951   2.998 -0.1566  0.4120  0.3355
29282SOL    HW1 5456   4.985   5.861   3.018 -0.8178  0.6344  0.5320
29282SOL    HW2 5457   5.009   5.996   3.083 -1.7084  1.0543  0.0150
29283SOL     OW 5458  13.725   0.046   9.349 -0.2521  0.4559  0.0996
29283SOL    HW1 5459  13.690   0.132   9.371  1.1465  1.0431  0.0705
29283SOL    HW2 5460  13.809   0.041   9.395 -0.4582 -1.0299  0.3862
29284SOL     OW 5461   4.144   4.586  13.446 -0.1945  0.5019  0.6543
29284SOL    HW1 5462   4.081   4.598  13.376 -0.7268  0.7403  1.1610
29284SOL    HW2 5463   4.114   4.645  13.516  2.0243  2.5534 -0.0197
29285SOL     OW 5464   4.676   4.837  12.026 -0.4002  0.2058 -0.4422
29285SOL    HW1 5465   4.729   4.912  12.001  1.5843 -1.0945 -0.3095
29285SOL    HW2 5466   4.633   4.809  11.945  1.4559 -0.4783 -1.2322
29286SOL     OW 5467   1.246   4.311  12.180  0.4587  0.0141  0.8189
29286SOL    HW1 5468   1.214   4.388  12.227 -1.0376 -1.2372  1.9652
29286SOL    HW2 5469   1.168   4.257  12.165  1.3024 -0.8174 -0.8766
29287SOL     OW 5470   3.665  10.083   8.930 -0.2416  0.2630 -0.3892
29287SOL    HW1 5471   3.638   9.991   8.926 -0.8889  0.2846  1.9878
29287SOL    HW2 5472   3.741  10.084   8.987 -1.3774  1.3641  1.2149
29288SOL     OW 5473  10.748   8.624   2.247 -0.8159 -0.0177  0.0829
29288SOL    HW1 5474  10.785   8.587   2.327 -3.3213  0.3453  1.5271
29288SOL    HW2 5475  10.674   8.566   2.226 -0.8516  0.5176 -1.3547
29289SOL     OW 5476   3.752   6.343   8.726  0.1327 -0.4490  0.2076
29289SOL    HW1 5477   3.720   6.267   8.678 -0.6936 -0.6932  1.1291
29289SOL    HW2 5478   3.848   6.336   8.720  0.1787  0.8263 -3.4232
29290SOL     OW 5479   6.434   9.182   2.365 -0.1377  0.3862  0.2523
29290SOL    HW1 5480   6.405   9.112   2.424 -2.2731  0.5462 -0.5308
29290SOL    HW2 5481   6.413   9.263   2.412  1.7439  0.5563  0.8822
29291SOL     OW 5482  11.864   8.496   9.493  0.3294 -0.6266 -0.1120
29291SOL    HW1 5483  11.880   8.577   9.445  0.7961 -1.0706 -0.7183
29291SOL    HW2 5484  11.774   8.472   9.471  0.2664 -0.3906 -0.1094
29292SOL     OW 5485  11.430  14.089   6.854 -0.1497 -0.0113  0.3182
29292SOL    HW1 5486  11.491  14.022   6.885 -0.0409  0.2222  0.6207
29292SOL    HW2 5487  11.365  14.041   6.803 -0.9566 -0.5765  1.8061
29293SOL     OW 5488  11.821   0.916   0.832 -0.1008 -0.5228  0.3181
29293SOL    HW1 5489  11.756   0.986   0.834 -1.5330 -1.7912 -0.0528
29293SOL    HW2 5490  11.848   0.907   0.924  0.0825  0.4791  0.3753
29294SOL     OW 5491  13.679   7.670  10.155  0.2691  0.0488 -0.0154
29294SOL    HW1 5492  13.685   7.650  10.248 -0.9832 -2.0139 -0.3202
29294SOL    HW2 5493  13.587   7.657  10.133  0.7019 -0.3419 -1.7110
29295SOL     OW 5494   4.443   5.822  11.270  0.4048  0.1218 -0.2770
29295SOL    HW1 5495   4.353   5.830  11.300  0.1178 -0.4594 -0.9435
29295SOL    HW2 5496   4.435   5.799  11.177  1.2456  0.7548 -0.5151
29296SOL     OW 5497   4.263   1.839   1.661 -0.5848  0.4978 -0.2706
29296SOL    HW1 5498   4.320   1.763   1.652  4.1463  3.5978 -0.3060
29296SOL    HW2 5499   4.271   1.865   1.753 -1.3218  1.4574 -0.4551
29297SOL     OW 5500   5.762   7.244   6.266  0.0680  0.3985 -0.4897
29297SOL    HW1 5501   5.847   7.237   6.222 -0.2656 -2.1023 -0.8975
29297SOL    HW2 5502   5.782   7.236   6.359  0.3154  0.0110 -0.5728
29298SOL     OW 5503   7.744   2.231   0.622  0.2495  0.2529  0.3108
29298SOL    HW1 5504   7.782   2.206   0.707  0.5236  2.1083  0.7734
29298SOL    HW2 5505   7.652   2.250   0.642 -0.3778 -1.7787 -0.3396
29299SOL     OW 5506   0.358   4.779   1.794  0.2293 -0.3847  0.3367
29299SOL    HW1 5507   0.359   4.787   1.698  0.8196 -1.2462  0.2651
29299SOL    HW2 5508   0.359   4.870   1.825 -0.2603 -0.0922 -0.4721
29300SOL     OW 5509  13.429   5.297  13.432 -0.3587  0.0947  0.3712
29300SOL    HW1 5510  13.341   5.276  13.462 -0.5122  0.1316 -0.0468
29300SOL    HW2 5511  13.419   5.312  13.338  0.2891 -1.0340  0.1086
29301SOL     OW 5512   8.263   0.296   8.818  0.1937 -0.3828 -0.4225
29301SOL    HW1 5513   8.329   0.359   8.849 -1.3609  1.1126 -0.0346
29301SOL    HW2 5514   8.244   0.242   8.895  0.2385 -0.1676 -0.2594
29302SOL     OW 5515   2.435  11.800   5.702 -0.5308 -0.1035 -0.1359
29302SOL    HW1 5516   2.382  11.877   5.681 -0.9955  0.5687  3.1050
29302SOL    HW2 5517   2.372  11.732   5.725 -0.0660 -0.2986  0.5967
29303SOL     OW 5518  13.785  10.697   9.480  0.4904 -0.2127 -0.1124
29303SOL    HW1 5519  13.839  10.759   9.431 -0.4701  0.4850 -0.3177
29303SOL    HW2 5520  13.707  10.684   9.426 -1.3591  1.8020  1.8249
29304SOL     OW 5521   5.923   4.106   2.655 -0.0712  0.2250  0.2075
29304SOL    HW1 5522   5.974   4.069   2.727 -0.8158 -0.7101  0.2681
29304SOL    HW2 5523   5.989   4.138   2.593  0.6978 -2.5493 -0.5765
29305SOL     OW 5524  12.905   8.555   5.594 -0.1992 -0.1063  0.0332
29305SOL    HW1 5525  12.865   8.558   5.507 -0.2926 -1.3733  0.0121
29305SOL    HW2 5526  12.833   8.535   5.653  0.4176 -3.0552 -0.0797
29306SOL     OW 5527   4.686   7.736   4.104 -0.3134 -0.2123  0.2167
29306SOL    HW1 5528   4.781   7.740   4.115 -0.5151  0.3926  1.9860
29306SOL    HW2 5529   4.654   7.817   4.143 -1.7273 -1.4517  1.7354
29307SOL     OW 5530  12.572  10.401  10.356 -0.0509  0.3619  0.3550
29307SOL    HW1 5531  12.599  10.318  10.318  1.9080  1.3425 -0.5536
29307SOL    HW2 5532  12.563  10.460  10.282  0.9512  1.5591  1.1426
29308SOL     OW 5533   0.866  13.365   1.933 -0.5246  0.5748 -0.0112
29308SOL    HW1 5534   0.887  13.406   2.018  1.0114  0.6752 -0.4108
29308SOL    HW2 5535   0.859  13.439   1.873  0.0831  0.4117 -0.2945
29309SOL     OW 5536  10.691   8.315   3.807  0.3217  0.2762  0.1759
29309SOL    HW1 5537  10.615   8.261   3.829 -0.0851 -0.0663 -1.8655
29309SOL    HW2 5538  10.654   8.399   3.779  0.8150  0.7393  0.8717
29310SOL     OW 5539   9.939   9.123  13.256  0.3268 -0.4976  0.5333
29310SOL    HW1 5540   9.856   9.076  13.253  0.5400 -0.8459 -0.0346
29310SOL    HW2 5541   9.987   9.082  13.329 -0.6382  0.8156  1.9645
29311SOL     OW 5542   8.197   3.973   7.839 -0.2923  0.1054 -0.5831
29311SOL    HW1 5543   8.256   4.039   7.802  1.0731  0.0998  1.4292
29311SOL    HW2 5544   8.256   3.906   7.874 -1.6193 -1.4852 -1.2976
29312SOL     OW 5545   6.410   8.092  13.759  0.2381 -0.1525 -0.1742
29312SOL    HW1 5546   6.399   8.113  13.852  1.8761  1.5789 -0.3107
29312SOL    HW2 5547   6.444   8.003  13.758 -1.6697 -0.9436  0.7537
29313SOL     OW 5548   7.147   3.310   2.379 -0.1319 -0.2867 -0.0343
29313SOL    HW1 5549   7.238   3.281   2.385 -0.3389 -0.6296  3.8680
29313SOL    HW2 5550   7.153   3.404   2.360  0.8992 -0.6217 -1.5817
29314SOL     OW 5551   4.939   0.174   1.017 -0.1414  0.1196  0.0221
29314SOL    HW1 5552   4.853   0.216   1.009 -0.0680  0.2520 -0.0894
29314SOL    HW2 5553   4.997   0.231   0.966 -0.4981 -1.4560 -2.2811
29315SOL     OW 5554  11.702   3.520   7.178  0.5782 -0.1806  0.0296
29315SOL    HW1 5555  11.697   3.425   7.191 -1.4640 -0.0399  0.6031
29315SOL    HW2 5556  11.733   3.554   7.262  0.4775 -0.2767  0.1066
29316SOL     OW 5557   7.290  11.848   5.714 -0.0077 -0.6702 -0.1669
29316SOL    HW1 5558   7.303  11.940   5.737  1.2474 -0.7534 -0.4705
29316SOL    HW2 5559   7.307  11.800   5.795  0.1112 -0.6828 -0.1995
29317SOL     OW 5560   9.969   0.248  12.916 -0.1402  0.2180  1.0077
29317SOL    HW1 5561   9.921   0.299  12.850  0.0273 -0.0190  0.6979
29317SOL    HW2 5562   9.933   0.277  13.000  0.8414  1.8019  0.9223
29318SOL     OW 5563   3.805   0.014   2.971 -0.7990 -0.0795 -0.0837
29318SOL    HW1 5564   3.792   0.019   2.877  2.2227  2.1167 -0.5323
29318SOL    HW2 5565   3.723   0.047   3.009 -2.1629 -1.2611 -1.8630
29319SOL     OW 5566   6.887  10.702   8.739  0.0262 -0.4342  0.0776
29319SOL    HW1 5567   6.906  10.663   8.825  0.3734  1.7951  1.0899
29319SOL    HW2 5568   6.963  10.679   8.686  0.4729 -0.6744  0.7925
29320SOL     OW 5569  12.129   0.391   6.921  0.3464  0.0687  0.4271
29320SOL    HW1 5570  12.204   0.386   6.862  1.1571  2.5249  1.0905
29320SOL    HW2 5571  12.165   0.429   7.002 -1.5109  0.9308  0.9021
29321SOL     OW 5572   6.259  10.463   0.023  0.2878  0.2656  0.6002
29321SOL    HW1 5573   6.309  10.390  -0.016 -0.5256 -0.9729  1.7786
29321SOL    HW2 5574   6.267  10.450   0.117 -2.3915 -0.1424  0.8589
29322SOL     OW 5575   6.015   1.936   5.426  0.2318  0.3395 -0.2107
29322SOL    HW1 5576   6.021   2.028   5.403 -0.9886  0.2008 -1.2305
29322SOL    HW2 5577   5.963   1.933   5.506  1.1681  0.5759  0.4292
29323SOL     OW 5578   2.099   9.094   1.893  0.2089 -0.0116  0.2160
29323SOL    HW1 5579   2.017   9.053   1.864 -0.7131  1.2847  0.9154
29323SOL    HW2 5580   2.140   9.123   1.811 -1.1884  1.4329 -0.0136
29324SOL     OW 5581   3.401   6.429   9.727 -0.8996  0.7418 -0.3922
29324SOL    HW1 5582   3.449   6.456   9.648 -0.8208 -0.7166 -0.8715
29324SOL    HW2 5583   3.354   6.508   9.754  0.8697  1.9283 -0.5390
29325SOL     OW 5584   1.423   8.139  11.116 -0.3905  0.4550  0.2792
29325SOL    HW1 5585   1.364   8.110  11.047 -0.4907  0.1381  0.4954
29325SOL    HW2 5586   1.455   8.224  11.086 -0.9336  0.6150  0.1496
29326SOL     OW 5587  14.049  11.280   5.786  0.1009  0.4178  0.1102
29326SOL    HW1 5588  14.088  11.194   5.770  0.8277  0.4408  1.5399
29326SOL    HW2 5589  13.977  11.263   5.847 -0.3171  0.7312 -0.2848
29327SOL     OW 5590   7.773   9.705   3.309 -0.0569 -0.0670 -0.9415
29327SOL    HW1 5591   7.834   9.759   3.259  0.6346  1.1140  1.0594
29327SOL    HW2 5592   7.823   9.628   3.334  1.1912  1.4628  1.7662
29328SOL     OW 5593   9.064   0.550  11.177  0.0349  0.0876 -0.0288
29328SOL    HW1 5594   9.004   0.604  11.229 -1.7206 -1.8082  0.0671
29328SOL    HW2 5595   9.069   0.595  11.092 -1.0603  0.6078  0.1656
29329SOL     OW 5596   7.408  11.075  13.994 -0.0931  0.3855 -0.2799
29329SOL    HW1 5597   7.504  11.065  13.996 -0.0039  1.2125  0.0857
29329SOL    HW2 5598   7.378  11.008  13.934  0.5239 -1.4631  1.3553
29330SOL     OW 5599   9.742  12.271   3.112  0.1924  0.1445 -0.0558
29330SOL    HW1 5600   9.701  12.352   3.083 -1.4471 -0.7846 -0.4634
29330SOL    HW2 5601   9.801  12.298   3.182 -0.1516  1.6985 -0.3197
29331SOL     OW 5602   9.252   5.110   2.029 -0.2511 -0.3532 -0.1384
29331SOL    HW1 5603   9.249   5.015   2.019  2.0740 -0.4726 -0.2203
29331SOL    HW2 5604   9.168   5.140   1.996 -1.6129 -2.4755  1.2001
29332SOL     OW 5605   9.656  12.736   3.207  0.2568  0.0324 -0.3939
29332SOL    HW1 5606   9.607  12.688   3.274 -0.9142  0.7626 -0.6945
29332SOL    HW2 5607   9.679  12.669   3.143  1.8897 -0.7866  0.9727
29333SOL     OW 5608  10.167  13.401   3.525 -0.2579 -0.2325  0.1553
29333SOL    HW1 5609  10.221  13.367   3.454  1.3033  0.9515  0.7227
29333SOL    HW2 5610  10.229  13.438   3.587 -1.4027 -2.7127  3.0432
29334SOL     OW 5611  12.894  11.949  10.574  0.4760 -0.3420  0.1344
29334SOL    HW1 5612  12.950  11.974  10.648  0.8860 -0.1695 -0.2259
29334SOL    HW2 5613  12.808  11.985  10.596  0.5287 -0.5117  0.6444
29335SOL     OW 5614  13.050  13.697  10.516 -0.2939 -0.1872  0.1999
29335SOL    HW1 5615  12.997  13.652  10.450 -0.8855 -0.4381  0.8275
29335SOL    HW2 5616  13.050  13.789  10.490  1.0012 -0.5307 -1.1532
29336SOL     OW 5617   7.668   7.012   2.068  0.0958 -0.8443  0.2770
29336SOL    HW1 5618   7.651   7.106   2.062 -0.0083 -0.8959 -0.3803
29336SOL    HW2 5619   7.699   6.998   2.157 -1.3674 -0.4265  0.8734
29337SOL     OW 5620   9.933   4.598   9.597  1.0268  0.0888 -0.2165
29337SOL    HW1 5621   9.883   4.590   9.678  0.7861 -1.2558 -0.4809
29337SOL    HW2 5622   9.867   4.596   9.528  1.3494 -0.4552 -0.5147
29338SOL     OW 5623   7.994   8.981   0.062 -0.0189 -0.3539  0.3486
29338SOL    HW1 5624   8.033   8.995   0.148  0.8057 -0.9494  0.0799
29338SOL    HW2 5625   8.050   9.029   0.001  0.1736 -1.0124 -0.0072
29339SOL     OW 5626   6.246   1.339  10.071  0.2155 -0.1082  0.0057
29339SOL    HW1 5627   6.213   1.250  10.081  1.7049 -0.7940 -0.9393
29339SOL    HW2 5628   6.256   1.371  10.161 -2.8363  0.1419  0.3693
29340SOL     OW 5629  13.782  11.659   9.499  0.3874 -0.5896 -0.4593
29340SOL    HW1 5630  13.721  11.701   9.438 -0.1000 -1.2192 -0.4040
29340SOL    HW2 5631  13.764  11.701   9.583 -0.0228 -0.8287 -0.4271
29341SOL     OW 5632   6.285   5.076  11.051 -0.3774 -0.0108  0.6936
29341SOL    HW1 5633   6.363   5.030  11.084 -0.3097  0.8241  1.7452
29341SOL    HW2 5634   6.320   5.151  11.003 -0.5266 -0.2080  0.2682
29342SOL     OW 5635   2.360   4.954   5.133 -0.1040  0.1727  0.8742
29342SOL    HW1 5636   2.359   4.984   5.042  0.5161 -1.5399  0.2713
29342SOL    HW2 5637   2.449   4.974   5.163  0.0270 -0.2232  0.7564
29343SOL     OW 5638  13.441  13.512  13.675  0.0273 -0.0118  0.2290
29343SOL    HW1 5639  13.529  13.502  13.711 -0.1501 -0.5693  0.5138
29343SOL    HW2 5640  13.397  13.573  13.734 -0.0026 -0.2928  0.5016
29344SOL     OW 5641   3.400  11.461   4.350  0.1237  0.2353 -0.1917
29344SOL    HW1 5642   3.436  11.507   4.274 -0.7999  0.8698 -0.2664
29344SOL    HW2 5643   3.407  11.524   4.421  0.8401 -0.3008  0.2107
29345SOL     OW 5644   2.511   7.952   6.698 -0.3330 -0.3485 -0.2733
29345SOL    HW1 5645   2.518   7.881   6.635  0.1831 -1.2725  0.7911
29345SOL    HW2 5646   2.513   7.909   6.784  0.4295  0.9633  0.4108
29346SOL     OW 5647  13.559  13.123   2.369  0.0578  0.6970 -0.2635
29346SOL    HW1 5648  13.511  13.043   2.348 -0.5391  0.3407  2.0982
29346SOL    HW2 5649  13.514  13.192   2.320 -1.1398 -0.0365 -0.2306
29347SOL     OW 5650   3.633   2.035   1.092  0.1207  0.2086 -0.2515
29347SOL    HW1 5651   3.600   2.069   1.175 -0.4151  1.2479 -0.8778
29347SOL    HW2 5652   3.721   2.071   1.085  0.6812 -0.9511  0.4697
29348SOL     OW 5653   5.843   7.547   3.439  0.0727  0.3986 -0.5098
29348SOL    HW1 5654   5.781   7.620   3.432  0.7109  1.0471  0.2631
29348SOL    HW2 5655   5.843   7.506   3.353 -1.2711  0.5074 -0.5796
29349SOL     OW 5656   3.832   3.240   0.670 -0.2939 -0.1009 -0.0086
29349SOL    HW1 5657   3.850   3.259   0.762  0.3949 -1.1550  0.0858
29349SOL    HW2 5658   3.918   3.233   0.629 -0.5386 -1.3436 -0.3603
29350SOL     OW 5659  11.294  13.107   7.074 -0.4420 -0.0475  0.0621
29350SOL    HW1 5660  11.263  13.145   6.992 -0.2993  0.9391  0.4471
29350SOL    HW2 5661  11.240  13.149   7.141  0.5398  0.4026  0.5956
29351SOL     OW 5662   8.697  10.266   2.091 -0.1272  0.0947  0.0501
29351SOL    HW1 5663   8.761  10.225   2.149  0.4369  0.9157  0.0255
29351SOL    HW2 5664   8.711  10.223   2.006 -0.0425 -0.1808  0.2037
29352SOL     OW 5665  12.422  11.019   2.670 -0.4858  0.0596 -0.2966
29352SOL    HW1 5666  12.485  11.062   2.728 -2.1328  0.6671  1.1131
29352SOL    HW2 5667  12.337  11.056   2.694 -1.4683 -1.0269 -1.8657
29353SOL     OW 5668   5.249   4.693  11.084 -0.1395  0.7423  0.5444
29353SOL    HW1 5669   5.236   4.768  11.026 -2.0302 -0.6000 -0.8949
29353SOL    HW2 5670   5.293   4.628  11.029 -1.5022 -0.3687  0.7193
29354SOL     OW 5671   4.058   3.732   4.184  0.0394  0.0978  0.3086
29354SOL    HW1 5672   3.980   3.705   4.233  0.1545 -0.0048  0.4397
29354SOL    HW2 5673   4.127   3.735   4.251  0.0087  0.8155  0.3170
29355SOL     OW 5674  12.499   6.572   9.619  0.5782  0.0208 -0.6351
29355SOL    HW1 5675  12.502   6.477   9.613  0.1915  0.0428 -1.1975
29355SOL    HW2 5676  12.549   6.592   9.698 -0.4240 -0.7241  0.2090
29356SOL     OW 5677   1.315   5.439   9.099 -0.3317  0.3660  0.3858
29356SOL    HW1 5678   1.270   5.465   9.179  0.8603 -0.7180  1.4574
29356SOL    HW2 5679   1.381   5.376   9.128  3.8416  3.7939 -0.6280
29357SOL     OW 5680   3.525   2.117   7.072 -0.0369  0.2531  0.1652
29357SOL    HW1 5681   3.539   2.196   7.020  0.7355  0.4393  0.6473
29357SOL    HW2 5682   3.543   2.045   7.011 -2.3283  0.3686 -0.7609
29358SOL     OW 5683   2.188  10.665   1.410  0.0463 -0.3028  0.0645
29358SOL    HW1 5684   2.195  10.608   1.487 -1.0221  1.8503  1.8566
29358SOL    HW2 5685   2.273  10.656   1.367  0.7881 -1.3798  1.6323
29359SOL     OW 5686  13.920   3.591  11.995 -0.0442 -0.1363 -0.0811
29359SOL    HW1 5687  13.985   3.640  11.944  0.0364 -0.1960 -0.0351
29359SOL    HW2 5688  13.879   3.532  11.931 -0.3193  0.1690 -0.1919
29360SOL     OW 5689  12.410  13.022   8.918 -0.1866  0.2443  0.2700
29360SOL    HW1 5690  12.415  12.994   9.009 -2.5936 -0.7145  0.1823
29360SOL    HW2 5691  12.469  13.097   8.912 -0.9129  1.1317  2.9383
29361SOL     OW 5692   0.341   0.729   1.504 -0.4118  0.8256  0.3508
29361SOL    HW1 5693   0.330   0.817   1.469 -0.0179  1.1509  1.0165
29361SOL    HW2 5694   0.257   0.707   1.542 -0.3948  1.0750  0.5345
29362SOL     OW 5695  10.281  13.339   4.745  0.4331 -0.2817  0.0432
29362SOL    HW1 5696  10.318  13.264   4.698  1.1241 -0.6248  1.0852
29362SOL    HW2 5697  10.186  13.325   4.740  0.4679 -0.0782 -1.5739
29363SOL     OW 5698   6.612   4.087  12.858 -0.1476 -0.2569 -0.8762
29363SOL    HW1 5699   6.707   4.079  12.851  0.1447  1.7205  0.1740
29363SOL    HW2 5700   6.581   3.997  12.872  1.5042 -0.9842 -1.6628
29364SOL     OW 5701   2.563  11.620   9.978 -0.4452 -0.2046  0.1002
29364SOL    HW1 5702   2.628  11.550   9.984 -0.7917 -0.5836 -0.5416
29364SOL    HW2 5703   2.494  11.594  10.039 -1.5582 -1.4948 -1.6166
29365SOL     OW 5704   7.313   4.364  11.921 -0.2905  0.2128  0.2235
29365SOL    HW1 5705   7.323   4.449  11.965 -1.5953  0.8993 -0.7401
29365SOL    HW2 5706   7.392   4.355  11.868 -1.3100  2.1725 -1.7972
29366SOL     OW 5707   8.228   6.753   8.712  0.6038 -0.4382  0.3174
29366SOL    HW1 5708   8.161   6.818   8.735 -0.0894 -1.0804  0.1625
29366SOL    HW2 5709   8.186   6.669   8.728  1.3521 -0.8585  0.1266
29367SOL     OW 5710   3.288   2.280   8.841 -0.1722  0.5306  0.1118
29367SOL    HW1 5711   3.227   2.211   8.815  0.3302 -0.0979  0.5727
29367SOL    HW2 5712   3.246   2.361   8.812 -1.0658  0.0850  0.1209
29368SOL     OW 5713  10.390   6.487   0.281  0.0084  0.1315  0.2188
29368SOL    HW1 5714  10.361   6.541   0.354  0.0858  0.3200  0.1103
29368SOL    HW2 5715  10.314   6.482   0.223  0.0094  0.1448  0.2167
29369SOL     OW 5716  11.962   8.042  10.259 -0.3253  0.1298 -0.3433
29369SOL    HW1 5717  11.986   7.979  10.326  0.9071  1.8575  0.9061
29369SOL    HW2 5718  11.867   8.055  10.271 -0.0696  0.6683  1.3420
29370SOL     OW 5719   0.324  12.772   9.752 -0.3717 -0.0610 -0.0119
29370SOL    HW1 5720   0.356  12.733   9.671  0.1440  0.1997  0.0641
29370SOL    HW2 5721   0.384  12.845   9.770 -2.1072  1.6803 -0.8863
29371SOL     OW 5722   9.758   0.738   1.225  0.0433  0.0924  0.2640
29371SOL    HW1 5723   9.791   0.650   1.211 -1.0279 -0.5876  1.7026
29371SOL    HW2 5724   9.704   0.756   1.148  1.5629  0.1882 -0.8341
29372SOL     OW 5725  13.822   6.517   2.202  0.2896  0.1139  0.5311
29372SOL    HW1 5726  13.832   6.584   2.271 -0.7699  0.3940  0.4279
29372SOL    HW2 5727  13.737   6.536   2.163  0.2127 -0.9854  0.1459
29373SOL     OW 5728   2.382   4.634   5.982 -0.4312  0.7771  0.0830
29373SOL    HW1 5729   2.332   4.653   5.902  0.3335 -0.8742 -0.8506
29373SOL    HW2 5730   2.320   4.650   6.053 -1.5187  1.1478 -0.9041
29374SOL     OW 5731   7.794   5.754   4.707 -0.1871  0.2067 -0.4172
29374SOL    HW1 5732   7.754   5.798   4.631 -0.5426 -0.0358 -0.3676
29374SOL    HW2 5733   7.835   5.825   4.756 -0.9832  0.5202 -0.2014
29375SOL     OW 5734   6.289   5.603   1.318  0.1714  0.3482 -0.7252
29375SOL    HW1 5735   6.275   5.690   1.355  0.0186  0.2703 -0.5977
29375SOL    HW2 5736   6.200   5.568   1.306  0.1158 -1.5573  3.3635
29376SOL     OW 5737   7.289  11.410   9.293 -0.2252 -0.4679 -0.3804
29376SOL    HW1 5738   7.331  11.394   9.208 -0.3336 -0.4968 -0.4287
29376SOL    HW2 5739   7.313  11.335   9.346  0.7456  0.0612 -0.0356
29377SOL     OW 5740   6.957   6.953   2.221 -0.2154  0.2039 -0.0023
29377SOL    HW1 5741   7.033   6.981   2.271 -0.0640  1.1372 -0.7251
29377SOL    HW2 5742   6.990   6.884   2.164 -0.1854 -0.2293  0.5351
29378SOL     OW 5743  10.414  10.104   1.720 -0.1554 -0.1699 -0.2972
29378SOL    HW1 5744  10.497  10.096   1.672  0.6351  0.1299  0.9473
29378SOL    HW2 5745  10.420  10.191   1.762 -0.4999 -0.6776  0.8469
29379SOL     OW 5746   2.741   3.245   6.756 -0.6800  0.3273 -0.1687
29379SOL    HW1 5747   2.690   3.306   6.809  0.3820  0.4291  0.7744
29379SOL    HW2 5748   2.797   3.199   6.819 -0.3480 -0.5177 -1.0472
29380SOL     OW 5749   6.863   3.074   8.705  0.0153 -0.3829 -0.4191
29380SOL    HW1 5750   6.839   3.021   8.629 -0.5539  0.2548 -0.6941
29380SOL    HW2 5751   6.836   3.021   8.780 -1.7982  0.0503 -0.7085
29381SOL     OW 5752   7.275  13.817  10.818  0.0939  0.0203 -0.5180
29381SOL    HW1 5753   7.292  13.738  10.766 -1.1964 -0.4272 -0.2998
29381SOL    HW2 5754   7.327  13.885  10.776  1.0388 -0.8880 -0.8668
29382SOL     OW 5755   2.782  10.448  12.162  0.1751  0.3264  0.3703
29382SOL    HW1 5756   2.693  10.450  12.196 -0.7972 -0.6002 -1.9600
29382SOL    HW2 5757   2.806  10.356  12.163  0.2107  0.2978 -1.1441
29383SOL     OW 5758   2.353  10.708  11.413  0.5685  0.3204 -0.3186
29383SOL    HW1 5759   2.362  10.612  11.413  0.6446  0.3268 -0.2386
29383SOL    HW2 5760   2.284  10.725  11.477  1.8495  0.4218  1.1060
29384SOL     OW 5761   1.350   3.191   9.201 -0.5081 -0.1489 -0.8340
29384SOL    HW1 5762   1.380   3.267   9.150 -0.9152  0.0863 -0.7288
29384SOL    HW2 5763   1.430   3.141   9.219  0.0572  1.1834  0.6289
29385SOL     OW 5764  13.205   3.755  14.055  0.1423  0.2259  0.7249
29385SOL    HW1 5765  13.215   3.684  14.119  0.1221  1.0609  1.6907
29385SOL    HW2 5766  13.142   3.814  14.096  0.8010  1.2212  0.3228
29386SOL     OW 5767   1.246   8.943   3.840  0.3237 -0.2159 -0.0953
29386SOL    HW1 5768   1.235   9.016   3.900 -0.0650  0.8699 -1.4303
29386SOL    HW2 5769   1.184   8.877   3.871 -0.9165  0.8857 -0.1283
29387SOL     OW 5770  13.767  13.917   0.323 -0.1870 -0.1870 -0.0116
29387SOL    HW1 5771  13.768  14.012   0.312 -1.0979 -0.2439 -0.7019
29387SOL    HW2 5772  13.812  13.903   0.406 -0.0764  0.8506  0.1260
29388SOL     OW 5773  13.217  10.756   8.234  0.4900 -0.1559 -0.4600
29388SOL    HW1 5774  13.306  10.761   8.269  0.5394 -0.2882 -0.5691
29388SOL    HW2 5775  13.188  10.667   8.253 -0.1666  0.3181  0.9224
29389SOL     OW 5776  11.728  12.821   8.383  0.3143  0.4817  0.5819
29389SOL    HW1 5777  11.732  12.800   8.290  0.3348  0.0129  0.6850
29389SOL    HW2 5778  11.816  12.803   8.416  0.7258  2.0404  0.4150
29390SOL     OW 5779   4.297   1.825   9.158  0.3720  0.5341 -0.4744
29390SOL    HW1 5780   4.267   1.813   9.068  0.1420 -0.1815 -0.3111
29390SOL    HW2 5781   4.328   1.915   9.162 -0.0842  0.7219 -1.1365
29391SOL     OW 5782  14.000  13.577  13.279  0.7263 -0.4437 -0.1541
29391SOL    HW1 5783  13.968  13.575  13.189 -0.1058 -0.5970  0.1290
29391SOL    HW2 5784  14.046  13.661  13.286  3.6513 -1.7927 -1.6219
29392SOL     OW 5785   3.028   5.083   0.346  0.0319  0.2079 -0.4218
29392SOL    HW1 5786   3.077   5.001   0.340  1.3781  1.0846 -2.4616
29392SOL    HW2 5787   2.936   5.056   0.353  0.4891 -1.4681 -0.4857
29393SOL     OW 5788   9.338  12.284   8.572 -0.7004  0.2465 -0.7616
29393SOL    HW1 5789   9.410  12.227   8.599 -2.2377 -0.8274  1.2776
29393SOL    HW2 5790   9.337  12.278   8.476 -0.0664 -2.2457 -0.6633
29394SOL     OW 5791   5.717   2.560   8.337 -0.2394  0.1571  0.2951
29394SOL    HW1 5792   5.792   2.559   8.278 -1.6079 -1.5142 -1.5425
29394SOL    HW2 5793   5.693   2.468   8.348 -0.4035  0.4386  3.0933
29395SOL     OW 5794   9.332  13.367   9.391  0.1293  0.4090  0.0316
29395SOL    HW1 5795   9.257  13.367   9.451  0.3259 -3.5934  0.5309
29395SOL    HW2 5796   9.406  13.395   9.444 -0.3775  0.8565  0.5167
29396SOL     OW 5797   2.961  10.329  12.553  0.4008 -0.0158 -0.7368
29396SOL    HW1 5798   2.878  10.376  12.539  0.7955  0.7308 -0.6155
29396SOL    HW2 5799   2.936  10.252  12.604 -0.1324  0.5526 -0.1118
29397SOL     OW 5800  10.672   8.859  11.392  0.2189  0.0095 -0.4699
29397SOL    HW1 5801  10.694   8.945  11.428  1.9398 -1.4613  2.3395
29397SOL    HW2 5802  10.606   8.824  11.452 -0.4914 -0.6658 -1.6006
29398SOL     OW 5803   0.645   7.768   1.096  0.6349  0.1360 -0.3150
29398SOL    HW1 5804   0.578   7.787   1.161 -0.8256  0.9951 -2.0085
29398SOL    HW2 5805   0.603   7.783   1.012  2.5097 -0.7895 -1.4928
29399SOL     OW 5806   6.336  11.995   1.206  0.5370 -0.0549 -0.3121
29399SOL    HW1 5807   6.329  12.036   1.292  1.6464  3.0033 -1.5260
29399SOL    HW2 5808   6.259  11.939   1.199  0.3653 -0.3303  2.5705
29400SOL     OW 5809   6.277  11.453   6.652  0.2447 -0.6949  0.2807
29400SOL    HW1 5810   6.257  11.511   6.726 -2.9182 -0.5378 -0.5236
29400SOL    HW2 5811   6.306  11.512   6.583 -2.3174 -0.0098 -0.3216
29401SOL     OW 5812  13.088  13.196   8.745  0.1510 -0.1931  0.7686
29401SOL    HW1 5813  13.166  13.233   8.785  1.1315 -1.2498 -0.1271
29401SOL    HW2 5814  13.019  13.211   8.810  0.6618  2.4014  0.8062
29402SOL     OW 5815   4.367   7.758   0.754 -0.2524 -0.1327 -0.2933
29402SOL    HW1 5816   4.428   7.820   0.796 -0.1545  1.7385 -2.9634
29402SOL    HW2 5817   4.423   7.689   0.719  0.1181  0.4601 -0.8823
29403SOL     OW 5818   4.236   0.951   6.057  0.5014 -0.2757  0.1071
29403SOL    HW1 5819   4.327   0.939   6.030  0.6529  0.1816  0.4028
29403SOL    HW2 5820   4.242   1.005   6.136 -0.0495  0.1118 -0.1121
29404SOL     OW 5821   9.139  10.660  10.072 -0.3046  0.5228 -0.0654
29404SOL    HW1 5822   9.126  10.570  10.042 -0.4066  0.4378  0.2361
29404SOL    HW2 5823   9.193  10.700  10.003 -0.8254  0.4296 -0.5369
29405SOL     OW 5824   3.754  14.087  11.911 -0.3256  0.1840 -0.1183
29405SOL    HW1 5825   3.767  14.180  11.894  2.1129 -0.0346  0.2726
29405SOL    HW2 5826   3.694  14.085  11.987  0.8804  1.4975  0.9129
29406SOL     OW 5827   4.009   2.632   8.424 -0.3202  0.1005 -0.1995
29406SOL    HW1 5828   3.993   2.537   8.417  1.8115 -0.3037 -0.1689
29406SOL    HW2 5829   3.927   2.672   8.394 -0.0682 -1.7193 -3.8575
29407SOL     OW 5830  13.074   7.284  12.887 -0.1316 -0.5248  0.0404
29407SOL    HW1 5831  12.984   7.280  12.919  0.0757  2.5177  1.3237
29407SOL    HW2 5832  13.128   7.273  12.965  0.6036 -1.0682 -0.5314
29408SOL     OW 5833   2.401  10.922   7.004  0.3841 -0.6791 -0.0237
29408SOL    HW1 5834   2.366  11.009   7.020 -0.2286 -0.9118 -0.0548
29408SOL    HW2 5835   2.324  10.865   7.005  0.9076 -1.4187  1.3533
29409SOL     OW 5836   8.019   2.306   8.677  0.0270 -0.1732 -0.4728
29409SOL    HW1 5837   7.926   2.288   8.660  0.0879 -1.6252  0.5233
29409SOL    HW2 5838   8.053   2.223   8.711  1.2350  0.8837  1.0187
29410SOL     OW 5839   3.416   7.472  11.312  0.2937  0.0843  0.3039
29410SOL    HW1 5840   3.400   7.513  11.227  2.2979 -1.5737 -0.9717
29410SOL    HW2 5841   3.488   7.523  11.350  0.4937 -0.1617  0.2585
29411SOL     OW 5842  10.737  11.204  10.503 -0.1761  0.3800 -0.0679
29411SOL    HW1 5843  10.699  11.267  10.441  0.1535 -1.8587 -2.7524
29411SOL    HW2 5844  10.717  11.118  10.465  0.4930 -1.1448  2.7454
29412SOL     OW 5845  13.596   3.248  10.615 -0.0684  0.2042 -0.6698
29412SOL    HW1 5846  13.546   3.305  10.674  1.2815  0.1593  0.5704
29412SOL    HW2 5847  13.592   3.162  10.656  0.1973 -0.0082 -1.0949
29413SOL     OW 5848   3.258   8.997   2.500 -0.3992  0.3319 -0.0563
29413SOL    HW1 5849   3.276   9.001   2.406 -1.2617  2.1303 -0.2027
29413SOL    HW2 5850   3.205   9.075   2.517 -0.3685 -0.0229  1.9081
29414SOL     OW 5851   6.928   3.265   7.176 -0.0251 -0.2236 -0.1244
29414SOL    HW1 5852   6.984   3.188   7.178 -0.1484 -0.3026  0.5345
29414SOL    HW2 5853   6.864   3.246   7.108 -0.2489 -0.8484  0.2497
29415SOL     OW 5854   8.923   3.206   5.137 -0.2108  0.3696  0.1980
29415SOL    HW1 5855   8.954   3.249   5.217  3.3536 -1.1506 -0.1999
29415SOL    HW2 5856   8.927   3.274   5.070  2.0886  0.3563  0.2599
29416SOL     OW 5857  11.079  10.765   3.864  0.1026  0.5550 -0.6086
29416SOL    HW1 5858  11.102  10.826   3.935 -2.3004  0.6709  0.1596
29416SOL    HW2 5859  11.063  10.682   3.909  0.7791  0.0246 -1.3268
29417SOL     OW 5860  11.624  10.500  10.048 -0.0591  0.4179 -0.2403
29417SOL    HW1 5861  11.549  10.443  10.063 -0.0236  0.7083  1.2326
29417SOL    HW2 5862  11.628  10.511   9.953 -1.0302 -0.7173 -0.4339
29418SOL     OW 5863   9.784  10.500   2.761  0.3311 -0.2905  0.1434
29418SOL    HW1 5864   9.741  10.561   2.700  1.8112 -0.1726 -0.8399
29418SOL    HW2 5865   9.763  10.534   2.848 -0.3031  0.6222 -0.3478
29419SOL     OW 5866   4.775   2.852   5.472  0.5129 -0.8797 -0.6096
29419SOL    HW1 5867   4.687   2.880   5.446 -0.4152 -3.7102 -0.8640
29419SOL    HW2 5868   4.775   2.860   5.568  0.2428 -0.2695 -0.6506
29420SOL     OW 5869   2.446   6.318  10.762  0.6081 -0.0760 -0.2392
29420SOL    HW1 5870   2.444   6.233  10.718  2.7254 -0.3089  0.0284
29420SOL    HW2 5871   2.416   6.380  10.695  2.0065 -0.6551 -1.4480
29421SOL     OW 5872  12.227  12.185   6.737  0.1888  1.0694 -0.1162
29421SOL    HW1 5873  12.172  12.218   6.809 -1.2421  1.3273 -1.2702
29421SOL    HW2 5874  12.268  12.264   6.701  0.2929  1.0396 -0.0612
29422SOL     OW 5875  13.268   2.002  13.180  0.0853 -0.1574 -0.1862
29422SOL    HW1 5876  13.228   2.055  13.110  0.0082 -2.0140 -1.6375
29422SOL    HW2 5877  13.217   1.921  13.180  1.7521 -1.2472  0.2204
29423SOL     OW 5878   3.185   7.824   2.784 -0.0802 -0.3161  0.0609
29423SOL    HW1 5879   3.197   7.889   2.715  1.4784  0.0991  0.6777
29423SOL    HW2 5880   3.159   7.875   2.861 -0.6581 -0.6414  0.0853
29424SOL     OW 5881  12.175   6.548   3.985  0.2067 -0.1034 -0.5020
29424SOL    HW1 5882  12.225   6.630   3.979 -1.1972  0.8945  0.7382
29424SOL    HW2 5883  12.132   6.552   4.070 -1.7190 -1.0353 -1.3593
29425SOL     OW 5884   5.640   5.046  12.021  0.2357 -0.0115 -0.0631
29425SOL    HW1 5885   5.605   5.082  12.102 -0.1051  0.4186 -0.3951
29425SOL    HW2 5886   5.697   5.115  11.987 -1.5791  0.8889 -1.4670
29426SOL     OW 5887   9.215   3.762  10.351 -0.2089 -0.4658 -0.4933
29426SOL    HW1 5888   9.252   3.794  10.434 -0.6906 -0.3112 -0.3354
29426SOL    HW2 5889   9.120   3.766  10.364 -0.2971 -0.0599 -1.1908
29427SOL     OW 5890   2.620  10.114   0.144 -0.2079 -0.3727  0.1638
29427SOL    HW1 5891   2.566  10.151   0.074 -2.1930 -2.9467  0.1745
29427SOL    HW2 5892   2.639  10.025   0.115  0.0608 -1.0479  2.2666
29428SOL     OW 5893  11.788   2.049   7.466 -1.1917  0.6812 -0.3530
29428SOL    HW1 5894  11.727   2.021   7.399 -1.4898 -1.4121  0.6824
29428SOL    HW2 5895  11.769   1.992   7.541 -0.7089  2.7209  1.4463
29429SOL     OW 5896   0.283  11.775   8.024  0.2154 -0.0922 -0.4561
29429SOL    HW1 5897   0.319  11.697   8.064 -1.0199 -0.1145  0.6525
29429SOL    HW2 5898   0.328  11.848   8.067  1.9631 -0.1343 -2.0534
29430SOL     OW 5899  11.407   1.191   2.538  0.5647  0.3435  0.1567
29430SOL    HW1 5900  11.396   1.134   2.614 -0.9066  0.6400  0.2024
29430SOL    HW2 5901  11.454   1.267   2.571  2.4362 -0.7476  0.1265
29431SOL     OW 5902   4.725   2.089   2.341 -0.3514  0.4729  0.3180
29431SOL    HW1 5903   4.741   2.084   2.246 -0.1511  0.0745  0.3703
29431SOL    HW2 5904   4.705   2.181   2.356  0.9672  0.8318  0.0894
29432SOL     OW 5905   3.002  10.776   0.605  0.0717 -0.3784 -0.5342
29432SOL    HW1 5906   2.929  10.831   0.576 -0.8340 -2.2744 -2.1433
29432SOL    HW2 5907   3.047  10.753   0.524  3.3643  1.7824  0.4966
29433SOL     OW 5908  14.044   5.935   2.011  0.2067 -0.1064  0.6582
29433SOL    HW1 5909  14.110   5.882   1.966  0.5926  0.8621  0.0390
29433SOL    HW2 5910  14.007   5.990   1.942 -0.7410 -0.1254  1.1393
29434SOL     OW 5911   2.074  10.061   6.765  0.5195  0.8227  0.4575
29434SOL    HW1 5912   2.108  10.053   6.854  1.1477  2.3199  0.3960
29434SOL    HW2 5913   2.024  10.142   6.766 -0.0627  0.4840 -0.3802
29435SOL     OW 5914   7.564   7.268   3.960 -0.2302  0.8921 -0.3597
29435SOL    HW1 5915   7.563   7.363   3.950 -1.0385  1.0957  1.4221
29435SOL    HW2 5916   7.478   7.240   3.928 -1.0693  1.0770  1.6450
29436SOL     OW 5917  10.728   2.584   5.930  0.5292 -0.5184  0.4349
29436SOL    HW1 5918  10.818   2.555   5.913  0.1852 -1.5120  0.1998
29436SOL    HW2 5919  10.711   2.555   6.020  0.9788  1.1273  1.0860
29437SOL     OW 5920  10.468  11.315   4.671  0.3123  0.2483  0.6404
29437SOL    HW1 5921  10.373  11.325   4.669  0.3469  0.7835 -1.6578
29437SOL    HW2 5922  10.482  11.221   4.680 -0.4246  0.1911  1.2667
29438SOL     OW 5923   4.656  12.724   1.122 -1.0297 -0.2477  0.5189
29438SOL    HW1 5924   4.620  12.697   1.206 -1.6737 -0.4875  0.1756
29438SOL    HW2 5925   4.659  12.643   1.070 -2.2282  0.1771 -0.2478
29439SOL     OW 5926  13.412   5.313  13.128  0.4123  0.0126  0.0976
29439SOL    HW1 5927  13.419   5.227  13.086 -2.9868 -1.2375  1.7004
29439SOL    HW2 5928  13.355   5.364  13.069 -1.6821 -0.6396  1.4569
29440SOL     OW 5929   7.810  11.830   8.694  0.2259 -0.0302 -0.4413
29440SOL    HW1 5930   7.735  11.805   8.747 -0.4541  0.4506 -1.1556
29440SOL    HW2 5931   7.774  11.887   8.626  1.4780  1.6279  0.2147
29441SOL     OW 5932  10.184  12.714  10.722 -0.0183 -0.5035 -0.2186
29441SOL    HW1 5933  10.175  12.803  10.756 -0.4576 -1.2906  1.8799
29441SOL    HW2 5934  10.255  12.676  10.773 -0.8429 -1.8232 -0.0243
29442SOL     OW 5935  12.511   9.077   6.777  0.1457  0.4300 -0.3831
29442SOL    HW1 5936  12.595   9.032   6.773  1.4012  2.3552  1.7839
29442SOL    HW2 5937  12.508   9.130   6.697  1.1063  0.5012 -0.3810
29443SOL     OW 5938   7.735   0.789   4.818  0.1790  0.2203 -0.0061
29443SOL    HW1 5939   7.651   0.774   4.773 -0.4170  1.6773  0.5717
29443SOL    HW2 5940   7.716   0.769   4.909  0.5700  0.2122  0.0741
29444SOL     OW 5941  10.538   4.306  13.363  0.0992  0.7462  0.3370
29444SOL    HW1 5942  10.551   4.256  13.283  2.0018  1.4636  0.1583
29444SOL    HW2 5943  10.461   4.360  13.346 -0.5241 -0.3331 -0.3601
29445SOL     OW 5944  11.618   1.378   5.559 -0.4276 -0.6086  0.4064
29445SOL    HW1 5945  11.679   1.370   5.632 -0.5362 -1.0003  0.4559
29445SOL    HW2 5946  11.552   1.440   5.591  0.5846  0.7716 -0.0993
29446SOL     OW 5947   1.597  13.884  13.468 -0.4655  0.4178  0.4054
29446SOL    HW1 5948   1.532  13.842  13.523 -3.0337  1.0730 -1.9017
29446SOL    HW2 5949   1.601  13.830  13.389  1.9983  0.3144  0.5123
29447SOL     OW 5950   2.247   5.607  12.902  0.0280 -0.1031 -0.6830
29447SOL    HW1 5951   2.272   5.556  12.979  0.6507  1.0043 -0.1405
29447SOL    HW2 5952   2.258   5.546  12.828 -1.2100 -1.3806  0.1396
29448SOL     OW 5953  12.290  13.946   9.045 -0.0932  0.0944 -0.1017
29448SOL    HW1 5954  12.300  14.041   9.037 -0.0186  0.0699 -0.2896
29448SOL    HW2 5955  12.223  13.924   8.981  0.7452 -0.1441 -0.9206
29449SOL     OW 5956  13.988   8.335   3.646  0.5837 -0.1670  0.8367
29449SOL    HW1 5957  14.042   8.313   3.722  2.6240 -1.8961 -0.9946
29449SOL    HW2 5958  14.008   8.267   3.582 -1.3215  1.0361 -1.1526
29450SOL     OW 5959   9.916   0.926   8.287  0.4951 -0.2537  0.5318
29450SOL    HW1 5960  10.010   0.936   8.276  0.6524  0.0962  2.0312
29450SOL    HW2 5961   9.905   0.879   8.370 -0.6144 -2.2452 -0.6458
29451SOL     OW 5962   4.473   3.374   4.634  0.0228  0.1814 -0.4780
29451SOL    HW1 5963   4.428   3.359   4.717 -0.7926  0.4511 -0.8644
29451SOL    HW2 5964   4.460   3.293   4.585 -0.5788  0.4835 -0.8285
29452SOL     OW 5965   5.908  10.640   6.731 -0.2158 -0.3493 -0.5191
29452SOL    HW1 5966   5.947  10.672   6.650 -0.1780  0.9735 -0.0122
29452SOL    HW2 5967   5.979  10.644   6.795 -0.6260  0.0858 -0.0767
29453SOL     OW 5968   6.665  13.614  12.355 -0.1296  0.3148  0.0107
29453SOL    HW1 5969   6.749  13.588  12.318 -0.9619 -1.2850 -0.8870
29453SOL    HW2 5970   6.680  13.702  12.390  1.6800  0.3950 -0.8518
29454SOL     OW 5971   9.742   3.540   3.762 -0.2445 -0.3899 -0.4115
29454SOL    HW1 5972   9.663   3.579   3.725  0.2685  1.1459  0.0429
29454SOL    HW2 5973   9.811   3.560   3.699 -0.0941 -1.2048 -0.5156
29455SOL     OW 5974  12.319   7.181  12.037  0.1599  0.7475  0.3875
29455SOL    HW1 5975  12.361   7.219  12.115  1.8340 -0.1978  0.0105
29455SOL    HW2 5976  12.336   7.245  11.968  1.5242  0.1386  0.1207
29456SOL     OW 5977   6.722  11.816   2.173 -0.0192  0.1935  0.1424
29456SOL    HW1 5978   6.732  11.767   2.091  1.8814  0.2017  0.3314
29456SOL    HW2 5979   6.638  11.787   2.208  0.6153 -2.2715 -0.2090
29457SOL     OW 5980   2.847   1.369   5.603  0.3926  0.0933  0.7818
29457SOL    HW1 5981   2.933   1.399   5.573  0.9498 -1.8360  0.3076
29457SOL    HW2 5982   2.843   1.394   5.695  1.2465  0.6693  0.6729
29458SOL     OW 5983  12.661   6.759   7.828 -0.3319 -0.4253  0.4442
29458SOL    HW1 5984  12.612   6.789   7.751 -1.6981 -0.6341  1.1964
29458SOL    HW2 5985  12.621   6.806   7.902  2.0933  1.1283  0.8958
29459SOL     OW 5986   7.084  13.575  12.845 -0.1454  0.2564  0.4168
29459SOL    HW1 5987   7.056  13.665  12.861  0.1962  0.1660  1.5958
29459SOL    HW2 5988   7.180  13.579  12.844 -0.1273 -0.1165  0.5921
29460SOL     OW 5989   8.517   0.571  10.606 -0.1127  0.4581 -0.5408
29460SOL    HW1 5990   8.494   0.576  10.699 -0.1621 -0.2757 -0.5091
29460SOL    HW2 5991   8.468   0.643  10.566  0.7800  1.4939  0.1602
29461SOL     OW 5992  12.259   5.643   7.103 -0.2491  0.0761 -0.1547
29461SOL    HW1 5993  12.230   5.593   7.026  2.1362 -0.8586 -0.5153
29461SOL    HW2 5994  12.263   5.577   7.172  4.2916 -0.7863 -0.9598
29462SOL     OW 5995  11.669   2.896   1.163 -0.1849 -0.5350 -0.0578
29462SOL    HW1 5996  11.702   2.926   1.078  0.1756 -1.6144 -0.3229
29462SOL    HW2 5997  11.574   2.887   1.149 -0.2656  0.2195 -0.0425
29463SOL     OW 5998   2.616  12.006   6.189 -0.0505 -0.3144  0.6098
29463SOL    HW1 5999   2.664  11.926   6.212 -1.2115 -0.8180  1.3712
29463SOL    HW2 6000   2.526  11.977   6.172 -0.2327  0.6758 -0.2678
29464SOL     OW 6001   5.161  12.289   0.860  0.2044 -0.0960  0.4028
29464SOL    HW1 6002   5.135  12.258   0.947  1.1368 -0.4319  0.5699
29464SOL    HW2 6003   5.148  12.384   0.865  1.0851 -0.0031  1.2146
29465SOL     OW 6004   4.525  12.565   3.114  0.3222  0.1758 -0.1369
29465SOL    HW1 6005   4.446  12.546   3.165  2.4808 -1.0573  3.0389
29465SOL    HW2 6006   4.547  12.655   3.135  0.2745  0.2194 -0.2733
29466SOL     OW 6007   1.805   2.300  13.852  0.0745  0.3189 -0.2434
29466SOL    HW1 6008   1.882   2.257  13.889 -0.2675 -0.6172 -0.5906
29466SOL    HW2 6009   1.732   2.272  13.908 -0.5398 -1.5667 -1.8598
29467SOL     OW 6010  13.600  11.673   0.474 -0.5495 -0.2271 -0.8002
29467SOL    HW1 6011  13.676  11.700   0.524  2.0387 -1.4985 -3.6750
29467SOL    HW2 6012  13.533  11.738   0.494  1.8199  1.9613  0.6238
29468SOL     OW 6013   1.095   6.372   3.826  0.2808 -0.3204 -0.2496
29468SOL    HW1 6014   1.115   6.346   3.736 -1.5546  1.9052 -1.3924
29468SOL    HW2 6015   1.179   6.401   3.862  1.4660 -3.1327 -0.4213
29469SOL     OW 6016   1.737  13.970   8.044  0.2683 -0.6403 -0.5101
29469SOL    HW1 6017   1.819  13.977   8.094  0.0951  0.0664 -0.3136
29469SOL    HW2 6018   1.750  14.026   7.969 -0.1431 -0.2985 -0.3300
29470SOL     OW 6019   2.490   9.086   6.321  0.4309 -0.4625  0.2808
29470SOL    HW1 6020   2.500   9.015   6.384  0.9337  0.1349  0.8910
29470SOL    HW2 6021   2.434   9.050   6.252  1.1957 -1.6504  0.2612
29471SOL     OW 6022  12.677   4.424  11.370 -0.2233 -0.0561 -0.0427
29471SOL    HW1 6023  12.640   4.395  11.454 -0.2992  0.2698  0.0405
29471SOL    HW2 6024  12.742   4.358  11.348 -1.4681 -1.1195 -0.6344
29472SOL     OW 6025   1.253  10.372   1.995  0.0647 -0.5975  0.1788
29472SOL    HW1 6026   1.242  10.300   1.931  0.1249  0.7433 -1.4102
29472SOL    HW2 6027   1.200  10.443   1.959  0.9561  0.5534  1.0993
29473SOL     OW 6028   0.805   7.110   0.854  0.1493  0.0490 -0.2598
29473SOL    HW1 6029   0.816   7.019   0.826  0.1388  0.5771 -2.1572
29473SOL    HW2 6030   0.856   7.117   0.934  0.3928 -1.5434 -0.2345
29474SOL     OW 6031   3.234   5.987  11.345 -0.4446  0.1450  0.1091
29474SOL    HW1 6032   3.219   5.918  11.409 -0.1764 -2.0559 -2.0529
29474SOL    HW2 6033   3.324   6.015  11.360 -0.4934 -0.1066  0.8876
29475SOL     OW 6034  11.750   8.626   9.768  0.8800  0.0670  0.2539
29475SOL    HW1 6035  11.668   8.583   9.742  1.3726 -0.7339 -0.0030
29475SOL    HW2 6036  11.738   8.645   9.861 -1.5472  4.4068 -0.6610
29476SOL     OW 6037   3.372   6.320   8.056 -0.0382 -0.8929 -0.2878
29476SOL    HW1 6038   3.342   6.352   8.141  0.6666  1.4174 -0.8365
29476SOL    HW2 6039   3.308   6.355   7.994  0.8924 -0.2910 -0.9332
29477SOL     OW 6040   5.417  11.081   8.380  0.1195 -0.0221 -0.0446
29477SOL    HW1 6041   5.479  11.147   8.411  0.1801  0.4575 -1.1300
29477SOL    HW2 6042   5.331  11.116   8.404  0.2199 -0.1775  0.5368
29478SOL     OW 6043   9.214   6.483   0.650 -0.4464 -0.4437  0.2546
29478SOL    HW1 6044   9.151   6.415   0.674 -1.8333  0.1764 -1.3854
29478SOL    HW2 6045   9.269   6.442   0.584 -1.0188 -0.1218 -0.4329
29479SOL     OW 6046   6.969   4.434   0.001  1.0026  0.2540 -0.6135
29479SOL    HW1 6047   6.980   4.464   0.091  0.1714  1.8166 -0.9889
29479SOL    HW2 6048   7.043   4.375  -0.014  0.7851 -0.6015  1.2920
29480SOL     OW 6049  10.871   2.581  11.159 -0.4662 -0.0372  0.0448
29480SOL    HW1 6050  10.904   2.589  11.069 -1.4063 -0.8640 -0.3915
29480SOL    HW2 6051  10.894   2.491  11.185 -1.2392 -0.1922  0.1977
29481SOL     OW 6052   8.310   9.362   0.080 -0.1612  0.2117  0.6689
29481SOL    HW1 6053   8.240   9.415   0.117  0.2655  1.5922 -0.4113
29481SOL    HW2 6054   8.351   9.320   0.156 -1.6811 -0.0681  1.3699
29482SOL     OW 6055  10.183   6.626  11.397 -0.3145  0.2643 -0.2500
29482SOL    HW1 6056  10.177   6.627  11.301 -1.2774  1.6933 -0.2097
29482SOL    HW2 6057  10.098   6.660  11.426 -0.0341 -0.1620  1.1149
29483SOL     OW 6058   3.808   1.816   0.942  0.1974  0.4598  0.2167
29483SOL    HW1 6059   3.780   1.901   0.909  2.0568  0.8874 -0.4186
29483SOL    HW2 6060   3.850   1.835   1.026  1.6667  0.3873 -0.4641
29484SOL     OW 6061   3.864   0.170   2.317  0.5384 -0.1922  0.4881
29484SOL    HW1 6062   3.955   0.187   2.293  0.5511 -0.1530  0.5643
29484SOL    HW2 6063   3.870   0.103   2.386  0.4621 -0.9761 -0.2419
29485SOL     OW 6064   7.922   4.413   3.241  0.4162  0.0190  0.2727
29485SOL    HW1 6065   7.951   4.504   3.248 -0.3925  0.4974 -1.9753
29485SOL    HW2 6066   7.861   4.402   3.314  2.5010  0.4043  2.2114
29486SOL     OW 6067   0.199  10.641  13.927  0.6641 -0.3300 -0.1319
29486SOL    HW1 6068   0.167  10.584  13.997 -1.5185 -0.3968 -1.1161
29486SOL    HW2 6069   0.182  10.730  13.959  2.0100 -0.2473  0.4450
29487SOL     OW 6070   5.471   1.062   3.061 -0.4327 -0.3275 -0.0675
29487SOL    HW1 6071   5.493   1.083   2.970  1.2220 -0.7846  0.1867
29487SOL    HW2 6072   5.556   1.042   3.101 -1.3407 -1.9324  1.1166
29488SOL     OW 6073   0.528   2.775   3.429  0.2898 -0.0644  0.2765
29488SOL    HW1 6074   0.498   2.736   3.347 -0.5747  0.4774  0.3174
29488SOL    HW2 6075   0.510   2.708   3.495  2.1590 -1.0222 -0.1054
29489SOL     OW 6076   3.946   7.921  12.711  0.2341 -0.3525  0.0063
29489SOL    HW1 6077   3.939   7.944  12.803 -0.4316 -0.5489  0.0078
29489SOL    HW2 6078   4.040   7.910  12.696  0.4170  0.5578  0.4355
29490SOL     OW 6079   3.075   4.792  11.125  0.3562 -0.5750  0.1535
29490SOL    HW1 6080   3.044   4.823  11.040 -1.3842  1.4811  1.4221
29490SOL    HW2 6081   3.170   4.787  11.117  0.2720  0.2374 -1.7044
29491SOL     OW 6082   8.060  12.806   4.257 -0.4065 -0.0167 -0.8381
29491SOL    HW1 6083   8.094  12.730   4.209  0.6376 -0.6855  0.8772
29491SOL    HW2 6084   8.110  12.808   4.338 -0.7527  2.2448 -0.6121
29492SOL     OW 6085  13.304  13.495   5.056  0.0878 -0.3780  0.5394
29492SOL    HW1 6086  13.275  13.520   5.144  0.1367  0.2631  0.3761
29492SOL    HW2 6087  13.395  13.468   5.069 -0.1990 -1.2378  0.8457
29493SOL     OW 6088   4.829   0.780   6.160 -0.0665  0.1730  0.5345
29493SOL    HW1 6089   4.744   0.782   6.117 -0.1792  1.0484  0.7678
29493SOL    HW2 6090   4.835   0.865   6.203  0.5159 -0.2619  1.3219
29494SOL     OW 6091  12.825  10.356   5.104  0.4508 -0.1909 -0.0874
29494SOL    HW1 6092  12.783  10.277   5.139  0.9692 -1.0143 -1.2578
29494SOL    HW2 6093  12.818  10.420   5.175  0.5525 -1.4738  1.1294
29495SOL     OW 6094   6.618  11.309   8.505 -0.1575 -0.1179  0.5540
29495SOL    HW1 6095   6.557  11.271   8.441 -0.7348 -0.8283  1.4966
29495SOL    HW2 6096   6.562  11.335   8.578  0.5966 -0.1764  1.1623
29496SOL     OW 6097   4.286  10.382   5.333 -0.7961 -0.1388  0.2784
29496SOL    HW1 6098   4.380  10.379   5.354 -0.7680  1.4948  0.5496
29496SOL    HW2 6099   4.261  10.472   5.352 -1.9801  0.0035 -1.7010
29497SOL     OW 6100   7.716   2.093   4.341  0.6455 -0.7224 -0.1423
29497SOL    HW1 6101   7.782   2.117   4.276  3.2085 -1.1805  2.0707
29497SOL    HW2 6102   7.684   2.008   4.313  0.0293  0.0439 -1.9074
29498SOL     OW 6103   7.748   0.903   0.363 -0.4336  0.3033  0.0147
29498SOL    HW1 6104   7.709   0.965   0.424 -1.0527 -1.0214  1.0128
29498SOL    HW2 6105   7.679   0.886   0.299  0.2654  1.8092 -1.2116
29499SOL     OW 6106   6.706   8.952  12.353 -0.7120  0.3939 -0.4543
29499SOL    HW1 6107   6.781   9.011  12.363  0.5357 -0.3029 -3.9740
29499SOL    HW2 6108   6.657   8.989  12.280 -2.1986 -0.7501 -0.0776
29500SOL     OW 6109  13.157   1.445   0.887 -0.2195  0.0322 -0.6694
29500SOL    HW1 6110  13.124   1.396   0.962 -0.9429 -0.0866 -1.0581
29500SOL    HW2 6111  13.162   1.536   0.918 -1.2837  0.1171 -0.7176
29501SOL     OW 6112   0.688   8.683  10.549  0.7686  0.1257 -0.8433
29501SOL    HW1 6113   0.749   8.697  10.477  0.0941  0.3308 -1.3916
29501SOL    HW2 6114   0.610   8.645  10.507  1.6759 -3.3085  0.2447
29502SOL     OW 6115  10.611   4.908  12.225 -0.2777 -0.1072  0.2734
29502SOL    HW1 6116  10.592   4.860  12.306 -0.6006 -0.3960  0.0306
29502SOL    HW2 6117  10.589   4.847  12.155  1.4818 -0.4347 -0.0417
29503SOL     OW 6118   6.433  13.424   9.744  0.3880  0.2699 -0.4363
29503SOL    HW1 6119   6.517  13.431   9.788  1.3824  0.0702 -2.1927
29503SOL    HW2 6120   6.368  13.449   9.810  1.9234  1.8077  0.5474
29504SOL     OW 6121   0.121   6.484  11.862 -0.0537 -0.0820 -0.8744
29504SOL    HW1 6122   0.175   6.406  11.845 -1.0896 -0.6842 -1.5192
29504SOL    HW2 6123   0.079   6.502  11.778 -0.2304  0.8672 -0.5864
29505SOL     OW 6124   0.286   1.733   7.480 -0.5629  0.2949 -0.1000
29505SOL    HW1 6125   0.290   1.828   7.484  1.0923  0.2770 -0.3111
29505SOL    HW2 6126   0.357   1.704   7.538  0.6209 -0.7191 -1.9393
29506SOL     OW 6127   4.149   4.945   3.102 -0.1315  0.3218 -0.1093
29506SOL    HW1 6128   4.126   5.017   3.043 -0.7069  1.5253  1.4820
29506SOL    HW2 6129   4.233   4.971   3.140 -0.6170  0.4588  0.9034
29507SOL     OW 6130   2.312   5.285   7.127 -0.5614 -0.4114  0.2863
29507SOL    HW1 6131   2.374   5.298   7.055  0.9219  0.0358  1.5703
29507SOL    HW2 6132   2.226   5.305   7.089  0.2548  0.5711 -1.1508
29508SOL     OW 6133  10.360   0.019   2.578 -0.2427  0.0763 -0.5375
29508SOL    HW1 6134  10.429   0.086   2.571 -0.6021  0.3911 -1.1836
29508SOL    HW2 6135  10.389  -0.051   2.520 -0.1396 -0.0924 -0.2863
29509SOL     OW 6136   0.998   8.396   9.358 -0.7337 -0.5037 -0.6572
29509SOL    HW1 6137   0.934   8.424   9.424 -0.1197 -1.5145  0.4040
29509SOL    HW2 6138   0.971   8.307   9.336 -0.2551 -0.5792 -0.9284
29510SOL     OW 6139  11.260   2.329   1.603 -0.7691 -1.0058 -0.0276
29510SOL    HW1 6140  11.201   2.403   1.590 -1.0805 -1.4290 -1.1343
29510SOL    HW2 6141  11.242   2.271   1.529  0.2720 -1.6520  0.2093
29511SOL     OW 6142  11.528   3.003   4.954  0.2447 -0.0258  0.8357
29511SOL    HW1 6143  11.484   3.003   5.039  0.4161 -0.5580  0.9277
29511SOL    HW2 6144  11.498   3.083   4.911 -1.5951 -0.8604  0.4902
29512SOL     OW 6145  10.406  10.557   1.980 -0.3596  0.5454 -0.3717
29512SOL    HW1 6146  10.344  10.630   1.973  0.4927  1.3389  0.0418
29512SOL    HW2 6147  10.418  10.547   2.075 -0.7548 -0.3986 -0.4141
29513SOL     OW 6148   0.982   0.750   8.896  0.2868  0.4617  0.1594
29513SOL    HW1 6149   0.968   0.764   8.802 -2.0199  0.7738  0.4825
29513SOL    HW2 6150   0.957   0.834   8.936 -1.0321 -0.3898  1.1954
29514SOL     OW 6151   5.409   7.148   6.010  0.0790 -0.0532 -0.7728
29514SOL    HW1 6152   5.417   7.098   6.091  1.4888 -2.3858 -2.2461
29514SOL    HW2 6153   5.415   7.240   6.038  0.6392 -0.7815  1.7284
29515SOL     OW 6154   7.633   4.443   3.067  0.6291 -0.1374  0.1097
29515SOL    HW1 6155   7.685   4.518   3.096 -0.9134  1.6468 -1.5223
29515SOL    HW2 6156   7.588   4.413   3.147  1.0982  0.7998  0.7400
29516SOL     OW 6157   1.044  13.531   0.132  0.3426  0.5271  0.2744
29516SOL    HW1 6158   1.016  13.573   0.051 -1.0265  1.1198  1.0158
29516SOL    HW2 6159   1.102  13.595   0.173 -0.3083  0.9618  0.5424
29517SOL     OW 6160   9.597  11.825   1.161 -0.0352  0.5240  0.3013
29517SOL    HW1 6161   9.531  11.894   1.167 -1.2712 -0.6132  0.4383
29517SOL    HW2 6162   9.567  11.770   1.088 -0.8077 -1.5485  2.0618
29518SOL     OW 6163   9.540  12.280   6.407  0.5734  0.0115 -0.0003
29518SOL    HW1 6164   9.520  12.252   6.318  0.3284  0.9356 -0.2385
29518SOL    HW2 6165   9.588  12.362   6.397  1.9083 -0.6525  0.6719
29519SOL     OW 6166   1.409  10.946   0.503  0.4664 -0.2124  0.3604
29519SOL    HW1 6167   1.421  10.946   0.408  0.4221  0.9685  0.3417
29519SOL    HW2 6168   1.441  11.032   0.531 -0.7242 -0.0456  1.2577
29520SOL     OW 6169  12.190   2.610   7.093  0.3736  0.0507  0.5695
29520SOL    HW1 6170  12.237   2.612   7.177 -1.5023  1.0700  1.6567
29520SOL    HW2 6171  12.099   2.628   7.116 -0.1975  0.3696 -1.7109
29521SOL     OW 6172  12.532  12.307   0.230  0.3316  0.6883  0.2725
29521SOL    HW1 6173  12.562  12.259   0.307  0.6778  1.3594  0.5650
29521SOL    HW2 6174  12.459  12.255   0.196 -0.0118  0.5300  1.2264
29522SOL     OW 6175  13.515   6.584   2.216  0.0307 -0.0405 -0.6641
29522SOL    HW1 6176  13.421   6.603   2.215  0.0584  0.4897  1.8048
29522SOL    HW2 6177  13.555   6.661   2.256  1.3343 -0.9707 -0.0997
29523SOL     OW 6178   5.921   5.294   4.477 -0.6791 -0.2160  0.2814
29523SOL    HW1 6179   5.889   5.204   4.480 -1.8038  0.1749  0.5532
29523SOL    HW2 6180   5.974   5.303   4.556 -0.7870 -0.5658  0.3953
29524SOL     OW 6181  12.854  13.965   4.120  0.1953  0.5432  0.8093
29524SOL    HW1 6182  12.866  14.008   4.035  0.7374  0.6474  0.9374
29524SOL    HW2 6183  12.759  13.960   4.131 -0.0032 -2.2062 -1.1948
29525SOL     OW 6184   2.116   2.019   5.610  0.1316  0.2170 -0.3695
29525SOL    HW1 6185   2.148   1.975   5.531  0.4576 -0.3218  0.0527
29525SOL    HW2 6186   2.069   1.950   5.657  1.0065  0.2082  0.5075
29526SOL     OW 6187  11.062  12.191  10.262 -0.1240 -0.5871  0.2963
29526SOL    HW1 6188  11.112  12.270  10.279  0.7570 -0.9055 -0.7259
29526SOL    HW2 6189  11.128  12.123  10.248 -0.8519 -1.2380 -0.0641
29527SOL     OW 6190   9.214  12.406   6.059 -0.5768 -0.2920  0.5842
29527SOL    HW1 6191   9.134  12.365   6.093 -0.5528 -1.8349 -1.0715
29527SOL    HW2 6192   9.187  12.495   6.039 -0.8245  0.4404  3.6215
29528SOL     OW 6193   6.400   1.661   6.014 -0.4339  0.3473  0.1398
29528SOL    HW1 6194   6.436   1.626   5.933  1.0801 -1.5342  1.5209
29528SOL    HW2 6195   6.470   1.717   6.049  0.1691 -1.1202  1.4637
29529SOL     OW 6196  11.466  13.582  12.024  0.0287  0.6797  0.6332
29529SOL    HW1 6197  11.506  13.600  11.939  0.1790 -0.5459  0.4243
29529SOL    HW2 6198  11.374  13.566  12.005  0.4354 -1.7387  0.3471
29530SOL     OW 6199   4.759   1.629   9.850  0.1083  0.5137 -0.6920
29530SOL    HW1 6200   4.680   1.660   9.805 -1.4894  0.5251  1.9383
29530SOL    HW2 6201   4.830   1.651   9.790 -1.7933  1.1703 -2.8499
29531SOL     OW 6202  12.498   6.881   8.009  0.3665  0.7259  0.6515
29531SOL    HW1 6203  12.452   6.800   7.986  1.1215  0.8005 -1.3612
29531SOL    HW2 6204  12.429   6.943   8.030 -0.3566  0.2708 -0.3184
29532SOL     OW 6205   2.784   7.002   0.774 -0.2711  0.6951 -0.1585
29532SOL    HW1 6206   2.861   7.058   0.773 -0.1340  0.5091 -0.9222
29532SOL    HW2 6207   2.723   7.046   0.833  0.6328  0.5263  0.9391
29533SOL     OW 6208   8.636  13.624   0.776 -0.3458 -0.4584  0.1195
29533SOL    HW1 6209   8.660  13.535   0.747 -0.3241 -0.4466  0.0995
29533SOL    HW2 6210   8.543  13.618   0.796 -0.3778 -0.4493 -0.0240
29534SOL     OW 6211   8.785  12.132   2.433  0.0107 -0.3276 -0.2629
29534SOL    HW1 6212   8.780  12.134   2.337  0.5484  1.4499 -0.2699
29534SOL    HW2 6213   8.878  12.138   2.453 -0.1288 -0.2646  0.3909
29535SOL     OW 6214  10.795   6.301  13.847 -0.1752 -0.0750  0.2201
29535SOL    HW1 6215  10.704   6.292  13.875 -0.4238  2.6919  0.5644
29535SOL    HW2 6216  10.845   6.244  13.906 -1.5702 -1.0332  0.5224
29536SOL     OW 6217  13.003   6.578   6.422  0.0962  0.5277  0.6029
29536SOL    HW1 6218  12.984   6.497   6.470  0.7325  0.3706  0.6025
29536SOL    HW2 6219  12.957   6.567   6.339  0.4021  0.0318  0.4878
29537SOL     OW 6220   3.443   4.957  12.446  0.7827  0.0436 -0.0122
29537SOL    HW1 6221   3.443   4.915  12.532 -1.2156  0.5228  0.2815
29537SOL    HW2 6222   3.388   5.035  12.457 -0.6318 -0.5683 -1.9868
29538SOL     OW 6223  10.111   5.590   3.475  0.1296  0.5205 -0.3922
29538SOL    HW1 6224  10.109   5.685   3.484 -0.7575  0.6646 -1.8066
29538SOL    HW2 6225  10.047   5.558   3.538  0.4048  0.8607  0.0634
29539SOL     OW 6226  11.338   7.259   0.415 -0.1369 -0.3961 -0.5448
29539SOL    HW1 6227  11.307   7.209   0.340 -0.5172 -1.2818  0.1809
29539SOL    HW2 6228  11.391   7.197   0.465 -1.1662 -0.2943  0.7316
29540SOL     OW 6229   2.734   7.724   4.034  0.0565  0.0496  0.2452
29540SOL    HW1 6230   2.828   7.704   4.044 -0.2530 -0.7292  2.2600
29540SOL    HW2 6231   2.707   7.754   4.121 -1.8653 -1.2290  0.1666
29541SOL     OW 6232  12.417   3.557   5.174  0.7053 -0.0774 -0.1178
29541SOL    HW1 6233  12.360   3.598   5.238  0.0843 -0.1673 -0.6062
29541SOL    HW2 6234  12.373   3.475   5.151  1.4225 -0.5350  0.0838
29542SOL     OW 6235  13.119   9.528  13.521 -0.0087  0.0972  0.0228
29542SOL    HW1 6236  13.031   9.494  13.537 -0.7713  1.8542 -0.2263
29542SOL    HW2 6237  13.131   9.522  13.426 -0.8147  1.9112 -0.2515
29543SOL     OW 6238   6.285   0.622   3.413 -0.8476  0.0406  0.0113
29543SOL    HW1 6239   6.209   0.567   3.436 -0.4452  0.6308  3.1566
29543SOL    HW2 6240   6.247   0.703   3.380 -1.5100 -0.5208 -0.6444
29544SOL     OW 6241   0.223   1.016   2.419  0.2342  0.1224  0.3290
29544SOL    HW1 6242   0.313   1.045   2.429  0.7019 -0.9447 -0.6083
29544SOL    HW2 6243   0.219   0.931   2.464 -0.3375  0.2193  0.4755
29545SOL     OW 6244  13.656   5.936   9.646  0.5509 -0.4083 -0.1192
29545SOL    HW1 6245  13.720   5.869   9.623  1.8811  0.8887 -0.3906
29545SOL    HW2 6246  13.661   5.999   9.574  0.4875  0.7562  0.8759
29546SOL     OW 6247   3.637  13.066  12.330 -0.3900 -0.4136  0.4614
29546SOL    HW1 6248   3.662  12.991  12.384  1.6599 -0.2261 -0.1522
29546SOL    HW2 6249   3.619  13.135  12.393  0.5946 -0.5967  0.9652
29547SOL     OW 6250   9.632  11.253  10.500 -0.0808 -0.0836  0.3289
29547SOL    HW1 6251   9.668  11.320  10.559 -0.1807 -0.8159  1.2400
29547SOL    HW2 6252   9.557  11.218  10.548 -1.6608  0.9710 -1.2664
29548SOL     OW 6253  11.977   8.526   8.276 -0.1865 -0.1715  0.0008
29548SOL    HW1 6254  12.052   8.555   8.328  0.1843  1.9000 -1.5888
29548SOL    HW2 6255  12.016   8.487   8.198 -0.7666 -0.7116 -0.0219
29549SOL     OW 6256  11.824   3.024   8.793 -0.2689 -0.3647  0.0747
29549SOL    HW1 6257  11.913   3.021   8.756 -1.0482 -0.1214 -1.9453
29549SOL    HW2 6258  11.812   3.116   8.816 -0.5152 -0.0956 -1.0700
29550SOL     OW 6259  13.830   5.522   2.174 -0.2453 -0.2444 -0.4764
29550SOL    HW1 6260  13.922   5.520   2.146 -0.9214  0.3967 -3.0865
29550SOL    HW2 6261  13.829   5.480   2.260  2.7612  1.6027  0.5973
29551SOL     OW 6262  11.385   8.859  13.261 -0.5547 -0.1634  0.5111
29551SOL    HW1 6263  11.320   8.886  13.197  1.4869  2.2985 -0.7286
29551SOL    HW2 6264  11.411   8.771  13.234 -0.4000  0.4738 -1.5264
29552SOL     OW 6265  10.432   7.105   3.715  0.3181 -0.6191  0.4619
29552SOL    HW1 6266  10.344   7.101   3.678  0.0628 -0.9864  1.0881
29552SOL    HW2 6267  10.478   7.033   3.673 -0.5019 -2.2036  2.1617
29553SOL     OW 6268   0.451  12.489   5.913  0.1874  0.3172 -1.0041
29553SOL    HW1 6269   0.364  12.517   5.944 -0.5260 -1.0824 -1.6708
29553SOL    HW2 6270   0.447  12.501   5.818  0.6071 -0.0755 -1.0706
29554SOL     OW 6271   8.844   6.889   0.638 -0.1743  0.3430  0.0499
29554SOL    HW1 6272   8.874   6.917   0.724 -0.3508 -0.4164  0.3717
29554SOL    HW2 6273   8.750   6.874   0.649 -0.2534  0.5304 -0.3551
29555SOL     OW 6274   0.938  11.370   3.277 -0.5775 -0.0387 -0.2068
29555SOL    HW1 6275   0.887  11.353   3.355  0.6701  0.4026  0.7392
29555SOL    HW2 6276   1.024  11.397   3.309  0.2430 -0.6569 -1.7299
29556SOL     OW 6277  10.738   9.972   2.199 -0.4833  0.4885  0.7649
29556SOL    HW1 6278  10.691  10.045   2.238 -2.3671  0.1625 -0.7317
29556SOL    HW2 6279  10.707   9.968   2.109 -0.0007 -1.7859  0.6212
29557SOL     OW 6280  12.964   1.651   9.241  0.6067  0.0249  0.0884
29557SOL    HW1 6281  13.030   1.598   9.196 -0.1117 -0.2469 -0.6532
29557SOL    HW2 6282  12.959   1.613   9.329  1.2416 -0.1216  0.0664
29558SOL     OW 6283   4.126   6.745  11.318  0.1366 -0.5821  0.7230
29558SOL    HW1 6284   4.098   6.707  11.235 -0.3285 -0.0980  0.6517
29558SOL    HW2 6285   4.161   6.831  11.295 -0.4863 -0.2276  1.0831
29559SOL     OW 6286  12.321   0.154  12.802 -0.3618 -0.2818 -0.7199
29559SOL    HW1 6287  12.375   0.234  12.807 -0.9437  0.0594  1.2620
29559SOL    HW2 6288  12.364   0.100  12.735  0.8207  1.1299 -1.1620
29560SOL     OW 6289   1.311   4.340   4.943  0.8284 -0.3603  0.0296
29560SOL    HW1 6290   1.297   4.260   4.892 -2.4371  0.0416  0.0832
29560SOL    HW2 6291   1.320   4.409   4.877  0.4894 -0.3734 -0.0350
29561SOL     OW 6292   6.852  14.020   1.496 -0.6985 -0.8435  0.8880
29561SOL    HW1 6293   6.804  14.048   1.574  0.1544  0.5058  0.9589
29561SOL    HW2 6294   6.784  13.989   1.436 -1.3614 -1.9106  2.1619
29562SOL     OW 6295   7.679   3.370  10.462 -0.1942 -0.4384  0.0690
29562SOL    HW1 6296   7.683   3.460  10.430  1.8435 -0.8762 -1.0999
29562SOL    HW2 6297   7.586   3.354  10.479 -0.8039  1.3086 -1.3458
29563SOL     OW 6298   9.150   3.703   0.954 -0.1548 -0.4518 -0.3969
29563SOL    HW1 6299   9.215   3.747   1.009 -0.3227  1.4119 -1.5847
29563SOL    HW2 6300   9.070   3.753   0.966 -0.6151 -1.0169 -1.0537
29564SOL     OW 6301   2.957  12.491  10.171 -0.1320  0.8803 -0.0142
29564SOL    HW1 6302   3.011  12.441  10.109 -1.1799  1.3316 -1.3466
29564SOL    HW2 6303   2.955  12.437  10.250  1.3544  0.3462 -0.3171
29565SOL     OW 6304   6.855   2.606   8.475  0.0996  0.2071 -0.5752
29565SOL    HW1 6305   6.764   2.628   8.491 -0.1337 -0.3972 -1.0095
29565SOL    HW2 6306   6.866   2.617   8.380  0.3088 -0.3024 -0.6163
29566SOL     OW 6307   4.528  12.013  12.936  0.0852 -0.4284  0.0981
29566SOL    HW1 6308   4.556  12.095  12.895 -1.0216  0.1330  0.4052
29566SOL    HW2 6309   4.565  11.944  12.882 -0.1368  0.2853 -0.9853
29567SOL     OW 6310   2.277   1.711   7.705 -0.0966  0.2602  0.5441
29567SOL    HW1 6311   2.372   1.709   7.714 -0.0758  2.3310  1.2195
29567SOL    HW2 6312   2.256   1.629   7.660  1.8147 -1.0859  1.9340
29568SOL     OW 6313  13.189   3.202   4.270  0.0231 -0.6939 -0.4749
29568SOL    HW1 6314  13.095   3.211   4.285 -0.0648 -1.7380 -0.2913
29568SOL    HW2 6315  13.210   3.270   4.206 -0.7937 -0.2452 -0.2780
29569SOL     OW 6316  13.092   1.435  12.573  0.3889  0.0997  0.0769
29569SOL    HW1 6317  13.120   1.350  12.539 -0.5917 -0.1058 -0.2652
29569SOL    HW2 6318  13.173   1.481  12.593  1.1862  0.6622 -3.5899
29570SOL     OW 6319   3.596  10.878   8.558  0.2153  0.9084 -0.4011
29570SOL    HW1 6320   3.691  10.879   8.550  0.1712  1.8305 -0.9082
29570SOL    HW2 6321   3.569  10.798   8.514  0.7261  0.8747 -0.6559
29571SOL     OW 6322   1.524   3.643   9.020  0.2573  0.1295 -0.5579
29571SOL    HW1 6323   1.597   3.585   9.044  0.3481  0.4504 -0.0359
29571SOL    HW2 6324   1.506   3.622   8.929 -0.8437 -1.9856  0.0598
29572SOL     OW 6325   7.196  10.138  13.959 -0.7088 -0.4897 -0.2147
29572SOL    HW1 6326   7.157  10.054  13.935  3.6422 -3.3626  1.5537
29572SOL    HW2 6327   7.239  10.168  13.878 -1.7541 -0.2650 -0.6969
29573SOL     OW 6328   4.440   6.188   1.207  0.2584  0.5804 -0.3582
29573SOL    HW1 6329   4.476   6.276   1.196 -1.7684  1.5850  0.5190
29573SOL    HW2 6330   4.346   6.198   1.196 -0.0200 -1.5422 -0.4552
29574SOL     OW 6331  11.031   6.457   6.917  0.1353 -0.3789 -0.4017
29574SOL    HW1 6332  10.979   6.407   6.980 -0.1892  0.3938 -0.0467
29574SOL    HW2 6333  11.118   6.463   6.957  0.4142 -1.3739 -0.8358
29575SOL     OW 6334  12.910   9.084  13.235 -0.0568 -0.4328  0.2914
29575SOL    HW1 6335  12.956   9.155  13.190 -0.7617 -0.3153 -0.2631
29575SOL    HW2 6336  12.872   9.124  13.313 -0.8561 -0.0852 -0.2681
29576SOL     OW 6337  12.875   3.237   0.989 -0.2299  0.4334  0.4560
29576SOL    HW1 6338  12.922   3.252   0.907 -1.3401  2.4844  0.1162
29576SOL    HW2 6339  12.833   3.152   0.978 -0.1038  0.5422 -0.9811
29577SOL     OW 6340   2.445  12.870   1.609  0.0677 -0.2670 -0.3859
29577SOL    HW1 6341   2.386  12.934   1.569  0.0556 -0.5579 -0.8382
29577SOL    HW2 6342   2.529  12.885   1.566  0.6892  1.0605  1.2072
29578SOL     OW 6343   4.106  12.732   6.210  0.0079  0.0691  0.2350
29578SOL    HW1 6344   4.131  12.796   6.144  0.5748 -0.2116  0.1719
29578SOL    HW2 6345   4.171  12.662   6.202 -1.4335 -1.2334 -0.7109
29579SOL     OW 6346  12.499   9.961  13.718  0.4916 -0.0648 -0.1833
29579SOL    HW1 6347  12.572  10.007  13.677  0.1786 -0.8907 -1.7404
29579SOL    HW2 6348  12.527   9.869  13.721 -0.4920 -0.4020 -0.8728
29580SOL     OW 6349   3.291   0.003  11.749 -0.3146 -0.2501 -0.2066
29580SOL    HW1 6350   3.293   0.096  11.769  3.1156 -0.6861  2.4587
29580SOL    HW2 6351   3.315  -0.002  11.656  1.5374  1.5313  0.1050
29581SOL     OW 6352   6.564  10.170   1.734 -0.0402  0.2292 -0.9019
29581SOL    HW1 6353   6.641  10.135   1.688  0.2103 -0.8392  0.2733
29581SOL    HW2 6354   6.594  10.253   1.770  1.2414 -1.0434  1.1729
29582SOL     OW 6355  13.614   4.800   4.490  0.3545  0.4167  0.3652
29582SOL    HW1 6356  13.705   4.828   4.505 -0.2539  1.9137  1.5436
29582SOL    HW2 6357  13.569   4.879   4.461 -0.5598 -0.3505 -0.3726
29583SOL     OW 6358  11.955   1.945  13.825  0.2500 -0.3391  0.1404
29583SOL    HW1 6359  12.040   1.921  13.863 -0.7361 -1.1058  1.9711
29583SOL    HW2 6360  11.902   1.866  13.834 -0.8878  0.3622 -0.3012
29584SOL     OW 6361  11.991   0.107  10.402  0.0595  0.2274 -0.0380
29584SOL    HW1 6362  12.065   0.164  10.424 -1.1021  1.6795  0.2428
29584SOL    HW2 6363  11.951   0.148  10.326 -1.1629  0.1380  0.5358
29585SOL     OW 6364   3.475   7.688   0.874  0.3428 -0.1282  0.3237
29585SOL    HW1 6365   3.538   7.616   0.884  0.3675 -0.2565 -0.6154
29585SOL    HW2 6366   3.528   7.761   0.841  0.4217  0.5122  1.8108
29586SOL     OW 6367   6.598  13.253   9.316 -0.3181  0.3276  0.4419
29586SOL    HW1 6368   6.540  13.316   9.360 -1.2022 -0.0391 -0.1529
29586SOL    HW2 6369   6.538  13.197   9.267  0.4598 -1.0393  1.0249
29587SOL     OW 6370   3.828   5.058   7.157 -0.1045 -0.8048  0.3159
29587SOL    HW1 6371   3.873   4.975   7.176  1.8392 -0.0755 -0.8909
29587SOL    HW2 6372   3.882   5.125   7.199 -0.9537 -0.0286  0.1959
29588SOL     OW 6373   6.267  12.941  10.773  0.5396  0.2307 -0.1581
29588SOL    HW1 6374   6.213  12.866  10.798 -0.4020  1.0189  0.2221
29588SOL    HW2 6375   6.253  13.005  10.842 -0.0296  1.4290 -1.3548
29589SOL     OW 6376   5.433   9.637   5.285  0.0164  0.2583 -0.2731
29589SOL    HW1 6377   5.472   9.649   5.199  0.8161 -0.9818 -0.1061
29589SOL    HW2 6378   5.458   9.548   5.311 -0.1952  0.6094  1.2440
29590SOL     OW 6379   2.137   4.324  10.932  0.1555  0.6477 -0.6195
29590SOL    HW1 6380   2.054   4.277  10.921  0.5648 -0.2150 -0.1526
29590SOL    HW2 6381   2.188   4.301  10.854  0.0137  1.0701 -0.8406
29591SOL     OW 6382   1.879   3.098  13.384 -0.0277  0.9201 -0.7255
29591SOL    HW1 6383   1.875   3.096  13.289 -0.9272  0.3448 -0.6842
29591SOL    HW2 6384   1.794   3.132  13.412  0.0024  0.5112 -0.1124
29592SOL     OW 6385   7.832  12.101  13.529  0.0732  0.1799 -0.2327
29592SOL    HW1 6386   7.748  12.092  13.574 -1.2941  1.0748 -2.4246
29592SOL    HW2 6387   7.897  12.079  13.595 -1.9117 -2.2120  1.1068
29593SOL     OW 6388   7.958   7.884   9.493  0.7111 -0.1751  0.1112
29593SOL    HW1 6389   7.978   7.939   9.569  0.8012  0.0793 -0.0928
29593SOL    HW2 6390   7.880   7.924   9.454  0.6693 -0.2997  0.0681
29594SOL     OW 6391  13.663   2.008   6.714 -0.4081 -0.5091 -0.5715
29594SOL    HW1 6392  13.608   2.067   6.662  1.1582  1.0649 -0.5317
29594SOL    HW2 6393  13.722   1.968   6.650  1.1259  0.9813 -0.1481
29595SOL     OW 6394   4.803   7.543  11.189  0.1337  0.0388 -0.0345
29595SOL    HW1 6395   4.750   7.530  11.267  0.6524  0.5332  0.4037
29595SOL    HW2 6396   4.857   7.464  11.184  0.1076  0.0111  0.1110
29596SOL     OW 6397   7.477   0.001   5.995 -0.0831 -0.2246  1.0352
29596SOL    HW1 6398   7.505  -0.014   6.086 -1.2162 -0.5744  1.3347
29596SOL    HW2 6399   7.450  -0.085   5.964  2.1045 -0.5041 -0.2972
29597SOL     OW 6400  13.098   0.903  11.943 -0.2964 -0.4058  0.1755
29597SOL    HW1 6401  13.048   0.929  11.866 -0.2231 -1.1633 -0.1343
29597SOL    HW2 6402  13.053   0.946  12.017  0.4599  1.4791 -0.4112
29598SOL     OW 6403   1.439   9.340   1.800  0.3775 -0.1950 -0.6891
29598SOL    HW1 6404   1.502   9.316   1.732  0.6965 -0.1903 -0.4028
29598SOL    HW2 6405   1.433   9.435   1.794  0.4508 -0.1885 -0.6757
29599SOL     OW 6406  11.329   4.503   2.205 -0.9450 -0.1824 -0.4339
29599SOL    HW1 6407  11.392   4.561   2.249 -0.7012 -2.1087  2.0222
29599SOL    HW2 6408  11.371   4.482   2.122  1.9415 -1.5769  1.1873
29600SOL     OW 6409   2.410  13.216   8.718 -0.0729  0.4400 -0.2449
29600SOL    HW1 6410   2.453  13.299   8.741  0.7880  0.4613 -1.7807
29600SOL    HW2 6411   2.327  13.242   8.678 -0.2509  0.5079  0.1605
29601SOL     OW 6412   8.463  12.863   3.495  0.5829  0.2298 -0.0023
29601SOL    HW1 6413   8.395  12.807   3.532 -0.6571  0.0443 -2.3538
29601SOL    HW2 6414   8.528  12.871   3.564 -0.2838 -2.2357  1.2164
29602SOL     OW 6415  13.745  13.131   6.420  0.0630  0.3696 -0.3959
29602SOL    HW1 6416  13.699  13.054   6.453  0.9831 -0.4614 -0.9873
29602SOL    HW2 6417  13.786  13.169   6.498  1.1915 -0.8663 -0.3352
29603SOL     OW 6418  12.991   9.968   2.198  0.0372  0.3312  0.6132
29603SOL    HW1 6419  13.012   9.875   2.208 -1.3330 -0.0562  0.0833
29603SOL    HW2 6420  13.004   9.986   2.105  0.6439  0.7762  0.7761
29604SOL     OW 6421   1.730  13.118   9.665 -0.2679  0.7671 -0.5970
29604SOL    HW1 6422   1.641  13.143   9.640 -0.9743 -0.4893  0.5649
29604SOL    HW2 6423   1.744  13.159   9.750  0.3692  1.1712 -0.8908
29605SOL     OW 6424   5.713  11.635   5.214 -0.0228 -0.4429  0.3572
29605SOL    HW1 6425   5.723  11.639   5.118  0.4186  1.0967  0.4360
29605SOL    HW2 6426   5.772  11.566   5.242  1.0870  0.1809 -0.3567
29606SOL     OW 6427   6.616   7.661   0.150 -0.4917  0.4835 -0.4922
29606SOL    HW1 6428   6.657   7.722   0.211  1.3009  0.2355 -1.3830
29606SOL    HW2 6429   6.651   7.575   0.174 -1.5712  0.0464 -0.4125
29607SOL     OW 6430  11.262  13.677  10.381  0.0141 -0.1916  0.1721
29607SOL    HW1 6431  11.203  13.624  10.434 -0.0483  0.5676  0.8922
29607SOL    HW2 6432  11.216  13.761  10.370  0.8243  0.3054  0.4938
29608SOL     OW 6433   0.220   9.004   3.226 -0.1547 -0.5536 -0.1101
29608SOL    HW1 6434   0.173   9.081   3.194  1.7076  1.0518  0.7943
29608SOL    HW2 6435   0.169   8.930   3.194 -1.1688  1.0054 -2.3574
29609SOL     OW 6436   6.118   2.572   5.669 -0.0671  0.0696  0.8794
29609SOL    HW1 6437   6.109   2.659   5.630  0.6845  0.4190  1.4501
29609SOL    HW2 6438   6.088   2.583   5.760 -1.2501 -0.5969  0.5863
29610SOL     OW 6439  11.885   4.849   7.816 -0.3775 -0.3700  0.2816
29610SOL    HW1 6440  11.916   4.867   7.905  1.0327 -0.1888 -0.2150
29610SOL    HW2 6441  11.916   4.923   7.765  0.7953 -1.5339 -0.7741
29611SOL     OW 6442   1.706   9.666  12.351 -0.4823  0.5430 -0.4735
29611SOL    HW1 6443   1.611   9.680  12.352 -0.5128  0.3221 -0.2577
29611SOL    HW2 6444   1.718   9.582  12.306 -0.2811  1.3419 -2.0143
29612SOL     OW 6445   2.391   7.820   4.412 -0.1908 -0.0085  0.0279
29612SOL    HW1 6446   2.371   7.755   4.344 -1.1570 -0.9197  1.1485
29612SOL    HW2 6447   2.315   7.878   4.412 -0.6659 -0.6087  0.9904
29613SOL     OW 6448   8.007   2.367   7.094 -0.4947  0.1415 -0.4617
29613SOL    HW1 6449   8.066   2.423   7.145 -0.3194  0.5083 -1.0563
29613SOL    HW2 6450   7.951   2.429   7.048  0.2730 -0.1410 -1.8099
29614SOL     OW 6451   7.965   6.266   1.898  0.2012  0.0023  0.2286
29614SOL    HW1 6452   8.037   6.260   1.960 -0.2607 -2.2397  0.6292
29614SOL    HW2 6453   7.890   6.293   1.952  0.2080 -0.0828  0.2810
29615SOL     OW 6454   8.447  12.956   6.831  0.2802 -0.6051  0.7095
29615SOL    HW1 6455   8.527  13.004   6.852 -0.4005  0.8575  0.1522
29615SOL    HW2 6456   8.404  12.943   6.915 -0.2228  1.1292  0.7726
29616SOL     OW 6457   9.438   5.165   6.601  0.1312  0.0854  0.9272
29616SOL    HW1 6458   9.345   5.189   6.600 -0.2961 -1.4587 -0.0242
29616SOL    HW2 6459   9.483   5.241   6.566 -0.7665  0.8810  1.4643
29617SOL     OW 6460   3.316   0.921   8.908  0.3159 -0.0601  0.1405
29617SOL    HW1 6461   3.360   0.871   8.839  0.1322  0.2032 -0.1690
29617SOL    HW2 6462   3.387   0.967   8.952  0.3162  0.7737 -0.6888
29618SOL     OW 6463   9.895   2.882  11.064 -0.2494  0.4701 -0.1303
29618SOL    HW1 6464   9.938   2.947  11.008  0.8373  1.3021  1.5547
29618SOL    HW2 6465   9.823   2.930  11.105  0.5887  0.6931  1.1606
29619SOL     OW 6466   8.608   7.800   9.090 -0.3432 -0.1545 -0.2146
29619SOL    HW1 6467   8.635   7.802   9.181  0.4262  1.6247 -0.4532
29619SOL    HW2 6468   8.612   7.707   9.066  1.6984 -0.3985  0.8849
29620SOL     OW 6469  12.100   8.447  10.430 -0.1690 -0.6696 -0.4332
29620SOL    HW1 6470  12.178   8.412  10.473 -0.5479 -1.6836 -0.5362
29620SOL    HW2 6471  12.132   8.521  10.378  0.5694 -0.4985  0.2473
29621SOL     OW 6472   5.525   7.107   2.152  0.3138 -0.8963  0.1764
29621SOL    HW1 6473   5.503   7.072   2.065  0.1502 -1.2573  0.3571
29621SOL    HW2 6474   5.444   7.096   2.202  0.0950  0.2239  0.0995
29622SOL     OW 6475   0.727   8.681   3.109 -0.3087 -0.2672 -0.3710
29622SOL    HW1 6476   0.819   8.685   3.134 -0.2882 -0.4545 -0.4164
29622SOL    HW2 6477   0.708   8.588   3.103 -0.7038 -0.2451  0.3891
29623SOL     OW 6478  12.776   2.562   6.418  0.0320 -0.4259  0.4376
29623SOL    HW1 6479  12.846   2.504   6.388 -0.9833 -1.2377 -0.4626
29623SOL    HW2 6480  12.770   2.546   6.512 -0.4369 -2.0791  0.1717
29624SOL     OW 6481   3.576   8.421   6.227  0.5792  0.0536  0.8443
29624SOL    HW1 6482   3.562   8.328   6.245  1.1303 -0.5133 -1.4004
29624SOL    HW2 6483   3.502   8.465   6.270 -0.7467 -1.5979  0.3627
29625SOL     OW 6484   2.066  13.286  10.573  0.2769  0.2118 -0.3895
29625SOL    HW1 6485   2.033  13.327  10.493  1.6385 -1.0200 -1.6534
29625SOL    HW2 6486   1.998  13.301  10.638 -0.2278  2.5231 -1.3699
29626SOL     OW 6487  11.567   1.548   7.175  0.6923 -0.0929 -0.0836
29626SOL    HW1 6488  11.566   1.606   7.251  0.9798 -0.2719  0.0607
29626SOL    HW2 6489  11.656   1.556   7.140  0.9500 -0.9533  0.3394
29627SOL     OW 6490  10.688   6.564  13.746 -0.1383 -1.2938  0.3176
29627SOL    HW1 6491  10.737   6.637  13.708 -1.0156 -0.5132  0.6414
29627SOL    HW2 6492  10.749   6.491  13.745  1.9596  0.2441  3.0127
29628SOL     OW 6493   2.346   7.118   7.408 -0.1106  0.0038  0.3993
29628SOL    HW1 6494   2.259   7.079   7.401  0.0246 -0.0813 -0.9584
29628SOL    HW2 6495   2.335   7.209   7.379 -0.2755  0.8461  2.8474
29629SOL     OW 6496   1.199   0.795  13.764 -0.2542  0.0307 -0.1856
29629SOL    HW1 6497   1.228   0.705  13.752  1.5119  0.3527  1.0953
29629SOL    HW2 6498   1.224   0.840  13.683  2.1364  0.0652  0.4765
29630SOL     OW 6499   3.282  10.588   1.067  0.4716  0.2560  0.4916
29630SOL    HW1 6500   3.236  10.657   1.115  0.4591  0.7139 -0.1641
29630SOL    HW2 6501   3.375  10.608   1.081  0.5155 -0.7278  1.9023
29631SOL     OW 6502   1.117   9.323   8.404  0.3190 -0.2947 -0.2198
29631SOL    HW1 6503   1.118   9.418   8.388 -0.3692 -0.0744  0.9102
29631SOL    HW2 6504   1.183   9.310   8.471 -0.4631 -0.4064  0.5543
29632SOL     OW 6505   5.996  11.935   8.442 -0.1662 -0.1310 -0.7049
29632SOL    HW1 6506   5.937  11.998   8.482  2.0906  0.1079  2.6799
29632SOL    HW2 6507   5.965  11.850   8.472 -0.1546 -0.1949 -0.8720
29633SOL     OW 6508  12.486   8.596   7.397  0.1999 -0.3008 -0.2119
29633SOL    HW1 6509  12.508   8.682   7.360 -0.8141  0.0312 -0.0787
29633SOL    HW2 6510  12.392   8.602   7.415 -0.1207 -1.8434 -1.2550
29634SOL     OW 6511   3.333  10.449   0.429 -0.3550 -0.5263  0.2283
29634SOL    HW1 6512   3.326  10.448   0.524  2.0159  0.8757  0.4812
29634SOL    HW2 6513   3.318  10.540   0.404 -1.3603 -0.9438 -0.8214
29635SOL     OW 6514  13.537   6.313  12.261  0.2416  0.0422 -0.1220
29635SOL    HW1 6515  13.511   6.235  12.212  1.3198 -0.5840  0.2444
29635SOL    HW2 6516  13.520   6.290  12.353  1.2820 -0.0818  0.0559
29636SOL     OW 6517  12.989   1.607   9.501  0.1060 -0.3324  0.4767
29636SOL    HW1 6518  12.956   1.692   9.532  0.8395  0.2460 -0.2909
29636SOL    HW2 6519  13.083   1.609   9.521  0.2894 -0.5957 -0.3362
29637SOL     OW 6520   0.783   5.958   8.464  0.0903 -0.3820 -0.5374
29637SOL    HW1 6521   0.783   5.958   8.369 -0.7545  1.9331 -0.5969
29637SOL    HW2 6522   0.701   6.000   8.489  0.3663 -0.7913  1.2193
29638SOL     OW 6523  10.073   6.158   8.267 -0.1020 -0.3150 -0.4903
29638SOL    HW1 6524  10.113   6.236   8.228 -0.8094  0.5141  0.3884
29638SOL    HW2 6525   9.979   6.170   8.253 -0.4449  0.3249  1.9185
29639SOL     OW 6526  12.254  10.122  12.238 -0.3314 -0.7127  0.1184
29639SOL    HW1 6527  12.175  10.125  12.184 -0.5381 -1.9764  0.3235
29639SOL    HW2 6528  12.230  10.168  12.319 -0.9004 -1.2179  0.2397
29640SOL     OW 6529   7.528   6.416  12.619  0.0835 -0.6558  0.6054
29640SOL    HW1 6530   7.513   6.356  12.546 -0.9151  3.1762 -2.7120
29640SOL    HW2 6531   7.613   6.456  12.601 -0.4476  0.8053  1.1427
29641SOL     OW 6532   7.175   0.226  10.205  0.7422 -0.2683 -0.0357
29641SOL    HW1 6533   7.084   0.239  10.232  0.7487 -0.3340  0.0188
29641SOL    HW2 6534   7.185   0.280  10.127  0.7634  0.0378  0.1775
29642SOL     OW 6535   2.997   9.223   8.876 -0.1909 -0.5069 -0.2944
29642SOL    HW1 6536   3.076   9.188   8.835 -0.1895 -1.7081  0.6614
29642SOL    HW2 6537   2.931   9.222   8.807  0.7300  0.9743 -1.2407
29643SOL     OW 6538   9.843   4.828   1.968  0.4529  0.1545 -0.0915
29643SOL    HW1 6539   9.803   4.858   2.050  0.7023  0.5721 -0.1197
29643SOL    HW2 6540   9.926   4.875   1.963  0.5253 -0.0092 -0.4945
29644SOL     OW 6541   5.543   3.868   8.779  0.5270  0.0314 -0.2450
29644SOL    HW1 6542   5.509   3.844   8.865 -0.1637  3.1611  0.4809
29644SOL    HW2 6543   5.472   3.846   8.718  0.2994 -0.5085  0.2012
29645SOL     OW 6544  12.269  11.810  10.116  0.1911 -0.5535 -0.1049
29645SOL    HW1 6545  12.281  11.726  10.159  0.7795 -0.7754 -0.6905
29645SOL    HW2 6546  12.194  11.849  10.161  0.7856 -0.7686  1.1203
29646SOL     OW 6547   1.008   2.369   3.581  0.0328  0.0079  0.3205
29646SOL    HW1 6548   0.966   2.305   3.638 -1.0868 -0.0369 -0.5075
29646SOL    HW2 6549   1.052   2.317   3.514  1.0934  0.0678  0.9481
29647SOL     OW 6550   6.546   9.251   1.027  0.1650  0.1659  0.1285
29647SOL    HW1 6551   6.478   9.245   0.959 -0.0430 -0.6273  0.3971
29647SOL    HW2 6552   6.497   9.265   1.108  0.3632  0.2453  0.2336
29648SOL     OW 6553  12.858   8.590   7.836  0.1150  0.2473 -0.1250
29648SOL    HW1 6554  12.792   8.618   7.899 -0.2416  0.6007 -0.6476
29648SOL    HW2 6555  12.926   8.657   7.841  0.3580 -0.0248  0.2877
29649SOL     OW 6556   1.820  10.331   5.766 -0.7835  0.1094 -0.2652
29649SOL    HW1 6557   1.725  10.343   5.773 -0.6732  0.4758  0.7658
29649SOL    HW2 6558   1.853  10.412   5.729 -0.9398 -0.2809 -1.2772
29650SOL     OW 6559  10.122   3.077   8.598  0.1597 -0.1325  0.0463
29650SOL    HW1 6560  10.184   3.007   8.577  1.3583  0.7977  0.3777
29650SOL    HW2 6561  10.169   3.158   8.579 -0.5647  0.6306  1.3459
29651SOL     OW 6562   9.631   1.902   3.574  0.8032 -0.3894  0.1096
29651SOL    HW1 6563   9.543   1.895   3.610  0.2822  2.2074 -0.4479
29651SOL    HW2 6564   9.685   1.933   3.647  0.4954  1.2944 -0.3189
29652SOL     OW 6565   3.151  12.173   5.911  0.5136 -0.0828  0.0645
29652SOL    HW1 6566   3.070  12.178   5.861  0.7314  1.3518 -0.1996
29652SOL    HW2 6567   3.124  12.180   6.003  0.3733  1.5691 -0.0646
29653SOL     OW 6568   0.190  10.892   6.890  0.2129  0.1274 -0.1296
29653SOL    HW1 6569   0.177  10.798   6.897 -0.9264  0.2145 -0.7967
29653SOL    HW2 6570   0.194  10.909   6.796  1.2785  0.6459 -0.0103
29654SOL     OW 6571   6.579   7.652   4.711  0.4182 -0.2871 -0.5789
29654SOL    HW1 6572   6.607   7.737   4.677 -0.8089  0.8821  1.1737
29654SOL    HW2 6573   6.483   7.658   4.714  0.4226 -0.7181  1.9822
29655SOL     OW 6574   2.878  10.135   6.560  0.0367  0.2780  0.0766
29655SOL    HW1 6575   2.946  10.102   6.500  0.2466 -0.4111  0.6667
29655SOL    HW2 6576   2.918  10.127   6.646 -0.0602  1.7648  0.2784
29656SOL     OW 6577   9.213   2.824   7.567 -0.4970 -0.1306  0.0471
29656SOL    HW1 6578   9.255   2.767   7.631  1.5633  0.8225 -0.3528
29656SOL    HW2 6579   9.210   2.910   7.609  1.5945  0.6924 -1.2830
29657SOL     OW 6580  11.957   5.822  11.814 -0.3128 -0.8517 -0.2172
29657SOL    HW1 6581  11.924   5.891  11.871  0.5283 -0.0290 -0.7003
29657SOL    HW2 6582  11.904   5.829  11.734  0.9835  0.4992 -1.0103
29658SOL     OW 6583  10.465   7.729   2.469  0.5053  0.0816  0.3798
29658SOL    HW1 6584  10.540   7.777   2.434  1.2211 -0.7296  0.7617
29658SOL    HW2 6585  10.477   7.639   2.438  0.0607 -0.2000  1.0048
29659SOL     OW 6586   5.662   7.776   0.361 -0.4912  0.3809 -0.1463
29659SOL    HW1 6587   5.688   7.708   0.298 -1.7309 -2.0656  1.7759
29659SOL    HW2 6588   5.720   7.849   0.342  1.3260 -1.3859 -2.0387
29660SOL     OW 6589  10.068   6.111  11.439  0.2779 -0.1064 -0.0125
29660SOL    HW1 6590  10.136   6.100  11.505 -0.0327 -0.4063  0.2585
29660SOL    HW2 6591   9.986   6.112  11.488  0.0094 -0.8117 -0.4226
29661SOL     OW 6592   8.218  12.739   6.472  0.7120  0.4316 -0.9125
29661SOL    HW1 6593   8.304  12.773   6.445  1.0063  0.8855  0.5067
29661SOL    HW2 6594   8.199  12.670   6.409  0.3225  2.8186 -3.6365
29662SOL     OW 6595   6.009   6.942   6.355 -0.4521  0.1390  0.5008
29662SOL    HW1 6596   6.002   6.899   6.440 -0.3909  0.0497  0.4600
29662SOL    HW2 6597   5.998   6.872   6.291  1.4354 -0.1271  0.4273
29663SOL     OW 6598   4.474   9.721   9.865 -0.0343  0.2803 -0.4486
29663SOL    HW1 6599   4.544   9.661   9.841 -0.9974 -0.9496 -0.2834
29663SOL    HW2 6600   4.406   9.707   9.799 -0.7716  0.2840  0.2902
29664SOL     OW 6601   3.061  11.666   7.897  0.4734 -0.1984  1.0395
29664SOL    HW1 6602   3.152  11.666   7.869  1.1004  1.0687  2.8287
29664SOL    HW2 6603   3.049  11.751   7.940 -2.1171  0.4847 -0.7588
29665SOL     OW 6604   5.193   3.524  12.296 -0.1506 -0.0404 -0.1087
29665SOL    HW1 6605   5.156   3.439  12.321  0.0573 -0.0352  0.2375
29665SOL    HW2 6606   5.135   3.588  12.337 -0.0385 -0.0259  0.0307
29666SOL     OW 6607  13.391  12.307   3.054  0.1880  0.6149 -0.2179
29666SOL    HW1 6608  13.348  12.392   3.070  1.9818  1.6605 -0.6814
29666SOL    HW2 6609  13.326  12.242   3.081  0.2376  2.1055  4.4116
29667SOL     OW 6610   8.685   9.654   9.076  0.4748 -0.0131  0.5373
29667SOL    HW1 6611   8.630   9.576   9.084  1.1318 -0.5374  0.0269
29667SOL    HW2 6612   8.638   9.721   9.125  0.1702 -0.8763  1.4727
29668SOL     OW 6613  13.205   7.596   2.308  0.1911 -0.1079 -0.0092
29668SOL    HW1 6614  13.154   7.515   2.315  0.2713 -0.2370 -0.8001
29668SOL    HW2 6615  13.283   7.571   2.259  1.9162 -0.3144  2.6339
29669SOL     OW 6616  11.343   8.260   9.043  0.3044 -0.2539 -0.3750
29669SOL    HW1 6617  11.299   8.175   9.040  0.8188 -0.5925  0.9785
29669SOL    HW2 6618  11.354   8.284   8.951 -0.3970 -1.3590 -0.7714
29670SOL     OW 6619  12.533  12.364  12.932 -0.1117  0.3530  0.2119
29670SOL    HW1 6620  12.531  12.269  12.932  0.5718  0.3352  0.0292
29670SOL    HW2 6621  12.624  12.387  12.910 -0.0090  1.0327  1.2611
29671SOL     OW 6622   6.151   4.737  10.744 -0.4923 -0.5692  0.2227
29671SOL    HW1 6623   6.189   4.664  10.792  0.0953 -1.4453 -1.4886
29671SOL    HW2 6624   6.175   4.721  10.653 -1.2281  1.2255 -0.3365
29672SOL     OW 6625   6.431  13.931   2.354 -0.5154  0.0738  0.2095
29672SOL    HW1 6626   6.525  13.918   2.365 -0.6098 -0.0785  0.8740
29672SOL    HW2 6627   6.423  13.977   2.270  0.1668  0.3339  0.2785
29673SOL     OW 6628   3.821  10.831   9.288  0.7898 -0.0987  0.4208
29673SOL    HW1 6629   3.736  10.870   9.310  1.2402  1.9105 -1.0690
29673SOL    HW2 6630   3.882  10.868   9.351  0.7919 -0.5004  0.6581
29674SOL     OW 6631   6.547  12.389  12.861  0.4651  0.1258  0.0769
29674SOL    HW1 6632   6.589  12.362  12.943 -0.7152 -1.1406  0.2906
29674SOL    HW2 6633   6.468  12.435  12.888 -0.5615 -1.3458 -0.3242
29675SOL     OW 6634   7.773  11.399   2.066 -0.1691 -0.1677 -0.0224
29675SOL    HW1 6635   7.855  11.407   2.018 -0.2497 -0.4909 -0.2176
29675SOL    HW2 6636   7.772  11.475   2.125  0.3330 -0.2422  0.0858
29676SOL     OW 6637   5.018   5.806   6.498 -0.1770 -0.7777 -0.2831
29676SOL    HW1 6638   5.024   5.878   6.435 -0.1902 -0.2210  0.3402
29676SOL    HW2 6639   4.987   5.847   6.578  5.0011 -0.3012  1.8734
29677SOL     OW 6640   8.316   9.635   4.155  0.1120 -0.5964 -0.3429
29677SOL    HW1 6641   8.278   9.716   4.189  0.5662 -0.3927 -0.3183
29677SOL    HW2 6642   8.350   9.659   4.069  0.5761 -0.6725 -0.1797
29678SOL     OW 6643   5.181   4.883  12.470 -0.4648 -0.5466  0.2292
29678SOL    HW1 6644   5.169   4.837  12.553 -1.5653  1.2776  1.1670
29678SOL    HW2 6645   5.103   4.861  12.419  0.0156 -1.3400 -0.1869
29679SOL     OW 6646   3.742   8.580   1.884 -0.4450 -0.5979  0.4358
29679SOL    HW1 6647   3.779   8.493   1.899  1.6512  0.2325  0.4540
29679SOL    HW2 6648   3.786   8.611   1.805 -0.8942  0.5848  0.6407
29680SOL     OW 6649   3.480   9.037   8.073  0.3899  0.4474 -0.3252
29680SOL    HW1 6650   3.528   9.103   8.023 -0.5484  3.4308  2.3599
29680SOL    HW2 6651   3.391   9.040   8.036  0.3374  0.7637 -0.1815
29681SOL     OW 6652  10.183  14.008   8.732 -0.3521 -0.5930 -0.0818
29681SOL    HW1 6653  10.226  13.952   8.668 -0.1379 -0.1243 -0.3542
29681SOL    HW2 6654  10.129  14.067   8.680  0.1466  0.0625  0.1348
29682SOL     OW 6655   9.905  11.287   4.083  0.3038 -0.0651 -0.1895
29682SOL    HW1 6656   9.915  11.306   4.176 -0.5214  0.4015 -0.1897
29682SOL    HW2 6657   9.811  11.284   4.069  0.4125  0.5838 -1.1502
29683SOL     OW 6658  13.306   3.487   2.500  0.2932 -0.0634 -0.2137
29683SOL    HW1 6659  13.315   3.516   2.410 -0.8541 -0.6311 -0.5207
29683SOL    HW2 6660  13.239   3.544   2.538  0.9235  0.3183  0.3536
29684SOL     OW 6661   5.422   0.838  10.857 -0.6123 -0.3875  0.2361
29684SOL    HW1 6662   5.488   0.902  10.830 -1.6261  0.2587 -0.7561
29684SOL    HW2 6663   5.407   0.857  10.950 -1.6401  1.5105 -0.2747
29685SOL     OW 6664   3.053   1.583   3.057  0.6909  0.7947 -0.5615
29685SOL    HW1 6665   2.976   1.641   3.060  0.7490  0.9108 -1.1316
29685SOL    HW2 6666   3.016   1.496   3.043  0.6710  0.8907 -1.1441
29686SOL     OW 6667   5.265   2.567  11.794  0.4792 -0.3758  0.2561
29686SOL    HW1 6668   5.291   2.490  11.743  1.5917 -0.4442  0.8812
29686SOL    HW2 6669   5.233   2.629  11.729  0.0536 -1.1742 -0.3119
29687SOL     OW 6670   8.890   3.613  14.010  0.2535 -0.4107 -0.1173
29687SOL    HW1 6671   8.913   3.542  14.070 -0.9823 -1.2478 -0.6195
29687SOL    HW2 6672   8.834   3.671  14.061  2.7568  1.3209  0.9199
29688SOL     OW 6673   3.554  13.412   8.068 -0.1063  0.6348  0.2594
29688SOL    HW1 6674   3.592  13.353   8.003  2.3744  0.8095  1.4488
29688SOL    HW2 6675   3.496  13.469   8.018  0.8329  0.0298 -1.6053
29689SOL     OW 6676   7.636   9.757   3.859  0.0498  0.1008 -0.1440
29689SOL    HW1 6677   7.684   9.674   3.862  0.2172  0.0454 -2.6881
29689SOL    HW2 6678   7.640   9.789   3.949  3.6180 -0.6140  0.1146
29690SOL     OW 6679   7.110  10.313   2.638 -0.1454 -0.0168 -0.2613
29690SOL    HW1 6680   7.070  10.321   2.551 -1.2160  2.0447  0.3660
29690SOL    HW2 6681   7.038  10.330   2.699  0.6301 -1.2257  1.0678
29691SOL     OW 6682   5.166   4.174   5.548 -0.2436  0.0795 -0.1215
29691SOL    HW1 6683   5.152   4.228   5.625 -1.7549  0.7732 -0.8441
29691SOL    HW2 6684   5.169   4.084   5.582  1.4916  0.5017  0.9855
29692SOL     OW 6685   5.013   7.815   4.888  0.5314 -0.2067  0.2998
29692SOL    HW1 6686   5.034   7.729   4.853  0.9402  1.0292 -2.8411
29692SOL    HW2 6687   5.055   7.876   4.827 -3.2320  2.2724 -0.1146
29693SOL     OW 6688   7.132   0.917   3.856 -0.0074 -0.1815  0.1196
29693SOL    HW1 6689   7.185   0.842   3.884 -0.1611 -0.1039  0.6255
29693SOL    HW2 6690   7.137   0.915   3.760 -0.8154 -1.4241  0.0835
29694SOL     OW 6691   9.988   8.077   3.009  0.5590  0.7293 -0.0084
29694SOL    HW1 6692   9.959   8.089   3.099  3.1165  1.3625  0.8224
29694SOL    HW2 6693   9.914   8.106   2.956 -0.2836  2.3360  1.9056
29695SOL     OW 6694   8.576  11.189  11.248 -0.7620 -0.6929 -0.2040
29695SOL    HW1 6695   8.519  11.204  11.324 -0.1088  2.0649 -0.1664
29695SOL    HW2 6696   8.642  11.127  11.280 -1.4668 -0.8879  0.9446
29696SOL     OW 6697   1.873   2.964   4.794  0.1063  0.3648  0.1104
29696SOL    HW1 6698   1.864   3.036   4.732  0.6681  0.7655  0.4863
29696SOL    HW2 6699   1.918   2.895   4.744  0.1184  0.5019 -0.0675
29697SOL     OW 6700   8.805  11.417   1.640 -0.1739 -0.1370 -0.1976
29697SOL    HW1 6701   8.764  11.411   1.554 -0.0646  2.0007 -0.4406
29697SOL    HW2 6702   8.811  11.511   1.658 -0.2675 -0.5261  2.1889
29698SOL     OW 6703   0.669   6.704   9.917 -0.3119  0.3200 -0.3078
29698SOL    HW1 6704   0.662   6.750   9.833 -2.9956 -1.8005 -1.3967
29698SOL    HW2 6705   0.762   6.683   9.924  0.6756  3.7878 -0.7866
29699SOL     OW 6706   7.098   0.102   2.559 -0.2407  0.0319 -0.2496
29699SOL    HW1 6707   7.133   0.068   2.641 -1.6089 -1.5968 -0.2990
29699SOL    HW2 6708   7.139   0.047   2.492  0.1579  0.7520 -0.6105
29700SOL     OW 6709   3.449   2.770  11.217  0.4767 -0.1984 -0.0570
29700SOL    HW1 6710   3.535   2.753  11.179  0.1764 -0.4183 -0.6465
29700SOL    HW2 6711   3.458   2.856  11.258  1.3270 -0.7317  0.9300
29701SOL     OW 6712   0.272   5.355  13.800 -0.3403  0.1228  0.2930
29701SOL    HW1 6713   0.360   5.318  13.805 -0.1620  0.7257  2.9224
29701SOL    HW2 6714   0.285   5.449  13.814 -1.4597  0.0622  1.9727
29702SOL     OW 6715  12.361   7.609   2.884 -0.6685  0.0320  0.4795
29702SOL    HW1 6716  12.358   7.651   2.970  2.7182  1.0840  0.2599
29702SOL    HW2 6717  12.378   7.682   2.823  1.2744 -1.1148 -0.4536
29703SOL     OW 6718  11.828   1.650   9.353 -0.2530  0.2898 -0.4080
29703SOL    HW1 6719  11.895   1.605   9.405 -0.6980 -0.3076 -0.3325
29703SOL    HW2 6720  11.873   1.725   9.315  0.5538 -0.3014 -0.6509
29704SOL     OW 6721   6.396   5.225   4.962  0.1584 -0.3694 -0.3471
29704SOL    HW1 6722   6.392   5.132   4.982 -1.3004  0.0671  1.7656
29704SOL    HW2 6723   6.323   5.263   5.011  1.5299  2.0743 -0.0541
29705SOL     OW 6724   0.561  11.856  10.837  0.0605  0.3599  0.2543
29705SOL    HW1 6725   0.599  11.797  10.772  2.2077  1.7458  0.1424
29705SOL    HW2 6726   0.576  11.944  10.801 -1.7821  1.0709  1.0628
29706SOL     OW 6727   7.232   2.896   9.671 -0.7439  0.4163  0.3348
29706SOL    HW1 6728   7.159   2.939   9.626  0.5594  1.3329 -0.9750
29706SOL    HW2 6729   7.234   2.808   9.635 -1.0183  0.4768  0.1696
29707SOL     OW 6730   3.697  13.692   5.676  0.5431  0.3567  0.4228
29707SOL    HW1 6731   3.757  13.749   5.723  0.8214  1.3660 -1.0721
29707SOL    HW2 6732   3.628  13.750   5.644  0.3829 -0.2672 -0.4216
29708SOL     OW 6733   3.598  10.894   3.137  0.1564  0.4400  0.4995
29708SOL    HW1 6734   3.607  10.888   3.042 -0.9024 -0.6052  0.4382
29708SOL    HW2 6735   3.588  10.987   3.155  1.0629  0.7077 -0.3382
29709SOL     OW 6736   3.918   2.894   5.898  0.5649 -0.0546  0.3344
29709SOL    HW1 6737   3.912   2.800   5.915  0.9979 -0.1378  0.0672
29709SOL    HW2 6738   4.005   2.905   5.859  0.5285  0.4613  0.3937
29710SOL     OW 6739   6.502   0.614  11.341 -0.3322  0.1801 -0.6176
29710SOL    HW1 6740   6.560   0.570  11.279  0.7349  0.4497  0.1623
29710SOL    HW2 6741   6.530   0.706  11.340  0.6752 -0.0549  1.2800
29711SOL     OW 6742   9.355  10.173   8.864  0.3937  0.1590 -0.0528
29711SOL    HW1 6743   9.328  10.264   8.855  1.3405  0.4532 -0.0169
29711SOL    HW2 6744   9.288  10.123   8.818  0.1990  0.9194 -0.6104
29712SOL     OW 6745  11.682   5.759   0.916  0.0388  0.0198  0.8971
29712SOL    HW1 6746  11.659   5.818   0.989  0.7633 -0.1244  1.2484
29712SOL    HW2 6747  11.712   5.818   0.847 -0.6480  0.1588  0.7144
29713SOL     OW 6748   6.205  12.932   1.736  0.0467 -0.6117 -0.3660
29713SOL    HW1 6749   6.233  12.845   1.707  0.6638 -0.4406 -0.3073
29713SOL    HW2 6750   6.110  12.926   1.743  0.0770 -1.2545 -0.4523
29714SOL     OW 6751   9.654   4.579   0.534 -0.6168 -0.0608 -0.9208
29714SOL    HW1 6752   9.558   4.574   0.539 -0.6357 -0.4574 -1.4719
29714SOL    HW2 6753   9.682   4.488   0.545 -0.1766  0.2851  1.2046
29715SOL     OW 6754  13.547   7.624  10.394 -0.2849 -0.3015 -0.1254
29715SOL    HW1 6755  13.495   7.673  10.458  1.3706  0.6325  0.5934
29715SOL    HW2 6756  13.529   7.532  10.414 -2.1824 -0.0217 -0.4037
29716SOL     OW 6757   1.312  10.702   4.115  0.2982  0.1507  0.6103
29716SOL    HW1 6758   1.286  10.649   4.040  0.0241  1.6115 -0.3665
29716SOL    HW2 6759   1.384  10.653   4.156 -0.3049 -1.2202  0.0813
29717SOL     OW 6760   9.364   4.316  11.893  0.1832 -0.3055 -0.3747
29717SOL    HW1 6761   9.308   4.376  11.942 -0.2714 -0.0292 -1.2097
29717SOL    HW2 6762   9.407   4.371  11.827  1.2772 -0.5571  0.1007
29718SOL     OW 6763  12.314  10.311   4.729  0.1103  0.3840  0.3373
29718SOL    HW1 6764  12.399  10.323   4.770  0.7059 -2.4474  0.1307
29718SOL    HW2 6765  12.252  10.350   4.791  1.4358  1.3439  1.0975
29719SOL     OW 6766   3.342   8.450   8.583 -0.5871 -0.0842 -0.0209
29719SOL    HW1 6767   3.287   8.373   8.585  0.0011 -0.5523 -1.0734
29719SOL    HW2 6768   3.361   8.469   8.675 -0.4033 -1.4375  0.2315
29720SOL     OW 6769   4.297   4.873   4.940  0.2925  0.0335 -0.5360
29720SOL    HW1 6770   4.311   4.958   4.983  2.3623 -0.5303  0.0065
29720SOL    HW2 6771   4.261   4.817   5.009  2.7643 -0.6180  0.3107
29721SOL     OW 6772   5.892   2.875   7.040  0.0209 -0.2154  0.5543
29721SOL    HW1 6773   5.867   2.847   7.128  0.2848 -4.5901 -0.5317
29721SOL    HW2 6774   5.945   2.803   7.006  1.9102  2.3315 -2.4319
29722SOL     OW 6775   6.275   1.206   1.473  0.1120 -0.0267 -0.6181
29722SOL    HW1 6776   6.237   1.190   1.387 -1.3662 -1.3665  0.2261
29722SOL    HW2 6777   6.324   1.126   1.493  0.9173  0.5031 -0.4408
29723SOL     OW 6778  13.716  12.210  11.902 -0.0082 -0.3417 -0.1126
29723SOL    HW1 6779  13.672  12.295  11.905  0.7505  0.0406  2.0767
29723SOL    HW2 6780  13.647  12.146  11.916 -0.1937  0.1453  1.4010
29724SOL     OW 6781   7.753   0.127   8.397 -0.3565  0.2379  0.2576
29724SOL    HW1 6782   7.841   0.095   8.380 -0.5615 -1.0692  1.4335
29724SOL    HW2 6783   7.764   0.192   8.466 -0.4174 -0.9355  1.4131
29725SOL     OW 6784  12.139  10.991  12.109  0.1991 -0.2632 -0.1654
29725SOL    HW1 6785  12.157  10.993  12.203  0.3903 -0.3064 -0.2006
29725SOL    HW2 6786  12.223  11.013  12.068  0.2163 -0.6366 -0.3374
29726SOL     OW 6787  13.829   0.759   5.651  0.4319 -0.4082  0.5437
29726SOL    HW1 6788  13.797   0.749   5.561  1.2768 -0.1547  0.2062
29726SOL    HW2 6789  13.757   0.728   5.706 -0.1385 -0.4483 -0.2171
29727SOL     OW 6790   8.584  12.809   9.490  0.0667  0.4266 -0.1308
29727SOL    HW1 6791   8.550  12.885   9.538 -1.4942 -1.1870  1.5088
29727SOL    HW2 6792   8.630  12.757   9.556 -0.0564 -0.7146 -0.9045
29728SOL     OW 6793   8.797   9.537   3.210  0.4016 -0.2835 -0.0785
29728SOL    HW1 6794   8.726   9.543   3.275  0.7549 -0.8770  0.3742
29728SOL    HW2 6795   8.861   9.602   3.238 -0.0982  0.4742 -0.6671
29729SOL     OW 6796  12.387   6.268   2.190  0.0105 -0.7322 -0.0076
29729SOL    HW1 6797  12.450   6.337   2.209  0.0994 -0.5397 -0.9465
29729SOL    HW2 6798  12.400   6.204   2.260 -2.1366  1.5212  2.6765
29730SOL     OW 6799  12.011  10.876   3.154 -0.0505 -0.0261 -0.7778
29730SOL    HW1 6800  12.004  10.967   3.181 -1.1105  0.0063 -1.1051
29730SOL    HW2 6801  11.920  10.847   3.144  0.2709 -1.1609 -0.5432
29731SOL     OW 6802  11.194   4.154  13.885 -0.6073  0.0950 -0.3525
29731SOL    HW1 6803  11.212   4.060  13.893 -0.8581  0.0490 -0.3092
29731SOL    HW2 6804  11.277   4.192  13.856 -0.1220  0.0515  0.9118
29732SOL     OW 6805   1.585  11.029   3.328  0.0120  0.5605 -0.1792
29732SOL    HW1 6806   1.583  10.989   3.241 -0.5947 -1.5738  0.7408
29732SOL    HW2 6807   1.636  10.968   3.381  0.8958  2.1317  0.8461
29733SOL     OW 6808  10.130  12.420   6.840 -0.2857  0.2732  0.1061
29733SOL    HW1 6809  10.038  12.443   6.858 -0.4990  0.1496 -0.7624
29733SOL    HW2 6810  10.129  12.389   6.749  0.3060 -1.4610  0.6560
29734SOL     OW 6811   0.914  11.042   6.342 -0.6899  0.4514 -0.4121
29734SOL    HW1 6812   1.009  11.054   6.347 -0.7805  0.7112  1.2993
29734SOL    HW2 6813   0.902  10.983   6.268  0.7654  0.7696 -0.9493
29735SOL     OW 6814   4.091   7.091   3.827 -0.2233  0.1077  0.2788
29735SOL    HW1 6815   4.010   7.134   3.799 -1.8367 -2.7987  0.1381
29735SOL    HW2 6816   4.149   7.099   3.752 -1.6206 -0.6182 -0.9391
29736SOL     OW 6817   5.372   5.293   0.175 -0.4417 -0.6294 -0.2648
29736SOL    HW1 6818   5.328   5.359   0.122  0.6181  1.1342  0.9531
29736SOL    HW2 6819   5.302   5.233   0.200 -1.4684  0.0807 -1.2920
29737SOL     OW 6820  13.188   1.150   3.241  0.7255 -0.0877 -0.6249
29737SOL    HW1 6821  13.170   1.172   3.332  0.8133 -2.9992  0.1944
29737SOL    HW2 6822  13.199   1.234   3.198  1.4399  1.3876  2.1940
29738SOL     OW 6823   5.335   4.611  13.518  0.3799 -0.2150 -0.1056
29738SOL    HW1 6824   5.291   4.581  13.598 -2.7041  1.4302 -1.0158
29738SOL    HW2 6825   5.351   4.704  13.533  0.8782 -0.1523 -0.9536
29739SOL     OW 6826   9.351   2.303   7.050 -0.0124  0.3040  0.2464
29739SOL    HW1 6827   9.406   2.228   7.027 -1.7807 -0.4286 -2.0040
29739SOL    HW2 6828   9.345   2.354   6.969 -1.4998  1.0794  0.7973
29740SOL     OW 6829  10.623   9.177  14.074 -0.6617 -0.3485  0.3361
29740SOL    HW1 6830  10.627   9.210  13.985 -1.5214  1.7983  1.0278
29740SOL    HW2 6831  10.689   9.228  14.122  0.4956 -2.1457  0.7987
29741SOL     OW 6832  12.510  11.112  10.897 -0.6241 -0.0852  0.0413
29741SOL    HW1 6833  12.436  11.173  10.894 -1.8799 -1.5797 -0.7978
29741SOL    HW2 6834  12.566  11.139  10.824 -0.6870  0.6196  0.2436
29742SOL     OW 6835   8.163   2.080   3.224  0.8173 -0.2386  0.1599
29742SOL    HW1 6836   8.240   2.136   3.216  0.7293 -0.2931 -1.2719
29742SOL    HW2 6837   8.104   2.128   3.283  1.0614  0.8173 -0.4364
29743SOL     OW 6838   4.849   3.930   1.701  0.1956  0.5715 -0.2802
29743SOL    HW1 6839   4.922   3.879   1.667  1.3377  1.7588  0.3433
29743SOL    HW2 6840   4.834   3.895   1.789  0.5802  0.9070 -0.0814
29744SOL     OW 6841  10.537   6.462   6.263 -0.0404 -0.4892 -0.1176
29744SOL    HW1 6842  10.560   6.485   6.173 -2.1273  0.6788 -0.4113
29744SOL    HW2 6843  10.584   6.526   6.317  0.2147 -0.3995 -0.4437
29745SOL     OW 6844  11.569   7.342   2.215  0.0709 -0.2886  0.0530
29745SOL    HW1 6845  11.650   7.388   2.194  1.7308 -3.1422 -0.2868
29745SOL    HW2 6846  11.592   7.249   2.208 -2.1899 -1.3163  3.7338
29746SOL     OW 6847   7.683   3.321  10.123  0.3610  0.3051  0.0868
29746SOL    HW1 6848   7.664   3.290  10.035  2.3273 -1.4714  0.2198
29746SOL    HW2 6849   7.606   3.294  10.175  0.2726 -0.8504 -0.6118
29747SOL     OW 6850   4.298  11.612   7.765  0.2096 -0.1054 -0.1552
29747SOL    HW1 6851   4.266  11.528   7.798 -1.6780  0.5394 -0.2127
29747SOL    HW2 6852   4.391  11.613   7.786  0.7036 -2.9704 -1.7553
29748SOL     OW 6853   9.634   2.123   6.570  0.1610 -0.1184  0.4434
29748SOL    HW1 6854   9.695   2.092   6.637 -0.2107 -2.3110 -0.1579
29748SOL    HW2 6855   9.558   2.065   6.577 -0.8115  0.9805 -0.4752
29749SOL     OW 6856   3.392  13.021   7.231 -0.0690 -0.4774 -0.1690
29749SOL    HW1 6857   3.445  12.975   7.296 -0.1412  0.1755  0.3627
29749SOL    HW2 6858   3.453  13.041   7.160  0.1260 -0.7654 -0.0813
29750SOL     OW 6859  13.653   2.283   5.747 -0.2002  0.2613  0.1191
29750SOL    HW1 6860  13.633   2.204   5.798  1.7632 -0.7323 -0.5290
29750SOL    HW2 6861  13.584   2.345   5.770 -1.8004 -1.6179  0.6874
29751SOL     OW 6862  13.093   9.733   2.403  0.1837 -0.2118  0.2810
29751SOL    HW1 6863  13.159   9.665   2.417  0.2056 -0.2542 -0.0237
29751SOL    HW2 6864  13.009   9.686   2.407  0.1803 -0.1864  0.4974
29752SOL     OW 6865  11.269   1.808   7.655  0.0146  0.4405 -0.1359
29752SOL    HW1 6866  11.242   1.718   7.642  2.9705 -0.8375  1.5838
29752SOL    HW2 6867  11.203   1.845   7.714 -0.3658 -1.1134  0.4495
29753SOL     OW 6868  13.810   3.931   7.487 -0.5650 -0.8445  0.3399
29753SOL    HW1 6869  13.762   3.982   7.421  0.1370  1.1115  1.2411
29753SOL    HW2 6870  13.761   3.945   7.568  0.7378  0.1136  1.0065
29754SOL     OW 6871  13.481   4.057   6.662 -0.0005 -0.4960 -0.2726
29754SOL    HW1 6872  13.465   4.100   6.746 -0.5283 -1.0991 -0.0577
29754SOL    HW2 6873  13.402   4.006   6.645 -1.1316  1.7992 -2.5147
29755SOL     OW 6874   4.407   8.889   5.013  0.3107 -0.2177  0.1636
29755SOL    HW1 6875   4.427   8.971   5.058  0.7153  0.1378 -0.6355
29755SOL    HW2 6876   4.336   8.912   4.953  0.5916 -0.3786 -0.2404
29756SOL     OW 6877   2.289   4.187   6.192  0.3119  0.0242 -0.6523
29756SOL    HW1 6878   2.373   4.161   6.231  0.2610 -0.7381 -1.0506
29756SOL    HW2 6879   2.224   4.158   6.256  0.1013 -2.7436 -1.9714
29757SOL     OW 6880  11.007   8.629  10.988  0.1188 -0.1713  0.3114
29757SOL    HW1 6881  10.941   8.586  10.933  0.7075 -1.4353  0.5669
29757SOL    HW2 6882  10.956   8.684  11.048 -0.6170 -0.0051 -0.4488
29758SOL     OW 6883   3.384   4.682   9.323  0.3399  0.3400 -0.4466
29758SOL    HW1 6884   3.425   4.768   9.323  1.1662 -0.0460 -0.9626
29758SOL    HW2 6885   3.452   4.623   9.356 -0.9291  0.1869  2.1805
29759SOL     OW 6886  12.438  11.367   2.295 -0.0409  0.0634  0.3843
29759SOL    HW1 6887  12.361  11.328   2.254  0.3033 -1.0480  0.7481
29759SOL    HW2 6888  12.509  11.305   2.276  1.1304  1.7895 -1.2505
29760SOL     OW 6889   4.301   1.771   5.138  0.4814 -0.0472 -0.4449
29760SOL    HW1 6890   4.259   1.737   5.217  1.0685  1.0009  0.3260
29760SOL    HW2 6891   4.241   1.839   5.106 -0.1614 -1.0157 -1.3884
29761SOL     OW 6892   1.993   6.157   5.291  0.1143 -0.0422 -0.4273
29761SOL    HW1 6893   2.046   6.200   5.224 -0.4243 -1.3195 -1.7538
29761SOL    HW2 6894   1.908   6.142   5.248 -0.0157 -1.5528  0.2687
29762SOL     OW 6895  12.481   3.414  10.708 -0.3568 -0.3062  0.5511
29762SOL    HW1 6896  12.408   3.466  10.674 -1.2568 -2.2311 -0.7112
29762SOL    HW2 6897  12.550   3.477  10.727 -1.4495  1.3406 -0.6781
29763SOL     OW 6898   3.460   1.724   1.966  0.1003 -0.0637  0.2695
29763SOL    HW1 6899   3.468   1.744   1.872  0.3360  1.3742  0.5853
29763SOL    HW2 6900   3.549   1.700   1.992  0.6180  2.1115  0.6736
29764SOL     OW 6901   2.638  12.377  10.116  0.0310 -0.0580 -0.0108
29764SOL    HW1 6902   2.644  12.347  10.025 -1.3092 -0.7887  0.1259
29764SOL    HW2 6903   2.727  12.407  10.136  0.3378  0.1747 -1.5712
29765SOL     OW 6904  14.049  10.159   9.227 -0.5554 -0.3232 -0.1332
29765SOL    HW1 6905  14.054  10.230   9.163 -0.8229  0.9183  1.1829
29765SOL    HW2 6906  14.121  10.175   9.287  0.2114 -1.9643 -0.5646
29766SOL     OW 6907   2.095   8.421   4.730  0.1227 -0.0145  0.3588
29766SOL    HW1 6908   2.120   8.484   4.662  0.0730 -0.0764  0.2836
29766SOL    HW2 6909   2.021   8.461   4.774  1.1593  0.7833  1.4480
29767SOL     OW 6910   5.523  12.389  13.220 -0.0857 -0.0868  0.2078
29767SOL    HW1 6911   5.567  12.396  13.135 -1.2731 -0.5734 -0.4783
29767SOL    HW2 6912   5.472  12.308  13.213  0.8749 -0.8840  1.9163
29768SOL     OW 6913   0.459   6.629  10.390 -0.0698  0.3871 -0.2562
29768SOL    HW1 6914   0.370   6.596  10.382 -0.7254  1.5673  1.5551
29768SOL    HW2 6915   0.488   6.643  10.300 -0.8727 -2.0251 -0.9727
29769SOL     OW 6916  13.403   5.287   4.264  0.0468 -0.4278 -0.4738
29769SOL    HW1 6917  13.338   5.341   4.219  0.0318 -0.9390 -1.0696
29769SOL    HW2 6918  13.383   5.299   4.357 -0.0035  0.5332 -0.5908
29770SOL     OW 6919  10.965  12.229   0.585 -0.1222  0.4051  0.3317
29770SOL    HW1 6920  10.927  12.313   0.608  1.8436  1.5248 -0.2880
29770SOL    HW2 6921  11.041  12.250   0.531  0.5497 -1.7536  0.3159
29771SOL     OW 6922   5.696  10.083   6.319 -0.3438  0.2555 -0.5444
29771SOL    HW1 6923   5.695  10.122   6.232  2.0805 -1.0519 -1.2600
29771SOL    HW2 6924   5.783  10.103   6.353 -1.1549  0.4904  1.4963
29772SOL     OW 6925   5.113  13.773   9.616  0.2695 -0.2975  0.7355
29772SOL    HW1 6926   5.168  13.697   9.598 -0.3009 -0.1096 -2.3005
29772SOL    HW2 6927   5.025  13.737   9.627 -0.2315 -0.0833 -1.9887
29773SOL     OW 6928   0.784   0.013   5.531 -0.2459 -0.1352  0.2142
29773SOL    HW1 6929   0.779   0.050   5.619  0.8664  1.1976 -0.2396
29773SOL    HW2 6930   0.804  -0.079   5.545 -0.1172  0.0511  1.3643
29774SOL     OW 6931   3.853   6.116   4.916  0.4369  0.0711  0.2178
29774SOL    HW1 6932   3.845   6.064   4.995 -1.1032  0.0693  0.0874
29774SOL    HW2 6933   3.930   6.171   4.931  0.7654 -0.6604  1.2720
29775SOL     OW 6934   5.384   3.150   2.741 -0.0890  0.0792  0.2396
29775SOL    HW1 6935   5.445   3.078   2.753  0.4646  0.5198  0.1252
29775SOL    HW2 6936   5.390   3.200   2.823 -0.6778 -0.1515  0.4317
29776SOL     OW 6937  11.384   3.508   4.488 -0.2113 -0.0882  0.6910
29776SOL    HW1 6938  11.320   3.544   4.426 -0.5793 -1.2406  0.3826
29776SOL    HW2 6939  11.333   3.485   4.565 -0.2595 -1.4048  0.2837
29777SOL     OW 6940   0.306   1.487   7.324  0.0376  0.0749  0.2569
29777SOL    HW1 6941   0.240   1.420   7.343 -0.3982  0.1804 -0.8231
29777SOL    HW2 6942   0.273   1.566   7.369 -0.7234  0.1950 -0.4883
29778SOL     OW 6943   3.050   3.733   2.308  0.2584 -0.4061  0.3788
29778SOL    HW1 6944   3.084   3.662   2.254 -0.0711  0.0140 -0.4048
29778SOL    HW2 6945   2.979   3.770   2.256 -0.8900 -0.7702  1.6421
29779SOL     OW 6946  13.478   2.549   6.278  0.7687  0.1926 -0.3590
29779SOL    HW1 6947  13.552   2.492   6.257  1.5243  0.8187  0.5291
29779SOL    HW2 6948  13.443   2.514   6.360 -0.4762 -0.6064 -1.1827
29780SOL     OW 6949   3.847   3.327   6.105 -0.4525  0.6009 -0.0866
29780SOL    HW1 6950   3.854   3.231   6.099  1.3879  0.5464  1.9436
29780SOL    HW2 6951   3.888   3.359   6.024  0.9831 -0.3005  0.2540
29781SOL     OW 6952   7.950  12.774   9.936  0.5780 -0.2845 -0.4490
29781SOL    HW1 6953   7.960  12.756  10.029 -1.5024 -1.9702 -0.4795
29781SOL    HW2 6954   7.937  12.869   9.931  1.3056 -0.0923  0.8806
29782SOL     OW 6955  12.828   7.605  12.999 -0.3928 -0.1781 -0.0075
29782SOL    HW1 6956  12.769   7.542  12.956 -0.8284 -0.0062  0.3264
29782SOL    HW2 6957  12.777   7.638  13.073  0.1938 -0.1532  0.3905
29783SOL     OW 6958  12.192   3.637   5.345  1.1532 -0.5469 -0.5109
29783SOL    HW1 6959  12.143   3.607   5.421 -0.9536  0.8400 -1.2323
29783SOL    HW2 6960  12.125   3.659   5.280  2.6991  1.6375 -1.4995
29784SOL     OW 6961   3.392   1.122   5.409 -0.9193 -0.1256  0.2038
29784SOL    HW1 6962   3.304   1.091   5.385 -1.2727  0.7005  0.3840
29784SOL    HW2 6963   3.449   1.087   5.341 -1.6561  0.7568 -0.9093
29785SOL     OW 6964  11.711   1.186   0.828 -0.1275  0.1434 -0.0555
29785SOL    HW1 6965  11.783   1.250   0.831  0.9569 -1.0443  2.3591
29785SOL    HW2 6966  11.634   1.237   0.852  0.6129  0.7434  1.2275
29786SOL     OW 6967   2.668   3.705   7.648 -0.1706  0.7722 -0.3025
29786SOL    HW1 6968   2.734   3.757   7.694  0.0967  3.1940 -3.1442
29786SOL    HW2 6969   2.716   3.628   7.617  0.2554  0.4340  1.1274
29787SOL     OW 6970   1.217   6.621   9.632  0.3470 -0.4751  0.0527
29787SOL    HW1 6971   1.136   6.609   9.582  0.0697 -1.9777  0.8243
29787SOL    HW2 6972   1.226   6.716   9.641 -0.4126 -0.2321 -1.5015
29788SOL     OW 6973   5.783   9.436   4.380  0.0010  0.2881  0.1244
29788SOL    HW1 6974   5.789   9.453   4.474 -1.8394 -2.9541  1.0017
29788SOL    HW2 6975   5.706   9.486   4.352  0.1693  0.7550  0.4821
29789SOL     OW 6976   2.737   1.755   6.024  0.2186  0.5770  0.0158
29789SOL    HW1 6977   2.812   1.717   6.069 -0.4375  0.3021  0.9070
29789SOL    HW2 6978   2.693   1.808   6.091 -1.3786 -0.6862  0.0225
29790SOL     OW 6979   0.496   8.002   6.438  0.2222  0.4998 -0.2939
29790SOL    HW1 6980   0.447   8.084   6.433 -1.6308 -0.5739 -0.7709
29790SOL    HW2 6981   0.583   8.027   6.470  0.0754  2.7764 -1.4967
29791SOL     OW 6982   7.185   7.105   9.877 -0.4846  0.8508 -0.0184
29791SOL    HW1 6983   7.138   7.103   9.960 -1.1278  0.1304 -0.3847
29791SOL    HW2 6984   7.262   7.159   9.894 -1.8488  2.7772  0.3805
29792SOL     OW 6985   5.116   8.604   1.429  0.3022 -0.7337 -0.1237
29792SOL    HW1 6986   5.203   8.568   1.408  0.6492  0.6523 -1.1897
29792SOL    HW2 6987   5.066   8.528   1.458  1.4403 -1.8251 -0.8921
29793SOL     OW 6988  11.543  13.066   5.813 -0.2191  0.9274 -0.6600
29793SOL    HW1 6989  11.489  13.080   5.890 -0.4274  1.6632 -0.9280
29793SOL    HW2 6990  11.578  12.977   5.823 -0.0008  1.1229  0.4161
29794SOL     OW 6991   5.389   8.979   2.906  0.3888 -0.8288 -0.0386
29794SOL    HW1 6992   5.424   9.018   2.826 -1.1236  1.3874  0.2890
29794SOL    HW2 6993   5.343   8.900   2.876 -1.6951  0.8900 -1.7128
29795SOL     OW 6994   6.296   6.039  11.826  0.2042  0.7852  0.2056
29795SOL    HW1 6995   6.266   6.008  11.912  1.9340  1.7410  1.2124
29795SOL    HW2 6996   6.225   6.094  11.794 -1.4548 -1.3862 -0.0667
29796SOL     OW 6997   5.550   2.735   2.222  0.0146  0.2617  0.2296
29796SOL    HW1 6998   5.497   2.766   2.148  0.9757  0.0297 -0.5858
29796SOL    HW2 6999   5.597   2.659   2.187  1.7760  1.1549  0.5416
29797SOL     OW 7000  12.399   7.502  13.266 -0.5435  0.1849  0.2371
29797SOL    HW1 7001  12.387   7.515  13.360 -1.5370 -0.2695  0.1788
29797SOL    HW2 7002  12.318   7.461  13.236  0.3091 -1.0099 -0.5579
29798SOL     OW 7003   0.771   8.476   9.155  0.3868  0.9022  0.1846
29798SOL    HW1 7004   0.715   8.547   9.125 -1.6944 -1.1379 -1.0844
29798SOL    HW2 7005   0.799   8.431   9.075  1.1370 -0.0759  0.9648
29799SOL     OW 7006   1.188   2.962   1.474 -0.0874  0.0603 -0.5305
29799SOL    HW1 7007   1.245   3.012   1.415 -0.4911  0.5743 -0.4798
29799SOL    HW2 7008   1.234   2.878   1.484  0.8595  0.5991 -0.1944
29800SOL     OW 7009   6.082   4.960  12.778 -0.1108  0.9414 -0.6688
29800SOL    HW1 7010   6.153   4.952  12.841  1.5543  1.7365 -2.3678
29800SOL    HW2 7011   6.050   4.870  12.767  1.7949  0.2896 -1.1632
29801SOL     OW 7012   2.031   9.196  13.725  0.6320  0.0098  0.4346
29801SOL    HW1 7013   1.964   9.258  13.698  0.7264 -0.4639 -0.9849
29801SOL    HW2 7014   2.083   9.181  13.645  1.4775 -0.7974  1.1134
29802SOL     OW 7015   2.501   4.401   3.944  0.1666 -0.2428 -0.5644
29802SOL    HW1 7016   2.552   4.437   3.871 -0.5481 -2.2354 -2.1398
29802SOL    HW2 7017   2.468   4.318   3.911 -0.8990 -0.8244  1.7782
29803SOL     OW 7018  10.870   7.072   2.714 -0.1009 -0.4477 -0.1358
29803SOL    HW1 7019  10.907   7.085   2.801  0.7094 -0.6411 -0.4464
29803SOL    HW2 7020  10.801   7.007   2.727 -0.0767 -0.3734  0.3841
29804SOL     OW 7021   7.278  10.265   7.675  0.0237  0.7124  0.0513
29804SOL    HW1 7022   7.319  10.245   7.591  0.8743  0.1559  0.5791
29804SOL    HW2 7023   7.187  10.238   7.665  0.1481  0.5472 -0.6537
29805SOL     OW 7024  10.996   5.727   6.869 -0.4323  0.5707  0.0031
29805SOL    HW1 7025  10.933   5.686   6.929  1.6586 -1.2348  1.1329
29805SOL    HW2 7026  11.006   5.665   6.798  0.0794  0.8007 -0.1362
29806SOL     OW 7027   2.424  10.501  12.477  0.2991 -0.7397  0.1811
29806SOL    HW1 7028   2.336  10.538  12.485  0.1770 -0.3082 -2.3074
29806SOL    HW2 7029   2.468  10.525  12.558 -1.3185  0.5902  0.7264
29807SOL     OW 7030  12.009  13.087   2.927  0.4063  0.2117  0.0773
29807SOL    HW1 7031  12.078  13.082   2.993 -0.4985 -1.0194  0.9733
29807SOL    HW2 7032  11.954  13.160   2.956  0.0235 -0.3105  0.7090
29808SOL     OW 7033   0.955   8.090  11.812  0.3659  0.2790  0.6011
29808SOL    HW1 7034   1.041   8.103  11.772  0.0108 -2.0966 -1.1794
29808SOL    HW2 7035   0.968   8.111  11.904  3.3466 -1.5505  0.7560
29809SOL     OW 7036   2.669   6.560   5.407 -0.5689  0.4860 -0.2970
29809SOL    HW1 7037   2.650   6.640   5.360 -1.1575 -0.4081 -1.6321
29809SOL    HW2 7038   2.635   6.575   5.495 -1.4107  1.3973 -0.7680
29810SOL     OW 7039   7.047   0.933   8.444  0.4033 -0.0327 -0.4687
29810SOL    HW1 7040   7.081   0.948   8.532  2.2057 -0.6759 -0.9980
29810SOL    HW2 7041   7.116   0.965   8.386 -1.1696  1.3191 -1.6894
29811SOL     OW 7042   0.559   8.646  12.743  0.2967 -0.3595 -0.3240
29811SOL    HW1 7043   0.536   8.652  12.650 -0.5596  2.1328  0.0001
29811SOL    HW2 7044   0.517   8.565  12.773 -0.6602 -0.4184 -1.7561
29812SOL     OW 7045  10.722   8.537   0.619 -0.1399 -0.1519  0.0335
29812SOL    HW1 7046  10.781   8.493   0.680 -0.1019 -1.3846 -0.8658
29812SOL    HW2 7047  10.776   8.604   0.578  0.0356  0.1808  0.7897
29813SOL     OW 7048   1.024   7.988   7.171  0.1280  0.0563 -0.7632
29813SOL    HW1 7049   1.009   7.902   7.210 -0.8175 -0.3670 -1.9719
29813SOL    HW2 7050   1.006   8.050   7.241 -0.6442 -0.6971 -0.2779
29814SOL     OW 7051   0.567   8.065   0.525 -0.6592 -0.0336 -0.5814
29814SOL    HW1 7052   0.622   8.062   0.603 -0.0428  0.3948 -0.9916
29814SOL    HW2 7053   0.484   8.025   0.552 -0.7359  0.8327  0.5152
29815SOL     OW 7054  12.712  10.420  13.228  0.0481 -0.0400  0.2829
29815SOL    HW1 7055  12.791  10.439  13.279  0.0018 -0.5052  0.5340
29815SOL    HW2 7056  12.739  10.433  13.137 -0.1148  1.6957  0.4444
29816SOL     OW 7057   4.267   1.739   4.834 -0.0918  0.3419  0.3457
29816SOL    HW1 7058   4.269   1.682   4.911 -1.0608 -0.1378  0.0228
29816SOL    HW2 7059   4.180   1.778   4.835 -0.1964  0.1361 -0.6569
29817SOL     OW 7060  12.977   7.506   4.466 -0.3744 -0.2362  0.0317
29817SOL    HW1 7061  12.956   7.443   4.396 -3.5654  1.0098 -0.2864
29817SOL    HW2 7062  12.919   7.482   4.538 -2.1431  2.5640 -0.3046
29818SOL     OW 7063   8.291   7.580  12.365  0.4660 -0.2599 -0.1261
29818SOL    HW1 7064   8.334   7.535  12.437 -1.1686 -0.1126  0.9998
29818SOL    HW2 7065   8.279   7.670  12.397  1.3610  0.3050 -1.3151
29819SOL     OW 7066   0.005   1.522   2.596  0.2194  0.6877 -0.0767
29819SOL    HW1 7067   0.007   1.436   2.553 -2.6270  1.2305 -1.5067
29819SOL    HW2 7068   0.084   1.566   2.564  0.3059 -0.4135 -1.5151
29820SOL     OW 7069  14.016  12.035   1.804 -0.4755 -0.0436 -0.5699
29820SOL    HW1 7070  14.045  12.113   1.852 -2.0242 -0.4658  1.1451
29820SOL    HW2 7071  14.077  12.028   1.731  0.1199  2.3870 -0.3845
29821SOL     OW 7072   7.732   6.301   4.170  0.4871  0.2701 -0.4089
29821SOL    HW1 7073   7.731   6.385   4.218 -0.3736  0.3350 -0.5196
29821SOL    HW2 7074   7.825   6.281   4.160  0.7078  1.1248 -0.2249
29822SOL     OW 7075  11.519  10.974  10.564 -0.1083  0.3780  0.2668
29822SOL    HW1 7076  11.431  10.950  10.593 -0.5833  0.2706 -1.1924
29822SOL    HW2 7077  11.505  11.013  10.478  1.3474 -0.2153 -0.2548
29823SOL     OW 7078   8.868  11.681  14.022  0.1937  0.1778 -0.3670
29823SOL    HW1 7079   8.859  11.619  13.950 -1.3866  1.1134 -1.0192
29823SOL    HW2 7080   8.918  11.754  13.984  1.3164 -0.2975  0.1547
29824SOL     OW 7081   1.866   3.364  10.051 -0.3604 -0.1631  0.0435
29824SOL    HW1 7082   1.889   3.373  10.144 -2.1362  2.1637  0.3488
29824SOL    HW2 7083   1.934   3.414  10.005  1.2159 -2.3041 -0.1066
29825SOL     OW 7084   7.002   1.950  11.587 -0.3348 -0.2885  0.6974
29825SOL    HW1 7085   7.033   1.979  11.500 -1.0008  3.9288  1.6166
29825SOL    HW2 7086   7.069   1.982  11.647 -0.1527 -2.6829  1.8634
29826SOL     OW 7087   1.466   9.716   0.114 -0.3041  0.4274 -0.2068
29826SOL    HW1 7088   1.374   9.736   0.095 -0.3143  0.2320 -0.3679
29826SOL    HW2 7089   1.489   9.776   0.186 -0.9003 -0.3427  0.6452
29827SOL     OW 7090   3.362  13.378   1.338 -0.1580 -0.0045 -0.1537
29827SOL    HW1 7091   3.326  13.340   1.258 -0.1353 -2.9506  1.1326
29827SOL    HW2 7092   3.456  13.382   1.323  0.0938 -2.4555  0.3531
29828SOL     OW 7093   6.034   2.671   0.394  0.2325  0.6901 -0.5889
29828SOL    HW1 7094   5.955   2.637   0.351 -0.6007  0.0805  1.3221
29828SOL    HW2 7095   6.006   2.693   0.482  1.9930  1.4138 -0.1708
29829SOL     OW 7096   1.756  13.838   8.347 -0.4530 -0.2788  0.3104
29829SOL    HW1 7097   1.819  13.885   8.292  0.1962 -0.2948  1.0266
29829SOL    HW2 7098   1.773  13.869   8.436 -2.9535  1.4379  0.3068
29830SOL     OW 7099   8.607  10.748  12.529  0.5488 -0.1708 -0.1107
29830SOL    HW1 7100   8.634  10.670  12.480  1.1845  0.3476 -0.5952
29830SOL    HW2 7101   8.590  10.715  12.617  0.5614 -0.9060 -0.3736
29831SOL     OW 7102   9.182  11.601   2.370  0.0138  0.4718  0.4792
29831SOL    HW1 7103   9.130  11.522   2.381 -0.7720  0.9818  0.4750
29831SOL    HW2 7104   9.201  11.605   2.276  1.3705 -0.5193  0.6820
29832SOL     OW 7105   2.370   6.873  12.563  0.8004  0.0632  0.5566
29832SOL    HW1 7106   2.369   6.821  12.643 -2.3129  0.4403  0.8767
29832SOL    HW2 7107   2.324   6.819  12.499  1.3073  0.6824 -0.3527
29833SOL     OW 7108   5.367  12.524  13.404 -0.0436 -0.1130 -0.3389
29833SOL    HW1 7109   5.340  12.585  13.335  1.1936  1.0386  0.1429
29833SOL    HW2 7110   5.424  12.462  13.359  0.5418  0.4756 -0.4295
29834SOL     OW 7111   3.979   4.417   0.130  0.1277  0.2590 -0.3492
29834SOL    HW1 7112   4.070   4.407   0.160 -0.3792  1.5615  1.8274
29834SOL    HW2 7113   3.968   4.348   0.064  2.2237 -0.9379  0.4511
29835SOL     OW 7114   5.919   4.454  10.223 -0.2222 -0.3803 -0.5538
29835SOL    HW1 7115   5.909   4.375  10.277 -1.3172 -0.4899 -0.8838
29835SOL    HW2 7116   5.842   4.453  10.166 -0.5767  1.2671 -0.1337
29836SOL     OW 7117  11.107   3.765  12.807  0.0319  0.3553 -0.2304
29836SOL    HW1 7118  11.198   3.737  12.801 -0.2692 -0.4864 -1.2122
29836SOL    HW2 7119  11.097   3.798  12.896  1.0750 -0.3173  0.1495
29837SOL     OW 7120   4.811  11.317   4.713  0.4445 -0.0821 -0.0154
29837SOL    HW1 7121   4.867  11.369   4.770  0.8759 -0.8895  0.3137
29837SOL    HW2 7122   4.757  11.381   4.668  0.1660  0.5934  1.2169
29838SOL     OW 7123   9.109   4.875   4.997  0.2869  0.8307  0.7095
29838SOL    HW1 7124   9.159   4.872   4.915 -1.2222 -1.5515 -0.2369
29838SOL    HW2 7125   9.054   4.952   4.988  1.0994  1.3622  0.0935
29839SOL     OW 7126   2.727   2.322   8.917  0.7313 -0.0888 -0.1304
29839SOL    HW1 7127   2.748   2.359   9.002 -1.0143 -0.6181  0.5703
29839SOL    HW2 7128   2.706   2.397   8.862 -1.5303  0.1295  0.9185
29840SOL     OW 7129  10.618   1.823   0.276 -0.4019  0.3228 -0.4291
29840SOL    HW1 7130  10.618   1.734   0.240  2.4361 -0.9195  2.1920
29840SOL    HW2 7131  10.534   1.830   0.320  0.3045 -2.1828  1.5519
29841SOL     OW 7132  12.855   7.101  13.910  0.1799  0.0902  0.3182
29841SOL    HW1 7133  12.943   7.133  13.930  0.0318  0.7023  0.0185
29841SOL    HW2 7134  12.860   7.077  13.817  0.5917 -1.8056  0.7846
29842SOL     OW 7135  11.298  11.108   5.983  0.1788 -0.4449  0.0175
29842SOL    HW1 7136  11.240  11.062   6.043 -0.6844 -0.5777 -0.8960
29842SOL    HW2 7137  11.327  11.041   5.921 -1.0000  0.1810 -1.2533
29843SOL     OW 7138   0.850  13.078   4.208 -0.4649  0.1019  0.3406
29843SOL    HW1 7139   0.805  13.114   4.132  0.1519  0.4739  0.1406
29843SOL    HW2 7140   0.829  12.985   4.206  2.2887 -0.6248 -2.3325
29844SOL     OW 7141   8.154   2.510   5.525 -0.3284  0.2467  0.4935
29844SOL    HW1 7142   8.160   2.549   5.613 -3.2292  1.0885  0.4081
29844SOL    HW2 7143   8.096   2.435   5.536  2.2815 -2.0002 -0.0801
29845SOL     OW 7144  12.590   7.129   5.904 -0.0428  0.0806  0.2792
29845SOL    HW1 7145  12.639   7.133   5.821 -0.3668  0.3176  0.0994
29845SOL    HW2 7146  12.504   7.096   5.880 -0.0740 -0.0408  0.5540
29846SOL     OW 7147   3.016   0.857   3.379  0.1354 -1.0018  0.4616
29846SOL    HW1 7148   3.004   0.767   3.349 -1.1317 -0.9083  0.6520
29846SOL    HW2 7149   3.078   0.850   3.452 -1.0040 -1.8984  1.3795
29847SOL     OW 7150   9.103  11.209   3.369  0.2292 -0.1427  0.3407
29847SOL    HW1 7151   9.161  11.265   3.318  2.2202 -0.8666  1.7073
29847SOL    HW2 7152   9.116  11.122   3.333 -1.0843 -0.1396 -0.2198
29848SOL     OW 7153   6.424   8.654   0.084 -0.2249  0.2912  0.3022
29848SOL    HW1 7154   6.446   8.567   0.052  0.4800  0.4581  0.3187
29848SOL    HW2 7155   6.467   8.714   0.023 -0.6217  0.6305  0.3464
29849SOL     OW 7156   8.340   1.403  13.801 -0.1940 -0.0282 -0.2700
29849SOL    HW1 7157   8.319   1.396  13.894 -0.3350 -0.7770 -0.3504
29849SOL    HW2 7158   8.429   1.367  13.794 -0.3914 -0.4879 -0.4985
29850SOL     OW 7159   5.206   8.572   3.338 -0.3574  0.5238  0.0157
29850SOL    HW1 7160   5.221   8.649   3.284  0.6336  1.0499  0.9924
29850SOL    HW2 7161   5.173   8.505   3.278  2.7264  0.3754 -1.7177
29851SOL     OW 7162   5.305   3.861  11.837 -0.3957 -0.5885  0.2930
29851SOL    HW1 7163   5.267   3.933  11.788  1.1627  0.8271  1.0848
29851SOL    HW2 7164   5.372   3.824  11.779  0.5932  0.2931  0.8468
29852SOL     OW 7165  11.313   5.103  12.925 -0.3594  0.1209  0.1049
29852SOL    HW1 7166  11.397   5.059  12.912  0.0000  0.4791  1.1497
29852SOL    HW2 7167  11.251   5.052  12.873  0.0935 -1.4692  1.0589
29853SOL     OW 7168  11.098  10.071  10.310 -0.0335  0.7128 -0.0615
29853SOL    HW1 7169  11.164  10.140  10.302  0.8236 -0.0784  0.0081
29853SOL    HW2 7170  11.046  10.097  10.386  0.0970  1.4363 -0.2126
29854SOL     OW 7171   2.034   4.055   7.160  0.5776  0.1263 -0.2245
29854SOL    HW1 7172   2.113   4.074   7.211  1.4989 -1.7663 -0.8581
29854SOL    HW2 7173   2.010   3.966   7.185 -0.8716  0.3435 -0.7161
29855SOL     OW 7174   4.021   0.371   6.949 -0.3363  0.2684  0.0142
29855SOL    HW1 7175   4.017   0.461   6.980  0.3592  1.1844 -2.3529
29855SOL    HW2 7176   3.930   0.341   6.947 -0.5960  1.0128  0.5574
29856SOL     OW 7177   9.572   7.006   4.449 -0.6674  0.8190 -0.1029
29856SOL    HW1 7178   9.526   7.073   4.398  0.0949  0.7211 -0.9427
29856SOL    HW2 7179   9.642   7.054   4.494 -0.4343  0.6776 -0.3096
29857SOL     OW 7180  13.975   4.738   8.297 -0.5628  0.6014  0.5969
29857SOL    HW1 7181  13.910   4.792   8.254  0.2302  0.5644 -0.6960
29857SOL    HW2 7182  14.057   4.756   8.251 -0.3702 -2.1402 -0.3578
29858SOL     OW 7183   4.206  10.322  11.058  0.8582  0.1426  0.2463
29858SOL    HW1 7184   4.184  10.351  10.970  3.1611  1.1094 -0.0824
29858SOL    HW2 7185   4.142  10.367  11.114  0.1912  0.5655 -0.8174
29859SOL     OW 7186   9.667  10.220   1.581 -0.0020  0.3321  0.7232
29859SOL    HW1 7187   9.682  10.129   1.555 -2.2690  0.4447 -1.3496
29859SOL    HW2 7188   9.740  10.240   1.641  1.7886 -2.1421 -0.4274
29860SOL     OW 7189   3.750   1.855   9.007 -0.1954 -0.1119  0.5371
29860SOL    HW1 7190   3.845   1.855   9.019 -0.1454  0.4737  0.1721
29860SOL    HW2 7191   3.721   1.934   9.051 -0.2929  0.7164 -0.9486
29861SOL     OW 7192   8.881  11.925   1.278  0.3075 -0.5401 -0.1196
29861SOL    HW1 7193   8.904  11.951   1.368 -0.0110  1.4370 -0.5512
29861SOL    HW2 7194   8.964  11.900   1.239  1.0677  1.8323 -0.2106
29862SOL     OW 7195   8.170   4.059  12.945  0.1502 -0.9143  0.6518
29862SOL    HW1 7196   8.093   4.092  12.991 -0.1011 -1.6154  0.7466
29862SOL    HW2 7197   8.233   4.041  13.015 -0.0153 -1.4115  0.6792
29863SOL     OW 7198   5.657   2.802   3.505  0.4943  0.5250  0.3209
29863SOL    HW1 7199   5.720   2.758   3.562  1.0370  1.0657  0.1532
29863SOL    HW2 7200   5.579   2.813   3.559  0.6248  0.0635  0.6068
29864SOL     OW 7201  13.652  13.676  12.453 -0.3024 -0.1504  0.1556
29864SOL    HW1 7202  13.573  13.641  12.412 -0.7799  0.7630  0.2601
29864SOL    HW2 7203  13.699  13.718  12.381  1.6483 -3.2473 -0.5434
29865SOL     OW 7204  12.688   0.486   4.399 -0.4050 -0.3681 -0.1347
29865SOL    HW1 7205  12.690   0.576   4.431  0.9381 -0.7377  0.9909
29865SOL    HW2 7206  12.634   0.488   4.321 -2.7609  0.8851  1.4179
29866SOL     OW 7207   0.070   1.333  11.494 -0.6705 -0.1018 -0.3996
29866SOL    HW1 7208   0.065   1.429  11.491  0.2093 -0.0468 -3.1950
29866SOL    HW2 7209   0.155   1.314  11.534 -0.4517  0.3301 -0.6490
29867SOL     OW 7210  11.645  12.453   0.901 -0.0057  0.5712  0.0336
29867SOL    HW1 7211  11.671  12.447   0.993 -0.4307  0.9034  0.1771
29867SOL    HW2 7212  11.552  12.430   0.900  0.0363  0.3982 -0.3379
29868SOL     OW 7213   2.640   9.339   3.977  0.1314  0.0485 -0.5865
29868SOL    HW1 7214   2.659   9.268   4.038  0.6846  0.6306 -0.0558
29868SOL    HW2 7215   2.712   9.401   3.990 -0.0858  0.4822 -1.3808
29869SOL     OW 7216   3.521   9.737   2.354  0.2870 -0.0999 -0.1705
29869SOL    HW1 7217   3.532   9.737   2.449 -1.4781 -1.4817  0.0909
29869SOL    HW2 7218   3.434   9.774   2.339  0.5486  0.1204 -1.2553
29870SOL     OW 7219  10.583   8.719   1.894 -0.4061 -0.1694 -0.1762
29870SOL    HW1 7220  10.538   8.799   1.865 -0.4757  0.6612  1.9964
29870SOL    HW2 7221  10.513   8.655   1.907 -0.7353  0.3923  0.9547
29871SOL     OW 7222  13.109  10.757  10.428 -0.2804 -0.2708 -0.5085
29871SOL    HW1 7223  13.078  10.832  10.377  0.4304  0.2166 -0.2445
29871SOL    HW2 7224  13.191  10.787  10.468 -1.2725 -0.2847  1.7100
29872SOL     OW 7225  10.826   1.773   2.770  0.3589 -0.4662  0.0152
29872SOL    HW1 7226  10.872   1.809   2.847 -0.4246 -0.4193  0.4697
29872SOL    HW2 7227  10.892   1.773   2.701  1.0537 -0.4206  0.6642
29873SOL     OW 7228   2.216   1.815  13.847 -0.1605 -0.0994 -0.2734
29873SOL    HW1 7229   2.297   1.851  13.811 -0.0642 -0.5176 -0.4870
29873SOL    HW2 7230   2.178   1.766  13.774  0.1588 -1.1743  0.2613
29874SOL     OW 7231   8.819   1.649   1.442  0.5340 -0.1033 -0.3672
29874SOL    HW1 7232   8.820   1.557   1.416 -0.2061  0.0553 -0.9734
29874SOL    HW2 7233   8.839   1.697   1.362 -0.8563  0.3389 -0.4773
29875SOL     OW 7234   5.681   5.402   5.491 -0.1338  0.1060  0.2289
29875SOL    HW1 7235   5.775   5.396   5.475 -0.1657 -0.6039  0.2753
29875SOL    HW2 7236   5.673   5.404   5.587 -0.1857 -0.2528  0.2338
29876SOL     OW 7237   9.739  12.690   2.089 -0.4862 -0.2644  0.4415
29876SOL    HW1 7238   9.714  12.771   2.134  0.0098 -1.4210  2.9586
29876SOL    HW2 7239   9.664  12.632   2.102 -1.4987  0.1460 -2.6466
29877SOL     OW 7240  10.530   1.302   6.652  0.0335 -0.3387  0.2800
29877SOL    HW1 7241  10.548   1.328   6.561  0.0383 -0.7837  0.1525
29877SOL    HW2 7242  10.617   1.287   6.689 -0.0016 -0.9855  0.1101
29878SOL     OW 7243  12.206   8.725   9.490  0.0701 -0.1969 -0.1648
29878SOL    HW1 7244  12.164   8.750   9.572 -0.0869  1.0437 -0.5988
29878SOL    HW2 7245  12.173   8.636   9.473 -0.2851 -0.2765  0.8457
29879SOL     OW 7246   1.377   0.036   5.532 -0.4789  0.1128  0.0818
29879SOL    HW1 7247   1.456  -0.004   5.568 -1.1501 -0.4990  0.9005
29879SOL    HW2 7248   1.409   0.112   5.483  0.7455 -0.9209 -0.8029
29880SOL     OW 7249   7.081  10.665   2.857 -0.7339 -0.1568 -0.2772
29880SOL    HW1 7250   7.036  10.582   2.869  0.3882 -0.6795  0.5013
29880SOL    HW2 7251   7.092  10.673   2.762  0.1157 -1.4574 -0.3190
29881SOL     OW 7252  10.729   7.118  13.189 -0.2303  0.3670  0.3005
29881SOL    HW1 7253  10.658   7.122  13.253 -0.2921 -0.5111  0.2964
29881SOL    HW2 7254  10.698   7.057  13.122  0.2703  0.4602 -0.0229
29882SOL     OW 7255   8.157   4.800  11.099  0.1117 -0.0795  0.2991
29882SOL    HW1 7256   8.152   4.838  11.187  0.4351  1.2891 -0.2372
29882SOL    HW2 7257   8.138   4.874  11.041 -0.3822 -1.0302 -0.7707
29883SOL     OW 7258   2.487   2.103   1.812  0.1210  0.0369  0.2623
29883SOL    HW1 7259   2.468   2.190   1.776  0.3105  0.9505  2.2548
29883SOL    HW2 7260   2.571   2.079   1.772 -0.4405  0.2527 -1.1282
29884SOL     OW 7261   6.494  13.528   2.533 -0.3556  0.6450 -0.2795
29884SOL    HW1 7262   6.493  13.534   2.629 -2.0101  1.7045 -0.3149
29884SOL    HW2 7263   6.435  13.598   2.505 -1.7111 -1.0917 -1.9909
29885SOL     OW 7264   1.012  10.814   3.164  0.4848 -0.7658 -0.4661
29885SOL    HW1 7265   1.022  10.749   3.233 -1.8276 -0.5326  0.1649
29885SOL    HW2 7266   0.929  10.792   3.121  0.1324  1.1469 -0.8706
29886SOL     OW 7267   3.626   8.592   5.929 -0.1467 -0.5387 -0.2031
29886SOL    HW1 7268   3.539   8.582   5.966 -0.9988 -0.7907 -2.1669
29886SOL    HW2 7269   3.617   8.663   5.865  1.2530 -0.1203  0.0339
29887SOL     OW 7270   8.289  12.602   1.860 -0.1597  0.4600  0.1223
29887SOL    HW1 7271   8.340  12.577   1.783 -0.7387 -0.4028  0.0018
29887SOL    HW2 7272   8.294  12.526   1.917 -0.5572  0.7161  0.5058
29888SOL     OW 7273   9.952   3.561   0.153 -0.1406 -0.2631  0.0208
29888SOL    HW1 7274  10.025   3.619   0.174  1.1101 -0.9810 -2.0051
29888SOL    HW2 7275   9.893   3.569   0.227  1.7345  0.7695  1.5001
29889SOL     OW 7276   0.914   2.399  11.786  0.2530 -0.1106  0.1806
29889SOL    HW1 7277   0.872   2.427  11.705  1.1177  0.5647 -0.0569
29889SOL    HW2 7278   0.931   2.480  11.833  0.8756 -0.3962  0.4637
29890SOL     OW 7279   9.504  12.937  13.808 -0.2516  0.7344  0.2273
29890SOL    HW1 7280   9.420  12.982  13.817 -1.2646 -0.9155 -0.4417
29890SOL    HW2 7281   9.508  12.879  13.884 -1.1904 -1.3820 -1.2390
29891SOL     OW 7282  11.217   3.845  11.716 -0.1104  0.3553 -0.7486
29891SOL    HW1 7283  11.198   3.918  11.775 -1.2828 -0.3987 -0.1710
29891SOL    HW2 7284  11.212   3.767  11.771 -0.1783 -0.2789 -1.6337
29892SOL     OW 7285   1.301   7.521   4.531 -0.5519 -0.0724  0.2741
29892SOL    HW1 7286   1.359   7.489   4.601  1.4906  2.6457  0.0063
29892SOL    HW2 7287   1.213   7.512   4.566 -0.0315 -3.6433  1.0454
29893SOL     OW 7288  12.562   4.043  12.377 -0.3040  0.6202 -0.0746
29893SOL    HW1 7289  12.578   3.960  12.421 -2.2080 -0.3170 -1.0035
29893SOL    HW2 7290  12.619   4.042  12.300 -0.5843 -0.0215 -0.2795
29894SOL     OW 7291   0.688  12.429   5.080 -0.8523 -0.0169 -0.0176
29894SOL    HW1 7292   0.688  12.355   5.140  1.0188  1.5171  2.0685
29894SOL    HW2 7293   0.711  12.504   5.136  2.5819  1.3014 -2.8443
29895SOL     OW 7294  12.908  11.105   7.489 -0.2253 -0.0154  0.0172
29895SOL    HW1 7295  12.919  11.127   7.396  1.8135  0.1807  0.2640
29895SOL    HW2 7296  12.876  11.186   7.529  2.4456  1.1133  0.0632
29896SOL     OW 7297   2.144   2.552   5.829  0.2662 -0.4084 -0.2340
29896SOL    HW1 7298   2.179   2.513   5.749  1.0318  0.1410 -0.1756
29896SOL    HW2 7299   2.141   2.646   5.812 -1.3222 -0.4412 -0.2754
29897SOL     OW 7300   0.614  10.138   1.676 -0.2550  0.1002  0.5804
29897SOL    HW1 7301   0.602  10.173   1.763 -2.6146 -0.5483  0.5937
29897SOL    HW2 7302   0.607  10.213   1.617  0.3657  0.3949  0.8764
29898SOL     OW 7303   9.475  10.921  13.044 -0.3167  0.0926  0.0963
29898SOL    HW1 7304   9.519  10.854  12.991 -2.0256 -0.8547 -0.1875
29898SOL    HW2 7305   9.485  11.002  12.994 -0.8771 -0.5595 -1.1024
29899SOL     OW 7306   7.768   4.296   2.560 -0.5470  0.0901 -0.2052
29899SOL    HW1 7307   7.765   4.386   2.527  0.4934  0.2405  0.0696
29899SOL    HW2 7308   7.756   4.304   2.655 -0.4994 -0.0621 -0.1850
29900SOL     OW 7309   9.912  10.849   1.110  0.1399  0.4205  0.1977
29900SOL    HW1 7310   9.964  10.881   1.184  1.0814  1.4339 -0.8739
29900SOL    HW2 7311   9.930  10.910   1.039 -0.8802 -0.4322 -0.8388
29901SOL     OW 7312  13.632   3.087   4.666 -0.2352 -0.2485 -0.6001
29901SOL    HW1 7313  13.716   3.104   4.709 -1.4270  1.4308  1.1882
29901SOL    HW2 7314  13.605   3.002   4.701  0.7909 -0.9233 -1.3749
29902SOL     OW 7315   1.250   1.953   8.551  0.1107 -0.5988 -0.2017
29902SOL    HW1 7316   1.222   2.000   8.473 -1.4217  1.0239  1.2404
29902SOL    HW2 7317   1.204   1.869   8.545 -1.3994  0.1837 -0.2386
29903SOL     OW 7318   2.839  10.390  11.407  0.2212  0.5814  0.4568
29903SOL    HW1 7319   2.790  10.308  11.394 -1.2076  1.4965 -0.1303
29903SOL    HW2 7320   2.778  10.447  11.453  2.0043  0.5710  3.0458
29904SOL     OW 7321  10.754   6.273   1.669 -0.0140 -0.1640 -0.1275
29904SOL    HW1 7322  10.690   6.240   1.606  1.1262 -2.4647 -0.1744
29904SOL    HW2 7323  10.700   6.305   1.742 -1.2696 -0.8107 -0.7218
29905SOL     OW 7324  10.854   8.096   4.770  0.4917  0.3915 -0.1647
29905SOL    HW1 7325  10.939   8.141   4.762  0.1229  1.1139 -0.0977
29905SOL    HW2 7326  10.800   8.135   4.702  0.3583 -0.4262 -0.5364
29906SOL     OW 7327   6.756   4.053   7.294 -0.1103 -0.1584 -0.1152
29906SOL    HW1 7328   6.770   3.959   7.297 -0.9650 -0.2696  1.5917
29906SOL    HW2 7329   6.714   4.069   7.210 -1.5317 -1.5487  0.2983
29907SOL     OW 7330   9.403   0.880   1.702  0.0281  0.2512 -1.1403
29907SOL    HW1 7331   9.329   0.823   1.722  0.6867 -0.4464 -0.6293
29907SOL    HW2 7332   9.449   0.891   1.785  0.8474  0.1619 -1.5670
29908SOL     OW 7333   8.702   5.064  12.398 -0.4633  0.7796 -0.3125
29908SOL    HW1 7334   8.771   5.088  12.335 -0.1662 -2.2520 -1.2934
29908SOL    HW2 7335   8.746   5.068  12.484 -0.0809  2.2366 -0.5530
29909SOL     OW 7336   7.978   6.674   0.327 -0.7302  0.2994  0.4715
29909SOL    HW1 7337   8.022   6.674   0.412  0.0145 -2.4230  0.1630
29909SOL    HW2 7338   8.001   6.759   0.289  0.7781  0.6666  2.0457
29910SOL     OW 7339   3.969   8.106   0.065  0.1764  0.3583  0.3956
29910SOL    HW1 7340   3.905   8.034   0.059 -1.6831  1.8209  1.8044
29910SOL    HW2 7341   4.038   8.072   0.123 -0.8364 -0.1849  1.3110
29911SOL     OW 7342   9.934   7.691   7.088 -0.0646 -0.0432  0.2402
29911SOL    HW1 7343   9.868   7.714   7.023  0.5618 -0.7005 -0.6357
29911SOL    HW2 7344   9.897   7.721   7.171 -1.5577 -0.5903 -0.2052
29912SOL     OW 7345   2.598   4.394   3.623  0.8247  0.6874  0.1444
29912SOL    HW1 7346   2.580   4.343   3.544 -1.5015 -0.9329  1.5945
29912SOL    HW2 7347   2.677   4.355   3.659  0.1032 -0.7283  0.2550
29913SOL     OW 7348   5.676  11.146   2.235  0.3644  0.2559  0.0095
29913SOL    HW1 7349   5.620  11.223   2.233 -1.3334 -0.9261 -0.9891
29913SOL    HW2 7350   5.751  11.168   2.179 -1.2492  0.3967 -2.1915
29914SOL     OW 7351  12.747   1.722   1.284  0.6754  0.0522 -0.2983
29914SOL    HW1 7352  12.666   1.688   1.322 -0.3740  1.9783 -0.6863
29914SOL    HW2 7353  12.718   1.783   1.216  2.4893 -1.7683 -2.8943
29915SOL     OW 7354   6.759   5.222   2.213 -0.2199  0.9025  0.1817
29915SOL    HW1 7355   6.745   5.216   2.308 -0.5400 -1.1939  0.0556
29915SOL    HW2 7356   6.677   5.193   2.175  0.0851  1.2208 -0.7393
29916SOL     OW 7357   4.588   5.066   5.718  0.0999  0.0421  0.4033
29916SOL    HW1 7358   4.593   5.045   5.625 -0.8257 -0.9476  0.5601
29916SOL    HW2 7359   4.545   5.152   5.721  0.3324  0.1809 -0.0837
29917SOL     OW 7360   5.170  10.405   4.935 -0.3314  0.3773 -0.2487
29917SOL    HW1 7361   5.160  10.369   4.847 -2.6591 -0.1422  0.1496
29917SOL    HW2 7362   5.094  10.462   4.946 -0.6036 -0.2931  1.7283
29918SOL     OW 7363  13.742   5.066   9.936  0.3930  0.1704  0.2409
29918SOL    HW1 7364  13.671   5.115   9.977  1.8789  1.7296  1.1182
29918SOL    HW2 7365  13.751   4.988   9.990 -0.2108  0.3001  0.5382
29919SOL     OW 7366   1.435   0.809   1.988  0.0569 -0.3549  0.2252
29919SOL    HW1 7367   1.522   0.782   1.957  0.3781 -3.7751  3.4244
29919SOL    HW2 7368   1.452   0.865   2.063 -0.6390  1.2482 -0.7499
29920SOL     OW 7369   2.812   3.204   3.482  0.0702 -0.2260  1.0623
29920SOL    HW1 7370   2.881   3.252   3.527 -0.9522 -0.4267  2.9422
29920SOL    HW2 7371   2.836   3.209   3.389  2.3941 -0.0028  1.6077
29921SOL     OW 7372   5.029  10.349   1.871 -0.0860 -0.2207 -0.0001
29921SOL    HW1 7373   4.964  10.393   1.925 -1.5828 -0.8039 -1.2645
29921SOL    HW2 7374   4.993  10.351   1.783  0.3179 -2.9345 -0.3030
29922SOL     OW 7375   0.031   0.502  13.133  0.3090  0.2611 -0.3490
29922SOL    HW1 7376   0.001   0.453  13.209  0.2523  1.6735  0.5872
29922SOL    HW2 7377   0.107   0.454  13.102 -1.8555 -2.4741 -1.7824
29923SOL     OW 7378   8.560   1.237   9.164 -0.0358 -0.1614  0.2801
29923SOL    HW1 7379   8.577   1.309   9.104 -0.2212 -1.0246 -0.8498
29923SOL    HW2 7380   8.565   1.159   9.109 -0.6798 -0.9483  1.3017
29924SOL     OW 7381  12.817   8.673   9.154 -0.6759  0.1985 -0.7032
29924SOL    HW1 7382  12.772   8.622   9.086 -0.4838 -0.8812 -0.0427
29924SOL    HW2 7383  12.779   8.760   9.147 -0.9660 -0.0014 -1.9145
29925SOL     OW 7384  12.288  12.861   6.788  0.1136 -0.3148  0.5530
29925SOL    HW1 7385  12.304  12.907   6.870  2.7022 -1.2778  0.6663
29925SOL    HW2 7386  12.328  12.775   6.800 -0.2599 -0.8149 -1.3950
29926SOL     OW 7387   5.622   3.028  11.290  0.3106  0.0352  0.2766
29926SOL    HW1 7388   5.621   3.053  11.382  0.0907 -1.7960  0.8093
29926SOL    HW2 7389   5.536   2.987  11.276  0.8249 -0.8346 -0.3954
29927SOL     OW 7390   2.558   2.031  10.347 -0.1173  0.2054  0.3005
29927SOL    HW1 7391   2.470   2.040  10.311 -0.2136  0.4851  0.6014
29927SOL    HW2 7392   2.582   2.119  10.376 -0.2136 -0.0740  1.2947
29928SOL     OW 7393   0.301   9.626   1.903 -0.1013  0.0513  0.2890
29928SOL    HW1 7394   0.238   9.626   1.832  0.1509 -1.0384  0.0357
29928SOL    HW2 7395   0.371   9.568   1.873 -0.0051 -0.4669  1.4354
29929SOL     OW 7396  10.034   7.543   0.302  0.5569  0.3674 -0.4749
29929SOL    HW1 7397  10.123   7.556   0.334  0.8362 -3.4056  0.8561
29929SOL    HW2 7398   9.980   7.546   0.381 -0.0540 -0.0908 -0.8633
29930SOL     OW 7399   2.057   6.326   9.588 -0.1308 -0.4269 -0.1902
29930SOL    HW1 7400   2.026   6.403   9.542  0.6407  0.7357  1.1671
29930SOL    HW2 7401   1.989   6.260   9.573 -1.8536  1.1515  0.3427
29931SOL     OW 7402  10.982   5.731   4.886 -0.0109 -0.0093  0.3982
29931SOL    HW1 7403  10.999   5.642   4.855 -1.4000 -0.2775  0.3113
29931SOL    HW2 7404  10.947   5.776   4.810  1.7803  0.9807  0.1264
29932SOL     OW 7405  11.018   0.373  13.330 -0.2998 -0.4732 -0.6500
29932SOL    HW1 7406  10.936   0.410  13.363 -0.0027 -0.5571  0.2189
29932SOL    HW2 7407  11.082   0.393  13.399 -0.0310 -2.2401 -0.3336
29933SOL     OW 7408   4.267  11.671  11.740 -0.3099 -0.3398 -0.3062
29933SOL    HW1 7409   4.312  11.708  11.816  1.5971  0.1286 -1.6244
29933SOL    HW2 7410   4.314  11.704  11.664 -1.4872 -1.6750 -1.7005
29934SOL     OW 7411   7.146  12.235  11.063 -0.0924  0.1462 -0.3245
29934SOL    HW1 7412   7.231  12.277  11.047 -0.0812  0.2353 -0.0344
29934SOL    HW2 7413   7.167  12.143  11.080 -0.1509 -0.0712 -1.3659
29935SOL     OW 7414   7.007  12.794   2.051 -0.4021  0.1243  0.0218
29935SOL    HW1 7415   6.992  12.885   2.024 -2.1424 -0.0699  0.2105
29935SOL    HW2 7416   6.922  12.751   2.038  0.1309 -1.2407  0.8520
29936SOL     OW 7417  10.605   2.399   5.029 -0.2194 -0.2865  0.7480
29936SOL    HW1 7418  10.588   2.449   4.949  0.2491 -0.2260  0.6870
29936SOL    HW2 7419  10.521   2.358   5.050 -0.7105  0.8091  0.9970
29937SOL     OW 7420   0.257   0.119  13.135 -0.1684  0.1341  0.3150
29937SOL    HW1 7421   0.293   0.037  13.101 -2.1827 -0.0632 -1.6111
29937SOL    HW2 7422   0.273   0.116  13.229  1.2100 -1.7153  0.0799
29938SOL     OW 7423   4.421  10.068   5.381  0.0135  0.3425  0.1282
29938SOL    HW1 7424   4.362  10.131   5.342  1.3050  0.8902 -1.0199
29938SOL    HW2 7425   4.449  10.108   5.463  0.5033  1.1130 -0.3976
29939SOL     OW 7426  11.916  11.264  10.875 -0.3283  0.3620  0.0341
29939SOL    HW1 7427  11.843  11.220  10.832 -0.7820  0.5048  0.6363
29939SOL    HW2 7428  11.993  11.210  10.855 -0.7825 -0.3931  0.2884
29940SOL     OW 7429   8.489  10.906   3.141  0.0091  0.4230 -0.4983
29940SOL    HW1 7430   8.460  10.909   3.232  1.2868  0.5320 -0.0765
29940SOL    HW2 7431   8.427  10.848   3.098  1.0784 -2.0839  1.1024
29941SOL     OW 7432   5.290   7.005   0.280 -0.1676  0.3120 -0.0278
29941SOL    HW1 7433   5.282   7.100   0.276  1.1822  0.5602  1.7430
29941SOL    HW2 7434   5.246   6.979   0.360  0.2736 -0.4360 -0.0064
29942SOL     OW 7435   4.784   9.568   3.903 -0.1868  0.4488  0.3592
29942SOL    HW1 7436   4.824   9.651   3.929 -2.2694  1.3576  0.8868
29942SOL    HW2 7437   4.772   9.520   3.985  0.1889 -0.0025  0.1571
29943SOL     OW 7438   7.108   4.605   9.150 -0.2082  0.1006  0.0026
29943SOL    HW1 7439   7.132   4.514   9.168 -0.7630 -0.2992 -1.1254
29943SOL    HW2 7440   7.192   4.651   9.143  0.0933 -0.4125  0.1562
29944SOL     OW 7441  13.886   2.289   6.062 -0.0601  0.0296  0.4246
29944SOL    HW1 7442  13.924   2.347   5.996  0.4456  0.4498  1.0677
29944SOL    HW2 7443  13.927   2.203   6.044 -0.8348 -0.1514 -0.5450
29945SOL     OW 7444  13.358  10.300   5.389  0.2291  0.0125  0.1543
29945SOL    HW1 7445  13.319  10.213   5.381  0.5187 -0.2548  1.3408
29945SOL    HW2 7446  13.415  10.293   5.466  1.7207  0.7165 -0.8438
29946SOL     OW 7447   9.157   6.629   8.007 -0.1149  0.2822  0.5342
29946SOL    HW1 7448   9.104   6.550   8.012  0.2989 -0.1393 -1.2009
29946SOL    HW2 7449   9.173   6.653   8.098 -2.7005  0.0584  1.1335
29947SOL     OW 7450   6.687  14.071   9.806  0.7723  0.1826 -0.0547
29947SOL    HW1 7451   6.642  14.119   9.876  0.9686 -0.1138  0.2774
29947SOL    HW2 7452   6.644  13.986   9.805 -0.3152  0.7134 -1.3691
29948SOL     OW 7453  12.289  12.625   5.307 -0.2425 -0.1933 -0.1240
29948SOL    HW1 7454  12.350  12.684   5.350  0.0574 -1.7098  1.6697
29948SOL    HW2 7455  12.289  12.652   5.215  1.1986  1.4256  0.3133
29949SOL     OW 7456   8.841   4.428   4.153 -0.2572  0.2595 -0.5396
29949SOL    HW1 7457   8.888   4.354   4.191 -1.0097 -0.9752 -1.9307
29949SOL    HW2 7458   8.749   4.409   4.170 -0.5056  0.4609 -1.6284
29950SOL     OW 7459  10.467   8.463   0.586  0.1807  0.5877 -0.0701
29950SOL    HW1 7460  10.460   8.415   0.503 -1.6909  0.0847  0.3242
29950SOL    HW2 7461  10.553   8.505   0.583  0.0966  0.6914 -2.3206
29951SOL     OW 7462   4.004   6.782  12.049  0.3896 -0.9515  0.5558
29951SOL    HW1 7463   4.017   6.876  12.065 -3.0530 -0.5186  1.6652
29951SOL    HW2 7464   4.066   6.761  11.980  2.3825  1.7464  1.3295
29952SOL     OW 7465  10.494   8.317  12.587  0.2325  0.1024  0.4934
29952SOL    HW1 7466  10.452   8.236  12.559  1.3060 -0.3439  0.1173
29952SOL    HW2 7467  10.452   8.386  12.535  1.0028 -0.5124 -1.0070
29953SOL     OW 7468   2.931   3.933   1.563  0.2972 -0.1419  0.3840
29953SOL    HW1 7469   2.884   4.004   1.520  1.5388  0.1034 -0.6316
29953SOL    HW2 7470   3.008   3.975   1.601 -0.2234 -0.5457  1.9451
29954SOL     OW 7471   9.060  12.968  11.306 -0.4492  0.3429 -0.3785
29954SOL    HW1 7472   8.998  12.912  11.354  1.3238 -0.4003  1.1478
29954SOL    HW2 7473   9.086  13.035  11.370 -0.7307  1.5306 -1.4574
29955SOL     OW 7474   3.245   5.907  10.707  0.2696  0.3055  0.0295
29955SOL    HW1 7475   3.248   5.857  10.626  0.9543 -1.0848  0.8738
29955SOL    HW2 7476   3.162   5.954  10.704  0.2347  0.1865 -1.4100
29956SOL     OW 7477   6.077   0.299   2.808  0.3522  0.5937 -0.5626
29956SOL    HW1 7478   6.008   0.347   2.763  1.2899  1.2349 -1.3474
29956SOL    HW2 7479   6.158   0.324   2.763  1.1260  0.0061  0.4520
29957SOL     OW 7480  13.990   9.831   6.280  0.0406  0.1868 -0.5039
29957SOL    HW1 7481  13.975   9.766   6.212  0.4751 -1.3865  0.8323
29957SOL    HW2 7482  13.916   9.891   6.273 -0.8002 -0.9001 -1.2761
29958SOL     OW 7483  12.735   5.991  11.534  0.6020 -0.3188 -0.3944
29958SOL    HW1 7484  12.689   6.003  11.451  2.4822 -3.6032 -2.1323
29958SOL    HW2 7485  12.808   6.052  11.530  0.3472 -0.0399 -0.8749
29959SOL     OW 7486   3.020   2.244   9.265 -0.7655 -0.2019  0.2656
29959SOL    HW1 7487   3.002   2.297   9.343 -1.0453 -1.2384  0.9272
29959SOL    HW2 7488   3.067   2.167   9.298  0.5799  0.1153 -0.8073
29960SOL     OW 7489   3.185   5.487  11.106  0.0613 -0.1844  0.3342
29960SOL    HW1 7490   3.157   5.470  11.016 -1.4247  1.8545  0.3361
29960SOL    HW2 7491   3.265   5.539  11.096 -0.9621  1.4205  0.0935
29961SOL     OW 7492   0.793   0.596   2.281 -0.1818  0.8717 -0.0155
29961SOL    HW1 7493   0.878   0.591   2.237 -0.4438 -0.4356 -0.4034
29961SOL    HW2 7494   0.752   0.674   2.244  0.6792  1.2962 -0.1145
29962SOL     OW 7495   8.582   3.215   2.977 -0.1550 -0.4119  0.1681
29962SOL    HW1 7496   8.529   3.232   3.055 -1.2641 -0.1136 -0.6217
29962SOL    HW2 7497   8.517   3.197   2.908  0.5455  3.3748 -1.7228
29963SOL     OW 7498  12.710   2.862   4.100  0.0193  0.4091 -0.0573
29963SOL    HW1 7499  12.786   2.824   4.143 -1.3576 -1.6296  0.7678
29963SOL    HW2 7500  12.641   2.859   4.167 -1.0680  1.1157 -1.1110
29964SOL     OW 7501   1.396  10.988   4.166  0.1195 -0.1110 -0.0696
29964SOL    HW1 7502   1.437  11.003   4.251  3.4223 -0.9157 -1.3780
29964SOL    HW2 7503   1.379  10.893   4.164 -0.3487 -0.0265 -0.1520
29965SOL     OW 7504   9.181   6.167  13.295  0.1884  0.1541 -0.0315
29965SOL    HW1 7505   9.200   6.256  13.324 -2.1760  0.6513  0.1820
29965SOL    HW2 7506   9.149   6.178  13.205  1.0391 -0.6318 -0.4418
29966SOL     OW 7507   8.115   2.584  11.293  0.3058 -0.2026  0.1909
29966SOL    HW1 7508   8.178   2.522  11.256  0.1189 -0.8761  0.9583
29966SOL    HW2 7509   8.050   2.528  11.337 -0.6709  0.4910 -0.3350
29967SOL     OW 7510   2.478  12.321   5.081 -0.6131 -0.0495 -0.4859
29967SOL    HW1 7511   2.538  12.285   5.016  0.1474  0.9599 -0.3763
29967SOL    HW2 7512   2.534  12.339   5.157 -1.2237  0.0982 -0.0684
29968SOL     OW 7513   0.489   6.464   1.143  0.4688 -0.1629  0.1111
29968SOL    HW1 7514   0.395   6.461   1.123  0.4496 -1.8575  0.3625
29968SOL    HW2 7515   0.496   6.536   1.206 -0.3681  1.1566 -1.2181
29969SOL     OW 7516  12.954   4.306   3.993  0.1567 -0.4520 -0.5773
29969SOL    HW1 7517  12.872   4.341   4.027  1.7672  0.9252  2.3732
29969SOL    HW2 7518  12.945   4.211   3.999 -2.0108 -0.4764 -2.6759
29970SOL     OW 7519   6.718   2.489   7.718 -0.0430  0.0530  0.8369
29970SOL    HW1 7520   6.669   2.571   7.705  1.6778  0.9305 -0.5936
29970SOL    HW2 7521   6.806   2.518   7.743  0.3259 -1.4085  1.2939
29971SOL     OW 7522  12.082   3.052   0.748 -0.3395 -0.1176  0.6329
29971SOL    HW1 7523  12.156   2.998   0.778  1.3904  0.7883 -1.6783
29971SOL    HW2 7524  12.006   2.996   0.758  0.7908 -1.4905  2.1181
29972SOL     OW 7525   9.961   7.507   7.917 -0.4405 -0.3435 -0.4638
29972SOL    HW1 7526   9.881   7.557   7.897 -0.3339 -0.3036 -0.8006
29972SOL    HW2 7527   9.954   7.488   8.010 -0.3832  0.4902 -0.2757
29973SOL     OW 7528   1.660   5.659   9.759 -0.1158  0.5003  0.1290
29973SOL    HW1 7529   1.697   5.741   9.727  0.9615  0.3071  0.8465
29973SOL    HW2 7530   1.644   5.674   9.852  0.2531 -0.1458  0.3059
29974SOL     OW 7531   6.897   9.163   9.335 -0.2659 -0.0694 -0.2324
29974SOL    HW1 7532   6.945   9.226   9.389  1.3565 -1.4902  0.0893
29974SOL    HW2 7533   6.898   9.082   9.386 -2.0833 -0.4519 -0.7315
29975SOL     OW 7534   4.062   0.867  13.326 -0.3239  0.8572  0.5839
29975SOL    HW1 7535   4.136   0.901  13.376 -0.4234  0.2631  1.1322
29975SOL    HW2 7536   3.987   0.877  13.384 -0.2965 -0.6707  0.9245
29976SOL     OW 7537   6.266  12.212  10.002  0.1541  0.0383  0.0464
29976SOL    HW1 7538   6.337  12.175  10.054 -0.5008 -1.0334  0.2100
29976SOL    HW2 7539   6.279  12.175   9.915 -0.2175 -0.1928  0.0866
29977SOL     OW 7540  10.852  11.834   6.145 -0.0258 -0.1500  0.1808
29977SOL    HW1 7541  10.928  11.893   6.144 -0.3533  0.3240  1.4975
29977SOL    HW2 7542  10.855  11.793   6.231 -1.0125 -0.4635  0.0773
29978SOL     OW 7543   5.716   0.375  13.204  0.2609 -0.0986  0.2790
29978SOL    HW1 7544   5.644   0.313  13.211  0.6882 -0.4444  2.0102
29978SOL    HW2 7545   5.676   0.461  13.214 -0.0753 -0.2015 -0.1562
29979SOL     OW 7546  11.935   2.504   3.111 -0.1443  0.6684 -0.9722
29979SOL    HW1 7547  11.948   2.427   3.056 -1.7060  0.1627 -0.6757
29979SOL    HW2 7548  11.874   2.475   3.179 -0.4819  2.0621 -0.6515
29980SOL     OW 7549   5.462  10.058   3.555  0.1548 -0.1644 -0.3697
29980SOL    HW1 7550   5.412   9.987   3.514 -0.3559 -0.6373  0.9753
29980SOL    HW2 7551   5.481  10.025   3.643 -0.0947  1.3770  0.2916
29981SOL     OW 7552   0.735  10.959   0.289 -0.0851 -0.2721 -0.0760
29981SOL    HW1 7553   0.730  10.886   0.351  1.2367  0.5792  1.1200
29981SOL    HW2 7554   0.697  11.033   0.337  0.1432  0.2025 -0.6221
29982SOL     OW 7555   9.034   1.486   2.925 -0.3468 -0.3063  0.0099
29982SOL    HW1 7556   9.030   1.434   3.006 -1.9605  0.2231  0.3044
29982SOL    HW2 7557   9.107   1.447   2.876  0.3195 -1.0029  1.4584
29983SOL     OW 7558   3.421   3.623  10.134  0.6959 -0.0167  0.1343
29983SOL    HW1 7559   3.354   3.565  10.097  0.2664  0.6570 -0.1573
29983SOL    HW2 7560   3.480   3.564  10.181 -0.0114 -0.6359  0.2651
29984SOL     OW 7561  10.211   9.477   6.223  0.2760  0.3572  0.3172
29984SOL    HW1 7562  10.261   9.546   6.267 -0.2113  1.8358 -1.3278
29984SOL    HW2 7563  10.138   9.523   6.183 -0.3385 -1.2143 -0.4461
29985SOL     OW 7564   4.405  10.273  11.491  0.1080 -0.0398 -0.1202
29985SOL    HW1 7565   4.497  10.298  11.489  0.1499 -0.1394  0.4542
29985SOL    HW2 7566   4.397  10.203  11.426  0.3175  0.3517 -0.5766
29986SOL     OW 7567   0.209   7.175  10.074  0.5746  0.2652  0.2103
29986SOL    HW1 7568   0.281   7.113  10.088 -0.5525 -0.8938  1.1040
29986SOL    HW2 7569   0.203   7.184   9.979  0.6795 -1.1196  0.0530
29987SOL     OW 7570   1.994   1.935   8.522  0.2433 -0.1313  0.1230
29987SOL    HW1 7571   2.067   1.932   8.583 -0.9172  0.8542  1.6535
29987SOL    HW2 7572   1.917   1.913   8.575 -1.0029  2.1129 -0.5809
29988SOL     OW 7573   1.094   9.318   5.346 -0.0306 -0.3717 -0.0129
29988SOL    HW1 7574   1.040   9.349   5.274 -2.5335 -1.4321  1.2872
29988SOL    HW2 7575   1.103   9.393   5.404 -1.2779 -0.4962  0.3790
29989SOL     OW 7576   3.224  12.123   5.489  0.7657  0.3347 -0.3720
29989SOL    HW1 7577   3.312  12.090   5.504  0.3662 -1.2701 -1.2995
29989SOL    HW2 7578   3.171  12.044   5.475 -0.6241  1.3088 -0.8053
29990SOL     OW 7579  12.395   9.633   4.325  0.0500 -0.0862  0.4422
29990SOL    HW1 7580  12.436   9.716   4.348  1.7869 -1.0841  1.2000
29990SOL    HW2 7581  12.454   9.566   4.361 -1.5092 -1.6539  0.2733
29991SOL     OW 7582   7.930  12.651   6.687  0.2823  0.0598 -0.0305
29991SOL    HW1 7583   7.950  12.588   6.756 -0.8179 -0.7044 -0.3927
29991SOL    HW2 7584   7.953  12.606   6.606 -0.8536 -0.0370 -0.3146
29992SOL     OW 7585  12.640   6.924  10.558 -0.4413 -0.9952  0.1502
29992SOL    HW1 7586  12.586   6.849  10.530 -1.4950 -0.4742  0.7495
29992SOL    HW2 7587  12.602   6.999  10.513 -0.5374 -0.5378  0.9829
29993SOL     OW 7588  13.167   2.548   2.962  0.4442  0.1657  0.5054
29993SOL    HW1 7589  13.198   2.573   3.050  1.0122 -0.7492  0.5782
29993SOL    HW2 7590  13.131   2.460   2.973  1.8340 -0.5647 -0.4314
29994SOL     OW 7591   3.900   6.707  10.783 -0.3158 -0.0828  0.4878
29994SOL    HW1 7592   3.953   6.782  10.812  0.0169 -0.4727  0.9126
29994SOL    HW2 7593   3.881   6.725  10.691 -0.8104  0.8565  0.7600
29995SOL     OW 7594  14.073  12.527   8.914 -0.7582  0.5310 -0.0011
29995SOL    HW1 7595  14.117  12.583   8.977  0.1912  0.1976 -0.3595
29995SOL    HW2 7596  14.067  12.580   8.834  1.5566 -0.3543 -0.8489
29996SOL     OW 7597  12.902   0.368  10.973  0.2150  0.4737  0.0678
29996SOL    HW1 7598  12.937   0.435  11.031  1.0371  0.1566 -0.0528
29996SOL    HW2 7599  12.838   0.321  11.027  0.4518  0.6393  0.4962
29997SOL     OW 7600   7.218  10.948  11.957  0.3732 -0.5883 -0.0155
29997SOL    HW1 7601   7.188  10.889  12.026 -2.0735 -0.4147 -0.8157
29997SOL    HW2 7602   7.226  10.892  11.879  1.5774 -0.4918  0.0171
29998SOL     OW 7603  13.287  11.188   2.327  0.6416  0.0240 -0.0474
29998SOL    HW1 7604  13.277  11.214   2.236  1.7325 -1.7181 -0.7074
29998SOL    HW2 7605  13.374  11.220   2.352  1.1621 -1.1528 -0.2598
29999SOL     OW 7606   3.759   2.749   5.414  0.0555 -0.5960  0.8252
29999SOL    HW1 7607   3.835   2.805   5.427 -0.9974  0.9379  0.6977
29999SOL    HW2 7608   3.701   2.800   5.357 -1.7728 -0.9810  2.2387
30000SOL     OW 7609  11.873   2.970  11.968  0.3617 -0.5054 -0.2841
30000SOL    HW1 7610  11.890   2.947  12.060 -1.5414 -2.9384 -0.4294
30000SOL    HW2 7611  11.921   2.904  11.917 -0.3925 -0.5642 -0.9409
30001SOL     OW 7612  13.007   1.955   4.399  0.4144  0.0358  0.0076
30001SOL    HW1 7613  13.071   1.904   4.349  0.7101  2.3138 -2.1676
30001SOL    HW2 7614  13.055   2.034   4.425 -1.0150  0.9825 -0.1123
30002SOL     OW 7615  12.301   3.353  11.274 -0.2152  0.0092 -0.1798
30002SOL    HW1 7616  12.271   3.295  11.344  0.8702  0.6961  0.8817
30002SOL    HW2 7617  12.370   3.304  11.230 -1.9764 -1.0910 -1.8732
30003SOL     OW 7618   3.763   5.365   0.353  0.1214  0.3020  0.8014
30003SOL    HW1 7619   3.719   5.441   0.317 -0.2738 -0.6504 -0.8162
30003SOL    HW2 7620   3.836   5.401   0.403  1.5537  1.7242 -2.0604
30004SOL     OW 7621   7.360   1.998  11.336 -0.0755  0.1231 -0.1706
30004SOL    HW1 7622   7.399   1.916  11.306  1.9858  1.7731 -2.3898
30004SOL    HW2 7623   7.411   2.021  11.414 -0.9228 -0.8265  0.6985
30005SOL     OW 7624   2.468   9.195   7.543 -0.1281 -0.2047  0.5574
30005SOL    HW1 7625   2.386   9.163   7.581  0.2276 -0.0246  1.5200
30005SOL    HW2 7626   2.446   9.219   7.453 -1.3094  0.5414  1.0236
30006SOL     OW 7627   5.996   5.095   3.052  0.6330  0.0695 -0.3199
30006SOL    HW1 7628   6.016   5.149   2.976 -1.0855  0.7949 -0.2929
30006SOL    HW2 7629   5.975   5.157   3.121  2.9852 -0.5427  1.0710
30007SOL     OW 7630  11.291   6.565   4.173  0.5637 -0.3538  0.2220
30007SOL    HW1 7631  11.361   6.627   4.152 -0.7557  0.9785 -0.3969
30007SOL    HW2 7632  11.302   6.495   4.108  1.4942 -0.3153  0.3241
30008SOL     OW 7633   3.807  13.982   5.293  0.6503 -0.3335  0.2322
30008SOL    HW1 7634   3.768  14.011   5.211  0.2339 -2.4117 -0.3727
30008SOL    HW2 7635   3.896  13.957   5.270  0.3344 -1.5476  0.2117
30009SOL     OW 7636   7.861   5.032  12.207  0.2231  0.6246  0.5482
30009SOL    HW1 7637   7.788   5.046  12.146  0.9635  2.0444 -0.0341
30009SOL    HW2 7638   7.863   5.111  12.260 -0.5078 -0.6507  2.5858
30010SOL     OW 7639  13.444   2.283  12.674 -0.3406  0.0129  0.3166
30010SOL    HW1 7640  13.394   2.364  12.668  0.8022  0.6284 -1.8465
30010SOL    HW2 7641  13.534   2.312  12.687 -0.2298 -1.0168  2.0734
30011SOL     OW 7642  10.476   9.295   1.882  0.1898 -0.6076  0.0145
30011SOL    HW1 7643  10.464   9.331   1.794  2.1903  1.8141  0.6308
30011SOL    HW2 7644  10.400   9.328   1.932  0.7594  0.8334 -0.0335
30012SOL     OW 7645   0.035   4.794   1.272  0.0992 -0.0962 -0.0561
30012SOL    HW1 7646   0.020   4.721   1.333 -0.4029 -1.2678 -1.5378
30012SOL    HW2 7647  -0.050   4.836   1.264  0.5577  1.2244  1.4292
30013SOL     OW 7648  10.282   1.302   1.584 -0.9784  0.1012  0.2765
30013SOL    HW1 7649  10.272   1.266   1.496  0.2430  1.5299 -0.4864
30013SOL    HW2 7650  10.331   1.234   1.632 -1.1331 -0.4291 -0.3061
30014SOL     OW 7651  13.208  11.849   9.067 -1.0194 -0.0655 -0.0720
30014SOL    HW1 7652  13.190  11.760   9.097 -2.1778  0.5116  1.0210
30014SOL    HW2 7653  13.300  11.847   9.042 -1.2855 -1.8277 -1.0482
30015SOL     OW 7654  13.624   7.200  14.029 -0.4688 -0.6772  0.0762
30015SOL    HW1 7655  13.536   7.236  14.036  0.1838  1.1371 -0.6109
30015SOL    HW2 7656  13.643   7.167  14.116 -1.5863 -0.5372  0.3917
30016SOL     OW 7657   9.102   4.796  10.857 -0.2835 -0.2835  0.0560
30016SOL    HW1 7658   9.022   4.846  10.870 -1.1572 -1.7884  0.7684
30016SOL    HW2 7659   9.157   4.820  10.932 -0.9483 -0.8143  0.7415
30017SOL     OW 7660  12.404   5.050   2.207  0.0901 -0.2971  0.0994
30017SOL    HW1 7661  12.393   4.958   2.229  0.4823 -0.3117  0.2369
30017SOL    HW2 7662  12.319   5.076   2.170  0.4653 -1.1121 -1.4182
30018SOL     OW 7663  10.040   2.412   8.006  0.2449 -0.6462 -0.3771
30018SOL    HW1 7664  10.130   2.443   8.014  1.3706 -3.7477  0.6619
30018SOL    HW2 7665  10.008   2.410   8.096 -1.8022  2.5405 -0.8859
30019SOL     OW 7666  10.648  11.834  12.108 -0.1667 -0.6192 -0.0086
30019SOL    HW1 7667  10.629  11.742  12.125  0.2692 -0.8036 -0.5029
30019SOL    HW2 7668  10.595  11.856  12.031  1.1444 -0.9786 -1.0386
30020SOL     OW 7669   2.755   8.872  10.874 -0.3655 -0.4526  0.1871
30020SOL    HW1 7670   2.711   8.956  10.865 -1.5592 -0.9847  0.8020
30020SOL    HW2 7671   2.844   8.895  10.901 -0.7550  0.6080  0.6412
30021SOL     OW 7672  10.012   2.678   7.655  0.1792  0.1456  0.5116
30021SOL    HW1 7673   9.969   2.761   7.676 -1.7128 -0.1507 -1.7182
30021SOL    HW2 7674   9.961   2.612   7.702 -1.2004 -0.0897 -1.1903
30022SOL     OW 7675  10.579   6.338   0.818 -0.1300 -0.2456 -0.8528
30022SOL    HW1 7676  10.529   6.344   0.737  0.9426 -0.6664 -1.5615
30022SOL    HW2 7677  10.598   6.245   0.829  0.1096 -0.1431 -0.3525
30023SOL     OW 7678   7.283  12.069   5.499 -0.2149  0.1278  0.3913
30023SOL    HW1 7679   7.287  11.985   5.453 -1.1148 -0.6015  1.5949
30023SOL    HW2 7680   7.238  12.127   5.438 -1.0529 -0.7141  0.1771
30024SOL     OW 7681  12.551   1.548   4.206 -0.3094  0.1696 -0.2450
30024SOL    HW1 7682  12.527   1.619   4.265 -3.5142 -0.8759 -0.1195
30024SOL    HW2 7683  12.549   1.587   4.119 -2.6329  0.1816 -0.2300
30025SOL     OW 7684   0.457  11.767  11.648  0.4881  0.3904  0.7983
30025SOL    HW1 7685   0.544  11.753  11.685  0.0236  0.8543  2.1106
30025SOL    HW2 7686   0.430  11.680  11.616  1.6178  0.3455 -0.0881
30026SOL     OW 7687  12.898   0.613  13.662 -0.0565 -0.2894  0.4936
30026SOL    HW1 7688  12.865   0.642  13.747 -2.0846 -1.9115  0.3211
30026SOL    HW2 7689  12.822   0.578  13.616  1.1765 -0.4135 -1.6131
30027SOL     OW 7690   2.953   5.228  13.450 -0.5911  0.1153  0.0726
30027SOL    HW1 7691   2.941   5.314  13.490  2.4199 -1.0246  4.1018
30027SOL    HW2 7692   3.021   5.242  13.384  0.5452  0.7702  1.3283
30028SOL     OW 7693   1.975  10.795   6.279  0.2859 -0.0543  0.4704
30028SOL    HW1 7694   1.890  10.815   6.241  0.8582  0.9259 -0.3617
30028SOL    HW2 7695   2.031  10.772   6.205  0.8696 -0.2397  0.9498
30029SOL     OW 7696   7.477   2.060  13.053 -0.1409  0.0113 -0.2145
30029SOL    HW1 7697   7.441   1.977  13.022  0.2283  0.2047 -1.1973
30029SOL    HW2 7698   7.413   2.125  13.027 -0.0474  0.1210 -0.1705
30030SOL     OW 7699  13.001   9.189   9.199  0.1292 -0.0187 -0.2806
30030SOL    HW1 7700  12.927   9.219   9.253 -1.5030 -0.4903 -2.1206
30030SOL    HW2 7701  13.052   9.268   9.182 -0.2025  0.4098  0.6550
30031SOL     OW 7702   8.455  13.935   6.580  0.2888  0.0886 -0.4621
30031SOL    HW1 7703   8.371  13.973   6.553 -0.0806  0.7130  1.3799
30031SOL    HW2 7704   8.450  13.934   6.676  2.7409  0.9720 -0.2633
30032SOL     OW 7705   6.898   6.298   5.610  0.4931 -0.0503 -0.4706
30032SOL    HW1 7706   6.817   6.318   5.564  0.5221  1.2243 -0.0023
30032SOL    HW2 7707   6.951   6.249   5.546 -0.6761 -1.0072 -0.7320
30033SOL     OW 7708  11.701   5.730  12.570  0.4504  0.1362 -0.1106
30033SOL    HW1 7709  11.725   5.780  12.493  0.5145  0.6663  0.2462
30033SOL    HW2 7710  11.691   5.640  12.539  2.3287 -0.0235 -0.3875
30034SOL     OW 7711   6.725   7.934   4.430  0.8440 -0.0999  0.1552
30034SOL    HW1 7712   6.651   7.979   4.470  0.5064 -1.8920  1.6654
30034SOL    HW2 7713   6.792   8.003   4.420 -1.2420  1.7958 -2.1907
30035SOL     OW 7714   3.616   3.441   7.291  0.5349  0.0052 -0.4087
30035SOL    HW1 7715   3.633   3.396   7.208 -1.3294  0.2606 -0.9781
30035SOL    HW2 7716   3.558   3.513   7.268 -1.0892 -0.6873  1.2657
30036SOL     OW 7717   7.687   4.360   5.464 -0.0578  0.1557 -0.5968
30036SOL    HW1 7718   7.707   4.346   5.372  1.1786  0.4380 -0.3949
30036SOL    HW2 7719   7.762   4.323   5.511 -0.1232  1.0272  0.2392
30037SOL     OW 7720  13.237   9.803  10.522 -0.1459 -0.1605  0.5166
30037SOL    HW1 7721  13.222   9.877  10.580  0.2953  0.3998 -0.0640
30037SOL    HW2 7722  13.183   9.822  10.444  2.4433  1.2444 -1.0528
30038SOL     OW 7723   2.048   8.147  10.947 -0.1387  0.1028  0.3855
30038SOL    HW1 7724   2.095   8.164  11.029  1.1887 -1.1542 -0.0629
30038SOL    HW2 7725   1.990   8.074  10.967 -2.4735  2.0302  1.1002
30039SOL     OW 7726  13.901   2.764   1.085 -0.4203  0.1307  0.6830
30039SOL    HW1 7727  13.908   2.682   1.134 -1.4946  1.1868  2.7258
30039SOL    HW2 7728  13.987   2.804   1.094  0.2691 -0.9343 -0.7391
30040SOL     OW 7729   8.468   9.091   7.241 -0.1030 -0.7922 -0.1259
30040SOL    HW1 7730   8.404   9.020   7.252 -0.9866  0.1722  1.1730
30040SOL    HW2 7731   8.549   9.056   7.280 -0.8064 -0.7346  1.4483
30041SOL     OW 7732  11.460   0.408   6.532 -0.2836  0.6478  0.0194
30041SOL    HW1 7733  11.544   0.444   6.563  0.1588  0.6030 -1.0875
30041SOL    HW2 7734  11.418   0.376   6.612  0.8463  0.4756  0.5791
30042SOL     OW 7735   1.162  11.140  11.005  0.1066  0.7607  0.0325
30042SOL    HW1 7736   1.136  11.054  11.036 -2.2071  2.2677  2.6812
30042SOL    HW2 7737   1.098  11.163  10.938 -1.1259  1.5713  1.4499
30043SOL     OW 7738   6.878   5.376   6.418 -0.6278 -0.2095  0.9531
30043SOL    HW1 7739   6.915   5.464   6.426 -1.2436  0.1932 -0.2744
30043SOL    HW2 7740   6.827   5.364   6.498  0.2444  0.1482  1.5806
30044SOL     OW 7741  11.358  10.056   4.304 -0.3867  0.0892  0.5269
30044SOL    HW1 7742  11.364  10.099   4.219 -0.0445  0.3175  0.6642
30044SOL    HW2 7743  11.425  10.099   4.358  0.3210 -0.9442  0.5126
30045SOL     OW 7744  13.297  12.339  13.099 -0.1071 -0.0993 -0.4053
30045SOL    HW1 7745  13.379  12.312  13.058  0.6774  2.4567 -0.7051
30045SOL    HW2 7746  13.253  12.391  13.031 -0.4219  1.2847  0.8213
30046SOL     OW 7747   9.578   5.818  12.515 -0.1820  0.1668  0.2531
30046SOL    HW1 7748   9.495   5.807  12.562 -0.4256 -0.1475 -0.2463
30046SOL    HW2 7749   9.626   5.737  12.533 -1.0173 -0.7746 -1.5001
30047SOL     OW 7750   7.399   5.374   8.933  0.8764  0.1838 -0.3438
30047SOL    HW1 7751   7.481   5.391   8.886  0.5954 -0.0918 -0.9467
30047SOL    HW2 7752   7.351   5.314   8.876  0.2239  0.4021 -0.0339
30048SOL     OW 7753   0.506   1.656   6.156 -0.2459 -0.0642 -0.0732
30048SOL    HW1 7754   0.519   1.725   6.091  3.2631 -1.0736 -0.6312
30048SOL    HW2 7755   0.540   1.693   6.238  1.5811 -0.9801 -0.3581
30049SOL     OW 7756   0.930   2.612   9.314  0.2212  0.4669  0.1502
30049SOL    HW1 7757   0.915   2.518   9.321  3.1756 -0.0642  0.7986
30049SOL    HW2 7758   0.878   2.650   9.386 -1.0010 -0.6272 -0.1119
30050SOL     OW 7759   2.276   1.920   0.943 -0.2516  0.1567  0.1586
30050SOL    HW1 7760   2.208   1.866   0.903 -1.1937  1.7255 -0.4718
30050SOL    HW2 7761   2.358   1.875   0.924 -0.6783  0.5567 -3.1878
30051SOL     OW 7762   6.350   3.636   5.609 -0.0283  0.1599 -0.3284
30051SOL    HW1 7763   6.364   3.722   5.648  0.0514 -0.0038  0.0107
30051SOL    HW2 7764   6.342   3.653   5.515  1.6989  0.3441 -0.4760
30052SOL     OW 7765  11.609   8.401   2.000 -0.3672 -0.8086 -0.5979
30052SOL    HW1 7766  11.589   8.416   1.908 -0.6830  2.0512 -0.1632
30052SOL    HW2 7767  11.531   8.431   2.047  0.8217  0.5214  0.6587
30053SOL     OW 7768  10.731   3.185   7.774 -0.4999 -0.3505 -0.0316
30053SOL    HW1 7769  10.777   3.242   7.713 -0.8602  0.6506  0.6064
30053SOL    HW2 7770  10.664   3.241   7.815 -0.8986 -1.2332  0.5826
30054SOL     OW 7771   3.473  13.924  12.624  0.5445  0.3767  0.7187
30054SOL    HW1 7772   3.473  13.884  12.537  0.6019 -0.4779  1.0932
30054SOL    HW2 7773   3.480  14.018  12.608 -0.2555  0.2885 -0.2238
30055SOL     OW 7774   3.752   6.962  10.980  0.1801 -0.5269 -0.1748
30055SOL    HW1 7775   3.668   6.993  11.016 -0.2192  0.1864 -1.6093
30055SOL    HW2 7776   3.727   6.914  10.901  0.9881 -2.4354  0.6811
30056SOL     OW 7777  13.190  13.285   4.566 -0.0520  0.6279 -0.1881
30056SOL    HW1 7778  13.162  13.283   4.657  1.3536  2.3952  0.3433
30056SOL    HW2 7779  13.132  13.349   4.525 -0.3274  0.2356 -0.4197
30057SOL     OW 7780  11.277   3.247  11.065 -0.2510  0.4762 -0.3392
30057SOL    HW1 7781  11.197   3.233  11.014 -0.2161  0.2472 -0.3287
30057SOL    HW2 7782  11.295   3.163  11.106 -0.0074  0.5296 -0.3362
30058SOL     OW 7783   9.253   6.823  12.447  0.1660 -0.1149  0.0725
30058SOL    HW1 7784   9.240   6.729  12.437  0.6244 -0.1757 -0.0023
30058SOL    HW2 7785   9.341   6.831  12.484  2.3265  0.4054 -4.4671
30059SOL     OW 7786  11.880   7.086  12.460 -0.0576  0.2160 -0.0841
30059SOL    HW1 7787  11.968   7.109  12.430 -0.0273  0.3451  0.1023
30059SOL    HW2 7788  11.852   7.018  12.400  0.5148 -0.4549  0.3876
30060SOL     OW 7789   6.782  13.030  11.182  0.6721  0.3146 -0.3011
30060SOL    HW1 7790   6.856  12.988  11.226  1.3091  1.4721 -0.2350
30060SOL    HW2 7791   6.722  12.958  11.162  2.1934 -0.7748 -1.1390
30061SOL     OW 7792  12.646   6.451   5.835  0.0406 -0.4217 -0.1564
30061SOL    HW1 7793  12.736   6.469   5.809 -0.4926  1.0202 -1.0991
30061SOL    HW2 7794  12.654   6.410   5.922  1.6842 -2.3457 -1.1178
30062SOL     OW 7795  10.290   3.705  14.052 -0.0182 -0.2704  0.4018
30062SOL    HW1 7796  10.371   3.696  14.104  0.2344  2.5788  0.6469
30062SOL    HW2 7797  10.285   3.623  14.002  1.9463 -1.3679  1.8405
30063SOL     OW 7798   5.536   7.513  13.867  0.3751  0.4097  0.5183
30063SOL    HW1 7799   5.507   7.601  13.841 -2.2180 -0.2155  0.9894
30063SOL    HW2 7800   5.509   7.456  13.794  0.0335 -0.2724  1.1626
30064SOL     OW 7801   8.045   7.332   3.298 -0.7115 -0.3506 -0.0691
30064SOL    HW1 7802   8.082   7.246   3.315 -1.4601 -0.9772 -1.5348
30064SOL    HW2 7803   8.065   7.382   3.377  0.3788 -1.6339  0.4991
30065SOL     OW 7804   7.077  10.322   3.691 -0.3308 -0.1183  0.2696
30065SOL    HW1 7805   7.112  10.405   3.723  1.6541  0.1498 -2.3357
30065SOL    HW2 7806   7.102  10.259   3.759  0.9573  0.8885  0.7844
30066SOL     OW 7807   3.036   2.845   9.204  0.3755 -0.4177 -0.2928
30066SOL    HW1 7808   3.096   2.920   9.213 -0.2638  0.1675 -0.7655
30066SOL    HW2 7809   3.035   2.805   9.291  1.5216 -0.4958 -0.3000
30067SOL     OW 7810   2.045  10.604   0.970 -0.4165  0.3393  0.1278
30067SOL    HW1 7811   2.050  10.580   1.062  3.0413 -0.9715 -0.2490
30067SOL    HW2 7812   2.033  10.699   0.970  0.0736  0.4384  1.9338
30068SOL     OW 7813   8.325   2.583  10.523  0.4598  0.1332 -0.5038
30068SOL    HW1 7814   8.279   2.628  10.594 -0.1608 -0.6311 -0.4037
30068SOL    HW2 7815   8.257   2.565  10.458  0.7801 -0.2416 -0.7437
30069SOL     OW 7816   5.052   6.409   6.994  0.1469 -0.0339 -0.1599
30069SOL    HW1 7817   5.109   6.421   6.918 -1.1890  0.8933 -1.0520
30069SOL    HW2 7818   4.965   6.433   6.963 -0.6079 -0.6071  1.4022
30070SOL     OW 7819   4.524   5.242   9.458 -0.0678 -0.1284 -0.2020
30070SOL    HW1 7820   4.492   5.167   9.509 -0.4150 -1.2406 -1.9481
30070SOL    HW2 7821   4.462   5.249   9.385  0.2751  1.5363 -0.3598
30071SOL     OW 7822   3.243   9.582   3.175 -0.0816 -0.2464  0.0032
30071SOL    HW1 7823   3.172   9.634   3.213 -0.1529 -0.0870 -0.3492
30071SOL    HW2 7824   3.237   9.598   3.081 -0.6519 -1.5492 -0.2077
30072SOL     OW 7825   3.974   4.870  10.694 -0.1443 -0.2098 -0.2230
30072SOL    HW1 7826   4.035   4.813  10.740 -0.4941 -0.0794  0.4106
30072SOL    HW2 7827   3.928   4.812  10.633  0.2095 -0.4086 -0.3030
30073SOL     OW 7828   7.916   8.525   4.364  0.1139 -0.5961 -0.0739
30073SOL    HW1 7829   7.970   8.455   4.400  0.9425 -0.5932 -1.2645
30073SOL    HW2 7830   7.958   8.605   4.395  0.0755 -0.6040 -0.0005
30074SOL     OW 7831   1.729   2.568   2.165  0.1628  0.1814 -0.0709
30074SOL    HW1 7832   1.784   2.537   2.092  0.2783 -0.1003  0.1307
30074SOL    HW2 7833   1.785   2.628   2.213  0.7865 -1.1229  0.9081
30075SOL     OW 7834   1.670  10.168   4.107 -0.0094  0.0589 -0.5686
30075SOL    HW1 7835   1.610  10.218   4.163  0.4669  2.3626 -1.9621
30075SOL    HW2 7836   1.744  10.148   4.164 -1.1467 -1.0088  0.6053
30076SOL     OW 7837   4.292  11.652   7.458  0.1862 -0.5194  0.0985
30076SOL    HW1 7838   4.346  11.601   7.518  0.4697  0.2084  0.4785
30076SOL    HW2 7839   4.225  11.691   7.514 -0.1522 -0.6380 -0.2202
30077SOL     OW 7840  13.051   8.532   0.357 -0.4515 -0.2427 -0.1024
30077SOL    HW1 7841  13.020   8.465   0.418 -1.0958  0.1090 -0.0321
30077SOL    HW2 7842  13.029   8.498   0.271  0.0603 -0.5386 -0.1196
30078SOL     OW 7843   7.761  13.109   6.592  0.2042 -0.2597  0.5431
30078SOL    HW1 7844   7.825  13.105   6.663 -1.1607  0.9694  1.9080
30078SOL    HW2 7845   7.803  13.161   6.525  0.2449  1.5631  1.9083
30079SOL     OW 7846   8.045   1.776   3.855 -0.0878 -0.1951  0.2448
30079SOL    HW1 7847   8.133   1.746   3.877 -0.1711  1.1317  2.8037
30079SOL    HW2 7848   8.056   1.868   3.834 -0.8289 -0.1122  0.2087
30080SOL     OW 7849   7.666   5.547   3.299 -0.1238  0.4719  0.1355
30080SOL    HW1 7850   7.666   5.461   3.257  0.0004  0.2934  0.4923
30080SOL    HW2 7851   7.682   5.609   3.228  0.7030  0.1267  0.0041
30081SOL     OW 7852  13.272  11.324   2.078 -0.4297 -0.5047  0.2802
30081SOL    HW1 7853  13.336  11.299   2.011  0.3444  1.4890  0.2078
30081SOL    HW2 7854  13.187  11.301   2.039 -0.1146  1.8030 -2.0438
30082SOL     OW 7855  12.751   3.084   6.643  0.7943  0.2452  0.0316
30082SOL    HW1 7856  12.744   3.170   6.685  0.0043  0.0685  0.2752
30082SOL    HW2 7857  12.744   3.021   6.715  1.0612 -0.0352 -0.1833
30083SOL     OW 7858   0.584   2.334   6.288 -0.2587  0.0375 -0.2497
30083SOL    HW1 7859   0.643   2.396   6.331  0.0072 -1.1268  1.1098
30083SOL    HW2 7860   0.628   2.314   6.205 -0.3304  1.5888 -0.7075
30084SOL     OW 7861  10.427   8.299   1.213 -0.1660 -0.4248  0.9247
30084SOL    HW1 7862  10.470   8.214   1.211 -0.4090 -0.5994 -2.6810
30084SOL    HW2 7863  10.336   8.281   1.190 -0.1291  0.7769 -0.3553
30085SOL     OW 7864   9.388   7.219   2.830 -0.4840 -0.0257  0.5079
30085SOL    HW1 7865   9.413   7.168   2.753 -1.1132 -1.0133  0.9397
30085SOL    HW2 7866   9.294   7.206   2.839 -0.1431 -1.5977  2.5810
30086SOL     OW 7867   5.982   9.695  11.895 -0.4302 -0.0981  0.4420
30086SOL    HW1 7868   6.045   9.694  11.968  0.1976 -0.1706 -0.0902
30086SOL    HW2 7869   6.028   9.651  11.824 -0.5639  1.0312 -0.3749
30087SOL     OW 7870  11.083   3.347   6.208  0.0674 -0.5111 -0.1715
30087SOL    HW1 7871  11.109   3.414   6.272 -0.8346 -1.2616  1.0241
30087SOL    HW2 7872  11.024   3.394   6.148 -0.5851 -0.2215  0.6727
30088SOL     OW 7873   9.316   3.851  10.605  0.0646 -0.3157 -0.8268
30088SOL    HW1 7874   9.405   3.875  10.633  0.1095  0.4429 -1.5624
30088SOL    HW2 7875   9.268   3.933  10.608 -0.0359 -0.2666 -2.5102
30089SOL     OW 7876   7.749   1.691  11.901 -0.3866  0.9022 -0.2194
30089SOL    HW1 7877   7.713   1.634  11.969  0.4164  0.0892 -0.4567
30089SOL    HW2 7878   7.810   1.749  11.947  1.4425 -0.7608 -0.4373
30090SOL     OW 7879   4.513   6.821  12.946 -0.1162 -0.0813 -0.0110
30090SOL    HW1 7880   4.599   6.864  12.950  0.0467 -0.4533  1.3258
30090SOL    HW2 7881   4.483   6.820  13.037 -1.5385  0.0053 -0.4557
30091SOL     OW 7882  12.086   3.669   9.047  0.8383  0.2573  0.0085
30091SOL    HW1 7883  12.132   3.680   8.964 -0.6837 -1.4112 -1.1361
30091SOL    HW2 7884  11.994   3.687   9.026  0.1552 -1.9301  0.8664
30092SOL     OW 7885  11.283  12.342  11.297  0.8902 -0.5564 -0.0740
30092SOL    HW1 7886  11.251  12.252  11.303  1.0425 -0.5975  0.1365
30092SOL    HW2 7887  11.239  12.388  11.369  0.2374 -0.2829 -0.6385
30093SOL     OW 7888  13.153   5.838   2.082 -0.0541  0.0621  0.3688
30093SOL    HW1 7889  13.139   5.772   2.014 -0.0668  0.8818 -0.4407
30093SOL    HW2 7890  13.154   5.788   2.164 -2.0826 -0.7159 -0.0259
30094SOL     OW 7891   7.854   9.262   2.324 -0.2721  0.3812 -0.1035
30094SOL    HW1 7892   7.815   9.220   2.400  0.9806 -0.7606 -0.0547
30094SOL    HW2 7893   7.909   9.332   2.361 -0.2029  0.2739 -0.0034
30095SOL     OW 7894   8.386   6.399  13.576  0.3395 -0.4895  0.3124
30095SOL    HW1 7895   8.353   6.437  13.495 -1.5718 -0.4416  1.0545
30095SOL    HW2 7896   8.403   6.475  13.633 -0.3866 -0.5788  0.6696
30096SOL     OW 7897  10.028   4.652   5.959  0.0412  0.1670 -0.5591
30096SOL    HW1 7898  10.056   4.698   5.880 -1.4117  1.4379 -0.3628
30096SOL    HW2 7899  10.064   4.704   6.031  2.4613 -1.6795 -0.3089
30097SOL     OW 7900   1.692  11.401   4.026 -0.3903  0.3480  0.9903
30097SOL    HW1 7901   1.776  11.446   4.021 -0.3513  0.2223 -3.8151
30097SOL    HW2 7902   1.713  11.313   4.055  0.9074  0.7501  1.3091
30098SOL     OW 7903   3.561   3.514  10.336  0.1884 -0.1553  0.0825
30098SOL    HW1 7904   3.521   3.437  10.378  0.7702 -1.3360 -1.4226
30098SOL    HW2 7905   3.654   3.493  10.332  0.5758  1.3050  0.9796
30099SOL     OW 7906   5.618   4.385   8.324 -0.0984  0.0685  0.0231
30099SOL    HW1 7907   5.626   4.303   8.372 -0.1136 -0.3813 -0.7186
30099SOL    HW2 7908   5.671   4.372   8.245  1.7685  1.6103  0.9366
30100SOL     OW 7909   1.996   4.578   7.239 -0.8232  0.3390 -0.7075
30100SOL    HW1 7910   1.955   4.528   7.168 -1.1474  0.5720 -0.6876
30100SOL    HW2 7911   2.040   4.651   7.196 -2.0167  1.1534 -0.5830
30101SOL     OW 7912  12.367   8.145   4.683  0.1452  0.0073 -0.3979
30101SOL    HW1 7913  12.275   8.149   4.655  0.1041  0.1255 -0.2504
30101SOL    HW2 7914  12.363   8.150   4.778  0.1439 -2.6002 -0.1923
30102SOL     OW 7915  11.592   9.208   9.702  0.3191  0.1292 -0.1475
30102SOL    HW1 7916  11.666   9.245   9.749  0.0978  0.6892 -0.2238
30102SOL    HW2 7917  11.626   9.130   9.659  0.4489 -0.5767  1.1824
30103SOL     OW 7918   6.548   2.771   7.600 -0.6616  0.4781  0.2893
30103SOL    HW1 7919   6.574   2.781   7.508 -0.2237 -2.7061 -0.0523
30103SOL    HW2 7920   6.629   2.783   7.649 -0.3669 -0.2996  0.0097
30104SOL     OW 7921  10.747   7.551   3.192  0.1842  0.1713  0.0347
30104SOL    HW1 7922  10.762   7.645   3.184  0.9822 -0.0401 -1.0454
30104SOL    HW2 7923  10.834   7.511   3.190 -0.2377 -0.7713 -2.1699
30105SOL     OW 7924   6.077  13.190   0.109 -0.0221  0.2667 -0.5129
30105SOL    HW1 7925   6.159  13.223   0.144 -0.3818  0.3403  0.2866
30105SOL    HW2 7926   6.098  13.103   0.075  0.9536  1.2882 -2.7116
30106SOL     OW 7927   5.882   6.847   7.572 -0.3892  0.1855  0.1863
30106SOL    HW1 7928   5.812   6.913   7.575 -0.6882 -0.1432  0.4501
30106SOL    HW2 7929   5.915   6.843   7.661 -2.3163 -2.0935  0.9027
30107SOL     OW 7930   1.223   5.541   1.151  0.7737  0.3007 -0.0173
30107SOL    HW1 7931   1.163   5.572   1.218  0.7563  2.5152 -0.9717
30107SOL    HW2 7932   1.248   5.453   1.180 -2.6362 -0.6045  0.5645
30108SOL     OW 7933   2.377  11.213   1.322  0.1970 -0.4899  0.0696
30108SOL    HW1 7934   2.298  11.159   1.323  0.3740 -0.7563 -0.0790
30108SOL    HW2 7935   2.353  11.293   1.368 -0.0423 -0.7329  0.3706
30109SOL     OW 7936   0.033   3.781   7.041 -0.5824 -0.0825 -0.8272
30109SOL    HW1 7937   0.039   3.704   6.984 -1.6544  0.6671 -2.0318
30109SOL    HW2 7938   0.046   3.855   6.982 -2.0117  0.7322 -0.1812
30110SOL     OW 7939   4.466   8.680   7.380  1.0835  0.2831  0.0205
30110SOL    HW1 7940   4.546   8.648   7.338  1.3817  1.8311 -0.6810
30110SOL    HW2 7941   4.407   8.699   7.307 -0.1949 -1.4346  0.5531
30111SOL     OW 7942   1.223  12.342   7.195 -0.3978 -0.6270 -0.2858
30111SOL    HW1 7943   1.225  12.429   7.236 -1.1160 -1.6980  2.1645
30111SOL    HW2 7944   1.187  12.358   7.107  1.1245  1.7515 -0.5787
30112SOL     OW 7945  10.316  12.837  14.059  0.1201  0.3900 -0.2196
30112SOL    HW1 7946  10.321  12.882  13.975  0.3813  0.8248  0.0321
30112SOL    HW2 7947  10.350  12.749  14.041  2.9141  1.3194  0.0421
30113SOL     OW 7948   7.347   6.052   4.006  0.1999 -0.7238 -0.1855
30113SOL    HW1 7949   7.371   5.993   3.935  0.6743 -0.6052 -0.1227
30113SOL    HW2 7950   7.406   6.126   3.997 -0.3858 -0.2605 -0.2574
30114SOL     OW 7951   4.731   5.435   5.871 -0.3002 -0.5364  0.3317
30114SOL    HW1 7952   4.704   5.372   5.804 -2.3310 -0.0812  0.6794
30114SOL    HW2 7953   4.745   5.382   5.950  0.2169 -0.8161  0.0604
30115SOL     OW 7954   8.785   6.942  12.869 -0.3608  0.3041  0.3584
30115SOL    HW1 7955   8.838   7.017  12.896  3.9217 -2.0884 -0.5098
30115SOL    HW2 7956   8.795   6.879  12.941 -1.6202 -0.4877 -0.1253
30116SOL     OW 7957  12.141  12.273   4.888  0.3332 -0.0554 -0.3272
30116SOL    HW1 7958  12.123  12.226   4.970  0.5375 -0.3141 -0.4313
30116SOL    HW2 7959  12.118  12.364   4.908  1.8421  0.1776  0.5200
30117SOL     OW 7960   6.177   4.736  14.048  0.0294 -0.4048  0.4179
30117SOL    HW1 7961   6.259   4.782  14.061  0.2190 -0.4353 -0.6392
30117SOL    HW2 7962   6.202   4.647  14.023 -0.3085 -0.1468 -0.8782
30118SOL     OW 7963   1.892   7.802  12.151 -0.1485 -0.3656  0.1079
30118SOL    HW1 7964   1.808   7.787  12.109 -0.4936 -0.4043  0.7986
30118SOL    HW2 7965   1.943   7.723  12.135 -0.8528 -1.0413  1.1177
30119SOL     OW 7966   4.858   8.732   0.693 -0.0142 -0.3791  0.0407
30119SOL    HW1 7967   4.783   8.782   0.663 -1.9366 -1.9079  1.9410
30119SOL    HW2 7968   4.911   8.718   0.615 -0.8498  2.0962 -1.0612
30120SOL     OW 7969   3.991  12.927   0.444 -0.1626  0.2720 -0.4793
30120SOL    HW1 7970   4.049  12.956   0.373 -1.2148  0.0393 -1.4572
30120SOL    HW2 7971   3.923  12.875   0.400 -0.5456 -0.3122  0.7655
30121SOL     OW 7972   1.450  13.652  10.772 -0.3915  0.0500 -0.4136
30121SOL    HW1 7973   1.379  13.665  10.709 -1.1902  0.4931  0.5437
30121SOL    HW2 7974   1.506  13.729  10.763  0.4108 -0.6484 -1.6909
30122SOL     OW 7975  12.136  12.367   8.403  0.2827 -0.1589  0.0662
30122SOL    HW1 7976  12.142  12.420   8.483  1.5239 -0.7953  0.4372
30122SOL    HW2 7977  12.123  12.278   8.436  0.7453 -0.4169 -0.4432
30123SOL     OW 7978   6.540  12.141   5.919 -0.2259 -0.0227 -0.3540
30123SOL    HW1 7979   6.506  12.180   5.999 -0.1705 -0.9589  0.1360
30123SOL    HW2 7980   6.634  12.135   5.933 -0.0619  0.8764 -0.9718
30124SOL     OW 7981  10.284  10.032  11.882 -0.3040 -0.5500 -0.1460
30124SOL    HW1 7982  10.208  10.036  11.940 -1.4636  0.3674 -1.6276
30124SOL    HW2 7983  10.246  10.028  11.794  1.3392  1.0363 -0.9989
30125SOL     OW 7984   9.141  11.972   9.629  0.7347 -0.4722 -0.6875
30125SOL    HW1 7985   9.193  11.893   9.612 -2.4892 -2.9359 -0.2739
30125SOL    HW2 7986   9.166  11.999   9.717  0.5537 -2.2865 -0.0384
30126SOL     OW 7987   2.930   4.025  13.879 -0.1710  0.5523  0.0800
30126SOL    HW1 7988   2.920   3.943  13.927  0.3677  0.1859 -0.4149
30126SOL    HW2 7989   2.965   4.087  13.944 -1.3428  0.6275  0.6635
30127SOL     OW 7990   7.669   6.036   4.117  0.3297 -0.2084  0.3234
30127SOL    HW1 7991   7.601   6.003   4.175 -0.0093  1.1955  0.7591
30127SOL    HW2 7992   7.675   6.129   4.137  0.1936  0.3386 -1.9001
30128SOL     OW 7993   3.803   4.620   9.312  0.3271 -0.6464 -0.1425
30128SOL    HW1 7994   3.878   4.679   9.297 -0.3286 -0.2174 -2.0348
30128SOL    HW2 7995   3.793   4.574   9.229 -1.0350 -1.2692  0.3547
30129SOL     OW 7996   9.050   2.336   9.506  0.0854  0.2903 -0.2867
30129SOL    HW1 7997   9.080   2.294   9.426 -1.1253 -0.3132 -0.4387
30129SOL    HW2 7998   9.127   2.338   9.563  0.3408 -1.5505 -0.5237
30130SOL     OW 7999   1.219  10.188   5.124  0.3360  0.4722 -1.0837
30130SOL    HW1 8000   1.292  10.241   5.093  0.3074  1.1512 -0.0306
30130SOL    HW2 8001   1.196  10.225   5.209 -0.1285 -0.7974 -0.6226
30131SOL     OW 8002   7.760  13.927   3.692 -0.3768  0.1386  0.0941
30131SOL    HW1 8003   7.848  13.889   3.692 -1.1757 -1.8524 -1.0485
30131SOL    HW2 8004   7.707  13.865   3.742 -1.1174  1.4334  0.9622
30132SOL     OW 8005  11.553   3.223   2.573  0.0429  0.0482 -0.0370
30132SOL    HW1 8006  11.580   3.133   2.595 -0.4025 -0.1892 -0.4218
30132SOL    HW2 8007  11.622   3.255   2.515 -0.8990 -0.8758 -1.7392
30133SOL     OW 8008   8.427   3.050   0.811 -0.7395  0.0876  0.5224
30133SOL    HW1 8009   8.502   2.993   0.830 -0.8475  0.2987  1.6702
30133SOL    HW2 8010   8.467   3.131   0.779 -0.6285 -1.0349 -2.4098
30134SOL     OW 8011   2.268   9.565   8.540  0.0416 -0.1053  0.4080
30134SOL    HW1 8012   2.244   9.539   8.451 -1.5293 -0.1748  0.8213
30134SOL    HW2 8013   2.323   9.493   8.571 -1.2787 -1.2386  0.2653
30135SOL     OW 8014  10.810   3.284  11.822 -0.1815 -0.0618  0.1487
30135SOL    HW1 8015  10.837   3.216  11.759  0.5450  0.9676 -0.6888
30135SOL    HW2 8016  10.716   3.272  11.831 -0.1685 -0.7575 -0.4997
30136SOL     OW 8017   5.434   8.259   5.404 -0.2654  0.2315  0.0144
30136SOL    HW1 8018   5.365   8.278   5.340 -0.8832  0.2397  0.6757
30136SOL    HW2 8019   5.481   8.185   5.366 -1.8064 -1.0117  0.4081
30137SOL     OW 8020  11.677   7.665  12.803  0.3766  0.1841 -0.0076
30137SOL    HW1 8021  11.600   7.722  12.799 -0.4112 -0.8941 -1.8094
30137SOL    HW2 8022  11.731   7.693  12.729 -0.7762 -2.2858 -1.9548
30138SOL     OW 8023   8.006  10.169  12.261 -0.0798  0.8806  0.2672
30138SOL    HW1 8024   8.074  10.101  12.263 -1.0214 -0.0587  1.3402
30138SOL    HW2 8025   7.983  10.183  12.352 -0.1873  2.3939  0.0396
30139SOL     OW 8026   0.169   8.083   6.308 -0.4370  0.2312  0.1853
30139SOL    HW1 8027   0.197   8.113   6.395 -1.9436  0.7726  0.5134
30139SOL    HW2 8028   0.250   8.080   6.257  0.4557  0.1088  1.5381
30140SOL     OW 8029   3.284  12.633   0.680 -0.3064 -0.0038 -0.3411
30140SOL    HW1 8030   3.341  12.558   0.701 -0.0420  0.4630  0.6728
30140SOL    HW2 8031   3.218  12.632   0.749 -0.4491  0.5476 -0.4719
30141SOL     OW 8032   2.414   9.971   0.413  0.2739 -0.6492  0.9256
30141SOL    HW1 8033   2.446  10.042   0.358  1.5252 -1.0208  1.1378
30141SOL    HW2 8034   2.403   9.897   0.353 -2.6773  0.1234  0.3738
30142SOL     OW 8035   9.952   5.044   5.779 -0.0127  0.5735  0.1799
30142SOL    HW1 8036   9.888   5.045   5.850 -0.6968  0.3419 -0.4222
30142SOL    HW2 8037   9.950   5.133   5.744  1.1639  1.0162  1.1693
30143SOL     OW 8038  11.621   0.064   9.895  0.4274 -0.2266  0.8309
30143SOL    HW1 8039  11.704   0.021   9.876  0.0618 -1.1788  1.2577
30143SOL    HW2 8040  11.612   0.056   9.990  0.1933  0.5305  0.8768
30144SOL     OW 8041   9.807  10.405  13.728 -0.0955 -0.7356 -0.0990
30144SOL    HW1 8042   9.886  10.395  13.674 -0.1311 -0.9417 -0.1104
30144SOL    HW2 8043   9.770  10.317  13.735  0.7422 -1.0043  1.5186
30145SOL     OW 8044   1.962   3.060  12.405 -0.1319  0.1488 -0.4083
30145SOL    HW1 8045   1.986   2.967  12.401  0.4245  0.2190  0.7871
30145SOL    HW2 8046   1.871   3.060  12.433  0.0849 -0.0489  0.3466
30146SOL     OW 8047   5.281   0.696   2.347  0.4725 -0.2514 -0.6113
30146SOL    HW1 8048   5.206   0.656   2.304  0.1343 -1.2490  0.8253
30146SOL    HW2 8049   5.268   0.678   2.440  1.7492  0.8252 -0.1885
30147SOL     OW 8050   3.757  13.407  13.419  0.1199 -0.1009  0.3331
30147SOL    HW1 8051   3.819  13.338  13.441  1.4048  0.6670 -0.7273
30147SOL    HW2 8052   3.712  13.374  13.341  0.2932 -0.0058  0.1917
30148SOL     OW 8053   2.732   4.166   5.953  0.3893 -0.2773 -0.0503
30148SOL    HW1 8054   2.690   4.128   6.030 -1.2267  0.0047 -0.7348
30148SOL    HW2 8055   2.694   4.118   5.879  0.6489  0.5686 -0.7514
30149SOL     OW 8056   8.616  13.633  12.218  0.0655 -0.3626 -0.4240
30149SOL    HW1 8057   8.685  13.580  12.178  1.3468 -1.2201  2.6371
30149SOL    HW2 8058   8.536  13.582  12.207  0.8547 -1.8198  0.3417
30150SOL     OW 8059  12.232   2.243   4.333  0.0531  0.2448  0.0061
30150SOL    HW1 8060  12.180   2.227   4.254  2.5055 -1.5862 -1.4071
30150SOL    HW2 8061  12.172   2.226   4.406 -1.2807 -2.0716 -1.5060
30151SOL     OW 8062  13.285   8.132   0.684 -0.0755 -0.6156 -0.0960
30151SOL    HW1 8063  13.242   8.049   0.704 -1.1943  0.0254  0.2593
30151SOL    HW2 8064  13.287   8.178   0.768 -0.2882  0.0789 -0.4625
30152SOL     OW 8065   6.023   8.825   1.317 -0.0630  0.0663 -0.3344
30152SOL    HW1 8066   5.937   8.833   1.276 -0.5184 -1.2522  0.2982
30152SOL    HW2 8067   6.085   8.849   1.248 -0.8552 -1.0583 -1.5019
30153SOL     OW 8068  10.615   6.055   1.938 -0.1017 -0.0631  0.2032
30153SOL    HW1 8069  10.573   6.108   1.870 -0.7975 -1.3490 -0.4114
30153SOL    HW2 8070  10.671   6.116   1.985 -0.3434  1.0646 -0.9188
30154SOL     OW 8071   0.449   7.017  12.662  0.3626 -0.8428  0.5036
30154SOL    HW1 8072   0.397   6.938  12.666  0.4342 -0.9055  0.1650
30154SOL    HW2 8073   0.386   7.088  12.655  0.2020 -0.7212  2.4537
30155SOL     OW 8074   4.355   8.886   9.797 -0.5350  0.4239  0.2585
30155SOL    HW1 8075   4.282   8.911   9.854 -0.4965  0.1176  0.4462
30155SOL    HW2 8076   4.358   8.791   9.803 -1.2949  0.2847 -1.1932
30156SOL     OW 8077   7.080   1.982  11.321 -0.0247 -0.4432  0.3694
30156SOL    HW1 8078   7.176   1.985  11.323  0.0030  0.3339 -1.0914
30156SOL    HW2 8079   7.059   1.949  11.234 -1.0946 -0.0450  0.4688
30157SOL     OW 8080  11.224  11.317   0.741  0.3851  0.0385 -0.1912
30157SOL    HW1 8081  11.284  11.385   0.770 -1.2220  1.4605 -0.0377
30157SOL    HW2 8082  11.198  11.272   0.821 -0.3313  0.7848  0.0038
30158SOL     OW 8083   0.067  10.784   8.784  0.3850 -0.4088 -0.5983
30158SOL    HW1 8084   0.080  10.774   8.879  0.8580  0.3018 -0.5776
30158SOL    HW2 8085   0.031  10.872   8.774 -1.2201 -1.0882 -0.9604
30159SOL     OW 8086  13.478   6.798   8.007  0.3448 -0.4161 -0.3802
30159SOL    HW1 8087  13.471   6.709   8.041 -1.3754 -0.3409 -0.4209
30159SOL    HW2 8088  13.389   6.833   8.014  1.1875  1.7094  0.7210
30160SOL     OW 8089  11.880   3.711   6.438 -0.1827  0.2670 -0.4870
30160SOL    HW1 8090  11.892   3.634   6.494 -1.0099  0.9938  0.7497
30160SOL    HW2 8091  11.966   3.752   6.435 -0.0282 -0.0208 -0.0975
30161SOL     OW 8092   2.811   8.531   2.615 -0.0656  0.3723  0.4803
30161SOL    HW1 8093   2.773   8.455   2.659  1.1597 -0.9232 -0.6078
30161SOL    HW2 8094   2.844   8.586   2.687 -2.0300  0.5340  1.3314
30162SOL     OW 8095  13.295  13.504   0.781 -0.0770 -0.6231 -0.1485
30162SOL    HW1 8096  13.376  13.455   0.794 -0.8902 -2.3457 -1.1428
30162SOL    HW2 8097  13.302  13.539   0.692 -0.7265 -1.4340 -0.5286
30163SOL     OW 8098  13.023  10.834   7.251  0.0851  0.0768  0.2134
30163SOL    HW1 8099  13.064  10.916   7.225  0.3782 -0.1187  0.0604
30163SOL    HW2 8100  13.012  10.785   7.169 -1.5415  0.6170  0.0784
30164SOL     OW 8101  13.465  13.989   6.180 -0.0908 -0.2097  0.1395
30164SOL    HW1 8102  13.549  13.959   6.214 -0.7901 -1.5176  0.7899
30164SOL    HW2 8103  13.483  14.075   6.144  1.4851 -0.3862  0.4430
30165SOL     OW 8104   9.033   2.038   1.411  0.7304  0.2494 -0.5535
30165SOL    HW1 8105   8.947   2.050   1.372  0.1957  0.4173  0.6450
30165SOL    HW2 8106   9.068   2.126   1.421  1.4158  0.1406 -1.8146
30166SOL     OW 8107   4.057  12.551  11.865  0.1732  0.3159 -0.2769
30166SOL    HW1 8108   4.135  12.602  11.887  0.8543 -0.9972  0.4837
30166SOL    HW2 8109   3.985  12.600  11.904  0.5723  1.6078 -1.0755
30167SOL     OW 8110   3.615   9.239   8.978 -0.1595  0.1477 -0.0068
30167SOL    HW1 8111   3.537   9.225   8.924 -0.6738  0.7084  0.5718
30167SOL    HW2 8112   3.641   9.151   9.005 -0.6823 -0.0376 -0.0890
30168SOL     OW 8113   2.466   5.382   8.123 -0.1883  0.2223 -0.7830
30168SOL    HW1 8114   2.490   5.295   8.093 -1.1399  0.0109 -0.9635
30168SOL    HW2 8115   2.377   5.372   8.159 -0.5477  1.2188 -1.3437
30169SOL     OW 8116   5.190   0.003  11.175  0.1585 -0.2312  0.2947
30169SOL    HW1 8117   5.117   0.061  11.155  0.2727  0.0751  0.7426
30169SOL    HW2 8118   5.152  -0.085  11.173 -0.3466 -0.0374  1.0392
30170SOL     OW 8119   4.448  11.200   9.766 -0.4561 -0.7386  0.6718
30170SOL    HW1 8120   4.383  11.257   9.725  0.2271 -0.7761 -0.4979
30170SOL    HW2 8121   4.401  11.160   9.839 -1.9690 -1.2703 -0.5320
30171SOL     OW 8122   6.475   0.857   2.517  0.2420  0.3481  0.2257
30171SOL    HW1 8123   6.477   0.953   2.517 -2.0144  0.6611 -3.8924
30171SOL    HW2 8124   6.536   0.832   2.448 -1.6333 -0.8382 -1.1087
30172SOL     OW 8125   4.287   1.765   2.010  0.2339 -0.6333  0.5159
30172SOL    HW1 8126   4.211   1.823   2.013  0.4318 -0.4074  1.5902
30172SOL    HW2 8127   4.359   1.818   2.045  0.6253 -1.2144  0.5999
30173SOL     OW 8128  13.050  10.743   4.272  0.1202 -0.0842 -0.0433
30173SOL    HW1 8129  12.974  10.757   4.328 -0.6601  1.5793 -1.4355
30173SOL    HW2 8130  13.088  10.830   4.261  1.9540 -0.8113  0.1947
30174SOL     OW 8131  10.698   4.333   7.927  0.5012  0.1498  0.4274
30174SOL    HW1 8132  10.757   4.400   7.892 -0.3907  1.2211  0.9399
30174SOL    HW2 8133  10.751   4.285   7.991  1.6192 -0.6865 -1.0600
30175SOL     OW 8134  11.958   1.775   8.827  0.3143  0.2237 -0.7735
30175SOL    HW1 8135  11.917   1.734   8.750 -0.3537  0.6871 -0.6737
30175SOL    HW2 8136  12.012   1.845   8.790  2.0318 -1.1295 -1.0067
30176SOL     OW 8137   7.703   5.651   1.663  0.4323 -0.0513 -0.1213
30176SOL    HW1 8138   7.726   5.628   1.573 -0.5124 -1.4686 -0.0345
30176SOL    HW2 8139   7.613   5.683   1.658 -0.1899 -1.6101  0.4897
30177SOL     OW 8140   9.525   2.759   7.567 -0.6893  0.3684  0.0081
30177SOL    HW1 8141   9.564   2.683   7.524 -1.2389  0.0377  0.0812
30177SOL    HW2 8142   9.465   2.721   7.631 -1.2624  0.8623 -0.2300
30178SOL     OW 8143  13.395  10.669   2.310 -0.0147  0.0925  0.1847
30178SOL    HW1 8144  13.332  10.736   2.282 -0.2454 -0.1014  0.2311
30178SOL    HW2 8145  13.480  10.712   2.306  0.2034 -0.3987 -2.4679
30179SOL     OW 8146  11.433   0.814  11.502  0.4603  0.5246  0.0579
30179SOL    HW1 8147  11.463   0.776  11.584 -1.1224 -0.4266  0.2280
30179SOL    HW2 8148  11.428   0.908  11.519 -1.3594  0.2099  1.5948
30180SOL     OW 8149   2.924   3.409   4.841  0.3808 -0.9730  0.7885
30180SOL    HW1 8150   2.885   3.457   4.914 -1.3880 -2.5356  0.9637
30180SOL    HW2 8151   2.938   3.475   4.774 -0.9880 -0.0132  1.3940
30181SOL     OW 8152  13.630   7.161   1.583  0.0187 -0.0074  0.1664
30181SOL    HW1 8153  13.626   7.254   1.604 -1.5188  0.2544 -1.0942
30181SOL    HW2 8154  13.696   7.154   1.514  0.1406  0.1444  0.2669
30182SOL     OW 8155   8.926   2.287   9.106 -0.0762 -0.2037 -0.6016
30182SOL    HW1 8156   8.871   2.209   9.111 -1.0048 -0.0198 -4.6795
30182SOL    HW2 8157   8.863   2.360   9.111  0.6455  0.3465  1.7382
30183SOL     OW 8158  11.340  11.170   9.589 -0.0591  0.2952  0.0647
30183SOL    HW1 8159  11.349  11.222   9.509 -1.3285 -0.8990 -0.8912
30183SOL    HW2 8160  11.252  11.192   9.622  0.5020  0.8836  1.2460
30184SOL     OW 8161  11.107  10.430   7.252 -0.7724  0.1594  0.2265
30184SOL    HW1 8162  11.162  10.393   7.322 -0.1928 -0.6764 -0.6541
30184SOL    HW2 8163  11.018  10.407   7.279 -0.5404 -0.3504  0.5905
30185SOL     OW 8164   4.557   3.767   4.708  0.2130 -0.0126 -0.2163
30185SOL    HW1 8165   4.560   3.858   4.680  0.9874 -0.2645 -1.0125
30185SOL    HW2 8166   4.578   3.717   4.629 -1.4560 -0.9583 -0.1078
30186SOL     OW 8167  13.253   9.767   1.192  0.2373  0.1331  0.1812
30186SOL    HW1 8168  13.326   9.728   1.143  1.6706  2.9253 -0.0981
30186SOL    HW2 8169  13.290   9.790   1.277 -0.9561 -0.3622  0.8634
30187SOL     OW 8170   1.567   6.177   1.104  0.2176 -0.0716  0.3876
30187SOL    HW1 8171   1.617   6.231   1.164  0.1402  0.6718 -0.2003
30187SOL    HW2 8172   1.559   6.230   1.025  0.8835 -1.2682 -0.5331
30188SOL     OW 8173   4.328   0.466   8.935 -0.3111 -0.2090 -0.2429
30188SOL    HW1 8174   4.355   0.498   8.850  1.3024 -0.0472  0.2956
30188SOL    HW2 8175   4.407   0.471   8.989 -1.5406  0.7898  1.5933
30189SOL     OW 8176   1.345   6.897  10.735 -0.0124 -0.2802 -0.3368
30189SOL    HW1 8177   1.397   6.820  10.712 -0.6101 -1.2628  1.3980
30189SOL    HW2 8178   1.388   6.969  10.690  2.8658 -1.0162  0.9731
30190SOL     OW 8179   3.061   6.006  11.595  0.6573 -0.4130  0.3251
30190SOL    HW1 8180   3.042   6.084  11.543  0.6262 -0.1264  0.7711
30190SOL    HW2 8181   3.136   5.966  11.549  1.2658  0.3697  0.6162
30191SOL     OW 8182   7.828   3.655   3.266 -0.5654 -0.0658 -0.2662
30191SOL    HW1 8183   7.909   3.652   3.317 -0.2066 -1.8261 -0.8711
30191SOL    HW2 8184   7.822   3.569   3.225 -1.2543  0.9676 -2.5550
30192SOL     OW 8185   1.365   0.648   6.288  0.1090  0.3638 -0.1903
30192SOL    HW1 8186   1.397   0.714   6.227 -0.3392  0.1688 -0.6516
30192SOL    HW2 8187   1.438   0.587   6.299  0.5874  1.0305  0.3888
30193SOL     OW 8188   6.147   5.068   5.993  0.6126  0.8015 -0.2369
30193SOL    HW1 8189   6.216   5.117   6.038  0.2172  0.7137  0.4896
30193SOL    HW2 8190   6.178   5.060   5.903  1.0141  1.7731 -0.2031
30194SOL     OW 8191  10.989   4.890  11.148  0.1834 -0.2986  0.1444
30194SOL    HW1 8192  10.906   4.907  11.103 -0.2705 -1.4559  0.5028
30194SOL    HW2 8193  11.055   4.891  11.078 -0.2976 -0.5387 -0.3198
30195SOL     OW 8194   6.018  12.940   2.781 -0.4453 -0.2242  0.2555
30195SOL    HW1 8195   6.074  13.009   2.744  1.8325 -2.7222 -1.4095
30195SOL    HW2 8196   5.935  12.983   2.799  0.5389  2.7280 -1.5212
30196SOL     OW 8197   0.920  12.225   3.151 -0.3305 -0.2572 -0.2845
30196SOL    HW1 8198   0.924  12.321   3.142 -1.1905 -0.3062 -1.4020
30196SOL    HW2 8199   0.845  12.199   3.098 -0.0199 -1.5776 -0.1119
30197SOL     OW 8200  11.797   4.133  11.348  0.2211  0.1886  0.0124
30197SOL    HW1 8201  11.822   4.221  11.375  1.0506 -0.4239  1.3628
30197SOL    HW2 8202  11.761   4.093  11.428 -2.7382  0.1511 -1.2073
30198SOL     OW 8203  11.890   0.018   1.357  0.0511 -0.2248 -0.4885
30198SOL    HW1 8204  11.939   0.085   1.404 -1.2954 -0.8972  2.0509
30198SOL    HW2 8205  11.912   0.032   1.265  0.9131  2.7588  0.0722
30199SOL     OW 8206   3.931  11.979   4.038  0.8567 -0.1557 -0.0438
30199SOL    HW1 8207   4.009  11.996   3.985  0.0271  1.7408 -0.7398
30199SOL    HW2 8208   3.925  12.055   4.097 -0.7466  0.0132 -0.3801
30200SOL     OW 8209   6.739  13.581   7.457 -0.1001 -0.4178 -0.2366
30200SOL    HW1 8210   6.744  13.644   7.529 -1.3051  0.3293 -0.7818
30200SOL    HW2 8211   6.667  13.612   7.402 -0.3427 -1.9435 -0.8444
30201SOL     OW 8212   5.289  10.675   1.026  0.2156  0.0323 -0.2340
30201SOL    HW1 8213   5.283  10.587   0.989 -0.4556  0.2027 -0.5367
30201SOL    HW2 8214   5.199  10.704   1.035  0.4092  0.3901  0.5981
30202SOL     OW 8215   6.395   2.638  13.281  0.6488  0.0442  0.4011
30202SOL    HW1 8216   6.384   2.543  13.271  1.3018 -0.0779  0.7388
30202SOL    HW2 8217   6.371   2.655  13.372 -3.0468  0.7930 -0.5559
30203SOL     OW 8218   7.860   0.459   5.540 -0.1464 -0.0277 -0.1517
30203SOL    HW1 8219   7.939   0.509   5.517 -0.1997 -0.9004 -2.5351
30203SOL    HW2 8220   7.881   0.369   5.517 -1.2265 -0.5753  0.9204
30204SOL     OW 8221  11.751   3.084   5.949 -0.0085 -0.3410  0.0452
30204SOL    HW1 8222  11.792   3.072   5.863  1.4309 -1.0566  0.7897
30204SOL    HW2 8223  11.663   3.048   5.938 -0.1633  0.3991 -1.3676
30205SOL     OW 8224   4.000   2.800   1.677 -0.7183  0.7039 -0.1517
30205SOL    HW1 8225   3.985   2.759   1.592  2.7365 -2.1000  0.3846
30205SOL    HW2 8226   3.927   2.769   1.731 -0.7045 -0.9718 -1.0131
30206SOL     OW 8227   5.855  10.368   9.359 -0.1337 -0.3060  0.1951
30206SOL    HW1 8228   5.931  10.425   9.366  1.1782 -2.1285  1.6984
30206SOL    HW2 8229   5.808  10.400   9.282  2.2355  0.7569 -0.8953
30207SOL     OW 8230   4.952   3.119   9.246 -0.1529  0.2029 -0.4593
30207SOL    HW1 8231   4.983   3.132   9.336  1.3414 -2.1327 -0.5602
30207SOL    HW2 8232   4.898   3.196   9.228 -0.6809  0.6270  2.5060
30208SOL     OW 8233  13.288   2.013   5.324 -0.0479  0.0029  0.0362
30208SOL    HW1 8234  13.336   1.931   5.325  1.5013  0.8546 -0.5878
30208SOL    HW2 8235  13.197   1.988   5.312  0.3852 -1.6175 -0.0511
30209SOL     OW 8236   8.922   0.338  12.648  0.4862  0.1019  0.2675
30209SOL    HW1 8237   8.903   0.322  12.741 -0.1501 -0.7001  0.0035
30209SOL    HW2 8238   8.882   0.264  12.602  0.9336  0.4147 -0.6368
30210SOL     OW 8239   9.267  13.940  11.852  0.0177  0.5916 -0.0593
30210SOL    HW1 8240   9.251  14.032  11.829 -3.8366  0.0012 -0.4205
30210SOL    HW2 8241   9.267  13.895  11.768  1.8971  0.1804  0.1196
30211SOL     OW 8242   7.383  10.527   3.717 -0.5096 -0.3994  0.2068
30211SOL    HW1 8243   7.293  10.554   3.699 -0.1240  0.1413 -1.0437
30211SOL    HW2 8244   7.394  10.539   3.811 -1.5616  0.0877  0.2746
30212SOL     OW 8245   0.217  13.564   9.055 -0.2054  0.0457 -0.3622
30212SOL    HW1 8246   0.136  13.569   9.003 -0.3604  0.3787 -0.0947
30212SOL    HW2 8247   0.206  13.485   9.108 -0.9410  0.7765  0.6221
30213SOL     OW 8248   4.967   1.144  11.266  0.1400 -0.1691  0.3037
30213SOL    HW1 8249   4.902   1.159  11.197  1.9006 -0.3048 -1.4766
30213SOL    HW2 8250   4.919   1.158  11.347 -2.2764 -0.9345 -0.8875
30214SOL     OW 8251   9.423   0.868  10.290 -0.2804  0.3703  0.0615
30214SOL    HW1 8252   9.450   0.946  10.242  1.3308 -0.0060  0.2673
30214SOL    HW2 8253   9.372   0.901  10.364 -0.0434  1.1878 -0.1349
30215SOL     OW 8254   0.269   2.679  12.355  0.6802  0.4989 -0.5225
30215SOL    HW1 8255   0.244   2.596  12.315 -1.4845  2.0585 -2.6746
30215SOL    HW2 8256   0.347   2.706  12.305  0.0776  0.7566 -1.3558
30216SOL     OW 8257  12.760  13.595   6.115  0.4802 -0.0151  0.2713
30216SOL    HW1 8258  12.688  13.532   6.124  0.5434  0.2008  3.6986
30216SOL    HW2 8259  12.839  13.542   6.111  0.2938 -0.2135 -2.3276
30217SOL     OW 8260   9.004  11.809   0.410 -0.0744  0.7192 -0.8798
30217SOL    HW1 8261   8.974  11.895   0.380  0.8593  1.2233 -0.4333
30217SOL    HW2 8262   9.009  11.818   0.506 -0.6685 -0.0737 -0.7611
30218SOL     OW 8263   5.886   4.084   0.862 -0.2753  0.0209 -0.1215
30218SOL    HW1 8264   5.965   4.105   0.912  0.2970 -0.2082 -0.9197
30218SOL    HW2 8265   5.843   4.168   0.850  0.9459  0.4782 -1.5135
30219SOL     OW 8266   9.884   6.397  11.539 -0.4225  0.8575  0.0024
30219SOL    HW1 8267   9.842   6.398  11.453 -0.1936 -0.3378 -0.1392
30219SOL    HW2 8268   9.857   6.480  11.580 -0.4165  1.5019 -1.2669
30220SOL     OW 8269   7.553  12.255   9.012  0.4681  0.2574 -0.3010
30220SOL    HW1 8270   7.625  12.223   9.066 -0.9292 -2.6215  0.0597
30220SOL    HW2 8271   7.575  12.346   8.993  3.4320 -0.0902  0.9913
30221SOL     OW 8272  11.030  10.736   3.202 -0.6299 -0.3048  0.0384
30221SOL    HW1 8273  11.089  10.674   3.159  1.0838  0.7931  0.6683
30221SOL    HW2 8274  11.002  10.794   3.131  1.0143  0.6109  0.0841
30222SOL     OW 8275   7.062   9.373   3.579 -0.1216  0.3517  0.0810
30222SOL    HW1 8276   6.972   9.389   3.551  0.4591  1.3051 -1.4036
30222SOL    HW2 8277   7.057   9.361   3.673 -1.4496  3.3141  0.4709
30223SOL     OW 8278  10.881   0.656   4.343  0.4032 -0.2742 -0.2348
30223SOL    HW1 8279  10.945   0.700   4.398  1.1074  0.7386 -1.8089
30223SOL    HW2 8280  10.800   0.707   4.355  0.4920 -0.1856  0.0004
30224SOL     OW 8281   2.273   5.161   1.629 -0.2868 -0.2985 -0.3520
30224SOL    HW1 8282   2.181   5.189   1.629 -0.8423 -1.8068 -3.0094
30224SOL    HW2 8283   2.308   5.197   1.548  0.4881 -2.5176 -1.0725
30225SOL     OW 8284   4.720   9.638   8.884  0.3253 -0.3261  0.2048
30225SOL    HW1 8285   4.661   9.692   8.832  3.1666  3.3709  0.4023
30225SOL    HW2 8286   4.784   9.606   8.820  0.3550 -0.9855  0.5573
30226SOL     OW 8287   4.177   2.760  10.677  0.1104 -0.2294 -0.4808
30226SOL    HW1 8288   4.196   2.686  10.620 -0.8340 -0.9353  0.0863
30226SOL    HW2 8289   4.220   2.738  10.760  0.7343  0.3738 -0.6380
30227SOL     OW 8290   5.099   1.336   0.603  0.1033  0.0031  0.2492
30227SOL    HW1 8291   5.032   1.397   0.634  1.5959  0.8824  1.9580
30227SOL    HW2 8292   5.052   1.254   0.589 -1.8631  1.3326 -1.5980
30228SOL     OW 8293   8.670   6.338   4.018  0.1096  0.3959  0.9179
30228SOL    HW1 8294   8.655   6.285   4.096 -0.8599  0.8041  1.0230
30228SOL    HW2 8295   8.589   6.387   4.006 -0.1985 -0.4762 -0.9924
30229SOL     OW 8296  11.778   9.097  11.124 -0.2504  0.0357 -0.1024
30229SOL    HW1 8297  11.840   9.085  11.196 -0.7474  1.1284  0.5257
30229SOL    HW2 8298  11.825   9.149  11.059 -0.9621  2.2583  1.0627
30230SOL     OW 8299  13.485  11.124   9.798 -0.3837 -0.3025  0.2331
30230SOL    HW1 8300  13.398  11.086   9.814 -1.1926  1.8736  1.4445
30230SOL    HW2 8301  13.472  11.218   9.807  2.1863  0.0827  0.7896
30231SOL     OW 8302  10.861   1.821  13.041 -0.3691 -0.5214  0.4839
30231SOL    HW1 8303  10.807   1.745  13.063 -1.1377 -0.2278 -0.3377
30231SOL    HW2 8304  10.827   1.891  13.097 -1.6017 -0.0550 -0.7927
30232SOL     OW 8305   8.642   2.373   3.359 -0.5150  0.0923  0.9342
30232SOL    HW1 8306   8.736   2.359   3.372 -0.6774 -1.8849  0.3750
30232SOL    HW2 8307   8.609   2.395   3.446  0.2659 -0.6346  1.4391
30233SOL     OW 8308   4.009   8.967   9.353  0.2346 -0.7010  0.6215
30233SOL    HW1 8309   4.010   8.924   9.268  2.0895  1.6051 -0.6365
30233SOL    HW2 8310   4.017   9.060   9.333  2.3896 -0.1670  3.3448
30234SOL     OW 8311   4.609   7.418  12.876 -0.3737 -0.8379  0.6355
30234SOL    HW1 8312   4.637   7.365  12.950  0.4935 -0.4711  0.5835
30234SOL    HW2 8313   4.656   7.380  12.801  1.3417  0.7915  0.8023
30235SOL     OW 8314   0.104   3.223   7.675  0.5055  0.2105  0.4235
30235SOL    HW1 8315   0.032   3.161   7.678  0.4037  0.0945 -1.9555
30235SOL    HW2 8316   0.099   3.271   7.758 -2.7333  0.6499  0.1119
30236SOL     OW 8317  10.152  13.438   4.371  0.1371 -0.0401  0.4963
30236SOL    HW1 8318  10.073  13.453   4.423 -0.9149 -0.8789 -0.8051
30236SOL    HW2 8319  10.175  13.347   4.389  0.2577 -0.0789  0.1462
30237SOL     OW 8320   1.885  10.504   1.755  0.4472  0.0669  0.5784
30237SOL    HW1 8321   1.791  10.493   1.766  0.3940 -1.0810 -0.7177
30237SOL    HW2 8322   1.919  10.508   1.844 -0.7352 -0.4437  1.0790
30238SOL     OW 8323  10.849   9.593  11.147 -0.1754 -0.5293 -0.1764
30238SOL    HW1 8324  10.842   9.610  11.241 -3.8108 -1.1512 -0.1851
30238SOL    HW2 8325  10.871   9.678  11.108  0.2048 -0.0202  1.1065
30239SOL     OW 8326   8.504  10.122   6.919 -0.1192  0.2188 -0.2505
30239SOL    HW1 8327   8.590  10.140   6.882 -0.9720  1.7250 -1.5968
30239SOL    HW2 8328   8.483  10.033   6.891  1.6395 -0.8112  1.4658
30240SOL     OW 8329   9.997   5.865  12.746 -0.4179  0.5414  0.5404
30240SOL    HW1 8330   9.997   5.786  12.692 -0.8716  0.8179  0.1329
30240SOL    HW2 8331   9.999   5.832  12.836  1.4048  0.0720  0.3841
30241SOL     OW 8332  12.483   8.166  13.010  0.1418  0.9918  0.2710
30241SOL    HW1 8333  12.563   8.142  13.056 -0.7852  0.9284  1.9008
30241SOL    HW2 8334  12.475   8.100  12.940  2.2501  1.8619 -0.8835
30242SOL     OW 8335  10.948  12.257   6.433  0.0290 -0.3575  0.1357
30242SOL    HW1 8336  10.938  12.238   6.339 -1.3499  1.5888 -0.1579
30242SOL    HW2 8337  10.862  12.286   6.462  0.5807 -0.3484  1.8940
30243SOL     OW 8338   8.565   8.675   3.030  0.1870  0.6261 -0.6422
30243SOL    HW1 8339   8.571   8.588   2.990  1.9434 -0.3213  1.4876
30243SOL    HW2 8340   8.604   8.734   2.965  2.3093 -0.7389 -0.7120
30244SOL     OW 8341   8.329  12.061   0.610 -0.1395 -0.8079  0.7208
30244SOL    HW1 8342   8.400  12.058   0.545 -0.4640 -0.7052  0.3580
30244SOL    HW2 8343   8.295  11.972   0.611 -1.0839 -0.4831 -0.3224
30245SOL     OW 8344  11.190   1.153  10.629  0.3213 -0.4681  0.4155
30245SOL    HW1 8345  11.206   1.066  10.593  1.4694 -0.0726 -0.0943
30245SOL    HW2 8346  11.228   1.150  10.717  0.2032 -0.5434  0.4634
30246SOL     OW 8347   0.991  13.250   4.875  0.0081  0.5933  0.2516
30246SOL    HW1 8348   0.919  13.294   4.829 -0.9487 -0.4655  0.6653
30246SOL    HW2 8349   1.066  13.308   4.866 -0.3163  0.7303 -2.0974
30247SOL     OW 8350  12.852   9.524   8.083  0.1055 -0.2666 -0.2792
30247SOL    HW1 8351  12.789   9.593   8.063  0.1724 -0.5870 -1.7307
30247SOL    HW2 8352  12.831   9.496   8.172 -0.7098  0.7702 -0.1324
30248SOL     OW 8353   2.211  10.445   7.559 -0.1165 -0.4512 -0.0168
30248SOL    HW1 8354   2.191  10.362   7.515 -2.2175  0.3037 -0.6167
30248SOL    HW2 8355   2.299  10.467   7.529  0.1530 -2.0428 -0.4982
30249SOL     OW 8356   4.851   8.245   3.539  0.2087 -0.2713 -0.2372
30249SOL    HW1 8357   4.923   8.196   3.578  0.0080 -2.3066 -2.2133
30249SOL    HW2 8358   4.872   8.248   3.446 -1.7386  0.0066 -0.7061
30250SOL     OW 8359   2.647   8.160   0.990 -0.0840 -0.2167  0.1228
30250SOL    HW1 8360   2.667   8.233   0.931  1.3148 -0.5634  0.1221
30250SOL    HW2 8361   2.608   8.093   0.933  2.1343 -0.9324 -0.6747
30251SOL     OW 8362   4.030   6.642  11.106  0.1360 -0.2887  0.2452
30251SOL    HW1 8363   4.028   6.703  11.032 -0.4279 -0.3658  0.1924
30251SOL    HW2 8364   3.949   6.660  11.154  1.2447  0.9069  1.7924
30252SOL     OW 8365   5.685  11.991   7.425  1.4321 -0.3637 -0.1376
30252SOL    HW1 8366   5.706  12.009   7.334 -0.6409 -1.2168 -0.8473
30252SOL    HW2 8367   5.770  11.986   7.469  2.5076 -0.5840 -2.1454
30253SOL     OW 8368   6.649  11.875   0.532  0.3254 -0.5712  0.6023
30253SOL    HW1 8369   6.623  11.890   0.622 -0.0284 -1.4197  0.6485
30253SOL    HW2 8370   6.624  11.784   0.514  2.5308 -1.2178  0.4094
30254SOL     OW 8371   3.381   7.047   2.268 -0.1680  0.0109 -0.1239
30254SOL    HW1 8372   3.366   7.092   2.185  0.7889 -0.5031 -0.5969
30254SOL    HW2 8373   3.367   7.114   2.335 -0.3039  0.6025 -0.7361
30255SOL     OW 8374   9.187  13.739   5.883 -0.2061 -0.1663 -0.6678
30255SOL    HW1 8375   9.152  13.821   5.917 -0.5473 -1.3011  2.0367
30255SOL    HW2 8376   9.250  13.711   5.949  0.7499 -1.5314 -2.0886
30256SOL     OW 8377  11.137   4.548   2.865  0.1085  0.6295 -0.2794
30256SOL    HW1 8378  11.121   4.610   2.793 -1.4189 -0.0958 -0.6136
30256SOL    HW2 8379  11.209   4.494   2.834  0.4408  1.2540 -0.6286
30257SOL     OW 8380   5.184  11.586   3.451  0.9259  0.1130 -0.4879
30257SOL    HW1 8381   5.132  11.601   3.530 -3.0103 -1.3335 -2.5274
30257SOL    HW2 8382   5.207  11.493   3.454  1.7263  0.3037 -0.5421
30258SOL     OW 8383  13.689   2.971   2.157 -0.4422  0.0252  0.0769
30258SOL    HW1 8384  13.718   2.892   2.202 -0.3989  1.0298  1.8896
30258SOL    HW2 8385  13.596   2.978   2.177 -0.6843 -0.0835 -0.9292
30259SOL     OW 8386  13.521  10.112   6.849  0.4879 -0.0220 -0.1041
30259SOL    HW1 8387  13.556  10.195   6.816 -3.1962  1.3694 -1.0230
30259SOL    HW2 8388  13.544  10.048   6.783  0.3006  1.0668 -1.2665
30260SOL     OW 8389   2.625  11.118   1.057  0.8383  0.0713  0.0961
30260SOL    HW1 8390   2.697  11.179   1.076  1.9027 -0.8444 -0.8855
30260SOL    HW2 8391   2.655  11.034   1.093 -0.3657 -0.0285  0.9184
30261SOL     OW 8392   5.332   7.533   8.375  0.2215  0.4437 -0.1155
30261SOL    HW1 8393   5.274   7.609   8.380  0.4080  0.5233  0.8604
30261SOL    HW2 8394   5.293   7.469   8.434 -0.2337 -0.4412 -1.3269
30262SOL     OW 8395   9.261   7.213   3.678 -0.0576 -0.0659  0.3503
30262SOL    HW1 8396   9.195   7.201   3.610 -2.1776  1.7472  1.9543
30262SOL    HW2 8397   9.327   7.269   3.639  0.8080 -2.1529 -1.3844
30263SOL     OW 8398   9.167  10.743   3.076 -0.1070 -0.4852 -0.2328
30263SOL    HW1 8399   9.169  10.792   2.994  0.8752 -0.5806 -0.2709
30263SOL    HW2 8400   9.079  10.706   3.079  0.1869 -1.3743 -1.7722
30264SOL     OW 8401  11.479   4.728   2.314 -0.0605  0.1027 -0.2199
30264SOL    HW1 8402  11.573   4.716   2.299 -0.4202 -1.5330 -1.5280
30264SOL    HW2 8403  11.470   4.820   2.339  1.9178  0.1981  0.2803
30265SOL     OW 8404  10.433  13.614   6.286 -0.1454  0.3726 -0.5182
30265SOL    HW1 8405  10.353  13.574   6.320  1.2694 -0.8848  1.6509
30265SOL    HW2 8406  10.421  13.708   6.300 -1.8526  0.3829 -1.7658
30266SOL     OW 8407  11.264   2.616   1.522 -0.2230 -0.3250 -0.3317
30266SOL    HW1 8408  11.194   2.655   1.470 -0.7019  2.3581  2.0803
30266SOL    HW2 8409  11.331   2.591   1.457 -0.9231  2.4359 -2.3012
30267SOL     OW 8410  13.936  11.901   9.985 -0.2814  0.1262 -0.2489
30267SOL    HW1 8411  13.946  11.819  10.033 -0.3582  0.1612 -0.1722
30267SOL    HW2 8412  13.958  11.969  10.048 -0.1420  0.1604 -0.3344
30268SOL     OW 8413   6.191  13.338   3.520  0.0293 -0.2508  0.1411
30268SOL    HW1 8414   6.203  13.385   3.437 -0.9145 -0.5184 -0.1554
30268SOL    HW2 8415   6.115  13.283   3.505 -0.3191 -0.0960  1.2884
30269SOL     OW 8416   9.166   0.875   7.776  0.3646 -0.5639 -0.6147
30269SOL    HW1 8417   9.164   0.795   7.722 -0.8632  0.0187 -1.4730
30269SOL    HW2 8418   9.102   0.933   7.735  0.7882  0.6358  0.3731
30270SOL     OW 8419   6.657  13.651   9.565  0.1444 -0.1914  0.4140
30270SOL    HW1 8420   6.615  13.694   9.640  0.2515 -0.4636  0.6341
30270SOL    HW2 8421   6.599  13.578   9.545 -0.6026  0.6577 -0.6399
30271SOL     OW 8422   9.088  12.347  13.263 -0.1033  0.2523  0.0377
30271SOL    HW1 8423   9.015  12.299  13.301  0.2442 -0.7270 -0.5203
30271SOL    HW2 8424   9.059  12.369  13.175  0.6601 -1.0718 -0.5699
30272SOL     OW 8425   4.421  13.274   2.937  0.3224  0.4143 -0.1182
30272SOL    HW1 8426   4.350  13.337   2.941 -1.3209 -1.4087  1.5997
30272SOL    HW2 8427   4.413  13.234   2.850 -0.1911  0.8577 -0.2784
30273SOL     OW 8428   6.754   5.261   2.506 -0.1659 -0.1092  0.1924
30273SOL    HW1 8429   6.719   5.172   2.504 -0.7535 -0.0153  2.7264
30273SOL    HW2 8430   6.822   5.258   2.573 -0.5633  1.4525  0.7076
30274SOL     OW 8431   7.502   4.941   0.603  0.7537 -0.4355  0.4304
30274SOL    HW1 8432   7.567   4.979   0.545  0.2734  0.9174  0.7478
30274SOL    HW2 8433   7.418   4.972   0.569  0.4767  0.6465  1.9934
30275SOL     OW 8434  12.033   7.516  13.655 -0.1317 -0.2833 -0.0940
30275SOL    HW1 8435  12.048   7.565  13.575 -0.2490 -2.2924 -1.4159
30275SOL    HW2 8436  11.978   7.573  13.709  0.1760  1.2153 -1.3042
30276SOL     OW 8437  13.064   1.706   1.739 -0.3513 -0.2473  0.5688
30276SOL    HW1 8438  12.987   1.712   1.682  0.2798  0.3456 -0.2426
30276SOL    HW2 8439  13.138   1.721   1.681  0.2530  1.7861  1.7787
30277SOL     OW 8440   7.875  12.412   2.494 -0.4149  0.3341 -0.0651
30277SOL    HW1 8441   7.948  12.446   2.442 -0.4373 -0.8890 -0.9394
30277SOL    HW2 8442   7.916  12.380   2.574 -0.1938  0.9751  0.0843
30278SOL     OW 8443   8.481   0.886   3.346  0.0322 -0.7900  0.4628
30278SOL    HW1 8444   8.439   0.837   3.275 -0.6838  1.0210 -0.4245
30278SOL    HW2 8445   8.465   0.978   3.324 -1.1794 -0.1516  3.5427
30279SOL     OW 8446   4.214   2.786   3.294 -0.0635  0.1524 -0.1377
30279SOL    HW1 8447   4.170   2.715   3.247 -0.1248 -0.1887  0.4159
30279SOL    HW2 8448   4.147   2.853   3.305 -0.6335 -0.5783  1.1584
30280SOL     OW 8449   4.994  13.953   9.939  0.2107 -0.2702 -0.0882
30280SOL    HW1 8450   4.946  13.962   9.857 -1.8706 -1.2962  0.9434
30280SOL    HW2 8451   4.971  14.030   9.990 -0.1408 -0.6330  0.3081
30281SOL     OW 8452   3.207   9.221   8.666 -0.3210 -0.4266  0.0491
30281SOL    HW1 8453   3.231   9.160   8.597 -0.8745 -0.1208 -0.4264
30281SOL    HW2 8454   3.222   9.308   8.629 -2.7504 -0.1783 -0.5739
30282SOL     OW 8455   3.327  10.675  13.177  0.0717  0.0515  0.2955
30282SOL    HW1 8456   3.361  10.616  13.245 -0.9939  0.4229  1.1847
30282SOL    HW2 8457   3.263  10.623  13.129 -0.5382  0.3383  0.7888
30283SOL     OW 8458   4.653  11.031   9.842 -0.0174 -0.5594  0.1342
30283SOL    HW1 8459   4.710  11.099   9.878 -0.0056 -1.1003  1.1655
30283SOL    HW2 8460   4.589  11.079   9.790  1.0255  0.1075 -0.5821
30284SOL     OW 8461   4.208   5.731   0.957 -0.1746  0.5780 -0.2687
30284SOL    HW1 8462   4.192   5.807   1.013 -0.3957 -0.9611  1.8480
30284SOL    HW2 8463   4.258   5.767   0.883  1.2789  2.5047  1.5161
30285SOL     OW 8464  11.755   0.423  11.382 -0.4221  0.2516 -0.5278
30285SOL    HW1 8465  11.707   0.344  11.407  1.9279 -1.0056  0.2495
30285SOL    HW2 8466  11.804   0.448  11.460 -0.3983  1.9641 -1.0457
30286SOL     OW 8467   7.926   4.341   7.419  0.2366 -0.6152  0.2572
30286SOL    HW1 8468   7.880   4.345   7.335 -0.6606 -0.6695  0.7321
30286SOL    HW2 8469   7.943   4.248   7.433 -0.8489 -0.7644  0.7612
30287SOL     OW 8470   4.126   5.806   7.509 -0.0696  0.2931 -0.3298
30287SOL    HW1 8471   4.123   5.866   7.584 -2.4636  0.1893 -0.2556
30287SOL    HW2 8472   4.105   5.861   7.434  0.1712 -0.0138 -0.6238
30288SOL     OW 8473   3.453   0.343   2.128  0.0819  0.3449  0.2491
30288SOL    HW1 8474   3.411   0.359   2.044  0.2858 -0.3002  0.0189
30288SOL    HW2 8475   3.524   0.407   2.132  1.8647 -1.3858 -1.3409
30289SOL     OW 8476  14.075  11.906   3.345  0.5966  0.0290  0.4081
30289SOL    HW1 8477  14.090  11.866   3.431 -1.5946 -0.2756  0.7040
30289SOL    HW2 8478  14.058  11.832   3.287 -4.7545  0.2208  1.2060
30290SOL     OW 8479   2.690   7.564  11.272 -0.0922  0.2778 -0.7966
30290SOL    HW1 8480   2.755   7.576  11.341 -0.9493  0.8192 -0.0597
30290SOL    HW2 8481   2.612   7.530  11.317 -0.2132 -0.7344 -1.7213
30291SOL     OW 8482   6.157   6.313   5.320 -0.0453 -0.0727 -0.5613
30291SOL    HW1 8483   6.070   6.321   5.359  0.2102 -0.5960  0.1436
30291SOL    HW2 8484   6.155   6.373   5.246  0.1788  2.7276  1.5288
30292SOL     OW 8485   2.400   5.502   1.233 -0.1432 -0.1093 -0.2820
30292SOL    HW1 8486   2.490   5.519   1.261 -0.2515 -0.2115  0.1336
30292SOL    HW2 8487   2.403   5.510   1.137  0.3062 -0.1153 -0.2723
30293SOL     OW 8488   0.338   5.814  10.624  0.0967 -0.3988  0.0326
30293SOL    HW1 8489   0.321   5.731  10.667 -0.8807 -1.1646 -1.7442
30293SOL    HW2 8490   0.266   5.825  10.563  1.5061  0.5183 -1.5477
30294SOL     OW 8491   5.102   3.863   9.712  0.7398  0.1735 -0.4681
30294SOL    HW1 8492   5.173   3.812   9.672  0.6463 -1.5870  1.4014
30294SOL    HW2 8493   5.118   3.855   9.807 -0.5684  1.8340 -0.0629
30295SOL     OW 8494   6.039   6.716   3.692 -0.3526  0.1006 -0.3782
30295SOL    HW1 8495   6.102   6.650   3.662 -1.5046 -1.1855 -0.0528
30295SOL    HW2 8496   5.971   6.666   3.737 -1.5103  1.4622 -0.5366
30296SOL     OW 8497   4.535  11.443   0.497 -0.2489 -0.5136  0.6299
30296SOL    HW1 8498   4.455  11.491   0.473 -0.0476 -0.7862 -0.6402
30296SOL    HW2 8499   4.542  11.455   0.592 -1.5017 -0.0307  0.6843
30297SOL     OW 8500  13.727   8.036  11.092 -0.2481  0.0083 -0.9784
30297SOL    HW1 8501  13.808   8.027  11.042  0.3077 -0.4085 -0.0334
30297SOL    HW2 8502  13.660   7.994  11.038  0.8008 -2.8072 -0.2610
30298SOL     OW 8503   3.428   7.768   9.555  0.1625  0.7061 -0.2162
30298SOL    HW1 8504   3.493   7.706   9.522  0.1964  0.3432  0.5095
30298SOL    HW2 8505   3.345   7.734   9.522  0.1039 -0.1367  0.7335
30299SOL     OW 8506  12.295  13.257   6.144 -0.5499  0.2133 -0.7112
30299SOL    HW1 8507  12.225  13.321   6.134 -0.4345  0.3580 -0.5973
30299SOL    HW2 8508  12.281  13.195   6.073 -0.9150  0.1279 -0.5711
30300SOL     OW 8509   1.556   1.874  12.429 -0.2387 -0.8763  0.2949
30300SOL    HW1 8510   1.547   1.835  12.342 -0.1965  0.8275 -0.5193
30300SOL    HW2 8511   1.469   1.907  12.449  0.1734  0.4013  0.0493
30301SOL     OW 8512  12.966  11.022  10.355 -0.5223  0.4343 -0.5386
30301SOL    HW1 8513  12.942  11.078  10.429 -1.1964  0.9585 -1.1404
30301SOL    HW2 8514  12.884  11.004  10.310 -0.0410  0.6708 -1.5424
30302SOL     OW 8515  11.384  11.364   4.961 -0.8267  0.0534 -0.0191
30302SOL    HW1 8516  11.385  11.452   4.923 -0.9594 -0.5013 -1.3479
30302SOL    HW2 8517  11.291  11.345   4.975 -0.7233  0.9903  2.4395
30303SOL     OW 8518   3.403   6.322  13.033  0.5545  0.1634  0.2258
30303SOL    HW1 8519   3.444   6.405  13.057  1.5269 -0.5505  1.1176
30303SOL    HW2 8520   3.476   6.261  13.022  0.1827  0.1371 -3.7859
30304SOL     OW 8521   5.637  11.726   3.439 -0.2839 -0.1657 -0.3674
30304SOL    HW1 8522   5.582  11.712   3.517 -1.5854 -1.2719 -1.4425
30304SOL    HW2 8523   5.575  11.735   3.367  0.9226  0.1894 -1.4038
30305SOL     OW 8524  11.238   3.548   3.692 -0.2637 -0.6027 -0.4226
30305SOL    HW1 8525  11.262   3.455   3.689  0.3386 -0.4363 -1.1936
30305SOL    HW2 8526  11.172   3.558   3.624  2.1788  0.1698 -2.8870
30306SOL     OW 8527   7.934   2.031   9.472  0.2106  0.5527  0.2996
30306SOL    HW1 8528   7.888   2.026   9.388 -0.7179  0.6806  0.7895
30306SOL    HW2 8529   8.013   1.980   9.459 -0.5657 -0.5453 -0.2543
30307SOL     OW 8530   5.659  11.999  11.026  0.0878 -0.1333  0.0892
30307SOL    HW1 8531   5.649  12.089  10.994  3.3865 -0.2899 -1.7918
30307SOL    HW2 8532   5.628  11.945  10.953  2.3794 -0.4495 -0.7386
30308SOL     OW 8533  10.169   0.138  11.491 -0.0394 -0.4262  0.3775
30308SOL    HW1 8534  10.249   0.096  11.461  1.0557  1.6653  0.2406
30308SOL    HW2 8535  10.191   0.174  11.577 -0.8704  0.0475  0.4026
30309SOL     OW 8536   2.539  12.581  12.848 -0.6838 -0.2820  0.2101
30309SOL    HW1 8537   2.623  12.624  12.863 -0.4233 -0.6045 -0.2676
30309SOL    HW2 8538   2.528  12.523  12.923  0.1915 -1.2630 -0.3919
30310SOL     OW 8539   6.502  12.377   6.189  0.0955  0.0517  0.4377
30310SOL    HW1 8540   6.476  12.285   6.193 -1.1122  0.3564 -0.1277
30310SOL    HW2 8541   6.477  12.405   6.101 -0.1675  1.0986  0.8373
30311SOL     OW 8542  10.947   0.771   9.091  0.0208 -0.0082  0.1522
30311SOL    HW1 8543  10.958   0.798   9.182 -1.6475  1.7411 -0.0817
30311SOL    HW2 8544  11.029   0.796   9.048  1.4353 -2.2103  1.3901
30312SOL     OW 8545  13.359  12.607  10.253  0.5550 -0.1656  0.0337
30312SOL    HW1 8546  13.386  12.621  10.343  0.8320  0.3127 -0.1233
30312SOL    HW2 8547  13.314  12.523  10.255  0.7775 -0.2773  0.5710
30313SOL     OW 8548  11.904   6.466   6.174 -0.1508  0.3629 -0.2590
30313SOL    HW1 8549  11.941   6.380   6.194  0.0229 -0.0712 -2.2435
30313SOL    HW2 8550  11.933   6.522   6.245  0.0087 -1.1384  0.9065
30314SOL     OW 8551   0.792   2.333   9.674  0.3176  0.7153  0.2491
30314SOL    HW1 8552   0.824   2.311   9.587  0.7469 -0.1723  0.6201
30314SOL    HW2 8553   0.713   2.386   9.658 -0.2879 -0.4288 -0.6844
30315SOL     OW 8554   0.982   0.451   6.176 -0.0992 -0.2770  0.2491
30315SOL    HW1 8555   0.938   0.370   6.202 -0.5272 -0.2034 -0.2297
30315SOL    HW2 8556   0.932   0.520   6.220  1.2288 -0.3406  1.9772
30316SOL     OW 8557  12.238  12.647   4.361  0.2668  0.3491  0.2933
30316SOL    HW1 8558  12.294  12.602   4.424  0.3658  1.3469  0.9306
30316SOL    HW2 8559  12.256  12.740   4.374 -0.7309  0.6377 -0.2483
30317SOL     OW 8560  12.050   0.111   5.452  0.1441  0.7410  0.1037
30317SOL    HW1 8561  11.957   0.095   5.436  0.2479 -0.2771  0.4544
30317SOL    HW2 8562  12.052   0.160   5.534 -0.1066  1.3128 -0.2229
30318SOL     OW 8563  13.774  12.902   6.234  0.0730 -0.2148 -0.4489
30318SOL    HW1 8564  13.776  12.990   6.270  1.4232  0.1809 -1.4195
30318SOL    HW2 8565  13.686  12.869   6.255  0.1712  0.6518  1.5244
30319SOL     OW 8566  11.923   9.615  11.972  0.2312  0.0438  0.6321
30319SOL    HW1 8567  11.990   9.563  12.017  0.6195 -0.5389 -0.5700
30319SOL    HW2 8568  11.875   9.659  12.042  0.9887 -0.6154  1.5869
30320SOL     OW 8569   5.721   6.180  12.965 -0.0423 -0.0685  0.4178
30320SOL    HW1 8570   5.647   6.169  12.906 -0.7224 -0.1904  1.2691
30320SOL    HW2 8571   5.743   6.274  12.959 -1.7687  0.4836  1.8519
30321SOL     OW 8572  11.762  11.097   7.403  0.4387 -0.4308 -0.5776
30321SOL    HW1 8573  11.728  11.183   7.430  0.0287 -0.1936 -1.7816
30321SOL    HW2 8574  11.822  11.118   7.330 -0.2412 -1.2123 -1.3810
30322SOL     OW 8575   2.213  10.714   8.090  0.7922 -0.0108 -0.4820
30322SOL    HW1 8576   2.187  10.622   8.092  1.7013 -0.3430 -2.2291
30322SOL    HW2 8577   2.278  10.722   8.160 -1.2988  0.0115  1.5480
30323SOL     OW 8578  12.966   1.956  11.498 -0.3667 -0.1960 -0.0569
30323SOL    HW1 8579  12.987   1.926  11.410  1.1887  0.7272 -0.0509
30323SOL    HW2 8580  13.031   2.024  11.516 -2.2165  1.4377  0.8418
30324SOL     OW 8581  12.643   2.655   8.157 -0.4617 -0.0834 -0.0030
30324SOL    HW1 8582  12.584   2.644   8.083 -1.1598  1.1367  0.3410
30324SOL    HW2 8583  12.698   2.576   8.156 -0.0312  0.1556 -2.1752
30325SOL     OW 8584   4.388   6.592  14.071 -0.1622 -0.1858  0.4504
30325SOL    HW1 8585   4.359   6.601  14.162  1.3044  2.9657  0.7126
30325SOL    HW2 8586   4.484   6.596  14.076 -0.0728  3.2852 -1.3707
30326SOL     OW 8587  12.889   4.091  13.716  0.1829 -0.3203  0.5168
30326SOL    HW1 8588  12.983   4.081  13.700  0.9519 -0.4142  4.2447
30326SOL    HW2 8589  12.848   4.031  13.654  2.7347 -1.8979  0.2078
30327SOL     OW 8590   7.233   6.278   4.264  0.2166  0.1353 -0.1785
30327SOL    HW1 8591   7.244   6.317   4.177  2.6771 -2.0333 -1.0016
30327SOL    HW2 8592   7.198   6.190   4.246 -2.0630  0.6475  1.3230
30328SOL     OW 8593   9.385   4.008  11.735  0.0614 -0.1127  0.0735
30328SOL    HW1 8594   9.295   3.974  11.737 -0.0396  0.1572  0.0766
30328SOL    HW2 8595   9.407   4.021  11.828  1.2184 -3.1092  0.3432
30329SOL     OW 8596   5.260   2.425   6.188  0.5841  0.2977 -0.2688
30329SOL    HW1 8597   5.261   2.444   6.282 -0.7342  1.7469 -0.5142
30329SOL    HW2 8598   5.329   2.359   6.177  3.1230  2.4771  1.2153
30330SOL     OW 8599   4.229  10.531   1.606 -0.0788 -0.1457  0.1458
30330SOL    HW1 8600   4.139  10.499   1.616 -0.2212  0.2633  0.1684
30330SOL    HW2 8601   4.221  10.612   1.556  0.1393  0.6559  1.3509
30331SOL     OW 8602   9.159   1.524   5.604  0.0635 -0.2540 -0.2320
30331SOL    HW1 8603   9.139   1.616   5.617 -1.4320 -0.6035  0.1591
30331SOL    HW2 8604   9.251   1.522   5.579  0.6000  1.1984  1.4804
30332SOL     OW 8605  13.250   2.429   0.322  0.4103  0.2020  0.5042
30332SOL    HW1 8606  13.340   2.445   0.350  0.2976  0.2446  0.8542
30332SOL    HW2 8607  13.205   2.400   0.402  0.6335 -1.9702 -0.0904
30333SOL     OW 8608  12.456   4.005   2.322 -0.0793 -0.1608  0.2787
30333SOL    HW1 8609  12.409   3.936   2.276  0.2588  0.1535 -0.5615
30333SOL    HW2 8610  12.548   3.991   2.298  0.0343  0.3489  0.4024
30334SOL     OW 8611   3.892  10.305  11.513 -0.2278 -0.6579  0.0859
30334SOL    HW1 8612   3.896  10.396  11.482 -2.8783 -1.0268 -1.6628
30334SOL    HW2 8613   3.969  10.263  11.475 -1.0224  0.0039 -2.5042
30335SOL     OW 8614  10.761  12.283  10.540  0.2012  0.6255  0.3564
30335SOL    HW1 8615  10.720  12.301  10.456  2.8742  0.9734 -0.9690
30335SOL    HW2 8616  10.764  12.187  10.545  2.3428  0.5419 -1.2443
30336SOL     OW 8617   5.874  12.488   5.918 -0.1991  0.1435 -0.2846
30336SOL    HW1 8618   5.826  12.408   5.936 -1.3935  0.9829  0.3772
30336SOL    HW2 8619   5.957  12.458   5.879 -0.2763 -1.4259  0.6901
30337SOL     OW 8620  11.469  10.273   5.729  0.4920 -0.2936 -0.0718
30337SOL    HW1 8621  11.421  10.340   5.681  1.2443  0.0978 -0.2948
30337SOL    HW2 8622  11.551  10.316   5.755  0.2820 -0.6278  1.2023
30338SOL     OW 8623  13.655   0.038   8.775 -0.2057 -0.0644  0.2258
30338SOL    HW1 8624  13.646   0.115   8.832  0.3601  1.3064 -1.4489
30338SOL    HW2 8625  13.625   0.069   8.690  1.4172 -1.2842 -0.8247
30339SOL     OW 8626   3.212   4.369  12.289 -0.1081 -0.2467  0.0991
30339SOL    HW1 8627   3.179   4.279  12.298  0.9006 -0.6781 -0.4008
30339SOL    HW2 8628   3.157   4.407  12.220  1.2648 -1.4058 -1.7207
30340SOL     OW 8629  12.432   8.330   7.703 -0.2720 -0.3858 -0.0845
30340SOL    HW1 8630  12.340   8.312   7.720 -0.1915 -1.5636 -0.7754
30340SOL    HW2 8631  12.443   8.314   7.609  0.4044  0.8566 -0.2546
30341SOL     OW 8632   9.814   3.213   5.147 -0.1076 -0.4762  0.1159
30341SOL    HW1 8633   9.723   3.241   5.159 -0.0298 -0.6862  1.2782
30341SOL    HW2 8634   9.810   3.117   5.153 -0.0885 -0.6377 -1.8677
30342SOL     OW 8635   7.256  12.904   8.311 -0.5982 -0.7766 -0.3451
30342SOL    HW1 8636   7.244  12.997   8.329 -0.2061 -0.7928  0.0234
30342SOL    HW2 8637   7.184  12.861   8.356  0.2202 -0.7938  0.9916
30343SOL     OW 8638  10.488   1.178  10.368 -0.0039  0.5609  0.1713
30343SOL    HW1 8639  10.526   1.266  10.367  2.8536 -0.5786  0.1710
30343SOL    HW2 8640  10.519   1.138  10.287 -0.2073 -0.8741  0.7806
30344SOL     OW 8641   0.808  12.890   5.497 -0.3429  0.1231 -0.4626
30344SOL    HW1 8642   0.818  12.882   5.592  0.0409 -2.1383 -0.6385
30344SOL    HW2 8643   0.742  12.959   5.486 -1.5810 -0.6618  1.4981
30345SOL     OW 8644   9.487   8.412   6.577 -0.6112 -0.2366  0.3522
30345SOL    HW1 8645   9.426   8.471   6.531  0.4946  1.5551  1.0911
30345SOL    HW2 8646   9.434   8.335   6.597 -1.6319 -0.3226 -2.2789
30346SOL     OW 8647   2.483  13.634   3.955 -0.0101  0.9139  0.4152
30346SOL    HW1 8648   2.530  13.562   3.913 -1.3084 -0.6233  1.4996
30346SOL    HW2 8649   2.397  13.599   3.975 -1.0955  3.1473 -0.0067
30347SOL     OW 8650   7.214   9.721   1.499 -0.5914 -0.0344  0.3080
30347SOL    HW1 8651   7.168   9.804   1.481  0.2717  1.0114  2.4888
30347SOL    HW2 8652   7.241   9.729   1.591  2.5173 -1.2766 -0.3853
30348SOL     OW 8653   6.635  11.899   2.487 -0.3856 -0.3714 -0.7613
30348SOL    HW1 8654   6.652  11.824   2.544 -2.8960  0.5125  1.3684
30348SOL    HW2 8655   6.602  11.861   2.406 -1.3065 -1.5931  0.1511
30349SOL     OW 8656  10.814   4.339   6.201  0.5114 -0.1744 -0.1695
30349SOL    HW1 8657  10.886   4.321   6.261  0.0928  0.3417  0.5110
30349SOL    HW2 8658  10.758   4.400   6.250 -0.8049 -1.1995 -0.3623
30350SOL     OW 8659   8.042  10.786   2.104  0.4381 -0.2470 -0.0465
30350SOL    HW1 8660   8.112  10.777   2.169  2.4229  0.8535 -1.9208
30350SOL    HW2 8661   7.971  10.830   2.152  0.9985 -1.3509  1.8966
30351SOL     OW 8662   7.314   7.004  13.433 -0.2303 -0.1943 -0.1850
30351SOL    HW1 8663   7.333   6.914  13.459 -0.4251 -0.4022 -0.7562
30351SOL    HW2 8664   7.389   7.032  13.381 -0.7411 -0.4773 -1.1023
30352SOL     OW 8665  10.657   2.723   4.778 -0.5394  0.2502  0.3522
30352SOL    HW1 8666  10.664   2.739   4.684  1.1848 -2.5397 -0.1047
30352SOL    HW2 8667  10.703   2.796   4.818 -1.0649  1.3494 -0.9402
30353SOL     OW 8668   2.327  12.911   6.431  0.0425 -0.3455  0.3314
30353SOL    HW1 8669   2.409  12.935   6.386 -0.3918  0.6268  0.0204
30353SOL    HW2 8670   2.275  12.867   6.364 -0.3467  0.5276  0.0487
30354SOL     OW 8671  14.081   1.062   4.397  0.2012 -0.7721 -0.1324
30354SOL    HW1 8672  14.152   1.126   4.392 -0.4411 -0.0803 -0.7867
30354SOL    HW2 8673  14.032   1.087   4.475 -0.3609 -0.1028 -0.6807
30355SOL     OW 8674  10.732   1.094   9.622  0.5776  0.2444  0.2696
30355SOL    HW1 8675  10.809   1.043   9.649  2.3364  1.6094 -1.7999
30355SOL    HW2 8676  10.715   1.152   9.696 -0.0145 -1.6776  1.7220
30356SOL     OW 8677   0.410   6.951   2.637 -0.0866 -0.1880  0.3049
30356SOL    HW1 8678   0.344   6.883   2.621 -1.8953  1.3195  1.0092
30356SOL    HW2 8679   0.437   6.979   2.550 -0.4869 -0.7370  0.0002
30357SOL     OW 8680   7.914   5.204   4.743 -0.1578  0.1041 -0.2947
30357SOL    HW1 8681   7.828   5.244   4.756 -0.0585 -0.2778  1.9640
30357SOL    HW2 8682   7.894   5.112   4.724 -0.2588  0.0187  0.2102
30358SOL     OW 8683   0.732  13.865   7.343  0.3159 -0.2490 -0.5763
30358SOL    HW1 8684   0.720  13.950   7.300  0.1494 -0.6816 -1.4096
30358SOL    HW2 8685   0.729  13.802   7.272  1.2772 -0.8964 -0.0660
30359SOL     OW 8686   1.614   4.917  13.760  0.1948  0.0140 -0.1600
30359SOL    HW1 8687   1.693   4.957  13.798 -0.9840  0.9611  1.4365
30359SOL    HW2 8688   1.547   4.928  13.827 -1.6408  0.3783 -1.9380
30360SOL     OW 8689  12.163   0.219   7.872  0.1419  0.0885 -0.1517
30360SOL    HW1 8690  12.173   0.263   7.788  0.2752  0.3518  0.0015
30360SOL    HW2 8691  12.171   0.126   7.851  2.0336  0.2208 -0.1910
30361SOL     OW 8692   1.404   6.318   7.694 -1.1355  0.0202  0.0309
30361SOL    HW1 8693   1.330   6.360   7.652 -1.3503 -0.3111  0.0730
30361SOL    HW2 8694   1.366   6.273   7.770 -0.9171 -0.2805 -0.0361
30362SOL     OW 8695   0.406   0.742   8.112 -0.3913 -0.5100 -0.9055
30362SOL    HW1 8696   0.324   0.708   8.078 -0.8876  0.4689 -0.7181
30362SOL    HW2 8697   0.425   0.688   8.189 -0.9260 -0.6687 -0.8842
30363SOL     OW 8698   5.189   3.083  10.149  0.0982  0.2833  0.1293
30363SOL    HW1 8699   5.241   3.163  10.140  0.1987  0.0961 -1.0794
30363SOL    HW2 8700   5.213   3.030  10.073 -2.5881  0.6118 -1.0546
30364SOL     OW 8701   1.638   3.947   2.350 -0.0674 -0.4973  0.6428
30364SOL    HW1 8702   1.724   3.958   2.391 -0.0682 -1.1485  0.8288
30364SOL    HW2 8703   1.647   3.869   2.295 -0.6055 -0.7047  0.8451
30365SOL     OW 8704   1.692   8.572   9.666  0.6787 -0.3299 -0.0639
30365SOL    HW1 8705   1.599   8.577   9.688  0.8570  0.1511  0.5949
30365SOL    HW2 8706   1.719   8.662   9.653  1.2008 -0.4200  0.3744
30366SOL     OW 8707   9.891   0.128   7.798 -1.0205  0.1904  0.1387
30366SOL    HW1 8708   9.854   0.153   7.713 -0.6163  0.2924 -0.0088
30366SOL    HW2 8709   9.960   0.065   7.778 -0.1666  1.0477  0.2952
30367SOL     OW 8710  12.738   4.025   2.276 -0.4990  0.0445 -0.4302
30367SOL    HW1 8711  12.802   4.095   2.262 -2.2719  1.8329 -0.0537
30367SOL    HW2 8712  12.771   3.952   2.223  0.7201  1.6005 -1.9637
30368SOL     OW 8713  10.600   5.813   2.240  0.1402  0.2733 -0.4220
30368SOL    HW1 8714  10.537   5.798   2.310 -0.7147 -0.4331 -1.3043
30368SOL    HW2 8715  10.622   5.906   2.246 -2.0837  0.9053 -0.9311
30369SOL     OW 8716   0.299   1.303  12.731  0.2140 -0.3604  0.2984
30369SOL    HW1 8717   0.246   1.284  12.654  0.0120  0.6902  0.1669
30369SOL    HW2 8718   0.235   1.309  12.803  0.1720  0.6030  0.1935
30370SOL     OW 8719   0.236  11.758  10.937 -0.2814 -0.1860  0.5529
30370SOL    HW1 8720   0.167  11.773  10.873  0.0940 -0.9223 -0.0477
30370SOL    HW2 8721   0.297  11.831  10.924 -1.0587  0.6160  1.2744
30371SOL     OW 8722   8.765   4.637   0.095  0.3242  0.9628 -0.0934
30371SOL    HW1 8723   8.695   4.683   0.049  0.9533  0.2972 -1.7846
30371SOL    HW2 8724   8.827   4.612   0.027  1.5443  0.3250  1.1818
30372SOL     OW 8725   6.425   4.216  12.710 -0.1940  0.1887  0.2299
30372SOL    HW1 8726   6.427   4.175  12.623 -0.2087  0.5537  0.0542
30372SOL    HW2 8727   6.489   4.167  12.761 -1.2692 -1.0175  0.4659
30373SOL     OW 8728  13.237   0.790   6.178 -0.0990 -0.5984 -0.2286
30373SOL    HW1 8729  13.175   0.719   6.162 -2.1473  0.7651  1.2252
30373SOL    HW2 8730  13.278   0.768   6.261  0.0102 -0.5776 -0.2772
30374SOL     OW 8731  12.776   5.663   2.042 -0.6244  0.2981  0.0955
30374SOL    HW1 8732  12.727   5.602   2.096 -0.0401  0.2025  0.5247
30374SOL    HW2 8733  12.866   5.653   2.071 -0.2971  0.2246 -0.9171
30375SOL     OW 8734   2.627   6.072  11.008  0.2127 -0.2118 -0.2354
30375SOL    HW1 8735   2.534   6.094  11.017  0.0259 -1.0550  0.0028
30375SOL    HW2 8736   2.661   6.135  10.944 -0.4593  0.2722 -0.1258
30376SOL     OW 8737  10.542   6.879   3.605  0.5798 -0.4591  0.0277
30376SOL    HW1 8738  10.595   6.853   3.530 -0.2074 -2.5585  0.1205
30376SOL    HW2 8739  10.453   6.854   3.582 -0.1927  1.7048  0.4499
30377SOL     OW 8740   1.846   5.674   7.301  0.2000  0.4589 -0.3214
30377SOL    HW1 8741   1.797   5.713   7.228 -3.2132  0.5609  1.7850
30377SOL    HW2 8742   1.909   5.742   7.326 -0.1189  1.3240 -1.7531
30378SOL     OW 8743  11.117   6.606  13.666  0.8373 -0.0983 -0.1019
30378SOL    HW1 8744  11.175   6.649  13.605 -1.2301  1.2684 -1.2194
30378SOL    HW2 8745  11.153   6.517  13.675  3.3838  0.8428 -0.2052
30379SOL     OW 8746   8.651  10.750   6.741  0.3067 -0.0664  0.0773
30379SOL    HW1 8747   8.572  10.738   6.688 -0.2300 -1.0649  1.0559
30379SOL    HW2 8748   8.624  10.807   6.813  0.1821 -1.1877  0.9553
30380SOL     OW 8749  12.981   0.703   5.113 -0.2163 -0.1878  0.7342
30380SOL    HW1 8750  12.977   0.768   5.042  0.5106 -0.1947  0.6773
30380SOL    HW2 8751  12.934   0.744   5.185 -1.4867 -0.4203  0.0771
30381SOL     OW 8752  10.086  10.338  13.222  0.2170  0.0037  0.9103
30381SOL    HW1 8753  10.010  10.348  13.164  0.7072 -0.1896  0.2177
30381SOL    HW2 8754  10.144  10.411  13.199  0.9916 -0.7946  0.2286
30382SOL     OW 8755  11.586   8.937   5.067  0.4727 -0.0993 -0.0711
30382SOL    HW1 8756  11.503   8.933   5.020  1.0025  0.4776 -1.0840
30382SOL    HW2 8757  11.561   8.956   5.158 -0.6809 -3.1834  0.3702
30383SOL     OW 8758   0.538   2.119  13.754  0.6941  0.2437  0.0147
30383SOL    HW1 8759   0.487   2.184  13.802 -0.4630  0.1737 -1.0623
30383SOL    HW2 8760   0.494   2.113  13.669  1.2036 -1.4261 -0.1589
30384SOL     OW 8761   9.824   2.868   5.057  0.3115  0.2792 -0.4646
30384SOL    HW1 8762   9.888   2.873   4.987 -0.2828  2.4796 -0.9346
30384SOL    HW2 8763   9.765   2.797   5.031  0.1586  0.9804 -2.1799
30385SOL     OW 8764   3.200   6.424   3.320 -0.1109  0.0722  0.3247
30385SOL    HW1 8765   3.124   6.367   3.309  1.2854 -1.7962 -0.0326
30385SOL    HW2 8766   3.250   6.385   3.392  1.1241  0.5635 -0.2387
30386SOL     OW 8767   8.005   1.686   6.332 -0.0575 -0.5158 -0.4298
30386SOL    HW1 8768   7.935   1.750   6.322 -0.1756 -0.3610  1.1913
30386SOL    HW2 8769   8.021   1.654   6.243 -0.2933  1.4191 -1.2006
30387SOL     OW 8770   1.610   1.681   3.909  0.4706 -0.3468 -0.1355
30387SOL    HW1 8771   1.595   1.726   3.826  0.0032 -0.0023  0.1307
30387SOL    HW2 8772   1.698   1.644   3.901  0.8562  0.6081 -0.3512
30388SOL     OW 8773   0.701   4.376   4.775  0.4611 -0.0362 -0.3028
30388SOL    HW1 8774   0.748   4.314   4.831 -0.4632 -0.9950 -0.5717
30388SOL    HW2 8775   0.771   4.424   4.730  1.2794  1.2759  2.1517
30389SOL     OW 8776   1.718  12.443   7.666  0.1270 -0.1923 -0.1027
30389SOL    HW1 8777   1.697  12.350   7.662  0.1816 -0.1916 -0.4707
30389SOL    HW2 8778   1.812  12.448   7.647  0.2336 -0.1040  0.4386
30390SOL     OW 8779   2.496   1.428   7.924 -0.3284  0.6810  0.0214
30390SOL    HW1 8780   2.406   1.401   7.946 -0.1691  0.1411  0.0238
30390SOL    HW2 8781   2.546   1.409   8.003 -0.1346  0.6064 -0.1209
30391SOL     OW 8782   0.414  10.353  13.570  0.1566 -0.5146  0.3084
30391SOL    HW1 8783   0.387  10.425  13.627  0.9169 -2.4653  3.3251
30391SOL    HW2 8784   0.337  10.333  13.517 -0.5579  1.4210  0.5453
30392SOL     OW 8785   6.875   0.579   6.238  0.7616  0.5080 -0.2635
30392SOL    HW1 8786   6.866   0.665   6.279 -0.0329  2.1568 -3.5718
30392SOL    HW2 8787   6.786   0.544   6.236  0.6055  0.9178 -1.3898
30393SOL     OW 8788   2.191   4.387   5.944 -0.0525  0.5449  0.3881
30393SOL    HW1 8789   2.124   4.452   5.964 -2.4968 -1.9918  0.9244
30393SOL    HW2 8790   2.220   4.355   6.029  2.2286  1.8086  0.1951
30394SOL     OW 8791  11.998   1.074   8.365  0.0628  0.1656 -0.9488
30394SOL    HW1 8792  11.936   1.147   8.358  0.7964  0.6868 -2.3122
30394SOL    HW2 8793  12.046   1.091   8.445 -1.0063  0.1801 -0.2906
30395SOL     OW 8794   7.030   7.602   9.053  0.0895  0.3674 -0.0596
30395SOL    HW1 8795   7.070   7.533   9.106  0.9214  1.8499  1.3234
30395SOL    HW2 8796   7.086   7.608   8.975  1.2066  0.7898  0.7440
30396SOL     OW 8797   3.629   9.895   8.524  0.1832  0.2631 -0.1718
30396SOL    HW1 8798   3.716   9.919   8.554  0.3801  0.5793 -0.9488
30396SOL    HW2 8799   3.595   9.835   8.590  0.6242  0.8602  0.6088
30397SOL     OW 8800   0.744   0.179   2.386  0.2150 -0.1947  0.0043
30397SOL    HW1 8801   0.729   0.101   2.439 -0.5891  0.4176  0.6976
30397SOL    HW2 8802   0.837   0.198   2.398  0.6300 -1.5202 -0.8576
30398SOL     OW 8803   7.344  11.895   6.913  0.2071  0.3643  0.6340
30398SOL    HW1 8804   7.428  11.940   6.920 -0.4592  1.4208  2.2857
30398SOL    HW2 8805   7.350  11.847   6.830  1.3410  2.7176 -0.7545
30399SOL     OW 8806   6.553   7.757   2.086 -0.5776  0.2093  0.4114
30399SOL    HW1 8807   6.630   7.789   2.133 -0.7934 -0.2417  1.0870
30399SOL    HW2 8808   6.480   7.809   2.122 -0.6775  0.2030  0.2198
30400SOL     OW 8809  12.482   1.291   3.504 -0.2423 -0.4527 -0.2888
30400SOL    HW1 8810  12.413   1.306   3.439  0.3245 -0.0013 -0.8056
30400SOL    HW2 8811  12.530   1.215   3.470  0.5954  0.3210 -0.8830
30401SOL     OW 8812   5.721   8.454   0.286  0.0640  0.0462 -0.1772
30401SOL    HW1 8813   5.793   8.514   0.302  0.1054  0.4389 -1.6838
30401SOL    HW2 8814   5.661   8.503   0.229  0.0192 -1.2415 -1.3043
30402SOL     OW 8815   3.020  10.996  10.436 -0.2762 -0.4110  0.1614
30402SOL    HW1 8816   3.110  11.028  10.445 -0.3933  0.2183 -0.7972
30402SOL    HW2 8817   2.996  11.018  10.346 -0.8134 -2.0494 -0.1249
30403SOL     OW 8818   6.482   8.457   2.566 -0.3261 -0.1003  0.4917
30403SOL    HW1 8819   6.451   8.376   2.526 -0.9979 -0.2830  1.3492
30403SOL    HW2 8820   6.412   8.521   2.548  1.0112  0.8435 -1.8112
30404SOL     OW 8821   1.776   2.738   4.229  0.3811 -0.0111  0.2937
30404SOL    HW1 8822   1.693   2.780   4.205  0.6544  0.9041  0.8815
30404SOL    HW2 8823   1.766   2.716   4.322  0.6142 -0.3394  0.2421
30405SOL     OW 8824   2.372   3.786   0.217 -0.3422  0.1303  0.3003
30405SOL    HW1 8825   2.451   3.791   0.271  1.2663  0.5945 -1.9701
30405SOL    HW2 8826   2.335   3.874   0.221 -0.6848 -0.0503  1.2633
30406SOL     OW 8827   9.725   2.638   7.807 -0.0602  0.4387 -0.3939
30406SOL    HW1 8828   9.699   2.603   7.721  1.0044 -1.1664 -0.0937
30406SOL    HW2 8829   9.657   2.608   7.867 -1.1662  2.1197 -0.7382
30407SOL     OW 8830  11.147   6.136   2.802 -0.1492 -0.2675 -0.4518
30407SOL    HW1 8831  11.151   6.040   2.803  0.2951 -0.2482  0.3907
30407SOL    HW2 8832  11.178   6.162   2.889  0.2100  0.6572 -0.8493
30408SOL     OW 8833  11.307   1.161   8.743 -0.2449 -0.1409  0.8057
30408SOL    HW1 8834  11.242   1.101   8.706  0.9233 -0.4998 -0.8000
30408SOL    HW2 8835  11.378   1.104   8.774  0.7397  0.3525 -0.4532
30409SOL     OW 8836   0.532  11.026   7.278  0.5141 -0.1945 -0.5568
30409SOL    HW1 8837   0.469  10.990   7.216  0.6623 -0.0872 -0.7722
30409SOL    HW2 8838   0.596  11.072   7.223  1.1431 -0.8520 -0.3986
30410SOL     OW 8839  13.100   3.087  10.305  0.1911 -0.2691 -0.0797
30410SOL    HW1 8840  13.087   3.002  10.348 -1.3838 -0.4998 -0.9537
30410SOL    HW2 8841  13.016   3.132  10.313  1.0989  1.3812  0.6610
30411SOL     OW 8842   2.741   4.791   4.717 -0.8495  0.0518  0.5504
30411SOL    HW1 8843   2.828   4.804   4.755 -0.5723  0.3582 -0.1741
30411SOL    HW2 8844   2.756   4.733   4.642 -1.6703 -2.2325  2.0525
30412SOL     OW 8845  10.411   6.299  13.005 -0.1091 -0.1253  0.2338
30412SOL    HW1 8846  10.380   6.238  13.071  1.5594  1.2387  2.4453
30412SOL    HW2 8847  10.332   6.340  12.971 -1.1352 -2.2560 -0.0687
30413SOL     OW 8848  12.169   0.616  11.686 -0.4388  0.4699 -0.0823
30413SOL    HW1 8849  12.120   0.617  11.604 -0.0929 -0.9312 -0.3261
30413SOL    HW2 8850  12.125   0.681  11.740 -0.3878  1.7585 -1.5215
30414SOL     OW 8851   7.224  12.824  13.563  0.0889  0.1932  0.0039
30414SOL    HW1 8852   7.281  12.780  13.500 -2.4834 -0.9799 -1.6666
30414SOL    HW2 8853   7.227  12.916  13.538 -0.0840 -0.1087 -1.1633
30415SOL     OW 8854   0.890  13.177   3.281  0.1662  0.2723  0.5001
30415SOL    HW1 8855   0.939  13.256   3.308  0.3123  0.3087  0.1308
30415SOL    HW2 8856   0.946  13.104   3.308 -1.0787  0.1730  3.1483
30416SOL     OW 8857   6.636   2.328  11.760  0.5079  0.5235  0.6312
30416SOL    HW1 8858   6.582   2.407  11.761 -0.2582  0.0178 -0.0556
30416SOL    HW2 8859   6.644   2.304  11.852 -0.9120  0.2907  0.7053
30417SOL     OW 8860   7.198  10.649   6.801 -0.0602  0.2853 -0.8832
30417SOL    HW1 8861   7.198  10.658   6.706 -2.3340  4.3306 -0.7335
30417SOL    HW2 8862   7.260  10.714   6.832 -0.7082  0.3374  0.4060
30418SOL     OW 8863   6.697   0.832   4.243 -0.0271 -0.1891 -0.4319
30418SOL    HW1 8864   6.658   0.750   4.271  1.3457 -1.1728 -1.2815
30418SOL    HW2 8865   6.626   0.896   4.246 -0.6560 -0.9217  2.2050
30419SOL     OW 8866  10.010   8.966  13.455 -0.2334 -0.2362 -0.4101
30419SOL    HW1 8867  10.034   8.882  13.494  1.3716  0.3517 -0.0495
30419SOL    HW2 8868   9.964   9.013  13.525 -1.0139 -0.7430 -0.5703
30420SOL     OW 8869   7.043   8.702   2.989  0.0936 -0.0372 -0.3183
30420SOL    HW1 8870   7.134   8.697   3.018 -0.2218 -0.1677  0.6608
30420SOL    HW2 8871   7.022   8.613   2.962 -0.7781 -0.8670  2.7037
30421SOL     OW 8872   7.936   9.455   6.042  0.5839 -0.1537  0.1440
30421SOL    HW1 8873   7.938   9.551   6.040 -0.9629 -0.1035  0.5149
30421SOL    HW2 8874   7.871   9.431   5.976 -0.9329 -0.8313  1.8188
30422SOL     OW 8875   3.663  13.685   5.154  0.2988 -0.4362 -0.3120
30422SOL    HW1 8876   3.642  13.735   5.233  0.6380 -1.9356  0.7797
30422SOL    HW2 8877   3.643  13.744   5.082 -0.4753  0.8149  0.8793
30423SOL     OW 8878  11.564   2.366   1.141  0.5728 -0.0286 -0.0479
30423SOL    HW1 8879  11.603   2.282   1.115  1.5298  0.3761  0.0505
30423SOL    HW2 8880  11.470   2.353   1.129  0.5340 -1.6754  1.5306
30424SOL     OW 8881  13.173   2.714   6.863 -0.3252 -0.5501  0.0099
30424SOL    HW1 8882  13.142   2.623   6.858 -0.5620 -0.5889  1.5661
30424SOL    HW2 8883  13.220   2.728   6.781  0.8605 -2.5039  0.2836
30425SOL     OW 8884  11.851   7.893   4.761  0.2525 -0.5886 -0.0413
30425SOL    HW1 8885  11.838   7.988   4.765 -0.8724 -0.6746 -1.1008
30425SOL    HW2 8886  11.945   7.881   4.776  0.0569  0.4911  2.5485
30426SOL     OW 8887   1.532   7.156   3.602 -0.4078  0.4502  0.0558
30426SOL    HW1 8888   1.568   7.118   3.522  0.6411  2.3367 -0.4205
30426SOL    HW2 8889   1.599   7.217   3.632 -1.0770  0.2831  2.0226
30427SOL     OW 8890   2.355   7.616   9.017 -0.5707  0.3247 -0.3329
30427SOL    HW1 8891   2.318   7.572   9.093 -1.0208  0.4688 -0.4689
30427SOL    HW2 8892   2.411   7.550   8.976  1.0867  0.7491  1.0949
30428SOL     OW 8893  11.497   4.610   6.917  0.2938  0.1123 -0.1383
30428SOL    HW1 8894  11.529   4.699   6.932 -1.2407  0.5506  0.8511
30428SOL    HW2 8895  11.466   4.611   6.826  0.5605  0.5076 -0.2296
30429SOL     OW 8896   2.300   5.992   8.559 -0.4152  0.3072  0.2493
30429SOL    HW1 8897   2.214   5.966   8.590 -1.3829  3.1653  0.2660
30429SOL    HW2 8898   2.310   5.946   8.475 -1.6102 -0.6373  0.5975
30430SOL     OW 8899   4.948   8.799   1.246  0.0478  0.4932 -0.4687
30430SOL    HW1 8900   4.913   8.742   1.177  0.4101  0.3361 -0.5229
30430SOL    HW2 8901   5.006   8.742   1.296  0.8085  0.9438 -0.8236
30431SOL     OW 8902   1.040   9.908   6.433  0.4461 -0.8773 -0.2175
30431SOL    HW1 8903   1.126   9.870   6.448  1.4280  0.3381 -2.4381
30431SOL    HW2 8904   1.000   9.852   6.367 -0.3575 -1.2127  0.5277
30432SOL     OW 8905   5.973   0.509   5.626  0.0741  0.5023  0.7093
30432SOL    HW1 8906   6.052   0.504   5.572  0.9811 -1.6444  2.0952
30432SOL    HW2 8907   5.998   0.564   5.699 -0.5942  1.9724 -0.1376
30433SOL     OW 8908  12.628   4.839  11.374 -0.1273 -0.8494 -0.2257
30433SOL    HW1 8909  12.626   4.882  11.460  0.3307  0.8848 -1.0325
30433SOL    HW2 8910  12.700   4.776  11.380 -1.7125 -2.6325  1.4560
30434SOL     OW 8911   6.622  13.426   6.870 -0.2597  0.3323 -0.1166
30434SOL    HW1 8912   6.707  13.445   6.910 -1.0773 -0.4725  2.1757
30434SOL    HW2 8913   6.558  13.460   6.933 -1.6590 -1.4950 -0.4761
30435SOL     OW 8914   6.341  10.405   4.869 -0.3013 -0.6737 -1.1173
30435SOL    HW1 8915   6.421  10.458   4.860 -1.4048  1.9846  2.5626
30435SOL    HW2 8916   6.293  10.421   4.787  1.3403  0.5623 -1.8977
30436SOL     OW 8917   2.702   6.045  10.430  0.2786 -0.7730 -0.5749
30436SOL    HW1 8918   2.640   6.028  10.500  2.5419 -1.4902  1.4003
30436SOL    HW2 8919   2.769   6.100  10.470  2.1371 -1.9677 -1.8700
30437SOL     OW 8920   5.555   4.563  12.222  0.1548 -0.7868 -0.4167
30437SOL    HW1 8921   5.498   4.609  12.283  1.2034 -0.6138  0.4542
30437SOL    HW2 8922   5.495   4.519  12.161 -0.9668 -1.8844  1.3999
30438SOL     OW 8923   1.151   5.813   9.885  0.2807 -0.3535  0.2336
30438SOL    HW1 8924   1.183   5.820   9.975 -1.1121  0.0137  0.7261
30438SOL    HW2 8925   1.191   5.888   9.840  1.7862 -1.1070  0.2624
30439SOL     OW 8926   2.594   4.997   6.371  0.0418  0.3883 -0.3738
30439SOL    HW1 8927   2.607   5.072   6.313  1.5027 -0.1154 -0.7401
30439SOL    HW2 8928   2.507   5.010   6.409 -0.5364  1.2417 -1.9238
30440SOL     OW 8929   2.576   2.387  13.574  0.2269 -0.0710 -0.6803
30440SOL    HW1 8930   2.480   2.388  13.569  0.2565  0.2825 -1.2327
30440SOL    HW2 8931   2.595   2.390  13.668 -0.2923  2.5551 -0.5847
30441SOL     OW 8932  10.302   0.271   1.931  0.1192  0.0350  0.0608
30441SOL    HW1 8933  10.229   0.299   1.987  1.2382 -1.4356  2.4227
30441SOL    HW2 8934  10.376   0.325   1.958  0.2748  0.5726 -1.3545
30442SOL     OW 8935  11.301  13.527   6.825 -0.4936 -0.2095 -0.3310
30442SOL    HW1 8936  11.211  13.543   6.854 -0.0052  1.5957  0.3280
30442SOL    HW2 8937  11.322  13.441   6.861 -1.1555  0.3913  1.6616
30443SOL     OW 8938   1.804  13.615  11.778  0.2638 -0.2827  0.2107
30443SOL    HW1 8939   1.860  13.597  11.853  0.2746  2.6976  1.0563
30443SOL    HW2 8940   1.863  13.650  11.712 -0.0047 -1.3057 -0.6013
30444SOL     OW 8941   2.421   7.208  11.235 -0.2385 -0.0505  0.4701
30444SOL    HW1 8942   2.361   7.283  11.236  1.8496  1.6929  1.7119
30444SOL    HW2 8943   2.449   7.202  11.144 -1.0329  0.1344  0.1998
30445SOL     OW 8944   5.698  13.188  10.464  0.1316  0.5364  0.4058
30445SOL    HW1 8945   5.619  13.147  10.500  0.4176  0.2735  0.7325
30445SOL    HW2 8946   5.674  13.211  10.374 -0.3713  0.6043  0.5544
30446SOL     OW 8947   3.088   2.643   6.316  0.1103  0.8080 -0.1973
30446SOL    HW1 8948   3.130   2.728   6.334 -0.9653  1.2299  0.4435
30446SOL    HW2 8949   3.063   2.610   6.402  0.7247 -0.2862 -0.4241
30447SOL     OW 8950  10.724   9.594   5.423 -0.1483 -0.5308 -0.3131
30447SOL    HW1 8951  10.677   9.526   5.376 -0.8339  0.2388 -0.7722
30447SOL    HW2 8952  10.777   9.638   5.356  1.1142 -1.2624  0.1588
30448SOL     OW 8953  13.178   8.692   1.595  0.6012  0.2828  0.7019
30448SOL    HW1 8954  13.086   8.666   1.585  1.2984 -2.2589  0.1893
30448SOL    HW2 8955  13.192   8.696   1.689  0.2404 -0.4338  0.7914
30449SOL     OW 8956   9.926   9.232   8.630 -0.0873  0.4741 -0.4533
30449SOL    HW1 8957  10.006   9.228   8.578  2.2951 -1.3051  2.9436
30449SOL    HW2 8958   9.877   9.153   8.607  0.2996  0.3632 -0.8859
30450SOL     OW 8959   4.785   4.328   8.439  0.3688 -0.1554  0.0301
30450SOL    HW1 8960   4.719   4.272   8.481 -0.9798  1.6808  0.5414
30450SOL    HW2 8961   4.763   4.416   8.470  0.9763  0.9552 -2.4755
30451SOL     OW 8962   6.275   3.910   2.717  0.0290  0.1887  0.5958
30451SOL    HW1 8963   6.313   3.944   2.636  0.9853 -0.8866  0.5551
30451SOL    HW2 8964   6.312   3.964   2.786  0.2454  0.2760  0.4114
30452SOL     OW 8965   8.381  12.248   5.187  0.2592  0.0200 -0.1311
30452SOL    HW1 8966   8.400  12.240   5.280 -2.2548  0.5693  0.4980
30452SOL    HW2 8967   8.350  12.338   5.176 -0.2841 -0.2878 -1.3259
30453SOL     OW 8968   7.990   0.561   8.839  0.0849  0.1017 -0.2697
30453SOL    HW1 8969   8.057   0.534   8.777  0.3578 -0.8793  0.4294
30453SOL    HW2 8970   7.936   0.483   8.851  0.2996  0.1362  1.0552
30454SOL     OW 8971  13.399   0.287   0.210  0.5230 -0.8598  0.3160
30454SOL    HW1 8972  13.486   0.249   0.223  1.1104 -0.4961 -2.0566
30454SOL    HW2 8973  13.411   0.381   0.226  0.4095 -0.8945  0.6113
30455SOL     OW 8974   6.362   3.644  11.936  0.2298  0.1933 -0.6624
30455SOL    HW1 8975   6.425   3.696  11.885  1.7897 -0.5649  0.4081
30455SOL    HW2 8976   6.338   3.702  12.009  1.0367 -0.1200 -0.1326
30456SOL     OW 8977   6.216   0.813   1.042 -0.1989  0.2953  0.0328
30456SOL    HW1 8978   6.293   0.868   1.025 -1.3876  2.1163  0.2085
30456SOL    HW2 8979   6.206   0.814   1.137  0.5345 -1.3824  0.1513
30457SOL     OW 8980   0.812   0.779  13.388  0.1940  0.5704 -0.2758
30457SOL    HW1 8981   0.831   0.721  13.461  0.9432 -0.7711 -1.4716
30457SOL    HW2 8982   0.724   0.753  13.359  0.3759  0.2812 -0.5753
30458SOL     OW 8983  12.164  10.028  12.539 -0.9712 -0.0664  0.6146
30458SOL    HW1 8984  12.180  10.123  12.539 -0.0383 -0.1783 -1.3969
30458SOL    HW2 8985  12.072  10.019  12.515 -0.8150  0.3136 -0.1435
30459SOL     OW 8986  12.139   5.045  10.255  0.2468 -0.1515  0.2248
30459SOL    HW1 8987  12.169   5.072  10.168 -0.1964 -2.2354 -0.6546
30459SOL    HW2 8988  12.194   4.970  10.276 -1.5603 -1.5101  0.3891
30460SOL     OW 8989   1.830   5.489  13.633 -0.4462  0.0859 -0.2412
30460SOL    HW1 8990   1.908   5.538  13.658  0.6903  0.0590 -3.3024
30460SOL    HW2 8991   1.757   5.539  13.671  0.9582 -0.0335  2.9119
30461SOL     OW 8992   7.240   4.867   1.866  0.2162 -0.5483 -0.0021
30461SOL    HW1 8993   7.191   4.786   1.852 -0.6643 -0.4917  2.3640
30461SOL    HW2 8994   7.330   4.838   1.876 -0.1531 -1.3139  1.3034
30462SOL     OW 8995   4.326   0.609  12.573  0.1993  0.2138  0.0685
30462SOL    HW1 8996   4.247   0.558  12.584  1.9259 -2.3758  1.5697
30462SOL    HW2 8997   4.360   0.620  12.662  1.0961  2.0033 -0.4534
30463SOL     OW 8998  11.155   3.945   3.381 -0.3382  0.2014  0.0808
30463SOL    HW1 8999  11.173   4.011   3.314  1.1598 -0.9361 -0.6932
30463SOL    HW2 9000  11.122   3.869   3.333 -1.0768  0.0100  0.8527
30464SOL     OW 9001   2.919   3.611   3.292 -0.3111 -0.0482 -0.1184
30464SOL    HW1 9002   2.873   3.594   3.210 -1.0965  0.0400  0.2931
30464SOL    HW2 9003   2.980   3.537   3.301 -1.1693 -0.7796 -0.1251
30465SOL     OW 9004  11.943   3.059   1.854 -0.4293 -0.7197  0.4431
30465SOL    HW1 9005  11.925   3.096   1.768  1.8376  0.4240  0.3895
30465SOL    HW2 9006  11.991   2.979   1.836  1.5491  0.3800  0.6001
30466SOL     OW 9007   4.927   0.638   6.381 -0.0476 -0.2449 -0.0091
30466SOL    HW1 9008   4.854   0.588   6.343  0.2732 -0.4497 -0.3592
30466SOL    HW2 9009   4.937   0.601   6.469 -0.6812  0.1163  0.2238
30467SOL     OW 9010   9.656   0.033  13.785  0.3449  0.1405 -0.0406
30467SOL    HW1 9011   9.629   0.117  13.822 -0.5019  0.1453 -0.6451
30467SOL    HW2 9012   9.585   0.009  13.725  0.8063 -0.7712 -0.2404
30468SOL     OW 9013  10.532  12.864  12.024  0.1444  0.5322  0.0871
30468SOL    HW1 9014  10.473  12.935  12.048 -0.8444  0.1601 -1.0968
30468SOL    HW2 9015  10.479  12.808  11.967  1.5699  0.0458 -0.8107
30469SOL     OW 9016   4.775   7.930   0.008 -0.8503 -0.3764  0.2130
30469SOL    HW1 9017   4.782   8.011  -0.043 -1.1404 -0.6296 -0.2255
30469SOL    HW2 9018   4.811   7.862  -0.048  2.2268 -0.1336  1.6841
30470SOL     OW 9019   4.278  12.083   7.118 -0.2196  0.0634  0.2339
30470SOL    HW1 9020   4.246  12.150   7.058 -1.0983 -0.2591  0.3297
30470SOL    HW2 9021   4.289  12.129   7.201 -1.5761 -0.0738  0.4997
30471SOL     OW 9022   1.683   6.661   1.943 -0.0814  0.5453  0.7149
30471SOL    HW1 9023   1.609   6.600   1.935 -0.1166  0.3951  1.9421
30471SOL    HW2 9024   1.688   6.680   2.036  0.2797  2.0213  0.4180
30472SOL     OW 9025   0.763  12.487  12.863  0.3633  0.1078  0.0294
30472SOL    HW1 9026   0.748  12.580  12.850 -2.1928 -0.1048  0.9399
30472SOL    HW2 9027   0.793  12.480  12.954  0.5985  0.0558 -0.0531
30473SOL     OW 9028   1.875   5.925   1.373  0.0531 -0.4524  0.0370
30473SOL    HW1 9029   1.886   5.973   1.455  0.1030  0.1349 -0.3041
30473SOL    HW2 9030   1.781   5.931   1.354  0.3368  1.4318 -1.1142
30474SOL     OW 9031   6.182   1.491   7.339 -0.3528  0.2514 -0.2772
30474SOL    HW1 9032   6.107   1.540   7.371  0.4005  0.9266  0.5289
30474SOL    HW2 9033   6.159   1.466   7.249 -1.6424  0.1722  0.0619
30475SOL     OW 9034   2.900   2.184   7.174  0.4685  0.3841  0.6462
30475SOL    HW1 9035   2.875   2.096   7.202 -0.4526  0.0287 -1.1535
30475SOL    HW2 9036   2.885   2.239   7.251  0.6533 -0.9518  1.6590
30476SOL     OW 9037   4.524   7.240  13.921 -0.1190 -0.0090  0.2608
30476SOL    HW1 9038   4.558   7.238  13.831 -1.1680 -1.3413 -0.1381
30476SOL    HW2 9039   4.446   7.186  13.918 -1.6936  2.0622  1.4022
30477SOL     OW 9040   5.637  11.475  11.069  0.8055 -0.6636  0.1117
30477SOL    HW1 9041   5.709  11.482  11.131  1.2517 -0.5868 -0.4127
30477SOL    HW2 9042   5.570  11.534  11.103  0.4190 -1.8073  1.3782
30478SOL     OW 9043  11.001   3.348  12.734  0.3247  0.0147 -0.0044
30478SOL    HW1 9044  11.062   3.401  12.785  0.5099 -0.3553  0.1559
30478SOL    HW2 9045  10.961   3.410  12.674  2.0648 -0.0101 -1.2619
30479SOL     OW 9046  11.778   9.156   1.381  0.0443  0.6157  0.1171
30479SOL    HW1 9047  11.827   9.120   1.307  1.2979  2.4205  0.0024
30479SOL    HW2 9048  11.726   9.228   1.343 -0.6051  0.4715  0.7157
30480SOL     OW 9049  10.142  10.536  12.535 -0.3143 -0.2828  0.5017
30480SOL    HW1 9050  10.216  10.560  12.591 -0.0626  0.0960  0.0146
30480SOL    HW2 9051  10.086  10.482  12.591 -0.1708  0.2567  1.1785
30481SOL     OW 9052   9.238  11.243  13.497 -0.3228 -0.0293  0.0726
30481SOL    HW1 9053   9.179  11.315  13.476 -0.4447  0.7777  2.8390
30481SOL    HW2 9054   9.229  11.230  13.591  1.3401 -2.2298  0.0220
30482SOL     OW 9055   1.682   4.034   5.018  0.6237  0.3481  0.1092
30482SOL    HW1 9056   1.724   3.981   4.951 -0.8995 -0.5103 -0.2007
30482SOL    HW2 9057   1.729   4.013   5.099  1.8351  0.6595 -0.4916
30483SOL     OW 9058   6.540  12.145  13.386  0.7638  0.0971  0.5919
30483SOL    HW1 9059   6.500  12.068  13.347  0.0161  1.8575 -2.4206
30483SOL    HW2 9060   6.484  12.167  13.461 -1.1645 -0.2270 -0.6962
30484SOL     OW 9061   8.861   4.901   1.090 -0.2168 -0.2510 -0.1814
30484SOL    HW1 9062   8.866   4.898   0.995 -0.7901 -0.1307 -0.2175
30484SOL    HW2 9063   8.883   4.812   1.118 -0.1753 -0.3197 -0.4343
30485SOL     OW 9064   7.597  13.275   3.607  0.4833 -0.0299  0.2101
30485SOL    HW1 9065   7.504  13.297   3.599  0.1794 -0.6332  1.7026
30485SOL    HW2 9066   7.640  13.358   3.626  0.6846  0.7314 -2.9337
30486SOL     OW 9067   0.771   1.576   4.766 -0.3324  0.3835 -0.2952
30486SOL    HW1 9068   0.694   1.586   4.822 -1.1532  0.8266 -1.4439
30486SOL    HW2 9069   0.845   1.576   4.826 -1.1283  1.5527  0.7370
30487SOL     OW 9070   1.382  12.643  11.454 -0.2393  0.5174  0.0869
30487SOL    HW1 9071   1.288  12.628  11.447 -0.2551  0.3412  0.6121
30487SOL    HW2 9072   1.396  12.666  11.546  0.2694  0.2657  0.0791
30488SOL     OW 9073   0.525  11.457   7.989 -0.4085  0.0451 -0.0844
30488SOL    HW1 9074   0.536  11.370   7.949  0.3458  0.5135 -0.9474
30488SOL    HW2 9075   0.441  11.453   8.034  0.4288 -1.7417  1.4785
30489SOL     OW 9076  12.897   4.871   2.839 -0.0519 -0.5725  0.3561
30489SOL    HW1 9077  12.803   4.878   2.823 -0.8993 -2.6866  3.5674
30489SOL    HW2 9078  12.926   4.962   2.846 -1.4583  0.1851 -2.1518
30490SOL     OW 9079   0.443   4.047   7.130 -0.0719 -0.0343 -0.0948
30490SOL    HW1 9080   0.454   4.066   7.223 -1.8561 -1.4380  0.4459
30490SOL    HW2 9081   0.405   3.959   7.127  0.6523 -0.3401 -2.1927
30491SOL     OW 9082   1.966   7.546   9.605  0.4154  0.3947 -0.0267
30491SOL    HW1 9083   2.026   7.483   9.566  0.5283 -0.2468  1.1674
30491SOL    HW2 9084   2.021   7.619   9.632  0.4523  0.4569 -0.2671
30492SOL     OW 9085   8.340   9.581   4.418  0.7401  0.3320 -0.1781
30492SOL    HW1 9086   8.300   9.591   4.332 -0.8006  1.5731  0.6329
30492SOL    HW2 9087   8.433   9.566   4.400  0.3058 -0.3057 -2.0622
30493SOL     OW 9088   6.483  12.846   5.772 -0.0080 -0.3329 -0.2089
30493SOL    HW1 9089   6.573  12.814   5.764 -0.5012 -1.8930  0.1331
30493SOL    HW2 9090   6.432  12.788   5.715 -0.7953  0.6253 -0.5154
30494SOL     OW 9091   8.479  10.189   1.710 -0.0681 -0.2132  0.4850
30494SOL    HW1 9092   8.439  10.212   1.793  0.3873  1.2664  0.3232
30494SOL    HW2 9093   8.520  10.270   1.680 -0.4025 -0.6549 -1.2783
30495SOL     OW 9094   6.566   2.240   7.812 -0.3594 -0.0436 -0.8734
30495SOL    HW1 9095   6.654   2.217   7.780 -0.1031 -0.3620  0.0331
30495SOL    HW2 9096   6.510   2.170   7.778  0.0011 -0.6757 -0.1861
30496SOL     OW 9097   1.095   5.194   9.460 -0.0426  0.6736  0.2227
30496SOL    HW1 9098   1.174   5.173   9.510 -0.5396 -1.5062  0.1860
30496SOL    HW2 9099   1.050   5.260   9.513  0.0630 -0.6751  2.0868
30497SOL     OW 9100   0.499   6.521   9.664  0.3226 -0.0028  0.0836
30497SOL    HW1 9101   0.426   6.459   9.671 -0.6512  1.0485 -0.4707
30497SOL    HW2 9102   0.575   6.471   9.692 -0.4062 -1.4964 -0.4812
30498SOL     OW 9103   1.870   5.450  13.369 -0.3337 -0.3519 -0.5854
30498SOL    HW1 9104   1.837   5.447  13.459  0.7357 -1.5590 -0.1986
30498SOL    HW2 9105   1.942   5.386  13.368  2.0502  2.1643 -1.3684
30499SOL     OW 9106   7.749  13.889   6.068 -0.4145 -0.4387 -0.0319
30499SOL    HW1 9107   7.735  13.950   6.141 -1.9880 -0.7063 -0.0752
30499SOL    HW2 9108   7.842  13.869   6.071 -0.2247  0.5224  1.1411
30500SOL     OW 9109   0.272  12.297  10.350  0.1273 -0.2305 -0.1891
30500SOL    HW1 9110   0.261  12.380  10.304 -0.5854  0.4830  1.2326
30500SOL    HW2 9111   0.265  12.231  10.281  2.2143  0.9016 -1.5952
30501SOL     OW 9112   0.785  10.176   0.538 -0.1599  0.2060 -0.0036
30501SOL    HW1 9113   0.746  10.227   0.467  0.4974 -0.3549 -0.7899
30501SOL    HW2 9114   0.825  10.101   0.494  0.9935  0.2819  0.8539
30502SOL     OW 9115   2.749   1.409  13.518 -0.3122 -0.5051  0.4855
30502SOL    HW1 9116   2.751   1.487  13.574 -0.0255 -0.1516 -0.0007
30502SOL    HW2 9117   2.657   1.395  13.499 -0.2699  0.7160 -0.7669
30503SOL     OW 9118  11.369   6.084   9.018 -0.7107  0.3780  0.0969
30503SOL    HW1 9119  11.461   6.105   9.034 -1.3216  1.5204  2.5768
30503SOL    HW2 9120  11.358   5.994   9.048 -0.3682  0.1307 -0.4974
30504SOL     OW 9121  10.472  13.550   0.580  0.4307  0.1370  0.8708
30504SOL    HW1 9122  10.520  13.518   0.503  0.8747  1.2281  0.6843
30504SOL    HW2 9123  10.540  13.590   0.635 -0.0162  0.1363  1.4235
30505SOL     OW 9124   9.074   6.059   2.280 -0.7143  0.1290 -0.1872
30505SOL    HW1 9125   9.044   6.132   2.227 -1.4415  1.2191  1.6465
30505SOL    HW2 9126   9.094   5.990   2.216 -1.8313  1.2510 -1.8340
30506SOL     OW 9127   1.651   1.373  10.598  0.0899  0.0158 -0.6183
30506SOL    HW1 9128   1.691   1.416  10.522 -0.3153  1.8707  0.1633
30506SOL    HW2 9129   1.588   1.437  10.631  0.0567 -0.8588  1.1187
30507SOL     OW 9130  13.382   0.257   7.679 -0.0280  0.0508  0.1761
30507SOL    HW1 9131  13.344   0.173   7.707 -0.0859 -0.3294 -0.9670
30507SOL    HW2 9132  13.476   0.240   7.674 -0.1634 -0.4635 -1.5648
30508SOL     OW 9133  10.880   0.987  11.488 -0.2158  0.1192  0.4583
30508SOL    HW1 9134  10.955   1.044  11.469  1.5764 -2.3019 -0.1656
30508SOL    HW2 9135  10.908   0.933  11.562 -0.7644 -1.7513 -0.6292
30509SOL     OW 9136  11.027   0.406  11.700 -0.7313 -0.3353 -0.1086
30509SOL    HW1 9137  10.962   0.473  11.677 -0.7171 -0.2811  0.0080
30509SOL    HW2 9138  11.025   0.345  11.627  0.9322  1.0274 -1.3867
30510SOL     OW 9139   9.497  11.859   7.977 -0.0982 -0.1120 -0.0393
30510SOL    HW1 9140   9.417  11.836   7.930 -0.7459 -1.8477  1.7829
30510SOL    HW2 9141   9.555  11.783   7.967  0.8886  0.6578 -0.3784
30511SOL     OW 9142  12.998   1.073   4.475  0.7151  0.6685  0.3109
30511SOL    HW1 9143  13.087   1.042   4.456  1.4459  2.1861  1.1010
30511SOL    HW2 9144  12.979   1.038   4.562  0.0499 -0.6234 -0.3277
30512SOL     OW 9145  12.888  10.144  10.692 -0.2582 -0.0950  0.0575
30512SOL    HW1 9146  12.914  10.181  10.607 -1.8662 -0.2936 -0.5659
30512SOL    HW2 9147  12.965  10.094  10.721  1.0471  1.6019 -0.2903
30513SOL     OW 9148  10.881   9.474   4.780  0.2004  0.0272  0.2724
30513SOL    HW1 9149  10.946   9.411   4.748 -0.0502 -0.5670  0.9115
30513SOL    HW2 9150  10.799   9.447   4.739  0.1130 -0.0152  0.4707
30514SOL     OW 9151   8.332  13.318   7.024 -0.2636  0.2864 -0.2836
30514SOL    HW1 9152   8.379  13.345   6.945 -2.3809 -0.2236 -1.8328
30514SOL    HW2 9153   8.392  13.260   7.070  1.1583  0.8599 -1.3478
30515SOL     OW 9154   2.918   4.709  13.821  0.4335  0.4589  0.5870
30515SOL    HW1 9155   2.842   4.753  13.782 -0.4680 -1.9530 -0.5600
30515SOL    HW2 9156   2.985   4.713  13.753  0.6214  0.7424  0.7881
30516SOL     OW 9157   3.526   2.105   7.616 -0.0496 -0.4980  0.0492
30516SOL    HW1 9158   3.432   2.120   7.610 -0.5635 -3.3012 -0.2455
30516SOL    HW2 9159   3.558   2.117   7.526 -0.2278 -0.0578  0.0460
30517SOL     OW 9160  12.326   7.999   3.156  0.5117  0.1004  0.0901
30517SOL    HW1 9161  12.295   8.079   3.198  0.5559  1.0111 -1.5244
30517SOL    HW2 9162  12.395   8.028   3.097 -0.0643 -0.9946 -1.1720
30518SOL     OW 9163   0.724   4.379   5.744 -0.2106 -0.1668  0.1062
30518SOL    HW1 9164   0.715   4.436   5.667  0.8631 -1.1782 -0.8018
30518SOL    HW2 9165   0.812   4.397   5.776  0.5836 -2.1008 -0.8759
30519SOL     OW 9166   2.582   3.787   6.170  0.0115 -0.1534 -0.2363
30519SOL    HW1 9167   2.630   3.722   6.119 -1.3480  0.0349 -1.8222
30519SOL    HW2 9168   2.540   3.736   6.240 -2.0439 -1.3048 -2.1591
30520SOL     OW 9169   8.243   3.017  10.450 -0.1320 -0.5307  0.6850
30520SOL    HW1 9170   8.335   3.005  10.472 -0.3443  0.9304  2.6784
30520SOL    HW2 9171   8.196   2.997  10.531 -1.2473  2.0697  0.7724
30521SOL     OW 9172   8.386   0.675   7.066 -0.4847 -0.2829 -0.5734
30521SOL    HW1 9173   8.324   0.740   7.033 -0.9941  0.8113  2.2191
30521SOL    HW2 9174   8.471   0.719   7.062 -0.7139  0.3243  0.5266
30522SOL     OW 9175  10.145  12.097  13.506  0.1686  0.2209 -0.4001
30522SOL    HW1 9176  10.144  12.035  13.433 -1.1305 -2.4334  1.6657
30522SOL    HW2 9177  10.227  12.080  13.551  0.2197  0.6570 -0.3285
30523SOL     OW 9178   0.042   7.137  13.375 -0.2439 -0.2919  0.3817
30523SOL    HW1 9179  -0.016   7.070  13.411 -1.2905  0.1831 -0.3952
30523SOL    HW2 9180   0.052   7.201  13.446 -1.6388  0.2230  0.1420
30524SOL     OW 9181   8.163   0.207   6.697  0.3343 -0.3213 -0.3769
30524SOL    HW1 9182   8.148   0.194   6.604 -0.3732  1.9951 -0.6537
30524SOL    HW2 9183   8.238   0.266   6.702 -1.6062  2.3397  0.2508
30525SOL     OW 9184   2.898   9.837  13.807  0.1176 -0.2300  0.0903
30525SOL    HW1 9185   2.934   9.771  13.747  0.3594 -0.5940  0.6278
30525SOL    HW2 9186   2.803   9.828  13.797  0.1521  0.7594 -1.3581
30526SOL     OW 9187  10.533  12.504   0.573  0.2481  0.2452  0.2751
30526SOL    HW1 9188  10.440  12.485   0.563  0.1844  1.0683 -0.9891
30526SOL    HW2 9189  10.568  12.497   0.484  1.3029  0.4303  0.6626
30527SOL     OW 9190   8.498   1.666   9.823 -0.0090  0.0255  0.3244
30527SOL    HW1 9191   8.583   1.657   9.867  0.7001 -1.8745 -1.2789
30527SOL    HW2 9192   8.518   1.717   9.745 -0.2985 -0.5912 -0.1535
30528SOL     OW 9193   1.422   4.853  12.869  0.1076  0.1050 -0.0542
30528SOL    HW1 9194   1.381   4.779  12.823  0.6443 -0.0095 -0.3585
30528SOL    HW2 9195   1.490   4.813  12.923  0.5161  0.3872 -0.3520
30529SOL     OW 9196   1.086  11.350   9.175  0.1598  0.6456 -0.4598
30529SOL    HW1 9197   1.074  11.268   9.223  1.7827  0.3625 -0.4860
30529SOL    HW2 9198   1.067  11.327   9.084 -0.0526  0.4693 -0.3720
30530SOL     OW 9199   6.109   2.257   1.679 -0.6039 -0.3796  0.2260
30530SOL    HW1 9200   6.095   2.335   1.624 -0.8809  0.4589  1.4341
30530SOL    HW2 9201   6.068   2.186   1.631  0.0189  0.1202 -1.1176
30531SOL     OW 9202   5.936   4.955   8.940 -0.2538  0.2688  0.0702
30531SOL    HW1 9203   5.914   4.876   8.989 -1.2961 -0.8643 -2.1117
30531SOL    HW2 9204   5.857   5.009   8.945  0.4692  1.2437  1.5900
30532SOL     OW 9205  12.156   6.478   8.780  0.2493  0.4052 -0.2058
30532SOL    HW1 9206  12.177   6.556   8.832  0.0861  1.8457 -2.2125
30532SOL    HW2 9207  12.239   6.429   8.777  0.9763  1.6112 -0.7157
30533SOL     OW 9208  10.870   1.403   1.765  0.0641 -0.1384  0.2379
30533SOL    HW1 9209  10.947   1.452   1.738  0.8664 -1.6022 -0.2517
30533SOL    HW2 9210  10.889   1.374   1.855  1.2729 -2.6247 -0.7214
30534SOL     OW 9211  11.994   7.256   4.749  0.6176  0.1539 -0.8777
30534SOL    HW1 9212  11.909   7.287   4.718  0.3663 -0.6538 -1.0206
30534SOL    HW2 9213  12.056   7.280   4.680  0.0555 -1.6893 -2.0856
30535SOL     OW 9214   0.526  12.147  10.692 -0.0750 -0.5286  0.1919
30535SOL    HW1 9215   0.578  12.184  10.763 -1.5153  0.3988  0.8048
30535SOL    HW2 9216   0.538  12.208  10.619 -1.7118  0.6930  0.9091
30536SOL     OW 9217   5.273  11.557   1.528  0.2615  0.0263  0.0362
30536SOL    HW1 9218   5.332  11.501   1.577  0.1665  0.1499  0.2921
30536SOL    HW2 9219   5.268  11.638   1.580  0.0896  0.1217 -0.1284
30537SOL     OW 9220  10.448  10.245   2.198  0.0817 -0.1677  0.0461
30537SOL    HW1 9221  10.540  10.255   2.221  0.4927  0.1569 -1.5946
30537SOL    HW2 9222  10.427  10.156   2.226  1.5494 -1.0725 -1.5241
30538SOL     OW 9223   5.305   0.145  12.903 -0.7473  0.3779  0.4541
30538SOL    HW1 9224   5.282   0.087  12.831 -0.5999  0.0299  0.6877
30538SOL    HW2 9225   5.401   0.145  12.904 -0.6376  2.5074 -1.0830
30539SOL     OW 9226   6.684   4.753  14.085 -0.2276 -1.0963 -0.1098
30539SOL    HW1 9227   6.722   4.730  14.170  1.4802 -1.9621 -1.0404
30539SOL    HW2 9228   6.742   4.821  14.051 -0.2518 -1.4980 -0.9982
30540SOL     OW 9229   3.523   0.687   5.434  0.3220  0.1237  0.3804
30540SOL    HW1 9230   3.556   0.713   5.520  1.4386 -0.4081  0.1380
30540SOL    HW2 9231   3.598   0.696   5.376  0.4513 -2.3917  0.0575
30541SOL     OW 9232   4.366   6.700   8.851  0.4351  0.1520 -0.7726
30541SOL    HW1 9233   4.317   6.651   8.918 -0.8560  2.2353 -0.0882
30541SOL    HW2 9234   4.402   6.632   8.794  0.5341 -1.6794  1.2816
30542SOL     OW 9235   4.338   7.719   1.141  0.0994  0.2795  0.7485
30542SOL    HW1 9236   4.300   7.797   1.102  0.6371  0.6011  0.8699
30542SOL    HW2 9237   4.305   7.719   1.231 -1.2147 -0.5124  0.3116
30543SOL     OW 9238  10.211   6.879   4.558  0.4009 -0.0291 -0.2874
30543SOL    HW1 9239  10.187   6.850   4.471 -0.0094 -2.8362  0.6655
30543SOL    HW2 9240  10.130   6.918   4.594  0.0343 -0.5981 -0.4928
30544SOL     OW 9241   6.577   9.963   6.065 -0.4750 -0.5270 -0.4789
30544SOL    HW1 9242   6.593   9.964   6.160 -0.7158  0.2549 -0.4424
30544SOL    HW2 9243   6.664   9.968   6.026 -0.4162 -0.1027 -0.2949
30545SOL     OW 9244   7.756   9.850   6.429 -0.9422  0.2461 -0.0417
30545SOL    HW1 9245   7.725   9.838   6.519 -2.1313 -2.7058 -0.7062
30545SOL    HW2 9246   7.677   9.841   6.375 -0.1923  1.5142 -1.4399
30546SOL     OW 9247   4.768   1.327  11.726  0.1715 -0.8328 -0.4570
30546SOL    HW1 9248   4.843   1.387  11.733  1.5903 -2.4475 -1.0590
30546SOL    HW2 9249   4.720   1.338  11.808  1.6117 -0.4328  0.3635
30547SOL     OW 9250  10.078   7.876  10.606 -0.7813  0.4293  0.2978
30547SOL    HW1 9251  10.091   7.913  10.519 -1.5672  0.6539  0.2727
30547SOL    HW2 9252  10.070   7.782  10.591 -2.5656  0.6134 -0.0779
30548SOL     OW 9253   5.688   9.564   6.622 -0.0969 -0.9473  0.3424
30548SOL    HW1 9254   5.709   9.602   6.536 -0.9162 -0.0206  0.5352
30548SOL    HW2 9255   5.766   9.580   6.675 -0.4961  0.7205  0.4865
30549SOL     OW 9256   5.736   6.380   4.442 -0.0676  0.1778 -0.6411
30549SOL    HW1 9257   5.643   6.368   4.422 -0.8142  1.8725  1.4898
30549SOL    HW2 9258   5.755   6.469   4.414  0.1903  0.7520  1.2166
30550SOL     OW 9259   7.676   1.482  12.768 -0.2021  0.0441 -0.2373
30550SOL    HW1 9260   7.650   1.574  12.762  0.0966  0.1295 -0.2436
30550SOL    HW2 9261   7.737   1.469  12.696  1.5396  0.4529  1.1034
30551SOL     OW 9262   4.158   8.360   5.233 -0.3196  0.4026 -0.1182
30551SOL    HW1 9263   4.176   8.439   5.285 -0.9428  1.5305 -1.5383
30551SOL    HW2 9264   4.207   8.374   5.152 -0.3086 -0.7719 -0.3246
30552SOL     OW 9265   4.654   8.222   9.978  0.8605  0.0306  0.0323
30552SOL    HW1 9266   4.740   8.262   9.968  1.1793 -0.8916 -1.2580
30552SOL    HW2 9267   4.666   8.152  10.042  0.6640  0.9429  1.0982
30553SOL     OW 9268   6.507  12.763  12.966  0.5259 -0.1132 -0.3066
30553SOL    HW1 9269   6.522  12.834  12.904  1.0576  2.1143  2.1965
30553SOL    HW2 9270   6.587  12.710  12.962  0.5238 -0.0383 -1.5181
30554SOL     OW 9271   4.625   9.565   7.250 -0.1529  0.5900 -0.1309
30554SOL    HW1 9272   4.637   9.470   7.253 -0.3964  0.5702  0.3710
30554SOL    HW2 9273   4.675   9.593   7.174 -0.8004 -0.0442 -0.8157
30555SOL     OW 9274   6.955  11.202   4.271  0.3014 -0.4803 -0.4140
30555SOL    HW1 9275   6.974  11.126   4.215  2.2511  0.4461 -1.1005
30555SOL    HW2 9276   6.989  11.277   4.222 -1.7621  0.9002  0.1593
30556SOL     OW 9277   9.854   7.026   5.016  0.3231 -0.5445 -0.1618
30556SOL    HW1 9278   9.920   7.063   5.075 -0.9935  0.3003  0.8422
30556SOL    HW2 9279   9.829   7.099   4.959 -1.1379 -0.2526  0.7790
30557SOL     OW 9280   5.298   9.921   1.421  0.5811 -0.7585  0.1070
30557SOL    HW1 9281   5.300   9.854   1.489  1.0437 -0.8636 -0.0071
30557SOL    HW2 9282   5.257   9.996   1.463  1.5963 -0.5434  0.7662
30558SOL     OW 9283   2.232  12.678  11.910  0.5341 -0.4463 -0.6213
30558SOL    HW1 9284   2.271  12.591  11.910 -2.1527 -1.7682  0.6045
30558SOL    HW2 9285   2.150  12.667  11.862 -0.5407  1.0526  0.7727
30559SOL     OW 9286   7.125   0.445   2.580  0.3415  0.0569  0.4055
30559SOL    HW1 9287   7.045   0.398   2.602  0.7783 -1.3499 -0.8506
30559SOL    HW2 9288   7.189   0.418   2.646 -0.0240  0.6450  1.0022
30560SOL     OW 9289  10.208   2.945   0.552  0.1680  0.3173  0.1401
30560SOL    HW1 9290  10.280   2.954   0.614 -0.2258  0.4500  0.5809
30560SOL    HW2 9291  10.156   2.872   0.586 -2.0524  2.6106  2.0177
30561SOL     OW 9292   4.009  10.105   1.333 -0.0774 -0.4181  0.8896
30561SOL    HW1 9293   4.035  10.099   1.242  1.2092  0.5831  1.1657
30561SOL    HW2 9294   3.980  10.017   1.356 -0.3363 -0.6987 -0.4473
30562SOL     OW 9295   5.614  10.524   7.033  0.1957 -0.0360 -0.0692
30562SOL    HW1 9296   5.583  10.518   7.123 -1.2104  0.5477 -0.4855
30562SOL    HW2 9297   5.667  10.604   7.032  1.8311 -1.0674  0.6617
30563SOL     OW 9298   6.796   1.711   9.691 -0.3233  0.2356  0.5856
30563SOL    HW1 9299   6.844   1.776   9.742 -0.7936  1.9127 -1.0153
30563SOL    HW2 9300   6.804   1.630   9.742  0.9437  1.3424  2.2491
30564SOL     OW 9301  12.808   3.111  11.731  0.0632 -0.1882  0.0110
30564SOL    HW1 9302  12.842   3.185  11.682  0.1464 -0.0397  0.2884
30564SOL    HW2 9303  12.726   3.088  11.687 -0.4728  0.7025  0.5148
30565SOL     OW 9304   2.990  11.775   6.753 -0.1187 -0.1309  0.4852
30565SOL    HW1 9305   3.059  11.776   6.687 -0.2063 -1.5505  0.3319
30565SOL    HW2 9306   2.937  11.853   6.735 -0.0083 -0.3695 -0.9758
30566SOL     OW 9307   9.642   3.793  12.110  0.0892 -0.1366  0.3970
30566SOL    HW1 9308   9.682   3.877  12.085 -1.5360  0.6842  0.3848
30566SOL    HW2 9309   9.618   3.753  12.026  0.8821 -0.6439  0.4024
30567SOL     OW 9310  13.781   0.120  10.427 -0.2786  0.1828  0.0622
30567SOL    HW1 9311  13.697   0.093  10.390  0.1259 -1.6236  0.3276
30567SOL    HW2 9312  13.773   0.102  10.521  0.1858  0.6059  0.1863
30568SOL     OW 9313  10.254  10.958   4.015  0.2568  0.7164  0.2086
30568SOL    HW1 9314  10.195  10.897   4.060  0.4196 -0.0612 -0.6086
30568SOL    HW2 9315  10.302  11.001   4.086 -0.2706  0.3087  0.8232
30569SOL     OW 9316   9.682  13.305  13.418  0.3047  0.3586  0.1847
30569SOL    HW1 9317   9.703  13.246  13.491  1.2622 -0.6005 -0.8116
30569SOL    HW2 9318   9.737  13.382  13.433  0.1534  0.3646  0.7150
30570SOL     OW 9319   6.260  13.648  11.188 -0.3445  0.2316  0.0707
30570SOL    HW1 9320   6.190  13.605  11.139  0.4393  0.5181 -1.3425
30570SOL    HW2 9321   6.261  13.738  11.154 -0.1505  0.6021  1.0219
30571SOL     OW 9322   3.080  14.063   0.810  0.5295 -0.5784  0.1013
30571SOL    HW1 9323   3.120  13.990   0.857 -0.7137 -1.8058 -0.6624
30571SOL    HW2 9324   3.005  14.088   0.865  0.3094 -0.5990 -0.1902
30572SOL     OW 9325  10.018   8.930   3.634 -0.0934 -0.5274 -0.6311
30572SOL    HW1 9326  10.052   9.001   3.581  3.3362 -1.2375  0.3398
30572SOL    HW2 9327   9.974   8.872   3.572 -0.7661  1.1961 -1.8104
30573SOL     OW 9328   4.723   9.222   6.129 -0.2470 -0.2465  0.2234
30573SOL    HW1 9329   4.687   9.291   6.073 -0.6392  0.0723  0.8599
30573SOL    HW2 9330   4.663   9.219   6.204 -0.5081 -1.6004 -0.0237
30574SOL     OW 9331   1.877  11.202   3.720 -0.1887  0.2057  0.6424
30574SOL    HW1 9332   1.865  11.293   3.692 -0.9522 -0.2709 -0.7166
30574SOL    HW2 9333   1.936  11.207   3.794  2.7077  1.5319 -1.5567
30575SOL     OW 9334  11.229  12.393  11.954 -0.0053 -0.0416  0.1629
30575SOL    HW1 9335  11.177  12.466  11.989 -3.3271 -1.3156 -1.6132
30575SOL    HW2 9336  11.302  12.384  12.015 -2.0662  1.7052  3.1737
30576SOL     OW 9337  11.341  13.570   2.947  0.2205  0.0684 -0.4305
30576SOL    HW1 9338  11.409  13.503   2.942 -0.4710 -0.6313 -0.7264
30576SOL    HW2 9339  11.374  13.643   2.896  0.8528 -0.1704 -0.3647
30577SOL     OW 9340   5.715  10.496  13.761  0.3890  0.5461 -0.4229
30577SOL    HW1 9341   5.680  10.494  13.672  0.6705 -2.1839 -0.5420
30577SOL    HW2 9342   5.801  10.537  13.752  0.6446 -0.1793 -1.5281
30578SOL     OW 9343   2.932   7.574   4.646 -0.2774 -0.0110  0.3062
30578SOL    HW1 9344   2.931   7.575   4.550 -0.1321  0.2660  0.3070
30578SOL    HW2 9345   3.003   7.514   4.669  0.9552  1.3675  0.2343
30579SOL     OW 9346  12.814   0.656   1.442  0.3514 -0.3384  0.0719
30579SOL    HW1 9347  12.892   0.654   1.497 -0.9961 -1.1683  2.0597
30579SOL    HW2 9348  12.801   0.565   1.414 -0.8270 -0.5580  1.2129
30580SOL     OW 9349   9.598   2.612   0.742 -0.2685  0.4566  0.5855
30580SOL    HW1 9350   9.546   2.692   0.743 -0.0717  0.6030 -0.1329
30580SOL    HW2 9351   9.541   2.546   0.781 -1.2413  0.4777 -0.7336
30581SOL     OW 9352  12.618   7.197   3.631  0.0917  0.1706  0.5043
30581SOL    HW1 9353  12.679   7.153   3.691  1.0930  1.6650  0.6166
30581SOL    HW2 9354  12.536   7.202   3.681 -0.6374 -3.0191 -0.1123
30582SOL     OW 9355   2.847   8.596   5.796 -0.1365 -0.1592 -0.3919
30582SOL    HW1 9356   2.756   8.568   5.788  0.2321 -1.3447 -0.6911
30582SOL    HW2 9357   2.846   8.662   5.865 -1.3103  0.3147 -0.8364
30583SOL     OW 9358   0.571   6.003  13.269 -0.0905 -0.5184 -0.5682
30583SOL    HW1 9359   0.578   6.047  13.184  0.1366 -1.0522 -0.8322
30583SOL    HW2 9360   0.661   5.978  13.291 -0.1180 -0.1562 -0.0507
30584SOL     OW 9361  11.772   2.665   0.912  0.0195  0.4946  0.0481
30584SOL    HW1 9362  11.822   2.734   0.953  0.8387 -0.1800  0.2185
30584SOL    HW2 9363  11.775   2.592   0.974 -0.5892  0.2044 -0.2479
30585SOL     OW 9364  12.338   3.360   9.051  0.2111  0.2100  0.2535
30585SOL    HW1 9365  12.358   3.439   9.101 -1.0576  0.0420  1.0846
30585SOL    HW2 9366  12.244   3.346   9.065  0.5103 -1.7696  0.6230
30586SOL     OW 9367   3.446   3.097  12.770 -0.0961 -0.8089 -0.3928
30586SOL    HW1 9368   3.537   3.127  12.766 -0.2320 -0.3980 -0.4235
30586SOL    HW2 9369   3.440   3.051  12.854 -0.2881  0.6131  0.4143
30587SOL     OW 9370  13.013  10.264   1.975  0.1580 -0.6713 -0.1018
30587SOL    HW1 9371  13.020  10.341   1.919  1.0022 -0.9376 -0.3717
30587SOL    HW2 9372  12.923  10.233   1.962 -0.0995  0.0948 -0.2065
30588SOL     OW 9373   1.647   5.240   5.995 -0.5193  0.0257 -0.2482
30588SOL    HW1 9374   1.670   5.312   6.054 -1.5817 -0.5696  0.9601
30588SOL    HW2 9375   1.649   5.279   5.908 -0.3281  1.3293  0.3066
30589SOL     OW 9376   7.277   4.860   0.145 -0.4131  0.0863 -0.2102
30589SOL    HW1 9377   7.273   4.878   0.051  0.7841 -1.2415 -0.5414
30589SOL    HW2 9378   7.244   4.940   0.186 -1.4966  0.4795 -1.7597
30590SOL     OW 9379   7.717   0.689   8.578  0.4948 -0.3893 -0.2000
30590SOL    HW1 9380   7.763   0.655   8.501 -0.3560 -0.0962 -0.8601
30590SOL    HW2 9381   7.626   0.665   8.563  0.2082  0.3299  0.3547
30591SOL     OW 9382  11.866   4.655   1.137 -0.3576  0.6939 -0.0465
30591SOL    HW1 9383  11.925   4.718   1.179  2.2435 -1.9610  0.6623
30591SOL    HW2 9384  11.919   4.614   1.069 -2.0437 -0.5296 -0.6893
30592SOL     OW 9385  11.616  12.768  13.643  0.4993  0.1963  0.0252
30592SOL    HW1 9386  11.555  12.697  13.620 -0.1441  0.2730  1.3788
30592SOL    HW2 9387  11.587  12.796  13.729  1.5576  1.2539  0.0504
30593SOL     OW 9388  12.185   3.370  13.964 -0.1079 -0.4646  0.6412
30593SOL    HW1 9389  12.175   3.422  13.884 -0.2265 -0.3200  0.7507
30593SOL    HW2 9390  12.127   3.412  14.028 -0.8560 -1.2244  0.4895
30594SOL     OW 9391   4.125  10.048   4.295 -0.5677 -0.3865 -0.4117
30594SOL    HW1 9392   4.125  10.051   4.199 -0.9212 -0.9939 -0.4336
30594SOL    HW2 9393   4.060   9.981   4.317 -0.3501 -0.3869  0.2506
30595SOL     OW 9394  11.759   4.464   2.119  0.1223 -0.3347  0.2555
30595SOL    HW1 9395  11.786   4.519   2.045  0.1498  0.1341  0.6076
30595SOL    HW2 9396  11.762   4.523   2.195 -0.0420 -0.7735  0.6074
30596SOL     OW 9397  11.366   4.666   0.840  0.1727  0.1066  0.8637
30596SOL    HW1 9398  11.320   4.586   0.866  0.1243  0.1376  0.8731
30596SOL    HW2 9399  11.439   4.635   0.787 -0.9529  0.1369 -0.7978
30597SOL     OW 9400   0.576   2.110   4.943  0.2563  0.0235  0.1149
30597SOL    HW1 9401   0.587   2.062   4.861  2.5142 -0.4814  0.6637
30597SOL    HW2 9402   0.518   2.055   4.996  1.0384 -1.0278 -0.1016
30598SOL     OW 9403   2.217   1.065   0.624  0.0468 -0.0681  0.3849
30598SOL    HW1 9404   2.162   0.993   0.656 -0.4731 -0.3024 -0.9574
30598SOL    HW2 9405   2.302   1.025   0.608 -0.4460 -0.5912 -1.0681
30599SOL     OW 9406   0.656  12.164   0.456 -0.3604 -0.2757 -0.4388
30599SOL    HW1 9407   0.747  12.172   0.486 -0.2421 -1.4250 -0.4339
30599SOL    HW2 9408   0.655  12.205   0.370  0.3726 -0.9653 -0.7953
30600SOL     OW 9409  12.397   7.173   2.249 -0.2037 -0.3390 -0.0776
30600SOL    HW1 9410  12.428   7.263   2.248 -1.5480  0.1512  0.5322
30600SOL    HW2 9411  12.344   7.164   2.170  0.9876 -1.0139 -0.8342
30601SOL     OW 9412   0.296   7.126   3.490 -0.3348  0.1033  0.3269
30601SOL    HW1 9413   0.362   7.189   3.519 -1.3410  1.3594  0.0130
30601SOL    HW2 9414   0.249   7.102   3.570  0.4835 -0.7988  0.5513
30602SOL     OW 9415  11.893  12.369  10.917 -0.0712  0.1002  0.4553
30602SOL    HW1 9416  11.886  12.314  10.839 -1.5725 -0.8197  1.1964
30602SOL    HW2 9417  11.822  12.432  10.908  1.8307  2.2284 -0.5548
30603SOL     OW 9418  10.272   1.951   9.003 -0.0293  0.3952  0.5342
30603SOL    HW1 9419  10.249   2.003   9.080  0.2518 -0.1403  0.9880
30603SOL    HW2 9420  10.246   2.005   8.929 -3.4625 -0.4286  0.9674
30604SOL     OW 9421   0.627   4.199   5.397 -0.2666  0.4158  0.2197
30604SOL    HW1 9422   0.597   4.290   5.406  1.5984  1.1034 -0.0999
30604SOL    HW2 9423   0.634   4.168   5.487  0.8988  1.2423  0.4353
30605SOL     OW 9424   2.597   9.087   4.310 -0.4407 -0.2854  0.0059
30605SOL    HW1 9425   2.687   9.097   4.339 -0.4660  1.8251 -0.4892
30605SOL    HW2 9426   2.548   9.066   4.390  0.4192 -1.0870  0.3339
30606SOL     OW 9427  12.818   7.057   0.543 -0.0496 -0.0728  0.3600
30606SOL    HW1 9428  12.822   7.063   0.448  0.2773 -0.2399  0.3609
30606SOL    HW2 9429  12.768   6.977   0.560 -1.0109  0.5049  0.3366
30607SOL     OW 9430   0.308   6.281  11.530 -0.4219  0.3584 -0.3872
30607SOL    HW1 9431   0.225   6.323  11.554 -1.1306 -1.3202  0.2012
30607SOL    HW2 9432   0.331   6.228  11.606  0.7194  0.0865 -0.9086
30608SOL     OW 9433   5.565  12.431   2.847 -0.4529  0.5844  0.5834
30608SOL    HW1 9434   5.643  12.390   2.811  0.3141  2.0516  0.5270
30608SOL    HW2 9435   5.585  12.441   2.940 -0.6824  0.7399  0.6147
30609SOL     OW 9436   4.099   0.280  11.429 -0.0464 -0.0902  0.2178
30609SOL    HW1 9437   4.094   0.231  11.347  0.2197 -0.6328  0.5163
30609SOL    HW2 9438   4.144   0.361  11.407 -0.4057 -0.0226 -0.2669
30610SOL     OW 9439   9.803   4.113  12.814  0.0844  0.0661 -0.1762
30610SOL    HW1 9440   9.807   4.058  12.892  0.1793 -0.6045 -0.6446
30610SOL    HW2 9441   9.780   4.052  12.743  0.6248  0.5476 -0.7761
30611SOL     OW 9442   2.735  13.165   0.296  0.0466 -0.5169  0.3459
30611SOL    HW1 9443   2.769  13.236   0.242 -2.8753  1.4111  0.8396
30611SOL    HW2 9444   2.791  13.165   0.374  0.0536  1.3220  0.3735
30612SOL     OW 9445  12.762   0.631   0.488 -0.1651 -0.2104 -0.3839
30612SOL    HW1 9446  12.783   0.620   0.581 -1.4621 -0.6002 -0.1185
30612SOL    HW2 9447  12.814   0.706   0.460 -0.1378  0.2193  0.7881
30613SOL     OW 9448  12.002  11.385   4.752  0.2170 -0.2131  0.0910
30613SOL    HW1 9449  12.064  11.338   4.696 -2.4703 -3.1933 -0.7173
30613SOL    HW2 9450  12.041  11.384   4.839  1.5882 -1.4073 -0.5076
30614SOL     OW 9451   7.282   6.698  13.081 -0.0205 -0.1085 -0.3789
30614SOL    HW1 9452   7.319   6.611  13.067 -0.0487 -0.0795 -0.6444
30614SOL    HW2 9453   7.207   6.683  13.138 -0.8435 -0.4424 -1.5097
30615SOL     OW 9454   1.225   5.254  13.644 -0.1487  0.3125  0.2388
30615SOL    HW1 9455   1.305   5.217  13.680 -0.5149  0.6980  1.4989
30615SOL    HW2 9456   1.245   5.270  13.552  1.4168  0.9214  0.6509
30616SOL     OW 9457  11.739  12.847  12.271 -0.6993 -0.1689  0.2219
30616SOL    HW1 9458  11.794  12.881  12.341  0.4066  0.2182 -0.7970
30616SOL    HW2 9459  11.712  12.924  12.222  0.4461 -0.5941 -1.1249
30617SOL     OW 9460   0.468   5.304   2.856 -0.0210 -0.8261  0.1035
30617SOL    HW1 9461   0.555   5.276   2.886  1.1291  1.3231 -0.9936
30617SOL    HW2 9462   0.462   5.396   2.881 -1.5170 -0.6229 -0.8517
30618SOL     OW 9463   1.667  11.867   0.518 -0.5537 -0.5977 -0.0654
30618SOL    HW1 9464   1.691  11.774   0.523 -0.9210 -0.8198 -1.7718
30618SOL    HW2 9465   1.730  11.904   0.456 -0.7816  0.1689  0.1600
30619SOL     OW 9466   5.346   7.401   2.591  0.2148 -0.2035 -0.6368
30619SOL    HW1 9467   5.287   7.353   2.650  0.3617  0.6206  0.2205
30619SOL    HW2 9468   5.305   7.395   2.505  0.4248 -2.1712 -0.6523
30620SOL     OW 9469   6.550   3.151  13.569  0.2270 -0.0419  0.6821
30620SOL    HW1 9470   6.557   3.192  13.656  0.3704  0.9412  0.2213
30620SOL    HW2 9471   6.641   3.143  13.540  0.1409  0.3432  0.3026
30621SOL     OW 9472   2.181   3.336   9.871 -0.0374 -0.2573  0.2270
30621SOL    HW1 9473   2.202   3.244   9.854  0.2234 -0.5014  1.7239
30621SOL    HW2 9474   2.259   3.371   9.913  0.1201  0.8564 -0.9392
30622SOL     OW 9475   7.697   7.099   9.322  0.2500  0.4207  0.6029
30622SOL    HW1 9476   7.688   7.004   9.310  0.8354  0.4520 -0.1467
30622SOL    HW2 9477   7.629   7.121   9.385 -1.5012 -0.1169 -1.0059
30623SOL     OW 9478  12.034   2.629   8.201  0.4160 -0.3526 -0.6258
30623SOL    HW1 9479  11.940   2.637   8.219  0.5904 -0.0022  0.1584
30623SOL    HW2 9480  12.070   2.715   8.221  1.1050 -0.8507  0.3772
30624SOL     OW 9481   1.273   0.220   8.936  0.0007  0.1313 -0.1170
30624SOL    HW1 9482   1.227   0.183   9.011  1.0458  1.9526  1.5275
30624SOL    HW2 9483   1.364   0.226   8.964  1.2817 -2.6180 -2.9683
30625SOL     OW 9484  10.465  10.496   3.471 -0.1795  0.7852 -0.3158
30625SOL    HW1 9485  10.495  10.490   3.380 -2.5607  2.2701 -1.2892
30625SOL    HW2 9486  10.545  10.502   3.522  1.3262 -1.9265 -2.0664
30626SOL     OW 9487  11.064  11.969   5.148  0.5732 -0.2944 -0.6994
30626SOL    HW1 9488  10.997  11.945   5.211  0.4931 -2.8365 -1.6270
30626SOL    HW2 9489  11.050  12.062   5.131 -1.6441 -0.3882  0.3603
30627SOL     OW 9490   2.492   6.901   1.235 -0.2924  0.6414 -0.5018
30627SOL    HW1 9491   2.470   6.856   1.153 -1.5458 -0.1883  0.2467
30627SOL    HW2 9492   2.435   6.860   1.300 -0.3951  2.2934  0.5137
30628SOL     OW 9493   0.131   1.558   3.941  0.2122  0.0033 -0.6092
30628SOL    HW1 9494   0.160   1.564   4.032 -1.8458  1.9989  0.0038
30628SOL    HW2 9495   0.209   1.580   3.889  1.2205 -0.4389  0.6888
30629SOL     OW 9496   1.742   7.280   5.322 -0.1833 -0.0584 -0.2142
30629SOL    HW1 9497   1.649   7.256   5.323 -0.8986  2.1185 -2.9976
30629SOL    HW2 9498   1.755   7.323   5.238  3.1997  0.4841  0.4417
30630SOL     OW 9499  13.367  11.397  13.272  0.3649 -0.0017  0.1823
30630SOL    HW1 9500  13.288  11.410  13.220 -0.1742  1.9972  1.3720
30630SOL    HW2 9501  13.433  11.368  13.209 -0.7570  0.3621 -1.2189
30631SOL     OW 9502   6.087  12.978   5.155 -0.2151 -0.0983 -0.5398
30631SOL    HW1 9503   6.064  12.945   5.241 -1.4585  0.5083 -0.6171
30631SOL    HW2 9504   6.169  13.026   5.168 -0.8587  0.7697  0.5029
30632SOL     OW 9505   2.834  10.601   3.653  0.2487 -0.0309 -0.0544
30632SOL    HW1 9506   2.796  10.688   3.638  0.1767  0.2662  1.7245
30632SOL    HW2 9507   2.913  10.600   3.599  0.2428  1.1198 -0.1031
30633SOL     OW 9508   2.778  13.608   1.605  0.0263 -0.2013  0.1466
30633SOL    HW1 9509   2.832  13.662   1.547  0.8136 -0.5480  0.5468
30633SOL    HW2 9510   2.708  13.574   1.548  0.6186 -0.2996 -0.5386
30634SOL     OW 9511   9.863   3.174  13.182 -0.1169  0.1534  0.0250
30634SOL    HW1 9512   9.858   3.216  13.096  1.8718  1.3664  0.4462
30634SOL    HW2 9513   9.931   3.222  13.228  2.1386 -3.3466  0.6782
30635SOL     OW 9514   5.649   6.452  10.500 -0.1644  0.1077  0.1872
30635SOL    HW1 9515   5.738   6.443  10.533 -0.2482 -1.0687  0.1438
30635SOL    HW2 9516   5.593   6.435  10.576 -0.3522  0.4834  0.1349
30636SOL     OW 9517   1.507   0.130   8.745 -0.0905  0.1094 -0.5848
30636SOL    HW1 9518   1.435   0.185   8.714 -0.1943  0.1983 -0.1975
30636SOL    HW2 9519   1.463   0.056   8.788  0.0476 -0.0149 -0.6605
30637SOL     OW 9520   4.532   5.672   5.180  0.7465 -0.1218 -0.3091
30637SOL    HW1 9521   4.571   5.614   5.116 -0.6300 -1.3288 -0.0994
30637SOL    HW2 9522   4.442   5.641   5.189 -0.4882  2.8511 -1.1894
30638SOL     OW 9523  10.203   8.061   6.476  0.2428 -0.2104 -0.7404
30638SOL    HW1 9524  10.120   8.099   6.506  1.5354  2.8687 -0.7572
30638SOL    HW2 9525  10.232   8.007   6.549 -1.5299 -0.9920 -0.5672
30639SOL     OW 9526   0.336   9.216   5.513 -0.0742  0.9172  0.4400
30639SOL    HW1 9527   0.364   9.142   5.568 -0.4782  0.7169  0.3789
30639SOL    HW2 9528   0.405   9.281   5.524 -0.0568  0.8081  1.0437
30640SOL     OW 9529   0.105   2.988  11.633 -0.2768 -0.2123  0.1585
30640SOL    HW1 9530   0.115   3.062  11.573 -1.5819 -1.2339 -1.4257
30640SOL    HW2 9531   0.012   2.966  11.628 -0.0086 -1.6529  0.9525
30641SOL     OW 9532   5.794   1.221   6.604  0.6070 -0.2961  0.3692
30641SOL    HW1 9533   5.708   1.239   6.567  0.6143  0.6965  0.8038
30641SOL    HW2 9534   5.831   1.153   6.547  0.2833  0.5732 -0.9106
30642SOL     OW 9535   6.021  13.095   7.553 -0.1451  0.0534 -0.1706
30642SOL    HW1 9536   6.104  13.060   7.523  0.5874  0.7599  0.9328
30642SOL    HW2 9537   5.990  13.151   7.482  0.5502  0.1331 -0.4097
30643SOL     OW 9538   0.366  11.499   0.987 -0.4653 -0.7044  0.0816
30643SOL    HW1 9539   0.415  11.454   1.056 -0.3578  0.2010  0.6126
30643SOL    HW2 9540   0.276  11.502   1.019 -0.7559 -1.7794 -0.5942
30644SOL     OW 9541   3.693  12.405  13.806  0.1279  0.3323  0.0160
30644SOL    HW1 9542   3.758  12.383  13.739  1.1669 -1.6903  1.5620
30644SOL    HW2 9543   3.619  12.348  13.787  0.3389 -0.0880  0.4246
30645SOL     OW 9544   6.289   1.267  13.306  0.0536  0.7129  0.0707
30645SOL    HW1 9545   6.323   1.259  13.395  0.1982  1.2687  0.0686
30645SOL    HW2 9546   6.225   1.196  13.298  0.4138  0.3426  0.4413
30646SOL     OW 9547  13.937  11.225   8.999 -0.1135 -0.6497 -0.3687
30646SOL    HW1 9548  13.955  11.225   9.093 -0.6875 -1.0775 -0.2535
30646SOL    HW2 9549  13.865  11.287   8.989 -1.9001 -2.5540 -0.1307
30647SOL     OW 9550   0.922   0.848   1.477 -0.2839  0.1501  0.6783
30647SOL    HW1 9551   0.932   0.762   1.516  1.0951  0.0787  0.2150
30647SOL    HW2 9552   0.911   0.907   1.552 -2.0757 -0.4951  0.9697
30648SOL     OW 9553   1.150   3.338   6.084  0.2564 -0.2579  0.2519
30648SOL    HW1 9554   1.149   3.339   6.179  0.3993  1.6001  0.2676
30648SOL    HW2 9555   1.152   3.431   6.059 -0.0650 -0.7021 -1.5566
30649SOL     OW 9556   7.921   4.682   3.325  0.6685  0.1764  0.4568
30649SOL    HW1 9557   8.000   4.729   3.350  0.5877  1.2224 -1.0770
30649SOL    HW2 9558   7.852   4.723   3.378  0.8676  0.6431  0.3663
30650SOL     OW 9559   6.789  13.080  11.559  0.0402 -0.2160  0.9485
30650SOL    HW1 9560   6.870  13.032  11.578  0.7626  0.2954 -0.6662
30650SOL    HW2 9561   6.724  13.011  11.543  0.0916 -0.6323  2.4225
30651SOL     OW 9562   6.733   5.234   3.576 -0.3069  0.2145 -0.8615
30651SOL    HW1 9563   6.750   5.328   3.584  0.3685  0.1119 -1.0110
30651SOL    HW2 9564   6.663   5.217   3.639  0.0418  0.6953 -0.3344
30652SOL     OW 9565   0.709  10.835   2.620  0.0046  0.1633 -0.4242
30652SOL    HW1 9566   0.719  10.768   2.553 -1.6037 -0.5352 -0.0017
30652SOL    HW2 9567   0.795  10.839   2.663 -0.0154 -1.9716 -0.1197
30653SOL     OW 9568   4.462  12.904   3.818 -0.0369 -0.4755  0.5239
30653SOL    HW1 9569   4.439  12.979   3.762 -2.1859 -0.9236  0.7143
30653SOL    HW2 9570   4.514  12.847   3.761  1.9974  1.2899  0.4929
30654SOL     OW 9571   3.085  10.288   0.044  0.3628 -0.3696 -0.3512
30654SOL    HW1 9572   3.035  10.325  -0.029  0.5425  0.0260 -0.2728
30654SOL    HW2 9573   3.149  10.355   0.066 -1.2658  0.5899  1.8085
30655SOL     OW 9574  11.525   0.283   3.742  0.0722  0.3766  0.2504
30655SOL    HW1 9575  11.575   0.359   3.772 -2.0656  1.5552  1.0594
30655SOL    HW2 9576  11.548   0.214   3.804  0.4953  0.9821  0.7813
30656SOL     OW 9577   4.867  10.092   2.688  0.1506 -0.4616  0.0395
30656SOL    HW1 9578   4.961  10.099   2.701  0.1094  1.5821 -0.4395
30656SOL    HW2 9579   4.857  10.036   2.612  0.9585 -0.8590  0.2147
30657SOL     OW 9580  12.969   9.719   5.401 -0.2295  0.2676  0.0498
30657SOL    HW1 9581  13.051   9.692   5.358 -0.6536  1.0714 -1.3167
30657SOL    HW2 9582  12.925   9.636   5.421 -0.4909 -0.1611 -2.0636
30658SOL     OW 9583   7.792   3.057  12.548 -0.3068  0.5560  0.1845
30658SOL    HW1 9584   7.803   3.056  12.643 -0.1121 -1.6985  0.1993
30658SOL    HW2 9585   7.701   3.031  12.534  0.3291 -1.7328 -0.2093
30659SOL     OW 9586   7.047  13.794   4.180 -0.0436 -0.1591 -0.5921
30659SOL    HW1 9587   6.964  13.823   4.219  0.3941 -1.0667  1.1119
30659SOL    HW2 9588   7.091  13.747   4.250  1.7022 -0.1532 -1.6292
30660SOL     OW 9589   2.026   5.638   0.966  0.5352 -0.3417 -0.2119
30660SOL    HW1 9590   2.063   5.712   1.014 -1.0355  0.0876  0.4001
30660SOL    HW2 9591   2.022   5.567   1.030  2.6384 -1.2269 -0.9632
30661SOL     OW 9592   2.872  11.612   6.512 -0.0285 -0.0684 -0.3628
30661SOL    HW1 9593   2.850  11.520   6.494  0.9291 -0.3113 -0.3338
30661SOL    HW2 9594   2.958  11.624   6.472  0.8275  0.2099  1.4550
30662SOL     OW 9595   8.111   6.774   0.537  0.2595 -0.2119  0.1290
30662SOL    HW1 9596   8.174   6.844   0.520 -1.2573  1.4297  0.9960
30662SOL    HW2 9597   8.094   6.779   0.631 -1.4560 -0.3338 -0.1487
30663SOL     OW 9598   1.231  12.251   3.458 -0.1593 -0.3244  0.2998
30663SOL    HW1 9599   1.266  12.308   3.526 -2.4022  0.4393  0.9150
30663SOL    HW2 9600   1.137  12.272   3.455 -0.6911 -2.5278 -0.8911
30664SOL     OW 9601  12.260  10.965   4.260  0.1184 -0.2995  0.9488
30664SOL    HW1 9602  12.282  11.057   4.242  0.6341 -0.6080 -0.0358
30664SOL    HW2 9603  12.167  10.967   4.281  0.0475  0.4045  0.6044
30665SOL     OW 9604  12.756  11.529  11.841  0.0135  0.5937 -0.6176
30665SOL    HW1 9605  12.786  11.438  11.838 -1.4512  0.0985 -1.2250
30665SOL    HW2 9606  12.669  11.524  11.881  1.6836  2.2892  3.9625
30666SOL     OW 9607   2.340   9.950  13.879  0.7921  0.1151  0.3727
30666SOL    HW1 9608   2.261   9.942  13.933  1.0322  0.3257  0.7684
30666SOL    HW2 9609   2.308   9.960  13.790  0.3693  0.1939  0.5302
30667SOL     OW 9610   2.883  11.593  11.151 -0.0037 -0.0520  0.3000
30667SOL    HW1 9611   2.907  11.656  11.219  0.2235 -1.5169  1.6139
30667SOL    HW2 9612   2.937  11.618  11.076  0.8414  0.6834  1.1198
30668SOL     OW 9613   2.267  13.702   7.215 -0.5885  0.1931 -0.2001
30668SOL    HW1 9614   2.231  13.614   7.217  0.8840 -0.4255 -0.0572
30668SOL    HW2 9615   2.271  13.724   7.121  0.1686 -0.3774 -0.3073
30669SOL     OW 9616  13.742   1.665  13.174 -0.8200  0.2066  0.0816
30669SOL    HW1 9617  13.823   1.684  13.127 -0.3677 -1.6683 -0.0050
30669SOL    HW2 9618  13.688   1.742  13.161  0.8761  1.4361 -0.0166
30670SOL     OW 9619  13.414  11.288   1.483 -0.1939 -0.3412 -0.3145
30670SOL    HW1 9620  13.452  11.353   1.542  1.4856  1.4532 -3.1244
30670SOL    HW2 9621  13.479  11.217   1.482  0.8644  0.6018 -1.5475
30671SOL     OW 9622   8.354  10.859   7.511 -0.4277 -0.0172 -0.9458
30671SOL    HW1 9623   8.398  10.934   7.472 -0.9450  0.8600  0.0890
30671SOL    HW2 9624   8.360  10.875   7.606 -0.5178 -1.3024 -0.7096
30672SOL     OW 9625   6.807  10.731   1.918  0.5096  0.2229 -0.2640
30672SOL    HW1 9626   6.793  10.717   1.824  0.8596 -0.7815 -0.1767
30672SOL    HW2 9627   6.831  10.645   1.952 -0.7200  0.3290  0.9651
30673SOL     OW 9628  10.485   0.548   6.394  0.0311 -0.2291 -0.4889
30673SOL    HW1 9629  10.439   0.613   6.341  1.4031  0.6714 -0.6155
30673SOL    HW2 9630  10.499   0.591   6.478  0.1752 -0.6863 -0.2776
30674SOL     OW 9631   5.675  11.831  11.246 -0.0736 -0.0047  0.2177
30674SOL    HW1 9632   5.600  11.778  11.220 -0.8727  1.7000 -1.1604
30674SOL    HW2 9633   5.683  11.897  11.178  1.9241  0.6361  0.9944
30675SOL     OW 9634  11.637  13.094   0.732  0.2349  0.2617 -0.0610
30675SOL    HW1 9635  11.688  13.093   0.651  0.4976 -0.0623  0.1062
30675SOL    HW2 9636  11.557  13.045   0.711 -0.0631  0.8566 -0.3527
30676SOL     OW 9637   6.182   1.633   9.753 -0.3311  0.2482 -0.3871
30676SOL    HW1 9638   6.190   1.538   9.740 -1.3753  0.0441  0.3176
30676SOL    HW2 9639   6.087   1.648   9.759 -0.2652  1.5410 -1.8252
30677SOL     OW 9640  10.678   8.906   3.777  0.2093  0.5601 -0.5322
30677SOL    HW1 9641  10.721   8.991   3.791  2.8241 -0.9198  1.4441
30677SOL    HW2 9642  10.669   8.899   3.682  2.0364  2.1004 -0.8879
30678SOL     OW 9643  11.613   0.642   0.476 -0.3775 -0.1745  0.4831
30678SOL    HW1 9644  11.689   0.602   0.519  0.1067 -0.1363 -0.3198
30678SOL    HW2 9645  11.555   0.568   0.458  0.5661 -0.5771 -1.0984
30679SOL     OW 9646   8.911   6.260   7.986  0.2280  0.1311  0.1889
30679SOL    HW1 9647   8.966   6.245   7.909 -0.6170  1.7657 -0.7731
30679SOL    HW2 9648   8.892   6.353   7.985  1.6031  0.6063  3.3716
30680SOL     OW 9649   7.015  13.667  11.730 -0.1642 -0.1087  0.3422
30680SOL    HW1 9650   7.013  13.717  11.811 -0.0725  0.3577  0.0576
30680SOL    HW2 9651   7.070  13.591  11.750  2.3624  1.4798 -0.1228
30681SOL     OW 9652   9.957   4.083   1.611  0.1074  0.6758 -0.1420
30681SOL    HW1 9653   9.877   4.082   1.663  0.6447 -0.6629  0.7418
30681SOL    HW2 9654  10.005   4.160   1.642  0.8445 -0.5922  2.1545
30682SOL     OW 9655   0.990  10.372   7.446 -0.1106  0.5039 -0.2495
30682SOL    HW1 9656   1.082  10.394   7.459 -0.5238  2.6935 -0.6274
30682SOL    HW2 9657   0.953  10.450   7.404 -1.7669 -1.0174 -1.7327
30683SOL     OW 9658  10.729   0.877   4.714 -0.4085 -0.3782 -0.2528
30683SOL    HW1 9659  10.664   0.935   4.676 -1.0063 -0.0680  1.1613
30683SOL    HW2 9660  10.684   0.793   4.724 -0.5410 -0.2222  0.5276
30684SOL     OW 9661   0.660  13.369   3.582  0.5249 -0.3362  0.4653
30684SOL    HW1 9662   0.709  13.377   3.500 -0.3753 -2.3277 -0.3244
30684SOL    HW2 9663   0.593  13.437   3.576  0.3281 -0.6046 -0.5671
30685SOL     OW 9664   3.401   9.971   7.339  0.0183  0.1557  0.4081
30685SOL    HW1 9665   3.321  10.015   7.368  0.7348  1.0619  1.0165
30685SOL    HW2 9666   3.378   9.878   7.342 -1.8206  0.4202 -1.7877
30686SOL     OW 9667   0.067   4.021   4.327  0.3495  0.1950 -0.0253
30686SOL    HW1 9668   0.046   4.096   4.383 -0.8513  0.0704 -0.2758
30686SOL    HW2 9669  -0.007   3.961   4.339  0.6558 -0.3562 -0.8252
30687SOL     OW 9670  12.704   3.548   3.462 -0.2809 -0.2242 -0.0091
30687SOL    HW1 9671  12.618   3.532   3.424 -0.2423 -2.1683  0.6078
30687SOL    HW2 9672  12.763   3.491   3.413  0.5283  0.4815  0.1165
30688SOL     OW 9673   8.429   4.310  11.101 -0.4380 -0.8632  0.1908
30688SOL    HW1 9674   8.395   4.264  11.025 -2.3996  1.3536 -0.3846
30688SOL    HW2 9675   8.473   4.387  11.065 -0.6977 -0.1957  1.2519
30689SOL     OW 9676  13.310   0.655   8.565 -0.5206  0.1794  0.2714
30689SOL    HW1 9677  13.310   0.732   8.507 -0.7708  0.9570  1.2839
30689SOL    HW2 9678  13.386   0.604   8.536 -0.5153  0.6628 -0.6038
30690SOL     OW 9679   5.502   3.697  12.843 -0.8256  0.2871  0.1152
30690SOL    HW1 9680   5.529   3.735  12.759  1.8135  1.1584  1.2577
30690SOL    HW2 9681   5.461   3.769  12.890 -0.0956  0.4769  0.4764
30691SOL     OW 9682   3.860  12.871  12.874  0.2443  0.0530  0.0520
30691SOL    HW1 9683   3.874  12.888  12.781  0.5979  0.7976  0.2336
30691SOL    HW2 9684   3.766  12.851  12.881  0.0080  0.9675 -0.3292
30692SOL     OW 9685   5.515   2.827  14.060 -0.2438  0.8255  0.2204
30692SOL    HW1 9686   5.527   2.732  14.056 -0.4421  0.7402  1.2729
30692SOL    HW2 9687   5.567   2.861  13.988  0.7937 -0.0112  0.5525
30693SOL     OW 9688  13.446  11.639   6.624 -0.5289 -0.2568  0.3468
30693SOL    HW1 9689  13.487  11.552   6.625 -0.5575 -0.2666  0.9532
30693SOL    HW2 9690  13.410  11.648   6.536  0.0854 -0.5760  0.0602
30694SOL     OW 9691   5.515   8.046   0.730 -0.2820  0.3077 -0.0404
30694SOL    HW1 9692   5.487   8.018   0.642 -0.7076  0.7880 -0.0623
30694SOL    HW2 9693   5.488   8.137   0.735  0.5315  0.5339  0.2706
30695SOL     OW 9694  10.490   9.988   9.757 -0.0474 -0.0361  0.2980
30695SOL    HW1 9695  10.577   9.969   9.720 -0.1036 -0.2918  0.2938
30695SOL    HW2 9696  10.434  10.002   9.680 -0.2092 -0.7656  0.2697
30696SOL     OW 9697  12.426   0.374   0.059 -0.0645  0.2880 -0.0740
30696SOL    HW1 9698  12.419   0.282   0.032 -0.3700  1.0136 -2.7124
30696SOL    HW2 9699  12.516   0.382   0.091 -0.1093 -0.9640  0.4383
30697SOL     OW 9700   3.428   5.553   5.504  0.1239 -0.3048  0.0725
30697SOL    HW1 9701   3.425   5.512   5.417 -2.4589  0.4488 -0.2712
30697SOL    HW2 9702   3.417   5.481   5.565 -0.9364 -0.5382 -0.3761
30698SOL     OW 9703   1.222   4.829   6.772  0.1579 -0.6540 -0.1077
30698SOL    HW1 9704   1.131   4.847   6.749  1.1219 -1.2269 -5.9370
30698SOL    HW2 9705   1.251   4.906   6.820 -2.8367  0.4450  0.1362
30699SOL     OW 9706  10.312  10.161  13.070  0.3666  0.6837  0.0704
30699SOL    HW1 9707  10.394  10.165  13.020  0.6902  0.2306  0.5592
30699SOL    HW2 9708  10.266  10.085  13.034 -0.2355  1.4342 -0.7897
30700SOL     OW 9709  13.764   0.443   2.182 -0.1423 -0.3712  0.4769
30700SOL    HW1 9710  13.698   0.413   2.120 -1.1826  1.2668  0.7196
30700SOL    HW2 9711  13.770   0.373   2.247 -1.1564 -0.8426  0.0807
30701SOL     OW 9712   4.967   3.669  12.065 -0.1022  0.0739 -0.3606
30701SOL    HW1 9713   4.915   3.658  11.985  1.6598 -1.0190 -1.4144
30701SOL    HW2 9714   4.937   3.598  12.122 -0.0723 -0.2980 -0.7972
30702SOL     OW 9715  10.492   5.044   9.966 -0.6301  0.3687  0.2040
30702SOL    HW1 9716  10.489   4.978  10.036  0.0848 -1.1468 -1.1153
30702SOL    HW2 9717  10.476   4.994   9.886 -2.2439  2.1860 -0.6771
30703SOL     OW 9718  12.327   4.361   7.064 -0.0797 -0.2158 -0.1214
30703SOL    HW1 9719  12.347   4.355   7.157 -2.8249  1.0166  0.6559
30703SOL    HW2 9720  12.248   4.415   7.060 -0.5284 -0.9154 -3.1115
30704SOL     OW 9721  10.765   5.326   7.093 -0.0298  1.1618 -0.4857
30704SOL    HW1 9722  10.731   5.341   7.181  1.9599  1.0339  0.3602
30704SOL    HW2 9723  10.821   5.402   7.076  0.5299  0.6117 -1.1549
30705SOL     OW 9724  11.573   3.834   8.096 -0.0263  0.0001 -0.4564
30705SOL    HW1 9725  11.512   3.787   8.152 -0.0768  0.7024  0.0786
30705SOL    HW2 9726  11.554   3.926   8.111  0.7946  0.2147 -0.7013
30706SOL     OW 9727  13.729   3.761   2.763 -0.4297  0.1185 -0.2522
30706SOL    HW1 9728  13.796   3.828   2.773 -2.0655  2.0121 -1.2232
30706SOL    HW2 9729  13.716   3.727   2.852  1.7058 -0.2643 -0.0331
30707SOL     OW 9730  11.743  13.888   1.016  0.1840 -0.4612 -0.2594
30707SOL    HW1 9731  11.775  13.854   0.933  2.2727 -1.8655  1.0008
30707SOL    HW2 9732  11.763  13.982   1.013  1.5456 -0.7484 -0.8088
30708SOL     OW 9733  11.302   3.458   0.569 -0.4106 -1.3802  0.0920
30708SOL    HW1 9734  11.322   3.395   0.500  0.4037  0.1937 -1.1468
30708SOL    HW2 9735  11.315   3.544   0.529 -1.0967 -0.3999  1.8544
30709SOL     OW 9736   1.404  11.910   9.729 -0.0110 -0.0675  0.1663
30709SOL    HW1 9737   1.499  11.894   9.727  0.2278  1.1844 -2.0309
30709SOL    HW2 9738   1.369  11.853   9.661 -0.6135  0.5487 -0.0499
30710SOL     OW 9739  11.260  12.732   6.486  0.1527  0.3906 -0.2244
30710SOL    HW1 9740  11.254  12.777   6.403 -0.5803  1.0294  0.1684
30710SOL    HW2 9741  11.268  12.639   6.463 -1.5148  0.4111 -0.9845
30711SOL     OW 9742   0.265  12.739   8.438  0.1901 -0.0166 -0.2876
30711SOL    HW1 9743   0.296  12.817   8.485 -0.1853  0.7339 -1.2363
30711SOL    HW2 9744   0.234  12.680   8.506  2.2198 -0.1426  0.5891
30712SOL     OW 9745   1.794   7.131   1.875  0.1599 -0.5098  0.0077
30712SOL    HW1 9746   1.799   7.140   1.970 -3.8542 -2.6249  0.6295
30712SOL    HW2 9747   1.827   7.043   1.857  0.8290 -0.1496 -0.5997
30713SOL     OW 9748  12.372   3.918   8.159  0.4810  0.2207  0.4784
30713SOL    HW1 9749  12.373   3.826   8.133 -0.7628  0.5606 -0.9325
30713SOL    HW2 9750  12.455   3.953   8.127 -0.3387  0.2511 -1.8199
30714SOL     OW 9751  11.243   2.328   5.893 -0.1118  0.0598 -0.0066
30714SOL    HW1 9752  11.309   2.354   5.957  1.1537 -2.8601  0.0413
30714SOL    HW2 9753  11.237   2.403   5.833 -0.2576  2.2607  2.5909
30715SOL     OW 9754   0.432   6.336   6.712 -0.4306 -0.0145 -0.2909
30715SOL    HW1 9755   0.433   6.309   6.804  1.2542  1.1128  0.0611
30715SOL    HW2 9756   0.429   6.431   6.715  0.4303  0.0638 -1.3850
30716SOL     OW 9757   0.180   1.540   9.426  0.2546  0.1007  0.4671
30716SOL    HW1 9758   0.173   1.460   9.477 -0.4629  0.0208  0.2437
30716SOL    HW2 9759   0.187   1.511   9.335 -1.7628  0.3077  0.2053
30717SOL     OW 9760   1.696   2.618   1.600 -0.3811  0.6309 -0.1492
30717SOL    HW1 9761   1.791   2.617   1.589 -0.4309 -0.8067 -0.7247
30717SOL    HW2 9762   1.664   2.564   1.528 -1.6526  1.2199 -0.0388
30718SOL     OW 9763   9.294   7.918  13.709  0.0039  0.0949  0.1233
30718SOL    HW1 9764   9.345   7.964  13.642  0.0720  0.6319  0.5375
30718SOL    HW2 9765   9.344   7.839  13.727  0.4352  0.3694  0.1514
30719SOL     OW 9766  11.872   6.182   2.923  0.2939  0.4730  0.5815
30719SOL    HW1 9767  11.912   6.225   2.847 -0.9034  0.7352  0.0784
30719SOL    HW2 9768  11.928   6.106   2.940  1.2644  1.0774  0.2038
30720SOL     OW 9769  13.403   1.090   7.011  0.4084 -0.1104 -0.4299
30720SOL    HW1 9770  13.423   1.088   6.918  2.5621  0.9207 -0.0676
30720SOL    HW2 9771  13.448   1.014   7.047  0.2743 -0.0479 -0.1251
30721SOL     OW 9772  10.959   3.476   1.609 -0.2982 -0.1005  0.3389
30721SOL    HW1 9773  10.993   3.401   1.658 -0.6192 -0.6843 -0.3187
30721SOL    HW2 9774  10.944   3.443   1.520  2.0056  1.3957 -0.6945
30722SOL     OW 9775  13.844   8.692   6.207 -0.0236 -0.1345 -0.0741
30722SOL    HW1 9776  13.869   8.615   6.258 -0.4495 -0.0385  0.2933
30722SOL    HW2 9777  13.853   8.665   6.116 -1.4259 -1.0563  0.0277
30723SOL     OW 9778   2.545  12.421   5.878  0.6207  0.0984  0.2290
30723SOL    HW1 9779   2.614  12.482   5.903  1.5381 -0.1469 -1.5550
30723SOL    HW2 9780   2.474  12.477   5.847  0.8915  0.3068 -0.0207
30724SOL     OW 9781  11.513   9.595   1.805  0.2569 -0.5360 -0.8783
30724SOL    HW1 9782  11.583   9.585   1.871  0.2815 -0.7001 -0.9287
30724SOL    HW2 9783  11.476   9.507   1.796  1.6707 -1.0164 -2.6476
30725SOL     OW 9784   3.144  10.525  10.682  0.4986  0.0960 -0.7859
30725SOL    HW1 9785   3.107  10.464  10.619 -0.3545  0.4496 -0.6488
30725SOL    HW2 9786   3.151  10.474  10.763  0.5882 -0.0550 -0.8874
30726SOL     OW 9787   6.140  14.016   9.502  0.1699  0.2066 -0.2443
30726SOL    HW1 9788   6.057  13.970   9.509 -0.9145  2.0271 -0.6276
30726SOL    HW2 9789   6.121  14.106   9.529  2.3080  0.3922  0.9139
30727SOL     OW 9790   6.944  12.811   0.570  0.3237  0.1751 -0.0642
30727SOL    HW1 9791   6.855  12.835   0.595  0.5198  1.1679 -0.3053
30727SOL    HW2 9792   6.933  12.754   0.494 -0.1574 -0.8449  0.7371
30728SOL     OW 9793   8.701  13.611   9.698 -0.6004 -0.0464 -0.1881
30728SOL    HW1 9794   8.657  13.671   9.758 -1.5970 -0.5364 -0.4175
30728SOL    HW2 9795   8.718  13.664   9.620 -0.4484  0.2427  0.0366
30729SOL     OW 9796   9.654   1.899   1.514  0.2204  0.1525 -0.3254
30729SOL    HW1 9797   9.614   1.972   1.468  1.6703  1.8034  0.9246
30729SOL    HW2 9798   9.652   1.923   1.606  0.6887 -1.4118  0.1364
30730SOL     OW 9799   6.348   1.797   6.953  0.2089 -0.0913  0.3294
30730SOL    HW1 9800   6.347   1.865   7.020  0.4895  0.8157 -0.5653
30730SOL    HW2 9801   6.257   1.790   6.924  0.1297 -0.3095  0.6270
30731SOL     OW 9802   2.789   3.963  10.208 -0.3028  0.2640 -0.2011
30731SOL    HW1 9803   2.755   3.960  10.297  1.8078  0.7195  0.6741
30731SOL    HW2 9804   2.766   4.050  10.177 -0.1763  0.4670  0.2644
30732SOL     OW 9805   6.764  13.498  12.815  0.4230 -0.1541 -0.1315
30732SOL    HW1 9806   6.809  13.572  12.857 -0.7943  0.7366 -0.3133
30732SOL    HW2 9807   6.672  13.524  12.817 -0.2359 -2.3707  1.1724
30733SOL     OW 9808   7.146   2.031   9.745  0.5058 -0.4568  0.0294
30733SOL    HW1 9809   7.086   1.966   9.783  0.1443  0.0648  0.3664
30733SOL    HW2 9810   7.221   1.980   9.716  0.7525 -0.8909  1.3788
30734SOL     OW 9811  11.085  10.571  12.639 -0.0318  0.5652 -0.3737
30734SOL    HW1 9812  11.071  10.591  12.546 -0.6519  2.4863  0.0831
30734SOL    HW2 9813  11.180  10.564  12.647  0.0831  1.2526 -1.0022
30735SOL     OW 9814   7.335   1.671   0.291  0.0535 -0.5228  0.2015
30735SOL    HW1 9815   7.373   1.739   0.235 -2.3129 -0.3560 -1.3349
30735SOL    HW2 9816   7.366   1.589   0.252  3.0733 -0.4975  2.1713
30736SOL     OW 9817   8.809   5.932   2.879  0.1054 -0.5848 -0.3293
30736SOL    HW1 9818   8.753   5.946   2.803 -0.9444  1.2085  0.7146
30736SOL    HW2 9819   8.749   5.917   2.951  0.8996  1.2607  0.8013
30737SOL     OW 9820   3.028   0.235  11.436 -0.3104  0.1171 -0.8749
30737SOL    HW1 9821   3.015   0.267  11.346  0.9732  1.4090 -0.6437
30737SOL    HW2 9822   3.118   0.260  11.457 -0.5797 -0.1965  0.7603
30738SOL     OW 9823   8.471   5.422   8.830 -0.3917 -0.4512 -0.3085
30738SOL    HW1 9824   8.504   5.502   8.788  0.0215  1.2346  2.9127
30738SOL    HW2 9825   8.376   5.430   8.826 -0.3946  1.5367  2.1137
30739SOL     OW 9826   8.097   8.760   0.802  0.0247  0.0653  0.3750
30739SOL    HW1 9827   8.097   8.854   0.820  0.7670  0.3285 -0.8947
30739SOL    HW2 9828   8.180   8.728   0.839  1.0345  0.4146 -1.4690
30740SOL     OW 9829  12.868  12.524   3.046  0.0263 -0.4613  0.2409
30740SOL    HW1 9830  12.801  12.588   3.021 -0.5771 -1.2056 -0.0978
30740SOL    HW2 9831  12.950  12.560   3.012  0.0289  1.1169  1.8279
30741SOL     OW 9832  10.915   1.107   1.244  0.4708 -0.5234  0.2780
30741SOL    HW1 9833  10.834   1.065   1.214  1.5982 -1.3679 -1.8513
30741SOL    HW2 9834  10.921   1.086   1.337 -1.9354 -0.0864  0.5898
30742SOL     OW 9835  13.343   4.509  12.138 -0.0651  1.0153  0.2319
30742SOL    HW1 9836  13.299   4.487  12.220 -0.0584 -0.0725 -0.0328
30742SOL    HW2 9837  13.416   4.565  12.163  1.5419 -1.4133  1.3273
30743SOL     OW 9838  11.918   4.035   8.512  0.3539  0.2421  0.2358
30743SOL    HW1 9839  12.010   4.052   8.534  1.1104 -2.4992 -0.4334
30743SOL    HW2 9840  11.919   4.013   8.419 -0.7434 -1.1375  0.5192
30744SOL     OW 9841  12.579  13.412   7.389  0.0490  0.7369 -0.1073
30744SOL    HW1 9842  12.489  13.443   7.381  0.0941  0.8527 -0.1732
30744SOL    HW2 9843  12.628  13.488   7.422  0.4360  1.1886 -1.6535
30745SOL     OW 9844   8.124   8.046   4.483 -0.2835 -0.2259  0.0031
30745SOL    HW1 9845   8.087   8.037   4.395  0.8025  0.2426 -0.5059
30745SOL    HW2 9846   8.051   8.021   4.541 -1.1042 -0.2556 -1.0017
30746SOL     OW 9847   9.206  13.376   7.681  0.5182 -0.0361  0.3380
30746SOL    HW1 9848   9.126  13.332   7.710  0.3135 -0.1969 -0.4482
30746SOL    HW2 9849   9.272  13.306   7.678  0.4080 -0.1292 -0.0692
30747SOL     OW 9850   6.759   2.321   0.011 -0.3178  0.2571  0.3473
30747SOL    HW1 9851   6.777   2.233   0.045  0.7278  0.6818  0.9024
30747SOL    HW2 9852   6.831   2.340  -0.048 -1.3632  0.1232 -1.0220
30748SOL     OW 9853   7.236   4.350  13.387 -0.4318  0.2138  0.0834
30748SOL    HW1 9854   7.226   4.306  13.471 -2.2544 -1.2767 -0.8192
30748SOL    HW2 9855   7.163   4.413  13.384  0.6252  1.4839  0.2884
30749SOL     OW 9856   6.764   0.339   0.783 -0.3618  0.0345  0.0060
30749SOL    HW1 9857   6.844   0.299   0.818 -0.3233  0.6169  0.6144
30749SOL    HW2 9858   6.791   0.377   0.699  0.9843  3.3047  1.7064
30750SOL     OW 9859   7.910  12.027   9.817  0.1908 -0.3490 -0.2333
30750SOL    HW1 9860   7.829  12.027   9.766  0.4558 -1.6537 -0.6985
30750SOL    HW2 9861   7.979  12.033   9.752  0.4908  1.0130  0.1765
30751SOL     OW 9862   3.024  11.530  13.272 -0.0998 -0.3096  0.3653
30751SOL    HW1 9863   3.075  11.512  13.193  1.0339  1.6056  0.5748
30751SOL    HW2 9864   3.089  11.561  13.335 -1.0677 -1.2567  1.8815
30752SOL     OW 9865   4.196   9.151   4.275 -0.0204 -0.3979  0.0626
30752SOL    HW1 9866   4.209   9.236   4.232 -0.2771 -0.3046  0.1706
30752SOL    HW2 9867   4.102   9.142   4.284 -0.0205 -1.0000 -0.5378
30753SOL     OW 9868   0.590   7.671   6.497 -0.1777 -0.3126 -0.5819
30753SOL    HW1 9869   0.682   7.646   6.494 -0.3596 -1.0190 -0.7380
30753SOL    HW2 9870   0.545   7.591   6.524 -0.7195  0.0984 -0.2499
30754SOL     OW 9871   1.426   4.142   6.956  0.2682  0.3230  0.1349
30754SOL    HW1 9872   1.432   4.186   6.871  0.4674 -0.7001 -0.3984
30754SOL    HW2 9873   1.393   4.054   6.935  1.9168 -0.5244  0.8987
30755SOL     OW 9874   1.164   1.354   7.976 -0.3300  0.1168  0.3769
30755SOL    HW1 9875   1.082   1.401   7.991  0.0397  0.5116  1.2387
30755SOL    HW2 9876   1.144   1.294   7.905 -1.8349 -0.9366  1.6258
30756SOL     OW 9877   0.436   9.038   7.700 -0.7886  0.1000  0.0803
30756SOL    HW1 9878   0.467   9.091   7.774 -3.4509  0.7789  0.7918
30756SOL    HW2 9879   0.359   9.085   7.668 -1.9237 -2.1772 -0.7003
30757SOL     OW 9880   9.334   2.051  12.743 -0.2811 -0.3145  0.4552
30757SOL    HW1 9881   9.289   2.124  12.701  0.4753 -0.5744 -0.8855
30757SOL    HW2 9882   9.423   2.083  12.759  0.1780 -1.0258 -0.5161
30758SOL     OW 9883   8.444  12.559   5.173  0.0527  0.1890  0.2843
30758SOL    HW1 9884   8.385  12.527   5.240  0.5026 -1.8643 -0.2357
30758SOL    HW2 9885   8.532  12.545   5.209  0.2813  1.3112  0.2176
30759SOL     OW 9886   0.313   8.234   8.318 -0.2244  0.2861 -0.0843
30759SOL    HW1 9887   0.371   8.300   8.355  0.7694  0.0281 -1.1180
30759SOL    HW2 9888   0.323   8.158   8.376  0.3255  0.3142 -0.1357
30760SOL     OW 9889   4.727   6.391  12.947 -0.0152  0.5414 -0.2852
30760SOL    HW1 9890   4.795   6.455  12.969  0.9719  0.3670 -2.5297
30760SOL    HW2 9891   4.649   6.444  12.930  0.2274  0.9721 -0.0590
30761SOL     OW 9892   4.067   1.114   5.578 -0.5611  0.1542 -0.3944
30761SOL    HW1 9893   4.131   1.043   5.583 -0.2723  0.4301 -0.1257
30761SOL    HW2 9894   4.018   1.097   5.497 -1.3601 -1.0727  0.3231
30762SOL     OW 9895  11.622   6.902   5.448 -0.3250  0.0939  0.2444
30762SOL    HW1 9896  11.651   6.925   5.359 -0.4110  1.5879  0.5738
30762SOL    HW2 9897  11.576   6.819   5.437  2.2204 -1.2998 -0.6271
30763SOL     OW 9898   3.044   3.611  13.638  0.1435  0.2048 -0.4124
30763SOL    HW1 9899   3.099   3.540  13.605 -1.2164  0.0199 -2.4582
30763SOL    HW2 9900   3.084   3.691  13.602 -0.5130  0.1191 -1.3797
30764SOL     OW 9901   5.227  10.735   3.064  0.0531  0.2470 -0.6086
30764SOL    HW1 9902   5.247  10.663   3.004  0.2139  0.5221 -0.8823
30764SOL    HW2 9903   5.186  10.691   3.139  2.3105 -0.4571  0.3113
30765SOL     OW 9904   4.776   0.257  14.004  0.1522 -0.0020 -0.2181
30765SOL    HW1 9905   4.835   0.244  14.078  0.3425  0.2392 -0.3269
30765SOL    HW2 9906   4.695   0.291  14.044  0.7712  1.5852 -0.2679
30766SOL     OW 9907   2.556   6.094   9.963  0.6211  0.1682 -0.4545
30766SOL    HW1 9908   2.598   6.062  10.042 -0.3763  0.7398  0.3269
30766SOL    HW2 9909   2.463   6.075   9.976  0.6564 -1.7912 -2.4650
30767SOL     OW 9910  11.532  13.921   4.861  0.1017 -0.9413  0.1603
30767SOL    HW1 9911  11.557  13.999   4.910 -1.1172 -0.0426 -0.5885
30767SOL    HW2 9912  11.450  13.892   4.902  0.0107 -1.2256 -0.2097
30768SOL     OW 9913   6.869   2.444   1.801  0.1922 -0.2165 -0.0054
30768SOL    HW1 9914   6.927   2.478   1.869 -0.9508  0.8968  0.4450
30768SOL    HW2 9915   6.829   2.367   1.841 -1.1324  0.9269  0.9578
30769SOL     OW 9916   3.719   3.554   1.938 -0.0198  0.6642  0.8261
30769SOL    HW1 9917   3.806   3.574   1.974  0.9612  1.1281 -1.6030
30769SOL    HW2 9918   3.691   3.635   1.896 -0.7105 -0.0701 -0.1854
30770SOL     OW 9919  11.898   5.258  13.325  0.3605 -0.2885 -0.5216
30770SOL    HW1 9920  11.955   5.297  13.258 -1.0520  1.2917 -0.8720
30770SOL    HW2 9921  11.920   5.164  13.323 -0.7297 -0.6531 -4.4083
30771SOL     OW 9922   1.793   4.363   6.211  0.1765  0.7753  0.6854
30771SOL    HW1 9923   1.705   4.328   6.199  0.4276  1.0489 -3.1855
30771SOL    HW2 9924   1.851   4.293   6.181  1.0715  1.8404 -0.1465
30772SOL     OW 9925   1.383  13.885   8.325  0.0712  0.1926  0.3007
30772SOL    HW1 9926   1.399  13.966   8.276 -2.3911  2.0065  2.2262
30772SOL    HW2 9927   1.409  13.905   8.414 -0.6275 -1.1154  0.8295
30773SOL     OW 9928   3.809   3.595  12.737  0.8447 -0.5718 -0.5351
30773SOL    HW1 9929   3.823   3.632  12.650  0.3504  0.1645 -0.3031
30773SOL    HW2 9930   3.741   3.649  12.776 -0.5763 -2.2906 -0.5291
30774SOL     OW 9931   3.954   7.749   8.771 -0.0009  0.0466  0.1183
30774SOL    HW1 9932   3.962   7.715   8.860 -0.8269  1.7095  0.8705
30774SOL    HW2 9933   3.863   7.778   8.765  0.2055  0.4717 -1.0875
30775SOL     OW 9934   7.889  10.844  12.742 -0.1918 -0.2009  0.1542
30775SOL    HW1 9935   7.909  10.913  12.805 -0.9343  0.9071 -0.7729
30775SOL    HW2 9936   7.801  10.866  12.709 -0.8557 -2.1236  0.5133
30776SOL     OW 9937   2.367   8.319   5.123  0.0181 -0.4601  0.1358
30776SOL    HW1 9938   2.413   8.337   5.205  0.7153 -1.6112  0.0237
30776SOL    HW2 9939   2.287   8.273   5.149 -0.1388 -0.1489  0.2102
30777SOL     OW 9940   6.680   2.347   0.279 -0.0906  0.1739  0.1059
30777SOL    HW1 9941   6.612   2.287   0.249  0.1562 -0.2237  0.3377
30777SOL    HW2 9942   6.736   2.360   0.202 -0.6939  0.8831 -0.2265
30778SOL     OW 9943   0.686   3.505   4.186 -0.0837  0.1204  0.0438
30778SOL    HW1 9944   0.677   3.551   4.269  0.5733 -2.7826  1.8889
30778SOL    HW2 9945   0.718   3.571   4.125 -2.5874  2.9034  1.4598
30779SOL     OW 9946  10.659   9.489   8.256  0.1958  0.1849  0.3039
30779SOL    HW1 9947  10.708   9.504   8.175  1.3893  0.1517  0.9871
30779SOL    HW2 9948  10.577   9.537   8.244 -0.5903 -1.5247 -1.7434
30780SOL     OW 9949   6.637   1.054   3.273 -0.9257  0.0900  0.3107
30780SOL    HW1 9950   6.713   0.999   3.251 -0.8041  0.1066  0.6824
30780SOL    HW2 9951   6.660   1.141   3.241 -1.3409 -0.1708 -0.7674
30781SOL     OW 9952  12.655  12.880  11.047  0.6069  0.2246 -0.1104
30781SOL    HW1 9953  12.579  12.830  11.075  0.3963 -0.4998 -1.8783
30781SOL    HW2 9954  12.620  12.952  10.995  1.1119 -0.9620 -2.2308
30782SOL     OW 9955   9.442   5.587   3.755  0.1708 -0.2093 -0.0876
30782SOL    HW1 9956   9.486   5.638   3.688  2.5230  1.6311  2.6154
30782SOL    HW2 9957   9.379   5.648   3.795  0.4866 -0.4922  0.8788
30783SOL     OW 9958   4.357  11.932   3.351 -0.0988 -0.0905 -0.3914
30783SOL    HW1 9959   4.379  12.020   3.381 -0.8911  0.0427 -0.1851
30783SOL    HW2 9960   4.298  11.946   3.277  1.4058 -0.4241 -1.6913
30784SOL     OW 9961   0.491   4.350   0.504  0.8933 -0.4458 -0.0315
30784SOL    HW1 9962   0.476   4.408   0.579  1.0588 -1.7269  1.0350
30784SOL    HW2 9963   0.577   4.311   0.521  0.2991 -1.8542 -0.1102
30785SOL     OW 9964  12.366  11.551   6.159  0.1049  0.2452 -0.2312
30785SOL    HW1 9965  12.308  11.567   6.234  0.2705 -1.1786  0.2242
30785SOL    HW2 9966  12.338  11.615   6.094 -0.7328  0.8289  0.6643
30786SOL     OW 9967   1.406   2.251   3.622  0.2154  0.3395  0.6891
30786SOL    HW1 9968   1.460   2.254   3.701  1.6414 -2.8801 -0.0045
30786SOL    HW2 9969   1.327   2.203   3.648  0.5444 -0.4482  0.2748
30787SOL     OW 9970   8.841   4.775   2.091 -0.6663  0.1251 -0.6211
30787SOL    HW1 9971   8.929   4.801   2.119 -0.9697 -0.0473  0.5438
30787SOL    HW2 9972   8.783   4.830   2.144 -1.3466 -2.6785  1.8101
30788SOL     OW 9973   9.758   7.685  14.091 -0.3739  0.0397 -0.6715
30788SOL    HW1 9974   9.779   7.645  14.007  1.9352  2.2519 -1.2757
30788SOL    HW2 9975   9.694   7.754  14.069  1.2682  1.5530 -0.9470
30789SOL     OW 9976   2.634   2.307  10.985 -0.3707 -0.4659 -0.0088
30789SOL    HW1 9977   2.706   2.344  11.036 -0.8101  0.7489 -0.2451
30789SOL    HW2 9978   2.588   2.383  10.950 -0.1096 -1.2463 -2.2028
30790SOL     OW 9979   2.591   2.716   6.044 -0.2606 -0.8354  0.1968
30790SOL    HW1 9980   2.606   2.641   6.101  1.1194  0.1829  1.2473
30790SOL    HW2 9981   2.666   2.716   5.984 -0.2020 -0.2420  0.2681
30791SOL     OW 9982  12.493   3.025   2.327  0.2786 -0.5130 -0.0831
30791SOL    HW1 9983  12.458   2.978   2.402 -0.3569  1.2756  0.7936
30791SOL    HW2 9984  12.416   3.049   2.275  0.3802  1.1436  0.4746
30792SOL     OW 9985   4.312   9.722   5.225  0.3437  0.1291  0.3710
30792SOL    HW1 9986   4.277   9.794   5.173 -0.5440  0.0878  0.8935
30792SOL    HW2 9987   4.322   9.759   5.313  0.1592 -0.3050  0.5754
30793SOL     OW 9988   6.324  11.576   7.350  0.0297 -0.1263 -0.4793
30793SOL    HW1 9989   6.341  11.483   7.365 -2.6898 -0.9793 -2.0470
30793SOL    HW2 9990   6.292  11.609   7.434  0.0920 -0.8399 -0.1713
30794SOL     OW 9991   9.717   4.776   0.005 -0.1463  0.3481 -0.0520
30794SOL    HW1 9992   9.699   4.775   0.099  2.2541  3.8859  0.6330
30794SOL    HW2 9993   9.768   4.696  -0.010 -0.1171 -0.0350  1.7798
30795SOL     OW 9994   1.482  10.176  12.976 -0.2753  0.1733  0.1018
30795SOL    HW1 9995   1.418  10.119  13.020  0.7732  0.7397  2.5474
30795SOL    HW2 9996   1.448  10.264  12.989  0.6157  0.4277  0.8078
30796SOL     OW 9997   9.507   3.143   0.646  0.3836 -0.6249  0.3047
30796SOL    HW1 9998   9.413   3.127   0.634  0.4195  0.1563 -1.2296
30796SOL    HW2 9999   9.513   3.234   0.676  0.6440 -0.7705  0.7072
30797SOL     OW10000   5.474  12.130   2.520 -0.3489 -0.7038 -0.4354
30797SOL    HW110001   5.565  12.129   2.490 -0.5406  0.2509 -1.0601
30797SOL    HW210002   5.481  12.122   2.616  0.4400  0.2828 -0.3955
30798SOL     OW10003   7.427   0.654   8.183  0.0324  0.0292  0.7893
30798SOL    HW110004   7.455   0.717   8.117  1.6952  1.8221  3.0664
30798SOL    HW210005   7.492   0.584   8.179 -1.2406 -1.1473 -1.0340
30799SOL     OW10006   5.506  10.935   6.225  0.1007 -0.2690  0.2192
30799SOL    HW110007   5.451  10.949   6.148 -1.6181 -2.5180  0.9277
30799SOL    HW210008   5.561  10.860   6.203  1.2749  0.5016  0.3914
30800SOL     OW10009   7.298   6.499  11.776  0.1929  0.2698 -0.1553
30800SOL    HW110010   7.247   6.571  11.739  1.4938  2.1966  1.5756
30800SOL    HW210011   7.355   6.471  11.704 -1.9865 -0.7915 -1.5981
30801SOL     OW10012   6.360   2.974   6.905 -0.7216  0.6797 -0.0831
30801SOL    HW110013   6.447   2.994   6.940 -0.0696 -0.7076 -0.8223
30801SOL    HW210014   6.312   2.938   6.980  0.4839 -1.7522 -0.3714
30802SOL     OW10015  12.420   7.826   3.423  0.1261 -0.4369 -0.5355
30802SOL    HW110016  12.433   7.919   3.402 -2.1597  0.4232  1.4751
30802SOL    HW210017  12.419   7.823   3.519 -0.3267 -2.4790 -0.5604
30803SOL     OW10018   3.389   3.170   6.547  0.4254  1.1560  0.4695
30803SOL    HW110019   3.481   3.163   6.522  0.3326 -0.2821  0.4311
30803SOL    HW210020   3.390   3.173   6.642  0.5846  3.0022  0.4452
30804SOL     OW10021  10.591   5.364   3.200 -0.9677  0.6702 -0.3027
30804SOL    HW110022  10.574   5.308   3.275  0.3863  0.1387 -0.3685
30804SOL    HW210023  10.534   5.440   3.213 -0.8855  0.5036  1.1549
30805SOL     OW10024  10.021   8.224  12.689  0.2904 -0.5753  0.6521
30805SOL    HW110025  10.012   8.152  12.751 -0.0375  0.5975  2.0281
30805SOL    HW210026  10.043   8.182  12.606  0.1930 -2.2360  1.4283
30806SOL     OW10027   8.731  13.430   1.778 -0.2868 -0.2891  0.1492
30806SOL    HW110028   8.729  13.380   1.860 -1.8489 -1.9024 -0.8029
30806SOL    HW210029   8.780  13.375   1.718 -0.8980 -0.0662 -0.5613
30807SOL     OW10030   8.382  13.742   1.458 -0.4138 -0.0459  0.0624
30807SOL    HW110031   8.387  13.686   1.380 -2.6819 -0.1066 -0.1241
30807SOL    HW210032   8.471  13.745   1.491  0.1970 -1.9487 -1.2046
30808SOL     OW10033  10.566   5.191   6.535 -0.0962 -0.1603 -0.0582
30808SOL    HW110034  10.576   5.230   6.622  1.5297 -1.4520  0.3984
30808SOL    HW210035  10.510   5.115   6.548 -0.4550  0.0635 -0.2845
30809SOL     OW10036   1.118   5.770   6.367 -0.5275 -0.4184 -0.0297
30809SOL    HW110037   1.085   5.843   6.420  0.1910  0.5441 -0.8545
30809SOL    HW210038   1.143   5.811   6.284  3.1986 -0.9013  0.6448
30810SOL     OW10039   0.167  13.779  12.560  0.4951  0.2520  0.4666
30810SOL    HW110040   0.253  13.771  12.601  1.8629  0.8585 -2.0643
30810SOL    HW210041   0.177  13.740  12.473 -2.3218 -1.2612  0.7019
30811SOL     OW10042   0.542   6.987   6.312 -0.0088  0.7261  0.2569
30811SOL    HW110043   0.505   6.899   6.319  1.7185 -0.0547  0.2695
30811SOL    HW210044   0.501   7.025   6.235 -1.6152  0.3499  0.8970
30812SOL     OW10045   2.005   3.763  12.863 -0.6076 -0.0403 -0.6825
30812SOL    HW110046   1.977   3.689  12.808 -0.1329 -0.6024 -0.1826
30812SOL    HW210047   1.934   3.827  12.856 -1.3099 -0.8000 -0.6413
30813SOL     OW10048  13.232   9.980   7.149  0.0888 -0.2009 -0.3560
30813SOL    HW110049  13.274   9.899   7.176  1.5489  0.4454 -0.6027
30813SOL    HW210050  13.145   9.977   7.189  1.9330  0.5467  4.3407
30814SOL     OW10051   4.166  13.457   7.528  0.2749  0.2399  0.0207
30814SOL    HW110052   4.240  13.401   7.552  1.6437  0.7939 -2.5163
30814SOL    HW210053   4.175  13.468   7.433 -2.7945  0.7740 -0.3054
30815SOL     OW10054  11.550   7.599   6.973  0.2398  0.3994  0.1906
30815SOL    HW110055  11.574   7.691   6.972 -0.2502  0.5716 -2.3487
30815SOL    HW210056  11.627   7.554   6.938 -0.2286  0.0578 -0.4036
30816SOL     OW10057  10.103   0.515   6.029  0.3480 -0.1283  0.1475
30816SOL    HW110058  10.079   0.498   5.937  3.6127 -1.6638 -0.5903
30816SOL    HW210059  10.168   0.585   6.023 -0.9797  1.2631  1.5659
30817SOL     OW10060   1.710   8.704   3.411  0.1334 -0.3926  0.3902
30817SOL    HW110061   1.640   8.678   3.470  0.0291  0.0513  0.4701
30817SOL    HW210062   1.731   8.794   3.437 -1.1077  0.4545 -1.3569
30818SOL     OW10063  10.216   4.312  10.516  0.0125 -0.6641  0.0543
30818SOL    HW110064  10.281   4.319  10.445  0.2958  3.9008  0.4980
30818SOL    HW210065  10.269   4.306  10.596  0.0129  1.7679  0.3143
30819SOL     OW10066   5.561  11.977   2.087 -0.4377 -0.2014  0.7235
30819SOL    HW110067   5.599  11.989   2.001  2.0766  0.2149  1.8060
30819SOL    HW210068   5.500  11.904   2.077  0.7218 -0.9740 -1.1328
30820SOL     OW10069   1.818  13.472  10.123  0.4050 -0.0528  0.3594
30820SOL    HW110070   1.862  13.462  10.039 -0.6707 -1.5823 -0.0562
30820SOL    HW210071   1.725  13.469  10.103  0.1149  0.6836  1.4912
30821SOL     OW10072   9.535  13.143   2.869  0.3767  0.1685  0.3897
30821SOL    HW110073   9.506  13.225   2.909  1.3116 -0.7354  3.1717
30821SOL    HW210074   9.459  13.085   2.877  0.4262  0.1141  0.4596
30822SOL     OW10075  11.927   3.530   1.603  0.1985 -0.2060 -0.3934
30822SOL    HW110076  12.000   3.592   1.609  0.0015 -0.0147  0.1194
30822SOL    HW210077  11.884   3.536   1.688 -0.4339 -0.2950 -0.7000
30823SOL     OW10078  13.479   1.904  11.679 -0.1654 -0.2122  0.5045
30823SOL    HW110079  13.487   1.988  11.724  0.3760 -1.1442  2.2330
30823SOL    HW210080  13.569   1.873  11.671 -0.2589 -0.1585 -1.1339
30824SOL     OW10081   2.444  12.114   5.358  0.1754 -0.1155 -0.4747
30824SOL    HW110082   2.370  12.117   5.297 -0.2667  1.6320  0.0876
30824SOL    HW210083   2.404  12.089   5.441 -0.0794  2.1346  0.1438
30825SOL     OW10084   6.441   6.225   2.084  0.4972 -0.0252  0.0493
30825SOL    HW110085   6.412   6.312   2.057 -0.5590 -0.2300  0.4641
30825SOL    HW210086   6.528   6.215   2.044  1.1364  1.6540  0.9040
30826SOL     OW10087   1.424   5.017   7.353 -0.3466  0.3265 -0.6299
30826SOL    HW110088   1.390   5.100   7.386  0.4081  0.8415 -1.1231
30826SOL    HW210089   1.416   5.023   7.258 -1.2122 -0.5854 -0.6348
30827SOL     OW10090   6.053   1.357   1.545  0.4588 -0.3305  0.1323
30827SOL    HW110091   6.124   1.293   1.547  0.1780 -0.7247 -1.4258
30827SOL    HW210092   6.035   1.371   1.452 -1.7202 -0.4986  0.4770
30828SOL     OW10093   8.291  12.180   7.723  0.2914 -0.1200  0.2223
30828SOL    HW110094   8.310  12.216   7.810  0.0747  0.9359 -0.1491
30828SOL    HW210095   8.207  12.136   7.734  0.3942 -0.2263  0.6124
30829SOL     OW10096   0.898   1.094   7.888  0.4017 -0.0105  0.1496
30829SOL    HW110097   0.833   1.110   7.819 -0.7510 -1.7625  0.7553
30829SOL    HW210098   0.977   1.068   7.841 -0.5728 -1.8917 -0.5746
30830SOL     OW10099   7.070   1.623  13.982  0.3300  0.6379  0.4149
30830SOL    HW110100   7.147   1.675  14.005  0.6581  1.3730 -2.0561
30830SOL    HW210101   7.008   1.640  14.053  1.8816  1.1999  1.7081
30831SOL     OW10102  10.882   2.891   7.953  0.0593  0.0984  0.0181
30831SOL    HW110103  10.872   2.985   7.969  1.3328  0.1898  0.4121
30831SOL    HW210104  10.857   2.880   7.861 -0.8531  0.6864  0.1833
30832SOL     OW10105   9.349   9.205   1.555 -0.1093  0.3818 -0.1094
30832SOL    HW110106   9.308   9.212   1.469 -1.3402 -1.5700  0.2447
30832SOL    HW210107   9.339   9.113   1.579  0.8162  0.7272  1.8303
30833SOL     OW10108   4.647   2.461   3.610 -0.3462  0.6354  0.4591
30833SOL    HW110109   4.676   2.521   3.541 -0.0861  1.8999  1.6385
30833SOL    HW210110   4.552   2.472   3.612 -0.1459  2.4372  1.9061
30834SOL     OW10111   6.014   0.153   9.120  0.6073 -0.4887  0.3794
30834SOL    HW110112   6.106   0.135   9.098  1.2208 -0.8823  2.9386
30834SOL    HW210113   6.006   0.248   9.112  1.5183 -0.3448  1.0791
30835SOL     OW10114  12.033   6.288   8.479  0.5283 -0.8817 -0.5757
30835SOL    HW110115  12.003   6.310   8.568  0.5426 -3.5888  0.1914
30835SOL    HW210116  12.125   6.315   8.477  0.7221 -1.4079  0.5096
30836SOL     OW10117   6.735   8.977   0.173  0.7113  0.3711  0.4597
30836SOL    HW110118   6.731   9.071   0.189 -1.3696  0.1863  1.3791
30836SOL    HW210119   6.708   8.937   0.256  2.9408 -1.1196  0.5454
30837SOL     OW10120  10.058  12.649   8.822 -0.4393  0.1542 -0.0144
30837SOL    HW110121  10.016  12.633   8.906  1.6720 -0.1569  1.0441
30837SOL    HW210122  10.096  12.737   8.830  1.9112 -0.8139  0.3865
30838SOL     OW10123   3.779  10.956  11.614  0.3729 -0.5319  0.7030
30838SOL    HW110124   3.838  10.915  11.678  1.2465  2.7838  2.2649
30838SOL    HW210125   3.776  11.048  11.641 -0.1152  0.8463 -3.4148
30839SOL     OW10126  13.421  11.986   0.345 -0.3531  0.1044 -0.0132
30839SOL    HW110127  13.356  12.057   0.342 -0.3878  0.1114  0.7152
30839SOL    HW210128  13.453  11.987   0.435  0.7012  0.1320 -0.3747
30840SOL     OW10129   1.679  13.965   1.360  0.1430  0.5486 -0.3111
30840SOL    HW110130   1.735  13.995   1.432  1.0666  1.2470 -1.2794
30840SOL    HW210131   1.707  13.875   1.344  1.7188  1.1910 -1.4118
30841SOL     OW10132   3.631   4.169   2.390  0.4352 -0.0777  0.1326
30841SOL    HW110133   3.555   4.137   2.440  0.9904 -0.6195  0.6504
30841SOL    HW210134   3.597   4.185   2.302  0.1244 -2.1851 -0.1762
30842SOL     OW10135   2.681   4.058   6.199  0.2622 -0.3891 -0.4547
30842SOL    HW110136   2.634   3.977   6.178 -1.1122  0.3859 -0.5392
30842SOL    HW210137   2.652   4.080   6.288  0.3291  0.1855 -0.5703
30843SOL     OW10138   2.185   3.210  14.014 -0.0911 -0.0083 -0.2126
30843SOL    HW110139   2.238   3.171  14.083 -1.5257 -1.4518  0.1549
30843SOL    HW210140   2.199   3.154  13.938  0.3103  0.6784 -0.6506
30844SOL     OW10141  11.750   2.658   8.632  0.0787  0.9451 -0.8133
30844SOL    HW110142  11.722   2.749   8.636 -2.0575  0.3485 -0.9330
30844SOL    HW210143  11.670   2.609   8.612  1.1771 -0.9560 -0.8082
30845SOL     OW10144  11.385   1.575   6.769  0.2344 -0.0386  0.6117
30845SOL    HW110145  11.449   1.643   6.790 -1.1122  1.5626 -0.2061
30845SOL    HW210146  11.311   1.593   6.826  0.2678 -1.5307  1.1627
30846SOL     OW10147   9.942   1.803   3.527 -0.3900  0.3385 -0.3731
30846SOL    HW110148   9.871   1.867   3.532  0.0518  0.7517  0.9983
30846SOL    HW210149  10.016   1.846   3.569  0.5469 -0.2859 -1.3165
30847SOL     OW10150  13.421   8.960   5.463 -0.2971 -0.0037 -0.2650
30847SOL    HW110151  13.421   8.875   5.419  0.3690 -0.4434  0.5553
30847SOL    HW210152  13.513   8.981   5.476 -0.4629  0.7040 -0.1870
30848SOL     OW10153  11.237   4.539  12.755 -0.2239  0.0903 -0.9860
30848SOL    HW110154  11.277   4.503  12.677  0.4260 -0.0651 -0.5915
30848SOL    HW210155  11.189   4.466  12.794 -1.0368  0.3147 -1.5386
30849SOL     OW10156   4.280   8.731   6.248 -0.4545 -0.2596 -0.5595
30849SOL    HW110157   4.221   8.690   6.185  0.3480  0.3346 -1.7467
30849SOL    HW210158   4.351   8.667   6.259  0.4459  0.4444 -1.8832
30850SOL     OW10159  13.214   3.669  11.256  0.4420  0.3678 -0.4636
30850SOL    HW110160  13.221   3.623  11.173  0.7113 -0.3701 -0.0379
30850SOL    HW210161  13.121   3.691  11.264 -0.2603 -2.5854  0.6162
30851SOL     OW10162   6.408   8.744   9.280 -0.2869 -0.2813  0.1415
30851SOL    HW110163   6.396   8.657   9.241  2.2118 -0.6280 -0.0598
30851SOL    HW210164   6.442   8.726   9.368 -0.6014  0.5100  0.4358
30852SOL     OW10165  13.874   3.849  11.546 -0.1873 -0.3684 -0.4328
30852SOL    HW110166  13.938   3.909  11.508 -0.6578  0.1386 -0.4254
30852SOL    HW210167  13.806   3.841  11.480  0.4037 -1.7812 -0.9073
30853SOL     OW10168  12.649   2.460   4.123  0.7293 -0.2130  0.0279
30853SOL    HW110169  12.600   2.533   4.162  0.8613  0.3586 -0.8383
30853SOL    HW210170  12.729   2.455   4.175  1.1374  0.8697 -0.4564
30854SOL     OW10171   0.854   4.207   7.273  0.1146  0.5931 -0.2083
30854SOL    HW110172   0.846   4.160   7.355 -1.9931  0.4131 -0.4445
30854SOL    HW210173   0.932   4.172   7.231 -0.8139 -2.0053  0.0749
30855SOL     OW10174   9.216  12.484   6.439 -0.5078 -0.2110 -0.5866
30855SOL    HW110175   9.173  12.514   6.520 -1.3706  0.0780 -1.1365
30855SOL    HW210176   9.155  12.419   6.403 -1.1953  1.1985 -2.0950
30856SOL     OW10177   7.270   0.266   2.406  0.1116  0.4425 -0.3093
30856SOL    HW110178   7.219   0.337   2.366 -0.4374  1.0881  1.4310
30856SOL    HW210179   7.211   0.228   2.471  1.1915 -0.1137  0.3657
30857SOL     OW10180   2.656   8.539   1.850  0.5477  0.4245 -0.0351
30857SOL    HW110181   2.589   8.582   1.902  1.9815  1.6821  0.8701
30857SOL    HW210182   2.619   8.453   1.828 -2.4504  2.0393 -1.9420
30858SOL     OW10183   2.750  13.041   8.285  0.1306  0.7065 -0.3262
30858SOL    HW110184   2.770  13.129   8.315 -0.7395  0.2988  1.6116
30858SOL    HW210185   2.732  12.992   8.365  0.2637 -1.1539 -1.3760
30859SOL     OW10186   9.313   2.479   9.358  0.0172  0.1609 -0.3256
30859SOL    HW110187   9.354   2.417   9.297 -1.0907  0.0693 -1.0063
30859SOL    HW210188   9.272   2.424   9.424  0.3165  0.2320 -0.0747
30860SOL     OW10189   1.861   5.865   6.176 -0.1224  0.2028  0.2479
30860SOL    HW110190   1.793   5.799   6.160  0.6257 -1.0215  1.8698
30860SOL    HW210191   1.902   5.838   6.258  1.1455  1.9314  0.2360
30861SOL     OW10192   1.560  13.977   6.402 -0.1812 -0.5255 -0.5308
30861SOL    HW110193   1.550  13.883   6.393  0.3824 -0.5831 -0.6241
30861SOL    HW210194   1.655  13.990   6.412 -0.3397 -0.0585  0.4934
30862SOL     OW10195   8.857  13.733   5.089 -0.4159  0.0878  0.1271
30862SOL    HW110196   8.798  13.752   5.016 -0.7836 -0.7570  0.1874
30862SOL    HW210197   8.835  13.643   5.115  0.0413  0.2028  0.9637
30863SOL     OW10198  11.051   9.261   5.085  0.2084 -0.0178 -0.1144
30863SOL    HW110199  11.005   9.224   5.009  1.2963  0.6874 -1.1550
30863SOL    HW210200  11.106   9.190   5.117  0.4067 -0.0572 -0.5357
30864SOL     OW10201   2.607   7.445   5.465  0.7318 -0.1493  0.8525
30864SOL    HW110202   2.655   7.367   5.437  2.2321  0.6514  1.0836
30864SOL    HW210203   2.668   7.517   5.452 -0.9644  1.1659 -0.3369
30865SOL     OW10204   6.247   2.200   4.147 -0.1106  0.7737  0.4740
30865SOL    HW110205   6.341   2.200   4.164 -0.0755  1.8867  0.3764
30865SOL    HW210206   6.218   2.112   4.172  0.8449  0.6205  1.1075
30866SOL     OW10207  13.442  10.712   0.444  0.0052 -0.4090 -0.2725
30866SOL    HW110208  13.356  10.719   0.402 -1.3150  0.4778  2.3863
30866SOL    HW210209  13.484  10.797   0.429 -1.0747  0.4542  1.3401
30867SOL     OW10210   1.952  12.940   7.657  0.5496  0.0588  0.2659
30867SOL    HW110211   1.893  13.006   7.695  0.7302  0.3523  0.0335
30867SOL    HW210212   1.946  12.866   7.717  0.7587  0.4865  0.8216
30868SOL     OW10213  13.167  11.258   3.853  0.1820 -0.6557  0.1001
30868SOL    HW110214  13.105  11.207   3.800 -0.4153 -0.7359  0.8651
30868SOL    HW210215  13.211  11.315   3.790 -0.9582 -0.3020 -0.4112
30869SOL     OW10216  10.575   5.876   6.941  0.5036  0.1610 -0.4252
30869SOL    HW110217  10.495   5.929   6.928 -0.3023 -1.1509 -1.0025
30869SOL    HW210218  10.628   5.895   6.863 -0.0169 -0.2533 -0.8928
30870SOL     OW10219   0.154   4.349   1.835  0.1066  0.1379  0.8086
30870SOL    HW110220   0.203   4.430   1.828 -0.6602  0.4599 -1.4406
30870SOL    HW210221   0.124   4.330   1.746 -2.2943 -1.0091  1.7652
30871SOL     OW10222  10.344  12.284   0.225 -0.0505  0.5172  0.2129
30871SOL    HW110223  10.422  12.303   0.279  0.8236  1.3593 -1.2837
30871SOL    HW210224  10.348  12.190   0.211  0.6364  0.5315  0.2565
30872SOL     OW10225   1.880   4.773   1.015 -0.3310 -0.0309  0.4591
30872SOL    HW110226   1.916   4.730   1.093 -0.6593  1.4249  1.4643
30872SOL    HW210227   1.839   4.703   0.965 -1.0438 -0.8748  2.1427
30873SOL     OW10228   1.712   3.165   3.583 -0.1577 -0.5367 -0.3157
30873SOL    HW110229   1.733   3.187   3.492 -2.2884 -0.5540 -0.8835
30873SOL    HW210230   1.773   3.216   3.635  0.4273  0.2952 -1.7481
30874SOL     OW10231   1.808   9.117   3.014  0.3457 -0.6505  0.2946
30874SOL    HW110232   1.858   9.196   3.034  2.5996 -2.2490  1.4426
30874SOL    HW210233   1.852   9.081   2.937 -0.4685 -0.9634 -0.0319
30875SOL     OW10234  11.420  10.642   3.069 -0.4981 -0.7759 -0.1976
30875SOL    HW110235  11.504  10.611   3.103 -0.3085 -0.6469 -0.5489
30875SOL    HW210236  11.442  10.711   3.006 -0.9504  0.6837  1.1849
30876SOL     OW10237   7.052   4.599  11.573 -0.6950  0.2571 -0.1787
30876SOL    HW110238   7.022   4.508  11.565 -0.2411  0.0324  0.6173
30876SOL    HW210239   7.063   4.612  11.667  0.3400  0.7777 -0.3690
30877SOL     OW10240   2.905  12.134   1.575  0.9282 -0.4395  0.0029
30877SOL    HW110241   2.935  12.225   1.582  2.7175 -0.9584 -0.3620
30877SOL    HW210242   2.881  12.124   1.482 -0.2221 -0.0837  0.2499
30878SOL     OW10243   8.134   7.189   0.811 -0.1316 -0.4456  0.2138
30878SOL    HW110244   8.210   7.239   0.783 -0.9675  1.2718  0.9028
30878SOL    HW210245   8.168   7.129   0.877  0.8210 -0.5696 -0.3650
30879SOL     OW10246   1.157  13.172  12.082 -0.4492  0.3365  0.1878
30879SOL    HW110247   1.151  13.090  12.033  0.0484  0.3833  0.0523
30879SOL    HW210248   1.109  13.154  12.163 -0.2724 -0.1141  0.1958
30880SOL     OW10249   6.759   2.545   3.750 -0.4698  0.3211  0.1132
30880SOL    HW110250   6.855   2.546   3.741 -0.5607  0.8647 -0.9734
30880SOL    HW210251   6.744   2.522   3.842  0.6538 -2.0892 -0.2183
30881SOL     OW10252   0.019  10.097   9.946  1.0759  0.3215  0.1771
30881SOL    HW110253  -0.046  10.166   9.937 -0.3043 -0.6825  1.8138
30881SOL    HW210254  -0.029  10.016   9.927  2.3608 -0.3097 -0.5430
30882SOL     OW10255  11.688   8.479   9.134 -0.7131  0.2828 -0.3031
30882SOL    HW110256  11.698   8.571   9.160 -3.9765  0.9365 -0.9382
30882SOL    HW210257  11.639   8.482   9.052  0.6429 -2.0420 -1.3060
30883SOL     OW10258   5.478   4.114   7.415  0.2511 -0.6637  0.0524
30883SOL    HW110259   5.544   4.045   7.410  0.7399 -0.1365 -1.3301
30883SOL    HW210260   5.400   4.075   7.377  1.0538  0.0451 -2.6168
30884SOL     OW10261  13.253   0.184   9.721 -0.5417  0.2183 -0.2925
30884SOL    HW110262  13.202   0.157   9.798  0.7517  1.8964  1.2452
30884SOL    HW210263  13.229   0.276   9.708  1.8804  1.0051  0.3707
30885SOL     OW10264   3.849   7.321   0.144 -0.1760  0.1426 -0.2292
30885SOL    HW110265   3.908   7.384   0.186  1.6513 -2.7448  1.9233
30885SOL    HW210266   3.766   7.331   0.191  1.1593 -1.3991  2.7106
30886SOL     OW10267   0.561   4.843   2.076 -0.5462  0.0994  0.4632
30886SOL    HW110268   0.625   4.779   2.109 -1.3460 -0.8985  0.1240
30886SOL    HW210269   0.554   4.907   2.146 -1.1305 -1.2035  1.6470
30887SOL     OW10270   5.276   4.241   4.259  0.8987 -0.0240 -0.0770
30887SOL    HW110271   5.264   4.159   4.308  0.1677 -0.4818 -0.9868
30887SOL    HW210272   5.353   4.225   4.205  0.9590  0.0106 -0.0000
30888SOL     OW10273  12.894   5.761  13.810 -0.2905  0.4635 -0.1937
30888SOL    HW110274  12.959   5.767  13.739  1.1424  0.0717  1.0303
30888SOL    HW210275  12.878   5.852  13.834  0.1520  0.5511 -0.2100
30889SOL     OW10276   3.174   6.060  11.986  0.6132 -0.0488 -0.1992
30889SOL    HW110277   3.229   6.064  12.064 -1.2519  0.4709  1.1367
30889SOL    HW210278   3.134   5.973  11.989 -0.0149  0.2381 -0.1880
30890SOL     OW10279   0.966   3.099   3.370  0.0603 -0.4171 -0.0774
30890SOL    HW110280   1.061   3.097   3.361  0.0352 -2.5299 -0.4403
30890SOL    HW210281   0.950   3.108   3.464  0.6072  0.1371 -0.0347
30891SOL     OW10282   4.736   7.835   4.952 -0.2525  0.2104 -0.4148
30891SOL    HW110283   4.719   7.924   4.981  1.0636 -0.1780  1.7161
30891SOL    HW210284   4.831   7.831   4.942 -0.1613 -1.2977  0.7940
30892SOL     OW10285   0.758   2.561   5.677 -0.0842 -0.4824 -1.2690
30892SOL    HW110286   0.723   2.602   5.757  1.6289  2.0235 -1.6867
30892SOL    HW210287   0.707   2.481   5.668 -2.1203  0.4131  0.9147
30893SOL     OW10288   9.761   3.073   3.978 -0.5824 -0.5265 -0.6884
30893SOL    HW110289   9.847   3.060   4.017 -0.7607 -0.2438 -0.1849
30893SOL    HW210290   9.778   3.125   3.899 -0.4649  1.2155  0.4309
30894SOL     OW10291  10.101   0.197   6.309 -0.1900 -0.4473  0.4979
30894SOL    HW110292  10.065   0.258   6.373 -0.3682  0.1298 -0.1410
30894SOL    HW210293  10.036   0.127   6.304 -0.5897 -0.0632  0.3103
30895SOL     OW10294   8.226   2.137  11.068 -0.2872 -0.1815  0.5480
30895SOL    HW110295   8.228   2.200  11.139 -2.4709  0.1003  0.4271
30895SOL    HW210296   8.230   2.051  11.111 -0.3435 -0.0037  0.9074
30896SOL     OW10297  12.448   0.395  13.282 -0.0852 -0.0294  0.0549
30896SOL    HW110298  12.473   0.334  13.212 -0.4729 -2.2736  1.7618
30896SOL    HW210299  12.488   0.478  13.256  1.4956 -1.2622 -1.8012
30897SOL     OW10300   1.922   4.675  12.680 -0.1741  0.3864 -0.3757
30897SOL    HW110301   1.923   4.599  12.622  0.7273 -0.1633  0.3332
30897SOL    HW210302   1.845   4.725  12.653  0.8636  0.7890 -2.8520
30898SOL     OW10303  13.999  10.766  11.711  0.3581 -0.4394 -0.3257
30898SOL    HW110304  14.051  10.697  11.671  1.3034 -0.4751  0.8851
30898SOL    HW210305  14.064  10.824  11.751 -0.5188 -0.2656  0.8919
30899SOL     OW10306  13.429  13.842   2.741  0.0294 -0.7668  0.0296
30899SOL    HW110307  13.428  13.906   2.813  1.9496 -0.2483 -0.3439
30899SOL    HW210308  13.363  13.873   2.680 -0.2442 -0.0895  0.6622
30900SOL     OW10309   2.678  10.003  11.115 -0.0095 -0.0492  0.3221
30900SOL    HW110310   2.663   9.931  11.054 -0.8598 -0.4067  0.9327
30900SOL    HW210311   2.747   9.972  11.172 -1.7933 -1.2849  1.9174
30901SOL     OW10312   4.499   3.092   8.649 -0.0137  0.1481 -0.6918
30901SOL    HW110313   4.490   3.086   8.744 -0.5241 -1.0775 -0.8002
30901SOL    HW210314   4.588   3.060   8.631 -0.1739 -0.3176 -0.6749
30902SOL     OW10315  11.943   2.585   2.111  0.1012  0.1459 -0.0711
30902SOL    HW110316  11.897   2.625   2.184  1.1447 -0.7267  1.1099
30902SOL    HW210317  11.993   2.656   2.071 -1.5686  0.9363 -0.8836
30903SOL     OW10318  12.961   8.274   2.489 -0.2552 -0.0461 -0.1071
30903SOL    HW110319  12.904   8.338   2.532  0.1762 -1.0124  2.0217
30903SOL    HW210320  13.027   8.327   2.444  0.8252  1.1022  2.5908
30904SOL     OW10321   8.565   7.700   0.763  0.1644 -0.4563  0.9403
30904SOL    HW110322   8.538   7.660   0.680 -0.9874  1.1115  0.4929
30904SOL    HW210323   8.612   7.780   0.736  1.8068 -1.0919  1.7969
30905SOL     OW10324   8.129  13.873   7.646  0.0431 -0.2797  0.3807
30905SOL    HW110325   8.210  13.829   7.671  0.2190 -0.9705 -1.2966
30905SOL    HW210326   8.100  13.827   7.568 -1.3157  0.7641  0.2402
30906SOL     OW10327   0.773  10.311   8.122 -0.0880 -0.4168 -0.6565
30906SOL    HW110328   0.721  10.299   8.202 -1.6234  1.1362 -1.3652
30906SOL    HW210329   0.750  10.235   8.067  0.9068 -1.4438  0.2891
30907SOL     OW10330   8.078   9.714   1.448 -0.0380 -0.1383  0.5024
30907SOL    HW110331   8.095   9.620   1.452 -2.5472 -0.8943 -2.6771
30907SOL    HW210332   8.130   9.744   1.374  0.1291  0.8887  1.0153
30908SOL     OW10333   5.840   6.110   6.066 -0.2466  0.3589 -0.0820
30908SOL    HW110334   5.888   6.048   6.121  1.1450  0.5392 -1.0454
30908SOL    HW210335   5.851   6.076   5.977 -1.5453  0.6624 -0.3779
30909SOL     OW10336   6.147  13.072  13.407 -0.5625  0.3449  0.1754
30909SOL    HW110337   6.210  13.014  13.449 -1.3151  0.4016  1.4423
30909SOL    HW210338   6.062  13.029  13.418 -0.5897 -0.7826 -3.3718
30910SOL     OW10339   8.408   2.127  13.844 -0.3103  0.6164 -0.4850
30910SOL    HW110340   8.407   2.136  13.939 -0.1369  2.6348 -0.6381
30910SOL    HW210341   8.338   2.064  13.825  1.3002 -1.8728  1.1033
30911SOL     OW10342   7.254   9.838   1.769 -0.1170  0.5116  0.1068
30911SOL    HW110343   7.340   9.854   1.731  0.6887 -0.2244  1.5277
30911SOL    HW210344   7.244   9.907   1.835 -0.3537  0.2427  0.3559
30912SOL     OW10345   2.454  11.389   0.163  0.6422 -0.2589 -0.3027
30912SOL    HW110346   2.537  11.432   0.144  1.4898 -1.7785 -0.2244
30912SOL    HW210347   2.470  11.342   0.245 -0.5181 -0.0107  0.0760
30913SOL     OW10348   9.031   1.805  12.898 -0.0300  0.3665  0.2220
30913SOL    HW110349   9.076   1.737  12.948 -1.1122  0.3811  1.2653
30913SOL    HW210350   8.951   1.763  12.866 -0.4605  0.9909  0.4490
30914SOL     OW10351   2.217   4.333   1.487 -0.1826 -0.0727 -0.6351
30914SOL    HW110352   2.140   4.283   1.513  0.3298 -0.1094  0.8793
30914SOL    HW210353   2.272   4.270   1.440 -0.5251 -0.3487 -0.6712
30915SOL     OW10354   3.792   1.811   7.465 -0.0110  0.4493  0.7041
30915SOL    HW110355   3.881   1.839   7.444  0.9701 -1.7852  1.5941
30915SOL    HW210356   3.798   1.776   7.554 -1.5255 -0.7749  0.3725
30916SOL     OW10357   0.726  11.415   8.960  0.3087 -0.2520 -0.2675
30916SOL    HW110358   0.735  11.412   8.865  0.0795  1.6429 -0.4010
30916SOL    HW210359   0.709  11.508   8.979 -2.1161 -0.9436  1.4099
30917SOL     OW10360   7.129   2.355  10.684 -0.1066  0.9809  0.1968
30917SOL    HW110361   7.060   2.310  10.732 -0.6737  1.2550 -0.3413
30917SOL    HW210362   7.166   2.417  10.747  0.3278  0.1486  0.7793
30918SOL     OW10363   8.154   1.026  11.406  0.3194  0.1180 -0.3814
30918SOL    HW110364   8.136   1.117  11.386  1.0763 -0.4368 -4.2057
30918SOL    HW210365   8.068   0.984  11.412  0.0154  0.4796 -2.0342
30919SOL     OW10366   3.105  12.679  10.412 -0.8403 -0.1279  0.1169
30919SOL    HW110367   3.072  12.589  10.420 -0.5832 -0.1489  0.9855
30919SOL    HW210368   3.110  12.711  10.502 -1.3014  0.9009 -0.2149
30920SOL     OW10369   3.990   1.834   6.405  0.0419  0.3391  0.4334
30920SOL    HW110370   3.907   1.875   6.427 -0.2442 -0.6375  1.2392
30920SOL    HW210371   3.984   1.746   6.442  0.6244 -0.4590 -1.2760
30921SOL     OW10372  12.602   8.726   1.890  0.2164  0.2110 -0.1092
30921SOL    HW110373  12.599   8.672   1.969  0.7886 -1.3468 -1.0933
30921SOL    HW210374  12.521   8.778   1.893  0.7413  0.9957  1.9987
30922SOL     OW10375  12.876  12.358   6.508 -0.6015  0.3019  0.4894
30922SOL    HW110376  12.932  12.430   6.535 -1.8077  0.6472  2.2769
30922SOL    HW210377  12.804  12.399   6.460 -0.9959  0.2320  1.0155
30923SOL     OW10378   3.539   4.241  11.850  0.0883 -0.1082 -0.2009
30923SOL    HW110379   3.634   4.237  11.841 -0.0854 -0.2531 -2.3287
30923SOL    HW210380   3.519   4.184  11.924  1.7350  0.9157  1.0935
30924SOL     OW10381   3.687  10.040  12.127 -0.0807 -0.0502  0.3013
30924SOL    HW110382   3.605  10.040  12.176 -0.6471  0.6202 -0.6136
30924SOL    HW210383   3.754  10.063  12.191 -0.6874 -0.0321  0.9323
30925SOL     OW10384  11.613   7.410  12.782  0.3718  0.0322 -0.1844
30925SOL    HW110385  11.624   7.505  12.787  0.0555 -0.0019  2.3733
30925SOL    HW210386  11.703   7.377  12.772  0.7874  0.5439  1.4702
30926SOL     OW10387  11.487  12.869  11.137 -0.0119  0.0795  0.3681
30926SOL    HW110388  11.544  12.855  11.061  0.4661  2.4364  0.2216
30926SOL    HW210389  11.548  12.878  11.211 -0.3105  0.4102  0.5765
30927SOL     OW10390  11.225   2.531   4.814 -0.9397 -0.2265 -0.0622
30927SOL    HW110391  11.152   2.518   4.875 -0.7973  0.3306  0.2369
30927SOL    HW210392  11.264   2.614   4.841 -1.1863  0.2953 -1.2406
30928SOL     OW10393   0.334   7.411   1.086 -0.3551 -0.0231 -0.2070
30928SOL    HW110394   0.259   7.363   1.050  1.1880 -2.4843 -0.3956
30928SOL    HW210395   0.394   7.421   1.012  0.8649 -1.0366  0.5953
30929SOL     OW10396  12.093   4.780   4.632  0.2859 -0.1824  0.1573
30929SOL    HW110397  12.001   4.806   4.630  0.5305  0.7001  0.0037
30929SOL    HW210398  12.093   4.697   4.679 -0.4616  0.3424  1.1227
30930SOL     OW10399   1.078  12.686  12.152 -0.2509 -0.2584  0.0427
30930SOL    HW110400   1.047  12.708  12.240 -2.1171 -3.9364  0.5018
30930SOL    HW210401   1.000  12.657  12.105  1.1773 -1.4514 -1.7349
30931SOL     OW10402   1.440   0.291   1.831 -0.2677 -0.0084  0.3530
30931SOL    HW110403   1.435   0.356   1.761 -1.2782 -0.8378 -0.3701
30931SOL    HW210404   1.507   0.229   1.802 -0.0159  0.1489  0.5813
30932SOL     OW10405   2.957   0.932   1.193 -0.4193  0.4195  0.2816
30932SOL    HW110406   2.962   0.964   1.283 -1.7215  1.1395  0.1274
30932SOL    HW210407   3.047   0.936   1.161  0.0112  0.4455  1.4559
30933SOL     OW10408   0.266  11.130   8.833 -0.3722  0.1115 -0.4975
30933SOL    HW110409   0.218  11.121   8.915 -2.9012 -1.8717 -2.0320
30933SOL    HW210410   0.352  11.163   8.859 -1.2272  0.0963  2.8446
30934SOL     OW10411   6.071  12.036   5.170 -0.3078 -0.1117  0.2137
30934SOL    HW110412   6.012  12.029   5.246 -0.4614 -2.4068 -0.0533
30934SOL    HW210413   6.144  12.089   5.202 -1.5585  1.1647  1.1425
30935SOL     OW10414  13.692  10.757   4.923  0.5876 -0.1749 -0.3500
30935SOL    HW110415  13.694  10.710   5.007 -3.7428 -0.9247 -0.4387
30935SOL    HW210416  13.690  10.688   4.857  1.1098  0.3325 -0.8999
30936SOL     OW10417   0.069  10.815   2.848  0.4202 -0.0052 -1.0747
30936SOL    HW110418   0.001  10.788   2.787 -0.3675 -0.7695  0.1039
30936SOL    HW210419   0.147  10.767   2.819  0.0379 -0.4213 -1.4420
30937SOL     OW10420  11.605   9.265   4.738 -0.0152 -0.0691 -0.4534
30937SOL    HW110421  11.527   9.274   4.793  0.6889 -0.7410  0.6788
30937SOL    HW210422  11.666   9.213   4.790 -1.0270 -5.1796 -3.5890
30938SOL     OW10423   8.378   2.389   4.576 -0.7088  0.0433  0.0091
30938SOL    HW110424   8.375   2.429   4.663 -3.1622 -0.3770  0.1997
30938SOL    HW210425   8.397   2.461   4.516 -5.6537  1.9174  0.2626
30939SOL     OW10426  13.732   6.268   6.834 -0.7844  0.4131  0.9489
30939SOL    HW110427  13.708   6.179   6.809  0.9382  0.8480 -3.0210
30939SOL    HW210428  13.658   6.322   6.808 -0.2184  0.5212 -0.5162
30940SOL     OW10429   6.337   7.198   2.705 -0.0514  0.6405 -0.2783
30940SOL    HW110430   6.324   7.242   2.621  2.0920 -0.5088 -1.3099
30940SOL    HW210431   6.426   7.224   2.732  0.0997 -0.6602  0.5725
30941SOL     OW10432  11.181   5.100  10.203 -0.5372  0.0850  0.3584
30941SOL    HW110433  11.122   5.144  10.265 -2.6830 -1.3700 -0.5340
30941SOL    HW210434  11.191   5.012  10.238  1.1455  0.2773  0.4523
30942SOL     OW10435   1.570   8.542   3.212 -0.3451  0.2112  0.2997
30942SOL    HW110436   1.626   8.605   3.257  0.6821 -1.3004  1.2165
30942SOL    HW210437   1.508   8.513   3.278 -1.2255  0.7073 -0.2895
30943SOL     OW10438   0.081  11.081  12.221  0.0767 -0.2214 -0.1663
30943SOL    HW110439   0.157  11.045  12.176  0.3357  0.1782 -0.0593
30943SOL    HW210440   0.089  11.176  12.209  0.0210 -0.1252  0.5173
30944SOL     OW10441  11.230   7.902   2.538  0.1738  0.5852 -0.1284
30944SOL    HW110442  11.291   7.967   2.571  0.6127 -0.0813  0.3928
30944SOL    HW210443  11.239   7.906   2.443  0.8877  0.6259 -0.0631
30945SOL     OW10444   3.775  11.031  12.162  0.4361 -0.2809  0.0033
30945SOL    HW110445   3.743  11.045  12.251 -1.8825 -0.9145 -0.6738
30945SOL    HW210446   3.755  10.940  12.142  2.0790 -0.5211 -0.7582
30946SOL     OW10447   9.502   3.929   1.693  0.0430 -0.3676 -0.2985
30946SOL    HW110448   9.551   3.853   1.724  1.9564  0.6558 -0.6658
30946SOL    HW210449   9.454   3.960   1.769  0.2947 -1.1461  0.1882
30947SOL     OW10450   3.605   4.770  11.148 -0.0891 -0.2022  0.0963
30947SOL    HW110451   3.629   4.863  11.153 -1.1277  0.2809 -2.3719
30947SOL    HW210452   3.687   4.725  11.132  0.4473  0.2472  1.4291
30948SOL     OW10453  10.348   7.787  11.450 -0.2508  0.0346  0.0063
30948SOL    HW110454  10.289   7.862  11.443 -0.0568  0.2265  0.3949
30948SOL    HW210455  10.300   7.715  11.408 -1.6068 -0.3160  2.0130
30949SOL     OW10456   2.898   6.366   1.513 -0.3282 -0.3136  0.4901
30949SOL    HW110457   2.847   6.292   1.547  0.2548 -0.7599  0.4184
30949SOL    HW210458   2.965   6.325   1.459 -0.3642  0.3110 -0.0363
30950SOL     OW10459   4.062  12.572   5.594 -0.5880  0.0429 -0.3292
30950SOL    HW110460   4.014  12.632   5.537  0.9839  0.3133 -1.4543
30950SOL    HW210461   4.152  12.606   5.594 -0.2657 -0.7222  1.2796
30951SOL     OW10462   7.780  13.380   3.911  0.3520 -0.3036  0.1303
30951SOL    HW110463   7.798  13.383   4.005  1.1038 -1.5079  0.0456
30951SOL    HW210464   7.812  13.294   3.883  0.7203  0.2864 -1.3457
30952SOL     OW10465   9.025   4.392   6.462 -1.1014 -0.2097 -0.6190
30952SOL    HW110466   8.994   4.401   6.372 -0.2572  0.4511 -0.8573
30952SOL    HW210467   9.096   4.455   6.470 -0.4665 -0.9977  0.2010
30953SOL     OW10468   3.778   5.582   5.081 -1.3186  0.4108 -0.7285
30953SOL    HW110469   3.775   5.666   5.127  3.1434 -0.3252  1.3801
30953SOL    HW210470   3.745   5.518   5.145 -1.9640  0.1776 -1.2795
30954SOL     OW10471   5.675  13.437  10.378 -0.2234 -0.0531  0.2900
30954SOL    HW110472   5.710  13.375  10.442  0.8042 -0.7435 -0.8832
30954SOL    HW210473   5.588  13.403  10.357  0.6424 -1.6754 -0.9754
30955SOL     OW10474   8.085   5.022  10.968  0.1053  0.4525  0.1574
30955SOL    HW110475   8.022   5.065  11.026 -0.3740 -0.4118  0.2938
30955SOL    HW210476   8.035   5.000  10.890  1.4948  4.7941 -2.2695
30956SOL     OW10477   5.656   6.092   1.399 -0.1614 -0.1730  0.2202
30956SOL    HW110478   5.739   6.125   1.365 -1.2947  1.9547 -0.6885
30956SOL    HW210479   5.637   6.146   1.475 -0.4522 -1.0510  0.7934
30957SOL     OW10480   4.820   3.692   4.530  0.0902  0.3078  0.3625
30957SOL    HW110481   4.863   3.681   4.446  0.0851  3.2677 -0.1461
30957SOL    HW210482   4.737   3.645   4.521 -0.5538  1.7255 -1.8642
30958SOL     OW10483   3.180  11.794   9.618  0.1269  0.6870  0.1126
30958SOL    HW110484   3.086  11.808   9.635 -0.1853  0.0171 -1.0044
30958SOL    HW210485   3.193  11.828   9.530  0.2878 -1.8780 -0.9324
30959SOL     OW10486   4.743   0.123  13.302 -0.1075  0.4881 -0.5301
30959SOL    HW110487   4.739   0.055  13.369 -1.9269  0.6460 -0.4208
30959SOL    HW210488   4.777   0.079  13.224  0.4716 -0.0912  0.0491
30960SOL     OW10489  13.114   6.044   9.830  0.6350  0.0006  0.1605
30960SOL    HW110490  13.087   6.068   9.741 -1.3088 -2.3773 -0.0129
30960SOL    HW210491  13.194   5.992   9.817 -1.0322 -2.5733 -0.5975
30961SOL     OW10492  10.959   5.752   8.051  0.3039  0.4790  0.2944
30961SOL    HW110493  11.050   5.758   8.081  0.0574  2.6398  0.7409
30961SOL    HW210494  10.908   5.758   8.132 -0.2657 -0.4363  0.0149
30962SOL     OW10495  12.413  13.786   6.715  0.3839 -0.8138  0.1216
30962SOL    HW110496  12.394  13.694   6.701  0.1804 -0.7418 -0.0888
30962SOL    HW210497  12.392  13.828   6.631  0.8738 -0.6392  0.0832
30963SOL     OW10498  10.220  10.655   8.634 -0.3504 -0.6971  0.3805
30963SOL    HW110499  10.280  10.682   8.704  0.8703  0.4652 -1.0631
30963SOL    HW210500  10.138  10.700   8.654  0.3931  0.7119  0.3377
30964SOL     OW10501  13.694   8.690  13.833  0.6008 -0.2485 -0.2248
30964SOL    HW110502  13.637   8.647  13.770 -0.0336  1.2887 -0.7296
30964SOL    HW210503  13.644   8.765  13.864  0.9566 -0.8505  2.0019
30965SOL     OW10504   1.280   4.580   7.814  0.1907  0.3312 -0.0998
30965SOL    HW110505   1.305   4.645   7.879  0.3900  1.3559 -1.1665
30965SOL    HW210506   1.196   4.611   7.780  0.1172 -0.1580 -0.3777
30966SOL     OW10507  11.080   3.402   8.194 -0.6280 -0.6797  0.1873
30966SOL    HW110508  11.054   3.465   8.127  0.4846 -0.5861 -0.1672
30966SOL    HW210509  11.007   3.340   8.198 -0.8097 -0.5596 -0.9479
30967SOL     OW10510   8.438   6.332   1.459 -0.8717  0.0325 -0.2493
30967SOL    HW110511   8.494   6.261   1.489  0.1326  0.2250 -1.6000
30967SOL    HW210512   8.349   6.300   1.472 -0.5581  0.1741  3.0615
30968SOL     OW10513  11.961   1.448  11.110  0.2289  1.0422  0.1677
30968SOL    HW110514  11.964   1.544  11.102  1.1555  0.9463 -0.7285
30968SOL    HW210515  11.977   1.416  11.022  0.1199  0.0459  0.5022
30969SOL     OW10516   0.585   9.383   6.776  0.0819  0.2978 -0.1898
30969SOL    HW110517   0.574   9.292   6.805  1.5800  0.2211  0.2591
30969SOL    HW210518   0.677   9.402   6.795 -0.1642  1.8514 -0.4684
30970SOL     OW10519   7.666   3.583   5.684  0.4765  0.0974  0.0953
30970SOL    HW110520   7.665   3.488   5.679  2.0999  0.0430  0.4157
30970SOL    HW210521   7.574   3.607   5.698  0.3156 -1.5764  2.7113
30971SOL     OW10522   2.915   6.273   0.255 -0.0165  0.0760  0.4363
30971SOL    HW110523   2.991   6.231   0.294 -0.4317 -0.4042  0.7363
30971SOL    HW210524   2.893   6.344   0.315  1.3957  1.5343 -0.6499
30972SOL     OW10525   9.472   9.424   6.318 -0.5032  0.4846  0.6187
30972SOL    HW110526   9.460   9.494   6.382  1.1374  0.6221  0.8389
30972SOL    HW210527   9.454   9.466   6.234  0.2418  1.1340  0.7656
30973SOL     OW10528   9.318   3.031   9.433  0.0850  0.2310  0.4956
30973SOL    HW110529   9.251   2.972   9.468  2.8977 -2.7148  1.3765
30973SOL    HW210530   9.320   3.104   9.494 -0.9123 -0.6324  1.6058
30974SOL     OW10531   0.333   6.664   2.600 -0.0924  0.2332  0.5371
30974SOL    HW110532   0.420   6.645   2.634  0.6486  1.0586 -0.7774
30974SOL    HW210533   0.308   6.585   2.551 -0.1468 -0.0539  1.0253
30975SOL     OW10534  12.228   5.714   4.566  0.3776 -0.3892 -0.2287
30975SOL    HW110535  12.284   5.676   4.633 -0.5087 -1.7994 -0.2538
30975SOL    HW210536  12.288   5.742   4.497  1.1860 -0.1013  0.5714
30976SOL     OW10537   1.441   7.121  11.219  0.1002 -0.1502 -0.0883
30976SOL    HW110538   1.423   7.190  11.156  1.5529 -0.0553 -0.4418
30976SOL    HW210539   1.392   7.046  11.188 -0.4152  0.3391 -0.4657
30977SOL     OW10540   0.645  10.158   2.101 -0.1839 -0.5990  0.0011
30977SOL    HW110541   0.607  10.205   2.175  1.5218 -2.0498  1.9079
30977SOL    HW210542   0.570  10.126   2.052 -1.3716 -0.0100  1.3586
30978SOL     OW10543  11.368  10.930   2.613  0.6649  0.1732 -0.1889
30978SOL    HW110544  11.405  11.015   2.634 -0.1940  0.6270 -0.4560
30978SOL    HW210545  11.438  10.868   2.631  1.7687  1.0560 -1.2855
30979SOL     OW10546   0.244   0.456   0.852  0.1360 -0.3835 -0.1033
30979SOL    HW110547   0.238   0.470   0.758 -1.3245 -3.4307 -0.5930
30979SOL    HW210548   0.165   0.496   0.888  0.4076  0.2766 -0.2301
30980SOL     OW10549   8.126   2.649   3.415 -0.4407  0.2539 -0.0928
30980SOL    HW110550   8.043   2.631   3.370  0.0933 -0.9140 -0.6717
30980SOL    HW210551   8.190   2.594   3.369  0.4153  0.1984  1.1284
30981SOL     OW10552   2.562   1.754   4.083 -0.2271 -0.2080  0.3046
30981SOL    HW110553   2.514   1.681   4.122  2.0833 -1.8654  0.2728
30981SOL    HW210554   2.576   1.729   3.992  1.3101 -0.1660  0.4952
30982SOL     OW10555  13.392   3.550   4.935  0.2441 -0.3616  0.1238
30982SOL    HW110556  13.312   3.513   4.899  0.4466 -0.9999  0.3101
30982SOL    HW210557  13.422   3.485   4.999  1.4110 -0.5790 -0.6115
30983SOL     OW10558   6.616  10.068   3.649 -0.2276  0.1915  0.1462
30983SOL    HW110559   6.612   9.974   3.665 -0.4858  0.2007  0.1433
30983SOL    HW210560   6.695  10.080   3.596 -0.0079  0.0193  0.4338
30984SOL     OW10561  13.840  11.963   0.418  0.0952 -0.7753 -0.2763
30984SOL    HW110562  13.785  11.932   0.491 -0.7624  0.2898 -0.4313
30984SOL    HW210563  13.784  11.954   0.341  0.1517  0.2451 -0.4517
30985SOL     OW10564   3.198   0.242   4.550  0.2094  0.2600  0.8011
30985SOL    HW110565   3.230   0.286   4.471 -0.6335 -0.5773 -0.0369
30985SOL    HW210566   3.221   0.301   4.621  2.4566  0.2717  0.1308
30986SOL     OW10567   8.613   6.997  10.366  0.2722 -0.2759 -0.1861
30986SOL    HW110568   8.553   6.985  10.440  0.8865  2.2676  0.8144
30986SOL    HW210569   8.680   6.929  10.378 -0.7703 -1.2486  0.3433
30987SOL     OW10570   9.895  10.684   6.321  0.1674 -0.1751  0.2008
30987SOL    HW110571   9.909  10.593   6.294 -2.1504 -0.3729 -0.4991
30987SOL    HW210572   9.974  10.705   6.371  0.0607 -3.1110  1.8542
30988SOL     OW10573   6.136   0.267   2.403  0.9427 -0.1646 -0.2358
30988SOL    HW110574   6.183   0.329   2.459  1.8418 -0.9145 -0.1358
30988SOL    HW210575   6.169   0.285   2.315  0.4667  0.1588 -0.3521
30989SOL     OW10576   2.255   8.916   1.283 -0.7452 -0.2475 -0.6069
30989SOL    HW110577   2.266   8.861   1.361 -0.1101 -0.9333 -1.1675
30989SOL    HW210578   2.259   9.005   1.316 -1.0800 -0.5355  0.2285
30990SOL     OW10579  14.008  13.798   9.375 -0.5510  0.3145  0.0202
30990SOL    HW110580  14.083  13.775   9.320 -1.8001  1.4107 -2.2669
30990SOL    HW210581  13.984  13.715   9.417  1.3189 -0.2611  0.0428
30991SOL     OW10582   0.975  13.502  13.365 -0.0194  0.4089  0.0658
30991SOL    HW110583   0.995  13.415  13.330  0.4608  0.3524  0.4671
30991SOL    HW210584   0.953  13.486  13.457 -0.2532  0.6787  0.0575
30992SOL     OW10585   0.399   2.882  14.042  0.4305 -0.1566  0.0260
30992SOL    HW110586   0.309   2.851  14.049 -0.7191  2.3182 -1.9408
30992SOL    HW210587   0.429   2.892  14.132 -1.0170 -1.6329  0.7017
30993SOL     OW10588   4.584  13.191   3.451 -0.1396  0.3468 -0.3875
30993SOL    HW110589   4.555  13.105   3.419 -1.3801 -0.0901  1.7174
30993SOL    HW210590   4.666  13.207   3.405 -0.1758 -1.6974 -1.2890
30994SOL     OW10591   5.498   2.009  14.053 -0.0183 -0.9386 -0.7276
30994SOL    HW110592   5.425   1.964  14.011 -0.5768  0.0934 -0.8906
30994SOL    HW210593   5.468   2.098  14.065  1.1310 -0.5511 -0.5720
30995SOL     OW10594   6.564   0.174   4.069 -0.6413  0.0531 -0.4971
30995SOL    HW110595   6.628   0.180   4.140 -2.0400  0.7288  0.7666
30995SOL    HW210596   6.577   0.087   4.033  1.7474  0.5537 -1.0828
30996SOL     OW10597  10.022  13.175   5.773  0.0237  0.6131 -0.5396
30996SOL    HW110598  10.025  13.117   5.697 -2.8319 -1.2019  0.5634
30996SOL    HW210599  10.078  13.132   5.838  0.1318  0.5946 -0.6441
30997SOL     OW10600   2.302  11.523   9.852  0.1277  0.2054  0.5008
30997SOL    HW110601   2.339  11.545   9.937  2.9281 -1.1687 -0.2487
30997SOL    HW210602   2.244  11.449   9.869  0.3554  0.2041  1.2816
30998SOL     OW10603  10.817   1.846   2.187  0.3338 -0.1210 -0.1818
30998SOL    HW110604  10.891   1.905   2.200  0.3991 -0.0126 -1.0125
30998SOL    HW210605  10.858   1.760   2.175  0.2960 -0.1347 -0.2091
30999SOL     OW10606   1.660   1.033  11.254 -0.4737 -0.2471 -0.2684
30999SOL    HW110607   1.691   0.943  11.264 -1.8991 -0.5306  2.7396
30999SOL    HW210608   1.565   1.025  11.251 -0.6559  1.1668  0.8201
31000SOL     OW10609   9.254   4.475   4.707  0.4417 -0.0445  0.0493
31000SOL    HW110610   9.329   4.526   4.739 -0.4004  0.1951  1.7361
31000SOL    HW210611   9.238   4.509   4.619  0.2434  2.2882  0.9055
31001SOL     OW10612   2.282   4.237   0.345  0.4875 -0.7069  0.7133
31001SOL    HW110613   2.268   4.289   0.424  1.3424 -1.9869  1.7615
31001SOL    HW210614   2.373   4.256   0.321  0.2509 -0.3760  0.0642
31002SOL     OW10615   1.331   7.463   3.882  0.0314 -0.5439 -0.1653
31002SOL    HW110616   1.298   7.433   3.967  0.0334 -1.2355 -0.4053
31002SOL    HW210617   1.422   7.432   3.880 -0.3568 -1.6400 -0.9600
31003SOL     OW10618   9.562   1.314   8.649 -0.0978 -0.2515 -0.1641
31003SOL    HW110619   9.600   1.339   8.733  1.6631  1.0489 -1.2459
31003SOL    HW210620   9.525   1.228   8.663  0.3818 -0.1713  1.8716
31004SOL     OW10621  12.778   2.035   2.273  0.0146  0.2627 -0.2310
31004SOL    HW110622  12.730   2.075   2.201  0.9721  0.7226 -0.6205
31004SOL    HW210623  12.732   2.066   2.352 -0.2268  0.8288 -0.5870
31005SOL     OW10624   7.658   0.434   2.197 -0.4575 -0.0156  0.4477
31005SOL    HW110625   7.630   0.481   2.118 -0.0429  0.5449  0.6324
31005SOL    HW210626   7.643   0.496   2.268  3.3565  1.2567  0.3460
31006SOL     OW10627   3.400   7.590  12.280  0.5982 -0.1055 -0.0818
31006SOL    HW110628   3.402   7.683  12.303 -0.3543 -0.1643  0.2940
31006SOL    HW210629   3.451   7.585  12.199 -0.8038  1.0568 -1.0997
31007SOL     OW10630   8.796   6.091  11.791 -0.1238 -0.4524  0.8658
31007SOL    HW110631   8.733   6.040  11.841 -2.3670 -0.2117 -1.5371
31007SOL    HW210632   8.787   6.180  11.823 -2.2669 -0.1124 -0.5011
31008SOL     OW10633   5.524   7.403   5.172 -0.1591 -0.1540 -0.2992
31008SOL    HW110634   5.583   7.469   5.208  2.1272 -1.8910 -0.5973
31008SOL    HW210635   5.577   7.323   5.170 -2.5299 -1.8113 -0.7247
31009SOL     OW10636  12.597  11.477   7.936 -0.3437  0.3900  0.1728
31009SOL    HW110637  12.595  11.395   7.886  0.6896  0.3043  0.2375
31009SOL    HW210638  12.576  11.451   8.025 -2.1305  0.5323 -0.1689
31010SOL     OW10639   6.626   8.491   1.462 -0.4675 -0.1664 -0.2233
31010SOL    HW110640   6.693   8.514   1.397 -0.6803 -5.0927 -2.6394
31010SOL    HW210641   6.664   8.418   1.511 -2.6147 -0.4689  1.1126
31011SOL     OW10642  12.405  13.766   3.617  0.7215 -0.0689 -0.3047
31011SOL    HW110643  12.324  13.812   3.594  0.0260 -0.6509  0.9271
31011SOL    HW210644  12.473  13.812   3.567 -0.2092  1.1239 -0.5167
31012SOL     OW10645  10.768  14.084   2.422  0.0465 -0.4867 -0.3590
31012SOL    HW110646  10.828  14.138   2.370 -0.5868  0.4715 -0.1401
31012SOL    HW210647  10.796  13.994   2.407  0.6543 -0.1418 -1.3647
31013SOL     OW10648   9.753   7.646   2.153  0.1518 -0.2072 -0.1668
31013SOL    HW110649   9.689   7.667   2.221 -1.9129 -0.9331 -1.8044
31013SOL    HW210650   9.827   7.705   2.171 -0.8147  0.4591  1.9510
31014SOL     OW10651  13.199   4.663   9.761 -0.4561  0.1811 -0.0714
31014SOL    HW110652  13.185   4.579   9.804  2.7694 -0.9644 -0.9580
31014SOL    HW210653  13.139   4.662   9.686 -0.3570 -1.4359 -0.1608
31015SOL     OW10654   4.064   6.667   5.578 -0.0217 -0.5745  0.3652
31015SOL    HW110655   4.101   6.753   5.595 -0.4899 -0.4682  0.8453
31015SOL    HW210656   3.982   6.684   5.533  0.4370 -0.8097 -0.5942
31016SOL     OW10657   7.969   6.759  10.416 -0.1099  0.4322 -0.5054
31016SOL    HW110658   8.065   6.761  10.415 -0.0595 -1.0877 -1.3522
31016SOL    HW210659   7.945   6.744  10.325 -1.0581 -1.2276 -0.0279
31017SOL     OW10660   2.515   6.361  13.936 -0.1202 -0.1512  0.1796
31017SOL    HW110661   2.473   6.435  13.891  0.9715 -0.2405 -1.0547
31017SOL    HW210662   2.560   6.401  14.011 -1.1983  0.1313  0.6976
31018SOL     OW10663  12.015   4.790   2.551 -0.5478 -0.2848  0.0967
31018SOL    HW110664  12.085   4.725   2.561 -1.4602 -1.5174 -1.1120
31018SOL    HW210665  11.954   4.750   2.488 -1.3986  1.5401 -0.3033
31019SOL     OW10666   5.520   5.621   1.585  0.7055 -0.4707  0.5029
31019SOL    HW110667   5.471   5.675   1.646  0.8802 -2.0633  2.1513
31019SOL    HW210668   5.588   5.579   1.639  2.5138  0.0051 -1.2907
31020SOL     OW10669  11.502   7.027   2.379  0.3551  0.1314  0.3081
31020SOL    HW110670  11.514   7.050   2.471  1.4150 -1.8557  0.7252
31020SOL    HW210671  11.590   7.027   2.342 -0.0496  0.8017 -0.6849
31021SOL     OW10672   4.465  12.529   5.303  0.2613  0.7024  0.0219
31021SOL    HW110673   4.555  12.560   5.290  0.7068 -0.4032  0.3706
31021SOL    HW210674   4.413  12.609   5.310  0.9703  1.3773 -1.7243
31022SOL     OW10675   7.480  12.564  11.707  0.3359 -0.2187 -0.2216
31022SOL    HW110676   7.563  12.551  11.754  1.4612 -3.2115 -2.7010
31022SOL    HW210677   7.440  12.477  11.703 -1.2094  0.5061 -2.0699
31023SOL     OW10678   8.106  11.177   9.795 -0.1252 -0.2107 -0.5356
31023SOL    HW110679   8.035  11.233   9.764  1.7250  1.9480 -1.1293
31023SOL    HW210680   8.076  11.146   9.881 -1.2990  1.6153 -0.2284
31024SOL     OW10681   0.257   1.108  11.942 -0.3547  0.0545 -0.0161
31024SOL    HW110682   0.351   1.103  11.956 -0.5068 -1.9165  0.5702
31024SOL    HW210683   0.218   1.085  12.026 -1.4045  1.6860  0.0015
31025SOL     OW10684  13.037   8.993  12.124  0.2256 -0.2609  0.4211
31025SOL    HW110685  13.118   8.956  12.087  0.0773 -0.6585  0.4858
31025SOL    HW210686  13.014   9.064  12.065  0.2162 -0.6270 -0.0210
31026SOL     OW10687   6.546  11.156   9.589 -0.2699  1.0297  0.3976
31026SOL    HW110688   6.580  11.217   9.523  0.4477 -0.7948 -0.9939
31026SOL    HW210689   6.455  11.141   9.563  0.8232 -2.1375 -2.2801
31027SOL     OW10690   8.346   5.454   0.547 -0.5117 -0.1554 -0.0139
31027SOL    HW110691   8.357   5.474   0.454  1.4539  0.0974  0.2206
31027SOL    HW210692   8.337   5.359   0.550  2.1689 -0.4985 -0.3351
31028SOL     OW10693   2.671   3.584   5.902 -0.7663  0.6113  0.0242
31028SOL    HW110694   2.707   3.552   5.985 -0.0156  0.3273 -0.4021
31028SOL    HW210695   2.685   3.513   5.840 -0.5626  1.1395 -0.5487
31029SOL     OW10696   1.432  13.630   2.997 -0.0999 -0.5937  0.2726
31029SOL    HW110697   1.346  13.666   3.019  0.3099  2.6460 -2.4979
31029SOL    HW210698   1.473  13.611   3.081 -1.8477  2.2145  1.9246
31030SOL     OW10699   5.269   0.022   4.778  0.6200 -0.0355 -0.4536
31030SOL    HW110700   5.335   0.016   4.709  0.0413 -0.0471 -1.0069
31030SOL    HW210701   5.268   0.114   4.802  1.0150 -0.0770 -0.2617
31031SOL     OW10702   1.876  13.646   4.744  0.0207 -0.5843  0.0689
31031SOL    HW110703   1.958  13.649   4.696 -0.0356  0.0539  0.0098
31031SOL    HW210704   1.830  13.727   4.720 -0.6279 -0.9358  0.0930
31032SOL     OW10705   4.184   5.375  13.645 -0.6291 -0.3554 -0.5244
31032SOL    HW110706   4.259   5.316  13.643 -0.1884  0.2153 -1.0660
31032SOL    HW210707   4.210   5.445  13.705 -0.0974  0.6531 -1.8959
31033SOL     OW10708   0.985  10.477   8.916  0.2472  0.0060 -0.0509
31033SOL    HW110709   1.036  10.400   8.892  0.4551  0.4183 -0.9873
31033SOL    HW210710   0.898  10.461   8.878  0.6050  0.7078 -1.2158
31034SOL     OW10711   1.346  12.749   8.088  0.0178 -0.1258  0.3826
31034SOL    HW110712   1.411  12.715   8.026  0.2031 -0.4306  0.7464
31034SOL    HW210713   1.342  12.843   8.067  0.0219 -0.2354 -0.1439
31035SOL     OW10714   0.047   1.684  12.236 -0.1735 -0.0521  0.2108
31035SOL    HW110715   0.094   1.687  12.320  0.5601  0.9698 -0.2153
31035SOL    HW210716   0.091   1.749  12.182 -2.3901  1.3519 -0.0402
31036SOL     OW10717   1.011   6.592  13.336 -0.5696  0.1845  0.3145
31036SOL    HW110718   0.977   6.541  13.262  1.6535 -1.0118  0.0168
31036SOL    HW210719   1.105   6.599  13.318 -0.4899  2.7078  1.3980
31037SOL     OW10720   4.598   0.899   9.347 -0.0789  0.4066  0.0080
31037SOL    HW110721   4.596   0.815   9.393  0.7532 -0.5612 -1.6347
31037SOL    HW210722   4.557   0.881   9.263 -0.2685  1.7717 -0.2095
31038SOL     OW10723  12.738  11.808   1.035  0.0819 -0.2015  0.4219
31038SOL    HW110724  12.661  11.842   1.081 -0.0436  0.0389  0.0362
31038SOL    HW210725  12.799  11.882   1.033 -0.7018  0.4588 -1.5861
31039SOL     OW10726   2.805   4.484   7.895 -0.0574 -0.3843  0.2518
31039SOL    HW110727   2.890   4.510   7.862  0.2716 -0.8630  0.7079
31039SOL    HW210728   2.765   4.566   7.926  1.4764 -0.5032  2.8281
31040SOL     OW10729   7.243  12.533  10.345 -1.2302  0.0559 -0.1424
31040SOL    HW110730   7.223  12.506  10.434 -0.2216 -0.4444 -0.0525
31040SOL    HW210731   7.219  12.626  10.342  0.7265  0.6813  1.3179
31041SOL     OW10732   2.588  10.233  10.970  0.0806 -0.1560  0.4770
31041SOL    HW110733   2.560  10.167  10.907  1.3911  0.2307 -0.5638
31041SOL    HW210734   2.655  10.189  11.023  0.6963  0.2136  0.0171
31042SOL     OW10735  13.214   7.218   9.848 -0.0117  0.5669  0.3915
31042SOL    HW110736  13.175   7.239   9.763  2.8413 -1.9335 -1.7323
31042SOL    HW210737  13.161   7.145   9.880 -2.0082  2.4288  1.6331
31043SOL     OW10738   3.385   7.967   5.319 -0.0343 -0.4570 -0.9566
31043SOL    HW110739   3.423   8.047   5.357  0.2020 -0.5441 -1.0044
31043SOL    HW210740   3.461   7.919   5.284  0.0947 -1.6429  0.7971
31044SOL     OW10741   4.129   6.302   5.042  0.6237 -0.0054  0.0736
31044SOL    HW110742   4.101   6.369   5.105 -0.2705 -1.1700  0.9610
31044SOL    HW210743   4.125   6.220   5.091 -2.4560 -1.3278 -2.1022
31045SOL     OW10744   5.362  10.891   2.824  0.8832  0.6491 -0.5291
31045SOL    HW110745   5.297  10.842   2.873  0.6798 -0.2559 -1.6666
31045SOL    HW210746   5.383  10.966   2.880 -1.8342  1.5205 -0.5044
31046SOL     OW10747   2.160  11.641   2.718 -0.2031 -0.1939 -0.7591
31046SOL    HW110748   2.123  11.666   2.803  0.3544  2.2033 -1.1332
31046SOL    HW210749   2.088  11.655   2.656  0.7390  3.2512 -1.3118
31047SOL     OW10750  12.177   7.077   9.195  0.1883 -0.3050 -0.4570
31047SOL    HW110751  12.250   7.121   9.151  1.6731 -0.3745  1.7647
31047SOL    HW210752  12.218   7.004   9.242 -1.6374 -1.6002 -0.7864
31048SOL     OW10753  10.105   0.109   8.907  0.1963  0.3057 -0.4630
31048SOL    HW110754  10.157   0.035   8.877  0.0621  0.1265 -0.2603
31048SOL    HW210755  10.023   0.070   8.938  0.9630  0.2794  1.7203
31049SOL     OW10756  11.080   1.738   1.276  0.2334 -0.3624  0.0589
31049SOL    HW110757  11.082   1.819   1.224  0.1381 -0.6478 -0.3961
31049SOL    HW210758  11.135   1.677   1.228  3.4697  0.5305  2.3276
31050SOL     OW10759   7.018   5.359  11.926  0.6247  0.3805 -0.1584
31050SOL    HW110760   7.078   5.302  11.879 -0.6965 -0.1726 -1.2402
31050SOL    HW210761   6.963   5.399  11.858 -0.8989  0.0821  0.8321
31051SOL     OW10762  10.112  12.421   0.321 -0.5406 -0.0063 -0.4433
31051SOL    HW110763  10.192  12.395   0.276 -0.9724 -0.5269 -0.9350
31051SOL    HW210764  10.141  12.457   0.405  0.2407  0.4202 -0.8903
31052SOL     OW10765   0.934  12.341  13.935  0.5995  0.5642  0.0772
31052SOL    HW110766   1.023  12.313  13.958  0.1235  0.2053  1.6132
31052SOL    HW210767   0.922  12.312  13.845  2.5283  1.8730 -0.6792
31053SOL     OW10768  10.989   8.323   5.926 -0.0174  0.3459  0.0059
31053SOL    HW110769  10.895   8.307   5.935  0.1388 -0.5616  0.1627
31053SOL    HW210770  11.015   8.360   6.010 -0.3064  0.9749 -0.1806
31054SOL     OW10771   1.970  10.082   5.810 -0.1842  0.4977  0.3159
31054SOL    HW110772   1.932   9.996   5.827  0.8076 -0.4049 -1.6499
31054SOL    HW210773   1.902  10.131   5.764 -0.4219  0.4308  0.5948
31055SOL     OW10774   4.123  10.552   2.870 -0.5474  0.5685  0.1135
31055SOL    HW110775   4.097  10.532   2.780 -0.3331  0.2381  0.1234
31055SOL    HW210776   4.086  10.639   2.887  1.8234  1.9642 -1.2950
31056SOL     OW10777   3.497   9.293   3.782  0.1214  0.1577  0.2730
31056SOL    HW110778   3.445   9.289   3.701  1.4010  2.8996 -0.7982
31056SOL    HW210779   3.542   9.208   3.785 -1.3993 -0.7477 -0.8343
31057SOL     OW10780   0.229   0.308   0.321 -0.1575  0.1319  0.2505
31057SOL    HW110781   0.169   0.321   0.247 -0.8773 -0.7457  0.6653
31057SOL    HW210782   0.243   0.214   0.324  4.1529  0.4327 -2.0697
31058SOL     OW10783   0.257  11.987   6.970  0.4060 -0.0653  0.3273
31058SOL    HW110784   0.282  12.076   6.996 -0.6281  0.3383 -0.0198
31058SOL    HW210785   0.207  11.999   6.889  0.2956 -0.9715  0.2546
31059SOL     OW10786  12.471   8.045   3.999  0.7346 -0.2949 -0.5295
31059SOL    HW110787  12.460   8.098   4.078 -1.6765 -0.0465 -0.9586
31059SOL    HW210788  12.566   8.040   3.986  1.0933  2.0166  0.7761
31060SOL     OW10789   8.760   1.866   1.621  0.2011 -1.0129 -0.1812
31060SOL    HW110790   8.783   1.790   1.566  0.4000 -1.0559 -0.0401
31060SOL    HW210791   8.689   1.909   1.573  0.7196 -0.7604 -0.7292
31061SOL     OW10792   4.133   3.064   2.558  0.8246  0.0789  0.2467
31061SOL    HW110793   4.149   3.034   2.647  1.7047 -0.2164 -0.0004
31061SOL    HW210794   4.071   3.135   2.567 -0.9323 -1.4568  0.9084
31062SOL     OW10795  12.521  13.539  10.844 -0.5565  0.2196  0.1057
31062SOL    HW110796  12.517  13.531  10.749 -1.0433 -0.4351  0.1772
31062SOL    HW210797  12.605  13.581  10.860 -0.4645  0.3298 -0.6119
31063SOL     OW10798   1.838   7.072  12.017 -0.1487  0.1405 -0.2120
31063SOL    HW110799   1.911   7.133  12.025 -1.0841  1.1368  1.5021
31063SOL    HW210800   1.830   7.057  11.923  0.6612  2.0305 -0.6454
31064SOL     OW10801   3.209  13.355  11.799 -0.0782  0.5219 -0.2608
31064SOL    HW110802   3.283  13.294  11.808  0.5179  1.1998 -0.5318
31064SOL    HW210803   3.221  13.418  11.870 -1.0714 -0.0370  0.4406
31065SOL     OW10804   9.271  11.654   9.643  0.6646  0.3878 -0.0280
31065SOL    HW110805   9.240  11.614   9.725  0.0201 -0.0807 -0.4856
31065SOL    HW210806   9.283  11.580   9.584 -0.2281  0.8253 -0.7896
31066SOL     OW10807   6.502   6.191  13.499  0.1041  1.0067  0.0783
31066SOL    HW110808   6.438   6.238  13.552 -0.6366  0.6781 -0.4959
31066SOL    HW210809   6.460   6.182  13.413  1.0285  1.0058 -0.3924
31067SOL     OW10810   8.649  13.496  11.392 -0.6896  0.1871  0.2632
31067SOL    HW110811   8.615  13.424  11.445 -2.4109  0.0270 -0.9495
31067SOL    HW210812   8.720  13.457  11.341 -1.1675 -0.4852  0.0996
31068SOL     OW10813   7.216   6.628  10.207 -0.0609  0.1941 -0.1931
31068SOL    HW110814   7.261   6.566  10.150  0.9406 -0.8537  1.6327
31068SOL    HW210815   7.284   6.689  10.235  0.2284 -1.1129  2.2057
31069SOL     OW10816  11.658   0.114   6.400 -0.2290 -0.1542 -0.2005
31069SOL    HW110817  11.667   0.153   6.487  0.4202 -0.2880 -0.2024
31069SOL    HW210818  11.629   0.024   6.417  0.4310 -0.3509 -0.0926
31070SOL     OW10819   9.540   4.464   4.234  0.1820 -0.2949  0.0684
31070SOL    HW110820   9.573   4.376   4.250 -0.4097 -0.7334 -1.0107
31070SOL    HW210821   9.445   4.454   4.235  0.1159  0.0875 -1.2647
31071SOL     OW10822   9.681   8.121   4.308  0.0449  0.7856  0.2808
31071SOL    HW110823   9.773   8.132   4.282 -0.4355  0.3485 -1.7542
31071SOL    HW210824   9.644   8.209   4.306  0.0072  0.7571 -0.6343
31072SOL     OW10825   8.738   0.007   3.453  0.4248  0.0139 -0.3569
31072SOL    HW110826   8.766  -0.082   3.432 -0.2525 -0.6508  1.3025
31072SOL    HW210827   8.802   0.038   3.517  0.7101  0.7638 -0.9966
31073SOL     OW10828  12.988  10.624  13.790  0.0933 -0.5351 -0.2560
31073SOL    HW110829  12.999  10.532  13.768 -0.8570 -0.4691 -1.0529
31073SOL    HW210830  12.974  10.668  13.706  2.0451  0.5835 -0.0628
31074SOL     OW10831   7.091   4.159  11.573 -0.0681  0.2973 -0.1303
31074SOL    HW110832   7.107   4.131  11.664 -1.3828  0.8998  0.3131
31074SOL    HW210833   7.040   4.240  11.582 -0.6509  0.0882 -1.4121
31075SOL     OW10834  13.144  11.017   5.195 -0.9367  0.0403 -0.0244
31075SOL    HW110835  13.160  11.008   5.289 -0.1634 -1.0954 -0.2457
31075SOL    HW210836  13.212  11.079   5.166  0.7130 -1.7831 -0.2846
31076SOL     OW10837  11.713   9.024  14.030 -0.1814 -0.1373 -0.2937
31076SOL    HW110838  11.679   8.997  13.945 -0.4486 -2.4775  0.4895
31076SOL    HW210839  11.808   9.022  14.020 -0.2108  0.3185 -0.7226
31077SOL     OW10840  13.737   5.749   6.394 -0.5254 -0.2873 -0.6380
31077SOL    HW110841  13.700   5.664   6.414  1.1500 -1.0025 -0.4266
31077SOL    HW210842  13.832   5.739   6.407 -0.0828  1.1158 -2.2428
31078SOL     OW10843   3.469  14.056   7.019  0.0873  0.2207 -0.1498
31078SOL    HW110844   3.394  14.117   7.025 -1.1034 -0.7768 -3.1069
31078SOL    HW210845   3.434  13.973   7.051  0.5683  0.2264  0.3881
31079SOL     OW10846   7.067  13.379   6.723  0.2278 -0.4232  0.5220
31079SOL    HW110847   6.992  13.329   6.754  1.4739 -2.6210  0.1533
31079SOL    HW210848   7.055  13.386   6.629  0.4719 -0.7806  0.4620
31080SOL     OW10849  10.622   6.462   0.146  0.5377 -0.9159 -0.0865
31080SOL    HW110850  10.544   6.492   0.193 -0.4233 -3.5987  0.1954
31080SOL    HW210851  10.694   6.509   0.187 -0.5353 -1.2874  2.4178
31081SOL     OW10852  13.952   2.092   0.843  0.0520  0.1069 -0.5475
31081SOL    HW110853  14.020   2.067   0.780 -0.5453  0.8939 -1.5405
31081SOL    HW210854  13.920   2.176   0.811 -0.8609  0.1127  0.3426
31082SOL     OW10855   9.686  10.211   0.869 -0.3942  0.2185 -0.3390
31082SOL    HW110856   9.618  10.182   0.808 -0.3718 -2.3331  0.7109
31082SOL    HW210857   9.669  10.161   0.949  1.7656  0.7265  0.4955
31083SOL     OW10858   2.420   1.783   0.403  0.1954  0.0960 -0.2795
31083SOL    HW110859   2.409   1.702   0.454 -1.9372 -0.1150 -0.9814
31083SOL    HW210860   2.514   1.800   0.406  0.3629 -0.8464  2.2670
31084SOL     OW10861   0.315  11.784  10.401  0.5347 -0.4774  0.1383
31084SOL    HW110862   0.336  11.848  10.469  0.3192  1.2107 -1.2914
31084SOL    HW210863   0.361  11.817  10.323  0.6727 -2.2660 -0.5693
31085SOL     OW10864  10.906   5.993  11.729  0.3194  0.1116  0.1413
31085SOL    HW110865  11.001   5.993  11.719  0.2609  1.7171 -0.8864
31085SOL    HW210866  10.883   6.085  11.740 -1.0746 -0.3087  1.0655
31086SOL     OW10867   4.635   5.122   1.800 -0.6833 -0.3305  0.3512
31086SOL    HW110868   4.712   5.068   1.783 -1.0073 -0.4453 -0.8127
31086SOL    HW210869   4.636   5.135   1.895  1.3548  0.5416  0.2746
31087SOL     OW10870  11.146   2.038   4.440 -0.2936 -0.2135 -0.6415
31087SOL    HW110871  11.105   2.009   4.522  1.9945  0.4733  0.8196
31087SOL    HW210872  11.225   1.985   4.432 -0.6171 -0.4780 -2.6078
31088SOL     OW10873   9.252   4.015   0.027 -0.5125  0.8435  0.5622
31088SOL    HW110874   9.192   4.063  -0.030 -2.0330 -0.4402  0.9980
31088SOL    HW210875   9.231   4.044   0.115  1.2746  2.2203  0.5856
31089SOL     OW10876   9.997   0.512   3.568 -0.0525  0.4698  0.2738
31089SOL    HW110877   9.972   0.600   3.539  2.0167  0.9483 -0.2370
31089SOL    HW210878   9.937   0.454   3.521 -1.7412  1.5876  0.9530
31090SOL     OW10879   1.894   3.698   8.876 -0.0797  0.1223 -0.0775
31090SOL    HW110880   1.960   3.682   8.809 -1.0077  0.7099 -1.1840
31090SOL    HW210881   1.929   3.771   8.927  0.2618  0.2344 -0.4652
31091SOL     OW10882   0.621   2.661   7.971 -0.2224 -0.1142  0.2407
31091SOL    HW110883   0.691   2.657   8.036 -0.7892 -0.2581  0.8528
31091SOL    HW210884   0.575   2.577   7.978 -0.8268  0.2081  0.2745
31092SOL     OW10885   5.869   8.021   3.129  0.7608 -0.6409  0.1814
31092SOL    HW110886   5.865   8.010   3.224 -1.2595  1.2680  0.4108
31092SOL    HW210887   5.817   8.100   3.112  0.5704 -1.2646 -2.5736
31093SOL     OW10888   4.266   7.407   5.534 -0.9491 -0.4138 -0.2816
31093SOL    HW110889   4.259   7.415   5.629  1.6194  2.2559 -0.1773
31093SOL    HW210890   4.315   7.326   5.520 -0.7069 -0.4454  0.6821
31094SOL     OW10891   0.476   2.631   2.650 -0.3424  0.0376 -0.7115
31094SOL    HW110892   0.513   2.624   2.738  2.3740  3.2542 -1.4168
31094SOL    HW210893   0.390   2.671   2.663 -0.0884  0.2255  0.4729
31095SOL     OW10894  11.861   7.096   1.817 -0.7670 -0.6346 -0.0868
31095SOL    HW110895  11.894   7.154   1.749 -0.7860  1.0293  1.2537
31095SOL    HW210896  11.812   7.028   1.769 -2.0717  1.2911 -1.6823
31096SOL     OW10897   5.621  13.244   3.142 -0.0629  0.1549  0.4520
31096SOL    HW110898   5.552  13.233   3.207 -0.6766 -1.1639 -0.3707
31096SOL    HW210899   5.625  13.159   3.097  1.6678  0.4101  0.0595
31097SOL     OW10900   7.112   2.654   7.045 -0.4171 -0.5995 -0.5340
31097SOL    HW110901   7.135   2.729   6.989 -1.1413  1.4000  1.6502
31097SOL    HW210902   7.178   2.588   7.025  1.0736  1.1078 -1.6548
31098SOL     OW10903   8.286   5.574   8.490 -0.1592  0.9814  0.1302
31098SOL    HW110904   8.306   5.489   8.450  0.2431  0.8477  0.6056
31098SOL    HW210905   8.258   5.629   8.416 -2.0253 -0.0193  0.0332
31099SOL     OW10906   7.363  11.314   9.016 -0.0321  0.0730  0.4164
31099SOL    HW110907   7.393  11.224   9.030 -0.6597 -0.5374 -1.7926
31099SOL    HW210908   7.306  11.309   8.940 -0.6120  2.2675  0.6269
31100SOL     OW10909   6.675  11.185  11.661 -0.6480  0.0866 -0.6936
31100SOL    HW110910   6.596  11.204  11.710 -1.0641 -2.2626 -0.3343
31100SOL    HW210911   6.670  11.241  11.584 -1.0201  2.3113  0.8784
31101SOL     OW10912   5.351   1.396   0.554 -0.3562 -0.1061  0.2963
31101SOL    HW110913   5.260   1.383   0.584 -0.0190  0.7615  1.7678
31101SOL    HW210914   5.400   1.413   0.634  1.0084  0.0786 -0.5584
31102SOL     OW10915  11.619  10.751  11.407 -0.1898 -0.2915  0.2813
31102SOL    HW110916  11.701  10.791  11.436  1.7416 -3.3051 -0.4944
31102SOL    HW210917  11.552  10.792  11.461  1.8705  1.8592  1.4257
31103SOL     OW10918  12.091   5.615  11.168 -0.1574 -0.3988 -0.2518
31103SOL    HW110919  12.098   5.526  11.202 -0.3433 -0.2663  0.1379
31103SOL    HW210920  12.158   5.620  11.100  0.7027 -0.4409  0.5752
31104SOL     OW10921   1.934   6.959   9.797 -0.0889 -0.2204 -0.2010
31104SOL    HW110922   1.933   7.052   9.775 -0.4030 -0.1186  0.2144
31104SOL    HW210923   1.843   6.931   9.788  0.0942 -0.6277 -0.8671
31105SOL     OW10924   6.734   3.293  12.735 -0.7756 -0.1997  0.1996
31105SOL    HW110925   6.706   3.352  12.805 -0.8236  1.2799 -1.0153
31105SOL    HW210926   6.735   3.348  12.656  3.9908 -0.4386 -0.2015
31106SOL     OW10927  12.160   9.052  10.392  0.0235 -0.8479  0.2864
31106SOL    HW110928  12.218   8.984  10.428 -0.2768 -0.8929  0.6861
31106SOL    HW210929  12.103   9.076  10.464  0.0652 -0.2305  0.1201
31107SOL     OW10930   1.553   0.896   2.693  0.0277  0.2852  0.3063
31107SOL    HW110931   1.563   0.839   2.617  0.1640 -0.0970  0.6068
31107SOL    HW210932   1.606   0.855   2.761  1.0495  1.3901  0.1960
31108SOL     OW10933   9.570   5.363   0.395 -0.3492 -0.0041  0.5486
31108SOL    HW110934   9.567   5.346   0.489  0.8751  0.2636  0.6609
31108SOL    HW210935   9.554   5.457   0.386  1.1961  0.2995  0.6594
31109SOL     OW10936  12.783   0.775  12.784  0.0514  0.4211 -0.1628
31109SOL    HW110937  12.693   0.799  12.761 -0.2953 -0.0046  0.6814
31109SOL    HW210938  12.829   0.859  12.791 -0.0193  0.5929 -1.5748
31110SOL     OW10939  13.098  12.107   5.761 -0.3552  0.0266  0.1985
31110SOL    HW110940  13.109  12.076   5.671  0.1485 -1.2453  0.6756
31110SOL    HW210941  13.177  12.159   5.777 -1.1739  1.5797 -0.5836
31111SOL     OW10942  13.540   9.060  11.639  0.1980  0.1123 -0.0683
31111SOL    HW110943  13.625   9.103  11.645  1.2643 -1.3970 -2.8921
31111SOL    HW210944  13.485   9.108  11.702  2.8955  1.5606  1.3573
31112SOL     OW10945   0.298   3.979  12.228  0.4255  0.4495  0.6837
31112SOL    HW110946   0.341   4.058  12.193 -0.9486  0.7625 -0.3701
31112SOL    HW210947   0.293   3.995  12.322 -0.6439  2.0710  0.4001
31113SOL     OW10948   5.803  13.767  12.184 -0.2498  0.0703 -0.2786
31113SOL    HW110949   5.751  13.729  12.114 -0.4526 -0.3151  0.0827
31113SOL    HW210950   5.886  13.792  12.141 -0.5466  0.2617 -0.7488
31114SOL     OW10951   3.801  10.110   7.660  0.0262  0.0761 -0.5684
31114SOL    HW110952   3.746  10.088   7.735 -0.6829  1.8494 -0.5136
31114SOL    HW210953   3.763  10.059   7.588 -0.4080 -0.2867 -0.0915
31115SOL     OW10954   3.965   9.408   8.269  0.1726 -0.1227 -0.0886
31115SOL    HW110955   4.016   9.390   8.348 -1.3813 -0.9627  0.7706
31115SOL    HW210956   3.966   9.326   8.220 -0.2478 -0.1015 -0.1350
31116SOL     OW10957   0.179   9.166   6.115  0.0061  0.2655  0.1696
31116SOL    HW110958   0.095   9.141   6.076 -0.7168  0.9826  1.2054
31116SOL    HW210959   0.238   9.176   6.041 -1.1987  1.1306 -0.7085
31117SOL     OW10960   4.721  13.013   6.468 -0.0466  0.0647  0.7335
31117SOL    HW110961   4.756  12.924   6.469  0.1572  0.1343  0.1769
31117SOL    HW210962   4.795  13.068   6.443 -0.3722  0.2905  0.2380
31118SOL     OW10963  11.742   7.446   6.870 -0.0757  0.1847  0.1645
31118SOL    HW110964  11.824   7.488   6.842  1.2886 -2.1547  0.3664
31118SOL    HW210965  11.712   7.398   6.793 -0.9071  0.4839  0.2959
31119SOL     OW10966   9.933  10.274   6.669  0.7224 -0.1688  0.1636
31119SOL    HW110967   9.924  10.180   6.653 -0.9463 -0.0588  0.2148
31119SOL    HW210968   9.959  10.310   6.584  1.5423 -0.6903  0.1868
31120SOL     OW10969   6.022   9.992  12.122  0.0854  0.8141  1.0564
31120SOL    HW110970   5.947  10.010  12.065  0.7733 -0.8644 -0.5047
31120SOL    HW210971   6.006   9.903  12.155  1.4528  0.3287  0.5086
31121SOL     OW10972   0.493  10.841   1.088  0.2513 -0.1344  0.2945
31121SOL    HW110973   0.447  10.759   1.071  1.0858 -0.4936 -0.3387
31121SOL    HW210974   0.557  10.848   1.016  0.2473  1.0342  0.3787
31122SOL     OW10975  10.551   4.987   4.733 -0.3776 -0.7831 -0.5133
31122SOL    HW110976  10.618   5.049   4.764 -1.3752 -0.2401  0.6314
31122SOL    HW210977  10.518   5.027   4.653  1.5112 -1.6954 -1.8500
31123SOL     OW10978   4.433   3.606   1.224 -0.3924 -0.2182  0.4644
31123SOL    HW110979   4.470   3.581   1.309 -0.9852  1.1034  1.1402
31123SOL    HW210980   4.378   3.531   1.200 -0.9779 -0.2261  1.7272
31124SOL     OW10981  13.040   6.013   4.225 -0.0159  0.0359  0.0810
31124SOL    HW110982  12.961   6.063   4.244  0.0797  1.0537 -1.9820
31124SOL    HW210983  13.009   5.925   4.206 -0.7447  0.5729 -1.3031
31125SOL     OW10984   9.314   2.434   7.668  0.2273 -0.0915 -0.3247
31125SOL    HW110985   9.245   2.461   7.609 -1.1097 -2.1931  0.1791
31125SOL    HW210986   9.387   2.409   7.611 -0.0414  0.5093 -0.9366
31126SOL     OW10987   5.383   4.523   6.608  0.5165  0.1465 -0.3633
31126SOL    HW110988   5.291   4.543   6.590 -0.2109 -0.4018  2.2977
31126SOL    HW210989   5.427   4.537   6.524 -2.0181  0.1029 -1.8168
31127SOL     OW10990   4.269   9.410   1.855 -0.4755  0.1293  0.3408
31127SOL    HW110991   4.218   9.338   1.817 -0.7711  0.3393  0.3301
31127SOL    HW210992   4.359   9.393   1.828 -0.6697  0.2311 -0.4010
31128SOL     OW10993   5.936  13.252  10.596 -0.5409 -0.1725  0.5061
31128SOL    HW110994   5.932  13.294  10.682 -0.5908 -0.6318  0.7362
31128SOL    HW210995   5.845  13.244  10.568 -0.5733 -0.6855  0.7462
31129SOL     OW10996   4.332  12.715  10.220  0.1237 -0.4090  0.0668
31129SOL    HW110997   4.409  12.735  10.274 -0.3546 -2.0427  1.4138
31129SOL    HW210998   4.277  12.793  10.228  0.7405 -0.0230  0.7145
31130SOL     OW10999   8.916  13.519   9.849  0.3383  0.0393 -0.1326
31130SOL    HW111000   8.843  13.566   9.809  0.1832  0.6251  0.8152
31130SOL    HW211001   8.994  13.571   9.828  0.3212  0.0901 -0.0701
31131SOL     OW11002  12.605   3.175   6.109  0.3771 -0.4580  0.5787
31131SOL    HW111003  12.654   3.109   6.158  1.3224 -1.5182 -1.6379
31131SOL    HW211004  12.669   3.244   6.092  0.2381 -0.3974  0.3047
31132SOL     OW11005   7.291  10.187   6.265  0.4513 -0.1032  0.5768
31132SOL    HW111006   7.234  10.179   6.341  0.9657 -0.4578  0.9336
31132SOL    HW211007   7.271  10.110   6.212 -1.8771  1.4736 -1.0499
31133SOL     OW11008   3.874   1.438  13.112  0.5754  0.1265 -0.2618
31133SOL    HW111009   3.859   1.492  13.189  0.5326 -2.2825  1.5462
31133SOL    HW211010   3.914   1.497  13.048  0.7737  2.1731  1.6371
31134SOL     OW11011   0.646   5.890  11.593 -0.0252 -0.7368  0.1620
31134SOL    HW111012   0.635   5.918  11.502 -1.3542 -0.0245  0.5112
31134SOL    HW211013   0.663   5.971  11.641  0.0041 -1.0205  0.6332
31135SOL     OW11014   7.575   3.193   7.404 -0.3840 -0.4319  0.4867
31135SOL    HW111015   7.613   3.175   7.490  0.9024  2.0723  0.5388
31135SOL    HW211016   7.500   3.250   7.423  0.7324  1.2892 -0.0676
31136SOL     OW11017  13.785   3.282  13.247  0.1418 -0.4626  0.2735
31136SOL    HW111018  13.817   3.259  13.159 -1.0450  0.3690 -0.3979
31136SOL    HW211019  13.692   3.301  13.235  0.4431  1.9317  1.2798
31137SOL     OW11020   8.748   6.246   0.854 -0.5318  0.0668 -0.0114
31137SOL    HW111021   8.778   6.186   0.923 -0.2299  1.0600  0.7473
31137SOL    HW211022   8.768   6.333   0.888  2.5787  0.5799 -2.6642
31138SOL     OW11023   3.604   1.827   8.682 -0.2962  0.1593 -0.8223
31138SOL    HW111024   3.550   1.865   8.613  1.3546  1.1476 -1.6355
31138SOL    HW211025   3.608   1.734   8.661 -1.9757 -0.0188 -0.4994
31139SOL     OW11026  13.297  13.772  11.248 -0.0484 -0.2104  0.1667
31139SOL    HW111027  13.270  13.768  11.340  1.9440  1.7817  0.9379
31139SOL    HW211028  13.387  13.739  11.248  0.1703  0.3365 -0.9850
31140SOL     OW11029   5.009  10.948   0.210 -0.0342 -0.3197  0.2189
31140SOL    HW111030   4.976  10.952   0.121  0.8098  0.4743 -0.0776
31140SOL    HW211031   5.084  11.008   0.211 -0.3614  0.1233  1.5891
31141SOL     OW11032   3.543  10.627  10.288  0.2478 -0.1505 -0.0333
31141SOL    HW111033   3.451  10.654  10.292  0.5764  1.1375 -0.7450
31141SOL    HW211034   3.543  10.538  10.325 -1.2043 -0.0024  0.3919
31142SOL     OW11035   4.540   9.623   0.413  0.4314 -0.1205 -0.0403
31142SOL    HW111036   4.458   9.658   0.448 -0.2860  0.2205 -1.9417
31142SOL    HW211037   4.524   9.530   0.401 -0.3160  0.1993 -1.9269
31143SOL     OW11038  10.168   8.525   3.502  0.1055 -0.0883  0.1857
31143SOL    HW111039  10.204   8.602   3.458  1.6296 -0.0400  1.4288
31143SOL    HW211040  10.082   8.553   3.534  0.2647  0.8116 -0.1591
31144SOL     OW11041   1.264  13.558   5.474 -0.0489 -0.1503  0.3924
31144SOL    HW111042   1.201  13.553   5.547 -2.1432  3.1939 -0.9738
31144SOL    HW211043   1.233  13.493   5.411 -0.2775 -0.6296  0.9827
31145SOL     OW11044  10.086   7.316   5.694  0.2459 -0.2776  0.0195
31145SOL    HW111045  10.043   7.310   5.779 -0.8915 -1.4709 -0.6114
31145SOL    HW211046  10.175   7.346   5.714 -0.2124  0.1401  1.5475
31146SOL     OW11047   5.425   8.525   2.070 -0.2613 -0.5260 -0.2325
31146SOL    HW111048   5.446   8.522   2.164 -0.6272 -2.2242 -0.1745
31146SOL    HW211049   5.494   8.474   2.028 -1.1472 -1.4111 -0.6544
31147SOL     OW11050  12.385   5.579  13.291  0.2354 -0.0775 -0.0036
31147SOL    HW111051  12.431   5.547  13.369  1.4007  1.2845 -0.0998
31147SOL    HW211052  12.308   5.624  13.326 -0.8423 -1.9576  0.1801
31148SOL     OW11053   6.375   0.549   9.236  0.0083  0.2763 -0.2081
31148SOL    HW111054   6.365   0.643   9.254 -0.3643 -0.0205  1.2177
31148SOL    HW211055   6.327   0.505   9.307 -0.8868 -0.9955 -1.5273
31149SOL     OW11056  11.500   9.889   3.352 -0.1522 -0.1069 -0.1209
31149SOL    HW111057  11.572   9.934   3.307  0.9482 -1.0481  0.6402
31149SOL    HW211058  11.475   9.948   3.422  1.4231 -0.7106  1.0040
31150SOL     OW11059   2.296  11.388  11.435  0.3362  0.0937 -0.2723
31150SOL    HW111060   2.253  11.394  11.520  0.5800 -0.8162 -0.0779
31150SOL    HW211061   2.377  11.438  11.446  0.0264  0.5839 -0.1962
31151SOL     OW11062   8.760   2.446  12.977 -0.5294  0.6059  0.4137
31151SOL    HW111063   8.847   2.412  12.997 -0.4510  0.6328  0.1214
31151SOL    HW211064   8.776   2.521  12.920 -0.8694 -1.7716 -3.1417
31152SOL     OW11065   0.163   5.039   2.910  0.1104  0.1935  1.1178
31152SOL    HW111066   0.160   4.956   2.957  2.9549 -0.0232  1.0994
31152SOL    HW211067   0.111   5.099   2.964 -2.0969 -1.5373  1.0690
31153SOL     OW11068  13.427   2.583   2.856  0.0291  0.4101 -0.6246
31153SOL    HW111069  13.337   2.584   2.888 -0.5868  0.9119 -2.2708
31153SOL    HW211070  13.461   2.498   2.883 -0.9277  0.2230  0.0403
31154SOL     OW11071  12.636   2.207   9.908 -0.2412  0.2696  0.1938
31154SOL    HW111072  12.669   2.150   9.839 -0.8590  0.1934 -0.0493
31154SOL    HW211073  12.577   2.267   9.863  2.7516  3.2240 -0.1068
31155SOL     OW11074   5.999   3.356   3.641  0.5657  0.3040 -1.1761
31155SOL    HW111075   5.909   3.326   3.655  0.3739 -0.2371 -3.2843
31155SOL    HW211076   6.053   3.282   3.666  0.4651  0.6586  0.1783
31156SOL     OW11077   4.012  13.391   7.771 -0.0904 -0.1154 -0.7261
31156SOL    HW111078   4.004  13.456   7.841  0.1484 -1.3279  0.4557
31156SOL    HW211079   4.073  13.431   7.709 -0.9463  1.3383 -0.6923
31157SOL     OW11080   4.221   3.854   6.986 -0.2962 -0.6568  0.4280
31157SOL    HW111081   4.150   3.810   7.033 -0.7323 -1.0621 -0.5789
31157SOL    HW211082   4.220   3.944   7.020 -1.9395 -0.3829 -0.2481
31158SOL     OW11083   3.317  13.553   5.679 -0.6782  0.0819  0.3046
31158SOL    HW111084   3.265  13.572   5.601 -0.0019  1.7394  0.2043
31158SOL    HW211085   3.355  13.638   5.703  0.9792 -0.8250  1.0707
31159SOL     OW11086   1.366   5.008  10.181  0.4362  0.0244 -0.1675
31159SOL    HW111087   1.370   5.070  10.109 -1.7387 -0.2104 -0.5638
31159SOL    HW211088   1.273   4.985  10.188  0.5960 -0.1009  2.6017
31160SOL     OW11089  10.253   1.119  11.281 -0.5232  0.4141 -0.6758
31160SOL    HW111090  10.184   1.183  11.294 -1.2953 -0.2574 -1.3848
31160SOL    HW211091  10.256   1.070  11.363 -0.6767  0.6464 -0.5311
31161SOL     OW11092  13.171   0.965   2.900  0.0949  0.1142  0.1233
31161SOL    HW111093  13.116   0.887   2.908  0.6247 -0.1603  1.3260
31161SOL    HW211094  13.131   1.016   2.829 -0.6550 -0.9170 -0.2150
31162SOL     OW11095   8.593  12.708   7.714 -0.2394  0.3064  0.3104
31162SOL    HW111096   8.514  12.655   7.725 -0.6164  0.8123  0.0155
31162SOL    HW211097   8.604  12.716   7.620 -0.7900  1.6487  0.3372
31163SOL     OW11098   3.752   2.065  12.735 -0.3419  0.5111 -0.0470
31163SOL    HW111099   3.768   1.980  12.693 -0.1093 -0.4012  1.7615
31163SOL    HW211100   3.659   2.063  12.758 -0.0171  0.0377  1.3622
31164SOL     OW11101  12.940   6.320   4.904 -0.4114 -0.3786 -0.0539
31164SOL    HW111102  13.002   6.257   4.940 -0.1929 -0.2438 -0.1905
31164SOL    HW211103  12.863   6.315   4.962  0.3934  0.7180  1.1677
31165SOL     OW11104   4.622   9.055  11.879 -0.4095 -0.1594  0.2261
31165SOL    HW111105   4.538   9.011  11.891 -0.8025  0.3596 -0.5538
31165SOL    HW211106   4.599   9.144  11.854  0.3530 -0.2908 -1.0227
31166SOL     OW11107  11.751   2.239   9.590 -0.2444 -0.1846  0.3626
31166SOL    HW111108  11.801   2.197   9.660 -0.2606 -0.9732 -0.0869
31166SOL    HW211109  11.661   2.239   9.621 -0.2468 -0.4978  0.3613
31167SOL     OW11110   4.037  13.282   6.174  0.5909 -0.1573  0.1931
31167SOL    HW111111   4.053  13.309   6.264  2.2898  0.4698 -0.2612
31167SOL    HW211112   3.946  13.307   6.158  0.3014 -0.1562  1.6773
31168SOL     OW11113   8.356  12.302   6.936 -0.2171  0.7923 -0.0150
31168SOL    HW111114   8.311  12.234   6.887 -0.4273  1.4607 -0.7528
31168SOL    HW211115   8.368  12.373   6.874  0.7945  1.0901  0.5028
31169SOL     OW11116  12.071   6.490   0.011  0.1334 -0.1798 -0.5981
31169SOL    HW111117  12.154   6.511  -0.032 -0.1133  1.0174 -0.5311
31169SOL    HW211118  12.005   6.540  -0.037 -0.2529  0.6062  0.6872
31170SOL     OW11119   6.491  11.228   9.244 -0.4715  0.3903  0.6659
31170SOL    HW111120   6.411  11.267   9.279  0.0201  2.7112 -0.5823
31170SOL    HW211121   6.562  11.273   9.290  0.1265 -0.8135  0.9405
31171SOL     OW11122   7.839   4.691  11.955  0.0851 -0.1039 -0.4456
31171SOL    HW111123   7.872   4.670  12.043  0.6343 -0.3036 -0.6987
31171SOL    HW211124   7.800   4.610  11.924 -1.1164  0.2624  0.0519
31172SOL     OW11125  13.778  13.378   9.204  0.2274  0.0722  0.4070
31172SOL    HW111126  13.827  13.351   9.126  0.7502  1.1843  0.3306
31172SOL    HW211127  13.686  13.362   9.182  0.1611  2.2904 -1.2916
31173SOL     OW11128   5.315   3.482   7.897 -0.1902 -0.4394 -0.3577
31173SOL    HW111129   5.283   3.438   7.975 -0.5779  1.3405  0.5311
31173SOL    HW211130   5.380   3.422   7.860 -0.0401 -1.3328  1.2974
31174SOL     OW11131   9.792  12.108  12.907  0.1397 -0.4666  0.1378
31174SOL    HW111132   9.844  12.157  12.971 -3.2460  0.6643  2.2865
31174SOL    HW211133   9.758  12.175  12.848 -0.0221 -1.0040 -0.3880
31175SOL     OW11134   1.313   8.755   5.838 -0.2848 -1.0839 -0.1450
31175SOL    HW111135   1.239   8.710   5.879  0.6457 -0.6454  2.1477
31175SOL    HW211136   1.389   8.702   5.860  0.2662 -0.8295 -1.3595
31176SOL     OW11137   1.143  13.267   0.226 -0.1446 -0.1927  0.1215
31176SOL    HW111138   1.141  13.286   0.320 -2.0647  1.3582 -0.1564
31176SOL    HW211139   1.092  13.338   0.187 -0.9404 -1.7796 -1.9002
31177SOL     OW11140   2.921  13.808   7.153  0.0670 -0.4884 -0.4277
31177SOL    HW111141   2.915  13.880   7.215 -2.8080 -0.2773 -0.7879
31177SOL    HW211142   2.974  13.842   7.081  2.2195 -0.2395  1.2054
31178SOL     OW11143  12.929   1.598   8.545 -0.0260 -0.2335 -0.2290
31178SOL    HW111144  12.910   1.674   8.490 -2.4974 -0.5295  0.1071
31178SOL    HW211145  12.879   1.613   8.625  2.0247 -0.7088  1.2343
31179SOL     OW11146  12.410   0.660   7.346 -0.5006 -0.0287  0.6903
31179SOL    HW111147  12.502   0.685   7.339 -0.9159  1.9141  1.4527
31179SOL    HW211148  12.412   0.570   7.377  1.1160 -1.0373 -1.9858
31180SOL     OW11149  12.813  12.744   1.236  0.4263  0.7535 -0.3733
31180SOL    HW111150  12.846  12.694   1.161  0.0117  2.2602 -1.6053
31180SOL    HW211151  12.870  12.821   1.240 -1.1946  2.0267 -0.8392
31181SOL     OW11152   1.908   3.249   6.023  0.2688  0.5822  0.2649
31181SOL    HW111153   1.965   3.254   5.946 -1.0231  0.6052 -0.7379
31181SOL    HW211154   1.963   3.213   6.092  1.4285  0.4285 -0.7096
31182SOL     OW11155  12.458  12.140   9.905 -0.3148  0.1458 -0.3424
31182SOL    HW111156  12.365  12.120   9.891 -0.7707  2.0912 -0.4206
31182SOL    HW211157  12.490  12.166   9.818  0.3099 -0.5216 -0.3141
31183SOL     OW11158  13.712   1.007  10.257 -0.3012  0.0940  0.2970
31183SOL    HW111159  13.627   0.962  10.262 -0.0133 -0.5305 -0.2310
31183SOL    HW211160  13.693   1.089  10.211 -0.4589 -0.4845 -0.6873
31184SOL     OW11161   6.123   4.134   5.742 -0.3355  0.1116  0.1632
31184SOL    HW111162   6.086   4.060   5.789 -0.2136 -0.8170 -1.1472
31184SOL    HW211163   6.052   4.166   5.687 -0.2738  0.7399  0.4366
31185SOL     OW11164  13.042   2.602   1.802  0.5445  0.1108 -0.1145
31185SOL    HW111165  13.102   2.647   1.743  0.6198  0.9339  0.5722
31185SOL    HW211166  13.022   2.666   1.870  0.9189 -0.9878  1.0794
31186SOL     OW11167   2.032   9.493  10.111 -0.7299 -0.2724  0.2464
31186SOL    HW111168   2.081   9.476  10.191  0.4497 -0.4784 -0.4985
31186SOL    HW211169   2.073   9.436  10.046 -2.5569 -1.1605 -0.2074
31187SOL     OW11170  12.333  11.240   7.179  0.1545 -0.3777  0.0180
31187SOL    HW111171  12.290  11.306   7.126  2.0076  0.6359 -0.2994
31187SOL    HW211172  12.419  11.277   7.200  0.8976 -2.2876  0.6241
31188SOL     OW11173   3.802  12.555  12.528  0.0123 -0.6450  0.4263
31188SOL    HW111174   3.828  12.463  12.529 -0.9086 -0.9097  0.3913
31188SOL    HW211175   3.883  12.602  12.508  0.2035 -1.5545 -1.1558
31189SOL     OW11176  12.817   4.718  12.467 -0.1561 -0.0320 -0.6123
31189SOL    HW111177  12.737   4.673  12.493 -0.2826 -0.6335 -1.9553
31189SOL    HW211178  12.831   4.785  12.534 -1.0979 -0.7326  0.3006
31190SOL     OW11179   7.381  13.812   9.363 -0.1177  0.1495 -0.2418
31190SOL    HW111180   7.427  13.823   9.446  0.7719 -1.2065 -0.5317
31190SOL    HW211181   7.447  13.827   9.296 -0.8662  1.3910 -0.7312
31191SOL     OW11182  11.468  10.058   6.818 -0.0550  0.2602  0.0558
31191SOL    HW111183  11.465  10.145   6.779  0.7174  1.3549  2.2266
31191SOL    HW211184  11.402  10.061   6.888  0.0214 -0.8648  0.1900
31192SOL     OW11185   8.622   0.392   6.473 -0.6497 -0.5434 -0.1956
31192SOL    HW111186   8.604   0.302   6.446 -0.0868 -0.6576 -0.2082
31192SOL    HW211187   8.609   0.444   6.393  1.3859 -0.9293 -0.8400
31193SOL     OW11188  12.258  11.521   0.670  0.3953 -0.4738  0.4177
31193SOL    HW111189  12.348  11.551   0.662  0.1216  0.1889 -0.3501
31193SOL    HW211190  12.249  11.495   0.761  1.5648 -1.2456  0.3320
31194SOL     OW11191   2.371   4.002  10.890 -0.5364  0.4802  0.1125
31194SOL    HW111192   2.304   3.934  10.904 -1.5777  1.4761  0.1591
31194SOL    HW211193   2.324   4.071  10.843  0.5654  1.0747 -0.1347
31195SOL     OW11194  11.506   9.442  13.033 -0.6134  0.1343  0.4619
31195SOL    HW111195  11.453   9.504  12.983 -2.3486  0.8172  2.9417
31195SOL    HW211196  11.555   9.497  13.094  2.3642 -0.5793 -1.1303
31196SOL     OW11197  13.734   5.557   2.548 -0.0054  0.3692  0.1476
31196SOL    HW111198  13.779   5.628   2.595 -0.8807  0.7425  0.4392
31196SOL    HW211199  13.803   5.493   2.530  0.8246  1.3229 -0.1827
31197SOL     OW11200   9.178   6.121   9.632 -0.4993 -0.4250 -0.6222
31197SOL    HW111201   9.254   6.129   9.576  0.4954 -0.7951  0.6323
31197SOL    HW211202   9.122   6.057   9.588 -0.5508  0.5308 -2.0115
31198SOL     OW11203   4.681  10.711   1.914  0.1275  0.2080 -0.2070
31198SOL    HW111204   4.732  10.779   1.870 -0.4200 -0.5758 -2.1823
31198SOL    HW211205   4.600  10.704   1.862 -1.7398  0.8966  2.3779
31199SOL     OW11206   2.386   1.334  10.353  0.1096  0.5341  1.0342
31199SOL    HW111207   2.455   1.271  10.330 -1.6472 -1.3389  0.6008
31199SOL    HW211208   2.345   1.356  10.270 -0.8434  0.3385  1.4410
31200SOL     OW11209   7.907  13.879   2.427 -0.4703  0.1442  0.1996
31200SOL    HW111210   7.813  13.865   2.421 -0.3538 -0.8784  0.5385
31200SOL    HW211211   7.935  13.825   2.501  0.4817 -0.1875 -0.3726
31201SOL     OW11212   5.824   0.140  10.642 -0.1047  0.1761  0.0137
31201SOL    HW111213   5.878   0.167  10.568 -1.4710  1.7688 -0.4690
31201SOL    HW211214   5.736   0.131  10.606 -0.8439  1.2255  1.4531
31202SOL     OW11215   2.325   0.235   9.595  0.0520  0.3586  0.0642
31202SOL    HW111216   2.272   0.306   9.559 -1.0826 -0.9904 -1.0655
31202SOL    HW211217   2.327   0.169   9.525 -0.1944 -1.3492  1.5851
31203SOL     OW11218   8.904  11.585   4.839 -0.3978  0.5288 -0.0128
31203SOL    HW111219   8.812  11.612   4.835 -0.2136  1.1408 -3.5002
31203SOL    HW211220   8.924  11.556   4.750  1.9137 -2.9238  1.4425
31204SOL     OW11221  12.383  12.993   0.063  0.0313 -0.3972 -0.7900
31204SOL    HW111222  12.452  12.956   0.119  1.3814  2.8682 -0.0680
31204SOL    HW211223  12.394  12.948  -0.021  2.6760 -0.4765 -0.4973
31205SOL     OW11224  13.383   4.906   4.954 -0.4978 -0.2602 -0.1810
31205SOL    HW111225  13.365   4.991   4.993 -0.9590 -0.7533  0.6996
31205SOL    HW211226  13.447   4.925   4.884  1.4283  0.4612  1.6651
31206SOL     OW11227   4.462   5.565   1.526 -0.0512 -0.2522  0.0302
31206SOL    HW111228   4.503   5.485   1.558  2.3621  1.1605  0.7729
31206SOL    HW211229   4.377   5.568   1.569  0.3421 -1.7728  0.9890
31207SOL     OW11230   9.318   4.614   1.651  0.4534  0.2392  0.3875
31207SOL    HW111231   9.389   4.614   1.587  0.8317 -1.5732  0.7653
31207SOL    HW211232   9.347   4.675   1.719  0.8610  0.8030 -0.2755
31208SOL     OW11233  10.403  12.113   5.027 -0.0275 -0.0279 -0.1418
31208SOL    HW111234  10.428  12.203   5.007  0.7154  0.2360  1.7406
31208SOL    HW211235  10.314  12.120   5.063  1.1659  0.5011  3.0929
31209SOL     OW11236   7.897   3.026   2.022 -0.5018 -0.3742  0.3907
31209SOL    HW111237   7.925   2.967   1.952 -2.4865 -1.3171  0.2990
31209SOL    HW211238   7.927   3.112   1.995  1.3272 -1.1332 -0.1377
31210SOL     OW11239   5.095   2.961   1.669  0.3574  0.4224 -0.3599
31210SOL    HW111240   5.147   3.039   1.687  1.0616 -0.3086  0.8418
31210SOL    HW211241   5.076   2.967   1.575  1.8696  1.1514 -0.6554
31211SOL     OW11242  13.241   8.742  11.275  0.1419 -0.3306  0.0874
31211SOL    HW111243  13.274   8.775  11.358  0.9118 -1.0429  0.0769
31211SOL    HW211244  13.233   8.647  11.288 -1.7321 -0.2041  0.0164
31212SOL     OW11245   3.633   3.400   2.176  0.5460  0.5396 -0.0646
31212SOL    HW111246   3.683   3.466   2.129 -0.3567  0.6737 -0.8602
31212SOL    HW211247   3.691   3.372   2.247  1.3955  1.3185 -0.4352
31213SOL     OW11248   7.849   1.719   3.633 -0.3280  0.4257 -0.1281
31213SOL    HW111249   7.931   1.728   3.680  1.0099  0.7212 -2.3974
31213SOL    HW211250   7.834   1.804   3.593 -1.3737  0.1610 -0.3321
31214SOL     OW11251   1.113   4.629   2.028 -0.1121  0.4754  0.0478
31214SOL    HW111252   1.139   4.719   2.046 -0.5537  0.4236  1.0187
31214SOL    HW211253   1.195   4.581   2.014  0.1118  1.0669 -0.7577
31215SOL     OW11254  11.850   1.895   2.079  0.3332 -0.1648 -0.0510
31215SOL    HW111255  11.892   1.812   2.099  0.9212 -0.9061 -3.7161
31215SOL    HW211256  11.756   1.879   2.093  0.6652 -0.3112  2.4622
31216SOL     OW11257  12.706  11.051   0.706 -0.1877  0.2038  0.1804
31216SOL    HW111258  12.797  11.079   0.714 -0.5306  0.9798  1.8987
31216SOL    HW211259  12.704  10.994   0.629  2.3562 -2.1882  1.6994
31217SOL     OW11260   7.674   0.997   7.676 -0.3493 -0.1562  0.2855
31217SOL    HW111261   7.620   0.936   7.726  0.0096 -0.2463  0.5634
31217SOL    HW211262   7.757   1.000   7.722 -0.5096  0.8822  0.5300
31218SOL     OW11263   4.808   8.188   6.107  0.1119 -0.4975 -0.2216
31218SOL    HW111264   4.822   8.172   6.200 -0.8232 -0.4319 -0.0600
31218SOL    HW211265   4.777   8.278   6.102 -1.1821 -0.9255 -0.4347
31219SOL     OW11266   7.254  10.836   4.408  0.2121 -0.2503  0.7777
31219SOL    HW111267   7.315  10.784   4.460  0.9593 -2.3366 -1.9872
31219SOL    HW211268   7.172  10.786   4.410  0.1361 -0.1474  0.2561
31220SOL     OW11269   0.251   8.777   5.687 -0.2153  0.0760 -1.0095
31220SOL    HW111270   0.171   8.760   5.638  0.2680 -1.4956 -1.3048
31220SOL    HW211271   0.310   8.706   5.663  0.9124  0.6244 -0.0054
31221SOL     OW11272   6.025   9.171   0.675  0.6002  0.2474 -0.0512
31221SOL    HW111273   5.969   9.096   0.656  1.7241 -0.6347  0.0458
31221SOL    HW211274   5.964   9.240   0.703 -0.2449 -1.6893  3.3645
31222SOL     OW11275   9.795   5.672   1.802  0.1851 -0.1740  0.2004
31222SOL    HW111276   9.701   5.654   1.794  0.0462  1.0546 -1.6213
31222SOL    HW211277   9.799   5.766   1.822  1.0243  0.0824 -1.0569
31223SOL     OW11278  13.105   8.486  11.380 -0.0776 -0.1893 -0.1980
31223SOL    HW111279  13.087   8.397  11.409 -2.1482 -0.2077 -1.3592
31223SOL    HW211280  13.057   8.541  11.442  0.8201  0.1193  0.2414
31224SOL     OW11281   2.547   4.329   1.238 -0.4814 -0.0473 -0.0093
31224SOL    HW111282   2.626   4.277   1.225  0.9137  1.9281  0.1289
31224SOL    HW211283   2.530   4.368   1.152 -0.2184  0.9558  0.3803
31225SOL     OW11284  10.425  11.305   3.917 -0.0705 -0.3732  0.5652
31225SOL    HW111285  10.375  11.355   3.981 -1.8359  0.0044 -0.9981
31225SOL    HW211286  10.464  11.234   3.967  1.5375  1.8203  2.6422
31226SOL     OW11287   4.191   6.666   6.613  0.2259  0.4583  1.1212
31226SOL    HW111288   4.136   6.654   6.690  0.3109 -0.2461  1.0743
31226SOL    HW211289   4.200   6.579   6.575 -1.2203  1.0063 -0.6664
31227SOL     OW11290  13.644  12.351   6.272  0.3677 -0.6508 -0.0002
31227SOL    HW111291  13.683  12.388   6.193  1.4552  1.8901  1.6134
31227SOL    HW211292  13.597  12.425   6.312  0.2829 -1.7275  1.9946
31228SOL     OW11293   0.323  13.126   5.876 -0.2357 -0.9326 -0.3399
31228SOL    HW111294   0.284  13.048   5.838 -1.7779  0.5595 -1.9948
31228SOL    HW211295   0.331  13.187   5.803  0.9357  0.4607  0.8943
31229SOL     OW11296   1.061   9.434   1.735  0.0827  0.0637 -0.3639
31229SOL    HW111297   1.043   9.348   1.696  1.4738 -0.3778 -0.0598
31229SOL    HW211298   0.995   9.443   1.804  0.2524 -0.9986 -0.0456
31230SOL     OW11299  10.972  10.792   3.471 -0.0806 -0.0680  0.1767
31230SOL    HW111300  11.005  10.724   3.529 -1.2518 -1.0282 -0.2370
31230SOL    HW211301  10.985  10.758   3.382  1.0078  1.0589 -0.1342
31231SOL     OW11302   0.430   4.605   1.399  0.5133  0.5557 -0.1897
31231SOL    HW111303   0.387   4.623   1.315 -0.2125  2.1233  0.4698
31231SOL    HW211304   0.358   4.591   1.460  1.0412 -1.8495 -0.0184
31232SOL     OW11305   1.500   8.164   8.846 -0.0365 -0.1109 -0.5302
31232SOL    HW111306   1.483   8.252   8.813  1.1008  0.2537 -0.1901
31232SOL    HW211307   1.445   8.155   8.923  0.0234  0.3854 -0.4313
31233SOL     OW11308   6.496   6.277   2.608  0.3450 -0.2921  0.1391
31233SOL    HW111309   6.513   6.232   2.525  0.1217  0.9459 -0.5942
31233SOL    HW211310   6.405   6.256   2.628 -0.1934  0.8899 -0.9104
31234SOL     OW11311   7.625   0.305   7.421  0.7635  0.1204  0.0873
31234SOL    HW111312   7.684   0.255   7.477  1.3485 -2.4832 -2.6092
31234SOL    HW211313   7.546   0.251   7.414  1.2745 -0.3878 -2.6536
31235SOL     OW11314   9.855   7.108   2.782 -0.2836 -0.0452  1.0216
31235SOL    HW111315   9.922   7.094   2.850 -0.1052 -2.1899  0.4914
31235SOL    HW211316   9.905   7.133   2.705 -0.1563 -0.6785  0.8879
31236SOL     OW11317  10.209   7.175   3.189 -0.3002  0.1487  0.6590
31236SOL    HW111318  10.292   7.190   3.143 -0.4517 -0.2724  0.2462
31236SOL    HW211319  10.207   7.243   3.257  0.7582 -0.3362  1.2069
31237SOL     OW11320  10.531  11.148  14.084  0.0652  0.1344 -0.4521
31237SOL    HW111321  10.461  11.205  14.052 -1.2161 -2.1724 -2.0092
31237SOL    HW211322  10.605  11.166  14.026 -1.0586 -1.3327 -2.4541
31238SOL     OW11323  10.209   8.048   0.510  0.1971  0.6171 -0.5301
31238SOL    HW111324  10.188   8.072   0.420 -0.6251  1.3464 -0.1644
31238SOL    HW211325  10.304   8.059   0.517  0.2308  0.8062 -1.2364
31239SOL     OW11326   7.377   5.656   7.053 -0.7357 -0.5525 -0.8272
31239SOL    HW111327   7.378   5.563   7.031 -0.6315 -1.2235  1.7188
31239SOL    HW211328   7.286   5.683   7.041 -0.5535 -0.6242 -2.7024
31240SOL     OW11329   4.141   6.049   5.125 -0.2340  1.0436  0.7777
31240SOL    HW111330   4.153   5.955   5.115  1.3907  1.2772  0.2446
31240SOL    HW211331   4.129   6.062   5.219  0.2527  0.3725  0.9399
31241SOL     OW11332   4.605  11.439   8.082  0.4736 -0.0722 -0.0398
31241SOL    HW111333   4.640  11.526   8.063 -0.3082 -0.2178 -2.5852
31241SOL    HW211334   4.513  11.454   8.103  0.8304 -0.1235  1.6195
31242SOL     OW11335  10.883   3.333   4.448 -0.0337 -0.4704 -0.3228
31242SOL    HW111336  10.968   3.345   4.405  0.1857  0.2618  0.2795
31242SOL    HW211337  10.878   3.240   4.467  0.3711 -0.6138 -0.9101
31243SOL     OW11338  13.947   1.320   8.523  0.2119  0.0616  0.2636
31243SOL    HW111339  14.007   1.335   8.596  0.0421  1.0590  0.2261
31243SOL    HW211340  13.992   1.359   8.447 -0.2035  0.2583  0.1157
31244SOL     OW11341   0.543   7.410  10.010  0.1999 -0.3598 -0.0642
31244SOL    HW111342   0.619   7.405   9.952  0.9923 -1.7311  1.0350
31244SOL    HW211343   0.504   7.495   9.990  1.2971 -0.1485 -1.5285
31245SOL     OW11344   1.434  11.636   2.446  0.0326 -0.0754 -0.4671
31245SOL    HW111345   1.481  11.704   2.397  1.8414  0.4641  1.8313
31245SOL    HW211346   1.371  11.684   2.499  2.1087  0.1212  2.0566
31246SOL     OW11347   3.072   7.941   7.066  0.2063  0.0327  0.1483
31246SOL    HW111348   3.167   7.930   7.061  0.2116  0.1525  0.0111
31246SOL    HW211349   3.053   7.937   7.160  0.2038 -1.2589  0.1109
31247SOL     OW11350  10.291   0.454  12.843  0.1055  0.4037  0.8307
31247SOL    HW111351  10.253   0.429  12.758  1.5429 -1.4298  0.6435
31247SOL    HW211352  10.230   0.517  12.880 -1.4440 -0.0572 -0.8166
31248SOL     OW11353  11.113   9.679   4.872 -0.5883 -0.2868  0.3776
31248SOL    HW111354  11.030   9.630   4.870 -0.9702  0.3451 -0.5867
31248SOL    HW211355  11.162   9.643   4.945 -1.6590 -0.7927  0.8587
31249SOL     OW11356   8.506  10.204   3.084  0.2454 -0.4069 -0.1459
31249SOL    HW111357   8.475  10.204   2.994 -0.7780  1.9576  0.1414
31249SOL    HW211358   8.560  10.283   3.091 -0.5554  0.0297  1.5757
31250SOL     OW11359  12.092   6.851   4.674  0.0149  0.0697 -0.0510
31250SOL    HW111360  12.093   6.899   4.591 -1.6400 -0.6482 -0.5137
31250SOL    HW211361  12.144   6.773   4.657 -0.9206 -0.4364 -0.6612
31251SOL     OW11362   1.368   6.112  12.235 -0.3916  0.0151  0.0339
31251SOL    HW111363   1.461   6.127  12.254 -0.9730  1.2980  2.2460
31251SOL    HW211364   1.333   6.072  12.315 -2.1203  1.3552  0.0145
31252SOL     OW11365  13.466   3.929  12.336 -0.0823  0.0820  0.1121
31252SOL    HW111366  13.444   3.902  12.246  0.8251  1.4247 -0.5530
31252SOL    HW211367  13.558   3.905  12.346  0.2599  1.3171  0.1065
31253SOL     OW11368   1.070   6.737   3.937 -0.2917  0.0235  0.3966
31253SOL    HW111369   1.136   6.712   4.001  1.0484 -0.8732 -1.2665
31253SOL    HW211370   0.999   6.675   3.950  0.4062 -0.7988  0.3501
31254SOL     OW11371  10.908   0.369   1.934 -0.0350 -0.1480 -0.0402
31254SOL    HW111372  10.896   0.410   1.848  1.0563  0.0012 -0.1375
31254SOL    HW211373  10.980   0.418   1.974 -0.5886 -0.1619  1.0031
31255SOL     OW11374   5.767   1.773   1.254 -0.0482  0.2188 -0.6310
31255SOL    HW111375   5.697   1.709   1.244 -2.0790  1.8799  1.4793
31255SOL    HW211376   5.737   1.849   1.204  0.7069  0.6201 -0.4904
31256SOL     OW11377   6.314   9.124   5.942 -0.5740 -0.2717 -0.6584
31256SOL    HW111378   6.240   9.165   5.896 -0.2254  2.3842  0.9297
31256SOL    HW211379   6.391   9.169   5.907 -0.0901 -0.0991  0.6003
31257SOL     OW11380   5.243  12.746   3.663  0.1332  0.1851 -0.8136
31257SOL    HW111381   5.175  12.795   3.618  0.8558  0.0964 -2.0416
31257SOL    HW211382   5.230  12.766   3.756 -1.8643 -0.2365 -0.9592
31258SOL     OW11383   6.925   3.130   8.146  0.3521  0.3398  0.3660
31258SOL    HW111384   6.994   3.067   8.169  1.0308  1.4872  1.5993
31258SOL    HW211385   6.962   3.215   8.168 -1.4956  0.9919  1.1212
31259SOL     OW11386   8.435   6.904   8.609  0.5639  0.8575  0.0632
31259SOL    HW111387   8.465   6.844   8.541  0.8999 -0.1663  1.0945
31259SOL    HW211388   8.365   6.857   8.654  0.9282  1.1725  0.9799
31260SOL     OW11389   7.381   3.510   5.733 -0.1294 -0.6017  0.1843
31260SOL    HW111390   7.402   3.427   5.776 -1.6787 -0.7308  0.7378
31260SOL    HW211391   7.295   3.495   5.693 -1.4175  1.3551  2.0375
31261SOL     OW11392   2.360  10.566  13.582 -0.6246 -0.3237  0.0886
31261SOL    HW111393   2.306  10.616  13.643 -1.3864 -1.6664  0.5363
31261SOL    HW211394   2.330  10.594  13.495 -0.2480  0.8178  0.2983
31262SOL     OW11395  12.821   8.643  13.753  0.5108  0.0363  0.5153
31262SOL    HW111396  12.806   8.554  13.786 -0.7017  0.0286 -0.0117
31262SOL    HW211397  12.839   8.632  13.660  2.0827  0.2240  0.7563
31263SOL     OW11398  10.621   9.763  10.015 -0.2912  0.4555  0.5403
31263SOL    HW111399  10.609   9.748  10.109 -0.2544 -3.0417  0.1097
31263SOL    HW211400  10.539   9.734   9.975  0.2578  0.4543 -0.6272
31264SOL     OW11401   8.473   2.248   7.571  0.4317 -0.3089 -0.0252
31264SOL    HW111402   8.474   2.335   7.611  0.4865  0.4874 -1.6488
31264SOL    HW211403   8.439   2.190   7.639 -2.0254  1.3911  0.3236
31265SOL     OW11404  12.232  10.741  10.208  0.3292 -0.3456 -0.0495
31265SOL    HW111405  12.157  10.788  10.172 -1.2173 -2.3939  0.3230
31265SOL    HW211406  12.278  10.707  10.131  0.3710  0.1816 -0.2579
31266SOL     OW11407  13.223   7.322   6.573  0.1967 -0.0145  0.1336
31266SOL    HW111408  13.182   7.373   6.503  1.2518 -1.2964 -1.4871
31266SOL    HW211409  13.273   7.254   6.528  2.4512  0.2163  2.0849
31267SOL     OW11410   3.414   6.292   0.336  0.5412  0.8083 -0.1333
31267SOL    HW111411   3.333   6.243   0.324  0.9701 -0.1518  0.7965
31267SOL    HW211412   3.448   6.306   0.247  0.9847 -1.5683 -0.3976
31268SOL     OW11413   7.431   1.056   9.667 -0.5915  0.3574  0.6776
31268SOL    HW111414   7.497   1.123   9.684 -2.1634  1.8942  1.0142
31268SOL    HW211415   7.355   1.085   9.717 -1.2375 -1.8572  1.0530
31269SOL     OW11416   1.571  12.185  12.121  0.8206  0.0838  0.1305
31269SOL    HW111417   1.619  12.264  12.096 -0.2267  1.3730  1.8936
31269SOL    HW211418   1.548  12.200  12.213 -2.5160 -0.6471 -0.4626
31270SOL     OW11419   8.484   8.790  12.924 -0.3838 -0.7333  0.0701
31270SOL    HW111420   8.543   8.854  12.883  0.0623 -0.9511  0.3596
31270SOL    HW211421   8.397   8.815  12.894 -0.0206 -1.2814 -1.5435
31271SOL     OW11422  11.280   2.138   8.130 -0.0021  0.3025 -0.4122
31271SOL    HW111423  11.211   2.078   8.160  0.4341  1.0880  2.5168
31271SOL    HW211424  11.233   2.215   8.099 -0.5117  0.6482  1.1236
31272SOL     OW11425   8.841  10.914   5.385  0.4417  0.2295  0.8644
31272SOL    HW111426   8.807  10.873   5.464 -0.0383  1.7493  1.4725
31272SOL    HW211427   8.810  11.004   5.389 -0.7435  0.0111 -1.7282
31273SOL     OW11428   8.189   1.582  11.810  0.5179  0.2096  0.3073
31273SOL    HW111429   8.260   1.521  11.788  1.6055  0.2591  3.2564
31273SOL    HW211430   8.234   1.663  11.835 -0.6515  0.6911  0.9058
31274SOL     OW11431   7.570  10.830  13.162  0.2642 -0.0375  0.1601
31274SOL    HW111432   7.481  10.808  13.188  0.3627  0.7805  1.2313
31274SOL    HW211433   7.601  10.752  13.115 -0.5731 -0.8091  0.8559
31275SOL     OW11434   7.708  11.364   4.348  0.5606 -0.1485  0.0960
31275SOL    HW111435   7.764  11.316   4.409  0.3013 -1.1155 -0.4194
31275SOL    HW211436   7.619  11.351   4.381  0.4991  0.1207  0.0439
31276SOL     OW11437   0.428   8.922  10.019 -0.4956  0.3546  0.4751
31276SOL    HW111438   0.475   8.883   9.945 -0.2087 -1.7055  1.6404
31276SOL    HW211439   0.337   8.927   9.990 -0.6938 -2.0145  0.4838
31277SOL     OW11440   7.922   2.481   3.910  0.2509 -0.1540  0.0460
31277SOL    HW111441   7.965   2.556   3.951 -0.5486  1.8404 -2.4828
31277SOL    HW211442   7.993   2.420   3.891  0.9787  0.0601  1.8496
31278SOL     OW11443  12.562   1.168   2.842  0.3944  0.2659 -0.3536
31278SOL    HW111444  12.592   1.111   2.771 -0.6847 -0.6132 -0.1391
31278SOL    HW211445  12.594   1.125   2.922  3.0166  2.1006 -0.3046
31279SOL     OW11446  12.829  11.103   1.959 -0.3206 -0.1228  0.1022
31279SOL    HW111447  12.823  11.041   1.886 -1.0266  0.6261 -0.4929
31279SOL    HW211448  12.854  11.049   2.034 -0.4371 -1.0476 -0.5087
31280SOL     OW11449   3.343   7.593   3.516  0.5254 -0.0406  0.1240
31280SOL    HW111450   3.335   7.562   3.606 -0.2629  0.2897  0.1704
31280SOL    HW211451   3.305   7.681   3.517 -2.0532 -1.0598 -1.0828
31281SOL     OW11452  13.725   9.730   5.660 -0.7638 -0.1153 -0.4288
31281SOL    HW111453  13.797   9.737   5.723 -0.4910  1.3507 -0.8534
31281SOL    HW211454  13.664   9.668   5.700 -0.6991  0.9413  1.4172
31282SOL     OW11455  13.921   9.509   4.747  0.6791  0.1299 -0.6337
31282SOL    HW111456  13.934   9.573   4.817 -1.3422 -0.0663 -0.0085
31282SOL    HW211457  13.985   9.533   4.680  3.8792 -0.6706  1.8829
31283SOL     OW11458  13.706   8.636   5.972 -0.7335  0.9130  0.1583
31283SOL    HW111459  13.624   8.608   6.013 -0.5961 -0.2301 -0.3273
31283SOL    HW211460  13.679   8.700   5.906 -1.0949  1.5811  0.9303
31284SOL     OW11461  13.455   4.183   5.375 -0.2087  0.2701 -0.0681
31284SOL    HW111462  13.443   4.267   5.332  1.8865  0.7360  0.1611
31284SOL    HW211463  13.415   4.194   5.461 -0.2703  0.9055 -0.1741
31285SOL     OW11464  13.743   9.912  13.020 -0.3736  0.2006 -0.1392
31285SOL    HW111465  13.760   9.819  13.004 -2.3412 -0.3655  0.7458
31285SOL    HW211466  13.796   9.958  12.955 -2.1096 -1.6650 -3.1045
31286SOL     OW11467   9.643   3.334   9.720  0.0247  0.1232 -0.0103
31286SOL    HW111468   9.713   3.398   9.711  0.5914 -0.5943 -0.9276
31286SOL    HW211469   9.666   3.282   9.797 -0.7777  1.4072  1.1282
31287SOL     OW11470  12.755  12.617   2.446 -0.3036  0.0399 -0.5041
31287SOL    HW111471  12.680  12.633   2.503 -0.9455  0.3425 -1.4195
31287SOL    HW211472  12.773  12.701   2.404 -0.0375 -0.2472 -0.9872
31288SOL     OW11473   6.942   1.294  11.832  0.4877  0.1164  0.4592
31288SOL    HW111474   6.879   1.238  11.877 -0.4622 -0.1491 -1.1339
31288SOL    HW211475   7.026   1.275  11.875 -0.2765 -0.4692  1.7653
31289SOL     OW11476   1.204   9.976   7.290  0.0807  0.3150  0.6888
31289SOL    HW111477   1.239  10.016   7.370  0.1603  0.7471  0.4385
31289SOL    HW211478   1.154   9.900   7.321 -0.3697  0.8085  1.2045
31290SOL     OW11479   4.649   0.958   7.636  0.0286 -0.0371  0.6274
31290SOL    HW111480   4.632   0.920   7.723 -1.3503  0.3987  0.5765
31290SOL    HW211481   4.582   0.919   7.580 -0.2692  1.0671  0.1786
31291SOL     OW11482   9.566   1.002   4.350  0.1373  0.1273  0.4018
31291SOL    HW111483   9.478   0.965   4.354  0.1086  0.3025  1.9870
31291SOL    HW211484   9.608   0.955   4.278 -1.0634 -0.3480 -0.0225
31292SOL     OW11485   1.527   4.780   5.723  0.0355  0.0324 -0.3215
31292SOL    HW111486   1.544   4.687   5.707  0.8245 -0.2455  1.7791
31292SOL    HW211487   1.607   4.812   5.765 -0.2484  1.6628 -0.9708
31293SOL     OW11488   2.105   5.852   1.117 -0.4710  0.0693 -0.3832
31293SOL    HW111489   2.029   5.911   1.116 -0.3549  0.2133 -0.5335
31293SOL    HW211490   2.131   5.849   1.209  0.0593  0.9320 -0.4991
31294SOL     OW11491   8.168   2.896   4.762 -0.8262 -0.0544  0.6904
31294SOL    HW111492   8.137   2.832   4.827 -1.3890 -3.4558 -2.5523
31294SOL    HW211493   8.263   2.900   4.777 -0.8947 -0.9951  1.5220
31295SOL     OW11494   3.080   4.231  13.799 -0.3378 -0.3411  0.0875
31295SOL    HW111495   3.119   4.193  13.878  0.5006 -1.2280 -0.7279
31295SOL    HW211496   3.018   4.164  13.769 -1.2745  0.3488  0.4408
31296SOL     OW11497  12.126   5.554   2.712  0.2843 -0.1972  0.1988
31296SOL    HW111498  12.062   5.608   2.759  0.5385  2.1399 -1.9518
31296SOL    HW211499  12.209   5.574   2.755  0.7861  3.1846 -1.9964
31297SOL     OW11500   0.100   2.249  10.149 -0.1299  0.7884 -0.0544
31297SOL    HW111501   0.131   2.332  10.115  0.6656  0.9696  1.0364
31297SOL    HW211502   0.174   2.190  10.141  0.1609  0.8965  1.4886
31298SOL     OW11503  11.566   0.586   2.009  0.6696  0.1705 -0.5344
31298SOL    HW111504  11.523   0.543   2.083  0.4931 -1.1890 -1.3974
31298SOL    HW211505  11.505   0.655   1.983  0.5633  0.4244  0.3378
31299SOL     OW11506  11.849  10.010   0.230  0.6066  0.1133 -0.7739
31299SOL    HW111507  11.855   9.925   0.274  1.9350 -0.7060 -2.3974
31299SOL    HW211508  11.853   9.988   0.137  1.8890  2.0120 -1.2107
31300SOL     OW11509   7.506   4.842   5.561  0.4450 -0.0041 -0.2969
31300SOL    HW111510   7.557   4.763   5.546  0.8346 -0.1087  1.3717
31300SOL    HW211511   7.537   4.875   5.645 -0.9483  0.9449 -0.1211
31301SOL     OW11512   3.814   8.911   2.347  1.1945  0.8014 -0.1130
31301SOL    HW111513   3.856   8.833   2.312  0.6641 -0.1356  1.2998
31301SOL    HW211514   3.830   8.909   2.441 -0.0539  1.6139  0.1565
31302SOL     OW11515   8.894  12.030   7.733 -0.5422 -0.3397 -0.7022
31302SOL    HW111516   8.923  12.053   7.645 -1.2189 -0.6636 -1.0151
31302SOL    HW211517   8.845  11.949   7.722  0.0030 -0.7933  0.0816
31303SOL     OW11518   0.577   3.840  11.485 -0.0435 -0.8032 -0.0392
31303SOL    HW111519   0.601   3.756  11.523 -0.0382  0.2579  2.5109
31303SOL    HW211520   0.659   3.875  11.450 -0.1164 -1.9574 -1.4755
31304SOL     OW11521   5.423   1.666   8.354  0.3305  0.1811 -0.0354
31304SOL    HW111522   5.397   1.719   8.278 -1.7314 -0.2164  0.3246
31304SOL    HW211523   5.389   1.578   8.334 -0.2634  0.0764  1.3268
31305SOL     OW11524   0.387   2.458   6.131 -0.4411 -0.1427 -0.2831
31305SOL    HW111525   0.329   2.391   6.094 -2.2032  0.5536  1.0583
31305SOL    HW211526   0.439   2.412   6.196  0.1943 -0.6813 -1.1486
31306SOL     OW11527   3.482  10.981   6.442  0.1310  0.1824  0.1784
31306SOL    HW111528   3.549  10.940   6.497 -0.4025 -0.6611  0.2117
31306SOL    HW211529   3.516  11.069   6.426  0.6449  0.1929  1.2345
31307SOL     OW11530   6.127  13.432   2.279 -0.1395 -0.1748 -0.1486
31307SOL    HW111531   6.106  13.404   2.368  0.1703 -1.3587 -0.4339
31307SOL    HW211532   6.222  13.441   2.278 -0.0013 -1.4828 -0.7067
31308SOL     OW11533  10.556   7.810   9.778 -0.1510  0.0927 -0.1085
31308SOL    HW111534  10.616   7.761   9.834  0.5259  0.5161 -0.4511
31308SOL    HW211535  10.528   7.884   9.832 -1.2654 -0.7083  0.4511
31309SOL     OW11536   5.872   9.768   1.435 -0.0206 -0.6465 -0.3795
31309SOL    HW111537   5.927   9.821   1.376 -0.8484  0.8232  0.1475
31309SOL    HW211538   5.915   9.775   1.520 -1.1743  0.7851  0.1090
31310SOL     OW11539   7.410  11.963   1.852 -0.3222 -0.0807  0.1367
31310SOL    HW111540   7.502  11.936   1.850 -0.3946 -0.5652  1.8245
31310SOL    HW211541   7.390  11.972   1.946 -1.3705  2.1806 -0.2328
31311SOL     OW11542   0.578  12.839   2.888 -0.4259  0.0991  0.1195
31311SOL    HW111543   0.627  12.918   2.911  0.4520 -0.0330 -1.1799
31311SOL    HW211544   0.496  12.871   2.851 -2.4066  0.3253  4.1631
31312SOL     OW11545  10.806  11.153   0.938 -0.1130 -0.2925 -0.9696
31312SOL    HW111546  10.867  11.121   1.005 -1.4204 -1.2813 -0.2126
31312SOL    HW211547  10.850  11.230   0.902  1.7980 -1.2408 -0.8015
31313SOL     OW11548   6.281   1.853  11.202 -0.0627 -0.2652 -0.6473
31313SOL    HW111549   6.312   1.910  11.272 -0.3930 -1.7999  0.8052
31313SOL    HW211550   6.188   1.871  11.194 -0.1034 -0.3689 -0.4068
31314SOL     OW11551  12.474   9.516  13.017 -0.1499 -0.0144 -0.7003
31314SOL    HW111552  12.482   9.609  12.998  0.1130  0.1629  0.2463
31314SOL    HW211553  12.380   9.498  13.011 -0.3653  0.6263  0.5054
31315SOL     OW11554  14.041   0.319   5.983 -0.0269 -0.4791 -0.3243
31315SOL    HW111555  14.004   0.239   5.946  0.5617 -0.9546  0.1127
31315SOL    HW211556  13.971   0.384   5.972 -1.3560 -1.5449  1.2576
31316SOL     OW11557   0.623   7.018   7.131  0.5537  0.0626  0.4741
31316SOL    HW111558   0.660   7.027   7.043  0.2262 -1.7901  0.1041
31316SOL    HW211559   0.561   7.091   7.139  0.7647  0.3947 -0.7404
31317SOL     OW11560   4.297   2.570   1.797 -0.3061  0.3525 -0.1032
31317SOL    HW111561   4.272   2.530   1.714  0.0617  1.6571 -0.8754
31317SOL    HW211562   4.250   2.654   1.798  0.8109  0.9894  0.3303
31318SOL     OW11563  12.789  13.081   6.244  0.7240  0.4790  0.3102
31318SOL    HW111564  12.862  13.086   6.306 -0.6679 -0.2224  2.1298
31318SOL    HW211565  12.733  13.154   6.268 -0.6410 -0.7514  1.0436
31319SOL     OW11566   1.502   8.328  10.620 -0.4846  0.5357  0.4143
31319SOL    HW111567   1.570   8.299  10.560 -1.8194  0.4085 -1.0770
31319SOL    HW211568   1.550   8.365  10.694  1.2071 -1.1154  0.2015
31320SOL     OW11569   5.340   1.124   6.789 -0.0185  0.4498 -0.3265
31320SOL    HW111570   5.386   1.067   6.727 -1.0075 -2.1915  1.2364
31320SOL    HW211571   5.404   1.140   6.859 -0.3809 -0.5202  0.2469
31321SOL     OW11572  12.728   7.637   3.496  0.5730  0.0164 -0.4781
31321SOL    HW111573  12.645   7.614   3.539  0.8271  1.6759  1.0343
31321SOL    HW211574  12.747   7.725   3.527  3.1850 -0.5077 -0.3648
31322SOL     OW11575   5.811   8.022   5.483 -0.1335 -0.1406  0.6374
31322SOL    HW111576   5.836   7.995   5.572  0.0642  0.4795  0.7730
31322SOL    HW211577   5.838   8.113   5.478 -1.5605  0.2860  0.4699
31323SOL     OW11578  12.561   5.736  10.112  0.2382  0.0685  0.5843
31323SOL    HW111579  12.489   5.749  10.050  1.0197 -0.6786 -0.5234
31323SOL    HW211580  12.595   5.649  10.092  0.4359 -0.2627  2.1742
31324SOL     OW11581   8.234   9.594  13.437 -0.2173  0.1832  0.0491
31324SOL    HW111582   8.300   9.570  13.501  2.0692  0.8224 -1.9243
31324SOL    HW211583   8.204   9.681  13.464  1.7098  1.0432 -0.3907
31325SOL     OW11584   9.251  10.402  11.277 -0.0577  0.4389 -0.2779
31325SOL    HW111585   9.190  10.351  11.330 -0.8349  1.7396  0.1260
31325SOL    HW211586   9.270  10.479  11.330 -0.0529  1.2713 -1.4554
31326SOL     OW11587   2.299   6.889  11.574  0.5985 -1.0511 -0.6897
31326SOL    HW111588   2.307   6.974  11.532  0.0157 -0.6651 -0.0327
31326SOL    HW211589   2.387   6.850  11.567  1.2084  0.1291  0.1148
31327SOL     OW11590   8.482  12.521   2.895 -0.4153  0.4614 -0.7122
31327SOL    HW111591   8.471  12.428   2.875 -2.8083  0.7026 -0.7323
31327SOL    HW211592   8.552  12.550   2.836 -1.3117 -0.7892 -2.4862
31328SOL     OW11593   7.421   9.830   0.649  0.0425 -0.7879  0.4195
31328SOL    HW111594   7.353   9.763   0.639 -0.6534  0.0613 -0.8313
31328SOL    HW211595   7.394   9.880   0.726 -0.7334 -0.5195 -0.0063
31329SOL     OW11596  10.343  10.607  10.582 -0.2561 -0.2615  0.8352
31329SOL    HW111597  10.293  10.528  10.562 -0.7865  0.2731 -0.0455
31329SOL    HW211598  10.340  10.615  10.677 -3.5732  0.8210  0.7597
31330SOL     OW11599  12.226  13.675  10.659  0.0233  0.2519 -0.0641
31330SOL    HW111600  12.248  13.587  10.689 -3.6662 -0.9913 -0.4916
31330SOL    HW211601  12.262  13.733  10.726  2.1235 -1.5562  0.4873
31331SOL     OW11602  10.806   5.291  11.085  0.1876 -0.1244 -0.6516
31331SOL    HW111603  10.787   5.382  11.111  0.9114  0.0465 -0.6858
31331SOL    HW211604  10.735   5.267  11.026  1.2656  1.2776 -2.6329
31332SOL     OW11605   3.542   2.785   7.608 -0.3897 -0.2151  0.0249
31332SOL    HW111606   3.451   2.757   7.593 -0.6122  0.3047  0.3488
31332SOL    HW211607   3.577   2.719   7.668 -0.7274 -0.1319  0.3254
31333SOL     OW11608  12.145   7.893  13.276 -0.3282 -0.1942 -0.1980
31333SOL    HW111609  12.108   7.858  13.195  1.1834  0.2240 -1.1001
31333SOL    HW211610  12.069   7.929  13.323 -1.2936 -0.8731 -1.1899
31334SOL     OW11611   6.998   5.534   0.137 -0.3888  0.1496 -0.1227
31334SOL    HW111612   6.985   5.480   0.058 -0.4777  0.9820 -0.6852
31334SOL    HW211613   6.998   5.624   0.105  0.3287  0.4665  0.7411
31335SOL     OW11614   8.134  11.528   8.398 -0.1394  0.1653  0.9701
31335SOL    HW111615   8.176  11.613   8.409  0.1273 -0.1669  3.1765
31335SOL    HW211616   8.153  11.482   8.481  0.1488 -2.2271 -0.3249
31336SOL     OW11617   9.641   1.806  10.876  0.4125  0.4677 -0.7585
31336SOL    HW111618   9.668   1.897  10.886 -1.9343  1.0324  1.3236
31336SOL    HW211619   9.546   1.808  10.886  0.4904 -2.5143  2.1466
31337SOL     OW11620   4.690  10.213   3.019 -0.1887  0.4298 -0.1685
31337SOL    HW111621   4.757  10.146   3.031  0.7055  1.2411 -0.5418
31337SOL    HW211622   4.704  10.247   2.931 -1.5622  0.1237 -0.5413
31338SOL     OW11623   1.780   0.318   3.937 -0.4159  0.7672 -0.2169
31338SOL    HW111624   1.830   0.280   4.009 -0.6256  1.2702  0.2014
31338SOL    HW211625   1.754   0.404   3.969 -1.5170  0.5254 -0.4420
31339SOL     OW11626   0.984   9.724   8.930  0.2645  0.5243  0.2716
31339SOL    HW111627   1.049   9.714   8.999  2.5962 -1.6050 -1.9988
31339SOL    HW211628   0.923   9.652   8.943  0.3667  0.4706  0.4501
31340SOL     OW11629  12.763   1.106  10.711  0.1573  0.5742  0.2228
31340SOL    HW111630  12.812   1.072  10.636  1.7856 -0.3778  1.6409
31340SOL    HW211631  12.726   1.189  10.680 -2.3064 -1.4184 -2.7491
31341SOL     OW11632   1.940   1.496  11.296 -0.4447  0.1259  0.1592
31341SOL    HW111633   1.905   1.407  11.291 -0.5042  0.1391  0.3461
31341SOL    HW211634   2.028   1.488  11.259 -0.5653  0.0530 -0.1156
31342SOL     OW11635  11.007   2.003   1.942  0.0055  0.1913  0.0044
31342SOL    HW111636  10.925   1.959   1.920 -0.3035  0.7238  0.0835
31342SOL    HW211637  11.011   2.000   2.037 -0.0386  0.3739  0.0123
31343SOL     OW11638   3.393  11.603   9.692 -0.1484  0.0492 -0.1939
31343SOL    HW111639   3.328  11.659   9.648 -0.9802  1.3298  2.4541
31343SOL    HW211640   3.441  11.662   9.749  0.4583 -1.5783  1.0613
31344SOL     OW11641   3.464   0.337   7.240 -0.0139 -0.4788  0.9446
31344SOL    HW111642   3.437   0.287   7.318  1.0499 -1.1920  0.8729
31344SOL    HW211643   3.552   0.305   7.220  0.2303  0.6033  0.1873
31345SOL     OW11644   2.381  11.648   1.020  0.0067  0.3218 -0.5333
31345SOL    HW111645   2.363  11.596   1.098  1.7797  0.6306  0.1095
31345SOL    HW211646   2.317  11.720   1.024  1.7600  1.8801  2.1333
31346SOL     OW11647  11.709   0.869  11.409 -0.2497  0.6709 -0.2390
31346SOL    HW111648  11.615   0.879  11.393 -0.6621 -0.5490  1.1898
31346SOL    HW211649  11.731   0.941  11.468 -0.3224  0.8274 -0.3996
31347SOL     OW11650  13.841  13.953  10.909 -0.0857 -0.6395  0.3285
31347SOL    HW111651  13.758  13.929  10.868 -0.7753  1.3299  0.4808
31347SOL    HW211652  13.818  13.974  11.000  0.3978  0.7396  0.1602
31348SOL     OW11653   7.263   1.789  14.055  0.4689  0.1334 -0.6059
31348SOL    HW111654   7.354   1.791  14.083 -0.1233  0.0468  1.4945
31348SOL    HW211655   7.245   1.877  14.023  1.3589  0.0511 -1.3788
31349SOL     OW11656   3.987   2.364   5.524  0.2549  0.0846 -0.1695
31349SOL    HW111657   3.939   2.360   5.607  0.3007  3.4291  0.1255
31349SOL    HW211658   3.938   2.427   5.471  1.5547 -0.2163 -1.8001
31350SOL     OW11659   4.934  10.420   0.578 -0.1283  0.4941  0.2368
31350SOL    HW111660   4.993  10.356   0.618  0.6616 -0.0765 -1.7322
31350SOL    HW211661   4.851  10.409   0.624  1.0735  0.8847  2.6709
31351SOL     OW11662   0.340   0.233  14.085  0.4571 -0.2468 -0.0731
31351SOL    HW111663   0.389   0.184  14.151  1.0695 -0.6496 -0.8048
31351SOL    HW211664   0.279   0.169  14.048 -1.0141  0.3843  1.1924
31352SOL     OW11665   7.483  13.584   7.840  0.2189  0.3804  0.1627
31352SOL    HW111666   7.390  13.578   7.819 -0.1607  1.4372  1.4007
31352SOL    HW211667   7.516  13.653   7.783  0.9834 -2.0105 -2.4812
31353SOL     OW11668   9.355  12.043   3.527  0.1478  0.4270  0.4790
31353SOL    HW111669   9.393  12.109   3.469  1.0544  0.5313  1.1753
31353SOL    HW211670   9.340  11.967   3.471  1.4754  0.3533  0.2009
31354SOL     OW11671   4.531   2.852  12.445 -0.3126  0.3236  0.0828
31354SOL    HW111672   4.623   2.835  12.427 -0.3137 -1.7782  1.6707
31354SOL    HW211673   4.495   2.766  12.468 -2.3226  1.3293  0.9255
31355SOL     OW11674   8.426   3.826  12.285  0.2772  0.3788  0.1060
31355SOL    HW111675   8.442   3.893  12.351  0.0366  0.8303 -0.2928
31355SOL    HW211676   8.331   3.817  12.282  0.3401 -0.9572  1.1227
31356SOL     OW11677   2.717  10.958  12.951 -0.7002 -0.2224 -0.2621
31356SOL    HW111678   2.748  10.973  13.040 -2.2963  1.3984  0.0946
31356SOL    HW211679   2.788  10.988  12.895 -1.3382  3.1910  0.5200
31357SOL     OW11680  11.226   5.884   0.771 -0.4526 -0.2853  1.1004
31357SOL    HW111681  11.161   5.921   0.711  0.1341  0.5264  0.9409
31357SOL    HW211682  11.276   5.822   0.718  1.0368  1.5069  0.2788
31358SOL     OW11683  10.855  10.337   4.031  0.2111  0.4416  0.1966
31358SOL    HW111684  10.808  10.301   3.957  1.3164  1.3771 -1.0059
31358SOL    HW211685  10.860  10.265   4.094  0.1602 -0.6984 -1.0671
31359SOL     OW11686   4.812   7.963   4.469  0.0497 -0.2204 -0.7950
31359SOL    HW111687   4.841   7.993   4.556  0.2042 -0.5178 -0.7408
31359SOL    HW211688   4.732   7.914   4.487 -0.8674  1.1422 -1.0166
31360SOL     OW11689  11.959   9.578   2.624 -0.2084 -0.0292 -0.4053
31360SOL    HW111690  11.921   9.642   2.684 -0.4995 -0.5752 -0.0031
31360SOL    HW211691  11.904   9.501   2.633 -1.2149  0.3690 -2.5252
31361SOL     OW11692   6.333  10.784   8.633 -0.7659  0.1463  0.1775
31361SOL    HW111693   6.313  10.692   8.616 -2.2421  0.4714  0.0811
31361SOL    HW211694   6.421  10.782   8.671  0.2522 -1.0924 -2.0487
31362SOL     OW11695  11.279   7.289  11.138 -0.2299  1.0379  0.0935
31362SOL    HW111696  11.216   7.245  11.081  0.1670  0.4764  0.0767
31362SOL    HW211697  11.364   7.263  11.103  0.0477 -0.2510  1.6147
31363SOL     OW11698   9.889   0.079   9.351 -0.0965 -0.0042  0.2742
31363SOL    HW111699   9.951   0.032   9.407  2.4058  1.5415 -1.0326
31363SOL    HW211700   9.812   0.022   9.349  1.5867 -2.5160  1.2282
31364SOL     OW11701   8.454   9.723   3.364  0.1858  0.1914  0.0018
31364SOL    HW111702   8.423   9.759   3.280  0.6246  1.2121  0.2664
31364SOL    HW211703   8.409   9.639   3.371 -0.4914  0.4557 -0.8738
31365SOL     OW11704   2.018  13.919   7.196  0.0222 -0.1960  0.1611
31365SOL    HW111705   2.034  13.980   7.268  0.3349 -0.8181  0.6256
31365SOL    HW211706   1.981  13.841   7.239  0.6776 -0.7613 -0.2892
31366SOL     OW11707   0.041  11.256   1.095 -0.0039  0.4294 -0.9770
31366SOL    HW111708   0.123  11.219   1.129 -0.3837 -0.8155 -1.3533
31366SOL    HW211709   0.059  11.349   1.086  1.3789  0.1831 -1.0360
31367SOL     OW11710   9.638  13.600  10.981 -0.0537 -0.4329  0.0307
31367SOL    HW111711   9.585  13.614  11.060 -0.3826  1.6566 -0.5089
31367SOL    HW211712   9.715  13.654  10.994 -0.6437  0.8529 -1.5334
31368SOL     OW11713   6.657  11.475   9.930  0.2896  0.3544 -0.1117
31368SOL    HW111714   6.660  11.534   9.855  0.7895  1.8451  1.0204
31368SOL    HW211715   6.606  11.522   9.996  1.4531 -0.0651  1.1384
31369SOL     OW11716  12.372   3.933   7.565 -0.2118 -0.0586 -0.0737
31369SOL    HW111717  12.349   4.024   7.585 -3.4182 -1.3396  3.3365
31369SOL    HW211718  12.315   3.909   7.492 -3.1763 -0.5188  2.2021
31370SOL     OW11719   6.096  11.545   5.571  0.0262 -0.8177 -0.1294
31370SOL    HW111720   6.174  11.493   5.550  2.3347  3.4491 -4.0563
31370SOL    HW211721   6.130  11.631   5.594 -3.5631  0.4685  1.0006
31371SOL     OW11722  13.443  12.433  12.839 -0.0488 -0.3085  0.0778
31371SOL    HW111723  13.496  12.366  12.883  0.9623  0.2375 -0.2853
31371SOL    HW211724  13.502  12.508  12.832 -0.1825 -0.3686 -2.1988
31372SOL     OW11725   2.172  11.988  12.145 -0.3141  0.0040 -0.1638
31372SOL    HW111726   2.120  11.977  12.066 -0.2650 -0.3026 -0.1532
31372SOL    HW211727   2.191  11.899  12.174  1.4868  0.0685 -1.0009
31373SOL     OW11728   4.954   9.131   3.185 -0.3277  0.3040  0.6341
31373SOL    HW111729   5.036   9.086   3.164 -0.0569  0.6078  1.0353
31373SOL    HW211730   4.981   9.210   3.233 -0.9722 -1.4266  4.1710
31374SOL     OW11731   0.346   1.984   1.240 -0.7947 -0.1696 -0.2776
31374SOL    HW111732   0.272   1.963   1.298 -0.8958  0.6434 -0.1004
31374SOL    HW211733   0.306   2.028   1.165 -0.5489 -0.2278 -0.4413
31375SOL     OW11734   6.216   9.615   4.103 -0.0774  0.0411 -0.0272
31375SOL    HW111735   6.130   9.581   4.130 -0.3122 -0.6931 -1.5678
31375SOL    HW211736   6.279   9.559   4.149 -0.4251 -0.0317  0.3719
31376SOL     OW11737  13.991   0.690   4.600  0.4890  0.2310 -0.2415
31376SOL    HW111738  14.029   0.685   4.688 -0.8292 -0.1480  0.3334
31376SOL    HW211739  13.991   0.600   4.568 -0.2096  0.1695 -0.0935
31377SOL     OW11740  13.476   4.660   5.030 -0.1622  0.3696 -0.1116
31377SOL    HW111741  13.409   4.594   5.013  1.0302 -0.1787 -3.5168
31377SOL    HW211742  13.437   4.742   5.000 -0.4312  0.6388  0.9458
31378SOL     OW11743  10.202   1.943   4.664  0.2777 -0.1542  0.2629
31378SOL    HW111744  10.278   1.976   4.710  0.3905 -0.7505  0.5159
31378SOL    HW211745  10.168   1.874   4.720 -1.1203  0.8472  0.6981
31379SOL     OW11746  13.462   3.459  10.750  0.5158  0.5136  0.8006
31379SOL    HW111747  13.431   3.549  10.760 -1.8980 -0.2796  1.1448
31379SOL    HW211748  13.498   3.437  10.836  0.3664  0.8809  0.9608
31380SOL     OW11749   8.086  10.369   5.333  0.7603 -0.0737 -0.4049
31380SOL    HW111750   8.011  10.422   5.306 -0.1710 -0.1143  1.9237
31380SOL    HW211751   8.140  10.363   5.254 -0.8754  1.3024 -1.7107
31381SOL     OW11752   4.817  12.734   6.424 -0.0955 -0.1811 -0.0285
31381SOL    HW111753   4.863  12.656   6.394  0.0152  0.3152 -1.1839
31381SOL    HW211754   4.733  12.702   6.455  0.7431 -1.0211  1.5128
31382SOL     OW11755  10.204   5.582   9.797 -0.4451 -0.4222 -0.1442
31382SOL    HW111756  10.240   5.516   9.856 -0.3483  1.1677  1.6761
31382SOL    HW211757  10.183   5.534   9.717  1.2379 -2.3012  0.4611
31383SOL     OW11758   2.401   4.131   8.902  0.0658 -0.1447  0.1348
31383SOL    HW111759   2.409   4.136   8.998  1.5722 -1.2884  0.1138
31383SOL    HW211760   2.421   4.040   8.881  2.1194  0.5861 -1.4361
31384SOL     OW11761   4.421   0.173  10.020  0.0749  0.2567  0.0018
31384SOL    HW111762   4.409   0.213  10.106  0.9048 -0.0684  0.2797
31384SOL    HW211763   4.405   0.080  10.033 -0.0951  0.2482 -0.2580
31385SOL     OW11764  11.651   6.823  11.580  0.2584  0.3827 -0.5968
31385SOL    HW111765  11.670   6.888  11.512 -2.3024  2.5925  0.6423
31385SOL    HW211766  11.599   6.756  11.534 -1.6613  1.9725 -0.9055
31386SOL     OW11767   0.630   6.860  10.259  0.3103 -0.0270  0.4019
31386SOL    HW111768   0.704   6.836  10.315  1.2408 -1.4196 -1.3297
31386SOL    HW211769   0.668   6.915  10.191 -0.4781  0.2651  0.1867
31387SOL     OW11770   2.077   3.454  10.947  0.2178  0.6972  0.4847
31387SOL    HW111771   2.137   3.437  11.020  0.1496  2.0030  0.8629
31387SOL    HW211772   2.001   3.495  10.987 -0.4228  0.1699 -0.1587
31388SOL     OW11773  11.782   0.237  13.627  0.0302  0.2743 -0.4454
31388SOL    HW111774  11.800   0.263  13.717  0.5587  1.3144 -0.8352
31388SOL    HW211775  11.715   0.299  13.596 -1.4317 -1.1403 -0.2492
31389SOL     OW11776   9.489   1.959   5.607 -0.3910 -0.1391  0.1652
31389SOL    HW111777   9.444   1.995   5.530 -1.6224 -1.8044  0.0405
31389SOL    HW211778   9.452   2.007   5.681 -1.6289 -0.7383 -0.0337
31390SOL     OW11779   8.750   7.539   3.775 -0.0238 -0.0667 -0.0189
31390SOL    HW111780   8.782   7.464   3.823 -1.6972 -1.0722 -0.3837
31390SOL    HW211781   8.727   7.603   3.842  0.8068 -0.1343  0.3293
31391SOL     OW11782  13.494  11.452   0.670  0.6665 -0.8489 -0.1765
31391SOL    HW111783  13.545  11.482   0.595  1.0658 -1.2179 -0.0550
31391SOL    HW211784  13.476  11.532   0.720  0.4826 -0.6160 -0.6062
31392SOL     OW11785  12.806   9.785  11.855 -0.0504 -0.4655 -0.8534
31392SOL    HW111786  12.752   9.721  11.901 -0.6705  0.3352 -0.4482
31392SOL    HW211787  12.752   9.864  11.851  1.9527  1.1655  1.7339
31393SOL     OW11788  13.374   4.553  11.515 -0.0851  0.2018 -0.2883
31393SOL    HW111789  13.366   4.645  11.493 -3.6921  0.0859  0.0576
31393SOL    HW211790  13.350   4.548  11.608  0.8728 -1.0354 -0.0750
31394SOL     OW11791   3.543   9.888   3.410  0.3328  0.5034  0.5104
31394SOL    HW111792   3.559   9.831   3.335  0.8471  0.1925  0.8472
31394SOL    HW211793   3.601   9.963   3.396 -0.6148  1.1364 -0.1217
31395SOL     OW11794  12.260   0.850  10.331 -0.6347 -0.1293 -0.0869
31395SOL    HW111795  12.175   0.834  10.370 -1.7269  1.6576 -1.5560
31395SOL    HW211796  12.262   0.795  10.253  0.3363 -1.5068  0.8701
31396SOL     OW11797  12.060   1.980   7.269  0.1408  0.3041  0.1674
31396SOL    HW111798  11.976   1.940   7.290  0.2102  0.3522  0.5560
31396SOL    HW211799  12.106   1.985   7.353 -0.0319  1.5715  0.2073
31397SOL     OW11800   3.268   9.710  12.347 -0.2526 -0.4872 -0.2623
31397SOL    HW111801   3.309   9.795  12.360 -1.0581 -0.2322  0.7632
31397SOL    HW211802   3.338   9.646  12.360  0.2509  0.0023 -0.5722
31398SOL     OW11803   0.347   0.607   8.348  0.3543 -0.2111 -0.2714
31398SOL    HW111804   0.253   0.616   8.366 -0.4047 -1.6079 -2.9878
31398SOL    HW211805   0.369   0.518   8.376  1.2810  0.5624  1.6441
31399SOL     OW11806   2.430   2.365   3.916 -0.1806  0.0803  0.0277
31399SOL    HW111807   2.477   2.399   3.992  1.2688 -0.5733 -0.5439
31399SOL    HW211808   2.366   2.304   3.953  1.6234 -1.5177  0.6604
31400SOL     OW11809   0.920   1.230   9.668  0.6322 -0.4564 -0.2798
31400SOL    HW111810   0.892   1.279   9.590 -0.3935  1.1925  1.0462
31400SOL    HW211811   0.991   1.282   9.705  0.1351 -0.4191  0.6657
31401SOL     OW11812   3.042   3.881   1.921  0.4210 -0.3597  0.1336
31401SOL    HW111813   3.019   3.788   1.922 -0.9283 -0.0719 -0.8663
31401SOL    HW211814   3.002   3.916   2.001  0.5473 -0.5515  0.2823
31402SOL     OW11815  11.277   3.955   3.118 -0.2065  0.1180  0.0390
31402SOL    HW111816  11.304   3.864   3.116 -0.3658  0.0800 -1.0099
31402SOL    HW211817  11.227   3.967   3.037 -0.3818  1.0715  0.2751
31403SOL     OW11818   4.911  12.926  12.829 -0.4136  0.2569 -0.1132
31403SOL    HW111819   4.993  12.970  12.852 -0.4911  0.4159 -0.1347
31403SOL    HW211820   4.859  12.929  12.909 -0.4443  0.2604 -0.1336
31404SOL     OW11821  11.052   2.986  11.346 -0.3660 -0.1210  0.9618
31404SOL    HW111822  11.019   3.073  11.325 -0.4622  0.2409  2.4560
31404SOL    HW211823  11.020   2.929  11.276 -2.5239  0.5682  1.3472
31405SOL     OW11824   4.770   1.497   5.220 -0.1119  0.1231  0.1217
31405SOL    HW111825   4.792   1.580   5.264 -0.7261  1.3447 -1.7402
31405SOL    HW211826   4.732   1.443   5.289  1.6613  0.8077  1.7146
31406SOL     OW11827  12.895  10.280   7.213  0.6066 -0.7706  0.5994
31406SOL    HW111828  12.932  10.218   7.276 -0.0290 -0.9790  0.7717
31406SOL    HW211829  12.940  10.362   7.231  1.8059 -1.2776  0.0565
31407SOL     OW11830   9.762  10.287  12.051 -0.7946  0.4530  0.0499
31407SOL    HW111831   9.729  10.294  11.961 -0.5863 -1.3494 -0.2167
31407SOL    HW211832   9.698  10.232  12.096 -0.1202  0.0711  0.5603
31408SOL     OW11833   5.249   3.954   7.345 -0.2428  0.0569 -0.5821
31408SOL    HW111834   5.189   3.982   7.414 -0.2880 -0.9789 -0.1672
31408SOL    HW211835   5.231   3.860   7.335  0.5970 -0.0572 -1.1595
31409SOL     OW11836  12.944  10.222   9.243  0.5292 -0.2436 -0.1710
31409SOL    HW111837  13.030  10.253   9.215 -0.0530  0.2649 -1.4672
31409SOL    HW211838  12.939  10.245   9.336  1.8378 -0.4272 -0.0317
31410SOL     OW11839   8.317   4.225   4.662  0.1202 -0.5339  0.3961
31410SOL    HW111840   8.242   4.166   4.667 -0.0804 -0.4785 -1.3292
31410SOL    HW211841   8.309   4.267   4.577  2.3315 -0.8368 -0.0379
31411SOL     OW11842   1.955  12.653   2.792 -0.0368  0.4098 -0.1765
31411SOL    HW111843   1.995  12.701   2.719  0.5076  0.9026  0.4343
31411SOL    HW211844   1.989  12.696   2.871  2.0224 -2.1467  0.4934
31412SOL     OW11845   7.720  10.646   9.502 -0.2535  0.1180  0.1072
31412SOL    HW111846   7.667  10.693   9.438 -0.5782 -1.0640 -0.5313
31412SOL    HW211847   7.748  10.567   9.456  0.3615 -0.2555  1.0991
31413SOL     OW11848  11.606  10.024  10.792  0.1085 -0.8527  0.0158
31413SOL    HW111849  11.675  10.047  10.730  0.1584 -1.0974 -0.0210
31413SOL    HW211850  11.526  10.058  10.752  0.1146 -1.1773 -0.2762
31414SOL     OW11851   9.022   9.784   6.273  0.1343 -0.7607 -0.2697
31414SOL    HW111852   9.013   9.853   6.208  0.5154 -2.5814 -2.3854
31414SOL    HW211853   8.932   9.763   6.299  0.0522  1.3405  1.4316
31415SOL     OW11854   3.710   5.712  11.590 -0.5317 -0.2944  0.0820
31415SOL    HW111855   3.619   5.728  11.613  0.1818  1.9935  1.6731
31415SOL    HW211856   3.746   5.799  11.572  0.9614 -1.3004 -2.1286
31416SOL     OW11857   2.499  12.489   0.347  0.5266 -0.3160 -0.1806
31416SOL    HW111858   2.453  12.567   0.316 -1.6167 -1.8530 -1.1289
31416SOL    HW211859   2.475  12.421   0.284  0.2910 -2.3233  1.9290
31417SOL     OW11860   6.433  13.856   0.954 -0.3612  0.2260 -0.1154
31417SOL    HW111861   6.427  13.889   1.044  0.6400  1.4952 -0.4826
31417SOL    HW211862   6.353  13.885   0.912 -0.5690  0.1224  0.2007
31418SOL     OW11863   0.772   7.273  11.647  0.1889 -0.4756 -0.1252
31418SOL    HW111864   0.794   7.218  11.572 -0.9238 -0.9561 -0.1120
31418SOL    HW211865   0.679   7.295  11.635  0.0521 -0.3737  0.9839
31419SOL     OW11866  11.868  13.730  11.449 -0.5163 -0.7873 -0.0661
31419SOL    HW111867  11.802  13.710  11.382 -0.3857  1.8020 -1.0674
31419SOL    HW211868  11.831  13.804  11.497  1.4673  0.4935 -0.4153
31420SOL     OW11869   0.206   8.071  11.906  0.3405 -0.2160  0.4346
31420SOL    HW111870   0.132   8.128  11.888 -0.2146 -0.6299  1.3554
31420SOL    HW211871   0.179   8.017  11.980  1.0690 -1.2788 -0.0280
31421SOL     OW11872   3.110   0.237   5.016 -0.3148  0.1037 -0.2489
31421SOL    HW111873   3.082   0.198   5.099 -1.2975 -0.9848 -1.0587
31421SOL    HW211874   3.130   0.328   5.038  0.6259 -0.4563  1.4131
31422SOL     OW11875  10.382   8.353   1.481  0.6220  0.2974 -0.1397
31422SOL    HW111876  10.374   8.269   1.527 -0.0782  0.8188  0.7267
31422SOL    HW211877  10.414   8.330   1.394 -1.9021 -1.1214 -0.7736
31423SOL     OW11878  13.053   9.726  11.159  0.2246 -0.3758 -0.7458
31423SOL    HW111879  12.987   9.670  11.116 -1.0484  0.9427 -0.5755
31423SOL    HW211880  13.046   9.810  11.114 -0.9999  1.0072  1.8052
31424SOL     OW11881   3.046   8.683  12.386  0.4171 -0.3088 -0.1531
31424SOL    HW111882   2.977   8.738  12.349 -0.3787 -1.5947 -0.6167
31424SOL    HW211883   3.037   8.694  12.481 -0.0453 -0.0110 -0.2290
31425SOL     OW11884   9.037   9.601   2.194 -0.0204  0.0591  0.0991
31425SOL    HW111885   9.113   9.625   2.140 -1.0021 -0.3702 -1.5557
31425SOL    HW211886   9.026   9.507   2.179 -1.5158  0.3140 -0.5609
31426SOL     OW11887  13.801   9.312  11.459 -0.0321 -0.4764 -0.2658
31426SOL    HW111888  13.706   9.312  11.458 -0.0952  0.7700  1.2771
31426SOL    HW211889  13.824   9.284  11.548  1.0063  0.1483 -0.3199
31427SOL     OW11890   0.106   5.018   4.233 -0.4139 -0.1329 -0.3410
31427SOL    HW111891   0.052   4.940   4.222 -0.9826 -0.1936  2.2557
31427SOL    HW211892   0.187   4.986   4.272  0.8879  0.1786 -2.6372
31428SOL     OW11893  11.490   9.093   4.023  0.1968 -1.2761  0.3335
31428SOL    HW111894  11.488   9.057   4.112  0.6048 -1.1653  0.3915
31428SOL    HW211895  11.413   9.055   3.980 -1.8067  1.0435  1.6223
31429SOL     OW11896   1.914   4.888   7.954 -0.3772  0.2554  0.2134
31429SOL    HW111897   1.850   4.937   8.005  1.3787  2.8022  0.1334
31429SOL    HW211898   1.885   4.898   7.863 -1.2027 -0.7641  0.3403
31430SOL     OW11899  13.014   4.982  10.357 -0.1708  0.1554 -0.5411
31430SOL    HW111900  13.107   4.984  10.335  0.2310  1.1388  1.0955
31430SOL    HW211901  13.003   4.903  10.411 -0.0911  0.5235  0.0199
31431SOL     OW11902   6.489   2.084   3.658  0.0241  0.7761  0.4119
31431SOL    HW111903   6.541   2.004   3.666  1.8911  1.7824 -1.0666
31431SOL    HW211904   6.398   2.053   3.659  0.6579 -1.2069  1.3054
31432SOL     OW11905   4.865   3.158   2.314  0.2472 -0.1617 -0.2883
31432SOL    HW111906   4.928   3.120   2.375  0.7699  0.8421 -0.1818
31432SOL    HW211907   4.919   3.208   2.253 -0.3224 -0.6584 -1.2225
31433SOL     OW11908   9.464  11.367  12.555 -0.1742  0.5633  0.3959
31433SOL    HW111909   9.458  11.329  12.467 -0.3714  2.3657 -0.4179
31433SOL    HW211910   9.558  11.369  12.574 -0.0889  0.6877 -0.0265
31434SOL     OW11911   8.130   6.917  13.726 -0.1750  0.3132 -0.6867
31434SOL    HW111912   8.038   6.945  13.727 -0.5212 -0.7827 -1.2881
31434SOL    HW211913   8.179   6.999  13.716 -1.0213  1.0253  0.6376
31435SOL     OW11914   9.386   2.862   0.958  0.2722 -0.3840  0.0750
31435SOL    HW111915   9.437   2.873   0.877 -0.7023 -0.8478 -0.6284
31435SOL    HW211916   9.432   2.914   1.023  3.3661 -3.0479  0.2781
31436SOL     OW11917   2.475   0.546   4.387  0.0077  0.1859 -0.4337
31436SOL    HW111918   2.437   0.615   4.442  0.3252 -1.2686  1.7298
31436SOL    HW211919   2.407   0.524   4.324 -0.4019  1.8583 -0.6138
31437SOL     OW11920   9.619   4.105   6.779 -0.4741 -0.2172  0.3442
31437SOL    HW111921   9.618   4.179   6.719 -0.9069 -0.0650  0.5389
31437SOL    HW211922   9.675   4.041   6.736 -0.0698  0.2342  0.1917
31438SOL     OW11923  13.311   4.989   3.270  0.0182 -0.3160 -0.1248
31438SOL    HW111924  13.356   5.030   3.345  1.5985 -0.1626 -1.1028
31438SOL    HW211925  13.380   4.978   3.204 -1.5239  0.5119 -1.9735
31439SOL     OW11926  10.499   2.864  10.561  0.9127 -0.5217  0.0672
31439SOL    HW111927  10.498   2.890  10.469  2.4484 -0.8018 -0.0511
31439SOL    HW211928  10.434   2.922  10.602 -2.6554 -2.8596 -1.7367
31440SOL     OW11929   6.207   4.028   3.214 -0.7324 -0.0082  0.2944
31440SOL    HW111930   6.228   4.049   3.305  0.2625  0.0125  0.0796
31440SOL    HW211931   6.230   3.936   3.205 -2.1511 -0.3911  0.4187
31441SOL     OW11932  10.901   8.090   7.932  0.1133 -0.0025  0.0025
31441SOL    HW111933  10.933   8.028   7.867 -2.0142 -0.3693 -0.7761
31441SOL    HW211934  10.808   8.071   7.940 -0.5870  2.8652 -0.0382
31442SOL     OW11935   4.736   6.500  12.654 -0.1798  0.2065  0.0398
31442SOL    HW111936   4.763   6.410  12.636 -0.1691 -0.0848  1.4149
31442SOL    HW211937   4.667   6.492  12.720 -0.4543  1.1948 -0.1067
31443SOL     OW11938   4.490   4.466   0.266  0.0368 -0.3395  0.0509
31443SOL    HW111939   4.568   4.518   0.243 -0.2271 -0.7121 -1.7688
31443SOL    HW211940   4.516   4.421   0.347  1.4325  0.1361 -0.0909
31444SOL     OW11941   9.156   1.935   8.993  0.2148  0.5411 -0.2081
31444SOL    HW111942   9.184   1.862   8.938  1.1761  0.6843  0.0746
31444SOL    HW211943   9.102   1.989   8.935 -0.8284 -0.5757 -0.3187
31445SOL     OW11944   1.872   0.493  11.328  0.0159 -0.1733  0.1149
31445SOL    HW111945   1.962   0.461  11.331  0.6494  1.2908 -1.2222
31445SOL    HW211946   1.840   0.467  11.241 -0.8784 -0.6921  0.5800
31446SOL     OW11947   1.828  10.144  10.826  0.9038  0.4650  0.1459
31446SOL    HW111948   1.857  10.151  10.917 -0.0401  0.1012  0.4942
31446SOL    HW211949   1.750  10.199  10.822 -0.4423 -1.3426  0.1961
31447SOL     OW11950  12.217   3.497   1.412  0.3862 -0.2620 -0.4744
31447SOL    HW111951  12.180   3.558   1.476  2.1092 -0.3401  0.6767
31447SOL    HW211952  12.154   3.426   1.407 -1.3943  1.2767 -1.4123
31448SOL     OW11953   3.214   9.007  13.377  0.2170  0.1730 -0.1289
31448SOL    HW111954   3.203   8.997  13.283  0.0577 -0.4628 -0.0461
31448SOL    HW211955   3.152   9.076  13.401 -1.3318 -1.1453 -0.1732
31449SOL     OW11956  12.443   1.510   7.013 -0.1960 -0.4022 -0.1660
31449SOL    HW111957  12.508   1.489   6.946  0.6588 -0.3763  0.6187
31449SOL    HW211958  12.397   1.586   6.979  1.5004  0.7875  0.0723
31450SOL     OW11959  13.438  13.560  12.326 -0.0745  0.1927 -0.0134
31450SOL    HW111960  13.343  13.573  12.335  0.0197  1.3717 -0.6092
31450SOL    HW211961  13.448  13.465  12.320 -1.0968 -0.0433  1.3635
31451SOL     OW11962   5.853  11.534   3.416 -0.6623 -0.2132 -0.3058
31451SOL    HW111963   5.895  11.554   3.333  1.6083  1.2082  1.0735
31451SOL    HW211964   5.779  11.593   3.421 -0.2914  0.3172 -0.9435
31452SOL     OW11965   2.692   9.613  12.420  0.0008 -0.4315  0.1828
31452SOL    HW111966   2.602   9.607  12.388 -0.0398 -0.8764  0.3814
31452SOL    HW211967   2.735   9.674  12.359 -0.5016 -0.0105  0.2420
31453SOL     OW11968   1.732   5.681   4.817  0.2656 -0.6012 -0.2802
31453SOL    HW111969   1.651   5.630   4.823 -0.8462  0.8748 -1.8775
31453SOL    HW211970   1.801   5.615   4.811 -0.9392 -1.9075 -0.4312
31454SOL     OW11971   8.333   0.070  11.142 -0.3116  0.2625 -0.5034
31454SOL    HW111972   8.298   0.121  11.215 -1.0514  0.0815 -0.7277
31454SOL    HW211973   8.420   0.042  11.172 -0.4059  0.6071  0.1080
31455SOL     OW11974  10.557   1.606   7.382  0.2466 -0.1535 -0.2503
31455SOL    HW111975  10.582   1.566   7.299 -0.3558  0.4876 -0.7502
31455SOL    HW211976  10.475   1.563   7.405  0.8791 -1.0104  0.5131
31456SOL     OW11977   1.004   7.931  12.509 -0.2450 -0.2529 -0.4938
31456SOL    HW111978   1.047   8.006  12.468 -0.8012  0.2527 -0.1745
31456SOL    HW211979   1.054   7.855  12.480  0.6497  0.2882 -0.3948
31457SOL     OW11980   8.287  10.182   7.119 -0.2556  0.3876 -0.1469
31457SOL    HW111981   8.317  10.263   7.159  1.2252 -0.8418  1.3663
31457SOL    HW211982   8.356  10.159   7.056 -1.2540  0.8848 -1.4782
31458SOL     OW11983  12.287   7.096   7.981  0.0708  0.0614 -0.6232
31458SOL    HW111984  12.347   7.160   7.943 -0.5948  0.7683 -0.4976
31458SOL    HW211985  12.200   7.126   7.956 -0.3892  0.4725  1.3173
31459SOL     OW11986   9.982  10.533   7.220  0.2691  0.5535  0.4071
31459SOL    HW111987  10.021  10.607   7.266 -0.3448  1.7277 -0.9158
31459SOL    HW211988  10.003  10.547   7.128 -0.1960 -0.7114  0.0786
31460SOL     OW11989   5.115   3.731   8.522  0.4275 -0.4310  0.1277
31460SOL    HW111990   5.192   3.680   8.546 -0.3247 -2.2993 -1.2592
31460SOL    HW211991   5.136   3.768   8.436  0.1397 -0.1482  0.1753
31461SOL     OW11992  13.206   6.330   3.962 -0.0321 -0.5632  0.5380
31461SOL    HW111993  13.224   6.347   3.870  1.8726 -2.2271  0.5389
31461SOL    HW211994  13.176   6.414   3.997 -1.6684 -0.0993 -1.7445
31462SOL     OW11995   1.144   2.572   3.001 -0.7220 -0.0613  0.2904
31462SOL    HW111996   1.181   2.642   2.947  0.4099  0.2259  1.3906
31462SOL    HW211997   1.161   2.600   3.091 -0.4170 -1.6714  0.7601
31463SOL     OW11998   4.576   3.447   3.785  0.5449 -0.3840  0.3414
31463SOL    HW111999   4.524   3.411   3.713  2.2286 -2.0978 -0.0976
31463SOL    HW212000   4.576   3.378   3.851  2.7843 -0.7304  0.0321
31464SOL     OW12001  10.173  11.364   7.139 -0.1397 -0.1827 -0.1042
31464SOL    HW112002  10.259  11.400   7.160  0.4922 -1.1584 -0.9120
31464SOL    HW212003  10.111  11.431   7.168  0.8750  0.4793  0.6138
31465SOL     OW12004   3.270   4.442   9.789  0.1514  0.6978 -0.2569
31465SOL    HW112005   3.182   4.418   9.761  0.0745 -2.7064  2.2892
31465SOL    HW212006   3.256   4.509   9.856 -0.5513  0.1851  0.1266
31466SOL     OW12007   4.519  12.566   6.842  0.1124  0.2973  0.6881
31466SOL    HW112008   4.533  12.514   6.763  0.4006  0.2903  0.7455
31466SOL    HW212009   4.504  12.501   6.911 -0.0601  0.3021  0.6564
31467SOL     OW12010   4.895   7.393   4.524  0.3920 -0.0591 -0.3973
31467SOL    HW112011   4.985   7.380   4.554  0.2913  0.9388  0.3550
31467SOL    HW212012   4.903   7.446   4.445  0.4180  1.0407  0.3213
31468SOL     OW12013   4.696  13.610  12.454 -0.3081  0.5590  0.3964
31468SOL    HW112014   4.743  13.673  12.399 -0.3177  0.7605  0.6177
31468SOL    HW212015   4.739  13.615  12.539 -0.0903  0.0169  0.3234
31469SOL     OW12016   3.026   5.770   1.675 -0.5896  0.2404  0.5294
31469SOL    HW112017   2.982   5.750   1.758  2.3799 -1.2377  1.8964
31469SOL    HW212018   3.118   5.746   1.690 -0.0214 -0.7268 -3.4137
31470SOL     OW12019   1.488   8.012   9.209 -0.4049 -0.2557  0.3872
31470SOL    HW112020   1.580   8.007   9.181  0.2599  0.6426  2.1963
31470SOL    HW212021   1.476   7.933   9.262 -0.6661 -0.3616  0.1678
31471SOL     OW12022  10.297  13.228   3.298  0.0069  1.3563 -0.4207
31471SOL    HW112023  10.278  13.153   3.242 -1.1448  0.6247  0.9114
31471SOL    HW212024  10.393  13.233   3.299  0.0897  0.2130 -0.9021
31472SOL     OW12025   4.304   4.508  12.738  0.2369 -0.2710  0.4098
31472SOL    HW112026   4.219   4.472  12.761  0.6532 -1.4890  0.0970
31472SOL    HW212027   4.323   4.471  12.651  1.2566 -0.3379  0.6490
31473SOL     OW12028  10.747   2.988  10.354  0.1447 -0.1702  0.0826
31473SOL    HW112029  10.757   3.061  10.293  0.3672 -0.9847 -0.8864
31473SOL    HW212030  10.719   3.029  10.436  0.6330  1.0369 -0.3266
31474SOL     OW12031   9.056  13.175   2.692 -0.1652  0.5443 -0.1013
31474SOL    HW112032   9.092  13.138   2.611  1.3504 -1.6797  1.4480
31474SOL    HW212033   9.131  13.216   2.735  0.2794 -2.2968  2.1888
31475SOL     OW12034  13.548  13.274   1.464  0.0110  0.0119  0.3825
31475SOL    HW112035  13.629  13.245   1.505 -0.8313 -1.8293  0.8651
31475SOL    HW212036  13.558  13.369   1.454  1.1966  0.2059  2.7575
31476SOL     OW12037  11.828  12.195   1.250  0.2980 -0.2934  0.2800
31476SOL    HW112038  11.826  12.100   1.259  3.2107 -0.6630 -1.5146
31476SOL    HW212039  11.886  12.224   1.320  1.1363 -0.1229 -0.4666
31477SOL     OW12040   8.486  13.319  11.552 -0.5396 -0.4585  0.1011
31477SOL    HW112041   8.478  13.226  11.529 -0.5004 -0.1117 -1.4164
31477SOL    HW212042   8.403  13.358  11.523 -0.6920 -0.0687  1.0385
31478SOL     OW12043   1.037   0.772   4.973 -0.1887  0.1501  0.1202
31478SOL    HW112044   0.947   0.784   5.003 -0.5652  0.2149 -0.9647
31478SOL    HW212045   1.090   0.771   5.053 -1.2780 -1.0413  0.8661
31479SOL     OW12046   3.038   1.086   2.712 -0.1396  0.0180 -0.0697
31479SOL    HW112047   2.970   1.031   2.751  0.3654 -1.7148 -1.4962
31479SOL    HW212048   3.120   1.045   2.738  0.2347 -0.4508 -1.8403
31480SOL     OW12049   2.481   5.523   2.134  0.1287 -0.2573  0.0961
31480SOL    HW112050   2.565   5.482   2.115  0.8220  1.3732 -0.4909
31480SOL    HW212051   2.453   5.561   2.051 -1.0657 -0.5431  0.3485
31481SOL     OW12052  12.223   3.993   3.274  0.5307  0.4559  0.2349
31481SOL    HW112053  12.130   3.970   3.280  0.9444 -0.9576  2.1961
31481SOL    HW212054  12.228   4.082   3.309 -0.0965  0.6290 -0.0918
31482SOL     OW12055  13.282  12.280   8.888  0.1864 -0.1887  0.5433
31482SOL    HW112056  13.190  12.254   8.894  0.2449 -0.5735 -0.1941
31482SOL    HW212057  13.285  12.340   8.814  0.7893 -1.3833 -0.4333
31483SOL     OW12058  13.296   8.943  13.088 -0.2254 -0.0526 -0.3529
31483SOL    HW112059  13.233   8.891  13.038  0.6836 -1.7032  0.1435
31483SOL    HW212060  13.364   8.966  13.024 -0.2224 -0.1633 -0.3891
31484SOL     OW12061  13.953   1.097   2.181  0.2336  0.0461  0.1038
31484SOL    HW112062  14.006   1.046   2.119 -0.1109 -0.9319  0.5900
31484SOL    HW212063  13.951   1.043   2.260 -0.3359  0.7199  0.5546
31485SOL     OW12064   7.733   0.611   9.717 -0.3122  0.3500 -0.0117
31485SOL    HW112065   7.820   0.589   9.682 -0.3760  0.6241 -0.3437
31485SOL    HW212066   7.741   0.703   9.743  0.4216 -0.4005  2.7838
31486SOL     OW12067  10.793   6.970   9.719  0.1268  0.3244 -0.0657
31486SOL    HW112068  10.775   6.929   9.634 -2.7902 -0.6392  0.8760
31486SOL    HW212069  10.849   7.044   9.698  1.1011 -0.9763 -2.5623
31487SOL     OW12070   0.888   4.104   5.179  0.1631 -0.5498 -0.3178
31487SOL    HW112071   0.803   4.106   5.222 -0.3198 -1.4626 -1.1746
31487SOL    HW212072   0.941   4.168   5.227 -0.7977 -0.4401  0.6395
31488SOL     OW12073   7.002   8.953   8.324  0.1704 -0.6641  0.0050
31488SOL    HW112074   7.031   8.899   8.251 -0.2252 -1.0366  0.1164
31488SOL    HW212075   7.003   9.042   8.290  0.2117 -0.8113 -0.3853
31489SOL     OW12076   4.745  13.028  13.023 -0.2022  0.4124  0.8458
31489SOL    HW112077   4.742  12.965  13.095 -1.2440 -1.5270 -0.7947
31489SOL    HW212078   4.654  13.045  13.002  0.0164 -0.5436 -1.1690
31490SOL     OW12079   0.207   6.748  12.044 -0.1552 -0.0208  0.0417
31490SOL    HW112080   0.280   6.687  12.055  0.9030  1.3988  1.4697
31490SOL    HW212081   0.147   6.726  12.116  0.6185  1.1003  1.0554
31491SOL     OW12082  13.556   8.902   3.682 -0.2195 -0.1627 -0.8562
31491SOL    HW112083  13.529   8.994   3.673  1.2995  0.2053 -2.1497
31491SOL    HW212084  13.481   8.858   3.721 -0.5320  1.8694  1.0134
31492SOL     OW12085   6.388  11.139  13.778 -0.0630 -1.1041 -0.2224
31492SOL    HW112086   6.346  11.208  13.829 -0.2758 -1.6768  0.4013
31492SOL    HW212087   6.435  11.086  13.843 -0.0729 -1.6636 -0.6600
31493SOL     OW12088   2.600   1.552   9.839 -0.1821  0.2150  0.3203
31493SOL    HW112089   2.576   1.474   9.890 -0.5640  0.9409  1.2852
31493SOL    HW212090   2.695   1.548   9.834 -0.2079 -0.3931  0.2454
31494SOL     OW12091   0.467  10.001  11.140  0.4674 -0.3064 -0.5437
31494SOL    HW112092   0.554  10.035  11.159 -1.1064  2.5210  2.6846
31494SOL    HW212093   0.451   9.937  11.210 -1.3872  2.2225  1.5543
31495SOL     OW12094   2.206   4.581   1.661 -0.0037 -0.1491 -0.3623
31495SOL    HW112095   2.235   4.505   1.610  0.5172 -0.9851  1.1085
31495SOL    HW212096   2.260   4.653   1.629 -0.7023 -0.2927 -1.9812
31496SOL     OW12097   4.527  11.028  13.835  0.2600 -0.0073 -0.4084
31496SOL    HW112098   4.603  10.979  13.866 -0.1054 -0.0676  0.4115
31496SOL    HW212099   4.565  11.104  13.791  0.8390 -1.2121 -2.0751
31497SOL     OW12100  11.608   5.022   4.163 -0.1509  0.0496  0.2528
31497SOL    HW112101  11.570   5.080   4.228 -2.0014 -0.9337  0.1136
31497SOL    HW212102  11.589   5.064   4.079 -0.9927 -0.4624  0.1810
31498SOL     OW12103   7.666   5.511  12.371 -0.2097  0.1092  0.0420
31498SOL    HW112104   7.626   5.593  12.345  0.7395  0.6818  0.3132
31498SOL    HW212105   7.717   5.533  12.450  0.2337 -0.6826 -0.0081
31499SOL     OW12106   0.246  10.539   0.870 -0.5350  0.8257  0.6953
31499SOL    HW112107   0.170  10.596   0.877 -0.8073  0.4746  0.6215
31499SOL    HW212108   0.245  10.507   0.780 -1.0881 -0.2528  1.0594
31500SOL     OW12109   9.813   2.040   9.679  0.4090  0.3457 -0.5838
31500SOL    HW112110   9.754   2.027   9.605  2.9591 -3.5938 -2.2874
31500SOL    HW212111   9.781   1.979   9.745  0.4902  0.8902 -0.0356
31501SOL     OW12112   4.599   0.752   8.238 -0.5220 -0.3967 -0.5099
31501SOL    HW112113   4.665   0.708   8.291 -0.1957  1.2089  0.4824
31501SOL    HW212114   4.605   0.711   8.152  1.2270 -0.8180 -0.2142
31502SOL     OW12115   2.718   3.274   3.773  0.0175 -0.5223  0.3949
31502SOL    HW112116   2.802   3.282   3.728 -0.2194  0.3002  0.0843
31502SOL    HW212117   2.715   3.348   3.833 -0.7965 -0.1053 -0.1376
31503SOL     OW12118   0.199   1.104   9.724 -0.0777 -0.4570  0.0774
31503SOL    HW112119   0.110   1.084   9.695  0.7222 -3.5085 -0.6180
31503SOL    HW212120   0.210   1.052   9.804  0.6640  1.0073  0.9700
31504SOL     OW12121   7.967   2.318   0.813 -0.1696  0.0513  0.8481
31504SOL    HW112122   8.016   2.337   0.733  0.5696 -1.7638  0.8323
31504SOL    HW212123   8.010   2.241   0.850 -1.4317 -0.0422  2.2056
31505SOL     OW12124   2.988   0.307   8.641  0.2381  0.0065  0.0461
31505SOL    HW112125   2.929   0.308   8.716 -0.1597  0.9596 -0.2655
31505SOL    HW212126   2.933   0.330   8.566  0.6948 -0.6172 -0.4956
31506SOL     OW12127   2.110  11.501   4.500 -0.4604 -0.2538 -0.2935
31506SOL    HW112128   2.121  11.595   4.517  0.6745 -0.6751  1.6038
31506SOL    HW212129   2.172  11.459   4.560 -2.2911 -2.2964  0.2861
31507SOL     OW12130   3.715  13.884   6.283 -0.1971 -0.5151  0.1227
31507SOL    HW112131   3.641  13.942   6.262  0.4892  0.4109  0.2158
31507SOL    HW212132   3.723  13.890   6.378 -0.1556 -0.8039  0.1366
31508SOL     OW12133   8.489   0.933   5.558 -0.3394 -0.2989  0.1486
31508SOL    HW112134   8.447   1.004   5.510  1.7148  0.5728 -0.4810
31508SOL    HW212135   8.565   0.973   5.600  0.3005 -1.9148  0.6415
31509SOL     OW12136   4.265   8.227   7.215  0.3033  0.0137  0.4025
31509SOL    HW112137   4.246   8.227   7.122 -0.8055 -3.1047  0.4953
31509SOL    HW212138   4.224   8.306   7.249 -1.7699 -0.2454 -1.3291
31510SOL     OW12139   6.053   9.430   0.249 -0.3320 -0.4506  0.0289
31510SOL    HW112140   5.977   9.474   0.210  0.0228  0.5364  0.4363
31510SOL    HW212141   6.033   9.424   0.342  0.2057  0.0656  0.1817
31511SOL     OW12142   6.272   9.074   3.208 -0.4857 -0.8402 -0.0141
31511SOL    HW112143   6.314   9.157   3.233  0.0856 -1.5664  1.5879
31511SOL    HW212144   6.223   9.095   3.129  0.7724  0.6911 -0.4477
31512SOL     OW12145   6.934   1.175  10.767  0.5411 -0.6764 -0.0473
31512SOL    HW112146   6.964   1.195  10.679  0.8228 -2.4054 -0.3776
31512SOL    HW212147   6.949   1.082  10.777 -2.6077 -1.2386  0.5852
31513SOL     OW12148   3.738  11.259   7.610  0.4422  0.7807 -0.0187
31513SOL    HW112149   3.704  11.336   7.655 -1.6711 -0.5391  0.7766
31513SOL    HW212150   3.830  11.254   7.637  0.1394  1.9761  1.3539
31514SOL     OW12151  11.324  14.040   0.408 -0.6860 -0.5362  0.1083
31514SOL    HW112152  11.242  13.996   0.430 -1.6958  1.0115 -0.3501
31514SOL    HW212153  11.339  14.019   0.316  0.3710 -2.2055  0.6359
31515SOL     OW12154   5.576   3.119  10.765 -0.0045 -0.6141  0.1615
31515SOL    HW112155   5.638   3.096  10.695 -0.3893  0.6247 -0.6200
31515SOL    HW212156   5.490   3.104  10.728 -0.2246  0.4314  0.2088
31516SOL     OW12157  10.563   5.782   1.976 -0.4010 -0.2532  0.6104
31516SOL    HW112158  10.598   5.771   2.065  1.2158 -1.2270 -0.1015
31516SOL    HW212159  10.604   5.863   1.945 -1.1280  0.1995  0.7997
31517SOL     OW12160  10.540   0.682   8.125 -0.1196  0.3915 -0.2112
31517SOL    HW112161  10.596   0.609   8.149  0.8850  1.3419  0.4027
31517SOL    HW212162  10.460   0.668   8.176  0.5724  0.4229  0.8972
31518SOL     OW12163  13.272  11.156   4.074  0.5446  0.0910 -0.4340
31518SOL    HW112164  13.243  11.234   4.121  0.0634 -0.3341 -0.0141
31518SOL    HW212165  13.262  11.178   3.981  1.1891  0.8133 -0.3427
31519SOL     OW12166   7.630  13.345  12.850 -0.1689  0.3761  0.8160
31519SOL    HW112167   7.659  13.268  12.898 -0.8071 -0.1658  0.3499
31519SOL    HW212168   7.707  13.401  12.845  0.2064 -0.0726  1.4645
31520SOL     OW12169  10.006  10.460  11.156 -0.1352 -0.1210  0.1888
31520SOL    HW112170  10.072  10.503  11.102 -0.2846 -0.7453 -0.5117
31520SOL    HW212171  10.050  10.444  11.239  1.0644 -1.6717 -0.6734
31521SOL     OW12172   8.566   2.845   1.575 -0.6797 -0.3293  0.0904
31521SOL    HW112173   8.493   2.851   1.637 -1.4894  0.8646 -0.9365
31521SOL    HW212174   8.551   2.763   1.528 -0.0638 -1.2405  1.4271
31522SOL     OW12175   4.516   9.227  13.679 -0.2560  0.8256  0.3256
31522SOL    HW112176   4.548   9.282  13.751 -1.1352  1.2150  0.4235
31522SOL    HW212177   4.560   9.262  13.601  1.4792 -0.2340  0.7822
31523SOL     OW12178   4.193   3.856  10.768 -0.0920 -0.2453 -0.3169
31523SOL    HW112179   4.200   3.815  10.682 -0.2746 -0.8772 -0.0357
31523SOL    HW212180   4.282   3.860  10.800  0.2076  1.5787 -1.2461
31524SOL     OW12181   0.715   2.257   0.389  0.2238  0.3917  0.3191
31524SOL    HW112182   0.728   2.164   0.370  2.3511  0.7974 -0.3962
31524SOL    HW212183   0.696   2.297   0.304 -1.0559  0.6006  0.6732
31525SOL     OW12184  12.724   3.311  12.238 -0.1840  0.0253 -0.6228
31525SOL    HW112185  12.698   3.376  12.304 -0.1735 -0.3281 -0.2675
31525SOL    HW212186  12.661   3.240  12.248 -1.0822  0.5904 -1.9874
31526SOL     OW12187  12.878   9.662   6.066  0.5310  0.4081  0.2022
31526SOL    HW112188  12.911   9.653   6.156  0.5940 -0.9974  0.0502
31526SOL    HW212189  12.946   9.622   6.012  0.6302  1.5060 -0.5165
31527SOL     OW12190  11.098   9.633   1.688 -0.3422 -0.3942 -0.6960
31527SOL    HW112191  11.068   9.597   1.605 -1.2981  0.2365 -0.6422
31527SOL    HW212192  11.077   9.565   1.752 -0.6666 -0.4048 -0.8113
31528SOL     OW12193  13.537   0.965  11.769 -0.2348  0.3243  0.4907
31528SOL    HW112194  13.583   0.921  11.840 -0.3365  2.3264  1.9023
31528SOL    HW212195  13.605   1.010  11.720 -0.1213 -1.3481 -0.9798
31529SOL     OW12196   6.544   5.628  12.801  0.6550  0.8533 -1.1372
31529SOL    HW112197   6.620   5.686  12.795  0.5284  0.8707 -3.8138
31529SOL    HW212198   6.473   5.684  12.832  1.4669  1.0789  0.3932
31530SOL     OW12199  10.012   3.471  13.069 -0.0333 -0.0797  0.1638
31530SOL    HW112200  10.056   3.556  13.063  1.5729 -0.9652 -1.7008
31530SOL    HW212201  10.033   3.439  13.157  0.0933  1.0345  0.5555
31531SOL     OW12202   4.750   9.953   2.471  0.5571  0.4857  0.2295
31531SOL    HW112203   4.713   9.882   2.523  2.2997 -0.8681 -0.2512
31531SOL    HW212204   4.742   9.923   2.380  0.1973  1.4852 -0.0841
31532SOL     OW12205  13.799   4.795  12.276 -0.2404  0.2008 -0.1164
31532SOL    HW112206  13.770   4.869  12.224 -1.0899 -0.7507 -1.0334
31532SOL    HW212207  13.813   4.831  12.364 -2.9959  0.9904  0.0883
31533SOL     OW12208   0.100  11.881   2.298  0.0070  0.0819 -0.2237
31533SOL    HW112209   0.034  11.947   2.277 -1.8091 -1.5039  0.2542
31533SOL    HW212210   0.073  11.846   2.383  1.1092 -1.0610 -0.3140
31534SOL     OW12211  13.432  11.846  11.401  0.2216  0.0639 -0.2065
31534SOL    HW112212  13.447  11.888  11.486 -0.2528 -1.1041  0.4725
31534SOL    HW212213  13.363  11.783  11.417  1.8579 -2.0004 -0.8472
31535SOL     OW12214   5.269  13.478   1.047  0.1150 -0.1770 -0.3284
31535SOL    HW112215   5.286  13.536   1.122  1.8040 -2.1460  0.9223
31535SOL    HW212216   5.286  13.533   0.970 -1.1677  1.7568  0.7095
31536SOL     OW12217   0.446   4.125  10.699 -0.1486  0.3672  0.6672
31536SOL    HW112218   0.376   4.160  10.645  0.2023  1.7937  1.0935
31536SOL    HW212219   0.412   4.042  10.732 -0.2425 -0.7225 -1.9673
31537SOL     OW12220   9.021   5.107   5.955  0.2049 -0.3638  0.0871
31537SOL    HW112221   8.985   5.073   6.036  0.2361  0.1251  0.3097
31537SOL    HW212222   9.101   5.152   5.982  0.7512 -1.0504 -0.3436
31538SOL     OW12223   1.086  11.864   3.456 -0.3773  0.4902 -0.0228
31538SOL    HW112224   1.168  11.903   3.486  0.0137  0.4878 -1.0825
31538SOL    HW212225   1.029  11.938   3.438  0.3516  0.6306 -1.9944
31539SOL     OW12226   1.202   7.948   5.275 -1.0587 -0.4438 -0.4137
31539SOL    HW112227   1.154   8.025   5.244  1.1800  1.0246 -0.4623
31539SOL    HW212228   1.235   7.972   5.361  2.8719  0.3090 -1.8988
31540SOL     OW12229  10.454   2.559  10.529 -0.8065  0.0327  0.2060
31540SOL    HW112230  10.380   2.498  10.533 -2.2265  1.6207 -0.5891
31540SOL    HW212231  10.428   2.632  10.586  0.3182  0.4631  0.1931
31541SOL     OW12232  13.937   1.858   0.006  0.0327  0.0465 -0.6804
31541SOL    HW112233  13.867   1.800  -0.023  1.6522 -1.5299 -1.5782
31541SOL    HW212234  13.997   1.802   0.055  1.4331  1.0262 -1.2125
31542SOL     OW12235   6.439  11.475   2.220  0.2874 -0.3550 -0.0594
31542SOL    HW112236   6.435  11.435   2.307 -0.4387  1.5868  0.8579
31542SOL    HW212237   6.373  11.428   2.169  0.8295 -1.6226  0.3661
31543SOL     OW12238   7.517   8.670  13.172 -0.3131 -0.0295  0.3124
31543SOL    HW112239   7.483   8.660  13.261 -1.3671 -3.3349 -0.2862
31543SOL    HW212240   7.591   8.609  13.168  1.6617  2.2641 -0.3124
31544SOL     OW12241   9.234  11.854  10.826 -0.0201 -0.1768  0.2372
31544SOL    HW112242   9.216  11.781  10.767  0.8465 -0.9958  0.9297
31544SOL    HW212243   9.308  11.900  10.786 -0.0822 -0.1309  0.1751
31545SOL     OW12244   0.462   1.865   3.035  0.1425 -0.2697 -0.0304
31545SOL    HW112245   0.418   1.924   2.974  1.8878 -0.0524 -1.1492
31545SOL    HW212246   0.392   1.810   3.070 -1.3619  1.6234  0.1172
31546SOL     OW12247   9.468   0.677   5.574  0.1046  0.6116 -0.2699
31546SOL    HW112248   9.547   0.719   5.609 -0.3626 -0.3505  2.1220
31546SOL    HW212249   9.495   0.587   5.556 -0.5845  0.0693  1.2730
31547SOL     OW12250   2.098  13.840   6.051 -0.5063 -0.1588  0.5627
31547SOL    HW112251   2.007  13.815   6.034 -0.5070 -0.0067  0.3272
31547SOL    HW212252   2.141  13.830   5.966 -0.1725 -0.7700  0.8023
31548SOL     OW12253   6.010  10.018  12.624 -0.6972  0.4076 -0.2839
31548SOL    HW112254   6.058   9.936  12.615  0.7224  0.8181  2.4535
31548SOL    HW212255   5.922   9.997  12.592  0.1892 -1.5123 -1.6883
31549SOL     OW12256  11.325   0.211  10.408  0.5404  0.2120  0.5764
31549SOL    HW112257  11.384   0.275  10.367  1.2037 -0.2174  0.8457
31549SOL    HW212258  11.343   0.219  10.502 -1.7315  1.9640  0.9636
31550SOL     OW12259   4.046  13.944   9.539 -0.2287  0.4228  0.0602
31550SOL    HW112260   4.059  13.860   9.582  2.2353 -0.0294 -1.3858
31550SOL    HW212261   4.114  14.001   9.577 -0.4862  1.1165 -0.4908
31551SOL     OW12262   2.763  10.154   6.220  0.0777 -0.8835 -0.2209
31551SOL    HW112263   2.754  10.234   6.271  1.2371  0.6514 -2.2646
31551SOL    HW212264   2.808  10.093   6.278 -0.2046  0.1670  1.1488
31552SOL     OW12265  12.905   3.705   5.343 -0.5332 -0.1637  0.4749
31552SOL    HW112266  12.854   3.784   5.358  0.2825  0.6765 -0.9162
31552SOL    HW212267  12.927   3.708   5.249  0.9511 -1.1607  0.7496
31553SOL     OW12268  10.450   0.279   6.392  0.6167  0.4327  0.1917
31553SOL    HW112269  10.384   0.263   6.326 -0.8049  0.6181  1.5124
31553SOL    HW212270  10.473   0.372   6.382 -0.6020  0.8171  0.8220
31554SOL     OW12271   6.025  10.140  12.990 -0.9779  0.1037 -0.6037
31554SOL    HW112272   6.054  10.175  12.905 -1.5541  0.0962 -0.8056
31554SOL    HW212273   6.075  10.059  13.000 -0.6372  0.2907 -0.7654
31555SOL     OW12274   6.915   5.638   7.615  0.0426  0.2505 -0.4569
31555SOL    HW112275   6.892   5.557   7.661 -1.0207 -0.0429 -1.4519
31555SOL    HW212276   7.010   5.634   7.604 -0.1156 -1.4677 -1.5528
31556SOL     OW12277  11.259   0.392   0.185  0.2184 -0.2860  0.5257
31556SOL    HW112278  11.330   0.433   0.136 -0.6217  0.5074 -0.0495
31556SOL    HW212279  11.263   0.433   0.272  0.4238 -0.1970  0.4743
31557SOL     OW12280   9.178   9.646   1.547  0.2964  0.1400 -0.2181
31557SOL    HW112281   9.117   9.573   1.562 -1.2157  1.2952 -0.5039
31557SOL    HW212282   9.123   9.717   1.516  2.0688  0.6634 -2.4038
31558SOL     OW12283   1.721   5.372  10.784 -0.0729 -0.2990  0.4631
31558SOL    HW112284   1.639   5.328  10.804 -1.0567  1.6565  0.9621
31558SOL    HW212285   1.708   5.410  10.697  0.8635 -1.2063 -0.0889
31559SOL     OW12286  12.978  13.111   3.732  0.1621  0.3615  0.9227
31559SOL    HW112287  13.056  13.122   3.677 -1.8345 -0.3611 -2.3737
31559SOL    HW212288  12.945  13.200   3.744  0.0878  0.4754 -0.0078
31560SOL     OW12289   8.768   2.791  13.410  0.2410  0.7758 -0.3032
31560SOL    HW112290   8.788   2.743  13.329 -1.1764 -0.8230  0.2444
31560SOL    HW212291   8.854   2.815  13.445  1.0620 -1.5937 -0.5019
31561SOL     OW12292   4.117   8.169   9.851  0.2946 -0.2931  0.0238
31561SOL    HW112293   4.108   8.114   9.774 -1.7186  0.2421 -0.1889
31561SOL    HW212294   4.184   8.233   9.828 -1.8035  1.2615 -2.2384
31562SOL     OW12295   1.191   8.009  12.851  0.6081  0.7300  0.3509
31562SOL    HW112296   1.221   7.988  12.762 -0.8313  2.5760 -0.6481
31562SOL    HW212297   1.097   7.991  12.849  0.8795 -1.2119  2.2022
31563SOL     OW12298  10.555   9.901  11.888 -0.3565  0.0381 -0.0101
31563SOL    HW112299  10.507   9.822  11.861  0.7585 -0.4904 -0.5203
31563SOL    HW212300  10.486   9.965  11.907 -1.2521 -0.4132 -1.5316
31564SOL     OW12301   0.205   4.404  12.419 -0.2305 -0.6502 -0.3920
31564SOL    HW112302   0.299   4.390  12.407  0.0414  0.5258  0.1559
31564SOL    HW212303   0.197   4.431  12.511 -1.2234 -1.5867 -0.1899
31565SOL     OW12304   3.011   6.545   4.478 -0.1841 -0.1109  0.8931
31565SOL    HW112305   3.078   6.590   4.426  0.2140 -1.2709  0.3676
31565SOL    HW212306   2.958   6.499   4.414  0.4066 -1.6962  1.4865
31566SOL     OW12307   0.033   7.743  13.955  0.3406 -0.5291 -0.3537
31566SOL    HW112308  -0.007   7.743  13.868  1.7129 -1.1235 -1.0292
31566SOL    HW212309  -0.007   7.817  14.000 -1.6990 -1.2790 -0.8538
31567SOL     OW12310  11.083   7.270  10.533  0.0515 -0.3127 -0.1436
31567SOL    HW112311  11.150   7.204  10.549 -1.8669 -1.8085  2.2798
31567SOL    HW212312  11.128   7.354  10.548  1.4696 -1.2460  1.1256
31568SOL     OW12313   9.019   7.428   0.885  0.0605 -0.4261  0.1110
31568SOL    HW112314   8.997   7.392   0.971 -1.0017  0.1047  0.0743
31568SOL    HW212315   8.990   7.363   0.823 -2.7586  0.8175 -0.0043
31569SOL     OW12316  10.689   7.647   4.093 -0.0620 -0.1941  0.0689
31569SOL    HW112317  10.680   7.726   4.040  0.9553  0.0612  0.2713
31569SOL    HW212318  10.605   7.602   4.082 -1.2396  1.6150  1.1099
31570SOL     OW12319   2.356   5.105   8.547 -0.0640  0.0038  0.6218
31570SOL    HW112320   2.331   5.015   8.527 -2.6991  0.7026  0.4263
31570SOL    HW212321   2.383   5.103   8.639  0.6469 -1.0949  0.4026
31571SOL     OW12322   2.262   6.895   1.834 -0.5002  0.1558 -0.3541
31571SOL    HW112323   2.293   6.880   1.923 -1.4140 -1.3173 -0.2612
31571SOL    HW212324   2.233   6.810   1.803 -3.5454  1.2054 -0.7537
31572SOL     OW12325  12.849   7.380  10.556  0.1091 -0.7750  0.3212
31572SOL    HW112326  12.918   7.405  10.494 -0.6375 -2.7933 -1.4569
31572SOL    HW212327  12.836   7.458  10.610  2.3119  0.3613 -0.6434
31573SOL     OW12328  13.396  11.568   5.214 -0.2653  0.7322  0.2794
31573SOL    HW112329  13.489  11.582   5.232 -0.0094 -0.0866 -0.3179
31573SOL    HW212330  13.351  11.635   5.265  0.6526  1.1351  0.5832
31574SOL     OW12331  11.416  11.068   5.109 -0.1162  0.1190 -0.1412
31574SOL    HW112332  11.370  11.054   5.191 -1.1058 -3.6813 -1.1264
31574SOL    HW212333  11.504  11.035   5.125  0.6665  2.1779  0.1385
31575SOL     OW12334  13.174   2.502   2.161 -0.3494 -0.0929  0.2659
31575SOL    HW112335  13.089   2.498   2.204  0.7415 -1.2717  2.4738
31575SOL    HW212336  13.200   2.411   2.149  0.6017  0.2429 -0.3988
31576SOL     OW12337  13.373  13.533   8.303 -0.1165  0.4038  0.5427
31576SOL    HW112338  13.460  13.555   8.338 -0.3503 -2.7407  3.7516
31576SOL    HW212339  13.391  13.505   8.213  2.1885  0.1252  1.0065
31577SOL     OW12340   9.632   3.544   8.184  0.3423  0.1916  0.0179
31577SOL    HW112341   9.638   3.603   8.259  1.8701 -0.0076  0.0893
31577SOL    HW212342   9.632   3.601   8.107 -1.0227  0.3860  0.1399
31578SOL     OW12343   8.631   4.244  12.379 -0.0025 -0.0313 -0.0342
31578SOL    HW112344   8.629   4.334  12.347 -1.7961 -0.3313 -0.9093
31578SOL    HW212345   8.650   4.192  12.301 -0.0843 -0.4906  0.2476
31579SOL     OW12346   0.225   2.848   0.304 -0.2753  0.1524 -0.3933
31579SOL    HW112347   0.276   2.852   0.223  0.5475 -2.2290 -0.0931
31579SOL    HW212348   0.147   2.900   0.286  0.9576  1.5926 -1.8691
31580SOL     OW12349   6.904   3.136  12.588 -1.1728  0.0590 -0.2712
31580SOL    HW112350   6.846   3.198  12.633  1.2020  3.9950 -2.1357
31580SOL    HW212351   6.905   3.165  12.497 -0.1737 -3.0776 -1.3866
31581SOL     OW12352  11.048   7.370   4.564  0.2226 -0.1956 -0.4392
31581SOL    HW112353  11.074   7.330   4.647  0.8143 -1.3218 -1.1461
31581SOL    HW212354  10.968   7.419   4.585  0.5887 -0.1356  0.8750
31582SOL     OW12355   1.654   2.274   5.383  0.5209 -0.2976  0.4800
31582SOL    HW112356   1.739   2.230   5.371 -0.2089 -1.6477  0.0063
31582SOL    HW212357   1.595   2.228   5.323 -0.2323  1.5962 -0.3100
31583SOL     OW12358   6.299   3.362   2.456 -0.0510  0.0729 -0.1909
31583SOL    HW112359   6.225   3.332   2.509 -1.2317 -0.9102 -2.2588
31583SOL    HW212360   6.371   3.371   2.518 -1.3712 -0.8962  1.5778
31584SOL     OW12361   2.582   1.176   1.002  0.7438  0.0161 -0.6320
31584SOL    HW112362   2.537   1.105   1.048  1.5558  0.0924  0.3052
31584SOL    HW212363   2.579   1.151   0.910 -0.3001 -0.4850 -0.4719
31585SOL     OW12364   0.098   7.493   3.107 -0.2103  0.4500 -0.1228
31585SOL    HW112365   0.164   7.471   3.041 -0.6343 -0.4933 -0.2416
31585SOL    HW212366   0.014   7.474   3.064 -0.5886  1.9506 -0.0886
31586SOL     OW12367   6.926   5.424   2.077  0.5475  0.4095 -0.1356
31586SOL    HW112368   6.859   5.363   2.107 -0.6163  1.5249 -0.3627
31586SOL    HW212369   6.992   5.368   2.036 -0.6625 -0.6746 -0.6956
31587SOL     OW12370   6.034   2.846   8.482 -0.4307  0.9252  0.2291
31587SOL    HW112371   6.020   2.883   8.394  0.1427  1.8399  0.5073
31587SOL    HW212372   5.985   2.903   8.540 -1.2652 -0.0128  0.4592
31588SOL     OW12373   2.019   9.435   7.757 -0.2202  0.0988  0.2360
31588SOL    HW112374   2.104   9.398   7.778 -1.0443 -1.4013  1.1207
31588SOL    HW212375   1.981   9.458   7.842 -1.6818 -1.6103  0.1025
31589SOL     OW12376   4.727   9.936   8.164  0.2295  0.0382  0.2919
31589SOL    HW112377   4.750   9.844   8.156  0.1263 -0.0856  1.2717
31589SOL    HW212378   4.653   9.948   8.105  0.2705 -0.5015  0.1351
31590SOL     OW12379   1.861   5.723   2.029  0.4164  0.0375  0.4480
31590SOL    HW112380   1.874   5.816   2.012 -0.1200 -0.3202 -2.5554
31590SOL    HW212381   1.794   5.719   2.097 -0.9358  1.9008 -0.6790
31591SOL     OW12382  13.823  13.242   3.886  0.4026 -0.3101 -0.2312
31591SOL    HW112383  13.831  13.219   3.979  2.2453 -0.4505 -0.4052
31591SOL    HW212384  13.740  13.289   3.881  0.4374  0.0129  1.5566
31592SOL     OW12385   0.123   3.403   3.737  0.8523  0.0738 -0.0157
31592SOL    HW112386   0.072   3.341   3.685  0.9126 -1.7276  1.9390
31592SOL    HW212387   0.064   3.428   3.808  0.5163  3.0302 -1.1732
31593SOL     OW12388   9.988   4.325   3.401  0.5712 -0.2488 -0.4299
31593SOL    HW112389  10.055   4.355   3.463  0.1467 -0.7306  0.2833
31593SOL    HW212390   9.986   4.392   3.333  2.5777 -0.7737 -1.0816
31594SOL     OW12391   7.252  13.968   9.661 -0.5567 -0.2956 -0.2988
31594SOL    HW112392   7.275  14.055   9.627  0.6671 -1.4104 -2.5561
31594SOL    HW212393   7.186  13.935   9.600 -1.0651 -0.9395  0.5763
31595SOL     OW12394   1.749   1.221   5.845 -0.0294 -0.9566 -0.1025
31595SOL    HW112395   1.697   1.151   5.885 -0.3985 -0.9987 -0.6402
31595SOL    HW212396   1.700   1.301   5.863 -1.8882 -1.2791 -3.0672
31596SOL     OW12397   2.622   5.090   3.383  0.0345 -0.6049 -0.6768
31596SOL    HW112398   2.608   5.030   3.457 -1.3396  1.4240  0.8009
31596SOL    HW212399   2.717   5.089   3.370  0.1882 -1.9040  0.3254
31597SOL     OW12400   5.036  11.709   8.241  0.2255  0.1331  0.0112
31597SOL    HW112401   4.986  11.784   8.273  0.4250 -0.1482  1.0188
31597SOL    HW212402   5.048  11.726   8.148 -0.8233  0.7262 -0.0310
31598SOL     OW12403  13.591   0.777  13.443  0.2309 -0.0685 -0.1958
31598SOL    HW112404  13.635   0.807  13.363  0.6087 -0.2185 -0.0447
31598SOL    HW212405  13.504   0.749  13.413  0.6821 -0.9808 -0.7072
31599SOL     OW12406   1.713   7.882   7.368  0.9636  0.0866 -0.0007
31599SOL    HW112407   1.675   7.828   7.437 -0.4092  0.8251 -0.1325
31599SOL    HW212408   1.645   7.885   7.300  1.1104  1.7018 -0.1158
31600SOL     OW12409  10.034   2.086  10.592  0.1018  0.1273 -0.1386
31600SOL    HW112410  10.068   2.010  10.545 -0.4027 -0.9868  1.1981
31600SOL    HW212411  10.050   2.160  10.534  0.1639 -1.0613 -1.7140
31601SOL     OW12412   3.444   6.386   5.003 -0.0611  0.0379 -0.2492
31601SOL    HW112413   3.450   6.308   5.058 -0.1736  0.6617  0.6793
31601SOL    HW212414   3.415   6.354   4.918  1.1897 -1.0965 -0.2743
31602SOL     OW12415   7.812   5.091   4.159 -0.0674 -0.1704 -0.3025
31602SOL    HW112416   7.897   5.136   4.163 -0.3683  0.2861  2.2452
31602SOL    HW212417   7.751   5.151   4.202 -1.0684 -1.7715  0.5846
31603SOL     OW12418   5.613  12.298   0.708  0.0859 -0.0544  0.3679
31603SOL    HW112419   5.519  12.285   0.711  0.1058 -0.5008 -0.6630
31603SOL    HW212420   5.625  12.389   0.734 -0.5355 -0.2934  1.5575
31604SOL     OW12421  12.927   9.044   1.610  0.0396  0.2298  0.2526
31604SOL    HW112422  12.837   9.020   1.630 -0.0392  0.5589  0.3076
31604SOL    HW212423  12.934   9.036   1.515 -0.5269  1.7632  0.0470
31605SOL     OW12424   6.490   6.366  11.152  0.4685  0.2421 -0.5196
31605SOL    HW112425   6.569   6.337  11.198 -0.5465 -0.5946  0.7647
31605SOL    HW212426   6.474   6.297  11.087 -0.1019 -0.4482  0.3282
31606SOL     OW12427   3.721   5.243   8.653 -0.0196  0.1850  0.7347
31606SOL    HW112428   3.632   5.210   8.636  0.5298 -0.9371 -0.1324
31606SOL    HW212429   3.723   5.259   8.747 -0.5835 -1.6103  1.1027
31607SOL     OW12430   6.376  12.610   2.541  0.0427  1.0487 -0.1768
31607SOL    HW112431   6.384  12.702   2.568 -0.7277  0.2811  3.1041
31607SOL    HW212432   6.467  12.581   2.531  0.2933  2.3013 -2.0473
31608SOL     OW12433   3.432  13.489  11.095  0.2780  0.5477 -0.2484
31608SOL    HW112434   3.494  13.428  11.056  1.1568  1.0006  0.4191
31608SOL    HW212435   3.461  13.498  11.186 -0.7522  0.7866  0.0701
31609SOL     OW12436   0.341   4.401   8.476 -0.0579 -0.4885 -0.1487
31609SOL    HW112437   0.426   4.369   8.448 -0.1751 -1.8904  0.9723
31609SOL    HW212438   0.291   4.410   8.395  0.0576 -3.0414 -0.6002
31610SOL     OW12439   9.920  13.909  11.446 -0.2824 -0.6659 -0.1793
31610SOL    HW112440   9.946  13.825  11.485 -0.4859 -0.7839 -0.2987
31610SOL    HW212441   9.833  13.927  11.483  0.6245  0.5366  1.5157
31611SOL     OW12442  10.486  14.049   4.958 -0.1936 -0.0546  0.2221
31611SOL    HW112443  10.472  14.109   4.885  1.3875 -0.3499 -0.3556
31611SOL    HW212444  10.563  13.998   4.933 -0.0341 -0.6363  1.8000
31612SOL     OW12445  10.584   1.969   5.683  0.0269  0.3555  0.6116
31612SOL    HW112446  10.679   1.956   5.674  0.1214  1.9617 -1.7022
31612SOL    HW212447  10.574   2.061   5.707 -0.9515  0.4136  0.0355
31613SOL     OW12448   1.103  10.927  10.643 -0.2532  0.6126 -0.5018
31613SOL    HW112449   1.127  11.015  10.615 -0.4284  0.7174 -0.3166
31613SOL    HW212450   1.043  10.940  10.716  3.0651  0.3569  2.5352
31614SOL     OW12451   6.913   1.282   0.073 -0.1810  0.2217 -0.0328
31614SOL    HW112452   6.935   1.217   0.139 -0.1195  1.6299  1.3938
31614SOL    HW212453   6.818   1.292   0.080 -0.0212  1.3469  0.8307
31615SOL     OW12454   3.823  10.326  12.044  0.2440  0.3016 -0.0974
31615SOL    HW112455   3.776  10.248  12.014  0.4121  0.8613 -1.9024
31615SOL    HW212456   3.893  10.339  11.980  2.6513 -0.2171  2.2231
31616SOL     OW12457   7.264  11.911  13.126 -0.0438 -0.8323 -0.5282
31616SOL    HW112458   7.348  11.956  13.134  1.2546 -3.2518  0.5051
31616SOL    HW212459   7.280  11.823  13.162 -1.9925 -2.6539 -3.6269
31617SOL     OW12460  12.246  13.633  13.839 -0.4588  0.0944  0.4292
31617SOL    HW112461  12.168  13.664  13.793 -1.8952 -0.3737  2.3857
31617SOL    HW212462  12.232  13.538  13.849  2.3461 -0.8378 -2.6784
31618SOL     OW12463   1.046   7.331   7.098 -0.1156  0.1307  0.1273
31618SOL    HW112464   1.088   7.415   7.080 -0.2544  0.1845  0.0550
31618SOL    HW212465   1.064   7.315   7.191  1.1651 -0.4597 -0.1999
31619SOL     OW12466   8.316   0.701   1.846 -0.6289  0.4864  0.0766
31619SOL    HW112467   8.390   0.757   1.871  1.8253 -0.5870 -3.7512
31619SOL    HW212468   8.315   0.631   1.911  0.7132  1.3862  1.1150
31620SOL     OW12469   4.905   3.693   2.258  0.0107  0.6439 -0.8344
31620SOL    HW112470   4.820   3.649   2.263  0.5233 -0.4108 -1.0408
31620SOL    HW212471   4.963   3.628   2.217  0.9181  1.3401 -0.6837
31621SOL     OW12472   3.860   0.888   0.094  0.0303  0.2944 -0.1041
31621SOL    HW112473   3.833   0.973   0.130  0.0991  0.7513 -1.0898
31621SOL    HW212474   3.941   0.907   0.046  0.8127 -0.6016  0.8145
31622SOL     OW12475   4.544  10.397   2.611 -0.7538  0.3137 -0.1975
31622SOL    HW112476   4.484  10.413   2.684 -0.4768  0.2455  0.0476
31622SOL    HW212477   4.512  10.453   2.540 -0.0013  1.7063  0.5240
31623SOL     OW12478   1.180   7.140   4.522  0.8593  0.1833  0.0102
31623SOL    HW112479   1.197   7.164   4.613 -0.6706 -1.6055  0.8276
31623SOL    HW212480   1.091   7.172   4.506  0.4489 -1.0300 -0.2527
31624SOL     OW12481  12.092  13.166   1.863  0.6565  0.5524 -0.2216
31624SOL    HW112482  12.065  13.176   1.954 -0.7179 -0.2012 -0.5256
31624SOL    HW212483  12.110  13.072   1.854 -0.4651  0.4031 -1.0442
31625SOL     OW12484   7.028  11.089  13.938  0.7024 -0.1656 -0.2242
31625SOL    HW112485   6.961  11.032  13.900 -1.5255  2.3097 -0.2377
31625SOL    HW212486   7.049  11.150  13.868  2.5257 -0.4528  0.0243
31626SOL     OW12487   1.677  10.470  13.752 -0.0383 -0.3274 -0.3849
31626SOL    HW112488   1.649  10.379  13.753  0.3217 -0.4670 -1.4680
31626SOL    HW212489   1.772  10.467  13.751  0.0062  0.1003  0.8013
31627SOL     OW12490   7.530   3.215   0.560 -0.4992 -0.3108  0.0131
31627SOL    HW112491   7.561   3.305   0.545 -1.4062 -0.2227 -1.5763
31627SOL    HW212492   7.570   3.189   0.643  0.3726  1.2961  0.1323
31628SOL     OW12493   4.316   8.819   1.512 -0.3462 -0.0415  0.0118
31628SOL    HW112494   4.245   8.755   1.508 -0.9499  0.6675 -1.0003
31628SOL    HW212495   4.289   8.880   1.580  0.4240 -1.0526  1.2687
31629SOL     OW12496   3.261   2.842  13.896  0.2361 -0.5191  0.7463
31629SOL    HW112497   3.267   2.754  13.934 -0.2486 -0.4436  1.0052
31629SOL    HW212498   3.167   2.854  13.878  0.4505 -0.5684 -0.5098
31630SOL     OW12499  10.797  10.786   0.714 -0.1827 -0.4696 -0.3135
31630SOL    HW112500  10.757  10.853   0.659  1.2573  1.7166  1.1370
31630SOL    HW212501  10.887  10.776   0.680  0.0692 -0.6098  0.3690
31631SOL     OW12502   1.985  11.665   3.532 -0.1006 -0.4322 -0.2704
31631SOL    HW112503   1.950  11.686   3.619 -2.6099 -0.7091 -1.1408
31631SOL    HW212504   2.034  11.744   3.507  0.9440 -0.4676  1.4738
31632SOL     OW12505   3.450  13.788   1.290  0.3076 -0.3652 -0.2641
31632SOL    HW112506   3.396  13.734   1.233 -0.9495 -1.0617  1.4853
31632SOL    HW212507   3.441  13.748   1.377  0.9237  1.5004  0.7261
31633SOL     OW12508   1.315   4.441   4.664  0.0243  0.0184 -0.5932
31633SOL    HW112509   1.371   4.503   4.618  0.8836  0.5796  1.1533
31633SOL    HW212510   1.320   4.361   4.612  0.7072  0.7115 -1.6282
31634SOL     OW12511   1.386   4.032   5.320  0.2305 -0.0703  0.4127
31634SOL    HW112512   1.321   3.966   5.346  0.7168 -1.4423 -1.5411
31634SOL    HW212513   1.405   4.010   5.228  2.0106  1.5083  0.3594
31635SOL     OW12514   4.060   4.237   0.487 -0.0807 -0.3830 -0.9682
31635SOL    HW112515   3.976   4.218   0.528 -0.1529 -0.8093 -1.3050
31635SOL    HW212516   4.109   4.285   0.554 -0.2286 -0.9853 -0.4077
31636SOL     OW12517   3.619   1.131   2.800  0.2622 -0.0776 -0.0663
31636SOL    HW112518   3.568   1.114   2.720  0.6674  3.0749 -1.1346
31636SOL    HW212519   3.709   1.111   2.775  0.4020  0.9982 -0.4966
31637SOL     OW12520   7.991  11.049  12.261 -0.0971  0.5474 -0.3103
31637SOL    HW112521   8.034  11.103  12.327 -0.6207  0.1635  0.3564
31637SOL    HW212522   7.898  11.074  12.266 -0.9115 -2.4351  2.1154
31638SOL     OW12523   9.143  10.970   3.884 -0.2551  0.3404  0.1877
31638SOL    HW112524   9.162  11.041   3.823 -0.8264  0.5324  0.2255
31638SOL    HW212525   9.182  10.999   3.967  0.2756  0.2066 -0.0129
31639SOL     OW12526   8.333   2.080   4.882  0.5336 -0.1074 -0.1646
31639SOL    HW112527   8.241   2.067   4.859  0.9044 -2.8916 -0.4450
31639SOL    HW212528   8.381   2.031   4.815  2.2254  0.9186  0.2485
31640SOL     OW12529   3.928   7.627   8.457 -0.3764 -0.5457 -0.4389
31640SOL    HW112530   3.882   7.554   8.415  0.4833 -1.5124  0.2416
31640SOL    HW212531   4.004   7.586   8.499 -0.0885  0.6893  0.2937
31641SOL     OW12532   9.750   1.912  11.194  0.0089  0.2275 -1.0162
31641SOL    HW112533   9.739   1.944  11.104 -0.9997 -1.1859 -1.4376
31641SOL    HW212534   9.671   1.941  11.240  1.0532  1.9619 -0.2231
31642SOL     OW12535   0.489   6.771   3.166 -0.3788 -0.4035  0.0357
31642SOL    HW112536   0.481   6.802   3.256 -1.2461 -1.1014  0.2090
31642SOL    HW212537   0.569   6.719   3.165 -0.6696 -0.8708  0.5543
31643SOL     OW12538   2.032   1.454   9.091  0.1800  0.1363  0.0280
31643SOL    HW112539   2.005   1.543   9.070 -0.1035  0.3217  1.1248
31643SOL    HW212540   2.016   1.445   9.185  1.2151 -0.7171  0.1422
31644SOL     OW12541   0.164  11.698   6.802 -0.5008 -0.5067 -0.5516
31644SOL    HW112542   0.219  11.623   6.824 -1.6384 -1.1792  0.0968
31644SOL    HW212543   0.097  11.700   6.871 -1.2823  0.2948 -1.2983
31645SOL     OW12544  11.376   8.488   2.216 -0.0330 -0.6121  0.3312
31645SOL    HW112545  11.335   8.440   2.288 -1.1322 -0.9419 -0.4916
31645SOL    HW212546  11.335   8.453   2.137  0.7506  0.1344 -0.4296
31646SOL     OW12547   4.939   0.032  12.699  0.8538 -0.4901 -0.2693
31646SOL    HW112548   4.855   0.051  12.657  0.5956 -1.3706 -0.1855
31646SOL    HW212549   4.988   0.113  12.693 -1.0784  1.0283  2.2582
31647SOL     OW12550   6.648  11.443   3.198 -0.4050  0.7148  0.1960
31647SOL    HW112551   6.629  11.511   3.263  0.5153  1.6094 -0.4416
31647SOL    HW212552   6.743  11.442   3.190 -0.4757  0.2824 -0.7891
31648SOL     OW12553   1.149   9.427  11.530 -0.1300  0.3969 -0.6243
31648SOL    HW112554   1.244   9.430  11.525  0.0148 -2.7455 -2.3627
31648SOL    HW212555   1.131   9.386  11.615  0.0377  0.9065 -0.3363
31649SOL     OW12556   8.392   0.119   8.333  0.2340  0.1265 -0.3726
31649SOL    HW112557   8.367   0.135   8.424 -0.2948  0.0690 -0.5051
31649SOL    HW212558   8.404   0.206   8.295 -0.7982  0.1890 -0.5867
31650SOL     OW12559  10.331   2.571  10.295  0.5408  0.3013  0.3370
31650SOL    HW112560  10.398   2.568  10.363  0.6659 -2.2221  0.1856
31650SOL    HW212561  10.343   2.491  10.245  0.3176  1.9475 -2.6106
31651SOL     OW12562   4.708   9.546  12.665 -0.1469 -0.0279 -0.1771
31651SOL    HW112563   4.745   9.618  12.715  1.4217 -0.8320 -0.1407
31651SOL    HW212564   4.661   9.589  12.593 -1.1264  1.0709  1.0597
31652SOL     OW12565   1.154   6.273   5.182 -0.5380  0.2443 -0.2417
31652SOL    HW112566   1.113   6.257   5.098  0.5266 -1.3319 -0.4984
31652SOL    HW212567   1.084   6.259   5.246 -0.9686 -0.0911 -0.7810
31653SOL     OW12568   8.879  10.763  13.248  0.0249 -0.7629 -0.3660
31653SOL    HW112569   8.791  10.779  13.281  1.4173 -0.8744  4.0953
31653SOL    HW212570   8.937  10.805  13.312  3.3045 -0.7679 -3.0059
31654SOL     OW12571   6.717   1.284   3.170  0.4298 -0.0913  0.5660
31654SOL    HW112572   6.715   1.378   3.187  0.0428 -0.0191  0.1223
31654SOL    HW212573   6.672   1.273   3.087  0.1471 -0.7062  0.7911
31655SOL     OW12574   1.862  12.525   6.066  0.3628 -0.7177  0.6071
31655SOL    HW112575   1.785  12.484   6.027  1.9980 -1.4645 -2.0840
31655SOL    HW212576   1.875  12.606   6.016  0.6229  0.0833  1.9039
31656SOL     OW12577   1.455   0.951   2.222  0.2157  0.3044 -0.3656
31656SOL    HW112578   1.549   0.943   2.238  0.6183 -0.1974 -2.6458
31656SOL    HW212579   1.442   1.045   2.206  0.7392  0.1064 -2.1060
31657SOL     OW12580   4.492   1.958   2.172 -0.3351  0.1700 -0.0553
31657SOL    HW112581   4.449   2.042   2.187 -0.6208 -0.0224  0.2109
31657SOL    HW212582   4.575   1.981   2.129 -1.0872  0.4978 -1.4012
31658SOL     OW12583   9.530   7.629   7.939 -0.0728 -0.0652 -0.4509
31658SOL    HW112584   9.497   7.587   8.018 -2.1757 -0.2083 -1.3105
31658SOL    HW212585   9.570   7.710   7.969  0.7184 -0.9209  0.8874
31659SOL     OW12586   2.591  11.333   8.986  0.4539  0.2919 -0.3211
31659SOL    HW112587   2.524  11.311   8.921 -1.4037 -2.3415  2.2403
31659SOL    HW212588   2.573  11.425   9.008 -0.2920  0.5547 -1.8931
31660SOL     OW12589   5.095  10.234   4.712 -0.7621  0.0645 -0.2726
31660SOL    HW112590   5.181  10.264   4.684 -0.8702  0.5779 -0.0655
31660SOL    HW212591   5.093  10.141   4.689 -0.3641  0.1780 -0.7869
31661SOL     OW12592  12.707  11.708   8.645 -0.0872  0.0497  0.1988
31661SOL    HW112593  12.674  11.791   8.679  2.3700  0.8014  0.9055
31661SOL    HW212594  12.771  11.733   8.578 -1.0331 -1.3481 -1.2908
31662SOL     OW12595  14.035  12.749   4.421 -0.3092  0.2672  0.3286
31662SOL    HW112596  14.038  12.755   4.325 -1.1008 -1.4547  0.1582
31662SOL    HW212597  14.047  12.839   4.451 -1.3082  1.0452 -1.4340
31663SOL     OW12598   4.724  12.303   9.881  0.0051  0.1871  0.2404
31663SOL    HW112599   4.643  12.271   9.920 -0.3915 -0.6581 -1.2009
31663SOL    HW212600   4.786  12.230   9.891  0.5905  0.8115  1.2963
31664SOL     OW12601   8.384  12.672   5.791  0.0612 -0.6313  0.3049
31664SOL    HW112602   8.442  12.744   5.815  1.7168 -1.2102 -1.6880
31664SOL    HW212603   8.405  12.602   5.852  0.3445 -0.3038  0.5831
31665SOL     OW12604  12.169   3.312   1.867  0.1046 -0.0066 -0.1021
31665SOL    HW112605  12.215   3.230   1.851 -0.6584 -0.3807 -0.4355
31665SOL    HW212606  12.141   3.306   1.958  4.0711  1.9343  1.4338
31666SOL     OW12607  13.894  13.905  11.837 -0.6038 -0.6303 -0.3453
31666SOL    HW112608  13.855  13.986  11.804  0.3621 -0.5335 -1.2957
31666SOL    HW212609  13.826  13.838  11.824 -0.9832 -0.1989 -0.6074
31667SOL     OW12610   9.234  11.261   8.129  0.6959 -0.2727  0.3861
31667SOL    HW112611   9.176  11.266   8.053 -1.0118  1.4255  1.6957
31667SOL    HW212612   9.261  11.352   8.145  2.3384 -0.8102  0.8517
31668SOL     OW12613   3.107   5.931  12.266 -0.4919  0.3070 -0.1971
31668SOL    HW112614   3.175   5.998  12.256  0.1518 -0.4127 -0.8411
31668SOL    HW212615   3.097   5.919  12.360  0.8779 -0.1509 -0.0935
31669SOL     OW12616   7.951  11.677   2.579 -0.0805 -0.1990 -0.4213
31669SOL    HW112617   7.928  11.640   2.494 -1.4661  0.1541 -0.2203
31669SOL    HW212618   7.997  11.759   2.558 -2.2802  1.0068 -0.8932
31670SOL     OW12619   4.571   1.836   6.272 -0.1843 -0.6093  0.1170
31670SOL    HW112620   4.593   1.929   6.268 -1.3717 -0.1698  2.2190
31670SOL    HW212621   4.635   1.793   6.215  2.5670  1.1167  1.6842
31671SOL     OW12622   9.320   2.730   6.396 -0.4044  0.1501 -0.7043
31671SOL    HW112623   9.271   2.711   6.476  2.4808  1.6154  1.5840
31671SOL    HW212624   9.290   2.817   6.370  0.8582  1.0464  0.6943
31672SOL     OW12625  11.160  11.494  12.401  0.0569  0.4396  0.6045
31672SOL    HW112626  11.150  11.588  12.391 -0.5639  0.2688 -0.3935
31672SOL    HW212627  11.125  11.456  12.321 -0.6161 -0.7003  1.4008
31673SOL     OW12628   1.845  13.404   1.918  0.4695  0.1873 -0.2458
31673SOL    HW112629   1.857  13.499   1.921  0.2051  0.2138 -0.0405
31673SOL    HW212630   1.878  13.372   2.002  1.4227 -0.0047 -0.6776
31674SOL     OW12631   6.561   3.795  12.850  0.1614  0.2974 -0.1305
31674SOL    HW112632   6.626   3.776  12.918  0.2297 -0.4638 -0.3904
31674SOL    HW212633   6.525   3.709  12.827 -1.7771  0.7909  0.8122
31675SOL     OW12634  10.895  13.899   8.400 -0.3254  0.4823 -0.5594
31675SOL    HW112635  10.914  13.866   8.488 -0.8738 -0.3655 -0.7518
31675SOL    HW212636  10.837  13.834   8.361  0.3561  0.5632 -1.7638
31676SOL     OW12637   9.150  12.042  10.545 -0.1840  0.0044  0.3297
31676SOL    HW112638   9.096  12.094  10.485 -0.1979  0.8098  1.0309
31676SOL    HW212639   9.112  12.057  10.631  2.8485  3.0177  1.3591
31677SOL     OW12640   8.407   0.350   3.629  0.1779 -0.1997  0.2267
31677SOL    HW112641   8.471   0.284   3.602 -0.6641 -1.4343  1.1066
31677SOL    HW212642   8.457   0.431   3.637  1.2719 -0.7484 -0.7621
31678SOL     OW12643   5.278   7.328   3.203 -0.1657  0.5550  0.4520
31678SOL    HW112644   5.251   7.321   3.294 -3.2995 -1.5553 -0.4694
31678SOL    HW212645   5.295   7.237   3.176 -2.6239  0.6666 -1.8528
31679SOL     OW12646   9.949   3.117  10.091 -0.0725  0.1573 -0.5054
31679SOL    HW112647   9.937   3.038  10.039  1.2823 -0.5930  0.2696
31679SOL    HW212648  10.035   3.150  10.065 -0.1471  0.7538 -0.0197
31680SOL     OW12649  12.738   9.882  10.869  0.1533  0.0965 -0.0718
31680SOL    HW112650  12.827   9.919  10.866  0.2568 -0.0930  0.5283
31680SOL    HW212651  12.740   9.809  10.808 -0.4258  1.8454 -2.3006
31681SOL     OW12652   1.270   7.076   2.432 -0.0324 -0.2497 -0.7124
31681SOL    HW112653   1.203   7.134   2.396  0.0749 -0.8760 -1.9881
31681SOL    HW212654   1.312   7.128   2.500 -1.1865  0.4861 -0.5308
31682SOL     OW12655   2.497   9.164   2.646  0.5058 -0.0636  0.7432
31682SOL    HW112656   2.443   9.216   2.586 -0.4778 -0.1615  1.5097
31682SOL    HW212657   2.493   9.075   2.610  1.6989  0.2565 -0.2344
31683SOL     OW12658   8.374   1.010   4.163 -0.3560 -0.0162 -0.3267
31683SOL    HW112659   8.298   0.953   4.153  0.1028 -0.6574 -0.2157
31683SOL    HW212660   8.339   1.092   4.196 -0.7826 -0.9500  1.6945
31684SOL     OW12661  10.522   0.289   0.552  0.4423 -0.0682  0.0212
31684SOL    HW112662  10.592   0.234   0.586 -0.2261 -1.9166 -1.4035
31684SOL    HW212663  10.548   0.379   0.573  2.7510 -0.7708  0.3380
31685SOL     OW12664   3.908   1.568   9.107  0.3217  0.4076 -0.0057
31685SOL    HW112665   3.840   1.609   9.159 -0.5353 -1.7422  0.6936
31685SOL    HW212666   3.873   1.565   9.019 -0.0534  0.2604  0.1461
31686SOL     OW12667   9.047   4.414   9.923 -0.2436  0.2579 -0.0233
31686SOL    HW112668   9.130   4.454   9.950 -0.7143 -0.1428  2.2268
31686SOL    HW212669   9.072   4.347   9.860  1.2201 -0.2611  1.0721
31687SOL     OW12670   3.971   1.077   8.566 -0.1476  0.1505  0.5228
31687SOL    HW112671   4.044   1.058   8.508  0.2706 -0.8908  1.3476
31687SOL    HW212672   3.893   1.053   8.515  0.1288  0.4090 -0.0324
31688SOL     OW12673   4.791   5.121   0.082 -0.0758 -0.1962  0.0402
31688SOL    HW112674   4.717   5.063   0.099 -0.7903  0.0360 -1.9685
31688SOL    HW212675   4.863   5.063   0.059 -0.5616 -0.3524 -1.1529
31689SOL     OW12676   5.212   2.047  12.835 -0.4103 -0.2021 -0.3775
31689SOL    HW112677   5.243   1.957  12.836  1.6020  0.4163 -1.2497
31689SOL    HW212678   5.290   2.099  12.853 -1.4420  1.3957 -0.2757
31690SOL     OW12679  10.824   2.560   9.387  0.3672 -0.1861  0.3009
31690SOL    HW112680  10.838   2.648   9.420  0.2649 -0.1857  0.3461
31690SOL    HW212681  10.759   2.570   9.318  0.5240 -0.1970  0.1518
31691SOL     OW12682   6.155   3.006   9.232  0.1431  0.7236 -0.1431
31691SOL    HW112683   6.185   3.004   9.322 -1.0052 -0.4245  0.2491
31691SOL    HW212684   6.060   2.996   9.238  0.0938  0.1412 -1.4809
31692SOL     OW12685  11.455   2.130   0.104  0.0747  0.6132  0.1466
31692SOL    HW112686  11.551   2.127   0.099  0.0382  1.2267 -1.7185
31692SOL    HW212687  11.429   2.183   0.029 -1.7766 -0.2598  0.1134
31693SOL     OW12688  12.178  11.017  12.391 -0.2359  0.0792  0.1894
31693SOL    HW112689  12.203  11.094  12.441 -0.3993 -0.1385  0.6143
31693SOL    HW212690  12.097  10.987  12.432 -1.1466  0.7106 -1.0860
31694SOL     OW12691   6.217   3.029  13.218 -0.7253 -0.0272 -0.4356
31694SOL    HW112692   6.163   3.109  13.223  1.2611  1.3316  0.6299
31694SOL    HW212693   6.307   3.061  13.225  0.1348 -2.3929 -0.0474
31695SOL     OW12694  13.624  10.263  10.980  0.1071  0.0367  0.2415
31695SOL    HW112695  13.661  10.343  10.942 -1.6226  2.0758  2.5244
31695SOL    HW212696  13.611  10.205  10.906  2.0031  1.6114 -1.4518
31696SOL     OW12697   4.677   6.096  11.599  0.2946  0.0430  0.3126
31696SOL    HW112698   4.750   6.083  11.659  0.8666 -0.3410 -0.4478
31696SOL    HW212699   4.691   6.032  11.529  0.6067  1.5938 -1.1173
31697SOL     OW12700  13.787   8.555  11.278 -0.0019  0.3798  0.1585
31697SOL    HW112701  13.719   8.602  11.229  0.0435  0.1553 -0.1196
31697SOL    HW212702  13.768   8.463  11.263  1.0218  0.3049 -0.8540
31698SOL     OW12703   1.412  12.242   5.248 -0.1015  0.1088  0.2777
31698SOL    HW112704   1.376  12.160   5.214 -1.8286  0.8900  0.1762
31698SOL    HW212705   1.478  12.267   5.184  0.7781 -1.3992  0.5277
31699SOL     OW12706   6.489  12.268   0.041 -0.3413 -0.1425  0.5547
31699SOL    HW112707   6.447  12.210   0.104  1.3763 -2.2417 -0.0981
31699SOL    HW212708   6.515  12.345   0.092 -1.1175 -0.7069  1.8488
31700SOL     OW12709   0.705   3.955  11.931  0.6205  0.6856  0.4666
31700SOL    HW112710   0.763   3.884  11.958 -0.4290 -0.4152 -0.0596
31700SOL    HW212711   0.763   4.017  11.886  1.4849 -0.0777  0.4917
31701SOL     OW12712  12.001   3.564   4.554  0.4964 -0.1859  0.4943
31701SOL    HW112713  12.054   3.497   4.597 -0.8124 -1.1028  0.7545
31701SOL    HW212714  11.917   3.521   4.539  0.0775  0.9698 -0.6096
31702SOL     OW12715   2.266  11.638   3.105 -0.0466  0.0915  0.4954
31702SOL    HW112716   2.310  11.596   3.031 -0.5868  0.0607  0.1788
31702SOL    HW212717   2.307  11.601   3.183  2.0336  1.7118  0.2257
31703SOL     OW12718   9.780   8.021   2.331 -0.0520 -0.2813  0.5022
31703SOL    HW112719   9.749   8.065   2.252  0.5727 -0.8788 -0.0929
31703SOL    HW212720   9.870   8.051   2.341 -0.3043  0.2438  1.3362
31704SOL     OW12721   9.698   0.246   7.298  0.2173 -0.5829  0.2230
31704SOL    HW112722   9.694   0.200   7.214 -2.8593  0.0846 -0.0939
31704SOL    HW212723   9.607   0.255   7.326  0.9624  1.5620  2.3478
31705SOL     OW12724   8.195   6.011   8.374 -0.0362 -0.2210 -0.1139
31705SOL    HW112725   8.182   6.099   8.409  1.5146 -0.6300  1.6437
31705SOL    HW212726   8.251   6.024   8.297 -1.4047  0.4712 -1.0227
31706SOL     OW12727   9.468   3.884   3.349  0.2370 -0.3412 -0.1901
31706SOL    HW112728   9.431   3.889   3.261  2.4777  0.6522 -1.1555
31706SOL    HW212729   9.479   3.790   3.365  0.7938 -0.5009 -1.4200
31707SOL     OW12730  11.104   8.173   7.753 -0.5465  0.6227  0.4226
31707SOL    HW112731  11.156   8.117   7.811 -0.2954  0.1580 -0.2455
31707SOL    HW212732  11.034   8.206   7.809 -1.0301 -0.8041  0.7072
31708SOL     OW12733   3.847   2.933   8.483 -0.1114 -0.3329  0.5069
31708SOL    HW112734   3.859   3.028   8.490 -1.9545 -0.1811  2.9380
31708SOL    HW212735   3.935   2.897   8.495  0.5110  1.0357  0.2764
31709SOL     OW12736   4.808  12.074   7.602  0.3539 -0.3203 -0.3817
31709SOL    HW112737   4.851  12.074   7.516 -0.1233 -2.5053 -0.6801
31709SOL    HW212738   4.880  12.078   7.665  0.7953 -0.2201 -0.8798
31710SOL     OW12739   5.754   2.089   9.388  0.1304 -0.7078 -0.7284
31710SOL    HW112740   5.839   2.088   9.431 -0.7060  1.4642  1.1520
31710SOL    HW212741   5.768   2.143   9.310  0.7184 -1.2902 -1.0334
31711SOL     OW12742  11.377  10.525  12.810 -0.2211 -0.1193 -0.7647
31711SOL    HW112743  11.350  10.463  12.742 -3.0651 -0.0373  0.1744
31711SOL    HW212744  11.366  10.477  12.892 -0.7557  1.0532 -0.1317
31712SOL     OW12745   1.962  13.254   6.413  0.1835  0.1174 -0.1259
31712SOL    HW112746   2.018  13.196   6.465 -0.9089 -1.4554 -0.6291
31712SOL    HW212747   2.023  13.312   6.367  1.2185  0.8107  1.9836
31713SOL     OW12748  12.183  13.933   1.987 -0.3071 -0.3609  0.0896
31713SOL    HW112749  12.158  13.868   2.054 -1.7254  0.7682  0.7231
31713SOL    HW212750  12.141  13.902   1.907  0.5817 -1.2029 -0.0617
31714SOL     OW12751  13.881   7.943   2.375  0.0522 -0.4685 -0.1398
31714SOL    HW112752  13.822   7.972   2.306  1.7827 -0.0592 -1.5095
31714SOL    HW212753  13.917   8.024   2.412 -1.0817 -0.6674  1.4979
31715SOL     OW12754  12.804  11.190  13.814  0.2496 -0.4959 -0.2962
31715SOL    HW112755  12.862  11.189  13.891 -0.3936  2.1451  0.2947
31715SOL    HW212756  12.720  11.221  13.848 -0.0240  0.8076 -2.0770
31716SOL     OW12757  13.038   1.095  10.083 -0.1387  0.3615 -0.4342
31716SOL    HW112758  13.009   1.009  10.115  0.8885 -0.0872 -0.6551
31716SOL    HW212759  12.962   1.152  10.094 -0.4105 -0.2478  0.9928
31717SOL     OW12760   5.742  10.727   9.082  0.0605 -0.2091  0.0286
31717SOL    HW112761   5.834  10.752   9.079 -0.4109  1.9880  1.0941
31717SOL    HW212762   5.717  10.716   8.990  0.7158  2.2236 -0.5347
31718SOL     OW12763  13.421  12.132   6.457  0.4182  0.3787  0.6010
31718SOL    HW112764  13.496  12.118   6.399 -1.4023  0.2696 -1.8732
31718SOL    HW212765  13.381  12.213   6.425 -1.7351 -0.6978  0.4358
31719SOL     OW12766   0.051  12.900   2.669  0.0123  0.2411 -0.0010
31719SOL    HW112767  -0.025  12.910   2.612  0.0419 -0.6877 -0.2234
31719SOL    HW212768   0.043  12.971   2.732 -0.7580  0.4694 -0.3391
31720SOL     OW12769   2.542  11.496  11.517 -0.5612 -0.4897 -0.0160
31720SOL    HW112770   2.487  11.569  11.546  0.5204 -0.5145  2.3881
31720SOL    HW212771   2.631  11.525  11.536 -0.0771 -2.2598  0.6563
31721SOL     OW12772   9.275   9.385  13.812 -0.4471 -0.2457  0.0583
31721SOL    HW112773   9.219   9.404  13.888  0.1677  1.0525  0.2190
31721SOL    HW212774   9.361   9.419  13.837  0.1116 -1.0925 -0.6745
31722SOL     OW12775   5.333  12.755   8.422 -0.1830 -0.6183  0.0359
31722SOL    HW112776   5.388  12.795   8.489  0.2943 -2.8667  1.0676
31722SOL    HW212777   5.243  12.775   8.449  0.0329 -0.6077  0.7668
31723SOL     OW12778   7.164  11.912   8.907 -0.2856 -0.6403  0.1254
31723SOL    HW112779   7.252  11.951   8.910 -0.3019 -0.5734 -0.2343
31723SOL    HW212780   7.135  11.926   8.817 -1.8312  1.8957  0.9176
31724SOL     OW12781   2.539   6.506   8.014  0.9370 -0.5081 -0.0451
31724SOL    HW112782   2.593   6.506   8.094 -0.5613  0.5457  1.0142
31724SOL    HW212783   2.484   6.583   8.023 -2.1719 -2.5583 -0.0860
31725SOL     OW12784   4.819  10.162   5.377  0.6085 -0.4920  0.0114
31725SOL    HW112785   4.890  10.107   5.411  1.1742  0.0215 -0.3118
31725SOL    HW212786   4.864  10.230   5.327 -0.1314 -0.2998 -0.4028
31726SOL     OW12787   0.712  12.584   2.928  0.5028 -0.0694  0.7433
31726SOL    HW112788   0.798  12.625   2.916 -0.1818  1.1884 -0.1596
31726SOL    HW212789   0.650  12.651   2.900 -0.8582 -0.4519  2.6477
31727SOL     OW12790  12.777   9.797   8.741  0.7036 -0.2900 -0.2426
31727SOL    HW112791  12.812   9.721   8.694  2.1923  1.0665 -1.4411
31727SOL    HW212792  12.807   9.872   8.690 -0.3604  1.1375  1.1521
31728SOL     OW12793   8.353   7.283   3.541 -0.1624  0.2886  0.2115
31728SOL    HW112794   8.395   7.343   3.602 -0.3470  1.5716 -0.8572
31728SOL    HW212795   8.303   7.223   3.596  0.0347  1.1164  1.3288
31729SOL     OW12796   5.551   7.969   3.136  0.5370  0.5629  0.7335
31729SOL    HW112797   5.629   7.993   3.086  1.3842  0.8982  2.1478
31729SOL    HW212798   5.509   7.901   3.083  2.4467 -0.4961  0.4782
31730SOL     OW12799  12.212   1.661  12.380  0.1773 -0.0926 -0.2371
31730SOL    HW112800  12.213   1.586  12.320  0.6150  0.3151 -0.7576
31730SOL    HW212801  12.125   1.661  12.418 -0.0635 -0.4428 -0.7772
31731SOL     OW12802   1.858   1.644  11.754 -0.2704 -0.2382  0.5099
31731SOL    HW112803   1.838   1.574  11.691 -0.3709  0.1879  0.0672
31731SOL    HW212804   1.775   1.661  11.798 -0.9241  1.4459 -1.2417
31732SOL     OW12805   1.552  10.461  10.297  0.1930 -0.4717 -0.2854
31732SOL    HW112806   1.493  10.450  10.371 -0.0058  1.0560 -0.1816
31732SOL    HW212807   1.497  10.443  10.220 -0.5559  1.2800 -0.2115
31733SOL     OW12808   6.506   6.190   7.541  0.2038 -0.1453 -0.1965
31733SOL    HW112809   6.538   6.276   7.511  1.2936 -0.7725 -0.9188
31733SOL    HW212810   6.416   6.207   7.570  0.7099  1.4300  0.5950
31734SOL     OW12811   9.895   1.337   0.204  0.0039  0.1358  0.2609
31734SOL    HW112812   9.914   1.279   0.277 -0.4751  0.6121  0.7731
31734SOL    HW212813   9.970   1.396   0.198 -0.6064  1.0645  1.3414
31735SOL     OW12814   2.323   4.251   7.873  0.1927 -0.2493  0.2681
31735SOL    HW112815   2.392   4.211   7.821  1.3346  0.1402  1.4192
31735SOL    HW212816   2.285   4.318   7.816  0.5960 -0.6441 -0.4711
31736SOL     OW12817  13.267   8.356   4.804  0.0081  0.2332  0.0723
31736SOL    HW112818  13.196   8.420   4.813  0.6847  0.8627  1.2561
31736SOL    HW212819  13.233   8.277   4.847 -0.8948 -0.2951 -1.5418
31737SOL     OW12820   0.041  13.984   8.007 -0.4482 -0.0600  0.1763
31737SOL    HW112821   0.071  14.028   7.927  2.4645  0.4998  1.4503
31737SOL    HW212822   0.009  14.055   8.063 -0.1996 -0.1428  0.4251
31738SOL     OW12823  11.597   0.034   2.232 -0.8824 -0.2174  0.3656
31738SOL    HW112824  11.584   0.062   2.141  1.2372  1.4706  0.4886
31738SOL    HW212825  11.560   0.106   2.284 -1.8896 -1.0751  0.8875
31739SOL     OW12826  10.677   4.905   0.380 -0.5266 -0.2066  0.6369
31739SOL    HW112827  10.724   4.847   0.439 -0.0242 -0.4789 -0.0106
31739SOL    HW212828  10.644   4.848   0.311  1.0267  0.3687 -0.6884
31740SOL     OW12829   2.673   5.113   6.927  0.0271  0.3992 -0.4499
31740SOL    HW112830   2.636   5.057   6.996 -1.7010  1.4707 -0.4401
31740SOL    HW212831   2.665   5.061   6.847  1.8258 -0.7579  0.0723
31741SOL     OW12832   7.503  11.325  13.305 -0.2261  0.1146 -0.3170
31741SOL    HW112833   7.430  11.367  13.351 -0.4549  0.5583 -1.0588
31741SOL    HW212834   7.481  11.335  13.212  1.2170  1.0755 -0.5814
31742SOL     OW12835   7.176   1.475   8.293  0.7386  0.1915  0.6502
31742SOL    HW112836   7.202   1.400   8.346  1.8316  0.5504  0.6414
31742SOL    HW212837   7.168   1.439   8.204  2.5112  0.3056  0.4057
31743SOL     OW12838   2.005  12.979   6.132  0.4018  0.3071  0.0700
31743SOL    HW112839   2.070  13.049   6.126 -1.6292  2.2222 -1.2358
31743SOL    HW212840   1.971  12.985   6.221  0.7039  0.5420  0.1710
31744SOL     OW12841   1.865  13.913  10.040 -0.5879 -0.0016 -0.1015
31744SOL    HW112842   1.842  13.851  10.109  1.4600  0.1734  0.7951
31744SOL    HW212843   1.958  13.898  10.024 -0.9549  0.0413 -2.7775
31745SOL     OW12844   1.126  10.520   8.596  0.1505 -0.3254  1.1509
31745SOL    HW112845   1.112  10.610   8.626  1.8330  0.9105 -1.4093
31745SOL    HW212846   1.044  10.496   8.554 -0.2948  0.0266  1.8028
31746SOL     OW12847   9.018  13.781   8.128  0.1590  0.1215 -0.2275
31746SOL    HW112848   9.023  13.705   8.071 -1.3061  0.6551 -1.1273
31746SOL    HW212849   9.109  13.812   8.135  0.5333 -0.6741 -1.2867
31747SOL     OW12850   6.810  12.401   5.324  0.1294 -0.5086 -0.2596
31747SOL    HW112851   6.797  12.424   5.232 -1.7141 -1.1885 -0.2038
31747SOL    HW212852   6.804  12.306   5.325  2.8291 -0.7482  0.2185
31748SOL     OW12853   9.001   8.180   9.294  0.1093 -0.3371 -0.0196
31748SOL    HW112854   9.077   8.136   9.256 -0.4884 -0.6470 -0.8979
31748SOL    HW212855   8.955   8.218   9.219 -0.5795 -0.1149  0.4997
31749SOL     OW12856   2.287   3.925   1.681 -0.1253  0.2602  0.8132
31749SOL    HW112857   2.240   3.881   1.752 -0.9343 -1.3684 -0.6604
31749SOL    HW212858   2.218   3.965   1.628  0.1887 -1.0978 -0.6865
31750SOL     OW12859   5.066   6.140   4.559  0.3097  0.3296 -0.0088
31750SOL    HW112860   4.996   6.165   4.497  2.2766  1.8366 -1.8049
31750SOL    HW212861   5.055   6.200   4.633  1.2154  2.4812 -1.5018
31751SOL     OW12862  11.190   2.718   6.607  0.1275  0.0178 -0.0010
31751SOL    HW112863  11.166   2.630   6.579 -1.6712  0.3414  0.3657
31751SOL    HW212864  11.279   2.731   6.576 -0.3049 -1.1797 -1.8486
31752SOL     OW12865   4.968  13.819   9.025  0.1726 -0.0877  0.0109
31752SOL    HW112866   5.034  13.848   8.962 -0.1446 -1.1411 -0.8389
31752SOL    HW212867   4.963  13.724   9.012  0.9517 -0.5402  2.4603
31753SOL     OW12868   6.651   2.915   5.131 -0.0949  0.3799 -0.5141
31753SOL    HW112869   6.724   2.886   5.185 -0.9056 -0.4069  0.2012
31753SOL    HW212870   6.608   2.834   5.103 -1.4497  0.8189  0.1729
31754SOL     OW12871  12.330  10.373   6.423 -0.0733  0.2077  0.5337
31754SOL    HW112872  12.297  10.314   6.355 -0.9655 -0.0610  1.1704
31754SOL    HW212873  12.398  10.323   6.467 -0.0416  0.0813  0.3438
31755SOL     OW12874  11.308   2.563  10.209  0.3226  0.3126  0.0983
31755SOL    HW112875  11.284   2.572  10.118 -0.2329 -1.0841  0.0808
31755SOL    HW212876  11.404   2.565  10.209  0.3361  3.1827 -0.1388
31756SOL     OW12877  13.305   2.811  12.736  0.5162  0.1709 -0.0360
31756SOL    HW112878  13.211   2.803  12.755  0.5946  1.3356  0.9634
31756SOL    HW212879  13.309   2.813  12.641 -0.5985  1.2106 -0.0938
31757SOL     OW12880  14.043   5.436  10.701  0.3895  0.2363 -0.7428
31757SOL    HW112881  14.006   5.410  10.786  1.4779 -0.2509 -0.4020
31757SOL    HW212882  13.984   5.398  10.636  0.7697 -1.3038 -0.2243
31758SOL     OW12883  13.568   0.206   1.754  0.1347 -0.6612  0.2905
31758SOL    HW112884  13.551   0.140   1.821 -0.9056 -0.5207  0.1803
31758SOL    HW212885  13.482   0.228   1.720  0.6755 -1.1859 -1.5290
31759SOL     OW12886   7.506  11.159   2.205  0.1052 -0.7155 -0.2389
31759SOL    HW112887   7.417  11.181   2.177  0.5805 -0.2034 -1.4329
31759SOL    HW212888   7.541  11.105   2.134  1.3931  0.7084 -0.7386
31760SOL     OW12889   6.263   0.973  12.684  0.4282  0.2706 -0.4522
31760SOL    HW112890   6.273   1.038  12.753 -2.0387  2.2492 -1.7913
31760SOL    HW212891   6.213   0.903  12.726 -0.9381  1.3866 -0.1329
31761SOL     OW12892  13.700   6.088   6.277 -0.0001  0.4033  0.0203
31761SOL    HW112893  13.768   6.150   6.252 -0.8962  1.5559  0.3652
31761SOL    HW212894  13.674   6.047   6.194  1.3868 -0.3829 -0.0621
31762SOL     OW12895   9.414   6.377   8.185  0.9321 -0.4403 -0.1855
31762SOL    HW112896   9.435   6.366   8.093  3.2729 -0.7904  0.3242
31762SOL    HW212897   9.364   6.298   8.208 -0.2491 -0.0408 -1.2573
31763SOL     OW12898   8.619   0.277  13.954 -0.2870  0.1786  0.3651
31763SOL    HW112899   8.616   0.334  13.877  4.5044 -1.6529 -1.5436
31763SOL    HW212900   8.596   0.190  13.920 -2.7975 -0.0023  2.2131
31764SOL     OW12901   9.487  13.605  12.555 -0.1887  0.4679 -0.0993
31764SOL    HW112902   9.411  13.589  12.611  1.2545 -1.8153  1.3871
31764SOL    HW212903   9.527  13.685  12.591 -1.3697  1.1819 -0.3372
31765SOL     OW12904   9.492  12.954   0.887 -0.9521 -0.3333  0.3771
31765SOL    HW112905   9.541  12.896   0.944 -0.3372  0.7096  0.9450
31765SOL    HW212906   9.436  12.896   0.835  0.0550 -1.4605  0.5173
31766SOL     OW12907  11.892   6.577   1.532 -0.2616 -0.1765  0.1624
31766SOL    HW112908  11.891   6.612   1.621  1.0775  0.5634 -0.0761
31766SOL    HW212909  11.910   6.484   1.543  0.2741 -0.0211  0.6578
31767SOL     OW12910   2.352   7.053   4.678 -0.1060  0.4398  0.1805
31767SOL    HW112911   2.295   7.049   4.600 -0.6161  1.7775  0.4566
31767SOL    HW212912   2.440   7.066   4.643 -0.1442 -0.2254 -0.1985
31768SOL     OW12913   6.647   1.475   7.376  0.0278 -0.3201  0.7081
31768SOL    HW112914   6.728   1.429   7.352 -1.0673 -1.2001 -1.5227
31768SOL    HW212915   6.635   1.539   7.307 -0.2972  1.0291  1.9716
31769SOL     OW12916   3.328   2.666   5.650 -0.0271 -0.1822 -0.4588
31769SOL    HW112917   3.299   2.576   5.633  0.3488 -0.5804  0.8925
31769SOL    HW212918   3.412   2.674   5.604 -0.0745 -0.5036 -0.6019
31770SOL     OW12919  11.989   7.501  14.020  0.1213  0.4820  0.2298
31770SOL    HW112920  11.951   7.464  14.099  0.4905 -0.5960 -0.0828
31770SOL    HW212921  11.975   7.596  14.028 -1.7696  0.2195  0.5636
31771SOL     OW12922   5.069  11.983  13.882  0.1027 -0.0002 -0.1125
31771SOL    HW112923   5.142  11.952  13.828 -2.0436 -0.8047 -2.7265
31771SOL    HW212924   5.068  12.078  13.868 -0.3568 -0.1897 -1.4128
31772SOL     OW12925   8.333   1.218   7.289  0.4352  0.2535 -0.0990
31772SOL    HW112926   8.303   1.166   7.363 -0.9486  0.8614 -0.1923
31772SOL    HW212927   8.396   1.162   7.244 -0.1461 -0.8855  0.4499
31773SOL     OW12928   2.273   0.757  10.291 -0.0831  0.2770 -0.0210
31773SOL    HW112929   2.264   0.777  10.198 -1.0732  0.9308  0.1907
31773SOL    HW212930   2.367   0.758  10.307  0.0676  3.0729 -0.4587
31774SOL     OW12931   6.641   3.164   5.269  0.0738 -0.0121 -0.3425
31774SOL    HW112932   6.640   3.088   5.210 -0.6741 -0.4183  0.1682
31774SOL    HW212933   6.629   3.239   5.211 -0.5036 -0.3922 -0.7377
31775SOL     OW12934   6.749   8.489   8.184 -0.1523 -0.3158  0.5886
31775SOL    HW112935   6.810   8.448   8.245  0.3940  0.2353  0.4174
31775SOL    HW212936   6.706   8.557   8.235  2.4651  2.2095 -0.3571
31776SOL     OW12937   1.206   9.699   4.964  0.5227 -0.9347  0.4576
31776SOL    HW112938   1.206   9.689   4.869 -0.1784  1.1499  0.1929
31776SOL    HW212939   1.272   9.766   4.981  0.2434 -0.8791  1.3995
31777SOL     OW12940  13.439   0.449   0.928 -0.4941  0.1101 -0.4509
31777SOL    HW112941  13.474   0.424   1.014  0.1558 -0.9321 -0.9909
31777SOL    HW212942  13.376   0.380   0.908 -1.2361  0.7892 -0.4636
31778SOL     OW12943   8.097   0.469   4.610 -0.1482  0.0426 -0.1741
31778SOL    HW112944   8.092   0.397   4.547 -1.4499  0.8159 -1.0011
31778SOL    HW212945   8.167   0.525   4.576  0.7508 -0.7058  0.3779
31779SOL     OW12946   3.458  13.650   1.523  0.1593 -0.0737  0.1286
31779SOL    HW112947   3.486  13.561   1.544 -0.5495 -0.7001 -1.4205
31779SOL    HW212948   3.363  13.649   1.537 -0.3530 -0.5075 -2.7603
31780SOL     OW12949   4.375  12.398  12.526  0.3449  0.5945  0.7267
31780SOL    HW112950   4.388  12.310  12.562  1.2779  0.9900  1.4092
31780SOL    HW212951   4.298  12.431  12.570  0.0096  0.1329  0.4915
31781SOL     OW12952  13.228   1.602  12.776 -0.0363  1.0011  0.3878
31781SOL    HW112953  13.226   1.521  12.828 -1.0955  0.4417 -0.4770
31781SOL    HW212954  13.291   1.584  12.706 -0.5489  0.7717 -0.0216
31782SOL     OW12955   9.319  12.708   1.281  0.3144  0.1069 -0.3371
31782SOL    HW112956   9.240  12.654   1.288 -0.6440  1.4024 -0.7177
31782SOL    HW212957   9.313  12.768   1.356  1.2352 -0.1231 -0.0624
31783SOL     OW12958   3.634  12.342   3.365  0.2092 -0.1218  0.3191
31783SOL    HW112959   3.567  12.328   3.432 -0.0824 -0.9988 -0.1458
31783SOL    HW212960   3.649  12.437   3.365  0.0930 -0.0903  1.5030
31784SOL     OW12961  11.294   4.628   4.856  0.2469 -0.2247  0.1336
31784SOL    HW112962  11.243   4.636   4.937 -0.3049  2.4225 -0.3948
31784SOL    HW212963  11.230   4.633   4.786  0.9740  0.3916 -0.5032
31785SOL     OW12964   2.018  11.332   0.753 -0.2810 -0.6059  0.1105
31785SOL    HW112965   2.034  11.265   0.820  1.7304  0.8759  1.2523
31785SOL    HW212966   2.077  11.309   0.681  0.4221 -0.1132  0.5097
31786SOL     OW12967   2.494   6.938   6.086  0.4464  0.7190  1.1055
31786SOL    HW112968   2.495   7.033   6.085  1.0228  0.7292 -0.4059
31786SOL    HW212969   2.576   6.912   6.044 -0.5205 -0.3903 -0.2311
31787SOL     OW12970   9.536   9.757   8.179 -0.4511  0.5704 -0.0025
31787SOL    HW112971   9.547   9.814   8.255 -0.6884 -1.5303  1.7138
31787SOL    HW212972   9.461   9.701   8.202  0.9014 -1.6742 -0.7297
31788SOL     OW12973   4.727   4.623   5.786 -0.1163 -0.1186  0.0427
31788SOL    HW112974   4.821   4.636   5.768  0.0322 -1.2159 -0.0451
31788SOL    HW212975   4.714   4.658   5.874  0.7455 -1.4942  0.7380
31789SOL     OW12976   3.860   9.741   1.133  0.0370 -0.2252 -0.2127
31789SOL    HW112977   3.949   9.776   1.127 -0.3303  0.5584 -1.3768
31789SOL    HW212978   3.828   9.772   1.218  1.0198 -0.8778  0.4055
31790SOL     OW12979   5.089   1.018   0.399  0.3444  0.7513  0.0661
31790SOL    HW112980   5.177   1.055   0.403  1.5589 -1.9977  1.7151
31790SOL    HW212981   5.059   1.016   0.490 -1.4869  1.6536 -0.4610
31791SOL     OW12982  11.959   3.170  10.031  0.4536 -0.2462  0.3753
31791SOL    HW112983  11.962   3.265  10.034  1.7376 -0.2527  0.0213
31791SOL    HW212984  11.962   3.148   9.938  1.8827 -0.6358  0.4843
31792SOL     OW12985  10.394   2.796  10.155 -0.5800 -0.1305  0.3601
31792SOL    HW112986  10.381   2.709  10.193 -0.3739  0.0063  0.7437
31792SOL    HW212987  10.338   2.797  10.078 -1.0268 -0.3937  0.6793
31793SOL     OW12988   8.212   3.412   9.161  0.4074 -0.0900 -0.0816
31793SOL    HW112989   8.210   3.389   9.068  1.4945 -0.1184 -0.1138
31793SOL    HW212990   8.128   3.381   9.196 -1.1402  2.1287 -1.5505
31794SOL     OW12991   9.882  12.055  14.088  0.5091  0.1960 -0.9156
31794SOL    HW112992   9.871  12.147  14.114 -0.6215 -0.1477 -0.0905
31794SOL    HW212993   9.808  12.010  14.128  0.6954 -0.9818 -1.8467
31795SOL     OW12994   3.251   8.661   7.179 -0.0685 -0.4138 -0.2851
31795SOL    HW112995   3.237   8.572   7.146 -0.9671 -0.5371  0.4183
31795SOL    HW212996   3.167   8.687   7.216  0.7424 -0.0487  1.3644
31796SOL     OW12997   9.851  13.009   1.591  0.4168 -0.0896  0.0492
31796SOL    HW112998   9.780  13.061   1.628  0.5434 -0.5196  0.9085
31796SOL    HW212999   9.853  12.929   1.644 -0.2539 -1.3223 -1.6899
31797SOL     OW13000   5.106   1.983   4.974  0.2916 -0.0803 -0.0148
31797SOL    HW113001   5.123   1.891   4.952  0.5730 -0.3051  1.0777
31797SOL    HW213002   5.019   1.983   5.014 -0.1357  0.2917 -0.9230
31798SOL     OW13003   9.394  10.137   5.597 -0.0028 -0.6227  0.3184
31798SOL    HW113004   9.316  10.128   5.543  1.4083 -2.9362 -1.5261
31798SOL    HW213005   9.459  10.178   5.539  0.2699  1.1216  1.7613
31799SOL     OW13006   4.063   5.464  14.034  0.2121  0.0881 -0.0116
31799SOL    HW113007   4.109   5.411  14.100 -0.1130 -1.5673 -1.0536
31799SOL    HW213008   4.125   5.472  13.962 -0.8668 -1.7886 -1.2423
31800SOL     OW13009  10.418   3.404   8.223 -0.2813  0.0382  0.4341
31800SOL    HW113010  10.398   3.497   8.231  0.5936  0.4116 -1.1606
31800SOL    HW213011  10.353   3.369   8.163 -0.5986 -0.3948  1.0130
31801SOL     OW13012  13.392   3.247   2.186  0.8877 -0.1050 -0.6583
31801SOL    HW113013  13.377   3.156   2.160  1.8587  0.0355 -1.8080
31801SOL    HW213014  13.317   3.295   2.151 -0.7452 -0.7211  1.7783
31802SOL     OW13015  10.176  12.244  14.090 -1.3320  0.2028  0.2317
31802SOL    HW113016  10.219  12.274  14.170 -0.8763 -1.1329  0.5226
31802SOL    HW213017  10.156  12.324  14.041 -0.4252  0.9638  1.0704
31803SOL     OW13018   8.472   3.506   6.900 -0.0198  0.0700  0.0760
31803SOL    HW113019   8.521   3.497   6.818  0.1655 -0.1093  0.2044
31803SOL    HW213020   8.510   3.439   6.957  1.2568  1.5242  1.0161
31804SOL     OW13021  10.438   2.002   8.576  0.8521 -0.8690 -0.1129
31804SOL    HW113022  10.473   1.967   8.494 -1.2625 -2.0514 -0.6001
31804SOL    HW213023  10.478   1.948   8.644  0.1417 -2.1182 -0.6415
31805SOL     OW13024  10.885   9.374   5.826 -0.0268  0.0290 -0.0424
31805SOL    HW113025  10.930   9.424   5.894  1.4938 -0.0593 -0.9304
31805SOL    HW213026  10.792   9.394   5.839  0.3421  1.1193  1.1651
31806SOL     OW13027   2.793   0.366   5.349 -0.3485  0.0089 -0.1372
31806SOL    HW113028   2.879   0.337   5.379 -0.0980  1.1745  0.3350
31806SOL    HW213029   2.752   0.287   5.312  0.7044 -0.6744  0.1169
31807SOL     OW13030   5.102   3.252   4.782 -0.5420 -1.0369 -0.4235
31807SOL    HW113031   5.169   3.186   4.795 -2.2873 -2.7057  0.6821
31807SOL    HW213032   5.073   3.275   4.871 -1.4199 -0.3489 -0.8642
31808SOL     OW13033   2.279   5.076   7.343 -0.1289 -0.0504 -0.1032
31808SOL    HW113034   2.305   5.149   7.399  0.8150 -0.0382 -0.5405
31808SOL    HW213035   2.272   5.115   7.255 -1.7368 -0.0356  0.0001
31809SOL     OW13036   0.485   0.482  13.178  0.6517 -0.0030  0.4632
31809SOL    HW113037   0.411   0.468  13.119 -0.0010 -0.4075  1.3736
31809SOL    HW213038   0.468   0.425  13.253  0.2969  2.1812  2.1268
31810SOL     OW13039   4.182   0.471   2.205  0.3966 -0.2042  0.1975
31810SOL    HW113040   4.156   0.453   2.114 -0.2565 -1.4428  0.6043
31810SOL    HW213041   4.138   0.553   2.227  1.7281  0.8929 -1.0572
31811SOL     OW13042  12.493   5.142   7.091  0.0532 -0.1705 -0.4675
31811SOL    HW113043  12.429   5.205   7.124 -0.7353  0.1702 -2.4915
31811SOL    HW213044  12.572   5.193   7.076  0.7088 -0.4891  1.5285
31812SOL     OW13045   4.687  10.937   6.357 -0.1003 -0.4259 -0.2179
31812SOL    HW113046   4.733  10.965   6.278  0.1952 -1.6137 -0.4819
31812SOL    HW213047   4.753  10.940   6.426 -0.6382  1.7494  0.2719
31813SOL     OW13048  10.630  12.440   1.810 -0.4407 -0.3793  0.2426
31813SOL    HW113049  10.703  12.468   1.755 -0.7283 -0.1683 -0.0393
31813SOL    HW213050  10.560  12.419   1.748 -0.4566 -1.0594  0.4876
31814SOL     OW13051  13.202   1.921   3.465 -0.1461 -0.3418  0.2360
31814SOL    HW113052  13.192   2.001   3.516 -0.7052 -1.5058  2.0332
31814SOL    HW213053  13.221   1.853   3.529  1.4696 -1.4781 -1.3496
31815SOL     OW13054   8.532   2.216   8.924  0.0159 -0.1004 -0.1978
31815SOL    HW113055   8.493   2.248   9.006  0.4300 -1.6441  0.6315
31815SOL    HW213056   8.614   2.264   8.917  1.2478 -1.7604  1.7021
31816SOL     OW13057   6.608  10.404   2.400 -0.0084 -0.0428  0.0829
31816SOL    HW113058   6.540  10.411   2.467 -1.3871  0.4120 -1.3066
31816SOL    HW213059   6.586  10.325   2.351 -0.9548  1.3395 -1.8353
31817SOL     OW13060   9.610   5.118   0.944  0.4659 -0.4074  0.5597
31817SOL    HW113061   9.593   5.209   0.967 -0.2710  0.1858 -1.9627
31817SOL    HW213062   9.523   5.079   0.936  0.7157 -0.8511 -0.0607
31818SOL     OW13063   8.225   0.121   7.402 -0.1130  0.2098 -0.7239
31818SOL    HW113064   8.217   0.170   7.484  0.2621 -0.5547 -0.2133
31818SOL    HW213065   8.291   0.170   7.352  1.6605 -0.7617  0.5606
31819SOL     OW13066   9.355   3.683  10.957  0.3900 -0.1431 -0.4024
31819SOL    HW113067   9.437   3.718  10.923  0.4527  1.2166  1.0454
31819SOL    HW213068   9.370   3.588  10.961  1.1718 -0.1171 -1.9375
31820SOL     OW13069  10.673   6.645   4.323  0.3839 -0.2298 -0.0099
31820SOL    HW113070  10.607   6.675   4.385 -0.9455  1.2227 -2.0046
31820SOL    HW213071  10.756   6.660   4.369 -0.4986  1.4758  1.1815
31821SOL     OW13072  13.208   4.059   1.452 -0.0114  0.8465  0.1190
31821SOL    HW113073  13.236   4.127   1.391  1.1795 -0.3966 -0.7716
31821SOL    HW213074  13.276   4.060   1.520  0.1499  0.3763 -0.0365
31822SOL     OW13075   5.550   2.197  13.136 -0.1976 -0.1676 -0.4162
31822SOL    HW113076   5.642   2.207  13.111 -0.6124  0.1132 -1.9731
31822SOL    HW213077   5.544   2.109  13.174  0.7327 -0.1307 -0.1758
31823SOL     OW13078   6.758   6.245  13.535  0.0273  0.2385 -0.6483
31823SOL    HW113079   6.674   6.203  13.520 -0.5397  1.0148  0.2714
31823SOL    HW213080   6.756   6.274  13.626  1.2669  0.3226 -0.6221
31824SOL     OW13081  13.569   6.375   2.404 -0.1394  0.4234  0.2880
31824SOL    HW113082  13.480   6.346   2.422  0.3876 -1.0392  0.7202
31824SOL    HW213083  13.559   6.450   2.345 -1.6774  0.9653  1.1712
31825SOL     OW13084  11.750   1.303   3.285  0.5395 -0.0812 -0.3715
31825SOL    HW113085  11.843   1.309   3.308  0.4242 -0.9949  0.3835
31825SOL    HW213086  11.741   1.359   3.208  1.3865  1.2781  0.4867
31826SOL     OW13087  11.286  10.318   2.915  0.2899 -0.0977  0.4822
31826SOL    HW113088  11.292  10.369   2.995  0.2523  2.9311 -1.2732
31826SOL    HW213089  11.205  10.349   2.873  0.4869 -1.3101 -0.8915
31827SOL     OW13090  12.944  10.295   0.428  0.0617  0.5307 -0.7385
31827SOL    HW113091  12.930  10.224   0.491  0.8987 -0.1129 -1.2651
31827SOL    HW213092  12.857  10.315   0.394 -0.4534  1.0956  0.8279
31828SOL     OW13093   3.883  11.763   7.548 -0.3398 -0.4105  0.3501
31828SOL    HW113094   3.847  11.844   7.585 -0.7528  0.9391 -2.6614
31828SOL    HW213095   3.974  11.762   7.576 -0.4134  0.9603  0.7124
31829SOL     OW13096   7.856  11.131   9.457  0.6496  0.1079 -0.2651
31829SOL    HW113097   7.831  11.074   9.385 -1.6372  0.0236  0.5141
31829SOL    HW213098   7.884  11.071   9.526  0.9524  0.0928 -0.3981
31830SOL     OW13099   2.839   8.582   8.543 -0.7081  0.2603 -0.2118
31830SOL    HW113100   2.777   8.542   8.481  0.0056 -0.9903 -0.1661
31830SOL    HW213101   2.924   8.570   8.501 -0.1193 -1.3522  1.3500
31831SOL     OW13102   7.270   8.449  13.284 -0.5073  0.5089 -0.4370
31831SOL    HW113103   7.186   8.454  13.330  0.7612 -0.4069  2.1522
31831SOL    HW213104   7.319   8.525  13.316  0.3790 -0.0887 -0.3525
31832SOL     OW13105   3.315  10.632  11.018  0.0980  0.5020 -0.0900
31832SOL    HW113106   3.278  10.624  11.106 -0.5452 -1.3470 -0.4745
31832SOL    HW213107   3.409  10.639  11.032 -0.0793  1.5492  0.7666
31833SOL     OW13108   7.102   4.337   2.420 -0.1797 -0.1361  0.0604
31833SOL    HW113109   7.133   4.427   2.411 -0.3795 -0.1544 -1.0854
31833SOL    HW213110   7.029   4.343   2.482 -1.3735  0.8295 -1.3506
31834SOL     OW13111  11.364  11.193  14.080 -0.3091 -0.1730 -0.3412
31834SOL    HW113112  11.422  11.254  14.035 -0.8813 -0.9947 -2.2941
31834SOL    HW213113  11.291  11.248  14.109 -0.5708  0.2087 -1.6214
31835SOL     OW13114   8.384   1.883   7.467 -0.3240  0.6384 -0.3646
31835SOL    HW113115   8.463   1.926   7.434 -0.1545 -1.1220 -2.4863
31835SOL    HW213116   8.363   1.817   7.400 -2.0465 -0.7715  1.4542
31836SOL     OW13117   1.473   3.865   0.459 -0.0828 -0.4606  0.0228
31836SOL    HW113118   1.460   3.865   0.365  0.8963 -1.5648 -0.1351
31836SOL    HW213119   1.448   3.777   0.488 -0.8846  0.0280  0.8837
31837SOL     OW13120   7.497  11.992   3.583  0.0462  0.1934  0.0568
31837SOL    HW113121   7.536  12.057   3.524  0.3490 -1.2334 -1.3973
31837SOL    HW213122   7.554  11.916   3.575 -0.0211 -0.1201  2.1080
31838SOL     OW13123   3.913   0.438   8.206 -0.1847 -0.3152 -0.8365
31838SOL    HW113124   3.859   0.440   8.285  0.5432  1.7514 -0.3370
31838SOL    HW213125   3.854   0.469   8.137 -0.0883  0.4687 -0.5780
31839SOL     OW13126  12.360   9.957   6.614  0.1351 -0.2763 -0.0364
31839SOL    HW113127  12.382  10.049   6.599  0.2097 -0.0726  1.2713
31839SOL    HW213128  12.287   9.941   6.554 -0.1592  0.7462  0.0241
31840SOL     OW13129   6.787   6.534  11.414 -0.0335 -0.0198  0.0083
31840SOL    HW113130   6.880   6.534  11.436  0.4654 -0.0348 -1.8922
31840SOL    HW213131   6.773   6.450  11.371 -1.1713 -0.4182  1.0981
31841SOL     OW13132   1.090   6.515  12.872  0.3807 -0.3632  0.4431
31841SOL    HW113133   1.167   6.564  12.900  1.6233 -2.0251  0.1123
31841SOL    HW213134   1.120   6.424  12.866 -1.0240 -0.7723 -1.7936
31842SOL     OW13135   6.832   4.882   1.668  0.1651  0.2848 -0.2269
31842SOL    HW113136   6.910   4.876   1.613  0.4176 -0.7572  0.2304
31842SOL    HW213137   6.841   4.812   1.732 -1.5970 -0.4740 -0.7318
31843SOL     OW13138   2.846   5.514   9.097 -0.2023  0.0421 -0.4758
31843SOL    HW113139   2.778   5.505   9.164  0.3474 -0.0377  0.0790
31843SOL    HW213140   2.846   5.430   9.052 -0.7947  0.2074 -0.7918
31844SOL     OW13141   1.932   4.884  10.497 -0.2904 -0.0785 -0.4207
31844SOL    HW113142   1.915   4.793  10.472  0.3569 -0.4874  0.5724
31844SOL    HW213143   1.848   4.916  10.530 -0.0608 -0.9845  1.1597
31845SOL     OW13144  14.048   8.955  12.635  0.5087 -0.5024  0.6265
31845SOL    HW113145  14.125   8.941  12.690 -0.1419 -0.0744  1.6731
31845SOL    HW213146  14.084   8.979  12.550  1.5370 -0.0321  1.1712
31846SOL     OW13147  10.903   5.413   9.570  0.3340 -0.2262  0.3841
31846SOL    HW113148  10.993   5.418   9.538 -0.6405 -0.7107 -2.7849
31846SOL    HW213149  10.870   5.502   9.564  0.0958 -0.3479 -0.1762
31847SOL     OW13150   7.941  13.056   0.541  0.0270  0.0732  0.0905
31847SOL    HW113151   7.974  12.992   0.478 -1.1694 -0.0564 -0.4246
31847SOL    HW213152   7.886  13.115   0.489 -0.0131  0.6906  0.8077
31848SOL     OW13153  10.997   2.015   2.880  0.7136  0.4372  0.0761
31848SOL    HW113154  10.984   2.105   2.912  1.1553  0.0657  1.3486
31848SOL    HW213155  11.092   2.009   2.866  0.6876  0.1575  0.0247
31849SOL     OW13156   1.676   9.781  13.751 -0.2952 -0.2475 -0.5496
31849SOL    HW113157   1.610   9.801  13.685 -1.8912 -1.1443  0.6966
31849SOL    HW213158   1.758   9.774  13.702 -1.7654 -3.4675 -2.8954
31850SOL     OW13159   7.120   3.922   2.613 -0.5770 -0.0901  0.2505
31850SOL    HW113160   7.104   3.839   2.658 -1.2489  1.4322  3.0404
31850SOL    HW213161   7.202   3.908   2.566 -2.2877 -3.3195 -2.1738
31851SOL     OW13162  13.181   1.713   9.857 -0.1514 -0.2686  0.4715
31851SOL    HW113163  13.175   1.807   9.873 -2.9876 -0.0052 -1.3396
31851SOL    HW213164  13.142   1.673   9.934 -0.0073  0.1214  0.7487
31852SOL     OW13165   5.795   3.398   1.374 -0.3167 -0.0156 -0.0582
31852SOL    HW113166   5.819   3.322   1.426 -0.1876  0.9248  1.3062
31852SOL    HW213167   5.721   3.369   1.321  1.4990 -1.9251 -1.7411
31853SOL     OW13168   1.881   7.863   6.135 -0.2500 -0.8084  0.0468
31853SOL    HW113169   1.973   7.840   6.122 -0.4831 -1.4977 -0.4082
31853SOL    HW213170   1.835   7.825   6.061 -1.0251 -1.1880  0.7012
31854SOL     OW13171   9.331   9.859  13.348  0.1519 -0.4540 -0.4096
31854SOL    HW113172   9.358   9.890  13.435  0.3295  0.6796 -0.8447
31854SOL    HW213173   9.409   9.871  13.294 -0.2911 -0.0772 -0.9738
31855SOL     OW13174  13.372   7.517   0.386 -0.4831 -0.4670  0.6715
31855SOL    HW113175  13.284   7.492   0.414 -1.2161  0.4078 -0.7438
31855SOL    HW213176  13.428   7.496   0.462 -1.8817 -1.0425  1.5948
31856SOL     OW13177   2.269   9.787  12.495  0.1253  0.2202  0.0746
31856SOL    HW113178   2.284   9.880  12.479 -3.2773  0.8600 -0.2565
31856SOL    HW213179   2.268   9.747  12.408 -3.1250  0.8943 -0.3548
31857SOL     OW13180   3.337  13.231  13.413  0.0706  0.2416 -0.6214
31857SOL    HW113181   3.428  13.207  13.427 -0.2340  0.0309  1.2223
31857SOL    HW213182   3.326  13.314  13.460 -0.8369 -0.0454 -0.3047
31858SOL     OW13183   8.518  14.013  12.743  0.2847 -0.2154  0.3414
31858SOL    HW113184   8.510  13.950  12.815 -0.3461  0.7826  1.1720
31858SOL    HW213185   8.502  13.961  12.664  1.7986 -1.4931  0.8403
31859SOL     OW13186   9.422   1.432   1.385  0.0517  0.1525  0.6502
31859SOL    HW113187   9.503   1.391   1.417  0.8666  1.1474 -0.0353
31859SOL    HW213188   9.453   1.511   1.340 -1.2631  0.1895 -0.2186
31860SOL     OW13189   4.023   1.552  11.055 -0.2577  0.0193  0.0771
31860SOL    HW113190   4.032   1.643  11.080  0.1180  0.3949 -1.3085
31860SOL    HW213191   4.008   1.505  11.137 -0.5450  1.3277  0.7932
31861SOL     OW13192   1.862   3.565   7.400  0.1760 -0.0862 -0.7157
31861SOL    HW113193   1.852   3.486   7.347 -0.9526 -0.4013 -0.0678
31861SOL    HW213194   1.950   3.558   7.436 -0.1282 -1.3853 -0.1535
31862SOL     OW13195  11.210  12.100   1.537 -0.4544 -0.6572 -0.3095
31862SOL    HW113196  11.284  12.108   1.597 -0.0550 -1.2181 -0.7165
31862SOL    HW213197  11.250  12.082   1.452 -1.0896 -1.7707 -0.3852
31863SOL     OW13198   2.717  13.699   1.931 -0.2214  0.8364  0.3607
31863SOL    HW113199   2.674  13.613   1.931 -0.9730  1.1932 -0.4897
31863SOL    HW213200   2.732  13.717   2.023 -0.5548  0.0306  0.5915
31864SOL     OW13201  11.207   2.583  12.098 -0.1725  0.1278  0.0338
31864SOL    HW113202  11.282   2.620  12.145 -0.4990 -0.1312  0.7756
31864SOL    HW213203  11.146   2.556  12.167  0.1799 -2.0722 -0.4349
31865SOL     OW13204   0.750   2.107  10.854  0.3009  0.3018  0.0618
31865SOL    HW113205   0.711   2.043  10.915 -0.2317  0.2876 -0.2820
31865SOL    HW213206   0.803   2.164  10.909 -0.9771  0.9157  0.7026
31866SOL     OW13207   9.093   1.296  11.180 -0.3118 -0.0565  0.4441
31866SOL    HW113208   9.103   1.244  11.260  0.2796  2.5063  2.1518
31866SOL    HW213209   9.182   1.320  11.156 -0.4999 -0.6625 -0.9336
31867SOL     OW13210   7.885   2.480   4.595  0.8610 -0.1470 -0.3036
31867SOL    HW113211   7.960   2.421   4.592  1.5237  0.6384  0.3816
31867SOL    HW213212   7.891   2.523   4.681  0.7566  1.3563 -1.0098
31868SOL     OW13213  13.333  12.569   8.207 -0.0473  0.2348 -0.4541
31868SOL    HW113214  13.417  12.536   8.173 -0.9942 -0.3448 -2.3677
31868SOL    HW213215  13.272  12.558   8.134 -1.4701  2.0209  0.3982
31869SOL     OW13216  12.945  13.422   4.949 -0.3719 -0.0193  0.1614
31869SOL    HW113217  12.950  13.410   5.044 -1.7190  0.3976  0.3149
31869SOL    HW213218  12.881  13.492   4.937 -2.0217 -1.6407 -1.1256
31870SOL     OW13219  11.599   1.151  13.890 -0.0298  0.6447  0.5980
31870SOL    HW113220  11.574   1.075  13.838  1.6898  0.0618  0.5603
31870SOL    HW213221  11.553   1.139  13.973 -0.1992 -0.1691  0.3985
31871SOL     OW13222  13.839   7.687   5.176  0.0957  0.2753  0.0296
31871SOL    HW113223  13.847   7.766   5.123  0.0417  0.7686  0.7413
31871SOL    HW213224  13.894   7.703   5.252  0.0552 -0.3588  0.1993
31872SOL     OW13225   9.929  11.809   4.333 -0.1605 -0.2661  0.3778
31872SOL    HW113226   9.886  11.892   4.354  0.5979  0.1812  0.1687
31872SOL    HW213227   9.884  11.745   4.389 -1.1858  0.1650  0.0685
31873SOL     OW13228  13.782  13.574   3.234  0.8267  0.3324  0.1892
31873SOL    HW113229  13.703  13.524   3.212 -0.0447  2.1719 -1.1158
31873SOL    HW213230  13.775  13.592   3.327 -0.9731  1.5526 -0.1508
31874SOL     OW13231   8.661  11.942   8.227  0.2948 -0.3290 -0.0373
31874SOL    HW113232   8.659  11.924   8.133  0.8713  0.5369 -0.2256
31874SOL    HW213233   8.753  11.956   8.248  0.1004  0.2052  0.5138
31875SOL     OW13234   3.355   6.035   2.872 -0.3038 -0.4297 -0.2377
31875SOL    HW113235   3.415   6.061   2.802  0.6537  0.3525  0.8310
31875SOL    HW213236   3.324   6.118   2.909  0.0154 -0.8060  0.9191
31876SOL     OW13237   7.734   2.163   3.490  0.5513 -0.4013 -0.3062
31876SOL    HW113238   7.678   2.241   3.496  0.2120 -0.7187  1.0015
31876SOL    HW213239   7.811   2.193   3.442 -0.5692  0.1268 -1.8432
31877SOL     OW13240  13.032  12.863   7.923 -0.3930 -0.1111  0.2816
31877SOL    HW113241  12.954  12.827   7.966  0.2034 -2.0558 -0.1797
31877SOL    HW213242  13.000  12.896   7.839 -0.6418 -1.5228 -0.2066
31878SOL     OW13243   7.078   9.468   7.597 -0.0074 -0.4408 -0.5886
31878SOL    HW113244   7.067   9.392   7.540 -1.3312  0.4277 -1.5476
31878SOL    HW213245   7.047   9.542   7.545  2.2197  0.9536 -0.0813
31879SOL     OW13246   2.449   9.510   3.950 -0.1507 -0.4158  0.3247
31879SOL    HW113247   2.487   9.560   3.878  1.5536 -0.6475  1.0304
31879SOL    HW213248   2.513   9.441   3.968  0.7117  1.0450  3.6125
31880SOL     OW13249  12.270   3.035   7.849 -0.0429  0.8120 -0.1711
31880SOL    HW113250  12.208   3.018   7.919  1.0597  4.2307  1.8858
31880SOL    HW213251  12.216   3.045   7.771 -1.5032 -1.0922  0.5228
31881SOL     OW13252   8.596  12.254  12.576 -0.5933  0.2325 -0.0661
31881SOL    HW113253   8.670  12.203  12.608 -0.4897  0.7693  0.5776
31881SOL    HW213254   8.525  12.191  12.566 -0.0955 -0.2625 -0.5486
31882SOL     OW13255   7.899   9.654   1.863  0.3308 -0.1684  0.2023
31882SOL    HW113256   7.929   9.595   1.932  0.6026 -0.7729 -0.4241
31882SOL    HW213257   7.828   9.606   1.820  2.2991 -1.2549 -2.0576
31883SOL     OW13258   1.933   0.628  12.938 -0.2831 -0.2768  0.1987
31883SOL    HW113259   1.838   0.640  12.927 -0.1536 -0.4118 -1.2343
31883SOL    HW213260   1.958   0.567  12.869  0.8877 -0.0851  0.4282
31884SOL     OW13261   8.056   6.110   8.836 -0.3849  0.6119 -0.0312
31884SOL    HW113262   7.975   6.153   8.807 -0.7275  0.3369  0.5036
31884SOL    HW213263   8.126   6.157   8.789 -0.7929  1.3754  0.1086
31885SOL     OW13264   0.101   3.515   9.789 -0.1015 -0.4401 -0.1469
31885SOL    HW113265   0.108   3.421   9.803 -0.7815 -0.2553  1.8200
31885SOL    HW213266   0.009   3.529   9.766 -0.4371 -0.1218  1.2739
31886SOL     OW13267  12.625   0.775   2.499 -0.5688 -0.0862  0.3285
31886SOL    HW113268  12.591   0.700   2.549  0.1884  1.5239  3.4418
31886SOL    HW213269  12.719   0.761   2.495 -0.5391  0.1873 -0.0252
31887SOL     OW13270  11.293   3.087   5.570  0.3412  0.0116 -0.6943
31887SOL    HW113271  11.266   3.020   5.507  0.0373  0.3193 -0.8975
31887SOL    HW213272  11.335   3.038   5.641 -3.2462 -0.8769  1.0609
31888SOL     OW13273  13.245  11.746   6.859  0.4479 -0.0469 -0.4404
31888SOL    HW113274  13.181  11.816   6.847 -0.9041 -1.0011  0.8074
31888SOL    HW213275  13.235  11.690   6.782 -0.5534 -0.4105 -0.0666
31889SOL     OW13276  13.353   6.405  12.447  0.2761  0.0255 -0.1007
31889SOL    HW113277  13.393   6.491  12.438  1.3649 -0.5513 -0.9478
31889SOL    HW213278  13.357   6.367  12.360 -0.4283 -0.7929  0.2080
31890SOL     OW13279   0.150  11.543   1.871  0.1043  0.0726 -0.2813
31890SOL    HW113280   0.237  11.584   1.877  0.1139  0.2968 -1.5970
31890SOL    HW213281   0.145  11.513   1.780  0.5387 -3.8679  0.7963
31891SOL     OW13282   3.764   3.368   9.633  0.1874 -0.1856  0.8085
31891SOL    HW113283   3.676   3.331   9.635  0.8678 -1.9051  0.5527
31891SOL    HW213284   3.758   3.446   9.688 -1.1761 -0.9571  1.8249
31892SOL     OW13285   9.844   2.569   1.142  0.4055 -0.1151 -0.1226
31892SOL    HW113286   9.868   2.579   1.050 -2.7582  0.0368 -1.0540
31892SOL    HW213287   9.804   2.653   1.165 -0.0400 -0.6197  0.9970
31893SOL     OW13288   3.707  13.946  10.060 -0.2153  0.4913 -0.0516
31893SOL    HW113289   3.768  13.959   9.987  2.1372 -0.0633  1.6957
31893SOL    HW213290   3.648  14.021  10.056  0.8515  1.2894 -1.5797
31894SOL     OW13291   5.779  12.320   7.651 -0.4085 -0.3070  0.1534
31894SOL    HW113292   5.701  12.371   7.667  0.0455  0.1903  0.8447
31894SOL    HW213293   5.807  12.345   7.563  0.3473  1.3887  0.8361
31895SOL     OW13294   3.896  12.233   9.414 -0.2216 -0.1597  0.9497
31895SOL    HW113295   3.854  12.296   9.473 -0.8487 -0.8217  1.2217
31895SOL    HW213296   3.833  12.161   9.407  0.1196 -0.3742 -0.0378
31896SOL     OW13297   1.468  11.554   5.395  0.5492 -0.0936  0.4578
31896SOL    HW113298   1.403  11.623   5.381  1.0222  0.3560  0.4333
31896SOL    HW213299   1.422  11.473   5.372 -0.5541  0.0165  2.1370
31897SOL     OW13300   3.160  13.129   8.703  0.2975  0.1748 -0.1812
31897SOL    HW113301   3.188  13.039   8.717  0.2254 -0.0047 -1.0818
31897SOL    HW213302   3.168  13.141   8.608 -1.7702  0.4122 -0.3658
31898SOL     OW13303   2.957   3.633  13.315 -0.0553 -0.4816 -0.1422
31898SOL    HW113304   2.953   3.539  13.333  0.3752 -0.1597  1.8901
31898SOL    HW213305   2.897   3.647  13.242 -1.6246 -2.0569  0.7881
31899SOL     OW13306   2.262   5.833   4.789  0.0563 -0.4306 -0.1413
31899SOL    HW113307   2.312   5.911   4.765  1.0147 -1.1128 -0.4235
31899SOL    HW213308   2.326   5.763   4.788 -0.6269 -1.0906  0.9268
31900SOL     OW13309   0.192  12.202   5.176 -0.1774  0.4395 -0.1161
31900SOL    HW113310   0.237  12.266   5.120 -0.2193  0.3680 -0.2322
31900SOL    HW213311   0.240  12.120   5.161  0.9050  0.7757  1.2448
31901SOL     OW13312  12.729  13.126  12.244 -0.0810 -0.0680  0.5476
31901SOL    HW113313  12.689  13.043  12.220  0.3271  0.0782 -0.7349
31901SOL    HW213314  12.783  13.107  12.320 -1.4919 -0.5537  1.4539
31902SOL     OW13315  13.399   2.438   4.396  0.3533  0.3395  0.2137
31902SOL    HW113316  13.474   2.451   4.338 -0.0361  0.4349 -0.2737
31902SOL    HW213317  13.417   2.355   4.440  0.0780 -0.3685 -0.9448
31903SOL     OW13318   9.419   7.177   4.274  0.2149 -0.0244 -0.3339
31903SOL    HW113319   9.369   7.160   4.194 -0.2464  0.2030 -0.1021
31903SOL    HW213320   9.379   7.256   4.310 -0.7768 -1.0965  1.0520
31904SOL     OW13321  10.296  13.088   4.055  0.5634 -0.3238 -0.0559
31904SOL    HW113322  10.381  13.043   4.055  1.7576  1.8237 -0.1129
31904SOL    HW213323  10.295  13.140   3.975 -0.3661  0.4721  0.4407
31905SOL     OW13324  10.913   0.815   5.249  0.2215 -0.3400  0.4326
31905SOL    HW113325  10.996   0.773   5.271  1.6484  1.6332 -0.8627
31905SOL    HW213326  10.936   0.906   5.230 -1.7780 -0.3441 -2.7813
31906SOL     OW13327   6.857   2.884  10.691 -0.6094  0.7880  0.1889
31906SOL    HW113328   6.927   2.819  10.685 -1.5731 -0.1610 -2.4073
31906SOL    HW213329   6.786   2.848  10.637 -3.1323  1.7206  2.6373
31907SOL     OW13330   3.343   6.815   7.237  0.5008 -0.2732  0.6031
31907SOL    HW113331   3.293   6.893   7.262 -0.2737  0.0247 -1.6882
31907SOL    HW213332   3.277   6.747   7.224  0.8443 -0.3796 -0.6574
31908SOL     OW13333   2.902   1.948   0.103  0.7206 -0.2458  0.2593
31908SOL    HW113334   2.917   2.041   0.122 -0.7387 -0.1591  1.1678
31908SOL    HW213335   2.971   1.902   0.150  0.0519  0.2666  1.7994
31909SOL     OW13336   0.598   6.676   0.163 -0.2343  0.0285  0.4186
31909SOL    HW113337   0.546   6.753   0.140  0.5141  0.3699 -0.1739
31909SOL    HW213338   0.546   6.602   0.134 -1.2908  0.2617  1.6366
31910SOL     OW13339   5.718   8.669   1.599  0.3663 -0.0824  0.6168
31910SOL    HW113340   5.736   8.648   1.508 -0.5092  0.5775  0.2812
31910SOL    HW213341   5.783   8.735   1.622 -0.0061  0.4517  0.1706
31911SOL     OW13342   3.888   2.160   2.862 -0.0815 -0.4345 -0.1522
31911SOL    HW113343   3.819   2.128   2.803 -0.6928  1.1266 -0.3423
31911SOL    HW213344   3.907   2.086   2.919 -0.2085 -1.6635 -1.6350
31912SOL     OW13345   1.280   2.221   4.308 -0.0194 -0.1998  0.6129
31912SOL    HW113346   1.287   2.302   4.359 -0.6113 -0.4947  1.1801
31912SOL    HW213347   1.279   2.250   4.217  0.7673  0.3600  0.7751
31913SOL     OW13348   1.622   2.614   5.270  0.1978 -0.2199 -0.3022
31913SOL    HW113349   1.587   2.637   5.356  0.9772 -0.6639  0.1438
31913SOL    HW213350   1.598   2.688   5.214 -1.8503 -0.7089 -0.1493
31914SOL     OW13351   8.335   8.055   0.979 -0.2418 -0.8050 -0.3459
31914SOL    HW113352   8.327   8.105   0.897 -0.7361 -0.8985 -0.3555
31914SOL    HW213353   8.421   8.012   0.972 -0.6517 -1.5178 -1.2083
31915SOL     OW13354  10.612  10.859   5.563  0.0816 -0.5989  1.1346
31915SOL    HW113355  10.550  10.786   5.563  0.1409 -0.6503  0.8813
31915SOL    HW213356  10.690  10.824   5.520  0.0336 -0.3240  0.8170
31916SOL     OW13357   7.661   0.509  13.206  0.6942 -0.2381  0.6724
31916SOL    HW113358   7.656   0.453  13.283 -0.2164 -0.0783  0.7423
31916SOL    HW213359   7.592   0.575  13.219  1.6349  0.8172  0.5250
31917SOL     OW13360   3.591   4.576   5.208 -0.4987 -0.0090 -0.3370
31917SOL    HW113361   3.520   4.513   5.193 -0.3908 -0.1711 -0.1692
31917SOL    HW213362   3.668   4.522   5.225  0.2030  0.0978 -2.7271
31918SOL     OW13363  12.823   0.153   1.135  0.3984  0.0202 -0.1058
31918SOL    HW113364  12.766   0.089   1.093  0.3141 -1.3272  1.9440
31918SOL    HW213365  12.817   0.133   1.228  1.5287  2.0948  0.4777
31919SOL     OW13366   6.385  11.154   0.348  0.5485 -0.5710 -0.3426
31919SOL    HW113367   6.329  11.076   0.347  0.6685 -0.6605 -0.1697
31919SOL    HW213368   6.406  11.170   0.256  0.1917 -0.5027 -0.4133
31920SOL     OW13369   4.197  11.882  10.177 -0.0565  0.1252  0.0763
31920SOL    HW113370   4.259  11.809  10.174 -1.3109 -0.9541 -2.3224
31920SOL    HW213371   4.147  11.868  10.257  0.0158 -1.4395 -0.1217
31921SOL     OW13372  13.909   4.851   4.457  0.2143  0.1596  0.3598
31921SOL    HW113373  13.971   4.780   4.436 -1.2291 -0.7999 -0.8742
31921SOL    HW213374  13.952   4.899   4.527  1.4346 -1.6986  0.9860
31922SOL     OW13375  11.816   6.336  12.957  0.1022  0.0674  0.0014
31922SOL    HW113376  11.879   6.267  12.979  1.8977  1.4699 -0.5039
31922SOL    HW213377  11.840   6.409  13.013 -0.4485  0.9812 -0.9277
31923SOL     OW13378   5.612   4.768   2.663  0.1760 -0.6429  0.4273
31923SOL    HW113379   5.593   4.706   2.593 -1.2060 -0.5436  0.6801
31923SOL    HW213380   5.574   4.851   2.634  1.3668 -0.0829  0.4146
31924SOL     OW13381   7.909   4.708   2.870 -0.7100 -0.4027 -0.7445
31924SOL    HW113382   7.998   4.676   2.854 -0.8162 -1.3043  0.3931
31924SOL    HW213383   7.908   4.794   2.828  0.2770 -0.9357 -1.9191
31925SOL     OW13384  10.687   2.450   3.149  0.3610  0.1024 -0.2677
31925SOL    HW113385  10.650   2.384   3.091  2.0776 -0.9369 -0.2496
31925SOL    HW213386  10.682   2.532   3.099  0.4053 -0.4963 -1.2745
31926SOL     OW13387   2.587   7.022   4.035  0.1165 -0.1109  0.3985
31926SOL    HW113388   2.585   6.970   3.955  0.0689 -0.0323  0.3481
31926SOL    HW213389   2.528   6.977   4.095  0.2229 -0.2198  0.4215
31927SOL     OW13390   4.831  10.952  10.427  0.1037  0.4161 -0.4532
31927SOL    HW113391   4.885  10.999  10.491 -0.7737 -0.4054  0.9440
31927SOL    HW213392   4.874  10.866  10.418 -1.4154 -0.6250  1.4305
31928SOL     OW13393  13.647   7.666   2.999  0.6526 -0.0706  0.2037
31928SOL    HW113394  13.581   7.721   2.956  0.3681  1.0109  1.8921
31928SOL    HW213395  13.716   7.656   2.934  0.1269  1.2304 -0.6119
31929SOL     OW13396   7.997  11.457   4.600  0.2399 -0.0679  0.5576
31929SOL    HW113397   8.090  11.452   4.578  0.3251 -1.1972  1.0843
31929SOL    HW213398   7.957  11.386   4.550 -0.0292 -0.7765  1.7501
31930SOL     OW13399   2.000   7.459  10.907  0.0610 -0.2507  0.4233
31930SOL    HW113400   2.035   7.466  10.818  0.3364  0.9823  0.6115
31930SOL    HW213401   2.023   7.370  10.934  1.2934 -0.1497 -0.1978
31931SOL     OW13402  11.666  10.974   1.543  0.0237 -0.3591  0.8253
31931SOL    HW113403  11.659  10.985   1.638  1.5447  0.9382  0.8289
31931SOL    HW213404  11.598  10.910   1.521 -0.4844 -0.5396  2.7507
31932SOL     OW13405  11.096   0.505   4.538  0.1600 -0.2409 -0.4469
31932SOL    HW113406  11.077   0.574   4.602 -2.8428 -0.8960 -0.4636
31932SOL    HW213407  11.115   0.428   4.591  1.4451  0.0645 -0.4246
31933SOL     OW13408   6.489   2.441   5.446 -0.3266  0.0004 -0.2660
31933SOL    HW113409   6.508   2.455   5.539  2.2808 -1.6039 -0.4364
31933SOL    HW213410   6.396   2.462   5.436 -0.5881  0.5630  2.6108
31934SOL     OW13411   9.860   2.623   8.415  0.5386 -0.1007  0.4775
31934SOL    HW113412   9.912   2.700   8.436  1.1993 -0.6395  0.8810
31934SOL    HW213413   9.878   2.562   8.487 -1.7236  0.2027  1.3697
31935SOL     OW13414   0.991   2.615   8.814  0.3303  0.1674 -0.0335
31935SOL    HW113415   0.989   2.702   8.776  0.2969 -0.4744 -1.5624
31935SOL    HW213416   1.081   2.603   8.844  0.8097  0.0698 -1.4493
31936SOL     OW13417   4.439   9.059   9.595 -0.6110  0.6561 -0.4220
31936SOL    HW113418   4.479   9.020   9.517  1.7317  1.6237  0.2315
31936SOL    HW213419   4.415   8.985   9.650 -0.1906  0.0284 -1.0736
31937SOL     OW13420   4.469  11.273   5.031 -0.4791 -0.9450  0.5590
31937SOL    HW113421   4.429  11.277   5.118 -0.9352 -1.5513  0.3808
31937SOL    HW213422   4.545  11.215   5.041 -0.5910 -1.0951  0.5252
31938SOL     OW13423   3.522   1.246   2.249  0.5045  0.2250  0.0825
31938SOL    HW113424   3.482   1.332   2.254  0.9605  0.3766  2.0441
31938SOL    HW213425   3.517   1.222   2.157  1.1753  2.7220 -0.6803
31939SOL     OW13426   6.174   9.326   3.441 -0.4078  0.3192  0.0770
31939SOL    HW113427   6.146   9.378   3.516  0.3332  0.1249  0.5018
31939SOL    HW213428   6.264   9.356   3.423 -0.1273 -0.4985  0.0635
31940SOL     OW13429   5.241   0.417  13.031 -0.3816 -0.2692  0.1731
31940SOL    HW113430   5.245   0.388  13.122 -1.6473  0.9791  0.6571
31940SOL    HW213431   5.233   0.336  12.981 -0.1564 -0.9487  1.2070
31941SOL     OW13432   9.356   3.018   6.608 -0.4520  0.1356  0.7283
31941SOL    HW113433   9.330   2.998   6.698 -0.3131 -1.4130  0.4460
31941SOL    HW213434   9.275   3.014   6.558 -0.3429 -0.2555  0.5807
31942SOL     OW13435   9.522   1.110  12.299 -0.3431  0.3739  0.3273
31942SOL    HW113436   9.450   1.147  12.249  0.9922  1.8042 -0.6143
31942SOL    HW213437   9.557   1.183  12.350  1.3844  0.1162 -0.4034
31943SOL     OW13438   9.914  11.789   6.862  0.2494 -0.0257 -0.0661
31943SOL    HW113439   9.897  11.754   6.775  1.2995  2.9209 -1.6051
31943SOL    HW213440  10.001  11.757   6.885  0.2734 -0.2121 -0.4158
31944SOL     OW13441   8.276   6.848   2.259 -0.8502  0.1929 -0.2536
31944SOL    HW113442   8.226   6.879   2.184  1.3106 -0.9989 -2.3229
31944SOL    HW213443   8.356   6.901   2.258 -1.1030  0.7068  1.7574
31945SOL     OW13444   5.850  11.040   5.267  0.4422 -0.0835  1.0509
31945SOL    HW113445   5.942  11.013   5.269  1.2206  2.3615  1.6029
31945SOL    HW213446   5.814  11.009   5.350  1.1924  0.1701  1.4893
31946SOL     OW13447   3.609   4.186   5.486 -0.3381  0.1834 -0.0679
31946SOL    HW113448   3.645   4.188   5.574  0.0263 -4.0826  0.0637
31946SOL    HW213449   3.683   4.161   5.430 -1.6251 -2.7650 -0.6507
31947SOL     OW13450   6.288  13.486  13.744  0.2433 -0.1941 -0.2728
31947SOL    HW113451   6.275  13.495  13.649 -1.0125  0.2645 -0.0853
31947SOL    HW213452   6.255  13.569  13.780 -1.3996 -1.2121  0.7158
31948SOL     OW13453  12.576  12.588   3.180  0.3095 -0.6077 -0.3656
31948SOL    HW113454  12.539  12.654   3.121 -0.1897 -0.6557 -0.1182
31948SOL    HW213455  12.500  12.555   3.229  0.8570  0.2990  1.1820
31949SOL     OW13456   1.147  13.486   9.256  0.8603  0.6285  0.2964
31949SOL    HW113457   1.096  13.405   9.253  0.5355  0.8434  0.0319
31949SOL    HW213458   1.106  13.543   9.191  0.3139  1.4707  1.3591
31950SOL     OW13459  10.378  12.603  11.599  0.1912  0.2385  0.3284
31950SOL    HW113460  10.399  12.555  11.519  0.0699  0.0484  0.4110
31950SOL    HW213461  10.435  12.680  11.596  1.1667 -0.4498  0.7270
31951SOL     OW13462  10.231  11.558  11.432  0.1201  0.3477 -0.5550
31951SOL    HW113463  10.170  11.491  11.402 -0.6025 -0.0932  1.6924
31951SOL    HW213464  10.308  11.508  11.461  0.6426  0.7176 -1.3007
31952SOL     OW13465   2.930  12.570   6.956 -0.5929  0.1482  0.4556
31952SOL    HW113466   2.967  12.646   7.001 -1.3539  2.3663 -2.3585
31952SOL    HW213467   2.844  12.559   6.997 -0.5203  0.8823  0.8309
31953SOL     OW13468   0.867   6.752  13.136  0.0163  0.0842 -0.1917
31953SOL    HW113469   0.909   6.820  13.188  2.2591 -1.1770 -0.2157
31953SOL    HW213470   0.777   6.750  13.168  0.6464  1.0844  1.8515
31954SOL     OW13471   0.431   7.875   6.883 -0.7227 -0.2590  0.4417
31954SOL    HW113472   0.471   7.879   6.796  0.1663 -1.7121  0.7465
31954SOL    HW213473   0.341   7.905   6.869 -0.1838  0.9435 -0.6901
31955SOL     OW13474   3.830   0.756  10.299 -0.1263 -0.1893  0.8239
31955SOL    HW113475   3.772   0.830  10.311 -0.4043 -0.2200 -0.2004
31955SOL    HW213476   3.781   0.681  10.333 -0.9970 -0.3237 -0.6295
31956SOL     OW13477  12.556   4.705   9.785  0.4418  0.0298  0.5798
31956SOL    HW113478  12.507   4.781   9.753  0.7488 -0.0232 -0.0183
31956SOL    HW213479  12.646   4.736   9.793  0.9174 -0.7280 -1.3278
31957SOL     OW13480   4.226  12.282  13.508 -0.6353  0.0663 -0.0510
31957SOL    HW113481   4.235  12.273  13.603 -0.0277  0.0644 -0.1013
31957SOL    HW213482   4.259  12.370  13.490  1.2859 -0.7048 -0.4907
31958SOL     OW13483   5.697   5.004   1.526 -0.4044 -0.2670  0.2436
31958SOL    HW113484   5.719   5.097   1.518  0.3935 -0.4211  0.6086
31958SOL    HW213485   5.665   4.979   1.440 -0.3153  0.2675  0.0519
31959SOL     OW13486   9.660   1.095   5.233 -0.3280 -0.0983  0.5332
31959SOL    HW113487   9.577   1.056   5.206 -0.2591  0.5804 -0.7532
31959SOL    HW213488   9.653   1.103   5.328 -1.6536 -0.2292  0.4670
31960SOL     OW13489  13.198  12.601   5.173 -0.7369  0.0043 -0.0354
31960SOL    HW113490  13.239  12.665   5.116  0.8653 -0.8886  0.0561
31960SOL    HW213491  13.145  12.547   5.115 -0.3135  0.0348 -0.4537
31961SOL     OW13492   3.549   1.290   7.687  0.1820  0.3526 -0.0431
31961SOL    HW113493   3.552   1.215   7.747  0.4931  0.4304  0.0383
31961SOL    HW213494   3.500   1.257   7.611  2.4325 -0.7355 -1.1022
31962SOL     OW13495   1.181  14.088   9.670 -0.2172 -0.1756  0.0433
31962SOL    HW113496   1.193  14.123   9.582  1.3764  0.0270  0.2975
31962SOL    HW213497   1.268  14.094   9.710 -0.4859 -1.9555  1.0062
31963SOL     OW13498   1.960  10.653   3.555 -0.1450 -0.0994 -0.2829
31963SOL    HW113499   2.005  10.684   3.477  0.0311  0.3292 -0.0140
31963SOL    HW213500   1.952  10.730   3.611  0.0183 -0.4638  0.2577
31964SOL     OW13501  11.845   3.810   0.340 -0.2154  0.2827  0.0829
31964SOL    HW113502  11.931   3.821   0.301 -0.6566  1.3166 -0.6479
31964SOL    HW213503  11.812   3.728   0.305 -0.0158  0.4905 -0.5944
31965SOL     OW13504  13.600   5.326   1.700 -0.3733 -0.3247  0.3084
31965SOL    HW113505  13.622   5.412   1.664 -1.4111  0.7705  2.1846
31965SOL    HW213506  13.670   5.307   1.762 -0.1430 -0.8682 -0.1030
31966SOL     OW13507   0.809  13.328  12.534  0.0596  0.0362 -0.0861
31966SOL    HW113508   0.879  13.333  12.469 -0.8074 -2.7120 -1.3467
31966SOL    HW213509   0.728  13.323  12.483 -0.9453  1.1282  1.3112
31967SOL     OW13510   9.196  13.971   6.697 -0.3991 -0.3248 -0.1382
31967SOL    HW113511   9.288  13.956   6.672 -0.1385 -0.4247  0.8564
31967SOL    HW213512   9.183  14.065   6.686  0.7330  0.2463  2.5429
31968SOL     OW13513   2.649   8.229   3.568 -0.3048 -0.1328  0.3370
31968SOL    HW113514   2.730   8.222   3.619 -0.0884  0.2472  0.0547
31968SOL    HW213515   2.584   8.182   3.619  0.0014 -0.0880  0.7743
31969SOL     OW13516  13.801  12.736  13.446 -0.8295  0.0253  0.1043
31969SOL    HW113517  13.883  12.701  13.482  0.1487  1.2736 -0.7832
31969SOL    HW213518  13.759  12.661  13.405  0.5032 -0.4367 -0.4970
31970SOL     OW13519   0.702   1.419   9.977 -0.2895  0.2175  0.2479
31970SOL    HW113520   0.677   1.401  10.067 -0.6730 -0.3078  0.0435
31970SOL    HW213521   0.727   1.333   9.942 -0.1162  0.4229 -0.1369
31971SOL     OW13522  11.840   5.302  14.061  0.3693  0.0449 -0.4452
31971SOL    HW113523  11.781   5.227  14.062 -1.7541  1.5838 -1.5655
31971SOL    HW213524  11.919   5.270  14.018 -0.1032 -1.7754 -0.0451
31972SOL     OW13525   3.484  12.046   3.736 -0.2986 -0.2983  0.3050
31972SOL    HW113526   3.578  12.037   3.750 -0.1974 -0.7597 -0.5706
31972SOL    HW213527   3.443  12.004   3.811  0.1985 -1.2022  0.0798
31973SOL     OW13528   5.105   8.538  12.754  0.1113 -0.4713 -0.0581
31973SOL    HW113529   5.045   8.464  12.740 -0.0744 -0.7228  1.8054
31973SOL    HW213530   5.185   8.498  12.789  0.6361  0.0648 -0.6159
31974SOL     OW13531   3.481   7.532   4.759 -0.1089  0.4343  0.2461
31974SOL    HW113532   3.559   7.574   4.794  0.7925 -1.2732  0.4179
31974SOL    HW213533   3.411   7.556   4.821  0.8282 -0.0759  1.5418
31975SOL     OW13534  10.844   4.540   7.791 -0.0857 -0.3445 -0.4079
31975SOL    HW113535  10.842   4.522   7.697 -0.5711 -0.2413 -0.4211
31975SOL    HW213536  10.936   4.553   7.811 -0.0712  0.6999 -1.0817
31976SOL     OW13537   0.632   0.457   9.553  1.0643 -0.2392 -0.1210
31976SOL    HW113538   0.617   0.452   9.459  0.0108 -2.1011  0.0917
31976SOL    HW213539   0.553   0.498   9.588  0.5083 -1.4414  0.1064
31977SOL     OW13540  10.722  10.811   2.418  0.8605 -0.4006  0.1587
31977SOL    HW113541  10.800  10.767   2.386  1.5035 -0.5749  1.9151
31977SOL    HW213542  10.734  10.818   2.512 -0.9122  0.2325  0.3805
31978SOL     OW13543  13.302   0.493   1.953 -0.5140 -0.0336  0.1638
31978SOL    HW113544  13.279   0.570   1.900 -1.7775  0.1407  0.9230
31978SOL    HW213545  13.256   0.421   1.910 -0.1803 -0.1833  0.0578
31979SOL     OW13546  13.321   5.147  10.612  0.2516 -0.6599 -0.6681
31979SOL    HW113547  13.366   5.071  10.574 -1.9175 -1.5468 -1.6479
31979SOL    HW213548  13.233   5.145  10.573 -0.9211  0.5191  1.6888
31980SOL     OW13549   4.509   8.063   0.247 -0.3973  0.1679  1.0574
31980SOL    HW113550   4.556   8.002   0.303  1.7730 -1.4268 -2.1701
31980SOL    HW213551   4.563   8.142   0.245 -1.0036  0.6150  1.9551
31981SOL     OW13552  12.578   7.438   6.750  0.6383 -0.1690  0.6424
31981SOL    HW113553  12.555   7.514   6.804  1.1445  0.0642  0.5387
31981SOL    HW213554  12.655   7.401   6.793  1.9197  0.8487 -0.6797
31982SOL     OW13555   1.650   9.672   3.101  0.4950  0.0496 -0.3897
31982SOL    HW113556   1.692   9.709   3.179  0.2215 -1.9901  0.8203
31982SOL    HW213557   1.715   9.682   3.032  0.9411  1.4824  0.1958
31983SOL     OW13558  10.130  11.748  10.906 -0.7895 -0.2883 -0.7787
31983SOL    HW113559  10.087  11.786  10.982  3.1985  2.4861  0.3999
31983SOL    HW213560  10.173  11.669  10.940  1.5715  1.3187  0.2236
31984SOL     OW13561   1.505   4.679  11.239  0.6143 -0.4154  0.8171
31984SOL    HW113562   1.414   4.705  11.250  0.4619  1.4123 -3.0586
31984SOL    HW213563   1.550   4.716  11.315 -1.6481 -0.3557  2.2168
31985SOL     OW13564   6.894  13.451   0.450 -0.4395  0.2438  0.3265
31985SOL    HW113565   6.847  13.473   0.370  0.4821  2.1135  0.2351
31985SOL    HW213566   6.853  13.504   0.518  0.8955  1.2446  0.4101
31986SOL     OW13567  11.801   0.058   5.633  0.3014  0.3241  0.0515
31986SOL    HW113568  11.885   0.101   5.646 -0.3051  1.0536  1.9555
31986SOL    HW213569  11.747   0.121   5.585  0.4150  0.4040  0.0304
31987SOL     OW13570   8.271   9.736  13.977  0.0450 -0.4416  0.6590
31987SOL    HW113571   8.199   9.781  13.933  0.0699 -0.2258  0.8402
31987SOL    HW213572   8.333   9.805  13.999  1.4655 -0.8636 -1.6353
31988SOL     OW13573   3.032  10.810   6.899 -0.7607 -0.6108  0.2580
31988SOL    HW113574   3.010  10.902   6.912  0.2504 -0.3464  0.1429
31988SOL    HW213575   2.954  10.773   6.857 -0.8839  0.3631 -0.4042
31989SOL     OW13576   0.194   3.202   7.396  0.7816 -0.2595 -0.1266
31989SOL    HW113577   0.147   3.223   7.477  1.0421  1.1637 -0.3228
31989SOL    HW213578   0.216   3.109   7.404  2.6721  0.3054  2.4114
31990SOL     OW13579   5.344   0.454   3.010  0.1978 -0.0882  0.1103
31990SOL    HW113580   5.294   0.448   3.091 -0.7163 -3.1643 -0.5339
31990SOL    HW213581   5.400   0.530   3.021 -0.0229 -0.2876  3.5470
31991SOL     OW13582   3.842   8.841  10.596 -0.0983 -0.2445  0.6881
31991SOL    HW113583   3.802   8.919  10.635  0.6983  0.6168 -0.1744
31991SOL    HW213584   3.936   8.858  10.598  0.1258 -1.3855  0.8764
31992SOL     OW13585  13.199   3.120   6.993 -0.8540 -0.4724  0.3399
31992SOL    HW113586  13.237   3.194   7.040 -0.8629  1.5628 -2.6155
31992SOL    HW213587  13.260   3.047   7.011  0.7857  0.9819  0.9849
31993SOL     OW13588   7.547   8.162   0.283 -0.0201  0.6285  0.0560
31993SOL    HW113589   7.569   8.223   0.353 -0.7689 -0.3631  1.1947
31993SOL    HW213590   7.573   8.208   0.203  0.1126  2.1232  0.9085
31994SOL     OW13591  11.580   8.339   0.378 -0.0948 -0.0158  0.6272
31994SOL    HW113592  11.567   8.416   0.434 -4.1953 -0.5597  0.6689
31994SOL    HW213593  11.593   8.267   0.439 -0.0634  0.0555  0.7064
31995SOL     OW13594  13.397   6.359   6.722 -0.7844 -0.0367  0.3466
31995SOL    HW113595  13.426   6.433   6.775  0.8628 -0.5230  0.1894
31995SOL    HW213596  13.356   6.400   6.645  0.4204  0.7511  0.0846
31996SOL     OW13597   7.337   4.067   3.089 -0.1890 -0.4790 -0.2524
31996SOL    HW113598   7.258   4.079   3.037  0.2009 -2.0526 -1.2603
31996SOL    HW213599   7.408   4.094   3.031  0.1680 -1.1639 -0.1463
31997SOL     OW13600  11.760   0.313   3.434 -0.3146 -0.5649  0.9682
31997SOL    HW113601  11.818   0.250   3.477  0.5031 -1.0086 -0.7370
31997SOL    HW213602  11.700   0.259   3.383  0.0368  0.0010 -0.0685
31998SOL     OW13603   6.768   7.475   3.884  0.1086 -0.7725  0.1614
31998SOL    HW113604   6.805   7.513   3.805  0.2442 -0.7032  0.2573
31998SOL    HW213605   6.719   7.547   3.924  0.9146 -0.4979  0.6885
31999SOL     OW13606   5.260   3.081   9.199 -0.3230 -0.5092 -0.4161
31999SOL    HW113607   5.263   3.173   9.173  0.1448 -0.6300 -0.8166
31999SOL    HW213608   5.168   3.064   9.218 -0.6750 -0.3694 -1.8891
32000SOL     OW13609   8.831  12.564  11.882 -0.4251 -0.3529  0.3625
32000SOL    HW113610   8.815  12.470  11.889 -0.3803 -0.3467  0.5509
32000SOL    HW213611   8.888  12.574  11.805  0.5173 -0.5895  1.0148
32001SOL     OW13612  11.275   0.456   7.315 -0.3215 -0.5645 -0.1808
32001SOL    HW113613  11.248   0.393   7.382  1.9504 -1.3207  0.1028
32001SOL    HW213614  11.266   0.541   7.356 -0.1395 -0.9458  0.6686
32002SOL     OW13615   2.689  10.415  13.710 -0.4910  0.1611 -0.0466
32002SOL    HW113616   2.609  10.430  13.760 -1.8971  1.6925 -2.6156
32002SOL    HW213617   2.660  10.368  13.632  1.3419 -0.3670 -0.4520
32003SOL     OW13618   7.995   7.568  13.816  0.3869  0.2027 -0.0788
32003SOL    HW113619   7.932   7.639  13.805 -0.3680  0.0545  2.5201
32003SOL    HW213620   7.941   7.489  13.823  0.8946 -0.0726  1.0522
32004SOL     OW13621   5.263   4.066   9.318  0.1586 -0.0240  0.3015
32004SOL    HW113622   5.299   3.984   9.352 -1.0129 -0.1522  1.3138
32004SOL    HW213623   5.172   4.044   9.295  0.1427  0.7435 -0.4186
32005SOL     OW13624   7.950  14.030   5.420 -0.5783 -0.2787 -0.5016
32005SOL    HW113625   7.867  13.982   5.427 -1.2027  0.7505 -0.5739
32005SOL    HW213626   8.010  13.983   5.479 -1.3093 -0.8407 -0.1857
32006SOL     OW13627   3.713   2.706   3.753  1.0097  0.6537 -0.6804
32006SOL    HW113628   3.633   2.759   3.752 -0.3151 -1.0753  1.8056
32006SOL    HW213629   3.733   2.692   3.661 -0.6249  2.4560 -1.3858
32007SOL     OW13630   4.326  11.062  11.068  0.6062  0.8338  0.0562
32007SOL    HW113631   4.383  10.988  11.086  0.4933  0.6789 -0.2139
32007SOL    HW213632   4.267  11.067  11.143 -0.1089 -0.0377 -0.4344
32008SOL     OW13633  10.991   8.913  13.197 -0.1378 -0.3631 -0.4514
32008SOL    HW113634  10.900   8.938  13.181 -0.6325 -1.3155  0.7742
32008SOL    HW213635  10.996   8.896  13.291  1.4623  0.2517 -0.3873
32009SOL     OW13636  11.533  12.747  11.435 -0.4195 -0.1211 -0.1917
32009SOL    HW113637  11.611  12.792  11.406 -0.2055 -0.0419  0.4757
32009SOL    HW213638  11.565  12.664  11.470 -0.8650 -1.1042 -1.9838
32010SOL     OW13639   3.790  10.223   4.547  0.2954 -0.1785 -0.1395
32010SOL    HW113640   3.800  10.300   4.603  0.3055  0.4334 -0.9703
32010SOL    HW213641   3.875  10.213   4.504  0.1025 -0.2808 -0.5042
32011SOL     OW13642  13.390   5.954   9.108  0.6536  0.1668 -0.6270
32011SOL    HW113643  13.464   5.902   9.077  0.1854 -1.2365  0.4893
32011SOL    HW213644  13.341   5.976   9.029  4.1139  4.4091 -1.9756
32012SOL     OW13645   1.734   2.145   8.704  0.3822  0.1035  0.3721
32012SOL    HW113646   1.651   2.168   8.744 -0.8586  1.1394 -2.5613
32012SOL    HW213647   1.729   2.050   8.693  0.1121  0.0086  1.2065
32013SOL     OW13648   5.781   1.840  10.508 -0.2108  0.0238  0.1453
32013SOL    HW113649   5.735   1.873  10.431 -1.6344  0.8366  1.3028
32013SOL    HW213650   5.793   1.747  10.491 -1.8275 -0.1102 -0.4515
32014SOL     OW13651  13.603  11.500   7.472 -0.0647 -0.0547  0.5855
32014SOL    HW113652  13.637  11.574   7.523  0.2817 -0.5761  1.1355
32014SOL    HW213653  13.541  11.456   7.531 -0.7041  0.1247  0.0581
32015SOL     OW13654   4.612   3.879   0.015 -0.1837  0.2367 -0.4799
32015SOL    HW113655   4.597   3.911   0.103 -1.0003  0.3308 -0.6423
32015SOL    HW213656   4.638   3.957  -0.035 -1.5268  0.5470 -0.7283
32016SOL     OW13657   3.051   7.158   2.170  0.0576  0.0423  0.1092
32016SOL    HW113658   3.057   7.164   2.075  2.4594 -0.9063  0.1438
32016SOL    HW213659   3.031   7.066   2.187  3.8403 -0.8452  0.5336
32017SOL     OW13660   5.399   1.491  12.044 -0.4810 -0.2889 -0.4629
32017SOL    HW113661   5.491   1.473  12.023 -0.0305  0.6971  0.5940
32017SOL    HW213662   5.353   1.411  12.017  0.5576 -0.5135 -1.7113
32018SOL     OW13663   9.834   2.585   5.243 -0.0189  0.6495 -0.3182
32018SOL    HW113664   9.749   2.544   5.226 -0.6196  1.3457  0.8070
32018SOL    HW213665   9.884   2.572   5.163 -1.1835  0.1924 -0.9988
32019SOL     OW13666   4.777  12.128  11.545  0.0218  0.4476 -0.0945
32019SOL    HW113667   4.688  12.120  11.580 -0.5114  1.0850 -1.2338
32019SOL    HW213668   4.813  12.204  11.590  0.0957  0.0376  0.5576
32020SOL     OW13669  10.365  11.716   4.095  0.0918 -0.7710 -0.7879
32020SOL    HW113670  10.295  11.780   4.108  0.8691  0.5707 -2.7621
32020SOL    HW213671  10.334  11.637   4.139 -1.4376  0.5852  0.7116
32021SOL     OW13672  11.174   6.953  10.258  0.5718 -0.2246 -0.4309
32021SOL    HW113673  11.080   6.958  10.238  0.8639  2.0278 -1.5535
32021SOL    HW213674  11.188   7.023  10.322  1.6739  0.3013 -1.2212
32022SOL     OW13675  11.110   2.484   3.504 -0.3331 -0.3004 -0.4553
32022SOL    HW113676  11.017   2.462   3.511 -0.2794 -0.1483  1.1846
32022SOL    HW213677  11.123   2.506   3.412 -2.7342  3.3439 -0.1152
32023SOL     OW13678  12.747  13.888   9.067  0.2331 -0.4860  0.1957
32023SOL    HW113679  12.819  13.858   9.011  0.2260 -0.4854  0.1869
32023SOL    HW213680  12.676  13.908   9.005  0.2221 -0.4949  0.2064
32024SOL     OW13681  12.749   2.069   7.540 -0.4187 -0.4911  0.4943
32024SOL    HW113682  12.667   2.102   7.577 -0.4079 -0.5950  0.6103
32024SOL    HW213683  12.767   2.128   7.466 -0.8886 -0.8060  0.1200
32025SOL     OW13684   6.236   4.575   3.545 -0.2037 -0.3568  0.1946
32025SOL    HW113685   6.223   4.610   3.456  1.0550 -0.9327 -0.2368
32025SOL    HW213686   6.300   4.505   3.534  1.8450  1.1315  1.8927
32026SOL     OW13687   9.816   7.675   5.347 -0.0014  0.5591 -0.1774
32026SOL    HW113688   9.860   7.628   5.419 -1.3535  0.5695  0.6979
32026SOL    HW213689   9.804   7.608   5.279 -1.1177 -0.1902  0.7053
32027SOL     OW13690  12.342   6.823  13.016  0.1119 -0.3066  0.1699
32027SOL    HW113691  12.354   6.852  12.925  0.0705  1.2704  0.6395
32027SOL    HW213692  12.401   6.879  13.066 -0.7329 -0.3705  1.2547
32028SOL     OW13693   2.923  13.490   6.937  0.5558  0.5621  0.4956
32028SOL    HW113694   2.844  13.489   6.992  0.2874  0.9910  0.1220
32028SOL    HW213695   2.951  13.398   6.935 -1.0568  0.0414 -0.9494
32029SOL     OW13696   1.649   5.554   1.120  0.0990  0.0456 -0.0130
32029SOL    HW113697   1.650   5.458   1.114  0.4015  0.0675 -0.4079
32029SOL    HW213698   1.726   5.575   1.173 -0.9433 -0.0045  1.5729
32030SOL     OW13699   6.658  13.163   4.206  0.1293 -0.5655 -0.0353
32030SOL    HW113700   6.592  13.110   4.161  0.1602 -1.4664  0.9465
32030SOL    HW213701   6.638  13.253   4.180 -1.5404 -0.8076  0.2892
32031SOL     OW13702   2.811   4.537   2.469 -0.3061  0.3922  0.4395
32031SOL    HW113703   2.868   4.535   2.392 -2.4750 -1.7807 -1.2820
32031SOL    HW213704   2.730   4.577   2.438 -0.5430  1.3693  2.2112
32032SOL     OW13705  10.953   3.683  10.520  0.0050 -0.9396 -0.6864
32032SOL    HW113706  10.869   3.706  10.479 -1.7003  0.8719  3.2904
32032SOL    HW213707  11.006   3.762  10.510 -1.0151  0.1422  1.7047
32033SOL     OW13708   0.967   2.118   1.960  0.0950  0.1218 -0.2437
32033SOL    HW113709   0.955   2.203   1.918  0.3838 -0.8857 -2.4995
32033SOL    HW213710   1.005   2.138   2.045 -1.2716  2.3163 -0.0729
32034SOL     OW13711   3.895   9.975   8.405 -0.1704 -0.3491 -0.2048
32034SOL    HW113712   3.923   9.884   8.417  1.4118 -0.1129 -1.8072
32034SOL    HW213713   3.955  10.026   8.459 -0.8413 -0.1993  0.4198
32035SOL     OW13714   2.071   7.822   6.654  0.1970 -0.2540 -0.3508
32035SOL    HW113715   2.087   7.916   6.668  0.3265 -0.4742  1.2344
32035SOL    HW213716   2.012   7.797   6.725  0.6339 -1.4980 -0.4000
32036SOL     OW13717  13.594   3.381  10.978 -0.0895  0.0938 -0.4590
32036SOL    HW113718  13.661   3.317  10.953  0.8555  0.0823  1.8581
32036SOL    HW213719  13.644   3.458  11.006 -1.1819  1.5271 -2.2309
32037SOL     OW13720   5.781   9.152   1.178  0.6728 -0.1896 -0.3203
32037SOL    HW113721   5.802   9.208   1.253 -1.9681 -0.9403  1.0924
32037SOL    HW213722   5.709   9.096   1.208 -1.6786  0.5639 -3.8319
32038SOL     OW13723   3.376   8.867   9.305 -0.1034 -0.0346 -0.2592
32038SOL    HW113724   3.398   8.805   9.235 -1.0768  0.4510 -1.0158
32038SOL    HW213725   3.445   8.855   9.370  0.4498 -0.9751 -0.9974
32039SOL     OW13726   5.250   9.135  11.822 -0.3328 -0.2464 -0.4836
32039SOL    HW113727   5.222   9.177  11.741 -0.1552 -1.4253 -1.1838
32039SOL    HW213728   5.169   9.108  11.865 -0.4034 -1.6975 -1.4379
32040SOL     OW13729   9.089   2.912  12.328  0.1041 -0.3374  0.2087
32040SOL    HW113730   9.132   2.873  12.404  1.4007  1.5875  0.5342
32040SOL    HW213731   9.013   2.958  12.363 -0.9343 -1.7649 -0.0691
32041SOL     OW13732   5.482   0.021   7.568  0.3590  0.1001 -0.1436
32041SOL    HW113733   5.421   0.073   7.516 -0.5263  0.4517  1.1751
32041SOL    HW213734   5.485  -0.064   7.525 -1.6248 -0.1466  0.1034
32042SOL     OW13735  12.265   1.854   7.420  0.1198 -0.4336  0.0113
32042SOL    HW113736  12.327   1.842   7.493 -0.7727 -1.7926  0.5998
32042SOL    HW213737  12.276   1.775   7.367 -1.0777 -0.6785  0.1164
32043SOL     OW13738   7.727   1.538   6.254 -0.4886  0.1938 -0.7486
32043SOL    HW113739   7.736   1.496   6.169  0.9464 -0.0189 -0.5109
32043SOL    HW213740   7.816   1.560   6.280 -0.9346  0.5953  0.5358
32044SOL     OW13741   0.640   9.173  12.250  0.3826  0.5285  0.1282
32044SOL    HW113742   0.670   9.086  12.274 -0.1185  0.0642 -0.8653
32044SOL    HW213743   0.603   9.162  12.163 -0.1294  1.6414  0.1921
32045SOL     OW13744  13.880   3.216  10.656  0.0076  0.9946  0.4534
32045SOL    HW113745  13.864   3.218  10.750 -0.2032  0.3841  0.4379
32045SOL    HW213746  13.807   3.265  10.618 -2.4248 -2.3860  0.3356
32046SOL     OW13747   8.599   4.189  13.339 -0.5129 -1.0554 -0.1959
32046SOL    HW113748   8.661   4.119  13.363 -2.9087 -2.6792  1.8379
32046SOL    HW213749   8.655   4.265  13.321  2.0797 -1.8123  3.4294
32047SOL     OW13750   8.080   4.270   0.524 -0.1892  0.1383 -0.0971
32047SOL    HW113751   8.104   4.325   0.599 -0.5321 -0.0166  0.1296
32047SOL    HW213752   8.049   4.332   0.458 -1.4132  0.1734  0.4774
32048SOL     OW13753   0.018   1.964   4.534 -0.1804 -0.2624 -0.4261
32048SOL    HW113754  -0.054   2.019   4.563  0.6316  0.4020  0.3869
32048SOL    HW213755   0.084   1.971   4.603  1.3469  0.4656 -1.8791
32049SOL     OW13756   3.027   5.611   7.269  0.2107  0.1005  0.0830
32049SOL    HW113757   3.073   5.532   7.241 -1.1647 -1.1056  1.0879
32049SOL    HW213758   3.093   5.680   7.265  1.4622 -1.1010 -0.7489
32050SOL     OW13759   8.383   8.040   7.242 -0.5530  0.4029  0.3814
32050SOL    HW113760   8.433   7.984   7.302 -1.1883 -0.4406  0.1432
32050SOL    HW213761   8.306   8.066   7.292 -2.1721 -2.0247 -0.6873
32051SOL     OW13762   9.288  12.384   0.350 -0.6265  0.0526 -0.2078
32051SOL    HW113763   9.257  12.343   0.430  1.2885  0.8613  1.0212
32051SOL    HW213764   9.233  12.461   0.339 -0.2765  0.4787  0.9132
32052SOL     OW13765   3.325   3.177  10.260 -0.5760 -0.1207  0.2754
32052SOL    HW113766   3.266   3.253  10.256  1.0616  1.1848 -0.3478
32052SOL    HW213767   3.387   3.199  10.330 -1.2960 -1.8684  1.5353
32053SOL     OW13768   4.280  11.421   7.213  0.3989  0.4557  0.2453
32053SOL    HW113769   4.217  11.366   7.259  1.1080 -0.1250  0.5549
32053SOL    HW213770   4.303  11.490   7.275  0.6203  0.2370  0.4082
32054SOL     OW13771   4.267   6.532   4.408 -0.5212 -0.0143 -0.4319
32054SOL    HW113772   4.232   6.617   4.381  1.5329  1.0320  0.0260
32054SOL    HW213773   4.261   6.532   4.503  1.2961  0.4836 -0.2950
32055SOL     OW13774   0.143  11.102  11.782 -0.2857  0.6975  0.1048
32055SOL    HW113775   0.102  11.020  11.808 -0.3373  0.1725 -1.5337
32055SOL    HW213776   0.122  11.163  11.852  0.5570 -0.9070  1.8535
32056SOL     OW13777   5.116   3.192   4.300 -0.4370  0.1626  0.5500
32056SOL    HW113778   5.207   3.190   4.332 -0.5668  2.9751  1.4632
32056SOL    HW213779   5.116   3.261   4.234 -1.7982 -0.2460  0.1012
32057SOL     OW13780   3.933   4.459   3.993  0.0772 -0.0273  0.3996
32057SOL    HW113781   3.857   4.428   3.944  0.3155 -2.7339  1.5771
32057SOL    HW213782   3.902   4.469   4.083  1.3602 -2.5453  1.1922
32058SOL     OW13783   3.296   8.873   0.435  0.1433  0.7720 -0.5979
32058SOL    HW113784   3.359   8.802   0.448 -0.8526 -0.2581 -1.2294
32058SOL    HW213785   3.264   8.893   0.523 -1.0039 -0.9480 -0.5820
32059SOL     OW13786   1.055   1.224   1.776  0.1522 -0.1412 -0.3804
32059SOL    HW113787   1.030   1.250   1.687  0.6214 -1.0642 -0.7905
32059SOL    HW213788   1.073   1.130   1.770  1.3944  0.0244  0.4097
32060SOL     OW13789   5.289  11.572  11.665  0.7367  0.1765  0.4626
32060SOL    HW113790   5.304  11.551  11.757 -0.7733  0.9788  0.9341
32060SOL    HW213791   5.201  11.539  11.648  1.1467 -0.2956 -0.8083
32061SOL     OW13792   1.369   1.727   1.202  0.1499 -0.3962 -0.1292
32061SOL    HW113793   1.309   1.653   1.198 -0.4852  0.1503 -1.0799
32061SOL    HW213794   1.414   1.726   1.118  0.0719  0.3458 -0.1853
32062SOL     OW13795   2.267   2.414   8.992 -0.2669  0.0745  0.2466
32062SOL    HW113796   2.342   2.357   9.009  0.2019  0.6680  0.2015
32062SOL    HW213797   2.273   2.435   8.899  0.5358  1.5305  0.5947
32063SOL     OW13798  10.304   2.759  11.570  0.1593  0.8267  0.2464
32063SOL    HW113799  10.283   2.833  11.514 -3.3200  0.5373  0.9282
32063SOL    HW213800  10.288   2.791  11.659 -0.3523 -0.3924  0.6220
32064SOL     OW13801  13.110   3.663   2.548  0.0874 -0.9016  0.9337
32064SOL    HW113802  13.089   3.688   2.638 -1.0040  0.1416  0.4099
32064SOL    HW213803  13.136   3.744   2.506  2.2939 -1.6596  0.7233
32065SOL     OW13804   2.922   6.530  11.431 -0.2188  0.9581 -0.3432
32065SOL    HW113805   2.916   6.606  11.488  0.7774  0.1744  0.8554
32065SOL    HW213806   3.001   6.485  11.459 -1.5085 -1.2796 -0.0480
32066SOL     OW13807   4.328  13.131   9.113 -0.6068 -0.4088 -0.4245
32066SOL    HW113808   4.355  13.047   9.077 -0.3603 -0.0926 -0.9950
32066SOL    HW213809   4.342  13.123   9.207  0.9075 -0.4598 -0.6298
32067SOL     OW13810   8.621   8.146   1.873  0.2066  0.3231 -0.0547
32067SOL    HW113811   8.667   8.076   1.918 -0.8351 -0.6112 -0.3838
32067SOL    HW213812   8.666   8.155   1.789  2.2011  2.1176  1.1058
32068SOL     OW13813   9.748   4.010   5.677 -0.0934  0.5914 -0.5056
32068SOL    HW113814   9.680   3.943   5.673 -0.3739  0.8817 -3.8025
32068SOL    HW213815   9.707   4.083   5.722 -0.9756 -0.2473  0.0956
32069SOL     OW13816  11.589   7.157   0.188  0.4363 -0.5352 -0.1051
32069SOL    HW113817  11.627   7.157   0.100 -0.4737 -0.7748 -0.5189
32069SOL    HW213818  11.497   7.133   0.174  0.7642 -2.7966  1.1368
32070SOL     OW13819   5.829   2.312   0.451  0.1208 -0.5130  0.2833
32070SOL    HW113820   5.879   2.230   0.451 -1.0917 -1.2882  0.4250
32070SOL    HW213821   5.738   2.284   0.443 -0.4457  0.7392  1.7992
32071SOL     OW13822   9.364  13.254   2.386 -0.3024  0.5366  0.2251
32071SOL    HW113823   9.353  13.320   2.317 -0.7652 -0.0077 -0.2291
32071SOL    HW213824   9.363  13.305   2.467 -0.0286  1.1570 -0.1515
32072SOL     OW13825  11.778   4.641   7.642  0.7173 -0.3318  0.0989
32072SOL    HW113826  11.706   4.611   7.697  0.4152 -0.2647 -0.2538
32072SOL    HW213827  11.792   4.732   7.669  0.9997 -0.4952  0.5085
32073SOL     OW13828   9.153  10.856   2.164 -0.0411  0.5843 -0.7493
32073SOL    HW113829   9.186  10.788   2.105 -0.4977 -1.1574  0.9060
32073SOL    HW213830   9.058  10.846   2.163 -0.0911  0.9311 -0.1716
32074SOL     OW13831   0.071   0.344   3.951  0.3423  0.4932 -0.3630
32074SOL    HW113832   0.011   0.292   4.005  0.5793  1.0435  0.4496
32074SOL    HW213833   0.151   0.350   4.003 -0.5455  3.9018  0.8156
32075SOL     OW13834   9.695  12.067   6.733  0.4366 -0.9036 -0.1133
32075SOL    HW113835   9.692  12.118   6.814  0.8485 -0.9248 -0.0821
32075SOL    HW213836   9.788  12.050   6.719  0.3092 -1.5809 -0.1698
32076SOL     OW13837   1.405   2.921   4.486 -0.2706  0.2669 -0.0628
32076SOL    HW113838   1.363   2.933   4.401  0.1595 -1.2353 -0.5172
32076SOL    HW213839   1.382   2.999   4.536 -2.6013  0.0407 -0.7034
32077SOL     OW13840   9.225   4.535   3.477  0.2037 -0.2371  0.2660
32077SOL    HW113841   9.161   4.522   3.547 -0.9537 -1.3658 -0.9355
32077SOL    HW213842   9.218   4.455   3.424 -0.8142  1.5866 -2.5578
32078SOL     OW13843   8.855   9.856   3.638  0.5252 -0.0864  0.4469
32078SOL    HW113844   8.851   9.936   3.691 -0.6532 -0.5392  1.0731
32078SOL    HW213845   8.790   9.870   3.569 -0.5245 -0.9536  1.2303
32079SOL     OW13846   9.165   1.768   6.568 -0.4326 -0.2227  0.2097
32079SOL    HW113847   9.132   1.781   6.479 -0.5939 -0.8461  0.1759
32079SOL    HW213848   9.118   1.833   6.620  1.5262  1.9374 -0.5597
32080SOL     OW13849   0.456   5.461   9.218 -0.2275 -0.5474 -0.4730
32080SOL    HW113850   0.375   5.453   9.267 -1.0335 -1.8509 -1.9202
32080SOL    HW213851   0.524   5.429   9.277 -1.0643 -1.4036  0.0333
32081SOL     OW13852   0.494   3.521   5.102 -0.3635  0.4089  0.0224
32081SOL    HW113853   0.541   3.438   5.101  0.3838  0.8052 -1.5214
32081SOL    HW213854   0.405   3.498   5.129  0.1692 -0.6671  0.9466
32082SOL     OW13855   8.003   8.219  12.023  0.4775 -0.6953  0.3606
32082SOL    HW113856   7.963   8.306  12.024 -0.0572 -0.9446  0.8597
32082SOL    HW213857   7.931   8.159  12.041  0.4373 -1.4182 -1.8583
32083SOL     OW13858  11.860  10.141   2.630  0.1348  0.1861 -0.4765
32083SOL    HW113859  11.952  10.156   2.650  0.2176 -0.6976 -0.1771
32083SOL    HW213860  11.851  10.164   2.538  0.4640  1.1081 -0.2840
32084SOL     OW13861   7.648   6.027  11.256 -0.0065 -0.0248 -0.5084
32084SOL    HW113862   7.725   6.082  11.237 -0.4768  1.0795  0.6297
32084SOL    HW213863   7.574   6.081  11.230 -0.5277  0.3518  1.5595
32085SOL     OW13864   3.160   5.704  10.137  0.5843  0.0639  0.0107
32085SOL    HW113865   3.168   5.680  10.229  0.4520 -0.7739 -0.1882
32085SOL    HW213866   3.237   5.758  10.119  1.8619 -1.6719  0.0349
32086SOL     OW13867   0.988   1.521   9.049 -0.1972 -0.6033  0.1241
32086SOL    HW113868   1.020   1.545   8.962 -2.7653  0.8406 -0.5179
32086SOL    HW213869   1.023   1.588   9.107  1.9551 -1.8555  0.3976
32087SOL     OW13870  13.645  13.411   9.616  0.4645  0.4442  0.4068
32087SOL    HW113871  13.712  13.349   9.588  0.7577  1.9881 -2.7008
32087SOL    HW213872  13.687  13.497   9.612 -1.4415  1.3843 -0.8896
32088SOL     OW13873  11.021   3.474   3.109  0.4765  0.0869 -0.1719
32088SOL    HW113874  11.074   3.399   3.082  0.6623  0.9267 -2.3546
32088SOL    HW213875  10.970   3.442   3.184  1.5679 -1.7693 -0.1685
32089SOL     OW13876   5.659  10.927   9.243 -0.8328 -0.4886 -0.2575
32089SOL    HW113877   5.622  10.991   9.182 -0.3534  0.0366 -0.0027
32089SOL    HW213878   5.714  10.870   9.188  0.6302  0.7626 -0.1503
32090SOL     OW13879   4.135   2.649   8.664 -0.0821 -0.3811  0.2889
32090SOL    HW113880   4.069   2.615   8.723 -0.2961 -0.2475  0.1269
32090SOL    HW213881   4.095   2.644   8.577  0.6804 -1.7406 -0.0230
32091SOL     OW13882   8.775  12.567   1.307 -0.7820 -0.5436 -0.2152
32091SOL    HW113883   8.831  12.558   1.384 -0.5107  1.9499 -0.0634
32091SOL    HW213884   8.690  12.533   1.335  0.0139 -2.2301  0.2703
32092SOL     OW13885   8.580  12.880   8.328 -0.1900 -0.7505  0.2715
32092SOL    HW113886   8.620  12.793   8.322 -1.9161 -1.7557  2.0158
32092SOL    HW213887   8.489  12.866   8.301 -0.4465  0.5777  0.3902
32093SOL     OW13888  12.426  12.426   3.878  0.2906  0.6844 -0.1482
32093SOL    HW113889  12.454  12.481   3.952 -0.0122 -1.0224  1.3002
32093SOL    HW213890  12.382  12.352   3.919 -1.4600  0.5449 -2.1515
32094SOL     OW13891  10.387   8.698   0.011  0.1720 -0.1351  0.0244
32094SOL    HW113892  10.400   8.789  -0.017 -0.7267 -0.4431 -1.4930
32094SOL    HW213893  10.295   8.694   0.037 -0.0713 -0.8355 -0.8901
32095SOL     OW13894   3.681  10.364   5.527 -0.2553  0.4464 -0.8131
32095SOL    HW113895   3.653  10.419   5.600 -0.3387  0.5935 -0.9548
32095SOL    HW213896   3.776  10.379   5.520  0.2903 -1.6461  1.0168
32096SOL     OW13897   7.696   0.867   5.435 -0.0376  0.3014 -0.0749
32096SOL    HW113898   7.759   0.795   5.437 -0.5921 -0.1928 -0.1116
32096SOL    HW213899   7.739   0.936   5.384  0.3011 -0.1970 -0.4651
32097SOL     OW13900  12.526   7.735  12.674 -0.1364  0.4975 -0.4741
32097SOL    HW113901  12.473   7.715  12.751 -0.9753  0.8711 -0.9380
32097SOL    HW213902  12.608   7.769  12.709 -0.3853  0.3684  0.2537
32098SOL     OW13903   6.859   3.782  10.934 -0.0773  0.0678  0.0210
32098SOL    HW113904   6.850   3.687  10.934  1.3797 -0.0962 -1.0217
32098SOL    HW213905   6.816   3.810  10.853  0.4274  0.1789 -0.2139
32099SOL     OW13906   1.217   1.049   8.808 -0.0335  0.3906 -0.5238
32099SOL    HW113907   1.167   1.030   8.888  0.4756 -0.9507 -0.5110
32099SOL    HW213908   1.266   0.969   8.790 -0.1829  0.6540 -2.2319
32100SOL     OW13909   5.521   3.875   4.741  0.3281  0.1334 -0.1907
32100SOL    HW113910   5.472   3.796   4.762 -0.5484  0.9159  0.8584
32100SOL    HW213911   5.488   3.940   4.803  0.0244  1.7020 -1.9217
32101SOL     OW13912   1.705   8.787   6.161  0.0942  0.2710 -0.5418
32101SOL    HW113913   1.751   8.703   6.154  0.2096  0.3155 -0.3102
32101SOL    HW213914   1.733   8.823   6.245  1.6265  1.4740 -1.5001
32102SOL     OW13915   0.938   9.157  11.309 -0.0179  0.0356 -0.1953
32102SOL    HW113916   0.890   9.117  11.382  1.0318  0.2413  0.6384
32102SOL    HW213917   0.940   9.251  11.330 -0.4079  0.2073 -0.9085
32103SOL     OW13918  12.114   1.060   2.765  0.7219 -0.0276 -0.2825
32103SOL    HW113919  12.059   1.019   2.832  0.5043  1.6933  0.6506
32103SOL    HW213920  12.110   1.154   2.784  2.1367  0.3544 -1.6105
32104SOL     OW13921  13.041   3.319   8.403 -0.4489 -0.3002 -0.0267
32104SOL    HW113922  12.958   3.274   8.387 -0.6039  0.4737 -1.6001
32104SOL    HW213923  13.099   3.252   8.440 -1.0023 -1.4992 -1.2782
32105SOL     OW13924   1.084   7.017   0.098  0.3563 -0.4193 -0.1034
32105SOL    HW113925   1.101   7.100   0.054  2.0727  0.6532  2.3403
32105SOL    HW213926   1.009   6.979   0.051 -0.0299  2.1464 -1.7377
32106SOL     OW13927   1.324   0.281   0.359 -0.1923 -0.0488 -0.2630
32106SOL    HW113928   1.366   0.348   0.305 -0.8034  0.6756  0.1451
32106SOL    HW213929   1.327   0.317   0.448 -0.4572 -0.5973 -0.0314
32107SOL     OW13930  10.679  11.933   6.889  0.0722 -0.0130 -0.3159
32107SOL    HW113931  10.614  11.873   6.852  1.2210 -0.6430 -1.3538
32107SOL    HW213932  10.745  11.943   6.821  0.8096  1.0528  0.5156
32108SOL     OW13933  12.278   1.140  10.425 -0.0516 -0.0786  0.2000
32108SOL    HW113934  12.283   1.044  10.425  0.0571 -0.0733 -0.1459
32108SOL    HW213935  12.232   1.161  10.507 -0.2081 -0.4319  0.2056
32109SOL     OW13936   0.107   0.210   4.860  0.4671  0.0840  0.0333
32109SOL    HW113937   0.097   0.264   4.938  0.0754  0.1765 -0.0807
32109SOL    HW213938   0.160   0.136   4.890  0.2542  0.0771  0.4086
32110SOL     OW13939  11.667  12.990   7.837  0.2167 -0.0761  0.4597
32110SOL    HW113940  11.728  12.944   7.778  0.7879  0.9200  0.2615
32110SOL    HW213941  11.718  13.009   7.915 -0.6683 -1.8238  1.5488
32111SOL     OW13942   7.353   0.193   7.467 -0.0492  0.2051  0.2347
32111SOL    HW113943   7.259   0.187   7.452 -0.1569 -2.1320  1.2840
32111SOL    HW213944   7.372   0.119   7.526  2.4384  0.5795  0.0052
32112SOL     OW13945   8.600  13.755   6.475  0.5245  0.0935  0.0028
32112SOL    HW113946   8.549  13.832   6.500  2.2068  1.8851 -1.7402
32112SOL    HW213947   8.536  13.684   6.472 -1.6160  1.9294 -0.7905
32113SOL     OW13948   7.887   5.973   2.432 -0.1776 -0.0945 -0.3955
32113SOL    HW113949   7.921   6.029   2.502 -0.4181  0.3218 -0.6049
32113SOL    HW213950   7.963   5.951   2.379  0.4150 -2.2466  1.2301
32114SOL     OW13951   4.973   9.755   5.607 -0.0348 -0.3553  0.0917
32114SOL    HW113952   4.948   9.789   5.693  0.7650 -0.5474  0.4160
32114SOL    HW213953   5.051   9.806   5.583  1.6542 -2.3994  0.9324
32115SOL     OW13954   3.892   8.402  11.545  0.3781  0.2636  0.5175
32115SOL    HW113955   3.876   8.404  11.639  2.1758  1.1577  0.8614
32115SOL    HW213956   3.874   8.491  11.515 -0.0811  0.0116  0.0255
32116SOL     OW13957  10.289   9.241   0.841 -0.1459 -0.1851 -0.5036
32116SOL    HW113958  10.237   9.199   0.773  0.7215 -0.1158 -1.2278
32116SOL    HW213959  10.243   9.222   0.923  0.4013 -2.8398 -0.7390
32117SOL     OW13960  12.033  11.323  10.321  0.0922  0.3083 -0.7470
32117SOL    HW113961  12.119  11.329  10.278  0.1260 -0.3252 -0.7671
32117SOL    HW213962  11.981  11.269  10.263 -0.1322  0.1751 -0.4219
32118SOL     OW13963   8.336  11.464   7.223 -0.4753  0.0475  0.2391
32118SOL    HW113964   8.395  11.524   7.270  0.4999 -0.3220 -0.4704
32118SOL    HW213965   8.253  11.470   7.270 -0.2405  1.5400  0.5151
32119SOL     OW13966  11.896   2.546   8.942  0.1119  0.0323  0.2717
32119SOL    HW113967  11.852   2.559   9.025 -0.6096  1.3208 -0.2808
32119SOL    HW213968  11.826   2.549   8.876  0.8106  0.3502 -0.4813
32120SOL     OW13969   3.471   4.363   0.163 -0.0670 -0.0369 -0.9370
32120SOL    HW113970   3.566   4.352   0.168  0.2803  1.9922 -2.0593
32120SOL    HW213971   3.439   4.279   0.131  1.3240 -0.7810 -0.4888
32121SOL     OW13972  13.714   4.600   5.138 -0.2490 -0.4396 -0.5801
32121SOL    HW113973  13.623   4.619   5.118  0.2039  0.1748 -2.2429
32121SOL    HW213974  13.751   4.570   5.055  1.8117  2.2738 -0.7774
32122SOL     OW13975   7.862   9.403   0.429 -0.5161 -0.8318  0.0096
32122SOL    HW113976   7.847   9.467   0.498 -2.1060 -0.7836 -0.3517
32122SOL    HW213977   7.836   9.448   0.348  0.7840 -1.0776 -0.5788
32123SOL     OW13978   8.008   5.209   4.389  0.7292 -0.4130  0.3341
32123SOL    HW113979   7.954   5.280   4.355  0.1513 -1.4281 -0.9566
32123SOL    HW213980   7.979   5.197   4.480 -1.9094 -1.5163 -0.5561
32124SOL     OW13981   5.161   2.619   7.473 -0.0106  0.0019 -0.2797
32124SOL    HW113982   5.233   2.649   7.528 -0.9433 -0.5993  1.3447
32124SOL    HW213983   5.191   2.534   7.439 -0.0939 -0.4382  0.7170
32125SOL     OW13984   0.386   0.123   9.140  0.0471  0.4804 -0.0435
32125SOL    HW113985   0.396   0.032   9.169  3.5075  0.4081 -1.0456
32125SOL    HW213986   0.298   0.148   9.168 -0.9299 -3.0715  0.4908
32126SOL     OW13987   8.325   3.381   2.625  0.3276 -0.3367 -0.1389
32126SOL    HW113988   8.385   3.438   2.578 -1.1659  1.0466 -0.4698
32126SOL    HW213989   8.298   3.316   2.559  1.6828 -1.2004  0.1147
32127SOL     OW13990  13.017   5.022  12.117  0.1892  0.4530 -0.1992
32127SOL    HW113991  13.018   4.968  12.039 -0.4330 -0.8721  0.6787
32127SOL    HW213992  12.941   5.079  12.106  0.2301  0.4195 -0.6516
32128SOL     OW13993  13.095   3.972  13.267  0.0250 -0.0913  0.2818
32128SOL    HW113994  13.011   3.947  13.306 -1.8834  0.8515 -2.8739
32128SOL    HW213995  13.133   4.033  13.330 -2.2346  0.3990  1.2854
32129SOL     OW13996   2.235   2.650   3.488  0.3301  0.2488 -0.3805
32129SOL    HW113997   2.289   2.653   3.567  0.5320  0.5676 -0.5268
32129SOL    HW213998   2.170   2.581   3.505  0.1324  0.5795  0.2119
32130SOL     OW13999  10.999  12.184   5.579 -0.5918 -0.1229 -0.5066
32130SOL    HW114000  11.021  12.256   5.520 -2.0151  0.9970  0.2518
32130SOL    HW214001  11.068  12.186   5.645 -0.1525 -0.0062 -0.9655
32131SOL     OW14002   8.282   2.695   6.467 -0.2828  0.0646 -0.0156
32131SOL    HW114003   8.322   2.685   6.380  0.7492 -1.1999  0.5783
32131SOL    HW214004   8.265   2.605   6.496  2.2376  0.2644  2.3741
32132SOL     OW14005   3.920  11.220  11.325 -0.2482  0.1689  0.2300
32132SOL    HW114006   3.883  11.288  11.381  0.7588 -0.3599  1.6024
32132SOL    HW214007   3.849  11.156  11.316 -0.3736  0.1772  1.0595
32133SOL     OW14008  12.498   7.322   6.381  0.4396 -0.2132 -0.4389
32133SOL    HW114009  12.537   7.257   6.440  0.9531  0.1186 -0.4071
32133SOL    HW214010  12.502   7.281   6.295 -0.2203 -0.6590 -0.2651
32134SOL     OW14011  11.490   3.628  11.349  0.1909 -0.0058 -0.2003
32134SOL    HW114012  11.497   3.634  11.444  0.0560 -0.9296 -0.1249
32134SOL    HW214013  11.459   3.539  11.333 -1.6132  0.7239 -1.0214
32135SOL     OW14014  13.960   8.146   6.272 -0.3060 -0.0483 -0.4205
32135SOL    HW114015  13.894   8.109   6.331 -0.0486  0.7966  0.4224
32135SOL    HW214016  14.039   8.155   6.326 -0.1774  1.0928 -0.7678
32136SOL     OW14017   4.088   2.418   7.952  0.5109 -0.2708  0.2940
32136SOL    HW114018   4.168   2.386   7.911  0.6198  1.0608 -0.5960
32136SOL    HW214019   4.105   2.412   8.046  1.6249 -0.0953  0.1167
32137SOL     OW14020   4.180   3.441  13.421 -0.0093  0.8053 -0.2841
32137SOL    HW114021   4.265   3.484  13.407 -0.1623  0.9774 -0.7103
32137SOL    HW214022   4.119   3.491  13.367  0.0013 -0.5583 -1.6293
32138SOL     OW14023   0.941   4.462   7.110 -0.1669 -0.1401  0.1625
32138SOL    HW114024   0.911   4.383   7.156 -2.4453 -0.4300 -1.6096
32138SOL    HW214025   1.014   4.494   7.162 -1.0089 -1.8014  2.5424
32139SOL     OW14026   8.807  10.638   1.981  0.2425  0.5413 -0.1814
32139SOL    HW114027   8.817  10.729   2.010  0.3512  0.2861  0.6158
32139SOL    HW214028   8.750  10.643   1.905  0.5707  1.3201 -0.3831
32140SOL     OW14029   2.003   6.663   8.095 -0.1092 -0.4179 -0.1102
32140SOL    HW114030   2.045   6.645   8.179  0.4790  0.2056 -0.2679
32140SOL    HW214031   1.940   6.591   8.084 -2.4977  1.0696  2.3548
32141SOL     OW14032  11.429   6.366   7.448 -0.3176 -0.4019 -0.5062
32141SOL    HW114033  11.442   6.439   7.508 -2.9209 -0.1013 -0.1595
32141SOL    HW214034  11.514   6.352   7.407  0.2955  2.8203 -0.5774
32142SOL     OW14035   9.978  12.514   7.991 -0.5811  0.0270  0.3065
32142SOL    HW114036  10.041  12.532   8.060  1.5286  0.6630 -1.6359
32142SOL    HW214037  10.030  12.473   7.922 -2.5211 -0.3418 -1.0173
32143SOL     OW14038   8.623  11.242   7.428 -0.1654  0.1108  0.1147
32143SOL    HW114039   8.662  11.320   7.389  2.1974 -0.2326  1.5548
32143SOL    HW214040   8.598  11.269   7.516 -1.7331 -0.1312 -0.2293
32144SOL     OW14041   5.927  13.904   3.834  0.2313  0.6320 -0.0408
32144SOL    HW114042   5.902  13.825   3.882 -2.7446 -0.1112 -2.5281
32144SOL    HW214043   5.877  13.974   3.876  1.3394  0.8727  0.9094
32145SOL     OW14044   0.218  11.807   9.949 -0.6775 -0.1828  0.0476
32145SOL    HW114045   0.307  11.840   9.935 -1.4757  2.2153  0.1239
32145SOL    HW214046   0.165  11.854   9.885 -2.0063 -1.0330  0.4900
32146SOL     OW14047  10.257   8.238   7.977 -0.3373  0.0691  0.5394
32146SOL    HW114048  10.323   8.307   7.967  0.0617 -0.3646  0.1295
32146SOL    HW214049  10.179   8.274   7.936 -0.3333  0.5500  0.9412
32147SOL     OW14050   6.673   9.562   2.019 -0.1425 -0.0962 -0.2342
32147SOL    HW114051   6.653   9.482   2.067  0.4888 -0.2753 -0.2546
32147SOL    HW214052   6.695   9.532   1.931 -0.2190  0.1283 -0.3295
32148SOL     OW14053   7.990   1.032   5.918 -0.2750 -0.5931 -0.3759
32148SOL    HW114054   8.085   1.022   5.920 -0.3150 -0.8966  0.9993
32148SOL    HW214055   7.973   1.109   5.973 -0.8737 -1.1315  0.2177
32149SOL     OW14056   3.321   0.499  10.886  0.2123 -0.4688  0.1585
32149SOL    HW114057   3.355   0.589  10.886  1.5449 -0.9370 -1.0037
32149SOL    HW214058   3.300   0.482  10.978 -0.0492  1.0179  0.4037
32150SOL     OW14059   7.329   8.317   7.082  0.3546  0.0778  0.0609
32150SOL    HW114060   7.283   8.371   7.147 -0.1702  0.6301 -0.7438
32150SOL    HW214061   7.264   8.251   7.056  0.2517  0.4082 -0.5433
32151SOL     OW14062   3.142   5.236   2.542 -0.0560  0.3148 -0.0855
32151SOL    HW114063   3.192   5.299   2.490  0.2847 -0.8306 -1.2087
32151SOL    HW214064   3.195   5.221   2.620 -1.0663  2.8522  1.2190
32152SOL     OW14065   7.663   3.036   8.031 -0.4615 -0.1213  0.0959
32152SOL    HW114066   7.699   3.008   8.115  0.2752 -0.3469 -0.2796
32152SOL    HW214067   7.628   2.956   7.992 -1.6029  0.1440  0.5659
32153SOL     OW14068   0.529   7.327   2.106 -0.0407  0.9619  0.1580
32153SOL    HW114069   0.543   7.245   2.153  1.2144  0.1683 -1.5084
32153SOL    HW214070   0.615   7.350   2.071 -0.9000  1.4377 -1.8059
32154SOL     OW14071   4.379   5.512   4.884  0.1917  0.7465 -0.3925
32154SOL    HW114072   4.295   5.468   4.900 -0.6504  1.4649 -2.4189
32154SOL    HW214073   4.439   5.442   4.861  0.5939  0.0678  2.3466
32155SOL     OW14074   0.748   0.499  13.122 -0.1134 -0.4507 -0.4032
32155SOL    HW114075   0.799   0.459  13.193  0.9025  0.1147 -0.7978
32155SOL    HW214076   0.658   0.502  13.156 -0.0785 -2.3041 -0.0508
32156SOL     OW14077   0.783  13.244  11.666  0.0868 -0.2654 -0.0845
32156SOL    HW114078   0.765  13.186  11.592 -0.5427 -2.5723  1.7391
32156SOL    HW214079   0.720  13.315  11.657  1.0257  0.3668 -2.5245
32157SOL     OW14080   8.736   2.185   7.527  0.3132 -0.2956  0.4759
32157SOL    HW114081   8.658   2.236   7.547  0.2066 -0.1282 -0.3446
32157SOL    HW214082   8.702   2.103   7.491  0.5174  0.1571 -0.7887
32158SOL     OW14083   3.295   6.115   8.410  0.0012  0.3042  0.3758
32158SOL    HW114084   3.274   6.094   8.319 -1.1801 -0.9917  0.9201
32158SOL    HW214085   3.215   6.154   8.445  0.0364 -0.3343  1.1942
32159SOL     OW14086  13.888   5.144   1.254 -0.6581 -0.3264 -0.1108
32159SOL    HW114087  13.978   5.166   1.280 -1.5969  2.5383  1.1714
32159SOL    HW214088  13.850   5.101   1.330 -0.2448 -2.1387 -0.8857
32160SOL     OW14089   5.612   0.123   1.858  0.1545  0.0638  0.2240
32160SOL    HW114090   5.598   0.165   1.773  1.4180  0.9589  0.4270
32160SOL    HW214091   5.697   0.079   1.850 -1.0219 -2.3745  0.0937
32161SOL     OW14092   2.553   9.138  12.946 -0.7631 -0.1848 -0.8775
32161SOL    HW114093   2.559   9.151  12.852 -1.2446  0.7535 -0.7901
32161SOL    HW214094   2.512   9.052  12.956 -1.7243  0.1784 -1.5386
32162SOL     OW14095   4.272  12.814   2.420 -0.8063  0.2435  0.3681
32162SOL    HW114096   4.336  12.882   2.399 -1.4763  1.3744  1.8026
32162SOL    HW214097   4.223  12.800   2.339 -0.2763  1.0485 -0.1012
32163SOL     OW14098   3.812  11.752   5.927  0.0847 -0.2315 -0.5022
32163SOL    HW114099   3.721  11.776   5.940  0.2973  1.0822 -1.2811
32163SOL    HW214100   3.813  11.657   5.935 -1.4049 -0.2931 -0.7679
32164SOL     OW14101   0.968   8.421  11.981 -0.3447  0.1542 -0.2218
32164SOL    HW114102   0.901   8.479  12.018 -1.1573 -0.0946 -1.2685
32164SOL    HW214103   0.947   8.335  12.018 -0.9696 -0.0351 -0.9917
32165SOL     OW14104  12.535   9.888   8.802 -0.1836  0.0950  0.1227
32165SOL    HW114105  12.614   9.846   8.767 -1.6292 -1.0850 -1.9574
32165SOL    HW214106  12.466   9.862   8.741 -1.9049  2.3911  0.9740
32166SOL     OW14107   7.837   5.494  13.499  0.5595 -0.1667 -0.0092
32166SOL    HW114108   7.838   5.563  13.565  1.6221 -0.1265 -0.0537
32166SOL    HW214109   7.886   5.530  13.425 -0.1077 -0.4366 -0.5965
32167SOL     OW14110   3.242   9.549   2.863 -0.2985  0.2252 -0.3465
32167SOL    HW114111   3.231   9.454   2.860 -1.0554  0.3138 -0.5939
32167SOL    HW214112   3.337   9.562   2.861 -0.2029 -0.5077 -0.8924
32168SOL     OW14113  12.006  10.522   5.304  0.2887  0.3778  0.7706
32168SOL    HW114114  12.075  10.490   5.362  1.2837  0.4661 -0.3399
32168SOL    HW214115  11.961  10.590   5.355  0.3475 -0.3872  1.8798
32169SOL     OW14116   8.394   7.660   7.301  0.0714  0.1161  0.0371
32169SOL    HW114117   8.433   7.700   7.224  1.2177  0.8759  0.9897
32169SOL    HW214118   8.332   7.725   7.334  0.4043  0.2506  0.3981
32170SOL     OW14119   3.254  11.355  12.274  0.2654  0.2915  0.0301
32170SOL    HW114120   3.220  11.268  12.292 -1.2717  1.2387  2.1474
32170SOL    HW214121   3.224  11.375  12.185 -2.9895  0.1789  0.9691
32171SOL     OW14122   7.329  13.158   6.701 -0.2996  0.4847 -0.1147
32171SOL    HW114123   7.386  13.204   6.763 -0.4711 -0.9643  1.1967
32171SOL    HW214124   7.351  13.066   6.713 -1.6434  0.0390 -0.8994
32172SOL     OW14125  13.495   9.690   4.414 -0.0349  0.3810  0.5618
32172SOL    HW114126  13.446   9.716   4.336  1.0241 -1.1393 -0.6835
32172SOL    HW214127  13.433   9.637   4.464 -0.0692 -0.5537 -0.4206
32173SOL     OW14128   6.336   3.542   6.478  0.0376  0.5963  0.1410
32173SOL    HW114129   6.317   3.587   6.396 -1.6123  2.8652  1.6629
32173SOL    HW214130   6.252   3.504   6.505  0.0255  1.6261  1.7209
32174SOL     OW14131   3.022   0.186   2.577 -0.0860  0.4576  0.5243
32174SOL    HW114132   3.013   0.168   2.483 -0.7235 -1.7190  0.9418
32174SOL    HW214133   2.939   0.227   2.602 -1.0026 -1.2821  0.5525
32175SOL     OW14134   6.287  10.533  13.769  0.0936 -0.3428  0.1374
32175SOL    HW114135   6.219  10.466  13.765  0.1327 -0.3504 -0.5310
32175SOL    HW214136   6.365  10.487  13.800  0.5615 -0.9939 -1.8519
32176SOL     OW14137   2.896   7.670  11.462 -0.1442 -0.0606  0.0079
32176SOL    HW114138   2.908   7.581  11.496  2.1326  0.5247  0.8826
32176SOL    HW214139   2.985   7.702  11.446 -0.9036  2.1318 -0.1046
32177SOL     OW14140  12.347  10.985   0.351 -0.3026  0.2075 -0.1518
32177SOL    HW114141  12.423  11.031   0.316  0.0545 -1.3922 -1.6588
32177SOL    HW214142  12.381  10.937   0.426 -0.5311  1.8084  1.0132
32178SOL     OW14143   8.115   0.696   6.780 -0.3949 -0.3277 -0.1639
32178SOL    HW114144   8.133   0.786   6.756 -0.2239 -0.6511 -1.2935
32178SOL    HW214145   8.077   0.657   6.701  0.0994 -1.3974  0.1098
32179SOL     OW14146  10.662   5.621  13.797  0.2949  0.4760  0.1087
32179SOL    HW114147  10.707   5.668  13.727 -1.1138  2.0190  0.1721
32179SOL    HW214148  10.601   5.686  13.834 -0.1543 -0.7780  1.6779
32180SOL     OW14149   2.580  13.349   9.497 -0.3664  0.0919 -0.0047
32180SOL    HW114150   2.632  13.273   9.521  0.4704  1.0272  1.3086
32180SOL    HW214151   2.631  13.392   9.429 -0.9208 -0.5844 -0.8665
32181SOL     OW14152   6.379  11.681  11.351  0.4866  0.2451  0.1216
32181SOL    HW114153   6.379  11.664  11.445 -3.5472  0.0445  0.2512
32181SOL    HW214154   6.411  11.771  11.343  2.3308 -0.2367  1.4709
32182SOL     OW14155   7.105   4.632   2.187 -0.0546  0.2804  0.2642
32182SOL    HW114156   7.164   4.613   2.259 -0.5832 -4.6572 -0.2983
32182SOL    HW214157   7.029   4.673   2.229  0.0099 -1.6468  2.4637
32183SOL     OW14158  13.530  10.163   9.748 -0.2645  0.4505 -0.0024
32183SOL    HW114159  13.601  10.189   9.690 -0.8744  0.4953 -0.7556
32183SOL    HW214160  13.487  10.091   9.702 -0.6031  0.3156  0.5180
32184SOL     OW14161  10.928   2.867   9.696  0.1834  0.3938 -0.3855
32184SOL    HW114162  10.972   2.866   9.782 -0.3351  1.5139 -0.0960
32184SOL    HW214163  10.841   2.903   9.714 -1.4458 -2.9538 -0.7049
32185SOL     OW14164   6.115  10.483   3.310  0.0348 -0.2670  0.1900
32185SOL    HW114165   6.041  10.422   3.315 -0.1665 -0.1938 -1.4299
32185SOL    HW214166   6.125  10.501   3.217 -0.2360  2.5678  0.6017
32186SOL     OW14167   4.435  10.527   2.401  0.3355  0.0685  0.2345
32186SOL    HW114168   4.353  10.511   2.354 -0.1378 -1.8951  1.6271
32186SOL    HW214169   4.474  10.602   2.355 -1.0108 -0.5116 -2.0149
32187SOL     OW14170  11.221   2.434   6.970 -0.0976  0.3449 -0.0743
32187SOL    HW114171  11.239   2.408   7.060 -2.1878 -2.8029 -0.3896
32187SOL    HW214172  11.256   2.361   6.917 -1.6898  0.5797 -1.5324
32188SOL     OW14173   1.350   0.627   8.581 -0.1969  0.0543  0.1592
32188SOL    HW114174   1.354   0.535   8.604 -1.3351 -0.5902 -1.9811
32188SOL    HW214175   1.319   0.671   8.661  0.8802 -1.3113  1.3607
32189SOL     OW14176   9.366  10.807  11.832 -0.1192  0.1733  0.3559
32189SOL    HW114177   9.341  10.831  11.743 -0.5056  1.3443  0.7632
32189SOL    HW214178   9.370  10.712  11.831 -3.6682 -0.0910  0.0156
32190SOL     OW14179   0.197   0.018   4.092 -0.1397  0.1571  0.0038
32190SOL    HW114180   0.179   0.104   4.131  1.0131 -0.1513  1.2903
32190SOL    HW214181   0.116  -0.005   4.047 -1.3797  0.7838  1.8045
32191SOL     OW14182   9.089   9.371  12.565 -0.4145  0.2167  0.0156
32191SOL    HW114183   9.094   9.360  12.660  0.6503  0.7492  0.0374
32191SOL    HW214184   9.145   9.301  12.531  0.6101  1.0731 -0.1273
32192SOL     OW14185   3.584  12.299   4.898 -0.3735 -0.0147 -0.8552
32192SOL    HW114186   3.623  12.304   4.811  3.3992 -1.6346  0.5284
32192SOL    HW214187   3.622  12.372   4.946 -2.2020  0.6932 -0.3808
32193SOL     OW14188   0.366   2.416  10.369  0.1274  0.0727  0.2240
32193SOL    HW114189   0.361   2.324  10.397  0.3894 -0.0315 -0.0629
32193SOL    HW214190   0.428   2.415  10.296 -1.7989  0.0588 -1.4919
32194SOL     OW14191  12.412   3.265   0.910  0.4072  0.8718  0.1370
32194SOL    HW114192  12.451   3.347   0.942 -0.4113  0.1585  3.2695
32194SOL    HW214193  12.318   3.282   0.907  0.2923  0.2448  0.0818
32195SOL     OW14194   3.585  13.772   7.345  0.2341  0.0322 -0.2403
32195SOL    HW114195   3.670  13.731   7.358 -0.6603 -1.6224  0.6705
32195SOL    HW214196   3.525  13.720   7.397 -1.4191  0.9316 -1.1642
32196SOL     OW14197   5.083   8.984   7.670  0.5293 -0.1678 -0.5150
32196SOL    HW114198   5.151   8.917   7.672  1.4284  0.7222 -0.1763
32196SOL    HW214199   5.032   8.970   7.750 -0.7068 -1.8329 -1.5501
32197SOL     OW14200   0.993   9.460   9.431 -0.1814 -0.1456 -0.1260
32197SOL    HW114201   1.007   9.413   9.513 -0.6902  0.6589  0.4354
32197SOL    HW214202   1.074   9.510   9.418  0.8356 -1.9723 -1.3121
32198SOL     OW14203   2.936   5.750   8.647  0.4133  0.5446  0.3157
32198SOL    HW114204   2.886   5.690   8.703 -1.3861  1.1781 -0.5383
32198SOL    HW214205   2.966   5.695   8.574 -0.4262  0.4655  0.0172
32199SOL     OW14206   1.021   8.954  12.362  1.0370  0.5086  0.2741
32199SOL    HW114207   1.082   8.912  12.302 -0.3824 -2.1230  0.5469
32199SOL    HW214208   1.061   8.943  12.448  0.3537 -0.9960  0.4245
32200SOL     OW14209   6.812   7.345   4.395  0.1417 -0.0029 -0.0326
32200SOL    HW114210   6.820   7.260   4.438 -2.1881  0.3373  1.2478
32200SOL    HW214211   6.902   7.371   4.376  1.4119 -0.2114  4.6453
32201SOL     OW14212   8.617   0.227  13.481  0.6973 -0.1875  0.3938
32201SOL    HW114213   8.691   0.184  13.439 -0.0626 -1.6082  0.4525
32201SOL    HW214214   8.604   0.307  13.431 -0.5057 -2.0283 -2.4924
32202SOL     OW14215  10.206  13.467   0.767  0.1866  0.4067 -0.1347
32202SOL    HW114216  10.125  13.445   0.813  1.0816  1.7873  2.3053
32202SOL    HW214217  10.226  13.556   0.795  2.2337  0.3345 -1.1770
32203SOL     OW14218  12.789   3.428   4.727  0.7607 -0.2348  0.0795
32203SOL    HW114219  12.841   3.509   4.722 -0.2590  0.3539 -1.4425
32203SOL    HW214220  12.762   3.411   4.637 -0.9993 -0.9698  0.7055
32204SOL     OW14221   8.284   7.462  12.095 -0.8887  0.3890 -0.0102
32204SOL    HW114222   8.189   7.462  12.106 -0.9437  1.9755 -0.1507
32204SOL    HW214223   8.318   7.485  12.182 -0.5021 -1.8802  0.5004
32205SOL     OW14224  13.693  11.126   8.799  0.7490  0.1853 -0.2958
32205SOL    HW114225  13.717  11.068   8.727  2.6640 -0.5051  0.8233
32205SOL    HW214226  13.770  11.182   8.811  0.7883 -0.2077  1.6465
32206SOL     OW14227  12.072  11.472  13.911 -0.0875 -0.4066 -0.1368
32206SOL    HW114228  12.039  11.404  13.970  0.9949 -2.0258 -1.3135
32206SOL    HW214229  12.122  11.531  13.968  0.1681 -1.4122  0.7101
32207SOL     OW14230   5.542   0.963  11.661 -0.4399 -0.1966 -0.1031
32207SOL    HW114231   5.628   0.987  11.695 -0.7404 -1.4698  1.6731
32207SOL    HW214232   5.481   1.014  11.714 -0.8243  2.2427 -2.6444
32208SOL     OW14233   7.302   9.628   6.038  0.4284 -0.2558  0.4609
32208SOL    HW114234   7.334   9.718   6.041 -0.8647  0.2572 -0.1865
32208SOL    HW214235   7.223   9.629   6.093  0.3540 -0.9710  0.3794
32209SOL     OW14236   2.172   1.023  14.024  0.2080 -0.3348 -0.1615
32209SOL    HW114237   2.107   0.963  13.990  0.9148 -1.7815  0.9268
32209SOL    HW214238   2.256   0.988  13.994  0.5719  1.0500 -0.8822
32210SOL     OW14239   0.335   9.296  13.645 -0.5408 -0.1929 -0.3626
32210SOL    HW114240   0.365   9.215  13.687 -0.7466 -0.6834 -1.1446
32210SOL    HW214241   0.307   9.352  13.718  2.3515  0.3634  0.4618
32211SOL     OW14242  13.336   6.740   7.027  0.1549 -0.0169  0.0751
32211SOL    HW114243  13.379   6.759   7.110  0.8216  1.0308 -0.4874
32211SOL    HW214244  13.248   6.775   7.036 -0.3620 -1.4486  0.9414
32212SOL     OW14245   5.705  12.501   5.157  0.0193 -0.9415  0.4428
32212SOL    HW114246   5.762  12.445   5.210 -1.6085 -0.4267  2.8951
32212SOL    HW214247   5.707  12.586   5.202  1.5416  0.7363 -2.5435
32213SOL     OW14248   0.177   8.598   4.545  0.3974 -0.3763  0.7224
32213SOL    HW114249   0.159   8.571   4.455 -0.2591  0.1100  0.7023
32213SOL    HW214250   0.090   8.610   4.584  0.6796 -0.3433  1.3441
32214SOL     OW14251   5.474   2.673  11.476  0.2139  0.6377  0.0901
32214SOL    HW114252   5.412   2.737  11.444  0.2451  0.9666  0.6743
32214SOL    HW214253   5.492   2.699  11.566  0.1680 -0.2338  0.3645
32215SOL     OW14254  10.646   0.164   9.827 -0.3084  0.2871  0.6753
32215SOL    HW114255  10.731   0.207   9.824 -0.7594  1.2475 -2.6878
32215SOL    HW214256  10.665   0.074   9.853  1.8975  0.2254 -0.8795
32216SOL     OW14257   7.085   1.778   2.825  0.0071  0.3625 -0.1082
32216SOL    HW114258   7.124   1.813   2.905  0.2064 -0.0404 -0.0259
32216SOL    HW214259   7.031   1.705   2.854 -1.4296  1.3866 -0.1420
32217SOL     OW14260  11.048   6.180  12.162  0.0040  0.7102 -0.1132
32217SOL    HW114261  11.004   6.250  12.209 -1.6179 -0.3486  0.0136
32217SOL    HW214262  11.139   6.184  12.193 -0.4514  1.6395  1.1914
32218SOL     OW14263   2.452  10.404   1.727 -0.2725  0.0011  0.1687
32218SOL    HW114264   2.458  10.395   1.822  2.7060  2.9232  0.4536
32218SOL    HW214265   2.529  10.358   1.694 -0.7303 -0.1262 -0.7366
32219SOL     OW14266   7.435   5.396  13.070 -0.0022 -0.0414  0.1622
32219SOL    HW114267   7.432   5.318  13.124 -0.0397  0.1274  0.4027
32219SOL    HW214268   7.362   5.450  13.101 -0.6581 -0.3809 -0.7207
32220SOL     OW14269   2.540   3.196   3.094 -0.1908 -0.4998  0.5988
32220SOL    HW114270   2.539   3.155   3.180 -0.0267 -2.0676 -0.0974
32220SOL    HW214271   2.449   3.218   3.076 -0.2071 -0.0561  1.2166
32221SOL     OW14272   2.207   5.336   8.852 -0.3351  0.3067  0.2964
32221SOL    HW114273   2.285   5.383   8.880 -1.8044  2.2398  1.4020
32221SOL    HW214274   2.176   5.291   8.930 -2.0471  2.1927  0.7995
32222SOL     OW14275   8.856   1.922   4.682  0.2678 -0.3703  0.5555
32222SOL    HW114276   8.930   1.952   4.629  0.0052 -0.2324  0.2598
32222SOL    HW214277   8.785   1.910   4.619 -0.0705 -0.1378  0.8821
32223SOL     OW14278  13.266   3.853   5.859 -0.2536 -0.1499  0.1077
32223SOL    HW114279  13.338   3.812   5.905  0.2162  1.4538  0.8627
32223SOL    HW214280  13.278   3.947   5.873 -1.8775  0.2152 -0.6493
32224SOL     OW14281   0.743   9.113   7.763 -0.2653 -0.0917  1.0067
32224SOL    HW114282   0.803   9.074   7.827 -0.0714 -1.1689  0.1780
32224SOL    HW214283   0.667   9.139   7.816 -0.2703 -1.3017  1.6359
32225SOL     OW14284  10.925   4.825   7.980  0.4867  0.0225 -0.1950
32225SOL    HW114285  10.960   4.809   7.893  2.8670 -1.6098  0.9232
32225SOL    HW214286  10.994   4.874   8.025 -0.8751  1.2254  0.6542
32226SOL     OW14287   2.490   9.705   7.610 -0.1467  0.9339  0.4197
32226SOL    HW114288   2.408   9.698   7.658 -0.2642  0.0047  0.0888
32226SOL    HW214289   2.467   9.753   7.530 -0.3241  0.8427  0.4163
32227SOL     OW14290   0.361   2.312   2.185 -0.3427 -0.0043 -0.0837
32227SOL    HW114291   0.347   2.338   2.094  0.0932  0.7406  0.0491
32227SOL    HW214292   0.288   2.254   2.206 -0.2900 -0.4105 -0.9920
32228SOL     OW14293   8.280  10.970   4.490 -0.7608  0.0012 -0.9463
32228SOL    HW114294   8.363  10.984   4.444  0.2168 -2.2797 -0.0858
32228SOL    HW214295   8.250  10.884   4.459 -2.3589  0.3988 -0.5841
32229SOL     OW14296   6.496   9.216  10.788  0.1246 -0.7142 -0.6638
32229SOL    HW114297   6.422   9.224  10.728 -0.8540 -0.0248  0.5860
32229SOL    HW214298   6.457   9.186  10.870  0.8814  1.5530  0.6068
32230SOL     OW14299  11.382  10.185   4.074  0.1794  0.1175 -0.1515
32230SOL    HW114300  11.333  10.267   4.070  1.6663  1.0432  0.0017
32230SOL    HW214301  11.412  10.170   3.984  1.1572  0.5438  0.0931
32231SOL     OW14302   9.692  13.629  12.339 -0.3497 -0.4375  0.6271
32231SOL    HW114303   9.623  13.623  12.406 -1.1752 -1.7275 -0.2934
32231SOL    HW214304   9.728  13.717  12.351 -3.7267  1.2567 -0.3407
32232SOL     OW14305   0.267  11.741   3.442 -0.0104  0.1498 -0.1154
32232SOL    HW114306   0.276  11.788   3.359 -0.1623  0.0440 -0.1937
32232SOL    HW214307   0.199  11.788   3.490  0.5467  0.6081  0.2309
32233SOL     OW14308  12.779   3.040  12.632 -0.5054  0.0102 -0.4528
32233SOL    HW114309  12.805   3.116  12.580 -1.7032 -0.0990 -1.2540
32233SOL    HW214310  12.711   3.073  12.690 -0.0512 -0.1546  0.1897
32234SOL     OW14311  11.581   9.187   8.490  0.1891 -0.1729 -0.1950
32234SOL    HW114312  11.510   9.125   8.506 -1.6907  1.7323 -0.5579
32234SOL    HW214313  11.614   9.209   8.577 -0.3517 -0.3468  0.0578
32235SOL     OW14314   8.853   8.520   4.539  0.1622  0.5816 -0.4089
32235SOL    HW114315   8.829   8.595   4.484  0.1533  0.1034 -1.0616
32235SOL    HW214316   8.908   8.465   4.483 -0.8951 -0.5494 -0.3848
32236SOL     OW14317  12.739  11.858   9.030  0.2350  0.0433  0.2860
32236SOL    HW114318  12.799  11.815   9.091 -0.1271 -0.4282  0.3128
32236SOL    HW214319  12.757  11.951   9.040 -0.3711  0.0275  1.6977
32237SOL     OW14320   3.200   2.733   1.727  0.3182 -0.0122 -0.4355
32237SOL    HW114321   3.185   2.764   1.637 -2.3992  1.1154  0.3094
32237SOL    HW214322   3.177   2.641   1.725  0.2860  0.0048 -0.9088
32238SOL     OW14323   8.690  10.154  12.689  0.2673  0.0665 -0.0886
32238SOL    HW114324   8.720  10.218  12.625  0.4494  0.7495  0.6678
32238SOL    HW214325   8.770  10.121  12.730  0.0631  1.1846  1.2587
32239SOL     OW14326  10.161   8.390   3.280 -0.3413 -0.3934  0.8514
32239SOL    HW114327  10.065   8.386   3.286 -0.3547 -0.1632  0.7986
32239SOL    HW214328  10.189   8.420   3.366 -0.2967 -0.7705  0.9675
32240SOL     OW14329   7.891   2.038   6.944 -0.0707 -0.0100 -0.1011
32240SOL    HW114330   7.916   2.118   6.896  1.1579  0.0558  0.6177
32240SOL    HW214331   7.907   1.967   6.881 -1.0322  0.2764 -0.6947
32241SOL     OW14332   6.125   9.608   1.879  0.1765  0.4656 -0.0488
32241SOL    HW114333   6.076   9.589   1.798 -1.2648  0.0322  0.8793
32241SOL    HW214334   6.196   9.665   1.851  0.3748 -0.5673 -1.8021
32242SOL     OW14335  10.188   3.442  11.596 -0.3999  0.7386  0.2532
32242SOL    HW114336  10.262   3.382  11.606 -0.2150  1.1806  1.8944
32242SOL    HW214337  10.154   3.424  11.509  0.8707 -0.3524 -0.0526
32243SOL     OW14338  12.272  13.489   2.061 -0.7011  0.3201  0.0048
32243SOL    HW114339  12.331  13.526   1.995  0.3966  1.4237  1.5292
32243SOL    HW214340  12.198  13.549   2.064  0.3429  1.6171  1.3606
32244SOL     OW14341  12.650   7.123   2.588 -0.5746  0.0038  0.3482
32244SOL    HW114342  12.737   7.091   2.566 -0.3649  1.6551 -1.4734
32244SOL    HW214343  12.657   7.154   2.678 -0.5787 -4.0508  1.9492
32245SOL     OW14344   5.220  13.902   1.998  0.3970 -0.0091 -0.1462
32245SOL    HW114345   5.170  13.891   2.079 -0.0767 -4.4012 -0.7670
32245SOL    HW214346   5.156  13.933   1.934 -0.0886  0.1342  0.4041
32246SOL     OW14347  10.878   6.848   3.170 -0.0215  0.7058  0.0945
32246SOL    HW114348  10.883   6.875   3.078  0.6617 -0.0273 -0.0875
32246SOL    HW214349  10.947   6.783   3.180 -0.4421  0.3874  0.9989
32247SOL     OW14350   6.182   3.451   7.785 -0.0224  0.2908  0.0778
32247SOL    HW114351   6.205   3.440   7.693 -2.6651  0.0241 -0.6513
32247SOL    HW214352   6.124   3.528   7.786 -0.3705  0.0412  1.4369
32248SOL     OW14353   9.998  12.034   8.777  0.2855 -0.0980 -0.0541
32248SOL    HW114354   9.916  12.019   8.824 -0.7218  0.6595 -1.4812
32248SOL    HW214355   9.981  12.001   8.689  1.6426 -0.2372 -0.2731
32249SOL     OW14356  11.709   0.992  12.447 -0.4287 -0.1240 -0.2680
32249SOL    HW114357  11.716   0.900  12.475  0.0741 -0.2437 -0.7677
32249SOL    HW214358  11.620   1.000  12.413 -0.8417 -0.1413  0.7694
32250SOL     OW14359   6.393   2.485  13.928  0.4336  0.0855  0.0837
32250SOL    HW114360   6.474   2.450  13.891  1.1885  0.6602  1.1438
32250SOL    HW214361   6.328   2.416  13.913  1.3082 -0.7189 -0.0720
32251SOL     OW14362   8.872   3.133  11.013 -0.1386 -0.6117  0.0265
32251SOL    HW114363   8.871   3.212  11.066 -1.1978 -0.0918 -0.7407
32251SOL    HW214364   8.782   3.123  10.983  0.6863 -0.0100 -2.9551
32252SOL     OW14365  11.448   6.382   4.349 -0.6647  0.1811  0.1138
32252SOL    HW114366  11.498   6.423   4.420  0.2815  1.1541 -1.0758
32252SOL    HW214367  11.368   6.434   4.343 -1.1111 -0.3862  0.9627
32253SOL     OW14368   1.694   2.265   4.035  0.2863 -0.5482 -0.2274
32253SOL    HW114369   1.638   2.267   4.112  0.7256  0.1074  0.0755
32253SOL    HW214370   1.703   2.171   4.015 -0.5373 -0.6780 -0.0102
32254SOL     OW14371   9.981  12.957   9.541 -1.2741 -0.0169  0.1815
32254SOL    HW114372  10.008  12.884   9.486 -1.0205 -1.1639  1.7393
32254SOL    HW214373  10.051  13.022   9.533  0.4076 -1.5453  1.5967
32255SOL     OW14374   2.176  11.856   1.233  0.2177 -0.0903  0.3971
32255SOL    HW114375   2.223  11.939   1.223  0.3418 -0.2031  0.0294
32255SOL    HW214376   2.132  11.864   1.317  0.9047  0.0139  0.7513
32256SOL     OW14377   6.056   1.266  12.868  0.7444 -0.4642  0.2225
32256SOL    HW114378   5.983   1.327  12.881 -0.0711 -1.1781 -0.8204
32256SOL    HW214379   6.093   1.291  12.783  2.3862  0.5315  1.1826
32257SOL     OW14380  10.367  12.050  12.939  0.0146  0.6538 -0.1153
32257SOL    HW114381  10.350  12.061  13.033  0.8812 -0.3863  0.1824
32257SOL    HW214382  10.353  11.957  12.923 -0.1116  0.8199 -1.0367
32258SOL     OW14383  13.186   3.381   6.037  0.1695 -0.2001 -0.1677
32258SOL    HW114384  13.170   3.288   6.022 -2.1825  0.2549 -0.9134
32258SOL    HW214385  13.261   3.384   6.097 -0.4802 -2.5888  0.8560
32259SOL     OW14386  13.949   6.462   4.573 -0.3675  0.1745  0.0255
32259SOL    HW114387  13.986   6.517   4.642  1.5281  0.5188 -1.1889
32259SOL    HW214388  14.024   6.413   4.538 -1.7717 -2.3147  0.2224
32260SOL     OW14389  13.856   8.935   8.778 -0.1040  0.1875  0.0134
32260SOL    HW114390  13.909   9.001   8.823  1.4199  0.5049 -2.1491
32260SOL    HW214391  13.791   8.909   8.844 -0.7075  3.6974  1.0497
32261SOL     OW14392  13.071  13.782   2.510 -0.0468  0.3873 -0.2548
32261SOL    HW114393  13.139  13.722   2.480 -1.2121 -0.4230 -1.3700
32261SOL    HW214394  13.119  13.853   2.553  1.4069 -0.9004  0.3388
32262SOL     OW14395   0.370   6.540   0.030  0.2564  0.1641 -0.1920
32262SOL    HW114396   0.279   6.566   0.039  0.4815  0.8573  0.2176
32262SOL    HW214397   0.381   6.469   0.093 -0.0062  0.0535 -0.2694
32263SOL     OW14398  11.056   5.513  12.869 -0.5710 -0.2532  0.2478
32263SOL    HW114399  11.068   5.569  12.793 -1.0141 -0.6031 -0.0838
32263SOL    HW214400  10.964   5.524  12.893 -0.2182  0.5671  1.3047
32264SOL     OW14401  10.471  11.454  13.289  0.1000  0.0845 -0.0891
32264SOL    HW114402  10.492  11.494  13.204  0.7549  1.1356  0.5372
32264SOL    HW214403  10.547  11.476  13.344  0.3872 -1.8682  0.3571
32265SOL     OW14404   0.054   5.770   7.354 -0.0892  0.4221 -0.3013
32265SOL    HW114405  -0.020   5.745   7.299 -0.7348  2.1420 -0.2684
32265SOL    HW214406   0.022   5.843   7.407  0.6653 -0.7811  1.9941
32266SOL     OW14407  12.526  11.732   2.499 -0.2234  0.6749  0.0048
32266SOL    HW114408  12.563  11.778   2.575 -2.0709  1.2315  0.6263
32266SOL    HW214409  12.547  11.639   2.515 -1.8751  0.5826  2.0365
32267SOL     OW14410   5.671   4.916  13.170 -0.1897  0.3434 -0.3287
32267SOL    HW114411   5.610   4.990  13.177  1.9209  2.0349  1.3337
32267SOL    HW214412   5.678   4.882  13.259  0.2183 -0.7725 -0.7696
32268SOL     OW14413   2.412   2.685  13.672  0.1815 -0.2731 -0.0508
32268SOL    HW114414   2.363   2.640  13.603 -0.9197  1.8450 -0.7133
32268SOL    HW214415   2.484   2.729  13.626  0.6008 -0.4322  0.4357
32269SOL     OW14416   1.870   6.760   5.562 -0.1605 -0.0844  0.0488
32269SOL    HW114417   1.819   6.841   5.558 -2.0358 -1.1964  0.1949
32269SOL    HW214418   1.896   6.753   5.654  0.5628  0.6389 -0.0845
32270SOL     OW14419   7.007  10.319   4.952 -0.0126  0.0585 -0.0579
32270SOL    HW114420   7.078  10.345   5.010  0.4887  0.2267 -0.7400
32270SOL    HW214421   6.935  10.298   5.011  0.5856 -0.0750  0.6404
32271SOL     OW14422   0.554   9.540   2.612 -0.1760 -0.1768  0.3017
32271SOL    HW114423   0.603   9.470   2.569 -0.6322 -0.8256  0.8243
32271SOL    HW214424   0.496   9.573   2.544  0.1120 -0.2348  0.0240
32272SOL     OW14425  10.816   5.402  13.488  0.2261 -0.1980 -0.2536
32272SOL    HW114426  10.902   5.444  13.498 -0.2332  0.5091  1.0447
32272SOL    HW214427  10.786   5.430  13.401  1.9187 -1.6824 -1.3824
32273SOL     OW14428  11.633   3.075   3.325 -0.4710 -0.1707 -0.1615
32273SOL    HW114429  11.550   3.096   3.368 -1.3404 -0.0688 -1.8083
32273SOL    HW214430  11.612   3.074   3.231  1.1923 -1.0523 -0.5631
32274SOL     OW14431   3.338  12.683   7.586  0.2345  0.6926  0.1716
32274SOL    HW114432   3.266  12.643   7.634 -0.7922  1.1119 -0.9665
32274SOL    HW214433   3.335  12.775   7.611 -0.4481  0.9552 -0.8388
32275SOL     OW14434   3.184   2.450   9.857 -0.4586  0.0445  0.0203
32275SOL    HW114435   3.103   2.414   9.894 -0.7880  1.5586  0.8650
32275SOL    HW214436   3.161   2.540   9.831  0.9930  0.5703  0.4517
32276SOL     OW14437  12.918   6.298   2.447  0.8167 -0.2054 -0.1053
32276SOL    HW114438  12.912   6.355   2.370 -2.2227  0.3861  0.4748
32276SOL    HW214439  12.911   6.357   2.521  0.9365 -1.0436  0.5891
32277SOL     OW14440   1.626   2.718  12.783 -0.1733 -0.0339 -0.2717
32277SOL    HW114441   1.623   2.624  12.767  1.3811 -0.1300 -0.1117
32277SOL    HW214442   1.702   2.748  12.733  1.0496  0.6756  1.9098
32278SOL     OW14443   4.411  12.827   0.947 -0.0391 -0.2491 -0.2056
32278SOL    HW114444   4.491  12.775   0.955 -1.3133 -2.1413  0.9759
32278SOL    HW214445   4.413  12.886   1.022  0.3009 -0.1709 -0.2718
32279SOL     OW14446   9.799   6.446   9.205  0.1624 -0.5476 -0.4731
32279SOL    HW114447   9.825   6.357   9.179  1.4463 -1.0741  2.2875
32279SOL    HW214448   9.726   6.434   9.264  0.7999  0.1566  0.4848
32280SOL     OW14449  10.603   2.377  13.708 -0.1758 -0.5746 -0.1806
32280SOL    HW114450  10.517   2.336  13.715 -0.4562 -0.3199 -1.7168
32280SOL    HW214451  10.585   2.469  13.688  0.4640 -0.3028  0.4330
32281SOL     OW14452   3.319   1.595  11.443 -0.0529  0.6594  0.2699
32281SOL    HW114453   3.294   1.548  11.522 -0.3919  1.8050  0.8706
32281SOL    HW214454   3.384   1.659  11.473  0.0363  0.9060 -0.4272
32282SOL     OW14455  13.215  11.123   6.245 -0.1322  0.6974  0.3994
32282SOL    HW114456  13.171  11.040   6.230  1.7217 -0.1015 -0.8683
32282SOL    HW214457  13.253  11.147   6.161 -0.9441  3.0735  0.6079
32283SOL     OW14458   4.960   7.427   1.252  0.0056  0.0846  0.7813
32283SOL    HW114459   4.897   7.475   1.304  1.0478  1.2138  1.0368
32283SOL    HW214460   4.927   7.434   1.162 -0.9264 -0.4886  1.0629
32284SOL     OW14461   8.147   7.127   3.612  0.2351  0.1208 -0.2815
32284SOL    HW114462   8.099   7.058   3.566 -0.6108 -0.1815  1.0055
32284SOL    HW214463   8.079   7.175   3.660  1.1264  0.1318  1.0056
32285SOL     OW14464   0.731   5.891   3.580  0.0047 -0.5673 -0.2590
32285SOL    HW114465   0.763   5.931   3.499 -2.2159  1.5465 -0.2156
32285SOL    HW214466   0.762   5.949   3.649  0.1811 -1.2289  0.2236
32286SOL     OW14467  11.878   8.216   2.399  0.4011  0.0042  0.7187
32286SOL    HW114468  11.943   8.162   2.354  1.1356  1.5138 -0.1378
32286SOL    HW214469  11.865   8.291   2.340 -1.9295 -0.1136  0.9931
32287SOL     OW14470   6.882   4.068  10.295  0.2672  0.7181  0.8335
32287SOL    HW114471   6.828   4.002  10.338 -1.6981  0.3632 -1.8698
32287SOL    HW214472   6.832   4.149  10.304 -1.3693  0.2382 -2.3857
32288SOL     OW14473  10.533   0.856   7.525 -1.0942 -0.3460 -0.2223
32288SOL    HW114474  10.550   0.829   7.435 -0.4776  0.7979 -0.4710
32288SOL    HW214475  10.619   0.855   7.568 -1.2454 -0.0296  0.1011
32289SOL     OW14476   3.039   4.233  12.791 -0.4953  0.3922 -0.0052
32289SOL    HW114477   3.037   4.185  12.873 -1.0181  0.3817 -0.0199
32289SOL    HW214478   3.085   4.315  12.812 -1.9801  1.0832  0.6865
32290SOL     OW14479   1.521  13.781   4.010  0.6044 -0.2679 -0.3815
32290SOL    HW114480   1.568  13.860   4.037 -0.2286  0.3899 -0.7821
32290SOL    HW214481   1.429  13.809   4.005 -0.1854 -2.0174  2.3593
32291SOL     OW14482   2.859   8.338   8.362  0.7804 -0.0391 -0.0961
32291SOL    HW114483   2.905   8.402   8.416  1.1043  0.3776 -0.8445
32291SOL    HW214484   2.773   8.376   8.347  0.2443 -0.7142  1.1150
32292SOL     OW14485   6.781   3.904   2.049  0.6479  0.0061  0.3451
32292SOL    HW114486   6.717   3.837   2.075 -0.5616  1.2916  0.7997
32292SOL    HW214487   6.841   3.910   2.124  1.6818 -1.6012 -0.3103
32293SOL     OW14488   6.306  12.819   5.297 -0.0557  0.4289 -0.5595
32293SOL    HW114489   6.383  12.843   5.245  0.9513 -0.3320  0.5078
32293SOL    HW214490   6.258  12.757   5.243  0.7786 -0.0742 -0.7444
32294SOL     OW14491   0.977   5.756   6.947 -0.2749 -0.2193  0.2275
32294SOL    HW114492   0.952   5.823   7.010 -0.4333 -0.3767  0.3316
32294SOL    HW214493   1.061   5.723   6.978 -0.3320 -0.2658  0.3320
32295SOL     OW14494   3.152   1.760   4.244  0.1231 -0.6680  0.6108
32295SOL    HW114495   3.204   1.705   4.185 -0.5044 -0.8608  0.2289
32295SOL    HW214496   3.118   1.830   4.187 -0.7106 -1.0061  0.6735
32296SOL     OW14497  13.907   9.967   0.145 -0.3198  0.2721  0.1986
32296SOL    HW114498  13.965   9.914   0.089 -0.2727 -0.7351  1.1521
32296SOL    HW214499  13.822   9.962   0.102 -0.3612 -0.7736  0.3584
32297SOL     OW14500  13.523   3.589   6.968 -0.2590 -0.3275  0.1609
32297SOL    HW114501  13.575   3.543   7.034 -1.6468 -0.2081  1.3966
32297SOL    HW214502  13.567   3.570   6.885  1.4626 -0.5940  1.0887
32298SOL     OW14503  11.709  12.965   3.370 -0.2560  0.1611 -0.0225
32298SOL    HW114504  11.762  13.045   3.368 -1.2123  0.8073 -2.0658
32298SOL    HW214505  11.643  12.982   3.437  0.9397  0.1096  1.2058
32299SOL     OW14506   8.645  13.903  11.458  0.1938 -0.6974  0.5787
32299SOL    HW114507   8.635  13.812  11.488 -0.2676 -1.4406 -1.6280
32299SOL    HW214508   8.711  13.898  11.388  0.4933  0.7588  0.7262
32300SOL     OW14509   0.876   0.751  11.594  0.0868 -1.0129 -0.0921
32300SOL    HW114510   0.880   0.689  11.667  0.8335 -0.2642  0.5367
32300SOL    HW214511   0.871   0.837  11.636  2.2214 -0.4380 -0.8370
32301SOL     OW14512   9.642   8.523   3.445 -0.3081  0.1423  0.3443
32301SOL    HW114513   9.638   8.579   3.523 -0.5318  1.3825 -0.5266
32301SOL    HW214514   9.591   8.570   3.379  0.7812 -0.3299 -0.8778
32302SOL     OW14515   5.078   9.797   9.586 -0.1279 -0.2279 -0.5123
32302SOL    HW114516   5.052   9.706   9.571  0.4218 -0.2657 -1.2660
32302SOL    HW214517   5.173   9.795   9.589 -0.0930  0.3979 -1.0230
32303SOL     OW14518   0.507  13.457   4.481  0.3869  0.2933  0.5592
32303SOL    HW114519   0.577  13.471   4.417 -0.7366 -0.1215 -0.8142
32303SOL    HW214520   0.458  13.382   4.447 -0.9705  0.8308  1.2401
32304SOL     OW14521   5.697   8.208   3.769 -0.4664 -0.1100 -0.1345
32304SOL    HW114522   5.711   8.231   3.677  0.6484 -0.1639  0.0168
32304SOL    HW214523   5.693   8.113   3.770 -0.5298 -0.1075 -0.1267
32305SOL     OW14524  10.290   0.267  10.554  0.7254 -0.1439 -0.2994
32305SOL    HW114525  10.222   0.280  10.621  0.9223  1.0752 -0.3215
32305SOL    HW214526  10.324   0.180  10.572 -0.2028 -0.4039  0.3007
32306SOL     OW14527   8.768   7.402   4.613 -0.3550  0.2336 -0.7745
32306SOL    HW114528   8.799   7.343   4.681  0.0374  0.2735 -0.9133
32306SOL    HW214529   8.695   7.355   4.571  0.2016 -0.3268 -1.1412
32307SOL     OW14530   9.291   2.734   9.394 -0.0342  0.0294 -0.4653
32307SOL    HW114531   9.313   2.641   9.396  1.1811  0.2623  2.7197
32307SOL    HW214532   9.330   2.767   9.313 -0.0808 -2.1059 -1.4030
32308SOL     OW14533   8.194  10.306  12.806 -0.3511  0.6183 -0.1660
32308SOL    HW114534   8.201  10.232  12.746 -1.6194  2.0879 -2.2737
32308SOL    HW214535   8.285  10.332  12.823  0.0502 -0.0169 -1.2389
32309SOL     OW14536  10.282   7.403   9.405 -0.1205 -0.1261  0.3954
32309SOL    HW114537  10.223   7.404   9.329 -1.1250 -0.6077  1.1511
32309SOL    HW214538  10.224   7.394   9.480  0.9897 -2.6148  1.0694
32310SOL     OW14539   9.039   6.910   4.995  0.3541 -0.4697  0.4362
32310SOL    HW114540   9.089   6.871   5.067  0.5865  1.2709  1.2621
32310SOL    HW214541   9.014   6.996   5.027  1.6882  0.9738 -2.0949
32311SOL     OW14542   2.987  10.481  10.976 -0.0137 -0.0757  0.0624
32311SOL    HW114543   2.978  10.564  10.929 -0.8283  0.8995  1.8364
32311SOL    HW214544   3.010  10.507  11.065  0.6655 -1.8175  0.4283
32312SOL     OW14545  12.527   6.705  11.082 -0.4941 -0.5489  0.4617
32312SOL    HW114546  12.492   6.712  10.994 -2.4361 -0.4638  1.1937
32312SOL    HW214547  12.480   6.772  11.132  1.1031 -0.0806  1.4286
32313SOL     OW14548   5.804   7.787  13.746 -0.4137  0.1180  0.5066
32313SOL    HW114549   5.887   7.751  13.776  0.5033  1.5088 -0.2626
32313SOL    HW214550   5.816   7.882  13.750 -1.7566  0.3366 -0.1694
32314SOL     OW14551   0.277  11.066   9.333  0.4022 -0.1193  0.1308
32314SOL    HW114552   0.222  11.089   9.408  0.0133  0.9894 -0.4662
32314SOL    HW214553   0.363  11.102   9.355  0.6805 -1.0673  0.6657
32315SOL     OW14554   0.745  10.344  13.743  0.4418  0.4262 -0.1430
32315SOL    HW114555   0.801  10.360  13.666  0.2720 -0.9260 -0.5707
32315SOL    HW214556   0.800  10.291  13.801 -0.2653 -0.6438 -0.4300
32316SOL     OW14557   9.078   1.073   6.790 -0.3612  0.6027 -0.1186
32316SOL    HW114558   9.021   1.149   6.783 -0.7070  0.3144 -0.5062
32316SOL    HW214559   9.019   0.998   6.781 -0.2547  0.2433  1.7621
32317SOL     OW14560   2.817   8.750  12.846 -0.8188 -0.2963  0.5530
32317SOL    HW114561   2.740   8.801  12.821 -1.3940 -1.2674  0.3120
32317SOL    HW214562   2.791   8.704  12.926  0.6267  1.8988  2.4271
32318SOL     OW14563  12.513  10.390   9.448 -0.1117 -0.0619  0.0294
32318SOL    HW114564  12.501  10.304   9.409 -1.7203  0.1124  0.0997
32318SOL    HW214565  12.578  10.433   9.392 -0.8306 -0.5689 -1.2211
32319SOL     OW14566   5.526   0.475   9.396  0.6842  0.0004  0.8035
32319SOL    HW114567   5.603   0.427   9.426  0.4385 -0.6234  0.4525
32319SOL    HW214568   5.542   0.491   9.303  0.4900  0.0667  0.7807
32320SOL     OW14569   0.843   0.646   4.286  0.3669 -0.1377 -0.0303
32320SOL    HW114570   0.848   0.734   4.247 -0.1943  0.9544  2.1978
32320SOL    HW214571   0.895   0.652   4.366 -1.8210 -1.0122  1.5492
32321SOL     OW14572  12.697   7.909   6.717 -0.3208  0.1247 -0.1264
32321SOL    HW114573  12.640   7.960   6.661  2.7894 -0.4142 -4.2666
32321SOL    HW214574  12.738   7.974   6.775 -3.1033  0.7948  1.2718
32322SOL     OW14575  12.373   9.829   7.070 -0.3782  0.2260  0.5974
32322SOL    HW114576  12.427   9.858   6.997  0.0005 -0.4535  0.6012
32322SOL    HW214577  12.285   9.824   7.035 -0.3290  0.6854  0.4070
32323SOL     OW14578   3.822   4.264   0.990 -0.2472  0.3235 -0.2827
32323SOL    HW114579   3.835   4.170   0.995  0.5329  0.3572 -1.3503
32323SOL    HW214580   3.792   4.289   1.078  1.3443 -0.6411  0.5831
32324SOL     OW14581   0.703   7.473   6.903  0.1721 -0.2997 -0.6016
32324SOL    HW114582   0.780   7.470   6.846  1.5335  0.2654  1.1176
32324SOL    HW214583   0.702   7.562   6.938 -1.2974 -0.2830 -0.6051
32325SOL     OW14584  13.834  11.762   6.300 -0.1317 -0.0673  0.0193
32325SOL    HW114585  13.832  11.843   6.352 -1.0614  0.6443 -1.0925
32325SOL    HW214586  13.909  11.774   6.241  0.2559 -0.4075  0.4309
32326SOL     OW14587   1.520   2.400  13.077 -0.0059 -0.0137  0.2572
32326SOL    HW114588   1.521   2.362  13.164 -1.2796 -1.8723 -0.4884
32326SOL    HW214589   1.608   2.383  13.042 -0.1060 -1.0088  0.4701
32327SOL     OW14590   3.368   5.310   5.648 -0.2395  0.1398 -0.2360
32327SOL    HW114591   3.298   5.315   5.714 -0.7383  1.5313 -0.8233
32327SOL    HW214592   3.415   5.230   5.669 -2.9184 -1.6832 -0.6977
32328SOL     OW14593   1.278   2.558   8.752 -0.2846 -0.0782  0.0715
32328SOL    HW114594   1.258   2.497   8.681  1.1053  0.0193 -0.4383
32328SOL    HW214595   1.301   2.502   8.826 -1.4812 -0.1776  0.3861
32329SOL     OW14596  11.658   1.083   2.819  0.1158 -0.3168 -0.0800
32329SOL    HW114597  11.686   1.037   2.740  3.0422  0.7644  0.2102
32329SOL    HW214598  11.648   1.015   2.885 -0.4732 -1.0273 -0.8911
32330SOL     OW14599   5.764  12.254   1.717 -0.2390  0.5534  0.0752
32330SOL    HW114600   5.858  12.264   1.701 -0.3515  1.5193 -0.0232
32330SOL    HW214601   5.727  12.341   1.700 -0.8233  0.8205  2.3639
32331SOL     OW14602  10.935   9.497   6.790 -0.3176 -0.3622  0.3300
32331SOL    HW114603  10.967   9.412   6.821 -0.8040 -0.5566  0.3030
32331SOL    HW214604  10.906   9.542   6.869 -1.0804 -0.6556  0.2160
32332SOL     OW14605   2.438   0.969   7.406 -0.2788  0.2666 -0.7489
32332SOL    HW114606   2.504   1.003   7.345  0.4707 -1.5702 -1.0494
32332SOL    HW214607   2.481   0.893   7.447 -1.0929  0.9097  1.4351
32333SOL     OW14608   0.034   8.224   8.136 -0.7738 -0.1753  0.5398
32333SOL    HW114609   0.062   8.221   8.227 -0.4809 -2.1802  0.4135
32333SOL    HW214610  -0.025   8.150   8.126  1.1402 -1.5732 -1.4766
32334SOL     OW14611  10.232   4.365   3.567 -0.0286  0.1095  0.0547
32334SOL    HW114612  10.267   4.391   3.652  1.4306 -0.4862 -0.3358
32334SOL    HW214613  10.271   4.279   3.550 -2.8735 -1.3588  0.2473
32335SOL     OW14614  13.331   4.714  13.879  0.0013  0.5327  0.3533
32335SOL    HW114615  13.338   4.795  13.931 -0.7707  0.5744  0.3924
32335SOL    HW214616  13.381   4.650  13.929 -0.5227  0.6377  1.0274
32336SOL     OW14617   1.059   3.489   4.833 -0.0266 -0.4966 -0.2384
32336SOL    HW114618   1.070   3.529   4.747  0.1569 -1.3261 -0.6150
32336SOL    HW214619   1.116   3.540   4.890 -0.3213  0.2027 -0.5554
32337SOL     OW14620   2.140   7.408   5.198  0.3488  0.6018 -0.2079
32337SOL    HW114621   2.089   7.488   5.206 -0.3576  0.0214  1.9982
32337SOL    HW214622   2.231   7.435   5.210  0.3360  1.3088 -1.5577
32338SOL     OW14623  13.837  13.716   7.201  0.0504  0.3428  0.4022
32338SOL    HW114624  13.852  13.662   7.278  1.3432  0.6661  0.3892
32338SOL    HW214625  13.769  13.670   7.152  0.4123 -0.7332  0.8957
32339SOL     OW14626   0.214   3.028   0.779 -0.1134  0.3433 -0.4093
32339SOL    HW114627   0.221   3.097   0.713  1.7886 -0.0987 -0.7389
32339SOL    HW214628   0.302   3.023   0.817 -0.1375 -2.0185 -0.5268
32340SOL     OW14629   2.058   3.908   9.403  0.0547 -0.1281  0.1835
32340SOL    HW114630   2.013   3.824   9.414 -1.2126  0.2263 -1.7291
32340SOL    HW214631   2.019   3.946   9.324  2.0415  1.3458 -0.1730
32341SOL     OW14632   4.944  11.950   1.751  0.2923 -0.1058 -0.5390
32341SOL    HW114633   4.865  11.911   1.713 -0.1893  0.2710  0.0524
32341SOL    HW214634   5.002  11.876   1.767 -0.8587 -0.7079  1.1692
32342SOL     OW14635  13.417   0.588  14.068 -0.1951  0.5159  0.2924
32342SOL    HW114636  13.483   0.656  14.079  1.0475 -0.8848  2.2595
32342SOL    HW214637  13.416   0.570  13.974 -0.0968  2.7248 -0.1879
32343SOL     OW14638  11.615  11.754   7.576  0.1271 -0.0017 -0.2287
32343SOL    HW114639  11.573  11.790   7.654  0.6762 -1.1571  0.6321
32343SOL    HW214640  11.542  11.727   7.520 -0.3321 -1.5780  1.0538
32344SOL     OW14641   0.178   6.891   8.487  0.3123  0.1390 -0.4391
32344SOL    HW114642   0.194   6.847   8.570 -1.4774 -0.2148 -0.2320
32344SOL    HW214643   0.251   6.952   8.477  0.1408  0.8037  1.8241
32345SOL     OW14644   7.618  14.045   9.608  0.7680 -0.4326  0.0860
32345SOL    HW114645   7.561  14.121   9.598  0.5287 -0.5697  0.4086
32345SOL    HW214646   7.637  14.041   9.701  1.0017 -0.6095  0.0328
32346SOL     OW14647   5.160   9.676  11.653  0.0586  0.6360 -0.6730
32346SOL    HW114648   5.255   9.684  11.664  0.1676 -0.5052 -0.6750
32346SOL    HW214649   5.149   9.631  11.569 -0.2881 -2.9048  1.0668
32347SOL     OW14650   4.029  11.661   1.007  0.3887  0.7243 -0.6186
32347SOL    HW114651   3.954  11.707   1.045  0.7316  0.4143  0.4492
32347SOL    HW214652   3.992  11.581   0.970  0.6423 -1.5297  3.5099
32348SOL     OW14653   1.267   7.294   6.135  0.1094 -0.4684 -0.1490
32348SOL    HW114654   1.245   7.213   6.180  1.2741 -1.2074 -0.8517
32348SOL    HW214655   1.239   7.279   6.044  0.1561  0.0051 -0.2463
32349SOL     OW14656  10.238   3.675  13.191 -0.3011  0.3991  0.0354
32349SOL    HW114657  10.168   3.698  13.252 -0.7109 -1.8156  0.4845
32349SOL    HW214658  10.311   3.650  13.248 -0.2574 -0.4367 -0.3708
32350SOL     OW14659   8.983  13.989   2.140 -0.1807 -0.6157 -0.1357
32350SOL    HW114660   8.938  14.072   2.152  1.3664  0.4223 -1.1993
32350SOL    HW214661   9.034  14.000   2.060 -0.8450 -3.0174 -0.9926
32351SOL     OW14662   2.573  10.688   2.366  0.1647  0.3701 -0.2277
32351SOL    HW114663   2.546  10.778   2.382 -0.4860  0.4877 -1.7254
32351SOL    HW214664   2.548  10.672   2.274  0.5648 -1.2190 -0.0930
32352SOL     OW14665   6.459  13.814   9.783 -0.3984  0.5462 -0.1319
32352SOL    HW114666   6.507  13.840   9.862  4.0817 -2.5313 -1.4402
32352SOL    HW214667   6.407  13.739   9.812  0.0567  0.3691  0.2578
32353SOL     OW14668  13.659  13.469   8.813  0.9850  0.2514 -0.4151
32353SOL    HW114669  13.727  13.403   8.808 -0.7787 -1.5949 -1.4974
32353SOL    HW214670  13.599  13.437   8.881  1.6719  2.4068  1.3355
32354SOL     OW14671   4.717  13.221   7.915 -0.4466 -0.0577 -0.1644
32354SOL    HW114672   4.627  13.189   7.903  0.0217 -0.6549 -2.7149
32354SOL    HW214673   4.763  13.192   7.836  1.6090  1.5746  0.3490
32355SOL     OW14674   4.873   2.070   6.396  0.5400 -0.5901 -1.0654
32355SOL    HW114675   4.787   2.081   6.356  0.1710  1.1261  0.0904
32355SOL    HW214676   4.928   2.137   6.354  0.7750 -0.3471 -0.3741
32356SOL     OW14677   4.920   9.901   4.283 -0.0942 -0.5493  0.0835
32356SOL    HW114678   4.895   9.812   4.256 -0.1331 -0.4228 -0.2969
32356SOL    HW214679   4.870   9.959   4.225 -0.1747 -0.2746  0.4217
32357SOL     OW14680   9.821   8.340   9.951 -0.1697 -0.2174 -0.1156
32357SOL    HW114681   9.798   8.398  10.023  1.2647 -1.1544  1.1713
32357SOL    HW214682   9.784   8.255   9.976 -0.5178 -0.3290 -0.9868
32358SOL     OW14683   3.323   9.402   7.789 -0.1969 -0.5545 -0.6329
32358SOL    HW114684   3.269   9.402   7.709 -0.9646  0.4434 -0.1349
32358SOL    HW214685   3.322   9.493   7.818  0.6317 -0.7904  0.1599
32359SOL     OW14686  12.569  12.720   3.551 -0.1954 -0.1559  0.7454
32359SOL    HW114687  12.529  12.784   3.491  1.1203  0.1815  0.1723
32359SOL    HW214688  12.652  12.761   3.577 -0.0695 -0.9521  1.6455
32360SOL     OW14689   4.343  14.058   7.390  0.4667  0.7801 -0.1484
32360SOL    HW114690   4.385  14.132   7.346 -1.9066  2.0975 -0.3833
32360SOL    HW214691   4.249  14.074   7.380 -0.1462 -1.3344  1.3926
32361SOL     OW14692   9.240   0.856   2.358 -0.2166  0.3792 -0.5078
32361SOL    HW114693   9.226   0.795   2.431 -1.8136  0.0307 -1.0719
32361SOL    HW214694   9.174   0.924   2.371  0.1386  0.8441 -1.0963
32362SOL     OW14695  10.021  11.190   3.833  0.5700  0.0884 -0.2882
32362SOL    HW114696   9.964  11.118   3.859  0.5696  0.5760  1.1657
32362SOL    HW214697   9.990  11.265   3.884  2.0187  0.5396 -0.0032
32363SOL     OW14698   4.301   0.334  11.160 -0.0362  0.4469  0.3956
32363SOL    HW114699   4.237   0.267  11.136 -1.4569  1.3686  1.4537
32363SOL    HW214700   4.266   0.415  11.122 -0.0745  1.1457  1.8790
32364SOL     OW14701   9.130   6.526   9.519  0.0009 -0.0976 -0.0155
32364SOL    HW114702   9.110   6.572   9.437  1.3870 -2.1585 -1.5998
32364SOL    HW214703   9.052   6.475   9.538  0.4162 -1.2399 -1.2589
32365SOL     OW14704  12.620   4.370   9.764 -0.1711 -0.5056 -0.1933
32365SOL    HW114705  12.584   4.344   9.679 -0.2130 -1.3900  0.0780
32365SOL    HW214706  12.704   4.411   9.743 -0.1535 -0.7709 -0.6592
32366SOL     OW14707  13.257  11.895   1.509  0.9918  0.2894  0.4129
32366SOL    HW114708  13.288  11.905   1.599  0.9001  1.9272  0.2924
32366SOL    HW214709  13.162  11.886   1.518  0.8151  1.8582  0.4417
32367SOL     OW14710  14.045  13.330   2.475 -0.4388 -0.4697  0.2380
32367SOL    HW114711  13.986  13.394   2.516 -0.4061 -0.6645  0.5913
32367SOL    HW214712  13.987  13.260   2.445 -0.3581 -0.8620  0.9571
32368SOL     OW14713   6.671   8.209   0.256 -0.1370  0.3881  0.1323
32368SOL    HW114714   6.721   8.210   0.338 -1.7274  0.7202  1.1264
32368SOL    HW214715   6.738   8.210   0.188  1.2218  0.3947  1.4172
32369SOL     OW14716   6.584  13.633   2.257  0.4044 -0.1862 -0.0440
32369SOL    HW114717   6.675  13.607   2.247  1.0915  1.1176  2.1804
32369SOL    HW214718   6.551  13.581   2.330 -0.3961 -0.0760 -0.3143
32370SOL     OW14719  10.334   3.647   9.804 -0.3007 -0.1408  0.1485
32370SOL    HW114720  10.319   3.672   9.896 -0.9409  4.3281 -0.9465
32370SOL    HW214721  10.246   3.631   9.770 -0.2270 -0.0742 -0.0727
32371SOL     OW14722  10.473   0.383  12.424  0.0758 -0.1390  0.5896
32371SOL    HW114723  10.555   0.352  12.464  1.4472 -1.0939 -2.6708
32371SOL    HW214724  10.411   0.311  12.439  1.0483 -1.2188 -0.3673
32372SOL     OW14725   4.790   4.001   3.769  0.2082  0.3355 -0.0933
32372SOL    HW114726   4.707   3.988   3.816 -0.6001  1.8013 -1.0273
32372SOL    HW214727   4.857   3.992   3.837 -0.7835  0.2785  0.9179
32373SOL     OW14728  10.110  13.507  10.781  0.2760 -0.0541 -0.2662
32373SOL    HW114729  10.121  13.591  10.737  0.3763  0.4053  0.6150
32373SOL    HW214730  10.018  13.485  10.769 -0.0592  0.8384  0.6488
32374SOL     OW14731   2.367  11.529   2.876  0.0675 -0.0237  0.2938
32374SOL    HW114732   2.458  11.557   2.860  0.6075 -2.5995 -1.8815
32374SOL    HW214733   2.320  11.556   2.797 -0.3754 -1.1942  0.1419
32375SOL     OW14734   2.280   9.527  13.185  0.2408  0.2543  0.2897
32375SOL    HW114735   2.285   9.579  13.265  0.4928 -0.9708  1.1023
32375SOL    HW214736   2.340   9.569  13.124  1.2327  0.3129  1.2841
32376SOL     OW14737  10.272  13.848   2.486 -0.4360  0.1483  0.0918
32376SOL    HW114738  10.314  13.858   2.400 -0.5462 -1.1275 -0.1242
32376SOL    HW214739  10.328  13.787   2.534  0.5310  2.0796  1.5728
32377SOL     OW14740   5.472   0.958   0.217 -0.5610  0.2960 -0.0107
32377SOL    HW114741   5.408   1.028   0.207 -1.3138 -0.3798 -0.0526
32377SOL    HW214742   5.535   0.992   0.280 -1.0246  0.9400  0.1139
32378SOL     OW14743   3.916   5.891   7.027 -0.0015  0.4515  0.1071
32378SOL    HW114744   3.840   5.878   7.084  0.2237  0.5755  0.4437
32378SOL    HW214745   3.899   5.975   6.984 -0.1926  0.3384 -0.0374
32379SOL     OW14746  13.368   8.434   0.525  0.0310  0.6083 -0.3508
32379SOL    HW114747  13.370   8.467   0.615 -0.2647  1.2136 -0.5557
32379SOL    HW214748  13.402   8.345   0.531  0.8119  0.9311  0.2306
32380SOL     OW14749   0.427   2.250   7.442  1.0225 -0.3629  0.0414
32380SOL    HW114750   0.393   2.262   7.354  1.1377 -1.3968 -0.1512
32380SOL    HW214751   0.480   2.171   7.437  1.8129  0.0932  0.8131
32381SOL     OW14752   4.734   8.628   4.512  0.8508 -0.1574  0.3170
32381SOL    HW114753   4.713   8.722   4.520 -0.6307 -0.4925  0.6569
32381SOL    HW214754   4.818   8.619   4.556  0.9942  1.0018  0.3348
32382SOL     OW14755   0.012   1.585  10.257 -0.2564  0.1826  0.4714
32382SOL    HW114756   0.023   1.637  10.337 -0.1506  0.4194  0.3063
32382SOL    HW214757   0.087   1.527  10.256 -0.7270 -0.4577  1.0092
32383SOL     OW14758   9.308   1.178   5.724  0.0267 -0.2440 -0.1456
32383SOL    HW114759   9.315   1.219   5.638  1.9352  2.0780  0.9738
32383SOL    HW214760   9.397   1.150   5.745 -0.2322 -0.0215  1.3871
32384SOL     OW14761  13.129   9.833  12.266  0.5569 -0.3985  0.8695
32384SOL    HW114762  13.122   9.775  12.341 -0.4762 -0.6203  0.6201
32384SOL    HW214763  13.075   9.791  12.198 -1.6302  1.6546  1.2041
32385SOL     OW14764   6.493  10.172  11.963 -0.4721 -0.0622  0.4398
32385SOL    HW114765   6.430  10.155  11.894 -0.6327 -0.0656  0.5876
32385SOL    HW214766   6.476  10.263  11.990 -2.8063 -1.0916  2.9164
32386SOL     OW14767   3.663   6.617  12.966 -0.1547  0.1991 -0.1279
32386SOL    HW114768   3.631   6.579  12.884  2.3849 -0.7728 -0.7649
32386SOL    HW214769   3.699   6.702  12.941 -1.2483  0.8266  0.3825
32387SOL     OW14770  10.685   5.660  12.054  0.5698 -0.1622 -0.0666
32387SOL    HW114771  10.780   5.665  12.042  0.6638  0.5151  0.8620
32387SOL    HW214772  10.663   5.738  12.105 -0.3037 -0.9455  0.8004
32388SOL     OW14773  12.491   2.733   7.469 -0.5496  0.4814 -0.2675
32388SOL    HW114774  12.431   2.681   7.521 -0.3188  1.0112  0.5415
32388SOL    HW214775  12.578   2.711   7.504 -0.5205  2.1778  0.8028
32389SOL     OW14776   8.054  10.260  14.077 -0.1500  0.0205 -0.1403
32389SOL    HW114777   7.960  10.280  14.086 -0.3131  0.3261 -2.1461
32389SOL    HW214778   8.095  10.346  14.064  0.6623  0.0558  2.2064
32390SOL     OW14779   9.292   1.145   6.612  0.1341 -0.0096  0.1218
32390SOL    HW114780   9.226   1.126   6.679 -0.9667  1.2059 -0.5832
32390SOL    HW214781   9.372   1.104   6.646 -0.8449 -1.1089  1.2291
32391SOL     OW14782   8.730   9.873  13.872 -0.7471 -0.1669  0.1661
32391SOL    HW114783   8.775   9.853  13.954  1.3001 -0.6838 -1.0190
32391SOL    HW214784   8.699   9.788  13.841 -1.6602  0.0496  0.4684
32392SOL     OW14785   6.309  13.016   6.177  0.0067  0.0066  0.0307
32392SOL    HW114786   6.291  13.108   6.196  0.5831  0.0392  0.4389
32392SOL    HW214787   6.277  13.003   6.088  0.2130  0.6886 -0.1477
32393SOL     OW14788  11.199   4.033   5.289  0.2410  0.2121  0.4696
32393SOL    HW114789  11.144   3.989   5.354 -2.2744  1.7668 -0.4558
32393SOL    HW214790  11.157   4.014   5.205  2.8677 -0.9523 -0.7034
32394SOL     OW14791   6.451   9.245   1.286 -0.6498 -0.4453  0.5095
32394SOL    HW114792   6.481   9.326   1.329 -0.0904 -0.9272  1.0438
32394SOL    HW214793   6.357   9.243   1.304 -1.2752  1.5559 -1.9642
32395SOL     OW14794  10.292   2.613   7.164 -0.4554 -0.0167 -0.0052
32395SOL    HW114795  10.313   2.531   7.119 -0.0382  0.5947 -0.9657
32395SOL    HW214796  10.375   2.662   7.163 -1.1650  1.2377 -1.2479
32396SOL     OW14797   8.621   7.511   9.103  0.3190  0.2201 -0.0992
32396SOL    HW114798   8.574   7.427   9.111 -0.8962  0.7865 -0.9883
32396SOL    HW214799   8.708   7.486   9.073  0.3634 -0.8116  0.8199
32397SOL     OW14800   0.992   4.660  10.401 -0.2958 -0.5629 -0.2213
32397SOL    HW114801   0.967   4.688  10.488 -1.1999 -0.7699 -0.4049
32397SOL    HW214802   0.910   4.655  10.352  0.2524  0.1042 -1.2516
32398SOL     OW14803   0.889   4.299   9.461 -0.3860  0.9671 -0.9329
32398SOL    HW114804   0.803   4.263   9.443 -0.4329  1.6851 -2.2400
32398SOL    HW214805   0.929   4.311   9.375  2.4516 -2.6363 -0.3690
32399SOL     OW14806   0.432   6.248   8.404 -0.1183  0.6769  0.0645
32399SOL    HW114807   0.407   6.258   8.312 -1.4450  0.1866  0.3654
32399SOL    HW214808   0.504   6.310   8.415  1.8761 -1.0945 -1.9670
32400SOL     OW14809   9.229  10.384  12.628  0.0253  0.0397  0.3343
32400SOL    HW114810   9.182  10.342  12.556  0.0789  1.3716 -0.5195
32400SOL    HW214811   9.160  10.415  12.686 -0.0037 -1.4777  1.1394
32401SOL     OW14812   6.529  11.935   5.357 -0.1342  0.0909  0.5926
32401SOL    HW114813   6.531  11.904   5.267  0.7021  2.2464 -0.2053
32401SOL    HW214814   6.574  11.867   5.407  0.7054 -0.4709 -0.8645
32402SOL     OW14815   2.726  12.411  11.842 -0.4306 -0.1960 -0.0252
32402SOL    HW114816   2.740  12.448  11.929  1.3425  1.4520 -0.9336
32402SOL    HW214817   2.679  12.329  11.858  2.6574 -1.6421  2.7774
32403SOL     OW14818   8.314   4.396   2.952  0.5631  0.3101 -0.3472
32403SOL    HW114819   8.252   4.345   3.005  1.5238 -0.1506  0.3525
32403SOL    HW214820   8.397   4.351   2.962  0.9247  0.6278 -1.6987
32404SOL     OW14821  11.297  13.319   0.637 -0.1717 -0.0183  0.1384
32404SOL    HW114822  11.253  13.372   0.571 -3.6646 -1.6851  0.9167
32404SOL    HW214823  11.325  13.240   0.590 -0.8492 -0.3189  0.2292
32405SOL     OW14824  13.285   4.350  10.655  0.1709  0.0251  0.7037
32405SOL    HW114825  13.355   4.332  10.718 -0.1830  0.6798  1.2945
32405SOL    HW214826  13.216   4.392  10.707 -0.4959 -0.2440  0.0499
32406SOL     OW14827  12.673   4.130   2.888  0.0637  0.8337  0.2401
32406SOL    HW114828  12.639   4.043   2.907  1.6866  0.1557  0.1325
32406SOL    HW214829  12.610   4.190   2.930 -0.5717 -0.3951  1.0879
32407SOL     OW14830   9.611  11.408   0.732 -0.2617 -0.0537  0.2369
32407SOL    HW114831   9.612  11.323   0.688 -0.0948 -0.9821  1.9687
32407SOL    HW214832   9.703  11.429   0.748 -0.2358  0.9497 -1.0197
32408SOL     OW14833  12.979  12.703  12.569  0.7670  0.0455  0.1008
32408SOL    HW114834  13.011  12.731  12.483  0.5736  0.6987  0.2355
32408SOL    HW214835  13.047  12.644  12.601  1.8318  1.3391  0.3336
32409SOL     OW14836   8.607  10.157   5.335 -0.3714 -0.0751 -0.1594
32409SOL    HW114837   8.598  10.069   5.372 -0.1269  0.3221  0.8700
32409SOL    HW214838   8.566  10.215   5.399  1.4009  0.7879  0.2657
32410SOL     OW14839   1.067   0.951  11.996  0.1413 -0.0823  0.3890
32410SOL    HW114840   1.142   0.900  12.028  1.0612 -0.1012 -1.6253
32410SOL    HW214841   1.020   0.977  12.075  2.4283  0.1674  1.7554
32411SOL     OW14842   9.477   5.502   2.065  0.0328 -0.5087 -0.2566
32411SOL    HW114843   9.528   5.421   2.055  1.7166  0.5098 -0.2686
32411SOL    HW214844   9.482   5.543   1.978  2.8919  1.6427  0.7671
32412SOL     OW14845   0.958   0.481  12.917 -1.0522 -0.2597 -0.0898
32412SOL    HW114846   0.920   0.398  12.887 -1.8372 -1.1658  3.0226
32412SOL    HW214847   0.886   0.525  12.962 -0.5377  2.0133 -1.3148
32413SOL     OW14848  10.941   7.075  14.086 -0.5216  0.2845 -0.0159
32413SOL    HW114849  10.860   7.096  14.133  0.2234 -1.3898  2.1675
32413SOL    HW214850  10.950   6.980  14.094  1.5222  0.3965 -0.3972
32414SOL     OW14851   7.316   3.129   1.745 -0.4613 -0.1685 -0.0878
32414SOL    HW114852   7.317   3.055   1.683 -0.9051  0.1945 -0.5288
32414SOL    HW214853   7.225   3.138   1.771 -0.2008 -0.6823  1.0782
32415SOL     OW14854   6.599  10.368   0.147 -0.3260  0.0546 -0.4587
32415SOL    HW114855   6.521  10.314   0.146 -0.1589 -0.1814 -1.4212
32415SOL    HW214856   6.631  10.367   0.057 -0.4698  1.9897 -0.5827
32416SOL     OW14857   0.684   2.978  11.089  0.3927 -0.5086 -0.1568
32416SOL    HW114858   0.668   2.885  11.071 -1.7818 -0.7158  2.2232
32416SOL    HW214859   0.598   3.013  11.112  1.8130  0.8773  3.8312
32417SOL     OW14860   2.940   3.043   4.658 -0.5590 -0.3070 -0.2120
32417SOL    HW114861   2.932   2.966   4.602 -0.4400 -0.3655 -0.1482
32417SOL    HW214862   2.850   3.063   4.684 -0.5055 -1.0540  0.6205
32418SOL     OW14863   0.704  11.115   2.631 -0.2392 -0.3524  0.1284
32418SOL    HW114864   0.616  11.144   2.611 -0.6686 -1.3817  0.4459
32418SOL    HW214865   0.692  11.031   2.676  0.9308 -1.4103 -1.4046
32419SOL     OW14866   2.384   8.042   0.131 -0.3552  0.1055 -0.2001
32419SOL    HW114867   2.448   8.086   0.188  0.4128 -1.0163 -0.1482
32419SOL    HW214868   2.437   8.007   0.059 -0.6253 -2.1804  0.6333
32420SOL     OW14869  11.829   0.582  13.287  0.0345  0.2799  0.4699
32420SOL    HW114870  11.830   0.492  13.256 -0.9377  0.4018  0.0477
32420SOL    HW214871  11.887   0.629  13.228  1.3159 -0.2305  1.2731
32421SOL     OW14872   4.940   9.204  12.385  0.3893  0.0723  0.7295
32421SOL    HW114873   4.871   9.142  12.409  0.1597 -0.3388 -0.8884
32421SOL    HW214874   4.976   9.170  12.303  2.4749  0.3442  1.4766
32422SOL     OW14875   2.437   4.409  12.159 -0.1588  0.8722 -0.3027
32422SOL    HW114876   2.354   4.448  12.133 -1.3530 -1.1426  0.2908
32422SOL    HW214877   2.448   4.433  12.251 -0.2475  0.8512 -0.2872
32423SOL     OW14878  11.042   4.413   4.222  0.1179  0.0059 -0.5867
32423SOL    HW114879  11.016   4.362   4.145 -1.3951 -1.4877  0.8365
32423SOL    HW214880  11.118   4.366   4.256  0.7096  0.5949 -1.0626
32424SOL     OW14881   1.158   4.418   6.631 -0.1641 -0.4350 -0.4878
32424SOL    HW114882   1.219   4.451   6.696 -0.2077  0.9804 -1.1469
32424SOL    HW214883   1.099   4.360   6.681  1.3030 -1.3369  0.2552
32425SOL     OW14884   0.066   7.104   9.450  0.2209 -0.9591  0.1526
32425SOL    HW114885   0.126   7.116   9.376 -0.1122 -2.7215 -0.4671
32425SOL    HW214886   0.069   7.187   9.497  0.4936  0.2192 -1.8063
32426SOL     OW14887   9.562  13.609   6.646 -0.5440 -0.3746  0.2158
32426SOL    HW114888   9.601  13.548   6.709 -1.3477 -0.6795  0.4268
32426SOL    HW214889   9.625  13.681   6.641  0.1580 -0.9680  0.3703
32427SOL     OW14890   9.168   9.037   2.215  0.0357 -0.0135 -0.0167
32427SOL    HW114891   9.073   9.029   2.222  0.1828 -0.7306  1.7300
32427SOL    HW214892   9.198   8.949   2.191  0.2299  0.3805 -1.3004
32428SOL     OW14893   5.428  13.587   7.930 -0.2804 -0.1051 -0.1823
32428SOL    HW114894   5.385  13.621   7.852  1.7012  0.7225 -0.9734
32428SOL    HW214895   5.372  13.514   7.958 -1.7256  0.3992 -1.5833
32429SOL     OW14896   9.682  12.170  11.965  0.1985  0.8134  0.8901
32429SOL    HW114897   9.643  12.189  11.879 -2.4921 -0.7080  1.6588
32429SOL    HW214898   9.745  12.240  11.979  0.0909  1.5962 -1.9317
32430SOL     OW14899   1.258  13.600   4.632 -0.3822 -0.0285 -0.2577
32430SOL    HW114900   1.312  13.606   4.553 -0.7528  0.3913 -0.4819
32430SOL    HW214901   1.183  13.656   4.615 -1.2280 -1.1013 -0.2044
32431SOL     OW14902   9.530   5.077   7.052 -0.2466 -0.6682  0.2770
32431SOL    HW114903   9.552   4.989   7.083  2.5119 -0.5212 -0.9584
32431SOL    HW214904   9.558   5.135   7.123  0.6452 -0.6479 -0.0834
32432SOL     OW14905   9.367   6.069   4.113 -0.4051 -0.4080  0.3015
32432SOL    HW114906   9.280   6.038   4.085  0.2664 -1.4650 -0.7000
32432SOL    HW214907   9.380   6.028   4.199 -0.1737 -1.6967 -0.3293
32433SOL     OW14908  12.267  13.497  13.480  0.5620  0.1971  0.0636
32433SOL    HW114909  12.273  13.469  13.389 -1.5204  0.9099 -0.3340
32433SOL    HW214910  12.351  13.470  13.519  0.8771 -1.5092 -1.6524
32434SOL     OW14911   9.603  11.527   2.681 -0.4088  0.0396 -0.0681
32434SOL    HW114912   9.529  11.476   2.646  0.6584 -0.2410 -2.0707
32434SOL    HW214913   9.574  11.618   2.676 -1.7520 -0.2070  2.1012
32435SOL     OW14914  10.909   5.376   0.528 -0.5038 -0.7964  0.7103
32435SOL    HW114915  10.849   5.431   0.579 -1.0630 -1.0847  0.3761
32435SOL    HW214916  10.868   5.289   0.528 -0.4545 -0.8326 -0.1192
32436SOL     OW14917   9.943   8.751  11.859  0.5103  0.2210 -0.5636
32436SOL    HW114918   9.872   8.694  11.832 -1.2910  1.9792  0.1533
32436SOL    HW214919   9.959   8.807  11.783 -2.5522  3.2205  0.7158
32437SOL     OW14920   7.556   0.069   3.606 -0.3876 -0.4965 -0.2652
32437SOL    HW114921   7.507   0.042   3.684  0.6341  1.4079  1.1262
32437SOL    HW214922   7.618  -0.002   3.590  1.1348  0.1387  2.2905
32438SOL     OW14923  11.060   9.940   5.116 -0.3284 -0.5724  0.5291
32438SOL    HW114924  11.142   9.988   5.105  0.5298 -2.1862 -0.3006
32438SOL    HW214925  10.995  10.009   5.133  0.5587  1.0645 -2.1577
32439SOL     OW14926   4.508  13.017   9.593 -0.3652 -0.6008 -0.4460
32439SOL    HW114927   4.545  12.928   9.595 -1.2365 -0.9677  0.6186
32439SOL    HW214928   4.540  13.057   9.674 -2.0701 -0.8543  0.3838
32440SOL     OW14929  12.547   2.463   9.287 -0.0407 -0.0465 -0.4056
32440SOL    HW114930  12.557   2.382   9.237 -1.7991  0.1865 -1.2130
32440SOL    HW214931  12.458   2.459   9.322 -0.2603  1.6540 -0.6851
32441SOL     OW14932   1.436   8.127  14.002 -0.1835  0.4933 -0.6993
32441SOL    HW114933   1.425   8.076  13.921 -1.7756 -0.4611  0.0770
32441SOL    HW214934   1.441   8.218  13.972 -1.6348  0.2388 -1.8535
32442SOL     OW14935   2.317   3.921   8.259  0.0330  0.6190  0.1427
32442SOL    HW114936   2.348   4.005   8.293  1.3200 -0.4255  1.6629
32442SOL    HW214937   2.282   3.876   8.336 -0.8597 -0.1645 -0.6957
32443SOL     OW14938   5.493   8.536   3.003 -0.5946 -0.4702 -0.2182
32443SOL    HW114939   5.497   8.454   3.051 -0.0616 -1.8814 -2.5361
32443SOL    HW214940   5.548   8.596   3.053  1.8892 -2.5597 -0.2697
32444SOL     OW14941   4.730   1.621   7.107  0.0332  0.4250 -0.2173
32444SOL    HW114942   4.777   1.631   7.025  0.0198 -1.2471 -0.4723
32444SOL    HW214943   4.796   1.587   7.168 -0.7285 -1.9056 -0.5692
32445SOL     OW14944   0.903   2.967  10.873  0.2561  0.1500 -0.0085
32445SOL    HW114945   0.968   3.024  10.912  1.6349 -0.2373 -1.6245
32445SOL    HW214946   0.820   3.014  10.883  1.1031  1.6387  0.1894
32446SOL     OW14947   8.263   1.458   0.362 -0.3583 -0.4836  0.1632
32446SOL    HW114948   8.177   1.496   0.383 -0.5142 -0.5578 -0.3464
32446SOL    HW214949   8.299   1.515   0.294  0.0170 -0.4324  0.3966
32447SOL     OW14950   7.798  12.570   8.777  0.0073  0.8578 -0.5920
32447SOL    HW114951   7.888  12.591   8.751  0.4051  1.9788  1.5361
32447SOL    HW214952   7.765  12.515   8.705  1.6880  2.0731 -2.4039
32448SOL     OW14953   8.348  11.205   3.315  0.0096  0.3012 -0.2743
32448SOL    HW114954   8.303  11.234   3.394 -0.1791  0.1294 -0.3181
32448SOL    HW214955   8.345  11.281   3.257 -3.6902 -0.8044 -1.8337
32449SOL     OW14956  14.037   9.672  10.381 -0.1352  0.4622 -0.3943
32449SOL    HW114957  13.981   9.683  10.458  1.4416  2.0435  0.6001
32449SOL    HW214958  14.022   9.751  10.328 -2.5561 -1.3932 -2.7365
32450SOL     OW14959   9.492  12.248   5.023  0.0838 -0.1710 -0.4102
32450SOL    HW114960   9.466  12.202   5.103  1.1261 -0.2123 -0.0849
32450SOL    HW214961   9.417  12.237   4.964 -0.6532 -0.2367  0.5100
32451SOL     OW14962   4.234   8.975   1.891 -0.3125 -0.0919 -0.0851
32451SOL    HW114963   4.239   9.026   1.810 -1.2654  1.0837  0.5506
32451SOL    HW214964   4.316   8.996   1.937  0.8266 -1.7497 -1.2467
32452SOL     OW14965   2.129   8.976   2.434 -0.3833 -0.1617 -0.1956
32452SOL    HW114966   2.062   9.013   2.492  0.9696 -1.5524  2.4303
32452SOL    HW214967   2.194   9.046   2.425 -1.2681  0.5658 -1.3167
32453SOL     OW14968   6.466   3.563  12.235 -0.7199 -0.4077 -0.1922
32453SOL    HW114969   6.452   3.657  12.225  0.3184 -0.0006  1.7546
32453SOL    HW214970   6.415   3.539  12.312  0.8593 -0.9283  0.7430
32454SOL     OW14971  13.637   1.889   4.027 -0.0185 -0.5645  0.4688
32454SOL    HW114972  13.586   1.959   4.068  0.1783 -0.4215  0.4693
32454SOL    HW214973  13.574   1.841   3.974  0.2305  0.8393 -1.1786
32455SOL     OW14974   1.642  12.929   2.945  0.1851  0.5822  0.4882
32455SOL    HW114975   1.641  13.006   3.002  1.9115  1.4261 -0.5250
32455SOL    HW214976   1.717  12.878   2.975  1.2648  1.1527 -1.0861
32456SOL     OW14977  14.001  12.717  10.757  0.0999  0.1463  0.0842
32456SOL    HW114978  14.014  12.709  10.851  0.6140 -1.9851 -0.1201
32456SOL    HW214979  13.942  12.645  10.735 -0.0091  0.6147 -1.2402
32457SOL     OW14980   4.421  13.546   1.250 -0.0872 -0.4063 -0.6593
32457SOL    HW114981   4.398  13.639   1.256 -0.6147 -0.5781  0.2687
32457SOL    HW214982   4.407  13.512   1.339  0.3196 -1.3236 -0.9307
32458SOL     OW14983  13.237  13.985   2.599  0.5056 -0.6750 -0.5532
32458SOL    HW114984  13.282  13.989   2.515  0.6662  0.5245 -0.4309
32458SOL    HW214985  13.288  14.042   2.657  0.5890 -1.7443  0.4663
32459SOL     OW14986   4.952   4.739   9.686  0.5256  0.0733 -0.3419
32459SOL    HW114987   4.913   4.746   9.599 -0.9318  0.6589  0.3272
32459SOL    HW214988   4.943   4.826   9.724  1.1151 -0.1800  0.4073
32460SOL     OW14989   4.158   2.236  10.277  0.0835  0.1768 -0.8162
32460SOL    HW114990   4.166   2.183  10.198 -1.1041 -0.2260 -0.6761
32460SOL    HW214991   4.089   2.299  10.258  1.8380  2.1128 -1.1850
32461SOL     OW14992   1.073   4.621   5.365  0.2873  0.0113  0.0286
32461SOL    HW114993   1.086   4.708   5.404  1.0475  1.0265 -2.3201
32461SOL    HW214994   1.095   4.632   5.272  0.8668 -2.8187 -0.2723
32462SOL     OW14995   7.696   8.337  11.815 -0.3598 -0.2288 -0.2196
32462SOL    HW114996   7.701   8.385  11.732  1.6601  0.2259  0.1266
32462SOL    HW214997   7.733   8.397  11.880 -3.7380  0.2601  1.4746
32463SOL     OW14998   8.833  13.778  13.384 -0.5802 -0.0725  0.1249
32463SOL    HW114999   8.832  13.843  13.313  1.7462  1.2961  1.1967
32463SOL    HW215000   8.789  13.702  13.348 -1.1846  1.2323 -2.0989
32464SOL     OW15001  10.752   4.104   7.635 -0.2035 -0.0127 -0.6148
32464SOL    HW115002  10.820   4.147   7.583  0.4275  0.5598  0.6229
32464SOL    HW215003  10.682   4.085   7.573  0.3402  1.0166 -1.5790
32465SOL     OW15004   5.394  12.745   3.174  0.4591 -0.4557 -0.0839
32465SOL    HW115005   5.320  12.732   3.233  0.6688 -0.7210  0.1229
32465SOL    HW215006   5.355  12.748   3.087 -0.4607  4.3000  0.2139
32466SOL     OW15007   9.781   2.948  11.494 -0.3585 -0.8917 -0.2614
32466SOL    HW115008   9.765   2.966  11.587  2.2331  3.5677 -0.3463
32466SOL    HW215009   9.705   2.985  11.449  0.4177  1.2368  0.0475
32467SOL     OW15010   7.694  12.619   9.949  0.1063 -0.3334 -0.4011
32467SOL    HW115011   7.653  12.685  10.005  0.9007  1.6261 -1.9972
32467SOL    HW215012   7.784  12.649   9.938  0.3579 -1.4210 -1.5891
32468SOL     OW15013  13.901  10.524   5.172 -0.2279 -0.2236 -0.2828
32468SOL    HW115014  13.902  10.465   5.247  0.2961 -0.6946 -0.6553
32468SOL    HW215015  13.855  10.602   5.203  0.4424 -0.2049  0.6904
32469SOL     OW15016   3.729   2.615   2.126 -0.8989  0.1044  0.1826
32469SOL    HW115017   3.781   2.543   2.162 -0.6022  0.9748  1.5407
32469SOL    HW215018   3.684   2.653   2.201 -2.6460  0.0876 -0.8040
32470SOL     OW15019  14.059   1.628   3.077  0.3616  0.1002 -0.8711
32470SOL    HW115020  14.006   1.580   3.140 -0.2432 -1.4823 -2.5043
32470SOL    HW215021  14.002   1.698   3.046  0.1065 -0.0686 -0.7867
32471SOL     OW15022   9.521  11.119   6.642 -0.3766 -0.3183  0.1857
32471SOL    HW115023   9.581  11.048   6.665  0.8638  0.7214  0.3051
32471SOL    HW215024   9.434  11.084   6.658  0.2878 -0.7899  3.3732
32472SOL     OW15025   4.307   6.484   2.039 -0.0784 -1.1067 -0.0671
32472SOL    HW115026   4.315   6.569   1.994  1.1680 -1.1458  0.0528
32472SOL    HW215027   4.341   6.420   1.977 -1.6308 -1.6328 -0.4164
32473SOL     OW15028   9.086  13.735   2.660 -0.0310  0.3793 -0.0294
32473SOL    HW115029   9.154  13.692   2.609 -0.3925 -0.6996  0.3663
32473SOL    HW215030   9.100  13.704   2.750 -0.4588  0.8914  0.2208
32474SOL     OW15031  11.306   2.977   2.877 -0.3083 -0.9623  0.1202
32474SOL    HW115032  11.315   3.045   2.943 -0.6662  0.9873 -1.7451
32474SOL    HW215033  11.384   2.923   2.886  1.8260  1.8110 -0.6079
32475SOL     OW15034   5.395  11.707   4.217  0.1972  0.2356 -0.2317
32475SOL    HW115035   5.471  11.765   4.220  0.7253 -0.4668  0.6091
32475SOL    HW215036   5.403  11.654   4.297 -1.1655  0.1348 -0.1494
32476SOL     OW15037   3.825   8.409  11.803  0.0777 -0.2530  0.4044
32476SOL    HW115038   3.840   8.339  11.866 -1.6051  0.5313  1.7307
32476SOL    HW215039   3.809   8.487  11.856  0.9058  0.9479 -1.0335
32477SOL     OW15040   5.464   5.701   6.384  0.3672 -0.4414 -0.4028
32477SOL    HW115041   5.393   5.765   6.395 -0.9862 -1.7421 -1.1863
32477SOL    HW215042   5.421   5.616   6.389  1.5542 -1.2792 -2.6890
32478SOL     OW15043  11.779   7.639   5.872 -0.3253 -0.1469 -0.0599
32478SOL    HW115044  11.776   7.701   5.799 -2.5502 -0.3243 -0.1920
32478SOL    HW215045  11.813   7.558   5.832 -1.3455 -0.1902 -0.8928
32479SOL     OW15046   9.236   5.998   7.162  0.2130  0.4231 -0.4843
32479SOL    HW115047   9.209   6.090   7.159  3.5804  1.5481  0.2186
32479SOL    HW215048   9.329   5.999   7.139  0.0161 -3.0578 -2.0892
32480SOL     OW15049  13.852  11.706  12.872 -0.0180 -0.3085 -0.2428
32480SOL    HW115050  13.895  11.685  12.954 -1.2466  0.7917  0.7266
32480SOL    HW215051  13.789  11.635  12.858 -0.7152  0.1542  0.4619
32481SOL     OW15052   7.326  10.396  10.382 -0.0447  0.1438  0.0687
32481SOL    HW115053   7.234  10.413  10.403 -0.2189  0.0075 -0.5570
32481SOL    HW215054   7.330  10.301  10.369  0.4345 -0.0116  1.2537
32482SOL     OW15055   6.182   1.113  10.241 -0.1750 -0.1416 -0.5972
32482SOL    HW115056   6.121   1.077  10.305 -1.0622 -0.6387 -1.6772
32482SOL    HW215057   6.265   1.123  10.289 -1.0267  0.3247  0.8302
32483SOL     OW15058   9.018   8.720   2.339 -0.2707 -0.2746 -0.0367
32483SOL    HW115059   8.953   8.771   2.387  0.3077  0.7010 -0.2584
32483SOL    HW215060   8.967   8.656   2.290 -0.9833 -0.2179  0.6174
32484SOL     OW15061  12.753  13.853   1.184 -0.3782  0.0256 -0.0114
32484SOL    HW115062  12.698  13.797   1.128 -0.6316  0.9249 -0.6862
32484SOL    HW215063  12.836  13.859   1.137 -0.8339  1.3750 -0.6808
32485SOL     OW15064  10.167  10.446   8.865  0.4517 -0.4484 -1.1542
32485SOL    HW115065  10.218  10.523   8.890 -2.6619  1.1541  1.0165
32485SOL    HW215066  10.114  10.476   8.790 -0.0380 -0.8051 -0.9541
32486SOL     OW15067   5.093   4.420   4.206 -0.5368 -0.0821 -0.6988
32486SOL    HW115068   5.167   4.367   4.237 -1.1609  0.6019  2.3226
32486SOL    HW215069   5.069   4.474   4.281 -2.2203  1.9243 -2.5277
32487SOL     OW15070   4.683   9.541   6.670 -0.3217  0.1170  0.2873
32487SOL    HW115071   4.614   9.494   6.624  0.7188 -1.8019  0.5959
32487SOL    HW215072   4.748   9.474   6.691  1.6342  1.8354  0.0341
32488SOL     OW15073   5.355  13.073   3.584  0.1461  0.0555 -0.3248
32488SOL    HW115074   5.385  12.986   3.610 -2.1678 -1.0460 -1.0288
32488SOL    HW215075   5.279  13.090   3.640  0.0110  1.2254 -0.8229
32489SOL     OW15076  11.201   4.762  11.351  0.0086 -0.3304  0.0585
32489SOL    HW115077  11.237   4.780  11.438 -1.3504 -0.3944  0.6631
32489SOL    HW215078  11.138   4.832  11.335 -1.2589 -1.4355  0.0373
32490SOL     OW15079  10.635  10.466   8.059  0.1306 -0.3765  0.5991
32490SOL    HW115080  10.575  10.539   8.043  0.1000 -0.3252  0.9405
32490SOL    HW215081  10.723  10.505   8.054  0.1179 -0.3405  0.6527
32491SOL     OW15082   0.107  13.262   7.839  0.5099  0.0854 -0.1364
32491SOL    HW115083   0.132  13.172   7.819 -0.3850 -0.1814 -0.1198
32491SOL    HW215084   0.175  13.316   7.799  0.4570 -0.5541 -1.1073
32492SOL     OW15085   3.775  11.213   8.338 -0.4997  0.0742 -0.0591
32492SOL    HW115086   3.790  11.255   8.423  1.7072 -0.3720 -0.1701
32492SOL    HW215087   3.704  11.151   8.355 -0.4720  0.3749  1.3278
32493SOL     OW15088  11.101   8.421  12.897  0.0565  0.2688 -0.0445
32493SOL    HW115089  11.067   8.419  12.808  0.8709 -1.0948 -0.3576
32493SOL    HW215090  11.115   8.514  12.916  0.5736  0.5360 -1.6096
32494SOL     OW15091  14.075  12.144   7.251  0.1673  0.2947 -0.2546
32494SOL    HW115092  14.100  12.203   7.180 -0.3679  0.9725  0.1121
32494SOL    HW215093  14.128  12.173   7.325 -1.8186  1.9404  0.6181
32495SOL     OW15094   8.108   5.287   2.988 -0.1084  0.4721  0.5517
32495SOL    HW115095   8.038   5.312   2.927 -0.1569 -0.2696  0.2868
32495SOL    HW215096   8.137   5.369   3.027  0.5942  1.0975 -1.1995
32496SOL     OW15097  11.014  13.637   6.359 -0.9666 -0.0990  0.5049
32496SOL    HW115098  10.919  13.642   6.358 -1.1011 -2.0171 -0.0558
32496SOL    HW215099  11.038  13.615   6.269 -0.1738 -1.6498  1.0551
32497SOL     OW15100  11.199   8.639   6.048 -0.2887  0.5536  0.6376
32497SOL    HW115101  11.250   8.563   6.076  1.6406  1.2561 -0.7456
32497SOL    HW215102  11.201   8.698   6.123  0.1360  0.1724  0.9270
32498SOL     OW15103   3.657   2.090   9.115  0.2078  0.1344  0.3199
32498SOL    HW115104   3.562   2.098   9.118  0.0696 -1.1617 -0.1294
32498SOL    HW215105   3.684   2.089   9.207 -0.1263  1.2287  0.4447
32499SOL     OW15106   0.870   4.093  10.452 -0.0852 -0.3652 -0.3945
32499SOL    HW115107   0.943   4.047  10.411  0.5303  1.2193 -1.1750
32499SOL    HW215108   0.792   4.057  10.409  0.5028  0.7424 -2.5348
32500SOL     OW15109   5.332  11.225   9.476 -0.5786 -0.7593 -0.0901
32500SOL    HW115110   5.400  11.171   9.516  1.2188  1.6619  0.3173
32500SOL    HW215111   5.286  11.264   9.550  0.3933  0.8907 -0.3077
32501SOL     OW15112  13.981   9.223   2.227  0.2718 -0.0070  0.4552
32501SOL    HW115113  13.889   9.200   2.213 -0.0634 -0.4823  2.9955
32501SOL    HW215114  13.996   9.300   2.172 -2.2553  1.3607  1.5598
32502SOL     OW15115  11.634  13.307  13.206  0.2028  0.2659 -0.0456
32502SOL    HW115116  11.653  13.321  13.113 -0.4631  1.5842 -0.0224
32502SOL    HW215117  11.652  13.392  13.246 -2.2655  0.5856  0.5301
32503SOL     OW15118   7.668   3.969   4.095  0.1030  0.1749  0.2681
32503SOL    HW115119   7.743   3.910   4.106 -2.0555 -2.6195  1.1662
32503SOL    HW215120   7.657   4.010   4.181 -0.8898 -1.4071  0.9306
32504SOL     OW15121   0.754   0.678  10.399 -0.1884 -0.0783 -0.2003
32504SOL    HW115122   0.739   0.659  10.307  0.1657  0.4243 -0.3625
32504SOL    HW215123   0.787   0.767  10.401  0.1508 -0.2066  0.3831
32505SOL     OW15124  11.822   6.525  11.119 -0.1176  0.2946 -0.0492
32505SOL    HW115125  11.847   6.597  11.176  0.6565  1.7335 -2.0651
32505SOL    HW215126  11.826   6.562  11.031 -3.5879 -1.0808 -0.9632
32506SOL     OW15127   0.527  13.023   4.526  0.1139 -0.0886 -0.7113
32506SOL    HW115128   0.590  13.059   4.589 -1.6725  2.3491 -0.1790
32506SOL    HW215129   0.465  12.973   4.580  0.2464 -0.4880 -0.9282
32507SOL     OW15130   0.674   7.658  13.046 -0.2392 -0.2741  0.3620
32507SOL    HW115131   0.588   7.629  13.075 -1.8886  2.3602 -1.3559
32507SOL    HW215132   0.702   7.722  13.112  0.1486 -0.7086  0.6240
32508SOL     OW15133  10.978   0.705  13.303  0.6250  0.0731  0.9959
32508SOL    HW115134  10.935   0.619  13.301  0.0110  0.3649  1.4207
32508SOL    HW215135  10.926   0.759  13.243  2.9941 -0.7192 -2.0302
32509SOL     OW15136  12.841   2.577   5.836  0.1103  0.0912  0.5344
32509SOL    HW115137  12.830   2.663   5.794 -0.9609 -1.5277 -2.8222
32509SOL    HW215138  12.753   2.555   5.867  0.1957 -0.1925  0.5726
32510SOL     OW15139   4.741  11.001   7.131 -0.1355  0.0006 -0.1019
32510SOL    HW115140   4.678  11.067   7.102 -0.1954 -0.1540 -0.3292
32510SOL    HW215141   4.823  11.049   7.139 -0.1806  0.1077 -0.2565
32511SOL     OW15142   4.594   2.682   2.786  0.2104 -0.1092  0.2360
32511SOL    HW115143   4.593   2.592   2.818 -0.4007 -0.3317 -0.3762
32511SOL    HW215144   4.501   2.708   2.783  0.4174  0.7777  1.0423
32512SOL     OW15145  12.075   7.700   9.459  0.2787  0.7269 -0.0848
32512SOL    HW115146  12.070   7.638   9.387 -0.2164  1.5443 -0.7855
32512SOL    HW215147  12.140   7.764   9.431  0.8075  0.5122  0.6371
32513SOL     OW15148   3.471   4.701   4.587  0.7485  0.2893  0.3541
32513SOL    HW115149   3.501   4.792   4.578  1.3687  0.0308 -0.3243
32513SOL    HW215150   3.399   4.705   4.649  2.7387  0.8437  2.7895
32514SOL     OW15151  12.309   1.967   9.971  0.3838 -0.1173  0.5837
32514SOL    HW115152  12.359   1.969  10.053  0.6079 -0.1489  0.4508
32514SOL    HW215153  12.319   1.877   9.939  0.3444 -0.0904  0.4943
32515SOL     OW15154   2.518   2.305   3.246  0.5256 -0.2954  0.4767
32515SOL    HW115155   2.497   2.357   3.323  0.7044 -0.5955  0.7343
32515SOL    HW215156   2.567   2.365   3.189  2.0593 -0.5859  1.4326
32516SOL     OW15157   7.654  13.891  10.820 -0.0784  0.5167 -0.6016
32516SOL    HW115158   7.656  13.796  10.804 -1.1543  0.2553  0.6873
32516SOL    HW215159   7.718  13.905  10.889 -0.2893  0.6362 -0.4269
32517SOL     OW15160  13.913   9.576   6.099 -0.1845 -0.2219  0.4915
32517SOL    HW115161  13.818   9.569   6.094 -0.0507 -1.5845 -1.1655
32517SOL    HW215162  13.942   9.568   6.008  1.5870 -1.2775  1.1120
32518SOL     OW15163   7.065   4.302   1.818  0.7212  0.8336  0.6961
32518SOL    HW115164   7.141   4.250   1.793 -1.7150 -2.4731 -0.6029
32518SOL    HW215165   7.056   4.289   1.912  0.7933 -0.2118  0.5681
32519SOL     OW15166   6.736   2.166   0.673  0.1745  0.5342 -0.0885
32519SOL    HW115167   6.716   2.249   0.628  1.6221  0.9190 -0.0879
32519SOL    HW215168   6.699   2.099   0.616 -1.3691  1.1814  0.1067
32520SOL     OW15169  11.516   9.414  10.730  0.1121 -0.3226  0.2159
32520SOL    HW115170  11.551   9.477  10.667  0.0334 -0.7948 -0.3055
32520SOL    HW215171  11.437   9.456  10.764  0.5961  0.2873  0.6142
32521SOL     OW15172   0.154   3.928   8.868 -0.2429  0.1216  0.7052
32521SOL    HW115173   0.161   4.019   8.896 -1.7966 -0.3117  2.7905
32521SOL    HW215174   0.240   3.907   8.832  0.4941  2.0789  1.2064
32522SOL     OW15175  12.744   4.216  10.981  0.5346 -0.2958  0.5392
32522SOL    HW115176  12.655   4.185  10.963  0.2598 -0.1741  1.6164
32522SOL    HW215177  12.738   4.311  10.977  0.3966 -0.2532  1.5234
32523SOL     OW15178   3.135   2.376  12.275  0.2039 -0.6247 -0.3896
32523SOL    HW115179   3.129   2.362  12.370 -1.7264 -0.6191 -0.4685
32523SOL    HW215180   3.099   2.464  12.262 -1.3109 -1.3338 -1.2729
32524SOL     OW15181   5.014  11.041   9.097  0.2620 -0.3585 -0.4449
32524SOL    HW115182   5.090  11.085   9.135  0.2446 -2.2989  2.1732
32524SOL    HW215183   5.032  10.948   9.111 -2.3196 -0.8912 -0.2518
32525SOL     OW15184   6.108   8.821   2.081  0.5131 -0.2926 -0.4642
32525SOL    HW115185   6.039   8.844   2.020  3.0266 -0.1066 -3.5064
32525SOL    HW215186   6.138   8.734   2.052  3.4648  0.8934 -1.3089
32526SOL     OW15187   7.305   4.851   7.072  0.2640 -0.6057  0.2801
32526SOL    HW115188   7.225   4.833   7.121  0.0498 -0.6494 -0.0830
32526SOL    HW215189   7.374   4.807   7.122  0.1855  0.0831  1.0338
32527SOL     OW15190   0.156   9.131   9.180  0.0091 -0.3597 -0.1607
32527SOL    HW115191   0.188   9.220   9.194  0.8820 -0.3582 -1.8926
32527SOL    HW215192   0.179   9.084   9.260 -0.0050  0.8431  0.5648
32528SOL     OW15193   0.152   3.586   7.516  0.4887 -0.1157 -0.2028
32528SOL    HW115194   0.069   3.569   7.560  1.4229 -0.3983  1.5510
32528SOL    HW215195   0.132   3.578   7.423 -0.9962 -2.3763  0.2196
32529SOL     OW15196  11.129   1.189   6.747  0.2032  0.0116 -0.0358
32529SOL    HW115197  11.141   1.135   6.670  1.1741  1.0143 -0.6164
32529SOL    HW215198  11.059   1.251   6.723  0.5069  0.3260 -0.1153
32530SOL     OW15199   6.466   2.330  10.849 -0.1691 -0.6182 -0.4110
32530SOL    HW115200   6.471   2.235  10.842 -0.1510 -0.5024 -2.3774
32530SOL    HW215201   6.381   2.353  10.812  0.9242  0.3037 -2.5047
32531SOL     OW15202   6.841   9.003   3.408 -0.1201 -0.2457 -0.0555
32531SOL    HW115203   6.843   8.949   3.329  0.6179 -1.9821  1.0810
32531SOL    HW215204   6.933   9.010   3.435 -0.5258 -2.6663  2.4741
32532SOL     OW15205   4.749   9.076   5.656  0.1261 -0.1937  0.3732
32532SOL    HW115206   4.786   8.989   5.642 -0.5384 -1.0364  3.1509
32532SOL    HW215207   4.686   9.064   5.728 -0.2647  2.5199  0.5988
32533SOL     OW15208   8.138  10.553   6.372 -0.6941  0.4121  0.0601
32533SOL    HW115209   8.136  10.469   6.326  0.2056  0.9100 -0.9410
32533SOL    HW215210   8.201  10.606   6.323 -1.3766  1.7376  0.5511
32534SOL     OW15211   3.940   2.699   3.880 -0.9369  0.0019 -0.1145
32534SOL    HW115212   3.853   2.707   3.841 -0.9162  1.1086  0.0146
32534SOL    HW215213   3.930   2.737   3.968 -0.4209 -0.2340  0.0515
32535SOL     OW15214   8.552   0.441   1.403 -0.0848 -0.2460  0.4130
32535SOL    HW115215   8.460   0.415   1.412 -0.1563  0.0964  0.6912
32535SOL    HW215216   8.592   0.415   1.486 -0.0790  0.2120  0.5547
32536SOL     OW15217  13.982   9.306   9.068 -0.7112  0.1869 -0.3456
32536SOL    HW115218  14.058   9.343   9.112 -0.8261 -0.0198  0.0363
32536SOL    HW215219  14.017   9.264   8.990 -0.5688  1.0351 -0.7532
32537SOL     OW15220   2.482   0.588  11.652 -0.0078  0.9422 -0.2556
32537SOL    HW115221   2.523   0.518  11.703 -1.1016  0.6165  0.2021
32537SOL    HW215222   2.418   0.544  11.596  0.6537  1.3792 -1.3900
32538SOL     OW15223  10.274  12.967   3.702 -0.5762  0.3513  0.3065
32538SOL    HW115224  10.201  12.938   3.756  1.1051  0.0509  2.5732
32538SOL    HW215225  10.296  12.890   3.648 -0.7536 -0.1782  0.9763
32539SOL     OW15226   1.789  11.001  10.619  0.5748  0.2489 -0.0328
32539SOL    HW115227   1.706  11.042  10.593 -0.5270 -1.2548  0.9072
32539SOL    HW215228   1.847  11.074  10.639 -0.7760  1.3444  0.0420
32540SOL     OW15229   9.809   5.568   3.943 -0.5812 -0.1769  0.6461
32540SOL    HW115230   9.715   5.578   3.926 -0.6922 -0.8394  0.8626
32540SOL    HW215231   9.818   5.585   4.037 -0.3842  0.5539  0.5010
32541SOL     OW15232   6.968   1.630   9.468 -0.9427  0.0765  0.0872
32541SOL    HW115233   6.989   1.722   9.458 -1.1076 -0.0728 -2.3093
32541SOL    HW215234   6.919   1.624   9.550 -0.7260  2.0649  0.3931
32542SOL     OW15235  12.469   1.287   7.773  0.2120  0.8335 -0.0721
32542SOL    HW115236  12.538   1.293   7.839  0.4353  1.9245 -0.3933
32542SOL    HW215237  12.414   1.364   7.788 -0.0928  0.7615 -0.7644
32543SOL     OW15238   6.994  11.213  11.702 -0.3829 -0.4885  0.3785
32543SOL    HW115239   6.978  11.163  11.622 -2.6927 -1.1217  1.1645
32543SOL    HW215240   6.994  11.147  11.771 -0.1619  0.2609  1.1033
32544SOL     OW15241   3.049   3.658   4.212 -0.4811  0.1879 -0.1581
32544SOL    HW115242   3.118   3.659   4.145 -0.9164  1.2640 -0.6045
32544SOL    HW215243   2.967   3.659   4.162 -0.8328  2.4909  0.3400
32545SOL     OW15244  14.035  10.725   7.138 -0.6384  0.7745 -0.4826
32545SOL    HW115245  14.081  10.682   7.065  0.0752 -0.3027  0.5689
32545SOL    HW215246  13.944  10.698   7.129 -0.1613 -1.2806  0.3213
32546SOL     OW15247   0.711   5.651   4.510  0.6523 -0.4448 -0.0233
32546SOL    HW115248   0.661   5.570   4.521  0.4329 -0.3637 -0.4098
32546SOL    HW215249   0.720   5.661   4.415 -1.1066  1.0628 -0.1027
32547SOL     OW15250   3.087   5.066   1.360  0.4548 -0.0231 -0.1718
32547SOL    HW115251   3.144   4.992   1.379  0.1329 -0.9383 -2.4770
32547SOL    HW215252   3.140   5.123   1.305 -0.4654 -0.3478 -1.4286
32548SOL     OW15253   3.061  11.277   3.447 -0.8598 -0.0467  0.0701
32548SOL    HW115254   2.996  11.343   3.474  0.9611  1.8611  0.1007
32548SOL    HW215255   3.096  11.243   3.529 -0.2480  0.6157  0.0968
32549SOL     OW15256  13.173  12.463   5.946  0.4635 -0.1423 -0.3097
32549SOL    HW115257  13.109  12.526   5.914 -1.9507 -0.8798  2.6075
32549SOL    HW215258  13.231  12.514   6.003 -0.2824 -0.1610  0.4933
32550SOL     OW15259   9.067  12.993   4.966 -0.6884  0.4370 -0.3100
32550SOL    HW115260   8.996  13.041   5.009 -0.9875  0.2460 -0.5910
32550SOL    HW215261   9.042  12.901   4.972 -0.0829  0.2987  0.2822
32551SOL     OW15262   0.034   7.139  11.390 -0.1268  0.0853 -0.0590
32551SOL    HW115263   0.046   7.128  11.484 -0.0159 -0.5258 -0.1382
32551SOL    HW215264   0.092   7.073  11.350  0.0219  0.5107 -0.5596
32552SOL     OW15265  10.686   9.370   8.001 -0.0491  0.4712  0.0196
32552SOL    HW115266  10.615   9.307   7.995 -0.3511  0.8233 -0.1954
32552SOL    HW215267  10.684   9.416   7.916 -0.6645  1.6351  0.6327
32553SOL     OW15268   7.356  13.226  10.987 -0.3153  0.1234 -0.0227
32553SOL    HW115269   7.326  13.295  11.046 -1.4787 -1.7353  1.6759
32553SOL    HW215270   7.430  13.185  11.032 -0.2209 -0.3343 -0.5712
32554SOL     OW15271   5.327   2.757  12.235  0.3125  0.1898 -0.4560
32554SOL    HW115272   5.379   2.687  12.273  0.0979  1.1578  1.7367
32554SOL    HW215273   5.341   2.749  12.141  3.2464 -0.4735 -0.0379
32555SOL     OW15274   3.741   0.441   2.193  0.6438  0.2984  0.2974
32555SOL    HW115275   3.743   0.489   2.276 -0.5594  0.3144  0.3394
32555SOL    HW215276   3.782   0.357   2.213 -0.1683  0.0656  1.0927
32556SOL     OW15277   0.458   1.252   3.685  0.3837 -0.5686 -0.4670
32556SOL    HW115278   0.531   1.312   3.700 -0.1413  0.4301 -1.7151
32556SOL    HW215279   0.394   1.275   3.753  0.1211  0.4146 -1.0283
32557SOL     OW15280  13.784  11.093   2.953 -0.2332 -0.1801 -0.2713
32557SOL    HW115281  13.693  11.123   2.945  0.0869  0.5145 -1.4328
32557SOL    HW215282  13.833  11.148   2.893  0.7168 -1.6506 -0.8915
32558SOL     OW15283   0.111   8.338  12.447  0.0460  0.1310  0.3357
32558SOL    HW115284   0.050   8.402  12.484 -0.1857 -0.8499  1.7251
32558SOL    HW215285   0.094   8.258  12.496  2.6890 -0.0970  1.0027
32559SOL     OW15286  13.056   8.056   4.368  0.4246 -0.3271  0.3820
32559SOL    HW115287  13.040   8.115   4.442  1.0076 -0.8801  0.9526
32559SOL    HW215288  12.985   7.993   4.372  0.1789 -0.0719  0.1670
32560SOL     OW15289  11.515   4.413   9.340 -0.5018  0.3862  0.5782
32560SOL    HW115290  11.588   4.469   9.367 -0.5643  0.6059  0.2936
32560SOL    HW215291  11.437   4.466   9.355 -0.6128  0.1015  1.0080
32561SOL     OW15292  14.017   0.228  13.638 -0.1392 -0.5021  0.4525
32561SOL    HW115293  14.027   0.134  13.654 -0.5452 -0.9715 -1.6435
32561SOL    HW215294  14.093   0.268  13.679  1.0947 -1.9895 -0.2500
32562SOL     OW15295   1.686   4.017   9.536 -0.0566 -0.1127  0.2561
32562SOL    HW115296   1.692   4.086   9.470  0.4508  0.7167  1.1382
32562SOL    HW215297   1.775   4.011   9.572  0.1956 -1.9964 -0.5375
32563SOL     OW15298   1.038  12.376   6.979 -0.7255 -0.2591 -0.6595
32563SOL    HW115299   1.014  12.467   6.997 -1.7902 -0.0268 -2.9033
32563SOL    HW215300   0.954  12.331   6.968 -0.1993 -1.3137 -0.5178
32564SOL     OW15301   6.974   8.200   2.019  0.6831  0.0367  0.1248
32564SOL    HW115302   7.023   8.281   2.004  1.6515 -0.2515  1.4782
32564SOL    HW215303   6.984   8.184   2.113 -2.1153 -0.0085  0.4752
32565SOL     OW15304   3.345  10.860  12.314  0.4996 -0.2869 -0.1391
32565SOL    HW115305   3.273  10.847  12.252  0.0795 -1.6281  0.6023
32565SOL    HW215306   3.357  10.775  12.355  2.1260  0.0716  0.1844
32566SOL     OW15307   4.745  13.008   6.792  0.7461  0.6087  1.4455
32566SOL    HW115308   4.690  13.086   6.789  0.1889  0.1977 -0.6941
32566SOL    HW215309   4.698  12.943   6.740  3.0014  0.0824 -0.0897
32567SOL     OW15310  13.258   8.390  13.758 -0.2375 -0.0339 -0.4996
32567SOL    HW115311  13.222   8.354  13.677  1.5571 -0.4934 -1.1493
32567SOL    HW215312  13.257   8.316  13.820 -1.9177  0.4044  0.0460
32568SOL     OW15313   0.378   2.527   6.919 -0.1643  0.5864 -0.0356
32568SOL    HW115314   0.364   2.528   6.824  1.8314 -0.8321 -0.4265
32568SOL    HW215315   0.330   2.449   6.949  0.1802  0.3545 -0.0817
32569SOL     OW15316   1.654  12.085   9.599 -0.1405 -0.3190  0.4606
32569SOL    HW115317   1.702  12.003   9.585 -0.3843 -0.5174  0.7775
32569SOL    HW215318   1.573  12.075   9.550  1.1426  0.9739 -2.0980
32570SOL     OW15319   4.296   6.624   0.803 -0.0140  0.2114  0.0911
32570SOL    HW115320   4.380   6.628   0.757  0.5848 -0.2780  1.1067
32570SOL    HW215321   4.320   6.625   0.896 -1.2152  2.2784  0.4490
32571SOL     OW15322   2.841  13.779   9.194 -0.3863  0.0416 -0.0881
32571SOL    HW115323   2.839  13.871   9.219 -1.3097  0.0252 -0.0690
32571SOL    HW215324   2.930  13.765   9.160 -0.5269  1.1625 -0.9536
32572SOL     OW15325   3.185   8.870   3.946 -0.1364 -0.2404  0.1286
32572SOL    HW115326   3.113   8.857   3.884 -0.1582  0.1432  0.0719
32572SOL    HW215327   3.183   8.963   3.965  1.0232 -0.0364 -0.6886
32573SOL     OW15328   6.089   5.763   0.586  0.7344  0.2759  0.5443
32573SOL    HW115329   6.151   5.703   0.544  1.5220  2.0221 -0.9314
32573SOL    HW215330   6.067   5.721   0.669  0.0692 -2.7700 -1.0262
32574SOL     OW15331   7.084   1.726  12.921  0.7032 -0.1795  0.2342
32574SOL    HW115332   7.119   1.774  12.846 -1.3116  0.6944 -0.2182
32574SOL    HW215333   7.043   1.649  12.882  0.0453  0.0465  0.4664
32575SOL     OW15334  13.721  10.667   0.518 -1.0300 -0.8037 -0.0572
32575SOL    HW115335  13.632  10.632   0.512 -1.3871 -0.1407  1.1364
32575SOL    HW215336  13.741  10.668   0.612  0.6360 -1.8818 -0.3433
32576SOL     OW15337   1.635  12.850   8.472  0.2118  0.0180  0.7082
32576SOL    HW115338   1.621  12.921   8.409  0.3862  0.9431  1.6846
32576SOL    HW215339   1.674  12.779   8.420  0.7845  0.9285 -0.1357
32577SOL     OW15340   7.026   2.509   3.756  0.5285  0.0001  0.0188
32577SOL    HW115341   7.064   2.487   3.841 -0.8234  0.8340  0.8774
32577SOL    HW215342   7.077   2.458   3.693  2.0085 -0.1055  1.2507
32578SOL     OW15343   8.058   2.042   8.096 -0.6802 -0.7939  0.0417
32578SOL    HW115344   8.036   2.101   8.168  1.6087 -3.1706  2.9314
32578SOL    HW215345   7.991   1.974   8.099  0.3407 -1.7995  1.1535
32579SOL     OW15346  12.793   5.041   8.142  0.1803 -0.0175  0.4383
32579SOL    HW115347  12.712   5.044   8.091  0.0746 -2.1430  0.4270
32579SOL    HW215348  12.862   5.051   8.076 -0.0110  1.0830  0.3707
32580SOL     OW15349   5.785  13.040   3.873 -0.6121  0.1136 -0.1698
32580SOL    HW115350   5.866  13.036   3.822  1.3929  0.3673  2.7679
32580SOL    HW215351   5.736  13.111   3.832 -0.2758 -1.1634 -3.1194
32581SOL     OW15352   1.611   1.624   9.682  0.5005 -0.4665  0.3723
32581SOL    HW115353   1.639   1.585   9.599  1.5424 -1.4619  1.1537
32581SOL    HW215354   1.517   1.641   9.671  0.6555 -0.4534 -1.0401
32582SOL     OW15355   5.999  12.902   4.847 -0.2371 -0.6854 -1.1042
32582SOL    HW115356   6.026  12.930   4.935  0.1192 -0.2812 -1.3373
32582SOL    HW215357   5.905  12.917   4.845 -0.4287 -1.6779 -0.4355
32583SOL     OW15358   4.218   3.563   1.827 -0.3477 -0.3136 -0.3758
32583SOL    HW115359   4.240   3.634   1.767  0.3293 -0.4532 -0.3080
32583SOL    HW215360   4.236   3.599   1.914 -0.5555 -0.3736 -0.3086
32584SOL     OW15361   1.507   7.048   2.306  0.7975 -0.2023  0.2922
32584SOL    HW115362   1.553   6.964   2.303  0.8446 -0.1576 -0.4760
32584SOL    HW215363   1.419   7.025   2.335  0.7300 -0.5622 -0.1758
32585SOL     OW15364   7.053  11.912   9.365 -0.1984  0.3924 -0.0182
32585SOL    HW115365   7.054  11.883   9.456 -0.5823 -0.2973 -0.2236
32585SOL    HW215366   7.007  11.996   9.367  1.1302  1.1225  0.6212
32586SOL     OW15367  13.757   1.973  10.094 -0.6342  0.1916  0.0592
32586SOL    HW115368  13.817   2.047  10.083 -1.3655  0.9199  0.8420
32586SOL    HW215369  13.815   1.898  10.108  0.1059  0.8372  0.5934
32587SOL     OW15370   3.475   3.748   9.872 -0.2168  0.4862  0.1097
32587SOL    HW115371   3.434   3.702   9.946 -0.4388 -1.1204 -0.9521
32587SOL    HW215372   3.563   3.711   9.867  0.3723  1.7984  0.5718
32588SOL     OW15373   2.981   3.664   6.084 -0.5454  0.3033  0.1218
32588SOL    HW115374   3.017   3.736   6.033  1.8422  0.5299  1.9555
32588SOL    HW215375   3.000   3.586   6.031 -0.0380  0.7204 -0.3237
32589SOL     OW15376   1.912   0.961  13.346 -0.2597  0.8901 -0.3452
32589SOL    HW115377   1.997   0.974  13.303 -0.3249  0.8088 -0.4995
32589SOL    HW215378   1.849   0.960  13.274 -0.0927 -2.1301 -0.5554
32590SOL     OW15379  12.652  12.906  12.501  0.2302 -0.1621 -0.4267
32590SOL    HW115380  12.648  12.810  12.495 -0.5734 -0.5142  3.1780
32590SOL    HW215381  12.560  12.933  12.501  0.3185  0.2568  1.4547
32591SOL     OW15382   9.061   1.142   0.925  0.3744 -0.0665 -0.7037
32591SOL    HW115383   9.070   1.234   0.949 -0.1949  0.0940 -1.0691
32591SOL    HW215384   9.123   1.096   0.981  0.9110  0.5787 -0.7561
32592SOL     OW15385   9.962   0.209   5.678 -0.2745 -0.2352 -0.1050
32592SOL    HW115386  10.026   0.177   5.614  1.6423  0.2310  1.4887
32592SOL    HW215387   9.980   0.159   5.758  0.6052  2.3823  1.4673
32593SOL     OW15388   8.432   4.133   8.152 -0.5842 -0.3406 -0.0337
32593SOL    HW115389   8.354   4.121   8.205 -1.4699 -0.6528 -1.3547
32593SOL    HW215390   8.441   4.228   8.144 -0.6222 -0.2986  0.4195
32594SOL     OW15391   7.834   4.422   5.220  0.0369 -0.2598  0.1717
32594SOL    HW115392   7.821   4.338   5.176 -0.4141 -0.0996 -0.0035
32594SOL    HW215393   7.805   4.487   5.156  0.5996  0.0440  0.2198
32595SOL     OW15394  12.058  10.341   7.727  0.7439 -0.1495 -0.3775
32595SOL    HW115395  12.010  10.287   7.663  1.1074 -1.4136  0.3775
32595SOL    HW215396  12.000  10.344   7.804  1.8028 -1.6503  0.5252
32596SOL     OW15397   6.847   9.806   2.713 -0.4838 -0.0886  0.6617
32596SOL    HW115398   6.876   9.820   2.804 -0.0998 -0.4252  0.5913
32596SOL    HW215399   6.885   9.880   2.665  0.7073 -0.7980  0.4754
32597SOL     OW15400   0.428  12.506   8.745  0.5194  0.1016 -0.5164
32597SOL    HW115401   0.437  12.589   8.791  1.7311 -0.8393  1.0274
32597SOL    HW215402   0.469  12.441   8.803 -2.8601 -2.0787 -0.2622
32598SOL     OW15403  13.031   7.274  14.014 -0.3067  0.3903 -0.0945
32598SOL    HW115404  13.106   7.280  14.072 -0.3754 -1.9802  0.3327
32598SOL    HW215405  12.989   7.360  14.020  0.5121  0.7075  2.2385
32599SOL     OW15406   6.214   3.227   4.330 -0.0240 -0.8944  0.5403
32599SOL    HW115407   6.302   3.202   4.358 -0.1953 -2.3167 -0.1168
32599SOL    HW215408   6.158   3.202   4.402  0.0427 -0.4557  0.7480
32600SOL     OW15409   6.470   2.246   7.462  0.3603 -0.1241  0.8639
32600SOL    HW115410   6.426   2.326   7.433 -1.0924 -1.1910 -0.0075
32600SOL    HW215411   6.399   2.186   7.485  1.3760 -1.4766  0.6131
32601SOL     OW15412  10.583   9.904   5.513 -0.5245  0.0854  0.3093
32601SOL    HW115413  10.571   9.990   5.474  0.5569 -0.0304 -0.3408
32601SOL    HW215414  10.508   9.853   5.483 -0.4724  0.4245 -0.4208
32602SOL     OW15415  13.034   0.396   2.423  0.3086 -0.2411 -0.1705
32602SOL    HW115416  13.086   0.404   2.343 -0.0129 -0.4486 -0.4048
32602SOL    HW215417  12.989   0.481   2.431  2.3105  0.7730  1.2144
32603SOL     OW15418   3.106  11.286   4.544 -0.8189 -0.3481 -0.2823
32603SOL    HW115419   3.064  11.274   4.629 -2.1106  0.8930 -0.6944
32603SOL    HW215420   3.200  11.277   4.562 -1.0274  0.3750  1.3810
32604SOL     OW15421  11.972   9.879   2.801 -0.5230  0.3103 -0.1034
32604SOL    HW115422  11.885   9.851   2.771 -1.3144  2.1953  0.2901
32604SOL    HW215423  12.016   9.910   2.722 -1.1478  1.6335  0.0478
32605SOL     OW15424  13.372   7.339   8.551  0.5662  0.3141 -0.2564
32605SOL    HW115425  13.405   7.376   8.469  0.6105 -0.2987 -0.5183
32605SOL    HW215426  13.450   7.311   8.598  0.4687 -0.6534 -0.6450
32606SOL     OW15427   9.808   3.383   6.935 -0.8375  0.7132 -0.4387
32606SOL    HW115428   9.714   3.372   6.917 -0.9073 -0.3059  0.4226
32606SOL    HW215429   9.815   3.374   7.030  0.0539  1.4574 -0.4231
32607SOL     OW15430  11.821   6.224   8.362  0.2803 -0.4309 -0.6154
32607SOL    HW115431  11.771   6.196   8.439 -0.4903 -0.1029 -0.9881
32607SOL    HW215432  11.902   6.260   8.398  0.8355 -2.1261 -0.0644
32608SOL     OW15433   2.128   4.887   2.642 -0.4355  0.2086 -0.1221
32608SOL    HW115434   2.176   4.806   2.622 -1.4012 -0.6879  1.0329
32608SOL    HW215435   2.140   4.941   2.564  0.3886 -0.9653 -0.8565
32609SOL     OW15436   1.575   3.131  13.986 -0.0532  0.3691 -0.0665
32609SOL    HW115437   1.578   3.211  14.039  1.1715  0.1206  0.2733
32609SOL    HW215438   1.576   3.060  14.050  1.1592  0.0673 -0.3806
32610SOL     OW15439  13.000   3.541   9.701  0.2951 -0.0567  0.0467
32610SOL    HW115440  13.078   3.517   9.751  1.1942 -0.9417 -1.6812
32610SOL    HW215441  12.957   3.458   9.681  0.4818  0.1752 -1.4357
32611SOL     OW15442  13.103   7.144   5.881  0.3412 -0.2867 -0.4876
32611SOL    HW115443  13.119   7.221   5.936  1.4852 -0.6072 -0.3552
32611SOL    HW215444  13.120   7.069   5.938  0.9970 -0.6231 -1.1085
32612SOL     OW15445   9.396   4.910   3.875 -0.3809 -0.2450 -0.2529
32612SOL    HW115446   9.446   4.990   3.862 -0.7455  0.5075  2.4411
32612SOL    HW215447   9.453   4.841   3.840  0.1994  1.0627 -2.0668
32613SOL     OW15448   7.232   1.872   6.012  0.1388  0.5108 -0.3771
32613SOL    HW115449   7.242   1.804   5.945 -0.5486  1.1676 -1.1565
32613SOL    HW215450   7.138   1.890   6.014  0.4233  2.1603 -0.9063
32614SOL     OW15451   0.837  13.412   9.815 -0.2841  0.4398 -0.3794
32614SOL    HW115452   0.931  13.406   9.799 -0.3524  1.1063 -1.1062
32614SOL    HW215453   0.822  13.505   9.833 -0.8037  0.3321 -0.2487
32615SOL     OW15454   8.670   5.104  12.973 -0.1365 -0.5887  0.7303
32615SOL    HW115455   8.686   5.183  12.920  0.7425 -0.0092  1.8189
32615SOL    HW215456   8.679   5.032  12.910  0.2328  0.1106 -0.0524
32616SOL     OW15457  11.600  13.050  13.248  0.2952 -0.1632  0.0558
32616SOL    HW115458  11.611  13.144  13.235  0.4007 -0.1042  0.5542
32616SOL    HW215459  11.541  13.043  13.323  0.5938 -0.4919  0.2610
32617SOL     OW15460   4.670   1.275   7.026 -0.9303  0.3477 -0.0714
32617SOL    HW115461   4.631   1.188   7.014 -2.3154  0.9811 -0.3172
32617SOL    HW215462   4.646   1.300   7.116  1.4988 -0.4817  0.8937
32618SOL     OW15463   9.239   9.014   4.070  0.5362 -0.0879 -0.4011
32618SOL    HW115464   9.208   9.079   4.007  1.2757 -0.3261 -1.0277
32618SOL    HW215465   9.319   8.979   4.031  1.3465  0.1889  0.9388
32619SOL     OW15466   7.326   3.462   4.629 -0.2653  0.5603  0.0380
32619SOL    HW115467   7.287   3.549   4.618 -1.6207  0.1320  1.2255
32619SOL    HW215468   7.305   3.437   4.719  0.6125 -0.7618 -0.0981
32620SOL     OW15469  12.405   8.538   5.728 -0.7984  0.4150  0.0006
32620SOL    HW115470  12.379   8.446   5.739 -0.4386  0.2292 -0.6202
32620SOL    HW215471  12.335   8.577   5.676 -1.3070  0.6836  0.8636
32621SOL     OW15472   0.915   3.576  10.391  0.2259 -0.6975  0.2490
32621SOL    HW115473   0.961   3.633  10.452 -0.9253  0.9940 -0.3900
32621SOL    HW215474   0.984   3.524  10.350  1.3312  0.2947  0.7936
32622SOL     OW15475   3.346   4.767  12.025 -0.0404 -0.1690 -0.2681
32622SOL    HW115476   3.279   4.824  11.987 -0.5373 -0.9746 -0.6346
32622SOL    HW215477   3.339   4.685  11.975  0.1159 -0.8285  0.7498
32623SOL     OW15478  12.494   8.042   6.551 -0.7336 -0.0881 -0.1049
32623SOL    HW115479  12.422   7.983   6.573 -0.5649  0.1946  1.2840
32623SOL    HW215480  12.486   8.055   6.456 -0.9778 -2.0576 -0.4016
32624SOL     OW15481  12.905   7.503   0.008 -0.7167  0.1704  0.4286
32624SOL    HW115482  12.835   7.542   0.061  0.3819  0.2685  1.8599
32624SOL    HW215483  12.971   7.572   0.002  0.4641 -0.8423  1.4490
32625SOL     OW15484  10.034   1.774   7.873 -0.2603  0.4748 -0.6807
32625SOL    HW115485  10.104   1.837   7.854  1.0910 -1.0784 -0.9799
32625SOL    HW215486   9.961   1.802   7.817  0.2835  1.7909 -0.7750
32626SOL     OW15487  11.240   6.611  12.811 -0.6149  0.1228  0.3212
32626SOL    HW115488  11.252   6.667  12.734 -0.3019 -0.1638  0.1585
32626SOL    HW215489  11.292   6.652  12.879  0.7450 -0.7007 -0.1746
32627SOL     OW15490   1.075  11.679   8.161  0.3481 -0.1714  0.4395
32627SOL    HW115491   1.110  11.749   8.105  1.8700 -1.6761 -0.5927
32627SOL    HW215492   1.046  11.612   8.099 -1.9505 -0.1379  1.3715
32628SOL     OW15493  13.678  13.313   6.194 -0.5282  0.4623  0.5916
32628SOL    HW115494  13.718  13.266   6.121  0.2141  1.0129  0.6276
32628SOL    HW215495  13.734  13.292   6.269 -1.9356 -1.0317  1.2790
32629SOL     OW15496  11.408  11.151  13.592 -0.7722 -0.5576  0.1591
32629SOL    HW115497  11.409  11.246  13.603 -1.1283 -0.6045  0.5828
32629SOL    HW215498  11.452  11.137  13.508 -0.1394 -0.0613  0.3949
32630SOL     OW15499   2.175  11.449   3.794  0.0431  0.7409  0.2422
32630SOL    HW115500   2.147  11.378   3.852  0.5604 -0.2917 -0.7288
32630SOL    HW215501   2.256  11.416   3.754  0.5414  2.0706  0.1043
32631SOL     OW15502  12.224  11.225   6.429  0.0222 -0.0805  0.9345
32631SOL    HW115503  12.281  11.160   6.471  0.0227  0.1783  1.3391
32631SOL    HW215504  12.221  11.298   6.491 -1.1457 -0.2947  1.1533
32632SOL     OW15505  13.921  12.980   5.248  0.3958  0.2492  0.3273
32632SOL    HW115506  13.852  13.002   5.311 -0.8627  1.5708 -1.4470
32632SOL    HW215507  13.875  12.949   5.171  1.9180 -1.2356 -0.0619
32633SOL     OW15508   9.101  11.352   2.119 -1.1695 -0.5913 -0.4147
32633SOL    HW115509   9.046  11.415   2.071 -0.4722 -0.4119 -0.9903
32633SOL    HW215510   9.139  11.296   2.051 -1.7328 -1.6188  0.0837
32634SOL     OW15511   3.757   1.790   4.752 -0.0329 -0.0120 -0.4684
32634SOL    HW115512   3.761   1.825   4.663  0.5670 -0.9724 -0.8334
32634SOL    HW215513   3.701   1.852   4.799  1.0840  1.4853 -1.0402
32635SOL     OW15514   6.683   1.415   8.874 -0.1167  0.3079  0.5970
32635SOL    HW115515   6.626   1.341   8.898  0.0602 -0.9110 -2.3774
32635SOL    HW215516   6.762   1.402   8.927 -0.4901 -1.0511  0.8578
32636SOL     OW15517   2.908   0.405   6.379 -0.7889  0.6746 -0.1769
32636SOL    HW115518   2.879   0.388   6.289 -2.0923 -2.8589  0.7184
32636SOL    HW215519   2.828   0.434   6.424 -0.6693  0.3286  0.2637
32637SOL     OW15520   3.381   9.695   1.631 -0.7519 -0.5727 -0.1201
32637SOL    HW115521   3.369   9.605   1.600 -1.5447 -0.2829 -0.6596
32637SOL    HW215522   3.476   9.704   1.640 -0.6812 -1.5655  0.2555
32638SOL     OW15523   2.412  12.956   9.026  0.8673 -0.6556 -0.1514
32638SOL    HW115524   2.429  12.875   8.978  0.4746 -0.6067 -0.3798
32638SOL    HW215525   2.367  12.928   9.106  1.7243 -0.7569  0.3010
32639SOL     OW15526   8.454   3.365  11.448  0.0857  0.3716  0.1792
32639SOL    HW115527   8.391   3.423  11.405 -0.0197 -0.4757 -0.8523
32639SOL    HW215528   8.415   3.278  11.439  0.4430  0.0852  1.3291
32640SOL     OW15529   2.174   5.127  12.470 -0.7816 -0.1311 -0.2450
32640SOL    HW115530   2.144   5.080  12.392  0.0611 -0.7824 -0.1957
32640SOL    HW215531   2.177   5.061  12.539 -2.0125  0.5475  0.4972
32641SOL     OW15532   4.828   3.977   3.506 -0.1455 -0.0921  0.1430
32641SOL    HW115533   4.807   3.996   3.597 -0.3381 -0.1581  0.1132
32641SOL    HW215534   4.917   4.011   3.494 -0.0586 -0.2279  0.3987
32642SOL     OW15535  11.157   9.073   7.410  0.4323 -0.1240  0.5294
32642SOL    HW115536  11.102   9.084   7.332 -0.9049  0.7354  1.5345
32642SOL    HW215537  11.244   9.053   7.376 -0.4419 -1.3689 -1.1424
32643SOL     OW15538   5.527   8.543   1.053  0.0697  0.6252 -0.6383
32643SOL    HW115539   5.533   8.557   0.958 -0.1039 -0.5812 -0.8494
32643SOL    HW215540   5.454   8.598   1.081 -1.2237 -0.5223 -1.5767
32644SOL     OW15541   3.770   0.556   9.021 -0.1936  0.1937 -0.4383
32644SOL    HW115542   3.788   0.489   9.087 -2.4448  0.3486  0.4034
32644SOL    HW215543   3.777   0.639   9.068 -1.6344  0.3142 -0.4005
32645SOL     OW15544  11.338  13.924  12.940 -0.1393  0.0178 -0.1696
32645SOL    HW115545  11.323  13.871  13.018 -0.6998 -0.1707 -0.3950
32645SOL    HW215546  11.267  13.898  12.880 -0.1860  0.7363 -0.4293
32646SOL     OW15547   0.249  10.995   0.626 -0.4709 -0.1263 -0.2696
32646SOL    HW115548   0.298  11.000   0.544  1.2499  1.0246  0.7514
32646SOL    HW215549   0.289  10.922   0.674  0.1246  0.6510  0.4587
32647SOL     OW15550   0.494  10.012   3.496 -0.8342  0.0970 -0.0435
32647SOL    HW115551   0.543  10.009   3.578 -1.8048  0.9498  0.5864
32647SOL    HW215552   0.546   9.960   3.435  1.7586  2.2996  0.1063
32648SOL     OW15553   8.725   2.463   9.213  0.0781  0.6279  0.2497
32648SOL    HW115554   8.764   2.535   9.162 -1.6096 -0.0886 -2.2384
32648SOL    HW215555   8.645   2.500   9.249 -0.4418  0.2123 -0.4590
32649SOL     OW15556   6.247   7.025   8.693  0.3243 -0.9571 -0.6207
32649SOL    HW115557   6.325   6.976   8.719  0.5307 -0.5515 -0.4721
32649SOL    HW215558   6.223   7.075   8.770  0.6746 -0.0984 -1.0587
32650SOL     OW15559   8.737   4.992  13.258  0.3354  0.1698 -0.0040
32650SOL    HW115560   8.772   5.045  13.187  3.0201 -0.0890  1.0284
32650SOL    HW215561   8.657   5.038  13.284  0.6126  1.6301 -1.5305
32651SOL     OW15562   6.193   3.338  13.200  0.3265 -0.8238  0.1494
32651SOL    HW115563   6.135   3.398  13.154 -1.7265 -3.6644 -1.1812
32651SOL    HW215564   6.164   3.342  13.291 -1.0985 -1.1838 -0.2656
32652SOL     OW15565   0.839  11.735   9.686 -0.0938  0.1824 -0.4799
32652SOL    HW115566   0.821  11.749   9.593 -1.3731  0.7022 -0.1698
32652SOL    HW215567   0.859  11.642   9.693 -0.0454  0.1287 -1.2692
32653SOL     OW15568   6.516  12.743   4.281 -0.1269 -0.1358  0.0626
32653SOL    HW115569   6.532  12.649   4.270 -1.5921 -0.3227 -0.7251
32653SOL    HW215570   6.477  12.771   4.199 -0.6930  0.9506  0.6756
32654SOL     OW15571   9.480   0.133   4.182  0.6494 -0.3907  0.2838
32654SOL    HW115572   9.447   0.150   4.270  0.9574  0.7875  0.1920
32654SOL    HW215573   9.409   0.086   4.138 -0.1014  0.3094  0.7117
32655SOL     OW15574   2.170  11.843   4.324 -0.3426 -0.2149 -0.4960
32655SOL    HW115575   2.156  11.797   4.407  0.0864  1.5684  0.5948
32655SOL    HW215576   2.263  11.865   4.323 -0.6135  0.9690 -0.8050
32656SOL     OW15577   3.031   6.894   1.582 -0.1328  0.4142  0.1280
32656SOL    HW115578   3.005   6.833   1.514 -1.9458  1.8419 -0.5261
32656SOL    HW215579   2.955   6.901   1.639  1.1299 -0.2693  2.0081
32657SOL     OW15580   4.104   0.025   1.635 -0.3143 -0.3697  0.1030
32657SOL    HW115581   4.044  -0.041   1.602  0.5349 -2.0579  1.7549
32657SOL    HW215582   4.170  -0.025   1.683 -0.7109  1.7728  3.1470
32658SOL     OW15583  10.194   4.771   0.631 -0.5540 -0.4417  0.6464
32658SOL    HW115584  10.253   4.807   0.698  0.4714  0.9329 -0.9043
32658SOL    HW215585  10.238   4.791   0.548 -1.3163 -2.9193 -0.4319
32659SOL     OW15586  13.255   4.807   4.444 -0.3269 -0.9577  0.1763
32659SOL    HW115587  13.243   4.855   4.526 -0.1101 -0.7068  0.0645
32659SOL    HW215588  13.205   4.858   4.380  0.6317 -0.3662 -0.1266
32660SOL     OW15589   7.207   2.878   0.813 -0.2323  0.2074  0.7182
32660SOL    HW115590   7.290   2.886   0.766 -0.6909 -0.9805 -0.3893
32660SOL    HW215591   7.231   2.850   0.901  0.5236 -1.4791  0.0200
32661SOL     OW15592   5.778   1.651   1.576  0.1848  0.1058 -0.4793
32661SOL    HW115593   5.763   1.595   1.652  3.3380 -1.1666 -0.6118
32661SOL    HW215594   5.771   1.592   1.501  0.5751  0.5398 -0.8699
32662SOL     OW15595   6.772  13.756  10.109 -0.5431 -0.1394  0.2334
32662SOL    HW115596   6.719  13.693  10.157 -2.6528  1.3385 -0.0047
32662SOL    HW215597   6.712  13.796  10.046  1.5738 -0.3709 -2.1058
32663SOL     OW15598  13.796   5.346   5.301 -0.1520  0.2873  0.4388
32663SOL    HW115599  13.887   5.322   5.287  0.1243  1.4998  0.0735
32663SOL    HW215600  13.771   5.298   5.380  0.8560  0.0996  0.6586
32664SOL     OW15601  11.564   7.542   2.797 -0.6256 -0.6629 -0.6047
32664SOL    HW115602  11.540   7.572   2.710 -2.7858 -0.6943 -0.0977
32664SOL    HW215603  11.532   7.611   2.856 -1.3971 -1.7207  0.2673
32665SOL     OW15604   4.476   0.981   5.928  0.6390 -0.4751 -0.4904
32665SOL    HW115605   4.513   0.898   5.901  0.3236 -0.5381 -0.7397
32665SOL    HW215606   4.472   1.033   5.848 -1.9081 -1.2787 -0.9770
32666SOL     OW15607   3.461  11.414   8.561  0.0426 -0.3231  0.2818
32666SOL    HW115608   3.487  11.389   8.649 -1.2765  2.2339  1.5024
32666SOL    HW215609   3.491  11.504   8.551 -1.0292 -0.0991 -1.3724
32667SOL     OW15610   9.990  12.705   3.740 -0.0743  0.2171 -0.2943
32667SOL    HW115611  10.011  12.782   3.793  0.3504 -0.3986  0.4522
32667SOL    HW215612  10.075  12.674   3.707 -0.0728 -0.7088  0.5257
32668SOL     OW15613   3.017   0.015  13.914  0.0534  1.1149 -0.6725
32668SOL    HW115614   3.076  -0.041  13.863 -1.4844 -1.3940  0.1157
32668SOL    HW215615   3.050   0.009  14.004 -0.5831  0.8071 -0.4531
32669SOL     OW15616   7.681  12.042  12.384 -0.0911 -0.0442 -0.2127
32669SOL    HW115617   7.746  12.108  12.407  0.2447 -0.3851 -0.1770
32669SOL    HW215618   7.634  12.079  12.310 -0.5704  0.6658  0.4394
32670SOL     OW15619  13.437   7.106  13.673  0.1030 -0.0524 -0.2459
32670SOL    HW115620  13.386   7.065  13.743  0.4141  0.7487  0.4686
32670SOL    HW215621  13.528   7.090  13.698  0.2398  1.3389  0.2247
32671SOL     OW15622   2.552   4.889   1.734 -1.0341 -0.0020  0.3233
32671SOL    HW115623   2.525   4.843   1.655  0.3909 -1.8810  0.8538
32671SOL    HW215624   2.609   4.959   1.704 -0.1670 -0.9527 -0.3408
32672SOL     OW15625   2.834   7.008   9.433 -0.6920 -0.6395  0.1632
32672SOL    HW115626   2.854   6.963   9.351  0.6355  1.3029 -0.6359
32672SOL    HW215627   2.796   6.940   9.488 -0.3772 -2.3187 -1.5720
32673SOL     OW15628  13.539   1.808   3.767 -0.1699  0.3214 -0.1013
32673SOL    HW115629  13.454   1.794   3.725  0.3535 -0.2782 -0.9784
32673SOL    HW215630  13.546   1.903   3.776 -2.0416  0.3422  2.3155
32674SOL     OW15631   1.587  12.497   4.645  0.1111 -0.4319 -0.1172
32674SOL    HW115632   1.507  12.536   4.680  1.1466  0.0117  1.9119
32674SOL    HW215633   1.657  12.534   4.698  1.9102  0.5323 -2.9096
32675SOL     OW15634   0.247   6.769   9.253 -0.3574  0.6145  0.2842
32675SOL    HW115635   0.238   6.852   9.299  0.5032  1.9618 -1.8497
32675SOL    HW215636   0.325   6.729   9.291 -0.9313  0.6005  1.5113
32676SOL     OW15637   2.732  12.405   3.390 -0.2512 -0.2713 -0.2302
32676SOL    HW115638   2.647  12.385   3.352  0.2556  0.6864 -2.0184
32676SOL    HW215639   2.790  12.415   3.314  1.7067 -1.9066  0.9649
32677SOL     OW15640   4.176   3.541  10.552  0.1830 -0.1054  0.9305
32677SOL    HW115641   4.256   3.489  10.562  0.1469 -1.8727 -4.4456
32677SOL    HW215642   4.205   3.620  10.507 -0.9406 -1.2305 -2.0469
32678SOL     OW15643   0.233  13.265   5.376  0.0958  0.7231  0.2385
32678SOL    HW115644   0.148  13.238   5.342 -0.4884  1.4588  1.0760
32678SOL    HW215645   0.296  13.229   5.313 -0.8587  0.6880 -0.7354
32679SOL     OW15646   8.572   0.210  11.687 -0.3427 -0.0354  0.1827
32679SOL    HW115647   8.577   0.236  11.595  2.2950  0.0609  0.2753
32679SOL    HW215648   8.655   0.166  11.704 -1.6813 -2.1050  1.9691
32680SOL     OW15649   8.993  11.685   1.739 -0.9193 -0.6378 -0.0868
32680SOL    HW115650   9.035  11.770   1.728  0.0978 -1.3478 -2.1895
32680SOL    HW215651   8.946  11.692   1.823 -0.1148  1.6433  0.2412
32681SOL     OW15652   6.753  11.475   3.722 -0.0595  0.3540  0.1437
32681SOL    HW115653   6.712  11.427   3.650  0.0325 -0.1856  0.4445
32681SOL    HW215654   6.818  11.415   3.757 -0.5854  0.3372  1.1306
32682SOL     OW15655   3.653   4.144   9.126 -0.1703  0.3207 -0.1273
32682SOL    HW115656   3.598   4.069   9.147  0.1904 -0.0876 -0.6321
32682SOL    HW215657   3.731   4.132   9.180 -0.1483  0.3754 -0.1475
32683SOL     OW15658   8.877   6.729   4.618 -0.0091  0.1027 -0.2254
32683SOL    HW115659   8.838   6.685   4.542  3.0483 -1.4604 -1.0280
32683SOL    HW215660   8.854   6.821   4.606 -0.5591 -0.2633 -2.4510
32684SOL     OW15661   5.564  11.390   4.911  1.0343  0.2532  0.4322
32684SOL    HW115662   5.561  11.478   4.873  0.2132  0.8115  1.7218
32684SOL    HW215663   5.503  11.393   4.984 -0.6140 -1.9950 -0.6984
32685SOL     OW15664   8.828   4.385  11.291  0.7002  0.1823  0.1778
32685SOL    HW115665   8.794   4.474  11.301  0.7623  0.1749  0.4603
32685SOL    HW215666   8.848   4.377  11.198  1.0297  0.5867  0.2103
32686SOL     OW15667   8.476   6.037   3.661  0.0931  0.4573 -0.0608
32686SOL    HW115668   8.547   6.083   3.705  2.0219 -1.0158 -1.4153
32686SOL    HW215669   8.456   5.963   3.718 -0.8009  1.1772  0.5921
32687SOL     OW15670  10.895   3.160   8.002 -0.3236 -0.2795 -0.3464
32687SOL    HW115671  10.834   3.188   7.934  0.9511  2.3736 -0.4975
32687SOL    HW215672  10.979   3.199   7.978  0.5297 -0.5055  1.9600
32688SOL     OW15673   8.792   0.916   8.346 -0.5481 -0.5748  0.5178
32688SOL    HW115674   8.869   0.888   8.296 -0.3411  2.7475 -1.3967
32688SOL    HW215675   8.828   0.964   8.421 -0.6513  0.9106 -0.3338
32689SOL     OW15676  11.202  13.767   2.312 -0.0993  0.4068  0.0284
32689SOL    HW115677  11.240  13.743   2.227  0.0792  0.4999  0.0833
32689SOL    HW215678  11.213  13.862   2.317  1.9283  0.1631  1.1554
32690SOL     OW15679   1.314  11.635   2.775 -0.3006 -0.2614 -0.0723
32690SOL    HW115680   1.262  11.644   2.696  1.5631 -1.3253 -1.4943
32690SOL    HW215681   1.269  11.569   2.827  0.2360 -2.0815 -1.8385
32691SOL     OW15682   7.110   5.149   0.273  0.0305 -0.3022  0.6111
32691SOL    HW115683   7.066   5.215   0.326 -1.2209 -0.0748 -0.6409
32691SOL    HW215684   7.125   5.192   0.189 -0.2163 -1.4113 -0.0133
32692SOL     OW15685   1.673   8.402   1.826  0.3836  0.1179 -0.3556
32692SOL    HW115686   1.602   8.341   1.846 -0.0344  1.2717  1.9483
32692SOL    HW215687   1.662   8.474   1.888  1.4843  2.0671 -2.2731
32693SOL     OW15688   2.818   6.328   4.774  0.0530  0.4933  0.1019
32693SOL    HW115689   2.863   6.322   4.859  2.2790  1.4300 -0.9122
32693SOL    HW215690   2.836   6.417   4.745  0.7164 -0.2679 -2.0258
32694SOL     OW15691   2.578   1.961  12.215  0.3211  0.4462  0.2267
32694SOL    HW115692   2.576   1.939  12.308 -1.0629 -0.5152 -0.0031
32694SOL    HW215693   2.490   1.994  12.196  0.5484  0.4966 -0.7685
32695SOL     OW15694   6.591   9.016  11.240 -0.0327  0.7571 -0.6002
32695SOL    HW115695   6.626   8.950  11.300 -1.3086  0.3288 -0.2969
32695SOL    HW215696   6.661   9.030  11.176  0.4809 -0.4690 -0.3391
32696SOL     OW15697   1.374   5.703   5.946 -0.0007 -0.3630 -0.1020
32696SOL    HW115698   1.429   5.781   5.933 -0.6265  0.0103 -0.5845
32696SOL    HW215699   1.285   5.736   5.935 -0.4863 -0.5128  2.7124
32697SOL     OW15700  12.773   2.963   8.121 -0.2417 -0.0541  0.5739
32697SOL    HW115701  12.828   2.922   8.187  0.2323 -0.8827 -0.3158
32697SOL    HW215702  12.687   2.921   8.131 -0.1978 -0.1025  0.7296
32698SOL     OW15703  10.960  10.833  12.396  0.0456 -0.1144 -0.1244
32698SOL    HW115704  11.039  10.778  12.391  0.1950  0.1273 -0.4445
32698SOL    HW215705  10.971  10.882  12.478  0.7537  0.6990 -0.6843
32699SOL     OW15706  13.401   7.496   5.794  0.2452  0.0608  0.7451
32699SOL    HW115707  13.349   7.417   5.778 -0.0881  0.0345  1.9028
32699SOL    HW215708  13.372   7.527   5.879  0.7666  1.1374  0.5403
32700SOL     OW15709  10.467  14.091   6.439 -0.0063  0.4429 -0.1715
32700SOL    HW115710  10.435  14.091   6.529  0.7962 -0.0350  0.1202
32700SOL    HW215711  10.484  14.183   6.420 -1.2556  0.6816 -0.2407
32701SOL     OW15712   1.764   0.999   9.392 -0.3499  0.5199 -0.0927
32701SOL    HW115713   1.850   0.962   9.414  0.2420  1.5639 -0.5620
32701SOL    HW215714   1.729   0.941   9.325  0.8440  1.1522 -1.2958
32702SOL     OW15715   4.612   0.749   7.407  0.3913 -0.2518 -0.0178
32702SOL    HW115716   4.628   0.676   7.346  2.0409  0.4055 -0.4427
32702SOL    HW215717   4.654   0.824   7.365 -2.9037  1.4744 -0.5457
32703SOL     OW15718  10.803   2.162   8.191  0.5538 -0.8393 -0.3261
32703SOL    HW115719  10.808   2.134   8.283  1.4179 -0.3685 -0.2128
32703SOL    HW215720  10.883   2.213   8.178 -0.3710  0.5250 -0.8613
32704SOL     OW15721   4.699   4.262   4.379 -0.4203 -0.0465  0.1660
32704SOL    HW115722   4.790   4.235   4.390 -0.4842 -0.4947 -0.3958
32704SOL    HW215723   4.696   4.350   4.418  0.1614 -0.1761  0.5246
32705SOL     OW15724   1.216   7.957   1.123  0.1888  0.5619 -0.2018
32705SOL    HW115725   1.242   7.894   1.191  2.0517  0.9430 -0.4919
32705SOL    HW215726   1.194   7.902   1.047  1.5208  0.2043 -0.3627
32706SOL     OW15727   8.406  10.256   1.152 -0.0987 -0.5926  1.0967
32706SOL    HW115728   8.490  10.248   1.197 -0.1637  0.2614  1.4023
32706SOL    HW215729   8.392  10.351   1.144 -0.8930 -0.7236  0.7881
32707SOL     OW15730   0.380  12.597   1.249 -0.2017  0.0540  0.2227
32707SOL    HW115731   0.321  12.534   1.291  0.3221  0.0973  1.0480
32707SOL    HW215732   0.467  12.561   1.264  0.1164  1.0597  0.8359
32708SOL     OW15733   5.046   5.719  13.336 -0.2822 -0.1573 -0.3277
32708SOL    HW115734   5.009   5.764  13.413 -1.3636  0.9902 -1.4690
32708SOL    HW215735   4.970   5.698  13.282  0.5646  0.4322 -1.7981
32709SOL     OW15736   2.597   8.135  13.539  0.0311 -0.2300  0.1300
32709SOL    HW115737   2.678   8.099  13.505  1.2533  0.7026  1.8786
32709SOL    HW215738   2.564   8.067  13.598  0.0390 -0.2505  0.1105
32710SOL     OW15739  11.085   4.747   2.688 -0.2840  0.2138  0.5254
32710SOL    HW115740  11.157   4.772   2.631  1.2702  0.6264  2.5652
32710SOL    HW215741  11.011   4.800   2.658  0.4429  0.3668 -1.1079
32711SOL     OW15742  11.886   2.889   7.774 -0.1689  0.1863 -0.6122
32711SOL    HW115743  11.820   2.904   7.706 -0.1596  1.4385 -0.3782
32711SOL    HW215744  11.892   2.973   7.820  0.9571 -0.1683 -0.0707
32712SOL     OW15745   0.600   3.543   3.756  0.2290 -0.1531  0.2524
32712SOL    HW115746   0.646   3.474   3.804  0.6492  0.2462  0.4315
32712SOL    HW215747   0.670   3.596   3.717 -0.0752 -1.4023 -2.1725
32713SOL     OW15748   3.909  13.519   2.168 -0.3803 -0.2820  0.5463
32713SOL    HW115749   3.852  13.596   2.166  0.3811  0.2824 -0.0683
32713SOL    HW215750   3.964  13.531   2.245  0.7175  0.5442 -0.3237
32714SOL     OW15751  12.550  10.703   2.836 -0.7231 -0.5047  0.3937
32714SOL    HW115752  12.484  10.718   2.903 -1.3645  0.3736 -0.4173
32714SOL    HW215753  12.592  10.788   2.824 -0.9716 -0.5200 -0.6782
32715SOL     OW15754   6.716   5.665   1.241 -0.1483 -0.5006 -0.1800
32715SOL    HW115755   6.764   5.625   1.313 -0.3701 -2.4543 -1.0643
32715SOL    HW215756   6.755   5.628   1.162 -2.2463 -1.2416 -0.9582
32716SOL     OW15757  11.038  13.928   0.184  0.1784  0.0013  0.8692
32716SOL    HW115758  11.123  13.895   0.154 -0.1890 -0.6031  0.4729
32716SOL    HW215759  11.014  13.869   0.256  0.3023  0.4585  1.2954
32717SOL     OW15760  12.658   3.566   0.644  0.1743  0.3760  0.0254
32717SOL    HW115761  12.628   3.603   0.561  0.9138  0.1642 -0.3443
32717SOL    HW215762  12.590   3.503   0.668 -0.2453  0.7374 -0.2107
32718SOL     OW15763   0.847   2.665  12.411 -0.0279  0.2866  0.2940
32718SOL    HW115764   0.885   2.597  12.466  0.1953  1.5171  1.7278
32718SOL    HW215765   0.756   2.638  12.400  0.0555 -0.2512  0.8461
32719SOL     OW15766   2.206   7.127  11.709  0.3536  0.0833  0.2400
32719SOL    HW115767   2.277   7.148  11.648  0.1903 -0.6911 -0.2410
32719SOL    HW215768   2.210   7.031  11.717  1.9565  0.2919  3.3944
32720SOL     OW15769   0.632   2.957   5.721  0.1772  0.3203  0.1229
32720SOL    HW115770   0.631   3.015   5.645  2.0763 -1.3193 -1.2582
32720SOL    HW215771   0.721   2.962   5.756  0.0674 -0.8701  0.6534
32721SOL     OW15772   5.055  11.649   4.129  0.0325  0.0406 -0.1481
32721SOL    HW115773   5.096  11.580   4.078  1.5262  0.5622  0.2760
32721SOL    HW215774   5.061  11.618   4.220 -0.9445 -0.0741 -0.1174
32722SOL     OW15775   1.788  11.307  12.669 -0.9148 -0.1150 -0.5032
32722SOL    HW115776   1.854  11.333  12.605  0.5123 -0.3203  0.8325
32722SOL    HW215777   1.795  11.212  12.675  0.6880  0.0400  1.6210
32723SOL     OW15778   3.392  12.251   5.855  0.0753 -0.7328  0.1081
32723SOL    HW115779   3.416  12.280   5.944 -0.6138  0.6338 -0.1157
32723SOL    HW215780   3.304  12.215   5.865 -0.1651 -0.2039 -0.0826
32724SOL     OW15781  11.577  12.182   9.361 -0.7767 -0.1151  0.2859
32724SOL    HW115782  11.556  12.190   9.268  0.0643 -2.1016 -0.1238
32724SOL    HW215783  11.624  12.262   9.382  0.4617 -0.3443 -1.4346
32725SOL     OW15784  13.589   7.654   4.813  0.2299  0.2115 -0.0070
32725SOL    HW115785  13.597   7.710   4.735  2.3890 -0.1844 -0.1353
32725SOL    HW215786  13.546   7.575   4.781  1.4234 -0.1035 -0.9481
32726SOL     OW15787   0.904  11.083   5.699  0.5163 -0.2722 -0.7094
32726SOL    HW115788   0.842  11.022   5.739  0.4177  0.5676  0.4813
32726SOL    HW215789   0.927  11.144   5.769  3.1288 -0.8497 -0.9640
32727SOL     OW15790  12.603   0.046   2.391  0.0078  0.1323  0.3574
32727SOL    HW115791  12.525   0.083   2.432  0.1077  2.6997 -1.5306
32727SOL    HW215792  12.672   0.110   2.408  0.9871 -0.6857 -0.4006
32728SOL     OW15793   3.736   5.454  10.894  0.0815 -0.3924 -0.8303
32728SOL    HW115794   3.757   5.363  10.913  0.4914 -0.6255 -2.3028
32728SOL    HW215795   3.641   5.455  10.880 -0.2524 -0.1974  1.1448
32729SOL     OW15796  10.381   3.241   9.686 -0.2000  0.0792 -0.0791
32729SOL    HW115797  10.386   3.336   9.685 -3.5275  0.3906 -1.3458
32729SOL    HW215798  10.297   3.221   9.643 -0.8527 -3.3042  2.3391
32730SOL     OW15799   0.262  13.144   9.519 -0.0010 -0.2877 -0.4158
32730SOL    HW115800   0.205  13.080   9.563 -0.3505 -0.1980 -0.7410
32730SOL    HW215801   0.255  13.124   9.426  1.4907 -1.1009 -0.3946
32731SOL     OW15802  10.778  13.840   2.316 -0.4093 -0.2583  0.4720
32731SOL    HW115803  10.765  13.874   2.227 -2.2748  1.1538  1.2253
32731SOL    HW215804  10.698  13.791   2.336 -0.1636 -0.2661  1.5102
32732SOL     OW15805   3.101   7.816   3.145  0.0168  0.2393  0.2024
32732SOL    HW115806   3.186   7.788   3.180 -1.1427 -0.8515  2.3406
32732SOL    HW215807   3.119   7.900   3.103  2.1633 -0.0278  0.4804
32733SOL     OW15808   4.301   1.608  13.275  0.0343 -0.3739 -1.0551
32733SOL    HW115809   4.315   1.681  13.335 -1.4065 -0.3515 -0.7190
32733SOL    HW215810   4.368   1.620  13.208 -0.4150  1.5007 -1.2314
32734SOL     OW15811   2.596  12.858  10.008 -0.0599  0.4919  0.6160
32734SOL    HW115812   2.574  12.836  10.099  0.8560  1.1367  1.0084
32734SOL    HW215813   2.619  12.951  10.010  2.5409 -0.0543  0.2676
32735SOL     OW15814   1.751   4.650   9.130 -0.3227 -0.2965 -0.0354
32735SOL    HW115815   1.713   4.602   9.057  1.1625 -3.1347  0.9124
32735SOL    HW215816   1.843   4.664   9.105  0.4220 -1.9883  1.4820
32736SOL     OW15817  13.561   4.388   5.904  0.0491 -0.0698 -0.2089
32736SOL    HW115818  13.639   4.430   5.867 -0.5330  0.7360 -0.5376
32736SOL    HW215819  13.596   4.334   5.975  0.8843  0.5207 -0.1468
32737SOL     OW15820   1.232   8.377  13.299  0.4337  0.0263  0.6371
32737SOL    HW115821   1.294   8.432  13.252  0.0082  0.3919  0.4891
32737SOL    HW215822   1.188   8.438  13.359 -0.7845  0.0800 -0.2630
32738SOL     OW15823  11.453   0.473   1.745 -0.1808 -0.1152  0.6256
32738SOL    HW115824  11.518   0.496   1.811 -0.0327  1.4612 -0.0217
32738SOL    HW215825  11.458   0.544   1.681 -2.4020 -0.0359  0.4641
32739SOL     OW15826   0.404   5.100  13.582 -0.2002 -0.3177  0.4451
32739SOL    HW115827   0.413   5.159  13.657 -1.3273  0.3925  0.0472
32739SOL    HW215828   0.349   5.149  13.520 -0.7947 -1.6094 -0.0797
32740SOL     OW15829   5.513  11.228   1.230 -0.2328 -0.3152 -0.1971
32740SOL    HW115830   5.537  11.306   1.180 -0.4230  0.2711  0.6002
32740SOL    HW215831   5.588  11.170   1.220  0.0470  0.0905 -0.5498
32741SOL     OW15832  12.580   5.205   2.869 -0.3190  0.3487  0.3621
32741SOL    HW115833  12.531   5.246   2.940  0.5067 -1.1618  1.8608
32741SOL    HW215834  12.536   5.235   2.789 -1.7334  1.4884  1.5169
32742SOL     OW15835  12.381   6.232   3.617  0.6122 -0.6327  0.3200
32742SOL    HW115836  12.310   6.257   3.677  1.4441  0.0255  1.0589
32742SOL    HW215837  12.436   6.310   3.612  1.9784 -1.5450  0.7828
32743SOL     OW15838   4.230  10.146   9.196 -0.1249 -0.2503  0.2239
32743SOL    HW115839   4.218  10.221   9.137  1.3967 -0.3883 -0.3199
32743SOL    HW215840   4.244  10.186   9.282  0.5307  0.1069 -0.0369
32744SOL     OW15841   0.670   2.025  11.342  0.0761  0.4204 -0.2913
32744SOL    HW115842   0.606   2.094  11.359 -0.7199 -0.3878  0.0883
32744SOL    HW215843   0.630   1.945  11.378  1.7685  0.0774  1.0172
32745SOL     OW15844   1.483   0.885   7.692 -0.3978  0.2848  0.3104
32745SOL    HW115845   1.519   0.957   7.743 -0.5232  0.8307 -0.3539
32745SOL    HW215846   1.556   0.825   7.680 -0.5138 -0.1634  1.6403
32746SOL     OW15847  11.393   9.429   2.610 -1.0144  0.5578  0.6217
32746SOL    HW115848  11.348   9.346   2.624  4.0884 -2.8468 -0.6063
32746SOL    HW215849  11.372   9.453   2.520 -0.9206 -0.5238  0.3073
32747SOL     OW15850   1.156   7.062  10.104  0.3451 -0.0062 -0.6385
32747SOL    HW115851   1.221   7.109  10.052 -2.0203  3.4153 -0.8285
32747SOL    HW215852   1.146   7.114  10.184 -1.7993 -0.6328 -0.4307
32748SOL     OW15853   4.441   2.332  13.544  0.1658  0.0711 -0.3073
32748SOL    HW115854   4.488   2.273  13.603 -0.7297  0.1481  0.5100
32748SOL    HW215855   4.352   2.334  13.578  0.2637  2.2884  0.0116
32749SOL     OW15856  13.491   3.198   7.107 -0.1145 -0.3526 -0.6026
32749SOL    HW115857  13.469   3.288   7.132 -0.6345 -0.7168  0.3297
32749SOL    HW215858  13.586   3.193   7.117 -0.2289 -0.2856  0.7494
32750SOL     OW15859   0.736   1.248  11.813  0.3357  0.1968  0.0301
32750SOL    HW115860   0.775   1.226  11.728 -1.4954  0.2854 -0.8722
32750SOL    HW215861   0.689   1.330  11.798  2.4457  1.9076  1.9420
32751SOL     OW15862   6.841  11.841   8.033  0.6354 -0.7894  0.3638
32751SOL    HW115863   6.853  11.934   8.015 -1.0147 -0.4898  0.6720
32751SOL    HW215864   6.908  11.798   7.979  0.0684  0.4532 -1.4255
32752SOL     OW15865  10.743   1.340  10.042  0.2727  0.0605 -0.0547
32752SOL    HW115866  10.797   1.418  10.027  0.3630  0.2737  1.3003
32752SOL    HW215867  10.737   1.333  10.137 -0.0028 -1.4079 -0.1639
32753SOL     OW15868   1.313   2.381  10.469 -1.1256  0.2130  0.0798
32753SOL    HW115869   1.319   2.477  10.466  0.3880  0.1465 -0.0012
32753SOL    HW215870   1.351   2.358  10.554 -0.9255 -0.3409 -0.1558
32754SOL     OW15871   6.403   1.517  13.818 -0.0082 -0.4045 -0.3597
32754SOL    HW115872   6.324   1.477  13.855 -0.1295  0.4222  0.2928
32754SOL    HW215873   6.394   1.610  13.837  0.9987 -0.2628 -0.5353
32755SOL     OW15874   3.478  13.880   7.655  0.5062 -0.3666  0.4859
32755SOL    HW115875   3.465  13.913   7.744  0.7990 -0.7081  0.6583
32755SOL    HW215876   3.397  13.834   7.635 -0.6479  1.8995 -0.4239
32756SOL     OW15877   9.231  10.913   6.498 -0.0774 -0.0281 -0.5171
32756SOL    HW115878   9.140  10.892   6.477 -0.4797  0.3932  0.7404
32756SOL    HW215879   9.228  11.004   6.528  0.9754  0.4387 -1.7413
32757SOL     OW15880   1.291   1.670   9.778 -0.3239  0.3344  0.2271
32757SOL    HW115881   1.259   1.679   9.868 -1.4579  1.2866 -0.2630
32757SOL    HW215882   1.304   1.760   9.748  4.9924  0.2097  1.0783
32758SOL     OW15883  10.365   0.920   9.914 -0.3457 -0.4381  0.3156
32758SOL    HW115884  10.318   0.845   9.950 -2.0586  0.3979 -0.0752
32758SOL    HW215885  10.306   0.994   9.927 -0.0379  0.3133 -2.0146
32759SOL     OW15886  10.450   3.832  11.839 -0.0913  0.4899 -0.1963
32759SOL    HW115887  10.506   3.755  11.835 -0.2323  0.4349 -1.1242
32759SOL    HW215888  10.509   3.905  11.819  0.1484  0.6933  1.1520
32760SOL     OW15889  12.134   4.298   1.880 -0.8415 -0.1742 -0.0280
32760SOL    HW115890  12.163   4.313   1.970  0.3937  0.1681 -0.4687
32760SOL    HW215891  12.214   4.300   1.828 -1.4769 -0.8941 -1.0755
32761SOL     OW15892  14.088  11.583   0.460 -0.0955 -0.1911  0.2745
32761SOL    HW115893  14.005  11.571   0.507  0.3778  1.3433  1.5676
32761SOL    HW215894  14.064  11.635   0.383 -0.1549  1.5585  1.4209
32762SOL     OW15895  12.299  13.176  12.665 -0.1114  0.1049  0.4907
32762SOL    HW115896  12.350  13.117  12.721  0.0645  2.9687  3.7013
32762SOL    HW215897  12.208  13.161  12.692 -0.1526  0.6832  0.6678
32763SOL     OW15898  11.518  13.877   0.124  0.1591  0.4368 -0.1333
32763SOL    HW115899  11.578  13.922   0.064  1.1390  0.7943  1.0786
32763SOL    HW215900  11.571  13.807   0.161  0.2547  1.5325  1.9137
32764SOL     OW15901  13.842   1.976   2.785 -0.3974  0.2966 -0.0021
32764SOL    HW115902  13.780   1.910   2.815 -0.1802  0.5999  1.1457
32764SOL    HW215903  13.917   1.925   2.752 -0.5883 -0.0360  0.0752
32765SOL     OW15904   4.107   8.485   6.223  0.3889  0.7132 -0.6950
32765SOL    HW115905   4.026   8.515   6.265  0.1635  1.7047 -1.8026
32765SOL    HW215906   4.136   8.412   6.278  0.1326  1.9669  1.2045
32766SOL     OW15907  11.467   6.761  12.694  1.0090  0.2452  0.1578
32766SOL    HW115908  11.497   6.794  12.609 -1.4644  2.7348  0.0891
32766SOL    HW215909  11.483   6.834  12.754 -1.1336  0.1979  0.8735
32767SOL     OW15910   4.754   5.894   4.271  0.7239 -0.5787  0.4513
32767SOL    HW115911   4.720   5.804   4.263  1.4972 -0.8057 -0.4866
32767SOL    HW215912   4.830   5.885   4.329 -0.9059 -0.0123  2.8605
32768SOL     OW15913   6.243   5.216  13.530 -0.8294  0.2001  0.0779
32768SOL    HW115914   6.175   5.199  13.595 -0.2003 -3.4718 -0.0171
32768SOL    HW215915   6.321   5.236  13.582 -1.2500  1.4353  0.2662
32769SOL     OW15916   9.365   4.225   5.479 -0.1510  0.0119  0.2265
32769SOL    HW115917   9.404   4.166   5.544 -1.6736 -1.4608 -0.1365
32769SOL    HW215918   9.382   4.313   5.513 -0.4175 -0.6944  2.3282
32770SOL     OW15919   0.915  14.032   6.613 -0.0858  0.0283  0.6469
32770SOL    HW115920   0.949  14.053   6.700  1.2127  0.8926 -0.0404
32770SOL    HW215921   0.912  14.116   6.567 -0.6691 -0.4341 -0.1886
32771SOL     OW15922   3.566   4.092  13.388 -0.3100  0.1290 -0.2473
32771SOL    HW115923   3.495   4.080  13.326 -0.7846  1.0022  0.1010
32771SOL    HW215924   3.587   4.004  13.419 -0.2500 -0.2803 -1.4280
32772SOL     OW15925   2.721   1.753  13.172 -0.0947 -0.0615 -0.1499
32772SOL    HW115926   2.643   1.720  13.216 -0.9496 -1.5488 -2.6045
32772SOL    HW215927   2.786   1.684  13.181  0.7653  0.8706  1.2513
32773SOL     OW15928  10.570   1.258   7.339  0.1604  0.7928 -0.6935
32773SOL    HW115929  10.530   1.229   7.420  0.7986  1.9212  0.0568
32773SOL    HW215930  10.502   1.246   7.272 -0.4627  0.1151  0.0491
32774SOL     OW15931   5.371  10.905   2.545  0.0516  0.0308  0.0035
32774SOL    HW115932   5.377  10.914   2.640  2.6827  0.7636 -0.1538
32774SOL    HW215933   5.460  10.922   2.514 -0.6835 -0.4658 -2.5831
32775SOL     OW15934   8.836  10.253   4.186  0.5686  1.2139  0.2362
32775SOL    HW115935   8.916  10.290   4.223  1.3397  1.7591 -1.8426
32775SOL    HW215936   8.828  10.295   4.100  0.2765 -1.7847 -1.3135
32776SOL     OW15937   0.869   6.348   2.427  0.1653 -0.2785  0.4468
32776SOL    HW115938   0.891   6.281   2.492  1.9293 -0.7330 -0.5306
32776SOL    HW215939   0.807   6.305   2.368 -1.0794 -0.0165  1.5414
32777SOL     OW15940  11.204   2.938   4.563 -0.1273 -0.1477 -0.3930
32777SOL    HW115941  11.158   2.979   4.490 -1.4484 -1.7480 -0.5222
32777SOL    HW215942  11.297   2.945   4.540 -0.4702  0.2086 -1.7626
32778SOL     OW15943  13.914   7.692   2.261  0.0225 -0.1846  0.1841
32778SOL    HW115944  13.963   7.714   2.182 -0.2536  2.0957  0.5909
32778SOL    HW215945  13.893   7.776   2.301 -1.8847 -1.2021  1.4670
32779SOL     OW15946   0.513   9.371  11.985  0.2961 -0.0964 -0.0971
32779SOL    HW115947   0.458   9.436  11.941  0.4152  1.8723  2.3999
32779SOL    HW215948   0.484   9.287  11.950 -1.3389  1.1471 -1.9518
32780SOL     OW15949   6.096   0.113   4.934  0.4384 -0.0203 -0.1459
32780SOL    HW115950   6.118   0.189   4.880  1.0902 -0.1480 -0.0757
32780SOL    HW215951   6.179   0.089   4.976  0.3033 -0.9446 -0.3832
32781SOL     OW15952   3.221   8.145   0.688  0.6011  0.5535 -0.2464
32781SOL    HW115953   3.193   8.199   0.762  1.8064  0.6669  0.1420
32781SOL    HW215954   3.227   8.207   0.615 -2.0448  0.1938 -0.8753
32782SOL     OW15955   1.125  12.829   6.159 -0.4205 -0.6736 -0.0694
32782SOL    HW115956   1.212  12.791   6.169 -0.0895  0.2830  0.8440
32782SOL    HW215957   1.130  12.878   6.077 -0.3254 -1.1722 -0.3695
32783SOL     OW15958   3.193  11.099   7.096  0.5605  0.3128 -0.1694
32783SOL    HW115959   3.215  11.187   7.065  1.6956  0.7096  1.6350
32783SOL    HW215960   3.118  11.073   7.042  0.9361  1.8908 -1.5445
32784SOL     OW15961   0.918   4.334   3.832 -0.7415  0.3662 -0.6483
32784SOL    HW115962   0.969   4.383   3.896  0.0242  0.1550 -1.0889
32784SOL    HW215963   0.983   4.289   3.778 -1.3039  1.5693 -2.4150
32785SOL     OW15964   3.201   0.537   5.982 -0.1194  0.4676 -0.5218
32785SOL    HW115965   3.294   0.531   6.005 -0.1682 -0.6235 -0.5521
32785SOL    HW215966   3.158   0.475   6.041 -0.6388 -0.1226 -1.4944
32786SOL     OW15967   6.777   5.140   3.986 -0.8062  0.3085 -0.1022
32786SOL    HW115968   6.778   5.056   4.032  0.4546 -0.5789 -1.6691
32786SOL    HW215969   6.716   5.128   3.914 -2.9131  1.7596  1.3022
32787SOL     OW15970   1.715   5.758   8.339  0.4121 -0.0111  0.0381
32787SOL    HW115971   1.626   5.727   8.322  0.1863 -0.3860  1.7681
32787SOL    HW215972   1.759   5.751   8.255 -0.3466 -2.6252 -0.2330
32788SOL     OW15973  13.843  10.949   1.996 -0.1107  0.0732  0.7509
32788SOL    HW115974  13.865  10.902   1.916  0.7663 -0.0602  1.0596
32788SOL    HW215975  13.776  10.895   2.039 -0.4936  0.0849  0.1790
32789SOL     OW15976   0.455   3.919   4.274 -0.3481  0.6892 -0.0784
32789SOL    HW115977   0.502   3.959   4.200  2.2225 -0.0169  1.0578
32789SOL    HW215978   0.435   3.993   4.331 -0.0678  0.9361 -0.2919
32790SOL     OW15979  11.930   1.565   9.058  0.2454 -0.1490 -0.7384
32790SOL    HW115980  11.851   1.596   9.013 -0.8704 -2.5188 -0.5918
32790SOL    HW215981  11.996   1.631   9.040 -2.0813  2.6247  0.1917
32791SOL     OW15982   6.447   7.861  12.594 -0.5262 -0.1958 -0.3071
32791SOL    HW115983   6.492   7.803  12.655  0.3620  1.3101  0.5042
32791SOL    HW215984   6.456   7.817  12.509 -0.4961 -1.5742  0.3726
32792SOL     OW15985   9.434   6.012   9.767 -0.0909  0.1263  0.4216
32792SOL    HW115986   9.429   5.975   9.855 -0.1915  0.5337  0.5881
32792SOL    HW215987   9.521   6.052   9.763  0.2030 -0.5377  0.0775
32793SOL     OW15988   3.134   6.665   4.125  0.2249 -0.4491  0.2880
32793SOL    HW115989   3.112   6.582   4.082  0.5275 -0.7240  0.6570
32793SOL    HW215990   3.125   6.731   4.056  1.1457 -0.9424 -0.3144
32794SOL     OW15991   0.966  13.445  11.164  0.1297 -0.6437  0.4832
32794SOL    HW115992   1.007  13.378  11.110 -0.2212  1.1416 -2.2129
32794SOL    HW215993   0.879  13.456  11.126  0.4628  1.8522  0.2884
32795SOL     OW15994   4.110   7.622  10.089 -0.1175  0.4301 -0.3180
32795SOL    HW115995   4.042   7.685  10.062  0.6407  1.0197 -0.8852
32795SOL    HW215996   4.166   7.672  10.148  1.0121  0.5746 -1.4766
32796SOL     OW15997  13.108  12.549   2.518 -0.2803  0.6321 -0.1024
32796SOL    HW115998  13.068  12.462   2.513  1.7566 -0.2810 -2.1623
32796SOL    HW215999  13.139  12.556   2.609  0.0008 -1.0234 -0.0460
32797SOL     OW16000   5.702   8.626  14.024 -0.2623 -0.4962  0.5394
32797SOL    HW116001   5.770   8.643  14.090  0.2186  2.3553 -0.5463
32797SOL    HW216002   5.621   8.656  14.065 -0.4731 -1.4751  0.8707
32798SOL     OW16003  13.408  12.178   9.110  0.3932 -0.3352 -0.3789
32798SOL    HW116004  13.414  12.105   9.048 -0.2201  1.1363 -2.2746
32798SOL    HW216005  13.342  12.236   9.072  1.2809  1.4999  0.7441
32799SOL     OW16006   5.925   0.748   5.471  0.3181  0.1940 -0.2145
32799SOL    HW116007   5.925   0.654   5.486  0.6640 -0.0361 -1.5190
32799SOL    HW216008   5.911   0.786   5.558 -0.5993 -1.0579  0.2159
32800SOL     OW16009  11.302   1.461  10.773  0.1596 -0.0295  0.3714
32800SOL    HW116010  11.377   1.468  10.714 -1.4519  2.7801 -1.5889
32800SOL    HW216011  11.283   1.552  10.797 -3.0027 -0.5476  0.2018
32801SOL     OW16012   6.754  13.919  11.399 -0.5480 -0.7089 -0.9121
32801SOL    HW116013   6.738  13.859  11.472 -1.5788  2.1973  1.4556
32801SOL    HW216014   6.843  13.898  11.370  0.3166 -1.3544  1.8962
32802SOL     OW16015   0.097   3.977  12.887  0.2579 -0.0908  0.2367
32802SOL    HW116016   0.112   3.944  12.976  0.6442 -1.7336 -0.3912
32802SOL    HW216017   0.175   4.028  12.866  0.5188 -0.3490  0.5681
32803SOL     OW16018  11.570   4.746  12.556  0.5280 -0.3919 -0.1725
32803SOL    HW116019  11.619   4.743  12.474  0.7604  0.7918 -0.0968
32803SOL    HW216020  11.518   4.826  12.550 -1.5270 -1.6850 -0.3008
32804SOL     OW16021   3.291   3.472   4.620  0.2053  0.3333 -1.0512
32804SOL    HW116022   3.287   3.449   4.713  2.8376  2.1154 -0.3936
32804SOL    HW216023   3.220   3.535   4.608 -1.7448 -1.7329 -0.9259
32805SOL     OW16024   5.394   6.597   8.110 -0.0916  0.5088  0.0211
32805SOL    HW116025   5.429   6.515   8.076 -0.2689  0.8600 -1.0579
32805SOL    HW216026   5.448   6.617   8.187  0.3184 -0.3173 -0.0509
32806SOL     OW16027   6.385  12.323   1.211  0.4643 -0.0989 -0.2425
32806SOL    HW116028   6.363  12.241   1.255  2.5380  0.0618  1.2664
32806SOL    HW216029   6.336  12.321   1.129 -0.5763 -2.2050  0.3741
32807SOL     OW16030   3.007   5.563   1.256  0.8148  0.2048  0.3076
32807SOL    HW116031   3.096   5.590   1.234  0.9923  1.5077  2.3290
32807SOL    HW216032   2.974   5.634   1.311 -0.6120 -1.3644  1.5733
32808SOL     OW16033  12.135   7.693   2.607 -0.4552 -0.0728 -0.0335
32808SOL    HW116034  12.199   7.746   2.654  0.7551 -0.5750 -1.0234
32808SOL    HW216035  12.073   7.664   2.673  0.7729 -0.1649  1.1196
32809SOL     OW16036   4.600   7.885   5.465  0.2908 -0.0844  0.4890
32809SOL    HW116037   4.520   7.836   5.447 -0.4557 -0.1275  3.3825
32809SOL    HW216038   4.657   7.823   5.509  1.2515  0.4302  0.0093
32810SOL     OW16039   6.764  12.777   4.626  0.1546 -0.7002 -0.2244
32810SOL    HW116040   6.749  12.871   4.632  1.4952 -0.4838 -0.1336
32810SOL    HW216041   6.794  12.752   4.713  0.8797 -1.0072 -0.5581
32811SOL     OW16042  13.642  10.447   5.058  0.0246  0.2890 -0.4033
32811SOL    HW116043  13.729  10.452   5.097  0.1089 -3.3129  0.1374
32811SOL    HW216044  13.583  10.477   5.127  0.6238 -0.0847  0.2758
32812SOL     OW16045   1.059   3.066  13.837  0.0673  0.3268  0.3789
32812SOL    HW116046   1.152   3.077  13.856  0.0040  1.6462 -0.0034
32812SOL    HW216047   1.056   3.037  13.745  0.1622 -1.4832  0.9190
32813SOL     OW16048  12.383  11.706  12.857  0.9253 -0.4883 -0.7654
32813SOL    HW116049  12.291  11.684  12.866  1.3199 -1.6437  1.3566
32813SOL    HW216050  12.386  11.801  12.865 -0.0648 -0.4479 -0.7436
32814SOL     OW16051  10.810   4.568   8.898 -0.0950  0.0725 -0.2803
32814SOL    HW116052  10.760   4.531   8.971  0.5157  0.6564  0.4540
32814SOL    HW216053  10.852   4.492   8.858  0.5781 -0.1437  0.7782
32815SOL     OW16054   3.028   8.186   5.870 -0.4345  0.2499  0.1374
32815SOL    HW116055   3.086   8.242   5.922  0.3071  0.1459 -0.5487
32815SOL    HW216056   3.087   8.142   5.809 -0.9125 -1.6706  0.9869
32816SOL     OW16057   9.010   6.304   0.684  0.2886 -0.6184 -0.1115
32816SOL    HW116058   9.029   6.233   0.622 -0.3881 -1.2074  0.3466
32816SOL    HW216059   8.920   6.288   0.713  0.0115  0.6179 -0.2415
32817SOL     OW16060   1.203  11.450  11.437 -0.4175 -0.4405 -0.0491
32817SOL    HW116061   1.218  11.378  11.375  0.2958  0.0650 -0.4805
32817SOL    HW216062   1.176  11.407  11.518  0.9802 -1.2561  0.0067
32818SOL     OW16063  10.013  10.774  13.447 -0.1118  0.1138 -0.3904
32818SOL    HW116064   9.937  10.717  13.458 -0.0045 -0.0634 -0.5541
32818SOL    HW216065  10.006  10.806  13.357 -0.5225  0.8716 -0.1010
32819SOL     OW16066   0.959   7.675  13.255 -0.1209 -0.2194  0.2528
32819SOL    HW116067   0.984   7.637  13.171  0.3812  0.0184  0.2952
32819SOL    HW216068   0.924   7.762  13.233  1.9945  0.7325  0.4654
32820SOL     OW16069   8.537  12.987   5.244  0.5213  0.3447 -0.4641
32820SOL    HW116070   8.550  13.019   5.155  0.9322  0.0304 -0.5179
32820SOL    HW216071   8.585  13.049   5.299  4.6336 -2.2003 -0.8414
32821SOL     OW16072   2.739   6.591  11.851 -0.2610 -0.4653 -0.4024
32821SOL    HW116073   2.810   6.651  11.832 -0.7186  0.4899  0.7540
32821SOL    HW216074   2.738   6.584  11.946 -0.2284 -2.3188 -0.5044
32822SOL     OW16075   8.923   0.690   1.695  0.0098  0.0291 -0.0550
32822SOL    HW116076   8.852   0.672   1.757  0.1531  0.5602  0.2662
32822SOL    HW216077   8.877   0.708   1.613 -0.1544 -1.4377 -0.3211
32823SOL     OW16078  10.566   9.416  12.526  0.3857  0.2254  0.0301
32823SOL    HW116079  10.600   9.329  12.545  1.5665  0.6006 -0.2876
32823SOL    HW216080  10.476   9.400  12.496  0.9220 -0.9868 -1.0582
32824SOL     OW16081   1.516   0.733  13.971 -0.2450 -0.7410 -0.2868
32824SOL    HW116082   1.546   0.778  13.893 -1.2858  0.2618 -0.1233
32824SOL    HW216083   1.486   0.647  13.940  0.4039 -0.7843 -0.8037
32825SOL     OW16084   9.715   0.764   6.796 -0.1274  0.0233 -0.1786
32825SOL    HW116085   9.696   0.698   6.863 -2.8536  1.7551  0.9307
32825SOL    HW216086   9.780   0.821   6.838 -3.4084  2.3952  2.1608
32826SOL     OW16087   3.697   7.861   6.252  0.4816 -0.3587  0.5048
32826SOL    HW116088   3.675   7.819   6.169 -2.8841 -0.9080  1.5216
32826SOL    HW216089   3.770   7.919   6.231 -1.1257  0.5799 -3.1717
32827SOL     OW16090   7.658   8.925   4.736 -0.7703 -0.1831  0.5133
32827SOL    HW116091   7.711   9.004   4.730 -0.9175 -0.1093  0.1405
32827SOL    HW216092   7.664   8.886   4.648 -1.2078 -0.2530  0.5133
32828SOL     OW16093   8.771   1.144   7.217  0.1027  0.4331  0.0879
32828SOL    HW116094   8.765   1.179   7.306 -1.6913  3.1012 -0.9414
32828SOL    HW216095   8.698   1.082   7.211  1.6794 -1.6422  1.1146
32829SOL     OW16096  10.521   4.153  10.277  0.3888 -0.4107 -0.3443
32829SOL    HW116097  10.474   4.141  10.194  1.9503 -0.8875 -1.2069
32829SOL    HW216098  10.614   4.149  10.252  0.9396  1.7087  1.0962
32830SOL     OW16099  12.409   7.094   9.557 -0.2785  0.3978 -0.0992
32830SOL    HW116100  12.317   7.112   9.540 -0.1762  1.3366  0.2396
32830SOL    HW216101  12.452   7.108   9.473 -0.7016 -2.2754 -0.8467
32831SOL     OW16102  11.743   4.195  12.611 -0.0952  0.6099  0.1924
32831SOL    HW116103  11.781   4.109  12.596  1.4455  1.0553  1.2745
32831SOL    HW216104  11.812   4.257  12.586 -1.3938  1.5863 -1.1851
32832SOL     OW16105  10.613   3.848   2.060  0.1774  0.2515 -0.1843
32832SOL    HW116106  10.679   3.912   2.085  0.2814  0.3145 -0.6073
32832SOL    HW216107  10.568   3.888   1.985 -0.3082  0.1900  0.0696
32833SOL     OW16108   1.955  12.895   3.838  0.5615 -0.4798 -0.5314
32833SOL    HW116109   1.912  12.936   3.762 -0.3264 -1.9850 -0.8677
32833SOL    HW216110   1.921  12.943   3.913 -0.4858 -0.5943 -0.9137
32834SOL     OW16111   1.628  12.711   9.325  0.4415 -0.0916  0.1033
32834SOL    HW116112   1.605  12.776   9.392  1.7091  0.5480 -0.0471
32834SOL    HW216113   1.548  12.660   9.312 -0.0431  0.2571  1.5568
32835SOL     OW16114   2.093   9.796  13.244 -0.7362  0.6783 -0.1001
32835SOL    HW116115   2.049   9.742  13.179 -1.8840 -0.1864  1.3208
32835SOL    HW216116   2.025   9.853  13.278 -0.4015  0.4648  0.9832
32836SOL     OW16117   0.273   7.176   5.655  0.2284 -0.0520 -0.1824
32836SOL    HW116118   0.265   7.110   5.724 -0.6059  0.7310  0.5085
32836SOL    HW216119   0.237   7.256   5.695  2.1757  1.1014 -0.6136
32837SOL     OW16120   7.558   2.587   3.004 -0.1522 -0.2394 -0.1260
32837SOL    HW116121   7.465   2.586   2.981 -0.7281  2.1024  1.6287
32837SOL    HW216122   7.573   2.502   3.045 -1.6085 -0.5494 -0.1588
32838SOL     OW16123   3.697   5.989  12.887 -0.6745 -0.1782 -0.0480
32838SOL    HW116124   3.725   5.917  12.830 -0.1942 -0.3072  0.3450
32838SOL    HW216125   3.654   5.946  12.961  0.2438 -0.1019  0.5375
32839SOL     OW16126  11.643   9.879   5.356  0.6295 -0.2691 -0.8875
32839SOL    HW116127  11.636   9.908   5.265 -1.3789  2.5548  0.0351
32839SOL    HW216128  11.559   9.903   5.396  1.0426 -2.3372  1.5247
32840SOL     OW16129  11.626   3.530  10.215 -0.1296 -0.1771 -0.3736
32840SOL    HW116130  11.629   3.541  10.310 -0.7084  0.9260 -0.4739
32840SOL    HW216131  11.539   3.496  10.198 -0.1908  0.0669 -0.5503
32841SOL     OW16132   3.841   6.389   0.075 -0.2361  0.1606 -0.0536
32841SOL    HW116133   3.834   6.484   0.087  0.6355  0.2130  0.1677
32841SOL    HW216134   3.905   6.362   0.141 -1.8368 -0.8687  1.1645
32842SOL     OW16135   4.042   0.269  13.113 -0.2050 -0.0560 -0.0764
32842SOL    HW116136   4.097   0.330  13.161 -1.5658  0.6131  0.6766
32842SOL    HW216137   4.102   0.201  13.083  0.8299 -0.0084  1.7767
32843SOL     OW16138  12.102   1.886   9.391  0.4131  0.4158  0.1969
32843SOL    HW116139  12.175   1.854   9.339  1.0371  0.1577  1.2086
32843SOL    HW216140  12.130   1.971   9.424 -1.0165  1.8515 -2.0097
32844SOL     OW16141   0.407   6.957   9.449  0.3806  0.3838  0.5166
32844SOL    HW116142   0.366   7.035   9.411 -0.4400  0.5361  1.6687
32844SOL    HW216143   0.462   6.992   9.519  0.9429  0.0105  0.2671
32845SOL     OW16144   3.385   2.083  13.476 -0.2813 -0.4746  0.8045
32845SOL    HW116145   3.449   2.065  13.407 -2.5162 -4.0805 -0.6373
32845SOL    HW216146   3.425   2.050  13.555  0.1506 -1.5569  0.1503
32846SOL     OW16147  11.019   1.963   4.677 -0.3214  0.1758  0.6018
32846SOL    HW116148  10.937   2.009   4.662 -1.0405 -0.9925  0.8008
32846SOL    HW216149  10.993   1.877   4.710  0.9325 -0.6830 -0.5216
32847SOL     OW16150   6.972  12.158   9.386  0.3690 -0.2962  0.2437
32847SOL    HW116151   7.006  12.236   9.430  1.5900 -0.1846 -0.8136
32847SOL    HW216152   6.916  12.193   9.316  0.8345 -0.3566 -0.1658
32848SOL     OW16153  12.072   0.940  13.949 -0.0698 -0.5416 -0.3239
32848SOL    HW116154  12.133   0.968  13.882  0.8347  2.0500  1.4142
32848SOL    HW216155  11.986   0.964  13.915  0.4098  1.0873 -0.4842
32849SOL     OW16156  11.555   7.532   3.558 -0.2182  0.4431 -1.1141
32849SOL    HW116157  11.591   7.478   3.629 -1.4964  0.4986 -0.3756
32849SOL    HW216158  11.631   7.574   3.518  0.4352  2.9031  2.2493
32850SOL     OW16159  10.687  11.369  10.303  0.2230 -0.6066 -0.0098
32850SOL    HW116160  10.671  11.460  10.330  3.2034 -0.3393  1.2495
32850SOL    HW216161  10.628  11.355  10.230  0.7931  2.9023 -1.3359
32851SOL     OW16162  11.780   3.320   8.863 -0.0914 -0.3351  0.3790
32851SOL    HW116163  11.775   3.351   8.773 -1.4009 -0.7312  0.2973
32851SOL    HW216164  11.749   3.394   8.916 -1.7498 -0.9213  0.2934
32852SOL     OW16165  12.964   0.186   8.313  0.6733  0.0941 -0.1068
32852SOL    HW116166  13.015   0.218   8.387 -0.2367  2.1564 -0.2801
32852SOL    HW216167  12.873   0.200   8.339  0.2579 -1.2023 -0.7656
32853SOL     OW16168   2.763  13.355   4.614  0.3292 -0.2617 -0.1474
32853SOL    HW116169   2.832  13.409   4.653  0.3600 -0.3161 -0.1265
32853SOL    HW216170   2.683  13.405   4.626  0.6221  0.6893 -1.8476
32854SOL     OW16171   6.030   2.768   1.570 -0.2833 -0.5635  0.0475
32854SOL    HW116172   6.125   2.763   1.560 -0.2024  0.6787  0.1118
32854SOL    HW216173   6.015   2.739   1.660  0.2121  0.9522  0.6372
32855SOL     OW16174   9.775  13.492   5.574 -0.2079 -0.5785 -0.1391
32855SOL    HW116175   9.784  13.573   5.625 -0.4077 -1.7324  1.8325
32855SOL    HW216176   9.722  13.435   5.630  1.1362 -2.5821 -0.8172
32856SOL     OW16177   7.056   4.671  12.162  0.4031 -0.2041  0.3460
32856SOL    HW116178   7.048   4.576  12.158  0.1750 -0.1719 -0.0862
32856SOL    HW216179   7.128   4.687  12.223 -0.4230 -0.6178  1.4657
32857SOL     OW16180   4.918   2.608   2.240 -0.1551 -0.4506  0.2087
32857SOL    HW116181   4.840   2.662   2.251 -1.2034 -2.2583  2.5689
32857SOL    HW216182   4.979   2.663   2.192 -2.2212  1.6910 -0.1315
32858SOL     OW16183   5.246   3.832   4.623  0.0768 -0.0044  0.2289
32858SOL    HW116184   5.300   3.907   4.647  1.2305 -0.7596  0.1108
32858SOL    HW216185   5.271   3.764   4.687 -1.2675 -0.1569  0.6137
32859SOL     OW16186  11.215   3.234   1.898 -0.7079  0.4055 -0.3749
32859SOL    HW116187  11.251   3.173   1.962  1.8310  2.2774  0.1046
32859SOL    HW216188  11.284   3.246   1.833 -1.8119  1.4367 -1.4325
32860SOL     OW16189   6.824   2.287   8.590 -0.1102  0.8487  0.5385
32860SOL    HW116190   6.895   2.224   8.578 -0.5630  0.6000 -0.9933
32860SOL    HW216191   6.747   2.233   8.608 -0.6457  0.8916 -1.4918
32861SOL     OW16192  13.201  13.052   8.258 -0.5390  0.4359  0.3570
32861SOL    HW116193  13.235  12.994   8.189 -0.9555  0.0354  0.4793
32861SOL    HW216194  13.118  13.083   8.224 -0.0463  1.4414  0.0441
32862SOL     OW16195   2.123   6.678  11.542 -0.2220  0.4045  0.2785
32862SOL    HW116196   2.172   6.760  11.532 -0.3761  0.5305  0.5259
32862SOL    HW216197   2.134   6.656  11.635 -0.5792  0.4013  0.3196
32863SOL     OW16198   7.886   9.956   0.619  0.3364  0.2475 -0.7303
32863SOL    HW116199   7.833  10.027   0.582 -1.1423 -0.1598  0.5294
32863SOL    HW216200   7.832   9.878   0.607  0.4281 -0.0991  1.0022
32864SOL     OW16201  12.591   1.482   0.865 -0.5810  0.5376  0.3940
32864SOL    HW116202  12.660   1.546   0.848 -0.1171  0.2804  1.2502
32864SOL    HW216203  12.537   1.522   0.933  0.4782 -0.4872  1.9131
32865SOL     OW16204   3.585   9.130   1.226  0.3330 -0.3243  0.0844
32865SOL    HW116205   3.624   9.188   1.161  0.6757  1.1626  1.5338
32865SOL    HW216206   3.491   9.137   1.212  0.4285 -0.8538 -0.9087
32866SOL     OW16207   4.235  10.995   1.355 -0.0197  0.2635 -0.3260
32866SOL    HW116208   4.236  10.916   1.408 -1.1418 -0.2402 -1.0120
32866SOL    HW216209   4.163  10.982   1.293 -0.6682  2.0761 -0.0414
32867SOL     OW16210  11.518   8.658   6.514 -0.0346 -0.8237  0.2984
32867SOL    HW116211  11.515   8.629   6.422  2.3430 -0.9241  0.1993
32867SOL    HW216212  11.522   8.753   6.509 -0.4381 -0.8009  0.3426
32868SOL     OW16213   2.010   8.915   8.171 -0.0124  0.2206  0.0475
32868SOL    HW116214   2.067   8.967   8.114  0.7256  0.5880  1.0757
32868SOL    HW216215   1.997   8.970   8.249 -0.9521 -0.2816  0.2686
32869SOL     OW16216  13.513  12.293   0.537  0.3579  0.2769  0.0698
32869SOL    HW116217  13.445  12.244   0.583  1.1488  0.2808  1.2783
32869SOL    HW216218  13.473  12.378   0.519 -0.9313 -0.6546 -1.8091
32870SOL     OW16219   2.780   5.391  11.077 -0.2795 -0.4004  0.4092
32870SOL    HW116220   2.799   5.462  11.016 -2.7324 -1.2819 -1.5489
32870SOL    HW216221   2.802   5.311  11.029  1.3038 -1.0851  2.1392
32871SOL     OW16222   2.715   2.903   0.508 -0.1939 -0.1447  0.7367
32871SOL    HW116223   2.654   2.878   0.439 -0.1945 -1.5587  1.2154
32871SOL    HW216224   2.766   2.824   0.525  2.5941  1.2607 -0.4047
32872SOL     OW16225   3.147   8.225   2.374 -0.3757 -0.2493 -0.5400
32872SOL    HW116226   3.117   8.150   2.426  0.6960 -1.0799 -1.0753
32872SOL    HW216227   3.098   8.218   2.292 -0.2289 -0.4072 -0.6151
32873SOL     OW16228   6.870   2.529   4.685 -0.0221  0.2428 -0.5568
32873SOL    HW116229   6.797   2.485   4.640  0.3536 -1.1134  0.1174
32873SOL    HW216230   6.948   2.485   4.652  0.2538 -1.0397  1.6290
32874SOL     OW16231   0.632   1.226   1.696 -0.1220 -0.5056 -0.1778
32874SOL    HW116232   0.633   1.315   1.662  1.6522 -0.6426 -0.6142
32874SOL    HW216233   0.553   1.187   1.660 -0.0971  0.4195 -1.2830
32875SOL     OW16234   8.905   3.899   6.467  0.8628 -0.6027 -0.4644
32875SOL    HW116235   8.911   3.823   6.410  1.1173 -1.5480  0.7761
32875SOL    HW216236   8.877   3.864   6.551  1.4452  0.6115  0.2706
32876SOL     OW16237   4.361  12.190   7.720  0.2905 -0.0640 -0.4595
32876SOL    HW116238   4.451  12.221   7.731  0.5809 -1.2782  0.8350
32876SOL    HW216239   4.369  12.097   7.700 -0.6886 -0.6846  1.7547
32877SOL     OW16240  10.238   6.834   1.045 -0.2165  0.3676  0.0192
32877SOL    HW116241  10.150   6.862   1.072 -0.4844  0.8113 -1.2212
32877SOL    HW216242  10.293   6.911   1.059 -0.5016  0.8391 -1.3038
32878SOL     OW16243  11.451   9.419  13.615  0.0568  0.6300 -0.4055
32878SOL    HW116244  11.542   9.391  13.627 -0.0582  0.1116 -0.7248
32878SOL    HW216245  11.401   9.337  13.617 -0.8029  1.0550  3.1702
32879SOL     OW16246   8.391   8.494   5.112  0.3182  0.2842  0.1642
32879SOL    HW116247   8.433   8.549   5.178 -0.3103  0.7884  0.1464
32879SOL    HW216248   8.334   8.553   5.063 -0.6562 -0.4422  0.3877
32880SOL     OW16249   9.950  12.086   3.617 -0.2503 -0.2387  0.5544
32880SOL    HW116250  10.005  12.029   3.671  0.3900 -1.1312 -0.9703
32880SOL    HW216251   9.962  12.173   3.655  2.2252 -0.4038  0.3513
32881SOL     OW16252   1.823  13.129   1.355  0.1941 -0.2094  0.0915
32881SOL    HW116253   1.782  13.126   1.441  0.0567  1.5351  0.1316
32881SOL    HW216254   1.791  13.051   1.310  0.6254 -1.4041  1.7495
32882SOL     OW16255   9.351  10.433   7.834  0.3286  0.4030 -0.1617
32882SOL    HW116256   9.427  10.491   7.844  0.8643 -0.3045 -0.0712
32882SOL    HW216257   9.294  10.456   7.907 -0.1805  1.8694 -0.9803
32883SOL     OW16258   0.842   4.467   5.068  0.4354  0.1179 -0.2375
32883SOL    HW116259   0.803   4.383   5.091  1.1631  0.2658  1.7187
32883SOL    HW216260   0.931   4.446   5.039  1.1232  0.2920  1.6518
32884SOL     OW16261  11.459   1.562   2.412  0.0448  0.1227  0.8122
32884SOL    HW116262  11.441   1.655   2.398 -1.2818  0.0229  1.6588
32884SOL    HW216263  11.379   1.528   2.452  1.0208 -1.0926  1.8116
32885SOL     OW16264   4.158   8.412   2.338  0.0420  0.9555  0.1026
32885SOL    HW116265   4.231   8.461   2.299 -0.0256  0.4467 -0.6812
32885SOL    HW216266   4.142   8.340   2.277 -0.0453  0.1068  1.1038
32886SOL     OW16267  10.057   8.023   0.729  0.2448 -0.3728  0.1545
32886SOL    HW116268   9.964   8.013   0.711  0.3926 -2.4771  0.2770
32886SOL    HW216269  10.096   8.047   0.645 -0.2566 -0.7447 -0.1893
32887SOL     OW16270  11.263  12.597  12.588  0.2373 -0.3442 -0.6430
32887SOL    HW116271  11.312  12.611  12.507 -0.7544  0.4297 -1.1307
32887SOL    HW216272  11.325  12.554  12.647  1.3295  0.1513 -1.4116
32888SOL     OW16273  12.710  12.476  13.648 -0.6451 -0.5349 -0.2853
32888SOL    HW116274  12.696  12.521  13.565 -2.0229 -0.0072  0.1974
32888SOL    HW216275  12.624  12.440  13.671 -0.3284 -0.5654  0.9682
32889SOL     OW16276  10.511   9.393   0.897  0.0789 -0.7787  0.0430
32889SOL    HW116277  10.438   9.338   0.871 -1.3420  1.4240 -0.9452
32889SOL    HW216278  10.485   9.431   0.981  0.5159 -0.7087  0.1545
32890SOL     OW16279   2.183   1.732   9.595  0.0621 -0.0675  0.0613
32890SOL    HW116280   2.225   1.815   9.573  0.1034  0.2031  1.1134
32890SOL    HW216281   2.255   1.669   9.595  0.2219  0.1095  0.3369
32891SOL     OW16282   0.255   8.498  10.065 -0.1400 -0.1831 -0.0598
32891SOL    HW116283   0.255   8.528  10.156  2.2482 -1.0618  0.3164
32891SOL    HW216284   0.324   8.431  10.062  2.1187  1.9678 -3.1307
32892SOL     OW16285   1.666  13.076   5.486 -1.5233  0.1183 -0.0703
32892SOL    HW116286   1.680  12.990   5.526 -0.0073  1.3220  2.2213
32892SOL    HW216287   1.743  13.090   5.431 -2.5182 -0.5863 -1.6963
32893SOL     OW16288   8.603   2.363   0.278  0.2161  0.0355  0.4216
32893SOL    HW116289   8.549   2.342   0.202  0.5245 -1.4620  0.5795
32893SOL    HW216290   8.691   2.336   0.253  0.0462 -2.1803  1.8979
32894SOL     OW16291   1.481   1.789   8.243 -0.3591  0.5952  0.0574
32894SOL    HW116292   1.500   1.879   8.216  2.1747  0.3380  0.7152
32894SOL    HW216293   1.546   1.771   8.312 -0.5221 -1.8592 -0.3663
32895SOL     OW16294  11.825  10.309  13.705 -0.2340  0.3354  0.2254
32895SOL    HW116295  11.811  10.335  13.796 -0.5758 -0.2952  0.3587
32895SOL    HW216296  11.846  10.216  13.709 -2.2548 -0.1973 -0.4773
32896SOL     OW16297  12.157   7.045   1.485  0.2086  0.1339 -0.3344
32896SOL    HW116298  12.220   7.039   1.413  0.5156 -2.9177  0.0556
32896SOL    HW216299  12.093   7.111   1.456  1.3737  0.3809 -2.5181
32897SOL     OW16300   3.920   8.282   3.141  0.1132 -0.0438 -0.0983
32897SOL    HW116301   3.894   8.374   3.143  1.0432  0.2237  0.0203
32897SOL    HW216302   4.004   8.281   3.095  0.2000 -0.8119  0.0534
32898SOL     OW16303   2.631   5.889   7.744 -0.2610 -0.2874 -0.0937
32898SOL    HW116304   2.707   5.846   7.705  0.5470  0.5404  0.5171
32898SOL    HW216305   2.631   5.861   7.835 -0.6707 -0.2464 -0.0770
32899SOL     OW16306   8.270   6.191   0.289 -0.3865 -0.2642 -0.2851
32899SOL    HW116307   8.299   6.169   0.378 -0.8151 -0.8538 -0.2814
32899SOL    HW216308   8.219   6.271   0.300  0.6830  0.4212 -0.2026
32900SOL     OW16309  12.710   5.405   1.190  0.2879 -0.0390 -0.3475
32900SOL    HW116310  12.777   5.450   1.241 -0.9339  1.5019 -0.0346
32900SOL    HW216311  12.645   5.377   1.254  0.2005 -0.7808 -0.7448
32901SOL     OW16312   2.753   8.870  11.596  0.1272 -0.3706 -0.2158
32901SOL    HW116313   2.774   8.853  11.504 -0.6821  1.0308 -0.6869
32901SOL    HW216314   2.777   8.962  11.609 -0.3836 -0.3658  0.7954
32902SOL     OW16315   5.594   3.964   3.356 -0.0087  0.2758  0.7773
32902SOL    HW116316   5.659   3.904   3.321 -1.5585 -0.4375 -1.0848
32902SOL    HW216317   5.604   4.043   3.303 -0.1829  0.4382  0.9831
32903SOL     OW16318   3.802   9.176  13.514 -0.0963 -0.0734  0.3685
32903SOL    HW116319   3.786   9.256  13.463 -0.0574 -0.9333 -1.0454
32903SOL    HW216320   3.721   9.127  13.508  0.7870 -1.4477 -1.2759
32904SOL     OW16321   2.498   5.924   8.824 -0.1959  0.1683 -0.3315
32904SOL    HW116322   2.442   5.978   8.768  0.0214  1.7869  0.9105
32904SOL    HW216323   2.578   5.975   8.834 -0.3696  0.1416  1.7083
32905SOL     OW16324  10.069   3.117   7.196 -0.5376 -0.3604 -0.4275
32905SOL    HW116325  10.132   3.156   7.256 -0.1973  0.3977 -1.2488
32905SOL    HW216326  10.120   3.055   7.144 -0.8107 -0.9443 -0.0046
32906SOL     OW16327  12.456   3.533   3.366 -0.4805 -0.1996  0.4299
32906SOL    HW116328  12.361   3.517   3.368 -0.5732  0.3249  0.4085
32906SOL    HW216329  12.489   3.474   3.299 -0.7857 -0.4299  0.4785
32907SOL     OW16330  11.976  13.257  10.935 -0.1240  0.1920  0.1676
32907SOL    HW116331  11.901  13.200  10.916  0.1101 -0.1270  0.1986
32907SOL    HW216332  12.032  13.248  10.858  0.9607 -1.3134  1.0749
32908SOL     OW16333  13.444   7.832  14.017 -0.2068  0.2665  0.5175
32908SOL    HW116334  13.483   7.818  14.104  0.0586  0.0956  0.3712
32908SOL    HW216335  13.504   7.789  13.957  1.4243  3.1754 -0.1291
32909SOL     OW16336   6.914  11.591  13.724 -0.2053 -0.2976 -0.1298
32909SOL    HW116337   6.992  11.540  13.749 -0.8424 -0.8439  0.8285
32909SOL    HW216338   6.849  11.524  13.704 -1.3061  0.0712  1.9187
32910SOL     OW16339  10.836   3.659   2.221 -0.5670 -0.4706 -0.1164
32910SOL    HW116340  10.921   3.696   2.244 -1.7834  1.6753  1.2041
32910SOL    HW216341  10.829   3.672   2.127  0.9035 -1.5172 -0.4086
32911SOL     OW16342   4.449  13.056   6.441  0.0371 -0.1418 -0.2958
32911SOL    HW116343   4.434  12.984   6.380  0.4074 -1.7218  1.3936
32911SOL    HW216344   4.539  13.043   6.472  0.3661  1.4934 -0.4995
32912SOL     OW16345  10.390   8.361   3.940  0.1868 -0.2835 -0.1974
32912SOL    HW116346  10.439   8.312   3.873 -0.7351 -1.5875  0.0444
32912SOL    HW216347  10.438   8.343   4.021  0.5988  0.2965 -0.3076
32913SOL     OW16348   3.748   5.379   8.911  0.2058  0.0879 -0.3291
32913SOL    HW116349   3.810   5.449   8.932  1.6412 -1.1217 -0.3582
32913SOL    HW216350   3.674   5.393   8.970 -0.3593  2.6116 -1.4952
32914SOL     OW16351   3.887  10.348   8.321 -0.2701 -0.4819 -0.0241
32914SOL    HW116352   3.940  10.334   8.399 -0.6014 -0.0675  0.2886
32914SOL    HW216353   3.800  10.316   8.345  0.2591 -3.0664 -1.2161
32915SOL     OW16354   5.074   4.365   3.732 -0.7232  0.3530 -0.1516
32915SOL    HW116355   5.083   4.353   3.637  0.2581  0.9986 -0.1480
32915SOL    HW216356   4.985   4.335   3.751 -0.9053  0.1367 -1.2624
32916SOL     OW16357  13.179  12.491  11.173 -0.5972 -0.4847  0.4291
32916SOL    HW116358  13.140  12.578  11.175  0.6240  0.0822  2.0635
32916SOL    HW216359  13.115  12.437  11.125 -1.8923  1.0480  0.3386
32917SOL     OW16360  13.128   0.483   5.266  0.2156 -0.3162  0.1090
32917SOL    HW116361  13.096   0.562   5.223  0.9360 -0.5130 -0.8145
32917SOL    HW216362  13.093   0.488   5.355 -1.0050  0.2800 -0.3853
32918SOL     OW16363   1.355   1.356   0.014  0.3864  0.0741 -0.1436
32918SOL    HW116364   1.285   1.295   0.038 -0.9643  1.2358 -0.9563
32918SOL    HW216365   1.421   1.345   0.082 -1.7742  0.8308  2.2325
32919SOL     OW16366   1.849   3.971   8.583 -0.0815 -0.6310  0.2601
32919SOL    HW116367   1.941   3.998   8.575 -0.3367  0.2755  0.2663
32919SOL    HW216368   1.806   4.046   8.624 -0.8052 -1.1017  0.3736
32920SOL     OW16369   2.206  13.165  10.259  0.3327  0.1287 -0.0173
32920SOL    HW116370   2.227  13.207  10.176  2.0029 -2.5678 -1.0978
32920SOL    HW216371   2.113  13.143  10.252  0.6179 -0.7178 -1.5243
32921SOL     OW16372   8.977   2.154   0.962 -0.6141  0.4595  0.1113
32921SOL    HW116373   9.046   2.219   0.948 -0.1430 -0.0679 -0.0386
32921SOL    HW216374   9.019   2.085   1.012 -0.3568 -0.9868 -1.9906
32922SOL     OW16375   4.448  12.073   0.065 -0.3644 -0.0122  0.5654
32922SOL    HW116376   4.426  12.022   0.143  0.1420  1.5560  1.7959
32922SOL    HW216377   4.532  12.113   0.086 -0.4556  0.8487 -0.6082
32923SOL     OW16378   4.401  10.353   1.986 -0.3570  0.0158  0.4469
32923SOL    HW116379   4.344  10.278   1.972 -0.5329  0.0745  0.8332
32923SOL    HW216380   4.478  10.316   2.031  0.5983 -0.3232 -1.3589
32924SOL     OW16381   9.575  10.793  13.643  0.6569 -0.3806  0.1023
32924SOL    HW116382   9.600  10.708  13.606  1.9193  0.1437 -0.3053
32924SOL    HW216383   9.648  10.851  13.621  0.1326  0.6461  0.9837
32925SOL     OW16384  11.320   6.794   3.289  0.4495 -0.5033 -0.3194
32925SOL    HW116385  11.244   6.833   3.246  0.1830 -0.4731  0.1782
32925SOL    HW216386  11.379   6.867   3.303 -0.2321 -0.1869  1.0050
32926SOL     OW16387   3.031   4.033  13.493  0.2108 -0.0497 -0.0413
32926SOL    HW116388   3.046   4.127  13.490 -0.5355  0.0748 -0.0646
32926SOL    HW216389   2.938   4.023  13.473 -0.1969 -0.6405  1.9337
32927SOL     OW16390   8.516  13.348  10.569 -0.5930 -0.1464  0.3046
32927SOL    HW116391   8.573  13.409  10.523 -1.1383 -0.6831 -1.1429
32927SOL    HW216392   8.443  13.403  10.599 -0.1445  0.2420  0.7083
32928SOL     OW16393  10.445  10.246  14.092 -0.0893 -0.2941  0.3655
32928SOL    HW116394  10.371  10.194  14.122  0.2306 -0.7894  0.3192
32928SOL    HW216395  10.441  10.326  14.143 -0.9269 -0.1137  0.0338
32929SOL     OW16396   5.310   2.825   5.874  0.2771 -0.0714  0.1057
32929SOL    HW116397   5.268   2.818   5.788 -1.3499 -0.5782  0.9039
32929SOL    HW216398   5.305   2.737   5.910 -0.2485  0.4150  1.2565
32930SOL     OW16399   7.677   5.973   9.336 -0.1432  0.0262 -0.3530
32930SOL    HW116400   7.603   6.027   9.308 -0.3171 -0.4345 -0.7822
32930SOL    HW216401   7.636   5.894   9.373  0.0017  1.1193  2.3805
32931SOL     OW16402   1.057   0.707   4.039 -0.0724 -0.1428  0.0607
32931SOL    HW116403   1.018   0.755   4.112  0.1038 -1.1953  0.8632
32931SOL    HW216404   1.132   0.661   4.076  2.1082  1.9153 -1.4715
32932SOL     OW16405  13.998   1.206  11.176  0.1308 -0.7312  0.1558
32932SOL    HW116406  14.058   1.132  11.182  0.7934 -0.4880 -2.2708
32932SOL    HW216407  13.958   1.197  11.089  0.3812  1.8336 -0.2929
32933SOL     OW16408  11.375   9.370   6.753  0.3421 -0.2945  0.4914
32933SOL    HW116409  11.368   9.322   6.836  0.9140  0.5268  1.0335
32933SOL    HW216410  11.469   9.384   6.742  0.2309  0.0463 -0.0473
32934SOL     OW16411  10.521  10.604   6.448 -0.0614  0.0421  0.0147
32934SOL    HW116412  10.602  10.556   6.434  0.4203  0.6411  0.7092
32934SOL    HW216413  10.457  10.537   6.473  0.2650 -0.4004 -0.3304
32935SOL     OW16414   0.759   7.258   6.203  0.3554 -0.2628 -0.4794
32935SOL    HW116415   0.750   7.280   6.296 -1.2923 -2.9950  0.0969
32935SOL    HW216416   0.811   7.331   6.166  0.7698  1.0627  2.4604
32936SOL     OW16417  13.227   7.558  11.986 -0.4818 -0.0089 -0.8827
32936SOL    HW116418  13.268   7.578  11.903 -1.2464  0.8528 -1.0704
32936SOL    HW216419  13.282   7.600  12.052 -1.2249  1.4738 -1.1609
32937SOL     OW16420   0.803   5.045   7.590 -0.0509 -0.6974 -0.0406
32937SOL    HW116421   0.717   5.045   7.632  0.2561 -0.0411  0.6128
32937SOL    HW216422   0.838   5.132   7.607  0.9849 -1.1462  0.2129
32938SOL     OW16423   0.314   3.610   0.741 -0.2426  0.2854 -0.7273
32938SOL    HW116424   0.295   3.542   0.806  0.4113  1.2948  0.5724
32938SOL    HW216425   0.239   3.608   0.682 -0.2748 -1.5079 -0.6958
32939SOL     OW16426   3.363  10.374   6.182 -0.0585 -0.7658  0.2956
32939SOL    HW116427   3.311  10.454   6.177 -1.8924 -1.7966  1.8594
32939SOL    HW216428   3.454  10.405   6.181 -0.7188  1.3919  1.5013
32940SOL     OW16429   8.094   0.948   0.357  0.5027 -0.4481 -0.7468
32940SOL    HW116430   8.031   0.878   0.374  1.2832 -0.8864  0.5171
32940SOL    HW216431   8.155   0.910   0.294  0.1083 -0.3796 -1.1823
32941SOL     OW16432  13.877  10.178   3.132  0.1766  0.1156 -0.0916
32941SOL    HW116433  13.910  10.142   3.050  0.1513 -0.1729  0.0205
32941SOL    HW216434  13.954  10.180   3.189  0.1982  0.3373 -0.1308
32942SOL     OW16435   1.877   9.727   8.402 -0.0417 -0.3892 -0.3940
32942SOL    HW116436   1.908   9.646   8.441  0.6869  0.2152  0.3227
32942SOL    HW216437   1.941   9.793   8.428  0.0026  0.2129 -1.9129
32943SOL     OW16438   6.852   1.322   5.014 -0.0251  0.2795  0.2406
32943SOL    HW116439   6.873   1.370   4.934 -2.2664 -2.3255 -2.1310
32943SOL    HW216440   6.923   1.258   5.022  1.1747  1.6966  1.4858
32944SOL     OW16441   4.390   0.226   3.793 -0.2064  0.2535  0.2656
32944SOL    HW116442   4.429   0.157   3.739 -1.6181  0.1174 -0.6071
32944SOL    HW216443   4.305   0.243   3.754 -0.0054  2.3393  0.6071
32945SOL     OW16444   9.717   7.716  12.512 -0.5725 -0.0987 -0.7167
32945SOL    HW116445   9.778   7.741  12.581 -0.9619 -1.7291  0.2391
32945SOL    HW216446   9.631   7.730  12.550 -0.7892 -1.1180 -0.8283
32946SOL     OW16447  11.884   2.698   2.750  0.0036 -0.6151 -0.4525
32946SOL    HW116448  11.851   2.764   2.812 -0.3455 -1.2603  0.0604
32946SOL    HW216449  11.806   2.670   2.702 -0.0558 -1.4759  0.1251
32947SOL     OW16450   7.977  13.143   7.834  0.2706 -0.5016 -0.1925
32947SOL    HW116451   7.903  13.083   7.845  0.9918 -1.7136 -1.6299
32947SOL    HW216452   7.946  13.208   7.770  0.4710 -1.0802 -0.8892
32948SOL     OW16453  13.255   7.889  11.841  0.0001 -0.4038 -0.0275
32948SOL    HW116454  13.278   7.975  11.805 -0.1301 -0.2703  0.2035
32948SOL    HW216455  13.249   7.832  11.765 -1.3176  0.1070 -0.3369
32949SOL     OW16456   1.461   2.001   7.130 -0.3823  0.4395 -0.4879
32949SOL    HW116457   1.420   2.087   7.139 -1.5278 -0.0115 -1.1184
32949SOL    HW216458   1.555   2.018   7.139 -0.7029  1.4189  1.6325
32950SOL     OW16459  12.540   3.056   7.618  0.4072  0.1929 -0.2671
32950SOL    HW116460  12.487   2.977   7.615  0.0501  0.2811  1.8117
32950SOL    HW216461  12.601   3.041   7.690 -0.5434  2.2528  1.0910
32951SOL     OW16462   0.761   7.557  10.491 -0.3593 -0.2408  0.3634
32951SOL    HW116463   0.730   7.646  10.505 -0.8659  0.2671 -3.0361
32951SOL    HW216464   0.686   7.502  10.513 -0.0425  0.0779  2.4918
32952SOL     OW16465  14.043   9.223   7.655  0.4342 -0.0353  0.2220
32952SOL    HW116466  14.061   9.305   7.608 -0.0623  0.2663  0.5513
32952SOL    HW216467  14.065   9.242   7.746  0.6897 -0.3937  0.2381
32953SOL     OW16468  10.588   2.038   3.024  0.0955  0.0475  0.0689
32953SOL    HW116469  10.546   2.034   3.109 -1.1766 -0.3380 -0.5496
32953SOL    HW216470  10.669   1.988   3.034  0.6176  1.1075  1.3837
32954SOL     OW16471  10.562   9.541  13.304  0.1849  0.1842  0.2088
32954SOL    HW116472  10.609   9.465  13.272 -0.3804 -0.8181  1.6103
32954SOL    HW216473  10.551   9.524  13.398  0.6471  2.3270  0.7036
32955SOL     OW16474   2.826   6.775  11.539 -0.3168 -0.0698 -0.1782
32955SOL    HW116475   2.855   6.765  11.630 -2.2615  0.5298  0.5496
32955SOL    HW216476   2.847   6.865  11.516 -1.1565  0.2157  0.1776
32956SOL     OW16477   3.900   9.419   4.666 -0.3475  0.4884 -0.0021
32956SOL    HW116478   3.900   9.510   4.695 -0.7661 -0.1959  2.3085
32956SOL    HW216479   3.808   9.392   4.668 -0.3885  0.3290 -1.8927
32957SOL     OW16480   5.064  13.718   4.133  0.1552 -0.0458  0.1084
32957SOL    HW116481   4.998  13.786   4.124  0.8458  0.4584 -1.5660
32957SOL    HW216482   5.018  13.643   4.171 -1.4864  0.1426 -1.4355
32958SOL     OW16483   1.043   3.368  11.724 -0.0450  0.6969  0.1032
32958SOL    HW116484   0.955   3.354  11.756  0.6134  0.0997  1.7406
32958SOL    HW216485   1.077   3.440  11.777  0.4403  0.9673 -0.5547
32959SOL     OW16486   2.502   2.474  10.064 -0.2843 -0.4030 -0.7565
32959SOL    HW116487   2.421   2.485  10.014  0.3094 -1.4699 -2.0002
32959SOL    HW216488   2.568   2.455   9.999  0.8633 -0.1863  0.3112
32960SOL     OW16489  10.083  11.278   2.223  0.0035 -0.3015 -0.6398
32960SOL    HW116490  10.019  11.318   2.163  0.7987  1.2713 -0.4909
32960SOL    HW216491  10.162  11.269   2.170  0.6931  1.0432  0.1109
32961SOL     OW16492   4.758  11.046   4.712 -0.4301 -0.0749 -0.1077
32961SOL    HW116493   4.779  11.137   4.735 -0.3286 -0.3363  0.8934
32961SOL    HW216494   4.698  11.053   4.638  0.8385  0.7647 -1.0960
32962SOL     OW16495   8.141   2.483   6.235  0.1070 -0.4259 -0.2832
32962SOL    HW116496   8.196   2.459   6.310  0.3691  0.6476 -0.1160
32962SOL    HW216497   8.052   2.467   6.265  0.2432 -0.6716  0.0023
32963SOL     OW16498   7.105   6.505   3.196  0.1006  0.0953  0.3202
32963SOL    HW116499   7.186   6.453   3.199 -0.1935 -0.4411 -0.7042
32963SOL    HW216500   7.050   6.460   3.132  0.1919  2.1806 -1.3407
32964SOL     OW16501   4.788   4.195   1.799  0.0416 -0.2205 -0.3522
32964SOL    HW116502   4.847   4.225   1.730 -0.2502  0.8735 -0.1508
32964SOL    HW216503   4.810   4.103   1.812  1.2816  0.0132 -0.6950
32965SOL     OW16504   8.262   6.906   2.538  0.3709 -0.0683  0.0036
32965SOL    HW116505   8.224   6.921   2.452 -1.1946 -0.0250  0.6713
32965SOL    HW216506   8.321   6.832   2.525 -0.3074 -0.4613 -0.9916
32966SOL     OW16507   2.925  11.473  10.373  0.2112  0.4732  0.0824
32966SOL    HW116508   2.890  11.414  10.440  0.0185  0.5054  0.0099
32966SOL    HW216509   2.852  11.531  10.352 -0.2083 -0.4889 -1.2505
32967SOL     OW16510  13.803   8.455   2.677 -0.1183  0.4097 -0.3779
32967SOL    HW116511  13.821   8.361   2.666 -2.0659 -0.2390  1.2943
32967SOL    HW216512  13.744   8.477   2.604 -1.3623 -0.2398  0.3937
32968SOL     OW16513   2.088   8.588   8.344 -0.1072  0.2356 -0.6173
32968SOL    HW116514   2.117   8.522   8.406  0.8706  0.6851 -0.5763
32968SOL    HW216515   2.165   8.643   8.329 -1.2521  2.3085  0.5361
32969SOL     OW16516  12.469   4.257   6.008  0.0882 -0.1823  0.3247
32969SOL    HW116517  12.379   4.224   6.009 -0.7399  1.9495  1.7163
32969SOL    HW216518  12.500   4.242   6.097  0.3834  0.9153  0.4167
32970SOL     OW16519   3.804   8.867   0.810 -0.0672 -0.0486  0.1209
32970SOL    HW116520   3.824   8.779   0.844 -1.2022  0.6018  2.6759
32970SOL    HW216521   3.806   8.924   0.887  1.7251  2.4367 -1.6252
32971SOL     OW16522   0.213   4.242  13.480  0.2698 -0.5057 -0.1999
32971SOL    HW116523   0.199   4.322  13.530  1.0131 -0.8061  0.5099
32971SOL    HW216524   0.306   4.244  13.457 -0.1056 -0.2671 -1.7819
32972SOL     OW16525  10.755   3.265  10.218  0.0476  0.3259 -0.3256
32972SOL    HW116526  10.713   3.351  10.220 -1.2371 -0.2147 -1.4742
32972SOL    HW216527  10.823   3.269  10.284 -1.6311  1.3959  1.4594
32973SOL     OW16528   3.446  11.598   2.003 -0.1437  0.8496  0.1528
32973SOL    HW116529   3.465  11.668   2.065  0.7990  1.2114 -0.5228
32973SOL    HW216530   3.529  11.582   1.958  0.1040 -1.7921  1.3582
32974SOL     OW16531  11.837   7.067   4.893  0.0259  0.4206 -0.1353
32974SOL    HW116532  11.841   6.977   4.862 -1.9470  0.9474 -2.1982
32974SOL    HW216533  11.913   7.110   4.855 -0.2173  0.1123 -0.9874
32975SOL     OW16534  12.241  12.887   8.739  0.5251 -0.0088 -0.1819
32975SOL    HW116535  12.290  12.950   8.791  0.5686 -0.4463  0.3088
32975SOL    HW216536  12.245  12.806   8.789 -1.6745  0.2137  0.4581
32976SOL     OW16537  12.410   2.818   1.121  0.6062 -0.1271 -0.2121
32976SOL    HW116538  12.454   2.825   1.206 -1.2793 -0.3528  0.8170
32976SOL    HW216539  12.317   2.826   1.141  0.0447 -1.3450 -2.1245
32977SOL     OW16540   2.187   7.556   7.530 -0.0557 -0.1531 -0.1862
32977SOL    HW116541   2.149   7.608   7.459 -0.1502 -0.6671 -0.5184
32977SOL    HW216542   2.146   7.470   7.521  0.2776 -0.3564  0.2105
32978SOL     OW16543   4.420   3.467   4.232 -0.2032  0.4089 -0.0568
32978SOL    HW116544   4.510   3.441   4.213  0.2596  1.3384  0.7600
32978SOL    HW216545   4.366   3.409   4.178  0.9332  0.9480 -1.8633
32979SOL     OW16546   5.018  13.831  10.867 -0.2672 -0.0544  0.1412
32979SOL    HW116547   4.985  13.903  10.921 -0.2456  0.5234 -0.5961
32979SOL    HW216548   4.943  13.804  10.814  0.1874  0.6674 -0.9012
32980SOL     OW16549  10.752   9.151  12.031 -0.6141  0.1774  0.7268
32980SOL    HW116550  10.751   9.112  11.943 -0.7740 -0.2497  0.9132
32980SOL    HW216551  10.692   9.226  12.024 -3.7469 -2.0344  1.4054
32981SOL     OW16552   1.830   4.587  13.378 -0.2354  0.1260  0.2569
32981SOL    HW116553   1.898   4.533  13.339 -0.5254 -0.6566  0.8111
32981SOL    HW216554   1.826   4.665  13.322  1.4699  0.4412  0.5099
32982SOL     OW16555   3.278   7.006  12.620  0.0156 -0.0890 -0.0981
32982SOL    HW116556   3.208   6.949  12.651 -0.3062 -1.0576 -2.3690
32982SOL    HW216557   3.238   7.058  12.550  1.1994  0.3800 -0.4521
32983SOL     OW16558   1.918   8.114   2.433 -0.1609 -0.1590  0.7445
32983SOL    HW116559   1.899   8.115   2.339 -0.4476 -1.5452  0.7765
32983SOL    HW216560   2.013   8.112   2.439 -0.1503 -1.9327  0.4311
32984SOL     OW16561  13.879   8.335   4.836 -0.1282  0.2865  0.1632
32984SOL    HW116562  13.957   8.390   4.831  0.0927 -0.1513 -2.3135
32984SOL    HW216563  13.806   8.395   4.824 -0.4039  0.9049  3.7253
32985SOL     OW16564   5.088   9.202   3.831 -0.2461 -0.1200  0.5261
32985SOL    HW116565   5.170   9.252   3.835  0.2035 -0.8927  1.3880
32985SOL    HW216566   5.054   9.219   3.743  0.6352  0.5240  0.2922
32986SOL     OW16567   9.606   3.005   2.838 -0.2255  0.1419 -0.8743
32986SOL    HW116568   9.590   3.052   2.920  1.3827  0.9072 -0.9513
32986SOL    HW216569   9.600   3.073   2.770  1.0965  0.0620 -1.0958
32987SOL     OW16570   6.713   1.883   5.921 -0.1174  0.1943  0.0989
32987SOL    HW116571   6.716   1.798   5.877 -0.4443 -0.3762  1.1530
32987SOL    HW216572   6.648   1.871   5.991 -1.0918  1.6882 -0.5081
32988SOL     OW16573   5.098   4.058   3.059 -0.0979  0.0140  0.8970
32988SOL    HW116574   5.162   4.085   2.993  1.4468  1.1509  2.7448
32988SOL    HW216575   5.017   4.046   3.010  1.1381  0.0449 -1.3029
32989SOL     OW16576  13.191   1.832   6.351  0.7367 -0.0284  0.6467
32989SOL    HW116577  13.202   1.863   6.261 -0.4765  0.1690  0.5384
32989SOL    HW216578  13.230   1.744   6.351  0.0450 -0.3553 -0.3015
32990SOL     OW16579   2.124  12.839  11.532 -0.0178  0.5201  0.2814
32990SOL    HW116580   2.205  12.854  11.580  0.1848 -0.7595  0.3775
32990SOL    HW216581   2.055  12.848  11.598  0.0767  1.0440  0.3169
32991SOL     OW16582   7.798   0.102   6.098 -0.5377  0.0424  0.8929
32991SOL    HW116583   7.794   0.058   6.013 -0.1375  0.0600  0.8634
32991SOL    HW216584   7.836   0.036   6.157 -1.5686 -0.2526  1.2454
32992SOL     OW16585  10.334   4.151   6.795  0.0030  0.0303 -0.5737
32992SOL    HW116586  10.265   4.110   6.847 -1.1631  2.2292 -0.2558
32992SOL    HW216587  10.407   4.162   6.856 -0.6258  0.7440  0.0832
32993SOL     OW16588   2.423  13.327  11.176 -0.0053 -0.3306  0.1499
32993SOL    HW116589   2.355  13.267  11.207 -0.3891 -0.2886 -0.5866
32993SOL    HW216590   2.449  13.291  11.091  0.9379 -0.3752  0.4481
32994SOL     OW16591   2.686  10.615   1.595 -0.1676  0.2520 -0.4566
32994SOL    HW116592   2.680  10.522   1.617 -1.2025  0.2935 -0.4964
32994SOL    HW216593   2.756  10.649   1.650  0.4604 -0.6238 -0.7034
32995SOL     OW16594   9.297   0.241  12.815 -0.0810 -0.4632 -0.4236
32995SOL    HW116595   9.391   0.254  12.826 -0.2200 -0.3286  0.7649
32995SOL    HW216596   9.259   0.328  12.824 -0.3666 -0.5927 -0.3584
32996SOL     OW16597  11.837  13.641   8.446 -0.3755 -0.1724 -0.0071
32996SOL    HW116598  11.803  13.656   8.535 -0.3755 -0.1810 -0.0054
32996SOL    HW216599  11.875  13.553   8.450 -0.3467 -0.1597 -0.0067
32997SOL     OW16600  11.734   0.421   7.165  0.0008 -0.7234  0.1759
32997SOL    HW116601  11.795   0.492   7.148 -0.8818  0.2242  0.8177
32997SOL    HW216602  11.728   0.373   7.082  0.0393  0.4094 -0.4932
32998SOL     OW16603   7.628   8.316   4.937  0.3998  0.0829 -0.2986
32998SOL    HW116604   7.626   8.231   4.892  0.1315 -0.3065  0.4255
32998SOL    HW216605   7.673   8.298   5.019 -0.7189  0.3657  0.3980
32999SOL     OW16606   2.848   9.896   6.371  0.8000 -0.3507  0.2503
32999SOL    HW116607   2.851   9.814   6.322  0.1042 -0.8622  1.0159
32999SOL    HW216608   2.774   9.884   6.432  1.3868  0.4070  1.1363
33000SOL     OW16609  10.829   9.930   7.687 -0.4464 -0.3750  1.0339
33000SOL    HW116610  10.759   9.961   7.745  0.2418  1.4109  0.9808
33000SOL    HW216611  10.894   9.892   7.746 -0.5806 -0.2449  1.2685
33001SOL     OW16612  12.976   1.687  13.428 -0.2425  0.5620  0.1393
33001SOL    HW116613  12.922   1.703  13.505 -0.8785  1.0989 -0.4103
33001SOL    HW216614  12.959   1.596  13.404 -0.4471  0.5555  0.3116
33002SOL     OW16615   2.066  11.212   7.434 -0.5471  0.1583  0.2643
33002SOL    HW116616   1.982  11.257   7.427  1.2186  3.5340 -2.1058
33002SOL    HW216617   2.099  11.235   7.521 -0.4979  2.0445 -0.2168
33003SOL     OW16618   0.413   9.208   4.552  0.2186 -0.3409 -0.1855
33003SOL    HW116619   0.317   9.213   4.551  0.2144 -0.2202  0.6719
33003SOL    HW216620   0.440   9.268   4.621  0.7987 -1.9487  1.0421
33004SOL     OW16621   7.921   5.466   6.159  0.2476 -0.1809 -0.1982
33004SOL    HW116622   8.006   5.503   6.139 -0.4490  0.9885 -1.1122
33004SOL    HW216623   7.862   5.501   6.092 -0.7786 -1.6854 -0.1388
33005SOL     OW16624   3.459   6.332  10.431 -0.5321 -0.2079  0.3845
33005SOL    HW116625   3.363   6.333  10.441 -0.4547 -0.1356  1.1337
33005SOL    HW216626   3.474   6.377  10.348 -1.2555 -1.9396 -0.7400
33006SOL     OW16627   5.183  10.285   7.722 -0.6555 -0.5019 -0.0772
33006SOL    HW116628   5.099  10.239   7.730 -0.1826 -1.1251  1.7804
33006SOL    HW216629   5.214  10.263   7.635 -1.6082 -1.7129 -0.1329
33007SOL     OW16630  12.314   9.590   3.264  0.1130 -0.0403 -0.3425
33007SOL    HW116631  12.227   9.629   3.251 -0.0213 -0.4607 -0.7627
33007SOL    HW216632  12.367   9.660   3.301 -0.4158  0.2129 -0.0606
33008SOL     OW16633   6.538   5.450   0.652 -0.4936  0.0914 -0.6488
33008SOL    HW116634   6.582   5.461   0.567  0.6429  0.3291 -0.0524
33008SOL    HW216635   6.601   5.483   0.716 -0.9193 -1.0148  0.3826
33009SOL     OW16636   7.799  13.867   5.791 -0.4346  0.2096 -0.7884
33009SOL    HW116637   7.787  13.880   5.885  1.8587 -0.1266 -0.4069
33009SOL    HW216638   7.827  13.952   5.758 -0.9015  0.2359 -1.1384
33010SOL     OW16639   0.165   6.342   2.067  0.2274 -0.2899 -0.2172
33010SOL    HW116640   0.123   6.274   2.119  0.2437 -0.5107 -0.4893
33010SOL    HW216641   0.140   6.424   2.109 -0.1013 -0.4451 -0.1075
33011SOL     OW16642   9.803   2.772   5.887  0.0258 -0.5683  0.0294
33011SOL    HW116643   9.745   2.819   5.947  0.1733 -2.1709  1.4946
33011SOL    HW216644   9.859   2.840   5.850 -1.1258  0.6741  0.4887
33012SOL     OW16645   4.690   2.409   7.448  0.5599 -0.0148  0.2731
33012SOL    HW116646   4.768   2.406   7.503 -0.6166 -0.9125  1.9531
33012SOL    HW216647   4.660   2.499   7.454  0.0123 -0.2698  1.7787
33013SOL     OW16648   2.122  13.845  12.313  0.5502 -0.1883  0.3598
33013SOL    HW116649   2.147  13.827  12.404  0.4923 -1.4708  0.1381
33013SOL    HW216650   2.205  13.841  12.265  0.2755 -2.2026 -0.0317
33014SOL     OW16651  10.754  13.156   4.596  0.6093 -0.2432  0.0302
33014SOL    HW116652  10.786  13.245   4.609  0.2780 -0.2077  0.5891
33014SOL    HW216653  10.765  13.114   4.681  0.5582 -0.6712 -0.1750
33015SOL     OW16654   4.360   4.744   3.301  0.8334 -0.1347  0.0474
33015SOL    HW116655   4.447   4.782   3.288  0.0729  1.9251  0.6834
33015SOL    HW216656   4.330   4.779   3.385 -0.9029 -0.2446 -0.4870
33016SOL     OW16657   8.642   0.422   5.654  0.3763  0.1203 -0.1173
33016SOL    HW116658   8.656   0.510   5.619  0.8424  0.4823  0.9268
33016SOL    HW216659   8.593   0.435   5.734  1.7682 -0.4134  0.8701
33017SOL     OW16660  13.337   8.203   9.143  0.3516  0.2728  0.2303
33017SOL    HW116661  13.370   8.293   9.146 -0.6811  0.6464  2.5114
33017SOL    HW216662  13.244   8.212   9.123  0.4893 -0.4227 -0.8400
33018SOL     OW16663  10.471  11.586  10.325 -0.1037 -0.0073  0.0732
33018SOL    HW116664  10.483  11.635  10.406 -0.2875 -1.7573  1.2126
33018SOL    HW216665  10.384  11.548  10.332 -0.2985  0.1662 -1.1648
33019SOL     OW16666   9.599   0.614  14.045 -0.1118 -0.1160  0.7288
33019SOL    HW116667   9.623   0.650  13.959  0.1091  0.3844  0.9941
33019SOL    HW216668   9.645   0.670  14.108 -1.2985  0.3359  1.2269
33020SOL     OW16669   0.527  14.018  10.399  0.0730 -0.3111  0.3617
33020SOL    HW116670   0.612  14.003  10.357  0.0722 -0.4325  0.4040
33020SOL    HW216671   0.521  13.950  10.465 -1.1242 -1.8966 -1.2706
33021SOL     OW16672   8.876   8.826  13.153  0.0407 -0.4549 -0.6031
33021SOL    HW116673   8.915   8.822  13.065  1.9182 -2.6344  0.2354
33021SOL    HW216674   8.828   8.744  13.162 -0.0766 -0.2886  0.4476
33022SOL     OW16675   2.003  12.874   2.375 -0.0064 -0.5461  0.4912
33022SOL    HW116676   1.910  12.897   2.382  0.0397  0.4778 -1.4448
33022SOL    HW216677   2.008  12.816   2.299  1.1654  1.2781 -0.9226
33023SOL     OW16678   8.282   7.980   3.637 -0.4097 -0.5680  0.0550
33023SOL    HW116679   8.271   7.914   3.568 -1.5453  0.2639 -0.5983
33023SOL    HW216680   8.307   7.931   3.714  2.7350 -1.4117 -1.3222
33024SOL     OW16681  11.912   4.521  13.204 -0.0190 -0.6160 -0.0735
33024SOL    HW116682  11.825   4.547  13.174 -0.5400 -2.1222  0.0570
33024SOL    HW216683  11.903   4.429  13.227  1.2840 -0.4560  1.2290
33025SOL     OW16684   7.657  13.135   4.284  0.0882 -0.1111 -0.1434
33025SOL    HW116685   7.668  13.059   4.341  0.9757  0.1162  0.0133
33025SOL    HW216686   7.616  13.100   4.205  1.5182 -1.0004 -0.5469
33026SOL     OW16687   2.722   1.492  10.337  0.4464 -0.8552  0.3532
33026SOL    HW116688   2.656   1.434  10.298  0.8692 -0.9057 -0.3147
33026SOL    HW216689   2.753   1.444  10.414  3.4167 -3.3448 -2.1175
33027SOL     OW16690   7.822  13.051   1.912 -0.4156 -0.0809 -0.1767
33027SOL    HW116691   7.732  13.043   1.944 -0.2465 -2.0609 -0.0904
33027SOL    HW216692   7.875  13.012   1.980  0.3716 -0.2685 -0.8815
33028SOL     OW16693   8.195   8.962   8.049  0.6136  0.1925 -0.1772
33028SOL    HW116694   8.184   8.890   7.988  0.6329 -1.3644  1.5663
33028SOL    HW216695   8.108   9.001   8.058  0.0578 -1.1510  0.6201
33029SOL     OW16696   9.161   2.494  12.304  0.3358 -0.0917  0.0815
33029SOL    HW116697   9.237   2.461  12.350 -0.2893  0.2530  1.4028
33029SOL    HW216698   9.197   2.557  12.241  1.1527 -0.0360  0.5909
33030SOL     OW16699   0.575   5.642   8.527  0.1830  0.4357 -0.7589
33030SOL    HW116700   0.642   5.632   8.460 -0.1119 -1.1530 -0.8641
33030SOL    HW216701   0.507   5.696   8.486  0.6438  0.6646 -1.2268
33031SOL     OW16702   6.348  10.287   7.845 -0.5938 -0.0701 -0.5130
33031SOL    HW116703   6.281  10.304   7.912 -0.8393 -1.6133 -0.3389
33031SOL    HW216704   6.329  10.199   7.814  1.4514 -0.6271 -0.3381
33032SOL     OW16705   5.077   2.003   6.635  0.2874  0.0105  0.5552
33032SOL    HW116706   5.051   1.959   6.716  0.1678 -0.2011  0.4028
33032SOL    HW216707   4.995   2.023   6.591  0.2820  1.4259  1.1614
33033SOL     OW16708  11.056   7.548   7.212 -0.0032  0.0856 -0.2715
33033SOL    HW116709  11.067   7.574   7.120  0.5302 -0.9640 -0.5151
33033SOL    HW216710  10.987   7.605   7.245 -0.7815 -0.0855 -1.5559
33034SOL     OW16711   5.150   2.177  13.976 -0.2569 -0.0979 -0.0944
33034SOL    HW116712   5.119   2.156  13.888  1.5664 -1.3419 -0.5056
33034SOL    HW216713   5.123   2.102  14.029 -0.6626  0.2818  0.2438
33035SOL     OW16714   2.431   1.895   3.845 -0.0469 -0.0263  0.7373
33035SOL    HW116715   2.523   1.870   3.846 -0.3046 -1.0427  0.6055
33035SOL    HW216716   2.392   1.838   3.778 -1.2079 -1.3026  2.4288
33036SOL     OW16717   5.040   7.305   8.263 -0.0088  0.2524  0.1551
33036SOL    HW116718   4.949   7.309   8.292  0.3600 -0.1601  1.4835
33036SOL    HW216719   5.037   7.319   8.169 -1.6908 -2.3562 -0.2522
33037SOL     OW16720   2.316   3.107   7.556 -1.0598 -0.0147  0.0962
33037SOL    HW116721   2.408   3.085   7.572 -0.8731  0.0137 -0.8899
33037SOL    HW216722   2.295   3.172   7.624 -0.0655  0.7181 -0.2741
33038SOL     OW16723   8.930   3.279   3.724  0.4072 -0.2490 -0.4380
33038SOL    HW116724   8.945   3.186   3.743  0.8121 -0.3300 -1.1226
33038SOL    HW216725   8.937   3.322   3.809 -3.8744 -1.2857  0.6538
33039SOL     OW16726   1.925   0.890   1.465  0.3371 -0.2579 -0.1758
33039SOL    HW116727   1.912   0.795   1.466 -0.1907 -0.1910  0.5426
33039SOL    HW216728   1.872   0.922   1.538  0.1402  0.6397 -0.6908
33040SOL     OW16729  10.114  10.149   2.142 -0.5658  0.1979  0.0453
33040SOL    HW116730  10.186  10.198   2.181 -1.8451 -0.4892  3.6114
33040SOL    HW216731  10.041  10.211   2.139 -0.8492 -0.1361 -0.0801
33041SOL     OW16732   4.911   0.904   9.604 -0.1810  0.2937 -0.5575
33041SOL    HW116733   4.850   0.887   9.675 -0.3428 -1.8627 -1.1516
33041SOL    HW216734   4.931   0.998   9.611 -0.1474  0.1609  2.3403
33042SOL     OW16735   1.159   7.501   0.982  0.0224  0.0521  0.6157
33042SOL    HW116736   1.173   7.457   1.065  0.4243  0.5664  0.8249
33042SOL    HW216737   1.184   7.592   0.998 -2.1996  0.7393  0.6418
33043SOL     OW16738   3.322  13.690  12.222 -0.1411  0.1363 -0.3277
33043SOL    HW116739   3.414  13.661  12.225 -0.4486 -0.9464 -1.0518
33043SOL    HW216740   3.302  13.714  12.313  0.2545 -1.5954  0.2583
33044SOL     OW16741   2.739   3.135   6.188  0.1590 -0.4764  0.2671
33044SOL    HW116742   2.653   3.095   6.180  0.1662 -0.8182  1.6664
33044SOL    HW216743   2.745   3.160   6.280 -0.5511  4.3471 -0.6992
33045SOL     OW16744   4.212  12.379  12.065  0.1393 -0.3798  0.4496
33045SOL    HW116745   4.222  12.473  12.047  0.2194 -0.3337  0.7283
33045SOL    HW216746   4.151  12.348  11.998  0.4364 -0.2121  0.0984
33046SOL     OW16747   4.743   7.306   2.365  0.5111  0.0182 -0.3279
33046SOL    HW116748   4.736   7.399   2.341  1.8150  0.2612  0.0996
33046SOL    HW216749   4.773   7.263   2.285  0.3519  0.0501 -0.4041
33047SOL     OW16750  11.372   9.236  13.149 -0.0405  0.1962  0.3861
33047SOL    HW116751  11.389   9.320  13.108 -1.7459  0.4526  0.1235
33047SOL    HW216752  11.451   9.216  13.199  1.8597  0.1918 -2.4387
33048SOL     OW16753   3.405   7.786  13.441  0.3220  0.7370  0.0256
33048SOL    HW116754   3.446   7.805  13.356 -2.1171 -0.6447 -1.6098
33048SOL    HW216755   3.314   7.814  13.430  0.1772  1.4522  2.6006
33049SOL     OW16756   6.789  12.626  11.376 -0.5599  0.2576 -0.7753
33049SOL    HW116757   6.782  12.721  11.366  1.6880  0.7936  1.5618
33049SOL    HW216758   6.743  12.608  11.458 -0.1364 -0.5234 -0.7038
33050SOL     OW16759   3.802   9.121   0.961  0.2315  0.1417 -0.2150
33050SOL    HW116760   3.712   9.109   0.930 -0.7166  2.3356  1.4456
33050SOL    HW216761   3.849   9.159   0.886  0.2140 -2.1782 -1.5213
33051SOL     OW16762   6.846   5.264  12.556 -0.0553 -0.0606 -0.0059
33051SOL    HW116763   6.811   5.340  12.602 -0.3908 -1.4674  2.2085
33051SOL    HW216764   6.823   5.279  12.464 -2.9889  0.9910  0.7831
33052SOL     OW16765   5.717   8.292  10.215  0.2863 -0.2056 -0.1978
33052SOL    HW116766   5.693   8.233  10.287  0.5200 -0.4427 -0.3134
33052SOL    HW216767   5.725   8.235  10.139 -0.0932  0.0651 -0.4480
33053SOL     OW16768   0.735   1.366   0.884 -0.2068  0.3171 -0.0855
33053SOL    HW116769   0.657   1.417   0.907 -0.8871 -0.6858 -0.0817
33053SOL    HW216770   0.701   1.294   0.830  0.6519 -0.3853  0.2859
33054SOL     OW16771  12.880   9.117  10.738 -0.4645  0.2765  0.2168
33054SOL    HW116772  12.895   9.208  10.764 -0.3537  0.6827 -1.2169
33054SOL    HW216773  12.815   9.085  10.801 -0.3964  1.2994  0.8255
33055SOL     OW16774   0.852  13.198  10.660  0.1204 -0.3644  0.8296
33055SOL    HW116775   0.940  13.219  10.688  0.2527  0.3991 -0.1215
33055SOL    HW216776   0.858  13.188  10.565 -1.0255  0.8784  0.5926
33056SOL     OW16777   1.615   0.914   6.477 -0.1321 -0.3992 -0.4351
33056SOL    HW116778   1.575   0.879   6.558  1.1807 -1.3118 -0.1489
33056SOL    HW216779   1.611   1.009   6.488 -0.7470 -0.4947  0.3161
33057SOL     OW16780   2.356  11.246   3.485 -0.5410 -0.2676  0.2618
33057SOL    HW116781   2.344  11.155   3.512 -1.2201 -0.7704 -1.5644
33057SOL    HW216782   2.276  11.268   3.437  0.0241  0.9637 -0.1727
33058SOL     OW16783   4.353   9.413   0.400  0.2647  0.3806  0.3066
33058SOL    HW116784   4.320   9.325   0.415  0.4209  0.0058 -1.3011
33058SOL    HW216785   4.274   9.469   0.400 -0.7955 -0.6363 -4.4892
33059SOL     OW16786  12.696   0.160   7.614  0.4326 -0.0061 -0.0363
33059SOL    HW116787  12.622   0.140   7.671  0.2666 -0.1325 -0.2970
33059SOL    HW216788  12.665   0.141   7.526  0.4122  0.9594 -0.2572
33060SOL     OW16789   1.084   1.079   5.112  0.1049 -0.9405  0.0434
33060SOL    HW116790   1.081   1.164   5.068  1.8526  0.0451  1.6699
33060SOL    HW216791   0.993   1.062   5.138 -0.3829  0.0903 -0.9212
33061SOL     OW16792  12.684   7.205   4.674 -0.5008  0.0921 -0.1737
33061SOL    HW116793  12.630   7.136   4.712 -0.0930 -0.3240 -0.3363
33061SOL    HW216794  12.772   7.168   4.671  0.5153  1.8333  2.9981
33062SOL     OW16795   3.825  13.111   7.917 -0.1124 -0.4841  0.0098
33062SOL    HW116796   3.882  13.150   7.983  0.6233 -0.6429 -0.5313
33062SOL    HW216797   3.839  13.163   7.838 -0.2775 -0.8824 -0.2862
33063SOL     OW16798   4.744   2.307   8.551 -0.0487 -0.6461  0.1143
33063SOL    HW116799   4.719   2.218   8.575 -2.2405 -0.1414 -0.1173
33063SOL    HW216800   4.728   2.360   8.629 -0.3770 -0.1804 -0.2574
33064SOL     OW16801   0.018  10.891   5.983  0.1392 -0.4783  0.2796
33064SOL    HW116802  -0.026  10.810   5.959 -2.0688  0.7682 -0.0984
33064SOL    HW216803   0.067  10.916   5.904 -2.5830  0.6812 -1.1706
33065SOL     OW16804   3.876   5.692  12.435  0.4131  0.4452 -0.6152
33065SOL    HW116805   3.933   5.676  12.511 -2.0249 -1.5013  0.9624
33065SOL    HW216806   3.898   5.623  12.373 -2.3303 -2.6344  1.4598
33066SOL     OW16807   7.907  12.897   2.591 -0.7846  0.3150  0.1269
33066SOL    HW116808   7.964  12.821   2.591 -0.5605  0.4835 -0.3064
33066SOL    HW216809   7.963  12.970   2.615 -0.7444  0.5294 -0.5915
33067SOL     OW16810   8.873   8.138   4.838  0.3694 -0.1361 -0.0158
33067SOL    HW116811   8.854   8.064   4.781 -2.5146 -0.2060  0.8663
33067SOL    HW216812   8.921   8.199   4.783 -0.0321 -1.2881 -1.7285
33068SOL     OW16813   4.744   5.770   5.307  0.2877 -0.5098 -0.0875
33068SOL    HW116814   4.781   5.823   5.236 -2.1138  1.2542 -0.1452
33068SOL    HW216815   4.671   5.724   5.267  0.7827 -1.9459  0.5882
33069SOL     OW16816   7.924   2.432   9.884  0.3321  0.5183 -0.0578
33069SOL    HW116817   7.991   2.501   9.887  0.4264  0.4334 -0.2154
33069SOL    HW216818   7.972   2.351   9.900  0.5518  0.2610 -1.8048
33070SOL     OW16819  12.772   7.135   7.162  0.8468  0.3407 -0.6440
33070SOL    HW116820  12.818   7.197   7.219 -0.5849  0.5100  0.3989
33070SOL    HW216821  12.792   7.049   7.199 -2.0057  0.5472  1.7877
33071SOL     OW16822   4.164  12.884  10.454 -0.2343  0.2302  0.1174
33071SOL    HW116823   4.152  12.906  10.362 -0.6589  0.7796  0.3010
33071SOL    HW216824   4.119  12.800  10.465 -1.6440  0.9657  0.1907
33072SOL     OW16825   5.687   4.013   1.589  0.3210  0.4985  0.0995
33072SOL    HW116826   5.702   3.990   1.680 -2.5039 -0.6247  0.3951
33072SOL    HW216827   5.636   4.094   1.594  0.6719  0.7636 -0.5263
33073SOL     OW16828   2.968  10.281   4.526 -0.0145  0.6791  0.3629
33073SOL    HW116829   3.017  10.199   4.536  0.5980  1.1969  2.0181
33073SOL    HW216830   2.962  10.294   4.432 -0.3725 -1.3990  0.0412
33074SOL     OW16831  11.525   4.173   8.082  0.4341  0.0565 -0.2697
33074SOL    HW116832  11.460   4.132   8.139 -0.4380 -1.5499 -2.2629
33074SOL    HW216833  11.474   4.235   8.029  0.7291 -0.3558 -1.0449
33075SOL     OW16834   9.083   0.049  13.791  0.0738  0.6712  0.1530
33075SOL    HW116835   9.107   0.074  13.880  0.8307  0.4622  0.0140
33075SOL    HW216836   9.016  -0.018  13.802  2.2335 -1.5811  0.6820
33076SOL     OW16837   2.474   8.036   9.139  0.1749  0.0828 -0.2094
33076SOL    HW116838   2.427   8.006   9.062  0.2591 -0.2150 -0.1499
33076SOL    HW216839   2.433   7.989   9.212 -0.0893  0.5731 -0.0359
33077SOL     OW16840   1.863   0.323   4.851 -0.4549  0.1768  0.3653
33077SOL    HW116841   1.951   0.326   4.813 -0.4616  0.5800  0.3723
33077SOL    HW216842   1.871   0.264   4.925 -0.5605 -1.0287 -0.5495
33078SOL     OW16843  11.626   9.321   6.473  0.0135  0.1868  0.2000
33078SOL    HW116844  11.664   9.342   6.388 -1.3943  1.1599 -0.2257
33078SOL    HW216845  11.617   9.406   6.517  0.6730 -0.2991  1.3111
33079SOL     OW16846  12.446   5.655  13.911  0.0109 -0.5975  0.0459
33079SOL    HW116847  12.466   5.563  13.893  0.1894 -0.6544  0.5315
33079SOL    HW216848  12.355   5.666  13.883  0.1940 -0.7550 -0.6249
33080SOL     OW16849   1.915   0.272   1.458 -0.3654 -0.1586 -0.3087
33080SOL    HW116850   1.989   0.230   1.414 -0.2254  0.7877 -1.0037
33080SOL    HW216851   1.851   0.287   1.389 -0.4071  0.7818 -0.0803
33081SOL     OW16852   9.848  13.645   9.536  0.0967 -0.0534 -0.1209
33081SOL    HW116853   9.804  13.634   9.621 -1.5989 -1.2639 -1.1030
33081SOL    HW216854   9.921  13.582   9.539  1.5770  1.6005  1.3090
33082SOL     OW16855  13.124   9.634   3.470  0.0593  0.0108 -0.6811
33082SOL    HW116856  13.064   9.597   3.406 -0.7826 -0.8776  0.5702
33082SOL    HW216857  13.195   9.570   3.476 -0.2410 -0.2876 -0.2022
33083SOL     OW16858  13.282   6.465   5.680 -0.0310  0.1826 -0.3323
33083SOL    HW116859  13.299   6.381   5.638  1.8156 -1.5985  3.5619
33083SOL    HW216860  13.202   6.450   5.731 -1.3334  1.8031 -1.7604
33084SOL     OW16861   9.572  12.151   3.893  0.1636 -0.2415  0.7617
33084SOL    HW116862   9.625  12.204   3.953 -0.8387  0.1034  1.3687
33084SOL    HW216863   9.624  12.146   3.813  0.4607  1.3280  0.8249
33085SOL     OW16864   9.018   0.353   6.786 -0.4035 -0.2189  0.4080
33085SOL    HW116865   9.043   0.381   6.874  0.7300 -1.6705  0.5867
33085SOL    HW216866   8.946   0.412   6.762 -0.4684  0.4730  2.1255
33086SOL     OW16867   2.896  10.948   4.587 -0.1084 -0.1296  0.1532
33086SOL    HW116868   2.967  10.992   4.540 -1.0405  0.8116 -0.4098
33086SOL    HW216869   2.842  10.910   4.518 -0.3367 -0.5581  0.5636
33087SOL     OW16870   7.053  11.248   8.980 -0.0234 -0.0949 -0.1110
33087SOL    HW116871   7.012  11.188   9.043 -0.2632  0.6718  0.4837
33087SOL    HW216872   7.076  11.326   9.032 -0.5250  0.6931 -1.0281
33088SOL     OW16873   0.536  11.636   6.743  0.1954  0.4599  0.1655
33088SOL    HW116874   0.619  11.589   6.755 -0.6411 -1.0494  0.3791
33088SOL    HW216875   0.483  11.608   6.818  0.1198  2.8885  1.0826
33089SOL     OW16876  11.650   1.142   7.790  0.0423  0.0316  0.3404
33089SOL    HW116877  11.692   1.081   7.729 -2.6432 -0.9709 -0.6433
33089SOL    HW216878  11.562   1.106   7.805 -1.1590  2.8772  0.9020
33090SOL     OW16879   0.347   2.351   4.720  0.6639 -0.1705  0.0671
33090SOL    HW116880   0.321   2.260   4.713  0.7343 -0.1167 -1.1261
33090SOL    HW216881   0.286   2.389   4.783 -0.3506 -0.6948 -0.5796
33091SOL     OW16882   2.109   1.576   6.585 -0.3595 -0.4469 -0.2689
33091SOL    HW116883   2.053   1.601   6.512 -0.1400  1.3093  0.1200
33091SOL    HW216884   2.193   1.618   6.566  0.4475 -1.9707 -0.1974
33092SOL     OW16885   8.215   2.450   1.365 -0.3533  0.4059  0.1736
33092SOL    HW116886   8.131   2.412   1.342 -0.2161  0.2439 -0.0648
33092SOL    HW216887   8.196   2.542   1.383 -0.6408  0.2874  0.4892
33093SOL     OW16888   9.618  12.666   5.493 -0.4199 -0.1156  0.0794
33093SOL    HW116889   9.634  12.750   5.450  0.7535 -0.3496  0.0443
33093SOL    HW216890   9.539  12.681   5.545  0.1453  1.2207  0.6024
33094SOL     OW16891   4.992   5.782  11.649  0.1466  0.1718 -0.4350
33094SOL    HW116892   4.926   5.719  11.622 -1.2803  1.6724 -0.5743
33094SOL    HW216893   5.028   5.817  11.568 -1.4893  1.9646 -0.4405
33095SOL     OW16894   1.313   8.895  10.052  0.0699 -0.6012  0.1498
33095SOL    HW116895   1.358   8.977  10.076  0.9505 -0.9235 -0.3833
33095SOL    HW216896   1.379   8.844  10.005 -0.5433 -1.5302  0.2796
33096SOL     OW16897  11.186   1.156  10.211  0.6737  0.0143  0.2450
33096SOL    HW116898  11.133   1.109  10.276 -1.6593  2.2750  0.1320
33096SOL    HW216899  11.127   1.171  10.138  1.8851  1.5087 -0.4771
33097SOL     OW16900  12.947   6.937   9.447  0.0384  0.6652  0.3687
33097SOL    HW116901  12.912   6.917   9.360  0.3181  0.5256  0.2908
33097SOL    HW216902  12.966   6.852   9.486 -0.0865  0.7267  0.5699
33098SOL     OW16903  13.701   2.796  13.470 -0.3774  0.3914 -0.3087
33098SOL    HW116904  13.753   2.746  13.533 -1.1497 -0.4764 -0.3423
33098SOL    HW216905  13.729   2.887  13.484  0.1951  0.1024  0.5788
33099SOL     OW16906  13.588   8.249   9.778 -0.6824  0.2847  0.4381
33099SOL    HW116907  13.535   8.180   9.820  0.2704 -1.1086 -0.5458
33099SOL    HW216908  13.564   8.329   9.825 -0.9982 -0.8901  2.4197
33100SOL     OW16909  13.645   4.284  12.559 -0.3889  0.5375 -0.2628
33100SOL    HW116910  13.666   4.341  12.485  0.3469 -0.0328 -0.4964
33100SOL    HW216911  13.715   4.298  12.622 -0.3918  0.1554 -0.1687
33101SOL     OW16912   6.167   1.720  11.698  0.2386  0.5501 -0.0270
33101SOL    HW116913   6.077   1.687  11.702  0.0886  1.0429  1.6812
33101SOL    HW216914   6.158   1.815  11.689  0.6069  0.5361 -0.5832
33102SOL     OW16915  12.789   7.576  10.827  0.5567  0.5226 -0.1581
33102SOL    HW116916  12.727   7.599  10.758 -0.6803 -0.8395  0.4306
33102SOL    HW216917  12.734   7.548  10.900  1.8396 -1.1900  0.2351
33103SOL     OW16918   5.423   2.581   7.903 -0.2501  0.1528  0.0459
33103SOL    HW116919   5.427   2.557   7.995 -1.6247  2.4808  0.7946
33103SOL    HW216920   5.403   2.499   7.858 -3.2041 -0.4951  2.2265
33104SOL     OW16921   6.710   6.548   0.829  0.3810 -0.7132  0.1619
33104SOL    HW116922   6.776   6.553   0.898 -0.2841 -0.9682  0.8278
33104SOL    HW216923   6.739   6.475   0.774  0.1955 -1.3955  0.9471
33105SOL     OW16924   1.486   8.099   8.466 -0.0646  0.0866 -0.7167
33105SOL    HW116925   1.425   8.145   8.524  0.3642 -1.8917  1.4386
33105SOL    HW216926   1.431   8.069   8.393 -0.6243  2.5769 -1.4409
33106SOL     OW16927   7.804   0.901   0.977  0.0476  0.1898  0.6356
33106SOL    HW116928   7.850   0.982   0.953  0.9901 -0.0562  1.5149
33106SOL    HW216929   7.720   0.931   1.010  0.6308  0.8871  1.5577
33107SOL     OW16930  11.962   0.324   2.551  0.0010  0.3430 -0.1706
33107SOL    HW116931  11.932   0.334   2.641  1.5879  1.1434  0.3206
33107SOL    HW216932  12.018   0.400   2.536  0.7138 -0.3889 -1.4305
33108SOL     OW16933   2.110   7.917   7.573  0.3386  0.4454 -0.8104
33108SOL    HW116934   2.175   7.847   7.572 -0.8773 -0.7373 -0.3119
33108SOL    HW216935   2.127   7.967   7.493  2.8526  1.1647  0.0757
33109SOL     OW16936  10.031   3.221   1.019 -0.7747  0.1266 -0.0196
33109SOL    HW116937  10.085   3.200   0.943 -1.5641 -1.1768 -0.2424
33109SOL    HW216938  10.094   3.254   1.084  0.0388  0.3129 -0.8761
33110SOL     OW16939  10.931  12.707   1.974 -0.3181 -0.4287 -0.1568
33110SOL    HW116940  10.942  12.794   1.934  1.4328  0.0590  1.2472
33110SOL    HW216941  10.907  12.726   2.064 -0.3397 -1.4074  0.0457
33111SOL     OW16942   0.868   5.367   5.126  0.4935 -0.4175 -0.0882
33111SOL    HW116943   0.824   5.381   5.210  0.7964 -1.9563  0.3649
33111SOL    HW216944   0.798   5.337   5.068  0.7576 -2.3576  0.4936
33112SOL     OW16945   0.794   0.536   8.842 -0.0751 -0.0297 -0.4984
33112SOL    HW116946   0.838   0.575   8.917 -0.5521 -0.0467 -0.2110
33112SOL    HW216947   0.850   0.559   8.767  0.7685 -0.6168 -0.0532
33113SOL     OW16948  12.215   9.820   5.726  0.1260  0.2270  0.8773
33113SOL    HW116949  12.160   9.835   5.650 -0.4740 -1.5764  0.8998
33113SOL    HW216950  12.229   9.907   5.763 -1.4033  0.9066 -0.0278
33114SOL     OW16951   0.133   2.003   5.040  0.0553 -0.4619 -0.6282
33114SOL    HW116952   0.197   2.060   5.082  0.5279 -0.0593 -1.8775
33114SOL    HW216953   0.111   1.939   5.108  0.1499  0.6664  0.5282
33115SOL     OW16954  13.439  10.986   3.267 -0.0526  0.3692 -0.0011
33115SOL    HW116955  13.482  10.900   3.269 -0.2919  0.1873 -1.3701
33115SOL    HW216956  13.468  11.029   3.347 -0.0757 -1.0586  0.8087
33116SOL     OW16957   5.710   0.815   4.941 -1.0732 -0.5903  0.6020
33116SOL    HW116958   5.801   0.844   4.951 -1.5733  1.4419 -0.0865
33116SOL    HW216959   5.716   0.721   4.928  0.7469 -0.8663  2.8209
33117SOL     OW16960   0.127  13.645   3.895  0.4707 -0.0681  0.3953
33117SOL    HW116961   0.172  13.720   3.855 -1.7719  0.7383 -0.7966
33117SOL    HW216962   0.150  13.571   3.840 -1.3968  0.7643 -1.6632
33118SOL     OW16963   0.797   2.847   1.618 -0.6641 -0.1371  0.7736
33118SOL    HW116964   0.856   2.773   1.630 -0.2280  0.2521  1.0697
33118SOL    HW216965   0.842   2.921   1.659 -0.4745  0.6074 -0.7238
33119SOL     OW16966  13.173  12.935   0.095 -0.6656  0.3172 -0.0373
33119SOL    HW116967  13.246  12.891   0.051 -0.6356 -0.1216  0.4431
33119SOL    HW216968  13.179  13.026   0.066  0.8247  0.5758  0.9186
33120SOL     OW16969   8.322   0.771   3.169  0.1040 -0.5056 -0.1555
33120SOL    HW116970   8.304   0.677   3.178  1.6645 -0.6765  1.7991
33120SOL    HW216971   8.237   0.813   3.187 -0.8291 -1.5002 -1.9133
33121SOL     OW16972   4.614  10.159   6.256  0.3821  0.6297 -0.6366
33121SOL    HW116973   4.541  10.149   6.318  0.9231 -0.7298 -0.1945
33121SOL    HW216974   4.575  10.141   6.171  0.4789 -1.6711 -0.2545
33122SOL     OW16975   7.526  13.806   6.533  0.1846  0.0866 -0.0732
33122SOL    HW116976   7.605  13.856   6.555  1.0148 -0.5861 -1.4212
33122SOL    HW216977   7.512  13.750   6.609  2.4142 -1.4802 -0.7255
33123SOL     OW16978   6.728  13.065   8.061 -0.0147  0.6101  0.7986
33123SOL    HW116979   6.705  13.130   7.995  1.3160 -0.5837 -0.9563
33123SOL    HW216980   6.706  12.981   8.021  3.3860 -0.3455  0.6124
33124SOL     OW16981   4.653  13.932   9.030 -0.2150  0.2470 -0.3259
33124SOL    HW116982   4.656  13.838   9.014 -0.7582  0.3167 -0.8741
33124SOL    HW216983   4.704  13.971   8.960  1.6688  0.2682  0.9790
33125SOL     OW16984   6.888   0.843   1.937 -0.3679 -0.4066  0.5455
33125SOL    HW116985   6.979   0.841   1.909 -0.4087 -0.9215  0.4213
33125SOL    HW216986   6.854   0.927   1.905 -0.3100 -0.8153 -0.6481
33126SOL     OW16987  11.715   7.001  10.895 -0.4027 -0.3400  0.3042
33126SOL    HW116988  11.627   7.036  10.906 -1.1376 -1.6934 -0.9840
33126SOL    HW216989  11.751   7.048  10.820 -0.3766 -0.4546  0.2445
33127SOL     OW16990   2.833   8.811   7.044 -0.9401  0.0965  0.5598
33127SOL    HW116991   2.794   8.739   7.092  0.2789 -0.9048  0.1223
33127SOL    HW216992   2.856   8.773   6.959  1.8717  0.2585  1.1316
33128SOL     OW16993   3.298   3.043   2.567 -0.1635 -0.0167 -0.1381
33128SOL    HW116994   3.297   3.030   2.472 -3.1666 -1.6352  0.0181
33128SOL    HW216995   3.352   2.972   2.601  1.6140  1.0352 -0.5750
33129SOL     OW16996   4.386  10.043  14.000  0.2191  0.4437 -0.7129
33129SOL    HW116997   4.350   9.967  13.955  0.2888  0.1135 -0.2081
33129SOL    HW216998   4.360  10.033  14.091  2.0742 -0.1265 -0.2091
33130SOL     OW16999  10.197   9.672   1.490  0.3772 -0.2326  0.1392
33130SOL    HW117000  10.293   9.677   1.496  0.5379  1.1316 -2.1492
33130SOL    HW217001  10.179   9.580   1.470  1.5258 -0.0335 -2.2157
33131SOL     OW17002   6.480   0.743  12.281 -0.0217  0.5195  0.6450
33131SOL    HW117003   6.527   0.811  12.233 -0.9703  1.9295  1.6265
33131SOL    HW217004   6.546   0.674  12.297  0.4269  0.1902 -2.2032
33132SOL     OW17005   6.200  10.201  11.976  0.1613 -0.1028  0.6094
33132SOL    HW117006   6.182  10.279  12.029  1.2961 -0.2679  1.2824
33132SOL    HW217007   6.138  10.136  12.007  0.1997  0.0890  1.1036
33133SOL     OW17008   7.867   1.075   1.244  0.7086 -0.1714  0.0208
33133SOL    HW117009   7.892   1.108   1.158  1.3399 -0.8202 -0.0510
33133SOL    HW217010   7.887   1.147   1.304 -0.0676  0.4135 -0.4058
33134SOL     OW17011  11.465  12.964  13.517  0.5419 -0.0658  0.1698
33134SOL    HW117012  11.474  13.038  13.577  0.2487 -0.2171  0.4010
33134SOL    HW217013  11.514  12.894  13.559  1.2237  0.1289 -0.2800
33135SOL     OW17014  11.742   2.021   8.063  0.2436 -0.0524  0.0145
33135SOL    HW117015  11.737   1.939   8.015 -2.4386 -1.5196  2.4455
33135SOL    HW217016  11.766   1.996   8.152 -1.8546  1.5109  1.1359
33136SOL     OW17017   1.209   9.204   3.990  0.3495  0.1086  0.4536
33136SOL    HW117018   1.124   9.171   4.017  0.0891  0.5409  0.1695
33136SOL    HW217019   1.211   9.294   4.023  0.2931  0.4277 -0.4021
33137SOL     OW17020   1.037   9.763   8.086 -0.0489  0.2734  0.1619
33137SOL    HW117021   1.027   9.830   8.018 -2.1664  1.2311  1.3047
33137SOL    HW217022   1.047   9.813   8.167 -2.6028 -0.6571  1.1837
33138SOL     OW17023  12.555  11.991   1.186 -0.1599  0.8365 -0.2719
33138SOL    HW117024  12.612  12.058   1.223 -0.6264  1.5787 -0.8742
33138SOL    HW217025  12.466  12.022   1.204 -0.3799  0.5659 -0.8673
33139SOL     OW17026   7.331   7.987   1.633 -0.8935 -0.2824 -0.1604
33139SOL    HW117027   7.362   8.013   1.720 -0.2736  1.0007 -0.7351
33139SOL    HW217028   7.244   8.028   1.627 -0.2646  1.0124 -0.7443
33140SOL     OW17029  11.825   5.918   8.043  0.0602 -0.1995 -0.0771
33140SOL    HW117030  11.912   5.936   8.007  0.1411  1.5151  0.8664
33140SOL    HW217031  11.787   6.005   8.059 -0.7148 -0.8654  2.1113
33141SOL     OW17032   1.672   8.311   6.278 -0.4018  0.0835  0.1656
33141SOL    HW117033   1.723   8.238   6.312 -0.3401 -0.3316 -0.7780
33141SOL    HW217034   1.683   8.306   6.183 -1.5320  0.4773 -0.0036
33142SOL     OW17035   1.442  10.860   4.973 -0.7691  1.2516 -0.6961
33142SOL    HW117036   1.449  10.943   4.925  1.1905 -0.3157 -3.4232
33142SOL    HW217037   1.528  10.849   5.014 -2.2659  2.3621  3.2443
33143SOL     OW17038   3.175   4.673   9.092  0.5403  0.1126 -0.3252
33143SOL    HW117039   3.151   4.663   9.185  0.6410 -0.7947 -0.3868
33143SOL    HW217040   3.269   4.688   9.094  0.5230  0.2204 -0.2777
33144SOL     OW17041   1.998   5.309   0.418 -0.2745  0.5779 -0.3537
33144SOL    HW117042   2.068   5.326   0.355  0.0631 -0.6231 -0.3273
33144SOL    HW217043   2.040   5.261   0.490 -1.1551 -0.4867 -0.5045
33145SOL     OW17044   2.501   8.153   1.255 -0.5396 -0.3575  0.2343
33145SOL    HW117045   2.541   8.134   1.170  2.9164 -4.0665  2.3283
33145SOL    HW217046   2.526   8.244   1.274 -0.7748  0.3067 -2.3449
33146SOL     OW17047   3.951   6.023   5.861  0.1484 -0.1937  0.2173
33146SOL    HW117048   4.045   6.039   5.865 -0.0485  1.1588 -0.2963
33146SOL    HW217049   3.919   6.046   5.948 -0.3060  3.6692 -0.8261
33147SOL     OW17050   5.662  13.364  11.886  0.0460  0.3067 -0.0794
33147SOL    HW117051   5.597  13.422  11.846 -1.1290  0.0930  1.4346
33147SOL    HW217052   5.625  13.341  11.971  1.6712 -0.6182  0.4291
33148SOL     OW17053   9.657  10.833   7.033  0.2604  0.2831  0.0861
33148SOL    HW117054   9.563  10.832   7.049  0.3322 -1.1421  0.5312
33148SOL    HW217055   9.687  10.746   7.059  1.4927  0.2502 -1.3091
33149SOL     OW17056   1.842   5.935   3.135  0.4844  0.3474  0.3197
33149SOL    HW117057   1.899   5.965   3.205 -1.0969  1.1046  1.3516
33149SOL    HW217058   1.756   5.972   3.157 -0.2342 -0.0714 -1.5913
33150SOL     OW17059   3.642   4.735   8.263 -0.3807  0.1398  0.3102
33150SOL    HW117060   3.582   4.721   8.336 -1.1143 -1.4246 -0.5369
33150SOL    HW217061   3.616   4.670   8.198  2.4413 -0.8412  0.0209
33151SOL     OW17062  11.367   3.703  12.799  0.0908  0.0934  0.1332
33151SOL    HW117063  11.408   3.626  12.838  0.4288  0.2421  0.0707
33151SOL    HW217064  11.387   3.775  12.859 -2.1517 -0.2680  1.4002
33152SOL     OW17065   8.111   3.109   0.986  0.0609  0.3348  0.3283
33152SOL    HW117066   8.060   3.190   0.988  1.1599  1.1016 -0.8064
33152SOL    HW217067   8.171   3.121   0.912 -0.4706 -1.9686 -0.5464
33153SOL     OW17068   5.197   3.453   5.988 -0.1836  0.4341  0.2855
33153SOL    HW117069   5.147   3.427   5.911  1.9428  1.6139 -1.6228
33153SOL    HW217070   5.235   3.371   6.021  0.5001  0.1462 -1.1614
33154SOL     OW17071   1.091   8.094  12.281 -0.7061 -0.3516 -0.4812
33154SOL    HW117072   1.075   8.105  12.187  2.7728 -0.3274 -1.2193
33154SOL    HW217073   1.183   8.119  12.292 -0.8300 -0.9600  2.8557
33155SOL     OW17074  12.474   1.762   3.579 -0.3806  0.5371 -0.1023
33155SOL    HW117075  12.518   1.790   3.659  1.1664  0.0169 -0.7355
33155SOL    HW217076  12.498   1.828   3.514 -0.0086 -0.0750 -0.6037
33156SOL     OW17077   4.295   0.536   1.887  0.3908  0.1389 -0.3212
33156SOL    HW117078   4.212   0.534   1.935  0.1464  1.3156 -0.6609
33156SOL    HW217079   4.349   0.470   1.930  0.0147  0.8374  1.3038
33157SOL     OW17080   0.034   0.962  12.784  0.2877  0.6093  0.0441
33157SOL    HW117081  -0.025   0.967  12.860 -0.6973  1.6373 -0.7745
33157SOL    HW217082  -0.002   1.023  12.721  0.7895 -0.6059 -1.4877
33158SOL     OW17083   1.840   3.185   2.295 -0.5335  0.0767 -1.0282
33158SOL    HW117084   1.871   3.178   2.205  0.1076  0.5825 -0.8569
33158SOL    HW217085   1.915   3.159   2.348 -0.8650 -0.0828 -0.6362
33159SOL     OW17086  12.791   0.566  10.724 -0.0014 -0.6790 -0.0530
33159SOL    HW117087  12.819   0.605  10.806  1.5104  0.2249 -0.9401
33159SOL    HW217088  12.850   0.491  10.711 -1.3200 -1.8446  0.4674
33160SOL     OW17089   2.208   7.281  10.998 -0.8071 -0.0226 -0.0001
33160SOL    HW117090   2.154   7.218  11.045  2.0851 -0.5317  3.0426
33160SOL    HW217091   2.229   7.348  11.063  0.2032  1.4515 -1.7427
33161SOL     OW17092   6.389   6.240   9.947 -0.6680  0.2096 -0.0755
33161SOL    HW117093   6.458   6.282   9.896 -0.9581 -0.4661 -1.0419
33161SOL    HW217094   6.366   6.305  10.014  2.4256 -0.3623  1.7199
33162SOL     OW17095   4.804  12.023  12.268  0.9642  0.3583  0.2937
33162SOL    HW117096   4.737  12.087  12.241 -0.2807 -0.6220  0.9332
33162SOL    HW217097   4.883  12.051  12.223 -0.1438  0.9090 -1.4258
33163SOL     OW17098   8.697   6.278   2.499 -0.0068 -0.6454  0.4501
33163SOL    HW117099   8.785   6.241   2.493  0.2726 -0.1679  1.3886
33163SOL    HW217100   8.643   6.205   2.530  0.3882 -0.5134  1.5003
33164SOL     OW17101   6.026   6.174  11.777 -0.4196 -0.0371 -0.2925
33164SOL    HW117102   6.066   6.260  11.780  2.2493 -1.1446 -1.1531
33164SOL    HW217103   5.986   6.163  11.864  0.3296  1.5278  0.2855
33165SOL     OW17104   6.725   6.817   5.830 -0.0125  0.8056  0.0561
33165SOL    HW117105   6.712   6.731   5.869  1.3831  0.4091 -0.2809
33165SOL    HW217106   6.780   6.864   5.893  3.0048 -0.1399 -1.6525
33166SOL     OW17107   8.465   6.366   3.603  0.1246  0.4824 -0.2421
33166SOL    HW117108   8.419   6.328   3.528 -0.4863 -2.2423  1.3933
33166SOL    HW217109   8.537   6.306   3.620  0.7078  1.4745  0.9117
33167SOL     OW17110   4.422   9.647  12.490  0.0874  0.6197 -0.1962
33167SOL    HW117111   4.392   9.569  12.537 -0.5814  1.6803  1.2037
33167SOL    HW217112   4.366   9.651  12.413 -1.2869  0.8308  0.7824
33168SOL     OW17113   5.769   7.960   2.352  0.5780 -0.3292 -0.4316
33168SOL    HW117114   5.786   8.051   2.375 -0.5743 -0.3393  0.5632
33168SOL    HW217115   5.772   7.959   2.256  3.4493  0.1359 -0.4561
33169SOL     OW17116   6.762   3.465   4.691 -0.1326 -0.3471 -0.6456
33169SOL    HW117117   6.674   3.429   4.679  0.3318 -1.8696  0.1925
33169SOL    HW217118   6.761   3.503   4.779 -0.2252  0.5208 -1.0142
33170SOL     OW17119   5.341   5.079   0.737 -0.5439 -0.1684  0.2456
33170SOL    HW117120   5.355   5.147   0.672 -0.8601 -0.7280 -0.4322
33170SOL    HW217121   5.290   5.121   0.806 -0.7822  0.2664 -0.1899
33171SOL     OW17122   4.472   1.979   9.622  0.2888  0.2480 -0.1078
33171SOL    HW117123   4.410   2.052   9.624  0.7392  0.6414 -0.3197
33171SOL    HW217124   4.434   1.917   9.560  0.5317  0.8829 -0.9196
33172SOL     OW17125   3.208   4.801  13.046 -0.1769 -0.3240  0.2536
33172SOL    HW117126   3.249   4.725  13.005 -0.0201 -0.1948  0.1722
33172SOL    HW217127   3.148   4.763  13.111 -1.2985 -0.5613 -0.8882
33173SOL     OW17128   6.087   5.203  11.228 -0.1521  0.4392  0.4560
33173SOL    HW117129   6.156   5.210  11.163  0.5348 -1.2325  0.9423
33173SOL    HW217130   6.018   5.151  11.186 -1.4330  2.5780 -0.2305
33174SOL     OW17131  11.683  13.956   9.401  0.1329 -0.3179  0.2401
33174SOL    HW117132  11.759  13.899   9.395  0.5176  0.3173 -1.4808
33174SOL    HW217133  11.629  13.933   9.325 -0.2192  0.8581  0.1043
33175SOL     OW17134   1.877   2.542   9.360 -0.6268 -0.6865  0.5006
33175SOL    HW117135   1.821   2.620   9.359 -1.7864 -1.4999  0.3412
33175SOL    HW217136   1.911   2.535   9.271  0.8455  0.5546  0.9113
33176SOL     OW17137   0.525   7.438   0.690  0.1939  0.2542 -0.4272
33176SOL    HW117138   0.455   7.495   0.723 -0.4117 -0.9001  0.3698
33176SOL    HW217139   0.574   7.493   0.629 -1.2498  1.1895 -0.8162
33177SOL     OW17140  10.383  12.203   2.153 -0.4404 -0.0417  0.2416
33177SOL    HW117141  10.401  12.116   2.116  1.3774  0.6810 -0.7126
33177SOL    HW217142  10.336  12.249   2.084 -2.9626 -0.7308  1.3718
33178SOL     OW17143   2.555   8.453   9.290  0.5325  0.1577  0.2689
33178SOL    HW117144   2.471   8.429   9.327 -0.1217 -1.2908 -1.9686
33178SOL    HW217145   2.547   8.547   9.272 -1.6764 -0.4091 -2.2894
33179SOL     OW17146   5.044   6.275   5.288  0.0246  0.1990 -0.0424
33179SOL    HW117147   4.970   6.229   5.248 -1.2854  1.3878  0.9318
33179SOL    HW217148   5.101   6.296   5.215 -0.4090 -1.0532 -0.7760
33180SOL     OW17149  11.119   2.887  13.565 -0.1122  0.7277 -0.1374
33180SOL    HW117150  11.183   2.874  13.495 -0.0804  1.4680 -0.2625
33180SOL    HW217151  11.062   2.811  13.562  1.0126 -0.1549  0.2442
33181SOL     OW17152  12.849   0.808  12.133 -0.6344  0.3490  0.1053
33181SOL    HW117153  12.828   0.809  12.039  0.9941 -0.6857 -0.3185
33181SOL    HW217154  12.854   0.900  12.157 -1.4759  0.6297 -0.7173
33182SOL     OW17155   1.127   2.056   6.060 -0.1433 -0.0527 -0.1966
33182SOL    HW117156   1.051   2.011   6.095 -0.1354  0.1161  0.0484
33182SOL    HW217157   1.177   2.083   6.138  0.4918 -0.7137 -0.3648
33183SOL     OW17158   3.685  10.162   8.418 -0.6939  0.3979 -0.4170
33183SOL    HW117159   3.740  10.087   8.396  0.0035  0.7814  0.0081
33183SOL    HW217160   3.659  10.148   8.509 -0.3413  0.8027 -0.2511
33184SOL     OW17161   1.320   7.290   0.881 -0.1032  0.0355  0.6539
33184SOL    HW117162   1.297   7.382   0.871 -1.8351 -0.5883 -2.1764
33184SOL    HW217163   1.414   7.286   0.862  0.1171  1.2354  1.3868
33185SOL     OW17164   2.889  13.341   3.936  0.4522  0.0382 -0.1320
33185SOL    HW117165   2.900  13.434   3.915  1.5876  0.0557  0.4322
33185SOL    HW217166   2.795  13.329   3.945  0.2463  0.9740 -0.9215
33186SOL     OW17167   1.330  11.704   2.159 -0.0688 -0.7546 -0.1910
33186SOL    HW117168   1.375  11.774   2.206  0.4105 -1.2135  0.0412
33186SOL    HW217169   1.387  11.685   2.085 -0.9676  0.1762 -1.1552
33187SOL     OW17170   4.668  12.266   7.180  0.3664  0.5817  0.3341
33187SOL    HW117171   4.652  12.173   7.194  0.1416  0.7433  1.2116
33187SOL    HW217172   4.709  12.296   7.262  0.1172  1.3243  0.1964
33188SOL     OW17173   9.488   5.402   2.419  0.3266 -0.0346 -0.4996
33188SOL    HW117174   9.455   5.356   2.497 -1.8396 -1.3166 -2.0589
33188SOL    HW217175   9.545   5.338   2.376 -1.3054 -0.7418 -1.7503
33189SOL     OW17176   4.825   1.657  13.545  0.1744  0.2765  0.1099
33189SOL    HW117177   4.858   1.705  13.469  2.6528  0.0805  0.9701
33189SOL    HW217178   4.746   1.705  13.572  0.8037  1.9708 -0.9318
33190SOL     OW17179   3.372   6.346  11.052 -0.0519  0.0241  0.1042
33190SOL    HW117180   3.297   6.293  11.078  0.7845 -0.6892  1.1297
33190SOL    HW217181   3.448   6.296  11.079  0.7951  1.0264 -0.3424
33191SOL     OW17182   0.932   9.403   5.120  0.1324  0.1132 -0.9829
33191SOL    HW117183   0.866   9.334   5.122  0.0725  0.1845 -0.3884
33191SOL    HW217184   0.883   9.484   5.127  0.2948  0.1592 -0.3780
33192SOL     OW17185   0.103   2.414   5.786 -0.5483  0.4129  0.8188
33192SOL    HW117186   0.056   2.413   5.702 -0.4933 -1.2528  0.7737
33192SOL    HW217187   0.137   2.503   5.793 -2.9040  1.4369  0.4135
33193SOL     OW17188  10.778   9.521   1.113 -0.1264  0.2174 -0.2765
33193SOL    HW117189  10.869   9.548   1.123  0.1763  0.1078 -2.2249
33193SOL    HW217190  10.773   9.487   1.024 -1.9438 -0.3470 -0.0062
33194SOL     OW17191  10.872   1.961   9.819 -0.7300  0.1215 -0.3683
33194SOL    HW117192  10.793   1.936   9.772 -0.0073  1.1300 -2.2011
33194SOL    HW217193  10.893   2.049   9.786  0.9505  0.0292  0.3503
33195SOL     OW17194   2.882  11.538   7.150 -0.0391 -0.2485  0.4217
33195SOL    HW117195   2.860  11.452   7.185  0.3938  0.7572  3.4312
33195SOL    HW217196   2.801  11.570   7.111 -0.5738 -1.4245  0.5444
33196SOL     OW17197   9.805  11.742   4.930 -0.0035 -0.1239  0.3361
33196SOL    HW117198   9.749  11.819   4.932  1.0101  0.6841 -0.6534
33196SOL    HW217199   9.747  11.670   4.903 -0.6842  0.5725 -0.0938
33197SOL     OW17200   4.134   1.916  12.877 -0.1608 -0.0543  0.0009
33197SOL    HW117201   4.220   1.889  12.910 -0.5844 -1.5517 -0.0320
33197SOL    HW217202   4.139   2.011  12.872  1.2604 -0.0659  0.6449
33198SOL     OW17203   2.692   0.212   1.908 -0.1891  1.1779 -0.3765
33198SOL    HW117204   2.612   0.254   1.940 -0.9014  0.8182 -1.6091
33198SOL    HW217205   2.681   0.120   1.933 -0.1113  1.1473 -0.4569
33199SOL     OW17206  10.602   7.131  11.867 -0.2681  0.1860 -0.0432
33199SOL    HW117207  10.616   7.105  11.776  0.1806 -0.9156  0.3232
33199SOL    HW217208  10.508   7.120  11.881 -0.4636  1.0453 -0.5572
33200SOL     OW17209   7.863  13.790   2.797  0.1974  0.0523 -0.5223
33200SOL    HW117210   7.769  13.777   2.785  0.1988 -0.1384 -0.3284
33200SOL    HW217211   7.877  13.782   2.891  0.6112 -1.2931 -0.6833
33201SOL     OW17212  12.452   2.601   9.628  0.3387  0.4430 -0.3414
33201SOL    HW117213  12.508   2.639   9.560  1.0070 -0.5292 -0.3543
33201SOL    HW217214  12.411   2.525   9.585  1.9053 -1.0790  0.7206
33202SOL     OW17215   2.453   6.563   5.954 -0.3000 -0.5010  0.0586
33202SOL    HW117216   2.394   6.612   6.011 -0.0155 -0.9043  0.7050
33202SOL    HW217217   2.421   6.582   5.865 -1.0258 -0.2346  0.3680
33203SOL     OW17218   0.075   9.598   0.077  0.3016  0.1218 -0.5106
33203SOL    HW117219   0.134   9.530   0.043 -0.1491 -0.1265 -0.8013
33203SOL    HW217220   0.020   9.622   0.002  0.9367  1.3378 -0.6143
33204SOL     OW17221   1.714   3.901   2.911  0.0791 -0.2061  0.8285
33204SOL    HW117222   1.651   3.959   2.953 -1.3225 -1.0420 -0.0256
33204SOL    HW217223   1.664   3.821   2.892  1.6887 -1.3339  1.1017
33205SOL     OW17224   8.429   5.563  11.944 -0.5629 -0.0628 -0.1015
33205SOL    HW117225   8.446   5.625  11.874 -0.5139 -0.8081 -0.7571
33205SOL    HW217226   8.499   5.498  11.937 -0.3822  0.0105  0.8213
33206SOL     OW17227  10.134   8.484  11.711  0.4787  0.3774  0.1120
33206SOL    HW117228  10.137   8.506  11.804 -0.8292  1.4927 -0.0649
33206SOL    HW217229  10.135   8.389  11.708  2.3519  0.3092  1.1529
33207SOL     OW17230   6.576   1.317   4.678  0.4906  0.6257 -0.5452
33207SOL    HW117231   6.577   1.229   4.714  0.2852  0.3752 -1.1399
33207SOL    HW217232   6.539   1.371   4.748  2.1242  0.5356  0.4402
33208SOL     OW17233   4.119   6.541  10.771  0.2649 -0.6272 -0.1203
33208SOL    HW117234   4.150   6.584  10.851 -1.2727 -0.2015  0.2885
33208SOL    HW217235   4.030   6.576  10.758 -0.0980 -1.8570 -1.1526
33209SOL     OW17236  10.831   7.828   0.333  0.5845 -0.4248 -0.0992
33209SOL    HW117237  10.799   7.844   0.422 -0.7343 -1.6648 -0.3254
33209SOL    HW217238  10.897   7.896   0.319 -0.8744  1.2831  0.9491
33210SOL     OW17239   7.356   6.099  12.803 -0.0367 -0.2295  0.3549
33210SOL    HW117240   7.434   6.097  12.747  0.0487 -0.1672  0.4697
33210SOL    HW217241   7.291   6.147  12.752  0.0559 -0.1319  0.3264
33211SOL     OW17242   3.829   4.339  11.585 -0.2639  0.1005  0.2376
33211SOL    HW117243   3.854   4.282  11.513 -1.9840 -1.8799  1.0930
33211SOL    HW217244   3.804   4.421  11.543  0.8099 -0.2670 -1.1901
33212SOL     OW17245   6.721   2.010   1.274  0.1493 -0.6016 -0.3943
33212SOL    HW117246   6.715   1.962   1.357  0.9612 -1.5553 -0.8681
33212SOL    HW217247   6.670   2.090   1.289 -0.1081 -0.9774  0.8632
33213SOL     OW17248   7.016   3.512  10.862 -0.2630  0.0994 -0.0316
33213SOL    HW117249   6.967   3.538  10.940  1.8240  0.7618  1.1482
33213SOL    HW217250   6.994   3.420  10.849  1.0511 -0.7547  2.8151
33214SOL     OW17251   5.861   0.207   0.994  0.2531  0.2801  0.1926
33214SOL    HW117252   5.874   0.113   0.980  0.9435  0.5308 -1.0896
33214SOL    HW217253   5.845   0.241   0.906  0.7162  1.4696  0.5600
33215SOL     OW17254   4.809   5.054   4.188 -0.0681 -0.2368 -0.3015
33215SOL    HW117255   4.718   5.052   4.217 -0.6544  0.0438 -1.9876
33215SOL    HW217256   4.804   5.071   4.094  1.7620  0.8009 -0.2720
33216SOL     OW17257   3.033   0.169   5.620  0.1219 -0.0399 -0.3101
33216SOL    HW117258   2.946   0.134   5.639  0.7046 -1.7081 -0.4653
33216SOL    HW217259   3.078   0.170   5.704  0.3964 -0.5461 -0.4456
33217SOL     OW17260   4.354   8.848  10.466  0.5282  0.3436 -0.1082
33217SOL    HW117261   4.428   8.791  10.488  0.0300 -1.1092 -1.9384
33217SOL    HW217262   4.394   8.924  10.425  1.0340 -1.0897 -2.4491
33218SOL     OW17263   2.966   6.210   7.830  0.5533  0.0375  0.0085
33218SOL    HW117264   2.889   6.246   7.874  0.2950  0.5658 -0.8552
33218SOL    HW217265   2.944   6.118   7.816  0.5884 -0.1137  0.8385
33219SOL     OW17266   5.941   6.817   5.719  0.2164  0.7088  0.1719
33219SOL    HW117267   5.997   6.859   5.653  1.2101  1.5223  1.4727
33219SOL    HW217268   5.973   6.727   5.723  0.8789  0.9371  0.2825
33220SOL     OW17269   4.935   3.442  10.278  0.2679  0.4761  0.0387
33220SOL    HW117270   4.841   3.428  10.284  0.0782  0.4587 -2.1201
33220SOL    HW217271   4.974   3.370  10.326 -0.7971  1.1725  2.0326
33221SOL     OW17272  11.203   5.632   3.798 -0.3628  0.0802  0.0802
33221SOL    HW117273  11.204   5.538   3.813  0.0023 -0.0993 -0.9903
33221SOL    HW217274  11.216   5.670   3.885 -2.0892 -0.8099  0.7624
33222SOL     OW17275   4.182   8.892   5.472  0.2365  0.1975  0.0230
33222SOL    HW117276   4.153   8.803   5.494 -0.0726  0.0885 -0.8132
33222SOL    HW217277   4.165   8.901   5.379 -0.0303  1.2518  0.1594
33223SOL     OW17278   7.085  12.394   8.934  0.1532 -0.0758  0.1382
33223SOL    HW117279   7.084  12.308   8.977  1.9171 -0.2835 -0.1642
33223SOL    HW217280   7.083  12.374   8.840 -1.0784  0.2902  0.0696
33224SOL     OW17281   5.161  11.274   6.299 -0.0671  0.3758 -0.1959
33224SOL    HW117282   5.154  11.190   6.253  0.9409  0.4176 -0.4480
33224SOL    HW217283   5.245  11.269   6.343 -0.1919  1.0993  0.1251
33225SOL     OW17284   8.281   4.653  12.589 -0.0521  0.6331 -0.3071
33225SOL    HW117285   8.339   4.685  12.659 -0.8122 -1.9139  1.6510
33225SOL    HW217286   8.198   4.636  12.633 -0.3711 -1.6900 -1.6733
33226SOL     OW17287   1.008   9.994   0.949  0.8177 -0.2702 -0.0946
33226SOL    HW117288   0.933   9.997   1.008  0.3995 -0.0455 -0.6203
33226SOL    HW217289   0.969   9.975   0.863  1.3683 -0.1989 -0.3646
33227SOL     OW17290   5.015   9.906   6.388  0.0531  0.1833 -0.1490
33227SOL    HW117291   4.926   9.873   6.402 -0.2710  0.7919 -0.7695
33227SOL    HW217292   5.025   9.909   6.293  0.4532  0.8724 -0.0912
33228SOL     OW17293  12.392  10.560   1.945 -0.4567 -0.2978 -0.0646
33228SOL    HW117294  12.367  10.513   2.025  0.5648  2.0442  1.7876
33228SOL    HW217295  12.476  10.523   1.920 -0.0501 -0.0446  0.8901
33229SOL     OW17296   0.803   9.523   8.966  0.3224  0.7253 -0.3459
33229SOL    HW117297   0.753   9.472   9.030  1.0236 -0.2678 -0.5537
33229SOL    HW217298   0.865   9.459   8.929  1.2924  1.7626 -0.5542
33230SOL     OW17299   0.371  10.052   6.457  0.1687  0.1583 -0.3975
33230SOL    HW117300   0.389   9.972   6.408 -0.7488  0.8183 -1.8879
33230SOL    HW217301   0.451  10.069   6.507 -0.0028 -2.2511  0.8243
33231SOL     OW17302   1.979   4.650   8.969 -0.1581 -0.4569 -0.9315
33231SOL    HW117303   2.038   4.703   8.916 -0.0777 -2.5240 -3.0684
33231SOL    HW217304   2.022   4.565   8.975 -0.6741 -0.6177  1.6568
33232SOL     OW17305   7.081   4.926  13.647 -0.7866  0.2296 -0.0099
33232SOL    HW117306   7.167   4.929  13.604 -0.6359 -1.0837  0.1862
33232SOL    HW217307   7.055   5.018  13.653  0.6864  0.6679  0.0924
33233SOL     OW17308  11.288  14.015   2.303  0.3972 -0.6640  0.5747
33233SOL    HW117309  11.352  14.080   2.273 -2.8894  1.4802 -2.6085
33233SOL    HW217310  11.259  14.047   2.388  1.6606 -0.2560  0.8767
33234SOL     OW17311   4.966   1.626   3.966  0.1321 -0.4959  0.4229
33234SOL    HW117312   4.879   1.639   3.928  0.5177 -0.0706 -0.3640
33234SOL    HW217313   5.023   1.612   3.890  1.4329  3.1643  0.4987
33235SOL     OW17314   9.934   4.067   4.481  0.2424 -0.3194  0.0307
33235SOL    HW117315   9.994   4.019   4.422 -0.0290  0.8486 -1.2536
33235SOL    HW217316   9.984   4.144   4.507 -0.1792 -0.0797  0.1267
33236SOL     OW17317   9.483   4.242   0.795  0.4390 -0.0773 -0.9841
33236SOL    HW117318   9.539   4.315   0.770  1.6627 -1.0848 -1.2760
33236SOL    HW217319   9.517   4.213   0.880  0.1312 -0.4607 -0.9869
33237SOL     OW17320   4.919   4.382   7.791 -0.2718 -0.0479 -0.0911
33237SOL    HW117321   4.844   4.405   7.846 -0.5590 -1.1439  0.0033
33237SOL    HW217322   4.924   4.287   7.798  0.9889 -0.0014 -0.2890
33238SOL     OW17323   5.332   0.231   6.817  0.2147 -0.4388  0.0077
33238SOL    HW117324   5.415   0.256   6.858 -1.0539 -1.0042  3.2449
33238SOL    HW217325   5.333   0.135   6.818 -0.2023 -0.4523 -0.5413
33239SOL     OW17326   4.669   2.975  11.154  0.5865 -0.3681  0.3312
33239SOL    HW117327   4.636   2.967  11.065  0.7619  3.4546 -0.2151
33239SOL    HW217328   4.716   2.893  11.170  1.3561 -0.8069 -3.4493
33240SOL     OW17329  12.168   6.429   5.881  0.4612  0.3298  0.4586
33240SOL    HW117330  12.072   6.428   5.878  0.4787  0.0903 -0.6924
33240SOL    HW217331  12.190   6.401   5.969 -0.5186 -1.6154  0.1352
33241SOL     OW17332   3.132  10.189   7.110 -0.3280  0.2469  0.3119
33241SOL    HW117333   3.210  10.159   7.065 -0.2615 -0.1643  0.6916
33241SOL    HW217334   3.071  10.115   7.105 -0.5763  0.4521  0.2838
33242SOL     OW17335  13.731   5.904   5.333  0.1388  0.4731 -0.0301
33242SOL    HW117336  13.769   5.860   5.257 -1.0645 -1.0208  0.1878
33242SOL    HW217337  13.716   5.833   5.397 -1.6539  1.2104  0.4253
33243SOL     OW17338   9.531   3.982  13.004 -0.1720 -0.3861  0.0846
33243SOL    HW117339   9.599   4.043  13.034  0.2274 -0.8811  0.1836
33243SOL    HW217340   9.518   3.923  13.078  0.6663 -1.4832 -0.6226
33244SOL     OW17341   3.669   7.483  13.742 -0.1122  0.9207  0.0974
33244SOL    HW117342   3.625   7.564  13.768 -0.0736  1.0592 -0.2719
33244SOL    HW217343   3.660   7.426  13.819  0.8331  1.6603  0.7894
33245SOL     OW17344   9.044   9.170   6.694 -0.2913 -0.2326 -0.1013
33245SOL    HW117345   9.033   9.079   6.668  0.1656 -0.5368  0.7219
33245SOL    HW217346   9.102   9.207   6.628 -0.1423 -0.6533 -0.2084
33246SOL     OW17347  13.528  12.476   1.446  0.2863 -0.2883 -0.9387
33246SOL    HW117348  13.518  12.571   1.437 -0.8777 -0.4739 -1.9021
33246SOL    HW217349  13.620  12.459   1.429  0.8308  0.7973  0.6735
33247SOL     OW17350  11.976   5.722   4.836 -0.0518 -0.3643  0.3660
33247SOL    HW117351  11.882   5.743   4.830 -0.0424 -0.1807  0.7885
33247SOL    HW217352  12.004   5.711   4.746 -0.0018  1.6588  0.0814
33248SOL     OW17353  11.460   2.844   4.480  0.4361 -0.2189  0.2170
33248SOL    HW117354  11.456   2.810   4.570 -0.7568 -0.3613  0.1277
33248SOL    HW217355  11.551   2.832   4.454  0.6688 -0.7185  1.2064
33249SOL     OW17356   4.875  11.762   8.938  0.4881  0.2502  0.6083
33249SOL    HW117357   4.795  11.815   8.934  0.0908 -0.3926 -0.0848
33249SOL    HW217358   4.848  11.675   8.908  1.8317  0.4718 -1.4287
33250SOL     OW17359   7.117  13.916   1.815  0.0114  0.0120  0.4541
33250SOL    HW117360   7.187  13.967   1.775 -0.3442 -0.1393 -0.3888
33250SOL    HW217361   7.038  13.968   1.798 -0.1162  0.0753  1.2064
33251SOL     OW17362   0.737   8.844   9.486 -0.0547 -0.2128  0.3941
33251SOL    HW117363   0.795   8.806   9.419  1.1179  1.3249  0.4850
33251SOL    HW217364   0.782   8.828   9.569 -0.1960  0.2097  0.5566
33252SOL     OW17365  12.427   6.120   2.418  0.0630 -0.4833  0.2892
33252SOL    HW117366  12.419   6.190   2.484  1.7858  0.4117 -0.3982
33252SOL    HW217367  12.470   6.049   2.464  0.4500 -0.1993  0.3669
33253SOL     OW17368   4.995   2.875  13.786 -0.4903  0.2045  0.0024
33253SOL    HW117369   5.083   2.855  13.818 -0.2863  0.6063 -0.3103
33253SOL    HW217370   5.007   2.947  13.725 -1.1571  0.9114  0.6975
33254SOL     OW17371   0.336   3.577   3.670  0.6841 -0.1468 -0.4939
33254SOL    HW117372   0.277   3.509   3.704  0.7868 -0.8096 -1.6180
33254SOL    HW217373   0.419   3.560   3.714  0.4257 -0.0618  0.0481
33255SOL     OW17374   0.233   5.534   3.852  0.7223 -0.3901  0.3868
33255SOL    HW117375   0.214   5.628   3.843  0.7920 -0.4359 -0.3065
33255SOL    HW217376   0.234   5.501   3.762 -0.2842 -1.2528  0.6603
33256SOL     OW17377   3.504  11.637   3.904  0.2086 -0.5672 -0.1007
33256SOL    HW117378   3.549  11.564   3.947  0.7208 -0.4833 -0.4734
33256SOL    HW217379   3.547  11.643   3.818 -0.9520 -0.8899 -0.7227
33257SOL     OW17380  13.298  12.652   6.877  0.0182 -0.0644 -0.4767
33257SOL    HW117381  13.317  12.741   6.905 -0.5521  0.5613 -1.9893
33257SOL    HW217382  13.232  12.661   6.809 -2.3294 -1.8551  1.3871
33258SOL     OW17383   9.750   7.423   4.121  0.2667 -0.1752 -0.0739
33258SOL    HW117384   9.688   7.488   4.155  0.7949  0.4633 -0.3043
33258SOL    HW217385   9.694   7.358   4.077 -0.2998 -0.1247  0.5469
33259SOL     OW17386   6.662   9.223   0.217 -0.1232  0.0874  0.2538
33259SOL    HW117387   6.582   9.226   0.270 -1.3203  1.5603 -1.4868
33259SOL    HW217388   6.644   9.282   0.144  2.5194  0.3117 -0.3150
33260SOL     OW17389   1.062   3.593  13.329  0.3391 -0.2670  0.1282
33260SOL    HW117390   1.135   3.542  13.364  1.0060  0.2155 -0.4969
33260SOL    HW217391   0.997   3.595  13.399  1.8454  1.1374  1.5617
33261SOL     OW17392  10.528  13.964  13.456 -0.0033 -0.6210 -0.2864
33261SOL    HW117393  10.472  13.956  13.533 -1.1044 -0.9568 -1.1034
33261SOL    HW217394  10.610  13.922  13.482 -0.8924 -2.1336  0.1921
33262SOL     OW17395  11.422   9.656   0.518 -0.1869 -0.0826  0.1501
33262SOL    HW117396  11.421   9.667   0.423  2.2393 -0.9001 -0.0212
33262SOL    HW217397  11.499   9.703   0.548 -0.7323 -0.0977  1.7100
33263SOL     OW17398   8.977   0.532  10.736  0.1618 -0.0837  0.3231
33263SOL    HW117399   8.971   0.586  10.814  0.2468 -1.7685  1.5589
33263SOL    HW217400   9.013   0.590  10.669 -0.4332  1.5514  1.3677
33264SOL     OW17401  13.714  12.060   7.127 -0.1123  0.0013  0.2834
33264SOL    HW117402  13.738  11.973   7.161 -1.6978 -0.8824 -0.7465
33264SOL    HW217403  13.654  12.095   7.193 -0.9627 -0.5068 -0.2099
33265SOL     OW17404   3.051   6.175   1.335  0.1422  0.4648 -0.2784
33265SOL    HW117405   3.090   6.095   1.369 -0.8938 -0.4971 -1.2436
33265SOL    HW217406   3.073   6.175   1.242  1.0489  1.8929 -0.1054
33266SOL     OW17407  11.996   5.855   9.846 -0.0314 -0.0578  0.1455
33266SOL    HW117408  12.026   5.903   9.924 -0.9808 -0.2902  0.6662
33266SOL    HW217409  12.076   5.842   9.795  0.8205 -0.8837  1.6104
33267SOL     OW17410   7.658  11.353   1.604 -0.0268 -0.0547  0.1132
33267SOL    HW117411   7.701  11.434   1.574  0.9178 -0.5830 -0.0053
33267SOL    HW217412   7.625  11.375   1.692 -0.1979  0.6006 -0.1072
33268SOL     OW17413   5.592  10.861   0.514  0.0409  0.5396 -0.1907
33268SOL    HW117414   5.609  10.816   0.432  1.0095 -0.2373  0.4155
33268SOL    HW217415   5.560  10.793   0.573  2.4089  0.3850  1.0147
33269SOL     OW17416   8.573   0.299   8.054 -0.2540  0.2338  0.2375
33269SOL    HW117417   8.529   0.285   7.970 -2.1134 -0.7019  1.2952
33269SOL    HW217418   8.625   0.220   8.067 -0.3274  0.1744  0.1728
33270SOL     OW17419  12.808   5.059   7.272 -0.6735  0.4000  0.4476
33270SOL    HW117420  12.797   5.135   7.215  1.7222 -0.6818 -1.6868
33270SOL    HW217421  12.877   5.085   7.334 -1.0125  0.5025  0.7844
33271SOL     OW17422  12.261   4.412  12.823 -0.1715 -0.7659 -0.1105
33271SOL    HW117423  12.272   4.416  12.918 -2.1268 -0.1500  0.1348
33271SOL    HW217424  12.170   4.436  12.809  0.2559 -0.2141 -2.2074
33272SOL     OW17425   0.169   3.293   5.016  0.4557 -0.1989 -0.2221
33272SOL    HW117426   0.170   3.351   5.092  1.9620 -0.0638 -0.3083
33272SOL    HW217427   0.082   3.255   5.016 -0.5538  1.9666 -0.1057
33273SOL     OW17428   6.237  10.999   5.099 -0.3848  0.3289  0.6052
33273SOL    HW117429   6.174  10.931   5.122  1.1528 -0.9946  1.1113
33273SOL    HW217430   6.317  10.975   5.147  1.0766  0.8772 -1.4204
33274SOL     OW17431   8.468   9.644   0.807  0.4760 -0.3235  0.1274
33274SOL    HW117432   8.550   9.690   0.793 -0.4902  1.4645  0.0038
33274SOL    HW217433   8.472   9.568   0.748  1.8360 -0.0231 -0.1851
33275SOL     OW17434  13.094  12.142  12.444 -0.2286  0.7444  0.5650
33275SOL    HW117435  13.138  12.224  12.422  1.5765  0.6674  3.4325
33275SOL    HW217436  13.061  12.110  12.360 -0.1137  3.8425 -0.8056
33276SOL     OW17437   8.593   6.605   0.576 -0.6322  0.0189 -0.0998
33276SOL    HW117438   8.687   6.589   0.580 -0.6531 -0.3605 -0.8816
33276SOL    HW217439   8.572   6.646   0.660 -0.1836 -2.1241  1.1439
33277SOL     OW17440   2.178  13.106  12.512 -0.0335 -0.1519  0.2648
33277SOL    HW117441   2.190  13.025  12.463 -2.5506 -1.0286  0.9415
33277SOL    HW217442   2.086  13.130  12.498  0.3350  1.9801  1.0106
33278SOL     OW17443   6.637   6.567  13.522 -0.0907 -0.5131  0.2889
33278SOL    HW117444   6.729   6.593  13.530 -0.3554 -0.1503  3.6301
33278SOL    HW217445   6.628   6.540  13.431  3.1912 -0.1084 -0.2996
33279SOL     OW17446   6.918  10.272   5.233 -0.6641 -0.7800 -0.2685
33279SOL    HW117447   6.940  10.268   5.326  0.7885 -1.9604 -0.6423
33279SOL    HW217448   6.932  10.183   5.200 -0.2827 -0.1852 -1.8077
33280SOL     OW17449   1.484  13.873   9.978  0.0775  0.3798  0.4847
33280SOL    HW117450   1.469  13.856  10.071  1.7866 -2.5758  0.3284
33280SOL    HW217451   1.468  13.790   9.934 -0.8647  1.7312 -1.9618
33281SOL     OW17452   3.947  11.442   8.511  0.0366  0.3552  0.4850
33281SOL    HW117453   3.900  11.389   8.575 -0.1264 -1.0298 -0.7566
33281SOL    HW217454   4.011  11.382   8.472 -0.3533  0.9679 -1.1670
33282SOL     OW17455   9.824   1.378   9.943 -0.4049  0.2230  0.5314
33282SOL    HW117456   9.733   1.381   9.970 -0.4384 -0.5819  0.5323
33282SOL    HW217457   9.834   1.292   9.901  0.4360  0.1516  0.8571
33283SOL     OW17458   3.581  11.607   7.978  0.2667 -0.1972  0.2173
33283SOL    HW117459   3.610  11.687   8.022 -0.8538  1.0210 -1.1463
33283SOL    HW217460   3.596  11.537   8.042 -0.6901  1.3767  2.2728
33284SOL     OW17461  12.395  13.787   7.647  0.6670  0.2405  0.1471
33284SOL    HW117462  12.380  13.862   7.706 -0.1635  0.6381 -0.5469
33284SOL    HW217463  12.327  13.796   7.580  1.1916 -0.5805 -0.5039
33285SOL     OW17464   3.412   5.367  13.673  0.3041  0.5109  0.0249
33285SOL    HW117465   3.445   5.426  13.605  1.0058  0.1835  0.0767
33285SOL    HW217466   3.473   5.294  13.673 -0.2689  0.0243  0.3159
33286SOL     OW17467   9.382  11.174  10.839  0.0160  0.3757  0.3245
33286SOL    HW117468   9.371  11.269  10.837 -0.5043  0.3197  0.1358
33286SOL    HW217469   9.365  11.146  10.749 -0.8715  0.0100  0.5847
33287SOL     OW17470   9.008   6.235   5.413  0.6922  0.0419 -0.2374
33287SOL    HW117471   9.045   6.322   5.400  1.3803 -0.3299 -0.8723
33287SOL    HW217472   8.946   6.245   5.485  0.4715  1.1362 -0.5643
33288SOL     OW17473   3.094   8.386   4.449 -0.0301 -0.0338 -0.0350
33288SOL    HW117474   3.000   8.379   4.464  0.3186 -0.7489  2.1783
33288SOL    HW217475   3.120   8.465   4.497  0.8489 -1.2369  1.5566
33289SOL     OW17476  10.270  10.756  11.259  0.2451 -0.5197 -0.4428
33289SOL    HW117477  10.248  10.663  11.271 -1.4427 -0.2693 -1.2821
33289SOL    HW217478  10.331  10.776  11.331  2.7992 -2.9124 -1.7618
33290SOL     OW17479   2.636   1.785   6.486  0.2342 -0.0946  0.0861
33290SOL    HW117480   2.658   1.852   6.551  0.7904  0.9321 -1.1160
33290SOL    HW217481   2.540   1.787   6.482  0.1971  3.3772 -2.5312
33291SOL     OW17482  14.030   3.336   3.547 -0.1723  0.1826 -0.0895
33291SOL    HW117483  13.969   3.410   3.552 -0.2820  0.0671  0.3640
33291SOL    HW217484  13.981   3.268   3.501 -0.7647 -0.2538  1.1184
33292SOL     OW17485  10.834   9.676   6.970 -0.4119 -0.4936 -0.3752
33292SOL    HW117486  10.911   9.714   7.014  0.4611  1.4079 -3.2632
33292SOL    HW217487  10.763   9.690   7.032  1.1899 -0.4862  1.5763
33293SOL     OW17488   1.148  11.238   4.762 -0.5028 -0.5323  0.0958
33293SOL    HW117489   1.100  11.245   4.679 -0.9249 -0.1904  0.3622
33293SOL    HW217490   1.088  11.190   4.819  0.1779 -1.6218 -0.0800
33294SOL     OW17491   7.593   4.448   6.860  0.3239 -0.3369  0.3611
33294SOL    HW117492   7.536   4.505   6.808  1.3374 -0.3943 -0.8366
33294SOL    HW217493   7.574   4.360   6.828  2.7724 -0.1697 -1.7921
33295SOL     OW17494   5.178  13.688  10.131 -0.7149  0.4411  0.0104
33295SOL    HW117495   5.260  13.710  10.175 -0.4931  1.2935 -0.7931
33295SOL    HW217496   5.168  13.756  10.064 -1.3782 -0.4248 -0.7955
33296SOL     OW17497  11.666   3.943  12.264 -0.2455  0.3803 -0.2853
33296SOL    HW117498  11.730   3.955  12.334 -1.4544  0.8837  0.7819
33296SOL    HW217499  11.616   3.865  12.290  1.2094 -1.2553 -2.1558
33297SOL     OW17500   6.121  13.073  10.349  0.0420 -0.2337  0.0061
33297SOL    HW117501   6.132  13.151  10.294  2.9025 -0.5205  0.0732
33297SOL    HW217502   6.103  13.108  10.436  3.4123  0.5623  0.5231
33298SOL     OW17503   8.547   3.715   1.961 -0.0349 -0.1154 -0.4779
33298SOL    HW117504   8.453   3.723   1.946 -0.8536 -0.9557  3.2907
33298SOL    HW217505   8.581   3.804   1.947 -1.4785  0.3567 -1.1965
33299SOL     OW17506  10.429   7.562  13.078 -0.2429  0.0583 -0.1486
33299SOL    HW117507  10.368   7.495  13.048 -0.0274  0.7662 -2.2713
33299SOL    HW217508  10.513   7.516  13.084 -0.2954 -0.0942 -0.6019
33300SOL     OW17509   5.168   7.576   0.612  0.3050  0.3206  1.0199
33300SOL    HW117510   5.168   7.670   0.628 -1.5002  0.5823 -0.1443
33300SOL    HW217511   5.151   7.568   0.518 -0.7244 -1.1591  1.2970
33301SOL     OW17512   4.260  13.926   5.518  0.2339  0.3109  0.0086
33301SOL    HW117513   4.256  13.849   5.576  0.8855 -0.2558 -0.6744
33301SOL    HW217514   4.249  14.001   5.576  0.3258 -0.2710  0.7907
33302SOL     OW17515  11.002   5.925  10.466 -0.4435  0.3717  1.0422
33302SOL    HW117516  11.041   6.013  10.463  2.1665 -0.6802  1.5648
33302SOL    HW217517  10.937   5.926  10.396  0.8460  2.1404 -0.2345
33303SOL     OW17518   1.451   9.612   1.814  0.3330 -0.0921  0.2349
33303SOL    HW117519   1.522   9.661   1.854 -1.4785  1.1597  2.1613
33303SOL    HW217520   1.397   9.678   1.771 -0.4472 -0.8051  0.0890
33304SOL     OW17521   1.523  11.501  10.241  0.0976 -0.1125  0.8142
33304SOL    HW117522   1.563  11.415  10.234  1.9679  0.6347  1.5939
33304SOL    HW217523   1.568  11.543  10.315 -1.0667  1.3731  0.7388
33305SOL     OW17524  13.066  13.199  12.904 -0.0042  0.5270 -0.0368
33305SOL    HW117525  13.071  13.279  12.955  4.0202  1.0238 -0.8837
33305SOL    HW217526  13.053  13.228  12.814 -0.1759  0.1228 -0.1478
33306SOL     OW17527  11.364  11.463   2.964  0.5969  0.3451  0.2677
33306SOL    HW117528  11.416  11.400   3.015 -0.0500 -1.0441 -0.7214
33306SOL    HW217529  11.345  11.417   2.882 -1.7235  1.0063  0.3674
33307SOL     OW17530   3.909   4.006   8.810 -0.3529  0.3180  0.7465
33307SOL    HW117531   3.925   3.942   8.740 -0.2475  0.8895  0.2375
33307SOL    HW217532   3.831   4.054   8.780  0.3568  1.3247  0.4561
33308SOL     OW17533  13.896   7.919   8.783 -0.0938  0.0060  0.1658
33308SOL    HW117534  13.817   7.971   8.802  1.3153  2.2563  0.2633
33308SOL    HW217535  13.907   7.863   8.859 -1.9216 -0.7982 -0.1219
33309SOL     OW17536   6.427   3.817   9.664 -0.1084 -0.3364 -0.5448
33309SOL    HW117537   6.428   3.885   9.732  0.5609  0.5953 -1.4673
33309SOL    HW217538   6.491   3.846   9.600 -0.2766 -1.5311 -1.2754
33310SOL     OW17539   7.205   0.850   3.078  0.6007 -0.7092  0.1732
33310SOL    HW117540   7.120   0.814   3.103  0.1173  0.5800  0.4768
33310SOL    HW217541   7.195   0.945   3.088  1.3331 -0.3334 -1.9842
33311SOL     OW17542  11.929   2.256  11.971  0.3150 -0.0390  0.0464
33311SOL    HW117543  11.973   2.186  11.923 -0.3455  0.2590 -1.0340
33311SOL    HW217544  11.943   2.235  12.063  1.5941 -0.6476 -0.2672
33312SOL     OW17545   7.014   5.505   3.387 -0.1302 -0.6407  0.1092
33312SOL    HW117546   6.959   5.498   3.465  2.2208 -0.8728  1.8857
33312SOL    HW217547   7.056   5.419   3.380 -0.5246 -0.7236 -1.6399
33313SOL     OW17548   2.319   2.550   4.665  0.2024 -0.0914 -0.3672
33313SOL    HW117549   2.253   2.575   4.600 -1.2221  0.4029  1.1787
33313SOL    HW217550   2.279   2.476   4.712  0.8012  0.1360  0.5214
33314SOL     OW17551   4.513  11.789  12.337 -0.2738  0.3967 -0.4044
33314SOL    HW117552   4.508  11.880  12.308  0.9689  1.2872  1.9136
33314SOL    HW217553   4.468  11.787  12.421  0.5452 -0.9077  0.0470
33315SOL     OW17554   3.839   0.261  13.304 -0.2521  0.2111 -0.5113
33315SOL    HW117555   3.894   0.276  13.227 -0.5484 -1.6223 -1.1297
33315SOL    HW217556   3.866   0.328  13.366  1.2331  0.6430 -1.5677
33316SOL     OW17557  10.498   7.351   9.752  0.0535  0.4435  0.1447
33316SOL    HW117558  10.436   7.424   9.760 -0.4374 -0.1199  1.8865
33316SOL    HW217559  10.459   7.294   9.686 -0.6002  0.7586  0.2493
33317SOL     OW17560  13.252  10.211  10.855 -0.2995  0.0711  0.9783
33317SOL    HW117561  13.265  10.257  10.938  0.0541  0.9442  0.4546
33317SOL    HW217562  13.326  10.239  10.801 -0.2082 -0.9466  0.5626
33318SOL     OW17563   8.204  12.400   0.188 -0.3316 -0.3164 -0.1720
33318SOL    HW117564   8.206  12.320   0.135  2.2618 -0.6523  0.2691
33318SOL    HW217565   8.294  12.409   0.220 -0.1689  3.4503 -1.2108
33319SOL     OW17566   6.820   8.505  13.649 -0.4626 -0.4245  0.8802
33319SOL    HW117567   6.913   8.501  13.626 -0.2965  0.6298  1.3415
33319SOL    HW217568   6.790   8.587  13.611 -0.8040  0.0663  2.1908
33320SOL     OW17569   2.532   0.088  10.504 -0.0767  0.3761  0.1924
33320SOL    HW117570   2.520   0.171  10.457 -2.1598 -0.6670 -1.2538
33320SOL    HW217571   2.589   0.036  10.448 -1.9178 -0.5667 -0.9067
33321SOL     OW17572   8.047   1.893   4.202 -0.1229  0.3199  0.0470
33321SOL    HW117573   7.993   1.841   4.261  0.8664  0.6329  1.2819
33321SOL    HW217574   8.122   1.836   4.183 -0.0030  0.5532 -0.1790
33322SOL     OW17575  11.367  11.171   1.318  0.5955 -0.4262  0.2931
33322SOL    HW117576  11.462  11.170   1.330  0.4200 -1.5848  1.9598
33322SOL    HW217577  11.351  11.247   1.261  2.3881  0.6622  1.1401
33323SOL     OW17578   4.966   5.558  11.113 -0.0300 -0.4586  0.2988
33323SOL    HW117579   4.895   5.577  11.052  1.3410 -0.7575 -1.4435
33323SOL    HW217580   5.016   5.488  11.072  2.0719  0.6565  0.7968
33324SOL     OW17581   8.764   6.027   3.203  0.1533  0.3018  0.1855
33324SOL    HW117582   8.701   6.020   3.275 -0.7823  0.6738 -0.5628
33324SOL    HW217583   8.764   6.121   3.181  2.4835  0.6701  1.4558
33325SOL     OW17584   1.556   7.340  13.797 -0.1644  0.0403  0.3118
33325SOL    HW117585   1.585   7.431  13.796  1.8336 -0.5340 -1.8976
33325SOL    HW217586   1.629   7.291  13.833 -1.1392 -0.7546  1.2909
33326SOL     OW17587   9.947   2.738  11.766  0.0728 -0.3132  0.8843
33326SOL    HW117588   9.927   2.755  11.674 -0.0815  0.0499  0.9818
33326SOL    HW217589   9.924   2.820  11.810 -1.3715 -1.0166  1.4811
33327SOL     OW17590  12.329   1.377   6.653  0.0232  0.4868  0.2059
33327SOL    HW117591  12.251   1.408   6.699 -0.5722 -1.4966  0.6292
33327SOL    HW217592  12.396   1.371   6.722 -0.0948  0.0611  0.2829
33328SOL     OW17593   0.072   1.588   4.750 -0.4172 -0.2350  0.2997
33328SOL    HW117594  -0.003   1.647   4.757 -0.0851  0.3860 -1.1365
33328SOL    HW217595   0.097   1.590   4.658  1.1521 -0.7147  0.6755
33329SOL     OW17596  10.527   9.484  12.783 -0.0808  0.2477 -0.1619
33329SOL    HW117597  10.608   9.513  12.825 -0.4518  1.9867 -0.5598
33329SOL    HW217598  10.551   9.471  12.692 -0.0506 -0.1312 -0.1005
33330SOL     OW17599  11.752   7.851   6.066 -0.6143 -0.1136 -0.9064
33330SOL    HW117600  11.761   7.800   6.147 -2.2257 -0.5531 -0.9680
33330SOL    HW217601  11.774   7.789   5.997  1.4148  0.4363 -0.8418
33331SOL     OW17602   5.115  12.487  12.465 -0.1883  0.0389  0.3249
33331SOL    HW117603   5.108  12.403  12.511  1.3351 -0.1728  0.2152
33331SOL    HW217604   5.127  12.462  12.373  1.2825  0.3294  0.4229
33332SOL     OW17605   9.676   5.930   1.877  0.2859 -0.3117 -0.5291
33332SOL    HW117606   9.690   5.956   1.968  0.6646 -1.7144 -0.1627
33332SOL    HW217607   9.586   5.899   1.875 -0.1478  0.9230 -0.9514
33333SOL     OW17608   0.160   9.472   3.929 -0.1350  0.0174 -0.4093
33333SOL    HW117609   0.167   9.547   3.871 -2.5396 -0.1859 -1.0741
33333SOL    HW217610   0.176   9.396   3.873  0.5702 -0.0410 -0.1281
33334SOL     OW17611  13.600   3.703  10.074  0.4677  0.1993 -0.1273
33334SOL    HW117612  13.527   3.765  10.082  0.4544  0.3647 -1.3948
33334SOL    HW217613  13.652   3.717  10.153  1.1159  2.6884 -0.9237
33335SOL     OW17614  10.250   2.596  11.199 -0.4723  0.0981 -0.0991
33335SOL    HW117615  10.293   2.585  11.284  0.6648 -0.5983 -0.7412
33335SOL    HW217616  10.269   2.686  11.174 -4.1875  1.7537  2.1371
33336SOL     OW17617  10.772   9.798   0.145  0.3134 -0.4190  0.1353
33336SOL    HW117618  10.828   9.823   0.218  0.5498 -1.3245  0.2877
33336SOL    HW217619  10.715   9.873   0.130  0.8541  0.1050  0.6773
33337SOL     OW17620  10.075   3.782   5.426  0.1196 -0.0272 -0.7011
33337SOL    HW117621  10.043   3.706   5.378 -0.7447 -0.0517 -0.0958
33337SOL    HW217622   9.997   3.830   5.452  0.5331 -0.1148  0.8502
33338SOL     OW17623   0.272   7.427  13.776  0.8334 -0.4977 -0.2392
33338SOL    HW117624   0.259   7.519  13.755  1.1281 -0.7534 -1.6565
33338SOL    HW217625   0.360   7.423  13.813  1.1260 -0.3116 -0.9039
33339SOL     OW17626   0.667   9.902   5.542 -0.1462  0.3695  0.6653
33339SOL    HW117627   0.716   9.941   5.614 -0.3399  0.4349  0.7612
33339SOL    HW217628   0.637   9.976   5.490 -1.1774  0.3967  1.2753
33340SOL     OW17629   9.476   4.157   4.955  0.4206 -0.2760 -0.5116
33340SOL    HW117630   9.421   4.181   4.881 -0.9687 -0.8498  0.2930
33340SOL    HW217631   9.431   4.194   5.031  0.7597 -1.3478  0.2425
33341SOL     OW17632   3.341   7.897   1.508  0.2346  0.0050  0.1046
33341SOL    HW117633   3.428   7.876   1.475  0.6955  2.1069 -0.1895
33341SOL    HW217634   3.314   7.819   1.557  3.0712 -0.0369  1.8003
33342SOL     OW17635   8.820  12.060   2.968  0.1562  0.6432  0.2221
33342SOL    HW117636   8.800  12.028   3.055  1.4460 -0.2041  0.2325
33342SOL    HW217637   8.909  12.095   2.975  0.2844  0.5463 -0.7542
33343SOL     OW17638   7.505  11.449  11.094 -0.2163  0.2616 -0.0986
33343SOL    HW117639   7.544  11.361  11.088  0.7606  0.7818 -1.7328
33343SOL    HW217640   7.476  11.469  11.005 -1.6954  1.0545  0.5306
33344SOL     OW17641   4.455   2.330   2.923  0.1900  0.4148 -0.3560
33344SOL    HW117642   4.469   2.317   2.829  0.6703  0.8882 -0.3542
33344SOL    HW217643   4.451   2.242   2.959  1.7762  0.2154 -0.5716
33345SOL     OW17644   4.964   5.882   4.045 -0.2636 -0.0457  0.3884
33345SOL    HW117645   5.006   5.866   4.130  0.3125  1.0926  0.3408
33345SOL    HW217646   4.884   5.830   4.048  1.1037 -2.3208  0.4891
33346SOL     OW17647   4.994  12.946   8.603 -0.3677 -0.0389  0.0980
33346SOL    HW117648   4.928  12.974   8.540 -0.0871  0.3250 -0.0370
33346SOL    HW217649   5.066  13.008   8.591  0.6438 -1.3213 -0.8398
33347SOL     OW17650   6.973   0.955   2.243  0.0150 -0.1692 -0.3357
33347SOL    HW117651   6.904   1.017   2.266  0.5312  0.2675  0.0474
33347SOL    HW217652   7.010   0.991   2.162 -0.7134 -0.8233 -0.9746
33348SOL     OW17653  12.340  13.574  11.571  0.0797 -0.4755  0.0401
33348SOL    HW117654  12.428  13.597  11.542  0.6197  0.2890  2.1158
33348SOL    HW217655  12.284  13.641  11.532  0.4696 -0.6939 -0.9160
33349SOL     OW17656   0.039   6.394  13.164 -0.2096  0.0945  0.3655
33349SOL    HW117657   0.036   6.326  13.097  0.2025  0.4759 -0.0397
33349SOL    HW217658   0.115   6.372  13.218  0.8529  1.0905 -0.6880
33350SOL     OW17659   7.824   9.794   1.543  0.2377  0.1257 -0.3368
33350SOL    HW117660   7.900   9.783   1.486 -0.0632  0.0470 -0.7334
33350SOL    HW217661   7.808   9.707   1.580  1.0887  0.4052  0.7288
33351SOL     OW17662   6.240   2.418   6.712 -0.0615 -0.2439 -0.0396
33351SOL    HW117663   6.177   2.348   6.730 -2.2197  1.1096 -1.8857
33351SOL    HW217664   6.251   2.463   6.795 -1.8320 -0.3165  0.2610
33352SOL     OW17665   7.225   1.759   5.736  0.5902  0.3379 -0.0745
33352SOL    HW117666   7.177   1.842   5.738  2.4639  1.5379 -1.5397
33352SOL    HW217667   7.219   1.731   5.645  2.6573  0.5761 -0.3264
33353SOL     OW17668   5.480   3.133   0.879  0.3936  0.4836 -0.4921
33353SOL    HW117669   5.511   3.151   0.968 -1.9983 -0.5979  0.6632
33353SOL    HW217670   5.481   3.218   0.836  3.2486  0.7653 -0.0691
33354SOL     OW17671   0.717  11.397  11.121 -0.3743  0.4855  0.4190
33354SOL    HW117672   0.737  11.342  11.046 -0.4678  0.4195  0.4415
33354SOL    HW217673   0.662  11.467  11.086 -0.3428  0.5053  0.4095
33355SOL     OW17674  10.272  11.682   6.339 -0.1335  0.6130  0.1121
33355SOL    HW117675  10.366  11.696   6.347  0.4414 -2.5588  0.0343
33355SOL    HW217676  10.244  11.746   6.273  2.2649  0.5067 -1.1153
33356SOL     OW17677  11.610   5.488   7.254 -0.7724  0.0606  0.0523
33356SOL    HW117678  11.624   5.395   7.275 -1.6083  0.0913  0.7931
33356SOL    HW217679  11.530   5.489   7.202 -1.0497  0.4049  0.4742
33357SOL     OW17680   4.142   1.020  12.858  0.0839 -0.3635  0.1296
33357SOL    HW117681   4.096   1.014  12.942 -1.2155  0.1211 -0.5081
33357SOL    HW217682   4.073   1.042  12.795  1.1337 -0.0977 -0.9627
33358SOL     OW17683  10.759  10.688   8.859  0.1461  0.1760 -0.1223
33358SOL    HW117684  10.773  10.628   8.786  0.8263 -1.1507  1.0366
33358SOL    HW217685  10.676  10.731   8.839  0.6878  0.4101 -2.0220
33359SOL     OW17686   4.080   6.830  12.955  0.8021 -0.1234  0.4010
33359SOL    HW117687   4.034   6.870  13.029 -0.0125 -0.3537  0.0249
33359SOL    HW217688   4.117   6.904  12.907 -0.4568  0.1884 -0.1344
33360SOL     OW17689   6.182   6.653   5.648  0.7167 -0.4875  0.7111
33360SOL    HW117690   6.197   6.588   5.580 -0.4404 -0.1303  0.0875
33360SOL    HW217691   6.187   6.737   5.602  0.4067 -0.2245  1.1483
33361SOL     OW17692   0.205   2.589   2.131  0.0809  0.1103  0.3014
33361SOL    HW117693   0.277   2.603   2.070 -1.1211 -1.2677 -1.5311
33361SOL    HW217694   0.216   2.498   2.160 -1.8291 -0.7454 -1.3887
33362SOL     OW17695  11.023   1.206   9.998  0.0373  0.1651  0.3061
33362SOL    HW117696  10.951   1.269   9.988  1.8809  2.6017  1.3607
33362SOL    HW217697  11.061   1.199   9.911 -0.7616 -0.2761 -0.0203
33363SOL     OW17698  11.945   3.969  12.011  0.1308 -0.4885 -0.5330
33363SOL    HW117699  11.880   3.913  12.054  0.0719  0.0291  0.0637
33363SOL    HW217700  12.023   3.962  12.065  0.3418 -0.5325 -0.8421
33364SOL     OW17701   0.875   1.032  13.362  0.3069 -0.2471 -0.1494
33364SOL    HW117702   0.858   1.049  13.270 -1.7396  0.9776  0.3884
33364SOL    HW217703   0.855   0.939  13.373 -0.7191 -0.1152 -0.7159
33365SOL     OW17704  11.954  10.597   2.787 -0.0790 -0.2191 -0.4759
33365SOL    HW117705  12.035  10.548   2.798  2.3786  3.7210  1.1779
33365SOL    HW217706  11.946  10.608   2.692  1.1801 -0.9139 -0.6879
33366SOL     OW17707  10.114   3.468   2.546 -0.1904  0.0664 -0.6200
33366SOL    HW117708  10.135   3.477   2.639  2.9950 -0.5693 -1.1802
33366SOL    HW217709  10.048   3.536   2.530 -1.1877 -0.0945  2.1325
33367SOL     OW17710   5.892   7.999  13.957  0.7453 -0.3477 -0.3448
33367SOL    HW117711   5.881   8.090  13.987 -0.3581 -0.3430 -0.7410
33367SOL    HW217712   5.986   7.982  13.969  0.5316 -0.1284  2.4535
33368SOL     OW17713   4.151   7.460  10.806 -0.1546  0.0542  0.1950
33368SOL    HW117714   4.068   7.489  10.844  0.7316  3.3439 -0.0590
33368SOL    HW217715   4.126   7.406  10.731 -1.9641 -1.2789  1.6375
33369SOL     OW17716   7.242   1.124  10.777  0.0394 -0.4538  0.1035
33369SOL    HW117717   7.147   1.134  10.766  0.1469  0.0779 -0.4059
33369SOL    HW217718   7.260   1.163  10.863 -0.3913 -1.8715  0.8681
33370SOL     OW17719   6.384   0.239   1.597 -0.4588 -0.7860 -0.3050
33370SOL    HW117720   6.295   0.262   1.572  0.0537  0.7428 -0.8184
33370SOL    HW217721   6.385   0.143   1.595 -2.2550 -0.8673  0.3691
33371SOL     OW17722  10.670  10.512   3.230 -0.0646  0.7355  0.1312
33371SOL    HW117723  10.762  10.536   3.237  0.0495  0.6245 -0.8317
33371SOL    HW217724  10.633  10.575   3.168 -0.5333  0.4931  0.1580
33372SOL     OW17725   1.630   0.480   8.454  0.3174 -0.4839  0.4593
33372SOL    HW117726   1.625   0.539   8.529 -0.4878  1.3768 -0.9517
33372SOL    HW217727   1.599   0.533   8.380  0.2796 -2.4723 -1.0476
33373SOL     OW17728  12.216   6.602   4.631  0.0712  0.1133  0.0671
33373SOL    HW117729  12.238   6.579   4.541  2.8760  1.5817  0.2836
33373SOL    HW217730  12.267   6.541   4.685 -1.2752 -0.4871  0.7221
33374SOL     OW17731   6.382   1.369   8.933  0.4099 -0.0070 -0.6152
33374SOL    HW117732   6.301   1.400   8.973 -1.1118  1.5208 -4.3717
33374SOL    HW217733   6.361   1.280   8.903 -0.4673  0.8290 -2.6909
33375SOL     OW17734   8.193   1.699   9.880 -0.2434 -0.1508  0.2286
33375SOL    HW117735   8.250   1.675   9.953 -0.6107 -0.3529  0.4518
33375SOL    HW217736   8.253   1.725   9.810  0.1602 -1.2565  0.1446
33376SOL     OW17737   4.737  13.977   8.559  0.1976  0.3098  0.5328
33376SOL    HW117738   4.660  13.933   8.522  1.4153 -0.9409 -0.6208
33376SOL    HW217739   4.805  13.910   8.559  1.5614  1.6524  0.6503
33377SOL     OW17740   5.575   4.192  10.497 -0.2288  0.4104 -0.2593
33377SOL    HW117741   5.529   4.148  10.568  0.0477  2.0401  0.9957
33377SOL    HW217742   5.654   4.140  10.484 -1.1405 -0.9221 -0.6369
33378SOL     OW17743  13.798  10.068  10.321  0.3832  0.2712 -0.1024
33378SOL    HW117744  13.793  10.043  10.413  2.5292  0.4654  0.1076
33378SOL    HW217745  13.845   9.996  10.279 -1.1456 -0.1240 -1.2049
33379SOL     OW17746   5.118  14.031   7.027  0.1573  0.4566 -1.3535
33379SOL    HW117747   5.035  14.055   6.985 -0.5700  0.6998  0.1661
33379SOL    HW217748   5.093  13.980   7.104  1.4197  0.3880 -0.9641
33380SOL     OW17749   8.774  11.121  13.733 -0.1548  0.1886 -0.4873
33380SOL    HW117750   8.860  11.148  13.702  1.2130 -0.9931  1.9980
33380SOL    HW217751   8.776  11.026  13.732 -0.4567  0.0832  1.8469
33381SOL     OW17752  12.437   2.533   1.192  0.4138  0.1605 -0.3229
33381SOL    HW117753  12.477   2.597   1.133  1.7516 -2.0127 -1.9463
33381SOL    HW217754  12.387   2.476   1.135  2.1068 -2.2915  0.4894
33382SOL     OW17755  12.169   0.048   1.700  0.1615 -0.4135 -0.1762
33382SOL    HW117756  12.231   0.009   1.761  1.2355  1.6101  0.1346
33382SOL    HW217757  12.210   0.038   1.614  0.0655 -0.6391 -0.1965
33383SOL     OW17758   0.621   0.658   6.502 -0.4965 -0.6926  0.2189
33383SOL    HW117759   0.647   0.751   6.500  2.1000 -1.3323 -2.1522
33383SOL    HW217760   0.673   0.621   6.574 -0.6689 -0.5358  0.4273
33384SOL     OW17761   7.063   2.267   2.908 -0.1034 -0.1229 -0.2744
33384SOL    HW117762   7.156   2.256   2.891 -0.2669  0.8631 -2.0704
33384SOL    HW217763   7.056   2.278   3.003  1.5665 -0.4319 -0.1002
33385SOL     OW17764   6.394   1.554   8.713 -0.0768  0.3072  0.0975
33385SOL    HW117765   6.402   1.505   8.794 -0.1495  0.9783  0.5143
33385SOL    HW217766   6.414   1.490   8.644 -0.7914 -0.4610  0.5939
33386SOL     OW17767  12.201   6.067  12.708 -0.4776  0.2363  0.1429
33386SOL    HW117768  12.110   6.048  12.733 -0.3034  1.8828  2.2832
33386SOL    HW217769  12.236   6.117  12.781  2.6222 -1.5005  0.0111
33387SOL     OW17770   0.019  14.050   8.407  0.2258 -0.5570  0.2084
33387SOL    HW117771  -0.075  14.064   8.394  0.5129  1.6059  0.0048
33387SOL    HW217772   0.028  14.032   8.500 -0.2440  1.4017  0.6929
33388SOL     OW17773   1.860   4.219   0.521 -0.3594 -0.4225 -0.3940
33388SOL    HW117774   1.792   4.218   0.589 -0.0602 -0.3447 -0.0945
33388SOL    HW217775   1.919   4.148   0.545  1.3972  1.4425  1.1077
33389SOL     OW17776   2.611   3.478  13.243 -0.0723  0.4139 -0.2457
33389SOL    HW117777   2.694   3.431  13.245  0.5592  1.5402  1.2597
33389SOL    HW217778   2.552   3.425  13.297  0.6560  1.3372  1.5011
33390SOL     OW17779   1.022   1.639  11.392 -0.3233 -0.2447 -0.5798
33390SOL    HW117780   1.108   1.609  11.363 -1.0397 -2.6219 -0.4777
33390SOL    HW217781   0.991   1.570  11.451 -1.2348  1.8072  1.5031
33391SOL     OW17782   4.268   5.190   2.309 -0.8448 -0.0223  0.2183
33391SOL    HW117783   4.348   5.140   2.295 -0.7938  0.2026 -0.2901
33391SOL    HW217784   4.265   5.253   2.238 -1.2251  0.2989  0.5109
33392SOL     OW17785  10.984   4.798   8.849 -0.2596  0.1982  0.3189
33392SOL    HW117786  10.931   4.719   8.856  0.3280 -0.2025  0.3358
33392SOL    HW217787  11.030   4.804   8.933  1.5743 -0.8323 -0.5366
33393SOL     OW17788   1.101   8.605  12.150 -0.4968  0.4687 -0.2759
33393SOL    HW117789   1.181   8.586  12.199  0.1375 -0.0439 -1.4585
33393SOL    HW217790   1.095   8.533  12.087 -1.7123  0.6864 -0.4212
33394SOL     OW17791  13.512   0.584   2.689  0.2293  0.7205 -0.3531
33394SOL    HW117792  13.585   0.536   2.729  0.1408  1.4053  0.6781
33394SOL    HW217793  13.436   0.561   2.743 -0.1631  0.6439 -0.9283
33395SOL     OW17794  13.452  10.763   1.473  0.2396  0.3439  0.1491
33395SOL    HW117795  13.504  10.683   1.481 -0.0649  0.2207  1.0805
33395SOL    HW217796  13.389  10.757   1.545 -1.4964  0.1931 -1.3207
33396SOL     OW17797   4.284   9.121  10.347 -0.1281 -0.4215  0.0274
33396SOL    HW117798   4.326   9.177  10.281  0.1457 -2.5744 -1.7579
33396SOL    HW217799   4.195   9.153  10.353  0.6262  1.6531  0.8169
33397SOL     OW17800   6.733   6.451   6.122  0.3794  0.1986 -0.3504
33397SOL    HW117801   6.682   6.528   6.149 -1.0140 -0.4792 -0.9513
33397SOL    HW217802   6.741   6.460   6.027 -1.3328 -1.2340 -0.6947
33398SOL     OW17803   0.032   6.158  12.692  0.1425  0.2328 -0.5329
33398SOL    HW117804   0.069   6.245  12.676 -0.1196  0.0143 -2.5343
33398SOL    HW217805   0.061   6.105  12.618 -0.8584 -1.0181 -0.0758
33399SOL     OW17806   9.983  11.910   6.244 -0.4072  0.3122 -0.2681
33399SOL    HW117807   9.947  11.840   6.191 -1.5582 -0.2407  1.1623
33399SOL    HW217808   9.906  11.957   6.277  0.1795 -0.1067  1.8376
33400SOL     OW17809   5.089   8.028   5.105  0.0942  0.2548 -0.7863
33400SOL    HW117810   5.165   7.971   5.110 -1.1015 -1.5814 -2.0869
33400SOL    HW217811   5.022   7.984   5.157 -0.4863  1.1432 -0.7562
33401SOL     OW17812   1.519   0.049  10.931  0.2954  0.2419  0.0763
33401SOL    HW117813   1.611   0.022  10.930  0.8602  2.0366 -0.6974
33401SOL    HW217814   1.493   0.047  10.839 -0.3724 -0.0302  0.2693
33402SOL     OW17815   6.430  13.290   6.049  0.5406  0.4244  0.3136
33402SOL    HW117816   6.509  13.284   5.995 -0.2242  3.3870 -1.3754
33402SOL    HW217817   6.462  13.309   6.137  1.7297 -1.3957  0.3203
33403SOL     OW17818   0.460  12.429   7.666  0.0421 -0.2437 -0.4186
33403SOL    HW117819   0.476  12.337   7.687 -0.5524  0.0750  1.6896
33403SOL    HW217820   0.518  12.477   7.725 -1.3468  0.7509  0.1860
33404SOL     OW17821  10.935   5.544   4.031  0.6978 -0.3374 -0.1476
33404SOL    HW117822  10.945   5.527   4.124 -2.6297 -0.5385  0.3004
33404SOL    HW217823  10.888   5.467   3.998 -0.2444  0.7704 -1.4860
33405SOL     OW17824  12.352  10.336   5.962  0.2196 -0.4517 -0.5924
33405SOL    HW117825  12.323  10.338   5.871  1.3027 -0.5236 -0.9496
33405SOL    HW217826  12.332  10.424   5.995  0.3102 -0.2548 -1.0543
33406SOL     OW17827   7.281  12.414   0.594 -0.3722  0.1585 -0.7007
33406SOL    HW117828   7.324  12.498   0.613 -1.1176  0.1146  1.5624
33406SOL    HW217829   7.220  12.433   0.524 -0.7344  1.6156 -0.0296
33407SOL     OW17830   5.747   4.240  10.797  0.3171  0.0369 -0.0956
33407SOL    HW117831   5.719   4.285  10.717  0.5394 -1.0459 -0.8087
33407SOL    HW217832   5.826   4.192  10.771 -0.3793 -1.4410  0.3630
33408SOL     OW17833  10.357   0.997   7.695  0.0658 -0.5073 -0.0737
33408SOL    HW117834  10.405   0.940   7.635 -1.0281  0.2113 -1.6944
33408SOL    HW217835  10.412   1.000   7.774  0.7931 -2.6917 -0.4301
33409SOL     OW17836  12.900   4.435  12.259 -0.3635  0.2547  0.6996
33409SOL    HW117837  12.820   4.476  12.292  0.0020  0.2969  1.5485
33409SOL    HW217838  12.965   4.505  12.260 -0.2628  0.1744  0.1784
33410SOL     OW17839  13.421   0.447   9.674  0.3513  0.0910  0.0201
33410SOL    HW117840  13.450   0.480   9.759 -0.5638  0.3436  0.2482
33410SOL    HW217841  13.325   0.449   9.680  0.2895 -0.6308 -0.7340
33411SOL     OW17842  13.078   3.261   9.563 -0.5731 -0.2035 -0.2047
33411SOL    HW117843  12.998   3.244   9.513 -1.4459  1.8795  0.3809
33411SOL    HW217844  13.119   3.335   9.519 -1.1528  1.4154  1.8304
33412SOL     OW17845  13.653  12.675  13.121  0.0868 -0.5794 -0.0649
33412SOL    HW117846  13.563  12.644  13.118  0.0774 -0.6086  0.3932
33412SOL    HW217847  13.694  12.623  13.190  0.1278  0.2421  0.5590
33413SOL     OW17848  10.726   8.178   0.718 -0.3481 -0.3287  0.1984
33413SOL    HW117849  10.765   8.257   0.754 -1.2767  0.7554 -1.0938
33413SOL    HW217850  10.668   8.146   0.787 -1.2290  1.0661  0.1217
33414SOL     OW17851  11.284   4.839   5.466 -0.4015 -0.0145  0.0903
33414SOL    HW117852  11.201   4.823   5.512 -0.4243  0.0015  0.0547
33414SOL    HW217853  11.274   4.927   5.429  0.4567  0.8886  1.8875
33415SOL     OW17854   1.688  11.790  12.896  0.2354 -0.7013  0.5662
33415SOL    HW117855   1.725  11.875  12.919 -0.3466 -0.5799  1.0683
33415SOL    HW217856   1.607  11.783  12.947  1.0320 -2.2118  1.7206
33416SOL     OW17857  14.023  12.551   1.324  0.0026 -0.3707 -0.2720
33416SOL    HW117858  13.956  12.482   1.327 -1.1037  0.7018  1.1603
33416SOL    HW217859  14.106  12.505   1.334 -0.4849 -1.7288 -1.9346
33417SOL     OW17860   3.824   5.624   7.641  0.1746 -0.3837 -0.3557
33417SOL    HW117861   3.813   5.717   7.623  0.0972 -0.1403  0.8831
33417SOL    HW217862   3.738   5.586   7.622  0.4795 -0.3828 -1.8223
33418SOL     OW17863  13.660   4.716   8.621 -0.1653 -0.4566  0.1546
33418SOL    HW117864  13.754   4.700   8.612  0.0922  0.1481  1.4576
33418SOL    HW217865  13.618   4.639   8.583  0.9172 -1.9954  1.8707
33419SOL     OW17866   7.611   1.700   6.785  0.4111  0.2902  0.5278
33419SOL    HW117867   7.521   1.681   6.812  0.9113 -0.1164  2.0291
33419SOL    HW217868   7.654   1.615   6.784  1.1333  0.6326  1.2824
33420SOL     OW17869  13.271   7.300   0.065 -0.0083 -0.7239  0.4757
33420SOL    HW117870  13.335   7.355   0.019  0.1074  0.1060  1.6002
33420SOL    HW217871  13.313   7.214   0.069  1.2904 -0.0895  1.6061
33421SOL     OW17872   4.613   1.625   0.699 -0.5697 -1.0395 -0.0264
33421SOL    HW117873   4.595   1.531   0.693 -0.8659 -1.0446  0.8549
33421SOL    HW217874   4.588   1.649   0.788 -0.2241 -0.1785 -0.1506
33422SOL     OW17875   2.449   3.382   8.540  0.1416 -0.3303  0.0949
33422SOL    HW117876   2.486   3.298   8.512  1.4931  0.0439  0.6951
33422SOL    HW217877   2.404   3.415   8.462  0.3249 -1.2074 -0.3965
33423SOL     OW17878  11.034   1.649   5.501 -0.1875  0.3628 -0.1767
33423SOL    HW117879  11.046   1.701   5.581 -1.7840  0.5074  0.0018
33423SOL    HW217880  10.995   1.567   5.531  0.0891  0.0328 -0.7113
33424SOL     OW17881  12.521   4.066  11.572  0.1588  0.4995  0.0407
33424SOL    HW117882  12.589   4.041  11.509 -0.1425  1.3775 -0.6516
33424SOL    HW217883  12.540   4.158  11.592 -2.2186  1.5428 -2.0411
33425SOL     OW17884   4.388  12.191  10.453  0.2903 -0.3651  0.1009
33425SOL    HW117885   4.305  12.144  10.444  0.8118 -0.9302 -2.4854
33425SOL    HW217886   4.368  12.264  10.511 -2.0576 -0.4608 -0.4969
33426SOL     OW17887   6.865   8.862   4.815  0.3184 -1.0324 -0.0335
33426SOL    HW117888   6.926   8.835   4.746 -1.4234 -1.2176 -1.5844
33426SOL    HW217889   6.854   8.783   4.868  2.5249 -0.5825  1.1982
33427SOL     OW17890   1.196   8.622  11.177  0.1555  0.0372 -0.4219
33427SOL    HW117891   1.174   8.620  11.084  1.4167  1.0396 -0.7666
33427SOL    HW217892   1.198   8.715  11.200  0.7128 -0.1595  0.3914
33428SOL     OW17893  13.509   4.997   6.763 -0.2689  0.1537 -0.0742
33428SOL    HW117894  13.415   4.985   6.770 -0.2515 -0.6016 -0.9120
33428SOL    HW217895  13.546   4.915   6.794  0.2224  1.1773  2.2472
33429SOL     OW17896   9.600   0.404  12.097  0.3054  0.0499 -0.2002
33429SOL    HW117897   9.610   0.399  12.192 -0.0174 -0.4647 -0.1853
33429SOL    HW217898   9.544   0.329  12.075  2.2440 -1.2298 -1.0628
33430SOL     OW17899  13.506   9.732   6.971 -0.0190  0.2722  0.1033
33430SOL    HW117900  13.567   9.805   6.983  1.7051 -1.2454  0.9915
33430SOL    HW217901  13.521   9.675   7.047 -2.4038 -0.3010  0.2321
33431SOL     OW17902   8.773   6.359  12.695 -0.0389 -0.8984 -0.1910
33431SOL    HW117903   8.709   6.288  12.685 -0.5038 -0.2943 -1.9201
33431SOL    HW217904   8.776   6.401  12.609  1.8226 -0.1522  0.1897
33432SOL     OW17905   5.653  11.695  13.216 -0.0284 -0.6902 -0.1130
33432SOL    HW117906   5.618  11.640  13.145  1.3545  0.2528 -1.5797
33432SOL    HW217907   5.747  11.696  13.201  0.3742 -0.8829  2.0879
33433SOL     OW17908  13.886   2.730   2.177  0.0926 -0.1715 -0.1963
33433SOL    HW117909  13.857   2.760   2.263  0.9323 -3.5854  1.4793
33433SOL    HW217910  13.809   2.686   2.141  0.2486 -0.3087 -0.3596
33434SOL     OW17911  11.278   4.926   2.842  0.1172 -0.0992  0.2352
33434SOL    HW117912  11.219   4.911   2.767  2.7627  1.6027 -2.4198
33434SOL    HW217913  11.331   4.847   2.846  1.4532  0.6563 -1.2804
33435SOL     OW17914   0.873   7.495   9.957 -0.1143  0.3573 -0.9111
33435SOL    HW117915   0.826   7.512   9.875 -0.4324 -0.0334 -0.8103
33435SOL    HW217916   0.818   7.532  10.025 -0.0386  0.3310 -0.8354
33436SOL     OW17917   4.135   5.492   0.859  0.3323 -0.4974  0.0531
33436SOL    HW117918   4.202   5.496   0.791 -0.0590  3.0391 -0.3455
33436SOL    HW217919   4.142   5.577   0.904 -3.4932 -0.1120  0.2684
33437SOL     OW17920   0.221  11.483  11.023  0.4425 -0.4586  0.1613
33437SOL    HW117921   0.237  11.568  10.981  0.8708 -1.4834 -1.9054
33437SOL    HW217922   0.290  11.475  11.088  0.3852  0.7793  0.4057
33438SOL     OW17923  11.073  13.551  10.561  0.2401 -0.4923  0.7292
33438SOL    HW117924  11.140  13.514  10.619 -0.3192 -0.7685  1.2095
33438SOL    HW217925  11.014  13.477  10.543 -0.8696  0.1290  1.6670
33439SOL     OW17926   8.218  11.862   4.712 -0.0175  0.0757  0.2324
33439SOL    HW117927   8.293  11.903   4.755  0.7714 -0.5986 -0.4540
33439SOL    HW217928   8.252  11.831   4.628 -0.4052 -2.4066  0.8850
33440SOL     OW17929   6.321   7.623   5.845 -0.0752  0.5179 -0.1058
33440SOL    HW117930   6.267   7.694   5.810  0.1251 -0.0801 -1.6974
33440SOL    HW217931   6.259   7.553   5.866  0.0349 -0.1797 -1.9589
33441SOL     OW17932   4.889  10.229   6.246  0.0480  0.0628  0.2698
33441SOL    HW117933   4.863  10.265   6.330 -0.1674 -1.3279  0.8153
33441SOL    HW217934   4.808  10.200   6.205  0.1520  0.7115 -0.4295
33442SOL     OW17935  10.452   1.018   1.162  0.4961  0.0923 -0.8552
33442SOL    HW117936  10.546   1.009   1.142  0.6959  2.2206 -1.0996
33442SOL    HW217937  10.410   1.018   1.076  0.3628 -0.0025 -0.7892
33443SOL     OW17938   3.108   1.859   9.153  0.0731 -0.0337 -0.2597
33443SOL    HW117939   3.105   1.955   9.156 -1.9252 -0.0636  1.0798
33443SOL    HW217940   3.041   1.836   9.089  0.2610 -0.5463 -0.2731
33444SOL     OW17941   3.984   2.792  10.195  0.8190  0.8805 -0.1468
33444SOL    HW117942   3.928   2.788  10.118  3.0708  0.3541 -1.8729
33444SOL    HW217943   4.000   2.886  10.208 -1.0276  1.1003  0.8898
33445SOL     OW17944   6.298   1.705   2.404  0.1274  0.5742 -0.0831
33445SOL    HW117945   6.335   1.628   2.447 -1.4447 -0.7619 -1.0008
33445SOL    HW217946   6.346   1.712   2.322 -1.0825 -0.7291 -0.9476
33446SOL     OW17947   4.873   0.673  12.217  0.2159 -0.5095 -0.5380
33446SOL    HW117948   4.801   0.612  12.201  1.0439 -1.2899 -1.4693
33446SOL    HW217949   4.878   0.725  12.136 -1.6021  2.0509  0.8815
33447SOL     OW17950   9.340   7.606   0.580  0.1958 -0.3870  0.2413
33447SOL    HW117951   9.392   7.616   0.500 -0.9294 -1.2439 -0.6332
33447SOL    HW217952   9.325   7.695   0.611  4.1210 -0.0922  1.8911
33448SOL     OW17953   0.390   7.546  12.822  0.7354  0.1720 -0.1928
33448SOL    HW117954   0.403   7.495  12.902  1.1940  0.5773 -0.0056
33448SOL    HW217955   0.306   7.591  12.835  0.0672 -0.9039 -0.5704
33449SOL     OW17956   3.380   2.353  10.987  0.2371  0.5341  0.1208
33449SOL    HW117957   3.335   2.437  10.989  2.6484  2.0336 -2.1828
33449SOL    HW217958   3.431   2.351  11.068  1.3697  2.1111 -0.4990
33450SOL     OW17959   2.350   4.249   1.001  0.0800 -0.5643  0.2797
33450SOL    HW117960   2.378   4.166   0.962 -0.9066 -1.3194  1.1321
33450SOL    HW217961   2.417   4.312   0.974 -0.9212 -0.7941 -3.3496
33451SOL     OW17962   5.971   7.650   5.127 -0.3424 -0.0902 -0.2247
33451SOL    HW117963   5.982   7.725   5.068 -0.5924 -0.0762 -0.2533
33451SOL    HW217964   6.054   7.603   5.120 -0.0922  0.3161 -0.0186
33452SOL     OW17965   4.779   2.571   0.325  0.1315 -0.1437  0.0327
33452SOL    HW117966   4.858   2.594   0.275  0.3190  0.1474  0.4526
33452SOL    HW217967   4.813   2.526   0.402 -0.0606  0.6147  0.5714
33453SOL     OW17968   5.730  10.820   8.112  0.2237  0.6006 -0.3828
33453SOL    HW117969   5.680  10.870   8.047  0.1412 -2.0402 -2.5257
33453SOL    HW217970   5.665  10.790   8.175 -0.4551 -0.3066 -1.4837
33454SOL     OW17971  11.440   6.854   4.449  0.3643 -0.2072 -0.4482
33454SOL    HW117972  11.367   6.910   4.424 -2.1041 -2.1203  1.9960
33454SOL    HW217973  11.492   6.906   4.509  0.2922  0.7036 -1.1577
33455SOL     OW17974  13.167   6.333   8.603 -0.0799 -0.1255  0.3582
33455SOL    HW117975  13.124   6.377   8.530  0.8740  2.0879  1.0407
33455SOL    HW217976  13.212   6.258   8.563  0.1056  0.8125 -1.2773
33456SOL     OW17977   2.377   2.969  10.127  0.0792 -0.2592  0.0816
33456SOL    HW117978   2.470   2.982  10.105  0.2209 -0.1073  0.7322
33456SOL    HW217979   2.371   2.998  10.218 -0.0987 -2.5364  0.8381
33457SOL     OW17980   9.675   1.743   2.395  0.0479  0.5536 -0.1694
33457SOL    HW117981   9.605   1.749   2.460 -0.9338 -0.5530 -1.0904
33457SOL    HW217982   9.721   1.662   2.416  0.1529  0.5396 -0.4503
33458SOL     OW17983  13.422   3.359  11.510  0.2102  0.5842 -0.1035
33458SOL    HW117984  13.471   3.423  11.562 -0.4783  1.8595 -0.9749
33458SOL    HW217985  13.458   3.369  11.422  1.0293 -1.2086 -0.0084
33459SOL     OW17986   3.251   5.412   9.102 -0.2904  0.1000 -0.2654
33459SOL    HW117987   3.224   5.340   9.159  0.3974 -1.1969 -1.4967
33459SOL    HW217988   3.236   5.491   9.153  0.4159 -1.0085  1.7627
33460SOL     OW17989   8.461  13.889   6.846  0.0394  0.3907  0.4290
33460SOL    HW117990   8.432  13.798   6.857 -0.2224  0.3374 -0.6796
33460SOL    HW217991   8.494  13.913   6.933 -2.6359  0.2319  1.5744
33461SOL     OW17992  11.367   7.664   7.167  0.4485 -0.0539  0.1654
33461SOL    HW117993  11.451   7.631   7.136  0.5337  0.3981 -0.0967
33461SOL    HW217994  11.317   7.586   7.190  1.4891 -0.3005  1.7934
33462SOL     OW17995  13.361   8.486   7.402 -0.4211 -0.0841  0.0451
33462SOL    HW117996  13.396   8.486   7.492 -2.5105  1.2755  0.9213
33462SOL    HW217997  13.439   8.493   7.347  0.8015  2.0359  1.8569
33463SOL     OW17998   4.945   6.253   5.924 -0.4764 -0.1451 -0.0795
33463SOL    HW117999   4.899   6.290   5.848 -0.0913  1.7298  0.5347
33463SOL    HW218000   4.879   6.247   5.992 -1.3194 -3.6964 -1.0073
33464SOL     OW18001   6.578  11.355   3.995 -0.0868  0.2820  0.7065
33464SOL    HW118002   6.642  11.340   4.065  0.0079 -0.2508  0.5115
33464SOL    HW218003   6.629  11.394   3.924  0.0424 -0.2061  0.5255
33465SOL     OW18004  10.861   8.876   6.695 -0.2866  0.1346  0.2045
33465SOL    HW118005  10.846   8.941   6.626 -1.6325  0.5156  0.8089
33465SOL    HW218006  10.956   8.878   6.709  0.1796 -0.7101 -2.3084
33466SOL     OW18007  13.978   3.552   2.402  0.4557  0.4173 -0.1063
33466SOL    HW118008  13.954   3.463   2.378 -1.6844  0.8761  0.0848
33466SOL    HW218009  13.974   3.553   2.498  2.3433  0.2726  0.0029
33467SOL     OW18010   2.516   8.023   7.687  0.0740 -0.2717  0.5936
33467SOL    HW118011   2.593   7.992   7.734  1.0591  0.2160 -0.6412
33467SOL    HW218012   2.450   7.956   7.703  1.2821 -1.5881  0.2529
33468SOL     OW18013  13.313  12.492   1.716 -0.0419  0.4945  0.2264
33468SOL    HW118014  13.298  12.414   1.769 -0.8012 -1.0357 -2.0712
33468SOL    HW218015  13.347  12.458   1.633  1.7997  2.8166 -0.0794
33469SOL     OW18016  12.930  11.468  13.761 -0.2662  0.0047  0.0399
33469SOL    HW118017  12.972  11.549  13.733 -0.1493 -0.4608 -1.1882
33469SOL    HW218018  12.844  11.495  13.793 -1.1378  0.4354 -2.4357
33470SOL     OW18019   0.777   8.419  12.616  0.3481  0.1804  0.1193
33470SOL    HW118020   0.772   8.509  12.584  0.8818 -0.0431 -0.6418
33470SOL    HW218021   0.856   8.418  12.670  0.0185  0.3085  0.6054
33471SOL     OW18022  13.510   6.305   0.523  0.3385  0.0230 -0.1382
33471SOL    HW118023  13.516   6.240   0.453  1.0156  0.0737 -0.1323
33471SOL    HW218024  13.424   6.345   0.511 -0.0406 -0.7958 -0.2083
33472SOL     OW18025   0.240   7.729   2.762  0.3071  0.0951  0.0315
33472SOL    HW118026   0.241   7.656   2.823  1.5461  0.2322  0.2012
33472SOL    HW218027   0.147   7.745   2.745 -0.1203  0.3482  2.2404
33473SOL     OW18028   2.512   7.360   8.815  0.1991 -0.5719 -0.6050
33473SOL    HW118029   2.429   7.335   8.856  0.2647  1.6838  1.1068
33473SOL    HW218030   2.488   7.427   8.751  0.6710  0.0207 -0.1711
33474SOL     OW18031   8.786   3.460   0.757 -0.1521  0.1512  0.3461
33474SOL    HW118032   8.749   3.467   0.845 -1.5128 -0.8681 -0.1124
33474SOL    HW218033   8.879   3.476   0.769 -0.3481  0.2423  1.9451
33475SOL     OW18034   5.422   5.538   8.293 -0.1717 -0.3642  0.1577
33475SOL    HW118035   5.353   5.603   8.279  0.0140 -0.1948  0.0284
33475SOL    HW218036   5.476   5.576   8.363 -0.9732 -1.1033  1.2113
33476SOL     OW18037   7.012   2.095   9.111  0.3667  0.3955 -0.0367
33476SOL    HW118038   7.004   2.001   9.094 -0.3050  0.1577  1.3773
33476SOL    HW218039   7.100   2.105   9.148 -0.3579 -0.0902  1.9504
33477SOL     OW18040   4.099   5.329   9.905 -0.3713 -0.2054 -0.1323
33477SOL    HW118041   4.042   5.254   9.921 -0.4647  0.2489  1.8853
33477SOL    HW218042   4.186   5.300   9.933 -0.0079 -0.1668 -1.1557
33478SOL     OW18043   9.923   4.302   7.791 -0.0038  0.1849 -0.2628
33478SOL    HW118044   9.933   4.362   7.716  3.5095  2.6916  1.9128
33478SOL    HW218045   9.986   4.232   7.774  0.1161  0.2582 -0.1289
33479SOL     OW18046  11.511  13.296  11.101 -0.4089  0.5339  0.3617
33479SOL    HW118047  11.477  13.239  11.170  0.0633 -0.8016 -0.4623
33479SOL    HW218048  11.606  13.298  11.117 -0.2221 -0.2558 -0.5535
33480SOL     OW18049  12.888   9.538   0.661  0.1978 -0.2548 -0.8246
33480SOL    HW118050  12.974   9.580   0.665  0.0783  0.0769 -1.6197
33480SOL    HW218051  12.867   9.519   0.752 -0.3938  2.7426 -0.2483
33481SOL     OW18052   7.246   4.601   7.317 -0.8616 -0.4574 -0.2598
33481SOL    HW118053   7.214   4.541   7.249 -1.5828  0.2371 -0.5451
33481SOL    HW218054   7.201   4.683   7.300  1.0477  0.5768 -0.6421
33482SOL     OW18055  10.102   6.096   4.741  0.0806  0.3004 -0.1058
33482SOL    HW118056  10.144   6.125   4.822 -0.8472 -0.0264  0.5056
33482SOL    HW218057  10.116   6.002   4.739  1.7400  0.5321 -1.3057
33483SOL     OW18058   5.022   1.482  11.469 -0.0383  0.6283 -0.1329
33483SOL    HW118059   4.983   1.395  11.478  2.1053 -0.3664  0.1174
33483SOL    HW218060   5.054   1.484  11.379 -1.2770  1.7482 -0.5923
33484SOL     OW18061   6.581   8.905  12.783  0.0898 -0.0455 -0.5707
33484SOL    HW118062   6.541   8.984  12.746  0.1981  0.8008  1.0242
33484SOL    HW218063   6.580   8.842  12.711  0.0796  1.4242 -1.9189
33485SOL     OW18064   7.495   5.033  10.692  0.1862  0.3317 -0.2117
33485SOL    HW118065   7.478   5.123  10.662  0.0013  1.5594  3.1935
33485SOL    HW218066   7.429   5.018  10.759 -0.1341 -2.6528 -1.0814
33486SOL     OW18067   6.972   1.918   6.066 -0.2619 -0.1168  0.1807
33486SOL    HW118068   6.893   1.941   6.017 -0.1289  1.8829  0.8410
33486SOL    HW218069   6.958   1.952   6.154  1.6088  0.9134  0.1361
33487SOL     OW18070   1.227   9.387  10.074  0.0853 -0.3548 -0.6917
33487SOL    HW118071   1.196   9.313  10.126  1.7161 -0.5673  0.0242
33487SOL    HW218072   1.316   9.364  10.048  0.2611  0.9149 -1.3420
33488SOL     OW18073   3.953  12.860   7.952  0.0748 -0.2736 -0.3995
33488SOL    HW118074   3.873  12.826   7.912 -0.7190 -0.8861  1.6105
33488SOL    HW218075   3.942  12.955   7.949 -1.1028 -0.3589  0.5378
33489SOL     OW18076   8.298  13.837  10.295  0.3048  0.8108  0.2874
33489SOL    HW118077   8.255  13.857  10.212 -0.2507  1.6268  0.7569
33489SOL    HW218078   8.314  13.923  10.335  3.4084  0.6655 -0.3519
33490SOL     OW18079   1.394  13.955  11.442 -0.1286  0.6929  0.5175
33490SOL    HW118080   1.374  13.914  11.358 -0.3599 -0.5135  1.1389
33490SOL    HW218081   1.317  13.939  11.496 -1.1053  3.7249  0.2063
33491SOL     OW18082  12.662   9.070  11.241 -0.2731 -0.0301 -0.0945
33491SOL    HW118083  12.715   9.147  11.265  0.6398 -0.3829 -0.8989
33491SOL    HW218084  12.627   9.039  11.324  0.0063  0.7806  0.3451
33492SOL     OW18085   6.880   6.735  11.804  0.4243 -0.2105  0.2180
33492SOL    HW118086   6.810   6.731  11.739 -0.9754  0.3841  1.6150
33492SOL    HW218087   6.898   6.644  11.826  0.1395 -0.3731 -0.2152
33493SOL     OW18088   0.089   9.208  11.320  0.3271 -0.0525  0.5724
33493SOL    HW118089   0.100   9.302  11.337  1.9285  0.2063 -1.5496
33493SOL    HW218090   0.062   9.203  11.228 -2.6901 -1.5889  1.3922
33494SOL     OW18091   9.844   7.986  13.448  0.5470 -0.0985 -0.1721
33494SOL    HW118092   9.875   8.024  13.530  1.1730 -1.7380  0.4026
33494SOL    HW218093   9.923   7.977  13.394  0.0944  1.2695 -1.1238
33495SOL     OW18094  10.458  10.221   1.221 -0.2850 -0.4627  0.2846
33495SOL    HW118095  10.502  10.224   1.305 -0.1113  0.4865  0.1708
33495SOL    HW218096  10.436  10.129   1.208  0.6410 -0.7745  0.8707
33496SOL     OW18097   0.079  13.197   7.122 -0.2691 -0.5856 -0.3086
33496SOL    HW118098   0.017  13.269   7.135 -0.9356 -1.3023  0.6328
33496SOL    HW218099   0.159  13.226   7.166 -0.4632 -0.3262 -0.1244
33497SOL     OW18100  10.901   6.647   4.906 -0.2559 -0.0055  0.0215
33497SOL    HW118101  10.916   6.620   4.816  0.5038  1.4959 -0.3500
33497SOL    HW218102  10.808   6.670   4.909 -0.0239  1.1421 -0.7593
33498SOL     OW18103   0.996   8.263  10.109  0.4516  0.2073  0.1594
33498SOL    HW118104   1.071   8.302  10.154  0.6339 -0.0548  0.0814
33498SOL    HW218105   0.940   8.232  10.180  1.6128 -1.9038  0.2314
33499SOL     OW18106   1.141   2.082   8.342 -0.5367 -0.2112  0.0547
33499SOL    HW118107   1.096   2.158   8.379  0.7505  0.1905  0.8417
33499SOL    HW218108   1.072   2.033   8.297 -1.8478  0.1885  1.5387
33500SOL     OW18109  11.536   0.638  12.294  0.7065 -0.1211  0.0956
33500SOL    HW118110  11.586   0.669  12.369  1.1410  0.4143 -0.4016
33500SOL    HW218111  11.517   0.718  12.244  0.4600 -0.4752 -0.3830
33501SOL     OW18112  13.293   1.637   3.018 -0.0770 -0.0706  0.2303
33501SOL    HW118113  13.362   1.681   2.968  0.6948 -0.7596  0.6475
33501SOL    HW218114  13.288   1.685   3.100  1.0403 -0.9442  0.8471
33502SOL     OW18115   7.910   0.673   3.136  0.3205  0.0844 -0.5855
33502SOL    HW118116   7.831   0.717   3.167  0.9728  0.2928  0.8981
33502SOL    HW218117   7.978   0.699   3.199  1.2662 -1.1631 -1.0394
33503SOL     OW18118   5.436   2.933  10.591 -0.4714  0.0015  0.1624
33503SOL    HW118119   5.400   2.850  10.624  1.2119  0.1156  2.6178
33503SOL    HW218120   5.491   2.908  10.517 -1.5660 -0.7918 -0.4076
33504SOL     OW18121   3.683   0.798  10.004 -0.1474  0.0193 -0.1633
33504SOL    HW118122   3.590   0.796  10.027  0.1426  0.0859  1.0306
33504SOL    HW218123   3.712   0.886  10.027  0.0796  0.2027 -1.1071
33505SOL     OW18124   7.269  11.393  13.439 -0.2628  0.0174 -0.0447
33505SOL    HW118125   7.184  11.415  13.477 -1.2382 -2.4590 -0.6100
33505SOL    HW218126   7.300  11.319  13.492  1.2815  0.5088 -0.2205
33506SOL     OW18127   5.985   7.230   3.839  0.3665 -0.0782  0.0791
33506SOL    HW118128   6.077   7.250   3.857  0.3724  0.2602 -0.3371
33506SOL    HW218129   5.986   7.137   3.814  0.6501  0.0331 -0.3376
33507SOL     OW18130   0.115  11.999   6.718  0.1622 -0.7283 -0.5433
33507SOL    HW118131   0.103  11.911   6.683  0.4290 -0.1808 -2.1198
33507SOL    HW218132   0.029  12.023   6.752  0.2210 -1.7823  0.4090
33508SOL     OW18133  10.034   3.801   6.297  0.0966 -0.6699 -0.5377
33508SOL    HW118134  10.112   3.798   6.352 -0.4998  0.9769  0.4595
33508SOL    HW218135  10.066   3.833   6.213  0.3205  1.5850  0.3339
33509SOL     OW18136   3.079   3.086   7.171  0.2750  0.0818 -0.7691
33509SOL    HW118137   3.011   3.153   7.176 -0.5980 -0.8716  2.1364
33509SOL    HW218138   3.152   3.122   7.223  0.2719 -0.6666 -0.2285
33510SOL     OW18139   6.765   0.454  10.559  0.4936  0.2350  0.1593
33510SOL    HW118140   6.811   0.372  10.578  0.5404  0.2118 -0.0489
33510SOL    HW218141   6.748   0.450  10.465  2.2112  1.3485 -0.2307
33511SOL     OW18142   7.604   2.414   1.423  0.3544 -0.1044 -0.5757
33511SOL    HW118143   7.670   2.413   1.493 -1.3138 -0.4803  1.0651
33511SOL    HW218144   7.644   2.465   1.353  1.3128  2.1521  1.4859
33512SOL     OW18145   9.385   9.648   6.462 -0.5848  0.3612 -0.3269
33512SOL    HW118146   9.368   9.607   6.546 -1.9303  1.5323 -0.0046
33512SOL    HW218147   9.319   9.716   6.453  0.1504  0.9427 -1.8822
33513SOL     OW18148   8.388  13.560  13.830  0.1416 -0.9384  0.1042
33513SOL    HW118149   8.394  13.619  13.905  1.8104 -0.0620 -0.6892
33513SOL    HW218150   8.313  13.593  13.779  1.0128  0.4798 -0.2928
33514SOL     OW18151   0.955   4.696   9.317 -0.1768 -0.2120  0.0088
33514SOL    HW118152   0.971   4.641   9.394  0.6152 -0.0735 -0.0541
33514SOL    HW218153   0.987   4.645   9.243 -0.1252  0.0221 -0.1316
33515SOL     OW18154   7.861   4.377  11.414  0.8452 -0.0634 -0.3760
33515SOL    HW118155   7.874   4.471  11.427  0.0283  0.2777 -1.7870
33515SOL    HW218156   7.947   4.345  11.388  0.7591  0.6540 -1.6616
33516SOL     OW18157   6.408   7.084  12.783 -0.2199 -0.3619  0.1257
33516SOL    HW118158   6.383   7.153  12.845 -2.1548  0.4314 -1.4045
33516SOL    HW218159   6.436   7.131  12.705  1.3548 -1.3375  0.0727
33517SOL     OW18160   7.911   9.025  11.565 -0.1868 -0.6905 -0.0728
33517SOL    HW118161   7.950   9.100  11.520  0.4445  0.3438  2.0788
33517SOL    HW218162   7.979   8.994  11.624 -1.8179 -0.2387  2.1753
33518SOL     OW18163   0.771  11.336  11.400  0.3207 -0.1116 -0.4410
33518SOL    HW118164   0.866  11.346  11.393  0.3635  0.6433  0.7852
33518SOL    HW218165   0.737  11.371  11.318  1.1395 -1.4446 -1.3827
33519SOL     OW18166   2.531   0.412  13.685 -0.3090  0.4558  0.1729
33519SOL    HW118167   2.468   0.468  13.640 -0.6296  1.1103  1.3862
33519SOL    HW218168   2.485   0.382  13.764  0.5260  0.0731  0.5294
33520SOL     OW18169   1.838   3.014  11.565  0.0747 -0.4076  0.2188
33520SOL    HW118170   1.926   3.016  11.604 -0.2257  1.1328  0.8916
33520SOL    HW218171   1.849   3.053  11.479 -0.1436  0.9404  0.7830
33521SOL     OW18172   3.357   6.505  13.615  0.4061  0.2724  0.3499
33521SOL    HW118173   3.287   6.569  13.610 -0.4250 -0.6145  0.3763
33521SOL    HW218174   3.437   6.557  13.624 -0.0352  1.3700 -1.5496
33522SOL     OW18175   0.418  13.091   9.260  0.4251  0.2425 -0.1180
33522SOL    HW118176   0.509  13.096   9.232  0.0025  1.4314 -1.4113
33522SOL    HW218177   0.386  13.009   9.223  0.7275  0.2632 -0.4299
33523SOL     OW18178   8.254   1.055   7.496 -0.2472 -0.0695 -0.2329
33523SOL    HW118179   8.218   1.085   7.579  0.0487 -1.9599  0.6207
33523SOL    HW218180   8.330   1.002   7.520 -1.0554 -1.9573 -1.5770
33524SOL     OW18181   3.184  10.677   4.389 -0.5769  0.2285  0.1527
33524SOL    HW118182   3.264  10.728   4.404 -0.4637 -0.0125  0.3729
33524SOL    HW218183   3.187  10.656   4.296 -1.5781  2.2199 -0.3818
33525SOL     OW18184  12.777   1.732   6.416  0.1738 -0.3880  0.0443
33525SOL    HW118185  12.689   1.769   6.427  0.2268  0.2849 -1.4377
33525SOL    HW218186  12.836   1.805   6.435  0.3167 -0.0691 -1.4987
33526SOL     OW18187   5.979   6.629   2.069 -0.0185 -0.1578  0.1076
33526SOL    HW118188   6.034   6.706   2.054  1.1887 -1.3636 -2.1569
33526SOL    HW218189   5.918   6.627   1.994  0.1427 -1.5044 -0.0239
33527SOL     OW18190  10.985   2.902   6.581  0.8474 -0.0905  0.2320
33527SOL    HW118191  11.048   2.832   6.598 -0.3499 -1.2820 -0.1028
33527SOL    HW218192  10.959   2.934   6.667  1.3532 -0.0930  0.3862
33528SOL     OW18193  10.110  11.689   7.917  0.1681 -0.0151 -0.4654
33528SOL    HW118194  10.121  11.633   7.840 -1.3346  1.7198 -2.0700
33528SOL    HW218195  10.154  11.771   7.894  1.4356 -0.1207  1.3874
33529SOL     OW18196   7.009   0.252   5.765 -0.1441 -0.2912  0.0496
33529SOL    HW118197   7.099   0.265   5.795 -0.1126  0.7015 -0.4222
33529SOL    HW218198   7.019   0.213   5.678 -0.2017 -1.3754  0.5181
33530SOL     OW18199   1.149   3.626   8.100  0.1480  0.4287 -0.2070
33530SOL    HW118200   1.075   3.669   8.057 -0.3022  0.8924  0.9957
33530SOL    HW218201   1.220   3.690   8.093  0.3409  0.1304 -1.0482
33531SOL     OW18202  13.495   3.413  11.258  0.9471 -0.0780  0.0269
33531SOL    HW118203  13.432   3.342  11.258 -1.1853  1.6929 -0.9232
33531SOL    HW218204  13.501   3.440  11.167  2.3990  0.4123  0.2383
33532SOL     OW18205   0.233   5.280  10.531 -0.2384  0.2090 -0.5466
33532SOL    HW118206   0.189   5.347  10.481  1.0353  0.8795 -0.8162
33532SOL    HW218207   0.325   5.308  10.533  0.0859 -0.8443  0.4409
33533SOL     OW18208   7.006   2.423   3.425 -0.5401 -0.1575 -0.4191
33533SOL    HW118209   6.918   2.421   3.385 -1.2376  2.0038  0.8859
33533SOL    HW218210   7.057   2.480   3.367 -0.5873  0.2537 -0.0550
33534SOL     OW18211   6.777   3.948   2.662 -0.1748 -0.5710  0.0877
33534SOL    HW118212   6.825   3.991   2.734 -0.8190  1.1449 -0.4500
33534SOL    HW218213   6.832   3.964   2.585 -0.8804  0.1556 -0.2797
33535SOL     OW18214   9.279   0.432   9.006  0.4704  0.2393 -0.3062
33535SOL    HW118215   9.224   0.383   8.944 -0.8885  0.7796  0.4269
33535SOL    HW218216   9.307   0.510   8.958 -0.4559  0.5855 -0.2984
33536SOL     OW18217   8.939   9.560   0.075 -0.1959  0.2804  0.4185
33536SOL    HW118218   8.900   9.504   0.142 -0.9324  1.1530  0.7391
33536SOL    HW218219   8.981   9.631   0.124 -0.1554  0.5604 -0.0144
33537SOL     OW18220  11.514   9.120   1.997 -0.5329  0.2550 -0.0363
33537SOL    HW118221  11.492   9.032   1.968  0.0516 -0.3973  1.3975
33537SOL    HW218222  11.483   9.124   2.088  1.3402  0.7671  0.6274
33538SOL     OW18223   4.642  11.578   8.413  0.1737 -0.0902 -0.6905
33538SOL    HW118224   4.677  11.631   8.484 -0.8123 -0.4998  0.1170
33538SOL    HW218225   4.581  11.636   8.367 -1.6989 -0.7811  0.8224
33539SOL     OW18226   2.917   7.113  11.733  0.1522  0.3574  0.0432
33539SOL    HW118227   2.914   7.102  11.638 -1.6910  0.8575 -0.0084
33539SOL    HW218228   3.004   7.148  11.751  0.5681  0.1563 -1.4485
33540SOL     OW18229   3.398   0.295   5.917  0.1501  0.7522 -0.3733
33540SOL    HW118230   3.410   0.236   5.992  0.5521  0.1450 -0.8971
33540SOL    HW218231   3.457   0.368   5.934 -0.5140  1.1164  0.3926
33541SOL     OW18232   2.786   5.482  11.330 -0.2476 -0.1167 -0.0575
33541SOL    HW118233   2.847   5.555  11.322 -0.7982  0.3040 -0.4567
33541SOL    HW218234   2.805   5.426  11.255  0.8656 -0.9292  0.7879
33542SOL     OW18235   2.241  12.194   3.651 -0.2288 -0.1659 -0.0920
33542SOL    HW118236   2.170  12.229   3.705  0.4437  1.4995 -0.2543
33542SOL    HW218237   2.277  12.122   3.703 -0.7883  0.2138  0.8553
33543SOL     OW18238   9.453   8.533   1.109 -0.3854  0.1198 -0.2329
33543SOL    HW118239   9.373   8.547   1.059 -0.8943 -0.9851  0.2631
33543SOL    HW218240   9.516   8.500   1.044  0.3439  2.8751 -1.0743
33544SOL     OW18241   2.830   5.817   6.769 -0.6383  0.4305 -0.2852
33544SOL    HW118242   2.859   5.882   6.705  1.1852 -0.6290 -0.5897
33544SOL    HW218243   2.877   5.839   6.850  1.3863 -1.4414 -0.8481
33545SOL     OW18244   3.623   7.725  11.827  0.1543 -0.4377  0.2816
33545SOL    HW118245   3.693   7.789  11.817  0.3749 -0.8232 -0.7843
33545SOL    HW218246   3.543   7.774  11.813  0.1906  0.0006  1.4807
33546SOL     OW18247   9.843   6.070   4.038 -0.3949 -0.2919  0.2117
33546SOL    HW118248   9.764   6.045   4.086 -1.1548 -0.1802 -0.9596
33546SOL    HW218249   9.887   5.987   4.021 -1.2738 -0.5633 -0.8445
33547SOL     OW18250   2.135   2.574   9.417  0.3082  0.8375 -0.5962
33547SOL    HW118251   2.051   2.585   9.374  1.0163 -0.8813 -2.5608
33547SOL    HW218252   2.191   2.642   9.379  0.0224  1.6155  0.3035
33548SOL     OW18253  12.361   2.922   5.233 -0.3412  0.4278  0.3186
33548SOL    HW118254  12.389   2.963   5.152  0.6307  0.9483  0.8930
33548SOL    HW218255  12.429   2.946   5.297 -0.2466 -1.2804  0.9054
33549SOL     OW18256   7.057   0.503  13.715 -0.5491 -0.5057 -0.5429
33549SOL    HW118257   7.060   0.563  13.790 -1.4369 -1.9132  0.6845
33549SOL    HW218258   6.979   0.530  13.666  0.0783  0.4684 -1.0505
33550SOL     OW18259   0.827   7.157   4.637 -0.1405 -0.4223  0.2455
33550SOL    HW118260   0.795   7.068   4.650 -0.8830 -0.2053 -0.0205
33550SOL    HW218261   0.854   7.159   4.545 -0.7433 -0.1983  0.0641
33551SOL     OW18262   9.998   6.809   3.355  0.1014  0.4305 -0.5815
33551SOL    HW118263   9.995   6.738   3.292 -2.6909 -0.3599  0.3140
33551SOL    HW218264   9.955   6.883   3.311  1.9058  1.2604 -1.0608
33552SOL     OW18265  12.580   2.144  11.500  0.2050 -0.2321  0.0992
33552SOL    HW118266  12.492   2.112  11.521 -1.1002  3.3271  0.6449
33552SOL    HW218267  12.630   2.131  11.581 -0.6695  0.3598  0.7472
33553SOL     OW18268   3.788   7.198   1.253 -0.4195 -0.0896 -0.0153
33553SOL    HW118269   3.743   7.185   1.170  0.9878 -0.5346 -0.7507
33553SOL    HW218270   3.718   7.203   1.318 -1.5246 -0.3129 -1.1431
33554SOL     OW18271  13.923   3.304  12.416 -0.2107  0.2275 -0.9465
33554SOL    HW118272  13.828   3.300  12.430 -0.0190 -2.0612  0.0533
33554SOL    HW218273  13.960   3.296  12.503  0.9133 -0.4792 -1.4724
33555SOL     OW18274   7.174  12.163  12.176  0.4136  0.8765  0.0278
33555SOL    HW118275   7.138  12.227  12.237 -1.0560  0.2327 -0.1254
33555SOL    HW218276   7.098  12.132  12.125  1.1872 -0.4585 -0.3747
33556SOL     OW18277  11.214  11.455  14.068  0.0238  0.1377  0.1441
33556SOL    HW118278  11.142  11.417  14.018 -0.3341 -0.0761  0.8112
33556SOL    HW218279  11.248  11.525  14.012 -2.8740  2.5867  1.1529
33557SOL     OW18280   1.578   2.990   8.488 -0.0426 -0.1278 -0.1748
33557SOL    HW118281   1.533   3.017   8.568  0.6580 -1.3732  0.6894
33557SOL    HW218282   1.594   3.072   8.440  1.4964  0.9833  2.0308
33558SOL     OW18283   2.516   1.001  10.107  0.2105  0.3717  0.6212
33558SOL    HW118284   2.526   1.072  10.170 -0.2595  0.5222  0.5319
33558SOL    HW218285   2.518   0.922  10.160  0.2773  0.4763  0.7753
33559SOL     OW18286   1.245   6.309  10.035 -0.0750 -0.3268  0.3815
33559SOL    HW118287   1.149   6.311  10.044 -0.0451 -1.0576  1.0480
33559SOL    HW218288   1.267   6.394   9.998 -1.0738 -0.5597 -0.8329
33560SOL     OW18289   2.863   1.792  10.037 -0.3191  0.1915  0.2066
33560SOL    HW118290   2.827   1.876  10.064  0.9372  1.0287 -0.5880
33560SOL    HW218291   2.877   1.743  10.118 -0.7860  0.8761  0.6965
33561SOL     OW18292   7.790  10.338   5.028 -0.6680  0.0078  0.2339
33561SOL    HW118293   7.842  10.390   5.089 -1.7438 -1.2839  2.3821
33561SOL    HW218294   7.712  10.392   5.011 -0.0109  0.7065 -0.7024
33562SOL     OW18295   5.048   3.341   4.046 -0.1590 -0.5522  0.1602
33562SOL    HW118296   5.075   3.291   3.969  2.4167 -1.0626  1.2714
33562SOL    HW218297   5.130   3.366   4.088 -1.4465  1.2766  1.7815
33563SOL     OW18298  11.367   3.638   8.224 -0.0741  0.2709 -0.1541
33563SOL    HW118299  11.294   3.699   8.236 -1.6744 -1.3957 -0.9846
33563SOL    HW218300  11.351   3.569   8.288 -1.1173 -1.7596 -2.4636
33564SOL     OW18301  11.091   4.333  11.180 -0.6813 -0.0849 -0.5635
33564SOL    HW118302  11.007   4.379  11.183  0.0898  1.2890  1.0746
33564SOL    HW218303  11.093   4.282  11.261 -0.1294 -0.4769 -0.8210
33565SOL     OW18304   5.199  14.008   0.534 -0.4495  0.3697  0.0192
33565SOL    HW118305   5.212  14.077   0.469  0.0680  1.1045  0.8846
33565SOL    HW218306   5.118  14.033   0.580  0.7431  1.4878  1.6193
33566SOL     OW18307  13.905  10.027   7.056  0.0761 -0.1491 -0.1764
33566SOL    HW118308  13.819   9.995   7.030 -0.0508  0.5607 -0.6708
33566SOL    HW218309  13.890  10.119   7.079  0.4267 -0.4236  1.2026
33567SOL     OW18310   4.079   3.649   9.164 -0.3434  0.0547 -0.0978
33567SOL    HW118311   4.175   3.652   9.161 -0.2442 -0.3492  1.5731
33567SOL    HW218312   4.052   3.737   9.139  0.4537  0.1416 -0.7046
33568SOL     OW18313   7.050   5.169   5.099  0.0364 -0.1657  0.3893
33568SOL    HW118314   7.122   5.106   5.095  0.8589  0.3846  3.7027
33568SOL    HW218315   7.002   5.147   5.179 -0.8747  2.1418  0.5747
33569SOL     OW18316  12.921   3.706   1.584 -0.2839  0.6255 -0.1236
33569SOL    HW118317  13.005   3.671   1.616 -0.9458 -0.6068  0.3263
33569SOL    HW218318  12.942   3.795   1.557  1.1109  0.4565  0.2831
33570SOL     OW18319  10.879   0.386   2.396  0.4400  0.0287  0.1661
33570SOL    HW118320  10.829   0.320   2.347  1.9924 -1.6992  0.7740
33570SOL    HW218321  10.970   0.369   2.372  0.8995  1.9480  0.4245
33571SOL     OW18322   8.198   1.801   3.203 -0.1584  0.2377  0.0391
33571SOL    HW118323   8.179   1.894   3.214  1.7385  0.5439  1.0827
33571SOL    HW218324   8.145   1.758   3.269 -2.0908  0.3923 -1.3262
33572SOL     OW18325   1.198  12.853  12.577  0.0921  0.3210  0.3297
33572SOL    HW118326   1.147  12.784  12.534  1.7661 -2.0909  1.9429
33572SOL    HW218327   1.288  12.838  12.546  0.8583  0.2971  2.4511
33573SOL     OW18328  12.796  10.036  13.985  0.2307  0.2683  0.0227
33573SOL    HW118329  12.882  10.022  13.946  0.0537 -0.6582 -0.0644
33573SOL    HW218330  12.798  10.126  14.017  1.6399 -0.0761  1.0127
33574SOL     OW18331   2.578   3.906   4.866 -0.2701  0.4913 -0.0938
33574SOL    HW118332   2.497   3.901   4.917  0.3307  0.4796  0.8831
33574SOL    HW218333   2.566   3.984   4.812 -0.7501  0.7610  0.3823
33575SOL     OW18334  11.143   5.483  10.451 -0.0310  0.4082 -0.0803
33575SOL    HW118335  11.104   5.527  10.376 -0.3031  0.8845  0.3341
33575SOL    HW218336  11.231   5.522  10.458  1.1623 -1.7381 -1.9381
33576SOL     OW18337  10.338   0.707   7.062 -1.0738 -0.2381 -0.4561
33576SOL    HW118338  10.251   0.732   7.093 -1.1293  0.9881 -1.4689
33576SOL    HW218339  10.328   0.703   6.966 -0.6705 -2.8039 -0.4447
33577SOL     OW18340   4.071  11.047  11.774 -0.4341 -1.2930 -0.1302
33577SOL    HW118341   4.124  11.093  11.838 -0.6390 -0.9049 -0.2343
33577SOL    HW218342   4.127  11.038  11.697 -0.8155 -0.0790 -0.5614
33578SOL     OW18343   0.737  12.405   8.319  0.0892  0.7256 -0.1150
33578SOL    HW118344   0.673  12.390   8.388  0.0769 -0.5382 -0.3717
33578SOL    HW218345   0.734  12.499   8.303  0.4913  1.1340  1.9763
33579SOL     OW18346  12.013   2.256   2.706 -1.0511  0.1370  0.3732
33579SOL    HW118347  12.050   2.218   2.627 -1.3182 -0.9333  0.7414
33579SOL    HW218348  12.016   2.351   2.692 -1.1670 -0.0401 -0.9403
33580SOL     OW18349   9.050  11.417   6.973 -0.4595 -0.0434  0.9258
33580SOL    HW118350   8.966  11.452   7.001 -0.6391 -1.2473  1.9781
33580SOL    HW218351   9.083  11.369   7.049  0.8054 -0.2698  0.2701
33581SOL     OW18352   8.296  12.369  12.599 -0.2735  0.1955 -0.4763
33581SOL    HW118353   8.218  12.377  12.655  0.6692  0.6469  0.8222
33581SOL    HW218354   8.315  12.276  12.599  0.1950  0.2718  0.6749
33582SOL     OW18355   0.019  12.620   1.884 -0.6512 -0.4424  0.2711
33582SOL    HW118356  -0.065  12.582   1.912 -1.8516  1.2740 -0.7976
33582SOL    HW218357   0.042  12.682   1.953 -0.3371 -0.8086  0.4948
33583SOL     OW18358   7.838   0.674   5.348  0.6786  0.1487  0.1496
33583SOL    HW118359   7.834   0.594   5.401  0.3519  0.2578  0.2883
33583SOL    HW218360   7.922   0.713   5.371  0.9803 -0.3036 -0.1389
33584SOL     OW18361   2.095   4.691   4.855 -0.0724 -0.3026 -0.6212
33584SOL    HW118362   2.096   4.680   4.760  2.3761 -0.7914 -0.5992
33584SOL    HW218363   2.108   4.786   4.867 -0.1557 -0.2703 -0.7750
33585SOL     OW18364   8.249   1.868   3.524 -0.5793 -0.0458 -0.0786
33585SOL    HW118365   8.256   1.963   3.509 -1.4080  0.2786  1.3965
33585SOL    HW218366   8.331   1.846   3.568 -0.5783  0.0709 -0.0200
33586SOL     OW18367   3.477  12.688   9.634  0.1994 -0.1840 -0.5077
33586SOL    HW118368   3.540  12.665   9.702  0.4758  0.7942 -0.4089
33586SOL    HW218369   3.482  12.617   9.571  0.7583 -0.5525 -0.0608
33587SOL     OW18370   2.164   9.751   6.944 -0.3395  0.1293 -0.1500
33587SOL    HW118371   2.155   9.708   6.859 -0.0309  0.5533 -0.4003
33587SOL    HW218372   2.186   9.841   6.923  0.9070 -0.0308  0.3904
33588SOL     OW18373   7.983   1.825  12.960  0.0417  0.0991 -0.1011
33588SOL    HW118374   7.963   1.765  12.888 -2.6030  0.5915  0.1314
33588SOL    HW218375   7.994   1.910  12.917  0.2701  0.0728 -0.0942
33589SOL     OW18376  13.982   1.505   3.790 -0.3227 -0.1560  0.0114
33589SOL    HW118377  14.039   1.481   3.717  1.0588 -3.0253  1.8422
33589SOL    HW218378  14.040   1.548   3.852 -1.0873  0.6384  0.1876
33590SOL     OW18379   1.146   8.839   2.678 -0.0523 -0.3549  0.1709
33590SOL    HW118380   1.224   8.890   2.657  0.0633 -0.1877  0.9576
33590SOL    HW218381   1.180   8.758   2.718 -0.2694 -0.3871  0.2934
33591SOL     OW18382   2.566   7.306   4.101 -0.5087 -0.0701  0.3707
33591SOL    HW118383   2.548   7.217   4.071  0.4862 -0.4873  0.9610
33591SOL    HW218384   2.589   7.353   4.021 -0.2303 -0.5641  0.1508
33592SOL     OW18385  10.936   3.440   5.731  0.3356  0.3477 -0.2033
33592SOL    HW118386  10.922   3.515   5.672 -0.0646  1.6877  1.5074
33592SOL    HW218387  10.877   3.372   5.698 -0.5303  1.3760 -0.8251
33593SOL     OW18388   2.074   9.178   8.970  0.2503  0.7297  0.0735
33593SOL    HW118389   2.157   9.154   9.010  0.3727  1.8658  0.5022
33593SOL    HW218390   2.008   9.135   9.024  0.5343 -0.1575 -0.2566
33594SOL     OW18391   2.316   8.016  12.903 -0.3007 -0.2326  0.4592
33594SOL    HW118392   2.408   7.994  12.887 -0.5716 -1.0904  0.0256
33594SOL    HW218393   2.286   8.054  12.820 -0.3897 -0.1294  0.5388
33595SOL     OW18394  10.086   5.497   4.834  0.0834  0.0661  0.4830
33595SOL    HW118395  10.130   5.490   4.919  0.8142  0.7880  0.1773
33595SOL    HW218396   9.993   5.488   4.855  0.2884 -0.2636  1.2952
33596SOL     OW18397  11.879  10.486   1.264 -0.1120 -0.4424  0.5403
33596SOL    HW118398  11.889  10.441   1.348  0.2627 -1.3944  0.0061
33596SOL    HW218399  11.788  10.468   1.239 -0.4219  0.3952  1.0445
33597SOL     OW18400   2.091   4.330   1.002 -0.5138  0.1953  0.0506
33597SOL    HW118401   2.114   4.412   0.958 -1.6811 -0.2272 -1.4126
33597SOL    HW218402   2.176   4.288   1.020  0.0533  1.1930 -0.1868
33598SOL     OW18403  13.467   7.058   5.774 -0.0348 -0.1296 -0.4130
33598SOL    HW118404  13.512   7.140   5.753  1.2037 -0.7960 -0.4272
33598SOL    HW218405  13.473   7.006   5.694 -0.5581 -0.3632 -0.3072
33599SOL     OW18406   2.641   5.221   8.971 -0.0598  0.0270 -0.6353
33599SOL    HW118407   2.652   5.208   8.877  1.9290 -0.8378 -0.3245
33599SOL    HW218408   2.632   5.316   8.981 -0.3372  0.1206 -1.6803
33600SOL     OW18409   4.363   1.253  11.970 -0.7942 -0.0539 -0.0618
33600SOL    HW118410   4.339   1.321  12.033  0.1756  0.6927 -0.4813
33600SOL    HW218411   4.450   1.278  11.939 -1.2327 -0.4190 -1.6703
33601SOL     OW18412  11.342   3.682  10.170  0.1498  0.1168 -0.5383
33601SOL    HW118413  11.283   3.635  10.111  1.3223 -1.0002 -0.8730
33601SOL    HW218414  11.314   3.773  10.165 -2.0283 -0.4794 -0.0768
33602SOL     OW18415   5.598   9.851   0.525  0.4519 -0.1127 -0.2911
33602SOL    HW118416   5.593   9.922   0.589 -1.1142  1.0436 -1.6031
33602SOL    HW218417   5.575   9.892   0.441 -0.2340 -2.1093 -1.1481
33603SOL     OW18418   8.621  11.928   9.615 -0.4220  0.4998  0.4301
33603SOL    HW118419   8.574  11.883   9.685  0.4572  0.7826  1.2104
33603SOL    HW218420   8.567  11.913   9.537 -2.3537  1.6361  1.4614
33604SOL     OW18421  13.558   6.449   5.860 -0.0525 -0.0055 -0.6698
33604SOL    HW118422  13.611   6.510   5.808 -0.2271 -1.1201 -2.2418
33604SOL    HW218423  13.499   6.505   5.911  1.4557  1.1902 -0.1780
33605SOL     OW18424  12.187   4.564   9.376 -0.1775 -0.3118  0.1620
33605SOL    HW118425  12.235   4.599   9.452 -0.2836 -0.2479  0.1987
33605SOL    HW218426  12.161   4.476   9.404 -0.5139 -0.1609  0.3277
33606SOL     OW18427   7.837   4.583  12.209 -0.1235  0.0571  0.3855
33606SOL    HW118428   7.867   4.495  12.186  0.5601  0.3467  0.1389
33606SOL    HW218429   7.901   4.613  12.273  0.0848  0.6526 -0.0902
33607SOL     OW18430   4.552   7.121  11.192  0.0866  0.2068 -0.6371
33607SOL    HW118431   4.481   7.130  11.128  0.4219 -1.2154 -1.2484
33607SOL    HW218432   4.509   7.094  11.273 -0.2682  1.3486 -0.4328
33608SOL     OW18433   7.601  10.764  11.567  0.0781 -0.3270  0.3781
33608SOL    HW118434   7.596  10.832  11.634  1.2009  0.2816 -0.1293
33608SOL    HW218435   7.631  10.809  11.488  0.2613 -1.3019 -0.1270
33609SOL     OW18436   1.265  11.357  12.402 -0.8739 -0.7528  0.1794
33609SOL    HW118437   1.291  11.418  12.471  0.7846 -0.8752 -0.2998
33609SOL    HW218438   1.284  11.270  12.438  0.8655 -0.7785 -0.7412
33610SOL     OW18439   4.447   4.234  13.115 -0.1197 -0.2637  0.4962
33610SOL    HW118440   4.432   4.240  13.209  1.5702  2.0625  0.7074
33610SOL    HW218441   4.409   4.314  13.079 -0.1566 -0.8024 -0.7338
33611SOL     OW18442   0.947  13.587   6.356 -0.3588 -0.0974  0.3111
33611SOL    HW118443   1.030  13.633   6.369 -0.1225 -0.6537  0.8233
33611SOL    HW218444   0.973  13.498   6.335 -0.8218 -0.1220 -0.1564
33612SOL     OW18445   9.576  12.848  11.959  0.1681 -0.2157 -0.7762
33612SOL    HW118446   9.518  12.868  11.885  1.2311  1.5935 -1.1688
33612SOL    HW218447   9.521  12.798  12.020 -1.5599  0.7363 -1.4894
33613SOL     OW18448   3.430  12.675  10.923  0.0978  0.2254 -0.3481
33613SOL    HW118449   3.471  12.643  11.003  0.0732  1.8922  0.3648
33613SOL    HW218450   3.499  12.721  10.876 -0.8113  2.9044  0.7809
33614SOL     OW18451   9.464   2.201  13.895 -0.3323 -0.4237 -0.1071
33614SOL    HW118452   9.496   2.288  13.921  1.2898 -1.4201  1.5380
33614SOL    HW218453   9.445   2.157  13.978 -0.9428 -1.7176 -0.8981
33615SOL     OW18454   2.806   1.094   5.626  0.0999 -0.1622  0.0133
33615SOL    HW118455   2.893   1.065   5.599  0.4335 -0.8002  1.6543
33615SOL    HW218456   2.801   1.185   5.597  1.4838  0.0071  0.2417
33616SOL     OW18457  12.574  11.400   5.423 -0.1511 -0.2386  0.4121
33616SOL    HW118458  12.604  11.437   5.506  0.2786 -0.4423  0.3473
33616SOL    HW218459  12.517  11.468   5.387 -0.1797 -0.0654  0.7787
33617SOL     OW18460   4.724  13.016   2.940  0.7699  0.4994  0.1244
33617SOL    HW118461   4.745  13.029   2.848 -0.8969  0.8094 -0.2557
33617SOL    HW218462   4.636  13.054   2.950  1.0602  0.7940  1.9217
33618SOL     OW18463   0.305  12.943  12.854  0.1941 -0.0616  0.1897
33618SOL    HW118464   0.284  12.964  12.764 -1.5557  1.7729  0.9554
33618SOL    HW218465   0.287  12.849  12.862 -2.1313  0.2413 -0.7529
33619SOL     OW18466   4.640   9.478   2.138  0.9324 -0.7453  0.3056
33619SOL    HW118467   4.653   9.436   2.052 -1.0876 -1.0838  0.1261
33619SOL    HW218468   4.673   9.567   2.126  1.2347 -0.9637 -0.6297
33620SOL     OW18469   2.661   5.743  11.994  0.6405 -0.1469 -0.8103
33620SOL    HW118470   2.709   5.803  11.937 -0.7806  0.3450 -1.5462
33620SOL    HW218471   2.685   5.768  12.083  0.5714  1.0830 -1.1264
33621SOL     OW18472  10.389  13.548  13.522 -0.4396  0.3822  0.1624
33621SOL    HW118473  10.447  13.533  13.448  0.6982 -0.2455  1.1559
33621SOL    HW218474  10.363  13.460  13.551  0.8039  0.5072  1.7786
33622SOL     OW18475   0.558   5.899   4.198  0.1608  0.7137  0.4311
33622SOL    HW118476   0.521   5.986   4.214  2.2678  1.3487  2.3255
33622SOL    HW218477   0.529   5.847   4.273 -1.6637 -0.5246 -1.0264
33623SOL     OW18478  11.290   9.572  12.480 -1.2455  0.2509  0.0610
33623SOL    HW118479  11.207   9.608  12.512  0.1540  1.1830  3.0137
33623SOL    HW218480  11.353   9.645  12.489  0.3222 -1.0403 -0.0117
33624SOL     OW18481  13.771   1.936  13.583 -0.1726 -0.3637 -0.6790
33624SOL    HW118482  13.859   1.935  13.544 -0.7413  0.6623 -2.1061
33624SOL    HW218483  13.779   1.997  13.657  0.1256  0.4382 -1.3500
33625SOL     OW18484   8.545   5.412   7.259 -0.0148  0.1261  0.1194
33625SOL    HW118485   8.564   5.322   7.287 -0.3016 -0.2326 -0.7679
33625SOL    HW218486   8.601   5.467   7.312  2.2207 -0.7691 -1.1887
33626SOL     OW18487   8.331  10.081  10.175 -0.1355 -0.3908 -0.2775
33626SOL    HW118488   8.309  10.173  10.160  0.7485  0.1440  1.5212
33626SOL    HW218489   8.408  10.066  10.119 -0.7515 -0.3000 -1.1845
33627SOL     OW18490   0.931   5.991   7.665  0.3241 -0.6253 -0.6495
33627SOL    HW118491   0.979   6.073   7.679  0.4934 -0.8100 -0.1332
33627SOL    HW218492   0.892   6.001   7.578  1.4143 -0.5347 -1.1330
33628SOL     OW18493   7.738  12.860   6.491 -0.3910  0.7499  0.0237
33628SOL    HW118494   7.735  12.955   6.503  0.9793  0.9149 -0.6713
33628SOL    HW218495   7.830  12.841   6.474 -0.7701 -0.6016 -0.6933
33629SOL     OW18496   7.748  10.970   4.645  0.4097  0.3188  0.2808
33629SOL    HW118497   7.727  10.942   4.556  1.4044 -1.6045  0.5948
33629SOL    HW218498   7.837  10.937   4.660 -0.1304 -0.3375  2.3495
33630SOL     OW18499   4.174  10.265  10.070 -0.2586  0.0525  0.1557
33630SOL    HW118500   4.243  10.331  10.062  0.5458 -0.7787  0.0026
33630SOL    HW218501   4.129  10.268   9.985 -0.7737  0.9689  0.4474
33631SOL     OW18502   6.390   7.785   6.405  0.3345  0.3195 -0.4529
33631SOL    HW118503   6.373   7.737   6.324 -0.2028  2.2614 -1.5597
33631SOL    HW218504   6.398   7.877   6.377  2.5295  0.7615  1.3997
33632SOL     OW18505   0.907   0.891  13.676 -0.1749 -0.3143  0.0966
33632SOL    HW118506   0.894   0.935  13.592 -0.8197  0.4575  0.5896
33632SOL    HW218507   0.830   0.835  13.687  0.0035 -0.5679  0.0939
33633SOL     OW18508  13.438   1.666   7.394  0.2625 -0.3517 -0.4170
33633SOL    HW118509  13.365   1.609   7.420  0.3767 -2.5674 -4.2366
33633SOL    HW218510  13.396   1.742   7.355  0.1177  0.4982  1.2827
33634SOL     OW18511   5.947  11.722   2.088  0.0120  0.1425  0.2904
33634SOL    HW118512   5.958  11.712   2.182 -2.2353 -0.2491  0.5748
33634SOL    HW218513   5.906  11.808   2.077 -0.8118 -0.2894 -0.1860
33635SOL     OW18514   2.405   4.351   2.174  0.1412  0.4900 -0.5557
33635SOL    HW118515   2.408   4.413   2.102  1.2732  0.2443 -0.7277
33635SOL    HW218516   2.479   4.293   2.160 -2.0350 -2.3042 -1.6168
33636SOL     OW18517   5.645  12.104   9.441  0.1074 -0.5253  0.8263
33636SOL    HW118518   5.634  12.086   9.535  1.6065  0.3338  1.1970
33636SOL    HW218519   5.731  12.145   9.434 -0.0632 -0.3867 -0.9144
33637SOL     OW18520   1.764   9.293   9.576 -0.1526  0.2883 -0.2950
33637SOL    HW118521   1.834   9.253   9.627 -1.4244 -0.3636  0.9961
33637SOL    HW218522   1.750   9.233   9.503  1.4706  1.0754 -1.3251
33638SOL     OW18523  11.171  14.052   4.608  0.2857  0.5179  0.1273
33638SOL    HW118524  11.103  14.024   4.548  0.3067  0.4890  0.1161
33638SOL    HW218525  11.253  14.036   4.561  0.3172  0.2154  0.2764
33639SOL     OW18526   0.243   1.381   3.298  0.1377 -0.1118 -0.0122
33639SOL    HW118527   0.202   1.372   3.212  1.2611 -2.6576 -0.3764
33639SOL    HW218528   0.335   1.401   3.278  0.4003 -0.7090  0.5893
33640SOL     OW18529   3.215   1.826  10.876 -0.6667  0.3655  0.2368
33640SOL    HW118530   3.161   1.766  10.825 -0.2344  0.0971  0.0836
33640SOL    HW218531   3.302   1.819  10.836  0.6608 -2.5677  3.0968
33641SOL     OW18532  11.505   1.586   4.090 -0.0400 -0.0231 -0.4391
33641SOL    HW118533  11.475   1.668   4.049  0.3888 -0.6161 -1.9963
33641SOL    HW218534  11.430   1.558   4.143 -0.8521  0.4551 -1.3010
33642SOL     OW18535   2.802   9.933   8.657  0.4080 -0.2402 -0.2999
33642SOL    HW118536   2.849   9.967   8.733  1.7494 -0.0727 -1.1666
33642SOL    HW218537   2.859   9.864   8.623 -0.1560 -0.2878 -1.1650
33643SOL     OW18538   8.686  13.257   5.089  0.2365 -0.0622  0.6554
33643SOL    HW118539   8.680  13.180   5.031  2.7179  1.5703 -2.0412
33643SOL    HW218540   8.619  13.316   5.056  1.6156  0.8471 -0.6587
33644SOL     OW18541   3.272   1.435   4.830  0.2278  0.0457 -0.2691
33644SOL    HW118542   3.328   1.395   4.896 -1.0724 -0.7939  0.3721
33644SOL    HW218543   3.248   1.520   4.867 -0.9917 -0.6742  0.6526
33645SOL     OW18544   8.119  13.466  10.062  0.0829  0.1275  0.4963
33645SOL    HW118545   8.191  13.465  10.125 -1.5730  2.4197  2.6190
33645SOL    HW218546   8.147  13.528   9.995  0.0418  1.2737  1.4928
33646SOL     OW18547   6.426   1.157   8.643  0.3514  0.1848  0.1284
33646SOL    HW118548   6.478   1.234   8.618  1.4647 -0.7293 -0.5017
33646SOL    HW218549   6.336   1.181   8.623  0.6820  1.3356 -0.0350
33647SOL     OW18550   0.809  12.171  10.781  0.1717 -0.2732 -0.2987
33647SOL    HW118551   0.858  12.093  10.806  0.2241  0.1457  0.9585
33647SOL    HW218552   0.810  12.170  10.685  2.8413 -0.1569 -0.3395
33648SOL     OW18553  13.716  12.696   7.934 -0.4520 -0.0457  0.1810
33648SOL    HW118554  13.804  12.710   7.970 -1.3505  1.6555  1.9054
33648SOL    HW218555  13.674  12.636   7.996 -0.8445 -0.0028 -0.0418
33649SOL     OW18556   4.817  10.729   2.152 -0.3354  0.1025  0.2363
33649SOL    HW118557   4.790  10.690   2.069  0.2138 -0.0172  0.1108
33649SOL    HW218558   4.786  10.820   2.146 -1.8693 -0.3670  0.6526
33650SOL     OW18559   2.606   0.814   7.535 -0.2324 -0.5187 -0.3719
33650SOL    HW118560   2.639   0.833   7.623  1.2150  0.2242 -1.0566
33650SOL    HW218561   2.596   0.718   7.534 -0.6913 -0.5009  0.7289
33651SOL     OW18562   3.703  13.156   6.726 -0.2952  0.1569 -0.5562
33651SOL    HW118563   3.756  13.102   6.668 -0.6914  0.3669 -1.1260
33651SOL    HW218564   3.613  13.123   6.714 -0.6614  1.3997 -1.4867
33652SOL     OW18565  11.850   7.941   6.542  0.4695 -0.3799 -0.4183
33652SOL    HW118566  11.801   7.889   6.606  1.1882 -0.2875  0.2237
33652SOL    HW218567  11.786   8.002   6.505  0.0502 -0.4202  0.2388
33653SOL     OW18568   1.680   2.823  13.542 -0.6159 -0.0665 -0.0581
33653SOL    HW118569   1.650   2.734  13.521 -1.0025 -0.2593  1.2309
33653SOL    HW218570   1.771   2.824  13.512 -0.2797 -1.2551  0.8257
33654SOL     OW18571  10.956   0.649   0.779 -0.0619 -0.1729  0.4535
33654SOL    HW118572  10.942   0.559   0.749 -1.3157  0.3086 -0.4851
33654SOL    HW218573  10.868   0.684   0.793  0.4236  0.4673  2.2683
33655SOL     OW18574   0.155   9.991   3.362 -0.6455 -0.3916 -0.1298
33655SOL    HW118575   0.135  10.014   3.271  2.7044  1.5764 -0.5368
33655SOL    HW218576   0.226   9.927   3.355 -1.2809 -1.2530  1.1129
33656SOL     OW18577   8.399   3.663   9.068 -0.1563  0.5967 -0.5775
33656SOL    HW118578   8.410   3.651   8.974 -0.0372 -0.9151 -0.3913
33656SOL    HW218579   8.305   3.679   9.079 -0.3159 -0.0989 -0.8799
33657SOL     OW18580   6.164   4.589   4.111  0.5070 -0.1840  0.0587
33657SOL    HW118581   6.234   4.604   4.048  0.3824 -2.2710 -0.6429
33657SOL    HW218582   6.196   4.517   4.166 -0.1810  0.3257  1.1585
33658SOL     OW18583  14.080   7.399   5.950 -0.3871  0.1221 -0.1830
33658SOL    HW118584  13.987   7.383   5.933 -0.2612 -1.2752  0.2947
33658SOL    HW218585  14.098   7.351   6.031  0.6642  0.7345 -0.0290
33659SOL     OW18586   8.777   0.455  11.668  0.7557  0.5966  0.1281
33659SOL    HW118587   8.695   0.453  11.719  1.2171 -0.3018  0.8804
33659SOL    HW218588   8.785   0.366  11.633  0.1214  1.3574 -2.1221
33660SOL     OW18589   4.901   6.734   1.265 -0.3152 -0.0605  0.1212
33660SOL    HW118590   4.844   6.673   1.312  0.3005 -0.9656 -0.3034
33660SOL    HW218591   4.988   6.696   1.271 -0.0074  0.5045 -0.5948
33661SOL     OW18592   2.862   3.215   5.944 -0.3127  0.3817  0.1041
33661SOL    HW118593   2.823   3.229   6.030  0.7921 -1.3027  0.9294
33661SOL    HW218594   2.792   3.174   5.893 -0.6379  0.3468  0.5665
33662SOL     OW18595   2.573   4.807   3.927 -0.3413  0.1059  0.1124
33662SOL    HW118596   2.493   4.805   3.875 -1.2418  1.4671  1.3576
33662SOL    HW218597   2.581   4.899   3.955  1.3238 -0.1341  0.5059
33663SOL     OW18598   1.247   4.929  11.340  0.5702  0.4569  0.1544
33663SOL    HW118599   1.178   4.899  11.281  0.0344 -1.4409  1.6699
33663SOL    HW218600   1.294   4.995  11.289 -1.1217  0.3770 -1.6347
33664SOL     OW18601   1.646  11.146  10.074  0.4159 -0.0165  0.4883
33664SOL    HW118602   1.595  11.182  10.147  1.9690  1.8049  0.7663
33664SOL    HW218603   1.650  11.217  10.010  0.3279 -1.0823 -0.7394
33665SOL     OW18604   5.782   3.049  14.085 -0.1060  0.3982 -0.0568
33665SOL    HW118605   5.745   3.124  14.038 -1.0990  0.0324  0.1141
33665SOL    HW218606   5.874   3.048  14.060 -0.1454  1.5004 -0.2926
33666SOL     OW18607  12.363   5.482   8.017  0.1587 -0.3282  0.3561
33666SOL    HW118608  12.293   5.513   7.960  0.4951 -0.4050 -0.1070
33666SOL    HW218609  12.326   5.486   8.105 -0.5617 -0.7371  0.0826
33667SOL     OW18610   4.464  10.531  12.309  0.3510 -0.8649  0.9190
33667SOL    HW118611   4.421  10.522  12.224 -0.7747  0.2187  1.3362
33667SOL    HW218612   4.536  10.592  12.293 -1.3225  1.3053  1.1662
33668SOL     OW18613   9.803  13.515   9.772  0.0288 -0.5600  0.4225
33668SOL    HW118614   9.868  13.446   9.757  1.0802 -0.1990  2.8239
33668SOL    HW218615   9.748  13.481   9.843 -1.0875  0.0184 -0.1470
33669SOL     OW18616   6.680   9.077   8.327 -0.5701 -0.0908 -0.3404
33669SOL    HW118617   6.612   9.086   8.394 -0.1834 -1.0103  0.1908
33669SOL    HW218618   6.631   9.065   8.245 -1.1150 -2.3209  0.2361
33670SOL     OW18619   3.832  11.725   4.332 -0.1033 -0.9329  0.1910
33670SOL    HW118620   3.901  11.676   4.287 -0.4267  0.5375 -2.0800
33670SOL    HW218621   3.878  11.798   4.374 -0.0801 -0.8968  0.1037
33671SOL     OW18622   5.731   7.497   2.923  0.3106  0.5288  0.2986
33671SOL    HW118623   5.653   7.477   2.974 -0.3204 -1.0795 -1.1894
33671SOL    HW218624   5.710   7.468   2.834  2.6063  0.0057 -0.1398
33672SOL     OW18625   9.838  11.584  10.978  0.0334 -0.3760 -0.2779
33672SOL    HW118626   9.899  11.631  11.035  0.2945 -0.7042 -0.2829
33672SOL    HW218627   9.875  11.495  10.972 -1.2737 -1.0455  0.9899
33673SOL     OW18628   3.552  13.039  13.429  0.0759  0.1555  0.2501
33673SOL    HW118629   3.580  12.982  13.501 -0.1982  1.4353  1.4078
33673SOL    HW218630   3.609  13.016  13.357  0.5171 -1.0075  0.9472
33674SOL     OW18631   3.123  11.340   0.390 -0.0417  0.3005  0.1877
33674SOL    HW118632   3.092  11.260   0.430  0.5593  0.3784  0.8264
33674SOL    HW218633   3.145  11.397   0.463  0.0429  0.8522 -0.2549
33675SOL     OW18634   2.995   7.339   0.096 -0.4116  0.3048 -0.0495
33675SOL    HW118635   3.022   7.307   0.011  0.3519 -2.7251  1.2047
33675SOL    HW218636   3.052   7.414   0.114 -3.9436  4.6614 -4.1985
33676SOL     OW18637   2.972   2.415   8.573  0.1978  0.3858 -0.0286
33676SOL    HW118638   2.923   2.494   8.550  0.8870  1.1077  0.9219
33676SOL    HW218639   3.059   2.446   8.598  1.4235 -0.9212 -2.3272
33677SOL     OW18640   0.227   2.749   7.623  0.6783  0.3733  0.5901
33677SOL    HW118641   0.274   2.815   7.573  0.3875  2.3826  2.7672
33677SOL    HW218642   0.135   2.760   7.597  0.8561 -0.5567 -0.4777
33678SOL     OW18643   1.492   7.060  13.196 -0.3278 -0.3518 -0.8144
33678SOL    HW118644   1.421   7.062  13.131 -0.2218  0.6148 -0.9089
33678SOL    HW218645   1.572   7.058  13.145 -0.2649 -2.1091 -0.7143
33679SOL     OW18646  11.574   9.895  10.414  0.4768 -0.2862  1.1079
33679SOL    HW118647  11.657   9.885  10.367 -0.0774 -1.2463  0.3200
33679SOL    HW218648  11.548   9.986  10.396 -0.4888 -1.0233 -1.7969
33680SOL     OW18649   8.756  13.403   9.503 -0.3528  0.0240  0.1426
33680SOL    HW118650   8.718  13.469   9.561 -1.2604 -0.7076  0.4025
33680SOL    HW218651   8.792  13.337   9.561 -1.5419 -0.8709 -0.0988
33681SOL     OW18652  11.425   7.111  12.490  0.4192 -0.0685  0.3635
33681SOL    HW118653  11.430   7.207  12.494  1.8133 -0.0898 -0.3627
33681SOL    HW218654  11.357   7.089  12.554  0.7074  1.3512  1.2244
33682SOL     OW18655  10.490   8.608   6.818 -0.0623  0.1709  0.2863
33682SOL    HW118656  10.543   8.688   6.820 -1.2457  0.9753  1.4988
33682SOL    HW218657  10.431   8.621   6.743  0.9212 -0.3904 -0.6063
33683SOL     OW18658   9.315   9.784   1.293  0.2804  0.1703 -0.2974
33683SOL    HW118659   9.348   9.711   1.345  0.6746  0.5866  0.0524
33683SOL    HW218660   9.312   9.752   1.203 -0.7422 -0.6802  0.0161
33684SOL     OW18661  12.365  11.070  10.155 -0.8294  0.1249 -0.5185
33684SOL    HW118662  12.355  11.002  10.088 -0.5826 -1.0334  0.5713
33684SOL    HW218663  12.281  11.071  10.202 -1.5374  1.9611 -1.7269
33685SOL     OW18664   3.124  10.052   5.568  0.2414 -0.3356 -0.5166
33685SOL    HW118665   3.092  10.115   5.504  1.0465  0.1349 -0.4584
33685SOL    HW218666   3.199  10.094   5.610 -0.3805 -0.5479  0.8811
33686SOL     OW18667   0.467   8.341   1.214 -0.0503  0.2768  0.1359
33686SOL    HW118668   0.449   8.435   1.213  0.0140  0.2879 -0.0643
33686SOL    HW218669   0.462   8.316   1.306  1.6476  0.8070  0.4100
33687SOL     OW18670  10.938  13.264  10.998 -0.0178 -0.1118  0.4625
33687SOL    HW118671  10.981  13.238  11.080  2.7933  0.9435 -0.5649
33687SOL    HW218672  10.983  13.213  10.931 -0.6469  0.7648 -0.6520
33688SOL     OW18673  12.578   9.994   0.009  0.5276 -0.4474 -0.4489
33688SOL    HW118674  12.568  10.056   0.082 -2.0937  0.5109 -1.5307
33688SOL    HW218675  12.642  10.036  -0.049  1.3698 -0.4347  0.4535
33689SOL     OW18676   7.774  14.051   6.860  0.0393 -0.1052 -0.1730
33689SOL    HW118677   7.783  14.104   6.939 -2.3680  0.1095  0.0361
33689SOL    HW218678   7.688  14.075   6.825  0.2825 -1.5223 -1.8562
33690SOL     OW18679   7.806  13.820   2.057  0.2852 -0.9892 -0.5098
33690SOL    HW118680   7.785  13.727   2.049 -0.0055 -1.2411  2.3196
33690SOL    HW218681   7.895  13.822   2.090  0.5289 -0.2193 -1.1909
33691SOL     OW18682   1.732   6.665   6.809 -1.0180  0.8179 -0.5797
33691SOL    HW118683   1.686   6.583   6.827 -1.3802  0.8389 -1.3520
33691SOL    HW218684   1.812   6.659   6.860 -1.3934  0.3151 -0.0368
33692SOL     OW18685   5.392   1.728  13.658 -0.2233  0.0634  0.6639
33692SOL    HW118686   5.426   1.658  13.714  1.6851  0.6024  0.2354
33692SOL    HW218687   5.430   1.712  13.572 -0.3081  1.2175  0.3867
33693SOL     OW18688   1.915   3.064   2.808 -0.3050  0.0727  0.1653
33693SOL    HW118689   1.865   3.141   2.779  1.9368  1.4438 -0.2901
33693SOL    HW218690   2.001   3.075   2.768  1.0359 -1.1207  2.5213
33694SOL     OW18691   7.525  11.341  12.792 -0.1256  0.1063  0.4162
33694SOL    HW118692   7.620  11.336  12.789  0.1341  3.2441 -0.2405
33694SOL    HW218693   7.498  11.336  12.700 -0.3281  1.7103  0.3586
33695SOL     OW18694   2.158   5.541   4.109 -0.1158 -0.3676 -0.1853
33695SOL    HW118695   2.233   5.485   4.128  0.3359  0.1923 -0.2966
33695SOL    HW218696   2.144   5.532   4.014  0.5812  0.4611 -0.3792
33696SOL     OW18697  13.819   1.676   7.652 -0.0182  0.8650 -0.0049
33696SOL    HW118698  13.768   1.637   7.581  0.5876 -0.5583  0.3083
33696SOL    HW218699  13.880   1.607   7.678 -0.7152  1.0744  2.3805
33697SOL     OW18700  13.779   5.699  12.172 -0.5568  0.8846  0.6163
33697SOL    HW118701  13.736   5.614  12.189  1.8019 -0.2102  1.5973
33697SOL    HW218702  13.717   5.746  12.116 -0.9849 -2.4074 -2.0030
33698SOL     OW18703   9.417   9.970   2.081  0.1052 -0.4690  0.5107
33698SOL    HW118704   9.457   9.912   2.145 -0.2027  1.2609  2.3626
33698SOL    HW218705   9.335   9.998   2.121 -0.3323  0.3054 -0.8415
33699SOL     OW18706   6.991  11.347  13.478 -0.6450  0.1684 -0.1373
33699SOL    HW118707   6.990  11.350  13.382  1.1321 -0.7206 -0.2229
33699SOL    HW218708   6.923  11.409  13.505  1.1182  3.0823 -1.9220
33700SOL     OW18709  10.175  12.441   5.772  0.1313 -0.0176 -0.0679
33700SOL    HW118710  10.218  12.527   5.779  1.6742 -0.8462  1.1401
33700SOL    HW218711  10.084  12.458   5.797  0.9375  0.8964  2.6281
33701SOL     OW18712   0.207   7.919   4.077 -0.0902 -0.0784 -0.2896
33701SOL    HW118713   0.135   7.869   4.116  0.2082 -0.7233 -0.5423
33701SOL    HW218714   0.189   7.918   3.983 -0.6282  1.1871 -0.2202
33702SOL     OW18715   8.475   8.589  12.434  0.4640  0.2672  0.6970
33702SOL    HW118716   8.502   8.646  12.363 -1.6808  1.6587  0.8826
33702SOL    HW218717   8.434   8.514  12.391 -1.2606  1.3283  0.3685
33703SOL     OW18718   9.884   9.171  12.341 -0.1750  0.0506  0.2118
33703SOL    HW118719   9.940   9.119  12.283 -2.4280 -2.4359  0.0609
33703SOL    HW218720   9.883   9.121  12.423 -2.1390 -0.0264  0.1841
33704SOL     OW18721   9.114  12.279   6.766 -0.0910 -0.3195 -0.0410
33704SOL    HW118722   9.077  12.272   6.854  0.3944 -0.4799  0.1503
33704SOL    HW218723   9.199  12.236   6.772 -0.5048 -1.2968 -0.8582
33705SOL     OW18724   9.129   1.868   7.292 -0.0933  0.6642  0.0899
33705SOL    HW118725   9.119   1.942   7.231  1.0681  1.7209  1.1234
33705SOL    HW218726   9.218   1.877   7.326 -0.0684 -1.0011  0.5493
33706SOL     OW18727  10.414  13.947   5.803 -0.8268  0.4026  0.1127
33706SOL    HW118728  10.351  13.920   5.736 -0.4665 -0.5236  0.1240
33706SOL    HW218729  10.361  13.988   5.871 -1.1735  1.5352 -0.8151
33707SOL     OW18730  11.046   0.485   2.981 -0.3464  0.1949  0.4212
33707SOL    HW118731  10.967   0.534   3.004 -1.0648 -1.2184  1.1029
33707SOL    HW218732  11.044   0.480   2.885  1.6811  4.5248 -0.0650
33708SOL     OW18733   3.197   7.385   1.764  0.5350 -0.6662 -0.1866
33708SOL    HW118734   3.187   7.374   1.670 -0.3600  0.8233 -0.2894
33708SOL    HW218735   3.209   7.479   1.777 -1.2320 -0.5801  1.3189
33709SOL     OW18736  13.303   4.443   0.859 -0.4886  0.2765 -0.2472
33709SOL    HW118737  13.326   4.448   0.766  0.8536 -0.4567  0.0201
33709SOL    HW218738  13.365   4.501   0.902  0.2066 -0.8764  0.3747
33710SOL     OW18739  12.877   9.528   2.989  0.1689 -0.2951 -0.5846
33710SOL    HW118740  12.794   9.488   2.962  0.0726 -1.1643  0.9313
33710SOL    HW218741  12.873   9.616   2.951 -1.6695 -0.1430 -0.1718
33711SOL     OW18742   7.506   5.784   8.687  0.5683 -0.2381  0.4937
33711SOL    HW118743   7.541   5.696   8.695  1.2603 -0.1427 -1.1994
33711SOL    HW218744   7.423   5.774   8.641  1.4419  0.1013 -1.2460
33712SOL     OW18745   3.725   8.360   3.604  0.1698  0.0072 -0.2765
33712SOL    HW118746   3.735   8.413   3.684 -1.1797 -0.8606  0.5046
33712SOL    HW218747   3.788   8.398   3.543  1.0175  0.9076  1.0847
33713SOL     OW18748   0.840   9.656   2.578  0.4410 -0.0955  0.1602
33713SOL    HW118749   0.871   9.566   2.582  1.1788 -0.0726 -2.8950
33713SOL    HW218750   0.744   9.648   2.574  0.5631 -0.9698 -2.5978
33714SOL     OW18751   2.779   2.947   2.493 -0.2958  0.0048 -0.6420
33714SOL    HW118752   2.748   2.985   2.410  0.6935 -1.3276 -1.6766
33714SOL    HW218753   2.716   2.877   2.512 -1.4052  1.2969  0.5919
33715SOL     OW18754   2.641   4.621  10.393 -0.3511 -0.0956 -0.2455
33715SOL    HW118755   2.625   4.712  10.370 -1.5404 -0.1042  0.4860
33715SOL    HW218756   2.639   4.620  10.489 -0.9676 -0.9845 -0.2558
33716SOL     OW18757   8.229   2.584   5.797  0.6494  0.2643 -0.1167
33716SOL    HW118758   8.157   2.648   5.791  0.2171 -0.2002  0.0785
33716SOL    HW218759   8.201   2.522   5.864  0.9709 -0.2563 -0.4573
33717SOL     OW18760   8.620   9.129  12.670 -0.7434  0.2022  0.5333
33717SOL    HW118761   8.680   9.178  12.613 -0.6591  1.0040  1.2799
33717SOL    HW218762   8.666   9.048  12.689 -0.6116  0.0915 -0.2332
33718SOL     OW18763   3.326   0.550  13.072  0.2053  0.4339  0.3514
33718SOL    HW118764   3.396   0.499  13.030  0.2627  0.3563  0.5418
33718SOL    HW218765   3.369   0.596  13.144  0.1187  0.6185  0.2868
33719SOL     OW18766   6.348   8.210   3.927 -0.1196  0.3786 -0.0100
33719SOL    HW118767   6.311   8.282   3.977  0.2335  0.5315  0.0304
33719SOL    HW218768   6.273   8.154   3.908 -0.3700  0.6783  0.0849
33720SOL     OW18769   2.929   8.261  10.830  0.1676  0.0429 -0.2001
33720SOL    HW118770   2.881   8.225  10.755 -1.2394 -0.4585  0.8992
33720SOL    HW218771   2.983   8.188  10.862  0.4607  0.1395 -0.4683
33721SOL     OW18772   1.960   1.993   9.476  0.2869 -0.0625  0.8910
33721SOL    HW118773   1.936   1.948   9.557  1.4257 -0.4814  1.0057
33721SOL    HW218774   1.990   2.079   9.504  0.2560 -0.0471  0.8764
33722SOL     OW18775  11.244   5.474   1.208 -0.2152  0.2046  0.0493
33722SOL    HW118776  11.186   5.408   1.245  0.5657 -0.8127 -0.4846
33722SOL    HW218777  11.273   5.525   1.283  0.5089 -1.1452  0.7321
33723SOL     OW18778  13.526   9.576  11.951  0.2508  0.5857  0.4833
33723SOL    HW118779  13.484   9.590  11.866  2.3022  0.4144 -0.6250
33723SOL    HW218780  13.454   9.554  12.010 -1.0023 -1.7868 -1.7533
33724SOL     OW18781   4.742   2.200   7.705 -0.2588  0.0497 -0.7258
33724SOL    HW118782   4.756   2.133   7.637 -0.2020 -0.2208 -0.4507
33724SOL    HW218783   4.789   2.277   7.673 -0.1753 -0.0987 -0.9625
33725SOL     OW18784   9.172   1.908   8.329 -0.5244 -0.0464 -0.3471
33725SOL    HW118785   9.131   1.910   8.415 -0.5286 -0.6929 -0.3263
33725SOL    HW218786   9.266   1.921   8.347 -0.1639 -2.6046  0.0355
33726SOL     OW18787   9.062  11.202   2.564  0.3830 -0.7280 -0.0777
33726SOL    HW118788   9.014  11.129   2.603 -0.2666 -0.2610  0.0198
33726SOL    HW218789   9.080  11.261   2.638  1.7144 -1.2152  0.0065
33727SOL     OW18790   2.749   4.589  12.271 -0.0017  0.6176 -0.4082
33727SOL    HW118791   2.843   4.601  12.284 -0.1022  0.1118  0.9226
33727SOL    HW218792   2.735   4.610  12.178  1.7392 -1.3187 -1.1997
33728SOL     OW18793   7.943   1.187   0.962 -0.0136  0.0657  0.2383
33728SOL    HW118794   7.988   1.127   0.902 -0.4403  0.0694 -0.0868
33728SOL    HW218795   7.999   1.265   0.963 -0.2010  0.2191 -0.4652
33729SOL     OW18796  14.048   4.029   4.995 -0.5605  0.5726  0.4042
33729SOL    HW118797  13.972   3.996   5.043  0.0451  1.1991  1.8597
33729SOL    HW218798  14.108   4.059   5.063  0.5065  1.1484 -0.7505
33730SOL     OW18799   9.930   9.762   2.358 -0.2314  0.3939 -0.2290
33730SOL    HW118800   9.993   9.734   2.425 -1.3129  0.3678  0.8247
33730SOL    HW218801   9.894   9.843   2.393 -0.4345  0.6672 -1.0600
33731SOL     OW18802   2.041   1.835   5.795 -0.2193 -0.1683  0.0100
33731SOL    HW118803   2.004   1.747   5.803  2.2834 -1.5333 -1.8097
33731SOL    HW218804   2.101   1.843   5.869 -2.0160  0.9259  1.3942
33732SOL     OW18805  12.834  10.645  11.521  0.2824 -0.2072 -1.0188
33732SOL    HW118806  12.763  10.596  11.564  1.2337  0.6479  1.7686
33732SOL    HW218807  12.890  10.577  11.483  0.6693 -1.2801  1.2930
33733SOL     OW18808   6.755  11.940   9.363  0.1094 -0.5229 -0.0262
33733SOL    HW118809   6.688  11.976   9.420 -0.0056 -0.8539  0.0471
33733SOL    HW218810   6.726  11.964   9.275  0.0730 -0.3697  0.0273
33734SOL     OW18811   3.921  12.025   1.162 -0.6952  0.1531  0.0129
33734SOL    HW118812   3.987  12.022   1.231 -1.0926 -0.4101  0.3785
33734SOL    HW218813   3.887  11.936   1.157 -1.9190  0.5708  0.3380
33735SOL     OW18814   2.450   5.028   8.792  0.4589  0.2609  0.1350
33735SOL    HW118815   2.484   4.958   8.849 -0.1298 -0.1745 -0.0489
33735SOL    HW218816   2.406   5.088   8.852  1.4197  0.7656  0.3607
33736SOL     OW18817   4.166   7.648   6.504 -0.2103 -0.5490 -0.1036
33736SOL    HW118818   4.214   7.723   6.538  1.7375 -1.0744 -1.5406
33736SOL    HW218819   4.079   7.682   6.485  0.2300  0.9971  0.4846
33737SOL     OW18820  12.149  11.089   5.861 -0.6949  0.6061 -0.0366
33737SOL    HW118821  12.198  11.140   5.796 -0.7918  0.9603  0.1698
33737SOL    HW218822  12.188  11.002   5.856 -0.5676  0.6824 -0.4307
33738SOL     OW18823   5.241   7.602   1.715 -0.0462  0.3914 -0.7554
33738SOL    HW118824   5.322   7.595   1.665  0.1829 -2.3360 -0.1411
33738SOL    HW218825   5.179   7.546   1.668 -1.3294  1.7002 -0.6844
33739SOL     OW18826   3.948   9.639   8.073  0.1474 -0.1847 -0.3256
33739SOL    HW118827   4.004   9.573   8.034  1.9912 -0.8969  3.0857
33739SOL    HW218828   3.899   9.592   8.141 -0.0750  1.5534  0.7904
33740SOL     OW18829   6.186   7.063  13.612  0.2402  0.2501 -0.2157
33740SOL    HW118830   6.211   7.152  13.639  2.1301 -0.1921 -0.3791
33740SOL    HW218831   6.123   7.035  13.679  1.9016  0.6278  1.6148
33741SOL     OW18832   1.476   6.267  11.508  0.5288  0.0344  0.4434
33741SOL    HW118833   1.429   6.336  11.554 -0.2260 -0.3499  0.2679
33741SOL    HW218834   1.409   6.222  11.457  0.7496 -1.6556  1.5384
33742SOL     OW18835   2.342  10.712   0.078 -0.4416  0.4550 -0.1026
33742SOL    HW118836   2.402  10.646   0.113 -0.0479  0.8469 -0.0301
33742SOL    HW218837   2.314  10.677  -0.007 -1.6086 -0.6409  0.6753
33743SOL     OW18838   9.723  11.857  13.514 -0.0519 -0.2363  0.1429
33743SOL    HW118839   9.676  11.799  13.575  0.2159 -0.0942  0.4872
33743SOL    HW218840   9.808  11.872  13.556 -0.2405  0.6629  0.2048
33744SOL     OW18841   0.394   8.791   3.373 -0.2699 -0.6117  0.0755
33744SOL    HW118842   0.325   8.780   3.439 -0.9802  0.3484 -0.4793
33744SOL    HW218843   0.359   8.857   3.313  1.5124  0.5749  0.2722
33745SOL     OW18844  12.385   6.632   1.180  0.3133  0.1452 -0.0962
33745SOL    HW118845  12.386   6.589   1.265 -1.8728  0.1572 -0.0065
33745SOL    HW218846  12.296   6.616   1.146  1.4082 -0.7511 -2.8380
33746SOL     OW18847   7.980   4.344  12.456  0.5845  0.2176 -0.4364
33746SOL    HW118848   8.033   4.267  12.478  0.9158  0.1548 -1.4132
33746SOL    HW218849   8.041   4.405  12.416 -0.3560 -0.6659 -3.5354
33747SOL     OW18850   4.704  12.515  13.473  0.2244 -0.2996  0.4467
33747SOL    HW118851   4.717  12.422  13.495  0.1535 -0.3862  0.1257
33747SOL    HW218852   4.787  12.543  13.434  1.1432  0.4493  2.7928
33748SOL     OW18853   4.446   2.588   5.059  0.0254  0.4048 -0.3250
33748SOL    HW118854   4.527   2.638   5.073  0.3540  0.5343 -2.3557
33748SOL    HW218855   4.381   2.654   5.035 -0.2363  0.1203 -0.4005
33749SOL     OW18856   7.310   3.905  13.479 -0.5969 -0.6089 -0.0900
33749SOL    HW118857   7.229   3.855  13.469 -0.1274 -1.6604  1.0731
33749SOL    HW218858   7.291   3.967  13.550 -0.4573 -0.7141  0.0409
33750SOL     OW18859   4.160   9.457  10.550 -0.2091  0.1927  0.4285
33750SOL    HW118860   4.106   9.529  10.518 -1.4036 -0.6231  0.5567
33750SOL    HW218861   4.156   9.391  10.480  0.9978  0.2868  0.2447
33751SOL     OW18862  12.419  13.289  10.447  0.3032 -0.1037  0.1854
33751SOL    HW118863  12.488  13.333  10.397 -0.4522 -0.4318 -1.1926
33751SOL    HW218864  12.453  13.201  10.463 -0.5104 -0.9712 -2.2646
33752SOL     OW18865   6.469   7.948   4.212 -0.0508  0.0564  0.0168
33752SOL    HW118866   6.387   7.906   4.185 -0.2906  0.4764  0.0838
33752SOL    HW218867   6.510   7.886   4.272 -1.3299  0.7260  1.6551
33753SOL     OW18868   9.171   5.026  12.315 -0.4363 -0.4739 -0.2604
33753SOL    HW118869   9.146   4.935  12.329 -0.7632 -0.2848  0.4449
33753SOL    HW218870   9.185   5.033  12.221 -0.0170 -1.3494 -0.2741
33754SOL     OW18871   2.572   5.930   2.536 -0.0042 -0.2174 -0.2993
33754SOL    HW118872   2.483   5.912   2.566 -0.3447  0.3516 -0.9367
33754SOL    HW218873   2.574   6.025   2.524  1.1215 -0.0488  1.0633
33755SOL     OW18874   2.990  12.261  11.246 -0.2172 -0.1012  0.0261
33755SOL    HW118875   2.997  12.217  11.161 -1.6018 -2.7850  1.1833
33755SOL    HW218876   3.081  12.276  11.273  0.2908 -1.3370 -0.9025
33756SOL     OW18877   6.631   1.972  14.053  0.2151 -0.3088 -0.7995
33756SOL    HW118878   6.608   2.004  13.966  0.1682 -0.1622 -0.7353
33756SOL    HW218879   6.617   2.048  14.111  0.3519 -0.3721 -0.6815
33757SOL     OW18880  12.937   8.284   6.094  0.0932 -0.1808 -0.4347
33757SOL    HW118881  12.894   8.355   6.142  2.1293  1.0271 -0.2970
33757SOL    HW218882  12.875   8.211   6.099 -1.0028  0.8124  1.5441
33758SOL     OW18883   3.610   9.038   6.042  0.3439  0.1738  0.2247
33758SOL    HW118884   3.618   8.980   6.118 -1.1216  1.2194  1.2200
33758SOL    HW218885   3.624   9.126   6.077 -3.7402  1.0674  0.0825
33759SOL     OW18886   0.516  13.568   9.293  0.1850 -0.2104  0.3536
33759SOL    HW118887   0.535  13.588   9.385 -2.0221  3.1520  0.2225
33759SOL    HW218888   0.580  13.499   9.271  3.6743  1.7389  3.1859
33760SOL     OW18889   3.645   2.353   1.327 -0.0149 -0.1098  0.5392
33760SOL    HW118890   3.597   2.271   1.317  0.3856 -0.1832 -1.1000
33760SOL    HW218891   3.577   2.420   1.334 -0.4471 -0.2005 -1.8378
33761SOL     OW18892  10.223   0.451   2.813  0.0095 -0.3197 -0.2046
33761SOL    HW118893  10.275   0.385   2.859  1.0732  0.4533 -0.2733
33761SOL    HW218894  10.136   0.443   2.851 -0.4145 -3.0199 -1.4654
33762SOL     OW18895   5.098   7.408   5.846 -0.2628  0.1687  0.7599
33762SOL    HW118896   5.095   7.500   5.871  3.0515  0.2598  1.3254
33762SOL    HW218897   5.118   7.362   5.928  0.1802 -0.7882  0.1282
33763SOL     OW18898   8.212  12.976   3.406 -0.3579 -0.5855 -0.1191
33763SOL    HW118899   8.160  12.904   3.371 -0.3979 -1.0291  0.8210
33763SOL    HW218900   8.296  12.936   3.428  0.4632  0.1421 -1.7145
33764SOL     OW18901   5.121  11.923   0.054  0.0770 -0.3155  0.2093
33764SOL    HW118902   5.092  11.929  -0.037 -1.0604 -2.4271  0.3726
33764SOL    HW218903   5.211  11.892   0.049  0.5264  0.9773 -0.1893
33765SOL     OW18904   6.402   6.432   6.260 -0.4558 -0.4896  0.0016
33765SOL    HW118905   6.396   6.342   6.226  1.8426 -0.8557  0.3703
33765SOL    HW218906   6.318   6.472   6.238 -0.3442 -1.6891 -3.2342
33766SOL     OW18907   5.230  12.244   7.549  0.1045  0.3375  0.1166
33766SOL    HW118908   5.306  12.207   7.503 -0.0883 -0.3214  0.3101
33766SOL    HW218909   5.236  12.338   7.533  0.6513  0.2361 -0.3393
33767SOL     OW18910  13.883   6.101   9.288 -0.3128  0.5804  0.2696
33767SOL    HW118911  13.820   6.030   9.275 -0.4626  0.7288  0.1829
33767SOL    HW218912  13.835   6.167   9.337 -0.9731  1.7150 -1.7660
33768SOL     OW18913  12.466   7.533   5.871 -0.0103 -0.0221  0.0511
33768SOL    HW118914  12.445   7.476   5.798  0.9438 -1.6778  1.0173
33768SOL    HW218915  12.558   7.558   5.857 -0.4137  1.3330 -0.3650
33769SOL     OW18916   5.272   9.916  13.948 -0.3972 -0.4144 -0.1161
33769SOL    HW118917   5.311   9.875  13.870  0.7533 -1.3436  0.8988
33769SOL    HW218918   5.342   9.913  14.013 -1.8122 -1.1110  1.4511
33770SOL     OW18919   9.311   7.647   4.058 -0.5817  0.1607 -0.1390
33770SOL    HW118920   9.294   7.741   4.066  1.8172  0.5231  2.1609
33770SOL    HW218921   9.268   7.609   4.135 -0.7964 -0.5473 -0.5954
33771SOL     OW18922   5.125   4.701  13.066 -0.3834 -0.2584  0.7110
33771SOL    HW118923   5.119   4.697  13.162  1.4442 -0.7063  0.8382
33771SOL    HW218924   5.064   4.633  13.036 -0.8932 -0.1935  1.5454
33772SOL     OW18925   6.034  11.073   5.532  0.5224  0.0623 -0.1324
33772SOL    HW118926   5.978  11.149   5.546 -0.3222 -0.4152 -0.7781
33772SOL    HW218927   6.077  11.090   5.448  1.7743  0.6622  0.5993
33773SOL     OW18928  13.679  11.069  14.065 -0.4381 -0.3261 -0.1681
33773SOL    HW118929  13.676  11.106  13.977 -0.7550  0.1795  0.0554
33773SOL    HW218930  13.753  11.113  14.107  0.5065 -1.4607 -0.5712
33774SOL     OW18931   0.952   5.430   1.503  0.0826  0.2127 -0.1721
33774SOL    HW118932   0.953   5.422   1.598  0.5033 -0.3255 -0.2151
33774SOL    HW218933   0.967   5.341   1.471  0.8696  0.5263 -0.7264
33775SOL     OW18934   6.908  10.089  12.137  0.3403 -0.0414 -0.3200
33775SOL    HW118935   6.940  10.024  12.075  0.1237 -2.5979  2.0879
33775SOL    HW218936   6.815  10.071  12.146  0.8132 -1.6184  2.6877
33776SOL     OW18937   3.844   7.690   2.929  0.0955  0.0312 -0.2273
33776SOL    HW118938   3.822   7.598   2.944  1.1061 -0.2668 -0.4989
33776SOL    HW218939   3.899   7.689   2.850  3.4011  0.3914  1.8782
33777SOL     OW18940  10.884   8.976   5.181  0.2216 -0.0993  0.1935
33777SOL    HW118941  10.875   9.051   5.239  1.8981  0.7889 -0.6181
33777SOL    HW218942  10.945   8.918   5.227 -0.5824 -0.6964  0.5330
33778SOL     OW18943  12.536  12.835   4.212 -0.0180  0.0424  0.0352
33778SOL    HW118944  12.586  12.898   4.159  1.5260 -1.6379 -0.5915
33778SOL    HW218945  12.589  12.822   4.291  0.4267 -1.5037 -0.4818
33779SOL     OW18946   5.594  10.610   1.454 -0.0008  0.6602 -0.0376
33779SOL    HW118947   5.594  10.666   1.376  1.1240  0.1011 -0.4746
33779SOL    HW218948   5.603  10.670   1.527  1.4119  1.0591 -0.5117
33780SOL     OW18949   5.695   6.159   6.609 -0.1308  0.3790 -0.1397
33780SOL    HW118950   5.768   6.180   6.550 -1.1946  1.5323 -1.0892
33780SOL    HW218951   5.674   6.068   6.588  1.2324 -0.0806  0.3829
33781SOL     OW18952   9.706  11.586   9.485 -0.0465 -0.2635 -0.5767
33781SOL    HW118953   9.633  11.647   9.488 -1.5432 -1.9272 -1.3973
33781SOL    HW218954   9.729  11.573   9.577  0.2379  1.3965 -0.3768
33782SOL     OW18955   6.198  13.756   5.046 -0.3014  0.6104 -0.4745
33782SOL    HW118956   6.290  13.747   5.070 -0.6299  0.8945  1.0688
33782SOL    HW218957   6.166  13.667   5.040 -0.2036  0.5178  0.2535
33783SOL     OW18958  10.057  12.088   5.372 -0.0055  0.2157  0.3466
33783SOL    HW118959  10.089  12.124   5.454 -0.3613  1.0841  0.1252
33783SOL    HW218960  10.012  12.007   5.396  1.7851 -0.7121  0.7273
33784SOL     OW18961   6.394   9.592   2.262 -0.2824 -0.5268 -0.0622
33784SOL    HW118962   6.358   9.572   2.176 -0.3085 -0.3132 -0.1013
33784SOL    HW218963   6.471   9.535   2.270 -0.6820 -1.0520  0.0635
33785SOL     OW18964   5.924   0.917   2.972 -0.5211  0.2576 -0.6779
33785SOL    HW118965   5.903   0.996   2.922  0.7532 -0.4644 -2.4824
33785SOL    HW218966   5.930   0.848   2.905  0.1376 -0.9977  0.6319
33786SOL     OW18967   8.900  12.486   0.305  0.6380 -0.1154  0.2042
33786SOL    HW118968   8.903  12.551   0.376  1.2653 -0.9632  0.9878
33786SOL    HW218969   8.933  12.533   0.228 -0.1979  0.8672  0.4266
33787SOL     OW18970  11.754   4.758   8.524  0.5405  0.3988  0.1076
33787SOL    HW118971  11.774   4.838   8.573  1.2584  0.0811  0.3462
33787SOL    HW218972  11.664   4.736   8.550 -0.1459  1.8379 -0.9587
33788SOL     OW18973   7.469   9.011   2.549 -0.0511  0.2019 -0.3795
33788SOL    HW118974   7.548   9.004   2.602 -0.1146  0.0990 -0.2975
33788SOL    HW218975   7.398   9.026   2.611  0.0287  1.2757 -0.5302
33789SOL     OW18976  12.752   8.385   5.025 -0.4783 -0.3990 -0.2424
33789SOL    HW118977  12.816   8.392   5.096  0.7179 -0.4708 -1.2704
33789SOL    HW218978  12.766   8.298   4.987  0.6383  0.5264 -2.1041
33790SOL     OW18979  10.346   2.297   6.656  0.4283 -0.0427 -0.7094
33790SOL    HW118980  10.391   2.270   6.736  1.1159  0.9638 -0.7364
33790SOL    HW218981  10.414   2.338   6.603  0.0765 -1.0748 -2.0180
33791SOL     OW18982  11.488  12.671   4.972  0.5580 -0.0677 -0.3767
33791SOL    HW118983  11.451  12.716   5.049 -2.1016 -0.0764 -1.5499
33791SOL    HW218984  11.526  12.742   4.920  0.1246  0.2864 -0.2281
33792SOL     OW18985   8.231   9.673  11.927  0.2949  0.4850 -0.6615
33792SOL    HW118986   8.263   9.736  11.862  0.9379  2.2842  1.2594
33792SOL    HW218987   8.305   9.661  11.987 -0.5544 -0.3970  0.2487
33793SOL     OW18988   7.962   9.927   1.261 -0.2474  0.1803 -0.2986
33793SOL    HW118989   8.023   9.882   1.202 -0.4288 -0.9535  0.3415
33793SOL    HW218990   8.018   9.974   1.322 -0.0577  1.3786 -1.3645
33794SOL     OW18991  11.157   9.672   6.783 -0.0459  0.6636  0.5761
33794SOL    HW118992  11.092   9.605   6.759  0.7365 -0.0782  0.4789
33794SOL    HW218993  11.175   9.717   6.701  1.4177 -0.8010  0.0429
33795SOL     OW18994  12.403   7.093   0.581  0.6962 -0.2353  0.6963
33795SOL    HW118995  12.450   7.035   0.641  0.9826 -1.9675 -1.1171
33795SOL    HW218996  12.367   7.035   0.515  2.8523  1.7470 -2.4933
33796SOL     OW18997   1.030   1.473   8.547  0.4046 -0.3093  0.7118
33796SOL    HW118998   1.093   1.434   8.487 -0.7985 -1.0003 -0.1487
33796SOL    HW218999   0.968   1.402   8.566 -1.6099  1.0062 -0.5613
33797SOL     OW19000   8.840  10.196  11.672  0.6137  0.0039 -0.4566
33797SOL    HW119001   8.766  10.175  11.729  0.2724  0.5215 -0.7044
33797SOL    HW219002   8.893  10.116  11.671  0.8768  0.1293  0.9676
33798SOL     OW19003   1.920   4.255   5.812 -0.7432  0.5522 -0.5317
33798SOL    HW119004   1.876   4.192   5.755  0.2280 -0.9668  0.3197
33798SOL    HW219005   2.013   4.241   5.795 -0.5015  2.2203 -0.7639
33799SOL     OW19006   4.891   0.145   4.182 -0.5352 -0.4759 -0.5422
33799SOL    HW119007   4.895   0.195   4.263  0.2008 -1.9401  0.3663
33799SOL    HW219008   4.802   0.161   4.149 -0.4246  1.1476 -0.1474
33800SOL     OW19009   4.558   2.906   3.967 -0.3059 -0.0765  0.4416
33800SOL    HW119010   4.578   2.896   3.874  0.7973  0.0927  0.6492
33800SOL    HW219011   4.464   2.924   3.969  0.0128  2.0728 -0.8045
33801SOL     OW19012   0.049   4.654   9.388  0.6259  0.1614 -0.2170
33801SOL    HW119013   0.001   4.583   9.346  0.6822  0.6616 -1.1482
33801SOL    HW219014   0.138   4.647   9.355  0.2384  1.7371 -1.7774
33802SOL     OW19015   0.920   3.624  11.462 -0.0145 -0.0547 -0.0420
33802SOL    HW119016   0.957   3.538  11.442  0.9264  0.1351  0.7946
33802SOL    HW219017   0.995   3.676  11.492 -0.8743  0.4887  1.2481
33803SOL     OW19018   5.744   4.362   6.933 -0.2120 -0.2822 -0.9417
33803SOL    HW119019   5.651   4.385   6.941  0.1164  0.7138  0.4914
33803SOL    HW219020   5.759   4.356   6.839 -1.4313  0.8956 -1.2499
33804SOL     OW19021   3.083   2.253   2.181 -0.1418  0.0899 -0.2976
33804SOL    HW119022   3.175   2.253   2.207 -0.0109  2.8019 -0.5321
33804SOL    HW219023   3.085   2.258   2.086 -0.5651 -0.6439 -0.3543
33805SOL     OW19024  11.045  12.452   5.976  0.2583 -0.3005  0.3068
33805SOL    HW119025  10.961  12.452   5.931  0.9568  0.1822 -1.0299
33805SOL    HW219026  11.064  12.359   5.992 -0.7614 -0.3921  1.1152
33806SOL     OW19027   4.855   8.141  13.597  0.0327 -0.1370 -0.6416
33806SOL    HW119028   4.760   8.148  13.608  0.1288  1.6009 -0.6150
33806SOL    HW219029   4.879   8.218  13.545  1.5740  0.1734  0.4336
33807SOL     OW19030  13.696   5.246   5.921 -0.1274  0.3103 -0.5818
33807SOL    HW119031  13.733   5.298   5.850 -0.0402  0.6742 -0.2767
33807SOL    HW219032  13.768   5.190   5.950 -0.7136 -1.2774 -2.0823
33808SOL     OW19033  13.773   9.900  12.642 -0.2142 -0.3197 -0.5505
33808SOL    HW119034  13.688   9.937  12.617 -0.6597 -0.9679 -0.0505
33808SOL    HW219035  13.806   9.960  12.709 -0.3074 -0.0968 -0.7025
33809SOL     OW19036  12.862  12.917   3.328 -0.3372  0.1616 -0.1717
33809SOL    HW119037  12.905  12.831   3.330  0.5201  0.5821  1.4144
33809SOL    HW219038  12.907  12.967   3.396 -2.0569  1.2654  0.2005
33810SOL     OW19039   4.481   7.753   0.443 -0.4066 -0.0905  0.6611
33810SOL    HW119040   4.560   7.747   0.389 -1.1553  1.3864 -0.6654
33810SOL    HW219041   4.505   7.710   0.525  1.0578 -1.6035 -0.4974
33811SOL     OW19042   8.940   3.857  11.138  0.3516 -0.3545  0.2157
33811SOL    HW119043   8.924   3.888  11.227  0.9200 -2.0937  0.9625
33811SOL    HW219044   8.980   3.932  11.094  1.2480  0.1615  1.8067
33812SOL     OW19045   4.772   5.653   4.434  0.0510 -0.5234  0.2646
33812SOL    HW119046   4.848   5.659   4.492 -1.1897 -3.6852  2.5157
33812SOL    HW219047   4.697   5.665   4.492 -1.2362 -0.5188 -1.3455
33813SOL     OW19048  11.919   4.206   2.184  0.2645  0.1648  0.2720
33813SOL    HW119049  11.889   4.296   2.170  0.0088  0.0256 -0.0925
33813SOL    HW219050  12.002   4.215   2.231  1.6964  0.7100 -2.1661
33814SOL     OW19051   0.020  11.457   4.475  0.5007 -0.9818  0.4790
33814SOL    HW119052  -0.041  11.386   4.494  0.9792 -1.1330  1.4786
33814SOL    HW219053   0.038  11.498   4.559 -0.9698  1.3620 -0.2301
33815SOL     OW19054  12.586   9.790  12.579  0.2367  0.6108  0.2146
33815SOL    HW119055  12.551   9.705  12.552 -1.6249  1.4872 -0.3593
33815SOL    HW219056  12.534   9.814  12.656  2.1214  0.3642  1.6357
33816SOL     OW19057   5.147   3.322   7.625  0.1513 -0.3111  0.2023
33816SOL    HW119058   5.152   3.365   7.710 -0.6358 -1.2750  0.7605
33816SOL    HW219059   5.109   3.387   7.567 -1.2280 -0.2984  1.0794
33817SOL     OW19060   3.118   0.643   1.744  0.3166 -0.3441  0.6345
33817SOL    HW119061   3.160   0.557   1.741  1.3178  0.1413  0.0241
33817SOL    HW219062   3.144   0.679   1.828  0.5906 -0.3161  0.5409
33818SOL     OW19063   1.139  11.261   1.071 -0.9254  0.4994 -0.6919
33818SOL    HW119064   1.076  11.191   1.057  0.3204 -0.5836 -1.0803
33818SOL    HW219065   1.136  11.277   1.166 -1.5641  0.2535 -0.6690
33819SOL     OW19066   7.281   0.689   3.866 -0.4489 -0.4220 -0.0807
33819SOL    HW119067   7.265   0.598   3.842 -0.8217 -0.3814  0.0067
33819SOL    HW219068   7.377   0.696   3.872 -0.4089 -0.7535 -0.2895
33820SOL     OW19069   6.070   7.357   2.057 -0.7270 -0.3399  0.3998
33820SOL    HW119070   6.053   7.267   2.030 -1.5815 -0.8124  2.3679
33820SOL    HW219071   6.033   7.411   1.987 -1.6174 -1.4987 -0.0502
33821SOL     OW19072   9.147   1.235   4.406  0.0684 -0.1429 -0.9348
33821SOL    HW119073   9.059   1.261   4.378  0.4676 -1.4731 -3.7691
33821SOL    HW219074   9.203   1.308   4.381  0.0134  0.0219 -0.5923
33822SOL     OW19075   2.415   5.926   1.744 -0.2274 -0.0649 -0.3997
33822SOL    HW119076   2.428   5.920   1.649 -0.9677  1.0057 -0.5837
33822SOL    HW219077   2.336   5.979   1.754  0.5569  0.9182  0.8327
33823SOL     OW19078   1.972   6.713   8.578  0.9241 -0.2252  0.5622
33823SOL    HW119079   1.935   6.796   8.545 -0.1326 -0.8672  0.0707
33823SOL    HW219080   1.982   6.728   8.672 -2.2524 -0.5345  1.0710
33824SOL     OW19081   0.727  14.070   8.148 -0.5548  0.0454 -0.2852
33824SOL    HW119082   0.695  14.075   8.058 -0.9615 -0.6574 -0.1869
33824SOL    HW219083   0.763  13.982   8.156  2.4693  1.1169 -0.7087
33825SOL     OW19084  13.808   7.522   9.987  0.1855  0.1446  0.6367
33825SOL    HW119085  13.846   7.449  10.036  2.3241  2.3580  2.5232
33825SOL    HW219086  13.748   7.564  10.050 -1.6770 -0.3870 -0.6968
33826SOL     OW19087  10.668   0.273   7.388  0.2841  0.1093 -0.2519
33826SOL    HW119088  10.724   0.312   7.320 -1.6942  0.5826 -1.6847
33826SOL    HW219089  10.611   0.213   7.340  1.4139 -2.5597  1.5639
33827SOL     OW19090  11.135  11.802   6.840  0.1324 -0.3238  0.0705
33827SOL    HW119091  11.214  11.763   6.803  0.6651 -0.2603  1.0871
33827SOL    HW219092  11.074  11.807   6.767  0.7926 -1.1009 -0.5603
33828SOL     OW19093   2.960   5.047   8.250 -0.2353  0.4682  0.0119
33828SOL    HW119094   2.896   5.008   8.310  0.5723  1.3308  1.4984
33828SOL    HW219095   2.990   5.126   8.295  2.7225 -0.4916 -0.0695
33829SOL     OW19096   8.343  11.431   2.463 -0.2124 -0.2821  0.4549
33829SOL    HW119097   8.290  11.364   2.507 -1.2944  0.0120 -0.3643
33829SOL    HW219098   8.432  11.415   2.494 -0.5620 -1.6457  0.8308
33830SOL     OW19099   5.833   4.241   5.209  0.1306 -0.0327  0.1267
33830SOL    HW119100   5.837   4.330   5.175 -0.0236 -0.1752 -0.2779
33830SOL    HW219101   5.919   4.204   5.189 -0.0362 -0.1894 -0.3316
33831SOL     OW19102  13.283   0.056   6.978  0.1926  0.0997  0.3230
33831SOL    HW119103  13.197   0.022   6.957  1.3699 -1.9185 -1.5917
33831SOL    HW219104  13.289   0.138   6.929 -0.1553 -0.4336 -0.6290
33832SOL     OW19105   7.148  14.065   7.460 -0.6723  0.3547 -0.1576
33832SOL    HW119106   7.195  14.004   7.403 -1.2400  1.1998 -1.5785
33832SOL    HW219107   7.107  14.127   7.400 -1.0555  1.4591  1.2006
33833SOL     OW19108   6.365   7.370  13.256  0.0042 -0.1364 -0.4182
33833SOL    HW119109   6.390   7.299  13.315 -0.8969  0.2181  0.4155
33833SOL    HW219110   6.444   7.388  13.206  1.0304  0.0607  1.2106
33834SOL     OW19111   8.947   4.602   2.973  0.0085 -0.0364  0.5538
33834SOL    HW119112   8.959   4.574   3.064 -0.6887  0.1960  0.7270
33834SOL    HW219113   8.922   4.694   2.980 -0.1171 -0.0395  0.1342
33835SOL     OW19114  11.616   5.199   8.217  0.2417 -0.2639 -0.1663
33835SOL    HW119115  11.571   5.144   8.282 -0.3775  0.1713 -0.2136
33835SOL    HW219116  11.567   5.183   8.136  0.8858 -0.6539 -0.4836
33836SOL     OW19117  10.045  13.555  11.892  0.2556  0.6566  0.3085
33836SOL    HW119118  10.131  13.591  11.913  1.3194 -1.1790 -0.7058
33836SOL    HW219119  10.052  13.461  11.909 -1.2137  0.3030 -0.8125
33837SOL     OW19120  13.496   4.778  10.264  0.0322 -0.0239 -0.4504
33837SOL    HW119121  13.556   4.803  10.193 -0.3231 -1.6228 -1.3710
33837SOL    HW219122  13.516   4.686  10.280 -2.1253 -0.5982 -0.7735
33838SOL     OW19123   3.344   9.531   3.767 -0.2123 -0.4162  0.1498
33838SOL    HW119124   3.387   9.462   3.817  0.9747  1.2675  1.5771
33838SOL    HW219125   3.416   9.580   3.726 -0.8085  1.5215  1.3054
33839SOL     OW19126   1.606   4.824   0.260  1.2114 -0.1404 -0.0201
33839SOL    HW119127   1.689   4.789   0.225 -0.5163 -2.2835 -2.3243
33839SOL    HW219128   1.552   4.746   0.276 -2.3117  1.1584 -3.8867
33840SOL     OW19129  14.080   9.191  11.075 -0.5170 -0.2721  0.1027
33840SOL    HW119130  14.033   9.109  11.089 -1.6384  0.2527 -0.4181
33840SOL    HW219131  14.150   9.169  11.014 -1.9660 -0.4950 -1.5493
33841SOL     OW19132   9.951   1.218   5.735  0.3787 -0.4571 -1.0605
33841SOL    HW119133   9.994   1.152   5.789  0.6396 -1.6016 -2.5848
33841SOL    HW219134   9.963   1.186   5.645  0.8755  1.8969 -1.8836
33842SOL     OW19135   2.007   8.580   0.852 -0.0520 -0.2528  0.1178
33842SOL    HW119136   2.061   8.513   0.810 -0.3826 -1.3129  1.3171
33842SOL    HW219137   2.071   8.643   0.887  0.2622  0.0649 -0.9905
33843SOL     OW19138   9.194  11.457  11.586  0.7933 -0.2964  0.5763
33843SOL    HW119139   9.220  11.405  11.662  0.2423 -0.9806  0.3146
33843SOL    HW219140   9.195  11.548  11.617  3.9665 -0.1843  0.4185
33844SOL     OW19141   8.985   9.208   4.664 -0.7111 -0.1253 -0.1730
33844SOL    HW119142   8.989   9.263   4.743 -1.0003 -0.7005  0.2495
33844SOL    HW219143   9.022   9.263   4.595  2.7199 -0.6974  0.9880
33845SOL     OW19144   6.811  11.743   9.014  0.1169 -0.2373 -0.0577
33845SOL    HW119145   6.888  11.783   9.055  2.4344 -1.6626 -2.6710
33845SOL    HW219146   6.766  11.815   8.971  0.1097  0.5668  1.2423
33846SOL     OW19147  10.058   8.748   1.335 -0.0262  0.1228 -0.4245
33846SOL    HW119148  10.065   8.661   1.295 -0.1031 -0.1315  0.1062
33846SOL    HW219149  10.148   8.778   1.345 -0.0134  0.3173 -1.0568
33847SOL     OW19150  10.640   5.732   9.329 -0.1495  0.6430 -0.2551
33847SOL    HW119151  10.605   5.682   9.255 -0.0621  0.1087  0.0580
33847SOL    HW219152  10.565   5.746   9.387 -0.2907  1.3578 -0.6000
33848SOL     OW19153  13.265   7.439  12.733  0.8438 -0.2701 -0.1511
33848SOL    HW119154  13.338   7.393  12.774  1.4949  0.6773 -0.2320
33848SOL    HW219155  13.187   7.392  12.764  1.5359 -2.3491 -1.4045
33849SOL     OW19156   8.417   4.996  13.898 -0.4999  0.1686 -0.1802
33849SOL    HW119157   8.480   5.068  13.888 -0.9328  0.4241 -1.1534
33849SOL    HW219158   8.331   5.039  13.897 -0.7116 -0.2235  0.7194
33850SOL     OW19159   9.405  12.585   3.718 -0.4055  0.5537  0.1096
33850SOL    HW119160   9.381  12.673   3.746 -0.0110  0.6696  0.0913
33850SOL    HW219161   9.365  12.575   3.632  0.5457  1.1744 -0.4296
33851SOL     OW19162   3.841  13.429   8.890  0.6974  0.3577 -0.3292
33851SOL    HW119163   3.760  13.404   8.845 -0.8671  1.5055  1.7040
33851SOL    HW219164   3.885  13.489   8.828 -2.1382  3.1341  0.1164
33852SOL     OW19165  11.582   7.723   0.295 -0.2117  0.8091  0.3986
33852SOL    HW119166  11.563   7.681   0.211  1.2419  3.3068 -1.3043
33852SOL    HW219167  11.580   7.651   0.359 -0.0098 -1.4267 -1.9635
33853SOL     OW19168   8.109  12.717   1.722  0.4869 -0.0321  0.3718
33853SOL    HW119169   8.047  12.645   1.731  0.9915 -0.7699 -1.5828
33853SOL    HW219170   8.180  12.695   1.781  0.9765 -1.5623 -0.7213
33854SOL     OW19171   8.559  12.937   8.902 -0.4173  0.1482  0.1229
33854SOL    HW119172   8.482  12.912   8.851 -0.0302  0.1392 -0.4628
33854SOL    HW219173   8.523  12.981   8.979 -0.9815  0.6363 -0.4125
33855SOL     OW19174  10.649   4.191   3.767 -0.0256 -0.2903 -0.2472
33855SOL    HW119175  10.693   4.229   3.843  0.7137 -1.2403 -0.1923
33855SOL    HW219176  10.646   4.263   3.703 -0.2696  0.3840  0.5120
33856SOL     OW19177  13.382   0.721   2.300  0.6696  0.2860 -0.4752
33856SOL    HW119178  13.341   0.640   2.328  0.2591 -0.3883 -2.8353
33856SOL    HW219179  13.469   0.695   2.268  0.6621  0.8135 -0.9484
33857SOL     OW19180   0.005   5.340  13.242  0.2145 -0.5704  0.4026
33857SOL    HW119181  -0.068   5.279  13.256 -1.1672  0.5916 -1.3518
33857SOL    HW219182   0.027   5.371  13.330  0.1427 -2.6508  1.1983
33858SOL     OW19183  13.756   6.911   5.722 -0.1250  0.1459  0.0667
33858SOL    HW119184  13.703   6.833   5.704  1.0160 -0.7259  0.3324
33858SOL    HW219185  13.827   6.907   5.658  0.1194  0.8080  0.2894
33859SOL     OW19186  13.395  11.658   0.880 -0.2871 -0.0597  0.0385
33859SOL    HW119187  13.336  11.583   0.890 -1.8760  1.2486  1.0266
33859SOL    HW219188  13.338  11.729   0.853  0.5074  1.6833  2.5951
33860SOL     OW19189  10.302   5.976   1.807 -0.2613  0.5238 -0.2399
33860SOL    HW119190  10.380   6.028   1.793 -0.3083  1.4240  2.2736
33860SOL    HW219191  10.295   5.920   1.729  3.6233 -0.5884  0.0275
33861SOL     OW19192   2.295  10.530   3.968  0.1476 -0.0204  0.0036
33861SOL    HW119193   2.233  10.539   3.896  0.2005 -2.0258 -0.3506
33861SOL    HW219194   2.374  10.574   3.938  0.2061 -0.9302 -1.2523
33862SOL     OW19195   6.833  11.137   7.984  0.1001 -0.1837  0.6610
33862SOL    HW119196   6.919  11.114   8.020  0.9232  2.0780  0.3125
33862SOL    HW219197   6.772  11.126   8.057  0.6715 -1.7179  0.9447
33863SOL     OW19198  12.343   5.385  10.327  0.4078  0.1174 -0.2901
33863SOL    HW119199  12.432   5.365  10.299  0.4975 -0.0109  0.0803
33863SOL    HW219200  12.332   5.337  10.410  0.1232  0.4234 -0.1454
33864SOL     OW19201   5.744   8.662   4.366  0.1106 -0.8688 -0.2862
33864SOL    HW119202   5.754   8.748   4.325 -0.1924  0.9700  3.1203
33864SOL    HW219203   5.661   8.629   4.333 -1.9241  2.1696  1.3324
33865SOL     OW19204  12.471   5.270   2.349 -0.1478  0.1431 -0.1737
33865SOL    HW119205  12.408   5.338   2.324 -2.0022 -0.5344  2.2338
33865SOL    HW219206  12.439   5.191   2.306  0.3243  0.2207 -0.6682
33866SOL     OW19207  13.806   3.859   3.262  0.2206 -0.1060  0.0615
33866SOL    HW119208  13.886   3.807   3.250  0.7259  0.6890 -0.1227
33866SOL    HW219209  13.833   3.931   3.318  0.3152  1.6372 -2.1086
33867SOL     OW19210   3.976  11.129   8.890 -0.1188 -0.2526 -0.6811
33867SOL    HW119211   3.967  11.208   8.942  1.0105  0.3306 -1.3381
33867SOL    HW219212   4.025  11.068   8.946 -0.0337 -0.0936 -0.5837
33868SOL     OW19213  12.138  10.639  11.241 -0.1850 -0.9089  0.8560
33868SOL    HW119214  12.189  10.560  11.253 -0.6352 -1.3402 -0.0090
33868SOL    HW219215  12.200  10.711  11.253  0.6889 -1.4263 -0.4212
33869SOL     OW19216  11.804   1.925   5.026  0.4302 -0.3633 -0.3979
33869SOL    HW119217  11.854   2.005   5.042  1.1693 -0.6489 -1.1781
33869SOL    HW219218  11.728   1.932   5.084  0.5356  0.8472 -0.3769
33870SOL     OW19219   9.816  10.609  11.311  0.1643  0.0015  0.0861
33870SOL    HW119220   9.745  10.609  11.247  1.3010 -0.2304 -1.2250
33870SOL    HW219221   9.891  10.575  11.263  2.1256  3.4795  0.3548
33871SOL     OW19222  11.004   8.792  12.575 -0.1820  0.0391  0.4300
33871SOL    HW119223  10.962   8.792  12.489  0.2057  1.8592  0.1957
33871SOL    HW219224  10.936   8.826  12.634  0.1057  0.4789  0.5135
33872SOL     OW19225  13.201   9.970   5.176 -0.8901 -0.2874 -0.2400
33872SOL    HW119226  13.231  10.007   5.259  2.2070 -0.0090 -1.3234
33872SOL    HW219227  13.211   9.876   5.187 -0.8668 -0.2739 -0.1504
33873SOL     OW19228   0.006  13.314   3.608 -0.0428  0.1331  0.1575
33873SOL    HW119229   0.019  13.223   3.637 -0.5025 -0.1799 -0.5788
33873SOL    HW219230   0.060  13.366   3.666  0.6668 -0.6746  0.2342
33874SOL     OW19231   2.204  13.094   3.114 -0.0515 -0.1409  0.4261
33874SOL    HW119232   2.216  13.017   3.058  1.0956  0.6039 -0.3866
33874SOL    HW219233   2.170  13.161   3.056 -4.0924 -0.8198  1.7354
33875SOL     OW19234   6.290   8.989  12.100  0.3946 -0.3223  0.3657
33875SOL    HW119235   6.241   8.923  12.147  0.1357 -0.3714  0.0316
33875SOL    HW219236   6.242   9.001  12.018 -0.1129  0.9838  0.8256
33876SOL     OW19237  12.020   5.913   5.026  0.3085 -0.2395 -0.0513
33876SOL    HW119238  12.023   5.833   4.973  0.9076  0.1343 -0.6028
33876SOL    HW219239  11.933   5.950   5.010  0.5415 -0.0407 -0.9271
33877SOL     OW19240  10.100   7.845   5.338  0.1402 -0.0991  0.4731
33877SOL    HW119241  10.111   7.922   5.283 -1.2850  1.1702  1.8765
33877SOL    HW219242  10.123   7.771   5.281  0.2293  1.2484 -1.3144
33878SOL     OW19243  13.947   7.417   6.964  0.0499  0.4031 -0.3926
33878SOL    HW119244  13.984   7.366   7.036  0.4856  1.3466  0.0671
33878SOL    HW219245  13.936   7.353   6.893  1.4593 -0.1481 -0.1598
33879SOL     OW19246   4.754   1.444   3.176  0.0659  0.5681  0.1668
33879SOL    HW119247   4.695   1.374   3.203 -0.2762  1.3381  1.4890
33879SOL    HW219248   4.719   1.473   3.091 -1.4564  0.9731  0.9018
33880SOL     OW19249  11.136   3.618   3.955 -0.1369  0.0738  0.3012
33880SOL    HW119250  11.172   3.574   3.878 -0.8584  0.7158 -0.4175
33880SOL    HW219251  11.080   3.687   3.920 -1.7612 -0.6334  1.3807
33881SOL     OW19252   3.885   7.696  13.595 -0.5803  0.0177  0.7995
33881SOL    HW119253   3.881   7.779  13.548 -1.6583 -0.9192 -0.8269
33881SOL    HW219254   3.947   7.642  13.545 -0.1475 -0.3002  1.6450
33882SOL     OW19255  12.223   9.161   5.267  0.0211  0.1857  0.3768
33882SOL    HW119256  12.153   9.102   5.296  0.4083 -0.4042  0.1402
33882SOL    HW219257  12.291   9.102   5.233 -0.4143  0.8279 -1.7485
33883SOL     OW19258   9.306  13.027   0.554  0.1697  0.0081  0.1656
33883SOL    HW119259   9.365  13.082   0.605 -0.5386  0.0799  0.9213
33883SOL    HW219260   9.220  13.068   0.563  0.3087  1.2142 -2.7521
33884SOL     OW19261   4.343  13.887   4.290 -0.4616 -0.3786  0.0182
33884SOL    HW119262   4.362  13.882   4.196 -3.0488  1.2193 -0.6853
33884SOL    HW219263   4.328  13.980   4.306 -0.8967 -0.7307  1.8362
33885SOL     OW19264   7.682   3.554   4.273 -0.4371  0.0862 -0.1710
33885SOL    HW119265   7.737   3.539   4.350  0.7370  0.5014 -0.8973
33885SOL    HW219266   7.594   3.569   4.308 -0.1160 -0.6803  1.0157
33886SOL     OW19267   6.878   7.841   4.176  0.0146 -0.1530 -0.3782
33886SOL    HW119268   6.817   7.883   4.237 -1.0871 -0.7691 -1.0077
33886SOL    HW219269   6.901   7.909   4.113  0.0062  0.0971 -0.1118
33887SOL     OW19270  13.855   3.786   7.768  0.3835  0.2541  0.2503
33887SOL    HW119271  13.869   3.808   7.676  0.3311 -0.4529  0.0647
33887SOL    HW219272  13.773   3.830   7.792  0.1765  0.0929 -0.1620
33888SOL     OW19273   2.865   6.606   4.727 -0.3125 -0.0187  0.4993
33888SOL    HW119274   2.913   6.602   4.645 -0.3791  1.2815  0.3659
33888SOL    HW219275   2.871   6.698   4.753 -0.7755 -0.3001  1.6578
33889SOL     OW19276  12.176   1.970   8.059  0.1653 -0.2560  0.3004
33889SOL    HW119277  12.168   1.958   7.965 -1.5881 -0.2005  0.4119
33889SOL    HW219278  12.105   2.030   8.082  1.8630  1.4744  1.3662
33890SOL     OW19279   5.174   0.624   3.639  0.2221 -0.0987 -0.1415
33890SOL    HW119280   5.099   0.681   3.623  0.5567  0.3504 -0.1270
33890SOL    HW219281   5.169   0.557   3.571  1.2666  1.4128 -1.8012
33891SOL     OW19282   8.809   5.578   5.168  0.7828 -0.3338 -0.2262
33891SOL    HW119283   8.759   5.572   5.086  1.5346 -0.5846 -0.6803
33891SOL    HW219284   8.869   5.651   5.154 -1.5499  2.1033  1.5131
33892SOL     OW19285   1.662  11.816   2.357  0.0243 -0.5091 -0.3681
33892SOL    HW119286   1.672  11.811   2.452  1.8093  2.0358 -0.3020
33892SOL    HW219287   1.699  11.734   2.324 -0.2976 -1.2722  1.0841
33893SOL     OW19288  11.555  13.665  12.280 -0.2061 -0.2427 -0.1438
33893SOL    HW119289  11.515  13.749  12.301 -0.1988 -0.5448  1.1977
33893SOL    HW219290  11.533  13.650  12.188 -2.9115 -0.2352  0.4019
33894SOL     OW19291   5.316   6.076  13.608  0.3620  0.4001  0.2008
33894SOL    HW119292   5.385   6.059  13.544 -0.0207  1.0956 -0.4114
33894SOL    HW219293   5.351   6.042  13.691  2.5523  2.9786  0.4773
33895SOL     OW19294   7.162   3.971   0.517 -0.5968  0.1669  0.2073
33895SOL    HW119295   7.199   3.931   0.438  2.0071  0.0611  1.3824
33895SOL    HW219296   7.144   3.898   0.576  1.0297  0.4435  1.0965
33896SOL     OW19297   2.563   5.380   5.137 -0.0832 -0.0970  0.0786
33896SOL    HW119298   2.483   5.406   5.183 -0.1916 -1.1379  0.4994
33896SOL    HW219299   2.611   5.327   5.200 -0.3181 -1.7240 -1.0510
33897SOL     OW19300  11.361  11.782  14.010  0.4218 -0.1486 -0.1696
33897SOL    HW119301  11.414  11.718  13.962 -0.4743 -0.1569 -1.1811
33897SOL    HW219302  11.407  11.792  14.093  2.7630  0.8367 -1.4646
33898SOL     OW19303   3.013   0.207   5.370 -0.0656  0.2200 -0.3486
33898SOL    HW119304   3.002   0.190   5.464  1.1537 -0.4950 -0.3174
33898SOL    HW219305   3.006   0.121   5.329 -1.0598  0.5905 -0.9708
33899SOL     OW19306   8.358  12.956  11.711 -0.3257  0.0288  0.0293
33899SOL    HW119307   8.303  13.026  11.747 -2.8173 -1.3848 -0.7626
33899SOL    HW219308   8.423  13.002  11.658 -0.0443  1.8430  1.8276
33900SOL     OW19309   6.093   0.886   4.289 -0.0818 -0.6269 -0.1100
33900SOL    HW119310   6.166   0.834   4.322  0.2431  1.3998  2.7778
33900SOL    HW219311   6.016   0.829   4.298  0.2391 -0.7405  3.0165
33901SOL     OW19312   3.158   6.430   3.765 -0.1396  0.4781  0.6727
33901SOL    HW119313   3.115   6.448   3.849  0.0543  2.2112  0.4275
33901SOL    HW219314   3.141   6.507   3.712  1.3645  0.2292 -0.2248
33902SOL     OW19315   2.659  11.558  10.329  0.4153  0.1697 -0.7186
33902SOL    HW119316   2.596  11.503  10.282  0.7393  0.3181 -1.3399
33902SOL    HW219317   2.606  11.604  10.395 -0.0914  0.1342 -1.0932
33903SOL     OW19318   7.860  10.652   0.572  0.7351  0.3137  0.2603
33903SOL    HW119319   7.796  10.721   0.560  1.4755  0.8731 -0.5920
33903SOL    HW219320   7.848  10.623   0.663  0.6275  1.7799  0.7373
33904SOL     OW19321   0.078   6.460   0.751 -0.6577  0.2587 -0.3856
33904SOL    HW119322   0.076   6.412   0.668  0.1592  0.4666 -0.5343
33904SOL    HW219323   0.092   6.392   0.817  0.8450  0.3111 -0.6282
33905SOL     OW19324   6.992   1.936  13.093  0.4119  0.1454  0.5802
33905SOL    HW119325   7.045   2.013  13.070  2.5577 -1.3574  0.2698
33905SOL    HW219326   7.022   1.867  13.034 -1.4063 -1.0055  0.9088
33906SOL     OW19327   4.926  13.760  13.736  0.6215 -0.2716 -0.2830
33906SOL    HW119328   5.005  13.706  13.744  1.2470  0.8921  2.6049
33906SOL    HW219329   4.883  13.752  13.821 -2.5275 -0.9263 -1.7712
33907SOL     OW19330   0.589   9.686  13.628  0.1816 -0.4509  0.5284
33907SOL    HW119331   0.507   9.695  13.676 -0.5228 -0.7249 -0.5764
33907SOL    HW219332   0.639   9.765  13.650 -0.2346 -0.4441  1.4723
33908SOL     OW19333   1.254  10.781   7.671  0.3216  0.1015  0.0363
33908SOL    HW119334   1.312  10.737   7.608 -1.6522 -0.7118 -1.3141
33908SOL    HW219335   1.221  10.710   7.726  0.2229  0.4781  0.4672
33909SOL     OW19336   2.539  12.380   7.496  0.0977  0.1114  0.2177
33909SOL    HW119337   2.538  12.419   7.409 -0.1398 -1.5526 -0.5791
33909SOL    HW219338   2.451  12.396   7.531  0.1881  0.7701  0.1534
33910SOL     OW19339   3.974   7.187   0.566 -0.1924 -0.2082 -0.1811
33910SOL    HW119340   4.044   7.159   0.626 -0.7458 -0.6529  0.2744
33910SOL    HW219341   4.016   7.248   0.507  0.0800  1.3871  1.5618
33911SOL     OW19342  10.776   4.262   5.040  0.8239  0.0898 -0.0508
33911SOL    HW119343  10.836   4.265   5.115  0.7251  1.5867  0.0125
33911SOL    HW219344  10.703   4.319   5.067  0.0896 -0.5290 -0.7096
33912SOL     OW19345  13.493   8.805   0.843 -0.0383 -0.2596  0.1012
33912SOL    HW119346  13.487   8.828   0.936  1.4311 -2.7808  0.9267
33912SOL    HW219347  13.584   8.779   0.831  0.0536  0.9510 -2.3457
33913SOL     OW19348  12.345   2.652   2.622 -0.1074 -0.0478  0.4511
33913SOL    HW119349  12.414   2.601   2.664  0.4052  1.7523  1.9768
33913SOL    HW219350  12.306   2.702   2.694 -1.0628  1.1433 -0.8399
33914SOL     OW19351   4.099  13.463   5.777 -0.4385  0.7159  0.4523
33914SOL    HW119352   4.160  13.420   5.837 -0.4705  1.3196  0.9276
33914SOL    HW219353   4.020  13.408   5.780  0.3110 -0.5133 -0.7617
33915SOL     OW19354  10.572  10.005   0.103  0.0852 -0.1341  0.3040
33915SOL    HW119355  10.498  10.000   0.042  0.6985 -0.9984 -0.3874
33915SOL    HW219356  10.532  10.024   0.188 -0.8155  0.7439 -0.2922
33916SOL     OW19357  13.159   8.452  12.312  0.0881  0.1675 -0.6810
33916SOL    HW119358  13.213   8.530  12.315 -0.5622  0.6140  1.6104
33916SOL    HW219359  13.214   8.383  12.347 -0.4591  0.4118  0.7192
33917SOL     OW19360   3.456   7.667  12.627  0.0268  0.3079 -0.0623
33917SOL    HW119361   3.533   7.626  12.590  0.9244  2.3501 -0.6131
33917SOL    HW219362   3.486   7.754  12.653 -1.8321  0.7524  0.7411
33918SOL     OW19363   8.063   8.468   5.430  0.1090 -0.5641  0.1420
33918SOL    HW119364   8.028   8.512   5.353  1.2880 -0.6307 -0.4511
33918SOL    HW219365   8.091   8.540   5.488 -0.9954 -0.5105  0.6360
33919SOL     OW19366   2.515   3.881   8.831  0.6928  0.1879 -0.3109
33919SOL    HW119367   2.539   3.916   8.745  0.6358 -0.4443 -0.5846
33919SOL    HW219368   2.571   3.804   8.842 -1.3574 -1.5108 -1.0846
33920SOL     OW19369  10.359   6.036   0.753  0.4173  0.3014 -0.2762
33920SOL    HW119370  10.388   5.958   0.705 -2.6116 -2.1604  1.4471
33920SOL    HW219371  10.416   6.039   0.830  2.3196  1.5302 -1.6651
33921SOL     OW19372   2.181   1.073  10.791  0.1658  0.0694  0.1381
33921SOL    HW119373   2.276   1.084  10.797  0.2051  0.4694 -0.9769
33921SOL    HW219374   2.166   0.982  10.817  0.7871  0.1644  0.8675
33922SOL     OW19375   1.379   2.378   3.368  0.2467  0.3493  0.1059
33922SOL    HW119376   1.458   2.349   3.323  0.1869  0.4565 -0.0683
33922SOL    HW219377   1.399   2.369   3.461  0.4150  0.2469  0.0590
33923SOL     OW19378   4.955   0.391  13.794 -0.2972 -0.0160 -0.0213
33923SOL    HW119379   4.902   0.383  13.874  0.5365  0.2454  0.5657
33923SOL    HW219380   5.015   0.317  13.797  1.1440  1.1367  0.6805
33924SOL     OW19381  13.573  10.236  14.081  0.9993  1.0311  0.2334
33924SOL    HW119382  13.500  10.177  14.064  2.5188 -1.3344  1.4148
33924SOL    HW219383  13.540  10.323  14.056 -1.1779 -0.3244 -1.9882
33925SOL     OW19384   7.618   9.080  10.196 -0.3887  0.2110  0.6312
33925SOL    HW119385   7.625   9.160  10.145 -1.9570  0.2175  0.3709
33925SOL    HW219386   7.669   9.016  10.146 -0.5945  0.6109 -0.1078
33926SOL     OW19387   2.150  12.270  13.565 -0.4550 -0.3934  0.1292
33926SOL    HW119388   2.104  12.288  13.483 -0.6470 -0.7765  0.1480
33926SOL    HW219389   2.104  12.194  13.601 -0.2366 -0.3550  0.4864
33927SOL     OW19390   6.813   8.252   9.656 -0.1877  0.4153 -0.3449
33927SOL    HW119391   6.774   8.249   9.569 -2.0002  0.2145  0.4175
33927SOL    HW219392   6.875   8.324   9.653  0.3326 -0.0676 -2.0062
33928SOL     OW19393   4.329   0.595  12.132  0.0885  0.2038 -0.1189
33928SOL    HW119394   4.365   0.564  12.215 -2.0297 -0.9625  0.4478
33928SOL    HW219395   4.298   0.683  12.150  3.4970  1.7524 -0.9451
33929SOL     OW19396   4.197   9.623  11.379  0.2705  0.4547 -0.0311
33929SOL    HW119397   4.276   9.645  11.330  0.9162 -0.9019  0.3419
33929SOL    HW219398   4.166   9.706  11.414  2.0642  0.9189  0.5577
33930SOL     OW19399   5.265  10.678   4.705  0.5113  0.6057 -0.1181
33930SOL    HW119400   5.333  10.744   4.708  0.0929  1.0563 -0.3494
33930SOL    HW219401   5.194  10.713   4.758  1.6473 -1.2905  2.9118
33931SOL     OW19402   2.450   3.668   3.740  0.0865 -0.7077 -0.1924
33931SOL    HW119403   2.487   3.581   3.754 -0.7332 -1.0999 -0.4618
33931SOL    HW219404   2.484   3.694   3.654 -1.1603 -1.5567 -0.9782
33932SOL     OW19405  13.219  10.769   0.663 -0.0704 -0.0681  0.4666
33932SOL    HW119406  13.276  10.705   0.621  0.2475  0.1688  0.5391
33932SOL    HW219407  13.211  10.840   0.599  0.9967  0.6246  1.0886
33933SOL     OW19408   3.581  13.458  12.959  0.1669 -0.2846 -0.2206
33933SOL    HW119409   3.630  13.467  12.878 -0.3167 -1.8232 -0.7357
33933SOL    HW219410   3.606  13.372  12.993 -1.6481 -0.8466 -0.1756
33934SOL     OW19411   4.257  10.721  14.040 -0.0213 -0.6953 -1.0089
33934SOL    HW119412   4.166  10.694  14.034  0.2008 -2.4337  1.8440
33934SOL    HW219413   4.254  10.804  14.088 -0.0684 -1.2737  0.0063
33935SOL     OW19414   3.353  10.675  13.907 -0.1088  0.0438 -1.3258
33935SOL    HW119415   3.355  10.581  13.924  0.4823  0.4249  1.1675
33935SOL    HW219416   3.260  10.696  13.896 -0.4172 -0.5918 -0.0925
33936SOL     OW19417   2.555   2.334  13.841 -1.1745 -0.5926  0.2558
33936SOL    HW119418   2.463   2.360  13.847 -1.3486 -1.2495  0.6300
33936SOL    HW219419   2.556   2.243  13.872 -0.2900 -0.3591  0.9805
33937SOL     OW19420   1.134   3.658  11.221 -0.5938 -0.0434  0.0319
33937SOL    HW119421   1.209   3.683  11.275 -0.2690 -1.4881  0.2875
33937SOL    HW219422   1.073   3.732  11.228  1.0909  1.4771 -0.7667
33938SOL     OW19423  12.348   0.015  11.285  0.9725 -0.2524  0.1090
33938SOL    HW119424  12.334   0.007  11.379  2.6033 -1.0454  0.3147
33938SOL    HW219425  12.287  -0.049  11.246  2.0443 -1.7622  0.8056
33939SOL     OW19426   3.176  12.706   6.121 -0.2808 -0.1567 -0.4438
33939SOL    HW119427   3.103  12.650   6.094  0.7518 -1.5214 -0.5244
33939SOL    HW219428   3.178  12.697   6.217 -0.3084  0.0051 -0.4276
33940SOL     OW19429   1.415   7.109   0.163  0.6764 -0.2754 -0.0594
33940SOL    HW119430   1.397   7.046   0.093  0.7569  0.0460 -0.3679
33940SOL    HW219431   1.337   7.105   0.219 -0.6731  1.5461 -1.7013
33941SOL     OW19432   7.877  12.724   7.085  0.3399  0.2226 -0.4280
33941SOL    HW119433   7.927  12.689   7.159 -0.6343  2.1002  1.2213
33941SOL    HW219434   7.940  12.779   7.038  0.9513 -0.9308 -0.9968
33942SOL     OW19435   7.557  10.317   2.282 -0.2909  0.3683  0.3295
33942SOL    HW119436   7.504  10.261   2.338  3.1266 -1.0316  2.5062
33942SOL    HW219437   7.529  10.406   2.304 -1.7372 -0.2828  1.3008
33943SOL     OW19438   8.601  11.781  10.318 -0.2063  0.4477  0.1441
33943SOL    HW119439   8.696  11.777  10.313 -0.0591 -2.0617  2.4644
33943SOL    HW219440   8.581  11.873  10.335  1.5533  1.4464 -2.5153
33944SOL     OW19441   4.899  13.845   7.788  0.1063 -0.5683  0.3383
33944SOL    HW119442   4.940  13.886   7.712  2.8891 -0.9080  1.5436
33944SOL    HW219443   4.887  13.916   7.850  0.3278 -0.7480  0.5868
33945SOL     OW19444   3.371   8.796   0.158 -0.1178  0.0495  0.1816
33945SOL    HW119445   3.356   8.714   0.205  1.5147  0.2019  1.0731
33945SOL    HW219446   3.380   8.861   0.228  0.2806  0.6623 -0.4369
33946SOL     OW19447   8.369   4.910   3.238 -0.2488  0.8347  0.0406
33946SOL    HW119448   8.422   4.949   3.308 -1.2276  1.3210  0.5290
33946SOL    HW219449   8.353   4.981   3.176  1.4594  0.1705 -1.2497
33947SOL     OW19450   9.049   6.772  10.288 -0.3292  0.0693 -0.0366
33947SOL    HW119451   9.017   6.811  10.207 -1.1502 -1.1884 -0.3436
33947SOL    HW219452   9.142   6.755  10.272 -0.4438  0.0088 -0.6544
33948SOL     OW19453  12.505   5.530  13.567  0.0244 -0.0718 -0.1907
33948SOL    HW119454  12.429   5.588  13.568 -1.7604 -2.2656  0.4593
33948SOL    HW219455  12.566   5.569  13.629 -1.5407  0.5658  1.0103
33949SOL     OW19456  12.777   3.867   3.718  0.7302  0.1901  0.0409
33949SOL    HW119457  12.761   3.775   3.737  1.5245 -0.0355 -0.3198
33949SOL    HW219458  12.872   3.872   3.703  1.0029  1.3615  1.7688
33950SOL     OW19459   4.295   1.848   2.601 -0.0779  0.2951 -0.9143
33950SOL    HW119460   4.316   1.909   2.531 -0.4200 -0.7158 -1.9354
33950SOL    HW219461   4.202   1.863   2.619 -0.7007 -1.2077 -2.5490
33951SOL     OW19462   9.800   5.779  13.554 -0.0101  0.9973 -0.4359
33951SOL    HW119463   9.873   5.759  13.495  0.0493 -0.9916  0.2462
33951SOL    HW219464   9.731   5.812  13.496  1.4971  3.3639 -1.0522
33952SOL     OW19465  13.259   7.943   2.345  0.0532  0.3408  0.2724
33952SOL    HW119466  13.200   7.976   2.277  0.1038 -1.0497 -0.4683
33952SOL    HW219467  13.313   7.877   2.301  0.0498 -0.6263  1.6592
33953SOL     OW19468   6.809   2.647   3.351 -0.2618  0.4976  0.4223
33953SOL    HW119469   6.857   2.676   3.429  0.2011  1.3980 -0.1703
33953SOL    HW219470   6.785   2.728   3.306  0.5836 -0.0170 -1.0263
33954SOL     OW19471  13.060   4.474   6.039 -0.6823  0.3891  0.8578
33954SOL    HW119472  13.078   4.565   6.014 -0.2920  0.6213  1.9314
33954SOL    HW219473  13.139   4.426   6.012 -1.0320  0.2860 -0.0325
33955SOL     OW19474   4.259   9.992   4.657 -0.1809 -0.2264 -0.1824
33955SOL    HW119475   4.297   9.920   4.707  1.1318 -0.5017 -1.4906
33955SOL    HW219476   4.187   9.953   4.609  0.2181 -0.5674 -0.5091
33956SOL     OW19477   1.320  12.128   1.213 -0.1572 -0.4389 -0.6629
33956SOL    HW119478   1.332  12.091   1.125 -2.0283 -0.1136 -1.1109
33956SOL    HW219479   1.408  12.129   1.251  0.8250  0.0118 -2.7771
33957SOL     OW19480   9.610   8.966   0.202 -0.2145 -0.2135 -0.3573
33957SOL    HW119481   9.597   8.979   0.108 -0.7353 -1.4703 -0.4747
33957SOL    HW219482   9.549   9.027   0.244  0.2973  0.6323 -0.8080
33958SOL     OW19483  11.554   0.767   4.172  0.1157  0.4309 -0.2900
33958SOL    HW119484  11.462   0.759   4.197 -0.2795  1.5177 -1.2811
33958SOL    HW219485  11.601   0.776   4.255 -0.7471  0.4540  0.2083
33959SOL     OW19486  11.938  12.587   7.683 -0.6273  0.0520  0.3058
33959SOL    HW119487  11.900  12.502   7.661 -1.4773  0.0067  1.8437
33959SOL    HW219488  12.014  12.566   7.737 -2.2443  0.2489  2.8157
33960SOL     OW19489  11.896  13.561   8.892 -0.0297  0.0604 -0.5639
33960SOL    HW119490  11.984  13.577   8.926 -0.4402 -1.4993  1.4367
33960SOL    HW219491  11.879  13.469   8.912 -2.9608  0.8722  1.3253
33961SOL     OW19492   2.838  10.201   9.743 -0.4203 -0.0407 -0.5275
33961SOL    HW119493   2.798  10.286   9.722 -2.0336 -1.4011 -3.5962
33961SOL    HW219494   2.930  10.211   9.717 -0.3216  1.0314  0.1472
33962SOL     OW19495  13.945   6.741  13.615 -0.3379 -0.4865 -0.0716
33962SOL    HW119496  13.987   6.680  13.554 -0.6954  1.9261 -2.9921
33962SOL    HW219497  13.851   6.726  13.603 -0.4340  0.6570 -0.9532
33963SOL     OW19498   7.780  11.756  13.420  0.4193 -0.7920 -0.1575
33963SOL    HW119499   7.816  11.777  13.505 -0.4354 -0.2386  0.0821
33963SOL    HW219500   7.692  11.724  13.439 -0.8365  1.8874 -0.9632
33964SOL     OW19501  11.743  10.215   4.362  0.4201  0.4786 -0.1031
33964SOL    HW119502  11.741  10.253   4.273 -0.2296 -0.5388 -0.5373
33964SOL    HW219503  11.795  10.277   4.413  2.3174  0.2400 -1.6009
33965SOL     OW19504   1.850   0.650   1.477 -0.5582 -0.1257 -0.1380
33965SOL    HW119505   1.762   0.660   1.512 -0.3596 -1.1303  0.6962
33965SOL    HW219506   1.838   0.606   1.393 -0.8690  0.0287 -0.1748
33966SOL     OW19507   4.251  11.503   3.701 -0.3596 -0.5990  0.5764
33966SOL    HW119508   4.301  11.571   3.745 -1.8333  0.8197  0.1476
33966SOL    HW219509   4.257  11.524   3.608 -2.9157  0.5492  0.5823
33967SOL     OW19510  13.626  12.670   3.316  0.0403 -0.0267 -0.1031
33967SOL    HW119511  13.712  12.632   3.337  0.3590  0.1674 -1.0055
33967SOL    HW219512  13.593  12.616   3.245 -0.1463  0.5066 -0.4247
33968SOL     OW19513   8.202   9.306   0.845 -0.1915  0.3125  0.6035
33968SOL    HW119514   8.197   9.389   0.797  1.7143 -0.1755 -0.5730
33968SOL    HW219515   8.241   9.329   0.929  0.8516  0.5692  0.0695
33969SOL     OW19516   6.803  11.193  11.342  0.2254  0.5394  0.6480
33969SOL    HW119517   6.746  11.257  11.385  0.2719  0.6331  0.5714
33969SOL    HW219518   6.746  11.118  11.323 -0.0178  0.8820 -0.0032
33970SOL     OW19519   5.738   9.736   1.738 -0.1967  0.2005  0.4838
33970SOL    HW119520   5.717   9.722   1.830  1.2400 -1.3506  0.6127
33970SOL    HW219521   5.812   9.796   1.739 -1.1152  1.3832  0.2408
33971SOL     OW19522   8.285   6.122   2.561  0.7036 -0.0750 -0.2005
33971SOL    HW119523   8.301   6.028   2.568  1.4599 -0.0802 -1.5161
33971SOL    HW219524   8.330   6.160   2.637  1.5233 -0.6775 -0.3711
33972SOL     OW19525   2.525  12.641   9.118  0.4430 -0.2059 -0.2560
33972SOL    HW119526   2.587  12.695   9.168 -0.5701 -0.2610  1.1225
33972SOL    HW219527   2.540  12.552   9.151 -2.0797  0.0910  2.0952
33973SOL     OW19528   7.415  10.902   2.323  0.1491  0.0122 -0.2584
33973SOL    HW119529   7.454  10.980   2.362 -0.2393  1.1163 -1.9907
33973SOL    HW219530   7.460  10.892   2.239 -1.5505 -0.1156 -1.2036
33974SOL     OW19531   6.511   1.911  11.847 -0.4578 -0.5932  0.3973
33974SOL    HW119532   6.586   1.941  11.796  1.0730  1.6301  3.6752
33974SOL    HW219533   6.530   1.819  11.866  0.3244 -0.6580 -0.6177
33975SOL     OW19534  12.441  12.728   6.170 -0.5968 -0.0135 -0.4366
33975SOL    HW119535  12.531  12.759   6.160 -1.1620  1.1305 -2.8213
33975SOL    HW219536  12.439  12.646   6.121 -0.4381 -1.0749  1.2542
33976SOL     OW19537  12.700  13.384  10.013 -0.3169  0.2139 -0.3633
33976SOL    HW119538  12.744  13.460   9.976 -0.6812  1.1267  0.9885
33976SOL    HW219539  12.736  13.310   9.965  1.7499  1.0335 -0.2049
33977SOL     OW19540   3.397  10.958   1.827  0.4461  0.0859  0.1426
33977SOL    HW119541   3.454  11.005   1.765 -0.8327  1.5984  0.0565
33977SOL    HW219542   3.421  10.993   1.913  0.6566 -0.3573  0.2665
33978SOL     OW19543   8.183   4.241   5.205  0.1485  0.3282  0.0180
33978SOL    HW119544   8.130   4.281   5.275  0.9687  0.5456  0.5274
33978SOL    HW219545   8.171   4.147   5.218 -2.7449  0.2991 -1.9089
33979SOL     OW19546  10.580   8.139   5.456 -0.3783  0.1669  0.0826
33979SOL    HW119547  10.558   8.225   5.418 -0.1892  0.1885  0.0235
33979SOL    HW219548  10.649   8.105   5.399 -0.4628 -0.0307  0.1002
33980SOL     OW19549  13.104   4.868  12.573 -0.0811 -0.0838 -0.0646
33980SOL    HW119550  13.164   4.794  12.586  0.9824  0.7588 -0.0611
33980SOL    HW219551  13.102   4.882  12.479 -0.8718 -0.5793 -0.1298
33981SOL     OW19552   2.223  10.251  12.814 -0.2525  0.2018  0.8032
33981SOL    HW119553   2.191  10.340  12.832 -0.7281 -0.0232  1.0763
33981SOL    HW219554   2.282  10.232  12.887  2.7708  1.6785 -1.0647
33982SOL     OW19555   8.868  12.842  10.218 -0.2431 -0.1266  0.1099
33982SOL    HW119556   8.784  12.814  10.253  0.9409 -0.7433  2.6672
33982SOL    HW219557   8.852  12.930  10.185 -2.4159 -1.1293 -1.7752
33983SOL     OW19558   9.920   4.490   1.598 -0.1904 -0.0039 -0.6454
33983SOL    HW119559   9.996   4.540   1.629 -0.4342  0.2622 -0.4636
33983SOL    HW219560   9.848   4.521   1.653  0.1564 -2.5704  1.4178
33984SOL     OW19561   2.130   8.832   8.602  0.4033 -0.3643 -0.2117
33984SOL    HW119562   2.074   8.907   8.620  2.7512  0.8763  2.7162
33984SOL    HW219563   2.187   8.862   8.532 -0.9477 -0.7988 -1.5576
33985SOL     OW19564  12.394   2.246   6.421  0.1923  0.1557  0.2747
33985SOL    HW119565  12.368   2.333   6.452 -0.3963 -0.3420  1.2132
33985SOL    HW219566  12.456   2.215   6.487 -0.4098 -0.5611  0.5225
33986SOL     OW19567  13.472   1.626  10.175 -0.2824  0.2442 -0.1040
33986SOL    HW119568  13.419   1.549  10.192 -0.3178  0.4260  0.6774
33986SOL    HW219569  13.482   1.629  10.080  0.7786 -1.4309 -0.0831
33987SOL     OW19570  13.344   6.473   7.694 -0.4547  0.5066 -0.0250
33987SOL    HW119571  13.322   6.483   7.786  2.6912 -0.4358  0.9491
33987SOL    HW219572  13.260   6.461   7.650 -1.9925  0.1148  2.8243
33988SOL     OW19573  10.267  12.265  11.870 -0.3866 -0.2527  0.0824
33988SOL    HW119574  10.357  12.272  11.903 -0.1084 -0.5711 -0.5840
33988SOL    HW219575  10.218  12.224  11.942  0.4333 -1.9446 -0.2699
33989SOL     OW19576  11.355  11.792   6.073 -0.3814 -0.7327 -0.2736
33989SOL    HW119577  11.439  11.790   6.118 -1.1048 -0.5680  1.1357
33989SOL    HW219578  11.367  11.735   5.997  0.3473 -2.5083  1.1058
33990SOL     OW19579   4.412  13.566   0.208  0.4194  0.3313  0.3635
33990SOL    HW119580   4.452  13.607   0.285  1.9374 -0.1677 -0.1303
33990SOL    HW219581   4.404  13.474   0.231  1.8738 -0.0161 -0.4490
33991SOL     OW19582   1.242   5.618   4.115  0.2009  0.0456 -0.3832
33991SOL    HW119583   1.307   5.583   4.055 -0.1039 -1.0780 -0.0788
33991SOL    HW219584   1.163   5.566   4.099 -0.0144  0.0148  0.6728
33992SOL     OW19585   1.778  13.829   3.786  0.0163  0.0528 -0.2473
33992SOL    HW119586   1.856  13.775   3.778 -0.0461 -0.2829  1.1174
33992SOL    HW219587   1.803  13.899   3.846 -0.5490  0.2973 -0.2853
33993SOL     OW19588   0.057   0.565   9.279 -0.0689  0.7586  0.3483
33993SOL    HW119589   0.104   0.496   9.326 -0.1465  1.0225  0.8224
33993SOL    HW219590   0.075   0.548   9.187  1.7207  1.3942  0.5460
33994SOL     OW19591  12.168   2.352  13.235 -0.1562 -0.3522 -0.2425
33994SOL    HW119592  12.159   2.446  13.252 -0.8819 -0.2203 -1.2380
33994SOL    HW219593  12.154   2.344  13.140  1.2557 -1.3062 -0.3893
33995SOL     OW19594   2.958   6.399   7.613 -0.0721 -0.4205 -0.3306
33995SOL    HW119595   3.051   6.410   7.632 -0.3588  3.3048 -0.3444
33995SOL    HW219596   2.939   6.310   7.640  3.1574 -0.8284  1.1196
33996SOL     OW19597   9.643   5.661   5.574  0.1094 -0.1978 -0.3483
33996SOL    HW119598   9.718   5.603   5.586  1.3515  1.6860  1.6561
33996SOL    HW219599   9.636   5.673   5.480  0.1119 -3.1327 -0.8089
33997SOL     OW19600   9.433   0.570   0.870 -0.0567 -0.0927  0.1332
33997SOL    HW119601   9.489   0.642   0.899 -1.3085 -0.0513  2.7909
33997SOL    HW219602   9.356   0.575   0.927 -2.0472 -1.1199 -2.2767
33998SOL     OW19603   7.712   2.882  11.106 -0.2565 -0.5205 -0.8034
33998SOL    HW119604   7.713   2.793  11.143 -0.4942  0.0240  0.5901
33998SOL    HW219605   7.650   2.929  11.162  0.7616  0.8346 -0.7878
33999SOL     OW19606   1.098   0.308   2.763 -0.4089 -0.5675  0.5586
33999SOL    HW119607   1.065   0.267   2.843 -0.4289  0.1689  0.9380
33999SOL    HW219608   1.026   0.365   2.734 -0.6755 -1.3491 -0.3811
34000SOL     OW19609   0.338   1.539  10.776  0.3995 -0.1424  0.1974
34000SOL    HW119610   0.354   1.605  10.844 -1.0043  0.3116  0.1035
34000SOL    HW219611   0.253   1.502  10.797  1.6351 -2.8239  0.9440
34001SOL     OW19612   7.953  13.733   9.377 -0.2549 -0.0325 -0.1269
34001SOL    HW119613   8.025  13.671   9.366  1.5149  1.2094  3.2686
34001SOL    HW219614   7.877  13.678   9.399  0.9342 -1.1289  1.4321
34002SOL     OW19615  13.137  10.680   9.930 -0.2670  0.4017  0.7031
34002SOL    HW119616  13.119  10.678  10.024  0.3404  0.6158  0.8300
34002SOL    HW219617  13.078  10.614   9.893  0.4692 -0.6956  1.4135
34003SOL     OW19618   5.672   6.941  12.790  0.1249 -1.0752 -0.5019
34003SOL    HW119619   5.629   6.859  12.817 -0.0039 -0.8712 -0.0830
34003SOL    HW219620   5.750   6.912  12.741  0.1483 -1.4509 -0.2483
34004SOL     OW19621  14.048   8.290   8.521  0.1838 -0.0032  0.1916
34004SOL    HW119622  14.083   8.205   8.495 -0.6208 -0.4301  0.4476
34004SOL    HW219623  14.037   8.283   8.616 -0.6904  0.0674  0.1027
34005SOL     OW19624   0.898   2.544   2.878  0.3502 -0.3319  0.4460
34005SOL    HW119625   0.834   2.491   2.925 -0.1189 -1.0854 -0.9843
34005SOL    HW219626   0.981   2.529   2.924  0.1770 -2.1461  0.2471
34006SOL     OW19627   0.394   9.268  10.385  0.0705  0.1062 -0.6894
34006SOL    HW119628   0.334   9.340  10.405  0.3305 -0.2092  1.4105
34006SOL    HW219629   0.350   9.190  10.416  0.8295 -0.3337 -0.6856
34007SOL     OW19630  12.287  11.051   5.158  0.5624 -0.2719  0.3946
34007SOL    HW119631  12.200  11.070   5.125  0.5580 -0.8086  0.1007
34007SOL    HW219632  12.300  11.115   5.228 -0.6100 -1.0583  1.3720
34008SOL     OW19633   1.927   0.071   3.575 -0.0411  0.1416 -0.5971
34008SOL    HW119634   1.975   0.147   3.607 -0.9137  2.1233 -3.5307
34008SOL    HW219635   1.848   0.068   3.629  1.2088 -0.3988  1.2999
34009SOL     OW19636   7.126   5.835   5.349 -0.8268  0.0634  0.6507
34009SOL    HW119637   7.060   5.789   5.297  1.2037 -0.8457 -1.2565
34009SOL    HW219638   7.158   5.770   5.411 -0.9453  0.1883  0.8449
34010SOL     OW19639  12.574   5.513   7.091  0.1155  0.4123 -0.8219
34010SOL    HW119640  12.617   5.585   7.136  0.4122  0.8739 -1.8156
34010SOL    HW219641  12.521   5.470   7.159  0.6449  1.0014 -0.0215
34011SOL     OW19642  11.867   6.181   1.105  0.2344 -0.1826  0.0559
34011SOL    HW119643  11.910   6.103   1.139  0.2495 -0.0797  0.2761
34011SOL    HW219644  11.818   6.216   1.179  1.9751  1.2597  0.6178
34012SOL     OW19645   0.411   3.402   3.931  0.2755  0.4344  0.5457
34012SOL    HW119646   0.428   3.490   3.964  0.7153 -0.2708  2.3474
34012SOL    HW219647   0.345   3.366   3.991  0.1495 -0.4847 -0.1162
34013SOL     OW19648   5.259   1.968  11.729 -0.1047 -0.1657 -0.2271
34013SOL    HW119649   5.200   2.043  11.739  0.4366  0.3520 -0.8502
34013SOL    HW219650   5.243   1.937  11.640 -0.4681 -0.9282  0.0938
34014SOL     OW19651   6.757   6.971   5.233  0.5319 -0.4424  0.0897
34014SOL    HW119652   6.671   7.006   5.211  0.4535 -0.1992  0.7715
34014SOL    HW219653   6.814   7.048   5.234  0.9426 -0.6957 -1.1652
34015SOL     OW19654   0.052  12.973  13.482  1.2703 -0.1210 -0.0949
34015SOL    HW119655   0.067  12.982  13.576 -3.4202 -0.7935  0.9376
34015SOL    HW219656   0.056  13.062  13.449 -1.9400  0.8936  1.8329
34016SOL     OW19657   2.207   6.655   5.825  0.0588 -0.3682 -0.6371
34016SOL    HW119658   2.125   6.703   5.831  0.7682  0.6829  1.2275
34016SOL    HW219659   2.252   6.694   5.750 -0.4932  0.1008 -0.7315
34017SOL     OW19660   0.895   8.329   2.742 -0.6063 -0.0918  0.0620
34017SOL    HW119661   0.985   8.354   2.764 -0.4611  1.0139 -1.6450
34017SOL    HW219662   0.876   8.257   2.802  1.5709 -0.6599  0.1790
34018SOL     OW19663   2.158   5.500   6.961  0.4870 -0.1729 -0.1289
34018SOL    HW119664   2.244   5.521   6.925 -0.1609  0.7713 -1.2125
34018SOL    HW219665   2.096   5.542   6.901 -0.7082 -0.1365  1.0783
34019SOL     OW19666   1.752   7.175   7.752 -0.5639  0.3508  0.4635
34019SOL    HW119667   1.820   7.236   7.782 -1.0616  0.9535  0.3731
34019SOL    HW219668   1.793   7.089   7.760  0.0180  0.6617  0.9479
34020SOL     OW19669   0.396   5.204  12.934  0.5783  0.1693  0.6175
34020SOL    HW119670   0.371   5.271  12.998 -2.1935 -0.1541  0.0051
34020SOL    HW219671   0.409   5.125  12.986  2.0166  0.7133  1.1336
34021SOL     OW19672   2.885   9.670  12.049  0.4727  0.5526 -0.3339
34021SOL    HW119673   2.926   9.721  11.979  0.9487  1.3762  0.5249
34021SOL    HW219674   2.954   9.660  12.114 -0.1069  0.2000  0.2284
34022SOL     OW19675   2.087   4.899  11.687  0.6769 -0.4086 -0.8599
34022SOL    HW119676   2.183   4.899  11.679  0.6670 -0.8107 -0.9958
34022SOL    HW219677   2.066   4.810  11.715  0.5479  0.3227  1.6507
34023SOL     OW19678   8.917   0.263  12.326 -0.0719  0.0146 -0.3615
34023SOL    HW119679   8.940   0.282  12.235 -3.2142 -0.2843 -1.3391
34023SOL    HW219680   8.832   0.220  12.321 -1.2050  1.5784  2.8475
34024SOL     OW19681  10.752   2.558   6.592 -0.3270 -0.2612 -0.5699
34024SOL    HW119682  10.759   2.477   6.540 -0.2001 -0.9563  0.4978
34024SOL    HW219683  10.843   2.578   6.616 -0.5611 -1.3655  1.4555
34025SOL     OW19684   5.904   2.232   9.995  0.2951  0.3437  0.2311
34025SOL    HW119685   5.869   2.288  10.064  0.9797 -1.2297  1.9205
34025SOL    HW219686   5.997   2.252   9.992 -0.0387  1.8776 -1.7241
34026SOL     OW19687   1.044  11.421   0.122  0.6710  0.3494  0.2072
34026SOL    HW119688   1.023  11.376   0.041  1.5370 -0.9695  0.6738
34026SOL    HW219689   1.137  11.442   0.115  0.7212  0.3573  0.7904
34027SOL     OW19690   4.447   0.396   1.005 -0.6286 -0.1614 -0.3474
34027SOL    HW119691   4.469   0.385   1.098  0.5066  1.3935 -0.3871
34027SOL    HW219692   4.386   0.469   1.003 -0.7752 -0.2946 -0.8106
34028SOL     OW19693   4.799  12.089   0.402 -0.3343 -0.1467 -0.5275
34028SOL    HW119694   4.810  12.173   0.445 -2.0990  0.0725 -0.4299
34028SOL    HW219695   4.887  12.067   0.369  0.6394  0.6207  1.4072
34029SOL     OW19696   4.155   0.384   8.047  0.3271  0.3694  0.4965
34029SOL    HW119697   4.143   0.417   7.958 -0.0271 -0.6300  0.1677
34029SOL    HW219698   4.068   0.385   8.085  0.5510  1.2911  1.0287
34030SOL     OW19699   4.259   1.336   4.723 -0.3942 -0.3579  0.0216
34030SOL    HW119700   4.207   1.264   4.689 -1.0520 -0.7126  1.6702
34030SOL    HW219701   4.348   1.302   4.728  0.2672  0.4571 -3.4329
34031SOL     OW19702   1.244   3.729   4.642  0.1960 -0.5808 -0.0077
34031SOL    HW119703   1.188   3.796   4.681 -0.6496 -1.6591  0.7011
34031SOL    HW219704   1.255   3.758   4.551 -1.0585 -0.0408 -0.0121
34032SOL     OW19705   3.305   6.146   6.652  0.5678  0.0252  0.4200
34032SOL    HW119706   3.335   6.218   6.708  0.4924 -0.3491  0.9495
34032SOL    HW219707   3.268   6.189   6.576  0.6331  0.5465  0.6785
34033SOL     OW19708   9.757   5.813  11.049 -0.0048  0.8506 -0.1309
34033SOL    HW119709   9.852   5.818  11.062 -0.0163  0.6320  0.0423
34033SOL    HW219710   9.735   5.721  11.065 -0.4383  1.1548  1.1299
34034SOL     OW19711   5.789  12.432   3.442 -0.5349 -0.1398 -0.2524
34034SOL    HW119712   5.805  12.431   3.537 -0.6165  1.4808 -0.1906
34034SOL    HW219713   5.797  12.340   3.415 -2.6172 -0.9778  1.6630
34035SOL     OW19714  12.325   9.004   4.400 -0.2566  0.1437 -0.3042
34035SOL    HW119715  12.384   9.077   4.385 -1.5340  1.3424  0.3369
34035SOL    HW219716  12.379   8.926   4.383  1.7389  1.1399  0.9867
34036SOL     OW19717   6.424   5.420  12.957  0.0416 -0.5426 -0.0180
34036SOL    HW119718   6.359   5.378  12.900 -0.3243  0.1844 -0.1422
34036SOL    HW219719   6.479   5.471  12.898 -0.0772 -0.1241  0.2308
34037SOL     OW19720   4.512  11.844  11.853 -0.1299 -0.8606 -0.2431
34037SOL    HW119721   4.507  11.934  11.821 -0.4784  0.1295  2.3534
34037SOL    HW219722   4.558  11.797  11.784 -2.8131  0.5077 -3.2290
34038SOL     OW19723   1.094   7.448   2.117 -0.1746 -0.3231  0.4267
34038SOL    HW119724   1.083   7.537   2.083 -0.9283 -0.1951  0.9944
34038SOL    HW219725   1.058   7.451   2.206 -1.1406 -1.4436  0.1035
34039SOL     OW19726   4.916   8.642   3.153  0.5897 -0.2021  0.2155
34039SOL    HW119727   4.870   8.695   3.088  0.2477 -2.0306 -1.1158
34039SOL    HW219728   4.888   8.678   3.238 -0.3660  1.0881 -0.6066
34040SOL     OW19729   8.129  10.120   7.472 -0.1521  0.3568  0.2322
34040SOL    HW119730   8.222  10.100   7.483  0.0374  0.6471 -0.7215
34040SOL    HW219731   8.092  10.113   7.560  0.7534  0.1479  0.6066
34041SOL     OW19732   1.402   8.160   6.308  0.0807  0.0301 -0.1102
34041SOL    HW119733   1.380   8.119   6.224 -1.6171  1.5068 -0.4532
34041SOL    HW219734   1.456   8.235   6.284  1.8082 -1.0079  0.3803
34042SOL     OW19735  11.930   3.604   3.844 -0.6561  0.1857  0.3695
34042SOL    HW119736  11.905   3.521   3.885  0.0997  0.1111  0.6919
34042SOL    HW219737  11.960   3.579   3.756 -1.9292  0.3063 -0.1271
34043SOL     OW19738   6.180   6.725  13.918  0.4176  0.5079 -0.2009
34043SOL    HW119739   6.122   6.733  13.842  0.9872 -0.1663 -0.7252
34043SOL    HW219740   6.252   6.786  13.900  1.2308 -0.6176 -0.8609
34044SOL     OW19741   9.048   6.033   4.206 -0.2609 -0.2307 -0.4408
34044SOL    HW119742   8.992   6.097   4.161 -0.5714 -0.0600  0.1802
34044SOL    HW219743   9.050   6.063   4.297  0.8623 -0.2249 -0.4521
34045SOL     OW19744  12.925  10.888   9.654  0.1994 -0.0246 -0.5000
34045SOL    HW119745  12.884  10.964   9.613  0.0455 -0.3227 -0.8972
34045SOL    HW219746  12.852  10.833   9.681  0.3298 -0.4398 -0.9873
34046SOL     OW19747   2.913   3.047   9.443  0.2686 -0.0015 -0.3221
34046SOL    HW119748   2.992   3.051   9.389  0.6529  0.7877  0.2930
34046SOL    HW219749   2.909   3.132   9.488  0.9222 -1.2544  2.2726
34047SOL     OW19750   3.750   4.330   8.350 -0.3869 -0.3512 -0.2368
34047SOL    HW119751   3.809   4.397   8.384 -0.4445 -0.1352 -0.5544
34047SOL    HW219752   3.722   4.282   8.427  0.4318 -0.6443 -0.1092
34048SOL     OW19753   2.570  13.995   7.303 -0.3787  0.0844  0.3681
34048SOL    HW119754   2.643  14.053   7.282 -0.6494  0.5530  0.6898
34048SOL    HW219755   2.500  14.054   7.331 -0.4989 -0.4165  1.1727
34049SOL     OW19756   3.834  11.897  12.699 -0.2208 -0.7940 -0.2529
34049SOL    HW119757   3.902  11.862  12.757  1.1992 -0.3497 -1.5997
34049SOL    HW219758   3.842  11.846  12.618 -1.2192 -0.4408 -0.5959
34050SOL     OW19759  11.416  11.781   5.561 -0.6424 -0.3042  0.5661
34050SOL    HW119760  11.358  11.810   5.631 -1.0235  1.0126 -0.2542
34050SOL    HW219761  11.453  11.699   5.593  2.3282  2.0880  4.0908
34051SOL     OW19762  13.203   4.125   4.021 -0.1657  0.5421 -0.3907
34051SOL    HW119763  13.247   4.067   3.959  1.7779  1.2904  0.2203
34051SOL    HW219764  13.182   4.069   4.096 -0.6584  0.0921 -0.8545
34052SOL     OW19765   2.691   7.166  13.697 -0.1038 -0.1878 -0.1650
34052SOL    HW119766   2.620   7.210  13.743  0.2517  1.0527 -0.7653
34052SOL    HW219767   2.678   7.188  13.605 -0.3874 -2.0447 -0.6001
34053SOL     OW19768   7.581   0.334   3.673 -0.1252  0.2958  0.7926
34053SOL    HW119769   7.579   0.255   3.618 -0.6000  0.7323  0.1718
34053SOL    HW219770   7.669   0.333   3.712  0.5571  0.4434 -0.6761
34054SOL     OW19771   2.008  11.573   7.161 -0.1157  0.6031 -0.2068
34054SOL    HW119772   2.034  11.634   7.093 -2.7783  0.5868 -1.3503
34054SOL    HW219773   2.046  11.489   7.135 -1.5379  0.4772 -2.0342
34055SOL     OW19774   6.313   4.699   3.864  0.0462 -0.5724 -0.0458
34055SOL    HW119775   6.376   4.649   3.915  0.1558 -1.2574 -0.8332
34055SOL    HW219776   6.255   4.633   3.826 -0.2571 -0.0522 -0.5031
34056SOL     OW19777  11.193  13.956   1.854  0.4887  0.7516 -0.4364
34056SOL    HW119778  11.235  14.001   1.781 -1.9737  0.5527 -2.0835
34056SOL    HW219779  11.106  13.933   1.822 -0.5220  0.1715  2.4063
34057SOL     OW19780   2.400   3.597   5.540  0.0545  0.0955 -0.3822
34057SOL    HW119781   2.453   3.553   5.474 -0.7888  0.0553 -1.0424
34057SOL    HW219782   2.445   3.579   5.623  1.6896  0.9902 -1.0269
34058SOL     OW19783   3.132   0.712   1.398  0.1589  0.0310  0.3045
34058SOL    HW119784   3.036   0.716   1.395  0.1502  1.8854  1.5071
34058SOL    HW219785   3.154   0.727   1.490  1.6037 -0.7734  0.1142
34059SOL     OW19786  10.088  12.814   0.134 -0.4030  0.3921  0.3332
34059SOL    HW119787  10.142  12.830   0.057 -1.2815  0.1209 -0.3488
34059SOL    HW219788  10.022  12.882   0.133 -1.2706 -0.4335  0.0565
34060SOL     OW19789  11.376  11.884   1.480  0.2893  0.1680 -0.3059
34060SOL    HW119790  11.459  11.873   1.526 -0.9636 -1.1423  1.8205
34060SOL    HW219791  11.375  11.814   1.416  0.9073  0.3073 -0.4728
34061SOL     OW19792   3.469  13.338   0.530 -0.1588  0.1608  0.4796
34061SOL    HW119793   3.380  13.320   0.500  0.0807 -0.7906  0.3156
34061SOL    HW219794   3.525  13.282   0.476  0.7546  2.2160 -0.8488
34062SOL     OW19795  10.868   7.009   7.073 -0.5085 -0.0396  0.1271
34062SOL    HW119796  10.783   7.023   7.031  0.2584 -0.4010 -1.6230
34062SOL    HW219797  10.921   7.084   7.045  0.3410 -0.8456 -0.4688
34063SOL     OW19798   4.434  12.387   2.253  0.0341  0.2841 -0.3749
34063SOL    HW119799   4.510  12.329   2.263  0.5729  1.2260  1.3768
34063SOL    HW219800   4.431  12.405   2.159  0.6393 -1.5098 -0.7808
34064SOL     OW19801   2.772   5.765  14.021  0.0959 -0.6961  0.3351
34064SOL    HW119802   2.793   5.687  13.968 -0.0964 -1.3561  1.2064
34064SOL    HW219803   2.857   5.801  14.046  0.1974 -1.3375  0.9391
34065SOL     OW19804  11.725   1.527   7.619  0.0052 -0.3005 -0.0418
34065SOL    HW119805  11.641   1.497   7.583 -0.2019  0.1789  0.0321
34065SOL    HW219806  11.742   1.468   7.692 -1.5561  1.1345  1.5953
34066SOL     OW19807   2.664   0.566   2.017  0.7515 -1.1069  0.3992
34066SOL    HW119808   2.598   0.498   2.006  0.3916 -0.6177 -0.5569
34066SOL    HW219809   2.717   0.562   1.937  0.2941  0.1813  0.0092
34067SOL     OW19810   6.853  10.635   3.833 -0.6765 -0.0166 -0.0656
34067SOL    HW119811   6.880  10.555   3.877  1.9987  0.7106 -0.2292
34067SOL    HW219812   6.846  10.611   3.741  1.2151  0.1291 -0.2799
34068SOL     OW19813   4.313  12.077   4.489 -0.2195  0.1669  0.5650
34068SOL    HW119814   4.244  12.011   4.480  1.0162 -0.8788 -3.2661
34068SOL    HW219815   4.383  12.032   4.536 -0.6970 -0.0738  1.0546
34069SOL     OW19816   0.202  10.245   1.731 -0.0698  0.6789 -0.1059
34069SOL    HW119817   0.253  10.320   1.763  1.5940 -0.3053 -0.3212
34069SOL    HW219818   0.161  10.208   1.809 -1.7556  2.3598 -0.1219
34070SOL     OW19819   5.907   6.702  12.891 -0.0136 -0.4436 -0.2710
34070SOL    HW119820   5.916   6.797  12.881 -0.9044 -0.4155 -0.9285
34070SOL    HW219821   5.996   6.671  12.909 -0.0568  0.7887  2.5677
34071SOL     OW19822   4.825  10.180   9.130 -0.4141  0.1824  0.4114
34071SOL    HW119823   4.915  10.191   9.099 -0.6389  0.8704 -0.0154
34071SOL    HW219824   4.800  10.267   9.161 -1.0715  0.0839  0.1607
34072SOL     OW19825   3.422   6.956   5.001 -0.4419 -0.1134 -0.6409
34072SOL    HW119826   3.450   6.925   5.087  0.1183 -1.0338 -1.1481
34072SOL    HW219827   3.497   7.006   4.968 -0.7020  0.3437 -0.5614
34073SOL     OW19828   9.918   6.674  13.450 -0.1089  0.6882 -0.2448
34073SOL    HW119829   9.927   6.608  13.519 -1.4722  1.9123  1.2107
34073SOL    HW219830   9.832   6.658  13.413 -0.2081  1.2719 -0.2775
34074SOL     OW19831  11.898  13.385   1.927  0.0983  0.2768  0.1401
34074SOL    HW119832  11.961  13.324   1.889  1.1983  0.9981  0.7269
34074SOL    HW219833  11.812  13.350   1.904  0.6958 -1.4177  0.3907
34075SOL     OW19834   5.632   6.651  10.306  0.1360  0.6212 -0.0752
34075SOL    HW119835   5.628   6.574  10.363  0.6322 -0.7529 -1.8056
34075SOL    HW219836   5.542   6.683  10.303 -0.0574  0.1706  0.7571
34076SOL     OW19837   9.580   9.877  13.221 -0.0874  0.0864 -0.5303
34076SOL    HW119838   9.675   9.870  13.223 -0.1342 -0.7965 -0.7837
34076SOL    HW219839   9.562   9.970  13.232  0.7655  0.1313  0.7051
34077SOL     OW19840  13.901   7.652   4.332 -0.6341  0.0179  0.9113
34077SOL    HW119841  13.816   7.642   4.290 -0.0017  2.2767 -1.1531
34077SOL    HW219842  13.881   7.666   4.425 -2.6340  1.8402  0.2770
34078SOL     OW19843   5.656   6.608  13.415  0.1909  0.4103  0.5656
34078SOL    HW119844   5.724   6.615  13.348  0.6623  0.5390  1.0536
34078SOL    HW219845   5.702   6.579  13.493 -0.5609 -1.0766  0.4964
34079SOL     OW19846   4.693   0.850  12.861 -0.3620 -0.3747 -0.4606
34079SOL    HW119847   4.630   0.868  12.931  0.8241  0.8373  0.3334
34079SOL    HW219848   4.694   0.754  12.855 -3.3250 -0.4300 -1.5198
34080SOL     OW19849   2.187   7.777  11.442 -0.6135 -0.9127  0.2232
34080SOL    HW119850   2.104   7.815  11.416 -0.6250 -0.6552  0.6289
34080SOL    HW219851   2.253   7.829  11.396 -0.6836 -1.3579 -0.4017
34081SOL     OW19852   5.270  10.455   6.655 -0.4004 -0.0277  0.1665
34081SOL    HW119853   5.310  10.524   6.708  0.8409 -0.9255  0.4488
34081SOL    HW219854   5.328  10.380   6.667 -0.1022 -0.2851 -2.4186
34082SOL     OW19855  11.629   7.931   7.477  0.1464 -0.4778 -0.2449
34082SOL    HW119856  11.556   7.870   7.475 -1.1332  0.9851 -1.3588
34082SOL    HW219857  11.615   7.987   7.400  1.8031  0.5787  0.1669
34083SOL     OW19858   6.861   6.094   6.070 -0.0510  0.2162  0.6296
34083SOL    HW119859   6.947   6.052   6.079 -0.4816 -0.7493  0.4185
34083SOL    HW219860   6.877   6.171   6.015  0.9301  0.8885  1.8032
34084SOL     OW19861  13.494   7.780   7.797  1.1446  0.3986 -0.1650
34084SOL    HW119862  13.535   7.699   7.827  1.6634  1.6608  2.9453
34084SOL    HW219863  13.404   7.755   7.776  1.7345 -1.2509 -0.8766
34085SOL     OW19864  11.919   9.052   1.191  0.3556  0.2686  0.1553
34085SOL    HW119865  12.009   9.027   1.214  0.4236  1.5562  1.3926
34085SOL    HW219866  11.928   9.140   1.153 -0.0423 -0.8260 -2.7350
34086SOL     OW19867   8.843   2.977   3.313 -0.2045 -0.4523  0.0732
34086SOL    HW119868   8.844   2.924   3.393 -0.1508 -1.1478 -0.3803
34086SOL    HW219869   8.756   2.963   3.276  0.6703 -2.4237 -1.4648
34087SOL     OW19870  11.979   8.175  13.270  0.9994 -0.2600  0.8882
34087SOL    HW119871  11.990   8.158  13.177  1.6027  0.4497  0.8169
34087SOL    HW219872  11.982   8.271  13.277 -2.0586 -0.0891  1.2633
34088SOL     OW19873   5.758   0.294   4.256 -0.5725  0.0187  0.0815
34088SOL    HW119874   5.680   0.323   4.303 -0.7433  1.0890 -0.8004
34088SOL    HW219875   5.761   0.350   4.178  1.4259  0.4636  0.4096
34089SOL     OW19876   6.213  11.674   8.353  0.3071  0.4626 -0.2124
34089SOL    HW119877   6.173  11.612   8.414 -0.7586  0.0090 -1.3093
34089SOL    HW219878   6.307  11.665   8.368  0.2381 -1.8837 -0.7050
34090SOL     OW19879  13.898  11.191  11.683  0.4918  0.4666 -0.2433
34090SOL    HW119880  13.834  11.219  11.617 -0.7054 -0.0953  0.6361
34090SOL    HW219881  13.981  11.226  11.652 -0.0101  0.1487 -2.1101
34091SOL     OW19882   4.035   7.307   2.424 -0.3792 -0.3047 -0.1672
34091SOL    HW119883   3.983   7.231   2.399 -0.5523 -0.3171  0.2107
34091SOL    HW219884   4.121   7.272   2.446  0.0214 -0.1944 -1.5039
34092SOL     OW19885   5.375  12.214   1.038  0.2031 -0.4259 -0.0823
34092SOL    HW119886   5.290  12.235   1.001  0.8574  1.0087 -0.8600
34092SOL    HW219887   5.358  12.193   1.130 -1.1455 -1.6222 -0.5681
34093SOL     OW19888   6.864   0.886   3.208  0.3987  0.0341  0.1741
34093SOL    HW119889   6.937   0.832   3.236  1.3583  1.3982  0.4008
34093SOL    HW219890   6.893   0.924   3.125  0.4698  1.5385  0.8571
34094SOL     OW19891  11.821  13.536  13.167 -0.5025  0.4743 -0.0054
34094SOL    HW119892  11.900  13.564  13.122 -0.3638 -1.3803 -0.9839
34094SOL    HW219893  11.751  13.586  13.124 -0.1552  0.1388 -0.9941
34095SOL     OW19894   4.900   2.355   3.476  0.3005  0.0755 -0.0915
34095SOL    HW119895   4.930   2.278   3.428  0.6164  0.6256 -0.7935
34095SOL    HW219896   4.808   2.365   3.452  0.3423  0.0925 -0.2451
34096SOL     OW19897  10.599   9.058   3.001 -0.7948  0.2024  0.4310
34096SOL    HW119898  10.565   9.075   3.089 -0.9859 -0.2790  0.4568
34096SOL    HW219899  10.523   9.070   2.944 -0.6643  0.5413  0.3305
34097SOL     OW19900   3.236   2.423   1.635 -0.5273 -0.3799  0.1117
34097SOL    HW119901   3.289   2.343   1.629 -0.7064 -0.6767  1.9483
34097SOL    HW219902   3.212   2.443   1.544  1.5392 -1.0291 -0.6169
34098SOL     OW19903   8.528   1.231   6.939 -0.3250  0.4677 -0.1470
34098SOL    HW119904   8.586   1.213   6.865  0.3572  0.8312  0.2982
34098SOL    HW219905   8.453   1.275   6.899 -0.6801 -0.7009 -0.8323
34099SOL     OW19906   7.060   3.370   8.172  0.1969 -0.0809 -0.0856
34099SOL    HW119907   7.020   3.401   8.253  0.4665 -0.6456  0.2708
34099SOL    HW219908   7.066   3.448   8.117 -0.4371  0.2106  0.2503
34100SOL     OW19909  10.235   3.511   9.474 -0.0055 -0.8095 -0.3447
34100SOL    HW119910  10.245   3.524   9.379  1.4875 -0.1187 -0.1220
34100SOL    HW219911  10.143   3.528   9.490 -0.5493 -2.1020 -1.8410
34101SOL     OW19912  11.749  10.757  12.916 -0.0519 -0.1433  0.2363
34101SOL    HW119913  11.713  10.679  12.874 -2.5070  1.7249 -1.4123
34101SOL    HW219914  11.783  10.810  12.844  1.4370  0.4128  1.3007
34102SOL     OW19915   0.038   3.319  10.622  0.4228  0.8148 -0.4938
34102SOL    HW119916  -0.045   3.271  10.625  1.0474 -0.3576 -1.0832
34102SOL    HW219917   0.049   3.354  10.710 -0.9816  1.5121 -0.5669
34103SOL     OW19918  13.369   9.248  12.361  0.0595  0.0097 -0.1208
34103SOL    HW119919  13.345   9.156  12.351  1.9161 -0.6340  0.9438
34103SOL    HW219920  13.314   9.280  12.433 -0.5398 -0.2626 -0.4462
34104SOL     OW19921  12.702   0.189  10.751  0.5348 -0.4133 -0.2952
34104SOL    HW119922  12.633   0.177  10.817  0.0940  1.5653 -0.3242
34104SOL    HW219923  12.734   0.101  10.734 -0.7640 -1.2019  1.0445
34105SOL     OW19924   1.956   7.987   1.402  0.0582 -0.2413 -0.5555
34105SOL    HW119925   1.898   7.927   1.356 -2.2766  0.6675  0.9966
34105SOL    HW219926   2.007   8.029   1.333 -1.8137 -0.4289 -2.1493
34106SOL     OW19927   5.342   0.903   2.183  0.5685 -0.2744  0.3024
34106SOL    HW119928   5.307   0.827   2.230  0.9251 -0.0658  0.9129
34106SOL    HW219929   5.431   0.877   2.159 -0.0222 -0.8699 -1.3972
34107SOL     OW19930  13.599   3.286   2.345 -0.3248  0.4476  0.4173
34107SOL    HW119931  13.579   3.371   2.384 -0.4683  0.2195  0.8438
34107SOL    HW219932  13.528   3.271   2.284 -0.4792  0.4800  0.5890
34108SOL     OW19933   1.952   4.114  13.952  0.0728 -0.1762 -0.1013
34108SOL    HW119934   2.038   4.146  13.924  1.1451 -1.9697  0.9263
34108SOL    HW219935   1.915   4.185  14.004 -0.2327  1.6220 -2.5812
34109SOL     OW19936  13.218   3.867   0.814  0.0336  0.0196 -0.0348
34109SOL    HW119937  13.225   3.946   0.761  3.1654  0.9144  1.5009
34109SOL    HW219938  13.216   3.796   0.750  1.9261  1.1421 -1.4711
34110SOL     OW19939   5.905   1.514  13.459  0.3957 -0.5933 -0.0587
34110SOL    HW119940   5.838   1.483  13.520  0.4833 -1.5485 -0.4272
34110SOL    HW219941   5.928   1.436  13.408 -0.2919  0.3523 -1.8934
34111SOL     OW19942  13.468  11.922   6.130 -0.6161 -0.4425  0.2003
34111SOL    HW119943  13.381  11.960   6.135 -0.6996 -0.7327  1.5026
34111SOL    HW219944  13.526  11.990   6.166 -0.1734  0.0838 -1.4554
34112SOL     OW19945   3.280  13.353   8.712  0.0039  0.1990 -0.2785
34112SOL    HW119946   3.239  13.393   8.635  1.2718  0.4478 -0.8483
34112SOL    HW219947   3.254  13.261   8.708  0.7507  0.0214 -1.4964
34113SOL     OW19948   4.527   3.909  10.426  0.4589  0.1258  0.6414
34113SOL    HW119949   4.548   3.816  10.439  0.3092 -0.0539 -0.3184
34113SOL    HW219950   4.601   3.943  10.376  1.7736  1.1611  3.1213
34114SOL     OW19951  13.329  10.962  10.893  0.0945  0.7063 -0.1364
34114SOL    HW119952  13.406  10.974  10.837 -0.3527  1.3353 -0.6225
34114SOL    HW219953  13.262  11.018  10.854 -0.1064  1.4900  1.2497
34115SOL     OW19954   9.159   9.269   0.126 -0.1171  0.2628 -0.0295
34115SOL    HW119955   9.176   9.223   0.208 -0.2513 -1.2978 -0.8586
34115SOL    HW219956   9.094   9.216   0.081 -0.9951  1.7744 -0.6091
34116SOL     OW19957   3.726  10.598  13.221  0.5688  0.2654 -0.2007
34116SOL    HW119958   3.684  10.675  13.182 -2.2470 -0.1599  1.6840
34116SOL    HW219959   3.729  10.616  13.315 -0.9183 -2.1286  0.4160
34117SOL     OW19960   5.400  11.359   5.131  0.5525  1.1072  0.3933
34117SOL    HW119961   5.342  11.289   5.101 -0.9904  2.0002  1.1443
34117SOL    HW219962   5.341  11.431   5.153  2.1076  2.7600 -0.5891
34118SOL     OW19963  13.323   3.516  10.147  0.0946 -0.1145 -0.3967
34118SOL    HW119964  13.362   3.528  10.061  0.0469 -1.2098 -0.5826
34118SOL    HW219965  13.238   3.559  10.141 -0.1628 -0.6939 -1.0971
34119SOL     OW19966   7.470   9.040   3.148 -0.3704  0.3644 -0.6479
34119SOL    HW119967   7.523   9.077   3.219  0.6028  0.5533 -1.4526
34119SOL    HW219968   7.444   9.115   3.096 -1.5261  0.2796 -0.2180
34120SOL     OW19969   1.795   5.932   8.969 -0.0922 -0.0245 -0.7987
34120SOL    HW119970   1.847   5.880   8.907  0.9292 -0.6741  0.5539
34120SOL    HW219971   1.859   5.967   9.030 -1.3121 -1.8079  1.6453
34121SOL     OW19972   1.702   5.913   2.899 -0.1811 -0.0607 -0.2168
34121SOL    HW119973   1.607   5.916   2.915 -0.2020  0.1941 -0.3813
34121SOL    HW219974   1.741   5.926   2.986 -0.2941 -1.5122  0.0650
34122SOL     OW19975   3.561   1.087   4.377  0.4476 -0.2776 -0.8924
34122SOL    HW119976   3.480   1.087   4.325  0.2391  2.2997 -0.7054
34122SOL    HW219977   3.596   1.176   4.366  0.5741  0.3286  2.9912
34123SOL     OW19978  12.068   8.880   9.280 -0.0217 -0.0828 -0.3889
34123SOL    HW119979  12.043   8.810   9.220  0.3477 -1.2856  0.8100
34123SOL    HW219980  12.097   8.835   9.359 -4.0297  1.4163  2.2601
34124SOL     OW19981  13.946  12.456   8.029 -0.0963  0.2350 -0.0419
34124SOL    HW119982  13.994  12.502   7.959 -0.6506  0.8530 -0.0295
34124SOL    HW219983  13.857  12.449   7.995 -0.2094 -0.0723  0.3230
34125SOL     OW19984   4.984   4.802   4.575 -0.8412  0.6804  0.4002
34125SOL    HW119985   4.975   4.799   4.670 -0.0431  2.3976  0.5704
34125SOL    HW219986   5.068   4.846   4.560 -0.0733 -1.1393 -1.1109
34126SOL     OW19987   1.837  12.018   8.356  0.0710 -0.2597  0.0809
34126SOL    HW119988   1.771  11.951   8.371  0.0273 -0.0124  1.0767
34126SOL    HW219989   1.910  11.992   8.413  0.8134 -0.4937 -0.9524
34127SOL     OW19990  12.858   1.034   2.480 -0.0309 -0.4309  0.1266
34127SOL    HW119991  12.796   1.048   2.408 -1.9704  0.1678  1.8256
34127SOL    HW219992  12.881   0.941   2.474 -2.9008 -1.2737  0.7614
34128SOL     OW19993  10.019  11.222   3.445 -0.1774 -0.4232  0.5714
34128SOL    HW119994  10.062  11.199   3.527  1.2487 -0.1209 -0.0421
34128SOL    HW219995  10.030  11.144   3.390  1.8836  0.4771 -0.4332
34129SOL     OW19996   6.538   4.298  13.255 -0.4750  0.1270 -0.6079
34129SOL    HW119997   6.593   4.343  13.319 -0.1975 -0.0776 -0.7011
34129SOL    HW219998   6.572   4.324  13.170  0.1538 -0.8264 -0.6550
34130SOL     OW19999  11.555  13.511   2.623  0.2527  1.0372  1.1990
34130SOL    HW120000  11.650  13.523   2.622  0.1340  2.1040 -0.0475
34130SOL    HW220001  11.535  13.462   2.543 -0.1972  0.3852  1.7037
34131SOL     OW20002   7.094   4.826   3.540  0.6221 -0.1422 -0.0062
34131SOL    HW120003   7.121   4.797   3.627 -1.9522 -0.0220  0.9117
34131SOL    HW220004   7.045   4.907   3.555 -0.0390 -0.2152 -1.5202
34132SOL     OW20005  13.720  10.354  12.283  0.3472 -0.0053 -0.1233
34132SOL    HW120006  13.744  10.261  12.281 -0.5369 -0.2419 -0.8068
34132SOL    HW220007  13.766  10.392  12.208 -2.0802 -0.6835 -2.1172
34133SOL     OW20008   2.331   8.362   7.698  0.3957 -0.3611 -0.1876
34133SOL    HW120009   2.272   8.432   7.727 -1.8814 -1.6214 -1.4529
34133SOL    HW220010   2.276   8.284   7.698  1.3934 -1.2111 -3.6428
34134SOL     OW20011   1.860  13.272  10.772 -0.2484  0.1812 -0.0941
34134SOL    HW120012   1.820  13.228  10.847  0.7009  0.5434  0.6419
34134SOL    HW220013   1.866  13.364  10.798 -0.8509  0.4930 -1.0281
34135SOL     OW20014   4.198   1.225   4.325 -0.5834 -0.0200  0.0163
34135SOL    HW120015   4.162   1.180   4.402 -0.8179 -1.3140 -0.8125
34135SOL    HW220016   4.288   1.244   4.349 -1.0253  0.8249  1.1092
34136SOL     OW20017   0.390   5.446   3.212  0.1531 -0.1632 -0.7663
34136SOL    HW120018   0.449   5.424   3.284  2.1161 -1.2039 -2.5763
34136SOL    HW220019   0.420   5.533   3.183 -0.4998  0.1638 -0.4871
34137SOL     OW20020   3.119   4.029   3.268  0.2687  0.4208 -0.2498
34137SOL    HW120021   3.079   4.049   3.183  0.0404  0.9713 -0.0136
34137SOL    HW220022   3.213   4.026   3.251  0.1357 -1.7675 -1.0089
34138SOL     OW20023   9.369  11.259   2.896 -0.2352  0.2466  0.5240
34138SOL    HW120024   9.313  11.218   2.962 -1.6649 -1.6374 -1.6948
34138SOL    HW220025   9.439  11.195   2.881  1.5550  1.7639  1.9071
34139SOL     OW20026  11.897   4.205  10.657  0.2925 -0.1750 -0.2472
34139SOL    HW120027  11.849   4.194  10.575 -0.1561 -1.3311  0.1573
34139SOL    HW220028  11.840   4.260  10.710  0.3743  0.1900 -0.5318
34140SOL     OW20029   7.348  11.718  13.268  0.1332  0.1781 -0.4033
34140SOL    HW120030   7.276  11.727  13.330  1.8104  1.7619  1.4951
34140SOL    HW220031   7.411  11.661  13.313 -0.6831 -2.9318 -2.8837
34141SOL     OW20032   1.217   4.809  10.950  0.1439  0.4395 -0.0809
34141SOL    HW120033   1.166   4.810  11.030  0.3900  0.4236  0.0764
34141SOL    HW220034   1.298   4.856  10.972  0.1184  0.6291 -0.3793
34142SOL     OW20035   6.113   0.878   5.155 -0.2896 -0.8480 -0.7064
34142SOL    HW120036   6.183   0.844   5.211  0.0094  0.1009 -0.4757
34142SOL    HW220037   6.158   0.911   5.077 -0.5006 -0.3934 -0.6384
34143SOL     OW20038  10.474  11.148   2.690 -0.0459  0.1706 -0.6577
34143SOL    HW120039  10.380  11.151   2.711  0.2821  1.0781  0.7737
34143SOL    HW220040  10.497  11.239   2.669  0.5088 -0.0690 -1.1300
34144SOL     OW20041   2.656   2.699   4.349  0.1605  0.3563  0.3649
34144SOL    HW120042   2.596   2.767   4.319  1.2825  1.4700  0.5618
34144SOL    HW220043   2.615   2.664   4.428 -0.9149  0.0896 -0.2926
34145SOL     OW20044  11.445   1.139   9.824 -0.3837  0.5704 -0.1041
34145SOL    HW120045  11.361   1.185   9.830 -0.3049  0.7483 -0.3478
34145SOL    HW220046  11.508   1.208   9.800  0.2105  0.8665  2.0718
34146SOL     OW20047   3.222  10.506   0.687  0.8405 -0.3642 -0.2375
34146SOL    HW120048   3.133  10.506   0.652  0.9521  1.7958 -0.6700
34146SOL    HW220049   3.214  10.547   0.773  1.2697 -1.1355  0.1759
34147SOL     OW20050   5.511   7.969  13.293  0.3993  0.5140  0.0200
34147SOL    HW120051   5.584   8.027  13.314 -0.0725  0.2656  2.8342
34147SOL    HW220052   5.465   7.958  13.377 -1.8110 -0.7784 -1.2729
34148SOL     OW20053   7.837   3.807  12.147 -0.0907  0.4468  0.3169
34148SOL    HW120054   7.742   3.800  12.136 -0.0081 -2.6572  0.6571
34148SOL    HW220055   7.849   3.827  12.240 -0.3515  3.8755 -0.2557
34149SOL     OW20056   8.667   9.795   4.530  0.1137  0.1147 -0.6249
34149SOL    HW120057   8.638   9.754   4.449 -0.6448 -0.1715 -0.2152
34149SOL    HW220058   8.613   9.756   4.598  1.0874 -0.0221  0.0911
34150SOL     OW20059   5.789   9.392   0.710  0.7003 -0.3076 -0.0580
34150SOL    HW120060   5.790   9.323   0.775  0.8274 -0.5464 -0.3108
34150SOL    HW220061   5.736   9.461   0.749 -0.4210 -1.0151 -0.2955
34151SOL     OW20062   8.356  12.424   7.218 -0.3172 -0.4223 -0.2474
34151SOL    HW120063   8.274  12.404   7.263 -0.3635  0.3420  0.0090
34151SOL    HW220064   8.330  12.439   7.127 -0.4776 -0.0911 -0.1482
34152SOL     OW20065  12.293   2.032   6.338 -0.4118  0.6007  0.2135
34152SOL    HW120066  12.331   2.110   6.380 -1.2979 -0.3933  3.1396
34152SOL    HW220067  12.366   1.970   6.332 -0.3428  0.6340  0.6679
34153SOL     OW20068   9.025   8.072  13.196 -0.0391 -0.4512  0.2527
34153SOL    HW120069   9.002   8.157  13.159  0.2299 -1.2592 -1.8733
34153SOL    HW220070   9.112   8.086  13.234  0.0969  0.1734 -0.2753
34154SOL     OW20071   3.709   4.955   3.568  0.3256 -0.0409 -0.0902
34154SOL    HW120072   3.658   4.875   3.582  1.6979 -0.7902  0.7939
34154SOL    HW220073   3.798   4.925   3.553  0.9686  1.3345  0.7298
34155SOL     OW20074   1.218   1.194   8.568  0.0181 -0.0521 -0.2369
34155SOL    HW120075   1.199   1.140   8.645 -0.0994 -0.8661 -0.8214
34155SOL    HW220076   1.197   1.137   8.493 -0.0473  0.7861 -0.8715
34156SOL     OW20077  10.685   0.353   4.664 -0.2652 -0.0875 -0.0083
34156SOL    HW120078  10.642   0.370   4.748  0.7047 -0.8829  0.6845
34156SOL    HW220079  10.739   0.275   4.681 -1.8593 -1.7181 -2.0430
34157SOL     OW20080   2.303   1.735  12.048 -0.7005 -0.0559 -0.2218
34157SOL    HW120081   2.237   1.709  11.983 -1.1664  1.6195 -0.4821
34157SOL    HW220082   2.273   1.694  12.129 -1.0639 -0.7860 -0.7105
34158SOL     OW20083   6.975   3.228   0.340 -0.3689 -0.0442 -0.1877
34158SOL    HW120084   6.912   3.236   0.412 -1.3031  3.2321 -1.1804
34158SOL    HW220085   7.059   3.252   0.379 -0.5351 -0.0431  0.1795
34159SOL     OW20086   8.678  11.806   1.158  0.5515 -0.2873  0.3179
34159SOL    HW120087   8.755  11.844   1.198 -0.5044  1.8418  0.4591
34159SOL    HW220088   8.627  11.772   1.232  0.4122  0.1589  0.4315
34160SOL     OW20089   3.844   7.412   7.165  0.2705  0.4815  0.3990
34160SOL    HW120090   3.809   7.470   7.098 -1.0811 -0.8881 -0.1299
34160SOL    HW220091   3.904   7.354   7.118 -1.9068 -1.5538 -0.0271
34161SOL     OW20092   2.055  11.162   4.173  0.4465 -0.5953 -0.2310
34161SOL    HW120093   2.101  11.238   4.207  2.8037 -1.0958 -2.0303
34161SOL    HW220094   2.053  11.100   4.246  1.3096  0.0165  0.3258
34162SOL     OW20095   2.124   2.918   9.618 -0.3771  0.3223 -0.4638
34162SOL    HW120096   2.133   2.958   9.705 -1.6046 -1.0878  0.3549
34162SOL    HW220097   2.206   2.940   9.573 -0.5288  2.7585  0.3086
34163SOL     OW20098   9.934  12.147   6.593 -0.0860 -0.2485 -0.2760
34163SOL    HW120099   9.945  12.131   6.687 -0.5632  0.5126 -0.0843
34163SOL    HW220100  10.000  12.213   6.573 -0.8932  0.6002 -0.1824
34164SOL     OW20101  10.031   9.395   4.377 -0.3761 -0.0896  0.2421
34164SOL    HW120102  10.015   9.479   4.420 -1.3437 -0.9018  1.5852
34164SOL    HW220103   9.979   9.399   4.297 -0.8090  0.4096  0.5379
34165SOL     OW20104   6.435   9.403  13.164 -0.3895  0.1587  0.0573
34165SOL    HW120105   6.476   9.340  13.224  1.4979 -0.4359 -1.7551
34165SOL    HW220106   6.399   9.470  13.222  0.4199 -0.9104  1.9058
34166SOL     OW20107  10.549   5.831  10.560 -0.1493 -0.5960  0.0301
34166SOL    HW120108  10.632   5.838  10.606 -0.3250 -0.7650  0.3824
34166SOL    HW220109  10.567   5.860  10.471 -0.1728  1.3340  0.6119
34167SOL     OW20110   5.009   5.563   7.934 -0.0155  0.0692 -0.0925
34167SOL    HW120111   5.102   5.550   7.951 -0.2022  0.5942  1.5085
34167SOL    HW220112   4.965   5.522   8.009 -1.2335 -2.4166 -2.0147
34168SOL     OW20113   1.845  12.691   5.325  0.1566 -0.0445 -0.4375
34168SOL    HW120114   1.792  12.612   5.315 -1.6807  1.2144 -1.2614
34168SOL    HW220115   1.879  12.687   5.414 -0.4111 -1.4554 -0.2686
34169SOL     OW20116   5.134  11.385   5.463  0.1991 -0.2552  0.1996
34169SOL    HW120117   5.218  11.340   5.467  0.5054  0.3313  0.6439
34169SOL    HW220118   5.116  11.396   5.370  0.1680 -1.1825  0.0860
34170SOL     OW20119   3.059   0.236  12.752 -0.1024  0.0416 -0.2418
34170SOL    HW120120   3.036   0.154  12.795 -1.5518  1.5003  1.9895
34170SOL    HW220121   3.024   0.227  12.663 -0.7437 -1.5181  0.1353
34171SOL     OW20122  11.935   5.933   9.241 -0.2032  0.1964 -0.1981
34171SOL    HW120123  11.889   5.851   9.221 -0.4642  0.4231 -0.5489
34171SOL    HW220124  12.028   5.909   9.240 -0.2944 -0.1792  0.1053
34172SOL     OW20125   6.403   0.404   5.416 -0.0484 -0.1054  0.1953
34172SOL    HW120126   6.443   0.401   5.503  1.3584 -2.5759 -0.4233
34172SOL    HW220127   6.312   0.427   5.433  0.7339  1.9964  2.0397
34173SOL     OW20128  13.672   2.676   7.885 -0.2607 -0.1286  0.0248
34173SOL    HW120129  13.752   2.627   7.869  0.2821  0.5738  0.5155
34173SOL    HW220130  13.694   2.737   7.956 -1.0648  0.4490 -0.1989
34174SOL     OW20131  14.051   9.982   5.129  0.5626 -0.0590 -0.4673
34174SOL    HW120132  14.037  10.074   5.108  0.4696 -0.2591 -1.3052
34174SOL    HW220133  14.078   9.942   5.047  1.9137 -0.5343  0.1747
34175SOL     OW20134   8.420  10.795  11.996 -0.2663  0.2446 -0.1537
34175SOL    HW120135   8.328  10.772  12.006 -0.2035  0.3603  0.7908
34175SOL    HW220136   8.459  10.777  12.082  0.8275 -0.8416 -0.8351
34176SOL     OW20137   1.675   6.484   1.673  0.6093  0.1140  0.1482
34176SOL    HW120138   1.766   6.458   1.690  0.9363  1.4844  0.6507
34176SOL    HW220139   1.683   6.557   1.612 -0.2076 -0.2051 -0.3467
34177SOL     OW20140  13.633   8.267   9.355  0.4040  0.7499 -0.0207
34177SOL    HW120141  13.635   8.200   9.423 -1.3334  0.7706  0.0945
34177SOL    HW220142  13.573   8.334   9.389 -1.3379  0.2849 -1.9694
34178SOL     OW20143   9.391   8.179  13.881  0.0000  0.6472  0.2967
34178SOL    HW120144   9.354   8.188  13.969  0.7358  1.4851  0.5368
34178SOL    HW220145   9.403   8.085  13.870 -0.5046  0.5043  0.9284
34179SOL     OW20146  13.786   7.582   6.530 -0.6623 -0.4295 -0.4639
34179SOL    HW120147  13.841   7.553   6.457 -0.8696 -2.4456  0.1179
34179SOL    HW220148  13.844   7.580   6.606 -0.6797  0.7975 -0.3922
34180SOL     OW20149   7.745   1.706   9.740  0.0565 -0.0802 -0.2604
34180SOL    HW120150   7.781   1.664   9.662 -0.6172  0.9325 -1.1509
34180SOL    HW220151   7.650   1.696   9.731 -0.0066 -1.1749  1.1616
34181SOL     OW20152  10.520   8.904   2.428 -0.2722  0.3075  0.0930
34181SOL    HW120153  10.518   8.808   2.426 -0.2345  0.2721  1.2435
34181SOL    HW220154  10.489   8.926   2.515 -0.7918  1.3683 -0.3494
34182SOL     OW20155   5.595  11.202   6.530  0.7527  0.1367 -0.4501
34182SOL    HW120156   5.610  11.196   6.625 -2.2942  2.7038  0.3763
34182SOL    HW220157   5.541  11.280   6.520 -0.8524 -1.2510 -4.1060
34183SOL     OW20158   5.448   9.525   8.976 -0.6778  0.2451  0.7331
34183SOL    HW120159   5.418   9.531   9.066 -1.2300  2.2352  0.4692
34183SOL    HW220160   5.368   9.517   8.924 -0.3613 -0.9492  0.3980
34184SOL     OW20161   8.606  11.580  11.191  0.4081 -0.1550  0.3547
34184SOL    HW120162   8.598  11.487  11.167 -0.7428 -0.1229  0.5411
34184SOL    HW220163   8.533  11.622  11.147  1.2221  0.7618 -0.1317
34185SOL     OW20164  11.730  10.960   4.094  0.9251 -0.2755 -0.3960
34185SOL    HW120165  11.715  11.049   4.063 -1.3534 -0.6338 -0.4981
34185SOL    HW220166  11.751  10.910   4.015 -1.3261 -0.4813 -0.9216
34186SOL     OW20167   0.661  10.617   1.451 -0.5905 -0.3451 -0.0132
34186SOL    HW120168   0.668  10.577   1.365 -0.3649 -0.0649 -0.1230
34186SOL    HW220169   0.590  10.681   1.443  0.8900  1.2873 -0.6142
34187SOL     OW20170   0.395   8.459   4.623  0.1038  0.2393  0.2612
34187SOL    HW120171   0.330   8.518   4.586  0.3048  0.2286 -0.1113
34187SOL    HW220172   0.362   8.371   4.603 -0.4911  0.2100  1.3218
34188SOL     OW20173  12.356   7.876  13.713  0.6434 -0.2548 -0.0118
34188SOL    HW120174  12.341   7.792  13.756 -1.9766 -0.2118 -0.7066
34188SOL    HW220175  12.346   7.858  13.620  0.6968  0.7052 -0.2157
34189SOL     OW20176   0.501  13.026   9.515  0.1548  0.4876  0.3221
34189SOL    HW120177   0.432  13.081   9.551  0.4126  2.1994 -1.6181
34189SOL    HW220178   0.501  13.046   9.421  3.5480  0.8817  0.2870
34190SOL     OW20179   0.759   6.771   1.078 -0.5521  0.3886 -0.6543
34190SOL    HW120180   0.812   6.851   1.072 -0.6856  0.5776  0.5187
34190SOL    HW220181   0.701   6.786   1.152  1.0177 -1.6995  1.1227
34191SOL     OW20182  14.031  12.355  13.227 -0.0778  0.0072  0.5917
34191SOL    HW120183  13.979  12.308  13.292 -0.2840  0.9485  1.1221
34191SOL    HW220184  14.038  12.444  13.261  1.0391  0.1494  0.0336
34192SOL     OW20185  10.895   2.483   0.953 -0.4571  0.5851 -0.1324
34192SOL    HW120186  10.802   2.464   0.967 -0.4169  1.0978  0.9759
34192SOL    HW220187  10.936   2.398   0.947 -0.9843  0.3504 -0.5419
34193SOL     OW20188   3.844   9.220   7.244  0.3779  0.8437 -0.1537
34193SOL    HW120189   3.830   9.314   7.252 -2.8949  0.6166 -1.4093
34193SOL    HW220190   3.796   9.182   7.318  3.6096  0.1084  1.7579
34194SOL     OW20191  12.263   2.079   5.030  0.0463  0.0151  0.1380
34194SOL    HW120192  12.344   2.067   5.079 -1.2670 -1.4881  2.0810
34194SOL    HW220193  12.234   1.991   5.009 -1.0217  0.5349 -0.6654
34195SOL     OW20194   9.313  13.850   4.405  0.2667  0.5072 -0.2025
34195SOL    HW120195   9.351  13.811   4.483 -1.1897  1.7638  1.2012
34195SOL    HW220196   9.385  13.851   4.341  1.2002 -1.4898  0.7306
34196SOL     OW20197   4.234   3.156   5.412  0.0029  0.3601  0.0982
34196SOL    HW120198   4.212   3.108   5.331 -0.5250  0.7169  0.0237
34196SOL    HW220199   4.162   3.135   5.472  0.3246  0.2036  0.4344
34197SOL     OW20200   2.330   8.754  13.884 -0.3437 -0.4316  0.5663
34197SOL    HW120201   2.404   8.739  13.944  0.5235 -0.3225 -0.4420
34197SOL    HW220202   2.265   8.689  13.909  0.0357 -0.4362  1.5745
34198SOL     OW20203   1.489   1.004   4.383 -0.0828  0.6574  0.0403
34198SOL    HW120204   1.471   0.931   4.324 -2.0043  0.9440  0.2008
34198SOL    HW220205   1.512   1.077   4.325 -1.3027  0.7551 -0.3462
34199SOL     OW20206  10.679   3.975  11.976  0.1883  0.3827  0.5673
34199SOL    HW120207  10.772   3.957  11.989  0.0695 -3.1147 -1.8468
34199SOL    HW220208  10.635   3.905  12.023 -1.1568  1.1310  0.4627
34200SOL     OW20209   9.812  13.264  12.783 -0.3140 -0.2862  0.5078
34200SOL    HW120210   9.733  13.303  12.746 -0.5738 -0.3638  0.9687
34200SOL    HW220211   9.780  13.203  12.850  0.1384 -0.2984  0.7216
34201SOL     OW20212   4.250   4.407   1.305  0.0504 -0.2102  0.0290
34201SOL    HW120213   4.319   4.358   1.350 -0.7594 -0.3525  1.1711
34201SOL    HW220214   4.237   4.485   1.360  1.2164  1.2754 -1.6706
34202SOL     OW20215   3.982   1.635   2.058  0.3672  0.5593 -0.2098
34202SOL    HW120216   3.986   1.600   2.147  1.2485 -1.5066 -0.9902
34202SOL    HW220217   4.073   1.653   2.035  0.4217 -1.0114 -1.4113
34203SOL     OW20218  10.384   3.591  10.428 -0.1529 -0.4440  0.6996
34203SOL    HW120219  10.390   3.673  10.477  0.3802  0.4373 -0.7670
34203SOL    HW220220  10.365   3.618  10.338 -1.1504 -2.0039  0.3921
34204SOL     OW20221   9.349   9.668   7.869  0.3564 -0.1286 -0.2318
34204SOL    HW120222   9.298   9.710   7.938 -1.6974 -0.1959 -1.6139
34204SOL    HW220223   9.381   9.587   7.908  0.0675  0.2980  0.9151
34205SOL     OW20224   0.088  10.565   4.339  0.4307  0.4228  0.0687
34205SOL    HW120225   0.019  10.500   4.355  0.2315  0.4414 -0.6731
34205SOL    HW220226   0.168  10.524   4.372  0.1227  0.2697  0.6452
34206SOL     OW20227   4.066  12.252   2.847 -0.4143 -0.2742 -0.1295
34206SOL    HW120228   3.972  12.240   2.833 -0.4146  0.4125 -0.8397
34206SOL    HW220229   4.097  12.289   2.764  0.0570  1.7089  0.8847
34207SOL     OW20230  11.743   8.179   3.966  0.6052 -0.1221  0.1287
34207SOL    HW120231  11.802   8.173   3.891  1.1259 -0.7540  0.5883
34207SOL    HW220232  11.670   8.233   3.934  2.0595  1.8912 -0.0285
34208SOL     OW20233  12.197   0.611   3.798 -0.5481  0.0867  0.6986
34208SOL    HW120234  12.260   0.568   3.740 -1.9550 -1.6691  0.3863
34208SOL    HW220235  12.167   0.687   3.748  2.3523  1.9275  1.4593
34209SOL     OW20236   4.290  13.017   9.415 -0.2022 -0.2130  0.2996
34209SOL    HW120237   4.233  12.944   9.440 -0.2546 -0.5317 -0.7021
34209SOL    HW220238   4.352  13.025   9.487 -0.7110 -0.7091  0.8020
34210SOL     OW20239  11.857   3.666   9.631  0.0214  0.0879  0.5157
34210SOL    HW120240  11.936   3.681   9.579 -0.9398 -0.8549 -1.3195
34210SOL    HW220241  11.803   3.744   9.616 -0.1230 -0.0422  0.3569
34211SOL     OW20242   4.790   2.560   8.433  0.1948  0.0357 -0.3956
34211SOL    HW120243   4.750   2.481   8.471  0.0648  0.0451 -0.5115
34211SOL    HW220244   4.836   2.601   8.507  2.1338 -1.2980 -0.8084
34212SOL     OW20245   7.173   4.115   0.757 -0.3245 -0.3722 -0.8451
34212SOL    HW120246   7.167   4.075   0.670 -0.8759  1.0365 -1.4903
34212SOL    HW220247   7.262   4.150   0.761 -0.2520 -0.5662 -0.8000
34213SOL     OW20248   9.434   6.054   5.326  0.6453 -0.3660  0.4597
34213SOL    HW120249   9.382   6.122   5.283  2.8117  0.3797 -1.1680
34213SOL    HW220250   9.478   6.100   5.398  1.6475 -0.1236 -0.2776
34214SOL     OW20251   3.386   9.568   1.317 -0.3766 -0.1594 -0.4382
34214SOL    HW120252   3.364   9.496   1.376 -0.2326  0.3742  0.2963
34214SOL    HW220253   3.305   9.587   1.270 -0.7742  0.0235  0.2882
34215SOL     OW20254  12.861   3.593   6.660  0.3776  0.3985 -0.0241
34215SOL    HW120255  12.837   3.659   6.594  0.8286 -0.7630 -1.4114
34215SOL    HW220256  12.938   3.629   6.703  1.9733 -0.1103 -2.2789
34216SOL     OW20257   6.678   1.757   4.801 -0.1195  0.4341  0.1319
34216SOL    HW120258   6.727   1.787   4.724  0.8272  1.2419  1.0191
34216SOL    HW220259   6.586   1.763   4.775  0.1838  0.7759 -0.9051
34217SOL     OW20260   9.030   0.070   0.140 -0.2939  0.4588 -0.0277
34217SOL    HW120261   8.985   0.106   0.064  0.4590  1.1027 -0.1801
34217SOL    HW220262   9.081   0.143   0.174  0.3127 -0.1481  0.3850
34218SOL     OW20263   6.843   4.595   2.572 -0.2848 -0.0087 -0.8190
34218SOL    HW120264   6.839   4.540   2.493  1.4155  2.2094 -2.6072
34218SOL    HW220265   6.759   4.642   2.572 -0.7259 -0.7753 -0.6776
34219SOL     OW20266   1.367  13.423   8.802  0.5145  0.1697 -0.3234
34219SOL    HW120267   1.395  13.333   8.815 -0.8866 -0.6378 -2.3390
34219SOL    HW220268   1.273  13.422   8.822  0.6180  1.3601  0.3102
34220SOL     OW20269   4.119  12.325  10.649  0.1140 -0.1210 -0.0748
34220SOL    HW120270   4.113  12.250  10.591 -0.4106 -0.8360  0.8653
34220SOL    HW220271   4.083  12.294  10.732  1.9586  0.5041  1.0037
34221SOL     OW20272   1.212   5.046   0.370 -0.3557 -0.1582 -0.6061
34221SOL    HW120273   1.301   5.054   0.336 -0.0681 -0.4279  0.0838
34221SOL    HW220274   1.190   5.134   0.401  0.3193 -0.4555  0.7983
34222SOL     OW20275   5.940  10.432   5.129 -0.1552 -0.7939 -0.4514
34222SOL    HW120276   5.892  10.506   5.167 -1.3039 -2.0282  0.5893
34222SOL    HW220277   5.922  10.437   5.035 -1.0139 -0.2955 -0.2733
34223SOL     OW20278  11.030  13.808   7.301  0.0803 -0.3086  0.0764
34223SOL    HW120279  11.053  13.901   7.309 -0.1976 -0.2421  0.1277
34223SOL    HW220280  11.008  13.781   7.390 -0.4294 -0.2638 -0.0317
34224SOL     OW20281   2.054   5.724   2.282 -0.4164  0.0628 -0.3298
34224SOL    HW120282   2.033   5.758   2.368 -1.3608  1.5311 -1.1081
34224SOL    HW220283   2.149   5.711   2.284 -0.5947 -1.2497  1.3579
34225SOL     OW20284   7.203   4.172  13.672  0.5375  0.1945 -0.4643
34225SOL    HW120285   7.297   4.178  13.683  0.4753 -1.9148  1.8395
34225SOL    HW220286   7.168   4.157  13.760 -2.0875  1.8142 -1.0794
34226SOL     OW20287   5.976   2.788  12.709  0.2791  0.3548 -0.0697
34226SOL    HW120288   5.954   2.703  12.746  0.4388  0.2723 -0.1669
34226SOL    HW220289   6.048   2.820  12.763 -0.7774  1.1121  0.9520
34227SOL     OW20290   3.456   2.992  13.773 -0.1220 -0.9486 -0.9260
34227SOL    HW120291   3.418   2.937  13.841  0.3627 -1.1859 -0.8406
34227SOL    HW220292   3.382   3.039  13.735 -0.2618  0.2398  0.6920
34228SOL     OW20293  10.675   1.594   1.749  0.4453  0.1791 -0.2564
34228SOL    HW120294  10.609   1.580   1.681  1.8689 -0.5077 -1.5734
34228SOL    HW220295  10.723   1.512   1.752 -0.0138 -0.0522  2.1298
34229SOL     OW20296   9.343   1.474   2.062 -0.4788  0.3047 -0.1065
34229SOL    HW120297   9.283   1.400   2.067  0.1057 -0.1737 -0.1457
34229SOL    HW220298   9.386   1.464   1.977 -1.7539  1.7538 -0.9902
34230SOL     OW20299   4.837   4.788   0.606  0.0066 -0.0126 -0.2050
34230SOL    HW120300   4.777   4.847   0.652 -0.7469 -1.2373  0.4495
34230SOL    HW220301   4.851   4.829   0.521 -1.5277  0.4732 -0.2584
34231SOL     OW20302   1.798   7.654  12.424 -0.5853 -0.1962 -0.7975
34231SOL    HW120303   1.841   7.578  12.464 -1.7185 -0.5623 -0.2075
34231SOL    HW220304   1.795   7.634  12.331  0.5153 -0.1534 -0.8484
34232SOL     OW20305   3.567   3.691  10.778 -0.2213 -0.7344  0.8737
34232SOL    HW120306   3.538   3.713  10.690  0.2364  2.8819  1.4462
34232SOL    HW220307   3.662   3.684  10.771 -0.3545 -3.3520  0.6632
34233SOL     OW20308   3.479   6.424   2.610 -0.6920  0.2766  0.0995
34233SOL    HW120309   3.571   6.445   2.594 -0.3986  1.0959  2.5098
34233SOL    HW220310   3.440   6.506   2.641 -2.1364 -0.1895 -0.3626
34234SOL     OW20311  12.088  11.167   4.629 -0.5456 -0.3462 -0.1437
34234SOL    HW120312  12.174  11.130   4.610 -0.6853 -0.0015 -1.6287
34234SOL    HW220313  12.030  11.090   4.636 -0.4879 -0.5201 -1.3092
34235SOL     OW20314   1.982  11.261  11.962  0.5636 -0.2456 -0.4053
34235SOL    HW120315   1.998  11.219  11.878  0.0755  0.5608 -0.9134
34235SOL    HW220316   1.915  11.327  11.944  1.0896  0.5498  0.4275
34236SOL     OW20317   5.441   8.648   5.079 -0.0227  0.0743 -0.0909
34236SOL    HW120318   5.427   8.737   5.045  0.6376 -0.2378 -1.2462
34236SOL    HW220319   5.403   8.591   5.013 -1.6028 -0.5160  1.2487
34237SOL     OW20320  13.251  10.049   6.886 -0.7491  0.3931 -0.3181
34237SOL    HW120321  13.236  10.029   6.978  0.4119  0.6654 -0.0406
34237SOL    HW220322  13.346  10.044   6.876 -0.8766  0.0978 -1.5728
34238SOL     OW20323   9.894  10.326   7.397 -0.5298  0.0634 -0.3089
34238SOL    HW120324   9.907  10.392   7.329 -0.0151 -2.3947 -2.8455
34238SOL    HW220325   9.890  10.243   7.348 -2.5966 -1.6692  2.5057
34239SOL     OW20326   9.918   0.151   1.614  0.6538  0.3244 -0.2823
34239SOL    HW120327   9.856   0.133   1.685  0.6493 -1.6387 -0.7257
34239SOL    HW220328   9.886   0.231   1.573 -0.4224  0.4388  0.7452
34240SOL     OW20329   8.168   5.931   4.663 -0.0026  0.0482 -0.1798
34240SOL    HW120330   8.253   5.968   4.687  0.0458 -0.2232  0.0660
34240SOL    HW220331   8.157   5.955   4.571  1.6607 -2.3423 -1.1124
34241SOL     OW20332   1.687   0.451   6.910  0.0272 -0.2366  0.0942
34241SOL    HW120333   1.724   0.465   6.997 -0.3237 -0.2828  0.2542
34241SOL    HW220334   1.760   0.464   6.850  0.2307 -0.0208  0.3861
34242SOL     OW20335   8.395   4.233  11.346 -0.0015 -0.1079  0.6302
34242SOL    HW120336   8.436   4.151  11.374  0.1837 -0.4813 -0.6613
34242SOL    HW220337   8.416   4.239  11.253  0.3009  1.6014  0.7815
34243SOL     OW20338   4.242   5.973  13.313 -0.2942  0.1086 -0.3519
34243SOL    HW120339   4.158   6.019  13.322 -0.9471 -1.2480  0.7813
34243SOL    HW220340   4.263   5.982  13.220 -2.7211 -1.2364 -1.1240
34244SOL     OW20341   2.166   8.296   0.024  0.4849 -0.0647 -0.6611
34244SOL    HW120342   2.211   8.276   0.106 -1.1627 -1.5316 -0.0740
34244SOL    HW220343   2.104   8.365   0.047 -0.5700 -1.0585 -0.4366
34245SOL     OW20344   3.283   7.450  10.765  0.1083  0.3003  0.3368
34245SOL    HW120345   3.359   7.444  10.823  0.0749  1.1991  0.4859
34245SOL    HW220346   3.233   7.371  10.783  2.2046 -1.5702 -1.5072
34246SOL     OW20347   6.533   3.426   4.293  0.6804  0.3666  0.6796
34246SOL    HW120348   6.492   3.362   4.351 -1.1346  1.9889  1.3094
34246SOL    HW220349   6.505   3.511   4.328  2.5948  1.5074 -0.4070
34247SOL     OW20350   6.011   3.685   8.602  0.4156 -0.3937  0.1902
34247SOL    HW120351   5.965   3.681   8.518 -0.7658  4.0725  0.3897
34247SOL    HW220352   5.944   3.662   8.667 -0.0208  0.6364  0.1265
34248SOL     OW20353  12.326   9.267   9.784 -0.3060  0.6135 -0.5698
34248SOL    HW120354  12.259   9.220   9.832 -0.8167  0.6167 -1.2619
34248SOL    HW220355  12.402   9.266   9.841 -1.2461  1.6785  0.7763
34249SOL     OW20356   6.027  10.286  10.950  0.0209  0.0274 -0.3895
34249SOL    HW120357   6.044  10.286  11.044 -0.7749 -0.2247 -0.2397
34249SOL    HW220358   5.935  10.311  10.942 -0.3762 -1.4977 -1.0033
34250SOL     OW20359   8.431   3.368   8.089 -0.1397  0.7614  0.0477
34250SOL    HW120360   8.504   3.356   8.029 -0.7444  0.5605 -0.6721
34250SOL    HW220361   8.403   3.459   8.075 -0.7772  0.4803 -0.5652
34251SOL     OW20362  13.441   0.125   1.096  0.3324 -0.5926 -0.5868
34251SOL    HW120363  13.487   0.088   1.171 -0.9041 -0.9103  0.0256
34251SOL    HW220364  13.374   0.061   1.074 -0.3982  0.2655 -0.9028
34252SOL     OW20365  10.147   3.026  13.036 -0.4198  0.2146  0.4329
34252SOL    HW120366  10.134   3.031  12.941  4.3428 -1.1680 -0.5805
34252SOL    HW220367  10.134   2.933  13.056  1.0141  0.0093  0.5376
34253SOL     OW20368  11.552  13.942  12.015  0.1656  0.1359  0.0106
34253SOL    HW120369  11.488  13.959  11.946  1.3911  0.7324 -1.0232
34253SOL    HW220370  11.609  13.875  11.979  0.2405 -0.2610  0.8450
34254SOL     OW20371  11.892  10.355  12.430 -0.5700  0.0134 -0.0932
34254SOL    HW120372  11.882  10.442  12.393 -2.5760 -0.9583 -2.1049
34254SOL    HW220373  11.817  10.345  12.488 -0.3122 -0.3400  0.1791
34255SOL     OW20374   8.307  13.086   7.419  0.6151 -0.0621 -0.6919
34255SOL    HW120375   8.380  13.147   7.413  0.7637 -0.0353  1.0426
34255SOL    HW220376   8.283  13.086   7.511 -0.5761 -1.2478 -0.9747
34256SOL     OW20377   0.057   1.346   1.973  0.0572 -0.1551  0.0100
34256SOL    HW120378   0.131   1.293   1.943  0.1567  0.0948 -0.1905
34256SOL    HW220379   0.097   1.414   2.027 -0.1278 -0.6628  0.8231
34257SOL     OW20380   2.680   9.278   5.245 -0.2641 -0.2889 -0.0090
34257SOL    HW120381   2.755   9.296   5.302  0.7185  0.7999 -1.5675
34257SOL    HW220382   2.719   9.247   5.163 -1.4541  1.0039 -1.1182
34258SOL     OW20383   8.366   0.991  10.690 -0.1877 -0.6740 -0.3377
34258SOL    HW120384   8.431   1.040  10.740  0.1836 -1.0550 -0.4446
34258SOL    HW220385   8.355   1.042  10.609  0.1383 -0.7229 -0.4138
34259SOL     OW20386  11.335   3.421  13.800  0.3654  0.0264  0.1723
34259SOL    HW120387  11.263   3.401  13.740 -0.5061  0.7598  0.9453
34259SOL    HW220388  11.407   3.367  13.769  0.2429  1.0516 -2.1141
34260SOL     OW20389   2.457   7.626   7.259 -0.7524  0.1645  0.0776
34260SOL    HW120390   2.374   7.615   7.305 -0.2101 -1.3278  0.7937
34260SOL    HW220391   2.448   7.572   7.180 -0.3241 -0.3572  0.3783
34261SOL     OW20392   6.885   2.675   5.093 -0.2951  0.4756 -0.0427
34261SOL    HW120393   6.944   2.647   5.163 -1.3708 -0.9227  0.3664
34261SOL    HW220394   6.819   2.606   5.089 -1.7987  1.8741 -0.6005
34262SOL     OW20395   5.225   2.098   7.271 -0.1898 -0.2985  0.5151
34262SOL    HW120396   5.161   2.053   7.216 -0.1505 -1.1182  1.1112
34262SOL    HW220397   5.195   2.188   7.274  0.3214 -0.0196 -1.5686
34263SOL     OW20398   9.790   1.086   2.415  0.2488  0.4807  0.1988
34263SOL    HW120399   9.859   1.029   2.450  0.3074 -0.8145 -1.8589
34263SOL    HW220400   9.732   1.102   2.489  1.9474  0.3726  1.6077
34264SOL     OW20401   0.350   0.253   7.415 -0.3876  0.0970  0.3670
34264SOL    HW120402   0.400   0.184   7.370  0.4116  1.3103 -0.7102
34264SOL    HW220403   0.409   0.284   7.484 -0.6825 -0.1855  0.7484
34265SOL     OW20404   6.598   9.517   3.698 -0.1314  0.1140  0.3846
34265SOL    HW120405   6.543   9.478   3.766  1.5998 -1.8020  0.7744
34265SOL    HW220406   6.547   9.508   3.618 -1.1598  0.1324  1.0175
34266SOL     OW20407   7.101  13.182   4.412  0.2882  0.2223 -0.1992
34266SOL    HW120408   7.085  13.107   4.355  2.1633 -0.4097  0.0447
34266SOL    HW220409   7.058  13.160   4.494 -1.4902  0.6581 -0.9710
34267SOL     OW20410   2.720   8.873   7.471 -0.1708 -0.5359  0.6734
34267SOL    HW120411   2.705   8.780   7.486 -2.5540 -0.0458  1.7039
34267SOL    HW220412   2.664   8.896   7.397  1.6178 -0.2018 -0.6376
34268SOL     OW20413   3.714   4.264   5.233 -0.5388 -0.5647 -0.1477
34268SOL    HW120414   3.638   4.285   5.288  0.3671  0.8039  0.6170
34268SOL    HW220415   3.676   4.231   5.152 -1.9241 -1.9632  1.0111
34269SOL     OW20416   5.841  12.483   1.144 -0.2386 -0.4671 -0.1139
34269SOL    HW120417   5.924  12.520   1.176  0.2466 -1.0722 -0.6626
34269SOL    HW220418   5.775  12.545   1.175  0.2025 -0.9584  1.9926
34270SOL     OW20419   3.739   2.504   8.167  0.4939  0.0686 -0.3847
34270SOL    HW120420   3.770   2.552   8.245  0.0395 -1.0954  0.5364
34270SOL    HW220421   3.771   2.556   8.093 -1.4158  2.7386  0.5390
34271SOL     OW20422  13.254  11.465   0.190 -0.3377 -0.2923  0.0251
34271SOL    HW120423  13.227  11.482   0.280  2.8865 -3.4946  1.8483
34271SOL    HW220424  13.342  11.501   0.184 -0.5491  0.0042 -1.9529
34272SOL     OW20425   2.243   4.460   7.736  0.2628 -0.9033 -0.4992
34272SOL    HW120426   2.254   4.520   7.810  0.3440 -1.2691 -0.2084
34272SOL    HW220427   2.202   4.513   7.668 -1.8810 -1.0575  0.5569
34273SOL     OW20428   6.363  14.068   3.980 -1.0961 -0.2928  0.8427
34273SOL    HW120429   6.402  14.114   3.906  0.7566 -0.1640  1.8206
34273SOL    HW220430   6.375  14.128   4.054 -3.4065 -0.1800  1.1909
34274SOL     OW20431  12.678   1.817  10.476 -0.1222 -0.6464  0.0090
34274SOL    HW120432  12.674   1.887  10.411 -1.9471 -1.4641 -0.8437
34274SOL    HW220433  12.618   1.845  10.545  0.0815 -0.8108  0.2519
34275SOL     OW20434  12.532   0.825  12.724  1.0061 -0.1986  0.0355
34275SOL    HW120435  12.546   0.821  12.629  1.0386  1.0342 -0.0212
34275SOL    HW220436  12.448   0.780  12.738  0.4196  0.6378 -0.7162
34276SOL     OW20437   3.540   3.659   2.525 -0.8023  0.3000  0.0918
34276SOL    HW120438   3.447   3.640   2.535 -1.3909  2.0725 -1.4406
34276SOL    HW220439   3.557   3.730   2.586 -0.0560 -0.9658  1.4252
34277SOL     OW20440   3.540   9.693   7.478  0.1205 -1.0189 -0.0409
34277SOL    HW120441   3.576   9.713   7.392 -1.0636  0.1692 -0.2839
34277SOL    HW220442   3.536   9.597   7.481  0.8624 -1.0876 -1.0020
34278SOL     OW20443   3.034   8.725   6.544  0.2086 -0.0504 -0.3611
34278SOL    HW120444   3.101   8.792   6.556  0.5636 -0.2047 -1.3579
34278SOL    HW220445   3.066   8.671   6.472 -0.6795 -0.5191 -0.4283
34279SOL     OW20446   5.307   3.741  12.620  0.4837  0.5896 -0.1655
34279SOL    HW120447   5.343   3.659  12.584  0.2249 -0.1731  1.2409
34279SOL    HW220448   5.262   3.714  12.700  0.2995  2.1095  0.2672
34280SOL     OW20449   3.784   1.523  12.029 -0.4024  0.0331  0.2466
34280SOL    HW120450   3.691   1.503  12.015 -0.8624  0.1507  2.7217
34280SOL    HW220451   3.789   1.618  12.024 -0.7444  0.1455  1.5688
34281SOL     OW20452   9.725   6.896   4.249  0.1314 -0.1343 -0.4614
34281SOL    HW120453   9.710   6.804   4.228  0.8356 -1.2045  3.0681
34281SOL    HW220454   9.671   6.912   4.327  0.2965  2.3595 -0.7906
34282SOL     OW20455   6.779   5.626   2.198 -0.2756 -0.0416  0.2717
34282SOL    HW120456   6.815   5.694   2.140 -0.1584 -1.3936 -1.3399
34282SOL    HW220457   6.847   5.558   2.200 -1.5102 -1.3675 -0.5053
34283SOL     OW20458   4.758  13.294   5.206 -0.2105 -0.1872 -0.4391
34283SOL    HW120459   4.702  13.329   5.137 -2.1253 -1.7983  0.1875
34283SOL    HW220460   4.847  13.316   5.179 -0.8945 -0.4989 -3.2803
34284SOL     OW20461   2.605   5.516  12.457 -0.0361  0.0425 -0.3301
34284SOL    HW120462   2.550   5.497  12.380 -0.4669 -1.5849  0.3323
34284SOL    HW220463   2.682   5.460  12.445 -0.3746 -0.6746  0.6733
34285SOL     OW20464   0.993  11.489   9.597  0.2885  0.4633 -0.0316
34285SOL    HW120465   1.028  11.403   9.618 -0.8498 -0.0454 -0.1859
34285SOL    HW220466   1.065  11.549   9.618  1.3534 -0.5637 -0.6218
34286SOL     OW20467   7.445   2.525   6.112  0.3450  0.1664 -0.1304
34286SOL    HW120468   7.452   2.434   6.139  1.0253  0.3901  0.4852
34286SOL    HW220469   7.356   2.534   6.078 -0.3447 -0.3009  1.4559
34287SOL     OW20470  10.526  12.917  13.876 -0.1207  0.1526  0.4372
34287SOL    HW120471  10.598  12.972  13.906  0.4123 -0.4640  0.3144
34287SOL    HW220472  10.551  12.828  13.903 -0.9418 -0.0418  0.5944
34288SOL     OW20473   6.064   3.118   2.304  0.1862 -0.1677 -0.3633
34288SOL    HW120474   6.041   3.083   2.217 -0.8108  1.9674 -1.0261
34288SOL    HW220475   6.157   3.096   2.314 -0.2130 -2.4686 -0.9205
34289SOL     OW20476   6.148  11.230  13.554  0.2161 -0.4287  0.2893
34289SOL    HW120477   6.242  11.221  13.538  0.1737 -0.3873  0.0188
34289SOL    HW220478   6.140  11.220  13.649  0.5159 -0.2485  0.3379
34290SOL     OW20479  12.329   2.505  13.744  0.0895 -0.1738 -0.4425
34290SOL    HW120480  12.358   2.486  13.833 -2.5655 -0.3458  0.4836
34290SOL    HW220481  12.249   2.556  13.756 -2.0158 -2.6804 -2.5982
34291SOL     OW20482  12.777   8.919  13.052  0.5824 -0.0159 -0.1022
34291SOL    HW120483  12.834   8.985  13.092  1.3730 -0.1175 -1.0323
34291SOL    HW220484  12.699   8.968  13.026 -0.0005  0.0356  1.6195
34292SOL     OW20485  11.030   1.154  12.170  0.3057 -0.1715  0.6537
34292SOL    HW120486  10.940   1.163  12.139 -0.1755 -0.3700  1.9656
34292SOL    HW220487  11.067   1.085  12.115 -0.6374 -0.7743  0.7647
34293SOL     OW20488   3.812   4.286  14.049  0.0287 -0.1763 -0.2564
34293SOL    HW120489   3.840   4.223  13.982  0.9326  0.8585 -0.8862
34293SOL    HW220490   3.774   4.232  14.118 -0.8424 -1.2796 -1.5513
34294SOL     OW20491   1.637   6.855   3.691  0.0954  0.1117 -0.1823
34294SOL    HW120492   1.562   6.869   3.747  0.8768 -2.1508  1.5664
34294SOL    HW220493   1.602   6.861   3.602 -1.9463  0.0478  0.5695
34295SOL     OW20494   9.114  12.787   3.961 -0.1014  0.2677 -0.1112
34295SOL    HW120495   9.166  12.709   3.981 -1.9782 -0.4284  2.8265
34295SOL    HW220496   9.102  12.830   4.047 -3.0921  1.1285 -0.8344
34296SOL     OW20497   4.662  10.377   0.315  0.3876 -0.0735 -0.6006
34296SOL    HW120498   4.598  10.379   0.244 -1.0092 -1.8061  0.4936
34296SOL    HW220499   4.625  10.435   0.382  0.4073 -0.3946 -0.3092
34297SOL     OW20500   2.318  12.502   6.380 -0.1654 -0.2491 -0.5614
34297SOL    HW120501   2.240  12.553   6.401  0.6260  0.6523  0.2751
34297SOL    HW220502   2.390  12.565   6.385  0.5408 -0.8659 -2.1615
34298SOL     OW20503   8.429   1.197  11.028 -0.0602  0.2438  0.6745
34298SOL    HW120504   8.469   1.162  10.949  1.2310  1.1024  0.9270
34298SOL    HW220505   8.372   1.267  10.997 -1.1381 -0.7274  0.3547
34299SOL     OW20506   2.386   9.091   9.528  0.2707  0.3507 -0.2097
34299SOL    HW120507   2.476   9.098   9.498  0.0240 -0.1315 -1.0804
34299SOL    HW220508   2.358   9.182   9.542  1.4631  0.4622  1.8889
34300SOL     OW20509   3.821   2.214   0.247  0.1458 -0.2744 -0.2140
34300SOL    HW120510   3.786   2.142   0.194  0.0260 -0.3668 -0.0085
34300SOL    HW220511   3.869   2.268   0.184 -3.7004  2.1613 -1.3923
34301SOL     OW20512   6.229   2.012   8.093  0.3242  0.0128 -0.0025
34301SOL    HW120513   6.184   2.066   8.158  0.8890  0.8432 -0.2785
34301SOL    HW220514   6.319   2.004   8.126  0.4930  0.0512 -0.4423
34302SOL     OW20515   2.858   2.659  10.835  0.3311  0.6166  0.2544
34302SOL    HW120516   2.884   2.596  10.903  0.5441  1.4501  0.9649
34302SOL    HW220517   2.925   2.651  10.767  0.0890 -0.2629  0.1108
34303SOL     OW20518  11.602   4.141   0.932  0.3746 -0.4569  0.1908
34303SOL    HW120519  11.680   4.085   0.925  1.2695  0.7589  0.1429
34303SOL    HW220520  11.559   4.133   0.846  0.2265 -1.4140  0.3394
34304SOL     OW20521   0.349   3.791   7.170 -0.9673 -0.3590  0.3759
34304SOL    HW120522   0.430   3.741   7.179 -0.8241 -0.5012 -1.3793
34304SOL    HW220523   0.303   3.777   7.253  0.9280  0.0186  1.5746
34305SOL     OW20524   6.611   0.371   1.655  0.6195  0.0969 -0.0236
34305SOL    HW120525   6.637   0.391   1.745  1.6841 -1.2648 -0.0064
34305SOL    HW220526   6.529   0.323   1.663  0.7374 -0.0632  0.2206
34306SOL     OW20527  11.598  10.945  12.378  0.2728 -0.3602 -0.3265
34306SOL    HW120528  11.577  10.881  12.310 -1.5993 -1.3425  1.0868
34306SOL    HW220529  11.535  11.016  12.363  2.1212  1.0926 -1.6795
34307SOL     OW20530   4.231   3.529   4.918  0.4159  0.4162  0.3928
34307SOL    HW120531   4.199   3.557   4.832 -2.6897 -0.3316  1.1578
34307SOL    HW220532   4.249   3.436   4.908  1.1351  0.5592  0.3029
34308SOL     OW20533  12.767  11.836  11.147  0.7151  0.1701 -0.5736
34308SOL    HW120534  12.726  11.767  11.200  1.3668  0.7154  0.7090
34308SOL    HW220535  12.793  11.793  11.066  0.2389 -0.8542 -0.1959
34309SOL     OW20536   8.152   0.347   4.964  0.1483 -0.3187 -0.7798
34309SOL    HW120537   8.154   0.283   5.035  0.6012  0.1426 -0.3616
34309SOL    HW220538   8.077   0.322   4.911 -0.3392 -0.5356 -0.0058
34310SOL     OW20539   1.635   8.054  13.570  1.0224  0.2779  0.4309
34310SOL    HW120540   1.588   8.133  13.543 -0.5478 -0.9916 -0.7517
34310SOL    HW220541   1.654   8.008  13.489  1.3923 -0.8433  1.1218
34311SOL     OW20542   5.068  12.322   6.642  0.3250  0.5667 -0.5411
34311SOL    HW120543   5.046  12.415   6.643 -1.5092  0.1899 -1.4133
34311SOL    HW220544   5.083  12.299   6.734 -1.9318  1.1638  0.0383
34312SOL     OW20545  10.165   9.007   4.555 -0.0651  0.3913 -0.3056
34312SOL    HW120546  10.194   9.021   4.645 -0.7669 -0.0985  0.0009
34312SOL    HW220547  10.246   9.005   4.504  0.7937 -3.5684  0.8546
34313SOL     OW20548   6.936   0.573   4.340  0.1466  0.3368  0.1200
34313SOL    HW120549   6.928   0.646   4.401  3.7306 -0.0982  1.3676
34313SOL    HW220550   6.987   0.508   4.387  0.1278 -1.4771 -2.1931
34314SOL     OW20551  13.393   0.428   6.218 -0.7849 -0.8719  0.0310
34314SOL    HW120552  13.319   0.489   6.213 -0.2033 -0.2122 -0.8504
34314SOL    HW220553  13.430   0.428   6.129  1.8967  0.8936  1.0368
34315SOL     OW20554   5.809   1.051   1.170 -0.2456  0.0359 -0.7562
34315SOL    HW120555   5.805   1.146   1.179  1.0506 -0.0444  1.0830
34315SOL    HW220556   5.852   1.021   1.249  0.9890 -1.9541 -2.0999
34316SOL     OW20557   5.925   5.083   2.665 -0.0079  0.0575 -0.2133
34316SOL    HW120558   5.964   4.998   2.684 -1.4101 -0.7956 -0.9585
34316SOL    HW220559   5.831   5.067   2.669 -0.3617  0.8874 -2.9818
34317SOL     OW20560  11.409   4.895  11.102 -0.3048 -0.3504  0.3988
34317SOL    HW120561  11.427   4.808  11.066  2.0881  0.2808 -0.0868
34317SOL    HW220562  11.422   4.955  11.029  1.8435  0.7028  1.5327
34318SOL     OW20563   8.174  13.654   4.925 -0.1720 -0.3558  0.0998
34318SOL    HW120564   8.244  13.686   4.982 -1.6129 -2.5525  3.4455
34318SOL    HW220565   8.094  13.683   4.968 -1.3727 -0.9872 -1.6158
34319SOL     OW20566   2.743  12.757   2.565  0.3086  0.4803 -0.1536
34319SOL    HW120567   2.703  12.824   2.621 -1.1600  0.8473 -1.5465
34319SOL    HW220568   2.748  12.679   2.620 -0.8407  0.9058  0.5927
34320SOL     OW20569  10.302   4.886   5.519 -0.5404 -0.7867 -0.3184
34320SOL    HW120570  10.276   4.899   5.428  1.2779  2.1221 -0.5681
34320SOL    HW220571  10.351   4.804   5.520 -0.0972 -0.5748 -2.1195
34321SOL     OW20572   2.186   8.919   6.992 -0.1001 -0.4845 -0.0598
34321SOL    HW120573   2.173   9.004   6.949  1.3426  0.1219  0.6111
34321SOL    HW220574   2.277   8.897   6.974 -0.2135 -1.4853  0.4961
34322SOL     OW20575   5.733   6.317   0.028 -0.6371 -0.3931 -0.2084
34322SOL    HW120576   5.645   6.304   0.062 -1.0880 -0.5655 -1.4136
34322SOL    HW220577   5.765   6.229   0.009  0.7578 -0.5708  2.4534
34323SOL     OW20578   8.244  12.089  13.477 -0.3834 -0.1933  0.3213
34323SOL    HW120579   8.334  12.120  13.475 -0.1435 -0.8556  0.6395
34323SOL    HW220580   8.197  12.148  13.418  0.3000  0.0189 -0.0208
34324SOL     OW20581   2.667   8.181   4.778  0.4709 -0.0165 -0.3208
34324SOL    HW120582   2.760   8.205   4.783  0.4243  0.0057  0.4603
34324SOL    HW220583   2.661   8.096   4.821 -0.2603  1.1110  1.9521
34325SOL     OW20584  11.734   1.417   5.302 -0.8026 -0.8607 -0.7961
34325SOL    HW120585  11.729   1.406   5.397  0.8689  0.5475 -0.4862
34325SOL    HW220586  11.819   1.379   5.278 -0.3740  0.4274 -1.4156
34326SOL     OW20587   4.453  10.512  10.383 -0.5424  0.8603 -0.0359
34326SOL    HW120588   4.534  10.559  10.363  0.6454 -0.3743  1.5700
34326SOL    HW220589   4.432  10.464  10.302  1.5811 -0.5044  0.1625
34327SOL     OW20590   4.552   4.501   6.732 -0.1883 -0.2043  0.1908
34327SOL    HW120591   4.640   4.474   6.759 -0.2416 -0.5473  0.0297
34327SOL    HW220592   4.512   4.534   6.812 -0.1309 -0.6402  0.4032
34328SOL     OW20593   1.160   4.088   9.308  0.4624 -0.1982  0.2067
34328SOL    HW120594   1.246   4.129   9.317  1.4552 -2.0510 -0.2241
34328SOL    HW220595   1.138   4.100   9.216  0.7913 -0.6667  0.0610
34329SOL     OW20596   0.359  11.043   3.515 -0.3609 -0.0633  0.0832
34329SOL    HW120597   0.281  11.072   3.467 -0.7971 -0.3271  0.6246
34329SOL    HW220598   0.411  11.122   3.527  0.0536 -0.0913 -1.3609
34330SOL     OW20599   1.617   2.167   8.360  0.7484 -0.3235 -0.2359
34330SOL    HW120600   1.596   2.107   8.289 -0.3648  0.5343 -0.6690
34330SOL    HW220601   1.592   2.120   8.440  0.1452 -0.5418 -0.5470
34331SOL     OW20602   4.590   5.353  10.607  1.0151  0.4955 -0.1842
34331SOL    HW120603   4.652   5.293  10.567 -1.1361 -0.6014 -2.1226
34331SOL    HW220604   4.532   5.379  10.535 -4.1642 -2.8460  2.1746
34332SOL     OW20605   0.591   8.733  10.117 -0.4151  0.3699 -0.5430
34332SOL    HW120606   0.547   8.649  10.110  1.1027 -0.6048  0.7376
34332SOL    HW220607   0.523   8.798  10.098 -1.5826 -1.1282 -1.7057
34333SOL     OW20608   9.855   1.414   7.860 -0.1459 -0.0397 -0.1265
34333SOL    HW120609   9.814   1.437   7.776  0.8104  1.2030 -0.2792
34333SOL    HW220610   9.815   1.475   7.923  0.7868  0.5654 -0.1106
34334SOL     OW20611   7.813  12.997  13.689  0.5774  0.0341 -0.4145
34334SOL    HW120612   7.721  13.017  13.710  0.7101  0.4900 -0.2467
34334SOL    HW220613   7.851  13.082  13.668  0.5102 -0.3737 -2.3812
34335SOL     OW20614  12.314   4.865   7.133 -0.1822  0.2715 -0.5502
34335SOL    HW120615  12.344   4.787   7.085 -1.7619  0.4495 -1.9218
34335SOL    HW220616  12.383   4.930   7.117  0.4856 -0.4179 -0.5458
34336SOL     OW20617  10.926  13.439   1.521  0.2694  0.1647  0.1967
34336SOL    HW120618  10.965  13.504   1.463  0.6886  1.1076  1.4822
34336SOL    HW220619  10.970  13.453   1.605 -0.5600 -0.9224  0.8326
34337SOL     OW20620   2.979   3.433   0.302  0.0824 -0.3056 -0.2004
34337SOL    HW120621   2.966   3.508   0.244  2.2839  1.3331  1.2634
34337SOL    HW220622   2.977   3.357   0.244 -0.1041  1.0567 -2.0735
34338SOL     OW20623   6.489  11.507   2.513  0.2717  0.2747  0.2495
34338SOL    HW120624   6.441  11.470   2.586  1.8755 -0.6063  0.9143
34338SOL    HW220625   6.523  11.590   2.546 -0.7318  0.8944 -0.2178
34339SOL     OW20626  11.330   8.831  11.452 -0.4278 -0.5635  0.1437
34339SOL    HW120627  11.319   8.825  11.547  0.0878  0.9975  0.3305
34339SOL    HW220628  11.308   8.922  11.431  0.7475 -0.5259 -1.0492
34340SOL     OW20629   0.819  11.188   9.076  0.3590 -0.2800  0.0098
34340SOL    HW120630   0.846  11.118   9.017 -1.9240 -2.1063  0.9633
34340SOL    HW220631   0.813  11.266   9.021 -0.0302 -1.5394 -1.7981
34341SOL     OW20632   3.737   0.262  11.896 -0.3653  0.2488 -0.0545
34341SOL    HW120633   3.757   0.329  11.831 -0.3043  0.4766  0.1950
34341SOL    HW220634   3.782   0.292  11.975 -0.2969 -0.1115  0.0469
34342SOL     OW20635  10.789  13.679   0.989 -0.3817 -0.1206  0.0135
34342SOL    HW120636  10.865  13.715   0.945  0.3739 -3.0319 -1.3486
34342SOL    HW220637  10.823  13.649   1.074 -0.3695 -0.0640  0.0288
34343SOL     OW20638   8.380   0.404   8.211  0.1093  0.1533 -0.6176
34343SOL    HW120639   8.446   0.374   8.148 -0.9558  0.7110 -2.0462
34343SOL    HW220640   8.300   0.411   8.160 -0.8536  0.4083  0.8772
34344SOL     OW20641   3.606   5.500   6.976 -0.0764 -0.3934 -0.4863
34344SOL    HW120642   3.526   5.545   6.949 -0.0266 -0.2465 -0.3933
34344SOL    HW220643   3.675   5.540   6.924 -0.2125 -1.3191 -1.4183
34345SOL     OW20644   7.080   1.363  11.541  0.1473  0.1442 -0.1731
34345SOL    HW120645   7.125   1.324  11.616  1.2937  0.2549 -0.7756
34345SOL    HW220646   7.012   1.299  11.518  0.5225 -0.4216  0.2602
34346SOL     OW20647   3.762   5.827   6.406  0.1338 -0.1642  0.0946
34346SOL    HW120648   3.792   5.852   6.318 -1.7820 -1.7636 -1.1006
34346SOL    HW220649   3.666   5.830   6.400 -0.0327  0.4565  2.4024
34347SOL     OW20650   2.465  11.615  11.011 -0.2281 -0.2182  0.2077
34347SOL    HW120651   2.534  11.678  11.032  0.2545 -0.9248  0.7874
34347SOL    HW220652   2.405  11.619  11.086  1.0628 -2.1490  1.4206
34348SOL     OW20653   9.743   2.617   5.681  0.5089 -0.3786  0.6135
34348SOL    HW120654   9.788   2.668   5.747  1.0426  0.7178 -0.5639
34348SOL    HW220655   9.731   2.677   5.607 -3.1043 -0.4888  0.9127
34349SOL     OW20656   1.497  11.477   8.558 -0.0634  0.0765 -0.5362
34349SOL    HW120657   1.403  11.492   8.553  0.3355  3.2072 -0.4331
34349SOL    HW220658   1.531  11.554   8.603  2.3539 -1.9746  1.4466
34350SOL     OW20659  13.890   5.148   9.713  0.1182  0.0206  0.6227
34350SOL    HW120660  13.984   5.149   9.728  0.2008 -0.2565  0.1481
34350SOL    HW220661  13.851   5.141   9.800  0.4782  1.9783  1.0034
34351SOL     OW20662   2.099   8.466   2.527  0.1367  0.0028  0.1070
34351SOL    HW120663   2.008   8.457   2.500 -0.6724  1.1334  2.2536
34351SOL    HW220664   2.131   8.542   2.479 -0.0273 -0.3622 -0.6030
34352SOL     OW20665   4.117   2.315   8.894 -0.0996  0.1636  0.1970
34352SOL    HW120666   4.109   2.221   8.884 -2.2623  0.3896 -0.8156
34352SOL    HW220667   4.183   2.341   8.830  0.5698 -0.6570  0.5424
34353SOL     OW20668   3.271   5.327  12.307 -0.1174  0.3051 -0.0183
34353SOL    HW120669   3.313   5.410  12.285 -1.4943  1.8950  2.8081
34353SOL    HW220670   3.343   5.264  12.310  1.1185  1.5914 -1.2094
34354SOL     OW20671  12.092   5.324   5.129  0.3046  0.3326 -0.1923
34354SOL    HW120672  12.021   5.385   5.108 -1.6781 -0.6710  2.8703
34354SOL    HW220673  12.153   5.375   5.182 -0.6776  0.0851  1.2421
34355SOL     OW20674   2.666   2.259   9.540 -0.7478  0.1443  0.4182
34355SOL    HW120675   2.653   2.197   9.468 -0.3761 -1.2838  1.5272
34355SOL    HW220676   2.577   2.288   9.562 -0.9010  0.2436 -0.2996
34356SOL     OW20677   8.981  11.511   4.586 -0.3483  0.4782  0.1990
34356SOL    HW120678   8.902  11.487   4.537 -0.3691 -0.0187  0.4708
34356SOL    HW220679   9.039  11.436   4.576 -0.3170  0.4069  0.8563
34357SOL     OW20680   5.592   7.189   3.705  0.2384 -0.0835 -0.3851
34357SOL    HW120681   5.675   7.146   3.683  0.3116 -0.0420 -0.1855
34357SOL    HW220682   5.596   7.273   3.660  0.9868  0.5891  0.9124
34358SOL     OW20683  12.548  13.427   6.042  0.6064 -0.0873 -0.0831
34358SOL    HW120684  12.572  13.347   5.995 -1.9365 -0.4787 -0.8843
34358SOL    HW220685  12.501  13.395   6.119  0.6615  0.6456  0.2598
34359SOL     OW20686   6.724   0.660   5.560 -0.8105 -0.2552 -0.2920
34359SOL    HW120687   6.729   0.755   5.573  0.8723 -0.5033  1.1364
34359SOL    HW220688   6.633   0.638   5.583 -0.4047  0.6208  2.4628
34360SOL     OW20689   1.028   5.179  10.059  0.6086  0.3778  0.2716
34360SOL    HW120690   1.028   5.143   9.970 -0.3030  0.0816  0.3821
34360SOL    HW220691   0.963   5.250  10.056  1.6383  1.3460  0.3257
34361SOL     OW20692   7.382  11.651  10.848 -0.2199 -0.9778 -0.2970
34361SOL    HW120693   7.477  11.662  10.856  0.4577 -3.5255 -2.9991
34361SOL    HW220694   7.369  11.556  10.852 -2.9066 -0.6379  1.4684
34362SOL     OW20695   2.181   9.127   3.241 -0.2897 -0.3079 -0.0105
34362SOL    HW120696   2.178   9.053   3.302 -0.1556  0.5933  1.1279
34362SOL    HW220697   2.233   9.193   3.286 -2.8000  1.6044  0.3063
34363SOL     OW20698   3.908  13.829  10.765  0.3822 -0.1147 -0.4724
34363SOL    HW120699   3.882  13.747  10.809 -1.4234  0.6140 -0.0850
34363SOL    HW220700   3.923  13.890  10.837 -1.7638  0.8514 -0.7735
34364SOL     OW20701   5.546   3.651   1.284  0.2290 -0.1396 -0.2789
34364SOL    HW120702   5.636   3.625   1.262 -0.2982  0.0866 -2.9810
34364SOL    HW220703   5.544   3.648   1.380  2.6251 -1.7913 -0.1731
34365SOL     OW20704   0.203   0.915  13.356  0.5106  0.1101  0.2826
34365SOL    HW120705   0.142   0.868  13.299 -0.9319  0.6730  1.3122
34365SOL    HW220706   0.207   0.862  13.435 -0.1022  1.0243  0.9393
34366SOL     OW20707   4.482   9.956  13.653 -0.4067 -0.3603  0.3799
34366SOL    HW120708   4.492   9.869  13.614  0.3652 -0.1925  0.1764
34366SOL    HW220709   4.486   9.941  13.747 -0.1722 -0.5401  0.3435
34367SOL     OW20710  11.000   4.871   7.535  0.0829  0.7377  0.5606
34367SOL    HW120711  11.047   4.805   7.485 -0.7069  1.5390 -1.3519
34367SOL    HW220712  11.058   4.893   7.607  0.4854 -1.7973  1.0882
34368SOL     OW20713   8.006   6.758   4.082  0.1605  1.4815  0.1824
34368SOL    HW120714   8.094   6.778   4.116  0.7421  0.3124 -0.5595
34368SOL    HW220715   8.016   6.673   4.039 -1.1678  1.6824 -0.5788
34369SOL     OW20716  12.846  11.027   4.718 -0.3048 -0.0402  0.0600
34369SOL    HW120717  12.928  11.026   4.667 -0.7922 -1.2753 -0.7603
34369SOL    HW220718  12.793  11.094   4.676  0.1287  0.5158  0.3710
34370SOL     OW20719   3.333   0.070   6.492 -0.1323 -0.4977 -0.0144
34370SOL    HW120720   3.309   0.037   6.406  0.1762 -1.8599  0.3945
34370SOL    HW220721   3.275   0.144   6.507 -1.7923 -1.6552 -0.4442
34371SOL     OW20722   9.688   3.443   7.605  1.2003  0.0121 -0.5972
34371SOL    HW120723   9.608   3.490   7.629  1.5350 -0.0653  0.7833
34371SOL    HW220724   9.758   3.503   7.629  1.6672 -1.3346  1.7965
34372SOL     OW20725   1.485   2.389   8.245  0.3186 -0.1378  0.2416
34372SOL    HW120726   1.529   2.309   8.274 -1.5506 -1.8236 -1.2448
34372SOL    HW220727   1.397   2.359   8.220 -0.0351  2.1816 -1.5545
34373SOL     OW20728  11.773   1.728  12.042  0.4054 -0.1476  0.4370
34373SOL    HW120729  11.754   1.751  11.951 -1.6970 -0.2169  0.7990
34373SOL    HW220730  11.842   1.662  12.037 -0.9995 -1.5842 -1.2715
34374SOL     OW20731   5.852  11.978   1.029 -0.5660  0.3904 -0.3470
34374SOL    HW120732   5.804  11.983   1.111  0.2423 -0.5412  0.2021
34374SOL    HW220733   5.916  12.049   1.034 -0.8540  0.6590 -0.4100
34375SOL     OW20734   0.672  10.619   1.745  0.1911  0.1882  0.1834
34375SOL    HW120735   0.675  10.611   1.649  2.2488 -0.0431  0.2157
34375SOL    HW220736   0.680  10.713   1.761  1.4210  0.1134  0.1167
34376SOL     OW20737   2.611   9.533   8.720  0.0116 -0.0438  0.4268
34376SOL    HW120738   2.519   9.558   8.733  0.4227  0.4990  2.7753
34376SOL    HW220739   2.655   9.560   8.801  1.9544 -1.7389  0.0234
34377SOL     OW20740   1.446   9.273  11.398 -0.7407  0.6198  0.4296
34377SOL    HW120741   1.447   9.336  11.470  1.3135 -0.8476  1.8067
34377SOL    HW220742   1.397   9.197  11.432  0.1891 -0.0636  0.2815
34378SOL     OW20743  10.451   0.815   4.199  0.0341  0.5598  0.1331
34378SOL    HW120744  10.480   0.743   4.143 -0.3986  0.1430  0.4411
34378SOL    HW220745  10.357   0.822   4.183 -0.0295  0.6683  0.5420
34379SOL     OW20746   0.293   8.562   3.769 -0.1091  0.1348 -0.3671
34379SOL    HW120747   0.374   8.604   3.738 -0.4041  0.0465 -1.2736
34379SOL    HW220748   0.239   8.634   3.801 -0.1794  0.3376 -0.9318
34380SOL     OW20749  11.040  13.749   6.601 -0.8652 -0.1151 -0.1481
34380SOL    HW120750  11.133  13.743   6.625 -0.8792  0.6609  0.1312
34380SOL    HW220751  11.036  13.719   6.511 -0.0899  1.3494 -0.7034
34381SOL     OW20752  10.175   5.267   3.029  0.5273  0.2379 -0.1432
34381SOL    HW120753  10.195   5.326   2.956 -1.2412 -0.6740 -1.4451
34381SOL    HW220754  10.153   5.326   3.102  0.2378  1.2024 -0.9757
34382SOL     OW20755   7.364   8.072   9.894 -0.1642 -0.4731 -0.3105
34382SOL    HW120756   7.430   8.025   9.946  0.8189 -0.4940 -1.5067
34382SOL    HW220757   7.299   8.006   9.873 -0.8191 -0.3572  1.2406
34383SOL     OW20758  13.420  14.071  13.228 -0.2022 -0.0140 -0.0732
34383SOL    HW120759  13.342  14.043  13.181 -1.5879 -0.0934  2.0977
34383SOL    HW220760  13.398  14.159  13.261  0.1567 -0.4456  1.4188
34384SOL     OW20761   2.884   2.664   1.755  0.6246 -0.0868 -0.1528
34384SOL    HW120762   2.954   2.601   1.772  1.0091  0.7349  1.4204
34384SOL    HW220763   2.848   2.685   1.841 -1.1737 -0.0183 -0.8691
34385SOL     OW20764  12.723  10.591   9.459 -0.4324  0.3832 -0.1132
34385SOL    HW120765  12.816  10.568   9.463 -0.6370 -0.3620  1.1226
34385SOL    HW220766  12.701  10.619   9.548 -1.8881 -1.6211  0.2364
34386SOL     OW20767  12.457   0.960   7.649  0.4896  0.2970  0.1264
34386SOL    HW120768  12.532   0.959   7.590  1.2310 -1.0891  1.0461
34386SOL    HW220769  12.385   0.997   7.597  0.5187 -2.8408 -2.3968
34387SOL     OW20770   4.342   6.580   1.068  0.0809  0.1821  0.1433
34387SOL    HW120771   4.325   6.586   1.162 -0.8733  0.0842 -0.0115
34387SOL    HW220772   4.432   6.550   1.062 -0.2502 -1.0886  1.0613
34388SOL     OW20773   8.508  10.537   8.037  0.2222 -0.3552  0.2023
34388SOL    HW120774   8.556  10.615   8.064  0.8309 -0.7783  0.3598
34388SOL    HW220775   8.541  10.467   8.095 -0.3958 -0.7040  0.1396
34389SOL     OW20776   9.294   8.003   4.261 -0.3730  0.8583  0.3227
34389SOL    HW120777   9.210   8.000   4.215 -0.7336  1.5679  0.9191
34389SOL    HW220778   9.359   7.986   4.193 -1.0460 -0.7291  0.0278
34390SOL     OW20779   9.344  10.622  10.372 -0.0716 -0.5142  0.0419
34390SOL    HW120780   9.364  10.588  10.460  0.8836 -1.6936 -0.5916
34390SOL    HW220781   9.274  10.565  10.340  1.4832 -1.9520 -0.9980
34391SOL     OW20782  10.636   4.240   0.378  0.0746 -0.0715 -0.3365
34391SOL    HW120783  10.576   4.262   0.449 -0.6438 -1.6772 -0.3933
34391SOL    HW220784  10.654   4.324   0.335 -0.9057  0.6648  0.6222
34392SOL     OW20785   8.112  10.386  13.453  0.0596 -0.1951  0.2486
34392SOL    HW120786   8.178  10.408  13.387  0.4289  0.4730  0.8381
34392SOL    HW220787   8.071  10.307  13.418 -0.7409  0.9253 -1.5033
34393SOL     OW20788   3.427   2.380   3.925 -0.1070 -0.0225  0.4313
34393SOL    HW120789   3.394   2.312   3.984  1.6571 -0.2040  1.2866
34393SOL    HW220790   3.394   2.462   3.963 -0.2123 -0.2358  0.8131
34394SOL     OW20791   4.888   8.618  13.254 -0.4156 -0.1508  0.1130
34394SOL    HW120792   4.850   8.579  13.175 -3.2141  0.9530  0.7875
34394SOL    HW220793   4.825   8.597  13.323  0.3186  1.6476  1.3959
34395SOL     OW20794  13.847   5.496   3.505 -0.2514 -0.1942  0.6790
34395SOL    HW120795  13.928   5.514   3.457 -1.2114 -4.0438 -2.9148
34395SOL    HW220796  13.875   5.445   3.581  0.8504  1.0561  1.1597
34396SOL     OW20797   2.458  11.863   4.327 -0.6270  0.2185  0.4256
34396SOL    HW120798   2.481  11.919   4.402  1.0246 -0.0820  0.1562
34396SOL    HW220799   2.492  11.777   4.350  2.0340  0.6069 -1.6251
34397SOL     OW20800   1.296   0.750   6.945 -0.0546 -0.5758 -0.2969
34397SOL    HW120801   1.255   0.756   6.859  1.8734  1.5011 -1.1759
34397SOL    HW220802   1.365   0.685   6.934  0.1618 -0.3442 -0.3109
34398SOL     OW20803  13.641  13.593   8.364  0.1546  0.6606  0.3906
34398SOL    HW120804  13.691  13.525   8.408 -1.3871  0.3247  1.7318
34398SOL    HW220805  13.645  13.570   8.271  1.2080 -0.1812  0.6273
34399SOL     OW20806   9.056   6.676   4.818 -0.1322 -0.2370 -0.1123
34399SOL    HW120807   9.044   6.755   4.871  1.7190  0.4828 -0.6941
34399SOL    HW220808   8.992   6.685   4.747 -0.7898  0.1042  0.5036
34400SOL     OW20809   2.224  13.998   2.420 -0.1538 -0.4636  0.0014
34400SOL    HW120810   2.133  13.976   2.401 -0.1993  0.0691 -0.4586
34400SOL    HW220811   2.244  14.069   2.358  0.8358 -1.1520 -0.4937
34401SOL     OW20812  12.805   3.908  11.906  0.0669 -0.1501 -0.1265
34401SOL    HW120813  12.740   3.844  11.878  0.2077 -0.4271  0.1811
34401SOL    HW220814  12.886   3.859  11.913  0.1362  0.0217  0.2914
34402SOL     OW20815   4.007   9.848   1.459  0.2495 -0.2874  0.4699
34402SOL    HW120816   4.089   9.816   1.421  0.5219  0.6013  0.2615
34402SOL    HW220817   3.956   9.770   1.479  0.0149 -0.8062 -1.9053
34403SOL     OW20818   9.290  10.334   5.140 -0.2673  0.5033 -0.2652
34403SOL    HW120819   9.357  10.389   5.181  2.2144 -0.3978 -2.8021
34403SOL    HW220820   9.323  10.244   5.151 -1.4090 -0.0227 -0.9981
34404SOL     OW20821   8.975   2.733   9.722 -0.3095  0.4002 -0.0794
34404SOL    HW120822   8.967   2.712   9.629 -1.6961 -0.1192  0.1316
34404SOL    HW220823   8.893   2.777   9.744 -0.1543  0.2022  0.9734
34405SOL     OW20824   1.614  10.351   2.778 -0.1951  0.4290 -0.2061
34405SOL    HW120825   1.603  10.382   2.688 -1.4932 -0.3430 -0.3349
34405SOL    HW220826   1.627  10.431   2.829 -0.7042  0.9737 -0.9057
34406SOL     OW20827  12.993   8.231  14.042 -0.8297  0.0575 -0.1360
34406SOL    HW120828  13.085   8.210  14.028 -0.5053  0.4946  1.1901
34406SOL    HW220829  12.947   8.187  13.970  0.5332  1.0376 -1.6590
34407SOL     OW20830   3.238  11.711  11.039  0.7381  0.1650 -0.4386
34407SOL    HW120831   3.153  11.740  11.074 -0.4086  0.8124 -3.4934
34407SOL    HW220832   3.288  11.792  11.029  0.4440  0.1976 -1.7405
34408SOL     OW20833   6.413   0.714  13.659 -0.5789  0.4525 -0.1817
34408SOL    HW120834   6.490   0.718  13.717  0.0714  0.3871 -1.0199
34408SOL    HW220835   6.342   0.686  13.716  0.2908 -0.7538  0.3714
34409SOL     OW20836   3.003   7.155  10.174 -0.2461 -0.3715 -0.2213
34409SOL    HW120837   3.053   7.133  10.095  0.8301 -0.6591  0.5189
34409SOL    HW220838   2.978   7.070  10.210  1.2051 -0.3342  0.9449
34410SOL     OW20839   4.099   0.196   2.218  0.2315 -0.0399 -0.1178
34410SOL    HW120840   4.152   0.158   2.147  0.6470 -0.5814  0.4768
34410SOL    HW220841   4.129   0.287   2.223  1.4778 -0.4602  0.5330
34411SOL     OW20842   0.864  12.939  10.663  0.2355 -0.0933 -0.1282
34411SOL    HW120843   0.872  12.908  10.754 -2.0621  0.0320  0.1645
34411SOL    HW220844   0.831  13.028  10.671 -1.5950 -0.6485 -1.0752
34412SOL     OW20845   6.219  12.657   3.876 -0.2597 -0.1763  0.1656
34412SOL    HW120846   6.314  12.660   3.885 -0.4272  0.1207  2.1393
34412SOL    HW220847   6.194  12.745   3.850  0.2591 -1.1318 -4.6748
34413SOL     OW20848   1.254  13.145   1.626  0.0610 -0.0962  0.1168
34413SOL    HW120849   1.205  13.066   1.603 -2.6357  1.5824 -0.4464
34413SOL    HW220850   1.321  13.116   1.687 -0.1418 -2.9366 -0.8735
34414SOL     OW20851   6.272  11.374   7.108  0.4299  0.4599  0.3119
34414SOL    HW120852   6.230  11.458   7.126  1.0726  0.8065  0.2354
34414SOL    HW220853   6.244  11.318   7.180  0.8469  1.0592  0.9549
34415SOL     OW20854  11.870   9.470  12.974  0.2252 -0.0266 -0.4472
34415SOL    HW120855  11.851   9.408  12.904  0.5631 -0.6593  0.0000
34415SOL    HW220856  11.868   9.416  13.054 -0.4523  0.7302  0.0642
34416SOL     OW20857   1.932  11.952  10.639 -0.0821 -0.1393 -0.1938
34416SOL    HW120858   1.988  12.003  10.698 -0.2018 -1.6476  1.2908
34416SOL    HW220859   1.844  11.962  10.675 -0.1387 -1.1807 -0.0131
34417SOL     OW20860   2.891   3.694   1.665 -0.5988  0.1807  0.4230
34417SOL    HW120861   2.984   3.693   1.690 -0.4882 -2.5343  0.1646
34417SOL    HW220862   2.884   3.764   1.601  1.4840 -0.1481 -0.2310
34418SOL     OW20863   3.956  13.835   2.359  0.6694 -0.2960 -0.1895
34418SOL    HW120864   4.033  13.855   2.305 -0.0615 -2.0531 -2.0196
34418SOL    HW220865   3.961  13.740   2.373 -0.2267 -0.1549  1.2103
34419SOL     OW20866   6.944   4.315   1.546 -0.2862 -0.6193 -0.5587
34419SOL    HW120867   6.987   4.292   1.628  0.1791 -3.5426 -1.5034
34419SOL    HW220868   6.926   4.409   1.554 -0.6857 -0.8452  3.0321
34420SOL     OW20869   4.014   5.048   0.586 -0.0766  0.0954  0.0159
34420SOL    HW120870   4.027   5.006   0.501 -1.4118  1.0104 -0.6734
34420SOL    HW220871   3.958   4.988   0.634  1.0443 -0.6375  0.4440
34421SOL     OW20872   8.380   1.466  10.525 -1.0323 -0.1673 -0.6747
34421SOL    HW120873   8.294   1.492  10.492 -1.4176  0.9080  1.0350
34421SOL    HW220874   8.410   1.542  10.575  0.2915 -1.0442 -0.0859
34422SOL     OW20875   1.617   8.838   2.756  0.2220  0.2762 -0.1202
34422SOL    HW120876   1.658   8.839   2.670 -0.3093 -1.1169 -0.4111
34422SOL    HW220877   1.526   8.862   2.740 -0.0208 -0.5654 -0.0458
34423SOL     OW20878   1.203   6.909   5.732 -0.0248 -0.1373 -0.4232
34423SOL    HW120879   1.242   6.843   5.789  0.6071  2.5338  2.5274
34423SOL    HW220880   1.217   6.875   5.644  1.3182 -3.3177  0.8512
34424SOL     OW20881   1.470   2.598  12.359  0.2741  0.4399 -0.1314
34424SOL    HW120882   1.421   2.661  12.411  1.0036  3.7669 -3.0493
34424SOL    HW220883   1.404   2.548  12.312 -0.3543  0.8937  0.2598
34425SOL     OW20884  13.552   1.867   7.707  0.1856  0.0031  0.3967
34425SOL    HW120885  13.525   1.861   7.798 -0.8306  0.0271  0.1089
34425SOL    HW220886  13.537   1.779   7.671 -1.7756  0.5725 -0.3460
34426SOL     OW20887   2.795   5.219  10.874 -0.1886  0.0802  0.0280
34426SOL    HW120888   2.858   5.259  10.815 -0.5069 -0.7421 -0.9037
34426SOL    HW220889   2.776   5.134  10.835 -1.2013 -0.0583  0.7665
34427SOL     OW20890   8.940  13.716   1.912 -0.3774  0.1918  0.0601
34427SOL    HW120891   8.908  13.645   1.967 -1.0450 -1.8082 -2.7074
34427SOL    HW220892   9.036  13.708   1.916 -0.3868  0.6740  1.6007
34428SOL     OW20893   3.439   5.957   9.325 -0.1861  0.6051 -0.3632
34428SOL    HW120894   3.503   5.980   9.393  0.1285  1.2525 -0.8655
34428SOL    HW220895   3.404   5.872   9.353  0.3379  0.6009  0.3177
34429SOL     OW20896   3.941   3.740  10.794  0.3609 -0.3238 -0.4780
34429SOL    HW120897   4.022   3.789  10.779  0.8985 -1.4471 -1.3337
34429SOL    HW220898   3.897   3.739  10.709  0.2760 -1.1677 -0.4321
34430SOL     OW20899  13.068  10.094  12.914  0.6905  0.2418 -0.7528
34430SOL    HW120900  13.044  10.126  13.001  0.0332 -0.8912 -0.5025
34430SOL    HW220901  13.164  10.089  12.916  0.6319 -0.7489  0.2682
34431SOL     OW20902   0.880   6.970  10.829 -0.2456 -0.0426  0.2073
34431SOL    HW120903   0.826   6.994  10.904  0.4406  1.1922  0.3254
34431SOL    HW220904   0.953   6.921  10.867  0.4275  1.1088  0.4430
34432SOL     OW20905   8.923   7.710   5.874 -0.8017  0.1417  0.0292
34432SOL    HW120906   8.997   7.766   5.851  0.2575 -0.3964  1.8981
34432SOL    HW220907   8.882   7.689   5.790  2.0672 -0.7599 -1.3091
34433SOL     OW20908  10.656  11.668  11.735 -0.5840  0.3460  0.5973
34433SOL    HW120909  10.622  11.585  11.769  1.8239 -0.5130  1.1124
34433SOL    HW220910  10.624  11.672  11.645 -0.1948 -1.5233  0.3357
34434SOL     OW20911   6.394  13.517   1.163  0.3434  0.4066  0.6596
34434SOL    HW120912   6.333  13.488   1.095  0.2712 -0.1696  0.9656
34434SOL    HW220913   6.344  13.510   1.244  0.3731  1.2550  0.7585
34435SOL     OW20914  12.520   4.041   5.532  0.2611 -0.2855 -0.0473
34435SOL    HW120915  12.441   4.008   5.489  0.1150 -0.0291  0.0228
34435SOL    HW220916  12.519   4.001   5.619 -0.1000  0.1793  0.1638
34436SOL     OW20917   7.717   2.745   1.982  0.0631 -0.1156  0.3944
34436SOL    HW120918   7.683   2.810   2.043  0.7731  2.4837 -1.8347
34436SOL    HW220919   7.796   2.784   1.946  0.7431 -2.3992 -0.7980
34437SOL     OW20920   3.633  12.616   9.866 -0.1396 -0.4152  0.1360
34437SOL    HW120921   3.675  12.540   9.906  1.0735  0.0541 -0.2038
34437SOL    HW220922   3.659  12.690   9.920  0.1112 -0.0091 -0.5291
34438SOL     OW20923   4.896   0.561  12.992 -0.0489 -0.9016 -0.2460
34438SOL    HW120924   4.842   0.550  13.070 -0.3153  1.2578 -0.0627
34438SOL    HW220925   4.840   0.533  12.919 -1.6570  1.6688 -0.0974
34439SOL     OW20926   4.613   0.630   7.651 -1.1196 -0.2650 -0.3219
34439SOL    HW120927   4.587   0.544   7.620 -2.5178  0.4710 -1.3162
34439SOL    HW220928   4.612   0.685   7.573 -2.7837  1.1987  0.6515
34440SOL     OW20929   7.244   9.099   2.690 -0.1935 -0.4911  0.7078
34440SOL    HW120930   7.155   9.091   2.724 -0.9909 -0.7009 -1.2778
34440SOL    HW220931   7.241   9.174   2.631  0.9795 -0.4610  0.6535
34441SOL     OW20932   3.266  13.750  12.476 -0.6637 -0.5364 -0.2278
34441SOL    HW120933   3.274  13.845  12.471 -0.3462 -0.6250 -1.8568
34441SOL    HW220934   3.204  13.735  12.547  0.8372  0.7975  1.4597
34442SOL     OW20935   2.442   3.570  12.626 -0.5837  0.6509 -0.4777
34442SOL    HW120936   2.397   3.614  12.698  0.1949 -0.0103  0.4344
34442SOL    HW220937   2.531   3.555  12.659 -0.6938 -1.1865 -0.9456
34443SOL     OW20938  11.972   4.426   6.853 -0.0262 -0.3808 -0.2862
34443SOL    HW120939  11.881   4.399   6.869  0.1404 -0.8683 -0.1521
34443SOL    HW220940  11.998   4.375   6.776  0.0310  0.0018 -0.5223
34444SOL     OW20941  10.215   6.430  12.863 -0.1043 -0.1944 -0.3993
34444SOL    HW120942  10.197   6.524  12.868  1.0028  0.0400 -0.5947
34444SOL    HW220943  10.130   6.390  12.843 -0.6444  0.7305  0.0048
34445SOL     OW20944   1.320   6.864   1.910  0.4363  0.2342  0.0638
34445SOL    HW120945   1.375   6.933   1.872 -0.1663  0.6714 -0.0203
34445SOL    HW220946   1.364   6.783   1.885  0.9771  0.5752 -0.1121
34446SOL     OW20947   2.826   2.633  11.573  0.4813  0.0160 -0.8128
34446SOL    HW120948   2.820   2.585  11.656  1.8713  1.9266  0.4665
34446SOL    HW220949   2.735   2.642  11.545 -0.1253  0.1329  1.0220
34447SOL     OW20950   4.953   0.961   2.436  0.3377  0.5972  0.0008
34447SOL    HW120951   5.010   0.977   2.361  0.3423  2.8546  0.4206
34447SOL    HW220952   4.969   1.035   2.495  0.8765 -1.4310  2.6161
34448SOL     OW20953   2.179   3.220   4.087 -0.5063  0.4438  0.1153
34448SOL    HW120954   2.179   3.197   4.180 -0.1112  0.0245  0.0096
34448SOL    HW220955   2.249   3.168   4.048  1.8771  3.3185  0.2356
34449SOL     OW20956   0.272   9.055   1.664 -0.4216  0.2603 -0.4705
34449SOL    HW120957   0.363   9.086   1.663 -0.6212  1.2899  2.6818
34449SOL    HW220958   0.224   9.119   1.610  0.3968  0.9658 -0.3825
34450SOL     OW20959   1.667   0.005   8.529 -0.6498 -0.3937 -0.4923
34450SOL    HW120960   1.684   0.094   8.498 -0.7682 -0.8711 -1.9932
34450SOL    HW220961   1.573   0.005   8.549 -0.6649 -0.1966 -0.5607
34451SOL     OW20962   3.032  11.816  13.953 -0.8641  0.2225 -0.1940
34451SOL    HW120963   3.049  11.910  13.955 -0.8304  0.2601 -1.3151
34451SOL    HW220964   2.987  11.802  13.870  0.5793 -0.9776 -0.8169
34452SOL     OW20965   4.003  12.610   4.321 -0.0189  0.4832  0.3338
34452SOL    HW120966   4.018  12.596   4.227 -0.9963  0.2151  0.2048
34452SOL    HW220967   3.937  12.679   4.325  0.9941  1.4556  0.8699
34453SOL     OW20968  12.221   5.102   4.972  0.5501  0.0134 -0.2202
34453SOL    HW120969  12.161   5.090   4.899  0.9984 -1.4482 -0.3992
34453SOL    HW220970  12.186   5.176   5.021 -0.9099 -0.2728 -0.7805
34454SOL     OW20971   6.988   1.154   4.448 -0.2951 -0.2638  0.2501
34454SOL    HW120972   6.893   1.158   4.461 -0.3849 -1.0851 -0.1011
34454SOL    HW220973   6.999   1.107   4.365  0.4031  0.4269 -0.0659
34455SOL     OW20974   3.133  10.961   5.342  0.6484 -0.4587  0.2677
34455SOL    HW120975   3.044  10.925   5.342  0.4968 -0.0920  0.0733
34455SOL    HW220976   3.175  10.923   5.264  0.5396 -0.3439  0.1519
34456SOL     OW20977   0.280   2.054   9.793  0.0846  0.0155  0.4485
34456SOL    HW120978   0.244   2.063   9.881  0.0812 -1.1861  0.5864
34456SOL    HW220979   0.209   2.014   9.742  0.2478  0.2745  0.0094
34457SOL     OW20980   3.009  13.460  11.047 -0.4297  0.0186 -0.0865
34457SOL    HW120981   3.008  13.552  11.075  0.8048 -0.3921  1.4893
34457SOL    HW220982   2.984  13.411  11.125 -0.4218 -1.0137 -0.7201
34458SOL     OW20983   8.188   5.520   4.554  0.0579  0.0533  0.1796
34458SOL    HW120984   8.189   5.582   4.627  1.7286  0.5676 -0.2379
34458SOL    HW220985   8.099   5.524   4.520 -0.2719  1.0848  1.1176
34459SOL     OW20986   0.547   5.072   6.911 -0.4636 -0.2174  0.5196
34459SOL    HW120987   0.577   5.006   6.849 -0.8209  0.2473 -0.1629
34459SOL    HW220988   0.626   5.120   6.935 -0.1400 -1.1123  1.3062
34460SOL     OW20989   1.443   8.617   3.916  0.0818 -0.2103 -0.0422
34460SOL    HW120990   1.406   8.614   4.004  0.7188 -1.2480  0.2105
34460SOL    HW220991   1.404   8.694   3.876 -0.8275 -0.1738  0.8767
34461SOL     OW20992   4.223   6.039   5.822 -0.0245 -0.4117  0.0767
34461SOL    HW120993   4.292   5.984   5.861 -1.7069 -1.5332  1.6200
34461SOL    HW220994   4.222   6.014   5.730  2.6473  0.7767 -0.3605
34462SOL     OW20995   5.299  12.769   5.873  0.3463  0.1069 -0.5539
34462SOL    HW120996   5.386  12.807   5.857  0.5247 -0.6288 -1.3955
34462SOL    HW220997   5.306  12.679   5.841 -0.4306 -0.2749  0.2952
34463SOL     OW20998  12.713   2.528  11.318  0.3433  0.1945  0.3323
34463SOL    HW120999  12.679   2.474  11.247 -0.9050  1.0014  0.2835
34463SOL    HW221000  12.792   2.568  11.282 -0.8105  1.3961 -1.0166
34464SOL     OW21001   9.147  10.286   2.473 -0.3592  0.4519  0.4074
34464SOL    HW121002   9.204  10.314   2.545  0.9690  0.1756 -0.5031
34464SOL    HW221003   9.160  10.352   2.406 -2.2521  1.1774  0.7086
34465SOL     OW21004   8.423  10.996   2.749 -0.1133  0.0400  0.1798
34465SOL    HW121005   8.481  10.921   2.751  1.3960  1.1360  3.6202
34465SOL    HW221006   8.439  11.036   2.663  0.2156 -2.5886 -1.0689
34466SOL     OW21007   1.995   1.115  10.074 -0.2625 -0.0180  0.2296
34466SOL    HW121008   2.010   1.134  10.166  1.4844  0.6945 -0.1649
34466SOL    HW221009   1.958   1.196  10.039  2.5839  1.1521 -0.4102
34467SOL     OW21010   2.779   5.000  10.314 -0.4923 -0.0526 -0.1310
34467SOL    HW121011   2.848   4.935  10.301  0.6596  0.7448  1.6298
34467SOL    HW221012   2.697   4.953  10.298  0.3650 -1.5753 -0.1679
34468SOL     OW21013   3.593  13.322  10.963 -0.5454 -0.3370  0.1333
34468SOL    HW121014   3.623  13.284  10.881 -0.4815  1.5411 -0.7620
34468SOL    HW221015   3.673  13.343  11.011 -0.5186  0.2633 -0.1592
34469SOL     OW21016   7.063   6.200   2.692 -0.1115  0.3806  0.2917
34469SOL    HW121017   7.015   6.117   2.695 -1.1919  0.7308 -3.2458
34469SOL    HW221018   6.996   6.267   2.702 -0.0217  0.8346 -1.7897
34470SOL     OW21019   4.851  12.455   4.581  0.1846  0.0996 -0.4394
34470SOL    HW121020   4.793  12.530   4.573 -0.0521 -0.1370 -0.9601
34470SOL    HW221021   4.931  12.491   4.619  0.0038  0.5809 -0.5048
34471SOL     OW21022   3.618  12.301  11.995 -0.1463  0.3566  0.1179
34471SOL    HW121023   3.692  12.320  12.054 -1.0967  1.6077  0.9535
34471SOL    HW221024   3.637  12.214  11.961  0.2770 -0.5576  2.5276
34472SOL     OW21025   5.141  11.735   4.735  0.6795 -0.0548 -0.2364
34472SOL    HW121026   5.057  11.766   4.703  1.4566  0.7911 -1.5669
34472SOL    HW221027   5.167  11.799   4.802 -0.3281 -1.0787  1.1897
34473SOL     OW21028   0.596  14.011   4.122  0.2177  0.1160 -0.3208
34473SOL    HW121029   0.569  14.046   4.037 -0.0833  1.2339  0.2169
34473SOL    HW221030   0.678  14.057   4.141 -0.3270  0.7616  0.5268
34474SOL     OW21031   6.908   3.163   6.126  0.2241 -0.1234 -0.4909
34474SOL    HW121032   6.894   3.107   6.049 -3.7397 -0.0904 -0.0163
34474SOL    HW221033   6.930   3.103   6.196 -2.3582 -1.0784 -0.3708
34475SOL     OW21034  12.545   0.603   3.872 -0.4266  0.4219  0.2224
34475SOL    HW121035  12.523   0.684   3.917 -0.2231 -0.0325  1.1809
34475SOL    HW221036  12.641   0.602   3.870 -0.4279  0.2235  0.1966
34476SOL     OW21037   5.463   9.119   5.247  0.0850  0.3720  0.0683
34476SOL    HW121038   5.532   9.070   5.292  0.9075  1.4056 -0.0225
34476SOL    HW221039   5.509   9.179   5.189 -0.9065  0.7680 -0.3457
34477SOL     OW21040   5.521  12.913   5.831  0.4369 -0.2857 -0.0636
34477SOL    HW121041   5.513  12.874   5.744 -1.7230 -0.1376  0.0199
34477SOL    HW221042   5.592  12.977   5.822  0.6361 -0.6783 -1.5539
34478SOL     OW21043   4.763   9.074   3.009  0.0067  0.0309  0.2056
34478SOL    HW121044   4.813   9.149   2.978  0.1404  0.9447  2.4155
34478SOL    HW221045   4.794   9.061   3.099 -0.0534 -2.6532 -0.0805
34479SOL     OW21046   5.011   9.306  13.968 -0.6771 -0.4283 -0.1259
34479SOL    HW121047   5.000   9.217  13.934 -0.4316  0.3121 -2.3525
34479SOL    HW221048   4.932   9.352  13.940 -2.2295 -0.5478  3.5468
34480SOL     OW21049   6.483   9.955   4.875  0.2453 -0.9072  0.1691
34480SOL    HW121050   6.568   9.926   4.842  0.0218  0.0782 -1.3445
34480SOL    HW221051   6.427   9.878   4.866  1.1811 -1.9389  2.2471
34481SOL     OW21052   0.916  10.123  13.814 -0.7457 -0.2798  0.5106
34481SOL    HW121053   0.971  10.167  13.879 -0.1997 -0.7464  0.3699
34481SOL    HW221054   0.977  10.071  13.762 -1.2082 -0.0883 -0.2381
34482SOL     OW21055  12.820   4.697   4.524 -0.0610 -0.0911  0.3158
34482SOL    HW121056  12.853   4.639   4.593 -0.5779 -0.8601 -0.0644
34482SOL    HW221057  12.731   4.667   4.508 -0.6175  1.3006  0.6213
34483SOL     OW21058   5.652  12.989   1.206 -0.1913 -0.3505  0.0301
34483SOL    HW121059   5.558  13.007   1.203  0.0471  1.2688  1.1588
34483SOL    HW221060   5.659  12.901   1.244 -1.2276 -0.1896  0.6207
34484SOL     OW21061   0.126   6.063   9.820  0.4876 -0.5466  0.4054
34484SOL    HW121062   0.190   5.993   9.806 -1.3361 -1.8696 -2.1063
34484SOL    HW221063   0.096   6.049   9.910  1.7347 -1.6029  0.7057
34485SOL     OW21064  12.336   6.421  12.297 -0.1641 -0.2174 -0.0503
34485SOL    HW121065  12.391   6.448  12.371 -0.6126 -0.5501  0.4147
34485SOL    HW221066  12.293   6.501  12.267 -0.9887 -0.2818  0.9012
34486SOL     OW21067   2.964   6.686   1.422 -0.3234 -0.1265 -0.1071
34486SOL    HW121068   2.998   6.729   1.344 -2.9593  0.0562 -1.2552
34486SOL    HW221069   3.022   6.611   1.436  0.7655  0.3945 -1.6322
34487SOL     OW21070   6.799   0.552  13.657  0.3834 -0.1093 -0.3384
34487SOL    HW121071   6.755   0.539  13.573 -1.4300  0.1822  0.5265
34487SOL    HW221072   6.729   0.552  13.722  1.2847  3.1684  0.8614
34488SOL     OW21073  13.807   9.290   5.621  0.3052 -0.3626 -0.7135
34488SOL    HW121074  13.895   9.273   5.588  0.3587  2.0164 -2.0157
34488SOL    HW221075  13.820   9.319   5.711  1.4775  4.2632 -2.1285
34489SOL     OW21076   6.713   4.455   0.721  0.7728  0.3221  0.1386
34489SOL    HW121077   6.776   4.485   0.656  0.5001  0.7657  0.0742
34489SOL    HW221078   6.694   4.364   0.697  0.3271  0.6229 -0.6741
34490SOL     OW21079  11.350  13.292   9.403  0.1388 -0.8147  0.8133
34490SOL    HW121080  11.415  13.343   9.452 -0.1005 -0.6861  0.9967
34490SOL    HW221081  11.387  13.286   9.315 -0.0153  0.0160  0.6861
34491SOL     OW21082   6.567   6.017   5.999  0.2483 -0.3230 -0.0021
34491SOL    HW121083   6.631   6.063   5.946 -0.7722 -1.2218 -2.1599
34491SOL    HW221084   6.545   5.939   5.948 -0.8626 -1.2326  1.7459
34492SOL     OW21085  13.281   1.697   2.061 -0.0489 -0.4124  0.0334
34492SOL    HW121086  13.236   1.615   2.043  0.0363 -0.3695 -0.3768
34492SOL    HW221087  13.229   1.763   2.016 -1.8826  0.2117  2.7780
34493SOL     OW21088   7.211   1.754  11.208  0.0132 -0.6362 -0.0070
34493SOL    HW121089   7.297   1.760  11.249  0.8761 -2.5043 -1.4064
34493SOL    HW221090   7.186   1.662  11.219  0.0343 -1.1172 -3.0407
34494SOL     OW21091   0.970   7.093   3.184  1.2144  0.0950 -0.2161
34494SOL    HW121092   0.909   7.167   3.183  0.8053 -0.1682 -2.6894
34494SOL    HW221093   1.025   7.107   3.261 -1.7844  0.4477  2.0263
34495SOL     OW21094   9.680  12.500   3.663  0.0829  0.1694  0.1564
34495SOL    HW121095   9.660  12.451   3.584 -0.1417  1.1384 -0.4090
34495SOL    HW221096   9.596  12.541   3.688  0.2750  0.3232  0.5676
34496SOL     OW21097  12.754   4.666   3.982  0.3050  0.1955  0.7915
34496SOL    HW121098  12.731   4.574   3.994 -0.4035  0.4393  1.3653
34496SOL    HW221099  12.802   4.689   4.061 -0.4161  0.5843  1.1297
34497SOL     OW21100   3.661   7.861   3.994  0.0778  0.1473  0.2482
34497SOL    HW121101   3.687   7.771   3.972  3.5236  0.7229  1.3929
34497SOL    HW221102   3.582   7.850   4.048 -1.1749 -1.9525 -1.8156
34498SOL     OW21103   5.739   0.323   9.450 -0.2344 -0.1063 -0.4621
34498SOL    HW121104   5.827   0.338   9.414  0.2843 -0.3952  0.6448
34498SOL    HW221105   5.734   0.228   9.462 -0.0910  0.0534  0.9585
34499SOL     OW21106   0.691  11.908   4.941  0.0210 -0.4468  0.0908
34499SOL    HW121107   0.694  11.913   5.036 -2.4528  3.3176  0.1762
34499SOL    HW221108   0.782  11.888   4.915  1.1233  0.1272  3.1522
34500SOL     OW21109   2.123   0.157   2.059  0.1196 -1.0638  0.3027
34500SOL    HW121110   2.172   0.143   2.141 -1.1672 -1.7874  0.9718
34500SOL    HW221111   2.053   0.217   2.083 -2.1970 -3.6774  0.5771
34501SOL     OW21112  11.484  12.078  12.466 -0.9612 -0.2104  0.3620
34501SOL    HW121113  11.430  12.033  12.401 -0.4666 -1.1615  0.5844
34501SOL    HW221114  11.548  12.126  12.413  0.6286 -2.4601  0.0772
34502SOL     OW21115  13.799  13.013   3.717 -0.4920  0.3458  0.1926
34502SOL    HW121116  13.823  13.045   3.630  0.9862 -0.9125  0.0806
34502SOL    HW221117  13.839  13.075   3.778  1.2058 -0.4579 -0.0359
34503SOL     OW21118   9.151  13.409   0.179  0.0385  0.5174  0.0518
34503SOL    HW121119   9.108  13.494   0.190 -0.2893  0.2375  0.9897
34503SOL    HW221120   9.195  13.393   0.262 -0.8256 -0.7295  0.3002
34504SOL     OW21121   6.484   8.562   1.666  0.4683 -0.8740  0.2994
34504SOL    HW121122   6.535   8.526   1.594  0.3826 -0.7826  0.1914
34504SOL    HW221123   6.399   8.518   1.660 -0.1841  0.4665 -0.8004
34505SOL     OW21124   3.611   9.320   8.089 -0.3490 -0.2159 -0.3303
34505SOL    HW121125   3.656   9.354   8.012 -0.1481  1.0666  0.3271
34505SOL    HW221126   3.522   9.300   8.058 -0.1226 -0.2156 -1.0008
34506SOL     OW21127   2.567   6.629  10.629 -0.1648 -0.0217  0.6760
34506SOL    HW121128   2.646   6.578  10.648 -1.5203 -2.4971  0.0525
34506SOL    HW221129   2.516   6.627  10.710 -0.4343 -0.0346  0.5082
34507SOL     OW21130   8.692  11.180   4.986 -0.1384  0.0292 -0.0262
34507SOL    HW121131   8.754  11.247   5.015 -0.6690  0.7584 -0.5681
34507SOL    HW221132   8.716  11.102   5.038 -0.2627  0.9385  1.4449
34508SOL     OW21133   0.591   8.353   9.304 -0.4068 -0.1735 -0.1466
34508SOL    HW121134   0.651   8.390   9.239 -0.9143  0.1513 -0.4355
34508SOL    HW221135   0.645   8.291   9.353  0.4276  0.8598  0.2680
34509SOL     OW21136  14.073   8.507   0.025  0.9049  0.3514 -0.7326
34509SOL    HW121137  14.011   8.561  -0.024  0.8289  0.4312 -0.5483
34509SOL    HW221138  14.030   8.422   0.033 -0.0912  0.9621  1.1501
34510SOL     OW21139   3.746  13.078   5.626 -0.1769 -0.2684 -0.0155
34510SOL    HW121140   3.772  13.092   5.535 -0.4967 -2.3916 -0.4866
34510SOL    HW221141   3.653  13.098   5.628 -0.1183  0.0169 -0.0912
34511SOL     OW21142   1.011   9.335   4.553 -0.1660 -0.1918 -0.2168
34511SOL    HW121143   1.007   9.278   4.631  1.1910 -0.8118 -0.5767
34511SOL    HW221144   0.954   9.291   4.490 -0.2150 -0.4141 -0.0232
34512SOL     OW21145   1.298  10.720   1.517 -0.5437 -0.1668 -0.5251
34512SOL    HW121146   1.338  10.635   1.534 -1.0712 -0.2370  0.4672
34512SOL    HW221147   1.263  10.713   1.428  0.7837 -0.4232 -1.0432
34513SOL     OW21148  10.218   0.497  10.249  0.2250 -0.0040 -0.1210
34513SOL    HW121149  10.302   0.464  10.217  0.3581  0.4831 -0.2738
34513SOL    HW221150  10.231   0.508  10.343  0.3326  0.0601 -0.1424
34514SOL     OW21151   1.962   6.157   7.695  0.1228  0.9227 -0.6082
34514SOL    HW121152   1.991   6.163   7.786  0.4101 -2.7703 -0.3247
34514SOL    HW221153   2.042   6.138   7.646  0.2127  4.1427 -1.9835
34515SOL     OW21154   2.356   8.388   2.096 -0.3649 -0.0496  0.5006
34515SOL    HW121155   2.363   8.480   2.070 -1.2088 -0.0651  0.1918
34515SOL    HW221156   2.268   8.379   2.132 -0.4020 -0.8014  0.2477
34516SOL     OW21157   9.622   2.645   9.191 -0.0678 -0.0066 -0.7296
34516SOL    HW121158   9.560   2.579   9.161 -0.7426  0.6227 -0.7712
34516SOL    HW221159   9.611   2.718   9.129 -0.1141  0.5579 -0.0696
34517SOL     OW21160  12.102   9.708   1.031 -0.6952  0.2939  0.1654
34517SOL    HW121161  12.194   9.690   1.052  0.5341  2.0543 -2.9363
34517SOL    HW221162  12.058   9.624   1.041  1.0913 -0.4721  2.3278
34518SOL     OW21163  11.912   4.041   0.895 -0.0054 -0.2298  0.4093
34518SOL    HW121164  11.881   3.976   0.957 -1.3747  1.0592  1.1508
34518SOL    HW221165  11.971   3.993   0.837 -0.7493 -2.0440  1.0808
34519SOL     OW21166   3.738  12.236   6.591  0.4145  0.1380  0.1336
34519SOL    HW121167   3.680  12.191   6.530 -0.2539  1.5118 -0.2926
34519SOL    HW221168   3.683  12.257   6.666  0.7489  0.1297  0.3844
34520SOL     OW21169   5.441   8.661  12.751 -0.0735 -0.1300 -0.2486
34520SOL    HW121170   5.371   8.712  12.710  0.6574  0.7450 -0.4524
34520SOL    HW221171   5.478   8.721  12.816  0.7722 -0.4150 -0.4622
34521SOL     OW21172   4.779   6.216  13.466 -0.2377 -0.8097 -0.1052
34521SOL    HW121173   4.700   6.201  13.415  0.2702 -0.7274 -0.9380
34521SOL    HW221174   4.772   6.306  13.497  0.3836 -0.1521 -1.7614
34522SOL     OW21175  10.305   5.136   2.636 -0.3719 -0.4134  0.3117
34522SOL    HW121176  10.265   5.219   2.662 -1.7241 -1.1405  0.6687
34522SOL    HW221177  10.381   5.161   2.584 -0.6654  1.0458  0.5401
34523SOL     OW21178   8.174   3.779  12.265 -0.1159  0.1917  0.1857
34523SOL    HW121179   8.177   3.685  12.284 -0.0194  0.0286 -0.6139
34523SOL    HW221180   8.083   3.797  12.245  0.1486 -0.0902 -1.3750
34524SOL     OW21181   6.089   0.974   5.994  0.0837  0.4836  0.2276
34524SOL    HW121182   6.032   0.909   6.035  0.8876 -1.3413 -1.3657
34524SOL    HW221183   6.175   0.957   6.032  0.7378 -0.9109 -1.6974
34525SOL     OW21184  14.052   4.281   3.855  0.0358 -0.0134 -0.3529
34525SOL    HW121185  14.075   4.319   3.940  0.8839 -1.6535  0.1727
34525SOL    HW221186  14.049   4.187   3.870 -0.2983 -0.3034 -2.0417
34526SOL     OW21187   3.744  11.258   1.284 -0.2012 -0.2530 -0.1668
34526SOL    HW121188   3.815  11.283   1.225  0.2015 -0.1994  0.3386
34526SOL    HW221189   3.787  11.209   1.354 -0.6809 -0.3281  0.0771
34527SOL     OW21190   9.570   5.773  11.705 -0.6884  0.1390 -0.0556
34527SOL    HW121191   9.557   5.683  11.673 -1.6671  0.2010  0.1498
34527SOL    HW221192   9.530   5.773  11.792 -1.2217  0.9265 -0.2942
34528SOL     OW21193   1.482   5.771   5.592 -0.3387 -0.2040  0.0658
34528SOL    HW121194   1.404   5.827   5.592 -0.3323 -0.1946  0.1350
34528SOL    HW221195   1.549   5.822   5.548 -0.3224 -0.1420  0.1615
34529SOL     OW21196  13.925  12.202  11.737 -0.4086 -0.3476  0.4923
34529SOL    HW121197  13.851  12.195  11.798 -0.8373 -1.5334 -0.1198
34529SOL    HW221198  13.931  12.295  11.716  1.0158  0.4634  3.8454
34530SOL     OW21199   8.785  13.459   0.525  0.3795  0.6933  0.0273
34530SOL    HW121200   8.836  13.444   0.445  1.5627 -1.1416  1.0527
34530SOL    HW221201   8.748  13.373   0.546  0.2259  1.1055  1.5437
34531SOL     OW21202   0.757  13.153   3.747 -0.0613 -0.1857 -0.0078
34531SOL    HW121203   0.717  13.223   3.697 -1.3481 -1.0797 -0.2707
34531SOL    HW221204   0.696  13.080   3.740  0.9438 -1.1411  0.7731
34532SOL     OW21205  10.167  11.333   4.797  0.0443 -0.1734  0.1397
34532SOL    HW121206  10.089  11.381   4.770 -0.1028 -0.9328 -0.8212
34532SOL    HW221207  10.184  11.271   4.726  2.1018  0.6214 -0.1570
34533SOL     OW21208  13.269   2.190   9.027 -0.1983 -0.1171 -0.2221
34533SOL    HW121209  13.231   2.113   8.984  0.2120 -0.2520 -0.3567
34533SOL    HW221210  13.237   2.185   9.117 -0.5705 -0.1737 -0.3541
34534SOL     OW21211  10.331  11.904   2.231  0.8342  0.0005  0.3698
34534SOL    HW121212  10.357  11.907   2.139 -0.5744  1.3183 -0.0248
34534SOL    HW221213  10.343  11.813   2.256 -0.0861 -0.6860 -1.5246
34535SOL     OW21214  11.764   9.498   3.427 -0.0415  0.4784  0.1963
34535SOL    HW121215  11.797   9.515   3.516 -0.5741 -0.6576  0.6393
34535SOL    HW221216  11.843   9.483   3.375  0.2819  1.3040  0.4390
34536SOL     OW21217  10.027   5.394   5.396 -0.2045 -0.8537 -0.1438
34536SOL    HW121218  10.050   5.305   5.422 -0.2184 -0.6769  0.4858
34536SOL    HW221219  10.111   5.440   5.388 -0.2408 -0.6916  0.3858
34537SOL     OW21220   0.970   1.704   8.234  1.0869  0.3851  0.0024
34537SOL    HW121221   1.065   1.703   8.245  1.1397 -1.2034 -0.4500
34537SOL    HW221222   0.941   1.776   8.290  2.5476  0.9113  0.1330
34538SOL     OW21223  10.870   3.206   0.069  0.1305 -0.0111  0.2295
34538SOL    HW121224  10.947   3.197   0.124 -0.3642 -1.6741  0.7149
34538SOL    HW221225  10.796   3.208   0.130 -0.3150 -0.2146 -0.2906
34539SOL     OW21226  10.661   9.378   4.635  0.5885  0.5416 -0.4905
34539SOL    HW121227  10.569   9.403   4.649  1.0185  1.2033  1.6338
34539SOL    HW221228  10.660   9.283   4.635 -0.1364  0.5377 -0.8403
34540SOL     OW21229   7.100   0.037  13.392 -0.6356  0.6738 -0.0130
34540SOL    HW121230   7.130   0.031  13.301 -0.7410  1.7927 -0.1318
34540SOL    HW221231   7.016  -0.009  13.393 -1.0745  1.4485 -0.6901
34541SOL     OW21232  11.502  10.212   4.977 -0.8377 -0.9191 -0.1866
34541SOL    HW121233  11.548  10.160   4.911  0.9107  0.6280 -0.2598
34541SOL    HW221234  11.503  10.301   4.943 -2.9992 -0.6277  0.3501
34542SOL     OW21235   5.589   5.866   4.942  0.8949  0.5530 -0.1487
34542SOL    HW121236   5.513   5.809   4.951 -0.0687  1.9019  0.6723
34542SOL    HW221237   5.640   5.852   5.022 -0.0204  1.7542  0.6769
34543SOL     OW21238   2.768  13.210   4.855 -0.6851  0.1063 -0.2712
34543SOL    HW121239   2.772  13.195   4.761  0.7198 -1.0669 -0.0661
34543SOL    HW221240   2.676  13.197   4.878 -1.1299  0.8784 -1.5362
34544SOL     OW21241  10.784   4.455   8.476  0.0349 -0.4147 -0.1621
34544SOL    HW121242  10.843   4.529   8.461 -0.7756  0.1766 -0.4661
34544SOL    HW221243  10.815   4.417   8.559  2.0209 -1.2923 -1.2194
34545SOL     OW21244   8.723  13.656   5.676 -0.5759 -0.3518  0.0091
34545SOL    HW121245   8.671  13.658   5.596  0.0890  2.0621 -0.4458
34545SOL    HW221246   8.803  13.705   5.654  0.1620 -0.6769  1.7897
34546SOL     OW21247   9.698   8.120  10.034 -0.1210  0.4878  0.2231
34546SOL    HW121248   9.627   8.102   9.973  0.5144  0.2773 -0.4752
34546SOL    HW221249   9.707   8.039  10.084 -0.4536  0.5557  0.3914
34547SOL     OW21250   0.088   4.733  10.851 -0.6484  0.0942 -0.1856
34547SOL    HW121251   0.004   4.748  10.808 -0.3479 -0.0235 -0.8218
34547SOL    HW221252   0.064   4.690  10.934 -1.2266  0.2601 -0.2570
34548SOL     OW21253  10.498   0.900   7.951  0.3309 -0.3812 -0.1690
34548SOL    HW121254  10.444   0.935   8.023 -0.5730 -1.8339 -0.1126
34548SOL    HW221255  10.527   0.815   7.982 -0.0577 -1.0225 -1.5128
34549SOL     OW21256  13.501  10.757   0.775  0.6533  0.3077  0.2567
34549SOL    HW121257  13.522  10.845   0.742 -0.1525  0.3857 -0.0603
34549SOL    HW221258  13.479  10.771   0.867  1.3429  0.3167  0.4240
34550SOL     OW21259   5.098   0.670   9.698 -0.7991 -0.1616  0.2797
34550SOL    HW121260   5.129   0.691   9.786 -1.1602  0.0884  0.3497
34550SOL    HW221261   5.069   0.754   9.662  0.6774  0.0093 -0.6212
34551SOL     OW21262   3.614  11.957   8.813 -0.0132  0.3494  0.1887
34551SOL    HW121263   3.628  12.048   8.839 -0.4444  0.6714 -0.6368
34551SOL    HW221264   3.689  11.909   8.847  0.5813  1.1459  0.0289
34552SOL     OW21265   2.791  11.219   5.980  0.0395 -0.6967 -0.0424
34552SOL    HW121266   2.714  11.206   6.035 -1.2298 -0.0378 -1.5798
34552SOL    HW221267   2.775  11.303   5.936  1.8743 -0.3158 -0.0409
34553SOL     OW21268   1.773   0.104   0.215 -0.2341  0.5097 -0.7661
34553SOL    HW121269   1.850   0.112   0.159 -1.2585  4.0099 -1.9182
34553SOL    HW221270   1.769   0.187   0.264 -1.6838 -0.7509  1.4571
34554SOL     OW21271   7.198   8.109   8.089  0.1506 -0.0691  0.0186
34554SOL    HW121272   7.141   8.076   8.019  1.4240 -1.2197 -0.5080
34554SOL    HW221273   7.235   8.190   8.053  1.9204 -1.3838 -1.2966
34555SOL     OW21274   8.773   0.538  13.053 -0.2060  0.6812 -0.0745
34555SOL    HW121275   8.773   0.587  12.971  1.1562  0.8360 -0.0033
34555SOL    HW221276   8.763   0.447  13.027 -2.2474  0.9098 -0.2401
34556SOL     OW21277   9.720   2.108   4.155  0.3710 -0.0340  0.2753
34556SOL    HW121278   9.641   2.149   4.189  0.8207  2.5849 -1.5215
34556SOL    HW221279   9.692   2.020   4.128 -1.5136  0.2617  1.1136
34557SOL     OW21280   5.471   5.264   7.526  0.1889  0.8376  0.9542
34557SOL    HW121281   5.555   5.239   7.488  0.1196 -1.7398  2.2687
34557SOL    HW221282   5.494   5.317   7.602  0.6678  0.0964  1.3416
34558SOL     OW21283  13.842  12.371   1.181  0.1250  0.3046  0.3259
34558SOL    HW121284  13.910  12.341   1.121 -0.4705  1.4780 -0.9873
34558SOL    HW221285  13.778  12.299   1.183  0.8880 -0.3855  0.8053
34559SOL     OW21286   5.853   2.017  13.448  0.4615  0.4245 -0.0991
34559SOL    HW121287   5.830   2.081  13.515  0.6560 -0.5038  0.8717
34559SOL    HW221288   5.923   2.058  13.398  0.3641  1.0915  0.3101
34560SOL     OW21289   7.562  12.925  10.710  0.2272 -0.2731 -0.2093
34560SOL    HW121290   7.504  12.871  10.657  1.5155 -1.3612 -0.5527
34560SOL    HW221291   7.541  13.015  10.684 -0.1179 -0.7211 -1.5682
34561SOL     OW21292  11.516  13.361   0.315 -0.0315  0.1680 -0.2712
34561SOL    HW121293  11.560  13.294   0.367 -0.5814  1.1415  1.5355
34561SOL    HW221294  11.583  13.394   0.256  0.8225 -0.4858  0.3199
34562SOL     OW21295   7.938  11.401   3.603 -0.0528  0.2143 -0.6653
34562SOL    HW121296   7.888  11.410   3.684  1.2999 -0.5940  0.3025
34562SOL    HW221297   7.873  11.414   3.534 -1.3529  0.4077  0.5275
34563SOL     OW21298   7.644   7.437   8.146 -0.0435  0.3798  0.4142
34563SOL    HW121299   7.737   7.441   8.167  0.3961 -1.0724 -1.0088
34563SOL    HW221300   7.603   7.394   8.221  0.6414 -0.0960  0.5234
34564SOL     OW21301   2.009  13.649   1.352  0.2436  0.4307  0.4810
34564SOL    HW121302   1.984  13.557   1.359  0.2457  0.2796 -1.0020
34564SOL    HW221303   1.946  13.696   1.406  0.0588 -0.4156  1.0171
34565SOL     OW21304   8.514  11.625   8.284 -0.2204  0.2455 -0.2428
34565SOL    HW121305   8.505  11.704   8.337  1.1192 -0.2062  0.7029
34565SOL    HW221306   8.608  11.609   8.279 -0.4239 -0.8488 -1.1063
34566SOL     OW21307   2.684  11.055  12.312  0.6504  0.5167 -0.0168
34566SOL    HW121308   2.731  11.103  12.244  0.9030  0.3385  0.0278
34566SOL    HW221309   2.612  11.112  12.337 -0.3627 -0.0280 -1.5039
34567SOL     OW21310  11.824   1.223  14.086 -0.7642  0.0264 -0.2860
34567SOL    HW121311  11.915   1.201  14.103 -0.3604  1.1544 -0.8972
34567SOL    HW221312  11.796   1.162  14.018 -0.8414 -1.0868  0.6973
34568SOL     OW21313   0.339   5.533   0.284  0.2911 -0.0240  0.2318
34568SOL    HW121314   0.415   5.548   0.340  0.8196 -2.5523  0.3028
34568SOL    HW221315   0.268   5.510   0.344  0.7025 -2.1386 -0.0113
34569SOL     OW21316  10.117   2.756   1.353 -0.6226  0.2189 -0.4199
34569SOL    HW121317  10.096   2.845   1.379 -1.4178  0.2105 -1.0221
34569SOL    HW221318  10.213   2.752   1.355 -0.6102  0.6683  0.9673
34570SOL     OW21319  10.555   1.755   3.815 -0.2227  0.0837 -0.1290
34570SOL    HW121320  10.585   1.748   3.724 -1.6039 -0.2821 -0.5904
34570SOL    HW221321  10.595   1.680   3.859 -1.0723 -0.8589 -0.9127
34571SOL     OW21322   6.454   3.214  12.444 -0.2498  0.5914 -0.0865
34571SOL    HW121323   6.438   3.123  12.467  0.8196  0.3242 -0.3641
34571SOL    HW221324   6.414   3.224  12.357  0.5017  0.1111 -0.4912
34572SOL     OW21325   1.290   8.194  13.513  0.2334  0.5369  0.1533
34572SOL    HW121326   1.369   8.238  13.483  0.0467  0.5949 -0.2643
34572SOL    HW221327   1.219   8.234  13.462 -0.0681  0.4966  0.5308
34573SOL     OW21328   3.564   4.258   7.688  0.4451 -0.2355  0.2880
34573SOL    HW121329   3.588   4.246   7.596  0.7918  0.4466  0.2812
34573SOL    HW221330   3.557   4.169   7.722  0.6821 -0.4912 -0.3051
34574SOL     OW21331  12.126   4.260   4.328  0.0139  0.0573 -0.5479
34574SOL    HW121332  12.069   4.185   4.313 -1.5132  1.2477 -0.9109
34574SOL    HW221333  12.111   4.317   4.252 -0.8740  1.9618  0.9908
34575SOL     OW21334   4.290   7.113   4.802  0.1828  0.0790  0.4254
34575SOL    HW121335   4.300   7.020   4.779  3.5232  0.6969 -1.3480
34575SOL    HW221336   4.232   7.148   4.734 -0.6835 -0.5890  0.8055
34576SOL     OW21337   4.303  12.835   4.555  0.0930 -0.0867  0.1265
34576SOL    HW121338   4.318  12.745   4.527  0.2620 -0.9617  2.7604
34576SOL    HW221339   4.239  12.869   4.493 -2.6459 -3.1661  0.9452
34577SOL     OW21340   7.582   6.844   0.586  0.3008 -0.1603  0.3285
34577SOL    HW121341   7.574   6.940   0.585  0.8781 -0.1042  0.5926
34577SOL    HW221342   7.631   6.825   0.666  1.3895 -0.5697 -0.4063
34578SOL     OW21343   2.504   1.596  13.717  0.5212 -0.0427 -0.4456
34578SOL    HW121344   2.572   1.661  13.698 -0.2017  0.1585 -2.6078
34578SOL    HW221345   2.457   1.586  13.635 -1.6350 -0.7109  0.7982
34579SOL     OW21346   5.631  12.748   4.692 -0.1572  0.1781 -0.0373
34579SOL    HW121347   5.540  12.777   4.690 -0.4250  0.3033  3.9918
34579SOL    HW221348   5.627  12.653   4.688 -0.5170  0.1756  0.3523
34580SOL     OW21349   2.688  10.086   7.093 -0.4274  0.1741  0.5427
34580SOL    HW121350   2.683  10.164   7.148 -0.1942  0.2211  0.4988
34580SOL    HW221351   2.759  10.105   7.032 -2.6574  1.4790 -1.8753
34581SOL     OW21352   6.138   2.019   1.296 -0.0576  0.2988 -0.1360
34581SOL    HW121353   6.108   2.095   1.244 -0.3104 -0.4392 -1.1113
34581SOL    HW221354   6.148   1.949   1.231  0.6090 -0.3827  0.6854
34582SOL     OW21355   5.000   4.335   8.139  0.0691 -0.2317 -0.4595
34582SOL    HW121356   5.009   4.419   8.185 -0.5605  0.0030 -0.7606
34582SOL    HW221357   5.083   4.325   8.092 -1.0436  1.8526 -3.1150
34583SOL     OW21358   0.906   5.291  12.130 -0.1758 -0.1679 -0.3879
34583SOL    HW121359   0.985   5.335  12.097 -0.6200 -0.5000 -1.9572
34583SOL    HW221360   0.897   5.324  12.220  1.3109  0.4605 -0.4317
34584SOL     OW21361  10.371  13.474   3.667  0.1720 -0.2472  0.2762
34584SOL    HW121362  10.338  13.548   3.616 -1.9708 -0.5804  1.0843
34584SOL    HW221363  10.463  13.495   3.683  0.0272  1.4472 -0.8881
34585SOL     OW21364   4.594   7.982   1.196  0.2893  0.3003 -0.4866
34585SOL    HW121365   4.580   7.898   1.240 -0.5773 -0.5468 -2.2332
34585SOL    HW221366   4.527   8.039   1.233  0.7021  0.1420  0.5238
34586SOL     OW21367   2.625   3.652   9.617 -0.3908  0.6832  0.3304
34586SOL    HW121368   2.618   3.589   9.545 -0.9491  2.3000 -1.0963
34586SOL    HW221369   2.666   3.602   9.688  1.8214 -0.5616 -1.6495
34587SOL     OW21370   4.899  10.852   8.348 -0.2970  0.2735 -0.5396
34587SOL    HW121371   4.887  10.806   8.431 -0.2732  1.2111 -0.0008
34587SOL    HW221372   4.966  10.802   8.302  0.2419  0.1697  0.3355
34588SOL     OW21373   3.992  12.822   5.158 -0.1411 -0.1340  0.5642
34588SOL    HW121374   4.033  12.736   5.163 -0.9495 -0.5247  0.7300
34588SOL    HW221375   4.052  12.875   5.105  0.0656 -0.9728 -0.0603
34589SOL     OW21376   4.402   4.386  11.826  0.2961 -0.2513  0.0324
34589SOL    HW121377   4.307   4.391  11.812  0.5777 -1.1292 -2.6535
34589SOL    HW221378   4.440   4.421  11.746  2.1791 -3.1784 -0.5236
34590SOL     OW21379   3.056  12.593   1.137  0.4011 -0.0654 -0.0150
34590SOL    HW121380   3.054  12.508   1.181 -0.2870 -0.2832 -0.4522
34590SOL    HW221381   2.964  12.616   1.123  0.5898  0.0399 -1.2508
34591SOL     OW21382   6.821   5.272   1.205  0.2038 -0.2394 -0.2195
34591SOL    HW121383   6.740   5.234   1.240 -0.7508  0.3893 -1.6433
34591SOL    HW221384   6.889   5.209   1.229 -0.6242 -0.5929  1.3612
34592SOL     OW21385  10.284  13.094  13.467 -0.1770  1.1489  0.0406
34592SOL    HW121386  10.264  13.168  13.525  0.2898  0.5151  1.0377
34592SOL    HW221387  10.329  13.031  13.523 -1.3371 -0.2829 -0.5766
34593SOL     OW21388  10.277  10.008  10.343 -0.0452  0.1728  0.4746
34593SOL    HW121389  10.339   9.938  10.367 -1.2368 -1.6429 -1.3616
34593SOL    HW221390  10.332  10.084  10.326  1.7434 -1.3778 -1.1012
34594SOL     OW21391  10.278   2.500   1.760 -0.6620  0.0662 -0.7537
34594SOL    HW121392  10.277   2.420   1.707 -0.5527 -1.1099  0.9555
34594SOL    HW221393  10.371   2.525   1.763 -0.4630 -0.7286  0.1009
34595SOL     OW21394   5.063   5.796  12.569  0.8924 -0.0427 -0.2826
34595SOL    HW121395   5.105   5.879  12.592  0.9154 -0.2685  0.5183
34595SOL    HW221396   4.971   5.809  12.591  0.8457 -0.1362 -0.4211
34596SOL     OW21397  11.954   3.457   7.955  0.4596  0.0903 -0.3420
34596SOL    HW121398  11.937   3.364   7.947  0.7398 -0.1279  1.1661
34596SOL    HW221399  11.892   3.487   8.022  0.9042  0.8046 -0.2329
34597SOL     OW21400   8.276   7.757   1.934 -0.3490 -0.3543 -0.7420
34597SOL    HW121401   8.182   7.764   1.952 -0.3641  0.6728 -1.1326
34597SOL    HW221402   8.289   7.812   1.857  0.2895 -1.8736 -1.7679
34598SOL     OW21403   6.447   7.225   1.124 -0.0511  0.5198  0.0273
34598SOL    HW121404   6.425   7.313   1.094  0.3705  0.0647 -1.7173
34598SOL    HW221405   6.503   7.238   1.200 -4.5713  1.7641  3.5935
34599SOL     OW21406   4.874  12.624  11.736 -0.1858  0.1124  0.0880
34599SOL    HW121407   4.904  12.683  11.805 -0.4626 -0.6571  0.8837
34599SOL    HW221408   4.876  12.537  11.775 -0.1423 -0.3749 -0.9467
34600SOL     OW21409   4.713  12.472  12.664  0.3635 -0.2297 -0.6196
34600SOL    HW121410   4.642  12.528  12.632  0.0081 -0.0662  0.3915
34600SOL    HW221411   4.783  12.533  12.687 -0.8140  0.1550  2.5787
34601SOL     OW21412   3.558   9.795   0.237 -0.6642  0.1068  0.1595
34601SOL    HW121413   3.641   9.757   0.209 -0.3521  1.1344 -0.3636
34601SOL    HW221414   3.572   9.821   0.328 -0.8512 -0.9079  0.4921
34602SOL     OW21415   1.698   3.556  10.306  0.2851  0.0306 -0.6373
34602SOL    HW121416   1.637   3.509  10.248  1.1610 -1.5482 -0.3252
34602SOL    HW221417   1.742   3.618  10.248 -1.8041  1.4746 -0.8151
34603SOL     OW21418  11.866   7.572   5.548 -0.0368 -0.2073  0.0446
34603SOL    HW121419  11.838   7.662   5.565  1.7936  0.4955 -0.4733
34603SOL    HW221420  11.873   7.567   5.453  1.0288 -0.5135  0.1272
34604SOL     OW21421  12.442   8.676  11.903 -0.5188  0.0060  0.1474
34604SOL    HW121422  12.470   8.681  11.812 -3.6260 -0.2359 -0.9453
34604SOL    HW221423  12.480   8.594  11.935  0.6706  0.1207 -0.8792
34605SOL     OW21424  11.046   3.805  13.923 -0.3119  0.7643 -0.1429
34605SOL    HW121425  11.056   3.856  14.004  0.9592  0.2262  0.0636
34605SOL    HW221426  11.132   3.807  13.882 -0.6233  0.0115 -0.8754
34606SOL     OW21427   1.541  11.465   6.814  0.3162  0.1650  0.6514
34606SOL    HW121428   1.520  11.372   6.821  1.4799 -0.1749 -0.0590
34606SOL    HW221429   1.551  11.495   6.904 -1.1665 -0.1135  0.9359
34607SOL     OW21430   9.059   4.986   6.201 -0.1152  0.0377 -0.0629
34607SOL    HW121431   9.127   5.034   6.249  0.2860 -0.9941  0.4241
34607SOL    HW221432   9.099   4.902   6.179 -1.2866 -0.6627  0.3898
34608SOL     OW21433   8.983   5.903   7.192  0.2542 -0.4593  0.1089
34608SOL    HW121434   9.066   5.942   7.165  0.5840 -0.7613  0.6379
34608SOL    HW221435   8.985   5.815   7.154 -1.5041  0.7003 -3.0141
34609SOL     OW21436   6.757   1.997   5.673 -0.4594 -0.0593  0.1784
34609SOL    HW121437   6.798   1.934   5.614  1.6318  0.8878  0.5276
34609SOL    HW221438   6.773   1.962   5.761  3.1772  2.0640  0.6002
34610SOL     OW21439   9.553   1.128   5.815 -0.5129  0.2263 -0.5447
34610SOL    HW121440   9.631   1.105   5.764 -0.5159 -1.6769  0.2442
34610SOL    HW221441   9.556   1.071   5.891 -2.4183  0.4826 -0.2200
34611SOL     OW21442  10.113   6.740   5.323  0.5336 -0.0439  0.2337
34611SOL    HW121443  10.068   6.821   5.348  1.3413  0.7468 -0.7802
34611SOL    HW221444  10.118   6.744   5.228 -0.6455 -1.9819  0.0593
34612SOL     OW21445   2.131   1.611   3.224 -0.1406  0.6512 -0.2151
34612SOL    HW121446   2.223   1.586   3.233 -0.0594  0.9876 -0.1053
34612SOL    HW221447   2.132   1.706   3.227 -0.3627  0.7065 -1.3778
34613SOL     OW21448   9.762  13.023   4.204  0.2084 -0.2454  0.4496
34613SOL    HW121449   9.783  12.967   4.129  0.9231  1.3640 -0.6265
34613SOL    HW221450   9.684  13.071   4.177  0.6311  0.5535  0.5965
34614SOL     OW21451   9.591   6.283   4.726  0.5706 -0.2582 -1.0345
34614SOL    HW121452   9.578   6.191   4.703 -0.1421 -0.9993  1.9186
34614SOL    HW221453   9.686   6.296   4.719  0.7125 -1.2969 -1.2462
34615SOL     OW21454   5.375   1.096   0.676  0.1027 -0.3001 -0.0547
34615SOL    HW121455   5.308   1.155   0.711  1.8476  0.9640  1.2945
34615SOL    HW221456   5.436   1.082   0.749  1.5180 -1.1280 -1.3397
34616SOL     OW21457  12.953   5.680   6.209  0.5700 -0.3820 -0.2379
34616SOL    HW121458  13.005   5.617   6.259  3.2861  0.2123 -2.1032
34616SOL    HW221459  12.988   5.765   6.235 -1.4649  0.2944  0.5051
34617SOL     OW21460   3.718  11.016   5.092  0.3816  0.3097 -0.0538
34617SOL    HW121461   3.625  11.021   5.112  0.3121 -0.8036 -0.0424
34617SOL    HW221462   3.749  11.106   5.102 -0.4009  0.4633  1.3014
34618SOL     OW21463  13.282   2.976   6.654 -0.2444  0.4137 -0.2470
34618SOL    HW121464  13.209   3.036   6.637  0.9154  1.7677 -0.6968
34618SOL    HW221465  13.336   3.022   6.718 -0.3430 -1.0728  0.9592
34619SOL     OW21466  13.575   6.587   3.862  0.3503 -0.4613  0.2082
34619SOL    HW121467  13.537   6.502   3.841  1.4061 -0.8926 -0.0333
34619SOL    HW221468  13.502   6.649   3.855 -0.2331 -1.2120 -0.5280
34620SOL     OW21469   7.249   7.072   7.233  0.3556  0.2378 -0.3864
34620SOL    HW121470   7.300   7.086   7.312  1.3462 -1.1545 -0.7457
34620SOL    HW221471   7.307   7.023   7.175 -0.9434 -0.2831 -1.2977
34621SOL     OW21472   2.664   4.380   0.801 -0.3916 -0.1759  0.0175
34621SOL    HW121473   2.631   4.461   0.760 -1.3398 -0.3248  0.4664
34621SOL    HW221474   2.759   4.386   0.791 -0.4158  1.1649  0.3420
34622SOL     OW21475   1.841   3.958   6.906  0.1267  0.1526 -0.2921
34622SOL    HW121476   1.878   3.995   6.986  0.5390  1.3621 -1.0144
34622SOL    HW221477   1.770   4.017   6.883  0.6554  0.3835 -1.3623
34623SOL     OW21478   5.821  13.951  13.989  0.6658  0.2151 -0.1142
34623SOL    HW121479   5.805  13.859  14.013  0.9435  0.8740  3.0367
34623SOL    HW221480   5.900  13.948  13.934  1.5198 -1.3555  1.1055
34624SOL     OW21481   1.967  12.626   0.116 -0.2792 -0.2830  0.2946
34624SOL    HW121482   1.889  12.571   0.125  0.5603 -1.3863  1.1577
34624SOL    HW221483   1.967  12.652   0.023 -0.7087 -1.7542 -0.1456
34625SOL     OW21484   4.733  14.079   8.810  0.1530 -0.1592  0.0070
34625SOL    HW121485   4.672  14.153   8.819  2.5371  1.7964  1.4975
34625SOL    HW221486   4.735  14.061   8.716 -2.3465 -0.0485 -0.1354
34626SOL     OW21487   4.328   6.725   3.884 -0.6808  0.8080  0.4458
34626SOL    HW121488   4.358   6.635   3.895  0.6166  1.4190  2.4957
34626SOL    HW221489   4.234   6.721   3.902 -0.5631 -0.0852  0.9234
34627SOL     OW21490   5.232  12.598   8.798 -0.0755  0.0326 -0.0451
34627SOL    HW121491   5.306  12.653   8.824 -0.2706  0.3396 -0.1309
34627SOL    HW221492   5.155  12.643   8.834  0.0266 -2.5793  4.0593
34628SOL     OW21493   1.757   0.427   6.474 -0.2051  0.5946  0.6518
34628SOL    HW121494   1.671   0.461   6.500  0.2894  1.4167  1.2660
34628SOL    HW221495   1.771   0.353   6.533 -0.5405  0.3799  0.4678
34629SOL     OW21496   3.060  12.948   3.597 -0.0781  0.1379 -0.2123
34629SOL    HW121497   2.966  12.952   3.578 -0.3428 -0.7533  0.7980
34629SOL    HW221498   3.078  13.030   3.644 -0.2955  0.4079 -0.5891
34630SOL     OW21499   7.008   9.883   5.849 -0.7711 -0.3709  0.2547
34630SOL    HW121500   7.037   9.907   5.937 -1.7669  0.1298  0.4516
34630SOL    HW221501   7.054   9.945   5.792 -2.0302  0.9760  0.6355
34631SOL     OW21502   0.119   4.901   5.455  0.3039 -0.8676 -0.3267
34631SOL    HW121503   0.081   4.967   5.396 -1.2474 -1.3952  0.0370
34631SOL    HW221504   0.181   4.853   5.400  0.0619 -0.3248 -1.0980
34632SOL     OW21505   1.049   4.262   0.754  0.7670  0.1303 -0.9422
34632SOL    HW121506   1.052   4.300   0.842  2.5709 -1.2297 -0.3510
34632SOL    HW221507   0.966   4.293   0.717 -0.6809 -0.3025  1.7007
34633SOL     OW21508   3.703   0.923  12.637  0.0002 -0.3400 -0.2111
34633SOL    HW121509   3.734   0.933  12.547  0.5195 -0.8742 -0.0972
34633SOL    HW221510   3.658   0.839  12.638  1.2860 -1.0359  0.3760
34634SOL     OW21511  11.694   6.686   0.416  0.6027 -0.1580  0.0009
34634SOL    HW121512  11.717   6.594   0.429  2.7031  0.4287  0.8146
34634SOL    HW221513  11.769   6.722   0.367  0.1072  1.2594  0.2559
34635SOL     OW21514  10.544   5.913  13.360  0.7152  0.1053 -0.1117
34635SOL    HW121515  10.589   5.884  13.439  1.6851  4.3569  1.1614
34635SOL    HW221516  10.615   5.935  13.299  0.1903  1.7050 -0.1766
34636SOL     OW21517  11.849   5.294   2.690  0.1763 -0.0400  0.6165
34636SOL    HW121518  11.902   5.295   2.611  1.6637  2.2717  1.5387
34636SOL    HW221519  11.872   5.211   2.733  0.8347 -0.4152 -0.4155
34637SOL     OW21520   4.048   1.018   8.306 -0.4251  0.3174 -1.0804
34637SOL    HW121521   3.988   1.010   8.232  1.0240 -0.7791 -2.1916
34637SOL    HW221522   4.041   0.934   8.352  1.2460 -0.3936 -2.0452
34638SOL     OW21523   9.427   9.796   0.804  0.0390 -0.6056  0.3521
34638SOL    HW121524   9.369   9.720   0.803 -0.4290 -0.2600  1.0197
34638SOL    HW221525   9.483   9.783   0.881  1.2648 -1.2251 -0.5963
34639SOL     OW21526   7.860   7.525   4.703  0.0564  0.4327  0.3744
34639SOL    HW121527   7.920   7.532   4.777 -0.1430  0.4178  0.5389
34639SOL    HW221528   7.818   7.611   4.697 -0.8059  0.0740  1.0348
34640SOL     OW21529   0.811   2.231   1.129 -0.0520 -0.0950  0.5376
34640SOL    HW121530   0.750   2.297   1.161 -1.7609 -1.3835  0.1084
34640SOL    HW221531   0.762   2.185   1.061  0.8644 -2.1190  1.1661
34641SOL     OW21532   3.043  12.488   2.137 -0.2717  0.3518  0.4513
34641SOL    HW121533   3.009  12.433   2.207  2.5472  1.3826  2.8173
34641SOL    HW221534   2.985  12.565   2.138 -1.7138 -0.6747 -0.0931
34642SOL     OW21535   7.818   6.369   2.357  0.5144  0.2289 -0.3957
34642SOL    HW121536   7.806   6.454   2.313  2.3296  0.6131 -0.2371
34642SOL    HW221537   7.909   6.369   2.384  0.4065 -1.5767  0.1011
34643SOL     OW21538   0.062   4.929  11.351  0.5525 -0.6719 -0.3739
34643SOL    HW121539   0.127   5.000  11.346  0.3715 -0.3152  1.6315
34643SOL    HW221540   0.002   4.946  11.278  0.3598  1.4071  0.2262
34644SOL     OW21541   1.656  13.164   3.108 -0.1041  0.2353  0.2742
34644SOL    HW121542   1.712  13.213   3.169  0.7083  0.0713 -0.3227
34644SOL    HW221543   1.616  13.230   3.053 -0.3794  0.3420  0.5960
34645SOL     OW21544   7.012   5.203  13.643  0.2211  0.1851  0.1430
34645SOL    HW121545   6.930   5.249  13.663 -0.3314 -0.7003 -0.0442
34645SOL    HW221546   7.016   5.203  13.547  0.4272  0.2054  0.1520
34646SOL     OW21547  10.934  12.224   8.676 -0.0748  0.0411  0.4816
34646SOL    HW121548  10.850  12.250   8.714  0.2657 -0.2945  1.4821
34646SOL    HW221549  10.935  12.128   8.684 -1.1458 -0.3904 -2.7906
34647SOL     OW21550   9.927  12.544  13.339  0.3579  0.0151  0.1527
34647SOL    HW121551  10.001  12.498  13.378  0.3040 -0.7178 -0.5887
34647SOL    HW221552   9.948  12.637  13.349  1.0068 -0.1860  0.6464
34648SOL     OW21553  13.588   8.443  10.600 -0.0213  0.9327 -0.0077
34648SOL    HW121554  13.625   8.394  10.674 -0.0875  0.1787 -0.4723
34648SOL    HW221555  13.662   8.493  10.566  0.0857  1.0318  0.3688
34649SOL     OW21556   5.163  10.765  12.914 -0.3912  0.5700 -0.5257
34649SOL    HW121557   5.154  10.709  12.837  1.9071  0.5012 -0.8279
34649SOL    HW221558   5.160  10.854  12.880 -0.6712  0.5698 -0.5052
34650SOL     OW21559   9.835   0.812   5.038  0.3682  0.2668  0.1339
34650SOL    HW121560   9.896   0.886   5.047 -0.4629  0.9142  0.6373
34650SOL    HW221561   9.771   0.842   4.973  0.4884 -0.3410 -0.2662
34651SOL     OW21562   7.557   3.486   1.022  0.0695 -0.0755 -0.2417
34651SOL    HW121563   7.507   3.447   0.950  0.1867  1.6320 -1.3197
34651SOL    HW221564   7.494   3.491   1.094 -0.7461  0.2540 -0.9557
34652SOL     OW21565   6.961   0.107   6.648 -0.2640 -0.1291  0.4890
34652SOL    HW121566   6.987   0.134   6.560 -1.0542  0.6063  0.4580
34652SOL    HW221567   6.941   0.014   6.640 -0.3758 -0.0546 -0.1254
34653SOL     OW21568   9.188   4.467   2.908  0.4895 -0.0294 -0.5586
34653SOL    HW121569   9.108   4.517   2.919  1.2965  1.4332 -1.0211
34653SOL    HW221570   9.241   4.518   2.846  2.6004  0.1181  1.2258
34654SOL     OW21571   0.608  13.484   6.401  0.3139 -0.2412  0.7389
34654SOL    HW121572   0.530  13.484   6.456  0.7648  0.7252  1.4021
34654SOL    HW221573   0.598  13.562   6.346  1.8261  1.1943  2.3692
34655SOL     OW21574  10.939   1.918  12.377  0.1061  0.3268 -0.7111
34655SOL    HW121575  11.019   1.924  12.325  1.1963  0.1801  0.8868
34655SOL    HW221576  10.966   1.939  12.466 -1.6866  0.4946 -0.1624
34656SOL     OW21577  12.066   4.946   0.768  0.2683  0.0769 -0.8251
34656SOL    HW121578  12.013   5.007   0.818  0.6025 -0.0254 -0.3362
34656SOL    HW221579  12.038   4.958   0.677 -0.2957  0.3089 -0.6202
34657SOL     OW21580   2.868   7.242   6.148  0.5725  0.4342  0.4732
34657SOL    HW121581   2.843   7.302   6.077  2.0824  0.6891  0.1143
34657SOL    HW221582   2.893   7.161   6.103 -2.0762 -0.7601  0.9929
34658SOL     OW21583   1.234   2.702  10.406  0.4570 -0.2288  0.4232
34658SOL    HW121584   1.180   2.723  10.330  0.6802 -0.8437  0.0919
34658SOL    HW221585   1.175   2.714  10.481  0.0822 -0.1533  0.1175
34659SOL     OW21586   9.076   3.286  10.432 -0.4637 -0.3327  0.0494
34659SOL    HW121587   9.055   3.276  10.525  1.2149 -0.6384  0.4243
34659SOL    HW221588   9.144   3.353  10.429  1.8034 -2.5395 -0.5947
34660SOL     OW21589   3.238   8.017   6.346 -0.2874 -0.1773 -0.2609
34660SOL    HW121590   3.251   8.022   6.441  3.8419  0.3133 -0.7040
34660SOL    HW221591   3.250   7.925   6.324  0.5990 -0.0053 -0.5018
34661SOL     OW21592   0.706  12.505  11.865 -0.2301  1.2284  0.4405
34661SOL    HW121593   0.739  12.594  11.865 -2.4069  2.1549  2.7274
34661SOL    HW221594   0.737  12.467  11.947 -0.9958  0.5755  0.4463
34662SOL     OW21595  13.993   8.167   0.437  0.5473  0.2218 -1.0557
34662SOL    HW121596  14.037   8.161   0.352 -1.6660  0.9136 -2.3413
34662SOL    HW221597  13.906   8.202   0.416 -1.3986 -2.8144  1.0009
34663SOL     OW21598   9.766  13.713  13.166  0.0134 -0.2360 -0.1790
34663SOL    HW121599   9.741  13.639  13.111 -0.1400  0.5652 -1.2175
34663SOL    HW221600   9.795  13.780  13.104 -1.2311  1.1057  0.6282
34664SOL     OW21601   7.012  12.562   8.478  0.3326 -0.0139  0.1611
34664SOL    HW121602   7.103  12.581   8.457  0.2157  0.5794  0.1519
34664SOL    HW221603   7.016  12.508   8.557  0.7121 -0.6759 -0.3024
34665SOL     OW21604   9.269   5.451   5.555 -0.1127 -0.0832 -0.7723
34665SOL    HW121605   9.245   5.542   5.571  0.6646  0.1003 -0.5795
34665SOL    HW221606   9.220   5.427   5.476  1.5467  1.3002 -2.3344
34666SOL     OW21607  11.852   1.225  10.813 -0.5774 -0.0699  0.1010
34666SOL    HW121608  11.827   1.199  10.902 -1.5657  0.5629  0.0240
34666SOL    HW221609  11.801   1.304  10.796  0.5287  0.5210 -0.5764
34667SOL     OW21610   1.998   8.969   0.863  0.0692  0.1096 -0.0196
34667SOL    HW121611   2.033   9.054   0.889  0.4651 -0.1467  0.2900
34667SOL    HW221612   1.970   8.981   0.772  0.7141  0.3914 -0.1842
34668SOL     OW21613  10.578   7.796   4.656  0.3739 -0.0875 -0.1789
34668SOL    HW121614  10.604   7.840   4.737 -1.6640 -0.1312  0.5738
34668SOL    HW221615  10.603   7.857   4.587  0.1962  0.9614  0.6474
34669SOL     OW21616   2.781   2.796   9.567 -0.0261 -0.3760  0.5631
34669SOL    HW121617   2.845   2.727   9.551  1.3671  1.0831 -0.4954
34669SOL    HW221618   2.801   2.827   9.656  1.4566  0.7083 -0.1000
34670SOL     OW21619   6.726   2.299  12.020 -0.3915 -0.1328 -0.1951
34670SOL    HW121620   6.663   2.354  12.068  0.3135 -0.1395  0.7621
34670SOL    HW221621   6.806   2.351  12.019 -0.7025  0.4081 -2.4650
34671SOL     OW21622   2.378   0.002   1.483 -0.7975 -0.0606 -0.4967
34671SOL    HW121623   2.473   0.002   1.499 -0.5682  0.2710 -1.7055
34671SOL    HW221624   2.346  -0.075   1.528 -0.1710  0.5548  1.0941
34672SOL     OW21625   4.570   2.197   7.276 -0.2145  0.2906  0.3113
34672SOL    HW121626   4.490   2.247   7.262 -1.3424 -1.4768  0.0703
34672SOL    HW221627   4.618   2.245   7.343 -1.2738  1.6078  0.1565
34673SOL     OW21628   3.390   2.689  13.128  0.0544  0.2945  0.0602
34673SOL    HW121629   3.347   2.725  13.051  0.8558  0.3316 -0.3762
34673SOL    HW221630   3.425   2.766  13.174 -0.1811  0.2496  0.3213
34674SOL     OW21631   3.487   0.387   1.134 -0.4781  0.3916  0.3036
34674SOL    HW121632   3.557   0.323   1.116 -0.6040  0.6663 -1.3574
34674SOL    HW221633   3.432   0.344   1.200  0.5883 -0.3378  0.7490
34675SOL     OW21634   0.616   3.501   8.908  0.3739 -0.2553  0.2903
34675SOL    HW121635   0.695   3.532   8.865 -0.4225  1.7939  0.1810
34675SOL    HW221636   0.604   3.560   8.982 -1.2817 -0.2216  0.0441
34676SOL     OW21637   8.383   2.521   2.211 -0.5003  0.1722  0.3646
34676SOL    HW121638   8.451   2.454   2.205 -1.0276 -0.4673  1.3282
34676SOL    HW221639   8.368   2.548   2.120 -0.6033 -1.3537 -0.0967
34677SOL     OW21640   6.935   4.778   2.348 -0.1582  0.2369  0.0370
34677SOL    HW121641   6.849   4.820   2.348 -0.3413 -0.0570  1.8662
34677SOL    HW221642   6.941   4.735   2.434  1.7293  0.0811 -0.1269
34678SOL     OW21643  11.840   3.400   3.975 -0.6235 -0.0658  0.5580
34678SOL    HW121644  11.918   3.359   4.012  0.5069  1.0555 -0.5035
34678SOL    HW221645  11.786   3.327   3.946  1.6266 -0.9242 -1.8906
34679SOL     OW21646   1.557   5.693   2.129 -0.6594 -0.0017  0.0313
34679SOL    HW121647   1.608   5.701   2.209  0.1082  1.5463 -0.5587
34679SOL    HW221648   1.521   5.604   2.131  0.2928 -0.3795  1.5143
34680SOL     OW21649   1.627  13.140   5.768 -0.3757  0.9995 -0.0391
34680SOL    HW121650   1.540  13.101   5.759  0.6359 -1.3258 -0.4330
34680SOL    HW221651   1.668  13.126   5.683  1.5262 -1.0372  1.1079
34681SOL     OW21652   2.834   3.881   4.637  0.2714 -0.0483  0.3228
34681SOL    HW121653   2.763   3.821   4.660 -1.1915  1.6115  0.3864
34681SOL    HW221654   2.842   3.872   4.542 -1.0176  0.7170  0.1074
34682SOL     OW21655  10.868   1.687   7.013  0.2740  0.5931  0.2104
34682SOL    HW121656  10.912   1.773   7.015  1.4797  0.0310 -0.5120
34682SOL    HW221657  10.927   1.629   7.061 -2.1934  0.7888  3.8674
34683SOL     OW21658   6.656  14.089   3.564 -0.4725  0.6409  0.3302
34683SOL    HW121659   6.717  14.150   3.523  0.6403  0.1487  1.2107
34683SOL    HW221660   6.601  14.058   3.492  1.0066  0.2853 -0.6841
34684SOL     OW21661   5.481   5.542  12.810  0.6807 -0.3263 -0.1331
34684SOL    HW121662   5.531   5.464  12.835  0.5010 -0.8201 -1.2543
34684SOL    HW221663   5.520   5.569  12.727 -2.5735 -2.3173 -2.5194
34685SOL     OW21664   8.494   3.753  12.818 -0.1394 -0.2328 -0.4035
34685SOL    HW121665   8.503   3.708  12.734 -1.9756 -0.4757 -0.5021
34685SOL    HW221666   8.408   3.727  12.851 -0.7818  2.2689  0.0915
34686SOL     OW21667   5.121   5.357   3.029  0.1591 -0.0266  0.5807
34686SOL    HW121668   5.192   5.317   3.080  1.1091  1.4878  0.5081
34686SOL    HW221669   5.131   5.451   3.045 -1.2651  0.2700 -0.1873
34687SOL     OW21670   2.440   8.191   2.875 -0.5156  0.3147 -0.0634
34687SOL    HW121671   2.533   8.203   2.854 -0.1926 -0.5479  0.8006
34687SOL    HW221672   2.394   8.227   2.799  0.5838 -1.4273 -1.6477
34688SOL     OW21673   2.333   4.503  12.420 -0.4520 -0.2917 -0.1088
34688SOL    HW121674   2.414   4.554  12.428 -1.3836  1.2673 -0.0789
34688SOL    HW221675   2.323   4.459  12.504  0.7073 -1.0429 -0.3564
34689SOL     OW21676   4.188   5.778   5.073 -0.0212 -1.1161  0.5250
34689SOL    HW121677   4.163   5.755   4.984 -2.9464 -1.3320  1.3177
34689SOL    HW221678   4.243   5.705   5.102  2.2285 -0.3536 -1.5019
34690SOL     OW21679   5.813  10.113   4.936  0.2463 -0.1093 -0.3252
34690SOL    HW121680   5.867  10.053   4.884  0.7390  0.5792 -0.6280
34690SOL    HW221681   5.835  10.200   4.902  0.4578  0.3470  0.9418
34691SOL     OW21682  13.772   9.608   4.541  0.4130  0.0094 -0.6852
34691SOL    HW121683  13.755   9.639   4.630  1.4894 -0.4250 -0.3149
34691SOL    HW221684  13.710   9.657   4.486  1.8216  2.6395 -0.1140
34692SOL     OW21685   1.951   4.062   9.606  0.1829  0.7724  0.1005
34692SOL    HW121686   2.009   4.088   9.678 -0.2941 -0.3208  0.9057
34692SOL    HW221687   2.010   4.027   9.539  0.4903 -0.0443  0.7810
34693SOL     OW21688  11.500   9.851   6.628 -0.7311  0.2947 -0.2235
34693SOL    HW121689  11.404   9.860   6.629 -0.7580  0.0880 -0.7883
34693SOL    HW221690  11.532   9.932   6.668 -1.1298  0.5205 -0.3604
34694SOL     OW21691   1.428   4.294   8.089 -0.1305 -0.4355 -0.2091
34694SOL    HW121692   1.496   4.330   8.146 -0.5622  0.4675 -0.2491
34694SOL    HW221693   1.350   4.291   8.144  0.2260 -2.7616  0.2612
34695SOL     OW21694   2.292   3.499  11.289  0.2521 -0.7608 -0.6349
34695SOL    HW121695   2.258   3.424  11.240  0.8547 -1.1405 -0.4776
34695SOL    HW221696   2.344   3.548  11.226 -2.2728  1.0342 -1.4931
34696SOL     OW21697  10.491  10.604   4.500  0.5545 -0.4745 -0.9526
34696SOL    HW121698  10.533  10.688   4.483  0.1744  0.2385  1.2543
34696SOL    HW221699  10.547  10.563   4.566 -1.2093 -0.2650  0.7483
34697SOL     OW21700  13.119   0.305  11.737  0.4603  0.6053 -0.2609
34697SOL    HW121701  13.039   0.357  11.733  0.4463  0.4910 -1.7328
34697SOL    HW221702  13.176   0.343  11.671  0.3794 -1.3339 -1.5058
34698SOL     OW21703  10.797   9.025   1.835  0.5259  0.1259 -0.2546
34698SOL    HW121704  10.809   9.117   1.811 -1.2364  0.2109 -0.9483
34698SOL    HW221705  10.732   9.027   1.905  0.9801 -0.5671  0.1957
34699SOL     OW21706   2.385  13.813  11.443  0.0315 -0.1815 -0.2454
34699SOL    HW121707   2.418  13.724  11.433  1.4973  0.4864 -1.8137
34699SOL    HW221708   2.454  13.860  11.489  0.3524  0.7149 -1.6014
34700SOL     OW21709  10.060   4.686   5.525  0.1446 -0.5195  0.0700
34700SOL    HW121710  10.061   4.750   5.596 -0.3597 -0.1000 -0.3004
34700SOL    HW221711  10.153   4.665   5.511  0.3357  0.3118  0.0290
34701SOL     OW21712   3.300   8.089   5.041 -0.2408  0.1219 -0.2117
34701SOL    HW121713   3.225   8.038   5.073  1.5098 -0.6345  3.1979
34701SOL    HW221714   3.369   8.024   5.028  0.7327  1.1223 -0.1621
34702SOL     OW21715  11.668   4.727   3.034 -0.5434 -0.4049 -0.5007
34702SOL    HW121716  11.743   4.707   2.977 -0.1794  1.9702 -0.9273
34702SOL    HW221717  11.591   4.713   2.977 -0.3583 -1.0552 -0.6080
34703SOL     OW21718   0.436   6.831   7.268 -0.1990  0.5766  0.6453
34703SOL    HW121719   0.434   6.871   7.355 -0.9231  2.4552 -0.1838
34703SOL    HW221720   0.455   6.904   7.209 -2.3281 -0.1262 -1.0194
34704SOL     OW21721   7.226   1.574   9.851 -0.3042  0.1080 -0.2906
34704SOL    HW121722   7.273   1.498   9.886 -0.7553 -0.3104 -0.5771
34704SOL    HW221723   7.152   1.536   9.804  0.6163  0.6021 -2.2624
34705SOL     OW21724   9.328   6.102  12.842 -0.3443  0.6478 -0.4694
34705SOL    HW121725   9.270   6.170  12.809 -0.3363  0.0267 -1.8287
34705SOL    HW221726   9.361   6.058  12.764  0.8952  0.1015  0.3168
34706SOL     OW21727  10.547   8.480  11.008 -0.0271 -1.0645  0.1245
34706SOL    HW121728  10.464   8.482  11.054 -0.6928  0.6971 -1.0371
34706SOL    HW221729  10.604   8.539  11.057  0.3474 -1.7928  0.5720
34707SOL     OW21730   4.879   0.610   0.477 -0.3954 -0.3627 -0.3238
34707SOL    HW121731   4.868   0.519   0.505 -0.0640 -0.6831 -1.1848
34707SOL    HW221732   4.973   0.627   0.489  0.2346 -1.2155 -3.1152
34708SOL     OW21733   4.162   9.971   5.063 -0.0340  0.5557 -0.4330
34708SOL    HW121734   4.140  10.063   5.048  1.4446  0.8135 -1.2426
34708SOL    HW221735   4.097   9.923   5.012 -0.8639  1.1355  0.0536
34709SOL     OW21736   2.853   1.791   2.984  0.3934  0.1769 -0.4192
34709SOL    HW121737   2.922   1.855   2.969 -0.6409  1.4884  0.1920
34709SOL    HW221738   2.782   1.818   2.927 -0.7179  0.6807  1.1230
34710SOL     OW21739  12.485   0.466   7.136 -0.7705 -0.1000  0.3317
34710SOL    HW121740  12.399   0.508   7.127 -0.7051 -0.0221  0.0650
34710SOL    HW221741  12.491   0.443   7.229 -1.5801 -1.1956  0.1334
34711SOL     OW21742   3.352  11.384   2.161 -0.1373 -0.0353  0.2627
34711SOL    HW121743   3.444  11.368   2.181  0.0294 -0.9254 -1.0955
34711SOL    HW221744   3.354  11.449   2.092 -0.4941 -0.4529 -0.1456
34712SOL     OW21745  12.779   9.254  11.655  0.1356 -0.2135  0.1422
34712SOL    HW121746  12.839   9.328  11.645  1.8085 -1.4686  0.6426
34712SOL    HW221747  12.709   9.272  11.592 -0.9907  3.1797  2.0959
34713SOL     OW21748   2.815  12.682   8.085 -0.5267  0.0585 -0.2951
34713SOL    HW121749   2.884  12.629   8.126 -1.5549  0.0739  1.5186
34713SOL    HW221750   2.777  12.623   8.019  0.7549 -0.1651 -0.8759
34714SOL     OW21751   1.341   3.836   8.105  0.3815 -0.0103 -0.1528
34714SOL    HW121752   1.299   3.878   8.181  1.2549  0.7028 -0.0604
34714SOL    HW221753   1.432   3.863   8.110  0.8450 -1.4575 -0.4235
34715SOL     OW21754   2.768   6.204   1.262 -0.0275 -0.4855  0.1113
34715SOL    HW121755   2.745   6.112   1.279 -1.5043  0.1557  1.8558
34715SOL    HW221756   2.853   6.216   1.304  0.3257 -1.1194 -0.4037
34716SOL     OW21757  13.207  11.086   3.369  0.2047 -0.1597  0.4439
34716SOL    HW121758  13.275  11.027   3.337  0.0636 -0.8333  1.3316
34716SOL    HW221759  13.143  11.090   3.298  0.2649 -1.0081  0.3295
34717SOL     OW21760   6.776   8.066   9.146 -0.2080 -0.0896 -0.0400
34717SOL    HW121761   6.833   7.989   9.155  0.2796  0.0031 -1.9288
34717SOL    HW221762   6.821   8.135   9.195  0.4903 -0.4385 -0.1767
34718SOL     OW21763   0.147  12.221   6.548 -1.0665  0.3070  0.4429
34718SOL    HW121764   0.155  12.306   6.591 -0.6020 -0.5945  2.2466
34718SOL    HW221765   0.120  12.161   6.618 -1.8552 -0.9530 -0.8823
34719SOL     OW21766   4.753   0.949   1.109 -0.1434  0.3403 -0.3875
34719SOL    HW121767   4.707   0.905   1.037 -1.2838  0.7772  0.0422
34719SOL    HW221768   4.753   0.884   1.180 -2.4787  1.2067  0.4956
34720SOL     OW21769  11.251  10.420   5.238  0.2958 -0.4735  0.1423
34720SOL    HW121770  11.156  10.423   5.249  0.3422  2.3007  0.3780
34720SOL    HW221771  11.263  10.406   5.144 -0.3745  0.3754 -0.0861
34721SOL     OW21772   2.703   4.450   4.138 -0.4189  0.6759  0.3220
34721SOL    HW121773   2.750   4.506   4.076 -1.5633  0.8901 -0.3786
34721SOL    HW221774   2.617   4.437   4.098 -0.3870 -1.1057  0.7451
34722SOL     OW21775   1.559   8.764   7.320 -0.4007 -0.0560  0.1358
34722SOL    HW121776   1.578   8.858   7.320 -0.3710 -0.0612  0.0309
34722SOL    HW221777   1.644   8.722   7.329 -0.3294 -0.0817 -0.5468
34723SOL     OW21778   6.177   3.022   1.753  0.2344  0.2539 -0.2856
34723SOL    HW121779   6.221   3.088   1.699 -2.0897  1.5511 -0.6968
34723SOL    HW221780   6.235   2.946   1.748  1.4280  1.1903 -2.4374
34724SOL     OW21781  11.614   2.558   1.934  0.1795  0.3981 -0.4609
34724SOL    HW121782  11.535   2.518   1.898 -0.2388  0.9902 -0.2137
34724SOL    HW221783  11.672   2.484   1.952 -0.6563 -0.1236  0.1993
34725SOL     OW21784  13.027  12.887   8.846  0.0801 -0.4753  0.0407
34725SOL    HW121785  13.027  12.931   8.761  1.8838 -1.3498 -0.4582
34725SOL    HW221786  12.955  12.928   8.894 -0.9689  0.0448 -1.8821
34726SOL     OW21787   0.174   2.003   7.409 -0.1710  0.2834  0.2286
34726SOL    HW121788   0.116   2.055   7.464 -0.0278  1.0519 -0.3233
34726SOL    HW221789   0.139   2.014   7.321  0.2931  0.0383  0.0107
34727SOL     OW21790   8.420  10.190   8.856  0.4735 -0.5395  0.2534
34727SOL    HW121791   8.514  10.178   8.845  0.2173 -1.9249 -0.6551
34727SOL    HW221792   8.387  10.104   8.880 -0.3711  0.2825  2.3072
34728SOL     OW21793   5.416   0.537   8.761 -0.2518 -0.0362  0.6997
34728SOL    HW121794   5.506   0.565   8.744  0.4178 -0.5274  3.1468
34728SOL    HW221795   5.362   0.605   8.722  1.2383  1.5904  1.3616
34729SOL     OW21796   0.186   4.799  13.890 -0.2415 -0.5376 -0.0909
34729SOL    HW121797   0.204   4.884  13.932 -0.9504 -0.5585  0.2622
34729SOL    HW221798   0.234   4.736  13.944  0.1365 -0.3903 -0.2460
34730SOL     OW21799   3.213   2.606   2.897 -0.6606 -0.2294 -0.8560
34730SOL    HW121800   3.247   2.651   2.975  1.0401 -0.3278 -1.4981
34730SOL    HW221801   3.125   2.580   2.922 -0.4670  0.4822  0.7443
34731SOL     OW21802   8.259   1.175  13.689 -0.0086 -0.5924  0.1348
34731SOL    HW121803   8.267   1.270  13.701  0.4154 -0.6880  0.6325
34731SOL    HW221804   8.168   1.162  13.662 -0.0330 -0.0322 -0.0710
34732SOL     OW21805   6.754   8.006   3.511 -0.5182 -0.4279  0.4266
34732SOL    HW121806   6.673   8.055   3.496  0.6554  1.5670  0.1544
34732SOL    HW221807   6.777   7.970   3.425 -0.0972  0.7401  0.0222
34733SOL     OW21808   4.694   8.849   1.352 -0.1483  0.7819 -0.0501
34733SOL    HW121809   4.777   8.826   1.311 -0.0896  0.3452  0.3026
34733SOL    HW221810   4.711   8.932   1.395  0.1541  0.6181  0.1505
34734SOL     OW21811   8.380  13.573   1.236  0.2425 -0.0546  0.4954
34734SOL    HW121812   8.314  13.504   1.237 -0.6413  0.6992 -0.9910
34734SOL    HW221813   8.456  13.533   1.194 -0.4695 -0.0044 -0.9068
34735SOL     OW21814   0.818   1.947   2.264  0.1600 -0.3884 -0.2163
34735SOL    HW121815   0.829   1.875   2.202 -0.4032 -0.0853 -0.6780
34735SOL    HW221816   0.734   1.931   2.306  0.8810 -1.0044  1.0450
34736SOL     OW21817   5.721   0.444   6.197  0.2089 -0.2967  0.3572
34736SOL    HW121818   5.676   0.528   6.209  0.9225  0.2785 -0.8354
34736SOL    HW221819   5.706   0.397   6.279 -0.1933  0.9968  1.0507
34737SOL     OW21820   7.770   7.283  13.269 -0.4305 -0.2365  0.0869
34737SOL    HW121821   7.839   7.218  13.258  0.1548  0.3793  0.0433
34737SOL    HW221822   7.797   7.333  13.347  0.9453  2.1248 -1.7725
34738SOL     OW21823   2.311   7.125   8.631 -0.2496 -0.1482  0.3248
34738SOL    HW121824   2.381   7.190   8.623  1.2151 -1.6802  0.1520
34738SOL    HW221825   2.245   7.154   8.568  1.4447 -0.0893 -1.5377
34739SOL     OW21826   1.110   4.429   7.542 -1.0016 -0.2634 -0.1082
34739SOL    HW121827   1.200   4.457   7.558 -1.3477  0.5863  0.4042
34739SOL    HW221828   1.064   4.509   7.514 -1.7419 -0.5551  0.2429
34740SOL     OW21829   2.742   3.756   5.284  0.3707 -0.0461  0.1054
34740SOL    HW121830   2.676   3.715   5.228 -1.0922 -1.2194  2.5258
34740SOL    HW221831   2.764   3.838   5.239 -0.8705 -0.7880 -2.0223
34741SOL     OW21832  10.118   8.490  13.178 -0.3859 -0.4759 -0.2510
34741SOL    HW121833  10.085   8.408  13.215 -0.1916 -0.5740 -0.2953
34741SOL    HW221834  10.039   8.539  13.156 -0.5062 -0.4651  0.1851
34742SOL     OW21835   1.161   7.246  10.689  0.2675  0.5615  0.3643
34742SOL    HW121836   1.116   7.224  10.771 -0.2767 -0.2225 -0.1257
34742SOL    HW221837   1.144   7.171  10.632 -0.4838  1.6584 -0.9219
34743SOL     OW21838  12.247  13.210   0.413  0.1791  0.0117 -0.5389
34743SOL    HW121839  12.325  13.247   0.455  0.4583  0.3875 -1.3616
34743SOL    HW221840  12.269  13.207   0.320 -0.1480 -1.5010 -0.5935
34744SOL     OW21841  13.553   9.770   0.325  0.2797  0.3283  0.1664
34744SOL    HW121842  13.511   9.856   0.315 -2.6612 -0.8250  1.2139
34744SOL    HW221843  13.594   9.753   0.241  1.4303  2.9510  0.1025
34745SOL     OW21844  12.294   8.678  11.456 -0.4431 -0.0818 -0.2346
34745SOL    HW121845  12.230   8.607  11.458 -0.6130  0.0496 -0.9841
34745SOL    HW221846  12.373   8.638  11.421 -0.0725 -0.2647  0.7740
34746SOL     OW21847  10.303   1.615  10.596  0.1993 -0.3552 -0.0765
34746SOL    HW121848  10.365   1.684  10.571  0.3311 -0.0128  1.1531
34746SOL    HW221849  10.289   1.565  10.515  0.7975  0.5648 -0.7642
34747SOL     OW21850  11.081   3.481   0.333  0.5215 -0.8945  0.4049
34747SOL    HW121851  11.153   3.419   0.334  1.4007  0.1027 -0.0274
34747SOL    HW221852  11.117   3.561   0.372 -0.5336 -0.5801  0.7736
34748SOL     OW21853   6.337   5.937  10.161 -0.4386 -0.1098  0.2087
34748SOL    HW121854   6.313   5.976  10.077  0.2960  0.9695  0.4741
34748SOL    HW221855   6.271   5.869  10.176  0.1912 -1.2842 -1.8837
34749SOL     OW21856   7.567   2.321   9.117  0.2486  0.4910  0.1901
34749SOL    HW121857   7.578   2.330   9.212  0.9680  0.7986  0.0804
34749SOL    HW221858   7.565   2.226   9.102  0.7851  0.4396  0.4398
34750SOL     OW21859   4.877   3.343   4.346 -0.7741  0.5187 -0.1513
34750SOL    HW121860   4.839   3.278   4.287  0.3899  0.1351 -0.5038
34750SOL    HW221861   4.925   3.291   4.411 -0.1593  0.9932 -0.2088
34751SOL     OW21862  10.204   6.329  11.284 -0.1847  0.0894 -0.1803
34751SOL    HW121863  10.160   6.285  11.356 -1.5471 -0.8632 -1.5141
34751SOL    HW221864  10.135   6.380  11.241  0.2292 -0.5089 -1.6433
34752SOL     OW21865   0.157   2.661  13.011 -0.4159  0.0961  0.2731
34752SOL    HW121866   0.141   2.724  13.080  2.0581 -0.0539  1.1018
34752SOL    HW221867   0.161   2.576  13.056 -1.4961 -0.3985 -0.4987
34753SOL     OW21868   4.112  12.312   4.253  0.0604 -0.8016 -0.5572
34753SOL    HW121869   4.153  12.306   4.339 -0.8289  3.0657  0.3279
34753SOL    HW221870   4.075  12.400   4.250 -2.5433 -1.7892 -3.8011
34754SOL     OW21871   5.673   3.470  13.450 -0.4609 -0.5179  0.7272
34754SOL    HW121872   5.695   3.378  13.439 -0.7054 -0.4884 -0.0544
34754SOL    HW221873   5.655   3.479  13.544  0.9475 -0.9424  1.0656
34755SOL     OW21874   7.380  12.313  11.728 -0.0757 -0.0130  1.0703
34755SOL    HW121875   7.341  12.300  11.814  0.0925  0.0832  1.1605
34755SOL    HW221876   7.388  12.225  11.692 -0.7504 -0.0053  0.8851
34756SOL     OW21877   4.169   8.653   0.505  0.0047  0.0982  0.0617
34756SOL    HW121878   4.204   8.570   0.472  1.5794  0.3052  1.1004
34756SOL    HW221879   4.201   8.658   0.595 -2.0252  0.7545  0.7958
34757SOL     OW21880   4.271   8.950   3.443 -0.3475  0.8645  0.4440
34757SOL    HW121881   4.283   8.948   3.348 -0.3476  1.2235  0.4343
34757SOL    HW221882   4.355   8.981   3.477  0.7929 -2.2673  0.7942
34758SOL     OW21883   2.198   1.614   2.550 -0.4692  0.5403 -0.3893
34758SOL    HW121884   2.120   1.562   2.570  1.4829 -3.1747 -1.4675
34758SOL    HW221885   2.172   1.704   2.567 -4.5553 -0.6080  0.5079
34759SOL     OW21886   9.964   4.191  11.273  0.1491  0.1876  0.0162
34759SOL    HW121887  10.050   4.153  11.292 -0.5350 -1.1521  0.5891
34759SOL    HW221888   9.974   4.232  11.187  2.0759  2.3964  1.1550
34760SOL     OW21889  11.472   9.574  11.356 -0.1084  0.2593  0.2460
34760SOL    HW121890  11.384   9.537  11.347  0.3122 -0.2366 -2.7732
34760SOL    HW221891  11.526   9.500  11.382 -0.2125  0.0465 -0.1353
34761SOL     OW21892  12.541  11.191  11.221 -0.1558 -0.3500 -0.2471
34761SOL    HW121893  12.513  11.186  11.313 -1.5060 -2.0771 -0.6912
34761SOL    HW221894  12.534  11.284  11.199 -0.6881 -0.0292  1.1571
34762SOL     OW21895   8.426   5.371  12.663  0.4070  0.5930 -0.1357
34762SOL    HW121896   8.356   5.306  12.662  1.3597 -0.4547 -0.3228
34762SOL    HW221897   8.385   5.450  12.697 -0.9455  0.0952 -0.5644
34763SOL     OW21898   6.939   3.681  10.167 -0.0434 -0.0920 -0.2040
34763SOL    HW121899   7.018   3.647  10.125 -1.0493 -1.7958 -0.8752
34763SOL    HW221900   6.879   3.698  10.094 -1.4722 -2.1411  0.3813
34764SOL     OW21901  14.002   9.376  12.260  0.5687 -0.0786  0.3038
34764SOL    HW121902  13.999   9.468  12.233  3.1634  0.4930  1.6171
34764SOL    HW221903  14.051   9.332  12.191 -0.7541 -0.5431 -0.3730
34765SOL     OW21904   5.630   3.478   8.314  0.4837 -0.6712  0.0279
34765SOL    HW121905   5.593   3.419   8.380 -1.2170 -0.2199 -0.4697
34765SOL    HW221906   5.677   3.420   8.254 -1.4500 -1.6440 -0.6488
34766SOL     OW21907   3.347   9.695   8.534  0.5331 -0.6106 -0.4311
34766SOL    HW121908   3.421   9.703   8.475  0.8249  1.2444  0.1181
34766SOL    HW221909   3.326   9.785   8.559 -1.0584 -1.1802  0.4702
34767SOL     OW21910   3.004  14.026   1.133 -1.1534  0.4922 -0.1261
34767SOL    HW121911   3.006  14.055   1.224 -0.9767  0.4573 -0.1177
34767SOL    HW221912   2.935  14.078   1.093  0.1950  2.1111 -0.4971
34768SOL     OW21913   6.755   3.251   3.582 -0.0969 -0.4883  0.7190
34768SOL    HW121914   6.672   3.207   3.564 -2.3242  3.3010  0.6489
34768SOL    HW221915   6.775   3.228   3.673 -1.7341 -0.7336  1.0459
34769SOL     OW21916   2.976   0.745   5.646  0.3246  0.1720 -0.0290
34769SOL    HW121917   2.989   0.710   5.558  1.1188  0.0872  0.1223
34769SOL    HW221918   2.881   0.737   5.661  0.6063 -3.4535  0.6201
34770SOL     OW21919  11.260   0.715   7.375 -0.4551  0.2224  0.1337
34770SOL    HW121920  11.250   0.742   7.466 -0.0217 -0.4860  0.4007
34770SOL    HW221921  11.300   0.791   7.332  0.8386  0.0083  0.8935
34771SOL     OW21922   2.634   3.788   4.153  0.1943 -0.1770  0.2550
34771SOL    HW121923   2.554   3.766   4.105  1.4710  0.3308 -2.3224
34771SOL    HW221924   2.616   3.874   4.191 -0.1032  0.5295 -1.3843
34772SOL     OW21925   0.324  12.173  10.929  0.1028  0.3575 -0.0053
34772SOL    HW121926   0.395  12.130  10.881 -0.2037 -0.8254  0.5455
34772SOL    HW221927   0.367  12.242  10.979  0.3867  1.8731 -2.2089
34773SOL     OW21928   3.592  13.675  12.345  0.3242  0.6281 -1.0814
34773SOL    HW121929   3.591  13.758  12.391  0.8829  0.4108 -0.6643
34773SOL    HW221930   3.670  13.678  12.290  1.7164 -0.5451  0.7143
34774SOL     OW21931   9.594   1.657  11.309 -0.0344 -0.3801  0.2172
34774SOL    HW121932   9.507   1.616  11.313  0.2850 -0.9525  2.0538
34774SOL    HW221933   9.653   1.585  11.286  0.1903 -0.4064  0.8585
34775SOL     OW21934   0.985   9.293  10.196 -0.3178  0.3017  0.4041
34775SOL    HW121935   0.935   9.362  10.153  0.5058  1.2232  0.8811
34775SOL    HW221936   0.964   9.213  10.147 -1.3311  0.8722 -0.1188
34776SOL     OW21937  10.756   3.004   6.497  0.1839  0.4792 -0.3730
34776SOL    HW121938  10.793   3.091   6.481  0.6567  0.1374 -1.2844
34776SOL    HW221939  10.828   2.955   6.538  0.7531 -0.1478 -2.0222
34777SOL     OW21940   7.342  13.988   2.139 -0.1279 -0.4843 -0.2606
34777SOL    HW121941   7.258  14.009   2.181 -0.0262 -0.5968  0.0020
34777SOL    HW221942   7.375  14.072   2.108  0.0851 -0.3061  0.4298
34778SOL     OW21943   2.988  10.375   6.084  0.2886  0.5497 -0.4937
34778SOL    HW121944   3.029  10.291   6.104  0.6910  0.1339 -2.7625
34778SOL    HW221945   2.959  10.367   5.993 -2.3476  1.8389  0.1259
34779SOL     OW21946   9.448   8.657  10.716 -0.2048 -0.8561  0.1523
34779SOL    HW121947   9.447   8.612  10.800  0.1166 -0.7506  0.2129
34779SOL    HW221948   9.386   8.729  10.726  0.4761 -0.3119  0.5964
34780SOL     OW21949  12.664  13.327   5.687  0.1389 -0.3271  0.4722
34780SOL    HW121950  12.626  13.304   5.602 -0.7395 -0.2491  0.8300
34780SOL    HW221951  12.623  13.410   5.710  0.6513 -0.1658  0.8003
34781SOL     OW21952  13.468   4.685   9.764  0.0102 -0.2748 -0.2718
34781SOL    HW121953  13.491   4.599   9.729  0.3101  0.1823 -1.2514
34781SOL    HW221954  13.373   4.683   9.773  0.0506 -0.8304  0.0640
34782SOL     OW21955   9.124   0.489   1.649 -0.3177  0.7153 -0.6129
34782SOL    HW121956   9.052   0.539   1.611  0.2246  0.8645 -1.4967
34782SOL    HW221957   9.202   0.542   1.631  0.1994 -0.1566 -1.0664
34783SOL     OW21958   8.198   4.767   0.976  0.1481  0.2258 -0.3039
34783SOL    HW121959   8.116   4.804   1.010  0.4021 -0.3114  0.9446
34783SOL    HW221960   8.253   4.755   1.054  0.5569 -1.5437 -0.8212
34784SOL     OW21961   7.729   4.886   2.560  0.2150 -0.5472 -0.0606
34784SOL    HW121962   7.773   4.944   2.622 -0.2675  0.9708 -1.0843
34784SOL    HW221963   7.791   4.876   2.488  0.2593 -1.2371  0.0696
34785SOL     OW21964   5.023  11.529  12.050  0.7901  0.3814  0.5754
34785SOL    HW121965   4.961  11.538  12.123 -0.0945 -0.3194 -0.0697
34785SOL    HW221966   4.983  11.579  11.979  2.3057  2.2063  0.9308
34786SOL     OW21967   7.828   8.039   0.623 -0.3417  0.5013 -0.2780
34786SOL    HW121968   7.803   8.030   0.715  2.3155 -1.3022  0.3804
34786SOL    HW221969   7.852   7.950   0.595  0.0134  1.1888 -2.3872
34787SOL     OW21970   4.692   2.118  12.748 -0.3173 -0.7430  0.3196
34787SOL    HW121971   4.602   2.086  12.762 -0.7696  0.1937 -0.3269
34787SOL    HW221972   4.737   2.046  12.705 -1.3838 -0.4592 -1.3330
34788SOL     OW21973  13.247   7.967  11.052 -0.3740  0.3506 -0.1717
34788SOL    HW121974  13.174   8.011  11.095 -1.3624 -0.5122 -0.9275
34788SOL    HW221975  13.242   7.876  11.081  1.1114  0.5035  0.6698
34789SOL     OW21976  12.738  11.633   0.746 -0.0351  0.0574 -0.2432
34789SOL    HW121977  12.722  11.611   0.838 -2.1147 -0.4749 -0.6886
34789SOL    HW221978  12.816  11.690   0.749 -0.3590  0.5056  1.8883
34790SOL     OW21979   2.978   5.829  13.249  0.1618 -0.6824  0.8658
34790SOL    HW121980   3.010   5.917  13.269 -1.0443  0.1698 -0.6771
34790SOL    HW221981   2.952   5.833  13.156 -1.7122 -2.0820  1.2533
34791SOL     OW21982   5.284   7.610   8.770  0.1522  0.2529 -0.0465
34791SOL    HW121983   5.320   7.635   8.685 -0.3396  0.0150 -0.3338
34791SOL    HW221984   5.207   7.666   8.780  1.4702  1.9192  1.2996
34792SOL     OW21985  13.327   6.016   2.811  0.4174 -0.1076 -0.6200
34792SOL    HW121986  13.354   5.941   2.865  1.0441  1.0669  0.7837
34792SOL    HW221987  13.255   5.983   2.757 -1.0284 -1.0952  1.7571
34793SOL     OW21988  10.979   1.075  13.014  0.2438 -0.8682 -0.1177
34793SOL    HW121989  11.008   1.115  12.931  0.7576 -0.2843  0.3326
34793SOL    HW221990  11.047   1.099  13.077  1.2511 -3.5169 -0.0756
34794SOL     OW21991   2.731  13.186   7.516 -0.5221  0.8052 -0.2988
34794SOL    HW121992   2.658  13.139   7.558  0.8567 -1.1696  0.0356
34794SOL    HW221993   2.770  13.121   7.458  0.9170  1.8607 -0.5604
34795SOL     OW21994  14.009   0.476   0.309  0.1285  0.6688 -0.3663
34795SOL    HW121995  14.029   0.410   0.242 -1.0663 -0.6269  0.4910
34795SOL    HW221996  13.954   0.429   0.373 -0.9123  2.5467  0.1837
34796SOL     OW21997   4.727  12.429   2.729 -0.4347  0.2169 -0.1282
34796SOL    HW121998   4.691  12.404   2.814 -2.0494  1.2647 -0.4470
34796SOL    HW221999   4.808  12.476   2.750  0.1092 -1.0594  0.7038
34797SOL     OW22000  13.636  11.088   6.779 -0.5815  0.1136 -0.2025
34797SOL    HW122001  13.683  11.007   6.800 -0.8967  0.1817  0.8559
34797SOL    HW222002  13.699  11.141   6.731  0.5220  0.2866  1.3657
34798SOL     OW22003   9.043   7.782  13.246  0.3513 -0.0813 -0.2254
34798SOL    HW122004   9.057   7.875  13.226  1.6865 -0.3435 -0.6450
34798SOL    HW222005   9.116   7.737  13.203  0.2251 -1.2368  0.7041
34799SOL     OW22006   0.278   3.297   2.156 -0.3207 -0.3429  0.3553
34799SOL    HW122007   0.365   3.325   2.184 -0.1754 -1.0750  0.6897
34799SOL    HW222008   0.253   3.230   2.220 -1.1751 -0.0720  0.3227
34800SOL     OW22009   6.687   1.500   0.331  0.0765 -0.2140 -0.4115
34800SOL    HW122010   6.648   1.502   0.244 -0.4397  1.1810 -0.1648
34800SOL    HW222011   6.733   1.584   0.339  0.9584 -0.7386  0.2924
34801SOL     OW22012   0.790  13.521   0.263 -0.0421 -0.7209  0.8246
34801SOL    HW122013   0.842  13.514   0.183 -0.7914 -1.2820  0.3769
34801SOL    HW222014   0.854  13.530   0.333  0.6499 -1.2427  0.2659
34802SOL     OW22015  11.037  13.532   0.007  0.1674 -0.0957 -0.2851
34802SOL    HW122016  11.102  13.470   0.040 -0.8498 -1.5525 -0.9704
34802SOL    HW222017  11.033  13.515  -0.087  0.3156  1.4623 -0.6035
34803SOL     OW22018   0.887   0.946  11.778 -0.1220  0.4867  0.2196
34803SOL    HW122019   0.977   0.941  11.810 -0.5069 -0.1850  1.2489
34803SOL    HW222020   0.882   1.031  11.734  1.3648 -0.0192 -0.9960
34804SOL     OW22021   4.788  10.472   1.074  0.2997 -0.3469  0.6053
34804SOL    HW122022   4.821  10.535   1.138  0.4636 -1.4318  1.6138
34804SOL    HW222023   4.791  10.520   0.991 -2.0954  1.9127  1.6639
34805SOL     OW22024   4.864   6.503   0.287  0.4569 -0.1476  0.5762
34805SOL    HW122025   4.929   6.433   0.292 -1.3161 -1.8117  1.7822
34805SOL    HW222026   4.790   6.464   0.240 -0.9055  0.5955  1.9955
34806SOL     OW22027   8.200   3.173  11.669 -0.4431 -0.2375 -0.1131
34806SOL    HW122028   8.227   3.148  11.581 -0.0185 -0.4895  0.0874
34806SOL    HW222029   8.126   3.115  11.689 -0.6239 -0.0913 -0.3502
34807SOL     OW22030  13.362   2.917  10.806  0.2139  0.0048  0.7042
34807SOL    HW122031  13.338   2.969  10.729 -0.9672 -0.5420  0.6853
34807SOL    HW222032  13.337   2.827  10.783  3.5164 -0.9127  0.1468
34808SOL     OW22033  11.669  11.888  13.031 -0.2709 -0.2031  0.2635
34808SOL    HW122034  11.595  11.857  13.083 -2.0010 -0.7554 -2.3259
34808SOL    HW222035  11.672  11.828  12.956  1.7642  0.8425 -0.5683
34809SOL     OW22036   9.427   2.501   9.083 -0.2726 -1.0077 -0.0077
34809SOL    HW122037   9.441   2.513   8.989  2.0537 -0.5719  0.3369
34809SOL    HW222038   9.332   2.499   9.093 -0.6314  1.0599 -2.1151
34810SOL     OW22039   1.576   3.484   9.910 -0.1426 -0.1930  0.2844
34810SOL    HW122040   1.570   3.579   9.907 -0.6257 -0.1887 -3.2515
34810SOL    HW222041   1.667   3.467   9.935  0.2675  1.2642 -0.1011
34811SOL     OW22042   5.714   5.605   2.627  0.2818  0.5335  0.2018
34811SOL    HW122043   5.741   5.657   2.704 -0.0108  2.1227 -0.7194
34811SOL    HW222044   5.629   5.570   2.651 -0.1521  1.6346  0.3583
34812SOL     OW22045   0.274  12.513   7.079 -0.2756 -0.3501  0.5184
34812SOL    HW122046   0.253  12.564   7.001  1.0677 -1.7092 -0.7767
34812SOL    HW222047   0.287  12.579   7.148  0.5498  1.0130 -0.8802
34813SOL     OW22048   9.775  13.504   2.333  0.2077 -0.0493 -0.1942
34813SOL    HW122049   9.724  13.430   2.299 -1.0108 -0.3095  2.0345
34813SOL    HW222050   9.866  13.475   2.327 -0.1675 -1.2347 -0.4925
34814SOL     OW22051  12.971  12.527   8.105 -0.4659 -0.2678  0.2737
34814SOL    HW122052  13.016  12.518   8.021 -0.3857 -2.5632  0.5082
34814SOL    HW222053  12.881  12.498   8.087 -0.9839  1.0712  0.5759
34815SOL     OW22054   3.376  12.521   1.748 -0.0669  0.3297  0.5253
34815SOL    HW122055   3.287  12.489   1.764 -0.5056  1.6393  0.8000
34815SOL    HW222056   3.382  12.528   1.652  0.1568 -0.8572  0.4369
34816SOL     OW22057  12.439   5.558   2.055  0.1916 -0.4162 -0.8058
34816SOL    HW122058  12.518   5.525   2.098 -0.3303  0.4503  0.9008
34816SOL    HW222059  12.465   5.641   2.016  0.2192 -0.2779 -0.5002
34817SOL     OW22060  12.658   5.033   7.741  0.6231 -0.3325 -0.0857
34817SOL    HW122061  12.687   5.084   7.665  1.9668  0.1320  0.7023
34817SOL    HW222062  12.713   4.955   7.739 -1.1568 -1.6082 -1.0588
34818SOL     OW22063   0.818   4.004   9.231  0.3216  0.1774 -0.3668
34818SOL    HW122064   0.781   4.090   9.213 -2.7935 -0.6195  1.4034
34818SOL    HW222065   0.821   3.961   9.146 -1.3087  0.9209 -0.8314
34819SOL     OW22066   4.803  13.104  12.387  0.1994  0.5383  0.0104
34819SOL    HW122067   4.850  13.111  12.470 -0.5134 -1.0699  0.5851
34819SOL    HW222068   4.861  13.052  12.331  0.6839  1.6278 -0.5564
34820SOL     OW22069   1.927  11.286  12.256 -0.5544  0.4627 -0.0332
34820SOL    HW122070   1.888  11.373  12.267 -1.3854  0.1201 -0.1525
34820SOL    HW222071   1.948  11.281  12.163  2.0046  1.5341  0.4074
34821SOL     OW22072   5.715   1.578   0.431  0.4065  0.7631 -0.0422
34821SOL    HW122073   5.646   1.631   0.471  1.3667  0.3294  2.3876
34821SOL    HW222074   5.722   1.501   0.488  1.0359 -0.5615 -1.8120
34822SOL     OW22075  11.748   9.070   9.307 -0.4864  0.1515 -0.0598
34822SOL    HW122076  11.843   9.064   9.316 -0.3646  2.2181  0.5511
34822SOL    HW222077  11.715   9.000   9.363  0.6760  0.0850  0.5885
34823SOL     OW22078   5.465  10.500   4.368  0.6335  0.3248  0.7504
34823SOL    HW122079   5.515  10.566   4.416  0.2826  1.3945 -0.3173
34823SOL    HW222080   5.401  10.469   4.432  1.3410  0.4113  1.5151
34824SOL     OW22081   6.918  12.242   1.736  0.0097  0.4959 -0.3172
34824SOL    HW122082   6.823  12.242   1.720  0.0131 -0.9376 -0.4427
34824SOL    HW222083   6.954  12.293   1.664 -0.5744  0.0606 -0.9283
34825SOL     OW22084   2.705  13.814   4.850  0.3180 -0.2326 -0.3127
34825SOL    HW122085   2.759  13.863   4.912  1.0244 -1.8258  0.3739
34825SOL    HW222086   2.687  13.877   4.779  0.8714  1.1091  0.7013
34826SOL     OW22087  13.446   8.855   9.096 -0.0418  0.1821  0.2437
34826SOL    HW122088  13.412   8.830   9.010  0.0459 -2.0781  0.8185
34826SOL    HW222089  13.379   8.913   9.132 -1.2004 -0.6865 -0.4484
34827SOL     OW22090   0.941   8.886   5.301  0.2160  0.0664 -0.2009
34827SOL    HW122091   0.855   8.903   5.338  0.4752 -0.2030  0.5310
34827SOL    HW222092   0.998   8.870   5.376  0.7994 -0.2623 -0.6960
34828SOL     OW22093  12.497  12.268  10.357 -0.5077 -0.0517  0.8871
34828SOL    HW122094  12.426  12.211  10.387 -0.7791 -1.3598 -1.8962
34828SOL    HW222095  12.483  12.275  10.262  0.7795  2.9539  0.8109
34829SOL     OW22096   5.516   2.555  13.744  0.2301  0.2752 -0.1533
34829SOL    HW122097   5.508   2.560  13.649  0.7279 -1.2607 -0.2941
34829SOL    HW222098   5.434   2.514  13.773  0.5509 -0.2776 -0.0254
34830SOL     OW22099   8.767   7.802   4.194  0.8632  0.0312  0.1641
34830SOL    HW122100   8.769   7.731   4.258  1.9569 -1.3008 -1.2805
34830SOL    HW222101   8.810   7.875   4.238  0.5744 -0.4790  1.3346
34831SOL     OW22102   7.585  13.682   2.837  0.0366  0.1664 -0.3094
34831SOL    HW122103   7.500  13.661   2.800  0.9398 -0.9896 -1.8533
34831SOL    HW222104   7.607  13.606   2.892 -0.3475  0.9203  0.9317
34832SOL     OW22105   2.414  10.163   7.691 -0.0607 -0.5874  0.4420
34832SOL    HW122106   2.505  10.189   7.676 -0.5505  1.2877  0.4081
34832SOL    HW222107   2.409  10.149   7.786 -0.3034  2.0135  0.8963
34833SOL     OW22108   4.317   5.156  11.053 -0.2244 -0.4123 -0.1678
34833SOL    HW122109   4.276   5.217  10.992 -0.4011 -0.7376 -0.3705
34833SOL    HW222110   4.294   5.069  11.021 -0.0491 -0.5885  0.1744
34834SOL     OW22111   7.286  11.440   3.464  0.0391  0.0075  0.1757
34834SOL    HW122112   7.347  11.513   3.478  0.7479 -0.7135  1.0001
34834SOL    HW222113   7.333  11.363   3.496 -1.2786 -0.5957  0.7331
34835SOL     OW22114   7.331  12.071   1.445 -0.2249 -0.3376 -0.2708
34835SOL    HW122115   7.417  12.031   1.453 -0.3102 -0.3570  0.5489
34835SOL    HW222116   7.271  11.997   1.436  0.0116 -0.3131 -2.8830
34836SOL     OW22117  11.133   2.591   1.041 -0.0292  0.0314  0.2816
34836SOL    HW122118  11.053   2.593   0.988 -0.8842 -0.5250  1.4932
34836SOL    HW222119  11.121   2.662   1.104  1.9307  2.1085 -1.4988
34837SOL     OW22120   6.454   8.479  12.689 -0.1274  0.1263  0.2299
34837SOL    HW122121   6.391   8.495  12.619 -0.2864 -2.2502 -0.2572
34837SOL    HW222122   6.539   8.481  12.646 -0.0891  0.3110  0.3102
34838SOL     OW22123   0.834  11.809   6.790 -0.1670 -0.0439  0.1036
34838SOL    HW122124   0.903  11.806   6.723  0.2869 -1.1362  0.5998
34838SOL    HW222125   0.784  11.888   6.769  1.0320  0.5888 -0.4626
34839SOL     OW22126  13.127  13.000   1.796  0.2247  0.0480 -0.4295
34839SOL    HW122127  13.198  13.055   1.828  0.4963  0.0130 -0.9615
34839SOL    HW222128  13.099  13.041   1.714 -2.0524  1.4847  0.9798
34840SOL     OW22129  10.311   0.647   1.756 -0.5948 -0.3811  0.2351
34840SOL    HW122130  10.379   0.582   1.738 -0.4412 -0.6213  1.5846
34840SOL    HW222131  10.230   0.607   1.724 -0.2471 -0.4573 -0.5813
34841SOL     OW22132  11.733   2.275  11.170 -0.0997  0.5232 -0.4814
34841SOL    HW122133  11.738   2.285  11.265  1.7751  1.6152 -0.6523
34841SOL    HW222134  11.709   2.184  11.157  1.8727 -0.2921  1.0424
34842SOL     OW22135   4.533   2.469  10.726 -0.1778 -0.1964  0.3264
34842SOL    HW122136   4.550   2.386  10.680 -0.6408 -0.6804  1.0194
34842SOL    HW222137   4.611   2.522  10.708 -0.9256  0.2096 -2.2520
34843SOL     OW22138   2.446   8.247  10.262 -0.9980  0.5591 -0.5305
34843SOL    HW122139   2.542   8.245  10.262 -0.9136 -2.9941 -1.0313
34843SOL    HW222140   2.423   8.282  10.176 -0.0840  0.2300 -0.9287
34844SOL     OW22141   0.483  10.698   3.963 -0.1091  0.4364  0.2266
34844SOL    HW122142   0.420  10.770   3.974  0.8228  1.1257  1.3068
34844SOL    HW222143   0.568  10.741   3.965  0.4155 -0.4522 -1.4487
34845SOL     OW22144   4.911   9.801   1.686 -0.1943  0.4407 -0.0686
34845SOL    HW122145   4.994   9.756   1.671  0.2010  0.4662  1.8031
34845SOL    HW222146   4.851   9.731   1.711  0.3154  0.7975  2.4346
34846SOL     OW22147   7.288  11.435   4.739  0.5622 -0.0456 -0.2510
34846SOL    HW122148   7.338  11.372   4.792  0.2914 -0.4084 -0.4240
34846SOL    HW222149   7.235  11.381   4.681  0.2499  0.3450 -0.3324
34847SOL     OW22150   9.408   2.044   1.122 -0.3347 -0.3003 -0.1800
34847SOL    HW122151   9.486   2.001   1.088 -0.8123  0.3849 -2.2499
34847SOL    HW222152   9.382   2.106   1.054 -2.1123  0.2065  0.8792
34848SOL     OW22153   4.217   5.040   9.990  0.1012 -0.1689 -0.1706
34848SOL    HW122154   4.245   4.949   9.993  1.1423  0.1044 -1.1914
34848SOL    HW222155   4.157   5.049  10.065  1.7878 -1.0845  1.3634
34849SOL     OW22156   6.798   2.396  10.690  0.0222  0.0092 -0.0685
34849SOL    HW122157   6.805   2.382  10.785  1.8826  0.0378 -0.1523
34849SOL    HW222158   6.857   2.470  10.673  0.1550 -0.3674 -1.3140
34850SOL     OW22159   1.282   3.715  13.943  0.0769 -0.0131 -1.0198
34850SOL    HW122160   1.364   3.733  13.988  0.6779 -0.3459 -1.9331
34850SOL    HW222161   1.250   3.801  13.914 -0.1184  0.1585 -0.3052
34851SOL     OW22162   2.315   6.426   9.235  0.1128  0.0040  0.2137
34851SOL    HW122163   2.292   6.490   9.168 -1.3066  0.3870  1.0119
34851SOL    HW222164   2.363   6.475   9.301 -2.5366  0.7818  1.7258
34852SOL     OW22165   9.254   7.493  11.481 -0.6424  0.1390 -0.1743
34852SOL    HW122166   9.240   7.462  11.570  0.3835  0.0350 -0.0394
34852SOL    HW222167   9.272   7.414  11.430 -1.6201  0.1565 -0.5572
34853SOL     OW22168   0.134  10.431  10.748  0.0938 -0.5537  0.2406
34853SOL    HW122169   0.040  10.427  10.732 -0.1519 -1.4395  1.7274
34853SOL    HW222170   0.143  10.422  10.843  1.6444  0.4310  0.2233
34854SOL     OW22171   1.619   6.721  12.267 -0.1680 -0.4311  0.3731
34854SOL    HW122172   1.583   6.743  12.181  0.0047 -0.7735  0.2102
34854SOL    HW222173   1.573   6.641  12.292  0.4724 -0.8700  0.1656
34855SOL     OW22174   1.699   8.448   6.726 -0.2520 -0.9876  0.1179
34855SOL    HW122175   1.788   8.414   6.734  0.0977  0.1276  1.1677
34855SOL    HW222176   1.682   8.447   6.632  2.1732  1.9313 -0.5094
34856SOL     OW22177  12.340   9.914   0.228 -0.7793 -0.2561  0.1945
34856SOL    HW122178  12.423   9.879   0.263 -1.5636  0.4935  3.0897
34856SOL    HW222179  12.352   9.914   0.133  2.2985 -0.7429  0.4800
34857SOL     OW22180  11.795   9.629   5.110 -0.7263 -0.0373  0.0651
34857SOL    HW122181  11.881   9.594   5.132 -0.2448  0.9114 -0.2345
34857SOL    HW222182  11.738   9.553   5.105  0.0331 -0.6514  0.5610
34858SOL     OW22183  11.378  12.314  12.217 -0.6072 -0.7144 -0.1122
34858SOL    HW122184  11.431  12.391  12.239 -0.6487 -0.3588 -1.1606
34858SOL    HW222185  11.299  12.324  12.270 -0.3962 -0.2928  0.1309
34859SOL     OW22186   0.628   6.088   3.398  0.0290  0.0841 -0.4557
34859SOL    HW122187   0.702   6.099   3.339 -1.0605  0.1368 -1.8715
34859SOL    HW222188   0.640   6.155   3.466  1.6245 -0.3796 -0.2498
34860SOL     OW22189  10.477   1.318   4.895  0.5987 -0.0123 -0.1986
34860SOL    HW122190  10.385   1.303   4.915  0.6859  1.1724  1.3582
34860SOL    HW222191  10.489   1.285   4.806 -1.2820 -0.3182 -0.3724
34861SOL     OW22192  11.283   8.393  13.438  0.5739 -0.0267  0.1897
34861SOL    HW122193  11.234   8.403  13.519 -2.3977  0.9072 -1.5804
34861SOL    HW222194  11.293   8.298  13.426 -0.3215 -0.2106  0.8811
34862SOL     OW22195   7.169   4.158   5.346  0.3324 -0.4296  0.5162
34862SOL    HW122196   7.230   4.150   5.273 -0.4594 -0.5693 -0.1472
34862SOL    HW222197   7.172   4.250   5.370  1.6383 -0.6368  1.2450
34863SOL     OW22198  13.474  12.822  11.012 -0.2810  0.1830 -0.0188
34863SOL    HW122199  13.437  12.907  11.037  0.9957  0.6476  0.3866
34863SOL    HW222200  13.565  12.826  11.042  0.0666 -0.9608 -0.8590
34864SOL     OW22201   1.737   8.730  13.943 -0.2334  0.0497  0.4859
34864SOL    HW122202   1.817   8.753  13.896  0.1193 -1.2677  0.4103
34864SOL    HW222203   1.758   8.748  14.035 -0.0405  0.1985  0.4133
34865SOL     OW22204   2.006   4.967   0.443  0.2491 -0.7226  0.1215
34865SOL    HW122205   1.933   4.998   0.390 -0.1046 -1.5635  0.1080
34865SOL    HW222206   2.078   4.955   0.381  0.1616 -0.6609  0.0094
34866SOL     OW22207   8.479   4.743   3.642 -0.0850  0.3833  0.3688
34866SOL    HW122208   8.410   4.700   3.591  0.5869 -0.2218 -0.0308
34866SOL    HW222209   8.540   4.673   3.664  0.6351  1.0022  0.3467
34867SOL     OW22210   0.188   1.217   7.644  0.2558  0.4632 -0.0841
34867SOL    HW122211   0.201   1.187   7.734  0.9923  2.3555  0.4913
34867SOL    HW222212   0.127   1.290   7.652 -1.2119 -0.5530 -1.3786
34868SOL     OW22213   3.014   5.435   5.521 -0.4865 -0.7028  0.3875
34868SOL    HW122214   3.062   5.359   5.490  0.4857 -0.3393  0.9347
34868SOL    HW222215   3.060   5.510   5.483  0.1982 -0.2933  1.9496
34869SOL     OW22216   8.770   1.380  13.017  0.1693 -0.1079  0.3219
34869SOL    HW122217   8.735   1.292  13.033 -1.2643  0.2523 -0.5529
34869SOL    HW222218   8.805   1.408  13.101 -0.8829 -0.8845  1.0521
34870SOL     OW22219   7.652   7.359   2.803  0.2218  0.0803 -0.2228
34870SOL    HW122220   7.603   7.407   2.736  0.8806  0.8385 -0.1717
34870SOL    HW222221   7.585   7.328   2.865 -0.2531  0.5160 -0.5178
34871SOL     OW22222  11.221   4.781   0.483  0.1267 -0.2906 -0.0255
34871SOL    HW122223  11.205   4.804   0.574 -0.3642  2.5308 -0.7232
34871SOL    HW222224  11.144   4.730   0.457 -0.2258 -0.2316  0.8799
34872SOL     OW22225  13.770   9.286  12.387  0.0537  0.1013 -0.0824
34872SOL    HW122226  13.766   9.192  12.373 -0.7331 -0.3065  2.3823
34872SOL    HW222227  13.860   9.310  12.365  1.6275 -2.0526  3.1350
34873SOL     OW22228  10.232  12.343   5.242 -0.6204 -0.4617 -0.1745
34873SOL    HW122229  10.236  12.276   5.311 -3.7934  0.5112  1.1411
34873SOL    HW222230  10.189  12.299   5.168 -0.2780 -0.5798 -0.3060
34874SOL     OW22231   9.671   0.280   0.503  0.2516 -0.4143  0.1676
34874SOL    HW122232   9.578   0.279   0.528  1.0775  0.9056  3.8712
34874SOL    HW222233   9.675   0.341   0.429 -1.6775  0.6464  0.8497
34875SOL     OW22234   4.863  12.801   5.637 -0.0137  0.1348  0.3061
34875SOL    HW122235   4.798  12.865   5.607 -0.2290  0.1064  0.7082
34875SOL    HW222236   4.939  12.854   5.661 -0.2342  0.2539  0.7529
34876SOL     OW22237   7.793  11.930  13.858 -0.6214  0.2533  0.3508
34876SOL    HW122238   7.807  11.996  13.926 -0.0121  1.0590 -0.5410
34876SOL    HW222239   7.729  11.969  13.799 -0.1635  0.0988 -0.2528
34877SOL     OW22240   5.274  12.736   2.940  0.1908  0.5135 -0.3710
34877SOL    HW122241   5.293  12.692   2.857  0.3642  1.6720 -0.9602
34877SOL    HW222242   5.179  12.736   2.947  0.2038 -0.9850  0.2232
34878SOL     OW22243  11.793   6.368  14.026 -0.3889 -0.6035  0.8028
34878SOL    HW122244  11.790   6.274  14.010 -0.0888 -0.5410  0.3633
34878SOL    HW222245  11.799   6.407  13.939  1.5889 -0.2607  1.0433
34879SOL     OW22246  13.775  10.925  11.608  0.2687  0.4314 -0.3578
34879SOL    HW122247  13.846  10.951  11.550  0.8559 -1.7155 -0.6826
34879SOL    HW222248  13.816  10.918  11.695 -0.0555  1.2304 -0.1263
34880SOL     OW22249  10.433   6.352   6.920  0.1820 -0.0424  0.7351
34880SOL    HW122250  10.470   6.414   6.856 -1.5773  1.7357  1.3272
34880SOL    HW222251  10.506   6.328   6.975  0.9242  1.6585  0.5611
34881SOL     OW22252   7.649   4.511   6.207  0.3906 -0.5253  0.1055
34881SOL    HW122253   7.643   4.450   6.279 -1.3694 -0.0191  0.4397
34881SOL    HW222254   7.708   4.580   6.238  2.0778 -1.8035 -0.1354
34882SOL     OW22255   1.030  10.644   2.490 -0.2865 -0.1326  0.0191
34882SOL    HW122256   1.125  10.638   2.496 -0.3406 -0.8476  0.3306
34882SOL    HW222257   0.999  10.559   2.522 -0.9819 -0.3679 -1.2014
34883SOL     OW22258  10.481  11.938   2.010  0.2091 -0.3492  0.7800
34883SOL    HW122259  10.543  11.990   1.958 -1.8329  0.5657 -0.8795
34883SOL    HW222260  10.446  11.874   1.948 -2.0794  0.5668  1.0510
34884SOL     OW22261   9.383  14.006   5.495  0.4613 -0.5278 -0.0292
34884SOL    HW122262   9.449  14.066   5.461 -0.6832  2.8920  3.1113
34884SOL    HW222263   9.409  13.990   5.586 -2.3638  0.1370  1.0208
34885SOL     OW22264   3.285   8.701   5.283 -0.2249 -0.2191  0.2149
34885SOL    HW122265   3.254   8.700   5.192 -0.9720 -0.3288  0.4612
34885SOL    HW222266   3.221   8.648   5.331 -0.1190  0.2521  0.8916
34886SOL     OW22267   1.756  11.701   4.250  0.2442  0.5374 -0.0881
34886SOL    HW122268   1.790  11.636   4.311 -0.0733  0.4521  0.0004
34886SOL    HW222269   1.834  11.735   4.205  0.5399  0.9486  0.7009
34887SOL     OW22270   5.785   8.798   1.183 -0.1463 -0.2193  0.0752
34887SOL    HW122271   5.781   8.763   1.094  4.2965 -1.1339  0.0022
34887SOL    HW222272   5.782   8.721   1.239 -0.6269  0.1785  0.6105
34888SOL     OW22273   7.481   0.733   0.866 -0.2243 -0.3904  0.0610
34888SOL    HW122274   7.564   0.755   0.825  0.1597 -0.8983  0.5494
34888SOL    HW222275   7.449   0.658   0.816 -0.8941  0.4373 -0.7746
34889SOL     OW22276   3.788  13.499   1.593  0.2241 -0.2827 -1.1586
34889SOL    HW122277   3.705  13.483   1.638  0.2496 -0.1668 -1.0711
34889SOL    HW222278   3.815  13.412   1.561 -0.3956 -0.1728 -2.0018
34890SOL     OW22279   0.173   9.984   2.389  0.0453  0.1784 -0.1530
34890SOL    HW122280   0.264   9.985   2.358 -0.1745  1.2717 -0.8108
34890SOL    HW222281   0.122  10.011   2.313 -0.8375 -0.4233  0.2159
34891SOL     OW22282   6.439   4.845   7.199  0.2974  0.9426  0.4541
34891SOL    HW122283   6.450   4.751   7.216  1.3196  1.1234  0.9082
34891SOL    HW222284   6.378   4.874   7.266  1.3556  0.9166  1.4726
34892SOL     OW22285   7.292   7.034  13.739 -0.7711  0.3771 -0.7166
34892SOL    HW122286   7.252   6.947  13.745 -0.7188  0.3553 -0.6733
34892SOL    HW222287   7.233   7.091  13.789 -1.0314  0.4493 -1.1070
34893SOL     OW22288   3.497  10.348   3.551 -0.0448  0.4251  0.1152
34893SOL    HW122289   3.443  10.415   3.595  1.2967  0.0823  2.4580
34893SOL    HW222290   3.567  10.397   3.510  0.8012  0.5581  1.6265
34894SOL     OW22291   3.455  12.299   0.317  0.4659  0.1528  0.5297
34894SOL    HW122292   3.488  12.386   0.343 -0.0401 -0.3830  3.2157
34894SOL    HW222293   3.534  12.245   0.312  0.5232  0.1023  1.7503
34895SOL     OW22294   8.597   2.968   1.087 -0.9670  0.5440  0.6182
34895SOL    HW122295   8.597   2.923   1.003  0.3704 -0.2767  1.0246
34895SOL    HW222296   8.505   2.986   1.105 -1.2445  1.0511 -1.1686
34896SOL     OW22297   8.013   9.352   4.531  0.7511 -0.2382  0.0423
34896SOL    HW122298   8.057   9.330   4.449  2.2117  1.4912  0.2856
34896SOL    HW222299   7.942   9.410   4.504  0.0433 -1.1695 -0.1416
34897SOL     OW22300   9.670   1.066   6.094 -0.1324  0.0260 -0.4956
34897SOL    HW122301   9.630   1.020   6.168 -0.7632  1.9957  0.4487
34897SOL    HW222302   9.764   1.056   6.107 -0.1681  1.6420  1.5220
34898SOL     OW22303  10.088   4.796  12.064 -0.1081  0.4573 -0.1373
34898SOL    HW122304  10.124   4.722  12.114  0.8732  1.8339  1.2961
34898SOL    HW222305   9.995   4.796  12.086 -0.1819 -0.5044 -0.3820
34899SOL     OW22306   4.532   6.211   5.824  0.2193 -0.0302 -0.4758
34899SOL    HW122307   4.565   6.249   5.905  0.3594  3.1534 -1.8794
34899SOL    HW222308   4.574   6.125   5.818  0.1116 -0.4363  2.7996
34900SOL     OW22309   9.871   5.473   1.617  0.3278  0.4366  0.3149
34900SOL    HW122310   9.948   5.520   1.587 -0.7812  2.0514 -0.1840
34900SOL    HW222311   9.822   5.537   1.668 -1.4724  0.0025 -0.7588
34901SOL     OW22312   0.899  12.519   6.191  0.0803 -0.1888 -0.3046
34901SOL    HW122313   0.854  12.568   6.260 -0.9101  0.8076 -1.5934
34901SOL    HW222314   0.835  12.515   6.119  1.5329  0.0079 -1.6658
34902SOL     OW22315   9.311  12.640   2.251 -0.1247  0.1882 -0.4295
34902SOL    HW122316   9.235  12.581   2.253  0.3744 -0.4625 -0.3261
34902SOL    HW222317   9.376  12.593   2.198  0.2470  0.6943 -0.4260
34903SOL     OW22318  11.908   5.565   0.610  0.2037  0.1904  0.2133
34903SOL    HW122319  11.975   5.520   0.662  0.2071  0.7448  0.6928
34903SOL    HW222320  11.950   5.645   0.581  0.3444 -0.3134 -1.0217
34904SOL     OW22321   3.697   4.788   4.260  0.0323  1.1392  0.3192
34904SOL    HW122322   3.718   4.855   4.326  1.3060  1.4029 -0.3295
34904SOL    HW222323   3.634   4.830   4.203  0.0854  1.4459  0.4823
34905SOL     OW22324   2.807   7.441  11.947 -0.1819 -0.0577 -0.3817
34905SOL    HW122325   2.734   7.402  11.995  0.4367 -0.8953 -0.0858
34905SOL    HW222326   2.786   7.427  11.855 -1.1863  1.2035 -0.3609
34906SOL     OW22327   9.614  13.141   9.560 -0.3003  0.3566 -0.1525
34906SOL    HW122328   9.666  13.198   9.503  1.0782 -0.0973  0.6085
34906SOL    HW222329   9.622  13.180   9.647  2.0333 -1.7832  0.7191
34907SOL     OW22330  13.406  13.647  10.259 -0.1564  0.0475 -0.1307
34907SOL    HW122331  13.472  13.659  10.191  0.1867  0.7843  0.3237
34907SOL    HW222332  13.427  13.712  10.326 -0.2011 -0.9785  0.9170
34908SOL     OW22333   0.605   2.296   6.003  0.6430  0.9046  0.3002
34908SOL    HW122334   0.646   2.246   5.933 -0.7585 -2.4407  1.6529
34908SOL    HW222335   0.521   2.323   5.967  0.2637 -0.1225  0.3788
34909SOL     OW22336  12.571  10.806  13.518 -0.3720  0.4062 -0.3579
34909SOL    HW122337  12.528  10.892  13.517  1.8607  1.6402  1.4423
34909SOL    HW222338  12.645  10.816  13.458  1.3534  0.6440  1.6955
34910SOL     OW22339   4.567   3.449   7.779  0.3016  0.4904  0.1050
34910SOL    HW122340   4.635   3.516   7.780  0.3388  0.4503  1.0163
34910SOL    HW222341   4.546   3.435   7.871 -0.5346  0.0878 -0.1397
34911SOL     OW22342   2.062   0.900   0.773 -0.4060 -0.1612 -0.0905
34911SOL    HW122343   2.096   0.830   0.829 -0.4412  0.4797  0.7517
34911SOL    HW222344   1.988   0.936   0.822  0.6087  1.5400  0.2691
34912SOL     OW22345   1.258   9.439   8.962  0.1035  0.5319 -0.3819
34912SOL    HW122346   1.349   9.466   8.971  0.0497  0.7853 -0.6143
34912SOL    HW222347   1.256   9.351   9.000  0.7326 -0.0259 -1.5805
34913SOL     OW22348  10.348  11.776  10.548  0.6567  0.5775  0.2716
34913SOL    HW122349  10.438  11.803  10.530  0.1640  1.3607 -1.2187
34913SOL    HW222350  10.314  11.845  10.606  1.3302 -0.3204  1.7801
34914SOL     OW22351   9.747   4.659   4.851 -0.2457  0.5265  0.4604
34914SOL    HW122352   9.718   4.588   4.793 -0.1657  0.8189  0.0564
34914SOL    HW222353   9.833   4.684   4.817 -0.9474  1.8934 -0.4210
34915SOL     OW22354   9.970   9.167   3.144  0.1995 -0.4393 -0.2680
34915SOL    HW122355  10.004   9.241   3.195  0.6325 -0.7716 -0.0606
34915SOL    HW222356   9.883   9.194   3.116  0.1806 -0.0291  0.1825
34916SOL     OW22357  13.461  11.961   0.612  0.3197 -0.2978  0.2871
34916SOL    HW122358  13.543  11.930   0.651  0.8078  0.4523 -0.1273
34916SOL    HW222359  13.433  12.033   0.669  0.1056 -0.3467  0.2461
34917SOL     OW22360  11.071   1.523   1.658  0.0195  1.1524 -0.4044
34917SOL    HW122361  11.055   1.482   1.573 -0.5434  0.3559  0.0793
34917SOL    HW222362  11.112   1.607   1.636  0.2201  0.7967 -1.4433
34918SOL     OW22363   6.025   3.907   5.035 -0.0414  0.1040  0.1958
34918SOL    HW122364   5.978   3.857   5.102 -0.4260 -0.3740 -0.4095
34918SOL    HW222365   5.961   3.970   5.003 -0.1238 -0.2035 -0.2701
34919SOL     OW22366  11.613   5.340   6.295  0.3422 -0.3685  0.3521
34919SOL    HW122367  11.624   5.262   6.242 -0.2155  0.1639 -0.5716
34919SOL    HW222368  11.703   5.364   6.320  0.8514  0.3979 -1.9075
34920SOL     OW22369   8.077   2.991  10.682  0.1619 -0.2988 -0.6129
34920SOL    HW122370   8.072   3.075  10.728  0.5973 -0.0883 -0.9481
34920SOL    HW222371   8.009   2.937  10.724  0.1389  0.0906 -0.1395
34921SOL     OW22372  12.415   5.178   3.278  0.2841  0.0207  0.4931
34921SOL    HW122373  12.364   5.145   3.352  0.4842 -0.0342  0.6099
34921SOL    HW222374  12.387   5.124   3.204 -0.3626  0.4856  0.3953
34922SOL     OW22375   7.856   8.311   2.074  0.0669 -0.0992 -0.3611
34922SOL    HW122376   7.912   8.326   1.998  0.0746 -0.0226 -0.3396
34922SOL    HW222377   7.833   8.398   2.105 -1.0378 -0.1053 -1.0876
34923SOL     OW22378  13.572  12.577  13.721  0.2627 -0.2743 -0.2627
34923SOL    HW122379  13.531  12.504  13.675 -0.3467 -1.5354  2.1241
34923SOL    HW222380  13.613  12.629  13.652 -1.1545 -1.6637 -2.2533
34924SOL     OW22381   4.384   6.197  12.515  0.2195 -0.2661 -0.0608
34924SOL    HW122382   4.293   6.219  12.536 -0.8377  0.1003 -4.1907
34924SOL    HW222383   4.425   6.281  12.495  1.2534 -0.5225  0.8947
34925SOL     OW22384  11.056   3.018   8.797  0.4924  0.5551  0.1362
34925SOL    HW122385  11.046   2.978   8.710  0.5536  0.5209  0.1450
34925SOL    HW222386  11.040   3.111   8.783 -1.2951  0.3160  0.3982
34926SOL     OW22387   2.230   7.673   2.864  0.8473 -0.6365 -0.0850
34926SOL    HW122388   2.222   7.745   2.802  2.6891 -0.2926 -0.0019
34926SOL    HW222389   2.234   7.595   2.809  0.5277 -0.5099 -0.2888
34927SOL     OW22390   0.250   9.042   9.435  0.0248  0.7387  0.2143
34927SOL    HW122391   0.177   9.036   9.497  0.3476  0.6049  0.5799
34927SOL    HW222392   0.313   8.977   9.465 -0.0815  0.2425 -0.6041
34928SOL     OW22393   3.387  10.094   3.475  0.4927  0.2957 -0.0495
34928SOL    HW122394   3.427  10.008   3.463  0.6963 -0.3116  3.8852
34928SOL    HW222395   3.460  10.152   3.496 -0.0770  0.1309  2.7661
34929SOL     OW22396  12.181  13.654  11.882 -0.1305  0.0581  0.4238
34929SOL    HW122397  12.092  13.683  11.906 -0.3204 -0.1956  0.0373
34929SOL    HW222398  12.171  13.561  11.865  0.5275 -0.3169  1.9009
34930SOL     OW22399  10.391   6.656  13.027 -0.7776  0.7037  0.1373
34930SOL    HW122400  10.337   6.656  12.948 -0.7674  0.7689  0.1297
34930SOL    HW222401  10.336   6.698  13.093 -0.8214  0.5647  0.1879
34931SOL     OW22402   3.792   1.677  10.932  0.4570  0.3589  0.3572
34931SOL    HW122403   3.768   1.605  10.873 -0.7793  1.0891 -0.0644
34931SOL    HW222404   3.867   1.643  10.981  2.1656  0.0282 -2.2501
34932SOL     OW22405   9.789   5.351   1.343 -0.3995 -0.4210 -0.4377
34932SOL    HW122406   9.862   5.410   1.326 -0.0143 -0.3238  1.3033
34932SOL    HW222407   9.780   5.353   1.438 -1.1185 -2.2924 -0.4393
34933SOL     OW22408   6.915   2.159   3.985 -0.8889 -0.2525 -0.4012
34933SOL    HW122409   6.849   2.111   4.036 -1.1570  0.6715  0.1343
34933SOL    HW222410   6.910   2.249   4.018  0.7575 -0.2016 -0.2389
34934SOL     OW22411   1.225   2.346   0.865  0.3058  0.1387 -0.0364
34934SOL    HW122412   1.258   2.432   0.893  3.2372 -0.9902  0.2756
34934SOL    HW222413   1.243   2.288   0.939 -2.2211 -0.7005  0.0226
34935SOL     OW22414  13.064   2.623   0.535 -0.3525 -0.6699 -0.0616
34935SOL    HW122415  13.093   2.541   0.495 -1.1363 -1.0615  0.1416
34935SOL    HW222416  13.139   2.653   0.586  0.6293 -0.2188 -1.7072
34936SOL     OW22417  13.111  10.288   7.739 -0.7079 -0.4115 -0.3119
34936SOL    HW122418  13.066  10.361   7.780 -2.3182 -1.6534  0.2091
34936SOL    HW222419  13.070  10.280   7.653  0.7142  0.3932 -1.1058
34937SOL     OW22420  10.081   0.539   9.905 -0.0450  0.2363  0.1874
34937SOL    HW122421  10.004   0.486   9.926 -0.1615  0.7387  1.0704
34937SOL    HW222422  10.087   0.536   9.809  0.4174 -2.0079  0.2540
34938SOL     OW22423  11.083   3.806   2.292 -0.0725  0.2476  0.4890
34938SOL    HW122424  11.130   3.889   2.296 -1.4983  1.1408 -0.4636
34938SOL    HW222425  11.151   3.740   2.282  1.0083  1.4521 -0.3789
34939SOL     OW22426   9.173   2.647  13.797 -0.1862  0.1953 -0.0258
34939SOL    HW122427   9.131   2.682  13.876 -0.0886 -0.3507  0.2739
34939SOL    HW222428   9.207   2.725  13.751 -0.1293  0.5073  0.5363
34940SOL     OW22429   2.766   1.902   9.579 -0.0927 -0.3841  0.1939
34940SOL    HW122430   2.723   1.817   9.575 -0.9866  0.0919 -0.7368
34940SOL    HW222431   2.715   1.957   9.520  0.6907  0.7023  0.5099
34941SOL     OW22432  12.676  13.784  13.739  0.5350  0.1927 -0.0504
34941SOL    HW122433  12.590  13.746  13.721  0.6722 -0.0576 -0.1829
34941SOL    HW222434  12.723  13.779  13.656  0.6645  0.3639  0.0117
34942SOL     OW22435   8.111   9.968  11.464 -0.0056  0.2870  0.0403
34942SOL    HW122436   8.065   9.956  11.547  0.6957 -0.9384  0.2798
34942SOL    HW222437   8.042   9.985  11.400 -0.8538 -1.7690  0.3479
34943SOL     OW22438   6.712   1.853   2.885 -0.6269 -0.1336  0.0471
34943SOL    HW122439   6.634   1.800   2.867 -1.2471  0.6767  0.2930
34943SOL    HW222440   6.687   1.907   2.961  0.3689 -0.2583  0.4784
34944SOL     OW22441   1.633  11.307   2.387 -0.0792 -0.9336  0.7013
34944SOL    HW122442   1.549  11.262   2.395 -1.2334  1.2821  1.9011
34944SOL    HW222443   1.695  11.251   2.435 -1.5612 -1.0311  2.6114
34945SOL     OW22444   3.751  12.206  12.446  0.1864  0.0721 -0.6345
34945SOL    HW122445   3.749  12.254  12.363 -1.2799  0.8269 -0.1908
34945SOL    HW222446   3.844  12.192  12.462  0.7012  2.5706 -0.9288
34946SOL     OW22447   4.729   9.485   4.704  0.1742  0.0895 -0.2767
34946SOL    HW122448   4.666   9.554   4.685 -0.2636 -0.4313 -0.7698
34946SOL    HW222449   4.796   9.495   4.637 -0.8880 -1.1581 -1.5992
34947SOL     OW22450   1.164   8.912   1.457 -0.2715  0.3262  0.1447
34947SOL    HW122451   1.169   8.923   1.552  1.5216  0.3040  0.0804
34947SOL    HW222452   1.221   8.838   1.438 -1.3595 -0.2811 -0.8755
34948SOL     OW22453   8.688  10.568  11.111  0.3035 -0.1584 -0.0587
34948SOL    HW122454   8.752  10.613  11.165  1.9016 -1.7685 -0.5119
34948SOL    HW222455   8.681  10.621  11.032  0.6765  0.3182  0.2215
34949SOL     OW22456   3.055  10.686   9.680 -0.1388 -0.2227  0.5894
34949SOL    HW122457   2.982  10.704   9.740 -0.0804  1.3773  0.2116
34949SOL    HW222458   3.091  10.772   9.659 -0.2629 -0.7055 -1.9028
34950SOL     OW22459  10.573  13.167   5.515  0.1181  0.3706 -0.2327
34950SOL    HW122460  10.519  13.228   5.565 -0.8990  0.1535 -1.0344
34950SOL    HW222461  10.538  13.171   5.426 -0.4266 -1.8888 -0.1676
34951SOL     OW22462  12.218  13.460   4.776 -0.2181  0.2775  0.3304
34951SOL    HW122463  12.228  13.498   4.863  3.6023  1.0370 -0.2527
34951SOL    HW222464  12.248  13.528   4.716  0.5295 -1.3712 -1.2842
34952SOL     OW22465  11.763   3.451   4.462 -0.3516  0.3251 -0.2652
34952SOL    HW122466  11.694   3.448   4.396 -1.1832  1.1592  0.5388
34952SOL    HW222467  11.759   3.366   4.505  0.9491 -0.6707 -1.9918
34953SOL     OW22468  13.728   5.250   7.634 -0.3886 -0.1628 -0.3457
34953SOL    HW122469  13.795   5.195   7.593 -0.9147 -1.4682  0.4899
34953SOL    HW222470  13.760   5.340   7.623  1.0459 -0.7056 -0.7299
34954SOL     OW22471   2.427   7.092   2.137  0.0190  0.0570  0.0328
34954SOL    HW122472   2.495   7.160   2.132 -0.2453  0.3389  0.1754
34954SOL    HW222473   2.364   7.127   2.201  0.9096 -1.2617  1.6980
34955SOL     OW22474   4.917   8.183   1.683  0.1870 -0.3374 -0.1058
34955SOL    HW122475   4.996   8.186   1.737  0.3916  1.4783 -0.4504
34955SOL    HW222476   4.869   8.262   1.706  0.8320  1.1716 -3.3582
34956SOL     OW22477  10.600  13.316   9.531 -0.0300 -0.3993 -0.1840
34956SOL    HW122478  10.619  13.269   9.450  0.3002  0.2895 -0.5148
34956SOL    HW222479  10.674  13.376   9.543 -0.2591 -0.2264  0.4221
34957SOL     OW22480   5.175  13.990   4.073  0.3665 -0.0508 -0.5008
34957SOL    HW122481   5.224  13.908   4.069  1.2254  0.4089  0.1760
34957SOL    HW222482   5.142  13.994   4.162 -0.7300 -0.2305 -0.8765
34958SOL     OW22483   0.247   3.314   6.835  0.2792  0.4606  0.0229
34958SOL    HW122484   0.323   3.372   6.827  0.3616  0.4658  0.7246
34958SOL    HW222485   0.249   3.286   6.927 -0.7856  0.7693  0.1472
34959SOL     OW22486  11.504   4.495  12.137 -0.2514 -0.4703  0.4788
34959SOL    HW122487  11.426   4.456  12.176 -1.0562 -0.2772 -0.9056
34959SOL    HW222488  11.486   4.588  12.135 -0.2936 -0.4937 -0.5056
34960SOL     OW22489  12.094  10.345   8.896 -1.0791 -0.0305  0.3887
34960SOL    HW122490  12.039  10.270   8.875 -2.1368  0.2220  2.0718
34960SOL    HW222491  12.142  10.319   8.975 -0.1493  0.4434  0.0032
34961SOL     OW22492  12.673   5.041   4.060 -0.4821  0.4982 -0.0212
34961SOL    HW122493  12.695   5.031   4.153 -0.3774  0.1676 -0.0791
34961SOL    HW222494  12.588   4.997   4.051 -0.2600  0.0971 -0.1785
34962SOL     OW22495   3.548   6.684  10.827  0.1059 -0.3814 -0.4301
34962SOL    HW122496   3.564   6.593  10.802 -0.0163 -0.6897  0.5850
34962SOL    HW222497   3.524   6.727  10.745 -1.2194 -1.5625 -0.7055
34963SOL     OW22498   1.198  11.292   5.794 -0.5257 -0.4774 -0.0368
34963SOL    HW122499   1.141  11.259   5.725  0.8937  1.0501 -2.0783
34963SOL    HW222500   1.213  11.384   5.771  1.5577 -0.4297  1.2354
34964SOL     OW22501   8.092   0.840   3.277  0.4510  0.0717 -0.4470
34964SOL    HW122502   8.052   0.906   3.221  0.2472 -0.8190 -1.4037
34964SOL    HW222503   8.118   0.887   3.356 -0.3460  1.1338 -0.7906
34965SOL     OW22504  12.403   8.578  13.720  0.3298 -0.2396 -0.0562
34965SOL    HW122505  12.326   8.522  13.732 -0.1760  0.4817  0.0566
34965SOL    HW222506  12.444   8.581  13.806 -0.7411  1.1532  0.4428
34966SOL     OW22507   0.439  11.736   9.214 -0.0128 -0.0641 -0.4968
34966SOL    HW122508   0.528  11.725   9.249  0.6882 -1.9165 -2.6382
34966SOL    HW222509   0.448  11.804   9.147 -0.4646  0.4573 -0.0443
34967SOL     OW22510   8.405   2.315   8.279  0.1508  0.2829 -0.2656
34967SOL    HW122511   8.350   2.339   8.354 -0.8739 -0.7162 -0.6730
34967SOL    HW222512   8.355   2.343   8.202  1.0439  0.9957 -0.5991
34968SOL     OW22513   8.313   9.792   5.343 -0.0477 -0.2682  0.0935
34968SOL    HW122514   8.256   9.762   5.414  0.0378 -0.4670  0.0787
34968SOL    HW222515   8.393   9.740   5.353  0.4213  0.5289  0.5564
34969SOL     OW22516   2.773  12.313   3.634  0.5789  0.4150  0.1240
34969SOL    HW122517   2.779  12.352   3.547 -1.3035 -0.7150 -0.5706
34969SOL    HW222518   2.777  12.219   3.618 -2.4338  0.0581  0.9030
34970SOL     OW22519   7.893   0.607  11.526  0.7518  0.6687  0.2020
34970SOL    HW122520   7.818   0.551  11.508  0.9015  0.6406 -0.3717
34970SOL    HW222521   7.919   0.586  11.616  0.1733  0.5703  0.3461
34971SOL     OW22522  13.703   6.369   0.129  0.0994  0.1217 -0.4938
34971SOL    HW122523  13.645   6.303   0.090  0.7043 -0.7546  0.0276
34971SOL    HW222524  13.781   6.319   0.156 -0.2956  0.6200  1.8441
34972SOL     OW22525   7.736   7.983   1.868  0.3297 -0.4394 -0.0859
34972SOL    HW122526   7.726   7.888   1.863  0.3057 -0.5072  1.0449
34972SOL    HW222527   7.647   8.016   1.861  0.1176 -0.6158  1.3991
34973SOL     OW22528   6.787   2.570  12.344  0.7003  1.2418  0.0255
34973SOL    HW122529   6.730   2.647  12.339 -0.0303  0.7466  0.5262
34973SOL    HW222530   6.866   2.601  12.389  0.1520  1.5562  0.7925
34974SOL     OW22531  13.913   8.320  11.624  0.3737  0.3974 -0.1317
34974SOL    HW122532  13.824   8.352  11.635 -0.2414 -1.2024 -0.1927
34974SOL    HW222533  13.903   8.230  11.593  1.9919  0.9651 -2.6476
34975SOL     OW22534   9.625   1.281  12.514 -0.6332 -0.2095  0.6343
34975SOL    HW122535   9.675   1.211  12.556 -0.2697  0.3693  1.1850
34975SOL    HW222536   9.544   1.287  12.564  0.0442  0.8655  1.6415
34976SOL     OW22537   5.278   3.914   5.983 -0.3046  0.1321 -0.5313
34976SOL    HW122538   5.251   3.826   6.009 -0.4139 -0.0118 -1.1230
34976SOL    HW222539   5.247   3.923   5.893  1.3386  0.0773 -1.1267
34977SOL     OW22540   7.117   4.647  11.831 -0.4491 -0.4618 -0.1602
34977SOL    HW122541   7.205   4.626  11.862 -0.4126  1.4093  1.0969
34977SOL    HW222542   7.059   4.598  11.889 -0.2799 -0.4592  0.0121
34978SOL     OW22543  11.160  11.500  10.062  0.2851 -0.3934  0.5957
34978SOL    HW122544  11.136  11.475   9.973  1.3788 -0.4401  0.2890
34978SOL    HW222545  11.080  11.536  10.100 -0.3140 -0.7977 -0.2506
34979SOL     OW22546   7.698  11.371   8.014  0.2259 -0.2175  0.2816
34979SOL    HW122547   7.645  11.362   7.935 -0.0301 -2.4456  0.6429
34979SOL    HW222548   7.775  11.316   7.997  0.4175 -0.2960  1.3579
34980SOL     OW22549   1.607   2.756   8.662 -0.7064 -0.2172 -0.3365
34980SOL    HW122550   1.682   2.768   8.720 -1.4273 -0.6259  0.7272
34980SOL    HW222551   1.540   2.716   8.718 -1.6380 -0.0668 -1.3071
34981SOL     OW22552  12.907   5.244   4.093 -0.1466 -0.0130 -0.5073
34981SOL    HW122553  12.851   5.209   4.162 -0.5151  0.0605 -0.7645
34981SOL    HW222554  12.902   5.179   4.023  1.8784 -1.1612  0.3026
34982SOL     OW22555   2.649   0.676   8.504  0.2709 -0.2385  0.2345
34982SOL    HW122556   2.630   0.659   8.596  0.6267  0.0465  0.3594
34982SOL    HW222557   2.744   0.682   8.499  0.2161  0.5898  0.0007
34983SOL     OW22558   6.211  13.318   8.834  1.0332  0.5916 -0.1840
34983SOL    HW122559   6.251  13.305   8.748  2.7447  2.3104  0.3001
34983SOL    HW222560   6.201  13.413   8.843  1.0742  0.4789  1.5678
34984SOL     OW22561  13.063  10.391  13.664 -0.2334 -0.0977  0.4025
34984SOL    HW122562  13.148  10.398  13.707  0.1368  1.3042 -0.4868
34984SOL    HW222563  13.067  10.308  13.616  1.7721  1.1922 -1.8635
34985SOL     OW22564   5.288   7.433   1.201  0.2292  0.5397  0.3412
34985SOL    HW122565   5.288   7.481   1.118  0.1743 -2.3821 -1.5113
34985SOL    HW222566   5.203   7.390   1.204  1.3081 -1.8010  0.2982
34986SOL     OW22567   3.937  13.237   2.772  0.0796  0.1531  0.4023
34986SOL    HW122568   3.881  13.176   2.820 -0.8678  1.1469  0.6089
34986SOL    HW222569   3.902  13.324   2.794  0.2094  0.6880 -1.3333
34987SOL     OW22570  11.434   3.233   3.599  0.7285 -0.0476  0.4382
34987SOL    HW122571  11.353   3.261   3.641  0.9476  0.6377  0.4241
34987SOL    HW222572  11.414   3.148   3.561 -0.3524  0.6169 -0.5730
34988SOL     OW22573   6.806  13.285   4.554 -0.4649 -0.3041  0.0906
34988SOL    HW122574   6.772  13.260   4.468  2.8182 -1.6568 -0.9544
34988SOL    HW222575   6.812  13.203   4.602 -1.0632  0.2720  1.1813
34989SOL     OW22576   8.799   4.440   5.333 -0.4088  0.9227  0.3639
34989SOL    HW122577   8.881   4.427   5.381  0.1153  0.1429 -0.7006
34989SOL    HW222578   8.817   4.405   5.246 -2.1495 -0.0773  0.3713
34990SOL     OW22579   7.309  11.603   5.121 -0.4660 -0.7400  0.2358
34990SOL    HW122580   7.396  11.566   5.108  0.1199  0.1827  1.2750
34990SOL    HW222581   7.251  11.549   5.067  0.6549 -1.7425 -0.0124
34991SOL     OW22582  11.368   4.349  11.471  0.0496  0.3362  0.2084
34991SOL    HW122583  11.292   4.391  11.511  0.4299 -1.2324  2.8337
34991SOL    HW222584  11.441   4.407  11.492  0.2458 -0.4783  1.8822
34992SOL     OW22585   1.593   3.985   8.158 -0.7908 -0.2539 -0.0037
34992SOL    HW122586   1.681   3.981   8.194 -2.1510 -0.4084  3.7756
34992SOL    HW222587   1.593   4.065   8.105  1.4099  0.1076  0.4329
34993SOL     OW22588   0.299   9.376   2.547  0.3856  0.1879  0.0919
34993SOL    HW122589   0.306   9.470   2.528 -0.4593  0.5222  1.3270
34993SOL    HW222590   0.261   9.338   2.468 -0.7015  1.1251  0.1489
34994SOL     OW22591  13.393  11.160   6.839  0.2318 -0.0214 -0.8583
34994SOL    HW122592  13.388  11.147   6.934  0.5362  2.1462 -0.4930
34994SOL    HW222593  13.485  11.142   6.818  0.7194  1.6040 -0.3179
34995SOL     OW22594   1.131   6.267   5.739 -0.1024 -0.3542  0.2657
34995SOL    HW122595   1.133   6.184   5.692  0.6344  0.3430 -1.0043
34995SOL    HW222596   1.202   6.318   5.699 -0.3092  0.7557  1.2636
34996SOL     OW22597  13.623   2.414   4.250  0.6611 -0.7156  0.2420
34996SOL    HW122598  13.649   2.333   4.292  1.3229 -1.7071 -1.9790
34996SOL    HW222599  13.693   2.434   4.189 -1.6042 -1.1182 -2.7414
34997SOL     OW22600  11.918   6.261  11.095 -0.1997  0.2865 -0.1919
34997SOL    HW122601  11.905   6.354  11.112  2.4629  0.4582  1.3692
34997SOL    HW222602  11.975   6.258  11.019 -1.1652 -0.1399 -0.9210
34998SOL     OW22603   9.703   0.198   4.058  0.1561  0.2880  0.2743
34998SOL    HW122604   9.640   0.172   4.124  0.3565 -0.9423  0.0145
34998SOL    HW222605   9.655   0.192   3.975  0.6807 -1.0586  0.0322
34999SOL     OW22606   2.319   5.634   6.714 -0.7148 -0.4654 -0.3523
34999SOL    HW122607   2.396   5.601   6.668 -0.6955  0.1299 -0.7464
34999SOL    HW222608   2.355   5.682   6.789 -0.6814  0.2908 -0.8487
35000SOL     OW22609  11.650   5.964   3.233  0.0121 -0.3358  0.0326
35000SOL    HW122610  11.733   5.946   3.189 -1.1297 -0.5880 -2.1622
35000SOL    HW222611  11.675   5.983   3.324  2.3470 -1.5025 -0.2731
35001SOL     OW22612  11.408   6.532  12.169  0.8356  0.4251  0.0097
35001SOL    HW122613  11.443   6.620  12.155  0.6193  0.5755  0.3933
35001SOL    HW222614  11.462   6.497  12.240  3.2318 -1.0596 -2.3734
35002SOL     OW22615   5.112  12.424   5.433  0.2374 -0.4265 -0.0746
35002SOL    HW122616   5.047  12.381   5.376 -0.9709  0.0596  0.9014
35002SOL    HW222617   5.196  12.397   5.397 -0.4472  0.6155 -2.6972
35003SOL     OW22618  12.542  10.262   2.019  0.5146  0.4504 -0.3651
35003SOL    HW122619  12.464  10.220   1.982  0.2659  0.0721  0.5699
35003SOL    HW222620  12.612  10.198   2.005  0.3341  0.1280  0.1923
35004SOL     OW22621  12.642   1.035   4.225  0.5409 -0.2329 -0.2237
35004SOL    HW122622  12.706   1.001   4.162 -0.0958 -1.6060 -0.1600
35004SOL    HW222623  12.628   1.126   4.198  0.8124 -0.5797 -1.6314
35005SOL     OW22624   3.009  13.005   2.609  0.0933 -0.9762  0.0373
35005SOL    HW122625   3.037  12.976   2.522  0.8944 -1.9799  0.6159
35005SOL    HW222626   3.082  12.984   2.666  1.5088  3.6277  0.3179
35006SOL     OW22627   0.692   1.322   2.733  0.0459  0.3225 -0.4249
35006SOL    HW122628   0.688   1.229   2.715  0.3347 -0.0053  1.0384
35006SOL    HW222629   0.671   1.329   2.827  1.0011  1.6133 -0.2772
35007SOL     OW22630   2.183  10.281  11.231 -0.2445  0.1777 -0.1780
35007SOL    HW122631   2.211  10.256  11.320  0.2653 -2.6425 -1.0095
35007SOL    HW222632   2.186  10.376  11.231  0.7538  0.2521  2.5226
35008SOL     OW22633   4.199   0.931  11.012  0.7571 -0.6271 -0.4240
35008SOL    HW122634   4.155   0.847  11.028  0.4262 -0.3997 -0.1177
35008SOL    HW222635   4.152   0.968  10.937 -0.1265 -0.0124  0.4110
35009SOL     OW22636   1.535   1.797   9.195  0.0339 -0.0856 -0.2867
35009SOL    HW122637   1.511   1.813   9.104 -0.1389 -0.9974 -0.4085
35009SOL    HW222638   1.594   1.870   9.217  0.1388  0.1048 -1.1459
35010SOL     OW22639   9.876   0.870   2.831 -0.1237 -0.1515  0.5457
35010SOL    HW122640   9.955   0.859   2.885  0.1942 -0.6896 -0.0211
35010SOL    HW222641   9.806   0.832   2.884 -0.1882  1.1997  1.4771
35011SOL     OW22642   8.324   9.982  13.061  0.1154  0.2251 -0.2666
35011SOL    HW122643   8.411   9.992  13.022  0.4005 -0.7216  0.1016
35011SOL    HW222644   8.309  10.064  13.107 -0.2611  1.4187 -2.3765
35012SOL     OW22645   0.612  12.127   6.570  0.7489 -0.0272 -0.0882
35012SOL    HW122646   0.532  12.162   6.531  1.1479 -1.5476 -2.4640
35012SOL    HW222647   0.580  12.071   6.641 -0.2545 -0.0347 -0.5246
35013SOL     OW22648  13.022   1.342   8.462  0.7810 -0.3418  0.4633
35013SOL    HW122649  12.983   1.335   8.375 -1.0378 -1.7998  1.3220
35013SOL    HW222650  12.995   1.428   8.494  0.4040 -0.3099  0.0621
35014SOL     OW22651   1.905   8.092   6.661 -0.3602  0.4308  0.1822
35014SOL    HW122652   1.928   8.064   6.572 -2.6597  2.7179 -1.2896
35014SOL    HW222653   1.838   8.030   6.689 -0.9650  0.7572 -0.4931
35015SOL     OW22654  13.717   7.480   2.294 -0.4384 -0.0969 -0.6946
35015SOL    HW122655  13.646   7.524   2.341 -0.0911  1.0213 -1.1679
35015SOL    HW222656  13.779   7.551   2.273 -0.4337 -0.6014 -2.5300
35016SOL     OW22657   9.448   7.518   1.216 -0.1043 -0.1318  0.5192
35016SOL    HW122658   9.423   7.610   1.215 -1.1091 -0.3588  1.7029
35016SOL    HW222659   9.450   7.492   1.124 -1.4338  0.6601  0.2435
35017SOL     OW22660  13.865   6.897   7.438 -0.1485  0.1616 -0.0760
35017SOL    HW122661  13.891   6.858   7.354  0.8652  0.5061  0.0664
35017SOL    HW222662  13.801   6.836   7.473 -0.0178 -0.3809 -0.7491
35018SOL     OW22663   1.309   9.986   9.550 -0.1127 -0.2889  0.2217
35018SOL    HW122664   1.275  10.074   9.569 -1.6066 -0.9191  0.5401
35018SOL    HW222665   1.380   9.974   9.614 -0.7643  0.1809  1.0523
35019SOL     OW22666   4.851   8.040   1.228  0.0927  0.0786 -0.1300
35019SOL    HW122667   4.758   8.031   1.208  0.5182 -0.6464 -2.0464
35019SOL    HW222668   4.881   7.950   1.243  0.6374  0.2201 -0.3496
35020SOL     OW22669   1.021  10.243   4.250 -0.0028 -0.1915 -0.1424
35020SOL    HW122670   1.094  10.223   4.192 -0.5427  1.3236 -1.4328
35020SOL    HW222671   1.059  10.299   4.318  0.1945 -0.0212 -0.3902
35021SOL     OW22672   4.174   0.637   8.185 -0.2516 -0.0341  0.1735
35021SOL    HW122673   4.187   0.542   8.189  0.0162  0.0258  1.0759
35021SOL    HW222674   4.216   0.664   8.104  1.2961 -0.4616  0.7909
35022SOL     OW22675   3.909  12.241   1.372  0.5513  0.2161 -0.1111
35022SOL    HW122676   3.849  12.257   1.445 -0.0805 -0.5182 -0.4593
35022SOL    HW222677   3.856  12.199   1.305  1.4409 -0.4719 -0.4190
35023SOL     OW22678  11.713   7.093   6.042 -0.1878 -0.1409  0.7610
35023SOL    HW122679  11.624   7.096   6.006  0.4027  2.0585 -0.7169
35023SOL    HW222680  11.708   7.137   6.126 -0.4306  0.3294  0.5000
35024SOL     OW22681   3.476   3.023  10.940 -0.0626  0.0594 -0.3700
35024SOL    HW122682   3.531   2.952  10.972 -0.5090 -0.0614  0.1396
35024SOL    HW222683   3.437   3.061  11.018  0.4346  1.0896 -0.6034
35025SOL     OW22684   4.481   1.189   4.746  0.2858 -0.2039  0.3690
35025SOL    HW122685   4.495   1.136   4.667  1.2091  3.1040 -1.8957
35025SOL    HW222686   4.569   1.212   4.775 -0.0524  2.0916 -0.2541
35026SOL     OW22687  13.741   9.518  14.041  0.1246  0.2368 -0.3803
35026SOL    HW122688  13.682   9.457  14.086  1.6145 -1.0179 -0.0575
35026SOL    HW222689  13.713   9.515  13.950  0.1227 -0.9110 -0.3602
35027SOL     OW22690   6.364   4.208   6.889 -0.0887 -0.0298  0.3170
35027SOL    HW122691   6.400   4.136   6.838 -1.0777 -1.6807  1.8574
35027SOL    HW222692   6.284   4.233   6.842 -0.4903 -0.9058  0.5171
35028SOL     OW22693  13.922   7.720   4.592  0.4263  0.3536 -0.6202
35028SOL    HW122694  13.990   7.788   4.593 -2.0326  3.1103  2.2010
35028SOL    HW222695  13.961   7.647   4.639  3.1122 -0.3976 -3.6156
35029SOL     OW22696   5.850  14.062   8.703  0.6963 -0.3665  0.1198
35029SOL    HW122697   5.766  14.081   8.662  0.6189 -1.8300 -0.4606
35029SOL    HW222698   5.913  14.058   8.631  1.6138  2.1438  0.6642
35030SOL     OW22699  10.624  13.229  13.476  0.4691  0.0642 -0.2994
35030SOL    HW122700  10.568  13.159  13.510  0.5914  0.4471  0.7428
35030SOL    HW222701  10.712  13.192  13.476  0.4437  0.0050 -0.3486
35031SOL     OW22702   3.439   9.755   6.354 -0.2010 -0.9787 -0.4506
35031SOL    HW122703   3.484   9.749   6.270  0.4363 -1.7471 -0.0651
35031SOL    HW222704   3.509   9.775   6.417 -0.9373  1.7893 -0.3615
35032SOL     OW22705  13.946  10.520   0.351 -0.4740  0.1132 -0.0026
35032SOL    HW122706  13.959  10.554   0.440 -0.4236  0.9934 -0.3416
35032SOL    HW222707  13.853  10.534   0.333 -0.1267  1.6107 -0.7576
35033SOL     OW22708   7.721   5.987   8.663 -0.2157 -0.1214 -0.4099
35033SOL    HW122709   7.646   5.928   8.669 -0.0133 -0.4348 -0.9521
35033SOL    HW222710   7.778   5.947   8.597  0.1276  0.4504 -0.4616
35034SOL     OW22711   2.473   1.097   3.513  0.5376  0.2359  0.0256
35034SOL    HW122712   2.479   1.116   3.419 -0.8456  1.3383  0.1213
35034SOL    HW222713   2.380   1.087   3.530  0.8683 -1.4849  1.0305
35035SOL     OW22714  13.914   8.604   0.628  0.0817  0.6527 -0.3390
35035SOL    HW122715  13.836   8.550   0.643  1.7677 -1.4644  1.2811
35035SOL    HW222716  13.947   8.576   0.543  0.7489 -0.7018  0.3364
35036SOL     OW22717  13.325   7.931   6.166  0.8301 -0.1899 -0.0397
35036SOL    HW122718  13.381   7.901   6.095 -1.5069 -3.0448 -0.9152
35036SOL    HW222719  13.316   7.855   6.223 -3.4151 -0.6571 -0.9501
35037SOL     OW22720   3.679  11.613   1.866  0.4772 -0.0103 -0.4800
35037SOL    HW122721   3.726  11.551   1.811  1.0344  1.2081 -1.4339
35037SOL    HW222722   3.636  11.672   1.804  2.1997  2.2255  0.3434
35038SOL     OW22723   1.075   1.298  12.944  0.1559  0.1533 -0.3953
35038SOL    HW122724   1.025   1.377  12.926 -0.1004  0.3027  0.9185
35038SOL    HW222725   1.150   1.303  12.884 -0.3456  0.9123 -0.9759
35039SOL     OW22726  12.108   4.784   8.089 -0.2985 -0.1190  0.1993
35039SOL    HW122727  12.164   4.809   8.015  2.0395  0.8839  2.2083
35039SOL    HW222728  12.139   4.697   8.115  0.5455  0.5384  1.4710
35040SOL     OW22729   5.148   7.873  10.745  0.3077 -0.7934  0.0265
35040SOL    HW122730   5.085   7.910  10.807  0.7589  0.2692 -0.1320
35040SOL    HW222731   5.150   7.779  10.766 -0.7095 -0.7092  0.5688
35041SOL     OW22732   0.628  12.210   9.374 -0.5233  0.6473  0.8290
35041SOL    HW122733   0.663  12.257   9.298  0.4504 -2.4447 -0.8223
35041SOL    HW222734   0.539  12.186   9.348 -0.1907 -0.4138  0.6372
35042SOL     OW22735   3.553   2.728  10.237  0.3314  0.5656 -0.1145
35042SOL    HW122736   3.470   2.776  10.239  0.5938  1.0072  1.6796
35042SOL    HW222737   3.566   2.708  10.144 -2.1530 -0.2132 -0.3647
35043SOL     OW22738   0.359   6.771   4.125  1.0054  0.0130  0.2101
35043SOL    HW122739   0.282   6.731   4.084  1.4732  0.2973 -0.9817
35043SOL    HW222740   0.370   6.723   4.207 -0.9020  0.4972  0.7931
35044SOL     OW22741   2.107   1.189   9.264 -0.3489  0.6107 -0.1064
35044SOL    HW122742   2.089   1.198   9.358 -1.2570  1.9675 -0.3768
35044SOL    HW222743   2.164   1.112   9.258 -0.6226  0.2322  1.5069
35045SOL     OW22744   8.147   1.582   8.929  0.0484  0.5741  0.0063
35045SOL    HW122745   8.082   1.652   8.923 -1.3902 -0.7257 -0.0942
35045SOL    HW222746   8.212   1.604   8.862 -1.4043  0.8008 -1.3815
35046SOL     OW22747  11.221   8.294  13.930 -0.1040 -0.0340 -0.1829
35046SOL    HW122748  11.164   8.263  14.000  0.0395 -0.3612 -0.2135
35046SOL    HW222749  11.308   8.301  13.970  0.2443 -1.4378 -0.6511
35047SOL     OW22750   7.371   6.891  11.787 -0.8052 -0.4978 -0.6777
35047SOL    HW122751   7.299   6.830  11.775  0.1263 -1.6012 -0.8542
35047SOL    HW222752   7.332   6.966  11.831 -1.8519 -1.5529  0.2754
35048SOL     OW22753   3.983   2.099   4.868  0.1239 -0.0454  0.1817
35048SOL    HW122754   4.053   2.142   4.819 -0.7781  1.9442  0.5296
35048SOL    HW222755   4.023   2.079   4.953  0.9708 -1.2585 -0.4707
35049SOL     OW22756  10.295  12.122   1.613  0.3208 -0.1335 -0.4391
35049SOL    HW122757  10.226  12.152   1.554  0.4562 -0.1970 -0.6310
35049SOL    HW222758  10.254  12.120   1.699  0.0082 -0.4237 -0.5924
35050SOL     OW22759  11.113   1.186   7.927 -0.1233  0.2592 -0.3823
35050SOL    HW122760  11.206   1.173   7.946 -0.0769 -0.6589 -1.1920
35050SOL    HW222761  11.068   1.145   8.001  0.0910 -1.5127 -1.2002
35051SOL     OW22762   1.801   1.416   6.677 -0.4904  0.4957  0.5247
35051SOL    HW122763   1.767   1.472   6.607 -2.7222 -1.4453 -0.1253
35051SOL    HW222764   1.895   1.410   6.660 -0.9705 -0.0793 -2.5393
35052SOL     OW22765  11.246  13.179  11.650  0.2102  0.5627  0.0449
35052SOL    HW122766  11.331  13.167  11.692  0.8672 -0.8347 -1.5976
35052SOL    HW222767  11.254  13.136  11.565 -1.7242  1.5384 -0.6957
35053SOL     OW22768  10.960  10.239  12.122 -0.3608  0.1036 -0.1724
35053SOL    HW122769  11.028  10.172  12.133  0.2056  0.5925 -0.6229
35053SOL    HW222770  10.971  10.270  12.032 -0.5844  0.8343  0.0482
35054SOL     OW22771   1.678  11.464   9.068 -0.4219 -0.0986 -0.6577
35054SOL    HW122772   1.629  11.385   9.045 -0.4254 -0.0706 -0.7478
35054SOL    HW222773   1.751  11.466   9.006  0.8233 -1.1913  0.7042
35055SOL     OW22774  11.926   1.368   8.491  0.3099  0.3139 -0.3422
35055SOL    HW122775  11.984   1.310   8.540 -0.2514  0.0391  0.0072
35055SOL    HW222776  11.855   1.388   8.552 -0.8868 -0.7641 -1.2982
35056SOL     OW22777   4.794  11.123   5.494 -0.1951  0.1341  0.1532
35056SOL    HW122778   4.838  11.160   5.571 -0.9983  1.8212 -0.1443
35056SOL    HW222779   4.860  11.125   5.425  0.0243  0.2027  0.3633
35057SOL     OW22780   9.146   5.437   3.462 -0.1355  0.0366  0.5394
35057SOL    HW122781   9.239   5.413   3.468  0.0186  0.4116 -0.2350
35057SOL    HW222782   9.139   5.486   3.381 -0.7857  1.0813  1.2013
35058SOL     OW22783   0.346   4.681   9.225  0.0837 -0.7409  0.0178
35058SOL    HW122784   0.380   4.620   9.291  0.6674  0.4682  0.8694
35058SOL    HW222785   0.356   4.634   9.142 -0.1898 -2.0935  0.7181
35059SOL     OW22786   9.580  12.748   2.765  0.1082  0.0214 -0.1947
35059SOL    HW122787   9.530  12.715   2.690 -0.3941  1.8959 -0.7384
35059SOL    HW222788   9.643  12.678   2.784 -0.7464 -1.1323 -1.3897
35060SOL     OW22789   4.547   7.215   8.435  0.5580 -0.8668  0.1770
35060SOL    HW122790   4.493   7.175   8.503 -1.8567 -0.6801 -1.4978
35060SOL    HW222791   4.487   7.272   8.387  2.6376  0.5834 -0.8914
35061SOL     OW22792  12.675  13.432   8.491  0.4643  0.3732  0.1369
35061SOL    HW122793  12.680  13.361   8.555 -0.2872  0.6533  0.5250
35061SOL    HW222794  12.691  13.390   8.406  0.4975 -0.1687  0.4077
35062SOL     OW22795   7.484   9.639   0.930 -0.3240  0.1670  0.3079
35062SOL    HW122796   7.580   9.643   0.923 -0.2283  2.2671  1.5638
35062SOL    HW222797   7.455   9.596   0.850  1.6431  0.1337 -0.4440
35063SOL     OW22798   8.172  11.718  11.903 -0.3221  0.5061  0.3154
35063SOL    HW122799   8.170  11.801  11.855  0.8982  0.7698  0.6750
35063SOL    HW222800   8.133  11.654  11.843 -1.8541  1.4347  0.2745
35064SOL     OW22801   0.512   2.424   1.460 -0.4646  0.8560  0.0977
35064SOL    HW122802   0.559   2.507   1.469  1.3815  0.1802 -2.2817
35064SOL    HW222803   0.523   2.400   1.368 -0.3266 -2.3476  0.8515
35065SOL     OW22804   7.013   6.624  13.963  0.2054  0.5575  0.3810
35065SOL    HW122805   7.068   6.619  14.042 -1.2777 -0.0115  1.4186
35065SOL    HW222806   6.924   6.634  13.996 -0.3197  1.8289 -1.2722
35066SOL     OW22807   7.500   0.589   3.598 -0.4485 -0.5365  0.4518
35066SOL    HW122808   7.504   0.597   3.503 -1.6974 -1.2369  0.3152
35066SOL    HW222809   7.535   0.502   3.616 -0.0825 -0.3508  0.6601
35067SOL     OW22810   4.314  13.651   2.065  0.1586 -0.4194  0.0612
35067SOL    HW122811   4.334  13.646   1.972  0.2493 -2.2831  0.1527
35067SOL    HW222812   4.245  13.717   2.071  0.8335  0.4317 -1.1861
35068SOL     OW22813   0.669   2.419  12.161  0.0631  0.1910  0.7592
35068SOL    HW122814   0.719   2.384  12.235  1.9027 -2.6267 -1.5716
35068SOL    HW222815   0.585   2.374  12.166 -0.2547  0.8689  1.7254
35069SOL     OW22816  12.190   2.956   0.447  0.0128 -0.5153 -0.0269
35069SOL    HW122817  12.098   2.939   0.428  0.2002 -0.4744 -1.0431
35069SOL    HW222818  12.189   3.033   0.504 -0.5248  0.6222 -1.5046
35070SOL     OW22819   3.827   8.457   1.106  0.1214 -0.1279 -0.2365
35070SOL    HW122820   3.769   8.504   1.166 -1.0775 -2.1029  0.2437
35070SOL    HW222821   3.897   8.423   1.161  1.2997  1.4912 -0.6735
35071SOL     OW22822   2.412   3.613   5.818 -0.3105  0.3677 -0.3023
35071SOL    HW122823   2.363   3.557   5.878  0.1640 -1.3512 -1.4568
35071SOL    HW222824   2.498   3.624   5.859  0.6977 -2.3930 -1.4386
35072SOL     OW22825   7.098   8.606  13.096  0.3812 -0.2543  0.7982
35072SOL    HW122826   7.164   8.674  13.108 -1.2722  1.2773  1.6093
35072SOL    HW222827   7.136   8.529  13.138  2.3772  0.0532 -0.3078
35073SOL     OW22828   9.209  12.475   5.421 -0.0238  0.0535 -0.2769
35073SOL    HW122829   9.202  12.546   5.486 -2.6171 -2.1634  2.1330
35073SOL    HW222830   9.124  12.433   5.423  1.1525 -2.6844 -2.1600
35074SOL     OW22831   9.003  11.303   8.947 -0.4726 -0.2269 -0.0693
35074SOL    HW122832   9.059  11.249   8.890 -0.0641  0.4497 -0.3262
35074SOL    HW222833   8.914  11.273   8.929 -0.3665  0.0502 -1.1778
35075SOL     OW22834   5.491  11.479   6.683  0.1370  0.3489  0.3770
35075SOL    HW122835   5.444  11.408   6.727  0.9736 -1.1012 -0.9508
35075SOL    HW222836   5.480  11.460   6.590 -0.2441  2.4300 -0.0471
35076SOL     OW22837  12.375   0.014  13.395 -0.0090  0.2057 -0.4636
35076SOL    HW122838  12.382  -0.081  13.401  0.5086  0.3253  3.3986
35076SOL    HW222839  12.283   0.030  13.374 -1.2496 -1.2606  3.1901
35077SOL     OW22840   4.416  12.658  10.872 -0.2248 -0.1210  0.0699
35077SOL    HW122841   4.360  12.613  10.808  1.6692 -1.4285 -0.7905
35077SOL    HW222842   4.449  12.588  10.928  0.2886  0.6497  0.7480
35078SOL     OW22843   5.550   2.948   2.822  0.1953  0.0268  0.4399
35078SOL    HW122844   5.462   2.910   2.825 -0.1587  0.7950  0.0783
35078SOL    HW222845   5.600   2.889   2.766 -1.1945  1.7058 -2.8586
35079SOL     OW22846   4.980   1.520   7.240 -0.8260  0.5651 -0.0399
35079SOL    HW122847   5.014   1.465   7.310 -1.5323  0.0038 -0.1289
35079SOL    HW222848   5.013   1.608   7.260  0.9804 -0.0051 -0.3196
35080SOL     OW22849   8.884   9.385   0.257 -0.5394  0.4485 -0.2288
35080SOL    HW122850   8.960   9.331   0.277 -0.9331  0.1313  0.4502
35080SOL    HW222851   8.822   9.367   0.328 -1.4106  0.4014 -0.9829
35081SOL     OW22852  12.709   9.786   2.162  0.2113  0.0841 -0.2711
35081SOL    HW122853  12.621   9.813   2.137  0.2369  1.5494  1.0409
35081SOL    HW222854  12.765   9.857   2.131  1.1693 -1.4841 -2.3467
35082SOL     OW22855  12.804  13.512   1.713  0.4272 -0.3292  0.0355
35082SOL    HW122856  12.883  13.458   1.718  0.2741 -0.5032  0.8466
35082SOL    HW222857  12.741  13.467   1.770  0.9848  1.8229  2.5379
35083SOL     OW22858  12.275   6.867   7.763 -0.5359 -0.0810  0.0121
35083SOL    HW122859  12.196   6.904   7.724 -0.0928  2.4904  1.3462
35083SOL    HW222860  12.292   6.922   7.840  2.7299 -0.2531 -0.4322
35084SOL     OW22861  10.822   2.864   4.070  0.5656  0.6918 -0.3623
35084SOL    HW122862  10.732   2.848   4.097  1.0369  0.0248  0.8877
35084SOL    HW222863  10.851   2.781   4.033  1.2941  0.2271  1.1535
35085SOL     OW22864   3.912   1.741   9.845  0.3089  0.2522 -0.6132
35085SOL    HW122865   3.973   1.666   9.844  0.0944  0.0785 -1.3610
35085SOL    HW222866   3.849   1.721   9.775 -0.6348  0.4151  0.1720
35086SOL     OW22867   0.486   8.299   9.684  0.0629  0.2179 -0.7690
35086SOL    HW122868   0.457   8.240   9.754  1.1749  0.4455 -0.0776
35086SOL    HW222869   0.516   8.241   9.614 -0.4265 -0.0209 -0.7813
35087SOL     OW22870  11.544  12.694   3.596  0.2509  0.1091  0.7138
35087SOL    HW122871  11.547  12.664   3.686 -0.8968 -0.2856  0.6424
35087SOL    HW222872  11.555  12.789   3.602 -0.0386  0.1122  1.2936
35088SOL     OW22873   0.638   2.588  14.026  0.0698  0.3237 -0.3650
35088SOL    HW122874   0.689   2.666  14.049  0.9682  0.1782 -1.7905
35088SOL    HW222875   0.698   2.535  13.974 -0.7990 -0.9579 -0.0936
35089SOL     OW22876   7.109   7.079   0.734  0.0879  0.5657  0.4134
35089SOL    HW122877   7.161   7.023   0.677  0.5213  1.9954 -0.6692
35089SOL    HW222878   7.172   7.140   0.772 -0.2719 -0.0586  2.0935
35090SOL     OW22879   5.199   3.689   1.487  0.0777  0.2934  0.4561
35090SOL    HW122880   5.178   3.736   1.406  0.5588 -1.8525 -0.9677
35090SOL    HW222881   5.113   3.670   1.526 -0.3270 -1.2417 -1.1004
35091SOL     OW22882   6.492  11.986   5.038  0.3196  0.3037 -0.2149
35091SOL    HW122883   6.514  12.054   4.975  0.4088  0.0063 -0.5025
35091SOL    HW222884   6.576  11.957   5.073  0.2452  0.9365  0.5474
35092SOL     OW22885   0.446  12.006   0.581  0.3852 -0.2900  0.9809
35092SOL    HW122886   0.485  12.017   0.668 -0.5623 -2.3275  1.7274
35092SOL    HW222887   0.484  12.077   0.529 -0.1517  1.9603  3.4216
35093SOL     OW22888   9.257   0.330   5.972 -0.0243 -0.1615 -0.3311
35093SOL    HW122889   9.170   0.327   5.932 -0.0780  0.7193 -0.3057
35093SOL    HW222890   9.252   0.404   6.033  1.2645  0.9984 -1.5681
35094SOL     OW22891   4.875   8.451   1.456  0.0137  0.1117 -0.4592
35094SOL    HW122892   4.914   8.365   1.442 -0.7912  0.0809 -3.1193
35094SOL    HW222893   4.795   8.434   1.504  0.3498 -0.5120 -0.1095
35095SOL     OW22894  13.890   5.686   0.033 -0.7564 -0.0871  0.5570
35095SOL    HW122895  13.865   5.772  -0.001  0.9901  0.7762  1.3151
35095SOL    HW222896  13.877   5.693   0.127 -0.1796 -0.4774  0.6746
35096SOL     OW22897  12.148   5.997   8.876  0.1329  0.2912 -0.8275
35096SOL    HW122898  12.198   5.931   8.828 -0.5987  0.3466 -1.6736
35096SOL    HW222899  12.203   6.018   8.952  1.1260 -0.0767 -1.4327
35097SOL     OW22900   2.054   8.715  12.437 -0.2277 -0.8440 -0.2724
35097SOL    HW122901   2.107   8.660  12.379  0.3319 -0.7761  0.1623
35097SOL    HW222902   1.964   8.704  12.406  0.1160 -0.3870 -1.4984
35098SOL     OW22903   3.872  12.532   2.846  0.2333 -0.3239  0.2392
35098SOL    HW122904   3.966  12.549   2.837  0.3499 -1.8010 -1.8216
35098SOL    HW222905   3.840  12.525   2.757 -1.4889 -1.6969  0.9178
35099SOL     OW22906  10.358   3.549   6.226  0.3372  0.0556  0.1305
35099SOL    HW122907  10.342   3.626   6.281  0.1194 -0.2183  0.4508
35099SOL    HW222908  10.330   3.475   6.279  0.6091 -0.2539 -0.1535
35100SOL     OW22909  13.931   5.972   9.738 -0.7104 -0.4754 -0.4596
35100SOL    HW122910  14.005   5.994   9.795  0.8173  0.0833 -2.5167
35100SOL    HW222911  13.854   6.001   9.787  0.6058  1.2627  0.7469
35101SOL     OW22912   8.477   3.986   1.946  0.0929  0.3515 -0.6874
35101SOL    HW122913   8.493   4.071   1.903  0.8489  0.6328  0.1091
35101SOL    HW222914   8.431   4.008   2.027  0.2977  0.0136 -0.4747
35102SOL     OW22915   8.601   4.467   3.066  0.4901 -0.2350 -0.2724
35102SOL    HW122916   8.551   4.528   3.121  2.5426  0.9759  0.3802
35102SOL    HW222917   8.676   4.443   3.121  1.3838 -0.8231 -1.7176
35103SOL     OW22918  13.533   2.189   9.108  0.4689 -0.3606  0.2125
35103SOL    HW122919  13.527   2.098   9.079  0.4825 -0.4116  0.3716
35103SOL    HW222920  13.476   2.237   9.048 -0.2848 -0.6055  0.7176
35104SOL     OW22921   2.220   2.542  11.072 -0.2995  0.3346 -0.0182
35104SOL    HW122922   2.275   2.498  11.137  0.1622  2.6727  1.3232
35104SOL    HW222923   2.131   2.535  11.107 -0.1116  1.1679  0.6885
35105SOL     OW22924   1.297   8.176   3.135 -0.1020  0.3816 -0.3121
35105SOL    HW122925   1.335   8.263   3.118 -0.8458  0.4965 -1.5165
35105SOL    HW222926   1.354   8.138   3.201  0.8038  1.4171 -0.4589
35106SOL     OW22927  10.371   3.762   8.586  0.2289 -0.8235  0.2721
35106SOL    HW122928  10.303   3.820   8.551  1.0818 -0.7614 -1.3901
35106SOL    HW222929  10.404   3.807   8.663 -1.0079 -0.4352  0.5917
35107SOL     OW22930   1.577   2.782   9.028  0.0364 -0.0701  0.5262
35107SOL    HW122931   1.536   2.746   9.107 -1.2018  0.0399 -0.0389
35107SOL    HW222932   1.503   2.810   8.974  0.9011  0.7550 -0.2498
35108SOL     OW22933  11.247   5.660   2.693 -0.0881 -0.4867  0.2116
35108SOL    HW122934  11.254   5.565   2.693  0.5782 -0.4464  1.0444
35108SOL    HW222935  11.301   5.688   2.618 -0.2425 -0.7546 -0.0006
35109SOL     OW22936   6.288   5.160   0.922 -0.3170  0.0057 -0.2443
35109SOL    HW122937   6.289   5.114   1.006  0.0755 -1.6290 -1.0998
35109SOL    HW222938   6.210   5.127   0.877  0.2103 -0.1633 -1.0508
35110SOL     OW22939  10.512   9.538  10.193 -0.5688 -0.2505  0.2464
35110SOL    HW122940  10.527   9.538  10.098  0.6038  1.2876  0.4005
35110SOL    HW222941  10.554   9.458  10.224  0.8644  0.2679 -0.2973
35111SOL     OW22942   9.955   4.439   2.569 -0.1518 -0.3102  0.1708
35111SOL    HW122943  10.037   4.433   2.618  0.0811 -0.2571 -0.2061
35111SOL    HW222944   9.977   4.491   2.491 -1.0056  1.4303  1.0233
35112SOL     OW22945   6.876   2.567  13.710 -0.2343 -0.2420 -0.4989
35112SOL    HW122946   6.872   2.662  13.707  2.4655 -0.0925 -2.1363
35112SOL    HW222947   6.902   2.541  13.621  0.9904 -2.3568  0.4081
35113SOL     OW22948   3.709  11.650   3.684 -0.4068  0.0991 -0.8571
35113SOL    HW122949   3.803  11.668   3.688 -0.3086 -0.6664  0.9869
35113SOL    HW222950   3.703  11.560   3.652 -0.4294 -0.3325  0.3142
35114SOL     OW22951   3.732  11.418   5.421  0.1504 -0.0264 -0.3156
35114SOL    HW122952   3.638  11.412   5.433  0.0712 -1.3147 -1.3345
35114SOL    HW222953   3.749  11.511   5.410 -1.0056  0.2140 -0.1640
35115SOL     OW22954   8.109   0.459  10.599 -0.5302 -0.5461 -0.1568
35115SOL    HW122955   8.190   0.408  10.597 -1.1413 -1.5377 -1.0067
35115SOL    HW222956   8.131   0.538  10.647  0.1515 -2.1402  2.3664
35116SOL     OW22957  12.826   4.367   2.621  0.0281  0.3762  0.4499
35116SOL    HW122958  12.849   4.405   2.705 -1.0128  1.3929  0.3096
35116SOL    HW222959  12.730   4.358   2.623  0.0208  0.0612 -0.4715
35117SOL     OW22960   0.580   1.634   5.424  0.1296 -0.5989  0.2219
35117SOL    HW122961   0.577   1.594   5.511  0.9941  0.2807  0.6764
35117SOL    HW222962   0.527   1.713   5.432  0.2110 -0.5151 -0.0514
35118SOL     OW22963  11.172   8.922   0.880 -0.7313 -0.3230 -0.1056
35118SOL    HW122964  11.083   8.941   0.908 -0.3840 -0.3732  1.1137
35118SOL    HW222965  11.207   8.865   0.949  0.1453 -0.5484 -0.7151
35119SOL     OW22966  13.980   9.073  12.371 -0.0445 -0.0828  0.1526
35119SOL    HW122967  13.965   8.981  12.350  2.0338 -0.8508  1.7524
35119SOL    HW222968  14.050   9.100  12.310  0.1534  0.0999  0.4587
35120SOL     OW22969   3.431  11.579  10.707  0.1400  0.8858 -0.3725
35120SOL    HW122970   3.353  11.609  10.660 -0.0104  0.4017 -0.4373
35120SOL    HW222971   3.461  11.656  10.755  0.4143  1.4495 -1.4127
35121SOL     OW22972   6.337   7.506   6.434 -0.1131 -0.3133 -0.5146
35121SOL    HW122973   6.332   7.529   6.342 -1.5729 -1.5015 -0.7583
35121SOL    HW222974   6.301   7.582   6.480  1.6960  0.7749 -0.7905
35122SOL     OW22975  12.791   3.656   9.030 -0.7599  0.2278 -0.1541
35122SOL    HW122976  12.766   3.570   8.995 -0.2484 -0.3194  0.8045
35122SOL    HW222977  12.718   3.713   9.005 -2.5940 -1.1252  1.7251
35123SOL     OW22978   0.039   3.047   6.885 -0.1205  0.2116  0.1029
35123SOL    HW122979   0.065   3.081   6.970  1.6616  1.3660 -0.8374
35123SOL    HW222980   0.117   3.004   6.851 -1.1423 -1.2574 -0.5018
35124SOL     OW22981   3.918   6.544  10.437  0.6467 -0.1422 -0.1127
35124SOL    HW122982   3.848   6.577  10.380 -0.2321 -0.5276  0.7252
35124SOL    HW222983   3.983   6.615  10.439 -0.4730  0.8874  0.4031
35125SOL     OW22984   0.772  11.407   9.267 -0.5792 -0.8831  0.3418
35125SOL    HW122985   0.702  11.438   9.210  0.2714 -1.6093 -1.1467
35125SOL    HW222986   0.800  11.324   9.229  0.6198 -0.9608  1.3116
35126SOL     OW22987  11.847   0.636   1.554 -0.1625 -0.3042 -0.8718
35126SOL    HW122988  11.842   0.562   1.614  0.5578 -0.1692 -0.6297
35126SOL    HW222989  11.865   0.711   1.610 -1.7102  0.2101 -1.0203
35127SOL     OW22990  10.837  12.847   8.275  0.0203 -0.6525  0.4333
35127SOL    HW122991  10.819  12.821   8.184  1.9460 -0.6302 -0.0043
35127SOL    HW222992  10.830  12.942   8.274 -1.0292 -0.7191  0.5825
35128SOL     OW22993  11.754   2.282  10.040 -0.2463  0.2400 -0.5673
35128SOL    HW122994  11.757   2.216  10.110  1.0539  1.5165  0.6444
35128SOL    HW222995  11.788   2.237   9.963  2.1105 -0.1477  0.6002
35129SOL     OW22996  14.026   7.773  10.689  0.1081 -1.1276  0.0535
35129SOL    HW122997  14.058   7.685  10.668 -3.1051 -2.8980  1.8230
35129SOL    HW222998  13.963   7.793  10.620 -2.6163 -2.3714  2.0243
35130SOL     OW22999   3.891   0.141   5.871  0.6641 -0.2135 -0.1083
35130SOL    HW123000   3.979   0.159   5.838  1.1127 -1.5040  0.2974
35130SOL    HW223001   3.904   0.071   5.935 -0.8913 -1.8631 -1.5010
35131SOL     OW23002  10.415   3.658   1.626  0.0244  0.2239  0.0191
35131SOL    HW123003  10.453   3.570   1.625 -1.3182 -0.3796 -1.0495
35131SOL    HW223004  10.320   3.644   1.623 -0.2075  1.6754 -1.9894
35132SOL     OW23005  12.161   0.584   3.120 -0.3811  0.0149 -0.1378
35132SOL    HW123006  12.183   0.675   3.099 -0.7718  0.5602  1.6249
35132SOL    HW223007  12.101   0.558   3.050 -0.2094  1.0750 -0.7156
35133SOL     OW23008  10.570   9.864  12.230 -0.1813 -0.4688 -0.4563
35133SOL    HW123009  10.606   9.860  12.142  0.6402  0.5138 -0.1880
35133SOL    HW223010  10.603   9.947  12.266 -1.2264 -0.4232  0.4624
35134SOL     OW23011   3.888  13.227  10.983 -0.8440  0.2684  0.2415
35134SOL    HW123012   3.945  13.284  10.931 -0.3188  0.0991  0.6244
35134SOL    HW223013   3.902  13.140  10.946  0.1904  0.0084  1.2193
35135SOL     OW23014  12.784   2.292   2.045 -0.4330 -0.0918 -0.2930
35135SOL    HW123015  12.695   2.286   2.081 -0.2556 -1.4995 -0.0376
35135SOL    HW223016  12.774   2.346   1.966 -1.4003  0.2874  0.0722
35136SOL     OW23017   9.514  11.715   8.262  0.0819  0.1272  0.1554
35136SOL    HW123018   9.457  11.788   8.237 -1.3883 -1.1484 -0.4373
35136SOL    HW223019   9.584  11.716   8.197 -1.4251 -0.5940 -1.5844
35137SOL     OW23020  11.773   5.038   2.919 -0.7170  0.1451  0.2984
35137SOL    HW123021  11.684   5.004   2.907 -0.0021 -1.3131 -1.4252
35137SOL    HW223022  11.776   5.065   3.010 -2.5360 -0.9827  0.7583
35138SOL     OW23023   0.007  11.263  12.730 -0.2562 -0.1567  0.5533
35138SOL    HW123024   0.036  11.280  12.641 -1.8533  1.2100  0.2399
35138SOL    HW223025   0.029  11.171  12.746 -0.2522 -0.5233 -1.3638
35139SOL     OW23026  12.531   6.152   0.287  0.3958  0.1889  0.1195
35139SOL    HW123027  12.477   6.229   0.305 -1.8258 -0.3264 -3.3751
35139SOL    HW223028  12.587   6.179   0.215 -0.2481 -1.3044 -1.0036
35140SOL     OW23029   4.763  10.348  10.307  0.2961 -0.0474 -0.4877
35140SOL    HW123030   4.770  10.319  10.397 -0.8339 -0.1106 -0.4003
35140SOL    HW223031   4.762  10.444  10.312 -0.7162 -0.0515 -0.3254
35141SOL     OW23032   7.417   6.981  11.063  0.3137  0.2687 -0.5648
35141SOL    HW123033   7.397   7.072  11.043 -0.0823  0.3716  0.2709
35141SOL    HW223034   7.398   6.971  11.156 -1.8140 -1.2122 -1.0758
35142SOL     OW23035   2.229  13.664   4.776 -0.0574 -0.1843 -0.4840
35142SOL    HW123036   2.231  13.632   4.686  0.2766 -1.0740 -0.1785
35142SOL    HW223037   2.284  13.602   4.824 -0.8297 -0.1468  0.4687
35143SOL     OW23038   3.212   9.640  10.524 -0.0351  0.2100 -0.2192
35143SOL    HW123039   3.175   9.678  10.445 -0.0539  1.5048  0.3967
35143SOL    HW223040   3.138   9.635  10.585  0.0873 -0.3153 -0.1090
35144SOL     OW23041   3.602   6.513  12.701 -0.0041  0.3509  0.1812
35144SOL    HW123042   3.660   6.439  12.682 -0.9426 -0.4242  0.2694
35144SOL    HW223043   3.554   6.528  12.620 -0.5544  0.1846  0.4713
35145SOL     OW23044   6.687   7.968  13.590 -0.1954 -0.4430  0.5861
35145SOL    HW123045   6.639   8.024  13.530 -0.2396 -0.2426  0.8042
35145SOL    HW223046   6.619   7.920  13.638 -0.2465  0.7445  1.7636
35146SOL     OW23047   0.135   7.571   5.054  0.3188  0.5425  0.3711
35146SOL    HW123048   0.110   7.663   5.049  0.2785  0.5012 -0.2295
35146SOL    HW223049   0.121   7.548   5.146 -1.1083  0.7459  0.2363
35147SOL     OW23050   2.156   2.764   0.281 -0.6446  0.2025  0.6811
35147SOL    HW123051   2.164   2.674   0.313 -0.0483 -0.0141 -0.0416
35147SOL    HW223052   2.100   2.757   0.204 -2.9835  0.8744  2.2449
35148SOL     OW23053  12.483   1.944  12.647 -0.3403 -0.1901  0.1260
35148SOL    HW123054  12.531   2.010  12.596 -1.3194  0.4991  0.0604
35148SOL    HW223055  12.488   1.865  12.594 -1.5845  0.5889 -1.2241
35149SOL     OW23056   4.604  13.581  10.912 -0.0097 -0.2131  0.2892
35149SOL    HW123057   4.559  13.502  10.884  0.2823 -0.7685  1.3084
35149SOL    HW223058   4.619  13.568  11.006 -1.7295  1.9243  0.9382
35150SOL     OW23059   7.017   3.980  11.387 -0.2738  0.5731  0.0910
35150SOL    HW123060   7.043   4.033  11.462  0.7476  0.1261  0.0632
35150SOL    HW223061   6.963   4.039  11.334  0.6964  1.5453  0.1511
35151SOL     OW23062   7.839   1.553   9.502  0.4024 -0.2171  0.0158
35151SOL    HW123063   7.847   1.467   9.543  0.3849 -0.1998  0.0550
35151SOL    HW223064   7.910   1.556   9.438  1.8659  0.6267  1.5878
35152SOL     OW23065   3.297  11.258  13.138  0.5551  0.0102 -0.4937
35152SOL    HW123066   3.310  11.164  13.132  1.8477  0.1122  0.2757
35152SOL    HW223067   3.202  11.269  13.145  0.3377 -1.1657 -1.3568
35153SOL     OW23068   8.071   6.992   8.793 -0.3785  0.0141 -0.2852
35153SOL    HW123069   8.034   7.016   8.878 -0.4870  1.0986 -0.6251
35153SOL    HW223070   7.994   6.978   8.737 -0.3134  1.2316 -0.7100
35154SOL     OW23071  11.798   5.039   5.824 -0.0924  0.2234 -0.7112
35154SOL    HW123072  11.865   5.017   5.889 -0.3912  0.4716 -0.3130
35154SOL    HW223073  11.720   4.990   5.853 -0.0361 -0.2063 -1.2721
35155SOL     OW23074  10.226   5.606  13.796 -0.8512 -0.3271 -0.0584
35155SOL    HW123075  10.210   5.523  13.752 -0.7513 -0.6132  0.4382
35155SOL    HW223076  10.168   5.604  13.873 -0.6877 -0.0365  0.0740
35156SOL     OW23077  13.327   5.197   0.640 -0.2086 -0.1791 -0.3069
35156SOL    HW123078  13.322   5.284   0.598  0.4705  0.9828  1.8597
35156SOL    HW223079  13.281   5.208   0.723 -0.2520 -1.9598 -0.0663
35157SOL     OW23080   7.160  13.410   9.317  0.1136 -0.4586 -0.0581
35157SOL    HW123081   7.239  13.363   9.289  0.1646 -0.3069 -0.1657
35157SOL    HW223082   7.127  13.358   9.390 -1.2397 -2.0938 -1.7391
35158SOL     OW23083   0.202   4.338  12.979  0.3613  0.0343  0.3317
35158SOL    HW123084   0.192   4.327  12.885 -0.2748  0.8432  0.2961
35158SOL    HW223085   0.145   4.411  13.001  1.3845  0.6055  1.1689
35159SOL     OW23086   5.144   9.116   2.376  0.0793 -0.2343 -0.4648
35159SOL    HW123087   5.054   9.125   2.409  0.1033  1.8028 -0.7900
35159SOL    HW223088   5.142   9.039   2.320 -1.3830 -0.4325 -0.1749
35160SOL     OW23089   3.766  11.777  10.443  0.1867  0.6498 -0.2750
35160SOL    HW123090   3.688  11.722  10.450  0.6902 -0.0377  0.0763
35160SOL    HW223091   3.839  11.718  10.463  0.8135  1.2328 -0.7900
35161SOL     OW23092  10.246   9.970   2.827  0.2641  0.3111  0.1207
35161SOL    HW123093  10.321   9.978   2.885 -0.4184  0.4621  1.0133
35161SOL    HW223094  10.171   9.994   2.882 -0.4241  0.2458 -0.7681
35162SOL     OW23095  10.021  12.096  11.111  0.7222 -0.3566 -0.3694
35162SOL    HW123096   9.951  12.161  11.098 -0.4528 -1.6369 -0.6377
35162SOL    HW223097  10.013  12.070  11.203 -0.0710 -1.5079 -0.7497
35163SOL     OW23098  11.539  12.126   1.239  0.0288  0.4996  0.3609
35163SOL    HW123099  11.587  12.201   1.204 -0.0087 -0.0588 -0.9572
35163SOL    HW223100  11.565  12.053   1.183 -1.6729  0.0002  0.1787
35164SOL     OW23101   3.466   1.606   5.897  0.2557  0.2750  0.4250
35164SOL    HW123102   3.420   1.546   5.838  0.7969 -2.2397  2.3616
35164SOL    HW223103   3.405   1.678   5.910 -2.0291 -1.5673  0.6712
35165SOL     OW23104  12.596   2.886   3.854 -0.4434 -0.2546 -0.0500
35165SOL    HW123105  12.656   2.873   3.928 -1.4166  0.3516  0.8719
35165SOL    HW223106  12.653   2.911   3.782  0.4574 -0.0409  0.7123
35166SOL     OW23107   2.448   3.135   5.789  0.3707  0.0857  0.6342
35166SOL    HW123108   2.402   3.057   5.760  0.1168  0.6475 -0.5644
35166SOL    HW223109   2.530   3.103   5.827  0.3420 -0.7552  0.0045
35167SOL     OW23110   2.931   0.197   4.592 -0.1767  0.8470 -0.3035
35167SOL    HW123111   3.023   0.222   4.583 -0.6732  2.6829 -0.5471
35167SOL    HW223112   2.917   0.132   4.523  0.8846  0.6202 -0.3329
35168SOL     OW23113  13.414   8.954   3.330  0.2958  0.1408 -0.0827
35168SOL    HW123114  13.322   8.927   3.324  0.1356  0.6068  0.1620
35168SOL    HW223115  13.464   8.877   3.303 -0.2058  0.3231 -1.6217
35169SOL     OW23116   7.069   8.033   1.618  0.2682  0.5247  0.1489
35169SOL    HW123117   6.989   8.047   1.670 -1.7278 -1.0100 -2.2789
35169SOL    HW223118   7.070   8.105   1.555 -0.2318 -0.4103 -0.9614
35170SOL     OW23119   4.008   3.589   6.493 -0.4285 -0.0135  0.0287
35170SOL    HW123120   3.982   3.608   6.583 -0.5527 -2.2732  0.5298
35170SOL    HW223121   4.027   3.495   6.493  0.9092  0.2000 -1.9962
35171SOL     OW23122  13.920   4.202  11.321 -0.4514 -0.3706  0.0721
35171SOL    HW123123  13.840   4.173  11.276 -0.7533 -0.6840  0.7932
35171SOL    HW223124  13.934   4.136  11.389  1.0515 -0.9371 -0.7350
35172SOL     OW23125   5.422  11.945  11.930 -0.3995 -0.6105  0.0849
35172SOL    HW123126   5.407  11.889  11.854 -0.9500  1.6831 -1.5996
35172SOL    HW223127   5.410  11.886  12.005 -0.9497 -2.7192 -1.5353
35173SOL     OW23128   0.824   0.647   6.285 -0.2342 -0.0200  1.1806
35173SOL    HW123129   0.771   0.663   6.207 -0.8530 -2.6087  0.9677
35173SOL    HW223130   0.761   0.637   6.356  0.1243 -0.4314  1.4517
35174SOL     OW23131   2.463  13.699   8.477 -0.3324  0.4657  0.2369
35174SOL    HW123132   2.398  13.656   8.533  0.9225 -1.6547  0.1685
35174SOL    HW223133   2.415  13.772   8.437 -3.0607 -1.6671 -0.7366
35175SOL     OW23134   7.752   3.080   4.508  0.5784  0.6433  0.6584
35175SOL    HW123135   7.698   3.069   4.587 -0.1460  1.4761  0.2994
35175SOL    HW223136   7.823   3.017   4.518 -0.2695 -0.2266  1.3184
35176SOL     OW23137   1.415   2.545   2.435  0.0439  0.1933  0.4275
35176SOL    HW123138   1.408   2.632   2.396 -2.1755  0.2852  0.9320
35176SOL    HW223139   1.404   2.485   2.362  2.2518  0.2772 -0.0346
35177SOL     OW23140   2.727  12.761   4.470 -0.6442 -0.1475  0.0109
35177SOL    HW123141   2.728  12.734   4.561 -1.6078 -1.3451 -0.3091
35177SOL    HW223142   2.819  12.781   4.450 -0.3830 -0.1157  1.1581
35178SOL     OW23143   0.237   4.090  13.133 -0.1856 -0.0571 -0.5158
35178SOL    HW123144   0.155   4.081  13.181  0.0939  0.8208  0.1566
35178SOL    HW223145   0.224   4.168  13.078  1.0206  1.6026  1.4150
35179SOL     OW23146  12.818   2.109   4.183 -0.8736  0.2958  0.0215
35179SOL    HW123147  12.794   2.141   4.269  0.1375 -2.0353  1.2802
35179SOL    HW223148  12.863   2.026   4.200 -1.7883 -0.9133 -2.8267
35180SOL     OW23149  12.819   2.594   0.661 -0.3592 -0.3637 -0.5164
35180SOL    HW123150  12.906   2.601   0.621 -0.5089  0.6563 -0.6994
35180SOL    HW223151  12.824   2.517   0.717  0.9623  0.2002  0.1855
35181SOL     OW23152   7.961   2.243   9.650 -0.6315  0.1781  0.1139
35181SOL    HW123153   7.951   2.177   9.581 -0.2001 -0.3293  0.5279
35181SOL    HW223154   7.871   2.271   9.668 -0.7054  0.7803 -1.0822
35182SOL     OW23155  13.469  10.738   5.509  0.4902  0.0717  0.6585
35182SOL    HW123156  13.533  10.682   5.551  0.2581 -0.9379 -0.2972
35182SOL    HW223157  13.518  10.817   5.485  1.3261 -0.5973  0.1426
35183SOL     OW23158   5.649   0.855   0.040  0.3465 -0.2487  0.3759
35183SOL    HW123159   5.569   0.887   0.080  0.8230 -0.0164  1.1714
35183SOL    HW223160   5.629   0.765   0.014  0.0022 -0.3746  1.0636
35184SOL     OW23161  12.434   0.118   1.207 -0.1923 -0.3954 -0.5551
35184SOL    HW123162  12.490   0.061   1.154 -0.3861  0.3103 -1.5648
35184SOL    HW223163  12.453   0.206   1.176  0.0387  0.1015  0.9262
35185SOL     OW23164   8.542   2.585  12.115  0.7325 -0.3718  0.1199
35185SOL    HW123165   8.525   2.659  12.056 -1.9351 -0.3259  0.8104
35185SOL    HW223166   8.552   2.625  12.201  0.9778 -0.7050  0.2468
35186SOL     OW23167  11.704   0.744  10.169 -0.0952  0.0685 -0.6871
35186SOL    HW123168  11.764   0.694  10.224 -0.1041  0.4106 -0.3556
35186SOL    HW223169  11.623   0.749  10.221 -0.0512  0.5358 -0.6564
35187SOL     OW23170   9.594   6.046   0.671 -0.3160 -0.2252 -0.6994
35187SOL    HW123171   9.679   6.031   0.630 -0.6853  1.1273 -2.0224
35187SOL    HW223172   9.593   5.985   0.745  2.1484  0.3055 -0.1261
35188SOL     OW23173   0.304  13.285   7.256  0.0452  0.0030  0.2705
35188SOL    HW123174   0.291  13.343   7.331 -0.1961 -1.2586  1.2525
35188SOL    HW223175   0.363  13.217   7.289 -1.3920 -1.5074 -0.1123
35189SOL     OW23176  10.710   4.892   6.613  0.6747  0.0738  0.1816
35189SOL    HW123177  10.619   4.908   6.589  0.4939  0.6800  1.2032
35189SOL    HW223178  10.756   4.882   6.529  0.0250  1.7666 -0.4175
35190SOL     OW23179   3.496  13.472   8.887 -0.1673 -0.0724 -0.3216
35190SOL    HW123180   3.420  13.431   8.845 -0.4665 -0.1390  0.2709
35190SOL    HW223181   3.517  13.547   8.831 -2.2524  1.4626  0.7767
35191SOL     OW23182   9.455   5.945   0.258  0.0839  0.4142 -0.4343
35191SOL    HW123183   9.500   5.925   0.176 -0.3761 -0.7808 -0.4067
35191SOL    HW223184   9.412   5.864   0.283 -1.2554  1.2379  0.0628
35192SOL     OW23185  12.095   5.813  12.545 -0.0055 -0.3698 -0.5120
35192SOL    HW123186  12.076   5.907  12.533 -1.8693 -0.6993 -0.4825
35192SOL    HW223187  12.115   5.782  12.457  1.5421  0.2043 -0.3959
35193SOL     OW23188   3.950   2.438   7.410 -0.3725 -0.2099  0.4359
35193SOL    HW123189   3.991   2.524   7.404 -1.5055  0.3065 -0.2012
35193SOL    HW223190   3.961   2.413   7.502 -1.3689  1.3149  1.0181
35194SOL     OW23191   1.065   4.257   2.152  0.0884  0.1936  0.1128
35194SOL    HW123192   1.025   4.232   2.069 -3.1964  2.3320  0.8466
35194SOL    HW223193   1.151   4.292   2.128 -0.3428 -0.1983 -2.2648
35195SOL     OW23194  13.722  13.074   0.825  0.4203 -0.2149 -0.0646
35195SOL    HW123195  13.780  13.020   0.771  1.7255 -0.1734  1.2446
35195SOL    HW223196  13.635  13.037   0.810  0.9329 -1.0481 -1.1555
35196SOL     OW23197   3.338  12.866   5.129 -0.0129 -0.4303 -0.4028
35196SOL    HW123198   3.417  12.819   5.155 -0.6683 -0.9682  0.6981
35196SOL    HW223199   3.363  12.958   5.128  0.2539 -0.4428  1.4843
35197SOL     OW23200   4.655   4.049   0.610  0.4232  0.1943 -0.1550
35197SOL    HW123201   4.699   4.030   0.694  2.5115  0.1582 -1.1900
35197SOL    HW223202   4.580   3.989   0.609 -0.3342  0.9650  2.1542
35198SOL     OW23203   1.367   0.656   7.219 -0.3310 -0.2333  0.0198
35198SOL    HW123204   1.369   0.711   7.297 -1.5732 -1.2861  0.8459
35198SOL    HW223205   1.344   0.715   7.147 -0.0238  0.5965  0.5967
35199SOL     OW23206   1.313  11.435  13.953  0.5825  0.2283 -0.5827
35199SOL    HW123207   1.347  11.522  13.935 -0.0565  1.4238  3.0970
35199SOL    HW223208   1.363  11.405  14.029 -0.4198 -1.8449 -0.6666
35200SOL     OW23209   9.689   6.551   3.671 -0.7218  0.7491 -0.3164
35200SOL    HW123210   9.752   6.489   3.709 -0.3986 -0.6334 -2.8586
35200SOL    HW223211   9.733   6.636   3.677  0.2568  0.2205  0.3277
35201SOL     OW23212   2.477  10.499   2.583 -1.0964 -0.6479  0.2316
35201SOL    HW123213   2.463  10.518   2.490 -1.4205 -1.6647  0.0649
35201SOL    HW223214   2.437  10.573   2.629 -3.4668 -1.4707 -0.3639
35202SOL     OW23215  13.740   4.101   8.064 -0.6633 -0.1750 -0.3920
35202SOL    HW123216  13.763   4.180   8.015  0.3927 -0.9314 -1.1471
35202SOL    HW223217  13.815   4.043   8.053 -1.3905 -1.2655  0.2242
35203SOL     OW23218  12.022   1.110   3.449  0.2331  0.1432 -0.5526
35203SOL    HW123219  12.049   1.143   3.363 -0.5495  0.7969 -0.5612
35203SOL    HW223220  12.048   1.179   3.510 -1.3713  0.7806 -0.5595
35204SOL     OW23221   7.412   2.892  13.542  0.0253  0.5318 -0.6295
35204SOL    HW123222   7.452   2.978  13.529  0.5503  0.6008  1.1337
35204SOL    HW223223   7.348   2.906  13.612  1.1472 -0.7681  0.7186
35205SOL     OW23224   4.561   4.809   1.527  0.1113 -0.5778 -0.3390
35205SOL    HW123225   4.586   4.823   1.436  1.9782  0.1611  0.2506
35205SOL    HW223226   4.489   4.871   1.542 -0.9485 -1.4551 -1.5627
35206SOL     OW23227   1.413   2.743   9.620  0.6908  0.0674 -0.1046
35206SOL    HW123228   1.407   2.727   9.714  1.7726  0.3770  0.0299
35206SOL    HW223229   1.326   2.778   9.596 -0.1828 -1.6422  0.4176
35207SOL     OW23230   5.103   6.553   1.261  0.3831  0.1712  0.0719
35207SOL    HW123231   5.121   6.478   1.203  0.3604  0.9492 -0.9689
35207SOL    HW223232   5.187   6.598   1.268  0.0599  0.9075 -0.5854
35208SOL     OW23233   9.641   3.708   8.396  0.2569 -0.3172  0.2326
35208SOL    HW123234   9.703   3.774   8.426 -0.3559 -0.0842  1.0084
35208SOL    HW223235   9.555   3.747   8.410 -0.0852 -0.2899 -1.6117
35209SOL     OW23236   9.748   1.600  11.744 -0.0767  0.0662 -0.1206
35209SOL    HW123237   9.837   1.599  11.781  0.3010  0.4214 -0.9980
35209SOL    HW223238   9.755   1.655  11.666 -1.2590  0.7787  0.2505
35210SOL     OW23239  12.765   1.844  14.024 -0.2689 -0.1916  0.6761
35210SOL    HW123240  12.768   1.758  13.984  1.3365  0.0642  0.1835
35210SOL    HW223241  12.808   1.902  13.961  2.3670  0.2135  2.6934
35211SOL     OW23242   6.896   1.558   8.679  0.3085 -0.7548 -0.1397
35211SOL    HW123243   6.988   1.578   8.663 -0.2401  1.9787 -0.4605
35211SOL    HW223244   6.877   1.599   8.764 -0.9012 -0.0269 -0.7241
35212SOL     OW23245   3.646   1.509   4.100  0.1073 -0.3262 -1.0049
35212SOL    HW123246   3.610   1.473   4.181 -0.8175  1.0450 -0.7603
35212SOL    HW223247   3.657   1.434   4.043  1.1190 -1.3752  0.4992
35213SOL     OW23248   4.127  10.589  12.129  0.7217  0.2469  0.8221
35213SOL    HW123249   4.138  10.504  12.086 -0.5103  0.0747  0.7908
35213SOL    HW223250   4.089  10.567  12.215 -1.2852  0.8087  0.1494
35214SOL     OW23251   3.720   8.068   5.030  0.0056  0.4469 -0.1255
35214SOL    HW123252   3.710   8.159   5.000 -1.3875  0.5203  0.5090
35214SOL    HW223253   3.814   8.059   5.046  0.5552  1.0011 -2.5793
35215SOL     OW23254   3.190  13.069   9.047  0.2532 -0.0353 -0.0887
35215SOL    HW123255   3.167  13.156   9.015 -0.6088 -0.1347  0.2544
35215SOL    HW223256   3.261  13.084   9.109 -0.3033  0.4817  0.4260
35216SOL     OW23257   7.834   5.198  13.446  0.0966  0.1036  0.3692
35216SOL    HW123258   7.825   5.290  13.471 -1.0108  0.0765  0.1244
35216SOL    HW223259   7.820   5.197  13.351  0.4247 -0.2852  0.3203
35217SOL     OW23260   5.580   8.706   0.552  0.0742 -0.4032 -0.0124
35217SOL    HW123261   5.570   8.784   0.497  0.0778 -0.1358  0.3646
35217SOL    HW223262   5.547   8.634   0.498 -1.6151  0.1146  0.3041
35218SOL     OW23263   2.402   3.747   8.094  0.2751  0.1827  0.2247
35218SOL    HW123264   2.367   3.810   8.157  1.1140  1.6008 -0.6780
35218SOL    HW223265   2.336   3.678   8.090 -1.5863  1.8896 -0.1373
35219SOL     OW23266  11.392  13.799   8.699  0.6851 -0.1061 -0.1434
35219SOL    HW123267  11.485  13.818   8.712  0.7650 -1.0335  0.6970
35219SOL    HW223268  11.370  13.845   8.618  1.6622  0.8226  0.0953
35220SOL     OW23269   9.953   4.828   3.798  0.1964  0.1617 -0.3905
35220SOL    HW123270   9.923   4.819   3.888  1.2927  0.3450 -0.0010
35220SOL    HW223271   9.946   4.739   3.762  0.2061 -0.0004  0.0074
35221SOL     OW23272  10.382  12.890   4.696  0.5205  0.2107  0.0178
35221SOL    HW123273  10.347  12.970   4.736 -0.0589 -1.5984  3.5798
35221SOL    HW223274  10.310  12.855   4.644  0.1562  1.0509 -0.0506
35222SOL     OW23275  12.327   9.331  12.612 -0.0053  0.0729 -0.0955
35222SOL    HW123276  12.279   9.297  12.688  0.9332 -1.1844 -0.0395
35222SOL    HW223277  12.377   9.405  12.647 -1.9022  1.4636 -0.1740
35223SOL     OW23278   6.863  11.152   2.503 -0.1733 -0.2389  0.4546
35223SOL    HW123279   6.932  11.191   2.557  0.5029 -0.5702 -0.1600
35223SOL    HW223280   6.829  11.080   2.556  0.4851 -0.5609  0.4393
35224SOL     OW23281   7.143   4.173   8.043  0.1479  0.2682 -0.5296
35224SOL    HW123282   7.069   4.143   8.095  0.2171  0.3000 -0.4126
35224SOL    HW223283   7.105   4.196   7.958 -0.1911  1.6322 -0.0188
35225SOL     OW23284  10.446   2.253   4.487  0.0764 -0.0472 -0.3535
35225SOL    HW123285  10.494   2.195   4.428 -0.5148  0.3771 -1.2686
35225SOL    HW223286  10.364   2.272   4.441  0.3017  1.6128 -0.1265
35226SOL     OW23287  11.575   4.605   8.873 -0.1847  0.1706 -0.4571
35226SOL    HW123288  11.655   4.656   8.887 -0.3146  0.0783  0.7231
35226SOL    HW223289  11.539   4.593   8.961 -0.1779 -1.8985 -0.6875
35227SOL     OW23290   7.828   6.218   9.380  0.1510 -0.4864 -0.2343
35227SOL    HW123291   7.767   6.144   9.379 -1.8184  1.0469  0.1889
35227SOL    HW223292   7.895   6.193   9.444 -0.4203 -1.9194 -0.1557
35228SOL     OW23293  10.538   1.221   1.900 -0.4047  0.3566  0.0155
35228SOL    HW123294  10.545   1.174   1.817 -1.4930 -0.6165  0.4513
35228SOL    HW223295  10.492   1.302   1.878 -1.1291 -0.1210 -0.2559
35229SOL     OW23296  13.756   2.931   9.142 -0.1469  0.3193 -0.4470
35229SOL    HW123297  13.741   2.845   9.104 -2.6522  0.7577 -0.6448
35229SOL    HW223298  13.781   2.987   9.069  1.8481 -0.2639 -0.2602
35230SOL     OW23299  13.372   3.239   7.403  0.1203  0.3766  0.4094
35230SOL    HW123300  13.347   3.300   7.333 -0.0580  1.1478  1.1363
35230SOL    HW223301  13.289   3.217   7.446  0.3189  0.4487  0.8241
35231SOL     OW23302   5.576  10.524   0.402 -0.0485  0.2111 -0.1183
35231SOL    HW123303   5.568  10.611   0.364  1.8831  0.3274 -0.3288
35231SOL    HW223304   5.490  10.484   0.388 -2.1315  3.0913  2.7379
35232SOL     OW23305   4.055   3.207   2.880 -0.0845 -0.0542 -0.2840
35232SOL    HW123306   4.108   3.128   2.874 -1.0148 -0.8094  1.0754
35232SOL    HW223307   4.119   3.277   2.897  0.8379 -0.3132 -2.3529
35233SOL     OW23308   5.881  11.193  11.889 -0.4299  0.7399  0.7001
35233SOL    HW123309   5.848  11.274  11.850 -0.0351  1.2929  1.4852
35233SOL    HW223310   5.898  11.216  11.980 -0.3723 -0.2512  0.9501
35234SOL     OW23311   6.437  11.806  10.060 -0.7650 -0.0588  0.3469
35234SOL    HW123312   6.414  11.746  10.132  0.8831 -1.0705  0.0792
35234SOL    HW223313   6.503  11.864  10.097  0.8383 -1.2188 -0.5517
35235SOL     OW23314   1.681  13.039   4.580 -0.4146  0.3164  0.1332
35235SOL    HW123315   1.695  13.106   4.646  0.0535 -0.0378  0.3991
35235SOL    HW223316   1.669  12.958   4.630  1.3854 -0.2109 -0.2350
35236SOL     OW23317   8.497   2.072   0.378 -0.1069  0.2269  0.0158
35236SOL    HW123318   8.518   2.080   0.471 -0.2838 -0.6478  0.1415
35236SOL    HW223319   8.412   2.114   0.368  0.3152  1.1045  0.0805
35237SOL     OW23320  13.146  13.324   3.636  0.3278  0.0775 -0.3230
35237SOL    HW123321  13.087  13.395   3.609 -0.6470 -0.6200 -0.0775
35237SOL    HW223322  13.154  13.336   3.731  0.4284  0.0576 -0.3296
35238SOL     OW23323   2.784  13.670   6.754 -0.5641 -0.2720 -0.3930
35238SOL    HW123324   2.848  13.703   6.692 -1.1827 -0.2542 -1.0394
35238SOL    HW223325   2.811  13.580   6.772 -0.1309 -0.1311 -0.3429
35239SOL     OW23326   4.829   2.846   5.738 -0.5255  0.3211  0.1085
35239SOL    HW123327   4.889   2.770   5.739 -1.0812 -0.1977 -2.0415
35239SOL    HW223328   4.753   2.816   5.788 -1.2899 -1.0711 -1.7829
35240SOL     OW23329  13.013   9.498   5.902  0.0110  0.1587 -0.4043
35240SOL    HW123330  12.932   9.506   5.852  0.1697  1.6258 -0.4850
35240SOL    HW223331  13.062   9.428   5.859 -0.4613  0.4473 -1.4271
35241SOL     OW23332   7.648   4.694   3.519  0.1411 -0.4785  0.1697
35241SOL    HW123333   7.695   4.776   3.536  1.0261 -0.3867 -2.2867
35241SOL    HW223334   7.563   4.706   3.562  0.4362  1.5386  0.3048
35242SOL     OW23335  12.363   6.498   2.923 -0.1342 -0.4213  0.5537
35242SOL    HW123336  12.288   6.449   2.957 -1.0252  1.0107  0.7422
35242SOL    HW223337  12.364   6.579   2.975  2.0914 -0.7841  1.1470
35243SOL     OW23338   1.830   9.618   3.359 -0.0602 -0.1218  0.1235
35243SOL    HW123339   1.828   9.534   3.405  0.6975 -0.4473 -0.4191
35243SOL    HW223340   1.752   9.664   3.390 -0.9444 -1.3514 -0.1953
35244SOL     OW23341  10.528   8.868   2.160  0.4795  0.6518  0.0400
35244SOL    HW123342  10.557   8.888   2.249  2.5353 -1.0186 -0.1579
35244SOL    HW223343  10.570   8.934   2.105 -1.1809  1.9825  0.2913
35245SOL     OW23344   3.588   4.428   9.409  0.0517  0.6259  0.3001
35245SOL    HW123345   3.540   4.482   9.472  2.8767  0.6177  2.6782
35245SOL    HW223346   3.660   4.484   9.380  0.7325 -0.5249 -0.2876
35246SOL     OW23347   7.413   2.263   7.933  0.1340 -0.6436  0.1557
35246SOL    HW123348   7.327   2.222   7.932  0.4056 -1.2544 -1.8001
35246SOL    HW223349   7.464   2.211   7.995 -1.1974  0.5084  2.3533
35247SOL     OW23350   1.785  12.099   3.207  0.8076 -0.2681  0.1783
35247SOL    HW123351   1.836  12.180   3.200  0.8060 -0.3965 -2.0482
35247SOL    HW223352   1.851  12.029   3.201  0.7116 -0.4584  1.1429
35248SOL     OW23353   6.710   0.175  13.834  0.0058 -0.4237  0.5327
35248SOL    HW123354   6.705   0.248  13.896 -0.2389 -1.3473  1.6338
35248SOL    HW223355   6.794   0.133  13.852 -0.3119 -1.0321  0.6324
35249SOL     OW23356   5.019   0.637   1.129  0.5239 -0.0991  0.3524
35249SOL    HW123357   5.070   0.563   1.162 -0.1501 -0.5324  0.4427
35249SOL    HW223358   4.954   0.655   1.197  0.0356 -0.0814 -0.1073
35250SOL     OW23359   3.260   5.014   7.252  0.1984  0.0262  0.6120
35250SOL    HW123360   3.177   4.972   7.230 -0.1705  0.3948  1.2652
35250SOL    HW223361   3.236   5.101   7.284  0.4774 -1.0445  4.2035
35251SOL     OW23362   1.855  13.713   6.066  0.1968 -0.2833  0.4090
35251SOL    HW123363   1.842  13.723   6.160  0.1486  0.6748  0.3138
35251SOL    HW223364   1.805  13.636   6.042  0.1072 -0.4570  1.1494
35252SOL     OW23365   7.181   0.344   9.952  0.1203  0.1398  0.8076
35252SOL    HW123366   7.157   0.285   9.880 -0.9344  0.2768  1.0274
35252SOL    HW223367   7.099   0.387   9.976  1.1264  3.0039 -0.4534
35253SOL     OW23368  11.429  12.848   7.832 -0.0152 -0.0702  0.3586
35253SOL    HW123369  11.514  12.888   7.853 -0.3048  1.9546 -1.9038
35253SOL    HW223370  11.372  12.922   7.812 -2.8444 -1.2508  3.1885
35254SOL     OW23371  11.960   8.640   2.993 -0.0769 -0.2147  0.5880
35254SOL    HW123372  11.887   8.644   3.054 -0.5751 -0.0430 -0.0018
35254SOL    HW223373  11.927   8.682   2.913  1.3248  1.7173  0.9539
35255SOL     OW23374   6.341   9.403   2.475 -0.1851  0.7365  0.4482
35255SOL    HW123375   6.351   9.480   2.419  0.5531  1.8572  2.0204
35255SOL    HW223376   6.293   9.436   2.552 -0.6917 -0.6133  0.7386
35256SOL     OW23377   3.831   2.832   9.956 -0.0296  0.2865 -0.2282
35256SOL    HW123378   3.904   2.804   9.900  0.8397 -0.9935  1.4334
35256SOL    HW223379   3.807   2.918   9.923  1.5410  0.2877 -1.5042
35257SOL     OW23380  12.282   2.560   8.480 -0.3509 -0.1592 -0.2141
35257SOL    HW123381  12.276   2.501   8.405 -1.0772 -1.6675  0.9982
35257SOL    HW223382  12.212   2.624   8.465  0.7082  0.7042 -1.7435
35258SOL     OW23383   7.580   6.456   0.297  0.0233 -0.2393 -0.0928
35258SOL    HW123384   7.611   6.399   0.368  2.2637  0.3329 -0.5460
35258SOL    HW223385   7.624   6.539   0.313 -1.4663  0.7032 -0.7231
35259SOL     OW23386   3.828   3.453  13.311  0.4609  0.1138 -0.3171
35259SOL    HW123387   3.904   3.421  13.264  0.8001  1.5610 -0.7752
35259SOL    HW223388   3.783   3.373  13.340  1.6635 -0.7609 -0.7871
35260SOL     OW23389   7.793   2.536   1.579  0.3436 -0.0504  0.5365
35260SOL    HW123390   7.854   2.609   1.571  0.4368 -0.2127 -0.3658
35260SOL    HW223391   7.849   2.461   1.600  0.3214  0.0041  0.8001
35261SOL     OW23392   1.875   2.588   4.023 -0.6384  0.1725  0.0003
35261SOL    HW123393   1.830   2.504   4.030  0.5365 -0.3676  1.7784
35261SOL    HW223394   1.825   2.648   4.078  0.3972 -0.2776  1.4960
35262SOL     OW23395  10.741   2.769  10.184 -0.4376 -0.1626 -0.5297
35262SOL    HW123396  10.700   2.693  10.226 -1.3323 -0.6403 -2.1967
35262SOL    HW223397  10.745   2.835  10.253 -0.1141 -1.5308  0.8140
35263SOL     OW23398  13.736   2.711   8.955 -0.4072  0.3030 -1.0919
35263SOL    HW123399  13.795   2.757   8.896  0.0282  0.8371 -0.2476
35263SOL    HW223400  13.676   2.664   8.896 -0.3964  1.3343 -1.9667
35264SOL     OW23401  10.874   6.771   4.497 -0.3227 -0.1455  0.0667
35264SOL    HW123402  10.920   6.720   4.563  0.0729 -0.4989 -0.4783
35264SOL    HW223403  10.804   6.815   4.545  0.4579  0.2409  0.8688
35265SOL     OW23404   7.655  11.475   0.414 -0.0721  0.1188  0.2914
35265SOL    HW123405   7.566  11.488   0.446 -0.4323 -0.6851 -0.3410
35265SOL    HW223406   7.705  11.451   0.492  0.0306  2.3311  0.9980
35266SOL     OW23407  13.755   8.919   8.041 -0.0171  0.0516 -0.3810
35266SOL    HW123408  13.839   8.888   8.009 -0.6194 -2.7744  0.4887
35266SOL    HW223409  13.760   8.909   8.136 -1.1307  0.3319 -0.2727
35267SOL     OW23410  13.521   7.588  11.536  0.5306  0.5059  0.1788
35267SOL    HW123411  13.556   7.513  11.488 -0.5523  0.9133 -1.3172
35267SOL    HW223412  13.556   7.665  11.490  0.1452  0.9213  0.5684
35268SOL     OW23413   3.666   1.356  10.483  0.2358  0.0231  0.4380
35268SOL    HW123414   3.744   1.385  10.435 -0.2215  1.9166  0.7362
35268SOL    HW223415   3.674   1.261  10.487  0.7475 -0.1457 -2.5592
35269SOL     OW23416  11.335   7.989   5.808  0.6597  0.6297 -0.1042
35269SOL    HW123417  11.361   8.070   5.764  2.1218  0.0892 -0.2904
35269SOL    HW223418  11.322   7.926   5.736  1.0527  0.2956  0.1096
35270SOL     OW23419   4.126   8.191   2.169 -0.0468 -0.3796 -0.1054
35270SOL    HW123420   4.175   8.203   2.087 -0.0172 -0.5044 -0.1063
35270SOL    HW223421   4.073   8.113   2.153 -0.1867 -0.2918 -0.0752
35271SOL     OW23422   3.219   3.414  13.524  0.6500 -0.0076  0.1157
35271SOL    HW123423   3.222   3.373  13.438 -0.8732  0.4402 -0.1700
35271SOL    HW223424   3.218   3.340  13.585  2.9048 -0.3355 -0.1392
35272SOL     OW23425   9.968   3.556  12.374 -0.0235 -0.1295 -0.3426
35272SOL    HW123426   9.990   3.493  12.443  0.2897  1.4928  1.1253
35272SOL    HW223427  10.035   3.542  12.307  0.6757 -0.6436  0.4410
35273SOL     OW23428   0.914   8.553  10.678  0.2390 -0.7760 -0.1986
35273SOL    HW123429   0.843   8.595  10.630  0.6339 -0.1365 -0.2308
35273SOL    HW223430   0.951   8.623  10.733 -0.3260 -1.5215  1.1894
35274SOL     OW23431   7.688  11.319  13.827 -0.4331 -0.4932 -0.1751
35274SOL    HW123432   7.776  11.349  13.804 -0.5458 -1.3181 -1.8615
35274SOL    HW223433   7.643  11.313  13.742 -1.5003 -1.9719  0.4702
35275SOL     OW23434   6.138  13.107  12.850  0.0547  0.2237  0.3619
35275SOL    HW123435   6.122  13.024  12.807  2.4440 -0.4316  0.5698
35275SOL    HW223436   6.088  13.103  12.931 -2.1710  0.2743 -0.9204
35276SOL     OW23437   6.083   8.031   1.123 -0.1382 -0.5798 -0.1192
35276SOL    HW123438   6.098   7.936   1.124 -1.0276 -0.7213  0.5617
35276SOL    HW223439   6.137   8.064   1.194 -1.3685 -0.8437  0.9836
35277SOL     OW23440   0.379   1.360  13.093  0.2852  0.6300  0.5132
35277SOL    HW123441   0.372   1.425  13.023 -0.4401  0.1874  0.1551
35277SOL    HW223442   0.357   1.277  13.050 -0.2346  0.3618  1.2757
35278SOL     OW23443   6.801   1.332  12.929 -0.2132 -0.3202 -0.1125
35278SOL    HW123444   6.881   1.299  12.887 -0.1511  0.8628 -0.9886
35278SOL    HW223445   6.824   1.339  13.022  1.8555  2.9510 -0.7171
35279SOL     OW23446   6.244   7.369  10.292 -0.8000  0.2613 -0.6827
35279SOL    HW123447   6.302   7.292  10.290  0.1378  0.8861  0.8043
35279SOL    HW223448   6.188   7.354  10.368  1.0555  2.1471  1.1712
35280SOL     OW23449   8.667   5.938   9.630  0.4085  0.2328  0.1180
35280SOL    HW123450   8.654   5.844   9.624 -0.5375  0.1636  2.3882
35280SOL    HW223451   8.648   5.971   9.542 -1.1624 -1.4828 -0.2381
35281SOL     OW23452  11.067   7.337  14.029  0.1873  0.0545  0.6604
35281SOL    HW123453  11.162   7.328  14.032  0.2615  0.8439  3.7250
35281SOL    HW223454  11.035   7.247  14.022  1.1174 -0.2579  0.1300
35282SOL     OW23455   4.217   7.246  10.381  0.0234 -0.3947 -0.3551
35282SOL    HW123456   4.275   7.317  10.408 -0.5059  0.1251 -0.5549
35282SOL    HW223457   4.229   7.178  10.448  1.7338 -0.8035 -1.0284
35283SOL     OW23458   7.023   8.952  12.270 -0.0272  0.7803 -0.3889
35283SOL    HW123459   6.989   8.896  12.340 -1.5313 -1.1832 -2.5255
35283SOL    HW223460   7.118   8.951  12.283 -0.1335 -1.0483  0.5803
35284SOL     OW23461   3.227   8.496   0.827  0.5373  0.5140 -0.4876
35284SOL    HW123462   3.218   8.479   0.733  0.6164 -0.4651 -0.3262
35284SOL    HW223463   3.321   8.486   0.844  0.0774 -3.9110  0.4952
35285SOL     OW23464   8.055   7.025   7.254 -0.1080 -0.3799  0.1961
35285SOL    HW123465   7.982   6.964   7.251  0.0925 -0.6229  0.2827
35285SOL    HW223466   8.089   7.026   7.165  0.1501 -0.7097  0.2908
35286SOL     OW23467   9.869   1.805  12.070  0.2378 -0.2348  0.4204
35286SOL    HW123468   9.913   1.781  11.989 -1.0781 -1.3355 -0.0006
35286SOL    HW223469   9.869   1.725  12.123 -1.5340 -0.3861  0.2541
35287SOL     OW23470   5.328   1.157   4.994 -0.0612  0.1374 -0.1047
35287SOL    HW123471   5.385   1.224   5.031 -1.0704  1.0789 -0.1946
35287SOL    HW223472   5.242   1.199   4.991 -0.6383 -1.0492 -0.5002
35288SOL     OW23473   2.385   4.784   2.314 -0.0622 -0.0650  0.3082
35288SOL    HW123474   2.376   4.781   2.219  2.2239 -0.5557  0.0480
35288SOL    HW223475   2.401   4.876   2.334  0.6977 -0.1335  0.0499
35289SOL     OW23476   8.964  12.634   0.873 -0.2118  0.4068 -0.0069
35289SOL    HW123477   8.912  12.705   0.912 -2.3155 -1.0147 -0.0564
35289SOL    HW223478   8.934  12.555   0.919 -0.2524 -0.8650 -2.0958
35290SOL     OW23479   1.462   3.026  13.554 -0.0715 -0.0698  0.3887
35290SOL    HW123480   1.520   3.102  13.560  1.6441 -1.3481  1.0241
35290SOL    HW223481   1.522   2.952  13.547 -1.6655 -1.4591  0.9555
35291SOL     OW23482   4.524   6.863   4.802  0.0526  0.3212 -0.4562
35291SOL    HW123483   4.516   6.824   4.715  0.2993  1.5957 -1.0697
35291SOL    HW223484   4.578   6.941   4.789 -2.0327  2.0016  0.3636
35292SOL     OW23485  10.998   0.418   2.714 -0.2968 -0.5406 -0.3391
35292SOL    HW123486  10.949   0.494   2.681  1.6835  0.9310 -0.0798
35292SOL    HW223487  11.077   0.414   2.660  0.3225 -1.5435  0.5771
35293SOL     OW23488   2.899  10.513  11.920  0.5056 -0.0276 -0.0796
35293SOL    HW123489   2.954  10.436  11.913 -1.5700 -1.5527 -0.5134
35293SOL    HW223490   2.880  10.521  12.014  0.3845 -0.3191 -0.0781
35294SOL     OW23491   5.666   1.130   7.477  0.5293  0.4418 -0.0532
35294SOL    HW123492   5.643   1.195   7.543 -0.3562  1.0398 -0.9254
35294SOL    HW223493   5.695   1.054   7.527  0.4087  1.0725  1.0030
35295SOL     OW23494   5.496   4.246   6.585  0.4422 -0.1054 -0.0066
35295SOL    HW123495   5.455   4.332   6.577  0.0089 -0.2403  0.7058
35295SOL    HW223496   5.559   4.243   6.512 -1.0444 -0.0457 -1.3554
35296SOL     OW23497   8.575  10.479   2.799 -0.3114 -0.2256 -0.0327
35296SOL    HW123498   8.654  10.505   2.752  0.2353 -1.9959 -0.1615
35296SOL    HW223499   8.519  10.441   2.732 -0.4334 -0.7917  0.3837
35297SOL     OW23500   1.028   7.097  12.553  0.0752  0.3466 -0.1713
35297SOL    HW123501   1.075   7.061  12.478  1.8732  1.3752  0.3977
35297SOL    HW223502   0.983   7.174  12.519 -0.2826  0.0094 -0.4739
35298SOL     OW23503   9.434   2.901   2.653 -0.4842 -0.0006  0.0807
35298SOL    HW123504   9.476   2.820   2.624 -0.8723 -0.2432  0.1893
35298SOL    HW223505   9.497   2.940   2.714  0.2288  0.3826 -0.8670
35299SOL     OW23506   2.004  12.341   0.751 -0.3400  0.2030 -0.0160
35299SOL    HW123507   1.987  12.405   0.819  2.4221 -0.4929  1.4749
35299SOL    HW223508   1.962  12.261   0.783 -0.2378  0.2276  0.1796
35300SOL     OW23509   4.824   9.817  12.612 -0.3229  0.1641 -0.2772
35300SOL    HW123510   4.825   9.912  12.611 -1.1384  0.6488  5.9527
35300SOL    HW223511   4.917   9.792  12.615 -0.1184  0.7200 -1.4092
35301SOL     OW23512  12.463  11.818  10.428 -0.0623  0.4467  0.2784
35301SOL    HW123513  12.462  11.723  10.442 -0.2889  0.6422  1.6563
35301SOL    HW223514  12.500  11.854  10.508 -2.4470  1.6903  0.9046
35302SOL     OW23515   0.460   9.100  10.869 -0.0340  0.3450  0.3088
35302SOL    HW123516   0.522   9.043  10.823 -0.3345 -0.7575  1.2193
35302SOL    HW223517   0.511   9.176  10.894  0.7173 -0.1152  0.2080
35303SOL     OW23518   3.338  11.945  11.238  0.0217  0.3961  0.1111
35303SOL    HW123519   3.277  11.977  11.305 -1.4663  0.0151 -1.0284
35303SOL    HW223520   3.374  11.864  11.275 -2.2048 -0.8444 -0.2476
35304SOL     OW23521   7.438   0.637   6.196  0.1900 -0.2313 -0.1779
35304SOL    HW123522   7.447   0.732   6.183 -1.4140  0.3735  2.3412
35304SOL    HW223523   7.460   0.599   6.111  4.6650  2.0858 -0.3997
35305SOL     OW23524   7.692   3.799  11.490 -0.2927  1.1293 -0.1223
35305SOL    HW123525   7.704   3.894  11.481  2.8392  0.8643  0.0003
35305SOL    HW223526   7.780   3.766  11.510 -1.4249 -1.7387  0.6295
35306SOL     OW23527  13.174  12.240   3.222 -0.6686  0.0398 -0.4757
35306SOL    HW123528  13.115  12.314   3.235 -0.9653 -0.2896  0.0925
35306SOL    HW223529  13.116  12.164   3.218 -0.4143 -0.1138 -1.6121
35307SOL     OW23530   7.043   2.284   0.591 -0.3094  0.1912 -0.3443
35307SOL    HW123531   6.973   2.218   0.596 -0.1017  0.0089  0.4184
35307SOL    HW223532   7.007   2.360   0.637  0.0282  0.0550  0.1562
35308SOL     OW23533  13.076   0.440  10.026  0.1331 -0.0302  0.6542
35308SOL    HW123534  13.127   0.369  10.063  1.4946  0.2291 -0.6350
35308SOL    HW223535  13.003   0.397   9.981 -0.3509 -0.4451  1.7855
35309SOL     OW23536   5.515   4.923   3.383  0.4885 -0.2323 -0.2507
35309SOL    HW123537   5.493   4.835   3.414  0.9510 -0.0111  0.7085
35309SOL    HW223538   5.605   4.915   3.351 -0.0397 -0.5058 -1.7814
35310SOL     OW23539  11.149   6.976   3.512 -0.0885 -0.2552  0.0734
35310SOL    HW123540  11.195   7.004   3.591 -1.1284  0.7827  0.3475
35310SOL    HW223541  11.104   6.896   3.538  2.2311 -1.8307 -0.4678
35311SOL     OW23542   9.252   2.411   5.521 -0.0562 -0.0400 -0.0011
35311SOL    HW123543   9.188   2.369   5.465 -0.9839 -0.2897  1.2008
35311SOL    HW223544   9.256   2.356   5.599 -1.0353  1.8337  1.4677
35312SOL     OW23545   9.780   1.818  13.436 -0.1461 -0.1521 -0.7624
35312SOL    HW123546   9.873   1.843  13.432 -0.0539 -0.3296  0.0011
35312SOL    HW223547   9.744   1.871  13.506  0.0856 -2.1536  0.9939
35313SOL     OW23548   6.542   3.330   0.246  0.4577  0.1771  0.6550
35313SOL    HW123549   6.468   3.365   0.294  1.2653  0.9099  1.3874
35313SOL    HW223550   6.517   3.240   0.226 -0.6937  0.4680  0.7376
35314SOL     OW23551  14.038   1.414   3.314  0.0937 -0.2414 -0.0222
35314SOL    HW123552  13.956   1.436   3.359  0.2376  0.9602 -0.3165
35314SOL    HW223553  14.105   1.420   3.382  0.2767  1.3388 -0.3113
35315SOL     OW23554   8.767  12.235   4.643  0.3879  0.0192 -0.3204
35315SOL    HW123555   8.799  12.325   4.651 -0.5659  0.2235  1.6384
35315SOL    HW223556   8.675  12.239   4.667  0.5034 -1.5924  0.5753
35316SOL     OW23557   4.403   0.377   7.920 -0.1379 -0.2225  0.0398
35316SOL    HW123558   4.332   0.382   7.984 -0.2944 -0.5324 -0.1047
35316SOL    HW223559   4.371   0.317   7.853  0.3597 -0.5739  0.1037
35317SOL     OW23560   5.468  10.622  10.876 -0.4763 -0.4402  0.7297
35317SOL    HW123561   5.382  10.598  10.910  0.7300 -3.5989  1.8610
35317SOL    HW223562   5.529  10.602  10.947  1.3134  1.0981 -0.2764
35318SOL     OW23563   0.765   2.483   6.437  0.3316 -0.2414 -0.6356
35318SOL    HW123564   0.777   2.539   6.514  1.4942  0.6578 -1.4413
35318SOL    HW223565   0.850   2.441   6.425 -0.0645 -0.9547 -1.0084
35319SOL     OW23566   9.357   1.711   7.113  0.0948 -0.1861  0.4591
35319SOL    HW123567   9.426   1.646   7.126  0.5544  0.3289  0.6197
35319SOL    HW223568   9.354   1.760   7.195 -0.3811 -0.1244  0.4108
35320SOL     OW23569  13.336  12.284   3.434 -0.0132  0.6894  0.4043
35320SOL    HW123570  13.366  12.193   3.433 -0.1470  0.6349  0.9372
35320SOL    HW223571  13.288  12.294   3.352 -1.5418 -0.2607  1.1479
35321SOL     OW23572  12.132   0.815   3.656  0.2751 -0.1592 -0.1570
35321SOL    HW123573  12.086   0.823   3.573  0.6406 -0.7305 -0.4220
35321SOL    HW223574  12.081   0.868   3.717 -0.8628 -0.9652 -0.3883
35322SOL     OW23575  10.412   5.846  12.138 -0.0056  0.0159 -0.4938
35322SOL    HW123576  10.401   5.779  12.207  0.9780  0.1926 -0.1613
35322SOL    HW223577  10.323   5.876  12.121 -0.1348  1.4096  2.1429
35323SOL     OW23578  12.476  11.513   5.107  0.3303  0.2992  0.0904
35323SOL    HW123579  12.560  11.548   5.136  0.0232  0.5573  0.7111
35323SOL    HW223580  12.498  11.431   5.062  0.9135  0.3735  0.2285
35324SOL     OW23581   0.933   3.773  10.605 -0.5297 -0.2879 -0.2592
35324SOL    HW123582   0.976   3.698  10.648 -0.0089  0.3761  0.4176
35324SOL    HW223583   0.976   3.850  10.644  0.6821  0.3669 -2.6912
35325SOL     OW23584  13.212  12.911   3.071  0.2557  0.7416  0.0418
35325SOL    HW123585  13.199  12.882   3.161  0.4666 -0.8080 -0.4045
35325SOL    HW223586  13.292  12.964   3.074  0.2775  0.6781  0.7449
35326SOL     OW23587   8.674   7.211   3.483  0.1890 -0.2334 -0.4516
35326SOL    HW123588   8.618   7.244   3.412  0.4504 -0.5875 -0.8233
35326SOL    HW223589   8.623   7.228   3.563  0.0249  0.4533 -0.6915
35327SOL     OW23590   5.706   6.624   6.269 -0.6394  0.2810  0.1922
35327SOL    HW123591   5.698   6.700   6.210  2.5790  1.3497  0.9262
35327SOL    HW223592   5.731   6.552   6.211  0.9758  0.9656 -0.0282
35328SOL     OW23593   8.419   8.323   4.509  0.3426  0.1888  0.4296
35328SOL    HW123594   8.451   8.412   4.521 -0.5596  0.8967 -1.8392
35328SOL    HW223595   8.496   8.268   4.516  1.1943  1.3183  0.1762
35329SOL     OW23596   5.919  10.837   1.615 -0.4172 -0.6593  0.3663
35329SOL    HW123597   5.887  10.846   1.526 -0.9349  0.2468  0.6321
35329SOL    HW223598   5.961  10.921   1.634  1.0087 -1.3613  0.4728
35330SOL     OW23599   5.577   2.052  10.357 -0.6080  0.1449  0.4058
35330SOL    HW123600   5.510   1.985  10.345 -0.5297  0.0205  0.6623
35330SOL    HW223601   5.528   2.134  10.362 -0.6110  0.3035 -1.4944
35331SOL     OW23602  13.419  12.719   9.037 -0.6172 -0.6445  0.0772
35331SOL    HW123603  13.390  12.659   8.967  0.4433  1.4277 -2.2911
35331SOL    HW223604  13.388  12.805   9.009 -0.3132  0.2613  2.3264
35332SOL     OW23605   2.550  13.201  13.701 -0.4788  0.0944 -0.2847
35332SOL    HW123606   2.554  13.164  13.789 -0.0400 -2.3268 -1.2521
35332SOL    HW223607   2.478  13.264  13.705 -0.3796  0.1531  1.8131
35333SOL     OW23608   9.118   6.258   1.711  0.3933  0.3769 -0.1198
35333SOL    HW123609   9.037   6.237   1.758  0.9248  0.8331  1.0275
35333SOL    HW223610   9.088   6.286   1.624 -0.6225 -0.2413  0.0168
35334SOL     OW23611   9.829   0.835   0.619  0.0107 -0.4967 -0.0659
35334SOL    HW123612   9.917   0.819   0.585 -0.7360 -0.7251 -2.0288
35334SOL    HW223613   9.795   0.907   0.566 -0.3389  0.9023  1.9317
35335SOL     OW23614  11.565  13.766  10.545  0.0860  0.3506 -0.2191
35335SOL    HW123615  11.504  13.709  10.497 -0.8503 -0.5220  1.9109
35335SOL    HW223616  11.529  13.854  10.533 -1.4251 -0.1008  0.6478
35336SOL     OW23617  11.239  13.234   2.955  0.0634 -0.2499 -0.2192
35336SOL    HW123618  11.153  13.276   2.954  0.7010  1.1169 -0.7938
35336SOL    HW223619  11.270  13.245   3.045  0.6444  1.4791 -0.5958
35337SOL     OW23620   3.480   1.368  12.720 -0.0884 -0.3330  0.4553
35337SOL    HW123621   3.490   1.273  12.727  2.7399 -0.0738  1.0781
35337SOL    HW223622   3.463   1.383  12.627  1.0136 -1.3685  0.0631
35338SOL     OW23623   6.351   2.940   5.207  0.3229  0.2175  0.1253
35338SOL    HW123624   6.366   3.034   5.193  0.7917  0.1047 -0.1209
35338SOL    HW223625   6.416   2.914   5.272 -0.2268  0.1973  0.6794
35339SOL     OW23626   8.197   7.423  10.061  0.1076  0.5501 -0.1172
35339SOL    HW123627   8.114   7.454  10.099  0.0650 -0.6922  0.8777
35339SOL    HW223628   8.255   7.411  10.137  1.1911  1.3262 -0.7919
35340SOL     OW23629   2.735  12.997  13.977  0.6328  0.3802 -0.1738
35340SOL    HW123630   2.717  12.908  13.947  0.1768  0.0489  1.0259
35340SOL    HW223631   2.798  12.987  14.048  0.3636  0.9883  0.1639
35341SOL     OW23632  13.911   0.977   4.609 -0.3821 -0.0847  0.3193
35341SOL    HW123633  13.958   0.979   4.692  0.9715 -1.5954 -0.3595
35341SOL    HW223634  13.913   0.885   4.582  0.0519  0.4922 -1.8299
35342SOL     OW23635   4.171   1.606  11.927  0.1011 -0.4845  0.4269
35342SOL    HW123636   4.144   1.627  12.016 -0.2067 -0.4970  0.3386
35342SOL    HW223637   4.090   1.582  11.882  0.1356  0.2773 -0.0633
35343SOL     OW23638  13.751   8.275   7.777  0.3299  0.3591  0.4432
35343SOL    HW123639  13.763   8.365   7.807 -0.0846 -0.2753  2.7056
35343SOL    HW223640  13.716   8.229   7.853  1.9066 -2.0613 -0.1826
35344SOL     OW23641   8.436   4.963  12.700  0.1406 -0.1267 -0.3751
35344SOL    HW123642   8.395   5.047  12.719  2.2851  0.5774  1.6491
35344SOL    HW223643   8.457   4.926  12.786  2.3224 -1.0944 -1.2338
35345SOL     OW23644   8.308   3.585   9.734 -0.5897  0.3449 -0.2634
35345SOL    HW123645   8.360   3.509   9.708 -0.6139  0.1526  0.2428
35345SOL    HW223646   8.227   3.548   9.769  0.7690  0.3772  3.3036
35346SOL     OW23647   7.445   1.749  10.513 -0.3185 -0.1865  0.0274
35346SOL    HW123648   7.512   1.806  10.475 -1.1895  0.7501 -0.1446
35346SOL    HW223649   7.373   1.751  10.451 -0.5797 -1.0740  0.2771
35347SOL     OW23650   0.344  11.823  12.386  0.3004  0.0637 -0.0412
35347SOL    HW123651   0.388  11.885  12.328 -0.0451  1.2904  0.9531
35347SOL    HW223652   0.251  11.834  12.366  0.2287 -0.0343  0.2373
35348SOL     OW23653  12.261  13.822   4.625 -0.8113  0.1669  0.1775
35348SOL    HW123654  12.213  13.786   4.551 -2.0215  2.2943 -0.1543
35348SOL    HW223655  12.195  13.862   4.680  0.2983  0.5627  1.2792
35349SOL     OW23656   0.029   8.387   0.618 -0.5328 -0.1470 -0.0086
35349SOL    HW123657  -0.022   8.450   0.669  0.7648 -0.0626  1.2343
35349SOL    HW223658  -0.009   8.391   0.530  0.7029  3.8663 -0.5626
35350SOL     OW23659   7.301   3.040   3.665  0.0985  0.1753 -0.5776
35350SOL    HW123660   7.367   2.972   3.678 -0.8448 -0.8816 -1.1718
35350SOL    HW223661   7.345   3.121   3.691  1.3761 -0.5975 -0.2406
35351SOL     OW23662   2.836   6.764   7.630 -0.2927  0.0705 -0.2181
35351SOL    HW123663   2.765   6.719   7.675 -0.3532  0.3159 -0.0670
35351SOL    HW223664   2.803   6.779   7.541 -0.8084  1.0278  0.1118
35352SOL     OW23665  13.701  11.864   4.879 -0.4229  0.1158  0.0506
35352SOL    HW123666  13.771  11.929   4.884 -1.7532  1.5924  0.0633
35352SOL    HW223667  13.651  11.876   4.960 -0.6985 -0.9181  0.0463
35353SOL     OW23668   4.861   5.800   1.953 -0.1668  0.1655  0.2652
35353SOL    HW123669   4.950   5.833   1.939 -0.4095  1.1744  0.9754
35353SOL    HW223670   4.873   5.723   2.009  0.2302  0.6463  0.8541
35354SOL     OW23671  10.739  12.590   6.922 -0.5229  0.2943 -0.2309
35354SOL    HW123672  10.655  12.631   6.901 -0.7766  0.2745  0.6953
35354SOL    HW223673  10.760  12.539   6.844 -1.4979  0.1067 -0.3959
35355SOL     OW23674   9.734   7.672  10.603 -0.0101 -0.4605 -0.2959
35355SOL    HW123675   9.666   7.699  10.665 -1.3717 -0.6589 -1.6517
35355SOL    HW223676   9.800   7.628  10.657 -1.4701 -1.2260  0.9154
35356SOL     OW23677   4.649   0.702   5.551 -1.0291  0.3621 -0.8804
35356SOL    HW123678   4.733   0.662   5.575 -1.2447  0.4149  0.0077
35356SOL    HW223679   4.637   0.680   5.459  0.1507  0.7040 -1.1260
35357SOL     OW23680   8.409   0.294   6.715 -0.3852  0.3153  0.2859
35357SOL    HW123681   8.431   0.385   6.735  0.3159  0.5096 -1.2479
35357SOL    HW223682   8.493   0.249   6.710 -0.5805  0.0796 -1.1862
35358SOL     OW23683  12.362  12.869  10.612  0.3218  0.2590  0.5284
35358SOL    HW123684  12.269  12.852  10.625 -0.2323  0.0910 -2.9159
35358SOL    HW223685  12.366  12.945  10.554  2.2209 -1.2043 -1.4073
35359SOL     OW23686  10.484   8.095   7.832 -0.2239  0.1259 -0.0576
35359SOL    HW123687  10.481   8.002   7.858 -0.5984  0.1194 -0.1128
35359SOL    HW223688  10.394   8.126   7.848 -0.0924  0.4841 -0.0233
35360SOL     OW23689   4.767   3.467   4.733 -0.1263 -0.5673  0.0546
35360SOL    HW123690   4.775   3.448   4.640  0.5560 -0.1079  0.0171
35360SOL    HW223691   4.850   3.508   4.757 -0.4226 -0.3810  0.7934
35361SOL     OW23692  10.652  13.689   3.864  0.5002 -0.5041  0.4907
35361SOL    HW123693  10.564  13.682   3.903  0.4828  1.0565  0.8200
35361SOL    HW223694  10.676  13.781   3.877  1.9303 -0.7613 -0.1642
35362SOL     OW23695  12.177  13.350  12.483  0.3442  0.0498  0.3307
35362SOL    HW123696  12.245  13.291  12.515 -0.1979 -0.2637  0.9410
35362SOL    HW223697  12.222  13.432  12.466  0.8616 -0.1260  0.8157
35363SOL     OW23698   7.246  13.303   9.832  0.0752 -0.1418  0.0373
35363SOL    HW123699   7.266  13.300   9.925  0.0932 -0.5564  0.0240
35363SOL    HW223700   7.157  13.268   9.826 -0.1696  0.4849 -0.0346
35364SOL     OW23701   7.792   7.218  10.205 -0.0098 -0.4106  0.6249
35364SOL    HW123702   7.787   7.144  10.266  3.3997 -0.9315  0.4940
35364SOL    HW223703   7.878   7.207  10.162 -0.3971  2.3679 -1.0852
35365SOL     OW23704   9.628   2.067   7.593 -0.4506 -0.2914 -0.5461
35365SOL    HW123705   9.563   2.109   7.649  0.7094  0.4064  0.3344
35365SOL    HW223706   9.581   1.994   7.552 -1.1672 -1.3276  1.9318
35366SOL     OW23707   6.570   0.649   0.561  0.1987 -0.4408 -0.0509
35366SOL    HW123708   6.506   0.685   0.500 -0.3188  0.9700  1.2629
35366SOL    HW223709   6.517   0.610   0.631  0.7559  0.2188  0.7530
35367SOL     OW23710  12.904   7.285   3.144  0.4485 -0.0271 -0.3810
35367SOL    HW123711  12.812   7.262   3.161  0.8870 -0.8019  1.1359
35367SOL    HW223712  12.916   7.369   3.189  0.7677 -0.5031  0.4508
35368SOL     OW23713  11.034   6.883   6.297 -0.5649 -0.1371  0.1235
35368SOL    HW123714  11.119   6.875   6.342  0.9254  3.4606 -1.6936
35368SOL    HW223715  11.052   6.855   6.207 -1.0350  1.4491 -0.4881
35369SOL     OW23716   6.004   5.722   2.395  0.3774 -0.6258 -0.0749
35369SOL    HW123717   6.066   5.794   2.396  0.0537 -0.2658 -2.0547
35369SOL    HW223718   6.006   5.689   2.304 -2.4139 -0.4806 -0.2851
35370SOL     OW23719   3.364  11.300   9.308  0.1114  0.0268 -0.2576
35370SOL    HW123720   3.427  11.285   9.378 -1.0780 -0.1940  0.7958
35370SOL    HW223721   3.325  11.214   9.292  0.3744  0.0764 -1.2036
35371SOL     OW23722  10.060   0.752   6.541 -0.2036 -0.2286 -0.1121
35371SOL    HW123723  10.072   0.699   6.463 -1.4209 -0.1757 -0.3574
35371SOL    HW223724   9.979   0.801   6.525  0.7096  1.4903  0.2253
35372SOL     OW23725   8.011   1.824   0.599  0.6574  0.8356 -0.4933
35372SOL    HW123726   8.018   1.835   0.694  1.5837  0.4393 -0.5008
35372SOL    HW223727   7.934   1.875   0.574 -0.0272  0.3534  0.5644
35373SOL     OW23728   8.575   1.118   0.984 -0.5756 -0.4331 -0.1944
35373SOL    HW123729   8.604   1.030   1.007 -1.2471 -0.9687 -1.2943
35373SOL    HW223730   8.527   1.149   1.060  0.2780 -0.7224  0.4774
35374SOL     OW23731   0.150   7.978  11.031 -0.4006 -0.2561 -0.4160
35374SOL    HW123732   0.170   7.960  10.939  0.7437 -1.2456  0.0025
35374SOL    HW223733   0.234   8.002  11.070 -0.7855 -0.3076  0.4767
35375SOL     OW23734   1.520   3.475   8.269  0.4054  0.1499 -0.2407
35375SOL    HW123735   1.453   3.473   8.202 -0.7575 -0.3070  0.8988
35375SOL    HW223736   1.558   3.563   8.263  1.6996 -0.4774 -2.7374
35376SOL     OW23737   9.200   9.229  12.359  0.5219  0.0353 -0.3023
35376SOL    HW123738   9.289   9.261  12.345  0.7952  0.0076  1.1274
35376SOL    HW223739   9.200   9.141  12.321  1.3879 -0.3020  0.4332
35377SOL     OW23740   5.211   0.331  12.281  0.2753  0.3105 -0.0380
35377SOL    HW123741   5.291   0.298  12.321  0.6385  2.2715  0.9696
35377SOL    HW223742   5.231   0.340  12.188  0.0853 -2.3535 -0.4204
35378SOL     OW23743   5.921  12.567   7.453 -0.0223  0.3087  0.2343
35378SOL    HW123744   5.847  12.572   7.514 -0.0556  0.2601  0.1974
35378SOL    HW223745   5.951  12.477   7.459 -0.8325 -0.0511 -0.7703
35379SOL     OW23746   9.014  13.953   5.150  0.4748  0.1183 -0.3181
35379SOL    HW123747   8.948  13.886   5.132 -0.5583  0.8892  0.5168
35379SOL    HW223748   8.980  14.001   5.226  1.6708  0.9677 -0.2895
35380SOL     OW23749  13.562   9.766   1.437  0.3736 -0.1530  0.1245
35380SOL    HW123750  13.655   9.774   1.418  1.0004 -0.3518  2.7015
35380SOL    HW223751  13.558   9.746   1.531 -2.2603 -0.3761  0.0538
35381SOL     OW23752   5.392   8.123   4.675  0.1491 -0.4067 -0.6150
35381SOL    HW123753   5.465   8.131   4.613  0.4486  0.8886 -0.1177
35381SOL    HW223754   5.429   8.148   4.759 -1.0751  1.1770 -0.5124
35382SOL     OW23755  13.041   7.583   7.516 -0.3239  0.2484 -0.4397
35382SOL    HW123756  13.091   7.547   7.443 -0.4995 -0.0212 -0.4276
35382SOL    HW223757  13.054   7.678   7.510  0.0497  0.1905 -0.5335
35383SOL     OW23758  10.000  10.762  10.795 -0.4417  0.2556  0.4582
35383SOL    HW123759   9.905  10.770  10.793 -0.6574 -0.8156  2.7253
35383SOL    HW223760  10.017  10.671  10.771 -0.1618 -0.0695  1.7936
35384SOL     OW23761   5.930   2.520   3.539  0.4649  0.9219  0.0198
35384SOL    HW123762   5.977   2.523   3.456 -0.8476  1.5239 -0.7315
35384SOL    HW223763   5.997   2.496   3.604  1.1687 -1.3498 -1.4383
35385SOL     OW23764   8.379   6.380   0.862 -0.1871 -0.3540 -0.1839
35385SOL    HW123765   8.429   6.301   0.885  0.6247  0.2432  0.1422
35385SOL    HW223766   8.396   6.392   0.768  0.3439 -0.1147 -0.0602
35386SOL     OW23767  11.041   1.263   3.758 -0.1353 -0.2456  0.3827
35386SOL    HW123768  10.978   1.194   3.737  1.0458 -1.7498  1.5341
35386SOL    HW223769  11.024   1.284   3.850  0.3361  0.1129  0.3921
35387SOL     OW23770  12.520   0.534   6.046  0.0146 -0.2754  0.2469
35387SOL    HW123771  12.453   0.498   5.988  1.4779 -2.1470 -0.3730
35387SOL    HW223772  12.593   0.472   6.040  1.5292  1.2958  1.4653
35388SOL     OW23773   8.544   4.133   4.863  0.2404  0.5588 -0.1156
35388SOL    HW123774   8.490   4.147   4.785 -0.0882  0.6742  0.1296
35388SOL    HW223775   8.510   4.196   4.927  1.5803  1.6378 -0.4087
35389SOL     OW23776   2.852   7.908   4.403  0.6303 -0.1361 -0.6553
35389SOL    HW123777   2.780   7.865   4.356  0.6429  0.3932 -1.1845
35389SOL    HW223778   2.842   7.880   4.493 -1.6977  1.7400 -0.2130
35390SOL     OW23779   9.512   2.540   8.017  0.1213  0.9384 -0.5249
35390SOL    HW123780   9.579   2.472   8.008  1.6625  2.4848 -1.0916
35390SOL    HW223781   9.431   2.491   8.032  0.8337 -1.1248 -2.8162
35391SOL     OW23782   8.272  12.886   4.778 -0.1666  0.1572 -0.0622
35391SOL    HW123783   8.181  12.914   4.774 -0.5394 -1.1180 -1.1193
35391SOL    HW223784   8.271  12.808   4.834 -0.0931 -1.0811 -1.7075
35392SOL     OW23785   3.555   5.833   2.610 -0.0939  0.2092  0.5490
35392SOL    HW123786   3.619   5.860   2.675  0.8792 -0.2585 -0.1955
35392SOL    HW223787   3.501   5.768   2.655  0.5181 -0.0543  0.9117
35393SOL     OW23788  10.015   6.138   3.059  0.4543 -0.3073 -0.2643
35393SOL    HW123789   9.974   6.131   2.973 -1.6129  3.5347  0.2353
35393SOL    HW223790  10.022   6.047   3.089 -3.6808 -1.5315 -2.2840
35394SOL     OW23791   5.574   4.269   7.665 -0.2731  0.1185  0.4159
35394SOL    HW123792   5.649   4.237   7.715 -0.8412 -0.2141  1.0685
35394SOL    HW223793   5.529   4.329   7.724  0.6287  1.9898 -0.6934
35395SOL     OW23794   2.946   7.840   9.603  0.6870 -0.3594 -0.3362
35395SOL    HW123795   3.026   7.798   9.637 -0.3386 -1.8219  0.3782
35395SOL    HW223796   2.927   7.909   9.667  1.4532  0.1093 -0.5972
35396SOL     OW23797   6.874  12.751   3.715  0.5874 -0.4146  0.4183
35396SOL    HW123798   6.875  12.806   3.637 -1.0591 -0.7843  0.1087
35396SOL    HW223799   6.813  12.680   3.695  1.6409 -1.6301  1.3083
35397SOL     OW23800  10.666   0.202  11.025  0.0597 -0.2608  0.2423
35397SOL    HW123801  10.732   0.259  11.065 -0.5785  1.4738 -1.0167
35397SOL    HW223802  10.648   0.135  11.091  0.5575  1.2465  1.9934
35398SOL     OW23803   9.307  10.646   4.351 -0.0030  0.4437  0.6507
35398SOL    HW123804   9.283  10.728   4.395 -0.1349  1.5466 -1.3635
35398SOL    HW223805   9.236  10.631   4.288  0.7411 -0.4588 -0.0012
35399SOL     OW23806   4.213   8.888   4.338  0.4138  0.2948  0.5863
35399SOL    HW123807   4.293   8.848   4.304 -0.0690 -0.5185  0.3814
35399SOL    HW223808   4.222   8.981   4.318  1.3039  0.2163  0.5661
35400SOL     OW23809   5.975  11.732  12.397  0.0163  0.0289  0.0344
35400SOL    HW123810   5.974  11.774  12.311  1.0708  0.1471  0.0680
35400SOL    HW223811   5.894  11.681  12.400 -1.0371  1.6055 -0.2251
35401SOL     OW23812  13.924   1.104   4.057  0.1980 -0.1687 -0.2433
35401SOL    HW123813  13.904   1.196   4.038  1.5168  0.0622 -0.6638
35401SOL    HW223814  13.945   1.103   4.150  2.3090  0.4179 -0.6570
35402SOL     OW23815  13.592   9.512   7.112 -0.2210 -0.4009  0.0872
35402SOL    HW123816  13.663   9.526   7.174  0.2535 -0.9196 -0.3292
35402SOL    HW223817  13.540   9.441   7.149  0.3732 -1.0851 -0.3592
35403SOL     OW23818   3.268   3.559   0.833 -0.2853 -0.2942 -0.1189
35403SOL    HW123819   3.320   3.639   0.830 -2.2218  1.0233 -0.8125
35403SOL    HW223820   3.180   3.586   0.807 -1.2769 -2.4602  0.6741
35404SOL     OW23821   2.892   0.546   0.261  0.1041 -0.1649 -0.3236
35404SOL    HW123822   2.797   0.545   0.250 -0.1203 -1.0185  1.3579
35404SOL    HW223823   2.906   0.509   0.348  1.8836  1.3743  0.1140
35405SOL     OW23824  12.786   8.043  10.072 -0.0717  0.2337 -0.3824
35405SOL    HW123825  12.881   8.033  10.068 -0.0294  0.2098  0.5393
35405SOL    HW223826  12.764   8.095   9.994  0.2844 -2.5535 -2.4816
35406SOL     OW23827  11.984   9.753   3.226  0.0739  0.1175 -0.0509
35406SOL    HW123828  11.991   9.839   3.269  2.0206 -0.5204  1.0043
35406SOL    HW223829  11.976   9.691   3.298  1.1243 -0.7858 -0.6922
35407SOL     OW23830   0.744  10.368   4.320  0.1930 -0.0887 -0.2219
35407SOL    HW123831   0.840  10.362   4.317  0.1683 -1.0137  0.2772
35407SOL    HW223832   0.722  10.432   4.253  1.1583  0.0765 -0.4050
35408SOL     OW23833   3.401   8.156  12.925 -0.1427  0.2114 -0.1232
35408SOL    HW123834   3.407   8.236  12.873  0.6755  0.7334  0.7449
35408SOL    HW223835   3.318   8.117  12.898 -0.4331  1.2140 -0.7597
35409SOL     OW23836   9.397   8.170   0.652  0.4232 -0.2627  0.0168
35409SOL    HW123837   9.413   8.187   0.744 -0.4430 -0.3130  0.1796
35409SOL    HW223838   9.380   8.257   0.614  0.9726 -0.2203 -0.1380
35410SOL     OW23839   8.652  10.098   5.923  0.9702 -0.1709 -0.1051
35410SOL    HW123840   8.692  10.133   6.003 -0.7340 -0.2511  0.8366
35410SOL    HW223841   8.569  10.146   5.916  1.1239 -0.1029 -1.8967
35411SOL     OW23842   4.127   8.782   9.553  0.1169  0.0735 -0.0410
35411SOL    HW123843   4.168   8.826   9.627  0.8892  0.0842 -0.4587
35411SOL    HW223844   4.118   8.851   9.487  0.6920 -0.2306 -0.4448
35412SOL     OW23845  11.789   6.381  10.691 -0.1705  0.5032 -0.1345
35412SOL    HW123846  11.838   6.303  10.716  2.0829  1.6013 -0.9010
35412SOL    HW223847  11.721   6.349  10.632  0.3735 -0.9306 -0.0162
35413SOL     OW23848   5.706   1.007   9.502 -0.2199 -0.1801 -0.5454
35413SOL    HW123849   5.784   0.997   9.556 -0.0315 -0.3257 -0.8392
35413SOL    HW223850   5.722   0.949   9.427 -0.2456  0.4201 -1.0168
35414SOL     OW23851   9.276  10.990  13.463 -0.4071  0.3376 -0.0025
35414SOL    HW123852   9.355  11.008  13.514 -0.5508  0.1869  0.2752
35414SOL    HW223853   9.231  11.074  13.456  0.9474  0.9600 -2.1821
35415SOL     OW23854   5.681   2.783   4.561 -0.4640 -0.0833  0.3508
35415SOL    HW123855   5.671   2.728   4.639 -0.0409 -0.2014  0.3223
35415SOL    HW223856   5.684   2.721   4.488 -0.6023  0.0134  0.2630
35416SOL     OW23857   8.985   2.438  10.853  0.4073 -0.7842  0.1770
35416SOL    HW123858   8.977   2.440  10.757 -2.6043  1.5169  0.3280
35416SOL    HW223859   9.054   2.501  10.872 -1.0050  1.0565 -0.4783
35417SOL     OW23860   2.089   3.201   0.302 -0.6129 -0.0503  0.1318
35417SOL    HW123861   1.997   3.228   0.310 -0.7908 -0.8244  0.7967
35417SOL    HW223862   2.096   3.123   0.357  0.3247 -0.2979 -0.3193
35418SOL     OW23863  12.920   7.336   7.925 -0.1559  0.0034 -0.3398
35418SOL    HW123864  12.853   7.388   7.969 -1.9258  0.5908 -3.4025
35418SOL    HW223865  12.911   7.248   7.961  0.0304  0.8785  1.9599
35419SOL     OW23866   5.764  12.328  13.760 -0.5794  0.0766 -0.4394
35419SOL    HW123867   5.775  12.297  13.670  2.8044  0.4190 -0.2801
35419SOL    HW223868   5.808  12.262  13.814  1.6137  2.1031  0.4390
35420SOL     OW23869   1.646   1.136  12.808 -0.6939 -0.6578 -0.2291
35420SOL    HW123870   1.671   1.045  12.794 -1.8160 -1.0008 -0.1669
35420SOL    HW223871   1.572   1.132  12.869 -1.6088  0.1833 -1.2282
35421SOL     OW23872  10.983   7.314  11.492  0.1154  0.4712 -0.4211
35421SOL    HW123873  10.946   7.230  11.519 -0.5711  1.6656  2.8993
35421SOL    HW223874  10.908   7.366  11.463  0.0841  0.8284  0.2689
35422SOL     OW23875  11.523   1.655   5.278  0.2849  0.8371  0.1614
35422SOL    HW123876  11.581   1.579   5.288 -0.3824  0.3583  0.4218
35422SOL    HW223877  11.442   1.630   5.322 -0.4527  1.1574 -0.9604
35423SOL     OW23878   7.863   3.443   0.694  0.3818 -0.6095 -0.4472
35423SOL    HW123879   7.803   3.380   0.733  0.4590 -2.2115 -2.7794
35423SOL    HW223880   7.818   3.527   0.703 -1.5379 -1.5473 -0.7971
35424SOL     OW23881   9.789   0.530   5.010  0.2082  0.1943 -0.0683
35424SOL    HW123882   9.702   0.558   4.983 -0.4365 -1.7210 -0.1181
35424SOL    HW223883   9.831   0.610   5.042 -0.6510  1.6675 -2.3093
35425SOL     OW23884   4.773   8.915   7.322  0.0655  0.1051 -0.1406
35425SOL    HW123885   4.784   8.880   7.410 -0.0032  0.9957  0.2370
35425SOL    HW223886   4.737   8.843   7.271 -2.4234  0.3076  1.1761
35426SOL     OW23887   9.839   6.401   0.063 -0.5755  0.0062 -0.5482
35426SOL    HW123888   9.874   6.447  -0.013 -0.8295  0.7699 -0.2100
35426SOL    HW223889   9.747   6.425   0.066 -1.6077 -3.0759 -2.2536
35427SOL     OW23890   3.774   1.121   0.210 -0.6268 -0.1605 -0.2868
35427SOL    HW123891   3.719   1.165   0.145  0.6455 -0.6189 -1.7214
35427SOL    HW223892   3.787   1.186   0.279  0.0038  1.2137 -1.6562
35428SOL     OW23893   2.900  14.004  13.192  0.4800  0.0002 -0.4148
35428SOL    HW123894   2.916  13.955  13.112  0.8642 -0.4555 -0.0708
35428SOL    HW223895   2.969  13.974  13.252 -0.9827 -1.1674  0.7584
35429SOL     OW23896  12.364   6.584  13.394  0.4624 -0.3201  0.1566
35429SOL    HW123897  12.442   6.588  13.338 -1.0546  0.2567 -2.0372
35429SOL    HW223898  12.307   6.653  13.360 -1.4387 -1.4152  1.0020
35430SOL     OW23899   0.603  13.256   9.802 -0.8296 -0.0480  0.1536
35430SOL    HW123900   0.669  13.321   9.780 -0.3494 -0.6829 -0.3184
35430SOL    HW223901   0.521  13.305   9.803 -0.2620  0.9357  1.6581
35431SOL     OW23902   8.868   5.197   3.076 -0.2160  0.3008 -0.2265
35431SOL    HW123903   8.891   5.280   3.119 -0.7019  0.0056  0.6342
35431SOL    HW223904   8.924   5.193   2.999  0.3758  1.0592  0.1552
35432SOL     OW23905   1.171   2.051   2.192  0.0683 -0.4968 -0.0138
35432SOL    HW123906   1.126   2.019   2.271  2.8330 -0.4323  1.7319
35432SOL    HW223907   1.192   1.972   2.143  1.4443 -0.9052  1.1689
35433SOL     OW23908   9.049  11.189   7.141  0.0697 -0.2903 -0.2285
35433SOL    HW123909   9.074  11.193   7.233 -0.1327 -0.8279 -0.1433
35433SOL    HW223910   8.970  11.242   7.134  1.2636  1.5112 -0.5214
35434SOL     OW23911  13.163   8.194  10.885 -0.1566  0.0699 -0.0294
35434SOL    HW123912  13.228   8.126  10.905  0.0279 -0.5791 -2.5434
35434SOL    HW223913  13.190   8.269  10.938  2.4475 -0.3089 -0.7079
35435SOL     OW23914   4.873   5.396  12.046 -0.6333 -0.2747  0.0558
35435SOL    HW123915   4.833   5.355  12.123 -0.7266 -0.5064 -0.1161
35435SOL    HW223916   4.843   5.487  12.049 -1.5564 -0.5604 -0.3324
35436SOL     OW23917   0.081  10.132   1.953 -0.0132 -0.0384 -0.4296
35436SOL    HW123918   0.046  10.066   2.013  0.4539 -0.0513 -0.1629
35436SOL    HW223919   0.005  10.180   1.922 -0.0562  2.7824  3.4098
35437SOL     OW23920  10.987  11.078   8.080  0.4599 -0.0142 -0.1464
35437SOL    HW123921  10.968  11.010   8.016  1.1341 -1.1422  0.8073
35437SOL    HW223922  11.009  11.155   8.028  2.2176 -1.2391 -1.3182
35438SOL     OW23923  10.279   4.220  11.028  0.3202 -0.5654  0.1845
35438SOL    HW123924  10.220   4.287  10.994 -0.1585 -0.9257  0.3046
35438SOL    HW223925  10.311   4.175  10.949 -0.9659 -1.5511  0.1870
35439SOL     OW23926   4.393   8.564  10.264  0.0499  0.4302  0.1086
35439SOL    HW123927   4.392   8.505  10.189  0.5191 -0.2391  0.6153
35439SOL    HW223928   4.353   8.644  10.232 -1.9930 -0.6529 -0.1787
35440SOL     OW23929   6.242   8.987   8.804  0.2495  0.4708  0.1145
35440SOL    HW123930   6.333   8.958   8.812  0.5438  0.6685 -1.9988
35440SOL    HW223931   6.191   8.907   8.810  0.7454  0.0445 -1.1139
35441SOL     OW23932   7.130   9.465  12.901  0.2090 -0.3376  0.3781
35441SOL    HW123933   7.087   9.429  12.978 -0.8710  0.7998  0.3451
35441SOL    HW223934   7.103   9.407  12.829  1.8551 -1.8627  0.9436
35442SOL     OW23935   0.201  10.160   0.660 -0.2505 -0.1925  0.0974
35442SOL    HW123936   0.205  10.123   0.749 -0.9575 -0.0291  0.2071
35442SOL    HW223937   0.114  10.200   0.655  0.7864  2.3061  0.3262
35443SOL     OW23938   6.492   6.017  12.333  0.3095  0.3095  0.1894
35443SOL    HW123939   6.398   6.025  12.345  0.5533  0.1610  2.5373
35443SOL    HW223940   6.529   6.095  12.373  1.2822 -0.5854  1.1086
35444SOL     OW23941   3.315   6.318   3.553  0.1751 -0.3807  0.1428
35444SOL    HW123942   3.275   6.352   3.633 -0.4686 -2.9167  0.9960
35444SOL    HW223943   3.400   6.362   3.547 -0.9783  2.0750  0.5287
35445SOL     OW23944  13.044  13.768  12.680  0.3899 -0.5328 -0.0328
35445SOL    HW123945  13.016  13.839  12.623  0.3736 -0.9024 -0.4841
35445SOL    HW223946  12.979  13.699  12.668 -0.3731 -0.1141  1.4432
35446SOL     OW23947   3.993  13.334   8.601  0.1530 -0.1393 -0.6827
35446SOL    HW123948   3.958  13.372   8.520  1.1327 -0.6113 -1.3562
35446SOL    HW223949   3.919  13.290   8.642 -0.7625  1.5327 -0.4403
35447SOL     OW23950  11.156  12.102  11.366 -0.0344  0.0977  0.1107
35447SOL    HW123951  11.157  12.013  11.402 -0.1467  0.2274  0.4410
35447SOL    HW223952  11.069  12.135  11.387  0.4355  0.7399  1.1426
35448SOL     OW23953  13.721   6.916   5.984  0.1856 -0.2599  0.1307
35448SOL    HW123954  13.627   6.925   5.998 -0.0131  4.0397 -2.1516
35448SOL    HW223955  13.730   6.905   5.889  2.0050 -1.7374  0.4193
35449SOL     OW23956   2.998   7.003   4.206  0.2721  0.5943  0.2956
35449SOL    HW123957   3.028   7.030   4.293  0.5615  1.0243  0.0665
35449SOL    HW223958   3.077   7.007   4.152  0.3687 -0.8837  0.2834
35450SOL     OW23959  12.087   3.163   3.801  0.3409  0.8991  0.4685
35450SOL    HW123960  11.997   3.168   3.770 -0.1400 -3.9828  0.3003
35450SOL    HW223961  12.139   3.156   3.721  0.3384 -0.3147  0.5472
35451SOL     OW23962   6.239  12.108   2.928 -0.7803  0.4299  0.4457
35451SOL    HW123963   6.211  12.157   3.006  0.3351  1.2153  0.3643
35451SOL    HW223964   6.326  12.076   2.949 -1.1188 -0.7550  0.1278
35452SOL     OW23965  11.953  11.779   6.591 -0.2920 -0.3609  0.3116
35452SOL    HW123966  11.888  11.841   6.624  0.0442 -0.7145  1.7121
35452SOL    HW223967  11.962  11.800   6.499 -0.0873  1.7671  0.7708
35453SOL     OW23968  10.057   1.852   6.741 -0.6498  0.0445 -0.1941
35453SOL    HW123969  10.066   1.902   6.822 -1.2734  0.7932 -0.5690
35453SOL    HW223970  10.107   1.904   6.677  0.1801 -0.7512 -0.2140
35454SOL     OW23971   1.700   3.114   5.827 -0.2145 -0.3889 -0.0366
35454SOL    HW123972   1.707   3.019   5.821  1.5162 -0.2743 -0.0677
35454SOL    HW223973   1.756   3.138   5.901 -0.3318  0.6518 -0.2669
35455SOL     OW23974   8.744  13.253   2.337 -0.0357 -0.2515 -0.1568
35455SOL    HW123975   8.772  13.195   2.266  0.6101  0.0717 -0.1793
35455SOL    HW223976   8.649  13.251   2.334 -0.0156 -0.5381 -0.7919
35456SOL     OW23977   6.366   1.064   4.554 -0.0535 -0.1214 -0.3536
35456SOL    HW123978   6.285   1.036   4.597 -0.6694  0.5113 -1.0778
35456SOL    HW223979   6.436   1.030   4.610 -0.7375 -2.7994 -0.9800
35457SOL     OW23980   3.474   6.818  10.303 -0.0458  0.2179 -0.2448
35457SOL    HW123981   3.413   6.755  10.340  0.0831  0.1600 -0.1289
35457SOL    HW223982   3.492   6.784  10.215 -0.2858  0.3103 -0.3295
35458SOL     OW23983   1.212   1.192   4.834 -0.2784  0.3265  0.2537
35458SOL    HW123984   1.283   1.203   4.897 -1.0590 -0.4779  1.3085
35458SOL    HW223985   1.255   1.188   4.748  0.7464  2.1730  0.6447
35459SOL     OW23986   8.478   3.506  10.215  0.7430 -0.2712  0.5616
35459SOL    HW123987   8.403   3.565  10.221  0.4607 -0.7593  2.6310
35459SOL    HW223988   8.448   3.424  10.253  1.6354 -1.2638 -0.7566
35460SOL     OW23989  11.244   0.909   1.456 -0.1759 -0.0921 -0.1432
35460SOL    HW123990  11.266   0.901   1.363 -1.8066 -1.0456 -0.4754
35460SOL    HW223991  11.218   1.000   1.467 -0.6080 -0.1309 -0.7798
35461SOL     OW23992   7.120   0.153   4.622 -0.2037 -0.3756  0.4733
35461SOL    HW123993   7.071   0.168   4.702  0.1225  1.2107  0.4089
35461SOL    HW223994   7.088   0.069   4.589 -2.6386  0.4174  0.6145
35462SOL     OW23995   2.669  10.566  11.543 -0.2601  0.2185  0.3577
35462SOL    HW123996   2.610  10.545  11.471  0.8589  1.0251 -0.8205
35462SOL    HW223997   2.665  10.661  11.551  1.1482  0.3175  0.0111
35463SOL     OW23998   8.809  10.423   9.089  0.3397  0.2337  0.3955
35463SOL    HW123999   8.891  10.382   9.115  1.3269  1.0442 -1.2246
35463SOL    HW224000   8.788  10.483   9.160  0.2317 -1.2102  1.6054
35464SOL     OW24001  12.177  14.026   0.341 -0.4612 -0.0549 -0.2904
35464SOL    HW124002  12.094  14.057   0.377 -1.3191 -2.0495 -0.3700
35464SOL    HW224003  12.159  14.010   0.249 -0.1285 -0.8989 -0.2189
35465SOL     OW24004   3.215   6.082   9.237  0.5125  0.0377 -0.0470
35465SOL    HW124005   3.242   6.173   9.225 -0.3797  0.3122  0.0162
35465SOL    HW224006   3.295   6.037   9.263  0.9301  0.8267  0.0614
35466SOL     OW24007  11.684  11.065   6.107  0.1080  0.0386  0.0028
35466SOL    HW124008  11.739  11.075   6.184 -0.2494 -3.0402  0.7952
35466SOL    HW224009  11.726  11.119   6.040  3.5600 -1.3880  0.8191
35467SOL     OW24010   4.941   5.041   1.416  0.6673  0.7252 -0.5597
35467SOL    HW124011   4.946   5.125   1.370  0.4711  1.2937  0.4314
35467SOL    HW224012   4.951   4.975   1.346 -0.1947  1.5446 -1.4894
35468SOL     OW24013   0.351  12.783   3.996 -0.0673  0.1063  0.6528
35468SOL    HW124014   0.360  12.749   3.907 -1.1153 -3.2454  1.6628
35468SOL    HW224015   0.421  12.741   4.046 -1.9218 -1.3699  2.1672
35469SOL     OW24016  10.033   0.559   9.636  0.0578 -0.3415 -0.3420
35469SOL    HW124017   9.944   0.590   9.618  0.4198  0.2254 -1.2153
35469SOL    HW224018  10.089   0.609   9.576  0.9065 -1.0814 -0.1955
35470SOL     OW24019   2.416   6.394  11.591 -0.1019 -0.3144 -0.1724
35470SOL    HW124020   2.441   6.479  11.627  0.0276  0.5861 -2.2337
35470SOL    HW224021   2.320   6.395  11.590 -0.1463 -0.8272  1.1255
35471SOL     OW24022   2.479  13.902   3.994 -0.0593 -0.3247 -0.5207
35471SOL    HW124023   2.404  13.912   3.936 -1.1052  0.1227  0.8579
35471SOL    HW224024   2.511  13.813   3.977 -0.9254 -0.5368 -1.1021
35472SOL     OW24025   4.413  13.938   8.008  0.3213  0.0223 -0.2471
35472SOL    HW124026   4.475  13.866   7.998 -0.4171 -0.6994  0.2149
35472SOL    HW224027   4.386  13.959   7.918  0.5322 -0.2821 -0.3838
35473SOL     OW24028   5.003   4.466  12.399  0.4940  0.0312  0.0119
35473SOL    HW124029   4.914   4.448  12.369 -0.7209  0.0592  3.2608
35473SOL    HW224030   5.057   4.404  12.349 -1.4981 -0.9609 -1.0541
35474SOL     OW24031   1.053   4.517  13.968 -0.5376  0.4678  0.8204
35474SOL    HW124032   0.970   4.476  13.946 -0.4534  0.7389 -0.0206
35474SOL    HW224033   1.093   4.538  13.884  0.4566  0.1964  1.2025
35475SOL     OW24034   7.848   0.297   9.140  0.2439 -0.3292  0.1782
35475SOL    HW124035   7.852   0.391   9.159  0.1821 -0.2724 -0.0902
35475SOL    HW224036   7.855   0.255   9.226 -1.6787 -0.0414  0.5237
35476SOL     OW24037   5.427   1.687   8.904 -0.1192  0.4381  0.1157
35476SOL    HW124038   5.486   1.612   8.907 -0.4552  0.2101  1.3123
35476SOL    HW224039   5.454   1.742   8.978 -0.8288  0.7774  0.1326
35477SOL     OW24040   8.734  13.385   8.084  0.3713 -0.1886  0.3547
35477SOL    HW124041   8.761  13.391   8.175 -0.4272 -0.8842  0.6442
35477SOL    HW224042   8.771  13.302   8.053 -1.0364 -0.9439  0.6344
35478SOL     OW24043   2.365   9.638   9.276  0.1131 -0.2110 -0.0193
35478SOL    HW124044   2.322   9.672   9.353  1.5567  0.4068  0.5504
35478SOL    HW224045   2.413   9.561   9.307  0.4135 -0.1736 -0.3797
35479SOL     OW24046   6.448   2.238   5.206 -0.1835 -0.0268 -0.2247
35479SOL    HW124047   6.404   2.269   5.127  1.0824 -0.3155 -1.0715
35479SOL    HW224048   6.462   2.144   5.191 -2.1925 -0.6663  1.4553
35480SOL     OW24049   6.478  14.073   7.280 -0.4270 -0.1477  0.1618
35480SOL    HW124050   6.461  14.070   7.374 -0.4161 -0.3008  0.1591
35480SOL    HW224051   6.563  14.117   7.273 -0.9709  0.9491  0.1577
35481SOL     OW24052   3.617   5.657   2.095  0.2200  0.2906 -0.0824
35481SOL    HW124053   3.666   5.579   2.123  2.9358  0.9921 -2.3645
35481SOL    HW224054   3.639   5.723   2.160 -0.0149 -0.1619  0.4673
35482SOL     OW24055   6.831   5.541   1.461 -0.4582 -0.1864 -0.5513
35482SOL    HW124056   6.789   5.482   1.524 -0.7393  0.8735  0.2842
35482SOL    HW224057   6.922   5.546   1.491 -0.1259 -1.1166 -1.3392
35483SOL     OW24058   5.155   0.297   0.852 -0.3919  0.8512  0.4550
35483SOL    HW124059   5.196   0.214   0.831 -3.0600 -0.7686  1.1980
35483SOL    HW224060   5.197   0.360   0.793  2.1539 -0.8335  0.3115
35484SOL     OW24061  13.537  11.029   0.710  0.0089 -0.1105 -0.5117
35484SOL    HW124062  13.610  11.079   0.746 -0.5615  1.2015 -1.1240
35484SOL    HW224063  13.459  11.071   0.745 -0.4806 -1.0715 -0.4165
35485SOL     OW24064   5.062   0.720   5.951  0.6765  0.0662  0.1904
35485SOL    HW124065   5.149   0.757   5.935  0.9609 -0.8159 -0.3674
35485SOL    HW224066   5.069   0.629   5.921 -0.7296  0.2547 -0.8004
35486SOL     OW24067   9.801  12.226   8.587  0.5480  0.2196  0.1855
35486SOL    HW124068   9.729  12.259   8.532  1.2259  0.3348 -0.6636
35486SOL    HW224069   9.790  12.272   8.670 -0.4234  0.1523  0.1049
35487SOL     OW24070   4.318   4.386   9.081 -0.0374  0.3678  0.0039
35487SOL    HW124071   4.328   4.451   9.151  1.8872  0.7698 -0.5910
35487SOL    HW224072   4.385   4.321   9.098 -0.8595 -0.6032 -0.3686
35488SOL     OW24073   8.982   4.309   0.425 -0.2050  0.4827 -0.1945
35488SOL    HW124074   8.961   4.318   0.332 -0.3614 -0.3113 -0.2404
35488SOL    HW224075   9.068   4.267   0.427 -0.2018  0.4974  0.0197
35489SOL     OW24076   7.632   8.186   3.125  0.0030 -0.7649 -0.0635
35489SOL    HW124077   7.589   8.272   3.126  0.4917 -0.5093 -0.2566
35489SOL    HW224078   7.679   8.185   3.041 -0.5167 -1.4849 -0.3501
35490SOL     OW24079   6.415   0.696   7.363 -0.3664  0.3288  0.2119
35490SOL    HW124080   6.460   0.748   7.429 -1.4477 -0.0475  1.2771
35490SOL    HW224081   6.373   0.761   7.306  1.7474  0.7028 -1.0367
35491SOL     OW24082   2.010  13.925   3.461 -0.4513 -0.1564  0.4895
35491SOL    HW124083   1.976  14.011   3.486  0.7628  0.8236 -1.0139
35491SOL    HW224084   1.946  13.890   3.400 -0.0023  0.6061 -0.4521
35492SOL     OW24085   2.855   2.932  12.066  0.2628 -0.4959  0.0014
35492SOL    HW124086   2.858   2.978  12.150 -1.2285 -1.9429  0.9133
35492SOL    HW224087   2.816   2.994  12.005 -2.8641 -0.8373  1.4741
35493SOL     OW24088   8.842   4.939   0.788 -0.4028 -0.0372 -1.2474
35493SOL    HW124089   8.818   4.926   0.696 -4.3094 -0.8644 -0.2763
35493SOL    HW224090   8.782   5.006   0.819  0.7093  0.0872  0.8028
35494SOL     OW24091   5.404   2.808   2.001 -0.1206  0.1838 -0.4906
35494SOL    HW124092   5.361   2.884   2.041  2.8015  1.9023 -0.3171
35494SOL    HW224093   5.411   2.831   1.908 -1.0177 -0.8521 -0.8428
35495SOL     OW24094   7.856   6.924  10.033 -0.3804  0.2478  0.1073
35495SOL    HW124095   7.865   6.875  10.115 -1.2897 -0.6347 -0.2979
35495SOL    HW224096   7.875   7.014  10.057  0.4886 -0.1687  1.0541
35496SOL     OW24097   1.311   5.570  10.693  0.3288 -0.3134 -0.0255
35496SOL    HW124098   1.232   5.609  10.657  1.1322  0.7676 -0.6490
35496SOL    HW224099   1.299   5.576  10.788  0.9994  2.7408 -0.0540
35497SOL     OW24100  11.690  11.450   2.797  0.2744 -0.8892  0.4319
35497SOL    HW124101  11.678  11.459   2.702 -0.5076 -0.6849  0.5487
35497SOL    HW224102  11.783  11.466   2.810  1.0193 -3.6636 -0.6367
35498SOL     OW24103  11.400   7.411   5.664  0.2237  0.2723 -0.5260
35498SOL    HW124104  11.323   7.433   5.716 -0.9805 -0.4764 -1.9352
35498SOL    HW224105  11.408   7.482   5.600  0.9858  0.5689 -0.1219
35499SOL     OW24106  10.964   5.708  13.179 -0.1653 -0.4135 -0.2049
35499SOL    HW124107  10.977   5.763  13.102  0.2902 -0.2117  0.0160
35499SOL    HW224108  11.051   5.680  13.205 -0.2567 -0.0169  0.5722
35500SOL     OW24109  12.746   1.939  11.901  0.3521  0.0563  0.0340
35500SOL    HW124110  12.657   1.913  11.925  0.1334 -0.0766 -0.9051
35500SOL    HW224111  12.798   1.919  11.979 -0.5275  0.6773  0.8098
35501SOL     OW24112   3.748   5.027   9.712  0.0905 -0.1459 -0.0070
35501SOL    HW124113   3.728   4.945   9.757 -2.9544  0.5070  0.0669
35501SOL    HW224114   3.726   5.010   9.620 -0.0303  0.4190 -0.0882
35502SOL     OW24115   2.258   5.238   7.722 -0.1180 -0.2083  0.3236
35502SOL    HW124116   2.255   5.305   7.790  0.5933 -0.3665  0.5206
35502SOL    HW224117   2.337   5.187   7.742  0.1314 -0.2277 -0.6415
35503SOL     OW24118   7.758  10.442   0.018 -0.0483  0.1413 -0.0983
35503SOL    HW124119   7.777  10.421  -0.073  3.0078  1.8078  0.0185
35503SOL    HW224120   7.757  10.538   0.020  1.0713  0.1600  1.7755
35504SOL     OW24121   1.086   3.395  10.267 -0.4010  0.0724 -0.0573
35504SOL    HW124122   1.160   3.434  10.221 -0.0125 -0.3101  0.2322
35504SOL    HW224123   1.070   3.312  10.221  1.2513 -1.2855  1.6235
35505SOL     OW24124   0.735  13.267  14.089  0.1810  0.3277  0.4740
35505SOL    HW124125   0.705  13.327  14.157  0.4798  1.7203 -0.5787
35505SOL    HW224126   0.736  13.182  14.131 -1.5832  0.8249  1.6329
35506SOL     OW24127   8.263  11.990   8.227 -0.3905  0.5581  0.1849
35506SOL    HW124128   8.304  11.982   8.141 -0.9247 -1.8317  0.0730
35506SOL    HW224129   8.333  11.968   8.289 -1.0123 -2.2063  0.0555
35507SOL     OW24130  13.243  12.029   7.068 -0.0518  0.1788  0.2306
35507SOL    HW124131  13.285  11.973   7.134 -0.4873 -1.0740 -0.5207
35507SOL    HW224132  13.213  12.106   7.117  3.0125  1.1243  0.8244
35508SOL     OW24133   8.045  10.582   1.921 -0.5892 -0.0722 -1.0338
35508SOL    HW124134   8.053  10.638   1.999  0.8204 -1.6723  0.0482
35508SOL    HW224135   8.135  10.571   1.891 -1.0504 -0.1221 -2.4661
35509SOL     OW24136   3.280   5.440   3.903 -0.4627  0.4102 -0.0837
35509SOL    HW124137   3.285   5.512   3.966 -1.6940 -0.2971  0.8613
35509SOL    HW224138   3.310   5.478   3.820 -0.6085  1.8675  0.5077
35510SOL     OW24139  10.495   9.456   3.197  0.0490 -0.0253 -0.5828
35510SOL    HW124140  10.505   9.516   3.123 -1.4427  2.5910  1.1878
35510SOL    HW224141  10.563   9.483   3.259 -1.7385  1.1755  0.9808
35511SOL     OW24142   0.114   8.791   4.964  0.2032  0.0596 -0.1867
35511SOL    HW124143   0.061   8.826   4.893 -0.5578  3.2596  1.7655
35511SOL    HW224144   0.062   8.806   5.043  1.4792 -2.3354  1.2498
35512SOL     OW24145   2.929  13.467   8.874 -0.2463 -0.0569  0.2731
35512SOL    HW124146   2.930  13.518   8.792  0.6215  1.0490  0.9419
35512SOL    HW224147   2.880  13.521   8.935 -1.8950 -1.4007  0.2107
35513SOL     OW24148   7.809   1.397   2.701 -0.9129  0.0525  0.0918
35513SOL    HW124149   7.889   1.395   2.648 -0.9705 -1.7098  0.0064
35513SOL    HW224150   7.792   1.490   2.716  1.1473  0.4737  0.1085
35514SOL     OW24151  12.554   5.708  10.499  0.5101 -0.9468  0.2524
35514SOL    HW124152  12.613   5.711  10.423  1.1102 -2.7611  0.5966
35514SOL    HW224153  12.538   5.615  10.512 -1.4708 -0.5380  0.9483
35515SOL     OW24154   5.851   3.543   4.222  0.3266 -0.1774  0.2991
35515SOL    HW124155   5.939   3.530   4.257  1.2480 -2.0086 -2.3935
35515SOL    HW224156   5.803   3.464   4.248  0.8223 -1.2309 -1.7751
35516SOL     OW24157   5.309  10.069  13.619  0.1759  0.3543 -0.7573
35516SOL    HW124158   5.370  10.126  13.667 -0.8600  0.6846  0.2266
35516SOL    HW224159   5.340   9.981  13.636 -0.7346  0.3918  1.4555
35517SOL     OW24160   9.022   2.944   8.876 -0.0373  0.2047 -0.5915
35517SOL    HW124161   9.098   2.942   8.934 -1.0805  1.7053  0.9157
35517SOL    HW224162   8.970   2.869   8.903  0.3410 -0.1538 -0.8411
35518SOL     OW24163   5.505   9.786  12.152  0.0547 -0.1543 -0.1116
35518SOL    HW124164   5.539   9.800  12.063  4.9126 -1.7135  1.1534
35518SOL    HW224165   5.506   9.691  12.162  0.6333  0.0263  1.8959
35519SOL     OW24166   3.109   1.914  11.898  0.2812 -0.2053 -0.4270
35519SOL    HW124167   3.148   1.857  11.832  1.6410 -1.1907  1.1471
35519SOL    HW224168   3.055   1.856  11.952 -0.7081  0.5584 -0.5612
35520SOL     OW24169  12.214  10.051   8.037 -0.3247  0.3611  0.5305
35520SOL    HW124170  12.248  10.011   8.117  0.8582  1.2851  0.5159
35520SOL    HW224171  12.124  10.076   8.059  0.4339  1.9172  2.0954
35521SOL     OW24172   3.510  10.911   7.209 -0.5795  0.0920  0.0957
35521SOL    HW124173   3.590  10.904   7.261  0.1511  1.9502 -0.6985
35521SOL    HW224174   3.513  10.999   7.171 -1.9695 -0.5376 -1.6406
35522SOL     OW24175   1.053   6.979  13.644 -0.4579 -0.4253 -0.4145
35522SOL    HW124176   1.035   6.897  13.598 -0.6205  0.0550 -1.2204
35522SOL    HW224177   1.103   7.031  13.581  0.7922 -0.4026  0.5617
35523SOL     OW24178   3.724  10.638   3.174  0.2128 -0.5576 -0.5900
35523SOL    HW124179   3.664  10.583   3.123  0.7162 -0.9898 -0.7230
35523SOL    HW224180   3.689  10.726   3.163 -1.0718 -0.9338  0.2961
35524SOL     OW24181   3.985  10.016   0.075  0.2387 -0.0078  0.1213
35524SOL    HW124182   3.978  10.079   0.147  0.4906  1.7215 -1.2828
35524SOL    HW224183   3.939  10.059   0.003  0.8561 -1.2382 -1.0335
35525SOL     OW24184   4.230   2.752   5.054 -0.1648  0.2600 -0.0864
35525SOL    HW124185   4.241   2.846   5.041 -3.4470  0.7804  0.0713
35525SOL    HW224186   4.149   2.730   5.008  2.0595 -3.2374 -2.8982
35526SOL     OW24187   7.551  13.290   7.195 -0.2185  0.0771  0.7276
35526SOL    HW124188   7.567  13.370   7.245 -0.5699  0.6240 -0.0215
35526SOL    HW224189   7.496  13.237   7.253 -0.4449  0.6088  1.0087
35527SOL     OW24190  12.894  11.623   3.364 -0.5031 -0.5292 -0.1111
35527SOL    HW124191  12.814  11.623   3.312 -0.8135 -0.2013  0.3522
35527SOL    HW224192  12.957  11.672   3.312 -0.7979 -0.2327 -0.1934
35528SOL     OW24193  11.702  13.563  13.427 -0.3642 -0.1640 -0.2520
35528SOL    HW124194  11.767  13.547  13.359 -0.0365  2.6098 -0.6908
35528SOL    HW224195  11.637  13.620  13.386 -1.0667  0.1854  1.2630
35529SOL     OW24196   6.309   3.755   3.157 -0.3433 -0.1879 -0.0574
35529SOL    HW124197   6.290   3.691   3.225  1.6630  0.9382  1.6604
35529SOL    HW224198   6.389   3.723   3.115  0.0390  0.6205  0.0529
35530SOL     OW24199   6.300   6.421   5.508 -0.4309 -0.0904  0.1227
35530SOL    HW124200   6.386   6.417   5.468 -0.4725  2.9077 -0.4389
35530SOL    HW224201   6.245   6.364   5.454  0.9358 -1.2361 -0.1060
35531SOL     OW24202   1.358  10.698  10.425  0.5547 -0.1247  0.0672
35531SOL    HW124203   1.344  10.770  10.364  1.0245 -1.8598 -2.2550
35531SOL    HW224204   1.441  10.719  10.468 -0.9258  2.2931  1.9755
35532SOL     OW24205   8.980   4.428   2.127  0.4038 -0.4250  0.1418
35532SOL    HW124206   9.054   4.391   2.079  0.7268 -1.1059  1.1513
35532SOL    HW224207   9.018   4.500   2.177  0.0549  0.3246 -0.6435
35533SOL     OW24208   1.391  12.089   4.725  0.0433  0.0429 -1.1053
35533SOL    HW124209   1.348  12.164   4.683  0.2391  0.3679 -0.7324
35533SOL    HW224210   1.470  12.126   4.765  0.4227 -0.4626 -1.3726
35534SOL     OW24211   0.719   6.334   2.178  0.0039 -0.2475  0.4592
35534SOL    HW124212   0.694   6.259   2.125 -1.1331 -0.1461  0.8400
35534SOL    HW224213   0.714   6.409   2.118 -2.0441 -0.0155  0.8532
35535SOL     OW24214   0.945   1.462   2.436  0.1386  0.2862 -0.2201
35535SOL    HW124215   0.921   1.404   2.364  0.5523  0.8671 -0.8370
35535SOL    HW224216   0.916   1.416   2.514 -3.5811  1.1539 -0.9013
35536SOL     OW24217   7.455  12.648  13.811 -0.3736 -0.3728  0.2199
35536SOL    HW124218   7.444  12.556  13.786 -0.0690 -0.3727  0.0818
35536SOL    HW224219   7.445  12.697  13.729 -0.0318 -0.3216  0.2076
35537SOL     OW24220   3.563   4.805   5.369  0.6573 -0.0893  0.7582
35537SOL    HW124221   3.531   4.790   5.458  1.4057 -1.1734  0.8694
35537SOL    HW224222   3.561   4.718   5.328  0.0876  0.4352 -0.3716
35538SOL     OW24223   5.283   2.925   9.929 -0.1122 -0.4839  0.2573
35538SOL    HW124224   5.343   2.865   9.974  0.5131  0.6023  0.9236
35538SOL    HW224225   5.207   2.872   9.908  0.4905 -1.5465  0.6819
35539SOL     OW24226   9.047   9.814   7.883 -0.7733  0.5688 -0.0743
35539SOL    HW124227   9.113   9.876   7.852  0.0490  0.5157  1.4777
35539SOL    HW224228   9.082   9.781   7.966 -1.9605 -0.7521 -0.0630
35540SOL     OW24229  11.680  10.438   2.442 -0.4446 -0.3642  0.4478
35540SOL    HW124230  11.670  10.346   2.420  1.0170 -0.8920  1.8433
35540SOL    HW224231  11.613  10.455   2.508 -2.0232  0.1332 -1.1994
35541SOL     OW24232   3.266  13.872  10.718  0.1001 -0.1398  0.7159
35541SOL    HW124233   3.198  13.912  10.772  0.1414  1.6057 -0.4373
35541SOL    HW224234   3.300  13.801  10.771 -1.7278 -0.2320  1.8519
35542SOL     OW24235  10.011  11.512   5.060 -0.0476  0.0242  0.7084
35542SOL    HW124236  10.003  11.502   5.155 -0.1208  1.0231  0.8105
35542SOL    HW224237   9.981  11.428   5.026  0.5522 -0.5695  1.5844
35543SOL     OW24238  12.069   5.896   2.083  0.4727 -0.2299  0.3244
35543SOL    HW124239  12.118   5.940   2.153  0.3670 -1.6929  1.3637
35543SOL    HW224240  12.137   5.870   2.020  0.9090 -1.1270  1.1365
35544SOL     OW24241   3.656   9.280   2.431 -0.3056  0.1168  0.0771
35544SOL    HW124242   3.618   9.270   2.344  1.1543  1.2272 -0.7303
35544SOL    HW224243   3.742   9.238   2.424 -0.4313 -0.3684  1.1962
35545SOL     OW24244   2.633   2.524   3.753 -0.1058 -0.3900 -0.1634
35545SOL    HW124245   2.690   2.480   3.690  1.2005  2.2707 -1.0291
35545SOL    HW224246   2.587   2.454   3.798  1.7173 -2.5620 -1.4767
35546SOL     OW24247   3.874  12.485   3.511 -0.0895 -0.1129 -0.5261
35546SOL    HW124248   3.879  12.403   3.562 -1.1582 -0.3925 -0.8492
35546SOL    HW224249   3.829  12.546   3.569  1.9462  0.7185  0.2714
35547SOL     OW24250   4.884  11.623   2.011 -0.2082  0.4450  0.3786
35547SOL    HW124251   4.911  11.541   1.970  0.9776  1.8436 -1.8468
35547SOL    HW224252   4.966  11.666   2.036 -0.6779  1.7704 -0.2545
35548SOL     OW24253   2.142   5.227   3.536 -0.0629  1.0031  0.0675
35548SOL    HW124254   2.099   5.142   3.550  4.2180 -1.5924 -0.4684
35548SOL    HW224255   2.100   5.262   3.457 -0.4502 -1.8989 -1.1802
35549SOL     OW24256   4.872   4.223  11.783  0.1574 -0.3773 -0.5893
35549SOL    HW124257   4.837   4.297  11.832 -1.0107  0.1124 -2.1093
35549SOL    HW224258   4.958   4.252  11.754 -1.1740  1.3715 -3.1370
35550SOL     OW24259   2.191  12.368  12.478  0.1203 -0.0332  0.2750
35550SOL    HW124260   2.271  12.363  12.530  1.0428 -0.9332 -1.1668
35550SOL    HW224261   2.221  12.373  12.387 -1.4391  1.2349 -0.2290
35551SOL     OW24262   8.985   4.342   2.710 -0.5172 -0.5567  0.1208
35551SOL    HW124263   8.955   4.404   2.777  1.4453 -2.4881  3.0231
35551SOL    HW224264   9.081   4.352   2.709 -0.3728 -1.6164 -1.3960
35552SOL     OW24265  12.372   2.971   9.074  0.3550  0.0482 -0.3262
35552SOL    HW124266  12.412   2.930   9.150  1.1785  1.3613 -0.0101
35552SOL    HW224267  12.439   3.032   9.042 -0.6030  0.7438 -1.0825
35553SOL     OW24268   5.509   0.572  11.484  0.7789  0.0432 -0.1115
35553SOL    HW124269   5.436   0.631  11.500 -0.8018 -2.3237  2.3262
35553SOL    HW224270   5.473   0.502  11.430  1.8848 -0.0683 -0.7356
35554SOL     OW24271  10.633   5.670   3.932 -0.7958  0.2933  0.0645
35554SOL    HW124272  10.727   5.678   3.912 -0.5320 -0.1862  1.0400
35554SOL    HW224273  10.602   5.760   3.937 -0.4636  0.4537 -0.5884
35555SOL     OW24274   7.225  12.524   7.671 -0.1115  0.5621 -0.4840
35555SOL    HW124275   7.297  12.508   7.611  1.6754 -1.3699  1.9487
35555SOL    HW224276   7.150  12.479   7.632  0.1529  1.8646 -2.6297
35556SOL     OW24277   1.719   3.216  10.268  0.3118  0.0217 -0.1790
35556SOL    HW124278   1.697   3.180  10.354  0.4436 -0.8119 -0.4867
35556SOL    HW224279   1.807   3.253  10.280  0.9413 -1.3488 -0.2920
35557SOL     OW24280   6.317   7.463   3.022  0.2937 -0.2705 -0.1573
35557SOL    HW124281   6.353   7.399   3.083 -1.1097 -1.0931 -0.1617
35557SOL    HW224282   6.394   7.495   2.973  1.3223 -0.2146  1.4195
35558SOL     OW24283  11.699  13.920   3.063 -0.1992  0.5197 -0.1472
35558SOL    HW124284  11.735  13.981   3.127  0.8303  2.5876 -2.5244
35558SOL    HW224285  11.621  13.963   3.030 -1.1781 -0.8905  0.2479
35559SOL     OW24286   0.471   9.177   2.629  0.6874  0.1716 -0.3017
35559SOL    HW124287   0.443   9.117   2.560 -0.6882 -0.6957  0.9525
35559SOL    HW224288   0.407   9.247   2.628 -0.6200 -0.9197  1.4197
35560SOL     OW24289   2.861   5.205   7.611  0.2736  0.6305 -0.0056
35560SOL    HW124290   2.830   5.116   7.629  1.7665  0.3607  1.4724
35560SOL    HW224291   2.811   5.260   7.670  0.9541  0.4701  0.7383
35561SOL     OW24292   3.865  10.645   1.260  0.6008 -0.8247  0.1379
35561SOL    HW124293   3.779  10.634   1.300 -0.0195 -1.1834 -1.2181
35561SOL    HW224294   3.898  10.556   1.247  1.4269 -0.6806  1.1219
35562SOL     OW24295   2.977  10.629  10.114  0.1683 -0.3694  0.0166
35562SOL    HW124296   2.900  10.605  10.063 -0.7188 -0.6362  1.4083
35562SOL    HW224297   2.941  10.668  10.194  1.5044  0.3096  0.3192
35563SOL     OW24298   0.198  10.358   5.410 -0.0653 -0.7202 -0.1485
35563SOL    HW124299   0.213  10.405   5.329 -0.4070  1.9200  1.2222
35563SOL    HW224300   0.284  10.327   5.437  0.7649  1.8088  0.3875
35564SOL     OW24301   4.116  11.107  14.011  0.2803 -0.0383 -0.1170
35564SOL    HW124302   4.100  11.096  13.917  0.1116 -0.5494 -0.0303
35564SOL    HW224303   4.030  11.126  14.048 -0.2590 -3.0459  0.3864
35565SOL     OW24304   6.294   0.773  11.660 -0.5977 -0.1709 -0.5193
35565SOL    HW124305   6.252   0.764  11.574  0.8424 -0.5507 -1.2021
35565SOL    HW224306   6.305   0.684  11.691  0.9498 -0.1648 -0.9860
35566SOL     OW24307   7.107   6.533   0.975  0.7706 -0.2953  0.4387
35566SOL    HW124308   7.141   6.457   1.022  0.4982 -1.5664 -1.3041
35566SOL    HW224309   7.025   6.554   1.019  0.0145 -2.0822 -0.0067
35567SOL     OW24310  11.018   0.255  10.333  0.8873  0.1039  0.3586
35567SOL    HW124311  11.113   0.244  10.330  0.9424  0.3339  1.2256
35567SOL    HW224312  10.984   0.173  10.295  1.4111 -0.5074  1.1746
35568SOL     OW24313  10.982  13.635   3.380  0.0401  0.2598 -0.5559
35568SOL    HW124314  11.004  13.593   3.462  0.3766  1.6698  0.1144
35568SOL    HW224315  11.066  13.648   3.336  0.0329  1.0106 -0.3552
35569SOL     OW24316   0.843  13.484  12.772 -0.0452 -0.4492  0.1400
35569SOL    HW124317   0.830  13.428  12.695  1.7352 -0.8933  0.1063
35569SOL    HW224318   0.933  13.466  12.799 -0.0205  1.0995  1.2155
35570SOL     OW24319  11.338   5.002   1.579  0.0907 -0.3879  0.0520
35570SOL    HW124320  11.292   4.980   1.498  1.7240  0.0456 -1.0506
35570SOL    HW224321  11.425   4.963   1.568  1.6224  2.7820 -0.0637
35571SOL     OW24322   2.640   8.466   2.950 -0.4745 -0.2661 -0.1047
35571SOL    HW124323   2.728   8.463   2.988  0.1003  1.2468 -1.2264
35571SOL    HW224324   2.637   8.394   2.888  0.0975 -0.1136 -0.3089
35572SOL     OW24325  10.512  10.340   4.397  0.0881  0.4417  0.1752
35572SOL    HW124326  10.590  10.319   4.449  0.5656  2.1919  0.2362
35572SOL    HW224327  10.515  10.435   4.388 -0.4710  0.2795 -2.3243
35573SOL     OW24328   0.676   4.973   4.820 -0.3387  0.1677  0.2943
35573SOL    HW124329   0.585   4.958   4.847  0.1005 -0.4127  1.5530
35573SOL    HW224330   0.721   4.892   4.845  0.3698  0.1095 -1.0936
35574SOL     OW24331   5.785   4.533  11.885  0.2484 -0.0662 -0.7025
35574SOL    HW124332   5.692   4.548  11.902  0.4827  0.8851 -0.1860
35574SOL    HW224333   5.827   4.549  11.970  1.2633  2.9492 -1.6413
35575SOL     OW24334   7.571   4.987   7.231  0.7380  0.0957  0.0187
35575SOL    HW124335   7.645   5.002   7.171  0.8878 -1.7068 -0.3039
35575SOL    HW224336   7.550   4.895   7.220  0.0242 -0.0118  1.9464
35576SOL     OW24337   0.325  12.385   6.752  0.2281 -0.3737  0.2861
35576SOL    HW124338   0.291  12.451   6.813  0.3589 -0.2662  0.2430
35576SOL    HW224339   0.383  12.330   6.805 -0.3142 -0.7948  0.4453
35577SOL     OW24340   4.544   7.003   0.436  0.0728 -0.1323  0.4051
35577SOL    HW124341   4.527   6.932   0.374  0.2016  0.4298 -0.2909
35577SOL    HW224342   4.606   7.060   0.390 -0.4490  0.7181  0.7277
35578SOL     OW24343  12.070   2.731   8.827 -0.0922 -0.5947 -0.6682
35578SOL    HW124344  12.011   2.782   8.881  0.4012  0.9385 -1.5340
35578SOL    HW224345  12.073   2.645   8.870  0.2530  0.5243  1.7159
35579SOL     OW24346   2.252   6.422   0.060  0.2178 -0.3999 -0.1482
35579SOL    HW124347   2.319   6.488   0.077 -0.5602  0.1683  0.8282
35579SOL    HW224348   2.279   6.346   0.112  0.4729 -0.4268 -0.3184
35580SOL     OW24349  13.793   9.402   8.319  0.4476  0.1773 -0.8544
35580SOL    HW124350  13.794   9.473   8.255  0.6297  1.5955  0.6655
35580SOL    HW224351  13.778   9.445   8.403  1.3753 -1.4936  0.2319
35581SOL     OW24352   4.669   6.194   7.904  0.3790 -0.3775 -0.3815
35581SOL    HW124353   4.697   6.179   7.814 -0.4132  0.2572 -0.7533
35581SOL    HW224354   4.579   6.160   7.907 -0.1392  0.9476 -0.2635
35582SOL     OW24355   0.612  10.189   7.470 -0.8886  0.4469 -0.1310
35582SOL    HW124356   0.687  10.152   7.516 -1.7393 -0.6545  0.4214
35582SOL    HW224357   0.617  10.151   7.382 -0.4869  0.8279 -0.2755
35583SOL     OW24358   5.961   0.029   2.893  0.2110  0.2001  0.1120
35583SOL    HW124359   5.887   0.088   2.881 -0.5662 -0.8798 -0.6646
35583SOL    HW224360   6.038   0.084   2.882 -0.4813  1.1561 -0.0946
35584SOL     OW24361  13.587   7.792  12.189 -0.0078  0.1695 -0.3311
35584SOL    HW124362  13.571   7.883  12.216 -0.2842  0.4315 -1.3258
35584SOL    HW224363  13.507   7.745  12.214 -0.5081  0.5338 -1.2181
35585SOL     OW24364   3.495  13.240  12.557 -0.1827 -0.2004 -0.3324
35585SOL    HW124365   3.436  13.312  12.537 -0.6651 -1.5944 -5.3230
35585SOL    HW224366   3.438  13.170  12.590 -0.3809  0.2715  0.3391
35586SOL     OW24367  12.256   5.640  10.363 -0.2834 -0.3278  0.1238
35586SOL    HW124368  12.263   5.545  10.372  0.0856 -0.1896  1.6782
35586SOL    HW224369  12.345   5.669  10.346 -0.2830 -0.2052  0.3375
35587SOL     OW24370   0.585   6.802   9.654 -0.5237  0.3495  0.5924
35587SOL    HW124371   0.557   6.710   9.651  0.2965  0.1024  0.1512
35587SOL    HW224372   0.533   6.840   9.724  0.1635 -0.8224  1.7923
35588SOL     OW24373   3.454   3.575   0.565  0.2726  0.0967  0.1833
35588SOL    HW124374   3.431   3.604   0.654  0.5333 -0.4286  0.4272
35588SOL    HW224375   3.521   3.508   0.579  0.3059  0.0051 -0.4148
35589SOL     OW24376   7.730   0.525  12.610 -0.2188  0.2706 -0.0315
35589SOL    HW124377   7.742   0.446  12.663 -0.6309 -0.8358 -1.4963
35589SOL    HW224378   7.659   0.502  12.549 -0.6995  1.9674 -0.1697
35590SOL     OW24379   7.351   3.475   3.504 -0.4858  1.0805 -0.1799
35590SOL    HW124380   7.337   3.565   3.534 -2.4011  1.3257 -1.6461
35590SOL    HW224381   7.295   3.422   3.560  0.0048  0.8857  0.1338
35591SOL     OW24382   5.402   3.358   0.289 -0.0732  0.1847  0.1120
35591SOL    HW124383   5.365   3.376   0.376 -0.2033  1.5997 -0.2110
35591SOL    HW224384   5.496   3.348   0.304 -0.1534 -0.0461  0.4733
35592SOL     OW24385  10.857  10.230  12.626  0.4214 -0.8683  0.2153
35592SOL    HW124386  10.928  10.254  12.685  1.0969 -2.4880  0.1186
35592SOL    HW224387  10.883  10.145  12.591 -1.6743 -1.6299  0.3504
35593SOL     OW24388   8.074  11.385   3.279  0.8403 -0.0320  1.0925
35593SOL    HW124389   7.983  11.355   3.279  0.0274  2.2541  0.3758
35593SOL    HW224390   8.104  11.373   3.189  0.0037  2.4694  0.3841
35594SOL     OW24391   7.991   3.372  13.950 -0.1395  0.0573  0.0936
35594SOL    HW124392   7.972   3.458  13.987  3.8557  1.0731  0.1766
35594SOL    HW224393   8.085   3.373  13.931 -0.1210 -3.8970 -1.0348
35595SOL     OW24394  12.204   3.365   6.383  0.8634  0.5847 -0.3894
35595SOL    HW124395  12.157   3.284   6.402  1.0503  0.7217  0.7160
35595SOL    HW224396  12.292   3.335   6.357  1.3329  0.4359  1.2240
35596SOL     OW24397  13.001   1.527   3.244 -0.6282  0.2442  0.3523
35596SOL    HW124398  12.917   1.511   3.288 -0.5092  1.7763  1.1867
35596SOL    HW224399  13.035   1.607   3.284  0.8437  0.1219 -0.5693
35597SOL     OW24400   6.353  10.799  13.792  0.3818 -0.0728  0.3459
35597SOL    HW124401   6.329  10.718  13.748  0.2060  0.3212 -0.2966
35597SOL    HW224402   6.444  10.814  13.767 -0.1932  1.0105 -1.2733
35598SOL     OW24403   3.586   2.898   0.392 -0.1865  0.4198  0.5319
35598SOL    HW124404   3.493   2.921   0.387 -0.0806  1.0266  1.1265
35598SOL    HW224405   3.602   2.885   0.486  0.4876  1.0372  0.5147
35599SOL     OW24406  13.603   9.008  13.337 -0.0134 -0.5626 -0.6512
35599SOL    HW124407  13.512   9.007  13.368 -0.3559  0.9230 -1.4993
35599SOL    HW224408  13.653   9.041  13.411 -0.4712  0.5573 -0.8203
35600SOL     OW24409   1.705   4.952   7.400 -0.0818  0.5750  0.8150
35600SOL    HW124410   1.611   4.966   7.410 -0.2343 -0.1794  0.4934
35600SOL    HW224411   1.714   4.859   7.379  0.8079  0.4218  1.7711
35601SOL     OW24412   0.029   4.896  12.688 -0.0106 -0.2176  0.2849
35601SOL    HW124413   0.102   4.923  12.743 -0.2609  0.4051  0.3160
35601SOL    HW224414   0.066   4.831  12.628  0.9538  1.2418 -0.7647
35602SOL     OW24415  13.788   5.755   7.577 -0.0728 -0.8793  0.2046
35602SOL    HW124416  13.703   5.797   7.592  0.0323 -0.1480 -1.0858
35602SOL    HW224417  13.772   5.696   7.503  0.4448 -1.0934  0.2590
35603SOL     OW24418   1.426  11.019  11.522  0.0884 -0.7755 -0.0946
35603SOL    HW124419   1.496  11.024  11.587  0.4220 -2.5895 -0.2665
35603SOL    HW224420   1.460  11.065  11.445  0.5579 -0.5216  0.2587
35604SOL     OW24421   1.951  10.447  10.192  0.0252 -0.1211 -0.5280
35604SOL    HW124422   2.039  10.430  10.225  0.1779  0.3118 -0.7104
35604SOL    HW224423   1.899  10.372  10.223 -0.1984  0.9933  2.0313
35605SOL     OW24424   1.532   7.720   5.814 -0.1494  0.5828 -0.2919
35605SOL    HW124425   1.530   7.814   5.796  0.6073  0.5536 -0.5414
35605SOL    HW224426   1.465   7.708   5.882 -0.5771  1.2258 -0.5901
35606SOL     OW24427   6.848  10.777   7.866 -0.0155  0.3433  0.1818
35606SOL    HW124428   6.886  10.797   7.952 -0.9947  2.4076  0.1963
35606SOL    HW224429   6.754  10.791   7.878 -0.1458  0.8029 -1.2528
35607SOL     OW24430   7.239  13.625   7.740  0.0335  0.0749 -0.0389
35607SOL    HW124431   7.177  13.597   7.807  1.0290  0.4777  1.0841
35607SOL    HW224432   7.227  13.720   7.736  1.3432  0.3037  1.0027
35608SOL     OW24433   1.985   2.890   4.229 -0.1497  0.1734  0.1083
35608SOL    HW124434   1.954   2.934   4.308  2.2063 -1.8880  2.3462
35608SOL    HW224435   1.914   2.830   4.206 -0.8190  0.7326  0.6631
35609SOL     OW24436   2.050   1.235   0.049  0.3390 -0.5306  0.7064
35609SOL    HW124437   1.956   1.234   0.031  0.6538 -1.2947 -1.1155
35609SOL    HW224438   2.084   1.161  -0.001  2.2388  1.0929 -0.5215
35610SOL     OW24439   0.053   3.219   5.765  0.7967  0.2251 -0.1484
35610SOL    HW124440  -0.009   3.156   5.802  0.4477  0.9202  0.4604
35610SOL    HW224441   0.139   3.185   5.789  0.6528 -0.5577 -0.6981
35611SOL     OW24442   5.327  10.638   0.131  0.5413  0.2503  0.0096
35611SOL    HW124443   5.323  10.580   0.207  3.6161 -1.2993 -0.8268
35611SOL    HW224444   5.290  10.586   0.060 -0.8098  1.0758  0.0775
35612SOL     OW24445  13.840  14.078   8.394 -0.3949  0.2335 -0.0552
35612SOL    HW124446  13.775  14.012   8.415 -0.3434  0.4150  0.6794
35612SOL    HW224447  13.795  14.162   8.405 -0.0069  0.3621  0.5607
35613SOL     OW24448   6.081  11.551   3.967  0.6496  0.5183  0.6946
35613SOL    HW124449   6.128  11.518   3.891  0.7337  1.6119  0.2576
35613SOL    HW224450   6.113  11.498   4.040 -0.8855 -1.9032 -0.2817
35614SOL     OW24451   9.147  10.477   3.727  0.1081  0.5893 -0.5244
35614SOL    HW124452   9.173  10.422   3.653  0.6217  0.8936 -0.5781
35614SOL    HW224453   9.059  10.506   3.706 -0.8381 -1.5042  0.2618
35615SOL     OW24454   7.414   2.236   1.564 -0.2103 -0.1280  0.0157
35615SOL    HW124455   7.462   2.296   1.507  1.9981  0.1122  1.9654
35615SOL    HW224456   7.479   2.172   1.592 -1.5198 -0.9952  1.2243
35616SOL     OW24457  10.480  12.751   2.392 -0.1556 -0.2693  0.2533
35616SOL    HW124458  10.471  12.699   2.311  1.7728  0.4326 -0.4696
35616SOL    HW224459  10.436  12.834   2.372 -2.3625 -1.1663  1.0598
35617SOL     OW24460   1.416   1.503  12.530  0.2865 -0.1381 -0.0145
35617SOL    HW124461   1.465   1.452  12.594  0.0154 -0.6112 -0.1847
35617SOL    HW224462   1.479   1.569  12.500  1.9736 -2.7112 -2.6699
35618SOL     OW24463   5.340   0.817   9.116 -0.1007  0.8121 -0.0644
35618SOL    HW124464   5.323   0.777   9.201  1.9161  0.2762  0.1296
35618SOL    HW224465   5.299   0.757   9.053 -1.4499  1.1246  0.4726
35619SOL     OW24466   9.711   2.348   7.950 -0.3760  0.2400 -0.5835
35619SOL    HW124467   9.802   2.371   7.929  0.4375 -2.2541 -0.1770
35619SOL    HW224468   9.710   2.338   8.045 -1.5797  2.0143 -0.3741
35620SOL     OW24469  12.515  11.933   3.803  0.1090  0.5268  0.6449
35620SOL    HW124470  12.479  11.887   3.879 -1.6962 -0.2375 -0.6270
35620SOL    HW224471  12.610  11.917   3.809  0.1787  1.5078  3.3667
35621SOL     OW24472   1.200   4.593   8.757 -0.1954  0.2625  0.3144
35621SOL    HW124473   1.138   4.648   8.709 -1.1805 -1.6613 -0.7653
35621SOL    HW224474   1.283   4.604   8.710 -0.7645 -0.3355 -0.8913
35622SOL     OW24475   6.930   4.899  12.037 -0.4370  0.4971 -0.0598
35622SOL    HW124476   7.013   4.944  12.019 -0.6710  0.9047 -0.1365
35622SOL    HW224477   6.954   4.828  12.096  0.0981  0.0747 -0.7697
35623SOL     OW24478   6.511  11.470  11.575  0.4172  0.1628  0.1388
35623SOL    HW124479   6.513  11.432  11.487 -0.8317  0.1313  0.1078
35623SOL    HW224480   6.589  11.525  11.579  2.0818 -2.0513  0.0546
35624SOL     OW24481   7.688  13.247   5.102 -0.0555 -0.1972 -0.1629
35624SOL    HW124482   7.617  13.220   5.160  0.3741 -0.1527  0.3841
35624SOL    HW224483   7.656  13.226   5.014 -1.3494  1.1401 -0.0448
35625SOL     OW24484   2.434  10.262   6.172  0.0868  0.6622 -0.0989
35625SOL    HW124485   2.482  10.297   6.097 -0.8964 -0.1129 -1.1345
35625SOL    HW224486   2.468  10.174   6.184 -1.1610  0.0254 -0.9813
35626SOL     OW24487   7.729   5.488  13.099  0.3565 -0.3457 -0.0958
35626SOL    HW124488   7.769   5.574  13.091  0.7579 -0.1962  2.5644
35626SOL    HW224489   7.639   5.500  13.068  0.5086  0.9321 -0.0846
35627SOL     OW24490   5.012   9.933  11.718 -0.4979 -0.7355  0.4579
35627SOL    HW124491   4.933   9.922  11.772 -1.7079  0.0834 -1.0561
35627SOL    HW224492   5.038   9.843  11.697 -2.2485 -1.0387 -0.6570
35628SOL     OW24493   1.605   2.083  10.491 -0.4289  0.2236 -0.0099
35628SOL    HW124494   1.609   1.989  10.474 -0.7153  0.5181 -1.8861
35628SOL    HW224495   1.677   2.099  10.552 -0.1131 -1.1469  0.0107
35629SOL     OW24496   4.910   9.557   8.680 -0.7798  0.3247 -0.5341
35629SOL    HW124497   4.941   9.483   8.733 -1.8013  1.0755  1.2096
35629SOL    HW224498   4.868   9.517   8.604 -0.3567 -0.8402 -0.1745
35630SOL     OW24499   0.446   4.418   6.277  0.4253  0.5158 -0.8100
35630SOL    HW124500   0.516   4.453   6.333 -0.7718 -0.1435  1.2067
35630SOL    HW224501   0.384   4.491   6.269  0.9733  0.8787 -2.0360
35631SOL     OW24502  11.608   0.243   8.208 -0.8715 -0.0000 -0.2145
35631SOL    HW124503  11.604   0.160   8.160 -0.8315 -1.0003  1.4293
35631SOL    HW224504  11.694   0.243   8.249 -1.9174 -0.6037  2.1850
35632SOL     OW24505   3.478  13.127   2.506 -1.0014  0.4095  0.4800
35632SOL    HW124506   3.416  13.059   2.480 -0.4617 -0.0280  0.3138
35632SOL    HW224507   3.503  13.105   2.596 -0.7282  0.3077  0.3812
35633SOL     OW24508   9.070  12.574  10.780 -0.1350  0.4298  0.2793
35633SOL    HW124509   9.069  12.478  10.776 -1.6294  0.4419 -0.6837
35633SOL    HW224510   9.162  12.598  10.771  0.4952 -0.9371  2.3214
35634SOL     OW24511   1.129   6.268   6.675 -0.2034 -0.2248  0.0343
35634SOL    HW124512   1.211   6.261   6.722 -0.7863 -0.4417  1.0440
35634SOL    HW224513   1.130   6.356   6.638  0.0188  0.1636  0.9423
35635SOL     OW24514   0.468   1.300   4.430 -0.0898  0.6952 -0.0482
35635SOL    HW124515   0.437   1.333   4.514  0.8669  1.5430 -0.0124
35635SOL    HW224516   0.409   1.226   4.410  0.6417 -0.5644  2.1078
35636SOL     OW24517   7.922   6.142   1.680  0.0923 -0.0875 -0.3336
35636SOL    HW124518   7.978   6.067   1.698 -0.7722 -0.5626  0.5192
35636SOL    HW224519   7.921   6.192   1.762 -1.9134 -0.9259  0.2302
35637SOL     OW24520   0.568  10.688   5.762 -0.2724 -0.4659  0.1775
35637SOL    HW124521   0.635  10.620   5.767 -0.3599 -0.6784 -1.3782
35637SOL    HW224522   0.545  10.694   5.670  0.9212  2.8026 -0.0357
35638SOL     OW24523   4.420   8.041   5.684 -0.3312 -0.1150 -0.5084
35638SOL    HW124524   4.496   8.053   5.627 -0.8096  1.8601 -0.8040
35638SOL    HW224525   4.427   7.951   5.715  2.7477  0.3223  0.3764
35639SOL     OW24526  12.994  13.677  13.203 -0.3526  0.1273 -0.3381
35639SOL    HW124527  13.034  13.680  13.115 -0.0106  1.0481 -0.1627
35639SOL    HW224528  13.058  13.721  13.259 -0.6194 -0.3693  0.3586
35640SOL     OW24529   0.488   2.229  11.058  0.3466  0.5867  0.0262
35640SOL    HW124530   0.404   2.223  11.012  0.4108  0.7879 -0.1198
35640SOL    HW224531   0.534   2.148  11.036  1.2440  1.5632 -1.9881
35641SOL     OW24532   7.019   9.535  13.190 -0.4173 -0.0254 -0.5158
35641SOL    HW124533   6.964   9.508  13.263  0.2627  0.8815  0.3575
35641SOL    HW224534   7.015   9.630  13.191 -0.8565 -0.0063 -2.0410
35642SOL     OW24535   3.387   3.656   3.280 -0.1280  0.3135  0.1267
35642SOL    HW124536   3.431   3.728   3.326 -0.4216  0.5875 -0.0193
35642SOL    HW224537   3.381   3.687   3.189 -2.1609  1.0188  0.4559
35643SOL     OW24538  11.414   5.539  13.412  0.3056  0.5018  0.3308
35643SOL    HW124539  11.464   5.483  13.352  0.6152  0.5409  0.5511
35643SOL    HW224540  11.454   5.625  13.403 -0.7251  0.8955 -0.6525
35644SOL     OW24541  12.567  13.395  13.234  0.4634  0.0537 -0.8254
35644SOL    HW124542  12.585  13.370  13.325 -0.0895 -0.1619 -0.7736
35644SOL    HW224543  12.652  13.422  13.199  0.5032  1.1876  0.0783
35645SOL     OW24544   8.014  12.374  10.256 -0.3921 -0.0488 -0.0624
35645SOL    HW124545   8.050  12.449  10.209 -0.0765 -0.0300  0.2035
35645SOL    HW224546   7.960  12.329  10.191  0.8220 -0.5777 -0.7403
35646SOL     OW24547   5.060   1.149   4.701 -0.4166  0.2674 -1.0189
35646SOL    HW124548   5.150   1.120   4.719 -0.3681 -0.3344 -2.1315
35646SOL    HW224549   5.062   1.243   4.720 -0.0321 -0.0409  0.6609
35647SOL     OW24550   9.585   9.101   2.481  0.3120  0.2130 -0.1181
35647SOL    HW124551   9.593   9.162   2.408 -0.5379 -1.3764 -1.6220
35647SOL    HW224552   9.532   9.029   2.446  0.1712 -0.7727  1.9751
35648SOL     OW24553   4.097   4.720   0.560  0.1484 -0.4964  0.1300
35648SOL    HW124554   4.185   4.687   0.579  0.1364 -0.8509 -0.4034
35648SOL    HW224555   4.104   4.759   0.473 -0.5317 -1.7276 -0.4960
35649SOL     OW24556   1.869   4.148   3.430 -0.1983  0.2218  0.1859
35649SOL    HW124557   1.853   4.054   3.438 -0.3565  0.3151  1.0603
35649SOL    HW224558   1.955   4.161   3.469 -0.6924  0.6004  1.1873
35650SOL     OW24559   4.234   5.408   6.476 -0.0746 -0.5465 -0.2367
35650SOL    HW124560   4.293   5.369   6.540  0.1387  1.2353  0.7194
35650SOL    HW224561   4.151   5.363   6.488  0.6028 -1.8665 -0.3765
35651SOL     OW24562   5.187   6.858   6.986  0.6359  0.0557  0.0359
35651SOL    HW124563   5.152   6.909   6.914  2.7391 -0.5600 -1.5188
35651SOL    HW224564   5.225   6.922   7.045 -0.0647  0.4912  0.0223
35652SOL     OW24565   5.284   3.059  12.202 -0.4999 -0.6574  0.2243
35652SOL    HW124566   5.315   3.120  12.269 -0.1283 -0.9269  0.2994
35652SOL    HW224567   5.262   2.980  12.250 -0.3721 -0.8014  0.0474
35653SOL     OW24568   7.936   3.482   7.307 -0.0286 -0.3027  0.1043
35653SOL    HW124569   7.880   3.556   7.328 -0.4622 -0.8677  0.9756
35653SOL    HW224570   7.876   3.411   7.285  0.1205 -1.7245  3.6067
35654SOL     OW24571   3.159   3.461   1.175 -0.6322 -0.8728  0.1869
35654SOL    HW124572   3.119   3.407   1.107  0.4348  0.8642 -1.9597
35654SOL    HW224573   3.119   3.547   1.165  1.4706  0.1471 -0.1305
35655SOL     OW24574   0.986  11.267   2.186 -0.7225  0.3264  0.8312
35655SOL    HW124575   1.038  11.213   2.127 -1.2506  0.0496  0.6111
35655SOL    HW224576   1.047  11.333   2.219  0.5762 -1.7872  2.9225
35656SOL     OW24577  10.756   7.821   5.974  0.4488  0.2441  0.1887
35656SOL    HW124578  10.675   7.824   5.922 -0.9254  1.0694  2.2355
35656SOL    HW224579  10.753   7.901   6.027  2.1567 -0.1735  0.9868
35657SOL     OW24580   6.384  12.867   2.591 -0.1739 -0.2057 -0.8522
35657SOL    HW124581   6.454  12.921   2.628 -0.4197 -1.0747  0.9754
35657SOL    HW224582   6.312  12.928   2.576  0.4945  0.4508 -1.4932
35658SOL     OW24583  13.624   5.942   5.710 -0.1793 -0.6185  0.4091
35658SOL    HW124584  13.569   6.020   5.713  2.3326  1.2450  2.0267
35658SOL    HW224585  13.565   5.870   5.734 -2.2712  0.9648  0.2891
35659SOL     OW24586  11.692   7.837   6.736 -0.3363  0.4080  0.2037
35659SOL    HW124587  11.700   7.796   6.822 -1.3814  0.3656  0.2981
35659SOL    HW224588  11.642   7.917   6.752  0.8403  1.2307 -0.1321
35660SOL     OW24589   5.129   6.045  13.378  0.1041 -0.1412 -0.4454
35660SOL    HW124590   5.212   6.045  13.427 -1.0999  1.6204  1.8017
35660SOL    HW224591   5.155   6.064  13.288  2.1367  0.8046  0.2670
35661SOL     OW24592   8.625   0.176   6.837 -0.7487 -0.4862 -0.0736
35661SOL    HW124593   8.660   0.086   6.837 -1.9530 -0.9938  1.2879
35661SOL    HW224594   8.556   0.174   6.903 -1.8494  1.0540 -1.1322
35662SOL     OW24595  13.069  13.300   2.826  0.0513  0.0639 -0.0063
35662SOL    HW124596  13.110  13.367   2.882  1.3583 -0.1601 -0.6483
35662SOL    HW224597  12.983  13.285   2.865 -0.3432  2.2255  0.0698
35663SOL     OW24598   3.792   7.090   4.292 -0.1470 -0.0131  0.3445
35663SOL    HW124599   3.707   7.119   4.324  0.7513  1.2533  1.7787
35663SOL    HW224600   3.817   7.155   4.226  0.7420  1.1173  1.7178
35664SOL     OW24601   4.493   5.411   8.478 -0.0358 -0.5024  0.2718
35664SOL    HW124602   4.415   5.431   8.529 -0.0565  0.1816 -0.0116
35664SOL    HW224603   4.469   5.436   8.388  1.1642  1.6727  0.4758
35665SOL     OW24604  12.479  10.226   6.623 -0.5270  0.2432 -0.0210
35665SOL    HW124605  12.558  10.173   6.615 -0.8076 -0.3984  1.2434
35665SOL    HW224606  12.502  10.294   6.686 -1.1023 -0.1785  0.6476
35666SOL     OW24607  11.566   5.596   9.128 -0.8821  0.0916 -0.1365
35666SOL    HW124608  11.525   5.622   9.210  0.6982  1.1396  0.3824
35666SOL    HW224609  11.611   5.676   9.098  0.6309 -0.9426 -0.7193
35667SOL     OW24610   7.875  13.543   7.302 -0.8595 -0.1053 -0.3158
35667SOL    HW124611   7.781  13.527   7.308 -0.6369 -0.9317  4.7806
35667SOL    HW224612   7.914  13.455   7.303  0.0716  0.2610 -1.5277
35668SOL     OW24613   9.819  10.732   9.627 -0.3855 -0.5673  0.2545
35668SOL    HW124614   9.724  10.726   9.629 -0.3235 -2.0049  0.0894
35668SOL    HW224615   9.848  10.645   9.596  0.9918 -0.3656  0.9015
35669SOL     OW24616   7.353  14.002   3.402  0.3301 -0.1299  0.3977
35669SOL    HW124617   7.321  14.048   3.325 -1.1595 -2.2158 -0.3497
35669SOL    HW224618   7.435  13.961   3.374  1.2421  1.3129  0.8273
35670SOL     OW24619   6.612   1.108   9.788 -0.1621  0.0394 -0.0532
35670SOL    HW124620   6.583   1.059   9.711  2.1744 -0.7459 -0.5135
35670SOL    HW224621   6.604   1.200   9.761  0.5270 -0.2164 -1.2361
35671SOL     OW24622   9.134  11.238   7.861  0.6431 -0.1926 -0.3377
35671SOL    HW124623   9.128  11.270   7.771 -0.0747  0.0862 -0.1983
35671SOL    HW224624   9.078  11.160   7.862  2.7353 -1.7752 -0.7973
35672SOL     OW24625   6.212   1.801   2.014  0.3278 -0.4601 -0.6882
35672SOL    HW124626   6.240   1.790   1.923 -1.5462 -0.0181 -1.3448
35672SOL    HW224627   6.132   1.750   2.021  0.4384 -0.4780  0.7278
35673SOL     OW24628   7.704   2.001   6.551  0.3522 -0.0390  0.4346
35673SOL    HW124629   7.769   1.978   6.617  1.0562 -3.1381 -1.1452
35673SOL    HW224630   7.721   2.093   6.531  1.7721  0.2607  2.6829
35674SOL     OW24631   1.593   9.379   4.697  0.3981 -0.2637 -0.1243
35674SOL    HW124632   1.592   9.287   4.723  1.2203 -1.0464 -2.6284
35674SOL    HW224633   1.501   9.403   4.688  0.0981 -0.2045  2.3828
35675SOL     OW24634   8.468   2.806   5.077  0.2636  0.3217  0.3543
35675SOL    HW124635   8.527   2.875   5.107 -0.1971  0.2103  1.5796
35675SOL    HW224636   8.517   2.725   5.093 -0.0880  0.2456  1.1286
35676SOL     OW24637   6.306  13.911   7.738 -0.0481 -0.1767 -0.4616
35676SOL    HW124638   6.280  13.832   7.786  0.8682  0.9114  2.0376
35676SOL    HW224639   6.262  13.983   7.785 -0.6933  0.8507 -2.5269
35677SOL     OW24640   1.234   2.408  12.396  0.2402  0.4178  0.0177
35677SOL    HW124641   1.148   2.449  12.406 -0.7235 -1.6954  1.1587
35677SOL    HW224642   1.275   2.417  12.482  1.3255  1.6900 -0.6097
35678SOL     OW24643   8.172  12.344   4.975 -0.2892 -0.6287 -0.9744
35678SOL    HW124644   8.101  12.363   5.037 -0.7719 -0.0727 -1.6827
35678SOL    HW224645   8.132  12.353   4.889  0.7596  0.1944 -1.3968
35679SOL     OW24646   7.145   4.545   5.271  0.5950  0.1692 -0.0078
35679SOL    HW124647   7.157   4.594   5.353 -0.8102  1.6473 -0.6435
35679SOL    HW224648   7.072   4.486   5.289  0.7540 -0.0270  0.0060
35680SOL     OW24649   3.903   2.606   5.777  0.1654  0.1571 -0.2120
35680SOL    HW124650   3.896   2.516   5.808  2.1005 -0.5393 -1.5969
35680SOL    HW224651   3.823   2.621   5.727 -0.2139 -0.7711  0.1005
35681SOL     OW24652   0.668   0.311   6.786  0.2414  0.1622 -0.4746
35681SOL    HW124653   0.658   0.217   6.794  0.3669  0.0745 -1.2697
35681SOL    HW224654   0.579   0.344   6.773 -0.0060  0.3411  1.4211
35682SOL     OW24655  12.204   1.300   5.090  0.1156  0.1686  0.1139
35682SOL    HW124656  12.269   1.282   5.023 -0.2156  0.2178 -0.2221
35682SOL    HW224657  12.140   1.357   5.047  1.4299  2.7400  1.2891
35683SOL     OW24658  10.234  13.064   4.862 -0.3445  0.4260 -0.7879
35683SOL    HW124659  10.183  13.142   4.840 -0.7055 -0.2875 -2.6644
35683SOL    HW224660  10.193  13.029   4.941 -1.5495  0.9358 -1.1766
35684SOL     OW24661   0.123  10.969   7.899 -0.2109  0.1512  0.7890
35684SOL    HW124662   0.206  10.986   7.944  0.1576 -0.0263  0.1832
35684SOL    HW224663   0.109  10.875   7.908 -1.5665  0.4997  2.9578
35685SOL     OW24664  10.077  12.389   2.262 -0.3934  0.4537  0.3294
35685SOL    HW124665  10.137  12.401   2.336  0.0563 -0.7068  0.1699
35685SOL    HW224666  10.079  12.295   2.244 -1.0741  0.6151 -0.6798
35686SOL     OW24667   6.791   4.063   4.868  0.0339 -0.2410  0.0382
35686SOL    HW124668   6.874   4.067   4.821 -0.2144 -1.3270 -0.4999
35686SOL    HW224669   6.743   4.141   4.838 -0.0706 -0.8393 -1.4233
35687SOL     OW24670  13.418   5.617  13.701 -0.0925  0.9086 -0.1307
35687SOL    HW124671  13.474   5.561  13.648  0.1269  0.1467  0.8810
35687SOL    HW224672  13.330   5.606  13.664 -0.1065 -0.3530  0.2469
35688SOL     OW24673   5.091   0.990   8.654 -0.3293  0.1075  0.4892
35688SOL    HW124674   5.014   0.982   8.710  0.8163 -0.9953  2.0153
35688SOL    HW224675   5.143   0.912   8.673  0.9510  0.5804 -0.8315
35689SOL     OW24676   3.654   5.202   7.408 -0.1713 -0.0864 -0.0137
35689SOL    HW124677   3.645   5.141   7.482  0.7057  1.3524  1.3452
35689SOL    HW224678   3.726   5.167   7.356 -0.4765 -0.8532  0.0636
35690SOL     OW24679  10.901   7.056   3.344  0.2359 -0.7165 -0.1990
35690SOL    HW124680  10.971   7.025   3.401 -0.4061 -0.5252  0.7223
35690SOL    HW224681  10.906   7.000   3.266  1.1440 -0.9672  0.0275
35691SOL     OW24682  13.151   0.512   9.751  0.3107  0.0744  0.0870
35691SOL    HW124683  13.153   0.603   9.724 -0.8299  0.6343  1.7291
35691SOL    HW224684  13.111   0.513   9.838 -1.0507 -2.1190 -0.4145
35692SOL     OW24685   8.928   4.871   1.438 -0.0229  0.5142  0.1849
35692SOL    HW124686   8.893   4.787   1.468  1.3691 -0.0063  0.4164
35692SOL    HW224687   8.913   4.870   1.343 -1.1664  0.5890  0.3448
35693SOL     OW24688  12.368   8.787  13.552  0.9557 -0.2450 -0.2441
35693SOL    HW124689  12.411   8.757  13.472  0.3405 -0.7303 -0.4074
35693SOL    HW224690  12.381   8.715  13.614 -0.1581 -0.6877 -0.5005
35694SOL     OW24691  10.945   2.261   2.547  0.0334 -0.0769  0.2968
35694SOL    HW124692  10.995   2.260   2.629 -1.0802  1.2294  1.0406
35694SOL    HW224693  10.875   2.198   2.561  1.1310 -1.5719 -0.5758
35695SOL     OW24694   0.974   1.394  11.915 -0.5669  0.5438 -0.2927
35695SOL    HW124695   1.049   1.336  11.919 -1.4431 -1.0498 -3.4188
35695SOL    HW224696   0.898   1.337  11.929 -1.3227  1.6943  0.5439
35696SOL     OW24697   3.050  10.417   5.217  0.1239  0.3425  0.2150
35696SOL    HW124698   3.075  10.506   5.193  0.6636  0.6229  1.7059
35696SOL    HW224699   2.973  10.427   5.273  0.7779 -0.0388  1.2070
35697SOL     OW24700  11.689   6.716   2.213 -0.1072 -0.6883  0.1357
35697SOL    HW124701  11.780   6.688   2.201 -0.4502 -1.0801 -2.1384
35697SOL    HW224702  11.693   6.811   2.210  0.1741 -0.7160 -0.6625
35698SOL     OW24703  11.270  13.728   1.115  0.0022  0.2119 -0.2683
35698SOL    HW124704  11.289  13.741   1.208 -0.6011  1.9019 -0.3445
35698SOL    HW224705  11.355  13.712   1.075  0.0936 -2.5761  0.8179
35699SOL     OW24706   7.050   8.133   0.564 -0.2172  0.3599  0.1829
35699SOL    HW124707   7.061   8.104   0.654 -0.2465 -0.1111  0.0388
35699SOL    HW224708   7.139   8.151   0.534 -0.0114 -1.2046 -0.2457
35700SOL     OW24709   0.685   4.997  12.956  0.4047  0.0278  0.1966
35700SOL    HW124710   0.626   5.047  13.012  0.5559  1.1264 -0.5954
35700SOL    HW224711   0.766   4.990  13.008  0.1788  0.0744  0.5586
35701SOL     OW24712   8.821   1.036   7.514 -0.2446 -0.1733  0.6152
35701SOL    HW124713   8.892   1.100   7.522 -0.6735  0.3830  0.0918
35701SOL    HW224714   8.790   1.023   7.603  0.7994 -0.7572  0.9060
35702SOL     OW24715  11.238   3.804   7.175  0.1422 -0.5446  0.5616
35702SOL    HW124716  11.270   3.714   7.186  3.2412  0.5804  1.9568
35702SOL    HW224717  11.299   3.843   7.112 -0.7165  0.7980  0.5270
35703SOL     OW24718   3.004   3.422   5.837  0.1396  0.0509 -0.1722
35703SOL    HW124719   2.944   3.449   5.767 -0.1526 -0.3471 -0.0804
35703SOL    HW224720   2.968   3.339   5.869  1.2894 -0.7284 -0.8071
35704SOL     OW24721  11.887   9.258   3.886 -0.0074 -0.1879 -0.5119
35704SOL    HW124722  11.884   9.167   3.917 -1.7471  0.6533  2.1055
35704SOL    HW224723  11.966   9.294   3.926 -0.2238 -0.1087 -0.1524
35705SOL     OW24724  11.345   4.393  10.776 -0.2580  0.1041 -0.3901
35705SOL    HW124725  11.383   4.317  10.821  0.1047 -0.8901 -2.2731
35705SOL    HW224726  11.252   4.392  10.802 -0.0980 -0.5170  0.1977
35706SOL     OW24727   1.282   8.935  10.923 -0.7872 -0.8773  0.5320
35706SOL    HW124728   1.274   9.030  10.925  1.6947 -0.5956  1.6506
35706SOL    HW224729   1.355   8.919  10.863  0.3276 -1.8517  2.0615
35707SOL     OW24730   1.462   5.354   4.657  0.0020 -0.1196 -0.5935
35707SOL    HW124731   1.553   5.327   4.672  0.0757  0.2220 -0.3998
35707SOL    HW224732   1.410   5.278   4.684  0.1835  0.0736  0.3543
35708SOL     OW24733  12.723  10.444   3.824  0.6701 -0.0717  0.3039
35708SOL    HW124734  12.683  10.406   3.902  0.3741 -1.8879 -0.6628
35708SOL    HW224735  12.664  10.516   3.799 -0.2936 -0.7148  0.6705
35709SOL     OW24736   3.523   2.104   6.541 -0.1433 -0.4155  0.4422
35709SOL    HW124737   3.479   2.180   6.503 -0.9474 -0.6621  0.8668
35709SOL    HW224738   3.541   2.047   6.466 -0.0639 -0.0765  0.1981
35710SOL     OW24739   4.131   9.807   5.943  0.4263 -0.4143 -0.0869
35710SOL    HW124740   4.139   9.889   5.992 -1.0299  0.3055 -0.9649
35710SOL    HW224741   4.098   9.834   5.857  0.3738 -1.8769 -0.5558
35711SOL     OW24742   4.042   1.714   6.802 -0.2312  0.0779 -0.3175
35711SOL    HW124743   4.113   1.651   6.815 -0.7618 -0.6172 -0.7418
35711SOL    HW224744   4.080   1.781   6.745 -0.0981 -0.6251 -1.0660
35712SOL     OW24745   0.001  11.525   5.807 -0.3232  0.1946 -0.3443
35712SOL    HW124746  -0.011  11.430   5.809 -0.9455  0.2649  2.1351
35712SOL    HW224747  -0.087  11.561   5.820  0.0871  1.0948  0.0470
35713SOL     OW24748  10.272   6.869  13.223  0.2274 -0.3305 -0.7019
35713SOL    HW124749  10.220   6.901  13.149  2.0677  0.2874 -1.8062
35713SOL    HW224750  10.291   6.947  13.275  0.1246 -0.5425 -0.3400
35714SOL     OW24751   1.936   9.731  11.138 -0.1658  0.1341  0.5657
35714SOL    HW124752   1.904   9.773  11.058 -0.7790  1.8383  1.6491
35714SOL    HW224753   2.027   9.709  11.118  0.2794  2.2373 -0.0333
35715SOL     OW24754  11.210   7.436  12.833  0.0262  0.1302  0.5562
35715SOL    HW124755  11.223   7.516  12.885  0.8233 -0.2363  0.9478
35715SOL    HW224756  11.117   7.436  12.811 -0.4629  0.0608  2.4144
35716SOL     OW24757  12.779   5.531  10.058 -0.3105 -0.5075  0.8320
35716SOL    HW124758  12.874   5.541  10.051 -0.2576 -0.3251  1.6527
35716SOL    HW224759  12.749   5.513   9.969  0.8389 -3.4875  0.9607
35717SOL     OW24760   3.387   6.394   5.533 -0.1620 -0.2547 -0.1496
35717SOL    HW124761   3.371   6.436   5.617 -0.9049  1.8082 -1.2648
35717SOL    HW224762   3.306   6.348   5.513 -0.3952  0.1856 -0.2352
35718SOL     OW24763   5.052   9.931  10.464  0.3536 -0.2276 -0.3833
35718SOL    HW124764   5.135   9.894  10.432 -0.4156 -2.6169  0.2162
35718SOL    HW224765   5.064   9.936  10.559  1.0092  2.7025 -0.5354
35719SOL     OW24766   5.028  13.394   7.602  0.6376  0.6219 -0.1500
35719SOL    HW124767   5.036  13.464   7.667  3.8383  1.0911 -0.8570
35719SOL    HW224768   5.068  13.318   7.643 -0.5430 -0.1238 -0.3219
35720SOL     OW24769   6.700  13.218  11.769  0.9547  0.2833 -0.1654
35720SOL    HW124770   6.608  13.198  11.783  0.7094  2.1368  1.3710
35720SOL    HW224771   6.719  13.187  11.681 -1.2824  0.3577 -0.7278
35721SOL     OW24772  12.905   4.758   5.142 -0.4211  0.1708  0.6672
35721SOL    HW124773  12.818   4.794   5.122 -1.5019 -2.3191  0.4989
35721SOL    HW224774  12.887   4.685   5.202  1.5315 -0.5583  0.4168
35722SOL     OW24775   6.996   5.778   4.461 -0.5815 -0.6905 -0.2403
35722SOL    HW124776   7.039   5.843   4.405 -2.5114  0.5693 -0.3578
35722SOL    HW224777   7.002   5.815   4.550  0.2668 -1.4581  0.0295
35723SOL     OW24778   2.737   6.798   9.601 -0.5078  0.4392 -0.2383
35723SOL    HW124779   2.674   6.821   9.670  1.5673 -0.9837  2.3063
35723SOL    HW224780   2.753   6.704   9.613 -0.2331  0.0452 -2.9109
35724SOL     OW24781  13.464   6.111   8.775  0.2315 -0.4403 -0.2689
35724SOL    HW124782  13.545   6.162   8.780  0.5075 -0.7671 -1.1649
35724SOL    HW224783  13.491   6.022   8.799  0.2916 -0.6921 -1.2221
35725SOL     OW24784  12.038  11.969   0.959  0.5936  0.0175 -0.1714
35725SOL    HW124785  11.966  12.023   0.927  0.2635 -1.0394 -1.3144
35725SOL    HW224786  11.996  11.894   1.002  1.0275  0.1418  0.4769
35726SOL     OW24787   7.174  13.024   3.521  0.5064 -0.1903 -0.1481
35726SOL    HW124788   7.150  12.950   3.465  0.9217 -1.0610  0.7992
35726SOL    HW224789   7.131  13.100   3.480 -1.0854 -1.1596 -0.3735
35727SOL     OW24790   2.227   1.366  11.988 -0.6593 -0.0185 -0.4489
35727SOL    HW124791   2.168   1.442  11.992  0.2400  0.6541  1.2276
35727SOL    HW224792   2.315   1.404  11.990 -0.1377 -1.0356 -2.2104
35728SOL     OW24793  13.587   0.814   7.361 -0.3632  0.5515  0.1338
35728SOL    HW124794  13.649   0.759   7.315 -0.7166  0.5907 -0.4003
35728SOL    HW224795  13.567   0.767   7.442  1.4097  1.1931  0.9875
35729SOL     OW24796  13.406   1.420   4.604 -0.0345 -0.5365  0.6939
35729SOL    HW124797  13.385   1.472   4.681 -2.3065 -1.9077  1.0877
35729SOL    HW224798  13.356   1.460   4.533 -0.1842 -0.9700  0.5532
35730SOL     OW24799   0.292   3.645   1.958 -0.1168 -0.2718 -0.4034
35730SOL    HW124800   0.306   3.572   1.898  0.0224 -0.8804  0.3593
35730SOL    HW224801   0.377   3.661   1.997 -0.4808 -0.7598  0.6151
35731SOL     OW24802   3.656   3.363  12.255  0.5035  0.1197  0.8247
35731SOL    HW124803   3.652   3.377  12.349  1.0405  3.1400  0.5198
35731SOL    HW224804   3.564   3.366  12.227  0.4126  0.2960  1.1346
35732SOL     OW24805  11.451   3.547  13.044  0.3781 -0.2905 -0.0546
35732SOL    HW124806  11.424   3.480  13.106  2.3444 -0.2920  0.8713
35732SOL    HW224807  11.435   3.630  13.090  0.9282 -0.2556  0.0797
35733SOL     OW24808   4.517   2.204  10.872  0.0946  0.0837  0.0001
35733SOL    HW124809   4.507   2.198  10.777  1.8945  1.2779 -0.3115
35733SOL    HW224810   4.553   2.120  10.898 -1.0342 -0.4953 -0.2605
35734SOL     OW24811  12.887   8.903  11.422  0.2317 -0.1129 -0.2087
35734SOL    HW124812  12.804   8.920  11.466 -0.1285 -1.3714 -0.3661
35734SOL    HW224813  12.866   8.838  11.355  0.9634  1.0436 -1.6054
35735SOL     OW24814  10.351  11.676   5.685  0.4009  0.0540 -0.0104
35735SOL    HW124815  10.359  11.636   5.771  0.0661 -0.3708 -0.1753
35735SOL    HW224816  10.315  11.607   5.629 -2.3458  1.2037  0.1819
35736SOL     OW24817   7.580  13.167   0.609  0.4613  0.1675  0.5399
35736SOL    HW124818   7.546  13.085   0.574  0.2129  0.5102 -0.0409
35736SOL    HW224819   7.626  13.207   0.535  0.4058  0.6435  0.7582
35737SOL     OW24820  12.318  12.895   4.405  0.1132 -0.4905  0.1906
35737SOL    HW124821  12.400  12.886   4.357 -0.4174 -0.3324 -0.7679
35737SOL    HW224822  12.311  12.988   4.425  1.5607 -0.8506  2.8491
35738SOL     OW24823  11.219   3.075   8.297  0.0384 -0.0293 -0.5528
35738SOL    HW124824  11.180   2.992   8.270 -0.6831  0.3755 -0.7923
35738SOL    HW224825  11.153   3.115   8.354  0.5874  0.1586 -0.0386
35739SOL     OW24826  11.132  10.609  12.360 -0.0365  0.5410 -0.0153
35739SOL    HW124827  11.196  10.679  12.347  1.6803 -0.9311  0.0043
35739SOL    HW224828  11.174  10.531  12.323 -0.0967 -1.3065  3.3821
35740SOL     OW24829   2.553  10.309   0.328 -0.0836  0.6357  0.0045
35740SOL    HW124830   2.637  10.321   0.374 -0.4502 -0.6303  1.0295
35740SOL    HW224831   2.558  10.221   0.292 -0.9611  0.5716  0.0325
35741SOL     OW24832  11.175   9.002   0.218  0.8469  0.2975  0.2273
35741SOL    HW124833  11.217   8.920   0.245  0.4195 -0.0686 -0.2131
35741SOL    HW224834  11.133   9.034   0.298 -1.5516 -1.4674 -0.2310
35742SOL     OW24835   0.747   2.091   2.557 -0.0650 -0.5945  0.4561
35742SOL    HW124836   0.787   2.136   2.483 -0.9705  0.5092  0.6129
35742SOL    HW224837   0.653   2.093   2.538 -0.4104  0.5982  2.0816
35743SOL     OW24838   0.332  12.704   0.108  0.1882 -0.3940 -0.3338
35743SOL    HW124839   0.345  12.636   0.041 -0.5835  0.4638 -1.3908
35743SOL    HW224840   0.416  12.708   0.154 -0.2668 -3.2828  0.9795
35744SOL     OW24841   1.135   5.590   2.901 -0.4764 -0.4481  0.1036
35744SOL    HW124842   1.057   5.565   2.949 -0.5849  0.0944  0.2097
35744SOL    HW224843   1.180   5.652   2.957 -0.6122  0.2046 -0.4895
35745SOL     OW24844   2.411   0.256   2.587  0.1432 -0.7851 -0.1087
35745SOL    HW124845   2.343   0.314   2.619 -0.3520 -2.1004  1.3043
35745SOL    HW224846   2.493   0.299   2.612 -0.1079  0.7549 -1.7344
35746SOL     OW24847   8.145  12.563   3.142 -0.3626  0.5162 -0.0521
35746SOL    HW124848   8.118  12.478   3.176 -0.7052  1.4014  2.0369
35746SOL    HW224849   8.063  12.605   3.116 -0.2318  0.3741 -0.7145
35747SOL     OW24850  13.474  11.686   9.867 -0.6353 -0.7736  0.6860
35747SOL    HW124851  13.542  11.729   9.815 -0.8150  1.3067  2.0550
35747SOL    HW224852  13.521  11.652   9.943 -1.0365  0.4700  1.5223
35748SOL     OW24853   6.020   5.702   3.608  0.5059 -0.0691  0.6663
35748SOL    HW124854   5.938   5.739   3.642 -0.2261 -2.4636  1.7210
35748SOL    HW224855   6.003   5.688   3.515 -0.0852  0.0175  0.7567
35749SOL     OW24856   3.905  11.746   0.000  0.0201 -0.1582 -0.4178
35749SOL    HW124857   3.937  11.827  -0.041 -1.6450  0.4168 -0.6990
35749SOL    HW224858   3.847  11.708  -0.065 -1.9477  0.2786  0.9789
35750SOL     OW24859   6.101   4.140   7.198  0.0342 -0.0477  0.2224
35750SOL    HW124860   6.103   4.044   7.204 -1.7824 -0.1351 -0.0284
35750SOL    HW224861   6.085   4.169   7.288 -0.6394 -0.0666  0.1196
35751SOL     OW24862   3.645   7.557   8.879 -0.4830 -0.0768  0.2484
35751SOL    HW124863   3.697   7.593   8.951 -0.6088  0.4222  0.0882
35751SOL    HW224864   3.646   7.624   8.812 -2.4196  0.5067  0.7476
35752SOL     OW24865   7.006   4.194   7.820 -0.1696 -0.1216  0.0388
35752SOL    HW124866   7.002   4.285   7.788  0.0034  1.0814  3.1360
35752SOL    HW224867   6.915   4.164   7.819 -0.3596  0.4405 -0.0392
35753SOL     OW24868   0.701   4.859   8.006 -0.4860  0.2279  0.0994
35753SOL    HW124869   0.769   4.866   7.939  2.3330  0.4269  2.8070
35753SOL    HW224870   0.676   4.949   8.025  0.8409  0.3633  1.3025
35754SOL     OW24871   2.694   9.560   6.670 -0.4468 -0.0943 -0.0972
35754SOL    HW124872   2.648   9.488   6.629  0.6200  0.2258 -1.9787
35754SOL    HW224873   2.760   9.518   6.725 -0.0119 -0.5677 -0.9639
35755SOL     OW24874  11.129   5.568   8.219 -0.4437 -0.0667 -0.0161
35755SOL    HW124875  11.097   5.517   8.145 -0.1873 -2.0346  1.1373
35755SOL    HW224876  11.163   5.502   8.280  1.8703  1.6269  0.6738
35756SOL     OW24877   2.720  13.130  13.226 -0.2188  0.4267 -0.2148
35756SOL    HW124878   2.643  13.179  13.255 -1.8481 -1.3941 -1.1923
35756SOL    HW224879   2.721  13.142  13.130 -0.2396 -0.8620 -0.3854
35757SOL     OW24880   5.771   0.569   4.929  0.1126 -0.3724 -0.0322
35757SOL    HW124881   5.860   0.568   4.894 -0.0494  2.5841 -0.8068
35757SOL    HW224882   5.721   0.513   4.869  1.2652 -1.3928 -0.0736
35758SOL     OW24883   1.686   0.279   0.710  0.2784 -0.2173 -0.3218
35758SOL    HW124884   1.649   0.191   0.720 -0.2004 -0.0407 -0.5438
35758SOL    HW224885   1.780   0.266   0.723  0.1440 -0.6659  0.2662
35759SOL     OW24886   4.647   5.479   4.998 -0.5215  0.1891  0.3973
35759SOL    HW124887   4.631   5.389   5.024 -0.6096 -0.1372 -0.7273
35759SOL    HW224888   4.628   5.481   4.904  0.5275  1.1232  0.1801
35760SOL     OW24889   0.285   3.010   4.088 -0.1092  0.1598  0.1644
35760SOL    HW124890   0.278   3.104   4.103 -0.8069  0.5486 -2.0653
35760SOL    HW224891   0.361   3.001   4.030 -0.1145 -0.6195  0.2782
35761SOL     OW24892   9.972   4.162   8.660 -0.2296 -0.4414  0.2420
35761SOL    HW124893   9.932   4.176   8.574 -0.2857 -1.8990  0.0109
35761SOL    HW224894  10.048   4.220   8.661 -1.1376  0.7858 -0.1484
35762SOL     OW24895   9.387   6.316   3.539 -0.3039 -0.4726  0.6831
35762SOL    HW124896   9.394   6.344   3.630 -0.6209 -2.4499  1.3596
35762SOL    HW224897   9.295   6.292   3.528 -0.0721 -1.1400  0.1356
35763SOL     OW24898   6.750   1.492  10.087 -0.1643 -0.4077  0.2935
35763SOL    HW124899   6.721   1.401  10.095  0.4471 -0.6020  0.3660
35763SOL    HW224900   6.730   1.516   9.996  0.2425 -0.8188  0.0916
35764SOL     OW24901  10.621  13.692   8.312  0.8437  0.2614 -0.5103
35764SOL    HW124902  10.581  13.758   8.369  1.6582  1.4934 -1.3217
35764SOL    HW224903  10.654  13.626   8.372  1.0037  1.1447  0.4004
35765SOL     OW24904   9.717   1.911   7.938  0.0555 -0.1748 -0.2988
35765SOL    HW124905   9.745   1.915   7.847 -2.7918  1.5831 -1.2547
35765SOL    HW224906   9.774   1.973   7.983 -0.2183  0.9792 -1.4766
35766SOL     OW24907   5.224   5.426   4.530 -0.5122  0.0366 -0.0069
35766SOL    HW124908   5.197   5.334   4.529  0.7491 -0.3459 -0.0565
35766SOL    HW224909   5.292   5.431   4.462  0.8606  0.5502  1.3661
35767SOL     OW24910  10.554  11.021   6.142  0.4365 -0.2743 -0.5848
35767SOL    HW124911  10.531  11.091   6.203 -0.1817 -0.1841 -0.9100
35767SOL    HW224912  10.584  10.949   6.197 -0.8544 -0.4755 -0.1198
35768SOL     OW24913   8.474   4.114  13.962 -0.1082  0.1728 -0.8697
35768SOL    HW124914   8.555   4.123  14.012 -0.9081  0.4040  0.4161
35768SOL    HW224915   8.490   4.162  13.881  1.4309 -0.7309 -1.1378
35769SOL     OW24916  13.026   1.975   2.355 -0.0761 -0.1675  0.2390
35769SOL    HW124917  12.930   1.981   2.359 -0.1937 -0.7858 -1.1228
35769SOL    HW224918  13.051   2.046   2.296  0.4702  1.0071  1.8220
35770SOL     OW24919  10.892   5.230   1.026 -0.3260 -0.4831  0.2818
35770SOL    HW124920  10.875   5.136   1.030  0.4809 -0.7082 -1.0151
35770SOL    HW224921  10.806   5.270   1.011 -0.5883 -1.0633  0.2112
35771SOL     OW24922   4.475   2.877   5.469 -0.3278  0.0513  0.3665
35771SOL    HW124923   4.443   2.787   5.467 -0.7189  0.1963 -1.4337
35771SOL    HW224924   4.454   2.908   5.557 -0.6549 -1.4382  0.8429
35772SOL     OW24925   3.570   3.507   4.142 -0.2903 -0.0117 -0.6024
35772SOL    HW124926   3.568   3.598   4.114  1.4727 -0.0223 -0.9197
35772SOL    HW224927   3.663   3.489   4.157 -0.7981 -1.1095  1.6490
35773SOL     OW24928  12.417   0.551   3.654 -0.1356  0.3079  0.5582
35773SOL    HW124929  12.483   0.501   3.608 -0.4979 -1.7017  2.0894
35773SOL    HW224930  12.448   0.556   3.744 -1.3794  0.5686  1.0005
35774SOL     OW24931   9.588  11.063   4.411  0.1986 -0.6627  0.0208
35774SOL    HW124932   9.517  11.061   4.476 -0.4057 -0.3156 -0.6237
35774SOL    HW224933   9.651  10.999   4.444  0.1115 -0.1762  1.1840
35775SOL     OW24934  11.295   2.926  10.561 -0.1586  0.0009 -0.8071
35775SOL    HW124935  11.292   2.923  10.656 -0.7863  0.6499 -0.7996
35775SOL    HW224936  11.388   2.922  10.540  0.1478  2.1149 -0.0682
35776SOL     OW24937   0.229   0.957   5.652 -0.2548  0.0879  0.0284
35776SOL    HW124938   0.224   1.011   5.573 -1.2608  0.3921  0.2810
35776SOL    HW224939   0.143   0.916   5.659  0.6066 -1.9318 -0.3875
35777SOL     OW24940   2.227  13.340   8.270 -0.0857 -0.3100  0.7922
35777SOL    HW124941   2.138  13.365   8.248 -0.5035 -0.1194  2.5564
35777SOL    HW224942   2.233  13.247   8.245 -0.8113 -0.3640  0.8044
35778SOL     OW24943   7.853   4.518  13.862  0.2639  0.5231 -0.2908
35778SOL    HW124944   7.802   4.596  13.843  0.5895  0.7047 -0.4338
35778SOL    HW224945   7.930   4.524  13.805  1.2091  1.0247  0.9744
35779SOL     OW24946  11.829  10.233   4.704 -0.0727 -0.1788 -0.4129
35779SOL    HW124947  11.906  10.180   4.726  0.5854  0.3517 -1.3943
35779SOL    HW224948  11.865  10.317   4.676 -1.0650  0.4356  0.1072
35780SOL     OW24949   0.810  10.390   9.174 -0.0167 -0.4536 -0.2200
35780SOL    HW124950   0.879  10.429   9.120  0.2289 -2.0186 -1.1166
35780SOL    HW224951   0.844  10.303   9.196 -1.4228 -1.0008 -0.1242
35781SOL     OW24952   4.994   6.429   4.412  0.2027 -0.8825  0.0115
35781SOL    HW124953   4.960   6.342   4.436  0.4393 -0.4409  2.2063
35781SOL    HW224954   4.928   6.490   4.445  1.0145 -0.1717  0.3583
35782SOL     OW24955   8.484   9.265   6.550  0.6384  0.0591  0.5283
35782SOL    HW124956   8.570   9.300   6.526  1.6203 -1.4640  1.5962
35782SOL    HW224957   8.439   9.338   6.592 -0.1949  2.0817 -3.3708
35783SOL     OW24958   2.000   7.829   3.555 -0.0095  0.3005  0.0341
35783SOL    HW124959   2.017   7.741   3.523  1.9159  0.4509  0.5509
35783SOL    HW224960   2.032   7.886   3.485 -0.6837  0.6137 -0.0316
35784SOL     OW24961   3.929  11.748   3.542  0.1484  0.0307 -0.0954
35784SOL    HW124962   3.964  11.826   3.585  0.6678  0.0267 -0.4989
35784SOL    HW224963   3.887  11.782   3.463 -1.0733  0.0723  0.5552
35785SOL     OW24964  10.980   2.138   7.153  0.2292  0.2484 -0.2663
35785SOL    HW124965  10.954   2.103   7.238 -0.6152 -0.3342 -0.7449
35785SOL    HW224966  11.029   2.217   7.173 -1.7196  1.2698  0.7160
35786SOL     OW24967   3.037   5.213   9.251 -0.0867  0.2416 -0.1392
35786SOL    HW124968   3.002   5.171   9.172  0.3438 -2.5171  0.9935
35786SOL    HW224969   2.971   5.198   9.318  0.3652  0.8573  0.4543
35787SOL     OW24970   0.184   9.753   5.010  0.7204  0.4681 -0.1228
35787SOL    HW124971   0.110   9.796   4.968  0.4157  0.4049  0.3421
35787SOL    HW224972   0.260   9.776   4.956  0.1277 -0.7742 -1.5441
35788SOL     OW24973   1.702   6.640  11.884 -0.2592 -0.2498 -1.0311
35788SOL    HW124974   1.630   6.644  11.946 -1.3800 -2.3542 -2.0986
35788SOL    HW224975   1.665   6.672  11.801  0.5395  0.2754 -1.2062
35789SOL     OW24976  12.474  10.638   5.617 -0.3062  0.0157 -0.2733
35789SOL    HW124977  12.448  10.562   5.669 -0.9764  0.5426  0.1800
35789SOL    HW224978  12.447  10.616   5.528  0.2516 -0.6177 -0.2939
35790SOL     OW24979   0.317   9.621   2.442 -0.5648 -0.7713 -0.3713
35790SOL    HW124980   0.348   9.691   2.384  0.3033 -1.4065 -0.7031
35790SOL    HW224981   0.241   9.658   2.486 -0.4751  0.1732 -0.9792
35791SOL     OW24982   8.918   1.461   5.497  0.0957  0.2859 -0.2789
35791SOL    HW124983   8.834   1.456   5.544  0.4223  0.8534  0.3843
35791SOL    HW224984   8.983   1.471   5.565  0.9391 -2.1166 -0.6630
35792SOL     OW24985  13.600   1.752  10.625  0.3426 -1.0031  0.2222
35792SOL    HW124986  13.563   1.719  10.543 -0.2637 -0.9435  0.4680
35792SOL    HW224987  13.525   1.762  10.683  0.7478 -0.8946  0.7378
35793SOL     OW24988   4.265   0.711  10.664 -0.1883 -0.5243 -0.1758
35793SOL    HW124989   4.328   0.676  10.727 -0.9258 -1.7920 -0.1051
35793SOL    HW224990   4.264   0.647  10.593 -1.7481 -0.8187  0.0632
35794SOL     OW24991   9.396   2.989   7.450  0.1453  0.0218  0.0464
35794SOL    HW124992   9.426   2.910   7.493 -0.4205  0.1810  0.7468
35794SOL    HW224993   9.320   2.961   7.399  0.1034  0.0586  0.0880
35795SOL     OW24994  13.585   1.185   8.929  1.2501 -0.8141 -0.5872
35795SOL    HW124995  13.549   1.098   8.947  1.9498 -0.7969  1.0811
35795SOL    HW224996  13.667   1.188   8.978  1.5921  0.5439 -1.1863
35796SOL     OW24997  13.748   5.128   3.384  0.0719 -0.0088  0.9355
35796SOL    HW124998  13.781   5.137   3.473  1.7147 -2.8662  0.7377
35796SOL    HW224999  13.827   5.113   3.331 -1.0594 -0.7011 -0.6181
35797SOL     OW25000   5.478  13.478   3.283  0.4549 -0.1702 -0.4173
35797SOL    HW125001   5.474  13.505   3.191  0.0335  0.7750 -0.1475
35797SOL    HW225002   5.476  13.383   3.281  2.1013 -0.2126 -1.4450
35798SOL     OW25003  11.703   7.686   4.857 -0.5452 -0.0957  0.3874
35798SOL    HW125004  11.750   7.755   4.811 -0.4055 -0.6402 -0.2990
35798SOL    HW225005  11.620   7.678   4.809 -1.4691  0.9946  1.6997
35799SOL     OW25006   9.901   0.159  11.586 -0.0516 -0.6588 -0.1636
35799SOL    HW125007   9.892   0.251  11.563  0.0322 -0.8509 -0.9944
35799SOL    HW225008   9.995   0.142  11.579  0.0981 -0.4902  1.2620
35800SOL     OW25009   7.789   3.104  10.380 -0.8343 -0.0858 -0.5560
35800SOL    HW125010   7.758   3.193  10.395 -2.2026 -0.1752 -2.5288
35800SOL    HW225011   7.884   3.112  10.376 -0.7717  0.8765  1.5328
35801SOL     OW25012   7.525   8.776   8.548 -0.3412  0.2720  0.3388
35801SOL    HW125013   7.504   8.807   8.636  0.7493  0.7883  0.4398
35801SOL    HW225014   7.485   8.840   8.489  1.6701  1.8390  0.5440
35802SOL     OW25015   5.627  12.812   7.277  0.1646 -0.0826 -0.1779
35802SOL    HW125016   5.538  12.794   7.247 -0.1856 -0.7144  1.1510
35802SOL    HW225017   5.616  12.839   7.369  1.1978  1.4851 -0.4726
35803SOL     OW25018  10.909   4.402   8.151  0.2075 -0.3182 -0.7657
35803SOL    HW125019  10.899   4.372   8.241 -0.9691 -0.5584 -0.9594
35803SOL    HW225020  11.004   4.399   8.135  0.4311 -0.2281  0.4654
35804SOL     OW25021   8.717   6.510  13.508 -0.2312  0.7201  0.2380
35804SOL    HW125022   8.631   6.549  13.494 -0.1597  1.1486  0.9409
35804SOL    HW225023   8.769   6.580  13.548  0.4319  0.4507 -0.1239
35805SOL     OW25024   2.193   7.943   8.385 -0.0182  0.2265  0.6597
35805SOL    HW125025   2.176   7.932   8.291 -1.3731  1.9453  0.6552
35805SOL    HW225026   2.282   7.978   8.388 -0.0461  0.3764  0.0082
35806SOL     OW25027   2.177  12.814  13.089 -0.0785  0.0267 -0.1303
35806SOL    HW125028   2.152  12.722  13.105  0.5557 -0.0021  0.7170
35806SOL    HW225029   2.174  12.823  12.993  1.3177 -1.3056 -0.3396
35807SOL     OW25030   1.366   3.869   4.153 -0.3225  0.5595 -0.3914
35807SOL    HW125031   1.377   3.813   4.076  0.7869  0.8689 -0.4763
35807SOL    HW225032   1.445   3.922   4.155  0.0159  0.0287  1.4046
35808SOL     OW25033   6.497   5.908  11.049  0.2276 -0.3475 -0.0353
35808SOL    HW125034   6.452   5.827  11.075  1.5054 -0.5384  1.7929
35808SOL    HW225035   6.500   5.960  11.129  1.6328  0.4313 -0.5688
35809SOL     OW25036   6.644   0.062   5.764 -0.0391  0.0155  0.1722
35809SOL    HW125037   6.675   0.150   5.786  1.8468 -0.3123 -0.9472
35809SOL    HW225038   6.723   0.016   5.735 -1.5355 -0.8439 -3.0296
35810SOL     OW25039   6.743  13.940   7.704  0.4352  0.1051  0.0639
35810SOL    HW125040   6.816  13.926   7.644  0.9671 -0.3745  0.8061
35810SOL    HW225041   6.734  14.035   7.709  0.4475  0.1514 -0.6937
35811SOL     OW25042   1.338   0.549   7.927 -0.4532 -0.0671  0.0122
35811SOL    HW125043   1.333   0.642   7.904 -1.4100 -0.3309 -0.9114
35811SOL    HW225044   1.247   0.523   7.941 -0.4365 -1.3685 -1.9162
35812SOL     OW25045   4.439   6.916   3.050 -0.0423 -0.4593 -0.1264
35812SOL    HW125046   4.493   6.994   3.033 -0.5040  0.2164  1.3302
35812SOL    HW225047   4.485   6.845   3.005  0.0385  0.7428 -2.0607
35813SOL     OW25048   5.039   2.652   1.499 -0.0512  0.3555  0.4279
35813SOL    HW125049   4.996   2.568   1.516 -0.2424  0.5081  0.7099
35813SOL    HW225050   5.113   2.654   1.559 -0.0165  0.3625  0.3843
35814SOL     OW25051   7.289  13.299  12.454  0.5035 -0.6182  0.0130
35814SOL    HW125052   7.254  13.387  12.466  1.6930  0.4648 -3.3264
35814SOL    HW225053   7.383  13.308  12.472  0.8128 -0.9087 -1.3521
35815SOL     OW25054   5.938   4.956   1.116  0.0313 -0.0957 -0.1003
35815SOL    HW125055   5.976   4.973   1.030  0.0156  0.1774 -0.0540
35815SOL    HW225056   5.856   4.910   1.098  0.7761 -1.4505 -0.1732
35816SOL     OW25057   7.544   4.046   4.566 -0.5814  0.1745  0.9091
35816SOL    HW125058   7.494   4.126   4.578 -0.2441  0.6096 -0.4450
35816SOL    HW225059   7.597   4.038   4.646 -0.2760  1.5473  0.8643
35817SOL     OW25060   8.383   7.799   2.318 -0.3764 -0.0654 -0.0783
35817SOL    HW125061   8.295   7.772   2.294 -0.4876 -0.8630  1.1434
35817SOL    HW225062   8.436   7.719   2.313 -0.5323 -0.4581  2.7392
35818SOL     OW25063  11.298   9.059  11.267 -0.2245  0.2015 -0.2382
35818SOL    HW125064  11.205   9.072  11.284  0.0636  0.5381  1.1985
35818SOL    HW225065  11.306   9.065  11.172 -1.8569 -1.1456 -0.5018
35819SOL     OW25066   3.064   8.606  11.820 -0.4051  0.3407 -0.5420
35819SOL    HW125067   3.094   8.643  11.903 -0.5180  1.7310 -1.0751
35819SOL    HW225068   2.970   8.622  11.819 -0.4041  0.3344 -0.9244
35820SOL     OW25069  13.175   9.562   6.121 -0.1509  0.6272 -0.1626
35820SOL    HW125070  13.125   9.515   6.054  2.2321 -1.5660 -0.5799
35820SOL    HW225071  13.115   9.570   6.195 -1.1588 -1.9312 -0.5863
35821SOL     OW25072   0.014  12.769   2.116 -0.0730 -0.1526  0.2140
35821SOL    HW125073   0.063  12.835   2.164 -1.4529  0.3149  1.0345
35821SOL    HW225074   0.022  12.689   2.168 -1.1475  0.2283  1.0039
35822SOL     OW25075   8.388  13.751   1.752  0.4606  0.2644  0.2397
35822SOL    HW125076   8.470  13.725   1.709  0.2472 -1.8742  0.9878
35822SOL    HW225077   8.320  13.733   1.688  0.4629  0.9299  0.0425
35823SOL     OW25078  10.362   2.505   7.597 -0.5632  0.2000  0.0960
35823SOL    HW125079  10.408   2.498   7.513 -1.0985  0.9169 -0.2660
35823SOL    HW225080  10.313   2.587   7.590  0.0470  0.7096  1.4396
35824SOL     OW25081  11.827   0.029   5.939 -0.2173  0.0327  0.2154
35824SOL    HW125082  11.829  -0.063   5.965  1.4063 -0.2733 -0.8900
35824SOL    HW225083  11.789   0.029   5.851 -0.1221  0.4135  0.1700
35825SOL     OW25084   6.428  10.950   5.724 -0.2715 -0.4925 -0.6527
35825SOL    HW125085   6.406  10.939   5.816 -0.8761  1.6995 -0.4704
35825SOL    HW225086   6.510  10.902   5.713 -0.5388 -1.3583  0.8449
35826SOL     OW25087   1.358  11.175   9.355 -0.5582 -0.0808  0.2026
35826SOL    HW125088   1.436  11.127   9.384 -0.0058  0.4595 -0.3616
35826SOL    HW225089   1.370  11.186   9.261 -0.8041  0.9120  0.2781
35827SOL     OW25090   4.578   1.091   3.855  0.1090 -0.3338  0.1271
35827SOL    HW125091   4.522   1.127   3.786  0.3804  1.8620  0.9629
35827SOL    HW225092   4.518   1.047   3.915 -0.3898 -0.3351 -0.3679
35828SOL     OW25093   2.624   0.238  10.917  0.7849 -0.1894  0.0378
35828SOL    HW125094   2.631   0.149  10.881  2.0385 -0.6052  1.2259
35828SOL    HW225095   2.697   0.285  10.877  1.1893 -0.1977  0.7500
35829SOL     OW25096  11.024  10.777  11.299  0.3236 -0.3409 -0.4946
35829SOL    HW125097  11.097  10.837  11.290  0.5440 -0.2879  1.2914
35829SOL    HW225098  10.983  10.775  11.213  1.7514  0.4931 -1.2146
35830SOL     OW25099  12.160   6.401   7.729 -0.1891 -0.1984  0.3577
35830SOL    HW125100  12.199   6.458   7.663 -0.4043 -1.9860 -1.4330
35830SOL    HW225101  12.077   6.373   7.690 -0.9407 -0.3019  1.9751
35831SOL     OW25102   2.681   2.844   9.269 -0.9077  0.2784 -0.2819
35831SOL    HW125103   2.703   2.754   9.247 -0.7080 -0.0751  1.2357
35831SOL    HW225104   2.650   2.882   9.187  1.8833 -0.2522 -1.7293
35832SOL     OW25105   2.186  13.735   2.711 -0.4666 -0.3038  0.1740
35832SOL    HW125106   2.127  13.809   2.723 -0.8150 -0.6692  0.7777
35832SOL    HW225107   2.237  13.731   2.791 -0.5587 -0.8107  0.2119
35833SOL     OW25108  11.702  10.307  12.696 -0.2055 -0.0203 -0.0137
35833SOL    HW125109  11.738  10.226  12.734  0.8824  0.6542  0.4380
35833SOL    HW225110  11.637  10.277  12.632 -0.6621 -1.2270  0.9789
35834SOL     OW25111   6.933   2.373   7.407  0.2506  0.3260 -0.2143
35834SOL    HW125112   6.852   2.349   7.453  0.0899 -1.3704 -1.2883
35834SOL    HW225113   6.995   2.393   7.477 -0.7986  0.6076  0.6596
35835SOL     OW25114   0.443  12.012   9.871  0.2100  1.1388 -0.0280
35835SOL    HW125115   0.490  12.018   9.955  0.0796 -0.5766  0.1961
35835SOL    HW225116   0.395  12.095   9.865 -0.3825  0.9965  1.9766
35836SOL     OW25117   1.514  10.549   4.234  0.4063  0.0667  0.2071
35836SOL    HW125118   1.609  10.553   4.220  0.9948 -1.9853  2.7584
35836SOL    HW225119   1.500  10.597   4.316 -0.3552 -1.6973  1.1532
35837SOL     OW25120  11.263   6.989  13.598 -0.1052  0.2610  0.3968
35837SOL    HW125121  11.221   6.938  13.667 -1.4468 -0.3109 -0.7851
35837SOL    HW225122  11.190   7.025  13.547  0.8387  0.7673 -0.6422
35838SOL     OW25123   5.570   5.596  11.163  0.0473 -0.2861  0.3239
35838SOL    HW125124   5.498   5.637  11.211 -0.6638 -2.5106  1.2983
35838SOL    HW225125   5.604   5.665  11.106 -3.3728  0.6499 -0.7909
35839SOL     OW25126  10.885  13.457   2.286  0.7516  0.2304 -0.5917
35839SOL    HW125127  10.828  13.386   2.315  0.2925  0.8088 -0.0628
35839SOL    HW225128  10.887  13.519   2.359  1.5456  0.5318 -0.8505
35840SOL     OW25129   1.996   4.595   5.086  0.1426  0.5322  0.0674
35840SOL    HW125130   1.966   4.506   5.069 -0.8461  0.7965  0.3476
35840SOL    HW225131   2.058   4.614   5.015  0.0858 -0.2414 -0.1959
35841SOL     OW25132   8.870  13.498   5.205 -0.3119  0.1130  0.1652
35841SOL    HW125133   8.874  13.429   5.139 -0.6094 -0.9662  1.2393
35841SOL    HW225134   8.955  13.495   5.249 -0.1970  0.6716 -0.0053
35842SOL     OW25135  11.851   0.042   9.536 -0.4201 -0.4605 -0.0687
35842SOL    HW125136  11.769  -0.003   9.519 -1.4677  1.6246 -0.8606
35842SOL    HW225137  11.889   0.056   9.449  0.0041 -0.0413  0.1796
35843SOL     OW25138  14.085  11.836   7.947  0.0911 -0.2055 -0.3261
35843SOL    HW125139  14.073  11.765   7.884  1.0676 -0.6651 -0.0072
35843SOL    HW225140  14.169  11.817   7.990 -0.2288  0.4657  0.6373
35844SOL     OW25141   2.517   4.920   7.055  0.2406 -0.4703 -0.2074
35844SOL    HW125142   2.461   4.883   6.986  0.9771  0.2685 -1.2343
35844SOL    HW225143   2.478   4.888   7.137 -1.2390 -0.5768 -0.9102
35845SOL     OW25144   0.683  11.155  13.799  0.1972 -0.0458  0.6192
35845SOL    HW125145   0.616  11.123  13.859  0.0870 -1.2262 -0.0998
35845SOL    HW225146   0.729  11.223  13.848 -0.7473 -0.0535  1.5493
35846SOL     OW25147   8.064   6.211   5.170 -0.1952  0.6397 -0.0056
35846SOL    HW125148   8.100   6.140   5.118  0.0846  0.1085  0.8914
35846SOL    HW225149   8.108   6.290   5.137  1.5898  0.0505  0.8412
35847SOL     OW25150   5.785   4.337   6.642 -0.4295 -0.6991  0.2680
35847SOL    HW125151   5.857   4.288   6.603  0.4304 -0.5130  1.5439
35847SOL    HW225152   5.708   4.281   6.630 -0.1131 -0.8487 -1.2198
35848SOL     OW25153  12.526   8.815  10.073 -0.0751 -0.4194  0.2260
35848SOL    HW125154  12.597   8.755  10.095  0.6943 -0.6511 -2.5306
35848SOL    HW225155  12.491   8.781   9.990 -0.3030  2.3020 -0.8896
35849SOL     OW25156   5.937  11.971  13.121 -0.3721  0.3314 -0.3250
35849SOL    HW125157   5.886  12.039  13.165 -0.9053 -0.4206  0.2424
35849SOL    HW225158   5.883  11.945  13.047 -1.2668 -1.0964  0.7842
35850SOL     OW25159  10.387   5.681   1.398  0.0316 -0.2568  0.1720
35850SOL    HW125160  10.317   5.622   1.427  0.5248 -1.4286 -0.9436
35850SOL    HW225161  10.357   5.713   1.313 -0.0112  0.7624  0.5567
35851SOL     OW25162   3.423  12.655  11.739  0.3499  0.5562 -0.6536
35851SOL    HW125163   3.404  12.652  11.833 -1.0717 -1.1021 -0.9405
35851SOL    HW225164   3.423  12.748  11.718  1.9952  1.0500  1.1951
35852SOL     OW25165   8.837   8.837   3.690  0.5041 -0.1081 -0.3145
35852SOL    HW125166   8.815   8.850   3.782 -0.1182 -0.6452 -0.3791
35852SOL    HW225167   8.908   8.773   3.691 -0.4036 -1.1316 -0.2601
35853SOL     OW25168  11.211   2.756   6.219 -0.1043  0.1266  0.6184
35853SOL    HW125169  11.275   2.697   6.257 -0.1466  0.0192  0.5231
35853SOL    HW225170  11.140   2.699   6.189 -0.5058  0.2888  1.2289
35854SOL     OW25171   9.715   4.241   4.571 -0.2277 -0.4100  0.4158
35854SOL    HW125172   9.808   4.262   4.568 -0.5433  1.1125  0.2085
35854SOL    HW225173   9.689   4.229   4.480 -0.2238 -0.9294  0.4797
35855SOL     OW25174   3.115   1.092   7.932  0.0073 -0.0405  0.2453
35855SOL    HW125175   3.171   1.161   7.968 -0.0207  0.6206 -0.9155
35855SOL    HW225176   3.094   1.036   8.007  1.5056  0.1881  0.8702
35856SOL     OW25177  13.005   5.281   9.942  0.1125 -0.5728  0.2873
35856SOL    HW125178  12.988   5.372   9.917  0.8963 -0.5730 -0.3130
35856SOL    HW225179  12.950   5.229   9.884  0.2334 -0.4974  0.1021
35857SOL     OW25180   3.498   6.622   0.240 -0.2499  0.3399 -0.1595
35857SOL    HW125181   3.457   6.536   0.229  1.1869 -0.3826  0.0163
35857SOL    HW225182   3.478   6.668   0.158 -0.0268 -0.5997 -0.7571
35858SOL     OW25183  11.495   8.462  11.718  0.4667  0.0006  0.2298
35858SOL    HW125184  11.535   8.434  11.635 -0.5956 -0.3680 -0.1807
35858SOL    HW225185  11.546   8.417  11.786 -0.4831 -2.0904 -0.3629
35859SOL     OW25186   5.104   6.087   6.465  0.2256 -0.0117 -0.1807
35859SOL    HW125187   5.035   6.123   6.520 -0.1292  1.5015 -1.5201
35859SOL    HW225188   5.185   6.113   6.508 -0.0448  0.2878  0.1562
35860SOL     OW25189   7.540  10.675   6.801 -0.2939  0.2505  0.2182
35860SOL    HW125190   7.499  10.654   6.716 -0.6689  0.6279  0.3009
35860SOL    HW225191   7.630  10.700   6.778 -0.9489  2.3853 -0.3404
35861SOL     OW25192   1.775   4.494  13.633 -0.0280  0.1997 -0.8441
35861SOL    HW125193   1.805   4.403  13.628  2.3502  0.8797 -0.4778
35861SOL    HW225194   1.784   4.528  13.544 -1.5074 -0.0565 -1.1143
35862SOL     OW25195   2.286  12.008  11.456 -0.2005 -0.1354 -0.3348
35862SOL    HW125196   2.209  12.064  11.445  0.2954  0.8689  0.9683
35862SOL    HW225197   2.262  11.947  11.525 -0.0170 -0.1668 -0.2977
35863SOL     OW25198   5.111  12.518   0.456  0.2169  0.0134  0.3873
35863SOL    HW125199   5.203  12.492   0.452 -0.1004 -1.1578  0.3939
35863SOL    HW225200   5.084  12.498   0.546 -0.3369 -0.6950  0.0699
35864SOL     OW25201   0.336   2.259   9.051  0.6214  0.2772  0.3837
35864SOL    HW125202   0.385   2.181   9.076  1.6837  0.7871 -0.0559
35864SOL    HW225203   0.382   2.293   8.974  0.0382  1.2025  0.4245
35865SOL     OW25204  13.543   0.281   4.044 -0.3788  0.1361 -0.2967
35865SOL    HW125205  13.516   0.346   4.109  0.7679  0.1269  0.2205
35865SOL    HW225206  13.551   0.330   3.962 -2.9344 -0.0670 -0.7444
35866SOL     OW25207  13.514   1.632   1.871  0.4038  0.0913 -0.5079
35866SOL    HW125208  13.471   1.565   1.818  1.6256 -1.6258  0.5576
35866SOL    HW225209  13.447   1.663   1.932  0.3143 -1.7068  0.3647
35867SOL     OW25210  13.493   5.035   3.470 -0.0162 -0.0260  0.2211
35867SOL    HW125211  13.556   5.092   3.425 -0.4920  0.1033 -0.2898
35867SOL    HW225212  13.522   5.035   3.561 -0.7602  2.1061  0.5147
35868SOL     OW25213   7.833  11.679  10.976 -0.1364 -0.1969 -0.1719
35868SOL    HW125214   7.829  11.618  11.049 -1.5195  1.9863  1.7296
35868SOL    HW225215   7.893  11.748  11.005 -0.4153  0.5356 -1.2511
35869SOL     OW25216   5.544   8.613   3.667  0.1684 -0.1778 -0.1783
35869SOL    HW125217   5.519   8.603   3.759  2.5417 -1.4551  0.4000
35869SOL    HW225218   5.585   8.699   3.663 -1.7898  0.8147 -0.5887
35870SOL     OW25219  13.228   4.065   2.881  0.1644  0.1887 -0.8224
35870SOL    HW125220  13.260   4.144   2.923 -2.9688  1.8246 -1.2007
35870SOL    HW225221  13.233   4.083   2.787 -0.4140 -0.1139 -0.9199
35871SOL     OW25222   5.798  10.555   4.444 -0.7012 -0.2367  0.0116
35871SOL    HW125223   5.844  10.475   4.469 -0.7943 -0.5664 -0.8439
35871SOL    HW225224   5.858  10.626   4.468  0.7000 -0.6808 -1.9450
35872SOL     OW25225   8.678   8.372  13.791 -0.3607  0.0646 -0.0973
35872SOL    HW125226   8.739   8.424  13.844  0.5535 -1.8699  0.8629
35872SOL    HW225227   8.734   8.330  13.726 -1.2955  1.3630 -1.8020
35873SOL     OW25228  11.340   9.808   2.505 -0.3741 -0.4736 -0.1864
35873SOL    HW125229  11.327   9.890   2.457 -2.5926 -0.6629 -0.0154
35873SOL    HW225230  11.263   9.755   2.482  0.4785 -2.0929  0.5496
35874SOL     OW25231  13.206   9.041  12.529  0.6519  0.2443 -0.1211
35874SOL    HW125232  13.112   9.034  12.516  0.4720  0.3143  1.0409
35874SOL    HW225233  13.243   9.031  12.442 -0.3297 -1.3706 -0.3933
35875SOL     OW25234  10.847  11.625  10.546 -0.2793  0.4503 -0.3045
35875SOL    HW125235  10.873  11.699  10.602 -0.9976  0.4956 -0.0136
35875SOL    HW225236  10.870  11.547  10.597  0.0875  0.4795 -0.4261
35876SOL     OW25237   2.175   3.731   6.978  1.0217  0.0542 -0.3270
35876SOL    HW125238   2.081   3.750   6.986  0.6137 -1.7680 -0.2808
35876SOL    HW225239   2.190   3.662   7.042  2.7295  1.2436  0.6387
35877SOL     OW25240   0.957  13.432   4.096 -0.2389  0.0248 -0.2230
35877SOL    HW125241   0.891  13.379   4.141 -0.3922  0.5052  0.1372
35877SOL    HW225242   0.909  13.475   4.025 -0.2472  0.1505 -0.1412
35878SOL     OW25243  13.012   1.302   6.544 -0.2497 -0.4302  0.2915
35878SOL    HW125244  13.028   1.387   6.585  0.7748 -1.1732  1.4903
35878SOL    HW225245  13.054   1.238   6.601 -0.3544 -1.6970 -0.9653
35879SOL     OW25246   6.439   2.405   3.760  0.3688 -0.1760 -0.7824
35879SOL    HW125247   6.521   2.430   3.717  1.2094 -0.8775  0.3582
35879SOL    HW225248   6.389   2.362   3.691  1.0914 -0.0128 -1.4309
35880SOL     OW25249  12.723   4.047   3.912  0.0700  0.2537  0.4110
35880SOL    HW125250  12.732   3.982   3.842  0.6983  0.9499 -0.1700
35880SOL    HW225251  12.803   4.038   3.963  0.9919  1.7161 -0.6860
35881SOL     OW25252   4.201   0.441  13.241 -0.0558  0.1583  0.5896
35881SOL    HW125253   4.255   0.379  13.288  2.3633  0.6239 -1.3848
35881SOL    HW225254   4.261   0.510  13.213 -1.6828  0.8326 -1.5549
35882SOL     OW25255   8.445   3.973  11.012  0.2614  0.4250  0.1047
35882SOL    HW125256   8.512   4.002  11.074  0.5587  1.3416 -0.6190
35882SOL    HW225257   8.417   4.053  10.967  0.0849 -0.2094 -0.9640
35883SOL     OW25258   0.420  10.180  12.834 -0.4273 -0.4912  0.1064
35883SOL    HW125259   0.339  10.186  12.784 -0.2065 -2.7681 -0.6217
35883SOL    HW225260   0.393  10.141  12.918 -0.1207 -1.2163 -0.1235
35884SOL     OW25261  13.287   3.256  12.200  0.2595  0.4598  0.2668
35884SOL    HW125262  13.358   3.283  12.142  0.1079  1.3019  0.4664
35884SOL    HW225263  13.259   3.336  12.243 -3.1228  0.8732 -2.3037
35885SOL     OW25264  11.731   2.232   0.828 -0.0391  0.6326  0.8144
35885SOL    HW125265  11.722   2.158   0.888  1.2831  1.0067  1.5137
35885SOL    HW225266  11.804   2.283   0.863  0.4198  1.1678 -0.8089
35886SOL     OW25267   6.592  13.138   8.518 -0.0242 -0.4414 -0.2880
35886SOL    HW125268   6.567  13.124   8.427 -0.9151  2.3645 -0.5715
35886SOL    HW225269   6.687  13.152   8.515  0.2110 -1.9371 -0.5178
35887SOL     OW25270  13.804   6.062   7.428 -0.1860 -0.1469  0.1538
35887SOL    HW125271  13.811   6.001   7.355 -0.6201 -0.3672  0.2964
35887SOL    HW225272  13.794   6.148   7.387  0.0193 -0.2147 -0.0430
35888SOL     OW25273  10.283   2.686   2.567 -0.3612  0.2421 -0.1925
35888SOL    HW125274  10.347   2.689   2.638 -1.4066  1.1352  0.7333
35888SOL    HW225275  10.329   2.721   2.491  0.7042 -0.5354  0.0709
35889SOL     OW25276  14.049   8.483  10.455 -0.2598  0.6593  0.1058
35889SOL    HW125277  14.041   8.522  10.542 -3.0209  0.4067  0.0750
35889SOL    HW225278  13.998   8.402  10.461  0.3858  0.0960 -1.4764
35890SOL     OW25279  13.381  11.162   8.127  0.2391 -0.4419  0.1882
35890SOL    HW125280  13.399  11.248   8.165 -1.2033 -0.3636  0.7343
35890SOL    HW225281  13.315  11.178   8.061 -1.0036 -1.2803  1.1802
35891SOL     OW25282   7.863  12.307  10.596  0.0111  0.6154  0.6255
35891SOL    HW125283   7.806  12.289  10.671 -2.5034  3.1994 -0.5023
35891SOL    HW225284   7.950  12.275  10.624 -1.2153 -0.3730  3.7764
35892SOL     OW25285  13.227  12.152  11.420  0.1898  0.4958 -0.2016
35892SOL    HW125286  13.294  12.201  11.466  1.1568 -1.7472  0.9471
35892SOL    HW225287  13.274  12.083  11.373 -1.2063 -0.5383 -0.1723
35893SOL     OW25288  12.400  12.866   8.509 -0.0140  0.0380  0.1747
35893SOL    HW125289  12.383  12.949   8.465 -0.2210  0.0231  0.2267
35893SOL    HW225290  12.358  12.875   8.594  0.0094 -0.1002  0.2009
35894SOL     OW25291   5.384   9.525  13.040  0.0929  0.6890 -0.2546
35894SOL    HW125292   5.440   9.512  13.116 -0.5397  0.5528  0.1984
35894SOL    HW225293   5.296   9.504  13.071 -0.0130 -0.6612 -1.3705
35895SOL     OW25294   0.916   6.249   5.040  0.6951  0.6463  0.1017
35895SOL    HW125295   0.831   6.233   5.082  1.8130 -1.5449  1.7840
35895SOL    HW225296   0.915   6.194   4.962 -0.1410  2.2036 -1.0412
35896SOL     OW25297  10.602  13.998   9.309 -0.7285 -0.4092  0.3793
35896SOL    HW125298  10.560  13.915   9.333  1.3415 -1.5299  0.3847
35896SOL    HW225299  10.638  14.031   9.392  1.7063 -1.4937 -0.1649
35897SOL     OW25300   4.345   6.828  10.540  0.7238 -0.3275 -0.0786
35897SOL    HW125301   4.354   6.854  10.632  1.1299 -1.0594  0.0982
35897SOL    HW225302   4.433   6.803  10.513  0.6318  0.0036 -0.7148
35898SOL     OW25303   0.956   9.840   2.292 -0.3604 -0.1075  0.2975
35898SOL    HW125304   0.966   9.766   2.352  0.0079  0.3846  0.8540
35898SOL    HW225305   0.984   9.916   2.342 -0.1984  0.3407 -0.4498
35899SOL     OW25306  11.977   1.273   1.462  0.4954  0.2326 -0.0896
35899SOL    HW125307  11.941   1.213   1.527  2.5576 -1.2237 -0.1936
35899SOL    HW225308  11.976   1.224   1.380  2.9634 -0.0693 -0.0297
35900SOL     OW25309   5.044   0.643   3.982  0.4825  0.5114  0.1363
35900SOL    HW125310   5.103   0.590   4.034 -0.8737 -1.4505 -0.2312
35900SOL    HW225311   4.995   0.580   3.929 -0.1204  2.2357 -1.4839
35901SOL     OW25312  12.565   7.012   9.786  0.3866 -0.5050  0.2385
35901SOL    HW125313  12.509   7.080   9.748 -0.8216 -0.7872  1.4544
35901SOL    HW225314  12.581   6.951   9.714 -1.1779 -0.5967 -0.0592
35902SOL     OW25315   3.758   3.200  13.501  0.4519 -0.2960  0.7136
35902SOL    HW125316   3.747   3.183  13.594  0.8171  0.8830  0.9995
35902SOL    HW225317   3.669   3.209  13.467  0.3163 -0.7904  0.9384
35903SOL     OW25318   8.761   2.073   9.085  0.2419 -0.5695  0.2133
35903SOL    HW125319   8.692   2.083   9.019  0.2925  0.8249  0.3487
35903SOL    HW225320   8.713   2.062   9.167  0.0732  2.6421  0.6603
35904SOL     OW25321  11.473   9.779  12.329  0.7025  0.3196 -1.0158
35904SOL    HW125322  11.463   9.875  12.331  1.6709  0.4233 -0.9659
35904SOL    HW225323  11.414   9.751  12.259  0.3801  0.9487 -1.0099
35905SOL     OW25324   4.416   6.881   3.316 -0.1276 -0.0817  0.0554
35905SOL    HW125325   4.420   6.916   3.227 -0.3936  0.2307  0.1662
35905SOL    HW225326   4.340   6.823   3.315 -0.6736  0.6144  0.3223
35906SOL     OW25327   0.751   0.515   3.138 -0.0298  0.2543 -0.1083
35906SOL    HW125328   0.754   0.442   3.200  0.4477 -0.3661 -0.8330
35906SOL    HW225329   0.796   0.587   3.182 -1.7826  0.6242  1.2194
35907SOL     OW25330   5.682   1.474  13.670  0.0235  0.3319 -0.0511
35907SOL    HW125331   5.675   1.450  13.763 -0.0992  1.4764  0.2468
35907SOL    HW225332   5.611   1.426  13.628  0.4794 -0.7076  0.3313
35908SOL     OW25333   0.805   2.708   1.226 -0.1585  0.0872 -0.0968
35908SOL    HW125334   0.851   2.667   1.153  1.9022 -0.2172  1.2846
35908SOL    HW225335   0.864   2.777   1.256 -0.8093  0.0250  1.4372
35909SOL     OW25336  12.478   0.566   9.557  0.5701  0.3084  0.0719
35909SOL    HW125337  12.500   0.587   9.466  2.0217  0.8399  0.5295
35909SOL    HW225338  12.436   0.645   9.591 -0.2651  0.0005 -0.2014
35910SOL     OW25339  10.341   2.033   6.994  0.4360  0.2729 -0.3147
35910SOL    HW125340  10.336   2.096   7.066  1.8772  1.2449 -1.0090
35910SOL    HW225341  10.421   2.057   6.947  0.1141 -1.0275 -1.6012
35911SOL     OW25342   6.411   0.171  11.196  0.0821 -0.0995  0.1941
35911SOL    HW125343   6.479   0.154  11.130  0.6853  0.3685  0.6754
35911SOL    HW225344   6.448   0.137  11.278 -1.1626 -1.7898  0.1064
35912SOL     OW25345   9.219  10.589   8.032  0.5027 -0.0787 -0.2251
35912SOL    HW125346   9.229  10.670   7.982  0.6442  0.1526  0.1725
35912SOL    HW225347   9.224  10.616   8.124  2.8672 -0.7943 -0.0566
35913SOL     OW25348   6.104  10.771  11.413 -0.0845 -0.3715 -0.7171
35913SOL    HW125349   6.130  10.681  11.391 -3.1782 -1.5826  0.0585
35913SOL    HW225350   6.008  10.769  11.412 -0.3550  2.0373  2.7061
35914SOL     OW25351  12.923   8.993  12.401  0.1145 -0.0847 -0.1876
35914SOL    HW125352  12.954   8.987  12.311  0.5341 -1.4405  0.0192
35914SOL    HW225353  12.896   8.903  12.423 -0.9854  0.4341  0.6918
35915SOL     OW25354   9.085  12.150   2.943 -0.1864 -0.2897  0.0237
35915SOL    HW125355   9.090  12.064   2.985 -0.4818 -1.1342 -1.5978
35915SOL    HW225356   9.138  12.207   2.999 -1.1495 -1.1820  1.9058
35916SOL     OW25357  11.366   5.348   6.415 -0.0280  0.5232 -0.1309
35916SOL    HW125358  11.335   5.353   6.325 -0.8405  0.2351  0.1263
35916SOL    HW225359  11.461   5.338   6.407 -0.0987  0.4625 -0.9555
35917SOL     OW25360   1.603   6.264  10.734 -0.3491  0.2714 -0.0156
35917SOL    HW125361   1.691   6.279  10.770 -0.7116 -0.8610  1.4560
35917SOL    HW225362   1.573   6.184  10.778 -1.3879 -0.4248 -1.9046
35918SOL     OW25363   6.324  13.554   2.109 -0.0118 -0.3263  0.4861
35918SOL    HW125364   6.418  13.567   2.097  0.2567 -0.7455  1.9541
35918SOL    HW225365   6.284  13.636   2.079  0.7080 -0.5297 -1.1497
35919SOL     OW25366   3.427   0.292   3.375  0.1503 -0.4637 -0.8726
35919SOL    HW125367   3.423   0.387   3.383  2.5768 -0.4094  0.9899
35919SOL    HW225368   3.386   0.259   3.455 -0.2024 -0.9872 -1.2569
35920SOL     OW25369   1.002   6.938   1.719 -0.0908 -0.0495  0.7258
35920SOL    HW125370   0.938   6.972   1.656 -1.0059  0.6754  2.0101
35920SOL    HW225371   1.080   6.921   1.666 -0.4041  1.7344 -0.4137
35921SOL     OW25372   8.944   6.233  11.571 -0.0166 -0.0878  0.3394
35921SOL    HW125373   9.006   6.161  11.556 -1.1923 -1.0920  0.1316
35921SOL    HW225374   8.917   6.224  11.662 -1.5882 -1.1042 -0.1917
35922SOL     OW25375   2.871   7.392  10.888  0.1584  0.0106  0.1288
35922SOL    HW125376   2.905   7.382  10.800 -1.5251  0.0473 -0.5762
35922SOL    HW225377   2.946   7.421  10.940  1.0873  0.4183 -1.3707
35923SOL     OW25378   2.804   6.048   5.858  0.1285  0.0294  0.0174
35923SOL    HW125379   2.736   6.004   5.909 -0.5227  0.4893 -0.4350
35923SOL    HW225380   2.846   5.978   5.808  0.4795 -0.3587  0.8558
35924SOL     OW25381   3.850   1.512   4.750 -0.3963 -0.6680 -0.3287
35924SOL    HW125382   3.795   1.589   4.768  0.8097 -0.0124  0.7665
35924SOL    HW225383   3.850   1.504   4.655 -0.0616  1.0902 -0.5159
35925SOL     OW25384  12.096  10.856   7.048 -0.1468 -0.2381  0.3228
35925SOL    HW125385  12.018  10.818   7.089  0.5052 -2.7445 -0.5570
35925SOL    HW225386  12.065  10.890   6.964 -0.3618 -1.1058  0.0349
35926SOL     OW25387  11.230   4.222   7.277  0.4849  0.2287 -0.1593
35926SOL    HW125388  11.255   4.185   7.192 -2.4515 -0.8242 -0.6792
35926SOL    HW225389  11.143   4.260   7.262  0.4850  1.2984  2.0709
35927SOL     OW25390   1.889   9.050  11.605  0.1347  0.0424  0.5122
35927SOL    HW125391   1.962   8.987  11.605 -0.6430 -0.8845  0.7304
35927SOL    HW225392   1.930   9.133  11.581  0.9540 -0.8177 -1.3017
35928SOL     OW25393   5.600  11.331  10.526 -0.1683  0.1294 -0.2728
35928SOL    HW125394   5.669  11.364  10.468  0.8400 -2.4247 -0.6700
35928SOL    HW225395   5.518  11.360  10.486  0.5829  1.5849 -0.8514
35929SOL     OW25396   7.443  11.933   4.804  0.0152  0.0902  0.0669
35929SOL    HW125397   7.413  11.852   4.762 -0.0264  0.5617 -0.8285
35929SOL    HW225398   7.434  12.000   4.736  0.1248  0.8345  0.7755
35930SOL     OW25399   0.855   9.136   8.487  0.0808  0.5374  0.2222
35930SOL    HW125400   0.836   9.174   8.572 -0.4480  0.9322 -0.0645
35930SOL    HW225401   0.930   9.185   8.454 -0.0367  0.7361  0.2451
35931SOL     OW25402  13.690   2.269   1.298 -0.2711 -0.6455  0.3176
35931SOL    HW125403  13.698   2.275   1.203 -0.8362 -0.6777  0.2687
35931SOL    HW225404  13.679   2.176   1.315  2.0604 -0.9443  0.5967
35932SOL     OW25405   4.029   7.386   4.067  0.4690  0.2397  0.1140
35932SOL    HW125406   3.985   7.471   4.077  0.1370  0.0682  0.0944
35932SOL    HW225407   4.119   7.409   4.043  0.2976  0.5801 -0.2059
35933SOL     OW25408  13.104   4.637   2.066  0.1025  0.2631  0.3206
35933SOL    HW125409  13.192   4.659   2.037  0.4426 -0.5932  0.6598
35933SOL    HW225410  13.050   4.712   2.041  0.4664 -0.1721 -1.9768
35934SOL     OW25411   2.341   7.785   8.223 -0.1436  0.4386 -0.0990
35934SOL    HW125412   2.344   7.784   8.319 -0.5085  0.6112 -0.0855
35934SOL    HW225413   2.430   7.760   8.196 -0.3768 -0.8472  0.2826
35935SOL     OW25414  14.029   1.072   2.659 -0.2743 -0.0672 -0.3379
35935SOL    HW125415  13.948   1.044   2.702  0.1670 -0.8383  0.0177
35935SOL    HW225416  14.084   1.102   2.731 -0.5743  1.3297 -0.6742
35936SOL     OW25417  13.381   8.969  12.323  0.0145  0.2124 -0.0888
35936SOL    HW125418  13.377   8.924  12.239  0.0485  1.2934 -0.6838
35936SOL    HW225419  13.474   8.970  12.345  0.1693  1.1765 -0.7430
35937SOL     OW25420   8.895   8.314  13.020  0.4220 -0.2221  0.5043
35937SOL    HW125421   8.895   8.388  12.959 -1.1492 -0.0375  0.6984
35937SOL    HW225422   8.933   8.242  12.969 -1.4242 -0.2490 -0.9586
35938SOL     OW25423   8.254  11.905   2.186  0.2090  0.3901 -0.3642
35938SOL    HW125424   8.227  11.813   2.179 -0.8222  0.6931 -0.5750
35938SOL    HW225425   8.342  11.901   2.224  0.4456 -0.7045 -0.9863
35939SOL     OW25426   4.450   0.360   1.691 -0.2312 -0.2667  0.8467
35939SOL    HW125427   4.434   0.345   1.784 -0.2752  4.0196  1.7235
35939SOL    HW225428   4.499   0.442   1.688  1.6349 -1.2899 -2.8929
35940SOL     OW25429   6.313  13.846   1.842  0.3370  0.4615  0.0545
35940SOL    HW125430   6.355  13.841   1.757 -0.1796  0.2744 -0.1976
35940SOL    HW225431   6.382  13.827   1.905  0.3466 -1.1783 -0.4189
35941SOL     OW25432  13.022   1.905  12.293 -0.1793  0.4211  0.4895
35941SOL    HW125433  13.028   1.910  12.389  1.7612  2.5925  0.3304
35941SOL    HW225434  12.982   1.987  12.267 -2.0285 -0.7421 -0.5562
35942SOL     OW25435  10.533   3.026  11.436 -0.4132 -0.3815  0.4334
35942SOL    HW125436  10.440   3.028  11.461 -0.5851 -1.4066 -0.0462
35942SOL    HW225437  10.532   3.028  11.341  0.1730  1.8434  0.4179
35943SOL     OW25438   0.268   9.571   0.339  0.3088  0.0028 -0.1580
35943SOL    HW125439   0.342   9.613   0.382  1.1180  0.5467 -1.9618
35943SOL    HW225440   0.237   9.635   0.275  0.7555 -1.5904 -2.1072
35944SOL     OW25441   7.881   2.793   7.008  0.3615  0.5191 -0.3096
35944SOL    HW125442   7.875   2.725   7.075 -0.5857  0.1784 -0.7335
35944SOL    HW225443   7.900   2.873   7.058  0.2718  0.1667  0.3021
35945SOL     OW25444   2.263   1.194  11.263  0.9846 -0.0040 -0.0889
35945SOL    HW125445   2.254   1.288  11.243  1.7760  0.1069  0.0345
35945SOL    HW225446   2.252   1.189  11.358 -0.4959 -0.2353 -0.2515
35946SOL     OW25447  14.039  12.071  13.204  0.5493 -0.3484  0.7165
35946SOL    HW125448  14.094  12.072  13.282 -0.3914 -1.8182  1.4270
35946SOL    HW225449  14.069  12.147  13.153  2.0936 -0.1526  1.8481
35947SOL     OW25450   1.068   7.902  11.137  0.2934 -0.2968  0.1750
35947SOL    HW125451   1.123   7.896  11.059  0.6559 -2.1811  0.5359
35947SOL    HW225452   1.130   7.911  11.210  0.0008  0.1896  0.3759
35948SOL     OW25453   1.232   2.868   5.802 -0.3058 -0.5843  0.2238
35948SOL    HW125454   1.198   2.889   5.715 -1.3152 -3.5233 -0.2176
35948SOL    HW225455   1.165   2.900   5.862 -0.4900 -0.1721 -0.1944
35949SOL     OW25456  10.893   3.459   5.997 -0.6370  0.1353  0.1658
35949SOL    HW125457  10.837   3.383   6.010  0.2267 -0.7613 -1.1366
35949SOL    HW225458  10.915   3.457   5.904  1.3787  0.5966  0.5941
35950SOL     OW25459   0.596  12.031   0.827 -0.0702 -0.1382  0.2207
35950SOL    HW125460   0.679  12.057   0.867  0.4244 -1.2256 -0.0724
35950SOL    HW225461   0.537  12.018   0.902  0.2385 -0.0879  0.4774
35951SOL     OW25462  13.867   5.729   2.701  0.0515  0.7488 -0.2692
35951SOL    HW125463  13.849   5.812   2.745 -1.2601  0.5158 -0.3158
35951SOL    HW225464  13.907   5.754   2.618 -1.4264  1.4250 -0.8202
35952SOL     OW25465   4.786   2.019   7.526  0.2784 -0.4469 -0.2205
35952SOL    HW125466   4.835   2.086   7.478 -0.8974 -0.2602 -1.1990
35952SOL    HW225467   4.754   1.960   7.458 -1.6657 -0.0308  0.2785
35953SOL     OW25468   2.218   3.579   7.194 -0.6370  0.0814 -0.7200
35953SOL    HW125469   2.222   3.493   7.154 -0.7787 -0.8235  1.1039
35953SOL    HW225470   2.304   3.592   7.232 -1.1907 -0.1152  0.6546
35954SOL     OW25471   0.056   0.848   0.473 -0.7694 -0.5477  0.3992
35954SOL    HW125472   0.046   0.940   0.499 -1.4806 -0.2615 -0.8159
35954SOL    HW225473   0.020   0.844   0.384 -1.8567 -2.2396  0.8584
35955SOL     OW25474   7.127   6.439  12.767 -0.2158  0.8645  0.6725
35955SOL    HW125475   7.126   6.506  12.699 -1.2506  0.6118  0.4286
35955SOL    HW225476   7.150   6.358  12.722 -2.6419  0.3354  0.2317
35956SOL     OW25477  14.065   8.910   2.915  0.3083 -0.3447 -0.1956
35956SOL    HW125478  14.032   8.972   2.851 -0.0896 -0.7413 -0.3862
35956SOL    HW225479  14.135   8.863   2.869  1.1698  0.5065  0.2130
35957SOL     OW25480   0.766   8.732   7.410  0.1855  0.5160  0.0056
35957SOL    HW125481   0.861   8.720   7.406  0.0753 -0.3038 -0.3580
35957SOL    HW225482   0.750   8.777   7.493  0.7433 -0.8994  0.9134
35958SOL     OW25483   8.613   4.859   8.140 -0.4116  0.1973  0.3727
35958SOL    HW125484   8.627   4.769   8.110 -1.3774 -0.2286  1.1161
35958SOL    HW225485   8.587   4.849   8.232  0.1672  1.2912  0.6714
35959SOL     OW25486  11.310   6.884   0.260 -0.4889  0.1080 -0.3755
35959SOL    HW125487  11.303   6.829   0.182  1.6167 -0.4745 -0.2235
35959SOL    HW225488  11.299   6.974   0.227 -1.3571 -0.2230 -1.0381
35960SOL     OW25489  12.751   4.332  12.682  0.1537  0.1251  0.3304
35960SOL    HW125490  12.715   4.323  12.594 -0.4911 -1.4019  0.7185
35960SOL    HW225491  12.733   4.423  12.707 -2.3068 -0.2000  0.0078
35961SOL     OW25492  11.237   6.509   3.056  0.5120 -0.3449  0.2238
35961SOL    HW125493  11.314   6.508   3.112  1.0156 -1.0969 -0.4629
35961SOL    HW225494  11.270   6.534   2.970  0.0257 -0.8830 -0.1261
35962SOL     OW25495  11.545   8.283   7.726  0.1565 -0.2967  0.3101
35962SOL    HW125496  11.605   8.291   7.800  0.4212 -2.5100  0.4193
35962SOL    HW225497  11.596   8.240   7.658 -0.8929 -0.9578 -0.0877
35963SOL     OW25498  12.579  10.182   8.757  0.0171 -0.3024 -0.0153
35963SOL    HW125499  12.576  10.090   8.782 -1.0837 -0.7064 -1.4301
35963SOL    HW225500  12.489  10.212   8.769 -0.0490  0.0623 -1.2956
35964SOL     OW25501   9.643   6.002   2.922  0.1213 -0.3243  0.3758
35964SOL    HW125502   9.623   6.095   2.930 -1.3141 -0.4615 -0.9667
35964SOL    HW225503   9.557   5.959   2.922  0.7825 -1.7813  2.0279
35965SOL     OW25504  12.676   1.260   3.897  0.4157 -0.6711 -0.2594
35965SOL    HW125505  12.709   1.226   3.980 -0.0206 -0.3000  0.0688
35965SOL    HW225506  12.695   1.353   3.899 -0.3005 -0.5165 -0.2244
35966SOL     OW25507  12.527   8.762   5.545  0.0007 -0.3275  0.0680
35966SOL    HW125508  12.601   8.796   5.596  0.7186 -1.4224 -0.1988
35966SOL    HW225509  12.507   8.678   5.585  0.9483 -1.4906 -1.7316
35967SOL     OW25510   9.288   5.148  12.950  0.2567 -0.5259 -0.1583
35967SOL    HW125511   9.245   5.067  12.978  1.1697 -0.5477  1.3054
35967SOL    HW225512   9.382   5.128  12.954  0.4916  0.5737  0.1594
35968SOL     OW25513  11.078  13.618   1.391 -0.2155 -0.6182 -0.4986
35968SOL    HW125514  11.162  13.572   1.390 -0.3320 -0.9162  1.1312
35968SOL    HW225515  11.101  13.709   1.374  0.4959 -0.6366  0.2903
35969SOL     OW25516   2.186  12.630   0.806 -0.0743  0.0845 -0.0457
35969SOL    HW125517   2.210  12.600   0.719  0.1328  0.8942 -0.2762
35969SOL    HW225518   2.225  12.717   0.813 -1.8045  0.8807  0.0821
35970SOL     OW25519   4.787   1.658  13.208  0.5804 -0.5492  0.0850
35970SOL    HW125520   4.762   1.594  13.273  1.5637 -0.6123  0.4253
35970SOL    HW225521   4.880   1.676  13.226  0.5162  0.4324 -0.4424
35971SOL     OW25522  13.451   7.318  13.144 -0.0689 -0.2537 -1.3190
35971SOL    HW125523  13.485   7.265  13.216 -1.2666  1.0892  0.2870
35971SOL    HW225524  13.358   7.295  13.138 -0.4533  1.1531 -1.0318
35972SOL     OW25525  12.899   1.998  10.744 -0.5189 -0.4377  0.0265
35972SOL    HW125526  12.969   2.062  10.731 -0.1449 -1.0795 -1.3031
35972SOL    HW225527  12.867   2.014  10.832 -0.8120  1.9625 -0.4494
35973SOL     OW25528   7.324   4.885   2.397 -0.4729  0.0372 -0.1692
35973SOL    HW125529   7.260   4.913   2.462 -1.5986 -0.1861 -1.1667
35973SOL    HW225530   7.344   4.965   2.348 -0.3351  0.0068 -0.1635
35974SOL     OW25531   2.805   1.028  13.175  0.0019 -0.3831 -0.1269
35974SOL    HW125532   2.776   0.964  13.110 -0.5565 -0.0403 -0.2158
35974SOL    HW225533   2.778   0.990  13.259  0.0314 -0.4544 -0.1493
35975SOL     OW25534   0.362   6.383   7.260  0.4760  0.1866  0.7794
35975SOL    HW125535   0.276   6.342   7.257  0.2759  0.6619 -0.4497
35975SOL    HW225536   0.346   6.469   7.299  0.1902  0.7132 -0.4615
35976SOL     OW25537   1.958   7.311   5.687  0.4772  0.0763  0.1443
35976SOL    HW125538   2.016   7.380   5.720  0.7849  0.1151 -0.4691
35976SOL    HW225539   1.955   7.325   5.593  0.2250 -0.5101  0.0626
35977SOL     OW25540   8.830  10.082   2.240 -0.0228 -0.2663 -0.4654
35977SOL    HW125541   8.782  10.025   2.301 -0.0646  0.4556  0.1959
35977SOL    HW225542   8.898  10.026   2.203  0.1369 -0.6660  0.4133
35978SOL     OW25543   5.191   1.748   7.086  0.1043  0.0371  0.0749
35978SOL    HW125544   5.161   1.823   7.138  0.0691 -0.2924  0.5371
35978SOL    HW225545   5.114   1.719   7.039 -0.1976 -0.4916  0.8717
35979SOL     OW25546   0.669   3.072  13.377  0.3443  0.1785  0.0171
35979SOL    HW125547   0.751   3.025  13.393 -0.0288 -0.0418  1.3850
35979SOL    HW225548   0.697   3.158  13.344  1.0418 -0.7580 -2.0527
35980SOL     OW25549   4.806  13.890   1.198 -0.1700 -0.2482  0.5254
35980SOL    HW125550   4.725  13.938   1.181  0.4240  0.0782 -1.7118
35980SOL    HW225551   4.876  13.947   1.165  0.5696 -2.4092 -2.0728
35981SOL     OW25552   8.794   2.558   0.130 -0.1117 -0.0717 -0.6276
35981SOL    HW125553   8.850   2.527   0.060 -1.5089 -0.2957 -1.6829
35981SOL    HW225554   8.707   2.524   0.109 -0.4574 -0.7326  1.5785
35982SOL     OW25555   1.733   5.060  12.115 -0.3392 -0.3788  0.3318
35982SOL    HW125556   1.670   5.090  12.049  0.4471 -0.3301 -0.4095
35982SOL    HW225557   1.775   4.984  12.075  0.6113  0.0470  0.4975
35983SOL     OW25558   1.900   4.116   2.028  0.3147  0.5233 -0.1611
35983SOL    HW125559   1.869   4.204   2.049  1.2853  1.2669 -1.6671
35983SOL    HW225560   1.821   4.064   2.019 -0.3513  1.5644 -0.5055
35984SOL     OW25561   0.696   2.725   0.476  0.3381 -0.2149 -0.1478
35984SOL    HW125562   0.673   2.643   0.519  1.0343 -0.0222  0.6045
35984SOL    HW225563   0.760   2.701   0.409  1.5847 -0.1393  0.9687
35985SOL     OW25564  13.443   4.661  11.784  0.1636  0.3252  0.4117
35985SOL    HW125565  13.525   4.689  11.745 -0.8298  1.0514 -1.3096
35985SOL    HW225566  13.450   4.565  11.789  0.8483  0.3248 -0.3948
35986SOL     OW25567  13.796   2.845   2.400 -0.3691  0.0564 -0.7149
35986SOL    HW125568  13.746   2.774   2.440  0.3676 -0.1266 -0.1040
35986SOL    HW225569  13.768   2.923   2.447  0.7391 -0.2030  0.4256
35987SOL     OW25570   8.176   3.487   6.325 -0.4160  0.4080 -0.0304
35987SOL    HW125571   8.142   3.461   6.240  2.1310 -1.3832 -0.6184
35987SOL    HW225572   8.190   3.582   6.317  0.5567  0.1371 -1.9298
35988SOL     OW25573   4.924   7.811   6.101  0.4548  0.3503  0.2730
35988SOL    HW125574   4.848   7.858   6.067 -1.4562 -2.3324  0.6110
35988SOL    HW225575   4.969   7.778   6.023 -0.6176 -0.8358  0.1379
35989SOL     OW25576   1.113   6.473   8.179 -0.1832  0.1709  0.3580
35989SOL    HW125577   1.117   6.514   8.265  0.1975 -0.0715  0.4579
35989SOL    HW225578   1.092   6.544   8.119 -0.5216  0.3272  0.6607
35990SOL     OW25579   5.667   9.450   3.833 -0.7249 -0.7611 -0.3460
35990SOL    HW125580   5.708   9.480   3.752 -3.3151  0.0292 -1.4446
35990SOL    HW225581   5.679   9.355   3.831 -0.3648 -0.7129 -1.4208
35991SOL     OW25582  13.513   2.546  13.246 -0.1897 -0.0095  0.7962
35991SOL    HW125583  13.554   2.482  13.303 -0.8062 -0.3635  0.8405
35991SOL    HW225584  13.545   2.631  13.278 -0.3021 -0.2228  1.4778
35992SOL     OW25585  11.518  13.124   1.691 -0.4095 -0.3207  0.4130
35992SOL    HW125586  11.529  13.111   1.597 -0.2723 -0.4749  0.4518
35992SOL    HW225587  11.450  13.062   1.716 -1.3594  0.5850  0.1856
35993SOL     OW25588   2.129   0.820   7.787 -0.2651 -0.1969 -0.8052
35993SOL    HW125589   2.125   0.743   7.731  0.8652 -2.2332  1.7083
35993SOL    HW225590   2.216   0.816   7.826 -0.5097  1.8974  0.0799
35994SOL     OW25591  10.670   0.509   0.886 -0.0900  0.3003  0.2875
35994SOL    HW125592  10.681   0.598   0.922 -1.0605  0.9489 -0.9550
35994SOL    HW225593  10.745   0.461   0.920  0.3307  1.5300  1.1937
35995SOL     OW25594   7.358  13.458   0.137  0.1939 -0.4813  0.4942
35995SOL    HW125595   7.267  13.475   0.163  0.0344 -1.2796  0.4714
35995SOL    HW225596   7.410  13.492   0.210  0.0202  2.1627 -0.5185
35996SOL     OW25597  12.743   5.370   9.157 -0.3039  0.2511 -0.5307
35996SOL    HW125598  12.663   5.422   9.147 -0.0084  0.6700 -0.7486
35996SOL    HW225599  12.795   5.418   9.222 -0.9652 -0.9297  0.9363
35997SOL     OW25600   4.057   4.099   4.518  0.1331 -0.1630  0.2246
35997SOL    HW125601   4.037   4.122   4.427  0.8081  0.2105  0.1658
35997SOL    HW225602   4.104   4.015   4.511 -0.7315 -0.6642  0.3096
35998SOL     OW25603  11.080   8.630   5.513 -0.1547 -0.5504  0.6652
35998SOL    HW125604  11.044   8.552   5.556  1.1818 -1.4247  0.2528
35998SOL    HW225605  11.163   8.645   5.558 -0.5821  0.9120  1.0211
35999SOL     OW25606   4.598   4.179   7.456  0.5587 -0.1310 -0.2062
35999SOL    HW125607   4.679   4.228   7.469 -0.1557  1.1135 -0.3107
35999SOL    HW225608   4.627   4.093   7.424  1.8877 -0.1597  0.9502
36000SOL     OW25609  11.023   8.207   1.690 -0.5888  0.3949  0.1830
36000SOL    HW125610  10.950   8.231   1.747 -1.9537  0.3199 -1.4537
36000SOL    HW225611  11.067   8.136   1.736 -2.6960 -0.8479  0.3736
36001SOL     OW25612   6.663   5.758  12.501 -0.3166  0.5376 -0.6497
36001SOL    HW125613   6.676   5.823  12.569 -1.7262  1.1596 -0.9441
36001SOL    HW225614   6.653   5.675  12.548  0.4012  0.6926 -0.2155
36002SOL     OW25615  12.609  13.545   1.505  0.7483  0.1014 -0.1535
36002SOL    HW125616  12.660  13.523   1.583  0.0620  0.4159  0.3964
36002SOL    HW225617  12.604  13.641   1.507  0.9900  0.1291 -0.7576
36003SOL     OW25618   2.446   9.384   9.979  0.1611 -0.0706 -0.3119
36003SOL    HW125619   2.424   9.408  10.069 -0.5184  0.2058 -0.5437
36003SOL    HW225620   2.369   9.337   9.947  0.6855 -0.8038 -0.5217
36004SOL     OW25621   5.607   3.429  10.158  0.3756  0.4398 -0.1965
36004SOL    HW125622   5.699   3.427  10.130  0.5507  0.0389  0.3841
36004SOL    HW225623   5.564   3.487  10.095  0.9845  0.4649 -0.5998
36005SOL     OW25624   5.911  12.113  12.529  0.3305  0.3330  0.9263
36005SOL    HW125625   5.981  12.067  12.576 -0.6874 -2.0683  0.2338
36005SOL    HW225626   5.952  12.142  12.448  0.7899 -0.1797  0.9667
36006SOL     OW25627   1.582  12.628   7.885  0.7838 -0.4146 -0.1420
36006SOL    HW125628   1.644  12.586   7.826 -0.7377 -1.4073 -1.0967
36006SOL    HW225629   1.585  12.575   7.965  0.2858 -1.1968 -0.6338
36007SOL     OW25630   2.289  14.060   3.681  0.1421  0.6028 -0.0147
36007SOL    HW125631   2.362  14.121   3.686 -0.4374  1.2589  0.7065
36007SOL    HW225632   2.215  14.113   3.654 -0.1089 -0.0310 -0.6070
36008SOL     OW25633   4.311   0.574   9.230  0.2073 -0.2242  0.8338
36008SOL    HW125634   4.243   0.627   9.189  1.4189 -0.1927 -1.3485
36008SOL    HW225635   4.272   0.488   9.240 -0.3619 -0.0572  0.1528
36009SOL     OW25636   6.697   4.226   0.583 -0.3837  0.3328 -0.2428
36009SOL    HW125637   6.723   4.146   0.628 -0.7319  1.9796  3.1602
36009SOL    HW225638   6.602   4.229   0.592 -0.1622  2.5852  2.6249
36010SOL     OW25639  11.877   1.721   6.424 -0.2918 -0.3582  0.2730
36010SOL    HW125640  11.920   1.705   6.508  0.4892  0.8729  0.1386
36010SOL    HW225641  11.874   1.817   6.417 -1.0690 -0.4446 -0.7390
36011SOL     OW25642  12.264   5.050   7.364 -0.4470  0.0279 -0.4480
36011SOL    HW125643  12.282   5.139   7.335 -0.7141  1.0110  2.1766
36011SOL    HW225644  12.273   4.997   7.285 -1.0268  2.4439 -2.2370
36012SOL     OW25645  12.356   6.748   6.047 -0.0385 -0.0595 -1.0513
36012SOL    HW125646  12.261   6.748   6.043 -0.0216 -0.6198 -1.5005
36012SOL    HW225647  12.384   6.698   5.970  0.6466  1.1118 -1.6010
36013SOL     OW25648  12.900   8.419   3.990 -0.2786  0.3209 -0.1706
36013SOL    HW125649  12.914   8.457   4.077  1.7878 -0.0996 -0.2705
36013SOL    HW225650  12.908   8.493   3.930  1.4662  0.1534 -0.1956
36014SOL     OW25651   6.978   4.672   4.876  0.6907  0.4548  0.4760
36014SOL    HW125652   7.014   4.590   4.843  1.4972  0.9921 -0.0221
36014SOL    HW225653   6.901   4.647   4.926  1.3547 -0.6833  0.9677
36015SOL     OW25654   5.047  12.477  13.228 -0.1587  0.2118  0.0004
36015SOL    HW125655   5.099  12.443  13.155 -1.5587 -0.5304 -0.6930
36015SOL    HW225656   5.040  12.571  13.210  0.8356  0.3017  0.0462
36016SOL     OW25657   0.013   4.539   3.939  0.6139  0.5731 -0.3991
36016SOL    HW125658   0.106   4.551   3.954  0.5041 -0.4598  1.4654
36016SOL    HW225659   0.001   4.552   3.845  2.7293  0.0871 -0.7731
36017SOL     OW25660   4.651   4.070  11.426 -0.1515  0.7761  0.3160
36017SOL    HW125661   4.568   4.098  11.464  0.1363  4.1207 -1.1654
36017SOL    HW225662   4.637   4.074  11.331  0.8830 -1.5704 -0.0089
36018SOL     OW25663   1.032   3.546  10.700  0.2079 -0.1425 -0.0176
36018SOL    HW125664   1.044   3.464  10.654  0.8641 -0.9710  1.5467
36018SOL    HW225665   0.990   3.521  10.783  0.3913  1.0870  0.4707
36019SOL     OW25666   3.991   7.154   9.914 -0.4888  0.0683  0.2110
36019SOL    HW125667   4.013   7.191   9.999  2.2957 -0.7734 -0.0300
36019SOL    HW225668   3.985   7.229   9.855 -0.3861  0.5045  0.7552
36020SOL     OW25669   7.854   8.039   5.347  0.7278  0.0958 -0.1563
36020SOL    HW125670   7.827   7.960   5.301  0.8438  0.3331 -0.6396
36020SOL    HW225671   7.944   8.055   5.318  0.6718  0.4619 -0.1399
36021SOL     OW25672   0.866  11.148   1.749  0.5870 -0.3757 -0.5494
36021SOL    HW125673   0.806  11.185   1.815 -1.2463 -1.7733 -1.3233
36021SOL    HW225674   0.876  11.057   1.776  2.5644 -0.1480 -0.3753
36022SOL     OW25675  11.371   5.165   6.880 -0.3730  0.0289 -0.1167
36022SOL    HW125676  11.394   5.258   6.888  0.3647 -0.1697  0.1353
36022SOL    HW225677  11.391   5.143   6.789 -1.0988  0.2585 -0.3361
36023SOL     OW25678   0.831   0.862  11.074  0.0740 -0.1259  0.2991
36023SOL    HW125679   0.792   0.803  11.009 -0.4946  0.2833  0.2569
36023SOL    HW225680   0.839   0.809  11.153  1.9484 -1.0048 -0.4325
36024SOL     OW25681  13.235   2.112  10.320  0.0054 -0.3512  0.5296
36024SOL    HW125682  13.308   2.075  10.270 -0.7231 -1.6665  0.3769
36024SOL    HW225683  13.169   2.043  10.319 -1.2699  0.8270  0.6075
36025SOL     OW25684   5.024   1.271  12.152  0.3804  0.3368  0.4992
36025SOL    HW125685   4.948   1.329  12.154 -0.0122 -0.1681  0.4648
36025SOL    HW225686   4.991   1.187  12.185  0.4204 -0.4762 -1.4001
36026SOL     OW25687   2.977   6.983   9.917  0.7934 -0.4884  0.0355
36026SOL    HW125688   3.005   6.989   9.825 -2.1378  1.7534 -0.8729
36026SOL    HW225689   2.883   6.997   9.914  0.6106 -0.2513  3.4325
36027SOL     OW25690  11.991   7.087   4.192 -0.3636 -0.0883 -0.8114
36027SOL    HW125691  11.993   6.994   4.167  1.3772  0.0685 -1.3510
36027SOL    HW225692  11.984   7.133   4.108  0.1018  0.3091 -0.6292
36028SOL     OW25693   2.816  11.959  10.899 -0.1111  0.8696  0.7250
36028SOL    HW125694   2.785  11.984  10.812 -2.5574  2.1070  1.8456
36028SOL    HW225695   2.746  11.904  10.934  1.7566 -1.3146  1.2268
36029SOL     OW25696   0.964  10.839   8.258 -0.5640 -0.4304 -0.4085
36029SOL    HW125697   0.969  10.772   8.190 -0.8228  0.3197 -1.1965
36029SOL    HW225698   1.053  10.848   8.291  0.1500  1.0700 -2.5491
36030SOL     OW25699  10.306  11.186   7.879 -0.4438 -0.0945  0.2570
36030SOL    HW125700  10.365  11.256   7.905 -0.7973 -0.3861  1.9700
36030SOL    HW225701  10.337  11.110   7.928 -0.9105 -0.7942 -0.5152
36031SOL     OW25702   9.281   5.241   1.432  0.3257  0.3473  0.1190
36031SOL    HW125703   9.286   5.292   1.351 -2.0800 -1.7676 -1.4962
36031SOL    HW225704   9.203   5.187   1.422 -0.0739 -0.0588  3.8850
36032SOL     OW25705   0.407   5.697  11.544  0.4232  0.2833  0.5284
36032SOL    HW125706   0.367   5.776  11.508 -0.7563 -0.9073 -0.8794
36032SOL    HW225707   0.452   5.727  11.623 -0.0136  2.3432  0.0558
36033SOL     OW25708  11.329   3.761   2.502  0.4259  0.1417 -0.1535
36033SOL    HW125709  11.351   3.850   2.531  0.3023 -0.3262  1.4541
36033SOL    HW225710  11.242   3.744   2.539  0.7435 -0.8999  0.1547
36034SOL     OW25711   0.693  11.531   4.587  0.1561 -0.3403 -0.2615
36034SOL    HW125712   0.676  11.600   4.523  1.3686 -0.2492 -0.4962
36034SOL    HW225713   0.691  11.576   4.671 -0.7025 -0.3311 -0.2719
36035SOL     OW25714   0.080   0.973  11.786  0.0832 -0.4594  1.0535
36035SOL    HW125715   0.078   0.896  11.842  0.2388 -0.5584  0.9247
36035SOL    HW225716   0.147   1.029  11.825  0.6947 -0.8393  0.5648
36036SOL     OW25717   5.503  12.082   4.234  0.8971 -0.3496 -0.4039
36036SOL    HW125718   5.552  12.062   4.154 -0.2379 -0.4478 -1.0898
36036SOL    HW225719   5.556  12.148   4.279  2.6037 -1.7969 -0.1849
36037SOL     OW25720   1.558   9.632  10.618 -0.1176  0.6076 -0.2030
36037SOL    HW125721   1.611   9.579  10.558  0.0070 -1.0506  1.2951
36037SOL    HW225722   1.617   9.703  10.646  0.7358 -0.1857  0.0592
36038SOL     OW25723   4.836  10.950   5.219  0.4811  0.1418 -0.3603
36038SOL    HW125724   4.826  10.910   5.133 -2.0320  0.3318 -0.2474
36038SOL    HW225725   4.751  10.991   5.236  1.4853  1.6543  1.4577
36039SOL     OW25726   4.278   1.854  10.638  0.2336  0.6424  0.1779
36039SOL    HW125727   4.313   1.925  10.693 -0.5003  0.6421  0.6693
36039SOL    HW225728   4.244   1.899  10.561  1.2752  0.6438 -0.2956
36040SOL     OW25729  13.914   2.307   2.368  0.1276  0.1151  0.4180
36040SOL    HW125730  14.010   2.306   2.367  0.1355 -0.5447 -1.2750
36040SOL    HW225731  13.889   2.308   2.276 -1.5099  1.4013  0.8292
36041SOL     OW25732   5.945   3.781  12.413  0.3622  0.6341 -0.1149
36041SOL    HW125733   5.884   3.823  12.352  1.0341  1.4017 -0.2696
36041SOL    HW225734   5.908   3.798  12.499 -1.0729 -1.2144 -0.3005
36042SOL     OW25735  10.813   2.192   0.150  0.4418 -0.4972  0.4885
36042SOL    HW125736  10.809   2.277   0.194 -0.0724 -0.0155 -0.4609
36042SOL    HW225737  10.906   2.174   0.140  0.5542 -0.0834  0.7749
36043SOL     OW25738   8.226   3.295  10.556  0.2858 -0.5986  0.2361
36043SOL    HW125739   8.267   3.254  10.480  1.9961  0.0927  0.7376
36043SOL    HW225740   8.174   3.366  10.520  1.2704 -0.1313 -0.2926
36044SOL     OW25741   9.728   9.440   3.538 -0.1248  0.1077  0.5165
36044SOL    HW125742   9.817   9.448   3.575  1.1312 -2.4752 -1.6141
36044SOL    HW225743   9.716   9.346   3.526 -2.1454  0.5712 -1.6723
36045SOL     OW25744  11.575  13.079  10.658 -0.2847  0.0266 -0.6004
36045SOL    HW125745  11.531  13.152  10.702 -0.1710  0.0401 -0.5065
36045SOL    HW225746  11.511  13.008  10.658 -0.2137 -0.0399 -0.2281
36046SOL     OW25747   4.850   3.275   1.548 -0.3889 -0.3704  0.5960
36046SOL    HW125748   4.824   3.267   1.456 -0.6655 -0.7151  0.6998
36046SOL    HW225749   4.799   3.207   1.593 -0.7239  0.2083  1.1035
36047SOL     OW25750   3.069   5.566  13.281 -0.2343 -0.0218 -0.1392
36047SOL    HW125751   2.996   5.508  13.256 -0.9399  1.2111 -1.0335
36047SOL    HW225752   3.038   5.654  13.259  1.2412  0.6017  0.1962
36048SOL     OW25753   5.298  11.217  11.779 -0.2058 -0.3274  0.0443
36048SOL    HW125754   5.297  11.309  11.806 -0.4864 -0.3841  0.2417
36048SOL    HW225755   5.333  11.170  11.855  1.1497 -0.2581 -0.5136
36049SOL     OW25756  13.086  12.684   5.798  0.5094 -0.3765  0.3846
36049SOL    HW125757  13.102  12.779   5.796 -2.3861  0.1937 -1.7274
36049SOL    HW225758  13.113  12.653   5.712 -0.3073 -1.1279  0.3847
36050SOL     OW25759   2.272   5.882   3.800 -0.0833  0.3159  0.0445
36050SOL    HW125760   2.242   5.944   3.735  0.6025  1.4775  0.7955
36050SOL    HW225761   2.195   5.863   3.853 -1.1508 -2.1301 -2.1678
36051SOL     OW25762   1.105   4.523  10.900  0.4362  0.0765 -0.2398
36051SOL    HW125763   1.152   4.593  10.946  1.8251 -0.4988 -0.7455
36051SOL    HW225764   1.173   4.460  10.876 -0.5878 -0.7371 -1.0909
36052SOL     OW25765   6.011  12.967  13.756 -0.3726  0.3327 -0.1636
36052SOL    HW125766   5.954  12.985  13.830  0.3725  1.4036  0.1606
36052SOL    HW225767   6.033  13.053  13.720  2.9328  0.1864  1.1711
36053SOL     OW25768   9.394  13.495   4.238 -0.7629 -0.0941  0.4300
36053SOL    HW125769   9.317  13.517   4.290 -1.1537 -0.1588 -0.1137
36053SOL    HW225770   9.392  13.557   4.165 -0.6272 -0.4706  0.1020
36054SOL     OW25771   0.166   8.395   8.838 -0.1623  0.1650  0.4897
36054SOL    HW125772   0.134   8.438   8.917  1.8994  0.1231  1.4364
36054SOL    HW225773   0.136   8.451   8.766 -0.0186  1.5918  1.4947
36055SOL     OW25774   6.458  11.948  11.354  0.2105 -0.1613  0.3542
36055SOL    HW125775   6.470  12.040  11.332  0.3224  0.3115  2.2353
36055SOL    HW225776   6.546  11.917  11.377  0.5573 -1.3402 -2.1677
36056SOL     OW25777   9.387  13.091  10.254  0.3957  0.3587 -0.4804
36056SOL    HW125778   9.341  13.051  10.327  0.8092  1.0790  0.1933
36056SOL    HW225779   9.337  13.066  10.176  0.0358 -0.5343  0.0310
36057SOL     OW25780   8.131   4.770   2.532  0.6453  0.1255 -0.3157
36057SOL    HW125781   8.202   4.739   2.475  0.4028  2.0690 -1.7860
36057SOL    HW225782   8.150   4.863   2.545 -1.9460  0.8900 -1.3693
36058SOL     OW25783   3.459   9.142  12.732 -0.4690 -0.4432  0.2306
36058SOL    HW125784   3.398   9.068  12.730 -1.2980  0.2374 -0.1267
36058SOL    HW225785   3.484   9.150  12.824 -0.5897 -0.9898  0.3162
36059SOL     OW25786   7.255  11.309   1.608  0.5625 -0.1173 -0.2411
36059SOL    HW125787   7.237  11.385   1.664 -1.4068  0.5255 -1.6343
36059SOL    HW225788   7.332  11.268   1.648  0.4100  1.3855  1.7867
36060SOL     OW25789  10.733   2.778  10.697 -0.1052 -0.8271 -0.4961
36060SOL    HW125790  10.665   2.803  10.634  0.2256  1.9921  0.1178
36060SOL    HW225791  10.815   2.802  10.654  0.1888 -0.0320  0.4615
36061SOL     OW25792  12.039  11.680   9.354 -0.3611 -0.1164 -0.9400
36061SOL    HW125793  12.120  11.654   9.398 -1.1257  0.2189  0.7240
36061SOL    HW225794  12.048  11.774   9.341 -0.3655 -0.1278 -1.0253
36062SOL     OW25795   9.264   6.199   9.198 -0.1473  0.2894 -0.5456
36062SOL    HW125796   9.292   6.108   9.200  0.1913  0.3949  1.0394
36062SOL    HW225797   9.314   6.238   9.127  0.4213 -0.5503 -0.6179
36063SOL     OW25798   0.112   3.704   2.624  0.0678 -0.3588  0.6212
36063SOL    HW125799   0.035   3.654   2.651 -0.4619 -0.9832 -1.8040
36063SOL    HW225800   0.185   3.661   2.667 -0.8769  0.4794  3.3007
36064SOL     OW25801   0.434  10.152   7.885 -0.2210 -0.2746 -0.3254
36064SOL    HW125802   0.390  10.176   7.967 -1.3177  1.0723 -1.2625
36064SOL    HW225803   0.373  10.092   7.842 -0.0873 -0.2306 -0.5777
36065SOL     OW25804  13.858  13.850   4.119  0.1667 -0.7252 -1.1821
36065SOL    HW125805  13.820  13.806   4.044 -1.1857 -1.3878 -0.1515
36065SOL    HW225806  13.837  13.793   4.193  0.9744  0.1834 -0.2220
36066SOL     OW25807  12.007   5.702   3.434  0.0918 -0.2931 -0.0078
36066SOL    HW125808  12.026   5.641   3.363 -0.5113  1.2427 -1.5568
36066SOL    HW225809  12.003   5.647   3.512 -0.5967 -2.2632 -1.3493
36067SOL     OW25810  13.358  13.073  12.845 -0.1362  0.4758 -0.0536
36067SOL    HW125811  13.425  13.076  12.913 -0.3186  0.6529  0.1194
36067SOL    HW225812  13.277  13.096  12.890  0.1888  3.8059 -0.8936
36068SOL     OW25813   5.893   9.160  13.960  0.0838 -0.2268 -0.3910
36068SOL    HW125814   5.939   9.150  14.043  3.8757 -0.0649 -2.2762
36068SOL    HW225815   5.880   9.071  13.928 -1.6321 -0.3024  0.4347
36069SOL     OW25816  13.317   1.318   4.278  0.0605  0.1429  0.3754
36069SOL    HW125817  13.269   1.245   4.319 -0.9508  1.9457  2.6241
36069SOL    HW225818  13.394   1.277   4.240 -2.6377 -2.8013 -2.6063
36070SOL     OW25819   6.264  13.202   5.101  0.2077  0.9027 -0.9912
36070SOL    HW125820   6.196  13.229   5.164 -2.4772 -1.0666 -2.8169
36070SOL    HW225821   6.346  13.235   5.139 -1.0706 -0.6385  3.8543
36071SOL     OW25822  11.791   6.868   0.607  0.2000 -0.1412 -0.8856
36071SOL    HW125823  11.741   6.815   0.545 -0.3150  1.4636 -1.9265
36071SOL    HW225824  11.824   6.941   0.555 -0.2372  1.2706  0.7106
36072SOL     OW25825   1.934   6.743  11.924  0.1994 -0.1607  0.1103
36072SOL    HW125826   1.852   6.706  11.893 -0.7829  0.9201  1.3272
36072SOL    HW225827   1.971   6.677  11.983  2.0712 -2.2322 -3.0736
36073SOL     OW25828   4.609  10.729   2.654  0.3397 -0.3914  0.7958
36073SOL    HW125829   4.543  10.739   2.723 -0.1019 -0.3361  0.3731
36073SOL    HW225830   4.650  10.645   2.671 -1.3027 -1.4477 -0.1578
36074SOL     OW25831  13.765   5.880   8.681 -0.2751  0.2674 -0.3169
36074SOL    HW125832  13.795   5.799   8.640  3.1238  1.1718  0.1047
36074SOL    HW225833  13.750   5.939   8.608 -0.6802 -0.0838 -0.5247
36075SOL     OW25834  11.488   8.105  13.517  0.0535 -0.2441 -0.0566
36075SOL    HW125835  11.444   8.118  13.601 -0.1462 -1.0494 -0.0278
36075SOL    HW225836  11.417   8.112  13.452 -0.1827 -1.7462  0.0032
36076SOL     OW25837   4.129  11.042  11.304 -0.6040  0.5025  0.4923
36076SOL    HW125838   4.179  11.041  11.386 -0.3813  0.2765  0.3582
36076SOL    HW225839   4.065  11.112  11.315 -0.5882  0.4608  0.8676
36077SOL     OW25840   9.680  10.449   4.429  0.2655 -0.0114  0.2529
36077SOL    HW125841   9.762  10.401   4.433 -0.8072 -1.9599  0.1188
36077SOL    HW225842   9.618  10.388   4.389 -1.1385  1.5644 -0.0908
36078SOL     OW25843  11.107   4.029  11.557 -0.9303 -0.0670  0.2333
36078SOL    HW125844  11.187   4.079  11.575 -0.8343  0.5510 -1.6949
36078SOL    HW225845  11.131   3.939  11.577  0.3885  0.0567 -0.6246
36079SOL     OW25846   4.226   2.319   8.649  0.3869 -0.4155  0.0723
36079SOL    HW125847   4.138   2.305   8.613  0.0390 -0.1565  0.8074
36079SOL    HW225848   4.274   2.361   8.578  0.5092 -2.3027 -1.0559
36080SOL     OW25849  11.170   1.969   9.002  0.2881  0.0983 -0.0245
36080SOL    HW125850  11.190   1.984   9.095  2.0748 -1.8031 -0.0329
36080SOL    HW225851  11.242   2.010   8.955  0.2316 -0.3056 -0.4739
36081SOL     OW25852   4.915   0.661   2.977 -0.3538 -0.0468  0.3002
36081SOL    HW125853   4.924   0.715   3.056 -0.8756  0.6581 -0.1105
36081SOL    HW225854   4.822   0.664   2.957 -0.0758  0.6966 -0.9709
36082SOL     OW25855  13.912  11.849  13.632  0.4033  0.2670 -0.1744
36082SOL    HW125856  13.935  11.941  13.645  0.4682  0.1279  0.7705
36082SOL    HW225857  13.858  11.827  13.709 -0.9858 -0.0364 -1.1978
36083SOL     OW25858   1.885   1.139   3.611 -0.2329  0.1751 -0.5000
36083SOL    HW125859   1.954   1.080   3.581  1.5482  1.6674  0.4621
36083SOL    HW225860   1.852   1.180   3.530  1.4168  0.8875 -0.8473
36084SOL     OW25861   7.958   6.181  13.264  0.0425  0.4896  0.0338
36084SOL    HW125862   7.941   6.265  13.308 -1.7022  1.3561 -2.1192
36084SOL    HW225863   8.022   6.201  13.197  1.1241 -0.3818  0.7684
36085SOL     OW25864   3.029   6.442   4.019 -0.8606 -0.2663 -0.4403
36085SOL    HW125865   2.955   6.429   3.959  0.7326 -2.2217 -2.1069
36085SOL    HW225866   3.038   6.358   4.064 -0.1449  0.2265  0.3595
36086SOL     OW25867   6.605  11.809   3.635  1.1582 -0.4160  0.1251
36086SOL    HW125868   6.648  11.893   3.647  0.3386  0.0445 -0.0322
36086SOL    HW225869   6.658  11.764   3.569  0.1368  1.0929 -1.8507
36087SOL     OW25870   1.590   4.215   5.388 -0.2338  0.3796  0.2615
36087SOL    HW125871   1.511   4.169   5.361  0.5666 -0.2575 -1.1774
36087SOL    HW225872   1.615   4.267   5.311  1.5026 -0.5624  0.1141
36088SOL     OW25873   7.920   0.783   9.998  0.5319 -0.4688 -0.0718
36088SOL    HW125874   7.838   0.791   9.948  0.0756 -0.1860  0.6946
36088SOL    HW225875   7.988   0.808   9.936  0.0690 -1.0363 -0.8221
36089SOL     OW25876   6.236   5.650   5.595 -0.2473 -0.1728 -0.1058
36089SOL    HW125877   6.305   5.594   5.559 -0.5401  0.1747 -1.2367
36089SOL    HW225878   6.160   5.592   5.602 -0.3160 -0.1225 -0.4661
36090SOL     OW25879  12.031  13.247   5.973  0.2185 -0.2899  0.4225
36090SOL    HW125880  11.946  13.225   5.935 -0.2019  0.5805  0.8280
36090SOL    HW225881  12.094  13.219   5.907 -0.3372 -1.5111  0.3775
36091SOL     OW25882  13.983   1.793   9.784  0.1348  0.0852  0.2806
36091SOL    HW125883  14.049   1.773   9.717  0.1513  0.4410  0.1892
36091SOL    HW225884  13.902   1.760   9.747  0.6968 -3.5261  1.8052
36092SOL     OW25885   6.592   8.644   8.557 -0.0709  0.5377  0.1049
36092SOL    HW125886   6.653   8.707   8.519  2.5603 -1.3966  0.8906
36092SOL    HW225887   6.508   8.665   8.516  1.0127  3.4449 -0.8856
36093SOL     OW25888  10.251   5.902   3.009 -0.3700 -0.2365  0.2116
36093SOL    HW125889  10.229   5.932   2.921 -0.2354  0.2497  0.3430
36093SOL    HW225890  10.329   5.952   3.033 -0.2811 -0.5197  0.5260
36094SOL     OW25891   4.273   3.767   2.326 -0.2281  0.1292  0.0895
36094SOL    HW125892   4.227   3.740   2.406 -1.4001 -0.0755 -0.6424
36094SOL    HW225893   4.228   3.847   2.298 -1.1521 -0.8938 -1.4663
36095SOL     OW25894  11.967   1.764  11.058 -0.0163 -0.0084  0.1366
36095SOL    HW125895  12.049   1.736  11.101 -0.7193 -0.4104  1.2659
36095SOL    HW225896  11.912   1.795  11.130 -0.5954  0.9530 -0.6992
36096SOL     OW25897   2.609   1.369   0.698  0.3361  0.0901  0.7396
36096SOL    HW125898   2.547   1.310   0.655 -1.8363  2.8637 -0.2375
36096SOL    HW225899   2.685   1.370   0.640 -0.6242  0.1363 -0.5621
36097SOL     OW25900  12.588  11.503  10.055 -0.1836  0.4286  0.1614
36097SOL    HW125901  12.660  11.488   9.993 -0.1700 -0.4096  0.3715
36097SOL    HW225902  12.563  11.594  10.041  2.1282  1.3374  1.3454
36098SOL     OW25903   2.866   9.757   9.598  0.2914 -0.5327  0.3213
36098SOL    HW125904   2.846   9.671   9.561 -1.1313 -0.4015  0.7181
36098SOL    HW225905   2.787   9.809   9.583  1.8193  1.3672 -1.6840
36099SOL     OW25906   4.539   0.703   6.876 -0.3900 -0.3097  0.0896
36099SOL    HW125907   4.523   0.615   6.911 -0.9746 -0.1497  0.2419
36099SOL    HW225908   4.466   0.755   6.910 -0.3332  0.1127 -0.4329
36100SOL     OW25909   8.393   6.836   7.472  0.4659  0.2835  0.1367
36100SOL    HW125910   8.439   6.908   7.514  0.5875 -0.7942  1.9575
36100SOL    HW225911   8.302   6.865   7.466  0.6580  0.8807  0.1426
36101SOL     OW25912  10.160   9.735   4.953  0.5701 -0.3207 -0.2779
36101SOL    HW125913  10.090   9.798   4.940  0.7236 -0.3894 -1.4940
36101SOL    HW225914  10.233   9.768   4.901  1.1890 -0.6633  0.3470
36102SOL     OW25915   9.856   4.782   4.054  0.5228  0.3341  0.2235
36102SOL    HW125916   9.768   4.748   4.069  0.5574 -0.0271 -0.3895
36102SOL    HW225917   9.849   4.875   4.072  0.3307  0.0946  1.5137
36103SOL     OW25918   2.482  11.384   2.033 -0.3621  0.4242 -0.4438
36103SOL    HW125919   2.402  11.430   2.009  0.3093  1.1359 -1.3907
36103SOL    HW225920   2.528  11.444   2.091 -1.0515 -0.4857  1.1176
36104SOL     OW25921   6.947   9.635   4.883  0.1738 -0.3853  0.0492
36104SOL    HW125922   6.924   9.671   4.797  0.3604 -0.6709 -0.1217
36104SOL    HW225923   7.042   9.645   4.888  0.1371 -0.1555  0.3231
36105SOL     OW25924   6.730  13.930   9.302  0.7188  0.2043 -0.7554
36105SOL    HW125925   6.688  13.986   9.366 -0.5339 -0.5605 -0.8546
36105SOL    HW225926   6.662  13.916   9.235  0.8608 -1.6557 -0.5645
36106SOL     OW25927   7.373   0.276  10.967 -0.3843  0.2537  0.3988
36106SOL    HW125928   7.401   0.188  10.943  0.1102  0.1233  1.4281
36106SOL    HW225929   7.396   0.330  10.891 -1.6276 -0.6590 -0.6719
36107SOL     OW25930  10.402   7.935  12.149  0.4766  0.2734  0.2628
36107SOL    HW125931  10.355   7.922  12.067 -2.1736  2.0538  1.3523
36107SOL    HW225932  10.469   8.000  12.128 -0.4573  1.0481 -0.4533
36108SOL     OW25933   1.078   8.571  13.375  0.1123 -0.2724 -0.1028
36108SOL    HW125934   0.997   8.556  13.326  0.4862 -0.1222 -0.7874
36108SOL    HW225935   1.091   8.666  13.369  1.4002 -0.5104 -1.7590
36109SOL     OW25936  11.486   3.921   6.963 -0.7133 -0.9003  0.2480
36109SOL    HW125937  11.511   4.010   6.942 -1.5279 -0.6162  0.4431
36109SOL    HW225938  11.422   3.897   6.896 -0.5409 -1.3232  0.2265
36110SOL     OW25939  12.986   6.629   2.077 -0.2782 -0.1401  0.2850
36110SOL    HW125940  13.066   6.577   2.071 -0.5760 -0.5898  0.1295
36110SOL    HW225941  13.009   6.712   2.035  0.2465 -0.0868  0.6680
36111SOL     OW25942   0.999   1.353  10.765  0.1218 -0.2680 -0.2647
36111SOL    HW125943   0.970   1.419  10.702  0.6882 -0.2054 -0.4598
36111SOL    HW225944   0.922   1.296  10.776 -0.1166 -0.0332 -0.6887
36112SOL     OW25945   6.266   4.853  13.003  0.3846 -0.2584 -0.2301
36112SOL    HW125946   6.361   4.856  13.014  0.7456 -0.9536 -2.5991
36112SOL    HW225947   6.241   4.766  13.033  0.5363 -0.2066  0.0537
36113SOL     OW25948   3.182   1.696   5.831 -0.3380  0.0704 -0.0882
36113SOL    HW125949   3.102   1.649   5.853 -0.5765  0.3303 -0.3962
36113SOL    HW225950   3.242   1.629   5.799 -0.4566 -0.1120  0.0698
36114SOL     OW25951   1.468   6.457  12.933  0.0622 -0.4009 -0.1872
36114SOL    HW125952   1.477   6.375  12.884  0.2105  0.1345 -1.0835
36114SOL    HW225953   1.446   6.429  13.022  2.2944 -1.4841  0.0928
36115SOL     OW25954   8.998   5.125  11.737  0.0933 -0.9397  0.0129
36115SOL    HW125955   9.052   5.202  11.757 -2.7464  0.6445  2.4267
36115SOL    HW225956   9.026   5.059  11.800 -1.0775  0.0907  1.6870
36116SOL     OW25957   5.281   1.881  11.989 -0.0988  0.2687  0.1719
36116SOL    HW125958   5.283   1.909  11.898 -1.2581 -1.1961 -0.3320
36116SOL    HW225959   5.231   1.950  12.034 -0.1087  0.6481 -0.4180
36117SOL     OW25960  13.416   5.624   0.623 -0.1709 -0.0754 -0.1508
36117SOL    HW125961  13.490   5.683   0.636  1.0566 -1.5221 -0.2394
36117SOL    HW225962  13.402   5.584   0.709  0.2023 -0.9465 -0.4778
36118SOL     OW25963   4.086   4.685   0.276  0.4205 -0.4526  0.0061
36118SOL    HW125964   4.163   4.722   0.233 -0.1200  0.5976 -0.0799
36118SOL    HW225965   4.079   4.596   0.240  0.8209 -0.0947 -0.9811
36119SOL     OW25966   9.191   7.913  14.092 -0.4262 -0.1693 -0.2021
36119SOL    HW125967   9.135   7.909  14.015 -0.3787  0.4921 -0.2751
36119SOL    HW225968   9.133   7.892  14.165 -1.2263  2.1905 -0.0618
36120SOL     OW25969   9.924  12.141   9.897  0.2524 -0.0700 -0.0540
36120SOL    HW125970   9.960  12.064   9.940 -0.8061 -0.5822 -0.0416
36120SOL    HW225971   9.983  12.212   9.920  0.3364 -0.5599  1.2969
36121SOL     OW25972   7.393  13.302   9.287 -0.1650  0.3156 -0.3369
36121SOL    HW125973   7.441  13.284   9.206  0.0668 -1.1220  0.0891
36121SOL    HW225974   7.368  13.216   9.319 -0.6563  0.8965  0.8862
36122SOL     OW25975  10.247   3.704   8.850 -0.0991  0.2977  0.4617
36122SOL    HW125976  10.323   3.762   8.845 -0.6083  0.9265 -0.6015
36122SOL    HW225977  10.258   3.644   8.776 -1.0052  0.9025 -0.1906
36123SOL     OW25978   2.984   2.573   2.506 -0.3097 -0.4130  0.1858
36123SOL    HW125979   3.054   2.632   2.477 -1.6849  0.3615 -1.7418
36123SOL    HW225980   2.961   2.522   2.428 -1.2734 -1.3243  1.0284
36124SOL     OW25981   2.368   6.254  11.026 -0.0508  0.2017 -0.2263
36124SOL    HW125982   2.348   6.329  11.082 -2.0738  0.3467 -1.0430
36124SOL    HW225983   2.387   6.291  10.940  1.6476 -0.1023 -0.0145
36125SOL     OW25984  13.903  10.561   7.358 -0.5215 -0.0299 -0.3573
36125SOL    HW125985  13.995  10.580   7.343 -0.0064 -1.4809  0.7255
36125SOL    HW225986  13.898  10.466   7.364 -2.2741 -0.0531 -1.3761
36126SOL     OW25987  13.895   1.740   2.043 -0.1267 -0.8049  0.2134
36126SOL    HW125988  13.895   1.656   1.997  1.9709 -1.7407  1.7604
36126SOL    HW225989  13.899   1.717   2.136 -0.2264  1.0214  0.7056
36127SOL     OW25990  10.404  10.913   2.574 -0.0469  0.1960  0.5361
36127SOL    HW125991  10.465  10.980   2.604 -0.2340  0.1777  0.9554
36127SOL    HW225992  10.407  10.919   2.478 -1.7476  2.3249  0.5536
36128SOL     OW25993   4.310   4.328   8.461 -0.4026 -0.1630 -0.1557
36128SOL    HW125994   4.384   4.267   8.463 -0.1630  0.0927  2.0824
36128SOL    HW225995   4.326   4.383   8.384  2.5278  0.7489  0.9656
36129SOL     OW25996  13.231  12.419   4.808  0.1302 -0.1514 -0.4372
36129SOL    HW125997  13.288  12.496   4.808 -1.3382  0.9707 -0.0318
36129SOL    HW225998  13.247  12.378   4.723  0.2313  1.1463 -1.0701
36130SOL     OW25999   9.890  10.600   5.015  0.6291  0.3101 -0.0504
36130SOL    HW126000   9.840  10.628   5.092  0.9634  0.1776  0.2151
36130SOL    HW226001   9.933  10.680   4.984  1.2071  0.1910  0.4294
36131SOL     OW26002   5.637  14.043  11.023 -0.2557  0.2813 -0.2671
36131SOL    HW126003   5.630  13.952  10.993  1.4450 -0.9628  2.6710
36131SOL    HW226004   5.725  14.070  10.996 -0.0355  0.3576  0.5095
36132SOL     OW26005   2.435   0.250  11.890 -0.1366  1.0079 -0.2176
36132SOL    HW126006   2.386   0.227  11.969  0.8711  0.1416  0.1765
36132SOL    HW226007   2.486   0.326  11.915  0.5195  0.4647  0.1117
36133SOL     OW26008  12.282   5.457   7.559 -0.2814  0.3375  0.3617
36133SOL    HW126009  12.293   5.445   7.465 -0.2353  0.7513  0.3122
36133SOL    HW226010  12.369   5.444   7.595 -0.6432 -1.8230  0.5807
36134SOL     OW26011  14.015   6.392   9.166 -0.2325  0.1366  0.5957
36134SOL    HW126012  14.046   6.481   9.186 -1.1721  1.0699 -1.7676
36134SOL    HW226013  13.934   6.383   9.216  0.0071  0.4942  1.0608
36135SOL     OW26014  13.955   6.553   8.942  0.1806  0.2647  0.0803
36135SOL    HW126015  14.025   6.609   8.976 -0.1586  0.5984  0.2372
36135SOL    HW226016  13.948   6.482   9.006  1.1309 -0.3865 -0.5143
36136SOL     OW26017  10.528   6.057  11.274 -0.4057  0.1397 -0.2702
36136SOL    HW126018  10.458   6.062  11.210 -0.8819  1.1649  0.3060
36136SOL    HW226019  10.483   6.043  11.358  0.1990 -1.1582 -0.1283
36137SOL     OW26020   6.130   9.338   4.327 -0.4061 -0.5321  0.2992
36137SOL    HW126021   6.058   9.332   4.264 -0.9785 -1.0852  0.9763
36137SOL    HW226022   6.208   9.318   4.276 -0.6268  0.8405 -0.6183
36138SOL     OW26023   1.262   4.643   2.827 -0.4627 -0.1287 -0.0627
36138SOL    HW126024   1.317   4.595   2.765  0.1451  0.4976 -0.0224
36138SOL    HW226025   1.203   4.694   2.772 -0.0813  0.2457 -0.1289
36139SOL     OW26026  12.372  13.614   1.193 -0.3723 -0.5387  0.1461
36139SOL    HW126027  12.421  13.665   1.128 -2.1975 -0.3566 -1.1730
36139SOL    HW226028  12.427  13.537   1.209  0.6513 -0.0244 -0.7316
36140SOL     OW26029  10.650   4.240   4.399  0.0722 -0.2051 -0.3276
36140SOL    HW126030  10.730   4.289   4.378 -0.0054  0.7404  1.4162
36140SOL    HW226031  10.667   4.201   4.485 -1.6402  0.7167  0.4753
36141SOL     OW26032   0.032   3.830   2.900 -0.6972 -0.0807 -0.0199
36141SOL    HW126033  -0.031   3.879   2.847 -2.0757 -1.2920  0.4248
36141SOL    HW226034   0.047   3.749   2.850  0.2279  0.0381  0.0588
36142SOL     OW26035   1.222   0.272  11.470 -0.6354 -0.2031  0.0957
36142SOL    HW126036   1.148   0.329  11.449  1.0695  1.3724 -2.0611
36142SOL    HW226037   1.217   0.202  11.405  1.0659  1.2604 -1.7443
36143SOL     OW26038   3.523  12.143   0.009 -0.0763 -0.3122 -0.2269
36143SOL    HW126039   3.616  12.122   0.000  0.4483  1.1056  1.4020
36143SOL    HW226040   3.492  12.086   0.079  0.7149  2.1524  2.3325
36144SOL     OW26041  11.761  11.436   7.778 -0.2232  0.2290 -0.2507
36144SOL    HW126042  11.732  11.482   7.857  0.0737  3.3198 -1.7895
36144SOL    HW226043  11.681  11.396   7.743 -0.9366  1.3068  0.1093
36145SOL     OW26044   9.167   2.744  12.115 -0.0048 -0.4754  0.2958
36145SOL    HW126045   9.078   2.709  12.125 -0.4176  0.1475 -1.0468
36145SOL    HW226046   9.173   2.812  12.182 -0.4906 -0.5962  0.4695
36146SOL     OW26047   8.664  13.778   4.905  0.3843  0.7054 -0.5710
36146SOL    HW126048   8.674  13.715   4.834 -1.1947  0.6624 -0.7753
36146SOL    HW226049   8.612  13.849   4.868 -1.4874  0.1292  0.8317
36147SOL     OW26050   7.451  12.297   1.022  0.6083  0.2900 -0.3721
36147SOL    HW126051   7.455  12.288   0.927 -2.6301 -1.1996 -0.5221
36147SOL    HW226052   7.482  12.213   1.056  0.2652  0.2274 -0.2067
36148SOL     OW26053   5.405  13.587   5.843 -0.0616 -0.4418  0.4267
36148SOL    HW126054   5.343  13.658   5.820  1.5327  0.3588 -1.7590
36148SOL    HW226055   5.351  13.508   5.843 -1.3483  0.3903 -0.1357
36149SOL     OW26056  13.255   6.532   6.553 -0.1101 -0.0467  0.3810
36149SOL    HW126057  13.268   6.607   6.612  0.2253  1.2986 -1.3299
36149SOL    HW226058  13.189   6.562   6.491  1.9482 -0.1004 -1.9847
36150SOL     OW26059   0.494   7.376   2.771  0.0969 -0.2403 -0.3495
36150SOL    HW126060   0.521   7.376   2.679 -2.3616 -1.7721 -1.1787
36150SOL    HW226061   0.540   7.302   2.809  1.3357  0.5597 -0.2245
36151SOL     OW26062   8.328   3.548  13.320 -0.0178 -0.3503 -0.1887
36151SOL    HW126063   8.314   3.642  13.305  1.0589 -0.2698 -0.8334
36151SOL    HW226064   8.347   3.541  13.413 -0.9834 -0.0522  0.0394
36152SOL     OW26065  11.252   9.395  11.268 -0.1086  0.7977  0.2521
36152SOL    HW126066  11.264   9.358  11.180  0.2852 -1.0503  1.0445
36152SOL    HW226067  11.294   9.332  11.326 -0.9676  1.6506  1.8410
36153SOL     OW26068   6.054   4.203   0.612 -0.1819  0.4019  0.0179
36153SOL    HW126069   6.135   4.249   0.636  2.5558 -3.1748 -1.5398
36153SOL    HW226070   6.039   4.142   0.685  2.0309 -2.9449 -2.0604
36154SOL     OW26071   4.127  11.808   7.645  0.2979 -0.3999  0.2752
36154SOL    HW126072   4.079  11.860   7.709 -1.0112 -1.8114  0.5130
36154SOL    HW226073   4.188  11.756   7.697  0.2093 -0.5419  0.2375
36155SOL     OW26074   4.556   9.639   3.269 -0.4062  0.7287  0.1313
36155SOL    HW126075   4.617   9.571   3.241 -1.2330 -0.4562  1.1260
36155SOL    HW226076   4.474   9.593   3.284 -1.3707  2.1776 -0.4660
36156SOL     OW26077   6.427   6.403   5.878 -0.2055  0.4774  0.2113
36156SOL    HW126078   6.337   6.433   5.895  0.0124  2.1691 -1.2726
36156SOL    HW226079   6.478   6.484   5.870  1.3190 -0.4419  0.2759
36157SOL     OW26080   7.554   3.269   3.777  0.0767  0.0264  0.1668
36157SOL    HW126081   7.519   3.356   3.758 -0.0090 -0.1129 -0.3076
36157SOL    HW226082   7.593   3.278   3.864  2.0566  1.1293 -0.7823
36158SOL     OW26083  13.600  10.745   4.636  0.0298  0.1406 -0.3207
36158SOL    HW126084  13.614  10.710   4.548  2.1982 -1.9902  0.7538
36158SOL    HW226085  13.681  10.791   4.657 -0.2728  0.2300  0.7044
36159SOL     OW26086   5.440   0.047   9.556 -0.3588 -0.5064  0.0654
36159SOL    HW126087   5.397  -0.025   9.510 -0.3937 -0.2917 -0.2369
36159SOL    HW226088   5.525   0.056   9.513 -0.5299 -0.0783 -0.1806
36160SOL     OW26089   0.776   5.996   4.303  0.3975 -0.6388  0.0194
36160SOL    HW126090   0.700   5.966   4.253  0.0200 -1.6732  1.1651
36160SOL    HW226091   0.807   5.918   4.348  1.4857  0.0067  0.4250
36161SOL     OW26092   1.995  10.378  10.692  0.5350 -0.5533 -0.5132
36161SOL    HW126093   1.935  10.324  10.641  0.1447 -0.5120 -0.1089
36161SOL    HW226094   2.056  10.316  10.732  0.5407 -0.6264 -0.6363
36162SOL     OW26095  12.181  13.355  13.887  0.2266  0.2611  0.0435
36162SOL    HW126096  12.184  13.263  13.914  0.2839  0.3463  0.3383
36162SOL    HW226097  12.096  13.365  13.844  0.1300  0.1219  0.2012
36163SOL     OW26098  13.939   3.119   6.127 -0.2035  0.3678 -0.1947
36163SOL    HW126099  14.019   3.135   6.176  1.4149 -2.5984 -1.5976
36163SOL    HW226100  13.893   3.053   6.178 -1.8839  2.0667  0.6131
36164SOL     OW26101  12.797   0.348   0.808  0.5153 -0.1757  0.1367
36164SOL    HW126102  12.865   0.403   0.769  2.1125 -1.1728  1.3861
36164SOL    HW226103  12.818   0.260   0.776 -0.2151 -0.4982  0.5300
36165SOL     OW26104   7.947   7.356   4.527 -0.3825 -0.4086 -0.7747
36165SOL    HW126105   7.966   7.303   4.604 -1.4787 -0.4651 -0.5238
36165SOL    HW226106   7.919   7.441   4.563  0.7144  0.1449 -1.1601
36166SOL     OW26107  11.498   9.694   8.908 -0.8968 -0.0996  0.3624
36166SOL    HW126108  11.530   9.698   8.818 -0.1195 -0.0030  0.6377
36166SOL    HW226109  11.462   9.605   8.916  1.6305 -1.1858  0.7921
36167SOL     OW26110  13.517  11.818  12.848  0.1381 -0.4016 -0.0508
36167SOL    HW126111  13.542  11.861  12.766  0.0815  0.5378  0.4025
36167SOL    HW226112  13.428  11.848  12.865  0.0357 -0.8380  0.1866
36168SOL     OW26113   7.260   8.408   2.798 -0.6628  0.5834 -0.1531
36168SOL    HW126114   7.298   8.461   2.868 -2.2319 -0.8460  1.9192
36168SOL    HW226115   7.174   8.382   2.832 -0.4080 -2.3705 -1.4613
36169SOL     OW26116  13.703  11.207   9.324  0.0727 -0.6419 -0.3669
36169SOL    HW126117  13.713  11.155   9.404 -0.3478  0.5429  0.4776
36169SOL    HW226118  13.764  11.279   9.334 -1.1460  0.4148 -0.3555
36170SOL     OW26119   6.952   4.191   4.448  0.1189 -0.2461 -0.0986
36170SOL    HW126120   6.880   4.254   4.446 -0.5632 -1.0157 -0.6773
36170SOL    HW226121   6.923   4.119   4.391  0.4089 -1.5677  1.3324
36171SOL     OW26122   4.776   4.110  10.737  0.1271  0.4251 -0.1790
36171SOL    HW126123   4.721   4.180  10.701 -0.4460  0.5501  0.9025
36171SOL    HW226124   4.733   4.029  10.709 -0.4804  0.5230  0.4373
36172SOL     OW26125  12.220   5.854   9.173 -0.6945  0.1247 -0.3822
36172SOL    HW126126  12.272   5.918   9.124  0.6526  0.3189  1.1937
36172SOL    HW226127  12.261   5.851   9.259 -0.8292 -2.7160 -0.3139
36173SOL     OW26128   7.379   3.612   9.700  0.4220  0.0226 -1.0662
36173SOL    HW126129   7.424   3.551   9.758 -1.5623 -0.5040  0.0133
36173SOL    HW226130   7.400   3.699   9.735  0.1890 -0.2397 -0.2601
36174SOL     OW26131   1.234   4.497   9.724  0.6150  0.1832 -0.8254
36174SOL    HW126132   1.235   4.514   9.819  0.3198 -0.4385 -0.7068
36174SOL    HW226133   1.309   4.547   9.691  1.3697 -0.4319 -0.1138
36175SOL     OW26134   9.179   1.315  12.993 -0.5534  0.6660  0.4445
36175SOL    HW126135   9.144   1.402  12.976  2.3496  2.0373  0.9013
36175SOL    HW226136   9.234   1.295  12.918 -2.0314 -1.3550 -0.1991
36176SOL     OW26137  10.310   6.226  13.877 -0.2561  0.3443  0.1366
36176SOL    HW126138  10.382   6.193  13.930 -0.5477  0.7655  0.8013
36176SOL    HW226139  10.352   6.268  13.802  0.1676  0.0758  0.2235
36177SOL     OW26140   5.734   3.777   7.736 -0.6407  0.1306  0.2589
36177SOL    HW126141   5.722   3.735   7.651  0.0774 -1.2996  0.8291
36177SOL    HW226142   5.823   3.752   7.763 -0.3994  1.5629  0.8966
36178SOL     OW26143  10.301   9.470   3.408 -0.2419 -0.3656 -0.0462
36178SOL    HW126144  10.312   9.547   3.464 -0.3866 -0.6538  0.3905
36178SOL    HW226145  10.356   9.487   3.332 -1.0980  0.6472 -0.4685
36179SOL     OW26146  11.823   7.811   5.081 -0.7927  0.4181 -0.1108
36179SOL    HW126147  11.841   7.732   5.133 -2.6830 -0.0807 -0.1385
36179SOL    HW226148  11.824   7.780   4.991 -0.6646  0.6271 -0.1812
36180SOL     OW26149   1.881   7.543   7.710 -0.3900 -0.0755 -0.2415
36180SOL    HW126150   1.912   7.632   7.724 -0.2877 -0.2766  0.8495
36180SOL    HW226151   1.896   7.527   7.617 -0.6203  1.1190 -0.4990
36181SOL     OW26152  11.653   2.019  10.507 -0.2947 -0.6232  0.0742
36181SOL    HW126153  11.695   2.103  10.526  0.5435 -1.0310  0.0628
36181SOL    HW226154  11.561   2.033  10.529  0.2431 -0.4598  2.5989
36182SOL     OW26155   9.590   5.727   3.170 -0.1127 -0.5722 -0.7258
36182SOL    HW126156   9.596   5.805   3.224  1.6230 -1.0150 -0.2177
36182SOL    HW226157   9.499   5.726   3.139 -1.0383 -0.0422  1.7548
36183SOL     OW26158   1.927  12.040   7.589 -0.1744  0.0434 -0.4161
36183SOL    HW126159   2.000  12.052   7.649  0.0546  0.3162 -0.7390
36183SOL    HW226160   1.964  11.990   7.516 -0.0925  0.8726 -0.9599
36184SOL     OW26161   2.704  12.536   4.951 -0.1018 -0.2024 -0.4369
36184SOL    HW126162   2.647  12.499   4.885 -1.0012  1.3882 -0.5943
36184SOL    HW226163   2.647  12.556   5.025  0.2885  1.0986 -0.4628
36185SOL     OW26164   7.087  13.528   0.191 -0.1080  0.7796  0.4901
36185SOL    HW126165   7.041  13.555   0.270  0.2158 -1.5660  1.5703
36185SOL    HW226166   7.018  13.514   0.126 -0.5937  0.6195  1.0362
36186SOL     OW26167   6.434   1.350   2.022 -0.0271 -0.0660  0.2259
36186SOL    HW126168   6.384   1.345   1.940  0.3808 -1.1687  0.0286
36186SOL    HW226169   6.474   1.264   2.031  3.0210  1.1669 -0.3918
36187SOL     OW26170   2.597   3.374   9.178  0.0315  0.1514  0.4871
36187SOL    HW126171   2.559   3.291   9.148  1.9621 -0.3436 -0.7822
36187SOL    HW226172   2.522   3.430   9.197 -1.3065 -1.5461  0.3806
36188SOL     OW26173   2.349   8.941   8.467  0.3140 -0.4206  0.5335
36188SOL    HW126174   2.408   8.991   8.524 -0.7300  0.2571  1.0509
36188SOL    HW226175   2.312   9.007   8.408  0.2583 -0.8818  0.0497
36189SOL     OW26176   5.908   7.526   4.348 -0.0952  0.1024  0.2000
36189SOL    HW126177   5.922   7.594   4.282  3.5297 -1.4720 -0.9419
36189SOL    HW226178   5.862   7.457   4.300 -0.0498  0.1052  0.1516
36190SOL     OW26179  13.170  13.955  10.739  0.5895 -0.4548 -0.1247
36190SOL    HW126180  13.232  13.898  10.695  3.1084  1.1591  1.0826
36190SOL    HW226181  13.183  13.937  10.832 -0.8502 -0.1323  0.1626
36191SOL     OW26182   6.108   1.980   4.829 -0.4601 -0.2584  0.5079
36191SOL    HW126183   6.169   1.941   4.892  1.1771 -1.3964 -1.6510
36191SOL    HW226184   6.056   1.907   4.796  0.1043 -0.0443 -0.9114
36192SOL     OW26185  12.114   6.817   0.642  0.1843 -1.0302  0.0244
36192SOL    HW126186  12.169   6.799   0.718  0.4128 -2.7123 -0.4999
36192SOL    HW226187  12.031   6.847   0.679  1.1093  0.6580  0.8454
36193SOL     OW26188   6.995  12.417   1.526  0.1130 -0.1535  0.3110
36193SOL    HW126189   6.949  12.456   1.452 -1.5744 -0.0660  1.3389
36193SOL    HW226190   7.087  12.418   1.501 -0.2181  1.5477 -1.0140
36194SOL     OW26191   1.431   9.890   2.468  0.1054 -0.3002  0.0933
36194SOL    HW126192   1.424   9.964   2.408 -0.5948 -1.0596 -0.7948
36194SOL    HW226193   1.388   9.920   2.548  0.0794  0.3569 -0.1639
36195SOL     OW26194   7.739   6.453   7.250 -0.4302 -0.4850  0.5148
36195SOL    HW126195   7.646   6.438   7.265 -0.7241  1.9452  1.6363
36195SOL    HW226196   7.760   6.530   7.303  1.8888 -0.0709 -0.8356
36196SOL     OW26197   2.634   8.574  10.110 -0.2457 -0.2765  0.5452
36196SOL    HW126198   2.645   8.479  10.112  1.5776 -0.2201 -1.9306
36196SOL    HW226199   2.571   8.590  10.040 -0.1451  0.3712  0.5968
36197SOL     OW26200   5.983   6.091   8.662  0.4624 -0.1435 -0.6937
36197SOL    HW126201   5.992   6.148   8.586  1.3926 -1.6951 -1.8075
36197SOL    HW226202   5.889   6.093   8.682  0.5325  2.1539 -0.3309
36198SOL     OW26203   8.901   8.746  11.831 -0.2961  0.1306  0.2349
36198SOL    HW126204   8.927   8.828  11.874  0.4116  1.7901 -3.0725
36198SOL    HW226205   8.832   8.711  11.888 -0.3267  2.7792  2.0339
36199SOL     OW26206   2.271   7.939  11.655  0.3295  0.4871  0.0580
36199SOL    HW126207   2.358   7.931  11.617 -0.1107 -0.1795 -0.8616
36199SOL    HW226208   2.214   7.893  11.593 -0.4611 -0.4048  1.4024
36200SOL     OW26209   9.238  12.788  13.229 -0.0884  0.0432 -0.1590
36200SOL    HW126210   9.318  12.834  13.257 -1.1119  1.3798  0.7354
36200SOL    HW226211   9.234  12.711  13.285 -0.5217  1.1151  1.3706
36201SOL     OW26212   1.739  12.441   8.541  0.3194 -0.4347  0.2153
36201SOL    HW126213   1.681  12.373   8.509 -0.1732  0.1900 -0.2431
36201SOL    HW226214   1.681  12.515   8.560  1.1515  1.0255 -2.4620
36202SOL     OW26215   9.179  13.081  11.750  0.8875  0.0165 -0.5125
36202SOL    HW126216   9.119  13.104  11.821  0.3306  0.7145 -1.1867
36202SOL    HW226217   9.218  12.998  11.777  1.1561  0.5738  0.8951
36203SOL     OW26218   2.902   2.671   1.204 -0.6231 -0.1920 -0.0403
36203SOL    HW126219   2.932   2.658   1.294  1.3531 -0.2962 -0.6671
36203SOL    HW226220   2.964   2.734   1.167  0.1086 -1.9627 -2.0233
36204SOL     OW26221   5.481   2.797  11.044  0.5650  0.2885  0.1815
36204SOL    HW126222   5.446   2.835  11.124  1.2779 -1.1477  1.2264
36204SOL    HW226223   5.542   2.729  11.074  1.1757 -0.0026 -1.5767
36205SOL     OW26224   3.479  11.440   2.414  0.3843 -0.2848  0.0421
36205SOL    HW126225   3.390  11.455   2.383  0.7072  0.1654 -0.7024
36205SOL    HW226226   3.500  11.351   2.384  0.5934  0.0428 -0.8310
36206SOL     OW26227   2.346   6.079   7.987 -0.6022 -0.1777 -0.3735
36206SOL    HW126228   2.402   6.104   7.914  0.4045 -0.8725  0.1350
36206SOL    HW226229   2.379   6.130   8.061  0.4071 -1.7030  0.2854
36207SOL     OW26230  10.171   6.868   1.590 -0.0010 -0.1707 -0.2711
36207SOL    HW126231  10.134   6.789   1.629  0.6554  0.0141  0.7929
36207SOL    HW226232  10.096   6.922   1.568 -0.4411  0.3620  2.1847
36208SOL     OW26233  11.632  12.447   3.519 -0.1092 -0.9773  0.2927
36208SOL    HW126234  11.606  12.535   3.548  0.1458 -1.0037  0.5992
36208SOL    HW226235  11.718  12.433   3.558  0.7344 -0.5839 -1.3399
36209SOL     OW26236   1.936   6.492   6.946 -0.0960  0.5323  0.0183
36209SOL    HW126237   2.022   6.497   6.988  0.4626  2.4171 -1.2325
36209SOL    HW226238   1.875   6.514   7.017  0.8874  4.5773 -0.1325
36210SOL     OW26239  11.917   2.846   3.600  0.0016  0.0670  0.0367
36210SOL    HW126240  11.848   2.892   3.648 -1.3808  0.6257 -2.2944
36210SOL    HW226241  11.932   2.899   3.522  1.2478 -1.3812 -0.7800
36211SOL     OW26242   2.479  13.046   9.324  0.4418  0.1383  0.1720
36211SOL    HW126243   2.568  13.061   9.293  0.2940  3.0181  0.9017
36211SOL    HW226244   2.449  13.131   9.354 -2.9443 -0.5051 -0.9472
36212SOL     OW26245   3.108   6.498   1.193  0.3377  0.3883 -0.0344
36212SOL    HW126246   3.177   6.499   1.127  1.4866  2.4563  1.0924
36212SOL    HW226247   3.027   6.504   1.143  1.1033  0.4778 -1.3159
36213SOL     OW26248   1.890   2.504   4.700  0.0112  0.3269 -0.4255
36213SOL    HW126249   1.802   2.506   4.661 -0.9512  1.0113  1.6480
36213SOL    HW226250   1.891   2.424   4.753  1.9688 -1.6291 -3.1069
36214SOL     OW26251  12.797   8.777  11.822 -0.1386  0.2414  1.0435
36214SOL    HW126252  12.765   8.798  11.910 -0.2926  1.0779  0.7964
36214SOL    HW226253  12.892   8.791  11.826 -0.3742  2.2079  0.5672
36215SOL     OW26254   8.253   3.106   6.931  0.3131 -0.1978 -1.0962
36215SOL    HW126255   8.230   3.112   7.024  1.9708 -0.5487 -0.6364
36215SOL    HW226256   8.219   3.021   6.904  1.7855 -1.1084 -0.1979
36216SOL     OW26257   4.527   1.477  10.782  0.1273 -0.2726 -0.0138
36216SOL    HW126258   4.527   1.382  10.793  0.9375 -0.0977  1.9443
36216SOL    HW226259   4.441   1.497  10.745 -0.0896 -1.7579 -0.3606
36217SOL     OW26260  10.795   2.417   5.628 -0.0968  0.4165 -0.0932
36217SOL    HW126261  10.774   2.342   5.683 -4.0912  1.5607  0.2395
36217SOL    HW226262  10.856   2.469   5.680 -0.5118 -0.5718  1.4559
36218SOL     OW26263   1.825   1.034   6.685  0.8341  0.1408 -0.5253
36218SOL    HW126264   1.812   0.979   6.762  0.6767  2.2104  1.0385
36218SOL    HW226265   1.920   1.036   6.673  1.0272  1.1907  0.8007
36219SOL     OW26266  12.305   1.602   6.353 -0.6355  0.4565 -0.2999
36219SOL    HW126267  12.228   1.548   6.335 -0.6729 -0.0302  1.1907
36219SOL    HW226268  12.363   1.544   6.403  0.3525  1.0705 -0.7241
36220SOL     OW26269   1.545   5.532  11.539 -0.1076 -0.0172  0.6931
36220SOL    HW126270   1.615   5.573  11.589  0.5832 -1.1367  0.6885
36220SOL    HW226271   1.499   5.604  11.496  1.2699  0.7176  0.4185
36221SOL     OW26272   9.648   7.912   1.269 -0.1175  0.4178 -0.3881
36221SOL    HW126273   9.565   7.905   1.316 -0.3759 -0.9820 -1.0088
36221SOL    HW226274   9.706   7.850   1.313  0.7272  1.5962  0.2268
36222SOL     OW26275   3.679   4.436  10.327  0.5405 -0.1488  0.3544
36222SOL    HW126276   3.697   4.509  10.267  1.9720 -0.5569  0.2466
36222SOL    HW226277   3.618   4.380  10.280 -1.1672  1.3064  0.7171
36223SOL     OW26278  11.943  13.535   3.031 -0.3681  0.1904 -0.2346
36223SOL    HW126279  11.941  13.567   2.941  0.2921  0.8351 -0.0331
36223SOL    HW226280  11.911  13.609   3.083  0.2930  0.2087  0.1571
36224SOL     OW26281   4.296   5.645   0.440  0.7364  0.4835 -0.1299
36224SOL    HW126282   4.352   5.608   0.372  0.5087 -0.5119  0.2154
36224SOL    HW226283   4.353   5.708   0.486  0.7541  1.5350 -1.5179
36225SOL     OW26284   2.473  12.829   0.084 -0.4612 -0.4708 -0.3029
36225SOL    HW126285   2.492  12.737   0.068  0.7546 -0.3573  0.3444
36225SOL    HW226286   2.532  12.853   0.156 -1.7840  0.4355  0.5181
36226SOL     OW26287   2.885   9.863   5.218  0.5236  0.5779  0.0905
36226SOL    HW126288   2.792   9.845   5.228  0.5728  0.7302  0.9155
36226SOL    HW226289   2.893   9.905   5.132  0.2300 -2.0501 -1.3388
36227SOL     OW26290   9.488   8.936   9.819 -0.2531 -0.3253  0.2556
36227SOL    HW126291   9.481   8.867   9.753  0.8636  0.3879 -0.6588
36227SOL    HW226292   9.489   9.017   9.768 -0.5946  0.3109  1.2412
36228SOL     OW26293   7.367  11.751   8.213  0.3773  0.4290  0.1383
36228SOL    HW126294   7.354  11.730   8.120  1.4429  0.7154 -0.0899
36228SOL    HW226295   7.305  11.822   8.230  0.8848  1.0666 -0.6235
36229SOL     OW26296  12.719   0.040   5.171  0.0232  0.1856  0.0868
36229SOL    HW126297  12.693   0.129   5.145  0.8337  0.5775  0.5478
36229SOL    HW226298  12.692  -0.016   5.098 -0.6298  0.7894 -0.1482
36230SOL     OW26299   5.158   0.024  12.335 -0.5320 -0.3278 -0.0828
36230SOL    HW126300   5.143   0.104  12.385  0.3114 -1.3016  1.8503
36230SOL    HW226301   5.199   0.053  12.254  0.6864  1.1414  1.0176
36231SOL     OW26302   3.138  11.099  14.005 -0.3107  0.1579  0.4677
36231SOL    HW126303   3.214  11.045  14.028 -1.4248 -0.4862  3.0214
36231SOL    HW226304   3.107  11.063  13.921  1.7037 -0.0502 -0.2247
36232SOL     OW26305   8.235   9.601  12.388 -0.4400 -0.1425 -0.3788
36232SOL    HW126306   8.185   9.680  12.367 -0.9532 -0.4903 -0.4729
36232SOL    HW226307   8.202   9.574  12.474 -0.4954 -0.4307 -0.4882
36233SOL     OW26308  11.576   2.863   6.160 -0.1138  0.2935 -0.0897
36233SOL    HW126309  11.578   2.957   6.177  1.9644  0.3581 -0.4686
36233SOL    HW226310  11.601   2.824   6.244 -0.1793  0.1107 -0.1560
36234SOL     OW26311   5.744   0.564   3.857 -0.0520 -0.3069 -0.0451
36234SOL    HW126312   5.761   0.640   3.912 -0.9122  0.4733 -0.8263
36234SOL    HW226313   5.813   0.565   3.791  0.4183 -0.6934  0.4305
36235SOL     OW26314  11.717   2.350   2.837  0.1515  0.0487 -0.5452
36235SOL    HW126315  11.794   2.313   2.795 -0.5278 -0.9557 -0.9413
36235SOL    HW226316  11.702   2.433   2.792 -0.4088 -0.8795 -2.1575
36236SOL     OW26317   4.522   2.866   1.975  0.1794 -0.4393  0.1390
36236SOL    HW126318   4.563   2.783   1.950  1.0301 -0.3410  1.1425
36236SOL    HW226319   4.475   2.894   1.896  1.0804 -1.1523 -0.6757
36237SOL     OW26320   0.697   8.862  13.591 -0.3656  0.2473  0.4111
36237SOL    HW126321   0.602   8.853  13.584 -0.4575  0.0117  1.7541
36237SOL    HW226322   0.714   8.861  13.685  1.0223 -0.2848  0.1698
36238SOL     OW26323   4.553   2.810   1.420  0.5445 -0.0021  0.3960
36238SOL    HW126324   4.462   2.781   1.409  0.5058  0.4532 -0.5406
36238SOL    HW226325   4.554   2.854   1.505 -0.2792  0.5936  0.1112
36239SOL     OW26326   0.618  12.596   5.396 -0.6626 -0.3942  0.0893
36239SOL    HW126327   0.578  12.633   5.474  1.3438  0.4235  0.8037
36239SOL    HW226328   0.631  12.671   5.337 -1.0881 -0.8116 -0.5535
36240SOL     OW26329   8.178   2.389  11.791  0.2135 -0.6195  0.2381
36240SOL    HW126330   8.244   2.399  11.722  0.5036 -1.8112  0.3203
36240SOL    HW226331   8.149   2.298  11.783 -1.0742 -0.2559  0.5255
36241SOL     OW26332   6.755   3.340   7.610  0.0788  0.0661  0.1443
36241SOL    HW126333   6.663   3.364   7.599  0.1893  0.5130  0.1822
36241SOL    HW226334   6.768   3.336   7.704  0.2465  0.6016  0.1488
36242SOL     OW26335   0.943   4.636  11.815  0.0996  0.9093 -0.4454
36242SOL    HW126336   0.998   4.674  11.884 -0.0216  1.1863 -0.4998
36242SOL    HW226337   1.000   4.572  11.772  0.7476  1.9204 -1.1714
36243SOL     OW26338   7.186   8.692   0.176 -0.2648 -0.6369 -0.4991
36243SOL    HW126339   7.181   8.780   0.139  0.6233 -0.4172 -0.1302
36243SOL    HW226340   7.162   8.703   0.268  1.5962 -0.4451 -0.0027
36244SOL     OW26341   9.112   4.657   2.410 -0.3610  0.4950 -0.3974
36244SOL    HW126342   9.182   4.691   2.355  0.7859 -0.1863  0.5881
36244SOL    HW226343   9.037   4.713   2.392  1.0191  2.5666  0.0457
36245SOL     OW26344   6.327   5.820   5.166  0.3845 -0.5030  0.2013
36245SOL    HW126345   6.310   5.909   5.197  0.5106 -0.7260  0.9474
36245SOL    HW226346   6.241   5.784   5.147  0.4111  0.2291 -1.4512
36246SOL     OW26347   0.213   7.206  12.601 -0.2521  0.7407 -0.1626
36246SOL    HW126348   0.123   7.229  12.579 -0.6495 -0.1747  0.4682
36246SOL    HW226349   0.256   7.290  12.616 -0.9372  1.1984 -0.6982
36247SOL     OW26350  11.437  13.909  12.248 -0.2333 -0.0420  0.2813
36247SOL    HW126351  11.498  13.911  12.174 -0.9399  0.3557 -0.3053
36247SOL    HW226352  11.351  13.896  12.207 -0.5450 -0.6030  1.0927
36248SOL     OW26353   4.318   6.245   0.855  0.5629  0.1129 -0.0841
36248SOL    HW126354   4.288   6.256   0.765  0.1458 -1.0771 -0.1092
36248SOL    HW226355   4.398   6.296   0.860 -0.0040  1.1104 -0.8024
36249SOL     OW26356   4.509   3.213   6.721  0.5267 -0.2248 -0.3745
36249SOL    HW126357   4.604   3.219   6.728  0.4536 -0.8881  2.5153
36249SOL    HW226358   4.477   3.302   6.736  0.6763  0.1174 -1.9766
36250SOL     OW26359   0.905   7.617  12.379 -0.0882 -0.2471  0.6689
36250SOL    HW126360   0.952   7.619  12.462  1.5464 -0.5633 -0.2068
36250SOL    HW226361   0.853   7.698  12.379  0.1072 -0.1047  1.8627
36251SOL     OW26362  12.127   4.294  11.296 -0.0546  0.0853 -0.5223
36251SOL    HW126363  12.105   4.346  11.219 -1.0816  0.8844  0.2811
36251SOL    HW226364  12.051   4.302  11.353  1.0933  0.4104  1.0480
36252SOL     OW26365   7.598   9.467   5.016  0.3423  0.1807 -0.2370
36252SOL    HW126366   7.675   9.473   5.071 -0.5258  0.2038  1.0026
36252SOL    HW226367   7.530   9.515   5.063 -0.5636 -0.2491 -1.0574
36253SOL     OW26368  12.681  10.248   9.608  0.4181  0.3776  0.3300
36253SOL    HW126369  12.628  10.310   9.557  0.0534  0.3329  0.6505
36253SOL    HW226370  12.625  10.171   9.618  0.2874  0.5866  1.2422
36254SOL     OW26371  11.816   4.356   4.352  0.2192 -0.5332  0.8585
36254SOL    HW126372  11.740   4.360   4.410 -0.1519 -1.1923  0.4254
36254SOL    HW226373  11.836   4.263   4.345 -0.5115 -0.5998 -1.0555
36255SOL     OW26374   2.644   7.929   6.000  0.0562 -0.2818 -0.1890
36255SOL    HW126375   2.698   7.955   6.074  0.9993  0.5413 -1.1433
36255SOL    HW226376   2.699   7.943   5.923 -1.5674  0.8058 -1.2292
36256SOL     OW26377  10.246   2.571   0.814  0.5161 -0.7020 -0.0090
36256SOL    HW126378  10.324   2.625   0.797 -0.0748  0.6967  1.4734
36256SOL    HW226379  10.281   2.490   0.851  1.3131 -0.4422 -0.1545
36257SOL     OW26380  10.115   9.291   9.116 -0.0802 -0.2346  0.2343
36257SOL    HW126381  10.030   9.333   9.101  0.3239  0.8105  0.7551
36257SOL    HW226382  10.098   9.228   9.185 -0.2843  0.5417  0.9130
36258SOL     OW26383   6.549  10.825   3.115 -0.1650 -0.4106  0.2150
36258SOL    HW126384   6.643  10.820   3.132 -0.0798 -1.6592 -0.5095
36258SOL    HW226385   6.510  10.852   3.198  0.8559  0.4067  0.4385
36259SOL     OW26386  10.647  10.998   4.171 -0.4471  0.3531 -0.3010
36259SOL    HW126387  10.563  11.028   4.136 -0.7532 -0.9398 -0.7382
36259SOL    HW226388  10.675  10.930   4.110  0.4469  0.0988  0.3758
36260SOL     OW26389   4.754   9.113  12.929  0.2818 -0.3450  0.5358
36260SOL    HW126390   4.741   9.207  12.925  1.1127 -0.2551 -1.0582
36260SOL    HW226391   4.667   9.076  12.913  0.2236  0.1776 -0.4507
36261SOL     OW26392   1.237  11.557   5.663  0.4697 -0.1649 -0.4517
36261SOL    HW126393   1.191  11.641   5.653  1.4524  0.2457 -1.6836
36261SOL    HW226394   1.322  11.581   5.700  0.8015 -0.6010 -0.9186
36262SOL     OW26395   8.661   5.368   3.830 -0.6179  0.1877  0.0212
36262SOL    HW126396   8.589   5.307   3.849  0.0388 -0.9445 -0.9760
36262SOL    HW226397   8.639   5.404   3.744 -0.1289  0.0397 -0.1666
36263SOL     OW26398   9.918  12.471   7.606 -0.3377  0.0728  0.0508
36263SOL    HW126399   9.898  12.457   7.513  0.2078  0.9646 -0.2164
36263SOL    HW226400  10.008  12.504   7.606  0.7277 -2.6044  1.1236
36264SOL     OW26401   8.003   7.400   1.818  0.4063 -0.2425  0.4439
36264SOL    HW126402   8.097   7.382   1.818  0.4409 -0.2764 -1.6651
36264SOL    HW226403   7.966   7.332   1.875  1.7031  0.2942  2.0078
36265SOL     OW26404   4.000   0.858   4.602 -0.5964 -0.2971 -0.3817
36265SOL    HW126405   4.046   0.871   4.519 -3.2169 -1.3872 -2.1357
36265SOL    HW226406   3.958   0.772   4.593  1.5838 -2.0074  3.4323
36266SOL     OW26407   0.832  11.643   2.230  0.4740 -0.4335 -0.1205
36266SOL    HW126408   0.914  11.691   2.226  0.7556 -0.9272 -0.2966
36266SOL    HW226409   0.765  11.707   2.205  0.3756  0.9213  3.0712
36267SOL     OW26410   7.739   0.682   8.858  0.9355 -0.9321 -0.0963
36267SOL    HW126411   7.831   0.656   8.853  0.6936 -1.9339  0.3689
36267SOL    HW226412   7.711   0.690   8.767  1.2958 -1.3237 -0.2401
36268SOL     OW26413   4.072  10.453   8.124 -0.7440  0.1509 -0.4401
36268SOL    HW126414   3.995  10.426   8.173 -0.5220  0.6750  0.2253
36268SOL    HW226415   4.038  10.513   8.057 -0.9266  0.3450 -0.1776
36269SOL     OW26416   9.083  10.856  10.575 -0.2137  0.0176  0.6837
36269SOL    HW126417   9.064  10.934  10.521  0.2540 -0.1080  0.3284
36269SOL    HW226418   9.175  10.838  10.559 -0.7404 -1.7285 -0.7224
36270SOL     OW26419   2.529  11.932   8.908 -0.0392 -0.4142 -0.2238
36270SOL    HW126420   2.434  11.934   8.921 -0.1215 -2.0404 -0.4640
36270SOL    HW226421   2.541  11.909   8.817  0.6027 -0.3916 -0.1512
36271SOL     OW26422   5.626  10.242   4.462 -0.3705  0.3222  0.1652
36271SOL    HW126423   5.721  10.249   4.474 -0.4317  0.7394  0.4265
36271SOL    HW226424   5.600  10.328   4.427 -0.7283  0.3960  0.6034
36272SOL     OW26425  13.137   0.432   6.492  0.1950 -0.0442  0.9138
36272SOL    HW126426  13.132   0.474   6.406 -2.0216  2.4160  2.0798
36272SOL    HW226427  13.080   0.356   6.485  3.3475 -2.4713 -0.9019
36273SOL     OW26428  12.622  11.983   7.486  0.0564 -0.0042 -0.2129
36273SOL    HW126429  12.528  11.965   7.485 -0.1703  1.0027  0.6252
36273SOL    HW226430  12.628  12.071   7.522  1.3809 -0.3661  0.4815
36274SOL     OW26431   5.801   8.968   2.872  0.3572  0.2190 -0.4137
36274SOL    HW126432   5.860   8.925   2.934  0.2684  0.4483 -0.1660
36274SOL    HW226433   5.729   8.905   2.861  0.7904 -0.1806 -0.9401
36275SOL     OW26434   7.547   7.639   3.565  0.4852  0.6560 -0.4197
36275SOL    HW126435   7.565   7.700   3.637 -0.0825  0.2413  0.0820
36275SOL    HW226436   7.452   7.634   3.561  0.5199  0.2858 -0.8802
36276SOL     OW26437   6.059  11.632  13.417 -0.8612 -0.2890 -0.3384
36276SOL    HW126438   6.091  11.594  13.335 -2.5698 -1.9350 -0.3164
36276SOL    HW226439   6.135  11.632  13.475  0.2171  0.2883 -1.6675
36277SOL     OW26440   6.049  11.509   2.941  0.3084 -0.4570 -0.0147
36277SOL    HW126441   6.052  11.551   3.027  0.4860 -0.6966  0.0968
36277SOL    HW226442   6.126  11.453   2.939  0.2270 -0.5611 -0.2741
36278SOL     OW26443  13.045   7.976  10.072  0.2836 -0.0110  0.1425
36278SOL    HW126444  13.091   7.995  10.154  0.7397  1.0308 -0.3393
36278SOL    HW226445  13.097   8.021  10.004 -0.8036  0.2276 -0.5525
36279SOL     OW26446  11.053  11.172   4.910  0.7062  0.6666  0.2096
36279SOL    HW126447  11.075  11.260   4.877 -1.0579  0.7630 -0.8280
36279SOL    HW226448  10.977  11.146   4.859 -0.0458 -0.6509  1.9099
36280SOL     OW26449   3.319  13.842   5.303 -0.0037 -0.4521  0.0410
36280SOL    HW126450   3.402  13.812   5.342  0.0770 -1.3551 -0.7733
36280SOL    HW226451   3.340  13.927   5.264  0.9636 -1.3033 -1.4175
36281SOL     OW26452  11.701   5.401   6.701  0.1328 -0.0950 -0.1588
36281SOL    HW126453  11.619   5.451   6.694  0.0373 -0.3065 -0.5826
36281SOL    HW226454  11.694   5.357   6.785  0.7968  1.6129  0.8456
36282SOL     OW26455   7.808  12.742   3.985  0.2488 -0.1643 -0.1007
36282SOL    HW126456   7.903  12.737   3.978  0.3040  0.3517  0.2047
36282SOL    HW226457   7.786  12.831   3.955 -0.3509 -0.9803 -2.2297
36283SOL     OW26458  10.924   5.609   8.750  0.0747  0.2559 -0.2455
36283SOL    HW126459  10.892   5.519   8.737  1.3325 -0.3270  0.4316
36283SOL    HW226460  10.931   5.645   8.662  0.8900 -0.8238 -0.6560
36284SOL     OW26461   7.117   9.868   0.501 -0.0931 -0.4345  0.2285
36284SOL    HW126462   7.128   9.899   0.591 -1.1144  1.9399 -0.4006
36284SOL    HW226463   7.160   9.935   0.447 -2.7048  0.1846 -1.2336
36285SOL     OW26464   1.802  10.307   1.480  0.1590  0.4936  0.5356
36285SOL    HW126465   1.849  10.386   1.454  1.0434 -0.0024  0.5660
36285SOL    HW226466   1.716  10.316   1.439  0.1888  1.5322  0.6676
36286SOL     OW26467   7.190  10.228   4.482 -0.0893 -0.0698 -0.3646
36286SOL    HW126468   7.228  10.311   4.510  0.2057 -0.5909  0.8220
36286SOL    HW226469   7.186  10.175   4.561 -1.1225 -0.8708 -0.9238
36287SOL     OW26470   4.883   5.002   9.987  0.0331  1.1837  0.2974
36287SOL    HW126471   4.809   5.004  10.047 -0.9076  0.3819 -0.8095
36287SOL    HW226472   4.960   5.009  10.044 -0.8145  0.1209  1.6272
36288SOL     OW26473   5.952  12.979   6.262  0.3162 -0.1964  0.4280
36288SOL    HW126474   5.882  12.993   6.198 -0.7637  0.7981  1.7640
36288SOL    HW226475   6.010  12.914   6.221 -0.4557  0.2279 -1.4312
36289SOL     OW26476  13.956   3.605   0.592  0.2404  0.2830 -0.4840
36289SOL    HW126477  14.024   3.551   0.553  0.5875  0.4298 -0.0920
36289SOL    HW226478  13.878   3.589   0.539 -0.2570 -2.2291  0.8393
36290SOL     OW26479   5.911   0.130   7.793  0.9124  0.3711  0.1610
36290SOL    HW126480   5.827   0.110   7.834  0.7082 -2.1586 -1.2515
36290SOL    HW226481   5.930   0.220   7.818 -0.9435  0.1581  2.6586
36291SOL     OW26482   1.628   8.454  13.752  0.3650  0.2315  0.2874
36291SOL    HW126483   1.720   8.449  13.777 -0.0798  0.1254  1.9721
36291SOL    HW226484   1.581   8.411  13.823 -0.9761 -0.0033 -0.7009
36292SOL     OW26485   0.432  10.808   2.599  0.0168 -0.0602 -0.4568
36292SOL    HW126486   0.522  10.842   2.597 -0.0664  0.1789 -0.2134
36292SOL    HW226487   0.377  10.886   2.593 -0.1757 -0.1636 -0.0398
36293SOL     OW26488   8.303  10.949  12.342  0.5109 -0.3694  0.2328
36293SOL    HW126489   8.272  10.898  12.417 -0.5907 -0.2222 -0.1007
36293SOL    HW226490   8.393  10.972  12.364  0.3783 -0.7822  1.2706
36294SOL     OW26491   9.988  10.682   5.645  0.5269  0.1003 -0.7058
36294SOL    HW126492   9.910  10.723   5.607  0.1926 -0.2310 -0.3946
36294SOL    HW226493  10.062  10.727   5.604  0.1809  1.3265 -0.0703
36295SOL     OW26494   4.653   2.522  11.026  0.2465  0.6695 -0.0988
36295SOL    HW126495   4.590   2.481  11.085  0.9447  1.8419  1.5387
36295SOL    HW226496   4.633   2.485  10.940 -0.5250 -1.4293  0.9183
36296SOL     OW26497  10.668   7.934   4.851 -0.3989  0.2616  0.2364
36296SOL    HW126498  10.725   7.998   4.808  0.2925 -0.4880  0.0305
36296SOL    HW226499  10.717   7.906   4.928 -0.2109 -0.8314 -0.2604
36297SOL     OW26500  11.143  11.252   0.978  0.0599  0.3848  0.4527
36297SOL    HW126501  11.137  11.326   1.038 -1.0735  1.5756 -1.0499
36297SOL    HW226502  11.081  11.188   1.012 -0.6743  1.1016  0.4840
36298SOL     OW26503  13.908   6.316  13.372  0.0853  0.2825  0.2592
36298SOL    HW126504  13.943   6.377  13.307  1.5533 -1.0038 -0.2108
36298SOL    HW226505  13.984   6.293  13.427  0.1240 -2.6822 -0.8580
36299SOL     OW26506   0.429   8.253   8.566  0.5223  0.1598 -0.3356
36299SOL    HW126507   0.362   8.211   8.620  1.0378 -2.1441 -1.3582
36299SOL    HW226508   0.509   8.247   8.619  0.8422 -1.3015 -0.9361
36300SOL     OW26509  10.286   3.488   9.116 -0.0441  0.5566  0.0198
36300SOL    HW126510  10.314   3.518   9.029  0.7151  0.3646  0.1945
36300SOL    HW226511  10.247   3.402   9.101 -1.1317  1.0866 -0.3132
36301SOL     OW26512   2.936   4.772   9.333 -0.5678  0.1155  0.5510
36301SOL    HW126513   3.009   4.833   9.343 -0.4201 -0.2036  1.4758
36301SOL    HW226514   2.958   4.698   9.389 -1.5706 -0.0172  0.7911
36302SOL     OW26515   2.733   7.973   9.173 -0.2124 -0.0266  0.2271
36302SOL    HW126516   2.648   8.008   9.200 -1.6378 -2.9167 -0.2290
36302SOL    HW226517   2.714   7.914   9.101  2.1341 -1.1661  0.4419
36303SOL     OW26518   7.584  11.428   5.021  0.2363  0.0813 -0.2017
36303SOL    HW126519   7.643  11.411   5.094 -0.9461  0.5783  0.9120
36303SOL    HW226520   7.559  11.340   4.990  1.3271 -0.1316 -0.5312
36304SOL     OW26521   1.661  11.820   2.638 -0.0243  0.5510  0.2394
36304SOL    HW126522   1.573  11.844   2.668 -1.4062 -0.9469 -2.2414
36304SOL    HW226523   1.683  11.742   2.690 -0.0158  1.1008  1.0744
36305SOL     OW26524   8.333   1.144   5.494  0.2945 -0.8672 -0.0869
36305SOL    HW126525   8.353   1.232   5.464 -2.3974 -0.2612 -0.3889
36305SOL    HW226526   8.314   1.153   5.587 -1.7946 -0.7089 -0.4801
36306SOL     OW26527   4.367  12.265  12.262  0.1936 -0.7824 -0.3025
36306SOL    HW126528   4.371  12.310  12.346  1.8430 -1.1479 -0.1518
36306SOL    HW226529   4.304  12.315  12.211  1.0698  0.9823  0.2692
36307SOL     OW26530   6.181   6.773   3.123  0.9207 -0.0105  0.1069
36307SOL    HW126531   6.245   6.844   3.122  0.9000  0.0109  0.1976
36307SOL    HW226532   6.207   6.719   3.198  0.0128  0.7637  1.0047
36308SOL     OW26533   9.455   0.507   9.797  0.3342 -0.3526 -1.1159
36308SOL    HW126534   9.421   0.418   9.789 -1.5299  0.2965 -0.8115
36308SOL    HW226535   9.395   0.551   9.857  1.9819  0.7660 -0.1923
36309SOL     OW26536  13.061   9.570   3.194 -0.4244 -0.1763  0.0345
36309SOL    HW126537  12.976   9.562   3.150 -0.0003 -0.0847 -0.8224
36309SOL    HW226538  13.125   9.545   3.127  0.2815  0.5972  0.4020
36310SOL     OW26539   8.257  11.635   2.095 -0.0655 -0.7747  0.0870
36310SOL    HW126540   8.319  11.580   2.142  1.2523  0.3778 -0.2221
36310SOL    HW226541   8.301  11.656   2.012  0.0793  1.7632  0.7172
36311SOL     OW26542  11.307   4.187   9.638 -0.4011 -0.4924  0.2241
36311SOL    HW126543  11.312   4.139   9.721 -0.5872 -0.9392 -0.0211
36311SOL    HW226544  11.376   4.149   9.584  1.7117  1.7729  1.1681
36312SOL     OW26545   3.836  11.016   1.051  0.3072  0.4095 -0.1582
36312SOL    HW126546   3.881  11.097   1.026 -2.0364  2.1468  0.8906
36312SOL    HW226547   3.745  11.029   1.024 -0.1856 -1.8428  0.1777
36313SOL     OW26548   6.880   0.307   8.244 -0.6142 -0.1320  0.6281
36313SOL    HW126549   6.788   0.293   8.269 -0.4223 -0.5967  1.0948
36313SOL    HW226550   6.929   0.296   8.325 -0.2230  1.0630  0.5700
36314SOL     OW26551   6.111  11.522   8.541  0.2748 -0.0211 -0.0070
36314SOL    HW126552   6.179  11.486   8.598  0.3062 -1.2402 -0.7731
36314SOL    HW226553   6.035  11.466   8.555 -0.0542  0.3289 -0.3615
36315SOL     OW26554  13.579  10.304  11.225  0.0294 -0.2043  0.1152
36315SOL    HW126555  13.607  10.273  11.138  0.8750 -0.6302  0.5293
36315SOL    HW226556  13.643  10.371  11.247  0.2290 -0.5863  0.7086
36316SOL     OW26557  11.028  14.063   6.015  0.4032 -0.7598 -0.2026
36316SOL    HW126558  11.033  13.985   5.960  0.5547 -1.1705  0.3896
36316SOL    HW226559  11.007  14.134   5.953  2.5054 -0.8657 -1.1147
36317SOL     OW26560   1.857   2.173   4.800 -0.3482 -0.1110  0.3425
36317SOL    HW126561   1.947   2.143   4.805 -0.1887  0.2439 -0.3159
36317SOL    HW226562   1.840   2.184   4.706 -1.1217 -0.3185  0.4526
36318SOL     OW26563   5.562   4.005   9.624 -0.2546  0.0681 -0.6853
36318SOL    HW126564   5.539   3.923   9.668  0.4214  1.1068  1.7623
36318SOL    HW226565   5.605   3.978   9.543 -1.3663 -1.9482 -0.6708
36319SOL     OW26566   0.033  13.450   2.238 -0.0006 -0.4978 -0.3254
36319SOL    HW126567   0.013  13.416   2.325  1.7531 -1.3161 -0.1916
36319SOL    HW226568   0.070  13.375   2.191 -1.4303 -0.2213 -1.9842
36320SOL     OW26569  11.536   5.917  13.308 -0.1666  0.2652  0.1177
36320SOL    HW126570  11.561   5.996  13.260  0.8281  0.9556  1.6397
36320SOL    HW226571  11.519   5.949  13.397 -0.6723 -1.1157  0.5336
36321SOL     OW26572   9.977   2.607   0.912  0.0447 -0.0221  0.5076
36321SOL    HW126573  10.057   2.578   0.869  1.2328  0.5290  2.2285
36321SOL    HW226574   9.959   2.694   0.875  0.3958 -0.0329  0.3136
36322SOL     OW26575   6.116  13.936  10.061 -0.0776 -0.0058  0.6632
36322SOL    HW126576   6.109  13.854  10.109  0.0712 -0.1925  0.3640
36322SOL    HW226577   6.197  13.975  10.093 -0.0345 -0.0775  0.6401
36323SOL     OW26578   2.885   8.123  11.825 -0.1835  0.3134 -0.2210
36323SOL    HW126579   2.936   8.188  11.776  0.7372 -0.3592 -0.1872
36323SOL    HW226580   2.925   8.039  11.802  0.0864 -0.0497  1.4621
36324SOL     OW26581  13.589   4.821   8.314 -0.3787 -0.3469  0.0273
36324SOL    HW126582  13.510   4.822   8.261  0.2519 -1.5126 -1.0177
36324SOL    HW226583  13.558   4.818   8.405 -1.5747 -1.8400 -0.3774
36325SOL     OW26584  12.909   3.299   2.070 -0.1934  0.4503  0.0118
36325SOL    HW126585  12.829   3.301   2.122  0.6379 -0.9002  1.4310
36325SOL    HW226586  12.925   3.206   2.055  2.2458  0.5297  1.6253
36326SOL     OW26587   2.689  12.846   6.251  0.1644 -0.0022  0.2481
36326SOL    HW126588   2.683  12.940   6.232  1.5121  0.4151  1.5983
36326SOL    HW226589   2.684  12.841   6.347 -2.0716 -1.5471  0.1352
36327SOL     OW26590   2.027   9.237   1.371  0.6249  0.4984  0.0043
36327SOL    HW126591   2.004   9.177   1.441  2.7272  0.8951  1.1119
36327SOL    HW226592   2.061   9.315   1.415  0.9447  1.2267 -1.4386
36328SOL     OW26593   2.925   6.918   3.187 -0.3644 -0.3740 -0.0896
36328SOL    HW126594   2.936   6.941   3.095  0.5675  1.0400  0.3590
36328SOL    HW226595   3.011   6.886   3.214  0.0258  1.3488  0.8485
36329SOL     OW26596   6.292   2.183  12.129  0.6475  0.0346  0.0663
36329SOL    HW126597   6.332   2.135  12.202 -0.6399 -0.1482  0.6856
36329SOL    HW226598   6.244   2.254  12.172  1.3342  1.0209 -0.7465
36330SOL     OW26599   3.402   4.472   3.951  0.4066  0.2518  0.3699
36330SOL    HW126600   3.441   4.467   4.039  0.0167  1.5964  0.6528
36330SOL    HW226601   3.390   4.566   3.937  0.6989  0.0675 -1.2470
36331SOL     OW26602   9.251   7.782   2.444 -0.4274 -0.1669  0.1083
36331SOL    HW126603   9.264   7.724   2.518  0.1271 -0.9250 -0.5626
36331SOL    HW226604   9.279   7.731   2.368 -0.8884  0.6217 -0.6162
36332SOL     OW26605   8.171   0.681   8.426 -0.0862  0.1866  0.2545
36332SOL    HW126606   8.210   0.768   8.436 -0.6423  0.3953  0.7104
36332SOL    HW226607   8.201   0.632   8.502 -1.4422  0.6487  1.1308
36333SOL     OW26608   0.452   4.185  12.177 -0.2052 -0.1109 -0.3727
36333SOL    HW126609   0.470   4.223  12.263 -0.9519  1.2961 -0.7924
36333SOL    HW226610   0.536   4.150  12.149  0.3420  0.5014  0.4246
36334SOL     OW26611   5.074   4.884   5.001 -0.0239 -0.0826  0.3887
36334SOL    HW126612   5.039   4.880   5.090 -1.7073 -2.2226 -0.2751
36334SOL    HW226613   5.042   4.804   4.959 -0.9535  1.7363 -2.7256
36335SOL     OW26614  11.171   9.492  13.606  0.0938 -0.2670 -0.0326
36335SOL    HW126615  11.265   9.480  13.591  0.3144  0.9047  0.2777
36335SOL    HW226616  11.164   9.526  13.695 -0.6736 -0.8288  0.1362
36336SOL     OW26617   9.525  13.929   7.228 -0.0704 -0.0141 -0.4826
36336SOL    HW126618   9.510  14.023   7.241 -1.8816 -0.2381 -0.6532
36336SOL    HW226619   9.460  13.886   7.283  3.7174 -1.4093  3.4430
36337SOL     OW26620   3.463   8.937  11.045 -0.1409 -0.0126  0.9990
36337SOL    HW126621   3.377   8.919  11.083  0.4757 -1.2192  1.8950
36337SOL    HW226622   3.514   8.859  11.065  0.5945 -0.1794 -1.2659
36338SOL     OW26623   0.774  11.073   3.206  0.1363 -0.2025 -0.8897
36338SOL    HW126624   0.751  10.987   3.172 -0.1589 -0.4249 -0.1553
36338SOL    HW226625   0.793  11.058   3.299 -0.3119  0.5855 -0.6559
36339SOL     OW26626  12.619   9.616   3.208  0.1007 -0.0429  0.0512
36339SOL    HW126627  12.628   9.635   3.115  0.9136  0.1386  0.1619
36339SOL    HW226628  12.577   9.693   3.245 -0.2935 -0.1459 -0.1692
36340SOL     OW26629   0.139   0.447   9.576 -0.1976  0.0352 -0.1427
36340SOL    HW126630   0.168   0.533   9.605  0.4818 -0.1591 -0.2406
36340SOL    HW226631   0.219   0.401   9.551 -0.2318 -1.5426  2.2864
36341SOL     OW26632   7.383  10.449   6.265  0.4373  0.1079  0.5248
36341SOL    HW126633   7.364  10.356   6.282 -0.9050  0.1059 -0.7592
36341SOL    HW226634   7.476  10.459   6.285  1.1183 -1.9999 -1.2007
36342SOL     OW26635   6.742  12.574   5.962 -0.0333  0.1817 -0.2379
36342SOL    HW126636   6.766  12.495   5.914  0.4051  0.7210 -0.9238
36342SOL    HW226637   6.730  12.641   5.894 -1.9827  0.3324  0.1758
36343SOL     OW26638   0.679  11.074  12.673 -0.3966  0.1410  0.1814
36343SOL    HW126639   0.670  11.138  12.603 -1.4575 -1.3813 -1.1573
36343SOL    HW226640   0.592  11.035  12.682  0.2452 -1.2386  0.8067
36344SOL     OW26641   0.624   8.317  13.474  0.3660  0.1476 -0.2841
36344SOL    HW126642   0.595   8.408  13.469  0.5904  0.2569  0.2825
36344SOL    HW226643   0.588   8.275  13.396  0.5699  0.8128 -0.7393
36345SOL     OW26644  11.556  13.826   1.259  1.0233  0.1857  0.1304
36345SOL    HW126645  11.603  13.866   1.332  2.3731  1.4581 -1.3406
36345SOL    HW226646  11.618  13.832   1.186 -1.0703  1.0850 -1.6787
36346SOL     OW26647   2.161  11.514   9.197  0.3658 -0.1441 -0.5210
36346SOL    HW126648   2.123  11.427   9.209  0.4133  0.0168  0.9093
36346SOL    HW226649   2.085  11.572   9.187  0.2848 -0.1270  0.1657
36347SOL     OW26650  10.757  13.786   4.191  0.2862  0.1656  0.5692
36347SOL    HW126651  10.747  13.691   4.187  1.4736  0.0280  0.5254
36347SOL    HW226652  10.668  13.820   4.184  0.0103 -0.8585 -1.8970
36348SOL     OW26653   2.745   4.717   6.745  0.5073  0.5502  0.4558
36348SOL    HW126654   2.740   4.802   6.702 -0.9610 -0.8943 -2.5149
36348SOL    HW226655   2.834   4.686   6.725  0.0235  0.1305 -1.1942
36349SOL     OW26656   0.361   9.130   6.654  0.1934  0.4112  0.6665
36349SOL    HW126657   0.288   9.104   6.710 -0.3203 -1.5366 -0.7849
36349SOL    HW226658   0.438   9.091   6.695 -0.1120 -0.5686  0.3502
36350SOL     OW26659   8.294   6.331   8.966  0.3686 -0.1340  0.0344
36350SOL    HW126660   8.236   6.360   9.036 -0.1993  1.1842 -0.9366
36350SOL    HW226661   8.378   6.316   9.008 -0.2115 -0.3322  1.1487
36351SOL     OW26662  13.185  12.714  10.076 -0.0780 -0.2098  0.2020
36351SOL    HW126663  13.246  12.692  10.147  0.5146  0.6811 -0.0093
36351SOL    HW226664  13.103  12.673  10.101  0.5957 -1.4019  0.5227
36352SOL     OW26665  11.165   0.459  11.016 -0.3178  0.1989 -0.1291
36352SOL    HW126666  11.121   0.495  11.093  0.2449 -0.6364  0.6077
36352SOL    HW226667  11.256   0.486  11.026 -0.1154 -0.4487 -0.1534
36353SOL     OW26668  12.516  13.962  10.293  0.9123  0.3615  0.0805
36353SOL    HW126669  12.561  13.909  10.228 -0.6425  0.1053 -0.8356
36353SOL    HW226670  12.450  13.903  10.330 -0.2116  1.3694 -0.2761
36354SOL     OW26671   4.335  13.994   4.726  0.3415 -0.0970  0.1376
36354SOL    HW126672   4.265  14.052   4.756  1.4015  0.6581  1.2346
36354SOL    HW226673   4.291  13.910   4.710 -1.1001  0.7837 -0.8340
36355SOL     OW26674   2.776   9.533   1.778 -0.0675  0.3147 -0.7902
36355SOL    HW126675   2.717   9.557   1.707  1.1516  0.6757 -1.7113
36355SOL    HW226676   2.857   9.506   1.734 -0.0689 -1.8102  0.3470
36356SOL     OW26677   9.898   9.660  13.192 -0.1848  0.2296 -0.3684
36356SOL    HW126678   9.921   9.569  13.210 -0.6778  0.3209  0.8598
36356SOL    HW226679   9.886   9.665  13.097  0.1726 -0.9026 -0.4762
36357SOL     OW26680   6.299   4.046   2.469  0.1205  0.3736  0.3964
36357SOL    HW126681   6.266   3.997   2.393 -1.1283  0.4466  0.8568
36357SOL    HW226682   6.236   4.118   2.479  0.6198  0.7124  1.1352
36358SOL     OW26683   7.692   1.605  10.919  0.6146 -0.6662 -0.3494
36358SOL    HW126684   7.616   1.593  10.862  0.4220 -0.9206 -0.0397
36358SOL    HW226685   7.699   1.523  10.968  0.2825 -0.1443  0.5950
36359SOL     OW26686  13.786   1.708   5.228 -0.2319  0.0665 -0.2483
36359SOL    HW126687  13.723   1.661   5.283  1.8198 -2.6385 -0.0102
36359SOL    HW226688  13.822   1.776   5.285  0.0868 -1.1197  1.0221
36360SOL     OW26689  12.710  11.469   5.644  0.6556 -0.3557  0.7878
36360SOL    HW126690  12.746  11.557   5.655 -1.6509  0.7158  0.3860
36360SOL    HW226691  12.642  11.462   5.711 -0.3870 -1.1275 -0.3002
36361SOL     OW26692   9.550   0.882   3.440  0.1434  0.4902  0.5986
36361SOL    HW126693   9.534   0.974   3.463  1.7383  1.8107 -2.7921
36361SOL    HW226694   9.486   0.862   3.373  2.2194  0.5435 -1.5286
36362SOL     OW26695   0.056  13.783   0.606  0.0999 -0.2722 -0.0417
36362SOL    HW126696   0.101  13.718   0.659  0.2093 -1.0050 -0.9997
36362SOL    HW226697   0.117  13.857   0.601  0.5988 -0.6858 -0.1490
36363SOL     OW26698   9.439   3.201   8.609  0.2622 -0.2357  0.5948
36363SOL    HW126699   9.416   3.163   8.525  0.0290  0.1559  0.4780
36363SOL    HW226700   9.479   3.285   8.587  0.7216 -0.3875  0.8500
36364SOL     OW26701   5.003  10.047  12.832 -0.1200  0.4899  0.7174
36364SOL    HW126702   4.966  10.109  12.768  1.2345  1.0464  0.4215
36364SOL    HW226703   5.087  10.086  12.856  1.1134 -1.5876 -0.0181
36365SOL     OW26704   1.842   4.872   6.242 -0.0628  0.2539 -0.2778
36365SOL    HW126705   1.815   4.782   6.257  0.1299 -0.0042 -1.3727
36365SOL    HW226706   1.780   4.925   6.293 -0.8694 -0.4449 -0.5157
36366SOL     OW26707   1.898   9.912   9.848  0.6258 -0.5198  0.3459
36366SOL    HW126708   1.898  10.005   9.871 -1.6829  0.2427 -2.1624
36366SOL    HW226709   1.828   9.904   9.783  0.1880 -4.2025  1.0871
36367SOL     OW26710   2.741   5.106  12.524  0.1778  0.0330 -0.0856
36367SOL    HW126711   2.654   5.080  12.552 -0.7170  1.9381 -0.8910
36367SOL    HW226712   2.772   5.035  12.468 -1.2073 -0.3104 -0.4400
36368SOL     OW26713   7.872  10.428   8.200 -0.1739  0.2552 -0.2218
36368SOL    HW126714   7.806  10.446   8.133 -0.4577 -0.6678 -0.1982
36368SOL    HW226715   7.953  10.415   8.151  0.2653  2.4674 -0.1917
36369SOL     OW26716   2.421   8.739   9.975  0.5131 -0.4375 -0.2235
36369SOL    HW126717   2.364   8.769  10.046 -2.5928 -4.1644 -0.8146
36369SOL    HW226718   2.408   8.804   9.906 -0.7006  0.4054  0.7405
36370SOL     OW26719   9.228  10.329   2.846 -0.0184 -0.2693  0.1396
36370SOL    HW126720   9.259  10.240   2.829  0.3172 -0.0141 -0.6382
36370SOL    HW226721   9.137  10.328   2.817  0.9335  0.5680 -3.4539
36371SOL     OW26722   0.734   2.014   7.749 -0.2116 -0.8079 -0.1735
36371SOL    HW126723   0.683   2.095   7.738 -0.9257 -1.3159 -0.6526
36371SOL    HW226724   0.675   1.954   7.795  0.3719 -1.0143  0.3224
36372SOL     OW26725   3.791   6.864  14.031 -0.0716  0.0085  0.1291
36372SOL    HW126726   3.828   6.941  14.073 -1.4683  0.8332 -0.1115
36372SOL    HW226727   3.723   6.898  13.973 -0.7982 -1.4049  0.1017
36373SOL     OW26728  11.646  11.272  12.680 -0.0102  0.1741  0.2528
36373SOL    HW126729  11.676  11.202  12.739  1.7300  1.7276  1.3107
36373SOL    HW226730  11.695  11.257  12.599 -0.3254 -0.3295  0.1459
36374SOL     OW26731   6.162  12.211   3.446  0.5564 -0.7114 -0.2190
36374SOL    HW126732   6.213  12.145   3.493  0.4040  0.1105  1.1682
36374SOL    HW226733   6.174  12.291   3.497 -0.2922  0.0319 -1.1425
36375SOL     OW26734   3.660   3.068  11.743  0.0188  0.0686  0.0545
36375SOL    HW126735   3.580   3.120  11.736  0.3605  0.3628 -3.4852
36375SOL    HW226736   3.630   2.980  11.762 -0.8647  0.7563  2.0132
36376SOL     OW26737   4.631   3.052   7.899 -0.4943 -0.5925  0.2320
36376SOL    HW126738   4.720   3.034   7.870  0.2520 -0.2073  2.1496
36376SOL    HW226739   4.642   3.106   7.977 -2.4593  1.4913 -0.8093
36377SOL     OW26740   5.704   8.653   3.941  0.6255 -0.1525 -0.3131
36377SOL    HW126741   5.704   8.660   4.036  1.0385  1.8126 -0.4160
36377SOL    HW226742   5.653   8.728   3.911  1.3489 -0.1634 -1.6676
36378SOL     OW26743  10.750  13.144  13.974 -0.2621 -0.4066  0.0081
36378SOL    HW126744  10.797  13.218  13.935  1.4015 -0.4655  1.7452
36378SOL    HW226745  10.814  13.104  14.034 -1.9299 -1.7295  0.9952
36379SOL     OW26746  13.841   9.553   1.897  1.0419 -0.0614  0.4270
36379SOL    HW126747  13.883   9.611   1.833  1.2518  0.6186  1.1559
36379SOL    HW226748  13.757   9.596   1.916  0.1918 -1.1608 -0.6584
36380SOL     OW26749   2.375   0.663   7.192 -0.1678 -0.5774 -0.0675
36380SOL    HW126750   2.342   0.752   7.181  1.4120  0.2974  1.6779
36380SOL    HW226751   2.314   0.609   7.142 -1.7635  1.3508 -0.3579
36381SOL     OW26752  13.350   0.566   4.676 -0.3495  0.1514  0.3204
36381SOL    HW126753  13.364   0.661   4.673 -0.7473  0.1898 -0.5141
36381SOL    HW226754  13.306   0.546   4.594  1.4493 -1.0488 -0.4046
36382SOL     OW26755   9.556   4.656  12.555 -0.3446 -0.1206 -0.3622
36382SOL    HW126756   9.480   4.703  12.521 -0.5269  0.5766  0.9433
36382SOL    HW226757   9.520   4.602  12.626  0.4409  0.6010  0.6112
36383SOL     OW26758   5.590  10.776  10.525  0.9880  1.1673  0.0019
36383SOL    HW126759   5.585  10.796  10.432  1.0326 -0.8835 -0.4916
36383SOL    HW226760   5.684  10.776  10.544  1.2642 -1.7945 -0.8506
36384SOL     OW26761   8.498  13.350   8.261 -0.0284 -0.5402  0.1288
36384SOL    HW126762   8.525  13.412   8.192 -0.4723 -0.2093  0.2504
36384SOL    HW226763   8.544  13.269   8.238 -0.9574 -0.7408 -1.1530
36385SOL     OW26764   7.048  12.495   2.591 -0.1772 -0.4201 -0.2491
36385SOL    HW126765   7.026  12.533   2.506  0.9958  0.5504 -0.1384
36385SOL    HW226766   7.097  12.416   2.570  0.9482  0.3267 -0.4938
36386SOL     OW26767   6.337   8.132  14.034 -0.5053  0.3917 -0.2266
36386SOL    HW126768   6.263   8.190  14.052 -1.1375 -0.6913  0.8472
36386SOL    HW226769   6.374   8.114  14.121  1.1127  1.0017 -0.7552
36387SOL     OW26770  12.298  13.027  12.973  0.3771 -0.2823 -0.5753
36387SOL    HW126771  12.389  13.024  12.944  1.8945 -1.8418  3.5280
36387SOL    HW226772  12.270  12.935  12.973 -0.8913  0.0873 -0.9137
36388SOL     OW26773  11.209   9.164   7.651  0.0017  0.1406  0.0751
36388SOL    HW126774  11.166   9.249   7.658  0.1369  0.1569  0.8020
36388SOL    HW226775  11.199   9.139   7.560 -1.6431  0.0937  0.2397
36389SOL     OW26776   8.845   4.801  11.443  0.5004 -0.1390 -0.8157
36389SOL    HW126777   8.910   4.794  11.513  1.3980 -1.9284 -1.7384
36389SOL    HW226778   8.881   4.866  11.383 -0.3194  1.4733  0.3860
36390SOL     OW26779  13.394   7.001  12.899 -0.3034  0.6807  0.6950
36390SOL    HW126780  13.429   6.913  12.884  0.6857  1.1205  0.4129
36390SOL    HW226781  13.375   7.003  12.993  0.5864  0.4919  0.8890
36391SOL     OW26782  13.284   4.308   2.982  0.9386  0.2612  0.8452
36391SOL    HW126783  13.204   4.328   3.030  1.0866  0.1348  1.1423
36391SOL    HW226784  13.354   4.316   3.046  1.1177 -0.0890  0.6962
36392SOL     OW26785   8.288   0.135  10.061 -0.1806  0.4170  0.4586
36392SOL    HW126786   8.212   0.153  10.117 -0.9260  1.9254 -0.9566
36392SOL    HW226787   8.337   0.218  10.060  0.3017  0.1280 -0.4016
36393SOL     OW26788  12.852   9.654   4.720 -0.1446 -0.0418 -0.3922
36393SOL    HW126789  12.923   9.705   4.759  0.0020  0.6074 -1.4643
36393SOL    HW226790  12.775   9.674   4.773  0.3615 -0.3432  0.4607
36394SOL     OW26791   0.139   2.365   6.569  1.0798 -0.3142 -0.1237
36394SOL    HW126792   0.220   2.405   6.535  1.9830 -0.4679  1.7369
36394SOL    HW226793   0.168   2.280   6.602  0.1547 -0.3543  0.5956
36395SOL     OW26794   4.492   4.719   0.909 -0.0560 -0.3936  0.2969
36395SOL    HW126795   4.408   4.677   0.928 -0.6139  0.2696 -0.6204
36395SOL    HW226796   4.475   4.812   0.924  0.8338 -0.3522  1.1709
36396SOL     OW26797  13.084  13.244   1.094  0.4555  0.2578 -0.0262
36396SOL    HW126798  13.131  13.184   1.151 -1.3419  0.1722  1.4551
36396SOL    HW226799  13.138  13.323   1.091  0.9182 -0.0064  1.2480
36397SOL     OW26800   7.176   1.721   0.507 -0.4990  0.1430 -0.3735
36397SOL    HW126801   7.218   1.797   0.547 -0.8580  0.3744 -0.4351
36397SOL    HW226802   7.241   1.688   0.444 -0.3287  0.3768 -0.3217
36398SOL     OW26803   7.802   2.116   0.231 -0.0680 -0.4541  0.3079
36398SOL    HW126804   7.747   2.194   0.225  0.1815 -0.3219 -0.3037
36398SOL    HW226805   7.759   2.052   0.173 -1.3076 -1.4202  2.1825
36399SOL     OW26806   8.740   1.647  11.373 -0.7653 -0.0107  0.1598
36399SOL    HW126807   8.793   1.597  11.310  2.2839 -0.8071  3.0711
36399SOL    HW226808   8.782   1.733  11.376 -0.0404 -0.3992  1.9629
36400SOL     OW26809   9.276  12.310  13.602  0.1154  0.0189  0.0620
36400SOL    HW126810   9.371  12.309  13.590  0.2351 -1.3230  0.9082
36400SOL    HW226811   9.248  12.393  13.563  1.3712 -0.4705 -2.0810
36401SOL     OW26812  10.825   4.921   0.711 -0.3013  0.2027  0.1403
36401SOL    HW126813  10.744   4.912   0.762 -0.7289 -3.2150 -0.8787
36401SOL    HW226814  10.894   4.890   0.770 -0.4879 -1.5744 -0.5116
36402SOL     OW26815  13.452   7.131  13.400 -0.4605 -0.3645  0.5172
36402SOL    HW126816  13.462   7.046  13.357 -1.2856 -0.3974  0.3756
36402SOL    HW226817  13.463   7.113  13.493 -0.8472 -0.6590  0.5037
36403SOL     OW26818  12.920   0.801   0.975 -0.0535 -0.4388  0.1243
36403SOL    HW126819  12.958   0.882   1.008 -1.0394  0.1750 -0.2095
36403SOL    HW226820  12.864   0.769   1.046 -1.4578  0.4016 -0.5633
36404SOL     OW26821   7.254  12.648   9.463  0.2021 -0.2583  0.0538
36404SOL    HW126822   7.332  12.653   9.518  1.3486 -0.9457 -1.4116
36404SOL    HW226823   7.206  12.729   9.482  2.0154  0.9150 -0.0457
36405SOL     OW26824  12.126   3.725  13.908  0.5318 -0.0932  0.8112
36405SOL    HW126825  12.157   3.800  13.857  0.7707  0.0923  1.2293
36405SOL    HW226826  12.125   3.653  13.846 -0.7291  0.4845  0.1131
36406SOL     OW26827   0.487  13.629  13.266  0.2828  0.3421 -0.2787
36406SOL    HW126828   0.462  13.584  13.185 -0.6843  1.6183 -0.7397
36406SOL    HW226829   0.451  13.575  13.336  2.1704 -1.4262 -0.5980
36407SOL     OW26830   0.744  12.333  13.640 -0.1845 -0.2129 -0.4072
36407SOL    HW126831   0.686  12.338  13.564 -0.8338 -2.4671 -0.1436
36407SOL    HW226832   0.685  12.322  13.714  0.5164 -0.9046  0.0674
36408SOL     OW26833   5.932   3.924   8.004  0.1373 -0.1147 -0.3166
36408SOL    HW126834   6.028   3.928   8.003  0.2020 -1.3636 -1.1048
36408SOL    HW226835   5.905   4.006   8.046  1.5057  0.9068 -1.3497
36409SOL     OW26836  12.339   4.343  11.487 -0.6456 -0.4137  0.8558
36409SOL    HW126837  12.359   4.278  11.554  0.5827 -0.5771  0.3504
36409SOL    HW226838  12.275   4.300  11.430 -1.2863 -0.4693  1.6093
36410SOL     OW26839   2.197  12.891   9.185 -0.8278  0.0722  0.2950
36410SOL    HW126840   2.204  12.975   9.232 -0.8560 -0.3751  1.1278
36410SOL    HW226841   2.151  12.912   9.104 -0.3769  0.9570  0.2519
36411SOL     OW26842   6.541   3.924   2.547  0.7357  0.3425  0.1528
36411SOL    HW126843   6.478   3.987   2.511  0.5725  0.1100  0.0294
36411SOL    HW226844   6.608   3.978   2.588  0.8814  0.6148 -0.4309
36412SOL     OW26845  10.800  12.871  12.003  0.2172  0.2510  0.2632
36412SOL    HW126846  10.839  12.951  12.038  0.1075  0.9438 -1.1302
36412SOL    HW226847  10.707  12.877  12.025  0.2095  0.5197  0.1571
36413SOL     OW26848  13.079  13.366   5.741 -0.3509  0.1124 -0.3278
36413SOL    HW126849  13.096  13.278   5.707  1.2383  0.7795 -1.3574
36413SOL    HW226850  12.984  13.367   5.756 -0.5349 -1.4862 -1.1073
36414SOL     OW26851   5.430   5.022   5.993 -0.3031 -0.1296 -0.0781
36414SOL    HW126852   5.341   5.048   5.971 -0.3757 -0.2518  0.0688
36414SOL    HW226853   5.478   5.027   5.910 -1.2024 -3.2431 -0.9312
36415SOL     OW26854   2.818   0.924  12.354  0.0029  0.0850 -0.0104
36415SOL    HW126855   2.820   0.961  12.442 -1.6671  2.5187 -0.8805
36415SOL    HW226856   2.734   0.953  12.318  0.9589 -0.1719 -2.6685
36416SOL     OW26857   4.621   1.466   0.136  0.0975  0.4499  0.4292
36416SOL    HW126858   4.531   1.491   0.115  0.0638  2.0076  2.1323
36416SOL    HW226859   4.637   1.388   0.083 -1.4758  1.3955 -1.6129
36417SOL     OW26860   7.241  11.933  11.065  0.2694 -0.3692 -0.0700
36417SOL    HW126861   7.337  11.929  11.064  0.3025  0.1779 -1.5433
36417SOL    HW226862   7.215  11.874  11.136  1.7273  0.4268  1.1907
36418SOL     OW26863   4.442   6.072   8.176 -0.1393  0.0200  0.0177
36418SOL    HW126864   4.494   6.120   8.241 -0.2222 -0.6989  0.6266
36418SOL    HW226865   4.353   6.105   8.188 -0.4164 -1.0889  1.2424
36419SOL     OW26866   1.094   6.633   6.918 -0.0703  0.3567  0.0496
36419SOL    HW126867   1.126   6.632   6.828  1.9371  0.0464  0.7068
36419SOL    HW226868   1.151   6.696   6.963  0.3965 -1.0605  1.5461
36420SOL     OW26869   8.556   8.307  10.236 -0.7362 -0.3059  0.1785
36420SOL    HW126870   8.642   8.269  10.221 -0.3133  0.7223 -0.1043
36420SOL    HW226871   8.496   8.254  10.183 -0.2759 -0.9890  0.3307
36421SOL     OW26872   2.160  11.189   9.170  0.5185  0.1319  0.0976
36421SOL    HW126873   2.215  11.187   9.091  1.3601 -0.9760  0.6849
36421SOL    HW226874   2.222  11.197   9.242  0.0017 -1.7284  0.8162
36422SOL     OW26875   5.213   7.212   4.225  0.1205 -0.8880 -0.1044
36422SOL    HW126876   5.135   7.268   4.233  0.5867 -0.4253  1.6589
36422SOL    HW226877   5.185   7.127   4.260 -0.0678 -1.2452 -1.0924
36423SOL     OW26878  13.348   1.757   5.349  0.0424  0.1597 -0.0804
36423SOL    HW126879  13.365   1.698   5.276  0.4714 -0.4380  0.4963
36423SOL    HW226880  13.300   1.704   5.412  0.9191  0.2542  0.6882
36424SOL     OW26881   0.921   0.247   7.043  0.1370  0.5753 -0.1313
36424SOL    HW126882   1.010   0.247   7.078  0.0434  0.2627  0.1065
36424SOL    HW226883   0.871   0.302   7.104 -0.3072 -0.9823  0.9558
36425SOL     OW26884  10.209   2.182  11.369 -0.3852  0.3622 -0.3711
36425SOL    HW126885  10.272   2.113  11.388  1.0709  1.4505 -1.1207
36425SOL    HW226886  10.134   2.135  11.332 -0.2487 -0.9983  0.9455
36426SOL     OW26887   0.320   9.095  10.608  0.2860  0.7521 -0.1913
36426SOL    HW126888   0.378   9.147  10.664 -0.3145  0.5536  0.6280
36426SOL    HW226889   0.317   9.009  10.651 -0.5653  0.7465 -0.2544
36427SOL     OW26890   6.971   6.917   6.652 -0.2456 -0.8005 -0.0725
36427SOL    HW126891   7.038   6.861   6.613 -0.1512 -1.1238  0.5473
36427SOL    HW226892   6.892   6.864   6.652 -0.1934 -0.8794  0.3729
36428SOL     OW26893   1.903  12.935   0.982 -0.2280  0.1424 -0.2221
36428SOL    HW126894   1.954  13.007   0.944 -1.0159  0.6323 -0.3711
36428SOL    HW226895   1.882  12.879   0.907 -0.7454  0.4636 -0.3196
36429SOL     OW26896   6.511   1.602   7.562 -0.5810 -0.1180 -0.3131
36429SOL    HW126897   6.568   1.673   7.590 -0.9698  0.6562 -1.3925
36429SOL    HW226898   6.569   1.542   7.516 -0.2104 -0.6355  0.7970
36430SOL     OW26899  11.107  10.649   6.760 -0.6621 -0.1293  0.2654
36430SOL    HW126900  11.105  10.742   6.783 -0.3817 -0.4035  1.4397
36430SOL    HW226901  11.091  10.603   6.842  1.0739 -1.1621  0.0708
36431SOL     OW26902  11.499   5.692  10.097 -0.6300  0.1791  0.2165
36431SOL    HW126903  11.556   5.766  10.075 -1.3335  0.7629  0.3043
36431SOL    HW226904  11.528   5.664  10.184  0.3927 -0.3978 -0.2944
36432SOL     OW26905  11.335   8.421   5.816 -0.4176  0.4092  0.1560
36432SOL    HW126906  11.287   8.354   5.767 -1.7609  1.6599 -0.3258
36432SOL    HW226907  11.290   8.427   5.900  0.2025  0.1530  0.5131
36433SOL     OW26908   3.938   9.565   9.029  0.2783  0.5715  0.5010
36433SOL    HW126909   3.892   9.596   8.951 -1.3651 -0.8972  0.8366
36433SOL    HW226910   4.012   9.515   8.995  0.3119  1.0146 -0.0881
36434SOL     OW26911   2.419   0.710   3.960 -0.3455 -0.4828 -0.2091
36434SOL    HW126912   2.461   0.655   4.027 -1.5758 -0.2299  0.8074
36434SOL    HW226913   2.364   0.649   3.910  0.1767 -0.5831 -0.6673
36435SOL     OW26914  13.052   8.618  11.828 -0.2914 -0.3796 -0.1711
36435SOL    HW126915  13.091   8.579  11.906 -1.3319 -1.8425 -0.3473
36435SOL    HW226916  13.121   8.612  11.761  0.6726  1.0497  0.6201
36436SOL     OW26917  10.796   2.042  13.226 -0.4677 -0.3388  0.1578
36436SOL    HW126918  10.742   2.107  13.180 -0.3900  0.9413  1.7867
36436SOL    HW226919  10.732   1.987  13.272 -0.4988  1.8002  2.9137
36437SOL     OW26920   4.922   0.905   8.837  0.3523  0.1401  0.3783
36437SOL    HW126921   4.964   0.881   8.919  2.7828  0.5501 -0.6433
36437SOL    HW226922   4.871   0.828   8.812  1.0143 -0.6529  1.3957
36438SOL     OW26923   2.197   4.137   0.696 -0.3932  0.0630  0.3027
36438SOL    HW126924   2.129   4.070   0.701  0.0831 -0.8053 -2.5808
36438SOL    HW226925   2.277   4.090   0.721 -0.2300 -0.1865 -0.6362
36439SOL     OW26926   9.015  12.624   0.087  0.3709  0.1638 -0.4300
36439SOL    HW126927   9.049  12.618  -0.002  1.3288 -0.4616 -0.0324
36439SOL    HW226928   8.975  12.711   0.092 -1.5619 -0.5503 -2.1031
36440SOL     OW26929   8.926  13.741   7.792 -0.2252 -0.7712 -0.3389
36440SOL    HW126930   8.943  13.736   7.698 -0.9439 -2.7212 -0.4152
36440SOL    HW226931   9.002  13.698   7.832  0.0785  0.0539 -0.0200
36441SOL     OW26932  11.877   6.843   3.087 -0.1713 -0.2502 -0.5103
36441SOL    HW126933  11.835   6.929   3.078  1.0330  0.4541  0.2822
36441SOL    HW226934  11.847   6.793   3.011 -0.1035  1.2150 -1.5368
36442SOL     OW26935   1.508   5.642   1.788 -0.0402 -0.0198  0.3406
36442SOL    HW126936   1.506   5.555   1.829 -2.4685  0.9906  2.7084
36442SOL    HW226937   1.439   5.639   1.722  0.6193 -0.1898 -0.3518
36443SOL     OW26938   6.781  12.444   6.575 -0.3885  0.0951  0.1499
36443SOL    HW126939   6.705  12.496   6.552 -0.0974 -0.2021 -1.6096
36443SOL    HW226940   6.844  12.507   6.612 -0.8491  0.6115  0.0560
36444SOL     OW26941   6.108   0.822  12.901 -0.5344  0.4076 -0.1940
36444SOL    HW126942   6.055   0.788  12.829 -1.4619  2.5270 -0.5745
36444SOL    HW226943   6.060   0.798  12.980  0.3317 -1.6551 -0.2137
36445SOL     OW26944   1.954   2.866  13.507  0.1074 -0.0717 -0.0992
36445SOL    HW126945   1.956   2.952  13.465  1.7578 -0.0822 -0.1384
36445SOL    HW226946   1.989   2.881  13.595  1.8438 -0.8846 -0.5921
36446SOL     OW26947   2.434   3.401  11.794 -0.5814 -0.0305  0.2880
36446SOL    HW126948   2.468   3.322  11.837 -1.0627 -0.3371  0.1062
36446SOL    HW226949   2.482   3.473  11.836  0.2931 -0.4534  0.0472
36447SOL     OW26950   8.283   7.179   2.620 -0.0428  0.2852 -0.3820
36447SOL    HW126951   8.241   7.099   2.651  0.2051  0.7059  1.0860
36447SOL    HW226952   8.376   7.159   2.622  0.0592  0.8054  0.6100
36448SOL     OW26953   9.554   2.227  12.019 -0.2302 -0.1051 -0.2610
36448SOL    HW126954   9.579   2.201  12.108 -2.3016  0.2815  0.5030
36448SOL    HW226955   9.517   2.147  11.981  0.4197 -0.2037 -0.7026
36449SOL     OW26956   5.847  11.875   0.072 -0.3025  0.7243  0.1471
36449SOL    HW126957   5.839  11.790   0.029  3.2346  0.7102 -0.7806
36449SOL    HW226958   5.879  11.855   0.160  1.1681  1.0715 -0.2901
36450SOL     OW26959   3.175  10.121   4.037 -0.0909 -0.0511  0.5293
36450SOL    HW126960   3.162  10.123   3.942 -0.5685 -1.3139  0.5405
36450SOL    HW226961   3.209  10.207   4.059  0.2372  0.1848 -0.8236
36451SOL     OW26962  11.310   1.590  12.334 -0.2861 -0.1240  0.1737
36451SOL    HW126963  11.320   1.503  12.372 -3.5794 -0.0939  1.4625
36451SOL    HW226964  11.260   1.575  12.254 -2.4105  0.6096  1.2818
36452SOL     OW26965   1.610  13.044   2.670 -0.1856 -0.4675  0.3975
36452SOL    HW126966   1.636  13.130   2.703  0.1573 -0.3598 -0.1368
36452SOL    HW226967   1.550  13.063   2.598  0.5551 -0.6519 -0.2800
36453SOL     OW26968   8.771  11.284   2.844 -0.2935 -0.1664 -0.1758
36453SOL    HW126969   8.765  11.242   2.758 -0.9766  0.3898 -0.4113
36453SOL    HW226970   8.719  11.228   2.901 -0.7904  0.0902 -0.3775
36454SOL     OW26971  12.276   7.106   2.007 -0.3649 -0.0513  0.2510
36454SOL    HW126972  12.314   7.144   1.928 -0.9047 -0.3694 -0.1712
36454SOL    HW226973  12.232   7.026   1.976 -0.4812 -0.2407  0.8903
36455SOL     OW26974   0.531  12.087  12.742  0.7941  0.0697  0.5034
36455SOL    HW126975   0.511  12.168  12.789  1.1807 -0.3880  1.4881
36455SOL    HW226976   0.536  12.020  12.810  0.4520 -0.7946 -0.2989
36456SOL     OW26977   4.351   0.536   4.623  0.4527  0.1928  0.2363
36456SOL    HW126978   4.389   0.579   4.546 -0.3131 -1.5917 -1.2046
36456SOL    HW226979   4.257   0.537   4.607  0.3028 -0.4673  1.0011
36457SOL     OW26980   4.025  11.059   3.947  0.2378  0.0409  0.3459
36457SOL    HW126981   3.994  11.122   3.881 -0.7657  0.8288  1.5415
36457SOL    HW226982   4.121  11.063   3.940  0.1911  1.5467  0.2437
36458SOL     OW26983   9.081   9.789  11.143  0.0606  0.1530  0.1409
36458SOL    HW126984   9.057   9.735  11.218 -0.0969  0.3250  0.2151
36458SOL    HW226985   9.106   9.873  11.182 -2.3572  1.0810 -0.1352
36459SOL     OW26986  11.925   8.232   0.368  0.1013  0.0273 -0.1767
36459SOL    HW126987  11.958   8.157   0.417 -2.2668 -0.5373  0.6465
36459SOL    HW226988  11.859   8.196   0.309 -2.3707  1.5691  1.4570
36460SOL     OW26989   7.676   4.144  11.182  0.4320  0.7895  0.8211
36460SOL    HW126990   7.586   4.165  11.208  0.1136 -1.6390  1.9208
36460SOL    HW226991   7.721   4.127  11.264  1.4970  0.4650  0.1882
36461SOL     OW26992   9.983  13.570   2.943 -0.1101 -0.1020 -0.3324
36461SOL    HW126993  10.062  13.603   2.900 -0.6462 -0.0535 -1.3132
36461SOL    HW226994   9.935  13.648   2.969  0.0199 -0.1305  0.0027
36462SOL     OW26995   0.429   9.478   6.595 -0.1114  0.2077  0.1620
36462SOL    HW126996   0.509   9.495   6.545 -0.6905  0.0952 -0.8226
36462SOL    HW226997   0.460   9.447   6.680  0.9509 -2.6337 -1.1364
36463SOL     OW26998  11.497   2.967   5.759 -0.2119 -0.7461 -0.0499
36463SOL    HW126999  11.531   2.950   5.671 -0.6793 -1.1825 -0.1482
36463SOL    HW227000  11.508   2.885   5.806 -0.3212 -0.6307  0.1793
36464SOL     OW27001   6.664   4.139   9.472 -0.2375  0.1050 -0.8361
36464SOL    HW127002   6.707   4.064   9.431  1.3852  1.1870 -1.2200
36464SOL    HW227003   6.677   4.211   9.410  0.1574  1.2049  0.4710
36465SOL     OW27004   6.755   2.873   2.578 -0.4862  0.0329  0.3964
36465SOL    HW127005   6.746   2.826   2.496 -1.9939  0.0962  0.4974
36465SOL    HW227006   6.707   2.955   2.564  0.9763  0.9722  0.6666
36466SOL     OW27007  12.474   4.205   3.885 -0.0887  0.4763  0.2351
36466SOL    HW127008  12.543   4.142   3.906 -1.1789 -0.7326  0.3504
36466SOL    HW227009  12.493   4.233   3.796  0.4424  0.0135  0.1960
36467SOL     OW27010   5.867   1.567  11.657 -0.3549 -0.1468  0.2384
36467SOL    HW127011   5.835   1.575  11.747  1.4012  0.2545  0.8622
36467SOL    HW227012   5.889   1.657  11.632  0.5799 -0.4382 -0.0312
36468SOL     OW27013   0.850  11.462  11.798  0.6646  0.6498 -0.2958
36468SOL    HW127014   0.809  11.378  11.817  2.1717  0.1437  0.9408
36468SOL    HW227015   0.944  11.445  11.804  1.0865  1.9158 -2.2917
36469SOL     OW27016   6.038   7.706   5.711 -0.6089 -0.8221 -0.1549
36469SOL    HW127017   6.046   7.689   5.617 -2.2328  1.0522 -0.6859
36469SOL    HW227018   5.981   7.636   5.743 -1.7142 -0.3247 -0.9841
36470SOL     OW27019   8.764   5.841  13.554  0.5012 -0.3136  0.0785
36470SOL    HW127020   8.832   5.907  13.536  0.4255 -0.1897  0.2476
36470SOL    HW227021   8.806   5.781  13.616  0.0091  0.5264  1.2690
36471SOL     OW27022   6.460  11.490  10.167 -0.0298 -0.3294 -0.0755
36471SOL    HW127023   6.420  11.571  10.200  1.2316 -0.0419  0.8192
36471SOL    HW227024   6.526  11.467  10.233  1.8968 -0.2888 -1.8617
36472SOL     OW27025   5.268   3.563   8.849 -0.2199 -0.2244 -0.1424
36472SOL    HW127026   5.222   3.614   8.915 -0.5991  0.5097 -0.9560
36472SOL    HW227027   5.213   3.485   8.836 -0.2666 -0.2547  0.2198
36473SOL     OW27028   6.022   7.559   3.921 -0.8319  0.0064 -0.4230
36473SOL    HW127029   5.994   7.505   3.995 -0.6770  0.4681 -0.0250
36473SOL    HW227030   6.093   7.508   3.880 -0.9134 -0.2463 -0.2510
36474SOL     OW27031   5.667   1.817   9.934 -0.2906 -0.1337  0.1910
36474SOL    HW127032   5.751   1.804   9.890 -0.4898  0.8300 -0.5080
36474SOL    HW227033   5.641   1.729   9.962  0.5433 -0.5618 -0.3410
36475SOL     OW27034   8.842   4.437   3.484  0.6857 -0.5804  0.1724
36475SOL    HW127035   8.870   4.462   3.572 -2.5312  1.3476  0.7941
36475SOL    HW227036   8.800   4.351   3.496 -0.0805 -0.1523  0.6259
36476SOL     OW27037  13.429   8.686  13.337 -0.4145  0.4196  0.1789
36476SOL    HW127038  13.487   8.654  13.268  0.1462 -1.2264  1.3669
36476SOL    HW227039  13.341   8.662  13.307 -0.2826  0.7342 -0.4794
36477SOL     OW27040   7.806  11.347   2.593 -0.6173  0.0634  0.0340
36477SOL    HW127041   7.772  11.435   2.609 -0.1388  0.0394  1.2368
36477SOL    HW227042   7.765  11.320   2.510 -2.3241  0.6282  0.6615
36478SOL     OW27043   3.011   5.889   6.976  0.0257  0.4340 -0.3892
36478SOL    HW127044   3.074   5.929   6.916 -0.1764  1.9389  0.3504
36478SOL    HW227045   3.004   5.951   7.048 -2.7492  0.6330 -0.7234
36479SOL     OW27046  11.017   9.873   7.900 -0.3898 -0.2351  0.8654
36479SOL    HW127047  11.088   9.936   7.886 -0.1587 -0.7386 -0.3539
36479SOL    HW227048  11.048   9.818   7.972  0.2297 -0.1209  0.6914
36480SOL     OW27049  10.925   3.054   5.414  0.2883 -0.1055 -0.0855
36480SOL    HW127050  10.961   3.108   5.343  0.8166  0.8471  0.8755
36480SOL    HW227051  10.855   3.004   5.372 -0.3541  1.4773 -1.0000
36481SOL     OW27052   6.664   3.458   0.039 -0.4631 -0.0352  0.0113
36481SOL    HW127053   6.623   3.415   0.114 -0.7253 -2.1706 -1.2769
36481SOL    HW227054   6.738   3.401   0.016 -0.7043  0.2734 -1.6605
36482SOL     OW27055  11.327   9.310   6.233 -0.1076  0.0340  0.2897
36482SOL    HW127056  11.383   9.355   6.170 -0.3587  0.2087  0.1909
36482SOL    HW227057  11.238   9.334   6.208 -0.2983 -1.1825 -0.2803
36483SOL     OW27058  12.376  13.301  12.176  0.2438  0.3049 -0.4483
36483SOL    HW127059  12.404  13.347  12.097  1.8936  1.9243  0.9867
36483SOL    HW227060  12.424  13.344  12.248  2.4613 -3.9838  1.0240
36484SOL     OW27061   2.118   2.062   9.917 -0.1452  0.2006  0.0143
36484SOL    HW127062   2.159   2.123   9.978  1.1586  1.1196 -1.7007
36484SOL    HW227063   2.162   1.978   9.934 -1.0651 -0.0078  1.5257
36485SOL     OW27064   8.765  11.679   3.152  0.1238 -0.0002  0.0238
36485SOL    HW127065   8.688  11.726   3.185 -0.0370 -0.0987 -0.2144
36485SOL    HW227066   8.729  11.605   3.103  0.3198 -2.1678  2.8387
36486SOL     OW27067   8.941   6.127   4.712 -0.2863  0.2777 -0.2720
36486SOL    HW127068   8.976   6.214   4.732  0.5229 -0.0075 -0.4025
36486SOL    HW227069   8.867   6.144   4.654  0.6159  0.8467 -1.3231
36487SOL     OW27070  11.377   1.021   6.352  0.1186  0.0902  0.0270
36487SOL    HW127071  11.379   1.055   6.263  0.9915 -0.7162 -0.2841
36487SOL    HW227072  11.395   0.927   6.342  0.8820  0.1059  1.0991
36488SOL     OW27073  11.755   2.698  10.333  0.4218  0.0875  0.0215
36488SOL    HW127074  11.765   2.731  10.244  0.2744  1.5365  0.5144
36488SOL    HW227075  11.838   2.654  10.351  0.4635 -0.2031 -0.8128
36489SOL     OW27076   4.698  10.779   6.961  0.0837 -0.4793 -0.2543
36489SOL    HW127077   4.723  10.842   7.029 -1.6391  0.1092 -0.1109
36489SOL    HW227078   4.657  10.833   6.893  0.6093 -1.2104 -1.1631
36490SOL     OW27079   6.911   9.126   5.823  0.0081  0.4315  0.2309
36490SOL    HW127080   6.958   9.191   5.771  0.2104 -0.0666 -0.2128
36490SOL    HW227081   6.979   9.084   5.876  0.1091 -0.4051 -0.5352
36491SOL     OW27082   3.921   8.720   7.127  0.0907  0.1411 -0.1858
36491SOL    HW127083   4.009   8.740   7.096 -0.1852  0.2656 -0.9115
36491SOL    HW227084   3.895   8.797   7.178  1.2375 -0.8011  1.9488
36492SOL     OW27085   1.108  13.450   8.085  0.2942 -0.1777  0.3969
36492SOL    HW127086   1.177  13.515   8.097 -0.7479  1.0982 -0.2250
36492SOL    HW227087   1.040  13.496   8.036 -0.0383 -2.0581 -1.0395
36493SOL     OW27088  13.948   2.538   9.426  0.3296  0.0984 -0.4650
36493SOL    HW127089  13.861   2.572   9.443  1.1094  0.4554  3.9135
36493SOL    HW227090  14.004   2.615   9.417  0.6265 -0.0873 -0.2641
36494SOL     OW27091  12.533   0.414   2.114  0.0097  0.0495  0.4737
36494SOL    HW127092  12.526   0.500   2.155 -1.7840  0.8693 -1.3953
36494SOL    HW227093  12.617   0.416   2.068 -0.3320  1.0933 -0.1377
36495SOL     OW27094   6.883   1.482   7.573 -0.3409 -0.1834 -0.3553
36495SOL    HW127095   6.895   1.569   7.611  1.4591  0.0697 -1.3766
36495SOL    HW227096   6.914   1.491   7.483  1.5487 -2.2725  0.0003
36496SOL     OW27097   0.957   4.327   8.493  0.4900 -0.3781 -0.1823
36496SOL    HW127098   0.957   4.309   8.399  2.0484 -0.6374 -0.1556
36496SOL    HW227099   0.986   4.418   8.500  1.7278 -0.7826  0.0960
36497SOL     OW27100   9.750   3.522  10.978 -1.0783 -0.1298 -0.0164
36497SOL    HW127101   9.817   3.525  11.047  1.2719 -1.5586 -2.0755
36497SOL    HW227102   9.732   3.429  10.966 -0.6645 -0.0003 -1.9497
36498SOL     OW27103   7.574  13.123   8.807  0.0671  0.1243  0.3383
36498SOL    HW127104   7.497  13.135   8.751  0.0893 -1.5481 -0.1282
36498SOL    HW227105   7.595  13.030   8.798  2.7482  0.7069 -0.3396
36499SOL     OW27106  11.302   9.444   7.235 -0.5231 -0.1856 -0.4040
36499SOL    HW127107  11.330   9.385   7.165 -2.3957 -1.6417  0.0020
36499SOL    HW227108  11.209   9.459   7.218 -0.5569  1.0325  0.6840
36500SOL     OW27109   7.714   1.113  11.975  0.1613 -0.3010  0.1936
36500SOL    HW127110   7.766   1.050  12.024  1.3459 -1.0552 -1.8626
36500SOL    HW227111   7.637   1.064  11.946 -0.5769  0.1639  1.3361
36501SOL     OW27112  11.423   3.887  13.004  0.2157 -0.4471 -0.4011
36501SOL    HW127113  11.411   3.981  12.993  1.6214 -0.1114  0.5698
36501SOL    HW227114  11.389   3.869  13.092  2.0587 -0.3600  0.3854
36502SOL     OW27115   1.581  10.683   9.022 -0.3151 -0.3609 -0.4363
36502SOL    HW127116   1.593  10.622   8.950 -1.2446 -0.5765 -0.4135
36502SOL    HW227117   1.607  10.634   9.100  0.0211 -0.3498 -0.5376
36503SOL     OW27118   7.430   5.512   2.998 -0.0259  0.0271  0.0397
36503SOL    HW127119   7.444   5.551   2.911 -0.9659 -1.4366 -0.8184
36503SOL    HW227120   7.338   5.531   3.018  0.2907  0.6932  0.9247
36504SOL     OW27121  12.434  11.786   5.352  0.0695  0.2595  0.1565
36504SOL    HW127122  12.428  11.699   5.392  1.5246  0.6641  1.3573
36504SOL    HW227123  12.525  11.793   5.324 -0.5464  0.5836 -1.9699
36505SOL     OW27124   3.880  12.745  13.817 -0.0847 -0.6353 -0.3949
36505SOL    HW127125   3.908  12.741  13.725  0.6044 -0.6233 -0.1835
36505SOL    HW227126   3.785  12.728  13.813  0.0239 -1.1329 -1.0544
36506SOL     OW27127   6.790   5.476  13.268  0.3314  0.4187 -0.3124
36506SOL    HW127128   6.870   5.517  13.237 -0.5918  2.9240  0.3553
36506SOL    HW227129   6.754   5.432  13.191  2.3595 -0.8834 -0.5787
36507SOL     OW27130   0.875   7.965  11.457  0.2205  0.6296 -0.0761
36507SOL    HW127131   0.964   7.968  11.493 -0.1578 -0.0360  0.9412
36507SOL    HW227132   0.824   7.920  11.524 -0.9965  1.4605 -0.4297
36508SOL     OW27133   4.270  11.320   8.102  0.1799 -0.2046 -0.8483
36508SOL    HW127134   4.329  11.388   8.134  1.2225 -1.7003  0.5122
36508SOL    HW227135   4.308  11.238   8.133 -2.7290 -1.2443  0.3159
36509SOL     OW27136   2.652   6.581   2.027 -0.0888 -0.5242 -0.0888
36509SOL    HW127137   2.642   6.517   1.956 -1.1097 -1.9544  1.2856
36509SOL    HW227138   2.573   6.634   2.022 -0.8040 -1.4760  0.7651
36510SOL     OW27139   8.220   6.713   9.045  0.1538 -0.2452 -0.2401
36510SOL    HW127140   8.188   6.686   9.131  1.4116  0.4424  0.4879
36510SOL    HW227141   8.142   6.719   8.990 -0.7369 -0.1523  1.0059
36511SOL     OW27142   5.456  12.544   4.387 -0.8888  0.5428  0.0595
36511SOL    HW127143   5.511  12.617   4.361  0.2694 -0.4788 -0.4502
36511SOL    HW227144   5.497  12.508   4.465 -0.9262 -0.1131 -0.2147
36512SOL     OW27145  13.225   8.377   1.792  0.1424  0.4701 -0.1090
36512SOL    HW127146  13.139   8.401   1.826 -0.1140 -0.3512 -0.1621
36512SOL    HW227147  13.277   8.356   1.870  0.5080  1.5884 -0.0283
36513SOL     OW27148   5.071   6.469   2.645 -0.2371  0.1077  0.2929
36513SOL    HW127149   5.042   6.442   2.557  2.3527  1.8247 -1.2150
36513SOL    HW227150   4.999   6.522   2.678 -1.2281 -0.4862 -0.8035
36514SOL     OW27151  13.627  12.794   7.134  0.1676 -0.0250 -0.1784
36514SOL    HW127152  13.656  12.707   7.164  0.8054  0.2366 -0.0197
36514SOL    HW227153  13.706  12.835   7.100 -0.1146  0.5367 -0.1679
36515SOL     OW27154   1.192   0.919   9.081 -0.5270  0.0592  0.1371
36515SOL    HW127155   1.265   0.891   9.137  0.5486 -0.1370 -1.3136
36515SOL    HW227156   1.131   0.845   9.084  0.0694 -0.4473  0.1163
36516SOL     OW27157   5.655   1.011   4.765 -0.4989  0.1013 -0.5178
36516SOL    HW127158   5.588   0.950   4.734  1.3244 -1.0277 -2.4654
36516SOL    HW227159   5.677   0.979   4.853 -0.6472 -1.1176 -0.9053
36517SOL     OW27160  12.006   8.938  10.862 -0.3701 -0.0875  0.0351
36517SOL    HW127161  12.101   8.942  10.850 -0.4405  1.7545 -0.2266
36517SOL    HW227162  11.994   8.942  10.957 -0.1962  0.2464  0.0447
36518SOL     OW27163   6.449   4.866  13.993  0.1026 -0.4449 -0.2556
36518SOL    HW127164   6.457   4.950  13.947 -2.4328  0.0047 -0.0240
36518SOL    HW227165   6.539   4.838  14.007  1.0310  2.0994 -0.5935
36519SOL     OW27166  13.525   8.149   6.686 -0.3180 -0.1989 -0.1613
36519SOL    HW127167  13.456   8.141   6.621 -0.8513 -1.0117  0.4788
36519SOL    HW227168  13.518   8.070   6.739  1.1116 -0.3001 -0.0775
36520SOL     OW27169  11.382   5.249   0.293 -0.4035 -0.4855 -0.1026
36520SOL    HW127170  11.300   5.292   0.317 -1.3982 -1.3489 -1.7514
36520SOL    HW227171  11.450   5.304   0.332 -1.7387  0.2871  1.2620
36521SOL     OW27172   0.105   2.056   3.573  0.2645 -0.2184 -0.2793
36521SOL    HW127173   0.122   2.018   3.660 -0.1039 -1.1431 -0.6043
36521SOL    HW227174   0.191   2.053   3.530  0.6041  0.8642  0.2679
36522SOL     OW27175   0.388   5.123   1.220 -0.1811  0.9634 -0.4192
36522SOL    HW127176   0.319   5.188   1.205  0.0930  1.2419 -0.4882
36522SOL    HW227177   0.346   5.057   1.275 -1.3111 -0.2419 -2.5759
36523SOL     OW27178   3.341   7.252   2.054  0.0666 -0.1396 -0.0329
36523SOL    HW127179   3.377   7.337   2.079 -2.7722  0.3776  3.0148
36523SOL    HW227180   3.259   7.272   2.010 -0.1446 -1.2972 -0.2057
36524SOL     OW27181  13.446   7.344   3.354  0.1944  0.0947 -0.4713
36524SOL    HW127182  13.460   7.368   3.263 -0.6663  2.0859 -0.1329
36524SOL    HW227183  13.462   7.249   3.357 -0.5677 -0.1691 -2.8309
36525SOL     OW27184  11.838  13.985   3.297 -0.5608  0.4786 -0.1099
36525SOL    HW127185  11.802  13.916   3.353 -1.3329  1.0605  0.1377
36525SOL    HW227186  11.932  13.985   3.314 -0.3222 -1.4686 -1.1867
36526SOL     OW27187  13.957   6.142   1.816  0.1723  0.1521  0.5918
36526SOL    HW127188  13.961   6.225   1.864 -0.6926  1.7397 -1.8743
36526SOL    HW227189  13.912   6.164   1.734 -2.3785 -3.3009  0.8329
36527SOL     OW27190  10.539  12.284   0.392 -0.3146  0.2387  0.4558
36527SOL    HW127191  10.630  12.300   0.368 -0.1634  0.0803  0.9045
36527SOL    HW227192  10.544  12.236   0.475 -0.8019  0.0796  0.3996
36528SOL     OW27193   7.501  12.756   0.074 -0.0523  0.0334 -0.3300
36528SOL    HW127194   7.563  12.800   0.015  0.4613  0.1704  0.3026
36528SOL    HW227195   7.507  12.663   0.050 -0.9153  0.2493 -1.4617
36529SOL     OW27196  13.085   1.263   1.088 -0.0094  0.2558 -0.5083
36529SOL    HW127197  13.033   1.185   1.107  0.7859 -0.2956 -0.5696
36529SOL    HW227198  13.035   1.335   1.128 -1.3871 -0.0926 -1.5215
36530SOL     OW27199   3.781   9.668   2.340  0.4276 -0.1687  0.7489
36530SOL    HW127200   3.690   9.693   2.325 -0.0227 -0.4087  2.7352
36530SOL    HW227201   3.830   9.712   2.271 -1.1338  0.3831 -0.0508
36531SOL     OW27202  10.678  14.068   8.175 -0.4639 -0.1017 -0.6923
36531SOL    HW127203  10.760  14.077   8.225 -0.9993 -0.4514  0.2730
36531SOL    HW227204  10.687  13.985   8.129  0.7156  0.9654 -2.5135
36532SOL     OW27205  12.809  13.291   7.289  0.0641 -0.0343 -0.1263
36532SOL    HW127206  12.721  13.314   7.318  0.5237 -1.2140  2.5247
36532SOL    HW227207  12.863  13.366   7.314  0.7450 -1.6687  4.0565
36533SOL     OW27208   7.766  11.966  12.822  0.1516 -0.0306 -0.2047
36533SOL    HW127209   7.704  11.995  12.755  1.7423 -0.0844 -1.7954
36533SOL    HW227210   7.786  11.875  12.799  2.8236  0.7662 -1.4596
36534SOL     OW27211   4.119   9.730   7.264 -0.0281 -0.1016  0.3530
36534SOL    HW127212   4.170   9.788   7.208 -1.0172  0.8051  0.3516
36534SOL    HW227213   4.180   9.662   7.290  0.0783 -1.6321 -3.2791
36535SOL     OW27214   5.916   4.296   9.110 -0.1177 -0.0551 -0.2005
36535SOL    HW127215   5.930   4.379   9.064 -2.9602  0.6590  0.0151
36535SOL    HW227216   5.996   4.246   9.094  0.1742  1.2097 -3.5718
36536SOL     OW27217   4.978  10.303   5.207 -0.2257 -0.0268 -0.6438
36536SOL    HW127218   5.017  10.261   5.130 -1.5900 -1.9022 -0.4038
36536SOL    HW227219   4.924  10.373   5.171 -0.3466 -0.4820 -1.3759
36537SOL     OW27220  11.180   5.281  12.663  0.0631 -0.0132  0.5838
36537SOL    HW127221  11.150   5.294  12.753 -0.5239 -0.6187  0.4805
36537SOL    HW227222  11.185   5.186  12.653  2.5311  0.0388  0.7575
36538SOL     OW27223   0.631   0.374   6.364  0.1483 -0.0249 -0.2448
36538SOL    HW127224   0.639   0.445   6.427 -1.5513 -0.4224  0.4669
36538SOL    HW227225   0.624   0.418   6.279 -0.8200  0.6601  0.1787
36539SOL     OW27226   4.583   5.836  12.100  0.6882  0.1551 -0.1672
36539SOL    HW127227   4.514   5.888  12.058  0.8975 -0.4799 -1.3181
36539SOL    HW227228   4.630   5.899  12.155 -0.6050  0.6600  0.3968
36540SOL     OW27229   9.068  10.014   2.453  0.0226 -0.3402 -0.0994
36540SOL    HW127230   9.092  10.105   2.474  0.2343 -0.6243  0.9651
36540SOL    HW227231   8.980  10.004   2.488 -0.2840 -0.3419 -0.8589
36541SOL     OW27232   0.734   7.006   6.872  0.1222 -0.0122 -0.0502
36541SOL    HW127233   0.823   7.038   6.855  0.7835 -1.6729  0.0922
36541SOL    HW227234   0.687   7.023   6.790  1.1258 -0.8383 -0.8369
36542SOL     OW27235  11.334  10.236   3.447 -0.4152  0.3755  0.7124
36542SOL    HW127236  11.255  10.235   3.501 -0.2162 -1.1493  1.0150
36542SOL    HW227237  11.395  10.179   3.492  0.0778 -0.2051 -0.6324
36543SOL     OW27238   8.499   7.535   4.608  0.2213 -0.9377  0.2159
36543SOL    HW127239   8.587   7.549   4.642  0.3047 -1.3092  0.1552
36543SOL    HW227240   8.482   7.613   4.554  0.4226 -0.7582  0.4090
36544SOL     OW27241  11.938  13.322   4.437  0.1275 -0.0059 -0.2833
36544SOL    HW127242  11.858  13.297   4.391 -0.3124  0.9997 -0.1028
36544SOL    HW227243  11.983  13.381   4.377  0.1285  0.3959  0.1075
36545SOL     OW27244   9.215   5.908  11.043  0.3342 -0.3274 -0.1650
36545SOL    HW127245   9.256   5.989  11.013  1.2981 -0.1015  1.6322
36545SOL    HW227246   9.122   5.928  11.047  0.6387  1.0096  1.0819
36546SOL     OW27247   8.800   4.124   0.843  0.1415  0.4469  0.7610
36546SOL    HW127248   8.892   4.146   0.833  0.6870 -1.3823  1.3512
36546SOL    HW227249   8.781   4.063   0.772 -0.0596 -0.7069  1.7701
36547SOL     OW27250  12.426   6.762  10.528  0.2912  0.2044 -0.2649
36547SOL    HW127251  12.444   6.733  10.439 -0.8047 -0.8966 -0.1561
36547SOL    HW227252  12.340   6.803  10.523  1.2757  2.3990 -0.1597
36548SOL     OW27253   9.585  12.175   7.860 -0.1286  0.2966 -0.0829
36548SOL    HW127254   9.594  12.165   7.955  0.2360  0.5627 -0.0913
36548SOL    HW227255   9.641  12.249   7.838 -1.3234  1.1586 -0.3057
36549SOL     OW27256   7.185   8.350   7.977 -0.3391 -0.8615  0.0597
36549SOL    HW127257   7.189   8.408   7.901 -1.6957  1.2552  1.5099
36549SOL    HW227258   7.099   8.308   7.971  0.1624 -1.8633 -0.3475
36550SOL     OW27259  12.579  13.204   5.928  0.8695 -0.1987  0.5247
36550SOL    HW127260  12.584  13.108   5.925  1.5490 -0.1910  1.3204
36550SOL    HW227261  12.596  13.231   5.837 -0.4854 -0.8608  0.0401
36551SOL     OW27262  10.136   5.624   4.312 -0.0723  0.4093 -0.5797
36551SOL    HW127263  10.138   5.617   4.216  1.1071  0.0192 -0.5456
36551SOL    HW227264  10.186   5.548   4.342  0.5292  1.1371  0.3119
36552SOL     OW27265   6.159  11.442   2.331  0.2691 -0.6763  0.0687
36552SOL    HW127266   6.134  11.443   2.239 -0.1608 -0.0426  0.1862
36552SOL    HW227267   6.096  11.384   2.372  2.1871 -3.3237 -0.4824
36553SOL     OW27268   1.892   1.541  13.158 -0.3168 -0.4433 -0.3021
36553SOL    HW127269   1.880   1.470  13.220 -1.2423  0.7419  0.9399
36553SOL    HW227270   1.837   1.517  13.083  0.8943 -1.9317 -0.7605
36554SOL     OW27271  10.823  12.004   5.730 -0.2482  0.4632  0.3226
36554SOL    HW127272  10.873  12.065   5.676  0.0199  0.9414  1.0887
36554SOL    HW227273  10.732  12.019   5.706 -0.1630  0.9731  0.3079
36555SOL     OW27274   2.300   4.379   0.651 -0.3587 -0.3336 -0.2152
36555SOL    HW127275   2.376   4.336   0.612 -0.8303 -1.0751 -0.3504
36555SOL    HW227276   2.244   4.307   0.679 -0.2809  0.1904  1.3609
36556SOL     OW27277   1.536   8.940  13.971 -0.9901  0.0962 -0.0223
36556SOL    HW127278   1.585   8.875  14.021 -1.2379  0.6759  1.0035
36556SOL    HW227279   1.603   9.001  13.939 -1.0096  0.9119  1.4148
36557SOL     OW27280   1.656  12.011  12.488  0.4022 -0.3366  0.4076
36557SOL    HW127281   1.612  12.077  12.435  0.2101 -0.8716 -0.1101
36557SOL    HW227282   1.675  12.055  12.571  0.8749  0.5748 -0.1647
36558SOL     OW27283   0.409  13.501   0.548  0.0456  0.7089  0.0148
36558SOL    HW127284   0.342  13.437   0.525  1.1386 -0.8581  1.0426
36558SOL    HW227285   0.462  13.458   0.614  0.5118  2.8874  1.1510
36559SOL     OW27286   1.208   8.157   1.898  0.0099 -0.1683  0.0051
36559SOL    HW127287   1.174   8.245   1.912  0.4941  0.3251 -1.6879
36559SOL    HW227288   1.140   8.099   1.932 -1.2910  0.8412 -0.7622
36560SOL     OW27289  12.734   2.990   3.625  0.1915  0.2044  0.4520
36560SOL    HW127290  12.770   3.044   3.696 -1.1569 -0.6366  1.8547
36560SOL    HW227291  12.804   2.986   3.560  1.1252  1.8155  1.2894
36561SOL     OW27292   9.475   8.990  10.097  0.1817  0.3516  0.4462
36561SOL    HW127293   9.559   9.036  10.095  0.5864 -0.4123 -0.8761
36561SOL    HW227294   9.454   8.972  10.006 -1.1339 -0.0210  0.7921
36562SOL     OW27295   3.714  10.678   5.675  0.3840 -0.2636 -0.0116
36562SOL    HW127296   3.685  10.768   5.681  0.1363 -0.0541 -2.8051
36562SOL    HW227297   3.805  10.679   5.705  0.5034  0.9941 -0.3930
36563SOL     OW27298   6.439  11.178   8.027 -0.2827 -0.1045  0.3459
36563SOL    HW127299   6.355  11.146   7.994  0.1905 -0.7961 -0.2316
36563SOL    HW227300   6.430  11.273   8.030 -0.3083  0.0134 -1.9545
36564SOL     OW27301   6.593   6.218   5.718  0.5016 -0.8960 -0.1763
36564SOL    HW127302   6.572   6.312   5.718  0.8149 -0.8260 -0.2836
36564SOL    HW227303   6.510   6.175   5.696  0.2065 -0.6756  0.4748
36565SOL     OW27304  13.653   8.874   4.630 -0.0025  0.0877 -0.1874
36565SOL    HW127305  13.672   8.804   4.568  1.3799 -0.1195  0.4267
36565SOL    HW227306  13.665   8.834   4.716 -2.9352  0.0784  0.2990
36566SOL     OW27307   6.044  12.215  12.278 -0.5844  0.3118  0.0232
36566SOL    HW127308   6.023  12.206  12.185 -0.9053 -0.2685  0.1488
36566SOL    HW227309   6.068  12.307  12.288  1.6076 -0.0517 -1.0693
36567SOL     OW27310   5.322  10.675  13.709 -0.0546  0.1193  0.0726
36567SOL    HW127311   5.379  10.727  13.651 -0.9827  0.4028 -0.6226
36567SOL    HW227312   5.373  10.662  13.788  0.0330  2.5949  0.5063
36568SOL     OW27313   4.423  12.625  12.897 -0.5602  0.6443  0.0652
36568SOL    HW127314   4.447  12.607  12.807 -0.5027  1.0158  0.0076
36568SOL    HW227315   4.439  12.718  12.909 -0.7835  0.6439  0.3910
36569SOL     OW27316   4.635  12.681   9.345 -0.2233  0.3404 -0.8050
36569SOL    HW127317   4.646  12.591   9.375 -1.2550  0.5483  0.2771
36569SOL    HW227318   4.723  12.710   9.324  0.5055 -0.0200  1.5340
36570SOL     OW27319   9.834   1.765   5.030  1.0117 -0.1563 -0.0210
36570SOL    HW127320   9.888   1.706   4.977  1.7477 -0.4354  1.0184
36570SOL    HW227321   9.879   1.849   5.024  0.2369  0.2129 -1.0884
36571SOL     OW27322  12.510   0.754   8.238  0.7063 -1.2065  0.3404
36571SOL    HW127323  12.507   0.796   8.324 -0.6919  0.5671 -0.4908
36571SOL    HW227324  12.558   0.673   8.252  0.0364 -1.2481  2.9095
36572SOL     OW27325   0.996   4.614   7.389  0.1381  0.0018 -0.0317
36572SOL    HW127326   1.073   4.654   7.348  1.0830  0.4990  2.0858
36572SOL    HW227327   0.925   4.676   7.372 -0.2632 -1.1970 -3.3551
36573SOL     OW27328   9.815   3.833   3.892  0.0278 -0.4757 -0.2963
36573SOL    HW127329   9.906   3.823   3.862  0.2053 -4.1467  0.9534
36573SOL    HW227330   9.762   3.813   3.815  0.3578 -0.8438 -0.4353
36574SOL     OW27331   7.941   5.945   0.529 -0.2237  0.1004 -0.2553
36574SOL    HW127332   8.035   5.930   0.541 -0.3003  0.2796  0.6207
36574SOL    HW227333   7.934   5.977   0.439  0.4393 -0.8257 -0.6492
36575SOL     OW27334   3.477  11.049  13.861  0.5044  0.3160  0.2596
36575SOL    HW127335   3.519  10.992  13.796 -0.3825  2.1768 -2.1081
36575SOL    HW227336   3.543  11.116  13.880  0.6366 -0.0278  1.0472
36576SOL     OW27337  14.016   3.871   6.713  0.3076  0.0052  0.1414
36576SOL    HW127338  14.080   3.941   6.726 -0.5396  0.7474  0.4249
36576SOL    HW227339  13.946   3.890   6.776 -0.3499 -0.6021 -0.3866
36577SOL     OW27340   9.575  12.590   8.728 -0.6394 -0.2086 -0.0892
36577SOL    HW127341   9.529  12.672   8.745  0.9404  0.7584 -0.1824
36577SOL    HW227342   9.561  12.574   8.634  0.9662  1.2901 -0.6461
36578SOL     OW27343   0.107  12.157   8.930 -0.4379 -0.3765  0.2975
36578SOL    HW127344   0.126  12.231   8.988  1.5898 -0.9188  0.3784
36578SOL    HW227345   0.050  12.101   8.983 -1.3869  0.7252  0.5070
36579SOL     OW27346   4.342  13.876   4.025  0.4014  0.5593  0.2392
36579SOL    HW127347   4.295  13.953   3.994  1.5937  0.7813 -1.1517
36579SOL    HW227348   4.341  13.815   3.951  0.7855 -0.1320  0.7874
36580SOL     OW27349   4.673  11.293  13.486 -0.2823  0.1806  0.1083
36580SOL    HW127350   4.595  11.344  13.506 -1.3373 -0.6777 -1.5889
36580SOL    HW227351   4.698  11.253  13.570 -0.9474  1.3768  0.9051
36581SOL     OW27352   1.595   9.452   3.593 -0.4410  0.3554  0.0959
36581SOL    HW127353   1.569   9.422   3.505 -0.2378 -0.2247  0.2287
36581SOL    HW227354   1.680   9.412   3.608  0.4937  2.1225 -0.2649
36582SOL     OW27355  12.967   5.170  11.090  0.7217 -0.1806  0.2876
36582SOL    HW127356  12.972   5.080  11.058 -1.7384  0.3162 -1.8733
36582SOL    HW227357  13.042   5.214  11.051  0.0493 -0.5699 -1.5443
36583SOL     OW27358  13.144   7.820   2.552 -0.4701  0.4497 -0.4795
36583SOL    HW127359  13.169   7.840   2.462 -3.0952 -0.0301 -1.4048
36583SOL    HW227360  13.155   7.903   2.599 -0.3331  1.0556 -1.5480
36584SOL     OW27361   3.607   4.403  13.144  0.6191 -0.1652  0.0284
36584SOL    HW127362   3.539   4.337  13.156 -0.9177  1.1916 -0.7978
36584SOL    HW227363   3.595   4.435  13.055 -0.9014  3.4933  1.3465
36585SOL     OW27364  13.945   4.137  10.501  0.2287 -0.3212 -0.0329
36585SOL    HW127365  13.923   4.069  10.564  1.3986 -0.7535 -0.0645
36585SOL    HW227366  13.970   4.089  10.422 -0.4429  0.1963 -0.5805
36586SOL     OW27367  10.571   7.711   0.408 -0.1797 -0.4381 -0.4758
36586SOL    HW127368  10.659   7.713   0.370  0.6287  2.0631  1.2187
36586SOL    HW227369  10.521   7.773   0.355  0.0516  0.5708  0.4184
36587SOL     OW27370  11.194   3.327   5.682 -0.2912  0.0945  0.2003
36587SOL    HW127371  11.235   3.254   5.635 -2.7089 -0.3443 -1.4112
36587SOL    HW227372  11.102   3.304   5.688 -0.7840  2.0841  1.5461
36588SOL     OW27373   3.706   6.684   7.402  0.2536 -0.1945  0.2764
36588SOL    HW127374   3.748   6.651   7.481 -1.7999  0.0920  1.5730
36588SOL    HW227375   3.701   6.779   7.416  0.3373 -0.0841 -0.4383
36589SOL     OW27376   3.676   3.327   7.021 -0.0100 -0.3916  0.0904
36589SOL    HW127377   3.708   3.339   6.931 -0.6315 -1.6937 -0.3389
36589SOL    HW227378   3.735   3.262   7.059  1.7562  1.8684  1.5065
36590SOL     OW27379  10.323   6.789   1.333 -0.1077 -0.0482 -0.0585
36590SOL    HW127380  10.347   6.879   1.312  0.3625 -0.0439  0.5019
36590SOL    HW227381  10.270   6.796   1.412  2.3735 -0.4889  1.7409
36591SOL     OW27382  10.759   3.918   1.101  0.4427  0.2589 -0.1435
36591SOL    HW127383  10.728   3.848   1.157  1.2288  0.6578  0.8112
36591SOL    HW227384  10.824   3.877   1.044  0.2957  0.0420 -0.1543
36592SOL     OW27385   5.031  11.452  13.628 -0.6497 -0.5943 -0.4405
36592SOL    HW127386   5.042  11.420  13.539  0.1693  1.0701 -0.9744
36592SOL    HW227387   4.956  11.511  13.624  0.5543  1.0246 -0.5289
36593SOL     OW27388   0.216  12.140   7.674  0.3863 -0.3045 -0.0974
36593SOL    HW127389   0.262  12.059   7.695  1.0215  0.2641  0.7358
36593SOL    HW227390   0.255  12.206   7.731 -1.6016  0.1689  0.7919
36594SOL     OW27391  10.687   3.202   0.573  0.4804 -0.0548  0.3836
36594SOL    HW127392  10.692   3.159   0.659  0.5976  0.1971  0.5037
36594SOL    HW227393  10.713   3.292   0.590  2.4436 -0.4490 -0.2660
36595SOL     OW27394   3.185   5.322   5.876  0.3373 -0.2606 -0.3102
36595SOL    HW127395   3.160   5.250   5.935 -0.8962  0.7785  0.4908
36595SOL    HW227396   3.261   5.362   5.918 -0.3948  0.3299  0.5114
36596SOL     OW27397  12.484   6.547   8.583  0.3992 -0.4233 -0.3002
36596SOL    HW127398  12.461   6.523   8.673 -0.5295  0.1824 -0.3621
36596SOL    HW227399  12.569   6.589   8.590  0.6986 -1.0971  0.1925
36597SOL     OW27400   7.648  11.883   3.122 -0.0436  0.0338 -0.1598
36597SOL    HW127401   7.649  11.972   3.088  1.1799 -0.0468 -0.3522
36597SOL    HW227402   7.740  11.859   3.130 -0.3513 -0.9902  0.4835
36598SOL     OW27403  13.766  10.221   9.301 -0.6388 -1.0965 -0.8598
36598SOL    HW127404  13.838  10.185   9.249 -0.5872 -0.5839 -1.1600
36598SOL    HW227405  13.691  10.219   9.242 -0.5791 -0.5019 -0.9645
36599SOL     OW27406   8.735   0.498   2.953  0.2145  0.3834  0.2812
36599SOL    HW127407   8.657   0.489   3.007  0.5819 -0.0953  0.7477
36599SOL    HW227408   8.802   0.447   2.999  0.2489 -1.0247 -1.1967
36600SOL     OW27409   1.038   4.775  13.009  0.1010 -0.1865  0.1350
36600SOL    HW127410   0.980   4.796  13.082  0.2673  2.5046 -0.3775
36600SOL    HW227411   1.091   4.702  13.040  0.4646  1.1461  2.9131
36601SOL     OW27412   5.810   2.940   6.637 -0.0997 -0.6788 -0.2774
36601SOL    HW127413   5.810   2.846   6.618 -0.3886 -0.5939 -0.7340
36601SOL    HW227414   5.901   2.967   6.628  0.1191 -1.0659  0.6667
36602SOL     OW27415  10.592  11.471   3.762  0.5491  0.0218 -0.0340
36602SOL    HW127416  10.536  11.406   3.804  0.5500 -0.4105 -0.6932
36602SOL    HW227417  10.551  11.555   3.782  0.1092 -0.2384  0.1606
36603SOL     OW27418   1.254   3.486   5.173 -0.3398  0.6475 -0.2255
36603SOL    HW127419   1.293   3.572   5.187  0.5862  0.2907 -0.5276
36603SOL    HW227420   1.170   3.489   5.220 -1.7861  2.7304 -2.6756
36604SOL     OW27421  12.471   5.206  12.263 -0.1145 -0.3446 -0.8307
36604SOL    HW127422  12.512   5.288  12.289 -1.0607 -0.1256  0.0188
36604SOL    HW227423  12.532   5.168  12.199  2.6317 -1.1796  2.0216
36605SOL     OW27424  13.581   1.606  11.829  0.2900 -0.4888 -0.0023
36605SOL    HW127425  13.623   1.678  11.781  0.3619 -0.5988 -0.1060
36605SOL    HW227426  13.512   1.648  11.880  0.0216 -0.4029 -0.4224
36606SOL     OW27427   9.109   7.255   2.876 -0.4403 -0.4112 -0.0476
36606SOL    HW127428   9.062   7.172   2.865 -0.2523 -0.7464  1.3983
36606SOL    HW227429   9.110   7.269   2.971  1.4393  0.1360 -0.1136
36607SOL     OW27430   3.388   7.010   0.201  0.3257 -0.2593  0.2277
36607SOL    HW127431   3.395   6.943   0.269 -0.8398  0.0520  0.6681
36607SOL    HW227432   3.334   7.079   0.239  0.4480  0.3610 -0.6755
36608SOL     OW27433   1.921   6.884   0.241 -0.2727  0.1468  0.0229
36608SOL    HW127434   1.952   6.824   0.309 -1.5687 -1.4273 -0.7117
36608SOL    HW227435   1.854   6.936   0.284 -1.2975 -1.0444 -0.0665
36609SOL     OW27436   5.175   3.764   9.016  0.3762 -0.0593  0.0533
36609SOL    HW127437   5.202   3.855   9.002 -0.9285  0.2748 -0.5283
36609SOL    HW227438   5.079   3.768   9.017  0.2925 -1.4811 -0.3782
36610SOL     OW27439   3.937   9.410   5.013 -0.1380  0.3717 -0.3327
36610SOL    HW127440   3.981   9.367   4.940 -0.5569  0.6049 -0.7268
36610SOL    HW227441   4.005   9.462   5.055 -0.1600  1.2340 -1.3155
36611SOL     OW27442  12.346   6.576  10.705 -0.2528  0.2381 -0.3865
36611SOL    HW127443  12.404   6.505  10.677 -0.2507  0.0778  0.0149
36611SOL    HW227444  12.392   6.656  10.680  1.2376  0.1880  1.9471
36612SOL     OW27445   1.337   1.644   0.173 -0.2069  0.3870  0.5636
36612SOL    HW127446   1.269   1.585   0.141 -0.8784  2.5177 -2.3576
36612SOL    HW227447   1.303   1.732   0.156  2.0580  1.6183  1.7948
36613SOL     OW27448   8.942  12.218   3.754  0.2530  0.2927 -0.5636
36613SOL    HW127449   8.978  12.260   3.832  0.2961  0.4888 -0.6888
36613SOL    HW227450   8.974  12.128   3.758 -2.2571 -0.6127  1.2866
36614SOL     OW27451   8.114   0.036   3.499 -0.0919  0.2411 -0.2906
36614SOL    HW127452   8.169  -0.015   3.439  0.6183  0.2077  0.3693
36614SOL    HW227453   8.143   0.126   3.487  0.3033  0.1906  0.2546
36615SOL     OW27454   5.831  13.842   7.908  0.6384  0.2853 -0.2655
36615SOL    HW127455   5.904  13.881   7.956  1.1690 -0.1163 -0.7455
36615SOL    HW227456   5.870  13.805   7.829 -0.1233  0.3173 -0.6712
36616SOL     OW27457   0.312   5.310   4.876 -0.0830 -0.0875  0.2710
36616SOL    HW127458   0.399   5.344   4.851  0.0027 -0.8162 -0.4899
36616SOL    HW227459   0.324   5.215   4.877 -0.7287 -0.1652  0.7573
36617SOL     OW27460   6.163   6.903   0.771  0.9021 -0.0191  0.3687
36617SOL    HW127461   6.176   6.847   0.694 -0.6219  1.5405 -1.0860
36617SOL    HW227462   6.151   6.841   0.843  1.2442 -1.5398 -0.8183
36618SOL     OW27463   5.127  10.092  12.025 -0.4558  0.7644 -0.6385
36618SOL    HW127464   5.037  10.058  12.031 -1.2252  2.7683  0.3235
36618SOL    HW227465   5.138  10.114  11.933 -1.0272  0.6756 -0.7339
36619SOL     OW27466  11.043  10.724   0.528  0.5780  0.0280 -0.6450
36619SOL    HW127467  10.982  10.660   0.491 -1.1707  1.1568  0.1794
36619SOL    HW227468  11.097  10.673   0.589 -0.3822 -0.7767 -0.4419
36620SOL     OW27469   4.923  12.816   4.441  0.0627  0.2846  0.2460
36620SOL    HW127470   4.845  12.776   4.480  0.2735 -0.5203 -0.1363
36620SOL    HW227471   4.977  12.839   4.517 -0.5050  0.7757  0.5107
36621SOL     OW27472   2.620   2.407   7.665  0.1042  0.8046 -0.1363
36621SOL    HW127473   2.598   2.501   7.664 -0.4185  0.7070  0.8239
36621SOL    HW227474   2.714   2.405   7.679  0.1189  1.1865 -0.1517
36622SOL     OW27475  12.655   9.570  11.956  0.5157 -0.0120 -0.4115
36622SOL    HW127476  12.597   9.544  11.884 -0.1707 -0.9909  0.4586
36622SOL    HW227477  12.606   9.638  12.002  0.4558 -0.1861 -0.2161
36623SOL     OW27478   2.320   3.233   5.531  0.3110 -0.0630 -0.0526
36623SOL    HW127479   2.308   3.238   5.626  0.6422 -2.0629  0.1320
36623SOL    HW227480   2.264   3.303   5.497  0.2831  0.7847  1.6090
36624SOL     OW27481   0.690   8.938   6.165  0.4450 -0.3971  0.2342
36624SOL    HW127482   0.687   8.852   6.206 -0.1334 -0.3212  0.3614
36624SOL    HW227483   0.617   8.986   6.205 -0.7673 -0.6418 -1.5602
36625SOL     OW27484   2.743  11.481   2.475  0.1729 -0.1297 -0.1065
36625SOL    HW127485   2.738  11.563   2.524 -0.8734  0.1086 -0.5819
36625SOL    HW227486   2.701  11.416   2.532 -0.4084  0.0002 -0.3795
36626SOL     OW27487  10.228   2.706   9.204  0.4701 -0.4769  0.0325
36626SOL    HW127488  10.192   2.673   9.122 -0.8191  1.1705 -0.1379
36626SOL    HW227489  10.207   2.640   9.269 -0.0722 -0.9930 -0.6614
36627SOL     OW27490  13.484   7.039   3.308 -0.0450  0.6776 -0.3878
36627SOL    HW127491  13.461   6.947   3.321 -0.1499  0.1108 -3.7014
36627SOL    HW227492  13.578   7.037   3.290 -0.0147  1.2365 -0.3009
36628SOL     OW27493   5.126   4.159  12.929  0.1236  0.1031 -0.2840
36628SOL    HW127494   5.156   4.188  13.016  0.2152 -1.1678  0.1272
36628SOL    HW227495   5.190   4.196  12.869  0.2449  0.7382  0.2224
36629SOL     OW27496   4.065   5.813   5.339 -0.3625 -0.7993 -0.0179
36629SOL    HW127497   4.012   5.739   5.370  0.2644 -1.8320 -1.2962
36629SOL    HW227498   4.119   5.776   5.269 -0.9605  1.1505 -1.6100
36630SOL     OW27499   0.303   7.695   4.758  0.2022  0.4540 -0.1934
36630SOL    HW127500   0.367   7.760   4.727  1.3803 -1.5128 -2.1412
36630SOL    HW227501   0.330   7.676   4.848  1.0073  1.2568 -0.2491
36631SOL     OW27502   0.871   8.324   4.359  0.0753  0.2671  0.5345
36631SOL    HW127503   0.860   8.244   4.308 -1.2505  0.6824  0.1248
36631SOL    HW227504   0.791   8.373   4.344  1.1194  1.9664  0.2871
36632SOL     OW27505   3.639   5.140  10.515  0.6061  0.5231 -0.0165
36632SOL    HW127506   3.685   5.225  10.517 -1.7452  1.8506  1.3020
36632SOL    HW227507   3.704   5.078  10.547  2.6546  1.6246 -1.7104
36633SOL     OW27508   7.210   4.121   6.981 -0.1387  0.9090 -0.1089
36633SOL    HW127509   7.266   4.158   6.912 -0.2752  2.3460  0.5159
36633SOL    HW227510   7.179   4.197   7.030 -1.2589  0.0106  0.6227
36634SOL     OW27511   6.052   2.681   7.627  0.1695  0.4372 -0.3313
36634SOL    HW127512   5.957   2.684   7.614 -0.5585 -0.0423  3.5150
36634SOL    HW227513   6.076   2.590   7.607  0.0114  0.7220 -1.9661
36635SOL     OW27514   2.473   2.920   2.098  0.1628 -0.3297  0.0895
36635SOL    HW127515   2.539   2.855   2.122  1.2905  0.9616  0.6330
36635SOL    HW227516   2.440   2.891   2.013  1.1399 -1.2318  0.0017
36636SOL     OW27517   1.758   4.511   1.135  0.8526 -0.1065  0.2496
36636SOL    HW127518   1.778   4.417   1.135 -0.2234 -0.3484 -0.2174
36636SOL    HW227519   1.835   4.552   1.176  2.0829 -1.0262 -1.0361
36637SOL     OW27520   5.065  11.131  10.817  0.4278  0.0038  0.2136
36637SOL    HW127521   5.057  11.226  10.825 -1.3923 -0.1989  1.1178
36637SOL    HW227522   5.118  11.105  10.893 -1.4875  0.0299  1.6161
36638SOL     OW27523  12.983   0.227   6.062 -0.0580 -0.0378  0.3180
36638SOL    HW127524  13.063   0.225   6.010  0.6372  0.7635  1.3238
36638SOL    HW227525  12.992   0.153   6.123 -0.8864 -0.9973 -0.6743
36639SOL     OW27526   0.103   2.137   9.115  0.6016 -0.0443  0.1052
36639SOL    HW127527   0.190   2.176   9.112  0.9348 -0.8209 -2.6648
36639SOL    HW227528   0.044   2.210   9.137  1.7412  0.8877  0.1412
36640SOL     OW27529   2.820   7.601   6.510  0.2840  0.1213  0.0511
36640SOL    HW127530   2.833   7.521   6.561 -1.9184  0.3346  1.0760
36640SOL    HW227531   2.883   7.663   6.547 -0.0822 -0.2506  1.3374
36641SOL     OW27532  11.076   5.552   3.267 -0.0956  0.1013 -0.1324
36641SOL    HW127533  11.165   5.559   3.232 -0.6107  2.2269 -1.1918
36641SOL    HW227534  11.026   5.618   3.218 -1.5343  1.2064  2.6032
36642SOL     OW27535  11.223   3.823   7.945 -0.1511  0.6424 -0.1477
36642SOL    HW127536  11.155   3.888   7.925  0.5009  1.2380 -0.4963
36642SOL    HW227537  11.280   3.868   8.007 -0.9422 -0.4222  1.4094
36643SOL     OW27538   7.265   0.392   1.727 -0.0522  0.2510 -0.4598
36643SOL    HW127539   7.284   0.361   1.815  2.1500 -1.1612 -1.3390
36643SOL    HW227540   7.238   0.313   1.680 -2.6786  1.2224 -0.7655
36644SOL     OW27541   2.473   4.547   6.248 -0.2583  0.0713 -0.3886
36644SOL    HW127542   2.556   4.580   6.212 -0.0596 -0.0254 -0.0263
36644SOL    HW227543   2.413   4.550   6.174  0.3688 -0.9606 -0.9589
36645SOL     OW27544   2.428   9.902   2.976  0.4483 -0.1853  0.0001
36645SOL    HW127545   2.375   9.823   2.989  0.5634 -0.2526  0.0689
36645SOL    HW227546   2.492   9.877   2.910  1.2794 -0.5506  0.9186
36646SOL     OW27547  11.642   2.885  10.567 -0.3081 -0.1239  0.0257
36646SOL    HW127548  11.706   2.869  10.498 -0.6724  0.0089 -0.3528
36646SOL    HW227549  11.664   2.971  10.602 -1.6990  1.0553 -1.7448
36647SOL     OW27550   6.294  11.484   3.790 -0.3587 -0.3504 -0.0517
36647SOL    HW127551   6.329  11.573   3.783  0.4554 -0.6578  0.0284
36647SOL    HW227552   6.343  11.433   3.725  1.1149 -1.3196  1.7096
36648SOL     OW27553   5.900   6.272  12.647  0.0264 -0.0476  0.2793
36648SOL    HW127554   5.908   6.275  12.552 -1.6751 -2.6919 -0.0609
36648SOL    HW227555   5.912   6.180  12.670 -0.2436  0.4136  2.5665
36649SOL     OW27556   7.522   7.206   3.367 -0.2103  0.0141  0.1052
36649SOL    HW127557   7.555   7.152   3.295  2.2924 -1.0233  1.8752
36649SOL    HW227558   7.452   7.154   3.407  0.2363 -0.6325  0.0528
36650SOL     OW27559  11.369  10.769   1.454  0.3097  0.4500  0.3864
36650SOL    HW127560  11.394  10.678   1.472  0.8738  0.8728  1.9224
36650SOL    HW227561  11.380  10.814   1.538 -1.3698  1.6419  0.0270
36651SOL     OW27562  10.464  10.237   9.213 -0.2530 -0.2619  0.2823
36651SOL    HW127563  10.530  10.181   9.172  0.8087  0.1288  1.3657
36651SOL    HW227564  10.514  10.315   9.240 -1.2721  0.2623  0.6827
36652SOL     OW27565   8.002   5.687   3.954  0.2825 -0.0586 -0.3015
36652SOL    HW127566   8.075   5.745   3.975  0.0836  0.1413 -0.1588
36652SOL    HW227567   8.012   5.669   3.861  0.6206 -0.1807 -0.2427
36653SOL     OW27568   3.454   0.610   6.883 -0.3989 -0.1110 -0.1017
36653SOL    HW127569   3.525   0.557   6.846 -0.2717  0.1362 -0.2151
36653SOL    HW227570   3.382   0.548   6.895 -0.2351 -0.3208 -0.1858
36654SOL     OW27571   7.081  13.301   8.922 -0.3094  0.6021 -0.2451
36654SOL    HW127572   7.165  13.326   8.884 -0.8751  0.7574 -1.4559
36654SOL    HW227573   7.038  13.384   8.942 -0.0181  0.5229  0.7830
36655SOL     OW27574  11.405  14.040   9.564 -0.2377 -0.6079  0.1723
36655SOL    HW127575  11.463  13.966   9.582  1.1506  0.1959 -0.7803
36655SOL    HW227576  11.448  14.114   9.605 -2.3368 -0.4842  2.3797
36656SOL     OW27577   3.207   3.039   5.136 -0.5793  0.6496  0.3001
36656SOL    HW127578   3.297   3.057   5.110  0.2450 -2.1721  0.8301
36656SOL    HW227579   3.154   3.073   5.064  1.0875  0.1452 -1.2356
36657SOL     OW27580   6.030   5.972   0.932  0.6194  0.4250  0.7286
36657SOL    HW127581   6.000   6.061   0.912 -0.2138  0.4156  1.8469
36657SOL    HW227582   6.029   5.927   0.847 -2.1007  0.5723  0.5855
36658SOL     OW27583   3.337  10.352   2.641 -0.4032  0.4940 -0.5760
36658SOL    HW127584   3.266  10.307   2.687  0.0169  1.3577  0.9611
36658SOL    HW227585   3.373  10.413   2.705  1.0988  0.7753 -1.6367
36659SOL     OW27586   8.835   0.389   1.400 -0.1850 -0.0852 -0.6619
36659SOL    HW127587   8.775   0.370   1.472  0.4670  0.9367  0.1763
36659SOL    HW227588   8.780   0.427   1.332 -0.5624  0.3944 -0.0897
36660SOL     OW27589   8.129  11.413   7.977 -0.3305 -0.0619  0.4024
36660SOL    HW127590   8.096  11.494   8.015 -0.4789  0.7190 -1.3368
36660SOL    HW227591   8.176  11.371   8.049 -0.5245  1.3970  1.4267
36661SOL     OW27592   7.554   0.922   9.005  0.4313 -0.4272  0.1862
36661SOL    HW127593   7.580   0.882   9.088 -1.2645 -2.0865  0.0025
36661SOL    HW227594   7.562   0.851   8.941  2.1815  0.9473 -1.2192
36662SOL     OW27595  13.251  10.042   5.430 -0.4199  0.0210  0.0072
36662SOL    HW127596  13.178  10.021   5.489 -0.8628 -0.1425 -0.5993
36662SOL    HW227597  13.328  10.002   5.473 -0.7485 -0.1570  0.4401
36663SOL     OW27598   4.438   5.811   1.279 -0.2427 -0.2718  0.1342
36663SOL    HW127599   4.355   5.836   1.238 -0.6287 -1.0158  0.4392
36663SOL    HW227600   4.433   5.716   1.284 -0.1004 -0.2112  1.7073
36664SOL     OW27601   0.923  10.904  10.877  0.1978  0.7829  0.5128
36664SOL    HW127602   0.848  10.860  10.838  2.0941 -1.7604 -0.5975
36664SOL    HW227603   0.909  10.898  10.971 -2.2083  2.8340  0.3889
36665SOL     OW27604   6.414   7.946   9.026 -0.1866 -0.2740  0.4937
36665SOL    HW127605   6.368   7.871   8.989  1.4728 -2.0043  1.7150
36665SOL    HW227606   6.366   7.967   9.106 -0.6925  0.0238  0.1164
36666SOL     OW27607   5.082  11.395  13.354  0.2151 -0.2020  0.1858
36666SOL    HW127608   5.041  11.457  13.294  1.8579  0.5738 -0.1802
36666SOL    HW227609   5.161  11.366  13.309  0.4150 -1.1797  1.1258
36667SOL     OW27610   4.389   6.327   1.523  0.0922 -0.4605 -0.5260
36667SOL    HW127611   4.330   6.342   1.597  0.2981  0.2480 -0.5061
36667SOL    HW227612   4.381   6.233   1.506 -0.2954 -0.5510  0.1073
36668SOL     OW27613  10.789   5.872   3.488 -0.0923 -0.1656 -0.2176
36668SOL    HW127614  10.848   5.799   3.509 -0.0936 -0.0160  0.3115
36668SOL    HW227615  10.708   5.829   3.459  0.5407 -0.3853 -1.8044
36669SOL     OW27616  13.998   6.348   6.208 -0.4486  0.0658  0.2494
36669SOL    HW127617  14.082   6.381   6.239 -1.0457  0.3883  1.5752
36669SOL    HW227618  13.948   6.427   6.186 -0.0443 -0.1431 -1.6342
36670SOL     OW27619   7.892   1.554  12.276 -0.3265  0.3483  0.4492
36670SOL    HW127620   7.957   1.610  12.234 -0.1033 -0.6338 -0.5712
36670SOL    HW227621   7.905   1.468  12.236 -0.3797 -0.5499  2.2653
36671SOL     OW27622   3.424   8.109   9.126 -0.0544  0.6132 -0.7912
36671SOL    HW127623   3.374   8.131   9.047 -0.1243 -1.3650 -1.3287
36671SOL    HW227624   3.391   8.024   9.153  1.3206  0.3864  0.2775
36672SOL     OW27625   8.178   7.122  11.030 -0.4179 -0.4532  0.6301
36672SOL    HW127626   8.196   7.083  10.945 -0.0353  0.6377  0.1915
36672SOL    HW227627   8.085   7.107  11.044 -0.7710  0.4607 -0.5753
36673SOL     OW27628   3.115   4.049   4.382 -0.5202 -0.4315  0.3643
36673SOL    HW127629   3.078   3.980   4.437 -0.3173 -0.7531  0.1043
36673SOL    HW227630   3.057   4.052   4.305 -0.8205  0.0354  0.6050
36674SOL     OW27631   4.874  13.889   7.472  0.4805 -0.0106 -0.5194
36674SOL    HW127632   4.936  13.959   7.490  0.4655 -0.5517  1.9017
36674SOL    HW227633   4.928  13.818   7.435  1.4346 -0.5732  1.7906
36675SOL     OW27634   4.090   4.964   9.741 -0.4806  0.0178  0.2355
36675SOL    HW127635   4.133   4.970   9.826 -1.5073 -0.7354  0.8301
36675SOL    HW227636   3.997   4.975   9.760 -0.8598 -1.4478 -0.5933
36676SOL     OW27637   7.955  13.214   8.694 -0.1353 -0.1562  0.1150
36676SOL    HW127638   7.909  13.158   8.632 -1.0884 -1.6970  2.0957
36676SOL    HW227639   7.939  13.174   8.780  0.0254  2.5657  1.5536
36677SOL     OW27640   1.014   7.807  12.116 -0.2230 -0.2823 -0.1698
36677SOL    HW127641   0.926   7.815  12.153 -0.4013  1.6596 -0.8809
36677SOL    HW227642   1.072   7.797  12.191 -0.7842  1.4341  0.5401
36678SOL     OW27643   5.835  11.559  11.235 -0.2907  0.7198  0.0914
36678SOL    HW127644   5.815  11.578  11.327 -3.0415  3.0068 -0.8339
36678SOL    HW227645   5.913  11.504  11.238  1.1131  2.6081  3.6982
36679SOL     OW27646   5.096   9.543   5.252 -0.2855  0.4070  0.6251
36679SOL    HW127647   5.145   9.480   5.304  2.4111  1.5205 -0.3731
36679SOL    HW227648   5.135   9.538   5.165 -1.0655  2.3196  0.1134
36680SOL     OW27649   6.696   3.831  12.063  0.0306 -0.4280  0.0455
36680SOL    HW127650   6.705   3.924  12.084 -1.1352  0.1288 -1.6556
36680SOL    HW227651   6.775   3.790  12.098 -0.4435  0.7998  2.7740
36681SOL     OW27652   0.495   8.206   4.822  0.2241 -0.3387 -0.7296
36681SOL    HW127653   0.453   8.219   4.737  0.7357  0.6850 -0.8417
36681SOL    HW227654   0.571   8.152   4.803  0.2107 -0.2992 -0.8934
36682SOL     OW27655   3.278   8.998  11.526  0.7632  0.4808  0.3766
36682SOL    HW127656   3.225   8.923  11.552 -0.3811  0.6651 -1.2825
36682SOL    HW227657   3.287   9.050  11.606  1.1042 -1.1160  1.4083
36683SOL     OW27658   1.429   9.924   4.598  0.2950  0.4997  0.6184
36683SOL    HW127659   1.399   9.985   4.666 -0.3591 -0.0279  0.8126
36683SOL    HW227660   1.518   9.900   4.625  0.0904  0.3982  1.2229
36684SOL     OW27661  12.483   6.373  10.609 -0.0788 -0.1117 -0.7023
36684SOL    HW127662  12.471   6.317  10.685 -0.6490 -1.2751 -1.6157
36684SOL    HW227663  12.520   6.315  10.542  1.5302  1.1482 -0.9756
36685SOL     OW27664   6.719  11.203   5.851 -0.4151 -0.4927 -0.5643
36685SOL    HW127665   6.776  11.279   5.857  1.2752 -1.8221  1.6424
36685SOL    HW227666   6.645  11.223   5.908  0.6635 -0.9521  1.0564
36686SOL     OW27667   7.485   9.793   6.332 -0.3124 -0.0075 -0.8927
36686SOL    HW127668   7.454   9.843   6.256 -1.3509 -2.5227 -2.2354
36686SOL    HW227669   7.409   9.791   6.391  0.0483  0.7831 -0.3871
36687SOL     OW27670   6.059  12.601   2.016 -0.4153 -0.5047 -0.7122
36687SOL    HW127671   6.040  12.568   2.104 -1.3571 -1.9839 -1.4299
36687SOL    HW227672   6.150  12.577   2.001  0.4653  1.6176  0.5926
36688SOL     OW27673   6.450  13.068   1.197  0.5646 -0.1548 -0.6445
36688SOL    HW127674   6.527  13.011   1.194 -0.1869 -1.3384  1.0894
36688SOL    HW227675   6.443  13.095   1.289 -2.4221 -2.0715 -0.1606
36689SOL     OW27676   6.794   2.992   3.287  0.0733 -0.0381 -0.5365
36689SOL    HW127677   6.791   2.957   3.376  0.3719 -1.2720 -0.9832
36689SOL    HW227678   6.847   3.072   3.295 -0.5751  0.3054  0.5133
36690SOL     OW27679   0.522   7.961   4.429 -0.4228  0.3780 -0.1697
36690SOL    HW127680   0.548   8.037   4.377 -1.2867  0.9147  0.1732
36690SOL    HW227681   0.533   7.989   4.520  0.5463 -0.3712 -0.0303
36691SOL     OW27682  10.063  10.813  12.888 -0.4210 -0.3621  0.7534
36691SOL    HW127683  10.067  10.903  12.921  0.5539 -0.2908  0.4980
36691SOL    HW227684  10.140  10.771  12.926 -0.3885 -0.8395  0.1716
36692SOL     OW27685  13.176   8.382  11.975  0.1795 -0.4899  0.4247
36692SOL    HW127686  13.177   8.329  11.896  0.6741 -0.1275  0.1796
36692SOL    HW227687  13.198   8.321  12.045 -0.4606 -0.8528  0.3150
36693SOL     OW27688   8.861  13.348   9.027  0.0419 -0.3164  0.7267
36693SOL    HW127689   8.925  13.314   8.964 -1.1577 -0.8696 -0.2304
36693SOL    HW227690   8.906  13.420   9.071  1.1754 -0.4224 -0.2189
36694SOL     OW27691  12.830   6.669  11.748  0.0510  0.0958 -0.2955
36694SOL    HW127692  12.887   6.729  11.794 -0.5082 -1.0061  1.9951
36694SOL    HW227693  12.866   6.582  11.766 -0.9815 -0.4640 -0.8052
36695SOL     OW27694  11.180   0.740   0.524 -0.1565  0.0648  0.7456
36695SOL    HW127695  11.203   0.695   0.606 -2.6711 -0.6178  1.1540
36695SOL    HW227696  11.176   0.832   0.548  0.6977  0.0587  0.9706
36696SOL     OW27697  11.759   7.954  11.164 -0.0806  0.1692 -0.3768
36696SOL    HW127698  11.814   8.030  11.186 -1.3837  1.0928 -0.2051
36696SOL    HW227699  11.767   7.946  11.069  1.1538 -0.3641 -0.2490
36697SOL     OW27700  10.647   4.799  10.997  0.0525 -0.7278 -0.2529
36697SOL    HW127701  10.692   4.718  11.020  0.6646  0.1288  1.7649
36697SOL    HW227702  10.717   4.860  10.973 -0.4361 -0.9202 -2.3084
36698SOL     OW27703   3.003  11.990   3.343 -0.3528  0.1922  0.1394
36698SOL    HW127704   2.983  11.963   3.253 -0.5614  0.6222  0.0528
36698SOL    HW227705   3.090  12.029   3.338 -0.6489  0.8435 -0.0094
36699SOL     OW27706  13.673   4.767   3.005  0.0891  0.1005 -0.8141
36699SOL    HW127707  13.623   4.794   2.928 -1.1821  0.9774  0.2736
36699SOL    HW227708  13.632   4.814   3.077  0.7353 -1.3230  0.5277
36700SOL     OW27709  12.937   2.001  13.566 -0.8529 -0.5236 -0.2508
36700SOL    HW127710  12.876   1.981  13.494  0.4179 -1.2976 -1.1410
36700SOL    HW227711  12.937   2.097  13.570 -2.8950 -0.5096  0.4653
36701SOL     OW27712   3.539   7.498   7.736  0.2831  0.1708 -0.1039
36701SOL    HW127713   3.475   7.428   7.745 -1.0032  1.3090 -0.0604
36701SOL    HW227714   3.556   7.527   7.825  1.3316 -0.5068 -0.0662
36702SOL     OW27715   3.798   6.678  11.284  0.1179 -0.3401  0.7686
36702SOL    HW127716   3.710   6.704  11.258  0.0606 -0.8274  0.4637
36702SOL    HW227717   3.784   6.614  11.354  0.1223 -2.3873 -0.9992
36703SOL     OW27718   8.326   2.458  13.641  0.5262  0.5807  0.0176
36703SOL    HW127719   8.266   2.493  13.576  0.2451  0.0989  0.0154
36703SOL    HW227720   8.381   2.396  13.593 -0.5086 -0.7240  0.4689
36704SOL     OW27721  12.493  11.751   9.048 -0.5941 -0.4458 -0.0082
36704SOL    HW127722  12.449  11.763   8.963 -0.4278 -1.1860 -0.2073
36704SOL    HW227723  12.569  11.809   9.044 -0.2072 -0.9801 -0.6518
36705SOL     OW27724   5.835   1.140  11.448  0.0330  0.0787 -0.3452
36705SOL    HW127725   5.876   1.151  11.362  0.7211 -0.9735 -0.1638
36705SOL    HW227726   5.870   1.212  11.500 -2.9971  2.8792 -1.8310
36706SOL     OW27727   2.347   3.900   4.495  0.5439  0.5158 -0.2655
36706SOL    HW127728   2.328   3.892   4.402  1.3055 -0.0881 -0.3732
36706SOL    HW227729   2.327   3.813   4.532  1.1681  0.4575 -0.0432
36707SOL     OW27730   3.166  11.203   7.764  0.2532  0.1847 -0.2307
36707SOL    HW127731   3.134  11.148   7.692  1.1137  0.8362 -1.1358
36707SOL    HW227732   3.094  11.264   7.781 -0.4425 -0.7680  0.3233
36708SOL     OW27733   1.273   3.086  13.341  0.2939 -0.3135 -0.2236
36708SOL    HW127734   1.247   3.001  13.305  1.1310 -0.0410 -1.5402
36708SOL    HW227735   1.343   3.066  13.402 -1.0001 -0.7610  1.1952
36709SOL     OW27736   4.777   1.496  10.433  0.0315  0.8000  0.2210
36709SOL    HW127737   4.691   1.514  10.397  0.1558 -0.4888 -0.7886
36709SOL    HW227738   4.779   1.401  10.445  1.6336  0.6747 -0.6915
36710SOL     OW27739   8.612  10.337  13.392  0.0830 -0.0059  0.1750
36710SOL    HW127740   8.635  10.425  13.363 -1.1469  0.3418  0.1918
36710SOL    HW227741   8.693  10.301  13.428  1.0417  0.4425 -1.4545
36711SOL     OW27742   1.625   6.536   0.249  0.0708 -0.1067  0.5315
36711SOL    HW127743   1.604   6.443   0.237  1.5883 -0.7187  2.2379
36711SOL    HW227744   1.713   6.546   0.214 -0.0545  0.6998  0.4204
36712SOL     OW27745  12.206   2.623   4.939 -0.6118  0.5588  0.1383
36712SOL    HW127746  12.242   2.542   4.975 -2.9769 -0.3790  0.5882
36712SOL    HW227747  12.208   2.685   5.012  1.2382  0.9815 -0.2158
36713SOL     OW27748   2.512   4.059  13.393 -0.7258  0.1323 -0.3435
36713SOL    HW127749   2.499   4.152  13.411  0.3030  0.3745 -0.7740
36713SOL    HW227750   2.598   4.039  13.431  0.1639 -0.0457 -2.3252
36714SOL     OW27751   4.476   6.733   1.549 -0.3473 -0.3404 -0.2110
36714SOL    HW127752   4.530   6.655   1.541 -0.4797 -0.5953  1.2013
36714SOL    HW227753   4.413   6.712   1.618 -0.7706  0.7893 -0.2345
36715SOL     OW27754   7.427  11.991   0.728  0.4421 -0.0363 -0.0358
36715SOL    HW127755   7.503  11.940   0.755  0.0621 -0.7021 -0.2095
36715SOL    HW227756   7.355  11.958   0.782  0.1638  0.2383 -0.2304
36716SOL     OW27757  13.291   7.668   3.272 -0.3160 -0.0686  0.2157
36716SOL    HW127758  13.297   7.762   3.289 -2.1845  0.1053  0.1282
36716SOL    HW227759  13.378   7.643   3.243  0.5131  1.4167  1.2997
36717SOL     OW27760   0.747  13.045   5.228  0.7385  0.1976  0.4623
36717SOL    HW127761   0.711  13.116   5.283  0.4090 -0.1545  0.7097
36717SOL    HW227762   0.841  13.063   5.225  0.7639  0.2288  1.1458
36718SOL     OW27763  13.628   1.507   8.150 -0.2739 -0.2949 -0.1748
36718SOL    HW127764  13.648   1.600   8.156  0.7086 -0.5490  1.1578
36718SOL    HW227765  13.707   1.468   8.113  0.3424 -0.8749  1.6552
36719SOL     OW27766  12.583   1.843   5.863 -0.2755  0.3944  0.5955
36719SOL    HW127767  12.676   1.863   5.864 -0.1342 -0.1865 -0.0910
36719SOL    HW227768  12.539   1.928   5.866  0.2866  0.9059 -2.5893
36720SOL     OW27769  11.599   1.929   5.240  0.4623 -0.2867 -0.1976
36720SOL    HW127770  11.578   1.854   5.297 -0.8670  1.6260  2.0359
36720SOL    HW227771  11.514   1.965   5.216  1.0760  0.2716 -1.6163
36721SOL     OW27772   5.829  10.686   4.834 -0.4148  0.1480  0.1294
36721SOL    HW127773   5.838  10.745   4.908  0.4406  0.4799 -0.2212
36721SOL    HW227774   5.892  10.719   4.769 -1.7508  0.3745 -1.0867
36722SOL     OW27775  10.363   4.862   9.497  0.8302 -0.3258  0.2243
36722SOL    HW127776  10.367   4.856   9.402  0.1769 -0.4808  0.1982
36722SOL    HW227777  10.283   4.815   9.520 -0.8170  2.4778  0.6060
36723SOL     OW27778  10.341   2.517  11.435 -0.1636  0.2103  0.1155
36723SOL    HW127779  10.332   2.456  11.508  1.1233 -1.0277 -0.7145
36723SOL    HW227780  10.341   2.603  11.476 -0.9437 -0.3724  1.4189
36724SOL     OW27781   8.748   1.839   9.582  0.3099 -0.2243  0.4317
36724SOL    HW127782   8.796   1.757   9.594  0.0241 -0.9173 -2.4127
36724SOL    HW227783   8.816   1.905   9.572  0.5649 -0.3528  1.2181
36725SOL     OW27784   6.528   3.863   8.147 -0.4736 -0.0590 -0.4495
36725SOL    HW127785   6.583   3.935   8.116 -0.2058  0.4622  1.1483
36725SOL    HW227786   6.588   3.789   8.156 -0.2580  0.1997  0.2356
36726SOL     OW27787   3.049   6.926  10.944 -0.2713  0.1927  0.1382
36726SOL    HW127788   3.126   6.967  10.905 -0.4215  0.8338  0.5082
36726SOL    HW227789   2.975   6.980  10.916 -0.4425  0.3294  0.8281
36727SOL     OW27790   4.792   0.094   5.024 -0.7948 -0.1543  1.2432
36727SOL    HW127791   4.749   0.121   4.944 -0.9936  0.1151  1.4389
36727SOL    HW227792   4.832   0.010   5.003 -0.7356 -0.0241  0.8262
36728SOL     OW27793   4.910   4.889   5.833 -0.0165  0.3394 -0.6999
36728SOL    HW127794   4.923   4.897   5.738  0.1346  2.1800 -0.5563
36728SOL    HW227795   4.895   4.979   5.863  2.2826  0.1596  1.3574
36729SOL     OW27796   8.329   2.311  12.869  0.0092 -0.3094  0.5272
36729SOL    HW127797   8.245   2.348  12.842  0.8827  0.6868 -1.0632
36729SOL    HW227798   8.351   2.250  12.798  1.4084  0.7733 -0.0166
36730SOL     OW27799  10.807  11.646   3.092 -0.0076 -0.0712  0.6619
36730SOL    HW127800  10.897  11.661   3.064  0.6021 -1.7827  1.5524
36730SOL    HW227801  10.798  11.695   3.174  0.0687  0.2232  0.4918
36731SOL     OW27802   7.277   1.460   9.152  0.3904  0.1288  0.7097
36731SOL    HW127803   7.194   1.420   9.126  0.6269 -1.1650  1.8067
36731SOL    HW227804   7.269   1.473   9.247 -0.3242  4.3786  0.2535
36732SOL     OW27805  12.047  13.993   8.869  0.1075 -0.5211  0.5449
36732SOL    HW127806  11.991  13.997   8.947 -0.6647  0.8875 -0.0485
36732SOL    HW227807  12.013  13.920   8.819 -0.8304 -0.0723  0.4946
36733SOL     OW27808   0.478   8.883   8.488  0.0245 -0.0746  0.2091
36733SOL    HW127809   0.501   8.963   8.440 -1.8855  0.4264  0.0670
36733SOL    HW227810   0.412   8.840   8.434  0.1662 -1.1685  0.8633
36734SOL     OW27811   9.711  13.826   3.920 -0.1167 -0.0063 -0.4965
36734SOL    HW127812   9.657  13.844   3.843  0.1297  0.7837 -0.4919
36734SOL    HW227813   9.707  13.730   3.930 -0.0820 -0.1298 -1.5332
36735SOL     OW27814   2.666  10.018   6.015  0.1112 -0.1261 -0.1726
36735SOL    HW127815   2.628  10.097   5.978 -0.4277 -0.3922 -0.1886
36735SOL    HW227816   2.705  10.046   6.098 -0.0266  0.1629 -0.2067
36736SOL     OW27817  10.574   7.058   6.198  0.2575  0.4550 -0.1586
36736SOL    HW127818  10.490   7.070   6.241  0.1138  1.7646 -0.7552
36736SOL    HW227819  10.630   7.020   6.266 -1.0055 -1.2050  0.0041
36737SOL     OW27820  11.552  10.576   6.881 -0.3699  0.4454  0.0093
36737SOL    HW127821  11.641  10.569   6.847 -0.0715  1.0916  0.6187
36737SOL    HW227822  11.522  10.486   6.889 -0.2137  0.2544 -1.3120
36738SOL     OW27823  12.725   1.298   4.938  0.3738  0.3648 -0.0966
36738SOL    HW127824  12.667   1.374   4.931 -1.9515 -0.9516  2.8871
36738SOL    HW227825  12.666   1.223   4.951  2.6331 -1.7580 -1.2657
36739SOL     OW27826   3.773  10.517   5.088 -0.7018 -0.2351 -0.0736
36739SOL    HW127827   3.823  10.463   5.027 -2.7900  0.4085 -2.5048
36739SOL    HW227828   3.723  10.455   5.140 -1.1384 -0.7709 -1.0956
36740SOL     OW27829   6.029  12.544  13.524  0.1171 -0.6870  0.3871
36740SOL    HW127830   6.030  12.600  13.446  0.1586  1.3991  1.7941
36740SOL    HW227831   5.939  12.548  13.556  0.1297 -1.4143  0.5386
36741SOL     OW27832   8.042   0.501  13.651 -0.6687 -0.0155  0.1915
36741SOL    HW127833   8.074   0.543  13.571 -3.1040  0.3372 -0.6880
36741SOL    HW227834   8.051   0.568  13.719 -2.0362  1.0523 -0.6356
36742SOL     OW27835   6.492  11.051   8.517  0.0175 -0.0699 -0.4041
36742SOL    HW127836   6.506  11.094   8.601  0.0005 -0.3488 -0.2601
36742SOL    HW227837   6.437  10.975   8.536  1.8126 -1.4092 -0.2985
36743SOL     OW27838  13.118   8.999   3.164  0.6147  0.2537  0.1507
36743SOL    HW127839  13.049   9.065   3.174 -0.6802 -1.0224  0.1105
36743SOL    HW227840  13.189   9.044   3.119  0.7139  2.2166  2.0844
36744SOL     OW27841   4.836  12.017   1.082 -0.3933  0.5861 -0.2507
36744SOL    HW127842   4.918  11.977   1.053 -0.6113  0.8360 -1.2474
36744SOL    HW227843   4.777  11.944   1.098  0.3165  0.3470  1.4571
36745SOL     OW27844  12.275   9.063  12.577  0.2123  0.3176 -0.6682
36745SOL    HW127845  12.300   9.044  12.487  1.3278 -0.6840 -0.1689
36745SOL    HW227846  12.321   9.145  12.597 -1.1879  1.3343 -1.4421
36746SOL     OW27847  12.608   9.662   6.262  0.1180  0.4055  0.1506
36746SOL    HW127848  12.700   9.686   6.245  0.5718 -1.2062  0.1795
36746SOL    HW227849  12.580   9.619   6.181 -0.3566  0.1297  0.4613
36747SOL     OW27850   5.041  11.439   5.890 -0.3402  0.3077 -0.0607
36747SOL    HW127851   5.045  11.518   5.837  2.4027  0.5066  0.3080
36747SOL    HW227852   5.066  11.467   5.978 -2.7334 -0.4128  0.9381
36748SOL     OW27853   3.977   0.636   3.543  0.5476  0.0484  0.1742
36748SOL    HW127854   4.019   0.706   3.594 -0.8736  1.4437 -0.4804
36748SOL    HW227855   3.906   0.605   3.599 -1.0828  1.6557 -0.9031
36749SOL     OW27856   9.295   0.351   5.641 -0.2974  0.3732 -0.6783
36749SOL    HW127857   9.346   0.271   5.630  2.2206  1.8642 -0.6345
36749SOL    HW227858   9.282   0.358   5.735  0.3762  0.5229 -0.5912
36750SOL     OW27859   4.402  10.445   6.505  0.0632  0.2392  0.2482
36750SOL    HW127860   4.362  10.532   6.510 -0.8333 -0.2237  1.5231
36750SOL    HW227861   4.462  10.442   6.580  1.8548  0.5732 -1.1017
36751SOL     OW27862   7.258   9.737   3.381  0.0603 -0.0539 -0.4257
36751SOL    HW127863   7.256   9.709   3.473 -2.7992 -1.5287 -0.8310
36751SOL    HW227864   7.214   9.822   3.382 -0.6006 -0.3919 -0.5055
36752SOL     OW27865  10.766  13.204  10.189 -0.4407  0.1774 -0.1554
36752SOL    HW127866  10.703  13.164  10.248  0.4926 -0.1546  0.6429
36752SOL    HW227867  10.845  13.217  10.242  0.6676 -0.7652 -1.4707
36753SOL     OW27868   5.086   0.984   2.865  0.1519 -0.0511 -0.4807
36753SOL    HW127869   5.147   0.932   2.918  0.0617 -0.5865 -0.8943
36753SOL    HW227870   5.000   0.947   2.886 -0.1684  1.3477  0.8677
36754SOL     OW27871  13.473  11.964   6.665  0.3174 -0.2106 -0.1520
36754SOL    HW127872  13.482  12.010   6.581 -0.1813 -0.8074 -0.5451
36754SOL    HW227873  13.398  12.006   6.707 -0.4440 -0.9526 -0.7244
36755SOL     OW27874  13.709  11.055   4.542  0.0639  0.1988  0.5137
36755SOL    HW127875  13.706  11.057   4.638 -0.8528  0.7385  0.4808
36755SOL    HW227876  13.620  11.078   4.515 -0.2795 -2.0268 -0.4429
36756SOL     OW27877  14.093   1.209   8.141  0.0250  0.4996 -0.4967
36756SOL    HW127878  14.131   1.134   8.186 -0.1729 -0.1810 -1.4279
36756SOL    HW227879  14.052   1.261   8.211  0.0606 -0.3176  0.1482
36757SOL     OW27880   4.219  12.460   7.471 -0.1909 -0.2907  0.0501
36757SOL    HW127881   4.224  12.537   7.416  0.1667 -0.5743 -0.3215
36757SOL    HW227882   4.203  12.494   7.559 -0.2121  0.1913 -0.1386
36758SOL     OW27883   6.566  11.516   6.186  0.6129 -0.3580  0.0901
36758SOL    HW127884   6.651  11.536   6.148  0.0008  0.3522 -0.9495
36758SOL    HW227885   6.507  11.507   6.111 -0.5425  0.6576  0.8370
36759SOL     OW27886  12.376  10.620   3.300  0.1018 -0.0424  0.2847
36759SOL    HW127887  12.377  10.716   3.301 -0.6174 -0.0357  0.4761
36759SOL    HW227888  12.293  10.597   3.258  0.6649 -0.5843 -0.5589
36760SOL     OW27889   8.376   6.427  13.910  0.3502 -0.0517  0.4155
36760SOL    HW127890   8.368   6.504  13.854  2.8520  0.1219  0.1655
36760SOL    HW227891   8.337   6.454  13.994 -1.6503  0.3401 -0.5893
36761SOL     OW27892   3.867   0.679  11.567  0.0548  0.0236 -0.1453
36761SOL    HW127893   3.890   0.760  11.614 -1.4124  0.3418  0.0792
36761SOL    HW227894   3.788   0.702  11.518  0.2221 -0.9896 -0.9030
36762SOL     OW27895   3.877   2.399   1.938  0.3293  0.4010  0.0798
36762SOL    HW127896   3.907   2.326   1.882  1.5683 -0.1194  1.3714
36762SOL    HW227897   3.792   2.423   1.901  1.3617  0.5204 -2.4339
36763SOL     OW27898  10.948   4.202   1.016  0.9098 -0.1859  0.0564
36763SOL    HW127899  10.864   4.249   1.019 -0.2038 -1.8927 -1.7484
36763SOL    HW227900  10.936   4.129   1.077  1.4690  0.1076  0.5257
36764SOL     OW27901   2.814   2.403   7.343  0.2774 -0.2874  0.7397
36764SOL    HW127902   2.803   2.370   7.432  4.1276 -0.1103  1.4559
36764SOL    HW227903   2.773   2.490   7.345 -0.3669 -0.5904  2.1055
36765SOL     OW27904   9.614   9.973   2.670  0.4103  0.3141 -0.0724
36765SOL    HW127905   9.679  10.033   2.634 -0.7387  1.2329 -0.6662
36765SOL    HW227906   9.647   9.952   2.758  0.5258  2.3634  0.4261
36766SOL     OW27907   8.555  10.747  12.236 -0.3651  0.5384  0.2513
36766SOL    HW127908   8.519  10.782  12.318  1.0156  3.1030 -0.1248
36766SOL    HW227909   8.606  10.671  12.262 -1.0886  0.4778  1.5635
36767SOL     OW27910   7.636  11.917  13.060 -0.1229  0.2228  0.2214
36767SOL    HW127911   7.671  11.951  12.978 -0.2668  0.7582  0.3774
36767SOL    HW227912   7.696  11.846  13.085 -0.4907 -0.4406 -0.7154
36768SOL     OW27913   0.038   8.452   2.400  0.2070  0.5515  0.1569
36768SOL    HW127914   0.056   8.424   2.310 -2.0028 -0.6939  0.0371
36768SOL    HW227915  -0.031   8.517   2.392  0.8863  1.3781  0.8904
36769SOL     OW27916   1.346   0.414  11.259 -0.1652  0.0083 -0.3975
36769SOL    HW127917   1.441   0.429  11.261  0.1003 -1.0402 -2.5775
36769SOL    HW227918   1.327   0.373  11.343  1.1024  1.2515  0.5401
36770SOL     OW27919   7.783  10.083  13.836 -0.1407 -0.2752  0.2906
36770SOL    HW127920   7.768  10.025  13.761  0.2470 -0.4286  0.3295
36770SOL    HW227921   7.696  10.097  13.873 -0.3784  0.0479 -0.3727
36771SOL     OW27922   2.611   3.897   6.919  0.4706 -0.0422 -0.4859
36771SOL    HW127923   2.616   3.992   6.923 -1.9017  0.1329  0.2228
36771SOL    HW227924   2.540   3.874   6.979 -0.6813 -2.0249 -2.4393
36772SOL     OW27925   0.047  11.360  12.249  0.6776  0.3535 -1.0211
36772SOL    HW127926   0.002  11.444  12.259  0.1355  0.1106 -1.4007
36772SOL    HW227927   0.055  11.327  12.339 -1.7272 -0.5438 -1.0745
36773SOL     OW27928   1.872   2.915   2.504 -0.5115 -0.0573  0.5612
36773SOL    HW127929   1.917   2.991   2.467 -0.1968 -1.3854 -2.0081
36773SOL    HW227930   1.936   2.874   2.561 -0.2381  0.8303  0.9152
36774SOL     OW27931   8.469  10.595   2.087  0.2301  0.6685 -0.4889
36774SOL    HW127932   8.501  10.525   2.029  0.6075  1.0577 -0.7643
36774SOL    HW227933   8.520  10.672   2.061 -0.8369  1.2756 -0.8308
36775SOL     OW27934   0.209  10.906  14.038 -0.3690 -0.0299  0.2194
36775SOL    HW127935   0.168  10.929  14.121 -1.2845  1.9067 -0.7158
36775SOL    HW227936   0.199  10.984  13.983  0.7445 -1.0352 -1.5147
36776SOL     OW27937   2.188  12.500   7.219  0.2104 -0.3983 -0.2354
36776SOL    HW127938   2.135  12.559   7.272  0.4565  0.9361 -1.4154
36776SOL    HW227939   2.150  12.413   7.234 -2.4531  0.4984 -1.1523
36777SOL     OW27940   7.244   2.761   1.868  0.2250  0.3636 -0.3596
36777SOL    HW127941   7.182   2.750   1.796 -0.0648  0.2727 -0.0984
36777SOL    HW227942   7.274   2.672   1.887  0.4940  0.4163 -0.5363
36778SOL     OW27943   6.870  11.456   0.794 -0.1246  0.2812  0.0843
36778SOL    HW127944   6.789  11.489   0.832 -0.2535  0.6524 -0.4962
36778SOL    HW227945   6.892  11.518   0.725  0.5665  0.0911  0.1177
36779SOL     OW27946  11.209   6.440  13.991  0.1291  0.0692 -0.1115
36779SOL    HW127947  11.281   6.390  13.952 -0.9968 -0.2313 -1.8801
36779SOL    HW227948  11.190   6.509  13.928 -0.7939  0.4858  0.5935
36780SOL     OW27949   7.034   9.386   6.347  0.0355 -0.7324  0.8814
36780SOL    HW127950   6.941   9.373   6.365 -0.0789 -0.5779  0.4175
36780SOL    HW227951   7.053   9.326   6.274  0.5963 -1.6998  1.7853
36781SOL     OW27952  11.364   9.569  10.436  0.2397 -0.1471  0.0974
36781SOL    HW127953  11.320   9.632  10.379  2.6110  2.9161  1.3924
36781SOL    HW227954  11.297   9.546  10.501 -1.4101 -0.9998 -1.7727
36782SOL     OW27955  11.202  12.311   2.932  0.2735  0.2409  0.4873
36782SOL    HW127956  11.147  12.243   2.892 -2.3172  1.5406  1.5890
36782SOL    HW227957  11.177  12.392   2.887  3.0041  0.6254 -0.5304
36783SOL     OW27958   2.385   1.547  13.483  0.0290 -0.7768  0.2335
36783SOL    HW127959   2.357   1.478  13.424 -3.8977  0.4950  0.3123
36783SOL    HW227960   2.308   1.602  13.495  2.4436  2.7520  1.4571
36784SOL     OW27961  13.233   7.886   5.836  0.0567  0.3837  0.1328
36784SOL    HW127962  13.241   7.858   5.745 -1.6841  0.5908 -0.1212
36784SOL    HW227963  13.311   7.939   5.852  1.1515 -0.8937 -0.7491
36785SOL     OW27964   9.696   5.080  10.860  0.0692 -0.4073 -0.0673
36785SOL    HW127965   9.747   5.096  10.939 -0.3923  0.4026  0.0760
36785SOL    HW227966   9.692   4.985  10.853 -0.8549 -0.5063  1.5185
36786SOL     OW27967   5.675   9.571  14.069 -0.8461 -0.1224 -0.0469
36786SOL    HW127968   5.662   9.478  14.052 -2.4107 -0.0694  0.6592
36786SOL    HW227969   5.594   9.612  14.041  0.4756  1.3085 -2.0212
36787SOL     OW27970   5.340   0.060  13.301 -0.3550 -0.0487  0.2239
36787SOL    HW127971   5.307  -0.025  13.270  1.6999 -1.1128  0.8081
36787SOL    HW227972   5.261   0.112  13.313 -1.6640 -1.7164 -0.5729
36788SOL     OW27973   3.772   6.748   9.119 -0.6695 -0.1932  1.1007
36788SOL    HW127974   3.863   6.774   9.104 -0.4336 -0.6769  1.6218
36788SOL    HW227975   3.773   6.707   9.206 -1.3166 -0.5109  0.9682
36789SOL     OW27976  13.508   2.350   8.120 -0.1457 -0.1441 -0.0291
36789SOL    HW127977  13.547   2.384   8.200  0.8884 -0.8903 -0.1895
36789SOL    HW227978  13.441   2.414   8.096 -0.0482  0.3974  1.0895
36790SOL     OW27979   5.511  12.182   8.989 -0.0783  0.2546 -0.2390
36790SOL    HW127980   5.581  12.246   8.997 -0.3898  0.4553  1.0400
36790SOL    HW227981   5.436  12.221   9.034 -1.1177  0.1687 -1.8344
36791SOL     OW27982   9.171   2.772  11.453  0.3346  1.0669  0.0483
36791SOL    HW127983   9.078   2.792  11.443  0.1691  0.6942  0.7679
36791SOL    HW227984   9.196   2.813  11.536  0.5325  0.2443  0.4164
36792SOL     OW27985  10.140  13.673  13.496  0.0921  0.7296  0.3637
36792SOL    HW127986  10.121  13.689  13.404 -0.7828  0.0595  0.4107
36792SOL    HW227987  10.227  13.634  13.497  0.3961  1.3870 -0.1124
36793SOL     OW27988   5.600  11.135   7.642 -0.0483 -0.4499  0.0202
36793SOL    HW127989   5.619  11.068   7.576 -2.2218 -3.1513  1.9251
36793SOL    HW227990   5.669  11.125   7.707 -0.0855 -0.4753  0.0555
36794SOL     OW27991  10.222   5.075   0.923 -0.1497 -0.4320  0.0299
36794SOL    HW127992  10.273   5.156   0.913 -2.4044  0.8086 -3.0453
36794SOL    HW227993  10.253   5.018   0.853 -0.3240 -1.1968  0.5676
36795SOL     OW27994   7.365  10.653   0.577 -0.6541 -0.0154  0.2778
36795SOL    HW127995   7.316  10.682   0.654 -2.6294 -0.8658 -0.5917
36795SOL    HW227996   7.301  10.656   0.505  0.8885 -0.0979 -1.1550
36796SOL     OW27997  11.416  12.478   5.931  0.2231 -0.2447 -0.5084
36796SOL    HW127998  11.460  12.522   6.004  0.4440 -2.5888  0.8894
36796SOL    HW227999  11.376  12.401   5.971 -0.9723 -0.8064 -2.6357
36797SOL     OW28000   6.579   8.310  10.368  0.0157  0.0162  0.5321
36797SOL    HW128001   6.552   8.273  10.451 -0.7594  2.0402  1.2544
36797SOL    HW228002   6.519   8.383  10.353  1.5775  1.1549 -0.6359
36798SOL     OW28003   6.254   0.475   2.523  0.3157  0.0867  0.4616
36798SOL    HW128004   6.316   0.500   2.591  0.5749 -0.6300  0.4972
36798SOL    HW228005   6.254   0.549   2.462  2.6713 -0.6594 -0.5648
36799SOL     OW28006   6.231   2.715  10.665  0.2147 -0.3390  0.3862
36799SOL    HW128007   6.250   2.625  10.692  1.0200 -0.2223  0.2320
36799SOL    HW228008   6.307   2.765  10.694  0.4266  0.0390 -0.7773
36800SOL     OW28009   7.215   2.985   3.276  0.3691  0.0913  0.2210
36800SOL    HW128010   7.301   2.952   3.254  0.4373  0.1110  0.4574
36800SOL    HW228011   7.220   3.079   3.258 -0.2427 -0.2020 -1.7935
36801SOL     OW28012   6.377   6.884   2.585  0.2415  0.0720  0.6399
36801SOL    HW128013   6.283   6.869   2.585  0.3172 -0.4269  0.6423
36801SOL    HW228014   6.401   6.882   2.678  0.3629 -0.5530  0.6021
36802SOL     OW28015   3.755   8.772  13.033 -0.6645  0.2353 -0.3962
36802SOL    HW128016   3.668   8.793  13.067 -0.6413 -0.3482  0.0364
36802SOL    HW228017   3.754   8.677  13.022 -0.0778  0.2248 -0.3926
36803SOL     OW28018   1.303  12.567   2.832  0.3453 -0.0915 -0.1179
36803SOL    HW128019   1.322  12.631   2.901 -3.0660  0.6469  0.3167
36803SOL    HW228020   1.386  12.522   2.818  1.7405  1.2655  2.8644
36804SOL     OW28021   3.022   7.550   1.998 -0.1159  0.1553 -0.0129
36804SOL    HW128022   3.033   7.555   2.093 -1.4109 -0.7599  0.2099
36804SOL    HW228023   3.076   7.476   1.972 -0.1840  0.0754  0.0744
36805SOL     OW28024   3.089   8.817   4.352  0.3377  0.2186 -0.3057
36805SOL    HW128025   3.119   8.900   4.313 -1.5416  0.3962 -1.5055
36805SOL    HW228026   3.019   8.787   4.293  0.1726 -1.6300  0.7601
36806SOL     OW28027   7.675  11.457   1.166  0.9823  0.1237 -0.5104
36806SOL    HW128028   7.643  11.533   1.117 -1.1463 -1.9261 -2.5904
36806SOL    HW228029   7.599  11.427   1.216  2.1529  0.0694  1.3044
36807SOL     OW28030   6.063   0.044   6.064 -0.1092  0.0200 -0.4923
36807SOL    HW128031   6.006   0.104   6.015 -0.5029  1.0417  1.1518
36807SOL    HW228032   6.105   0.098   6.130  0.1268 -1.3706  0.5545
36808SOL     OW28033   4.833   1.443  11.115  0.2168 -0.8666 -0.6680
36808SOL    HW128034   4.924   1.468  11.126  0.1563 -0.8950 -0.0900
36808SOL    HW228035   4.796   1.444  11.203 -0.7720  0.7255 -1.0679
36809SOL     OW28036   3.736   0.128  11.200 -0.1520 -0.2577  0.5117
36809SOL    HW128037   3.831   0.133  11.195 -0.1860  0.0174  0.0964
36809SOL    HW228038   3.718   0.036  11.222  0.1892 -0.4720 -0.0852
36810SOL     OW28039   3.830   3.372   4.153  0.3565 -0.3528 -0.2162
36810SOL    HW128040   3.904   3.431   4.142 -0.3967  0.4085 -1.4150
36810SOL    HW228041   3.809   3.342   4.065 -2.8692  2.1471 -0.4824
36811SOL     OW28042  11.936   9.370   8.075 -0.3601 -0.2513 -0.4082
36811SOL    HW128043  11.875   9.319   8.129  0.8197  0.3726  1.6235
36811SOL    HW228044  11.959   9.445   8.129  1.0771  0.3020 -1.7136
36812SOL     OW28045   1.604   4.877   8.001 -0.2417 -0.3796  0.2439
36812SOL    HW128046   1.652   4.953   7.967 -0.4599 -0.6719 -0.7346
36812SOL    HW228047   1.658   4.846   8.074  0.4678 -0.0097 -0.1105
36813SOL     OW28048   3.343  11.389   7.867 -0.6429  0.1585  0.5494
36813SOL    HW128049   3.394  11.334   7.928  0.4898 -0.1199 -0.6056
36813SOL    HW228050   3.270  11.333   7.840  0.2167 -0.6356 -0.2231
36814SOL     OW28051   0.982  11.082   4.480  0.2795 -0.2477  0.3491
36814SOL    HW128052   0.974  11.013   4.546  1.1506 -0.7974 -0.1127
36814SOL    HW228053   0.943  11.159   4.522 -0.0623 -0.8315  1.1355
36815SOL     OW28054  13.845   5.772  11.158 -0.1763  0.4880 -0.2589
36815SOL    HW128055  13.869   5.862  11.182 -0.6565  0.2626  1.2006
36815SOL    HW228056  13.775   5.782  11.094 -0.4987  1.1668  0.1896
36816SOL     OW28057  13.359   3.589   9.586 -0.1999  0.0508 -0.8230
36816SOL    HW128058  13.410   3.669   9.573 -0.5844  0.4973  0.3506
36816SOL    HW228059  13.327   3.595   9.676  1.6177 -2.4806  0.0974
36817SOL     OW28060   0.032   7.765   1.053 -0.0352  0.0023  0.2452
36817SOL    HW128061   0.012   7.775   1.146 -2.5381  2.2685 -0.4187
36817SOL    HW228062   0.038   7.671   1.039  0.4344 -0.3811  2.6670
36818SOL     OW28063   0.300  13.317   9.189  0.0800  0.1141  0.1613
36818SOL    HW128064   0.341  13.237   9.220 -0.7729 -0.1219  0.7130
36818SOL    HW228065   0.311  13.314   9.094 -1.4466 -1.5309 -0.0107
36819SOL     OW28066   5.119   8.461  10.035  0.1174 -0.0469  0.3544
36819SOL    HW128067   5.033   8.420  10.021  0.3384 -0.5336  0.3790
36819SOL    HW228068   5.102   8.555  10.030  0.0719 -0.1110 -2.7679
36820SOL     OW28069  10.240   2.834   2.038  0.0384  0.0429  0.9967
36820SOL    HW128070  10.155   2.870   2.061 -0.0322  0.3080  0.3445
36820SOL    HW228071  10.277   2.804   2.121 -0.3297  0.6983  1.4003
36821SOL     OW28072   3.587  10.588  14.088  0.3761 -0.0495 -0.1094
36821SOL    HW128073   3.500  10.626  14.076  0.8395  0.9409 -0.5210
36821SOL    HW228074   3.629  10.599  14.002  0.9821 -0.3012  0.1521
36822SOL     OW28075  12.785  10.601   7.575 -0.3781  0.0862 -0.6516
36822SOL    HW128076  12.725  10.636   7.509 -2.1741 -1.7700 -0.1044
36822SOL    HW228077  12.800  10.510   7.548 -1.2119 -0.7376  1.4551
36823SOL     OW28078   8.237  12.413   1.060  0.8859 -0.5929 -0.0846
36823SOL    HW128079   8.331  12.400   1.075  1.0083  0.4622  0.1377
36823SOL    HW228080   8.233  12.488   1.000  0.1616 -0.0381  0.6375
36824SOL     OW28081  13.676  11.236  11.451 -0.2384 -0.5064 -0.4712
36824SOL    HW128082  13.640  11.308  11.399  0.0260 -1.1982 -1.6761
36824SOL    HW228083  13.615  11.163  11.434  0.7123 -1.1826 -1.0886
36825SOL     OW28084   6.862  14.034   5.619  0.3529  0.0475  1.0298
36825SOL    HW128085   6.866  14.011   5.527 -2.5779  1.1950  0.5009
36825SOL    HW228086   6.938  14.090   5.633  1.1333 -0.5723 -0.5344
36826SOL     OW28087   7.900   3.559  13.659 -0.1082  0.2142 -0.2642
36826SOL    HW128088   7.898   3.464  13.668 -0.2272  0.2324 -0.1041
36826SOL    HW228089   7.859   3.592  13.738  1.8835  0.4490  0.7440
36827SOL     OW28090  13.572   0.596   8.723 -0.4989 -0.1438  0.6020
36827SOL    HW128091  13.522   0.675   8.742  0.4104  0.3025  1.2033
36827SOL    HW228092  13.640   0.594   8.790 -1.1026 -1.9737  1.2259
36828SOL     OW28093   1.085   9.391   6.583 -0.3639 -0.2898  0.0875
36828SOL    HW128094   1.149   9.449   6.624 -1.5118  0.7616  0.4704
36828SOL    HW228095   1.096   9.406   6.489 -0.0747 -0.0849  0.1526
36829SOL     OW28096  14.041   4.414   4.168 -0.7123  0.2417  0.0806
36829SOL    HW128097  13.951   4.383   4.176 -0.3512 -1.4286 -1.5423
36829SOL    HW228098  14.040   4.471   4.091 -0.7983  2.1129  1.4098
36830SOL     OW28099   4.635   7.161  12.232 -0.3470 -0.4867  0.2917
36830SOL    HW128100   4.580   7.239  12.235 -0.4666 -0.5364 -0.5927
36830SOL    HW228101   4.660   7.151  12.140  0.5886 -0.8516  0.5670
36831SOL     OW28102   3.677   8.054   3.737 -0.1763  0.4864 -0.0785
36831SOL    HW128103   3.609   8.121   3.739  0.6081  1.3019  1.6214
36831SOL    HW228104   3.655   7.995   3.808 -0.3716 -0.5864 -1.0125
36832SOL     OW28105   9.846   2.651   4.023  0.4990  0.2039  0.2612
36832SOL    HW128106   9.829   2.651   4.118 -2.4950 -0.6793 -0.1616
36832SOL    HW228107   9.861   2.558   4.003 -1.7982 -0.0972 -0.4402
36833SOL     OW28108   1.140  10.532   2.845 -0.1484  0.5666 -0.4520
36833SOL    HW128109   1.163  10.613   2.890 -0.3548  0.5877 -0.3823
36833SOL    HW228110   1.218  10.509   2.794  0.1800  0.3988  0.1223
36834SOL     OW28111  12.579   1.324  11.372  0.6035  0.1880 -0.0490
36834SOL    HW128112  12.548   1.233  11.370  0.8058 -0.0048  2.6293
36834SOL    HW228113  12.671   1.317  11.395  0.4274  1.0760  0.9870
36835SOL     OW28114   2.095   3.670   3.439  0.4194  0.0542 -0.0444
36835SOL    HW128115   2.160   3.606   3.409  0.9421 -0.2572  1.6479
36835SOL    HW228116   2.114   3.749   3.388  1.7128 -0.2377 -0.0568
36836SOL     OW28117   0.379  10.062   4.418  0.2859  0.3735  0.1050
36836SOL    HW128118   0.440  10.134   4.432  2.7954 -1.8043  1.5030
36836SOL    HW228119   0.323  10.062   4.496 -0.5400  1.4677 -0.4645
36837SOL     OW28120   5.303   7.984  12.914 -0.2529 -0.1620 -0.1107
36837SOL    HW128121   5.355   7.916  12.869 -1.8084  0.4469 -3.0484
36837SOL    HW228122   5.221   7.940  12.935 -1.0525  0.6030 -1.5277
36838SOL     OW28123   1.616   0.493  10.561 -0.0195  0.5940  0.6155
36838SOL    HW128124   1.689   0.554  10.562  0.0319  0.6342 -1.1992
36838SOL    HW228125   1.607   0.468  10.469  0.3454 -2.5967  1.3113
36839SOL     OW28126   6.952   9.921  11.916 -0.1702  0.0250 -0.3159
36839SOL    HW128127   6.966   9.835  11.956 -1.6425  0.6662  1.8082
36839SOL    HW228128   7.025   9.932  11.856  1.0133 -1.9717  0.6344
36840SOL     OW28129   3.512   1.516  11.252  0.1861  0.7766  0.3499
36840SOL    HW128130   3.435   1.521  11.310 -0.2956  0.6662 -0.2728
36840SOL    HW228131   3.582   1.485  11.309 -0.5071 -0.2739  0.6584
36841SOL     OW28132   3.623  10.453  11.422  0.3513 -0.3157  0.3266
36841SOL    HW128133   3.655  10.543  11.423 -1.2645  0.3101 -0.1011
36841SOL    HW228134   3.536  10.460  11.383 -0.0073 -2.0004  0.7601
36842SOL     OW28135  13.574   8.745   7.337  0.4483  0.1350  0.1378
36842SOL    HW128136  13.628   8.668   7.321 -0.1494 -0.3054  0.2106
36842SOL    HW228137  13.560   8.783   7.250 -0.9502 -1.0052 -0.1713
36843SOL     OW28138   0.826  12.639  11.334 -0.1913  0.3056  0.2143
36843SOL    HW128139   0.878  12.693  11.274  0.6894 -0.8846 -0.1156
36843SOL    HW228140   0.758  12.600  11.279  0.6101 -0.7776 -0.0218
36844SOL     OW28141   3.836   5.573  10.683 -0.1059 -0.3607 -0.3805
36844SOL    HW128142   3.827   5.530  10.768  1.8798 -2.1342 -0.9760
36844SOL    HW228143   3.842   5.666  10.703 -3.0179 -0.3897  1.0924
36845SOL     OW28144   7.182   0.850   9.268 -0.1267  0.0561  0.2426
36845SOL    HW128145   7.214   0.797   9.195  0.2081 -0.0996  0.4996
36845SOL    HW228146   7.261   0.875   9.316 -0.4995 -2.0740  2.1003
36846SOL     OW28147   5.789   2.366   7.127  0.1051 -0.8654 -0.4707
36846SOL    HW128148   5.740   2.399   7.203  1.7455  2.9248 -0.8318
36846SOL    HW228149   5.860   2.313   7.166  0.7243  0.7370  0.7063
36847SOL     OW28150   7.876   8.192   8.412 -0.1278  0.2295  0.2175
36847SOL    HW128151   7.810   8.250   8.376 -0.8405 -0.2196  0.7698
36847SOL    HW228152   7.857   8.189   8.506  0.4766 -0.1578  0.3372
36848SOL     OW28153  10.809   0.040   6.173 -0.7350 -0.2662 -0.5896
36848SOL    HW128154  10.883  -0.008   6.137  0.2896  1.9327 -1.5775
36848SOL    HW228155  10.779   0.095   6.101 -1.9880  0.4349  0.4356
36849SOL     OW28156  13.638  12.072   6.279 -0.4754 -0.0618 -0.4516
36849SOL    HW128157  13.726  12.046   6.305  0.0489 -0.8334 -2.7692
36849SOL    HW228158  13.641  12.168   6.276  0.4737 -0.1044 -1.0857
36850SOL     OW28159  12.494  12.134   3.526 -0.5156 -0.3863  0.4236
36850SOL    HW128160  12.577  12.092   3.548 -0.3384  0.3680  1.2524
36850SOL    HW228161  12.513  12.181   3.445 -0.4061 -0.9832  0.0951
36851SOL     OW28162   5.998   2.026  10.446 -0.6625 -0.1096 -0.1441
36851SOL    HW128163   5.933   1.961  10.475 -0.9691  0.8207  1.3696
36851SOL    HW228164   6.050   2.043  10.524 -0.4445  1.3075 -0.5846
36852SOL     OW28165   7.979  10.124   2.358 -0.2468  0.1375 -0.7361
36852SOL    HW128166   8.000  10.128   2.265  2.0811  1.6559 -0.2115
36852SOL    HW228167   7.927  10.203   2.374 -0.2284  0.1292 -0.6369
36853SOL     OW28168  11.249   2.623  10.805 -0.6639 -0.6387 -0.1769
36853SOL    HW128169  11.342   2.642  10.795 -0.7607  0.4374  0.6779
36853SOL    HW228170  11.245   2.563  10.880 -0.7973  1.5854  1.7270
36854SOL     OW28171  12.150  12.606  10.777  0.2612 -0.0382 -0.3175
36854SOL    HW128172  12.244  12.589  10.772  0.0388 -1.5709  0.0048
36854SOL    HW228173  12.142  12.701  10.773  1.7880  0.0939 -0.8305
36855SOL     OW28174   7.660   3.069  10.727  0.4267  0.0863 -0.0180
36855SOL    HW128175   7.672   2.976  10.706 -0.7145  0.3756 -2.3353
36855SOL    HW228176   7.746   3.107  10.713  0.5326 -0.3771 -0.6953
36856SOL     OW28177   0.589  13.586  12.525 -0.4716  0.2840  0.0157
36856SOL    HW128178   0.654  13.650  12.494  0.0826  0.2796  1.1164
36856SOL    HW228179   0.607  13.507  12.474 -0.7584  0.8052 -0.9189
36857SOL     OW28180   2.465  11.217  10.566 -1.0456  0.1760  0.3561
36857SOL    HW128181   2.558  11.213  10.543 -0.4576  0.8689  2.3406
36857SOL    HW228182   2.464  11.197  10.660 -2.7791  1.1777  0.5898
36858SOL     OW28183   6.453   6.926   5.878  0.3464  0.5581 -0.2705
36858SOL    HW128184   6.533   6.890   5.839  0.6592 -0.5380  1.2655
36858SOL    HW228185   6.442   7.011   5.836  2.2145  0.6536 -0.6761
36859SOL     OW28186   1.430   1.953   6.496 -0.4006  0.4658  0.2318
36859SOL    HW128187   1.379   1.897   6.554 -0.7013  1.5872  1.1023
36859SOL    HW228188   1.501   1.986   6.551 -1.1001  2.1194  0.2051
36860SOL     OW28189   0.514   7.411  10.450  0.0191  0.2828  0.1670
36860SOL    HW128190   0.577   7.339  10.446 -0.6063 -0.2300 -1.0001
36860SOL    HW228191   0.476   7.414  10.362  1.3489  3.2661 -0.4375
36861SOL     OW28192   1.727  11.894   6.564  0.1577  0.5897  0.0542
36861SOL    HW128193   1.683  11.911   6.647 -0.0179  1.1437 -0.1432
36861SOL    HW228194   1.754  11.802   6.569  1.5301  1.0239  1.3631
36862SOL     OW28195   7.441   3.743   3.105  0.0159  0.2040  0.0748
36862SOL    HW128196   7.473   3.810   3.165 -0.6022  0.0576  0.5758
36862SOL    HW228197   7.486   3.762   3.022 -0.1730  1.2502  0.1957
36863SOL     OW28198   7.361   5.253   1.629 -0.0707  0.3226  0.4595
36863SOL    HW128199   7.396   5.199   1.700 -0.6478 -0.3258  0.2541
36863SOL    HW228200   7.362   5.342   1.665 -1.0937 -0.0888  1.5823
36864SOL     OW28201  13.696   5.007   1.983  0.4624 -0.2432  0.3120
36864SOL    HW128202  13.766   4.998   2.048  0.0966 -2.5390  0.4746
36864SOL    HW228203  13.628   4.946   2.012 -0.9196  0.7504 -0.7199
36865SOL     OW28204   4.853   6.333   6.202  0.3199  0.0239  0.4748
36865SOL    HW128205   4.817   6.312   6.288  1.6332  1.2255  1.3865
36865SOL    HW228206   4.808   6.414   6.177 -0.2437 -0.4602 -0.1098
36866SOL     OW28207  12.321   1.127   2.985  0.4748  0.2008 -0.3909
36866SOL    HW128208  12.383   1.172   2.928 -0.7884  1.5893 -0.7549
36866SOL    HW228209  12.235   1.161   2.958 -0.5041 -1.9514 -0.1971
36867SOL     OW28210  12.872  12.309   0.683 -0.1872  0.2003  0.0612
36867SOL    HW128211  12.861  12.392   0.731  2.1745  0.6231 -0.0087
36867SOL    HW228212  12.884  12.244   0.752 -2.7315 -0.2717  0.1398
36868SOL     OW28213   0.725   0.667  10.897  0.2115 -0.0414  0.0814
36868SOL    HW128214   0.629   0.667  10.901  0.1306  0.0703 -1.4332
36868SOL    HW228215   0.751   0.594  10.953 -0.8859 -1.7251 -1.4967
36869SOL     OW28216   2.134  13.649   8.354  0.1374 -0.5739 -0.2576
36869SOL    HW128217   2.172  13.733   8.328 -1.2146  0.1571 -0.0050
36869SOL    HW228218   2.170  13.632   8.441  4.0528 -2.6257 -2.0358
36870SOL     OW28219  12.963   3.998   1.538  0.0241  0.2231  0.0234
36870SOL    HW128220  13.054   4.026   1.528 -0.2529  0.9186 -0.6174
36870SOL    HW228221  12.931   4.045   1.615  0.0592  0.3837 -0.0594
36871SOL     OW28222   3.228   2.043   0.577 -1.1003 -0.6388 -0.0860
36871SOL    HW128223   3.191   2.087   0.653 -2.3732  0.5064 -1.3038
36871SOL    HW228224   3.196   1.953   0.582 -0.7881 -0.7008  0.9547
36872SOL     OW28225   7.680  12.527  10.928 -0.6628 -0.3804 -0.3835
36872SOL    HW128226   7.705  12.523  10.836 -0.0964 -0.2480 -0.2407
36872SOL    HW228227   7.677  12.621  10.948  0.8270 -0.4258  0.1500
36873SOL     OW28228   0.575  11.492   0.569 -0.2075  0.2072 -0.4222
36873SOL    HW128229   0.627  11.549   0.626  0.7536 -1.4313  0.4215
36873SOL    HW228230   0.490  11.485   0.613  0.5785 -1.1706  0.9755
36874SOL     OW28231   0.237   1.667   2.511  0.2030 -0.0509  0.0600
36874SOL    HW128232   0.289   1.709   2.579  1.5703 -0.1952 -0.8552
36874SOL    HW228233   0.293   1.670   2.433 -1.7954  1.2172 -1.3975
36875SOL     OW28234   1.482   9.444   9.936  0.1994  0.0675 -0.0661
36875SOL    HW128235   1.446   9.533   9.941  1.7515  0.8161 -1.1743
36875SOL    HW228236   1.483   9.424   9.842  1.9411 -0.1661 -0.0390
36876SOL     OW28237   2.122  13.101   5.212  0.5493 -0.5132 -0.1897
36876SOL    HW128238   2.182  13.048   5.161  0.3865 -0.4259 -0.4728
36876SOL    HW228239   2.177  13.145   5.277  1.0226  0.8083 -1.4541
36877SOL     OW28240   5.860   6.524  11.232 -0.6316  0.1235  0.3109
36877SOL    HW128241   5.787   6.507  11.291 -0.4330  0.4061  0.6403
36877SOL    HW228242   5.822   6.581  11.164 -1.2076 -1.3142 -0.6073
36878SOL     OW28243   9.380  12.433   0.781 -0.0330  0.5681 -0.1441
36878SOL    HW128244   9.357  12.404   0.869  4.1065 -0.2388  0.8584
36878SOL    HW228245   9.395  12.527   0.790 -0.1819  0.5937 -0.1546
36879SOL     OW28246   0.385  12.994  14.057 -0.1851  0.1593  0.3362
36879SOL    HW128247   0.321  13.066  14.053  2.4384  2.6351 -0.7389
36879SOL    HW228248   0.343  12.922  14.010 -2.4175  1.4484  0.2223
36880SOL     OW28249  10.020   7.604   9.430 -0.3113  0.3433  0.0968
36880SOL    HW128250  10.045   7.514   9.450  1.0119  0.9803  1.5632
36880SOL    HW228251  10.059   7.622   9.345 -0.6198 -0.4633 -0.2248
36881SOL     OW28252   8.736  12.859   9.755  0.4234 -0.0080  0.3508
36881SOL    HW128253   8.805  12.836   9.817  0.6655 -0.6035 -0.1272
36881SOL    HW228254   8.780  12.911   9.688  0.1298  0.7765  0.7551
36882SOL     OW28255  11.068   2.108  13.276 -0.5726  0.1030 -0.0935
36882SOL    HW128256  10.973   2.107  13.260 -0.5785  1.6892 -0.2969
36882SOL    HW228257  11.078   2.156  13.359  0.0167 -0.6644  0.2897
36883SOL     OW28258  11.510   6.142   9.522  0.2717 -0.0800 -0.6047
36883SOL    HW128259  11.440   6.080   9.543 -0.3689  0.4458 -1.1576
36883SOL    HW228260  11.513   6.202   9.597  1.7639 -1.5089  0.5455
36884SOL     OW28261  13.432   8.316  12.635 -0.1197  0.0988 -0.2546
36884SOL    HW128262  13.385   8.268  12.703  0.0533 -1.3143 -1.0777
36884SOL    HW228263  13.436   8.406  12.666  0.1142 -0.5440  1.6718
36885SOL     OW28264   0.348   2.647   3.228 -0.5359 -0.4307  0.3078
36885SOL    HW128265   0.408   2.611   3.163  0.0252 -0.8502  1.0443
36885SOL    HW228266   0.323   2.572   3.282 -3.2890 -0.7045 -1.1287
36886SOL     OW28267  11.150   1.833   6.336 -0.4594 -0.2320 -0.0988
36886SOL    HW128268  11.146   1.749   6.382 -1.0094 -0.5044 -0.6244
36886SOL    HW228269  11.239   1.837   6.302  0.0462  0.0935  1.1891
36887SOL     OW28270   1.488  11.726   9.510  0.3359 -0.5482 -0.1768
36887SOL    HW128271   1.519  11.639   9.481 -0.8299 -0.2985 -2.3925
36887SOL    HW228272   1.546  11.787   9.465 -1.3401 -0.1489 -1.9209
36888SOL     OW28273   6.769   3.536   9.709  0.2038 -0.0103 -0.5353
36888SOL    HW128274   6.731   3.546   9.622 -1.1996 -1.1549 -0.0901
36888SOL    HW228275   6.846   3.481   9.696 -1.9743 -3.3269 -0.7001
36889SOL     OW28276   5.412   0.074  10.072  0.2642 -0.0274 -0.0547
36889SOL    HW128277   5.415   0.034  10.159  2.3875 -0.4540 -0.2508
36889SOL    HW228278   5.416  -0.000  10.011 -2.9976  0.1331 -0.6548
36890SOL     OW28279   8.142   1.109  10.768 -0.4064 -0.5157 -0.3982
36890SOL    HW128280   8.179   1.189  10.807 -0.3431 -1.2650  1.1405
36890SOL    HW228281   8.218   1.052  10.754 -0.3922 -0.1758 -1.9148
36891SOL     OW28282  13.089   8.735   9.734  0.0820 -0.4348  0.1480
36891SOL    HW128283  13.163   8.688   9.697  0.8244  0.6280  0.2361
36891SOL    HW228284  13.128   8.797   9.796 -0.8960 -0.0264  0.3827
36892SOL     OW28285  10.667   6.313  11.991  0.1414 -0.6210  0.0399
36892SOL    HW128286  10.633   6.224  11.995 -3.1000  0.5572  2.7205
36892SOL    HW228287  10.628   6.351  11.912 -0.1198 -0.9793 -0.0016
36893SOL     OW28288  11.086   3.519  10.344  0.1651  0.0207 -0.3495
36893SOL    HW128289  11.173   3.518  10.382  0.4650  0.1208 -1.0157
36893SOL    HW228290  11.035   3.578  10.399  0.5983  0.1930 -0.1372
36894SOL     OW28291   7.700  13.021   3.602 -0.0004  0.3557 -0.6347
36894SOL    HW128292   7.611  12.991   3.586 -0.1817  0.4409  0.1788
36894SOL    HW228293   7.693  13.117   3.606  0.1840  0.3807 -0.8927
36895SOL     OW28294   7.667   3.287   5.689  0.0883 -0.3425 -0.7857
36895SOL    HW128295   7.577   3.303   5.663  0.6228  1.0501 -1.9085
36895SOL    HW228296   7.663   3.208   5.743 -2.1944  1.2254  1.5733
36896SOL     OW28297   9.047  11.109   5.671 -0.7117  0.2421  0.0282
36896SOL    HW128298   8.968  11.064   5.701 -0.4029  1.0778  2.2795
36896SOL    HW228299   9.018  11.197   5.650 -0.4285  0.4729  0.5974
36897SOL     OW28300   3.286   5.420  10.221 -0.0249  0.1790 -0.0397
36897SOL    HW128301   3.206   5.371  10.201  0.5533 -0.2136 -1.5007
36897SOL    HW228302   3.345   5.355  10.259  0.2850 -0.0082 -0.8044
36898SOL     OW28303  10.874  11.592  11.551 -0.0136 -0.2604  0.3063
36898SOL    HW128304  10.922  11.589  11.634 -0.4051  0.1811  0.5513
36898SOL    HW228305  10.790  11.631  11.573  0.1147  0.4464 -0.4103
36899SOL     OW28306  11.089   4.026   8.240  0.0288  0.2422  0.6539
36899SOL    HW128307  11.059   4.047   8.151  0.7956 -0.2147  0.2790
36899SOL    HW228308  11.056   4.098   8.294 -0.3628  0.5754 -0.0158
36900SOL     OW28309  12.114   8.267   3.838 -0.1635 -0.1997 -0.1511
36900SOL    HW128310  12.036   8.215   3.819 -2.2291  2.9096 -1.0497
36900SOL    HW228311  12.082   8.337   3.895  1.8791  1.4304 -0.8987
36901SOL     OW28312   3.518   6.534  13.180  0.4169  0.1454 -0.8388
36901SOL    HW128313   3.483   6.612  13.222  2.3984  1.1768 -0.9572
36901SOL    HW228314   3.594   6.565  13.131  0.2847 -1.6033 -2.2751
36902SOL     OW28315  10.683   9.628   7.512 -0.0947 -0.2220  0.0465
36902SOL    HW128316  10.717   9.706   7.468 -0.1024 -0.7316 -0.9015
36902SOL    HW228317  10.638   9.662   7.590  1.0707  0.5991  0.3955
36903SOL     OW28318  12.347   5.125   1.826  0.0552 -0.1330  0.4367
36903SOL    HW128319  12.400   5.047   1.812 -0.2480 -0.3621  0.5451
36903SOL    HW228320  12.295   5.106   1.904  1.4268  0.9679  1.6867
36904SOL     OW28321   7.737  11.063  12.397  0.3938 -0.1681  0.2637
36904SOL    HW128322   7.721  11.110  12.479  0.5688  0.0551  0.1707
36904SOL    HW228323   7.716  10.971  12.418  2.6228 -0.5211  1.2236
36905SOL     OW28324  13.693   7.483   8.709 -0.4998 -0.5535 -0.3652
36905SOL    HW128325  13.768   7.454   8.761 -1.3446  0.0604  1.2709
36905SOL    HW228326  13.638   7.406   8.701 -0.5899 -0.5323  0.0550
36906SOL     OW28327   1.330   8.198   4.882 -0.5441  0.2454 -0.2892
36906SOL    HW128328   1.317   8.221   4.790 -1.6857 -0.6438 -0.3640
36906SOL    HW228329   1.401   8.133   4.881 -1.1985 -0.4759 -0.6516
36907SOL     OW28330   5.543   6.178   3.824  0.3826  0.1913  0.0026
36907SOL    HW128331   5.479   6.234   3.781 -0.4418 -0.9913 -0.3655
36907SOL    HW228332   5.491   6.113   3.870  1.2627 -2.1818 -2.1364
36908SOL     OW28333   2.473   2.755   0.359  0.0952 -0.4755  0.4181
36908SOL    HW128334   2.499   2.663   0.362 -1.5788 -1.0048 -0.0703
36908SOL    HW228335   2.385   2.756   0.397 -0.1415  0.8371 -0.0989
36909SOL     OW28336   4.770   8.970   6.054 -0.2455 -0.1663  0.4235
36909SOL    HW128337   4.767   9.065   6.070 -0.7072 -0.1188  0.0532
36909SOL    HW228338   4.788   8.932   6.140 -1.0102  0.1950  0.7468
36910SOL     OW28339  10.515   3.576   9.248 -0.4022 -0.0998  0.1050
36910SOL    HW128340  10.429   3.537   9.231 -0.6249  0.2016  0.5158
36910SOL    HW228341  10.570   3.502   9.273  0.2510 -0.7455 -2.9425
36911SOL     OW28342   5.134  11.407   4.020  0.0826 -0.2316 -0.2265
36911SOL    HW128343   5.199  11.337   4.024  0.2410 -0.0397  2.3234
36911SOL    HW228344   5.052  11.365   4.046  0.2541  0.5167  1.7311
36912SOL     OW28345  10.848   9.871   9.228  0.3340 -0.0044  0.1962
36912SOL    HW128346  10.927   9.873   9.173  1.3202 -1.1501  1.4917
36912SOL    HW228347  10.800   9.794   9.199  0.8068 -0.5539  0.8244
36913SOL     OW28348   0.357   3.212   3.280 -0.0620  0.0294  0.6356
36913SOL    HW128349   0.421   3.284   3.287  1.9000 -1.5174 -0.3128
36913SOL    HW228350   0.272   3.255   3.292  1.0388  2.4139  0.6593
36914SOL     OW28351  12.180   4.678  13.209  0.3023 -0.8031 -0.6681
36914SOL    HW128352  12.118   4.613  13.242 -1.2148  0.3690 -1.0514
36914SOL    HW228353  12.137   4.714  13.131  1.1344  0.5745 -0.5263
36915SOL     OW28354   4.412   7.019  13.707  0.1365  0.1529 -0.3192
36915SOL    HW128355   4.504   7.045  13.714  0.1873 -0.3739  1.6222
36915SOL    HW228356   4.414   6.940  13.653  0.8796 -0.0713  0.0225
36916SOL     OW28357  10.356   0.846   1.517  0.2897  0.0697  0.0025
36916SOL    HW128358  10.353   0.823   1.424 -0.7658 -0.1679  0.0843
36916SOL    HW228359  10.375   0.763   1.561  1.2354  0.2623 -0.0165
36917SOL     OW28360   0.205   5.736  10.925  0.2583 -0.2161  0.4848
36917SOL    HW128361   0.220   5.679  10.849  0.5421  0.0451  0.3445
36917SOL    HW228362   0.187   5.822  10.887  2.3133  0.3666  0.7494
36918SOL     OW28363   5.531   8.974  13.186  0.1742  0.3352 -0.6338
36918SOL    HW128364   5.547   8.999  13.277 -3.1271  0.6667 -0.0373
36918SOL    HW228365   5.521   9.057  13.139 -2.0756  0.2498 -0.4185
36919SOL     OW28366  14.060   6.425  13.698 -0.1872 -0.7935 -0.1258
36919SOL    HW128367  14.109   6.444  13.778 -0.3523 -0.3969 -0.1145
36919SOL    HW228368  14.104   6.478  13.630 -0.2925 -0.8203 -0.2145
36920SOL     OW28369   3.174   5.448   9.940 -0.2907 -0.0036  0.2062
36920SOL    HW128370   3.196   5.474  10.029  0.3874  0.1599 -0.0036
36920SOL    HW228371   3.225   5.368   9.925 -1.3052 -0.6926  0.3696
36921SOL     OW28372   7.865   6.897   0.225  0.1087 -0.6144 -0.1147
36921SOL    HW128373   7.871   6.859   0.137 -1.9251 -1.5331  0.0978
36921SOL    HW228374   7.789   6.855   0.264  0.0073  0.9848  1.5136
36922SOL     OW28375   6.464  12.328   4.592 -0.2225  0.0309  0.0275
36922SOL    HW128376   6.499  12.277   4.665  0.4254 -1.1971 -1.1111
36922SOL    HW228377   6.513  12.299   4.515 -1.4318  0.6974 -1.0502
36923SOL     OW28378  13.264   2.634  13.114  0.2389  0.2240 -0.2581
36923SOL    HW128379  13.235   2.584  13.038  0.4055 -1.1273  0.5282
36923SOL    HW228380  13.336   2.583  13.150  1.0641  1.5639  0.0218
36924SOL     OW28381   3.967   9.620   5.710  0.5018  0.2945 -0.2519
36924SOL    HW128382   3.979   9.711   5.737  1.7078 -0.0712  0.5426
36924SOL    HW228383   4.045   9.600   5.658 -0.0347 -0.1207 -0.9130
36925SOL     OW28384  10.723   2.277   5.255 -0.4905  0.0965  0.1284
36925SOL    HW128385  10.679   2.314   5.178 -0.9313 -1.9792 -0.6829
36925SOL    HW228386  10.720   2.183   5.241 -1.6416 -0.4540  3.2729
36926SOL     OW28387   0.839  11.826  11.092  0.1514 -0.0598 -0.3067
36926SOL    HW128388   0.893  11.793  11.163 -0.1790 -0.1258 -0.0801
36926SOL    HW228389   0.782  11.753  11.070 -0.8756  0.4630  0.4862
36927SOL     OW28390  12.319  13.442   7.619 -0.1333 -0.1145 -0.1880
36927SOL    HW128391  12.327  13.452   7.525 -0.7347 -0.0007 -0.2321
36927SOL    HW228392  12.397  13.484   7.655  0.4534 -0.7705 -0.6580
36928SOL     OW28393   1.750   7.869   1.209 -0.0049  0.0555 -0.0278
36928SOL    HW128394   1.658   7.887   1.228 -0.1393 -0.8053  0.1783
36928SOL    HW228395   1.763   7.902   1.120 -0.3913  0.5750  0.1022
36929SOL     OW28396  12.810  13.616   4.465 -0.3860  0.1478 -0.2484
36929SOL    HW128397  12.726  13.583   4.497 -0.2162 -0.7260 -0.6703
36929SOL    HW228398  12.863  13.537   4.454  0.1387  0.6001 -0.9877
36930SOL     OW28399  12.005   3.286   2.505  0.2937  0.3939  0.4434
36930SOL    HW128400  11.992   3.336   2.586  1.1041 -0.4630  1.1232
36930SOL    HW228401  11.935   3.316   2.448  0.0429  1.4410  1.2517
36931SOL     OW28402   2.610   7.738   8.447 -0.2424  0.1298  0.9917
36931SOL    HW128403   2.669   7.679   8.493 -0.0835 -0.0573  0.5482
36931SOL    HW228404   2.618   7.714   8.354 -1.2115 -0.0805  0.9500
36932SOL     OW28405  12.487   7.252   4.314  0.0732 -0.7083  0.6099
36932SOL    HW128406  12.541   7.316   4.267 -0.8315 -0.3648  0.0033
36932SOL    HW228407  12.469   7.292   4.399 -2.5898  1.0920 -0.6442
36933SOL     OW28408  12.205  10.783   5.142 -0.6860 -0.1025  0.1474
36933SOL    HW128409  12.113  10.809   5.145 -0.4608  0.6977  0.2750
36933SOL    HW228410  12.252  10.864   5.124  0.1547 -0.1234  2.0026
36934SOL     OW28411   6.351  12.336   3.797  0.1043 -0.3984 -0.2905
36934SOL    HW128412   6.413  12.382   3.740 -0.5829  2.0664  0.8026
36934SOL    HW228413   6.370  12.369   3.885 -0.6483 -2.0473  0.5279
36935SOL     OW28414   4.697  11.229   8.251  0.5872 -0.0209 -0.0639
36935SOL    HW128415   4.704  11.265   8.339  1.1254  0.5345 -0.3256
36935SOL    HW228416   4.680  11.305   8.195  1.3228 -0.2214 -0.5718
36936SOL     OW28417  11.816   2.252   4.265  0.3127  0.3536 -0.1405
36936SOL    HW128418  11.732   2.271   4.307 -0.0257  0.7698 -0.9745
36936SOL    HW228419  11.870   2.215   4.335 -0.4888  0.2888  0.4613
36937SOL     OW28420   9.164   2.791   5.017 -0.3726  0.3413 -0.5563
36937SOL    HW128421   9.125   2.720   4.967  0.2652 -0.0037 -0.5749
36937SOL    HW228422   9.109   2.867   4.998 -1.3646 -0.2529 -0.1416
36938SOL     OW28423   8.607  13.854   6.214 -0.4675 -0.3241 -0.4176
36938SOL    HW128424   8.635  13.829   6.302  0.8095  0.3890 -0.5844
36938SOL    HW228425   8.612  13.772   6.163 -2.3556 -0.9893  0.4081
36939SOL     OW28426   1.958   8.944  12.298  0.1013 -0.1663  0.1483
36939SOL    HW128427   1.980   9.029  12.336 -0.0602 -0.3180  0.6026
36939SOL    HW228428   2.038   8.914  12.255  0.2288  0.1108  0.1954
36940SOL     OW28429   7.254   5.791  11.908  0.7023 -0.4020  0.6162
36940SOL    HW128430   7.314   5.848  11.957  1.5144  0.2041 -0.9979
36940SOL    HW228431   7.296   5.705  11.910  1.5633 -0.0250 -0.3350
36941SOL     OW28432  13.985  10.977  10.590  0.1192 -0.5628 -0.2866
36941SOL    HW128433  14.048  10.906  10.590  0.7994  0.0248 -0.9194
36941SOL    HW228434  13.953  10.980  10.500  0.2803  0.0879 -0.3260
36942SOL     OW28435   0.657   7.508   3.889 -0.8717 -0.3113 -0.1923
36942SOL    HW128436   0.598   7.496   3.963 -1.2070 -1.0262 -0.5598
36942SOL    HW228437   0.737   7.464   3.915 -1.1722 -1.0340 -0.4550
36943SOL     OW28438   4.138   6.930   2.456 -0.0341 -0.1844  0.2982
36943SOL    HW128439   4.074   6.996   2.428 -0.1877 -0.8539 -0.9732
36943SOL    HW228440   4.089   6.874   2.517 -0.6692 -0.6463 -0.6115
36944SOL     OW28441   0.460   2.587   7.267  0.6493 -0.3395  0.6801
36944SOL    HW128442   0.487   2.667   7.221  1.1534 -0.9897 -0.1889
36944SOL    HW228443   0.375   2.608   7.305 -0.2692 -0.0678 -1.3818
36945SOL     OW28444   1.148   0.853   3.128 -0.7499  0.0299  0.6765
36945SOL    HW128445   1.162   0.942   3.159  1.2003  0.5989 -1.5570
36945SOL    HW228446   1.233   0.809   3.139 -0.5346 -0.3283 -1.7312
36946SOL     OW28447  10.077  11.764  12.874 -0.3476  0.1993 -0.3333
36946SOL    HW128448  10.120  11.842  12.910  0.1768  0.6311 -1.8333
36946SOL    HW228449  10.093  11.695  12.939  1.2409  0.7591 -0.1021
36947SOL     OW28450  10.943  11.678   2.464 -0.2514  0.0934 -0.1319
36947SOL    HW128451  10.873  11.680   2.530 -1.3395 -1.1092 -1.1952
36947SOL    HW228452  10.923  11.752   2.407  0.1962  0.6199  0.3843
36948SOL     OW28453   3.478   0.987   6.150  0.0253 -0.0603  0.5256
36948SOL    HW128454   3.383   0.981   6.147  0.0299  0.2436 -0.3576
36948SOL    HW228455   3.499   0.987   6.243 -0.7964 -0.7451  0.7189
36949SOL     OW28456   5.679   5.651   3.210  0.3452  0.0090  0.0970
36949SOL    HW128457   5.625   5.725   3.183  2.0486  1.8951  1.5440
36949SOL    HW228458   5.643   5.625   3.295  0.1909 -0.3868 -0.0855
36950SOL     OW28459  11.473  10.029   9.218  0.0030  0.2545 -0.7457
36950SOL    HW128460  11.499  10.074   9.137  1.8317 -0.4238 -0.5874
36950SOL    HW228461  11.434   9.947   9.188  0.2045  0.2355 -0.9606
36951SOL     OW28462  11.857  10.248   0.370 -0.2069  0.4391  0.3381
36951SOL    HW128463  11.861  10.180   0.303 -0.0544 -0.8588  1.6360
36951SOL    HW228464  11.831  10.203   0.450  0.5142  1.7867  1.3828
36952SOL     OW28465  10.528  10.635  10.390  0.5226 -0.2569  0.4025
36952SOL    HW128466  10.458  10.633  10.455  0.2824  0.5475  0.1732
36952SOL    HW228467  10.586  10.705  10.419  0.2156  0.3601 -0.4387
36953SOL     OW28468   0.120   2.364   8.209 -0.0441  0.1974  0.3246
36953SOL    HW128469   0.192   2.354   8.146  0.4992 -0.9700  1.0803
36953SOL    HW228470   0.062   2.290   8.191 -0.3516  0.3742  0.5899
36954SOL     OW28471   0.965  13.877  10.614 -0.1602  0.3812  0.6054
36954SOL    HW128472   1.010  13.955  10.647  2.5553 -0.9089  0.1646
36954SOL    HW228473   0.951  13.895  10.521  0.8714  0.1966  0.4025
36955SOL     OW28474  11.299   4.503   3.613  0.2892 -0.4540  0.3023
36955SOL    HW128475  11.264   4.534   3.529  0.7696 -0.7682 -0.0180
36955SOL    HW228476  11.225   4.510   3.674 -1.1552 -3.3511 -0.8840
36956SOL     OW28477  10.831   1.419   4.765  0.2529 -0.4399  0.5086
36956SOL    HW128478  10.811   1.456   4.851  0.3243 -0.4702  0.5387
36956SOL    HW228479  10.820   1.325   4.777 -0.7827 -0.3700  0.2063
36957SOL     OW28480  11.668   5.108  13.513  0.6006  0.4175 -0.2660
36957SOL    HW128481  11.636   5.164  13.442 -1.9040  0.4480  0.8017
36957SOL    HW228482  11.745   5.065  13.477 -0.2169  0.9206 -2.7807
36958SOL     OW28483   9.773  10.431  10.552 -0.0164 -0.3698  1.0615
36958SOL    HW128484   9.725  10.424  10.634  0.4456 -0.6078  1.3105
36958SOL    HW228485   9.706  10.418  10.484  0.0669 -3.4279  1.4031
36959SOL     OW28486   8.906   1.677   0.888  0.2557 -0.2274 -0.0782
36959SOL    HW128487   8.910   1.672   0.793  2.4233  0.2206 -0.0610
36959SOL    HW228488   8.939   1.592   0.918  0.7246  0.0606  0.2457
36960SOL     OW28489  10.336  13.237   6.622  0.2024 -0.4151 -0.7814
36960SOL    HW128490  10.316  13.260   6.712 -0.7844 -0.1972 -1.0432
36960SOL    HW228491  10.343  13.141   6.623  0.8158 -0.3738 -0.3681
36961SOL     OW28492  12.749  11.010   5.852  0.3467  0.3317  0.1251
36961SOL    HW128493  12.774  11.034   5.762  0.2794 -0.4358 -0.1085
36961SOL    HW228494  12.831  10.982   5.893  0.4920  1.2817  0.5158
36962SOL     OW28495   2.216   4.928   0.291 -0.0856 -0.5070  0.1191
36962SOL    HW128496   2.278   4.983   0.338  0.7584 -1.3456  0.0203
36962SOL    HW228497   2.253   4.919   0.203 -0.2354 -1.1751  0.1179
36963SOL     OW28498   0.744   8.912   4.000  0.1361  0.1024  0.8388
36963SOL    HW128499   0.768   8.851   4.071 -0.0586 -0.9841 -0.0037
36963SOL    HW228500   0.655   8.941   4.023  0.0969 -0.1921  1.0689
36964SOL     OW28501   6.858   5.579  12.895 -0.5869  0.0082  0.7546
36964SOL    HW128502   6.862   5.674  12.907  1.6865 -0.1610  1.9951
36964SOL    HW228503   6.950   5.552  12.894 -1.1722 -2.1477 -0.0989
36965SOL     OW28504  12.295   9.109   6.930  0.3415  0.2265 -0.2607
36965SOL    HW128505  12.373   9.100   6.876  0.2830 -1.7680 -0.0728
36965SOL    HW228506  12.240   9.171   6.882 -0.7230 -3.0933 -3.8318
36966SOL     OW28507  10.089   0.834   0.499  0.0674 -0.0997 -0.0717
36966SOL    HW128508  10.152   0.901   0.523 -1.5304  0.4988  2.9527
36966SOL    HW228509  10.065   0.855   0.409  1.4026  1.8990 -0.0285
36967SOL     OW28510   7.213   8.319   4.665  0.5271 -0.0409 -0.4783
36967SOL    HW128511   7.279   8.348   4.728 -0.1629  1.9505 -0.5688
36967SOL    HW228512   7.214   8.386   4.597 -1.3010 -0.1364 -0.6579
36968SOL     OW28513  13.369   9.478   3.465 -0.0513 -0.1448 -0.4751
36968SOL    HW128514  13.377   9.507   3.556 -1.7967 -0.2923 -0.2312
36968SOL    HW228515  13.384   9.384   3.468  2.0316  0.1292 -0.7129
36969SOL     OW28516   9.087   4.374   3.691 -0.3366 -0.0496  0.1410
36969SOL    HW128517   9.083   4.289   3.649 -0.8713 -0.1584  0.4048
36969SOL    HW228518   9.040   4.363   3.774  0.7849  0.1327  0.8274
36970SOL     OW28519   9.131   3.295   4.808  0.3983 -0.3983  0.4085
36970SOL    HW128520   9.116   3.212   4.853 -1.3660 -0.4131 -0.1447
36970SOL    HW228521   9.057   3.305   4.749  0.3898  1.7259  0.6837
36971SOL     OW28522  13.947   6.130   3.627 -0.3854  0.4493  0.4427
36971SOL    HW128523  14.007   6.164   3.694 -0.5431  1.2036  0.2203
36971SOL    HW228524  14.004   6.098   3.557 -0.2003 -1.0461  1.2389
36972SOL     OW28525   2.828   5.576  11.787  0.0808 -0.1376  0.5401
36972SOL    HW128526   2.820   5.636  11.861  0.4299 -2.7525  2.8616
36972SOL    HW228527   2.908   5.604  11.742 -0.9461  2.4449  0.1262
36973SOL     OW28528   1.930  13.650   8.000  0.5808 -0.1396 -0.5972
36973SOL    HW128529   1.936  13.658   7.905  1.7787 -0.4780 -0.5673
36973SOL    HW228530   1.838  13.666   8.020  0.2911 -0.1972 -1.8252
36974SOL     OW28531   6.561  11.864  10.472 -0.3026 -0.7144  0.2036
36974SOL    HW128532   6.531  11.955  10.467  1.8156  0.1400  1.6912
36974SOL    HW228533   6.587  11.852  10.563  0.1004 -2.6170 -0.1181
36975SOL     OW28534  12.986   0.559   8.293 -0.2716  0.1161  0.1103
36975SOL    HW128535  13.030   0.565   8.209  1.0081  2.6241  0.8805
36975SOL    HW228536  12.929   0.636   8.296 -0.4892 -0.0741  1.4491
36976SOL     OW28537   2.178  13.633  10.947 -0.3308 -0.1373  0.1822
36976SOL    HW128538   2.246  13.569  10.927 -0.3879 -0.0339 -0.3546
36976SOL    HW228539   2.217  13.717  10.925 -0.0872  0.0669  1.3296
36977SOL     OW28540   6.011   5.712  12.220 -0.0647 -0.1717  0.4461
36977SOL    HW128541   5.974   5.791  12.260  0.2590  0.3282 -0.2165
36977SOL    HW228542   6.002   5.644  12.287  0.2116  0.5736  1.2610
36978SOL     OW28543   1.702   5.900   9.645 -0.4882 -0.3146 -0.0721
36978SOL    HW128544   1.644   5.955   9.593 -1.9617  1.6491  3.2779
36978SOL    HW228545   1.783   5.951   9.652 -0.4850 -0.3294 -0.0001
36979SOL     OW28546   7.950   3.714   5.989  0.5771  0.2224  0.5571
36979SOL    HW128547   8.017   3.648   6.007  1.8994  1.5763  0.7876
36979SOL    HW228548   7.999   3.796   5.979 -1.0607  1.2766  0.8228
36980SOL     OW28549   9.213  10.249  13.022 -0.3043  0.1721 -0.3799
36980SOL    HW128550   9.224  10.303  12.944 -1.8675 -0.0930 -0.8136
36980SOL    HW228551   9.257  10.298  13.092  1.7879  0.0467 -1.5433
36981SOL     OW28552   6.189   0.434   6.358 -0.0299  0.0186  0.5315
36981SOL    HW128553   6.181   0.529   6.371  0.8662  0.0139  1.1755
36981SOL    HW228554   6.176   0.397   6.445 -0.0655 -0.4390  0.3355
36982SOL     OW28555   2.282  11.755   7.622 -0.3359  0.1479  0.2878
36982SOL    HW128556   2.248  11.691   7.684 -2.4927  1.0341  0.0974
36982SOL    HW228557   2.242  11.731   7.538  2.0924 -0.6967 -0.7121
36983SOL     OW28558   3.838   0.166   4.728  0.0920  0.0644  0.5536
36983SOL    HW128559   3.778   0.132   4.662  2.0822  1.0452 -1.9573
36983SOL    HW228560   3.806   0.255   4.746  0.4926  0.4185 -0.4271
36984SOL     OW28561   4.395   2.018   2.442  0.7074  0.1227 -0.3481
36984SOL    HW128562   4.480   2.012   2.397  0.7881  1.5392 -0.4373
36984SOL    HW228563   4.334   2.044   2.373  0.5858  1.0137  0.0816
36985SOL     OW28564  13.103  11.518  13.094 -0.4824  0.1915  0.1948
36985SOL    HW128565  13.034  11.453  13.109  0.6769 -1.3797 -1.0245
36985SOL    HW228566  13.112  11.562  13.179 -3.4562  0.9826  0.2148
36986SOL     OW28567  14.006   2.743  12.912 -0.3216 -0.1178 -0.0584
36986SOL    HW128568  14.083   2.710  12.958 -1.0140  0.8757  1.8961
36986SOL    HW228569  14.014   2.838  12.915 -1.7085  0.0136  0.3638
36987SOL     OW28570   3.304  11.321   3.264  0.1613 -0.5522  0.5900
36987SOL    HW128571   3.364  11.371   3.319 -0.2800  0.6810 -0.0232
36987SOL    HW228572   3.218  11.335   3.302 -0.0175 -0.5191  0.1814
36988SOL     OW28573   9.854  13.568   3.255  0.0951 -0.1718 -0.2434
36988SOL    HW128574   9.910  13.635   3.295 -1.3328  0.9515 -0.0393
36988SOL    HW228575   9.911  13.525   3.191  1.3319  0.5820  0.2985
36989SOL     OW28576   7.812   0.895  12.338 -0.1053 -0.0900 -0.5465
36989SOL    HW128577   7.888   0.838  12.352 -0.2375 -0.6837 -2.0852
36989SOL    HW228578   7.764   0.891  12.421  1.4353  0.1689  0.3982
36990SOL     OW28579   6.703   4.240   1.422  0.1727  0.0256 -0.0439
36990SOL    HW128580   6.786   4.254   1.468 -0.0896  0.0117  0.4367
36990SOL    HW228581   6.669   4.328   1.408 -0.3582 -0.0219  0.9173
36991SOL     OW28582   8.731   2.157   0.816 -0.4627  0.1969 -0.1339
36991SOL    HW128583   8.802   2.157   0.881 -0.1988 -0.5486 -0.4092
36991SOL    HW228584   8.709   2.249   0.805  0.2846  0.4234  0.1633
36992SOL     OW28585   2.234   5.123  11.210 -0.6139 -0.0635 -0.1011
36992SOL    HW128586   2.251   5.044  11.261  1.2085 -0.3659 -1.0808
36992SOL    HW228587   2.245   5.095  11.119  0.1622  1.3234 -0.4612
36993SOL     OW28588  10.403   5.450   8.927 -0.1802 -0.2383  0.8875
36993SOL    HW128589  10.376   5.454   8.835 -0.0810  2.9652  0.8756
36993SOL    HW228590  10.323   5.429   8.975 -0.7188  0.2104  0.1991
36994SOL     OW28591   4.203   1.530   4.294  0.1560 -0.4369 -0.3633
36994SOL    HW128592   4.227   1.438   4.285  3.0026  0.1983 -0.2851
36994SOL    HW228593   4.170   1.556   4.208 -0.9847 -1.5548 -0.2912
36995SOL     OW28594  11.766  10.832   8.759  0.1187  0.1068 -0.3999
36995SOL    HW128595  11.850  10.830   8.714 -1.8158  0.7055 -4.4785
36995SOL    HW228596  11.742  10.925   8.762 -0.9370 -0.1521 -0.4249
36996SOL     OW28597   7.766  10.032   3.751  0.1005 -0.6615  0.3691
36996SOL    HW128598   7.763   9.936   3.757  1.1909 -0.6952  0.5039
36996SOL    HW228599   7.784  10.061   3.840 -2.4849 -0.1811  0.8063
36997SOL     OW28600   5.349   6.486   3.020  0.2453 -0.1188 -0.1937
36997SOL    HW128601   5.261   6.505   2.988  0.1567  0.5133  0.3865
36997SOL    HW228602   5.398   6.458   2.943 -0.2593  0.2759 -0.6626
36998SOL     OW28603  12.124   7.066  10.702  0.3862  0.4540  0.3844
36998SOL    HW128604  12.166   7.018  10.773 -0.1976 -0.1628  0.3212
36998SOL    HW228605  12.191   7.127  10.672  1.4602 -0.9108 -0.1015
36999SOL     OW28606   4.554  12.476   6.280  0.7844  0.3019 -0.2861
36999SOL    HW128607   4.593  12.544   6.225  1.0707 -0.1411 -0.6344
36999SOL    HW228608   4.600  12.396   6.255 -0.1587 -0.1797 -0.4914
37000SOL     OW28609   2.015   6.654  12.722  0.5873  0.5171 -0.2112
37000SOL    HW128610   2.078   6.602  12.673 -1.0814 -1.2661 -0.5750
37000SOL    HW228611   1.965   6.700  12.655 -0.9036 -0.9899 -0.1975
37001SOL     OW28612   5.393  10.089  13.043 -0.1437 -0.3092 -0.6879
37001SOL    HW128613   5.371  10.106  13.135  0.3989 -0.6018 -0.4939
37001SOL    HW228614   5.383   9.994  13.033  1.1896 -0.4934 -0.5236
37002SOL     OW28615   4.762   0.856  13.220  0.4204 -0.3381  0.3630
37002SOL    HW128616   4.823   0.807  13.275 -0.4814 -1.7593  0.1547
37002SOL    HW228617   4.817   0.908  13.163  1.4126 -0.8676  0.8194
37003SOL     OW28618  10.068   8.290   2.053  0.2838 -0.1119 -0.3452
37003SOL    HW128619  10.100   8.380   2.051 -1.3443  0.5298 -3.1132
37003SOL    HW228620  10.146   8.237   2.036  1.0887  0.8147  0.3163
37004SOL     OW28621   8.351  13.762   8.845  0.0626 -0.2388 -0.8284
37004SOL    HW128622   8.402  13.682   8.847  2.6145  1.2257 -1.9052
37004SOL    HW228623   8.296  13.759   8.923  0.9698 -2.4462 -0.2276
37005SOL     OW28624  14.045   9.072   6.665  0.2730 -0.8591 -0.0162
37005SOL    HW128625  14.109   9.015   6.707 -0.1603 -2.5754 -1.5599
37005SOL    HW228626  13.975   9.080   6.730  0.0196 -2.7194 -0.0014
37006SOL     OW28627   6.627  10.389  10.068  0.2596  0.1894 -0.1405
37006SOL    HW128628   6.634  10.441   9.988  0.2769  2.7318  1.4099
37006SOL    HW228629   6.534  10.368  10.075  0.0248  1.1873 -0.1389
37007SOL     OW28630  13.913   0.469   8.065  0.3668 -0.0085 -0.6458
37007SOL    HW128631  13.838   0.421   8.029 -0.5212  1.4092 -0.7836
37007SOL    HW228632  13.913   0.449   8.158 -0.8285  0.7629 -0.4621
37008SOL     OW28633  12.620   9.256   5.026 -0.1024  0.1331  0.6049
37008SOL    HW128634  12.630   9.180   5.083 -0.7606  0.1264  0.7273
37008SOL    HW228635  12.525   9.268   5.019 -0.0980 -0.5199 -1.3586
37009SOL     OW28636   0.393   8.606   1.192 -0.1349 -0.2914 -0.0959
37009SOL    HW128637   0.467   8.667   1.186  1.0667 -1.7271 -0.7029
37009SOL    HW228638   0.391   8.563   1.107 -0.6521 -1.4076  0.4608
37010SOL     OW28639   4.030   5.342   3.310 -0.4565 -0.0120 -0.2101
37010SOL    HW128640   4.002   5.432   3.323  0.1581  0.2818 -0.8502
37010SOL    HW228641   3.967   5.290   3.360  0.3613  0.8798  1.8921
37011SOL     OW28642   1.101   3.342   1.021  0.0747  0.1799  0.1235
37011SOL    HW128643   1.186   3.354   1.063  0.3130 -0.0189 -0.2938
37011SOL    HW228644   1.049   3.417   1.051  1.6139  2.5841 -2.6665
37012SOL     OW28645  11.377   9.707  12.951 -0.1041  0.2613 -0.4393
37012SOL    HW128646  11.294   9.702  12.999 -0.9429 -0.4234 -1.8674
37012SOL    HW228647  11.421   9.784  12.987 -1.2687  0.5215  0.5054
37013SOL     OW28648   6.782   7.150   5.887 -0.5068 -0.2942  0.1609
37013SOL    HW128649   6.757   7.226   5.835 -1.6314 -0.2621  0.7095
37013SOL    HW228650   6.843   7.101   5.831  1.0037  1.4724  0.1595
37014SOL     OW28651   4.893   2.649   0.797  0.8639  0.2413 -0.1523
37014SOL    HW128652   4.870   2.688   0.881  0.9222  0.2386 -0.1346
37014SOL    HW228653   4.816   2.599   0.771  0.7462  0.4621 -0.2296
37015SOL     OW28654   3.363  11.805   4.235  0.2912 -0.4857 -0.1224
37015SOL    HW128655   3.446  11.758   4.229  0.6755  0.1750 -0.0847
37015SOL    HW228656   3.385  11.887   4.280 -0.0834  0.3377 -1.3777
37016SOL     OW28657   3.924   5.044  12.931  0.2262 -0.1428  0.1477
37016SOL    HW128658   3.972   4.961  12.931  2.1171  0.8784 -0.9898
37016SOL    HW228659   3.964   5.096  13.001  0.5484  0.5660 -0.5382
37017SOL     OW28660  10.454   1.103   1.647  0.2948  0.4778 -0.4986
37017SOL    HW128661  10.505   1.095   1.566 -0.2088 -0.5133 -0.7272
37017SOL    HW228662  10.440   1.013   1.675 -0.0408  0.7999  0.3821
37018SOL     OW28663   5.746   4.188   7.408 -0.4993  0.1091 -0.2071
37018SOL    HW128664   5.831   4.226   7.386 -0.3571  0.0927  0.3000
37018SOL    HW228665   5.758   4.094   7.393 -0.3940  0.0945 -0.0421
37019SOL     OW28666  10.612  13.324  10.714  0.1527 -0.0984  0.0863
37019SOL    HW128667  10.632  13.376  10.635 -0.5761  0.4529  0.2523
37019SOL    HW228668  10.655  13.240  10.699  0.2803  0.1101 -0.7663
37020SOL     OW28669  12.214   5.042   5.367  0.4330 -0.0456 -0.2404
37020SOL    HW128670  12.173   4.958   5.387  0.3405 -0.6105 -2.4530
37020SOL    HW228671  12.254   5.028   5.280  0.9018  2.0301 -0.4014
37021SOL     OW28672   4.668  11.517   9.580 -0.2145  0.3121  0.4040
37021SOL    HW128673   4.594  11.533   9.639  1.1035  1.7832  1.7649
37021SOL    HW228674   4.730  11.587   9.601  0.7689  0.2538 -2.0244
37022SOL     OW28675   9.316   0.520   0.058 -0.4418 -0.6528 -0.3037
37022SOL    HW128676   9.304   0.537  -0.036 -0.9485  1.2499  0.0547
37022SOL    HW228677   9.408   0.542   0.074 -0.5609 -0.2137 -0.2148
37023SOL     OW28678   4.980   3.275   8.646 -0.0895 -0.1151  0.6587
37023SOL    HW128679   4.889   3.278   8.677 -0.3514  0.1516 -0.1142
37023SOL    HW228680   4.979   3.208   8.577  0.2606  0.0241  0.5185
37024SOL     OW28681   7.418  12.659   6.220  0.3350  0.0968 -0.7044
37024SOL    HW128682   7.372  12.652   6.137  1.3012 -0.9110 -1.1836
37024SOL    HW228683   7.406  12.574   6.262  0.3925  0.3778 -0.1073
37025SOL     OW28684   2.019   3.383   5.717 -0.4910  0.7258  0.7679
37025SOL    HW128685   2.096   3.348   5.761 -1.6240  0.2089  2.4261
37025SOL    HW228686   2.014   3.474   5.746  0.8240  1.5244 -1.2804
37026SOL     OW28687   6.880   0.685  10.648  0.4089  0.3284  0.3826
37026SOL    HW128688   6.849   0.596  10.630 -0.0363  0.4455  0.5566
37026SOL    HW228689   6.889   0.725  10.561 -1.2414  0.7266  0.3653
37027SOL     OW28690  13.909   6.630   4.048  0.3611 -0.7155  0.4334
37027SOL    HW128691  13.885   6.556   4.105  2.2660 -0.7833  1.2533
37027SOL    HW228692  13.977   6.594   3.991  2.1418  0.6226  1.5983
37028SOL     OW28693  10.756   8.400   3.174  0.3402  0.4068 -1.0957
37028SOL    HW128694  10.701   8.359   3.107  1.0056 -0.3079 -1.2234
37028SOL    HW228695  10.706   8.392   3.255 -0.3067  0.9395 -1.4330
37029SOL     OW28696   9.117  10.275   1.780  0.3680  0.2565  0.4982
37029SOL    HW128697   9.174  10.343   1.742 -0.1178  0.0437 -0.6352
37029SOL    HW228698   9.147  10.268   1.871  2.4944 -0.1847 -0.1735
37030SOL     OW28699   9.087   3.467   3.595  0.0001 -0.0540 -0.0097
37030SOL    HW128700   9.083   3.478   3.500 -2.2494  1.3015  0.1855
37030SOL    HW228701   9.011   3.414   3.617 -0.4368  0.9881  1.1675
37031SOL     OW28702   4.250   6.614  13.181  0.1056 -0.3199  0.3664
37031SOL    HW128703   4.331   6.665  13.184 -0.6453  0.9909 -0.5994
37031SOL    HW228704   4.187   6.665  13.233  0.0365 -1.6413  1.6345
37032SOL     OW28705  10.661   3.692  11.020 -0.3152 -0.0095 -0.1636
37032SOL    HW128706  10.715   3.707  11.097  0.2005 -1.5726 -0.1713
37032SOL    HW228707  10.571   3.695  11.052 -0.0866 -1.9568  0.8234
37033SOL     OW28708   3.724   9.027   4.736 -0.7325  0.0581 -0.3831
37033SOL    HW128709   3.669   8.951   4.720 -1.1269  0.3369 -0.3743
37033SOL    HW228710   3.756   9.015   4.826  0.8021 -1.0759 -1.0334
37034SOL     OW28711   7.919  11.708   3.688 -0.1548 -0.5122  0.4112
37034SOL    HW128712   7.878  11.788   3.654  0.0896 -0.0520  1.1752
37034SOL    HW228713   7.982  11.683   3.620 -0.2530 -0.0657  0.1532
37035SOL     OW28714   1.805  10.149   6.507  0.1595 -0.1805 -0.4058
37035SOL    HW128715   1.841  10.218   6.452 -1.1757  0.6918 -0.2354
37035SOL    HW228716   1.879  10.092   6.526  1.3864  1.4052 -0.2410
37036SOL     OW28717  12.714  10.434   0.830 -0.4235  0.1017 -0.0267
37036SOL    HW128718  12.627  10.401   0.851 -0.3271  0.9449  1.8698
37036SOL    HW228719  12.758  10.360   0.789 -1.4621 -0.8926  0.5790
37037SOL     OW28720   2.685   3.228   2.042  0.0674 -0.0622  0.4720
37037SOL    HW128721   2.636   3.225   2.125 -0.7055 -1.1732  0.0032
37037SOL    HW228722   2.774   3.205   2.066 -0.1742 -0.4908  0.9908
37038SOL     OW28723   7.805   1.657   0.969  0.4589  0.1876  0.4916
37038SOL    HW128724   7.717   1.677   1.001 -0.4057 -1.9196 -0.4015
37038SOL    HW228725   7.828   1.575   1.012  0.9700 -0.5457 -1.1034
37039SOL     OW28726  11.734   1.838   4.753 -0.7533 -0.4785 -0.5017
37039SOL    HW128727  11.654   1.787   4.763 -1.2965  0.6448  1.1817
37039SOL    HW228728  11.763   1.857   4.842 -0.4322  1.8871 -1.0411
37040SOL     OW28729   5.781   2.227   3.338  0.2504 -0.2931  0.2052
37040SOL    HW128730   5.743   2.201   3.254 -3.0358 -2.2355  2.0718
37040SOL    HW228731   5.759   2.320   3.346  0.2951 -0.1714 -0.9216
37041SOL     OW28732  11.612   0.086   4.378 -0.2016  0.5246 -0.1055
37041SOL    HW128733  11.519   0.087   4.397  0.1036  0.2272  1.5712
37041SOL    HW228734  11.653   0.126   4.455  1.1307 -0.2637 -0.3653
37042SOL     OW28735   9.895   8.804   3.071  0.3870  0.2517 -0.3484
37042SOL    HW128736   9.893   8.778   2.979 -0.4235  1.4317 -0.6856
37042SOL    HW228737   9.808   8.784   3.105  0.3772  0.6790 -0.1001
37043SOL     OW28738   0.635   8.732   3.405  0.5344  0.3325 -0.1563
37043SOL    HW128739   0.540   8.748   3.402  0.4133 -0.2912  0.2818
37043SOL    HW228740   0.665   8.753   3.317 -0.4733 -2.2435 -1.2232
37044SOL     OW28741   6.382   0.455   9.502  0.3204  0.1954  0.0095
37044SOL    HW128742   6.377   0.523   9.569  0.0249  0.0544  0.1339
37044SOL    HW228743   6.356   0.374   9.548  0.5679  0.0185 -0.1622
37045SOL     OW28744   3.980  12.744   2.118  0.1144 -0.2927  0.4343
37045SOL    HW128745   4.052  12.691   2.151  0.8889  1.3401  1.5267
37045SOL    HW228746   4.001  12.757   2.025  0.5394 -0.8904  0.4381
37046SOL     OW28747  10.279   0.741  12.724  0.0858 -0.0986  0.4311
37046SOL    HW128748  10.368   0.708  12.708  0.0743  0.3290 -0.6285
37046SOL    HW228749  10.258   0.791  12.645 -0.9999  0.0251  0.7843
37047SOL     OW28750   3.330   2.097   1.975  0.7089 -0.1225 -0.1164
37047SOL    HW128751   3.264   2.047   1.928  1.2071 -0.4697 -0.4529
37047SOL    HW228752   3.412   2.050   1.959  0.7786 -0.6897  1.7019
37048SOL     OW28753   8.700  12.721  12.047 -0.8378 -0.1537 -0.5172
37048SOL    HW128754   8.750  12.784  12.099 -1.9678 -0.0034  0.4347
37048SOL    HW228755   8.766  12.674  11.996 -0.0131  2.4036 -1.9914
37049SOL     OW28756   3.060   5.324   9.572  0.3481 -0.1012 -0.0198
37049SOL    HW128757   3.003   5.355   9.642  0.7227 -0.8716  0.6521
37049SOL    HW228758   3.000   5.290   9.506 -0.0545  1.8043 -0.6825
37050SOL     OW28759  11.565   5.087   8.824 -0.6404  0.0202 -0.0876
37050SOL    HW128760  11.610   5.062   8.744  0.6957 -0.0191  0.6429
37050SOL    HW228761  11.540   5.004   8.864  4.6891 -0.6482  2.8509
37051SOL     OW28762  13.897  10.737   6.572  0.2355 -0.4974 -0.1026
37051SOL    HW128763  13.942  10.794   6.510 -1.1477 -0.0997 -0.7928
37051SOL    HW228764  13.929  10.649   6.551  0.6916 -0.2284 -0.5551
37052SOL     OW28765  11.749   7.927   9.855 -0.2251  0.3129  0.3521
37052SOL    HW128766  11.799   7.926   9.774  1.8022  0.9846  1.5092
37052SOL    HW228767  11.731   7.835   9.873  2.8879 -0.2665  1.1248
37053SOL     OW28768   1.322   6.457  11.219  0.3113 -0.5579  0.3601
37053SOL    HW128769   1.260   6.440  11.290  0.1065 -0.2928  0.2436
37053SOL    HW228770   1.402   6.412  11.246 -0.6146 -2.9170 -0.5490
37054SOL     OW28771   7.335  13.466   5.337  0.1131  0.0962 -0.1416
37054SOL    HW128772   7.245  13.432   5.333  0.2940 -0.3573 -0.3846
37054SOL    HW228773   7.383  13.400   5.386  0.4415  0.0578 -0.5139
37055SOL     OW28774   9.934   0.631  10.899 -0.5767  0.3610  0.0634
37055SOL    HW128775  10.007   0.616  10.959  0.2372  1.3856 -0.6380
37055SOL    HW228776   9.927   0.726  10.893 -1.8521  0.2705 -0.0342
37056SOL     OW28777  12.417   8.522   0.175 -0.8270 -0.3668 -0.4221
37056SOL    HW128778  12.349   8.495   0.236 -1.0889  1.0817 -0.0322
37056SOL    HW228779  12.499   8.504   0.220 -1.0168  2.0852  1.0782
37057SOL     OW28780   0.892  10.480  10.747 -0.4287  0.4198 -0.1719
37057SOL    HW128781   0.937  10.540  10.807  0.0116 -1.3304  1.3509
37057SOL    HW228782   0.890  10.397  10.794 -2.4680 -0.3661 -1.5215
37058SOL     OW28783   7.143   7.108   7.595 -0.0994 -0.4695 -0.1914
37058SOL    HW128784   7.157   7.029   7.647 -0.1797  0.9371  2.1155
37058SOL    HW228785   7.047   7.118   7.594 -0.0973 -0.4940 -0.6264
37059SOL     OW28786   4.704   0.744   3.252  0.3980 -0.4465 -0.0349
37059SOL    HW128787   4.631   0.805   3.260 -0.7177 -1.7806  0.3355
37059SOL    HW228788   4.670   0.673   3.197  1.6185 -0.8158 -0.3580
37060SOL     OW28789   9.704   0.713   6.201  0.4670 -0.3317 -0.4354
37060SOL    HW128790   9.698   0.731   6.107 -0.8678 -3.9250 -1.2307
37060SOL    HW228791   9.622   0.748   6.237  1.0968  1.2839 -0.5154
37061SOL     OW28792   4.840   4.944   2.345  0.3291  0.3207 -0.5006
37061SOL    HW128793   4.884   4.906   2.269  1.3569  1.4419 -0.4958
37061SOL    HW228794   4.908   4.994   2.389 -0.5418  0.6425  0.5153
37062SOL     OW28795  13.787  10.966   6.190 -0.1707 -0.2010  0.0292
37062SOL    HW128796  13.874  11.006   6.191  0.0180 -0.6126  0.7430
37062SOL    HW228797  13.802  10.875   6.215 -0.7868 -0.3256 -0.0317
37063SOL     OW28798   5.800   0.056   7.041 -0.1297  0.4018  0.1810
37063SOL    HW128799   5.819   0.146   7.012  2.9060 -0.6044 -1.3905
37063SOL    HW228800   5.805   0.060   7.137 -2.2404  2.2316  0.3202
37064SOL     OW28801   7.521   5.081   0.129 -0.2801  0.1124  0.0477
37064SOL    HW128802   7.545   5.007   0.074  1.5453  1.7318 -1.4878
37064SOL    HW228803   7.475   5.142   0.071  0.3021  1.1720  0.6477
37065SOL     OW28804   1.654   9.039   6.734 -0.3579 -0.3086  0.5218
37065SOL    HW128805   1.698   9.120   6.707 -0.3785 -0.5142 -0.1290
37065SOL    HW228806   1.656   8.983   6.657  3.8904 -2.8559  2.1092
37066SOL     OW28807  12.225  13.395   3.457 -0.5565  0.2812 -0.2922
37066SOL    HW128808  12.318  13.381   3.439 -0.4016  0.0923  0.6256
37066SOL    HW228809  12.183  13.386   3.371  0.3030  0.7049 -0.7674
37067SOL     OW28810  10.745   2.214   7.865  0.2339 -0.5764  0.6095
37067SOL    HW128811  10.713   2.298   7.831 -0.6572 -0.8938  0.6324
37067SOL    HW228812  10.685   2.194   7.937  1.9995  0.0369  2.3505
37068SOL     OW28813  12.605  12.941   7.703  0.1482  0.3587  0.1148
37068SOL    HW128814  12.663  12.958   7.629  0.1331  1.2342  0.2870
37068SOL    HW228815  12.558  12.861   7.679  0.2610  0.5353 -0.7419
37069SOL     OW28816   3.737  13.979   8.624 -0.0188  0.2141  0.2249
37069SOL    HW128817   3.786  13.906   8.662  0.8761  0.4365 -0.4574
37069SOL    HW228818   3.758  13.975   8.531 -0.9882  0.5720 -0.0181
37070SOL     OW28819   1.334   2.842   8.883  0.2333 -0.2621  0.2961
37070SOL    HW128820   1.273   2.880   8.946  0.3982  0.1930  0.1836
37070SOL    HW228821   1.291   2.762   8.852 -0.4891  0.2677 -0.0871
37071SOL     OW28822   8.351   5.308  13.063 -0.7900 -0.4139  0.3777
37071SOL    HW128823   8.322   5.237  13.006  1.5708 -0.6860 -0.5882
37071SOL    HW228824   8.346   5.387  13.009 -2.9077  0.1432  1.2886
37072SOL     OW28825   8.914   4.122   3.040 -0.3893  0.1788  0.3471
37072SOL    HW128826   8.923   4.209   3.078 -1.9283 -0.0375  1.3082
37072SOL    HW228827   8.919   4.062   3.115 -0.2625 -0.5004 -0.1923
37073SOL     OW28828   5.726   8.276   0.516  0.0568 -0.1315  0.6002
37073SOL    HW128829   5.727   8.307   0.426  3.0151 -1.4334  0.0810
37073SOL    HW228830   5.657   8.328   0.558 -2.5870 -0.6121 -2.7254
37074SOL     OW28831   9.959  13.104  13.422 -0.5247  0.1714  0.2504
37074SOL    HW128832  10.006  13.173  13.469 -1.3171  0.9243 -0.0367
37074SOL    HW228833  10.022  13.073  13.357  0.4891 -0.7067  1.6134
37075SOL     OW28834  12.249   1.495  10.350  0.2712  0.3705  0.0763
37075SOL    HW128835  12.302   1.570  10.322  2.2427 -1.4286 -1.3412
37075SOL    HW228836  12.294   1.462  10.428  0.3754 -0.2653 -0.2451
37076SOL     OW28837  13.170   8.303   1.517  0.1294 -0.3394  0.2226
37076SOL    HW128838  13.189   8.327   1.608  1.2431  1.6950 -0.4674
37076SOL    HW228839  13.228   8.229   1.499  0.4958 -0.2368  0.9579
37077SOL     OW28840   1.588  10.415   1.010 -0.7576 -0.2279  0.4668
37077SOL    HW128841   1.554  10.395   0.923  0.8636 -3.3161  0.4246
37077SOL    HW228842   1.681  10.431   0.996 -0.5644 -0.3039  1.5972
37078SOL     OW28843  13.709  13.832   8.470  0.0013 -0.0957  0.8156
37078SOL    HW128844  13.737  13.786   8.550  0.2471 -1.2098  0.1063
37078SOL    HW228845  13.669  13.764   8.416 -0.3706  0.6912  0.0769
37079SOL     OW28846   0.605   8.537   9.779 -0.0410  0.3989  0.0266
37079SOL    HW128847   0.553   8.465   9.742 -0.2374  0.2092  0.6695
37079SOL    HW228848   0.656   8.497   9.849  1.5934  0.4117 -1.0932
37080SOL     OW28849   2.854   6.755  14.058  0.1338  0.3028 -0.0963
37080SOL    HW128850   2.924   6.723  14.000  1.0597 -0.0788  1.1933
37080SOL    HW228851   2.792   6.797  13.999 -0.2477 -2.2613 -1.7110
37081SOL     OW28852   0.474  12.769  11.536 -0.8856  0.2959 -0.5801
37081SOL    HW128853   0.532  12.694  11.548 -1.8397 -0.4736 -0.5743
37081SOL    HW228854   0.450  12.766  11.444 -1.1751  0.3940 -0.5082
37082SOL     OW28855  10.669  13.324   7.413  0.3007 -0.3362  0.1043
37082SOL    HW128856  10.686  13.284   7.328  1.1607  0.5164 -0.1417
37082SOL    HW228857  10.668  13.419   7.396 -2.1788 -0.1986  0.5691
37083SOL     OW28858   6.498   9.767   3.207 -0.2630 -0.2077  0.0924
37083SOL    HW128859   6.466   9.845   3.252  0.2406 -0.5733  1.1147
37083SOL    HW228860   6.586   9.792   3.178  0.2509 -0.6698  1.2005
37084SOL     OW28861   0.077   1.398   0.878 -0.4171 -0.0632 -0.4547
37084SOL    HW128862   0.053   1.417   0.969 -0.2537  1.9033 -0.7707
37084SOL    HW228863   0.005   1.344   0.845  0.6781 -2.9513  1.4687
37085SOL     OW28864   1.225   6.451   9.055 -0.5404  0.4657  0.1158
37085SOL    HW128865   1.253   6.362   9.035  0.7620  1.0664 -0.8893
37085SOL    HW228866   1.156   6.470   8.990  0.9166  1.0238 -1.3276
37086SOL     OW28867   6.290  13.410   6.952  0.2549  0.8669 -0.4475
37086SOL    HW128868   6.259  13.330   6.909  3.7267 -0.2024 -1.2682
37086SOL    HW228869   6.269  13.480   6.890 -1.8422  0.5228 -0.2139
37087SOL     OW28870   2.874   3.516   9.654  0.1059  0.0196  0.1528
37087SOL    HW128871   2.824   3.547   9.729 -0.8640 -1.1356  0.0092
37087SOL    HW228872   2.866   3.585   9.588 -0.4951  0.2655  0.4843
37088SOL     OW28873   1.237   8.397   7.288  0.3353 -0.2826  0.6151
37088SOL    HW128874   1.252   8.328   7.223 -0.4489  1.0744 -1.0964
37088SOL    HW228875   1.308   8.460   7.272 -0.8483  0.9116 -0.1882
37089SOL     OW28876   7.059   3.776  13.785  0.4595 -0.0933  0.0343
37089SOL    HW128877   6.968   3.803  13.793  0.3378 -0.0406 -1.3987
37089SOL    HW228878   7.086   3.757  13.875 -1.1553 -0.7561  0.4183
37090SOL     OW28879   8.573   0.148   2.295  0.1161  0.1078 -0.5991
37090SOL    HW128880   8.590   0.116   2.206  0.7299  1.1296 -0.8637
37090SOL    HW228881   8.490   0.108   2.320  0.8152 -1.6254 -0.9365
37091SOL     OW28882   9.940   7.395   5.231  0.5691  0.3367 -0.2213
37091SOL    HW128883   9.957   7.302   5.241  0.3786  0.2898 -0.3367
37091SOL    HW228884  10.023   7.432   5.203  0.2631 -0.0179 -1.6412
37092SOL     OW28885   2.353  10.445   5.423  0.2750 -0.1016  0.2558
37092SOL    HW128886   2.318  10.530   5.450 -0.1830 -0.3186  0.3654
37092SOL    HW228887   2.369  10.399   5.506  0.3053 -0.2072  0.1913
37093SOL     OW28888   9.754   8.950   3.685  0.7520 -0.2689  0.6881
37093SOL    HW128889   9.849   8.951   3.673  0.8497 -2.4705  0.9115
37093SOL    HW228890   9.740   9.005   3.763  1.4239  2.8688 -1.2277
37094SOL     OW28891   0.724   2.145   5.159 -0.0157  0.1536 -0.1050
37094SOL    HW128892   0.678   2.114   5.081  0.8616 -2.1587  0.2110
37094SOL    HW228893   0.756   2.232   5.135 -0.0629 -0.3555 -2.2196
37095SOL     OW28894  13.872   3.397   9.683 -0.1878 -0.2359  0.1973
37095SOL    HW128895  13.837   3.457   9.616 -0.0706  0.4823  0.7637
37095SOL    HW228896  13.874   3.450   9.763  0.8920 -0.6896  0.4816
37096SOL     OW28897   3.096   8.957   0.218  0.2534 -0.0022  0.1318
37096SOL    HW128898   3.063   9.029   0.272 -0.3428 -0.5324  0.4745
37096SOL    HW228899   3.182   8.938   0.254  0.4886  0.6387 -0.0606
37097SOL     OW28900   9.052   6.594   3.196  0.0351 -0.8108  0.1172
37097SOL    HW128901   9.097   6.572   3.114  0.4206 -0.9804  0.3742
37097SOL    HW228902   9.054   6.690   3.200  0.4434 -0.8188  0.1657
37098SOL     OW28903   1.116   1.333  10.190  0.6780 -0.0530  0.6167
37098SOL    HW128904   1.168   1.375  10.121 -1.0606  0.5412 -0.3789
37098SOL    HW228905   1.091   1.406  10.247 -0.3378 -0.0862  0.2243
37099SOL     OW28906   2.811   7.550   2.443  1.1076  0.6259 -0.2315
37099SOL    HW128907   2.825   7.617   2.510 -0.9444 -0.7687  1.7684
37099SOL    HW228908   2.735   7.581   2.393  0.4658  0.0713  0.3772
37100SOL     OW28909   1.089   8.877   9.398  0.4785 -0.0690 -0.3011
37100SOL    HW128910   1.018   8.842   9.345 -0.7620 -0.6446  1.6499
37100SOL    HW228911   1.109   8.809   9.462  1.2046  0.9664  0.6350
37101SOL     OW28912  14.050  13.784   2.505 -0.1068 -0.3140  0.5609
37101SOL    HW128913  14.025  13.871   2.473  0.9643 -0.2800 -0.2684
37101SOL    HW228914  14.113  13.802   2.575 -0.6693 -0.4129  1.0929
37102SOL     OW28915   4.492   9.628   4.186  0.1645 -0.0869  0.1160
37102SOL    HW128916   4.455   9.657   4.269  0.3329 -0.2976  0.2648
37102SOL    HW228917   4.418   9.629   4.125 -0.1755 -0.8873  0.5014
37103SOL     OW28918   9.414   6.325   6.837  0.1563  0.3194 -0.3318
37103SOL    HW128919   9.407   6.246   6.891  1.2539  0.8549  0.6606
37103SOL    HW228920   9.507   6.331   6.816  0.2315  1.7335  0.2625
37104SOL     OW28921   8.372  11.256   0.398 -0.4430  0.2661  0.0020
37104SOL    HW128922   8.424  11.309   0.458 -0.7774  0.1176  0.4285
37104SOL    HW228923   8.340  11.183   0.452 -1.0561  0.3341 -0.2606
37105SOL     OW28924  10.554   0.413   4.905 -0.0374  0.1422 -0.4455
37105SOL    HW128925  10.460   0.398   4.915  0.0588 -1.0894 -1.2097
37105SOL    HW228926  10.590   0.397   4.993 -0.3242 -1.2932 -0.5593
37106SOL     OW28927  13.145  11.007   4.269 -0.4469 -0.2360 -0.3129
37106SOL    HW128928  13.207  11.040   4.203 -0.0534  1.7251  0.9603
37106SOL    HW228929  13.076  11.074   4.272 -2.1149 -1.8586 -0.9347
37107SOL     OW28930  10.935   0.378   4.329 -0.2724  0.1677  0.1500
37107SOL    HW128931  10.962   0.445   4.392 -0.3855 -0.5158  0.9437
37107SOL    HW228932  10.928   0.425   4.246 -2.6087  1.6747  1.0846
37108SOL     OW28933  10.116   2.993   2.308 -0.2123  0.3197  0.4190
37108SOL    HW128934  10.204   2.978   2.274 -0.0784  0.1311  0.8413
37108SOL    HW228935  10.125   3.066   2.368 -0.9453  2.5263 -1.9784
37109SOL     OW28936   2.986   2.240   1.904 -0.0659 -0.0073 -0.1076
37109SOL    HW128937   2.898   2.203   1.909 -0.5657  1.1360 -0.0279
37109SOL    HW228938   3.043   2.165   1.887 -1.0312 -0.7896  0.0082
37110SOL     OW28939   3.758  13.262  12.067 -0.3863 -0.0186 -0.2763
37110SOL    HW128940   3.760  13.330  12.000 -0.3043  1.2806  0.9711
37110SOL    HW228941   3.689  13.291  12.128  1.2216  0.2523  1.5245
37111SOL     OW28942   3.577   3.833  13.482  0.0982 -0.4510 -0.0202
37111SOL    HW128943   3.522   3.762  13.448 -0.3181  0.0834 -0.4873
37111SOL    HW228944   3.542   3.852  13.569  0.8229 -1.4582  0.5180
37112SOL     OW28945  12.558   4.924   6.715 -0.2164  0.1134  0.1724
37112SOL    HW128946  12.548   4.904   6.622 -0.6710  0.2390  0.1924
37112SOL    HW228947  12.474   4.960   6.741  0.3220  1.3105  0.3209
37113SOL     OW28948   9.890   2.314   4.219 -0.0083 -0.1357  0.0608
37113SOL    HW128949   9.823   2.246   4.225 -1.0953  0.9718  1.2104
37113SOL    HW228950   9.886   2.344   4.129  0.0539 -1.1436 -0.2958
37114SOL     OW28951   2.741   1.783   2.093 -0.5992  0.1677  0.7527
37114SOL    HW128952   2.713   1.718   2.157  0.6506 -0.4426  0.6853
37114SOL    HW228953   2.803   1.839   2.141 -1.0856  0.8578  0.5960
37115SOL     OW28954   1.373  11.467   4.269  0.1481 -0.3575  0.0161
37115SOL    HW128955   1.348  11.540   4.326  1.0751  0.0168 -0.0464
37115SOL    HW228956   1.420  11.406   4.326  1.1531  0.0578 -0.3494
37116SOL     OW28957   9.030  13.219  13.032 -0.5143 -0.3796  0.3455
37116SOL    HW128958   9.091  13.174  13.091  0.3569  1.2558  0.7540
37116SOL    HW228959   8.993  13.149  12.978 -0.2120 -1.7363  1.8208
37117SOL     OW28960  12.319   7.799  10.817  0.2027  0.0393 -0.1653
37117SOL    HW128961  12.324   7.808  10.912 -0.3960 -1.1090 -0.0008
37117SOL    HW228962  12.248   7.858  10.792  0.7507  0.7899  0.0143
37118SOL     OW28963  12.122   7.564   9.693 -0.2172 -0.6121 -0.6826
37118SOL    HW128964  12.065   7.595   9.763 -1.0787 -2.5026 -0.5017
37118SOL    HW228965  12.097   7.617   9.617  0.3257  1.0539  0.2420
37119SOL     OW28966   9.678   1.210   4.208  0.2809 -0.5743  0.0618
37119SOL    HW128967   9.652   1.158   4.284  0.9296 -1.6958 -0.4639
37119SOL    HW228968   9.724   1.148   4.151  1.9475  0.7872 -0.1447
37120SOL     OW28969  13.813   3.655   8.471  0.2569 -0.3119 -0.7556
37120SOL    HW128970  13.807   3.645   8.376  0.2363  1.2245 -0.9320
37120SOL    HW228971  13.730   3.696   8.496 -0.0803 -1.4377  0.0490
37121SOL     OW28972   9.616  13.867   6.944  0.0446 -0.0159  0.3118
37121SOL    HW128973   9.594  13.912   7.026  0.8049 -1.6698  1.4718
37121SOL    HW228974   9.538  13.815   6.924  0.6747 -1.4095  1.2966
37122SOL     OW28975   5.333   1.484   9.256 -0.5522  0.1931 -0.0249
37122SOL    HW128976   5.281   1.550   9.301 -0.7961  1.0933 -1.5657
37122SOL    HW228977   5.421   1.495   9.293 -0.5281  1.5736 -0.4179
37123SOL     OW28978   8.286   1.741   7.227  0.6004  0.1674 -0.1570
37123SOL    HW128979   8.331   1.709   7.149 -0.5572 -0.3054 -0.6479
37123SOL    HW228980   8.234   1.815   7.196 -1.3346 -1.1662 -0.2816
37124SOL     OW28981   6.892   0.901   9.104  0.1773  0.0346  0.1922
37124SOL    HW128982   6.931   0.902   9.017 -0.2857 -1.6520 -0.0736
37124SOL    HW228983   6.951   0.848   9.157  0.9557  1.8246  1.1968
37125SOL     OW28984   1.247   6.833   6.203  0.2405 -0.0222  0.6193
37125SOL    HW128985   1.206   6.918   6.222  1.0370  0.3995  0.4840
37125SOL    HW228986   1.318   6.826   6.266  0.7501 -0.1742  0.0312
37126SOL     OW28987   1.401   4.451  10.233 -0.3139  0.0678 -0.7444
37126SOL    HW128988   1.322   4.446  10.287  0.5333 -0.2243  0.5015
37126SOL    HW228989   1.385   4.391  10.161 -0.9302 -0.5629 -0.0949
37127SOL     OW28990   6.442  13.698   4.441  0.2395  0.0781  0.0577
37127SOL    HW128991   6.477  13.609   4.441  1.4006  0.5127 -0.1400
37127SOL    HW228992   6.396  13.705   4.357 -0.3682 -0.5183  0.3345
37128SOL     OW28993   0.039   4.100   8.371  0.3385  0.2971 -0.1625
37128SOL    HW128994  -0.033   4.038   8.375  1.7844 -1.8112 -2.9889
37128SOL    HW228995   0.110   4.052   8.328  3.0266  2.6475  1.2673
37129SOL     OW28996   7.281   7.304  13.176 -0.4393 -0.0737  0.3583
37129SOL    HW128997   7.343   7.344  13.237  0.9802 -0.2999 -0.8959
37129SOL    HW228998   7.335   7.268  13.106 -1.8466 -2.0113  0.1869
37130SOL     OW28999   1.719  13.890   4.394  0.4678  0.3440 -0.1264
37130SOL    HW129000   1.725  13.869   4.488 -0.2152 -0.1161 -0.1776
37130SOL    HW229001   1.627  13.908   4.379  0.2976 -1.1002 -1.0144
37131SOL     OW29002   5.552  12.617  12.550 -0.2187 -0.4840 -0.0901
37131SOL    HW129003   5.458  12.635  12.549 -0.0436  0.4956 -0.8056
37131SOL    HW229004   5.576  12.616  12.642 -1.1014 -1.7246  0.1438
37132SOL     OW29005   9.090  10.353   9.159 -0.0525 -0.3127  0.3995
37132SOL    HW129006   9.179  10.319   9.166 -0.1232 -0.2220  2.1384
37132SOL    HW229007   9.046  10.323   9.239 -0.6632  2.2121  1.1094
37133SOL     OW29008   1.902   5.068   3.468 -0.6267  0.0992  0.2656
37133SOL    HW129009   1.828   5.119   3.502 -0.2956  0.9520 -0.2737
37133SOL    HW229010   1.891   5.070   3.373  0.5842  0.9885  0.1330
37134SOL     OW29011   0.183   4.627   2.811 -0.2500 -0.5320 -0.2365
37134SOL    HW129012   0.217   4.665   2.729  0.6281  0.0750  0.3881
37134SOL    HW229013   0.151   4.540   2.785 -0.2063 -0.2597 -1.2691
37135SOL     OW29014  12.278   9.979   4.099  0.0026 -0.3459 -0.0884
37135SOL    HW129015  12.274   9.917   4.026 -2.0901  0.7046 -0.9174
37135SOL    HW229016  12.286  10.065   4.058 -1.2951  0.2720  0.8728
37136SOL     OW29017   1.147   8.060   6.740 -0.5341 -0.4287  0.1048
37136SOL    HW129018   1.201   8.089   6.666  0.7638  0.8642  1.4885
37136SOL    HW229019   1.187   7.978   6.769 -2.0351 -1.8461 -1.5622
37137SOL     OW29020   3.006   2.264  13.718 -0.1551 -0.2599  0.0980
37137SOL    HW129021   2.990   2.203  13.646 -0.5668  0.1804 -0.1848
37137SOL    HW229022   3.057   2.335  13.678 -1.3316  0.5379 -0.0281
37138SOL     OW29023   0.452   4.751  10.401  0.1320  0.1817 -0.0017
37138SOL    HW129024   0.390   4.799  10.456  0.2407  0.8611 -0.4535
37138SOL    HW229025   0.494   4.819  10.348 -1.8790 -0.6424 -2.8956
37139SOL     OW29026   5.667   1.144  12.126  1.2762 -0.2966  0.3603
37139SOL    HW129027   5.576   1.173  12.117  1.6720  1.0658  0.4978
37139SOL    HW229028   5.719   1.213  12.084  2.2748 -0.8168  0.6991
37140SOL     OW29029   5.389   4.395  13.771  0.0822 -0.0175  0.2307
37140SOL    HW129030   5.348   4.329  13.715  0.6587 -1.1497  1.0931
37140SOL    HW229031   5.472   4.354  13.798  0.9970  1.5266 -0.1186
37141SOL     OW29032   3.768   5.401   6.564 -0.2587  0.1397  0.4349
37141SOL    HW129033   3.769   5.496   6.577  3.1695  0.1539  1.1362
37141SOL    HW229034   3.751   5.390   6.471  3.3152  1.8488 -0.6375
37142SOL     OW29035   7.020  11.898   4.653  0.3577  0.0875  0.1066
37142SOL    HW129036   6.983  11.945   4.578  0.0224  1.8169  1.2921
37142SOL    HW229037   7.088  11.841   4.615 -0.9277 -0.3461 -1.6728
37143SOL     OW29038   0.303  12.149   2.080  0.3575 -0.6939 -0.8454
37143SOL    HW129039   0.257  12.070   2.052  0.0045 -0.6609 -0.3730
37143SOL    HW229040   0.396  12.125   2.076  0.2527 -1.1249 -0.7197
37144SOL     OW29041   2.465   9.431   8.130  0.9737  0.2519  0.2345
37144SOL    HW129042   2.513   9.352   8.105  0.9437  0.7741 -1.6651
37144SOL    HW229043   2.517   9.503   8.095 -0.8970  0.8572 -1.5420
37145SOL     OW29044  13.970  12.472   5.318  0.1246  0.3158  0.4078
37145SOL    HW129045  13.950  12.379   5.303  0.5006  0.2659  0.2104
37145SOL    HW229046  14.052  12.487   5.271 -1.9096  1.7531 -3.1525
37146SOL     OW29047  11.050  12.986   8.042  0.0828  0.5032 -0.0178
37146SOL    HW129048  11.136  13.028   8.046  0.2416  0.1995 -0.2645
37146SOL    HW229049  11.056  12.923   7.970  0.1204 -0.5546  0.8863
37147SOL     OW29050   4.842   2.934   6.930  0.1812  0.2198  0.0572
37147SOL    HW129051   4.879   2.984   7.003  0.9242 -0.3303  0.0699
37147SOL    HW229052   4.913   2.928   6.866  0.1812 -0.9791  0.1398
37148SOL     OW29053  11.176   2.538   4.415  0.3412 -0.3525  0.5842
37148SOL    HW129054  11.250   2.593   4.389 -1.4988  1.6659 -0.8192
37148SOL    HW229055  11.215   2.453   4.434  3.0031  0.6018 -0.0752
37149SOL     OW29056   0.183   6.752   7.335  0.2709 -0.6710  0.0297
37149SOL    HW129057   0.130   6.829   7.313  0.5827  0.6707  3.3086
37149SOL    HW229058   0.270   6.773   7.301 -0.0619 -0.4326 -0.7004
37150SOL     OW29059  10.918   7.557  11.924  0.0473 -0.5583  0.4798
37150SOL    HW129060  11.005   7.557  11.883  0.0371  0.1228  0.4333
37150SOL    HW229061  10.882   7.471  11.905  0.5327 -0.6814  0.0982
37151SOL     OW29062   3.510  13.930  10.929 -0.4396  0.3213  0.9096
37151SOL    HW129063   3.522  13.929  10.834 -4.5192 -2.2768  0.1617
37151SOL    HW229064   3.561  13.855  10.960 -0.2304  0.3109  0.5407
37152SOL     OW29065   6.418   5.670  12.004  0.1288  0.6617 -0.1451
37152SOL    HW129066   6.427   5.605  12.073  1.4235  1.6600  0.6841
37152SOL    HW229067   6.491   5.653  11.945 -1.0018 -0.2202 -1.3522
37153SOL     OW29068   3.086   8.000   8.331 -0.5264 -0.1949  0.1601
37153SOL    HW129069   3.036   7.923   8.360  0.1680 -0.4876  0.6071
37153SOL    HW229070   3.062   8.011   8.239  0.0834 -1.5343 -0.1843
37154SOL     OW29071   0.723  12.487   0.547 -0.0631 -0.0482 -0.0327
37154SOL    HW129072   0.731  12.492   0.642  0.3115  1.2367 -0.1113
37154SOL    HW229073   0.638  12.526   0.527  0.4896  1.0522 -0.3112
37155SOL     OW29074   8.597   0.469  11.897 -0.1262 -0.1534 -0.2621
37155SOL    HW129075   8.537   0.409  11.851 -0.2271 -0.7261  0.6007
37155SOL    HW229076   8.541   0.515  11.960  0.5347 -1.6455  1.4941
37156SOL     OW29077   8.038   0.107   4.225 -1.0903  0.4739  0.0613
37156SOL    HW129078   8.058   0.149   4.308 -1.7929  1.9653 -0.4893
37156SOL    HW229079   7.951   0.069   4.238 -1.0823  0.4688  0.1004
37157SOL     OW29080   7.161  10.548   0.003 -0.1443 -0.0179 -0.0273
37157SOL    HW129081   7.233  10.486  -0.010 -1.5151 -1.1709 -3.0110
37157SOL    HW229082   7.136  10.537   0.095  3.7103  0.8335  1.3107
37158SOL     OW29083   3.861  10.993  10.156 -0.1666  0.7509  0.1259
37158SOL    HW129084   3.914  10.990  10.236 -0.2110  0.7460  0.1547
37158SOL    HW229085   3.902  11.062  10.103  1.5477 -1.0425 -1.0262
37159SOL     OW29086   7.025  12.436  12.939  0.3712 -0.0409  0.2039
37159SOL    HW129087   6.996  12.376  12.870 -1.4765  0.5101  0.4231
37159SOL    HW229088   7.024  12.522  12.896  1.3380  0.0428  0.3443
37160SOL     OW29089   0.402   2.870   9.018  0.1447  0.1249 -0.4258
37160SOL    HW129090   0.491   2.879   8.986  0.7278 -2.4688  0.2561
37160SOL    HW229091   0.353   2.938   8.973  2.1000  0.4476 -2.1848
37161SOL     OW29092  11.064   5.163   8.266  0.5045 -0.2895 -0.1221
37161SOL    HW129093  11.050   5.187   8.357 -0.8992 -1.0825 -0.0987
37161SOL    HW229094  11.109   5.238   8.227 -0.3295  0.7256  0.8369
37162SOL     OW29095  13.889   1.479   1.993 -0.2006  0.0619  0.5042
37162SOL    HW129096  13.980   1.447   1.992 -0.5770 -1.0988  1.1141
37162SOL    HW229097  13.840   1.409   2.038 -1.5437  0.2683 -0.5918
37163SOL     OW29098   2.919   9.022   6.777 -0.3069 -0.0359 -0.1988
37163SOL    HW129099   2.974   8.944   6.773 -1.4116 -0.7695 -2.4276
37163SOL    HW229100   2.980   9.094   6.785  0.7961 -1.0173  0.5825
37164SOL     OW29101   7.048   7.118  13.900  0.0657 -0.3874  0.1440
37164SOL    HW129102   7.046   7.210  13.873 -0.9918 -0.5950 -0.5295
37164SOL    HW229103   7.081   7.121  13.990 -0.6339  0.7216  0.3917
37165SOL     OW29104   0.940  13.241   6.430 -0.5883 -0.0989  0.1592
37165SOL    HW129105   0.847  13.219   6.426 -0.9524  1.2243  0.6646
37165SOL    HW229106   0.984  13.158   6.449 -1.7949 -0.5356  1.2017
37166SOL     OW29107   6.541   1.671  11.270 -0.3206 -0.4095 -0.3464
37166SOL    HW129108   6.447   1.685  11.276 -0.2631 -0.6784  3.5131
37166SOL    HW229109   6.556   1.586  11.312  1.6620 -0.3719 -0.8441
37167SOL     OW29110  10.184   0.147   6.048 -0.1525 -0.0210 -0.4403
37167SOL    HW129111  10.161   0.175   6.137  0.1988 -0.2433 -0.2747
37167SOL    HW229112  10.280   0.154   6.046 -0.0631 -1.0991 -0.4322
37168SOL     OW29113  14.027   2.478   3.009  0.6125 -0.4611 -0.2405
37168SOL    HW129114  13.942   2.522   3.011  0.6012 -0.2216 -2.5652
37168SOL    HW229115  14.091   2.548   3.018  0.6183 -0.7065  2.1308
37169SOL     OW29116   9.330   1.991   1.726 -0.0274 -0.3559 -0.0400
37169SOL    HW129117   9.269   1.920   1.746 -0.9537  0.7593  1.3764
37169SOL    HW229118   9.285   2.042   1.659  0.2187 -0.5944 -0.3862
37170SOL     OW29119   2.754   9.737  10.247 -0.3150 -0.4889 -0.1974
37170SOL    HW129120   2.694   9.766  10.178 -1.9119 -1.2408  0.8123
37170SOL    HW229121   2.706   9.669  10.294  0.9292 -0.3912  1.3187
37171SOL     OW29122   1.515   8.499   7.255 -0.2006 -0.1481 -0.1930
37171SOL    HW129123   1.566   8.477   7.177  1.4901 -1.0665  1.0976
37171SOL    HW229124   1.516   8.595   7.258 -0.1384 -0.1072 -1.1889
37172SOL     OW29125   8.037  10.228   6.404  0.4027 -0.0078  0.2259
37172SOL    HW129126   7.967  10.168   6.377  0.7861 -0.6613  0.6482
37172SOL    HW229127   8.015  10.250   6.495  0.5936  0.0111  0.2673
37173SOL     OW29128   1.965   2.275  11.136  0.2220 -0.2985 -0.2542
37173SOL    HW129129   1.908   2.202  11.161 -0.0743  0.0758  0.1821
37173SOL    HW229130   1.949   2.288  11.043  0.0298 -0.5755 -0.2602
37174SOL     OW29131  11.945  11.450   1.194  0.4980 -0.1712 -0.4647
37174SOL    HW129132  11.851  11.445   1.176  0.2228 -0.6248  1.0019
37174SOL    HW229133  11.986  11.415   1.115 -0.4646  1.8057 -1.9470
37175SOL     OW29134  11.787   7.013  13.410  0.5403 -0.1604  0.3444
37175SOL    HW129135  11.697   7.017  13.378  1.2985  2.3539 -1.9089
37175SOL    HW229136  11.780   7.026  13.504 -1.4361  1.6732  0.0286
37176SOL     OW29137   3.080   2.955   0.054 -0.3492 -0.3381 -0.0299
37176SOL    HW129138   3.068   2.958   0.149 -0.3933  1.4052 -0.0631
37176SOL    HW229139   3.094   2.863   0.035 -1.7629 -0.9201  1.4856
37177SOL     OW29140   7.120   0.251   7.246 -0.2397  0.2005  0.5237
37177SOL    HW129141   7.096   0.334   7.288 -3.0053 -1.1632  1.8942
37177SOL    HW229142   7.055   0.241   7.176  0.0057 -0.8513  0.4392
37178SOL     OW29143   7.471   0.744   2.865  0.0387 -0.3824 -0.4271
37178SOL    HW129144   7.419   0.819   2.894 -0.5741 -1.0345  0.2053
37178SOL    HW229145   7.526   0.779   2.794  0.9538  1.0535  0.9211
37179SOL     OW29146  13.305   0.034   9.176 -0.0761 -0.0982  0.4363
37179SOL    HW129147  13.367  -0.039   9.176 -0.3183 -0.3062  0.8125
37179SOL    HW229148  13.347   0.102   9.228  0.1477  0.0341  0.0909
37180SOL     OW29149   2.229  10.619  13.945 -0.1706 -0.0017 -0.0536
37180SOL    HW129150   2.209  10.534  13.984  0.5461 -0.9197 -1.6044
37180SOL    HW229151   2.145  10.663  13.937 -0.3728  0.1598  2.2862
37181SOL     OW29152   3.234   0.226   3.115 -0.7473 -0.7425 -0.0350
37181SOL    HW129153   3.250   0.148   3.062  3.0213  0.0664 -0.3711
37181SOL    HW229154   3.227   0.193   3.204 -1.2804 -1.6283 -0.3948
37182SOL     OW29155   9.093   3.956   8.351 -0.3459 -0.2722  0.1231
37182SOL    HW129156   9.007   3.984   8.383 -0.2502 -0.2504  0.3648
37182SOL    HW229157   9.077   3.928   8.261 -0.4188  0.6523 -0.1512
37183SOL     OW29158  10.070   5.022   2.036  0.8778 -0.2691 -0.7156
37183SOL    HW129159  10.158   5.005   2.005  1.6435  0.7351  0.7577
37183SOL    HW229160  10.073   5.001   2.130  0.1338  1.5426 -0.2220
37184SOL     OW29161   3.975   8.258   8.278 -0.0343 -0.1958 -0.4270
37184SOL    HW129162   3.987   8.309   8.357  1.3251 -1.8494  0.4974
37184SOL    HW229163   3.882   8.234   8.279 -0.3498  1.0037 -0.1192
37185SOL     OW29164   8.617   4.560   6.132 -0.0832 -0.0698  0.2014
37185SOL    HW129165   8.630   4.573   6.038  1.6117  0.6495  0.4874
37185SOL    HW229166   8.523   4.569   6.145 -0.1487  1.7484 -1.1684
37186SOL     OW29167   6.968   3.420  12.577  0.0810 -0.1014  0.1961
37186SOL    HW129168   7.017   3.377  12.506 -0.4145 -0.9160  0.3401
37186SOL    HW229169   7.008   3.387  12.657  2.3307  2.7108  0.3883
37187SOL     OW29170  10.505  12.606   0.259 -0.1025 -0.2948 -0.0810
37187SOL    HW129171  10.422  12.577   0.220 -0.2841  0.0752  0.0317
37187SOL    HW229172  10.559  12.632   0.184 -0.3724  0.2057 -0.1052
37188SOL     OW29173   2.478   6.999  10.453  0.3264  0.0171  0.2283
37188SOL    HW129174   2.490   7.078  10.507  0.4030  1.1610 -1.3927
37188SOL    HW229175   2.511   7.024  10.367 -2.2809 -0.8078 -1.1163
37189SOL     OW29176   1.293   3.868   8.740  0.2357  0.4332 -0.0705
37189SOL    HW129177   1.331   3.956   8.734 -0.6297  0.7837 -0.6208
37189SOL    HW229178   1.342   3.816   8.677  1.6042  0.1794  1.1504
37190SOL     OW29179  13.720   9.601   1.183 -0.0750  0.5481 -0.1241
37190SOL    HW129180  13.794   9.594   1.123 -1.0976  0.5306 -1.4151
37190SOL    HW229181  13.751   9.559   1.264  1.1939  0.2380 -0.7407
37191SOL     OW29182   6.240  11.700   7.085 -0.2495 -0.2733 -0.5179
37191SOL    HW129183   6.168  11.726   7.142  0.0203 -0.7991  0.0843
37191SOL    HW229184   6.304  11.660   7.145  1.4780  2.0000 -0.7131
37192SOL     OW29185  12.827   4.555   4.760  0.3847 -0.0379 -0.1355
37192SOL    HW129186  12.829   4.473   4.811 -0.2863 -0.6140 -1.0102
37192SOL    HW229187  12.743   4.595   4.783  2.1534  2.3262  3.1324
37193SOL     OW29188   7.579   1.039   0.158  0.2543  0.0873 -0.0538
37193SOL    HW129189   7.516   0.967   0.162 -0.2090  0.5467  1.4608
37193SOL    HW229190   7.570   1.074   0.069 -0.5362 -0.8116 -0.3421
37194SOL     OW29191  13.976  11.445  13.727 -0.5665  0.7526  0.7638
37194SOL    HW129192  13.984  11.371  13.787 -2.5973  0.0175  0.2205
37194SOL    HW229193  13.924  11.510  13.776 -0.0680  1.2113  0.6963
37195SOL     OW29194   8.307   0.003   5.330  0.3635 -0.2848 -0.2179
37195SOL    HW129195   8.261   0.077   5.368  0.0509 -0.8345  0.5042
37195SOL    HW229196   8.387   0.040   5.292 -0.2882  0.5605 -0.7827
37196SOL     OW29197  13.797  11.963   3.343  0.0471 -0.2778 -0.2604
37196SOL    HW129198  13.778  11.874   3.313  0.9506 -0.5163 -0.1515
37196SOL    HW229199  13.892  11.968   3.347  0.0190  0.7700 -0.4741
37197SOL     OW29200   2.230   2.519  10.025  0.2858 -0.0337  0.2072
37197SOL    HW129201   2.184   2.486   9.947  0.9166  0.7038 -0.4899
37197SOL    HW229202   2.215   2.613  10.023  1.0674  0.1007  0.4784
37198SOL     OW29203   1.278   2.000   1.268 -0.3389  0.1868 -0.3793
37198SOL    HW129204   1.291   1.924   1.210  0.1734 -0.4097  0.4917
37198SOL    HW229205   1.366   2.025   1.295 -0.5961  0.1934  0.4756
37199SOL     OW29206   4.839   3.892   2.456  0.0239 -0.5806  0.1855
37199SOL    HW129207   4.870   3.821   2.400  0.8058  0.9891 -1.4684
37199SOL    HW229208   4.786   3.947   2.398  0.6770  0.9856  1.0206
37200SOL     OW29209   4.339  11.634  11.072 -0.2507  0.2026  0.3733
37200SOL    HW129210   4.320  11.624  11.165 -2.3723  0.7253  0.0354
37200SOL    HW229211   4.319  11.548  11.034  1.6920 -0.3629  0.5133
37201SOL     OW29212  12.035  14.019   6.619 -0.0750  0.0735  0.5513
37201SOL    HW129213  12.046  13.995   6.527  0.7618  1.5418  0.2357
37201SOL    HW229214  12.119  14.056   6.645 -0.6254  0.6408  1.6195
37202SOL     OW29215  11.892  11.612  11.856  0.3318  0.6174 -0.0797
37202SOL    HW129216  11.817  11.563  11.821  1.2078 -1.5088  0.8639
37202SOL    HW229217  11.965  11.589  11.798  0.8402  0.5251  0.5815
37203SOL     OW29218   1.344  11.650   8.841  0.1044  0.6489  0.1138
37203SOL    HW129219   1.357  11.557   8.864 -0.2156  1.1040  2.4407
37203SOL    HW229220   1.253  11.655   8.812 -0.6034  0.5399  2.1506
37204SOL     OW29221  11.214   9.513   1.005  0.5210  0.7256  0.5800
37204SOL    HW129222  11.301   9.551   1.004  1.0606 -0.4270 -1.4352
37204SOL    HW229223  11.160   9.574   0.954  1.0334 -0.3002 -1.2991
37205SOL     OW29224   5.850   4.880   5.349  0.0888 -0.2597 -0.1773
37205SOL    HW129225   5.824   4.928   5.427 -1.2338  0.2321 -0.8956
37205SOL    HW229226   5.936   4.916   5.326  0.3368 -0.1768  0.8420
37206SOL     OW29227  10.089   6.217   1.465 -0.5039  0.0182  0.4684
37206SOL    HW129228  10.069   6.304   1.432  0.1700 -0.4155 -1.1619
37206SOL    HW229229  10.070   6.222   1.559 -1.1444  1.6993  0.2770
37207SOL     OW29230   4.355   3.212  11.857 -0.1006  0.1391 -0.2393
37207SOL    HW129231   4.359   3.129  11.809 -0.9071 -0.0584  0.0134
37207SOL    HW229232   4.426   3.264  11.820  1.1232 -1.0519  0.3465
37208SOL     OW29233  10.204   9.471  11.761  0.4312 -0.3851 -0.0510
37208SOL    HW129234  10.191   9.555  11.805 -0.0064 -0.0707 -0.7622
37208SOL    HW229235  10.145   9.411  11.806  0.1582 -0.1186 -0.0458
37209SOL     OW29236   9.387   7.798   1.251 -0.0385  0.0539  0.3236
37209SOL    HW129237   9.318   7.865   1.249  0.7862  0.9395  0.5069
37209SOL    HW229238   9.424   7.800   1.162  1.9645  2.0311  1.1010
37210SOL     OW29239   4.893  10.033   2.982 -1.1571 -0.3987 -0.8555
37210SOL    HW129240   4.879   9.972   3.054  1.2346  0.1390  0.1532
37210SOL    HW229241   4.917   9.977   2.908  0.8191 -0.7848  0.0073
37211SOL     OW29242   3.917   6.149   1.472 -0.5737  0.6167 -0.1072
37211SOL    HW129243   3.856   6.147   1.546 -1.2418  1.1347 -0.6243
37211SOL    HW229244   3.862   6.132   1.396 -0.0047  0.7407 -0.5507
37212SOL     OW29245  13.317   6.102  12.242 -0.0638 -0.3665  0.0479
37212SOL    HW129246  13.286   6.157  12.171 -0.3897 -0.8660 -0.2057
37212SOL    HW229247  13.251   6.110  12.310 -0.8672 -1.5508 -0.5514
37213SOL     OW29248   9.693   5.230   3.220 -0.3314 -0.6044 -0.1926
37213SOL    HW129249   9.740   5.300   3.174  0.8843 -0.1942  1.5874
37213SOL    HW229250   9.757   5.160   3.230 -0.6970 -0.8537  0.4675
37214SOL     OW29251   0.957   0.696  13.927  0.1102  0.1104 -0.0347
37214SOL    HW129252   0.989   0.607  13.910  4.5514  1.2289  1.0117
37214SOL    HW229253   0.912   0.690  14.011  3.6425 -0.7806  2.0316
37215SOL     OW29254   1.612  13.444   7.996 -0.2701 -0.1516  0.3256
37215SOL    HW129255   1.572  13.452   7.909  1.2054 -0.2188 -0.3841
37215SOL    HW229256   1.627  13.535   8.023  0.3460 -0.1430 -0.0203
37216SOL     OW29257  11.032   5.071   9.653 -0.1842  0.6076  0.5204
37216SOL    HW129258  11.079   5.026   9.724 -0.4203  0.9675  0.9107
37216SOL    HW229259  10.955   5.109   9.696  0.6176  2.4042  0.4551
37217SOL     OW29260   4.994  10.192   8.621  0.4921  0.4246 -0.3856
37217SOL    HW129261   4.899  10.179   8.618  0.2606  1.7362  0.3529
37217SOL    HW229262   5.023  10.141   8.696  0.1051  1.3041  0.3938
37218SOL     OW29263   5.651   3.396   6.101  0.3109 -0.3947  0.3017
37218SOL    HW129264   5.597   3.476   6.107  1.7239  0.5066  1.6890
37218SOL    HW229265   5.711   3.413   6.029  0.0257 -0.5876  0.0165
37219SOL     OW29266   0.889   1.803   0.165  0.4789 -0.8673  0.3770
37219SOL    HW129267   0.797   1.805   0.138  0.6408 -1.3659 -0.2271
37219SOL    HW229268   0.910   1.894   0.183 -0.3168 -0.8202  1.1665
37220SOL     OW29269   1.882   0.250   4.169  0.4258  0.0776 -0.4239
37220SOL    HW129270   1.909   0.313   4.236 -0.3552  1.4387 -1.3345
37220SOL    HW229271   1.825   0.188   4.216  1.8346 -0.4490  0.6500
37221SOL     OW29272   5.788  14.016   6.072  0.0989  0.1524  0.1986
37221SOL    HW129273   5.771  14.108   6.094 -1.9457  0.1166 -0.9476
37221SOL    HW229274   5.870  14.019   6.022  0.1223  1.3540  0.2690
37222SOL     OW29275   8.188  13.422   1.040 -0.1699 -0.0600  0.0909
37222SOL    HW129276   8.175  13.332   1.008 -1.8409  0.3130 -0.3875
37222SOL    HW229277   8.159  13.419   1.131 -0.1865 -0.0251  0.0866
37223SOL     OW29278   3.800   5.572   2.403  0.2981  0.4165 -0.5638
37223SOL    HW129279   3.801   5.525   2.320 -1.5377 -0.3325 -0.2240
37223SOL    HW229280   3.881   5.545   2.446  2.1475  2.1405 -2.7318
37224SOL     OW29281  10.727   7.241   9.856  0.2990  0.1009  0.3086
37224SOL    HW129282  10.778   7.200   9.786  0.0794 -0.5067  0.5039
37224SOL    HW229283  10.647   7.270   9.813  0.0887 -0.4275  0.3433
37225SOL     OW29284   6.357   8.528   2.174 -0.2441  1.0971 -0.3792
37225SOL    HW129285   6.437   8.579   2.186  1.0411 -0.3484 -2.2869
37225SOL    HW229286   6.375   8.444   2.215 -0.1656  0.2241 -2.1306
37226SOL     OW29287   4.294   6.889   5.781  0.1533 -0.0997  0.2746
37226SOL    HW129288   4.341   6.818   5.737 -0.1112  0.7835 -1.5185
37226SOL    HW229289   4.243   6.931   5.712 -0.7752  0.9792  1.5589
37227SOL     OW29290   6.430   1.245  13.549  0.0942  0.6242 -0.1920
37227SOL    HW129291   6.495   1.307  13.582  0.6751  0.9614 -1.8439
37227SOL    HW229292   6.482   1.173  13.511 -0.5227  0.2271 -0.3041
37228SOL     OW29293   1.049  11.419   8.384 -0.5087 -0.3337 -0.0197
37228SOL    HW129294   0.972  11.370   8.414  0.4632 -2.0034 -0.1152
37228SOL    HW229295   1.022  11.458   8.301 -1.4323 -0.4172  0.2331
37229SOL     OW29296   1.206   3.782   2.891 -0.1390  0.0930  0.8451
37229SOL    HW129297   1.140   3.837   2.934 -0.4180 -0.8764  1.7022
37229SOL    HW229298   1.236   3.833   2.816 -2.3746  0.2708  0.0171
37230SOL     OW29299   8.117   6.320  13.661  0.4381  0.2071  0.0518
37230SOL    HW129300   8.207   6.347  13.640  0.9429 -0.3033  1.4155
37230SOL    HW229301   8.108   6.234  13.620  1.0093 -0.2692  0.8793
37231SOL     OW29302  10.460   9.557  10.505  0.5029  0.6865  0.3220
37231SOL    HW129303  10.516   9.509  10.444  3.5835  1.7326  2.0955
37231SOL    HW229304  10.430   9.633  10.455  0.9892  0.3065 -0.5717
37232SOL     OW29305   9.782   3.910   4.705 -0.4793  0.0577 -0.4886
37232SOL    HW129306   9.826   3.919   4.620 -0.3979 -1.3087 -0.6146
37232SOL    HW229307   9.784   3.816   4.723  2.0041  0.4906  2.3373
37233SOL     OW29308  12.644   2.694   9.423 -0.0726  0.5560  0.8214
37233SOL    HW129309  12.628   2.610   9.379 -0.1999  0.0607  1.7655
37233SOL    HW229310  12.714   2.735   9.373  0.8393 -0.6724  1.0351
37234SOL     OW29311  12.683   8.923  13.755 -0.2972 -0.0304  0.0737
37234SOL    HW129312  12.719   8.916  13.667  2.3606  2.2854  0.8247
37234SOL    HW229313  12.695   8.836  13.793  0.3278 -0.5330 -1.2216
37235SOL     OW29314  12.564  10.019   5.241 -0.0764 -0.5746  0.3250
37235SOL    HW129315  12.610  10.100   5.265 -0.7149 -0.2951  0.6282
37235SOL    HW229316  12.512  10.043   5.165 -1.8638 -0.1174  1.6316
37236SOL     OW29317   2.765  13.418   6.544 -0.1214 -0.4886  0.2015
37236SOL    HW129318   2.732  13.347   6.488 -0.6085  0.1994 -0.4020
37236SOL    HW229319   2.715  13.409   6.625  0.6384 -1.5363  0.5794
37237SOL     OW29320  13.398   8.672   4.436  0.2826  0.4692  0.1371
37237SOL    HW129321  13.437   8.694   4.351  1.1803  0.0029  0.4105
37237SOL    HW229322  13.347   8.749   4.459 -1.4957 -0.0721 -1.6478
37238SOL     OW29323  12.311   0.799   9.040 -0.0973  0.3772  0.4140
37238SOL    HW129324  12.291   0.708   9.020  0.7146  0.4776 -0.9634
37238SOL    HW229325  12.270   0.849   8.970  0.2848  0.9973  0.6217
37239SOL     OW29326   2.963   1.729   3.791 -0.4462  0.3332 -0.2417
37239SOL    HW129327   2.998   1.659   3.735 -1.5045  0.7676 -1.5030
37239SOL    HW229328   2.991   1.810   3.748 -0.7278  0.6756  0.2148
37240SOL     OW29329   7.754   9.547   0.677  0.0704 -0.1664  0.4835
37240SOL    HW129330   7.717   9.630   0.648  0.3971 -0.1183  0.1921
37240SOL    HW229331   7.679   9.488   0.686  0.0149 -0.4265 -1.2583
37241SOL     OW29332   8.464   4.212   1.823 -0.4140  0.3341  0.6811
37241SOL    HW129333   8.410   4.265   1.882 -0.8873  0.9067 -0.2374
37241SOL    HW229334   8.448   4.249   1.737  0.3503 -0.4197  0.1995
37242SOL     OW29335   6.687  13.185   0.517  0.1939 -0.1154 -0.1455
37242SOL    HW129336   6.773  13.226   0.517  0.0709  0.1575 -0.8004
37242SOL    HW229337   6.640  13.226   0.589  0.4364  0.1096 -0.1160
37243SOL     OW29338   1.195  13.761   3.381  0.1439  0.7200  0.6864
37243SOL    HW129339   1.245  13.843   3.389 -0.6519  1.1289  1.6834
37243SOL    HW229340   1.150  13.752   3.465 -2.4289  0.9956 -0.5732
37244SOL     OW29341  11.934   7.104   8.839  0.0021 -0.0917 -0.1848
37244SOL    HW129342  12.005   7.045   8.865  0.6169 -0.6364 -2.7758
37244SOL    HW229343  11.868   7.047   8.800 -2.3269  0.3279  2.8251
37245SOL     OW29344  12.839  13.391   5.895 -0.1073 -0.1735  0.0931
37245SOL    HW129345  12.842  13.487   5.893 -2.4926 -0.0311  0.8426
37245SOL    HW229346  12.776  13.367   5.828 -0.5449 -1.1292  0.8153
37246SOL     OW29347   9.369   8.216   0.923 -0.0661 -0.1413 -0.0931
37246SOL    HW129348   9.287   8.183   0.960 -1.0690  1.3002 -0.9090
37246SOL    HW229349   9.429   8.220   0.997 -0.3412 -2.3031  0.3092
37247SOL     OW29350   2.952   4.981  13.591  0.1792  0.1861  0.0213
37247SOL    HW129351   2.960   5.052  13.527  0.2218 -0.6702 -0.9578
37247SOL    HW229352   2.967   5.023  13.676  2.0915  1.0435 -0.6685
37248SOL     OW29353   1.522   9.690   7.577 -0.0053  0.4252  0.1432
37248SOL    HW129354   1.529   9.615   7.636 -0.5300  1.4745  1.6194
37248SOL    HW229355   1.565   9.662   7.497 -1.0713 -1.8065  0.2753
37249SOL     OW29356   5.466   5.750   4.451 -0.8919  0.5930  0.8483
37249SOL    HW129357   5.551   5.782   4.482 -0.9173  0.8168  0.6897
37249SOL    HW229358   5.409   5.757   4.528 -1.8967  4.4990 -0.0257
37250SOL     OW29359   4.978  11.105   5.733  0.0214  0.4971 -0.0964
37250SOL    HW129360   5.047  11.163   5.764  0.8029 -0.6049  0.2674
37250SOL    HW229361   4.914  11.102   5.804  1.1511 -0.9506  0.9229
37251SOL     OW29362   7.668   1.112   6.665  0.3842 -0.1836 -0.5027
37251SOL    HW129363   7.575   1.133   6.663  0.5940  0.8811  0.1100
37251SOL    HW229364   7.707   1.172   6.601  0.7391 -0.1530 -0.2591
37252SOL     OW29365   9.270   8.335  11.370  0.0069  0.0937 -0.1813
37252SOL    HW129366   9.347   8.317  11.315  1.4684  0.5024  1.6266
37252SOL    HW229367   9.196   8.328  11.310  1.5195  0.7747 -2.2602
37253SOL     OW29368   7.511  12.489   1.216 -0.1520  0.4314  0.0245
37253SOL    HW129369   7.479  12.430   1.149 -0.7581  1.8757 -1.0208
37253SOL    HW229370   7.606  12.487   1.207 -0.1608 -0.3888  0.0307
37254SOL     OW29371   6.177   6.203  10.978  0.3075  0.4080  0.1802
37254SOL    HW129372   6.098   6.255  10.992  0.3181  0.3274  0.5411
37254SOL    HW229373   6.200   6.170  11.065 -0.5398 -1.4515 -0.2690
37255SOL     OW29374   0.794   6.246   9.460 -0.3577 -0.5344 -0.2228
37255SOL    HW129375   0.792   6.281   9.549 -0.0253  1.3064 -0.8797
37255SOL    HW229376   0.722   6.290   9.415  0.5247 -0.1224 -1.2847
37256SOL     OW29377  13.269   1.791  12.244 -0.3412 -0.3354  0.7837
37256SOL    HW129378  13.251   1.718  12.184  1.6877  0.4769 -0.9198
37256SOL    HW229379  13.185   1.838  12.250 -1.1979 -1.7725  0.4944
37257SOL     OW29380  13.250   8.330   7.766  0.2067 -0.1421 -0.0186
37257SOL    HW129381  13.291   8.296   7.846  0.1120  0.2387  0.1957
37257SOL    HW229382  13.318   8.385   7.727 -0.1290  0.5899  0.4017
37258SOL     OW29383   4.155  12.689   9.583 -0.5636  0.0325 -0.0108
37258SOL    HW129384   4.170  12.641   9.664 -3.0380  1.4803  1.4291
37258SOL    HW229385   4.089  12.755   9.606 -0.0431  1.6731 -2.7798
37259SOL     OW29386   0.280   8.360   2.412  0.4890  0.1900 -0.1451
37259SOL    HW129387   0.240   8.303   2.346  0.2660  0.0077  0.1439
37259SOL    HW229388   0.207   8.411   2.447  0.7383  0.9064 -0.6406
37260SOL     OW29389  11.837   3.361  13.556 -0.3071 -0.0883 -0.9549
37260SOL    HW129390  11.910   3.394  13.608 -1.0805 -0.4846  0.4300
37260SOL    HW229391  11.875   3.291  13.504  0.2944 -0.3745 -0.1560
37261SOL     OW29392   4.467  12.853   5.169 -0.2206  0.5781 -0.1547
37261SOL    HW129393   4.546  12.818   5.127 -1.3356 -0.4974 -1.4492
37261SOL    HW229394   4.498  12.930   5.217  2.0288 -1.0610  1.2857
37262SOL     OW29395   4.361   7.814   2.989  0.4295 -0.3056 -0.1311
37262SOL    HW129396   4.413   7.873   3.044  1.2859 -0.9369 -0.2494
37262SOL    HW229397   4.354   7.733   3.041 -1.9884  0.3234  0.6947
37263SOL     OW29398   4.248   4.305   2.772 -0.0235  0.4831 -0.4251
37263SOL    HW129399   4.288   4.365   2.710 -0.8932 -0.4394 -1.9440
37263SOL    HW229400   4.242   4.355   2.854  0.5940  1.9380 -1.2329
37264SOL     OW29401   1.833  11.546  12.294  0.5154 -0.1753 -0.1010
37264SOL    HW129402   1.820  11.623  12.350  0.9468 -1.0669  1.2778
37264SOL    HW229403   1.751  11.537  12.246 -0.1042  0.2601  0.8490
37265SOL     OW29404   8.368  13.302  13.115  0.1415 -0.5724  0.4134
37265SOL    HW129405   8.391  13.313  13.022  0.7863 -0.7146  0.5493
37265SOL    HW229406   8.284  13.257  13.114  0.3865 -1.0353 -0.1020
37266SOL     OW29407   0.564   7.460   1.759  0.1620 -0.2635 -0.1770
37266SOL    HW129408   0.606   7.379   1.791  0.2466 -0.1261  0.0626
37266SOL    HW229409   0.631   7.501   1.705  0.2631 -0.1521  0.0307
37267SOL     OW29410   0.464   2.833  12.778 -0.0418  0.4906  0.5902
37267SOL    HW129411   0.416   2.907  12.742 -1.5433 -0.0785  1.3206
37267SOL    HW229412   0.509   2.868  12.854 -1.6303  0.4930  1.5961
37268SOL     OW29413   4.284  12.154   2.970  0.0958 -0.1937 -0.4994
37268SOL    HW129414   4.202  12.176   2.926 -0.8921 -1.0173  0.8818
37268SOL    HW229415   4.351  12.199   2.918 -1.0209 -0.9067 -2.6835
37269SOL     OW29416   7.537   8.321   0.038 -0.2435  0.5293 -0.4264
37269SOL    HW129417   7.623   8.325  -0.004  0.5378  0.3694  1.1179
37269SOL    HW229418   7.495   8.403   0.012  0.3030  0.5415 -1.3168
37270SOL     OW29419   2.224  12.885   7.651 -0.2206  0.1993 -0.0233
37270SOL    HW129420   2.247  12.973   7.621 -1.3422 -0.0634 -1.8527
37270SOL    HW229421   2.130  12.889   7.667 -0.1714 -0.5166  0.4841
37271SOL     OW29422   5.115   2.925   1.385 -0.0151  0.0697 -0.1160
37271SOL    HW129423   5.106   2.836   1.417 -0.7605  0.6838  1.4579
37271SOL    HW229424   5.027   2.950   1.357  0.4469 -0.1395 -1.9090
37272SOL     OW29425   0.165   4.204   1.585  0.2965  0.2344 -0.1656
37272SOL    HW129426   0.175   4.229   1.493  2.1899  0.5821  0.0915
37272SOL    HW229427   0.121   4.118   1.582  0.0293  0.3952 -1.3610
37273SOL     OW29428  11.022   0.317   3.566  0.7005  0.0750  0.0167
37273SOL    HW129429  11.087   0.246   3.561  0.2176 -0.4503  0.9380
37273SOL    HW229430  10.947   0.285   3.516  0.8361  0.3478 -0.3700
37274SOL     OW29431   5.006   3.070   0.410  0.4379 -0.5743 -0.3300
37274SOL    HW129432   4.947   3.123   0.463 -1.3998 -1.6995 -1.1674
37274SOL    HW229433   5.038   3.002   0.470  1.2629  0.2782  0.2313
37275SOL     OW29434   8.420   7.084   3.835 -0.4574  0.0606  0.1052
37275SOL    HW129435   8.357   7.058   3.902 -0.6787  1.6768  0.5530
37275SOL    HW229436   8.383   7.052   3.753 -1.1531 -0.2254  0.5249
37276SOL     OW29437   1.787   7.386  12.503 -0.4575  0.1480  0.2058
37276SOL    HW129438   1.702   7.418  12.534 -1.9630 -3.0107 -0.1995
37276SOL    HW229439   1.773   7.292  12.491  2.9199 -0.3518 -0.6496
37277SOL     OW29440   2.505   9.231  13.304  0.1967  0.2061  0.5605
37277SOL    HW129441   2.434   9.286  13.338 -0.3755 -0.8172  1.0824
37277SOL    HW229442   2.537   9.277  13.227 -1.5699  0.3048 -0.1521
37278SOL     OW29443   0.186  11.213   6.405  0.6422 -0.5092  0.5278
37278SOL    HW129444   0.108  11.266   6.424  1.8712  0.8682  1.9331
37278SOL    HW229445   0.211  11.240   6.316 -1.3567 -2.1660 -0.6278
37279SOL     OW29446   5.766   9.115   1.606  0.5333  0.3111 -0.3920
37279SOL    HW129447   5.678   9.131   1.572 -0.2242 -0.6981  1.0228
37279SOL    HW229448   5.780   9.185   1.670  0.9225  0.6913 -0.8855
37280SOL     OW29449   9.172   0.258   6.398  0.6874 -0.0130  0.4070
37280SOL    HW129450   9.104   0.323   6.414  0.8503 -0.1941  2.0093
37280SOL    HW229451   9.187   0.261   6.303  0.0630  1.6294  0.3325
37281SOL     OW29452   5.810  10.744   6.997  0.5603 -0.3390 -0.1765
37281SOL    HW129453   5.791  10.829   7.034 -1.0278 -0.1110 -1.3786
37281SOL    HW229454   5.825  10.761   6.904  0.3714 -1.3428 -0.4051
37282SOL     OW29455   9.693   0.220  12.636  0.2452 -0.4649 -0.6546
37282SOL    HW129456   9.725   0.130  12.627  0.8420 -0.2062 -1.1194
37282SOL    HW229457   9.760   0.274  12.596 -0.0497  0.2072 -0.2531
37283SOL     OW29458   8.539   6.003  13.837 -0.6880 -0.0252  0.4983
37283SOL    HW129459   8.506   6.074  13.782 -1.2429 -0.0786  0.7518
37283SOL    HW229460   8.634   6.011  13.834 -0.5621 -1.2927 -2.2185
37284SOL     OW29461  12.030   0.843   9.296 -0.0698 -0.1820  0.2911
37284SOL    HW129462  12.105   0.897   9.269  0.5190 -1.5458 -0.9000
37284SOL    HW229463  11.958   0.906   9.302  1.3149  1.3433  2.4123
37285SOL     OW29464   3.979  10.781   1.874 -0.4050 -0.2320  0.5359
37285SOL    HW129465   4.062  10.807   1.914  0.2346 -0.3023 -0.6975
37285SOL    HW229466   3.913  10.837   1.916  0.6777  2.1425 -0.7416
37286SOL     OW29467   1.549   7.469  12.635  0.3956 -0.2784 -0.2328
37286SOL    HW129468   1.605   7.492  12.709  1.1900 -2.0037 -0.2442
37286SOL    HW229469   1.473   7.427  12.675  1.0358 -1.6301 -0.3641
37287SOL     OW29470   1.571   0.350   9.100  0.2424 -0.1854  0.3635
37287SOL    HW129471   1.581   0.376   9.008 -0.2873 -0.1455  0.3142
37287SOL    HW229472   1.515   0.417   9.138  1.2466  0.3320  0.9649
37288SOL     OW29473   3.768   7.889   0.018  0.4999  0.0721  0.2664
37288SOL    HW129474   3.732   7.955  -0.042  1.4935  1.2699  0.9471
37288SOL    HW229475   3.815   7.828  -0.039  0.7309  0.7254 -0.2522
37289SOL     OW29476   5.494   1.669  13.412 -0.0590 -0.0121 -0.2456
37289SOL    HW129477   5.577   1.689  13.369  0.7922 -0.0067  1.3323
37289SOL    HW229478   5.500   1.576  13.435 -0.1781  0.1553  0.5051
37290SOL     OW29479  13.763  11.159   7.992 -0.4737  0.8708  0.1811
37290SOL    HW129480  13.748  11.198   8.078 -0.5890  0.9347  0.1322
37290SOL    HW229481  13.695  11.092   7.984 -1.2529  1.7143 -0.3805
37291SOL     OW29482   6.415   6.094   6.402 -0.5181  0.3059 -0.1790
37291SOL    HW129483   6.438   6.016   6.352  0.7834 -0.0504  0.8925
37291SOL    HW229484   6.451   6.166   6.351  2.0475 -0.1563  0.8363
37292SOL     OW29485   8.844   2.940   6.626 -0.2205  0.0370 -0.2302
37292SOL    HW129486   8.921   2.976   6.670  0.7630 -0.6563 -1.3322
37292SOL    HW229487   8.837   2.991   6.546 -0.6944 -0.1458 -0.3059
37293SOL     OW29488   1.173  11.393   3.399  0.7520  0.4783 -0.3832
37293SOL    HW129489   1.165  11.429   3.487  1.5329  0.3814 -0.2652
37293SOL    HW229490   1.245  11.331   3.405 -0.8426 -1.5103 -0.4528
37294SOL     OW29491   1.921   4.019   3.105  0.1777 -0.1020 -0.0301
37294SOL    HW129492   1.850   3.962   3.073 -1.1987  1.4063  0.2129
37294SOL    HW229493   1.915   4.012   3.200  0.4362 -0.0459 -0.0091
37295SOL     OW29494   4.479   9.883   1.335 -0.9058 -0.5848  0.2387
37295SOL    HW129495   4.463   9.974   1.361  0.0460 -0.0126 -1.0272
37295SOL    HW229496   4.567   9.864   1.367 -0.8170 -0.7944 -0.1188
37296SOL     OW29497   8.394   8.275   1.280  0.8505  0.2638 -0.1980
37296SOL    HW129498   8.475   8.228   1.261  0.3636 -0.9029  0.4906
37296SOL    HW229499   8.362   8.305   1.195  0.6245 -1.6068 -0.8232
37297SOL     OW29500  12.361   3.807   4.978  0.3957  0.5030 -0.2993
37297SOL    HW129501  12.389   3.823   4.888  0.8150 -0.3498 -0.3324
37297SOL    HW229502  12.391   3.718   4.997  0.7315  0.8491  0.8465
37298SOL     OW29503   6.281   2.061   9.948  0.2704 -0.4500 -0.2364
37298SOL    HW129504   6.369   2.097   9.944 -0.7166  2.0601 -1.6777
37298SOL    HW229505   6.248   2.088  10.034  0.7944 -1.1951  0.2106
37299SOL     OW29506   9.111   5.504   5.043  0.6838 -0.0457  0.1443
37299SOL    HW129507   9.067   5.464   5.118  0.2932  1.2696  0.6328
37299SOL    HW229508   9.123   5.431   4.982  1.0749 -1.1701  1.4879
37300SOL     OW29509   5.863  13.050   0.848 -0.4493 -0.1198  0.4613
37300SOL    HW129510   5.814  13.087   0.775  2.2174 -1.3728 -2.1636
37300SOL    HW229511   5.812  12.973   0.874 -2.8551  1.8350  1.9163
37301SOL     OW29512  11.172   2.669  12.999 -0.0266  0.1688  0.4008
37301SOL    HW129513  11.209   2.651  12.913  1.4551  1.3681  0.7495
37301SOL    HW229514  11.106   2.737  12.984 -1.3723 -1.1777 -0.0593
37302SOL     OW29515  13.159   3.665   3.847  0.5756  0.0071  0.3030
37302SOL    HW129516  13.189   3.582   3.885  0.0413 -0.0196  0.6835
37302SOL    HW229517  13.110   3.639   3.769 -0.3137 -0.1026  0.8840
37303SOL     OW29518   1.288   7.541   8.409  0.3679  0.0885  0.0995
37303SOL    HW129519   1.337   7.618   8.438  1.0938  0.0772 -1.0395
37303SOL    HW229520   1.219   7.576   8.353  0.1475 -0.0322  0.2909
37304SOL     OW29521   1.236  10.786   5.171  0.2952  0.8733  0.5258
37304SOL    HW129522   1.302  10.811   5.106  1.5004  2.1898  2.1833
37304SOL    HW229523   1.241  10.690   5.175  1.4679  0.8954 -0.0273
37305SOL     OW29524   9.550   2.973  13.640  0.2284 -0.1964  0.8438
37305SOL    HW129525   9.515   2.943  13.724  0.5973  0.6552  1.3146
37305SOL    HW229526   9.527   3.066  13.636  1.5870  0.1618  0.7410
37306SOL     OW29527   6.786   6.449   5.058 -0.0683  0.1945  0.1520
37306SOL    HW129528   6.769   6.508   5.131 -0.4090  0.6769 -0.3123
37306SOL    HW229529   6.707   6.395   5.052  0.3614 -0.5337  0.7687
37307SOL     OW29530  10.951  11.564   2.788  0.6362  0.0043 -0.1018
37307SOL    HW129531  10.861  11.594   2.772  0.1147 -1.4215  0.0256
37307SOL    HW229532  10.978  11.610   2.867  0.6897  1.7889 -1.0884
37308SOL     OW29533   3.159   8.511   5.023 -0.8489  0.1431 -0.4216
37308SOL    HW129534   3.204   8.592   4.997  1.3455 -0.0360  2.3134
37308SOL    HW229535   3.229   8.446   5.030 -2.1829 -1.3155 -0.0466
37309SOL     OW29536   1.920   2.744   8.616  0.1440  0.4868 -0.3839
37309SOL    HW129537   1.890   2.762   8.705  2.9474 -1.1947  1.0562
37309SOL    HW229538   1.985   2.813   8.598 -2.9545  3.1136 -2.8009
37310SOL     OW29539   6.785   2.102   4.673 -0.0831  0.1339 -0.7548
37310SOL    HW129540   6.705   2.053   4.654  0.8784 -0.7774 -2.7366
37310SOL    HW229541   6.809   2.075   4.762 -0.4701 -1.7831 -1.1854
37311SOL     OW29542  11.677   7.609   6.589  0.1821  0.1851 -0.1899
37311SOL    HW129543  11.626   7.638   6.513  0.2943  0.0884 -0.3018
37311SOL    HW229544  11.677   7.685   6.648 -2.3214 -0.6201  1.0038
37312SOL     OW29545  12.269  11.443   6.582 -0.7702  0.4267 -0.6857
37312SOL    HW129546  12.360  11.418   6.597 -1.1874 -1.1574 -0.6954
37312SOL    HW229547  12.266  11.536   6.606  0.7723  0.4377 -0.4282
37313SOL     OW29548   9.707   0.052   9.753  0.4109  0.3240  0.5068
37313SOL    HW129549   9.661   0.122   9.707 -0.5122 -0.7718 -0.3030
37313SOL    HW229550   9.799   0.076   9.747  0.1173  1.4358  0.2038
37314SOL     OW29551   9.033  10.407   1.296 -0.0992  0.0293  0.0151
37314SOL    HW129552   9.109  10.393   1.352 -0.0971  0.5204  0.1338
37314SOL    HW229553   9.042  10.497   1.265  0.8991 -0.7666 -2.2457
37315SOL     OW29554  12.136   5.196   7.578  0.8249  0.1255 -0.1207
37315SOL    HW129555  12.148   5.288   7.553 -0.5645  0.0324 -1.2442
37315SOL    HW229556  12.191   5.147   7.517  2.2884  0.2050  1.0530
37316SOL     OW29557   8.061   4.552  11.748  0.1838 -0.4118  0.2527
37316SOL    HW129558   8.151   4.540  11.718  0.5507 -1.0096  1.5333
37316SOL    HW229559   8.067   4.622  11.813 -0.5136  0.4768 -0.5975
37317SOL     OW29560   1.242   1.667   4.768 -0.6379  0.2505  0.0042
37317SOL    HW129561   1.320   1.717   4.742  0.3471 -2.0037 -1.6667
37317SOL    HW229562   1.178   1.684   4.699 -0.2479 -0.8374 -0.6483
37318SOL     OW29563   7.235  11.300   5.325 -0.4709  0.3198 -0.1224
37318SOL    HW129564   7.300  11.258   5.269  0.1411  0.5322  0.4127
37318SOL    HW229565   7.170  11.231   5.341 -0.0077 -0.1242 -0.0929
37319SOL     OW29566   4.251   3.769   5.610  0.0069 -0.5025 -0.3559
37319SOL    HW129567   4.298   3.842   5.570  0.9972 -1.2308 -0.5524
37319SOL    HW229568   4.245   3.792   5.702 -0.4145  0.2061 -0.5564
37320SOL     OW29569  11.021  11.810   7.207 -0.2456 -0.1034  0.1431
37320SOL    HW129570  10.935  11.816   7.166 -0.0326 -0.1360 -0.3217
37320SOL    HW229571  11.083  11.821   7.134  0.1699 -2.8451 -0.0259
37321SOL     OW29572   0.597   2.627  12.976 -0.2571  0.0404  0.3393
37321SOL    HW129573   0.552   2.557  12.930 -0.6204  0.2819  0.3249
37321SOL    HW229574   0.530   2.666  13.032  0.1212 -0.1039  0.9080
37322SOL     OW29575   6.605   9.018   3.125 -0.2411 -0.1532  0.1112
37322SOL    HW129576   6.681   8.979   3.083 -0.5859 -0.4057 -0.2968
37322SOL    HW229577   6.531   8.989   3.071 -0.7619 -0.9588  1.2069
37323SOL     OW29578   9.291   3.042   1.777 -0.0974  0.3647 -0.7717
37323SOL    HW129579   9.312   3.066   1.867  0.9818  0.0176 -0.9159
37323SOL    HW229580   9.204   3.003   1.782  0.3737 -0.6169  0.3020
37324SOL     OW29581  11.552  12.875  13.881  0.3858  0.1481 -0.1800
37324SOL    HW129582  11.485  12.849  13.944  0.6729  1.9469  0.9271
37324SOL    HW229583  11.631  12.886  13.933  0.5218  2.1405 -0.7392
37325SOL     OW29584  11.135   9.854   0.663  0.5639  0.1545  0.1182
37325SOL    HW129585  11.198   9.793   0.623 -2.2614 -1.9561 -1.5461
37325SOL    HW229586  11.061   9.798   0.687 -1.3508  2.6856  0.4454
37326SOL     OW29587   7.358   8.524   1.301 -0.6258  0.1227 -0.0822
37326SOL    HW129588   7.446   8.518   1.264 -1.7677 -2.2787 -2.7715
37326SOL    HW229589   7.356   8.456   1.369 -1.3161 -2.3345 -2.4153
37327SOL     OW29590   6.076   3.039   8.280  0.1231  0.0164 -0.1528
37327SOL    HW129591   6.156   3.086   8.303  0.1228  0.2637 -0.6612
37327SOL    HW229592   6.080   3.027   8.186 -0.3444 -0.1450 -0.1574
37328SOL     OW29593  11.296  13.373  13.337  0.7059  0.1726 -0.1582
37328SOL    HW129594  11.344  13.432  13.279  2.1429 -1.1957 -0.4449
37328SOL    HW229595  11.299  13.416  13.423  0.3287  1.2472 -0.6635
37329SOL     OW29596   2.293   0.062   1.862 -0.2480 -0.3177 -0.2332
37329SOL    HW129597   2.239   0.089   1.936  1.1171  0.0093  0.6776
37329SOL    HW229598   2.344  -0.012   1.895  3.0802  2.0650  0.4656
37330SOL     OW29599   1.906   9.975   0.678 -0.3598  0.9219 -0.1166
37330SOL    HW129600   1.895   9.931   0.594 -1.4976 -0.9034  0.9098
37330SOL    HW229601   1.970  10.044   0.662  0.8857 -0.5995 -2.0198
37331SOL     OW29602  10.525   1.820  10.532  0.1920 -0.2129 -0.1274
37331SOL    HW129603  10.616   1.836  10.505  0.6107  1.0448  1.7759
37331SOL    HW229604  10.489   1.907  10.548 -1.2853 -0.7073 -0.6082
37332SOL     OW29605   9.028  12.328  10.524 -0.3088  0.3042  0.0852
37332SOL    HW129606   8.951  12.321  10.581 -0.0546  1.3803  0.5691
37332SOL    HW229607   8.999  12.383  10.451 -0.2822 -0.1044 -0.2387
37333SOL     OW29608   7.266   6.341  13.155 -0.5109  0.0277  0.6237
37333SOL    HW129609   7.319   6.298  13.087 -1.1878 -0.7173  0.5555
37333SOL    HW229610   7.330   6.393  13.205 -0.0420  0.8327 -0.7501
37334SOL     OW29611  13.113   4.468   7.508 -0.3490  0.1095 -0.2089
37334SOL    HW129612  13.039   4.408   7.497 -1.3773  1.3095 -0.1143
37334SOL    HW229613  13.191   4.414   7.493 -1.2922 -0.8699 -1.8750
37335SOL     OW29614   4.556   1.828   6.689  0.2345  0.4577 -0.6797
37335SOL    HW129615   4.522   1.865   6.770  0.9899  0.0213 -0.1552
37335SOL    HW229616   4.569   1.736   6.708 -2.8296 -0.4878 -2.3418
37336SOL     OW29617   4.482   2.152   3.379  1.0250  0.4687 -0.2076
37336SOL    HW129618   4.387   2.158   3.387  1.0862 -0.0813  1.3151
37336SOL    HW229619   4.512   2.131   3.467  2.3518 -1.7843 -1.1053
37337SOL     OW29620   4.806   4.354   3.768  0.2901  0.5911 -0.0793
37337SOL    HW129621   4.789   4.384   3.857  3.5207 -1.0172  1.2380
37337SOL    HW229622   4.737   4.290   3.750  1.3238 -1.4983  2.6752
37338SOL     OW29623   7.202   2.584   1.267  0.0834  0.4160  0.1727
37338SOL    HW129624   7.107   2.585   1.284  0.1728 -0.4018  0.7951
37338SOL    HW229625   7.225   2.491   1.269  1.1723  0.6777  1.6603
37339SOL     OW29626   7.502  10.100   1.906 -0.2742  0.0858  0.1782
37339SOL    HW129627   7.515  10.191   1.877 -0.8777 -0.0281 -0.4934
37339SOL    HW229628   7.590  10.067   1.921  0.0534  0.3178 -1.0934
37340SOL     OW29629   2.929   5.755  11.565  0.1209  1.3732 -0.1792
37340SOL    HW129630   2.964   5.844  11.574 -0.2338  1.3145  2.1602
37340SOL    HW229631   2.989   5.700  11.615  0.2671  0.2628 -1.4986
37341SOL     OW29632   9.702   1.666  10.444 -0.2395 -0.9400 -0.2347
37341SOL    HW129633   9.710   1.580  10.484  0.2697 -0.2348  1.2358
37341SOL    HW229634   9.745   1.726  10.505 -0.7790  0.4008 -1.1065
37342SOL     OW29635   9.259   3.122   2.700 -0.1927 -0.5212  0.1431
37342SOL    HW129636   9.316   3.048   2.679 -1.1747 -1.1791 -0.2871
37342SOL    HW229637   9.270   3.182   2.626 -0.5038 -0.9366 -0.2551
37343SOL     OW29638   8.903   2.481   9.809  0.2674 -0.9108  0.0856
37343SOL    HW129639   8.983   2.436   9.838  0.9149  0.2160  0.0902
37343SOL    HW229640   8.932   2.568   9.782 -0.5981 -1.2319 -2.1284
37344SOL     OW29641   0.425  12.198  12.511 -0.5290  0.1786  0.3661
37344SOL    HW129642   0.480  12.273  12.486 -1.5086  0.4193 -1.1866
37344SOL    HW229643   0.477  12.151  12.576  1.1629  0.8458 -0.4493
37345SOL     OW29644   3.247   2.984   3.303 -0.3543 -0.0812 -0.1118
37345SOL    HW129645   3.331   3.030   3.310  0.7050 -1.7470 -1.2585
37345SOL    HW229646   3.217   3.002   3.214 -1.5456  0.9682  0.4668
37346SOL     OW29647   4.487   9.553   2.958  0.0395  0.1094 -0.0502
37346SOL    HW129648   4.547   9.623   2.985 -0.1254  0.9720 -1.7962
37346SOL    HW229649   4.446   9.586   2.878 -1.3773 -1.2595  0.0644
37347SOL     OW29650  10.640  11.355   8.449  0.0762 -0.1694 -0.1123
37347SOL    HW129651  10.564  11.354   8.391 -0.1868  0.2209  0.2167
37347SOL    HW229652  10.687  11.274   8.429 -0.2185 -0.2258 -0.5918
37348SOL     OW29653   1.799   2.338   8.998 -0.0581  0.0019 -0.3661
37348SOL    HW129654   1.858   2.404   9.034  0.0303  0.2577 -0.9708
37348SOL    HW229655   1.857   2.275   8.955 -0.0125 -1.2893  1.4340
37349SOL     OW29656   4.184  11.372   7.474  0.1154  0.3473 -0.6251
37349SOL    HW129657   4.230  11.375   7.558 -0.7897  2.6326 -0.1244
37349SOL    HW229658   4.189  11.280   7.447  1.4062 -0.2373  1.3637
37350SOL     OW29659   8.513  12.152  11.378  0.5506 -0.1736 -0.1294
37350SOL    HW129660   8.593  12.105  11.403  0.5558  0.3122  0.8155
37350SOL    HW229661   8.449  12.126  11.444 -0.1621 -0.7917 -1.0574
37351SOL     OW29662  13.562   5.864   0.621 -0.5434  0.2652 -0.1326
37351SOL    HW129663  13.638   5.920   0.610 -2.1357  2.4151 -0.7637
37351SOL    HW229664  13.505   5.912   0.681 -1.5071 -1.2330  0.2228
37352SOL     OW29665  13.707   6.054  10.611  0.2103 -0.4839 -0.0202
37352SOL    HW129666  13.667   6.107  10.541 -0.0855 -1.4769 -0.6182
37352SOL    HW229667  13.684   5.964  10.589  0.8334 -0.8825  0.9102
37353SOL     OW29668   8.894   6.641   2.453 -0.6042  0.8661 -0.5174
37353SOL    HW129669   8.928   6.692   2.379  0.0645  2.8114  1.0395
37353SOL    HW229670   8.815   6.599   2.419 -0.7518  2.3312 -2.1111
37354SOL     OW29671   2.453   1.887   3.068  0.0998 -0.0808  0.3097
37354SOL    HW129672   2.462   1.934   3.150  1.2444 -1.5076  1.0590
37354SOL    HW229673   2.366   1.911   3.036  1.2443  3.9379 -0.3482
37355SOL     OW29674  13.344   4.692   7.816 -0.1312  0.3334  0.2408
37355SOL    HW129675  13.370   4.600   7.813  1.4358  0.7378  0.6687
37355SOL    HW229676  13.361   4.718   7.907 -2.4357  0.5512  0.6740
37356SOL     OW29677   6.413   0.442  11.063 -0.0432  0.1913  0.2300
37356SOL    HW129678   6.446   0.526  11.095  0.3762 -0.6210  2.0219
37356SOL    HW229679   6.368   0.404  11.138 -2.0145 -0.3189 -1.1257
37357SOL     OW29680   3.073   5.100   0.884  0.0826 -0.2105  0.0163
37357SOL    HW129681   3.160   5.132   0.862  0.0234 -0.2916 -0.3362
37357SOL    HW229682   3.013   5.168   0.854  0.1058  0.6581  1.8070
37358SOL     OW29683   3.009   6.600  12.587 -0.3342 -0.3773  0.1427
37358SOL    HW129684   2.932   6.545  12.602 -0.3748 -0.3365  0.0846
37358SOL    HW229685   3.008   6.618  12.493 -0.8282  0.4704  0.2956
37359SOL     OW29686  12.851  11.821   4.573 -0.3550 -0.3263 -0.1969
37359SOL    HW129687  12.921  11.764   4.604 -0.3482 -0.1090  0.1840
37359SOL    HW229688  12.885  11.858   4.491 -0.6277 -1.3842 -0.8076
37360SOL     OW29689  10.959   0.773   6.365  0.1091  0.0923 -0.1858
37360SOL    HW129690  11.040   0.723   6.375  0.6883  1.2672  1.2829
37360SOL    HW229691  10.939   0.768   6.272  0.3874 -2.4499 -0.1948
37361SOL     OW29692   1.494   9.457   7.754  0.3074  0.7089 -0.7648
37361SOL    HW129693   1.475   9.496   7.840  1.0131  0.4561 -0.4873
37361SOL    HW229694   1.408   9.433   7.720  0.1171 -1.3067  0.8964
37362SOL     OW29695   6.825   8.442   7.929  0.0254 -0.0660  0.0040
37362SOL    HW129696   6.811   8.351   7.906 -0.9639  0.2037 -0.5147
37362SOL    HW229697   6.818   8.445   8.025  0.6758 -0.6267  0.0704
37363SOL     OW29698   3.803   1.623  13.822 -0.5663  0.1590  0.3237
37363SOL    HW129699   3.780   1.703  13.869 -1.6236  0.3322 -0.4647
37363SOL    HW229700   3.783   1.552  13.882  0.0900  0.4586  0.9128
37364SOL     OW29701   5.472   4.116   4.841 -0.1736  0.5244 -0.5786
37364SOL    HW129702   5.505   4.076   4.922 -1.3177 -0.2756 -0.4804
37364SOL    HW229703   5.470   4.210   4.860 -0.7588  0.3275  0.4725
37365SOL     OW29704  13.337   1.773  11.498  0.2609 -0.1463 -0.3386
37365SOL    HW129705  13.293   1.823  11.430 -1.3733 -0.1358  0.6726
37365SOL    HW229706  13.399   1.834  11.537 -0.3295  0.5059 -0.4029
37366SOL     OW29707  10.465   3.990   6.311  0.0044 -1.0350  0.4182
37366SOL    HW129708  10.407   4.050   6.263  1.6040  0.5497  0.3387
37366SOL    HW229709  10.451   4.013   6.403  0.0278 -1.0984  0.4373
37367SOL     OW29710  11.366   7.407   6.304  0.2334  0.5902  0.5993
37367SOL    HW129711  11.311   7.329   6.312  0.0665  0.6130 -0.2431
37367SOL    HW229712  11.365   7.446   6.391  0.2792 -0.3192  1.0219
37368SOL     OW29713   5.659  11.561   6.150  0.0874 -0.0735  0.0130
37368SOL    HW129714   5.708  11.505   6.088 -0.3758 -1.6308  1.0022
37368SOL    HW229715   5.695  11.538   6.236  1.6056  2.9634  0.3196
37369SOL     OW29716   0.769   5.311   2.067  0.4427  0.1350  0.0124
37369SOL    HW129717   0.720   5.365   2.129 -0.8489  0.2019 -1.0168
37369SOL    HW229718   0.794   5.234   2.117  0.1389  0.5523  0.8341
37370SOL     OW29719   7.497   7.643   3.985  0.9042  0.5140  0.3032
37370SOL    HW129720   7.443   7.601   4.051  0.0212  0.1345 -0.6350
37370SOL    HW229721   7.576   7.670   4.032  0.8187 -0.8122  1.2586
37371SOL     OW29722   9.154   5.012   3.373  0.0112  0.0050 -0.3473
37371SOL    HW129723   9.098   5.090   3.366  0.6282  0.4416 -0.5345
37371SOL    HW229724   9.138   4.979   3.461  2.1664  2.2788  1.0415
37372SOL     OW29725  10.738  13.245   9.913 -0.0361 -0.1574  0.0231
37372SOL    HW129726  10.751  13.209  10.000  1.0050  0.0281 -0.0406
37372SOL    HW229727  10.822  13.286   9.891 -1.5981  3.8581  0.7741
37373SOL     OW29728  10.283  10.580   9.352  0.5539  0.7755  0.0180
37373SOL    HW129729  10.256  10.488   9.356  0.8469  0.7189  1.1834
37373SOL    HW229730  10.217  10.626   9.404  0.4094  1.2324 -0.5611
37374SOL     OW29731  13.686   6.133   2.332 -0.0050 -0.2853 -0.2678
37374SOL    HW129732  13.776   6.151   2.359 -0.0778  1.8284 -1.2676
37374SOL    HW229733  13.638   6.213   2.354 -1.4237 -0.9855 -0.7027
37375SOL     OW29734  10.235  13.987  12.754 -0.1445 -0.5345 -0.3021
37375SOL    HW129735  10.246  13.902  12.797 -0.4339 -0.3003  0.2430
37375SOL    HW229736  10.324  14.022  12.746 -0.2029  0.3731  2.0757
37376SOL     OW29737   5.178   4.354   7.189 -0.5842  0.0627  0.4893
37376SOL    HW129738   5.111   4.288   7.210 -0.0476 -0.1967  1.4613
37376SOL    HW229739   5.234   4.311   7.124 -0.6149 -0.2006  0.6333
37377SOL     OW29740  11.032   5.637  12.325 -0.1495 -0.1852  0.1645
37377SOL    HW129741  11.030   5.729  12.352 -0.0167  0.2236 -1.1399
37377SOL    HW229742  10.973   5.592  12.385 -1.0419  0.9391  0.1458
37378SOL     OW29743  11.796   1.359   0.348 -0.2519 -0.4172 -0.2725
37378SOL    HW129744  11.729   1.420   0.382 -0.4402 -1.2188  0.8595
37378SOL    HW229745  11.775   1.351   0.255  1.2756  3.1684 -1.1123
37379SOL     OW29746   5.823   2.797   3.979  0.1687  0.3362  0.1014
37379SOL    HW129747   5.855   2.714   4.015 -0.2324  0.1769  0.0928
37379SOL    HW229748   5.729   2.784   3.969 -0.1854  1.3549  1.6470
37380SOL     OW29749  12.017  11.323   7.791  0.4644  0.1571  0.3203
37380SOL    HW129750  12.047  11.305   7.702 -0.2944 -0.4352  0.1688
37380SOL    HW229751  11.933  11.368   7.779 -0.9885 -2.2383  0.6760
37381SOL     OW29752   4.976   5.992   2.556 -0.0795 -0.1079 -0.0146
37381SOL    HW129753   4.958   5.980   2.463  0.4895 -1.7209  0.0497
37381SOL    HW229754   4.919   5.929   2.600  0.4577 -0.1426  0.6488
37382SOL     OW29755   6.382   3.501  13.808  0.4860  0.3590 -0.6647
37382SOL    HW129756   6.458   3.502  13.749 -0.6269 -0.8870 -2.2004
37382SOL    HW229757   6.311   3.539  13.756 -0.1337  0.7887  0.4741
37383SOL     OW29758   7.229  12.009   9.939  0.4552 -0.2236  0.3111
37383SOL    HW129759   7.263  12.092   9.973 -1.3617  0.8327 -0.3480
37383SOL    HW229760   7.300  11.975   9.884  0.7841  1.4910 -0.3735
37384SOL     OW29761   3.388  10.789   4.547 -0.1722  0.8784  0.1996
37384SOL    HW129762   3.455  10.747   4.602 -0.2315  0.1442 -0.2743
37384SOL    HW229763   3.436  10.854   4.496 -0.0010  1.0786  0.6078
37385SOL     OW29764  11.584   6.145   0.732 -0.2320 -0.2062 -0.3463
37385SOL    HW129765  11.605   6.207   0.662 -2.5178  0.8926 -0.1504
37385SOL    HW229766  11.489   6.136   0.728 -0.2022 -1.7595  1.2843
37386SOL     OW29767   9.384   3.327   4.710 -0.2862 -0.2803  0.4279
37386SOL    HW129768   9.392   3.233   4.722  0.5511 -0.4450 -1.1254
37386SOL    HW229769   9.293   3.346   4.732 -0.8029 -1.6617 -0.3568
37387SOL     OW29770  11.614   8.000   3.092 -0.1534 -0.3298 -0.3212
37387SOL    HW129771  11.706   8.008   3.118 -0.2130 -0.9019  0.0670
37387SOL    HW229772  11.565   8.020   3.171 -0.3911  0.6785 -0.6994
37388SOL     OW29773  11.588   5.229   3.602  0.6254  0.2778 -0.1253
37388SOL    HW129774  11.575   5.250   3.695  0.8101 -0.8544  0.1642
37388SOL    HW229775  11.573   5.135   3.596  1.0160  0.2719 -1.1713
37389SOL     OW29776   8.809   7.931  13.454  0.7059  0.5997 -0.0287
37389SOL    HW129777   8.781   7.857  13.507  0.2055  1.0017  0.2832
37389SOL    HW229778   8.870   7.894  13.390 -1.8373 -0.6492 -1.9082
37390SOL     OW29779  12.597   1.631   3.266  0.3928  0.2849  0.2419
37390SOL    HW129780  12.504   1.632   3.287 -0.3269 -1.7121 -2.2324
37390SOL    HW229781  12.613   1.715   3.224 -0.4618  0.4222  0.1776
37391SOL     OW29782   6.984  10.609   7.266 -0.1719  0.3880 -0.1443
37391SOL    HW129783   7.019  10.582   7.182 -0.6957  0.1468 -0.2887
37391SOL    HW229784   6.891  10.622   7.251 -0.4287 -0.4744  0.5845
37392SOL     OW29785   8.190  10.178   6.187 -0.3717 -0.3679  0.0618
37392SOL    HW129786   8.281  10.175   6.216 -0.2360 -2.7545 -0.4080
37392SOL    HW229787   8.139  10.180   6.267  0.0913 -1.1322  0.3888
37393SOL     OW29788   4.463   2.112   9.894 -0.6458 -0.1574  0.9725
37393SOL    HW129789   4.497   2.166   9.822  1.1856 -0.8515  1.2614
37393SOL    HW229790   4.451   2.026   9.855  0.8288 -0.6641  1.5781
37394SOL     OW29791   4.607   6.474   1.584 -0.2764  0.3848 -0.3949
37394SOL    HW129792   4.530   6.425   1.556  1.3302 -1.5111 -1.7474
37394SOL    HW229793   4.634   6.431   1.665  0.5104 -0.3214 -1.0132
37395SOL     OW29794  12.384   8.103   0.157  0.3435  0.6843  0.4522
37395SOL    HW129795  12.423   8.141   0.236  1.6221  0.4810 -0.0630
37395SOL    HW229796  12.400   8.168   0.088  2.5359 -0.6931 -0.4363
37396SOL     OW29797   4.119   5.399   9.623 -0.3286 -0.2092  0.4581
37396SOL    HW129798   4.098   5.322   9.571 -3.2212  0.6455  0.1586
37396SOL    HW229799   4.067   5.388   9.703 -0.2212  1.0784  0.7255
37397SOL     OW29800   9.773  10.321   6.052  0.0445 -0.7477  0.2489
37397SOL    HW129801   9.706  10.275   6.103 -1.1129 -0.8194 -1.2520
37397SOL    HW229802   9.752  10.300   5.961 -0.2457  2.3346 -0.5013
37398SOL     OW29803   8.478   0.239   9.719  0.2499  0.1606  0.1221
37398SOL    HW129804   8.439   0.317   9.758  0.5296  0.4652 -0.2065
37398SOL    HW229805   8.551   0.217   9.777  0.9813  0.9080 -0.4877
37399SOL     OW29806  13.371   6.155   1.407  0.1717  0.5695 -0.5002
37399SOL    HW129807  13.383   6.174   1.500 -1.4457  0.9667 -0.3390
37399SOL    HW229808  13.402   6.066   1.396 -1.7501 -0.3594  0.9602
37400SOL     OW29809  12.967   8.200  13.236 -0.0406  0.1130 -0.0851
37400SOL    HW129810  13.053   8.228  13.267  0.8625 -2.8742  0.3726
37400SOL    HW229811  12.911   8.202  13.313 -0.8669  3.2809 -0.6118
37401SOL     OW29812  10.795  13.054   5.390  0.1487 -0.5922 -0.4209
37401SOL    HW129813  10.869  13.076   5.447  0.3543 -0.5481 -0.6997
37401SOL    HW229814  10.717  13.078   5.440  0.3408 -0.0304 -0.3823
37402SOL     OW29815  10.993   4.288  10.618 -0.3462  0.1729 -0.9145
37402SOL    HW129816  10.927   4.260  10.681  1.5416 -1.7897  0.3084
37402SOL    HW229817  11.037   4.361  10.660 -1.1805  1.0014 -1.4211
37403SOL     OW29818   6.222   6.049   5.280  0.2200  0.6137 -0.0683
37403SOL    HW129819   6.217   6.144   5.294 -0.3241  0.5098  0.4792
37403SOL    HW229820   6.157   6.012   5.340  0.4208 -0.1088 -0.2821
37404SOL     OW29821   9.312   7.266   1.280  0.0303 -0.2513  0.0539
37404SOL    HW129822   9.354   7.351   1.271  1.2289 -0.8683 -0.4603
37404SOL    HW229823   9.231   7.283   1.328  0.4686  1.1030  0.3376
37405SOL     OW29824   9.385   5.746   5.865 -0.3122  0.1707  0.0173
37405SOL    HW129825   9.372   5.669   5.809  2.2891 -0.7900  0.5949
37405SOL    HW229826   9.367   5.820   5.807 -1.2902 -0.8312 -1.0164
37406SOL     OW29827   5.037  12.962   3.537 -0.6112  0.0697 -0.4382
37406SOL    HW129828   4.984  13.012   3.598  1.1847 -0.4369  1.6428
37406SOL    HW229829   5.012  12.996   3.451 -1.8371  2.1630  0.6659
37407SOL     OW29830   4.259   0.303   7.276 -0.4168  0.2272  0.5708
37407SOL    HW129831   4.223   0.359   7.344 -0.3602  0.5467  0.3386
37407SOL    HW229832   4.182   0.266   7.232 -0.4518 -0.6403  1.3469
37408SOL     OW29833   4.088  10.697   6.038  0.5103 -0.8367  0.1915
37408SOL    HW129834   4.156  10.743   6.087 -0.4654  0.3829  0.4205
37408SOL    HW229835   4.130  10.675   5.954  1.4038 -0.7337  0.5988
37409SOL     OW29836   2.866   6.491   3.410  0.2902  0.8634 -0.3505
37409SOL    HW129837   2.913   6.415   3.376 -0.8532  0.2232 -0.5781
37409SOL    HW229838   2.787   6.496   3.355 -0.5800  1.0517  0.8850
37410SOL     OW29839  12.212   1.745   5.571  0.5397 -0.2158  0.4183
37410SOL    HW129840  12.155   1.687   5.621  0.3763  0.5487  1.1420
37410SOL    HW229841  12.153   1.794   5.514  0.6191 -0.3586  0.2113
37411SOL     OW29842  13.744   8.491  10.171 -0.2473 -0.8574  0.0969
37411SOL    HW129843  13.815   8.555  10.172 -0.2798 -0.8241  0.8338
37411SOL    HW229844  13.765   8.432  10.098  0.0029 -0.2606 -0.3200
37412SOL     OW29845   0.197   6.133  12.278 -0.1223 -0.0442 -0.2020
37412SOL    HW129846   0.235   6.219  12.259 -1.1815  0.8041  1.3067
37412SOL    HW229847   0.246   6.103  12.355 -0.6942 -0.1416  0.1260
37413SOL     OW29848   6.700  13.457   8.711  0.4801  0.6145 -0.3875
37413SOL    HW129849   6.694  13.440   8.805 -0.4610  0.4822 -0.4558
37413SOL    HW229850   6.788  13.430   8.686  0.0471 -1.3850  0.0665
37414SOL     OW29851   5.225  13.911   9.808 -0.4440  0.1107  0.3565
37414SOL    HW129852   5.203  13.862   9.729  0.1794  0.9003 -0.3302
37414SOL    HW229853   5.143  13.917   9.856 -1.3018  1.2906 -1.1784
37415SOL     OW29854   0.629   8.215  13.195 -0.4303  0.1323  0.3853
37415SOL    HW129855   0.652   8.148  13.260 -0.2325 -0.3120 -0.1302
37415SOL    HW229856   0.580   8.167  13.128 -0.2703  0.5028 -0.0025
37416SOL     OW29857  13.325   1.083   8.617  0.3222 -0.3572  0.8117
37416SOL    HW129858  13.279   1.049   8.540  0.0361  1.8371 -0.0704
37416SOL    HW229859  13.416   1.090   8.589  0.4938 -0.9222  1.2001
37417SOL     OW29860  10.439   0.071   4.691 -0.0490  0.6447 -0.1575
37417SOL    HW129861  10.459   0.082   4.598 -2.3609  0.5249 -0.7156
37417SOL    HW229862  10.444  -0.024   4.706 -1.0307  0.5274 -0.5163
37418SOL     OW29863  11.745   1.688   4.306  0.3973 -0.3094 -0.2245
37418SOL    HW129864  11.741   1.663   4.399  0.7546 -1.2613 -0.4511
37418SOL    HW229865  11.823   1.743   4.300  0.3709 -0.2409  0.0442
37419SOL     OW29866  13.961   7.661   3.077  0.0550  0.3665 -0.5246
37419SOL    HW129867  13.970   7.647   3.171 -1.3724  0.1851 -0.4024
37419SOL    HW229868  13.895   7.598   3.049  0.0201  0.8294 -1.5430
37420SOL     OW29869   7.687   2.051   2.233  0.4347 -0.0063  0.0868
37420SOL    HW129870   7.714   2.089   2.149 -1.1099 -0.7422 -0.7937
37420SOL    HW229871   7.592   2.049   2.228  0.2485  0.9460  2.3478
37421SOL     OW29872   2.482   1.822   1.956 -0.1355 -0.0225  0.6907
37421SOL    HW129873   2.493   1.896   1.896  0.8401 -0.6062  0.1229
37421SOL    HW229874   2.557   1.827   2.016  0.1618 -0.7565  0.4004
37422SOL     OW29875   9.928  10.385  10.222 -0.2096  0.3816  0.4566
37422SOL    HW129876   9.853  10.368  10.166 -0.0657 -0.9698  0.6468
37422SOL    HW229877   9.892  10.439  10.293 -0.7698  0.6007  0.0174
37423SOL     OW29878   2.137  12.031  12.806  0.3881 -0.2704 -0.2690
37423SOL    HW129879   2.092  12.019  12.723  0.0436  0.3488 -0.1701
37423SOL    HW229880   2.071  12.012  12.873  0.3649  0.2849 -0.1285
37424SOL     OW29881   5.876   4.680   5.895 -0.0027 -0.7892  0.4304
37424SOL    HW129882   5.869   4.703   5.802  2.0420  1.0396  0.6416
37424SOL    HW229883   5.809   4.733   5.938  0.3281 -0.1657  0.1909
37425SOL     OW29884   0.342  10.882   4.214  0.2879  0.1481  0.0056
37425SOL    HW129885   0.376  10.935   4.141 -1.2371  0.4641 -0.5270
37425SOL    HW229886   0.334  10.794   4.178 -0.3603  0.2808 -0.1858
37426SOL     OW29887   5.117   9.715   3.338  0.5201  0.1243  0.4744
37426SOL    HW129888   5.199   9.707   3.386 -0.0360 -0.6466  1.3209
37426SOL    HW229889   5.080   9.799   3.368  2.9470  2.7785 -3.0802
37427SOL     OW29890   7.834   0.506  11.212  0.1492  0.4331  0.1944
37427SOL    HW129891   7.862   0.597  11.221 -0.1496  0.5202  0.2585
37427SOL    HW229892   7.776   0.506  11.136 -0.6266  0.4831  0.7739
37428SOL     OW29893  11.241   3.978   7.423 -0.5151  0.2720  0.4613
37428SOL    HW129894  11.256   4.060   7.377  2.0996  0.3191  1.2228
37428SOL    HW229895  11.158   3.945   7.388 -0.7010  2.3036 -1.1910
37429SOL     OW29896   5.375   7.364   2.119  0.5452  0.7974  0.0103
37429SOL    HW129897   5.424   7.422   2.178  2.0119 -0.2471 -0.1064
37429SOL    HW229898   5.345   7.293   2.175  0.4103  0.7049 -0.1800
37430SOL     OW29899  10.688   5.922   1.606 -0.2229 -0.0453  0.1238
37430SOL    HW129900  10.624   5.973   1.556 -0.0508  0.7985  0.7447
37430SOL    HW229901  10.636   5.853   1.648 -0.2287 -1.4449 -2.0252
37431SOL     OW29902   8.862   3.422   4.929  0.3199  0.1520  0.3975
37431SOL    HW129903   8.778   3.467   4.914  0.5514  0.2208 -0.7545
37431SOL    HW229904   8.877   3.371   4.849  1.9169  1.0042  0.1190
37432SOL     OW29905   1.883   9.450  11.624  0.0306  0.7017  0.3277
37432SOL    HW129906   1.875   9.368  11.577  0.9792  0.8741 -0.1429
37432SOL    HW229907   1.812   9.505  11.589  0.9269  0.9565 -1.1905
37433SOL     OW29908  11.958   1.330   2.515  0.1265 -0.1264  0.3097
37433SOL    HW129909  11.942   1.393   2.445  3.6457 -0.1951 -0.7068
37433SOL    HW229910  11.896   1.259   2.498 -2.0466  1.7398 -0.1140
37434SOL     OW29911  12.136  12.940   0.174 -0.3434  0.2802 -0.0932
37434SOL    HW129912  12.209  12.973   0.123 -0.1086  2.0728  1.3329
37434SOL    HW229913  12.128  12.848   0.147  3.0203 -0.2698  0.3813
37435SOL     OW29914   2.347  13.622   9.932  0.3126  0.1785  0.2196
37435SOL    HW129915   2.415  13.645   9.996  0.1137  0.6327  0.2684
37435SOL    HW229916   2.384  13.648   9.848  0.8098 -0.9349  0.0745
37436SOL     OW29917   3.411   7.802   5.877 -0.0604 -0.1648  0.6602
37436SOL    HW129918   3.492   7.837   5.915 -0.1644  3.2752 -1.7245
37436SOL    HW229919   3.441   7.742   5.809  0.7484  2.0373 -1.0831
37437SOL     OW29920  14.017   0.007   4.879 -0.9112  0.4067  0.3481
37437SOL    HW129921  14.077   0.078   4.854 -0.4832  0.8071  2.3548
37437SOL    HW229922  13.980  -0.024   4.796  2.1381  0.0509 -0.9837
37438SOL     OW29923   2.700   9.294   9.916 -0.2902  0.4198 -0.3743
37438SOL    HW129924   2.609   9.317   9.938 -0.8683 -0.9530 -1.1493
37438SOL    HW229925   2.709   9.203   9.946  0.8737  0.5727 -0.2202
37439SOL     OW29926   6.534  12.251   1.996  0.1882  0.3601  0.0014
37439SOL    HW129927   6.561  12.229   1.907 -0.0567 -0.3267  0.0907
37439SOL    HW229928   6.569  12.180   2.050  1.1500  1.2477  0.6015
37440SOL     OW29929  12.688   3.724   9.562  0.4261  0.4141  0.3421
37440SOL    HW129930  12.701   3.658   9.495  0.5652  0.5389  0.2439
37440SOL    HW229931  12.605   3.767   9.539 -0.5070 -0.7882  1.3142
37441SOL     OW29932  12.759   7.670   4.783 -0.2086  0.1328 -0.0061
37441SOL    HW129933  12.772   7.582   4.748 -0.2492 -0.3418  1.1393
37441SOL    HW229934  12.747   7.657   4.877  0.9898  1.4517  0.3664
37442SOL     OW29935   8.127   2.039   6.124 -0.3333 -0.1794  0.2967
37442SOL    HW129936   8.203   2.097   6.132 -0.1070 -0.2537 -1.0637
37442SOL    HW229937   8.137   1.999   6.037  0.4936 -3.6326  1.7902
37443SOL     OW29938   9.205   5.488   2.516  0.5106  1.0084  0.2156
37443SOL    HW129939   9.297   5.514   2.514  0.8550  0.1162  2.1457
37443SOL    HW229940   9.166   5.542   2.585  0.3084 -0.6236  1.4422
37444SOL     OW29941   5.203   9.713   2.294 -0.3880 -0.7342 -0.6446
37444SOL    HW129942   5.118   9.670   2.294 -0.5027 -0.7949  2.9071
37444SOL    HW229943   5.185   9.803   2.319  0.5714 -0.8673  0.6285
37445SOL     OW29944  11.389   8.772   2.214 -0.3724  0.1740 -0.2060
37445SOL    HW129945  11.415   8.681   2.199  2.0995  1.0711 -2.0856
37445SOL    HW229946  11.391   8.812   2.127 -0.6742  2.2039  0.6701
37446SOL     OW29947   5.703  13.618   8.038 -0.4503 -0.1463 -0.0601
37446SOL    HW129948   5.753  13.678   7.983  0.3294 -1.4400 -0.8194
37446SOL    HW229949   5.614  13.623   8.004 -0.2653  0.1385 -0.5075
37447SOL     OW29950   2.891  10.473   3.920 -0.3398 -0.1615 -0.3012
37447SOL    HW129951   2.942  10.530   3.978  1.3402  0.8429 -2.5963
37447SOL    HW229952   2.846  10.534   3.862 -2.5585 -1.1157  0.3309
37448SOL     OW29953   8.490   0.827   3.909 -0.1311 -0.0863 -1.0571
37448SOL    HW129954   8.457   0.900   3.962  1.7270  0.7642 -0.9940
37448SOL    HW229955   8.530   0.868   3.833  2.1804 -0.8921 -0.3575
37449SOL     OW29956   5.332   8.064   0.045  0.2593  0.0655 -0.5284
37449SOL    HW129957   5.330   8.129  -0.025 -0.3927  0.3999 -0.2070
37449SOL    HW229958   5.243   8.064   0.080  0.4986 -0.3309  0.0885
37450SOL     OW29959   5.492   2.928   2.429 -0.3317 -0.1537 -0.3237
37450SOL    HW129960   5.519   2.846   2.387  0.4406  0.0887 -0.3158
37450SOL    HW229961   5.410   2.950   2.386 -0.9256 -1.3082  0.1791
37451SOL     OW29962   6.181  12.664   1.697 -0.3666 -0.2622  0.0616
37451SOL    HW129963   6.171  12.585   1.643 -1.8535  0.4420 -0.7492
37451SOL    HW229964   6.237  12.636   1.770 -0.3492 -1.8980 -0.5374
37452SOL     OW29965   3.459   4.666   7.722 -0.7225  0.3309 -0.1205
37452SOL    HW129966   3.552   4.649   7.707 -1.0422 -1.0296 -0.7955
37452SOL    HW229967   3.435   4.729   7.654 -0.7119 -0.8731 -1.2888
37453SOL     OW29968   0.021  12.898  11.796  0.1379 -0.1815 -0.7986
37453SOL    HW129969   0.002  12.814  11.753  3.3327 -0.7441 -1.3523
37453SOL    HW229970   0.103  12.927  11.756  1.3319  1.1118  2.3509
37454SOL     OW29971   8.859   4.318   1.605  0.2116  0.2574  0.0929
37454SOL    HW129972   8.929   4.374   1.571  1.5466 -0.8087  0.9886
37454SOL    HW229973   8.826   4.366   1.682  0.9527  0.0987  0.5165
37455SOL     OW29974   5.877   2.404  13.244  0.2551  0.1765  0.0839
37455SOL    HW129975   5.960   2.429  13.202 -0.3342  0.5951 -0.8659
37455SOL    HW229976   5.857   2.318  13.209 -0.6628  0.8757 -1.2015
37456SOL     OW29977   1.700   4.242   9.388 -0.0868 -0.3958  1.0232
37456SOL    HW129978   1.724   4.333   9.403  2.2166 -0.8779  0.5633
37456SOL    HW229979   1.648   4.243   9.307 -0.3268  0.5133  1.1828
37457SOL     OW29980  13.490   1.101  12.254  0.7406  0.2671 -0.8915
37457SOL    HW129981  13.577   1.124  12.221  1.5754 -1.7437 -0.2238
37457SOL    HW229982  13.473   1.013  12.219 -1.3267  0.8386 -1.5131
37458SOL     OW29983   2.533   5.332   2.772 -0.4008 -0.4430 -0.2407
37458SOL    HW129984   2.607   5.287   2.814  0.3852  1.2639  0.2715
37458SOL    HW229985   2.547   5.317   2.679  0.6889 -0.0261 -0.1639
37459SOL     OW29986   6.559   0.422  10.742  0.4526  0.3966 -0.4940
37459SOL    HW129987   6.626   0.458  10.683 -0.1047  0.7624 -0.9173
37459SOL    HW229988   6.494   0.492  10.750  0.8614  0.6315  1.1523
37460SOL     OW29989   9.881   5.683   0.618 -0.0343 -0.4526  0.2527
37460SOL    HW129990   9.904   5.599   0.656 -1.1793 -0.6854  0.4630
37460SOL    HW229991   9.937   5.691   0.540 -1.0188 -2.1331 -0.6659
37461SOL     OW29992  10.687   8.662   0.079  0.1721 -0.0921 -0.0690
37461SOL    HW129993  10.598   8.693   0.061  0.2489  0.5393  0.5799
37461SOL    HW229994  10.734   8.673  -0.004 -0.5470 -1.1595 -0.6354
37462SOL     OW29995   5.738   9.682   4.512 -0.2916 -0.2976  0.8091
37462SOL    HW129996   5.738   9.719   4.424  1.0062  1.1899  1.4009
37462SOL    HW229997   5.647   9.691   4.542 -0.3848  0.7316  0.2529
37463SOL     OW29998   4.951  13.096   9.940 -0.7606  0.3514 -0.1931
37463SOL    HW129999   4.985  13.176   9.900 -1.0293  0.8496  0.5515
37463SOL    HW230000   4.931  13.038   9.866  2.6687 -0.4199 -0.6841
37464SOL     OW30001   8.069  10.830   1.057  0.4351 -0.0783  0.6942
37464SOL    HW130002   8.155  10.847   1.017  0.4927  3.0727  1.8710
37464SOL    HW230003   8.007  10.840   0.985  0.8898 -0.3172  0.2593
37465SOL     OW30004  12.720   8.545  12.546 -0.1645 -0.3150 -0.3107
37465SOL    HW130005  12.641   8.493  12.533 -0.7198  0.4601 -0.1187
37465SOL    HW230006  12.689   8.625  12.588  0.5673  0.5004 -1.2870
37466SOL     OW30007  13.263  10.302   4.662 -0.4563 -0.4888  0.9831
37466SOL    HW130008  13.320  10.378   4.663  0.7525 -1.3479  0.3834
37466SOL    HW230009  13.180  10.333   4.626  0.1170  0.4603  0.4674
37467SOL     OW30010  12.383   3.358   2.948 -0.3698  0.2297  0.0458
37467SOL    HW130011  12.329   3.289   2.986 -0.2746  0.7659  1.2255
37467SOL    HW230012  12.326   3.435   2.948  0.2418  0.7016  0.9211
37468SOL     OW30013   6.107   0.200   7.339 -0.2186 -0.1832 -0.2192
37468SOL    HW130014   6.174   0.174   7.276 -0.0167  0.7495 -0.4055
37468SOL    HW230015   6.118   0.140   7.413 -1.8173 -2.7112 -1.8621
37469SOL     OW30016  11.500   4.276   5.890 -0.1376 -0.6199 -0.1756
37469SOL    HW130017  11.456   4.294   5.973  0.0552  0.0713 -0.2213
37469SOL    HW230018  11.506   4.180   5.887 -0.2780 -0.6592  0.5352
37470SOL     OW30019  10.734  11.711   2.740 -0.6951 -0.1176  0.9395
37470SOL    HW130020  10.684  11.757   2.672 -0.6844 -0.8993  0.3824
37470SOL    HW230021  10.710  11.754   2.822  0.2007  1.6431  0.3217
37471SOL     OW30022   6.403   2.086  13.050  0.6294 -0.1199 -0.4835
37471SOL    HW130023   6.418   2.003  13.004  0.2222 -1.8980  2.3393
37471SOL    HW230024   6.324   2.071  13.102  1.0880  1.6922  0.8327
37472SOL     OW30025   5.884   2.544   1.878  0.3208  0.7218  0.3857
37472SOL    HW130026   5.853   2.510   1.794  0.1018 -0.3222  0.8700
37472SOL    HW230027   5.976   2.520   1.882  0.0737 -0.1905  0.8952
37473SOL     OW30028  12.279   9.000  12.286 -0.4360  0.3478 -0.3157
37473SOL    HW130029  12.335   8.945  12.231 -1.1467 -0.4525 -0.2575
37473SOL    HW230030  12.193   8.994  12.246 -0.7354  0.6130  0.2794
37474SOL     OW30031   1.953   7.897  11.436 -0.4106 -0.2185 -0.3884
37474SOL    HW130032   1.923   7.880  11.525  0.2690  1.6829  0.2573
37474SOL    HW230033   1.883   7.864  11.380 -0.5199 -2.1455  0.7784
37475SOL     OW30034   6.593  10.651  12.353 -0.3885 -0.6286  0.0707
37475SOL    HW130035   6.535  10.575  12.363 -0.1535 -0.6566  1.4975
37475SOL    HW230036   6.674  10.614  12.319 -0.7017 -0.8063 -0.5094
37476SOL     OW30037  10.062  13.347   3.161  0.1494 -0.0210  0.4172
37476SOL    HW130038  10.105  13.331   3.077 -0.1656 -1.5901  0.5373
37476SOL    HW230039  10.134  13.355   3.224  0.3364 -0.4550  0.2600
37477SOL     OW30040   6.626  13.593   1.433 -0.8865 -0.1434 -0.0868
37477SOL    HW130041   6.696  13.561   1.489  1.4097 -0.4684 -2.9194
37477SOL    HW230042   6.570  13.517   1.418  0.6053 -1.1115 -1.1297
37478SOL     OW30043   7.527  13.020   3.144 -0.7752 -0.0149  0.1654
37478SOL    HW130044   7.537  12.927   3.163  0.9823 -0.0810 -0.8372
37478SOL    HW230045   7.537  13.027   3.049 -0.9598  1.1979  0.2093
37479SOL     OW30046   0.072   4.633   1.824  0.0634  0.2787  0.6755
37479SOL    HW130047   0.127   4.708   1.801  0.8582 -0.1295  1.1688
37479SOL    HW230048   0.029   4.660   1.905  1.5862 -0.3569  1.7565
37480SOL     OW30049  13.058  14.092  12.797  0.5365  0.1670  0.4896
37480SOL    HW130050  13.152  14.109  12.782  0.9619 -1.4726  1.1289
37480SOL    HW230051  13.031  14.042  12.720  0.5330 -0.5163  0.9238
37481SOL     OW30052   6.818   1.095   6.788 -0.1996  0.1477  0.3575
37481SOL    HW130053   6.838   1.096   6.881  0.4975  0.4443  0.2123
37481SOL    HW230054   6.902   1.080   6.745 -0.3773  0.8089 -0.2558
37482SOL     OW30055  10.932  10.273   7.437 -0.3215  0.3713  0.3288
37482SOL    HW130056  10.877  10.322   7.498 -0.3569  0.4211  0.2578
37482SOL    HW230057  11.000  10.234   7.492  0.4699  1.5536  0.2346
37483SOL     OW30058   9.696   7.780   0.238 -0.3217 -0.0368 -0.0130
37483SOL    HW130059   9.749   7.744   0.167 -1.3208 -2.2023  0.2627
37483SOL    HW230060   9.749   7.769   0.316 -0.3038 -0.1912 -0.0460
37484SOL     OW30061   0.992   2.519   4.678 -0.4444  0.5080 -0.2428
37484SOL    HW130062   0.924   2.561   4.732  0.5698  0.6578  0.9606
37484SOL    HW230063   1.027   2.450   4.734 -1.9642 -1.9682 -2.0999
37485SOL     OW30064   1.923  11.107  10.033 -0.3245 -0.1205  0.3738
37485SOL    HW130065   1.940  11.076  10.122 -1.1486  0.7943  0.8724
37485SOL    HW230066   1.828  11.097  10.023 -0.2443 -0.1548 -0.3811
37486SOL     OW30067  12.615   1.559   2.074 -0.2976  0.4886 -0.4376
37486SOL    HW130068  12.615   1.476   2.122 -0.7889 -0.5319 -2.1149
37486SOL    HW230069  12.612   1.626   2.143  0.4204 -0.8528  0.9713
37487SOL     OW30070   9.403   2.863   3.354 -0.0527  0.8651  0.7375
37487SOL    HW130071   9.403   2.934   3.290 -0.8464  0.6893  0.5334
37487SOL    HW230072   9.416   2.907   3.438 -2.3857  1.5018  0.8457
37488SOL     OW30073   7.752   0.079   4.175  0.3673  0.4437  0.2067
37488SOL    HW130074   7.738   0.128   4.094  0.8251  0.2902  0.0281
37488SOL    HW230075   7.711  -0.006   4.159  0.3846  0.4427  0.1673
37489SOL     OW30076   7.748   3.956   8.266  0.3569 -0.5582 -0.0069
37489SOL    HW130077   7.685   4.026   8.285  0.3940 -0.7849  1.0145
37489SOL    HW230078   7.696   3.875   8.270  0.8450 -0.8369  1.8122
37490SOL     OW30079   0.135   1.958   9.476 -0.3622  0.6186  0.2977
37490SOL    HW130080   0.228   1.981   9.467 -0.1601 -0.5672 -1.0288
37490SOL    HW230081   0.092   2.042   9.494  0.2745  2.3852 -4.6530
37491SOL     OW30082   7.385   2.230   9.946 -0.3886 -0.2747 -0.1767
37491SOL    HW130083   7.457   2.180   9.985 -1.3443 -1.5092  0.0822
37491SOL    HW230084   7.396   2.219   9.852  1.5559  2.1838 -0.3446
37492SOL     OW30085   5.281  10.856   7.693 -0.2315  0.4241  0.3461
37492SOL    HW130086   5.200  10.879   7.646 -1.2987  2.1382  2.7742
37492SOL    HW230087   5.301  10.767   7.664 -2.6522  0.1510 -0.7896
37493SOL     OW30088   2.687  10.833  11.499 -0.2089 -0.3121 -0.1802
37493SOL    HW130089   2.757  10.899  11.489 -0.0390 -0.3822  0.5041
37493SOL    HW230090   2.637  10.863  11.575  0.4500 -1.4809  0.7517
37494SOL     OW30091   5.421   4.334  13.251 -0.4880 -0.0760  0.5977
37494SOL    HW130092   5.491   4.271  13.272 -0.8937 -0.5743  0.4565
37494SOL    HW230093   5.467   4.406  13.207 -0.3711 -1.5079 -1.7670
37495SOL     OW30094  10.275   4.611   8.143 -0.1063  0.0461  0.4727
37495SOL    HW130095  10.238   4.631   8.057 -1.5365  0.0594  1.0756
37495SOL    HW230096  10.370   4.610   8.128 -0.3103  0.4786 -1.0061
37496SOL     OW30097   6.787  13.565  13.841  0.4373 -0.2330 -0.0262
37496SOL    HW130098   6.699  13.530  13.859  0.2574 -0.6041 -1.5091
37496SOL    HW230099   6.836  13.546  13.921 -1.1177  1.0521  1.3161
37497SOL     OW30100   9.412   5.200   3.148  0.4177 -0.7298 -0.6022
37497SOL    HW130101   9.389   5.292   3.136 -1.0483 -1.0444 -0.4900
37497SOL    HW230102   9.493   5.201   3.199 -0.5799  0.4882  1.0594
37498SOL     OW30103  10.110   3.382  11.352  0.2925 -0.9189 -0.0323
37498SOL    HW130104  10.090   3.296  11.388  0.0570 -1.3111 -1.0614
37498SOL    HW230105  10.139   3.365  11.262  0.9423  0.0179 -0.0227
37499SOL     OW30106  11.058   2.227   0.964 -0.4871  0.2478 -0.5148
37499SOL    HW130107  11.036   2.231   1.057  1.7023  1.0130  0.0191
37499SOL    HW230108  11.116   2.151   0.956  0.8989  1.2954 -0.8600
37500SOL     OW30109   9.670  13.454   2.813 -0.9796 -0.3452 -0.3774
37500SOL    HW130110   9.737  13.388   2.832  1.1966  2.0167  0.9671
37500SOL    HW230111   9.697  13.492   2.730 -3.5585 -2.5254 -2.3857
37501SOL     OW30112   9.916   0.116  10.669  0.3123 -0.1939  0.2822
37501SOL    HW130113   9.946   0.205  10.688 -0.6642 -0.1714  1.9236
37501SOL    HW230114   9.996   0.064  10.662  0.9608  0.9961 -1.9870
37502SOL     OW30115   2.025  10.492   1.253  0.2758  0.7279  0.4117
37502SOL    HW130116   2.065  10.554   1.314  0.4674 -0.3458  1.3933
37502SOL    HW230117   2.069  10.409   1.269 -1.3136 -0.1486  0.5153
37503SOL     OW30118   7.234  10.930  11.566  0.1074 -0.4174  0.6997
37503SOL    HW130119   7.262  10.850  11.609  1.8963 -0.3069 -0.1766
37503SOL    HW230120   7.290  10.998  11.602 -0.6407  0.2504  0.6295
37504SOL     OW30121   2.384  10.830   4.247 -0.6865  0.0214  0.0449
37504SOL    HW130122   2.307  10.881   4.222  0.8784  2.6713  0.2359
37504SOL    HW230123   2.349  10.754   4.292 -3.2370  0.0101 -1.7221
37505SOL     OW30124   8.968  12.613   4.205  0.2039  0.3245  0.1532
37505SOL    HW130125   8.905  12.670   4.160 -1.8423  1.6828  4.2141
37505SOL    HW230126   8.942  12.524   4.181 -2.1726  0.9261  0.2487
37506SOL     OW30127   1.133   2.083   5.281 -0.1167  0.4301 -0.0846
37506SOL    HW130128   1.225   2.059   5.282 -0.1780  0.1666 -0.5528
37506SOL    HW230129   1.107   2.083   5.373  0.5004  1.1015  0.1036
37507SOL     OW30130   5.010  12.231  12.382 -0.6017 -0.1114 -0.5022
37507SOL    HW130131   5.086  12.183  12.349  0.3876  1.3313 -0.4055
37507SOL    HW230132   4.972  12.272  12.304 -0.1130  0.7638 -0.2829
37508SOL     OW30133  11.961   5.605   6.516  0.1513 -0.1737  0.4217
37508SOL    HW130134  11.980   5.681   6.570  1.0031  0.0623 -0.1798
37508SOL    HW230135  11.939   5.642   6.430 -0.2819 -0.5728  0.3579
37509SOL     OW30136  11.060   3.045  12.108 -0.1414  0.0260  0.4028
37509SOL    HW130137  11.110   3.031  12.027  1.0281 -1.0244  1.2649
37509SOL    HW230138  10.991   2.978  12.106 -0.0151 -0.1026  0.3379
37510SOL     OW30139   4.731   9.975  11.764 -0.1442 -0.2853 -0.0104
37510SOL    HW130140   4.710   9.952  11.674  0.5226 -0.9652  0.0055
37510SOL    HW230141   4.646  10.000  11.802 -0.6135 -1.1159 -0.4913
37511SOL     OW30142   5.653  13.335   8.061  0.3386 -0.0767 -0.2546
37511SOL    HW130143   5.642  13.429   8.076  1.2484 -0.0963  0.6300
37511SOL    HW230144   5.657  13.297   8.149  1.4024 -0.7654 -0.5805
37512SOL     OW30145   4.131   0.328   4.386 -0.6082 -0.1772 -0.2297
37512SOL    HW130146   4.127   0.252   4.444 -0.6633 -0.2533 -0.3333
37512SOL    HW230147   4.125   0.404   4.445  0.7119 -0.2279  0.0004
37513SOL     OW30148   3.457   4.211   5.752  0.1496 -0.2634 -0.5803
37513SOL    HW130149   3.485   4.119   5.753 -1.6050 -0.8177  0.3136
37513SOL    HW230150   3.437   4.231   5.844  1.4291  1.3419 -0.6025
37514SOL     OW30151   4.564  12.243   4.710 -0.0642  0.3151 -0.7524
37514SOL    HW130152   4.576  12.301   4.635  1.0763  1.0140 -0.0689
37514SOL    HW230153   4.642  12.257   4.764 -1.6610  1.2419  1.5140
37515SOL     OW30154  12.370  10.828   5.794 -0.0767  0.4147 -0.1862
37515SOL    HW130155  12.418  10.870   5.866 -0.0056 -1.9325  1.2632
37515SOL    HW230156  12.433  10.769   5.754 -1.1913 -1.3674  0.5611
37516SOL     OW30157   5.076   2.114  12.257 -0.4879  0.2640  0.5800
37516SOL    HW130158   5.084   2.201  12.217  1.2015 -0.6059 -1.1355
37516SOL    HW230159   5.154   2.105  12.312 -1.3504  0.3159  1.8757
37517SOL     OW30160   3.964  10.916  12.373  0.4129  0.2720  0.3632
37517SOL    HW130161   4.009  10.865  12.441  1.4135  1.5751  0.7133
37517SOL    HW230162   3.889  10.955  12.418  0.7289  0.6458  0.5635
37518SOL     OW30163  12.048   6.087   9.467  0.0870  0.4224  0.4470
37518SOL    HW130164  12.014   6.040   9.391  1.3265  1.3601 -0.7385
37518SOL    HW230165  11.973   6.137   9.499 -0.1441  1.0995 -1.0407
37519SOL     OW30166  10.338   0.260   5.786  0.1315  0.5110 -0.3658
37519SOL    HW130167  10.254   0.296   5.815 -0.1644 -0.6580  0.2842
37519SOL    HW230168  10.397   0.276   5.860  0.1973  0.3865 -0.3910
37520SOL     OW30169   4.382   1.118  12.941  0.4692 -0.1722  0.0508
37520SOL    HW130170   4.293   1.090  12.919  0.4155  0.1783 -0.1987
37520SOL    HW230171   4.423   1.042  12.981 -0.1462 -0.1496  0.7403
37521SOL     OW30172   7.785   5.182   0.317 -0.2066  0.1418 -0.0864
37521SOL    HW130173   7.693   5.191   0.293 -0.3865  0.1406  0.5900
37521SOL    HW230174   7.785   5.175   0.412  0.2818 -2.3496 -0.2018
37522SOL     OW30175   4.422   1.919   1.153 -0.3806  0.3897  0.3266
37522SOL    HW130176   4.371   1.880   1.224  0.8107  0.1823  1.1081
37522SOL    HW230177   4.365   1.987   1.117 -1.1115  0.3356  1.3234
37523SOL     OW30178   0.944  11.330   6.972 -0.0818  0.0139  0.2984
37523SOL    HW130179   0.987  11.411   6.999 -0.6941  0.3377  0.3208
37523SOL    HW230180   1.005  11.261   6.997  1.1874  0.5421 -1.1805
37524SOL     OW30181   9.783   0.773   7.395 -0.0076 -0.3700 -0.3392
37524SOL    HW130182   9.822   0.811   7.317 -0.1688 -0.9500 -0.7064
37524SOL    HW230183   9.825   0.687   7.403  0.6370  0.0256  0.6967
37525SOL     OW30184   1.344  12.306   9.715 -0.2916  0.6157 -0.0741
37525SOL    HW130185   1.319  12.277   9.627 -0.1495  0.9021 -0.2098
37525SOL    HW230186   1.327  12.230   9.771  0.0826  0.2717 -0.4290
37526SOL     OW30187  12.351   0.816   9.671 -0.3886  0.0941 -0.2278
37526SOL    HW130188  12.393   0.898   9.646 -0.6208  0.6355  1.0605
37526SOL    HW230189  12.262   0.823   9.636 -0.7981  0.9602  0.9233
37527SOL     OW30190  12.854   8.613   3.804 -0.5140 -0.4536  0.1622
37527SOL    HW130191  12.896   8.566   3.732 -3.0287 -0.8246 -1.1693
37527SOL    HW230192  12.824   8.695   3.765 -0.8106 -0.1017  1.1037
37528SOL     OW30193  12.180   6.765  13.295 -0.3741  0.2757 -0.1674
37528SOL    HW130194  12.167   6.723  13.210 -0.8840  0.2250 -0.0658
37528SOL    HW230195  12.148   6.854  13.282  1.8166  1.0522 -0.7446
37529SOL     OW30196   9.838   3.864   8.484 -0.1327 -0.6587  0.1744
37529SOL    HW130197   9.897   3.890   8.413 -0.9896  0.6471 -0.0877
37529SOL    HW230198   9.894   3.860   8.561  0.1332  1.7259  0.1692
37530SOL     OW30199   2.862   0.734  11.565  0.1084 -0.6070 -0.2679
37530SOL    HW130200   2.774   0.772  11.558  1.0676  1.4407 -2.8071
37530SOL    HW230201   2.914   0.783  11.502  2.5848 -3.2691 -0.4879
37531SOL     OW30202  13.475   8.545  10.167 -0.1667  0.1964  0.1999
37531SOL    HW130203  13.432   8.532  10.251  0.4331 -0.6914  0.3811
37531SOL    HW230204  13.568   8.550  10.189 -0.0004 -0.1309 -0.4250
37532SOL     OW30205  11.317  11.952   5.792  0.1941 -0.7857 -0.3558
37532SOL    HW130206  11.413  11.952   5.791  0.2726  2.0171 -0.1356
37532SOL    HW230207  11.293  12.025   5.735 -1.7019  0.3416  1.7713
37533SOL     OW30208   5.309   0.554   6.790 -0.4654 -0.0661  0.4488
37533SOL    HW130209   5.312   0.469   6.833  0.4006 -0.2646  0.0130
37533SOL    HW230210   5.278   0.536   6.702  0.3467 -0.0307  0.1460
37534SOL     OW30211   2.506   4.717  11.575  0.0440  0.7674 -0.0650
37534SOL    HW130212   2.464   4.633  11.552 -1.2349  0.9199  1.5748
37534SOL    HW230213   2.600   4.700  11.565 -0.1159 -1.2231  1.2436
37535SOL     OW30214   4.100   1.145   0.173  0.4084  0.6619 -0.1425
37535SOL    HW130215   4.095   1.080   0.102  1.5525  1.5594 -1.0966
37535SOL    HW230216   4.091   1.094   0.253 -0.9602 -0.3843 -0.9177
37536SOL     OW30217   6.786   5.244  13.841  0.2645  0.0096  0.0113
37536SOL    HW130218   6.727   5.311  13.874  1.1625  0.8446 -0.0353
37536SOL    HW230219   6.734   5.195  13.777  0.2221  2.1061 -1.6571
37537SOL     OW30220  11.984   7.866   8.542 -0.0673  1.2231 -0.0841
37537SOL    HW130221  11.988   7.837   8.633 -4.3570 -0.9922 -0.3791
37537SOL    HW230222  12.031   7.799   8.493 -1.2299  0.1681  0.1976
37538SOL     OW30223  10.943   1.802   4.229  0.0068  0.6753  0.6740
37538SOL    HW130224  10.923   1.835   4.141 -0.2533 -1.4378 -0.1163
37538SOL    HW230225  11.039   1.810   4.236  0.1988 -0.3833 -0.3768
37539SOL     OW30226   9.136  10.002   4.889  0.4690  0.3769  0.8079
37539SOL    HW130227   9.129   9.920   4.937  0.6715  1.5351  2.9209
37539SOL    HW230228   9.046  10.034   4.885  0.4913  0.4194  0.6595
37540SOL     OW30229   0.334   5.040  11.598  0.2792 -0.2846 -0.0186
37540SOL    HW130230   0.366   5.105  11.535  0.5743  0.3667  0.7754
37540SOL    HW230231   0.262   5.083  11.643  0.7488 -0.3262  0.8090
37541SOL     OW30232   0.905  11.778   5.444 -0.1103 -0.2569 -0.3031
37541SOL    HW130233   0.986  11.773   5.392  0.5612 -0.5909  0.7296
37541SOL    HW230234   0.838  11.807   5.382  1.1237  1.6572 -0.8303
37542SOL     OW30235   0.802   5.245  12.837  0.5535 -0.0383 -0.4548
37542SOL    HW130236   0.889   5.210  12.818  0.7356 -0.1786  0.5791
37542SOL    HW230237   0.754   5.170  12.872  0.6170  0.4647  0.7686
37543SOL     OW30238   0.119   9.421  11.650 -0.4092 -0.2076  0.3686
37543SOL    HW130239   0.098   9.328  11.637 -1.3395 -0.1704  1.4298
37543SOL    HW230240   0.040   9.458  11.689 -0.6703  1.4063 -1.4936
37544SOL     OW30241  12.621   8.754  12.704  0.0581 -0.3659 -0.2141
37544SOL    HW130242  12.534   8.789  12.726  0.2956 -0.4986  1.0276
37544SOL    HW230243  12.679   8.792  12.770  0.9500 -0.2696 -1.0506
37545SOL     OW30244  13.047   3.178  11.138 -0.1679 -0.1982  0.3978
37545SOL    HW130245  13.090   3.243  11.194 -1.1384  1.3091 -0.5045
37545SOL    HW230246  13.117   3.121  11.108  0.7771  0.6011  1.0362
37546SOL     OW30247   1.543  11.824   5.651  0.5535  0.1863 -0.4308
37546SOL    HW130248   1.638  11.826   5.641  0.4943 -0.0460 -1.1060
37546SOL    HW230249   1.528  11.777   5.734  1.0381  0.8718  0.0498
37547SOL     OW30250  10.072   1.262   8.352 -0.1000  0.2818 -0.3640
37547SOL    HW130251  10.086   1.336   8.411 -0.4665 -1.2079  1.6778
37547SOL    HW230252  10.015   1.297   8.283  1.0273  2.2919 -0.3565
37548SOL     OW30253   7.593   1.860  12.453 -0.3170 -0.6373  0.2262
37548SOL    HW130254   7.551   1.776  12.467 -0.7378 -0.7354 -1.3978
37548SOL    HW230255   7.666   1.841  12.393  1.9903 -0.4398  2.7500
37549SOL     OW30256   0.903   5.506   0.148  0.3058  0.4297 -0.0337
37549SOL    HW130257   0.892   5.411   0.158 -0.1225  0.5161  0.3507
37549SOL    HW230258   0.985   5.515   0.100 -0.5079 -0.1817 -1.6057
37550SOL     OW30259   8.361   0.680   5.647  0.3303 -0.8027 -0.7410
37550SOL    HW130260   8.379   0.774   5.640 -0.1423 -0.6649 -0.1861
37550SOL    HW230261   8.279   0.667   5.600 -0.3901 -0.6703  0.4413
37551SOL     OW30262  13.360   0.367   8.918  0.0812 -0.3920  0.4100
37551SOL    HW130263  13.319   0.431   8.860 -0.2711  0.0454  1.1307
37551SOL    HW230264  13.363   0.410   9.003  0.9285 -0.8868  0.6412
37552SOL     OW30265  11.282   1.970  13.956 -0.5842  0.0194  0.1537
37552SOL    HW130266  11.266   2.063  13.971  0.1876  0.1556  0.1886
37552SOL    HW230267  11.337   1.943  14.030 -0.5030 -0.3726 -0.0474
37553SOL     OW30268   3.146  11.286   8.680  0.0598 -0.1261  0.1267
37553SOL    HW130269   3.156  11.243   8.595 -1.1806  2.3641 -1.3886
37553SOL    HW230270   3.069  11.245   8.719 -2.1497  1.6453 -2.0386
37554SOL     OW30271   1.701   0.500   1.692 -0.5280  0.0675  0.3618
37554SOL    HW130272   1.791   0.471   1.705 -0.1977  0.4773 -0.9005
37554SOL    HW230273   1.665   0.441   1.626 -1.0309  0.2354  0.4765
37555SOL     OW30274   9.236  12.809   7.224  0.3275 -0.3288 -0.1930
37555SOL    HW130275   9.189  12.795   7.305 -0.1562 -0.5594 -0.5116
37555SOL    HW230276   9.322  12.843   7.251 -1.0947  3.3463  0.3089
37556SOL     OW30277  11.948   5.166   6.580  0.0994  0.1169 -0.0250
37556SOL    HW130278  11.890   5.222   6.528 -1.1894 -1.3103 -0.1867
37556SOL    HW230279  11.995   5.227   6.637 -0.3415  1.4671 -1.0511
37557SOL     OW30280   5.636  13.876   4.524 -0.2212 -0.1453 -0.9269
37557SOL    HW130281   5.689  13.902   4.600  0.3577 -1.7413 -0.7654
37557SOL    HW230282   5.695  13.824   4.470 -1.0138 -0.1143 -1.8460
37558SOL     OW30283   8.269   6.351  12.387 -0.0717 -0.1312  0.2154
37558SOL    HW130284   8.316   6.277  12.348 -0.4370  0.4407 -1.3528
37558SOL    HW230285   8.267   6.330  12.481  2.2016 -0.7944  0.1895
37559SOL     OW30286   6.756   1.580  14.010  0.3200 -0.0459 -0.3512
37559SOL    HW130287   6.776   1.637  13.936  3.3181 -1.0432 -0.4421
37559SOL    HW230288   6.738   1.640  14.082 -0.6251  0.9448 -1.3764
37560SOL     OW30289   4.677   0.551  12.799  0.3173 -0.0990  0.0184
37560SOL    HW130290   4.703   0.545  12.707 -1.4799  0.7919 -0.5826
37560SOL    HW230291   4.597   0.499  12.805  0.1705  0.2148  0.9810
37561SOL     OW30292  13.764   3.977  12.560  0.2609 -0.1329  0.1318
37561SOL    HW130293  13.735   4.067  12.569  1.3357  0.1985  0.4090
37561SOL    HW230294  13.806   3.956  12.643  0.4563 -0.7149 -0.1048
37562SOL     OW30295   2.316  13.309  13.425  0.4526 -0.2624  0.9161
37562SOL    HW130296   2.248  13.343  13.366  1.1642 -0.5207 -0.0796
37562SOL    HW230297   2.285  13.332  13.512  0.6746  2.5673  0.3584
37563SOL     OW30298   1.813  10.928   7.174  0.2261 -0.0648 -0.7818
37563SOL    HW130299   1.827  10.905   7.266 -1.3594 -1.1763 -0.7889
37563SOL    HW230300   1.761  11.008   7.177  0.7955  0.3093 -0.7276
37564SOL     OW30301   3.747   5.663   6.619  0.1923  0.5352  0.0883
37564SOL    HW130302   3.754   5.719   6.542 -0.6435 -0.7850 -0.9828
37564SOL    HW230303   3.654   5.664   6.642  0.2676  0.0921  0.4458
37565SOL     OW30304   4.579   1.009   7.061  0.1232 -0.3277  0.7594
37565SOL    HW130305   4.633   0.963   6.997  0.3633  1.0601 -0.0786
37565SOL    HW230306   4.631   1.009   7.141  0.7073 -0.3460  0.3831
37566SOL     OW30307  12.817   6.768   4.496  0.1048 -0.1148  0.1480
37566SOL    HW130308  12.883   6.810   4.441  1.2748 -0.7388  1.0539
37566SOL    HW230309  12.808   6.680   4.459 -0.6220  0.1303 -0.2895
37567SOL     OW30310   4.869  12.719   3.173 -0.0223  0.3097  0.2179
37567SOL    HW130311   4.889  12.751   3.085 -0.6899  0.5346  0.1406
37567SOL    HW230312   4.924  12.641   3.184  0.0918  0.3052 -0.3858
37568SOL     OW30313   4.158  13.657  11.051 -0.5771 -0.5266 -0.2099
37568SOL    HW130314   4.252  13.638  11.060 -0.6832 -1.1045 -0.2795
37568SOL    HW230315   4.155  13.747  11.019  0.0133 -1.0546 -1.8650
37569SOL     OW30316   8.721  11.879   9.150 -0.0473 -0.4138  0.1583
37569SOL    HW130317   8.655  11.947   9.163  1.6335  1.0801  1.3786
37569SOL    HW230318   8.730  11.837   9.236  3.1042  1.9046  1.1489
37570SOL     OW30319  11.793   7.320  11.780 -0.0034  0.1521 -0.0718
37570SOL    HW130320  11.852   7.271  11.838 -0.2442 -1.4728 -1.1328
37570SOL    HW230321  11.713   7.267  11.777  0.0728  0.0912 -2.0011
37571SOL     OW30322   9.249   4.826   9.852  0.0951  0.8650 -0.0208
37571SOL    HW130323   9.162   4.825   9.892  0.7465  0.0682  1.4442
37571SOL    HW230324   9.277   4.734   9.853 -0.0354  0.7075 -2.8190
37572SOL     OW30325   5.398  13.964  11.580 -0.0697 -0.0879 -0.0516
37572SOL    HW130326   5.387  14.005  11.494  3.1686 -2.0629 -1.5767
37572SOL    HW230327   5.364  13.875  11.569 -0.0823 -0.2160  0.9040
37573SOL     OW30328   0.016   9.859   7.140  0.0040  0.2762  0.4664
37573SOL    HW130329  -0.033   9.797   7.086 -0.1121 -1.6045  2.5505
37573SOL    HW230330  -0.028   9.943   7.126 -1.2643 -0.5457 -0.7826
37574SOL     OW30331   7.943  13.524   5.982 -0.2139 -0.4750  0.1606
37574SOL    HW130332   7.992  13.516   5.901  0.6272  0.8489  0.5032
37574SOL    HW230333   7.978  13.455   6.038 -0.7881 -1.3844 -0.5782
37575SOL     OW30334   8.180  11.845   8.935 -0.5865  0.2087  0.3410
37575SOL    HW130335   8.132  11.901   8.873  1.1125 -0.2772 -1.5213
37575SOL    HW230336   8.162  11.756   8.906  2.6961  0.0031 -1.6341
37576SOL     OW30337   6.910   5.994  11.384 -0.1472 -0.4110 -0.0861
37576SOL    HW130338   6.830   5.951  11.416  0.6218 -1.3051  0.6885
37576SOL    HW230339   6.879   6.076  11.347 -1.3211 -0.2273  1.1937
37577SOL     OW30340   2.040   1.189   9.543  0.6904 -0.2402  0.2358
37577SOL    HW130341   2.070   1.274   9.572 -0.4224 -0.0444  0.8598
37577SOL    HW230342   2.113   1.130   9.560  1.0754  0.3927  0.7889
37578SOL     OW30343   3.777  10.727  13.505 -0.6236 -0.4607 -0.1403
37578SOL    HW130344   3.711  10.658  13.514 -1.2778  0.2692  0.9434
37578SOL    HW230345   3.860  10.684  13.521 -0.9322 -1.1866 -0.4394
37579SOL     OW30346   6.154   8.270   0.402 -0.2660  0.5535 -0.2655
37579SOL    HW130347   6.250   8.272   0.397 -0.1723  2.1336  1.2030
37579SOL    HW230348   6.134   8.182   0.434  0.7568  0.4400  0.1121
37580SOL     OW30349  11.220   9.201   2.626  0.0961 -0.1067  0.3495
37580SOL    HW130350  11.138   9.243   2.654  0.2581 -0.2650  1.1030
37580SOL    HW230351  11.197   9.108   2.617  0.0662 -0.0693  0.0481
37581SOL     OW30352  11.801   9.366  12.747 -0.0659  0.2811  0.4617
37581SOL    HW130353  11.748   9.308  12.693  0.3089  0.5650 -0.2226
37581SOL    HW230354  11.804   9.448  12.699  0.3857  0.4954  0.8442
37582SOL     OW30355   5.832   3.889   7.439 -0.0734  0.5761 -0.6346
37582SOL    HW130356   5.903   3.878   7.375 -1.1720  0.9951 -1.9945
37582SOL    HW230357   5.875   3.883   7.524  1.4012 -0.3710 -1.3975
37583SOL     OW30358   5.841  11.351  13.280  0.2104  0.0212  0.3170
37583SOL    HW130359   5.748  11.348  13.300  0.4885  1.3655  2.0084
37583SOL    HW230360   5.864  11.259  13.261 -1.7284 -0.1141 -1.8327
37584SOL     OW30361   2.957   1.038   1.440  0.5952  0.2655 -0.5514
37584SOL    HW130362   2.868   1.033   1.477  0.1776  0.0341 -1.5563
37584SOL    HW230363   3.013   1.001   1.507  0.0907  1.4777  0.5962
37585SOL     OW30364   8.078   1.528   7.793 -0.3775 -0.1449 -0.0867
37585SOL    HW130365   8.148   1.502   7.733  0.4930  1.8952 -0.0328
37585SOL    HW230366   8.097   1.478   7.873 -1.3111 -2.5629 -1.2772
37586SOL     OW30367   9.159   0.479  12.675 -0.0968  0.1212 -0.5788
37586SOL    HW130368   9.203   0.479  12.590  0.2780 -0.3551 -0.3920
37586SOL    HW230369   9.070   0.451  12.657  0.2796 -1.0631 -0.6777
37587SOL     OW30370   6.761   5.972  12.232 -0.2904  0.5052 -0.0945
37587SOL    HW130371   6.805   6.001  12.311  0.5595  0.5958 -0.5877
37587SOL    HW230372   6.669   5.996  12.245 -0.3381 -0.3287  1.2465
37588SOL     OW30373   5.023   9.621   3.103  0.4774 -0.8442  0.0948
37588SOL    HW130374   5.041   9.645   3.194 -0.8158 -1.4608  0.5475
37588SOL    HW230375   5.109   9.609   3.063  1.1402 -3.2693  1.9962
37589SOL     OW30376   5.693   1.952   7.568 -0.3222 -1.1292  0.6243
37589SOL    HW130377   5.774   1.997   7.591  0.3846 -0.2987 -2.8067
37589SOL    HW230378   5.693   1.873   7.622  1.1772  0.3237  2.9192
37590SOL     OW30379  12.991   5.921  11.745  0.4774  0.3738 -0.0496
37590SOL    HW130380  12.952   5.877  11.821  0.3812 -0.7351 -0.7174
37590SOL    HW230381  12.917   5.964  11.702  0.5937  1.3563  0.6855
37591SOL     OW30382  13.418   2.175  12.420 -0.4790  0.5174  0.0132
37591SOL    HW130383  13.331   2.158  12.383 -0.0628 -0.7541 -0.4437
37591SOL    HW230384  13.400   2.221  12.502 -1.5356  1.1233 -0.5435
37592SOL     OW30385  10.059  13.995   4.089 -0.0651 -0.4809  0.1823
37592SOL    HW130386  10.030  14.084   4.108 -0.7713 -0.8026  0.6388
37592SOL    HW230387  10.103  13.966   4.169  0.0854 -0.5682  0.0676
37593SOL     OW30388   1.189  13.777   0.466 -0.3657  0.6190 -0.4591
37593SOL    HW130389   1.138  13.697   0.469 -2.6511  1.9850  2.2572
37593SOL    HW230390   1.140  13.836   0.409 -1.0855  1.4291  0.9421
37594SOL     OW30391   2.186   7.598   0.634 -0.3566 -0.1520  0.6000
37594SOL    HW130392   2.190   7.668   0.699 -0.2765 -1.8446  2.5154
37594SOL    HW230393   2.093   7.595   0.609 -0.4294  0.3713  0.7841
37595SOL     OW30394   5.722   5.186   0.160  0.0831  0.1697  0.4815
37595SOL    HW130395   5.762   5.113   0.113  0.3750  1.3365 -1.1718
37595SOL    HW230396   5.775   5.262   0.136 -0.1596  0.9382  2.2299
37596SOL     OW30397  11.287   0.611   2.711  0.6060 -0.6224  0.7034
37596SOL    HW130398  11.306   0.617   2.804 -1.6699  0.3317  1.1749
37596SOL    HW230399  11.289   0.517   2.692  1.3589 -0.8107  1.6225
37597SOL     OW30400   4.624  10.981   2.493  0.1701  0.1847 -0.3301
37597SOL    HW130401   4.596  10.899   2.533  0.5753  0.3940  0.3998
37597SOL    HW230402   4.665  10.954   2.410  0.1187 -0.3311 -0.1935
37598SOL     OW30403   9.060   8.585   8.902  0.1580  0.0891  0.3769
37598SOL    HW130404   8.978   8.636   8.901 -0.3768 -0.7370 -1.1540
37598SOL    HW230405   9.128   8.650   8.886 -0.4771  0.4192 -1.1924
37599SOL     OW30406   5.161  11.845   6.639  0.0122  0.0012  0.4911
37599SOL    HW130407   5.088  11.867   6.698  0.9391  1.7183  1.0412
37599SOL    HW230408   5.176  11.924   6.589 -0.2872 -1.2178 -1.6297
37600SOL     OW30409  11.528   6.794   1.758  0.5771  0.2658 -0.0347
37600SOL    HW130410  11.479   6.723   1.799  0.2800 -0.1257 -1.0376
37600SOL    HW230411  11.506   6.872   1.809 -0.4111 -0.0666  0.0525
37601SOL     OW30412   1.553   7.460  11.212  0.7008  0.2824 -0.3168
37601SOL    HW130413   1.613   7.461  11.137 -1.6639 -2.2740 -2.4567
37601SOL    HW230414   1.490   7.529  11.192  0.7665  0.4351 -0.0048
37602SOL     OW30415  12.885   3.745   7.804 -0.2835  0.4735  0.6614
37602SOL    HW130416  12.866   3.788   7.887 -2.4008  0.2182  0.3719
37602SOL    HW230417  12.940   3.807   7.757  0.4002  0.9003  1.9815
37603SOL     OW30418   2.429  10.409   9.571 -0.4908  0.5540  0.5687
37603SOL    HW130419   2.423  10.504   9.579  0.9901  0.7281 -0.0866
37603SOL    HW230420   2.523  10.392   9.564 -0.8020 -0.8669 -0.4037
37604SOL     OW30421   0.926   4.619   8.073  0.2254 -0.3048 -0.0272
37604SOL    HW130422   0.833   4.644   8.065  0.8832  2.0392 -1.3141
37604SOL    HW230423   0.971   4.702   8.089  2.1605 -1.3631  0.2090
37605SOL     OW30424   9.980   3.785   6.656 -0.3824  0.0375  0.0098
37605SOL    HW130425  10.063   3.819   6.688  0.7046 -1.3678 -1.1647
37605SOL    HW230426   9.958   3.714   6.716 -0.4376  0.0119 -0.0402
37606SOL     OW30427   3.369   2.472  13.596  0.1971  0.1330 -0.2180
37606SOL    HW130428   3.305   2.496  13.663  0.5139  0.7494 -0.1280
37606SOL    HW230429   3.318   2.426  13.529  0.1257 -1.9445  1.1787
37607SOL     OW30430   9.138   2.342   0.786  0.3637  0.1940 -0.2194
37607SOL    HW130431   9.078   2.308   0.719  1.2363  0.7518 -1.3259
37607SOL    HW230432   9.099   2.426   0.812  1.4762  1.4008 -2.1926
37608SOL     OW30433   5.604   4.607   5.340  0.3203 -0.9094 -0.2515
37608SOL    HW130434   5.681   4.625   5.286  1.9495 -0.6061  2.0117
37608SOL    HW230435   5.598   4.681   5.400 -1.3710 -1.2417  0.0440
37609SOL     OW30436  13.649   1.435  12.299  0.1697  0.2492  0.5945
37609SOL    HW130437  13.679   1.480  12.220 -1.5278 -0.3795 -0.4766
37609SOL    HW230438  13.556   1.419  12.283  0.2869 -1.9600  1.7209
37610SOL     OW30439   1.776   7.765   5.907 -0.2395 -0.3470 -0.0012
37610SOL    HW130440   1.693   7.724   5.881 -1.0614  1.1074  0.2516
37610SOL    HW230441   1.810   7.805   5.826 -0.7461  0.6741  0.2793
37611SOL     OW30442   0.790   2.676   4.813  0.5344 -0.1076 -0.4976
37611SOL    HW130443   0.728   2.603   4.821  0.2943  0.2047  0.7214
37611SOL    HW230444   0.734   2.754   4.808  0.7164 -0.0459 -3.4176
37612SOL     OW30445   4.355   3.243   2.302  0.2667 -0.2351  0.2555
37612SOL    HW130446   4.276   3.274   2.258  0.8855  0.0792 -0.6626
37612SOL    HW230447   4.377   3.313   2.364  1.8169  1.3994 -2.0014
37613SOL     OW30448   7.661   7.711   2.270  0.0395  0.3258  0.2984
37613SOL    HW130449   7.626   7.746   2.352 -1.2176  0.6474 -0.3424
37613SOL    HW230450   7.719   7.779   2.237 -1.5755  1.4194 -0.4156
37614SOL     OW30451  12.329  12.437  11.951  0.3987 -0.0949 -0.8533
37614SOL    HW130452  12.245  12.478  11.971 -0.8169 -3.2389  1.5023
37614SOL    HW230453  12.328  12.426  11.856 -1.9065 -0.0278 -0.9133
37615SOL     OW30454  10.201   4.030   1.367 -0.1856 -0.0214 -0.0574
37615SOL    HW130455  10.269   3.966   1.342  1.1060  1.3188 -0.0994
37615SOL    HW230456  10.121   3.978   1.374  1.0581 -1.8934  1.1956
37616SOL     OW30457   4.478   1.351   8.866  0.2544 -0.2165  0.2898
37616SOL    HW130458   4.465   1.445   8.876  1.3370 -0.0709  0.4527
37616SOL    HW230459   4.456   1.333   8.775  1.3556  0.4412 -0.1224
37617SOL     OW30460  11.974   4.588   4.403  0.5607 -0.4238 -0.0736
37617SOL    HW130461  11.910   4.639   4.452  1.5115 -1.0253  1.8971
37617SOL    HW230462  11.928   4.507   4.381 -0.5915  0.7110 -2.2496
37618SOL     OW30463   5.517   1.826  12.783 -0.0142  0.1869 -0.4476
37618SOL    HW130464   5.553   1.866  12.862  0.8683  0.3886 -0.9409
37618SOL    HW230465   5.423   1.815  12.802 -0.0756  1.4732  0.1063
37619SOL     OW30466   5.438  11.083  11.541  0.3625  0.3415 -0.1136
37619SOL    HW130467   5.520  11.127  11.520 -0.5767  2.2051 -0.0488
37619SOL    HW230468   5.405  11.129  11.619 -0.1477 -1.2037  0.6242
37620SOL     OW30469   5.815   2.341   7.384  0.0332  0.3708  0.5231
37620SOL    HW130470   5.892   2.393   7.364  0.3661 -0.7669 -1.3685
37620SOL    HW230471   5.796   2.360   7.476  0.6334  3.1256  0.1551
37621SOL     OW30472  12.826   2.009  11.006  0.1168  0.1103 -0.3889
37621SOL    HW130473  12.749   1.963  11.039  0.3248 -1.6488 -2.1716
37621SOL    HW230474  12.839   2.080  11.068 -2.6757  0.2198  0.2340
37622SOL     OW30475   8.159  13.374   6.823  0.6195 -0.0966  0.1639
37622SOL    HW130476   8.203  13.355   6.906  0.2469  0.7979  0.5831
37622SOL    HW230477   8.102  13.449   6.843 -1.4723 -1.4938 -0.2211
37623SOL     OW30478   5.231  11.100   0.204  0.1065  0.1024 -0.2905
37623SOL    HW130479   5.234  11.142   0.290 -0.0192  0.7126 -0.5797
37623SOL    HW230480   5.258  11.168   0.143  0.1344 -0.3101 -0.7458
37624SOL     OW30481  12.925  11.607   7.860  0.0998 -0.3394  0.1187
37624SOL    HW130482  12.832  11.626   7.855  0.3511  1.2102  0.8733
37624SOL    HW230483  12.933  11.542   7.930 -0.5271 -1.5190 -0.8670
37625SOL     OW30484   1.684   4.608  11.659 -0.1286  0.3319 -0.2662
37625SOL    HW130485   1.748   4.591  11.729 -0.4437  0.1013 -0.0347
37625SOL    HW230486   1.622   4.669  11.698 -0.9746 -0.7101  0.0477
37626SOL     OW30487   0.163   9.323  10.083  0.5127  0.4247 -0.3694
37626SOL    HW130488   0.255   9.302  10.065  0.1678 -0.9768 -0.6046
37626SOL    HW230489   0.147   9.291  10.171  0.2494  0.7142 -0.3079
37627SOL     OW30490   7.678  13.627   4.992  0.5376  0.2127  0.3610
37627SOL    HW130491   7.725  13.553   4.954  0.9960  1.2679 -1.2035
37627SOL    HW230492   7.613  13.587   5.049  2.2155 -1.3334  1.3102
37628SOL     OW30493   1.812   2.087  12.162  0.0433  0.4867  0.0025
37628SOL    HW130494   1.856   2.170  12.144 -1.0704  0.7690 -1.7424
37628SOL    HW230495   1.789   2.053  12.075 -0.9036 -0.8664  0.7430
37629SOL     OW30496   2.760   7.607   8.627  0.2078 -0.0576  0.2803
37629SOL    HW130497   2.825   7.554   8.581  0.9546  0.6376  0.5050
37629SOL    HW230498   2.778   7.591   8.720 -1.3758 -1.5561  0.3867
37630SOL     OW30499   0.557   1.377   0.591 -0.1263  1.0538 -0.0439
37630SOL    HW130500   0.514   1.297   0.621  0.2155  1.1639  0.7548
37630SOL    HW230501   0.615   1.348   0.521  0.3164  0.5302  0.5317
37631SOL     OW30502   4.857   1.229   6.080 -0.0806 -0.2011 -0.1171
37631SOL    HW130503   4.932   1.203   6.027 -0.5709 -1.9792 -0.0155
37631SOL    HW230504   4.801   1.279   6.020  0.6265  0.1284 -0.5123
37632SOL     OW30505   6.427   0.637  10.792 -0.4056  0.4010  0.2890
37632SOL    HW130506   6.341   0.675  10.810 -0.5081  0.8815 -1.0749
37632SOL    HW230507   6.482   0.665  10.865 -1.4230 -0.0410  1.2608
37633SOL     OW30508   5.302  10.235   0.514 -0.8137 -0.3749 -0.3007
37633SOL    HW130509   5.254  10.307   0.554 -0.1887 -1.2670  2.2298
37633SOL    HW230510   5.252  10.157   0.537  0.6252 -1.1028  0.5303
37634SOL     OW30511   2.312  13.718   2.951 -0.3103 -0.3127 -0.4098
37634SOL    HW130512   2.408  13.728   2.953 -0.3923  0.3214  0.8736
37634SOL    HW230513   2.296  13.637   2.999 -0.4817  0.1943  0.4058
37635SOL     OW30514   1.716   8.198   8.247 -0.1983 -1.0103 -1.0648
37635SOL    HW130515   1.794   8.232   8.203 -0.6423 -0.8941 -1.7716
37635SOL    HW230516   1.715   8.243   8.332  0.2746 -0.7008 -1.2180
37636SOL     OW30517   0.164   0.768   3.149 -0.4428 -0.3239  0.4046
37636SOL    HW130518   0.242   0.713   3.151 -0.0274 -0.0311 -2.7042
37636SOL    HW230519   0.196   0.857   3.164  0.2224  0.0247 -2.4294
37637SOL     OW30520   0.038  12.822   8.891  0.9612 -0.1132  0.2543
37637SOL    HW130521   0.012  12.837   8.982 -2.1445 -2.1279 -0.1625
37637SOL    HW230522  -0.030  12.864   8.839  3.0238  1.5695 -1.2751
37638SOL     OW30523   5.708  11.210  10.908  0.0572  0.9028  0.0727
37638SOL    HW130524   5.628  11.206  10.960  0.9117  1.2807  1.5001
37638SOL    HW230525   5.771  11.254  10.966  1.3936  0.2730 -0.8545
37639SOL     OW30526   5.915   0.576   6.924  0.0235  0.1849  0.6596
37639SOL    HW130527   5.951   0.607   7.008 -1.3621  1.5618  0.7835
37639SOL    HW230528   5.955   0.633   6.859 -0.2843  0.3065  0.5767
37640SOL     OW30529  10.315   3.024   4.147 -0.0329 -0.3747 -0.2576
37640SOL    HW130530  10.361   3.107   4.162 -2.0953  1.6246 -3.6672
37640SOL    HW230531  10.365   2.980   4.079  0.2913 -1.3449  0.5793
37641SOL     OW30532   1.394   3.647   7.889 -0.3746  0.0658 -0.0374
37641SOL    HW130533   1.482   3.641   7.925 -1.5127 -1.7394  2.7959
37641SOL    HW230534   1.352   3.717   7.939 -1.0882 -0.4268  0.0865
37642SOL     OW30535   7.987   9.625  13.963 -0.2368 -0.3057 -0.1979
37642SOL    HW130536   8.055   9.572  13.922  1.8908  0.9757  1.4572
37642SOL    HW230537   8.004   9.715  13.934  0.1066  0.3365  1.8278
37643SOL     OW30538   6.468  11.702   4.260  0.1113  0.0841  0.1342
37643SOL    HW130539   6.428  11.783   4.228  0.7469  0.0537 -0.7943
37643SOL    HW230540   6.445  11.636   4.194 -0.0831 -0.4109  0.6837
37644SOL     OW30541   1.738   6.244   9.967  0.5451  0.3658  0.0463
37644SOL    HW130542   1.644   6.234   9.954  0.3440  1.8426  0.2574
37644SOL    HW230543   1.766   6.300   9.895  0.8338  1.8864  1.2966
37645SOL     OW30544  13.484   4.092  13.220  0.4894 -0.5894 -0.2457
37645SOL    HW130545  13.510   4.109  13.310 -1.6273 -1.0879  0.5291
37645SOL    HW230546  13.503   4.173  13.172  0.2063  0.2425  1.0162
37646SOL     OW30547  13.398  10.370   9.863 -0.0047 -0.4309  0.3142
37646SOL    HW130548  13.312  10.360   9.821 -0.0844 -1.3510  0.6790
37646SOL    HW230549  13.453  10.304   9.821  0.4786  0.0133  0.2353
37647SOL     OW30550  13.224   3.231   5.680  0.4219  0.2882 -0.7042
37647SOL    HW130551  13.243   3.163   5.744 -0.6032  0.2065 -0.4641
37647SOL    HW230552  13.198   3.183   5.601 -1.7257  0.3412 -0.1020
37648SOL     OW30553   8.114   0.691  10.747  0.0580 -0.6387 -0.1046
37648SOL    HW130554   8.064   0.772  10.748  0.7715 -0.1907  0.6047
37648SOL    HW230555   8.051   0.623  10.771 -0.3357 -0.1619  0.2299
37649SOL     OW30556  13.647   2.860  13.016  0.6196  0.9231  0.3153
37649SOL    HW130557  13.696   2.895  13.090  2.3588 -0.1279 -0.2965
37649SOL    HW230558  13.694   2.781  12.990 -0.1558  1.0560 -1.6795
37650SOL     OW30559   6.329   6.909   4.506  0.1357  0.3724  0.0300
37650SOL    HW130560   6.310   6.874   4.593  1.3203  2.0938  1.0324
37650SOL    HW230561   6.423   6.896   4.494  0.5026  2.5530  0.1865
37651SOL     OW30562   0.440   5.757   0.587  0.0020 -0.1920 -0.0666
37651SOL    HW130563   0.504   5.807   0.536 -0.7285  0.4233 -0.4036
37651SOL    HW230564   0.366   5.817   0.597 -0.0506 -0.4553  1.3591
37652SOL     OW30565  11.211   8.359  11.426  0.1294  0.6010 -0.1688
37652SOL    HW130566  11.142   8.355  11.493 -0.1388 -0.3306 -0.4857
37652SOL    HW230567  11.176   8.417  11.359 -0.0280  0.7263  0.0186
37653SOL     OW30568   7.119   6.780   0.080  0.0679 -0.4320 -0.0150
37653SOL    HW130569   7.131   6.870   0.050  0.7583 -0.3427  0.5275
37653SOL    HW230570   7.208   6.745   0.090 -0.1897 -1.2986 -0.5769
37654SOL     OW30571  11.884   5.110   7.079  0.3902  0.1549 -0.3229
37654SOL    HW130572  11.947   5.165   7.032  1.7396 -0.1296  1.0487
37654SOL    HW230573  11.918   5.107   7.169 -0.7159 -1.3298  0.0818
37655SOL     OW30574   2.631   9.705   2.891  0.5119 -0.1767 -0.4336
37655SOL    HW130575   2.628   9.769   2.819  0.7366 -0.6958 -0.9139
37655SOL    HW230576   2.599   9.624   2.852  1.1215 -0.5940 -0.0928
37656SOL     OW30577   2.228   5.883   4.241 -0.4281  0.7858  0.0485
37656SOL    HW130578   2.264   5.948   4.302  1.3600 -1.3407  1.4558
37656SOL    HW230579   2.168   5.831   4.294  0.5433 -0.5985 -0.1333
37657SOL     OW30580  13.401  10.510  13.085 -0.0280  0.3433 -0.0162
37657SOL    HW130581  13.306  10.498  13.087 -0.1913  0.5950 -2.4493
37657SOL    HW230582  13.415  10.603  13.100 -0.1833  0.3462  0.1058
37658SOL     OW30583   9.833  10.356  10.851 -0.1017  0.8625 -0.3333
37658SOL    HW130584   9.793  10.287  10.797  1.0378  1.7620 -2.4239
37658SOL    HW230585   9.813  10.330  10.941 -1.2187 -1.2487 -1.1215
37659SOL     OW30586   0.437   2.742   6.323  0.2772  0.3573  0.1666
37659SOL    HW130587   0.456   2.691   6.244 -0.1554 -0.1228  0.3686
37659SOL    HW230588   0.522   2.754   6.365  0.1934 -1.6287  0.9928
37660SOL     OW30589   1.961   0.187  10.976 -0.4491 -0.6367 -0.4879
37660SOL    HW130590   1.927   0.275  10.992 -2.2769 -1.5088  0.7714
37660SOL    HW230591   2.056   0.199  10.970 -0.5765  1.3038  0.4305
37661SOL     OW30592   0.415   7.363   5.446  0.5051 -0.0396 -0.1304
37661SOL    HW130593   0.500   7.359   5.490 -0.3089 -0.8814  1.4853
37661SOL    HW230594   0.355   7.320   5.507 -1.1655  0.9002 -1.0384
37662SOL     OW30595   8.186   0.243   7.651  0.4762 -0.3949  0.2319
37662SOL    HW130596   8.154   0.165   7.697 -0.8041 -0.1340 -0.1568
37662SOL    HW230597   8.166   0.315   7.711  1.9279 -0.3641  0.7201
37663SOL     OW30598  10.325   4.438   9.293 -0.6523 -0.6173  0.6666
37663SOL    HW130599  10.399   4.452   9.353 -0.2995 -0.5501  0.2169
37663SOL    HW230600  10.338   4.349   9.259 -0.1165 -0.1813 -0.3128
37664SOL     OW30601   1.256  14.072   1.963  0.4030  0.4010  0.0274
37664SOL    HW130602   1.220  14.076   1.874  0.4261 -0.9368 -0.0620
37664SOL    HW230603   1.179  14.073   2.020  0.1580 -1.9900 -0.1497
37665SOL     OW30604   3.066   8.544   8.854 -0.0003 -0.4138  0.0500
37665SOL    HW130605   3.131   8.474   8.850  0.7935  0.3412 -0.7980
37665SOL    HW230606   2.982   8.500   8.844  0.5187 -1.2178 -0.9866
37666SOL     OW30607   6.252   0.828   3.938  0.1067  1.0718  0.2633
37666SOL    HW130608   6.323   0.773   3.905  0.9707  1.3745  1.5417
37666SOL    HW230609   6.213   0.777   4.008  0.4303  1.7680  0.9602
37667SOL     OW30610   0.610   7.847  10.249  0.2171 -0.2488 -0.3440
37667SOL    HW130611   0.584   7.938  10.239  1.2023 -0.0212 -1.0434
37667SOL    HW230612   0.668   7.847  10.326 -2.4981 -0.9250  1.8394
37668SOL     OW30613   4.310  11.279   0.807 -0.1820 -1.0516  0.3576
37668SOL    HW130614   4.391  11.331   0.809 -0.9125  0.1323  2.7485
37668SOL    HW230615   4.272  11.297   0.721 -0.4683  2.6041  1.0930
37669SOL     OW30616   4.036   8.682   5.006  0.2372  0.6911  0.3639
37669SOL    HW130617   4.088   8.624   4.951  0.7513  1.2470  0.2427
37669SOL    HW230618   3.987   8.736   4.944  0.6020  1.1278  0.4455
37670SOL     OW30619   6.198   5.250  12.135  0.6531 -0.2849  0.1226
37670SOL    HW130620   6.121   5.257  12.191 -0.7920  0.3561 -1.8514
37670SOL    HW230621   6.235   5.338  12.132 -0.2549  0.0809 -1.1991
37671SOL     OW30622   5.743  11.262   0.652  0.2787 -0.2216 -0.4506
37671SOL    HW130623   5.662  11.227   0.616  0.0601 -0.8211  0.5652
37671SOL    HW230624   5.725  11.355   0.666  0.0931 -0.1572 -1.0945
37672SOL     OW30625   7.307  10.806  12.947 -0.3729 -0.0235 -0.5652
37672SOL    HW130626   7.308  10.854  12.864  0.3157 -0.0211 -0.5600
37672SOL    HW230627   7.255  10.861  13.006 -0.9096 -0.0519 -1.0057
37673SOL     OW30628  10.703   4.434   2.759  0.0927 -0.0566 -0.6816
37673SOL    HW130629  10.744   4.485   2.829  2.1368  0.5618 -2.2218
37673SOL    HW230630  10.725   4.343   2.779 -1.7012 -0.1948  0.9032
37674SOL     OW30631   2.729  13.814   5.183 -0.2651  0.0397 -0.5584
37674SOL    HW130632   2.724  13.724   5.151  0.1952 -0.5211  0.8494
37674SOL    HW230633   2.790  13.857   5.123  1.1256 -1.1572 -0.0857
37675SOL     OW30634   5.131   5.367   3.900 -0.3282 -0.0046 -0.3097
37675SOL    HW130635   5.172   5.281   3.888  0.7141  0.2146  1.3220
37675SOL    HW230636   5.051   5.363   3.847 -0.6830 -2.2695  0.2870
37676SOL     OW30637   1.380   1.087  11.244 -0.0422  0.5463 -0.1623
37676SOL    HW130638   1.397   1.148  11.172 -2.3265  0.1248 -1.1446
37676SOL    HW230639   1.294   1.112  11.277  0.4946  0.0391  1.7711
37677SOL     OW30640  10.579   4.470   6.700  0.3375  0.1839  0.2519
37677SOL    HW130641  10.587   4.414   6.622 -2.4396 -1.7940  1.2291
37677SOL    HW230642  10.489   4.502   6.697  0.7818  1.7168  1.6657
37678SOL     OW30643   0.429   2.142   0.236  0.3680  0.1760  0.1146
37678SOL    HW130644   0.392   2.196   0.306 -3.0388 -1.3092 -0.3412
37678SOL    HW230645   0.457   2.062   0.280 -0.8489 -0.3485 -0.0166
37679SOL     OW30646   4.024   9.946   6.247 -0.9302  0.0664 -0.3770
37679SOL    HW130647   4.018   9.853   6.223  0.1342  0.0998 -0.8401
37679SOL    HW230648   4.101   9.978   6.199 -0.7238  0.9584  0.5229
37680SOL     OW30649   6.826   0.271   1.912 -0.8083  0.3910 -0.2706
37680SOL    HW130650   6.897   0.250   1.972 -0.7094  1.3925 -0.0150
37680SOL    HW230651   6.746   0.260   1.964 -0.7903  0.0660 -0.3140
37681SOL     OW30652   0.346  10.469   3.752  0.0590  0.7057  0.8175
37681SOL    HW130653   0.372  10.544   3.699 -1.8508 -0.0095 -1.2765
37681SOL    HW230654   0.428  10.422   3.768  0.6903  0.5581 -2.2376
37682SOL     OW30655   5.837   8.546   4.795  0.2767  0.8659  0.0015
37682SOL    HW130656   5.792   8.596   4.726 -0.1887 -0.2185 -0.5174
37682SOL    HW230657   5.800   8.458   4.787  0.6879  0.5722  1.2357
37683SOL     OW30658  11.897   5.970  11.182  0.2143  0.4227  0.1707
37683SOL    HW130659  11.862   5.906  11.121  0.3275  0.2336  0.3033
37683SOL    HW230660  11.938   6.037  11.127  2.2645 -0.8446  0.0661
37684SOL     OW30661   3.954   5.532   7.397  0.4720  0.9623  0.2792
37684SOL    HW130662   3.934   5.581   7.476 -1.4175 -0.9042  1.0794
37684SOL    HW230663   3.885   5.558   7.335 -0.3851 -0.3681  0.6210
37685SOL     OW30664   8.491   5.133  13.236 -0.0909  0.5536 -0.0073
37685SOL    HW130665   8.439   5.199  13.190 -0.6296 -0.3386 -0.7028
37685SOL    HW230666   8.426   5.069  13.267  0.5863 -0.7164 -1.1129
37686SOL     OW30667  13.833  10.743  11.149  0.2459  0.1764 -0.2248
37686SOL    HW130668  13.794  10.662  11.182  1.4247 -1.7117 -3.0726
37686SOL    HW230669  13.925  10.737  11.175  0.4055  0.4391 -0.7402
37687SOL     OW30670  12.112   4.885   3.281  0.4751  0.0178  0.2595
37687SOL    HW130671  12.195   4.876   3.235  0.3558  0.7597 -0.1180
37687SOL    HW230672  12.046   4.859   3.216  0.4313 -1.2696  0.7755
37688SOL     OW30673   3.338  11.709   8.662 -0.0378 -0.1300 -0.6641
37688SOL    HW130674   3.430  11.731   8.674  0.2880 -1.3378 -0.7727
37688SOL    HW230675   3.304  11.775   8.603  0.5829  0.7304 -0.0745
37689SOL     OW30676   1.608   3.396   4.046 -0.1442 -0.0302 -0.2599
37689SOL    HW130677   1.690   3.441   4.025 -0.0020 -0.0980  0.1435
37689SOL    HW230678   1.636   3.314   4.086 -0.4111  0.1100  0.2158
37690SOL     OW30679   6.381   8.931  10.568  0.0040 -0.1398 -0.3543
37690SOL    HW130680   6.449   8.986  10.529  0.1012  0.4180  0.5709
37690SOL    HW230681   6.415   8.910  10.655 -0.6922 -0.4421 -0.1556
37691SOL     OW30682   2.705   4.467   8.135  0.1376 -0.4670  0.1902
37691SOL    HW130683   2.706   4.373   8.156 -3.3177 -1.0443 -1.6250
37691SOL    HW230684   2.748   4.473   8.050 -0.2266 -0.5018  0.0036
37692SOL     OW30685  11.980  12.827   1.022 -0.0004  0.2885  0.4202
37692SOL    HW130686  11.925  12.767   0.973 -1.8145  0.6589  1.8625
37692SOL    HW230687  11.981  12.907   0.970 -0.3007  0.0735  0.0836
37693SOL     OW30688   7.979   1.903   5.521 -0.2961 -0.0172 -0.3790
37693SOL    HW130689   7.950   1.817   5.549 -1.6056  0.2745 -0.7781
37693SOL    HW230690   8.010   1.890   5.431  0.6953 -0.2971 -0.0085
37694SOL     OW30691  11.187   3.254   2.632  0.3820 -0.2691 -0.0410
37694SOL    HW130692  11.190   3.230   2.540  0.7657 -0.9593  0.1458
37694SOL    HW230693  11.266   3.307   2.646  0.2975 -0.1223 -0.1200
37695SOL     OW30694   8.128   3.734   7.657 -0.6579 -0.4625  0.3416
37695SOL    HW130695   8.176   3.759   7.579 -1.7514  0.6778  0.0031
37695SOL    HW230696   8.113   3.816   7.704 -2.7045 -0.6751  0.1622
37696SOL     OW30697  10.450   3.929   2.395 -0.4754 -1.1765 -0.4310
37696SOL    HW130698  10.389   3.863   2.428  0.8420 -3.2067 -1.8250
37696SOL    HW230699  10.535   3.886   2.394  0.5631  0.7617 -0.8395
37697SOL     OW30700   8.832  10.580   6.170 -0.3417  0.2945 -0.2326
37697SOL    HW130701   8.805  10.583   6.078  1.3057  2.0637 -0.7308
37697SOL    HW230702   8.915  10.629   6.172 -0.0245 -0.2260  2.0978
37698SOL     OW30703  10.942   3.516  13.039  0.4510  0.2160 -0.3886
37698SOL    HW130704  10.867   3.479  12.992  1.1672  0.1478 -1.5335
37698SOL    HW230705  11.000   3.442  13.054 -0.2915  0.0032  1.7483
37699SOL     OW30706   3.004   0.043  10.050 -0.1477 -0.4233 -0.7053
37699SOL    HW130707   3.006   0.032   9.955 -0.7674  1.0009 -0.9175
37699SOL    HW230708   2.916   0.075  10.068  0.4906  0.9654  0.1244
37700SOL     OW30709   6.704  12.328  13.724  0.2698  0.6566  0.0481
37700SOL    HW130710   6.638  12.397  13.717  0.4575  0.6687 -3.2849
37700SOL    HW230711   6.787  12.371  13.706  0.5254 -0.1983 -0.9314
37701SOL     OW30712   2.199   2.509   0.371 -0.8090 -0.2661 -0.3647
37701SOL    HW130713   2.120   2.511   0.425 -0.0588  0.8454  0.7261
37701SOL    HW230714   2.243   2.427   0.396 -1.2299 -0.5150 -0.4282
37702SOL     OW30715  11.246  11.217   2.422  0.9228 -0.2135  0.5859
37702SOL    HW130716  11.265  11.290   2.363  2.5448  0.3297  1.6863
37702SOL    HW230717  11.308  11.148   2.396 -1.1539 -1.5760 -0.9887
37703SOL     OW30718   1.749   1.102  10.641  0.2256 -0.4803  0.5064
37703SOL    HW130719   1.678   1.067  10.587 -0.2124  0.7936  0.2137
37703SOL    HW230720   1.714   1.183  10.676  1.3954 -0.0426  0.7029
37704SOL     OW30721   5.609  13.429   8.567 -0.3302 -0.5045  0.2479
37704SOL    HW130722   5.643  13.516   8.589 -1.1128 -0.8673  3.1786
37704SOL    HW230723   5.677  13.369   8.596 -0.1971 -0.9443 -0.9269
37705SOL     OW30724   7.889   5.243   3.581  0.3215 -0.0750 -0.2325
37705SOL    HW130725   7.797   5.224   3.564  0.0225  0.9742  0.1461
37705SOL    HW230726   7.915   5.299   3.507 -0.0176  1.5929  0.8614
37706SOL     OW30727   2.342  14.081  11.798 -0.1735  0.3867 -0.4941
37706SOL    HW130728   2.355  14.172  11.826 -0.1638  0.6215 -1.2351
37706SOL    HW230729   2.414  14.033  11.838 -0.4235  0.6298  0.2550
37707SOL     OW30730   8.733   3.595   5.623  0.2376  0.5806 -0.0900
37707SOL    HW130731   8.726   3.626   5.532 -0.4668  1.3990  0.2352
37707SOL    HW230732   8.684   3.659   5.674 -0.0014 -0.2827  0.7837
37708SOL     OW30733  12.342  10.170  11.419  0.1711 -0.6736 -0.5528
37708SOL    HW130734  12.256  10.160  11.460  0.3835 -2.4209 -0.4875
37708SOL    HW230735  12.403  10.132  11.481  1.4021  2.6315  0.5207
37709SOL     OW30736   3.344   4.915   6.911 -0.1207 -0.5114 -0.1189
37709SOL    HW130737   3.365   4.910   7.004 -1.5806 -0.5602  0.2358
37709SOL    HW230738   3.249   4.930   6.909 -0.0190  0.0881 -1.5891
37710SOL     OW30739   4.686   4.138   5.882 -0.0433 -0.4098  0.3369
37710SOL    HW130740   4.642   4.139   5.797 -0.2342 -2.1615  0.3749
37710SOL    HW230741   4.621   4.100   5.942  0.4292 -0.0808  1.0717
37711SOL     OW30742  13.338  12.974  10.132 -0.4197  0.2138 -0.4195
37711SOL    HW130743  13.276  12.940  10.196 -0.5829  0.6053 -0.3727
37711SOL    HW230744  13.286  12.990  10.053 -0.2635 -0.0372 -0.5798
37712SOL     OW30745   0.362   8.415   0.161 -0.7492  0.3055  0.8629
37712SOL    HW130746   0.303   8.484   0.190 -0.2073  0.7522  0.9104
37712SOL    HW230747   0.375   8.360   0.238  1.0559  1.7453  1.6642
37713SOL     OW30748   8.628  11.784   0.090  0.0933  0.0104 -0.4771
37713SOL    HW130749   8.707  11.838   0.086 -0.6552  1.1539 -0.2891
37713SOL    HW230750   8.628  11.735   0.007 -0.6515  2.4254 -1.9966
37714SOL     OW30751   0.158   2.105  13.516  0.4961  0.0756 -0.0586
37714SOL    HW130752   0.147   2.191  13.555 -0.7016  0.0528 -0.2940
37714SOL    HW230753   0.169   2.121  13.423 -1.2969 -0.0728 -0.3259
37715SOL     OW30754   8.656   9.255  10.582 -0.1775 -0.7995  0.3186
37715SOL    HW130755   8.663   9.342  10.622 -1.2302 -1.1316  1.2816
37715SOL    HW230756   8.663   9.271  10.488 -0.1115  0.2906  0.4946
37716SOL     OW30757  11.497   1.381   0.083 -0.0050 -0.2868 -0.0232
37716SOL    HW130758  11.535   1.412   0.000 -0.1295  0.7803  0.3124
37716SOL    HW230759  11.488   1.459   0.136  0.2674 -0.9905  1.0968
37717SOL     OW30760   9.739   1.593   0.356 -0.4440  0.2258 -0.1986
37717SOL    HW130761   9.649   1.591   0.322  0.0628 -1.6974 -1.5871
37717SOL    HW230762   9.787   1.531   0.301  1.2640 -0.3706  1.8138
37718SOL     OW30763  12.020   1.984   2.857  0.1533  0.1095 -0.1972
37718SOL    HW130764  11.976   1.984   2.772 -0.1317 -1.1695 -0.0740
37718SOL    HW230765  12.104   2.027   2.841 -0.1278  0.3894 -0.9848
37719SOL     OW30766  13.072   5.451   4.234  0.1724  0.1713  0.9383
37719SOL    HW130767  13.011   5.395   4.185 -1.5561  2.3190  0.4701
37719SOL    HW230768  13.114   5.504   4.167  0.6024  0.5330  1.4905
37720SOL     OW30769   5.333   3.098   1.315 -0.0084  0.1576  0.1380
37720SOL    HW130770   5.364   3.011   1.290  0.3812  0.2169  0.4004
37720SOL    HW230771   5.255   3.081   1.368 -0.6801  0.0252 -0.8811
37721SOL     OW30772   5.520   0.102   3.722 -0.0258 -0.0112 -0.1272
37721SOL    HW130773   5.556   0.019   3.753  1.9152  0.6958 -0.3189
37721SOL    HW230774   5.551   0.109   3.631 -0.1120  0.9554 -0.0912
37722SOL     OW30775  11.720   4.967   3.892  0.1816  0.2752 -0.4530
37722SOL    HW130776  11.711   4.934   3.981  2.2727  1.5881  0.3265
37722SOL    HW230777  11.706   5.062   3.900 -1.6463  0.1961 -1.9177
37723SOL     OW30778   4.190  12.695   1.631 -0.1164  0.4083  0.6135
37723SOL    HW130779   4.189  12.764   1.565 -0.5704  1.2645  1.4797
37723SOL    HW230780   4.104  12.655   1.626  0.3264 -0.4695 -0.2468
37724SOL     OW30781   4.050   1.720   3.271  0.0245 -0.0528  0.3322
37724SOL    HW130782   3.961   1.698   3.298  0.5094 -1.1329  1.1410
37724SOL    HW230783   4.050   1.709   3.176  0.0048 -2.8869  0.5867
37725SOL     OW30784   5.443  11.348   7.539 -0.7068  0.2870 -0.0897
37725SOL    HW130785   5.517  11.291   7.563 -0.9693 -1.0351 -2.1376
37725SOL    HW230786   5.366  11.301   7.569 -0.8468  0.2173 -0.5406
37726SOL     OW30787  11.371   0.477   4.494  0.3339  0.0863  0.2207
37726SOL    HW130788  11.379   0.387   4.525 -1.5813  0.4011  1.8132
37726SOL    HW230789  11.277   0.494   4.494  0.5982  1.7976 -0.9729
37727SOL     OW30790  10.384  10.113   6.629  0.0051  0.3111 -0.1904
37727SOL    HW130791  10.366  10.023   6.656  1.2653 -0.4339 -1.6646
37727SOL    HW230792  10.345  10.120   6.542  1.3808  0.6204 -0.8040
37728SOL     OW30793   5.840   7.765   9.785 -0.0912 -0.2556  0.2177
37728SOL    HW130794   5.860   7.793   9.875  2.0896  0.2362 -0.3528
37728SOL    HW230795   5.860   7.671   9.785  0.8296 -0.0689  0.0342
37729SOL     OW30796   1.689   7.934   7.023 -0.3409  0.0323  0.5847
37729SOL    HW130797   1.625   8.006   7.030 -1.3486 -0.8020  0.2566
37729SOL    HW230798   1.636   7.857   7.002  0.8614 -0.5493 -0.4674
37730SOL     OW30799   7.050   9.598   6.110  0.2553  0.0381 -0.0300
37730SOL    HW130800   7.071   9.543   6.185 -0.5499  0.6575  0.6696
37730SOL    HW230801   6.983   9.549   6.063 -3.6918  2.1011  2.8743
37731SOL     OW30802   0.077   9.061   3.810  0.5986  0.3400  0.0617
37731SOL    HW130803   0.071   9.151   3.777 -0.3924  0.3153  0.1716
37731SOL    HW230804   0.023   9.060   3.888  2.0700  0.1088  1.1257
37732SOL     OW30805   8.884   6.409   0.304  0.0649 -0.3914  0.2620
37732SOL    HW130806   8.807   6.466   0.297 -0.4212 -0.7095  2.3717
37732SOL    HW230807   8.958   6.470   0.311 -0.2023 -0.0501  0.1468
37733SOL     OW30808   7.654   0.643   0.152 -0.2776  0.0639  0.6690
37733SOL    HW130809   7.575   0.695   0.167 -1.0715 -0.7096 -0.6471
37733SOL    HW230810   7.624   0.552   0.156  0.6555 -0.2498  0.6954
37734SOL     OW30811  12.610   9.184  12.659  0.0467 -0.4653  0.0699
37734SOL    HW130812  12.617   9.278  12.646 -1.6754 -0.4152 -0.7715
37734SOL    HW230813  12.567   9.174  12.744 -2.2566 -0.3766 -1.0270
37735SOL     OW30814   2.954   5.624   0.978 -0.6347  0.3326 -0.2216
37735SOL    HW130815   2.995   5.564   1.041 -2.5480 -0.8465 -0.0241
37735SOL    HW230816   2.916   5.694   1.032 -1.9225 -0.4639 -0.0604
37736SOL     OW30817  11.587   5.224   1.547 -0.0022 -0.7500 -0.0982
37736SOL    HW130818  11.559   5.178   1.627 -1.1152 -0.0787 -0.0712
37736SOL    HW230819  11.567   5.163   1.476 -1.0354 -0.5283 -0.0238
37737SOL     OW30820   5.760   1.716   2.282 -0.1027 -0.1970 -0.4994
37737SOL    HW130821   5.825   1.718   2.212  0.9453 -0.5009  0.4363
37737SOL    HW230822   5.748   1.808   2.307  1.3369 -0.2492  0.5190
37738SOL     OW30823   5.398   6.233   8.327 -0.1162 -0.4674  0.0551
37738SOL    HW130824   5.331   6.259   8.391 -0.9641  0.3141 -1.1120
37738SOL    HW230825   5.386   6.294   8.254  1.7862 -0.4113 -0.2552
37739SOL     OW30826   6.344   0.994   8.108  0.1920  0.1866  0.4026
37739SOL    HW130827   6.435   0.999   8.139  0.0650  1.8757  0.6018
37739SOL    HW230828   6.296   0.951   8.179  0.4453  1.3158  1.2878
37740SOL     OW30829   2.057   8.055   3.945  0.2971 -0.0433 -0.1939
37740SOL    HW130830   2.007   8.103   4.011  0.1192 -0.2013 -0.2137
37740SOL    HW230831   1.994   8.036   3.876  0.3883 -0.2254 -0.2278
37741SOL     OW30832  11.535   8.479  13.659  0.5491 -0.0662  0.2463
37741SOL    HW130833  11.625   8.499  13.632  0.2250  0.3889 -0.5180
37741SOL    HW230834  11.544   8.400  13.713  1.2364 -1.0652 -1.2436
37742SOL     OW30835   6.458   0.080   3.747  0.0269  0.2651 -0.2304
37742SOL    HW130836   6.532   0.141   3.748  1.0831 -0.9794 -0.2069
37742SOL    HW230837   6.491   0.003   3.701 -1.4991 -0.0509 -0.8653
37743SOL     OW30838   2.243  10.331   7.043 -0.3936 -0.2280  0.0116
37743SOL    HW130839   2.331  10.369   7.033 -0.1416 -0.1309  2.0951
37743SOL    HW230840   2.185  10.407   7.042 -0.6163 -0.3532 -2.2917
37744SOL     OW30841   1.585   1.874  11.266 -0.3450  0.0287 -0.2160
37744SOL    HW130842   1.533   1.941  11.309  1.7165  0.4716  1.7571
37744SOL    HW230843   1.561   1.793  11.310 -0.1488  0.0780 -0.0124
37745SOL     OW30844  10.242   3.372   5.522 -0.2585  0.2061 -0.2305
37745SOL    HW130845  10.272   3.375   5.613  3.3284 -1.7219 -1.1618
37745SOL    HW230846  10.188   3.293   5.517  1.3368 -0.9263 -0.1663
37746SOL     OW30847  12.664  10.832  10.719 -0.0863  0.3376 -0.2512
37746SOL    HW130848  12.660  10.813  10.625 -0.1906  2.1666 -0.6699
37746SOL    HW230849  12.754  10.813  10.744 -0.1968 -0.6781 -0.5842
37747SOL     OW30850   2.349   2.378  12.815  0.0386  0.5426 -0.2345
37747SOL    HW130851   2.404   2.305  12.844  1.5479  0.5974 -2.6869
37747SOL    HW230852   2.411   2.448  12.795 -0.6484  0.2444 -4.1916
37748SOL     OW30853   2.703   3.465   6.153  0.0199 -0.1814 -0.1768
37748SOL    HW130854   2.747   3.449   6.236  2.3679 -1.0442 -1.4793
37748SOL    HW230855   2.626   3.409   6.156  1.1415 -1.7866  0.6656
37749SOL     OW30856   1.720   8.443   7.071 -0.5806 -0.1235 -0.2411
37749SOL    HW130857   1.752   8.522   7.114 -1.0212 -0.7450  1.2935
37749SOL    HW230858   1.799   8.396   7.045 -0.2438 -0.6291  1.6023
37750SOL     OW30859  12.867   4.524   5.261  0.3656  0.1835 -0.2501
37750SOL    HW130860  12.773   4.506   5.268  0.3430 -0.2671 -1.4456
37750SOL    HW230861  12.903   4.496   5.345 -0.6866  1.2302  0.5832
37751SOL     OW30862   8.256   5.328   1.102 -0.2768 -0.4024  1.0482
37751SOL    HW130863   8.314   5.387   1.055 -0.1528 -0.5191  1.0529
37751SOL    HW230864   8.177   5.324   1.047 -0.1718 -0.4609  0.8993
37752SOL     OW30865   5.287   2.217   4.327 -0.0146 -0.5271  0.2250
37752SOL    HW130866   5.263   2.152   4.394 -0.8928 -0.8316 -0.3761
37752SOL    HW230867   5.211   2.222   4.270  0.5663  0.0493 -0.5149
37753SOL     OW30868   8.610   2.849  11.270  0.4669  0.0041  0.1696
37753SOL    HW130869   8.694   2.853  11.225  0.1263 -0.0176 -0.4937
37753SOL    HW230870   8.558   2.919  11.229 -0.3112 -0.9073 -0.4471
37754SOL     OW30871   8.539   6.061   8.919 -0.3224  0.2706 -0.0297
37754SOL    HW130872   8.495   5.981   8.947 -1.3135  0.7634 -0.1190
37754SOL    HW230873   8.512   6.072   8.827  0.7800  0.0670 -0.3905
37755SOL     OW30874  13.256  10.739   6.761 -0.3242  0.2144  0.1607
37755SOL    HW130875  13.313  10.812   6.737  0.9322 -0.4895  0.8923
37755SOL    HW230876  13.205  10.720   6.682  0.8479  0.5110 -0.6912
37756SOL     OW30877   7.851   0.723   3.891  0.3075 -0.1582 -0.4432
37756SOL    HW130878   7.859   0.630   3.912  1.0280  0.0289  0.1929
37756SOL    HW230879   7.904   0.735   3.813  0.9084 -0.1335 -0.0372
37757SOL     OW30880   5.195  13.255   7.769  0.1717  0.1978 -0.1123
37757SOL    HW130881   5.236  13.289   7.848 -0.9988  1.0459  0.1702
37757SOL    HW230882   5.249  13.181   7.743  0.8203  0.1692  1.2409
37758SOL     OW30883   5.337   5.778   3.359 -0.3394 -0.0769  0.1190
37758SOL    HW130884   5.417   5.729   3.377  0.7494  1.3552 -0.5435
37758SOL    HW230885   5.273   5.743   3.420  0.2299 -2.5792 -0.6160
37759SOL     OW30886  13.429   0.868   4.408 -0.4211 -0.2093 -0.5242
37759SOL    HW130887  13.339   0.842   4.387 -0.2493 -2.1927  0.8635
37759SOL    HW230888  13.471   0.880   4.323 -2.5060  3.1114 -1.2842
37760SOL     OW30889   2.567   5.935   5.983 -0.0013  0.3556  0.3697
37760SOL    HW130890   2.612   5.926   6.066 -1.1530  0.5248  1.0318
37760SOL    HW230891   2.477   5.908   6.001 -0.0165 -0.6813 -1.0876
37761SOL     OW30892  13.426   2.980   0.477 -0.7816  0.2763  0.0377
37761SOL    HW130893  13.384   3.045   0.532 -0.2617  0.1426  0.5988
37761SOL    HW230894  13.515   2.973   0.510 -0.8972 -0.9051  0.1593
37762SOL     OW30895   9.985  10.647   5.927 -0.0793  0.5366  0.2492
37762SOL    HW130896   9.981  10.669   5.834  1.3537 -1.4943 -0.3840
37762SOL    HW230897  10.068  10.683   5.957 -1.2616  2.6122  1.2367
37763SOL     OW30898   3.387   6.115   0.844  0.2365 -0.1434 -0.0318
37763SOL    HW130899   3.412   6.053   0.911 -0.2601  0.6770  0.9420
37763SOL    HW230900   3.440   6.193   0.861 -1.8728  1.1092  1.2103
37764SOL     OW30901   6.145   9.791   0.359 -0.7699  0.1065 -0.2846
37764SOL    HW130902   6.238   9.770   0.372 -0.8623 -1.1744 -1.4525
37764SOL    HW230903   6.103   9.767   0.442 -0.0991  0.5075  0.1803
37765SOL     OW30904   3.698   7.576   5.460 -0.4678  0.0697 -0.1755
37765SOL    HW130905   3.674   7.563   5.368  0.4419 -0.5480 -0.3361
37765SOL    HW230906   3.737   7.663   5.462 -0.1922 -0.0462 -0.4401
37766SOL     OW30907  10.559  11.035   0.248 -0.0138  0.6053 -0.0053
37766SOL    HW130908  10.522  11.069   0.166  0.4325  0.3297 -0.3197
37766SOL    HW230909  10.562  10.940   0.236  0.0460  0.5610  0.3377
37767SOL     OW30910   9.307   3.069   8.299 -0.4691  0.0802  0.6085
37767SOL    HW130911   9.322   2.998   8.237  0.0486  1.5017 -0.9912
37767SOL    HW230912   9.384   3.125   8.291 -1.2337  1.2567  1.1910
37768SOL     OW30913   4.258  11.745   0.307 -0.0983 -0.2446  0.1664
37768SOL    HW130914   4.334  11.743   0.250 -0.1268  1.2205  0.0532
37768SOL    HW230915   4.292  11.719   0.393  0.5430  0.4491  0.1300
37769SOL     OW30916  13.845   4.432  10.953  0.0790 -0.7205 -0.5078
37769SOL    HW130917  13.795   4.351  10.965  2.7508 -2.5007 -0.5146
37769SOL    HW230918  13.917   4.425  11.016  0.0143  2.0310 -0.0105
37770SOL     OW30919   3.834  13.002   8.758  0.1887 -0.1966 -0.1720
37770SOL    HW130920   3.845  12.971   8.668  2.0146  1.2624 -0.5135
37770SOL    HW230921   3.920  12.991   8.798  0.0145  1.2588  0.6921
37771SOL     OW30922   2.046   7.556   1.900 -0.5550  0.2771 -0.1867
37771SOL    HW130923   2.049   7.536   1.807 -1.8013 -1.6637  0.1376
37771SOL    HW230924   2.134   7.585   1.922 -0.0945  0.1867 -1.8447
37772SOL     OW30925   9.806  11.789  12.780 -0.6682 -0.2623  0.2973
37772SOL    HW130926   9.756  11.826  12.853  1.0143  1.0888  0.8477
37772SOL    HW230927   9.898  11.796  12.809 -0.0543 -0.9873 -1.3878
37773SOL     OW30928   5.722   5.110  12.405  0.2426 -0.3948 -0.0834
37773SOL    HW130929   5.713   5.075  12.493 -0.9595  0.8166  0.3264
37773SOL    HW230930   5.725   5.033  12.348 -0.0897 -1.1793  0.9287
37774SOL     OW30931  12.538   1.342   2.249 -0.2218 -0.2492 -0.4287
37774SOL    HW130932  12.508   1.255   2.275 -0.1004 -0.2717 -0.3654
37774SOL    HW230933  12.479   1.402   2.294  0.6788 -0.2574  0.7766
37775SOL     OW30934  10.969   1.952   0.906  0.1672  0.1201  0.2113
37775SOL    HW130935  10.982   1.930   0.814  0.4818 -1.1692  0.5395
37775SOL    HW230936  10.885   1.912   0.928  0.4352 -0.2145  0.6518
37776SOL     OW30937   6.379   2.107   3.336 -0.5622  0.2804 -0.7362
37776SOL    HW130938   6.308   2.048   3.361  0.3669 -0.2214  0.8540
37776SOL    HW230939   6.459   2.059   3.355  0.2480  2.2291  1.3520
37777SOL     OW30940  11.767  13.122   1.239  0.4824  0.0207 -0.4081
37777SOL    HW130941  11.784  13.131   1.145  2.1331  1.1601 -0.0392
37777SOL    HW230942  11.773  13.028   1.256 -0.2816 -0.2468 -1.4957
37778SOL     OW30943  11.577   7.214   3.529 -0.4678 -0.0440 -0.0319
37778SOL    HW130944  11.556   7.267   3.606  0.0537 -1.0915  0.8698
37778SOL    HW230945  11.672   7.221   3.520 -0.8340  3.6314 -3.3183
37779SOL     OW30946   8.334  11.122   8.441 -0.0974 -0.4058  0.3552
37779SOL    HW130947   8.342  11.089   8.531  3.5607 -1.5874 -0.2244
37779SOL    HW230948   8.383  11.204   8.441  1.0152 -1.0331 -0.7633
37780SOL     OW30949   5.548   1.441   1.604 -0.0873 -0.0301 -0.5146
37780SOL    HW130950   5.464   1.413   1.639  1.5364 -2.0067  2.1987
37780SOL    HW230951   5.587   1.362   1.567  1.1375  0.5151 -0.4541
37781SOL     OW30952   8.992   2.831   1.150  0.5193 -0.0829 -0.1204
37781SOL    HW130953   8.996   2.916   1.194  1.6061 -0.5732  0.7821
37781SOL    HW230954   8.903   2.800   1.166  0.2566  0.6754 -0.0646
37782SOL     OW30955   7.920   0.924  11.457 -0.9036  0.0353  0.1829
37782SOL    HW130956   7.902   0.840  11.415 -3.2896  1.6026 -2.3137
37782SOL    HW230957   7.861   0.927  11.532  1.5868 -1.7616  2.3717
37783SOL     OW30958  10.308   8.765   4.288 -0.6252  0.0584  0.0222
37783SOL    HW130959  10.308   8.854   4.323 -1.4492 -0.6428  1.9197
37783SOL    HW230960  10.222   8.754   4.248 -0.2545  0.3311 -0.8831
37784SOL     OW30961  13.585   2.779   5.945 -0.4384  0.1517  0.0763
37784SOL    HW130962  13.576   2.769   5.850  1.9660  1.8453 -0.4227
37784SOL    HW230963  13.521   2.846   5.968  0.5742  1.4575 -0.7982
37785SOL     OW30964   3.381   7.422  10.469 -0.2257 -0.5789 -0.5065
37785SOL    HW130965   3.379   7.379  10.554 -0.0172  2.4491  1.1891
37785SOL    HW230966   3.466   7.399  10.432  0.1118 -1.1194  0.5681
37786SOL     OW30967   2.883  12.110   5.784 -0.5528  0.2409 -0.7691
37786SOL    HW130968   2.794  12.075   5.780 -0.7554  0.4343  1.1394
37786SOL    HW230969   2.896  12.153   5.699 -1.4433 -1.6845 -1.9590
37787SOL     OW30970   2.890   2.972   7.406 -0.3550 -0.4914 -0.1108
37787SOL    HW130971   2.924   2.949   7.493 -0.8738 -1.7619 -0.2230
37787SOL    HW230972   2.830   3.044   7.423 -0.6325 -0.8779  0.6356
37788SOL     OW30973  12.778  12.801  13.041 -0.5737 -0.1769 -0.4776
37788SOL    HW130974  12.819  12.816  13.126 -0.8500 -0.7396 -0.2354
37788SOL    HW230975  12.741  12.886  13.016  1.4244  0.5492 -1.1045
37789SOL     OW30976   8.357  12.525   8.239  0.0967 -0.0147  0.1800
37789SOL    HW130977   8.449  12.500   8.247  0.8386  2.6514  1.0116
37789SOL    HW230978   8.311  12.464   8.297  1.6576 -0.0416  1.4795
37790SOL     OW30979  11.798  13.242   9.249 -0.3321 -0.4525 -0.0267
37790SOL    HW130980  11.874  13.293   9.277 -0.9646  0.4705  0.0780
37790SOL    HW230981  11.727  13.272   9.305 -1.6475  1.4386 -2.4863
37791SOL     OW30982   6.006  13.018  11.552 -0.3190 -0.2963  0.2815
37791SOL    HW130983   5.914  13.045  11.548  0.4160  2.2696 -2.5861
37791SOL    HW230984   6.012  12.945  11.490 -0.3355 -0.1724  0.1337
37792SOL     OW30985  12.344   9.559   6.973 -0.1634  0.0870  0.0628
37792SOL    HW130986  12.414   9.495   6.979  0.5816  0.8185 -0.5011
37792SOL    HW230987  12.387   9.643   6.991 -1.0260  0.4773  0.3510
37793SOL     OW30988   6.844   5.913  13.889  0.5106  0.0955 -0.1889
37793SOL    HW130989   6.900   5.984  13.857  0.1483  0.4194 -0.1080
37793SOL    HW230990   6.791   5.889  13.813 -1.2122  1.6802  0.4182
37794SOL     OW30991   9.460   9.815   4.003  0.4318 -0.2199 -0.1598
37794SOL    HW130992   9.421   9.837   4.088  0.5579 -1.1527  0.1477
37794SOL    HW230993   9.386   9.818   3.942  0.6411  2.3735 -0.4311
37795SOL     OW30994   7.935   6.734   2.734  0.1086  0.1810  0.2433
37795SOL    HW130995   8.000   6.763   2.798  0.6532 -0.2492 -0.1099
37795SOL    HW230996   7.967   6.650   2.703 -0.5179  0.0550 -0.0828
37796SOL     OW30997   0.968   4.746   4.198  0.2866  0.0083 -0.0222
37796SOL    HW130998   0.909   4.813   4.231  0.2594 -0.2716  0.5058
37796SOL    HW230999   0.916   4.665   4.201  1.0850 -0.4783  1.6361
37797SOL     OW31000   7.742   1.688   5.198 -0.2665 -0.2869 -0.2817
37797SOL    HW131001   7.819   1.640   5.228  1.0293  2.2551  0.7981
37797SOL    HW231002   7.759   1.705   5.105  0.7565  0.6738  0.0606
37798SOL     OW31003  10.060   7.422   7.591 -0.1658 -0.3226  0.1188
37798SOL    HW131004  10.000   7.474   7.645 -2.5221 -2.8165  0.1631
37798SOL    HW231005  10.110   7.370   7.654  0.4132  0.0832  0.0028
37799SOL     OW31006   4.502   9.864   8.894  0.4316  0.3914 -0.2972
37799SOL    HW131007   4.546   9.925   8.952  1.8085  1.7290 -2.5723
37799SOL    HW231008   4.410   9.886   8.901  0.7506  1.6956  0.1090
37800SOL     OW31009   4.612   8.958   0.288 -0.3936  0.3958 -0.2071
37800SOL    HW131010   4.557   8.879   0.290 -1.4458  1.0518 -1.5825
37800SOL    HW231011   4.674   8.942   0.218 -0.4059  0.6629 -0.2799
37801SOL     OW31012   4.150   4.307   6.345 -0.7031  0.3992  0.1715
37801SOL    HW131013   4.214   4.343   6.283 -0.6805  0.3726  0.1789
37801SOL    HW231014   4.146   4.214   6.322 -1.0454  0.4804 -0.0943
37802SOL     OW31015   4.490   1.639   3.095 -0.1990  0.8045 -0.9374
37802SOL    HW131016   4.426   1.691   3.046 -0.4398  1.3793 -0.0463
37802SOL    HW231017   4.563   1.627   3.035 -1.0032  0.4275 -1.8564
37803SOL     OW31018  11.317  11.737   3.007 -0.0633  0.1524 -0.1285
37803SOL    HW131019  11.328  11.689   2.926 -0.6662  0.1043 -0.1871
37803SOL    HW231020  11.385  11.804   3.005  0.6800 -0.5828 -0.1190
37804SOL     OW31021  12.888   9.752  12.584  0.2803 -0.7406 -0.3367
37804SOL    HW131022  12.916   9.710  12.503  0.7711  1.4331 -1.3666
37804SOL    HW231023  12.792   9.741  12.584  0.4686 -2.7757  0.0362
37805SOL     OW31024   3.020   1.570   9.622 -0.2057  0.7023  0.0321
37805SOL    HW131025   2.945   1.628   9.610  0.4448  1.3404 -1.1874
37805SOL    HW231026   3.096   1.628   9.618  0.4182 -0.1064 -0.1790
37806SOL     OW31027   5.175   5.558   0.331 -0.2068 -0.4120 -0.6004
37806SOL    HW131028   5.192   5.632   0.273  0.7508  0.0556  0.2447
37806SOL    HW231029   5.174   5.597   0.419 -1.8542 -1.0614 -0.3003
37807SOL     OW31030   6.619   4.577  13.861  0.3503  0.0321 -0.0941
37807SOL    HW131031   6.613   4.607  13.952 -0.5057  1.7499 -0.6744
37807SOL    HW231032   6.597   4.484  13.866 -1.2955  0.4203  1.2930
37808SOL     OW31033   4.311   4.695   7.507 -0.3795 -0.2235 -0.1918
37808SOL    HW131034   4.297   4.632   7.436 -3.2952  0.2172 -0.1368
37808SOL    HW231035   4.228   4.695   7.555  0.0800  2.4618  0.7610
37809SOL     OW31036   5.561   8.647   2.321  0.0000 -0.2047  0.0219
37809SOL    HW131037   5.593   8.733   2.348 -0.9421  1.0802 -2.6187
37809SOL    HW231038   5.474   8.641   2.360  0.3225 -0.2385  0.7384
37810SOL     OW31039   8.446   7.922  13.880 -0.5112  0.2740 -0.0573
37810SOL    HW131040   8.497   7.894  13.803 -1.1988 -1.8933  0.2080
37810SOL    HW231041   8.508   7.975  13.931  0.9062 -0.7397 -0.6530
37811SOL     OW31042   4.104   9.345   7.416 -0.0852  0.3022 -0.1739
37811SOL    HW131043   4.189   9.388   7.416 -1.0478  2.7875 -4.7545
37811SOL    HW231044   4.042   9.413   7.444 -1.0397  0.1324 -1.7712
37812SOL     OW31045   3.954   9.669   6.171 -0.3113  0.1612 -0.0598
37812SOL    HW131046   4.031   9.628   6.132 -1.0698  0.3825 -1.8924
37812SOL    HW231047   3.883   9.650   6.109 -0.6172  4.8118 -1.5101
37813SOL     OW31048   5.954  13.349   9.032 -0.0715  0.3386 -0.0921
37813SOL    HW131049   5.958  13.274   9.092  1.1564 -0.0291 -0.6030
37813SOL    HW231050   6.045  13.363   9.004  0.1159  3.3076  1.5319
37814SOL     OW31051   7.536   3.455   9.248  0.2422 -0.6513  0.2533
37814SOL    HW131052   7.611   3.451   9.307  0.1776 -0.2232  0.3632
37814SOL    HW231053   7.556   3.527   9.187 -0.1792 -0.3850  0.4248
37815SOL     OW31054   6.281   8.874   7.368  0.1682 -0.0320 -0.5510
37815SOL    HW131055   6.310   8.802   7.424 -0.1875 -0.9954 -1.5705
37815SOL    HW231056   6.284   8.951   7.425  1.9467 -0.5806  0.1616
37816SOL     OW31057   8.745   8.547   5.501  0.2841  0.2557 -0.1325
37816SOL    HW131058   8.673   8.595   5.459  0.4002  0.6255  0.0886
37816SOL    HW231059   8.792   8.506   5.428  0.0196  0.2475 -0.3013
37817SOL     OW31060   5.310  11.584  14.054  0.9194 -0.4475  0.1619
37817SOL    HW131061   5.271  11.612  13.971 -0.9513 -3.0397  0.0373
37817SOL    HW231062   5.358  11.504  14.033  0.4904 -1.1046  1.5345
37818SOL     OW31063   4.331   1.295   0.101 -0.0239  0.2390 -0.4121
37818SOL    HW131064   4.305   1.380   0.066 -0.8273  0.9868  1.7636
37818SOL    HW231065   4.254   1.264   0.149  0.9904 -0.6136  0.7621
37819SOL     OW31066   4.063   7.816   7.454  0.6359 -0.0056  0.0346
37819SOL    HW131067   4.074   7.865   7.372 -0.6748  2.1314  1.0655
37819SOL    HW231068   4.011   7.739   7.430 -0.1146  0.8274 -1.0595
37820SOL     OW31069   8.574   0.926  13.619  0.2545  0.2877  0.1949
37820SOL    HW131070   8.590   0.927  13.525 -0.6357  1.4922  0.0368
37820SOL    HW231071   8.662   0.924  13.658  0.6317  0.0251 -0.6462
37821SOL     OW31072  12.901   8.147  13.735  0.1674  0.2324 -0.5880
37821SOL    HW131073  12.980   8.102  13.707  0.0946 -0.1005 -0.2762
37821SOL    HW231074  12.839   8.134  13.663  0.3309  0.3194 -0.7437
37822SOL     OW31075   3.272  10.045   9.649  0.4089 -0.1734 -0.3530
37822SOL    HW131076   3.241   9.956   9.664 -0.1703  0.0524 -0.2156
37822SOL    HW231077   3.303  10.044   9.558 -0.9145 -0.1365 -0.8230
37823SOL     OW31078  13.977  10.992  13.031  0.0631 -0.5483  0.2617
37823SOL    HW131079  14.020  11.066  13.073  0.3683  0.2266 -1.3494
37823SOL    HW231080  13.956  10.932  13.103  0.9507  0.5158  1.4427
37824SOL     OW31081   1.420  12.732   2.448  0.1199 -0.1441  0.1012
37824SOL    HW131082   1.349  12.767   2.394  1.0920  1.4718 -0.1760
37824SOL    HW231083   1.449  12.806   2.501  0.4977 -1.2110  1.4269
37825SOL     OW31084   3.372   7.399  13.333  0.0315  0.5446 -0.3706
37825SOL    HW131085   3.396   7.385  13.241 -0.0142  1.3280 -0.5075
37825SOL    HW231086   3.405   7.486  13.353  1.5114 -0.2375  0.8540
37826SOL     OW31087  10.926   9.969   9.566 -0.1262  0.4826 -0.4744
37826SOL    HW131088  10.914  10.016   9.649 -0.2063 -0.2580 -0.0641
37826SOL    HW231089  10.838   9.960   9.531 -0.4792 -1.8102  0.8152
37827SOL     OW31090  13.039  10.491   4.527 -0.3188 -0.5022 -0.0330
37827SOL    HW131091  12.971  10.440   4.570 -0.3054 -1.3219 -0.9518
37827SOL    HW231092  13.061  10.560   4.590 -1.7915 -0.3876  0.4045
37828SOL     OW31093   6.557   6.857   1.432  0.5311 -0.1505  0.3428
37828SOL    HW131094   6.560   6.892   1.521 -1.3929 -1.1027  0.8498
37828SOL    HW231095   6.464   6.836   1.418  0.9569 -0.9912 -1.4969
37829SOL     OW31096   8.762   2.905   9.358 -0.0610  0.3171 -0.0185
37829SOL    HW131097   8.696   2.945   9.302 -0.0993 -1.1549 -1.1001
37829SOL    HW231098   8.713   2.842   9.411  0.5560 -1.6702 -1.6880
37830SOL     OW31099  11.731   8.153   7.564 -0.3373 -0.2913 -0.4265
37830SOL    HW131100  11.677   8.077   7.541  1.0860 -1.6638  0.5269
37830SOL    HW231101  11.809   8.144   7.509 -0.6665  1.1992 -1.1913
37831SOL     OW31102   3.976   4.899   3.834 -0.0813  0.0341  0.3582
37831SOL    HW131103   3.994   4.993   3.836 -0.9457  0.2926 -1.4803
37831SOL    HW231104   3.950   4.877   3.923 -0.9649  1.7835  0.5627
37832SOL     OW31105   9.517   3.650  10.019  0.2330  0.2067 -0.1552
37832SOL    HW131106   9.517   3.559  10.050  2.0879  0.0849 -0.4334
37832SOL    HW231107   9.461   3.696  10.081  0.6000 -0.8173  0.9735
37833SOL     OW31108   8.584  12.117   2.839  0.2429 -0.1880 -0.5290
37833SOL    HW131109   8.538  12.034   2.849 -0.5135  0.2787 -0.0329
37833SOL    HW231110   8.658  12.111   2.900 -1.7044  0.7984  2.1390
37834SOL     OW31111  11.897  11.403  11.119  0.5516 -0.2593  0.0005
37834SOL    HW131112  11.878  11.365  11.033 -0.2063 -0.5510  0.2920
37834SOL    HW231113  11.825  11.465  11.133  2.5126  2.5299 -1.1595
37835SOL     OW31114   7.197   2.333   9.744 -0.2148 -0.0837  0.1029
37835SOL    HW131115   7.111   2.372   9.760 -1.1058 -0.8701 -2.2862
37835SOL    HW231116   7.189   2.243   9.776  0.0445  0.1195  0.7438
37836SOL     OW31117   7.495   5.352   1.979  0.3170  0.1580 -0.5599
37836SOL    HW131118   7.467   5.424   2.036 -0.0301  0.3393 -0.9599
37836SOL    HW231119   7.432   5.352   1.907  0.5800 -0.2621 -0.7917
37837SOL     OW31120  12.653   7.465  12.830  0.0640  0.0870  0.3529
37837SOL    HW131121  12.607   7.549  12.829 -1.7560 -0.8463  1.1799
37837SOL    HW231122  12.711   7.469  12.755 -0.3110  1.9038  0.1018
37838SOL     OW31123   9.957   0.056  14.058  0.2035 -0.5356 -0.0092
37838SOL    HW131124   9.916   0.140  14.034  1.7499  0.4773  0.7407
37838SOL    HW231125   9.980   0.066  14.150  2.7684 -0.7322 -0.5542
37839SOL     OW31126   2.042   4.476   0.136  0.4224 -0.2961 -0.4356
37839SOL    HW131127   2.097   4.506   0.209  0.5028 -1.9480  0.2210
37839SOL    HW231128   2.104   4.458   0.065  0.5388 -0.4045 -0.3072
37840SOL     OW31129   7.510   1.435   6.657 -0.3183  0.1063  0.0083
37840SOL    HW131130   7.469   1.521   6.655 -0.7072 -0.0726 -2.3241
37840SOL    HW231131   7.440   1.375   6.629 -0.1024 -1.0305  1.7072
37841SOL     OW31132  13.833   5.454   6.716  0.7838 -0.3898  0.1345
37841SOL    HW131133  13.894   5.453   6.791  2.5615  0.1307 -1.2370
37841SOL    HW231134  13.887   5.425   6.642 -0.4826  0.7146 -1.2658
37842SOL     OW31135   2.903   7.781   8.362 -0.0720  0.7475  0.1294
37842SOL    HW131136   2.834   7.827   8.410 -1.1244 -0.5918 -0.0311
37842SOL    HW231137   2.878   7.789   8.270 -1.0167 -1.2124  0.1693
37843SOL     OW31138   8.227   6.163  13.925  0.3052  0.0079  0.1475
37843SOL    HW131139   8.278   6.243  13.936 -1.7512  1.2004  1.7099
37843SOL    HW231140   8.154   6.189  13.869  0.2644 -1.1182 -0.3446
37844SOL     OW31141   8.653  11.450   7.973  0.3020 -0.0983  0.0989
37844SOL    HW131142   8.604  11.530   7.995 -0.5041  0.6683 -3.7595
37844SOL    HW231143   8.594  11.379   7.998 -0.7436  0.6608 -0.1146
37845SOL     OW31144   9.784   3.947  11.043 -0.0175 -0.4820  0.1478
37845SOL    HW131145   9.862   3.975  10.995  0.2378  1.9915  1.8192
37845SOL    HW231146   9.819   3.905  11.122 -0.3955 -0.8056  0.1431
37846SOL     OW31147   1.698   4.191   6.779 -0.1247  0.6604  0.3642
37846SOL    HW131148   1.621   4.181   6.724  0.7139 -0.2473 -0.6930
37846SOL    HW231149   1.731   4.279   6.758  0.9804 -0.1853 -1.7146
37847SOL     OW31150  11.342   3.576  10.425 -0.6182 -0.4499 -0.6290
37847SOL    HW131151  11.329   3.639  10.354 -0.1306 -0.3596 -0.6419
37847SOL    HW231152  11.437   3.560  10.425 -0.7137 -1.0040 -0.4739
37848SOL     OW31153   8.224   6.598  12.444  0.1260  0.3854 -0.4613
37848SOL    HW131154   8.295   6.607  12.508 -1.3935  0.8944  1.2430
37848SOL    HW231155   8.248   6.522  12.392 -0.2265 -2.4458  3.0980
37849SOL     OW31156   2.560  11.617   9.005 -0.0162  0.4973  0.4283
37849SOL    HW131157   2.484  11.672   9.025 -0.5420 -0.4753  1.2011
37849SOL    HW231158   2.625  11.678   8.970 -1.8643  1.0794 -2.2882
37850SOL     OW31159   1.363   1.071  13.889 -0.0471 -0.1986 -0.0339
37850SOL    HW131160   1.416   0.993  13.869  2.8443  1.3808  0.9181
37850SOL    HW231161   1.413   1.144  13.853 -1.0545  1.5154  1.8623
37851SOL     OW31162  10.407   0.459   4.217  0.3287  0.7255  0.1385
37851SOL    HW131163  10.345   0.391   4.193  0.4759  0.8934 -0.7668
37851SOL    HW231164  10.464   0.418   4.283 -0.1561  0.2784  0.2836
37852SOL     OW31165  11.618   6.027   3.613 -0.3682  0.4111  0.3332
37852SOL    HW131166  11.690   5.987   3.564  0.9178  1.0954  1.5968
37852SOL    HW231167  11.651   6.114   3.637 -2.1874  1.3235 -0.2993
37853SOL     OW31168  13.856   6.801   2.633 -0.1713  0.1583  0.0321
37853SOL    HW131169  13.830   6.821   2.723  1.4580  0.3048  0.4987
37853SOL    HW231170  13.940   6.846   2.621  0.5892 -1.4266 -0.9198
37854SOL     OW31171   0.841   6.237   9.173  0.1434  0.2982  0.0824
37854SOL    HW131172   0.752   6.220   9.143  0.7720  0.7180 -2.2308
37854SOL    HW231173   0.834   6.245   9.268 -1.9086 -1.8305  0.1875
37855SOL     OW31174  10.145  10.891   5.775  0.5626  0.3409 -0.3152
37855SOL    HW131175  10.137  10.964   5.713  1.3350  0.0489 -0.7809
37855SOL    HW231176  10.210  10.833   5.734  0.3307 -0.3544  0.2926
37856SOL     OW31177   9.923   2.347  13.127  0.4007 -0.4351  0.1355
37856SOL    HW131178   9.958   2.259  13.142  1.0224 -0.1138  0.6401
37856SOL    HW231179   9.950   2.396  13.205 -1.0007 -0.1095  0.4520
37857SOL     OW31180   5.361   4.585   2.023  0.7725 -0.5510  0.1323
37857SOL    HW131181   5.348   4.662   1.967  2.4047 -0.7932 -0.6489
37857SOL    HW231182   5.331   4.612   2.109 -0.9084  0.1599 -0.6352
37858SOL     OW31183  10.524  13.195   2.093 -0.0429  0.1737 -0.6504
37858SOL    HW131184  10.537  13.230   2.181  1.2823 -1.3297 -0.1900
37858SOL    HW231185  10.606  13.214   2.048  0.9889 -2.6521 -0.2016
37859SOL     OW31186   9.923   0.386   6.460 -0.0997 -0.2342  0.0659
37859SOL    HW131187   9.849   0.336   6.425  0.2926 -1.9413  1.5434
37859SOL    HW231188   9.929   0.360   6.552  0.9032  1.6525  0.5773
37860SOL     OW31189   8.682  10.939   4.500 -0.6990 -0.3447  0.0047
37860SOL    HW131190   8.645  10.995   4.431  1.6038  0.5041 -0.6451
37860SOL    HW231191   8.712  11.001   4.566  1.6541 -0.7496 -0.5988
37861SOL     OW31192   6.806   2.034   6.272 -0.3061  0.2170  1.0578
37861SOL    HW131193   6.830   2.124   6.295 -0.4960 -0.0601  2.4110
37861SOL    HW231194   6.731   2.044   6.214  1.3348  0.9962 -1.0932
37862SOL     OW31195   9.523   4.607  11.154 -0.4659 -0.2082 -0.6251
37862SOL    HW131196   9.480   4.689  11.175  1.3836  0.2076  1.9762
37862SOL    HW231197   9.476   4.541  11.206  0.4868 -0.1065  0.4171
37863SOL     OW31198   9.832  13.561   5.315  1.0359 -0.2260  0.2545
37863SOL    HW131199   9.840  13.549   5.409  0.8930  0.0099  0.2968
37863SOL    HW231200   9.919  13.593   5.287  1.4241 -1.3451  0.1379
37864SOL     OW31201   6.810  12.228  13.343  0.4400  0.4970  0.4357
37864SOL    HW131202   6.838  12.212  13.253  0.0508  1.4809  0.1317
37864SOL    HW231203   6.719  12.200  13.345  0.8181 -0.7716  0.8885
37865SOL     OW31204   0.325   0.640   5.816 -0.0645  0.0213 -0.4676
37865SOL    HW131205   0.385   0.643   5.891  0.8096 -1.5211 -1.0711
37865SOL    HW231206   0.283   0.554   5.822  0.1434 -0.1870 -1.8264
37866SOL     OW31207   2.483  11.789  11.288 -0.5209 -0.1557  0.2452
37866SOL    HW131208   2.453  11.767  11.376  0.0353  0.3282  0.5730
37866SOL    HW231209   2.410  11.835  11.248 -1.0144 -0.9609  0.2169
37867SOL     OW31210   5.687   2.914  12.135 -0.3095  0.3291  0.2031
37867SOL    HW131211   5.652   2.973  12.069 -1.0030  1.2339  1.3421
37867SOL    HW231212   5.754   2.965  12.181  0.3715 -0.3830  0.0276
37868SOL     OW31213   1.323   0.332   5.994 -0.2794  0.0218  0.0092
37868SOL    HW131214   1.358   0.260   6.046  1.3637  1.2462  0.6546
37868SOL    HW231215   1.340   0.410   6.046  0.2431  1.1506 -1.7703
37869SOL     OW31216  11.054   2.769   1.450 -0.6349  0.0150  0.4994
37869SOL    HW131217  10.996   2.695   1.468 -2.2441  1.5283  1.8857
37869SOL    HW231218  11.074   2.806   1.536 -2.0812  2.7563 -0.2041
37870SOL     OW31219   4.163   2.536   6.537  0.0697 -0.0291  0.5815
37870SOL    HW131220   4.097   2.497   6.479 -1.7294 -0.4997  2.8147
37870SOL    HW231221   4.170   2.474   6.610  3.4658 -0.2677  0.1787
37871SOL     OW31222  10.182   0.166   7.046 -0.1141  0.0773  0.0822
37871SOL    HW131223  10.204   0.240   6.990  2.4283 -0.2805  0.4906
37871SOL    HW231224  10.183   0.090   6.988 -1.3081  0.1696 -0.0730
37872SOL     OW31225   2.359   3.790  10.611 -0.3765  0.0534  0.2547
37872SOL    HW131226   2.353   3.778  10.706 -2.3869 -0.6088  0.0947
37872SOL    HW231227   2.290   3.735  10.576 -0.3024  1.0375 -1.5533
37873SOL     OW31228   5.866  12.556   4.937 -0.6122 -0.2053  0.2302
37873SOL    HW131229   5.897  12.476   4.894 -0.1583  0.6921 -1.2211
37873SOL    HW231230   5.805  12.526   5.004  0.5839 -1.8281  0.6499
37874SOL     OW31231   3.310   7.875   5.571 -0.4314  0.0737 -0.2145
37874SOL    HW131232   3.364   7.798   5.590  1.0882  0.9363 -0.9074
37874SOL    HW231233   3.322   7.890   5.477 -0.0055  1.6549  0.0616
37875SOL     OW31234  13.953   5.433  11.449  0.3749  0.1478  0.1142
37875SOL    HW131235  14.036   5.388  11.466 -0.6328 -1.3399  1.3579
37875SOL    HW231236  13.934   5.481  11.529  0.1791  0.7407 -0.2803
37876SOL     OW31237   7.624   1.228   3.533  0.0223 -0.1161 -0.0298
37876SOL    HW131238   7.540   1.234   3.576 -0.9305 -0.4970 -1.7279
37876SOL    HW231239   7.611   1.269   3.447  1.2665 -1.0361 -0.7152
37877SOL     OW31240   6.382   2.728  12.120  0.2505 -0.3380  0.0628
37877SOL    HW131241   6.329   2.731  12.040 -0.3129  0.0252  0.4442
37877SOL    HW231242   6.357   2.806  12.168  0.0354 -0.9338  0.9423
37878SOL     OW31243   0.535   4.131   9.408  0.7906 -0.1921  0.0717
37878SOL    HW131244   0.576   4.110   9.492  0.0267 -2.0618  0.0365
37878SOL    HW231245   0.443   4.147   9.430  0.8719  0.7486 -0.2446
37879SOL     OW31246   6.445   7.733   3.430 -0.9541 -0.6672 -0.7880
37879SOL    HW131247   6.434   7.811   3.486 -1.7059 -0.2562 -1.4804
37879SOL    HW231248   6.500   7.674   3.482  1.2648  1.0720 -1.0068
37880SOL     OW31249   5.078   8.022   4.423  0.0694 -0.2837 -0.3202
37880SOL    HW131250   4.989   7.989   4.430  0.3014 -0.8657 -0.0745
37880SOL    HW231251   5.083   8.090   4.491  0.0653 -0.8387  0.2532
37881SOL     OW31252   2.733  13.567   9.052  0.0774  0.2534  0.2186
37881SOL    HW131253   2.651  13.590   9.008  0.0053 -0.6320 -0.1304
37881SOL    HW231254   2.769  13.651   9.081  0.2227  0.8883 -1.6992
37882SOL     OW31255   1.347   4.014  11.976 -0.4691  0.3501  0.2201
37882SOL    HW131256   1.385   4.011  11.888  0.2442  0.4206  0.5150
37882SOL    HW231257   1.416   4.052  12.030 -0.4349 -0.8437  1.0486
37883SOL     OW31258   3.530  12.562   9.131  0.0242 -0.0696  0.0372
37883SOL    HW131259   3.612  12.522   9.163 -0.2185  1.0005  2.1912
37883SOL    HW231260   3.519  12.526   9.043  2.1659 -1.1968  0.1470
37884SOL     OW31261   4.692   8.040  10.186 -0.1897 -0.3637 -0.3236
37884SOL    HW131262   4.653   7.964  10.229 -0.0275  0.3697  1.2242
37884SOL    HW231263   4.750   8.077  10.253 -0.5133  1.2812 -0.9115
37885SOL     OW31264  11.978   1.169  13.663 -0.0683  0.3601 -0.5161
37885SOL    HW131265  11.907   1.109  13.686 -0.4848  1.3952  0.9902
37885SOL    HW231266  11.945   1.216  13.586  0.3225 -1.3833 -1.8078
37886SOL     OW31267  10.734   3.445  10.604  0.5399 -0.0626  0.1919
37886SOL    HW131268  10.820   3.432  10.644  0.1778 -2.5547  0.3137
37886SOL    HW231269  10.703   3.529  10.640  2.2888  0.1730  1.2533
37887SOL     OW31270  10.563   4.790   8.610 -0.1897 -0.0396  0.2035
37887SOL    HW131271  10.651   4.827   8.613  0.5053 -1.4023 -1.8463
37887SOL    HW231272  10.552   4.760   8.520 -3.2683  1.2546  0.0108
37888SOL     OW31273   1.775   2.282   5.737 -0.2826  0.0331 -0.3606
37888SOL    HW131274   1.839   2.322   5.796  0.7331 -0.7511 -0.9077
37888SOL    HW231275   1.696   2.335   5.749  0.3794  0.8672  0.5172
37889SOL     OW31276   6.132   2.700   2.783 -0.8022  0.0098  0.1419
37889SOL    HW131277   6.149   2.757   2.708 -0.7853 -0.7798 -0.4709
37889SOL    HW231278   6.059   2.644   2.755 -1.4380  0.3428  1.0762
37890SOL     OW31279  12.853   5.996   1.467 -0.4260 -0.3865  0.6296
37890SOL    HW131280  12.823   6.045   1.391  0.4550 -0.0127  0.5148
37890SOL    HW231281  12.856   5.905   1.437  1.2974 -0.0805 -0.2606
37891SOL     OW31282   2.112   7.165   6.803  0.2000 -0.6028  0.0252
37891SOL    HW131283   2.027   7.122   6.812 -0.5754  0.9131  0.3892
37891SOL    HW231284   2.139   7.149   6.713 -0.8609 -0.4553 -0.3305
37892SOL     OW31285   0.060   4.422   8.618  0.0451  0.1444  0.2530
37892SOL    HW131286   0.086   4.410   8.527  1.2871  0.5239  0.5363
37892SOL    HW231287  -0.005   4.353   8.634  1.8165 -1.7005 -0.1427
37893SOL     OW31288  11.122   5.299   8.786 -0.4402  0.0649 -0.9029
37893SOL    HW131289  11.155   5.216   8.753 -0.1885 -0.4694  0.6285
37893SOL    HW231290  11.201   5.352   8.798 -0.1502 -0.8166  1.6737
37894SOL     OW31291   1.937   1.634   5.986  0.2318  0.1549 -0.3941
37894SOL    HW131292   1.932   1.697   6.059 -0.6398 -0.5835  0.2078
37894SOL    HW231293   2.007   1.574   6.011 -2.3103 -2.2342  1.6670
37895SOL     OW31294   5.933   7.850   1.495 -0.0919 -0.5075 -0.0633
37895SOL    HW131295   5.936   7.930   1.442 -0.1827  0.5468  1.4593
37895SOL    HW231296   6.012   7.854   1.549 -1.7468  0.3341  2.4601
37896SOL     OW31297  12.903   0.541   8.705 -0.5812  0.0958  0.0273
37896SOL    HW131298  12.854   0.520   8.626 -1.0862  0.2272  0.3013
37896SOL    HW231299  12.992   0.512   8.686 -0.5254  0.8238 -0.8797
37897SOL     OW31300   2.962  11.264   6.714 -0.0552 -0.0312  0.3907
37897SOL    HW131301   2.909  11.279   6.635  0.7458  0.3231 -0.0880
37897SOL    HW231302   2.938  11.335   6.773  0.0349  0.2531  0.0918
37898SOL     OW31303   5.086  12.941  10.164  0.4231 -0.1860 -0.5869
37898SOL    HW131304   5.138  12.969  10.088 -1.4276  0.8916 -1.5298
37898SOL    HW231305   5.052  13.023  10.200 -2.1940 -0.9004 -1.2239
37899SOL     OW31306   7.212   6.376  12.025 -0.2741  0.3524 -0.2914
37899SOL    HW131307   7.257   6.397  11.943 -1.0942 -1.1893 -1.1804
37899SOL    HW231308   7.200   6.461  12.069 -1.0705  1.4189 -2.4316
37900SOL     OW31309  12.110   7.202  10.239 -0.0940  0.9109 -0.3419
37900SOL    HW131310  12.120   7.247  10.323 -0.1148 -0.5346  0.4762
37900SOL    HW231311  12.193   7.218  10.194  1.2325 -0.8692  1.2958
37901SOL     OW31312   7.472   0.507   4.294 -0.1978 -0.7585  0.0290
37901SOL    HW131313   7.541   0.570   4.274  0.9220 -1.5154  1.3314
37901SOL    HW231314   7.393   0.545   4.255  0.4193  1.4907  0.8098
37902SOL     OW31315  12.576   1.991   2.606  0.5043  0.6274 -0.9050
37902SOL    HW131316  12.665   1.965   2.630 -0.3853 -0.2127  1.8720
37902SOL    HW231317  12.567   2.080   2.639 -0.1812  0.0989  0.4068
37903SOL     OW31318   9.075  13.661   9.474  0.2049  0.1818 -0.0932
37903SOL    HW131319   9.041  13.751   9.478  0.9000  0.4215  0.7666
37903SOL    HW231320   9.149  13.667   9.412  0.3269  0.2296  0.0564
37904SOL     OW31321   3.092   2.063   4.514  0.1684  0.1355 -0.1414
37904SOL    HW131322   3.138   2.017   4.585 -0.1020 -0.4143 -0.3202
37904SOL    HW231323   3.029   2.000   4.482 -0.9184  0.9807  0.2791
37905SOL     OW31324   4.103   0.250   0.210 -0.2724 -0.4379  0.1407
37905SOL    HW131325   4.143   0.320   0.261  0.2633  0.0403 -0.8997
37905SOL    HW231326   4.151   0.251   0.127 -1.2341 -1.0757 -0.4359
37906SOL     OW31327  12.740   4.810   7.457 -0.0407  0.5072 -0.2164
37906SOL    HW131328  12.760   4.868   7.383 -0.7173 -1.3397 -1.9509
37906SOL    HW231329  12.645   4.817   7.467  0.1765  1.7131  1.3954
37907SOL     OW31330  11.638   7.213   4.019 -0.0983  0.2424 -0.5439
37907SOL    HW131331  11.608   7.124   4.004  1.2506 -0.5178  1.0479
37907SOL    HW231332  11.578   7.248   4.084 -1.2002  0.8691 -1.8399
37908SOL     OW31333  12.566   8.359   6.201  0.8446  0.5330 -0.0806
37908SOL    HW131334  12.514   8.283   6.175  1.8486 -0.5435  0.9358
37908SOL    HW231335  12.545   8.371   6.294  1.6054  0.7409  0.0667
37909SOL     OW31336   8.138   3.441   7.508 -0.1982 -0.6569  0.0091
37909SOL    HW131337   8.131   3.531   7.540  1.6503 -0.2367 -0.6217
37909SOL    HW231338   8.067   3.432   7.445  0.2450  0.7746 -0.7606
37910SOL     OW31339   0.118  10.514   0.050 -0.1159 -0.1676 -0.2228
37910SOL    HW131340   0.140  10.434   0.003  1.4957  0.2448 -0.2236
37910SOL    HW231341   0.159  10.504   0.136 -0.9292  0.1548  0.2147
37911SOL     OW31342   4.749   3.011   3.218 -0.1341  0.5708 -0.4212
37911SOL    HW131343   4.760   2.970   3.132 -1.5104  1.0851 -0.8645
37911SOL    HW231344   4.688   3.083   3.203 -0.5885  0.5187  1.0388
37912SOL     OW31345   5.301  14.048  12.707  0.0360 -0.7618 -0.4629
37912SOL    HW131346   5.280  14.027  12.616  0.0981 -1.4467 -0.3210
37912SOL    HW231347   5.314  13.964  12.750 -2.0418 -0.5841  0.6752
37913SOL     OW31348  13.348   7.135   1.893  0.4775  0.3206 -0.0631
37913SOL    HW131349  13.312   7.051   1.919 -1.6173  1.7251  2.0092
37913SOL    HW231350  13.381   7.173   1.974  1.6109  1.4001 -0.9947
37914SOL     OW31351  10.698  12.932   6.860  0.3340 -0.0066  0.1612
37914SOL    HW131352  10.640  12.856   6.852 -1.7641  1.5131  0.1856
37914SOL    HW231353  10.642  13.002   6.893  1.5698  2.2332 -2.1445
37915SOL     OW31354  12.012   9.352   4.887  0.4763 -0.2415 -0.0523
37915SOL    HW131355  12.081   9.286   4.881 -0.9305 -1.9457  1.2061
37915SOL    HW231356  11.980   9.361   4.797  2.2008  0.4770 -0.6225
37916SOL     OW31357   6.453   4.110  11.859  0.3058  0.1715 -0.2542
37916SOL    HW131358   6.378   4.075  11.907 -0.2627  2.0192  0.2451
37916SOL    HW231359   6.419   4.186  11.813  1.7484  0.6835 -0.5233
37917SOL     OW31360   9.614  13.606   4.403 -0.1306 -0.1551  0.3709
37917SOL    HW131361   9.557  13.559   4.343 -0.2570  0.1339  0.2646
37917SOL    HW231362   9.593  13.570   4.489 -1.0939  0.5484  0.4476
37918SOL     OW31363   9.335   9.315  13.026 -0.3904 -0.0935  0.1890
37918SOL    HW131364   9.399   9.360  13.082 -1.1777 -0.0092  1.0392
37918SOL    HW231365   9.368   9.329  12.937 -1.2837  3.3706  0.2659
37919SOL     OW31366   4.489   3.845   7.311  0.2943  0.5112  0.0744
37919SOL    HW131367   4.473   3.887   7.396  0.2287 -1.6699  1.2045
37919SOL    HW231368   4.517   3.757   7.333  0.4681 -0.0534 -2.2005
37920SOL     OW31369   3.469   2.871   2.679 -0.2883  0.2584  0.0451
37920SOL    HW131370   3.552   2.849   2.638 -0.0787  1.4821 -0.2237
37920SOL    HW231371   3.422   2.787   2.685  0.4940 -0.2581 -0.8263
37921SOL     OW31372  11.181   3.525  13.357 -0.5174  0.0269  0.5607
37921SOL    HW131373  11.222   3.461  13.299  0.9175 -0.4371  2.0138
37921SOL    HW231374  11.115   3.568  13.303  1.5436  0.4681 -1.7771
37922SOL     OW31375  11.029   4.938   3.759 -0.0322 -0.4557 -0.1922
37922SOL    HW131376  11.024   4.845   3.782 -0.2692 -0.5693 -0.6891
37922SOL    HW231377  11.088   4.941   3.683 -0.6715 -0.2982 -0.6907
37923SOL     OW31378   8.960  12.040   6.028  0.1793  0.3149  0.0238
37923SOL    HW131379   8.895  11.970   6.021 -0.0810  0.3890  1.5035
37923SOL    HW231380   9.016  12.028   5.951  1.4057 -2.8112  1.2308
37924SOL     OW31381   3.192   0.116   6.760  0.2790  0.3405 -0.1452
37924SOL    HW131382   3.212   0.029   6.727  1.5484  0.1119  1.1241
37924SOL    HW231383   3.263   0.171   6.728  0.1680  0.6409  0.1092
37925SOL     OW31384  10.430   5.857   2.486 -0.0602 -0.2597  0.0204
37925SOL    HW131385  10.479   5.888   2.562 -0.2900  1.1803 -0.3861
37925SOL    HW231386  10.345   5.828   2.522  0.1615 -0.4312  0.4102
37926SOL     OW31387   6.792   8.499   0.181  0.6327 -0.6863  0.3479
37926SOL    HW131388   6.854   8.451   0.234  2.1715  0.3894 -0.4124
37926SOL    HW231389   6.775   8.580   0.229  0.2990 -0.6965  0.2563
37927SOL     OW31390   3.973   5.855  10.754 -0.0106 -0.9302 -0.7729
37927SOL    HW131391   4.017   5.826  10.675  0.3215  0.0777 -0.9745
37927SOL    HW231392   4.041   5.896  10.807 -0.4675 -0.4095 -0.5656
37928SOL     OW31393   1.502   4.581   0.289  0.1732 -0.1602  0.4630
37928SOL    HW131394   1.587   4.540   0.300  0.2139 -0.0914  0.4053
37928SOL    HW231395   1.439   4.511   0.308  0.2321  0.0775  1.6230
37929SOL     OW31396   7.426   5.163  13.166  0.1053 -0.0351  0.2317
37929SOL    HW131397   7.351   5.109  13.192  0.2203  0.5591  1.9097
37929SOL    HW231398   7.501   5.105  13.174  0.0051 -0.1789  0.1340
37930SOL     OW31399   7.567   9.187   3.347 -0.2463  0.3516  0.2000
37930SOL    HW131400   7.484   9.193   3.394  0.3023  0.0319  1.2425
37930SOL    HW231401   7.593   9.278   3.334 -0.0937  0.4466  1.1067
37931SOL     OW31402   0.694  10.527  10.537 -0.0916  0.0871  0.1264
37931SOL    HW131403   0.755  10.500  10.606  0.1337  1.2685  0.4200
37931SOL    HW231404   0.706  10.462  10.467 -1.0493 -1.7107  1.5677
37932SOL     OW31405   2.500   1.727   4.732 -0.2577  0.6835 -0.2435
37932SOL    HW131406   2.418   1.773   4.714 -0.1535  0.9304 -0.0863
37932SOL    HW231407   2.532   1.766   4.813 -0.9249 -0.6764  0.7269
37933SOL     OW31408  13.210  10.051   7.788 -0.3931 -0.1719 -0.0606
37933SOL    HW131409  13.191  10.144   7.777 -0.3741 -0.2422 -0.6911
37933SOL    HW231410  13.125  10.010   7.806 -0.4005 -0.0358  0.2142
37934SOL     OW31411   6.365   2.702  12.963  0.5413  0.4729  0.5455
37934SOL    HW131412   6.397   2.663  13.044 -0.3197  0.8104  1.0549
37934SOL    HW231413   6.271   2.686  12.963  0.5923  0.0151 -0.6514
37935SOL     OW31414   0.816   2.443  13.860 -0.3864 -0.1253  0.4473
37935SOL    HW131415   0.910   2.444  13.875 -0.6595  0.3183  2.5236
37935SOL    HW231416   0.800   2.365  13.807  1.1478 -0.1581  0.0074
37936SOL     OW31417  10.633   8.165   1.673 -0.2331 -0.3914 -0.3330
37936SOL    HW131418  10.540   8.144   1.662 -0.5851 -0.7809  2.5900
37936SOL    HW231419  10.634   8.241   1.730  1.2646 -0.0720 -0.7461
37937SOL     OW31420   4.446   7.173  13.133  0.0775 -0.1020 -0.2120
37937SOL    HW131421   4.539   7.179  13.157  0.0411 -2.4313  0.8922
37937SOL    HW231422   4.445   7.115  13.057 -0.4756 -0.1990 -0.1347
37938SOL     OW31423   4.663   4.104  10.097 -0.6964  0.4039  0.3714
37938SOL    HW131424   4.718   4.077  10.024 -0.8160  1.7784 -0.2500
37938SOL    HW231425   4.595   4.037  10.102  1.0959 -1.4768  1.3092
37939SOL     OW31426   8.993  11.037   7.500  0.0411 -0.4168 -0.5421
37939SOL    HW131427   9.087  11.053   7.488  0.6208 -2.1454  1.2613
37939SOL    HW231428   8.964  11.107   7.558  0.9515 -1.6331  1.4520
37940SOL     OW31429   2.363   5.096   5.873 -0.6646  0.4853 -0.1006
37940SOL    HW131430   2.322   5.123   5.956  0.7971  1.5852  0.3159
37940SOL    HW231431   2.455   5.083   5.895 -0.1118  1.4203 -1.6595
37941SOL     OW31432   8.320   8.802   4.676  0.9604 -0.1055 -0.0950
37941SOL    HW131433   8.230   8.820   4.649  1.9601  0.7644 -3.3472
37941SOL    HW231434   8.336   8.862   4.749 -0.7037  0.6484 -0.3029
37942SOL     OW31435  12.136   5.921   4.248 -0.1001  0.4969  0.5105
37942SOL    HW131436  12.041   5.919   4.252 -0.0770  0.9659  1.4718
37942SOL    HW231437  12.158   5.872   4.168 -0.9934 -2.6909  2.0650
37943SOL     OW31438   1.836   8.371  10.914  0.1295 -0.2467 -0.2410
37943SOL    HW131439   1.909   8.424  10.948  0.6181 -0.6643 -0.6250
37943SOL    HW231440   1.860   8.281  10.936  0.9972 -0.6661 -2.6054
37944SOL     OW31441   9.689   5.002   1.823 -0.3469  0.4332 -0.6079
37944SOL    HW131442   9.719   4.936   1.886  0.0695  0.8123 -0.4022
37944SOL    HW231443   9.669   4.953   1.744 -1.7410 -0.1866  0.0836
37945SOL     OW31444   1.239  10.340  11.494  0.0021 -0.1321 -0.3837
37945SOL    HW131445   1.317  10.381  11.457  0.1604 -0.7286 -0.7183
37945SOL    HW231446   1.244  10.249  11.466 -1.6866  0.1689 -1.8521
37946SOL     OW31447  12.169   0.444  13.251  0.2068  0.1428 -0.1120
37946SOL    HW131448  12.233   0.380  13.280  0.0458  0.0129 -0.0371
37946SOL    HW231449  12.087   0.395  13.246  0.5019 -0.2082 -2.2475
37947SOL     OW31450   1.522  10.481  12.829 -0.1355  0.3702 -0.6986
37947SOL    HW131451   1.494  10.453  12.916  0.8739 -0.0501 -0.4894
37947SOL    HW231452   1.612  10.449  12.821  0.1118  1.2023 -1.5393
37948SOL     OW31453   7.358   8.612   2.598 -0.0698  0.1440  0.2241
37948SOL    HW131454   7.381   8.674   2.667  1.1198 -1.1962  1.0970
37948SOL    HW231455   7.336   8.532   2.645  0.9638 -0.8579 -0.9361
37949SOL     OW31456   6.240   9.807   2.680  0.0523 -0.0053  0.6678
37949SOL    HW131457   6.334   9.823   2.683  0.1049 -0.1206 -0.2416
37949SOL    HW231458   6.207   9.867   2.612 -0.9010  1.8043  2.5906
37950SOL     OW31459   7.322  10.641   1.703  0.3351 -0.3416  0.0374
37950SOL    HW131460   7.363  10.582   1.639  0.3675 -0.6372  0.3282
37950SOL    HW231461   7.247  10.677   1.657  1.3514  0.8132 -0.7812
37951SOL     OW31462   7.956   9.909   1.860 -0.3893 -0.3637  0.0646
37951SOL    HW131463   8.031   9.899   1.802  0.8780 -0.9539  1.7518
37951SOL    HW231464   7.922   9.821   1.871 -2.0170  0.0047 -1.4718
37952SOL     OW31465   6.894  11.435   1.327 -0.2192 -0.3594  0.2013
37952SOL    HW131466   6.897  11.515   1.380 -1.9596 -0.6977  0.8734
37952SOL    HW231467   6.814  11.443   1.275  0.5464 -0.8492 -1.1196
37953SOL     OW31468   7.643   2.819   8.845 -0.6851  0.4289  0.3489
37953SOL    HW131469   7.581   2.747   8.834 -0.1250  0.0187 -0.2611
37953SOL    HW231470   7.684   2.802   8.929 -1.8024  1.0339  1.0372
37954SOL     OW31471   3.921   8.446   2.139 -0.3619 -0.0023 -0.2185
37954SOL    HW131472   3.828   8.431   2.151 -0.3649  0.1516 -0.0458
37954SOL    HW231473   3.947   8.384   2.070 -0.3400 -0.9268  0.6030
37955SOL     OW31474   5.821   7.205   6.528 -0.1408 -0.4309 -0.3707
37955SOL    HW131475   5.755   7.274   6.533 -0.0567 -0.4382  1.2711
37955SOL    HW231476   5.904   7.249   6.545  0.0066 -0.7996 -0.1211
37956SOL     OW31477   9.366   9.152  14.048  1.0474 -0.5550 -0.5773
37956SOL    HW131478   9.332   9.218  13.988 -1.7702 -1.3572  0.0169
37956SOL    HW231479   9.387   9.200  14.128 -1.9733 -0.3712  0.2359
37957SOL     OW31480   6.233   8.235   3.054  0.0991  0.1889 -0.4419
37957SOL    HW131481   6.216   8.291   2.979  0.9003  0.5940 -0.3353
37957SOL    HW231482   6.169   8.164   3.047 -0.8001  1.0145 -0.6838
37958SOL     OW31483   9.931  13.433   7.042  0.0789 -0.1556  0.8267
37958SOL    HW131484   9.858  13.495   7.036  1.4134  1.4836  0.9330
37958SOL    HW231485   9.981  13.447   6.962  1.3638  0.1829  1.6564
37959SOL     OW31486  12.466   9.682   5.703  0.1955 -0.3657  0.1121
37959SOL    HW131487  12.390   9.736   5.724 -0.7092 -1.9753  1.1831
37959SOL    HW231488  12.493   9.710   5.616 -0.3998  1.5995  0.5187
37960SOL     OW31489   6.121   5.736  10.152 -0.2023  0.0373 -0.3435
37960SOL    HW131490   6.047   5.792  10.178  0.0884  0.0478  0.4931
37960SOL    HW231491   6.080   5.661  10.110 -0.7187 -0.0609  0.3083
37961SOL     OW31492   7.062   1.462   4.711 -0.1486  0.8110 -0.1512
37961SOL    HW131493   7.109   1.467   4.794  0.0014 -0.4878 -0.1340
37961SOL    HW231494   6.970   1.452   4.735  0.0302 -1.0026 -0.0753
37962SOL     OW31495   2.165  12.056   1.985 -0.5830  0.3882  0.0450
37962SOL    HW131496   2.155  11.978   2.039  1.6639  0.3098  0.4529
37962SOL    HW231497   2.160  12.024   1.895  1.0507 -0.3874  0.2034
37963SOL     OW31498   4.399   1.794  11.180 -0.1760 -0.4614 -0.4885
37963SOL    HW131499   4.392   1.774  11.273  2.0986  1.2203  0.1287
37963SOL    HW231500   4.403   1.709  11.137 -1.0202 -1.2607  0.9439
37964SOL     OW31501   4.972   6.525   1.516  0.9306  0.0810  0.0041
37964SOL    HW131502   5.031   6.550   1.446  1.3757 -0.8783  0.0209
37964SOL    HW231503   4.948   6.435   1.496  1.3516 -0.3355  1.2636
37965SOL     OW31504  13.545   9.402  12.252  0.1609 -0.4016 -0.9673
37965SOL    HW131505  13.479   9.339  12.282 -0.9463  1.0501 -0.2272
37965SOL    HW231506  13.627   9.372  12.292 -0.7614 -0.1173  1.3041
37966SOL     OW31507  12.015  10.244   9.888 -0.5136  0.0978 -0.3672
37966SOL    HW131508  12.035  10.154   9.913 -2.0280 -0.0523  0.4431
37966SOL    HW231509  11.980  10.238   9.799 -1.8655 -0.3157  0.1689
37967SOL     OW31510  11.600  13.167   2.853  0.3369 -0.3545  0.1832
37967SOL    HW131511  11.636  13.169   2.942  1.4338 -1.8120 -0.1805
37967SOL    HW231512  11.574  13.257   2.835  1.5856  0.2785  1.4015
37968SOL     OW31513  13.993   8.815   3.965 -0.2911 -0.1194  0.8249
37968SOL    HW131514  13.927   8.855   3.909  1.6931  2.0386 -0.1321
37968SOL    HW231515  13.991   8.865   4.046  1.2681  1.1678  0.1349
37969SOL     OW31516   4.607  12.423  10.294  0.1283  0.0521 -0.0603
37969SOL    HW131517   4.537  12.379  10.245  0.0219 -0.1508  0.2709
37969SOL    HW231518   4.662  12.462  10.226  0.8575 -1.5298 -0.4287
37970SOL     OW31519  13.258   0.765  13.366  0.4815 -0.5265 -0.2428
37970SOL    HW131520  13.237   0.724  13.283  2.9889  0.9278 -1.7245
37970SOL    HW231521  13.266   0.692  13.427  1.0038 -1.8794 -1.8579
37971SOL     OW31522   3.295  13.302   1.087 -0.4943  0.2338  0.0164
37971SOL    HW131523   3.252  13.216   1.091 -1.3893  0.6807  0.1297
37971SOL    HW231524   3.325  13.309   0.996 -0.7822 -0.0167 -0.1000
37972SOL     OW31525   4.466   0.878   3.277 -0.1126  0.5423 -0.4278
37972SOL    HW131526   4.480   0.965   3.315 -0.6517  1.4804 -2.3118
37972SOL    HW231527   4.396   0.890   3.213 -0.6555 -1.4338 -0.2608
37973SOL     OW31528   1.988   3.058   9.421 -0.1162  0.2421  0.1020
37973SOL    HW131529   2.037   3.002   9.482  1.9076  0.7332 -0.9805
37973SOL    HW231530   1.898   3.053   9.452  0.0528 -3.0517  0.4803
37974SOL     OW31531   3.512   6.291   6.489 -0.6841 -0.1616  0.6403
37974SOL    HW131532   3.442   6.356   6.480 -0.6335  0.1670  2.3615
37974SOL    HW231533   3.489   6.241   6.567  0.9649 -0.0703  1.2337
37975SOL     OW31534   0.343   3.491   7.163  0.3360 -0.3355  0.1645
37975SOL    HW131535   0.308   3.471   7.250  2.6769 -0.6052  1.1410
37975SOL    HW231536   0.373   3.407   7.129 -1.7420 -0.4497 -1.5388
37976SOL     OW31537  10.982   1.182  13.833 -0.1972  0.3601  0.2302
37976SOL    HW131538  10.918   1.244  13.868 -0.5526  0.4477 -0.5583
37976SOL    HW231539  10.961   1.175  13.740  0.2006 -0.5122  0.1940
37977SOL     OW31540   5.960   7.430  12.995  0.4486  0.1177 -0.1162
37977SOL    HW131541   5.965   7.347  13.043 -0.3764  0.8216  1.2590
37977SOL    HW231542   6.021   7.487  13.041  0.1926  0.5898 -0.3650
37978SOL     OW31543   7.715   1.306   7.327 -0.0525 -0.2480  0.3405
37978SOL    HW131544   7.780   1.347   7.385 -1.5316 -0.3801  2.2023
37978SOL    HW231545   7.721   1.213   7.347 -2.8707 -0.0186  2.9622
37979SOL     OW31546   6.875  12.742   4.869 -0.0440  0.2089 -0.2424
37979SOL    HW131547   6.858  12.823   4.917  0.3855  0.8949 -1.2260
37979SOL    HW231548   6.970  12.738   4.862 -0.1201  0.4466 -1.5761
37980SOL     OW31549   3.619  12.727   8.404 -0.3996 -0.3236 -0.5557
37980SOL    HW131550   3.616  12.631   8.403  0.7630 -0.4557  1.3732
37980SOL    HW231551   3.541  12.753   8.453  1.7228 -0.7078  3.5259
37981SOL     OW31552   8.840  11.956   1.903  0.2016  0.1496 -0.3531
37981SOL    HW131553   8.893  12.023   1.860  1.0151 -0.3615 -0.1581
37981SOL    HW231554   8.806  11.903   1.831  0.6625 -0.0453 -0.4247
37982SOL     OW31555  11.208   8.098  13.402 -0.5140  0.0289  0.8534
37982SOL    HW131556  11.125   8.130  13.438 -0.4976 -0.1700  1.0746
37982SOL    HW231557  11.202   8.003  13.411  0.1334  0.0616  1.7500
37983SOL     OW31558   5.009  10.471   2.426 -0.2477 -0.0975 -0.1166
37983SOL    HW131559   4.916  10.490   2.423 -0.7054 -1.9349 -4.1836
37983SOL    HW231560   5.049  10.533   2.365  0.7889 -0.9665 -0.3575
37984SOL     OW31561  13.896   5.567   1.099 -0.2738  0.4676  0.1784
37984SOL    HW131562  13.804   5.557   1.077 -0.5017  0.7644  0.9635
37984SOL    HW231563  13.920   5.486   1.144  0.0836  0.0320 -0.7686
37985SOL     OW31564   4.418  12.321  13.877  0.2636  0.2671  0.3579
37985SOL    HW131565   4.484  12.252  13.865 -0.2343 -0.0203 -0.8807
37985SOL    HW231566   4.468  12.397  13.906  1.1537  0.0702 -0.6015
37986SOL     OW31567   6.594  13.399   4.083 -0.5007  0.6950  0.4279
37986SOL    HW131568   6.574  13.373   3.993 -0.1814  0.5205  0.4067
37986SOL    HW231569   6.660  13.468   4.075 -0.4357  0.6467  0.5287
37987SOL     OW31570   3.930  10.069   3.856  0.2239 -0.9743 -0.0113
37987SOL    HW131571   3.891  10.132   3.917  1.0602 -0.6010  0.1566
37987SOL    HW231572   3.859  10.047   3.795 -0.2167 -0.2381  0.2249
37988SOL     OW31573   3.622   2.900  13.560 -0.0560 -0.1969 -0.1528
37988SOL    HW131574   3.561   2.941  13.621 -0.2893 -1.5983  0.5950
37988SOL    HW231575   3.678   2.845  13.616  0.7982 -0.2278 -1.0186
37989SOL     OW31576  11.506   8.581   3.463 -0.6417 -0.4006 -0.0568
37989SOL    HW131577  11.449   8.605   3.389  0.8610  0.0558 -1.1281
37989SOL    HW231578  11.541   8.495   3.439 -0.8157 -0.6510  0.5655
37990SOL     OW31579  12.689   5.009   0.599  0.0990 -0.0365  0.0765
37990SOL    HW131580  12.630   5.056   0.539  2.0579  0.0460 -1.9247
37990SOL    HW231581  12.658   4.918   0.594 -2.0669  0.5181  1.9285
37991SOL     OW31582  10.289   1.881   4.430 -0.1751  0.0509  0.4463
37991SOL    HW131583  10.251   1.937   4.363  1.1160  0.3155 -0.0879
37991SOL    HW231584  10.250   1.912   4.512 -0.0144  1.2571  0.0853
37992SOL     OW31585   9.091   1.586  11.478 -0.0914  0.0925 -0.3189
37992SOL    HW131586   9.028   1.583  11.406 -1.2330 -2.6189  0.6248
37992SOL    HW231587   9.038   1.569  11.556  1.3358  1.3649  0.9893
37993SOL     OW31588   3.244  11.046   2.875 -0.0159 -0.0082  0.0888
37993SOL    HW131589   3.335  11.043   2.903 -0.3218 -1.4232  1.0295
37993SOL    HW231590   3.247  11.083   2.787  1.4772 -0.1526  0.0633
37994SOL     OW31591   3.684   3.670  12.243  0.6372 -0.3286  0.0594
37994SOL    HW131592   3.699   3.582  12.208 -1.8864 -1.3823  1.3987
37994SOL    HW231593   3.628   3.712  12.178 -1.4632 -1.1955  1.2072
37995SOL     OW31594   0.180   4.808  11.567  0.0739  0.0068 -0.7547
37995SOL    HW131595   0.138   4.871  11.508  1.1193  0.0388 -1.4925
37995SOL    HW231596   0.110   4.749  11.593 -0.2586 -0.5069 -2.6952
37996SOL     OW31597   7.469   2.541   2.227 -0.6291 -0.0343 -0.4762
37996SOL    HW131598   7.406   2.598   2.185  0.3933  1.1199 -0.5070
37996SOL    HW231599   7.417   2.467   2.260 -2.1383  1.3962  0.4603
37997SOL     OW31600   9.584   4.397   3.518  0.2465 -0.0336 -0.1336
37997SOL    HW131601   9.567   4.448   3.439 -0.2060  1.2268  0.7442
37997SOL    HW231602   9.658   4.341   3.495 -0.1879 -0.0458 -1.5914
37998SOL     OW31603  10.211   4.134   7.458 -0.2349 -0.2698 -0.3556
37998SOL    HW131604  10.147   4.070   7.428 -1.2055  0.2582  0.5435
37998SOL    HW231605  10.209   4.203   7.391 -0.2356 -0.4821 -0.5768
37999SOL     OW31606   1.166   2.787  11.288  0.1268 -0.0038 -0.4146
37999SOL    HW131607   1.093   2.835  11.249 -0.1834 -1.1548 -1.2970
37999SOL    HW231608   1.225   2.769  11.215  2.0024  2.0242  0.4824
38000SOL     OW31609  12.981   5.469   1.266 -0.2738 -0.3653 -0.2109
38000SOL    HW131610  13.040   5.409   1.220  0.9789  0.5109  0.1792
38000SOL    HW231611  13.039   5.518   1.325 -1.5365 -0.0730  0.8365
38001SOL     OW31612   1.201   1.848  10.911 -0.2059  0.6603  0.0643
38001SOL    HW131613   1.169   1.876  10.997 -0.7671  1.8255 -0.5106
38001SOL    HW231614   1.124   1.845  10.855  0.1965  0.1765 -0.4901
38002SOL     OW31615  10.578  13.868   8.539  0.5415  0.8761 -0.2858
38002SOL    HW131616  10.641  13.852   8.610  0.7529 -0.9518 -0.8112
38002SOL    HW231617  10.498  13.824   8.569  0.8206 -0.4636 -1.3945
38003SOL     OW31618  12.756   7.351   1.677  0.4313  0.4509 -0.5910
38003SOL    HW131619  12.700   7.334   1.752 -0.6778  2.3431 -0.9206
38003SOL    HW231620  12.794   7.266   1.655 -1.4211 -0.6859  0.3677
38004SOL     OW31621   1.652   7.598   5.569 -0.0673  0.1853  0.2497
38004SOL    HW131622   1.733   7.647   5.552 -0.3558  0.3629 -0.6339
38004SOL    HW231623   1.625   7.627   5.657  1.1370 -0.3245  0.8136
38005SOL     OW31624  13.191   6.356   9.792 -0.2334  0.1333  0.6848
38005SOL    HW131625  13.159   6.415   9.861 -0.6184  0.8060 -0.0455
38005SOL    HW231626  13.232   6.284   9.839 -0.8081  0.3993  1.6253
38006SOL     OW31627   4.512   3.469   6.505  0.1235  0.0699 -0.3461
38006SOL    HW131628   4.494   3.457   6.598 -2.4502 -1.6717 -0.9592
38006SOL    HW231629   4.526   3.380   6.471  2.3479  0.7712 -1.4411
38007SOL     OW31630   5.670  10.171   2.355  0.7189 -0.2521 -0.1763
38007SOL    HW131631   5.611  10.121   2.413 -1.7330  0.9241 -1.5125
38007SOL    HW231632   5.704  10.241   2.411 -1.0149  0.4234  0.0809
38008SOL     OW31633  10.095  11.961  12.485  0.0557  0.2051  0.2220
38008SOL    HW131634  10.011  11.961  12.437  1.1131  0.9559 -1.7601
38008SOL    HW231635  10.119  12.053  12.490  1.0949 -0.0529  0.1176
38009SOL     OW31636   5.393   9.357   0.044  0.2126 -0.2277 -0.9630
38009SOL    HW131637   5.405   9.443   0.004 -0.0940  0.7366  0.9032
38009SOL    HW231638   5.480   9.331   0.072  0.4133 -0.8644 -2.1079
38010SOL     OW31639  13.269   8.220   0.948  0.3258  0.0739 -0.8668
38010SOL    HW131640  13.174   8.213   0.947  0.2400  1.1063 -1.2912
38010SOL    HW231641  13.289   8.272   1.027  0.5948 -0.7874 -0.3595
38011SOL     OW31642  13.060   4.264   6.346 -0.1797 -0.0273 -0.0604
38011SOL    HW131643  12.976   4.259   6.300  0.5420  0.3905 -1.4754
38011SOL    HW231644  13.036   4.272   6.438 -1.7236  0.6595 -0.4829
38012SOL     OW31645   3.760   9.949   3.658  0.2160  0.3422  0.1069
38012SOL    HW131646   3.682   9.968   3.710  0.0682  1.9361 -0.6213
38012SOL    HW231647   3.741   9.987   3.572  0.2822 -2.5632 -1.3050
38013SOL     OW31648  13.695   1.399  13.518  0.4804 -0.4539 -0.0099
38013SOL    HW131649  13.740   1.344  13.583  0.2729 -1.4120 -0.6459
38013SOL    HW231650  13.734   1.372  13.434  0.4155  0.4323 -0.3272
38014SOL     OW31651   0.450   7.954   9.420  0.7100 -0.3241  0.0373
38014SOL    HW131652   0.364   7.996   9.416  0.6499 -0.3809  0.6889
38014SOL    HW231653   0.502   8.012   9.476  0.6071 -1.1392  1.0030
38015SOL     OW31654   1.360   3.830   6.155  0.0610 -0.3293  0.4225
38015SOL    HW131655   1.403   3.758   6.202  0.4720  0.2728  0.9811
38015SOL    HW231656   1.316   3.880   6.224  0.9012  0.7285  0.2223
38016SOL     OW31657   8.937   9.323  11.782 -0.8014 -0.0683  0.1881
38016SOL    HW131658   9.023   9.300  11.820 -1.6494  0.2470  2.4890
38016SOL    HW231659   8.947   9.308  11.688  1.1488 -2.0185  0.6244
38017SOL     OW31660   2.604   5.162   3.099  0.5097  0.2667 -0.0386
38017SOL    HW131661   2.525   5.211   3.077 -0.3189 -1.5452 -1.3581
38017SOL    HW231662   2.590   5.133   3.189 -1.1704 -1.4753 -0.8016
38018SOL     OW31663  11.639   6.605  13.607  0.3712 -0.1290 -0.9397
38018SOL    HW131664  11.624   6.511  13.595 -0.4538  0.0622 -1.4741
38018SOL    HW231665  11.621   6.644  13.522 -0.6179  0.6762 -0.3793
38019SOL     OW31666   6.064   9.241   9.768  0.1407  0.1614 -0.2418
38019SOL    HW131667   6.137   9.182   9.783  0.0433 -0.0456 -0.5790
38019SOL    HW231668   5.989   9.183   9.755  0.6067  0.1918 -3.9175
38020SOL     OW31669  13.474   4.322   3.173 -0.0398  0.0189 -0.1796
38020SOL    HW131670  13.469   4.393   3.237  0.5638  0.4162 -0.5505
38020SOL    HW231671  13.496   4.244   3.224  1.9266  0.6020 -0.0338
38021SOL     OW31672   3.495   4.381  12.347 -0.2908  0.0754 -0.1645
38021SOL    HW131673   3.427   4.373  12.280  0.5395  0.3460 -1.0606
38021SOL    HW231674   3.486   4.471  12.380  0.2477  0.4301 -0.9680
38022SOL     OW31675   5.206  12.102   6.558  0.1169 -0.3884  0.3417
38022SOL    HW131676   5.255  12.107   6.476  0.5708  1.0352  0.6665
38022SOL    HW231677   5.179  12.193   6.575  1.0123 -0.4324  2.3379
38023SOL     OW31678   9.632   7.561   5.110 -0.5462 -0.2356 -0.1558
38023SOL    HW131679   9.625   7.631   5.045  0.8378  0.6313  0.5644
38023SOL    HW231680   9.577   7.591   5.183  0.0823  0.1535  0.1711
38024SOL     OW31681  12.772   3.585  13.138 -0.2996  0.0694 -0.1258
38024SOL    HW131682  12.685   3.570  13.101 -0.0701 -1.8399  0.0258
38024SOL    HW231683  12.756   3.600  13.231 -0.4028 -2.0382  0.2542
38025SOL     OW31684   5.159   8.864   4.203  0.3998 -0.0486  0.7149
38025SOL    HW131685   5.140   8.848   4.111  0.4951 -0.4871  0.7701
38025SOL    HW231686   5.090   8.817   4.250  0.1712  0.4301  0.8608
38026SOL     OW31687  13.603   3.919   4.038  0.0393 -0.1779 -0.3100
38026SOL    HW131688  13.513   3.919   4.006  0.4319  1.5167 -1.5870
38026SOL    HW231689  13.656   3.929   3.959  1.2373  0.7449  0.5649
38027SOL     OW31690   9.109  10.236   4.265  0.4856 -0.4438  0.3539
38027SOL    HW131691   9.193  10.238   4.310  0.1676 -1.7276  1.0489
38027SOL    HW231692   9.114  10.161   4.206  0.3428  0.3356 -0.6855
38028SOL     OW31693  10.564  10.190  13.606 -0.1986 -0.1786 -0.1813
38028SOL    HW131694  10.573  10.144  13.522  0.1875 -0.0980 -0.1857
38028SOL    HW231695  10.617  10.268  13.596  0.0468 -0.2895  0.2270
38029SOL     OW31696   4.696  11.586  10.436  0.0990  0.3752  0.1539
38029SOL    HW131697   4.748  11.666  10.448 -0.1587  0.7988 -1.3003
38029SOL    HW231698   4.612  11.606  10.477 -0.0370  0.9412 -0.3855
38030SOL     OW31699   5.524   2.079  11.957 -0.1175  0.1319  0.0369
38030SOL    HW131700   5.496   2.115  11.873 -0.5625 -0.0383  0.1082
38030SOL    HW231701   5.562   1.994  11.935  0.6758  0.5128 -0.1002
38031SOL     OW31702   1.532   9.434   3.333  0.0741 -0.0197  0.1544
38031SOL    HW131703   1.567   9.404   3.249 -1.0194 -0.6398 -0.1022
38031SOL    HW231704   1.487   9.516   3.313  1.3828  0.7996  0.4915
38032SOL     OW31705   3.154   7.948   9.973 -0.6189  0.4690 -0.0870
38032SOL    HW131706   3.104   7.962  10.053  1.2868  0.6669  1.1119
38032SOL    HW231707   3.157   7.853   9.963 -0.4193  0.4323  0.3462
38033SOL     OW31708   5.313  11.999   2.971  0.3111  0.2583 -0.1006
38033SOL    HW131709   5.220  12.018   2.978 -0.0758  0.5745 -4.0633
38033SOL    HW231710   5.320  11.905   2.990 -1.3041 -0.3752 -2.3139
38034SOL     OW31711  13.385   1.330   2.110  0.0552  0.1883  0.1091
38034SOL    HW131712  13.474   1.346   2.078 -0.8122  1.8543 -1.7359
38034SOL    HW231713  13.372   1.236   2.103  1.4599  0.0083 -0.2038
38035SOL     OW31714   5.570   0.681   6.886 -0.1739  0.9421 -0.2140
38035SOL    HW131715   5.621   0.715   6.813 -1.2327  2.1019 -0.4446
38035SOL    HW231716   5.503   0.626   6.845 -0.7855  1.6152 -0.1430
38036SOL     OW31717   3.160   0.258  12.339 -0.3164  0.4091  0.1828
38036SOL    HW131718   3.137   0.262  12.246 -0.2446  1.3520  0.1929
38036SOL    HW231719   3.211   0.338  12.354 -0.4427  0.3319  1.0616
38037SOL     OW31720   5.885  13.332   5.021  0.0003  0.0147 -0.2055
38037SOL    HW131721   5.896  13.288   4.937 -3.4266 -1.8086  0.1148
38037SOL    HW231722   5.888  13.262   5.086  0.8201  1.1630  1.0460
38038SOL     OW31723   8.741  12.747   4.102 -0.4716 -0.3055  0.3460
38038SOL    HW131724   8.677  12.683   4.074 -0.6412  0.5121 -1.2093
38038SOL    HW231725   8.689  12.821   4.134 -0.2806 -0.2372  0.5073
38039SOL     OW31726   9.082  10.658   6.132 -0.2374  0.2316  0.2072
38039SOL    HW131727   9.108  10.725   6.068 -0.4016  3.2372  3.0072
38039SOL    HW231728   9.162  10.643   6.183 -0.4936 -0.9841  0.2721
38040SOL     OW31729   0.968   1.177   6.862 -0.1977 -0.2334  0.0265
38040SOL    HW131730   0.955   1.263   6.904  0.0001 -0.5999  0.8475
38040SOL    HW231731   0.881   1.137   6.864 -0.6640  0.5743 -1.8198
38041SOL     OW31732   5.359  13.594   4.651  0.1679 -0.0083 -0.0256
38041SOL    HW131733   5.418  13.636   4.714  0.5767 -0.2615 -0.2308
38041SOL    HW231734   5.336  13.510   4.691 -1.1315  0.6556  0.6561
38042SOL     OW31735  12.544  12.486   7.040  0.1941 -0.0707 -0.2129
38042SOL    HW131736  12.449  12.503   7.040 -0.3760 -2.7434 -1.2729
38042SOL    HW231737  12.557  12.425   6.968  2.6898 -0.0925  0.1852
38043SOL     OW31738  12.349   5.233   1.576 -0.1928 -0.4903 -0.3553
38043SOL    HW131739  12.358   5.209   1.667  1.1337  0.8528 -0.0939
38043SOL    HW231740  12.254   5.235   1.561 -0.4152 -1.0077  0.8932
38044SOL     OW31741  11.270  10.954   0.088  0.1541  0.0335  0.1882
38044SOL    HW131742  11.234  10.998   0.165  0.1542  1.5685 -0.6464
38044SOL    HW231743  11.315  11.023   0.040  2.1605 -1.3376 -0.0425
38045SOL     OW31744  12.815  13.854  12.421 -0.2415  0.3969 -0.1850
38045SOL    HW131745  12.845  13.911  12.492 -1.5012 -0.3267  0.9611
38045SOL    HW231746  12.798  13.914  12.348  0.7408  1.1910  0.2087
38046SOL     OW31747  12.976   2.542  13.672 -0.5460  0.6127  0.2841
38046SOL    HW131748  13.048   2.549  13.609 -0.7937 -1.7499 -0.3691
38046SOL    HW231749  12.918   2.614  13.650 -0.9972 -0.5354 -2.7652
38047SOL     OW31750   9.271   5.464   1.688 -0.3741 -0.3984  0.2317
38047SOL    HW131751   9.267   5.477   1.593  0.1329  0.0733  0.2650
38047SOL    HW231752   9.213   5.390   1.705  0.9631 -1.7031 -0.6703
38048SOL     OW31753   9.142  11.282   0.975  0.4840  0.7364 -0.1164
38048SOL    HW131754   9.132  11.367   1.018 -0.5379  0.5922 -0.0532
38048SOL    HW231755   9.059  11.237   0.990  0.0867  0.6762 -2.2471
38049SOL     OW31756   5.333   0.296  13.693  0.0053  0.2606 -0.3402
38049SOL    HW131757   5.275   0.368  13.716 -0.0392 -0.2420  1.2293
38049SOL    HW231758   5.344   0.304  13.598 -1.0877  1.4952 -0.3973
38050SOL     OW31759   3.041   0.683   8.926  0.4902  0.7408 -0.3543
38050SOL    HW131760   3.083   0.628   8.860  1.1750 -1.5747  1.8588
38050SOL    HW231761   3.113   0.712   8.982 -0.4298 -0.4973  1.5457
38051SOL     OW31762  12.440  11.725   9.312 -0.2658  0.4829  0.6614
38051SOL    HW131763  12.440  11.749   9.220 -0.3421  0.8066  0.7446
38051SOL    HW231764  12.531  11.704   9.331 -0.5436 -1.3976  0.0512
38052SOL     OW31765  14.013   0.611   7.830  0.1652  0.4268  0.3214
38052SOL    HW131766  13.978   0.672   7.896 -0.9867 -0.3745  0.4835
38052SOL    HW231767  14.067   0.550   7.881 -0.1577  0.2249  0.4221
38053SOL     OW31768   0.848   3.917   2.825  0.4751  0.1592  0.1454
38053SOL    HW131769   0.801   3.877   2.899 -0.3917  0.6576 -0.1125
38053SOL    HW231770   0.850   3.848   2.758  1.0226 -0.2038  0.5292
38054SOL     OW31771  10.056   4.211   5.598 -0.5657 -0.2203  0.5739
38054SOL    HW131772  10.013   4.282   5.551 -0.0498  0.9346  1.7487
38054SOL    HW231773  10.024   4.131   5.557 -0.5244  0.6951 -1.3664
38055SOL     OW31774   3.430   4.891   3.854  0.1976 -0.3447 -0.1281
38055SOL    HW131775   3.521   4.864   3.841  0.7436  1.7553 -1.0789
38055SOL    HW231776   3.418   4.966   3.796 -2.1188 -0.4587  0.0906
38056SOL     OW31777   3.204  11.668   6.093  0.4146  0.3952 -0.6447
38056SOL    HW131778   3.254  11.623   6.025 -0.2519 -0.0559 -0.8396
38056SOL    HW231779   3.142  11.723   6.046 -0.6759 -0.6112 -0.4253
38057SOL     OW31780  10.045   1.534  13.927 -0.3026 -0.0509 -0.2227
38057SOL    HW131781  10.069   1.516  14.018  2.5100  1.2284 -0.6371
38057SOL    HW231782  10.031   1.447  13.889  0.0283 -0.6829  1.0293
38058SOL     OW31783   8.026   3.022   4.559  0.4616  0.5457 -0.4863
38058SOL    HW131784   7.979   2.944   4.532 -0.6154  0.9267  0.2018
38058SOL    HW231785   8.081   2.993   4.632  0.1548  0.4043 -0.3103
38059SOL     OW31786   5.912   8.891   1.565  0.5991 -0.8720  0.4468
38059SOL    HW131787   5.871   8.977   1.567  1.4321 -0.4511  2.3698
38059SOL    HW231788   5.950   8.884   1.477 -0.0749  0.4196  0.0318
38060SOL     OW31789   9.499   5.565  11.537 -0.7072 -0.6336  0.2537
38060SOL    HW131790   9.576   5.592  11.488 -1.0237 -0.4494 -0.1527
38060SOL    HW231791   9.463   5.492  11.487  0.0313 -1.7014  1.2370
38061SOL     OW31792   2.168   5.140   2.020  0.1609 -0.3524 -0.4554
38061SOL    HW131793   2.203   5.051   2.019  0.9674 -0.0522 -1.4514
38061SOL    HW231794   2.242   5.195   2.044 -0.2481  0.0830 -0.1673
38062SOL     OW31795   0.440  13.102  11.473 -0.4647 -0.1406  0.0696
38062SOL    HW131796   0.364  13.113  11.416 -0.7056  1.0255  0.5819
38062SOL    HW231797   0.422  13.157  11.549  1.4969  1.2958 -0.4125
38063SOL     OW31798   4.851   0.825  10.637  0.3253 -0.1924 -0.0249
38063SOL    HW131799   4.914   0.857  10.702 -1.3664  1.6804  0.8150
38063SOL    HW231800   4.882   0.861  10.554  0.5596  0.4913  0.3449
38064SOL     OW31801   8.341  11.171   4.874  0.1728 -0.1884  0.0705
38064SOL    HW131802   8.388  11.248   4.842  1.4189 -1.3108 -0.9005
38064SOL    HW231803   8.293  11.202   4.951  0.6920  1.5265 -0.2625
38065SOL     OW31804  13.958   7.657   5.415  0.0579 -0.2466  0.3381
38065SOL    HW131805  13.975   7.569   5.451 -1.2796 -0.0893  1.4571
38065SOL    HW231806  13.883   7.689   5.466  0.3706  1.4540 -0.2200
38066SOL     OW31807   8.315  13.280   3.816 -0.2139 -0.4157 -0.1796
38066SOL    HW131808   8.388  13.288   3.878 -0.9171 -1.7593  0.8844
38066SOL    HW231809   8.250  13.342   3.848 -0.0208 -0.0990 -0.4008
38067SOL     OW31810   7.924   6.979   3.543  0.5086  0.0363  0.7562
38067SOL    HW131811   7.898   6.899   3.589 -2.2952  0.3759 -0.0542
38067SOL    HW231812   7.863   7.046   3.575  1.6310  1.4330  0.0934
38068SOL     OW31813  11.843   0.249   0.080 -0.4104 -0.0830 -0.7989
38068SOL    HW131814  11.755   0.222   0.107 -0.5169  1.3425  0.4041
38068SOL    HW231815  11.878   0.173   0.034 -1.6256 -1.3123  0.2066
38069SOL     OW31816   7.247   4.661   4.411 -0.3492  0.8929 -0.4113
38069SOL    HW131817   7.167   4.609   4.405 -0.5157  0.6743  2.3771
38069SOL    HW231818   7.224   4.735   4.466  1.4490  0.5907  0.8253
38070SOL     OW31819   6.530   2.709  13.662 -0.3567  0.5307 -0.0111
38070SOL    HW131820   6.444   2.687  13.627  0.1307 -0.4445 -0.6346
38070SOL    HW231821   6.517   2.713  13.757 -1.0137  0.0260 -0.0724
38071SOL     OW31822   2.830   9.207  10.707  0.5956  0.9116  0.1264
38071SOL    HW131823   2.822   9.284  10.651 -0.6470  0.9391  0.3237
38071SOL    HW231824   2.743   9.194  10.744  0.2059 -1.7613 -1.4346
38072SOL     OW31825  11.188   3.826   6.274 -0.2549  0.3236 -0.0159
38072SOL    HW131826  11.116   3.784   6.321 -0.3806  0.7473  0.1755
38072SOL    HW231827  11.243   3.754   6.245 -0.9532 -0.0268 -0.4917
38073SOL     OW31828  13.161   5.202   1.115 -0.4926 -0.9839 -0.1254
38073SOL    HW131829  13.066   5.190   1.109 -0.4499 -1.1119 -0.5975
38073SOL    HW231830  13.186   5.160   1.198 -0.7518 -1.5788 -0.3420
38074SOL     OW31831   0.092   2.336   8.838  0.6528  0.3821 -0.4262
38074SOL    HW131832   0.012   2.284   8.827 -0.6955  2.5155 -1.4582
38074SOL    HW231833   0.105   2.340   8.933 -0.7224  0.2909 -0.2108
38075SOL     OW31834   6.628   2.270  13.503 -0.3011  0.0697 -0.4651
38075SOL    HW131835   6.534   2.261  13.489 -0.0940  1.1763 -3.1671
38075SOL    HW231836   6.651   2.354  13.464  1.5949  0.6561  1.6476
38076SOL     OW31837  10.817  10.466  11.703  0.2491 -0.5713  0.1535
38076SOL    HW131838  10.834  10.522  11.627 -1.2637 -1.3005 -0.7710
38076SOL    HW231839  10.787  10.526  11.771 -2.1119 -0.2420 -1.0658
38077SOL     OW31840  10.497   1.852  12.293  0.1406  0.6029  0.1242
38077SOL    HW131841  10.432   1.847  12.223  2.0353  0.3833 -1.7555
38077SOL    HW231842  10.497   1.943  12.320  0.9643  1.2801 -1.9129
38078SOL     OW31843   7.678  11.824   8.983 -0.3441  0.2949 -0.2478
38078SOL    HW131844   7.672  11.743   9.033  1.5152  0.6637  0.6482
38078SOL    HW231845   7.618  11.811   8.909 -1.7209 -1.0084  1.0267
38079SOL     OW31846   8.672   5.714   5.586 -0.0931 -0.4694 -0.2053
38079SOL    HW131847   8.707   5.646   5.529  1.9744  0.5109 -0.2110
38079SOL    HW231848   8.645   5.668   5.666 -2.9806 -1.8499 -1.8487
38080SOL     OW31849   9.798   6.406   7.970 -0.0884  0.6380  0.5522
38080SOL    HW131850   9.730   6.365   8.024 -0.4758  0.8137  0.2013
38080SOL    HW231851   9.754   6.426   7.887  0.3232  0.9893  0.4166
38081SOL     OW31852   7.654  10.257   6.757  0.2779 -0.1048 -0.2325
38081SOL    HW131853   7.578  10.207   6.727 -0.4124 -0.3463  1.7700
38081SOL    HW231854   7.622  10.306   6.832  1.4234  2.0019 -1.0446
38082SOL     OW31855  10.999  11.949   3.789  0.4113 -0.1080 -0.0219
38082SOL    HW131856  11.074  11.898   3.758 -0.2565 -0.0490 -1.8404
38082SOL    HW231857  10.978  12.008   3.716 -3.3053 -2.2122 -0.8776
38083SOL     OW31858  13.304   2.623   7.548 -0.0244 -0.6991 -0.0968
38083SOL    HW131859  13.302   2.705   7.500 -0.0840 -0.5785  0.1126
38083SOL    HW231860  13.349   2.643   7.630  1.2097 -1.1854 -0.6287
38084SOL     OW31861   0.428   6.931   6.762 -0.4540 -0.3315 -0.1990
38084SOL    HW131862   0.482   6.879   6.702 -0.9293  0.1332 -1.0402
38084SOL    HW231863   0.431   6.882   6.844 -0.0677 -1.1651 -0.6924
38085SOL     OW31864   2.791   6.249   0.563  0.7065 -0.3812  0.1372
38085SOL    HW131865   2.815   6.338   0.537  0.5967 -0.5573 -0.5805
38085SOL    HW231866   2.819   6.243   0.654  0.4346  0.4923  0.2915
38086SOL     OW31867  11.075   0.592   9.423 -0.1753 -0.7677 -0.0195
38086SOL    HW131868  11.060   0.534   9.349 -1.1342  0.2298 -0.6526
38086SOL    HW231869  10.991   0.594   9.470 -1.0969  2.0878 -1.5241
38087SOL     OW31870  13.895  12.858   9.499 -0.7928  0.4993 -0.7748
38087SOL    HW131871  13.801  12.879   9.491 -1.0415  0.8962  2.1543
38087SOL    HW231872  13.902  12.812   9.583  1.6510  0.4563 -0.9488
38088SOL     OW31873  11.684   7.363   7.978  0.3311 -0.6755 -0.1920
38088SOL    HW131874  11.593   7.371   8.006  0.5684 -0.9362  0.6906
38088SOL    HW231875  11.683   7.295   7.911 -0.2321 -0.1251 -0.7718
38089SOL     OW31876   1.846   0.535   2.794  0.5563 -0.5998 -0.3931
38089SOL    HW131877   1.756   0.505   2.789  0.7306 -1.3219  0.4874
38089SOL    HW231878   1.878   0.502   2.878  1.3624  0.4131 -0.2778
38090SOL     OW31879   6.058  10.785  11.686 -0.1588  0.8898  0.6479
38090SOL    HW131880   6.084  10.869  11.724 -0.0663  0.8428  0.6897
38090SOL    HW231881   6.104  10.782  11.602 -0.5130  1.0796  0.4480
38091SOL     OW31882   9.574   1.890   2.140  0.6196  0.1024 -0.0399
38091SOL    HW131883   9.642   1.951   2.168 -1.1906  1.0581  2.5981
38091SOL    HW231884   9.611   1.803   2.159  0.9889  0.6170  1.7896
38092SOL     OW31885   9.599  13.161   3.220  0.5647 -0.2351  0.2513
38092SOL    HW131886   9.679  13.208   3.246  1.2947 -0.4066 -1.5275
38092SOL    HW231887   9.529  13.205   3.266  1.7624 -0.7005  2.6712
38093SOL     OW31888   2.934   9.726   7.940  0.0529  0.1839 -0.5540
38093SOL    HW131889   2.941   9.713   7.846  1.8032  0.8487 -0.5501
38093SOL    HW231890   2.936   9.821   7.952  0.2414  0.0983  0.1760
38094SOL     OW31891  12.610   1.729   2.296 -0.4443 -0.0456 -0.0995
38094SOL    HW131892  12.581   1.707   2.384  1.2933 -0.6604  0.3723
38094SOL    HW231893  12.629   1.823   2.300 -0.6841 -0.0057  0.0973
38095SOL     OW31894   7.400   1.798  12.989 -0.2021 -0.5132 -0.7458
38095SOL    HW131895   7.316   1.798  13.035 -0.3148  1.7707 -0.8607
38095SOL    HW231896   7.379   1.764  12.902 -1.0055 -0.0582 -0.7428
38096SOL     OW31897   1.144   1.585  10.609 -0.5976 -0.9907 -0.3774
38096SOL    HW131898   1.233   1.615  10.626 -0.3377 -0.2997 -2.5990
38096SOL    HW231899   1.088   1.646  10.657  0.0801 -1.4840  1.1042
38097SOL     OW31900   0.511   7.844  12.546 -0.1531  0.6045 -0.3287
38097SOL    HW131901   0.462   7.821  12.625  0.7826 -1.7007 -0.3218
38097SOL    HW231902   0.588   7.786  12.548  0.3225  1.0714 -2.5093
38098SOL     OW31903   7.034   2.732   1.703 -0.1902  0.7927 -0.0165
38098SOL    HW131904   6.976   2.658   1.721  0.2734  0.6057  0.7612
38098SOL    HW231905   6.981   2.792   1.651 -1.9055  1.7136  2.5919
38099SOL     OW31906   5.781   4.474   4.488 -0.0904  0.4782 -0.4915
38099SOL    HW131907   5.745   4.408   4.428 -0.0501 -0.1403  0.1576
38099SOL    HW231908   5.753   4.557   4.450  0.0388  0.1057 -1.4422
38100SOL     OW31909   2.242   6.503   7.069 -0.0876  0.4617  0.2699
38100SOL    HW131910   2.285   6.570   7.016 -0.0720 -0.6383 -1.1821
38100SOL    HW231911   2.307   6.433   7.078 -0.3941  0.2580  1.0152
38101SOL     OW31912   4.935   6.927   1.924  0.1695 -0.1640 -0.1556
38101SOL    HW131913   4.944   6.867   1.850 -0.0780  0.0980 -0.3958
38101SOL    HW231914   4.856   6.897   1.969  1.8081 -2.1275  1.6502
38102SOL     OW31915   7.177   9.702   2.280  0.3853 -0.2372 -0.1068
38102SOL    HW131916   7.247   9.732   2.222  1.0721  0.8148  1.1912
38102SOL    HW231917   7.223   9.667   2.356 -0.4992 -1.0465  0.0779
38103SOL     OW31918   9.212   2.080   6.669 -0.2844 -0.1229 -0.1510
38103SOL    HW131919   9.122   2.057   6.692  0.2606 -0.9127  1.3398
38103SOL    HW231920   9.264   2.004   6.695  1.0085  0.9937  0.6726
38104SOL     OW31921   6.288  12.318  10.303 -0.0786  0.3250 -0.4394
38104SOL    HW131922   6.303  12.323  10.209  0.3360  0.1481 -0.3859
38104SOL    HW231923   6.374  12.331  10.342 -0.0769 -0.5503 -0.1167
38105SOL     OW31924   2.857   9.521   0.722  0.0100 -0.2373 -0.5023
38105SOL    HW131925   2.881   9.496   0.633 -0.4028 -0.7461 -0.4773
38105SOL    HW231926   2.761   9.519   0.721 -0.0539  1.4363 -0.5201
38106SOL     OW31927   6.108   2.796  13.300 -0.2168 -0.1205 -0.4768
38106SOL    HW131928   6.127   2.883  13.265 -3.2467  1.1496  0.6437
38106SOL    HW231929   6.191   2.750  13.297  1.3320  2.5239 -1.9018
38107SOL     OW31930  13.285   2.674  10.358  0.0954 -0.0152 -0.3716
38107SOL    HW131931  13.270   2.581  10.369 -1.4313  0.2372 -0.1660
38107SOL    HW231932  13.246   2.696  10.273  1.8945  0.1602 -1.2058
38108SOL     OW31933  13.205   0.536  12.570 -0.1716  0.2402 -0.5708
38108SOL    HW131934  13.192   0.613  12.624  1.2710 -0.4787  0.8737
38108SOL    HW231935  13.123   0.487  12.577  0.3183 -0.3345  1.8488
38109SOL     OW31936   2.576   9.905   2.344 -0.0556  0.1216  0.0119
38109SOL    HW131937   2.494   9.895   2.297 -0.5087  0.9377  0.6226
38109SOL    HW231938   2.574   9.836   2.411 -0.1425  0.0009 -0.1153
38110SOL     OW31939  13.454   8.987   0.331 -0.4108  0.0952  0.2798
38110SOL    HW131940  13.447   8.945   0.417 -0.9165  1.3635  0.8766
38110SOL    HW231941  13.499   9.069   0.347 -0.1706  0.1785 -0.7412
38111SOL     OW31942  11.022  10.017  10.042  0.3121  0.6699  0.1937
38111SOL    HW131943  11.026   9.924  10.019 -0.7344  0.2444  1.6064
38111SOL    HW231944  11.041  10.019  10.136  0.2697  1.8955  0.1930
38112SOL     OW31945   2.483   5.127   9.944 -0.4692  0.0595 -0.0233
38112SOL    HW131946   2.515   5.108   9.856 -1.2508  1.0505 -0.5372
38112SOL    HW231947   2.398   5.170   9.930 -0.0150  1.3960  1.1631
38113SOL     OW31948   6.871  12.876   7.352  0.5033 -0.5177 -0.3392
38113SOL    HW131949   6.789  12.833   7.373  1.0274 -1.8683 -0.9657
38113SOL    HW231950   6.906  12.827   7.277  2.6333 -1.0022  0.8797
38114SOL     OW31951   1.613   6.631   5.511  0.1755 -0.5528  0.4873
38114SOL    HW131952   1.707   6.642   5.524  0.4581  1.3525 -2.3763
38114SOL    HW231953   1.605   6.560   5.448 -0.3491 -0.9736  1.0177
38115SOL     OW31954   1.162   1.570   1.117 -0.2597 -0.3106 -0.3883
38115SOL    HW131955   1.146   1.649   1.066  0.0578  0.2369  0.3508
38115SOL    HW231956   1.079   1.552   1.160 -0.3351 -0.3904 -0.5655
38116SOL     OW31957  13.343  12.635   9.584 -0.4471 -0.1823 -0.7162
38116SOL    HW131958  13.267  12.672   9.539 -0.1714  0.3496 -0.7523
38116SOL    HW231959  13.308  12.598   9.665 -1.1388 -2.1583 -1.8504
38117SOL     OW31960   7.957   3.007   9.703  0.1939 -0.4991  0.0285
38117SOL    HW131961   7.956   2.961   9.787 -2.0234 -0.0885  0.2825
38117SOL    HW231962   7.934   2.940   9.639 -1.0859 -0.1995  0.1524
38118SOL     OW31963  13.288   9.612  11.137  0.5289 -0.3147  0.0876
38118SOL    HW131964  13.344   9.671  11.188 -0.5496  0.9877 -0.1742
38118SOL    HW231965  13.205   9.660  11.128 -0.1116 -1.5449 -0.8298
38119SOL     OW31966   0.573   6.401   8.111 -0.0390 -0.0180  0.6350
38119SOL    HW131967   0.533   6.320   8.079  1.3421 -1.5637  2.6270
38119SOL    HW231968   0.510   6.469   8.086 -0.7477 -1.4883 -2.0350
38120SOL     OW31969   7.607  13.574  10.836 -0.2130  0.2044 -0.5861
38120SOL    HW131970   7.687  13.522  10.837  0.4899  1.2508 -0.5019
38120SOL    HW231971   7.579  13.576  10.928 -0.0445  0.2578 -0.5347
38121SOL     OW31972  10.954   0.928   1.467  0.1822 -0.4279 -0.8966
38121SOL    HW131973  10.941   0.940   1.561  2.1115  1.6332 -0.7993
38121SOL    HW231974  11.049   0.920   1.458  0.1433  0.8118 -2.7814
38122SOL     OW31975   3.112   4.582  10.298 -0.0937  0.2626 -0.6959
38122SOL    HW131976   3.028   4.536  10.306  0.1516  0.0907  1.3431
38122SOL    HW231977   3.143   4.591  10.388  0.2798  3.7264 -1.0530
38123SOL     OW31978   4.569   4.091   6.840 -0.0665 -0.4606  0.0463
38123SOL    HW131979   4.655   4.078   6.799  0.1605 -1.1931  0.7197
38123SOL    HW231980   4.567   4.027   6.912 -2.0429 -2.0140 -1.2721
38124SOL     OW31981  13.302  10.770  11.791  0.7258 -0.0059 -0.2298
38124SOL    HW131982  13.373  10.776  11.726 -0.8092 -0.5384 -2.0597
38124SOL    HW231983  13.286  10.861  11.817  1.5122  0.2011 -0.4388
38125SOL     OW31984   8.130  10.964   6.087 -0.2743  0.0008 -0.0190
38125SOL    HW131985   8.109  10.922   6.171  1.3741 -2.3894 -0.7109
38125SOL    HW231986   8.226  10.960   6.082 -0.3962 -1.0664 -2.5553
38126SOL     OW31987   5.239   1.161   5.707 -0.0039  0.8157 -0.3308
38126SOL    HW131988   5.209   1.193   5.622  0.6354  1.1475 -0.4350
38126SOL    HW231989   5.334   1.173   5.706  0.0844  0.2130  0.1785
38127SOL     OW31990  13.349   3.648   4.194 -0.1371  0.1824 -0.0230
38127SOL    HW131991  13.318   3.590   4.125  1.1608 -0.9289  0.2711
38127SOL    HW231992  13.327   3.603   4.275  2.3032 -0.7855  0.1992
38128SOL     OW31993  13.966   5.684   3.770 -0.2841 -0.4666 -0.2650
38128SOL    HW131994  14.038   5.738   3.804 -2.6955  1.0056  3.0104
38128SOL    HW231995  13.974   5.601   3.817 -0.9760 -0.1067  0.5111
38129SOL     OW31996  10.391   0.948   9.402  0.0574 -0.2587  0.3398
38129SOL    HW131997  10.450   0.927   9.474  0.4994 -0.9852 -0.2064
38129SOL    HW231998  10.422   1.031   9.368  0.0175 -0.0507  0.8079
38130SOL     OW31999  12.983  12.033  12.213  0.1627  0.6586  0.3071
38130SOL    HW132000  12.931  11.952  12.219 -0.6461  1.2074  0.8772
38130SOL    HW232001  13.045  12.016  12.142 -0.9165  0.0537 -0.5235
38131SOL     OW32002   2.487   1.196  12.142  0.7506  0.1992 -0.2951
38131SOL    HW132003   2.510   1.282  12.107  1.5203 -0.0258 -0.3473
38131SOL    HW232004   2.429   1.215  12.216  0.4847  0.7404 -0.6376
38132SOL     OW32005   5.665  12.278   4.340 -0.1710  0.6364 -0.6289
38132SOL    HW132006   5.643  12.364   4.306 -0.6878  0.7876  0.0747
38132SOL    HW232007   5.754  12.288   4.375  0.0484  0.6854 -1.1792
38133SOL     OW32008   1.800   1.713   0.341 -0.3181  0.0598 -0.5194
38133SOL    HW132009   1.856   1.638   0.361  1.5773  1.5614  0.1463
38133SOL    HW232010   1.730   1.677   0.286  0.2864 -2.2369  0.1075
38134SOL     OW32011   0.662  10.385  12.145 -0.1035 -0.1712 -0.1031
38134SOL    HW132012   0.586  10.351  12.192 -0.2833  0.3046 -0.0397
38134SOL    HW232013   0.695  10.311  12.095  0.0740 -0.6745  0.7534
38135SOL     OW32014   1.946   4.559   3.100  0.7918 -0.1830 -0.2993
38135SOL    HW132015   1.892   4.580   3.023 -0.1213  0.2934  0.4597
38135SOL    HW232016   1.899   4.597   3.174  1.1094 -1.5517  0.6501
38136SOL     OW32017   3.314   3.754   8.151 -0.8651  0.2303 -0.5229
38136SOL    HW132018   3.261   3.700   8.092 -0.2410  1.0014 -1.8278
38136SOL    HW232019   3.372   3.802   8.093  1.0027 -0.2796  0.8506
38137SOL     OW32020   4.579  12.136   8.742 -0.0260 -0.7291 -0.2095
38137SOL    HW132021   4.635  12.171   8.811 -0.5515 -0.0053 -0.1361
38137SOL    HW232022   4.631  12.066   8.702  1.5350  0.8662 -1.1013
38138SOL     OW32023   8.221   3.896   4.329 -0.0885 -0.0644 -0.1775
38138SOL    HW132024   8.313   3.918   4.312  0.1478 -1.7226 -1.3314
38138SOL    HW232025   8.179   3.898   4.243 -1.4712  1.8290  0.4683
38139SOL     OW32026  10.424   2.732   1.651 -0.1278  0.4860  0.0492
38139SOL    HW132027  10.468   2.716   1.734 -1.7156  0.5159  0.9326
38139SOL    HW232028  10.333   2.750   1.675 -0.9179 -0.7754 -1.7764
38140SOL     OW32029   3.461   8.517   2.199 -0.3635  0.1347 -0.4044
38140SOL    HW132030   3.551   8.508   2.229  0.4306  0.4819 -2.4814
38140SOL    HW232031   3.419   8.435   2.225  0.0709  0.6132  1.9882
38141SOL     OW32032   0.907   7.593   9.043  0.2119  0.3929  0.4148
38141SOL    HW132033   0.944   7.678   9.018  1.8242  0.0056  1.3050
38141SOL    HW232034   0.814   7.611   9.057  0.5723  2.1020  0.9021
38142SOL     OW32035   9.087  13.300   5.962 -0.1934  0.1210  0.1762
38142SOL    HW132036   9.047  13.257   6.037  1.3047  0.9495  1.5375
38142SOL    HW232037   9.017  13.309   5.898 -1.6027 -0.3634  1.5955
38143SOL     OW32038  12.494   2.611  12.073 -0.2017 -0.1705 -0.0967
38143SOL    HW132039  12.434   2.629  12.145 -0.8525 -1.7586 -0.1934
38143SOL    HW232040  12.563   2.678  12.081  0.7142 -1.3174  3.0569
38144SOL     OW32041   3.358   0.320   7.824 -0.0611  0.0372 -0.0726
38144SOL    HW132042   3.345   0.315   7.919 -1.1445  1.0209 -0.1503
38144SOL    HW232043   3.369   0.413   7.807 -1.4747  0.0409 -1.1009
38145SOL     OW32044   7.480   1.698   9.636  0.5687 -0.1072  0.0380
38145SOL    HW132045   7.533   1.720   9.559  0.3734  0.5626  0.0818
38145SOL    HW232046   7.454   1.607   9.622  1.4049 -0.3221 -0.1679
38146SOL     OW32047   4.728   5.808  13.830  0.0400 -0.0710 -0.0565
38146SOL    HW132048   4.816   5.846  13.836 -0.9085  2.0601  2.2884
38146SOL    HW232049   4.707   5.782  13.919 -1.3142 -1.6318 -0.7797
38147SOL     OW32050  10.036   2.232  12.600  0.1567 -0.6977  0.1789
38147SOL    HW132051  10.130   2.215  12.604  0.3257  0.3059  0.7246
38147SOL    HW232052  10.016   2.231  12.506  0.5823 -1.5231  0.0880
38148SOL     OW32053  11.133   3.123   9.354 -0.3978  0.3214  0.8100
38148SOL    HW132054  11.075   3.143   9.280 -0.5183  0.9755  1.0723
38148SOL    HW232055  11.076   3.130   9.431 -0.2763 -0.3696  0.9670
38149SOL     OW32056   7.808   9.279   3.502 -0.1105  0.2310 -0.0471
38149SOL    HW132057   7.798   9.304   3.594 -0.0538  0.3452 -0.0713
38149SOL    HW232058   7.733   9.222   3.484 -0.5224  0.7857 -0.1260
38150SOL     OW32059   2.712   8.350   6.168  0.4488  0.1270 -0.2203
38150SOL    HW132060   2.759   8.338   6.086  0.1234 -1.8785 -0.1497
38150SOL    HW232061   2.707   8.445   6.179  1.0962  0.4227 -2.1565
38151SOL     OW32062   2.007   3.578   4.757  0.0353 -0.4197 -0.7477
38151SOL    HW132063   2.024   3.534   4.674 -0.3878 -0.8180 -0.6304
38151SOL    HW232064   2.051   3.524   4.822  2.6109  1.2971 -0.9518
38152SOL     OW32065   2.691   7.597   6.267 -0.3876  0.1779  0.1979
38152SOL    HW132066   2.732   7.657   6.205  1.4791 -1.2557 -0.0493
38152SOL    HW232067   2.745   7.605   6.346 -1.1523  0.0639  0.7323
38153SOL     OW32068   1.016   1.392   5.274  0.3430 -0.2896 -0.4974
38153SOL    HW132069   0.947   1.449   5.239  0.4096 -1.3111 -2.4822
38153SOL    HW232070   0.999   1.388   5.368 -1.5015  0.5391 -0.7499
38154SOL     OW32071  10.124  11.958  13.060  0.0779 -0.5247  0.0894
38154SOL    HW132072  10.164  11.970  13.146  0.5119  0.0374 -0.1872
38154SOL    HW232073  10.030  11.971  13.076  0.0995 -0.9017  0.5612
38155SOL     OW32074   4.893   8.947   4.316  0.0340 -0.7507  0.3253
38155SOL    HW132075   4.809   8.907   4.296  0.3393 -1.5561  0.5899
38155SOL    HW232076   4.896   9.027   4.263  0.0189 -1.8188 -1.3484
38156SOL     OW32077   3.164   2.372  10.656 -0.4425  0.0685  0.2720
38156SOL    HW132078   3.155   2.333  10.743  0.1300  0.9882  0.7584
38156SOL    HW232079   3.146   2.300  10.596 -1.7932 -0.3598  1.1396
38157SOL     OW32080   7.731  14.092   2.194  0.6981  0.3373 -0.4002
38157SOL    HW132081   7.663  14.110   2.259  1.6530  1.5096  0.3294
38157SOL    HW232082   7.709  14.006   2.160 -0.0981 -0.1174  1.1416
38158SOL     OW32083  11.295   5.778   2.108  0.5775 -0.2178 -0.1627
38158SOL    HW132084  11.220   5.749   2.056 -0.1073 -0.4475  0.9196
38158SOL    HW232085  11.324   5.858   2.065 -0.5616  0.1091 -0.3686
38159SOL     OW32086   7.224   3.416   3.728 -0.1554 -0.5955 -0.2623
38159SOL    HW132087   7.300   3.470   3.748  1.3255 -2.3456 -0.8855
38159SOL    HW232088   7.187   3.394   3.814 -0.8044  1.3191  0.0050
38160SOL     OW32089   4.467   3.865  12.818  0.4839  0.1366  0.2021
38160SOL    HW132090   4.496   3.885  12.907  0.8366  3.4462 -0.4939
38160SOL    HW232091   4.547   3.853  12.768  0.3728  0.2573 -0.0113
38161SOL     OW32092   5.184   7.955   6.275  0.2367 -0.0051 -0.4081
38161SOL    HW132093   5.203   8.048   6.263 -2.2887  0.2801 -3.4114
38161SOL    HW232094   5.106   7.953   6.331  0.5256 -0.3448 -0.0136
38162SOL     OW32095   3.849   0.027   2.704  0.3200  0.2396  0.2366
38162SOL    HW132096   3.929   0.080   2.698 -0.9334  2.3375  0.7181
38162SOL    HW232097   3.834  -0.005   2.615  2.1834 -1.0313  0.3280
38163SOL     OW32098   4.066   5.659  13.150 -0.1145  0.2067 -0.1821
38163SOL    HW132099   4.126   5.596  13.110  0.9305  0.5759  0.7556
38163SOL    HW232100   4.036   5.617  13.230  2.7768  1.8624  1.9765
38164SOL     OW32101   8.046  12.654   5.044 -0.0195 -0.3615 -0.7730
38164SOL    HW132102   8.039  12.571   5.092  1.2353  0.0338  0.1497
38164SOL    HW232103   8.118  12.639   4.982 -0.7633 -0.4284 -1.6394
38165SOL     OW32104   0.416  13.556   1.486 -0.0432  0.2253  0.0172
38165SOL    HW132105   0.417  13.641   1.530  0.4131  0.3995 -0.3266
38165SOL    HW232106   0.329  13.551   1.446  0.1166  0.7532 -0.4002
38166SOL     OW32107   0.586  13.908  12.352 -0.2447 -0.4875 -0.1589
38166SOL    HW132108   0.653  13.864  12.404 -0.7002 -1.8529 -0.6690
38166SOL    HW232109   0.523  13.940  12.416  2.0221  3.0025  0.5443
38167SOL     OW32110  13.163   3.755   1.737 -0.2573  0.1024 -0.1742
38167SOL    HW132111  13.224   3.757   1.663 -0.6865  0.2634 -0.5248
38167SOL    HW232112  13.154   3.846   1.763 -0.4331  0.0897 -0.1913
38168SOL     OW32113  10.442  14.080   1.974  0.3495 -0.1534  0.0434
38168SOL    HW132114  10.406  14.086   1.885  0.7842 -0.4141 -0.1534
38168SOL    HW232115  10.510  14.146   1.977 -1.7420  2.0965  1.2202
38169SOL     OW32116   6.716   0.478  11.190  0.5591  0.4703 -0.0414
38169SOL    HW132117   6.710   0.391  11.229  0.2046  0.3278 -0.4096
38169SOL    HW232118   6.795   0.474  11.135  0.5831  0.4081 -0.0028
38170SOL     OW32119  11.012  13.493  11.767  0.7380  0.1433  0.2775
38170SOL    HW132120  10.986  13.527  11.682  0.2799  1.3403  0.8657
38170SOL    HW232121  10.989  13.400  11.765 -1.0203  0.5566 -0.2401
38171SOL     OW32122   8.619   1.269   8.612  0.0913  0.1762 -0.2004
38171SOL    HW132123   8.658   1.355   8.597  0.8139  0.0142  0.6553
38171SOL    HW232124   8.544   1.265   8.551  2.3895 -0.2030 -3.2786
38172SOL     OW32125  11.119   4.802   9.288  0.3954 -0.5654  0.2358
38172SOL    HW132126  11.086   4.751   9.213 -1.3153  0.6168  0.1171
38172SOL    HW232127  11.040   4.823   9.338  1.1793  1.0213  0.8609
38173SOL     OW32128   7.967  12.506   1.777  0.8669 -0.0957 -0.5936
38173SOL    HW132129   8.006  12.438   1.832 -1.0284 -1.0966 -0.4078
38173SOL    HW232130   7.908  12.460   1.718 -1.0518  1.3985  0.0341
38174SOL     OW32131  12.579  13.645   0.494  0.1125 -0.2819 -0.4057
38174SOL    HW132132  12.502  13.682   0.451  0.6395  0.8878 -0.3520
38174SOL    HW232133  12.633  13.612   0.423  1.7757  3.1345 -0.8698
38175SOL     OW32134   6.931   0.170   2.946  0.0256 -0.4559  0.1596
38175SOL    HW132135   6.987   0.211   3.012  0.9391 -0.8965 -0.3254
38175SOL    HW232136   6.903   0.241   2.889  0.7865 -0.3588 -0.0923
38176SOL     OW32137  12.014  12.783  11.115 -0.4147  0.0284  0.5279
38176SOL    HW132138  12.039  12.705  11.065 -1.2112 -0.5930  1.0893
38176SOL    HW232139  11.960  12.750  11.186 -3.1818  1.3244 -0.8149
38177SOL     OW32140   8.842  12.898  12.210 -0.4487 -0.0175 -0.0101
38177SOL    HW132141   8.855  12.822  12.266 -2.1345 -0.2936  0.0691
38177SOL    HW232142   8.886  12.970  12.255 -0.3374 -0.5860  0.7974
38178SOL     OW32143   2.998  13.849  13.628  0.5981  0.1413  0.0184
38178SOL    HW132144   2.955  13.777  13.582 -1.1305  1.1782 -0.0885
38178SOL    HW232145   3.045  13.897  13.559  1.5601 -0.7280  0.0543
38179SOL     OW32146   0.712   6.764   5.190  0.3372  0.2713  0.4597
38179SOL    HW132147   0.635   6.777   5.245  1.2130  0.9940  1.5800
38179SOL    HW232148   0.741   6.852   5.167  0.7447  0.0090 -0.0730
38180SOL     OW32149   1.634   2.027  11.589 -0.3769 -0.0104 -0.0646
38180SOL    HW132150   1.707   2.082  11.617 -0.2167  0.6484 -1.6672
38180SOL    HW232151   1.671   1.940  11.576  0.2061  0.3903 -1.1629
38181SOL     OW32152  10.874   3.971   2.127  0.8945 -0.1713  0.4084
38181SOL    HW132153  10.956   3.925   2.143  0.4814 -0.6100  1.3737
38181SOL    HW232154  10.856   4.016   2.209  0.8191  0.9805 -0.2234
38182SOL     OW32155   0.113   6.962  11.906  0.0751 -0.0043  0.0228
38182SOL    HW132156   0.135   6.878  11.944 -0.4711 -0.6714 -1.0686
38182SOL    HW232157   0.024   6.950  11.870  0.3772  0.6957 -1.0249
38183SOL     OW32158   3.061  13.216   5.873 -0.1571 -0.1909 -0.7113
38183SOL    HW132159   2.974  13.182   5.893 -1.2011  1.0132 -2.8403
38183SOL    HW232160   3.073  13.288   5.935 -0.6817 -0.3587 -0.4080
38184SOL     OW32161  12.843   6.513   3.470  0.0008 -0.7435  0.0278
38184SOL    HW132162  12.932   6.479   3.468  0.3989  0.1581  1.1188
38184SOL    HW232163  12.849   6.600   3.431 -0.5482 -0.9543 -0.5427
38185SOL     OW32164   2.120   2.778   2.229  0.4300  0.1916 -0.1602
38185SOL    HW132165   2.153   2.705   2.177  1.9114  1.4075 -1.0147
38185SOL    HW232166   2.198   2.826   2.255 -0.5114  1.5670  0.2316
38186SOL     OW32167   6.684   0.711   6.583 -0.4825 -0.5342  0.1148
38186SOL    HW132168   6.693   0.672   6.670  2.3223 -0.0793  0.1219
38186SOL    HW232169   6.664   0.803   6.600 -0.5059 -0.5653  0.2602
38187SOL     OW32170   4.287   4.776  13.751  0.3423  0.7786 -0.1279
38187SOL    HW132171   4.202   4.762  13.709  0.3684  1.6488 -0.4768
38187SOL    HW232172   4.330   4.843  13.699  1.9839 -0.8593 -1.0233
38188SOL     OW32173   4.527   6.427   0.804  0.5933  0.0849 -0.2910
38188SOL    HW132174   4.522   6.444   0.898 -0.3290  0.9742 -0.4778
38188SOL    HW232175   4.595   6.486   0.772 -0.5088  1.3015 -0.4723
38189SOL     OW32176   0.592  10.113   0.920  0.0510  0.4008 -0.2363
38189SOL    HW132177   0.631  10.199   0.902 -0.7099  1.3893  2.2921
38189SOL    HW232178   0.664  10.063   0.959 -0.1836  0.9181  0.9159
38190SOL     OW32179   0.975   9.653   7.147 -0.3445  1.0011 -0.1192
38190SOL    HW132180   1.062   9.624   7.175 -0.0693  1.0580 -0.8971
38190SOL    HW232181   0.915   9.609   7.208  0.1424 -0.1857 -0.4567
38191SOL     OW32182  10.503   9.279  12.101  0.2416 -0.4245 -0.5097
38191SOL    HW132183  10.469   9.254  12.187  0.4220 -0.5069 -0.4624
38191SOL    HW232184  10.497   9.375  12.100  1.2586 -0.3443  0.0204
38192SOL     OW32185  10.627  10.254   9.526 -1.0258 -0.1983  0.2642
38192SOL    HW132186  10.662  10.173   9.489 -1.2384  0.7133 -2.1585
38192SOL    HW232187  10.570  10.289   9.457 -0.2540  2.4403  0.8308
38193SOL     OW32188   6.962  13.976   8.241  0.2196  0.1084  0.3394
38193SOL    HW132189   6.972  14.069   8.260 -0.4455  0.1828  0.3225
38193SOL    HW232190   6.963  13.934   8.327 -1.9886  0.3726  0.5315
38194SOL     OW32191   6.996   8.119   2.996  0.6256  0.0458 -0.5219
38194SOL    HW132192   6.992   8.047   3.059  0.6421  0.0448 -0.5223
38194SOL    HW232193   6.914   8.167   3.009  0.4306 -0.2041 -0.7996
38195SOL     OW32194   4.279  10.880   5.051  0.0276 -0.1926  0.3125
38195SOL    HW132195   4.239  10.841   5.128 -2.0519 -0.1332 -0.6844
38195SOL    HW232196   4.244  10.969   5.048 -0.9765 -0.5971 -1.3770
38196SOL     OW32197   7.442  13.740  13.583  0.1994  0.2615 -0.1590
38196SOL    HW132198   7.475  13.764  13.496  0.3698  0.9589  0.0911
38196SOL    HW232199   7.359  13.697  13.566 -0.3101  1.3874 -0.6110
38197SOL     OW32200  12.507   0.377   3.024  0.3281  0.4373  0.4921
38197SOL    HW132201  12.440   0.439   2.994 -0.1067  0.5205  1.6005
38197SOL    HW232202  12.468   0.291   3.011 -0.3378  0.5034  1.8510
38198SOL     OW32203   5.417   7.855  13.521  0.1198 -0.0735 -0.3547
38198SOL    HW132204   5.369   7.790  13.469  1.2789 -0.6684 -0.7295
38198SOL    HW232205   5.459   7.803  13.590  0.3619  0.4096 -0.1346
38199SOL     OW32206   0.898   3.877  10.078 -0.2782  0.2381  0.4553
38199SOL    HW132207   0.948   3.888  10.159  0.0270  0.9505  0.1810
38199SOL    HW232208   0.893   3.782  10.066 -0.0104  0.1312  1.1112
38200SOL     OW32209   4.224  13.369   6.024 -0.8672  0.4314  0.0172
38200SOL    HW132210   4.146  13.328   6.061 -1.1544  0.7220 -0.2570
38200SOL    HW232211   4.264  13.415   6.098 -0.0677 -1.0357  0.5285
38201SOL     OW32212   9.096   6.136   9.899 -0.6710  0.1598 -0.0105
38201SOL    HW132213   9.140   6.153   9.816  0.4652  1.1790  0.7772
38201SOL    HW232214   9.088   6.040   9.903  0.4648  0.0290 -0.6904
38202SOL     OW32215   0.727   9.905   4.974  0.1709 -0.0655 -0.0161
38202SOL    HW132216   0.799   9.870   5.026 -0.3154 -0.5010  0.3745
38202SOL    HW232217   0.737   9.864   4.888  0.4918  0.0188 -0.0210
38203SOL     OW32218   7.982   0.904   4.244 -0.4548  0.2283 -0.5640
38203SOL    HW132219   8.058   0.888   4.189  0.9187 -0.3990  1.3834
38203SOL    HW232220   7.984   0.833   4.309 -3.0012 -0.0919 -0.7228
38204SOL     OW32221  10.769   0.217  12.307  0.1140  0.2620 -0.2535
38204SOL    HW132222  10.750   0.247  12.219 -1.8030 -1.5427 -0.5648
38204SOL    HW232223  10.813   0.133  12.295 -0.8707 -0.3799  0.4626
38205SOL     OW32224   7.048  12.284  11.939  0.5638  0.1287  0.8750
38205SOL    HW132225   7.067  12.370  11.975 -0.1365  0.2721  0.9204
38205SOL    HW232226   7.133  12.250  11.910  0.5173  2.2235 -2.2504
38206SOL     OW32227   1.345   5.570   2.375 -0.0805 -0.4712 -0.1875
38206SOL    HW132228   1.381   5.651   2.410  1.8962 -1.4411  0.1520
38206SOL    HW232229   1.257   5.565   2.413  0.6054  0.3830  1.6257
38207SOL     OW32230  13.648   8.167   8.007  0.1932  0.2491  0.0151
38207SOL    HW132231  13.658   8.207   8.093  1.3079  0.8494 -0.3737
38207SOL    HW232232  13.666   8.074   8.021 -0.5170  0.1999  0.5873
38208SOL     OW32233   7.481   9.639   3.513 -0.0020 -0.7377 -0.5525
38208SOL    HW132234   7.452   9.551   3.536 -2.1711 -0.1272 -0.7263
38208SOL    HW232235   7.515   9.630   3.424 -0.1357 -1.4058 -0.5432
38209SOL     OW32236  11.820  10.615  10.414  0.2954 -0.2604 -0.3073
38209SOL    HW132237  11.881  10.685  10.439 -0.3621  0.1816  0.0914
38209SOL    HW232238  11.846  10.540  10.468  0.9935 -0.3292 -0.7234
38210SOL     OW32239  13.154   6.756   8.588 -0.1664  0.4710 -0.3035
38210SOL    HW132240  13.236   6.712   8.563  1.1706  3.9838 -2.9482
38210SOL    HW232241  13.174   6.796   8.672 -0.1199 -0.7588  0.3027
38211SOL     OW32242  11.864   2.853  10.108  0.0879 -0.8548 -0.3913
38211SOL    HW132243  11.885   2.894  10.024  0.4120 -0.3569 -0.0769
38211SOL    HW232244  11.804   2.914  10.150  0.7041 -0.6017  0.1537
38212SOL     OW32245   3.044  12.133  13.099 -0.2442  0.4922 -0.5194
38212SOL    HW132246   3.131  12.172  13.085  0.5071 -1.1431 -0.6592
38212SOL    HW232247   3.005  12.186  13.168  0.5548  1.7238 -0.9767
38213SOL     OW32248   9.758   4.411   9.205 -0.6079  0.3734  0.3105
38213SOL    HW132249   9.688   4.349   9.223 -1.3143  1.3099  0.9141
38213SOL    HW232250   9.739   4.445   9.117  1.0139 -1.8166 -0.9790
38214SOL     OW32251   4.711   1.732   4.480  0.2700  0.5838 -0.5059
38214SOL    HW132252   4.709   1.816   4.527  0.3328 -0.4736  1.4801
38214SOL    HW232253   4.792   1.690   4.509 -1.1287 -1.3738  0.8179
38215SOL     OW32254   8.843   1.674   5.311 -0.2256  0.2588 -0.3711
38215SOL    HW132255   8.838   1.756   5.360  2.1910 -0.6124  1.5881
38215SOL    HW232256   8.851   1.606   5.378 -3.1235 -1.7784 -1.8836
38216SOL     OW32257   2.398   6.656   6.898  0.9369  0.1671  0.5342
38216SOL    HW132258   2.399   6.744   6.858 -0.4948  0.6590  1.5127
38216SOL    HW232259   2.431   6.599   6.829  1.3714  1.3898 -0.3213
38217SOL     OW32260   3.157  13.409   0.824 -0.7373  0.1269 -0.3533
38217SOL    HW132261   3.229  13.470   0.831 -0.1586 -0.5837  0.0144
38217SOL    HW232262   3.194  13.333   0.779 -1.5216  0.1458 -1.0731
38218SOL     OW32263  10.435   3.192   6.486 -0.1938  0.5345 -0.4243
38218SOL    HW132264  10.480   3.120   6.442  2.3945  0.1132  2.6159
38218SOL    HW232265  10.412   3.157   6.572 -2.8447  2.0815 -0.3943
38219SOL     OW32266   2.069  13.566   2.180  0.0462 -0.0893 -0.4048
38219SOL    HW132267   2.006  13.495   2.191  0.2504 -0.4605 -1.5114
38219SOL    HW232268   2.028  13.642   2.222 -0.9064 -0.4490 -0.6694
38220SOL     OW32269  10.669  11.449   4.538  0.4668 -0.1918  0.1602
38220SOL    HW132270  10.707  11.497   4.611  0.2120  0.4947 -0.1461
38220SOL    HW232271  10.589  11.410   4.573 -0.2018  0.9862 -0.0003
38221SOL     OW32272   6.378  12.620  10.720 -0.2641  0.3548 -0.1959
38221SOL    HW132273   6.284  12.603  10.721 -0.0624 -0.9039 -0.2159
38221SOL    HW232274   6.405  12.611  10.811 -0.1197  0.3746 -0.2370
38222SOL     OW32275   7.170  13.099   0.221 -0.1407  0.1245  0.4827
38222SOL    HW132276   7.249  13.109   0.273  0.1810 -0.3922  0.0920
38222SOL    HW232277   7.099  13.119   0.282  0.0990 -2.3357  1.6833
38223SOL     OW32278   0.032  11.107   7.194 -0.0851  0.4345 -0.1310
38223SOL    HW132279  -0.014  11.191   7.192 -1.6931 -0.4224 -1.5088
38223SOL    HW232280   0.106  11.118   7.136  0.4356  1.2621  0.6664
38224SOL     OW32281   0.440  13.219   1.099  0.2344 -0.3439  0.6776
38224SOL    HW132282   0.516  13.252   1.148 -0.4798 -0.1206  1.6568
38224SOL    HW232283   0.365  13.241   1.154 -0.6434  0.3728 -0.7607
38225SOL     OW32284  10.091   0.733   7.233  0.0283 -0.0632  0.5812
38225SOL    HW132285  10.148   0.680   7.289  2.3729 -0.6771 -2.1566
38225SOL    HW232286  10.027   0.670   7.199  0.4401 -0.3268  0.2868
38226SOL     OW32287  12.708   8.076   1.788  0.6046 -0.2509  0.0050
38226SOL    HW132288  12.635   8.016   1.775 -0.0749  0.4967  0.2885
38226SOL    HW232289  12.668   8.164   1.784  1.2881  0.1378  1.2868
38227SOL     OW32290  10.672   1.953  13.467  0.5021  0.2828 -0.1427
38227SOL    HW132291  10.753   1.903  13.483  0.5508 -0.2357 -1.8139
38227SOL    HW232292  10.693   2.042  13.494  1.9681  0.3572 -1.3895
38228SOL     OW32293  11.110   3.035  13.938  0.0770 -0.1084 -0.2632
38228SOL    HW132294  11.060   3.108  13.974  1.8443  0.4419  1.2015
38228SOL    HW232295  11.121   3.058  13.845 -1.1655  0.4245 -0.2999
38229SOL     OW32296  10.330   8.750   5.412  0.1604  0.1245  0.0119
38229SOL    HW132297  10.236   8.765   5.398  0.1432 -0.2330 -0.2656
38229SOL    HW232298  10.368   8.837   5.414 -0.0630  0.2390 -0.6989
38230SOL     OW32299   4.718  11.701   8.009 -0.5283 -0.1964 -1.0714
38230SOL    HW132300   4.811  11.720   7.999 -0.8336  1.9966 -0.1583
38230SOL    HW232301   4.677  11.785   8.026 -2.3634 -1.3664  0.8688
38231SOL     OW32302   0.366  13.051   8.541 -1.0420 -0.2682 -0.2265
38231SOL    HW132303   0.316  13.079   8.617 -1.9987  2.5348 -1.7437
38231SOL    HW232304   0.301  13.043   8.471  0.1068 -0.4612 -1.3132
38232SOL     OW32305   5.468  13.369   0.209  0.8531  0.3238  0.1339
38232SOL    HW132306   5.505  13.386   0.122  1.3943  0.5872  0.4135
38232SOL    HW232307   5.384  13.416   0.209  0.5724 -0.1566 -0.4499
38233SOL     OW32308  13.260  13.987   4.744  0.5170 -0.1485 -0.1406
38233SOL    HW132309  13.169  14.014   4.738  0.8886  0.9887 -0.9147
38233SOL    HW232310  13.258  13.893   4.725 -0.4262 -0.0167 -0.7440
38234SOL     OW32311   7.116   5.265   1.990  0.1001 -0.5911 -0.5110
38234SOL    HW132312   7.156   5.209   2.056 -0.0812  0.1181  0.2051
38234SOL    HW232313   7.104   5.207   1.914 -0.6438 -1.6900  0.4155
38235SOL     OW32314  13.100   3.068  12.020 -0.4360  0.2919 -0.0273
38235SOL    HW132315  13.181   3.028  11.987 -0.0345  1.2100 -0.2026
38235SOL    HW232316  13.125   3.158  12.039 -1.2319  0.3665  0.6850
38236SOL     OW32317  12.812  10.731   3.986 -0.1708  0.0288  0.5500
38236SOL    HW132318  12.894  10.701   3.946  0.6215  1.3943  1.0893
38236SOL    HW232319  12.785  10.658   4.042  0.3649 -0.6533 -0.0581
38237SOL     OW32320   8.382  11.786   4.478 -0.7348  0.0834 -0.0782
38237SOL    HW132321   8.331  11.795   4.398 -1.0110  2.3915  0.2865
38237SOL    HW232322   8.467  11.823   4.457 -0.4985 -0.1430  0.4483
38238SOL     OW32323   9.647   9.145  13.277  0.2573  0.1241 -0.1952
38238SOL    HW132324   9.613   9.139  13.187 -0.5820 -0.2774  0.1417
38238SOL    HW232325   9.608   9.225  13.312  0.4909  0.2161 -0.1430
38239SOL     OW32326   3.662   5.792   2.346  0.0934  0.4934  0.0667
38239SOL    HW132327   3.722   5.718   2.352 -1.5888 -0.9282  0.1238
38239SOL    HW232328   3.619   5.796   2.431 -0.7167  0.7174 -0.3355
38240SOL     OW32329   0.436  13.872  13.374 -0.3836 -0.1901 -0.0912
38240SOL    HW132330   0.441  13.796  13.316  1.2256  0.2040 -0.5051
38240SOL    HW232331   0.438  13.834  13.462  1.0619 -0.6310 -0.2834
38241SOL     OW32332   9.403   5.673   0.227  0.3390  0.5137  0.4370
38241SOL    HW132333   9.324   5.648   0.275  0.4634 -0.9673 -0.0755
38241SOL    HW232334   9.475   5.642   0.282  0.5890  1.9627  0.9581
38242SOL     OW32335   0.697   4.280   1.447  0.2528  0.7115  0.5930
38242SOL    HW132336   0.735   4.354   1.495 -1.2972  0.3487  2.4873
38242SOL    HW232337   0.609   4.310   1.423  0.6702  0.5379 -1.3159
38243SOL     OW32338   0.881   6.040   7.384 -0.2982 -0.0758 -0.0865
38243SOL    HW132339   0.879   5.951   7.348  1.0831 -0.4492  0.6887
38243SOL    HW232340   0.855   6.096   7.311 -0.5607 -1.0663 -0.7686
38244SOL     OW32341  12.010   5.541   0.259 -0.4885 -0.1989  0.2586
38244SOL    HW132342  12.049   5.541   0.172 -1.3586  0.0322 -0.1442
38244SOL    HW232343  11.960   5.460   0.263 -0.5466 -0.1533  0.4936
38245SOL     OW32344   3.138  12.592  13.284 -0.3493  0.2002  0.0850
38245SOL    HW132345   3.227  12.578  13.315 -0.1360  0.5280 -0.3773
38245SOL    HW232346   3.110  12.672  13.328  0.2320  1.1075 -1.1378
38246SOL     OW32347   0.080   7.526   8.759  0.1034 -0.3531 -0.6161
38246SOL    HW132348   0.124   7.448   8.794  0.7084  0.2032 -0.1127
38246SOL    HW232349   0.106   7.597   8.818  0.4790  0.4528 -1.7199
38247SOL     OW32350   1.283  11.228   1.675  0.3450  0.1740 -0.3556
38247SOL    HW132351   1.200  11.274   1.684  0.6405  0.5946  0.3259
38247SOL    HW232352   1.329  11.246   1.757  1.0369 -0.1943 -0.6565
38248SOL     OW32353   2.958  11.369   6.205  0.4411 -0.1544 -0.0977
38248SOL    HW132354   2.994  11.313   6.137  4.5552 -0.2598  1.8798
38248SOL    HW232355   2.915  11.309   6.266 -0.5686 -0.3732 -0.9843
38249SOL     OW32356   9.363  10.544  12.431 -0.9706  0.1612  0.6800
38249SOL    HW132357   9.350  10.484  12.504  0.7362 -0.1687  0.7507
38249SOL    HW232358   9.373  10.630  12.471  2.2896 -0.3195  1.1115
38250SOL     OW32359   2.911   3.222   2.248 -0.5457 -0.0196 -0.2495
38250SOL    HW132360   2.932   3.133   2.221 -3.1368 -0.4933 -0.9842
38250SOL    HW232361   2.890   3.216   2.341  1.7777  0.3800  0.3781
38251SOL     OW32362   0.463  13.861   7.757  0.1760  0.0678  0.4487
38251SOL    HW132363   0.418  13.840   7.675  0.4145  1.7956 -0.1624
38251SOL    HW232364   0.554  13.877   7.732  0.0761  1.4508  0.8843
38252SOL     OW32365   4.495   3.027   8.184 -0.0799 -0.1929 -0.0140
38252SOL    HW132366   4.467   2.970   8.256 -1.1717  1.0713  0.6082
38252SOL    HW232367   4.579   3.063   8.212 -0.0173 -0.4837  0.1716
38253SOL     OW32368  12.617   5.648  12.464 -0.8272 -0.0073  0.6014
38253SOL    HW132369  12.698   5.698  12.453 -0.2843 -1.3510 -3.0606
38253SOL    HW232370  12.602   5.646  12.558  2.4313  1.7857  1.2977
38254SOL     OW32371   5.421   6.059   9.032  0.1964  0.5508 -0.0605
38254SOL    HW132372   5.490   6.008   8.989  0.7568  1.0436  0.2303
38254SOL    HW232373   5.422   6.143   8.986  0.1711  0.7536  0.3075
38255SOL     OW32374   7.440   0.238   5.567 -0.1210 -0.4122 -0.0194
38255SOL    HW132375   7.466   0.162   5.514 -0.6653 -0.0096 -0.8875
38255SOL    HW232376   7.473   0.219   5.655  0.9423 -1.0351 -0.5299
38256SOL     OW32377   9.214   1.201   7.728  0.4298  0.4714 -0.2838
38256SOL    HW132378   9.251   1.287   7.708  0.7387  0.1928 -0.9492
38256SOL    HW232379   9.258   1.174   7.808 -0.1402  1.2032  0.2939
38257SOL     OW32380   0.637   5.212  10.408  0.6538 -0.1828 -0.2831
38257SOL    HW132381   0.620   5.150  10.479 -2.3453  0.3737 -0.3913
38257SOL    HW232382   0.691   5.281  10.449 -0.2799 -0.3062  1.2253
38258SOL     OW32383   1.525   3.363   4.760  0.6003  0.3894 -0.0998
38258SOL    HW132384   1.461   3.339   4.827  0.1245 -0.9586 -0.9877
38258SOL    HW232385   1.500   3.452   4.735 -1.6426 -0.4382 -1.1408
38259SOL     OW32386   6.181   1.650  12.547 -0.0327 -0.6185  0.5009
38259SOL    HW132387   6.108   1.672  12.489 -0.2066 -1.1545  0.5105
38259SOL    HW232388   6.197   1.730  12.597 -0.0431 -0.2270 -0.1085
38260SOL     OW32389  13.062   0.904  14.040 -0.5726 -0.0726  0.4994
38260SOL    HW132390  13.104   0.818  14.035 -2.4654 -1.1797  1.9505
38260SOL    HW232391  13.131   0.963  14.068  0.6458 -1.2407  0.0724
38261SOL     OW32392  13.364   3.643  11.470  0.1413 -0.1963  0.1460
38261SOL    HW132393  13.322   3.649  11.556  1.4176 -1.9423  0.9703
38261SOL    HW232394  13.291   3.644  11.408 -0.7839  1.6061  1.1800
38262SOL     OW32395   8.970   1.704  10.522  0.6404  0.5220 -0.0389
38262SOL    HW132396   8.893   1.722  10.468 -0.6480 -1.1968  1.1363
38262SOL    HW232397   8.935   1.688  10.609  2.2935 -0.7582  0.4364
38263SOL     OW32398   3.782   1.011   8.189 -0.2002 -0.1213  0.1173
38263SOL    HW132399   3.737   0.953   8.128 -1.9014 -0.2382  1.3876
38263SOL    HW232400   3.751   0.982   8.275  1.8053  0.2901  1.0229
38264SOL     OW32401   1.367   6.843   9.053 -0.3187  0.5890  0.1128
38264SOL    HW132402   1.289   6.810   9.008  0.2882 -1.7116  0.6211
38264SOL    HW232403   1.333   6.884   9.132 -1.1425  1.5842 -0.7281
38265SOL     OW32404   0.861  11.672   7.004 -0.5282 -0.2809 -0.5643
38265SOL    HW132405   0.805  11.703   7.075  1.5890  0.1033  1.0499
38265SOL    HW232406   0.849  11.736   6.934 -1.7143  0.0583 -0.0672
38266SOL     OW32407  11.151  11.899   4.897  0.5463 -0.5673  0.2731
38266SOL    HW132408  11.065  11.869   4.866  0.9073 -0.1561 -1.1505
38266SOL    HW232409  11.133  11.935   4.984 -0.5772 -1.2181  0.3358
38267SOL     OW32410   1.626   1.775  11.010  0.1903 -0.3236  0.4882
38267SOL    HW132411   1.579   1.692  10.996 -1.8493  1.1243 -2.0488
38267SOL    HW232412   1.595   1.805  11.095 -0.1939 -1.4512  0.7682
38268SOL     OW32413  11.772   8.389   3.672 -0.4155 -0.4798 -0.3947
38268SOL    HW132414  11.738   8.408   3.584  0.8648  0.8006 -0.6552
38268SOL    HW232415  11.792   8.476   3.708  1.8592 -1.1142  0.0021
38269SOL     OW32416   4.254  11.646   2.940 -0.1364  0.2652 -0.3851
38269SOL    HW132417   4.200  11.711   2.896 -0.2405  0.5046  0.0921
38269SOL    HW232418   4.319  11.696   2.988 -1.1545  0.1140  1.2337
38270SOL     OW32419   9.075  10.528   2.340  0.0782 -0.3593 -0.2629
38270SOL    HW132420   9.067  10.520   2.244  2.1798 -0.9269 -0.4331
38270SOL    HW232421   9.089  10.622   2.354  0.4882 -0.3714 -0.5746
38271SOL     OW32422  12.690   4.299  10.033 -0.6492  0.5342 -0.2023
38271SOL    HW132423  12.666   4.331   9.945 -1.6675 -0.2960 -0.2414
38271SOL    HW232424  12.664   4.207  10.033  0.0900  0.3114  0.7142
38272SOL     OW32425  11.589   7.569   3.234  0.0561 -0.2280 -0.6545
38272SOL    HW132426  11.585   7.633   3.162  0.1290 -0.6276 -1.0144
38272SOL    HW232427  11.508   7.519   3.225 -1.8085  2.0271  1.7256
38273SOL     OW32428   0.191  12.998   7.528  0.5046  0.2558  0.3653
38273SOL    HW132429   0.198  12.954   7.612 -2.1946 -1.2743 -0.1158
38273SOL    HW232430   0.282  13.016   7.503  1.3979  1.5512  3.9279
38274SOL     OW32431   1.734  11.136   1.888 -0.3620  0.0471 -0.7934
38274SOL    HW132432   1.824  11.110   1.907 -0.6017 -0.6561 -0.5892
38274SOL    HW232433   1.736  11.163   1.796 -0.0215 -0.3369 -0.9042
38275SOL     OW32434  11.259   6.169   7.136  0.6869  0.3712 -0.2781
38275SOL    HW132435  11.198   6.123   7.078 -1.0467  1.8461  0.2788
38275SOL    HW232436  11.270   6.255   7.096  1.2815  0.6134  0.3880
38276SOL     OW32437   8.185   2.271  11.309  0.1529 -0.7559 -0.0327
38276SOL    HW132438   8.213   2.182  11.329  0.3646 -0.7213 -0.1747
38276SOL    HW232439   8.089   2.265  11.304 -0.1540 -0.3387  3.1610
38277SOL     OW32440   0.994   6.423  12.631  0.2094 -0.1539  0.3132
38277SOL    HW132441   1.074   6.403  12.582  0.0660  1.2367 -0.5538
38277SOL    HW232442   1.024   6.472  12.707  0.2424 -0.2674  0.3729
38278SOL     OW32443   3.915  13.281  12.509  0.1147 -0.1016 -0.6531
38278SOL    HW132444   3.996  13.230  12.524 -0.6937 -2.1531 -2.6817
38278SOL    HW232445   3.860  13.259  12.584  0.2937 -1.1883 -0.8198
38279SOL     OW32446   4.736   6.764   6.300  0.1026  0.0977  0.4707
38279SOL    HW132447   4.657   6.758   6.354 -1.2932 -1.7689 -1.6186
38279SOL    HW232448   4.754   6.858   6.295 -2.2341  0.6182  0.6868
38280SOL     OW32449   2.271  11.932   4.003 -0.1812  0.0788  0.4435
38280SOL    HW132450   2.261  11.850   3.955 -0.6347  0.1111  0.4790
38280SOL    HW232451   2.182  11.967   4.010 -0.2056 -0.2236  1.8307
38281SOL     OW32452  14.086   1.710   9.496 -0.4097  0.2234 -0.1957
38281SOL    HW132453  14.153   1.640   9.497  0.1971  0.7147  2.5241
38281SOL    HW232454  14.136   1.791   9.508 -1.4150  0.5357  2.7724
38282SOL     OW32455   7.823  13.842  10.500 -0.0151 -0.9903  0.3062
38282SOL    HW132456   7.787  13.930  10.495  1.2412 -0.5246 -1.6558
38282SOL    HW232457   7.908  13.853  10.542  1.3133 -0.7670 -2.2248
38283SOL     OW32458  13.626   8.006  10.384 -0.3139 -0.3470 -0.1906
38283SOL    HW132459  13.533   8.022  10.400  0.0401  0.5973  1.1342
38283SOL    HW232460  13.655   8.082  10.333  0.2256  0.6677  1.5338
38284SOL     OW32461  10.379   7.015   0.337 -0.1646  0.2294 -0.6693
38284SOL    HW132462  10.312   7.072   0.299 -0.9959  1.4626  2.3192
38284SOL    HW232463  10.434   7.074   0.389  1.8926 -1.0939 -1.2336
38285SOL     OW32464   8.134   9.146   5.559 -0.0911  0.5317  0.2240
38285SOL    HW132465   8.049   9.110   5.585  0.9457 -0.8179  2.0049
38285SOL    HW232466   8.169   9.083   5.496  0.4493 -0.0271  1.0681
38286SOL     OW32467   2.179   8.491  11.855 -0.2672  0.3522 -0.2201
38286SOL    HW132468   2.198   8.434  11.930  1.1487  0.3246 -0.5632
38286SOL    HW232469   2.119   8.440  11.801 -1.2812  0.3582  0.8576
38287SOL     OW32470   3.695   5.002   4.731 -0.1832 -0.3041  0.6203
38287SOL    HW132471   3.699   5.095   4.749  0.8408 -0.5319  1.5921
38287SOL    HW232472   3.704   4.959   4.816 -1.2838 -1.2960  0.2799
38288SOL     OW32473   2.889   8.521   3.088  0.3258 -0.5305  0.0161
38288SOL    HW132474   2.974   8.565   3.083 -0.6300  1.2983 -2.6431
38288SOL    HW232475   2.832   8.585   3.131 -0.0577 -1.0614  0.2956
38289SOL     OW32476  10.122   9.096   2.203 -0.0447 -0.1642 -0.2749
38289SOL    HW132477  10.156   9.051   2.280 -0.2784  0.8957  0.4700
38289SOL    HW232478  10.170   9.178   2.200  0.5334 -0.5197 -1.7411
38290SOL     OW32479   7.837   1.171   8.641  0.4336  0.3821 -0.5263
38290SOL    HW132480   7.885   1.108   8.696  0.5527  0.5546 -0.4333
38290SOL    HW232481   7.839   1.253   8.691 -1.3921 -0.0125  0.2822
38291SOL     OW32482   9.759  12.888   4.655  0.8705  0.5393  0.2382
38291SOL    HW132483   9.734  12.849   4.571  1.3767  0.0963  0.2857
38291SOL    HW232484   9.737  12.820   4.719  1.7297  0.3365  0.3255
38292SOL     OW32485   9.893   2.198   5.578  0.0469 -0.0874  0.1937
38292SOL    HW132486   9.856   2.258   5.643 -1.4345 -0.4656 -0.2546
38292SOL    HW232487   9.853   2.113   5.599  0.6262 -0.5038 -0.3596
38293SOL     OW32488   4.484   1.369   1.138 -1.0973 -0.3834  0.0568
38293SOL    HW132489   4.415   1.431   1.112  0.6260  1.4548 -0.4164
38293SOL    HW232490   4.511   1.328   1.056  0.1177  0.8719 -0.2225
38294SOL     OW32491   4.857  10.807   9.371 -0.4747 -0.2196 -0.6700
38294SOL    HW132492   4.792  10.842   9.309 -0.7516  0.9858  0.2594
38294SOL    HW232493   4.860  10.872   9.442  2.6586  0.4277 -1.2465
38295SOL     OW32494  10.929   4.668   0.946  0.4163  0.3516 -0.2383
38295SOL    HW132495  10.906   4.603   0.879  0.0364 -2.3738  2.3562
38295SOL    HW232496  11.020   4.648   0.969 -0.5488 -1.3517  2.5970
38296SOL     OW32497   0.355  10.790   9.528 -0.4883  0.6421  0.0677
38296SOL    HW132498   0.375  10.697   9.541  0.0929  0.9182  1.3203
38296SOL    HW232499   0.414  10.818   9.458 -0.5683  0.1036 -0.2234
38297SOL     OW32500   7.420  10.077   1.380  0.1121  0.4445 -0.1201
38297SOL    HW132501   7.326  10.096   1.385  0.2526  0.8155  2.0599
38297SOL    HW232502   7.431   9.998   1.433  1.0566  0.5206 -0.1873
38298SOL     OW32503   5.391   6.438  12.806  0.1643  0.4657 -0.1174
38298SOL    HW132504   5.301   6.438  12.838 -0.0102  1.2642 -0.5770
38298SOL    HW232505   5.434   6.369  12.856 -0.0584  1.7290  1.8910
38299SOL     OW32506   0.045   1.978   0.487 -0.4941  0.3137 -0.1938
38299SOL    HW132507   0.120   1.964   0.545 -1.2059 -2.3487  0.1819
38299SOL    HW232508   0.083   2.012   0.406  1.4489 -2.7170 -0.7084
38300SOL     OW32509   4.235   6.943  11.563 -0.6359 -0.1891 -0.1557
38300SOL    HW132510   4.261   6.988  11.483 -2.0286 -1.7004 -1.5562
38300SOL    HW232511   4.274   6.856  11.555 -1.2215 -0.5251  0.5481
38301SOL     OW32512   3.486   6.754  11.424 -0.3501  0.0510 -0.0841
38301SOL    HW132513   3.502   6.753  11.329  1.2759  0.9342  0.1464
38301SOL    HW232514   3.397   6.719  11.433 -0.3207 -0.6259 -1.8806
38302SOL     OW32515   5.884   2.486   6.872  0.2253  0.1299  0.2974
38302SOL    HW132516   5.860   2.438   6.792  0.7005 -0.2470  0.3757
38302SOL    HW232517   5.812   2.469   6.932 -0.7700  1.4522 -0.4662
38303SOL     OW32518  12.117   3.812  12.823 -0.4288  0.2061  0.3810
38303SOL    HW132519  12.210   3.832  12.817 -0.0878 -1.3911 -0.0007
38303SOL    HW232520  12.099   3.806  12.916  0.2702 -1.1940  0.4550
38304SOL     OW32521   5.245   0.768   8.638  0.0614 -0.3913  0.3706
38304SOL    HW132522   5.171   0.725   8.595  1.6248 -1.6322 -1.2344
38304SOL    HW232523   5.294   0.808   8.566  1.0035  0.3564  1.3907
38305SOL     OW32524   6.888   5.707   2.778 -0.1769 -0.1081  0.0473
38305SOL    HW132525   6.950   5.670   2.715  2.2279  0.9034  1.6736
38305SOL    HW232526   6.900   5.801   2.772 -2.0699  0.1764 -0.0046
38306SOL     OW32527  14.084   7.153  13.875  0.6373 -0.0048 -0.3392
38306SOL    HW132528  13.999   7.196  13.866 -0.2979 -1.6132  0.4396
38306SOL    HW232529  14.090   7.095  13.800  0.2701 -1.1221  0.4655
38307SOL     OW32530  11.347  10.121   1.083 -0.3976 -0.0349 -0.6259
38307SOL    HW132531  11.422  10.098   1.138  1.4832 -0.3962 -3.1427
38307SOL    HW232532  11.334  10.045   1.026 -2.6059  0.1060 -0.4123
38308SOL     OW32533  13.562  10.983   7.993  0.1077  0.0163  0.2289
38308SOL    HW132534  13.506  11.046   8.039  1.9093  2.3077 -0.4855
38308SOL    HW232535  13.512  10.960   7.914 -0.4024  0.9417  0.2653
38309SOL     OW32536  10.305   7.325  12.725  0.6109 -0.3721 -0.5846
38309SOL    HW132537  10.390   7.295  12.757  0.4841 -1.2456 -1.0469
38309SOL    HW232538  10.249   7.247  12.726 -0.2183  0.2039 -0.2102
38310SOL     OW32539   8.328   5.709   5.042  0.1471 -0.5489 -0.3851
38310SOL    HW132540   8.289   5.628   5.075 -1.8820  0.5244 -0.0353
38310SOL    HW232541   8.303   5.776   5.105  3.4740  0.1029  0.4425
38311SOL     OW32542   3.940   1.130   6.563 -0.1783 -0.1202  0.5293
38311SOL    HW132543   3.989   1.212   6.553  2.2417 -1.7499 -3.4730
38311SOL    HW232544   4.008   1.064   6.579 -1.7541 -1.6975  0.9751
38312SOL     OW32545   2.962   4.465   1.454 -0.3608 -0.1157 -0.3724
38312SOL    HW132546   2.966   4.507   1.368  0.7140  1.4487  0.3839
38312SOL    HW232547   2.882   4.501   1.494 -0.0332  0.3670 -0.1440
38313SOL     OW32548   3.807   1.139  11.923  0.3683  0.0256  0.3973
38313SOL    HW132549   3.816   1.220  11.872  0.3649  0.6121  1.3060
38313SOL    HW232550   3.896   1.120  11.953  0.1920  0.3607  1.1672
38314SOL     OW32551   8.991   1.609   0.026  0.0703 -0.1745  0.4476
38314SOL    HW132552   8.926   1.550  -0.013  0.8752 -1.6674  1.2568
38314SOL    HW232553   8.942   1.688   0.047 -1.0281 -0.4994 -0.7896
38315SOL     OW32554   4.008   9.325   1.541  0.1013 -0.4252 -0.3079
38315SOL    HW132555   3.985   9.304   1.631 -1.9525  2.3811 -0.0088
38315SOL    HW232556   3.944   9.278   1.488 -2.6924  2.4917  0.1831
38316SOL     OW32557  10.655   3.427   8.652 -0.6472  0.2784  0.1071
38316SOL    HW132558  10.663   3.342   8.695  0.9503 -0.1714 -0.9717
38316SOL    HW232559  10.711   3.486   8.703 -0.8609  0.4179  0.1853
38317SOL     OW32560   6.871   6.993   1.130  0.7617 -0.2115 -0.0756
38317SOL    HW132561   6.856   6.898   1.135  1.1646 -0.2692  0.0182
38317SOL    HW232562   6.843   7.026   1.216 -0.9921 -0.0181 -0.6850
38318SOL     OW32563   2.906   7.285   8.767  0.9775 -0.1472  0.4261
38318SOL    HW132564   2.927   7.194   8.786 -0.3723 -0.8160 -1.0409
38318SOL    HW232565   2.956   7.335   8.832  0.1883 -1.9946  2.6002
38319SOL     OW32566   2.559  13.342   9.087 -0.1809  0.5270 -0.5839
38319SOL    HW132567   2.606  13.260   9.071 -0.8655 -0.1423  0.6441
38319SOL    HW232568   2.627  13.408   9.098  0.3881  0.0785 -1.3427
38320SOL     OW32569  12.632   2.531  13.660 -0.1061 -0.1464 -0.0269
38320SOL    HW132570  12.541   2.551  13.682 -0.5324 -2.4429  0.5438
38320SOL    HW232571  12.683   2.595  13.710 -1.3498 -0.1165  1.2829
38321SOL     OW32572   9.501   4.036   4.499 -0.3344 -0.1029  0.1785
38321SOL    HW132573   9.579   3.988   4.472  0.2462  0.1076  1.3828
38321SOL    HW232574   9.534   4.102   4.560 -1.4439  0.0667  0.6186
38322SOL     OW32575   5.533   9.108   5.621  0.7145  0.3952  0.4047
38322SOL    HW132576   5.582   9.105   5.703 -0.0790 -0.6520  0.8657
38322SOL    HW232577   5.453   9.156   5.642 -0.3499 -1.4337  0.7725
38323SOL     OW32578   9.465   0.976   4.757  0.0460  0.2906  0.0781
38323SOL    HW132579   9.486   1.068   4.745  1.0499 -0.0186 -0.7894
38323SOL    HW232580   9.383   0.963   4.710 -0.6290  0.9436  1.0638
38324SOL     OW32581   1.172  12.343   0.295  0.5493  0.0585 -0.6751
38324SOL    HW132582   1.178  12.353   0.390  0.6210 -2.4371 -0.3560
38324SOL    HW232583   1.261  12.360   0.264  0.6455  0.3690 -0.2437
38325SOL     OW32584  12.567  13.681   5.528 -0.1269  0.1457  0.1907
38325SOL    HW132585  12.567  13.648   5.618 -0.2211 -1.6043 -0.4067
38325SOL    HW232586  12.491  13.639   5.488 -0.1232  0.9594 -0.6994
38326SOL     OW32587  13.511  12.416   2.379 -0.4377  0.1736 -0.1470
38326SOL    HW132588  13.577  12.385   2.317 -0.8480 -0.2671 -0.3803
38326SOL    HW232589  13.520  12.511   2.379 -0.3646  0.1712 -0.8124
38327SOL     OW32590   0.551   9.015  12.022  0.7937 -0.3401 -0.3363
38327SOL    HW132591   0.512   8.938  12.063  0.6131  0.1336  0.4089
38327SOL    HW232592   0.493   9.036  11.948  2.3537 -2.5600 -2.3461
38328SOL     OW32593   8.444  13.099   4.759 -0.4995 -0.2728 -0.0843
38328SOL    HW132594   8.384  13.025   4.768  0.3619 -0.8847  0.8808
38328SOL    HW232595   8.450  13.135   4.847 -0.8080  0.8854 -0.5236
38329SOL     OW32596   2.824   9.793   0.314  0.1392  0.1301 -0.0743
38329SOL    HW132597   2.896   9.736   0.286  0.3652 -0.0673  0.8419
38329SOL    HW232598   2.849   9.881   0.285 -0.1796 -0.2164 -1.4390
38330SOL     OW32599  12.005  13.143   2.121 -0.1749 -1.1368  0.2578
38330SOL    HW132600  11.936  13.111   2.179 -1.3393  2.1026  0.8624
38330SOL    HW232601  12.054  13.205   2.174 -0.8434  1.4236 -1.8656
38331SOL     OW32602  12.306  11.823  10.823 -0.1605 -0.5313 -0.2366
38331SOL    HW132603  12.379  11.861  10.775  0.0131 -1.4601 -0.7413
38331SOL    HW232604  12.348  11.765  10.887 -0.3487  1.3069  1.6496
38332SOL     OW32605   9.260  11.028   5.814 -0.5685  0.3033 -0.3037
38332SOL    HW132606   9.334  11.059   5.761 -0.4674  0.6539  0.0366
38332SOL    HW232607   9.184  11.045   5.759 -0.4391  0.3966 -0.4562
38333SOL     OW32608   4.279   4.131   1.006  0.4458  0.3363 -0.3049
38333SOL    HW132609   4.350   4.149   1.068  1.3229  0.6936 -1.4035
38333SOL    HW232610   4.232   4.214   0.998  0.2513  0.2550 -0.0234
38334SOL     OW32611   6.568   5.982  13.684  0.2286 -0.1565 -0.0404
38334SOL    HW132612   6.576   5.903  13.631  0.9191  0.3146 -0.6639
38334SOL    HW232613   6.545   6.051  13.621  0.0230  0.2220  0.4330
38335SOL     OW32614  14.028  11.153   7.945  0.5656 -0.2393 -0.1849
38335SOL    HW132615  14.054  11.063   7.931  0.7294 -0.1417 -0.5069
38335SOL    HW232616  13.933  11.150   7.950  0.4153 -0.1726 -2.1725
38336SOL     OW32617  12.400   8.442  12.250 -0.2015 -0.2539 -0.0368
38336SOL    HW132618  12.343   8.518  12.256  0.9594  0.7882 -1.4611
38336SOL    HW232619  12.341   8.368  12.238 -1.3021  0.9146 -2.6351
38337SOL     OW32620   7.187   5.899   1.789 -0.0477  0.1635  0.2460
38337SOL    HW132621   7.145   5.852   1.718 -0.3917 -1.1251  1.2679
38337SOL    HW232622   7.279   5.872   1.786 -0.0778  0.0523  0.3410
38338SOL     OW32623   3.609  13.341   0.014  0.1437 -1.0700 -0.1661
38338SOL    HW132624   3.530  13.289   0.024  0.3467 -1.2095  0.7906
38338SOL    HW232625   3.627  13.375   0.102 -0.5210  1.4281 -0.9133
38339SOL     OW32626  11.003   6.577   1.482 -0.3217 -0.5290 -0.1239
38339SOL    HW132627  11.072   6.600   1.419 -1.7399  0.4314 -1.3827
38339SOL    HW232628  10.947   6.654   1.486 -1.1492 -1.1679  1.1399
38340SOL     OW32629   9.404   2.914  13.875 -0.0535 -0.1972  0.2662
38340SOL    HW132630   9.348   2.973  13.926 -0.7442 -1.5031  1.0709
38340SOL    HW232631   9.465   2.878  13.939 -0.5407 -1.3980  0.0920
38341SOL     OW32632   1.762  12.489   7.088 -0.0237 -0.1788  0.5483
38341SOL    HW132633   1.738  12.433   7.162 -0.2486  0.5679  1.0508
38341SOL    HW232634   1.776  12.575   7.127  0.7286  0.0274 -0.1518
38342SOL     OW32635   1.157   9.656   1.581 -0.5478  0.2979  0.0303
38342SOL    HW132636   1.150   9.593   1.652  0.7851 -0.0429 -0.1095
38342SOL    HW232637   1.171   9.602   1.503 -0.7167  0.7145 -0.2897
38343SOL     OW32638   1.743   3.390   7.729 -0.1325  0.0287 -0.3871
38343SOL    HW132639   1.668   3.350   7.773 -1.1347  1.1777 -0.9759
38343SOL    HW232640   1.757   3.335   7.652 -2.5115  1.5419 -2.0629
38344SOL     OW32641   0.461  10.007   2.786 -0.8334 -0.2523 -0.3587
38344SOL    HW132642   0.517   9.946   2.738  0.0971  0.7936 -0.6612
38344SOL    HW232643   0.448   9.966   2.871 -1.7975 -1.7345 -1.1972
38345SOL     OW32644   9.425   7.997   2.296  0.2236 -0.0863 -0.0710
38345SOL    HW132645   9.465   8.048   2.366  0.0692 -0.7349  0.4948
38345SOL    HW232646   9.331   8.001   2.313  0.3018 -2.3042  1.2417
38346SOL     OW32647   8.843   3.450  13.507  0.5827 -0.0106 -0.2055
38346SOL    HW132648   8.854   3.518  13.441 -1.1344 -1.0990 -1.6861
38346SOL    HW232649   8.921   3.395  13.499  1.3613  1.0021  0.1290
38347SOL     OW32650   0.371   7.457   5.837  0.2211 -0.3041  0.2607
38347SOL    HW132651   0.377   7.536   5.892 -1.5587 -0.3299  0.5253
38347SOL    HW232652   0.430   7.395   5.880 -0.1124  0.1238  1.3876
38348SOL     OW32653   4.105   4.231   1.448  0.2924 -0.0698  0.3459
38348SOL    HW132654   4.123   4.300   1.384  0.5715 -0.5369 -0.0828
38348SOL    HW232655   4.122   4.150   1.401  0.6489 -0.4152  1.0595
38349SOL     OW32656  10.746   7.696  13.839 -0.5113 -0.3517 -0.2666
38349SOL    HW132657  10.695   7.721  13.915 -0.2537  1.4143 -0.6323
38349SOL    HW232658  10.788   7.614  13.864  0.1282  0.5405  1.7568
38350SOL     OW32659  13.335   3.289  11.887 -0.2197 -0.4146 -0.5980
38350SOL    HW132660  13.317   3.202  11.923  0.0415 -0.9306 -1.6792
38350SOL    HW232661  13.415   3.278  11.837  1.0693  0.9686  1.0282
38351SOL     OW32662   4.626   6.038  11.138 -0.4685 -0.2971  0.4955
38351SOL    HW132663   4.623   5.993  11.222  1.3379  0.7656  1.2016
38351SOL    HW232664   4.693   5.990  11.088 -0.7256 -0.2436  0.1025
38352SOL     OW32665   3.945   9.895  13.104 -0.4451 -0.2914 -0.4447
38352SOL    HW132666   3.942   9.859  13.193 -0.4003 -1.0634 -0.7552
38352SOL    HW232667   3.861   9.941  13.094 -0.1191  0.4951  0.2776
38353SOL     OW32668   4.582  11.791   3.822 -0.5810  0.1330 -0.5988
38353SOL    HW132669   4.559  11.871   3.869 -1.2330 -0.0941 -0.5305
38353SOL    HW232670   4.650  11.819   3.761  0.5732  0.3498  0.7309
38354SOL     OW32671   7.382   9.282   1.455  0.4930  0.0905 -0.3251
38354SOL    HW132672   7.420   9.281   1.543 -0.6381  0.5790  0.1954
38354SOL    HW232673   7.322   9.207   1.454 -1.0748  1.2730  0.0945
38355SOL     OW32674   9.709   1.152   0.071 -0.6965  0.1560  0.0058
38355SOL    HW132675   9.630   1.201   0.050 -1.0666  0.7986  2.6096
38355SOL    HW232676   9.774   1.219   0.093 -0.3864 -0.4205  0.9347
38356SOL     OW32677   1.819   0.975   0.233  0.0857 -0.0148  0.0493
38356SOL    HW132678   1.786   0.890   0.203 -0.2382  0.6935 -1.6912
38356SOL    HW232679   1.752   1.006   0.294  0.2280 -1.0064  0.7376
38357SOL     OW32680  12.545   1.739  12.025 -0.3541 -0.0475 -0.5635
38357SOL    HW132681  12.462   1.778  11.999 -0.7149 -0.3189  0.1652
38357SOL    HW232682  12.526   1.645  12.034 -0.2320  0.0265  0.6165
38358SOL     OW32683   2.455  12.137  11.938  0.4601  0.2558  0.4293
38358SOL    HW132684   2.525  12.108  11.997 -0.3179 -0.5054  0.9920
38358SOL    HW232685   2.383  12.160  11.996  0.4239  1.6393 -0.1070
38359SOL     OW32686  11.865  11.525  10.481  0.5791 -0.2800 -0.2438
38359SOL    HW132687  11.925  11.460  10.443  0.3060 -0.9330  0.4346
38359SOL    HW232688  11.884  11.524  10.574  2.9091  2.9874 -0.4947
38360SOL     OW32689   8.028  10.553   4.487  0.4958 -0.2686 -0.2997
38360SOL    HW132690   8.001  10.503   4.564  2.2918  0.1232  0.6440
38360SOL    HW232691   8.033  10.488   4.417  0.0665 -0.8715  0.2186
38361SOL     OW32692   4.016   0.377   3.868  0.1915  0.3868 -0.1998
38361SOL    HW132693   3.946   0.347   3.811  0.0319  1.3097 -0.5033
38361SOL    HW232694   4.096   0.356   3.820  0.0321  2.4459 -1.4660
38362SOL     OW32695   8.478   3.948   1.078 -0.6894 -0.4477 -0.0601
38362SOL    HW132696   8.458   4.014   1.145 -0.7445 -1.4402  0.9425
38362SOL    HW232697   8.573   3.938   1.083 -0.7628 -0.9884  0.3416
38363SOL     OW32698  13.573   8.358   8.710 -0.1883 -0.0210 -0.2127
38363SOL    HW132699  13.636   8.399   8.651 -0.5820  0.9445  0.0272
38363SOL    HW232700  13.512   8.313   8.652 -1.4383  2.1427 -0.6532
38364SOL     OW32701   8.122   5.509  13.096  0.1012 -0.0416  0.5735
38364SOL    HW132702   8.190   5.513  13.164  0.8586  1.2532 -0.2205
38364SOL    HW232703   8.057   5.573  13.125 -0.8028 -1.2526  1.3119
38365SOL     OW32704   2.478  11.656   3.599  0.4498 -0.6387 -0.1658
38365SOL    HW132705   2.511  11.684   3.685 -1.8176  2.0023 -0.0245
38365SOL    HW232706   2.543  11.689   3.537  0.1388  0.9993  0.3324
38366SOL     OW32707   6.581   6.237   5.265 -0.3739  0.2467 -0.2594
38366SOL    HW132708   6.666   6.198   5.246  0.2880  1.2598  0.5290
38366SOL    HW232709   6.554   6.278   5.182  0.1938  0.4397 -0.3555
38367SOL     OW32710  12.085  11.332  11.308  0.2565 -0.5507 -0.2786
38367SOL    HW132711  12.155  11.396  11.324  0.5360 -1.1309  1.0018
38367SOL    HW232712  12.031  11.372  11.240  0.8478  0.7037 -0.0503
38368SOL     OW32713   8.168   7.774   7.796 -0.3822 -0.0977  0.3096
38368SOL    HW132714   8.100   7.801   7.858 -0.1234  2.1264 -0.2919
38368SOL    HW232715   8.250   7.798   7.838 -0.1835  0.9768 -0.6288
38369SOL     OW32716   3.694   7.532   1.148  0.4220  0.2902 -0.3318
38369SOL    HW132717   3.712   7.485   1.066 -0.2109 -0.4303 -0.0623
38369SOL    HW232718   3.599   7.528   1.158  0.4561  0.7283  0.2366
38370SOL     OW32719  11.176  12.784  10.834  0.4110 -0.3604  0.1351
38370SOL    HW132720  11.236  12.833  10.778 -0.3817 -0.1378 -0.5467
38370SOL    HW232721  11.122  12.734  10.773  0.1839 -0.8879  0.7567
38371SOL     OW32722   7.053  11.970   5.939 -0.0529  0.2854 -0.4391
38371SOL    HW132723   7.110  11.959   6.015 -0.3629  0.5855 -0.1590
38371SOL    HW232724   7.111  12.001   5.869  0.1107  0.6651 -0.1352
38372SOL     OW32725   5.274   2.866   0.409 -0.2459  0.6323 -0.3154
38372SOL    HW132726   5.348   2.900   0.459 -0.0453 -0.0710 -0.1190
38372SOL    HW232727   5.243   2.940   0.358 -0.5384  1.4246  0.9511
38373SOL     OW32728   5.450  11.759   5.227  0.2839  0.3529 -0.1259
38373SOL    HW132729   5.393  11.702   5.175  0.5307  0.2105 -0.2468
38373SOL    HW232730   5.532  11.710   5.234 -0.6448 -1.0164  2.9707
38374SOL     OW32731  11.448  13.770   5.332 -0.4111  0.2181  0.0871
38374SOL    HW132732  11.408  13.695   5.287 -1.5556  0.8354  0.0297
38374SOL    HW232733  11.496  13.816   5.263 -0.9976  0.3910 -0.2077
38375SOL     OW32734   4.541  11.873   4.557 -0.3296 -0.0718  0.0152
38375SOL    HW132735   4.490  11.827   4.623  1.4109 -1.0155  0.7850
38375SOL    HW232736   4.552  11.808   4.487 -0.4467  0.2265 -0.2809
38376SOL     OW32737  12.276  10.842   7.527 -0.3327 -0.8264  0.7951
38376SOL    HW132738  12.353  10.818   7.579  0.1885  0.9378  0.9085
38376SOL    HW232739  12.236  10.914   7.576 -2.3401 -1.9923  0.9660
38377SOL     OW32740  12.718  10.067   4.834 -0.0896  0.2469  0.1649
38377SOL    HW132741  12.766  10.028   4.907 -0.7767  0.1686  0.5885
38377SOL    HW232742  12.753  10.025   4.756 -0.6699 -1.0910  0.6007
38378SOL     OW32743   6.416   9.973   0.248 -0.7287  0.4074  0.1440
38378SOL    HW132744   6.507   9.974   0.218 -0.7804  1.5840 -0.0229
38378SOL    HW232745   6.415   9.909   0.318  0.8827  2.3261  2.0550
38379SOL     OW32746   7.788   0.996  10.611  0.4471  0.3184  0.2640
38379SOL    HW132747   7.833   0.924  10.567  0.7568  0.6644  0.0057
38379SOL    HW232748   7.748   1.047  10.540 -3.0810 -1.6777  0.5898
38380SOL     OW32749   9.818   0.198   5.081  0.1089 -0.0531 -0.0188
38380SOL    HW132750   9.834   0.287   5.114  0.4255 -0.3233  0.5788
38380SOL    HW232751   9.814   0.144   5.160 -0.4588 -0.5143 -0.3547
38381SOL     OW32752   9.524  12.162   7.267 -0.2254 -0.3693  0.3696
38381SOL    HW132753   9.617  12.139   7.261 -0.6748 -2.3138  0.0611
38381SOL    HW232754   9.510  12.178   7.360 -0.0435 -2.5134  0.8291
38382SOL     OW32755   3.169   6.913   5.218  0.3913  0.1180  0.1622
38382SOL    HW132756   3.200   6.932   5.130 -0.3510  0.4276 -0.0374
38382SOL    HW232757   3.244   6.873   5.262  1.3919  1.7131 -0.0065
38383SOL     OW32758   2.036   0.186  11.501  0.1951 -0.1169 -0.0721
38383SOL    HW132759   2.089   0.249  11.548  0.4875 -0.2978 -0.1572
38383SOL    HW232760   2.099   0.133  11.452 -0.1559  0.7471 -1.5300
38384SOL     OW32761  13.958   9.921  13.433 -0.4135  0.3650  0.0922
38384SOL    HW132762  13.948   9.871  13.514 -0.2923 -0.4029 -0.3602
38384SOL    HW232763  13.923  10.008  13.454  2.5446  1.2657  1.9747
38385SOL     OW32764   6.833   3.155   6.941  0.1841  0.1019  0.1044
38385SOL    HW132765   6.763   3.196   6.890  0.7131  1.2217  0.2532
38385SOL    HW232766   6.912   3.167   6.888  0.5790  0.4781  0.7684
38386SOL     OW32767  10.718  13.994   9.916  0.0848  0.2502  0.0395
38386SOL    HW132768  10.793  13.945   9.882  0.3225 -0.7107  1.7986
38386SOL    HW232769  10.656  13.926   9.944 -1.1349  1.0255 -0.6786
38387SOL     OW32770   7.693   7.566  13.272 -0.2590 -0.2647 -0.0256
38387SOL    HW132771   7.722   7.475  13.277  2.2316  0.4244 -0.2717
38387SOL    HW232772   7.715   7.594  13.183 -1.3810  0.4771 -0.0986
38388SOL     OW32773   5.309   0.602   1.545 -0.4367  0.1375 -0.5164
38388SOL    HW132774   5.250   0.674   1.525 -0.8868  0.0963  0.5567
38388SOL    HW232775   5.252   0.524   1.544 -0.4052  0.0893  0.4653
38389SOL     OW32776  10.017   0.059  11.261  0.2665  0.9312 -0.1534
38389SOL    HW132777   9.996  -0.029  11.291  0.3763  0.7760 -0.5239
38389SOL    HW232778  10.047   0.105  11.339 -1.9382  1.3266  0.5217
38390SOL     OW32779   6.840  10.123   5.994 -0.2772 -0.5894  0.3779
38390SOL    HW132780   6.858  10.204   6.042 -0.9591 -0.5362  0.5619
38390SOL    HW232781   6.909  10.063   6.023  0.7328  0.1657 -0.3989
38391SOL     OW32782  10.224   1.656  11.201  0.9132 -0.3152  0.1835
38391SOL    HW132783  10.233   1.735  11.148 -2.9521  0.8358  0.9748
38391SOL    HW232784  10.203   1.587  11.138  2.5412 -0.3869 -0.3247
38392SOL     OW32785   7.814   3.694   6.661 -0.5721  0.0789  0.1195
38392SOL    HW132786   7.728   3.734   6.650 -0.2733  1.0196  1.0853
38392SOL    HW232787   7.860   3.752   6.722  0.5392 -0.7268  0.0707
38393SOL     OW32788   4.304   3.999   1.402  0.1852  0.3033  0.3180
38393SOL    HW132789   4.352   3.963   1.327 -0.8814 -1.5720  0.4940
38393SOL    HW232790   4.271   3.923   1.449 -2.4934  1.4888  0.5118
38394SOL     OW32791   4.125   3.078  12.526  0.1150  0.5595 -0.3129
38394SOL    HW132792   4.137   2.997  12.477 -2.5240  0.0848 -0.3006
38394SOL    HW232793   4.069   3.054  12.600  0.7014  2.0790  0.6933
38395SOL     OW32794   1.308   5.887  13.124 -0.5233 -0.0481 -0.0026
38395SOL    HW132795   1.285   5.979  13.140  1.2748  0.5950 -0.8611
38395SOL    HW232796   1.404   5.887  13.118 -0.3939 -2.1843  1.1186
38396SOL     OW32797   7.926   4.976   3.089  0.2624  0.6176 -0.3933
38396SOL    HW132798   7.861   5.037   3.054 -0.5856 -1.1880 -2.1947
38396SOL    HW232799   7.928   4.995   3.183 -2.4305  1.1833 -0.3457
38397SOL     OW32800   6.511   2.917  11.548  0.2537  0.0408  0.0080
38397SOL    HW132801   6.478   2.827  11.551  0.0022 -0.0979 -3.2812
38397SOL    HW232802   6.441   2.970  11.587 -1.0664 -0.9037 -1.0152
38398SOL     OW32803   0.809   8.467   4.036 -0.2449  0.3247 -0.0529
38398SOL    HW132804   0.901   8.492   4.047  0.0438  0.2114 -1.8082
38398SOL    HW232805   0.781   8.517   3.959 -1.1878 -0.8364 -0.4824
38399SOL     OW32806  13.971   5.095  13.841  1.0402 -0.1631  0.0534
38399SOL    HW132807  13.933   5.171  13.885  1.2131 -0.3624  0.5516
38399SOL    HW232808  14.063   5.095  13.869  1.4235  0.2987 -1.1129
38400SOL     OW32809   1.205  13.460   4.862 -0.3191 -0.2868 -0.0636
38400SOL    HW132810   1.284  13.407   4.854  1.0955  1.7116 -0.1114
38400SOL    HW232811   1.201  13.510   4.780 -1.0463  0.3879  0.3610
38401SOL     OW32812   3.804   1.140   4.744  0.0481 -0.0228 -0.1902
38401SOL    HW132813   3.868   1.177   4.805 -0.0878 -1.0544  0.6024
38401SOL    HW232814   3.738   1.098   4.800 -1.5292  1.2959 -0.9800
38402SOL     OW32815   4.969   2.120   1.355 -0.1169  0.2849  0.1080
38402SOL    HW132816   5.007   2.207   1.341 -0.4816  0.6079  1.0482
38402SOL    HW232817   4.929   2.097   1.270  0.5900  0.7181 -0.3531
38403SOL     OW32818   1.578   7.912  10.624 -0.1108 -0.5007 -0.0041
38403SOL    HW132819   1.641   7.946  10.560 -2.4136 -1.2667 -2.8938
38403SOL    HW232820   1.624   7.839  10.666  1.5896  0.1882 -0.5781
38404SOL     OW32821   0.212   6.174   2.557 -0.2672  0.3807  0.8966
38404SOL    HW132822   0.275   6.192   2.627  1.1733 -1.6261  0.2106
38404SOL    HW232823   0.264   6.180   2.476 -1.4528  0.7414  0.1295
38405SOL     OW32824  13.416   2.263   9.338  0.0356  0.1377  0.3011
38405SOL    HW132825  13.456   2.220   9.262  0.3388  1.5303 -0.3635
38405SOL    HW232826  13.323   2.267   9.316  0.1527  0.7263 -0.1028
38406SOL     OW32827  14.009   1.919   6.752 -0.5216 -0.4484  0.0394
38406SOL    HW132828  13.968   1.860   6.689 -2.2802 -0.9001  1.5429
38406SOL    HW232829  13.972   1.894   6.836  3.4524 -1.4527  1.7154
38407SOL     OW32830   3.832   8.296   1.904 -0.0304 -0.1473  0.5713
38407SOL    HW132831   3.885   8.237   1.851 -1.1044 -0.5455 -0.1073
38407SOL    HW232832   3.753   8.247   1.924 -0.4230  0.6387  1.0245
38408SOL     OW32833  10.381   4.907   0.780  0.4796 -0.0228  0.2330
38408SOL    HW132834  10.416   4.910   0.691  0.9746 -0.3193  0.4199
38408SOL    HW232835  10.454   4.878   0.834 -0.0349 -0.5902  0.6304
38409SOL     OW32836  12.078   3.159   8.678 -0.7617 -0.0449  0.1433
38409SOL    HW132837  12.107   3.146   8.768 -1.7255 -0.0020  0.4744
38409SOL    HW232838  12.117   3.242   8.652  0.9419 -0.8754 -0.0920
38410SOL     OW32839  11.502   9.157   4.518  0.0868  0.4358  0.1585
38410SOL    HW132840  11.543   9.190   4.598 -0.1567  0.6341  0.2022
38410SOL    HW232841  11.557   9.191   4.448  3.2672 -3.6620  0.3087
38411SOL     OW32842   7.807   2.072   5.629 -0.5990 -0.0754 -0.1416
38411SOL    HW132843   7.729   2.043   5.582 -0.8853 -1.2193  0.9731
38411SOL    HW232844   7.876   2.013   5.599 -0.8648 -1.0654  1.0742
38412SOL     OW32845   9.440  10.305   5.935 -0.0405 -0.1937  0.2763
38412SOL    HW132846   9.438  10.383   5.879  0.1516 -0.2677  0.1648
38412SOL    HW232847   9.393  10.332   6.014 -0.6936 -0.2258 -0.0917
38413SOL     OW32848  10.619   5.916  10.291  0.3579 -0.0879 -0.1599
38413SOL    HW132849  10.558   5.864  10.240 -1.3448 -0.5984  2.2376
38413SOL    HW232850  10.706   5.893  10.257 -0.6630 -0.1631 -2.9202
38414SOL     OW32851  12.734   5.846   0.338  0.0619 -0.7124 -0.1041
38414SOL    HW132852  12.747   5.830   0.432 -0.3870 -1.9868 -0.2482
38414SOL    HW232853  12.672   5.919   0.334  1.0263  0.1808  0.5725
38415SOL     OW32854  11.395   3.268   5.402  0.7083 -0.3901 -0.1643
38415SOL    HW132855  11.360   3.211   5.471  2.2698 -0.1396  0.8739
38415SOL    HW232856  11.486   3.241   5.392  1.1142  1.0288 -0.5849
38416SOL     OW32857   0.928  10.258   6.695  0.5186 -0.3117 -0.3175
38416SOL    HW132858   0.922  10.282   6.788 -1.0297 -0.6049 -0.3100
38416SOL    HW232859   0.901  10.166   6.693  1.2336 -0.5114 -0.9825
38417SOL     OW32860   1.729  12.823   5.593 -0.6616 -0.4111  0.1558
38417SOL    HW132861   1.822  12.817   5.573 -0.7739 -2.6489  0.1184
38417SOL    HW232862   1.688  12.756   5.539 -2.0745 -0.7210  1.5326
38418SOL     OW32863  12.110  13.687   4.421  0.5951  0.5322  0.7432
38418SOL    HW132864  12.154  13.729   4.346  0.2968 -0.2582  0.1121
38418SOL    HW232865  12.018  13.685   4.396  0.2046  1.8558  1.9090
38419SOL     OW32866   7.848   9.934   5.743 -0.2665  0.0829  0.3569
38419SOL    HW132867   7.756   9.947   5.719 -0.4598  0.8238  1.4571
38419SOL    HW232868   7.872  10.012   5.792  0.2388 -1.1228  2.1420
38420SOL     OW32869   3.661   8.336   2.335  0.1885  0.7596  0.0847
38420SOL    HW132870   3.595   8.322   2.403 -0.4920  0.3190 -0.6418
38420SOL    HW232871   3.713   8.410   2.367  0.6352 -0.1737  1.6245
38421SOL     OW32872   4.287  11.101   1.048 -0.0301 -0.4548 -0.3574
38421SOL    HW132873   4.334  11.119   0.967 -0.7211 -0.1308 -0.6930
38421SOL    HW232874   4.278  11.005   1.049  1.6204 -0.6242  0.2852
38422SOL     OW32875   3.402   9.375   3.134 -0.5263 -0.1699 -0.0277
38422SOL    HW132876   3.343   9.449   3.148  0.4162  1.0620 -1.9966
38422SOL    HW232877   3.459   9.404   3.062  1.6552 -1.7709  0.9540
38423SOL     OW32878   9.049   4.120  10.388  0.4572  0.2040 -0.2597
38423SOL    HW132879   9.053   4.148  10.296 -1.6599  1.9060  0.0890
38423SOL    HW232880   9.002   4.036  10.385  0.4879  0.1981 -0.7205
38424SOL     OW32881   3.531   5.476   9.323  0.2114  0.4741  0.2009
38424SOL    HW132882   3.594   5.443   9.386  0.0551  0.1815  0.2046
38424SOL    HW232883   3.540   5.419   9.247  2.2320  2.3575 -1.0808
38425SOL     OW32884  12.146   6.578  11.254 -0.2744  0.0473  0.4713
38425SOL    HW132885  12.097   6.656  11.230  0.9224  0.9163  0.7493
38425SOL    HW232886  12.094   6.538  11.325 -2.0610 -0.6915 -1.1681
38426SOL     OW32887   6.649   8.095  13.255  0.0114 -0.5455 -0.2989
38426SOL    HW132888   6.595   8.124  13.182  0.3262 -1.8821 -1.0818
38426SOL    HW232889   6.615   8.009  13.278 -0.4192  0.0536  1.4911
38427SOL     OW32890   1.387   9.697   9.666  0.2868  0.3514 -0.0338
38427SOL    HW132891   1.299   9.675   9.634 -0.3467 -0.6305  2.1550
38427SOL    HW232892   1.436   9.615   9.658  0.8888  0.7637 -0.7692
38428SOL     OW32893   6.876   1.615   2.907  0.3029  0.2617 -0.0552
38428SOL    HW132894   6.848   1.569   2.986  2.3154 -0.8750  0.0854
38428SOL    HW232895   6.806   1.678   2.888 -1.7319 -1.6270  0.7888
38429SOL     OW32896  11.724   0.866   1.710 -0.1489  0.2653 -0.0862
38429SOL    HW132897  11.710   0.949   1.664  0.1035  1.0731  1.2196
38429SOL    HW232898  11.641   0.819   1.701  0.3228 -0.2458 -2.5023
38430SOL     OW32899  12.790  13.244   3.495  0.2878 -0.2844  0.0263
38430SOL    HW132900  12.758  13.312   3.435 -0.2285  1.4187  2.1197
38430SOL    HW232901  12.885  13.251   3.490  0.2485  0.0786 -0.3117
38431SOL     OW32902   5.758   1.784   8.881 -0.7943 -0.5546 -0.1830
38431SOL    HW132903   5.753   1.822   8.794 -0.2361 -0.6131 -0.2458
38431SOL    HW232904   5.712   1.700   8.874 -2.3981  0.2675  0.0632
38432SOL     OW32905   0.599   6.915  13.697  0.4549 -0.2824  0.4783
38432SOL    HW132906   0.566   6.835  13.656  0.7555 -0.7632  1.1544
38432SOL    HW232907   0.524   6.975  13.697  0.3029 -0.4610 -0.2815
38433SOL     OW32908   2.410   4.999   7.753 -0.1357  0.4160 -0.2403
38433SOL    HW132909   2.354   4.938   7.704 -2.5880  3.0726 -1.0581
38433SOL    HW232910   2.456   4.944   7.816 -2.8266 -2.1707 -0.3150
38434SOL     OW32911  11.850   0.673   3.400  0.3886  0.4974  0.2223
38434SOL    HW132912  11.757   0.655   3.385  0.7459 -0.8877 -0.5326
38434SOL    HW232913  11.861   0.667   3.495 -0.3633  1.1175  0.3579
38435SOL     OW32914   1.616   3.901   5.463 -0.6087  0.9584  0.3098
38435SOL    HW132915   1.541   3.844   5.479 -0.5341  1.1464  1.4235
38435SOL    HW232916   1.579   3.990   5.466 -0.7789  0.9925 -1.7092
38436SOL     OW32917   2.711   6.451   8.240 -0.0424  0.1146 -0.2129
38436SOL    HW132918   2.804   6.428   8.238  0.1467  0.7718  0.4429
38436SOL    HW232919   2.684   6.434   8.330  0.5373  3.8667  0.8697
38437SOL     OW32920   8.564   3.005   5.240  0.2611 -0.1224 -0.6179
38437SOL    HW132921   8.642   2.967   5.282 -0.4592 -0.8553  0.1026
38437SOL    HW232922   8.492   2.979   5.297 -0.3988  1.4768 -0.6691
38438SOL     OW32923  11.973  11.325   6.364  0.3328 -0.4180 -0.4854
38438SOL    HW132924  12.004  11.344   6.276  0.0949 -0.6647 -0.6227
38438SOL    HW232925  12.048  11.285   6.408  0.2727 -0.8392 -0.7601
38439SOL     OW32926   8.026   9.742   0.369 -0.2140  0.1259 -0.4834
38439SOL    HW132927   8.017   9.833   0.342  0.7862  0.2925 -0.2764
38439SOL    HW232928   8.020   9.745   0.464 -0.5068 -0.0675 -0.4945
38440SOL     OW32929  11.678   4.213  10.471 -0.1658 -0.0351  0.0610
38440SOL    HW132930  11.585   4.201  10.490 -0.1131  0.0772  0.4014
38440SOL    HW232931  11.690   4.308  10.468 -0.1203 -0.0507 -0.2817
38441SOL     OW32932   0.998   3.608   3.403  0.1133  1.0460  0.2283
38441SOL    HW132933   0.978   3.549   3.330 -1.1275  1.0751  0.5245
38441SOL    HW232934   0.984   3.696   3.368 -1.6609  1.0359  0.7798
38442SOL     OW32935  10.559   0.412   9.343  0.3467 -0.0529 -0.3979
38442SOL    HW132936  10.574   0.349   9.272  0.8807 -0.0349 -0.3087
38442SOL    HW232937  10.561   0.497   9.300  1.0608 -0.0191 -0.3101
38443SOL     OW32938  10.468   0.160   4.340  0.0913  0.2127 -0.8335
38443SOL    HW132939  10.546   0.216   4.338  0.0972  0.2787  0.3357
38443SOL    HW232940  10.413   0.200   4.408 -1.1314  0.3765 -1.8751
38444SOL     OW32941   1.720  11.080  13.975  0.1303 -0.5682  0.4981
38444SOL    HW132942   1.628  11.081  13.949  0.0537 -0.6719  0.7608
38444SOL    HW232943   1.736  10.990  14.003  0.3739 -0.6066  0.2371
38445SOL     OW32944  11.683  13.640   2.358  0.0989 -0.0996 -0.0673
38445SOL    HW132945  11.773  13.628   2.388  0.4522  1.2486 -0.5135
38445SOL    HW232946  11.684  13.724   2.312 -1.0271 -0.8362 -1.5195
38446SOL     OW32947   6.969   2.513  13.430  0.1759  0.1755  0.3242
38446SOL    HW132948   6.991   2.586  13.372 -0.5092 -0.1587 -0.3745
38446SOL    HW232949   6.874   2.512  13.433  0.1670 -0.7289  0.2611
38447SOL     OW32950   0.448   7.421   6.949  0.6477 -0.2007 -0.0932
38447SOL    HW132951   0.395   7.421   6.870  0.7419 -1.8298 -0.1844
38447SOL    HW232952   0.537   7.438   6.919  0.5540  0.0831 -0.2176
38448SOL     OW32953  13.933  10.117   5.717 -0.0184 -0.2234  0.1102
38448SOL    HW132954  13.940  10.208   5.688  0.2160  0.0171  0.9022
38448SOL    HW232955  13.992  10.068   5.659 -0.5169  0.0416 -0.6390
38449SOL     OW32956   9.250   1.202  13.558 -0.4250  0.4649 -0.7069
38449SOL    HW132957   9.248   1.217  13.463  0.5416 -2.3086 -1.2727
38449SOL    HW232958   9.158   1.193  13.582 -0.7042 -3.2328 -2.3749
38450SOL     OW32959   9.632  10.590   6.710 -0.3968  0.2395  0.0266
38450SOL    HW132960   9.633  10.583   6.806  0.1220  0.1211  0.0139
38450SOL    HW232961   9.618  10.501   6.680 -2.3337  0.5124  0.0133
38451SOL     OW32962   5.430  11.709   6.800 -0.4108 -0.4056 -0.0322
38451SOL    HW132963   5.445  11.626   6.755  1.3112 -0.1589  0.0343
38451SOL    HW232964   5.427  11.774   6.729  0.4867 -0.2499  0.0644
38452SOL     OW32965   6.678   9.119   2.673  0.1125 -0.2310  0.3140
38452SOL    HW132966   6.732   9.163   2.739  0.0067 -0.6915  0.7108
38452SOL    HW232967   6.740   9.063   2.626  0.4472  1.0662 -0.8603
38453SOL     OW32968   3.306   5.870   2.408  0.6398  0.2282  0.0006
38453SOL    HW132969   3.332   5.829   2.326 -0.9361 -0.5908 -0.1101
38453SOL    HW232970   3.388   5.907   2.442  1.4666 -0.0910 -1.5319
38454SOL     OW32971   5.989  10.656  12.164  0.1291  0.4199 -0.0987
38454SOL    HW132972   5.976  10.734  12.219  0.9061  0.7146 -0.3195
38454SOL    HW232973   6.057  10.682  12.102  0.1319 -0.3180 -0.4073
38455SOL     OW32974   7.685  10.257   4.625  0.6459 -0.2220 -0.2412
38455SOL    HW132975   7.704  10.337   4.575 -0.5681 -0.1266 -0.6082
38455SOL    HW232976   7.600  10.275   4.666  0.5667 -1.1610  0.0261
38456SOL     OW32977  12.960  13.036   2.562  0.1543  0.1561  0.5508
38456SOL    HW132978  12.934  12.955   2.607  1.0985 -1.0334 -0.9601
38456SOL    HW232979  13.014  13.082   2.627 -0.1837 -0.5389  1.3493
38457SOL     OW32980  10.676   1.588  12.597  0.7474 -0.1657  0.0143
38457SOL    HW132981  10.708   1.504  12.564 -0.4245 -0.3760 -0.6306
38457SOL    HW232982  10.594   1.603  12.550  0.6339  1.0514  0.5660
38458SOL     OW32983   6.484   5.521   5.201 -0.0892 -0.0525  0.0208
38458SOL    HW132984   6.398   5.479   5.195  0.0733 -0.6034  1.2723
38458SOL    HW232985   6.531   5.490   5.124 -0.3621 -1.3162  0.3311
38459SOL     OW32986   5.258   9.352   2.397  0.1913  0.1880  0.0097
38459SOL    HW132987   5.181   9.409   2.400  0.0566  0.1139 -1.5039
38459SOL    HW232988   5.223   9.263   2.396  0.2904  0.1538 -0.6872
38460SOL     OW32989   7.381   1.270  10.193 -0.1289 -0.4581 -1.0400
38460SOL    HW132990   7.469   1.302  10.172 -0.2824 -1.3635 -3.4029
38460SOL    HW232991   7.390   1.229  10.278  1.1262  1.6679 -0.0528
38461SOL     OW32992   0.386  13.959   7.331 -0.0194 -0.0727  0.6282
38461SOL    HW132993   0.450  13.925   7.269 -0.4440 -1.1519  0.7520
38461SOL    HW232994   0.396  13.904   7.409  0.1363  0.9177  1.3273
38462SOL     OW32995  10.983  10.407  11.902  0.3114 -0.2619  0.1438
38462SOL    HW132996  11.030  10.487  11.878 -0.0697 -0.2972 -0.7989
38462SOL    HW232997  10.917  10.398  11.833 -0.1958 -0.9313  0.7104
38463SOL     OW32998   9.494   1.599  14.051  0.0185  0.1100 -0.3381
38463SOL    HW132999   9.400   1.613  14.038 -0.2783 -0.9950  0.4273
38463SOL    HW233000   9.504   1.594  14.146  1.0610  1.4312 -0.3461
38464SOL     OW33001  10.742   7.641   1.876 -0.0592  0.0125 -0.5251
38464SOL    HW133002  10.742   7.587   1.797  1.0846  1.3773 -1.5162
38464SOL    HW233003  10.765   7.728   1.845 -1.6118  1.0493  1.0588
38465SOL     OW33004   3.929   0.873   1.624  0.0230 -0.4037  0.3303
38465SOL    HW133005   3.895   0.856   1.712  0.3055  0.2942  0.5789
38465SOL    HW233006   4.020   0.844   1.628 -0.1820 -1.1251  0.0214
38466SOL     OW33007  11.224  14.091  10.236 -0.2014 -0.4015  0.7072
38466SOL    HW133008  11.253  14.152  10.304  0.3330 -0.4929  0.5657
38466SOL    HW233009  11.193  14.014  10.284  3.7832 -2.1532  0.8838
38467SOL     OW33010  10.464   9.813   3.172  0.0949 -0.0571 -0.3886
38467SOL    HW133011  10.483   9.804   3.265  2.6415 -3.6203 -1.0344
38467SOL    HW233012  10.499   9.899   3.148  1.4584 -0.0176  1.5242
38468SOL     OW33013   1.927   3.716   5.580 -0.3059  0.4959 -0.0423
38468SOL    HW133014   1.871   3.729   5.657  1.7629 -1.1261  1.8329
38468SOL    HW233015   2.015   3.737   5.610  0.6499 -0.6832 -1.8379
38469SOL     OW33016   8.253   1.867  10.647  0.2614 -0.2179 -0.1482
38469SOL    HW133017   8.327   1.914  10.610  0.8860 -0.8938  0.2240
38469SOL    HW233018   8.202   1.935  10.692  1.2531  0.0731  0.5590
38470SOL     OW33019   2.531   4.660   0.086 -0.5798 -0.0985 -0.3456
38470SOL    HW133020   2.480   4.740   0.081  0.9170  0.8599 -0.7181
38470SOL    HW233021   2.521   4.619   0.001 -2.6374 -1.1713  0.3500
38471SOL     OW33022   4.661   2.303  11.237 -0.0857  0.6173 -0.0475
38471SOL    HW133023   4.595   2.272  11.174 -0.1537  0.1783  0.2362
38471SOL    HW233024   4.610   2.327  11.315  0.1779 -0.8279  0.6002
38472SOL     OW33025   2.942   1.644   5.326 -0.1346  0.0922 -0.2989
38472SOL    HW133026   2.849   1.660   5.342 -0.3454 -1.2279 -0.0565
38472SOL    HW233027   2.985   1.664   5.409 -0.0005  1.9396 -0.7700
38473SOL     OW33028   6.339   2.885   6.389  0.0229 -0.4833 -0.1927
38473SOL    HW133029   6.374   2.927   6.311  2.7790 -1.3665  0.4506
38473SOL    HW233030   6.298   2.957   6.438  1.2949  0.7609 -0.8694
38474SOL     OW33031   0.793   9.541   2.088 -0.0201  0.7088  0.2975
38474SOL    HW133032   0.758   9.626   2.061  1.6734  1.4662  0.3207
38474SOL    HW233033   0.880   9.562   2.122  0.6325 -1.1087 -0.1615
38475SOL     OW33034   2.581   1.166   8.203  0.1114  0.2879 -0.0232
38475SOL    HW133035   2.638   1.227   8.249 -2.2305  0.7198  2.6327
38475SOL    HW233036   2.588   1.084   8.253  1.8392 -1.1612 -2.4603
38476SOL     OW33037   7.862   2.627  13.170 -0.3765  0.1849 -0.6879
38476SOL    HW133038   7.930   2.652  13.234 -0.4991 -1.1765  0.0119
38476SOL    HW233039   7.829   2.710  13.137  0.9346  0.8926 -0.2869
38477SOL     OW33040   1.989   6.711   1.878  0.0441  0.3294  0.1934
38477SOL    HW133041   1.996   6.658   1.957  0.7829  0.8547  0.4876
38477SOL    HW233042   1.896   6.734   1.873  0.0603  0.6402  1.1332
38478SOL     OW33043   2.656   6.637  12.737  0.0631 -0.4221  0.0619
38478SOL    HW133044   2.703   6.578  12.796  2.3650  1.3739  0.1623
38478SOL    HW233045   2.617   6.580  12.671  1.3872 -2.1098  0.6827
38479SOL     OW33046  11.918  13.828   0.179  0.2854 -0.0507 -0.3154
38479SOL    HW133047  11.938  13.844   0.271 -0.0929  1.3979 -0.4596
38479SOL    HW233048  11.997  13.788   0.144  0.5081 -0.4264  0.5943
38480SOL     OW33049   6.194   0.192   8.326 -0.4498 -0.3894  0.0145
38480SOL    HW133050   6.266   0.204   8.264 -1.3668  1.1317 -0.8076
38480SOL    HW233051   6.234   0.146   8.400  0.9371 -1.1995 -1.1836
38481SOL     OW33052  13.389   8.994   5.048  0.5593 -0.3088 -0.2186
38481SOL    HW133053  13.307   8.947   5.064 -0.2846  0.6700 -1.4406
38481SOL    HW233054  13.363   9.070   4.997  2.0976  0.6701  0.3999
38482SOL     OW33055   3.292   5.221   0.720 -0.0530  0.0007  0.4657
38482SOL    HW133056   3.275   5.247   0.629  0.5307 -0.7997  0.1242
38482SOL    HW233057   3.380   5.184   0.719  0.1148  0.3379  1.4407
38483SOL     OW33058   5.490   2.768  13.221 -0.3550  0.1689  0.0730
38483SOL    HW133059   5.509   2.678  13.194 -0.7985 -0.7011  2.3976
38483SOL    HW233060   5.401   2.784  13.189 -1.6554 -1.5577  2.4238
38484SOL     OW33061   7.865  12.410  11.308 -0.0288  0.2578  0.3737
38484SOL    HW133062   7.960  12.414  11.320  0.0906 -1.1853  0.1384
38484SOL    HW233063   7.850  12.455  11.225  0.2380  1.9359  1.1988
38485SOL     OW33064   7.997   3.698  13.438  0.0449 -0.0460  0.2923
38485SOL    HW133065   7.971   3.654  13.519  0.4862 -1.9500 -0.5530
38485SOL    HW233066   8.084   3.733  13.457 -0.3049  0.4804  0.9745
38486SOL     OW33067  11.487   5.466  12.235 -0.1643 -0.0674 -0.1430
38486SOL    HW133068  11.529   5.489  12.317  0.4726  2.3327 -1.0717
38486SOL    HW233069  11.394   5.480  12.251 -0.1205 -0.3025  0.3437
38487SOL     OW33070   4.210   2.024   4.148  0.0531  0.1036 -0.0022
38487SOL    HW133071   4.119   1.994   4.142  0.7009 -2.6103  1.6642
38487SOL    HW233072   4.204   2.115   4.177 -2.1689 -0.4325  1.5096
38488SOL     OW33073  13.064  10.937   4.552  0.3725 -0.2948 -0.4546
38488SOL    HW133074  13.112  10.942   4.469  0.2926 -0.6748 -0.5256
38488SOL    HW233075  13.024  10.850   4.552  0.2300 -0.2334 -0.0947
38489SOL     OW33076   3.113   8.970  11.123 -0.5213  0.0504  0.2675
38489SOL    HW133077   3.139   9.036  11.187 -0.5142 -1.1614  1.5693
38489SOL    HW233078   3.018   8.978  11.117 -0.5707 -0.1050  0.7729
38490SOL     OW33079   8.181   7.157  11.809  0.0084 -0.3908 -0.1984
38490SOL    HW133080   8.254   7.207  11.844 -1.6913  2.6102 -0.6271
38490SOL    HW233081   8.192   7.160  11.714 -1.2933  1.2470 -0.3374
38491SOL     OW33082   6.257   5.433   1.860 -0.2453  0.3897  0.5365
38491SOL    HW133083   6.261   5.428   1.956  0.5924  1.6307  0.5918
38491SOL    HW233084   6.164   5.431   1.840 -0.6666  3.6663  1.6560
38492SOL     OW33085   3.943   5.435   3.549  0.2961 -0.0094  0.6153
38492SOL    HW133086   3.890   5.355   3.541  0.4818 -0.1718  0.9720
38492SOL    HW233087   3.879   5.504   3.567  0.0681  0.0358 -0.3096
38493SOL     OW33088   4.857   8.780   5.708 -0.1739 -0.7917  0.8913
38493SOL    HW133089   4.762   8.772   5.699  0.1023 -2.5307 -1.2914
38493SOL    HW233090   4.885   8.697   5.746  0.5915 -0.7860  0.3617
38494SOL     OW33091  10.010   4.274   1.336  0.3534  0.5138  0.8723
38494SOL    HW133092   9.991   4.331   1.411 -0.1744  1.1283  0.2928
38494SOL    HW233093  10.051   4.197   1.374 -0.0351  0.7521  1.8119
38495SOL     OW33094   0.534   5.283  13.791  0.2398 -0.4396 -0.6222
38495SOL    HW133095   0.590   5.354  13.760  0.7325  0.1498  1.4484
38495SOL    HW233096   0.584   5.244  13.863 -1.2157 -1.1140  0.0574
38496SOL     OW33097   2.409   3.577   4.682 -0.1364  0.4621  0.1634
38496SOL    HW133098   2.347   3.554   4.613  0.1741  0.1025 -0.0032
38496SOL    HW233099   2.360   3.634   4.741 -1.0931 -1.0555  0.8807
38497SOL     OW33100   9.346   1.199  10.013 -0.3650  0.2084 -0.0915
38497SOL    HW133101   9.277   1.234  10.070 -0.8931 -0.2865 -0.4275
38497SOL    HW233102   9.300   1.142   9.952  0.5060 -1.3649  0.6560
38498SOL     OW33103   9.601  10.365  11.811 -0.6619 -0.1562  0.3120
38498SOL    HW133104   9.567  10.401  11.730  0.2336  0.8417  0.3590
38498SOL    HW233105   9.633  10.441  11.860 -1.6223 -0.6706  1.8232
38499SOL     OW33106   1.726   5.072   9.124  0.1644 -0.2459  0.0275
38499SOL    HW133107   1.712   5.163   9.101  1.5212  0.1842  0.7455
38499SOL    HW233108   1.757   5.031   9.043  2.1149  0.5764  0.3042
38500SOL     OW33109  11.653   2.914   3.589 -0.1990  0.2052  0.5472
38500SOL    HW133110  11.640   2.956   3.504  0.9192 -0.5046 -0.0071
38500SOL    HW233111  11.587   2.953   3.645  0.5343  2.4565 -0.0140
38501SOL     OW33112   7.292   5.031   5.054  0.0528  0.2833 -0.1236
38501SOL    HW133113   7.359   4.991   5.109 -0.4586  0.9080  0.9726
38501SOL    HW233114   7.251   4.957   5.009  1.8006 -0.0788 -1.2430
38502SOL     OW33115  12.041   5.140   9.173 -0.0858  0.4359  0.1969
38502SOL    HW133116  12.042   5.144   9.269  1.5044 -0.7805  0.2747
38502SOL    HW233117  12.118   5.190   9.146  0.0216 -0.0184 -0.3749
38503SOL     OW33118   2.149   7.349  10.505  0.1140 -0.2010  0.1770
38503SOL    HW133119   2.069   7.401  10.504 -0.0158 -0.3374  1.6887
38503SOL    HW233120   2.120   7.260  10.528  0.4379 -0.7871 -1.5423
38504SOL     OW33121   8.674   3.390   4.534  0.1766 -0.1976 -0.1653
38504SOL    HW133122   8.677   3.478   4.571 -0.5644 -0.6257  0.9739
38504SOL    HW233123   8.581   3.375   4.516  0.3319 -0.6403 -0.6262
38505SOL     OW33124   7.470  11.514   8.289 -0.0015  0.0050  0.2381
38505SOL    HW133125   7.456  11.601   8.252 -0.7345  0.6238  1.8812
38505SOL    HW233126   7.400  11.504   8.354 -0.1054 -1.9308 -0.0993
38506SOL     OW33127   3.022   7.234   7.816 -0.2510 -0.5378  0.0697
38506SOL    HW133128   3.030   7.139   7.810 -0.6950 -0.8666  3.0626
38506SOL    HW233129   3.108   7.267   7.792 -0.0419 -1.6939 -0.8547
38507SOL     OW33130   1.808   0.975   0.892 -0.0736  0.0441 -0.0947
38507SOL    HW133131   1.720   0.982   0.856  0.1014 -0.0151 -0.5338
38507SOL    HW233132   1.835   1.065   0.908 -0.3416  0.0476  0.3556
38508SOL     OW33133  10.518   2.223   8.128 -0.1821  0.2670 -0.1251
38508SOL    HW133134  10.531   2.295   8.189  0.1124 -0.3432  0.5520
38508SOL    HW233135  10.595   2.167   8.141 -0.2811 -0.0378 -0.8222
38509SOL     OW33136  10.140   1.208   3.049 -0.0825  0.2045 -0.3494
38509SOL    HW133137  10.218   1.262   3.037  0.1422 -0.0080  0.1372
38509SOL    HW233138  10.174   1.121   3.072 -0.4203 -0.3366 -1.8007
38510SOL     OW33139   8.272  13.902   7.955  0.4398 -0.0514  0.5587
38510SOL    HW133140   8.289  13.809   7.968  1.2449  0.0184  0.0747
38510SOL    HW233141   8.320  13.925   7.876  0.3151  0.7948  0.7101
38511SOL     OW33142   3.227   8.498   1.271  0.0103  0.0707 -0.1993
38511SOL    HW133143   3.151   8.444   1.291  1.0063 -1.3905 -0.1954
38511SOL    HW233144   3.204   8.542   1.189 -0.2856 -1.5143 -1.0094
38512SOL     OW33145   0.804   2.653   4.497  0.2874  0.0225 -0.1402
38512SOL    HW133146   0.833   2.611   4.416 -0.5938  0.8110 -0.8874
38512SOL    HW233147   0.868   2.626   4.563  1.5941  0.1709 -1.3084
38513SOL     OW33148   0.379  12.058   3.454  0.0340 -0.5512 -0.3578
38513SOL    HW133149   0.370  12.010   3.536  1.8400 -0.5128 -0.0892
38513SOL    HW233150   0.402  12.147   3.480  1.2122 -0.6793 -0.8631
38514SOL     OW33151  13.393   6.567   5.065  0.5626 -1.1132 -0.2012
38514SOL    HW133152  13.302   6.547   5.043  0.2016 -0.4241  0.6392
38514SOL    HW233153  13.439   6.484   5.050  0.3232 -0.8149 -3.2258
38515SOL     OW33154   7.777  11.523  11.227  0.1002  0.1604  0.0558
38515SOL    HW133155   7.687  11.492  11.212  0.5130 -0.9047 -0.3220
38515SOL    HW233156   7.798  11.492  11.316  0.0465  0.5240  0.1939
38516SOL     OW33157   0.219   1.102   7.900  0.0659 -0.0256 -0.6197
38516SOL    HW133158   0.145   1.047   7.924  0.9548 -1.7420 -1.6240
38516SOL    HW233159   0.268   1.112   7.982 -0.2862 -0.4536 -0.3517
38517SOL     OW33160   1.135  12.486   3.903 -0.0877  0.1020  0.1034
38517SOL    HW133161   1.180  12.403   3.915 -0.6776 -0.3355 -0.6052
38517SOL    HW233162   1.072  12.490   3.974  0.8295  0.5661  0.9077
38518SOL     OW33163   4.135   7.700   0.878 -0.2577  0.3275  0.5112
38518SOL    HW133164   4.122   7.772   0.938 -1.3622  0.9265 -0.3937
38518SOL    HW233165   4.217   7.719   0.833 -1.4402  2.0822 -1.0643
38519SOL     OW33166   0.401   8.495   7.762  0.0208 -0.6808 -0.4269
38519SOL    HW133167   0.370   8.556   7.695 -0.8215  0.2233  0.7266
38519SOL    HW233168   0.351   8.415   7.746  1.6923 -1.4016 -2.4382
38520SOL     OW33169   9.822   2.880  12.387 -0.0788  0.0592  0.1905
38520SOL    HW133170   9.804   2.832  12.467  0.8516  0.9553  0.9613
38520SOL    HW233171   9.911   2.912  12.397  0.7348 -1.3134 -1.9888
38521SOL     OW33172   1.776  10.292   7.755 -0.2929  0.7390  0.2426
38521SOL    HW133173   1.801  10.249   7.674  0.4691  0.4794  0.6055
38521SOL    HW233174   1.741  10.222   7.810  0.0150  0.7542  0.4616
38522SOL     OW33175   6.895   4.368  11.559 -0.1068  0.1638  0.5732
38522SOL    HW133176   6.873   4.343  11.469  0.0898 -0.0497  0.5818
38522SOL    HW233177   6.818   4.344  11.610 -0.1661  0.1605  0.4823
38523SOL     OW33178   6.334   6.428   4.433 -0.1964  0.0527 -0.1275
38523SOL    HW133179   6.408   6.388   4.388  0.2722  1.1397 -0.3363
38523SOL    HW233180   6.373   6.486   4.498 -0.8124  1.8573 -1.3034
38524SOL     OW33181   0.304  10.428   0.620  0.1005 -1.0064  0.0996
38524SOL    HW133182   0.314  10.336   0.596 -0.6730 -0.4494 -2.6325
38524SOL    HW233183   0.229  10.459   0.569 -1.0948  0.6505  2.6067
38525SOL     OW33184  11.591  11.157  12.015 -0.1988 -0.1154 -0.1490
38525SOL    HW133185  11.526  11.109  11.963  0.4715  0.7842 -1.9085
38525SOL    HW233186  11.620  11.095  12.082 -1.3730 -1.1928 -0.6024
38526SOL     OW33187   8.379   6.549   2.785 -0.1297 -0.1351 -0.6695
38526SOL    HW133188   8.469   6.543   2.754 -0.3354  0.2264 -1.3708
38526SOL    HW233189   8.386   6.587   2.873  0.5081 -1.7757  0.0308
38527SOL     OW33190  12.274   0.431   2.553 -0.4250  0.5595  0.6054
38527SOL    HW133191  12.212   0.444   2.624 -0.1872  0.1303  0.8969
38527SOL    HW233192  12.296   0.519   2.523 -0.3929  0.7472  1.1776
38528SOL     OW33193   5.526   5.524   0.251  0.4325 -0.3486  0.4012
38528SOL    HW133194   5.514   5.429   0.248 -1.9167 -0.1076  0.2728
38528SOL    HW233195   5.437   5.560   0.254  1.2342  1.8859 -0.1142
38529SOL     OW33196  10.116   1.503   7.887  0.6036 -0.3334 -0.0574
38529SOL    HW133197  10.037   1.449   7.892  0.7719 -0.6012 -0.2878
38529SOL    HW233198  10.084   1.591   7.867  0.1111  0.1905  2.6647
38530SOL     OW33199   1.312   6.889   9.305  0.2726 -0.8193 -0.4345
38530SOL    HW133200   1.382   6.847   9.355 -1.5956 -1.4169  1.8648
38530SOL    HW233201   1.232   6.843   9.331 -1.3967  1.7228 -0.6376
38531SOL     OW33202   5.341   1.957   1.387  0.3620 -1.0835  0.5526
38531SOL    HW133203   5.396   1.879   1.397  0.0697 -1.5085 -0.9560
38531SOL    HW233204   5.256   1.923   1.356  0.6598 -0.0956 -1.5246
38532SOL     OW33205   3.570   0.963   3.736 -0.0176 -0.1569 -0.1393
38532SOL    HW133206   3.481   0.986   3.708 -1.2048 -1.2678  2.4588
38532SOL    HW233207   3.607   1.046   3.767 -1.2273 -0.1572  1.4139
38533SOL     OW33208  12.374   7.015  14.043  0.4979  0.8319  0.2949
38533SOL    HW133209  12.363   7.052  14.130  0.6379  1.3902  0.0799
38533SOL    HW233210  12.469   7.005  14.033  0.4655  0.4736  0.3242
38534SOL     OW33211  11.792  13.111  12.643 -0.2568  0.2087 -0.1956
38534SOL    HW133212  11.705  13.131  12.610 -0.7164  0.2836  1.0255
38534SOL    HW233213  11.845  13.186  12.615 -0.4086 -0.1367 -1.4963
38535SOL     OW33214  13.864   6.882   0.939  0.4904  0.1899 -0.0986
38535SOL    HW133215  13.892   6.826   1.012  0.9002  1.1676  0.5057
38535SOL    HW233216  13.812   6.823   0.883  0.9935 -0.8217  0.4608
38536SOL     OW33217  12.316   6.824   5.752 -0.4900  1.2775 -0.1173
38536SOL    HW133218  12.397   6.792   5.791 -0.3803  1.7888  0.0913
38536SOL    HW233219  12.281   6.750   5.703  0.1745  1.0937 -0.3194
38537SOL     OW33220  13.654   9.982   4.756  0.0899 -0.4607 -0.2372
38537SOL    HW133221  13.651   9.906   4.814 -0.1378  0.3076  0.8004
38537SOL    HW233222  13.654   9.945   4.668  1.4578 -1.7084  0.2285
38538SOL     OW33223   1.823   7.703  13.268  0.3458 -0.1516  0.3916
38538SOL    HW133224   1.824   7.646  13.346  0.2613 -0.1998  0.3568
38538SOL    HW233225   1.851   7.788  13.301 -1.4459  0.3011  0.8357
38539SOL     OW33226   1.197   0.541  13.691  0.0802  0.5157 -0.0526
38539SOL    HW133227   1.162   0.535  13.603 -0.2909  1.5492  0.0072
38539SOL    HW233228   1.129   0.503  13.747  0.4781 -0.4873 -0.2358
38540SOL     OW33229  10.299   1.484   8.998  0.1524 -0.0328  0.2294
38540SOL    HW133230  10.259   1.566   8.970  0.9988  0.5832  0.7870
38540SOL    HW233231  10.384   1.510   9.035  0.4491 -1.1601  0.3754
38541SOL     OW33232   6.187  10.035  10.516 -0.5814  0.6871  0.5278
38541SOL    HW133233   6.126  10.104  10.544 -2.2389 -1.1085  1.6635
38541SOL    HW233234   6.268  10.054  10.563 -1.0102  1.8246  0.8411
38542SOL     OW33235   6.918  11.057  10.669  0.5195 -0.1631  0.1362
38542SOL    HW133236   6.913  11.149  10.696  0.7971  0.0358 -0.4543
38542SOL    HW233237   6.926  11.062  10.573  0.3734 -0.8110  0.0900
38543SOL     OW33238   6.221  12.613   6.161  0.3523  0.3954 -0.0062
38543SOL    HW133239   6.210  12.532   6.213  0.4932 -0.2340 -0.9318
38543SOL    HW233240   6.258  12.583   6.078 -2.6777  0.9642 -1.7047
38544SOL     OW33241  12.087  11.589   3.619 -0.2291  0.2007 -0.0530
38544SOL    HW133242  12.161  11.650   3.629  0.2517 -0.5171  0.9321
38544SOL    HW233243  12.100  11.550   3.533  1.8995 -1.5919  0.9639
38545SOL     OW33244   6.006   7.325   4.092 -0.1461  0.3642 -0.1992
38545SOL    HW133245   5.954   7.283   4.161 -0.3177 -0.8449 -1.0425
38545SOL    HW233246   5.986   7.276   4.013  0.4091  1.4437 -1.0356
38546SOL     OW33247  13.443   2.759   0.181  0.2849 -0.6111  0.2796
38546SOL    HW133248  13.448   2.847   0.218  1.2232 -0.4423 -0.2212
38546SOL    HW233249  13.356   2.755   0.141  0.5792  0.4371 -0.5181
38547SOL     OW33250   8.831  11.166  12.631 -0.1422  0.1851 -0.7043
38547SOL    HW133251   8.847  11.075  12.609 -0.0379 -0.0225  0.2050
38547SOL    HW233252   8.870  11.216  12.559 -0.8685 -0.4989 -1.5965
38548SOL     OW33253  13.760  11.130   0.796 -0.2773 -0.0691  0.3254
38548SOL    HW133254  13.797  11.154   0.881 -0.3955 -0.1155  0.3911
38548SOL    HW233255  13.831  11.084   0.751 -0.5496 -1.0176  0.8328
38549SOL     OW33256   4.098  10.722   8.312 -0.1523  0.6730  0.4797
38549SOL    HW133257   4.181  10.709   8.358  0.2956 -1.4027 -0.7870
38549SOL    HW233258   4.040  10.655   8.347  0.1064 -0.7587 -1.6402
38550SOL     OW33259   7.068   0.642  12.377  0.4014  0.2145  0.0261
38550SOL    HW133260   7.139   0.604  12.324 -0.8613 -0.6178 -1.1399
38550SOL    HW233261   6.994   0.584  12.362 -0.7569  1.5026  0.6002
38551SOL     OW33262   3.147   5.922   1.373 -0.2731  0.1882 -0.4295
38551SOL    HW133263   3.202   5.898   1.298  0.0897  1.2639 -0.5247
38551SOL    HW233264   3.210   5.951   1.439 -0.4639 -2.1681  0.8907
38552SOL     OW33265   1.235   5.242   7.993  0.0260  0.2069 -0.3625
38552SOL    HW133266   1.237   5.254   7.898  2.5968 -0.1886 -0.4160
38552SOL    HW233267   1.312   5.188   8.012 -0.9821 -0.5730  1.8593
38553SOL     OW33268  12.681   6.513   1.585 -0.1171  0.1919 -0.1460
38553SOL    HW133269  12.615   6.580   1.603  0.2768  0.7081 -0.6032
38553SOL    HW233270  12.692   6.468   1.669 -0.8536  0.2652  0.0014
38554SOL     OW33271  12.287   2.108  13.268  0.2008 -0.2784 -0.2505
38554SOL    HW133272  12.255   2.196  13.252  0.7426  0.0041  0.1415
38554SOL    HW233273  12.289   2.066  13.182  2.4820  0.9826 -0.9110
38555SOL     OW33274   5.916   6.725   2.785  0.6345 -0.1525 -0.1122
38555SOL    HW133275   5.866   6.795   2.827 -1.2504 -0.9552 -0.8899
38555SOL    HW233276   5.877   6.644   2.819 -0.1326 -0.8149 -2.3873
38556SOL     OW33277  10.406   3.231   8.765 -0.2886 -0.3897  0.2867
38556SOL    HW133278  10.375   3.290   8.696  0.8987  1.9356  1.6373
38556SOL    HW233279  10.452   3.162   8.717 -1.3099  0.0007 -1.3492
38557SOL     OW33280   5.663   1.098  12.712  1.0884  0.2948 -0.6270
38557SOL    HW133281   5.657   1.185  12.751  0.7457 -0.5903  1.4269
38557SOL    HW233282   5.746   1.063  12.744  0.3653 -0.8106  0.0953
38558SOL     OW33283   1.545  11.437   9.323  0.0833  0.3381 -0.2526
38558SOL    HW133284   1.581  11.436   9.234 -0.9964  0.7515 -0.7115
38558SOL    HW233285   1.520  11.347   9.340  1.3337  0.0361  0.0906
38559SOL     OW33286   0.700   2.083   9.055 -0.3363 -0.1149  0.2404
38559SOL    HW133287   0.712   2.178   9.053 -2.2776  0.1696 -1.5340
38559SOL    HW233288   0.635   2.068   9.123 -0.0123 -0.1885  0.5367
38560SOL     OW33289   5.718  13.388  12.900  0.4022  0.7636  0.5398
38560SOL    HW133290   5.768  13.389  12.982 -0.0346  1.8613  0.8125
38560SOL    HW233291   5.689  13.297  12.891 -0.2500  0.7935  2.0451
38561SOL     OW33292  13.084   0.282  12.634  0.3412 -0.0017 -0.0704
38561SOL    HW133293  13.122   0.244  12.555 -2.0102 -0.8498 -0.8681
38561SOL    HW233294  13.152   0.270  12.701  2.0524 -0.0319 -1.7166
38562SOL     OW33295  10.512   4.102   0.060  0.0313  0.5575  0.1148
38562SOL    HW133296  10.566   4.058   0.126 -0.1603  0.5119  0.2427
38562SOL    HW233297  10.553   4.080  -0.023  0.7382  1.2476  0.2612
38563SOL     OW33298   2.211   0.615   8.386 -0.0777  0.2344 -0.3230
38563SOL    HW133299   2.270   0.553   8.343  0.7909 -0.0688  1.2463
38563SOL    HW233300   2.263   0.653   8.456 -1.1808  1.3875 -0.0853
38564SOL     OW33301   1.090   6.171   1.006 -0.1358  0.1829 -0.0895
38564SOL    HW133302   1.042   6.088   1.006  0.1880 -0.0063 -0.5183
38564SOL    HW233303   1.068   6.211   1.091 -2.8300  1.1343 -1.1111
38565SOL     OW33304   1.207  10.190   6.804 -0.0422  0.1907 -0.1445
38565SOL    HW133305   1.142  10.190   6.733  0.2182  0.9046 -0.3902
38565SOL    HW233306   1.198  10.277   6.844  0.3831  0.0894  0.1740
38566SOL     OW33307   5.764   0.984   1.921 -0.1854  0.4191 -0.1081
38566SOL    HW133308   5.741   0.999   1.829  0.3234 -2.2785 -0.7705
38566SOL    HW233309   5.712   0.907   1.946 -0.2233  1.0275  1.8577
38567SOL     OW33310   5.387   6.610  13.344  1.0075 -0.7624  0.5458
38567SOL    HW133311   5.479   6.631  13.360  0.6875 -0.1258  1.6796
38567SOL    HW233312   5.344   6.626  13.428 -0.4710  0.8300 -0.4503
38568SOL     OW33313  12.176  10.530  12.855  0.3050  0.5043  0.0044
38568SOL    HW133314  12.250  10.515  12.795 -0.7234 -1.1313 -0.9393
38568SOL    HW233315  12.216  10.562  12.935  2.1504 -1.1037 -0.2006
38569SOL     OW33316   0.955   0.655   3.261 -0.0651 -0.1862 -0.0664
38569SOL    HW133317   0.956   0.658   3.357 -2.3307  1.8577  0.0062
38569SOL    HW233318   1.005   0.731   3.234 -1.3424  0.5731 -0.3917
38570SOL     OW33319  10.087   9.026   0.892  0.0622 -0.0029  0.1144
38570SOL    HW133320  10.083   8.930   0.894 -0.2633  0.0207  1.2255
38570SOL    HW233321  10.033   9.051   0.818  0.8018 -0.7035 -0.6869
38571SOL     OW33322  11.927   3.102   3.470  0.3771  0.0609  0.2944
38571SOL    HW133323  11.884   3.139   3.393  0.5842 -0.3432 -0.0205
38571SOL    HW233324  11.894   3.154   3.543 -0.2503  0.0864 -0.0017
38572SOL     OW33325   3.515  13.686   8.704 -0.3594  0.1550 -0.3707
38572SOL    HW133326   3.465  13.762   8.675 -0.2404 -0.3551 -1.9795
38572SOL    HW233327   3.537  13.639   8.624  0.0533 -1.2858  0.5454
38573SOL     OW33328   6.022  13.882  13.806  0.5200 -0.1424 -0.5180
38573SOL    HW133329   6.005  13.917  13.719  1.2014  0.5594 -0.3746
38573SOL    HW233330   6.111  13.911  13.827  0.2446 -0.0282  0.5440
38574SOL     OW33331   8.894  11.909   8.691 -0.0084 -0.0661 -0.6795
38574SOL    HW133332   8.887  11.917   8.786 -1.2320 -0.6943 -0.7049
38574SOL    HW233333   8.819  11.958   8.657 -0.3714 -0.9985 -1.2597
38575SOL     OW33334   4.117   2.303  12.296  0.2006 -0.1153 -0.2046
38575SOL    HW133335   4.087   2.301  12.387  1.3338  0.7199  0.1990
38575SOL    HW233336   4.212   2.299  12.302  0.2562 -1.4745 -1.4295
38576SOL     OW33337  10.155   8.113   3.363  0.6148 -0.1516 -0.6082
38576SOL    HW133338  10.132   8.178   3.296  0.9280  1.6718  0.9800
38576SOL    HW233339  10.071   8.083   3.397  0.4614  1.0855  0.1543
38577SOL     OW33340   9.320   1.028   5.417  0.4461  0.0760 -0.1182
38577SOL    HW133341   9.298   0.935   5.411  0.9818 -0.2002  1.5892
38577SOL    HW233342   9.235   1.072   5.418 -0.0461 -0.7096  2.5862
38578SOL     OW33343   3.602   8.614   8.932  0.3788  1.0173  0.3014
38578SOL    HW133344   3.588   8.705   8.904  1.8464  1.8030  1.8625
38578SOL    HW233345   3.659   8.577   8.866 -0.4054  1.1475 -0.4647
38579SOL     OW33346   2.704   7.021   9.906 -0.2097 -0.2172 -0.3155
38579SOL    HW133347   2.670   7.059   9.987  1.1133 -0.8997  0.5921
38579SOL    HW233348   2.682   6.928   9.913  1.4504 -0.5977  0.1004
38580SOL     OW33349   7.345   7.611   0.926  0.1215 -0.5265 -0.3991
38580SOL    HW133350   7.275   7.547   0.912 -2.4594  1.7689  1.1010
38580SOL    HW233351   7.358   7.651   0.840 -1.0436 -0.3966 -0.5290
38581SOL     OW33352   3.120   9.630   8.804  0.2995  0.5005  0.8763
38581SOL    HW133353   3.184   9.638   8.874  0.5154  2.7018  0.4766
38581SOL    HW233354   3.067   9.709   8.810 -2.8027 -1.4044  1.5098
38582SOL     OW33355   7.859  12.070   0.165 -0.1950  0.0241 -0.4721
38582SOL    HW133356   7.815  12.083   0.081  0.5370 -0.4505 -0.9423
38582SOL    HW233357   7.875  12.158   0.198 -3.1131  0.2703  0.6211
38583SOL     OW33358  13.685   8.861   9.613  0.1992  0.7665 -0.6267
38583SOL    HW133359  13.626   8.886   9.684 -0.8075 -3.8911  0.5197
38583SOL    HW233360  13.627   8.853   9.537  0.4733  1.5417 -0.9297
38584SOL     OW33361  13.575  13.871  10.419 -0.2263  0.2773 -0.1329
38584SOL    HW133362  13.663  13.834  10.431  0.1408  1.3691  0.8147
38584SOL    HW233363  13.591  13.957  10.379 -0.8327  0.6250  0.3530
38585SOL     OW33364   1.229  11.442   7.190 -0.3704  0.0112  0.1667
38585SOL    HW133365   1.191  11.492   7.263 -0.9158 -0.4790  0.2223
38585SOL    HW233366   1.180  11.471   7.113 -1.3661 -1.1424  0.3431
38586SOL     OW33367   3.587   8.933  10.343  0.0550 -0.3367 -0.4758
38586SOL    HW133368   3.542   9.007  10.385 -0.8894 -0.7323 -0.7807
38586SOL    HW233369   3.535   8.913  10.265  1.9373  0.5733 -2.0629
38587SOL     OW33370   0.415  12.274   1.501 -0.4235  0.4812  0.1814
38587SOL    HW133371   0.455  12.230   1.576  0.6831  0.5922 -0.3273
38587SOL    HW233372   0.467  12.354   1.489 -1.2070  0.9637 -0.0979
38588SOL     OW33373  10.808   2.529   5.350 -0.0892 -0.2866  0.1112
38588SOL    HW133374  10.775   2.440   5.333  0.1365 -0.4810  0.7008
38588SOL    HW233375  10.745   2.567   5.412  0.8057 -0.6773  1.2853
38589SOL     OW33376   1.271  10.793   8.514 -0.7326  0.2693  0.1528
38589SOL    HW133377   1.192  10.814   8.564  0.1247  2.1476  0.7930
38589SOL    HW233378   1.321  10.736   8.573 -0.4845  1.1226  0.7858
38590SOL     OW33379   9.480   8.394   5.067 -0.1888 -0.2431 -0.2120
38590SOL    HW133380   9.451   8.471   5.018 -0.5083  0.2376  0.7073
38590SOL    HW233381   9.522   8.430   5.145  3.5916 -0.8586 -1.7512
38591SOL     OW33382  11.661  11.295   6.599  0.7036  0.1899 -0.1434
38591SOL    HW133383  11.667  11.206   6.565  2.9204  0.4000 -0.4140
38591SOL    HW233384  11.661  11.284   6.694 -1.6633 -0.1749 -0.1085
38592SOL     OW33385  14.059   9.727  11.197 -0.0777  0.0102  0.0151
38592SOL    HW133386  14.015   9.698  11.276 -0.0223 -0.4084 -0.1053
38592SOL    HW233387  14.130   9.664  11.184 -1.9635 -1.9029 -2.1125
38593SOL     OW33388   4.246   0.435   0.366 -0.8579 -0.0746  0.2435
38593SOL    HW133389   4.301   0.495   0.416 -1.6286  0.4940  0.4310
38593SOL    HW233390   4.193   0.492   0.310 -0.3466 -0.6759 -0.8780
38594SOL     OW33391  12.648  10.240   4.466  0.2764 -0.0170  0.5089
38594SOL    HW133392  12.728  10.224   4.515  0.6104  1.5982  0.5304
38594SOL    HW233393  12.666  10.206   4.378  1.6654  1.9027 -0.0045
38595SOL     OW33394   3.543   1.227  11.451 -0.1764 -0.0036  0.0770
38595SOL    HW133395   3.558   1.277  11.531 -1.2995  0.6696 -0.1150
38595SOL    HW233396   3.452   1.198  11.457  0.9330 -3.9894  1.2428
38596SOL     OW33397   7.285  14.002   4.388  0.4966 -0.2604 -0.8840
38596SOL    HW133398   7.261  13.910   4.374  2.0803 -0.7976 -0.3508
38596SOL    HW233399   7.216  14.037   4.443  0.8511 -1.7109  0.5687
38597SOL     OW33400   6.718  11.556   5.096  0.0345 -0.3116  0.0549
38597SOL    HW133401   6.767  11.498   5.037  0.3023 -0.6981  0.6387
38597SOL    HW233402   6.671  11.615   5.039  1.1905  0.0689 -0.5302
38598SOL     OW33403   8.985  12.900   0.647 -0.5467  0.4421 -0.0002
38598SOL    HW133404   9.076  12.891   0.675 -0.1434  1.2720 -0.9781
38598SOL    HW233405   8.943  12.949   0.718 -0.3087 -0.2166  0.5978
38599SOL     OW33406   7.614   7.864   4.170 -0.0870 -0.1095 -0.4419
38599SOL    HW133407   7.638   7.951   4.139  1.2675 -0.5772 -0.7862
38599SOL    HW233408   7.688   7.809   4.145 -0.6237 -1.2307  0.3649
38600SOL     OW33409   2.387   9.976  13.324  0.5442 -0.4422  0.7281
38600SOL    HW133410   2.303   9.987  13.279  1.1504  1.1676 -0.1094
38600SOL    HW233411   2.453   9.987  13.255  1.4717 -2.9358  1.1252
38601SOL     OW33412  11.592   1.367   5.064  0.6907  0.3820  0.4945
38601SOL    HW133413  11.641   1.387   5.144 -0.0073  1.8261  0.5952
38601SOL    HW233414  11.554   1.281   5.080  0.1713  0.8501  1.9209
38602SOL     OW33415   8.211   4.919  12.454  0.0616  0.1950  0.5163
38602SOL    HW133416   8.241   4.838  12.495  0.9978  1.0433  1.6063
38602SOL    HW233417   8.291   4.971  12.445 -0.5776  1.1304  0.1466
38603SOL     OW33418   8.968  12.204   2.679 -0.2410  0.3016  0.7601
38603SOL    HW133419   8.983  12.181   2.771 -1.2020  0.2764  0.9173
38603SOL    HW233420   9.051  12.186   2.636 -0.4084 -1.7468  1.2172
38604SOL     OW33421   9.219   4.241   3.056  0.8637 -0.4848 -0.3850
38604SOL    HW133422   9.198   4.162   3.007  0.0343  0.4554 -1.6195
38604SOL    HW233423   9.199   4.313   2.996 -1.2982  0.7858  1.6647
38605SOL     OW33424  12.634   7.322   0.733  0.2488  0.1439  0.1797
38605SOL    HW133425  12.609   7.342   0.643 -0.6642  1.9694  0.7827
38605SOL    HW233426  12.729   7.318   0.732  0.2721  0.7303 -0.7623
38606SOL     OW33427   0.032   5.039   2.400  0.7751 -0.2173 -0.1325
38606SOL    HW133428   0.021   5.107   2.333 -0.4394 -0.4789 -0.2253
38606SOL    HW233429   0.062   5.086   2.478  0.2700  0.3770 -0.2906
38607SOL     OW33430   3.913   8.296   4.148 -0.7962 -0.0877 -0.2818
38607SOL    HW133431   3.945   8.209   4.173  0.2213  0.2709 -0.2721
38607SOL    HW233432   3.993   8.345   4.127 -1.2532  1.1758  0.7840
38608SOL     OW33433   3.098  13.482   9.756 -0.1890  0.0454  0.2502
38608SOL    HW133434   3.034  13.449   9.693 -0.5327  1.1032  0.0262
38608SOL    HW233435   3.137  13.558   9.714 -0.9586  1.2261  1.5685
38609SOL     OW33436  11.953  11.079   7.918  0.2167  0.9496  0.3032
38609SOL    HW133437  11.957  11.173   7.898  1.3352  0.4202 -2.4951
38609SOL    HW233438  11.910  11.040   7.841  1.1127 -0.9571  0.7140
38610SOL     OW33439   9.630   1.889   1.142  0.3166  0.1001 -0.1266
38610SOL    HW133440   9.597   1.844   1.220  0.4747  2.9027  1.6936
38610SOL    HW233441   9.725   1.884   1.150  0.3761 -1.3158 -1.2769
38611SOL     OW33442   6.210  12.903   2.183  0.3275  0.1506 -0.1435
38611SOL    HW133443   6.260  12.827   2.214 -0.2534 -0.7723 -1.3877
38611SOL    HW233444   6.250  12.925   2.098  0.8291  1.5910  0.4254
38612SOL     OW33445   3.220   5.270   1.182 -0.2538  0.4325  0.0542
38612SOL    HW133446   3.287   5.268   1.250 -1.1876 -0.0303  0.9909
38612SOL    HW233447   3.242   5.347   1.129  0.0263  1.3288  1.4002
38613SOL     OW33448  10.918   0.972   1.731 -0.1729 -0.3341 -0.0024
38613SOL    HW133449  11.005   0.968   1.770 -0.4192  1.6317  0.8415
38613SOL    HW233450  10.860   0.994   1.804 -1.1400 -0.0181 -0.8467
38614SOL     OW33451   2.922   3.874   8.328 -0.0491  0.1132 -0.4475
38614SOL    HW133452   2.881   3.943   8.381 -0.9914 -0.3010 -0.6267
38614SOL    HW233453   2.995   3.843   8.382 -0.1420  0.6596  0.0004
38615SOL     OW33454   5.505   0.398   7.299 -0.0239  0.3149 -0.1048
38615SOL    HW133455   5.543   0.460   7.236 -0.4886  0.0512 -0.6573
38615SOL    HW233456   5.559   0.407   7.377 -0.0413  1.3629 -0.2010
38616SOL     OW33457   2.259   1.715  14.077 -0.0508 -0.2462 -0.0615
38616SOL    HW133458   2.247   1.725  13.983  2.7804 -0.3368 -0.5138
38616SOL    HW233459   2.210   1.635  14.099  1.0426 -1.5016 -1.9228
38617SOL     OW33460   4.957   7.512  13.882 -0.0691  0.2664  0.0536
38617SOL    HW133461   4.924   7.429  13.848  0.8869 -0.3163  0.5378
38617SOL    HW233462   5.052   7.504  13.879  0.0590  1.5965 -0.5128
38618SOL     OW33463   7.809   3.284  11.711  0.3284  0.5033  0.3206
38618SOL    HW133464   7.889   3.326  11.743  1.1385 -0.4494 -0.3918
38618SOL    HW233465   7.789   3.217  11.776  1.1975 -0.5144 -0.4277
38619SOL     OW33466  13.715   6.070   9.888  0.1212 -0.0135  0.4673
38619SOL    HW133467  13.729   6.010   9.961 -1.0898  1.1263  1.7145
38619SOL    HW233468  13.659   6.021   9.828  0.9119 -0.8760  0.4125
38620SOL     OW33469   9.642   8.530   3.891 -0.3048 -0.4448 -0.5812
38620SOL    HW133470   9.569   8.469   3.898 -1.2567  0.6906 -0.4241
38620SOL    HW233471   9.622   8.584   3.815 -0.5913  1.0867  0.5425
38621SOL     OW33472   3.767   7.563   9.663 -0.3709 -0.5492  0.3159
38621SOL    HW133473   3.695   7.522   9.710 -1.6661  1.4436  0.2049
38621SOL    HW233474   3.750   7.657   9.671  1.3571 -0.0588 -1.0860
38622SOL     OW33475   2.031   2.989   3.398 -0.3686 -0.0604 -0.8509
38622SOL    HW133476   1.983   2.943   3.468 -0.6165  1.5352  0.0633
38622SOL    HW233477   1.967   2.995   3.327 -1.5688  1.9397  0.3121
38623SOL     OW33478  12.536   4.165   9.047  0.5388  0.2146 -0.2927
38623SOL    HW133479  12.586   4.219   9.107  1.1187 -0.9094  0.2556
38623SOL    HW233480  12.540   4.077   9.083 -1.4174 -0.0180 -0.4993
38624SOL     OW33481   5.154  11.196   8.455 -0.3265 -0.1512  0.3487
38624SOL    HW133482   5.147  11.139   8.532 -1.8709  0.0830  0.4057
38624SOL    HW233483   5.080  11.170   8.400  0.7039 -0.2452 -1.0259
38625SOL     OW33484   4.435   4.239   1.444  0.3549 -0.6679 -0.3645
38625SOL    HW133485   4.514   4.235   1.498  0.1194  0.9790  0.1696
38625SOL    HW233486   4.390   4.157   1.462  1.5116 -1.2356  0.0196
38626SOL     OW33487  10.341   5.408   2.542  0.1069  0.5994  0.2612
38626SOL    HW133488  10.414   5.372   2.592 -0.7503 -0.2443  0.9355
38626SOL    HW233489  10.381   5.440   2.461  0.8023 -2.8640 -0.9151
38627SOL     OW33490   6.648   2.198   3.868  0.2960  0.3153  0.5107
38627SOL    HW133491   6.711   2.264   3.838 -0.0970  0.5883  0.2634
38627SOL    HW233492   6.589   2.186   3.793  0.6415 -0.6720  0.3892
38628SOL     OW33493  13.946   8.363   3.229 -0.1597  0.0071  0.6540
38628SOL    HW133494  14.021   8.355   3.288 -0.6729  1.5399  1.5704
38628SOL    HW233495  13.970   8.436   3.171 -0.5997 -0.0252  0.4283
38629SOL     OW33496   0.381  10.580  13.717  0.3890 -0.2428  0.2163
38629SOL    HW133497   0.313  10.612  13.776  1.8988  0.9136  1.4026
38629SOL    HW233498   0.431  10.517  13.769  0.3024 -1.0397 -0.6243
38630SOL     OW33499   6.193   6.180   6.585 -0.5625 -0.2520 -0.2976
38630SOL    HW133500   6.250   6.257   6.591  1.3331 -1.6278  0.4784
38630SOL    HW233501   6.234   6.125   6.518 -0.2317 -1.8020  1.0959
38631SOL     OW33502  12.897   7.076   6.524  0.2868 -0.4002 -0.0939
38631SOL    HW133503  12.951   6.998   6.511  0.8911 -0.0737  0.4209
38631SOL    HW233504  12.940   7.125   6.594 -1.8676 -1.1976  1.9399
38632SOL     OW33505  11.416  10.743   7.061 -0.0726 -0.6353  0.3433
38632SOL    HW133506  11.356  10.688   7.111  2.6340 -2.7851  1.4605
38632SOL    HW233507  11.447  10.688   6.989  0.9362  0.2180  0.0881
38633SOL     OW33508  13.730   3.866   7.152 -0.0249 -0.1593  0.3210
38633SOL    HW133509  13.736   3.947   7.101  2.2486 -0.0165  0.6995
38633SOL    HW233510  13.663   3.884   7.217 -0.6623  0.8377 -0.5696
38634SOL     OW33511   7.059   0.793   1.061  1.0616  0.2707  0.4934
38634SOL    HW133512   7.040   0.714   1.011  0.8939  0.8341 -0.3439
38634SOL    HW233513   7.154   0.798   1.063  1.1645  1.8659 -2.4615
38635SOL     OW33514   0.660   6.929  13.019 -0.1235  0.1438  0.0816
38635SOL    HW133515   0.755   6.925  13.011 -0.0865  0.2521  0.4664
38635SOL    HW233516   0.637   7.015  12.983  0.1291  0.9979  1.8658
38636SOL     OW33517  13.701  13.792  14.048 -0.2972  0.1999 -0.3236
38636SOL    HW133518  13.757  13.867  14.071  3.1905 -1.7624 -1.6150
38636SOL    HW233519  13.668  13.812  13.961  1.0676  0.0587 -0.8935
38637SOL     OW33520   5.438   0.506  10.338  0.0181  0.2531  0.1097
38637SOL    HW133521   5.518   0.537  10.382  0.3026  0.3932 -0.5041
38637SOL    HW233522   5.470   0.454  10.264 -0.4546  1.2120 -0.7864
38638SOL     OW33523   9.363   5.785   0.520 -0.2779 -0.0279 -0.1823
38638SOL    HW133524   9.284   5.766   0.572  0.4474 -0.8414  0.6497
38638SOL    HW233525   9.367   5.881   0.518 -0.0818  0.0313  1.6648
38639SOL     OW33526   0.841   9.932   2.052  0.3898  0.2810  0.1325
38639SOL    HW133527   0.879   9.908   2.137 -0.6435  2.0970  1.1489
38639SOL    HW233528   0.842  10.027   2.050  0.1935  0.2975 -1.8369
38640SOL     OW33529  13.954   3.594   2.681  0.1555 -0.0503 -0.2015
38640SOL    HW133530  13.962   3.514   2.733 -0.5126 -1.2185 -1.8083
38640SOL    HW233531  13.872   3.633   2.710  0.0225 -0.4330 -0.0543
38641SOL     OW33532   5.227  10.645  11.508  0.1476  0.1745 -0.1932
38641SOL    HW133533   5.310  10.655  11.462  1.7744 -0.9374  2.2598
38641SOL    HW233534   5.229  10.556  11.544 -1.3754  0.6638  1.2695
38642SOL     OW33535   0.432   9.311  10.077  0.2109  0.2660 -0.4114
38642SOL    HW133536   0.463   9.401  10.068  0.7982  0.1718  0.5815
38642SOL    HW233537   0.481   9.275  10.151 -1.5152 -0.2385  0.5382
38643SOL     OW33538  10.389   1.667  14.087 -0.3771 -0.0699  0.2700
38643SOL    HW133539  10.327   1.714  14.143  0.3634  1.4023 -0.0741
38643SOL    HW233540  10.401   1.725  14.011  1.1326 -0.4635  0.1688
38644SOL     OW33541  10.764  12.171   5.045  0.3972 -0.2799 -0.0948
38644SOL    HW133542  10.732  12.086   5.014 -0.0133 -0.1515 -0.0176
38644SOL    HW233543  10.743  12.232   4.974 -1.0035  0.1161  0.6273
38645SOL     OW33544   5.065  10.700   6.713  0.7282 -0.3871  0.3539
38645SOL    HW133545   5.080  10.790   6.742 -1.2289 -0.5225  2.0219
38645SOL    HW233546   5.135  10.683   6.649  1.3695  2.1640  0.2705
38646SOL     OW33547   6.089   7.805  13.395 -0.3996 -0.3431 -0.1448
38646SOL    HW133548   5.997   7.832  13.394 -0.9947 -2.2084  0.1150
38646SOL    HW233549   6.126   7.842  13.315 -0.4880  3.1118  1.2473
38647SOL     OW33550  13.614  10.252   5.893  0.3739 -0.5849 -0.4125
38647SOL    HW133551  13.572  10.201   5.823 -0.5655 -0.1013 -0.2176
38647SOL    HW233552  13.647  10.186   5.953  0.3730 -0.9924 -0.8494
38648SOL     OW33553   8.885   2.741   1.466  0.4384  0.6154  0.6906
38648SOL    HW133554   8.825   2.808   1.500  2.0740  1.5718  1.7978
38648SOL    HW233555   8.878   2.749   1.371 -0.5898  1.2494  0.8024
38649SOL     OW33556  11.550   5.616  10.351  0.3486  0.2705  0.1062
38649SOL    HW133557  11.645   5.628  10.342  0.3341  1.3493  1.1269
38649SOL    HW233558  11.517   5.704  10.372 -0.4163 -0.6538  3.2731
38650SOL     OW33559  12.838   1.898   9.275  0.1329  0.1139  0.3937
38650SOL    HW133560  12.878   1.813   9.256  0.8008  0.3762  0.5620
38650SOL    HW233561  12.776   1.880   9.346 -1.8923 -0.7452 -1.4888
38651SOL     OW33562   2.307   3.396   8.782 -0.2865  0.0975 -0.0813
38651SOL    HW133563   2.370   3.400   8.711  0.1733 -0.7553  0.2729
38651SOL    HW233564   2.248   3.470   8.765  0.5211  0.6306 -0.6713
38652SOL     OW33565   8.044   6.973  13.280  0.0252  0.1395  0.7839
38652SOL    HW133566   8.002   6.996  13.363 -0.4852 -1.2304  0.9216
38652SOL    HW233567   8.135   6.957  13.304  0.2143  1.1435  0.8164
38653SOL     OW33568   0.080   8.689   1.515  0.1602 -0.7594  0.0640
38653SOL    HW133569   0.164   8.650   1.488 -1.3151 -3.2928 -1.3088
38653SOL    HW233570   0.037   8.712   1.433 -0.2333  1.2436  0.7748
38654SOL     OW33571   7.929  13.444  11.851  0.1489 -0.1078  0.3480
38654SOL    HW133572   7.948  13.373  11.790  0.9998 -0.0070  0.4873
38654SOL    HW233573   7.981  13.424  11.929  0.4153  0.6695  0.3800
38655SOL     OW33574   7.628  11.570   9.100 -0.0360 -0.2620 -0.3488
38655SOL    HW133575   7.613  11.482   9.067  1.1031 -1.2484  1.5958
38655SOL    HW233576   7.717  11.568   9.136  0.2117  1.8374 -0.7014
38656SOL     OW33577   2.261  12.841   6.669  0.1073 -0.0802 -0.8822
38656SOL    HW133578   2.271  12.869   6.578  1.9571  1.6314 -0.2504
38656SOL    HW233579   2.167  12.839   6.684 -0.2028  1.3946 -2.3433
38657SOL     OW33580   9.275   3.733  11.473 -0.4091 -0.2160 -0.0361
38657SOL    HW133581   9.322   3.687  11.403  1.2438 -1.2744  1.6805
38657SOL    HW233582   9.261   3.821  11.438  0.6237 -0.6223 -1.5883
38658SOL     OW33583  11.442   2.629   9.679 -0.0435 -0.3981 -0.2849
38658SOL    HW133584  11.458   2.720   9.653 -0.2328 -0.0728  0.7031
38658SOL    HW233585  11.521   2.582   9.653  1.3720  0.6363  1.8839
38659SOL     OW33586   6.334  10.276   2.418 -0.1012  0.2039  0.4138
38659SOL    HW133587   6.248  10.249   2.452 -0.7037  1.1076 -0.3523
38659SOL    HW233588   6.327  10.371   2.407  1.0055  0.2878  0.3350
38660SOL     OW33589   4.936   5.286   5.692  0.1632 -0.4615 -0.2406
38660SOL    HW133590   4.937   5.191   5.700  1.4395 -0.6430 -1.9807
38660SOL    HW233591   5.025   5.309   5.665  0.0393  1.3056  0.7067
38661SOL     OW33592   8.587  13.174   3.065  0.3184 -0.5731 -0.4042
38661SOL    HW133593   8.570  13.081   3.082 -2.1728 -0.1991 -0.4909
38661SOL    HW233594   8.515  13.201   3.009  0.6845  1.5663  0.0823
38662SOL     OW33595   6.479   0.258   0.789 -0.3475 -0.8763 -0.0631
38662SOL    HW133596   6.558   0.313   0.795  2.3806 -4.4783  0.2657
38662SOL    HW233597   6.408   0.320   0.773  1.9208  3.0043  3.1565
38663SOL     OW33598  11.330   2.203   2.540  0.0728  0.0247 -0.0626
38663SOL    HW133599  11.286   2.264   2.599 -0.1481 -0.0418 -0.1584
38663SOL    HW233600  11.290   2.219   2.455 -2.0952 -2.2743  0.4238
38664SOL     OW33601  10.920   6.816   0.515 -0.1033  0.4580 -0.3825
38664SOL    HW133602  10.824   6.823   0.516 -0.1284  0.3877 -1.3331
38664SOL    HW233603  10.949   6.893   0.466  0.1915 -0.5240 -1.8403
38665SOL     OW33604   2.726   5.386   3.415 -0.2867 -0.0303 -0.1821
38665SOL    HW133605   2.631   5.386   3.427 -0.2734 -1.7273  0.2577
38665SOL    HW233606   2.749   5.293   3.413  1.6200  0.3090  1.9461
38666SOL     OW33607   3.227   9.104   2.235  0.0608 -0.0110 -0.2761
38666SOL    HW133608   3.137   9.072   2.235  0.0795 -0.0992  0.6858
38666SOL    HW233609   3.265   9.070   2.154 -0.4733 -0.8356 -0.1882
38667SOL     OW33610   7.641   3.873   3.809 -0.3618 -0.3793  0.1188
38667SOL    HW133611   7.656   3.781   3.789 -1.7293 -0.6209  0.0969
38667SOL    HW233612   7.644   3.877   3.904 -0.0001 -0.3848  0.1094
38668SOL     OW33613   6.245   5.513  12.199  0.1693 -0.2528 -0.2999
38668SOL    HW133614   6.188   5.576  12.243  0.5993 -1.1604  1.7038
38668SOL    HW233615   6.311   5.491  12.265  1.6437 -0.7492 -1.8741
38669SOL     OW33616   0.110   3.875   0.702 -0.3461 -0.1171 -0.2228
38669SOL    HW133617   0.038   3.816   0.676  1.5483 -2.3125 -0.8189
38669SOL    HW233618   0.117   3.865   0.797 -2.2437  1.9261  0.2201
38670SOL     OW33619   6.142   1.104   2.560 -0.6943 -0.1146  0.2095
38670SOL    HW133620   6.098   1.151   2.631 -1.0558  0.4056 -0.3473
38670SOL    HW233621   6.098   1.133   2.480 -0.4746 -0.8923 -0.2143
38671SOL     OW33622   1.441  10.528  13.562  0.5527  0.1968  0.2622
38671SOL    HW133623   1.500  10.579  13.508  0.4431  2.0643  1.8233
38671SOL    HW233624   1.498  10.477  13.620  0.6508 -0.0509 -0.0542
38672SOL     OW33625   4.706   3.741  10.110  0.2373 -0.6311 -0.4376
38672SOL    HW133626   4.613   3.743  10.134  0.3353  1.9761 -0.0343
38672SOL    HW233627   4.706   3.751  10.015  0.1087  0.1118 -0.3640
38673SOL     OW33628   6.063   9.291   1.684  0.2393  0.2210 -0.1526
38673SOL    HW133629   6.148   9.332   1.674  0.3961  0.1517  0.7676
38673SOL    HW233630   6.002   9.363   1.699  0.6447  0.1564  2.3238
38674SOL     OW33631  11.938   8.975   5.677 -0.3336 -0.0216 -0.3060
38674SOL    HW133632  11.877   8.917   5.722 -1.9734 -0.6129 -3.0464
38674SOL    HW233633  11.904   9.063   5.692  0.8296  0.1278  1.9059
38675SOL     OW33634   7.305   0.716  12.761  0.1732  0.1080 -0.0406
38675SOL    HW133635   7.264   0.749  12.840  0.1243 -1.0817  0.4502
38675SOL    HW233636   7.317   0.622  12.777 -1.6400 -0.5771 -2.1860
38676SOL     OW33637  11.928   0.051   4.953  0.2369  0.1874 -0.1883
38676SOL    HW133638  11.950   0.099   5.033  1.0261  2.4105 -1.6298
38676SOL    HW233639  12.011   0.046   4.905 -0.3393 -0.5106 -1.1440
38677SOL     OW33640  11.613  13.239   7.451 -0.4554 -0.6859 -0.3596
38677SOL    HW133641  11.631  13.148   7.429 -0.5935 -0.7405 -0.2524
38677SOL    HW233642  11.561  13.234   7.531 -0.8453 -0.5263 -0.6035
38678SOL     OW33643   5.211  11.129   5.096 -0.8096  0.2692 -0.3919
38678SOL    HW133644   5.142  11.148   5.159 -1.2610  0.7760 -1.0213
38678SOL    HW233645   5.230  11.036   5.108 -0.4450  0.4887  0.9146
38679SOL     OW33646   3.835  13.353   9.664 -0.2089 -0.2612  0.1953
38679SOL    HW133647   3.810  13.333   9.574  1.2698 -0.0718 -0.2846
38679SOL    HW233648   3.926  13.383   9.658  0.1013 -0.7648  1.8086
38680SOL     OW33649  12.591   9.883   5.490  0.2350  0.5992  0.5210
38680SOL    HW133650  12.579   9.893   5.396  0.7101  0.0810  0.3986
38680SOL    HW233651  12.508   9.911   5.529 -0.1221  0.3789 -0.0797
38681SOL     OW33652  12.160  11.879   7.327  0.0258  0.6420 -0.0208
38681SOL    HW133653  12.117  11.846   7.407 -0.6855 -0.9005 -0.9972
38681SOL    HW233654  12.140  11.814   7.260  0.3833  2.0377 -1.5500
38682SOL     OW33655   4.471   1.221  11.330 -0.8283 -0.1955 -0.2418
38682SOL    HW133656   4.527   1.169  11.272 -1.3086 -0.0956 -0.8052
38682SOL    HW233657   4.527   1.293  11.359  0.2073 -1.6442  1.4836
38683SOL     OW33658  10.804  12.341   4.122 -0.5381  0.2610 -0.4624
38683SOL    HW133659  10.869  12.367   4.057 -0.7581  0.4809 -0.5978
38683SOL    HW233660  10.855  12.304   4.194 -0.3374 -0.8089 -1.1310
38684SOL     OW33661   4.664   7.413   4.201 -0.0354 -0.2969  0.0221
38684SOL    HW133662   4.578   7.383   4.229  0.1163 -2.6458 -1.7077
38684SOL    HW233663   4.657   7.508   4.196 -2.9016 -0.4811 -1.1490
38685SOL     OW33664   3.615   7.110   0.067 -0.1065 -0.8377 -0.7856
38685SOL    HW133665   3.589   7.182   0.124  2.0223 -0.2265 -0.5270
38685SOL    HW233666   3.562   7.036   0.098 -0.9751  0.1383  0.1704
38686SOL     OW33667  11.181   2.055   1.444 -0.5756 -0.0919 -0.4668
38686SOL    HW133668  11.118   2.028   1.376  0.8292 -3.7882 -0.4967
38686SOL    HW233669  11.169   1.991   1.514  1.0605  0.9762  0.8437
38687SOL     OW33670   4.206   0.636   6.738 -0.3268 -0.2552 -0.2696
38687SOL    HW133671   4.261   0.663   6.665 -0.0476 -1.4542 -0.5264
38687SOL    HW233672   4.266   0.592   6.798 -0.2045  2.1785  1.5504
38688SOL     OW33673   1.674  13.017   8.253  0.0902 -0.0296 -0.6686
38688SOL    HW133674   1.622  13.095   8.272 -2.1944 -1.5669 -0.3134
38688SOL    HW233675   1.763  13.040   8.282 -0.0404  3.0635 -2.3305
38689SOL     OW33676  12.138   6.393  11.862 -0.0103 -0.2566 -0.8961
38689SOL    HW133677  12.180   6.354  11.939  1.0093 -0.0258 -1.3202
38689SOL    HW233678  12.046   6.366  11.868 -0.7320  2.2173  2.0625
38690SOL     OW33679  11.806   1.372   2.146 -0.2605  0.1668  0.3909
38690SOL    HW133680  11.711   1.362   2.142 -0.2432 -0.0650  0.4999
38690SOL    HW233681  11.821   1.433   2.218 -0.3277  0.2391  0.3439
38691SOL     OW33682   1.979   0.290   7.868  0.4184 -0.1539 -0.3673
38691SOL    HW133683   2.007   0.290   7.776  0.8454 -0.6835 -0.2370
38691SOL    HW233684   2.027   0.218   7.908 -0.0372 -0.1510  0.1934
38692SOL     OW33685   4.829  11.454   3.926 -0.2195  0.6775  0.1412
38692SOL    HW133686   4.737  11.440   3.904  0.1575 -0.6837 -0.6560
38692SOL    HW233687   4.867  11.495   3.849  0.1986 -0.3025 -0.1859
38693SOL     OW33688  12.171  10.197   5.324 -0.7351 -0.6469  0.3803
38693SOL    HW133689  12.088  10.185   5.369 -1.7423 -0.8091 -1.4022
38693SOL    HW233690  12.200  10.285   5.348 -3.0209  0.6714 -1.3030
38694SOL     OW33691   0.631  13.220   5.409  0.4631 -0.3754  0.9021
38694SOL    HW133692   0.693  13.226   5.482  0.9355 -1.1489  0.5900
38694SOL    HW233693   0.624  13.309   5.375  2.2786 -0.4365  0.2553
38695SOL     OW33694  12.407   3.582  13.100  0.5995  0.1595  0.0622
38695SOL    HW133695  12.407   3.662  13.047 -0.7208 -0.2096 -0.5386
38695SOL    HW233696  12.407   3.511  13.036  3.0706 -0.4142  0.5643
38696SOL     OW33697   0.245   6.700   1.379 -0.1163 -0.6049 -0.5637
38696SOL    HW133698   0.219   6.790   1.397  1.6712 -0.0525 -0.5497
38696SOL    HW233699   0.162   6.651   1.374 -1.0355  0.6494  1.3639
38697SOL     OW33700  11.146  13.409   6.482  0.1422 -0.0405 -0.1983
38697SOL    HW133701  11.104  13.383   6.564  0.5028 -1.3712 -0.4100
38697SOL    HW233702  11.086  13.473   6.444  0.7932  1.9354  1.9029
38698SOL     OW33703  13.581   4.007   7.326 -0.1832  0.3687  0.0321
38698SOL    HW133704  13.519   4.017   7.399  1.0119  2.8672  0.8409
38698SOL    HW233705  13.531   4.036   7.249 -0.9958 -0.8634  0.0624
38699SOL     OW33706   7.789   9.717   5.117  0.6089  0.7406  0.4214
38699SOL    HW133707   7.829   9.676   5.040  1.0767  2.4588 -0.3134
38699SOL    HW233708   7.737   9.648   5.157 -0.1416 -0.0775 -1.7829
38700SOL     OW33709   6.799   4.353  13.397  0.0894  0.0562  0.1422
38700SOL    HW133710   6.798   4.418  13.468 -2.4299  1.3468 -0.9439
38700SOL    HW233711   6.885   4.365  13.356  1.1050  0.1547  2.1476
38701SOL     OW33712  10.746  13.110  10.617  0.5221 -0.2303  0.3698
38701SOL    HW133713  10.794  13.166  10.557 -0.2691  0.4531  0.3578
38701SOL    HW233714  10.814  13.056  10.659  1.4795  1.6323  1.3391
38702SOL     OW33715  13.573   5.585   9.676  0.2273  0.4576 -0.2608
38702SOL    HW133716  13.568   5.490   9.687 -1.2979  0.3898 -1.3087
38702SOL    HW233717  13.504   5.620   9.732 -1.7913  0.6488 -2.6810
38703SOL     OW33718   5.522   2.645  13.493 -0.1098 -0.4389 -0.6769
38703SOL    HW133719   5.616   2.625  13.487 -0.0777 -0.1507 -1.2316
38703SOL    HW233720   5.498   2.674  13.405 -0.8512 -1.0420 -0.6869
38704SOL     OW33721   7.522   6.252  12.429  0.8342  0.1201 -0.3324
38704SOL    HW133722   7.573   6.214  12.357 -0.3877  0.8502 -1.6365
38704SOL    HW233723   7.432   6.252  12.396  0.0624 -0.5354  1.6551
38705SOL     OW33724   9.721   2.853   3.227  0.0432  0.5633 -0.1277
38705SOL    HW133725   9.728   2.945   3.201  0.8833  1.2861  2.3875
38705SOL    HW233726   9.807   2.816   3.204 -0.5332  0.1653 -1.7914
38706SOL     OW33727   4.392   0.697   2.931 -0.0251  0.4074 -0.2116
38706SOL    HW133728   4.313   0.747   2.907 -0.0838  0.9274  0.9981
38706SOL    HW233729   4.373   0.608   2.903  0.0202  0.9937 -2.3001
38707SOL     OW33730  11.382   9.327   4.930 -0.3069  0.0977  0.0987
38707SOL    HW133731  11.331   9.375   4.995  0.7517  0.8103  0.4220
38707SOL    HW233732  11.360   9.235   4.945 -0.2825  0.2760  1.2696
38708SOL     OW33733   3.295  12.629   4.513  0.3654  0.1950 -0.0506
38708SOL    HW133734   3.323  12.539   4.497 -0.9457 -0.4035  0.8225
38708SOL    HW233735   3.309  12.641   4.607  1.6917  1.3408 -0.3774
38709SOL     OW33736   0.329  11.153   5.414 -0.3042 -0.1201  0.7984
38709SOL    HW133737   0.255  11.120   5.465  0.3594 -0.2606  1.6891
38709SOL    HW233738   0.405  11.110   5.450  0.3122  0.5880  0.3888
38710SOL     OW33739   4.796   6.051  11.849 -0.2265  0.1570  0.0175
38710SOL    HW133740   4.891   6.054  11.847 -0.1221 -0.7122  1.6702
38710SOL    HW233741   4.775   5.998  11.926 -2.0355 -1.3084 -1.3894
38711SOL     OW33742  13.937  12.827  13.190 -0.0161  0.4107  0.2293
38711SOL    HW133743  13.960  12.891  13.123 -2.3977  0.6186 -0.4828
38711SOL    HW233744  13.847  12.801  13.169  0.3569 -2.1180  1.3383
38712SOL     OW33745  10.362   3.810   5.073  0.4186  0.2150 -0.0607
38712SOL    HW133746  10.324   3.723   5.058  3.5059 -0.9052 -2.2777
38712SOL    HW233747  10.300   3.870   5.031 -1.6265 -0.8377  1.2592
38713SOL     OW33748   6.991   0.729  13.085  0.2776  0.0454  0.3737
38713SOL    HW133749   6.943   0.811  13.080 -1.2912 -0.8934 -1.3245
38713SOL    HW233750   6.990   0.705  13.178 -0.6105  1.1444  0.6604
38714SOL     OW33751   2.328   1.743  10.411 -0.0355  0.1353 -0.5640
38714SOL    HW133752   2.317   1.838  10.418  0.8963  0.2209 -0.0945
38714SOL    HW233753   2.383   1.731  10.334  0.7348  0.0537 -0.0112
38715SOL     OW33754  12.972   8.794   2.004 -0.1996 -0.5001 -0.1609
38715SOL    HW133755  12.911   8.803   1.930  0.3555  2.2902 -0.3960
38715SOL    HW233756  13.053   8.763   1.965 -0.8437 -2.2833 -0.1548
38716SOL     OW33757   7.357  13.001   4.893 -0.0967 -0.0864  0.0345
38716SOL    HW133758   7.389  12.964   4.975 -0.7165  1.9978  1.2871
38716SOL    HW233759   7.431  13.049   4.858  0.1085 -0.8166 -0.5654
38717SOL     OW33760   9.064   0.483   7.808  0.1945  0.3398  0.1064
38717SOL    HW133761   9.044   0.573   7.830  0.8925  0.2042  1.3833
38717SOL    HW233762   8.995   0.431   7.849 -0.2283  0.2797 -0.6577
38718SOL     OW33763  12.682   7.378   8.852 -0.0550 -0.7856  0.3588
38718SOL    HW133764  12.761   7.347   8.807  0.4507  1.2417 -0.2594
38718SOL    HW233765  12.710   7.459   8.895 -1.5503 -0.6043  1.0416
38719SOL     OW33766   0.364   4.704   2.574  0.7572  0.1155 -0.0395
38719SOL    HW133767   0.384   4.671   2.486 -0.9859 -1.9238  0.2515
38719SOL    HW233768   0.272   4.731   2.569  0.5306 -0.3792  1.2406
38720SOL     OW33769  13.611   2.833  13.885  0.1029 -0.6919  0.2708
38720SOL    HW133770  13.541   2.895  13.861 -0.3210 -0.7028  1.4210
38720SOL    HW233771  13.692   2.879  13.863 -0.2457 -0.5618 -0.8132
38721SOL     OW33772   1.875   9.093   3.472 -0.1994 -0.0126  0.0774
38721SOL    HW133773   1.851   9.027   3.538  0.5458 -1.4053 -1.0158
38721SOL    HW233774   1.970   9.103   3.481 -0.0309 -0.5255 -1.0621
38722SOL     OW33775   0.198   1.110   8.502  0.2096  0.3375 -0.0317
38722SOL    HW133776   0.285   1.082   8.532 -0.5662 -1.3912  0.7693
38722SOL    HW233777   0.143   1.105   8.581 -0.7774  0.6282 -0.6793
38723SOL     OW33778   7.484   3.164  13.514 -0.6666  0.2020 -0.0062
38723SOL    HW133779   7.540   3.238  13.490 -1.0367  0.6321  0.4295
38723SOL    HW233780   7.402   3.204  13.543 -1.6046 -0.4352 -1.5899
38724SOL     OW33781  10.136   8.761  10.890 -0.4523  0.4576 -0.3049
38724SOL    HW133782  10.197   8.783  10.819  0.3323  2.1576  0.8319
38724SOL    HW233783  10.049   8.771  10.850 -0.0463  2.0824 -0.8733
38725SOL     OW33784  13.127   2.811  12.956  0.0064 -0.2529 -0.2719
38725SOL    HW133785  13.061   2.742  12.954 -0.2421 -0.2069  2.8049
38725SOL    HW233786  13.202   2.771  12.999  0.0784  1.1827  1.0183
38726SOL     OW33787   9.383  10.801  12.234  0.3027  0.1478 -0.1213
38726SOL    HW133788   9.290  10.788  12.253  0.2701 -1.8376 -1.3502
38726SOL    HW233789   9.383  10.856  12.155  0.1682 -0.0695 -0.2729
38727SOL     OW33790   4.446   1.355   4.127 -0.1262  0.1239 -0.3457
38727SOL    HW133791   4.464   1.317   4.212  0.6388  0.4869 -0.3354
38727SOL    HW233792   4.530   1.353   4.081 -0.6578 -0.6671 -1.3418
38728SOL     OW33793   2.767   6.480   2.405 -0.7189 -0.4252 -0.2629
38728SOL    HW133794   2.732   6.392   2.394 -4.4360  1.0048 -1.4004
38728SOL    HW233795   2.695   6.531   2.440  1.0903  2.3349 -0.1952
38729SOL     OW33796   5.997   3.818   1.857 -0.0278 -0.1150 -0.1918
38729SOL    HW133797   5.974   3.744   1.914 -0.1081 -1.5293 -1.9686
38729SOL    HW233798   5.944   3.891   1.891 -0.0594 -0.8827  1.5236
38730SOL     OW33799   3.283  10.362   1.726  0.3074 -0.2696  0.2543
38730SOL    HW133800   3.291  10.271   1.698  2.4213 -0.5899  1.6437
38730SOL    HW233801   3.255  10.409   1.647  0.8941 -1.8607 -0.9627
38731SOL     OW33802  13.072   1.114   5.935  0.3920  0.1666  0.2437
38731SOL    HW133803  13.094   1.075   6.019 -1.9937 -0.7686  0.5081
38731SOL    HW233804  13.057   1.206   5.954  1.1905  0.2311  0.5744
38732SOL     OW33805   5.695   1.411   0.629 -0.1176  0.7693 -0.1620
38732SOL    HW133806   5.616   1.415   0.683 -0.3431 -2.6331 -0.0516
38732SOL    HW233807   5.729   1.323   0.643  3.6227  2.0122 -0.3937
38733SOL     OW33808   0.996   7.525  13.685  0.1945  0.5675 -0.7229
38733SOL    HW133809   1.002   7.502  13.777 -0.1644  0.5897 -0.6953
38733SOL    HW233810   1.086   7.545  13.660  0.3141  0.4170 -0.4161
38734SOL     OW33811   6.083   6.104   2.520  0.2142 -0.3821  0.1089
38734SOL    HW133812   6.116   6.194   2.516  0.3977 -0.4851 -1.0418
38734SOL    HW233813   6.067   6.088   2.613  1.1575  0.4844  0.4339
38735SOL     OW33814  10.536  12.045   9.883  0.2792  0.6342  0.2174
38735SOL    HW133815  10.597  12.099   9.832 -0.5409 -0.4622 -2.0434
38735SOL    HW233816  10.592  11.988   9.935  1.1701  1.3025  0.0161
38736SOL     OW33817  11.635   8.961   9.591 -0.0772 -0.2599  0.0380
38736SOL    HW133818  11.579   8.886   9.608  0.4572 -1.0134 -1.3718
38736SOL    HW233819  11.721   8.923   9.572 -0.1529  0.5726 -2.2213
38737SOL     OW33820  12.314   2.375   5.016  0.3979  0.2531 -0.1799
38737SOL    HW133821  12.400   2.338   5.001 -0.4424 -2.0508  0.2921
38737SOL    HW233822  12.256   2.299   5.026 -1.4194  1.6954  1.0398
38738SOL     OW33823   7.481   9.392  11.777  0.0825 -0.0974  0.3024
38738SOL    HW133824   7.465   9.331  11.849  0.0482  0.2355  0.5810
38738SOL    HW233825   7.569   9.370  11.746  0.6380  0.6185  1.3112
38739SOL     OW33826  13.895   8.935   6.329  0.2340 -0.2819 -0.3423
38739SOL    HW133827  13.918   8.846   6.302  0.9371 -0.8126  1.7770
38739SOL    HW233828  13.958   8.956   6.398 -1.1782  1.0809  0.6002
38740SOL     OW33829   2.883   2.638   8.764  0.5497 -0.0717 -0.0372
38740SOL    HW133830   2.892   2.545   8.743 -0.6932  0.0767 -1.3998
38740SOL    HW233831   2.927   2.648   8.848  1.1713 -1.7834 -0.1206
38741SOL     OW33832   4.074   9.890   9.220  0.3596 -0.0236  0.3280
38741SOL    HW133833   4.076   9.838   9.140 -1.5737 -0.9716  0.8191
38741SOL    HW233834   4.102   9.977   9.194  0.5584 -0.5277 -1.2066
38742SOL     OW33835   6.202  13.405   9.280 -0.1951  0.2833 -0.2189
38742SOL    HW133836   6.230  13.496   9.293 -0.8792  0.3959  0.5177
38742SOL    HW233837   6.259  13.372   9.211  1.5063  0.6296  0.9474
38743SOL     OW33838   2.574  11.565   2.254  0.1419  0.9091  0.5026
38743SOL    HW133839   2.543  11.490   2.305  0.3907  0.1687 -0.4103
38743SOL    HW233840   2.572  11.639   2.315  0.3220  0.0664  1.5439
38744SOL     OW33841  10.794  12.126   2.175  0.3670  0.1165  0.3903
38744SOL    HW133842  10.719  12.130   2.234  0.5813  2.0441  0.5833
38744SOL    HW233843  10.773  12.190   2.106  2.3382  1.6085  1.0967
38745SOL     OW33844   0.686   8.050   5.990 -0.4492  0.5756  0.4816
38745SOL    HW133845   0.660   8.142   5.996  1.6533  1.3934 -1.2103
38745SOL    HW233846   0.614   8.007   5.945 -0.4730  1.9535 -0.8877
38746SOL     OW33847   5.052   6.093  12.008  0.2566  0.0631 -0.3598
38746SOL    HW133848   5.022   6.184  12.019 -0.8062 -0.0531 -1.9610
38746SOL    HW233849   5.121   6.099  11.941 -0.4169 -0.3811 -1.1174
38747SOL     OW33850   8.793   3.226   9.477 -0.0045 -0.3315  0.5002
38747SOL    HW133851   8.836   3.181   9.550 -2.3786 -1.1773  1.4666
38747SOL    HW233852   8.739   3.293   9.519 -3.2124 -2.2854 -0.1437
38748SOL     OW33853   3.053  11.512   5.904  0.5182  0.5927  0.1924
38748SOL    HW133854   3.095  11.518   5.819 -0.6899  0.3472 -0.4339
38748SOL    HW233855   3.070  11.423   5.933  1.4311  0.8509  0.4909
38749SOL     OW33856   9.554   2.998   7.734  0.1065 -0.6724  0.2623
38749SOL    HW133857   9.570   2.924   7.675 -0.5883  0.3810 -1.2979
38749SOL    HW233858   9.504   3.060   7.682 -1.3368 -0.0576  2.2434
38750SOL     OW33859  13.088   0.092   9.942 -0.4139 -0.0617  0.6743
38750SOL    HW133860  13.151   0.105  10.013 -0.7522 -0.2936  1.0251
38750SOL    HW233861  13.079  -0.003   9.935  1.1846 -0.1298 -1.1089
38751SOL     OW33862   7.742  11.580   8.440  0.1921  0.2381 -0.2558
38751SOL    HW133863   7.709  11.500   8.398 -0.5768  0.3965  0.0412
38751SOL    HW233864   7.752  11.556   8.533 -1.2313  0.8396  0.0727
38752SOL     OW33865   2.902   8.971  10.615 -0.6319 -0.0657 -0.2999
38752SOL    HW133866   2.958   8.953  10.690 -1.7409 -1.3384  0.2708
38752SOL    HW233867   2.868   9.059  10.630  0.8774  0.5598 -0.4569
38753SOL     OW33868   5.531   9.848   6.508 -0.0090 -0.0406  0.1619
38753SOL    HW133869   5.507   9.893   6.427 -2.5191 -1.7059 -0.1251
38753SOL    HW233870   5.600   9.786   6.482  0.1812  0.4031 -0.4018
38754SOL     OW33871  13.192   1.611  13.728 -0.4273  0.0228 -0.0704
38754SOL    HW133872  13.213   1.644  13.815 -0.4082 -1.0479  0.3458
38754SOL    HW233873  13.221   1.680  13.668 -1.1864  1.1304  0.8027
38755SOL     OW33874   3.179   7.457   6.710  0.5495  0.8380 -0.4348
38755SOL    HW133875   3.197   7.478   6.802 -0.6542  2.0109 -0.4233
38755SOL    HW233876   3.257   7.487   6.663  1.2423  0.0762  0.2143
38756SOL     OW33877   6.964   0.090  13.756 -0.0112 -0.1827  0.4439
38756SOL    HW133878   6.919   0.008  13.734  0.8073 -0.3212 -0.8575
38756SOL    HW233879   6.951   0.145  13.679  0.3574  0.5094  0.8715
38757SOL     OW33880  10.531   2.624  13.587 -0.1750 -0.6967  0.2956
38757SOL    HW133881  10.503   2.714  13.572 -0.3055 -0.3442  2.3655
38757SOL    HW233882  10.489   2.574  13.517 -0.4593  0.7664 -0.6254
38758SOL     OW33883   0.746   8.986  12.449 -0.2954  0.0412  0.4787
38758SOL    HW133884   0.834   9.000  12.416 -1.4198  2.8576 -1.7183
38758SOL    HW233885   0.745   9.031  12.534  0.5735 -0.8167  0.9683
38759SOL     OW33886  12.562   3.161  12.796  0.4538  0.3432 -0.0707
38759SOL    HW133887  12.576   3.250  12.765 -0.1809  0.4741  0.0161
38759SOL    HW233888  12.475   3.137  12.763  1.6662 -1.2235 -2.4486
38760SOL     OW33889  10.786   0.168   6.744  0.6784 -0.0396 -0.3713
38760SOL    HW133890  10.782   0.211   6.830 -1.1277 -2.5068  0.9095
38760SOL    HW233891  10.696   0.172   6.712  1.2262  0.3533 -1.9287
38761SOL     OW33892  10.975   8.366  13.187 -0.2232 -0.1965  0.2816
38761SOL    HW133893  11.053   8.418  13.208 -0.6657  0.6544 -0.1412
38761SOL    HW233894  10.902   8.425  13.202 -0.8892 -1.3021  1.6837
38762SOL     OW33895   2.868   4.945   7.755 -0.0737 -0.1461  1.0385
38762SOL    HW133896   2.920   4.895   7.692 -0.3762 -1.2248  1.6204
38762SOL    HW233897   2.932   4.995   7.805  0.2872 -0.4065  0.8409
38763SOL     OW33898   8.185   1.927   9.377 -0.3825 -0.5769  0.3397
38763SOL    HW133899   8.262   1.872   9.389 -0.6380 -1.2298 -0.8358
38763SOL    HW233900   8.126   1.875   9.322 -0.7660  0.7345 -0.5416
38764SOL     OW33901   0.493   3.779  12.452  0.1792  0.4995  0.3014
38764SOL    HW133902   0.580   3.743  12.463 -0.1051 -0.5820 -0.8730
38764SOL    HW233903   0.491   3.812  12.362 -1.5417 -2.2109 -0.7591
38765SOL     OW33904   0.306   4.532  14.012  0.0665  0.0341 -0.2133
38765SOL    HW133905   0.389   4.578  14.021  0.5043 -0.7654 -0.0049
38765SOL    HW233906   0.279   4.515  14.103 -0.0981 -0.0903 -0.2855
38766SOL     OW33907   7.461  12.404  13.721  0.2737 -0.4720  0.1671
38766SOL    HW133908   7.395  12.382  13.786  0.0406  0.4372  0.2569
38766SOL    HW233909   7.429  12.364  13.640  0.1008 -0.8379  0.4132
38767SOL     OW33910   0.749   0.501  13.518 -0.0147 -0.0393  0.7672
38767SOL    HW133911   0.748   0.456  13.603  1.9338  0.5582  1.1512
38767SOL    HW233912   0.816   0.455  13.467  0.1177  0.7520  0.2081
38768SOL     OW33913  11.662   9.824   7.639 -0.6736 -0.1159 -0.2092
38768SOL    HW133914  11.703   9.770   7.571 -0.8339 -0.2349 -0.2103
38768SOL    HW233915  11.574   9.841   7.606 -1.3948 -1.6704  0.7739
38769SOL     OW33916   7.160  13.251   1.790 -0.8841 -0.1972 -0.2358
38769SOL    HW133917   7.186  13.201   1.867 -0.0002 -0.3349 -0.6160
38769SOL    HW233918   7.156  13.187   1.719  0.1563  0.2457 -0.7021
38770SOL     OW33919  10.412  11.264   6.594 -0.1579  0.5403  0.2155
38770SOL    HW133920  10.462  11.298   6.668 -1.8317  2.0195  0.7474
38770SOL    HW233921  10.321  11.288   6.614 -0.6926  0.8199 -2.2151
38771SOL     OW33922  13.184   8.505   4.532  0.2437 -0.1918  0.1803
38771SOL    HW133923  13.249   8.556   4.484  0.1965  0.4948  0.8390
38771SOL    HW233924  13.148   8.565   4.596  1.5698 -1.5540  2.3091
38772SOL     OW33925  10.937  10.683   2.336 -0.2287 -0.7238  1.1123
38772SOL    HW133926  11.013  10.742   2.340  0.3066 -1.2231 -0.6912
38772SOL    HW233927  10.975  10.595   2.334 -0.7877 -0.9598 -0.4739
38773SOL     OW33928   0.445   2.581   3.581  0.3271  0.0968  0.5118
38773SOL    HW133929   0.428   2.522   3.507  1.8526  0.9722 -0.6065
38773SOL    HW233930   0.440   2.524   3.658 -1.1291 -0.8800 -0.2624
38774SOL     OW33931   1.963   5.358  12.145 -0.4437 -0.5543 -0.0397
38774SOL    HW133932   1.877   5.330  12.115 -0.6492 -0.5290  0.5125
38774SOL    HW233933   1.945   5.415  12.220  0.0778 -1.0739  0.4863
38775SOL     OW33934   0.218  12.446   9.507 -0.5071  0.6795 -0.6218
38775SOL    HW133935   0.225  12.355   9.478 -0.3881 -0.0606  1.5673
38775SOL    HW233936   0.253  12.497   9.433  1.9933 -1.2163 -0.8854
38776SOL     OW33937   3.758  10.369   7.713  0.3087 -0.1763  0.5931
38776SOL    HW133938   3.779  10.275   7.706  1.6415  0.1962 -1.0338
38776SOL    HW233939   3.762  10.388   7.806  0.9873 -1.5358  0.8642
38777SOL     OW33940   7.729  10.954   2.010  0.1995  0.4682 -0.4322
38777SOL    HW133941   7.710  10.897   2.084 -1.3413  0.8463 -0.5089
38777SOL    HW233942   7.750  10.893   1.938 -2.3612 -0.1363 -0.7833
38778SOL     OW33943  14.041  10.029  12.544 -0.4207  0.3685 -0.0256
38778SOL    HW133944  13.950   9.999  12.541 -0.6684  0.7813  1.8257
38778SOL    HW233945  14.078  10.004  12.460 -2.4157  0.7356 -1.0702
38779SOL     OW33946  11.261   4.003   6.477  0.1921  0.1568  0.3730
38779SOL    HW133947  11.222   3.928   6.433  0.2838  0.5394 -0.3828
38779SOL    HW233948  11.342   4.019   6.429  1.0029 -0.2577  1.5432
38780SOL     OW33949   6.935  12.220   6.708  0.5540 -0.3002  0.0391
38780SOL    HW133950   6.883  12.281   6.655  1.0757  0.1215  0.0089
38780SOL    HW233951   6.956  12.270   6.787 -1.8703 -1.5269  1.5853
38781SOL     OW33952   8.726  11.234   6.389  0.7199 -0.2566  0.4054
38781SOL    HW133953   8.709  11.141   6.403  3.4443 -0.6248  1.9652
38781SOL    HW233954   8.746  11.269   6.476  1.6981  1.3331 -0.3971
38782SOL     OW33955   1.458   5.140   2.931  0.0338  0.0626 -0.0140
38782SOL    HW133956   1.393   5.074   2.954 -0.1049 -0.6370 -2.1473
38782SOL    HW233957   1.446   5.152   2.836  3.4726 -0.6514 -0.6480
38783SOL     OW33958  13.531   2.430   9.509  0.0056 -0.0114 -0.0197
38783SOL    HW133959  13.492   2.378   9.439  0.1759  0.4468 -0.4660
38783SOL    HW233960  13.622   2.400   9.514 -0.1694 -0.4706  0.4244
38784SOL     OW33961   5.453  12.798   1.054  0.1138 -0.1883  0.2922
38784SOL    HW133962   5.410  12.866   1.106  0.2231  0.3802 -0.3606
38784SOL    HW233963   5.495  12.742   1.119  1.3519  1.2587  0.7699
38785SOL     OW33964   5.857  10.918   7.511  0.5940 -0.6379  0.0588
38785SOL    HW133965   5.785  10.857   7.527 -1.8798  2.1059  0.0874
38785SOL    HW233966   5.881  10.951   7.597  0.6973 -0.2399 -0.1209
38786SOL     OW33967   9.580  10.157  11.078  0.0290  0.0420  0.3222
38786SOL    HW133968   9.499  10.157  11.130 -0.8159  1.2628 -0.9005
38786SOL    HW233969   9.642  10.207  11.131  0.3367 -1.7015  1.7078
38787SOL     OW33970   0.100   7.175   7.767  0.1584  0.3667 -0.0647
38787SOL    HW133971   0.158   7.144   7.697  0.8624  1.2051  0.1242
38787SOL    HW233972   0.105   7.108   7.835  0.8294  0.3839 -0.0954
38788SOL     OW33973   8.249   8.418   2.323 -0.0253 -0.4498  0.3846
38788SOL    HW133974   8.221   8.367   2.247  2.8806  0.3867 -1.4010
38788SOL    HW233975   8.314   8.363   2.366  0.6060  0.3235  0.4417
38789SOL     OW33976  13.338  11.345   6.630  0.3100 -0.5238 -0.0098
38789SOL    HW133977  13.425  11.336   6.591  0.2176 -1.7580  0.0273
38789SOL    HW233978  13.344  11.300   6.714 -0.4870 -1.0403 -0.2117
38790SOL     OW33979   3.689   2.492   0.585 -0.0533 -0.1143 -0.3367
38790SOL    HW133980   3.643   2.445   0.515 -0.2802  0.8264 -0.8254
38790SOL    HW233981   3.751   2.548   0.539 -0.4926  0.8230  0.1905
38791SOL     OW33982  12.076  10.099  11.458 -0.0925  0.1500  0.2913
38791SOL    HW133983  12.016  10.159  11.415 -1.6695  0.0238  2.1632
38791SOL    HW233984  12.056  10.013  11.422  1.6902  0.5585 -1.8826
38792SOL     OW33985  11.715   3.788  10.245 -0.4128  0.0824 -0.8324
38792SOL    HW133986  11.802   3.763  10.212 -0.6936 -0.1342 -1.4269
38792SOL    HW233987  11.670   3.705  10.258 -0.6377  0.2041 -0.8300
38793SOL     OW33988   3.961   2.735  12.849  0.0379 -0.1544  0.4582
38793SOL    HW133989   3.873   2.697  12.847 -0.4843  0.9027  1.6958
38793SOL    HW233990   3.993   2.717  12.937  0.9110 -0.1874  0.1458
38794SOL     OW33991   9.062  12.501  11.693 -0.0531  0.1706 -0.0724
38794SOL    HW133992   9.010  12.515  11.614 -0.8605  1.4256  0.6628
38794SOL    HW233993   9.040  12.412  11.720 -2.4260  0.9020  0.6220
38795SOL     OW33994   6.138   8.608   5.865 -0.4366  0.0997 -0.0864
38795SOL    HW133995   6.191   8.685   5.841  0.9699 -0.8801 -0.2820
38795SOL    HW233996   6.049   8.631   5.839  0.2902  0.8321 -2.1425
38796SOL     OW33997   9.254   3.086   0.707  0.1253  0.1212 -0.0885
38796SOL    HW133998   9.185   3.129   0.657  0.2858  3.6966  2.4394
38796SOL    HW233999   9.207   3.022   0.760 -1.0491  1.3067  0.3623
38797SOL     OW34000  13.047  13.541   1.123  0.2037  0.5608  0.6118
38797SOL    HW134001  13.036  13.518   1.215  1.4337 -0.9785  0.4260
38797SOL    HW234002  12.978  13.492   1.077  0.4784  0.1805  0.5943
38798SOL     OW34003   3.350   0.174  14.089  0.2851 -0.8877  1.0265
38798SOL    HW134004   3.390   0.258  14.066  0.0098 -0.2699  2.6651
38798SOL    HW234005   3.345   0.127  14.006 -1.5317  1.5298 -0.3939
38799SOL     OW34006   6.460   4.050   4.861 -0.1823  0.2131  0.5727
38799SOL    HW134007   6.391   4.010   4.913  0.5882 -0.5769  1.0255
38799SOL    HW234008   6.480   3.985   4.794  0.5912  0.1237  0.8759
38800SOL     OW34009   8.331   5.804   3.289 -0.5323  0.3542 -0.6449
38800SOL    HW134010   8.356   5.888   3.252 -1.8140  0.3757 -1.5158
38800SOL    HW234011   8.409   5.775   3.337  0.4740  1.2939 -1.6397
38801SOL     OW34012   0.228   5.714   6.027  0.3956 -0.0465  0.1692
38801SOL    HW134013   0.135   5.731   6.015  0.4068  0.0023  0.1496
38801SOL    HW234014   0.237   5.696   6.121  0.7238  2.3547  0.6822
38802SOL     OW34015   0.947   8.692   7.686 -0.7564 -0.1951  0.0824
38802SOL    HW134016   1.014   8.757   7.705 -0.9097 -0.1500  0.4655
38802SOL    HW234017   0.990   8.631   7.626 -0.1422 -0.5823  0.9110
38803SOL     OW34018   1.651   8.564   1.061  0.6295 -0.1318  0.2564
38803SOL    HW134019   1.603   8.488   1.028  1.6909 -0.6110 -0.2332
38803SOL    HW234020   1.735   8.528   1.092  1.5213  0.9401 -0.8337
38804SOL     OW34021   7.548  12.905   2.358 -0.1779 -0.1371  0.0810
38804SOL    HW134022   7.460  12.884   2.328  0.3562 -2.2224 -0.1784
38804SOL    HW234023   7.603  12.836   2.321  1.1294 -0.5331  2.5089
38805SOL     OW34024   5.873   3.102  11.631 -0.1275 -0.1217  0.0960
38805SOL    HW134025   5.918   3.187  11.638 -1.8329  0.8366 -0.0366
38805SOL    HW234026   5.891   3.073  11.541 -1.5697  1.3531 -0.7252
38806SOL     OW34027   1.008   6.716  13.566  0.2002 -1.1756 -0.2448
38806SOL    HW134028   1.030   6.677  13.482  1.1126 -1.0664 -0.0656
38806SOL    HW234029   1.022   6.646  13.630  0.8560 -0.8671 -0.0385
38807SOL     OW34030   5.303   8.255   5.157  0.6058  0.0290  0.2551
38807SOL    HW134031   5.237   8.322   5.178  1.0381  0.8683 -0.9453
38807SOL    HW234032   5.257   8.193   5.101  0.6043  0.1241  0.1525
38808SOL     OW34033  10.959   4.619   3.581 -0.8349  0.0586  0.0101
38808SOL    HW134034  10.863   4.626   3.579 -0.7415  1.5006 -1.3761
38808SOL    HW234035  10.990   4.695   3.531  0.9643 -1.9010 -2.0514
38809SOL     OW34036   3.417  10.378   5.444 -0.7175 -0.0447  0.4444
38809SOL    HW134037   3.508  10.356   5.462 -0.7697  0.4491  1.3448
38809SOL    HW234038   3.410  10.472   5.465 -1.1323  0.2264 -0.8035
38810SOL     OW34039   6.095  10.330  13.763 -0.1123 -0.0503  0.5223
38810SOL    HW134040   6.139  10.269  13.821 -1.4971 -0.6480  0.9748
38810SOL    HW234041   6.022  10.364  13.814 -0.1604  0.9676 -0.1844
38811SOL     OW34042  13.622   6.147  13.005 -0.8793 -0.0145  0.2476
38811SOL    HW134043  13.709   6.138  13.044 -0.5136  0.7813 -0.3488
38811SOL    HW234044  13.621   6.083  12.933 -0.4274  0.6266 -0.3415
38812SOL     OW34045   8.324  12.079  13.771 -0.3793  0.3630 -0.1058
38812SOL    HW134046   8.334  12.009  13.707  1.2748 -0.0568  0.5379
38812SOL    HW234047   8.349  12.039  13.854  1.3139  1.8312  0.1748
38813SOL     OW34048   3.679   6.526  10.308 -0.1111 -0.0650  0.0582
38813SOL    HW134049   3.641   6.536  10.220  0.6701  1.7078 -0.1284
38813SOL    HW234050   3.701   6.434  10.314  0.8014 -0.0454 -2.0610
38814SOL     OW34051   2.979   2.857   6.626 -0.3917  0.1154  0.3880
38814SOL    HW134052   3.019   2.931   6.671 -0.1713 -0.0786  0.5172
38814SOL    HW234053   2.885   2.876   6.628 -0.3565  0.2782  0.6263
38815SOL     OW34054   6.084  11.835   6.296  0.3671  0.2751  0.7443
38815SOL    HW134055   6.094  11.930   6.298 -0.7503  0.3976  1.9100
38815SOL    HW234056   6.169  11.801   6.324  0.1932  1.0088  2.2761
38816SOL     OW34057  12.607   1.710   1.533 -0.0713 -0.7803  0.2894
38816SOL    HW134058  12.569   1.693   1.619  0.6532  2.5166  1.4237
38816SOL    HW234059  12.699   1.732   1.552  0.4983 -1.4392 -1.5276
38817SOL     OW34060   6.552  13.974  13.938 -0.1672 -0.3395  0.3544
38817SOL    HW134061   6.595  13.984  14.023 -1.5167 -0.1439  1.0455
38817SOL    HW234062   6.522  14.062  13.916  1.6942 -0.0239 -1.2202
38818SOL     OW34063   0.944  13.878  12.564  0.5165 -0.2587  0.2419
38818SOL    HW134064   0.989  13.961  12.549  1.2322 -0.6942 -0.0973
38818SOL    HW234065   0.894  13.892  12.644 -0.5187  0.9606 -0.5808
38819SOL     OW34066   7.497  11.825  13.899 -0.0427  0.1851 -0.5870
38819SOL    HW134067   7.498  11.857  13.809 -0.9546  0.7020 -0.4222
38819SOL    HW234068   7.491  11.904  13.953  2.2161  0.0174  0.0301
38820SOL     OW34069   3.597   4.138  12.360  0.3822 -0.1522 -0.1893
38820SOL    HW134070   3.562   4.226  12.371 -1.3989 -0.7698 -0.6261
38820SOL    HW234071   3.608   4.105  12.449  2.9017  1.1280  0.0754
38821SOL     OW34072  12.755  11.263   3.299 -0.0554  0.3172  0.2327
38821SOL    HW134073  12.845  11.263   3.334  0.4544 -2.5845 -0.7932
38821SOL    HW234074  12.765  11.281   3.206 -0.3859 -0.9960 -0.0780
38822SOL     OW34075   2.271   0.616  12.685  0.5916 -0.1670  0.5872
38822SOL    HW134076   2.352   0.564  12.683  0.3601 -0.5399  0.6975
38822SOL    HW234077   2.212   0.565  12.741  0.1441 -0.0948  0.1816
38823SOL     OW34078  10.704   6.834   2.748  0.0680  0.2463  0.2619
38823SOL    HW134079  10.617   6.873   2.746  0.5121  1.3879  1.3652
38823SOL    HW234080  10.695   6.757   2.804 -0.2743  0.2515  0.2124
38824SOL     OW34081   3.036   8.533   4.783 -1.0378 -0.7680 -0.2693
38824SOL    HW134082   3.089   8.590   4.729 -3.1581  0.5463 -1.0920
38824SOL    HW234083   3.046   8.567   4.872  0.0888 -1.0546 -0.2750
38825SOL     OW34084   7.722  10.106   7.341 -0.1712 -0.2572  0.4383
38825SOL    HW134085   7.662  10.145   7.278 -0.8604 -1.8355  0.0769
38825SOL    HW234086   7.806  10.148   7.322 -0.9619  1.4051  0.4379
38826SOL     OW34087   6.641   3.926  11.798  0.2348  0.0816  0.2676
38826SOL    HW134088   6.645   3.901  11.891  0.3928  0.2978  0.3186
38826SOL    HW234089   6.584   4.002  11.795  0.7695  0.4841  0.2756
38827SOL     OW34090   7.748   8.713   2.720  0.0676 -0.3574  0.2365
38827SOL    HW134091   7.696   8.645   2.678 -1.6656  0.7059  0.5517
38827SOL    HW234092   7.834   8.673   2.733 -1.2700 -3.0114  1.7353
38828SOL     OW34093   0.225  12.216   9.355 -0.1631 -0.2973  0.5351
38828SOL    HW134094   0.277  12.190   9.278  0.3808  0.8516  0.5009
38828SOL    HW234095   0.260  12.162   9.426  1.0559  0.4141  0.5004
38829SOL     OW34096   7.220   7.676   8.837 -0.0226  0.1817 -0.2806
38829SOL    HW134097   7.157   7.720   8.780  0.7314  2.2517  0.4126
38829SOL    HW234098   7.290   7.740   8.851  0.4516 -0.7217  1.9154
38830SOL     OW34099   7.283   9.499   2.861 -0.0507 -0.7375 -0.3545
38830SOL    HW134100   7.191   9.500   2.886 -0.1571  1.4934 -0.6288
38830SOL    HW234101   7.291   9.570   2.798  1.6185 -1.7429 -1.3546
38831SOL     OW34102   9.622   8.732   5.993  0.0946 -0.0809  0.2533
38831SOL    HW134103   9.577   8.747   5.909  0.0363 -0.7568  0.1601
38831SOL    HW234104   9.710   8.704   5.968  0.2310  0.1781  0.4295
38832SOL     OW34105   5.148  11.418  12.480  0.0908 -0.2591 -0.5714
38832SOL    HW134106   5.085  11.376  12.422 -1.6997 -0.2070  1.2331
38832SOL    HW234107   5.163  11.353  12.549  1.2750  0.1220 -0.4533
38833SOL     OW34108  12.875   0.199   8.067  0.5474  0.3609 -0.1101
38833SOL    HW134109  12.941   0.171   8.130  0.1316 -2.2331 -0.7097
38833SOL    HW234110  12.792   0.179   8.110  0.2553 -1.1771 -1.3120
38834SOL     OW34111  10.931   1.120   4.487 -0.2950  0.3145  0.6167
38834SOL    HW134112  11.009   1.176   4.485  1.2683 -1.6424  1.8009
38834SOL    HW234113  10.896   1.124   4.399  1.3288  1.0733 -0.0379
38835SOL     OW34114   6.736   0.072   8.863  0.3919 -0.7773 -0.6709
38835SOL    HW134115   6.646   0.056   8.893  1.3243 -1.1925  2.2072
38835SOL    HW234116   6.765  -0.013   8.831 -0.0038 -0.8317 -0.8943
38836SOL     OW34117   7.118   4.939   2.596  0.2051 -0.4658 -0.1984
38836SOL    HW134118   7.185   4.912   2.659  2.5127  0.5473 -2.0552
38836SOL    HW234119   7.047   4.975   2.650  1.3905 -1.0038  1.8353
38837SOL     OW34120  10.483  11.085   1.317 -0.6192  0.2068 -0.0807
38837SOL    HW134121  10.533  11.133   1.383 -0.6290 -0.9494  0.8049
38837SOL    HW234122  10.517  11.116   1.233  0.8625  0.2090  0.4839
38838SOL     OW34123   5.642   8.836   9.492 -0.0351  0.1491  0.4701
38838SOL    HW134124   5.630   8.812   9.400 -0.0092  0.5797  0.3492
38838SOL    HW234125   5.678   8.925   9.489 -1.6671  0.8667  0.9158
38839SOL     OW34126   3.300  10.224   5.694  0.1053  0.0639 -0.6382
38839SOL    HW134127   3.350  10.234   5.775  1.0997  3.8681 -1.5284
38839SOL    HW234128   3.364  10.238   5.624 -1.4821  1.2522 -1.9319
38840SOL     OW34129  11.943   0.172   1.746  0.9211 -0.4971 -0.0181
38840SOL    HW134130  11.908   0.122   1.819  0.6444  1.1651  1.0296
38840SOL    HW234131  12.031   0.137   1.732  0.6702 -1.3667  0.5718
38841SOL     OW34132   4.052   1.657  13.363  0.1298  0.5061 -0.0103
38841SOL    HW134133   4.050   1.621  13.452 -0.9378 -0.7589 -0.5125
38841SOL    HW234134   4.127   1.616  13.322  0.7645  1.2709  0.3590
38842SOL     OW34135   6.376   9.124   1.587  0.5722  0.5248 -0.0761
38842SOL    HW134136   6.319   9.113   1.510 -1.7034  2.1165  1.2647
38842SOL    HW234137   6.375   9.038   1.629  0.3753  0.1294 -0.8621
38843SOL     OW34138   9.635  11.052   4.147 -0.1774  0.6197  0.2700
38843SOL    HW134139   9.615  11.037   4.239 -1.2319 -0.8732 -0.1636
38843SOL    HW234140   9.557  11.023   4.100  0.0204  2.1021 -1.0716
38844SOL     OW34141  11.112   1.546   2.735 -0.3633  0.3955 -0.3884
38844SOL    HW134142  11.182   1.573   2.796 -1.7731  1.1033  0.9851
38844SOL    HW234143  11.069   1.627   2.711 -1.4317 -0.1312 -0.3023
38845SOL     OW34144   0.413   6.113   9.686 -0.0468 -0.0973 -0.0263
38845SOL    HW134145   0.366   6.061   9.621 -0.3990  0.4532 -0.2234
38845SOL    HW234146   0.359   6.192   9.696  0.3475  0.1151  0.4489
38846SOL     OW34147   1.459  13.263  14.068  0.5870  0.0828 -0.6226
38846SOL    HW134148   1.396  13.212  14.119  0.1587 -0.3994 -1.5909
38846SOL    HW234149   1.495  13.327  14.130  0.5270 -0.8591  0.4120
38847SOL     OW34150   2.643  12.261   1.524 -0.3234  0.2233 -0.0070
38847SOL    HW134151   2.717  12.318   1.542 -1.1469  1.8215 -1.3680
38847SOL    HW234152   2.612  12.234   1.610  2.2736 -1.1440  0.5744
38848SOL     OW34153  12.066   3.670  13.074 -0.2749  0.0135  0.4096
38848SOL    HW134154  12.006   3.631  13.138  1.2207  3.1665  4.1765
38848SOL    HW234155  12.141   3.611  13.073 -1.5929 -1.7574 -1.1184
38849SOL     OW34156  13.262   2.522   0.974  0.2953 -0.0579  0.1366
38849SOL    HW134157  13.247   2.555   1.062  1.7868 -1.7554  1.0780
38849SOL    HW234158  13.295   2.433   0.986  0.7319 -0.2672 -2.1226
38850SOL     OW34159   9.404   1.582  13.316  0.2885  0.2622 -0.4130
38850SOL    HW134160   9.397   1.677  13.327  0.7348  0.5043 -1.8569
38850SOL    HW234161   9.492   1.561  13.348  0.4102  0.4386 -0.6272
38851SOL     OW34162   0.552  12.580  13.693  0.0513 -0.7339 -0.4745
38851SOL    HW134163   0.628  12.579  13.751  2.1085  0.0379 -2.9280
38851SOL    HW234164   0.574  12.646  13.626 -2.9191 -0.2949 -1.1743
38852SOL     OW34165  12.398   7.277   1.753 -0.2108  0.1538  0.2993
38852SOL    HW134166  12.397   7.264   1.658  0.8067  0.5904  0.2152
38852SOL    HW234167  12.366   7.366   1.766  1.1744  0.6708  0.2428
38853SOL     OW34168   0.454   8.214   3.010 -0.8277  0.3756  0.0303
38853SOL    HW134169   0.489   8.125   3.007  0.1044  0.4514  3.5159
38853SOL    HW234170   0.368   8.205   3.052 -0.6903  1.0887  0.4961
38854SOL     OW34171   5.803   6.024  13.318 -0.7916 -0.1063 -0.0289
38854SOL    HW134172   5.881   5.988  13.276 -0.7396 -1.1696  0.9098
38854SOL    HW234173   5.734   5.961  13.297 -1.0838  0.1102  0.2765
38855SOL     OW34174   3.875   0.895   1.899  0.1755  0.2974  0.5488
38855SOL    HW134175   3.865   0.813   1.948  2.6924  1.3252  3.0589
38855SOL    HW234176   3.788   0.936   1.904 -0.7289 -1.5053  0.5320
38856SOL     OW34177   4.539   6.001   1.007  0.2339  0.0587 -0.2238
38856SOL    HW134178   4.559   6.030   1.096 -0.1509 -1.0406  0.2435
38856SOL    HW234179   4.494   6.075   0.967  1.8924  1.1936 -0.0764
38857SOL     OW34180   6.180   0.247   9.794  0.3314  0.3284  0.4072
38857SOL    HW134181   6.138   0.331   9.809  0.7900  0.4965  0.7548
38857SOL    HW234182   6.127   0.206   9.725 -0.9429  0.1553  1.4442
38858SOL     OW34183   8.400   9.637  12.170 -0.0323 -0.0517  0.4566
38858SOL    HW134184   8.356   9.650  12.255  0.7371  0.3003  0.8138
38858SOL    HW234185   8.420   9.544  12.167  1.1950  0.1549  1.3169
38859SOL     OW34186   9.880  12.906   8.661  0.1534  0.1573  0.2090
38859SOL    HW134187   9.858  12.872   8.748  0.2924 -0.9755 -0.1851
38859SOL    HW234188   9.800  12.895   8.610  0.3815 -0.1386 -0.0879
38860SOL     OW34189   4.557   1.383   5.065  0.0724 -1.0638 -0.6160
38860SOL    HW134190   4.599   1.324   5.127 -1.4696 -0.1336  1.4610
38860SOL    HW234191   4.605   1.466   5.074 -1.1186 -0.4589  0.6126
38861SOL     OW34192   4.629   9.384   4.146 -0.1862  0.0592 -0.3003
38861SOL    HW134193   4.682   9.357   4.221  1.6926  0.7235 -1.2887
38861SOL    HW234194   4.564   9.444   4.182  0.1928 -0.2271  0.8996
38862SOL     OW34195   8.731  12.982   6.646 -0.5754  0.2984  0.2680
38862SOL    HW134196   8.742  13.070   6.612 -0.3637 -0.0329 -0.5511
38862SOL    HW234197   8.749  12.925   6.572 -0.9465 -0.4323  0.7219
38863SOL     OW34198   6.994   0.867   9.493  0.0840  0.2847  0.1497
38863SOL    HW134199   6.997   0.963   9.491 -0.2294  0.2887 -0.2381
38863SOL    HW234200   7.040   0.840   9.414 -0.3221  0.1306 -0.0387
38864SOL     OW34201   3.835  11.356   2.511  0.1402 -0.2714 -0.4064
38864SOL    HW134202   3.907  11.302   2.545  1.2531  0.6024 -1.3276
38864SOL    HW234203   3.876  11.416   2.449 -1.2472  0.8789 -0.2698
38865SOL     OW34204   9.231   1.970  12.983  0.0258 -0.4170  0.8625
38865SOL    HW134205   9.156   1.918  12.954  0.5387 -0.5257 -0.3479
38865SOL    HW234206   9.284   1.981  12.904  0.5231  0.9480  1.3582
38866SOL     OW34207   8.100   0.183  10.235 -0.1624 -0.4725 -0.2264
38866SOL    HW134208   8.026   0.161  10.178  0.0410 -1.0225 -0.2848
38866SOL    HW234209   8.059   0.221  10.313 -0.5159 -0.8785 -0.2098
38867SOL     OW34210   2.934  13.267  13.324 -0.1306 -0.2044 -0.1201
38867SOL    HW134211   2.895  13.273  13.411 -1.7409  0.7798 -0.8440
38867SOL    HW234212   2.890  13.192  13.283  0.4839 -0.5528 -0.1425
38868SOL     OW34213   6.354   1.938   1.766 -0.8715  0.3159 -0.1898
38868SOL    HW134214   6.290   1.946   1.696 -1.8917  0.3737  0.7203
38868SOL    HW234215   6.340   2.016   1.821 -2.3605 -1.2986  1.8784
38869SOL     OW34216   1.085   2.487   8.123 -0.4719 -0.4495 -0.6664
38869SOL    HW134217   1.015   2.477   8.059 -0.3641 -0.8133 -0.7300
38869SOL    HW234218   1.133   2.404   8.120 -0.1856 -0.2952 -0.4492
38870SOL     OW34219   6.761   7.978  14.077  0.0533 -0.2071 -0.0613
38870SOL    HW134220   6.791   7.947  13.991  1.0085 -1.0762  0.5528
38870SOL    HW234221   6.807   8.060  14.091 -0.7754  0.3850 -0.7457
38871SOL     OW34222   5.734   7.030   6.097  0.0349  0.7784 -0.2898
38871SOL    HW134223   5.730   7.106   6.155  0.7548  0.5863  0.0087
38871SOL    HW234224   5.801   7.052   6.032  0.4452  0.2890 -0.0407
38872SOL     OW34225   6.819   9.853   0.678 -0.0517  0.1696  0.4415
38872SOL    HW134226   6.907   9.846   0.717 -0.0269  0.0453  0.3624
38872SOL    HW234227   6.765   9.890   0.748  0.2707  1.1546  0.1854
38873SOL     OW34228   6.501   9.541  10.331  0.0574  0.2714  0.8510
38873SOL    HW134229   6.509   9.562  10.424 -0.0403  2.0701  0.5048
38873SOL    HW234230   6.421   9.587  10.303  0.9683  1.1528 -0.4404
38874SOL     OW34231  11.698  10.879   4.592 -0.4289 -0.2704 -1.0877
38874SOL    HW134232  11.626  10.888   4.654  1.1546  1.2462  0.6762
38874SOL    HW234233  11.660  10.900   4.507 -2.1358  0.0999 -0.2817
38875SOL     OW34234   5.720  12.654   5.492  0.7788 -0.1542  0.0263
38875SOL    HW134235   5.725  12.687   5.403 -2.2894 -0.4406 -0.3582
38875SOL    HW234236   5.720  12.559   5.482 -1.3185 -0.2090  0.0885
38876SOL     OW34237  13.163   9.986   8.120  0.2915  0.0105 -0.1518
38876SOL    HW134238  13.097   9.919   8.140 -0.9433  1.5131  1.0528
38876SOL    HW234239  13.142  10.014   8.031 -2.5884  2.3747  1.0788
38877SOL     OW34240   5.593   2.109  11.542 -0.2225  0.4236  0.5081
38877SOL    HW134241   5.558   2.197  11.529  1.5783  1.0579 -0.3599
38877SOL    HW234242   5.688   2.120  11.538  0.0371 -1.6273 -0.1206
38878SOL     OW34243   1.728   7.479  11.424  0.3562 -0.3352 -0.0464
38878SOL    HW134244   1.808   7.464  11.374 -0.1451 -0.8826 -0.6916
38878SOL    HW234245   1.657   7.470  11.360 -0.1845  1.0615  0.3137
38879SOL     OW34246  10.556  14.077   7.121 -1.1009  0.5600  0.1846
38879SOL    HW134247  10.502  14.137   7.173 -0.4177  0.0522  1.5534
38879SOL    HW234248  10.528  14.090   7.031 -0.9582  2.9429  0.4319
38880SOL     OW34249  11.482   3.567   5.154 -0.4025  0.1933  0.4222
38880SOL    HW134250  11.448   3.554   5.242 -1.1599  0.2498  0.1485
38880SOL    HW234251  11.425   3.513   5.099 -0.0982  0.3608 -0.0599
38881SOL     OW34252  13.795   8.862   5.175 -0.0846 -0.3010 -0.5003
38881SOL    HW134253  13.738   8.934   5.203  1.5336  1.2991 -1.1704
38881SOL    HW234254  13.780   8.793   5.241 -1.0803  0.9382  0.6249
38882SOL     OW34255   0.928  13.973   9.735  0.1226 -0.4716 -0.4414
38882SOL    HW134256   0.995  13.997   9.800  1.1027 -0.1980 -1.5057
38882SOL    HW234257   0.978  13.957   9.654 -0.7071 -3.6638 -0.4753
38883SOL     OW34258   5.977   8.563  13.197 -0.5487 -0.3134 -0.2056
38883SOL    HW134259   5.991   8.647  13.153  0.0112  0.0841  0.6875
38883SOL    HW234260   6.058   8.514  13.181 -0.3190 -0.1458  0.3893
38884SOL     OW34261   5.545   1.140   0.957  0.0802 -1.0089 -0.1072
38884SOL    HW134262   5.634   1.154   0.925 -0.0718 -0.6022 -0.3497
38884SOL    HW234263   5.548   1.052   0.996  0.7660 -0.7134  0.5317
38885SOL     OW34264  12.448  10.344   7.579 -0.1073  0.5362  0.5320
38885SOL    HW134265  12.354  10.354   7.561 -0.1533 -1.2570 -0.5179
38885SOL    HW234266  12.452  10.268   7.637  0.7340  0.0914 -0.0963
38886SOL     OW34267   4.958   9.715  11.377 -0.0164  0.0215 -0.0233
38886SOL    HW134268   4.903   9.735  11.301  1.3602  0.4851 -0.9375
38886SOL    HW234269   4.897   9.716  11.451 -2.0204 -3.3986 -1.3661
38887SOL     OW34270   4.133   7.709   2.058  0.2067 -0.2388  0.2547
38887SOL    HW134271   4.213   7.752   2.028 -0.2073 -0.2214 -0.8458
38887SOL    HW234272   4.164   7.632   2.105  0.8721 -0.6525 -0.8263
38888SOL     OW34273   9.604  12.577  11.165  0.0418  0.1868 -0.2835
38888SOL    HW134274   9.529  12.623  11.128 -1.8659 -0.8854  2.0231
38888SOL    HW234275   9.628  12.626  11.243  1.9380  0.6059 -1.0543
38889SOL     OW34276  11.934  11.744   6.099 -0.1842  0.2561 -0.5910
38889SOL    HW134277  11.839  11.748   6.113  0.3172  2.6048  4.4418
38889SOL    HW234278  11.961  11.836   6.094  1.9874 -0.3108 -0.2625
38890SOL     OW34279  10.017  13.264   4.071  0.0982  0.3013  0.0290
38890SOL    HW134280  10.040  13.193   4.131  1.3088  2.3545  2.1438
38890SOL    HW234281  10.069  13.246   3.992  0.5589 -1.0114  0.6054
38891SOL     OW34282   0.094  10.589   5.561  0.0259  0.1840 -0.1083
38891SOL    HW134283   0.136  10.593   5.647  0.6107  0.1837 -0.3885
38891SOL    HW234284   0.154  10.538   5.507 -1.1150 -1.2354 -0.0858
38892SOL     OW34285   3.322   9.243   3.588  0.5529  0.6522 -0.1873
38892SOL    HW134286   3.321   9.180   3.516  2.2463 -0.1986  0.4676
38892SOL    HW234287   3.303   9.327   3.547  1.5198  0.1994 -1.6536
38893SOL     OW34288   5.567  11.500   0.347 -0.4143 -0.1774  0.0412
38893SOL    HW134289   5.562  11.498   0.443  0.4303 -0.5898  0.0872
38893SOL    HW234290   5.660  11.490   0.328 -0.6214 -0.4806 -0.8366
38894SOL     OW34291   6.028   9.727   4.990  0.3312  0.1324  0.4639
38894SOL    HW134292   6.031   9.633   5.010  0.4205  0.1247  0.4122
38894SOL    HW234293   5.938   9.741   4.961  0.4418 -0.0276  0.0283
38895SOL     OW34294   0.691   4.425  12.612  0.0454 -0.0034 -0.4278
38895SOL    HW134295   0.730   4.497  12.561 -0.0807  0.2049 -0.2315
38895SOL    HW234296   0.749   4.415  12.687  0.1666 -0.2322 -0.5519
38896SOL     OW34297  12.328   4.877   9.660  0.4305 -0.1062 -0.2938
38896SOL    HW134298  12.346   4.898   9.568 -0.3714  0.1079 -0.4156
38896SOL    HW234299  12.234   4.893   9.669  0.9428  2.4557  1.2349
38897SOL     OW34300   3.372   0.538   4.581  0.4457 -0.2929 -0.0595
38897SOL    HW134301   3.276   0.540   4.581  0.4285 -0.8311  0.3814
38897SOL    HW234302   3.395   0.491   4.662  1.1254  2.4614  1.4907
38898SOL     OW34303   8.916  10.874   6.323  0.0496 -0.0087  0.4717
38898SOL    HW134304   8.924  10.952   6.379 -1.9183  0.4853  0.1419
38898SOL    HW234305   8.887  10.805   6.382 -1.1799  0.3016  0.2773
38899SOL     OW34306   3.265   3.535   1.894 -0.1820  0.7427  0.2992
38899SOL    HW134307   3.268   3.628   1.871 -0.6898  0.3258 -1.7393
38899SOL    HW234308   3.214   3.532   1.975  3.4823  2.5481  2.9666
38900SOL     OW34309  12.802  12.929   9.874  0.1389  0.2125  0.0549
38900SOL    HW134310  12.884  12.908   9.919  0.3688  0.8819 -0.0505
38900SOL    HW234311  12.817  12.901   9.784  0.1519  0.0965  0.0919
38901SOL     OW34312   6.165   1.878   3.695  0.8888  0.2488 -0.0153
38901SOL    HW134313   6.174   1.944   3.764  0.2699 -0.6587  0.9654
38901SOL    HW234314   6.130   1.801   3.740 -1.5153  0.2469 -1.6681
38902SOL     OW34315  11.059   2.697   2.867  0.0104 -0.3024  0.5524
38902SOL    HW134316  11.009   2.773   2.897 -0.9583 -1.0575  0.9046
38902SOL    HW234317  11.142   2.734   2.836 -0.5519  0.9266  0.4351
38903SOL     OW34318   5.626  13.864  13.405  0.3273 -0.1285 -0.0375
38903SOL    HW134319   5.680  13.785  13.399 -1.0431 -0.9956 -1.6483
38903SOL    HW234320   5.652  13.916  13.329  0.9880  0.8551  0.8358
38904SOL     OW34321   4.721   3.326   8.633 -0.4365  0.1468  0.4776
38904SOL    HW134322   4.680   3.240   8.625 -1.5437  0.6734  0.3648
38904SOL    HW234323   4.657   3.387   8.598  1.0721  0.8549 -1.1913
38905SOL     OW34324  11.807   3.825   0.633 -0.0812  0.3447 -0.0479
38905SOL    HW134325  11.842   3.842   0.545 -0.1063  0.8609  0.0376
38905SOL    HW234326  11.742   3.894   0.647 -0.9435 -0.4432 -0.0925
38906SOL     OW34327   0.711   4.467   7.341  0.0315  0.0563  0.2751
38906SOL    HW134328   0.737   4.387   7.294 -0.0982  0.7114 -0.9602
38906SOL    HW234329   0.764   4.467   7.420  0.3634 -1.0203  0.0705
38907SOL     OW34330   4.310  12.891   0.116 -0.1850  0.5473  0.2199
38907SOL    HW134331   4.309  12.822   0.181 -1.8368 -0.9904 -1.3212
38907SOL    HW234332   4.403  12.909   0.101  0.3851 -2.4040 -0.3806
38908SOL     OW34333   9.278  12.532   3.969  0.0837 -0.2202 -0.2119
38908SOL    HW134334   9.332  12.512   3.893  1.4251 -1.8176  1.0964
38908SOL    HW234335   9.340  12.547   4.040 -1.1522  0.0494  0.8580
38909SOL     OW34336  13.454  10.621   7.128  0.0612 -0.1115  0.6697
38909SOL    HW134337  13.449  10.588   7.218 -1.8904  1.5896  1.2698
38909SOL    HW234338  13.379  10.582   7.084 -0.5964  1.2058  0.5883
38910SOL     OW34339   4.613   4.115  11.152 -0.2155  0.0815 -0.1661
38910SOL    HW134340   4.552   4.142  11.084 -0.0725 -0.6832 -0.6051
38910SOL    HW234341   4.697   4.153  11.126 -0.5059  1.2248  0.4946
38911SOL     OW34342   2.232   8.572  11.194 -0.0214 -0.1150  0.0217
38911SOL    HW134343   2.288   8.577  11.271  0.7201  1.8002 -0.5799
38911SOL    HW234344   2.150   8.535  11.226 -0.0475  1.4361  1.9222
38912SOL     OW34345   5.870  11.516   5.742  0.2209 -0.1618 -0.1880
38912SOL    HW134346   5.851  11.609   5.754  1.0806  0.3314 -2.2280
38912SOL    HW234347   5.936  11.513   5.673  1.2021 -2.2447  0.7190
38913SOL     OW34348  13.888   1.776   3.879  0.0357 -0.8708 -0.6018
38913SOL    HW134349  13.801   1.776   3.919  0.5787 -0.4294  0.6300
38913SOL    HW234350  13.896   1.862   3.838  0.3217 -0.4486  0.3072
38914SOL     OW34351  10.286  12.235   1.197  0.3026 -0.6558 -0.6221
38914SOL    HW134352  10.201  12.219   1.157 -0.9414  1.6405  0.8656
38914SOL    HW234353  10.271  12.223   1.291  2.1417 -2.0622 -0.4545
38915SOL     OW34354  11.978   2.416   7.956  0.1382  0.2835 -0.0788
38915SOL    HW134355  12.031   2.470   8.014 -1.1079  0.5537  0.8599
38915SOL    HW234356  11.958   2.473   7.881  0.9671  0.2445 -0.3405
38916SOL     OW34357   8.318   3.997  13.652 -0.3517  0.4906 -0.2549
38916SOL    HW134358   8.339   4.023  13.562  1.4223 -1.4149 -0.4812
38916SOL    HW234359   8.354   4.067  13.706  0.3405  0.7156 -0.9793
38917SOL     OW34360   7.653   9.948   9.657  0.4196 -0.2019  0.3317
38917SOL    HW134361   7.705   9.868   9.646  0.0795 -0.3525 -0.2563
38917SOL    HW234362   7.632   9.951   9.750  0.1564 -0.9829  0.3062
38918SOL     OW34363  13.779   4.731   1.260 -0.1208 -0.5144  0.4785
38918SOL    HW134364  13.698   4.689   1.232  0.4712 -1.9400  0.8487
38918SOL    HW234365  13.843   4.706   1.193 -0.2920  1.9358 -0.7270
38919SOL     OW34366  13.426   2.651   4.020  0.2352  1.2899 -0.4646
38919SOL    HW134367  13.460   2.667   4.108  1.1245 -1.9984 -0.0949
38919SOL    HW234368  13.343   2.606   4.033  0.2415  1.0110 -1.2851
38920SOL     OW34369   8.913   1.213   4.613 -0.5947  0.3140 -0.8245
38920SOL    HW134370   8.880   1.214   4.523 -0.6350 -1.0563 -0.8378
38920SOL    HW234371   8.971   1.289   4.618 -1.5089  1.0868 -1.6453
38921SOL     OW34372   0.316   6.662  11.683 -0.4497 -0.2297  0.2938
38921SOL    HW134373   0.390   6.722  11.670 -0.8249  0.2278  0.2499
38921SOL    HW234374   0.308   6.654  11.778  0.7333 -1.6375  0.3146
38922SOL     OW34375   8.676  12.815  13.364 -0.0337 -0.0456 -0.2452
38922SOL    HW134376   8.614  12.837  13.295 -1.7629  0.0035  1.2624
38922SOL    HW234377   8.711  12.899  13.392 -0.3649  0.0501 -0.1196
38923SOL     OW34378   8.362   5.408   4.266 -0.2278 -0.2129  0.4239
38923SOL    HW134379   8.299   5.416   4.194  0.2411  0.6501  0.0902
38923SOL    HW234380   8.438   5.458   4.237 -0.0012  0.0839  1.4835
38924SOL     OW34381   6.895   9.728  13.370  0.2930 -0.2551 -0.2543
38924SOL    HW134382   6.914   9.689  13.455 -1.6220 -1.1141 -0.1857
38924SOL    HW234383   6.818   9.783  13.384  1.7709  2.1252 -0.7906
38925SOL     OW34384   1.143   1.624  12.169  0.1935  0.0365  0.0256
38925SOL    HW134385   1.125   1.711  12.205  0.5100  0.9712 -1.9718
38925SOL    HW234386   1.097   1.564  12.228  1.5891  1.3524  2.6001
38926SOL     OW34387  13.370   6.967   8.961  0.1902 -0.5339  0.0847
38926SOL    HW134388  13.461   6.953   8.985  0.3837  1.3945  0.6592
38926SOL    HW234389  13.346   6.889   8.910  1.5977 -1.9160  1.4030
38927SOL     OW34390   0.496   5.384   6.100 -0.1396  0.4844 -0.1762
38927SOL    HW134391   0.550   5.318   6.057 -0.5698 -0.8608  1.2511
38927SOL    HW234392   0.417   5.390   6.047 -0.4667 -0.8048  0.1390
38928SOL     OW34393   9.565   2.620   1.328  0.2478  0.3568  0.3307
38928SOL    HW134394   9.650   2.661   1.311  0.2186 -0.0223 -0.8632
38928SOL    HW234395   9.573   2.532   1.290 -0.3722 -0.0145  1.0369
38929SOL     OW34396   4.725   9.123   8.733  0.8656  0.4106 -0.3259
38929SOL    HW134397   4.734   9.173   8.651  0.5067  0.8010 -0.1289
38929SOL    HW234398   4.634   9.134   8.758  0.6394 -0.8161 -0.5701
38930SOL     OW34399   4.944   2.815   2.825 -0.1245 -0.6484 -0.2405
38930SOL    HW134400   4.882   2.822   2.898 -1.3076 -1.0239 -1.1752
38930SOL    HW234401   4.969   2.905   2.806 -1.4582 -0.3620 -0.7247
38931SOL     OW34402   6.160  13.676   4.704 -0.5623 -0.2428 -0.3526
38931SOL    HW134403   6.115  13.690   4.788 -0.2637 -0.9037 -0.0720
38931SOL    HW234404   6.238  13.731   4.710 -0.3835 -0.5182 -0.0584
38932SOL     OW34405  10.016  11.965  13.745  0.2793 -0.2455 -0.3586
38932SOL    HW134406  10.014  12.020  13.667  0.9379 -0.0897 -0.2695
38932SOL    HW234407  10.084  12.003  13.799 -2.7481  2.1623  2.1622
38933SOL     OW34408   6.659  13.736   8.684  0.1890 -0.4958  0.3659
38933SOL    HW134409   6.696  13.647   8.685  0.5789 -0.3556 -0.6248
38933SOL    HW234410   6.577  13.728   8.734  0.2057 -1.4159  0.2692
38934SOL     OW34411   1.445   5.457   4.289  0.2935  0.0856  0.2736
38934SOL    HW134412   1.391   5.525   4.330 -0.2589  1.0434 -1.8896
38934SOL    HW234413   1.533   5.495   4.288  0.4019 -0.1351  0.9483
38935SOL     OW34414   3.082   6.068   1.688 -0.1821 -0.1283  0.2517
38935SOL    HW134415   3.080   5.978   1.721 -0.1994  0.1315  0.9667
38935SOL    HW234416   3.174   6.083   1.667 -0.0987 -0.1395  0.6088
38936SOL     OW34417   6.508   9.838   5.179 -0.0550  0.0920 -0.1595
38936SOL    HW134418   6.464   9.880   5.104  1.3872  1.3236 -0.3594
38936SOL    HW234419   6.466   9.878   5.255 -1.1476 -0.7634 -0.2795
38937SOL     OW34420  13.076   0.076   9.018 -0.3078 -0.2529  0.2449
38937SOL    HW134421  13.151   0.045   9.069 -0.1570 -0.3972 -0.0600
38937SOL    HW234422  13.114   0.103   8.934 -0.5777 -0.2015  0.1375
38938SOL     OW34423   0.958  12.177   6.735 -0.1994 -0.2964 -0.2637
38938SOL    HW134424   0.922  12.193   6.647 -0.6616 -0.4975 -0.1139
38938SOL    HW234425   1.046  12.143   6.718 -0.4673 -0.8182 -0.6734
38939SOL     OW34426   2.634   3.715   1.838 -0.2234  0.0811  0.1770
38939SOL    HW134427   2.712   3.770   1.849 -1.7038  2.7312 -1.6156
38939SOL    HW234428   2.668   3.625   1.842  2.3257  0.9911  3.2884
38940SOL     OW34429   6.237   3.428   3.035 -0.4218  0.1259 -0.6107
38940SOL    HW134430   6.150   3.441   3.073 -0.4938  0.8691 -1.0203
38940SOL    HW234431   6.276   3.359   3.089 -0.8419  0.5649  0.2733
38941SOL     OW34432   0.504   9.458  11.613  0.3134  0.6482 -0.3874
38941SOL    HW134433   0.594   9.488  11.605  0.8610  0.0874  2.6173
38941SOL    HW234434   0.512   9.362  11.621 -0.2168  0.7552  2.4063
38942SOL     OW34435   6.262  12.696   8.476  0.3805 -0.5881 -0.4875
38942SOL    HW134436   6.218  12.772   8.514  1.3429  0.4000 -1.2493
38942SOL    HW234437   6.315  12.660   8.547 -1.9527 -2.1103  0.5929
38943SOL     OW34438  12.676  13.712   6.468  0.1573  0.0208 -0.0534
38943SOL    HW134439  12.611  13.757   6.413  1.1656  1.0479 -0.4327
38943SOL    HW234440  12.738  13.780   6.493  1.0728 -0.9375  0.3567
38944SOL     OW34441  13.717   6.323  10.144  0.0725 -0.1173  0.1101
38944SOL    HW134442  13.677   6.237  10.150 -0.5692  0.1105 -0.8398
38944SOL    HW234443  13.660   6.380  10.197 -1.8877  0.5497 -2.5325
38945SOL     OW34444   2.125   7.452   8.726  0.1260 -0.1477  0.1984
38945SOL    HW134445   2.186   7.525   8.731  2.2960 -1.7109 -1.2742
38945SOL    HW234446   2.047   7.488   8.684  1.6797  1.0427 -1.8412
38946SOL     OW34447   5.739  11.446   6.794  0.2876 -0.5210  0.2884
38946SOL    HW134448   5.816  11.502   6.797  0.0559 -0.1896  0.1479
38946SOL    HW234449   5.669  11.504   6.763  0.3678 -1.2403 -1.3349
38947SOL     OW34450   5.617   0.374  12.717  0.3549 -0.2235 -0.1640
38947SOL    HW134451   5.639   0.433  12.645  0.2331 -0.6356 -0.5407
38947SOL    HW234452   5.576   0.298  12.675 -1.6926  0.4525  0.5155
38948SOL     OW34453   8.165  10.424   2.685  0.4096 -0.3342 -0.3657
38948SOL    HW134454   8.245  10.405   2.635  0.6804 -1.3758  0.4341
38948SOL    HW234455   8.131  10.338   2.710 -0.8594  0.0996 -0.5138
38949SOL     OW34456   7.572  11.698   4.453  0.3991  0.0934 -0.4661
38949SOL    HW134457   7.523  11.685   4.534  0.2871 -0.6272 -0.6516
38949SOL    HW234458   7.572  11.793   4.441  0.8536  0.2525  0.6540
38950SOL     OW34459  11.760   2.207   7.796  0.4992 -0.3208 -0.1157
38950SOL    HW134460  11.723   2.194   7.884  0.8233 -0.0571  0.0616
38950SOL    HW234461  11.728   2.132   7.746  1.5375 -1.2986  0.6306
38951SOL     OW34462   8.105  12.914  12.625  0.0254  0.6860  0.5964
38951SOL    HW134463   8.152  12.963  12.693 -0.5701  0.7223  0.9898
38951SOL    HW234464   8.164  12.916  12.549 -0.2893  2.6410  0.3598
38952SOL     OW34465   1.405   6.204   7.416  0.4656  0.5312 -0.0493
38952SOL    HW134466   1.418   6.229   7.507  0.6898  1.2180 -0.2668
38952SOL    HW234467   1.326   6.151   7.417  0.7557  0.1018  0.6189
38953SOL     OW34468   3.567   4.648   6.274 -0.0116 -0.0898 -0.5364
38953SOL    HW134469   3.657   4.636   6.303 -0.8293 -2.0288  1.5652
38953SOL    HW234470   3.538   4.728   6.317  0.1031 -0.6140  0.5514
38954SOL     OW34471   0.173   5.931  12.123  0.3485 -0.6979  0.1900
38954SOL    HW134472   0.181   6.011  12.176  0.1868 -1.7850  1.9241
38954SOL    HW234473   0.082   5.906  12.131  0.2797 -0.8063 -0.7784
38955SOL     OW34474   2.583  12.659   7.360  0.4615 -0.3335 -0.4846
38955SOL    HW134475   2.549  12.743   7.328 -3.0651 -1.0825  0.8226
38955SOL    HW234476   2.550  12.652   7.450  1.3701 -2.7471 -0.2512
38956SOL     OW34477   8.557   4.826   0.466  0.2914  0.0094 -0.0330
38956SOL    HW134478   8.595   4.740   0.450  1.2551  0.4877 -0.3745
38956SOL    HW234479   8.491   4.810   0.534 -1.3803 -1.4413 -1.8651
38957SOL     OW34480   1.187   2.143  12.246 -0.1422 -0.6700 -0.0614
38957SOL    HW134481   1.140   2.173  12.323 -1.1069 -2.0633 -0.0800
38957SOL    HW234482   1.276   2.177  12.258 -0.8853  1.2517  0.4061
38958SOL     OW34483   0.412   3.286   9.385  0.1836  0.5894 -0.3032
38958SOL    HW134484   0.342   3.228   9.414  1.0280  0.0935  0.8504
38958SOL    HW234485   0.389   3.309   9.295 -0.1036 -1.6521 -0.8727
38959SOL     OW34486  11.622  12.366   2.321 -0.5032  0.8726 -0.0750
38959SOL    HW134487  11.574  12.311   2.383 -0.7904  0.0913 -0.9672
38959SOL    HW234488  11.618  12.454   2.359 -0.9518  0.4696  0.8424
38960SOL     OW34489  12.769  13.189   2.383  0.1734  0.0261  0.3318
38960SOL    HW134490  12.749  13.229   2.467  1.1034  1.4621 -0.0938
38960SOL    HW234491  12.844  13.132   2.401 -0.6916 -1.0013  0.7900
38961SOL     OW34492  13.469   7.203   9.290 -0.4476 -0.6366 -0.3944
38961SOL    HW134493  13.465   7.180   9.383 -0.7408 -0.8969 -0.4689
38961SOL    HW234494  13.407   7.275   9.279  0.1823 -0.0543 -0.2367
38962SOL     OW34495   5.258   6.454  11.513  0.1152  0.3966  0.2573
38962SOL    HW134496   5.338   6.501  11.537  0.2083  1.2865 -1.6500
38962SOL    HW234497   5.193   6.483  11.577  0.6356  1.7727  0.1959
38963SOL     OW34498   3.614  11.856  13.834 -0.3284 -0.5334  0.0571
38963SOL    HW134499   3.669  11.905  13.773 -0.7443  1.3953  1.1544
38963SOL    HW234500   3.657  11.772  13.844  1.4877  0.3028 -0.4228
38964SOL     OW34501   0.354   6.379   4.216  0.0824 -0.3432  0.5921
38964SOL    HW134502   0.315   6.368   4.130  0.0832  1.0598  0.3986
38964SOL    HW234503   0.443   6.410   4.199  1.5563 -3.8186  1.0081
38965SOL     OW34504   9.431   7.739   4.832 -0.0809  0.0946  0.1798
38965SOL    HW134505   9.515   7.750   4.876 -0.0746 -2.9247  1.1353
38965SOL    HW234506   9.453   7.738   4.739  0.7770  0.4506  0.3698
38966SOL     OW34507  12.747   2.316   7.918 -0.3948 -0.4834  0.3048
38966SOL    HW134508  12.773   2.403   7.890 -1.9795 -0.5183 -1.4619
38966SOL    HW234509  12.653   2.322   7.933 -0.4534 -1.7709  0.6571
38967SOL     OW34510   0.422   7.373   8.673  0.4075 -0.4867 -0.2872
38967SOL    HW134511   0.430   7.456   8.627 -0.8881 -0.0278  0.2794
38967SOL    HW234512   0.494   7.374   8.736 -0.5132  0.9424  0.7994
38968SOL     OW34513  11.998   5.751   8.988 -0.7229 -0.1361 -0.0159
38968SOL    HW134514  12.002   5.666   9.032 -1.5940 -1.3421 -2.1269
38968SOL    HW234515  12.071   5.800   9.025  0.1139 -1.9721  0.9216
38969SOL     OW34516   0.584   1.775   6.856  0.2471  0.2442  0.3059
38969SOL    HW134517   0.654   1.714   6.829 -0.1137 -0.2685  0.5069
38969SOL    HW234518   0.533   1.725   6.919  0.7231  1.2242  1.4963
38970SOL     OW34519  11.040   7.596   1.760 -0.0346  0.0864  0.0281
38970SOL    HW134520  11.109   7.548   1.716  0.4885 -0.8891  1.8207
38970SOL    HW234521  11.043   7.684   1.722  0.8936 -0.4809 -1.2649
38971SOL     OW34522   5.995   4.523  10.604  1.2425 -0.3819  0.1268
38971SOL    HW134523   5.976   4.582  10.531  1.2685 -0.9839 -0.3728
38971SOL    HW234524   5.956   4.566  10.680  2.2560  0.8571 -0.0064
38972SOL     OW34525   1.714  14.065   7.139  0.2477  0.3450  0.2510
38972SOL    HW134526   1.727  14.029   7.227 -0.6391 -0.2759  0.1366
38972SOL    HW234527   1.620  14.064   7.126  0.3956  0.0173 -0.8846
38973SOL     OW34528  11.508   0.170   2.685 -0.2393  0.5301 -0.6729
38973SOL    HW134529  11.521   0.076   2.697  0.5756  0.7550  0.3313
38973SOL    HW234530  11.511   0.182   2.590 -2.5355 -0.7326 -0.9928
38974SOL     OW34531   3.316   0.286  12.876  0.1384 -0.3010 -0.0979
38974SOL    HW134532   3.299   0.268  12.969  0.1723 -1.5760 -0.3246
38974SOL    HW234533   3.229   0.281  12.835  0.0506  0.7558 -0.0779
38975SOL     OW34534  11.431   9.805   4.408  0.2226 -0.6403 -0.1115
38975SOL    HW134535  11.370   9.747   4.454  0.0959 -0.3011  0.1575
38975SOL    HW234536  11.377   9.879   4.381  0.8727  0.6976  1.9623
38976SOL     OW34537  13.261   7.037   6.713 -0.1050  0.2989  0.3871
38976SOL    HW134538  13.336   7.077   6.669 -1.1464  0.8840 -0.9355
38976SOL    HW234539  13.237   7.100   6.781  0.3889  0.2712  0.5912
38977SOL     OW34540   6.650  13.237   4.879 -0.0361 -0.3312 -0.0913
38977SOL    HW134541   6.612  13.228   4.792  1.3324  1.3045 -0.9079
38977SOL    HW234542   6.601  13.309   4.919 -1.0349 -1.4371  0.7434
38978SOL     OW34543   3.257  13.616   5.175  0.0446 -0.4052 -0.0878
38978SOL    HW134544   3.271  13.707   5.202 -2.5767 -0.1561  0.7689
38978SOL    HW234545   3.310  13.606   5.096 -0.9606  2.4713 -1.2946
38979SOL     OW34546   0.026   6.576   2.163 -0.0113 -0.0378  0.0490
38979SOL    HW134547   0.035   6.664   2.198 -0.8928 -1.1427  3.4650
38979SOL    HW234548  -0.067   6.555   2.176  0.6000 -2.1906  1.3971
38980SOL     OW34549   7.264   3.710   0.915  0.7080 -0.3465  0.5307
38980SOL    HW134550   7.233   3.658   0.989 -4.2594  0.6951 -0.4079
38980SOL    HW234551   7.263   3.800   0.946 -0.1531 -0.0179 -0.3742
38981SOL     OW34552  12.487   9.900   6.842 -0.2333 -0.3791 -0.0376
38981SOL    HW134553  12.568   9.949   6.829 -1.2023  1.5423  0.7183
38981SOL    HW234554  12.437   9.916   6.762 -0.6577  0.1144  0.3182
38982SOL     OW34555  11.816   0.698  13.747 -0.0296 -0.2392  0.2273
38982SOL    HW134556  11.828   0.634  13.677 -0.2532 -0.1819  0.1382
38982SOL    HW234557  11.747   0.661  13.802 -0.2331 -0.0219  0.1163
38983SOL     OW34558   6.570  13.881  10.014  0.5583 -0.5060  0.0236
38983SOL    HW134559   6.490  13.856  10.059  1.3173  0.5831  2.1278
38983SOL    HW234560   6.607  13.951  10.068  1.7678  0.6324 -2.1198
38984SOL     OW34561   0.315   4.414   2.971 -0.3081 -0.2885  0.1048
38984SOL    HW134562   0.324   4.482   2.905  0.4130 -0.2426  0.2407
38984SOL    HW234563   0.266   4.344   2.927 -0.1472 -0.1118 -0.3593
38985SOL     OW34564   4.098   5.037   7.356 -0.9114  0.3547 -0.5021
38985SOL    HW134565   4.083   5.035   7.450 -1.9483 -1.9328 -0.6505
38985SOL    HW234566   4.055   5.118   7.327 -2.4878  0.0197  0.7365
38986SOL     OW34567   6.096   4.634   1.824  0.3447  0.0599  0.6018
38986SOL    HW134568   6.108   4.660   1.732  2.7229 -4.3007 -0.6204
38986SOL    HW234569   6.001   4.621   1.832  0.1733 -0.6385 -1.6885
38987SOL     OW34570   6.473   5.968   2.502  0.0610 -0.0987  0.1519
38987SOL    HW134571   6.432   5.906   2.442 -0.9611  1.0718 -0.3962
38987SOL    HW234572   6.505   6.038   2.446 -0.1322  0.5930  0.8943
38988SOL     OW34573   5.641   1.804  13.794 -0.0062  0.0667 -0.2664
38988SOL    HW134574   5.581   1.872  13.766 -1.3453 -0.2104  1.7071
38988SOL    HW234575   5.691   1.844  13.865 -1.0589 -1.0523  1.1640
38989SOL     OW34576   1.269  13.707  11.671 -0.0255  0.0491 -0.0002
38989SOL    HW134577   1.251  13.794  11.637  1.0358 -0.0503 -0.8965
38989SOL    HW234578   1.249  13.712  11.764 -1.6585  0.7411 -0.3663
38990SOL     OW34579   1.300   9.111   0.251 -0.1130  0.2375 -0.1250
38990SOL    HW134580   1.292   9.184   0.311  0.4695  0.7577 -0.6593
38990SOL    HW234581   1.391   9.082   0.260 -0.3865 -0.5490  0.2219
38991SOL     OW34582  12.714   7.691   8.339 -0.1269  0.2552 -0.3105
38991SOL    HW134583  12.759   7.609   8.356 -2.0024 -0.5567  1.1161
38991SOL    HW234584  12.778   7.759   8.361  0.8407 -0.8177  0.2931
38992SOL     OW34585   4.787   7.407   1.662  0.2464 -0.7634 -0.2895
38992SOL    HW134586   4.715   7.347   1.643  1.1064 -1.6060 -0.9488
38992SOL    HW234587   4.755   7.460   1.736 -2.2424  0.9745 -2.4351
38993SOL     OW34588   8.220  12.191  10.076 -0.0161  0.5571 -0.3753
38993SOL    HW134589   8.141  12.242  10.060  0.7054  2.5299  1.8433
38993SOL    HW234590   8.189  12.112  10.120 -0.8299  0.9812 -0.1710
38994SOL     OW34591  13.794  12.078   7.615 -0.4785 -0.1455  0.2542
38994SOL    HW134592  13.841  12.044   7.539 -0.3148  0.7621 -0.0670
38994SOL    HW234593  13.862  12.091   7.682 -0.3682  0.5085  0.0247
38995SOL     OW34594   4.327   2.446   2.130 -0.2201 -0.3738 -0.1692
38995SOL    HW134595   4.336   2.537   2.103 -2.3898 -0.2550 -0.6417
38995SOL    HW234596   4.389   2.398   2.074  2.3383  0.9391  1.3592
38996SOL     OW34597   4.507  12.400   3.638  0.1152  0.4171 -0.5137
38996SOL    HW134598   4.495  12.306   3.652 -0.6385  0.6992  0.8501
38996SOL    HW234599   4.554  12.406   3.554  1.6486 -1.2327  0.1678
38997SOL     OW34600   1.041   8.516  12.452 -0.5512 -0.2591 -0.1519
38997SOL    HW134601   1.003   8.599  12.423  1.8178  1.3895  1.0996
38997SOL    HW234602   1.126   8.513  12.408  0.3750 -0.8621  1.6131
38998SOL     OW34603   9.198   5.262   4.913 -0.7467  0.0693  0.7257
38998SOL    HW134604   9.129   5.246   4.849 -0.4553 -0.0095  0.4272
38998SOL    HW234605   9.203   5.181   4.963  1.1882 -1.1024 -1.2210
38999SOL     OW34606   4.401   3.273  13.158 -0.1600  0.3590 -0.1940
38999SOL    HW134607   4.496   3.265  13.163 -0.0962  1.2975  0.3521
38999SOL    HW234608   4.387   3.352  13.104 -0.5887  1.1767  1.0752
39000SOL     OW34609   8.397   7.501  13.415 -0.7522 -0.0598  0.2936
39000SOL    HW134610   8.454   7.541  13.349 -2.0496 -0.2120 -0.9743
39000SOL    HW234611   8.317   7.553  13.413 -0.7312  0.0762  1.9464
39001SOL     OW34612  10.662  12.977   3.029  0.2192  0.1800 -0.0165
39001SOL    HW134613  10.758  12.974   3.028  0.2622  1.3460 -0.7918
39001SOL    HW234614  10.637  12.947   2.942 -0.1005  0.3367  0.0223
39002SOL     OW34615   5.328   0.300   1.755  0.3560  0.1994 -0.6406
39002SOL    HW134616   5.238   0.332   1.747 -0.1869 -0.6024  1.6497
39002SOL    HW234617   5.322   0.206   1.738  0.3998 -0.1991  1.3799
39003SOL     OW34618   9.222   0.462  11.463  0.1372  0.0562  0.6901
39003SOL    HW134619   9.146   0.475  11.406  1.3008  0.0788 -0.9264
39003SOL    HW234620   9.213   0.530  11.530 -0.1220  1.5572 -0.7845
39004SOL     OW34621  10.064   2.344   6.055  0.0562 -0.0647  0.1130
39004SOL    HW134622   9.989   2.403   6.054  0.3627  0.3426  0.7240
39004SOL    HW234623  10.119   2.373   5.983 -1.0370 -1.2645 -1.2694
39005SOL     OW34624  10.538  11.189   5.240 -0.4143  0.1700 -0.2003
39005SOL    HW134625  10.499  11.202   5.154 -1.9233  1.1403  0.5764
39005SOL    HW234626  10.618  11.241   5.240 -0.9928  1.0826 -0.6541
39006SOL     OW34627  12.246   0.161  12.419 -0.1654 -0.1269 -0.0808
39006SOL    HW134628  12.189   0.165  12.496 -0.7534  1.2840 -0.5651
39006SOL    HW234629  12.278   0.250  12.409 -0.7542 -0.0929 -1.9647
39007SOL     OW34630  11.393  11.691   7.063 -0.6762 -0.1403 -0.0449
39007SOL    HW134631  11.373  11.772   7.017 -0.5508  0.0073  0.1577
39007SOL    HW234632  11.401  11.625   6.994 -1.1544 -0.0593 -0.1819
39008SOL     OW34633   7.061   3.025   1.394 -0.2918 -0.1588  0.0937
39008SOL    HW134634   7.045   3.096   1.332  3.3813  0.9525  0.2149
39008SOL    HW234635   7.114   2.962   1.346  0.5240 -0.4881  1.3737
39009SOL     OW34636  11.568  11.777   9.376  0.1781  0.1359  0.0257
39009SOL    HW134637  11.484  11.739   9.403  0.3209  0.8410  1.5782
39009SOL    HW234638  11.619  11.702   9.345 -0.3296 -0.6132  0.9401
39010SOL     OW34639  12.340   3.692  10.935  0.3249  0.4972  0.2392
39010SOL    HW134640  12.251   3.717  10.911  0.6147  1.9608  0.5619
39010SOL    HW234641  12.396   3.745  10.878  0.9890  0.7300  1.0897
39011SOL     OW34642   4.391  13.243  10.360 -0.1383 -0.1268  0.1288
39011SOL    HW134643   4.395  13.267  10.268  0.1717 -0.4968  0.0472
39011SOL    HW234644   4.398  13.327  10.406  0.9482 -0.0430 -0.1624
39012SOL     OW34645   3.353   5.832   5.350  0.2396 -0.1449  0.2978
39012SOL    HW134646   3.370   5.771   5.422 -2.1480 -1.5655 -0.2469
39012SOL    HW234647   3.356   5.777   5.271 -1.2759  0.5609 -0.2724
39013SOL     OW34648  13.500  13.115   8.906  0.9404 -0.0932 -0.3394
39013SOL    HW134649  13.593  13.139   8.910  0.7135  1.2336 -2.0310
39013SOL    HW234650  13.473  13.137   8.817 -1.4257  1.1752  0.6040
39014SOL     OW34651   7.875   2.575  12.135  0.6753 -0.1308 -0.1464
39014SOL    HW134652   7.935   2.530  12.076 -1.4079 -2.9579 -0.3537
39014SOL    HW234653   7.930   2.633  12.187  3.0753 -0.2592 -2.3587
39015SOL     OW34654   2.548   7.319   3.381  0.4461  0.0102 -0.0269
39015SOL    HW134655   2.621   7.257   3.392  0.3742 -0.0207  0.2916
39015SOL    HW234656   2.567   7.365   3.300  0.5157 -0.4141 -0.2503
39016SOL     OW34657  14.066   5.858   4.334  0.4011  0.8236 -0.5261
39016SOL    HW134658  13.993   5.817   4.288  1.5096 -1.1042 -0.6590
39016SOL    HW234659  14.138   5.858   4.270  1.1388  0.6650  0.2831
39017SOL     OW34660   6.043  13.513   7.899 -0.4933  0.0698 -0.0529
39017SOL    HW134661   5.989  13.434   7.892  0.9326 -0.8543 -1.1138
39017SOL    HW234662   6.017  13.567   7.825 -2.6219  1.4223  1.5499
39018SOL     OW34663   9.191   0.639   9.878  0.2366  0.1259  0.0262
39018SOL    HW134664   9.122   0.661   9.815 -0.6414 -1.1167  0.5186
39018SOL    HW234665   9.148   0.582   9.941  1.7287 -0.6906  0.3377
39019SOL     OW34666   1.882   2.516   6.761 -0.1281 -0.3591  0.1046
39019SOL    HW134667   1.968   2.556   6.751 -0.1513 -0.6655 -1.6942
39019SOL    HW234668   1.892   2.456   6.835  1.4724 -1.0230 -0.6028
39020SOL     OW34669  13.711   1.123   4.664  0.3864 -0.1567  0.1704
39020SOL    HW134670  13.655   1.058   4.707 -0.6353  0.2988 -0.4291
39020SOL    HW234671  13.789   1.073   4.637  0.7264 -0.5856  1.8707
39021SOL     OW34672   9.397  13.490   5.072 -0.1384 -0.1060 -0.4941
39021SOL    HW134673   9.415  13.416   5.130  0.2249  0.6788  0.4436
39021SOL    HW234674   9.483  13.520   5.044 -0.3423 -1.1342 -2.3579
39022SOL     OW34675  14.072  12.669   5.870  0.1068 -0.1580 -0.4588
39022SOL    HW134676  14.005  12.629   5.927  0.8694 -0.7009  0.0877
39022SOL    HW234677  14.086  12.604   5.801 -1.7546  1.0485 -2.0733
39023SOL     OW34678   8.381   6.520   9.913 -0.1466 -0.5467 -0.2575
39023SOL    HW134679   8.356   6.428   9.904 -2.2282  0.1346 -2.4810
39023SOL    HW234680   8.443   6.535   9.842  1.4077 -0.5614  1.0597
39024SOL     OW34681   9.801  12.012   1.894  0.2192 -0.4646  0.2846
39024SOL    HW134682   9.777  12.099   1.862 -0.5678 -0.1746  1.5848
39024SOL    HW234683   9.727  11.956   1.869  0.8391 -0.8445 -0.7797
39025SOL     OW34684  13.858   6.785   6.624  0.1823 -0.5216 -0.3904
39025SOL    HW134685  13.904   6.742   6.551  0.2479 -0.8158 -0.1793
39025SOL    HW234686  13.781   6.825   6.584  1.2158  0.9766 -0.9557
39026SOL     OW34687  12.036  12.077   1.579  0.2799  0.1059 -0.5525
39026SOL    HW134688  12.119  12.066   1.626 -0.6055 -1.1036  0.8038
39026SOL    HW234689  12.026  11.995   1.530 -1.3313 -0.9086  1.3517
39027SOL     OW34690   3.854   6.732   9.443 -0.0162  0.6778  0.2062
39027SOL    HW134691   3.825   6.642   9.430  1.8199  0.0468  0.1355
39027SOL    HW234692   3.850   6.745   9.538 -0.4038  0.5813  0.2063
39028SOL     OW34693   6.994  12.305   7.036 -0.3254  0.4122 -0.1380
39028SOL    HW134694   7.056  12.367   7.074 -0.4581  1.1331 -1.0661
39028SOL    HW234695   7.049  12.234   7.002 -0.0688  0.6247 -0.1705
39029SOL     OW34696   9.229  12.726   4.607 -0.2263  0.6420 -0.3671
39029SOL    HW134697   9.169  12.675   4.661  0.1511  0.9446  0.3570
39029SOL    HW234698   9.221  12.816   4.640  0.0156  0.8295 -0.8095
39030SOL     OW34699   8.893   1.281   9.453  0.0290 -0.0390  0.5498
39030SOL    HW134700   8.981   1.259   9.483  0.8571  2.4372  0.1892
39030SOL    HW234701   8.894   1.264   9.359  0.0911 -0.1027  0.5618
39031SOL     OW34702  10.739   1.056   9.345  0.0357  0.6074  0.6998
39031SOL    HW134703  10.815   1.076   9.290 -1.0621  1.7243 -0.5133
39031SOL    HW234704  10.760   1.096   9.429  1.1666  0.1091  0.6722
39032SOL     OW34705   1.957  13.844  13.388 -0.2398  0.1859 -0.4676
39032SOL    HW134706   2.040  13.866  13.347  0.2337  0.7329  0.7348
39032SOL    HW234707   1.895  13.909  13.354 -0.0338  0.1628 -0.8832
39033SOL     OW34708   7.676   3.118   1.854 -0.3422  0.0818  0.1383
39033SOL    HW134709   7.731   3.097   1.930 -1.5450  0.7768  1.2504
39033SOL    HW234710   7.640   3.034   1.826  0.0425 -0.1733  0.4074
39034SOL     OW34711  11.626   9.857   0.527 -0.5845  0.0016  0.2904
39034SOL    HW134712  11.692   9.855   0.458 -0.8062  2.7845 -0.1111
39034SOL    HW234713  11.677   9.851   0.608 -0.2315 -2.0307 -0.0278
39035SOL     OW34714   6.930   1.984   2.193  0.0219  0.2053 -0.3246
39035SOL    HW134715   6.844   1.966   2.233  0.1582  0.4911  0.1062
39035SOL    HW234716   6.975   1.900   2.194  0.9344  0.6358  2.3437
39036SOL     OW34717   4.026  10.599  14.032 -0.0259  0.0819  0.5532
39036SOL    HW134718   3.959  10.610  13.964  0.6101 -1.4785 -0.3831
39036SOL    HW234719   3.978  10.606  14.115 -0.7728  2.3179  0.0071
39037SOL     OW34720   5.884   0.528  11.140  0.6206  0.4533  0.2973
39037SOL    HW134721   5.940   0.535  11.063  1.0999  0.2161  0.6198
39037SOL    HW234722   5.804   0.488  11.107  0.5193  1.0768 -0.2242
39038SOL     OW34723   2.688   6.384   0.044  0.1497 -0.0646  0.1197
39038SOL    HW134724   2.763   6.348   0.091  1.5640  0.6165 -1.5272
39038SOL    HW234725   2.686   6.476   0.070 -0.8662 -0.3179  1.0388
39039SOL     OW34726   3.318  10.802   7.424  0.1892  0.5852 -0.1304
39039SOL    HW134727   3.373  10.839   7.493  0.9049  0.3393 -0.5621
39039SOL    HW234728   3.341  10.852   7.345 -0.0525  0.3418 -0.3587
39040SOL     OW34729   8.543  10.092   5.052  0.0314 -0.5935 -0.9709
39040SOL    HW134730   8.457  10.052   5.066 -0.3603  0.3802 -0.5131
39040SOL    HW234731   8.566  10.130   5.136  0.9578 -0.9099 -1.0723
39041SOL     OW34732  12.423  11.538  14.063  0.7763 -0.1635 -0.4610
39041SOL    HW134733  12.454  11.449  14.048  1.0840 -0.4764  1.7112
39041SOL    HW234734  12.396  11.539  14.155 -1.1244  1.4474 -0.9652
39042SOL     OW34735   9.945  12.533   0.121 -0.1134 -0.0390  0.3362
39042SOL    HW134736   9.955  12.627   0.128 -0.3447 -0.0433  0.7264
39042SOL    HW234737   9.982  12.498   0.202 -0.3741 -0.2553  0.3648
39043SOL     OW34738   1.400   7.644   1.735 -0.0989  0.0765 -0.1162
39043SOL    HW134739   1.445   7.658   1.819 -0.8626 -0.5570  0.4236
39043SOL    HW234740   1.311   7.675   1.750  0.0901  1.1803 -1.1271
39044SOL     OW34741   7.102   4.789   4.618  0.3145 -0.1110 -0.0265
39044SOL    HW134742   7.117   4.736   4.696  0.2023  1.1233  0.8668
39044SOL    HW234743   7.008   4.782   4.602  0.6825 -2.5547 -1.7280
39045SOL     OW34744   5.092   0.804   8.268 -0.2556  0.2693 -0.1067
39045SOL    HW134745   5.184   0.781   8.251 -0.3796 -1.0310  0.8629
39045SOL    HW234746   5.096   0.889   8.312  0.4942  0.1838  0.0031
39046SOL     OW34747   4.172   6.816  13.783  0.5556 -0.0721 -0.1243
39046SOL    HW134748   4.241   6.808  13.848  0.8190  1.5744 -0.1634
39046SOL    HW234749   4.135   6.728  13.777  1.8102 -0.6974  0.8067
39047SOL     OW34750  11.909  11.720   2.770 -0.1486 -0.2391  0.2891
39047SOL    HW134751  11.905  11.672   2.687  0.4679 -1.3696  0.8915
39047SOL    HW234752  11.948  11.658   2.832  0.3209  0.9156  1.1934
39048SOL     OW34753   5.531  10.862  11.417 -0.7216  0.7947 -0.0781
39048SOL    HW134754   5.494  10.939  11.461 -2.6941 -0.5647  0.8388
39048SOL    HW234755   5.509  10.875  11.325 -2.8081  0.4757  0.3220
39049SOL     OW34756   0.761  12.013  11.478 -0.4805 -0.7475  0.2212
39049SOL    HW134757   0.849  12.028  11.444  0.2298 -1.1159  1.8061
39049SOL    HW234758   0.771  11.942  11.541 -2.2491 -2.0021 -0.8125
39050SOL     OW34759   2.407   1.573   0.628  0.0841 -1.0138 -0.1857
39050SOL    HW134760   2.369   1.491   0.594  2.6535 -2.3654 -0.0839
39050SOL    HW234761   2.497   1.549   0.652  0.8132  1.7865  0.2018
39051SOL     OW34762   2.349   4.652   4.686  0.6515  0.1688 -0.5338
39051SOL    HW134763   2.372   4.716   4.754  2.1046 -0.2374 -0.6000
39051SOL    HW234764   2.318   4.705   4.613 -0.2320  0.6560  0.1597
39052SOL     OW34765  12.514   1.980  14.006 -0.1967  0.0544 -0.3198
39052SOL    HW134766  12.501   1.972  13.911 -2.1916 -0.1287 -0.0751
39052SOL    HW234767  12.591   1.926  14.024 -0.0200 -0.2244 -1.7801
39053SOL     OW34768   8.906   3.358  10.220  0.3500 -0.4240  0.8488
39053SOL    HW134769   8.874   3.437  10.264  0.0385 -0.1883  0.1998
39053SOL    HW234770   8.965   3.318  10.284 -0.3885 -0.2855  1.6416
39054SOL     OW34771   4.823   8.031   2.271 -0.2735  0.1187  0.4668
39054SOL    HW134772   4.873   7.951   2.287  0.7364  0.8145  0.8933
39054SOL    HW234773   4.758   8.033   2.342  1.0836  0.7309  1.7537
39055SOL     OW34774  11.375  13.087   9.673  0.1453 -0.2070 -0.4114
39055SOL    HW134775  11.305  13.114   9.614 -0.3685 -2.3531 -0.8794
39055SOL    HW234776  11.433  13.034   9.619  1.2858  0.2144  0.3589
39056SOL     OW34777  10.731   8.242   0.437 -0.2726 -0.7742 -0.2850
39056SOL    HW134778  10.804   8.300   0.416  1.1695 -1.9271  1.3088
39056SOL    HW234779  10.711   8.260   0.529 -1.7572 -0.7665 -0.5815
39057SOL     OW34780  10.218   7.107   3.514 -0.1463  0.1364  0.0030
39057SOL    HW134781  10.143   7.104   3.573 -0.3223 -0.9479 -0.2712
39057SOL    HW234782  10.193   7.053   3.440 -0.2560  2.1216 -1.4878
39058SOL     OW34783   9.858   3.529  10.683 -0.5412 -0.5435  0.3878
39058SOL    HW134784   9.947   3.557  10.706 -1.3797  0.2134  3.0295
39058SOL    HW234785   9.812   3.521  10.766 -2.4739 -2.7880 -0.7621
39059SOL     OW34786   4.274   2.919   1.241  0.0398  0.2125  0.2134
39059SOL    HW134787   4.274   2.912   1.336 -0.2095 -0.9634  0.1332
39059SOL    HW234788   4.305   3.008   1.224  1.5076 -0.0505  1.3465
39060SOL     OW34789  10.723   6.155   2.960  0.7774 -0.0046 -0.2590
39060SOL    HW134790  10.775   6.140   2.881  1.4754 -1.4151  0.4408
39060SOL    HW234791  10.788   6.168   3.030  0.2192 -1.0588  0.4932
39061SOL     OW34792   0.483   3.788  11.754  0.2843 -0.4505 -0.1576
39061SOL    HW134793   0.499   3.810  11.662 -1.4966 -1.5237 -0.7798
39061SOL    HW234794   0.469   3.873  11.796  0.3281  0.0154 -1.0440
39062SOL     OW34795  11.471   3.442   1.288 -0.7742  0.3866 -0.6856
39062SOL    HW134796  11.503   3.353   1.275 -1.6139  0.1335 -1.0706
39062SOL    HW234797  11.467   3.452   1.383  1.2734  0.7475 -0.5765
39063SOL     OW34798   0.451   2.397   8.849  0.3439 -0.4021  0.2387
39063SOL    HW134799   0.433   2.490   8.865  0.7493 -0.5426  1.6125
39063SOL    HW234800   0.407   2.378   8.766 -1.5520  0.4868  1.0060
39064SOL     OW34801  11.555  11.078   9.738  0.0819  0.0141 -0.0735
39064SOL    HW134802  11.474  11.112   9.699 -0.6969 -3.2382 -1.6806
39064SOL    HW234803  11.619  11.081   9.667  0.4329 -0.3149  0.2239
39065SOL     OW34804  13.297   4.711  13.176  0.5758  0.0426  0.4066
39065SOL    HW134805  13.238   4.675  13.242  2.4461 -2.5313  0.8382
39065SOL    HW234806  13.245   4.712  13.096  0.0926 -2.9236  0.5763
39066SOL     OW34807   2.515   2.274   4.749 -0.1950  0.0950  0.0929
39066SOL    HW134808   2.439   2.276   4.808 -0.0617 -0.4776  0.2878
39066SOL    HW234809   2.482   2.232   4.669  0.3440 -1.8023  0.8153
39067SOL     OW34810  10.470  12.897   5.645  0.5431 -0.3308 -0.2456
39067SOL    HW134811  10.540  12.886   5.581  1.2865  0.0087  0.4898
39067SOL    HW234812  10.446  12.989   5.639  1.0794 -0.1403  0.4213
39068SOL     OW34813   3.136  13.421   3.417  0.7790  0.0484  0.2030
39068SOL    HW134814   3.149  13.407   3.324 -0.8340  0.9048 -0.1752
39068SOL    HW234815   3.211  13.475   3.444  1.7263 -0.9366 -0.3805
39069SOL     OW34816   9.184   1.352   0.169  0.3589 -0.9739 -0.5009
39069SOL    HW134817   9.246   1.342   0.240  0.4033 -1.1400 -0.5640
39069SOL    HW234818   9.098   1.354   0.211  0.3169 -2.0151 -0.5251
39070SOL     OW34819   1.744  13.460   3.578  1.1916  0.2185  0.2463
39070SOL    HW134820   1.686  13.390   3.550  1.1170  0.1288  0.6179
39070SOL    HW234821   1.725  13.532   3.519  1.2849 -0.0798 -0.1551
39071SOL     OW34822   2.833   3.520   7.557 -0.3416 -0.6495 -0.2340
39071SOL    HW134823   2.806   3.428   7.559 -0.4409 -0.6107  0.4682
39071SOL    HW234824   2.893   3.526   7.482 -0.0880 -1.3522 -0.0941
39072SOL     OW34825   5.168  13.072  10.457 -0.2418  0.5268 -0.3283
39072SOL    HW134826   5.131  13.102  10.540 -0.8948 -1.0021 -0.0375
39072SOL    HW234827   5.135  13.134  10.392 -0.0210  1.5244  0.4834
39073SOL     OW34828   5.462   1.354   0.824 -0.4557  0.1580 -0.2185
39073SOL    HW134829   5.410   1.406   0.886 -0.6446  0.3621 -0.5448
39073SOL    HW234830   5.488   1.277   0.874 -1.0353  0.0751 -0.0275
39074SOL     OW34831   9.573   2.539  12.578 -0.4522 -0.4989  0.5268
39074SOL    HW134832   9.534   2.508  12.496  0.6468  0.7448 -0.5035
39074SOL    HW234833   9.608   2.460  12.619 -2.9865 -1.4934  0.9520
39075SOL     OW34834   3.694   2.795   8.908  0.9903  0.2926  0.3823
39075SOL    HW134835   3.764   2.847   8.948 -0.3226  2.2435  0.2625
39075SOL    HW234836   3.649   2.855   8.850 -0.0320 -1.2636 -0.5206
39076SOL     OW34837  12.537   7.508   9.103 -0.7019  0.5331  0.4073
39076SOL    HW134838  12.629   7.525   9.083 -0.7728  0.3709 -0.0686
39076SOL    HW234839  12.521   7.554   9.185  0.0638 -0.2391  1.0093
39077SOL     OW34840   3.751   7.132   6.184 -0.0734 -0.4786 -0.6900
39077SOL    HW134841   3.675   7.092   6.226 -0.8489  0.8641 -0.7618
39077SOL    HW234842   3.825   7.079   6.214 -0.5127  0.5734  2.6526
39078SOL     OW34843   1.200   6.773   5.003 -0.0431  0.0249  0.4989
39078SOL    HW134844   1.274   6.797   4.947 -0.2768 -0.9585 -0.2460
39078SOL    HW234845   1.153   6.855   5.016  0.5856  0.4601  0.1020
39079SOL     OW34846   5.153   8.813  11.881  0.7264  0.6447  0.1034
39079SOL    HW134847   5.118   8.825  11.793  1.6498  1.7806 -0.1281
39079SOL    HW234848   5.156   8.902  11.918  0.9669  0.2590  1.0392
39080SOL     OW34849   0.808  10.205   2.354 -0.3091  0.6519 -0.0411
39080SOL    HW134850   0.838  10.296   2.359 -1.0656  0.8406  1.6862
39080SOL    HW234851   0.780  10.184   2.443 -0.9287 -1.0126 -0.5947
39081SOL     OW34852  12.995   9.996   7.302  0.1897 -0.2529 -0.4082
39081SOL    HW134853  12.907  10.001   7.338  0.9520  1.9677  1.4274
39081SOL    HW234854  13.052  10.002   7.379  1.9588 -0.7902 -1.6060
39082SOL     OW34855  12.226   7.291   7.128  0.0857  0.3213  0.4084
39082SOL    HW134856  12.227   7.235   7.051 -5.0382  0.6700 -0.2601
39082SOL    HW234857  12.249   7.378   7.094  1.3838 -0.1066  0.1122
39083SOL     OW34858  12.752   2.394  12.912 -0.1550  0.7744  0.4015
39083SOL    HW134859  12.745   2.331  12.840  0.5147 -1.1133  1.9227
39083SOL    HW234860  12.765   2.341  12.990 -0.4464  2.7806  1.9015
39084SOL     OW34861   0.002   8.483   4.839  0.3492  0.3887  0.4926
39084SOL    HW134862   0.045   8.539   4.904 -2.1351  1.3485  1.4181
39084SOL    HW234863  -0.007   8.538   4.761  2.3615 -0.4221 -0.3894
39085SOL     OW34864   1.030   0.538   4.759  0.4048 -0.4466 -0.5890
39085SOL    HW134865   1.111   0.587   4.773 -0.1057  0.0194  0.9904
39085SOL    HW234866   1.039   0.461   4.814  1.0048 -1.9837 -2.7098
39086SOL     OW34867  11.157   5.094   3.057  0.1129 -0.2480 -0.4902
39086SOL    HW134868  11.094   5.161   3.030  0.8514  0.4675 -0.4518
39086SOL    HW234869  11.166   5.037   2.981 -1.1513 -0.8199 -0.2506
39087SOL     OW34870   0.245  11.229   7.666 -0.2284 -0.6849 -0.5677
39087SOL    HW134871   0.232  11.297   7.600 -0.0855  0.0241  0.1274
39087SOL    HW234872   0.333  11.195   7.648 -0.7110 -1.4337 -1.5833
39088SOL     OW34873   3.533   0.422  11.409 -0.0405  0.0030 -1.2841
39088SOL    HW134874   3.621   0.434  11.446 -1.8596  0.1018  3.7711
39088SOL    HW234875   3.505   0.511  11.385 -0.1754  0.6727  1.1180
39089SOL     OW34876  13.849   3.251  13.919  0.8597  0.1832 -0.1379
39089SOL    HW134877  13.775   3.202  13.882  1.8448 -1.9868  0.5758
39089SOL    HW234878  13.811   3.335  13.945 -1.1056 -0.4193 -0.8099
39090SOL     OW34879   5.306   0.008   8.652  0.1244 -0.0265 -0.0840
39090SOL    HW134880   5.355   0.090   8.653 -1.6089  1.0783  0.8118
39090SOL    HW234881   5.326  -0.033   8.737 -0.0309  0.1319  0.0306
39091SOL     OW34882   7.640   2.060   7.031  0.1533  0.4718  0.0535
39091SOL    HW134883   7.733   2.065   7.013  0.5298 -2.3196  0.7115
39091SOL    HW234884   7.599   2.062   6.944  0.9767 -0.1736 -0.3622
39092SOL     OW34885   7.989   3.618   4.695  0.3590  0.5069 -0.6417
39092SOL    HW134886   8.082   3.600   4.702  0.7861  2.2000 -1.4272
39092SOL    HW234887   7.958   3.619   4.785  1.1986  0.4163 -0.3426
39093SOL     OW34888  13.221   8.203   2.873  0.3207  0.5186  0.6750
39093SOL    HW134889  13.188   8.142   2.808  1.4863  0.7647 -0.1788
39093SOL    HW234890  13.153   8.206   2.940 -0.8665  0.1883 -0.4797
39094SOL     OW34891  11.692   1.291   1.133  0.5380  0.9271  0.2666
39094SOL    HW134892  11.629   1.276   1.063  1.0801  1.2937 -0.3030
39094SOL    HW234893  11.644   1.268   1.213  0.1546 -0.2065 -0.2661
39095SOL     OW34894   1.650   2.540  13.456  0.9985 -0.0324 -0.1330
39095SOL    HW134895   1.586   2.510  13.520 -0.3391  0.5748 -1.1454
39095SOL    HW234896   1.613   2.515  13.371  1.4763  1.4555 -0.8047
39096SOL     OW34897   3.476  11.202   4.378  0.0452 -0.2666  0.4037
39096SOL    HW134898   3.432  11.286   4.386  1.8232  0.7873 -0.2627
39096SOL    HW234899   3.539  11.214   4.306  0.6482 -2.0293  0.5679
39097SOL     OW34900   0.367  13.563  12.654 -0.3243  0.4235 -0.1299
39097SOL    HW134901   0.332  13.474  12.648 -0.9869  0.4386  2.3187
39097SOL    HW234902   0.446  13.562  12.601 -0.1288 -1.7405  0.1387
39098SOL     OW34903  13.466  12.015   2.222  0.1797 -0.3940  0.1801
39098SOL    HW134904  13.508  12.087   2.268 -0.9052 -0.2279  0.9547
39098SOL    HW234905  13.527  11.942   2.229  0.6121  0.0181  0.7237
39099SOL     OW34906   0.659   2.842   4.347  0.1670 -0.1036  0.0058
39099SOL    HW134907   0.691   2.774   4.407  1.7212 -0.7454 -1.4743
39099SOL    HW234908   0.701   2.923   4.378  1.2166 -0.4859 -0.3724
39100SOL     OW34909  12.644   6.759   2.158 -0.1439 -0.4957  0.8589
39100SOL    HW134910  12.569   6.816   2.172 -1.1800 -1.2023 -1.4424
39100SOL    HW234911  12.678   6.783   2.072 -0.2809 -2.9105  0.0471
39101SOL     OW34912   3.579   5.493   7.588 -0.4350 -0.9299 -0.0813
39101SOL    HW134913   3.537   5.498   7.502 -0.0023 -1.1113 -0.3069
39101SOL    HW234914   3.613   5.404   7.592  0.4136 -0.6148 -0.1370
39102SOL     OW34915  11.226  11.530   9.182  0.3372  0.3244  0.1780
39102SOL    HW134916  11.226  11.527   9.087  0.6991  0.5167  0.1687
39102SOL    HW234917  11.144  11.574   9.205  0.8473  1.4586 -0.0914
39103SOL     OW34918  13.044   5.079  13.099  0.1026 -0.1649 -0.0529
39103SOL    HW134919  12.988   5.002  13.083  1.3081 -0.9354 -0.6967
39103SOL    HW234920  13.047   5.086  13.195 -2.0146  0.6190  0.0210
39104SOL     OW34921   5.891   4.925   3.655  0.0781  0.0753  0.4218
39104SOL    HW134922   5.892   4.921   3.750 -1.4594 -0.6768  0.4412
39104SOL    HW234923   5.909   4.835   3.627  0.0800  0.1982  0.0128
39105SOL     OW34924  11.449   9.815   6.027  0.9430 -0.4403 -0.3052
39105SOL    HW134925  11.366   9.859   6.041  1.6818  0.7341  0.5755
39105SOL    HW234926  11.494   9.819   6.111  1.7021 -1.4859 -0.6290
39106SOL     OW34927   9.493   4.432  12.759  0.2373 -0.2965 -0.1309
39106SOL    HW134928   9.536   4.500  12.811  0.6237 -1.7656  1.5933
39106SOL    HW234929   9.400   4.438  12.784  0.1711  0.0056 -0.4539
39107SOL     OW34930  10.067   2.438   6.953  0.3162  0.0353  0.2708
39107SOL    HW134931  10.052   2.508   7.017 -0.5586  1.7085 -1.6428
39107SOL    HW234932  10.160   2.444   6.932 -0.0011  1.6243 -0.8774
39108SOL     OW34933   1.294  13.782   5.869  0.5708  0.0554 -0.1758
39108SOL    HW134934   1.244  13.712   5.910 -0.9568  2.0179  1.5758
39108SOL    HW234935   1.385  13.756   5.880  0.0370 -2.0479 -0.4114
39109SOL     OW34936  12.945  10.599   2.185  0.0340 -0.5297 -0.3830
39109SOL    HW134937  12.875  10.534   2.182  0.5035 -1.0870  0.4493
39109SOL    HW234938  13.002  10.576   2.111  0.2735 -1.1638 -0.0103
39110SOL     OW34939  13.437   4.450   4.429  0.2364  0.3470 -0.1009
39110SOL    HW134940  13.492   4.482   4.500 -0.1888  1.6237 -0.3220
39110SOL    HW234941  13.352   4.493   4.443 -0.5353 -1.1236 -0.1080
39111SOL     OW34942  12.309   9.563   5.072  0.2175  0.1216  0.2124
39111SOL    HW134943  12.349   9.484   5.036  1.7138  1.2059 -0.6115
39111SOL    HW234944  12.356   9.578   5.154 -1.2160 -0.7230  1.2494
39112SOL     OW34945   9.481   7.126   2.420 -0.1485  0.1844  0.4515
39112SOL    HW134946   9.538   7.065   2.465  1.2051 -0.1861 -1.6443
39112SOL    HW234947   9.531   7.208   2.416 -0.1487  0.1534 -0.5018
39113SOL     OW34948   4.982  11.344   5.203  0.5007  0.1161 -0.1673
39113SOL    HW134949   4.908  11.399   5.230 -0.0893  0.4978 -2.3762
39113SOL    HW234950   4.965  11.260   5.247  0.3345  1.0396  1.6388
39114SOL     OW34951  10.632   6.234   7.456  0.3390  0.2783  0.1575
39114SOL    HW134952  10.586   6.167   7.405  1.6484 -0.5592  0.0161
39114SOL    HW234953  10.594   6.228   7.543 -0.6546  0.4520 -0.2514
39115SOL     OW34954  10.954  13.660   9.258 -0.0291 -0.1500  0.2592
39115SOL    HW134955  11.015  13.594   9.290  2.5302  1.8633 -0.0689
39115SOL    HW234956  10.880  13.656   9.318  0.8973 -2.0036  1.3686
39116SOL     OW34957  12.227   0.536   0.291  0.1957  0.2874 -0.1490
39116SOL    HW134958  12.229   0.607   0.355  0.7148 -0.9293  1.2533
39116SOL    HW234959  12.311   0.491   0.302  0.7974  0.7160 -2.5233
39117SOL     OW34960  11.022   6.222   5.611 -0.1694  0.1599 -0.9317
39117SOL    HW134961  11.104   6.176   5.627  0.6046  1.4606 -1.0461
39117SOL    HW234962  10.999   6.262   5.695  0.2960  1.3149 -1.3371
39118SOL     OW34963  13.993   1.488   5.900  0.3895  0.1531  0.0820
39118SOL    HW134964  13.961   1.405   5.936  0.2132 -0.1585 -0.7723
39118SOL    HW234965  14.077   1.465   5.859 -0.5847 -0.0476 -1.9141
39119SOL     OW34966  11.937   5.000  11.110 -0.0085  0.0029  0.7964
39119SOL    HW134967  11.959   5.087  11.079  0.0527  0.2797  1.5838
39119SOL    HW234968  11.906   5.013  11.200 -0.7371 -0.6979  0.6661
39120SOL     OW34969  13.068   1.960   3.977  0.1053  0.0325 -0.5185
39120SOL    HW134970  13.006   2.026   3.946 -1.1693 -0.1777  1.4533
39120SOL    HW234971  13.154   1.993   3.949 -0.6982  1.4132 -1.4388
39121SOL     OW34972   3.855  11.409   0.211  0.1822  0.1691 -0.4465
39121SOL    HW134973   3.767  11.443   0.231  0.4135  0.7289 -0.3551
39121SOL    HW234974   3.904  11.486   0.183  1.3401  0.3494  1.8245
39122SOL     OW34975   3.966  12.200  10.828 -0.4208 -0.0982  0.0909
39122SOL    HW134976   3.993  12.200  10.920  0.2785  1.8377 -0.0758
39122SOL    HW234977   3.981  12.110  10.799 -3.1281 -1.5201  2.4992
39123SOL     OW34978   9.133   2.961   5.382  0.3269  0.0239 -0.0391
39123SOL    HW134979   9.059   2.958   5.442  0.1909 -0.7115 -0.2413
39123SOL    HW234980   9.111   3.032   5.321 -0.5464 -0.6336 -0.5216
39124SOL     OW34981  13.263   6.908   9.327  0.3502 -0.1252  0.2965
39124SOL    HW134982  13.245   6.862   9.245 -1.2196 -0.3930  0.7655
39124SOL    HW234983  13.182   6.901   9.377  0.9858  0.8136  1.5101
39125SOL     OW34984   1.317  11.812  11.167  0.1098  0.3681  0.4808
39125SOL    HW134985   1.403  11.851  11.181  0.8856 -1.3020  0.5023
39125SOL    HW234986   1.294  11.772  11.251  0.8447 -2.0604 -0.4032
39126SOL     OW34987   8.952   7.901   8.413  0.1500  0.3775  0.4119
39126SOL    HW134988   8.906   7.871   8.334 -2.0104 -1.1987  2.1207
39126SOL    HW234989   9.045   7.893   8.392 -0.3643 -1.4873 -1.4445
39127SOL     OW34990   2.112   6.399  13.930  0.0927  0.8874  0.0040
39127SOL    HW134991   2.027   6.434  13.957  0.5102  2.0622 -0.1436
39127SOL    HW234992   2.171   6.424  14.001  0.8294  2.3756 -1.0886
39128SOL     OW34993   0.126  14.029  12.488 -0.3899 -0.1795 -0.7240
39128SOL    HW134994   0.136  14.071  12.573 -1.9121 -0.4691 -0.3732
39128SOL    HW234995   0.154  13.938  12.503 -0.6490 -0.2284 -0.5244
39129SOL     OW34996   9.684   4.616  11.961  0.2316 -0.0300 -0.2117
39129SOL    HW134997   9.650   4.605  11.872  1.1577  1.5283 -0.8019
39129SOL    HW234998   9.755   4.551  11.967  0.3857  0.0793 -0.7337
39130SOL     OW34999   5.163   0.485   8.117  0.2545 -0.2287  0.5967
39130SOL    HW135000   5.182   0.397   8.149 -1.3266 -0.8637 -0.0909
39130SOL    HW235001   5.068   0.494   8.127 -0.6037 -0.7653 -4.2231
39131SOL     OW35002   3.697   4.583   7.587  0.2757  0.5118  0.4384
39131SOL    HW135003   3.776   4.529   7.588  0.5227  0.7983 -1.4443
39131SOL    HW235004   3.644   4.547   7.516  0.0120  2.1136 -0.2231
39132SOL     OW35005  11.158   3.469  10.075  0.0692 -0.1553  0.1982
39132SOL    HW135006  11.133   3.476  10.168  3.3089 -1.4663  1.3128
39132SOL    HW235007  11.105   3.396  10.041 -0.3695 -0.3771  1.3058
39133SOL     OW35008  13.295  10.025   5.865  0.4298 -0.6794  0.0525
39133SOL    HW135009  13.306  10.120   5.877  1.2258 -0.7266 -0.1902
39133SOL    HW235010  13.205  10.007   5.890 -1.0058  0.7343 -3.4024
39134SOL     OW35011   0.644   8.465   4.266 -0.1057  0.7541  0.1783
39134SOL    HW135012   0.560   8.501   4.237 -0.5067 -0.6626 -0.5390
39134SOL    HW235013   0.694   8.453   4.186 -0.4943 -1.4319  0.1983
39135SOL     OW35014   2.333   2.436   7.380  0.1308  0.0119  0.1026
39135SOL    HW135015   2.335   2.375   7.454 -0.8742  0.1052  0.2141
39135SOL    HW235016   2.387   2.394   7.313  0.9143 -0.1544  0.8179
39136SOL     OW35017   2.043  10.521  12.303  0.1085 -0.2304 -0.0593
39136SOL    HW135018   1.968  10.492  12.355 -0.7127  0.7085 -0.6917
39136SOL    HW235019   2.082  10.592  12.354  1.2567 -1.4128  0.7926
39137SOL     OW35020   3.184   1.043   4.153  0.6571  0.6569  0.0657
39137SOL    HW135021   3.177   0.970   4.214 -1.3770  0.8281  0.0778
39137SOL    HW235022   3.252   1.015   4.091  1.0757 -0.5210  1.0189
39138SOL     OW35023   2.837   0.303  12.916  0.4943  0.0241 -0.1954
39138SOL    HW135024   2.918   0.291  12.866  0.9670 -1.4355  0.8258
39138SOL    HW235025   2.780   0.232  12.886  0.0083  0.3790 -0.1209
39139SOL     OW35026   2.221   3.700   6.409 -0.2220 -0.1683 -0.4231
39139SOL    HW135027   2.214   3.615   6.366  0.9142 -0.6113  0.2093
39139SOL    HW235028   2.248   3.760   6.340 -0.0076 -0.5397 -0.6673
39140SOL     OW35029   1.543  11.068  12.645  0.3237  0.6459 -0.2335
39140SOL    HW135030   1.635  11.045  12.631  0.5735  0.9989  0.7411
39140SOL    HW235031   1.542  11.164  12.650 -0.2570  0.7076 -1.2500
39141SOL     OW35032  13.582   2.905   9.842 -0.5276  0.0868 -0.0998
39141SOL    HW135033  13.626   2.987   9.862  0.8277 -0.3163 -1.3115
39141SOL    HW235034  13.531   2.923   9.763 -2.9890  0.6680  1.5121
39142SOL     OW35035  11.604   0.893   9.729  0.4879 -0.1324  0.2488
39142SOL    HW135036  11.642   0.835   9.794  0.3234 -0.8403 -0.2670
39142SOL    HW235037  11.553   0.956   9.779 -0.4094 -1.2375  0.7721
39143SOL     OW35038   0.387   7.449  12.581 -0.4180 -0.0020  0.7489
39143SOL    HW135039   0.398   7.474  12.673 -0.3289  0.6490  0.5681
39143SOL    HW235040   0.345   7.526  12.541 -0.8940 -0.4650  0.3494
39144SOL     OW35041   2.095   7.686   8.033 -0.0844  0.0229  0.4611
39144SOL    HW135042   2.165   7.670   8.097  1.1301 -0.2321 -0.8854
39144SOL    HW235043   2.141   7.710   7.953 -1.5959  0.8201 -0.2034
39145SOL     OW35044  12.750   7.668   5.148  0.2240 -0.0256  0.0795
39145SOL    HW135045  12.799   7.610   5.089 -0.8943  0.5442 -1.4935
39145SOL    HW235046  12.809   7.683   5.221  1.0220 -2.1354 -0.0561
39146SOL     OW35047   2.726   2.890   5.300  0.2402 -0.5197  0.0835
39146SOL    HW135048   2.721   2.935   5.215 -0.6252 -0.5727  0.0925
39146SOL    HW235049   2.690   2.952   5.362  0.4741 -0.6463  0.3466
39147SOL     OW35050   1.676   8.926   7.948 -0.7043 -0.7687 -0.1398
39147SOL    HW135051   1.713   9.014   7.953 -0.0208 -1.1039  2.6421
39147SOL    HW235052   1.694   8.897   7.859  0.5588  1.2707 -0.6060
39148SOL     OW35053   1.402  13.088   2.858 -0.3746  0.7333 -0.0253
39148SOL    HW135054   1.475  13.041   2.819  0.6802  0.6747  1.9053
39148SOL    HW235055   1.387  13.045   2.942 -1.8731  1.4931  0.1367
39149SOL     OW35056   3.114  11.926   2.795  0.5893  0.3175  0.7293
39149SOL    HW135057   3.152  11.930   2.707 -1.9973 -0.8353 -0.5576
39149SOL    HW235058   3.042  11.989   2.792 -1.0122 -1.4270  1.1924
39150SOL     OW35059  10.650   7.304   5.457 -0.7037  0.0483 -0.5510
39150SOL    HW135060  10.567   7.346   5.482 -1.8140 -2.0824 -0.4163
39150SOL    HW235061  10.655   7.227   5.514  0.6552 -0.6389 -1.5672
39151SOL     OW35062   0.076   3.657  12.490  0.2349  0.3695 -0.0158
39151SOL    HW135063   0.025   3.676  12.411 -0.7090  1.4720  0.8192
39151SOL    HW235064   0.049   3.724  12.552  0.7538 -0.6386  1.3451
39152SOL     OW35065   3.781   1.585   8.280 -0.7141  0.4395 -0.1187
39152SOL    HW135066   3.862   1.626   8.309 -1.5870  1.1823  1.3782
39152SOL    HW235067   3.731   1.655   8.239 -0.8716  0.1197 -0.4888
39153SOL     OW35068   3.551   4.078   7.365 -0.1015 -0.2199 -0.2676
39153SOL    HW135069   3.602   4.156   7.387 -1.2880  0.7748 -0.9683
39153SOL    HW235070   3.613   4.022   7.318  1.1292 -0.3254  1.3723
39154SOL     OW35071   0.295   7.181   3.107  0.2119 -0.1840 -0.2323
39154SOL    HW135072   0.351   7.239   3.158 -0.6620  0.7386 -0.2970
39154SOL    HW235073   0.350   7.151   3.035  0.8603  0.0524  0.1568
39155SOL     OW35074   8.170   3.115  13.776  0.1215  0.1114  0.0952
39155SOL    HW135075   8.194   3.080  13.863  0.7399 -0.7591 -0.4087
39155SOL    HW235076   8.074   3.121  13.779  0.1518  0.4057  0.9511
39156SOL     OW35077  14.061  12.533   2.230 -0.1287 -0.0219 -0.2312
39156SOL    HW135078  13.984  12.530   2.286 -1.5825  1.1581 -2.0731
39156SOL    HW235079  14.089  12.442   2.222 -0.0650 -0.2604  2.0892
39157SOL     OW35080   7.954   6.538   3.910 -0.2479  0.1920  0.0664
39157SOL    HW135081   8.045   6.514   3.929 -0.5473  0.1598  1.5805
39157SOL    HW235082   7.907   6.454   3.906  0.0107  0.0846 -2.2622
39158SOL     OW35083  10.593   1.473   2.934 -0.2910  0.2620 -0.2401
39158SOL    HW135084  10.554   1.443   2.852 -2.4738  0.0480  0.7949
39158SOL    HW235085  10.593   1.569   2.928 -2.4315  0.3398  0.2938
39159SOL     OW35086   6.161   1.944   4.263 -0.0351 -0.3485 -0.4460
39159SOL    HW135087   6.109   1.918   4.187  2.4932 -0.5235 -2.2400
39159SOL    HW235088   6.140   1.878   4.329 -0.6192 -1.5701 -1.7712
39160SOL     OW35089   8.633   6.234   3.765 -0.1102  0.2304 -0.1519
39160SOL    HW135090   8.715   6.260   3.723 -0.6772 -0.5624 -1.8302
39160SOL    HW235091   8.637   6.275   3.851  2.0166  0.2551 -0.2003
39161SOL     OW35092   9.411   3.600   9.059  0.0046  0.2109 -0.0014
39161SOL    HW135093   9.415   3.675   9.119 -0.0986 -0.7941  1.2967
39161SOL    HW235094   9.476   3.539   9.093  1.0120  0.2201 -1.8073
39162SOL     OW35095   2.895   8.018   1.802  0.0459 -0.1082  0.0722
39162SOL    HW135096   2.903   8.111   1.823 -0.4022  0.1668 -0.9416
39162SOL    HW235097   2.972   7.978   1.842  0.7081  0.8347 -0.2230
39163SOL     OW35098   6.845  12.220   4.791 -0.5455 -0.1097 -0.0857
39163SOL    HW135099   6.872  12.224   4.883 -0.3811 -2.0113  0.0001
39163SOL    HW235100   6.876  12.134   4.761 -0.6882  0.4337 -1.8953
39164SOL     OW35101  11.172   3.666   4.989 -0.7983  0.3103 -0.5027
39164SOL    HW135102  11.173   3.673   4.893 -0.4297 -0.4038 -0.5564
39164SOL    HW235103  11.101   3.724   5.017 -1.3124  0.0484 -1.2452
39165SOL     OW35104   4.772   8.377   9.653  0.2599 -0.3054  0.4948
39165SOL    HW135105   4.713   8.451   9.649  0.1244 -0.2678  2.4099
39165SOL    HW235106   4.733   8.311   9.596 -1.7627 -0.3550  1.8465
39166SOL     OW35107   7.233   6.305   5.223  0.1507 -0.2870  0.1256
39166SOL    HW135108   7.247   6.210   5.226  1.6672 -0.0695  1.0475
39166SOL    HW235109   7.219   6.330   5.314 -1.7182  0.2198 -0.2542
39167SOL     OW35110  10.471  11.211   6.335 -0.4388 -0.0180  0.1649
39167SOL    HW135111  10.406  11.267   6.292  0.8289  1.3227 -0.0613
39167SOL    HW235112  10.478  11.245   6.424 -1.4383 -1.3947  0.8005
39168SOL     OW35113   3.242   2.730  11.564  0.4056  0.2814 -0.2650
39168SOL    HW135114   3.262   2.775  11.646 -0.4712 -2.4956  1.6131
39168SOL    HW235115   3.155   2.763  11.540 -0.3903 -0.5789  1.2786
39169SOL     OW35116   4.188   9.200  12.680  0.5334  0.0360  0.0777
39169SOL    HW135117   4.247   9.145  12.628  1.7397  0.3653  1.0760
39169SOL    HW235118   4.128   9.137  12.721  1.1810 -0.4430  0.3058
39170SOL     OW35119   5.721   0.276   6.380  0.3875  0.1162 -0.0862
39170SOL    HW135120   5.715   0.280   6.475  0.8315 -0.6290 -0.0162
39170SOL    HW235121   5.789   0.210   6.363  0.5766  0.5058 -0.9128
39171SOL     OW35122   1.873  10.793   5.262 -0.2813  0.0120  0.3828
39171SOL    HW135123   1.963  10.761   5.256  0.3117  1.6282  0.2371
39171SOL    HW235124   1.822  10.730   5.210  0.8242 -0.6653  0.0866
39172SOL     OW35125  12.079   0.792   7.032  0.6420  0.4509 -0.4923
39172SOL    HW135126  12.072   0.874   7.081  1.7604  0.5989 -0.5508
39172SOL    HW235127  12.070   0.819   6.940  1.6305  0.6055 -0.5519
39173SOL     OW35128   3.281   4.262   3.400 -0.9368  0.0214  0.2350
39173SOL    HW135129   3.234   4.179   3.393 -0.9353  0.1472 -2.5278
39173SOL    HW235130   3.372   4.240   3.380 -1.0356  0.7340 -1.0996
39174SOL     OW35131   0.640   5.454   9.838 -0.2608 -0.2035  0.2293
39174SOL    HW135132   0.691   5.529   9.869  1.0404 -1.5131  1.4302
39174SOL    HW235133   0.549   5.484   9.841  0.3029  1.7292 -0.5840
39175SOL     OW35134   2.296   3.842  13.044 -0.0892 -0.2799 -0.1367
39175SOL    HW135135   2.283   3.819  12.952 -0.4804 -1.7176  0.2625
39175SOL    HW235136   2.312   3.937  13.042 -0.6212 -0.1856 -1.6318
39176SOL     OW35137   9.309  10.191   3.134  0.1171 -0.1460  0.3114
39176SOL    HW135138   9.271  10.277   3.116 -0.0082  0.0584  1.4347
39176SOL    HW235139   9.317  10.149   3.049  0.7663  1.2265 -0.3325
39177SOL     OW35140   3.173   8.785   3.061  0.6903  0.4726  0.2698
39177SOL    HW135141   3.217   8.705   3.033 -0.1087  0.2979 -0.5087
39177SOL    HW235142   3.195   8.850   2.994  1.7892  1.0871  1.1777
39178SOL     OW35143   0.108   6.858   3.530  0.0043 -0.1546 -0.0168
39178SOL    HW135144   0.050   6.925   3.495 -1.0364 -0.3499  1.2803
39178SOL    HW235145   0.051   6.798   3.578  1.1844 -0.7110  0.7602
39179SOL     OW35146  10.187  11.735  13.754  0.2762  0.5100  0.4492
39179SOL    HW135147  10.104  11.781  13.743 -0.1733 -0.4631 -0.3362
39179SOL    HW235148  10.221  11.725  13.665 -0.9274 -2.9759  0.2207
39180SOL     OW35149  11.370  10.224   1.617 -0.5059 -0.1037  0.0698
39180SOL    HW135150  11.299  10.188   1.564  0.3910  0.3971 -1.5653
39180SOL    HW235151  11.382  10.162   1.689 -0.5543 -1.8334 -1.3476
39181SOL     OW35152  12.595   0.647  11.438 -0.0016  0.1786 -0.4667
39181SOL    HW135153  12.591   0.625  11.531  2.7557  1.1195 -0.0386
39181SOL    HW235154  12.526   0.594  11.398 -1.1080 -0.4343  2.0498
39182SOL     OW35155   4.478   9.465   6.485  0.3820 -0.3643  0.1776
39182SOL    HW135156   4.506   9.518   6.411 -1.2444  0.7842  0.3278
39182SOL    HW235157   4.389   9.495   6.504 -0.7986 -3.4388  0.0238
39183SOL     OW35158  13.538   4.851   5.766 -0.0625  0.0150  0.7826
39183SOL    HW135159  13.540   4.821   5.675 -0.5037  0.9485  0.4543
39183SOL    HW235160  13.619   4.816   5.804  1.4163  1.6653 -0.6470
39184SOL     OW35161  13.525   9.170   2.851 -0.1281 -0.1001 -0.1607
39184SOL    HW135162  13.580   9.243   2.879  1.0172 -0.6128 -0.9797
39184SOL    HW235163  13.496   9.129   2.933  1.2761 -0.2097  0.3129
39185SOL     OW35164   1.776   8.073   6.343  0.0183 -0.0394  0.0283
39185SOL    HW135165   1.831   8.017   6.287  1.8643 -0.3742  2.0098
39185SOL    HW235166   1.711   8.013   6.378 -0.3057 -0.1196 -0.6874
39186SOL     OW35167   9.268   1.817  11.513  0.0313 -0.0193 -0.1459
39186SOL    HW135168   9.357   1.834  11.544  0.2327  1.5204 -1.4301
39186SOL    HW235169   9.250   1.727  11.540  2.1023 -0.4859 -0.1580
39187SOL     OW35170   9.772  12.247   5.714 -0.1861  0.3614 -0.2636
39187SOL    HW135171   9.737  12.161   5.693 -1.5363  0.7435  0.3272
39187SOL    HW235172   9.813  12.277   5.632 -1.0528 -0.2022 -0.9124
39188SOL     OW35173   9.612   2.075   3.018 -0.2224 -0.6220  0.1910
39188SOL    HW135174   9.675   2.021   2.970  0.5967  0.7146 -0.3061
39188SOL    HW235175   9.527   2.035   3.002  0.1499 -0.7413 -1.6390
39189SOL     OW35176  10.112   5.977   2.735  0.6348 -0.5081 -0.4548
39189SOL    HW135177  10.107   5.934   2.650  0.2481  0.4225 -0.9226
39189SOL    HW235178  10.029   6.025   2.742  0.8051 -0.3113  0.3001
39190SOL     OW35179   0.662   4.624   3.649 -0.1645  0.3308 -0.0306
39190SOL    HW135180   0.736   4.563   3.640  0.8530  1.4363  0.6104
39190SOL    HW235181   0.679   4.692   3.584 -0.6560  0.5654  0.0820
39191SOL     OW35182   1.889  11.268   1.217 -0.2121 -0.0328 -0.2306
39191SOL    HW135183   1.823  11.248   1.283 -0.2389  0.3021 -0.1531
39191SOL    HW235184   1.897  11.363   1.220  1.0260 -0.1516  0.4773
39192SOL     OW35185   5.276  11.649   2.245 -0.1776 -0.6216 -0.3542
39192SOL    HW135186   5.302  11.677   2.333 -0.7433  0.2756 -0.4648
39192SOL    HW235187   5.233  11.564   2.259 -1.5003  0.1495  0.4182
39193SOL     OW35188   3.823  10.205  13.240  0.3312  0.0897  0.6428
39193SOL    HW135189   3.915  10.194  13.263  1.1315  1.3866 -1.5984
39193SOL    HW235190   3.813  10.157  13.158 -1.1302 -0.4388  1.1021
39194SOL     OW35191   5.492   7.447   1.606 -0.3899  0.4776  0.0356
39194SOL    HW135192   5.566   7.392   1.580  0.6799  1.7771  0.2707
39194SOL    HW235193   5.475   7.501   1.529 -1.1255  0.1684 -0.0257
39195SOL     OW35194   7.509   0.488   2.916  0.1053  0.2097 -0.1996
39195SOL    HW135195   7.500   0.456   3.006  0.1674  0.0979 -0.2323
39195SOL    HW235196   7.470   0.575   2.918 -1.1990 -0.3356 -0.3802
39196SOL     OW35197   4.854  11.554   3.380 -0.0040 -0.0976 -0.2588
39196SOL    HW135198   4.887  11.627   3.327  0.2454 -0.3778 -0.4865
39196SOL    HW235199   4.919  11.486   3.371  2.1921  1.1995  3.6230
39197SOL     OW35200   1.856  11.467   7.741  0.0425 -0.4091  0.0434
39197SOL    HW135201   1.830  11.401   7.804  0.7622  1.7727  2.8004
39197SOL    HW235202   1.774  11.512   7.718  0.0224  0.0447  0.9759
39198SOL     OW35203  10.154   0.642  11.076  0.3446  0.1751  1.1032
39198SOL    HW135204  10.128   0.693  11.152  2.7689  0.9194  1.5155
39198SOL    HW235205  10.231   0.687  11.042  1.3031 -1.9912  0.1939
39199SOL     OW35206   8.292   4.452   3.283 -0.3794 -0.2030  0.0983
39199SOL    HW135207   8.354   4.523   3.292 -2.6726  1.9083  0.2197
39199SOL    HW235208   8.264   4.456   3.192  0.3116 -1.7609 -0.2158
39200SOL     OW35209   7.978   0.106   3.750 -0.5305 -0.1230 -0.3043
39200SOL    HW135210   8.012   0.025   3.788 -0.1903  0.4151  0.5830
39200SOL    HW235211   7.996   0.098   3.656 -0.6656 -1.1436 -0.2508
39201SOL     OW35212   4.985   9.486   7.183  0.3042  0.5335 -0.0966
39201SOL    HW135213   4.968   9.458   7.272  0.5284  0.1077 -0.1874
39201SOL    HW235214   4.930   9.564   7.171  0.7016  0.9309  0.5921
39202SOL     OW35215  10.381  12.338   5.936 -0.1421  0.3099 -0.2943
39202SOL    HW135216  10.328  12.328   5.857 -1.6922  1.1011  0.5892
39202SOL    HW235217  10.421  12.425   5.928 -1.8138  1.2152  0.5931
39203SOL     OW35218   2.491   5.680   8.535  0.4811 -0.0677  0.2428
39203SOL    HW135219   2.476   5.585   8.540 -0.7542 -0.1414 -2.8696
39203SOL    HW235220   2.420   5.713   8.481  2.1848  2.3043 -0.7075
39204SOL     OW35221  13.535  11.192   5.080  0.1605 -0.3007 -1.2119
39204SOL    HW135222  13.465  11.251   5.052  0.4372  0.5192 -0.2596
39204SOL    HW235223  13.606  11.207   5.018  1.2535  2.4490  0.5180
39205SOL     OW35224   2.185   5.897  10.963  0.4235 -0.1924  0.3083
39205SOL    HW135225   2.253   5.852  10.911 -0.0815  0.6445 -1.1532
39205SOL    HW235226   2.137   5.949  10.898 -0.4799  0.6233  1.5968
39206SOL     OW35227   1.189   4.053   5.864 -0.1414  0.5633  0.2197
39206SOL    HW135228   1.165   4.107   5.789  0.3401  0.7078  0.1624
39206SOL    HW235229   1.213   3.968   5.826  0.4034  0.7330  0.1738
39207SOL     OW35230   7.934   9.165   2.719  0.0690  0.2315 -0.3500
39207SOL    HW135231   7.884   9.232   2.767  0.5997 -0.7291  1.6114
39207SOL    HW235232   8.011   9.149   2.773  0.9147 -0.6266 -1.7557
39208SOL     OW35233   0.018  11.579   2.334  0.4980 -0.8105 -0.5996
39208SOL    HW135234   0.050  11.646   2.395 -0.7114 -0.7030 -0.0471
39208SOL    HW235235   0.077  11.505   2.346  0.6327 -0.5709  0.2740
39209SOL     OW35236   4.085   8.622   1.507  0.2419  0.3459  0.1166
39209SOL    HW135237   4.004   8.573   1.522  0.7617  0.0514  2.2704
39209SOL    HW235238   4.092   8.680   1.583  1.3472  1.3927 -0.7478
39210SOL     OW35239   4.897  12.097   9.974 -0.4404  0.5421 -0.2745
39210SOL    HW135240   4.872  12.013   9.935  1.6549 -0.6370  0.7217
39210SOL    HW235241   4.881  12.085  10.068 -1.6055  1.8675 -0.2745
39211SOL     OW35242   2.134   6.817   9.704 -0.6975 -0.3375  0.0916
39211SOL    HW135243   2.105   6.777   9.623 -0.9467  0.4088 -0.1951
39211SOL    HW235244   2.060   6.871   9.733  0.0290  0.8549 -0.1622
39212SOL     OW35245  11.034  10.174   2.412 -0.3429 -0.0174 -0.1673
39212SOL    HW135246  10.961  10.181   2.351  0.8434  0.3367 -1.6111
39212SOL    HW235247  11.012  10.100   2.468 -2.5156  1.0505  0.4628
39213SOL     OW35248   6.635   1.908   1.806  0.1649  0.1418  0.0246
39213SOL    HW135249   6.674   1.993   1.827 -0.5139  0.9098 -1.6410
39213SOL    HW235250   6.542   1.927   1.797 -0.1786 -1.0457  0.8337
39214SOL     OW35251   2.175   8.146   0.991  0.2159 -0.5329  0.5296
39214SOL    HW135252   2.208   8.140   0.901  1.8198 -0.2029  1.0729
39214SOL    HW235253   2.080   8.152   0.981  0.2498 -1.9449 -1.0775
39215SOL     OW35254   9.831  12.223   9.486 -0.4583 -0.0035 -0.0295
39215SOL    HW135255   9.782  12.188   9.411  1.3992 -0.8430 -0.9156
39215SOL    HW235256   9.866  12.307   9.455 -0.0309 -0.1551  0.0381
39216SOL     OW35257   3.602   4.302   4.374  0.5749  0.0108  0.1370
39216SOL    HW135258   3.551   4.256   4.441 -0.9089  1.7584  0.2802
39216SOL    HW235259   3.610   4.391   4.407  0.3926  0.7479 -1.7025
39217SOL     OW35260   3.904   8.178  10.970  0.5172  0.5443  0.2243
39217SOL    HW135261   3.979   8.118  10.970  0.6470  0.6983  0.9813
39217SOL    HW235262   3.853   8.152  10.894  1.4379  0.5651 -0.4145
39218SOL     OW35263   4.077  10.023  11.983  0.1126 -0.2181  0.2368
39218SOL    HW135264   4.013  10.057  11.919  0.5670 -0.7273 -0.5083
39218SOL    HW235265   4.140  10.094  11.994  0.3016 -0.3081 -0.2561
39219SOL     OW35266   4.464   7.364   5.927  0.5425  0.2713 -0.0913
39219SOL    HW135267   4.444   7.270   5.927 -0.6326  0.4908  0.9933
39219SOL    HW235268   4.540   7.373   5.985 -1.0338  0.2513  2.1083
39220SOL     OW35269   5.492   2.401   3.086 -0.0791  0.1117 -0.1028
39220SOL    HW135270   5.446   2.318   3.073 -0.2706  0.2474 -0.3218
39220SOL    HW235271   5.468   2.453   3.009 -0.2380  0.4927  0.2026
39221SOL     OW35272  13.882   7.937  10.313  0.0833 -0.0777  0.5156
39221SOL    HW135273  13.868   7.885  10.393 -2.1836  0.5210  0.5670
39221SOL    HW235274  13.801   7.987  10.303  1.5619  2.2531 -0.4335
39222SOL     OW35275   9.649   7.427   3.512 -0.4121 -0.3295 -0.3387
39222SOL    HW135276   9.591   7.361   3.474  0.9225 -0.8154 -1.5887
39222SOL    HW235277   9.727   7.379   3.538  0.2957  0.6495 -0.6097
39223SOL     OW35278  13.764   7.719  11.752  0.1943  0.0410  0.8912
39223SOL    HW135279  13.780   7.625  11.750 -1.1380 -0.2188  1.4125
39223SOL    HW235280  13.670   7.727  11.770 -0.3362  1.4541 -2.0173
39224SOL     OW35281   4.748   8.409   9.275 -0.2388 -0.3480  0.9852
39224SOL    HW135282   4.718   8.366   9.195 -2.8469  0.8864  1.2064
39224SOL    HW235283   4.844   8.405   9.270 -0.3446 -1.3194 -1.6087
39225SOL     OW35284  11.969   2.294   8.834  0.3919  0.5873 -0.3585
39225SOL    HW135285  12.042   2.294   8.773  0.8498  0.9674  0.1749
39225SOL    HW235286  11.977   2.378   8.880 -0.5350  0.7521 -0.4834
39226SOL     OW35287   5.873   3.830   5.226  0.8665 -0.1790  0.1174
39226SOL    HW135288   5.917   3.771   5.287  0.0772 -2.0120 -1.0279
39226SOL    HW235289   5.821   3.888   5.282 -1.8166 -3.3605  1.2286
39227SOL     OW35290   8.912   1.347   8.407  0.4774 -0.3601 -0.0526
39227SOL    HW135291   8.948   1.392   8.483  2.0590 -2.0231  0.2613
39227SOL    HW235292   8.987   1.335   8.349 -0.1016 -1.6554 -0.5616
39228SOL     OW35293  11.447  11.793   7.926 -0.2170 -0.0962 -0.3514
39228SOL    HW135294  11.498  11.843   7.989 -0.5141  1.6783 -1.4423
39228SOL    HW235295  11.362  11.837   7.924 -0.1346  0.0627 -2.1298
39229SOL     OW35296   2.652   4.371   9.027 -0.4548  0.2781 -0.1816
39229SOL    HW135297   2.710   4.426   9.078  0.7734 -1.7868  0.7743
39229SOL    HW235298   2.710   4.319   8.971 -1.5709  0.1246 -1.2425
39230SOL     OW35299   7.747   2.462   1.188 -0.1090 -0.1845 -0.1393
39230SOL    HW135300   7.811   2.532   1.177 -1.0238  0.8996  1.0263
39230SOL    HW235301   7.708   2.450   1.102  1.1591 -0.3707 -0.6981
39231SOL     OW35302  10.283  10.023   9.588  0.0816  0.3460  0.0600
39231SOL    HW135303  10.188  10.019   9.590  0.0982 -0.0908  1.9710
39231SOL    HW235304  10.306  10.099   9.642  0.8184 -0.5877  1.1224
39232SOL     OW35305   1.642   7.915  12.317 -0.6484 -0.1951  0.3911
39232SOL    HW135306   1.564   7.970  12.320 -0.3128  0.3867 -0.9530
39232SOL    HW235307   1.683   7.936  12.233 -0.2106 -2.0933  0.0980
39233SOL     OW35308   3.322   1.962   1.191 -0.2810 -0.8552 -0.1151
39233SOL    HW135309   3.286   1.897   1.131  0.7799 -0.5712 -1.0903
39233SOL    HW235310   3.411   1.932   1.208 -0.1015 -0.1623  0.1828
39234SOL     OW35311   1.218  12.661  13.939  0.8831 -0.6032  0.0643
39234SOL    HW135312   1.308  12.647  13.908  1.5737 -1.5083  2.2979
39234SOL    HW235313   1.210  12.756  13.946  0.6995 -0.3437 -2.6777
39235SOL     OW35314   9.467   6.896   1.718 -0.1687 -0.3526  0.1065
39235SOL    HW135315   9.460   6.991   1.721 -1.0232 -0.2630 -2.5386
39235SOL    HW235316   9.517   6.873   1.797  1.2989  2.3773  0.0858
39236SOL     OW35317  10.807   3.342   5.175 -0.0046  0.0102  0.4905
39236SOL    HW135318  10.891   3.296   5.165 -0.3083 -0.2642 -1.2049
39236SOL    HW235319  10.742   3.272   5.181 -0.2056  0.2230  0.7920
39237SOL     OW35320   0.942   2.024  13.005  0.1022 -0.0398  0.3507
39237SOL    HW135321   0.856   1.996  13.037  0.7342 -0.9909  1.3122
39237SOL    HW235322   0.968   1.955  12.943 -0.4379  0.9985 -1.0891
39238SOL     OW35323   9.115   2.229  12.992 -0.1489  0.0857  0.6384
39238SOL    HW135324   9.155   2.145  13.014 -0.1118  0.2611  1.2690
39238SOL    HW235325   9.026   2.223  13.026 -1.6591 -1.3493 -3.1528
39239SOL     OW35326  11.086   0.645  10.854 -0.5064 -0.1514  0.5049
39239SOL    HW135327  11.171   0.678  10.822 -0.5681  0.2132  0.7055
39239SOL    HW235328  11.108   0.572  10.911 -0.0935  1.7991  3.0110
39240SOL     OW35329   4.248  12.109   5.602  0.4167  0.0089  0.9475
39240SOL    HW135330   4.158  12.139   5.607  0.2449 -0.0428 -1.0654
39240SOL    HW235331   4.242  12.019   5.568  1.2678  1.2484 -2.9641
39241SOL     OW35332   6.712   4.014   0.749 -0.2618 -0.0157  0.4057
39241SOL    HW135333   6.629   4.043   0.787 -1.0364 -1.3237 -0.2093
39241SOL    HW235334   6.736   3.937   0.801  0.5917  0.3551  0.5860
39242SOL     OW35335  12.622   4.875   8.825 -0.3704  0.4884 -0.2325
39242SOL    HW135336  12.656   4.959   8.855 -1.5710  0.5535  1.0992
39242SOL    HW235337  12.535   4.896   8.791 -1.3582 -0.3556  1.5736
39243SOL     OW35338   8.415   0.702  12.941 -0.7877 -0.2572  0.3790
39243SOL    HW135339   8.494   0.756  12.952 -1.1283  0.0860  1.2802
39243SOL    HW235340   8.418   0.673  12.850 -0.4284  1.0248 -0.0414
39244SOL     OW35341   1.370   9.648   3.164 -0.2630  0.3146 -0.1592
39244SOL    HW135342   1.460   9.645   3.133  0.0406  0.1395  0.6978
39244SOL    HW235343   1.326   9.710   3.106 -0.0113 -0.8228 -1.6238
39245SOL     OW35344   5.436   3.944  12.974 -0.1273  0.1029  0.0571
39245SOL    HW135345   5.343   3.938  12.994  0.1375 -0.7904  1.1591
39245SOL    HW235346   5.451   4.037  12.956 -0.9244  0.5621  1.5560
39246SOL     OW35347  12.478   9.047  11.023  0.0860  0.3475 -0.0785
39246SOL    HW135348  12.409   9.112  11.013  0.6843  1.0285  0.1576
39246SOL    HW235349  12.537   9.084  11.089 -1.0990 -1.7238  2.3617
39247SOL     OW35350   2.644   5.688   9.830 -0.1735 -0.1820 -0.2461
39247SOL    HW135351   2.631   5.779   9.806  0.4193  0.5445  1.9726
39247SOL    HW235352   2.735   5.684   9.860 -0.9302 -0.8620  2.1535
39248SOL     OW35353   0.963   8.492   0.807  0.3476  0.0286  0.3202
39248SOL    HW135354   0.869   8.498   0.826  0.2609  2.0165 -0.4961
39248SOL    HW235355   1.001   8.566   0.854  0.6791  2.6358 -3.5811
39249SOL     OW35356  10.559  11.887   8.701  0.1628 -0.4561 -0.1705
39249SOL    HW135357  10.503  11.809   8.695 -1.0558  0.4479 -0.9836
39249SOL    HW235358  10.584  11.905   8.610  1.2449 -0.4540  0.1203
39250SOL     OW35359  13.062   6.355  12.763 -0.3831 -0.8125  0.1895
39250SOL    HW135360  13.089   6.444  12.743 -2.1407 -0.2241  0.2673
39250SOL    HW235361  13.021   6.323  12.682  0.2515 -1.5756  0.1507
39251SOL     OW35362  10.145  13.190   1.964  0.1791  0.4174  0.0632
39251SOL    HW135363  10.085  13.262   1.945 -1.9866 -1.4355 -0.6784
39251SOL    HW235364  10.105  13.145   2.039  2.0692  0.5749  1.2133
39252SOL     OW35365   4.044   0.478  12.853 -0.5771  0.2985 -0.3453
39252SOL    HW135366   4.120   0.524  12.889  0.3383 -0.4099 -1.3163
39252SOL    HW235367   4.074   0.388  12.844 -2.5326 -0.7134  2.1451
39253SOL     OW35368  13.671   4.762  13.560 -0.2480  0.0998 -0.5549
39253SOL    HW135369  13.716   4.841  13.589 -0.8325  0.0306  0.6224
39253SOL    HW235370  13.648   4.778  13.469 -0.6249  1.4111 -0.2421
39254SOL     OW35371  11.469  12.754   5.516 -0.1796 -0.1760  0.3268
39254SOL    HW135372  11.483  12.663   5.544  2.4622  0.1424  0.2200
39254SOL    HW235373  11.540  12.772   5.455 -2.3014  1.1118 -1.9505
39255SOL     OW35374   8.223   9.757   6.580 -0.1514 -0.3689 -0.5173
39255SOL    HW135375   8.180   9.679   6.616 -0.3108  0.0422  0.2081
39255SOL    HW235376   8.271   9.725   6.504 -0.4761 -1.1192 -0.4172
39256SOL     OW35377   7.987   3.684   1.872  0.2200 -0.0361 -0.0544
39256SOL    HW135378   7.929   3.752   1.906  0.5692 -0.4669  1.4655
39256SOL    HW235379   7.956   3.669   1.782 -0.6742  1.2017  0.0213
39257SOL     OW35380   0.635   7.254   1.488  0.0629 -0.0880  0.0816
39257SOL    HW135381   0.566   7.261   1.553 -0.5852 -1.2437 -0.4376
39257SOL    HW235382   0.592   7.214   1.412  0.8457  1.0265 -0.9827
39258SOL     OW35383   4.817   2.220   7.112  0.3391  0.2769 -0.4772
39258SOL    HW135384   4.735   2.268   7.125  0.1393 -0.0399 -0.5489
39258SOL    HW235385   4.845   2.245   7.024 -0.7939 -1.2364 -1.3180
39259SOL     OW35386   2.706  12.525   3.775 -0.5587 -0.7058  0.2964
39259SOL    HW135387   2.743  12.450   3.730 -0.4086 -0.1285 -0.5635
39259SOL    HW235388   2.781  12.573   3.809 -0.6574 -0.9872  0.9182
39260SOL     OW35389   0.467   0.524   5.107 -0.3364 -0.1840  0.0336
39260SOL    HW135390   0.473   0.429   5.114  1.7870 -0.0170  1.5237
39260SOL    HW235391   0.377   0.541   5.083 -1.0502 -2.5405  0.7876
39261SOL     OW35392  10.455   0.100   6.081  0.4697 -0.7532 -0.0794
39261SOL    HW135393  10.526   0.119   6.020  0.8343 -1.1392  0.2136
39261SOL    HW235394  10.468   0.008   6.104 -0.0692 -0.7987  0.0547
39262SOL     OW35395   4.072  10.795   2.249  0.1038  0.3657 -0.5091
39262SOL    HW135396   4.151  10.835   2.212  1.6304  0.6060  2.6463
39262SOL    HW235397   4.004  10.862   2.237  1.4393  1.9674  0.3988
39263SOL     OW35398   4.771  13.718   6.550 -0.1491 -0.2160 -0.5997
39263SOL    HW135399   4.855  13.674   6.565  1.1991  1.9087 -1.3750
39263SOL    HW235400   4.714  13.650   6.515  1.5574 -1.5318 -0.9468
39264SOL     OW35401   6.750   2.317  10.978 -0.4322 -0.3215 -0.2640
39264SOL    HW135402   6.699   2.254  11.030 -1.3405 -0.9090 -1.8132
39264SOL    HW235403   6.827   2.267  10.950  1.2087  0.6104  2.2115
39265SOL     OW35404   5.647  11.590   2.284 -0.3067 -0.4655 -0.5784
39265SOL    HW135405   5.723  11.645   2.264  0.6493 -0.8433  1.6636
39265SOL    HW235406   5.609  11.569   2.199 -0.7616  3.6179 -1.5659
39266SOL     OW35407   8.189   4.757   0.530  0.2190  0.1280 -0.3205
39266SOL    HW135408   8.273   4.771   0.573 -0.7344  0.8787  1.3949
39266SOL    HW235409   8.202   4.676   0.480  1.3689 -0.9282  1.5300
39267SOL     OW35410   0.100   2.408   9.315 -0.1751  0.3837  0.1551
39267SOL    HW135411   0.115   2.470   9.243  1.0593 -0.8630 -0.7183
39267SOL    HW235412   0.017   2.435   9.353 -0.4323  1.6130 -1.1918
39268SOL     OW35413   2.185  10.294   6.247 -0.5450  0.3409  0.0752
39268SOL    HW135414   2.133  10.271   6.169 -1.4941 -1.0457  1.0681
39268SOL    HW235415   2.275  10.274   6.222 -0.9436 -1.0520 -0.3654
39269SOL     OW35416  10.576   6.994   3.012 -0.1035 -0.3447  0.1301
39269SOL    HW135417  10.549   6.914   3.056 -0.6004  0.4632  1.3237
39269SOL    HW235418  10.671   6.997   3.024 -0.1665 -0.4168  0.6482
39270SOL     OW35419  10.442  10.080   5.321  0.0516 -0.0578 -0.1760
39270SOL    HW135420  10.355  10.057   5.287 -1.1067  1.3725  1.5841
39270SOL    HW235421  10.453  10.172   5.299  1.3965 -0.3618 -0.8563
39271SOL     OW35422   3.772   0.971   0.997  0.1080 -0.5072  0.1562
39271SOL    HW135423   3.863   0.998   0.989  0.1608 -0.5706  0.5120
39271SOL    HW235424   3.722   1.049   0.974  0.2466 -0.5731 -0.3860
39272SOL     OW35425   5.551   3.014   4.518  0.6488  0.1989  0.4858
39272SOL    HW135426   5.639   3.045   4.496  1.2992  0.0999  2.6782
39272SOL    HW235427   5.562   2.920   4.536 -0.1394 -0.0607 -0.3415
39273SOL     OW35428   2.051   1.309  10.837  0.1374 -0.2221 -0.2307
39273SOL    HW135429   2.083   1.326  10.925 -0.9809  0.2823  0.1014
39273SOL    HW235430   2.068   1.216  10.822  0.2542 -0.3283  0.5478
39274SOL     OW35431   3.754   9.087   7.531  0.6338 -0.5205 -0.1987
39274SOL    HW135432   3.676   9.032   7.531 -0.1618  0.5107  1.4791
39274SOL    HW235433   3.827   9.025   7.524 -0.2872 -1.6044 -0.5108
39275SOL     OW35434   7.835   3.817   0.504  0.4851 -0.2761 -0.0652
39275SOL    HW135435   7.861   3.763   0.429  0.4971 -0.2743 -0.0624
39275SOL    HW235436   7.864   3.905   0.482  2.4428 -0.6376  0.8572
39276SOL     OW35437   6.689  10.230  12.650 -0.1400  0.4371 -0.0080
39276SOL    HW135438   6.687  10.137  12.671  1.7009  0.1316 -0.9420
39276SOL    HW235439   6.641  10.272  12.721  0.6070 -1.0772  1.4650
39277SOL     OW35440   1.854  10.690  11.191  0.3821 -0.0345  0.6017
39277SOL    HW135441   1.786  10.701  11.124 -0.3473 -0.0501  1.3231
39277SOL    HW235442   1.913  10.764  11.176  2.0414 -1.7384 -2.0773
39278SOL     OW35443   1.438  12.164   1.713  0.1128  0.0861 -0.0066
39278SOL    HW135444   1.440  12.070   1.694  3.0763  0.4169 -1.9846
39278SOL    HW235445   1.468  12.171   1.804  2.5364 -0.8300 -0.6672
39279SOL     OW35446  13.833   1.201   9.442  0.0184  0.0159  0.0858
39279SOL    HW135447  13.820   1.278   9.497  0.5058  0.2591 -0.1350
39279SOL    HW235448  13.784   1.131   9.486 -2.2658  0.9275 -0.8440
39280SOL     OW35449  11.432   6.975   1.956 -0.2849 -0.5038  0.0681
39280SOL    HW135450  11.358   7.022   1.918 -0.8616 -2.2856 -1.1554
39280SOL    HW235451  11.396   6.931   2.033 -0.4416 -1.1420 -0.3649
39281SOL     OW35452   5.000  10.189  13.769 -0.3950  0.0269  0.3666
39281SOL    HW135453   5.055  10.239  13.829  0.2802 -1.4108  0.9737
39281SOL    HW235454   5.014  10.098  13.793 -1.3096 -0.4968 -0.9726
39282SOL     OW35455  10.755   3.628   1.702  0.0019  0.4908  0.5152
39282SOL    HW135456  10.838   3.585   1.684 -0.0389  1.1805 -1.6283
39282SOL    HW235457  10.689   3.561   1.685  0.0448  0.5656  0.0492
39283SOL     OW35458  11.925   0.839   0.379  0.1109  0.5782 -0.0511
39283SOL    HW135459  11.947   0.883   0.462 -0.4457  1.0469 -0.1407
39283SOL    HW235460  11.835   0.867   0.361  0.8240  1.9874 -1.7558
39284SOL     OW35461  11.703   5.770   9.003 -0.7329 -0.5688 -0.0233
39284SOL    HW135462  11.798   5.759   9.002 -0.8363 -2.3261  2.4171
39284SOL    HW235463  11.676   5.748   8.914  0.9029 -3.0028 -0.0184
39285SOL     OW35464   6.467   4.726   3.618  0.0025 -0.6141  0.7837
39285SOL    HW135465   6.505   4.686   3.696 -0.4026 -1.6567  0.4593
39285SOL    HW235466   6.372   4.722   3.632 -0.0528  1.1685  1.1887
39286SOL     OW35467   7.195   3.003  11.825  0.4185 -0.6058 -0.1929
39286SOL    HW135468   7.132   3.006  11.752  1.5269 -0.8054 -1.1947
39286SOL    HW235469   7.216   3.095  11.841 -0.7440 -0.4745  0.7330
39287SOL     OW35470   8.223   7.442   0.165 -0.2958  0.2141 -0.0689
39287SOL    HW135471   8.298   7.495   0.138  0.5055 -1.1901 -0.7105
39287SOL    HW235472   8.148   7.486   0.127 -0.1136  2.7566  2.1627
39288SOL     OW35473  10.144   7.586  10.582 -0.2852  0.2232 -0.2555
39288SOL    HW135474  10.230   7.549  10.563  0.2247  1.3471 -0.2509
39288SOL    HW235475  10.112   7.535  10.656  0.2096 -0.4561 -0.5003
39289SOL     OW35476  10.811   4.086  10.514  0.3693 -0.1117  0.0657
39289SOL    HW135477  10.859   4.142  10.575 -0.1483 -0.1951  0.5540
39289SOL    HW235478  10.788   4.144  10.441  0.9133  0.0069 -0.0197
39290SOL     OW35479  13.162   2.988   9.525  0.2336  0.4514 -0.0943
39290SOL    HW135480  13.150   3.075   9.562  0.2057  0.4661 -0.1376
39290SOL    HW235481  13.207   2.939   9.593  1.2918  0.8245 -0.5142
39291SOL     OW35482   9.818   1.713   3.129 -0.3881 -0.2328 -0.8299
39291SOL    HW135483   9.791   1.793   3.174 -2.5654 -0.8324 -0.9493
39291SOL    HW235484   9.813   1.734   3.036 -2.6055 -0.9152 -0.9207
39292SOL     OW35485  10.125  13.928   6.789  0.4062 -0.0293  0.0461
39292SOL    HW135486  10.156  14.007   6.744  2.2928 -0.5315  0.3408
39292SOL    HW235487  10.062  13.960   6.853  0.6306  1.1561 -0.2888
39293SOL     OW35488  11.973   8.244   3.002 -0.1950 -0.0483  0.1821
39293SOL    HW135489  12.034   8.219   2.932  0.6323 -1.2259  1.2832
39293SOL    HW235490  12.027   8.286   3.068 -0.2795 -2.2299  1.7525
39294SOL     OW35491   8.220  12.121   3.022  0.2880  0.1304 -0.1185
39294SOL    HW135492   8.185  12.158   3.103  1.5673 -1.2315  1.1100
39294SOL    HW235493   8.144  12.117   2.963 -0.5131  1.8363  0.7201
39295SOL     OW35494   2.536   6.939   7.734 -0.5564  0.4118 -0.2398
39295SOL    HW135495   2.462   6.966   7.680 -0.6893  0.4106 -0.0559
39295SOL    HW235496   2.589   7.018   7.743 -0.7279  0.5049 -0.0554
39296SOL     OW35497  10.191   5.261  12.715  0.2022  0.0590 -0.6586
39296SOL    HW135498  10.165   5.170  12.728  1.8544 -0.5761 -1.6452
39296SOL    HW235499  10.119   5.299  12.664 -1.4799 -0.0832  1.4382
39297SOL     OW35500   6.391   7.393   4.922  0.6340  0.3731 -0.5669
39297SOL    HW135501   6.381   7.309   4.876  0.5184  0.5678 -0.8982
39297SOL    HW235502   6.467   7.380   4.979 -0.0063 -0.3024  0.1574
39298SOL     OW35503   3.320  10.760  11.369 -0.6158  0.1593 -0.9478
39298SOL    HW135504   3.325  10.842  11.319 -1.2771  1.3935  0.9128
39298SOL    HW235505   3.234  10.763  11.411 -0.2438 -1.0112 -0.0535
39299SOL     OW35506  12.151  10.052   8.447 -0.5257  0.0051  0.2711
39299SOL    HW135507  12.214  10.056   8.519 -0.3572 -0.5704  0.1568
39299SOL    HW235508  12.191   9.995   8.382 -0.7351  0.4196 -0.2284
39300SOL     OW35509   7.621   4.395   4.847  0.1840 -0.0534  0.7509
39300SOL    HW135510   7.629   4.466   4.910  0.4542  0.4397  0.1741
39300SOL    HW235511   7.555   4.337   4.884 -0.0585  0.5120  1.2142
39301SOL     OW35512   4.060   8.855   1.017 -0.2468  0.5345 -0.0271
39301SOL    HW135513   4.033   8.891   1.101  0.9252  0.2076  0.5106
39301SOL    HW235514   3.997   8.785   0.999  0.8011 -0.9122  1.6934
39302SOL     OW35515  12.554   9.672  13.720  0.1339  0.2744  0.4160
39302SOL    HW135516  12.619   9.612  13.757  0.2361 -0.7652 -1.3034
39302SOL    HW235517  12.472   9.624  13.726  0.0108  0.4463  0.1129
39303SOL     OW35518   7.361   8.501  11.793 -0.7481 -0.3738  0.6536
39303SOL    HW135519   7.451   8.469  11.799 -0.4760  0.6075  3.1487
39303SOL    HW235520   7.359   8.578  11.851 -1.9999  2.5957 -2.8971
39304SOL     OW35521  13.418  13.577   8.733  0.0118 -0.4627 -0.1816
39304SOL    HW135522  13.405  13.659   8.780 -0.1813 -0.7710  0.3170
39304SOL    HW235523  13.511  13.556   8.745 -0.0558 -0.5827  0.1385
39305SOL     OW35524   7.807   4.560  13.129  0.0504 -0.0412  0.2383
39305SOL    HW135525   7.762   4.520  13.204 -1.9815 -1.5434 -1.6522
39305SOL    HW235526   7.867   4.492  13.098 -0.1427  0.0410 -0.3225
39306SOL     OW35527   1.105   5.104   4.482  0.3526 -0.0061  0.7937
39306SOL    HW135528   1.168   5.168   4.447 -0.0704 -0.4916 -0.9979
39306SOL    HW235529   1.147   5.069   4.560  0.7936  2.1117  1.5664
39307SOL     OW35530  11.815  13.125   8.029  0.1943 -0.2863  0.2941
39307SOL    HW135531  11.790  13.159   8.114  2.1017 -0.7409  1.0950
39307SOL    HW235532  11.911  13.130   8.028  0.3165 -1.8708 -1.1401
39308SOL     OW35533   6.951   7.036   1.859 -0.0451  0.0258 -0.1375
39308SOL    HW135534   6.987   6.964   1.808  1.1212  0.7630 -0.3770
39308SOL    HW235535   6.866   7.054   1.819 -0.2264 -1.0208 -0.2494
39309SOL     OW35536  13.160   0.965   0.318  0.4150 -0.0872  0.4691
39309SOL    HW135537  13.187   0.907   0.247 -1.4568  0.4454 -0.7513
39309SOL    HW235538  13.078   0.927   0.350 -0.2940  1.2921  0.3485
39310SOL     OW35539  12.443   4.626  12.660 -0.2486 -0.1167  0.2354
39310SOL    HW135540  12.389   4.547  12.664 -0.5178  0.1238  2.3900
39310SOL    HW235541  12.387   4.695  12.696  0.9770  0.4449  1.1009
39311SOL     OW35542  13.183   9.457  11.941  0.6229 -0.2016 -0.6708
39311SOL    HW135543  13.243   9.501  12.002  1.5693 -0.9064 -1.0690
39311SOL    HW235544  13.118   9.416  11.998  0.9811 -0.0917 -0.1710
39312SOL     OW35545   6.250   6.295   1.336  0.3826 -0.0156  0.0230
39312SOL    HW135546   6.171   6.317   1.286  0.5477  0.8175  0.1030
39312SOL    HW235547   6.257   6.200   1.331 -1.0708 -0.1698  0.7032
39313SOL     OW35548   1.389   5.397  13.988  0.0810  0.7403 -0.5176
39313SOL    HW135549   1.463   5.339  13.973  0.7388  1.6412 -0.8374
39313SOL    HW235550   1.428   5.480  14.015 -0.6815  1.8914 -2.7288
39314SOL     OW35551  12.527   0.636   2.275  0.2477  0.6405 -0.1585
39314SOL    HW135552  12.433   0.632   2.293  0.2629  1.6622  0.1821
39314SOL    HW235553  12.564   0.682   2.350  0.9956  0.4391 -0.3944
39315SOL     OW35554  12.978  12.827   0.706  0.9500 -0.2360  0.5554
39315SOL    HW135555  12.885  12.839   0.723  0.0221 -0.6601 -3.2003
39315SOL    HW235556  13.011  12.915   0.687  1.2425 -0.1375  1.4871
39316SOL     OW35557   4.719   6.490   3.165 -0.2229  0.0437  0.4285
39316SOL    HW135558   4.755   6.402   3.171  3.0628  1.2001 -0.0115
39316SOL    HW235559   4.670   6.491   3.083  2.3965 -0.6052 -1.2550
39317SOL     OW35560   3.104   2.425   7.216 -0.0145  0.0047  0.2156
39317SOL    HW135561   3.110   2.351   7.155 -0.9848 -0.5064  0.7141
39317SOL    HW235562   3.017   2.417   7.255 -0.7954  2.2831 -0.8303
39318SOL     OW35563   4.906   6.125   3.943  0.2088  0.2342  0.5866
39318SOL    HW135564   4.929   6.036   3.969  0.4426  0.3614  0.8149
39318SOL    HW235565   4.825   6.143   3.991  0.9967  0.7200  1.7966
39319SOL     OW35566  10.727   8.317   2.057  0.1127 -0.0915  0.0392
39319SOL    HW135567  10.743   8.230   2.095  0.7581 -0.4931 -1.1110
39319SOL    HW235568  10.661   8.302   1.990  0.9361  0.1248 -0.8330
39320SOL     OW35569  12.543  13.562   5.785 -0.1624 -0.0656 -0.1208
39320SOL    HW135570  12.566  13.519   5.867  1.0889 -0.3178 -0.5830
39320SOL    HW235571  12.544  13.656   5.806  0.3417 -0.1196  0.1137
39321SOL     OW35572  13.299   5.363   6.670  0.9447 -0.3127  0.4056
39321SOL    HW135573  13.209   5.392   6.654  1.1113  0.3407  0.6188
39321SOL    HW235574  13.290   5.284   6.724  0.5270  1.4754  3.1357
39322SOL     OW35575  10.597  10.230   3.660  0.3625  0.4618  0.1768
39322SOL    HW135576  10.566  10.199   3.745  0.0753  1.6616  0.5313
39322SOL    HW235577  10.541  10.186   3.597  0.1937  0.0065  0.6346
39323SOL     OW35578   3.171   3.184   4.575  0.0406 -0.6893  0.3361
39323SOL    HW135579   3.083   3.149   4.571 -0.2161  0.0248 -1.1910
39323SOL    HW235580   3.160   3.278   4.591  0.5338 -0.6685  0.5885
39324SOL     OW35581   8.205  12.673   7.018 -0.8495 -0.3149  0.7193
39324SOL    HW135582   8.183  12.751   6.967 -0.0987 -0.6634 -0.1674
39324SOL    HW235583   8.189  12.698   7.109 -1.9589  0.4126  0.3406
39325SOL     OW35584   0.856   4.715   2.036 -0.5556 -0.2186 -0.0874
39325SOL    HW135585   0.854   4.773   2.112 -1.7947 -0.6202  0.1966
39325SOL    HW235586   0.940   4.669   2.044 -0.9198 -0.6685  1.3475
39326SOL     OW35587   7.201  11.049   9.262 -0.0285 -0.1361  0.5919
39326SOL    HW135588   7.232  11.072   9.349 -0.0735  0.2314  0.5131
39326SOL    HW235589   7.278  11.012   9.218  0.2744  0.6700  0.4308
39327SOL     OW35590   4.839  10.820   7.652  0.1335 -0.0918  0.1419
39327SOL    HW135591   4.921  10.773   7.671  0.1372 -0.1993 -0.1316
39327SOL    HW235592   4.816  10.861   7.735  0.2992 -0.3188  0.3042
39328SOL     OW35593   9.920  11.359  12.881  0.0524  0.5100 -0.1312
39328SOL    HW135594  10.011  11.336  12.865 -0.1312 -0.1754 -0.1993
39328SOL    HW235595   9.875  11.276  12.894 -0.4344  0.8804  0.6218
39329SOL     OW35596   6.074   7.032  12.187  0.7289 -0.2823  0.2773
39329SOL    HW135597   6.047   7.104  12.242  2.4339 -0.4286  1.3938
39329SOL    HW235598   6.059   6.953  12.240  1.3620 -0.5171  0.1213
39330SOL     OW35599   9.233   3.170   2.944 -0.6606  0.2136  0.0812
39330SOL    HW135600   9.250   3.263   2.953 -1.3180  0.3075  0.3866
39330SOL    HW235601   9.255   3.150   2.854  0.2114  0.5076  0.2215
39331SOL     OW35602   7.838  13.292   1.298 -0.1213  0.7049  0.0008
39331SOL    HW135603   7.855  13.258   1.211  1.6964  2.5766 -0.4552
39331SOL    HW235604   7.752  13.333   1.292 -0.1880  0.4585 -0.7712
39332SOL     OW35605  11.621   5.075   1.793  0.0228 -0.2230 -0.0231
39332SOL    HW135606  11.549   5.014   1.810  0.5234 -0.3179  2.1088
39332SOL    HW235607  11.691   5.019   1.758 -0.8125 -0.1670 -1.8813
39333SOL     OW35608   9.793   6.329   2.414  0.5021  0.0043 -0.1859
39333SOL    HW135609   9.855   6.262   2.386  1.2404  0.7161 -0.2928
39333SOL    HW235610   9.839   6.412   2.400 -0.5039  0.5537 -0.3285
39334SOL     OW35611   4.826   6.551   1.953 -0.0192 -0.2205  0.3121
39334SOL    HW135612   4.761   6.553   2.022 -0.6133  1.2299 -0.2682
39334SOL    HW235613   4.795   6.484   1.892 -1.3354  0.9035 -0.2873
39335SOL     OW35614  10.947  11.589   9.596 -0.1711 -0.3861  0.1366
39335SOL    HW135615  11.024  11.636   9.629 -0.0852 -1.3287  1.3312
39335SOL    HW235616  10.920  11.640   9.519  2.5094 -0.8370 -1.2272
39336SOL     OW35617  10.240  13.938   2.794  0.6298  0.0695  0.4839
39336SOL    HW135618  10.262  13.989   2.871  0.5626  0.9450 -0.0622
39336SOL    HW235619  10.259  13.996   2.720 -0.0361 -0.4707 -0.1315
39337SOL     OW35620   2.906  10.692  12.214 -0.0314 -0.5566 -0.6044
39337SOL    HW135621   2.836  10.741  12.170 -1.8613 -1.2109  1.4023
39337SOL    HW235622   2.892  10.601  12.187  0.8230 -0.5449 -1.1251
39338SOL     OW35623  10.921   2.272   4.487 -0.2472  0.5630 -0.1243
39338SOL    HW135624  10.875   2.211   4.544  1.0420 -0.2756  0.0480
39338SOL    HW235625  10.957   2.338   4.546 -0.0076  0.4145 -0.1041
39339SOL     OW35626   1.960   6.367  13.354  0.2442 -0.7718  0.0244
39339SOL    HW135627   1.883   6.402  13.309  0.6386  1.8440  1.1730
39339SOL    HW235628   2.034   6.394  13.300  0.4702 -1.6616 -0.1219
39340SOL     OW35629   2.685  11.546   3.256  0.0801  0.3977  0.0953
39340SOL    HW135630   2.688  11.640   3.239 -0.6900  0.2059 -1.1822
39340SOL    HW235631   2.596  11.530   3.289 -0.1602 -0.0320 -0.7270
39341SOL     OW35632   3.711  14.051   3.801  0.6082  0.0691  0.1283
39341SOL    HW135633   3.741  14.140   3.779  1.0677  0.1054  0.8525
39341SOL    HW235634   3.754  13.995   3.736 -0.9428  0.5089 -1.3517
39342SOL     OW35635  10.337   8.339   0.329  0.5191  0.2009  0.3166
39342SOL    HW135636  10.275   8.381   0.389 -0.8553  1.0559 -1.6204
39342SOL    HW235637  10.285   8.273   0.283  0.8446  1.2977 -1.7354
39343SOL     OW35638   2.877  11.206  11.672 -0.1384 -0.2311  0.3178
39343SOL    HW135639   2.971  11.224  11.682 -0.2363 -0.4671  1.9269
39343SOL    HW235640   2.869  11.167  11.585  0.8423  2.3721 -1.0584
39344SOL     OW35641   9.786   5.709  14.079 -0.2566 -0.1395  0.1461
39344SOL    HW135642   9.788   5.618  14.051 -0.1808 -0.2869  0.6199
39344SOL    HW235643   9.815   5.707  14.170  0.4342  0.4420 -0.0468
39345SOL     OW35644   2.816   4.566   9.696 -0.1970 -0.1400  0.1342
39345SOL    HW135645   2.846   4.547   9.785  2.0813  0.2872 -0.4934
39345SOL    HW235646   2.785   4.482   9.663 -0.0952 -0.5149  0.9597
39346SOL     OW35647   7.409   8.064   5.597  0.1549 -0.7610 -0.2485
39346SOL    HW135648   7.474   8.043   5.665  0.7657  0.2002 -0.5107
39346SOL    HW235649   7.457   8.055   5.515  0.0148  0.1020 -0.4374
39347SOL     OW35650   3.909   6.108   7.716  0.1719  0.2359  0.1842
39347SOL    HW135651   4.000   6.094   7.689 -0.0423 -0.1465 -0.3650
39347SOL    HW235652   3.876   6.175   7.656  0.3131  0.9336  0.8791
39348SOL     OW35653   7.717  13.733  12.702 -0.2337 -0.0112  0.3129
39348SOL    HW135654   7.758  13.651  12.727 -0.0606  0.3615  1.2803
39348SOL    HW235655   7.790  13.795  12.693 -0.3053 -0.0686 -0.9403
39349SOL     OW35656   6.490   2.286   7.041 -0.1716  0.1542  0.4955
39349SOL    HW135657   6.532   2.271   6.956 -1.2559 -0.7005  0.0752
39349SOL    HW235658   6.556   2.261   7.105  0.8703  1.3680 -0.0734
39350SOL     OW35659   0.733   4.800   3.447 -0.4048  0.0199 -0.3725
39350SOL    HW135660   0.765   4.882   3.411  0.7971 -1.4989 -3.1399
39350SOL    HW235661   0.812   4.747   3.461 -1.2357 -1.2912 -0.4215
39351SOL     OW35662   1.705  11.960   6.824 -0.0927  0.1910 -0.1218
39351SOL    HW135663   1.756  11.903   6.881 -0.3597  0.6741  0.6184
39351SOL    HW235664   1.618  11.919   6.821 -0.1630  0.3270  0.0599
39352SOL     OW35665   8.988   9.009  12.480 -0.4219  0.2136 -0.0673
39352SOL    HW135666   9.054   8.969  12.537 -2.1159 -2.6502  0.0967
39352SOL    HW235667   9.021   8.993  12.391 -0.7983 -1.0672  0.0136
39353SOL     OW35668  13.641   1.547   5.384 -0.9564 -0.3577  0.5394
39353SOL    HW135669  13.639   1.465   5.335 -0.2410 -1.2960  2.0041
39353SOL    HW235670  13.614   1.523   5.473  1.1410  0.5613  1.5111
39354SOL     OW35671  13.762  13.601   4.006  0.0226 -0.1183  0.0918
39354SOL    HW135672  13.738  13.541   4.076 -0.5995 -0.3990 -0.3489
39354SOL    HW235673  13.681  13.616   3.957  0.0499  1.4722  0.4703
39355SOL     OW35674   7.294  10.910   1.461  0.1880 -0.1304  0.4471
39355SOL    HW135675   7.241  10.883   1.536 -0.9278 -0.2371 -0.3572
39355SOL    HW235676   7.271  11.002   1.447 -2.3289 -0.9645 -1.8659
39356SOL     OW35677   8.614   4.212   7.044 -0.0535  0.1821 -0.1667
39356SOL    HW135678   8.609   4.280   7.112 -0.4709  0.5302 -0.5374
39356SOL    HW235679   8.694   4.231   6.996  1.1657 -1.0635  1.2510
39357SOL     OW35680   8.805  12.345  10.173 -0.7163 -0.0623 -0.4020
39357SOL    HW135681   8.824  12.256  10.146 -1.3346 -0.3166 -0.0189
39357SOL    HW235682   8.747  12.379  10.104 -0.2112  0.1601 -0.7218
39358SOL     OW35683   5.356   7.299  13.428 -0.2310 -0.3355  0.0085
39358SOL    HW135684   5.391   7.237  13.364  0.2386  0.2320 -0.2963
39358SOL    HW235685   5.389   7.384  13.399 -3.0264  0.4839 -1.1512
39359SOL     OW35686   6.090   6.267   3.362  0.0933  0.2710  0.6432
39359SOL    HW135687   6.091   6.175   3.385  1.3506  0.5046  1.6185
39359SOL    HW235688   6.159   6.276   3.296 -0.2412  0.4595  0.3153
39360SOL     OW35689   4.632  12.834   3.121 -0.1212 -0.2559 -0.0439
39360SOL    HW135690   4.710  12.784   3.146  0.9644  0.9562 -0.8740
39360SOL    HW235691   4.663  12.894   3.053 -1.6336  0.7172  0.0807
39361SOL     OW35692   8.351   4.468   4.776 -0.3418  0.1214 -0.0398
39361SOL    HW135693   8.288   4.457   4.847 -0.0115  0.1903  0.2669
39361SOL    HW235694   8.360   4.381   4.738  1.1166 -0.4235  1.4091
39362SOL     OW35695  10.674  10.545   4.096 -0.0562  0.2157 -0.0805
39362SOL    HW135696  10.741  10.482   4.070 -0.4659 -0.4815  0.5373
39362SOL    HW235697  10.670  10.606   4.022 -0.4902 -1.1517 -1.2419
39363SOL     OW35698   4.346   5.526  11.562 -0.0081 -0.1539  0.2983
39363SOL    HW135699   4.327   5.616  11.589 -0.8341  0.0449 -0.8555
39363SOL    HW235700   4.281   5.507  11.494  0.2652 -1.5670  0.3980
39364SOL     OW35701   1.302  13.604  11.965  0.1245  0.5901 -0.3659
39364SOL    HW135702   1.393  13.587  11.939  0.2478 -1.3769  1.1537
39364SOL    HW235703   1.308  13.637  12.054 -0.6876 -0.6521  0.1725
39365SOL     OW35704   0.670   3.360   9.487  0.1429  0.0471 -0.5578
39365SOL    HW135705   0.576   3.342   9.483  0.0767 -0.2799  1.4422
39365SOL    HW235706   0.697   3.367   9.395 -1.2289 -3.0453 -1.3321
39366SOL     OW35707   9.146  10.846  13.724 -0.0573 -0.7530  0.0058
39366SOL    HW135708   9.105  10.851  13.811  0.7442 -1.3678  0.4274
39366SOL    HW235709   9.171  10.937  13.705 -0.3478 -0.5948  0.3586
39367SOL     OW35710   4.886  14.048  12.299 -0.1306 -0.2907 -0.2161
39367SOL    HW135711   4.862  14.134  12.265 -0.6215 -0.0415  0.7105
39367SOL    HW235712   4.981  14.047  12.296 -0.1421  0.0222 -0.8583
39368SOL     OW35713   8.641   0.849  10.367 -0.6617 -0.4489 -0.0691
39368SOL    HW135714   8.547   0.841  10.377 -0.8423  0.0674 -1.2092
39368SOL    HW235715   8.659   0.813  10.280  0.0057  0.6835 -0.4208
39369SOL     OW35716  10.222   1.227  10.159  0.0729  0.1673 -0.0725
39369SOL    HW135717  10.314   1.224  10.132  0.7770 -2.1639  2.1291
39369SOL    HW235718  10.174   1.187  10.087  1.2047 -1.2598 -0.0815
39370SOL     OW35719  12.800   7.455   3.967 -0.4764  0.2327 -0.0881
39370SOL    HW135720  12.798   7.456   3.872  0.4333 -1.0128 -0.1545
39370SOL    HW235721  12.737   7.388   3.992  1.1996 -1.3990  0.0233
39371SOL     OW35722  13.080   7.727   6.265 -0.5055 -0.1726 -0.5603
39371SOL    HW135723  12.988   7.706   6.279 -0.4282 -0.7877 -0.9485
39371SOL    HW235724  13.084   7.756   6.174 -0.2615 -0.4560 -0.6398
39372SOL     OW35725   9.920   6.754   1.904 -0.3214 -0.8446  0.4255
39372SOL    HW135726   9.897   6.722   1.817  2.4471 -1.8284 -0.0494
39372SOL    HW235727   9.877   6.693   1.965 -1.2336 -0.8974 -0.2526
39373SOL     OW35728  12.929   5.257   3.160  0.6072 -0.6490  0.0347
39373SOL    HW135729  12.899   5.346   3.141 -0.2330 -0.5240  1.7631
39373SOL    HW235730  13.013   5.269   3.204  0.9716 -0.7616 -0.6316
39374SOL     OW35731   8.380   0.696  10.841  0.6167 -0.1984 -0.0262
39374SOL    HW135732   8.285   0.704  10.828  0.3402  0.9279  2.2711
39374SOL    HW235733   8.393   0.604  10.863  0.3065 -0.7095 -1.8088
39375SOL     OW35734   1.613  13.531   3.961 -0.2385  0.4109  0.3209
39375SOL    HW135735   1.695  13.532   3.911  0.2593 -1.0038  1.0573
39375SOL    HW235736   1.587  13.623   3.966  0.9263  0.8138 -0.5241
39376SOL     OW35737   7.008   5.605   6.452 -0.2571  0.7352  0.0302
39376SOL    HW135738   6.970   5.683   6.492  0.9560  1.4658 -0.2246
39376SOL    HW235739   7.075   5.638   6.392 -0.8377 -0.4264 -1.3072
39377SOL     OW35740   9.456   8.216   7.167 -0.0646 -0.1112 -0.4761
39377SOL    HW135741   9.412   8.154   7.110  1.1280 -0.2413 -1.2844
39377SOL    HW235742   9.418   8.200   7.254 -1.3451 -0.4319 -1.0700
39378SOL     OW35743   3.998   7.519  12.924 -0.0884 -0.3471 -0.0581
39378SOL    HW135744   4.034   7.588  12.980 -0.2752 -0.2951 -0.0011
39378SOL    HW235745   3.910   7.551  12.901  0.0598 -0.2759 -0.5386
39379SOL     OW35746  12.779   8.380  13.835  0.2189 -0.0140 -0.6073
39379SOL    HW135747  12.844   8.329  13.786  0.0910 -0.8160  0.0537
39379SOL    HW235748  12.708   8.319  13.851 -0.4377  0.6949 -0.7849
39380SOL     OW35749   7.117   7.828  10.411 -0.3371  0.0023 -0.0912
39380SOL    HW135750   7.196   7.875  10.434  0.9836 -3.2464  2.9374
39380SOL    HW235751   7.147   7.757  10.354 -1.1188 -0.9194  0.6047
39381SOL     OW35752  11.681   3.918   2.784 -0.0126  0.4546 -0.0491
39381SOL    HW135753  11.587   3.917   2.801  0.4147  0.9157  2.8669
39381SOL    HW235754  11.707   4.009   2.797  0.7305  0.5985 -2.0581
39382SOL     OW35755   2.656   4.390  11.438  0.0683 -0.0478  0.0249
39382SOL    HW135756   2.717   4.334  11.486 -0.6550 -0.4455  0.4975
39382SOL    HW235757   2.694   4.477  11.443  0.3664 -0.2108  0.7089
39383SOL     OW35758  13.203   8.024   9.846  0.5475 -0.0402  0.0928
39383SOL    HW135759  13.135   8.034   9.779  1.4063  3.4445 -0.4420
39383SOL    HW235760  13.269   7.968   9.806  0.5461  1.1273 -1.6283
39384SOL     OW35761   3.609   0.928  10.339 -0.2963  0.0386 -0.4892
39384SOL    HW135762   3.562   0.939  10.422 -0.0410 -0.6739 -0.2336
39384SOL    HW235763   3.541   0.913  10.274 -0.4818  0.2172 -0.3349
39385SOL     OW35764   4.396   0.130   8.103  0.2071  0.4402 -0.3723
39385SOL    HW135765   4.324   0.125   8.166  0.4557  0.4363 -0.0891
39385SOL    HW235766   4.400   0.043   8.064 -0.2771  0.5867 -0.7629
39386SOL     OW35767   2.821  11.405   8.826  0.0186  0.1880  0.3581
39386SOL    HW135768   2.739  11.389   8.874 -0.0297  1.5445  0.7527
39386SOL    HW235769   2.856  11.317   8.810 -1.3410 -0.4017  0.4713
39387SOL     OW35770  12.153   3.400   8.620  0.0050 -0.1680 -0.0395
39387SOL    HW135771  12.205   3.476   8.595 -0.6756  0.1903 -0.4058
39387SOL    HW235772  12.062   3.431   8.614 -0.2851  0.2583  3.6675
39388SOL     OW35773   5.476   8.490   0.110  0.5995 -0.0612 -0.0925
39388SOL    HW135774   5.483   8.541   0.029  2.8138  1.7907  1.1728
39388SOL    HW235775   5.384   8.499   0.136  0.0382 -0.0356 -1.9431
39389SOL     OW35776   1.627   7.479   3.007 -0.6939  0.3477  0.1531
39389SOL    HW135777   1.662   7.435   2.929  0.4672 -0.0042  0.8448
39389SOL    HW235778   1.655   7.570   2.997 -1.0307  0.4249 -0.1074
39390SOL     OW35779  11.267  13.495   2.389  0.2675 -0.5335  0.0208
39390SOL    HW135780  11.254  13.465   2.479 -2.2035 -1.2413 -0.4921
39390SOL    HW235781  11.208  13.570   2.380  0.8353 -0.1753 -0.8779
39391SOL     OW35782   8.218  13.213  12.266  0.2431  0.1697 -0.2334
39391SOL    HW135783   8.283  13.178  12.205 -0.5465  0.3457 -1.2048
39391SOL    HW235784   8.269  13.248  12.338  1.2188  0.1773 -0.9065
39392SOL     OW35785   4.123   6.044  11.483  0.1330 -0.1341 -0.1448
39392SOL    HW135786   4.205   6.093  11.489  1.5975 -2.0315 -2.5413
39392SOL    HW235787   4.121   5.991  11.562  1.4808 -0.3829 -0.2511
39393SOL     OW35788   9.332  13.977   2.083  0.0811  0.3974 -0.1377
39393SOL    HW135789   9.278  14.008   2.156 -0.3528  0.6095 -0.5452
39393SOL    HW235790   9.382  13.904   2.119 -1.2639 -0.4931 -0.0420
39394SOL     OW35791   7.122   8.994   5.284 -0.3835  0.1273 -0.0594
39394SOL    HW135792   7.116   9.086   5.257  1.1815 -0.0807 -1.2299
39394SOL    HW235793   7.163   8.950   5.210  2.0939 -0.8794  1.7877
39395SOL     OW35794   1.262   7.727   1.309  0.0479 -0.5658  0.3351
39395SOL    HW135795   1.275   7.655   1.372 -2.6240 -2.3502 -0.9600
39395SOL    HW235796   1.323   7.708   1.238  0.9986 -0.1990  1.0369
39396SOL     OW35797   5.594   1.370   2.474  0.2355 -0.4110 -0.0923
39396SOL    HW135798   5.514   1.317   2.474 -0.5490  0.6605  2.0341
39396SOL    HW235799   5.580   1.434   2.405 -1.1005  0.2197  0.7247
39397SOL     OW35800  10.088  10.683   1.752  0.0596  0.3099 -0.0645
39397SOL    HW135801  10.096  10.588   1.748 -0.4020  0.2944 -0.8235
39397SOL    HW235802  10.074  10.710   1.661 -1.4962  0.9341  0.3271
39398SOL     OW35803   7.694   0.617  10.273  0.4337  0.0572  0.1178
39398SOL    HW135804   7.673   0.709  10.260  2.3790  0.4884 -0.3481
39398SOL    HW235805   7.668   0.574  10.192 -0.8456  0.0917  0.4866
39399SOL     OW35806  12.077   5.515  10.823  0.1843 -1.1624 -0.6687
39399SOL    HW135807  12.170   5.513  10.847  0.0631  0.1027 -0.0239
39399SOL    HW235808  12.076   5.487  10.731  1.2229 -0.9698 -0.7528
39400SOL     OW35809   7.968   9.698   6.407 -0.2432  0.4483 -0.0861
39400SOL    HW135810   7.911   9.769   6.377  0.5737  0.8315 -0.7694
39400SOL    HW235811   7.920   9.658   6.480 -0.1078  2.5615  1.2372
39401SOL     OW35812   1.751  12.065   5.323 -0.5464 -0.2101 -0.5716
39401SOL    HW135813   1.779  12.064   5.414 -1.8900 -1.1769 -0.1428
39401SOL    HW235814   1.831  12.052   5.273  0.2106  0.3571  0.4533
39402SOL     OW35815  12.128   9.900  10.253  0.6315 -0.6476  0.2827
39402SOL    HW135816  12.217   9.933  10.262  0.4133 -0.0350  0.2214
39402SOL    HW235817  12.133   9.809  10.281  1.2085 -0.5163  0.6091
39403SOL     OW35818   8.387   7.595  13.015 -0.0092  0.0932  0.1131
39403SOL    HW135819   8.419   7.668  13.068  0.1109  0.8516 -0.9771
39403SOL    HW235820   8.457   7.579  12.952 -0.2014 -0.7186  0.0945
39404SOL     OW35821   7.563  13.919   8.885 -0.4109  0.0762  0.2346
39404SOL    HW135822   7.629  13.987   8.873 -1.8472  1.4257 -0.2428
39404SOL    HW235823   7.547  13.886   8.796  0.0735 -0.7213  0.4302
39405SOL     OW35824   5.924   2.075   7.651 -0.8665  0.9651 -0.3153
39405SOL    HW135825   5.961   2.005   7.597 -1.7430 -0.3637  0.7546
39405SOL    HW235826   5.964   2.063   7.737 -3.6317 -0.5143  0.8887
39406SOL     OW35827  12.319   8.101   3.774 -0.4721  0.6863  0.0219
39406SOL    HW135828  12.366   8.104   3.858  0.1478  1.4113 -0.3461
39406SOL    HW235829  12.249   8.165   3.784 -1.5946 -0.5900  0.6724
39407SOL     OW35830   1.170  10.460  12.472  0.4119  0.2766 -0.4499
39407SOL    HW135831   1.089  10.410  12.474  1.0048 -0.7618 -1.3276
39407SOL    HW235832   1.223  10.423  12.543  0.7913 -0.2340 -0.9995
39408SOL     OW35833   1.784   7.976   0.919  0.3949  0.3623 -0.7256
39408SOL    HW135834   1.699   8.013   0.895 -0.1485 -0.0253  0.5428
39408SOL    HW235835   1.825   7.955   0.835  0.7308  3.7431 -1.5877
39409SOL     OW35836   3.600   0.514  10.250  0.1303  0.2569  0.1540
39409SOL    HW135837   3.511   0.488  10.227  0.0327  0.1104  0.6682
39409SOL    HW235838   3.647   0.516  10.167 -0.0778 -0.7314  0.0017
39410SOL     OW35839   3.253  11.514   5.149  0.5012  0.0206 -0.2745
39410SOL    HW135840   3.213  11.536   5.065  0.5490  0.2393 -0.2410
39410SOL    HW235841   3.341  11.482   5.127  0.3483 -0.3644 -0.3411
39411SOL     OW35842   7.262   4.425   8.937  0.1843  0.2575 -0.3925
39411SOL    HW135843   7.330   4.459   8.995  0.6617 -1.3404  0.0470
39411SOL    HW235844   7.215   4.361   8.991  0.7335 -1.3950 -1.7819
39412SOL     OW35845   8.612  11.620   8.758  0.0675  0.7761 -0.1704
39412SOL    HW135846   8.622  11.586   8.847  1.9504  0.9968 -0.2705
39412SOL    HW235847   8.700  11.619   8.722 -0.4155  2.2467 -1.4844
39413SOL     OW35848   9.338   6.366  11.805 -0.2139  0.0564  0.7162
39413SOL    HW135849   9.346   6.302  11.734  1.4284  0.1736  0.7640
39413SOL    HW235850   9.273   6.328  11.865  0.0657 -1.1268  0.2922
39414SOL     OW35851   0.691  11.704   8.966 -0.0212  0.5816  0.1214
39414SOL    HW135852   0.660  11.674   8.880 -1.2028  1.0369  0.3836
39414SOL    HW235853   0.625  11.766   8.996  0.0149 -0.0923  1.6849
39415SOL     OW35854   8.509   8.050   9.058 -0.2105 -0.0259 -0.2885
39415SOL    HW135855   8.539   7.962   9.081  0.8494  0.1685 -0.8345
39415SOL    HW235856   8.520   8.100   9.139 -1.4148 -0.5218  0.2006
39416SOL     OW35857  10.575   6.485   6.725  0.3549  0.2417  0.0539
39416SOL    HW135858  10.550   6.569   6.686 -0.0044 -0.1626 -0.6035
39416SOL    HW235859  10.658   6.463   6.683  1.6229  1.3135  1.8346
39417SOL     OW35860   3.382   5.503   1.997  0.0897  0.1618  0.2133
39417SOL    HW135861   3.478   5.510   1.999  0.1466 -0.7022  0.8462
39417SOL    HW235862   3.363   5.426   2.050 -0.9987  0.6949  0.6195
39418SOL     OW35863   7.897   6.751   3.166 -0.5560  0.7643 -0.1674
39418SOL    HW135864   7.974   6.746   3.224 -1.7036  0.3517  1.3905
39418SOL    HW235865   7.904   6.836   3.124 -0.0665  1.4040  1.1610
39419SOL     OW35866   0.188   2.541   0.192 -0.0685 -0.5832 -0.1900
39419SOL    HW135867   0.215   2.619   0.144 -0.6398 -0.4490 -0.2982
39419SOL    HW235868   0.203   2.563   0.284 -0.9678 -0.0460 -0.1634
39420SOL     OW35869  10.795   5.593   0.650  0.3341 -0.3224  0.1008
39420SOL    HW135870  10.868   5.562   0.704  0.2329  0.3399  0.6270
39420SOL    HW235871  10.830   5.669   0.603  0.5723 -1.1827 -1.1611
39421SOL     OW35872   4.014  13.625   7.915  0.7450  0.3779 -0.1341
39421SOL    HW135873   4.034  13.716   7.893  0.1223  0.7211  0.6749
39421SOL    HW235874   4.065  13.607   7.994  1.8830 -0.4078 -1.0079
39422SOL     OW35875   2.714  11.696   2.633 -0.1756 -0.3152 -0.5184
39422SOL    HW135876   2.675  11.713   2.719 -0.5749 -0.6065 -0.6420
39422SOL    HW235877   2.805  11.725   2.642 -0.0821 -0.7962  0.1520
39423SOL     OW35878   2.302   8.401   1.168  0.2340  0.0756  0.0495
39423SOL    HW135879   2.284   8.318   1.125  0.8315 -0.8072  1.4202
39423SOL    HW235880   2.397   8.406   1.175  0.2058  0.8268  0.0748
39424SOL     OW35881   2.159   8.165  11.202  0.4962  0.0396  0.8004
39424SOL    HW135882   2.096   8.209  11.259  1.1963  0.7723  1.0128
39424SOL    HW235883   2.244   8.195  11.232  1.0451 -1.8566  1.2901
39425SOL     OW35884  10.934  11.825   9.069  0.7250 -0.0038 -0.0675
39425SOL    HW135885  10.968  11.912   9.047  0.3673  0.4521  1.0995
39425SOL    HW235886  10.841  11.830   9.048  0.9975 -0.6850 -1.6038
39426SOL     OW35887   5.124  10.463   8.508 -0.8031  0.2154 -0.3103
39426SOL    HW135888   5.104  10.426   8.594 -0.6115  1.1378  0.1428
39426SOL    HW235889   5.049  10.438   8.454 -1.2982  0.2809  0.3311
39427SOL     OW35890   1.316  10.802   9.984  0.4814 -0.3719 -0.2361
39427SOL    HW135891   1.356  10.868   9.927  1.4491 -0.4693  0.3052
39427SOL    HW235892   1.381  10.788  10.053  0.0145 -1.4259  0.0076
39428SOL     OW35893   5.733  11.980   1.279 -0.0038  0.5261 -0.2171
39428SOL    HW135894   5.675  12.052   1.303 -0.2669  0.0736  0.5457
39428SOL    HW235895   5.696  11.904   1.325  2.2780  0.5775  1.8654
39429SOL     OW35896  11.214   2.232  10.069 -0.2691 -0.1465  0.0825
39429SOL    HW135897  11.210   2.265   9.979 -0.1422 -0.6441 -0.1050
39429SOL    HW235898  11.209   2.137  10.060  0.0864 -0.2146  0.5802
39430SOL     OW35899   4.160  12.481   9.799 -0.4681  0.2552  0.3933
39430SOL    HW135900   4.231  12.462   9.860 -0.6274 -1.1827  0.1484
39430SOL    HW235901   4.106  12.402   9.799 -1.6335  1.0249 -0.0361
39431SOL     OW35902   0.561   7.455  13.790 -0.3005 -0.6713 -0.0692
39431SOL    HW135903   0.588   7.365  13.771 -1.0008 -1.4339  2.1624
39431SOL    HW235904   0.634   7.509  13.762  0.9198 -2.1023  0.2301
39432SOL     OW35905   2.269   5.443  10.932  0.1979 -0.2071 -0.5721
39432SOL    HW135906   2.345   5.496  10.955  0.1859 -0.3846 -0.0978
39432SOL    HW235907   2.228   5.489  10.859  0.4533  0.1807 -0.4739
39433SOL     OW35908   9.510   6.617  10.378  0.2468  0.2519  0.5500
39433SOL    HW135909   9.511   6.557  10.303  1.4470 -0.4916  1.1273
39433SOL    HW235910   9.468   6.696  10.345 -2.3608 -1.2016  0.0304
39434SOL     OW35911  12.255  11.540   0.250 -0.5246  0.6741 -0.8572
39434SOL    HW135912  12.253  11.445   0.260 -0.3812  0.5780 -1.6435
39434SOL    HW235913  12.210  11.574   0.327 -0.5186 -0.0290 -0.5388
39435SOL     OW35914  11.629   1.453  11.895 -0.3889  0.0153 -0.2809
39435SOL    HW135915  11.673   1.465  11.979 -1.3909  0.0393  0.2564
39435SOL    HW235916  11.581   1.535  11.882  0.1728  0.2202 -1.1410
39436SOL     OW35917   9.051   8.307   4.678 -0.1684  0.1324  0.5000
39436SOL    HW135918   9.125   8.334   4.732 -0.3721  3.7731 -0.7691
39436SOL    HW235919   9.075   8.334   4.590 -2.0492 -0.7972 -0.3491
39437SOL     OW35920   2.715  11.891  11.919  0.1775 -0.9497 -0.0862
39437SOL    HW135921   2.731  11.939  11.838 -1.6026 -0.9121 -0.4592
39437SOL    HW235922   2.686  11.957  11.982  1.7618 -0.9432  0.6868
39438SOL     OW35923   4.906   9.803   0.123 -0.3087  0.2681 -0.3096
39438SOL    HW135924   4.926   9.892   0.151 -0.0769  0.3324 -0.6799
39438SOL    HW235925   4.899   9.754   0.205  0.6390  0.3964 -0.1338
39439SOL     OW35926  10.698   9.682   9.094 -0.5807  0.3725  0.5205
39439SOL    HW135927  10.691   9.588   9.113 -1.7338  0.3522  0.0572
39439SOL    HW235928  10.610   9.708   9.067 -0.0896  1.4173 -0.1448
39440SOL     OW35929   2.315   2.208  14.045  0.1468 -0.3420  0.2819
39440SOL    HW135930   2.264   2.287  14.025  0.2020 -0.6245 -1.0038
39440SOL    HW235931   2.376   2.237  14.114  0.3032  0.8048 -0.3053
39441SOL     OW35932  10.064  11.594   8.785 -0.5212 -0.1853  0.3965
39441SOL    HW135933  10.007  11.640   8.724  2.9285  2.0685 -1.4194
39441SOL    HW235934  10.058  11.644   8.867 -0.6073  0.4702 -0.0073
39442SOL     OW35935   6.113   0.471  11.260 -0.2207  0.6957 -0.3462
39442SOL    HW135936   6.020   0.492  11.255 -1.2007 -3.0724 -1.2397
39442SOL    HW235937   6.116   0.380  11.291  3.1676  0.6090 -0.5094
39443SOL     OW35938   6.572   6.465   4.066 -0.3836 -0.3520 -0.2544
39443SOL    HW135939   6.657   6.421   4.070 -0.1233  0.1738  0.1801
39443SOL    HW235940   6.593   6.558   4.078 -1.1848 -0.3807  1.6780
39444SOL     OW35941   1.351   1.570  11.984 -0.7729  0.5014  0.3113
39444SOL    HW135942   1.277   1.565  12.044 -1.9436  1.3358 -0.9969
39444SOL    HW235943   1.329   1.642  11.925  1.6083  1.5242  0.5333
39445SOL     OW35944  11.454   8.456   9.703 -0.2759 -0.5727 -0.0272
39445SOL    HW135945  11.487   8.379   9.749  2.2764  0.4492 -0.0124
39445SOL    HW235946  11.476   8.440   9.611 -0.9492 -0.4302 -0.2225
39446SOL     OW35947   1.910  13.382   0.343 -0.1428 -0.0010  0.0746
39446SOL    HW135948   1.965  13.323   0.393  0.6017 -0.6738 -1.4575
39446SOL    HW235949   1.932  13.469   0.375  1.7447 -0.2650 -0.3847
39447SOL     OW35950  11.443   2.428   8.101 -0.2125 -0.2624  0.1501
39447SOL    HW135951  11.521   2.396   8.054  0.2138  1.5172 -0.4499
39447SOL    HW235952  11.378   2.359   8.089  0.8121 -1.1495 -0.5755
39448SOL     OW35953   1.580   4.481   2.309  0.2503  0.0375  0.1531
39448SOL    HW135954   1.633   4.403   2.292 -2.9432 -2.9486  2.3030
39448SOL    HW235955   1.604   4.507   2.398 -0.9987 -0.6454  0.7119
39449SOL     OW35956  10.882   5.822   8.302  0.1279  0.2611  0.6196
39449SOL    HW135957  10.792   5.828   8.335  0.5073 -0.6723  1.8988
39449SOL    HW235958  10.925   5.902   8.334  0.6258 -0.8656  2.9230
39450SOL     OW35959   0.912   7.837   2.122  0.3859  0.2003  0.2032
39450SOL    HW135960   0.991   7.844   2.175 -0.4559  0.0449  1.5303
39450SOL    HW235961   0.944   7.817   2.034  1.9435  2.6846  0.1141
39451SOL     OW35962   0.639   8.356  10.777  0.1318 -0.4868  0.0021
39451SOL    HW135963   0.651   8.441  10.733  1.4170 -1.0737 -0.8263
39451SOL    HW235964   0.696   8.361  10.854  1.0875 -0.9809 -0.6443
39452SOL     OW35965   7.650   9.427  13.195 -0.2435 -0.2178 -0.5749
39452SOL    HW135966   7.596   9.500  13.164  0.1476  0.4461  0.2733
39452SOL    HW235967   7.659   9.441  13.289  1.8540  0.0381 -0.7455
39453SOL     OW35968   3.719  13.193  12.708 -0.0373 -0.3224  0.4523
39453SOL    HW135969   3.631  13.196  12.669 -0.6133  2.2638  1.6971
39453SOL    HW235970   3.719  13.114  12.762  0.0199 -2.7750 -2.8046
39454SOL     OW35971   2.272   0.601  13.951 -0.6261 -0.2879 -0.3831
39454SOL    HW135972   2.234   0.516  13.973 -0.3173 -0.6189 -1.1026
39454SOL    HW235973   2.223   0.631  13.874 -0.1088 -0.2543 -0.7044
39455SOL     OW35974   1.442   4.614  12.364  0.1760  0.5450  0.2233
39455SOL    HW135975   1.488   4.530  12.354 -1.4611 -0.1829 -2.6964
39455SOL    HW235976   1.496   4.677  12.317  0.6068  0.7905  1.0374
39456SOL     OW35977   6.410   6.181   8.930 -0.5183 -0.7460 -0.0392
39456SOL    HW135978   6.382   6.139   8.848 -0.6983 -2.8770  1.0519
39456SOL    HW235979   6.329   6.200   8.976 -0.3765 -2.2548  0.8931
39457SOL     OW35980   6.592  10.109   2.618  0.7914  1.0224  0.0760
39457SOL    HW135981   6.519  10.170   2.633 -0.2520 -0.4315  1.2783
39457SOL    HW235982   6.566  10.029   2.664  2.9280  0.2631  0.0879
39458SOL     OW35983   8.122   0.626   4.918  0.0806 -0.4032  0.1608
39458SOL    HW135984   8.122   0.530   4.909  1.6310 -0.3186 -1.5034
39458SOL    HW235985   8.152   0.642   5.008  0.9177 -1.5063  0.1045
39459SOL     OW35986  10.675  12.703   3.855  0.5501 -0.6702 -0.1429
39459SOL    HW135987  10.767  12.677   3.859  1.2552  1.7178  1.1192
39459SOL    HW235988  10.655  12.732   3.944 -0.6385  1.2291 -0.9681
39460SOL     OW35989   7.001   9.954  11.234  0.1103  0.1568 -0.1574
39460SOL    HW135990   6.911   9.955  11.265  0.3139 -1.7383  0.6472
39460SOL    HW235991   6.995   9.974  11.141 -1.0517  0.8413  0.0489
39461SOL     OW35992   2.237  14.034  14.055 -0.1409  0.4146  0.3283
39461SOL    HW135993   2.263  13.982  14.131  0.1083  0.6232  0.3884
39461SOL    HW235994   2.304  14.102  14.049  0.6383 -0.4232 -0.9144
39462SOL     OW35995  11.838   4.423   9.064 -0.2885  0.7307 -0.6219
39462SOL    HW135996  11.753   4.391   9.093 -1.1091  2.4309 -1.0342
39462SOL    HW235997  11.854   4.378   8.981 -1.2887  1.1764 -1.0655
39463SOL     OW35998   6.366   6.361   9.594 -0.2105 -0.0180  0.9202
39463SOL    HW135999   6.271   6.358   9.582 -0.2306  1.5417  0.5391
39463SOL    HW236000   6.395   6.271   9.577 -1.4710 -0.2464 -0.1460
39464SOL     OW36001   0.234   8.244   0.405  0.0146  0.0006  0.3570
39464SOL    HW136002   0.322   8.213   0.423 -0.1214 -0.2447  0.6241
39464SOL    HW236003   0.211   8.296   0.483 -0.2950 -0.4284  0.5567
39465SOL     OW36004   6.279   9.884  11.204 -0.2649  0.1405  0.5440
39465SOL    HW136005   6.313   9.857  11.289  1.9353 -0.5392 -0.4821
39465SOL    HW236006   6.328   9.832  11.140 -1.1680  1.3013 -1.1921
39466SOL     OW36007   4.241   3.164   9.571  0.6594  0.3237  0.1204
39466SOL    HW136008   4.270   3.108   9.643 -0.5387 -0.5661 -0.0596
39466SOL    HW236009   4.145   3.164   9.578  0.5316  0.2510 -1.4532
39467SOL     OW36010  11.770   3.220   5.036  0.1827  0.3194  0.7682
39467SOL    HW136011  11.723   3.190   5.114 -1.4840 -0.8285 -0.5886
39467SOL    HW236012  11.828   3.146   5.013 -1.3187 -0.5020 -0.5626
39468SOL     OW36013   7.541   4.570   1.337 -0.4045  0.1991  0.4999
39468SOL    HW136014   7.493   4.492   1.363 -0.1311  0.2866  1.3329
39468SOL    HW236015   7.597   4.542   1.265 -0.2666 -0.3979  0.8299
39469SOL     OW36016  11.729   0.946   0.575  0.4673 -0.3886 -0.6736
39469SOL    HW136017  11.782   0.924   0.651  1.6682  0.2143 -1.3078
39469SOL    HW236018  11.639   0.926   0.601  0.9339 -0.8327  0.6482
39470SOL     OW36019   9.510   9.564   3.120 -0.7909  0.3949 -0.2093
39470SOL    HW136020   9.537   9.648   3.157 -0.6951 -0.2850  1.3622
39470SOL    HW236021   9.417   9.557   3.143 -0.3605 -0.7316  1.3826
39471SOL     OW36022   6.564   7.418   4.347  0.4479  0.1036  0.3798
39471SOL    HW136023   6.504   7.356   4.387  1.0269 -0.2348  0.7348
39471SOL    HW236024   6.650   7.376   4.353  0.6954  0.4905 -0.2996
39472SOL     OW36025   7.327   2.151  10.917  0.3187  0.7472  0.1624
39472SOL    HW136026   7.242   2.174  10.881  0.1225  0.7495  0.6217
39472SOL    HW236027   7.328   2.193  11.003  1.3146  1.8975 -0.3767
39473SOL     OW36028  11.209   4.386   0.262 -0.5264  0.1172 -0.5681
39473SOL    HW136029  11.248   4.473   0.271 -2.4889  0.8398  3.0674
39473SOL    HW236030  11.127   4.402   0.214  0.1716 -0.1737 -1.8970
39474SOL     OW36031   8.189   0.495   2.799  0.0730  0.2571 -0.3940
39474SOL    HW136032   8.119   0.558   2.813  0.7461  0.5274  2.1160
39474SOL    HW236033   8.145   0.409   2.800 -0.1575  0.3175  2.5732
39475SOL     OW36034  11.069  13.159   7.221  0.4649  0.9815  0.3481
39475SOL    HW136035  11.028  13.243   7.242  0.9273  0.9389  1.5174
39475SOL    HW236036  11.066  13.110   7.303 -0.9064 -0.6444 -0.6031
39476SOL     OW36037  12.710   3.308  11.248  0.6117  0.0550  0.1688
39476SOL    HW136038  12.790   3.291  11.298  0.9264 -0.1362 -0.3912
39476SOL    HW236039  12.739   3.311  11.157  0.1190  0.8687  0.0344
39477SOL     OW36040   5.900  11.216   3.137  0.1295 -0.2072  0.0882
39477SOL    HW136041   5.957  11.261   3.199  0.3006  1.0919 -0.9693
39477SOL    HW236042   5.960  11.181   3.071 -0.2571  1.5515 -1.2740
39478SOL     OW36043   5.725   2.630  11.018  0.0829 -0.2617  0.0705
39478SOL    HW136044   5.731   2.631  11.113  0.1591 -2.1821  0.1312
39478SOL    HW236045   5.796   2.688  10.988  0.2202  0.1488  1.1665
39479SOL     OW36046   2.645   3.660  12.371  0.3213  0.5790  0.1983
39479SOL    HW136047   2.613   3.596  12.435  0.1535 -0.3330 -0.7746
39479SOL    HW236048   2.648   3.743  12.420  1.8708 -0.3955  1.8844
39480SOL     OW36049  13.654   0.569   1.751  0.6948  0.7211 -0.3886
39480SOL    HW136050  13.688   0.494   1.702  1.5957  0.6478  0.3262
39480SOL    HW236051  13.638   0.534   1.839 -0.3425  0.9956 -0.4637
39481SOL     OW36052  12.705  10.910   3.065  0.6012 -0.0629 -0.3169
39481SOL    HW136053  12.678  10.876   3.150 -0.4966  0.0676 -0.6013
39481SOL    HW236054  12.789  10.866   3.047  0.3123 -0.9097  0.3401
39482SOL     OW36055   1.746   6.092   2.360  0.2655  0.6065 -0.2200
39482SOL    HW136056   1.839   6.086   2.340  0.7737  3.1463  1.0350
39482SOL    HW236057   1.742   6.134   2.446 -2.0302 -0.7393  0.4237
39483SOL     OW36058   5.309   4.545   5.506  0.1431 -0.3684  0.1742
39483SOL    HW136059   5.325   4.454   5.482  0.1972 -0.1541 -0.6155
39483SOL    HW236060   5.317   4.546   5.601  3.2689 -0.6027  0.0227
39484SOL     OW36061   9.070  10.966   1.883 -0.3080 -0.4058  0.2382
39484SOL    HW136062   8.979  10.935   1.886 -0.2008 -0.8083 -0.4652
39484SOL    HW236063   9.123  10.887   1.881  0.0681 -0.1712  0.7225
39485SOL     OW36064  11.559   7.485   1.332 -0.0342 -0.5140 -0.2600
39485SOL    HW136065  11.471   7.524   1.340  0.7929  1.7516 -1.1856
39485SOL    HW236066  11.569   7.432   1.410 -1.7505  0.2224  0.5241
39486SOL     OW36067  13.419   7.893   9.760  0.2524  0.6023  0.0108
39486SOL    HW136068  13.455   7.928   9.842  1.2623 -1.5130  0.5295
39486SOL    HW236069  13.495   7.855   9.715 -0.6190 -0.0215 -0.9860
39487SOL     OW36070   2.759   0.547   1.777 -0.1953 -0.1378  0.2063
39487SOL    HW136071   2.793   0.511   1.694  0.9864  0.9024  0.2112
39487SOL    HW236072   2.746   0.640   1.759 -2.7705 -0.3810  0.3342
39488SOL     OW36073   8.883   1.885   5.068  0.4640  0.7415 -0.9729
39488SOL    HW136074   8.917   1.800   5.095  0.3005  0.3553 -1.9322
39488SOL    HW236075   8.820   1.909   5.136  1.5296  0.7714  0.0478
39489SOL     OW36076  13.801   5.709   0.319 -0.3361  0.0557  0.0657
39489SOL    HW136077  13.788   5.642   0.387 -0.4169  1.0081  1.0065
39489SOL    HW236078  13.725   5.766   0.327 -0.6121 -0.1006 -1.1894
39490SOL     OW36079  10.667   0.819   4.388 -0.1088  0.3582  0.6521
39490SOL    HW136080  10.597   0.800   4.326  0.8198  1.7912 -0.9399
39490SOL    HW236081  10.644   0.904   4.425  0.1396  0.2291  1.1163
39491SOL     OW36082   8.506  13.979   2.871  0.2265 -0.3241  0.2019
39491SOL    HW136083   8.525  14.072   2.860  1.6622 -0.4912  1.0887
39491SOL    HW236084   8.495  13.946   2.782  0.7872  0.4702 -0.1696
39492SOL     OW36085   0.007  13.631   3.365 -0.6076 -0.2858  0.0556
39492SOL    HW136086   0.035  13.543   3.341 -1.7110 -0.5055 -0.4925
39492SOL    HW236087  -0.010  13.626   3.459  1.3311 -0.0747  0.4708
39493SOL     OW36088   5.160   1.180   1.353  0.2001  0.5697 -0.0292
39493SOL    HW136089   5.080   1.143   1.315 -0.6440  0.3048  1.8606
39493SOL    HW236090   5.230   1.145   1.299 -0.9465  1.0078 -1.9025
39494SOL     OW36091   7.511   9.904   2.298 -0.6359 -0.4447  0.0209
39494SOL    HW136092   7.480   9.864   2.217  0.1753 -0.6729 -0.1892
39494SOL    HW236093   7.564   9.978   2.270 -0.5873 -0.3553  0.3470
39495SOL     OW36094   8.880   7.069  10.699 -0.4205 -0.1104  0.3098
39495SOL    HW136095   8.895   7.136  10.632 -0.2073 -0.4433  0.0145
39495SOL    HW236096   8.924   7.103  10.777 -1.7858  0.8934  0.6773
39496SOL     OW36097   2.608   9.395  13.074 -0.1483  0.8843 -0.3660
39496SOL    HW136098   2.521   9.434  13.078 -0.2687  0.5777  0.1181
39496SOL    HW236099   2.654   9.446  13.007 -1.2923 -0.1598 -2.0055
39497SOL     OW36100   1.258   3.409  14.036 -0.8778 -0.2922 -0.8769
39497SOL    HW136101   1.233   3.499  14.017  0.0058 -0.0332 -0.8810
39497SOL    HW236102   1.341   3.397  13.990  1.6339  0.5271  2.9819
39498SOL     OW36103   0.549   3.570  12.246 -0.0442  0.2000 -0.0401
39498SOL    HW136104   0.552   3.558  12.151 -2.2021 -2.9339  0.1263
39498SOL    HW236105   0.456   3.584  12.266 -0.1139 -2.2036  1.7763
39499SOL     OW36106   1.921   6.160  11.633  0.0464  0.2638 -0.1892
39499SOL    HW136107   1.958   6.214  11.703  0.3745  0.0099 -0.1625
39499SOL    HW236108   1.995   6.142  11.575  0.0207 -0.4498 -0.0106
39500SOL     OW36109   3.573   0.200   4.082  0.7114  0.2648 -0.4659
39500SOL    HW136110   3.574   0.225   3.990  0.5480  2.0006 -0.0418
39500SOL    HW236111   3.482   0.211   4.109  0.7570 -0.2257 -0.0938
39501SOL     OW36112   2.913   2.455  12.721 -0.5305 -0.1379  0.2663
39501SOL    HW136113   2.904   2.549  12.734  1.4898  0.2325 -0.5985
39501SOL    HW236114   2.828   2.418  12.747 -1.8925  2.0600 -0.7808
39502SOL     OW36115  12.238   7.612   0.255  0.0169 -0.1757 -0.9224
39502SOL    HW136116  12.213   7.695   0.213 -1.0151 -0.3158 -0.6284
39502SOL    HW236117  12.199   7.618   0.343 -0.7527 -1.2902 -1.1711
39503SOL     OW36118   1.270   5.564  11.246 -0.0299  0.3772 -0.6658
39503SOL    HW136119   1.318   5.647  11.249  0.9648 -0.2053 -0.0545
39503SOL    HW236120   1.265   5.537  11.338  1.1426 -1.0680 -0.9933
39504SOL     OW36121  13.730  10.169   3.873 -0.4743  0.0582 -0.0780
39504SOL    HW136122  13.777  10.102   3.823 -0.4484 -1.2102  1.5458
39504SOL    HW236123  13.737  10.248   3.820 -2.5110 -1.6819 -3.2613
39505SOL     OW36124   4.893   0.523  11.034  0.0592  0.0210 -0.5315
39505SOL    HW136125   4.869   0.549  11.123  1.5948  0.1980 -0.1481
39505SOL    HW236126   4.891   0.605  10.983  0.5625  0.1569 -0.3345
39506SOL     OW36127   0.156   4.712   4.832 -0.5127 -0.8042 -0.2081
39506SOL    HW136128   0.209   4.743   4.759 -3.0344  2.3006 -0.9832
39506SOL    HW236129   0.218   4.670   4.891  2.5878  1.4723 -1.5714
39507SOL     OW36130   3.457  11.465   0.297  0.1878  0.2537 -0.2265
39507SOL    HW136131   3.519  11.519   0.346 -0.7946 -0.3743  1.8292
39507SOL    HW236132   3.384  11.451   0.357 -0.5974 -1.5094 -1.4858
39508SOL     OW36133  12.081  13.288   2.725  0.2510  0.0963  0.2581
39508SOL    HW136134  11.985  13.284   2.733  0.1139  0.4026 -1.1012
39508SOL    HW236135  12.110  13.199   2.745 -0.4248 -0.3171 -0.5433
39509SOL     OW36136   6.999   2.414   4.110  0.3325 -0.0526  0.2232
39509SOL    HW136137   7.082   2.456   4.089 -0.5173  1.1662 -0.7939
39509SOL    HW236138   7.023   2.345   4.173  2.0292  0.5785  0.3241
39510SOL     OW36139   6.704   1.324  10.796 -0.4290  0.0923 -0.0515
39510SOL    HW136140   6.723   1.357  10.884  0.8206  0.1105 -0.3204
39510SOL    HW236141   6.756   1.244  10.788 -1.8322 -0.8497 -0.1730
39511SOL     OW36142  10.927   6.534   4.658  0.8140 -0.7255  0.1712
39511SOL    HW136143  10.837   6.507   4.636  0.7181  0.3092 -0.7760
39511SOL    HW236144  10.981   6.496   4.589  0.7101  1.2115 -1.0313
39512SOL     OW36145   2.719   7.408   0.990 -0.2401  0.3208 -0.2646
39512SOL    HW136146   2.771   7.361   1.055 -0.4282 -1.1260 -1.1269
39512SOL    HW236147   2.740   7.501   1.005 -0.4923  0.0448  2.0032
39513SOL     OW36148   3.106  11.889   6.328  0.0452 -0.2777 -0.6234
39513SOL    HW136149   3.086  11.811   6.277 -1.5943 -0.0787 -0.3246
39513SOL    HW236150   3.126  11.857   6.416 -0.1969 -0.3920 -0.6111
39514SOL     OW36151   1.946   8.820   2.026 -0.0850  0.0807 -0.2556
39514SOL    HW136152   1.995   8.739   2.039  0.1049  0.2297 -0.0229
39514SOL    HW236153   1.996   8.886   2.075 -0.8195  0.1260  0.4586
39515SOL     OW36154  11.337   3.311   0.348 -0.3816 -0.0869 -0.3907
39515SOL    HW136155  11.425   3.281   0.372 -0.5296 -0.3258 -0.1376
39515SOL    HW236156  11.311   3.253   0.277 -0.2330  0.1508 -0.6410
39516SOL     OW36157   2.714  10.699   4.851  0.6572 -0.2558  0.0290
39516SOL    HW136158   2.620  10.686   4.839  0.8150 -2.0112  0.4309
39516SOL    HW236159   2.725  10.794   4.848 -1.0723 -0.0246 -0.3709
39517SOL     OW36160   8.270  13.367  12.479 -0.1530  0.5458 -0.1459
39517SOL    HW136161   8.175  13.358  12.484 -0.2536  0.9330 -1.0537
39517SOL    HW236162   8.302  13.336  12.563 -1.0928  0.5020  0.2071
39518SOL     OW36163   3.790   0.578   6.411  0.3584 -0.9213 -0.4787
39518SOL    HW136164   3.842   0.525   6.470  2.7732 -1.5392 -2.9456
39518SOL    HW236165   3.832   0.664   6.410 -0.3780 -0.5488 -0.4093
39519SOL     OW36166   0.689   0.790   8.102  0.0466  0.5497  0.2542
39519SOL    HW136167   0.696   0.885   8.106 -1.6458  0.6879  0.8408
39519SOL    HW236168   0.595   0.773   8.098  0.3502 -1.0797 -0.7509
39520SOL     OW36169   9.464  11.059   7.722 -0.3871 -0.4368 -0.0202
39520SOL    HW136170   9.537  11.040   7.664 -0.7085 -3.2456  0.3804
39520SOL    HW236171   9.386  11.056   7.667 -0.4129  0.5017 -0.0607
39521SOL     OW36172   5.239   0.170  11.635 -0.2430  0.4557  0.2479
39521SOL    HW136173   5.264   0.161  11.543  2.4658  0.4464  0.9078
39521SOL    HW236174   5.304   0.230  11.671 -1.3804  0.6133  2.1256
39522SOL     OW36175  12.264   9.679  12.625  0.5187  0.0573  0.1644
39522SOL    HW136176  12.189   9.620  12.640  1.0278 -0.7861 -0.5157
39522SOL    HW236177  12.225   9.765  12.616 -0.2121 -0.0614  1.7376
39523SOL     OW36178   7.789   0.855  10.843  0.0665  0.0678  0.1396
39523SOL    HW136179   7.732   0.914  10.892 -0.8465 -2.0214  1.7441
39523SOL    HW236180   7.794   0.894  10.755 -2.7661  1.0477  0.3064
39524SOL     OW36181  11.839  11.868  11.192 -0.5775  0.0022 -0.2837
39524SOL    HW136182  11.853  11.960  11.217 -0.7665  0.0413 -0.3226
39524SOL    HW236183  11.753  11.846  11.228  0.6585 -1.0644  2.3105
39525SOL     OW36184  11.141  10.728   7.218 -0.2689 -0.4673  0.7821
39525SOL    HW136185  11.100  10.777   7.289  0.2516  0.9211  0.1528
39525SOL    HW236186  11.147  10.638   7.251 -2.2183 -0.3699  1.5591
39526SOL     OW36187   2.908   9.128   9.223  0.7051 -0.1619  0.3611
39526SOL    HW136188   2.978   9.076   9.264 -0.4252 -0.8107  1.5551
39526SOL    HW236189   2.907   9.099   9.132  0.9697 -1.2754  0.6964
39527SOL     OW36190   4.916  13.181   0.406  0.3140  0.2152 -0.1720
39527SOL    HW136191   4.963  13.224   0.335  1.6678  1.0710  1.1604
39527SOL    HW236192   4.949  13.224   0.485  0.5777 -2.2570  1.1461
39528SOL     OW36193   6.230   5.487  13.937  0.3567  0.0322  0.4340
39528SOL    HW136194   6.264   5.444  14.016 -0.7755 -0.2999  0.7557
39528SOL    HW236195   6.308   5.525  13.895  1.0176 -0.0862  1.5197
39529SOL     OW36196  12.218   5.162   1.054 -0.2543 -0.3017  0.4276
39529SOL    HW136197  12.133   5.120   1.041 -1.3011  1.2252  1.8524
39529SOL    HW236198  12.266   5.102   1.111 -0.8298 -0.6225  0.5764
39530SOL     OW36199   3.588  11.716  13.061 -0.3429  0.3668  0.6526
39530SOL    HW136200   3.552  11.763  13.136 -0.7696  0.6331  0.2873
39530SOL    HW236201   3.524  11.647  13.043  0.2303 -0.3047  1.1240
39531SOL     OW36202  11.455  11.013  11.841  0.0107 -0.1959 -0.0114
39531SOL    HW136203  11.417  10.932  11.875  0.2060 -0.3296 -0.1159
39531SOL    HW236204  11.504  10.986  11.764  1.1743 -0.1721  0.7018
39532SOL     OW36205  12.617   5.675  11.342  0.6411 -0.4187 -0.2065
39532SOL    HW136206  12.553   5.604  11.330  1.5810 -1.6214  1.5433
39532SOL    HW236207  12.669   5.673  11.262  1.3870 -2.5239  0.2575
39533SOL     OW36208   8.700   9.044   3.566  0.0487 -0.2221 -0.4265
39533SOL    HW136209   8.715   8.951   3.584  1.3306 -0.2451 -1.4811
39533SOL    HW236210   8.755   9.089   3.629 -0.0228 -0.1913 -0.3864
39534SOL     OW36211   1.083   4.812   2.660  0.1621  0.0019 -0.0146
39534SOL    HW136212   1.020   4.883   2.643 -0.2953 -0.7650 -1.7760
39534SOL    HW236213   1.169   4.853   2.651 -0.0672  0.8690  1.5163
39535SOL     OW36214  12.672  13.369  11.237 -0.0853  0.2041  0.7229
39535SOL    HW136215  12.726  13.319  11.177 -1.3492  0.5817 -0.7979
39535SOL    HW236216  12.656  13.310  11.310  2.3865  0.1092  1.2748
39536SOL     OW36217  13.754   2.553   7.291  0.3471  0.7805 -0.4527
39536SOL    HW136218  13.756   2.494   7.216 -1.3432  1.0170 -0.7191
39536SOL    HW236219  13.662   2.577   7.301  0.3452 -0.0841  2.3859
39537SOL     OW36220   1.991   2.663   0.035  0.4312 -0.2905  0.0380
39537SOL    HW136221   1.943   2.620   0.105  0.2095 -0.1491 -0.0277
39537SOL    HW236222   1.963   2.617  -0.045  1.8335 -1.4950  0.1893
39538SOL     OW36223   5.473   0.148   6.001 -0.1627  0.9473 -0.8911
39538SOL    HW136224   5.531   0.151   6.076  1.5289 -1.5445 -1.9384
39538SOL    HW236225   5.519   0.197   5.933  0.3829 -0.3229 -1.4742
39539SOL     OW36226  13.296  11.870   8.381  0.0462  0.3215 -0.0798
39539SOL    HW136227  13.276  11.854   8.289 -0.0545 -0.1078  0.0185
39539SOL    HW236228  13.220  11.918   8.414 -1.4873 -2.3717  0.6061
39540SOL     OW36229   2.637  10.789  12.126 -0.5765  0.2961  0.5573
39540SOL    HW136230   2.565  10.851  12.115 -1.3313 -0.6582 -0.0999
39540SOL    HW236231   2.594  10.703  12.125  0.3349 -0.2322  2.2410
39541SOL     OW36232   4.889  12.258   1.295 -0.7131 -0.3596 -0.1271
39541SOL    HW136233   4.849  12.223   1.375 -0.7557 -1.7780 -0.7328
39541SOL    HW236234   4.815  12.280   1.240 -0.6803 -0.1864 -0.1006
39542SOL     OW36235   9.893   0.958   7.214 -0.6058  0.1370  0.0852
39542SOL    HW136236   9.976   0.911   7.222 -2.0166 -2.5276 -0.0123
39542SOL    HW236237   9.902   1.033   7.273  2.1375  0.4295 -0.5746
39543SOL     OW36238   5.235  13.260  13.249  0.2889 -0.0269 -0.5971
39543SOL    HW136239   5.300  13.246  13.180 -2.2078  1.7245 -3.5404
39543SOL    HW236240   5.191  13.342  13.226 -2.0188 -0.3528  2.0223
39544SOL     OW36241   9.085   5.047   1.611  0.0890  0.0662 -0.5502
39544SOL    HW136242   9.043   5.000   1.540 -1.1396  0.1831  0.0644
39544SOL    HW236243   9.041   5.133   1.612  1.6542  0.9117 -1.0765
39545SOL     OW36244   2.975   5.235  10.675 -0.5424 -0.3926  0.5355
39545SOL    HW136245   3.054   5.240  10.619 -0.5106 -2.7171  0.2786
39545SOL    HW236246   2.907   5.278  10.623  0.2648  0.5256  0.2053
39546SOL     OW36247  10.507   2.468   4.198  0.5081 -0.0806  0.3437
39546SOL    HW136248  10.519   2.539   4.136 -0.8793 -0.7320 -0.6989
39546SOL    HW236249  10.594   2.456   4.237  0.6415  2.6517  1.1328
39547SOL     OW36250   1.166   3.971   3.217  0.4198  0.0198  0.2097
39547SOL    HW136251   1.112   3.965   3.138  0.1531  1.3793  0.2621
39547SOL    HW236252   1.106   3.951   3.289  0.6621 -1.2152  0.0939
39548SOL     OW36253   6.357   2.475   1.528  0.2182  0.1105 -0.0950
39548SOL    HW136254   6.339   2.411   1.459  1.8154  0.0748 -0.5302
39548SOL    HW236255   6.447   2.456   1.554  0.6652  2.0668 -0.1141
39549SOL     OW36256  13.525   6.144   0.015 -0.4221 -0.1829 -0.2112
39549SOL    HW136257  13.490   6.057  -0.004 -4.6175  1.2818 -0.3261
39549SOL    HW236258  13.549   6.179  -0.071 -1.7350 -0.1504 -0.5844
39550SOL     OW36259  12.064   9.060  13.925 -0.2540 -0.4795  0.1190
39550SOL    HW136260  12.156   9.033  13.925 -0.2665 -0.5473  0.8578
39550SOL    HW236261  12.016   8.979  13.942 -0.2839 -0.0151  2.5177
39551SOL     OW36262   4.230   7.503   2.202  0.4264 -0.1618 -0.2610
39551SOL    HW136263   4.319   7.507   2.167  0.5515  0.4225  0.1184
39551SOL    HW236264   4.241   7.467   2.290  0.4746  1.4270  0.4021
39552SOL     OW36265   6.785   2.795   7.740 -0.8506 -0.1668  0.2216
39552SOL    HW136266   6.824   2.850   7.808  0.6801 -0.1467 -0.6470
39552SOL    HW236267   6.842   2.805   7.664 -1.8508 -1.1346 -0.7011
39553SOL     OW36268   3.728   4.040  10.576 -0.9841 -0.1504 -0.0372
39553SOL    HW136269   3.654   4.053  10.517 -2.3067 -0.1736  1.5660
39553SOL    HW236270   3.691   4.044  10.664  0.2353 -3.7523  0.8315
39554SOL     OW36271  13.356  11.135   7.493  0.4790 -0.1351 -0.3189
39554SOL    HW136272  13.395  11.048   7.501  1.4421  0.4081  1.2186
39554SOL    HW236273  13.360  11.154   7.400  1.7688 -1.0545 -0.4759
39555SOL     OW36274   6.214   1.392   5.853  0.1483 -0.2545 -0.1009
39555SOL    HW136275   6.264   1.441   5.788 -1.9528  0.8152 -1.0100
39555SOL    HW236276   6.242   1.427   5.937  0.3261  0.9155 -0.6335
39556SOL     OW36277  11.293   4.650   6.172  0.0174 -0.0043 -0.1540
39556SOL    HW136278  11.207   4.636   6.212  0.6608 -1.4739  0.8268
39556SOL    HW236279  11.307   4.744   6.176 -0.4324  0.0175  2.1241
39557SOL     OW36280  12.703  12.927   5.857  0.0044  0.1159 -0.6421
39557SOL    HW136281  12.710  12.879   5.939  0.1723 -1.1322 -1.3549
39557SOL    HW236282  12.611  12.918   5.832  0.3705 -1.3129 -1.6037
39558SOL     OW36283   2.227   1.683   9.164 -0.2812 -0.1415  0.4093
39558SOL    HW136284   2.190   1.767   9.192  0.4775  0.2799  0.2076
39558SOL    HW236285   2.322   1.695   9.175  0.1812  0.3476 -2.9786
39559SOL     OW36286   1.086   1.834  12.817 -0.1987 -0.3163  0.3495
39559SOL    HW136287   1.168   1.801  12.783 -0.7543 -1.1816 -0.1747
39559SOL    HW236288   1.071   1.785  12.898 -2.1719 -3.1895 -1.5822
39560SOL     OW36289   5.276   0.199   7.459  0.0079  0.1565  0.0729
39560SOL    HW136290   5.269   0.229   7.369 -0.1662  1.1973  0.4294
39560SOL    HW236291   5.284   0.279   7.511 -2.5894 -0.2688  1.2559
39561SOL     OW36292   2.800   2.085   8.874  0.0962 -0.6251  0.1460
39561SOL    HW136293   2.779   2.033   8.952  1.6357  0.5684  1.4390
39561SOL    HW236294   2.777   2.175   8.899  0.0941 -0.2993 -0.9982
39562SOL     OW36295  11.903   5.876  10.241 -0.2014  0.3547 -0.0595
39562SOL    HW136296  11.944   5.895  10.157  0.3356  1.4665  0.4326
39562SOL    HW236297  11.815   5.845  10.218  0.6511 -1.4806 -1.1063
39563SOL     OW36298  10.884   4.872   3.170  0.3475  0.4219  0.2047
39563SOL    HW136299  10.921   4.934   3.106  0.4877  1.6693  1.4457
39563SOL    HW236300  10.791   4.894   3.173  0.5686  1.2658  1.3656
39564SOL     OW36301  11.906   0.203   2.932 -0.5173 -0.7385  0.1804
39564SOL    HW136302  11.915   0.123   2.982  1.3197 -0.3942  0.4734
39564SOL    HW236303  11.995   0.226   2.906 -1.1231  0.5640 -0.9314
39565SOL     OW36304   9.159   0.873  11.512 -0.1991  0.0896  0.2430
39565SOL    HW136305   9.214   0.857  11.589 -1.6519  1.3958  1.6204
39565SOL    HW236306   9.102   0.796  11.508  0.9251 -0.7393 -0.5291
39566SOL     OW36307  11.912   1.634  11.723 -0.0723 -0.6153 -0.3763
39566SOL    HW136308  11.890   1.550  11.684 -1.0270  0.0757 -1.3806
39566SOL    HW236309  11.954   1.612  11.806  0.1299 -2.0801 -0.8436
39567SOL     OW36310   2.919   5.025   6.306 -0.2567  0.2208  1.1111
39567SOL    HW136311   2.886   5.027   6.216 -1.8658 -0.5868  1.6490
39567SOL    HW236312   2.860   5.084   6.354  0.9426  1.0986  1.5537
39568SOL     OW36313   5.451   0.700   3.754  0.1842  0.7415  0.0133
39568SOL    HW136314   5.407   0.785   3.756 -1.2324  0.0321  0.9955
39568SOL    HW236315   5.435   0.666   3.666 -0.6501  0.8059  0.1300
39569SOL     OW36316   5.853   3.379   1.758 -0.7000 -0.7791 -0.7239
39569SOL    HW136317   5.867   3.427   1.839  1.3012 -0.5370 -1.1806
39569SOL    HW236318   5.775   3.420   1.720  0.0254  1.0491 -0.3379
39570SOL     OW36319  10.291   4.463   5.992 -0.2266 -0.2410 -0.1219
39570SOL    HW136320  10.249   4.522   6.054 -1.4084 -2.3001  1.1687
39570SOL    HW236321  10.220   4.431   5.937  0.0372 -1.7650  0.3630
39571SOL     OW36322   8.319  12.173  11.929 -0.0095  0.4498  0.2807
39571SOL    HW136323   8.254  12.226  11.974  0.7470  0.6159  1.2168
39571SOL    HW236324   8.357  12.231  11.863  1.1188  1.2482  1.5859
39572SOL     OW36325   6.233   0.264   1.216 -0.2166 -0.0866 -0.0518
39572SOL    HW136326   6.261   0.179   1.182 -0.8163 -0.1776 -0.3215
39572SOL    HW236327   6.315   0.309   1.238  0.1050 -0.6958  0.0063
39573SOL     OW36328   7.301   0.274   1.315  0.3731  0.0073  0.2154
39573SOL    HW136329   7.235   0.330   1.356 -0.8091  0.2316 -1.8454
39573SOL    HW236330   7.367   0.335   1.281 -0.3194  0.1072 -1.0070
39574SOL     OW36331   7.618  13.947  14.052  0.2508 -0.1996  0.0197
39574SOL    HW136332   7.584  13.895  13.979  0.3935  1.1704 -1.0392
39574SOL    HW236333   7.703  13.908  14.071  0.8189  0.2780 -1.4489
39575SOL     OW36334   6.634   1.369  13.836  0.1021 -0.0195 -0.6663
39575SOL    HW136335   6.678   1.434  13.892  0.5203 -0.8948  0.0372
39575SOL    HW236336   6.544   1.401  13.829  0.0892  0.2048  0.3645
39576SOL     OW36337   2.963   8.371   5.635 -0.4209  0.2566  0.2680
39576SOL    HW136338   2.978   8.461   5.665 -0.3370  0.7056 -1.0689
39576SOL    HW236339   3.048   8.343   5.600 -0.7597  0.1135 -0.4579
39577SOL     OW36340   3.501  11.899   0.127 -0.1173  0.0280 -0.3653
39577SOL    HW136341   3.446  11.825   0.102 -2.0089  1.3766 -0.4342
39577SOL    HW236342   3.580  11.890   0.075 -0.3182 -1.8993 -0.3956
39578SOL     OW36343  12.538   3.768   7.733 -0.3513 -0.0085  0.2205
39578SOL    HW136344  12.488   3.816   7.666  0.1910  2.5229  1.4943
39578SOL    HW236345  12.629   3.783   7.709 -0.1651  0.3028  1.1271
39579SOL     OW36346   3.116   7.333  13.300  0.3191  0.1811  0.2382
39579SOL    HW136347   3.069   7.399  13.351 -1.4266 -0.0384 -1.0092
39579SOL    HW236348   3.205   7.336  13.335 -0.3750  1.2276  2.1078
39580SOL     OW36349   0.952  12.537   8.463 -0.5066 -0.5737 -0.4459
39580SOL    HW136350   0.886  12.545   8.532 -0.7497 -2.7013 -0.3771
39580SOL    HW236351   0.935  12.452   8.423  2.6570 -1.5527  0.0528
39581SOL     OW36352  13.514  11.063   2.126 -0.0449  0.1662 -0.2882
39581SOL    HW136353  13.573  11.134   2.101 -1.7462  1.6225 -0.3384
39581SOL    HW236354  13.522  11.057   2.221  1.9424 -1.3137 -0.4847
39582SOL     OW36355   5.061   2.596   6.415  0.2379 -0.1618  0.3106
39582SOL    HW136356   5.135   2.605   6.476  0.7209 -0.4703 -0.2141
39582SOL    HW236357   4.992   2.555   6.467  0.7104 -0.6106  0.5956
39583SOL     OW36358   2.430   4.096   9.214  0.2480  0.7128 -0.0068
39583SOL    HW136359   2.366   4.159   9.248  1.6524  0.6277  3.1355
39583SOL    HW236360   2.392   4.010   9.234  0.6602  0.6541  0.5564
39584SOL     OW36361   5.931   6.587   1.374  0.5864  0.2062 -0.2069
39584SOL    HW136362   5.859   6.565   1.433 -0.8449  0.2129 -1.8554
39584SOL    HW236363   5.958   6.503   1.337  0.9948  0.2770 -0.0707
39585SOL     OW36364   5.508  10.727   9.397 -0.3378  0.1308 -0.5984
39585SOL    HW136365   5.554  10.792   9.344 -0.7916  0.5388 -0.5079
39585SOL    HW236366   5.429  10.707   9.346  0.2476 -1.0380 -1.0564
39586SOL     OW36367   7.700  12.292   8.114  0.5393 -0.1941  0.3730
39586SOL    HW136368   7.618  12.342   8.106 -0.7446 -2.2888 -0.5699
39586SOL    HW236369   7.699  12.260   8.204 -0.0351 -0.7224  0.1909
39587SOL     OW36370   1.860   1.567   0.014  0.7461  0.2406  0.3059
39587SOL    HW136371   1.800   1.556   0.089 -0.4364  0.6374 -0.5513
39587SOL    HW236372   1.883   1.660   0.015 -0.6739  0.6441 -0.8112
39588SOL     OW36373   9.426   6.454   5.460 -0.3694 -0.0758 -0.2809
39588SOL    HW136374   9.392   6.454   5.371 -1.1518  0.7368 -0.0016
39588SOL    HW236375   9.503   6.512   5.457 -2.2790  2.6518  0.2000
39589SOL     OW36376  12.368   1.410   4.330  0.6691  0.0540  0.4655
39589SOL    HW136377  12.368   1.342   4.263  3.5735 -2.4734  2.7633
39589SOL    HW236378  12.440   1.468   4.306  1.1417 -0.3404  0.9265
39590SOL     OW36379   4.673   5.517   9.128 -0.2946  0.0841  0.7570
39590SOL    HW136380   4.659   5.593   9.184 -0.4103  0.1545  0.6318
39590SOL    HW236381   4.765   5.494   9.141 -0.0574  0.7116  0.2168
39591SOL     OW36382   2.324   1.981   4.951 -0.3435 -0.2343  0.2720
39591SOL    HW136383   2.296   2.072   4.944 -0.0529 -0.2034 -0.5432
39591SOL    HW236384   2.411   1.986   4.990 -0.9925 -0.2695  1.7849
39592SOL     OW36385   3.126   4.042   1.713 -0.1242 -0.3885 -0.2469
39592SOL    HW136386   3.092   3.982   1.780  0.9936 -1.0108 -0.2105
39592SOL    HW236387   3.177   4.106   1.763 -0.5534  0.0580 -0.3737
39593SOL     OW36388  12.605   6.015   6.046 -0.2554 -0.0425  0.3109
39593SOL    HW136389  12.532   5.992   5.989 -1.1228  1.1522  0.9193
39593SOL    HW236390  12.642   5.930   6.072 -1.5323 -0.6753  0.1480
39594SOL     OW36391  13.794   5.965   8.216 -0.7647  0.6040  0.0792
39594SOL    HW136392  13.861   5.903   8.187  1.1450  2.9359 -0.8600
39594SOL    HW236393  13.716   5.912   8.229  0.8545 -2.0296 -0.2445
39595SOL     OW36394   4.881   3.678   5.114  0.5102  0.2571 -0.9889
39595SOL    HW136395   4.860   3.595   5.071 -2.3808  0.5614 -0.3425
39595SOL    HW236396   4.860   3.745   5.049 -2.8848  0.6644  0.3187
39596SOL     OW36397   8.595  11.646   4.845  0.2323  0.1105  0.3461
39596SOL    HW136398   8.587  11.661   4.940  1.0239 -0.9830  0.6135
39596SOL    HW236399   8.583  11.732   4.806  0.3952  0.6701  1.4862
39597SOL     OW36400   1.758   3.516   2.328  0.0186  0.6936  0.2718
39597SOL    HW136401   1.823   3.574   2.366  2.0796  1.0255 -3.3346
39597SOL    HW236402   1.778   3.429   2.364  2.0622  0.9166 -0.2443
39598SOL     OW36403   1.099   8.972  10.324  0.1591 -0.3681 -0.3304
39598SOL    HW136404   1.169   9.031  10.352  0.1133 -0.4039 -0.1383
39598SOL    HW236405   1.139   8.886  10.324 -0.4243 -0.6914  1.8027
39599SOL     OW36406   2.311   3.061   2.845 -0.1336 -0.3035  0.3516
39599SOL    HW136407   2.321   3.155   2.857 -0.8928  0.0406 -1.4230
39599SOL    HW236408   2.281   3.029   2.931 -0.3511  1.1380  0.8411
39600SOL     OW36409   1.433   5.212   9.219 -0.3363 -0.2115  0.0630
39600SOL    HW136410   1.452   5.171   9.304  0.7631  0.4090  0.1307
39600SOL    HW236411   1.519   5.220   9.177 -0.7434  0.5156 -0.6414
39601SOL     OW36412   5.173  12.976   4.896  0.2991 -0.1412  0.3377
39601SOL    HW136413   5.269  12.977   4.897  0.3598 -1.2120  2.8076
39601SOL    HW236414   5.148  13.068   4.904  1.1774  0.0340  1.2602
39602SOL     OW36415   9.989   5.423   6.841  0.4738 -0.0287 -0.0783
39602SOL    HW136416   9.982   5.328   6.837 -0.0293  0.0418 -2.1076
39602SOL    HW236417  10.005   5.450   6.750 -0.1841  1.8722  0.3178
39603SOL     OW36418  12.843  10.589   2.666  0.2076 -0.3805 -0.4020
39603SOL    HW136419  12.760  10.619   2.628  0.8693  1.1213 -0.7101
39603SOL    HW236420  12.900  10.573   2.591  0.3127 -1.1014 -0.1758
39604SOL     OW36421   7.992   3.459  12.760 -0.6965 -0.0584 -0.0741
39604SOL    HW136422   8.044   3.492  12.688 -0.0184 -0.0812  0.3956
39604SOL    HW236423   8.011   3.365  12.762 -0.4314  0.0012  0.3527
39605SOL     OW36424   3.234   1.542   4.036 -0.2343 -0.3284  0.0583
39605SOL    HW136425   3.321   1.581   4.040  0.3662 -1.6244  3.2512
39605SOL    HW236426   3.240   1.477   3.966  0.7131  0.8974 -1.0455
39606SOL     OW36427   0.294   0.587   3.862  0.1713 -0.2066  0.4795
39606SOL    HW136428   0.364   0.645   3.893  0.5016  0.1753 -0.8979
39606SOL    HW236429   0.287   0.607   3.769  0.9106 -3.0264 -0.2447
39607SOL     OW36430  10.203   6.098   7.123 -0.2888  0.1286  0.4145
39607SOL    HW136431  10.239   6.075   7.038 -1.0477  0.1964  0.0715
39607SOL    HW236432  10.191   6.193   7.119 -1.8377 -0.0565 -0.0140
39608SOL     OW36433   1.787  12.654   1.844 -0.1155  0.4748  0.0740
39608SOL    HW136434   1.704  12.607   1.854 -0.5703  0.9284 -1.3097
39608SOL    HW236435   1.854  12.585   1.844 -0.5503  0.0446  0.4170
39609SOL     OW36436   6.004  13.013   0.514 -0.3061 -0.9478  0.0386
39609SOL    HW136437   6.020  13.091   0.462  0.2560 -0.0162  1.5634
39609SOL    HW236438   5.919  13.029   0.555  0.1966 -0.7565  1.0150
39610SOL     OW36439  11.536   7.558   0.530  0.1935 -0.5480 -0.3203
39610SOL    HW136440  11.592   7.581   0.603 -0.0399  1.1485 -0.6081
39610SOL    HW236441  11.587   7.498   0.477  2.3798  1.9475 -1.2905
39611SOL     OW36442   7.119  13.954   1.440 -0.0087 -0.2520 -0.4825
39611SOL    HW136443   7.033  13.964   1.481  0.6563 -1.4478  1.3737
39611SOL    HW236444   7.123  13.862   1.414  0.4101 -0.0091 -1.3229
39612SOL     OW36445   3.447   5.856   9.627  0.7904 -0.3328  0.1770
39612SOL    HW136446   3.475   5.766   9.643 -0.1719 -0.9394 -1.2914
39612SOL    HW236447   3.354   5.848   9.605  0.5588  1.0894  0.5309
39613SOL     OW36448   8.304   9.465   3.353 -0.0770  0.6111 -0.1965
39613SOL    HW136449   8.238   9.449   3.286 -1.0838 -0.1409  0.9471
39613SOL    HW236450   8.275   9.414   3.428  0.7141  1.8971  1.0211
39614SOL     OW36451   6.422  11.726   0.198 -0.5285 -0.1518 -0.4486
39614SOL    HW136452   6.404  11.638   0.165  0.6513 -0.3323 -0.6260
39614SOL    HW236453   6.512  11.722   0.229  0.2660  1.5564 -2.3525
39615SOL     OW36454  12.714   3.769  14.028  0.2476  0.5861 -0.0157
39615SOL    HW136455  12.697   3.675  14.028 -2.4831  1.0009 -0.1288
39615SOL    HW236456  12.788   3.780  13.969  1.2373 -1.5583  0.7211
39616SOL     OW36457   4.157   7.543   1.781  0.3754  0.3086  0.1634
39616SOL    HW136458   4.165   7.448   1.795  2.0980  0.4134  0.0547
39616SOL    HW236459   4.184   7.581   1.864 -1.0873  0.7219  0.4788
39617SOL     OW36460  13.010   0.070   7.554 -0.2093  0.0839 -0.6355
39617SOL    HW136461  13.008   0.063   7.650  0.5340 -0.6213 -0.6568
39617SOL    HW236462  12.959   0.148   7.535 -1.0815 -0.2364  0.2836
39618SOL     OW36463   6.553   1.966   5.128  0.0502  0.5243 -0.3537
39618SOL    HW136464   6.481   1.911   5.097 -0.1569  1.4340 -1.5442
39618SOL    HW236465   6.629   1.908   5.129 -0.4042 -0.0787 -0.4706
39619SOL     OW36466   1.372   2.100  13.976  0.2945 -0.3647  0.2527
39619SOL    HW136467   1.290   2.121  13.931  0.7717  1.7706  0.2543
39619SOL    HW236468   1.355   2.017  14.020 -1.2668 -0.8534 -1.1803
39620SOL     OW36469   7.499  10.638  12.899  0.8268  0.2949  0.0823
39620SOL    HW136470   7.463  10.564  12.850  2.1507 -1.1093  1.1433
39620SOL    HW236471   7.423  10.695  12.914 -0.1401 -0.6039 -1.1331
39621SOL     OW36472   8.803   6.401   4.614 -0.3736  0.1723  0.1100
39621SOL    HW136473   8.862   6.417   4.688 -0.3059  0.0978  0.0711
39621SOL    HW236474   8.832   6.463   4.547 -0.0688 -0.1569 -0.0638
39622SOL     OW36475  12.285   8.029   8.764 -0.1666  0.1318  0.3127
39622SOL    HW136476  12.366   8.079   8.778 -0.2897  1.1538 -2.1449
39622SOL    HW236477  12.231   8.086   8.710 -1.8072 -1.2872  0.3695
39623SOL     OW36478   7.419   1.095   1.038 -0.1763  0.1455 -0.0446
39623SOL    HW136479   7.387   1.160   1.100  0.0439 -1.2000  1.5828
39623SOL    HW236480   7.510   1.120   1.022 -0.1730  0.4074  0.3665
39624SOL     OW36481   6.308   0.702   4.352 -0.5382  0.2397  0.0575
39624SOL    HW136482   6.305   0.720   4.446  0.1909 -1.5651  0.4758
39624SOL    HW236483   6.368   0.628   4.344 -0.8018  0.1825 -1.8147
39625SOL     OW36484   1.029   4.534   9.529 -0.3911 -0.7383 -0.1346
39625SOL    HW136485   1.107   4.516   9.582  0.3462 -0.7543 -1.1997
39625SOL    HW236486   0.992   4.448   9.511  0.1737 -0.8425 -0.8368
39626SOL     OW36487   8.328   2.477   9.512  0.5314 -0.2867  0.1688
39626SOL    HW136488   8.286   2.487   9.427  0.4005 -1.4965  0.0727
39626SOL    HW236489   8.295   2.549   9.564  1.8541  1.4427 -1.2641
39627SOL     OW36490   7.542  10.547   7.882  0.3070  0.1960  0.0949
39627SOL    HW136491   7.562  10.456   7.903 -1.2919 -0.0678  0.5784
39627SOL    HW236492   7.456  10.544   7.840 -0.4091  1.6092  1.3659
39628SOL     OW36493  14.013  13.053   5.599  0.1953 -0.5541  0.7890
39628SOL    HW136494  14.010  13.018   5.510  2.5920 -0.9310  0.7841
39628SOL    HW236495  13.922  13.070   5.622 -0.5711 -1.6134 -1.2747
39629SOL     OW36496   7.864  10.783   2.362  0.4397 -0.2262 -0.3173
39629SOL    HW136497   7.799  10.738   2.308 -1.7519  0.3507  1.7114
39629SOL    HW236498   7.906  10.713   2.411 -1.2827 -0.3452  1.0620
39630SOL     OW36499   5.817   3.689   5.479  0.3914  0.5910 -0.7572
39630SOL    HW136500   5.764   3.609   5.483 -1.4322  1.7615 -0.7076
39630SOL    HW236501   5.907   3.657   5.490 -0.3970 -1.3020  1.0282
39631SOL     OW36502   5.851   8.879  12.553 -0.5633 -0.2437 -0.3359
39631SOL    HW136503   5.898   8.868  12.635 -0.1254  0.8617 -0.4120
39631SOL    HW236504   5.908   8.936  12.501 -0.7247 -1.1057 -1.4991
39632SOL     OW36505   2.281  11.208  13.489  0.3523 -0.0289  0.3057
39632SOL    HW136506   2.331  11.197  13.408  0.6570  1.2807  0.3095
39632SOL    HW236507   2.194  11.236  13.460 -0.1954 -1.5665  0.3434
39633SOL     OW36508   0.982   2.300   0.741 -0.8921  0.3611 -0.3108
39633SOL    HW136509   1.064   2.329   0.781 -1.5460 -0.9612  2.2390
39633SOL    HW236510   1.008   2.232   0.678  0.0193  0.4769 -0.0639
39634SOL     OW36511   0.972   0.020   6.877  0.3988  0.3195  0.4354
39634SOL    HW136512   0.958   0.104   6.921  1.7083  0.5875  0.4083
39634SOL    HW236513   0.988  -0.042   6.949  0.2616  0.2685  0.4222
39635SOL     OW36514   8.332   3.829   5.641 -0.3739  0.0323 -0.1722
39635SOL    HW136515   8.375   3.792   5.564  1.3366 -0.4930  0.9663
39635SOL    HW236516   8.275   3.759   5.673 -0.1366 -0.1992 -0.2526
39636SOL     OW36517   3.072   4.421   8.282  0.3560  0.3223  0.0141
39636SOL    HW136518   3.089   4.438   8.189 -1.4753  1.1904 -0.2217
39636SOL    HW236519   3.035   4.503   8.314  1.1367  0.0866  1.5769
39637SOL     OW36520   2.601   0.908   5.567  0.3244 -0.4093 -0.4016
39637SOL    HW136521   2.585   0.827   5.616 -0.6758 -0.2738 -0.4733
39637SOL    HW236522   2.691   0.932   5.588  0.3320 -1.0552  0.3395
39638SOL     OW36523   2.697   0.086  12.792  0.1058  0.3116  0.6955
39638SOL    HW136524   2.613   0.040  12.797  0.8422 -0.9703  1.8303
39638SOL    HW236525   2.739   0.050  12.714 -0.1901  0.6364  0.3763
39639SOL     OW36526   2.389   2.704   4.121  1.1961  0.1811  0.2027
39639SOL    HW136527   2.332   2.669   4.189  0.7359 -1.3448 -0.9064
39639SOL    HW236528   2.334   2.709   4.043  2.4028 -0.7991 -0.7557
39640SOL     OW36529   6.131   5.110   5.012 -0.2626  0.8154  0.5085
39640SOL    HW136530   6.038   5.099   4.993 -0.4641  1.0303  1.3177
39640SOL    HW236531   6.140   5.079   5.102  0.3857  1.1384  0.5581
39641SOL     OW36532  12.156   4.624   1.948 -0.1539 -0.0262 -1.0107
39641SOL    HW136533  12.249   4.620   1.927  0.4437  0.4306  1.2693
39641SOL    HW236534  12.129   4.532   1.958 -0.1270 -0.1847 -2.2187
39642SOL     OW36535   2.139   2.590   6.794  0.5491 -0.0478 -0.5228
39642SOL    HW136536   2.169   2.527   6.859  0.2755 -0.2652 -0.6039
39642SOL    HW236537   2.165   2.675   6.829 -0.9555 -0.0176  0.6561
39643SOL     OW36538   6.217   3.729  12.180  0.0463 -0.2232  0.7162
39643SOL    HW136539   6.161   3.743  12.256  0.7456  1.3803  0.9950
39643SOL    HW236540   6.211   3.636  12.162 -2.2071 -0.2043  1.0907
39644SOL     OW36541   6.794   5.770   5.884 -0.0327  0.6738 -0.3787
39644SOL    HW136542   6.732   5.731   5.822 -0.0464  1.0382 -0.5999
39644SOL    HW236543   6.791   5.864   5.864  1.6493  0.5614 -1.3677
39645SOL     OW36544   8.212   0.923  13.044 -0.1443  1.2279  0.2134
39645SOL    HW136545   8.220   1.000  13.101  1.5246 -0.1792  2.0308
39645SOL    HW236546   8.288   0.926  12.987  0.5857  0.3626  1.0989
39646SOL     OW36547   4.011  11.164  12.143 -0.2974  0.0656  0.0960
39646SOL    HW136548   4.078  11.133  12.204 -0.1450  0.5048  0.1543
39646SOL    HW236549   3.944  11.096  12.144  0.1559 -0.3874  0.0237
39647SOL     OW36550   9.375   7.637   2.223  0.1355  0.1130  0.5029
39647SOL    HW136551   9.352   7.544   2.218 -3.3794  0.8397  0.2802
39647SOL    HW236552   9.415   7.657   2.139 -1.4378 -0.7411 -0.5027
39648SOL     OW36553   7.362  12.827   2.036  0.0586 -0.1193 -0.0054
39648SOL    HW136554   7.297  12.897   2.031  0.0619 -0.0057  1.1755
39648SOL    HW236555   7.334  12.773   2.110  0.4145 -1.0039 -0.4961
39649SOL     OW36556   9.798   4.537  11.159  0.4613 -0.0308 -0.0611
39649SOL    HW136557   9.839   4.571  11.239  1.4022 -1.1754 -0.0209
39649SOL    HW236558   9.705   4.558  11.169  0.3968 -0.9285  1.7667
39650SOL     OW36559   9.399   8.831   3.666  0.4324  0.2274  0.0290
39650SOL    HW136560   9.308   8.845   3.690  1.2488  1.7037  2.7019
39650SOL    HW236561   9.416   8.894   3.596 -0.2984  0.7940  0.3466
39651SOL     OW36562   9.326  10.237   9.172  0.8613  0.3926  0.8818
39651SOL    HW136563   9.360  10.210   9.086 -0.7866  1.0038  0.0108
39651SOL    HW236564   9.391  10.299   9.205  2.4262 -1.1740  0.9176
39652SOL     OW36565  10.575   1.247   7.664 -0.2959 -0.0258  0.4891
39652SOL    HW136566  10.497   1.275   7.616  0.1938  0.8677  0.1812
39652SOL    HW236567  10.543   1.229   7.753 -0.5475  2.3238  0.9341
39653SOL     OW36568   9.029   3.301   0.447  0.1818  0.1556  0.4918
39653SOL    HW136569   9.026   3.384   0.400 -0.7132 -0.5143 -0.6755
39653SOL    HW236570   9.109   3.258   0.416 -0.1780 -0.0927 -0.1097
39654SOL     OW36571   5.256   7.070  10.622 -0.0581  0.0566 -0.1320
39654SOL    HW136572   5.202   7.120  10.683 -0.2898  0.2681 -0.5026
39654SOL    HW236573   5.325   7.033  10.676 -1.1748 -1.1273  0.5445
39655SOL     OW36574  11.857   3.431  10.082 -0.0306 -0.0616  0.6058
39655SOL    HW136575  11.793   3.409  10.149 -0.9846 -0.5153 -0.4310
39655SOL    HW236576  11.909   3.502  10.122 -0.5014 -0.3809  1.8418
39656SOL     OW36577  10.196  10.185   6.428  0.0948 -0.3672  0.5057
39656SOL    HW136578  10.111  10.144   6.444  0.1278 -0.6460  0.0046
39656SOL    HW236579  10.245  10.120   6.377  2.2832 -2.1439  4.4217
39657SOL     OW36580   2.462   5.893   7.514  0.3081 -0.2411  0.2721
39657SOL    HW136581   2.430   5.808   7.543  0.2666 -0.1880  0.3826
39657SOL    HW236582   2.515   5.925   7.587  1.2927 -0.6899 -0.2191
39658SOL     OW36583  13.002   7.578  12.132 -0.1430 -0.3776 -0.2413
39658SOL    HW136584  12.945   7.621  12.067  0.6182  1.3815  0.1862
39658SOL    HW236585  13.090   7.583  12.093  0.5247  1.7688  1.3445
39659SOL     OW36586  14.022   6.255   5.770  0.4145 -0.0508 -0.3166
39659SOL    HW136587  13.993   6.306   5.695 -0.0702 -2.5298 -1.9171
39659SOL    HW236588  14.083   6.313   5.817 -1.8452  2.7942 -0.6541
39660SOL     OW36589   9.701   7.714   5.704  0.3277 -0.0876 -0.0799
39660SOL    HW136590   9.626   7.655   5.702  0.0305  0.3094 -0.5132
39660SOL    HW236591   9.767   7.666   5.754 -0.8323  0.3163  1.9478
39661SOL     OW36592   7.028  13.316  11.025 -0.1791 -0.2647 -0.1097
39661SOL    HW136593   7.038  13.224  11.048 -0.0565 -0.0164  0.8704
39661SOL    HW236594   7.092  13.362  11.080 -0.1350  0.3872 -0.6942
39662SOL     OW36595   7.746   7.580  13.954  0.0889  0.4448  0.6174
39662SOL    HW136596   7.651   7.595  13.945  0.2133  0.1800 -2.0847
39662SOL    HW236597   7.754   7.505  14.013 -1.5435 -0.9200 -0.7886
39663SOL     OW36598   2.731   8.099   0.442 -0.1613 -0.1548 -0.0052
39663SOL    HW136599   2.724   8.144   0.527  2.3125  0.2738  0.0411
39663SOL    HW236600   2.823   8.109   0.417 -0.5079 -1.5320 -2.0699
39664SOL     OW36601   2.592   8.385  13.697  0.2692  0.3916 -0.1232
39664SOL    HW136602   2.548   8.317  13.646 -0.7557  0.5259  0.5416
39664SOL    HW236603   2.527   8.455  13.705  1.0280  1.1164 -0.1180
39665SOL     OW36604   1.723   2.076  13.182 -0.6779  0.0004  0.0818
39665SOL    HW136605   1.792   2.108  13.240 -0.6786 -0.7297  0.5003
39665SOL    HW236606   1.722   2.137  13.109  1.3750 -0.7513 -0.6411
39666SOL     OW36607   0.130   7.262   8.257 -0.0886  0.1642 -0.4888
39666SOL    HW136608   0.188   7.241   8.331  1.5073  1.9207 -1.1428
39666SOL    HW236609   0.043   7.237   8.286  0.8905 -1.9393  0.8298
39667SOL     OW36610   6.873  12.944   6.980  0.5140  0.4634  0.5600
39667SOL    HW136611   6.849  13.020   7.034 -2.6115 -0.4938  0.7236
39667SOL    HW236612   6.884  12.980   6.892 -0.6065  1.1853  0.6950
39668SOL     OW36613   9.086   1.604   2.629  0.1867  0.7911  0.9019
39668SOL    HW136614   9.094   1.660   2.706 -0.1752  1.4173  0.4869
39668SOL    HW236615   9.066   1.664   2.557  1.9313  0.4074  0.0335
39669SOL     OW36616   5.383   8.833   1.309 -0.7133  0.2405 -0.1048
39669SOL    HW136617   5.346   8.794   1.229  1.4169 -1.1962 -0.4675
39669SOL    HW236618   5.408   8.758   1.362 -0.9056  1.1894  1.3830
39670SOL     OW36619  13.935   6.882  14.070 -0.5123 -0.0436 -0.1084
39670SOL    HW136620  13.920   6.965  14.115  0.7228 -0.4661  1.1557
39670SOL    HW236621  13.858   6.871  14.014 -0.4311  2.2187 -0.7641
39671SOL     OW36622   5.692  12.090  12.241 -0.5091  0.4851 -0.1308
39671SOL    HW136623   5.694  12.186  12.236 -2.9293  0.6024 -0.4995
39671SOL    HW236624   5.687  12.062  12.149 -2.1263  0.1898  0.0104
39672SOL     OW36625  11.856   0.524  13.561 -0.1480  0.6479 -0.0388
39672SOL    HW136626  11.859   0.566  13.475 -1.3222 -0.3023 -0.5812
39672SOL    HW236627  11.783   0.462  13.555  1.4218 -1.4083  0.7330
39673SOL     OW36628   7.350   1.559  11.689 -0.5849 -0.3958 -0.3305
39673SOL    HW136629   7.345   1.548  11.594  0.9923  1.5241 -0.6872
39673SOL    HW236630   7.404   1.486  11.719  1.4266  0.6025 -1.3340
39674SOL     OW36631   1.418  10.417   0.774  0.0782  0.0785  0.3010
39674SOL    HW136632   1.336  10.368   0.773 -0.4269  0.8639  1.7064
39674SOL    HW236633   1.407  10.485   0.707  0.1784 -0.7117 -0.5438
39675SOL     OW36634   4.469   6.070  10.918  0.3149 -0.1480 -0.2513
39675SOL    HW136635   4.458   6.165  10.916  0.7909 -0.1039 -1.6364
39675SOL    HW236636   4.519   6.054  10.998 -1.1643  0.5923  0.8654
39676SOL     OW36637  13.440  11.819   2.771  0.2757 -0.1008 -0.2722
39676SOL    HW136638  13.487  11.902   2.778 -2.3204  1.4493 -0.0476
39676SOL    HW236639  13.348  11.843   2.764 -0.4722 -2.9331 -1.9512
39677SOL     OW36640   4.767  11.869   7.010  1.2682 -0.1208 -0.1027
39677SOL    HW136641   4.742  11.927   7.082  2.9081  0.4280  0.0652
39677SOL    HW236642   4.764  11.781   7.049  1.1726  0.0790  0.3477
39678SOL     OW36643  10.604  12.007   0.192 -0.0656  0.0788 -0.2035
39678SOL    HW136644  10.509  12.008   0.180 -0.1368  1.4937  0.2721
39678SOL    HW236645  10.632  11.924   0.155 -1.3438  0.1773 -1.4726
39679SOL     OW36646   3.673  12.880  10.227  0.0042 -0.7270 -0.1527
39679SOL    HW136647   3.582  12.862  10.250 -0.0836 -1.5939 -1.1251
39679SOL    HW236648   3.715  12.898  10.311 -0.5713 -2.5947  0.5948
39680SOL     OW36649   7.725  11.458   8.706 -0.7386 -0.9743  0.1037
39680SOL    HW136650   7.806  11.410   8.691  0.9121  2.1948 -2.1133
39680SOL    HW236651   7.725  11.478   8.800  1.3091 -0.6059  0.0498
39681SOL     OW36652   8.524   9.671   1.627 -0.4883 -0.5064  0.2761
39681SOL    HW136653   8.485   9.703   1.708 -2.3359  0.1490 -0.7843
39681SOL    HW236654   8.604   9.626   1.653  0.2620  1.7578  2.2285
39682SOL     OW36655   9.749   6.251  12.170  0.7257  0.2440 -0.1786
39682SOL    HW136656   9.823   6.197  12.199 -0.4109 -0.1319  2.2547
39682SOL    HW236657   9.715   6.205  12.093  3.0415  0.5095 -1.4498
39683SOL     OW36658  12.779   5.651   1.378  0.0373 -0.0440  0.2639
39683SOL    HW136659  12.850   5.587   1.374 -1.5186 -1.8183 -1.2826
39683SOL    HW236660  12.743   5.641   1.466  0.5071 -0.4973  0.4098
39684SOL     OW36661   8.740   4.757   2.527 -0.3998  0.2094 -0.2248
39684SOL    HW136662   8.817   4.700   2.529 -0.4233  0.1854  1.3464
39684SOL    HW236663   8.666   4.699   2.541 -0.4438  0.5556  1.1465
39685SOL     OW36664   3.104   4.165  11.433  0.2825  0.2758  0.4424
39685SOL    HW136665   3.092   4.162  11.528  2.6813  1.1371  0.8431
39685SOL    HW236666   3.122   4.074  11.408  0.6530  0.1894  1.0001
39686SOL     OW36667  13.984   2.708   7.337 -0.2640  0.2977 -0.4514
39686SOL    HW136668  14.022   2.704   7.249 -2.5776 -1.8571 -1.4627
39686SOL    HW236669  13.891   2.690   7.324 -1.0577  1.8498  2.2716
39687SOL     OW36670  10.377   7.277   3.415 -0.0458  0.1054 -0.1027
39687SOL    HW136671  10.305   7.223   3.446 -0.4051  0.2725 -0.6297
39687SOL    HW236672  10.455   7.224   3.429 -0.3199 -0.2689  0.0314
39688SOL     OW36673  12.618  12.910   9.197  0.3801  0.0454  0.2502
39688SOL    HW136674  12.549  12.844   9.192  2.4169 -2.1949  0.1980
39688SOL    HW236675  12.574  12.988   9.232 -2.3418 -0.9524 -0.7042
39689SOL     OW36676   0.641   8.065   7.387 -0.2520  0.3153  0.2125
39689SOL    HW136677   0.580   8.083   7.458 -0.2649 -0.0935  0.3077
39689SOL    HW236678   0.588   8.023   7.320 -0.3604  1.2171 -0.2868
39690SOL     OW36679   9.746   6.685   2.133 -0.4176  0.3041  0.0830
39690SOL    HW136680   9.731   6.745   2.207  0.2670  1.4358 -0.6668
39690SOL    HW236681   9.676   6.620   2.141  0.8169 -0.8882  2.9608
39691SOL     OW36682   5.474   9.755  12.787 -0.2670 -0.3477 -0.2692
39691SOL    HW136683   5.535   9.802  12.730 -0.6109  0.1644 -0.2218
39691SOL    HW236684   5.387   9.785  12.760 -0.5506 -1.5797 -0.7923
39692SOL     OW36685   6.846   5.570  11.299 -0.7267 -0.2451  0.2426
39692SOL    HW136686   6.779   5.512  11.263  0.1714 -0.5699 -0.9818
39692SOL    HW236687   6.899   5.595  11.223  1.1425 -0.8082  1.2897
39693SOL     OW36688   9.510   2.926   1.605 -0.0094  0.0116 -0.4631
39693SOL    HW136689   9.501   2.909   1.512  0.7686 -0.3914 -0.4693
39693SOL    HW236690   9.430   2.975   1.628 -0.2979 -0.0532 -1.2886
39694SOL     OW36691  11.494   0.479   5.623 -1.0321  0.0932  0.1677
39694SOL    HW136692  11.422   0.517   5.572 -0.1958 -1.2847 -2.2184
39694SOL    HW236693  11.573   0.523   5.589 -0.5450  0.0273  1.1814
39695SOL     OW36694   3.648   4.730   6.930 -0.4574 -0.2872 -0.0203
39695SOL    HW136695   3.602   4.659   6.973  0.3276 -0.5382  0.4295
39695SOL    HW236696   3.629   4.807   6.983  0.8118 -0.6666  1.0153
39696SOL     OW36697   1.658   6.187  11.718 -0.4345 -0.4050  0.4151
39696SOL    HW136698   1.591   6.195  11.649 -0.4565  1.2119  0.5998
39696SOL    HW236699   1.738   6.162  11.671  0.3014  3.4654 -0.7092
39697SOL     OW36700  13.902   4.830  12.840 -0.4267 -0.0201  0.0333
39697SOL    HW136701  13.868   4.914  12.871  0.9555  0.2673  0.8417
39697SOL    HW236702  13.984   4.852  12.795 -0.5594 -0.8413 -0.6459
39698SOL     OW36703   0.682   4.422   0.004 -0.0679 -0.1628  0.2013
39698SOL    HW136704   0.656   4.512  -0.016 -1.0400 -0.5881 -0.5164
39698SOL    HW236705   0.723   4.391  -0.077  1.4899  0.0505  0.8793
39699SOL     OW36706   6.994  12.250   7.341  0.5020 -0.5475  0.4352
39699SOL    HW136707   6.927  12.294   7.289  1.2560  1.2975  0.9537
39699SOL    HW236708   7.011  12.168   7.294 -0.2945  0.1291 -1.0917
39700SOL     OW36709  13.426   6.982   1.225 -0.2938  0.0905  0.3981
39700SOL    HW136710  13.520   6.998   1.237  0.6319 -3.0673 -1.4613
39700SOL    HW236711  13.412   6.894   1.261 -1.7542 -0.8833 -2.2891
39701SOL     OW36712   1.754   2.293   2.913  0.0699 -0.0162  0.4548
39701SOL    HW136713   1.689   2.362   2.929 -0.1122 -0.0813  0.0046
39701SOL    HW236714   1.751   2.239   2.993 -0.3333  0.0628  0.4955
39702SOL     OW36715   7.106   5.208  12.711 -0.0573 -0.6147 -0.0040
39702SOL    HW136716   7.071   5.266  12.643  1.1183 -0.7384 -0.7602
39702SOL    HW236717   7.066   5.123  12.695  0.6286 -0.7823 -0.9233
39703SOL     OW36718   7.441   3.934   6.293  0.2490 -0.6307  0.2388
39703SOL    HW136719   7.408   4.023   6.292  0.1732 -0.4949  3.4205
39703SOL    HW236720   7.499   3.929   6.217 -0.3290  1.8564 -0.4601
39704SOL     OW36721   2.797   6.080   0.856  0.5057  0.0771  0.0108
39704SOL    HW136722   2.798   6.159   0.911  0.1889 -1.4437  2.3097
39704SOL    HW236723   2.723   6.029   0.888  1.6692 -1.9195 -0.3016
39705SOL     OW36724  11.665   0.443   4.783  0.4613  0.3078  0.2632
39705SOL    HW136725  11.708   0.444   4.868  0.6833 -0.6094  0.1711
39705SOL    HW236726  11.738   0.447   4.720  0.5052 -1.8677  0.0964
39706SOL     OW36727  13.866  11.283  10.943 -0.4513  0.3001  0.5132
39706SOL    HW136728  13.799  11.304  10.877 -0.4088  1.1040  0.7143
39706SOL    HW236729  13.939  11.249  10.893 -1.8832 -3.0426  0.4495
39707SOL     OW36730   6.529  13.565   3.373 -0.0472  0.0767  0.3198
39707SOL    HW136731   6.504  13.655   3.394 -1.2370  0.4437 -2.1904
39707SOL    HW236732   6.568  13.572   3.285 -0.0578 -1.8482  0.1371
39708SOL     OW36733   6.850  10.715  11.821  0.1329 -0.0388  0.1664
39708SOL    HW136734   6.820  10.737  11.909 -0.1064 -0.8954  0.3115
39708SOL    HW236735   6.889  10.628  11.830 -1.1912 -0.7754 -0.8285
39709SOL     OW36736   1.538   3.477   7.387 -1.1165  0.3583 -0.7932
39709SOL    HW136737   1.611   3.417   7.399 -0.2730  1.6719  1.0591
39709SOL    HW236738   1.578   3.564   7.378 -2.4108  1.3482  1.9170
39710SOL     OW36739   2.178   3.342  12.151  0.0221 -0.2313 -0.6741
39710SOL    HW136740   2.185   3.296  12.234  0.5027  0.5921 -0.2446
39710SOL    HW236741   2.261   3.388  12.141 -0.1872  0.0072 -1.4076
39711SOL     OW36742   4.632   6.761   7.715  0.4253  0.1305 -0.5500
39711SOL    HW136743   4.593   6.784   7.799  0.8371 -0.5670 -0.1639
39711SOL    HW236744   4.657   6.669   7.724 -0.2853 -0.2005 -1.7299
39712SOL     OW36745  12.233   5.322   2.846  0.0511 -0.2289  0.2132
39712SOL    HW136746  12.278   5.272   2.777  1.6459  0.6740  0.5492
39712SOL    HW236747  12.206   5.403   2.804 -1.1226 -0.6721  0.0729
39713SOL     OW36748   1.829   9.701  10.877 -0.8985  0.3731 -0.4404
39713SOL    HW136749   1.743   9.718  10.915 -1.4631  2.6315 -2.4780
39713SOL    HW236750   1.855   9.617  10.914 -2.8984  0.7277  2.0777
39714SOL     OW36751   6.113   5.977   4.105  0.6385 -0.1232  0.3790
39714SOL    HW136752   6.087   5.943   4.191  0.7201 -2.0316 -0.3103
39714SOL    HW236753   6.190   5.926   4.081  1.0013  0.8371 -0.5545
39715SOL     OW36754  10.505  11.397  13.699 -0.1153 -0.0306  0.6502
39715SOL    HW136755  10.477  11.347  13.621  2.2799 -1.8742  0.8506
39715SOL    HW236756  10.574  11.454  13.666  0.1284  0.0025  1.2230
39716SOL     OW36757   0.841  11.160  12.297  0.4635  0.4043 -0.1938
39716SOL    HW136758   0.923  11.187  12.255  0.4588  0.5763 -0.0919
39716SOL    HW236759   0.868  11.094  12.361  0.5185  0.4288 -0.1913
39717SOL     OW36760   9.608   8.115   3.374  0.3862  0.0744 -0.0495
39717SOL    HW136761   9.579   8.113   3.283  1.5188 -1.5541 -0.4159
39717SOL    HW236762   9.544   8.061   3.421  1.1724 -1.1213 -0.3353
39718SOL     OW36763  11.154   2.648   8.518  0.2079 -0.0425 -0.0924
39718SOL    HW136764  11.181   2.646   8.426  0.7089 -0.5274  0.0617
39718SOL    HW236765  11.225   2.604   8.565  0.2432  0.7355  0.6052
39719SOL     OW36766  10.060   9.866   6.762 -0.0918 -0.2798 -0.2002
39719SOL    HW136767  10.091   9.945   6.807 -2.9277 -0.6203  2.7240
39719SOL    HW236768  10.133   9.841   6.705  2.2605  2.5011  1.2989
39720SOL     OW36769   4.028   8.968  13.447 -0.1903 -0.8214  0.5833
39720SOL    HW136770   3.964   8.957  13.377  0.0437 -0.4175  0.2975
39720SOL    HW236771   4.019   9.059  13.474  0.9170 -0.4668 -0.1318
39721SOL     OW36772   2.561   0.006   7.966  0.2023 -0.3922 -0.3389
39721SOL    HW136773   2.605   0.057   7.897 -0.9897 -1.7993 -2.2183
39721SOL    HW236774   2.529  -0.072   7.922 -3.1287 -0.0525  1.1769
39722SOL     OW36775  12.307   4.929  10.434  0.0434  0.1328  0.2742
39722SOL    HW136776  12.352   4.849  10.461 -0.9544 -0.3974  0.3990
39722SOL    HW236777  12.253   4.953  10.509  0.9161  1.3908  0.5433
39723SOL     OW36778   7.660   7.602   0.622 -0.1696  0.2361 -0.4310
39723SOL    HW136779   7.657   7.591   0.527 -1.9138  1.1929 -0.5125
39723SOL    HW236780   7.754   7.606   0.642  0.3078 -1.9698 -1.8331
39724SOL     OW36781   4.479   9.545   5.589 -0.3315 -0.4709  0.4347
39724SOL    HW136782   4.521   9.526   5.505 -1.0424  0.9772 -0.2975
39724SOL    HW236783   4.549   9.580   5.644  0.0188 -0.8930  0.2698
39725SOL     OW36784   4.684   9.814   7.867 -0.1042  0.3932 -0.0134
39725SOL    HW136785   4.624   9.885   7.844  1.0058  0.5896 -2.6750
39725SOL    HW236786   4.634   9.735   7.850 -0.3635  0.5424  0.0416
39726SOL     OW36787  12.444   6.513   7.292 -0.5475 -0.3682  0.6615
39726SOL    HW136788  12.483   6.541   7.375 -2.1280 -1.5938  1.8700
39726SOL    HW236789  12.434   6.594   7.242  1.9278  0.2048  0.9480
39727SOL     OW36790  11.202   3.850  11.017  0.3832 -0.4873 -0.6444
39727SOL    HW136791  11.165   3.842  10.929  0.3660  0.8329 -0.7738
39727SOL    HW236792  11.181   3.939  11.044  1.4437 -0.4714  0.2134
39728SOL     OW36793  11.651   1.774  14.020 -0.9081 -0.1413  0.2156
39728SOL    HW136794  11.650   1.836  13.947  0.2812 -0.2757  0.0794
39728SOL    HW236795  11.675   1.690  13.982  3.8707  0.5092  1.2134
39729SOL     OW36796  11.203   4.770   2.092 -0.5510  0.7213 -0.0153
39729SOL    HW136797  11.263   4.837   2.124 -0.9246  0.2589  1.7649
39729SOL    HW236798  11.248   4.687   2.110 -1.7874  0.3551  1.5889
39730SOL     OW36799   3.840   3.719   8.692  0.2626 -0.0902  0.2020
39730SOL    HW136800   3.928   3.758   8.690 -0.9764  3.0249  1.0515
39730SOL    HW236801   3.799   3.747   8.610 -0.5731  0.1213  0.6842
39731SOL     OW36802  11.652   5.059  12.608 -0.4558  0.4272 -0.3774
39731SOL    HW136803  11.697   5.138  12.639 -1.0580  0.4657  0.4397
39731SOL    HW236804  11.720   5.011  12.561  0.1859  0.9607 -0.0333
39732SOL     OW36805   7.840   0.322   8.584  0.1046  0.1697 -0.3914
39732SOL    HW136806   7.840   0.333   8.680 -0.5447 -0.4380 -0.3139
39732SOL    HW236807   7.928   0.347   8.557  0.5196 -0.3459  0.4511
39733SOL     OW36808  10.923   1.596   7.452 -0.4492  0.3186  0.6888
39733SOL    HW136809  10.852   1.548   7.494 -1.5047  0.2859 -1.0352
39733SOL    HW236810  10.939   1.670   7.510 -1.1226 -0.2811  1.6685
39734SOL     OW36811   1.442  13.875   0.254 -0.0781  0.1522  0.2356
39734SOL    HW136812   1.407  13.811   0.316 -0.2840 -1.3208 -1.3269
39734SOL    HW236813   1.534  13.886   0.280  0.0115 -0.9414  0.4215
39735SOL     OW36814  12.008   4.924   9.011 -0.1751  0.0667 -0.2189
39735SOL    HW136815  12.013   4.993   8.945  3.3219 -0.1919 -0.3987
39735SOL    HW236816  12.003   4.970   9.094  1.4567  0.5694 -0.3775
39736SOL     OW36817   6.679   4.954  11.635  0.7522 -0.2899  0.7702
39736SOL    HW136818   6.676   4.879  11.577  2.0817  0.1849  0.0264
39736SOL    HW236819   6.726   4.923  11.713  2.0891 -0.0405  0.0979
39737SOL     OW36820  11.725  12.843   1.213  0.1374 -0.3349  0.1592
39737SOL    HW136821  11.680  12.856   1.129  0.3789 -0.4504  0.0141
39737SOL    HW236822  11.813  12.816   1.190  0.3912  0.2312  0.4445
39738SOL     OW36823   8.341   4.142  10.446 -0.4599  0.2572  0.2213
39738SOL    HW136824   8.411   4.092  10.404 -0.1803 -0.1885  1.1924
39738SOL    HW236825   8.365   4.234  10.429 -0.7917  0.0962 -1.2649
39739SOL     OW36826   6.083   9.381   0.957  0.1664 -0.0547  0.0957
39739SOL    HW136827   6.007   9.323   0.951  1.3305 -1.6458  0.3191
39739SOL    HW236828   6.063   9.439   1.030 -2.1336  1.5813 -1.6757
39740SOL     OW36829   3.653   7.095   4.870 -0.6778 -0.6594  0.4514
39740SOL    HW136830   3.689   7.092   4.781  0.5050  1.5997  0.8075
39740SOL    HW236831   3.717   7.048   4.924  0.2386  0.6947  0.5833
39741SOL     OW36832   3.556   0.074  10.403  0.0885 -0.2929  0.0038
39741SOL    HW136833   3.545   0.083  10.308 -0.5863 -0.7594  0.0328
39741SOL    HW236834   3.553  -0.020  10.418  1.5590 -0.3005  0.3393
39742SOL     OW36835  13.337   8.213   7.484 -0.2357 -0.3702  0.6551
39742SOL    HW136836  13.424   8.218   7.522  0.4160  0.6668 -0.9128
39742SOL    HW236837  13.333   8.284   7.421 -1.9592 -0.8576  0.1483
39743SOL     OW36838   4.292  10.066  11.760  0.3613  0.0309 -0.3263
39743SOL    HW136839   4.272   9.981  11.799  0.9120 -0.1957 -0.5242
39743SOL    HW236840   4.388  10.071  11.763  0.4424 -0.1233 -1.8865
39744SOL     OW36841  10.002   0.904   2.594  0.2049  0.1319 -0.7731
39744SOL    HW136842  10.091   0.890   2.628  0.6247  1.1148 -1.4020
39744SOL    HW236843   9.945   0.885   2.668  1.0056  0.5866 -0.0185
39745SOL     OW36844   0.472   5.497  12.057  0.3659 -0.1381  0.2946
39745SOL    HW136845   0.517   5.476  11.976  2.3983 -0.0432  1.3353
39745SOL    HW236846   0.429   5.415  12.083  1.3060 -0.7009  0.1005
39746SOL     OW36847   0.325  14.043   3.479 -0.4457  0.1776 -0.0378
39746SOL    HW136848   0.302  14.086   3.561  1.2055 -0.5437  0.8275
39746SOL    HW236849   0.243  14.003   3.450 -0.8713 -0.2756  1.6897
39747SOL     OW36850   2.812   9.703   3.633  0.5374  0.0552  0.0722
39747SOL    HW136851   2.907   9.690   3.645  0.3442  0.9857  4.5419
39747SOL    HW236852   2.796   9.791   3.668 -1.9944  0.0356 -0.8756
39748SOL     OW36853  12.257   5.983   2.690 -1.1383 -0.0345  0.2508
39748SOL    HW136854  12.216   6.068   2.674 -1.3032 -0.5108 -2.1923
39748SOL    HW236855  12.341   6.005   2.729 -1.3878  1.2387  0.1255
39749SOL     OW36856  12.350  11.754  13.324  0.0476  0.6082 -0.4205
39749SOL    HW136857  12.420  11.731  13.386  0.2606  2.1768 -0.0473
39749SOL    HW236858  12.345  11.678  13.266  0.1964 -0.7002  1.1803
39750SOL     OW36859   2.522   7.634   7.598 -0.1037 -0.2648  0.3124
39750SOL    HW136860   2.490   7.553   7.558 -2.4862  0.3269  0.8318
39750SOL    HW236861   2.558   7.605   7.682 -0.9656 -0.8150  0.5135
39751SOL     OW36862   5.254   3.602  13.294 -0.0579  0.2884  0.3592
39751SOL    HW136863   5.300   3.532  13.340  0.6918 -0.3009 -1.2088
39751SOL    HW236864   5.254   3.675  13.356 -0.3143 -0.8806  1.8002
39752SOL     OW36865  10.758   5.294  12.415 -0.2052 -0.1183 -0.3629
39752SOL    HW136866  10.673   5.327  12.444  0.1214 -0.1693  0.6825
39752SOL    HW236867  10.818   5.317  12.486  0.5453 -0.5905 -0.8346
39753SOL     OW36868   3.531   3.554   0.053  0.1507  0.7310 -0.0484
39753SOL    HW136869   3.564   3.539   0.142  1.1086 -0.1976 -0.5407
39753SOL    HW236870   3.609   3.551  -0.002 -0.2218  2.8448 -0.7750
39754SOL     OW36871   6.183   2.217   7.071 -0.3468  0.4060  0.1444
39754SOL    HW136872   6.261   2.238   7.019  0.8840 -0.1599  1.6879
39754SOL    HW236873   6.167   2.296   7.124 -1.2087  0.7431 -0.5875
39755SOL     OW36874   6.281   3.861   4.520  0.2603 -0.7649  0.4320
39755SOL    HW136875   6.261   3.898   4.606  0.4666 -0.8647  0.5226
39755SOL    HW236876   6.230   3.781   4.515 -0.6796 -0.1564 -0.0149
39756SOL     OW36877   7.908   6.057  11.760 -0.7591  0.4063  0.5465
39756SOL    HW136878   7.890   5.974  11.804  0.5632 -0.0568  0.2664
39756SOL    HW236879   7.822   6.099  11.752 -1.2088 -0.0856  2.3442
39757SOL     OW36880   1.925  11.435  12.898  0.2329  0.0395 -0.0725
39757SOL    HW136881   1.866  11.396  12.833  1.8199 -2.8807  0.0491
39757SOL    HW236882   2.002  11.460  12.847  0.9153 -0.9571  0.4432
39758SOL     OW36883  12.812   7.780   7.388  0.0433 -0.1123 -0.2918
39758SOL    HW136884  12.886   7.833   7.358 -1.3386  0.6511 -2.6053
39758SOL    HW236885  12.779   7.825   7.465  0.8719  0.5430 -0.3075
39759SOL     OW36886   9.963   7.190   2.572 -0.1160  0.4626  0.2207
39759SOL    HW136887   9.926   7.253   2.510  0.1884  1.7984  1.3484
39759SOL    HW236888  10.036   7.237   2.613 -0.6395 -0.1801  1.9658
39760SOL     OW36889   1.762   5.592   8.989 -0.1463  0.0883 -0.1632
39760SOL    HW136890   1.829   5.633   8.934  0.3632  0.2757  0.5849
39760SOL    HW236891   1.707   5.664   9.018 -0.4246 -0.0123 -0.4380
39761SOL     OW36892   1.981   6.567   1.083 -0.7257  0.2937 -0.4840
39761SOL    HW136893   2.001   6.495   1.144 -2.0156  1.1470  1.0246
39761SOL    HW236894   2.065   6.589   1.044  0.3474  0.1894  1.5933
39762SOL     OW36895  11.633  10.906  10.134 -0.1766  0.2135  0.1630
39762SOL    HW136896  11.687  10.949  10.068 -3.3414  1.6098 -1.7782
39762SOL    HW236897  11.606  10.977  10.193 -0.9159 -0.1672  0.2983
39763SOL     OW36898   6.606  13.988   1.354  0.1157  0.3352 -0.3088
39763SOL    HW136899   6.529  14.020   1.309  0.3926 -0.0068 -1.0382
39763SOL    HW236900   6.616  13.898   1.324  0.1487  0.0059  0.6472
39764SOL     OW36901   9.838  13.786   2.844 -0.1964  0.1942  0.3818
39764SOL    HW136902   9.907  13.798   2.779  1.2096  0.2907  1.8257
39764SOL    HW236903   9.757  13.779   2.793  0.6151  2.0300 -1.2594
39765SOL     OW36904   4.881  12.914   9.743 -0.1864 -0.4040  0.2391
39765SOL    HW136905   4.867  12.939   9.651  2.6484  1.9959  0.3121
39765SOL    HW236906   4.955  12.852   9.739 -0.4054 -0.7105  0.8726
39766SOL     OW36907   6.779  13.138  13.020 -0.1499 -0.1427 -0.6075
39766SOL    HW136908   6.784  13.140  13.115  0.7548  1.2315 -0.6515
39766SOL    HW236909   6.850  13.081  12.992  1.4358  1.6620 -0.5004
39767SOL     OW36910   9.709   9.405   1.087 -0.0789  0.0487 -0.1415
39767SOL    HW136911   9.781   9.399   1.150  0.3832 -1.5120 -0.7863
39767SOL    HW236912   9.630   9.413   1.141  0.4467  0.3133  0.5992
39768SOL     OW36913   3.712   4.892   1.071  0.6566  0.2904 -0.2559
39768SOL    HW136914   3.697   4.986   1.059 -1.0882 -0.0938 -1.4784
39768SOL    HW236915   3.704   4.878   1.165 -0.2269  1.2120 -0.1759
39769SOL     OW36916   6.585  10.890   7.980 -0.0385  0.4354  0.0410
39769SOL    HW136917   6.577  10.956   7.912  0.5622 -0.1384 -0.6063
39769SOL    HW236918   6.522  10.822   7.955 -0.6251  0.7291  0.6800
39770SOL     OW36919   6.239  13.009   3.229 -0.1076 -0.1489  0.4544
39770SOL    HW136920   6.323  13.050   3.252 -0.2845  0.0511  0.7377
39770SOL    HW236921   6.207  12.971   3.310 -1.3937  1.7383  0.8862
39771SOL     OW36922   2.736  11.940   9.182 -0.1591 -0.2342 -0.3861
39771SOL    HW136923   2.737  11.862   9.238 -1.1116 -0.9030 -1.2605
39771SOL    HW236924   2.692  11.911   9.102  1.5946  0.5702 -1.6925
39772SOL     OW36925   1.661   2.768  10.529 -0.4436 -0.2216 -0.6092
39772SOL    HW136926   1.669   2.683  10.484  0.5131  0.6700 -2.2151
39772SOL    HW236927   1.746   2.781  10.571 -0.3991  0.1957 -0.8277
39773SOL     OW36928  12.464  12.462  13.185 -0.2071 -0.4090  0.1121
39773SOL    HW136929  12.477  12.435  13.095  0.5851 -1.1926  0.4477
39773SOL    HW236930  12.505  12.393  13.237 -1.3726 -0.3910  1.0981
39774SOL     OW36931   2.427   8.145  13.184  0.2212 -0.4475  0.2246
39774SOL    HW136932   2.456   8.211  13.121 -2.5407  1.4191  0.7584
39774SOL    HW236933   2.496   8.145  13.251  1.0207  0.7562 -0.5546
39775SOL     OW36934   9.280   8.167   1.896  0.2830  0.4451  0.5745
39775SOL    HW136935   9.359   8.126   1.931  1.4613  0.6843 -1.5877
39775SOL    HW236936   9.239   8.098   1.843 -0.1708  0.7331  0.5534
39776SOL     OW36937   3.506  10.059  13.923  0.4114 -0.8387 -0.0376
39776SOL    HW136938   3.493  10.000  13.849 -1.6096  0.1556 -0.5343
39776SOL    HW236939   3.546  10.003  13.990 -0.3574 -2.4900 -0.8802
39777SOL     OW36940   8.867   1.308  10.570  0.1767 -0.5500  0.6075
39777SOL    HW136941   8.936   1.340  10.512  1.5632 -0.4300  2.2083
39777SOL    HW236942   8.830   1.233  10.525  3.5013 -2.5894  0.9151
39778SOL     OW36943  11.260   1.681   9.067  0.3952 -0.2033  0.1485
39778SOL    HW136944  11.214   1.763   9.050  0.9688  0.0682 -0.0840
39778SOL    HW236945  11.190   1.620   9.092 -0.2666 -0.1085 -1.3114
39779SOL     OW36946   2.251  11.551   2.001 -0.4468 -0.2155  0.2831
39779SOL    HW136947   2.228  11.503   1.921 -2.7309  0.2075  0.6418
39779SOL    HW236948   2.282  11.636   1.969  2.1052 -1.2552 -0.2657
39780SOL     OW36949   3.386   2.121   9.776  0.1017 -0.1011 -0.1704
39780SOL    HW136950   3.386   2.062   9.701 -0.2111  1.0995 -1.1496
39780SOL    HW236951   3.312   2.093   9.829 -2.3759  1.5831 -2.4673
39781SOL     OW36952   4.282   4.119   3.420  0.1007  0.3679 -0.2434
39781SOL    HW136953   4.189   4.128   3.441  0.3619  0.2671  1.0317
39781SOL    HW236954   4.304   4.030   3.446  0.7798  0.7167  0.4074
39782SOL     OW36955  14.009  10.665   0.095  0.6298  0.1381  0.3191
39782SOL    HW136956  14.091  10.628   0.064  0.4634 -0.3294  0.4169
39782SOL    HW236957  13.979  10.604   0.163  0.6715  0.8008  0.9525
39783SOL     OW36958   4.036  11.667   8.095 -0.0259  0.0264 -0.3020
39783SOL    HW136959   4.126  11.693   8.112  0.5277 -2.5586  1.2761
39783SOL    HW236960   3.999  11.740   8.044  2.7047  1.4635 -0.4155
39784SOL     OW36961  11.025   5.885   0.049  0.2231  0.0459 -0.2181
39784SOL    HW136962  11.081   5.822   0.095 -0.0919  0.0048  0.1147
39784SOL    HW236963  10.942   5.840   0.037  0.2433  0.1241 -0.6696
39785SOL     OW36964   7.816   8.817   9.526  0.0947  0.5810 -0.2747
39785SOL    HW136965   7.853   8.905   9.533  0.9952  0.2371 -0.5585
39785SOL    HW236966   7.838   8.790   9.436 -0.3411  0.1405 -0.2500
39786SOL     OW36967  11.604   9.703   9.838  0.0548 -0.3601  0.6446
39786SOL    HW136968  11.555   9.714   9.919  0.2256  0.3625  0.6569
39786SOL    HW236969  11.591   9.611   9.814 -2.0657 -0.0033  0.1699
39787SOL     OW36970   1.633   3.900  11.332  0.4815  0.2762 -0.3890
39787SOL    HW136971   1.578   3.923  11.258 -3.4319 -1.5038  1.6678
39787SOL    HW236972   1.622   3.973  11.394  1.6359  0.5308 -0.4472
39788SOL     OW36973   2.695  10.603   8.407 -0.2857  0.0027  0.2063
39788SOL    HW136974   2.716  10.573   8.319 -0.1054 -0.0970  0.2823
39788SOL    HW236975   2.764  10.567   8.462  1.0379  2.0972  0.0243
39789SOL     OW36976   4.409   8.091   4.759 -0.2393  0.0947  0.3567
39789SOL    HW136977   4.445   8.117   4.844 -0.8237 -2.7124  1.5588
39789SOL    HW236978   4.470   8.025   4.726 -1.1129 -0.3213 -0.4654
39790SOL     OW36979   5.434   9.557   0.889 -0.0503 -0.5262 -0.0165
39790SOL    HW136980   5.369   9.487   0.879 -1.2575  0.4725  0.6745
39790SOL    HW236981   5.387   9.629   0.930  1.2033  0.6683 -0.5892
39791SOL     OW36982   8.422   4.381  13.415 -0.5457  0.1257 -0.1395
39791SOL    HW136983   8.463   4.462  13.387 -0.4989  0.4742  0.8834
39791SOL    HW236984   8.474   4.311  13.375  0.3127  0.5787  0.1655
39792SOL     OW36985   4.671  13.448   8.927 -0.1251 -0.4048  0.1587
39792SOL    HW136986   4.710  13.395   8.996 -1.5259  1.2599  2.3319
39792SOL    HW236987   4.600  13.393   8.893 -1.7883  0.0381  2.6270
39793SOL     OW36988   2.675   6.060   2.157 -0.5253  0.3157  0.3151
39793SOL    HW136989   2.741   6.005   2.200 -0.3115  0.1018 -0.2827
39793SOL    HW236990   2.684   6.145   2.200 -1.0465 -0.1790  1.4431
39794SOL     OW36991  11.307   2.161   0.378  0.4857 -0.3812  0.2366
39794SOL    HW136992  11.327   2.250   0.409 -1.3664 -0.3752  1.5605
39794SOL    HW236993  11.387   2.134   0.333  1.9752  1.0634  1.8330
39795SOL     OW36994   4.554  10.791   0.403  0.0465  0.0890 -0.1261
39795SOL    HW136995   4.580  10.842   0.480 -0.2714 -1.5576  1.1377
39795SOL    HW236996   4.636  10.772   0.358  0.4429 -0.3269  0.7377
39796SOL     OW36997   5.689   7.863   4.309 -0.0590  0.3420  0.0549
39796SOL    HW136998   5.615   7.923   4.301 -0.4307 -0.0700  0.3964
39796SOL    HW236999   5.651   7.779   4.333  0.6121  0.4594  1.7021
39797SOL     OW37000   9.938   1.895   8.533  0.1451 -0.4321  0.1619
39797SOL    HW137001   9.864   1.837   8.551 -0.2874  0.5065  1.5670
39797SOL    HW237002   9.913   1.941   8.452 -1.9359  1.5391  1.7972
39798SOL     OW37003   8.656  12.318   6.941  0.6292  0.7083  0.6817
39798SOL    HW137004   8.675  12.411   6.934 -0.0696  0.7252 -2.4404
39798SOL    HW237005   8.560  12.313   6.945  0.6508  0.1216  0.6143
39799SOL     OW37006  13.749   9.563  11.763  0.4089  0.0783 -0.1056
39799SOL    HW137007  13.674   9.563  11.822  0.5171  0.5646  0.0441
39799SOL    HW237008  13.714   9.593  11.679  0.3577 -0.0861 -0.1419
39800SOL     OW37009   3.535  11.660   0.652 -0.0851 -0.0925  0.5755
39800SOL    HW137010   3.541  11.734   0.591 -0.4905 -1.1972 -0.8624
39800SOL    HW237011   3.454  11.675   0.701 -0.7423 -0.1244 -0.4767
39801SOL     OW37012   1.488   0.207  11.528  0.2884  0.1685 -0.2071
39801SOL    HW137013   1.558   0.271  11.544  0.3033  0.0040  0.4081
39801SOL    HW237014   1.409   0.260  11.520  0.4830  0.3619 -0.9744
39802SOL     OW37015   5.642  11.783  10.663  0.0370 -0.1894 -0.5098
39802SOL    HW137016   5.561  11.756  10.618 -0.9176 -0.5961  1.3210
39802SOL    HW237017   5.612  11.842  10.733  1.1159 -1.4343  1.0869
39803SOL     OW37018  11.067   7.603   5.059 -0.1563  0.2132 -0.1381
39803SOL    HW137019  11.146   7.588   5.007 -0.7916 -0.0537 -1.0502
39803SOL    HW237020  11.038   7.690   5.035  1.3869  1.5304  2.3089
39804SOL     OW37021  12.728   8.113   6.128 -0.1782  0.2061  0.0998
39804SOL    HW137022  12.643   8.153   6.149  0.2740  1.0624  0.3496
39804SOL    HW237023  12.727   8.030   6.176 -0.7963  0.2907  0.2510
39805SOL     OW37024   4.977   2.382   1.281  0.2082  0.7766  0.2037
39805SOL    HW137025   4.992   2.402   1.188 -0.3548  0.1971 -0.0216
39805SOL    HW237026   4.901   2.437   1.304 -0.4699 -0.0405 -0.0405
39806SOL     OW37027  13.685  10.741   7.040 -0.0730  0.1472 -0.1474
39806SOL    HW137028  13.591  10.743   7.060 -0.0997 -0.4293 -0.1854
39806SOL    HW237029  13.692  10.677   6.968  0.3452  0.1916 -0.1453
39807SOL     OW37030   0.220   6.045   3.667 -0.2203  0.2597 -0.3187
39807SOL    HW137031   0.301   6.020   3.712 -1.8911 -1.3771  2.0515
39807SOL    HW237032   0.231   6.013   3.578  1.6262 -0.1976  0.0278
39808SOL     OW37033   8.031   6.443  10.144 -0.1898 -0.2401 -0.3431
39808SOL    HW137034   8.043   6.391  10.064  0.3013 -1.6687  0.6053
39808SOL    HW237035   8.109   6.423  10.197 -1.3551 -0.8215  1.2582
39809SOL     OW37036  11.587   0.401  10.936 -0.2811  0.2968  0.0406
39809SOL    HW137037  11.571   0.312  10.969 -1.8332 -0.1817 -1.7991
39809SOL    HW237038  11.515   0.453  10.970 -0.9528  0.1748 -1.1321
39810SOL     OW37039   2.872   0.261   3.958 -0.4470  0.0810  0.0675
39810SOL    HW137040   2.776   0.264   3.955 -0.4030  0.8342 -1.8883
39810SOL    HW237041   2.894   0.290   4.047 -2.0334 -1.9742  1.2379
39811SOL     OW37042  11.387   5.232   5.623 -0.4497 -0.1046 -0.2097
39811SOL    HW137043  11.472   5.199   5.649 -1.0646 -1.0377  0.6814
39811SOL    HW237044  11.365   5.297   5.690 -0.7682 -0.4064 -0.0223
39812SOL     OW37045  10.774   7.134   8.885  0.2257  0.4799 -0.5641
39812SOL    HW137046  10.685   7.167   8.877 -1.7876 -3.6002  1.5488
39812SOL    HW237047  10.810   7.181   8.960 -0.0370  2.1984 -1.4573
39813SOL     OW37048  11.562   4.275   6.593  0.1377  0.3995 -0.3270
39813SOL    HW137049  11.642   4.322   6.570  1.3085  0.0066  2.5261
39813SOL    HW237050  11.592   4.189   6.622 -1.4702 -0.2683 -0.5389
39814SOL     OW37051  13.919   0.670   9.420 -0.4724  0.1859 -0.1391
39814SOL    HW137052  13.874   0.733   9.363 -0.6054 -0.0447 -0.2941
39814SOL    HW237053  13.999   0.649   9.374 -0.8537 -0.4451 -0.5302
39815SOL     OW37054   0.656  10.841  12.476  0.0656  0.1865  0.2922
39815SOL    HW137055   0.604  10.814  12.400 -0.6983 -0.1536  0.9182
39815SOL    HW237056   0.599  10.823  12.552  0.8932  0.3073  0.9605
39816SOL     OW37057   9.638   4.575  11.689  0.5274  0.2180 -0.2728
39816SOL    HW137058   9.567   4.610  11.635  0.3481  0.3619  0.0487
39816SOL    HW237059   9.717   4.589  11.638  0.3080 -0.0703 -0.6975
39817SOL     OW37060   7.994   2.178   4.254 -0.2432  0.0289 -0.3029
39817SOL    HW137061   7.960   2.218   4.174 -1.8217  0.6410  0.6232
39817SOL    HW237062   8.018   2.089   4.228 -1.8244 -0.1749 -1.2419
39818SOL     OW37063   3.435  12.223   8.238  0.0301 -0.8694 -0.1230
39818SOL    HW137064   3.497  12.219   8.165 -0.9424 -1.5748 -0.9361
39818SOL    HW237065   3.351  12.242   8.197 -0.4442 -0.7686  0.8725
39819SOL     OW37066   9.622   7.566   3.273  0.0292  0.0940  0.0863
39819SOL    HW137067   9.647   7.505   3.343 -0.0661 -0.6129 -0.4764
39819SOL    HW237068   9.647   7.652   3.306  0.6193 -0.3000  0.7023
39820SOL     OW37069  11.182   9.372   3.276  0.0191 -0.3554 -0.1233
39820SOL    HW137070  11.087   9.367   3.288  0.0560 -0.3615  0.1787
39820SOL    HW237071  11.194   9.428   3.200 -0.2459 -0.7748 -0.4766
39821SOL     OW37072   0.005   7.466  12.149 -0.1202  0.3243 -0.0911
39821SOL    HW137073  -0.001   7.558  12.173  1.5275  0.4525 -0.1094
39821SOL    HW237074  -0.057   7.455  12.077 -3.0354  0.5880  2.1576
39822SOL     OW37075   9.488   5.272  11.011 -0.4137 -0.1837  0.5491
39822SOL    HW137076   9.545   5.294  10.938 -0.4508  0.7210  0.7689
39822SOL    HW237077   9.453   5.185  10.991 -0.8468  0.2744 -0.7753
39823SOL     OW37078   2.209  11.463  12.118  0.5210 -0.6764  0.3540
39823SOL    HW137079   2.154  11.390  12.089  1.0236 -0.7527 -0.4485
39823SOL    HW237080   2.275  11.472  12.049  0.8836  0.0880  0.7865
39824SOL     OW37081   1.474   5.148   6.584  0.3135  0.2183 -0.2963
39824SOL    HW137082   1.447   5.205   6.655  0.3948 -0.9035  0.6644
39824SOL    HW237083   1.495   5.207   6.511  1.0685  1.4428  0.8774
39825SOL     OW37084  11.847  13.783  12.331 -0.0931  0.4758 -0.1594
39825SOL    HW137085  11.798  13.729  12.269 -0.5519  1.6397 -0.8397
39825SOL    HW237086  11.857  13.867  12.287  0.0974  1.1367  1.1128
39826SOL     OW37087  11.912   7.548   4.043  0.8812  0.4480 -0.7312
39826SOL    HW137088  11.884   7.474   4.096 -0.9136  1.5984  0.0152
39826SOL    HW237089  12.007   7.540   4.039  0.7230 -1.9196 -0.7639
39827SOL     OW37090  13.684   3.295   8.747 -0.1976  0.0580  0.3503
39827SOL    HW137091  13.630   3.285   8.669  0.1066 -0.2434  0.1804
39827SOL    HW237092  13.762   3.342   8.717  0.2614 -0.7038  0.3166
39828SOL     OW37093   8.528   0.704   2.580 -0.2245  0.1920 -0.0817
39828SOL    HW137094   8.438   0.674   2.583  0.0719 -0.7995 -0.7133
39828SOL    HW237095   8.549   0.707   2.487  0.8938 -1.1248  0.1069
39829SOL     OW37096   6.776  10.010   2.409  0.6568  0.2098  0.5223
39829SOL    HW137097   6.716  10.067   2.457 -0.5237  0.8611 -1.5808
39829SOL    HW237098   6.733   9.924   2.410  1.3181 -0.1307  1.7464
39830SOL     OW37099  13.953   2.182   4.660 -0.1327  0.1972 -0.0724
39830SOL    HW137100  14.012   2.212   4.728  1.2657  1.4105 -1.7306
39830SOL    HW237101  13.980   2.230   4.582 -1.7838 -0.9919 -1.4555
39831SOL     OW37102  13.168  12.526  12.952  0.1075 -0.2084 -0.0122
39831SOL    HW137103  13.193  12.602  12.899 -0.9085 -0.0823 -0.3236
39831SOL    HW237104  13.074  12.537  12.967  0.0093 -1.2497  0.1904
39832SOL     OW37105   9.838  13.379   6.204  0.4245  0.1213  0.7272
39832SOL    HW137106   9.801  13.458   6.163  0.7867 -0.1786 -0.2160
39832SOL    HW237107   9.845  13.401   6.297 -0.6602  0.7375  0.6778
39833SOL     OW37108   1.316   5.469   7.230  0.2884 -0.1052 -0.2120
39833SOL    HW137109   1.271   5.444   7.310  0.3262 -1.7596 -0.6556
39833SOL    HW237110   1.401   5.424   7.234  1.3876  1.8500 -0.0252
39834SOL     OW37111  12.459   1.762   7.222 -0.9044 -0.2052 -0.3123
39834SOL    HW137112  12.491   1.672   7.213  0.2262 -0.1440  2.2634
39834SOL    HW237113  12.524   1.805   7.277 -1.0622  2.4290 -2.0041
39835SOL     OW37114   2.358  11.852  12.801  0.0781 -0.1687  0.6661
39835SOL    HW137115   2.295  11.920  12.828  1.0149  1.2832 -0.6318
39835SOL    HW237116   2.430  11.901  12.762  0.2513 -1.9658 -1.4414
39836SOL     OW37117  12.112   2.806   9.819  0.2188 -0.2725  0.2887
39836SOL    HW137118  12.173   2.738   9.791  1.0582 -0.2507  1.9777
39836SOL    HW237119  12.072   2.771   9.899  3.2186  2.4819  3.2825
39837SOL     OW37120  10.147  14.010  11.836  0.5836 -0.4154  0.5355
39837SOL    HW137121  10.079  14.071  11.864  0.2797 -0.7660  0.5715
39837SOL    HW237122  10.186  14.050  11.758  0.5621 -0.0565  0.7073
39838SOL     OW37123   0.731  10.556   4.111 -0.4867  0.0233 -0.5620
39838SOL    HW137124   0.750  10.632   4.056  0.1952 -0.6277 -1.2425
39838SOL    HW237125   0.645  10.525   4.082 -0.7758  0.5346 -0.2692
39839SOL     OW37126   7.507  12.499   6.857 -0.2773 -0.1881 -0.1547
39839SOL    HW137127   7.505  12.526   6.949  2.1176 -1.0267  0.2033
39839SOL    HW237128   7.578  12.550   6.818  0.0698 -1.2953 -1.0331
39840SOL     OW37129   2.770  11.565   6.205 -0.0217  0.2425  0.0784
39840SOL    HW137130   2.827  11.493   6.233  1.6124  0.7209 -1.8398
39840SOL    HW237131   2.830  11.635   6.181 -1.5103  1.4624 -0.2284
39841SOL     OW37132   4.398   2.987  11.478 -0.0344  0.2691 -0.1389
39841SOL    HW137133   4.388   3.073  11.437 -3.8250  0.8707  1.5878
39841SOL    HW237134   4.376   2.925  11.408 -1.8428  1.0310 -0.3063
39842SOL     OW37135   9.065   6.167   4.473  0.1780 -0.1941 -0.0200
39842SOL    HW137136   9.044   6.110   4.547  0.0019 -1.2885 -0.8827
39842SOL    HW237137   9.131   6.227   4.508 -2.3966  1.6522  1.9995
39843SOL     OW37138  12.438   4.030  11.829 -0.3227 -0.2146  0.0132
39843SOL    HW137139  12.473   4.011  11.742 -0.6463  0.1115 -0.1884
39843SOL    HW237140  12.411   4.122  11.824  0.8506  0.2097  0.8449
39844SOL     OW37141   2.361   9.311   8.623 -0.4863 -0.0340 -0.6528
39844SOL    HW137142   2.369   9.278   8.533  0.7686  1.6744 -1.2210
39844SOL    HW237143   2.427   9.262   8.672  0.2168  0.4186 -1.1238
39845SOL     OW37144   6.395   0.424  14.060 -0.3104  0.6986 -0.0217
39845SOL    HW137145   6.331   0.358  14.086  0.8712 -0.0106  1.2302
39845SOL    HW237146   6.380   0.498  14.118 -0.7819  1.0319 -0.5562
39846SOL     OW37147  13.936   4.141   5.423  0.3070 -0.0080 -0.2427
39846SOL    HW137148  13.962   4.223   5.466  0.8722  0.6443 -1.7503
39846SOL    HW237149  14.004   4.078   5.448  0.4134  0.2557  0.1349
39847SOL     OW37150  11.909   0.254   8.251  0.1456  0.1240 -0.4489
39847SOL    HW137151  11.940   0.165   8.238  1.9489  0.5350  0.7099
39847SOL    HW237152  11.934   0.300   8.170  1.3277  0.0929 -0.1258
39848SOL     OW37153  11.074   6.820   4.103 -0.2273  0.5852  0.0330
39848SOL    HW137154  10.987   6.851   4.078 -0.4225 -0.0151 -0.0564
39848SOL    HW237155  11.057   6.740   4.153  0.2937  0.1162 -0.5214
39849SOL     OW37156  13.260   5.993  13.508 -0.3126  0.3920 -0.7461
39849SOL    HW137157  13.266   6.013  13.414 -0.3998  0.2550 -0.7821
39849SOL    HW237158  13.237   6.077  13.548  1.2249  0.7947 -0.6579
39850SOL     OW37159  12.330   0.257   5.450 -0.0998  0.1287 -0.0363
39850SOL    HW137160  12.253   0.204   5.428  0.5415 -0.5201 -0.8213
39850SOL    HW237161  12.402   0.195   5.448  0.4378  0.7172  0.7718
39851SOL     OW37162   2.628   4.159   2.175  0.3625  0.3285 -0.1771
39851SOL    HW137163   2.592   4.078   2.140 -2.3058  1.4645 -0.2937
39851SOL    HW237164   2.675   4.198   2.100  0.9278 -0.6458 -0.3542
39852SOL     OW37165   2.679  13.524   3.519  0.3776 -0.8675 -0.4353
39852SOL    HW137166   2.731  13.444   3.526  0.4290 -0.7377  0.8848
39852SOL    HW237167   2.613  13.503   3.452  0.9385 -1.6906 -0.7514
39853SOL     OW37168   4.599   0.687  11.485  0.3118 -0.0345  0.5990
39853SOL    HW137169   4.600   0.597  11.517  0.5154 -0.0633  0.5156
39853SOL    HW237170   4.606   0.741  11.564  0.5131 -0.0984  0.6253
39854SOL     OW37171   2.002   5.085   4.175 -0.5909 -0.0376  0.2321
39854SOL    HW137172   1.954   5.004   4.192 -0.2667 -0.1074  0.8480
39854SOL    HW237173   2.093   5.057   4.165 -0.2712  0.3611  1.6896
39855SOL     OW37174   0.922   2.884   3.686 -0.0884 -0.1953 -0.2602
39855SOL    HW137175   0.909   2.789   3.681  0.0350 -0.2043 -0.3996
39855SOL    HW237176   0.957   2.908   3.600  0.1180 -0.0615 -0.1393
39856SOL     OW37177  12.025   3.120   4.815  0.1004  0.3071  0.1501
39856SOL    HW137178  12.063   3.041   4.854  0.1961  0.5104  0.4667
39856SOL    HW237179  11.987   3.168   4.889  1.0121  1.1063  0.1268
39857SOL     OW37180  13.308   5.978  11.234  0.3710  0.5655 -0.3385
39857SOL    HW137181  13.377   5.996  11.170  0.5583 -1.7890 -0.8627
39857SOL    HW237182  13.339   5.904  11.284 -1.3496  0.0761  0.0752
39858SOL     OW37183   1.599   4.281   2.588  0.0151  0.6858 -0.4391
39858SOL    HW137184   1.682   4.325   2.567  0.1980  1.0477  0.9445
39858SOL    HW237185   1.600   4.273   2.684 -0.7295 -0.9549 -0.5396
39859SOL     OW37186   3.192  12.523   3.558  0.4259  0.7777  0.6124
39859SOL    HW137187   3.264  12.576   3.524  0.4427  1.6782  1.9765
39859SOL    HW237188   3.142  12.582   3.614 -1.1105  0.0356  0.0920
39860SOL     OW37189   2.976   3.928   2.725 -0.4589 -0.3343  0.0525
39860SOL    HW137190   2.921   4.006   2.716 -2.3207 -1.4585  1.0074
39860SOL    HW237191   2.945   3.869   2.656  1.3192 -0.0868 -1.0346
39861SOL     OW37192  10.124   2.437   3.274 -0.3672 -0.2881 -0.0450
39861SOL    HW137193  10.168   2.428   3.359  1.3495 -0.1941 -0.8686
39861SOL    HW237194  10.194   2.423   3.210 -1.5321  0.0895 -1.4468
39862SOL     OW37195  13.457   1.430   3.988  0.1912  0.1485 -0.4886
39862SOL    HW137196  13.453   1.338   4.016 -0.2488 -0.0330 -1.1301
39862SOL    HW237197  13.456   1.480   4.070 -1.6303 -0.3555 -0.1552
39863SOL     OW37198  12.271   1.920  12.304  0.1289  0.2466  0.0017
39863SOL    HW137199  12.282   1.825  12.312 -0.5319 -0.0333 -1.8763
39863SOL    HW237200  12.255   1.950  12.394  0.4510 -1.4001  0.6455
39864SOL     OW37201   2.776  10.209  11.799  0.3804 -0.7641 -0.4199
39864SOL    HW137202   2.703  10.270  11.812 -0.0522 -1.2291 -0.6395
39864SOL    HW237203   2.854  10.264  11.804  0.0131 -0.2506 -0.2359
39865SOL     OW37204  11.180   5.863   7.400  0.1595 -0.3143 -0.0553
39865SOL    HW137205  11.156   5.831   7.313  0.2091  0.7511 -0.4817
39865SOL    HW237206  11.252   5.807   7.427  0.3475 -0.4659 -0.8436
39866SOL     OW37207  11.401   2.586   1.266 -0.5762 -0.1260 -0.2540
39866SOL    HW137208  11.402   2.665   1.212 -0.0302 -0.1451 -0.2772
39866SOL    HW237209  11.352   2.523   1.214 -1.4056  0.3217 -0.0429
39867SOL     OW37210   2.511   9.215   7.823  0.2046 -0.8410 -0.0760
39867SOL    HW137211   2.605   9.231   7.819  0.1693 -0.6696 -0.2364
39867SOL    HW237212   2.486   9.197   7.732  0.0588 -0.7374 -0.0580
39868SOL     OW37213   6.177   4.245   4.025 -0.1923 -0.7427  0.2018
39868SOL    HW137214   6.209   4.155   4.016  0.0094 -0.6554  0.0438
39868SOL    HW237215   6.175   4.260   4.120 -1.5824 -1.3977  0.3013
39869SOL     OW37216   3.168   6.155   0.604  0.3109  0.1073 -0.0920
39869SOL    HW137217   3.249   6.150   0.657  1.4650  0.2346 -1.7773
39869SOL    HW237218   3.115   6.082   0.637  0.0861  1.3695  2.6069
39870SOL     OW37219  12.377   0.912   4.241  0.0057  0.2147 -0.3539
39870SOL    HW137220  12.324   0.981   4.281  1.3325  0.2841  1.4050
39870SOL    HW237221  12.465   0.949   4.237  0.8793 -1.5288  1.1882
39871SOL     OW37222   4.278  13.366   3.754  0.1541 -0.1231 -0.3317
39871SOL    HW137223   4.312  13.290   3.706  1.2409  0.1400 -0.0052
39871SOL    HW237224   4.254  13.332   3.840  2.3834  0.2137  0.4735
39872SOL     OW37225  10.588   8.762   3.035 -0.3295  0.2927 -0.0378
39872SOL    HW137226  10.628   8.827   2.977 -1.7612 -0.9960 -2.6504
39872SOL    HW237227  10.646   8.760   3.111  3.0485  0.5082 -2.3500
39873SOL     OW37228   5.716   2.828   1.244  0.2943 -0.1826 -0.0637
39873SOL    HW137229   5.770   2.902   1.272 -2.4711  0.8910  3.1337
39873SOL    HW237230   5.740   2.757   1.304 -0.4283 -0.3082  0.0848
39874SOL     OW37231  11.156  11.167  13.291 -0.8752  0.2590 -0.7335
39874SOL    HW137232  11.106  11.211  13.360  0.8066 -1.4494  1.7313
39874SOL    HW237233  11.091  11.148  13.223 -3.2564 -0.2616  1.5071
39875SOL     OW37234   2.518   1.556   6.101 -0.3526  0.5639 -0.0588
39875SOL    HW137235   2.611   1.577   6.094 -0.1770  0.2266  1.0263
39875SOL    HW237236   2.514   1.461   6.088 -0.5324  0.5668 -0.0246
39876SOL     OW37237  12.970   7.975  10.521 -0.1522  0.3296  0.2940
39876SOL    HW137238  13.055   8.011  10.545 -0.2821 -0.6208  2.4842
39876SOL    HW237239  12.907   8.039  10.553 -0.2872  0.4925 -0.2923
39877SOL     OW37240  10.952  10.275   8.031  0.3662 -0.1682 -0.5369
39877SOL    HW137241  10.881  10.210   8.033  0.8993 -0.7502  0.5811
39877SOL    HW237242  10.970  10.293   8.123  0.7398  1.0256 -0.8311
39878SOL     OW37243   9.320  12.704  11.575 -0.1427  0.3184 -0.3297
39878SOL    HW137244   9.293  12.615  11.599  0.9874 -0.2796 -1.1582
39878SOL    HW237245   9.310  12.707  11.480  0.9619  0.6562 -0.4513
39879SOL     OW37246   0.221   1.838   5.617  0.5520  0.1952  0.0873
39879SOL    HW137247   0.135   1.803   5.640  0.6989  0.4690  1.0963
39879SOL    HW237248   0.268   1.844   5.701  1.6562 -0.2176 -0.4759
39880SOL     OW37249  11.750  10.122  10.990 -0.1309  0.2479  0.7446
39880SOL    HW137250  11.705  10.072  10.921  0.4977  1.5180 -0.6439
39880SOL    HW237251  11.843  10.107  10.974  0.0275 -0.8555  2.4542
39881SOL     OW37252   7.001   7.127  12.871 -0.0024 -0.4652 -0.5136
39881SOL    HW137253   6.913   7.092  12.875  0.6117 -2.0469 -0.1378
39881SOL    HW237254   7.031   7.126  12.962 -0.0857  1.4431 -0.4278
39882SOL     OW37255  13.932   9.710   4.000  0.0786 -0.6116 -0.2364
39882SOL    HW137256  13.865   9.657   3.957 -0.9620  2.8362 -3.4079
39882SOL    HW237257  13.980   9.750   3.928  3.3386 -0.2014  1.9716
39883SOL     OW37258   6.124  10.242   4.687  0.4338  0.4689 -0.4051
39883SOL    HW137259   6.063  10.169   4.697 -0.0917  0.8115 -1.0374
39883SOL    HW237260   6.210  10.201   4.685  0.1234 -0.1637 -1.1167
39884SOL     OW37261   3.153   8.722  13.023 -0.1900 -0.3216 -0.6641
39884SOL    HW137262   3.103   8.703  13.103 -0.2419  1.0140 -0.3609
39884SOL    HW237263   3.136   8.647  12.966  1.3758 -2.3324  1.2747
39885SOL     OW37264  11.263   8.793   7.688  0.2549  0.9113  0.2219
39885SOL    HW137265  11.284   8.708   7.727 -0.0405  1.1311  0.8822
39885SOL    HW237266  11.329   8.805   7.620  0.9567  0.6236  0.8321
39886SOL     OW37267  12.413   3.408   7.033 -0.2232  0.1114  0.0043
39886SOL    HW137268  12.399   3.452   6.950 -1.6673 -3.2839 -1.7590
39886SOL    HW237269  12.330   3.419   7.080 -0.4099 -0.2547 -0.2310
39887SOL     OW37270   0.595   3.641  11.974 -0.2134 -0.2175  0.0412
39887SOL    HW137271   0.652   3.581  11.926 -1.0263  0.3833 -1.7998
39887SOL    HW237272   0.556   3.696  11.906 -1.8531  0.3611  1.3717
39888SOL     OW37273  10.385  13.636   9.704  0.1851 -0.5097 -0.6319
39888SOL    HW137274  10.473  13.652   9.740 -0.8947  0.1154  1.9793
39888SOL    HW237275  10.396  13.563   9.644  2.2094 -1.6058  0.9625
39889SOL     OW37276  10.060   0.976   4.290 -0.1214  0.0422 -0.2634
39889SOL    HW137277  10.101   0.895   4.258 -0.3930 -0.4664  0.6114
39889SOL    HW237278   9.999   0.946   4.358 -0.0320  1.0093  0.2638
39890SOL     OW37279   6.430   8.706  13.440 -0.1380  0.1282  0.0317
39890SOL    HW137280   6.461   8.772  13.379  0.3393  0.9621  1.1455
39890SOL    HW237281   6.355   8.746  13.484  1.6320  0.9752  2.4791
39891SOL     OW37282   2.556  10.104   9.083  0.1191 -0.4380 -0.5143
39891SOL    HW137283   2.609  10.030   9.055 -2.1080 -2.5486  0.4953
39891SOL    HW237284   2.571  10.110   9.178 -0.2802 -0.0861 -0.4696
39892SOL     OW37285   0.254  12.835   8.718 -0.5812 -0.2111 -0.0379
39892SOL    HW137286   0.316  12.822   8.790 -0.1455 -0.8186 -0.5124
39892SOL    HW237287   0.170  12.808   8.755 -0.1564 -1.7544 -0.1140
39893SOL     OW37288   4.443   0.173   9.744  0.1693  0.0060 -0.0917
39893SOL    HW137289   4.403   0.172   9.830 -0.2402 -2.5195 -0.2496
39893SOL    HW237290   4.529   0.132   9.756 -0.3380 -1.4049 -1.0325
39894SOL     OW37291   6.108   2.413   0.608 -0.4339 -0.0561 -0.3975
39894SOL    HW137292   6.056   2.489   0.635  1.4827  1.5920 -1.1134
39894SOL    HW237293   6.104   2.413   0.513 -1.2412 -1.5304 -0.4055
39895SOL     OW37294  13.020   3.525   4.467 -0.4553 -0.1047  0.0935
39895SOL    HW137295  12.985   3.613   4.478 -1.6132 -0.1435 -2.5786
39895SOL    HW237296  13.112   3.538   4.445 -0.5347  0.4054  0.0652
39896SOL     OW37297   0.017  13.598  13.947  0.5843 -0.1130  0.5460
39896SOL    HW137298   0.051  13.531  14.005  0.9195 -0.1545  0.3034
39896SOL    HW237299  -0.079  13.592  13.956  0.6075 -0.7174  0.4136
39897SOL     OW37300   1.905  10.890   3.700 -0.3622  0.0802  0.0293
39897SOL    HW137301   1.882  10.983   3.698  2.0380  0.7166 -0.4096
39897SOL    HW237302   1.867  10.859   3.782 -3.9690  0.5800 -1.2599
39898SOL     OW37303  12.400   9.251  13.789  0.0368 -0.5923  0.5047
39898SOL    HW137304  12.456   9.210  13.855  1.3381 -1.3571 -1.0045
39898SOL    HW237305  12.358   9.178  13.744  1.0418 -0.2674 -1.0637
39899SOL     OW37306   2.955  13.198  13.755  0.0698  1.1570 -0.1420
39899SOL    HW137307   2.906  13.263  13.704 -0.4797  0.4847 -0.4830
39899SOL    HW237308   2.903  13.186  13.835 -0.2218  0.5853 -0.4170
39900SOL     OW37309   1.702  12.201   7.559  0.4828 -0.0711  0.1118
39900SOL    HW137310   1.759  12.124   7.558 -0.2229 -0.6394  1.2420
39900SOL    HW237311   1.617  12.167   7.589 -0.3260  0.8396 -1.0645
39901SOL     OW37312   5.162   3.799   1.255  0.5362  0.4421 -0.5641
39901SOL    HW137313   5.174   3.893   1.241  0.3986  1.0378  2.6389
39901SOL    HW237314   5.070   3.783   1.235  0.3503  1.1691 -0.2845
39902SOL     OW37315   8.107   1.863  11.893 -0.1792 -0.3337 -0.4103
39902SOL    HW137316   8.031   1.836  11.945 -0.6810  1.4417 -0.1795
39902SOL    HW237317   8.182   1.841  11.948 -0.6384  0.1073  0.4141
39903SOL     OW37318   6.543   5.300   5.635  0.2346  0.4956 -0.0587
39903SOL    HW137319   6.553   5.380   5.687  1.4408  0.2938  0.0507
39903SOL    HW237320   6.479   5.324   5.567 -1.3515  0.7641  1.4719
39904SOL     OW37321   4.301  13.212   1.224 -0.3824  0.0449 -0.6669
39904SOL    HW137322   4.213  13.237   1.253 -0.8590  0.5487 -2.3932
39904SOL    HW237323   4.360  13.246   1.291 -1.4018  1.0883 -0.2815
39905SOL     OW37324  12.073   5.627   5.076  0.0183 -0.4348 -0.4256
39905SOL    HW137325  12.167   5.637   5.093 -0.1657  1.4236 -0.2821
39905SOL    HW237326  12.060   5.664   4.989 -0.7783  0.7119  0.1476
39906SOL     OW37327  13.254  12.330  10.914  0.5229  0.1483 -0.1281
39906SOL    HW137328  13.186  12.277  10.873  0.0279  0.2094  0.5935
39906SOL    HW237329  13.269  12.287  10.999  1.0266  0.4217 -0.0774
39907SOL     OW37330   0.605  12.682   7.293  0.1545 -0.1549 -0.0418
39907SOL    HW137331   0.661  12.654   7.220  1.2277  0.5669  0.4827
39907SOL    HW237332   0.664  12.686   7.368 -0.7525 -0.0092  0.6696
39908SOL     OW37333   8.226   9.060   0.747 -0.7364 -0.3208 -0.3376
39908SOL    HW137334   8.202   9.144   0.787 -0.7449  0.4004 -1.7981
39908SOL    HW237335   8.164   9.050   0.675 -1.2683 -2.0113  0.3105
39909SOL     OW37336   7.312  13.572   7.206  0.2386  0.1857 -0.2367
39909SOL    HW137337   7.353  13.537   7.285  0.7203 -1.8689 -1.3187
39909SOL    HW237338   7.302  13.496   7.149  0.4371  1.6957 -2.3958
39910SOL     OW37339   1.270   5.905   5.465 -0.7095  0.1938  0.2109
39910SOL    HW137340   1.310   5.970   5.407 -1.3247  0.7365  0.3842
39910SOL    HW237341   1.255   5.829   5.409 -1.0130  0.6020 -0.2684
39911SOL     OW37342   2.358  13.196   1.662  0.2399 -0.3005 -0.4479
39911SOL    HW137343   2.304  13.178   1.739  1.3676  0.0581  0.4808
39911SOL    HW237344   2.314  13.153   1.590 -1.0572 -0.3431  0.3361
39912SOL     OW37345   1.954   0.283  12.221  0.5988 -0.3517 -0.4290
39912SOL    HW137346   2.003   0.222  12.275  0.7218 -0.4294 -0.6259
39912SOL    HW237347   1.928   0.232  12.144  0.9198 -0.0944 -0.7128
39913SOL     OW37348   8.034   2.916   0.416  0.2338  0.4297  0.2104
39913SOL    HW137349   8.052   2.925   0.510  0.2717  0.2395  0.2215
39913SOL    HW237350   8.111   2.953   0.374  0.6727 -0.4089  0.2585
39914SOL     OW37351   1.468  11.032   5.477 -0.1774  0.8770 -0.1074
39914SOL    HW137352   1.445  11.059   5.388 -1.0546  0.8615  0.1063
39914SOL    HW237353   1.531  10.961   5.465 -0.2856  0.8786 -0.7154
39915SOL     OW37354   2.674   4.327   6.586 -0.4440 -0.2575  0.1790
39915SOL    HW137355   2.761   4.320   6.547 -0.3861 -2.1702  0.5955
39915SOL    HW237356   2.691   4.350   6.678 -0.2793 -2.0459  0.6241
39916SOL     OW37357  11.604  12.493  11.525  0.2149  0.5403 -0.0153
39916SOL    HW137358  11.570  12.479  11.614  0.7382  1.1661  0.2910
39916SOL    HW237359  11.677  12.431  11.518 -0.5218 -0.3152 -0.4291
39917SOL     OW37360   5.000   0.407   8.839 -0.2639  0.0815  0.3017
39917SOL    HW137361   4.909   0.392   8.867 -0.3791 -2.5198 -1.1028
39917SOL    HW237362   5.049   0.337   8.882  0.1985 -1.5382 -2.5964
39918SOL     OW37363  11.488  11.623   2.263 -0.1067  0.1938 -0.6860
39918SOL    HW137364  11.425  11.695   2.255  1.0108  1.1830 -0.9057
39918SOL    HW237365  11.442  11.557   2.314 -0.7149  1.6272  0.7363
39919SOL     OW37366  10.356   6.609  11.966  0.4557 -0.3828  0.3994
39919SOL    HW137367  10.318   6.541  12.021  1.4701 -0.2587  1.2845
39919SOL    HW237368  10.409   6.662  12.026 -0.2766  1.1823 -0.2669
39920SOL     OW37369  13.811   9.848   1.419 -0.0091  0.0423 -0.1672
39920SOL    HW137370  13.849   9.907   1.354  1.6999  1.1218  1.7468
39920SOL    HW237371  13.786   9.904   1.492 -2.0231 -1.1324  0.1306
39921SOL     OW37372   0.892   0.588   5.346 -0.6081  0.0608 -0.2597
39921SOL    HW137373   0.913   0.536   5.423 -1.0959  0.4667  0.1602
39921SOL    HW237374   0.970   0.582   5.291  0.7719  1.7497  1.3667
39922SOL     OW37375  12.727  10.702   9.735  0.3740  0.3859 -0.5838
39922SOL    HW137376  12.737  10.617   9.779  1.1557  0.7283 -0.0802
39922SOL    HW237377  12.649  10.740   9.775  1.4906  1.0164  1.1179
39923SOL     OW37378  10.928  12.840   5.954  0.3899 -0.7668  0.7232
39923SOL    HW137379  10.966  12.861   5.869  1.2323 -1.0232  1.0312
39923SOL    HW237380  10.840  12.878   5.951 -0.8228 -3.4065 -1.4426
39924SOL     OW37381   3.578  13.895   1.090 -0.3236  0.7491  0.0623
39924SOL    HW137382   3.550  13.851   1.170  0.6177  1.3873  0.7603
39924SOL    HW237383   3.499  13.936   1.055 -0.6353  0.9404  0.9768
39925SOL     OW37384  10.533   8.063  12.453  0.0479  0.4671  0.0749
39925SOL    HW137385  10.546   7.970  12.472 -0.4033  0.7292  1.8910
39925SOL    HW237386  10.447   8.067  12.410 -0.0334  0.0547  0.1903
39926SOL     OW37387   6.680  12.943   4.369  0.4138 -0.1037 -0.3250
39926SOL    HW137388   6.660  13.018   4.313 -0.5778 -0.0124  0.1338
39926SOL    HW237389   6.627  12.872   4.333 -0.3722  0.0032  0.5951
39927SOL     OW37390   3.402   4.616   1.865 -0.3822  0.2580  0.9298
39927SOL    HW137391   3.346   4.569   1.928 -1.4675 -1.3749 -1.1389
39927SOL    HW237392   3.342   4.676   1.821 -0.2463 -0.5549 -0.3920
39928SOL     OW37393   5.604   2.446   5.587 -0.2851  0.2013 -0.0971
39928SOL    HW137394   5.699   2.449   5.601 -0.2946  0.1908 -0.0286
39928SOL    HW237395   5.591   2.368   5.532 -0.3768 -0.5110  0.9033
39929SOL     OW37396   4.145   3.017  10.212  0.5145  0.0697  0.2872
39929SOL    HW137397   4.172   3.096  10.260  0.5093  0.4613 -0.3352
39929SOL    HW237398   4.155   3.041  10.120 -2.2800  0.3891 -0.0302
39930SOL     OW37399   5.997  10.850  10.434 -0.0915 -0.0152 -1.1297
39930SOL    HW137400   6.022  10.941  10.418 -0.0722  0.3854  0.9230
39930SOL    HW237401   6.055  10.799  10.377  0.1436  1.2132 -2.0443
39931SOL     OW37402   2.461   0.683   5.203  0.6246 -0.0432  0.1325
39931SOL    HW137403   2.477   0.777   5.210  2.0568 -0.1726 -0.9233
39931SOL    HW237404   2.547   0.643   5.218  0.5204 -1.0538 -1.6832
39932SOL     OW37405   0.078  11.220   0.575 -0.6583 -0.4001 -0.6094
39932SOL    HW137406   0.117  11.138   0.606 -0.2962 -0.1251 -0.3268
39932SOL    HW237407   0.064  11.271   0.654  0.5810  0.4488 -0.9109
39933SOL     OW37408  13.990   2.439  12.655 -0.3762  0.0763 -0.4328
39933SOL    HW137409  14.061   2.446  12.591 -0.0574 -1.1410 -0.2409
39933SOL    HW237410  14.035   2.422  12.738 -0.8214  0.9978  0.0127
39934SOL     OW37411  13.846  10.254  11.915 -0.0007 -0.5006  0.1808
39934SOL    HW137412  13.919  10.205  11.877  2.8067  3.1526  0.2342
39934SOL    HW237413  13.802  10.294  11.840  0.2591  0.0315  0.3057
39935SOL     OW37414   1.614   7.376  13.173 -0.6160  0.1459  0.0699
39935SOL    HW137415   1.612   7.328  13.256  1.0886 -1.3391 -0.6724
39935SOL    HW237416   1.704   7.365  13.142 -1.1742  0.8058 -1.8995
39936SOL     OW37417   6.445   0.228   9.703 -0.3543 -0.0197  0.4492
39936SOL    HW137418   6.366   0.238   9.755 -0.6220  0.4263 -0.0287
39936SOL    HW237419   6.440   0.140   9.667 -0.6563  0.0238  0.3854
39937SOL     OW37420  13.648   1.712   2.510 -1.0490 -0.0471  0.5524
39937SOL    HW137421  13.724   1.770   2.504 -0.8519 -0.1939  1.4471
39937SOL    HW237422  13.685   1.626   2.532 -1.4029 -0.3309  0.0554
39938SOL     OW37423   0.385  13.221   4.398  0.7647  0.1742 -0.2908
39938SOL    HW137424   0.421  13.146   4.445 -1.4296 -0.8088 -0.0638
39938SOL    HW237425   0.388  13.196   4.306  1.5860  0.5381 -0.3731
39939SOL     OW37426  11.439   8.020   3.294  0.0543 -0.0521 -0.0641
39939SOL    HW137427  11.448   8.076   3.372 -1.8432  0.8558 -0.4395
39939SOL    HW237428  11.397   7.940   3.327 -1.0992  0.4839 -0.1700
39940SOL     OW37429   8.543   4.539   2.522 -0.5568  0.4900  0.4712
39940SOL    HW137430   8.554   4.456   2.477  1.4691  0.3596  1.0972
39940SOL    HW237431   8.568   4.520   2.613  2.0079  2.1590  0.2222
39941SOL     OW37432   7.613  10.752   0.491  0.1637  0.2551  0.1151
39941SOL    HW137433   7.591  10.737   0.399 -2.2919 -0.7153  0.8034
39941SOL    HW237434   7.534  10.730   0.539  1.4572  0.5255  2.5178
39942SOL     OW37435   7.544  11.960   4.367 -0.3504  0.3797  0.2685
39942SOL    HW137436   7.583  12.025   4.308  0.4617  0.1555  0.5439
39942SOL    HW237437   7.515  12.011   4.443  2.1552  0.2076  1.4206
39943SOL     OW37438   6.972  10.978   7.219 -0.0739  0.1747  0.0488
39943SOL    HW137439   7.066  10.976   7.201 -0.0285  0.7263  0.2160
39943SOL    HW237440   6.932  11.004   7.136 -0.0442  0.3949  0.1034
39944SOL     OW37441   7.758   1.806   4.939 -0.5233  0.0047 -0.0319
39944SOL    HW137442   7.763   1.902   4.930 -1.6414 -0.0065 -1.0361
39944SOL    HW237443   7.803   1.773   4.862 -0.7215 -0.2626 -0.0336
39945SOL     OW37444  10.936   2.503   1.388  0.1016 -0.7279  0.1409
39945SOL    HW137445  10.993   2.435   1.353  2.0970  0.3109  1.2159
39945SOL    HW237446  10.887   2.535   1.312  0.3942 -2.1575 -0.6737
39946SOL     OW37447   4.896   1.522   0.193 -0.9824  0.1614  0.1372
39946SOL    HW137448   4.802   1.534   0.181 -1.2766 -0.8527  1.3683
39946SOL    HW237449   4.905   1.438   0.238  0.4462  0.7218  0.9675
39947SOL     OW37450  10.882   3.790   4.680  0.4207  0.3868  0.7236
39947SOL    HW137451  10.845   3.875   4.703 -0.6515  0.6849 -1.7803
39947SOL    HW237452  10.834   3.727   4.734 -1.9545  1.0299 -0.5050
39948SOL     OW37453   6.023   9.796   2.843 -0.2215  0.1949  0.0576
39948SOL    HW137454   6.037   9.883   2.880 -0.5442 -0.1863  1.1008
39948SOL    HW237455   6.096   9.783   2.783 -0.0949  1.1243  0.0014
39949SOL     OW37456   7.870   0.043   0.245 -0.1900 -0.7004 -0.0530
39949SOL    HW137457   7.865   0.059   0.151  1.3883  0.5678  0.0249
39949SOL    HW237458   7.828   0.120   0.284 -0.9178 -1.2649  0.3014
39950SOL     OW37459   7.883  10.973  10.987 -0.7722 -0.2939  0.1850
39950SOL    HW137460   7.931  11.032  10.929 -0.3136  0.2663  1.0976
39950SOL    HW237461   7.835  10.914  10.929  0.0155 -0.0318 -0.7451
39951SOL     OW37462   8.773   3.189   5.590 -0.1483  0.0766  0.1666
39951SOL    HW137463   8.728   3.217   5.670  0.8228  0.3503  0.6323
39951SOL    HW237464   8.814   3.269   5.556 -2.0829  0.3746 -1.6609
39952SOL     OW37465  13.513   0.849   8.783  0.8194  0.4048 -0.3080
39952SOL    HW137466  13.446   0.845   8.851  1.5306 -0.0699  0.3784
39952SOL    HW237467  13.473   0.900   8.713 -1.7758 -3.1409 -1.6456
39953SOL     OW37468  13.453   5.275   2.730 -0.1496 -0.3547  0.7592
39953SOL    HW137469  13.532   5.254   2.781 -0.4211 -0.2667  1.2290
39953SOL    HW237470  13.447   5.370   2.735 -0.1105 -0.3355  0.4506
39954SOL     OW37471   7.329  11.121   9.492 -0.1605 -0.0980 -0.1124
39954SOL    HW137472   7.265  11.123   9.563 -0.4994  1.5429 -0.4169
39954SOL    HW237473   7.409  11.157   9.530 -0.6837  1.9414 -0.8134
39955SOL     OW37474   8.708  12.634   0.625  0.4001 -0.8767  0.1101
39955SOL    HW137475   8.796  12.646   0.591  0.1248 -2.3640 -1.2404
39955SOL    HW237476   8.651  12.661   0.553 -0.3112  1.1922  1.3714
39956SOL     OW37477   9.756   6.267   0.828  0.9415  0.3206  0.0997
39956SOL    HW137478   9.827   6.222   0.781  0.8756  1.0979 -0.7646
39956SOL    HW237479   9.760   6.357   0.797  1.1153  0.9663  1.8686
39957SOL     OW37480   2.962   8.651   2.819 -0.1985  0.0514  0.2594
39957SOL    HW137481   2.899   8.709   2.862  0.9635 -0.3459  2.7411
39957SOL    HW237482   3.022   8.711   2.774  0.3461  0.8075  1.8765
39958SOL     OW37483   8.899   6.773   1.946 -0.0628 -0.3041 -0.4332
39958SOL    HW137484   8.881   6.865   1.963 -0.3669 -0.8172  2.5669
39958SOL    HW237485   8.935   6.771   1.857 -0.2115  2.6488 -0.6433
39959SOL     OW37486   6.968   0.447   7.385 -0.7808  0.0105 -0.2862
39959SOL    HW137487   6.975   0.539   7.359 -0.2375  0.1451  0.3158
39959SOL    HW237488   6.874   0.431   7.388 -0.9154  0.8734  0.6791
39960SOL     OW37489  11.953   0.086   9.285  0.4108 -0.1500 -0.0186
39960SOL    HW137490  11.871   0.125   9.255  0.4878 -0.4889 -0.6907
39960SOL    HW237491  12.021   0.146   9.254  0.3758  0.6012  1.3086
39961SOL     OW37492   2.485  13.401  10.442  0.5196 -0.3312 -0.4409
39961SOL    HW137493   2.530  13.426  10.522  2.3667 -0.6168 -1.3421
39961SOL    HW237494   2.447  13.316  10.460 -3.0517  1.4583  1.5880
39962SOL     OW37495  11.023   9.703  12.549  0.2007 -0.9917 -0.1778
39962SOL    HW137496  10.953   9.639  12.535 -0.8021  0.1217 -0.4312
39962SOL    HW237497  11.023   9.717  12.644 -1.0079  0.1542 -0.3239
39963SOL     OW37498  12.896   2.642  10.530 -0.5609  0.1657 -0.1698
39963SOL    HW137499  12.917   2.556  10.566  0.3430 -0.0895 -1.2518
39963SOL    HW237500  12.812   2.665  10.569 -1.6217 -1.9337 -1.0896
39964SOL     OW37501   9.604   7.692  13.785 -0.4401 -0.1538  0.0943
39964SOL    HW137502   9.542   7.636  13.738 -0.8748  0.7345 -0.4203
39964SOL    HW237503   9.669   7.632  13.821 -1.6311 -1.1291  0.7157
39965SOL     OW37504   9.840   0.060   2.596 -0.0038  0.0901 -0.4414
39965SOL    HW137505   9.851   0.081   2.689 -0.8876 -0.3019 -0.2375
39965SOL    HW237506   9.923   0.087   2.555  0.4720  0.0721  0.4873
39966SOL     OW37507   1.602   2.320  10.063  0.2654  0.2664  0.0453
39966SOL    HW137508   1.664   2.250  10.083 -1.4677 -1.1447  0.8044
39966SOL    HW237509   1.565   2.343  10.149 -1.8764 -0.5729 -0.5886
39967SOL     OW37510   0.831  10.850  10.210  0.9662 -0.3006  0.2409
39967SOL    HW137511   0.926  10.854  10.201  0.9241 -0.1672 -0.1704
39967SOL    HW237512   0.800  10.831  10.121  0.7220 -2.3039  0.7004
39968SOL     OW37513  12.659   7.958   2.027  0.2290 -0.3823  0.1201
39968SOL    HW137514  12.740   7.911   2.006  1.0563  1.7348 -1.7239
39968SOL    HW237515  12.599   7.936   1.956  1.0859  2.2519 -1.5634
39969SOL     OW37516   1.276   1.261   3.734  0.5611  0.4413  0.2845
39969SOL    HW137517   1.239   1.202   3.668 -0.1763  1.1269  0.0615
39969SOL    HW237518   1.361   1.286   3.698 -0.1713  1.4422 -0.8339
39970SOL     OW37519  11.323  12.176   9.959  0.4968  0.1659 -0.2140
39970SOL    HW137520  11.294  12.116   9.890 -1.3190  0.8671 -0.1106
39970SOL    HW237521  11.246  12.230   9.978  2.3264  3.3392 -1.0993
39971SOL     OW37522   0.181   6.314   5.885  0.5578  0.1897 -0.0992
39971SOL    HW137523   0.212   6.365   5.960 -0.5072  1.7195 -0.6533
39971SOL    HW237524   0.220   6.227   5.897  0.5649  0.4568  2.0953
39972SOL     OW37525   3.938   1.668   2.820  0.0976 -0.4745 -0.0736
39972SOL    HW137526   3.992   1.676   2.742  1.3953 -1.3732  0.6916
39972SOL    HW237527   4.001   1.652   2.891 -1.1441 -1.0861  0.9267
39973SOL     OW37528   5.195   8.406   2.664  0.0086  0.0107  0.5699
39973SOL    HW137529   5.140   8.450   2.599 -1.2276 -1.0488  0.8624
39973SOL    HW237530   5.270   8.465   2.675 -0.9888  1.4353  0.0597
39974SOL     OW37531   8.994   6.969   5.936  0.1205 -0.1964  0.3047
39974SOL    HW137532   8.997   7.065   5.930 -0.0362 -0.1331  1.1748
39974SOL    HW237533   9.086   6.942   5.946  0.3890 -0.2963 -1.8426
39975SOL     OW37534   6.226  10.763  10.960 -1.1257 -0.3517  0.0413
39975SOL    HW137535   6.210  10.774  10.866 -0.6182 -0.7276 -0.0938
39975SOL    HW237536   6.307  10.811  10.977 -1.3863 -0.0197  0.3518
39976SOL     OW37537  10.010   2.102   1.598 -0.3382 -0.4893  0.3549
39976SOL    HW137538   9.968   2.071   1.677 -0.4081  0.2341  0.6120
39976SOL    HW237539  10.085   2.154   1.629  0.4477 -1.3233 -0.0797
39977SOL     OW37540  11.629   5.391  12.904  0.0675  0.1895  0.0146
39977SOL    HW137541  11.598   5.451  12.971 -1.5290 -0.0803 -0.4513
39977SOL    HW237542  11.563   5.395  12.835 -1.6746 -4.1119  1.0997
39978SOL     OW37543   4.601  11.069   0.223 -0.0966  0.1983  0.3905
39978SOL    HW137544   4.641  11.010   0.160  2.2881  0.9832  1.0631
39978SOL    HW237545   4.583  11.014   0.299  0.0788 -0.0832  0.2295
39979SOL     OW37546  10.988  13.829  11.494 -0.1812  0.0006 -0.4683
39979SOL    HW137547  10.945  13.846  11.410  0.3853  1.0099 -0.5596
39979SOL    HW237548  10.991  13.733  11.500 -2.4724 -0.1274 -0.4344
39980SOL     OW37549  10.279  11.806  12.612  0.6892 -0.4608 -0.8488
39980SOL    HW137550  10.349  11.869  12.599  0.1262 -0.1518 -2.7849
39980SOL    HW237551  10.199  11.855  12.596 -0.0074 -0.8453  1.1517
39981SOL     OW37552   3.128   6.623   0.336  0.1606  0.0742  0.4041
39981SOL    HW137553   3.148   6.633   0.243  1.7660 -1.4768  0.5410
39981SOL    HW237554   3.093   6.708   0.362 -0.0585  0.6294 -1.5319
39982SOL     OW37555   6.724   0.513   8.525 -0.6714 -0.7492  0.1824
39982SOL    HW137556   6.676   0.593   8.545 -1.2308 -1.0835  0.1867
39982SOL    HW237557   6.757   0.483   8.610  0.1174 -0.1685  0.0966
39983SOL     OW37558   2.155   3.683   2.929  0.0584 -0.2156  0.2679
39983SOL    HW137559   2.128   3.634   3.007 -1.5114 -0.3951 -0.3707
39983SOL    HW237560   2.223   3.629   2.889  1.0047 -0.0412  1.5795
39984SOL     OW37561  11.681  12.773  10.908  0.5898  0.4025  0.4685
39984SOL    HW137562  11.668  12.683  10.938 -2.2503  0.8453  0.8793
39984SOL    HW237563  11.629  12.779  10.828  2.6274  1.1065 -0.8772
39985SOL     OW37564   1.539   2.238   6.162 -0.3698 -0.1108 -0.3827
39985SOL    HW137565   1.512   2.274   6.247  0.4926 -0.9318  0.2581
39985SOL    HW237566   1.577   2.313   6.115  0.5415  0.0471  0.5663
39986SOL     OW37567   8.780   3.047   8.065 -0.2661 -0.3658  0.2802
39986SOL    HW137568   8.823   3.107   8.004 -1.3946 -0.7164 -0.8946
39986SOL    HW237569   8.801   2.960   8.031 -0.1325 -0.6011  0.9491
39987SOL     OW37570  13.479   7.293   6.756  0.3542  0.1952 -0.1490
39987SOL    HW137571  13.400   7.303   6.809  1.5216  0.6214  1.5987
39987SOL    HW237572  13.470   7.359   6.687 -1.6372 -0.9972 -1.1092
39988SOL     OW37573   9.166   4.249   3.996  1.0139  0.1335  0.2863
39988SOL    HW137574   9.187   4.279   4.085 -0.9608 -1.0125  1.2307
39988SOL    HW237575   9.073   4.270   3.986  0.7335 -1.4509 -0.7508
39989SOL     OW37576   6.949   1.316   1.090 -0.1008 -0.4423  0.6024
39989SOL    HW137577   6.976   1.402   1.123 -0.2149  0.4355 -1.4302
39989SOL    HW237578   6.886   1.336   1.021 -1.0640 -2.2335  0.9181
39990SOL     OW37579  10.067   0.600   7.655  0.5471  0.3623  0.1049
39990SOL    HW137580  10.042   0.691   7.670 -1.4621 -0.3000  1.1488
39990SOL    HW237581  10.095   0.569   7.742 -0.2947 -0.4234  0.1088
39991SOL     OW37582   1.456   0.664  13.567 -0.3106 -0.2167  0.3680
39991SOL    HW137583   1.410   0.613  13.633 -1.7839  1.2702  0.5432
39991SOL    HW237584   1.392   0.678  13.498  0.8238 -0.6656 -0.8093
39992SOL     OW37585  11.438   2.937   1.540 -0.1863  0.1278 -0.0797
39992SOL    HW137586  11.358   2.896   1.506 -0.8864  1.0004  0.4483
39992SOL    HW237587  11.509   2.883   1.507 -1.0245 -0.9300 -0.2107
39993SOL     OW37588   7.278   6.284  12.275 -0.3314  0.1812  1.0343
39993SOL    HW137589   7.199   6.305  12.324  0.1776  1.2952  1.4023
39993SOL    HW237590   7.257   6.308  12.184  0.1604  2.2155  1.4039
39994SOL     OW37591   4.941   7.786   2.121  0.3893  0.1672  0.3087
39994SOL    HW137592   4.999   7.773   2.046  0.5163 -0.1370  0.4599
39994SOL    HW237593   4.999   7.816   2.191  0.2178  0.8062  0.1877
39995SOL     OW37594   6.252   1.802   3.141 -0.0522 -0.5036  0.2386
39995SOL    HW137595   6.161   1.777   3.155  0.2218 -1.4749  0.3273
39995SOL    HW237596   6.296   1.780   3.223  0.3383 -0.4002  0.0585
39996SOL     OW37597   2.361   8.124  10.762 -0.2615 -0.2748  0.3282
39996SOL    HW137598   2.390   8.118  10.854 -0.8369  3.2807  0.9073
39996SOL    HW237599   2.345   8.034  10.736  1.5331 -1.5760  3.1794
39997SOL     OW37600   8.456  12.899   6.558 -0.4160  0.1154 -0.5873
39997SOL    HW137601   8.541  12.864   6.530  0.8621  1.3313  1.5085
39997SOL    HW237602   8.458  12.892   6.653 -1.7331  2.2508 -0.3502
39998SOL     OW37603  12.165  13.211   5.539 -0.3106  0.0252  0.2950
39998SOL    HW137604  12.089  13.258   5.503 -0.0062 -1.0754 -1.9905
39998SOL    HW237605  12.241  13.259   5.506  0.0928  1.5205  3.1257
39999SOL     OW37606   4.881  12.158  12.923  0.0434 -0.1202 -0.8073
39999SOL    HW137607   4.799  12.192  12.888  0.4404 -0.9303 -2.6589
39999SOL    HW237608   4.886  12.192  13.012 -0.2571  3.4992 -2.0291
40000SOL     OW37609   9.068   0.494  10.063 -0.1392  0.0366 -0.1717
40000SOL    HW137610   9.101   0.548  10.135  3.9871 -0.2745 -1.5980
40000SOL    HW237611   9.091   0.405  10.087 -1.4965 -0.4560 -0.5805
40001SOL     OW37612  11.848   5.655   9.375  0.4331  0.0427  0.1963
40001SOL    HW137613  11.766   5.605   9.376 -0.9812  2.0473 -2.4565
40001SOL    HW237614  11.851   5.699   9.460 -0.2471 -1.4522  1.0356
40002SOL     OW37615   4.193  10.958  12.766  0.5297 -0.3384 -0.3180
40002SOL    HW137616   4.196  11.052  12.745  0.4457 -0.3763 -0.4980
40002SOL    HW237617   4.150  10.955  12.852  0.8164 -0.1883 -0.1666
40003SOL     OW37618   8.929   3.037   6.111  0.6976 -0.0301  0.1544
40003SOL    HW137619   8.977   3.022   6.192  0.9453  1.6210  0.3647
40003SOL    HW237620   8.996   3.042   6.043  0.6708  0.4336  0.1560
40004SOL     OW37621   3.536  11.855   1.758 -0.4230  0.2547 -0.4357
40004SOL    HW137622   3.491  11.940   1.754 -0.8033  0.0939  0.3265
40004SOL    HW237623   3.591  11.854   1.680  0.2816  1.5982  0.0140
40005SOL     OW37624   0.718   5.825   0.753  0.6238 -0.4333  0.3279
40005SOL    HW137625   0.787   5.870   0.803  0.9151  0.8133 -1.1326
40005SOL    HW237626   0.676   5.894   0.703 -1.3390 -1.2808  0.7410
40006SOL     OW37627   2.148   1.817   7.921 -0.4486 -0.7053 -0.2032
40006SOL    HW137628   2.164   1.741   7.864  0.8448 -0.0782 -0.7160
40006SOL    HW237629   2.146   1.892   7.862 -0.0883 -0.1554  0.4601
40007SOL     OW37630   9.464  13.906   5.837 -0.9954 -0.4523 -0.3731
40007SOL    HW137631   9.411  13.906   5.916 -0.0820 -3.0292  0.3456
40007SOL    HW237632   9.441  13.825   5.791  2.3104 -1.8527  0.0971
40008SOL     OW37633   2.331  11.930  11.784 -0.2332 -0.0676  0.1641
40008SOL    HW137634   2.405  11.909  11.727  0.5626 -0.6922  1.3873
40008SOL    HW237635   2.365  11.999  11.842 -0.4863 -0.5855  0.9411
40009SOL     OW37636   8.455  13.988   8.196 -0.3052  0.4005 -0.6688
40009SOL    HW137637   8.431  14.068   8.243  0.0417  1.4802 -2.2640
40009SOL    HW237638   8.383  13.973   8.135 -0.7100 -0.9402  0.0784
40010SOL     OW37639   2.050   9.504   1.500  0.3292 -0.0293 -0.0720
40010SOL    HW137640   2.145   9.511   1.488  0.2664  1.1308 -0.0515
40010SOL    HW237641   2.013   9.540   1.419 -0.1236 -2.2007 -0.9038
40011SOL     OW37642   8.390   5.767   9.676 -0.0511 -0.5543 -0.0456
40011SOL    HW137643   8.462   5.713   9.644  0.9071  1.1157 -0.8432
40011SOL    HW237644   8.411   5.784   9.767  0.0167 -0.8963  0.0054
40012SOL     OW37645  10.027   3.811   1.947  0.0750  0.0330 -0.1873
40012SOL    HW137646   9.970   3.797   1.871  1.8729 -0.5904 -1.4948
40012SOL    HW237647  10.063   3.899   1.933 -0.1007  0.1868  0.3165
40013SOL     OW37648  10.834   0.740   8.256 -0.2673 -0.4177  0.0811
40013SOL    HW137649  10.753   0.790   8.254 -0.2323 -0.1690 -4.3299
40013SOL    HW237650  10.809   0.653   8.224  0.8987 -0.9732  0.6231
40014SOL     OW37651   8.785  10.522   8.847 -0.5843 -0.0437  0.0762
40014SOL    HW137652   8.802  10.478   8.931  0.4415 -0.3799 -0.3002
40014SOL    HW237653   8.708  10.477   8.812  0.8604 -2.0874 -0.6362
40015SOL     OW37654  13.866   1.283   1.114  0.2845  0.0097  0.0584
40015SOL    HW137655  13.923   1.208   1.096  0.2922 -0.4205  1.7053
40015SOL    HW237656  13.919   1.359   1.090 -0.2343 -0.4729 -3.0036
40016SOL     OW37657   3.337   7.932   8.240  0.0826 -0.3175  0.3968
40016SOL    HW137658   3.255   7.975   8.265  1.2234  3.2325 -1.2077
40016SOL    HW237659   3.315   7.883   8.161 -0.5048  0.9058 -0.2350
40017SOL     OW37660   0.973   0.621   7.132  0.1089  0.1795  0.2832
40017SOL    HW137661   0.958   0.715   7.138  1.3361  0.4217 -0.2261
40017SOL    HW237662   0.997   0.606   7.041 -0.6086 -0.7180  0.2276
40018SOL     OW37663   0.429   5.825   4.665  0.1258 -0.2395 -0.1284
40018SOL    HW137664   0.369   5.788   4.730 -1.0160 -1.0171 -1.5763
40018SOL    HW237665   0.516   5.799   4.696 -0.3445 -0.2783  1.2648
40019SOL     OW37666   9.724   9.417   6.206 -0.2685 -0.1596  0.3346
40019SOL    HW137667   9.792   9.403   6.272  1.1483 -0.5434 -1.1564
40019SOL    HW237668   9.642   9.401   6.253  0.6455  0.3395  2.1871
40020SOL     OW37669   7.785   7.849  11.066  0.1292 -0.5284 -0.1960
40020SOL    HW137670   7.817   7.826  11.153 -1.2982 -1.3435  0.1411
40020SOL    HW237671   7.695   7.878  11.080  0.3071  0.6135 -1.2486
40021SOL     OW37672  11.781   7.223  12.684  0.1950 -0.0461  0.1130
40021SOL    HW137673  11.814   7.180  12.605 -0.9418  0.0730 -0.4490
40021SOL    HW237674  11.759   7.152  12.744  2.6674 -0.1136  1.0513
40022SOL     OW37675   6.201  11.961   4.632 -0.2811  0.1539 -0.1387
40022SOL    HW137676   6.226  11.938   4.722  1.5034 -0.2610 -0.7010
40022SOL    HW237677   6.284  11.977   4.588 -0.9247 -2.0578 -2.3618
40023SOL     OW37678   5.533  12.232   2.127  0.3152 -0.4343  0.1621
40023SOL    HW137679   5.546  12.139   2.105  1.1875 -0.4626  0.7440
40023SOL    HW237680   5.621  12.265   2.145 -0.0522  0.3606  0.5564
40024SOL     OW37681   0.418   5.311   2.459  0.0885  0.1858 -0.1392
40024SOL    HW137682   0.424   5.378   2.528 -0.7917  0.7924 -0.6368
40024SOL    HW237683   0.381   5.235   2.503 -2.0968  1.1029 -0.2518
40025SOL     OW37684   1.533   8.593   9.386  0.2351  0.1588  0.3330
40025SOL    HW137685   1.600   8.537   9.426  0.8559 -0.6887 -1.7459
40025SOL    HW237686   1.450   8.552   9.409  0.3766  1.0779  2.7367
40026SOL     OW37687   8.353   2.862   2.701  1.1728  0.1891 -0.3246
40026SOL    HW137688   8.289   2.795   2.727  0.1439  0.9540 -0.7916
40026SOL    HW237689   8.405   2.820   2.633 -0.3674  0.2521 -1.6207
40027SOL     OW37690   2.004   6.732   4.319  0.0093 -0.1282 -0.0299
40027SOL    HW137691   2.019   6.762   4.230 -1.1621 -0.9273 -0.5279
40027SOL    HW237692   1.958   6.648   4.309 -1.1394  0.2875  1.2999
40028SOL     OW37693  11.472   7.970   1.786 -0.5948 -0.3293  0.2382
40028SOL    HW137694  11.521   7.924   1.719  0.1837  1.4946 -0.5098
40028SOL    HW237695  11.538   8.002   1.847 -1.1833 -0.8000  1.1521
40029SOL     OW37696   8.407   8.306   1.938  0.4222 -0.4570  0.0631
40029SOL    HW137697   8.481   8.247   1.923 -0.6875 -1.8746 -0.0936
40029SOL    HW237698   8.384   8.293   2.030 -0.9556 -1.7076 -0.4049
40030SOL     OW37699   3.302  11.198   4.733 -0.0217  0.2659  0.0682
40030SOL    HW137700   3.267  11.198   4.822  0.7669 -1.0200  0.4065
40030SOL    HW237701   3.397  11.205   4.744  0.3422 -2.5600 -0.4827
40031SOL     OW37702   2.634  10.479   3.295  0.3375 -0.0544 -0.6085
40031SOL    HW137703   2.546  10.480   3.256  1.1490  0.7151 -2.5501
40031SOL    HW237704   2.656  10.386   3.302 -1.6669 -0.4478  2.6080
40032SOL     OW37705   8.741  10.683   8.379  0.0810 -0.0184  0.1070
40032SOL    HW137706   8.807  10.632   8.332  0.6603  1.1116 -0.3416
40032SOL    HW237707   8.792  10.746   8.431 -0.6201  1.6032 -1.0860
40033SOL     OW37708   6.343   3.070  10.205 -0.1604  0.0537 -0.2085
40033SOL    HW137709   6.426   3.101  10.241  0.4668  0.2986 -1.7540
40033SOL    HW237710   6.284   3.145  10.210 -0.5012 -0.2943  1.4388
40034SOL     OW37711  10.249   1.358   5.681  0.6775  0.2469  0.3619
40034SOL    HW137712  10.305   1.408   5.621  0.5765 -0.5345 -0.3949
40034SOL    HW237713  10.162   1.396   5.669  0.2558 -1.1636 -1.4679
40035SOL     OW37714   1.468   6.583   4.586 -0.2511 -0.3093  0.4934
40035SOL    HW137715   1.440   6.592   4.677 -0.0732 -0.0401  0.5246
40035SOL    HW237716   1.441   6.495   4.561 -3.3759  0.7823 -0.2919
40036SOL     OW37717   0.920   3.474   8.551 -0.3371 -0.2470 -0.9568
40036SOL    HW137718   0.950   3.501   8.464  2.1025  0.4323 -0.0005
40036SOL    HW237719   0.826   3.494   8.552 -0.2551  0.4690 -3.1424
40037SOL     OW37720  11.629  12.124   8.500 -0.0565 -0.3110  0.3370
40037SOL    HW137721  11.603  12.216   8.511  1.6164  0.0015  2.2917
40037SOL    HW237722  11.604  12.082   8.583  2.1473 -0.8141  0.8115
40038SOL     OW37723   2.432   0.342   0.973  0.5781 -0.0628 -0.6491
40038SOL    HW137724   2.390   0.278   0.916  0.6488 -1.4364  0.7659
40038SOL    HW237725   2.379   0.342   1.053  1.0744  1.0272 -0.2959
40039SOL     OW37726   1.517  13.349   2.962 -0.4746  0.0350  0.0501
40039SOL    HW137727   1.508  13.436   3.001 -2.2951 -0.1527  0.1282
40039SOL    HW237728   1.428  13.316   2.957 -0.0878 -0.8149 -2.3535
40040SOL     OW37729   1.844   9.757   6.695  0.3174 -0.0667  0.4633
40040SOL    HW137730   1.823   9.848   6.716  0.6925  0.3053 -0.7052
40040SOL    HW237731   1.775   9.730   6.634  0.9831 -0.1161 -0.2779
40041SOL     OW37732  12.888   9.880   6.763  0.2827 -0.2403  0.2316
40041SOL    HW137733  12.977   9.902   6.735  0.5755 -2.4363 -0.7436
40041SOL    HW237734  12.891   9.888   6.859  1.2513  0.6117  0.1469
40042SOL     OW37735   8.463   0.176   7.631 -0.4389 -0.0645  0.6057
40042SOL    HW137736   8.374   0.210   7.641 -0.1614  0.9895 -0.3179
40042SOL    HW237737   8.488   0.200   7.542  0.9929  0.1640  1.0436
40043SOL     OW37738  13.077   1.648   2.848 -0.3705  0.0061 -0.3386
40043SOL    HW137739  13.075   1.583   2.779 -1.8899 -1.0552  0.6480
40043SOL    HW237740  13.160   1.633   2.894  0.1835  0.0785 -1.2928
40044SOL     OW37741  10.119   2.827   4.503 -0.4624  0.1001  0.7285
40044SOL    HW137742  10.131   2.897   4.439  0.0271  0.1159  0.8342
40044SOL    HW237743  10.204   2.784   4.507 -1.3470 -2.0082 -1.0847
40045SOL     OW37744   1.446  10.949   9.001 -0.6612 -0.2409  0.3649
40045SOL    HW137745   1.506  10.875   9.003 -1.0078 -0.6898 -2.0543
40045SOL    HW237746   1.406  10.944   8.914 -0.2160  3.1416 -0.1780
40046SOL     OW37747   8.095   1.575   1.528  0.0060  0.1063  0.0080
40046SOL    HW137748   8.155   1.511   1.489 -1.4168 -0.4454 -1.3895
40046SOL    HW237749   8.097   1.555   1.621  0.7250 -1.0004 -0.2167
40047SOL     OW37750   5.451   0.480  12.017 -0.0531 -0.2565  0.0620
40047SOL    HW137751   5.374   0.469  11.961  0.1063 -0.4041 -0.1282
40047SOL    HW237752   5.506   0.543  11.970 -0.7886  1.1070  0.9624
40048SOL     OW37753   8.016   3.706   2.398  0.3924 -0.3386 -0.4705
40048SOL    HW137754   8.042   3.740   2.313  1.4223 -1.6979 -0.7411
40048SOL    HW237755   8.083   3.738   2.458  0.4810 -0.5918 -0.4355
40049SOL     OW37756   9.825  12.704   5.711  0.4268  0.0160 -0.5584
40049SOL    HW137757   9.777  12.696   5.794  2.7978  2.3202  1.2280
40049SOL    HW237758   9.759  12.690   5.643 -1.6741 -1.7710  1.6858
40050SOL     OW37759  10.195   4.866   0.314  0.1694  0.2604  0.1534
40050SOL    HW137760  10.122   4.911   0.357 -1.5127 -1.0432 -1.1957
40050SOL    HW237761  10.167   4.775   0.309  1.1911  0.0073 -1.8626
40051SOL     OW37762   5.059   1.629  14.086  0.4642  0.0743  0.0172
40051SOL    HW137763   5.143   1.582  14.094  0.4427 -0.0614 -0.5522
40051SOL    HW237764   5.010   1.603  14.164  0.9506  0.1527  0.3551
40052SOL     OW37765  12.808  13.890  13.061 -0.2261  0.0278 -0.3486
40052SOL    HW137766  12.848  13.829  13.123 -2.0697 -0.0357  0.8417
40052SOL    HW237767  12.856  13.972  13.075  0.4060 -0.3998  0.0472
40053SOL     OW37768   0.297   2.109  11.961 -0.6585  0.1574  0.0483
40053SOL    HW137769   0.346   2.191  11.965 -0.7530  0.2407 -0.4676
40053SOL    HW237770   0.206   2.135  11.947 -0.8082 -0.0120  0.6693
40054SOL     OW37771  13.768   4.920  10.470 -0.3674  0.8517 -0.0118
40054SOL    HW137772  13.752   4.826  10.473 -1.5981  1.0596  0.7633
40054SOL    HW237773  13.815   4.934  10.388  1.2966 -0.6270  0.6385
40055SOL     OW37774   4.839   2.427   0.545  0.4347 -0.6765  0.3350
40055SOL    HW137775   4.930   2.427   0.574  0.3901 -1.3166  0.4860
40055SOL    HW237776   4.788   2.434   0.625  0.3587  0.9755  0.1718
40056SOL     OW37777   5.118   2.508   9.525 -0.3203  0.0910  0.3594
40056SOL    HW137778   5.119   2.464   9.610  0.2220  0.2245  0.4192
40056SOL    HW237779   5.146   2.441   9.463  1.8786  0.7066  0.6226
40057SOL     OW37780  12.599   6.658  12.413  0.3148  0.0190 -0.1843
40057SOL    HW137781  12.545   6.596  12.462  1.0263 -0.9077 -0.5627
40057SOL    HW237782  12.596   6.626  12.323  1.0895  0.2520 -0.2955
40058SOL     OW37783   6.057  12.238  14.049 -0.8841 -0.3742 -0.0735
40058SOL    HW137784   5.972  12.193  14.050 -0.3400 -1.4671 -0.8467
40058SOL    HW237785   6.087  12.231  13.959  0.7065 -1.3568  0.4958
40059SOL     OW37786   8.596  11.346   9.339 -0.0150 -0.1882  0.4745
40059SOL    HW137787   8.671  11.405   9.343  0.1572 -0.2906 -0.8410
40059SOL    HW237788   8.559  11.348   9.427  1.0813  0.4477  0.9366
40060SOL     OW37789  10.691   5.789  13.571 -0.0720  0.3586  0.0140
40060SOL    HW137790  10.777   5.824  13.547  0.6357 -0.2727  1.5026
40060SOL    HW237791  10.676   5.718  13.508 -0.0607  1.2319 -0.9945
40061SOL     OW37792   9.014  10.315  14.020  0.3630 -0.0252  0.1662
40061SOL    HW137793   9.021  10.274  13.934  1.5936  1.0014 -0.2608
40061SOL    HW237794   9.102  10.311  14.056 -0.2723 -1.0707  1.7174
40062SOL     OW37795   4.817   2.133   0.639  0.1689  0.2352  0.1929
40062SOL    HW137796   4.910   2.110   0.635 -0.1957 -1.2900 -0.3307
40062SOL    HW237797   4.772   2.050   0.654 -1.0783  1.0452  1.1771
40063SOL     OW37798   6.385   1.415   6.111  0.1728 -0.5323  0.3032
40063SOL    HW137799   6.436   1.398   6.190  1.2493 -0.8060 -0.4307
40063SOL    HW237800   6.397   1.509   6.095  1.0803 -0.7348 -0.2783
40064SOL     OW37801   6.530  13.470  13.850 -0.4412 -0.3412  0.2701
40064SOL    HW137802   6.436  13.487  13.845 -0.7695 -2.0437  0.0535
40064SOL    HW237803   6.541  13.383  13.810  1.3877  0.3367 -0.8103
40065SOL     OW37804   5.941   1.144   0.458  0.6266  0.5035 -0.6074
40065SOL    HW137805   5.936   1.117   0.550 -1.5165  0.2861 -0.7285
40065SOL    HW237806   6.013   1.092   0.422  1.3719  0.4362  0.8840
40066SOL     OW37807  11.465  11.313   7.992  0.3475 -0.4718  0.3719
40066SOL    HW137808  11.381  11.354   8.010  0.4049 -0.5990  0.9560
40066SOL    HW237809  11.509  11.311   8.077  2.0485  2.0194 -0.3459
40067SOL     OW37810   2.617  11.636   2.901  0.1256  0.5942  0.1204
40067SOL    HW137811   2.696  11.589   2.926  1.4058  1.3782 -2.1596
40067SOL    HW237812   2.625  11.722   2.942 -1.2444 -0.3746  2.6285
40068SOL     OW37813  12.924   9.222   6.927 -0.0025  0.5983  0.2044
40068SOL    HW137814  12.943   9.297   6.870  0.9485  0.1214 -0.1285
40068SOL    HW237815  12.973   9.150   6.889  2.0559  0.6390  2.5449
40069SOL     OW37816   6.732  13.118   1.525  0.0001 -0.3468  0.1564
40069SOL    HW137817   6.750  13.119   1.619 -0.0402 -0.7342  0.1689
40069SOL    HW237818   6.745  13.026   1.499  0.9880 -0.0718 -0.3975
40070SOL     OW37819  12.872   9.438   0.949 -0.3148 -0.0251  0.2422
40070SOL    HW137820  12.855   9.346   0.968 -0.5699 -0.1738 -0.6709
40070SOL    HW237821  12.863   9.482   1.034  0.7645 -0.9558  0.8681
40071SOL     OW37822   9.652   2.965   8.256  0.3766  0.5952 -0.4882
40071SOL    HW137823   9.618   2.877   8.274 -0.8637  0.9631 -0.9547
40071SOL    HW237824   9.746   2.952   8.246  0.0947 -0.8769 -1.6379
40072SOL     OW37825   5.070   6.797   0.394 -0.1276 -0.3610 -0.4434
40072SOL    HW137826   4.985   6.817   0.355  0.5968  0.8724 -1.4669
40072SOL    HW237827   5.077   6.858   0.467 -0.9965 -1.9059  0.9968
40073SOL     OW37828   0.997  10.698  10.542 -0.2382  0.5997 -0.4314
40073SOL    HW137829   1.032  10.778  10.580 -0.7194  0.7564 -0.3071
40073SOL    HW237830   0.966  10.648  10.618  1.6137 -0.4945 -0.3295
40074SOL     OW37831   3.577   8.881   7.463 -0.1177 -0.3023 -0.2899
40074SOL    HW137832   3.579   8.931   7.382 -0.8342 -2.3396 -1.6462
40074SOL    HW237833   3.571   8.789   7.435 -3.6450 -0.9728  1.9770
40075SOL     OW37834   1.354  12.386   3.676 -0.1959 -0.0388  0.3148
40075SOL    HW137835   1.356  12.481   3.685 -1.9404  0.2671 -1.6766
40075SOL    HW237836   1.403  12.353   3.751  0.0573  2.4056  1.2950
40076SOL     OW37837   8.830   2.194   3.779 -0.0565 -0.0527  0.1444
40076SOL    HW137838   8.805   2.158   3.693  0.2489  0.8730 -0.3395
40076SOL    HW237839   8.755   2.174   3.835  0.2499 -1.7786 -0.0005
40077SOL     OW37840   5.307  12.893   2.042  0.2371 -0.0117  0.1711
40077SOL    HW137841   5.216  12.877   2.068  0.4041 -0.2876  0.5854
40077SOL    HW237842   5.315  12.851   1.956  0.1320 -0.4910  0.3923
40078SOL     OW37843   8.016   5.331   1.641  0.0710 -0.0869 -0.0017
40078SOL    HW137844   7.922   5.310   1.639  0.5733 -2.5380 -0.3886
40078SOL    HW237845   8.048   5.288   1.720  1.2116 -0.9825 -0.9237
40079SOL     OW37846  10.445  11.001  13.806  0.5664  0.1300 -0.5763
40079SOL    HW137847  10.470  11.035  13.720  1.2098 -0.4703 -0.6363
40079SOL    HW237848  10.526  11.005  13.857  0.2809  0.1130 -0.1215
40080SOL     OW37849   0.849   3.144   5.883 -0.3131 -0.6132  0.4612
40080SOL    HW137850   0.828   3.174   5.794  0.6269  0.7468  0.6602
40080SOL    HW237851   0.905   3.068   5.870  0.3644 -0.0365 -0.1485
40081SOL     OW37852   4.476   6.676   6.421  0.1003  0.2462 -0.0903
40081SOL    HW137853   4.465   6.762   6.460  0.4909  0.9237 -1.4234
40081SOL    HW237854   4.550   6.638   6.469  0.5426  1.0429 -0.1187
40082SOL     OW37855   4.129   1.562   5.880  0.0700 -0.2127  0.0603
40082SOL    HW137856   4.082   1.488   5.842 -0.2174 -1.0335  1.9268
40082SOL    HW237857   4.074   1.591   5.952  1.1552  0.5322  0.6119
40083SOL     OW37858  12.429   2.724  11.170  0.0483  0.1186  0.4464
40083SOL    HW137859  12.342   2.764  11.175 -0.8483 -0.9542 -3.4628
40083SOL    HW237860  12.415   2.633  11.196 -0.3890 -0.4373 -1.6166
40084SOL     OW37861   6.722   1.052   5.055  0.0233 -0.0580  0.0654
40084SOL    HW137862   6.775   0.972   5.060  0.9316  0.3958 -1.5535
40084SOL    HW237863   6.786   1.123   5.049 -0.7717  0.6969  0.2690
40085SOL     OW37864  11.811   1.583   2.631 -0.3843  0.5562 -0.6365
40085SOL    HW137865  11.906   1.589   2.637 -0.3949  0.4678 -0.4035
40085SOL    HW237866  11.779   1.631   2.707 -0.5385  1.2732 -1.1477
40086SOL     OW37867   4.742   2.500   5.600 -0.1837  0.1184  0.8568
40086SOL    HW137868   4.666   2.453   5.634  0.0297 -0.7704  0.1625
40086SOL    HW237869   4.736   2.489   5.505  0.6473  0.2860  0.7787
40087SOL     OW37870   1.251   9.286   6.169 -0.1204 -0.2889 -0.0659
40087SOL    HW137871   1.278   9.197   6.189  0.6842 -0.7673 -2.9120
40087SOL    HW237872   1.179   9.276   6.106 -0.4662  1.0612  0.0831
40088SOL     OW37873   3.397   5.675  10.742 -0.3932  0.2081 -0.3949
40088SOL    HW137874   3.448   5.723  10.677  1.0561 -0.7672 -0.0191
40088SOL    HW237875   3.307   5.707  10.730  0.1311  1.2967 -1.6947
40089SOL     OW37876  13.006  10.889   0.099 -0.0761 -0.5563 -0.5845
40089SOL    HW137877  13.092  10.853   0.076  0.8017  1.7877 -1.2449
40089SOL    HW237878  12.949  10.860   0.027  1.0578  0.8900 -2.1459
40090SOL     OW37879  13.529  11.226   3.828  0.6569  0.2556  0.2059
40090SOL    HW137880  13.516  11.294   3.894 -1.4525 -0.7671  0.9209
40090SOL    HW237881  13.623  11.229   3.809  0.6185  3.5135 -0.0149
40091SOL     OW37882  13.681   3.193  12.778 -0.5527 -0.0351  0.3320
40091SOL    HW137883  13.670   3.216  12.686 -1.0909  0.5898  0.5380
40091SOL    HW237884  13.591   3.183  12.811 -0.3848 -3.4337  0.0596
40092SOL     OW37885  10.137   5.837   7.350  0.7212  0.0183 -0.3736
40092SOL    HW137886  10.072   5.794   7.405 -0.3331  0.1420 -1.4732
40092SOL    HW237887  10.192   5.766   7.318  0.8466 -0.1467  0.1977
40093SOL     OW37888  12.195   7.373  13.117 -0.1210 -0.0571  0.4719
40093SOL    HW137889  12.171   7.283  13.094  0.3378 -0.3605  1.1451
40093SOL    HW237890  12.198   7.419  13.033  0.4694 -0.8748  0.0309
40094SOL     OW37891  13.851   6.413   0.669 -0.0692  0.0824  0.2020
40094SOL    HW137892  13.848   6.492   0.615  2.7362 -0.5145 -1.0097
40094SOL    HW237893  13.928   6.365   0.637 -0.3847 -2.0638  2.3816
40095SOL     OW37894  13.795  11.034  11.130 -0.6115  0.4322  0.3041
40095SOL    HW137895  13.733  11.103  11.107 -1.3467  0.7556  2.8906
40095SOL    HW237896  13.743  10.954  11.126  0.4370 -0.2358 -3.4880
40096SOL     OW37897   2.466  10.785  13.799  0.4536 -0.0358  0.0509
40096SOL    HW137898   2.426  10.807  13.715 -0.4101 -1.7589 -0.0467
40096SOL    HW237899   2.400  10.810  13.864  0.0622 -0.9958  0.0325
40097SOL     OW37900  12.077  10.112   9.572  0.1622 -0.2789  0.0664
40097SOL    HW137901  12.040  10.059   9.501  1.4253  1.0662 -1.6577
40097SOL    HW237902  12.006  10.171   9.596  0.4029  0.7790 -1.6806
40098SOL     OW37903   4.730  13.811   6.806 -0.2465  0.9322  0.3552
40098SOL    HW137904   4.728  13.767   6.721 -0.9779  1.8302 -0.1083
40098SOL    HW237905   4.757  13.743   6.868  0.9065  0.4200 -0.6714
40099SOL     OW37906  14.020  11.274   1.586  0.0379 -0.0212  1.1360
40099SOL    HW137907  14.033  11.220   1.665 -2.0109  0.0560  1.5864
40099SOL    HW237908  13.976  11.215   1.525  2.3744 -0.3521 -0.3708
40100SOL     OW37909   4.664  11.320   2.710 -0.3044 -0.5425 -0.6606
40100SOL    HW137910   4.622  11.406   2.700  0.4860  0.0708  0.9625
40100SOL    HW237911   4.592  11.262   2.737 -1.2137 -0.8807 -3.3993
40101SOL     OW37912   4.278   2.959   0.615  0.1039  0.2805  0.0347
40101SOL    HW137913   4.311   2.885   0.665  0.2479  0.4945  0.2614
40101SOL    HW237914   4.334   2.963   0.538 -1.2496 -1.1562 -1.0685
40102SOL     OW37915  13.132   4.882   1.463 -0.1270 -0.1825 -0.1048
40102SOL    HW137916  13.205   4.838   1.422 -0.6577 -1.2878  0.1094
40102SOL    HW237917  13.067   4.891   1.394 -0.6817 -1.2667  0.2632
40103SOL     OW37918   7.704   2.356  13.995  0.2401 -0.1476  0.1790
40103SOL    HW137919   7.688   2.336  13.903  0.3439 -1.5347  0.4526
40103SOL    HW237920   7.655   2.437  14.010 -2.4486 -1.5705 -0.3159
40104SOL     OW37921   7.109   1.473   1.965 -0.2921  0.0027 -0.2453
40104SOL    HW137922   7.202   1.471   1.987 -0.5724 -0.3054  0.9666
40104SOL    HW237923   7.065   1.490   2.048 -1.4387 -1.8008 -0.4216
40105SOL     OW37924   6.943  13.442   1.425  0.7897 -0.4428 -0.1561
40105SOL    HW137925   6.886  13.452   1.349 -0.0488  1.6490  0.6540
40105SOL    HW237926   6.952  13.348   1.437  0.4247 -0.8175 -2.4368
40106SOL     OW37927   8.182  13.724  11.538 -0.0825  0.0075 -0.2499
40106SOL    HW137928   8.173  13.818  11.521  2.1011  0.8412  2.3722
40106SOL    HW237929   8.099  13.698  11.577 -0.6632  0.8965 -0.8830
40107SOL     OW37930   1.104  12.592  11.460  0.6374 -0.3172 -0.5373
40107SOL    HW137931   1.125  12.499  11.468 -0.8678 -0.5533  1.4711
40107SOL    HW237932   1.041  12.596  11.388  0.3254 -0.9255 -0.3062
40108SOL     OW37933   9.672   1.907   3.289 -0.1493 -0.5240 -0.1435
40108SOL    HW137934   9.667   1.884   3.382  1.1906  0.3056  0.1694
40108SOL    HW237935   9.585   1.889   3.255 -1.2760  0.9998  1.7139
40109SOL     OW37936   7.035   4.523  10.965  0.4366  0.2375 -0.0214
40109SOL    HW137937   7.036   4.480  10.880 -0.6629  2.0951 -1.0163
40109SOL    HW237938   7.121   4.502  11.003 -0.0809 -2.9578 -0.2815
40110SOL     OW37939   6.763   2.415  12.948  0.1121 -0.5612  0.3599
40110SOL    HW137940   6.737   2.331  12.984  0.8128 -0.7713  0.3744
40110SOL    HW237941   6.787   2.397  12.858  0.9202 -0.5020  0.5553
40111SOL     OW37942  11.379   8.744   0.229  0.6683  0.1752  0.0722
40111SOL    HW137943  11.443   8.783   0.288  1.8150 -0.5355 -0.6439
40111SOL    HW237944  11.336   8.676   0.281 -0.2850  1.3503  0.8744
40112SOL     OW37945   2.655   1.099   7.289 -0.0877 -0.4806  0.2168
40112SOL    HW137946   2.681   1.179   7.334  1.1332 -0.0993 -1.0727
40112SOL    HW237947   2.728   1.039   7.304  0.3743 -0.3273 -1.2338
40113SOL     OW37948  13.811  14.082   7.329  0.1035 -0.7363  0.1480
40113SOL    HW137949  13.791  14.010   7.269 -4.3395  0.0743  0.2531
40113SOL    HW237950  13.750  14.152   7.303  2.6503  2.2198  1.4547
40114SOL     OW37951  11.638  10.241  11.851  0.3691  0.5458 -0.3041
40114SOL    HW137952  11.702  10.300  11.813 -0.7489  1.5725 -0.6700
40114SOL    HW237953  11.612  10.283  11.933 -0.8738  0.9128 -0.8534
40115SOL     OW37954   2.523   2.060  11.073 -0.0251  0.5972 -0.2197
40115SOL    HW137955   2.560   2.136  11.027  1.7522  1.0225  1.7767
40115SOL    HW237956   2.439   2.045  11.030  0.0850  2.9842 -1.4254
40116SOL     OW37957   0.004   1.056  11.533  0.1338  0.1782  0.5077
40116SOL    HW137958   0.032   1.031  11.622 -2.0604  0.7491  1.4277
40116SOL    HW237959   0.011   1.151  11.532  0.7460  0.1314 -0.1750
40117SOL     OW37960  13.418   6.882   2.608  0.0596 -0.3008 -0.8498
40117SOL    HW137961  13.437   6.808   2.665  0.3533  0.1439 -0.3658
40117SOL    HW237962  13.497   6.890   2.554 -0.0604 -0.4725 -1.0551
40118SOL     OW37963   0.288   4.922  12.124  0.3707 -0.3512 -0.2445
40118SOL    HW137964   0.233   4.852  12.160  0.2875  0.1856  0.7221
40118SOL    HW237965   0.363   4.877  12.086 -0.2392 -1.0344 -0.6840
40119SOL     OW37966   1.677  10.130   5.328  0.0192  0.6394 -0.2520
40119SOL    HW137967   1.769  10.153   5.319  0.3582 -0.1962  0.8839
40119SOL    HW237968   1.637  10.208   5.367  0.2113  1.0510 -0.8631
40120SOL     OW37969   7.913  11.902   4.179 -0.3892 -0.1888  0.0419
40120SOL    HW137970   7.836  11.916   4.124 -1.1906 -1.1255  0.8996
40120SOL    HW237971   7.950  11.819   4.150  0.9766  0.7582 -1.1028
40121SOL     OW37972   4.947  10.504   8.303 -0.0435  0.8480 -0.4124
40121SOL    HW137973   4.962  10.494   8.209  1.5096  3.0046 -0.4719
40121SOL    HW237974   4.853  10.520   8.310 -0.4535 -0.8750 -1.3960
40122SOL     OW37975   2.407   3.347  11.525  0.3118  0.1301 -0.1785
40122SOL    HW137976   2.429   3.359  11.617  0.6850  0.7839 -0.3413
40122SOL    HW237977   2.322   3.390  11.515  0.7284  0.9500 -0.3368
40123SOL     OW37978  12.593  10.504   3.389  0.2408  0.2400  0.4548
40123SOL    HW137979  12.580  10.510   3.484 -0.4523  1.9204  0.2963
40123SOL    HW237980  12.518  10.550   3.352  1.2003  0.7942 -0.8809
40124SOL     OW37981   1.308   9.514  10.466 -0.0584 -0.2887 -0.6773
40124SOL    HW137982   1.395   9.541  10.496  0.4017 -1.7974 -0.5871
40124SOL    HW237983   1.310   9.419  10.470 -1.4946 -0.3642 -1.3331
40125SOL     OW37984  11.376  13.544   8.798  0.0928 -0.0332  0.2888
40125SOL    HW137985  11.339  13.519   8.714 -0.0044  0.0531  0.3056
40125SOL    HW237986  11.357  13.638   8.806  0.4486  0.0438  0.2280
40126SOL     OW37987  12.144   7.086  11.180 -0.1273  0.3898  0.4217
40126SOL    HW137988  12.170   7.150  11.246  1.1343  0.4876 -0.1516
40126SOL    HW237989  12.209   7.094  11.111 -0.4590 -0.8945 -0.0789
40127SOL     OW37990   4.140  13.032  10.999 -0.0768 -0.2565  0.0747
40127SOL    HW137991   4.084  12.981  10.939 -0.7050  0.7050 -0.1811
40127SOL    HW237992   4.202  12.968  11.033 -2.8394 -1.9947  2.3137
40128SOL     OW37993   1.531   4.209   7.201 -0.2829 -0.1502 -0.5920
40128SOL    HW137994   1.452   4.208   7.254  0.0655 -1.6116 -0.0381
40128SOL    HW237995   1.500   4.197   7.111 -0.7154 -0.5695 -0.3921
40129SOL     OW37996  10.313   8.799   6.592 -0.0473 -0.2961  0.2173
40129SOL    HW137997  10.354   8.869   6.642 -1.2906  1.2695 -0.8765
40129SOL    HW237998  10.360   8.798   6.509  0.2702 -1.0940  0.3980
40130SOL     OW37999  10.044  13.791   1.066  0.6714  0.1761  0.0943
40130SOL    HW138000   9.977  13.781   1.133 -0.4574  0.2880 -0.9685
40130SOL    HW238001  10.002  13.760   0.986  1.5101  1.2849 -0.8142
40131SOL     OW38002  11.236   8.510   0.363  0.2320  0.3484 -0.3126
40131SOL    HW138003  11.286   8.436   0.397 -0.2197  0.2831  0.2284
40131SOL    HW238004  11.218   8.564   0.440  0.1157  0.7565 -0.6234
40132SOL     OW38005   5.303   9.183  13.420  0.1501 -0.1943 -0.4288
40132SOL    HW138006   5.293   9.224  13.506 -0.2968  0.1279 -0.6270
40132SOL    HW238007   5.323   9.091  13.439 -0.6413 -0.2864  0.0299
40133SOL     OW38008  13.595   9.258   7.621  0.3434 -0.1536  0.0468
40133SOL    HW138009  13.553   9.174   7.643  0.1562  0.1148  0.7611
40133SOL    HW238010  13.537   9.297   7.555  0.0930 -0.3101  0.1711
40134SOL     OW38011   1.119   4.269   2.626 -0.5687 -0.3335  0.1041
40134SOL    HW138012   1.210   4.237   2.627 -1.3221 -2.8147  2.2967
40134SOL    HW238013   1.077   4.217   2.558 -0.5549  0.1876 -0.3066
40135SOL     OW38014   1.092   7.399   1.481  0.0739 -0.1880 -0.0273
40135SOL    HW138015   1.074   7.339   1.553 -0.7429 -0.5978 -0.5647
40135SOL    HW238016   1.093   7.486   1.523 -0.4702 -0.4114  0.4656
40136SOL     OW38017   4.736   7.905   9.131  0.2801 -0.3750  0.0918
40136SOL    HW138018   4.829   7.884   9.127  0.4586 -1.0053  3.8172
40136SOL    HW238019   4.692   7.821   9.116  0.1993  0.0102 -2.1641
40137SOL     OW38020   9.626   6.249   1.065  0.6837  0.0380  0.2535
40137SOL    HW138021   9.683   6.251   0.988  0.9549  1.6925  0.4500
40137SOL    HW238022   9.551   6.196   1.039  2.1142 -1.9038 -0.1350
40138SOL     OW38023  13.704   3.869   3.798 -0.3001  0.8488 -0.1265
40138SOL    HW138024  13.633   3.826   3.749 -0.1427 -0.1146  0.4510
40138SOL    HW238025  13.763   3.797   3.821  0.9360  1.6633 -0.7088
40139SOL     OW38026  10.883   0.692   9.752 -0.3013 -0.0471  0.3744
40139SOL    HW138027  10.789   0.696   9.769 -0.3278 -0.1931  0.2562
40139SOL    HW238028  10.890   0.653   9.665 -0.0846 -1.4858  1.0060
40140SOL     OW38029   4.257   0.734   7.952 -0.2018  0.0085 -0.1148
40140SOL    HW138030   4.315   0.709   7.880 -1.1337 -0.3388 -0.7496
40140SOL    HW238031   4.205   0.806   7.917  1.6089  2.1797  1.2941
40141SOL     OW38032  13.614   0.822   0.151 -0.2452  0.1235 -0.1930
40141SOL    HW138033  13.668   0.822   0.230 -2.8037  1.1230  1.6865
40141SOL    HW238034  13.559   0.899   0.160 -1.1910 -0.1981 -2.5929
40142SOL     OW38035  13.694  11.798   9.736 -0.4791 -0.0660 -0.0997
40142SOL    HW138036  13.772  11.811   9.790 -0.4196  0.1576 -0.2388
40142SOL    HW238037  13.664  11.887   9.716  0.8953 -0.0571 -2.4750
40143SOL     OW38038  13.385   1.079   9.695  0.2352 -0.0977 -0.1414
40143SOL    HW138039  13.385   1.031   9.778 -2.0820 -0.3455 -0.2308
40143SOL    HW238040  13.342   1.021   9.633  0.4641  0.7456 -1.1250
40144SOL     OW38041   7.472   6.266  12.985 -0.0354  0.0147 -0.2628
40144SOL    HW138042   7.427   6.219  12.914  0.3994 -0.5425 -0.1802
40144SOL    HW238043   7.552   6.215  12.999 -0.5072 -0.3593  1.1967
40145SOL     OW38044   8.271   2.010  11.341 -0.7738 -0.2609 -0.1375
40145SOL    HW138045   8.353   1.961  11.336 -0.0306  1.0425 -1.4174
40145SOL    HW238046   8.204   1.943  11.357  0.4954 -1.3565  0.8232
40146SOL     OW38047  11.136  10.003   6.306  0.6741 -0.0093 -0.5512
40146SOL    HW138048  11.045  10.026   6.323  0.5154  2.5292 -3.7729
40146SOL    HW238049  11.184  10.085   6.323  2.5789 -1.4502  1.6882
40147SOL     OW38050   4.771  12.422   8.344  0.0834 -0.4468  0.2577
40147SOL    HW138051   4.708  12.360   8.382 -0.9326 -0.8437 -1.8914
40147SOL    HW238052   4.854  12.400   8.385 -0.8339 -1.1335  1.8526
40148SOL     OW38053   6.867  11.845   8.619  0.7504  0.2589  0.3925
40148SOL    HW138054   6.820  11.848   8.703 -0.5605 -0.3478 -0.2988
40148SOL    HW238055   6.861  11.754   8.591 -0.8200  0.8455 -1.4272
40149SOL     OW38056   1.810   9.495  13.911  0.9334 -0.5203 -0.3598
40149SOL    HW138057   1.845   9.439  13.980  0.1329 -1.3473 -0.6036
40149SOL    HW238058   1.717   9.506  13.933  0.6066 -1.0124 -1.4232
40150SOL     OW38059  10.171  11.870   4.172 -0.0905 -0.3000  0.4136
40150SOL    HW138060  10.110  11.848   4.242 -1.0165  2.5511  0.6626
40150SOL    HW238061  10.127  11.842   4.091 -1.4968  1.0653  0.6463
40151SOL     OW38062  12.264   7.210  13.830 -0.0128 -0.2175 -0.2290
40151SOL    HW138063  12.228   7.125  13.856 -0.7102 -0.6127 -2.3144
40151SOL    HW238064  12.328   7.189  13.763  0.0217  0.8952 -0.5616
40152SOL     OW38065   9.128   4.148   5.748 -0.3322  0.3771  0.5289
40152SOL    HW138066   9.039   4.157   5.714  0.4083 -0.2342 -1.7296
40152SOL    HW238067   9.138   4.054   5.763  0.0720  0.3961  0.3744
40153SOL     OW38068  11.811   2.930   8.421  0.0374 -0.8740 -0.5969
40153SOL    HW138069  11.796   2.985   8.345 -0.6966 -1.6378 -1.0162
40153SOL    HW238070  11.735   2.945   8.477  1.5131  1.2599  1.0008
40154SOL     OW38071   7.899   1.142  13.139 -0.1999 -0.0680 -0.0625
40154SOL    HW138072   7.841   1.203  13.094  0.7740  0.3350 -0.7833
40154SOL    HW238073   7.985   1.183  13.136  0.0110 -0.3047  1.6683
40155SOL     OW38074  12.773  12.129   0.035 -0.2883  0.0784  0.2591
40155SOL    HW138075  12.698  12.072   0.049 -0.0916 -0.2910 -0.1723
40155SOL    HW238076  12.738  12.205  -0.011 -0.1649 -0.7314 -1.2060
40156SOL     OW38077   9.435  12.268  10.234 -0.2648  0.0794  0.1729
40156SOL    HW138078   9.411  12.188  10.187  2.5913 -0.7209 -0.1366
40156SOL    HW238079   9.367  12.278  10.301 -0.3838 -3.0008  0.6590
40157SOL     OW38080   7.220  10.741   9.274  0.5602 -0.5122  0.2922
40157SOL    HW138081   7.173  10.772   9.197  1.8861  1.7578  0.3207
40157SOL    HW238082   7.158  10.749   9.346  0.0691 -0.3804 -0.1448
40158SOL     OW38083   2.847   3.489   6.414  0.1135 -0.2694  0.3420
40158SOL    HW138084   2.926   3.487   6.360 -1.7268 -0.7301 -2.5572
40158SOL    HW238085   2.819   3.580   6.413  0.5996 -0.0921  1.4292
40159SOL     OW38086  12.576  14.014  13.144  0.0044  0.1234  0.2706
40159SOL    HW138087  12.651  13.956  13.142  0.1148  0.0848  2.5430
40159SOL    HW238088  12.508  13.968  13.096  0.1186 -1.9026  1.9085
40160SOL     OW38089   9.501   4.143  13.730  0.8357 -0.1636  0.7044
40160SOL    HW138090   9.583   4.107  13.696  0.2342 -1.1858  0.2686
40160SOL    HW238091   9.499   4.114  13.822  0.1770 -1.6624  0.2588
40161SOL     OW38092   2.991  11.382   3.843 -0.4959 -0.1577 -0.0589
40161SOL    HW138093   2.955  11.408   3.927 -1.3558 -2.8087  0.4898
40161SOL    HW238094   3.061  11.445   3.826 -1.0061  1.0875  2.0979
40162SOL     OW38095  11.301  10.326  12.623  0.7524  0.2719  0.3529
40162SOL    HW138096  11.389  10.295  12.601 -0.0982 -2.4312  0.5152
40162SOL    HW238097  11.243  10.280  12.563 -0.6716  1.1844  0.9721
40163SOL     OW38098   6.736   3.094  10.583 -0.3251 -0.3154 -0.1110
40163SOL    HW138099   6.732   3.034  10.657 -0.5637  1.2009  1.1565
40163SOL    HW238100   6.827   3.091  10.554 -0.1539 -0.6881  0.4505
40164SOL     OW38101   9.577   4.869  10.677 -0.3684 -0.2840 -0.0813
40164SOL    HW138102   9.559   4.949  10.627  1.3149  0.7293  0.8491
40164SOL    HW238103   9.508   4.808  10.650 -0.2207  0.5867 -2.7542
40165SOL     OW38104   2.036   0.091   9.306  0.1761  0.1464 -0.5249
40165SOL    HW138105   2.097   0.048   9.365 -1.8664  1.5291  2.9404
40165SOL    HW238106   1.963   0.029   9.298  1.3010 -0.9386 -3.5429
40166SOL     OW38107   6.390  12.780   7.607  0.0241 -0.3534 -0.1990
40166SOL    HW138108   6.335  12.702   7.613 -0.1078 -0.4353 -1.8862
40166SOL    HW238109   6.429  12.789   7.694 -0.6730 -1.7588  0.2923
40167SOL     OW38110  12.163   8.769   0.264 -0.2103  0.5650 -0.4345
40167SOL    HW138111  12.173   8.705   0.335  0.3166 -0.1820 -1.1532
40167SOL    HW238112  12.224   8.839   0.287  1.7417 -0.7506 -1.2711
40168SOL     OW38113   1.788   8.975   5.163 -0.0954  0.1096  0.8704
40168SOL    HW138114   1.766   8.882   5.151  3.5353 -0.6129 -2.4252
40168SOL    HW238115   1.781   8.989   5.257  0.7937 -4.0679  1.7844
40169SOL     OW38116   1.921  11.957   3.698 -0.1159 -0.2203  0.1362
40169SOL    HW138117   1.831  11.976   3.672  0.5644  1.7320 -1.0146
40169SOL    HW238118   1.968  11.946   3.615  1.1626  1.1869  0.6395
40170SOL     OW38119   2.078   4.209   3.595  0.7152  0.3033 -0.1254
40170SOL    HW138120   2.156   4.258   3.620  0.0050  1.2064  0.3581
40170SOL    HW238121   2.013   4.230   3.661 -0.0670 -0.1457 -0.7225
40171SOL     OW38122   5.421  10.713  10.194 -0.7251 -0.5461  0.0957
40171SOL    HW138123   5.496  10.768  10.174 -1.0190 -0.4638 -0.8186
40171SOL    HW238124   5.395  10.675  10.110 -1.1311 -1.3087  0.5493
40172SOL     OW38125   3.885   4.609  10.497  0.6761 -0.0376 -0.0372
40172SOL    HW138126   3.939   4.532  10.478  0.9940  0.2161 -0.1791
40172SOL    HW238127   3.806   4.597  10.444  1.6025  0.7122 -1.6578
40173SOL     OW38128   3.466  12.747  11.240  0.1807  0.5442 -0.3946
40173SOL    HW138129   3.404  12.701  11.296  0.7226  0.0179 -0.2120
40173SOL    HW238130   3.461  12.839  11.268 -1.9163  0.8846 -1.6855
40174SOL     OW38131   0.166  12.382   0.141  0.4945 -0.7362 -0.4097
40174SOL    HW138132   0.093  12.332   0.105 -0.3978 -0.7867  1.3701
40174SOL    HW238133   0.142  12.398   0.232  1.1811  2.1051 -0.6218
40175SOL     OW38134  10.582  12.047  12.554 -0.0409 -0.0090  0.7321
40175SOL    HW138135  10.506  12.089  12.594  1.0653  1.5792  1.2484
40175SOL    HW238136  10.605  12.106  12.482  0.2615 -0.8799  0.1063
40176SOL     OW38137  12.704   1.022   5.450 -0.2169  0.2286  0.6008
40176SOL    HW138138  12.645   1.094   5.472 -0.8472 -0.0354 -0.1827
40176SOL    HW238139  12.791   1.062   5.450 -0.6835  1.3788 -1.3106
40177SOL     OW38140   2.295  11.255   6.882  0.3319  0.3409  0.0960
40177SOL    HW138141   2.334  11.333   6.921 -0.4538  0.8801 -0.1666
40177SOL    HW238142   2.201  11.271   6.885  0.0416 -1.3216  1.5386
40178SOL     OW38143  11.410   9.806   7.515 -0.0075 -0.2789 -0.1093
40178SOL    HW138144  11.372   9.750   7.582  0.8257 -0.5822  0.1272
40178SOL    HW238145  11.421   9.749   7.439 -0.2112 -0.1445 -0.2390
40179SOL     OW38146  10.175  13.379   1.341 -0.0039  0.3148  0.1031
40179SOL    HW138147  10.200  13.362   1.432 -2.9186  0.8292  1.1424
40179SOL    HW238148  10.192  13.297   1.295 -3.6433 -2.0841  2.4849
40180SOL     OW38149   0.440   7.297   1.298  0.1116 -0.0286  0.7123
40180SOL    HW138150   0.414   7.327   1.211  1.4743 -0.0520  0.2823
40180SOL    HW238151   0.438   7.375   1.352 -1.7040 -0.1847  0.9219
40181SOL     OW38152   1.429  12.101   4.067  0.3460 -0.1299 -0.2252
40181SOL    HW138153   1.397  12.014   4.090 -0.5723  0.5253  1.1027
40181SOL    HW238154   1.507  12.113   4.121 -0.0699  0.2355  0.2972
40182SOL     OW38155   0.232   2.764   2.722 -0.5600 -0.0020 -0.3752
40182SOL    HW138156   0.180   2.845   2.727 -0.2906  0.1251  0.5397
40182SOL    HW238157   0.168   2.696   2.702 -0.8016  0.4177 -1.0828
40183SOL     OW38158   1.139   2.696  12.636 -0.7576 -0.1052  0.1363
40183SOL    HW138159   1.124   2.605  12.609 -0.0243  0.2541 -1.6179
40183SOL    HW238160   1.101   2.701  12.723  0.9781 -2.6575  1.1804
40184SOL     OW38161  10.592   5.029   3.138  0.2184 -0.0140 -0.1162
40184SOL    HW138162  10.499   5.051   3.139  0.4167  0.8952 -0.5871
40184SOL    HW238163  10.618   5.028   3.231  0.0472  1.1080 -0.0477
40185SOL     OW38164  13.609   2.734   5.062 -0.3522  0.0839  0.1033
40185SOL    HW138165  13.551   2.663   5.090  0.9722 -1.9212 -1.8776
40185SOL    HW238166  13.661   2.754   5.139 -1.2817 -0.5371  0.9175
40186SOL     OW38167  11.169  13.082   6.377  0.2946 -0.5057  0.2087
40186SOL    HW138168  11.124  13.013   6.328 -0.2459 -0.0519  0.0409
40186SOL    HW238169  11.215  13.037   6.447 -0.7781 -0.9579  0.6425
40187SOL     OW38170   3.071   5.588  13.893  0.3027  0.2021  0.2950
40187SOL    HW138171   3.157   5.605  13.853  0.7452 -2.1755  0.0681
40187SOL    HW238172   3.090   5.526  13.964 -1.3349 -1.3595 -0.5468
40188SOL     OW38173   2.083   0.186  11.826 -0.3477 -0.7072  0.0306
40188SOL    HW138174   2.091   0.271  11.785 -1.8333 -1.0247 -1.0032
40188SOL    HW238175   2.096   0.123  11.755  0.4984 -1.3486  0.7280
40189SOL     OW38176   3.134   7.296   7.467  0.8073 -0.0337  0.0903
40189SOL    HW138177   3.173   7.367   7.415  1.3500 -1.1181 -1.0267
40189SOL    HW238178   3.046   7.328   7.487  0.9098  0.8180 -0.6972
40190SOL     OW38179   2.352   1.720  11.538 -0.1596  1.2668  0.0643
40190SOL    HW138180   2.298   1.724  11.459  0.0908  0.1125 -0.1833
40190SOL    HW238181   2.312   1.652  11.591  1.7414 -0.5528 -0.6882
40191SOL     OW38182   3.239   5.323   3.230  0.4371  0.8900 -0.0496
40191SOL    HW138183   3.243   5.413   3.197 -0.1408  1.3788  1.1415
40191SOL    HW238184   3.216   5.270   3.153 -1.3520  2.0510 -0.3712
40192SOL     OW38185   4.615  11.687   0.642 -0.6085 -0.0678  0.5430
40192SOL    HW138186   4.568  11.761   0.680  0.5684  0.4594  0.9868
40192SOL    HW238187   4.696  11.680   0.692 -2.0143 -3.7080  2.7651
40193SOL     OW38188   3.041   9.829   6.577  0.1662 -0.4665  0.2050
40193SOL    HW138189   2.998   9.744   6.580  0.4113 -0.6032 -0.1143
40193SOL    HW238190   3.026   9.861   6.488  2.6590 -1.5432 -0.6944
40194SOL     OW38191   3.317   2.306  12.043  0.0639  0.0017  0.3649
40194SOL    HW138192   3.401   2.316  12.088 -0.4166  1.2749  1.0213
40194SOL    HW238193   3.252   2.322  12.111 -0.6927  0.7337 -0.5107
40195SOL     OW38194  13.533  11.603   0.218  0.6981  0.6227  0.3144
40195SOL    HW138195  13.555  11.589   0.310  1.5233  2.1758  0.3837
40195SOL    HW238196  13.616  11.589   0.172  0.6261  1.2820 -0.0191
40196SOL     OW38197   4.234   0.853   1.596  0.2778  0.1906  0.3708
40196SOL    HW138198   4.240   0.782   1.533 -1.7128 -0.3194  0.7040
40196SOL    HW238199   4.285   0.823   1.671  0.5919 -0.2736 -0.0228
40197SOL     OW38200  12.705   2.750  10.684 -0.1498  0.2049 -0.2550
40197SOL    HW138201  12.619   2.712  10.704 -0.1836  0.6333  0.4622
40197SOL    HW238202  12.690   2.845  10.689  0.0156  0.3332 -1.6545
40198SOL     OW38203   5.344  10.125   4.310  0.3291  0.3053 -0.1627
40198SOL    HW138204   5.398  10.092   4.239  1.8107  0.1261  1.0053
40198SOL    HW238205   5.405  10.171   4.368 -1.0703  1.7542  0.2454
40199SOL     OW38206   3.771   7.616  11.134  0.3344 -0.4712 -0.1957
40199SOL    HW138207   3.683   7.652  11.119  0.2333  0.1266  1.5562
40199SOL    HW238208   3.830   7.684  11.102  0.1493  1.6449  3.3507
40200SOL     OW38209   4.866   5.585   2.109  0.2839  0.2381  0.2404
40200SOL    HW138210   4.943   5.528   2.111 -0.2035 -0.4928 -0.7720
40200SOL    HW238211   4.846   5.602   2.201  2.2195  1.2599  0.5314
40201SOL     OW38212   8.119   8.987  12.509  0.0011  0.0324  0.4260
40201SOL    HW138213   8.063   9.011  12.435  2.0585 -0.1311 -1.3012
40201SOL    HW238214   8.151   8.899  12.487  0.2980 -0.2072  1.7580
40202SOL     OW38215  11.614  12.614   3.844  0.2933  0.3949  0.0853
40202SOL    HW138216  11.707  12.602   3.861  0.4488  1.5622  0.1246
40202SOL    HW238217  11.576  12.630   3.930 -0.0886 -0.8560  0.1719
40203SOL     OW38218   0.669  11.665   5.122  0.1838  0.1537  0.3249
40203SOL    HW138219   0.671  11.745   5.175 -1.2488 -0.7014  1.7434
40203SOL    HW238220   0.678  11.594   5.185 -0.5824 -0.8689 -0.6880
40204SOL     OW38221   8.508   8.868   6.217 -0.0195 -0.5912  0.8486
40204SOL    HW138222   8.493   8.938   6.280 -1.2084  0.8396 -0.9101
40204SOL    HW238223   8.579   8.815   6.255  1.4599  1.9837  1.9153
40205SOL     OW38224  12.336   0.771   5.146  0.2253 -0.9514 -0.2206
40205SOL    HW138225  12.349   0.744   5.055 -0.4359 -1.0213 -0.3010
40205SOL    HW238226  12.326   0.866   5.141 -1.2722 -1.0884 -0.4193
40206SOL     OW38227   1.644   8.463  11.786 -1.0219  0.2181  0.1306
40206SOL    HW138228   1.727   8.493  11.749 -0.5303  2.7221  2.8521
40206SOL    HW238229   1.577   8.499  11.729 -0.2870 -0.6199 -1.2999
40207SOL     OW38230   9.609   5.113   5.248 -0.2105 -0.0820  0.5236
40207SOL    HW138231   9.565   5.101   5.332  0.0275 -0.1856  0.6351
40207SOL    HW238232   9.699   5.135   5.271 -0.7203  2.5226  0.3553
40208SOL     OW38233   2.732   0.491   7.405 -0.0893 -0.3526  0.8206
40208SOL    HW138234   2.784   0.455   7.333  0.8378  0.6996  0.9394
40208SOL    HW238235   2.642   0.490   7.372 -0.0591 -2.3255  0.6629
40209SOL     OW38236   0.740  10.170  12.391  0.3249 -0.2074 -0.4476
40209SOL    HW138237   0.650  10.182  12.360 -0.5098 -0.4350  1.7067
40209SOL    HW238238   0.770  10.091  12.347 -1.4064 -1.4722  0.4818
40210SOL     OW38239   1.173   3.735   9.035 -0.0391  1.0078 -0.3978
40210SOL    HW138240   1.124   3.661   8.999 -0.4606  1.0786  0.0187
40210SOL    HW238241   1.226   3.767   8.962  0.4386  0.0591 -0.4828
40211SOL     OW38242   4.961   7.205  12.307  0.0212  0.1128 -0.0261
40211SOL    HW138243   4.896   7.224  12.240  0.5327 -1.9260 -1.1587
40211SOL    HW238244   4.942   7.116  12.335  1.5997 -0.1040  0.4579
40212SOL     OW38245   1.092  10.494  13.357 -0.0360  0.5041  0.0802
40212SOL    HW138246   1.080  10.509  13.263  1.3452  0.7338 -0.0756
40212SOL    HW238247   1.108  10.581  13.393  2.0340  0.1774  0.0979
40213SOL     OW38248   4.316   7.109  11.020  0.6090  0.2639 -0.1512
40213SOL    HW138249   4.313   7.036  10.958 -0.1107  0.6587 -0.5851
40213SOL    HW238250   4.343   7.184  10.968 -0.4492  0.6984 -0.0943
40214SOL     OW38251   8.713   9.986  11.112  0.1061  0.0307 -0.0329
40214SOL    HW138252   8.633   9.967  11.062  1.3347 -0.7929 -1.8247
40214SOL    HW238253   8.760  10.050  11.058  0.0480  1.6039  1.6943
40215SOL     OW38254   2.878   1.352  13.938  0.4328  0.1517  0.7659
40215SOL    HW138255   2.894   1.368  14.030  0.3737  0.9789  0.6351
40215SOL    HW238256   2.941   1.408  13.892 -1.2085  1.7029  0.2776
40216SOL     OW38257   5.516  10.519  12.026  1.2290 -0.1522 -0.3371
40216SOL    HW138258   5.589  10.570  12.062  0.9778 -1.2672  1.9205
40216SOL    HW238259   5.473  10.579  11.965  1.5120  2.0685  1.4953
40217SOL     OW38260   4.490   9.875   3.458  0.3360  0.1359 -0.5314
40217SOL    HW138261   4.502   9.781   3.440 -0.3621 -0.0803  0.0877
40217SOL    HW238262   4.453   9.878   3.546  0.9062  1.0321 -0.3109
40218SOL     OW38263   0.971   1.576   9.961 -0.1423 -0.4163  0.3249
40218SOL    HW138264   0.912   1.505   9.985  0.4172 -0.6353  1.1059
40218SOL    HW238265   1.044   1.569  10.023  1.0359 -0.5743 -1.0148
40219SOL     OW38266   4.816   7.810   7.009 -0.5840  0.1170  0.5597
40219SOL    HW138267   4.856   7.897   6.999 -1.8716  0.6113 -0.7676
40219SOL    HW238268   4.813   7.796   7.104 -2.0829  2.4065  0.9447
40220SOL     OW38269  12.344   0.621  12.577  0.0727  0.2833  0.3718
40220SOL    HW138270  12.252   0.645  12.566  0.4230  0.8450 -1.6511
40220SOL    HW238271  12.342   0.549  12.640 -1.9058 -0.5985 -0.5988
40221SOL     OW38272  12.562  13.241   6.269  0.0028  0.3463 -0.0403
40221SOL    HW138273  12.533  13.243   6.360 -1.4096  1.2674 -0.4646
40221SOL    HW238274  12.484  13.212   6.220  0.5075  0.6092 -1.0222
40222SOL     OW38275  13.930   2.693  10.462  0.3587  0.0455 -0.5927
40222SOL    HW138276  13.877   2.773  10.467  1.8291  1.2610 -2.6707
40222SOL    HW238277  14.012   2.722  10.423  1.5514 -2.2465  0.0744
40223SOL     OW38278   1.804   9.527   4.814  0.0474 -0.6941  0.2145
40223SOL    HW138279   1.852   9.446   4.829  1.0937 -0.0143  0.7021
40223SOL    HW238280   1.729   9.502   4.760  1.5574 -1.6274 -1.5505
40224SOL     OW38281   6.742  12.897   7.682 -0.1620  0.5902  0.1248
40224SOL    HW138282   6.836  12.913   7.692 -0.3895  1.6836  0.6253
40224SOL    HW238283   6.701  12.981   7.701 -1.2381  0.1810 -0.3074
40225SOL     OW38284   8.926  12.083  11.007  0.1937  0.2250  0.3352
40225SOL    HW138285   8.981  12.031  11.065 -0.8627 -1.1231  0.1647
40225SOL    HW238286   8.840  12.043  11.013  0.1020 -0.1459 -2.3486
40226SOL     OW38287  12.418   4.418   7.320  0.0540  0.2196 -0.3463
40226SOL    HW138288  12.498   4.470   7.328 -0.6296  1.2688 -0.2818
40226SOL    HW238289  12.442   4.333   7.357  1.7538 -0.1716 -2.1645
40227SOL     OW38290  12.198   7.918  11.394  0.3031 -0.0948  0.3822
40227SOL    HW138291  12.228   8.008  11.404 -0.6280  0.3613 -0.6631
40227SOL    HW238292  12.130   7.907  11.461  1.0008 -0.3110  1.0699
40228SOL     OW38293  13.256   9.164  10.653  0.2780 -0.1902  0.2927
40228SOL    HW138294  13.199   9.229  10.695 -1.6417 -0.7754 -1.2240
40228SOL    HW238295  13.331   9.214  10.622 -1.0506  1.3194 -0.6444
40229SOL     OW38296  13.958  13.050   7.232 -0.3936  0.1271  0.0576
40229SOL    HW138297  13.949  13.080   7.322  0.0302 -4.0833  1.7504
40229SOL    HW238298  14.048  13.073   7.207 -0.2484  0.6309  1.0300
40230SOL     OW38299   5.068  12.362   3.617  0.1562  0.1928 -0.1178
40230SOL    HW138300   5.161  12.357   3.595  0.1883 -0.9132  0.1818
40230SOL    HW238301   5.040  12.270   3.619 -1.2679  0.5616 -1.5540
40231SOL     OW38302  11.408   6.158   3.785 -0.3013 -0.2443  0.2735
40231SOL    HW138303  11.410   6.159   3.689  2.1972 -1.6483  0.2300
40231SOL    HW238304  11.315   6.159   3.807 -0.9541  1.6907 -2.0932
40232SOL     OW38305   1.559   7.617   9.769 -0.1995  0.3332  0.0396
40232SOL    HW138306   1.495   7.570   9.716 -0.9903  1.3190  0.0857
40232SOL    HW238307   1.536   7.710   9.758  0.0877  0.6048  1.5127
40233SOL     OW38308  11.189  11.568  13.405 -0.2965 -0.1905 -0.1646
40233SOL    HW138309  11.153  11.479  13.405  2.1580 -1.2828 -1.0274
40233SOL    HW238310  11.210  11.585  13.313  1.8554  0.0956  0.3330
40234SOL     OW38311   6.686   5.318   1.598 -0.4647  0.3015  0.6481
40234SOL    HW138312   6.629   5.375   1.547  0.2858  1.2321  0.8447
40234SOL    HW238313   6.700   5.242   1.541 -0.3307  0.9357 -0.1821
40235SOL     OW38314  12.498   5.594   3.801 -0.3808 -0.1143 -0.1770
40235SOL    HW138315  12.560   5.657   3.763  0.6878 -1.0629 -0.0636
40235SOL    HW238316  12.456   5.553   3.725 -1.4837  1.0680 -0.2526
40236SOL     OW38317   4.642   4.637   8.265  0.1358  0.3867  0.1233
40236SOL    HW138318   4.684   4.641   8.180  1.8608  0.0068  0.9009
40236SOL    HW238319   4.583   4.712   8.267  0.7083  0.8947 -1.0842
40237SOL     OW38320   0.706   5.225  11.720 -0.0572 -0.0250 -0.1783
40237SOL    HW138321   0.726   5.293  11.655  0.4478  1.5322  1.5296
40237SOL    HW238322   0.771   5.156  11.703 -0.1663  0.1773 -1.5400
40238SOL     OW38323  12.995   5.289  10.220  0.1642  0.0341  0.1536
40238SOL    HW138324  12.986   5.254  10.131 -1.2253  0.0047  0.2847
40238SOL    HW238325  13.087   5.274  10.242  0.5529  0.0875 -1.2897
40239SOL     OW38326   9.681  10.386   7.543 -0.1614  0.2880 -0.7177
40239SOL    HW138327   9.752  10.350   7.489 -0.1105 -0.3527 -0.2388
40239SOL    HW238328   9.616  10.315   7.546 -0.2554  0.3984 -0.1150
40240SOL     OW38329   6.953   8.508   3.678  0.3299 -0.7961 -0.2401
40240SOL    HW138330   6.930   8.423   3.717  1.1388 -1.0917 -0.4005
40240SOL    HW238331   6.934   8.571   3.747 -1.4106 -0.9683 -0.5154
40241SOL     OW38332  13.911   3.310  10.012  0.4756 -0.3484  0.6002
40241SOL    HW138333  13.987   3.251  10.012  0.6529 -0.1708 -0.8053
40241SOL    HW238334  13.943   3.388   9.967 -0.4031 -0.0736  0.4420
40242SOL     OW38335   9.383  11.446   0.984  0.1113  0.1865  0.3579
40242SOL    HW138336   9.366  11.351   0.979 -1.8149  0.5340 -1.1022
40242SOL    HW238337   9.476  11.453   1.003  0.3553 -2.0076  0.2439
40243SOL     OW38338   8.325   5.298   4.528  0.6176 -0.1373 -0.3452
40243SOL    HW138339   8.361   5.319   4.442 -1.0852 -0.9941 -1.3234
40243SOL    HW238340   8.264   5.369   4.547 -0.1556 -0.7155 -0.5872
40244SOL     OW38341   4.109   9.772  14.074 -0.4050  0.1917  0.7383
40244SOL    HW138342   4.156   9.801  13.996  1.0907 -1.0453  1.1365
40244SOL    HW238343   4.066   9.851  14.107  0.1513  1.0377 -0.5039
40245SOL     OW38344   0.182   9.849  11.745  0.0968 -0.2095  0.2948
40245SOL    HW138345   0.264   9.820  11.705  1.0894 -0.0279  2.0623
40245SOL    HW238346   0.117   9.786  11.714  1.5903 -2.5639  1.5505
40246SOL     OW38347  11.108   6.108   5.275 -0.1018 -0.2931  0.3051
40246SOL    HW138348  11.191   6.154   5.289 -0.0318 -0.2417 -0.2570
40246SOL    HW238349  11.042   6.167   5.310  0.0186  0.0834 -0.0895
40247SOL     OW38350   9.588   9.142   2.740 -0.7679 -0.1692 -1.2566
40247SOL    HW138351   9.547   9.222   2.707  1.5839  1.5284 -0.3634
40247SOL    HW238352   9.595   9.085   2.664 -0.1600  1.5443 -2.5434
40248SOL     OW38353  11.169   2.015   4.893  0.0458 -0.1095 -0.1346
40248SOL    HW138354  11.258   1.987   4.869  0.3445  1.8733 -1.6251
40248SOL    HW238355  11.120   2.011   4.811 -1.2154 -0.9742  0.6361
40249SOL     OW38356   6.627   6.239   9.818 -0.0288  0.7844 -0.0639
40249SOL    HW138357   6.703   6.218   9.871  0.3894 -0.5174 -1.0990
40249SOL    HW238358   6.645   6.198   9.733 -2.2265 -0.2822 -0.0947
40250SOL     OW38359  11.221   8.214   5.255  0.2328  0.4148 -0.0020
40250SOL    HW138360  11.201   8.144   5.318  0.0372  0.5793  0.1212
40250SOL    HW238361  11.316   8.225   5.260  0.3723 -0.3912 -0.6063
40251SOL     OW38362   3.043   5.446   6.511 -1.1017  0.8504  0.6205
40251SOL    HW138363   2.994   5.528   6.508 -0.0179  1.6740  3.2492
40251SOL    HW238364   3.135   5.472   6.503 -0.7990 -0.2423  0.2948
40252SOL     OW38365  12.783   4.668   8.753 -0.7002  0.0064  0.2588
40252SOL    HW138366  12.744   4.751   8.782 -0.6703 -0.7626  2.7724
40252SOL    HW238367  12.747   4.603   8.813  0.9599 -1.4629 -0.2677
40253SOL     OW38368   3.211   3.174  11.839  0.2483  0.0737  0.1134
40253SOL    HW138369   3.261   3.204  11.914  1.4715 -0.7667 -0.3391
40253SOL    HW238370   3.119   3.187  11.864  0.6388  0.0050  1.6576
40254SOL     OW38371   3.270   6.773   7.823  0.3755  0.0838 -0.6921
40254SOL    HW138372   3.190   6.722   7.829 -0.3262  1.0025 -1.8669
40254SOL    HW238373   3.324   6.726   7.759  0.7182 -0.4304 -0.0418
40255SOL     OW38374   9.115   6.566  13.597  0.2776  0.5356  0.8512
40255SOL    HW138375   9.050   6.634  13.614  0.5301  0.8907  0.4191
40255SOL    HW238376   9.199   6.612  13.603  0.3961  0.6027 -0.9656
40256SOL     OW38377   5.710   1.805  10.773  0.3003  0.3213  0.1870
40256SOL    HW138378   5.725   1.826  10.680  0.7781 -0.6468  0.0388
40256SOL    HW238379   5.783   1.749  10.797 -0.9446 -1.2007  0.5616
40257SOL     OW38380  13.836  12.492   2.380 -0.2648  0.3142  0.8249
40257SOL    HW138381  13.788  12.433   2.322 -0.0552  2.1893 -1.4027
40257SOL    HW238382  13.867  12.436   2.451 -3.6033 -1.4242  1.0997
40258SOL     OW38383   1.827   9.108   7.546 -0.4413  0.2090  0.3682
40258SOL    HW138384   1.826   9.198   7.512  0.7275 -0.4013 -1.4833
40258SOL    HW238385   1.833   9.118   7.641 -0.1559  2.0971  0.1960
40259SOL     OW38386   2.491  10.394   4.296 -0.4285  0.5186 -0.4554
40259SOL    HW138387   2.517  10.303   4.307 -0.7311  0.4539 -0.2553
40259SOL    HW238388   2.398  10.389   4.276 -1.0452  0.8963  1.9784
40260SOL     OW38389   0.512  13.146  13.220  0.3732 -0.0828  0.0858
40260SOL    HW138390   0.574  13.211  13.187 -1.2423  1.5445  0.0997
40260SOL    HW238391   0.558  13.063  13.212  2.4566  1.0170 -0.1247
40261SOL     OW38392   9.509   4.360   2.806  0.3270 -0.2135  0.4658
40261SOL    HW138393   9.592   4.377   2.762  0.2063  0.4298  0.4700
40261SOL    HW238394   9.529   4.371   2.899  0.7124 -2.1200  0.6488
40262SOL     OW38395  13.764  10.101   1.533  0.1059 -0.0722 -0.4394
40262SOL    HW138396  13.752  10.150   1.452  0.1693  0.5487 -0.0803
40262SOL    HW238397  13.776  10.168   1.600 -1.5527 -0.5179  0.3609
40263SOL     OW38398   6.294   7.072   3.117 -0.4175  0.2270  0.3023
40263SOL    HW138399   6.370   7.024   3.083 -0.0863  0.4315  0.7371
40263SOL    HW238400   6.331   7.152   3.153 -0.7135 -0.0814  1.3570
40264SOL     OW38401  13.458  10.504  14.014  0.3338 -0.1903 -0.2419
40264SOL    HW138402  13.417  10.502  14.101  2.6314  2.0912  1.0129
40264SOL    HW238403  13.390  10.540  13.957 -1.2633 -1.8179  0.5149
40265SOL     OW38404   1.336   4.195   1.426  0.4603  0.3984  0.2806
40265SOL    HW138405   1.273   4.190   1.499 -0.5401  3.0337 -0.3005
40265SOL    HW238406   1.415   4.233   1.465  1.7576 -2.6883  0.9554
40266SOL     OW38407   8.429  12.259   6.630 -0.2874  0.4452 -0.7264
40266SOL    HW138408   8.470  12.342   6.606 -1.6263  0.8954 -1.5683
40266SOL    HW238409   8.338  12.282   6.649 -0.2198 -0.5317  0.9755
40267SOL     OW38410   8.087   2.415  12.810  0.0835 -0.5811  0.6039
40267SOL    HW138411   8.007   2.365  12.791 -0.2042 -0.2822  1.0220
40267SOL    HW238412   8.055   2.502  12.835  0.5953  0.0046 -0.6672
40268SOL     OW38413   3.090   2.133  10.536  0.7565 -0.1650  0.2357
40268SOL    HW138414   3.069   2.116  10.628  0.7052 -1.3504  0.0181
40268SOL    HW238415   3.120   2.049  10.502  0.2419  0.1268 -0.9876
40269SOL     OW38416   5.960   8.161   4.897 -0.7388 -0.2549 -0.5758
40269SOL    HW138417   5.946   8.205   4.981 -0.7735  1.8139 -1.6004
40269SOL    HW238418   5.944   8.229   4.831  0.8641 -1.3845 -2.2261
40270SOL     OW38419  12.830   0.936   1.584 -0.0345  0.1121  0.2882
40270SOL    HW138420  12.804   1.000   1.518  0.7790  0.8598  0.6726
40270SOL    HW238421  12.765   0.944   1.653 -0.3129  0.0401  0.0366
40271SOL     OW38422   3.206   1.475   9.234 -0.1192  0.3901  0.1284
40271SOL    HW138423   3.220   1.381   9.247 -0.7848  0.5058  2.0187
40271SOL    HW238424   3.291   1.507   9.203 -0.0721 -0.9148 -1.2119
40272SOL     OW38425  13.892  13.518  12.746 -0.4597  0.2626 -0.3071
40272SOL    HW138426  13.797  13.510  12.748 -0.3622 -1.1457  2.0747
40272SOL    HW238427  13.912  13.547  12.657 -3.2592  2.9982 -0.2321
40273SOL     OW38428   3.755   2.789  13.757 -0.1932  0.4668 -0.3445
40273SOL    HW138429   3.766   2.844  13.835 -3.1104  0.9381 -0.1511
40273SOL    HW238430   3.796   2.706  13.780 -0.0158  0.9618  1.2621
40274SOL     OW38431   7.297   4.509   2.017  0.0577 -0.0212 -0.2544
40274SOL    HW138432   7.244   4.573   2.066  2.4348  1.0873  1.0613
40274SOL    HW238433   7.254   4.425   2.034 -0.6741  0.6651  1.6807
40275SOL     OW38434   8.315  11.884   6.257 -0.2850  0.3192 -0.2934
40275SOL    HW138435   8.223  11.872   6.234 -0.4970  1.0122  0.1697
40275SOL    HW238436   8.314  11.918   6.346  0.3749  1.2139 -0.6121
40276SOL     OW38437  12.635   2.278   6.654 -0.1031  0.0525  0.2310
40276SOL    HW138438  12.679   2.360   6.633 -0.4815  0.4967  1.1054
40276SOL    HW238439  12.571   2.302   6.721 -1.5434 -0.6006 -0.8503
40277SOL     OW38440   8.169  12.876  13.223  0.4483  0.0258  0.5723
40277SOL    HW138441   8.092  12.849  13.173  2.0373 -1.7903 -1.0236
40277SOL    HW238442   8.151  12.847  13.312 -1.9807  2.3886  0.9953
40278SOL     OW38443   0.107   7.584   5.320  0.6589 -0.0300 -0.5239
40278SOL    HW138444   0.170   7.616   5.384  1.6601  0.6280 -1.8018
40278SOL    HW238445   0.022   7.614   5.353  1.0517 -0.3642  0.8686
40279SOL     OW38446   8.548   1.698  13.798 -0.5040  0.0928 -0.0153
40279SOL    HW138447   8.605   1.623  13.812 -1.1147 -0.5003 -0.6700
40279SOL    HW238448   8.583   1.739  13.718  0.8257  1.4678  1.1982
40280SOL     OW38449  12.959   8.024  10.854  0.6032  0.4412 -0.5377
40280SOL    HW138450  12.879   8.068  10.825 -0.3620 -1.2694 -0.5781
40280SOL    HW238451  13.016   8.095  10.884 -0.5255  1.7808 -1.4494
40281SOL     OW38452   8.249  12.176   6.344  0.1434  0.3788  0.3553
40281SOL    HW138453   8.251  12.116   6.418  0.3209 -0.9397 -0.6785
40281SOL    HW238454   8.186  12.138   6.283 -0.5006  1.7905  0.0944
40282SOL     OW38455   1.733   5.037   0.967 -0.0093 -0.6372  0.2953
40282SOL    HW138456   1.657   4.991   0.932  0.0756  0.9268 -2.1200
40282SOL    HW238457   1.808   4.988   0.935  0.0719  0.8613 -2.0015
40283SOL     OW38458   7.620   2.095  11.920 -0.0777 -0.3006  0.0023
40283SOL    HW138459   7.610   2.183  11.883  1.0042  0.1707  0.7704
40283SOL    HW238460   7.656   2.043  11.849 -0.0599  0.0511 -0.2488
40284SOL     OW38461   3.124   7.426   0.734 -0.2955  0.3007 -0.3248
40284SOL    HW138462   3.213   7.453   0.708  1.1962 -2.8211  0.9891
40284SOL    HW238463   3.118   7.450   0.826 -0.4887 -0.2019 -0.2028
40285SOL     OW38464   5.839  13.703   5.963  0.0033  0.5206  0.2561
40285SOL    HW138465   5.910  13.710   6.026 -0.2752 -2.0322  0.9834
40285SOL    HW238466   5.881  13.673   5.883 -0.1121 -0.0348  0.3988
40286SOL     OW38467   2.580   4.041   4.173 -0.7450  1.0944  0.2688
40286SOL    HW138468   2.500   4.080   4.138 -1.2849  1.4427  1.8340
40286SOL    HW238469   2.651   4.085   4.125 -1.4538  0.6750 -1.2389
40287SOL     OW38470  10.829  12.542   1.639  0.1619 -0.2404 -0.6434
40287SOL    HW138471  10.859  12.460   1.599  0.0341 -0.8128  0.3828
40287SOL    HW238472  10.899  12.604   1.623  0.3119 -0.5842 -1.3467
40288SOL     OW38473  10.125   6.606   3.140  0.0152  0.1581  0.1287
40288SOL    HW138474  10.191   6.611   3.071 -0.6409 -0.8804 -0.6087
40288SOL    HW238475  10.095   6.515   3.138  1.1872 -0.4008  2.9469
40289SOL     OW38476   9.213   8.473  12.421  0.3047  0.3747  0.2193
40289SOL    HW138477   9.243   8.470  12.512  0.8893  0.3846  0.0339
40289SOL    HW238478   9.261   8.547  12.382 -2.0035  2.1842  0.5969
40290SOL     OW38479   6.396   2.392  11.959 -0.0881  0.0418 -0.5039
40290SOL    HW138480   6.381   2.303  11.992 -0.5378  0.2810 -0.0469
40290SOL    HW238481   6.465   2.427  12.014 -0.5372  0.2878 -0.0880
40291SOL     OW38482   7.740   8.491  13.244  0.0504  0.3940  0.5088
40291SOL    HW138483   7.731   8.451  13.331  2.9200  1.1398  1.2586
40291SOL    HW238484   7.787   8.426  13.193 -0.3735  0.5388 -0.0752
40292SOL     OW38485  11.640   7.660   1.052 -0.0721 -0.4183  0.1496
40292SOL    HW138486  11.682   7.574   1.049  0.7091 -0.0260 -0.3930
40292SOL    HW238487  11.640   7.683   1.145  1.8314 -0.0086  0.0950
40293SOL     OW38488   3.986  11.860   0.350  0.9116 -0.2625  0.2495
40293SOL    HW138489   3.944  11.912   0.419 -0.1503 -0.1899 -0.4278
40293SOL    HW238490   4.018  11.925   0.287 -0.3342 -0.3879 -0.5514
40294SOL     OW38491  13.060   0.861  11.592  1.0098  0.1787  0.3313
40294SOL    HW138492  13.136   0.918  11.605  0.8985  0.2158  0.8128
40294SOL    HW238493  12.991   0.920  11.561  1.0144  0.2340  0.4281
40295SOL     OW38494   8.728   0.224   7.445 -0.8044  0.1768  0.0573
40295SOL    HW138495   8.709   0.231   7.539 -0.1915 -0.2469  0.2178
40295SOL    HW238496   8.725   0.314   7.413 -1.7581  0.2556  0.3295
40296SOL     OW38497   8.150  10.255   6.833  0.1812  0.5866 -0.2099
40296SOL    HW138498   8.212  10.270   6.903 -0.3869  0.7896  0.2552
40296SOL    HW238499   8.079  10.204   6.874 -0.0879  0.5887 -0.6647
40297SOL     OW38500  12.155  11.814   5.723  0.1215  0.0761  0.5040
40297SOL    HW138501  12.147  11.767   5.641  0.0620 -0.5345  0.8551
40297SOL    HW238502  12.236  11.865   5.714 -0.8498  1.5073 -0.6667
40298SOL     OW38503   5.397   6.953   5.679 -0.0991 -0.5611  0.3030
40298SOL    HW138504   5.324   7.011   5.700 -0.6785 -0.4386 -1.7421
40298SOL    HW238505   5.460   7.010   5.634  1.2140 -0.7117  1.8642
40299SOL     OW38506   0.809   7.887  12.314 -0.8021 -0.6364 -0.0491
40299SOL    HW138507   0.743   7.955  12.298 -0.0640 -0.3302 -2.0996
40299SOL    HW238508   0.878   7.931  12.364  0.2462  0.5660 -2.4013
40300SOL     OW38509   1.646   6.706   5.132  0.6744  0.1426 -0.3174
40300SOL    HW138510   1.555   6.685   5.151  0.7161  0.7823  0.6925
40300SOL    HW238511   1.642   6.769   5.060  0.4083 -0.9644 -1.2949
40301SOL     OW38512   1.058   2.022   1.060  0.1983 -0.1651  0.0975
40301SOL    HW138513   1.063   2.112   1.094 -0.9709 -0.2991  0.6787
40301SOL    HW238514   1.022   1.971   1.133 -0.7933 -0.7782 -0.7981
40302SOL     OW38515   7.533   3.758   1.478  0.6552  0.1476 -0.1317
40302SOL    HW138516   7.459   3.818   1.470  1.1769  0.6527 -1.4899
40302SOL    HW238517   7.495   3.671   1.466  0.3747  0.4613 -1.6932
40303SOL     OW38518  13.605  11.968   5.575 -0.6744  0.3652 -0.8903
40303SOL    HW138519  13.613  11.895   5.513  0.6170 -0.1556 -0.1397
40303SOL    HW238520  13.584  11.926   5.658 -1.9504  1.0291 -0.8668
40304SOL     OW38521   2.560   4.162  10.159  0.0268 -0.1343 -0.1610
40304SOL    HW138522   2.547   4.213  10.239 -0.0198  1.1762 -0.9603
40304SOL    HW238523   2.510   4.081  10.173  0.2529 -0.0540  1.2300
40305SOL     OW38524   8.138  13.297   2.095 -0.2675 -0.1193  0.0306
40305SOL    HW138525   8.145  13.390   2.113 -1.4479 -0.0257  0.0718
40305SOL    HW238526   8.125  13.257   2.181  0.5933 -0.3756  0.0557
40306SOL     OW38527  10.517   1.971   5.427  0.2849  0.6317  0.5023
40306SOL    HW138528  10.557   1.974   5.514  1.1639  0.1918  0.1330
40306SOL    HW238529  10.484   1.882   5.418 -0.0694  0.7624  0.4961
40307SOL     OW38530  10.167   3.185   4.605  0.1132 -0.1578  0.0947
40307SOL    HW138531  10.246   3.138   4.631 -0.2943 -1.4658 -0.9281
40307SOL    HW238532  10.133   3.136   4.531 -2.7261 -0.8067  1.6879
40308SOL     OW38533   9.473   5.026   2.932 -0.1701 -0.5028 -0.9350
40308SOL    HW138534   9.467   5.072   3.015 -0.6350  0.0054 -1.2397
40308SOL    HW238535   9.566   5.012   2.918  0.0787  1.3285 -1.3588
40309SOL     OW38536   5.862   9.253  11.333  0.1519  0.9302  0.0777
40309SOL    HW138537   5.771   9.229  11.315 -0.5652  1.4078  2.5989
40309SOL    HW238538   5.884   9.315  11.264 -0.6776 -0.7919 -1.8283
40310SOL     OW38539   0.728   6.305  11.918 -0.3607  0.6180 -0.5856
40310SOL    HW138540   0.659   6.296  11.984 -0.3728  1.3498 -0.4991
40310SOL    HW238541   0.794   6.359  11.961  0.3934 -0.2846 -0.5710
40311SOL     OW38542  12.526  13.401   1.211  0.4378 -0.2575 -0.4077
40311SOL    HW138543  12.621  13.391   1.223  0.1892 -0.9039  1.3142
40311SOL    HW238544  12.491  13.403   1.300 -1.1495  0.2904 -1.0151
40312SOL     OW38545   6.834  13.931   8.766  0.1016  0.1412  0.0189
40312SOL    HW138546   6.884  13.908   8.844  0.9849 -0.5827 -0.7404
40312SOL    HW238547   6.774  13.857   8.754  1.0638 -0.5076 -0.8790
40313SOL     OW38548   8.471   6.449   0.187 -0.4278 -0.0877  0.3321
40313SOL    HW138549   8.411   6.519   0.212  0.0941  0.2410  0.7076
40313SOL    HW238550   8.511   6.480   0.105 -2.0378 -1.1023 -0.8970
40314SOL     OW38551  13.839  10.310   7.249  0.1421 -0.2065  0.1045
40314SOL    HW138552  13.798  10.240   7.300  0.5785  0.8416  1.9727
40314SOL    HW238553  13.767  10.355   7.206 -0.3221 -0.6002  0.4659
40315SOL     OW38554   6.061   2.645   7.014  0.3002  0.7926  0.4998
40315SOL    HW138555   6.133   2.581   7.009  0.1768  0.6766  0.1788
40315SOL    HW238556   5.990   2.604   6.964 -0.1462  0.7021  1.1945
40316SOL     OW38557  10.018  11.261  10.392 -0.3317  0.9244 -0.2176
40316SOL    HW138558  10.079  11.191  10.368 -0.7418  0.0119  1.2751
40316SOL    HW238559   9.939  11.243  10.342  0.5967  2.2191 -2.3129
40317SOL     OW38560  11.892   7.083  13.082 -0.4514  0.0965  1.0667
40317SOL    HW138561  11.869   7.176  13.086 -1.8212 -0.0857 -0.8942
40317SOL    HW238562  11.843   7.050  13.006  3.4465 -1.2504 -1.1189
40318SOL     OW38563   9.966   6.202  12.487 -0.4420  0.3164 -0.1038
40318SOL    HW138564  10.002   6.193  12.576  0.4934 -0.6559 -0.5519
40318SOL    HW238565   9.997   6.124  12.442 -3.8653 -1.0740 -0.3124
40319SOL     OW38566  13.537   5.606   2.730  0.5043  0.5704  0.3417
40319SOL    HW138567  13.608   5.590   2.668  0.9478  2.8477  0.1908
40319SOL    HW238568  13.577   5.659   2.800 -0.6363  0.4088  1.1495
40320SOL     OW38569   5.040  13.594   7.797  0.0015  0.1907 -0.3438
40320SOL    HW138570   4.980  13.668   7.798 -0.2863 -0.0449  0.8104
40320SOL    HW238571   5.008  13.536   7.866  1.1357 -0.2746 -0.1904
40321SOL     OW38572  14.048   5.197  12.584  0.2150 -0.3611 -1.3656
40321SOL    HW138573  14.073   5.283  12.550 -3.2249  0.5783 -1.8508
40321SOL    HW238574  14.121   5.173  12.641  0.9563  3.3172 -0.4517
40322SOL     OW38575  12.942   0.719  13.280 -0.0681 -0.4608 -0.1926
40322SOL    HW138576  13.020   0.693  13.231  0.9339 -0.9352  1.5896
40322SOL    HW238577  12.933   0.653  13.348 -0.1421  1.3259  1.6135
40323SOL     OW38578   1.040   2.309   8.458  0.0388  0.2092 -0.0835
40323SOL    HW138579   1.040   2.333   8.551  0.0016 -0.2005  0.0220
40323SOL    HW238580   1.032   2.393   8.412 -1.4659  0.3156  0.3043
40324SOL     OW38581   9.326   0.875   0.197  0.3656  0.3255 -0.2708
40324SOL    HW138582   9.365   0.849   0.114  1.1394  1.3675 -0.2576
40324SOL    HW238583   9.393   0.928   0.239 -0.7571  1.4632  0.1432
40325SOL     OW38584   0.315   1.673   1.532  0.1366  0.3076 -0.2648
40325SOL    HW138585   0.297   1.579   1.534 -0.2945  0.3925  0.4953
40325SOL    HW238586   0.255   1.710   1.598  1.1700  0.9535  0.3363
40326SOL     OW38587   1.142  10.018  11.917  0.4780 -0.1298  0.4797
40326SOL    HW138588   1.200   9.953  11.878 -1.4181 -1.2744 -0.6195
40326SOL    HW238589   1.123  10.078  11.846 -1.4074 -1.0719  0.1217
40327SOL     OW38590   1.260  13.686  12.240 -0.3024 -0.0427  0.1306
40327SOL    HW138591   1.292  13.764  12.287  0.4047 -1.2353  1.7188
40327SOL    HW238592   1.238  13.624  12.310  0.1358 -1.6509 -1.1136
40328SOL     OW38593   1.079   1.878   1.883 -0.0352  0.3972 -0.1439
40328SOL    HW138594   1.046   1.966   1.903 -2.1176 -0.2609 -0.3615
40328SOL    HW238595   1.093   1.878   1.789 -0.7073  0.3136 -0.2505
40329SOL     OW38596   4.667   9.511  12.314 -1.1599  0.0299 -0.6409
40329SOL    HW138597   4.603   9.471  12.373 -0.4891  0.1129  0.1577
40329SOL    HW238598   4.620   9.584  12.273 -1.6115  0.0231 -0.1425
40330SOL     OW38599   3.460  13.084  11.229 -0.3111  0.1272 -0.1964
40330SOL    HW138600   3.477  13.056  11.319  1.5738  1.7677  0.0477
40330SOL    HW238601   3.379  13.135  11.233 -0.6622 -0.4722  0.4023
40331SOL     OW38602   7.009   7.930   0.798  0.2112 -0.4569 -0.4138
40331SOL    HW138603   7.029   7.858   0.858  1.1716  0.2684  0.1565
40331SOL    HW238604   7.069   8.000   0.823  0.5771 -0.1051 -2.1668
40332SOL     OW38605   8.937   1.310   1.744 -0.7751 -0.9691 -0.4537
40332SOL    HW138606   8.869   1.363   1.704  0.2283  0.6130 -0.1563
40332SOL    HW238607   8.995   1.286   1.672 -0.0090  0.2862 -0.3009
40333SOL     OW38608   1.902   7.338   8.962  0.8725  0.0831  0.4812
40333SOL    HW138609   1.895   7.395   9.039  1.5328 -1.1234  1.4673
40333SOL    HW238610   1.995   7.336   8.942  0.5934  1.5336 -1.3037
40334SOL     OW38611   6.187  11.433  11.453  0.5145 -0.1709  0.3802
40334SOL    HW138612   6.131  11.418  11.377 -1.1306 -1.7460  1.8024
40334SOL    HW238613   6.276  11.420  11.420 -0.0292  0.7759 -1.5976
40335SOL     OW38614   5.843   0.966   9.259 -0.4213 -0.7479 -0.3117
40335SOL    HW138615   5.935   0.980   9.237 -0.3066 -0.8145  0.1239
40335SOL    HW238616   5.812   1.051   9.290 -0.5654 -0.6716 -0.6580
40336SOL     OW38617   2.016   4.671   2.344  0.1480  0.1569 -0.1183
40336SOL    HW138618   2.111   4.666   2.345  0.1150 -1.2334  1.8723
40336SOL    HW238619   1.986   4.581   2.330 -0.8841  0.4964 -0.2288
40337SOL     OW38620   2.599  13.774   6.944 -0.4545  0.5009 -0.2565
40337SOL    HW138621   2.623  13.746   7.032 -0.8622  1.2668  0.1139
40337SOL    HW238622   2.667  13.737   6.888  0.8492  1.5000  0.5909
40338SOL     OW38623   0.101   4.615   2.296  0.0759  0.1922  0.6458
40338SOL    HW138624   0.060   4.529   2.305 -0.0246  0.1902  0.1874
40338SOL    HW238625   0.173   4.601   2.234  1.7878 -0.1449  2.6162
40339SOL     OW38626  14.080   9.942   7.396 -0.2852  0.1171  0.0105
40339SOL    HW138627  14.092  10.036   7.383 -1.8786  0.3284 -0.1409
40339SOL    HW238628  14.089   9.904   7.309 -1.9135  0.4371 -0.3321
40340SOL     OW38629  10.771  12.481  13.657 -0.2950  1.0805  0.2354
40340SOL    HW138630  10.756  12.410  13.720 -1.4680  0.2598 -0.9036
40340SOL    HW238631  10.860  12.467  13.625 -0.4525  0.2198  0.1557
40341SOL     OW38632  11.522  10.857   2.916 -0.3299  1.1217 -0.4922
40341SOL    HW138633  11.601  10.804   2.908 -0.5960  0.5327  0.6235
40341SOL    HW238634  11.533  10.926   2.850  0.8587  0.7420 -0.7170
40342SOL     OW38635  13.699   4.808  11.420 -0.1322  0.7791  0.2015
40342SOL    HW138636  13.782   4.761  11.412 -0.6368 -0.1972  0.6161
40342SOL    HW238637  13.722   4.887  11.469  0.7737  1.1334 -0.7364
40343SOL     OW38638  11.324   5.641   4.955  0.2572  0.3365  0.7442
40343SOL    HW138639  11.397   5.587   4.924 -0.6056 -0.3822 -0.0876
40343SOL    HW238640  11.246   5.600   4.918 -0.5833  1.0938  1.6164
40344SOL     OW38641   2.588  11.341  12.656 -0.0596  0.0686  0.1000
40344SOL    HW138642   2.574  11.301  12.570  3.5135 -2.0092  0.2638
40344SOL    HW238643   2.633  11.423  12.638  0.7080 -0.3770 -0.0288
40345SOL     OW38644  10.620   7.506   2.099  0.4491  0.0894  0.3337
40345SOL    HW138645  10.535   7.500   2.055 -0.6901 -0.2801  2.4617
40345SOL    HW238646  10.671   7.567   2.045 -0.8107 -0.3846 -1.4953
40346SOL     OW38647   9.195  13.909   2.350  0.2063  0.1566  0.4337
40346SOL    HW138648   9.153  13.959   2.280 -0.6233 -0.1144  0.7176
40346SOL    HW238649   9.140  13.831   2.360  0.8853 -0.2998  0.7069
40347SOL     OW38650   6.820  13.234   0.152  0.8026  0.2007 -0.3404
40347SOL    HW138651   6.765  13.180   0.095 -0.1212 -0.3042  0.9515
40347SOL    HW238652   6.777  13.320   0.152 -0.3003 -0.3020  0.9816
40348SOL     OW38653   3.768   6.970   7.896  0.3495 -0.7257  0.2206
40348SOL    HW138654   3.723   7.053   7.916  3.6700  1.5209 -0.7779
40348SOL    HW238655   3.724   6.938   7.817 -0.7104  0.3296  0.3481
40349SOL     OW38656   6.395   6.572   1.642 -0.3332 -0.0528 -0.4508
40349SOL    HW138657   6.301   6.555   1.633 -0.7811  1.6933  0.5339
40349SOL    HW238658   6.415   6.631   1.569  0.0149 -0.4942 -0.7103
40350SOL     OW38659   4.445   1.698   7.523 -0.1641 -0.0872 -0.1126
40350SOL    HW138660   4.426   1.741   7.606 -1.0999 -0.4345 -0.1296
40350SOL    HW238661   4.518   1.639   7.542 -0.1521  0.0841  0.3785
40351SOL     OW38662   9.403   2.439   2.382 -0.4450  0.5251 -0.0555
40351SOL    HW138663   9.455   2.382   2.327 -1.3230  0.8759 -1.2859
40351SOL    HW238664   9.466   2.500   2.421  0.2131  0.1102 -0.4780
40352SOL     OW38665   6.405   5.406   1.156 -0.2528  0.4686 -0.1606
40352SOL    HW138666   6.385   5.490   1.197 -0.2675 -0.4488  1.8286
40352SOL    HW238667   6.436   5.429   1.069  2.9509  2.8191  1.3839
40353SOL     OW38668   0.458   1.478  13.920 -0.3413 -0.1577 -0.5210
40353SOL    HW138669   0.512   1.408  13.885  0.0701 -0.8851  1.4280
40353SOL    HW238670   0.485   1.556  13.872  0.9810 -0.8876 -1.0153
40354SOL     OW38671   5.899   1.297   9.788  0.0179  0.0839  0.4003
40354SOL    HW138672   5.944   1.358   9.847 -0.3908 -0.3807  1.2144
40354SOL    HW238673   5.864   1.230   9.846 -1.0447  0.0170 -0.2947
40355SOL     OW38674   7.184  12.731  10.018 -0.4680  0.0759  0.0207
40355SOL    HW138675   7.173  12.638  10.037 -1.0137  0.1279 -0.0329
40355SOL    HW238676   7.147  12.743   9.931 -1.0738  0.4815  0.3274
40356SOL     OW38677   1.669  12.268  11.726 -0.1776  0.2983  0.2317
40356SOL    HW138678   1.757  12.241  11.753 -0.2534  1.5284  1.8141
40356SOL    HW238679   1.611  12.203  11.766 -0.1182  0.6481  0.8933
40357SOL     OW38680  14.038   4.077  12.223 -0.1897 -0.1440 -0.2815
40357SOL    HW138681  13.950   4.061  12.258  0.1967  0.1967  0.8847
40357SOL    HW238682  14.066   4.159  12.264  0.5326 -0.0496 -0.9335
40358SOL     OW38683   0.438   4.283   4.671 -0.9369 -0.4970  0.2886
40358SOL    HW138684   0.432   4.228   4.593 -3.3341 -1.6494  1.1837
40358SOL    HW238685   0.528   4.315   4.671 -1.2366  0.9289 -3.8120
40359SOL     OW38686  10.773   7.976   2.060 -0.2585  0.1163 -0.0367
40359SOL    HW138687  10.779   7.893   2.108  0.1711 -0.2327 -0.6758
40359SOL    HW238688  10.847   8.028   2.092  1.4537 -1.0014 -1.9345
40360SOL     OW38689  11.088   8.117   5.009  0.5660  0.0113 -0.0992
40360SOL    HW138690  11.145   8.149   4.939  0.6295 -0.8524 -0.4589
40360SOL    HW238691  11.129   8.150   5.089  0.2947  1.3064 -0.4712
40361SOL     OW38692   4.043   3.392   7.150 -0.1428 -0.2044  0.1579
40361SOL    HW138693   4.111   3.382   7.217  1.2726  0.9710 -1.0381
40361SOL    HW238694   4.003   3.305   7.144  0.3252 -0.5738  1.8507
40362SOL     OW38695   2.993   9.369   3.051 -0.0508  0.4871 -0.2571
40362SOL    HW138696   2.968   9.451   3.094 -1.8305 -0.0956 -0.0641
40362SOL    HW238697   3.055   9.328   3.110 -1.9879 -0.0200  1.5396
40363SOL     OW38698   6.297   6.939   0.230 -0.4759  0.3850  0.2234
40363SOL    HW138699   6.346   6.919   0.310  1.2682 -2.0824 -1.3119
40363SOL    HW238700   6.222   6.880   0.232 -0.6041  0.5467  0.1857
40364SOL     OW38701   3.542  10.935  10.365  0.7163 -0.1246  0.6257
40364SOL    HW138702   3.499  10.870  10.311  1.1304  0.5979 -0.6114
40364SOL    HW238703   3.514  10.915  10.454  1.1623 -2.2384  0.3282
40365SOL     OW38704   7.142   3.733   0.640  0.1066 -0.4589  0.0859
40365SOL    HW138705   7.187   3.714   0.722 -0.2184 -4.0857 -0.4145
40365SOL    HW238706   7.102   3.650   0.614 -1.4281  1.0103 -2.7897
40366SOL     OW38707   3.608   1.941  12.466 -0.5906  0.4210 -0.3586
40366SOL    HW138708   3.550   1.960  12.393 -1.1520 -1.6941 -0.5207
40366SOL    HW238709   3.555   1.890  12.527 -0.3231  2.5873  1.8785
40367SOL     OW38710   1.341   9.221  10.990 -0.2014  0.5110  0.4372
40367SOL    HW138711   1.403   9.295  10.990  1.0106 -0.3681 -2.0938
40367SOL    HW238712   1.259   9.258  11.023  0.4211  2.9515 -0.5031
40368SOL     OW38713  13.378   9.431  13.989 -0.4594  0.5499 -0.0823
40368SOL    HW138714  13.439   9.480  13.934 -1.0620 -0.1689 -1.4340
40368SOL    HW238715  13.355   9.354  13.938 -0.0948 -0.8135  1.6992
40369SOL     OW38716   0.114   5.502  10.397 -0.0462 -0.3803 -0.2473
40369SOL    HW138717   0.103   5.576  10.338 -0.7100  0.2839  0.6651
40369SOL    HW238718   0.142   5.542  10.480  0.4360 -1.2360  0.0171
40370SOL     OW38719   9.623   6.454   2.246 -0.0394  0.0981  0.0139
40370SOL    HW138720   9.567   6.397   2.194 -0.0199 -0.7047  0.8515
40370SOL    HW238721   9.649   6.401   2.321 -0.4319  1.3710  1.0902
40371SOL     OW38722   6.371  12.675   5.601  1.2354  0.0213  0.3910
40371SOL    HW138723   6.433  12.609   5.571  0.1231 -0.8375 -0.1019
40371SOL    HW238724   6.317  12.694   5.524  0.2014 -0.0536  1.0761
40372SOL     OW38725  13.801   5.252  12.453  0.7080  0.0798 -0.4318
40372SOL    HW138726  13.818   5.296  12.370 -0.3736  3.0563  0.7692
40372SOL    HW238727  13.887   5.249  12.496  1.0569 -0.3567 -1.1449
40373SOL     OW38728  10.214   3.280   3.877  0.3145  1.2065 -0.4628
40373SOL    HW138729  10.267   3.357   3.855 -0.5132  1.7970 -0.4599
40373SOL    HW238730  10.138   3.316   3.924  1.0928  0.1527  1.7368
40374SOL     OW38731  13.389  14.013  11.381 -0.0815  0.3966 -0.1652
40374SOL    HW138732  13.360  13.971  11.462  0.2264  0.6895  0.1025
40374SOL    HW238733  13.403  13.941  11.320  0.9801  0.0597  0.4598
40375SOL     OW38734  10.431   4.393  10.328 -0.1321 -0.7037 -0.2765
40375SOL    HW138735  10.478   4.311  10.315 -0.3471 -0.7926 -0.5097
40375SOL    HW238736  10.380   4.405  10.248  1.3404  0.6276 -1.0657
40376SOL     OW38737   7.445   6.617  12.768  0.1220  0.2761 -0.6139
40376SOL    HW138738   7.448   6.539  12.713  0.7138  0.3513 -0.6921
40376SOL    HW238739   7.481   6.590  12.852 -1.0869  0.0771 -0.1427
40377SOL     OW38740  12.962   0.390   3.345 -0.0932 -0.1987 -0.2660
40377SOL    HW138741  13.056   0.377   3.332  0.2170  0.9199  0.7368
40377SOL    HW238742  12.924   0.302   3.335  1.0458 -0.6682 -0.6461
40378SOL     OW38743  13.986  13.977   7.510 -0.4654 -0.4116  0.2114
40378SOL    HW138744  13.951  13.897   7.548  0.3181 -0.3622  1.0841
40378SOL    HW238745  13.916  14.011   7.455 -1.6044 -0.5788  1.5105
40379SOL     OW38746   8.874  13.351   3.772  0.3728  0.3957 -0.3260
40379SOL    HW138747   8.926  13.341   3.852  0.1696 -0.0268 -0.2459
40379SOL    HW238748   8.810  13.419   3.793  1.3005  1.4154 -0.6402
40380SOL     OW38749   8.584   1.552   0.029 -0.0992 -0.0243  0.2430
40380SOL    HW138750   8.538   1.624  -0.012 -1.0148  0.1139  1.4621
40380SOL    HW238751   8.595   1.579   0.120 -3.2045 -2.6216  1.5617
40381SOL     OW38752  12.422   8.100   3.520 -0.7143  0.7921  0.9068
40381SOL    HW138753  12.376   8.097   3.603 -0.8505  1.6641  0.8756
40381SOL    HW238754  12.509   8.132   3.542 -0.1460 -0.7155  0.9467
40382SOL     OW38755   2.107   4.100   8.515 -0.7703  0.0347  0.5652
40382SOL    HW138756   2.116   4.155   8.437 -0.3561 -0.1847  0.4518
40382SOL    HW238757   2.144   4.015   8.489 -0.0503  0.1438  1.1869
40383SOL     OW38758   5.963  12.296  11.027 -0.4413 -0.0620  0.0099
40383SOL    HW138759   5.890  12.294  11.089 -0.3672 -2.1144  0.1127
40383SOL    HW238760   6.003  12.209  11.034  1.0128  0.4476 -1.2395
40384SOL     OW38761  10.509  13.990   4.341  0.1892 -0.4139  0.2961
40384SOL    HW138762  10.599  13.986   4.375  0.4594  1.9655  0.0059
40384SOL    HW238763  10.483  14.081   4.352 -1.6159 -0.7006 -1.1207
40385SOL     OW38764   6.191   0.455  10.887  0.3126 -0.7040 -0.2005
40385SOL    HW138765   6.273   0.441  10.935 -0.4061 -1.2342  0.9203
40385SOL    HW238766   6.192   0.548  10.864  1.9797 -1.0126 -1.6777
40386SOL     OW38767  13.256  12.045  10.197 -0.4990  0.0354  0.0282
40386SOL    HW138768  13.222  12.132  10.219 -0.7795 -0.0982  0.1171
40386SOL    HW238769  13.321  12.026  10.265  0.6199  0.7915 -0.7898
40387SOL     OW38770  14.071   6.956   2.054  0.4351 -0.4504 -0.4264
40387SOL    HW138771  14.116   7.018   1.997 -0.1942  0.9219  0.4921
40387SOL    HW238772  13.979   6.981   2.049  0.2472 -0.9142  0.4221
40388SOL     OW38773  13.307   9.401   6.933 -0.1384  0.0160 -0.4514
40388SOL    HW138774  13.240   9.445   6.985  0.7335  0.7190  0.1228
40388SOL    HW238775  13.381   9.463   6.933  0.6132 -0.8593 -0.8109
40389SOL     OW38776   6.012   7.003  13.866  0.2510  0.0376 -0.3580
40389SOL    HW138777   5.937   7.040  13.914  0.9704  0.4018  0.5276
40389SOL    HW238778   6.085   7.060  13.891  1.4062 -1.9442  1.0348
40390SOL     OW38779   8.142   5.863   9.245 -0.0864 -0.0594 -0.3886
40390SOL    HW138780   8.051   5.881   9.223  0.0903  2.9819  0.8681
40390SOL    HW238781   8.188   5.866   9.161 -0.9096  0.0564 -0.8489
40391SOL     OW38782  12.019   2.277   3.450  0.0350 -0.4388 -0.0203
40391SOL    HW138783  11.959   2.273   3.376  0.6503  1.5782 -0.6858
40391SOL    HW238784  11.968   2.245   3.525 -2.4300  2.6512 -0.2234
40392SOL     OW38785   0.776   6.913  10.594  0.0693  0.0509 -0.1140
40392SOL    HW138786   0.809   6.916  10.684 -1.4100  0.3047  0.4542
40392SOL    HW238787   0.694   6.863  10.601  0.3444 -0.6280 -1.4641
40393SOL     OW38788  12.656  11.314   1.924  0.2025  0.5003  0.0305
40393SOL    HW138789  12.651  11.356   1.838 -0.8341 -0.2766 -0.3032
40393SOL    HW238790  12.685  11.225   1.905 -0.3301  0.2343  0.4621
40394SOL     OW38791  12.884  12.760  11.382 -1.1623  0.1813 -0.2228
40394SOL    HW138792  12.864  12.840  11.333  0.7890 -0.1645 -1.6916
40394SOL    HW238793  12.813  12.699  11.358 -1.7425  0.9163 -0.4088
40395SOL     OW38794  10.035  10.105   8.803  0.2114  0.1995  0.0201
40395SOL    HW138795   9.971  10.175   8.812  1.2893  1.5548 -2.0074
40395SOL    HW238796  10.095  10.118   8.876 -1.6433 -1.0249  1.8861
40396SOL     OW38797   3.402  12.212   1.094 -0.0864  0.1469 -0.2617
40396SOL    HW138798   3.371  12.122   1.099  0.1961 -0.0057 -1.1697
40396SOL    HW238799   3.417  12.237   1.185 -1.9492 -0.0962  0.1635
40397SOL     OW38800   3.324  13.382  11.523  0.5091  0.0031  0.1327
40397SOL    HW138801   3.249  13.330  11.551 -0.5637  0.5850 -1.5389
40397SOL    HW238802   3.399  13.326  11.540 -0.5266 -1.6914 -0.6060
40398SOL     OW38803  10.078  11.511   5.345 -0.2954  0.3765  0.2055
40398SOL    HW138804  10.050  11.570   5.414 -1.2323  1.0501 -0.7255
40398SOL    HW238805  10.041  11.426   5.370 -0.1846  0.4954  0.7892
40399SOL     OW38806  12.694   9.417   2.439  0.6247 -0.3836 -0.0671
40399SOL    HW138807  12.757   9.489   2.440  1.8484 -1.4225  1.0378
40399SOL    HW238808  12.648   9.427   2.356 -0.3260  2.5678  0.6920
40400SOL     OW38809   5.706   3.171  13.436  0.5215  0.0407 -0.0087
40400SOL    HW138810   5.727   3.125  13.517 -0.8270  2.6150  1.9498
40400SOL    HW238811   5.622   3.133  13.408  1.4457 -1.5199 -0.8429
40401SOL     OW38812   1.820   9.677  10.488  0.2344 -0.2731  0.3672
40401SOL    HW138813   1.834   9.694  10.395  1.6555  0.2021  0.6488
40401SOL    HW238814   1.814   9.764  10.528  0.0153 -0.4711  0.7763
40402SOL     OW38815   3.410   9.484  12.568 -0.2278 -0.1068  0.2322
40402SOL    HW138816   3.328   9.507  12.611 -0.8499 -5.2174  2.5365
40402SOL    HW238817   3.475   9.486  12.638  1.0983  1.1194 -0.9615
40403SOL     OW38818   1.285   0.297   8.682  0.2773 -0.6073 -0.3805
40403SOL    HW138819   1.198   0.330   8.660 -0.3312 -1.7831  0.1449
40403SOL    HW238820   1.272   0.249   8.764  1.6696  0.2089  0.3636
40404SOL     OW38821   3.555   1.755   9.490  0.0480  0.1502  0.1853
40404SOL    HW138822   3.565   1.744   9.585  0.1707  1.1366  0.2961
40404SOL    HW238823   3.462   1.738   9.474  0.0294 -0.0431  0.4775
40405SOL     OW38824  11.046   7.343   5.113 -0.5669 -0.0234  0.4166
40405SOL    HW138825  11.133   7.307   5.133 -0.6805  0.0119  0.9767
40405SOL    HW238826  11.061   7.437   5.103 -0.7285  0.1578  1.6984
40406SOL     OW38827   2.155   1.645  13.627 -0.4296  0.0357  0.2927
40406SOL    HW138828   2.169   1.566  13.679 -1.6052 -0.7788 -0.5672
40406SOL    HW238829   2.068   1.633  13.589  0.4333  0.5445 -1.9687
40407SOL     OW38830   1.446   7.361   6.638 -0.8507  0.5920  0.3721
40407SOL    HW138831   1.518   7.397   6.689  0.2012 -2.5363  1.2776
40407SOL    HW238832   1.369   7.373   6.694 -0.7089  2.0736  0.2884
40408SOL     OW38833   8.501   0.802   6.402  0.1008  0.1288 -0.5962
40408SOL    HW138834   8.443   0.755   6.342 -0.4880  0.5935 -0.4087
40408SOL    HW238835   8.444   0.869   6.442  0.7405  0.5125 -0.3149
40409SOL     OW38836  11.447  11.724  10.362 -0.2313  0.4969  0.2117
40409SOL    HW138837  11.456  11.761  10.449  1.0912  1.2039 -0.2040
40409SOL    HW238838  11.405  11.639  10.376  0.9304  0.1353  1.6400
40410SOL     OW38839   5.823   8.309   0.892  0.1856  0.2967  0.2124
40410SOL    HW138840   5.781   8.388   0.857 -1.6561  0.0459  1.6810
40410SOL    HW238841   5.761   8.277   0.958  2.4114 -0.5009  2.0390
40411SOL     OW38842  12.299   2.495   8.204  0.2602 -0.0214 -0.0590
40411SOL    HW138843  12.365   2.540   8.152  0.8341  0.5541  1.1257
40411SOL    HW238844  12.218   2.544   8.186  0.0727 -0.8602 -1.6798
40412SOL     OW38845   2.422   6.753  12.820  0.1531 -0.2451 -0.8019
40412SOL    HW138846   2.427   6.845  12.843  2.5901 -0.2767 -0.8966
40412SOL    HW238847   2.514   6.727  12.807 -0.5945 -2.1088 -3.0015
40413SOL     OW38848   6.174  13.578   8.905  0.1859 -0.0226 -0.2029
40413SOL    HW138849   6.179  13.622   8.990 -0.0385  0.3308 -0.3696
40413SOL    HW238850   6.081  13.561   8.892  0.1957  0.1149 -0.4719
40414SOL     OW38851   5.411   9.001   4.394  0.0433 -0.1249 -0.0240
40414SOL    HW138852   5.360   8.990   4.314  2.4408 -1.8505 -1.4644
40414SOL    HW238853   5.474   9.071   4.373 -1.3092  1.6644  1.5556
40415SOL     OW38854   7.383   1.955   9.573 -0.5445 -0.0273  0.4259
40415SOL    HW138855   7.402   1.875   9.623  1.4608  0.7602  0.9975
40415SOL    HW238856   7.428   2.025   9.620  1.1531  0.8277 -2.2184
40416SOL     OW38857   2.935   3.747  13.884 -0.0509  0.2349  0.3529
40416SOL    HW138858   2.995   3.673  13.874  0.8552  0.9609  0.2785
40416SOL    HW238859   2.864   3.729  13.822 -0.7511 -1.4362  1.5657
40417SOL     OW38860   9.930   2.280   2.105  0.2394 -0.0912  0.1877
40417SOL    HW138861   9.838   2.300   2.087  0.2394  0.9469  1.2212
40417SOL    HW238862   9.979   2.337   2.046  0.2077  0.2747  0.5035
40418SOL     OW38863  13.176  12.187  13.288 -0.2951  0.0011  0.6561
40418SOL    HW138864  13.219  12.236  13.217  3.0852 -1.0233  1.7815
40418SOL    HW238865  13.177  12.248  13.362 -0.6813 -0.1037  0.7491
40419SOL     OW38866  14.075   9.805   3.751  0.0507 -0.1428  0.3202
40419SOL    HW138867  14.051   9.881   3.699 -0.2503  0.9003  1.9222
40419SOL    HW238868  14.170   9.814   3.765 -0.1640  0.5697  1.4349
40420SOL     OW38869   2.864   4.555   5.024  0.1184 -0.0507 -0.6911
40420SOL    HW138870   2.788   4.520   4.977  0.0686 -2.1066  0.7754
40420SOL    HW238871   2.858   4.517   5.111  1.9321  1.1107  0.0117
40421SOL     OW38872   9.559   3.809  13.214 -0.0057  0.6610  0.4446
40421SOL    HW138873   9.560   3.788  13.307  1.4508  1.2069  0.5780
40421SOL    HW238874   9.510   3.738  13.173  1.4651 -0.9072  1.3235
40422SOL     OW38875   4.117   3.168   4.650  0.2077  0.0572 -0.3570
40422SOL    HW138876   4.142   3.249   4.606  0.7422 -0.6467 -1.4101
40422SOL    HW238877   4.112   3.103   4.579 -1.4843 -0.5562  0.2647
40423SOL     OW38878   2.980   6.071   1.977  0.4402  0.5351  0.4663
40423SOL    HW138879   2.996   6.153   1.930  0.9876  2.5577  3.8183
40423SOL    HW238880   2.935   6.099   2.057  0.2127 -2.5463  1.5260
40424SOL     OW38881  12.211  12.959   9.219  0.3887  0.1182  0.1732
40424SOL    HW138882  12.221  12.962   9.314 -2.5997 -0.7050  0.6230
40424SOL    HW238883  12.172  12.873   9.201 -0.2946  0.7487 -1.6461
40425SOL     OW38884   9.150   7.246   4.858 -0.2885  0.3439 -0.4188
40425SOL    HW138885   9.142   7.291   4.942 -0.3014 -0.3860 -0.0201
40425SOL    HW238886   9.222   7.291   4.813 -1.0029  1.4487 -0.4858
40426SOL     OW38887   5.525   6.715   1.705  0.1853 -0.0946  0.1362
40426SOL    HW138888   5.556   6.764   1.781  1.0460  0.1967 -0.3923
40426SOL    HW238889   5.440   6.680   1.732 -0.0273  0.9233  0.8442
40427SOL     OW38890   1.103   0.264  12.424 -0.1201 -0.0200 -0.2176
40427SOL    HW138891   1.175   0.326  12.432  0.3128 -0.6221  0.7000
40427SOL    HW238892   1.025   0.318  12.412  0.4738  0.6338 -1.2265
40428SOL     OW38893   2.882  12.076   9.366 -0.7652  0.0180 -0.1100
40428SOL    HW138894   2.851  12.013   9.300 -0.2850 -0.3517  0.0175
40428SOL    HW238895   2.880  12.027   9.448 -0.0746  0.0597 -0.0616
40429SOL     OW38896  11.627  11.523   8.226  0.3010 -0.2760 -0.4335
40429SOL    HW138897  11.655  11.555   8.312 -1.2365 -0.8867  0.3344
40429SOL    HW238898  11.622  11.428   8.236 -2.2557 -0.2014 -0.3778
40430SOL     OW38899   6.348   7.439  13.932  0.2502 -0.0233  0.7100
40430SOL    HW138900   6.272   7.412  13.985 -1.1985  0.1387 -1.1938
40430SOL    HW238901   6.322   7.523  13.894  0.5619 -0.8433 -1.4608
40431SOL     OW38902   4.733   9.939   6.086 -0.0799  0.2596  0.2080
40431SOL    HW138903   4.678  10.016   6.078 -1.3823 -0.7367 -0.9615
40431SOL    HW238904   4.674   9.869   6.114  0.1009 -1.2570 -2.7728
40432SOL     OW38905   4.360   8.071  12.179 -0.2308 -0.5729 -0.1708
40432SOL    HW138906   4.399   7.987  12.155 -0.1290 -0.7861  0.7030
40432SOL    HW238907   4.265   8.053  12.182 -0.2144 -0.6393 -0.0476
40433SOL     OW38908   7.931   7.601   1.468 -0.3546 -0.3767  0.4772
40433SOL    HW138909   7.914   7.592   1.375 -4.0671 -1.0606  1.0479
40433SOL    HW238910   7.992   7.531   1.489  0.3243 -0.3739 -1.3465
40434SOL     OW38911   1.542  12.264   9.310  0.3303  0.1523  0.2312
40434SOL    HW138912   1.527  12.300   9.397  1.5210  0.5909  0.2690
40434SOL    HW238913   1.633  12.233   9.312  0.2861 -0.0776 -0.7677
40435SOL     OW38914  12.284   3.167   9.404  0.1230  0.2895  0.3420
40435SOL    HW138915  12.216   3.161   9.337 -2.2011  0.1706  2.5707
40435SOL    HW238916  12.363   3.133   9.361 -1.0769  0.8290 -2.4825
40436SOL     OW38917   1.983  13.589  13.100 -0.5098 -0.1886 -0.8378
40436SOL    HW138918   1.922  13.588  13.026 -0.1118  0.1145 -1.1754
40436SOL    HW238919   1.928  13.582  13.177 -0.9111 -0.8324 -1.1782
40437SOL     OW38920  10.237   7.955   8.067  0.1682 -0.2594 -0.0852
40437SOL    HW138921  10.232   8.048   8.044 -0.2471 -0.2271  0.1276
40437SOL    HW238922  10.255   7.911   7.984 -0.6004 -0.0781 -0.3634
40438SOL     OW38923  11.527   8.147  10.955  0.4125  0.7056 -0.4478
40438SOL    HW138924  11.479   8.066  10.974 -0.0317  1.0782  0.0421
40438SOL    HW238925  11.459   8.214  10.952  0.9648  1.3405  0.8433
40439SOL     OW38926   6.485   3.649   0.925  0.4664  0.0236 -0.6025
40439SOL    HW138927   6.510   3.616   0.839 -0.6734 -3.5699  0.2657
40439SOL    HW238928   6.545   3.607   0.986 -0.6987 -0.0040  0.5750
40440SOL     OW38929   3.504   5.920   8.324 -0.1129 -0.1636 -0.0314
40440SOL    HW138930   3.504   5.997   8.381  1.7936 -0.6954  0.7633
40440SOL    HW238931   3.519   5.955   8.236 -2.8050  0.6408 -0.2673
40441SOL     OW38932  13.862  12.213  11.143  0.4118 -0.0028  0.5854
40441SOL    HW138933  13.804  12.282  11.112  0.6676 -0.2116 -0.4048
40441SOL    HW238934  13.805  12.152  11.189 -0.2552 -0.4702 -0.8173
40442SOL     OW38935   7.971   7.826   3.231 -0.0482 -0.4154 -0.7067
40442SOL    HW138936   7.931   7.766   3.168 -0.3411  1.1959 -2.1213
40442SOL    HW238937   7.897   7.871   3.271  0.2235  0.0039 -0.6785
40443SOL     OW38938   1.862   0.172   2.599 -0.5037 -0.4444  0.3552
40443SOL    HW138939   1.934   0.117   2.629  0.4950  1.2160  1.1419
40443SOL    HW238940   1.813   0.116   2.538 -0.6327 -2.7832  2.4569
40444SOL     OW38941  11.731   2.522  13.611 -0.2944 -0.7139 -0.0060
40444SOL    HW138942  11.696   2.497  13.696  0.1245  1.3150  0.8344
40444SOL    HW238943  11.756   2.614  13.622  1.5795 -0.9564 -1.7486
40445SOL     OW38944   3.121  10.910   8.730  0.1128 -0.1216 -0.2374
40445SOL    HW138945   3.217  10.904   8.739 -0.0892 -1.5193  1.6947
40445SOL    HW238946   3.089  10.826   8.764 -1.8090  0.3480 -0.8023
40446SOL     OW38947   9.504   2.099   1.393  0.1953  0.1735  0.0823
40446SOL    HW138948   9.436   2.139   1.448 -1.2369 -2.5607  0.4790
40446SOL    HW238949   9.460   2.079   1.311  0.2406 -2.2579  0.5858
40447SOL     OW38950   3.325   2.266   8.101  0.6698 -0.0520  0.0675
40447SOL    HW138951   3.385   2.203   8.060  0.5843  0.5358 -1.0119
40447SOL    HW238952   3.382   2.322   8.154  0.9672 -0.0416 -0.2547
40448SOL     OW38953   0.472   4.983   2.579  0.4187  0.1058 -0.3279
40448SOL    HW138954   0.456   4.889   2.580  2.3202 -0.2654  0.6983
40448SOL    HW238955   0.401   5.021   2.630  0.0682 -0.8553 -0.0875
40449SOL     OW38956   2.671   1.418   5.389  0.1607 -0.2100 -0.3970
40449SOL    HW138957   2.604   1.482   5.413  0.6691  0.0888  0.2636
40449SOL    HW238958   2.726   1.410   5.467  1.8366  0.7417 -1.4250
40450SOL     OW38959   2.932   1.047   3.677 -0.1077 -0.2448  0.4031
40450SOL    HW138960   3.018   1.009   3.660  0.3614 -0.1643  2.3442
40450SOL    HW238961   2.926   1.122   3.617  0.5078 -1.1253 -0.8080
40451SOL     OW38962   0.870   9.414   6.736 -0.2674 -0.0438 -0.3583
40451SOL    HW138963   0.907   9.416   6.824 -1.1135  2.1418  0.0132
40451SOL    HW238964   0.946   9.399   6.679  0.1660 -2.3866  0.7317
40452SOL     OW38965   2.513   2.826  12.173 -0.1773  0.5211  0.3771
40452SOL    HW138966   2.571   2.762  12.215 -1.1780  0.2351  1.3900
40452SOL    HW238967   2.504   2.796  12.083  0.9867  0.4017  0.2817
40453SOL     OW38968   6.250  13.701  14.007  0.2189 -0.0257  0.1364
40453SOL    HW138969   6.285  13.615  14.031  0.5203  0.2467  0.6942
40453SOL    HW238970   6.175  13.713  14.064 -0.6546 -0.4920 -0.8742
40454SOL     OW38971  10.169  11.963  14.089  0.7362 -0.1562 -0.2725
40454SOL    HW138972  10.183  12.058  14.086  0.5204 -0.0118  1.7717
40454SOL    HW238973  10.074  11.953  14.078  0.2204  0.2053  2.8166
40455SOL     OW38974   3.656   8.161   1.717  0.0487 -0.4899  0.0388
40455SOL    HW138975   3.612   8.245   1.706  1.2891  0.0401 -1.3030
40455SOL    HW238976   3.588   8.096   1.702 -0.6203  0.2857 -0.4035
40456SOL     OW38977   0.171  12.871  13.242 -0.0535  0.3390 -0.7099
40456SOL    HW138978   0.227  12.947  13.254 -0.5443  0.6218 -0.1511
40456SOL    HW238979   0.095  12.888  13.298  0.4518 -1.1765  0.5354
40457SOL     OW38980   7.590  13.443   9.674  0.7861 -0.5818 -0.1333
40457SOL    HW138981   7.584  13.484   9.588  2.4141 -1.0716 -0.5194
40457SOL    HW238982   7.684  13.441   9.693  0.5257 -1.4391  1.1834
40458SOL     OW38983   1.456   5.699   9.601 -0.0524  0.0431  0.2779
40458SOL    HW138984   1.486   5.759   9.532  0.2351 -0.0333  0.3348
40458SOL    HW238985   1.535   5.676   9.649 -0.4718  1.4455  1.7372
40459SOL     OW38986   9.118  13.699   1.495  0.2010  0.6890  0.0460
40459SOL    HW138987   9.085  13.624   1.446  1.6091  1.0642 -1.5699
40459SOL    HW238988   9.063  13.772   1.466  0.4493  0.7383 -0.3135
40460SOL     OW38989   9.248   8.117  12.841 -0.5572 -0.6485  0.0257
40460SOL    HW138990   9.162   8.123  12.881 -0.7433  1.0374 -0.5710
40460SOL    HW238991   9.244   8.037  12.788 -1.8562 -0.4366 -0.2295
40461SOL     OW38992   3.331  14.063  12.938  0.8733  0.5966 -0.0249
40461SOL    HW138993   3.373  14.106  12.864  3.8042 -0.7518  0.7180
40461SOL    HW238994   3.372  14.101  13.015 -1.5210  1.3591  0.9826
40462SOL     OW38995   2.323   2.144   5.741  0.2384 -0.8961 -0.3445
40462SOL    HW138996   2.242   2.119   5.697 -0.8966  1.7128  0.0846
40462SOL    HW238997   2.298   2.152   5.833  0.9033  0.1146 -0.2338
40463SOL     OW38998  12.218  12.775   6.376 -0.2197  0.3805 -0.2083
40463SOL    HW138999  12.219  12.693   6.425  1.9231  0.1492 -0.5329
40463SOL    HW239000  12.256  12.753   6.291  1.3148  1.8553  0.0368
40464SOL     OW39001   1.696  12.451   5.057  0.1749 -0.2738  0.4224
40464SOL    HW139002   1.735  12.536   5.037 -0.4981 -0.0487  0.0658
40464SOL    HW239003   1.700  12.445   5.152  0.9901 -0.2132  0.4009
40465SOL     OW39004   0.413   3.909   8.518  0.2362  0.2621 -0.1468
40465SOL    HW139005   0.383   3.819   8.529  0.3272  0.3298  0.7239
40465SOL    HW239006   0.370   3.939   8.438  0.0270 -0.4791 -0.3191
40466SOL     OW39007   2.227   5.494  10.077 -0.1080 -0.2570 -0.1296
40466SOL    HW139008   2.290   5.529  10.014  0.2880  1.3218  1.0833
40466SOL    HW239009   2.227   5.399  10.060  1.0425 -0.0530 -1.5209
40467SOL     OW39010   5.216   2.770   6.729 -0.4713 -0.6016 -0.3424
40467SOL    HW139011   5.257   2.764   6.815 -2.2879  0.2437  0.6215
40467SOL    HW239012   5.290   2.763   6.667  1.3017  1.8245  1.3066
40468SOL     OW39013  10.628   0.129   1.824  0.4083 -0.1388  0.1160
40468SOL    HW139014  10.714   0.136   1.783 -0.0032 -0.2265 -0.7841
40468SOL    HW239015  10.580   0.067   1.769 -0.9611  1.5736 -0.7102
40469SOL     OW39016   3.516   6.814   3.598 -0.4094 -0.2460 -0.3787
40469SOL    HW139017   3.426   6.811   3.632 -0.3137 -1.3578 -0.1820
40469SOL    HW239018   3.555   6.731   3.626  0.9116  0.5236  0.1467
40470SOL     OW39019  13.123   4.965   3.942  0.6706  0.2646  0.3087
40470SOL    HW139020  13.190   5.018   3.985  1.0612 -0.1283  0.1883
40470SOL    HW239021  13.130   4.988   3.850  0.2168  0.6821  0.3716
40471SOL     OW39022   5.735   3.869   2.992  0.2278 -0.1040 -0.7663
40471SOL    HW139023   5.815   3.853   2.943  0.0490 -0.0252 -1.0832
40471SOL    HW239024   5.756   3.841   3.082  0.7473  0.3241 -0.7500
40472SOL     OW39025   3.063  11.263   2.425 -0.3490 -0.5996 -0.8105
40472SOL    HW139026   2.975  11.301   2.419 -1.2150 -2.0357  1.6734
40472SOL    HW239027   3.077  11.222   2.339 -1.6287  0.5624 -1.6160
40473SOL     OW39028  13.583  12.622   9.822  0.3014 -0.4776 -0.1306
40473SOL    HW139029  13.489  12.638   9.815  0.0529 -1.5217  0.6140
40473SOL    HW239030  13.606  12.648   9.911  0.7057 -0.3132 -0.2778
40474SOL     OW39031  11.166  11.385   4.593 -0.0278 -0.6255 -0.0363
40474SOL    HW139032  11.122  11.438   4.526  0.7686 -1.8604 -1.6120
40474SOL    HW239033  11.137  11.423   4.676 -1.6877  0.4748 -1.0479
40475SOL     OW39034   5.693  12.058  11.939  0.3087  0.1356  0.0861
40475SOL    HW139035   5.598  12.051  11.930  0.2954  0.9200 -0.5179
40475SOL    HW239036   5.721  12.109  11.863  1.0605  0.9729  0.8963
40476SOL     OW39037   8.525   2.904   8.639  0.9221  0.4419  0.1612
40476SOL    HW139038   8.571   2.833   8.594 -1.6676 -0.7626 -0.7600
40476SOL    HW239039   8.472   2.945   8.571 -1.1709  0.2093  1.5677
40477SOL     OW39040   9.987   0.819   9.940 -0.6664 -0.6177 -0.3881
40477SOL    HW139041  10.018   0.729   9.934  0.1990 -0.2596 -2.3096
40477SOL    HW239042   9.945   0.825  10.025 -1.1848 -2.9638 -0.4095
40478SOL     OW39043  11.404   8.404  12.902  0.3959 -0.2595 -0.6325
40478SOL    HW139044  11.312   8.378  12.913  0.7337 -1.2803 -0.0681
40478SOL    HW239045  11.450   8.358  12.972  1.6313 -1.3027 -2.0569
40479SOL     OW39046   3.067   2.112   5.100  0.8938 -0.4177  0.0874
40479SOL    HW139047   3.037   2.159   5.022 -0.4303 -0.2897  0.6454
40479SOL    HW239048   3.158   2.088   5.080  0.4326 -0.8403 -1.6967
40480SOL     OW39049   3.832   4.173   0.633  0.4449 -0.2600  0.0078
40480SOL    HW139050   3.811   4.140   0.721  0.6727 -1.3022 -0.3069
40480SOL    HW239051   3.770   4.127   0.576  0.0810  0.6590 -0.3463
40481SOL     OW39052   7.601  13.513   7.373  0.1830 -0.0312 -0.1353
40481SOL    HW139053   7.588  13.448   7.441  0.4223 -0.0391 -0.0998
40481SOL    HW239054   7.563  13.593   7.409 -1.1570 -0.4172 -0.6261
40482SOL     OW39055   9.112  10.651  13.179  0.6211  0.0345 -0.4325
40482SOL    HW139056   9.196  10.696  13.194  0.5407 -0.1898  0.7137
40482SOL    HW239057   9.046  10.709  13.216  0.4216 -0.5472  0.1365
40483SOL     OW39058   5.125   4.019   0.123  0.1890  0.3002 -0.1058
40483SOL    HW139059   5.042   3.983   0.093  0.7737 -0.2887 -1.0411
40483SOL    HW239060   5.164   3.950   0.177  1.4065 -0.6274 -2.0688
40484SOL     OW39061  10.868  14.045  12.297 -0.4714  0.1971 -0.0477
40484SOL    HW139062  10.917  14.028  12.216 -0.1091  0.9262  0.0176
40484SOL    HW239063  10.932  14.082  12.357 -1.1716  1.5958 -0.1118
40485SOL     OW39064   2.220   7.037   0.375  0.3359 -0.3483 -0.1202
40485SOL    HW139065   2.176   7.023   0.291  0.0252  0.6824 -0.1425
40485SOL    HW239066   2.154   7.080   0.429  1.1675  0.8457 -0.0196
40486SOL     OW39067   3.986   2.207  12.820 -0.6637  0.4462  0.2382
40486SOL    HW139068   3.947   2.245  12.898 -0.7938  0.8897 -0.0408
40486SOL    HW239069   3.914   2.157  12.780 -0.6278  0.3129  0.3391
40487SOL     OW39070   1.173   5.199   4.860  0.0777  0.2320  0.3682
40487SOL    HW139071   1.082   5.172   4.858  0.4388 -1.0622  0.7513
40487SOL    HW239072   1.193   5.213   4.953  0.7602 -1.3089  0.4845
40488SOL     OW39073   5.490   8.923   0.428 -0.3051  0.3698 -0.0343
40488SOL    HW139074   5.467   8.989   0.494  1.1651  1.3468 -0.4469
40488SOL    HW239075   5.492   8.970   0.345 -0.4008 -0.4602 -0.5249
40489SOL     OW39076   7.483   3.671  13.528 -0.5135 -0.3116  0.4268
40489SOL    HW139077   7.418   3.731  13.491 -0.9229 -0.9008  0.1605
40489SOL    HW239078   7.567   3.704  13.497 -0.6262  0.8131  1.2723
40490SOL     OW39079   8.932  10.646  10.663 -1.1643 -0.1553 -0.3188
40490SOL    HW139080   8.969  10.628  10.750 -0.8936 -0.6723 -0.5398
40490SOL    HW239081   8.985  10.718  10.629 -1.2462  0.0236 -0.0761
40491SOL     OW39082   5.053   9.709   6.962  0.0259  0.1313  0.0886
40491SOL    HW139083   5.097   9.790   6.936  0.2634 -0.5290 -1.7281
40491SOL    HW239084   5.118   9.641   6.946 -0.4034 -0.5018  0.9761
40492SOL     OW39085   0.207   6.215   8.579 -0.0911  0.4162  0.0142
40492SOL    HW139086   0.285   6.230   8.525 -0.3794  2.0962  0.0251
40492SOL    HW239087   0.149   6.163   8.523  1.6295 -2.2905  0.5813
40493SOL     OW39088  10.935   5.151   7.476  0.7586 -0.1612  0.3733
40493SOL    HW139089  10.899   5.062   7.470  0.3177 -0.0496  1.2198
40493SOL    HW239090  10.863   5.204   7.510  0.8168  0.6619 -0.7290
40494SOL     OW39091   4.279   4.211   9.538  0.0573 -0.6374  1.0266
40494SOL    HW139092   4.272   4.305   9.523  2.4797 -0.8650 -3.2793
40494SOL    HW239093   4.344   4.202   9.607 -0.1316  0.8142  1.4301
40495SOL     OW39094   5.409   1.684  13.119 -0.0890 -0.1424 -0.3288
40495SOL    HW139095   5.491   1.635  13.121 -0.4897 -0.7968  0.4071
40495SOL    HW239096   5.393   1.707  13.210  0.2677  1.6900 -0.6786
40496SOL     OW39097   5.332  12.747   4.659  0.1879 -0.1138  0.1840
40496SOL    HW139098   5.250  12.793   4.643  0.2585 -0.3276 -0.8375
40496SOL    HW239099   5.311  12.655   4.645  0.8609 -0.0739 -1.2878
40497SOL     OW39100   1.376   9.516   8.019 -0.0095 -0.2310  0.6535
40497SOL    HW139101   1.319   9.498   8.093 -1.3188 -0.1345 -0.2939
40497SOL    HW239102   1.378   9.612   8.013 -2.7809 -0.1893 -1.4854
40498SOL     OW39103   0.704   0.523   7.403 -0.2150  0.3515  0.1274
40498SOL    HW139104   0.726   0.454   7.466 -1.1684 -0.4397 -0.3798
40498SOL    HW239105   0.650   0.585   7.452  1.4165  1.2814  0.8455
40499SOL     OW39106  10.570  12.548   3.632 -0.8930 -0.5226  0.0361
40499SOL    HW139107  10.596  12.613   3.698  0.3945  0.5330 -1.4453
40499SOL    HW239108  10.607  12.466   3.663  1.8107  0.4020 -0.5120
40500SOL     OW39109  13.240   7.492   6.352  0.0120  0.1137 -0.2923
40500SOL    HW139110  13.287   7.542   6.419  0.6615 -1.5597  0.5632
40500SOL    HW239111  13.197   7.558   6.298  1.8431  1.6368  0.0244
40501SOL     OW39112   7.927  11.481  12.374  0.0063  0.0571  0.7898
40501SOL    HW139113   7.971  11.522  12.448  1.0950 -0.6496  0.5729
40501SOL    HW239114   7.998  11.441  12.324 -0.6963  0.5003 -0.6331
40502SOL     OW39115   6.018   0.707   9.392 -0.1402 -0.0032 -0.0103
40502SOL    HW139116   5.966   0.686   9.314  0.6514 -1.5916 -0.1518
40502SOL    HW239117   6.103   0.735   9.357 -0.1751  0.4383  0.2579
40503SOL     OW39118  13.366  12.917   1.003 -0.4114  0.5090 -0.6017
40503SOL    HW139119  13.448  12.932   0.955  1.0685  0.0879  1.6466
40503SOL    HW239120  13.342  12.827   0.983  0.8694 -0.0743  0.3312
40504SOL     OW39121   6.593   0.252   5.288  0.4298 -0.4884  0.2197
40504SOL    HW139122   6.552   0.165   5.284  1.3049 -0.8625 -1.2525
40504SOL    HW239123   6.523   0.310   5.319 -0.7274 -1.3887 -0.6212
40505SOL     OW39124   2.868  11.940   7.079  0.5581 -0.1194 -0.6201
40505SOL    HW139125   2.949  11.910   7.121  1.4614  0.5048 -1.8376
40505SOL    HW239126   2.888  12.029   7.052 -0.6931  0.1741 -0.6014
40506SOL     OW39127  13.625  11.362   5.901  0.2344  0.4573  0.5316
40506SOL    HW139128  13.705  11.341   5.948  0.0506  0.7399  0.9774
40506SOL    HW239129  13.634  11.318   5.817  1.4554  1.6006  0.0411
40507SOL     OW39130   6.633   8.135   6.900  0.0807 -0.5625 -0.0637
40507SOL    HW139131   6.642   8.204   6.966 -1.2738 -1.5123  1.1662
40507SOL    HW239132   6.555   8.160   6.851 -1.2795 -1.9000  1.3175
40508SOL     OW39133   6.142   6.820   1.928 -0.1053 -0.9148  0.0793
40508SOL    HW139134   6.137   6.735   1.885 -1.3052 -0.4390 -0.7900
40508SOL    HW239135   6.231   6.825   1.962  0.2272 -2.1780 -0.5502
40509SOL     OW39136   2.810  12.945  10.712  0.6503  0.3215  0.4053
40509SOL    HW139137   2.763  12.941  10.796  0.7174  1.0222  0.4824
40509SOL    HW239138   2.753  12.900  10.650  1.3465 -1.7285  1.1571
40510SOL     OW39139   2.523   9.472   3.551  0.0982 -0.4092 -0.1037
40510SOL    HW139140   2.543   9.525   3.629  0.6636 -1.5316  0.5434
40510SOL    HW239141   2.605   9.472   3.501 -0.3385  0.5197 -0.8576
40511SOL     OW39142   2.548   2.992   4.387  0.3301  0.5590 -0.1945
40511SOL    HW139143   2.570   3.083   4.365  1.0455  0.4667  0.0851
40511SOL    HW239144   2.554   2.988   4.482 -0.5347  0.4142 -0.1385
40512SOL     OW39145   2.492   0.850   2.256 -0.0369 -0.2083 -0.0921
40512SOL    HW139146   2.437   0.921   2.289 -1.4432 -1.0906 -0.4690
40512SOL    HW239147   2.573   0.857   2.307 -0.7326  0.7370  0.9183
40513SOL     OW39148  13.800  10.301   8.233 -0.2631 -0.1025  0.4259
40513SOL    HW139149  13.879  10.316   8.180 -0.2877  0.6440  0.6022
40513SOL    HW239150  13.795  10.376   8.291 -0.6540 -0.5551  0.9897
40514SOL     OW39151   6.528   1.068   3.536 -0.3554 -0.6173 -0.1095
40514SOL    HW139152   6.482   0.985   3.546  0.3789 -0.8347  1.8785
40514SOL    HW239153   6.586   1.055   3.460  0.4919 -2.2959  0.7757
40515SOL     OW39154   0.381  10.309   1.380  0.0825 -0.3618  0.6937
40515SOL    HW139155   0.406  10.258   1.303  0.3986  1.9825 -0.8624
40515SOL    HW239156   0.287  10.294   1.390  0.4133 -2.3499  1.2129
40516SOL     OW39157   8.459  12.911   3.127  0.6916  0.3142 -0.0734
40516SOL    HW139158   8.525  12.928   3.194  0.4926 -1.5057  0.6449
40516SOL    HW239159   8.413  12.832   3.158 -0.3309  0.2375 -1.6608
40517SOL     OW39160   6.956   1.725   4.109  0.2377  0.0965 -0.1380
40517SOL    HW139161   7.013   1.784   4.158  0.9307  0.1933 -1.0312
40517SOL    HW239162   6.993   1.638   4.125 -1.3800 -0.2797  2.0067
40518SOL     OW39163   5.176   7.196   9.814 -0.2783  0.2317 -0.1240
40518SOL    HW139164   5.120   7.214   9.738  1.3083  1.9786 -0.9759
40518SOL    HW239165   5.246   7.140   9.779 -0.1052  0.1791  0.3060
40519SOL     OW39166   6.782   1.919   8.615 -0.3738  0.7557  0.0075
40519SOL    HW139167   6.747   1.831   8.612 -1.0441  1.0230 -0.1383
40519SOL    HW239168   6.833   1.928   8.535 -0.8696  0.7350 -0.3107
40520SOL     OW39169  10.564  10.613   7.099 -0.4306 -0.1971  0.1498
40520SOL    HW139170  10.636  10.630   7.038  0.5248 -0.2320  1.2269
40520SOL    HW239171  10.528  10.529   7.071  0.8274 -0.8384  0.3681
40521SOL     OW39172   3.391  10.421   9.580 -0.6067  0.5508 -0.2291
40521SOL    HW139173   3.371  10.448   9.670  0.4578  2.5422 -0.5372
40521SOL    HW239174   3.314  10.446   9.530 -0.8613  0.2125 -0.0083
40522SOL     OW39175   7.648   1.728   9.422 -0.0890 -0.2892 -0.3806
40522SOL    HW139176   7.654   1.743   9.328  0.3508 -0.7135 -0.4280
40522SOL    HW239177   7.720   1.667   9.441  0.7350  0.9047  0.4569
40523SOL     OW39178   3.354  10.411   6.471 -0.1083 -0.0904 -0.5352
40523SOL    HW139179   3.375  10.363   6.391  2.0526  0.5966 -0.4655
40523SOL    HW239180   3.260  10.428   6.466 -0.4401 -1.9921 -1.8149
40524SOL     OW39181   7.458   2.011  11.595  0.7757  0.6742  0.6013
40524SOL    HW139182   7.370   2.009  11.632  1.1117 -0.0691  1.4191
40524SOL    HW239183   7.501   1.935  11.634  0.9497 -0.6147 -1.9083
40525SOL     OW39184   4.067   3.300   0.194  0.1871 -0.3880 -0.6031
40525SOL    HW139185   4.011   3.310   0.270 -0.4293 -0.6605 -1.0114
40525SOL    HW239186   4.104   3.387   0.179 -2.3952  0.5553 -2.0552
40526SOL     OW39187   6.611   3.389   5.090 -0.0118  0.3206 -0.0286
40526SOL    HW139188   6.594   3.329   5.018 -1.0434  1.1384 -0.4949
40526SOL    HW239189   6.671   3.454   5.053 -1.1219  1.1644 -0.4149
40527SOL     OW39190   4.839   8.879  11.925 -0.3762  0.1772  0.1613
40527SOL    HW139191   4.794   8.796  11.938 -0.4658  0.0990 -0.6448
40527SOL    HW239192   4.769   8.944  11.917 -0.3780  0.0024 -1.4678
40528SOL     OW39193   1.165   5.408   5.598 -0.6897  0.4681  0.6879
40528SOL    HW139194   1.080   5.411   5.555 -0.2138  1.0527 -0.2477
40528SOL    HW239195   1.176   5.316   5.623 -0.5436 -0.1280 -1.4001
40529SOL     OW39196   3.883   2.832  12.301 -0.1666  0.6913  0.5743
40529SOL    HW139197   3.812   2.893  12.282  0.2462  1.2453  0.7744
40529SOL    HW239198   3.844   2.745  12.292 -0.9396  0.9922  0.9699
40530SOL     OW39199   2.082  14.057   1.687  0.0131  0.3876  0.5011
40530SOL    HW139200   2.164  14.106   1.696  0.7526 -0.5836 -0.6659
40530SOL    HW239201   2.027  14.089   1.759  1.2565  1.3541  1.0596
40531SOL     OW39202  10.865   9.740   0.676 -0.0573 -0.1837  0.5287
40531SOL    HW139203  10.790   9.793   0.703 -0.1922  0.0125 -0.1895
40531SOL    HW239204  10.827   9.658   0.645  0.0529 -0.2339  0.5243
40532SOL     OW39205  10.483  10.700   3.094 -0.1228 -0.1587 -0.0710
40532SOL    HW139206  10.502  10.769   3.158 -1.7847 -0.4750  0.8168
40532SOL    HW239207  10.392  10.715   3.070 -0.6929 -2.3670  0.5392
40533SOL     OW39208   3.212  13.811   1.795  0.1206  0.3868 -0.1347
40533SOL    HW139209   3.242  13.720   1.787 -0.1239  0.4175 -1.7294
40533SOL    HW239210   3.117  13.805   1.794  0.0960  0.5986  0.6926
40534SOL     OW39211   6.423   4.934   4.543 -0.7187  0.5986  0.1967
40534SOL    HW139212   6.372   4.994   4.596 -1.5196  1.1447 -1.1553
40534SOL    HW239213   6.366   4.858   4.532 -0.1104 -0.0020  1.0336
40535SOL     OW39214   9.726   1.649   1.304 -0.1075 -0.0905  0.0572
40535SOL    HW139215   9.725   1.641   1.209  0.3776 -0.9966  0.1198
40535SOL    HW239216   9.635   1.667   1.328 -0.5220 -1.3861 -0.4576
40536SOL     OW39217   1.606   9.621   8.504  0.9082  0.1349 -0.5654
40536SOL    HW139218   1.687   9.569   8.505  1.1790  0.5265  1.1644
40536SOL    HW239219   1.634   9.709   8.482  0.6042 -0.1602 -2.2966
40537SOL     OW39220   7.270  12.750   1.570 -0.2055 -0.2514  0.0872
40537SOL    HW139221   7.349  12.803   1.563  0.1027 -0.6889  0.2598
40537SOL    HW239222   7.301  12.662   1.588 -0.6405 -0.8298 -1.7914
40538SOL     OW39223   7.327   1.287   8.437 -0.4558  0.1604 -0.1061
40538SOL    HW139224   7.406   1.337   8.414 -0.2970  0.5244  1.1818
40538SOL    HW239225   7.360   1.201   8.465 -0.4800  0.4729  0.8859
40539SOL     OW39226   9.977   6.988   0.921  0.0780 -0.2841 -0.3180
40539SOL    HW139227   9.981   7.009   1.014 -0.8348 -0.0720 -0.3106
40539SOL    HW239228   9.896   6.937   0.912  0.1644 -0.3121 -0.9894
40540SOL     OW39229   6.989  12.360   5.999  0.4873 -0.5858 -0.4880
40540SOL    HW139230   6.953  12.275   6.026 -0.1860  0.0200  0.6037
40540SOL    HW239231   7.035  12.392   6.077  1.6084 -0.3943 -1.2112
40541SOL     OW39232   1.815   2.879   7.141 -0.8321 -0.5958  0.3894
40541SOL    HW139233   1.867   2.908   7.065  1.2915 -1.6101  1.3896
40541SOL    HW239234   1.814   2.784   7.134  0.3588 -0.7766  2.1983
40542SOL     OW39235   8.523  12.779   9.205  0.1198 -0.5502  0.3071
40542SOL    HW139236   8.543  12.788   9.298  0.9627  0.3178  0.0495
40542SOL    HW239237   8.609  12.774   9.163 -0.2258  0.4935 -0.5571
40543SOL     OW39238  11.586   4.192   3.469 -0.2077  1.1919 -0.4876
40543SOL    HW139239  11.527   4.199   3.394  0.8945 -0.2064 -1.5433
40543SOL    HW239240  11.581   4.100   3.496  0.4417  1.3701  0.3008
40544SOL     OW39241  10.427   7.736   1.330  0.1079  0.2162 -0.3205
40544SOL    HW139242  10.454   7.688   1.409 -0.2441 -0.5501 -0.6612
40544SOL    HW239243  10.465   7.686   1.258  0.0477  0.6627 -0.6609
40545SOL     OW39244   7.531   4.227   2.934 -0.8234 -0.5325  0.4673
40545SOL    HW139245   7.466   4.261   2.873 -0.1693 -1.0533 -0.5503
40545SOL    HW239246   7.551   4.301   2.992 -1.1343  0.1061 -0.2250
40546SOL     OW39247  12.621   3.883   8.943  0.7738  0.1267  0.5358
40546SOL    HW139248  12.552   3.825   8.909  0.2063  1.3783 -0.5463
40546SOL    HW239249  12.601   3.892   9.036 -1.4976  1.6674 -0.0165
40547SOL     OW39250  11.442   2.346   0.794 -0.5597  0.2021 -0.5045
40547SOL    HW139251  11.482   2.430   0.771 -0.2617 -0.4932 -2.8445
40547SOL    HW239252  11.515   2.283   0.793 -1.0040 -0.3316 -0.2540
40548SOL     OW39253  10.019   7.754  12.580 -0.3855 -0.0688 -0.0903
40548SOL    HW139254  10.001   7.749  12.674  0.9953  2.1247  0.3769
40548SOL    HW239255  10.044   7.665  12.555 -2.9614 -1.2148  1.0749
40549SOL     OW39256  11.064   8.392   1.014 -0.0690 -0.1317 -0.9133
40549SOL    HW139257  11.136   8.373   0.955  1.9173 -2.0838  1.8978
40549SOL    HW239258  11.035   8.306   1.046 -1.1215  0.8024  0.8375
40550SOL     OW39259  13.672  12.664  11.597  0.3342  0.1130 -0.0263
40550SOL    HW139260  13.717  12.733  11.645 -1.1963 -0.6092  2.6816
40550SOL    HW239261  13.587  12.702  11.574  0.3744 -0.1413 -0.6279
40551SOL     OW39262   3.556  12.095   9.681 -0.8357  0.0847  0.5801
40551SOL    HW139263   3.541  12.181   9.721 -0.4101  0.0523  0.8194
40551SOL    HW239264   3.490  12.038   9.721 -1.0854  0.2932  0.4584
40552SOL     OW39265   5.767   6.263   3.130  1.3652  0.1786  0.5196
40552SOL    HW139266   5.803   6.325   3.193  0.3487  1.3794 -0.0363
40552SOL    HW239267   5.674   6.259   3.150  1.2561 -0.4632 -0.0559
40553SOL     OW39268   4.879  13.804  12.411 -0.2493  0.1074  0.3846
40553SOL    HW139269   4.871  13.894  12.378 -1.7766  0.2938  1.1697
40553SOL    HW239270   4.885  13.814  12.506  0.0190 -0.6051  0.4498
40554SOL     OW39271   5.636   8.950  10.014  0.4459  0.3771  0.2795
40554SOL    HW139272   5.719   8.998  10.015  0.0861  1.0080  0.5699
40554SOL    HW239273   5.637   8.903   9.931  0.8724  0.7794  0.0491
40555SOL     OW39274  11.763   6.450  12.390  0.4063  0.1733 -0.1661
40555SOL    HW139275  11.812   6.529  12.368  0.4796 -0.1723 -1.3057
40555SOL    HW239276  11.823   6.399  12.445  0.6513  0.5475 -0.0814
40556SOL     OW39277  10.715   4.404   9.122 -0.5441  0.1965  0.4821
40556SOL    HW139278  10.718   4.479   9.182 -1.3025 -0.0850  0.8922
40556SOL    HW239279  10.729   4.328   9.179 -0.4335 -0.0162  0.1702
40557SOL     OW39280   3.366   9.520   5.875 -0.2449 -0.3506 -0.0463
40557SOL    HW139281   3.313   9.443   5.896  1.8250 -1.6470  0.6464
40557SOL    HW239282   3.415   9.496   5.797  0.4311  0.2440  0.1838
40558SOL     OW39283  12.651   8.508   0.326 -0.5452  0.5153  0.4212
40558SOL    HW139284  12.712   8.566   0.281  0.5417 -1.0970 -0.2729
40558SOL    HW239285  12.601   8.566   0.383 -1.3672  2.5139 -2.1621
40559SOL     OW39286   7.085  12.382   0.790  0.3315  0.1797  0.3390
40559SOL    HW139287   7.102  12.449   0.856  0.2430  1.4896 -0.9292
40559SOL    HW239288   7.149  12.398   0.721 -0.1941 -0.5519 -0.3439
40560SOL     OW39289   0.536   5.088  13.184 -0.5559  0.1674 -0.7240
40560SOL    HW139290   0.573   5.147  13.249 -1.4949  0.7465 -0.7007
40560SOL    HW239291   0.487   5.023  13.234  0.1072 -0.3854 -0.7749
40561SOL     OW39292   0.244   1.725  10.015 -0.1415 -0.4031 -0.7159
40561SOL    HW139293   0.175   1.784  10.046  0.5253 -0.0359  0.1386
40561SOL    HW239294   0.324   1.758  10.056  0.2531 -1.9281 -0.1602
40562SOL     OW39295  12.271   2.060   2.775 -0.1105 -0.8522 -0.4786
40562SOL    HW139296  12.322   2.138   2.752 -1.8103 -0.0333 -1.7706
40562SOL    HW239297  12.242   2.025   2.691 -1.3122 -1.5122  0.1849
40563SOL     OW39298   6.017  11.049  13.418  0.0170  0.1413  0.5492
40563SOL    HW139299   6.057  11.129  13.452 -0.3910  0.4989  0.1927
40563SOL    HW239300   6.051  10.979  13.475  2.4338  0.1927 -0.7051
40564SOL     OW39301   0.314  13.906   6.351  0.1437 -0.5389  0.1107
40564SOL    HW139302   0.384  13.970   6.333  0.2311 -1.4890 -3.5739
40564SOL    HW239303   0.254  13.914   6.278 -2.2603 -1.6620  1.8275
40565SOL     OW39304  13.404   2.315   6.907 -0.0581  0.1314  0.0510
40565SOL    HW139305  13.344   2.295   6.978 -0.3091  1.5103  0.2479
40565SOL    HW239306  13.488   2.278   6.936 -0.1469  0.7060  1.0895
40566SOL     OW39307   8.030  12.017   2.859  0.1252 -0.2206 -0.2807
40566SOL    HW139308   8.110  11.981   2.820  0.1352  0.5957 -1.0488
40566SOL    HW239309   7.970  11.943   2.863  1.7175 -1.5311  2.7292
40567SOL     OW39310   1.234  11.493  13.267  0.0099 -0.1156 -0.0646
40567SOL    HW139311   1.328  11.477  13.272 -0.2184 -2.1428 -1.1182
40567SOL    HW239312   1.195  11.422  13.318 -0.9647  0.4734  0.0339
40568SOL     OW39313  13.341  13.625  13.906 -0.3185 -0.2332  0.2917
40568SOL    HW139314  13.256  13.581  13.909 -0.1408 -0.6721 -0.8688
40568SOL    HW239315  13.399  13.567  13.955 -0.5292 -0.2551  0.5231
40569SOL     OW39316  13.994  12.255   5.087  0.1149 -0.0738 -0.3422
40569SOL    HW139317  14.064  12.246   5.152  0.7696 -0.1053 -1.0414
40569SOL    HW239318  13.914  12.259   5.139  0.6474  0.1540  0.4825
40570SOL     OW39319  13.214  12.040   9.900  0.0623  0.1095 -0.2473
40570SOL    HW139320  13.261  12.040   9.983  1.0468  0.7380 -0.7753
40570SOL    HW239321  13.283  12.038   9.833 -0.6707  0.6905 -1.0532
40571SOL     OW39322   0.369  12.747   4.577  0.4786  0.4687  0.1637
40571SOL    HW139323   0.464  12.743   4.586  0.5125 -1.5596 -0.5894
40571SOL    HW239324   0.353  12.741   4.483 -0.4014  1.6745  0.1991
40572SOL     OW39325  11.004   5.650  11.205 -0.1067 -0.1446 -0.5823
40572SOL    HW139326  11.067   5.588  11.167  2.1563  1.6817 -0.0677
40572SOL    HW239327  10.981   5.613  11.289 -0.2715 -1.1858 -1.0706
40573SOL     OW39328   1.248  12.841   3.591  0.0211 -0.4423 -0.7947
40573SOL    HW139329   1.203  12.917   3.629  2.2721  0.1041  1.0319
40573SOL    HW239330   1.259  12.780   3.664 -0.2164 -1.7830 -1.8425
40574SOL     OW39331   1.510   3.281   6.700  0.4576  0.2043  0.2189
40574SOL    HW139332   1.478   3.353   6.646  1.9032 -0.4485 -1.6058
40574SOL    HW239333   1.504   3.203   6.644  1.3103 -0.6442  1.2515
40575SOL     OW39334   4.825  11.163   1.257 -0.4265 -0.1142  0.5606
40575SOL    HW139335   4.817  11.143   1.350 -1.3130 -0.5846  0.3985
40575SOL    HW239336   4.793  11.084   1.213  0.4716 -0.0900 -0.1494
40576SOL     OW39337  10.707   5.262   4.888  0.0398  0.1131  0.5529
40576SOL    HW139338  10.743   5.317   4.958  0.7004  0.8328 -0.3441
40576SOL    HW239339  10.695   5.177   4.930  1.0301  0.3562  1.3916
40577SOL     OW39340   2.919   0.736   2.008 -0.1487 -0.2118  0.2674
40577SOL    HW139341   2.877   0.763   1.927  1.5001  1.3754 -0.0975
40577SOL    HW239342   2.856   0.676   2.048 -1.7207  0.2757 -1.3557
40578SOL     OW39343  13.991  13.792   3.705 -0.1492  0.3999  0.6672
40578SOL    HW139344  13.971  13.762   3.794 -0.1566 -0.0059  0.5289
40578SOL    HW239345  14.086  13.790   3.700 -0.1282  0.8764  0.8204
40579SOL     OW39346   2.863   3.402  11.399 -0.2730  0.5573 -0.2031
40579SOL    HW139347   2.896   3.469  11.458  0.2308  0.8564 -0.8136
40579SOL    HW239348   2.768   3.413  11.401 -0.4208 -0.5475  1.8507
40580SOL     OW39349  12.011   1.602  11.981 -0.3227 -0.1332  0.3899
40580SOL    HW139350  12.058   1.533  12.027  0.8989  0.1579 -0.3780
40580SOL    HW239351  12.080   1.663  11.953 -1.3032  1.0525  0.4737
40581SOL     OW39352   9.391   4.736   0.545 -0.2007  0.2949  0.0460
40581SOL    HW139353   9.299   4.760   0.550  0.1921  2.2266 -0.7176
40581SOL    HW239354   9.394   4.644   0.569 -2.2526  0.3240  0.5948
40582SOL     OW39355   8.169  13.372   7.473  0.3869  0.2160 -0.0236
40582SOL    HW139356   8.256  13.356   7.509  1.0846 -1.9084 -2.3916
40582SOL    HW239357   8.132  13.284   7.460 -0.5896  0.9002 -2.4549
40583SOL     OW39358   7.647  12.149   6.949 -0.5977 -0.5757  0.8391
40583SOL    HW139359   7.677  12.062   6.976 -0.5247 -0.7249  0.2800
40583SOL    HW239360   7.567  12.164   6.999 -0.9302 -1.2083  0.5024
40584SOL     OW39361  11.123   6.584  10.891  0.6941  0.3224  1.0979
40584SOL    HW139362  11.127   6.605  10.984  0.8027 -1.9856  1.6642
40584SOL    HW239363  11.115   6.489  10.888 -0.6881  0.4311 -1.2325
40585SOL     OW39364  10.264  11.733  11.767 -0.2220  0.4092 -0.4736
40585SOL    HW139365  10.198  11.802  11.772 -0.0473  0.5658 -0.3070
40585SOL    HW239366  10.214  11.652  11.761 -0.4745  0.3255  1.8556
40586SOL     OW39367   5.543   2.075   8.002 -0.2212 -0.2074  0.4355
40586SOL    HW139368   5.561   2.006   7.938 -0.3236  0.8566 -0.7751
40586SOL    HW239369   5.512   2.027   8.080 -0.4326 -1.5145 -0.4102
40587SOL     OW39370   9.464   1.930   9.771  0.3262 -0.4483 -0.7539
40587SOL    HW139371   9.456   1.837   9.750 -0.8819 -0.4848 -0.2071
40587SOL    HW239372   9.554   1.939   9.803  1.0834 -1.0410 -2.5883
40588SOL     OW39373   4.566  10.296  12.020 -0.1735 -0.2261  0.5010
40588SOL    HW139374   4.645  10.268  12.068 -0.0042  0.2854  0.5294
40588SOL    HW239375   4.576  10.391  12.012 -0.5214 -0.2298  0.0173
40589SOL     OW39376   0.640   3.220   0.308  0.1698  0.3040 -0.3914
40589SOL    HW139377   0.704   3.174   0.363  0.2740 -1.0218 -1.5483
40589SOL    HW239378   0.557   3.173   0.325  0.2569 -0.2876 -1.5180
40590SOL     OW39379   6.462   4.326   7.359  0.1598 -0.2579 -0.1493
40590SOL    HW139380   6.472   4.273   7.279  1.1332 -1.1728  0.5421
40590SOL    HW239381   6.447   4.261   7.428 -1.6753  0.5816  0.2864
40591SOL     OW39382   4.816   0.534   3.622  0.0738 -0.0235  0.0897
40591SOL    HW139383   4.835   0.626   3.638 -0.9109  0.4927 -1.4865
40591SOL    HW239384   4.856   0.488   3.696 -0.0863  1.7186  1.3184
40592SOL     OW39385   4.057   6.393   2.959  0.3281 -1.0140  0.2041
40592SOL    HW139386   4.099   6.459   3.014  0.2153 -1.4124  0.7804
40592SOL    HW239387   4.129   6.336   2.930  0.4369 -0.5898 -0.3633
40593SOL     OW39388   4.261   9.840  13.846  0.7574 -0.2748 -0.1033
40593SOL    HW139389   4.252   9.842  13.750  2.0590 -1.2794 -0.2681
40593SOL    HW239390   4.284   9.750  13.866 -1.1500 -0.4822  1.3567
40594SOL     OW39391  11.771   5.839   8.344 -0.1394  0.3516  0.1663
40594SOL    HW139392  11.847   5.787   8.317 -1.8001 -2.5973  0.7020
40594SOL    HW239393  11.708   5.828   8.273 -0.6636  1.4028  0.4538
40595SOL     OW39394   4.368   3.230  12.555  0.2592 -0.6087  0.5679
40595SOL    HW139395   4.315   3.285  12.613 -1.4246  0.2981 -1.7113
40595SOL    HW239396   4.309   3.161  12.526  0.6073 -0.2096 -1.1747
40596SOL     OW39397  11.794  12.801   6.912  0.0340  0.6520  0.1212
40596SOL    HW139398  11.751  12.730   6.865 -1.1745  0.9772  0.7189
40596SOL    HW239399  11.746  12.880   6.886 -1.1454  0.7654  2.4239
40597SOL     OW39400   4.115   9.550   2.253 -0.7921 -0.1965 -0.2089
40597SOL    HW139401   4.055   9.497   2.306 -0.4341 -2.1434 -1.6350
40597SOL    HW239402   4.178   9.487   2.218  0.1495  1.3130 -1.3799
40598SOL     OW39403   3.075   2.481  11.524 -0.1069  0.6541  0.1921
40598SOL    HW139404   2.987   2.517  11.525 -1.5597 -2.5695 -0.1322
40598SOL    HW239405   3.130   2.551  11.558 -2.7164  2.8716  0.1647
40599SOL     OW39406   9.402   8.154   9.926  0.0037  0.4532  0.2812
40599SOL    HW139407   9.399   8.228   9.987  1.8905  1.3448 -0.6261
40599SOL    HW239408   9.365   8.189   9.845 -1.4459 -0.3943  0.5445
40600SOL     OW39409  12.846  11.118   9.520  0.1545 -0.1803  0.4237
40600SOL    HW139410  12.839  11.063   9.441  1.6387 -1.1530  0.9332
40600SOL    HW239411  12.858  11.206   9.486  1.0521 -0.6188 -0.4706
40601SOL     OW39412   9.073  13.030  10.550  0.1959 -0.4134  0.0165
40601SOL    HW139413   9.072  13.065  10.639 -1.0984 -0.0519 -0.1229
40601SOL    HW239414   9.136  13.085  10.503  1.0187 -0.7163  0.7311
40602SOL     OW39415   2.826   4.796  11.798  0.1798 -0.1834  0.2894
40602SOL    HW139416   2.853   4.744  11.723 -0.7028  0.5928 -0.6033
40602SOL    HW239417   2.875   4.878  11.790  0.1860 -0.1511  0.6395
40603SOL     OW39418  10.047  10.491  10.761 -0.0417  0.0631 -0.3341
40603SOL    HW139419  10.043  10.426  10.691 -0.4276  0.1289 -0.3721
40603SOL    HW239420   9.975  10.467  10.820 -0.9418  1.1580 -0.9484
40604SOL     OW39421   5.320  11.915  10.210  0.0781  0.2307 -0.6566
40604SOL    HW139422   5.378  11.951  10.277 -0.4172 -1.3673  0.6847
40604SOL    HW239423   5.247  11.977  10.206 -0.1921  0.0490  0.7744
40605SOL     OW39424   8.924   9.309  13.631  0.6880 -0.6664 -0.2483
40605SOL    HW139425   8.904   9.358  13.710  1.3242 -0.4430 -0.2212
40605SOL    HW239426   8.852   9.246  13.623  1.3238 -1.6568  1.2849
40606SOL     OW39427  11.141   0.614  12.763 -0.0600 -0.0860 -0.3189
40606SOL    HW139428  11.119   0.669  12.838  3.1270  1.0505 -0.0476
40606SOL    HW239429  11.160   0.528  12.801 -1.4761 -0.4073 -0.2793
40607SOL     OW39430   8.094  11.288   1.641  0.6444 -0.3603  0.9381
40607SOL    HW139431   8.015  11.235   1.631 -0.3881  1.2022  0.4695
40607SOL    HW239432   8.149  11.239   1.702 -0.3670 -1.8239  0.7066
40608SOL     OW39433   5.628  13.479  12.256  0.5341 -0.4889 -0.4566
40608SOL    HW139434   5.574  13.460  12.179  0.3671  1.9427 -1.0223
40608SOL    HW239435   5.718  13.466  12.226  0.4445 -0.0649 -0.9232
40609SOL     OW39436  12.301   1.106   2.483  0.1560 -0.0444 -0.1890
40609SOL    HW139437  12.277   1.174   2.546  1.2724  0.0619  0.1423
40609SOL    HW239438  12.218   1.076   2.448 -0.5222 -0.4075  1.6306
40610SOL     OW39439   3.388  10.583   8.655 -0.1235 -0.1720 -0.4639
40610SOL    HW139440   3.437  10.600   8.574 -1.1882  2.0997 -0.7096
40610SOL    HW239441   3.384  10.668   8.698 -0.6099 -1.1066  1.4329
40611SOL     OW39442   3.565   0.900   4.127  0.3846  0.4762  0.2079
40611SOL    HW139443   3.589   0.808   4.121 -0.3073  0.2608  0.6759
40611SOL    HW239444   3.546   0.914   4.220  3.6969  1.9087  0.8313
40612SOL     OW39445   0.593   6.736   6.601 -0.5457 -0.1365  0.1535
40612SOL    HW139446   0.586   6.688   6.518  1.7025 -0.0150 -0.1688
40612SOL    HW239447   0.667   6.695   6.646  0.4342  1.9693  0.5746
40613SOL     OW39448   1.351  11.967  12.212  0.2279 -0.0470 -0.2725
40613SOL    HW139449   1.324  12.043  12.160 -0.3083  0.0817  0.1894
40613SOL    HW239450   1.442  11.952  12.186 -0.0336  0.0099 -1.2535
40614SOL     OW39451   2.203  11.720   3.841  0.0070 -0.3791 -0.7124
40614SOL    HW139452   2.110  11.722   3.865  0.3487  0.7359  0.6202
40614SOL    HW239453   2.224  11.627   3.837 -0.7259 -0.6402  0.8302
40615SOL     OW39454   0.520  11.602   4.367 -0.2646  0.3549  0.0089
40615SOL    HW139455   0.459  11.539   4.331 -0.3177  1.2132 -1.4747
40615SOL    HW239456   0.465  11.668   4.409 -0.4238  1.1676 -1.3926
40616SOL     OW39457   8.691   9.334  12.222  0.5950 -0.4813  0.4829
40616SOL    HW139458   8.656   9.363  12.306  2.2954 -1.7383  1.6588
40616SOL    HW239459   8.749   9.405  12.195  0.1357 -0.1314  0.3810
40617SOL     OW39460   2.750  13.158   0.781  0.2824  0.0454 -0.0828
40617SOL    HW139461   2.822  13.172   0.842  0.0547 -0.7555  0.3875
40617SOL    HW239462   2.744  13.063   0.772 -0.5267  0.1119 -0.3434
40618SOL     OW39463   9.083   3.974   4.199 -0.7143  0.4037 -0.1533
40618SOL    HW139464   9.041   3.893   4.172 -1.1824  0.5739  0.0549
40618SOL    HW239465   9.154   3.946   4.257 -1.0437  0.1489  0.1391
40619SOL     OW39466  11.259  12.286   2.131 -0.2600 -0.5325  0.1127
40619SOL    HW139467  11.325  12.302   2.063 -0.0314  0.0937  0.4720
40619SOL    HW239468  11.259  12.366   2.184 -0.7875 -0.8183  0.5577
40620SOL     OW39469   1.745   0.329   5.874 -0.6079  0.1431  0.3341
40620SOL    HW139470   1.722   0.415   5.839  0.1181  1.2055  2.3323
40620SOL    HW239471   1.777   0.280   5.798 -3.1781  0.7929 -1.2975
40621SOL     OW39472   2.503   3.611   3.170 -0.1026 -0.2652  0.0614
40621SOL    HW139473   2.424   3.561   3.148 -0.8437  1.2405 -0.9036
40621SOL    HW239474   2.491   3.696   3.127  2.2451 -0.1233 -0.4880
40622SOL     OW39475  10.393   2.967   6.288 -0.1014 -0.3342 -0.1890
40622SOL    HW139476  10.418   2.884   6.247  0.3046  0.2340 -1.1015
40622SOL    HW239477  10.303   2.982   6.258  0.2884  0.2174 -1.1180
40623SOL     OW39478  11.032  11.715  11.330 -0.2500  0.2540  0.4114
40623SOL    HW139479  10.974  11.676  11.394 -0.9773  0.7058  0.0391
40623SOL    HW239480  11.084  11.778  11.379  0.0446 -0.2526  0.7710
40624SOL     OW39481  12.517   9.156   9.035 -0.4900 -0.3390  0.1529
40624SOL    HW139482  12.473   9.095   9.094 -0.2484  0.5003  1.2355
40624SOL    HW239483  12.488   9.242   9.064 -0.8876  0.0887 -1.3935
40625SOL     OW39484   7.868  10.963   7.609  0.1890  0.2599  0.0620
40625SOL    HW139485   7.876  11.015   7.529 -2.4911  1.8232  0.6927
40625SOL    HW239486   7.914  10.882   7.589  0.6832  1.0793 -2.5968
40626SOL     OW39487   0.617   2.235   7.731 -0.2849  0.0523 -0.0608
40626SOL    HW139488   0.628   2.291   7.655  1.2656 -0.7630 -0.4875
40626SOL    HW239489   0.525   2.244   7.755 -0.2964  2.0244 -0.6757
40627SOL     OW39490  12.209   9.557   9.329  0.5246 -0.4775 -0.4782
40627SOL    HW139491  12.136   9.509   9.290  0.1430 -0.3976  0.1333
40627SOL    HW239492  12.218   9.520   9.417  0.2724  0.5185 -0.0296
40628SOL     OW39493  11.457   4.843   3.248 -0.2110  0.3679  0.0830
40628SOL    HW139494  11.495   4.817   3.165  0.4442 -0.8011  0.7253
40628SOL    HW239495  11.493   4.930   3.265  0.8032  0.0171 -0.1770
40629SOL     OW39496  12.816  13.500  11.514 -0.2594  0.1383  0.2708
40629SOL    HW139497  12.906  13.502  11.545  0.0632  1.5751 -0.6819
40629SOL    HW239498  12.823  13.487  11.419 -1.1384 -1.4072  0.3769
40630SOL     OW39499   3.391   4.640  13.714  0.2184 -0.1407 -0.1085
40630SOL    HW139500   3.339   4.659  13.792 -1.1708 -1.3358 -0.7008
40630SOL    HW239501   3.480   4.628  13.746 -0.4523 -1.3174  1.4022
40631SOL     OW39502   0.162   1.788   1.729  0.2133 -0.4798  0.1752
40631SOL    HW139503   0.097   1.834   1.782 -1.0302 -0.8317 -0.9867
40631SOL    HW239504   0.246   1.812   1.767 -0.5601  0.5208  1.3083
40632SOL     OW39505   3.824  12.875   0.766 -0.0417  0.0541  0.0083
40632SOL    HW139506   3.815  12.856   0.673 -0.3250  3.2598 -0.7351
40632SOL    HW239507   3.740  12.849   0.804  0.6480 -2.8387 -0.2093
40633SOL     OW39508   6.619   1.097   7.595  0.3224 -0.2319 -0.9177
40633SOL    HW139509   6.682   1.100   7.522  1.3968 -0.1266 -0.0138
40633SOL    HW239510   6.670   1.125   7.671 -0.1024 -2.5983  0.3490
40634SOL     OW39511   2.164   4.722   2.949  0.0166 -0.0595 -0.1696
40634SOL    HW139512   2.118   4.668   3.012  1.7506 -1.7606 -0.2677
40634SOL    HW239513   2.167   4.669   2.869  1.5547  0.2426 -0.3453
40635SOL     OW39514   8.829   2.721  13.734 -0.7314 -0.0454 -0.4726
40635SOL    HW139515   8.875   2.738  13.652  1.9252 -0.6589  0.7657
40635SOL    HW239516   8.779   2.801  13.750  2.4789  2.1655 -0.3810
40636SOL     OW39517   0.867   2.134   4.099 -0.8751  0.1189  0.3223
40636SOL    HW139518   0.786   2.170   4.063 -0.1691  1.2954 -0.1500
40636SOL    HW239519   0.885   2.188   4.176 -0.8964 -0.5797  0.8201
40637SOL     OW39520   3.021  12.971  11.098  0.0361 -0.0013  0.0692
40637SOL    HW139521   3.065  12.970  11.013 -1.4852 -1.1140 -0.7426
40637SOL    HW239522   3.020  12.880  11.125 -2.7498 -0.2092 -0.4973
40638SOL     OW39523   4.105   2.138  12.045 -0.5997 -0.0136 -0.1658
40638SOL    HW139524   4.138   2.052  12.071  0.0925  0.2640 -0.1113
40638SOL    HW239525   4.114   2.191  12.124 -4.6943 -0.8475  1.1154
40639SOL     OW39526   7.375   8.120   4.916  0.1921 -0.1127 -0.2302
40639SOL    HW139527   7.463   8.131   4.952  0.2724 -1.6780  0.1190
40639SOL    HW239528   7.389   8.086   4.828 -0.0463  1.8794 -1.0786
40640SOL     OW39529  11.193  10.377   4.974 -0.2030 -0.5541  0.3179
40640SOL    HW139530  11.130  10.445   4.950  1.2546  0.4945 -0.6662
40640SOL    HW239531  11.192  10.316   4.899  1.3190  0.5054 -0.6173
40641SOL     OW39532   0.795   8.379   9.948 -0.6045  0.0680 -0.4079
40641SOL    HW139533   0.854   8.438   9.901  0.2342  1.0566  1.7498
40641SOL    HW239534   0.854   8.318   9.994 -1.0912  1.7085  2.6162
40642SOL     OW39535   4.542   9.094   2.858 -0.4208  1.1091 -0.0345
40642SOL    HW139536   4.565   9.111   2.766 -0.4511  1.6971  0.0680
40642SOL    HW239537   4.626   9.074   2.900  0.0766  4.0084  0.5108
40643SOL     OW39538   2.169   4.297   3.971 -0.0819  0.4021 -0.0049
40643SOL    HW139539   2.083   4.339   3.963 -0.3869 -0.4405 -1.3766
40643SOL    HW239540   2.213   4.316   3.888 -0.0829 -1.6162 -0.5193
40644SOL     OW39541  10.457  13.110  11.223  0.0242 -1.1011  0.3251
40644SOL    HW139542  10.548  13.110  11.251  0.1945  3.6254  0.4382
40644SOL    HW239543  10.458  13.145  11.135 -1.6896 -0.6915  0.4243
40645SOL     OW39544  10.864   2.019  11.433  0.7982 -0.0598 -0.0693
40645SOL    HW139545  10.927   2.045  11.365  1.9321 -1.1056  0.5570
40645SOL    HW239546  10.778   2.031  11.391  1.4785 -1.1736 -1.8802
40646SOL     OW39547  11.999   9.621   4.002 -0.2353  0.4206 -0.0969
40646SOL    HW139548  12.015   9.693   4.062 -1.5272  1.0573 -0.4793
40646SOL    HW239549  12.074   9.563   4.013  0.7811  1.7631  0.2921
40647SOL     OW39550  12.956   4.941   6.658  0.1997 -0.1992  0.1625
40647SOL    HW139551  12.912   5.025   6.673 -0.2461 -0.3725 -0.1358
40647SOL    HW239552  12.906   4.878   6.710  0.3263 -0.3356  0.1216
40648SOL     OW39553   7.828  10.164   5.304  0.0501 -0.3013  0.0342
40648SOL    HW139554   7.867  10.195   5.222 -0.3264 -0.5079 -0.2291
40648SOL    HW239555   7.899  10.117   5.348  0.1220 -0.6137 -0.4083
40649SOL     OW39556   4.791   5.246  10.461 -0.4038  0.0971  0.5232
40649SOL    HW139557   4.825   5.157  10.456 -1.2536 -0.1659 -0.9115
40649SOL    HW239558   4.851   5.297  10.406 -0.9973  0.0561 -0.1669
40650SOL     OW39559  12.694   4.324  12.426 -0.2761  0.0790  0.5615
40650SOL    HW139560  12.611   4.281  12.406 -0.7006  1.2901 -0.3184
40650SOL    HW239561  12.745   4.317  12.346 -0.1045  0.6407  0.6178
40651SOL     OW39562   5.674   6.033   1.861  0.2740  0.3637  0.1657
40651SOL    HW139563   5.603   6.080   1.905  1.7041  0.6755  2.2964
40651SOL    HW239564   5.746   6.034   1.924  1.2185 -2.4999 -0.7191
40652SOL     OW39565  11.590   3.212   7.836  0.2550  0.0598 -0.0392
40652SOL    HW139566  11.685   3.214   7.840  0.2550  1.0512 -0.1516
40652SOL    HW239567  11.563   3.156   7.909  0.9003  0.3984  0.4632
40653SOL     OW39568  12.974  13.398   6.193  0.4789  0.4445  0.1586
40653SOL    HW139569  13.044  13.428   6.251  0.6618  2.0071 -0.7919
40653SOL    HW239570  13.018  13.345   6.127  0.4294 -0.3984  0.7875
40654SOL     OW39571  11.635   8.347   9.473 -0.0479  0.3275  0.4522
40654SOL    HW139572  11.652   8.296   9.552  1.0175  0.6171  0.4230
40654SOL    HW239573  11.596   8.285   9.412  0.1195 -0.1578  0.8333
40655SOL     OW39574   0.243  13.617  11.900  0.1608  0.7498 -0.3146
40655SOL    HW139575   0.160  13.624  11.946  0.6445 -0.7741  0.8912
40655SOL    HW239576   0.219  13.612  11.807 -0.8857  2.9680 -0.2223
40656SOL     OW39577  10.837  11.891   9.861  1.3036  0.1358  0.3434
40656SOL    HW139578  10.888  11.965   9.893 -1.0812  1.3131  1.6922
40656SOL    HW239579  10.827  11.908   9.767  1.7432  0.9030  0.4264
40657SOL     OW39580   1.111  12.061   0.766  0.1322  0.0651  0.3453
40657SOL    HW139581   1.196  12.046   0.724 -0.0020  0.3940 -0.0598
40657SOL    HW239582   1.072  11.975   0.774  0.8058 -0.1724  1.1852
40658SOL     OW39583   1.672   8.861   2.017  0.1763  0.2128  0.3926
40658SOL    HW139584   1.767   8.850   2.013  0.3803  1.9299 -1.5166
40658SOL    HW239585   1.659   8.951   2.046 -0.7815  0.5353 -0.9074
40659SOL     OW39586   1.983   0.091   4.456 -0.3848 -0.4591 -0.5295
40659SOL    HW139587   2.037   0.169   4.446 -1.4031  0.1827 -1.1853
40659SOL    HW239588   2.030   0.037   4.520 -0.8027  1.6755  1.6932
40660SOL     OW39589   0.783  10.291   0.814 -0.0047 -0.1009  0.1865
40660SOL    HW139590   0.753  10.376   0.783 -0.5903 -0.1462  0.6104
40660SOL    HW239591   0.813  10.245   0.736  1.4650  0.9350  0.1035
40661SOL     OW39592   0.681  10.461   4.896  0.2568  0.0106  0.2408
40661SOL    HW139593   0.754  10.408   4.863 -0.3826 -1.3059  0.8310
40661SOL    HW239594   0.668  10.429   4.986 -1.1891  0.0641  0.0679
40662SOL     OW39595   6.172   3.004  13.924  0.2782  0.1137 -0.0588
40662SOL    HW139596   6.237   3.052  13.873 -0.7750  0.2709 -1.2988
40662SOL    HW239597   6.159   2.922  13.878  0.7061 -0.5800  1.0294
40663SOL     OW39598   0.797   2.800   9.157 -0.1221  0.0553 -0.0518
40663SOL    HW139599   0.848   2.742   9.213  0.1297 -0.9210 -1.2553
40663SOL    HW239600   0.787   2.752   9.075 -2.3681  0.5157 -0.1219
40664SOL     OW39601   6.499   1.844   7.996 -0.2465 -0.1596  0.1217
40664SOL    HW139602   6.475   1.872   7.908 -0.7075  1.4012  0.7072
40664SOL    HW239603   6.589   1.875   8.007 -0.5036  0.4761  0.5087
40665SOL     OW39604  13.104  11.791   8.098 -0.2660  0.4547  0.5018
40665SOL    HW139605  13.038  11.859   8.112 -0.4994  0.0406  1.5161
40665SOL    HW239606  13.057  11.709   8.110 -0.1841  0.0596 -1.5912
40666SOL     OW39607  10.461   2.408   9.030 -0.2031  0.2842 -0.3740
40666SOL    HW139608  10.516   2.477   9.067  1.4626 -1.4014  0.4548
40666SOL    HW239609  10.464   2.338   9.095 -1.1624 -0.8901 -1.5509
40667SOL     OW39610  10.633   4.745   7.809 -0.1373  0.5345  0.8616
40667SOL    HW139611  10.715   4.695   7.816 -0.0374  0.7538  1.2608
40667SOL    HW239612  10.575   4.704   7.872 -0.3250  0.4107  0.6120
40668SOL     OW39613   6.859   5.670  12.175  0.5384 -0.3299  0.1959
40668SOL    HW139614   6.905   5.753  12.162  1.2613 -0.9442 -1.5929
40668SOL    HW239615   6.775   5.694  12.213  1.1226  1.1173  0.6324
40669SOL     OW39616   5.957   3.108   1.119  0.4895  0.0944 -0.0339
40669SOL    HW139617   5.912   3.024   1.115 -0.3334  0.3115  2.5637
40669SOL    HW239618   5.903   3.168   1.068 -0.9013 -0.2124  1.0050
40670SOL     OW39619   7.705   2.074  13.905  0.4217 -0.2675  0.2597
40670SOL    HW139620   7.661   2.157  13.925 -2.0131 -1.6717  1.0677
40670SOL    HW239621   7.714   2.075  13.810 -0.0935  0.6573  0.2047
40671SOL     OW39622   3.747  12.051  11.517 -0.3130 -0.5100  0.2389
40671SOL    HW139623   3.697  12.078  11.594 -0.9223  1.3488 -0.7564
40671SOL    HW239624   3.759  12.131  11.466  1.1674 -1.4575 -0.9995
40672SOL     OW39625  13.904  13.140  13.595 -0.1416  0.3239  0.8994
40672SOL    HW139626  13.877  13.097  13.514 -1.2496 -0.6004  1.7146
40672SOL    HW239627  13.982  13.190  13.572  0.0331 -0.5726 -0.5464
40673SOL     OW39628  12.910   7.309   0.609  0.6398  0.0264  0.1712
40673SOL    HW139629  12.867   7.232   0.572 -1.6149  0.9649  0.6452
40673SOL    HW239630  12.942   7.281   0.694  0.4288 -0.5562  0.0588
40674SOL     OW39631  12.538   4.261   0.458 -0.3474 -0.1959  0.2261
40674SOL    HW139632  12.561   4.316   0.532  0.0513 -1.0036  0.7118
40674SOL    HW239633  12.539   4.320   0.383  0.7179  0.3257  0.6336
40675SOL     OW39634   1.101   4.958   0.115 -0.3365 -0.3137 -0.0248
40675SOL    HW139635   1.158   4.964   0.191 -0.0006  0.3855 -0.3188
40675SOL    HW239636   1.152   4.910   0.050 -0.3602 -0.3186 -0.0401
40676SOL     OW39637   9.764   9.254  14.075  0.3830  0.7252 -0.0647
40676SOL    HW139638   9.840   9.200  14.055 -0.0702  0.6605 -1.8011
40676SOL    HW239639   9.795   9.344  14.066  0.7823  0.7609  1.4306
40677SOL     OW39640   9.269   6.980   4.759  0.2289  0.0096  0.5831
40677SOL    HW139641   9.285   6.944   4.671  0.9204 -1.8396  1.4042
40677SOL    HW239642   9.175   6.996   4.761  0.4225  1.8148 -1.0643
40678SOL     OW39643   0.393   5.243   1.649 -0.2115 -0.2191 -0.1536
40678SOL    HW139644   0.445   5.282   1.579 -1.2439  0.7463 -0.4046
40678SOL    HW239645   0.405   5.302   1.724 -1.4088  0.3644 -0.3981
40679SOL     OW39646   9.677   2.661   4.923 -0.0488  0.6339  0.1940
40679SOL    HW139647   9.712   2.573   4.908 -0.5110  0.6594 -1.1141
40679SOL    HW239648   9.593   2.646   4.966  0.0370  0.4558  0.3033
40680SOL     OW39649   9.553   8.070   4.765 -0.0330  0.2411 -0.0326
40680SOL    HW139650   9.519   8.035   4.682  0.0528  0.0619  0.0074
40680SOL    HW239651   9.647   8.080   4.750 -0.2237  1.5344 -0.4284
40681SOL     OW39652   4.967  10.380  11.347 -0.3334 -0.0158 -0.3512
40681SOL    HW139653   4.944  10.357  11.437 -1.7516  0.1576 -0.6442
40681SOL    HW239654   4.964  10.475  11.344  0.0806 -0.0035 -0.5007
40682SOL     OW39655   4.553   0.705   5.815 -0.1757 -0.0955  0.5431
40682SOL    HW139656   4.548   0.695   5.720  0.0394 -2.6321  0.7162
40682SOL    HW239657   4.640   0.742   5.831 -0.6513  1.4274 -0.2775
40683SOL     OW39658   8.408   1.792   1.629 -0.0000 -0.7073 -0.2062
40683SOL    HW139659   8.453   1.709   1.611  0.3821  0.1448 -3.9760
40683SOL    HW239660   8.461   1.858   1.586 -1.8828  1.1081  0.1254
40684SOL     OW39661   6.995   7.585   1.558 -0.0243  0.5670  0.2477
40684SOL    HW139662   6.945   7.643   1.616  0.2449  1.4767 -0.3951
40684SOL    HW239663   7.083   7.622   1.559  0.3169 -0.2286  0.3241
40685SOL     OW39664  12.582  13.091  10.872  0.3856 -0.2090 -0.0301
40685SOL    HW139665  12.570  13.053  10.785 -0.0303 -2.0180  0.7674
40685SOL    HW239666  12.500  13.137  10.890 -0.3117 -1.5187  0.1949
40686SOL     OW39667   0.300  13.412   7.729  0.4281 -0.2784 -0.2506
40686SOL    HW139668   0.341  13.460   7.801 -0.4299  1.4937 -0.8796
40686SOL    HW239669   0.352  13.435   7.652 -2.2015  3.0133 -1.3062
40687SOL     OW39670   2.593  11.175   9.244  0.9991  0.0966 -0.0340
40687SOL    HW139671   2.617  11.206   9.157  0.7777  1.3690  0.3318
40687SOL    HW239672   2.663  11.208   9.301  0.0442  1.1746  0.5715
40688SOL     OW39673  12.543   0.528  12.153 -0.3829 -0.5415 -0.2315
40688SOL    HW139674  12.568   0.444  12.192 -0.8457 -0.5213  0.1193
40688SOL    HW239675  12.471   0.506  12.094 -0.2309 -0.4513 -0.4480
40689SOL     OW39676  12.348   9.008  13.699 -0.6008 -0.6045 -0.0962
40689SOL    HW139677  12.312   8.952  13.768  0.0328 -0.3141  0.4764
40689SOL    HW239678  12.380   8.946  13.632 -0.4230 -0.9087  0.2660
40690SOL     OW39679   0.335   3.290   0.078 -0.4911  0.0341 -0.4675
40690SOL    HW139680   0.431   3.287   0.084 -0.4732 -2.3734 -1.0753
40690SOL    HW239681   0.313   3.380   0.100  1.8306  0.3440  0.9584
40691SOL     OW39682   2.772  12.316  12.947  0.0768  0.2474 -0.0121
40691SOL    HW139683   2.792  12.331  13.039  1.7718  0.6050 -0.4103
40691SOL    HW239684   2.678  12.333  12.940  0.5714  4.3141  0.8815
40692SOL     OW39685   4.786   0.929   2.825  0.2481 -0.3302 -0.1113
40692SOL    HW139686   4.821   0.853   2.778 -1.0750 -1.8719  1.2309
40692SOL    HW239687   4.691   0.921   2.816 -0.0278 -0.2924  2.0938
40693SOL     OW39688   0.358  13.406   1.844  0.3406  0.5179 -0.1887
40693SOL    HW139689   0.400  13.486   1.811 -0.6287  1.2385  0.2511
40693SOL    HW239690   0.430  13.350   1.870  1.1527  0.0948 -3.0441
40694SOL     OW39691   3.076   0.334   7.631  0.6649 -0.0535  0.0357
40694SOL    HW139692   3.098   0.411   7.578  0.9689  0.3423  0.7256
40694SOL    HW239693   2.984   0.345   7.653  0.9999  0.7457  1.1353
40695SOL     OW39694   0.321   8.317   9.267  0.6722  0.3002  0.4903
40695SOL    HW139695   0.416   8.329   9.275  0.7625  0.6512 -0.8931
40695SOL    HW239696   0.305   8.317   9.172 -0.8116  0.9901  0.7276
40696SOL     OW39697   5.888   1.848  11.593  0.6982  0.3444 -0.8380
40696SOL    HW139698   5.969   1.898  11.606  1.1918 -0.5512 -0.3871
40696SOL    HW239699   5.820   1.902  11.635  1.3951  0.1449  0.6196
40697SOL     OW39700  10.936   6.312  12.956  0.6843 -0.1496 -0.0824
40697SOL    HW139701  10.872   6.256  12.912  1.4537 -0.8879 -0.2847
40697SOL    HW239702  10.940   6.391  12.902 -1.3446  0.6785  0.8946
40698SOL     OW39703  12.974   6.990  12.851 -0.3917  0.2182 -0.3153
40698SOL    HW139704  12.975   6.895  12.861  0.5033  0.2978  0.3605
40698SOL    HW239705  12.917   7.021  12.921  0.3003  0.2700  0.2237
40699SOL     OW39706   4.493   7.990  11.428 -0.4150 -0.5313  0.3413
40699SOL    HW139707   4.494   7.964  11.336  1.9543 -0.4373  0.2782
40699SOL    HW239708   4.583   8.019  11.446 -1.5235  2.3392  1.8839
40700SOL     OW39709   1.606   4.230   0.137  0.3525 -0.6821 -0.0336
40700SOL    HW139710   1.595   4.314   0.094 -0.4598 -0.5254  0.4501
40700SOL    HW239711   1.584   4.247   0.229  0.2455 -1.4033  0.0825
40701SOL     OW39712  10.573   6.329  14.015 -0.4408  0.0456 -0.6391
40701SOL    HW139713  10.540   6.243  14.042 -2.0746  0.7366 -0.3221
40701SOL    HW239714  10.612   6.366  14.095  0.1187 -0.3214 -0.7367
40702SOL     OW39715  11.007  12.631  13.794  0.3937  0.2452  0.2671
40702SOL    HW139716  10.993  12.589  13.709 -0.5039 -1.8114  1.3702
40702SOL    HW239717  11.049  12.564  13.848  0.0851  1.1845  1.7494
40703SOL     OW39718   7.087   9.421   1.926  0.9624 -0.3302 -0.7201
40703SOL    HW139719   7.043   9.423   2.011  0.4575 -1.0718 -0.9563
40703SOL    HW239720   7.095   9.513   1.901  1.6506 -0.0649  0.3925
40704SOL     OW39721   9.416   6.126   1.870 -0.3487 -0.5474  0.1778
40704SOL    HW139722   9.383   6.041   1.900 -0.4129 -0.5506  0.0988
40704SOL    HW239723   9.487   6.103   1.810  0.1248 -0.5299  0.7311
40705SOL     OW39724   0.848  10.567   0.782 -0.1314 -0.0808  0.0139
40705SOL    HW139725   0.889  10.604   0.860  1.1355 -2.3285  0.5071
40705SOL    HW239726   0.892  10.609   0.709  0.7740 -0.0935  0.5408
40706SOL     OW39727   5.254  12.121   1.456 -0.2412  0.0365  0.0466
40706SOL    HW139728   5.268  12.082   1.542 -0.4584 -2.7459 -1.0747
40706SOL    HW239729   5.176  12.077   1.423 -0.0345  0.8822 -1.6392
40707SOL     OW39730   9.365   1.821   2.333 -0.3468 -0.3355 -0.1905
40707SOL    HW139731   9.399   1.731   2.332 -0.0894 -0.3804  2.8955
40707SOL    HW239732   9.430   1.871   2.283  2.3497 -1.0854  2.3230
40708SOL     OW39733   8.971   0.697   5.456  0.3063 -0.0910  0.2736
40708SOL    HW139734   8.880   0.673   5.473  0.5742 -0.7124  0.8853
40708SOL    HW239735   9.022   0.641   5.515  1.0469  0.7559  0.4622
40709SOL     OW39736   0.339   5.866   7.786 -0.2625  0.0079 -0.3028
40709SOL    HW139737   0.261   5.887   7.836  0.1305  0.3495  0.1758
40709SOL    HW239738   0.307   5.815   7.711 -0.5915 -3.2128  1.8272
40710SOL     OW39739   6.351   0.348   5.151 -0.0128 -0.0588  0.0692
40710SOL    HW139740   6.338   0.359   5.245  0.5457 -1.1275  0.2867
40710SOL    HW239741   6.273   0.387   5.111  0.0771  1.0499  0.9226
40711SOL     OW39742  12.663   5.178  13.828  0.2442 -0.3421 -0.0363
40711SOL    HW139743  12.744   5.159  13.782  1.8466  0.5460  2.2485
40711SOL    HW239744  12.670   5.132  13.912 -1.5624 -0.1400  0.2855
40712SOL     OW39745   1.795   7.075   8.208  0.0635  0.5292 -0.2231
40712SOL    HW139746   1.734   7.130   8.160 -0.6546 -0.5643 -0.5863
40712SOL    HW239747   1.783   6.987   8.172  0.9937  0.0722  0.5246
40713SOL     OW39748   2.552   9.414   9.381 -0.0386 -0.0189  0.0092
40713SOL    HW139749   2.568   9.334   9.430  2.2841  0.4683  0.1607
40713SOL    HW239750   2.586   9.484   9.437  1.0247  0.7182 -1.4779
40714SOL     OW39751   8.375  12.041   9.163 -0.1428  0.4711  0.5056
40714SOL    HW139752   8.446  12.102   9.184 -0.1992  0.1713  1.5948
40714SOL    HW239753   8.398  12.006   9.077  1.5779 -0.3956  1.2803
40715SOL     OW39754   6.033   3.022   6.503 -0.3629  1.1786 -0.2062
40715SOL    HW139755   6.071   2.942   6.466 -1.3316  0.1105  1.0141
40715SOL    HW239756   6.063   3.092   6.445  1.5634  0.1114 -0.6059
40716SOL     OW39757   4.831   5.692   2.378 -0.3519 -0.6145  0.0304
40716SOL    HW139758   4.743   5.730   2.386 -0.1885 -0.3945  0.8633
40716SOL    HW239759   4.863   5.688   2.468 -0.1890 -2.3611 -0.0839
40717SOL     OW39760  10.272  13.781   3.758  0.2540  0.4073 -0.1764
40717SOL    HW139761  10.185  13.795   3.797  1.0727  1.2425  1.4638
40717SOL    HW239762  10.319  13.729   3.823  0.7271 -0.7801 -1.4376
40718SOL     OW39763   2.835   1.714   1.678  0.4182 -0.0793  0.1214
40718SOL    HW139764   2.897   1.696   1.749  0.2487 -0.4673  0.1750
40718SOL    HW239765   2.870   1.792   1.634  1.8234 -1.1711 -0.8219
40719SOL     OW39766   6.473   6.965   1.082  0.2160  0.0257  0.5480
40719SOL    HW139767   6.432   7.048   1.107 -3.7588 -1.8448  0.9771
40719SOL    HW239768   6.490   6.974   0.989 -2.9597  0.4561 -0.1196
40720SOL     OW39769  10.055   3.439   9.921  0.4840  0.0449  0.4777
40720SOL    HW139770  10.036   3.526   9.885 -1.0940 -0.6502 -0.4576
40720SOL    HW239771  10.043   3.448  10.015  0.2778  0.8168  0.3845
40721SOL     OW39772  14.085   2.045   6.118 -0.1474  0.3882  0.7186
40721SOL    HW139773  14.120   1.970   6.167 -0.2039  0.7725  1.3685
40721SOL    HW239774  14.081   2.116   6.183 -4.1927 -0.1876  1.4067
40722SOL     OW39775   9.223   0.077  11.472 -0.0019  0.1449 -0.4365
40722SOL    HW139776   9.215   0.159  11.423  1.1228  1.0662  0.8330
40722SOL    HW239777   9.299   0.034  11.432 -0.1112  0.0951 -0.5913
40723SOL     OW39778  12.357   6.707   6.361 -0.2240  0.1678 -0.1772
40723SOL    HW139779  12.447   6.721   6.391 -0.5226 -0.5737  1.1425
40723SOL    HW239780  12.364   6.704   6.266  1.1668  0.0342 -0.0934
40724SOL     OW39781  13.066   9.277   5.101 -0.3384 -0.2384 -0.2909
40724SOL    HW139782  13.107   9.360   5.126  0.7980 -0.8374 -0.1079
40724SOL    HW239783  13.049   9.233   5.184 -0.6468 -0.3252 -0.4007
40725SOL     OW39784  13.110   5.801  13.653 -0.3707  0.1566 -0.4864
40725SOL    HW139785  13.120   5.715  13.612  0.2290 -0.5842  1.1440
40725SOL    HW239786  13.179   5.855  13.613  2.0453 -1.3296  1.3912
40726SOL     OW39787  12.045  12.053   8.926 -0.1155  0.2255  0.3495
40726SOL    HW139788  12.072  11.978   8.979 -0.9900  0.5840  1.3487
40726SOL    HW239789  12.087  12.039   8.841 -1.4564 -2.2010 -0.0218
40727SOL     OW39790  11.962   5.124  11.923  0.7913  0.4028  0.1879
40727SOL    HW139791  12.035   5.062  11.922  0.1935 -0.3198  0.0341
40727SOL    HW239792  11.895   5.081  11.869 -0.2633  0.4196  1.4617
40728SOL     OW39793   1.284   7.834  12.217  0.6466 -0.0066  0.3660
40728SOL    HW139794   1.345   7.778  12.169 -0.8024 -0.8456 -0.5664
40728SOL    HW239795   1.272   7.910  12.160 -0.2367 -0.4991 -0.1248
40729SOL     OW39796   9.365   0.580   1.548  0.2558  0.5561  0.4969
40729SOL    HW139797   9.432   0.530   1.594 -0.6356 -1.1832  0.0250
40729SOL    HW239798   9.396   0.583   1.457 -0.3225 -0.3432  0.2568
40730SOL     OW39799  12.217   1.144   7.749 -0.3253  0.0047 -0.4886
40730SOL    HW139800  12.306   1.178   7.750 -0.6610  0.9332 -1.3202
40730SOL    HW239801  12.208   1.098   7.833  0.8513  0.0978 -0.3002
40731SOL     OW39802   2.493   4.785   9.267  0.8600 -0.5898  0.3069
40731SOL    HW139803   2.505   4.711   9.327  1.3782 -1.3922 -0.7489
40731SOL    HW239804   2.537   4.757   9.187 -0.5913  0.0672 -0.7577
40732SOL     OW39805   7.740   5.310  14.056  0.0237 -0.8536  0.3991
40732SOL    HW139806   7.722   5.368  14.130  1.4127 -0.9178  0.8134
40732SOL    HW239807   7.786   5.365  13.994 -1.5553 -0.6679 -0.6805
40733SOL     OW39808  12.490  10.852   7.724  0.2211 -0.0168 -0.3949
40733SOL    HW139809  12.586  10.847   7.726  0.3708  1.9842 -0.5156
40733SOL    HW239810  12.463  10.800   7.800  1.6420  2.3604  1.9502
40734SOL     OW39811  12.171  10.616  13.153 -0.3806 -0.7016 -0.0151
40734SOL    HW139812  12.142  10.544  13.208  0.7352 -0.0017  1.5699
40734SOL    HW239813  12.179  10.690  13.213  0.4054  0.2269 -1.2192
40735SOL     OW39814   9.715   8.280  13.912  0.5597  0.5466  0.3657
40735SOL    HW139815   9.621   8.270  13.893  0.5129  0.7886  0.4676
40735SOL    HW239816   9.734   8.370  13.889  0.8345  0.4181  0.0766
40736SOL     OW39817   8.724  10.836   4.046  0.2677 -0.6545 -0.2256
40736SOL    HW139818   8.654  10.771   4.054  0.5070 -0.8086  0.6325
40736SOL    HW239819   8.795  10.803   4.102  0.5272  0.1624 -0.0582
40737SOL     OW39820  12.816   8.991   1.332 -0.2973  0.1033 -0.1502
40737SOL    HW139821  12.744   8.929   1.345  0.4697 -0.8929 -0.5976
40737SOL    HW239822  12.894   8.937   1.328  0.5241  1.1909  0.5371
40738SOL     OW39823  13.810  12.272   3.436  0.4202 -0.3346 -0.3363
40738SOL    HW139824  13.884  12.213   3.421 -1.6451 -3.6099  1.2240
40738SOL    HW239825  13.744  12.245   3.372 -1.2802 -1.1685  1.6605
40739SOL     OW39826   4.873  10.556   0.093 -0.1757 -0.0983  0.2164
40739SOL    HW139827   4.874  10.460   0.095 -2.0025 -0.1742 -0.0384
40739SOL    HW239828   4.849  10.577   0.003 -2.4649  0.4644  0.8834
40740SOL     OW39829   2.236   2.358   5.281  0.1806  0.5874  0.1175
40740SOL    HW139830   2.186   2.378   5.360 -0.3805  2.5010 -0.6847
40740SOL    HW239831   2.327   2.352   5.311 -0.1090  0.5590  1.0154
40741SOL     OW39832   2.918   7.921   5.895 -0.3779 -0.2702 -0.0829
40741SOL    HW139833   2.935   8.014   5.886 -0.4913 -0.4249 -2.2240
40741SOL    HW239834   3.005   7.883   5.909  0.0114 -0.0725 -1.7324
40742SOL     OW39835  10.234  11.248   5.034 -0.2927 -0.1332 -0.2725
40742SOL    HW139836  10.207  11.301   4.958  0.8392  0.4838 -0.2577
40742SOL    HW239837  10.292  11.182   4.997 -1.9692 -1.6283 -0.3420
40743SOL     OW39838  10.015   6.959   2.061  0.3471 -0.6924 -0.4560
40743SOL    HW139839   9.975   6.884   2.016 -2.1071 -0.0853  0.5287
40743SOL    HW239840   9.965   6.966   2.143  1.8128  0.8585  0.3585
40744SOL     OW39841   2.002   9.004  13.062  0.3552 -0.5313  0.5285
40744SOL    HW139842   1.913   8.982  13.036 -0.6426  1.6401  1.8836
40744SOL    HW239843   2.030   9.071  12.999 -0.5640  1.7685  2.4336
40745SOL     OW39844   2.323   1.158   4.614  0.3020 -0.1241 -0.4042
40745SOL    HW139845   2.343   1.076   4.660  0.4036  0.5641  0.8174
40745SOL    HW239846   2.264   1.131   4.543 -0.4409 -1.1420  0.5517
40746SOL     OW39847   0.892   2.083   9.985  1.1289  0.1549 -0.5833
40746SOL    HW139848   0.854   2.063   9.900 -1.9899 -1.8988  1.0634
40746SOL    HW239849   0.928   2.000  10.015  1.0886  0.5316  0.5585
40747SOL     OW39850  10.133  11.185   4.221  0.0742  0.1159  0.1116
40747SOL    HW139851  10.052  11.135   4.214 -0.6785  0.9736  1.8285
40747SOL    HW239852  10.124  11.255   4.157  0.0006 -0.4690 -0.5255
40748SOL     OW39853   2.132   9.441  12.684 -0.2897 -0.4801 -0.5012
40748SOL    HW139854   2.205   9.469  12.740 -1.1657  1.6938 -0.3286
40748SOL    HW239855   2.054   9.472  12.730 -1.1221  0.1379 -2.2403
40749SOL     OW39856   2.286   7.018   9.774  0.1383 -0.2599 -0.0353
40749SOL    HW139857   2.238   7.084   9.824 -0.6497  0.8282 -2.1271
40749SOL    HW239858   2.220   6.953   9.750 -0.0275  0.4414 -1.5993
40750SOL     OW39859  11.631   1.293   1.410  0.1116  0.2120 -0.0373
40750SOL    HW139860  11.669   1.290   1.497 -1.0968  0.6877  0.5243
40750SOL    HW239861  11.620   1.387   1.392  1.0401  0.1512 -1.0214
40751SOL     OW39862   2.921   7.631   1.327 -0.3975 -0.2853 -0.2303
40751SOL    HW139863   2.863   7.690   1.279 -0.5980  0.3669  0.7890
40751SOL    HW239864   2.976   7.591   1.259 -2.1055 -1.0343 -1.2283
40752SOL     OW39865   5.487   1.630  11.705 -0.3298  0.2654  0.1885
40752SOL    HW139866   5.537   1.710  11.691  0.2284 -0.2214 -0.7188
40752SOL    HW239867   5.396   1.658  11.706 -0.1430  0.8996 -0.2013
40753SOL     OW39868   1.722  10.876  10.357 -0.1968  0.1242  0.3712
40753SOL    HW139869   1.816  10.877  10.338 -0.3169 -0.5275 -0.3017
40753SOL    HW239870   1.716  10.851  10.449  0.2968  0.5299  0.5204
40754SOL     OW39871   0.309   1.044   9.307  0.0510  0.4515  0.1062
40754SOL    HW139872   0.347   1.072   9.390  0.3691  0.2105  0.0448
40754SOL    HW239873   0.260   0.964   9.328  1.9800 -0.9104 -0.3196
40755SOL     OW39874  14.065   8.640   4.309  0.0390  0.0926 -0.3813
40755SOL    HW139875  14.039   8.552   4.338  0.7800 -0.2669 -0.7624
40755SOL    HW239876  14.106   8.626   4.224 -0.6679  0.9369 -0.8724
40756SOL     OW39877   4.637   7.298   4.592  0.3021  0.9130  0.3854
40756SOL    HW139878   4.593   7.277   4.509 -0.2813  0.5515  0.7718
40756SOL    HW239879   4.724   7.326   4.567  0.5318 -0.3130 -0.2886
40757SOL     OW39880  11.664   8.825   6.929 -0.1586 -0.1932 -0.4846
40757SOL    HW139881  11.645   8.794   7.017 -1.5436  0.3114 -0.5788
40757SOL    HW239882  11.666   8.746   6.875 -2.7214 -0.2576 -0.5694
40758SOL     OW39883  10.504   4.617   7.102  0.1739  0.2094  0.0926
40758SOL    HW139884  10.581   4.666   7.131 -1.3345  2.7981  0.1035
40758SOL    HW239885  10.452   4.682   7.054 -1.3372 -1.8105 -1.1629
40759SOL     OW39886   6.745   1.896   7.886 -0.1305  0.2234 -0.3452
40759SOL    HW139887   6.756   1.972   7.943  1.9863  0.3963 -0.9024
40759SOL    HW239888   6.833   1.859   7.878 -0.0720  0.7761 -4.2529
40760SOL     OW39889   0.986   9.485   8.030  0.1632 -0.1786  0.7688
40760SOL    HW139890   1.057   9.422   8.042  0.0869 -0.3255  0.4531
40760SOL    HW239891   1.029   9.571   8.040  0.7858 -0.1934 -1.3041
40761SOL     OW39892   2.071   8.813  13.234  0.2838 -0.1948 -0.5716
40761SOL    HW139893   2.080   8.879  13.166 -1.6250 -1.7033 -2.4063
40761SOL    HW239894   2.153   8.763  13.231  1.4612  1.5518  0.3821
40762SOL     OW39895   8.889  11.319   0.701  0.3812  0.4107 -0.4721
40762SOL    HW139896   8.901  11.229   0.731 -0.3041  1.0449  1.9552
40762SOL    HW239897   8.975  11.346   0.671  0.8641 -0.7051 -0.1626
40763SOL     OW39898   5.694   5.814  11.051  0.2975 -0.0641 -0.4563
40763SOL    HW139899   5.776   5.764  11.046  0.9279  0.9599 -0.7940
40763SOL    HW239900   5.690   5.842  11.143  0.1499 -0.4178 -0.3582
40764SOL     OW39901   2.019   0.648  11.980 -0.4097 -0.4892  0.1793
40764SOL    HW139902   1.928   0.619  11.992 -0.8726  0.6134 -0.5049
40764SOL    HW239903   2.068   0.604  12.049 -1.4457 -1.1852  0.4942
40765SOL     OW39904  10.472   9.405   0.575  0.2881  0.5957  0.2133
40765SOL    HW139905  10.477   9.340   0.646  0.8779  0.5485  0.1359
40765SOL    HW239906  10.434   9.482   0.616  1.0593  0.7237  0.7045
40766SOL     OW39907   4.914   6.517   4.791  0.1831 -0.2569  0.3904
40766SOL    HW139908   4.889   6.549   4.705 -0.6604 -0.8647  0.3987
40766SOL    HW239909   4.995   6.564   4.812 -0.1501  0.6321 -0.2906
40767SOL     OW39910  12.532   0.372  11.596 -0.4408  0.4807 -0.2899
40767SOL    HW139911  12.603   0.311  11.576 -1.2188 -0.2668 -0.8423
40767SOL    HW239912  12.494   0.393  11.511 -1.4872  0.1151  0.0729
40768SOL     OW39913  13.465   6.509   4.533  0.7135 -0.7487  0.3642
40768SOL    HW139914  13.522   6.540   4.604 -0.6045  1.6406  0.4761
40768SOL    HW239915  13.490   6.562   4.458 -0.5783 -0.5008  0.1047
40769SOL     OW39916  13.886  11.400   9.442  0.6040  0.1739  0.5231
40769SOL    HW139917  13.933  11.370   9.519 -0.2598  0.6185  1.2355
40769SOL    HW239918  13.845  11.482   9.468  0.8510  0.6824 -0.6172
40770SOL     OW39919   8.726   9.298   2.037  0.3475 -1.2258 -0.6574
40770SOL    HW139920   8.649   9.355   2.047 -0.5391 -2.3962 -0.6630
40770SOL    HW239921   8.763   9.324   1.952  0.4076 -0.1407 -0.3203
40771SOL     OW39922   0.037  12.714   7.554  0.1390  0.2986  0.7229
40771SOL    HW139923  -0.029  12.652   7.523  0.1943  1.0343 -0.9418
40771SOL    HW239924   0.120  12.680   7.520  0.0507  1.7873 -1.1118
40772SOL     OW39925   3.299  12.005  11.952  0.2700 -0.2250  0.4159
40772SOL    HW139926   3.346  11.971  12.028  0.3294  1.1503  1.0244
40772SOL    HW239927   3.261  12.087  11.983  0.0372  0.2015 -0.9592
40773SOL     OW39928  12.380  12.180   5.924 -0.0938  0.1708  0.2379
40773SOL    HW139929  12.373  12.229   5.842  0.8207 -0.0905 -0.0065
40773SOL    HW239930  12.472  12.157   5.931 -0.3209 -0.6044  0.8850
40774SOL     OW39931   4.122   8.376  12.992 -0.0488  0.3778  0.5080
40774SOL    HW139932   4.068   8.307  12.953  0.5592  0.0261  0.2705
40774SOL    HW239933   4.163   8.419  12.917  0.7534  0.0140  0.7245
40775SOL     OW39934   3.964   4.425   2.910  0.4725  0.2724  0.3658
40775SOL    HW139935   3.870   4.408   2.918  0.1461  1.6028 -0.2923
40775SOL    HW239936   3.971   4.488   2.838  2.0430 -1.1334 -0.8057
40776SOL     OW39937  11.289   0.029  11.255  0.2973 -0.1962  0.1377
40776SOL    HW139938  11.213   0.081  11.283  0.0197  1.0741 -2.5581
40776SOL    HW239939  11.251  -0.049  11.214  0.5774 -0.8438  1.0943
40777SOL     OW39940   4.070   7.154   1.297  0.1154  0.2023 -0.3148
40777SOL    HW139941   4.108   7.238   1.271 -0.5838  1.3696  2.1986
40777SOL    HW239942   3.976   7.167   1.289  0.0114 -0.6483 -0.6547
40778SOL     OW39943  12.756   2.770   5.681  0.2568  0.6458  0.1123
40778SOL    HW139944  12.705   2.699   5.641  1.7058 -0.0095 -0.6160
40778SOL    HW239945  12.701   2.799   5.754 -0.1742 -1.5373  0.7386
40779SOL     OW39946   3.878   2.999   4.127 -0.2301 -0.3029  0.8477
40779SOL    HW139947   3.801   2.942   4.117 -0.1566 -1.0425  3.7159
40779SOL    HW239948   3.852   3.064   4.192  0.7985  0.9432  0.0519
40780SOL     OW39949   7.869   6.091  12.052  0.2810 -1.3081 -0.1284
40780SOL    HW139950   7.846   6.003  12.021  1.9598 -0.8345 -3.0879
40780SOL    HW239951   7.960   6.082  12.082 -0.0601 -0.8887  1.0695
40781SOL     OW39952   4.096   2.841   4.092 -0.1530 -0.5402  0.4617
40781SOL    HW139953   4.037   2.916   4.094  0.1653 -0.0022 -3.3543
40781SOL    HW239954   4.162   2.861   4.159 -1.0929  1.6638  0.8305
40782SOL     OW39955   1.286   8.740   7.357  0.1387 -0.4025  0.5957
40782SOL    HW139956   1.382   8.745   7.363  0.1232  0.0072  0.5374
40782SOL    HW239957   1.267   8.746   7.264 -0.1180  3.5061  0.7308
40783SOL     OW39958   3.424   5.344   6.673 -0.2318  0.3013  0.1115
40783SOL    HW139959   3.466   5.271   6.627 -0.4628 -0.3056  0.8494
40783SOL    HW239960   3.459   5.423   6.630  0.4579 -0.2269 -0.3099
40784SOL     OW39961   2.162   1.315  13.686  0.1017  0.3560  0.0300
40784SOL    HW139962   2.115   1.266  13.619  0.8040 -1.7598  1.0123
40784SOL    HW239963   2.097   1.332  13.754  0.3810 -1.4033  0.7843
40785SOL     OW39964  11.021   7.825   1.635  0.3572 -0.1002  0.1417
40785SOL    HW139965  11.002   7.828   1.541  0.5895 -0.5885  0.0746
40785SOL    HW239966  10.942   7.858   1.677  0.1927 -0.0310 -0.2199
40786SOL     OW39967   4.002   5.041  11.261 -0.0510 -0.3117 -0.1830
40786SOL    HW139968   4.094   5.059  11.284 -0.9226  2.5601  1.6366
40786SOL    HW239969   3.978   4.965  11.314  1.0945 -0.7370 -0.2409
40787SOL     OW39970   7.612   3.917   7.966 -0.0996  0.2805 -0.2817
40787SOL    HW139971   7.533   3.962   7.997 -0.4784 -2.1836  2.8085
40787SOL    HW239972   7.658   3.891   8.045  3.5654  0.9505 -1.9528
40788SOL     OW39973   7.659   7.387   4.875  0.2672 -0.1072  0.7003
40788SOL    HW139974   7.733   7.394   4.814  0.5008 -1.5920  0.7799
40788SOL    HW239975   7.679   7.451   4.943  1.0906  0.0576  0.3200
40789SOL     OW39976   7.045   3.971   7.138  0.1117  0.5277 -0.6898
40789SOL    HW139977   6.996   4.037   7.187  0.3225  0.1814 -0.0060
40789SOL    HW239978   7.122   4.018   7.106 -0.5556  1.0216 -1.6006
40790SOL     OW39979  13.748   8.815  11.889  0.3231 -0.3885  0.6178
40790SOL    HW139980  13.657   8.813  11.859  0.4164 -1.1342  0.3635
40790SOL    HW239981  13.772   8.723  11.900  1.7328 -0.3294 -1.4001
40791SOL     OW39982   2.686   5.214   5.405  0.7203 -0.3559 -0.2756
40791SOL    HW139983   2.663   5.134   5.357 -1.8472  1.0617 -1.6233
40791SOL    HW239984   2.638   5.207   5.487  0.6975 -0.3170 -0.2855
40792SOL     OW39985  12.096   2.534   1.340 -0.1825  0.1434 -0.4928
40792SOL    HW139986  12.029   2.474   1.373 -0.4799  1.0486  0.6144
40792SOL    HW239987  12.177   2.505   1.383  0.1205 -0.8085 -1.6553
40793SOL     OW39988   1.994  12.052  11.508 -0.6852  0.7604 -0.2350
40793SOL    HW139989   1.999  12.077  11.600  0.5575 -0.9355  0.2006
40793SOL    HW239990   1.902  12.067  11.484 -1.5706 -0.6812  1.8834
40794SOL     OW39991  11.509   2.180   7.990 -0.1471  0.1634 -0.1365
40794SOL    HW139992  11.580   2.122   8.017 -0.1316 -0.1701 -0.8670
40794SOL    HW239993  11.429   2.136   8.020 -0.0626  0.4736  0.5681
40795SOL     OW39994  12.939  10.850   0.631  0.1095  1.0088  0.1046
40795SOL    HW139995  12.979  10.772   0.592 -0.5687  0.0642  1.2235
40795SOL    HW239996  12.871  10.876   0.569  0.2703  0.6399 -0.2329
40796SOL     OW39997   7.100   5.331   4.302  0.2209  0.4259  0.0570
40796SOL    HW139998   7.099   5.239   4.276 -0.4186 -0.2669  2.3389
40796SOL    HW239999   7.166   5.372   4.245  0.9421 -1.5577 -0.5980
40797SOL     OW40000   2.131  12.439   9.043  0.2923  0.3159 -0.2121
40797SOL    HW140001   2.203  12.390   9.001  0.3895 -0.7584  1.1333
40797SOL    HW240002   2.067  12.371   9.066 -0.7781  1.1646 -0.6202
40798SOL     OW40003   4.104   4.427   9.838  0.3666  0.4827 -0.0839
40798SOL    HW140004   4.095   4.334   9.858 -0.7043  1.0109  2.2957
40798SOL    HW240005   4.105   4.432   9.743 -0.7084 -1.8618 -0.2702
40799SOL     OW40006   4.330   4.549   5.600 -0.6134 -0.0364 -0.1474
40799SOL    HW140007   4.368   4.526   5.685  1.4317 -1.1524 -1.3019
40799SOL    HW240008   4.398   4.600   5.556 -0.7399 -1.3694 -1.9863
40800SOL     OW40009   8.657   6.666   9.329 -0.0280 -0.3284 -0.0365
40800SOL    HW140010   8.588   6.599   9.325 -0.3483  0.0329 -0.9382
40800SOL    HW240011   8.644   6.718   9.250  0.4392  0.5888  0.4737
40801SOL     OW40012   7.511   1.089  13.401  0.0320 -0.1050 -0.0783
40801SOL    HW140013   7.491   1.150  13.472  0.5612 -1.4901  1.3335
40801SOL    HW240014   7.605   1.101  13.385 -0.2083  0.6700 -1.0573
40802SOL     OW40015  10.447  12.291   7.441 -0.2944  0.0694 -0.1121
40802SOL    HW140016  10.540  12.274   7.431 -0.0058  0.3754  1.6994
40802SOL    HW240017  10.409  12.271   7.356  1.4463  0.1307 -0.9288
40803SOL     OW40018  11.142  12.697   8.679  0.2905 -0.2709 -0.2139
40803SOL    HW140019  11.068  12.721   8.623  0.8425 -0.5536 -1.0649
40803SOL    HW240020  11.139  12.601   8.683  1.2642 -0.3456 -1.1456
40804SOL     OW40021   0.119   2.035   7.148 -0.0455 -0.0551  0.1098
40804SOL    HW140022   0.114   2.030   7.053  1.0988 -4.0126  0.0860
40804SOL    HW240023   0.211   2.018   7.168 -0.3420  0.2760  1.9561
40805SOL     OW40024   6.735   3.111   9.919  0.5899 -0.2647  0.0510
40805SOL    HW140025   6.830   3.115   9.911  0.4865  0.6426 -0.8840
40805SOL    HW240026   6.709   3.036   9.865  0.6875  0.2182 -0.6810
40806SOL     OW40027   3.360   8.573   6.318  0.4722  0.0010 -0.0005
40806SOL    HW140028   3.314   8.542   6.396  1.7704  0.7282  1.1121
40806SOL    HW240029   3.421   8.639   6.351  1.5979 -0.2089 -1.5283
40807SOL     OW40030   2.859   6.998   5.993  0.0483 -0.8961 -0.4332
40807SOL    HW140031   2.812   7.033   5.918 -2.8517  0.7318  1.9115
40807SOL    HW240032   2.825   6.910   6.005  0.1924 -0.9995 -0.8054
40808SOL     OW40033  10.094   5.194   6.304 -0.0579 -0.3056 -0.4068
40808SOL    HW140034  10.181   5.233   6.293  0.3028 -0.6633  0.9653
40808SOL    HW240035  10.084   5.137   6.227 -0.3719  1.9799 -2.1593
40809SOL     OW40036   5.153   4.618   1.667 -0.0441 -0.0645 -0.1901
40809SOL    HW140037   5.152   4.705   1.626 -0.1970 -0.0087 -0.0679
40809SOL    HW240038   5.162   4.557   1.594 -0.6875  0.0156 -0.3404
40810SOL     OW40039   2.939   6.852   6.564  0.0383 -0.1214 -0.0846
40810SOL    HW140040   2.877   6.914   6.602 -0.8871  0.3587 -2.2489
40810SOL    HW240041   3.019   6.903   6.551 -0.3726  0.3401 -0.8539
40811SOL     OW40042   0.174   4.216  11.248  0.4366 -0.0225 -0.3346
40811SOL    HW140043   0.266   4.220  11.220  0.2545 -1.6579 -1.2655
40811SOL    HW240044   0.158   4.302  11.289  1.7170  1.1875 -2.2093
40812SOL     OW40045   8.724   1.779   4.456  0.4201  0.1785  0.0270
40812SOL    HW140046   8.783   1.815   4.389 -0.1964 -1.4031 -1.4450
40812SOL    HW240047   8.638   1.817   4.433  0.0458 -1.0300 -0.6411
40813SOL     OW40048   0.124   8.016   1.184 -0.0917  0.2159 -0.3619
40813SOL    HW140049   0.159   7.945   1.239  0.1762  0.5674 -0.0773
40813SOL    HW240050   0.071   8.069   1.243  1.6202  1.6150  0.0049
40814SOL     OW40051  13.810   1.912   7.859 -0.0880 -0.0974 -0.8207
40814SOL    HW140052  13.740   1.910   7.925 -0.5410  2.2085 -1.1340
40814SOL    HW240053  13.764   1.904   7.775  0.3042 -1.1214 -0.9527
40815SOL     OW40054   3.525  10.423   0.185 -0.4820  0.2816 -0.1470
40815SOL    HW140055   3.549  10.466   0.267  1.5552 -1.8493  0.5092
40815SOL    HW240056   3.558  10.481   0.117 -1.0623  1.4732  0.5668
40816SOL     OW40057   1.410  11.919   8.341 -0.3964  0.2751  0.1015
40816SOL    HW140058   1.344  11.885   8.401  0.4335 -0.6564  0.5029
40816SOL    HW240059   1.402  11.865   8.263 -0.8411  0.8753 -0.2748
40817SOL     OW40060  10.136   9.618   3.963  0.7974  0.4989  0.5092
40817SOL    HW140061  10.126   9.545   4.024 -0.7236  0.2824  0.0395
40817SOL    HW240062  10.176   9.579   3.886  1.2766  0.4572  0.7736
40818SOL     OW40063  12.425  10.865   7.259  0.1856 -0.2029 -0.3879
40818SOL    HW140064  12.378  10.782   7.249  2.1255 -1.2478 -1.5445
40818SOL    HW240065  12.389  10.904   7.339 -1.6108 -1.5843 -0.4739
40819SOL     OW40066  13.118   4.668  10.095  0.0178  0.2768  0.5128
40819SOL    HW140067  13.130   4.730  10.167 -1.0738  1.8527 -0.5671
40819SOL    HW240068  13.042   4.702  10.048  0.2453 -1.1291 -0.9516
40820SOL     OW40069   1.738   8.090   8.546  0.4438 -0.3549 -0.1331
40820SOL    HW140070   1.757   8.153   8.616  0.3038  0.5519 -0.8919
40820SOL    HW240071   1.647   8.108   8.522 -0.1958 -2.0605  0.8400
40821SOL     OW40072   1.683   5.905   6.966  0.5531 -0.5352  0.3665
40821SOL    HW140073   1.764   5.892   6.917 -0.0656 -1.2097 -0.5139
40821SOL    HW240074   1.666   5.820   7.008  0.5614 -0.2522  0.9548
40822SOL     OW40075   6.095   9.861   5.218 -0.2792  0.3534  0.0149
40822SOL    HW140076   6.150   9.796   5.261 -0.6633  1.1642  1.8459
40822SOL    HW240077   6.077   9.825   5.132  2.5073 -0.2641 -0.3944
40823SOL     OW40078   2.422   5.858  11.609  0.1472  0.0126 -0.2084
40823SOL    HW140079   2.491   5.823  11.553 -0.2866  0.0330 -0.7743
40823SOL    HW240080   2.386   5.931  11.558  0.3134  0.5799  0.4760
40824SOL     OW40081   1.708   3.386   3.346  0.0617 -0.3466 -0.0858
40824SOL    HW140082   1.744   3.462   3.391  0.7764 -0.4398 -0.4999
40824SOL    HW240083   1.613   3.403   3.343  0.1331  0.1949  0.4279
40825SOL     OW40084  10.891   3.195   8.255 -0.8427  0.1104 -0.0796
40825SOL    HW140085  10.892   3.165   8.164 -1.1486 -0.1667  0.0053
40825SOL    HW240086  10.800   3.185   8.282 -0.5315 -0.9705  0.6394
40826SOL     OW40087   8.011   4.857   4.601 -0.3159  0.2816 -0.1270
40826SOL    HW140088   7.917   4.846   4.613 -0.0886 -0.7862  0.8536
40826SOL    HW240089   8.051   4.795   4.663  1.0168 -0.6690 -1.8391
40827SOL     OW40090   4.473   1.117   2.960  0.3718 -0.7057  0.2757
40827SOL    HW140091   4.447   1.073   2.879 -1.7732  1.6635 -0.4572
40827SOL    HW240092   4.397   1.107   3.018  1.4153 -1.3441  1.6005
40828SOL     OW40093   9.230   0.588   3.098  0.2534 -0.2934  0.4019
40828SOL    HW140094   9.173   0.594   3.021  1.9148 -0.4799 -0.9123
40828SOL    HW240095   9.256   0.496   3.100 -0.1288 -0.3924  1.4915
40829SOL     OW40096   8.315   1.324   6.808 -0.2980 -0.1825 -0.4391
40829SOL    HW140097   8.254   1.257   6.778 -0.0622 -0.7988  0.3938
40829SOL    HW240098   8.297   1.400   6.753 -2.2710 -0.1176  0.2202
40830SOL     OW40099   1.165   0.629   6.065  0.3914  0.4336  0.5184
40830SOL    HW140100   1.226   0.658   6.132  1.5768 -1.4323  0.3467
40830SOL    HW240101   1.119   0.556   6.105 -1.5028  1.5736  0.5035
40831SOL     OW40102  11.194   0.764  13.455 -0.6697 -0.4722 -0.4918
40831SOL    HW140103  11.221   0.856  13.450 -1.2700 -0.2557  0.0299
40831SOL    HW240104  11.124   0.757  13.390 -0.6505 -0.5467 -0.5032
40832SOL     OW40105  11.896   9.385   9.306 -0.3675 -0.8960  0.6063
40832SOL    HW140106  11.936   9.305   9.271 -2.3517 -1.9278  0.5525
40832SOL    HW240107  11.888   9.443   9.230 -0.0962 -1.1601  0.3762
40833SOL     OW40108  13.356  10.175   3.613  0.6077  0.5771 -0.2948
40833SOL    HW140109  13.336  10.253   3.562 -0.6483  0.6835  0.3329
40833SOL    HW240110  13.400  10.209   3.692  1.6685  0.4863 -0.8211
40834SOL     OW40111  12.924   1.457   1.257  0.0248  0.3925 -0.3541
40834SOL    HW140112  12.964   1.433   1.341  1.5257  0.4035 -1.0213
40834SOL    HW240113  12.945   1.550   1.247 -3.0026  1.2997  0.7336
40835SOL     OW40114   4.724  13.474   7.565  0.3545  0.6490  0.4037
40835SOL    HW140115   4.676  13.435   7.638  0.0985 -0.8644 -0.5316
40835SOL    HW240116   4.803  13.420   7.556  0.7033  1.2173 -0.0246
40836SOL     OW40117   8.463   0.052  13.040 -0.5862  0.2165 -0.1228
40836SOL    HW140118   8.415   0.135  13.043 -1.1453 -0.1211  1.1071
40836SOL    HW240119   8.399  -0.012  13.008 -0.0600  0.3015 -1.3976
40837SOL     OW40120   0.391   7.312   0.445  0.0567  0.0859  0.2273
40837SOL    HW140121   0.368   7.394   0.401  1.6001  0.6381  0.4119
40837SOL    HW240122   0.439   7.262   0.379  1.8179  0.6496  1.0117
40838SOL     OW40123   4.009  14.010   4.965 -0.0556 -0.3684  0.4814
40838SOL    HW140124   4.066  14.085   4.946 -1.5125  0.8455  0.7589
40838SOL    HW240125   4.070  13.937   4.979  1.3890  0.6743 -0.1106
40839SOL     OW40126  11.194  12.868   1.032 -0.3899 -0.0299  0.1329
40839SOL    HW140127  11.115  12.851   0.981 -0.8367 -1.0401  1.1416
40839SOL    HW240128  11.194  12.801   1.100  2.0980 -0.9899 -0.7035
40840SOL     OW40129   0.385   4.423   8.204  0.2172 -0.1368  0.5076
40840SOL    HW140130   0.470   4.382   8.186  0.1898  1.0254 -2.9537
40840SOL    HW240131   0.322   4.363   8.165 -0.2504  0.6830  0.0029
40841SOL     OW40132   7.669   3.638   4.001 -0.1842 -0.4055  0.4060
40841SOL    HW140133   7.761   3.614   3.992 -0.1183 -0.1126  0.2775
40841SOL    HW240134   7.649   3.624   4.094 -0.0458 -0.5925  0.4074
40842SOL     OW40135  13.104   9.864  10.277  0.0500 -0.0974 -0.1663
40842SOL    HW140136  13.082   9.879  10.185 -1.6129  2.9967  0.5937
40842SOL    HW240137  13.028   9.820  10.314  0.6458 -1.1816 -0.2023
40843SOL     OW40138   2.011   7.985   9.709  0.8326  0.4416 -0.7134
40843SOL    HW140139   2.060   8.031   9.777 -1.2169 -1.0910  1.9726
40843SOL    HW240140   1.996   7.898   9.745 -0.9350 -0.2366 -2.8552
40844SOL     OW40141  13.329   9.693  13.548 -0.1547  0.1636  0.2544
40844SOL    HW140142  13.403   9.648  13.506  0.5083 -0.0199  1.5794
40844SOL    HW240143  13.258   9.629  13.547 -0.1357  0.1456 -0.5256
40845SOL     OW40144   0.381   3.695   6.860  0.0645  0.0329  0.1235
40845SOL    HW140145   0.387   3.710   6.954 -0.3467  0.3191  0.1085
40845SOL    HW240146   0.437   3.762   6.821 -0.0246  0.1243  0.1523
40846SOL     OW40147   3.431   1.527   9.071 -0.0096 -0.2650 -0.1234
40846SOL    HW140148   3.493   1.500   9.002 -0.3818 -1.1391 -0.1394
40846SOL    HW240149   3.451   1.619   9.087 -0.4769  0.2241 -2.0209
40847SOL     OW40150  13.312   2.678   5.900 -0.0386 -0.0750 -0.6626
40847SOL    HW140151  13.295   2.752   5.842  0.1130 -0.4441 -1.1800
40847SOL    HW240152  13.234   2.673   5.956 -0.0160  0.5203 -0.5699
40848SOL     OW40153   8.888   3.200   2.173 -0.4025 -0.4037  0.3089
40848SOL    HW140154   8.853   3.116   2.142  0.8006 -1.1568  0.9319
40848SOL    HW240155   8.918   3.244   2.093  0.0628 -1.0826  0.1049
40849SOL     OW40156  12.369  10.195  12.954 -0.6770 -0.0045 -0.0679
40849SOL    HW140157  12.354  10.101  12.963  0.4457 -0.2649 -0.7145
40849SOL    HW240158  12.464  10.205  12.963 -0.7510  1.0328 -0.3025
40850SOL     OW40159   7.877   6.288   8.687  0.2628 -0.2897 -0.3272
40850SOL    HW140160   7.952   6.263   8.632  1.1767  0.9504  0.2914
40850SOL    HW240161   7.802   6.245   8.646  0.7954  0.9967 -2.8901
40851SOL     OW40162   3.669   1.961   0.299 -0.1374 -0.2422 -0.7270
40851SOL    HW140163   3.582   2.001   0.309 -0.6261 -1.3091 -0.5174
40851SOL    HW240164   3.661   1.906   0.222  0.2882 -0.5352 -0.5635
40852SOL     OW40165  13.515  12.690   2.390  0.5228 -0.0886  0.1085
40852SOL    HW140166  13.420  12.692   2.403  0.4316 -3.5957  1.1394
40852SOL    HW240167  13.527  12.720   2.300 -1.6268 -0.0277 -0.2178
40853SOL     OW40168  11.332  12.860   1.763  0.2889  0.3309 -0.1456
40853SOL    HW140169  11.422  12.844   1.791  0.1650  0.1614  0.1579
40853SOL    HW240170  11.292  12.773   1.763 -0.1504  0.5274  0.6804
40854SOL     OW40171   4.597   2.310  12.416 -0.0779  0.2671  0.6298
40854SOL    HW140172   4.678   2.262  12.432 -0.1992  0.0897  0.7100
40854SOL    HW240173   4.610   2.394  12.459  0.8183  0.9787 -0.9425
40855SOL     OW40174   6.977   0.901   0.728 -0.0370 -0.4056 -0.3208
40855SOL    HW140175   6.995   0.964   0.797 -2.1723  0.3356 -0.3984
40855SOL    HW240176   6.892   0.863   0.751 -0.7518 -0.2119 -2.4728
40856SOL     OW40177  11.289   3.108   3.132  0.2962  0.7941 -0.5350
40856SOL    HW140178  11.194   3.096   3.136  0.4515 -0.4783 -0.2076
40856SOL    HW240179  11.319   3.092   3.221  0.8170  1.2060 -0.6321
40857SOL     OW40180   5.600  10.445   1.218  0.4842 -0.4870 -0.1219
40857SOL    HW140181   5.590  10.457   1.313 -0.9026  1.3338 -0.4316
40857SOL    HW240182   5.532  10.383   1.194  0.5585 -0.6217  0.0152
40858SOL     OW40183  13.093  10.722   7.001  0.1275  0.0873 -0.0909
40858SOL    HW140184  13.168  10.717   6.942  0.3617  0.2470  0.1877
40858SOL    HW240185  13.023  10.675   6.956  0.6208 -0.7333 -0.0132
40859SOL     OW40186  12.582  10.641   6.402 -0.1706  0.2202  0.4170
40859SOL    HW140187  12.553  10.656   6.313  2.1972  0.1567 -0.4469
40859SOL    HW240188  12.581  10.546   6.413  0.0950  0.1966  0.2414
40860SOL     OW40189  11.335   4.952   9.333 -0.0252 -0.3317  0.2679
40860SOL    HW140190  11.262   4.898   9.302 -0.2393 -0.3679  0.8284
40860SOL    HW240191  11.301   5.042   9.333  0.8831  0.1120 -2.4217
40861SOL     OW40192   9.195   4.235   5.254  0.7420 -0.4877 -0.2260
40861SOL    HW140193   9.189   4.329   5.244  0.1763 -0.7138 -2.3566
40861SOL    HW240194   9.256   4.223   5.328  1.3321  1.5066 -0.3369
40862SOL     OW40195   3.377  12.503  14.059  0.0957  0.0144 -0.2323
40862SOL    HW140196   3.303  12.494  13.998  1.1099 -2.3383 -1.2695
40862SOL    HW240197   3.337  12.504  14.146 -1.2027 -1.0164 -0.7763
40863SOL     OW40198   7.298   4.066  10.341  0.2864 -0.4545  0.0490
40863SOL    HW140199   7.374   4.010  10.358 -0.5157 -1.1685  1.4382
40863SOL    HW240200   7.222   4.008  10.352 -0.5733  0.8676  1.5030
40864SOL     OW40201  12.770   3.766  11.358  0.0969 -0.3488 -0.1214
40864SOL    HW140202  12.793   3.693  11.300 -0.9486 -0.9142  0.1580
40864SOL    HW240203  12.727   3.724  11.433  0.8781  0.4264  0.7786
40865SOL     OW40204   7.592  10.808   5.468 -0.3322 -0.7887 -0.1108
40865SOL    HW140205   7.607  10.897   5.497 -0.7622 -1.0104  0.8197
40865SOL    HW240206   7.497  10.795   5.478 -0.3087 -1.2711 -0.4560
40866SOL     OW40207  14.079   2.762  10.867  0.7439 -0.6098  0.5231
40866SOL    HW140208  14.171   2.740  10.861  1.3146  1.5042  0.7123
40866SOL    HW240209  14.062   2.771  10.961 -0.4882 -3.8768  0.7662
40867SOL     OW40210   0.924  12.081   3.377 -0.6048 -0.4584  0.5891
40867SOL    HW140211   0.855  12.023   3.347 -0.7443 -0.8341  1.5861
40867SOL    HW240212   0.943  12.138   3.302 -0.3604 -1.8721 -0.4696
40868SOL     OW40213   5.196  13.756   0.138  0.1179  0.1358 -0.1131
40868SOL    HW140214   5.216  13.841   0.178 -1.8363  1.1163 -1.1004
40868SOL    HW240215   5.117  13.772   0.086  1.1762 -1.6447 -2.4487
40869SOL     OW40216   4.148  12.931  13.703  0.2033 -0.2544 -0.3553
40869SOL    HW140217   4.210  12.896  13.766  1.2071  1.2241 -0.4551
40869SOL    HW240218   4.093  12.857  13.679 -0.6221 -0.7813  2.6767
40870SOL     OW40219   7.865   0.318   1.513 -0.0781  0.3275  0.5286
40870SOL    HW140220   7.949   0.333   1.470  0.5091  0.0715  1.5587
40870SOL    HW240221   7.882   0.246   1.574 -1.3796 -0.6344 -0.1748
40871SOL     OW40222   8.948   8.099   2.671  0.0006 -0.4069  0.0990
40871SOL    HW140223   8.916   8.014   2.643  1.9139 -1.1824  0.1001
40871SOL    HW240224   8.930   8.158   2.598  0.6435 -1.3328 -0.8263
40872SOL     OW40225   6.967   9.153   3.869  0.3812  0.1327 -0.4468
40872SOL    HW140226   6.911   9.130   3.795 -0.6167  0.4171  0.1964
40872SOL    HW240227   6.976   9.072   3.919 -1.1001  0.5107  0.4952
40873SOL     OW40228   1.588   4.183   3.708 -0.2017  0.2139 -0.0493
40873SOL    HW140229   1.540   4.124   3.766  1.9509 -0.8613  0.7415
40873SOL    HW240230   1.570   4.150   3.620 -1.0516 -0.0270  0.2048
40874SOL     OW40231   0.875  10.600  13.129  0.3209  0.0118 -0.1340
40874SOL    HW140232   0.819  10.625  13.055 -1.9460 -0.1609  1.4391
40874SOL    HW240233   0.815  10.590  13.203  1.9544 -3.4978  0.9330
40875SOL     OW40234   4.949   3.362  14.057  0.3326 -0.0284 -0.0991
40875SOL    HW140235   5.010   3.292  14.081 -1.2163 -0.8253  1.8360
40875SOL    HW240236   4.875   3.351  14.118 -1.5966  1.1001 -2.1046
40876SOL     OW40237   5.621  10.462  10.234  0.1290 -0.2048 -0.1642
40876SOL    HW140238   5.572  10.520  10.176  0.7180  0.6565  0.1763
40876SOL    HW240239   5.710  10.462  10.198  0.2707 -0.4246  0.1838
40877SOL     OW40240   7.758   2.107   1.608  0.7011 -0.4204  0.3379
40877SOL    HW140241   7.736   2.077   1.520 -0.9526  1.0133  0.2133
40877SOL    HW240242   7.689   2.069   1.663 -0.6829  1.9227  0.3585
40878SOL     OW40243   4.654   4.184   6.545  0.0470  0.4992 -0.2248
40878SOL    HW140244   4.638   4.108   6.488  1.4171  1.1481 -1.5489
40878SOL    HW240245   4.624   4.259   6.494  0.5867  1.0272  0.2252
40879SOL     OW40246   2.468  13.910  12.662  0.0711 -0.2699  0.1793
40879SOL    HW140247   2.377  13.885  12.644 -0.3325  0.2107  1.4470
40879SOL    HW240248   2.494  13.961  12.586 -1.3099  1.0834  0.5622
40880SOL     OW40249   4.727  11.427  11.150  0.3677 -0.4037 -0.3354
40880SOL    HW140250   4.657  11.490  11.164 -0.4163 -0.7324 -2.3423
40880SOL    HW240251   4.707  11.355  11.211  0.1999  0.4450  0.6289
40881SOL     OW40252  13.345  12.257   8.332 -0.1761 -0.4103  0.3089
40881SOL    HW140253  13.433  12.253   8.371 -0.1369  1.8020  0.5521
40881SOL    HW240254  13.360  12.237   8.240  0.4917 -0.6788  0.4665
40882SOL     OW40255  12.424  11.499  13.032 -0.1366 -0.0771  0.5523
40882SOL    HW140256  12.454  11.545  12.953 -0.0507 -2.1310 -0.6746
40882SOL    HW240257  12.328  11.506  13.029 -0.1830 -0.9111 -0.2460
40883SOL     OW40258  12.764   5.626  13.331 -0.1191  0.8943 -0.1052
40883SOL    HW140259  12.783   5.711  13.371 -0.1148  0.3196  1.1548
40883SOL    HW240260  12.797   5.562  13.394 -1.3548 -0.0601 -0.3920
40884SOL     OW40261   3.305   2.942   0.443  0.1983 -0.4097  0.0911
40884SOL    HW140262   3.273   2.930   0.533  0.0342  0.4246  0.1518
40884SOL    HW240263   3.246   2.890   0.389 -0.2551 -0.2095  0.3824
40885SOL     OW40264  10.776  12.688   0.394  0.5047  0.3643 -0.4185
40885SOL    HW140265  10.811  12.760   0.342 -0.9710  1.9701  0.6911
40885SOL    HW240266  10.697  12.660   0.347  0.0645  0.7220  0.1006
40886SOL     OW40267   9.375  13.735   6.405  0.0949 -0.1738  0.0192
40886SOL    HW140268   9.386  13.653   6.357  1.0868 -1.2533  1.9713
40886SOL    HW240269   9.344  13.797   6.339 -0.5263 -2.0541 -1.5607
40887SOL     OW40270   9.655   3.060  12.783 -0.7837 -0.2163  0.8984
40887SOL    HW140271   9.621   3.116  12.853 -0.0823 -0.5788  1.5384
40887SOL    HW240272   9.687   2.982  12.828 -1.0012 -0.7824  0.0914
40888SOL     OW40273  11.649   1.785   9.483  0.1187 -0.1706  0.2363
40888SOL    HW140274  11.623   1.853   9.421  3.1139  1.6797  0.8434
40888SOL    HW240275  11.709   1.729   9.434  1.2924  0.4002  0.9723
40889SOL     OW40276   8.120  10.487   4.832 -0.2474  0.2866  0.0992
40889SOL    HW140277   8.176  10.410   4.845 -0.2653  0.3445  0.5579
40889SOL    HW240278   8.179  10.553   4.795 -0.3244 -0.0692 -0.6737
40890SOL     OW40279  10.994   7.843   4.966  0.8090  0.3169  0.3299
40890SOL    HW140280  11.042   7.926   4.975  1.2544  0.1076 -0.0719
40890SOL    HW240281  10.970   7.840   4.873 -1.1433  1.0400  0.7550
40891SOL     OW40282   1.798   1.070   8.192  0.0173  0.2635  0.1950
40891SOL    HW140283   1.736   0.998   8.205 -1.3559  1.5119  0.7877
40891SOL    HW240284   1.873   1.029   8.150 -1.1748 -1.3106 -0.4947
40892SOL     OW40285   8.112   8.766  13.055  0.3528  0.5076 -0.8031
40892SOL    HW140286   8.149   8.721  12.979 -1.1732  1.8936 -2.4689
40892SOL    HW240287   8.179   8.831  13.078  0.2485  1.0584 -1.9386
40893SOL     OW40288   4.081   7.733  12.077 -0.2284  0.0228  0.3423
40893SOL    HW140289   4.054   7.783  12.154 -2.6081  1.7003 -1.3994
40893SOL    HW240290   4.121   7.798  12.019 -0.1565 -0.8102 -0.5757
40894SOL     OW40291   3.873   3.576  11.712  0.6461  0.2212 -0.4172
40894SOL    HW140292   3.938   3.636  11.677  1.3076 -1.3591 -2.0862
40894SOL    HW240293   3.903   3.489  11.684 -0.4069 -0.8877  1.6444
40895SOL     OW40294   0.813   0.748   1.893 -0.1742  0.1409 -0.2695
40895SOL    HW140295   0.857   0.788   1.969  0.1068 -0.3211 -0.1859
40895SOL    HW240296   0.845   0.658   1.891 -0.5933 -0.0050 -0.6223
40896SOL     OW40297   9.082   6.150  13.027  0.4430 -0.4819 -0.2987
40896SOL    HW140298   9.008   6.179  12.973 -1.0401 -0.2899  1.7353
40896SOL    HW240299   9.097   6.060  13.001 -0.8282 -0.6741 -0.4384
40897SOL     OW40300   0.360   7.961   3.195 -0.2715  0.2923 -0.7800
40897SOL    HW140301   0.378   7.992   3.284  0.4505 -0.0128 -0.8142
40897SOL    HW240302   0.274   7.997   3.174 -0.4409  0.3755  0.0381
40898SOL     OW40303   0.412   4.127   4.927  0.0584  0.1462 -0.3699
40898SOL    HW140304   0.418   4.037   4.959  0.7952  0.2962 -0.0576
40898SOL    HW240305   0.503   4.156   4.923 -0.2006  0.9954 -0.1299
40899SOL     OW40306   1.183   8.650  13.960 -0.0398  0.0446 -0.2341
40899SOL    HW140307   1.132   8.582  14.004  0.3859 -0.7086 -0.8669
40899SOL    HW240308   1.136   8.667  13.879 -1.3063  2.0639  0.8439
40900SOL     OW40309  12.576   9.854   4.400 -0.1067  0.3854  0.1782
40900SOL    HW140310  12.560   9.878   4.491  0.8681 -0.2156  0.5334
40900SOL    HW240311  12.658   9.803   4.403  0.2873  0.9047 -1.1186
40901SOL     OW40312   3.842   9.357   6.905  0.3777  0.3427  0.3159
40901SOL    HW140313   3.900   9.284   6.926  0.8015  0.7313  0.5245
40901SOL    HW240314   3.875   9.430   6.958  0.3512  0.8511 -0.3485
40902SOL     OW40315   3.686  13.308   1.996 -0.3378  0.0873 -0.5215
40902SOL    HW140316   3.622  13.241   2.017 -0.3793 -0.3280 -1.8953
40902SOL    HW240317   3.770  13.273   2.027 -0.4829 -0.2389 -0.4996
40903SOL     OW40318   0.730  13.771  10.718  0.2638  0.0434  0.3956
40903SOL    HW140319   0.815  13.802  10.686  1.0134 -2.9726 -0.8963
40903SOL    HW240320   0.743  13.759  10.812  0.0355  3.0508  0.8907
40904SOL     OW40321  12.706   1.059   2.215  0.2366 -0.6491 -0.5248
40904SOL    HW140322  12.618   1.093   2.232  0.9519  1.4078 -0.6266
40904SOL    HW240323  12.692   0.985   2.155 -1.3230  0.7020 -1.9411
40905SOL     OW40324   2.481   5.640   3.650  0.6290  0.5215 -0.2217
40905SOL    HW140325   2.556   5.583   3.666 -0.0794 -1.2795 -2.7398
40905SOL    HW240326   2.513   5.728   3.669  2.4775 -0.4406  1.5139
40906SOL     OW40327   1.517   7.182  12.905  0.3506  0.1922 -0.7471
40906SOL    HW140328   1.443   7.131  12.939  1.0994 -1.1520 -1.0810
40906SOL    HW240329   1.498   7.272  12.933 -1.8892  0.0651 -1.6191
40907SOL     OW40330   4.496   9.037   3.532 -0.4641 -0.0826  0.0643
40907SOL    HW140331   4.515   8.995   3.616  0.2272  1.3796  0.6834
40907SOL    HW240332   4.573   9.020   3.478  0.0223  0.7632  0.4786
40908SOL     OW40333   6.902  11.020   5.750 -0.0231  0.6415  0.1609
40908SOL    HW140334   6.859  11.092   5.704  0.0158  0.8188  0.4035
40908SOL    HW240335   6.967  11.062   5.806  0.0729  0.4110  0.2237
40909SOL     OW40336  13.383   8.650   9.464  0.0522  0.3131  0.6834
40909SOL    HW140337  13.446   8.669   9.395  1.0518 -0.8372  1.2380
40909SOL    HW240338  13.333   8.731   9.475  0.6536  0.8750 -0.5649
40910SOL     OW40339  11.482   6.966   6.912  0.1652  0.2652 -0.4938
40910SOL    HW140340  11.546   6.912   6.864 -0.3846 -0.0622 -0.8654
40910SOL    HW240341  11.490   7.053   6.873  1.6594  0.7006  0.6731
40911SOL     OW40342   6.415   9.184  12.926 -0.2950 -0.5030  0.0434
40911SOL    HW140343   6.396   9.178  12.832 -0.2836  0.8249 -0.0613
40911SOL    HW240344   6.352   9.248  12.959  0.2506 -0.3417  0.7903
40912SOL     OW40345  12.438  10.193   9.201 -0.7478 -0.2560  0.9916
40912SOL    HW140346  12.391  10.181   9.119  0.2416 -2.4421  0.6593
40912SOL    HW240347  12.507  10.256   9.181 -1.0596 -0.1108  0.3798
40913SOL     OW40348  11.257   7.089  12.714 -0.0637  0.1747 -0.0160
40913SOL    HW140349  11.183   7.051  12.761 -0.9549  0.9933 -0.7255
40913SOL    HW240350  11.312   7.128  12.782  0.1778 -1.1580  0.5981
40914SOL     OW40351  13.869   1.359   3.984 -0.4074  0.7413 -0.1102
40914SOL    HW140352  13.775   1.357   3.964  0.1063  1.8599 -3.1865
40914SOL    HW240353  13.907   1.413   3.915  2.6390 -0.3951  0.5117
40915SOL     OW40354  13.276   1.991   7.507 -1.0610 -0.1862 -0.5483
40915SOL    HW140355  13.242   1.946   7.584 -0.8669 -0.2127 -0.4781
40915SOL    HW240356  13.371   1.985   7.516 -1.0381 -0.1225 -0.7500
40916SOL     OW40357   0.152   3.468  10.428 -0.0557 -0.3301 -0.0550
40916SOL    HW140358   0.162   3.425  10.344  1.1952 -2.5868  1.1602
40916SOL    HW240359   0.095   3.410  10.478 -0.0122  0.4879  0.9818
40917SOL     OW40360   8.617  11.833  11.837  0.4478  0.5251 -0.2063
40917SOL    HW140361   8.567  11.778  11.896  1.1390  0.8466  0.6920
40917SOL    HW240362   8.682  11.774  11.798 -0.1166  0.2777 -0.7897
40918SOL     OW40363   9.717   1.032  13.258 -0.0785  0.1934 -0.1330
40918SOL    HW140364   9.804   1.037  13.217 -0.1509  0.2043 -0.2869
40918SOL    HW240365   9.671   1.109  13.226 -0.2399  0.0410 -0.2765
40919SOL     OW40366   1.031  10.931  13.204 -0.9769 -0.3357  0.0236
40919SOL    HW140367   0.985  10.984  13.139  0.7701  0.7252 -0.4474
40919SOL    HW240368   1.099  10.990  13.239 -1.2203 -1.1811  2.1053
40920SOL     OW40369  11.260  12.067  10.882 -0.4186  0.0651  0.3306
40920SOL    HW140370  11.267  12.159  10.910  0.7086  0.0528  0.1030
40920SOL    HW240371  11.345  12.029  10.903 -0.2699 -0.4887 -1.1666
40921SOL     OW40372   4.141   7.331   0.338  0.0771  0.0052  0.3067
40921SOL    HW140373   4.229   7.292   0.344  1.2845  2.2182 -1.4213
40921SOL    HW240374   4.113   7.311   0.248 -1.2918 -0.7891  0.8834
40922SOL     OW40375  13.597   7.965  10.673  0.9816  0.2641  0.5724
40922SOL    HW140376  13.654   7.894  10.703  0.2285 -0.6937 -0.1982
40922SOL    HW240377  13.583   7.946  10.580 -0.9587  0.1963  0.8434
40923SOL     OW40378   6.389   6.341  13.195 -0.3851  0.1997  0.0988
40923SOL    HW140379   6.484   6.341  13.208 -0.2187  1.0217 -1.0045
40923SOL    HW240380   6.367   6.248  13.182  0.3138  0.0393  0.0228
40924SOL     OW40381   1.846   9.374   3.483 -0.3043  0.1356 -0.7333
40924SOL    HW140382   1.855   9.280   3.466 -0.1425 -0.0637  0.3940
40924SOL    HW240383   1.924   9.397   3.533 -0.9454  0.6148  0.0665
40925SOL     OW40384   1.395   1.546  10.319 -0.8258  0.4454  0.2303
40925SOL    HW140385   1.399   1.519  10.410 -1.6591  0.6065  0.3264
40925SOL    HW240386   1.473   1.508  10.279 -1.7775 -1.8916  0.4166
40926SOL     OW40387   0.711  13.041   4.753  0.2576  0.0430 -0.2022
40926SOL    HW140388   0.681  13.094   4.826  1.5706 -0.2844  0.6178
40926SOL    HW240389   0.698  12.950   4.781  4.4284 -0.2623  1.4603
40927SOL     OW40390  13.843   2.349   0.378  0.1097  0.2158 -0.3902
40927SOL    HW140391  13.931   2.336   0.415 -0.4550 -0.2801  0.8419
40927SOL    HW240392  13.845   2.302   0.295  1.0157  0.2353 -0.3976
40928SOL     OW40393   0.884   8.983  11.572 -0.2098 -0.1194 -0.2096
40928SOL    HW140394   0.863   9.006  11.663 -1.1644 -0.3223 -0.3728
40928SOL    HW240395   0.887   8.888  11.572 -2.0943 -0.2189 -0.7671
40929SOL     OW40396  11.618  13.478   4.230 -0.2518  0.0568 -0.7400
40929SOL    HW140397  11.671  13.523   4.165  0.6687  2.1325  1.2776
40929SOL    HW240398  11.648  13.387   4.228  1.3446  0.5781 -1.6388
40930SOL     OW40399   9.001   1.637   8.364  0.0728 -0.0567 -0.0504
40930SOL    HW140400   9.059   1.688   8.308  0.4501  0.3405  0.6926
40930SOL    HW240401   9.050   1.558   8.385  0.8839  0.8374  1.6006
40931SOL     OW40402   8.169  10.032   4.823 -0.0026 -0.0728  0.4843
40931SOL    HW140403   8.138   9.944   4.841  0.1265 -0.5427 -1.4472
40931SOL    HW240404   8.092  10.088   4.836 -0.6063 -0.7222 -0.2403
40932SOL     OW40405  13.342   2.978   1.258 -0.0771 -0.0972  0.1556
40932SOL    HW140406  13.430   2.965   1.224  0.1315  2.2897 -0.4385
40932SOL    HW240407  13.289   2.998   1.180 -1.0280 -0.8574  0.5760
40933SOL     OW40408   4.327  11.557   8.261  0.0419  0.3515  0.0981
40933SOL    HW140409   4.326  11.627   8.196  1.1543  1.1993  0.9726
40933SOL    HW240410   4.279  11.592   8.336  0.9050  0.3275  0.6733
40934SOL     OW40411   0.061   3.610  13.106  0.8134 -0.2923 -0.0167
40934SOL    HW140412   0.095   3.591  13.019 -0.6422  0.5553 -0.7960
40934SOL    HW240413  -0.026   3.646  13.091 -0.8248 -3.0657  1.8983
40935SOL     OW40414   3.556   1.228   9.947  0.4660  0.4581  1.2049
40935SOL    HW140415   3.512   1.264   9.870  0.6952 -0.8024  0.4583
40935SOL    HW240416   3.497   1.247  10.019 -0.1152  0.9862  0.6105
40936SOL     OW40417   2.590   5.968   7.287  0.2260 -0.2451 -0.2486
40936SOL    HW140418   2.672   5.921   7.300  0.8465  1.0665  0.7843
40936SOL    HW240419   2.540   5.953   7.367  0.1264  0.2471 -0.2128
40937SOL     OW40420  10.605  11.442   2.514 -0.2889  0.6952  0.1411
40937SOL    HW140421  10.656  11.523   2.520 -1.8662  1.7300  0.0859
40937SOL    HW240422  10.554  11.440   2.595  0.3783 -0.7317  0.5574
40938SOL     OW40423   5.186  11.186   9.254 -0.1331 -0.2711  0.1253
40938SOL    HW140424   5.245  11.175   9.328 -1.0100 -1.2646  0.7030
40938SOL    HW240425   5.132  11.261   9.278  0.4509  0.2341 -0.1143
40939SOL     OW40426  13.990   2.048   1.109 -0.3652 -0.2976  0.1378
40939SOL    HW140427  13.900   2.044   1.142 -1.3648 -1.0079 -2.4210
40939SOL    HW240428  13.980   2.067   1.015  2.1733 -0.2961 -0.1952
40940SOL     OW40429   6.681   7.547   4.970 -0.0979 -0.0877  0.0218
40940SOL    HW140430   6.656   7.558   4.878 -0.7323 -0.3427  0.1574
40940SOL    HW240431   6.757   7.489   4.967 -1.8387 -2.5148 -0.2015
40941SOL     OW40432   0.285   4.669   6.306  0.2721 -0.0901 -0.1152
40941SOL    HW140433   0.365   4.719   6.294  0.0589  0.2718 -0.0605
40941SOL    HW240434   0.276   4.660   6.400 -0.1838  0.5961 -0.0829
40942SOL     OW40435   2.902   3.656   0.062 -0.0566  0.7097 -0.3649
40942SOL    HW140436   2.848   3.578   0.051  0.5849  0.1981  0.0513
40942SOL    HW240437   2.926   3.682  -0.027 -0.9054  0.8973 -0.5493
40943SOL     OW40438   7.493   3.803   2.764  0.6032 -0.1415  0.5833
40943SOL    HW140439   7.540   3.849   2.833  0.3698 -1.2295  1.4929
40943SOL    HW240440   7.457   3.872   2.709  3.0962  0.7586 -0.0763
40944SOL     OW40441  12.678   4.636   2.747  0.1432  0.0472 -0.2519
40944SOL    HW140442  12.723   4.701   2.693  1.1938 -1.0778 -0.7746
40944SOL    HW240443  12.634   4.579   2.684  2.2666 -1.9327 -0.0530
40945SOL     OW40444  13.965   5.687   7.195 -0.0618 -0.8410 -0.4427
40945SOL    HW140445  13.896   5.655   7.253 -0.1820 -1.5811 -0.9835
40945SOL    HW240446  13.932   5.671   7.107  0.8780 -1.3979 -0.7139
40946SOL     OW40447   8.849   7.004  11.697 -0.2821  0.3127 -0.3544
40946SOL    HW140448   8.837   6.943  11.769  0.0315  0.5434 -0.1023
40946SOL    HW240449   8.775   7.065  11.704 -0.2485  0.3376 -0.2228
40947SOL     OW40450  14.019  12.278   8.255 -0.0412  0.2158 -0.1683
40947SOL    HW140451  14.031  12.199   8.203  3.0974  0.8523 -0.6201
40947SOL    HW240452  13.992  12.345   8.192 -2.4004 -0.3389  0.1659
40948SOL     OW40453  10.087  14.028   5.161 -0.4826  0.2816  0.0706
40948SOL    HW140454  10.131  13.997   5.240  1.5065 -0.1621 -1.1691
40948SOL    HW240455  10.009  13.973   5.155  1.1156 -2.0975 -0.1177
40949SOL     OW40456   5.855   1.998  12.438  0.0107 -0.1169 -0.0139
40949SOL    HW140457   5.781   2.016  12.379  0.1919 -0.2574 -0.2865
40949SOL    HW240458   5.914   2.072  12.425 -0.2705  0.2046  0.5111
40950SOL     OW40459   3.849   9.728   5.501  0.0103 -0.1881  0.2968
40950SOL    HW140460   3.884   9.661   5.559 -0.2367 -1.5212 -1.0328
40950SOL    HW240461   3.755   9.711   5.498  0.1252 -0.6785 -1.1198
40951SOL     OW40462  12.419   3.242   0.313  0.1634 -0.2022  0.1521
40951SOL    HW140463  12.399   3.149   0.322 -0.3528 -0.5702 -3.4951
40951SOL    HW240464  12.335   3.284   0.293  0.6165  0.8370  0.3305
40952SOL     OW40465  13.665   8.062   0.892  0.1547  0.5606  0.0813
40952SOL    HW140466  13.739   8.042   0.835  0.1553  0.5268  0.0948
40952SOL    HW240467  13.620   7.979   0.904 -0.1111  0.6584 -0.2409
40953SOL     OW40468   6.234   0.467  12.680 -0.5698 -0.4975 -0.6708
40953SOL    HW140469   6.235   0.501  12.591 -0.3715 -0.3622 -0.6181
40953SOL    HW240470   6.316   0.417  12.688 -0.6574 -0.6340 -0.6121
40954SOL     OW40471  11.718   1.381   7.898  0.1389  0.5385  0.3438
40954SOL    HW140472  11.691   1.293   7.873  0.3912  0.5184  0.1438
40954SOL    HW240473  11.786   1.368   7.964 -0.2191  0.5883  0.7259
40955SOL     OW40474   3.143   9.323  11.558  0.2780  0.2549  0.3160
40955SOL    HW140475   3.065   9.350  11.510  0.9506  1.5808 -0.0629
40955SOL    HW240476   3.113   9.317  11.649 -0.4424 -0.0102  0.0705
40956SOL     OW40477   4.831   0.750  10.902  0.2930  0.1186  0.4851
40956SOL    HW140478   4.902   0.809  10.878  1.2177 -0.6388  1.2611
40956SOL    HW240479   4.788   0.792  10.976 -0.0946  0.5828  0.0079
40957SOL     OW40480   3.611   3.162   0.381  0.0319 -0.0314 -0.4041
40957SOL    HW140481   3.602   3.068   0.398  0.6451 -0.3558 -1.7409
40957SOL    HW240482   3.521   3.194   0.374 -0.1801 -0.5179  0.0018
40958SOL     OW40483   1.895  12.010   2.191  0.8228 -0.3766  0.1021
40958SOL    HW140484   1.939  12.091   2.214  0.1159  0.0364  0.0221
40958SOL    HW240485   1.808  12.018   2.230  0.3339 -0.5748 -0.9294
40959SOL     OW40486   9.603  12.693   7.614 -0.7277  0.2805  0.4120
40959SOL    HW140487   9.683  12.742   7.596 -0.2485  0.1725  2.0908
40959SOL    HW240488   9.599  12.689   7.710 -2.8658  0.4790  0.3660
40960SOL     OW40489   6.055   1.796   4.471 -0.1947  0.5764 -0.5417
40960SOL    HW140490   6.008   1.741   4.409 -0.4110 -1.6536  1.4347
40960SOL    HW240491   6.014   1.778   4.556  1.5600  1.6717  0.6232
40961SOL     OW40492   6.144   8.429  13.500 -0.5531  0.5947 -0.2725
40961SOL    HW140493   6.102   8.344  13.498  0.0267  0.2769  0.6287
40961SOL    HW240494   6.147   8.456  13.408  1.8944 -1.6873 -0.9953
40962SOL     OW40495   6.582   3.303  13.773  0.0396 -0.1288 -0.0356
40962SOL    HW140496   6.525   3.326  13.847  0.5611 -1.1375  0.6997
40962SOL    HW240497   6.609   3.388  13.737 -1.0681  0.3761  0.2650
40963SOL     OW40498   7.481  13.214  11.419  0.4862  0.4082  0.1646
40963SOL    HW140499   7.437  13.297  11.399  2.2679  1.0349 -1.5156
40963SOL    HW240500   7.418  13.146  11.393 -0.3592  1.2349  0.0090
40964SOL     OW40501  12.276  10.172   5.077 -0.4647 -0.1290 -0.0152
40964SOL    HW140502  12.343  10.220   5.127  0.0832 -0.9244  0.0313
40964SOL    HW240503  12.227  10.123   5.143 -1.8358  1.2774  0.0839
40965SOL     OW40504   5.505   3.571  11.889  0.3125  0.6528 -0.3987
40965SOL    HW140505   5.541   3.483  11.896  0.3858  0.7174  0.0508
40965SOL    HW240506   5.421   3.567  11.934  0.0476  0.6674 -0.8834
40966SOL     OW40507   1.264   2.760   2.834 -0.6671 -0.0464 -0.1204
40966SOL    HW140508   1.357   2.736   2.833 -1.2038 -2.3189 -0.4900
40966SOL    HW240509   1.254   2.821   2.761  0.2684 -0.8833 -0.9711
40967SOL     OW40510   6.479   1.548   0.134 -0.4896 -0.1220  0.2711
40967SOL    HW140511   6.468   1.638   0.165  0.4294  0.3294 -0.6485
40967SOL    HW240512   6.446   1.549   0.044  0.7744 -0.3415 -0.2197
40968SOL     OW40513  12.485  12.572   2.836 -0.3420  0.6368  0.1725
40968SOL    HW140514  12.487  12.617   2.752 -1.2163  0.8367  0.2436
40968SOL    HW240515  12.471  12.641   2.901 -0.9289  0.3588  0.3565
40969SOL     OW40516  11.671   1.858   8.463  0.5918  0.1893 -0.0716
40969SOL    HW140517  11.613   1.913   8.515 -0.3916 -0.1723 -0.7567
40969SOL    HW240518  11.717   1.919   8.405  1.1401  0.5115  0.7000
40970SOL     OW40519  11.004  12.143  13.555 -0.1898  0.3330  0.2345
40970SOL    HW140520  11.027  12.236  13.554  1.1262  0.0532 -1.9671
40970SOL    HW240521  11.070  12.102  13.612 -0.9510  0.7394  1.4512
40971SOL     OW40522   4.236  10.981   5.545 -0.2745  0.5795  0.1101
40971SOL    HW140523   4.210  11.053   5.604  0.4855  0.4388  0.6303
40971SOL    HW240524   4.156  10.960   5.497 -1.1529  0.1493  1.6732
40972SOL     OW40525  11.997   7.556  11.716  0.0777 -0.1606 -0.3191
40972SOL    HW140526  11.940   7.521  11.648 -0.0097 -0.6927  0.0202
40972SOL    HW240527  11.941   7.564  11.793  0.1904  0.3780 -0.2908
40973SOL     OW40528   7.137   7.701   1.261 -0.1149  0.2498 -0.4887
40973SOL    HW140529   7.208   7.717   1.323 -0.0585  0.0728 -0.5073
40973SOL    HW240530   7.165   7.744   1.181 -0.0133  0.1543 -0.5054
40974SOL     OW40531   0.034   6.956  13.636  0.1092 -0.1570 -0.4040
40974SOL    HW140532   0.112   6.920  13.594 -0.0577  0.9552 -1.7516
40974SOL    HW240533  -0.030   6.885  13.632 -0.0682  0.0384 -2.5692
40975SOL     OW40534   5.616  13.947   7.138  0.4920 -0.0241  0.5740
40975SOL    HW140535   5.654  14.017   7.085 -0.8319 -0.3070 -0.8157
40975SOL    HW240536   5.533  13.927   7.096  1.3524 -3.3029  0.1255
40976SOL     OW40537   3.913  11.353   0.530 -0.6206 -0.0403  0.1276
40976SOL    HW140538   3.917  11.340   0.436 -0.1738  2.1206 -0.2127
40976SOL    HW240539   3.962  11.434   0.545 -3.0897  1.3001  1.8257
40977SOL     OW40540  13.319   0.152  12.011 -0.0466 -0.2808 -0.1766
40977SOL    HW140541  13.298   0.088  11.943 -0.6363  0.6875 -0.9334
40977SOL    HW240542  13.278   0.117  12.090 -2.0995  0.0976 -1.0032
40978SOL     OW40543   7.451   1.549   3.607 -0.4849  0.2641  0.5432
40978SOL    HW140544   7.385   1.618   3.601 -1.0491 -0.3171  0.0156
40978SOL    HW240545   7.460   1.532   3.701 -1.0330  0.3982  0.6182
40979SOL     OW40546   7.317   5.739   4.293 -0.0682  0.0662  0.0206
40979SOL    HW140547   7.274   5.664   4.334  0.0465  0.5267  1.0241
40979SOL    HW240548   7.378   5.701   4.231  1.1783 -0.7642  1.6667
40980SOL     OW40549   3.301   0.043  13.637  0.0116 -0.2099  0.6670
40980SOL    HW140550   3.283  -0.048  13.614  1.4916 -0.0656 -1.3163
40980SOL    HW240551   3.371   0.038  13.702  0.6605 -0.4897 -0.0415
40981SOL     OW40552   5.351   0.766  10.453 -0.0641 -0.4349 -0.3000
40981SOL    HW140553   5.346   0.718  10.535 -1.0830  0.5646  0.2396
40981SOL    HW240554   5.390   0.704  10.391  2.3231 -0.6851  1.3048
40982SOL     OW40555   0.198   7.699   0.647 -0.4862 -0.2448  0.1850
40982SOL    HW140556   0.247   7.663   0.572  0.2238 -0.2374  0.6328
40982SOL    HW240557   0.163   7.622   0.691 -1.0826 -0.2381 -0.2693
40983SOL     OW40558   4.189   3.237  11.372 -0.2852 -0.2962  0.1061
40983SOL    HW140559   4.273   3.191  11.373 -0.0408  0.1520  1.1492
40983SOL    HW240560   4.205   3.315  11.319  0.0513 -0.0645  0.5385
40984SOL     OW40561   9.136   7.990   4.650  0.3349  0.0806  0.2299
40984SOL    HW140562   9.154   8.036   4.732  1.2005  1.0093 -0.4506
40984SOL    HW240563   9.214   8.006   4.596  0.0543 -1.0341 -0.5482
40985SOL     OW40564   5.426  11.709   3.632  0.4083 -0.2697 -0.0687
40985SOL    HW140565   5.331  11.712   3.621  0.2707 -1.1688  0.7745
40985SOL    HW240566   5.440  11.729   3.725  1.1570  1.3755 -0.4835
40986SOL     OW40567  13.672   1.377   4.652 -0.2928 -0.2956  0.2388
40986SOL    HW140568  13.671   1.282   4.636 -1.1027 -0.2657  0.0669
40986SOL    HW240569  13.580   1.403   4.643  0.1821  0.8578 -1.8013
40987SOL     OW40570   0.018   1.101   3.701 -0.1121 -0.5397 -0.1924
40987SOL    HW140571   0.092   1.142   3.657  0.8039 -1.6892  0.2210
40987SOL    HW240572   0.043   1.100   3.794 -0.6835 -0.8761 -0.0365
40988SOL     OW40573  12.812   5.476   8.701  0.3506 -0.5412 -0.4307
40988SOL    HW140574  12.809   5.428   8.784 -2.1485  1.2446  0.6401
40988SOL    HW240575  12.723   5.473   8.668  0.8647  0.4809 -2.0448
40989SOL     OW40576  13.346   5.782   8.449  0.0117  0.0550 -0.1309
40989SOL    HW140577  13.347   5.856   8.510  0.5009 -1.5276  1.8822
40989SOL    HW240578  13.253   5.761   8.439 -0.0448 -2.1001  3.3257
40990SOL     OW40579   1.971   7.208   9.696 -0.5204 -0.4786 -0.0572
40990SOL    HW140580   1.940   7.278   9.638  0.1087  1.1371  1.4804
40990SOL    HW240581   2.044   7.247   9.745  1.1411 -2.8050 -0.4667
40991SOL     OW40582   4.862   1.769   2.842  0.3961 -0.2078  0.1490
40991SOL    HW140583   4.945   1.728   2.817  1.6565  1.6558  1.0623
40991SOL    HW240584   4.843   1.829   2.769  0.5685  0.3533  0.5634
40992SOL     OW40585  11.983  14.061  11.512 -0.2733 -0.7840 -0.5942
40992SOL    HW140586  11.967  14.063  11.418  2.0949 -0.8347 -1.0497
40992SOL    HW240587  12.078  14.058  11.521 -0.3607  0.4287  1.8191
40993SOL     OW40588   8.294  10.865  13.795  0.2160 -0.1391 -0.3742
40993SOL    HW140589   8.362  10.893  13.856  0.9206 -1.0255 -0.7414
40993SOL    HW240590   8.264  10.946  13.753 -0.9024  0.6291  1.7359
40994SOL     OW40591  11.718   9.593  10.154 -0.1152  0.0025 -0.0627
40994SOL    HW140592  11.631   9.628  10.136 -0.1391 -0.1222 -0.2001
40994SOL    HW240593  11.770   9.668  10.183 -0.3538  0.0185  0.3264
40995SOL     OW40594   2.291   7.411   3.413  0.0193 -0.4792 -0.0498
40995SOL    HW140595   2.282   7.472   3.486 -0.2554 -0.0295 -0.4595
40995SOL    HW240596   2.383   7.385   3.415  1.5753  3.7565 -2.8330
40996SOL     OW40597   8.384   0.467   5.150  0.0902 -0.0777 -0.2675
40996SOL    HW140598   8.311   0.528   5.158 -1.7154 -2.1265 -0.4197
40996SOL    HW240599   8.392   0.427   5.236 -0.7053 -1.7225 -0.9240
40997SOL     OW40600   0.124  10.837   1.581 -0.0074 -0.3132  0.1165
40997SOL    HW140601   0.068  10.905   1.618  0.2453 -0.3832  0.6498
40997SOL    HW240602   0.116  10.764   1.643  1.2736 -0.0420  0.6394
40998SOL     OW40603   2.460   5.313   6.647  0.4172  0.4258  0.4231
40998SOL    HW140604   2.450   5.333   6.740 -0.1708 -0.2304  0.5059
40998SOL    HW240605   2.538   5.362   6.621  1.9168 -1.0743  1.7777
40999SOL     OW40606   1.188   1.425   8.314  0.2290  0.4119 -0.4076
40999SOL    HW140607   1.184   1.511   8.273  2.1749 -0.0246 -1.6636
40999SOL    HW240608   1.266   1.384   8.276  2.2927 -0.0820  3.7274
41000SOL     OW40609   4.613   5.874  10.342 -0.1217 -0.6310 -0.4395
41000SOL    HW140610   4.663   5.793  10.342  0.9419 -0.0030  0.5076
41000SOL    HW240611   4.527   5.848  10.375  0.2748 -1.3446  0.0805
41001SOL     OW40612  13.058   4.488  12.568 -0.3831 -0.1181 -0.2105
41001SOL    HW140613  12.980   4.448  12.531  0.8661 -2.2282 -0.7716
41001SOL    HW240614  13.107   4.522  12.493  0.3826 -1.0653 -0.1718
41002SOL     OW40615   6.302  12.543   0.172  0.0774  0.3840  0.1935
41002SOL    HW140616   6.300  12.483   0.247 -1.0489  1.0780  0.7265
41002SOL    HW240617   6.213  12.541   0.136 -0.6727  3.4114  1.5856
41003SOL     OW40618  12.502  11.353   8.472 -0.1551  0.4188  0.3106
41003SOL    HW140619  12.453  11.284   8.515 -0.2404  1.6784  2.3521
41003SOL    HW240620  12.589  11.350   8.513  0.4484  0.3703 -0.9001
41004SOL     OW40621   9.123   8.512   9.864 -0.0046  0.5342  0.0551
41004SOL    HW140622   9.117   8.607   9.863  0.1928  0.6035  2.0373
41004SOL    HW240623   9.037   8.482   9.894 -0.6073 -0.0353 -2.0624
41005SOL     OW40624   2.794  13.165   9.568  0.0452 -0.1491  0.3718
41005SOL    HW140625   2.844  13.247   9.567 -0.7678  0.4140 -2.3850
41005SOL    HW240626   2.860  13.097   9.561  0.5837  0.5118 -1.5822
41006SOL     OW40627   6.053  10.744   7.436 -0.1385  0.2790  0.5536
41006SOL    HW140628   6.088  10.763   7.349 -0.6334 -1.7825 -0.1541
41006SOL    HW240629   5.973  10.796   7.441  0.2421  0.9270  0.0311
41007SOL     OW40630  12.952  12.324   2.513  0.4612 -0.0253  0.0819
41007SOL    HW140631  12.874  12.278   2.543  0.1750  1.4665  1.7909
41007SOL    HW240632  12.930  12.354   2.425 -1.0339  0.6124  0.6431
41008SOL     OW40633   4.991   3.658   0.127  0.2920 -0.5800  0.3657
41008SOL    HW140634   5.073   3.609   0.118  0.8398 -0.0290  2.0190
41008SOL    HW240635   4.974   3.693   0.040  0.3057 -3.0002 -0.6886
41009SOL     OW40636   7.235   1.446   6.990  0.0164  0.1510 -0.2806
41009SOL    HW140637   7.280   1.487   7.064 -0.8600  0.9552 -0.1572
41009SOL    HW240638   7.224   1.355   7.016  1.4318 -0.0320 -0.2654
41010SOL     OW40639   3.185   9.267   3.222  0.0108  0.0263 -0.0479
41010SOL    HW140640   3.210   9.195   3.279  1.4116  0.8887  0.4805
41010SOL    HW240641   3.268   9.302   3.189 -0.6510  1.1303 -0.6199
41011SOL     OW40642   8.409   7.700   4.249  0.4615 -0.4819  0.1971
41011SOL    HW140643   8.392   7.756   4.173  0.6698 -1.5197 -0.6351
41011SOL    HW240644   8.482   7.645   4.222 -1.0113 -2.5608  0.2026
41012SOL     OW40645   8.023  11.329   9.475  0.1306  0.1502 -0.4638
41012SOL    HW140646   7.970  11.256   9.443  0.6250  0.1198 -1.2273
41012SOL    HW240647   8.113  11.305   9.454  0.3554  0.6895 -0.1380
41013SOL     OW40648   7.831   1.620   1.400 -0.0735 -0.4238 -0.2193
41013SOL    HW140649   7.878   1.595   1.480 -0.4128  0.9837  0.4417
41013SOL    HW240650   7.749   1.658   1.431  0.0194  0.6435 -1.2146
41014SOL     OW40651  10.897   4.524   4.989  0.0966 -0.2924 -0.1520
41014SOL    HW140652  10.891   4.459   5.059 -0.4741 -0.9183 -0.7695
41014SOL    HW240653  10.887   4.474   4.909  1.2467  0.3447 -0.7265
41015SOL     OW40654   9.505   6.453  10.150  0.3626  0.6775  0.3833
41015SOL    HW140655   9.454   6.373  10.136  0.1648  0.4977  1.8849
41015SOL    HW240656   9.512   6.493  10.064 -1.8768  0.4414  0.0422
41016SOL     OW40657   2.273   4.736   4.375  0.0082  0.2396  0.1602
41016SOL    HW140658   2.313   4.811   4.331  1.0170 -0.0865  0.4818
41016SOL    HW240659   2.281   4.664   4.311  0.3076  0.0795  0.3736
41017SOL     OW40660   2.071   3.595   5.893 -0.4155 -0.1867 -0.0438
41017SOL    HW140661   2.113   3.643   5.821  2.0931  0.0187  1.4077
41017SOL    HW240662   2.026   3.663   5.943  2.1936  0.6370  1.3823
41018SOL     OW40663  12.259   9.849   9.269  0.5309 -0.2573  0.2357
41018SOL    HW140664  12.304   9.847   9.185  0.1392 -2.4757  0.0131
41018SOL    HW240665  12.246   9.757   9.291 -2.5256  0.2380  1.0058
41019SOL     OW40666  13.940   3.310   4.320 -0.3397 -0.3503 -0.4492
41019SOL    HW140667  13.987   3.345   4.244  0.4208  0.2086  0.2618
41019SOL    HW240668  13.989   3.344   4.395 -1.0113 -1.0006  0.2843
41020SOL     OW40669   0.299   6.450   5.623  0.0256 -0.1752  0.2117
41020SOL    HW140670   0.338   6.453   5.711 -2.4555  0.5023  1.4134
41020SOL    HW240671   0.219   6.398   5.635  0.5896 -1.6994 -2.1363
41021SOL     OW40672   4.020   6.592   0.867 -0.1066 -0.2052 -0.4390
41021SOL    HW140673   4.112   6.588   0.839 -0.6986  1.6203 -3.0930
41021SOL    HW240674   4.016   6.670   0.923  0.0115 -0.4338 -0.1125
41022SOL     OW40675   4.167   9.169   6.662 -0.0581  0.0794  0.3780
41022SOL    HW140676   4.232   9.100   6.672  0.4376  0.6560  1.2396
41022SOL    HW240677   4.112   9.162   6.740 -0.7618 -0.1044 -0.1194
41023SOL     OW40678   6.974  12.852   8.374 -0.1232  0.3359 -0.0719
41023SOL    HW140679   6.978  12.810   8.288  2.2528  0.6694 -0.1745
41023SOL    HW240680   6.990  12.781   8.436  3.0125  0.8101 -0.2040
41024SOL     OW40681  11.758   2.735   3.058 -0.4671  0.1723 -0.0146
41024SOL    HW140682  11.708   2.705   3.134 -0.3617 -0.7845 -0.3153
41024SOL    HW240683  11.820   2.664   3.040 -2.4753 -1.0238 -2.8647
41025SOL     OW40684   2.933   0.378  10.365 -0.0907 -0.0388  0.2506
41025SOL    HW140685   2.938   0.302  10.423  1.3403  1.0335  1.6357
41025SOL    HW240686   3.008   0.432  10.390 -1.1951  1.9563 -0.4985
41026SOL     OW40687   0.991  13.874   7.050 -0.2679 -0.1624  0.7705
41026SOL    HW140688   0.949  13.833   6.974  0.9539 -0.6697  0.3370
41026SOL    HW240689   0.988  13.807   7.118 -1.0076  0.1521  1.0624
41027SOL     OW40690  10.678  10.793  13.644  0.5957 -0.3192 -0.2398
41027SOL    HW140691  10.610  10.727  13.639  0.7364 -0.3937 -1.4604
41027SOL    HW240692  10.744  10.765  13.581  0.8616  0.7475 -0.4640
41028SOL     OW40693   4.496  11.211   5.575  0.2110  0.5534 -0.3249
41028SOL    HW140694   4.435  11.184   5.644 -0.4228  2.6601  0.0059
41028SOL    HW240695   4.573  11.154   5.588 -2.0796 -3.2310 -1.6696
41029SOL     OW40696   6.465   8.609  13.839 -0.1337 -0.0226  0.0226
41029SOL    HW140697   6.412   8.529  13.844 -1.4344  0.7764 -0.5808
41029SOL    HW240698   6.545   8.587  13.887 -0.1743 -1.9025 -0.6611
41030SOL     OW40699  12.307   8.344  13.510  0.3829  1.0864  0.1528
41030SOL    HW140700  12.391   8.365  13.551  0.6451 -0.8175  0.7081
41030SOL    HW240701  12.330   8.320  13.420  0.8700 -1.9463  0.9881
41031SOL     OW40702   5.407   2.784   3.604  0.1618  0.0745 -0.0661
41031SOL    HW140703   5.363   2.758   3.523  1.3961  1.6910 -1.3428
41031SOL    HW240704   5.421   2.702   3.651  0.2796 -1.0577 -1.9549
41032SOL     OW40705   7.519   3.264   4.288 -0.0601 -0.1123 -0.0171
41032SOL    HW140706   7.592   3.316   4.255 -0.5577  0.8904  0.4384
41032SOL    HW240707   7.522   3.276   4.383 -1.1706  0.4315 -0.0381
41033SOL     OW40708   3.766   5.886   7.601 -0.1869  0.2469  0.0690
41033SOL    HW140709   3.793   5.977   7.612 -0.9111  0.9270 -2.9197
41033SOL    HW240710   3.692   5.876   7.661 -0.6497  1.9121 -0.1677
41034SOL     OW40711  13.133  11.279   1.625  0.1217 -0.2991  0.3173
41034SOL    HW140712  13.085  11.345   1.675 -2.2083 -0.3402 -1.6784
41034SOL    HW240713  13.215  11.268   1.673 -0.7901  1.6251  2.5361
41035SOL     OW40714   4.971  13.895   5.995  0.5771 -0.0329 -0.0682
41035SOL    HW140715   4.958  13.903   6.090 -0.7510 -1.0923 -0.1342
41035SOL    HW240716   5.065  13.881   5.985  1.1812  2.6533  0.8767
41036SOL     OW40717   3.763   2.148   0.548  0.2262  0.1602  0.4491
41036SOL    HW140718   3.668   2.146   0.557  0.0264  0.6010 -1.1905
41036SOL    HW240719   3.778   2.165   0.455  1.9073 -2.4641  0.1281
41037SOL     OW40720   3.390   5.684   5.115 -0.3977 -0.1962  0.8134
41037SOL    HW140721   3.313   5.706   5.064 -1.1759 -1.0648  1.5720
41037SOL    HW240722   3.464   5.715   5.063 -1.2296  0.0552 -0.2343
41038SOL     OW40723   5.493  10.622   0.641  0.1290 -0.4464 -0.1178
41038SOL    HW140724   5.411  10.578   0.661  0.6720 -2.2164 -1.5974
41038SOL    HW240725   5.533  10.569   0.572  2.5570  0.3065  0.6188
41039SOL     OW40726   7.627   9.744   2.968 -0.2535 -0.6574  0.2944
41039SOL    HW140727   7.581   9.732   2.884  0.0285 -1.3173  0.2251
41039SOL    HW240728   7.568   9.704   3.032  0.3553 -1.7962  0.1629
41040SOL     OW40729   8.831  11.371   1.898  0.1735 -0.3273  0.8006
41040SOL    HW140730   8.836  11.453   1.947  1.4018 -0.6442  1.2385
41040SOL    HW240731   8.845  11.396   1.807 -0.6597  0.0848  0.7774
41041SOL     OW40732   9.242   9.979   4.594 -0.0431 -0.2942 -0.1211
41041SOL    HW140733   9.225   9.886   4.607  1.6813 -0.6501 -0.1451
41041SOL    HW240734   9.224  10.018   4.679  1.9598 -1.1415  0.7785
41042SOL     OW40735   2.530  13.357   3.102 -0.6136 -0.4241 -0.3142
41042SOL    HW140736   2.445  13.395   3.076  0.2341  0.9705 -1.1776
41042SOL    HW240737   2.594  13.403   3.048  0.9185  0.1508  1.8717
41043SOL     OW40738   1.239   4.897   3.356  0.1417 -0.4225 -0.0757
41043SOL    HW140739   1.234   4.849   3.439 -2.2668 -0.1470  0.0176
41043SOL    HW240740   1.150   4.891   3.320  0.5486  1.4181 -1.5171
41044SOL     OW40741  13.818   3.066   4.365 -0.0495 -0.1459 -0.1394
41044SOL    HW140742  13.877   2.998   4.334  1.1164 -1.0564  3.6106
41044SOL    HW240743  13.861   3.148   4.341  1.8610 -0.7996  0.8922
41045SOL     OW40744  10.820   4.988   6.848 -0.1250 -0.3902  0.2700
41045SOL    HW140745  10.839   4.903   6.887 -1.1612  0.2298  2.2221
41045SOL    HW240746  10.762   4.968   6.774 -0.8485 -1.3602  1.0716
41046SOL     OW40747  13.803   3.610   3.878 -0.8128  0.0933  0.0174
41046SOL    HW140748  13.725   3.556   3.864 -0.0543 -0.5480 -2.2159
41046SOL    HW240749  13.828   3.593   3.969 -2.7326 -0.3970  0.4886
41047SOL     OW40750   2.464   0.777   1.236 -0.0259  0.1804  0.5776
41047SOL    HW140751   2.457   0.721   1.159 -0.9954  1.7912 -0.5593
41047SOL    HW240752   2.546   0.825   1.223 -0.3795  0.7280  0.3428
41048SOL     OW40753   6.664   4.062   3.247  0.0774  0.6556 -0.2045
41048SOL    HW140754   6.643   3.977   3.208  2.4429  0.3496 -0.9678
41048SOL    HW240755   6.623   4.126   3.188 -2.7054  0.1386  0.9864
41049SOL     OW40756   8.074   7.648   4.209  0.1081  0.2401 -0.1878
41049SOL    HW140757   8.107   7.559   4.203  0.5496  0.3718  0.2608
41049SOL    HW240758   8.151   7.701   4.230 -0.0499  0.8020 -1.0056
41050SOL     OW40759   0.793   7.769   9.855 -0.2287 -0.2379  0.5224
41050SOL    HW140760   0.725   7.832   9.831  0.8162  0.6965 -0.1068
41050SOL    HW240761   0.818   7.793   9.944 -1.3581 -1.1968  1.1273
41051SOL     OW40762  13.137   2.333   0.823 -0.0411 -0.3700  0.2069
41051SOL    HW140763  13.041   2.341   0.821  0.0020  0.2900 -1.7067
41051SOL    HW240764  13.167   2.410   0.870 -0.4462 -0.6707  0.9755
41052SOL     OW40765   0.535   7.203   3.628  0.6813  0.6512 -0.5503
41052SOL    HW140766   0.605   7.142   3.651 -0.6941 -0.5646  0.5351
41052SOL    HW240767   0.478   7.206   3.705 -1.7440 -0.2253 -2.1923
41053SOL     OW40768  13.349   0.805   8.267  0.6091 -0.1659  0.1599
41053SOL    HW140769  13.412   0.865   8.227  0.8045 -0.8894 -0.6475
41053SOL    HW240770  13.309   0.760   8.193 -1.5691  0.9400  0.5835
41054SOL     OW40771   8.651  13.080  11.348 -0.2056  0.7814  0.2922
41054SOL    HW140772   8.642  13.068  11.443  3.4491 -1.0927  0.5698
41054SOL    HW240773   8.656  12.991  11.313 -0.0454  1.4549 -1.4807
41055SOL     OW40774   9.463   8.559   1.375 -0.4404  0.1496 -0.4826
41055SOL    HW140775   9.443   8.557   1.281 -1.5981 -0.9658 -0.2441
41055SOL    HW240776   9.442   8.648   1.402  3.0937  1.6100 -1.8584
41056SOL     OW40777   8.211   1.061   7.776  0.6334  0.3126 -0.2029
41056SOL    HW140778   8.134   1.097   7.819  0.7733 -1.4087  1.5970
41056SOL    HW240779   8.283   1.080   7.836  1.3157  0.3300 -1.0117
41057SOL     OW40780   9.035   1.969   6.123  0.0036  0.2883  0.2740
41057SOL    HW140781   9.030   1.905   6.194 -0.9760 -0.9254 -0.8503
41057SOL    HW240782   9.024   1.917   6.043 -0.9441  1.8725 -0.6662
41058SOL     OW40783  12.952   2.107   1.697  0.0108 -0.7192  0.0182
41058SOL    HW140784  13.034   2.059   1.713 -0.1340 -0.8394  0.4004
41058SOL    HW240785  12.978   2.199   1.699 -0.0950 -0.7013  1.5569
41059SOL     OW40786   5.096   1.317   5.489  0.4766  0.3933 -1.3565
41059SOL    HW140787   5.054   1.263   5.422 -1.3294  1.2971 -1.0212
41059SOL    HW240788   5.094   1.405   5.452  0.9061  0.6486 -0.7732
41060SOL     OW40789  11.516   4.149  12.487  0.0412  0.3661 -0.1346
41060SOL    HW140790  11.441   4.114  12.535  0.9405 -0.4442  0.7319
41060SOL    HW240791  11.585   4.156  12.553  1.2277 -0.5208 -1.2387
41061SOL     OW40792   1.850   2.137  11.729  0.4425 -0.0485 -0.0234
41061SOL    HW140793   1.925   2.077  11.719  1.0637  0.7628 -0.3833
41061SOL    HW240794   1.880   2.219  11.690 -1.1784 -0.1375 -1.5949
41062SOL     OW40795   0.120   9.625   5.247 -0.2740 -0.4172  0.4353
41062SOL    HW140796   0.162   9.685   5.186  1.2920 -0.1505  1.6964
41062SOL    HW240797   0.079   9.558   5.192 -0.4782  0.7885 -0.9257
41063SOL     OW40798  13.518   1.816   7.977  0.1499  0.1982  0.2156
41063SOL    HW140799  13.453   1.753   8.010  0.4552 -0.5717 -0.6058
41063SOL    HW240800  13.579   1.828   8.049  0.6557 -1.2460  0.0654
41064SOL     OW40801   5.334  13.810   9.196  0.8268  0.1161 -0.1921
41064SOL    HW140802   5.299  13.868   9.264  0.9333 -0.4998  0.4076
41064SOL    HW240803   5.428  13.807   9.213  0.4991 -2.7781  1.9178
41065SOL     OW40804   7.588   3.380  12.091  0.1729  0.3882 -0.3176
41065SOL    HW140805   7.598   3.444  12.020  1.0794  1.8511  1.0583
41065SOL    HW240806   7.676   3.369  12.126  0.3409 -2.8077 -1.4094
41066SOL     OW40807  11.764   9.918   2.444 -0.3316  0.1988  0.1582
41066SOL    HW140808  11.685   9.865   2.449 -0.2598  0.1944  1.8731
41066SOL    HW240809  11.756   9.981   2.516  0.2407  1.6068 -0.9684
41067SOL     OW40810   3.737  12.823   0.261  0.5834 -0.0327  0.3724
41067SOL    HW140811   3.709  12.893   0.202  3.2642  0.6246 -0.2383
41067SOL    HW240812   3.727  12.743   0.210  1.0813  0.3231 -0.2910
41068SOL     OW40813   8.179   3.625  13.692  0.0744  0.1916 -0.0637
41068SOL    HW140814   8.181   3.683  13.768 -0.3241  0.2966 -0.1327
41068SOL    HW240815   8.104   3.567  13.708  0.2226 -0.0371 -0.1926
41069SOL     OW40816  10.904   3.912  10.928  0.3630 -0.0586  0.0673
41069SOL    HW140817  10.827   3.932  10.982  0.0309 -0.2701 -0.3205
41069SOL    HW240818  10.958   3.991  10.934 -0.3035  0.4460 -0.3699
41070SOL     OW40819  10.062   7.098   8.540  0.6350 -0.5859  0.1310
41070SOL    HW140820  10.099   7.102   8.452 -1.0651  0.9419 -0.5894
41070SOL    HW240821  10.068   7.006   8.565  2.5597 -0.8022 -0.9142
41071SOL     OW40822   9.311  13.644   8.658 -0.4532  0.3945  0.4138
41071SOL    HW140823   9.232  13.694   8.679 -1.1410  0.1996 -1.4548
41071SOL    HW240824   9.284  13.584   8.588  1.2892  0.1891 -0.1524
41072SOL     OW40825   4.302   8.550   5.707 -0.5441 -0.1150  0.3806
41072SOL    HW140826   4.217   8.552   5.664  0.0024  0.5626 -0.7404
41072SOL    HW240827   4.334   8.461   5.694 -0.8151 -0.1910  0.2312
41073SOL     OW40828   0.052  11.058   6.686  0.1115  0.0161  0.1731
41073SOL    HW140829   0.137  11.026   6.655 -0.1739 -0.6779  0.0774
41073SOL    HW240830   0.022  10.990   6.746 -0.5635  0.0469 -0.1225
41074SOL     OW40831   2.723   7.395   0.008 -0.0285  0.4784 -0.2526
41074SOL    HW140832   2.653   7.415   0.069  0.5585 -0.0523  0.6201
41074SOL    HW240833   2.788   7.347   0.060  1.4556  1.8227 -0.7753
41075SOL     OW40834  13.488   7.768   8.231 -0.3096 -0.6164  0.3052
41075SOL    HW140835  13.406   7.798   8.269  0.1217  0.5479  0.3676
41075SOL    HW240836  13.494   7.676   8.254 -0.3130 -0.0952  2.6171
41076SOL     OW40837   0.977  11.218   2.867  0.7642 -0.3237 -0.3030
41076SOL    HW140838   0.976  11.157   2.940  1.0178 -0.4997 -0.4436
41076SOL    HW240839   0.980  11.304   2.907  1.5662 -0.4395 -0.1109
41077SOL     OW40840   0.967  11.628  12.358  0.0817 -0.3279 -0.4521
41077SOL    HW140841   0.880  11.652  12.326  0.6088  2.3718 -0.1088
41077SOL    HW240842   1.027  11.665  12.293  1.0240 -1.4547 -0.2644
41078SOL     OW40843  12.612   7.918   7.598  0.0429 -0.2639 -0.1632
41078SOL    HW140844  12.628   7.998   7.648 -0.9609  0.1587 -0.5042
41078SOL    HW240845  12.594   7.852   7.664  0.4599 -0.1189  0.1025
41079SOL     OW40846   8.227   4.980   2.905  0.1784  0.8087 -0.4891
41079SOL    HW140847   8.217   5.057   2.960  1.1692  1.0401 -0.6127
41079SOL    HW240848   8.194   4.908   2.958  0.5482  1.1174  0.1725
41080SOL     OW40849  13.985   8.708   7.515 -0.4496  0.1268 -0.2371
41080SOL    HW140850  13.960   8.729   7.605 -0.4432 -0.0642 -0.1900
41080SOL    HW240851  14.007   8.792   7.476 -1.6753  0.3786 -0.4357
41081SOL     OW40852   5.807   8.953   4.980  0.0454  0.8495 -0.2134
41081SOL    HW140853   5.778   9.027   4.926 -0.8555 -0.3771 -1.4955
41081SOL    HW240854   5.824   8.883   4.916  1.0905  0.0093  0.9455
41082SOL     OW40855   1.252   3.823   6.960  0.3737 -0.4694  0.2254
41082SOL    HW140856   1.159   3.844   6.973  0.1976 -1.3939  0.4856
41082SOL    HW240857   1.259   3.804   6.866  0.7081  1.5025 -0.2092
41083SOL     OW40858   5.383   9.606  14.053  0.0760  0.0267 -0.4841
41083SOL    HW140859   5.298   9.625  14.091  0.4892 -0.3771  0.6806
41083SOL    HW240860   5.366   9.595  13.959 -1.0037  0.7765 -0.3846
41084SOL     OW40861   0.015   0.774   5.697 -0.0766  0.4235  0.0511
41084SOL    HW140862   0.007   0.816   5.783  0.7348 -0.3973  0.5426
41084SOL    HW240863  -0.075   0.747   5.676 -0.1777 -0.0769  1.0249
41085SOL     OW40864  12.267   5.106   3.021  0.3599 -0.0564 -0.1953
41085SOL    HW140865  12.186   5.126   3.067  0.6961  2.9583 -0.6683
41085SOL    HW240866  12.276   5.177   2.957  2.9506 -0.7456 -0.7104
41086SOL     OW40867   3.478   4.369   0.450  0.0729  0.0509  0.3821
41086SOL    HW140868   3.451   4.448   0.496  2.1479  1.9378 -1.4043
41086SOL    HW240869   3.473   4.393   0.357  2.9004 -1.0734 -0.1739
41087SOL     OW40870   8.728  13.010   7.545 -0.1340  0.4959 -0.9496
41087SOL    HW140871   8.789  12.945   7.512  0.2207  0.4371 -0.2136
41087SOL    HW240872   8.768  13.094   7.524  0.0937  0.4582 -0.6789
41088SOL     OW40873   0.785   9.763   3.694 -0.1357  0.3627 -0.4591
41088SOL    HW140874   0.732   9.749   3.616 -0.1042  0.2550 -0.4616
41088SOL    HW240875   0.760   9.692   3.754  3.1259 -2.5477 -2.1120
41089SOL     OW40876  12.914   1.634   7.980  0.1323 -0.3771  0.0091
41089SOL    HW140877  12.963   1.715   7.989 -0.6376  0.0564  0.3871
41089SOL    HW240878  12.903   1.602   8.070 -0.7260 -0.1904 -0.0191
41090SOL     OW40879   7.734  13.458   8.952 -0.5902  0.1569  0.0210
41090SOL    HW140880   7.791  13.528   8.919 -0.2643 -0.2053 -0.1828
41090SOL    HW240881   7.787  13.412   9.017 -0.7239 -0.0484 -0.0123
41091SOL     OW40882   1.126   2.012   4.006 -0.5004 -0.3172  0.0608
41091SOL    HW140883   1.041   2.037   4.042 -0.0518 -0.5871  1.3637
41091SOL    HW240884   1.162   1.951   4.071  0.9407  0.2718 -0.1609
41092SOL     OW40885  11.450   5.412   2.048  0.5515  0.4484 -0.5714
41092SOL    HW140886  11.534   5.371   2.026  0.8805 -0.3502  1.8457
41092SOL    HW240887  11.471   5.474   2.118 -0.8851  0.1718  0.1368
41093SOL     OW40888   8.241   2.867   7.154 -0.5273 -0.1264 -0.1269
41093SOL    HW140889   8.244   2.800   7.222 -1.6725 -0.4578 -0.3805
41093SOL    HW240890   8.310   2.842   7.092 -1.0570 -1.1734 -0.3135
41094SOL     OW40891   0.651   8.743   5.610 -0.4753 -0.4114 -0.5088
41094SOL    HW140892   0.654   8.742   5.514 -1.1664 -0.5128 -0.5338
41094SOL    HW240893   0.673   8.833   5.633 -0.3794 -0.3668 -0.7675
41095SOL     OW40894  10.749  10.041   0.950  0.4061  0.4871  0.4664
41095SOL    HW140895  10.747   9.946   0.937 -1.7556  0.3903  1.0642
41095SOL    HW240896  10.841  10.062   0.964  0.8446 -1.6180  1.0113
41096SOL     OW40897   9.361   8.751   1.919  0.3989  0.4444  0.2951
41096SOL    HW140898   9.297   8.682   1.898 -0.6735  1.2408  0.8456
41096SOL    HW240899   9.337   8.780   2.007  1.1214  1.2024  0.2492
41097SOL     OW40900   7.157  13.827   5.597 -0.4495 -0.1064  0.1985
41097SOL    HW140901   7.176  13.912   5.637 -2.6962 -0.2197  1.7500
41097SOL    HW240902   7.117  13.848   5.513 -0.9415  0.3957  0.5511
41098SOL     OW40903   4.097   5.103  12.652 -0.7015 -0.2329 -0.1360
41098SOL    HW140904   4.037   5.153  12.707  0.3721  0.2709  0.6005
41098SOL    HW240905   4.078   5.132  12.563 -2.4896 -1.0948 -0.0812
41099SOL     OW40906   1.124   6.190   3.203 -0.1697  0.2920 -0.4950
41099SOL    HW140907   1.070   6.121   3.242  0.4537  0.0172 -0.1052
41099SOL    HW240908   1.090   6.271   3.242 -1.5528  0.3251 -1.6943
41100SOL     OW40909  12.257  11.243   4.138 -0.0678  0.2395  0.2989
41100SOL    HW140910  12.190  11.282   4.195 -1.4458  0.3304 -1.3111
41100SOL    HW240911  12.208  11.187   4.078  1.0876  1.4268 -1.8927
41101SOL     OW40912  13.091  10.280   0.977  0.4304  0.3653 -0.0256
41101SOL    HW140913  13.013  10.230   0.956  0.0411  1.4872 -1.4125
41101SOL    HW240914  13.145  10.221   1.030  0.2596 -1.7174 -2.0574
41102SOL     OW40915   3.017   7.875  13.045 -0.4668 -0.5349  0.2438
41102SOL    HW140916   2.950   7.874  12.977 -0.3684  1.5064  0.0640
41102SOL    HW240917   2.985   7.938  13.110  0.9866  0.0734  0.4222
41103SOL     OW40918   3.447  12.604  13.557 -0.0262  0.1953  0.6642
41103SOL    HW140919   3.362  12.562  13.567 -0.0329  0.0479  0.0041
41103SOL    HW240920   3.427  12.695  13.537 -0.1143 -0.3525 -2.1301
41104SOL     OW40921   4.638  10.034   3.753 -0.2070 -0.0736  0.1093
41104SOL    HW140922   4.566  10.030   3.690 -0.4410  1.3407  0.2739
41104SOL    HW240923   4.636  10.123   3.787  0.9376 -0.3419  0.9334
41105SOL     OW40924   0.596   6.865   9.176  0.8442 -0.2928  0.0065
41105SOL    HW140925   0.615   6.956   9.197  4.3569 -1.3277  2.1125
41105SOL    HW240926   0.535   6.837   9.245 -1.0852  0.5864 -1.2365
41106SOL     OW40927   5.121  12.838   1.446 -0.0112  0.0630 -0.2124
41106SOL    HW140928   5.212  12.818   1.471  0.0193 -0.3274 -0.6279
41106SOL    HW240929   5.101  12.776   1.376 -1.7412 -2.2151  2.0813
41107SOL     OW40930   7.153   5.941   0.408 -0.4212  0.1253  0.5187
41107SOL    HW140931   7.164   5.847   0.392  1.1742 -0.0262  2.1913
41107SOL    HW240932   7.225   5.964   0.466  1.0925  3.0287 -2.1589
41108SOL     OW40933   2.794  13.553   5.088  0.1427 -0.1050  0.4121
41108SOL    HW140934   2.811  13.472   5.135  0.0387 -0.1552  0.3640
41108SOL    HW240935   2.864  13.558   5.022 -0.5376 -0.7744 -0.3914
41109SOL     OW40936  11.525  11.057   3.761 -0.0614  0.0316 -0.1895
41109SOL    HW140937  11.507  11.012   3.679  0.6645 -0.1355 -0.2627
41109SOL    HW240938  11.439  11.090   3.790 -0.2445  0.5726 -1.2871
41110SOL     OW40939   4.863   5.637   5.520 -0.1686  0.0625  0.5265
41110SOL    HW140940   4.808   5.687   5.459 -0.6967 -0.4621  0.5645
41110SOL    HW240941   4.866   5.549   5.482  1.4992  0.3236 -0.0339
41111SOL     OW40942   2.828  12.490   8.699  0.4140  0.3075  0.4524
41111SOL    HW140943   2.898  12.468   8.760  0.6155 -0.6662 -0.1134
41111SOL    HW240944   2.781  12.562   8.741  2.0454  1.3289  0.6197
41112SOL     OW40945   3.177   4.329   0.442  0.4238  0.8221  0.2128
41112SOL    HW140946   3.182   4.234   0.434 -0.7181  0.8874 -2.6096
41112SOL    HW240947   3.192   4.346   0.534  0.0915 -2.1413  0.9255
41113SOL     OW40948   2.279   3.301   9.018 -0.0214 -0.3087  0.1390
41113SOL    HW140949   2.309   3.351   8.941 -1.7662  1.4698  0.5235
41113SOL    HW240950   2.223   3.362   9.065  1.1578 -1.2783  2.9945
41114SOL     OW40951   9.178   0.288   8.515 -0.5127  0.0023 -0.1187
41114SOL    HW140952   9.215   0.213   8.469 -0.0397 -0.4412  0.9547
41114SOL    HW240953   9.194   0.362   8.457 -1.7688 -0.8252 -1.6121
41115SOL     OW40954   9.037   6.341   6.052 -0.0843  0.3294 -0.0087
41115SOL    HW140955   9.069   6.314   6.138  1.8724  1.6657 -0.2322
41115SOL    HW240956   9.083   6.285   5.990 -1.8754 -0.9782 -0.2105
41116SOL     OW40957   4.302  10.601   7.993  1.1067 -0.0739 -0.2219
41116SOL    HW140958   4.321  10.674   8.052 -0.4222  0.0764  0.1459
41116SOL    HW240959   4.233  10.553   8.038  0.0611 -0.0868 -1.7732
41117SOL     OW40960   8.450   8.265   2.487  0.2003  0.0692  0.1428
41117SOL    HW140961   8.368   8.250   2.535 -0.1469 -1.3066 -0.8033
41117SOL    HW240962   8.518   8.240   2.549 -0.1643 -0.1819  0.4527
41118SOL     OW40963  11.774   0.760   2.039  0.2191 -0.5558 -0.0709
41118SOL    HW140964  11.737   0.845   2.063  1.8946  0.0181  0.6216
41118SOL    HW240965  11.698   0.702   2.032 -1.1066  1.2352 -1.7542
41119SOL     OW40966  13.517   2.702   3.264 -0.2312 -0.3680 -0.4974
41119SOL    HW140967  13.533   2.713   3.358  0.2477  1.2274 -0.7471
41119SOL    HW240968  13.454   2.630   3.260  1.8310 -2.4085  0.8692
41120SOL     OW40969  13.611  11.519   3.772 -0.2202 -0.4565  0.1981
41120SOL    HW140970  13.597  11.549   3.683 -2.6458 -2.9233 -0.3953
41120SOL    HW240971  13.704  11.498   3.777  0.5316  2.2260 -0.8101
41121SOL     OW40972   9.907   7.290   3.211 -0.4557  0.0297 -0.7292
41121SOL    HW140973   9.939   7.204   3.236 -0.6611  0.8081  2.6295
41121SOL    HW240974   9.963   7.316   3.138  0.4197 -2.3954 -1.0073
41122SOL     OW40975   7.082   2.543   0.835  0.2012 -0.3456  0.1871
41122SOL    HW140976   7.065   2.477   0.902  0.7486  1.2265  1.9582
41122SOL    HW240977   7.010   2.533   0.772 -1.9789 -0.0715  2.4655
41123SOL     OW40978   3.018   9.867   3.471 -0.1607 -0.5163 -0.0459
41123SOL    HW140979   3.072   9.814   3.530  0.8572  2.4436  1.8891
41123SOL    HW240980   3.080   9.929   3.431 -1.7442  1.6641  0.6930
41124SOL     OW40981   3.971   1.250   6.968  0.2682 -0.4049 -0.4832
41124SOL    HW140982   3.999   1.271   7.057  2.6057 -3.3594 -0.3817
41124SOL    HW240983   4.052   1.233   6.921 -1.0486 -2.8300 -2.0812
41125SOL     OW40984   8.390   3.150   2.779  0.3072  0.0767  0.1056
41125SOL    HW140985   8.417   3.092   2.708  2.0079 -0.7040  1.3141
41125SOL    HW240986   8.370   3.233   2.737  0.8144 -0.5048 -1.3275
41126SOL     OW40987  13.386  10.502   3.058 -0.2513  0.0540 -0.0550
41126SOL    HW140988  13.373  10.428   3.117 -2.2212  0.0751 -0.3933
41126SOL    HW240989  13.412  10.461   2.975  1.1623 -0.0582  0.4121
41127SOL     OW40990   1.881   7.590  13.005 -0.9679  0.1819  0.1606
41127SOL    HW140991   1.829   7.627  13.076 -1.2519 -0.7156  0.4294
41127SOL    HW240992   1.908   7.504  13.036 -1.6204 -0.4885 -1.0602
41128SOL     OW40993   8.238   8.605   2.569  0.2357  0.2421 -0.3796
41128SOL    HW140994   8.157   8.564   2.541 -0.3390  1.8069 -1.1378
41128SOL    HW240995   8.284   8.626   2.487  1.3231 -0.4399  0.0332
41129SOL     OW40996   1.197  10.028   1.620 -0.0036 -0.1332 -0.2936
41129SOL    HW140997   1.279  10.063   1.586  0.5621  0.2031  1.3320
41129SOL    HW240998   1.223   9.975   1.696 -1.1559 -1.3546 -0.7062
41130SOL     OW40999   3.609   7.006   5.324  0.3269  0.2543  0.2244
41130SOL    HW141000   3.673   7.058   5.275  0.8458 -1.1955 -0.6858
41130SOL    HW241001   3.596   7.056   5.405  0.5232  1.9816 -0.7400
41131SOL     OW41002   2.829   5.352  12.447 -0.6357  0.4582 -0.4475
41131SOL    HW141003   2.806   5.268  12.486  1.2682  0.8499  1.7945
41131SOL    HW241004   2.827   5.337  12.353 -1.6446 -1.6892 -0.1327
41132SOL     OW41005   5.595   9.430   9.230  0.1367 -0.1683  0.2545
41132SOL    HW141006   5.571   9.516   9.265  2.0723  0.6876 -0.3800
41132SOL    HW241007   5.690   9.433   9.225  0.1315 -1.7066 -1.4368
41133SOL     OW41008   3.589   3.564   1.292  0.1709 -0.1043 -0.2183
41133SOL    HW141009   3.505   3.587   1.250 -0.1307  1.9100  1.3141
41133SOL    HW241010   3.566   3.500   1.359 -1.0610  3.3458  3.0321
41134SOL     OW41011   3.035   6.955   5.664  0.0465 -0.1201 -0.5843
41134SOL    HW141012   3.098   6.893   5.702  1.0310 -0.2541 -2.3333
41134SOL    HW241013   3.011   6.916   5.580 -0.1543  1.3243 -1.2186
41135SOL     OW41014   9.997   8.812   2.404 -0.2021 -0.4901  0.4994
41135SOL    HW141015   9.974   8.834   2.314 -0.5936  2.1430  1.1599
41135SOL    HW241016  10.080   8.858   2.420 -0.6389 -0.1002  1.7617
41136SOL     OW41017   8.685   1.786   7.698 -0.1548 -0.1091  0.5621
41136SOL    HW141018   8.707   1.701   7.736  0.2675 -0.9270 -1.4128
41136SOL    HW241019   8.763   1.839   7.712  0.8780 -1.1111 -1.0643
41137SOL     OW41020   3.398   9.396  11.521 -0.2060  0.5232  0.6222
41137SOL    HW141021   3.456   9.329  11.556 -0.5993  0.1736  0.6211
41137SOL    HW241022   3.310   9.364  11.542 -0.3686  2.1305  2.6605
41138SOL     OW41023   3.111  11.797  10.206  0.0670  0.0245 -0.0701
41138SOL    HW141024   3.032  11.785  10.153  0.1207 -1.3565  0.1242
41138SOL    HW241025   3.092  11.873  10.261 -0.9243  0.0134 -0.3818
41139SOL     OW41026   4.843   4.012   2.949 -0.0361 -0.0401 -0.6045
41139SOL    HW141027   4.755   4.027   2.914  0.0484 -0.1684 -0.8744
41139SOL    HW241028   4.847   3.918   2.966 -0.8399  0.2882  1.8277
41140SOL     OW41029  11.369   7.327   7.361  0.6223  0.2613 -0.2839
41140SOL    HW141030  11.423   7.285   7.428  1.0555 -0.6814 -1.2073
41140SOL    HW241031  11.281   7.328   7.399  0.8992 -0.0350  0.3902
41141SOL     OW41032   6.388  11.438   7.985 -0.1441 -0.4136 -0.5202
41141SOL    HW141033   6.471  11.474   8.017 -0.8022  0.7962 -0.1042
41141SOL    HW241034   6.366  11.493   7.909 -1.4921  0.5507  0.5158
41142SOL     OW41035   3.032   4.153   3.807  0.1924  0.0386 -0.2385
41142SOL    HW141036   3.114   4.202   3.807  0.2264  0.0128  1.0182
41142SOL    HW241037   2.964   4.219   3.800  0.2772  0.1793  0.2425
41143SOL     OW41038   7.949   4.802  13.173  0.7289  0.4163 -0.2035
41143SOL    HW141039   7.894   4.724  13.169  0.3424  0.7277 -1.5232
41143SOL    HW241040   7.944   4.830  13.265  0.5135 -0.8401  0.1895
41144SOL     OW41041   9.142   7.503   2.809 -0.0943  0.1445  0.1355
41144SOL    HW141042   9.145   7.407   2.811  0.7165  0.0620 -2.1518
41144SOL    HW241043   9.197   7.527   2.735  0.7896  2.4759  1.4352
41145SOL     OW41044   2.054   3.122   2.449 -0.3524 -0.1279  0.1760
41145SOL    HW141045   2.100   3.083   2.524 -1.0237  0.8302  1.1167
41145SOL    HW241046   2.124   3.152   2.391  0.1802 -0.7003  0.5041
41146SOL     OW41047   5.875   5.096   5.528  0.1802  0.6367 -0.1247
41146SOL    HW141048   5.969   5.098   5.513  0.0096  0.4770 -1.3586
41146SOL    HW241049   5.864   5.126   5.618  1.4524 -0.0727  0.2811
41147SOL     OW41050   1.224   8.103   8.006 -0.6219  0.5403 -0.8496
41147SOL    HW141051   1.211   8.090   7.912  2.2749 -0.4451 -1.2048
41147SOL    HW241052   1.177   8.030   8.047  2.0401 -1.9078 -1.9009
41148SOL     OW41053  10.556   6.389   3.142  0.4584 -0.3849  0.0030
41148SOL    HW141054  10.563   6.380   3.047  0.8117 -0.9127  0.0738
41148SOL    HW241055  10.646   6.405   3.171  0.2938  0.2100  0.2106
41149SOL     OW41056  12.820   6.687  11.473 -0.1289 -0.2643 -0.0427
41149SOL    HW141057  12.831   6.688  11.569 -1.4947  0.2278  0.1368
41149SOL    HW241058  12.837   6.597  11.448 -2.3209 -1.0633  1.0383
41150SOL     OW41059   9.487  12.924   3.361 -0.3144  0.2438  0.1506
41150SOL    HW141060   9.428  12.978   3.414 -1.0108  1.2140 -1.5329
41150SOL    HW241061   9.478  12.836   3.398 -2.6158  0.4094  0.1538
41151SOL     OW41062   9.403   9.465   4.634  0.0871 -0.4986 -0.2543
41151SOL    HW141063   9.412   9.380   4.589  1.9824 -1.0266  1.0135
41151SOL    HW241064   9.492   9.498   4.642 -0.3832  0.5225  1.3181
41152SOL     OW41065   3.521   9.800   3.916 -0.3070 -0.2465  0.6529
41152SOL    HW141066   3.525   9.890   3.883 -0.9333  0.6490  2.8800
41152SOL    HW241067   3.428   9.779   3.920 -0.2328 -0.4569  1.5036
41153SOL     OW41068   9.455   8.008  13.459 -0.4024 -0.3748 -0.4148
41153SOL    HW141069   9.493   7.922  13.442  1.1103  0.4218 -1.2933
41153SOL    HW241070   9.509   8.045  13.529 -1.0803 -0.1486  0.0061
41154SOL     OW41071  13.667  13.412   2.308  0.0898  0.9340  0.2795
41154SOL    HW141072  13.719  13.423   2.388 -2.8598  0.6018  2.3891
41154SOL    HW241073  13.588  13.464   2.324 -1.8707 -1.4387 -1.1757
41155SOL     OW41074  13.783   2.169  10.373 -0.2947  0.2764  0.2669
41155SOL    HW141075  13.720   2.230  10.409 -1.2012  1.2356 -2.6943
41155SOL    HW241076  13.861   2.221  10.356 -0.2984  0.1183 -0.2495
41156SOL     OW41077   8.038   0.959   7.375  0.2537 -0.0868  0.0284
41156SOL    HW141078   8.119   0.991   7.414  0.2404  0.7362 -0.5931
41156SOL    HW241079   7.973   1.025   7.398 -0.2194 -0.6805  0.4144
41157SOL     OW41080  13.522   5.175   0.363 -0.1049  0.4107 -0.4532
41157SOL    HW141081  13.451   5.227   0.400  0.4969  1.2378 -0.4174
41157SOL    HW241082  13.598   5.198   0.416  0.1007 -0.8147 -0.1913
41158SOL     OW41083   5.289   4.448   8.970 -0.0333 -0.5860  0.3951
41158SOL    HW141084   5.356   4.511   8.946  0.0343 -0.6791  0.3417
41158SOL    HW241085   5.307   4.371   8.916 -1.3464  0.0668 -1.0654
41159SOL     OW41086  10.867   8.610   5.770 -0.2318  0.0227 -0.4420
41159SOL    HW141087  10.930   8.678   5.747  0.7316 -0.4454  0.7201
41159SOL    HW241088  10.913   8.528   5.754 -0.3084 -0.3226  0.9772
41160SOL     OW41089   3.343   1.773   6.988  0.1109  0.5312  0.5337
41160SOL    HW141090   3.298   1.848   6.950 -0.3069  0.4103  0.7869
41160SOL    HW241091   3.428   1.771   6.944  0.3576  1.5086  0.9445
41161SOL     OW41092  11.213   7.945  10.505 -0.2731 -0.2317  0.3295
41161SOL    HW141093  11.151   7.940  10.432  0.1510  1.3715 -0.1802
41161SOL    HW241094  11.179   7.884  10.570 -3.3094  1.6944  0.7467
41162SOL     OW41095   3.290  10.035  11.429  0.2944  0.1602  0.2439
41162SOL    HW141096   3.232  10.104  11.461 -2.5569 -1.6020 -0.6463
41162SOL    HW241097   3.292  10.047  11.334 -2.1136 -2.1128 -0.2146
41163SOL     OW41098   2.635  10.046   9.347  0.0615  0.3454 -0.2339
41163SOL    HW141099   2.641  10.035   9.442 -0.6066  0.6944 -0.1435
41163SOL    HW241100   2.695   9.981   9.311  1.1074  0.9052  0.4552
41164SOL     OW41101   2.647  11.712   5.352 -0.1410 -0.1004  0.4599
41164SOL    HW141102   2.644  11.772   5.277  0.7566 -0.6760 -0.0573
41164SOL    HW241103   2.596  11.636   5.324  3.8195 -2.3621 -1.5082
41165SOL     OW41104  12.497   4.526   5.066 -0.5070 -0.3164  0.2398
41165SOL    HW141105  12.551   4.564   4.996 -0.4701 -0.5354  0.1485
41165SOL    HW241106  12.555   4.465   5.111 -0.5758 -0.2860  0.3686
41166SOL     OW41107   3.856   9.481   1.109  0.7392  0.0786  0.3302
41166SOL    HW141108   3.865   9.575   1.125  0.0585  0.5776 -1.8697
41166SOL    HW241109   3.934   9.458   1.058  0.2605 -0.2467 -0.2648
41167SOL     OW41110  12.470  13.272   8.622  0.0226 -0.1440 -0.1740
41167SOL    HW141111  12.390  13.282   8.673  0.3753 -0.2671  0.4228
41167SOL    HW241112  12.538  13.254   8.688  0.3665 -1.0105 -0.7444
41168SOL     OW41113  12.304  10.524  12.436 -0.5277  0.0319 -0.6080
41168SOL    HW141114  12.335  10.538  12.525  0.3473  0.6511 -0.9929
41168SOL    HW241115  12.376  10.477  12.393 -1.1663 -0.7499 -0.8442
41169SOL     OW41116  12.354   3.614  13.560 -0.0730 -0.1821 -0.1673
41169SOL    HW141117  12.266   3.608  13.596 -0.4945  0.6033 -1.0248
41169SOL    HW241118  12.409   3.570  13.625 -0.8625  0.7438  1.1865
41170SOL     OW41119  10.859   5.210  10.572  0.1828 -0.1443  0.3598
41170SOL    HW141120  10.883   5.303  10.570  1.6846 -0.3734 -4.2990
41170SOL    HW241121  10.887   5.180  10.658  2.7045  3.0235  0.8455
41171SOL     OW41122   0.329   7.836   0.204 -0.1028  0.0797  0.0858
41171SOL    HW141123   0.323   7.758   0.149  1.5693 -1.2114  1.6094
41171SOL    HW241124   0.379   7.899   0.152 -0.0397 -0.4761 -0.5291
41172SOL     OW41125   1.156   8.995   8.664  0.9833  0.0804  0.1197
41172SOL    HW141126   1.158   8.971   8.757  0.9546 -0.1922  0.0518
41172SOL    HW241127   1.211   9.073   8.658  0.6874  0.3136  0.4246
41173SOL     OW41128   0.519   4.877   0.101  0.3899 -0.1409 -0.3248
41173SOL    HW141129   0.472   4.850   0.179  1.4676 -0.0360  0.3731
41173SOL    HW241130   0.605   4.906   0.132  1.1602 -0.9009 -1.6275
41174SOL     OW41131   3.441   4.120  11.593  0.1510  0.2356  0.0126
41174SOL    HW141132   3.472   4.183  11.528 -0.3978  0.4367 -0.0540
41174SOL    HW241133   3.489   4.142  11.672  0.1804  0.5459 -0.0907
41175SOL     OW41134   5.007   0.124   1.814 -0.0525  0.3669  0.5893
41175SOL    HW141135   4.988   0.134   1.907  0.9172  2.5162  0.6234
41175SOL    HW241136   5.088   0.072   1.811 -0.3724 -0.1552  0.9060
41176SOL     OW41137  11.058   8.981   2.594  0.2558 -0.0007  0.1620
41176SOL    HW141138  11.048   8.937   2.510  0.9351 -0.2333  0.1977
41176SOL    HW241139  10.983   8.950   2.646  0.5944 -0.9434  0.1087
41177SOL     OW41140   1.450   8.230   8.131 -0.2506  0.5364 -0.0536
41177SOL    HW141141   1.385   8.167   8.100  0.3512  0.6059 -1.5274
41177SOL    HW241142   1.524   8.176   8.160 -0.8494  0.4664  1.4741
41178SOL     OW41143   6.610   6.541   0.444  0.4169  0.3409 -0.3823
41178SOL    HW141144   6.537   6.552   0.382 -0.5284 -0.1374  0.6027
41178SOL    HW241145   6.687   6.570   0.395 -0.2412 -0.2907 -1.8829
41179SOL     OW41146   5.406   9.100   3.549 -0.3154 -0.0936  0.1180
41179SOL    HW141147   5.326   9.047   3.552 -0.6063  0.3456  0.1174
41179SOL    HW241148   5.375   9.190   3.546  0.1726  0.0555 -0.6013
41180SOL     OW41149  10.944   0.587   1.715 -0.8610  0.3304 -0.2097
41180SOL    HW141150  11.021   0.642   1.725  0.3863 -1.6676  2.3043
41180SOL    HW241151  10.870   0.644   1.738  0.2887  1.2140  1.4932
41181SOL     OW41152   7.089   0.338  11.702 -0.3459  0.0350 -0.1848
41181SOL    HW141153   7.032   0.410  11.675 -0.0949  0.2685 -0.0890
41181SOL    HW241154   7.029   0.265  11.718 -0.7523  0.6297  1.1083
41182SOL     OW41155  12.542  13.295   4.441 -0.5393  0.5333  0.2163
41182SOL    HW141156  12.544  13.250   4.357  1.3039 -0.3006  0.6481
41182SOL    HW241157  12.496  13.377   4.423 -0.8102  0.0640 -1.4294
41183SOL     OW41158   2.542   2.392  11.712 -0.2323 -0.0506  0.3964
41183SOL    HW141159   2.499   2.471  11.678 -0.7493 -0.5106 -0.0530
41183SOL    HW241160   2.612   2.425  11.768 -1.2434  0.7314  1.2596
41184SOL     OW41161   6.010   7.285  12.278  0.1599 -0.2125  0.1655
41184SOL    HW141162   5.919   7.311  12.288 -0.3780 -2.0404  0.2164
41184SOL    HW241163   6.046   7.349  12.215 -1.3741 -0.0060 -0.5529
41185SOL     OW41164   5.840   7.554   9.255  0.0485 -0.0695 -0.3622
41185SOL    HW141165   5.821   7.532   9.347 -0.1413 -1.0369 -0.6159
41185SOL    HW241166   5.755   7.553   9.212  0.1613  0.1661 -0.5890
41186SOL     OW41167   5.688   1.177  10.431 -0.4403 -0.1029  0.4660
41186SOL    HW141168   5.622   1.115  10.461  0.0395  0.0216  1.8145
41186SOL    HW241169   5.700   1.237  10.504  0.0784  0.7772 -0.3281
41187SOL     OW41170   4.826  11.183   2.115  0.2457 -0.0166  0.5766
41187SOL    HW141171   4.908  11.135   2.129 -0.6749 -1.8489  0.0020
41187SOL    HW241172   4.825  11.203   2.022  0.9486  1.8371  0.9233
41188SOL     OW41173   8.235   4.015   2.408 -0.2795 -0.1617  0.1707
41188SOL    HW141174   8.205   4.037   2.496  1.2729  0.1506  0.6560
41188SOL    HW241175   8.284   3.934   2.419 -1.3015 -0.9285 -0.6782
41189SOL     OW41176   1.540  10.637   2.994 -0.3494  0.1990 -0.6938
41189SOL    HW141177   1.614  10.591   2.954  1.7461  1.0253  1.9236
41189SOL    HW241178   1.524  10.590   3.076 -3.2037 -0.3047 -1.4356
41190SOL     OW41179   7.018  13.544   1.135  0.1485  0.4034 -0.3971
41190SOL    HW141180   7.095  13.487   1.134 -1.8398 -2.5732  0.9538
41190SOL    HW241181   7.026  13.594   1.216  0.6112  0.0252 -0.2063
41191SOL     OW41182   8.269   5.706   0.659  0.1928  0.1092 -0.1320
41191SOL    HW141183   8.296   5.620   0.627 -2.0271 -1.2630  1.4041
41191SOL    HW241184   8.344   5.738   0.709  0.4001 -1.8322  0.8626
41192SOL     OW41185   4.523  10.649  11.588 -0.4867 -0.5369  0.5564
41192SOL    HW141186   4.590  10.581  11.582 -0.1372 -0.1198 -0.6564
41192SOL    HW241187   4.528  10.695  11.504 -0.4090  1.2723  1.4933
41193SOL     OW41188   8.486   5.654   8.672 -0.2028 -0.2835  0.6082
41193SOL    HW141189   8.419   5.629   8.608 -0.5703  1.3615  0.2951
41193SOL    HW241190   8.466   5.745   8.692  0.8749 -0.3059  1.8905
41194SOL     OW41191   2.357   1.579   1.276  1.1164  0.0548 -0.0628
41194SOL    HW141192   2.411   1.655   1.251  1.1817  0.6732  1.7900
41194SOL    HW241193   2.273   1.617   1.301  0.6313 -0.6663 -0.5566
41195SOL     OW41194  12.571   6.767   8.288 -0.4151 -0.1658  0.3837
41195SOL    HW141195  12.585   6.799   8.199 -1.8017  1.0795  0.5904
41195SOL    HW241196  12.554   6.846   8.340  1.5288 -0.7241  2.0281
41196SOL     OW41197   0.875   9.538  13.936 -0.2336 -0.5309  0.0955
41196SOL    HW141198   0.961   9.579  13.945 -0.7651  0.5556  0.3791
41196SOL    HW241199   0.872   9.510  13.845 -0.3911  1.3548 -0.5172
41197SOL     OW41200  11.589   5.183   2.637 -0.2413 -0.1692 -0.5868
41197SOL    HW141201  11.670   5.233   2.630 -0.4220  0.4888  1.4447
41197SOL    HW241202  11.568   5.184   2.731 -2.4857 -0.4941 -1.0308
41198SOL     OW41203   3.603   6.028   9.080 -0.2477 -0.2233 -0.5495
41198SOL    HW141204   3.554   6.085   9.020  1.2936  0.4626 -1.2242
41198SOL    HW241205   3.542   6.009   9.151 -1.3950  0.7938 -1.2241
41199SOL     OW41206   3.865   2.332  13.057  0.0267  0.1805  0.2265
41199SOL    HW141207   3.803   2.398  13.027  1.2732  0.9466 -0.7454
41199SOL    HW241208   3.918   2.376  13.122  0.3533 -0.0967  0.1507
41200SOL     OW41209   7.938   0.340   2.201  0.2956 -0.5493  0.3185
41200SOL    HW141210   7.848   0.367   2.218  0.9995  0.9119  2.0660
41200SOL    HW241211   7.950   0.260   2.252  0.4668  0.2299  1.5463
41201SOL     OW41212  12.196   1.928  11.688  0.1929 -0.1191 -0.2006
41201SOL    HW141213  12.250   1.991  11.640  1.2333 -0.5127  0.4206
41201SOL    HW241214  12.180   1.858  11.624  1.2825 -0.4753 -0.1178
41202SOL     OW41215  14.088  10.111   5.963  0.0547 -0.3688  0.7684
41202SOL    HW141216  14.105  10.188   6.017 -0.7757  0.5356 -0.1816
41202SOL    HW241217  14.036  10.145   5.890  1.7131 -1.3835 -0.9872
41203SOL     OW41218   3.272   1.576   8.094  0.1625  0.3956  0.4862
41203SOL    HW141219   3.289   1.616   8.180  0.6861  1.2429  0.0122
41203SOL    HW241220   3.290   1.647   8.032  0.5399 -0.4330 -0.3605
41204SOL     OW41221   6.756   4.361  11.317  0.2068  0.1186 -0.0683
41204SOL    HW141222   6.697   4.420  11.364  0.8628  0.8559 -0.1513
41204SOL    HW241223   6.722   4.359  11.228 -0.1093 -0.0288  0.0535
41205SOL     OW41224   7.461   5.417  13.993  0.7126  0.7360  0.2062
41205SOL    HW141225   7.521   5.343  13.993 -0.0392  0.0923 -0.8137
41205SOL    HW241226   7.458   5.446  13.902 -1.4239 -0.0484 -0.0453
41206SOL     OW41227  13.745   8.122   8.273 -0.4960 -0.3317 -0.1310
41206SOL    HW141228  13.793   8.039   8.280 -1.0561 -0.7670 -1.1911
41206SOL    HW241229  13.654   8.098   8.286 -0.6096  0.1980  0.0494
41207SOL     OW41230  10.960  10.166   8.323 -0.6440 -0.3914  0.1544
41207SOL    HW141231  10.929  10.137   8.409  1.0883 -2.2373  0.2208
41207SOL    HW241232  11.055  10.165   8.330 -0.4605 -0.6954 -1.8223
41208SOL     OW41233   6.256  13.926   3.543  0.2397 -0.0547  0.0252
41208SOL    HW141234   6.247  13.942   3.637  0.9739 -0.8500  0.2498
41208SOL    HW241235   6.201  13.992   3.502  1.0075  1.2075  0.9581
41209SOL     OW41236   7.505   3.956  10.985  0.1896  0.4362  0.0304
41209SOL    HW141237   7.480   3.972  10.894  0.4256  1.6185  0.1606
41209SOL    HW241238   7.476   4.034  11.032 -0.5817 -0.4611  1.1167
41210SOL     OW41239   9.111   1.938  14.009 -0.1250  0.3481 -0.0600
41210SOL    HW141240   9.146   2.025  13.987 -2.2946  1.6224  1.1573
41210SOL    HW241241   9.189   1.884  14.020  1.3875  2.4217  0.2130
41211SOL     OW41242   0.106   5.177   2.058 -0.1417  0.1442  0.3216
41211SOL    HW141243   0.177   5.223   2.103  1.2882 -0.6769 -0.9859
41211SOL    HW241244   0.107   5.214   1.969 -0.1196 -1.1362 -0.2310
41212SOL     OW41245  10.076   0.907   5.244 -0.3182  0.1993  0.5373
41212SOL    HW141246   9.999   0.925   5.298 -0.8437  0.2893 -0.2271
41212SOL    HW241247  10.059   0.953   5.161  1.1743  1.4007  0.8347
41213SOL     OW41248   6.446   1.004  11.384  0.3831  0.9676 -0.0777
41213SOL    HW141249   6.399   0.994  11.301 -0.0714 -2.5583  0.4501
41213SOL    HW241250   6.521   0.945  11.376  0.8577  1.2863  1.6647
41214SOL     OW41251  12.366   6.618   7.961 -0.3598 -0.2438 -0.2902
41214SOL    HW141252  12.350   6.592   7.870  0.2798 -1.6856 -0.0120
41214SOL    HW241253  12.291   6.674   7.983  0.4068  1.6870 -2.2742
41215SOL     OW41254   1.163  10.260   2.617  0.8444 -0.0200  0.4528
41215SOL    HW141255   1.250  10.300   2.616  0.7271  0.3315  2.0216
41215SOL    HW241256   1.103  10.335   2.615  0.5815 -0.2344  0.2794
41216SOL     OW41257   7.673   3.781  11.092 -0.2657  0.3623  0.4048
41216SOL    HW141258   7.622   3.854  11.057  0.1588  1.2665  1.6076
41216SOL    HW241259   7.743   3.767  11.028  0.3182  1.7833  0.7016
41217SOL     OW41260  11.215   8.678  10.607 -0.3245 -0.2416  0.0088
41217SOL    HW141261  11.249   8.667  10.696  1.7105 -0.5254 -0.7594
41217SOL    HW241262  11.264   8.615  10.555 -2.4975 -1.1204 -1.1154
41218SOL     OW41263   4.053   7.248   0.981 -0.2561 -0.4806  0.0931
41218SOL    HW141264   4.045   7.176   1.044 -0.7264 -1.7372 -1.3452
41218SOL    HW241265   4.140   7.236   0.943  0.6264  1.1373  1.4619
41219SOL     OW41266  12.242  12.568   0.759  0.1155 -0.0300  0.0539
41219SOL    HW141267  12.199  12.652   0.744  0.8830  0.0974 -1.7117
41219SOL    HW241268  12.240  12.557   0.854 -0.4798  1.7233  0.2880
41220SOL     OW41269   1.528   7.678   5.328  0.0411 -0.0528  0.1662
41220SOL    HW141270   1.549   7.665   5.421 -1.7628 -0.2081  0.6092
41220SOL    HW241271   1.530   7.773   5.316  1.5056 -0.0863  0.0217
41221SOL     OW41272   8.576  14.074   6.026 -0.1256  0.1984  0.0948
41221SOL    HW141273   8.595  13.983   6.049  1.3281  0.1350 -1.1821
41221SOL    HW241274   8.523  14.068   5.946 -1.3588  0.4759  0.8647
41222SOL     OW41275  13.280   4.027   0.230  0.2389 -0.3139 -0.2167
41222SOL    HW141276  13.195   3.995   0.203 -0.1367 -0.4268  1.0311
41222SOL    HW241277  13.313   3.961   0.290  0.7428  0.2327  0.1246
41223SOL     OW41278  13.669   4.356  13.533 -0.0365  0.5131  0.2374
41223SOL    HW141279  13.705   4.288  13.476 -2.9190 -1.0343  0.0376
41223SOL    HW241280  13.607   4.403  13.477  0.1952  1.7733  1.0180
41224SOL     OW41281   9.490  11.268   5.884 -0.0853  0.3357 -0.0716
41224SOL    HW141282   9.487  11.174   5.899  2.2029 -0.1660 -2.2393
41224SOL    HW241283   9.582  11.291   5.888 -0.4423  2.1903 -1.2027
41225SOL     OW41284  10.942  11.151  11.682  0.4376  0.3137  0.3266
41225SOL    HW141285  11.030  11.114  11.676  0.3730  0.2630 -0.4461
41225SOL    HW241286  10.887  11.088  11.635 -0.2080 -0.2334  1.7469
41226SOL     OW41287   8.023  14.016   9.140 -0.2498 -0.3972 -0.4271
41226SOL    HW141288   7.946  14.061   9.105  0.0584  0.7528  0.3500
41226SOL    HW241289   8.052  14.070   9.213  1.1419 -0.9679 -0.5297
41227SOL     OW41290   8.431  12.190   5.451  0.0832 -0.4644  0.5625
41227SOL    HW141291   8.429  12.264   5.512 -0.5856 -1.3370  1.6373
41227SOL    HW241292   8.426  12.113   5.507 -0.1505 -1.3121 -0.5877
41228SOL     OW41293   9.235   9.977   7.751  0.1476 -0.4761 -0.2101
41228SOL    HW141294   9.168  10.036   7.716  1.0745  0.7010 -0.0429
41228SOL    HW241295   9.291  10.033   7.804  0.7762 -1.6096  0.3573
41229SOL     OW41296   7.532   5.995   1.050  0.2809  0.0336  0.6068
41229SOL    HW141297   7.447   6.040   1.056  0.5150  1.0664 -2.2252
41229SOL    HW241298   7.596   6.061   1.077  0.4478  0.7725 -1.4159
41230SOL     OW41299   4.217   6.297   6.715 -0.4150  0.5134  0.0218
41230SOL    HW141300   4.199   6.353   6.790  0.7124  1.2300 -0.2156
41230SOL    HW241301   4.177   6.342   6.640 -1.3850 -0.1122  0.1377
41231SOL     OW41302  12.999   6.129   1.651  0.0129 -0.4478 -0.3049
41231SOL    HW141303  12.932   6.094   1.592  0.0520 -2.0363  0.5415
41231SOL    HW241304  13.073   6.068   1.643  0.7802  0.4212 -0.0754
41232SOL     OW41305  14.053  11.163  10.122  0.1575 -0.3822  0.1138
41232SOL    HW141306  14.011  11.249  10.114  1.0117  0.1773  1.2834
41232SOL    HW241307  14.094  11.165  10.208  2.0336 -1.1426 -0.7220
41233SOL     OW41308   6.179   3.394  10.700 -0.3034  0.0191  1.1529
41233SOL    HW141309   6.089   3.386  10.669  0.8967 -0.7347 -2.6932
41233SOL    HW241310   6.194   3.488  10.705 -0.7335  0.1893 -0.3037
41234SOL     OW41311   9.620  12.103   2.914  0.8657 -0.2962  0.0124
41234SOL    HW141312   9.592  12.098   2.822 -0.1980  0.3817  0.2815
41234SOL    HW241313   9.669  12.185   2.920 -0.2438  0.3744  0.3239
41235SOL     OW41314   8.817   9.958   2.573  0.3486 -0.1533  0.2498
41235SOL    HW141315   8.789   9.867   2.576  1.8505 -0.6109  2.2717
41235SOL    HW241316   8.789   9.995   2.657  0.9857  0.8660  0.0358
41236SOL     OW41317   9.349   2.866   5.702  0.4398  0.2100 -0.2633
41236SOL    HW141318   9.364   2.781   5.660  2.2438 -0.1878  1.0924
41236SOL    HW241319   9.267   2.855   5.750  1.1048 -1.1052  0.6363
41237SOL     OW41320   5.846   0.924   1.421 -0.6260  0.1969  0.0091
41237SOL    HW141321   5.774   0.985   1.434 -0.3857  0.8579 -1.5580
41237SOL    HW241322   5.809   0.838   1.441 -1.4442  0.6742  0.5802
41238SOL     OW41323   8.786   4.936  13.912  0.1229 -0.0037 -0.0601
41238SOL    HW141324   8.843   5.009  13.887  1.0641 -1.1849 -1.5488
41238SOL    HW241325   8.742   4.966  13.991  1.8484  1.4634  0.4042
41239SOL     OW41326  14.066   5.932   2.516 -0.7305  0.2528 -0.0690
41239SOL    HW141327  14.023   6.016   2.533 -0.2693  0.7904 -1.4643
41239SOL    HW241328  14.062   5.921   2.421 -0.7727 -1.3136  0.0771
41240SOL     OW41329   1.793   2.288  13.001  0.3435  0.0191 -0.2228
41240SOL    HW141330   1.794   2.282  12.905 -0.4892  3.5470 -0.5964
41240SOL    HW241331   1.883   2.272  13.027  0.4601 -1.7055 -1.4603
41241SOL     OW41332   4.387   1.182   1.832 -0.3193  0.1873 -0.0083
41241SOL    HW141333   4.421   1.185   1.743 -0.4316  3.7838 -0.0705
41241SOL    HW241334   4.299   1.146   1.822  0.4518 -1.6206 -0.9378
41242SOL     OW41335   5.888   3.018   0.262 -0.1814 -0.1769 -1.1634
41242SOL    HW141336   5.959   3.008   0.198 -0.5056 -0.2615 -1.5150
41242SOL    HW241337   5.864   3.110   0.257 -0.2260 -0.1897 -1.1855
41243SOL     OW41338   2.793   0.355   7.641  0.0927 -0.2452 -0.2336
41243SOL    HW141339   2.760   0.411   7.712  0.7351 -1.4060  1.0432
41243SOL    HW241340   2.773   0.403   7.561 -0.2576  1.3434  0.7556
41244SOL     OW41341   0.613   9.786   2.043  0.4611  0.6160 -0.3824
41244SOL    HW141342   0.691   9.840   2.055  0.0810  1.1255 -0.1822
41244SOL    HW241343   0.593   9.791   1.950  2.0839 -1.5036 -0.9384
41245SOL     OW41344  12.582   5.064   1.535 -0.4921  0.0274  0.1178
41245SOL    HW141345  12.493   5.100   1.534 -0.2217  0.7185  0.5712
41245SOL    HW241346  12.606   5.062   1.627 -0.4291 -1.1575  0.0835
41246SOL     OW41347   8.235  12.903   0.707 -0.3147 -0.1081  0.2713
41246SOL    HW141348   8.154  12.853   0.715  0.0910 -0.6223  1.2109
41246SOL    HW241349   8.271  12.876   0.622 -0.8912 -0.2163  0.0549
41247SOL     OW41350  12.378  11.024  11.935 -0.3193  0.4764  0.7513
41247SOL    HW141351  12.384  11.110  11.978  1.2301  0.2750  1.0144
41247SOL    HW241352  12.310  11.035  11.869 -2.6161  0.8793  3.0194
41248SOL     OW41353   3.716  12.269  11.388  0.2095 -0.2027  0.1217
41248SOL    HW141354   3.715  12.313  11.303  1.4171 -1.0903 -0.3856
41248SOL    HW241355   3.655  12.319  11.442  0.0505  0.8791 -1.0173
41249SOL     OW41356  12.726   2.602   7.539 -0.0528  0.1850  0.3375
41249SOL    HW141357  12.668   2.537   7.579 -2.8102 -0.2803 -3.8262
41249SOL    HW241358  12.785   2.550   7.483  0.4455  1.0263  0.0675
41250SOL     OW41359   6.108   6.984   6.636  0.1383  0.3484 -0.0218
41250SOL    HW141360   6.192   7.030   6.636 -0.3611  1.2982  1.2449
41250SOL    HW241361   6.057   7.027   6.704 -0.9120 -1.0870  0.1319
41251SOL     OW41362   6.094   9.829  11.426 -0.3876  0.5216 -0.4887
41251SOL    HW141363   6.005   9.832  11.392  0.1854 -0.0117 -2.1612
41251SOL    HW241364   6.148   9.861  11.353  0.6282  3.2721  1.2907
41252SOL     OW41365   8.405  10.637  13.033  0.3148 -0.0771  0.0418
41252SOL    HW141366   8.412  10.693  12.956 -0.1139 -1.5837 -1.1425
41252SOL    HW241367   8.311  10.619  13.040  0.6385 -2.5113 -1.0460
41253SOL     OW41368   4.445   3.064   4.765 -0.1188 -0.7520  0.0628
41253SOL    HW141369   4.397   3.065   4.682 -1.5587  1.6551  0.8240
41253SOL    HW241370   4.516   3.002   4.750 -0.5053 -0.6543 -2.8530
41254SOL     OW41371   3.525  10.136   4.093 -0.0209 -0.0257  0.4228
41254SOL    HW141372   3.586  10.111   4.161  0.2071 -1.1562 -0.1790
41254SOL    HW241373   3.442  10.095   4.118  0.5253 -2.1308 -0.9322
41255SOL     OW41374   1.961   4.393  12.609 -0.3254 -0.3587 -0.4218
41255SOL    HW141375   1.964   4.398  12.514 -0.7470  0.7837 -0.3910
41255SOL    HW241376   2.004   4.310  12.630  0.7734 -0.0964 -1.5335
41256SOL     OW41377  10.068  13.390   9.823 -0.0018  0.0770  0.4214
41256SOL    HW141378  10.031  13.388   9.911  2.7024 -0.1829  1.6575
41256SOL    HW241379  10.140  13.327   9.826  0.3136  0.2369 -1.9361
41257SOL     OW41380  11.468   0.472   8.084 -0.3639 -0.7259  0.0388
41257SOL    HW141381  11.453   0.396   8.141  1.2161 -1.4864 -0.5121
41257SOL    HW241382  11.562   0.488   8.090 -0.8609  2.2402  1.3864
41258SOL     OW41383  12.244   2.519   5.644 -0.0445 -0.0451 -0.3419
41258SOL    HW141384  12.251   2.550   5.734 -0.8842  0.6759 -0.5137
41258SOL    HW241385  12.335   2.515   5.613  0.2391 -0.1363  0.4735
41259SOL     OW41386   0.376  13.675   7.182 -0.3073  0.4863  0.4113
41259SOL    HW141387   0.286  13.691   7.208 -0.6944  2.1989 -1.6965
41259SOL    HW241388   0.392  13.583   7.205 -2.1585  0.4915  1.9119
41260SOL     OW41389   7.670  11.178  11.327  0.7860 -0.2430  0.3974
41260SOL    HW141390   7.603  11.196  11.393  1.1769  1.6732  0.3104
41260SOL    HW241391   7.724  11.109  11.366 -0.8620 -1.4272  0.7063
41261SOL     OW41392   6.185   0.637  10.387 -0.6029  0.1271  0.4132
41261SOL    HW141393   6.187   0.698  10.313  0.3318 -0.0746  0.2640
41261SOL    HW241394   6.265   0.654  10.436  0.8160 -2.3407 -0.8027
41262SOL     OW41395   2.384   5.625   9.885 -0.9070 -0.0875  0.0192
41262SOL    HW141396   2.467   5.605   9.843 -1.4533 -0.7849 -0.7542
41262SOL    HW241397   2.404   5.698   9.944  0.3368 -0.5489  0.1840
41263SOL     OW41398   4.355   0.220   6.834 -0.0865 -0.1109 -0.0339
41263SOL    HW141399   4.405   0.242   6.755  2.7657 -0.9419  1.4017
41263SOL    HW241400   4.400   0.265   6.905 -2.3479  0.3011  1.2407
41264SOL     OW41401   0.476  12.981   9.885  0.5767  0.0751 -0.4757
41264SOL    HW141402   0.529  13.059   9.866  2.7082 -0.5459  2.2643
41264SOL    HW241403   0.419  13.008   9.957  1.1996 -0.8169  0.3644
41265SOL     OW41404   2.563   2.001   5.078  0.1142 -0.6558  0.4706
41265SOL    HW141405   2.608   1.927   5.118  0.0508 -0.5709  0.7003
41265SOL    HW241406   2.615   2.078   5.104  0.5122 -0.6718 -0.2456
41266SOL     OW41407   3.625   5.691   4.808  0.0193  0.1741  0.3105
41266SOL    HW141408   3.560   5.668   4.742  0.7305  2.3197 -1.2479
41266SOL    HW241409   3.709   5.685   4.762  0.6607  0.4496  1.4028
41267SOL     OW41410   5.032   6.922   5.708  0.4773 -0.4531  0.6413
41267SOL    HW141411   4.969   6.991   5.686 -0.2142 -0.6864  1.8358
41267SOL    HW241412   5.098   6.966   5.761 -0.2281 -0.7780  1.8300
41268SOL     OW41413   1.772   1.765   4.474  0.3242  0.1592 -0.5092
41268SOL    HW141414   1.698   1.817   4.444 -0.4153 -1.1536 -1.0234
41268SOL    HW241415   1.737   1.676   4.483  1.6459 -0.3317 -0.0215
41269SOL     OW41416   1.511  12.291   4.467 -0.4146  0.5356 -0.1537
41269SOL    HW141417   1.450  12.246   4.525  0.5960  0.6019  1.0027
41269SOL    HW241418   1.546  12.362   4.520  3.0358 -1.3646  0.3939
41270SOL     OW41419  11.523   1.977   3.323 -0.2030 -0.2789 -0.3933
41270SOL    HW141420  11.591   1.952   3.386 -0.6288 -1.4520 -0.3709
41270SOL    HW241421  11.456   2.021   3.374 -0.0771 -0.3152 -0.1983
41271SOL     OW41422   4.429   6.364  10.962 -0.1100 -0.8010  0.0590
41271SOL    HW141423   4.383   6.434  11.008 -2.1060 -1.6550 -0.5172
41271SOL    HW241424   4.518   6.366  10.997 -0.3788  1.3783  0.7276
41272SOL     OW41425  13.088   9.470   7.929 -0.0555 -0.0413 -0.8660
41272SOL    HW141426  12.994   9.460   7.945 -0.1178  0.7684 -0.6809
41272SOL    HW241427  13.125   9.485   8.016  0.3393 -0.9386 -0.8602
41273SOL     OW41428   8.673   5.271  12.745  0.2267 -0.6247  0.3754
41273SOL    HW141429   8.598   5.275  12.686  0.8386 -0.6056 -0.4224
41273SOL    HW241430   8.699   5.363  12.757 -0.8258 -0.4867  1.9325
41274SOL     OW41431   2.129   3.792  14.014  0.0781 -0.3685  0.2482
41274SOL    HW141432   2.034   3.791  14.013 -0.1277  3.5431 -1.1452
41274SOL    HW241433   2.154   3.789  13.921  1.1265  1.3616  0.4323
41275SOL     OW41434   6.756   6.996  12.934  0.4599 -0.0984  0.2767
41275SOL    HW141435   6.733   6.994  12.841  0.8494  1.4116  0.1070
41275SOL    HW241436   6.722   6.914  12.969  0.6343 -0.8811 -1.2656
41276SOL     OW41437   7.903  12.080   6.551 -0.7118  0.2476  1.0338
41276SOL    HW141438   7.897  12.171   6.522 -3.2103  0.0077  0.5820
41276SOL    HW241439   7.930  12.032   6.472 -2.3816  0.2454  0.4399
41277SOL     OW41440  12.172   0.748  13.756 -0.1361 -0.3782  0.2455
41277SOL    HW141441  12.160   0.723  13.848  0.3700  0.5486  0.5780
41277SOL    HW241442  12.208   0.669  13.715  1.2825 -0.2923  1.2299
41278SOL     OW41443  11.322  12.112   6.663 -0.3470  0.2401 -0.2459
41278SOL    HW141444  11.227  12.108   6.670 -0.3696 -1.7647 -1.1485
41278SOL    HW241445  11.351  12.143   6.749 -1.7594  0.3021  0.2413
41279SOL     OW41446  11.747  12.870   3.113 -0.8723 -0.1563  0.2544
41279SOL    HW141447  11.730  12.888   3.205 -0.4053 -0.9054  0.4996
41279SOL    HW241448  11.679  12.917   3.065 -1.6144 -0.4358  1.0223
41280SOL     OW41449  12.187   4.099   1.121 -0.0054 -0.5313 -0.3987
41280SOL    HW141450  12.157   4.178   1.167 -0.1673 -0.0543 -1.3035
41280SOL    HW241451  12.138   4.028   1.161 -0.5938 -0.0488 -0.2411
41281SOL     OW41452  12.392   0.198  13.948  0.2181 -0.7005 -0.1134
41281SOL    HW141453  12.401   0.137  13.875  0.6907  0.3826 -0.9792
41281SOL    HW241454  12.297   0.204  13.962 -0.0130  0.5683 -1.9556
41282SOL     OW41455   3.808   5.890   2.786 -0.3648  0.5392 -0.3926
41282SOL    HW141456   3.896   5.870   2.756  0.1478  1.1840  0.6361
41282SOL    HW241457   3.816   5.976   2.828 -1.4624  0.5672 -0.2144
41283SOL     OW41458   3.888  11.931   9.128 -0.0173  0.0649  0.1589
41283SOL    HW141459   3.949  12.005   9.129 -0.1075  0.1264  0.8688
41283SOL    HW241460   3.877  11.912   9.034 -0.6166  1.4493 -0.0732
41284SOL     OW41461   6.306   7.505   0.197  0.4411 -0.2830 -0.4708
41284SOL    HW141462   6.218   7.491   0.230  0.4806 -2.1209 -1.0297
41284SOL    HW241463   6.298   7.576   0.134 -0.6878 -0.6193 -0.7172
41285SOL     OW41464  10.852   6.651   1.871  0.2163 -0.0638  0.2754
41285SOL    HW141465  10.811   6.565   1.876  2.0854 -1.0316 -0.0923
41285SOL    HW241466  10.799   6.699   1.806  1.2273 -2.2171 -2.3499
41286SOL     OW41467   2.449   9.994   6.268 -0.1351  0.2287  0.2996
41286SOL    HW141468   2.484   9.908   6.247 -1.0606  0.4607 -2.7171
41286SOL    HW241469   2.495  10.020   6.347 -0.1007 -3.1643  1.5758
41287SOL     OW41470   1.283   4.551   3.697  0.6643 -0.0706 -0.6690
41287SOL    HW141471   1.276   4.479   3.634  1.0697  0.0428 -0.8471
41287SOL    HW241472   1.244   4.626   3.652 -0.3609 -0.3251 -0.2356
41288SOL     OW41473  10.434   2.134  13.894  0.1999  0.2184 -0.2979
41288SOL    HW141474  10.423   2.108  13.985 -0.1984 -0.8139 -0.6237
41288SOL    HW241475  10.505   2.078  13.862 -1.7905 -1.8144 -1.4804
41289SOL     OW41476   0.033   8.361   3.877  0.2249 -0.1738 -0.6023
41289SOL    HW141477   0.013   8.283   3.928  0.5103 -0.5691 -1.0830
41289SOL    HW241478   0.022   8.433   3.939 -0.2782 -0.5702 -0.2178
41290SOL     OW41479   8.142   3.823  12.800  0.0308 -0.2567 -0.0087
41290SOL    HW141480   8.192   3.770  12.862  2.6604  1.9722 -0.0407
41290SOL    HW241481   8.142   3.911  12.839  0.3343  0.8408 -2.3366
41291SOL     OW41482   1.817  14.015  13.232 -0.1519 -0.1981 -0.1792
41291SOL    HW141483   1.808  14.050  13.144 -1.7571 -1.9123 -0.7503
41291SOL    HW241484   1.753  14.063  13.285 -2.9248 -2.5973 -1.1286
41292SOL     OW41485   3.730   1.271   2.584 -0.0309 -0.1135  0.3087
41292SOL    HW141486   3.714   1.308   2.497 -0.7262 -1.1150  0.0031
41292SOL    HW241487   3.711   1.343   2.644 -1.3439  0.0515 -0.2801
41293SOL     OW41488   1.638   7.260   8.105  0.1353  0.7538 -0.0440
41293SOL    HW141489   1.680   7.332   8.058  0.6121  0.4450 -0.0927
41293SOL    HW241490   1.548   7.259   8.072  0.0984  1.3867  0.0272
41294SOL     OW41491  13.813  13.138   0.218 -0.4003  0.3738 -0.0512
41294SOL    HW141492  13.804  13.145   0.313  0.7668 -1.3543  0.2254
41294SOL    HW241493  13.732  13.095   0.190 -0.6558  0.6969  0.1759
41295SOL     OW41494   4.594   3.318   0.998  0.3134 -0.1411 -0.0327
41295SOL    HW141495   4.529   3.248   0.993  0.4325 -0.3940  1.4775
41295SOL    HW241496   4.547   3.397   0.971 -0.5492 -0.3681  0.7677
41296SOL     OW41497   0.789   3.371  12.805  0.1959 -0.1514  0.6811
41296SOL    HW141498   0.751   3.317  12.736 -1.0781  0.0118  1.2199
41296SOL    HW241499   0.754   3.459  12.790 -0.5336 -0.2255  1.8327
41297SOL     OW41500   2.926   8.976  13.671 -0.1239 -0.5375  0.2066
41297SOL    HW141501   2.892   8.987  13.583  1.4691  1.3499 -0.2482
41297SOL    HW241502   2.851   8.989  13.728 -1.3658 -2.6872 -0.8399
41298SOL     OW41503   6.065   9.005  11.925  0.0999  0.4247  0.1868
41298SOL    HW141504   6.023   8.970  12.004  0.2138  0.4547  0.2623
41298SOL    HW241505   6.067   9.100  11.939 -0.7662  0.5194 -0.2966
41299SOL     OW41506   1.158   4.973  11.808  0.3103  0.0675  0.3122
41299SOL    HW141507   1.136   4.909  11.876 -0.1174 -0.1847 -0.0587
41299SOL    HW241508   1.155   5.057  11.853 -0.7925 -0.0177  0.4286
41300SOL     OW41509   9.295   0.619   6.455 -0.7511  0.1518 -0.0379
41300SOL    HW141510   9.351   0.638   6.531 -1.3010 -0.8309  0.6345
41300SOL    HW241511   9.212   0.661   6.476 -0.7715  0.2472 -0.3053
41301SOL     OW41512   0.126   5.931   0.202  0.3712  0.4435 -0.1122
41301SOL    HW141513   0.159   5.860   0.147 -0.2514  0.1051 -0.0552
41301SOL    HW241514   0.073   5.887   0.269 -1.3894  1.0657 -1.0481
41302SOL     OW41515   5.086  12.225   1.112  0.2118 -0.5093 -0.4616
41302SOL    HW141516   4.994  12.232   1.139  0.4115  0.8306 -0.0548
41302SOL    HW241517   5.134  12.217   1.194  0.4909 -0.8137 -0.6544
41303SOL     OW41518   2.407  13.572   9.630 -0.1265 -0.2719  0.2206
41303SOL    HW141519   2.461  13.494   9.644 -2.1339 -1.5947  0.9616
41303SOL    HW241520   2.325  13.539   9.593 -0.8753  1.5456  0.1292
41304SOL     OW41521  12.248   9.867   4.646 -0.2176  0.4189  0.0768
41304SOL    HW141522  12.196   9.789   4.630  0.8893 -0.7717  1.8529
41304SOL    HW241523  12.272   9.899   4.559 -0.9276 -1.0599 -0.7020
41305SOL     OW41524  12.825   7.613   0.950 -0.0685 -0.1695  0.1215
41305SOL    HW141525  12.911   7.595   0.912  0.4272  2.6416 -0.2737
41305SOL    HW241526  12.825   7.566   1.033  2.1624  0.3673  0.4849
41306SOL     OW41527   6.688   0.163  13.555  0.0243  0.1781  0.6692
41306SOL    HW141528   6.695   0.133  13.646 -1.0831 -1.4943  0.2520
41306SOL    HW241529   6.772   0.206  13.537 -0.9334  3.7188  3.5093
41307SOL     OW41530  10.619   0.476  11.312  0.1757 -0.4272 -0.4216
41307SOL    HW141531  10.712   0.499  11.311  0.3118 -0.9420 -2.0753
41307SOL    HW241532  10.589   0.492  11.223 -0.9221 -1.8183 -0.3477
41308SOL     OW41533   3.521  11.047   2.904 -0.9030  0.1245 -0.0726
41308SOL    HW141534   3.561  11.056   2.818  0.3013 -1.3688  0.2965
41308SOL    HW241535   3.562  11.116   2.957  0.0424 -0.3912 -0.1138
41309SOL     OW41536   5.789  10.670   1.227 -0.0761  0.2403  0.5309
41309SOL    HW141537   5.817  10.583   1.255 -1.8215 -0.5979 -0.2101
41309SOL    HW241538   5.727  10.654   1.157 -1.8515  2.0018  1.6148
41310SOL     OW41539   6.075   6.205  13.274  0.7401 -0.3145  0.1329
41310SOL    HW141540   6.127   6.126  13.292 -3.2792 -3.1847  0.3441
41310SOL    HW241541   6.079   6.214  13.179 -0.3772 -2.1220 -0.1374
41311SOL     OW41542  13.544  12.025   1.453  0.3123  0.6619  0.2592
41311SOL    HW141543  13.467  12.065   1.495  1.3792  2.3510  0.6803
41311SOL    HW241544  13.546  12.064   1.365  0.3253  0.1143  0.0128
41312SOL     OW41545   0.475  12.615   0.993 -0.2274  0.1385 -0.6693
41312SOL    HW141546   0.409  12.602   0.925  0.3768  0.2845 -1.2970
41312SOL    HW241547   0.428  12.603   1.075 -0.9238 -0.2519 -1.1185
41313SOL     OW41548   1.657   3.683   7.986  0.0407 -0.1152  0.2869
41313SOL    HW141549   1.674   3.736   8.063 -0.9871  0.4763  0.1330
41313SOL    HW241550   1.717   3.718   7.919 -2.8736  3.3252 -0.8706
41314SOL     OW41551   0.628  10.462   7.547 -0.3373  1.0534  0.1806
41314SOL    HW141552   0.652  10.370   7.545  0.0557  1.1546 -0.0097
41314SOL    HW241553   0.535  10.464   7.526 -0.1793  0.7586 -0.5650
41315SOL     OW41554  13.307  13.782  11.542  0.3737 -0.6012  0.5980
41315SOL    HW141555  13.274  13.704  11.587 -1.3198  0.7232  1.7750
41315SOL    HW241556  13.380  13.812  11.596 -0.0099 -0.4631  1.0417
41316SOL     OW41557   1.358   0.162   4.224  0.2350  0.1041 -0.2544
41316SOL    HW141558   1.388   0.197   4.308 -0.5919 -1.7927  0.9140
41316SOL    HW241559   1.276   0.208   4.206  0.5828  0.7531 -0.2147
41317SOL     OW41560   8.485   4.631   7.572 -0.3307  0.7154  0.1167
41317SOL    HW141561   8.543   4.694   7.615  0.7155  0.7192 -1.2151
41317SOL    HW241562   8.509   4.637   7.479 -1.3423 -0.4831 -0.2405
41318SOL     OW41563  14.049   7.477   9.834 -0.0208  0.1039 -0.1713
41318SOL    HW141564  14.067   7.399   9.886 -0.2845  1.1270  1.5300
41318SOL    HW241565  13.960   7.503   9.859 -1.0294 -0.5391 -2.7416
41319SOL     OW41566   0.510   3.759   2.588 -0.4633  0.3384  0.2121
41319SOL    HW141567   0.442   3.720   2.643  0.4510  0.2788  1.3303
41319SOL    HW241568   0.581   3.695   2.589  0.3338  1.2013  0.5739
41320SOL     OW41569   6.987   1.940  14.066 -0.1322  0.1549 -0.0769
41320SOL    HW141570   6.932   2.006  14.109 -0.3140  0.1320 -0.2705
41320SOL    HW241571   7.029   1.892  14.137 -1.7522 -1.0251  0.1310
41321SOL     OW41572   3.137   5.468   4.854 -0.5039  0.3482 -0.3177
41321SOL    HW141573   3.208   5.407   4.834 -2.0809 -1.3342 -0.9853
41321SOL    HW241574   3.181   5.544   4.892  1.5619 -0.9986  0.1093
41322SOL     OW41575  10.458   5.645  11.377 -0.7111  0.2906 -0.3641
41322SOL    HW141576  10.390   5.642  11.444  1.2190 -0.8310  1.6859
41322SOL    HW241577  10.528   5.698  11.416  1.0153 -1.4993 -0.9005
41323SOL     OW41578   2.769   8.376   5.460 -1.0229  0.4197  0.3130
41323SOL    HW141579   2.817   8.393   5.378 -2.2677  3.1909  0.0356
41323SOL    HW241580   2.837   8.368   5.526 -0.0504  0.9364 -0.5904
41324SOL     OW41581   3.287   3.987   1.455 -0.3020 -0.7526 -0.0637
41324SOL    HW141582   3.350   3.939   1.510  1.1788  0.8248 -0.3215
41324SOL    HW241583   3.236   4.040   1.517 -0.2174 -0.7297 -0.0147
41325SOL     OW41584   7.539   3.721   4.514  0.4768 -0.2009  0.0630
41325SOL    HW141585   7.512   3.756   4.599 -2.4487 -0.2931 -0.7434
41325SOL    HW241586   7.475   3.755   4.452  2.3595 -0.3729 -2.1153
41326SOL     OW41587   9.383  12.357   5.859  0.0324  0.4810 -0.2011
41326SOL    HW141588   9.314  12.381   5.921  0.1464  0.5521 -0.1028
41326SOL    HW241589   9.337  12.352   5.775 -0.2901 -0.4867  0.0250
41327SOL     OW41590  12.990  10.372   3.819  0.1688  0.2002  0.0135
41327SOL    HW141591  12.896  10.381   3.836  0.3371  0.4444  0.8634
41327SOL    HW241592  12.998  10.377   3.724 -0.6179  0.7709 -0.0309
41328SOL     OW41593   6.547   9.251  12.428  0.4676  0.0500 -0.1240
41328SOL    HW141594   6.614   9.235  12.362  0.5298  1.1926 -0.3486
41328SOL    HW241595   6.496   9.324  12.394 -0.0836  0.0485  0.6626
41329SOL     OW41596   7.863   2.570   4.848  0.0482  0.4665  0.0253
41329SOL    HW141597   7.803   2.506   4.885  0.3919  0.3563  0.3975
41329SOL    HW241598   7.879   2.632   4.919 -1.1834  1.6330 -0.6625
41330SOL     OW41599   5.049  12.566   1.633  0.5517 -0.5999 -0.4613
41330SOL    HW141600   5.097  12.483   1.627  0.0089 -0.8074 -2.7592
41330SOL    HW241601   4.992  12.566   1.557 -1.1199  0.8973  0.7076
41331SOL     OW41602  13.000   9.415   9.839  0.1430  0.1512 -0.0738
41331SOL    HW141603  13.058   9.431   9.765  0.3851 -0.5931 -0.0479
41331SOL    HW241604  13.002   9.320   9.852 -1.1276  0.0979 -0.1213
41332SOL     OW41605  12.490   7.835   9.509  0.0305 -0.0350  0.1426
41332SOL    HW141606  12.446   7.833   9.594  0.2778 -1.7361  0.2593
41332SOL    HW241607  12.582   7.815   9.530 -0.0239 -1.1010 -0.5693
41333SOL     OW41608   5.602  10.279   5.230 -0.4477 -0.5191  0.1148
41333SOL    HW141609   5.605  10.366   5.270  2.4004  0.4774 -1.9108
41333SOL    HW241610   5.514  10.274   5.192  0.0267  2.6297 -1.8341
41334SOL     OW41611  11.801  12.314   3.309 -0.1484 -0.3478 -0.0045
41334SOL    HW141612  11.744  12.367   3.366 -0.2798 -1.4453  0.9065
41334SOL    HW241613  11.759  12.319   3.223 -0.6738  0.2638  0.2755
41335SOL     OW41614  10.034  13.275   8.189  0.0407 -0.3003  0.0902
41335SOL    HW141615   9.952  13.228   8.204 -0.2677  0.4376  0.7510
41335SOL    HW241616  10.018  13.364   8.220  1.2365 -0.2637  0.6725
41336SOL     OW41617   2.438   4.754   8.249  0.2376  0.1334  0.1963
41336SOL    HW141618   2.464   4.663   8.264  0.6173  0.3299  0.7635
41336SOL    HW241619   2.413   4.757   8.156  1.2559 -0.3092 -0.1074
41337SOL     OW41620   6.577  13.356  12.372 -0.2314  0.2140  0.2512
41337SOL    HW141621   6.604  13.448  12.369 -2.0121  0.7437 -0.8270
41337SOL    HW241622   6.594  13.329  12.462 -0.0323  1.7095  0.6913
41338SOL     OW41623   3.715   0.729   7.288  0.3738  1.1435  0.6397
41338SOL    HW141624   3.645   0.767   7.341 -1.9934 -0.2408 -1.2891
41338SOL    HW241625   3.701   0.766   7.200  1.1946 -0.2179 -0.0894
41339SOL     OW41626  13.391   3.853   1.022 -0.0850 -0.0993 -0.3479
41339SOL    HW141627  13.431   3.789   0.964 -0.7040  0.5000 -1.4748
41339SOL    HW241628  13.311   3.879   0.977  0.4183  1.8652 -0.1873
41340SOL     OW41629   2.885   4.596  10.889 -0.3187  0.2638 -0.5258
41340SOL    HW141630   2.943   4.671  10.875 -0.2204  0.7499  2.0174
41340SOL    HW241631   2.942   4.529  10.927 -0.8859 -0.2413 -0.5611
41341SOL     OW41632   2.538   0.878  10.551 -0.3170  0.6878 -0.2336
41341SOL    HW141633   2.518   0.789  10.522 -1.6041  0.4590  1.2343
41341SOL    HW241634   2.589   0.866  10.632 -1.2937  1.2424  0.4923
41342SOL     OW41635   5.197   2.625   0.869 -0.8333  0.3196  0.0651
41342SOL    HW141636   5.215   2.685   0.941 -0.5043  0.9192 -0.5036
41342SOL    HW241637   5.271   2.636   0.810 -0.7309 -0.7110 -0.0096
41343SOL     OW41638   3.885   6.296   7.523  0.1868  0.3849  0.3978
41343SOL    HW141639   3.919   6.311   7.434  1.9079 -1.9535  0.5748
41343SOL    HW241640   3.791   6.311   7.515  0.1012 -0.8973 -2.1453
41344SOL     OW41641   7.752   6.190   1.048 -0.1347 -0.1182  0.7286
41344SOL    HW141642   7.844   6.186   1.025 -0.1667  1.3934  0.2634
41344SOL    HW241643   7.748   6.251   1.122 -0.8589  0.5725  0.1337
41345SOL     OW41644   5.186  13.849   4.783 -0.0347 -0.5018 -0.2537
41345SOL    HW141645   5.217  13.826   4.696 -0.1266 -0.6778 -0.2390
41345SOL    HW241646   5.212  13.941   4.793  1.0808 -0.8281  0.0195
41346SOL     OW41647  13.241   3.697   0.579  0.0529 -0.4286 -0.5579
41346SOL    HW141648  13.308   3.635   0.608 -0.7400 -0.9590  0.1803
41346SOL    HW241649  13.286   3.752   0.515  0.9876 -1.2560 -0.6431
41347SOL     OW41650  11.407   8.858   6.008  0.0994  0.2834 -0.5685
41347SOL    HW141651  11.464   8.788   6.040  0.6624  0.8641 -0.2780
41347SOL    HW241652  11.362   8.890   6.086 -1.0213 -0.4913 -0.8595
41348SOL     OW41653   9.887   0.485   1.215  0.0602 -0.8068 -0.2261
41348SOL    HW141654   9.980   0.508   1.218  0.0400 -0.8319  1.1571
41348SOL    HW241655   9.870   0.443   1.299 -0.7236 -2.7638 -1.2943
41349SOL     OW41656   8.119  11.817  13.922 -0.3546  0.2494  0.6861
41349SOL    HW141657   8.212  11.821  13.901 -0.6392  0.1500 -0.6610
41349SOL    HW241658   8.104  11.893  13.978  0.7755 -0.4454  1.9933
41350SOL     OW41659  12.074   3.989  10.399 -0.3835  0.0789 -0.4225
41350SOL    HW141660  12.012   4.037  10.344 -0.3611 -0.9914 -1.4044
41350SOL    HW241661  12.159   4.004  10.357 -0.5440 -1.8971 -1.5585
41351SOL     OW41662   6.262   2.831  11.844 -0.2590 -0.2418  0.3728
41351SOL    HW141663   6.177   2.848  11.885 -0.6547 -0.6011 -0.2810
41351SOL    HW241664   6.240   2.802  11.755  0.5370 -0.6974  0.3196
41352SOL     OW41665   0.635   3.580   8.410  0.0495 -0.7347  0.1131
41352SOL    HW141666   0.631   3.496   8.456 -0.6088 -0.5986  0.3128
41352SOL    HW241667   0.628   3.646   8.479  2.2778 -0.4561  0.1520
41353SOL     OW41668   8.245   3.692  12.995 -0.5213  0.0123 -0.5664
41353SOL    HW141669   8.181   3.629  13.026 -0.3602 -0.3465 -0.9584
41353SOL    HW241670   8.279   3.732  13.075  1.4501 -2.4064 -0.0603
41354SOL     OW41671  12.299   4.831  12.089  0.5009 -0.2703  0.0975
41354SOL    HW141672  12.246   4.752  12.097 -2.6349  1.3485 -2.4689
41354SOL    HW241673  12.330   4.849  12.178 -0.1085 -3.3938  1.0399
41355SOL     OW41674  13.402   0.102   2.659 -0.0515  0.2998 -0.2054
41355SOL    HW141675  13.341   0.172   2.682  0.7323  0.4012  1.7657
41355SOL    HW241676  13.487   0.133   2.691  0.3111 -1.5513  0.7590
41356SOL     OW41677   3.802   7.710  12.606  0.5606  0.6049  0.2996
41356SOL    HW141678   3.787   7.635  12.664  0.9960 -0.8027 -1.3151
41356SOL    HW241679   3.841   7.776  12.662 -3.7435  1.3654  2.8412
41357SOL     OW41680   7.358   1.326   9.923  0.1275 -0.1318 -0.2242
41357SOL    HW141681   7.448   1.325   9.891 -0.0087  0.0214 -0.6161
41357SOL    HW241682   7.366   1.325  10.018  0.6209  3.3774 -0.1259
41358SOL     OW41683   0.064   6.717  10.656  0.4695  0.3115 -0.3107
41358SOL    HW141684  -0.001   6.692  10.590  0.8198  0.2488 -0.6399
41358SOL    HW241685   0.013   6.731  10.736  0.0508  0.2817 -0.5666
41359SOL     OW41686   1.969   8.193   9.036  0.1112  0.3915 -0.1175
41359SOL    HW141687   1.889   8.196   8.984 -0.1816  0.5923  0.3397
41359SOL    HW241688   2.012   8.277   9.018 -0.4650  0.8696  0.7053
41360SOL     OW41689   8.501   5.710  13.360  0.3757 -0.4716 -0.2837
41360SOL    HW141690   8.473   5.619  13.347 -2.0758 -0.1025  1.8145
41360SOL    HW241691   8.471   5.732  13.448  0.6445  2.4767 -0.8535
41361SOL     OW41692   0.663   0.850   8.801  0.2953  0.1823 -0.2904
41361SOL    HW141693   0.641   0.774   8.855 -0.3507  0.0646 -0.7123
41361SOL    HW241694   0.704   0.911   8.862 -0.5013  0.0851  0.3567
41362SOL     OW41695  11.493  10.894   0.314  0.0904  0.1622 -0.5838
41362SOL    HW141696  11.544  10.909   0.393  0.8729 -0.9092 -0.8532
41362SOL    HW241697  11.414  10.849   0.344 -0.5464  1.4754 -0.2107
41363SOL     OW41698  11.523  10.301  11.004 -0.4582 -0.3514 -0.3604
41363SOL    HW141699  11.497  10.304  11.097  0.6636  0.6774 -0.0564
41363SOL    HW241700  11.584  10.227  10.999  1.5146  1.1434  0.3214
41364SOL     OW41701   9.155   3.517   0.350  0.2692 -0.1622  0.0954
41364SOL    HW141702   9.143   3.609   0.373 -0.7493 -0.6349  1.5669
41364SOL    HW241703   9.231   3.489   0.400 -0.1221 -0.4075  0.5633
41365SOL     OW41704  11.548   6.113  12.983 -0.0245  0.5808 -0.3528
41365SOL    HW141705  11.542   6.209  12.977 -0.5059  0.8094  2.5211
41365SOL    HW241706  11.642   6.096  12.988  0.1725  0.6859 -2.6150
41366SOL     OW41707   8.175   1.145   0.527  0.4418 -0.0048 -0.5556
41366SOL    HW141708   8.107   1.212   0.511 -2.0434 -2.0003  0.8366
41366SOL    HW241709   8.143   1.067   0.481  2.1726 -0.8566 -0.3980
41367SOL     OW41710   2.123  13.871  13.756  0.3603 -1.1546 -0.0667
41367SOL    HW141711   2.055  13.815  13.718 -0.4644 -0.5924  0.5289
41367SOL    HW241712   2.135  13.838  13.845  0.1612 -0.6618  0.1506
41368SOL     OW41713   4.388  11.219   4.745 -0.4997 -0.4001 -0.1726
41368SOL    HW141714   4.408  11.197   4.836 -0.9867 -1.1565 -0.2442
41368SOL    HW241715   4.415  11.310   4.736 -0.2220 -0.3947  0.6612
41369SOL     OW41716  12.888   6.943   2.276  0.4523  0.4122 -0.5623
41369SOL    HW141717  12.873   6.851   2.293 -0.3726  0.5155 -0.6628
41369SOL    HW241718  12.811   6.971   2.225 -0.3367  1.6116  1.1588
41370SOL     OW41719  10.149   5.123   5.212 -0.1947 -0.3069 -0.2271
41370SOL    HW141720  10.158   5.166   5.298 -0.1341 -1.2207  0.2313
41370SOL    HW241721  10.134   5.031   5.232 -0.2224 -0.5292 -1.2050
41371SOL     OW41722  12.339  12.422   2.134 -0.0156  0.3276 -0.6416
41371SOL    HW141723  12.391  12.435   2.055 -1.0945  0.4724 -1.3563
41371SOL    HW241724  12.362  12.497   2.190  0.0073  0.7891 -1.2494
41372SOL     OW41725  10.277   9.451   5.133 -0.6692  0.3502  0.3756
41372SOL    HW141726  10.232   9.391   5.074  2.5458 -0.9897 -0.9602
41372SOL    HW241727  10.343   9.494   5.078 -0.2390  2.1322  2.1568
41373SOL     OW41728   9.752   5.902   8.583 -0.4928  0.1194 -0.1460
41373SOL    HW141729   9.830   5.878   8.532 -0.8424 -0.3910 -0.4479
41373SOL    HW241730   9.679   5.861   8.537 -0.9114  0.3505  0.2991
41374SOL     OW41731   0.682   4.744   1.534  0.3282  0.5677  0.2311
41374SOL    HW141732   0.670   4.735   1.629 -1.7766 -2.0100 -0.1571
41374SOL    HW241733   0.593   4.749   1.499  1.0269  0.4715 -1.6744
41375SOL     OW41734   7.300   6.797   9.264  0.0422 -0.4271 -0.0795
41375SOL    HW141735   7.270   6.819   9.175  2.4535  0.4930 -0.7273
41375SOL    HW241736   7.298   6.881   9.311 -0.8064 -0.8322  0.6411
41376SOL     OW41737   1.795  11.277   7.915 -0.0363 -0.1674 -0.2793
41376SOL    HW141738   1.849  11.250   7.989  2.4843  0.6046 -1.7339
41376SOL    HW241739   1.754  11.196   7.885  0.7503 -0.8901  0.5402
41377SOL     OW41740   9.712  11.626   9.757  0.7718 -0.9970 -0.0187
41377SOL    HW141741   9.649  11.596   9.822  0.3477 -1.3778 -0.5986
41377SOL    HW241742   9.796  11.590   9.786  0.4720 -1.7139 -0.0389
41378SOL     OW41743   5.513   7.143   6.495  0.0667 -0.0732  0.5923
41378SOL    HW141744   5.544   7.215   6.549  2.2347 -0.1350 -0.4419
41378SOL    HW241745   5.569   7.069   6.519  1.3659 -0.0084 -1.8429
41379SOL     OW41746  10.744  12.626   4.409 -0.0565 -0.2195  0.2359
41379SOL    HW141747  10.661  12.636   4.455  0.2905  0.3839  0.7439
41379SOL    HW241748  10.775  12.539   4.436 -1.0807 -0.9702 -0.9032
41380SOL     OW41749   2.065   9.081  10.077 -0.0986  0.0404 -0.0011
41380SOL    HW141750   2.099   9.148  10.018 -1.3001  1.0251  0.3582
41380SOL    HW241751   2.142   9.045  10.120  0.6529  0.4987 -0.9303
41381SOL     OW41752   2.305  10.205   6.504  0.1284 -0.6809  0.2272
41381SOL    HW141753   2.306  10.266   6.578 -0.7456 -0.2189 -0.1194
41381SOL    HW241754   2.267  10.256   6.432  0.4811 -1.2823 -0.3927
41382SOL     OW41755   5.467   6.307   0.068 -0.4341 -0.0767 -0.0432
41382SOL    HW141756   5.412   6.288   0.144 -0.4112 -0.7711 -0.1969
41382SOL    HW241757   5.406   6.308  -0.006 -0.2286 -0.9834 -0.2332
41383SOL     OW41758  11.632   5.781   0.174  0.0195 -0.0660 -0.2431
41383SOL    HW141759  11.598   5.705   0.126  0.7465 -0.6432  0.1408
41383SOL    HW241760  11.653   5.747   0.261 -0.2352  0.7221  0.1378
41384SOL     OW41761  11.935   4.639   9.225  0.0995 -0.3567 -0.3150
41384SOL    HW141762  12.027   4.646   9.249 -0.0485 -1.6780  0.7721
41384SOL    HW241763  11.935   4.593   9.141  0.4680  1.0314 -1.1108
41385SOL     OW41764   0.244   2.247   4.337 -0.1068  0.3573 -0.3270
41385SOL    HW141765   0.295   2.302   4.397  1.2353  1.7138 -2.5334
41385SOL    HW241766   0.301   2.172   4.319 -1.0652 -0.7533  1.0486
41386SOL     OW41767   3.296  11.941   5.015 -0.3414  0.3307 -0.0106
41386SOL    HW141768   3.382  11.906   4.992  0.2103  1.5649  0.0889
41386SOL    HW241769   3.313  12.032   5.040 -1.4502  0.1434  1.5903
41387SOL     OW41770   2.890   5.460   8.799 -0.5208 -0.5170  0.3577
41387SOL    HW141771   2.811   5.494   8.756 -0.2382 -2.0372 -1.5031
41387SOL    HW241772   2.914   5.528   8.862 -0.9918  1.9029 -1.8991
41388SOL     OW41773   5.001  10.598  13.136  0.6147  0.3432  0.3429
41388SOL    HW141774   4.936  10.545  13.090 -0.3477 -0.1417  2.1674
41388SOL    HW241775   5.023  10.667  13.074 -0.1205 -0.6334 -1.0760
41389SOL     OW41776  13.005  10.251   7.482  0.5666 -0.3417 -0.1501
41389SOL    HW141777  12.926  10.305   7.478  2.0469  2.2232  1.7019
41389SOL    HW241778  12.976  10.169   7.522 -0.9487  1.2414  2.2791
41390SOL     OW41779  10.430   6.183   1.713 -1.0428  0.1927  0.1619
41390SOL    HW141780  10.418   6.270   1.751  1.2192  0.6682 -0.0863
41390SOL    HW241781  10.468   6.200   1.626 -1.7770 -1.0145 -0.4170
41391SOL     OW41782   3.055   3.372   3.033  0.1573 -0.2775  0.4847
41391SOL    HW141783   3.001   3.349   2.957  0.5686 -0.0155  0.1067
41391SOL    HW241784   3.141   3.391   2.996  0.1713  0.5738  0.9382
41392SOL     OW41785   3.245   7.878   3.873  0.9099 -0.2742 -0.1270
41392SOL    HW141786   3.279   7.959   3.910  0.9919  0.5562 -1.9276
41392SOL    HW241787   3.318   7.841   3.824  0.9166 -1.5422  0.7891
41393SOL     OW41788   4.162  12.558   8.495  1.1272 -1.1250  0.6995
41393SOL    HW141789   4.206  12.612   8.430 -0.9567 -0.7510 -0.5060
41393SOL    HW241790   4.173  12.605   8.578  1.0920  0.0882  0.0323
41394SOL     OW41791   8.561   7.085   4.985  0.1995 -0.3767 -0.7856
41394SOL    HW141792   8.513   7.126   4.913 -1.2664  0.9371  0.8322
41394SOL    HW241793   8.640   7.137   4.995 -0.4138  0.5219 -0.4124
41395SOL     OW41794   2.479   0.985   0.095 -0.9860  0.2374 -0.1374
41395SOL    HW141795   2.446   0.940   0.017  3.0492 -1.4487 -1.1481
41395SOL    HW241796   2.508   1.070   0.063  2.7863 -1.2727 -1.2846
41396SOL     OW41797   9.545   7.924   5.854  0.5197  0.1906 -0.2600
41396SOL    HW141798   9.591   7.864   5.796 -0.1974 -1.4017  0.7684
41396SOL    HW241799   9.540   7.879   5.938 -2.0745  0.6461 -0.0709
41397SOL     OW41800  13.671   0.478  13.132 -0.1659 -0.0714 -0.2847
41397SOL    HW141801  13.715   0.562  13.124 -0.0911 -0.1670 -0.8931
41397SOL    HW241802  13.742   0.413  13.134 -0.2700 -0.3128 -2.3286
41398SOL     OW41803   5.706   4.535   0.554  0.0796  0.0002 -0.2210
41398SOL    HW141804   5.702   4.629   0.575 -1.3835  1.4179 -5.4838
41398SOL    HW241805   5.624   4.500   0.588 -0.3580  1.1143 -0.0654
41399SOL     OW41806   9.474  13.815  10.854  0.4289  0.3019  0.4146
41399SOL    HW141807   9.523  13.755  10.798  0.4616  0.9508 -0.2613
41399SOL    HW241808   9.539  13.853  10.913  0.8532  1.5195 -0.7933
41400SOL     OW41809   4.297  13.769   5.983 -0.0946  0.4901 -0.1748
41400SOL    HW141810   4.363  13.771   6.052  0.6271  0.2416 -0.8476
41400SOL    HW241811   4.213  13.779   6.029  0.2699 -1.0192  0.8832
41401SOL     OW41812   9.925   4.606   3.637  0.2868  0.4213 -0.0383
41401SOL    HW141813   9.941   4.516   3.667  1.5072  1.3402  2.3094
41401SOL    HW241814   9.887   4.595   3.550  2.3117 -2.3192 -0.7345
41402SOL     OW41815   1.710   3.762   8.340  0.0913  0.2266 -0.1770
41402SOL    HW141816   1.751   3.705   8.405 -0.6713 -0.4929 -0.3150
41402SOL    HW241817   1.779   3.824   8.316  0.9795 -0.6906 -0.0889
41403SOL     OW41818  12.088   0.514  12.836  0.2373 -0.1323  0.5280
41403SOL    HW141819  12.179   0.485  12.833  0.6346  1.0644  0.2928
41403SOL    HW241820  12.089   0.599  12.791 -0.7540  0.4630  1.5670
41404SOL     OW41821  10.639  12.546   5.601 -0.1120 -0.3646 -0.1118
41404SOL    HW141822  10.680  12.620   5.558 -1.1751  1.1657  1.3806
41404SOL    HW241823  10.574  12.515   5.538 -0.9663  1.1998 -0.0506
41405SOL     OW41824   9.299   6.664  13.304  0.6404 -0.4015  0.9032
41405SOL    HW141825   9.235   6.723  13.345 -0.5234 -0.2708 -0.9277
41405SOL    HW241826   9.335   6.716  13.232 -0.0525 -1.6973 -0.4544
41406SOL     OW41827   9.743   6.257  11.279 -0.0407  0.1758 -0.3446
41406SOL    HW141828   9.761   6.187  11.216  0.4831  0.0112 -0.0218
41406SOL    HW241829   9.679   6.220  11.339  0.0644  0.0482 -0.3103
41407SOL     OW41830  12.945  10.509   1.027  0.3298  0.1218  0.3046
41407SOL    HW141831  12.858  10.495   0.991  0.1654  1.5500  0.0830
41407SOL    HW241832  13.000  10.443   0.984 -0.4601 -0.1968 -0.2356
41408SOL     OW41833   7.580  10.846  11.858 -0.1491 -0.1427 -0.0661
41408SOL    HW141834   7.607  10.887  11.940 -0.0184  1.4364 -0.8464
41408SOL    HW241835   7.651  10.786  11.836  1.1946  1.4888 -0.4032
41409SOL     OW41836   4.402  11.537   4.451 -0.0840 -0.2558 -0.3244
41409SOL    HW141837   4.377  11.549   4.543  1.8116  2.2781 -0.0486
41409SOL    HW241838   4.320  11.548   4.403 -0.7626  0.4431  0.9335
41410SOL     OW41839   9.879   1.116   9.812 -0.0026 -0.1948 -0.4964
41410SOL    HW141840   9.822   1.041   9.831  0.4380 -0.4360 -0.1040
41410SOL    HW241841   9.869   1.131   9.718 -1.0659  0.0609 -0.3475
41411SOL     OW41842  11.219  13.689  11.320 -0.5136  0.2139  0.0594
41411SOL    HW141843  11.221  13.634  11.242 -2.7339  0.9658 -0.6154
41411SOL    HW241844  11.136  13.667  11.362 -0.9256  2.1869  0.3787
41412SOL     OW41845  10.560   3.582  11.848  0.2646 -0.0872 -0.3674
41412SOL    HW141846  10.502   3.520  11.893 -1.3584 -0.6617 -3.0269
41412SOL    HW241847  10.584   3.537  11.767  1.7581  1.5126 -0.8776
41413SOL     OW41848   0.151   4.321   4.325  0.4100 -0.4099 -0.1000
41413SOL    HW141849   0.085   4.359   4.266  0.8415 -1.7011 -1.4705
41413SOL    HW241850   0.100   4.292   4.400 -0.2867  0.4616 -0.2065
41414SOL     OW41851   0.440   2.736   2.239 -0.6484  0.0506  0.1688
41414SOL    HW141852   0.455   2.684   2.161  0.8742 -2.1374  1.7969
41414SOL    HW241853   0.363   2.789   2.218 -0.4526 -0.6161 -2.6703
41415SOL     OW41854   3.638   7.898   1.462 -0.5815  0.1002  0.3888
41415SOL    HW141855   3.727   7.921   1.487 -1.1248  2.1558  0.6106
41415SOL    HW241856   3.645   7.870   1.371  0.6326 -2.3815  1.1574
41416SOL     OW41857  11.921  13.668   6.577 -0.2362  0.0696  0.5484
41416SOL    HW141858  11.909  13.744   6.520  0.9067  0.1219  0.3443
41416SOL    HW241859  11.834  13.630   6.586 -0.5180  0.3128 -0.8917
41417SOL     OW41860  12.751  12.845   6.966  0.4445  0.1359 -0.2036
41417SOL    HW141861  12.663  12.843   6.928  0.6562 -0.5529 -0.6800
41417SOL    HW241862  12.753  12.926   7.017  0.2881  1.3251 -1.9911
41418SOL     OW41863   1.582   5.905   1.367 -0.2572  0.1868 -0.4494
41418SOL    HW141864   1.526   5.841   1.323  0.6988 -0.2352 -1.0875
41418SOL    HW241865   1.521   5.959   1.418 -1.4094  0.5883 -2.1387
41419SOL     OW41866  13.537   1.545  12.860 -0.4401 -0.0008 -0.2752
41419SOL    HW141867  13.506   1.518  12.773 -1.9795 -1.5167  0.6772
41419SOL    HW241868  13.458   1.573  12.906 -0.0760 -1.5839  1.4376
41420SOL     OW41869  13.816   6.578  12.386  1.1713  0.3684 -0.4985
41420SOL    HW141870  13.809   6.572  12.291  1.0971 -0.0546 -0.4648
41420SOL    HW241871  13.759   6.651  12.409 -0.2930 -0.7238 -0.5822
41421SOL     OW41872  11.860   7.358  13.058 -0.0589 -0.3095  0.3598
41421SOL    HW141873  11.925   7.411  13.011  0.4467 -1.3972 -0.2220
41421SOL    HW241874  11.778   7.404  13.046  0.8619  2.1806  2.7905
41422SOL     OW41875   5.957   7.597  13.891  0.0280  0.1465 -0.0735
41422SOL    HW141876   5.999   7.535  13.951  1.0552  0.7953 -0.0893
41422SOL    HW241877   5.938   7.546  13.813  1.1909 -0.0917 -0.2201
41423SOL     OW41878  12.547  11.506  11.122 -0.4950  0.1770 -0.0686
41423SOL    HW141879  12.567  11.573  11.188 -0.2657 -0.2418  0.2918
41423SOL    HW241880  12.460  11.529  11.090 -0.5391  0.4790  0.2658
41424SOL     OW41881   9.011  13.504   6.918  0.0210  0.3014  0.4507
41424SOL    HW141882   9.055  13.444   6.979 -0.2726  0.1259  0.4944
41424SOL    HW241883   9.081  13.538   6.863  0.1404 -0.4280  0.1357
41425SOL     OW41884  13.540  11.772  10.208 -0.2234 -0.1344 -0.1985
41425SOL    HW141885  13.552  11.856  10.163  0.2853  0.5568  1.1877
41425SOL    HW241886  13.469  11.788  10.270  1.1696 -0.1214  1.4503
41426SOL     OW41887  10.987  11.278   7.915 -0.0571 -0.2397  0.0645
41426SOL    HW141888  11.034  11.342   7.969 -1.1935  0.0895  0.7012
41426SOL    HW241889  11.047  11.258   7.844  1.0743  0.1028  0.8944
41427SOL     OW41890  13.559   3.247   1.082 -0.1987  0.0956  0.8104
41427SOL    HW141891  13.613   3.317   1.044  2.1183 -2.1133 -0.2230
41427SOL    HW241892  13.581   3.249   1.175  1.2833 -0.3978  0.4925
41428SOL     OW41893   4.398   1.799   6.469 -0.1947  0.1271 -0.3494
41428SOL    HW141894   4.458   1.825   6.540  0.2503  0.8590 -0.9763
41428SOL    HW241895   4.451   1.805   6.390 -0.9025  0.0652 -0.8368
41429SOL     OW41896  10.736   3.195   6.753  0.5090  0.0947 -0.0217
41429SOL    HW141897  10.725   3.265   6.817  0.3380 -0.2172  0.2925
41429SOL    HW241898  10.752   3.241   6.670 -1.6872  0.5738 -0.2434
41430SOL     OW41899   1.116   8.721   6.632 -0.7180  0.6386 -0.0953
41430SOL    HW141900   1.129   8.772   6.553 -2.7731 -0.3975 -1.1642
41430SOL    HW241901   1.163   8.639   6.616  0.7062  1.2600  0.7077
41431SOL     OW41902   2.413   0.863   0.911  0.2893 -0.0472 -0.2856
41431SOL    HW141903   2.444   0.785   0.956 -1.1946  0.3115  1.4887
41431SOL    HW241904   2.393   0.925   0.981  2.2032  2.2855 -1.6530
41432SOL     OW41905   1.625   2.803   4.674  0.0315 -0.0163  0.6101
41432SOL    HW141906   1.664   2.787   4.760 -0.3235 -1.2623  0.5646
41432SOL    HW241907   1.531   2.806   4.691 -0.0205  0.0254  0.3095
41433SOL     OW41908   2.177   5.479   4.684 -0.2053  0.2014 -1.0745
41433SOL    HW141909   2.162   5.435   4.600 -1.0571 -1.4792 -0.1008
41433SOL    HW241910   2.241   5.547   4.665 -0.0862 -0.4000 -3.0060
41434SOL     OW41911   3.523   3.740   7.417 -0.8348  0.1801 -0.8737
41434SOL    HW141912   3.430   3.739   7.393 -0.8911  1.2786 -0.7672
41434SOL    HW241913   3.567   3.774   7.339 -0.6353  0.6079 -0.5762
41435SOL     OW41914   2.436  10.214   5.004 -0.1193  0.1291  0.1953
41435SOL    HW141915   2.529  10.223   5.024 -0.0137  1.4276 -0.6933
41435SOL    HW241916   2.431  10.229   4.910 -1.1494 -0.7002  0.1081
41436SOL     OW41917   1.728  12.429   5.331  0.3777  0.0445  0.5317
41436SOL    HW141918   1.670  12.411   5.405  0.3271 -0.0870  0.4599
41436SOL    HW241919   1.789  12.356   5.330  0.5819  0.2140  0.6432
41437SOL     OW41920   6.172   1.531   7.059  0.0566 -0.9316 -0.2147
41437SOL    HW141921   6.231   1.547   6.985  0.6317  0.3677  0.4798
41437SOL    HW241922   6.088   1.568   7.031  0.5279  0.4520  0.1217
41438SOL     OW41923   9.429   3.023   7.973  0.6946 -0.3339  0.0300
41438SOL    HW141924   9.481   3.097   8.005 -1.9904  2.0876 -0.7785
41438SOL    HW241925   9.460   3.007   7.884  1.8471 -0.8096  0.4949
41439SOL     OW41926   2.537   7.631   5.841 -0.5188  0.2258  0.1316
41439SOL    HW141927   2.521   7.636   5.935  0.2265  1.8849  0.2113
41439SOL    HW241928   2.571   7.718   5.818 -1.8792  0.2895 -1.8969
41440SOL     OW41929   9.342   9.544  11.383  0.3412 -0.5375 -0.5584
41440SOL    HW141930   9.300   9.619  11.426  0.9682 -0.4119 -0.1537
41440SOL    HW241931   9.431   9.575  11.365  1.1213 -1.7150  1.0501
41441SOL     OW41932   6.540   9.470   1.391 -0.0742  0.2417  0.4492
41441SOL    HW141933   6.510   9.536   1.453  0.6640  1.1849 -0.1771
41441SOL    HW241934   6.603   9.515   1.336  2.0125 -1.4722  1.2748
41442SOL     OW41935  13.359   8.920   3.920 -0.2100 -0.5698 -0.3044
41442SOL    HW141936  13.380   9.007   3.887  1.9335 -0.7795  0.3125
41442SOL    HW241937  13.269   8.904   3.892  0.0133  1.0279 -2.1380
41443SOL     OW41938   7.333   7.059   9.412 -0.0255 -0.1295 -0.0118
41443SOL    HW141939   7.413   7.092   9.454  0.9687 -2.2883 -0.0709
41443SOL    HW241940   7.270   7.054   9.484  0.5931 -0.4920  0.5232
41444SOL     OW41941   3.793  13.252   9.151 -0.5344 -0.6666 -0.1264
41444SOL    HW141942   3.817  13.337   9.115 -3.1768  0.3631  0.3502
41444SOL    HW241943   3.708  13.232   9.113 -0.3269 -2.7644  0.3603
41445SOL     OW41944  13.885   1.879   0.457  0.3730 -0.2958 -0.6148
41445SOL    HW141945  13.843   1.846   0.536  0.3003  2.0295  0.4056
41445SOL    HW241946  13.963   1.925   0.489  1.1198 -0.4923 -2.0521
41446SOL     OW41947  12.559  11.955   0.032  0.3132 -0.6509 -0.7282
41446SOL    HW141948  12.518  12.023  -0.021  1.5797  1.3455  0.7205
41446SOL    HW241949  12.500  11.879   0.024 -2.2408  1.2179 -0.8205
41447SOL     OW41950   6.040   8.690  11.380  0.0029  0.0970 -0.0338
41447SOL    HW141951   6.118   8.649  11.342 -0.5326 -1.9080  0.9090
41447SOL    HW241952   6.074   8.765  11.429  1.5564 -1.4635  1.4139
41448SOL     OW41953   4.796   2.852   9.824 -0.1779  0.1238  0.3282
41448SOL    HW141954   4.784   2.935   9.777  1.0568  0.1346 -0.0153
41448SOL    HW241955   4.753   2.787   9.769 -0.2021  0.3810  0.0393
41449SOL     OW41956  13.826  13.465   6.583 -0.0577 -0.2803  0.1998
41449SOL    HW141957  13.878  13.545   6.593 -0.5748  0.3134 -1.4751
41449SOL    HW241958  13.892  13.395   6.574  0.3957 -0.2329  2.5839
41450SOL     OW41959   7.911  12.208   1.329 -0.3206 -0.3454 -0.0726
41450SOL    HW141960   7.825  12.235   1.359 -0.2804 -0.6742  0.3380
41450SOL    HW241961   7.902  12.200   1.234 -0.9435 -1.0922  0.0378
41451SOL     OW41962   7.488   4.552   3.914 -0.0060  0.3392  0.3187
41451SOL    HW141963   7.510   4.503   3.835  1.1907  0.5911  0.4775
41451SOL    HW241964   7.486   4.644   3.886 -0.8803  0.3241  0.3120
41452SOL     OW41965   4.857   2.756   8.235  0.2523  0.3219  0.4134
41452SOL    HW141966   4.906   2.682   8.269  0.2447  0.3183  0.4163
41452SOL    HW241967   4.765   2.734   8.252  0.1067 -0.5646 -1.3264
41453SOL     OW41968   9.331   2.591   3.291  0.2260 -0.7305 -0.3217
41453SOL    HW141969   9.332   2.682   3.321 -0.4857 -1.3842  1.8691
41453SOL    HW241970   9.420   2.560   3.304  0.6620 -0.1648 -1.7921
41454SOL     OW41971  13.543   7.858   4.422  0.2550  0.6455 -0.1531
41454SOL    HW141972  13.615   7.871   4.483  0.4037 -0.0982 -0.1566
41454SOL    HW241973  13.499   7.779   4.453  0.6964 -0.0938 -1.3423
41455SOL     OW41974   1.227   5.925   9.055  0.0442  0.2015  0.3627
41455SOL    HW141975   1.143   5.972   9.060  0.4389  1.2266 -1.5477
41455SOL    HW241976   1.247   5.902   9.146 -1.5019  1.3781  1.0560
41456SOL     OW41977  11.767   9.963   3.579 -0.4638 -0.6010  0.2415
41456SOL    HW141978  11.786   9.993   3.668 -1.6012 -1.3932  0.7729
41456SOL    HW241979  11.748   9.869   3.589 -0.5224 -0.7215 -0.8553
41457SOL     OW41980   2.353   2.229   7.927 -0.1168 -0.1575  0.4986
41457SOL    HW141981   2.358   2.164   7.998  0.7357 -0.5548  0.0938
41457SOL    HW241982   2.418   2.295   7.950 -1.1480  0.7026  1.0292
41458SOL     OW41983   7.504   5.311   6.745 -0.5218  0.0547  0.0951
41458SOL    HW141984   7.419   5.285   6.709 -0.2440  0.1334 -0.6266
41458SOL    HW241985   7.551   5.348   6.671 -1.0635  3.1751  1.1608
41459SOL     OW41986   2.580   3.271   9.694 -0.0428 -0.3114  0.5211
41459SOL    HW141987   2.640   3.335   9.732  0.4202 -0.4573  0.0458
41459SOL    HW241988   2.514   3.324   9.649  1.6257 -0.1195 -1.8993
41460SOL     OW41989   9.118   5.826   2.584 -0.3024 -0.2687  0.2368
41460SOL    HW141990   9.196   5.865   2.544  0.5209 -2.0419  0.0220
41460SOL    HW241991   9.047   5.847   2.523  0.0730  0.9640  0.1962
41461SOL     OW41992   6.070   9.137   3.981 -0.1666  0.7106 -0.3864
41461SOL    HW141993   6.015   9.187   4.040 -0.4938  0.3312 -0.3594
41461SOL    HW241994   6.011   9.071   3.943  0.2601  0.3071 -0.3709
41462SOL     OW41995   1.115  10.474  11.703  0.4666  0.7044  0.5030
41462SOL    HW141996   1.182  10.445  11.640 -0.5371 -0.8264  0.0873
41462SOL    HW241997   1.152  10.453  11.789  0.3119 -0.6659  0.2566
41463SOL     OW41998   4.437   0.108   1.013  0.5535 -0.2512  0.6063
41463SOL    HW141999   4.429   0.202   0.998  2.0859 -0.4193 -1.8053
41463SOL    HW242000   4.501   0.078   0.948  1.0134 -2.7836  2.0573
41464SOL     OW42001  10.145   7.972   9.388 -0.1249 -0.3793 -0.0326
41464SOL    HW142002  10.121   7.979   9.295 -0.2374  1.5029  0.1052
41464SOL    HW242003  10.230   7.928   9.388  0.4346  0.6488 -1.1274
41465SOL     OW42004  11.392   2.827   1.131  0.0855 -0.2092  0.0905
41465SOL    HW142005  11.406   2.850   1.039  1.2948 -1.1583  0.0254
41465SOL    HW242006  11.301   2.796   1.134 -0.1698  0.4181 -0.6445
41466SOL     OW42007  11.700  12.676   1.988 -0.0466  0.3815 -0.4272
41466SOL    HW142008  11.675  12.689   1.897  1.6890  0.4852 -0.9370
41466SOL    HW242009  11.792  12.650   1.983 -0.7254 -2.7758  1.1038
41467SOL     OW42010  12.746   0.766  11.261 -0.0239  0.1074  0.6332
41467SOL    HW142011  12.717   0.691  11.209  2.3426 -1.4606  1.4226
41467SOL    HW242012  12.693   0.761  11.341 -2.2648  1.3677 -0.6651
41468SOL     OW42013  12.368   1.478   3.879  0.2870 -0.1464  0.0547
41468SOL    HW142014  12.432   1.547   3.866 -0.2614  0.4493  0.4287
41468SOL    HW242015  12.414   1.397   3.856  1.4908  0.1536  1.2674
41469SOL     OW42016   0.791  11.936   8.049 -0.0310 -0.4850 -0.7139
41469SOL    HW142017   0.759  11.918   8.137  0.3278 -1.8556 -0.8416
41469SOL    HW242018   0.788  11.851   8.004 -2.2107  0.5313 -2.7052
41470SOL     OW42019  11.697   4.718   7.391  0.0697  0.2075 -0.3689
41470SOL    HW142020  11.731   4.648   7.336 -0.5504 -0.2738 -0.1496
41470SOL    HW242021  11.733   4.702   7.478 -0.2646  0.0147 -0.2629
41471SOL     OW42022  10.360   6.602   0.555  0.0338  0.1106  0.0667
41471SOL    HW142023  10.321   6.669   0.498 -0.6038  0.1056  0.4989
41471SOL    HW242024  10.329   6.624   0.643  1.3143  0.3485  0.4944
41472SOL     OW42025   1.379   2.419  11.021  0.1864  0.1071  0.1430
41472SOL    HW142026   1.351   2.393  11.109 -0.5394  1.2172  0.2607
41472SOL    HW242027   1.463   2.374  11.008  1.0335  1.0303  1.9956
41473SOL     OW42028   8.313  13.812   2.306  0.3707 -0.1787 -0.4135
41473SOL    HW142029   8.363  13.894   2.312  0.7893 -0.3994 -0.8483
41473SOL    HW242030   8.380  13.743   2.306  0.1751 -0.4183 -2.5237
41474SOL     OW42031   1.648  10.061   6.724  0.2811  0.2301  0.8545
41474SOL    HW142032   1.688  10.072   6.638 -1.3144  0.7950  0.1371
41474SOL    HW242033   1.561  10.024   6.705 -0.1767  0.5549  2.1967
41475SOL     OW42034   5.902  14.090  10.334 -0.4139  0.3575  0.4425
41475SOL    HW142035   5.874  14.160  10.275  0.1391  0.4015  0.2215
41475SOL    HW242036   5.957  14.033  10.279  0.6143  0.7347  1.0490
41476SOL     OW42037  12.208  13.655   4.962 -0.0112 -0.4377 -0.0957
41476SOL    HW142038  12.170  13.742   4.950 -0.2766 -0.4198  0.8099
41476SOL    HW242039  12.241  13.656   5.052  1.1885 -0.8156 -0.5126
41477SOL     OW42040   3.127   9.795   9.675 -0.4102 -0.2795  0.1750
41477SOL    HW142041   3.036   9.772   9.657 -0.0728 -0.8540 -0.8584
41477SOL    HW242042   3.140   9.769   9.767 -0.8699 -1.6004 -0.1081
41478SOL     OW42043  10.339   5.072   9.671 -0.6694  0.6025  0.4631
41478SOL    HW142044  10.359   5.163   9.650 -0.6518  0.6638  0.7421
41478SOL    HW242045  10.373   5.022   9.597  2.5077  0.4791  1.8426
41479SOL     OW42046   3.007   7.527   8.480  0.3146 -0.2601 -0.1333
41479SOL    HW142047   3.000   7.604   8.423 -1.0958  0.8739  1.4653
41479SOL    HW242048   3.068   7.554   8.549  0.3530 -0.8315  0.0615
41480SOL     OW42049   7.421  13.851   8.628  0.2189  0.1300  0.2878
41480SOL    HW142050   7.441  13.770   8.581 -1.8145 -0.9495  1.2096
41480SOL    HW242051   7.472  13.918   8.581  1.9904 -1.6329 -0.4642
41481SOL     OW42052  12.549   7.348   9.624  0.1484 -0.8138  0.1194
41481SOL    HW142053  12.530   7.421   9.683  0.5643 -0.7438  0.1741
41481SOL    HW242054  12.486   7.281   9.646 -1.1702  0.0376 -0.8644
41482SOL     OW42055  11.689  13.555   9.100 -0.5635  0.0462  0.5007
41482SOL    HW142056  11.771  13.577   9.145  0.6903  0.9085 -2.0555
41482SOL    HW242057  11.710  13.479   9.047 -1.6873 -0.2317  0.4301
41483SOL     OW42058   9.060   6.930   5.276 -0.3550  0.7196 -0.3242
41483SOL    HW142059   9.005   6.864   5.318 -1.3190  1.8462  0.2595
41483SOL    HW242060   9.142   6.927   5.326 -0.9728  1.0525  0.7468
41484SOL     OW42061   8.694  11.299   4.381  0.2563  0.5647  0.2076
41484SOL    HW142062   8.777  11.252   4.387 -0.8437 -1.7915 -1.3461
41484SOL    HW242063   8.705  11.360   4.308  0.3455 -0.4491 -0.6499
41485SOL     OW42064   7.393   5.122   3.387 -0.2069 -0.0899  0.4748
41485SOL    HW142065   7.354   5.041   3.355 -1.2042  1.0839 -1.4442
41485SOL    HW242066   7.477   5.128   3.342 -0.1655 -0.0097  0.5607
41486SOL     OW42067  10.302  10.077   0.589  0.2860  0.4301 -0.1795
41486SOL    HW142068  10.208  10.089   0.607 -0.2127 -0.9308 -1.6669
41486SOL    HW242069  10.334  10.028   0.665  0.1419  2.0957  1.0139
41487SOL     OW42070  13.705   6.682   0.810 -0.1508  0.2858 -0.2057
41487SOL    HW142071  13.629   6.736   0.786  0.9908  3.4934  2.5848
41487SOL    HW242072  13.692   6.663   0.903  1.2667 -1.3582 -0.2937
41488SOL     OW42073   9.590   3.703  11.868 -0.3538  0.6073  0.1703
41488SOL    HW142074   9.590   3.731  11.777 -2.3572  1.6071  0.4357
41488SOL    HW242075   9.499   3.707  11.895  0.2942  1.1955  2.4872
41489SOL     OW42076   7.528   9.389   2.777 -0.3714 -0.4162 -0.1958
41489SOL    HW142077   7.574   9.468   2.748  0.6873 -1.2323 -0.8025
41489SOL    HW242078   7.440   9.420   2.799  0.9379  1.6023  2.9747
41490SOL     OW42079  13.720   2.176   2.494  0.6265 -0.1623  0.0719
41490SOL    HW142080  13.790   2.207   2.436  0.5259 -0.1171 -0.0246
41490SOL    HW242081  13.756   2.187   2.582  1.0060 -0.7898 -0.0005
41491SOL     OW42082   0.345  11.277   1.926  0.3451  0.5618 -0.0913
41491SOL    HW142083   0.386  11.363   1.914  0.2367  0.5938 -0.2477
41491SOL    HW242084   0.402  11.231   1.987  0.7069  0.5453 -0.4349
41492SOL     OW42085  12.961   2.563  13.275  0.6468 -0.2898 -0.2896
41492SOL    HW142086  12.881   2.616  13.275  0.2793 -0.8319  0.3576
41492SOL    HW242087  12.933   2.477  13.306  1.4751 -0.4970 -0.0931
41493SOL     OW42088   0.949   9.455  13.677 -0.3854 -0.1551  0.6991
41493SOL    HW142089   1.010   9.390  13.642 -0.8816 -0.2136 -0.1039
41493SOL    HW242090   0.865   9.432  13.637 -0.5874  0.9260  0.4586
41494SOL     OW42091   3.874   4.129   6.173 -0.1094 -0.7089  0.2167
41494SOL    HW142092   3.831   4.060   6.123  0.5255 -1.4014  0.5970
41494SOL    HW242093   3.807   4.160   6.234 -0.3573 -1.0979  0.1440
41495SOL     OW42094   1.108  12.879   5.607 -0.6345 -0.2578 -0.3766
41495SOL    HW142095   1.195  12.900   5.573 -0.4116  1.1512  0.9939
41495SOL    HW242096   1.067  12.829   5.536  1.3781 -1.2633 -0.9342
41496SOL     OW42097   7.607  14.079   6.253  0.4342  0.4658 -0.4492
41496SOL    HW142098   7.581  14.097   6.343  0.0682  0.1932 -0.4944
41496SOL    HW242099   7.608  14.165   6.211 -0.5811  0.4754 -0.4849
41497SOL     OW42100  10.306   4.777   2.297 -0.0614 -0.2648 -0.6648
41497SOL    HW142101  10.302   4.685   2.268  1.0914  0.2700 -2.7454
41497SOL    HW242102  10.378   4.779   2.359 -0.0834 -0.7641 -0.6142
41498SOL     OW42103   3.161   7.794   5.958  0.0445  0.0582 -0.4333
41498SOL    HW142104   3.149   7.730   6.028 -1.7884  1.2422  0.4324
41498SOL    HW242105   3.255   7.802   5.947  0.3835 -0.3782  1.7274
41499SOL     OW42106   2.169  12.821   3.656 -0.2649  0.7136 -0.4157
41499SOL    HW142107   2.093  12.807   3.713 -1.1348  2.0261 -1.2065
41499SOL    HW242108   2.138  12.798   3.569  0.0396  1.8700 -0.8393
41500SOL     OW42109   1.776   7.263   9.921  0.2636  0.2911  0.4659
41500SOL    HW142110   1.766   7.359   9.920 -0.2673  0.2390 -0.1461
41500SOL    HW242111   1.775   7.238   9.829 -1.3163 -0.4626  0.6454
41501SOL     OW42112  12.797  13.039   8.993 -0.2576 -0.0842 -0.4026
41501SOL    HW142113  12.761  12.983   9.062 -0.8849  0.7595 -0.0317
41501SOL    HW242114  12.769  12.997   8.912 -0.7157 -0.3151 -0.1325
41502SOL     OW42115   0.521   9.479   6.099  0.1458 -0.3660  0.2104
41502SOL    HW142116   0.545   9.569   6.117 -2.6169  0.2383  1.3876
41502SOL    HW242117   0.568   9.427   6.164  1.1818  0.2786 -0.0113
41503SOL     OW42118  10.133  10.672   8.356  0.1753 -0.0859  0.3163
41503SOL    HW142119  10.176  10.648   8.438  0.3438 -0.3613  0.1494
41503SOL    HW242120  10.192  10.735   8.315  1.2112 -1.6188 -0.6498
41504SOL     OW42121   3.209  12.651   6.437 -0.1437  0.0808 -0.3076
41504SOL    HW142122   3.140  12.716   6.451  1.1778  1.5299 -0.2652
41504SOL    HW242123   3.254  12.645   6.522  1.2987  1.0115 -0.9642
41505SOL     OW42124  12.950  10.768   5.722  0.6599 -0.7693  0.0169
41505SOL    HW142125  13.038  10.746   5.692  0.8918  1.0264 -0.7536
41505SOL    HW242126  12.964  10.808   5.808  0.3742 -2.3024  0.8054
41506SOL     OW42127  10.202  12.870   8.100 -0.3174  0.4325  0.2867
41506SOL    HW142128  10.140  12.922   8.047  0.8704  0.8234 -0.7778
41506SOL    HW242129  10.184  12.779   8.075  0.3649  0.6273 -0.9680
41507SOL     OW42130  10.184   2.396   9.654  0.4838  0.3122  0.1881
41507SOL    HW142131  10.274   2.395   9.686  0.4803  1.4463  0.2729
41507SOL    HW242132  10.141   2.325   9.702  1.4475 -0.5838 -0.2441
41508SOL     OW42133  12.486   4.341   6.271  0.2642  0.1466  0.2002
41508SOL    HW142134  12.430   4.274   6.310 -0.2127 -0.2857 -1.1703
41508SOL    HW242135  12.437   4.422   6.281 -0.7123 -0.2463 -1.0929
41509SOL     OW42136   8.868   3.821   0.793 -0.1098  0.6349 -0.1713
41509SOL    HW142137   8.957   3.809   0.762  0.3898  0.7632  1.1181
41509SOL    HW242138   8.825   3.874   0.726  0.1934 -1.0291 -1.7557
41510SOL     OW42139   4.239  13.719   5.705  0.1679  0.0728 -0.2435
41510SOL    HW142140   4.260  13.734   5.797 -0.4482 -1.1959  0.1150
41510SOL    HW242141   4.187  13.639   5.704  1.4103 -0.7892 -1.8529
41511SOL     OW42142  13.776  12.354   1.589  0.2677 -0.6691 -0.0401
41511SOL    HW142143  13.853  12.410   1.586  1.5712 -2.4166 -1.0854
41511SOL    HW242144  13.791  12.288   1.521 -1.2423 -2.2154  1.0236
41512SOL     OW42145  10.057   5.912  12.436 -0.3131 -0.2252 -0.4218
41512SOL    HW142146  10.138   5.861  12.442 -0.0693 -0.0105 -1.5937
41512SOL    HW242147  10.039   5.939  12.526  0.6428 -0.6991 -0.0727
41513SOL     OW42148   7.636   0.212   8.150  0.3170 -0.3554  0.2261
41513SOL    HW142149   7.594   0.126   8.142  1.6942 -1.2695  1.9826
41513SOL    HW242150   7.711   0.196   8.208  1.5559  1.7138 -0.7024
41514SOL     OW42151  13.679   6.443   4.098  0.1793  0.6139 -0.0666
41514SOL    HW142152  13.613   6.429   4.167  0.9651  1.1929  0.8135
41514SOL    HW242153  13.628   6.470   4.022 -0.6042  1.1592  0.6343
41515SOL     OW42154  10.915   5.673   1.328  0.2119 -0.4198  0.0981
41515SOL    HW142155  10.979   5.660   1.258 -0.8845 -2.0827 -0.6475
41515SOL    HW242156  10.963   5.722   1.396  2.0128 -0.9046 -0.7698
41516SOL     OW42157   2.032   1.234   6.976 -0.3032 -0.0595 -0.3292
41516SOL    HW142158   2.122   1.204   6.960  0.4631  0.5121  2.3516
41516SOL    HW242159   2.038   1.330   6.971 -0.0065  0.1721  2.7027
41517SOL     OW42160   1.952   6.850  10.682 -0.1217  0.7465 -0.6813
41517SOL    HW142161   2.037   6.848  10.637  0.3399 -0.0387  0.1901
41517SOL    HW242162   1.900   6.912  10.631  1.1401  1.6441 -0.9379
41518SOL     OW42163   0.678  13.058  12.489 -0.1265  0.2717 -0.0854
41518SOL    HW142164   0.752  12.999  12.479 -0.2949 -0.1493  1.0086
41518SOL    HW242165   0.707  13.124  12.551 -1.8106 -2.0093  3.4153
41519SOL     OW42166   9.097   4.498   4.947  0.2693  0.2404 -0.0075
41519SOL    HW142167   9.168   4.490   4.883  0.6102 -0.3479  0.4350
41519SOL    HW242168   9.097   4.414   4.993  1.2314  1.2583  1.9962
41520SOL     OW42169   5.479  11.309   2.671 -0.2077 -0.0053  0.1881
41520SOL    HW142170   5.518  11.231   2.711 -0.7130 -1.0800 -1.3142
41520SOL    HW242171   5.550  11.345   2.616  0.0900  0.7430  1.0347
41521SOL     OW42172  12.916   6.972   6.042  0.1932 -0.2946 -0.2868
41521SOL    HW142173  12.835   6.995   5.997  1.1818  1.6454 -1.2249
41521SOL    HW242174  12.947   6.893   5.998 -0.1113  0.1837 -1.3968
41522SOL     OW42175   9.055   1.609   0.293  0.4148 -0.1320 -0.3999
41522SOL    HW142176   9.037   1.517   0.312 -0.5988  0.1324 -0.0497
41522SOL    HW242177   9.026   1.621   0.203 -2.1184  0.5122  0.4461
41523SOL     OW42178   9.532  11.002  10.264 -0.1537  0.1486  0.5753
41523SOL    HW142179   9.441  10.985  10.241 -0.3050 -0.8253  1.8172
41523SOL    HW242180   9.530  11.087  10.308 -0.5027  0.0212  0.8060
41524SOL     OW42181   2.535   3.668   5.112 -0.4591 -0.5408  0.0665
41524SOL    HW142182   2.474   3.676   5.186 -0.9173  0.5950 -0.4068
41524SOL    HW242183   2.504   3.733   5.049  1.1475 -0.0543 -0.2650
41525SOL     OW42184   9.261  11.385  12.066 -0.4733  0.4438  0.0246
41525SOL    HW142185   9.297  11.470  12.040 -1.0097  0.8974  0.7542
41525SOL    HW242186   9.266  11.385  12.161 -0.3457 -0.4078  0.0232
41526SOL     OW42187   2.313   2.209   9.309 -0.2787 -0.2377  0.8760
41526SOL    HW142188   2.310   2.294   9.352 -0.1803  0.6920 -0.8570
41526SOL    HW242189   2.396   2.171   9.335  0.9411  1.3938 -0.3839
41527SOL     OW42190   2.379   3.107   5.136 -0.1263  0.1953  0.1931
41527SOL    HW142191   2.370   3.019   5.100  0.7807  0.5811 -1.0366
41527SOL    HW242192   2.421   3.157   5.066  1.3695  1.0701  1.6388
41528SOL     OW42193  13.494   4.156   6.145  0.2896 -0.0728  0.3990
41528SOL    HW142194  13.421   4.202   6.185  0.0198 -0.2669  0.1326
41528SOL    HW242195  13.466   4.065   6.141  0.9623 -0.3268  1.2503
41529SOL     OW42196   6.180   4.116   0.121  0.2489  0.2455 -0.3902
41529SOL    HW142197   6.137   4.194   0.085  1.8092  0.8759 -0.9661
41529SOL    HW242198   6.245   4.092   0.055  0.1527 -1.2379  0.0294
41530SOL     OW42199   6.293   0.079   9.963  0.3004 -0.3763  0.4422
41530SOL    HW142200   6.253   0.155   9.920  4.1302  1.7829  0.2917
41530SOL    HW242201   6.297   0.012   9.895 -0.7530  0.1689 -0.1907
41531SOL     OW42202   5.229   8.992   5.337  0.3194  0.2768 -0.3483
41531SOL    HW142203   5.217   8.956   5.250  0.3726 -1.4944  0.3353
41531SOL    HW242204   5.302   9.053   5.328  1.6140 -1.3223 -1.1732
41532SOL     OW42205   1.519   1.319  13.139 -0.2832  0.2653  0.0439
41532SOL    HW142206   1.499   1.349  13.228 -0.0777 -2.2447  0.9931
41532SOL    HW242207   1.612   1.337  13.128 -0.0478 -0.4108  0.7880
41533SOL     OW42208   5.321   0.384  11.387 -0.6686 -0.4012  0.3785
41533SOL    HW142209   5.389   0.330  11.348 -0.9125 -1.5951  1.5305
41533SOL    HW242210   5.239   0.346  11.357 -0.8570 -1.2404  1.8365
41534SOL     OW42211  11.654  12.696   6.702 -0.5932 -0.4017  0.1257
41534SOL    HW142212  11.569  12.738   6.697 -0.0296  0.7005 -0.5044
41534SOL    HW242213  11.698  12.719   6.620  0.9014  0.3645  1.0961
41535SOL     OW42214  13.775   5.023   1.453 -0.2898 -0.2819  0.3867
41535SOL    HW142215  13.748   5.021   1.545  1.0166 -1.4214  0.7845
41535SOL    HW242216  13.697   4.999   1.404 -1.5417  2.2229  1.0167
41536SOL     OW42217   8.646  10.290   1.267  0.4701 -0.0171 -0.3131
41536SOL    HW142218   8.666  10.339   1.347  1.8334  0.4943 -0.9406
41536SOL    HW242219   8.730  10.256   1.237  0.2069  0.7570 -2.1256
41537SOL     OW42220   7.745   3.842  13.527  0.1028 -0.8657  0.6687
41537SOL    HW142221   7.833   3.834  13.491 -0.4765 -0.1389 -1.0053
41537SOL    HW242222   7.736   3.935  13.547 -1.4950 -0.1521 -2.6833
41538SOL     OW42223   7.136   7.921   9.823 -0.2920  0.3616  0.0120
41538SOL    HW142224   7.102   7.924   9.734 -0.9431 -1.9209  0.1087
41538SOL    HW242225   7.058   7.916   9.878  0.1337 -0.3496  0.5641
41539SOL     OW42226   9.839   3.521   4.065 -0.4123 -0.6390  0.0072
41539SOL    HW142227   9.811   3.583   3.998  0.1203 -1.1731 -0.7246
41539SOL    HW242228   9.758   3.498   4.112 -0.6636  0.3388  0.0725
41540SOL     OW42229  11.942  12.907   5.192 -0.3271 -0.8509  0.1531
41540SOL    HW142230  11.937  12.998   5.165 -1.6294 -1.3541 -1.4759
41540SOL    HW242231  11.946  12.910   5.288 -0.2734  0.9019  0.1150
41541SOL     OW42232   5.823   3.777   2.593  0.5520 -0.5559  0.2716
41541SOL    HW142233   5.872   3.756   2.672 -0.7344 -1.7399  0.7982
41541SOL    HW242234   5.739   3.732   2.603 -0.6905  1.3875 -0.5770
41542SOL     OW42235  12.488   3.944   1.338 -0.7994 -0.8437  0.3120
41542SOL    HW142236  12.535   3.986   1.411 -2.8901 -0.4286  1.4914
41542SOL    HW242237  12.396   3.948   1.363 -1.3004 -4.6319 -0.3221
41543SOL     OW42238   8.448   1.066  12.950 -0.3613 -0.2599  0.1550
41543SOL    HW142239   8.409   1.153  12.957  0.3749  0.2024 -1.1693
41543SOL    HW242240   8.476   1.059  12.859  0.5683 -1.4732  0.5015
41544SOL     OW42241   7.214  13.120   2.404 -0.2029 -0.0565  0.3260
41544SOL    HW142242   7.169  13.051   2.355 -0.0271  1.1359 -1.6551
41544SOL    HW242243   7.165  13.200   2.381  1.0352  0.8084  0.6119
41545SOL     OW42244  13.187   6.689  10.340  0.1521  0.3096  0.4006
41545SOL    HW142245  13.186   6.750  10.413  1.0248 -0.0253  0.7153
41545SOL    HW242246  13.242   6.731  10.274  2.1244 -0.7895  1.2541
41546SOL     OW42247   7.816   4.435   0.881 -0.0250 -0.4348  0.6775
41546SOL    HW142248   7.841   4.409   0.792 -0.5049 -1.8077  0.9216
41546SOL    HW242249   7.869   4.379   0.938 -0.2186 -0.0432  1.2487
41547SOL     OW42250  12.641  11.853   7.733 -0.5234  0.3537  0.1126
41547SOL    HW142251  12.609  11.942   7.751  0.4226  0.8463 -0.5146
41547SOL    HW242252  12.654  11.851   7.638 -1.8477 -0.9363 -0.0762
41548SOL     OW42253   2.794   9.813   6.984 -0.2432 -0.6897 -0.2599
41548SOL    HW142254   2.852   9.807   6.908 -0.9171 -1.2229 -0.7437
41548SOL    HW242255   2.709   9.782   6.952 -0.5568 -0.8441  0.6885
41549SOL     OW42256  12.697   5.560   1.618  0.9013  0.2039 -0.1247
41549SOL    HW142257  12.666   5.489   1.674 -1.6161 -0.3188 -2.0111
41549SOL    HW242258  12.664   5.639   1.659  0.2317 -0.0607 -0.1478
41550SOL     OW42259   5.678  12.380  13.444 -0.4575 -0.5739  0.6796
41550SOL    HW142260   5.628  12.377  13.363 -0.9230 -0.4258  0.9533
41550SOL    HW242261   5.712  12.469  13.448  0.6217 -0.9461  0.0324
41551SOL     OW42262   6.981   3.102  10.455 -0.1122 -0.0941  0.0289
41551SOL    HW142263   7.043   3.169  10.486  0.0506 -0.0736 -0.3376
41551SOL    HW242264   7.037   3.029  10.429 -0.2513 -0.1223 -0.1892
41552SOL     OW42265   7.711  12.378   2.796 -0.3461  0.9273  0.0279
41552SOL    HW142266   7.748  12.356   2.710 -1.9796 -0.8480 -0.2911
41552SOL    HW242267   7.663  12.459   2.780 -3.0183 -0.8040 -1.5846
41553SOL     OW42268  12.703   4.753   0.987  0.2557  0.0306 -0.0608
41553SOL    HW142269  12.609   4.734   0.980  0.2053 -0.2529  1.1403
41553SOL    HW242270  12.727   4.722   1.075  1.3595  0.5882 -0.1516
41554SOL     OW42271   3.538   7.564   6.065 -0.4984 -0.7089 -0.0525
41554SOL    HW142272   3.460   7.612   6.093 -0.3105 -1.1483  1.2861
41554SOL    HW242273   3.583   7.625   6.007 -1.1836  0.0465  0.1778
41555SOL     OW42274   6.030   1.254   2.744 -0.1769  0.5053  0.8451
41555SOL    HW142275   6.031   1.350   2.737 -0.2069  0.4217 -0.7906
41555SOL    HW242276   5.946   1.234   2.785 -1.7492  1.0885 -1.8548
41556SOL     OW42277  12.235  10.463   5.432 -0.5957  0.2547  0.4285
41556SOL    HW142278  12.273  10.551   5.420  0.8858 -0.3132  0.7197
41556SOL    HW242279  12.295  10.420   5.492 -0.4558 -1.4663 -0.8824
41557SOL     OW42280   6.513   5.057  13.829  0.4851 -0.1950 -0.2118
41557SOL    HW142281   6.480   5.124  13.769  3.3394  1.8155  0.2748
41557SOL    HW242282   6.572   5.004  13.776 -1.0269 -1.8649 -0.3501
41558SOL     OW42283   9.177  10.468  11.031  0.3249 -0.1930 -1.2265
41558SOL    HW142284   9.261  10.487  10.989  0.6324 -1.0512 -1.0016
41558SOL    HW242285   9.199  10.441  11.119 -0.1021 -1.5657 -1.5219
41559SOL     OW42286  11.609   8.875   2.352  0.0695  0.2918 -0.3831
41559SOL    HW142287  11.561   8.884   2.434 -0.6904  0.7403 -0.8667
41559SOL    HW242288  11.545   8.840   2.290  1.4854 -3.4133  0.0043
41560SOL     OW42289   3.335  11.680   7.503 -0.1170 -0.3217  0.2322
41560SOL    HW142290   3.360  11.651   7.416  2.3341 -0.4987  0.9087
41560SOL    HW242291   3.370  11.769   7.510 -1.9632  0.4459  0.4194
41561SOL     OW42292   5.381   2.166   2.126  0.5608 -0.2075 -0.0924
41561SOL    HW142293   5.347   2.245   2.171  0.7714  1.3506 -2.4990
41561SOL    HW242294   5.317   2.149   2.057  3.0652  1.0936 -2.9444
41562SOL     OW42295   8.351   1.569   8.711  0.3529 -0.1686 -0.0930
41562SOL    HW142296   8.406   1.520   8.651  1.6142  1.2471 -0.1536
41562SOL    HW242297   8.351   1.658   8.677  0.8600  0.6110  1.7882
41563SOL     OW42298  12.878   7.218   5.459 -0.0454  0.4259 -0.2393
41563SOL    HW142299  12.783   7.217   5.473  0.0906  1.7542  0.9440
41563SOL    HW242300  12.906   7.130   5.484 -0.7792  0.5105  0.9869
41564SOL     OW42301   3.413  12.197   8.506  0.1780 -0.1371 -0.1232
41564SOL    HW142302   3.453  12.195   8.419 -0.3123  1.7858 -0.4165
41564SOL    HW242303   3.346  12.265   8.501 -0.1672 -0.3068  1.6291
41565SOL     OW42304   9.233  13.881   7.275  0.1879  0.0708  0.0333
41565SOL    HW142305   9.227  13.876   7.179 -0.4612  4.4749 -0.3440
41565SOL    HW242306   9.148  13.915   7.303  0.6772 -0.2952  2.1294
41566SOL     OW42307   9.955   5.127   3.339 -0.3980  0.1312 -0.0923
41566SOL    HW142308   9.899   5.176   3.400  0.5736  0.8881  0.2139
41566SOL    HW242309  10.015   5.078   3.395 -0.5001 -0.3799 -0.4249
41567SOL     OW42310  13.370  12.230  12.302 -0.0558  0.3044 -0.3152
41567SOL    HW142311  13.385  12.141  12.269  1.5824  0.1985  0.6415
41567SOL    HW242312  13.439  12.283  12.262  1.3384  0.3741  1.9948
41568SOL     OW42313   1.355   7.219  10.467  0.3637  0.8022 -0.3496
41568SOL    HW142314   1.399   7.301  10.443  2.1330 -0.0680 -0.2146
41568SOL    HW242315   1.372   7.209  10.561 -1.8674  1.4217  0.1924
41569SOL     OW42316   6.801   0.523   3.086 -0.6857  0.5441 -0.0948
41569SOL    HW142317   6.717   0.550   3.051 -0.2230  0.1650 -1.5496
41569SOL    HW242318   6.817   0.584   3.158 -1.1618  2.0980 -1.2448
41570SOL     OW42319   6.000  10.855   8.605 -0.1494 -0.2668  0.0961
41570SOL    HW142320   6.048  10.846   8.687 -0.9866 -0.3310  0.5881
41570SOL    HW242321   5.935  10.785   8.607 -1.4745  0.9163  0.3068
41571SOL     OW42322   2.990   2.990  12.788  0.1968 -0.4230  0.1337
41571SOL    HW142323   2.958   3.062  12.733  0.0314 -0.1148  0.6263
41571SOL    HW242324   2.998   3.028  12.875  1.9406 -0.4940  0.0272
41572SOL     OW42325   3.020   0.374   9.787 -0.0288  0.2652  0.3845
41572SOL    HW142326   2.969   0.450   9.815 -0.8683  0.4199 -1.4341
41572SOL    HW242327   2.956   0.317   9.744  1.2079  0.1596 -1.3808
41573SOL     OW42328  12.665  13.660   8.679  0.3010  0.3268  0.1975
41573SOL    HW142329  12.733  13.724   8.657  1.9299 -1.1341  0.7238
41573SOL    HW242330  12.647  13.615   8.597  0.6901  0.0585  0.2588
41574SOL     OW42331   5.833   6.515   3.679 -0.1101 -0.1477 -0.3017
41574SOL    HW142332   5.757   6.499   3.623 -0.5763  0.9533 -0.0313
41574SOL    HW242333   5.797   6.565   3.753  0.1933 -2.7895  1.7726
41575SOL     OW42334  13.776   8.056   3.687 -0.2743 -0.4171  0.3376
41575SOL    HW142335  13.736   7.983   3.639 -0.5253 -0.7839  1.0857
41575SOL    HW242336  13.705   8.120   3.695  0.0613  0.1133 -0.6886
41576SOL     OW42337  14.038   9.890   6.808  0.4737 -0.0059  0.3927
41576SOL    HW142338  14.011   9.862   6.895 -0.4650  1.3011  0.5481
41576SOL    HW242339  14.134   9.883   6.808  0.5458  0.7297  1.8015
41577SOL     OW42340  11.761   0.911   6.817 -0.6150  0.2237  0.6600
41577SOL    HW142341  11.679   0.896   6.864 -0.9221  1.4320  0.5628
41577SOL    HW242342  11.812   0.831   6.829 -1.9093 -0.6506  0.5190
41578SOL     OW42343  11.469  11.916  10.957 -0.1945  0.2593  0.1134
41578SOL    HW142344  11.564  11.933  10.951 -0.3885  2.1144  1.4549
41578SOL    HW242345  11.452  11.911  11.051 -1.6064  1.1950 -0.0645
41579SOL     OW42346   7.543  11.832   5.576  0.2643  0.1960 -0.0117
41579SOL    HW142347   7.582  11.878   5.651  1.2941 -1.7602  0.7262
41579SOL    HW242348   7.448  11.841   5.589  0.4184  1.8311  0.2347
41580SOL     OW42349   1.449  11.000  13.896  0.3805  0.5662 -0.1298
41580SOL    HW142350   1.368  11.043  13.922 -0.6826 -0.4690 -1.5573
41580SOL    HW242351   1.438  10.908  13.921  1.2009  0.4493 -0.1434
41581SOL     OW42352  10.119  12.158   5.091 -0.8606  0.1319 -0.6066
41581SOL    HW142353  10.095  12.123   5.176 -0.5705  0.7669 -0.2517
41581SOL    HW242354  10.078  12.100   5.027  0.3630 -1.3897 -0.0584
41582SOL     OW42355  12.688   8.216   5.628  0.2419 -0.5303  0.1229
41582SOL    HW142356  12.767   8.250   5.586  1.4592 -1.4580  1.5611
41582SOL    HW242357  12.643   8.168   5.558  1.4253 -0.7480 -0.5259
41583SOL     OW42358  11.241   3.604   9.130 -0.2412  0.5497 -0.3393
41583SOL    HW142359  11.304   3.573   9.064 -2.5864 -1.8021 -1.6628
41583SOL    HW242360  11.233   3.698   9.112  3.1975  1.0746  0.2643
41584SOL     OW42361   5.212  11.242   8.117 -0.2347  0.1498 -0.2758
41584SOL    HW142362   5.235  11.251   8.209  0.3329  1.4407 -0.5195
41584SOL    HW242363   5.287  11.279   8.070 -1.2557  1.1304 -1.1988
41585SOL     OW42364  10.787   4.953   1.004  0.1118 -0.1826 -0.0469
41585SOL    HW142365  10.842   4.885   1.044 -1.0339  0.1992  2.3640
41585SOL    HW242366  10.713   4.904   0.966  0.0408 -0.4073  0.3705
41586SOL     OW42367   4.995   4.754   3.756  0.0192 -0.1327  0.7631
41586SOL    HW142368   5.027   4.707   3.833  1.0777 -0.2163  0.2832
41586SOL    HW242369   4.935   4.693   3.713  0.9445 -0.8403  0.4546
41587SOL     OW42370  11.457   4.768  13.778 -0.3598 -0.3236 -0.2307
41587SOL    HW142371  11.482   4.860  13.771  1.8779 -0.7576  1.1556
41587SOL    HW242372  11.400   4.765  13.855  0.0431 -0.1681  0.0781
41588SOL     OW42373   3.480   7.051  11.010 -0.5381 -0.5021 -0.5424
41588SOL    HW142374   3.431   7.043  11.092  0.0757  1.2965  0.0561
41588SOL    HW242375   3.413   7.068  10.944 -0.7972  2.5237  0.3550
41589SOL     OW42376   5.558  10.313   6.445 -0.3438 -0.0781  0.3615
41589SOL    HW142377   5.551  10.338   6.353  0.4252  0.0820  0.3388
41589SOL    HW242378   5.596  10.226   6.444  2.2314  0.9448  0.5575
41590SOL     OW42379   0.255  13.131   2.440  0.0486  0.5016  0.4839
41590SOL    HW142380   0.220  13.187   2.509  2.0627  2.2242  0.2237
41590SOL    HW242381   0.345  13.113   2.468 -0.4331 -2.4682  0.4198
41591SOL     OW42382   4.340  11.354   9.158 -0.1322 -0.6062 -0.9034
41591SOL    HW142383   4.406  11.300   9.115  1.1868 -0.4754  0.8152
41591SOL    HW242384   4.391  11.416   9.211 -1.6275 -0.5033  0.5036
41592SOL     OW42385   5.297   6.746   6.421  0.0560 -0.4654 -0.3145
41592SOL    HW142386   5.359   6.678   6.392  1.4084  0.9386 -0.8719
41592SOL    HW242387   5.302   6.813   6.353  0.9498  1.5161  1.5799
41593SOL     OW42388   3.998  12.712   5.847 -0.5520 -0.0494  0.1288
41593SOL    HW142389   4.040  12.694   5.764 -1.8453 -0.2323 -0.5153
41593SOL    HW242390   3.958  12.628   5.873 -3.7340  0.9066 -1.2114
41594SOL     OW42391   4.478   0.763   9.127  0.3908 -0.8207 -0.1750
41594SOL    HW142392   4.414   0.694   9.141  0.2427 -0.2878  2.1384
41594SOL    HW242393   4.561   0.718   9.119 -0.0101 -1.3977 -1.2638
41595SOL     OW42394   6.337   1.873   6.445 -0.1279 -0.0729 -0.1104
41595SOL    HW142395   6.391   1.798   6.470  0.6965  0.0527 -1.4374
41595SOL    HW242396   6.388   1.949   6.473 -1.2789  0.0505  1.8828
41596SOL     OW42397   3.976  10.104   4.812  0.4948  0.1794  0.3952
41596SOL    HW142398   4.064  10.117   4.778  0.3476  0.0472 -0.0495
41596SOL    HW242399   3.920  10.158   4.755  0.2940  0.2980  0.6999
41597SOL     OW42400   9.146   2.234   4.868 -0.5633  0.1282 -0.5275
41597SOL    HW142401   9.070   2.176   4.856  0.7570 -1.8121  0.0078
41597SOL    HW242402   9.195   2.195   4.940  1.1329  1.1392 -1.0832
41598SOL     OW42403   7.776  13.023   8.578 -0.0389  0.4831 -0.1805
41598SOL    HW142404   7.732  13.035   8.494  0.4033 -2.5211 -0.9472
41598SOL    HW242405   7.715  12.969   8.629 -0.3236  2.3054  1.5138
41599SOL     OW42406  11.108   2.366   7.540 -0.4243  0.1758 -0.5420
41599SOL    HW142407  11.039   2.423   7.505  0.0648  0.9280 -0.3070
41599SOL    HW242408  11.126   2.401   7.627  0.7022  0.3842 -0.8493
41600SOL     OW42409   0.504   8.118  11.530 -0.3670 -0.0208  0.2653
41600SOL    HW142410   0.565   8.133  11.603  0.5437 -2.1564  0.0262
41600SOL    HW242411   0.544   8.165  11.457  0.7420 -0.9081  0.2609
41601SOL     OW42412   4.981   4.912   1.179  0.0349 -0.6451 -0.1286
41601SOL    HW142413   4.902   4.881   1.135 -0.3089  1.3243 -1.0238
41601SOL    HW242414   5.053   4.876   1.127 -0.3564  0.7434 -1.7332
41602SOL     OW42415  10.259   5.908   1.546  0.1012 -0.2557 -0.2120
41602SOL    HW142416  10.312   5.828   1.555  0.6948  0.1246 -0.2411
41602SOL    HW242417  10.299   5.954   1.473 -0.2014  0.0996 -0.1525
41603SOL     OW42418   5.783  13.351   2.567 -0.2909  0.1507  0.0009
41603SOL    HW142419   5.696  13.328   2.600  0.3169 -0.1531  1.4957
41603SOL    HW242420   5.828  13.268   2.560 -0.1743  0.2843 -1.0061
41604SOL     OW42421   0.416  11.644   5.039 -0.3309 -0.6809 -0.4469
41604SOL    HW142422   0.509  11.660   5.055 -0.6117  1.6989 -0.8273
41604SOL    HW242423   0.412  11.619   4.947  0.1054 -2.8969  0.0939
41605SOL     OW42424   1.040   6.803   2.808  0.3025 -0.5792  0.1312
41605SOL    HW142425   0.986   6.838   2.879  0.0940 -0.8574  0.1151
41605SOL    HW242426   0.992   6.826   2.728  0.7273  0.0604  0.0561
41606SOL     OW42427  10.127  10.862   0.419 -0.2320  0.0029 -0.3812
41606SOL    HW142428  10.129  10.957   0.437  0.2024  0.2526 -1.6413
41606SOL    HW242429  10.211  10.830   0.452 -0.3973  0.0416  0.0848
41607SOL     OW42430   1.477   1.811  12.827 -0.1230  0.6821  0.3901
41607SOL    HW142431   1.434   1.759  12.895 -1.4349 -1.5468 -1.9458
41607SOL    HW242432   1.567   1.777  12.825 -0.7674 -1.1109 -0.6000
41608SOL     OW42433   0.246   5.988   2.266 -0.2157 -0.1142  0.3113
41608SOL    HW142434   0.166   6.026   2.230 -1.5418  0.0426  3.1680
41608SOL    HW242435   0.296   6.063   2.298  0.7167 -0.2858 -0.6667
41609SOL     OW42436   3.793   2.159   4.689  0.0182 -0.3260  0.2040
41609SOL    HW142437   3.870   2.127   4.737 -1.0069 -2.5123  0.5258
41609SOL    HW242438   3.720   2.145   4.749 -0.8397  0.2703 -0.6671
41610SOL     OW42439   7.638   0.140  14.021  0.3344 -0.0644 -0.2342
41610SOL    HW142440   7.637   0.045  14.031  1.1960 -0.1128 -0.5097
41610SOL    HW242441   7.705   0.156  13.955 -1.4375  0.5871 -1.9803
41611SOL     OW42442  12.433   2.298   9.738 -0.4840  0.5417  0.3501
41611SOL    HW142443  12.338   2.291   9.737 -0.6041  1.8729  1.3695
41611SOL    HW242444  12.460   2.260   9.654 -2.1418  3.0940 -1.4626
41612SOL     OW42445   2.526   2.517   9.512 -0.0458 -0.1546 -0.0152
41612SOL    HW142446   2.503   2.506   9.420 -0.9948 -1.1280  0.3171
41612SOL    HW242447   2.474   2.592   9.542 -0.6545 -0.5877  0.0220
41613SOL     OW42448  13.185   3.880   4.185 -0.0034 -0.6533  0.2222
41613SOL    HW142449  13.248   3.808   4.187 -1.1397 -1.7239 -0.7766
41613SOL    HW242450  13.100   3.838   4.203 -0.6709  0.4490 -0.2483
41614SOL     OW42451  10.342  10.827  11.584  0.3022  0.2486  0.0054
41614SOL    HW142452  10.259  10.875  11.584 -0.3700 -0.8276  1.5964
41614SOL    HW242453  10.318  10.737  11.607  1.8671 -0.1740  0.1033
41615SOL     OW42454  11.300   1.324  12.417  0.2224 -0.5015  0.0282
41615SOL    HW142455  11.225   1.266  12.431  0.2134 -0.2029  1.3987
41615SOL    HW242456  11.376   1.268  12.434  0.2339 -0.3147  0.6288
41616SOL     OW42457   7.760   4.591   2.340  0.5296  0.1081 -0.4084
41616SOL    HW142458   7.722   4.678   2.331 -0.5028 -0.1880  0.7925
41616SOL    HW242459   7.689   4.531   2.315  0.4758 -0.4299  0.9486
41617SOL     OW42460   4.684  12.753   3.911  0.0299 -0.0576 -0.4840
41617SOL    HW142461   4.637  12.835   3.902  0.4023  0.3413  0.8915
41617SOL    HW242462   4.616  12.685   3.910 -0.2846  0.2646 -1.5283
41618SOL     OW42463   5.997   3.338   9.337 -0.1578 -0.5326  1.2759
41618SOL    HW142464   6.092   3.346   9.329 -0.3818  2.2024  0.0865
41618SOL    HW242465   5.970   3.421   9.375 -2.1451 -0.9848  0.9287
41619SOL     OW42466  13.013   7.210   6.731  0.4443 -0.2694  0.0246
41619SOL    HW142467  13.099   7.234   6.696  0.7902 -1.2168  0.1913
41619SOL    HW242468  12.993   7.279   6.795  0.4646  0.6727 -0.9719
41620SOL     OW42469   4.069   3.323   8.789  0.1019  0.1923  0.0617
41620SOL    HW142470   4.141   3.303   8.850 -0.3892 -2.0433 -0.0234
41620SOL    HW242471   4.110   3.378   8.722  1.2683  0.5444  1.0064
41621SOL     OW42472  12.559   1.543   7.544  0.8311 -0.0854 -0.1246
41621SOL    HW142473  12.504   1.491   7.486 -2.7326  1.7638  1.2289
41621SOL    HW242474  12.514   1.540   7.629  2.6581  1.8867  1.0414
41622SOL     OW42475   3.062   7.973   4.767 -0.7204  0.7132 -0.3242
41622SOL    HW142476   3.154   7.996   4.756 -0.1800 -0.4506  1.3855
41622SOL    HW242477   3.017   8.057   4.778 -0.1175  1.3840 -2.4836
41623SOL     OW42478   2.450   4.170  13.776 -0.0488 -0.3180 -0.1816
41623SOL    HW142479   2.512   4.241  13.792 -0.5016 -0.0092  0.2206
41623SOL    HW242480   2.488   4.094  13.818 -0.6356  0.2041  1.3465
41624SOL     OW42481   6.660  13.348  12.618  0.3817 -0.9330 -0.1040
41624SOL    HW142482   6.726  13.280  12.598  0.5367 -0.6515 -0.5699
41624SOL    HW242483   6.702  13.403  12.684  0.8361 -0.4397 -0.7887
41625SOL     OW42484  10.431  11.410  12.685  0.3756  0.3937 -0.5756
41625SOL    HW142485  10.342  11.387  12.712  0.3295  1.5300  0.3107
41625SOL    HW242486  10.459  11.337  12.630  0.0719 -1.5761  1.6992
41626SOL     OW42487  10.427   9.745   9.034 -0.1356  0.0656  0.2089
41626SOL    HW142488  10.361   9.733   9.103 -0.7584 -1.3906 -0.6182
41626SOL    HW242489  10.379   9.784   8.961 -0.4182 -2.1514 -0.8557
41627SOL     OW42490   1.952  10.618   4.555 -0.2099  0.2640 -0.0940
41627SOL    HW142491   1.893  10.614   4.630 -0.7735 -0.0777 -0.5439
41627SOL    HW242492   1.928  10.543   4.501 -0.3204  0.9066 -0.9727
41628SOL     OW42493   1.802   0.226   7.183  0.3946 -0.1076  0.4206
41628SOL    HW142494   1.885   0.189   7.214 -0.1361 -0.6643  1.2368
41628SOL    HW242495   1.765   0.159   7.126 -0.7634 -1.0999  2.2251
41629SOL     OW42496   7.421   0.610  10.037  0.2345  0.2919  0.3472
41629SOL    HW142497   7.472   0.568   9.967 -2.1931 -0.3371 -1.1704
41629SOL    HW242498   7.415   0.544  10.106 -0.4045 -0.4959 -0.4381
41630SOL     OW42499   8.972  10.224  13.082  0.4484 -0.0373 -0.3596
41630SOL    HW142500   9.063  10.237  13.056 -0.0067  1.3871 -1.3412
41630SOL    HW242501   8.969  10.250  13.174  1.2091 -1.0885 -0.0080
41631SOL     OW42502  13.135   2.168   4.500  0.2735  0.1808 -0.4948
41631SOL    HW142503  13.176   2.144   4.583 -1.5780  0.0174  0.4360
41631SOL    HW242504  13.121   2.262   4.506 -1.6663 -0.0996  0.3197
41632SOL     OW42505   6.699   0.567   4.596 -0.3138  0.1534  0.2964
41632SOL    HW142506   6.726   0.586   4.686 -1.3911  2.5119  0.1948
41632SOL    HW242507   6.741   0.634   4.543  0.4287 -1.3024 -1.0197
41633SOL     OW42508   6.502   6.777   4.946  0.3511 -0.0640  0.6469
41633SOL    HW142509   6.557   6.764   4.868 -0.4616 -0.9720  0.1925
41633SOL    HW242510   6.453   6.857   4.928  1.0760  0.4246  0.7952
41634SOL     OW42511  12.300   8.799   8.969  0.1933 -0.3151  0.1563
41634SOL    HW142512  12.298   8.884   8.925  2.5880 -1.3763 -2.3326
41634SOL    HW242513  12.392   8.787   8.993 -0.6511 -0.8327  3.5617
41635SOL     OW42514   4.393   1.811   4.576 -0.0262 -0.1639 -0.1789
41635SOL    HW142515   4.376   1.838   4.666 -1.7661 -2.3700  0.2495
41635SOL    HW242516   4.468   1.752   4.582 -1.9338 -2.6915  0.3952
41636SOL     OW42517  13.519   3.029   9.259 -0.3857 -0.4289 -0.1201
41636SOL    HW142518  13.600   2.983   9.234 -0.2351  0.1141 -0.6215
41636SOL    HW242519  13.453   2.959   9.262 -0.3796 -0.5531 -1.8486
41637SOL     OW42520   7.332   9.989   5.779  0.4339 -0.1570  0.6354
41637SOL    HW142521   7.317  10.083   5.771  1.8573  0.2273  1.9381
41637SOL    HW242522   7.332   9.973   5.874 -0.1964 -1.5488  0.4241
41638SOL     OW42523   1.157   4.573  12.361 -0.1005 -0.0853 -0.1854
41638SOL    HW142524   1.247   4.605  12.369  0.8362 -2.1977 -1.3886
41638SOL    HW242525   1.128   4.560  12.451  0.5809  1.0993  0.2361
41639SOL     OW42526   2.033   7.434   2.747 -0.3106 -0.5036  0.5164
41639SOL    HW142527   2.126   7.421   2.729  0.0408  1.7540  0.3382
41639SOL    HW242528   1.993   7.448   2.661 -0.2275  1.5578  0.7734
41640SOL     OW42529   1.080  13.086  10.072 -0.3168  0.1836  0.8321
41640SOL    HW142530   0.992  13.100  10.037 -0.4371  1.3269  1.5482
41640SOL    HW242531   1.137  13.094   9.996 -0.8981 -2.3005  0.0111
41641SOL     OW42532   5.592  12.763   3.389  0.5269 -0.8834  0.4793
41641SOL    HW142533   5.501  12.782   3.367 -0.0742 -2.4864  1.3621
41641SOL    HW242534   5.632  12.735   3.306  1.0926  2.5525 -0.5615
41642SOL     OW42535   0.124   4.768   3.031  0.0553  0.3656 -0.3706
41642SOL    HW142536   0.031   4.766   3.008  0.3273  0.0199 -1.5178
41642SOL    HW242537   0.167   4.719   2.960  0.9627 -0.6995  0.8663
41643SOL     OW42538   6.729  12.202   0.203 -0.2046 -0.5098  0.1949
41643SOL    HW142539   6.705  12.110   0.193  0.0219 -0.4773 -0.7663
41643SOL    HW242540   6.747  12.232   0.113  0.9642  0.1289  0.6184
41644SOL     OW42541  13.387   7.875   8.881  0.1984 -0.1308  0.1046
41644SOL    HW142542  13.377   7.781   8.901  0.3227  0.3175  2.5913
41644SOL    HW242543  13.445   7.877   8.806  0.3728 -2.0588  0.1266
41645SOL     OW42544   2.447  10.710   2.760  0.3161 -0.0777 -0.1810
41645SOL    HW142545   2.390  10.767   2.710  0.2637 -1.8769 -2.3268
41645SOL    HW242546   2.498  10.769   2.816 -3.3138  1.6566  1.6351
41646SOL     OW42547   3.186   9.274  13.095 -0.4783 -0.0086 -0.4761
41646SOL    HW142548   3.266   9.280  13.147 -0.6777  1.5511 -0.3142
41646SOL    HW242549   3.178   9.181  13.075 -1.8384 -1.3634  4.6566
41647SOL     OW42550   8.730   1.484   3.936 -0.4949  0.4169  0.0643
41647SOL    HW142551   8.721   1.393   3.966  3.0519 -0.4989 -1.1908
41647SOL    HW242552   8.761   1.532   4.013 -1.5115  0.4345  0.4884
41648SOL     OW42553  11.363  12.130   3.805  0.3488 -0.9225 -0.2461
41648SOL    HW142554  11.367  12.224   3.822 -0.6302 -0.6836 -1.2462
41648SOL    HW242555  11.401  12.090   3.884 -1.1273  0.2272  1.1113
41649SOL     OW42556   0.010   2.700   3.770  0.2235  0.2840 -0.7600
41649SOL    HW142557   0.063   2.754   3.829 -1.2503  0.5342  0.4211
41649SOL    HW242558   0.040   2.610   3.786  0.1858  0.3992  0.0325
41650SOL     OW42559   3.514   2.286  11.731  0.3401  0.0007  0.8472
41650SOL    HW142560   3.420   2.269  11.738  0.3160 -1.4046 -1.5727
41650SOL    HW242561   3.555   2.214  11.779  0.1803  0.0323  1.0316
41651SOL     OW42562   9.718   9.942   2.918 -0.2350 -0.2732  0.1730
41651SOL    HW142563   9.781   9.871   2.906  0.0636 -0.0545  0.4495
41651SOL    HW242564   9.682   9.927   3.006 -1.7833 -1.3690 -0.5815
41652SOL     OW42565   0.316  12.697   8.179 -0.2896 -0.3272 -0.3207
41652SOL    HW142566   0.291  12.720   8.269 -0.1655  1.5209 -0.7246
41652SOL    HW242567   0.234  12.703   8.129 -0.8570 -3.5971 -0.0043
41653SOL     OW42568   9.922  11.464   6.794  0.1742 -0.0366  0.3130
41653SOL    HW142569   9.846  11.416   6.826  1.1294 -1.9965 -0.2553
41653SOL    HW242570   9.890  11.512   6.718 -0.2270 -2.0074 -0.8309
41654SOL     OW42571  10.702   5.110   6.299  0.1138 -0.4230  0.2389
41654SOL    HW142572  10.666   5.166   6.368 -0.7015 -0.0820 -0.4439
41654SOL    HW242573  10.665   5.145   6.218  0.4362 -1.2960 -0.2981
41655SOL     OW42574   5.848   6.991   0.260  0.4612 -0.2192  0.8517
41655SOL    HW142575   5.900   7.069   0.282  2.2806 -1.0809 -0.2292
41655SOL    HW242576   5.778   7.025   0.204  2.1757  0.4861 -0.9907
41656SOL     OW42577   3.989   8.653   7.441 -0.8636  0.0639  0.2394
41656SOL    HW142578   4.033   8.601   7.509  0.1243 -1.9889 -1.8267
41656SOL    HW242579   3.918   8.597   7.410 -1.1016  0.8265 -0.6291
41657SOL     OW42580   2.535   4.165   1.531 -0.9079  0.3851 -0.0764
41657SOL    HW142581   2.522   4.071   1.513  0.9063  0.0502  0.2350
41657SOL    HW242582   2.531   4.206   1.444  0.8354 -0.3309 -0.5377
41658SOL     OW42583   6.777   8.203   7.712  0.6315  0.0943 -0.2657
41658SOL    HW142584   6.734   8.130   7.668  0.3243  0.1724 -0.0965
41658SOL    HW242585   6.713   8.274   7.709  0.7999  0.2515 -0.1303
41659SOL     OW42586   3.120   4.201   6.903 -0.8687  0.2727 -0.3813
41659SOL    HW142587   3.028   4.205   6.879 -1.1679 -1.3598  0.3333
41659SOL    HW242588   3.150   4.117   6.868 -0.3579 -0.4196  1.5781
41660SOL     OW42589   7.188   4.261   0.024  0.4424 -0.0257 -0.8478
41660SOL    HW142590   7.250   4.307  -0.032  2.2742 -3.8000 -2.2175
41660SOL    HW242591   7.241   4.230   0.098 -0.8891  0.5316  0.4130
41661SOL     OW42592   0.863   3.440   7.736  0.6449  0.4689  0.3890
41661SOL    HW142593   0.897   3.421   7.824  0.2776  0.4015  0.5152
41661SOL    HW242594   0.779   3.395   7.732  0.2047  1.2819  0.3481
41662SOL     OW42595   5.740   0.460   5.478 -0.0850 -0.2163 -0.2835
41662SOL    HW142596   5.804   0.483   5.545  1.0949 -2.9451 -0.3702
41662SOL    HW242597   5.781   0.488   5.396 -0.4206  0.8325 -0.1137
41663SOL     OW42598  10.242   5.446   2.833  0.5902  0.1079  1.0666
41663SOL    HW142599  10.321   5.434   2.886  0.5910 -0.2100  0.9976
41663SOL    HW242600  10.266   5.512   2.769  1.2463 -0.9372  0.1904
41664SOL     OW42601  13.562   3.171   4.394  0.4434  0.6310  0.3847
41664SOL    HW142602  13.650   3.145   4.369  0.1880 -1.3435  1.2897
41664SOL    HW242603  13.565   3.176   4.490 -0.8728 -1.6268  0.6294
41665SOL     OW42604   4.477  11.489   4.729  0.2328  0.6321  0.8333
41665SOL    HW142605   4.556  11.490   4.675  0.2221  0.4479  0.8143
41665SOL    HW242606   4.509  11.508   4.818  0.2458  0.9683  0.7607
41666SOL     OW42607  12.624   2.800   2.234  0.3783  1.0682 -0.5563
41666SOL    HW142608  12.698   2.788   2.293 -0.7890  1.4174  1.0733
41666SOL    HW242609  12.590   2.887   2.257 -0.6956  0.7978 -1.0603
41667SOL     OW42610   1.884   1.578   0.650  0.1280  0.1860  0.0594
41667SOL    HW142611   1.907   1.561   0.559 -0.3331  1.6292 -0.3561
41667SOL    HW242612   1.966   1.603   0.692  0.6436 -1.9395  0.4634
41668SOL     OW42613  10.300   1.238   4.681  0.0887  0.0696  0.0440
41668SOL    HW142614  10.206   1.230   4.667 -0.2488  0.3069  1.8903
41668SOL    HW242615  10.339   1.213   4.597 -1.5306 -1.8205 -0.2267
41669SOL     OW42616   1.672  10.642   5.116 -0.1108  0.2161 -0.5641
41669SOL    HW142617   1.673  10.587   5.195  2.7155 -3.5300 -2.8288
41669SOL    HW242618   1.607  10.601   5.059 -0.0396  1.0582 -1.2724
41670SOL     OW42619   6.070   6.797   0.252  0.2294 -0.2486  0.5886
41670SOL    HW142620   5.990   6.845   0.230  0.4991  0.2975  0.7917
41670SOL    HW242621   6.043   6.738   0.323 -0.0134 -0.1085  0.6165
41671SOL     OW42622  12.662  11.228  10.641 -0.5803  0.0141  0.1789
41671SOL    HW142623  12.638  11.147  10.596 -0.1144  0.4889 -0.9398
41671SOL    HW242624  12.667  11.294  10.572 -0.0680  0.8092  0.9524
41672SOL     OW42625   2.069  10.196  13.722  0.6796  0.0952 -0.1346
41672SOL    HW142626   2.066  10.291  13.733  1.2863  0.1623 -0.4885
41672SOL    HW242627   1.998  10.163  13.778  1.7989  0.6089  1.6811
41673SOL     OW42628  11.458   8.260  13.124 -0.3525  0.5218  0.0232
41673SOL    HW142629  11.375   8.221  13.149  0.3655 -2.0673 -1.3716
41673SOL    HW242630  11.519   8.187  13.117  1.1367  1.8455 -2.6441
41674SOL     OW42631   8.886   3.585   2.227 -0.4197 -0.1018  0.1751
41674SOL    HW142632   8.978   3.577   2.251  0.1356 -2.5132 -2.3418
41674SOL    HW242633   8.845   3.506   2.262 -1.5863  0.8869  1.1680
41675SOL     OW42634   2.137   0.093  11.225 -0.0689  0.3270  0.4089
41675SOL    HW142635   2.044   0.070  11.231  0.3094 -1.7574 -0.7585
41675SOL    HW242636   2.170   0.040  11.153  2.5884 -0.9150  2.3878
41676SOL     OW42637   9.645   8.727   4.101 -0.0985  0.3950 -0.2840
41676SOL    HW142638   9.666   8.659   4.037  1.0040  0.6475 -0.2179
41676SOL    HW242639   9.711   8.795   4.086 -0.1001  0.6658  0.8084
41677SOL     OW42640   8.300  13.329   9.710  0.2731 -0.2983 -0.0607
41677SOL    HW142641   8.307  13.325   9.615  0.2358  0.4251 -0.1007
41677SOL    HW242642   8.390  13.335   9.741  0.2916 -0.6604 -0.0424
41678SOL     OW42643  13.235   5.114   9.422  0.1171 -0.3616 -0.6224
41678SOL    HW142644  13.292   5.162   9.363  0.1870 -0.7454 -0.8696
41678SOL    HW242645  13.222   5.173   9.496  0.2277  0.0229 -0.9077
41679SOL     OW42646   6.917   1.912  12.722  0.1786  0.0359  0.5581
41679SOL    HW142647   6.881   1.823  12.718 -0.5162  0.3314  0.1128
41679SOL    HW242648   6.856   1.959  12.780  1.1393 -0.0419  1.6704
41680SOL     OW42649   9.477   7.088   0.897 -0.3240  0.1281  0.6493
41680SOL    HW142650   9.403   7.110   0.953 -1.1760 -0.2728 -0.2854
41680SOL    HW242651   9.483   6.993   0.900  0.0490  0.1444  0.5818
41681SOL     OW42652   3.082   2.076  10.788  0.1384  0.9418 -0.0776
41681SOL    HW142653   3.123   1.992  10.807  0.5666  0.7607 -1.6897
41681SOL    HW242654   3.046   2.104  10.872  0.5615 -0.5293  0.6319
41682SOL     OW42655  12.021   5.438   0.864 -0.0007  0.6920 -0.4300
41682SOL    HW142656  12.051   5.442   0.955 -0.4631 -0.5773 -0.1976
41682SOL    HW242657  12.098   5.462   0.812  0.2133  1.6477  0.2841
41683SOL     OW42658  11.864   0.724   8.641 -0.5919  0.1444 -0.3440
41683SOL    HW142659  11.912   0.674   8.575  0.2387  0.8414 -0.2889
41683SOL    HW242660  11.778   0.740   8.601 -0.0082  0.8007 -1.3935
41684SOL     OW42661   8.565   9.107   1.893 -0.1354 -0.5351  0.5082
41684SOL    HW142662   8.647   9.070   1.926 -0.2655 -1.1017  0.2166
41684SOL    HW242663   8.587   9.196   1.866  0.2244 -0.4513  1.0780
41685SOL     OW42664   3.578   7.087  12.566 -0.2208  0.4414 -0.3464
41685SOL    HW142665   3.560   7.006  12.517  1.3818  0.5985 -1.2643
41685SOL    HW242666   3.491   7.121  12.587 -0.9540 -1.6192  0.2807
41686SOL     OW42667   1.778   5.221   7.333 -0.6045  0.0001  0.1901
41686SOL    HW142668   1.763   5.141   7.384 -2.1545 -0.6612 -1.2345
41686SOL    HW242669   1.846   5.197   7.270  0.0325  0.2959  0.7440
41687SOL     OW42670   0.651   2.046   6.654  0.2160 -0.2672  0.2498
41687SOL    HW142671   0.722   1.984   6.635  1.2993  0.5739  1.3518
41687SOL    HW242672   0.581   1.992   6.689  0.9961 -0.9327  0.8219
41688SOL     OW42673  11.204   0.177   1.925  0.3019  0.5306  0.7852
41688SOL    HW142674  11.229   0.198   1.835 -0.3224  0.5006  0.6007
41688SOL    HW242675  11.265   0.108   1.951 -0.8551 -0.9704 -0.3488
41689SOL     OW42676  11.766   7.695   8.288 -0.3897 -0.2743 -0.1288
41689SOL    HW142677  11.689   7.740   8.253 -0.5756 -1.3095 -1.1241
41689SOL    HW242678  11.827   7.693   8.214  0.4106  0.1151  0.5102
41690SOL     OW42679  13.310   8.248   9.993  0.1751  0.5697 -0.1283
41690SOL    HW142680  13.378   8.201  10.040  0.0213  0.4049 -0.0714
41690SOL    HW242681  13.259   8.181   9.948  0.5962  0.7585 -0.9012
41691SOL     OW42682  10.443   9.538   9.909 -0.7222 -0.3180  0.0460
41691SOL    HW142683  10.362   9.497   9.879 -0.3431 -1.8905  1.0674
41691SOL    HW242684  10.512   9.497   9.857 -0.3648 -0.8061  0.8794
41692SOL     OW42685   5.676   9.013   5.858 -0.3786  0.1815 -0.1492
41692SOL    HW142686   5.603   8.960   5.824  1.6083 -2.1038 -1.1862
41692SOL    HW242687   5.696   8.974   5.943  0.1744  0.2008 -0.2690
41693SOL     OW42688  13.872   7.192   9.077 -0.1550  0.5783 -0.3491
41693SOL    HW142689  13.798   7.237   9.117 -0.2963 -0.7813  1.0079
41693SOL    HW242690  13.939   7.260   9.069 -1.5177  1.8432 -1.6525
41694SOL     OW42691   0.070  10.034   2.632 -0.1862 -0.2080  0.4435
41694SOL    HW142692   0.001  10.100   2.620 -0.0839 -0.3581 -1.2031
41694SOL    HW242693   0.120  10.037   2.550 -0.8780 -3.1386 -0.1977
41695SOL     OW42694  11.358   1.292  10.458 -0.1081 -0.1839  0.4675
41695SOL    HW142695  11.301   1.290  10.381 -0.4504  0.4250  0.7091
41695SOL    HW242696  11.299   1.283  10.532  0.0599  0.8887  0.7402
41696SOL     OW42697   4.162   8.214   6.335  0.0292  0.9418 -0.2192
41696SOL    HW142698   4.113   8.207   6.417  0.6102  1.4123  0.1742
41696SOL    HW242699   4.244   8.256   6.359  0.0249  1.5002 -1.1192
41697SOL     OW42700   8.539   6.580   3.238  0.0517  0.2897 -0.0901
41697SOL    HW142701   8.624   6.572   3.281  0.5371  3.1711 -0.3097
41697SOL    HW242702   8.529   6.499   3.188  2.3547 -0.3830  0.4416
41698SOL     OW42703   2.660   9.344   1.022 -0.5134  0.5384 -0.1851
41698SOL    HW142704   2.622   9.357   1.109  1.2629  0.0450  0.7101
41698SOL    HW242705   2.635   9.255   0.997 -0.2294  0.3403  0.2389
41699SOL     OW42706   3.331  10.217   8.825 -0.2113 -0.7889  0.1232
41699SOL    HW142707   3.370  10.130   8.822 -0.9427 -1.1340  0.3682
41699SOL    HW242708   3.269  10.213   8.898  0.3387  0.1951  0.6805
41700SOL     OW42709  13.533  12.411   3.538 -0.0054 -0.4482  0.1413
41700SOL    HW142710  13.454  12.377   3.496 -0.5038  0.0298  0.6651
41700SOL    HW242711  13.602  12.399   3.473 -0.6617 -0.1660 -0.6270
41701SOL     OW42712   4.512   2.878   4.964  0.2552 -0.0800  0.0936
41701SOL    HW142713   4.593   2.845   4.924 -0.0327 -0.3372 -0.2799
41701SOL    HW242714   4.488   2.954   4.912 -1.0639 -1.4066 -1.3691
41702SOL     OW42715   9.619  14.030  11.004 -0.0854 -0.0680 -0.2771
41702SOL    HW142716   9.623  14.097  10.936  0.4659  1.1250  0.9058
41702SOL    HW242717   9.710  14.014  11.029 -0.3572  1.2677  1.8203
41703SOL     OW42718  10.303   8.630   3.723  0.2398  0.2503 -0.2304
41703SOL    HW142719  10.289   8.549   3.674 -0.0018 -0.0235  0.2843
41703SOL    HW242720  10.215   8.667   3.734  0.5292  1.8840 -2.6139
41704SOL     OW42721   2.787   2.353  13.984  0.4570  0.0956  0.1735
41704SOL    HW142722   2.751   2.301  14.056 -1.2789  1.0502  0.0503
41704SOL    HW242723   2.713   2.368  13.926  0.8465  2.6830  0.2105
41705SOL     OW42724   1.289  11.462   4.889 -0.5860  0.0756  0.3529
41705SOL    HW142725   1.237  11.528   4.935 -1.8207  0.4334 -1.4727
41705SOL    HW242726   1.227  11.392   4.868 -0.4195  0.5303 -1.8934
41706SOL     OW42727  12.799   1.506   3.835 -0.0001 -0.3054  0.2333
41706SOL    HW142728  12.889   1.505   3.802 -0.3651 -1.7527 -0.8325
41706SOL    HW242729  12.746   1.525   3.758 -0.7051 -0.9270  0.5618
41707SOL     OW42730  13.563  11.759   9.350  0.0621 -0.2176 -0.7440
41707SOL    HW142731  13.508  11.685   9.373  0.8404 -1.0208 -1.4182
41707SOL    HW242732  13.598  11.737   9.264  1.9383 -0.0312 -0.0688
41708SOL     OW42733   2.619   9.565  14.003 -0.2046 -0.4023 -0.0991
41708SOL    HW142734   2.530   9.599  14.013 -0.2970 -0.5300 -0.4688
41708SOL    HW242735   2.616   9.513  13.923  0.3319 -0.0048 -0.3783
41709SOL     OW42736  12.997   4.708   6.947  0.0705  0.1933 -0.1730
41709SOL    HW142737  12.982   4.776   7.013 -0.0871 -1.2115  1.2736
41709SOL    HW242738  12.962   4.746   6.866  1.3457  2.4263  0.2456
41710SOL     OW42739  11.627   5.488   0.985  0.0577  0.6781 -0.8920
41710SOL    HW142740  11.656   5.579   0.975  0.1718  0.6850 -0.5198
41710SOL    HW242741  11.668   5.441   0.913 -0.7929  1.1023 -1.6734
41711SOL     OW42742   1.547   6.719   4.357  0.0280  0.5205  0.2950
41711SOL    HW142743   1.525   6.809   4.380  1.4664  1.0503 -0.3001
41711SOL    HW242744   1.513   6.666   4.429 -2.6085  1.2969 -0.2661
41712SOL     OW42745   4.003   9.588   7.040  0.4282  0.8536 -0.3365
41712SOL    HW142746   4.024   9.628   7.125  0.8174  0.3659 -0.1979
41712SOL    HW242747   4.085   9.590   6.992  0.6279 -0.3457 -0.0918
41713SOL     OW42748   7.233   1.748  10.910 -0.0911  0.5452 -0.0454
41713SOL    HW142749   7.226   1.722  11.002 -0.0745  2.0841  0.4163
41713SOL    HW242750   7.166   1.815  10.898 -0.5773 -0.1351 -1.3631
41714SOL     OW42751   3.834   3.638   5.263  0.3416 -0.5085  0.2716
41714SOL    HW142752   3.751   3.646   5.215 -0.0400 -0.7182  0.8790
41714SOL    HW242753   3.901   3.654   5.198 -0.1864 -0.1648 -0.1988
41715SOL     OW42754  10.278   4.764   4.553 -0.0658 -0.4675  0.2400
41715SOL    HW142755  10.271   4.853   4.588 -1.1620 -0.3260 -0.2734
41715SOL    HW242756  10.359   4.764   4.502  0.0765  0.1577  0.4639
41716SOL     OW42757   4.374   0.547   3.927 -0.1870 -0.3417 -0.0562
41716SOL    HW142758   4.346   0.553   3.835  0.1776 -0.0293 -0.1485
41716SOL    HW242759   4.335   0.465   3.958 -0.9798 -0.0581 -0.2621
41717SOL     OW42760   5.388  11.995   0.680  0.0195  0.3971 -0.1463
41717SOL    HW142761   5.303  11.953   0.693 -0.5145  1.4709 -0.0948
41717SOL    HW242762   5.416  12.020   0.768  0.4534 -0.0594 -0.1488
41718SOL     OW42763  13.755   3.104   2.773  0.2522  0.0950 -0.3844
41718SOL    HW142764  13.810   3.026   2.776  1.0751  0.6713  0.0708
41718SOL    HW242765  13.731   3.112   2.681  0.3742 -0.5429 -0.4788
41719SOL     OW42766   5.466   2.254  10.898 -0.5688  0.4073 -0.1585
41719SOL    HW142767   5.451   2.265  10.804  0.6093 -0.6344 -0.4979
41719SOL    HW242768   5.479   2.160  10.909 -0.7001  0.5167  1.0564
41720SOL     OW42769  11.963   7.977   0.478 -0.9848 -0.1836 -0.5121
41720SOL    HW142770  11.910   7.931   0.412 -1.9034  0.0130  0.0633
41720SOL    HW242771  11.906   7.982   0.554 -0.2425  0.3461  0.0200
41721SOL     OW42772   8.618   7.073  12.572  0.0262  0.1882 -0.3976
41721SOL    HW142773   8.549   7.017  12.607 -0.8595  1.4978  0.0065
41721SOL    HW242774   8.691   7.013  12.555 -0.9172 -1.0902 -0.0675
41722SOL     OW42775   7.956  12.749   0.708  0.6853  0.6245  0.2841
41722SOL    HW142776   8.016  12.749   0.633  1.6426  1.4037  1.0224
41722SOL    HW242777   7.875  12.788   0.673  0.1131 -1.5645 -1.0461
41723SOL     OW42778   6.156   0.661   4.876  0.1393 -0.0042 -0.1747
41723SOL    HW142779   6.232   0.618   4.837  1.5235 -0.3632  2.6791
41723SOL    HW242780   6.081   0.611   4.843  1.2200 -0.7208 -1.6968
41724SOL     OW42781   5.894   9.985   0.532  0.0688 -0.1448  0.6311
41724SOL    HW142782   5.874  10.028   0.615 -0.5424 -1.9044  1.4334
41724SOL    HW242783   5.949  10.048   0.485 -0.1939  1.1910  2.0392
41725SOL     OW42784   2.703  11.861   7.281 -0.6109 -0.0535  0.4469
41725SOL    HW142785   2.662  11.948   7.285  0.5179  0.4750  1.3838
41725SOL    HW242786   2.749  11.860   7.197 -0.2166  0.4621  0.6519
41726SOL     OW42787  11.174   5.526   5.317  0.0678  0.3256 -0.1287
41726SOL    HW142788  11.269   5.536   5.313  0.2754 -1.5718 -1.3544
41726SOL    HW242789  11.146   5.590   5.383  2.4116 -0.4950  1.8142
41727SOL     OW42790   7.751  12.564   1.473  0.0655  0.1568 -0.4969
41727SOL    HW142791   7.768  12.616   1.552 -1.0666  1.6265 -1.1561
41727SOL    HW242792   7.760  12.473   1.501 -2.9130  0.4595  2.0752
41728SOL     OW42793   3.023   3.033  13.887  0.2001  0.3334  0.4038
41728SOL    HW142794   2.939   3.078  13.897  0.5785  1.1488 -0.0019
41728SOL    HW242795   3.043   3.001  13.975 -0.3827  0.3981  0.5670
41729SOL     OW42796   8.157   1.007   3.490 -0.5363  0.0347 -0.7805
41729SOL    HW142797   8.236   1.058   3.475 -1.0148  1.2807  0.6326
41729SOL    HW242798   8.098   1.068   3.535 -1.2409 -1.6771  0.7355
41730SOL     OW42799  11.505   3.258   4.828  0.3446  0.3861 -0.2024
41730SOL    HW142800  11.447   3.246   4.753  0.4968 -0.6335 -0.1689
41730SOL    HW242801  11.589   3.284   4.789  1.3945 -3.2771 -0.7202
41731SOL     OW42802   1.030   6.563   5.624 -0.3196  0.2065  0.0254
41731SOL    HW142803   1.089   6.584   5.551 -0.6916 -1.1492 -0.7211
41731SOL    HW242804   1.082   6.576   5.702  0.4513  0.6156 -0.5440
41732SOL     OW42805   7.906   1.118  11.108 -0.2586  0.3582 -0.0068
41732SOL    HW142806   7.983   1.061  11.108  0.3696  1.1716  0.6764
41732SOL    HW242807   7.868   1.108  11.021  1.1350  0.5919 -0.6627
41733SOL     OW42808  13.196  11.219   4.579 -0.0598  0.1163 -0.2787
41733SOL    HW142809  13.148  11.190   4.657  0.9907 -0.6784  0.0940
41733SOL    HW242810  13.173  11.154   4.512 -0.5594  0.5111 -0.5012
41734SOL     OW42811  12.043  11.858  13.600  0.4908  0.3703  0.2663
41734SOL    HW142812  12.115  11.824  13.653 -1.0776 -1.7778  1.1686
41734SOL    HW242813  12.046  11.953  13.612  1.8519  0.1434  1.9876
41735SOL     OW42814   6.528   2.162   4.104  0.0095 -0.2979 -0.5790
41735SOL    HW142815   6.552   2.203   4.021 -1.5257  0.7859 -0.5199
41735SOL    HW242816   6.612   2.134   4.142  0.7200 -1.2084 -2.6508
41736SOL     OW42817   0.191   6.140   8.167 -0.3939  0.9989  0.0719
41736SOL    HW142818   0.220   6.081   8.098  4.4077  1.6535  1.2024
41736SOL    HW242819   0.184   6.225   8.124 -1.5447  0.6945 -0.3746
41737SOL     OW42820   9.679   0.767   0.145 -0.7876  0.3187  0.0177
41737SOL    HW142821   9.632   0.845   0.175 -0.3081  0.6764 -0.1413
41737SOL    HW242822   9.690   0.714   0.224 -3.1572 -0.7048 -0.2755
41738SOL     OW42823   7.221  13.446  12.177  0.3971 -0.4672 -0.2511
41738SOL    HW142824   7.200  13.383  12.108 -0.8676 -1.2016  0.7724
41738SOL    HW242825   7.286  13.402  12.231 -0.4878 -0.9283  0.4648
41739SOL     OW42826   2.404   4.420   6.495 -0.1020  0.3054 -0.3475
41739SOL    HW142827   2.412   4.458   6.407 -0.1664 -2.9876 -1.9061
41739SOL    HW242828   2.486   4.373   6.509 -0.0273  0.8929  1.4785
41740SOL     OW42829  11.587   6.890   7.788 -0.1651  0.2613 -0.4185
41740SOL    HW142830  11.507   6.935   7.761  0.2592  0.0177 -2.2666
41740SOL    HW242831  11.594   6.905   7.882 -2.4426  0.1815 -0.1869
41741SOL     OW42832  13.004   8.884   2.939 -0.0264 -0.5347 -0.1044
41741SOL    HW142833  13.054   8.903   3.018  1.5985  0.7358 -1.3550
41741SOL    HW242834  12.916   8.917   2.957 -0.0117 -1.3188  1.5624
41742SOL     OW42835  11.241  13.373   0.066 -0.0003  0.2439  0.0322
41742SOL    HW142836  11.274  13.284   0.054  0.3878  0.3336  0.4032
41742SOL    HW242837  11.289  13.406   0.142 -1.6483  0.0378  1.2257
41743SOL     OW42838   4.588   8.571   0.951  0.3956  0.2662 -0.2447
41743SOL    HW142839   4.549   8.656   0.933 -0.0357 -0.2302 -1.8851
41743SOL    HW242840   4.583   8.561   1.046 -1.5033  1.1522 -0.2154
41744SOL     OW42841  11.452   0.807  10.932 -0.3050 -0.0132 -0.1523
41744SOL    HW142842  11.385   0.808  10.864 -0.6417  0.0398  0.1739
41744SOL    HW242843  11.531   0.841  10.889 -0.2461 -0.9060 -0.7791
41745SOL     OW42844   3.122   1.275   1.428 -0.4034  0.1208 -0.5000
41745SOL    HW142845   3.178   1.263   1.504 -0.6076  1.5483 -0.0926
41745SOL    HW242846   3.056   1.205   1.435  1.0314 -1.3175 -0.7711
41746SOL     OW42847  10.347  10.533   5.427  0.1902 -0.2778 -0.2640
41746SOL    HW142848  10.267  10.544   5.376 -0.6178  0.4025  1.0968
41746SOL    HW242849  10.384  10.451   5.395 -1.1136 -0.6765 -0.8387
41747SOL     OW42850  10.754  12.279  12.305  0.0289 -0.2524  0.4105
41747SOL    HW142851  10.703  12.204  12.275  0.2705 -0.6674  1.0294
41747SOL    HW242852  10.690  12.335  12.349 -0.0254 -0.4363  0.5681
41748SOL     OW42853   6.140  10.782   9.824 -0.6413  0.3713 -0.3261
41748SOL    HW142854   6.070  10.742   9.875 -1.5133 -0.2294 -1.9178
41748SOL    HW242855   6.137  10.737   9.740  0.6011  1.4690 -0.9964
41749SOL     OW42856   1.839   9.807  10.243 -0.5174  0.0393 -0.1804
41749SOL    HW142857   1.911   9.807  10.181  0.2021  0.8610  0.6237
41749SOL    HW242858   1.761   9.817  10.189  0.0039 -0.3198 -1.0219
41750SOL     OW42859   1.386   5.468   0.341  0.2226 -0.1810  0.5946
41750SOL    HW142860   1.296   5.496   0.354 -0.1658 -0.9365 -0.3505
41750SOL    HW242861   1.382   5.373   0.337  1.2007 -0.2802  1.4672
41751SOL     OW42862   9.183   3.533   7.246  0.3795 -0.0600 -0.4220
41751SOL    HW142863   9.119   3.540   7.317  0.5274 -1.0222 -0.1894
41751SOL    HW242864   9.130   3.540   7.166  0.0467 -0.3239 -0.2283
41752SOL     OW42865  13.965   3.002   5.595  0.0985 -0.4080  0.2643
41752SOL    HW142866  13.964   3.084   5.545 -0.0591 -0.5095  0.0992
41752SOL    HW242867  13.906   3.019   5.668 -0.8068 -0.7381 -0.3676
41753SOL     OW42868   0.432  10.008   2.345  0.1209  0.6263  0.3027
41753SOL    HW142869   0.421  10.040   2.256  1.8578  0.5238  0.0267
41753SOL    HW242870   0.470   9.921   2.335 -0.1068  0.4203  1.1399
41754SOL     OW42871   1.021  11.968   8.791  0.0721 -0.5434 -0.0195
41754SOL    HW142872   0.999  11.878   8.815 -0.3671 -0.5137 -0.2927
41754SOL    HW242873   1.114  11.976   8.809  0.8529 -2.0033 -2.8932
41755SOL     OW42874   2.767   2.893  10.674 -0.6937  0.4950  0.1476
41755SOL    HW142875   2.685   2.855  10.642  0.3060  0.2987 -2.4760
41755SOL    HW242876   2.802   2.828  10.734 -0.2332 -1.7168 -2.3160
41756SOL     OW42877   1.500   3.889   3.643 -0.2966  0.5616  0.0021
41756SOL    HW142878   1.491   3.806   3.596 -0.6634 -0.3191  1.5660
41756SOL    HW242879   1.425   3.942   3.615 -1.0122 -0.2939  0.2766
41757SOL     OW42880   8.377   2.544   6.721 -0.0893 -0.3334 -0.2617
41757SOL    HW142881   8.428   2.549   6.640  0.0002 -0.9890 -0.2472
41757SOL    HW242882   8.439   2.568   6.789 -0.3023  0.7506 -0.4314
41758SOL     OW42883   1.043   8.983   0.247  0.6889  0.3448 -0.1578
41758SOL    HW142884   1.133   9.018   0.249  0.5399  0.6995  0.9570
41758SOL    HW242885   1.015   8.983   0.339 -0.2478 -0.3155 -0.4279
41759SOL     OW42886   9.758   1.336   6.767 -0.4203  0.2621 -0.0739
41759SOL    HW142887   9.679   1.282   6.764 -0.9888  0.9844  1.3480
41759SOL    HW242888   9.809   1.301   6.841 -0.2966  0.9902  0.1923
41760SOL     OW42889   3.110   7.306   3.562 -1.0665 -0.2873 -0.0928
41760SOL    HW142890   3.137   7.378   3.505  2.6872  0.0146  1.7546
41760SOL    HW242891   3.158   7.229   3.529 -0.1964 -0.4825  1.5001
41761SOL     OW42892   1.695   1.667   6.517 -0.3847 -0.5361 -0.2638
41761SOL    HW142893   1.684   1.626   6.431 -1.2407 -1.6494  0.3540
41761SOL    HW242894   1.607   1.666   6.555  0.2400 -1.4028  1.2180
41762SOL     OW42895   3.817   3.857   7.531 -0.2440  0.1663 -0.4673
41762SOL    HW142896   3.736   3.834   7.485 -0.6755  2.6402 -1.1032
41762SOL    HW242897   3.869   3.903   7.465  0.4791  1.0172  0.6757
41763SOL     OW42898   2.838   6.897  12.808 -0.4084 -0.3354 -0.3584
41763SOL    HW142899   2.794   6.843  12.742 -0.1972  0.8108 -1.4672
41763SOL    HW242900   2.770   6.956  12.840 -1.0873 -2.3024  2.1029
41764SOL     OW42901  11.634   0.907   0.040 -0.1290 -0.3821  0.5206
41764SOL    HW142902  11.598   0.845   0.103 -1.5624  0.0671  0.1937
41764SOL    HW242903  11.572   0.980   0.041  0.7405  0.3932 -0.1694
41765SOL     OW42904  12.062   5.243   5.946  0.5104 -0.0961  0.0113
41765SOL    HW142905  12.074   5.190   5.867 -1.0621  0.2789 -0.5067
41765SOL    HW242906  12.078   5.333   5.917 -0.0308  0.0380  0.1201
41766SOL     OW42907  11.173  11.674   8.659  0.1869  0.0656  0.4811
41766SOL    HW142908  11.216  11.618   8.594 -0.9444 -0.6474  0.3137
41766SOL    HW242909  11.146  11.751   8.609 -1.4166 -0.8413 -0.1380
41767SOL     OW42910   1.788   5.039   3.798 -0.0964 -1.2323  0.1704
41767SOL    HW142911   1.743   5.006   3.875 -2.0582 -0.6353 -0.6596
41767SOL    HW242912   1.721   5.043   3.730  1.0587  0.3237 -0.9639
41768SOL     OW42913   5.859   3.089   5.496 -0.1712  0.3462  0.3174
41768SOL    HW142914   5.887   3.060   5.409 -1.9540  0.5292 -0.3493
41768SOL    HW242915   5.813   3.013   5.532  1.2451 -0.0251  1.4914
41769SOL     OW42916   2.593   0.651   8.777 -0.0683 -0.3287 -0.1984
41769SOL    HW142917   2.579   0.731   8.829 -1.7895  0.2582 -1.4628
41769SOL    HW242918   2.665   0.606   8.822  0.5359  1.6073  0.9243
41770SOL     OW42919  12.030   0.782   5.833 -0.2194  0.0852  0.2917
41770SOL    HW142920  12.062   0.703   5.877 -0.6089  0.8311  2.0310
41770SOL    HW242921  11.956   0.811   5.888 -1.1997  0.7030 -1.2824
41771SOL     OW42922   0.813  12.356  11.594  0.1900 -0.7935  0.0406
41771SOL    HW142923   0.894  12.335  11.547  0.6178 -1.2354  0.9604
41771SOL    HW242924   0.805  12.288  11.661 -0.3573 -0.1238  0.6745
41772SOL     OW42925   0.004  11.923   7.085 -0.4136  0.0057  0.2198
41772SOL    HW142926  -0.003  11.996   7.146 -2.2303 -1.1935  1.5629
41772SOL    HW242927   0.089  11.934   7.042  0.1653  1.8290  1.7434
41773SOL     OW42928  12.690   5.002  10.642  0.6257 -0.2130 -0.2690
41773SOL    HW142929  12.598   5.000  10.670  0.7183  2.3723  0.4494
41773SOL    HW242930  12.686   5.027  10.549  0.6075  1.1347  0.0783
41774SOL     OW42931   6.852   2.785   6.212  0.1894 -0.1077  0.4328
41774SOL    HW142932   6.921   2.831   6.260 -0.9548  1.1300  0.9421
41774SOL    HW242933   6.775   2.791   6.268 -1.0240  0.8357 -1.2474
41775SOL     OW42934   5.700  11.202   9.673  0.4830  0.0251  0.1042
41775SOL    HW142935   5.777  11.163   9.714  0.5200  2.3515  2.5376
41775SOL    HW242936   5.735  11.253   9.600  1.1742  0.2472  0.5750
41776SOL     OW42937   9.479   0.027  11.594 -0.0321 -0.3341 -0.2014
41776SOL    HW142938   9.472  -0.003  11.685 -0.5662 -2.2827 -0.8491
41776SOL    HW242939   9.441   0.115  11.595 -1.2949 -0.8528  1.2030
41777SOL     OW42940   5.098  11.752  11.112  0.3131 -0.2226  0.3839
41777SOL    HW142941   5.139  11.787  11.190  2.0673 -2.3006  0.4945
41777SOL    HW242942   5.061  11.668  11.140 -1.6443  0.3063 -0.3880
41778SOL     OW42943   3.130  11.429   2.777  0.2064  0.0480  0.5898
41778SOL    HW142944   3.196  11.451   2.842 -1.5328  1.3910  2.0098
41778SOL    HW242945   3.098  11.343   2.803 -1.1752  0.9801  2.2478
41779SOL     OW42946   5.874  11.598   0.600  0.3000 -0.0500  0.2461
41779SOL    HW142947   5.890  11.659   0.673 -0.1850  0.4307 -0.0378
41779SOL    HW242948   5.790  11.557   0.620 -0.8038  1.4895 -0.9498
41780SOL     OW42949   3.416  13.753   4.536  0.1714 -0.1072  0.3932
41780SOL    HW142950   3.429  13.826   4.475 -0.1887 -0.9455 -0.7258
41780SOL    HW242951   3.479  13.769   4.606  0.8172  0.7309 -0.3538
41781SOL     OW42952   8.228   2.343   8.031  0.0201  0.1290  0.6529
41781SOL    HW142953   8.218   2.437   8.014 -0.3734 -0.1672 -0.9630
41781SOL    HW242954   8.290   2.314   7.964 -1.5948 -1.1469 -0.3749
41782SOL     OW42955   7.463   1.316   2.372  0.0426  0.6615 -0.6346
41782SOL    HW142956   7.538   1.371   2.351  0.3623  0.1368 -0.8925
41782SOL    HW242957   7.401   1.330   2.299  0.9591 -0.8103 -1.7665
41783SOL     OW42958   4.740  10.603   5.816 -0.4993  0.0747  0.0334
41783SOL    HW142959   4.662  10.624   5.868 -1.6984 -1.3853 -1.1065
41783SOL    HW242960   4.741  10.508   5.813  2.1291 -0.0039  1.1345
41784SOL     OW42961   7.728   4.737  12.935 -0.0946 -0.3801  0.6118
41784SOL    HW142962   7.803   4.792  12.955 -1.6419  1.7195  0.9134
41784SOL    HW242963   7.717   4.683  13.013 -0.1630  0.8051  1.4473
41785SOL     OW42964   3.353   6.692   2.449  0.0934 -0.2358  0.6127
41785SOL    HW142965   3.305   6.772   2.469  0.3107 -0.0132  0.2729
41785SOL    HW242966   3.312   6.624   2.502 -1.7330 -0.4135 -0.9216
41786SOL     OW42967  13.120  10.615   2.996  0.3592  0.0985  0.1711
41786SOL    HW142968  13.214  10.615   3.016  0.3205 -0.3622  0.3666
41786SOL    HW242969  13.081  10.560   3.065 -0.2546  1.5421  1.0255
41787SOL     OW42970  12.656  11.890   0.298  0.3019 -0.7172 -0.1320
41787SOL    HW142971  12.693  11.802   0.295 -0.7249 -1.1844  0.4352
41787SOL    HW242972  12.647  11.915   0.206  1.0802 -0.9809 -0.2887
41788SOL     OW42973  13.738  11.707   3.235 -0.4394 -0.4055 -0.2097
41788SOL    HW142974  13.698  11.625   3.206 -0.5552 -0.3530 -0.1997
41788SOL    HW242975  13.832  11.692   3.227 -0.4572 -0.5705 -0.1243
41789SOL     OW42976   5.465   9.092   8.455  0.4854  0.3060  0.5698
41789SOL    HW142977   5.430   9.164   8.506  0.9354  2.0827 -1.4805
41789SOL    HW242978   5.397   9.024   8.459 -1.3362  2.0190  0.1170
41790SOL     OW42979   4.845  13.269   0.007  0.0869 -0.0136  0.2613
41790SOL    HW142980   4.765  13.306   0.044 -0.7207 -0.8590 -0.5934
41790SOL    HW242981   4.908  13.273   0.079 -1.2446 -0.9933  1.5584
41791SOL     OW42982  12.688   2.451   2.560 -0.1791 -0.4192 -0.0914
41791SOL    HW142983  12.634   2.387   2.605  0.7737 -0.0772  1.6243
41791SOL    HW242984  12.625   2.513   2.523 -1.0124 -0.6702  0.8435
41792SOL     OW42985   1.543   3.032   9.838  0.1470  0.2552  0.1887
41792SOL    HW142986   1.612   3.000   9.895 -0.4447  1.1643  1.4673
41792SOL    HW242987   1.467   2.978   9.859 -0.0460  0.5242  0.1908
41793SOL     OW42988   7.295  10.442   4.226 -0.0991 -0.0835 -0.2990
41793SOL    HW142989   7.203  10.464   4.214 -0.2641 -0.8227 -0.4503
41793SOL    HW242990   7.309  10.448   4.321  0.4879  2.9897 -0.4939
41794SOL     OW42991   9.736   6.347   6.054  0.3113 -0.2566 -0.1972
41794SOL    HW142992   9.661   6.403   6.077  1.3413  1.3204 -0.5256
41794SOL    HW242993   9.703   6.288   5.987 -0.3622  1.1614 -1.1434
41795SOL     OW42994   5.472   4.751   1.513 -0.0564 -0.0465  0.3300
41795SOL    HW142995   5.506   4.810   1.446 -0.5866  0.0679  0.1555
41795SOL    HW242996   5.453   4.808   1.587  0.5512 -0.1763  0.5899
41796SOL     OW42997   5.414   7.844   3.674  0.3527  0.1523 -0.2903
41796SOL    HW142998   5.432   7.778   3.741  0.0360 -0.7021 -1.0291
41796SOL    HW242999   5.326   7.877   3.696 -1.2992 -2.5944 -2.1952
41797SOL     OW43000   5.944  13.230   3.480 -0.5169  0.0771  0.6170
41797SOL    HW143001   5.941  13.183   3.396 -0.6125 -0.3265  0.8446
41797SOL    HW243002   5.860  13.275   3.485 -0.5759 -0.0265  0.5689
41798SOL     OW43003   8.595   5.216   6.846  0.5824  0.0301  0.2008
41798SOL    HW143004   8.606   5.236   6.753 -0.1959 -0.2114  0.0465
41798SOL    HW243005   8.623   5.296   6.891  2.4224 -0.3609 -0.1456
41799SOL     OW43006   9.195   3.303   8.773 -0.3261  0.4027  0.4493
41799SOL    HW143007   9.249   3.252   8.714 -1.1830  1.3736 -1.2351
41799SOL    HW243008   9.242   3.386   8.784 -0.4225  0.4212  0.7485
41800SOL     OW43009  11.278   8.947   3.879  0.0006 -0.1184  0.2871
41800SOL    HW143010  11.232   8.885   3.935 -0.2743 -2.3435 -2.1684
41800SOL    HW243011  11.211   9.012   3.855 -1.0488 -1.5022 -0.7007
41801SOL     OW43012   0.128   3.059   4.728  0.2085 -0.2624  0.1904
41801SOL    HW143013   0.088   3.145   4.718  1.7034  0.2617 -1.8179
41801SOL    HW243014   0.074   3.001   4.674 -0.0261 -0.3263  0.4910
41802SOL     OW43015   4.971   0.396   9.982 -0.0193 -0.5270 -0.7381
41802SOL    HW143016   5.018   0.314   9.963 -2.1070 -1.9779  0.0057
41802SOL    HW243017   5.037   0.452  10.023  1.3151 -2.0725 -0.6623
41803SOL     OW43018  11.045   3.327  13.768  0.1150 -0.0126 -0.3275
41803SOL    HW143019  10.999   3.277  13.701  1.8501 -0.8822 -0.9427
41803SOL    HW243020  11.065   3.411  13.728 -0.8935  0.3713 -0.0548
41804SOL     OW43021   0.172  11.742   5.755 -0.4028  0.2715 -0.4685
41804SOL    HW143022   0.098  11.802   5.747 -0.6185  0.0118 -0.4416
41804SOL    HW243023   0.134  11.661   5.789 -0.2070 -0.0665 -1.0437
41805SOL     OW43024  13.339  12.549   7.314 -0.5738  0.2572 -0.3809
41805SOL    HW143025  13.432  12.560   7.294 -0.9653  1.6863 -1.6995
41805SOL    HW243026  13.316  12.464   7.278  0.1634  0.0132 -0.2823
41806SOL     OW43027  12.948   7.734   1.768 -0.2973  0.1047 -0.0517
41806SOL    HW143028  12.975   7.644   1.784 -0.1613 -0.2036 -1.7789
41806SOL    HW243029  12.902   7.761   1.847  0.1225 -1.2986  0.6860
41807SOL     OW43030   3.962   5.525   2.877 -0.5035  0.6313  0.4733
41807SOL    HW143031   4.012   5.578   2.938  1.2337  2.3102 -2.1866
41807SOL    HW243032   4.019   5.449   2.859  0.4125  1.6667 -1.2384
41808SOL     OW43033   5.656   2.415  11.828  0.2100  0.2722  0.4661
41808SOL    HW143034   5.580   2.398  11.773 -0.0022 -2.9633  1.4996
41808SOL    HW243035   5.650   2.508  11.851 -2.8324  0.3704 -0.3495
41809SOL     OW43036  12.994  11.380  13.321 -0.4734 -0.3926 -0.1268
41809SOL    HW143037  12.986  11.334  13.405  0.2972 -0.5440 -0.1252
41809SOL    HW243038  12.990  11.473  13.344  2.7124 -0.3157  0.4903
41810SOL     OW43039  11.400   8.616   4.960 -0.0909 -0.6097  0.1111
41810SOL    HW143040  11.331   8.561   4.996  0.8778 -0.8430  1.7247
41810SOL    HW243041  11.355   8.674   4.898 -1.3341 -2.2919 -0.6249
41811SOL     OW43042  13.996  10.323   6.356  0.7206  0.0481 -0.0762
41811SOL    HW143043  14.065  10.389   6.348  1.1817 -0.4995 -0.6972
41811SOL    HW243044  13.917  10.367   6.323  0.8974  0.4722  0.0561
41812SOL     OW43045   8.607   5.201  13.863 -0.3095 -0.7307 -0.0302
41812SOL    HW143046   8.628   5.256  13.788 -0.1908  1.2546  1.3513
41812SOL    HW243047   8.631   5.255  13.939 -2.4857 -1.7167  1.4819
41813SOL     OW43048   9.541  10.557   4.658  0.2543 -0.3450  0.2835
41813SOL    HW143049   9.592  10.541   4.579 -0.0149  2.0588 -0.4284
41813SOL    HW243050   9.459  10.509   4.644 -0.3974  1.2156 -1.5866
41814SOL     OW43051   2.719   4.040   0.062  0.5372 -0.1436  0.3397
41814SOL    HW143052   2.782   3.974   0.091 -0.1312 -0.2176  1.6814
41814SOL    HW243053   2.754   4.123   0.093  1.0624  0.0990 -0.8204
41815SOL     OW43054   1.369   6.915  14.053  0.3981 -0.2283 -0.5566
41815SOL    HW143055   1.344   7.001  14.019 -1.3721  0.4795  2.3116
41815SOL    HW243056   1.320   6.853  13.999 -3.0194  0.8887  0.9891
41816SOL     OW43057   5.075  14.026   8.506 -0.1399  0.3160  0.2053
41816SOL    HW143058   5.032  13.947   8.538  1.1019  0.4770  2.4859
41816SOL    HW243059   5.153  14.035   8.561  0.5476  2.3186 -0.9839
41817SOL     OW43060   0.938  13.899   0.717  0.0627  0.6419 -0.5352
41817SOL    HW143061   0.990  13.957   0.662  0.6367 -0.4064 -1.1367
41817SOL    HW243062   0.968  13.917   0.806  1.5711 -0.0194 -0.8800
41818SOL     OW43063   9.887   9.463   7.029 -0.2420  0.8531 -0.5449
41818SOL    HW143064   9.883   9.484   7.122 -1.2141  2.1671 -0.8481
41818SOL    HW243065   9.944   9.386   7.024  0.2250  1.0558  1.0705
41819SOL     OW43066  13.759   8.779   3.508 -0.0848  0.0166  0.5984
41819SOL    HW143067  13.740   8.826   3.427 -1.2025 -0.6387  0.4647
41819SOL    HW243068  13.688   8.802   3.568 -0.9837 -1.8795  0.3416
41820SOL     OW43069  13.735  11.463   7.927  0.4523  0.1289  0.2663
41820SOL    HW143070  13.708  11.408   7.853  1.1423  0.9755 -0.6431
41820SOL    HW243071  13.733  11.552   7.892  2.3289  0.4047  0.7814
41821SOL     OW43072   4.208   0.895  12.166  0.0200  0.3070  0.5470
41821SOL    HW143073   4.245   0.843  12.238 -0.2613 -1.1717 -0.3256
41821SOL    HW243074   4.163   0.967  12.209  0.1758 -0.3274  1.8314
41822SOL     OW43075   8.316   4.269   5.912  0.4475 -0.6849 -0.5711
41822SOL    HW143076   8.247   4.218   5.869  1.0257 -1.7391 -0.2750
41822SOL    HW243077   8.339   4.218   5.990 -0.1941  0.9114  0.7337
41823SOL     OW43078   9.028   0.149   5.633  0.5191 -0.0610  0.3452
41823SOL    HW143079   9.074   0.199   5.565 -0.6313 -0.4531 -0.7775
41823SOL    HW243080   8.957   0.207   5.661  0.8405 -0.0013  1.0468
41824SOL     OW43081  11.060   4.555  10.101 -0.1935  0.2715 -0.4488
41824SOL    HW143082  11.018   4.620  10.157  0.6706  0.1035  0.4106
41824SOL    HW243083  10.998   4.482  10.097 -0.7727  0.7682 -0.6842
41825SOL     OW43084   1.248   9.316   9.546  0.2803 -0.4723  0.2376
41825SOL    HW143085   1.171   9.266   9.519  1.0471 -0.6027 -1.8730
41825SOL    HW243086   1.222   9.355   9.630 -1.9049 -0.8638 -0.1831
41826SOL     OW43087   7.478   1.178  13.666 -0.1316 -0.1033 -0.6207
41826SOL    HW143088   7.383   1.187  13.672  0.0516  1.1298  1.0224
41826SOL    HW243089   7.504   1.133  13.747  0.5593 -2.0146 -1.8193
41827SOL     OW43090   7.452   8.254   3.985 -0.2196  0.3574  0.1767
41827SOL    HW143091   7.451   8.349   3.973  1.0301  0.3096 -0.4290
41827SOL    HW243092   7.392   8.221   3.917  0.5532  0.6298 -0.6592
41828SOL     OW43093  10.939   2.345  11.617  0.1754 -0.6806 -0.0440
41828SOL    HW143094  10.990   2.361  11.538  0.5536 -0.5135  0.2340
41828SOL    HW243095  10.964   2.257  11.644  0.5606 -0.4739  0.2746
41829SOL     OW43096   4.167   5.961  11.778  0.1053 -0.1219 -0.1105
41829SOL    HW143097   4.101   5.894  11.759 -1.0815  1.1604 -0.7612
41829SOL    HW243098   4.130   6.011  11.851  0.9765 -0.1653  0.3700
41830SOL     OW43099  11.241   2.361  13.810  0.0998 -0.2807  0.5427
41830SOL    HW143100  11.254   2.401  13.724  1.3593  0.6193  1.1219
41830SOL    HW243101  11.169   2.411  13.849  0.0169 -0.2092  0.2981
41831SOL     OW43102   7.468   1.083   8.266 -0.4161  0.3068  0.3062
41831SOL    HW143103   7.507   1.062   8.351  0.7606  0.7221 -0.1268
41831SOL    HW243104   7.380   1.044   8.271 -0.3526  0.2758  1.6855
41832SOL     OW43105  10.576   4.034   9.338  0.3223  0.0083 -0.3909
41832SOL    HW143106  10.622   4.031   9.422 -1.6807  1.2352  0.8305
41832SOL    HW243107  10.520   3.957   9.337 -1.4669  1.2109  0.5932
41833SOL     OW43108   2.347   3.520   6.059  0.5780  0.0956  0.1144
41833SOL    HW143109   2.415   3.454   6.043  1.1081  0.8764 -0.9981
41833SOL    HW243110   2.272   3.470   6.092  1.5881 -0.8167  1.0954
41834SOL     OW43111   1.366   4.656   9.065 -0.4660 -0.5905 -0.5086
41834SOL    HW143112   1.405   4.737   9.098 -0.5486 -0.1249 -1.5087
41834SOL    HW243113   1.279   4.683   9.033 -0.7375 -1.1931 -0.2939
41835SOL     OW43114   1.853  13.385  11.341  0.4809 -0.4641  0.0745
41835SOL    HW143115   1.814  13.455  11.394  0.0422 -1.5835  1.2891
41835SOL    HW243116   1.781  13.355  11.285  0.3057 -0.7616  0.4484
41836SOL     OW43117  13.693  13.904   5.578 -0.2689  0.0737 -0.1595
41836SOL    HW143118  13.624  13.921   5.641 -0.3739 -1.0170  0.0410
41836SOL    HW243119  13.717  13.990   5.544  0.1653  0.7356  1.7441
41837SOL     OW43120  10.986   1.084   5.268 -0.6015 -0.0017 -0.5571
41837SOL    HW143121  10.938   1.132   5.200 -0.4762  2.7182  1.1114
41837SOL    HW243122  10.946   1.114   5.350  3.3737  1.9242  0.9215
41838SOL     OW43123   7.542   2.007   6.771 -0.0588  0.1681 -0.5713
41838SOL    HW143124   7.589   2.003   6.688  3.1468 -0.2825  1.0879
41838SOL    HW243125   7.526   1.916   6.794 -0.1940  0.2542 -0.3170
41839SOL     OW43126  13.680   5.980  12.350  0.4333 -0.1153 -0.2213
41839SOL    HW143127  13.649   6.047  12.411 -2.4391 -1.9461  0.5641
41839SOL    HW243128  13.698   5.904  12.405  1.0675 -0.7838 -1.3249
41840SOL     OW43129   5.169   0.952   6.945  0.1594 -0.2984 -0.5333
41840SOL    HW143130   5.222   1.013   6.893  2.1549 -0.7168  0.9055
41840SOL    HW243131   5.231   0.885   6.975 -1.2447 -0.9877  1.0024
41841SOL     OW43132   8.419  10.727   1.665 -0.0113  0.0249  0.5625
41841SOL    HW143133   8.351  10.707   1.601 -0.2401 -2.3649  1.4487
41841SOL    HW243134   8.385  10.803   1.713 -0.8446  0.4634 -0.6782
41842SOL     OW43135  13.755   6.731   7.965  0.2870 -0.7820 -0.3971
41842SOL    HW143136  13.812   6.716   8.040  1.2670 -0.5789 -1.0783
41842SOL    HW243137  13.673   6.765   8.002  0.2174 -2.0748  0.6823
41843SOL     OW43138  12.890   3.717  10.636 -0.2747  0.2144 -0.0702
41843SOL    HW143139  12.927   3.779  10.699  0.8117 -1.1871  0.7379
41843SOL    HW243140  12.854   3.772  10.566 -1.2778  1.8176  1.6026
41844SOL     OW43141   0.611  12.349  13.903 -0.4854 -0.0270 -0.4548
41844SOL    HW143142   0.655  12.395  13.975 -2.6775 -0.3797  1.2050
41844SOL    HW243143   0.526  12.325  13.938 -0.5198 -2.9193 -2.1863
41845SOL     OW43144   7.898   0.342  13.024 -0.1772  0.7406 -0.1639
41845SOL    HW143145   7.834   0.398  12.981  0.6000  0.8323 -1.2448
41845SOL    HW243146   7.939   0.293  12.952 -0.2139 -0.5673  0.6670
41846SOL     OW43147  11.337   0.632   2.977  0.0532  0.6056  0.1645
41846SOL    HW143148  11.361   0.683   3.054  0.1139  1.3053 -0.3044
41846SOL    HW243149  11.258   0.584   3.004 -0.3386  1.3897  0.4381
41847SOL     OW43150   3.238   5.449   8.838 -0.0422 -0.1553 -0.5149
41847SOL    HW143151   3.182   5.372   8.838 -4.6104  2.7944 -0.1912
41847SOL    HW243152   3.248   5.472   8.930 -1.6833  1.4020 -0.6692
41848SOL     OW43153  13.267  11.019   0.277 -0.3568 -0.0046 -0.2715
41848SOL    HW143154  13.347  11.057   0.313 -1.6884  1.7093  1.0482
41848SOL    HW243155  13.211  11.094   0.258 -1.6848 -1.1576 -1.1340
41849SOL     OW43156   8.551  13.634   3.621 -1.0835 -0.0965  0.8534
41849SOL    HW143157   8.478  13.641   3.559  0.2809 -1.0163 -0.9836
41849SOL    HW243158   8.544  13.711   3.677 -1.9291  1.2452 -1.0118
41850SOL     OW43159   7.596   9.959   5.615  0.1596 -0.3650  0.5467
41850SOL    HW143160   7.508   9.945   5.649 -1.3382  1.4822 -2.2032
41850SOL    HW243161   7.603   9.900   5.540  1.3949 -0.6981  0.8961
41851SOL     OW43162   3.127  11.594   7.233  0.1408  0.2290  0.2089
41851SOL    HW143163   3.041  11.567   7.200 -0.2131  1.9964 -0.3830
41851SOL    HW243164   3.108  11.668   7.290  1.2844  0.7555 -0.0766
41852SOL     OW43165   5.000  12.933   0.426 -0.2678 -0.2605  0.4587
41852SOL    HW143166   4.942  12.927   0.502 -1.9866 -0.5724 -0.7990
41852SOL    HW243167   4.982  13.020   0.389 -1.1588 -0.9631 -0.8339
41853SOL     OW43168   4.775  11.535   3.643 -0.5750  0.5325 -0.1421
41853SOL    HW143169   4.778  11.440   3.636  0.6115  0.4364  1.2112
41853SOL    HW243170   4.826  11.566   3.568 -1.1416  0.1234 -0.7041
41854SOL     OW43171   5.197   1.912   5.987  0.5794  0.4241  0.1411
41854SOL    HW143172   5.123   1.970   5.969  0.2591  0.0864  0.3451
41854SOL    HW243173   5.265   1.938   5.925  0.6044  1.3169  0.5263
41855SOL     OW43174   0.115   9.304   9.532  0.4649 -0.3225 -0.5662
41855SOL    HW143175   0.175   9.264   9.468 -0.5341 -1.0164 -1.1046
41855SOL    HW243176   0.155   9.286   9.617  2.2305  1.2901 -0.9817
41856SOL     OW43177  13.091   6.525   5.121  0.0676 -0.2713 -0.2976
41856SOL    HW143178  13.086   6.610   5.165  0.2254 -0.3761 -0.0749
41856SOL    HW243179  13.090   6.461   5.192  0.3327 -0.4413 -0.4438
41857SOL     OW43180   8.003  12.513   6.416 -0.3450 -0.3583 -0.1495
41857SOL    HW143181   7.911  12.532   6.400 -0.0493  1.0211 -0.3438
41857SOL    HW243182   8.044  12.514   6.329  0.1974  1.0740  0.1064
41858SOL     OW43183   3.572   7.205   9.026 -0.0539  0.2284  0.0601
41858SOL    HW143184   3.539   7.201   9.116  0.2798 -0.3950  0.1609
41858SOL    HW243185   3.590   7.114   9.003 -1.7946  0.1678 -1.2594
41859SOL     OW43186   6.093   2.338   1.377 -0.2780  0.6510 -0.2469
41859SOL    HW143187   6.183   2.307   1.372 -0.6153 -0.2220 -1.2934
41859SOL    HW243188   6.047   2.290   1.308 -1.6547  0.6932  0.6008
41860SOL     OW43189   5.931  12.868  13.281  0.3100 -0.1814  0.0493
41860SOL    HW143190   5.934  12.864  13.376  1.4385 -0.5114  0.0156
41860SOL    HW243191   5.884  12.789  13.255  3.8998 -2.6316  0.2196
41861SOL     OW43192  13.537   1.479   5.636  0.1921 -0.5108  0.5497
41861SOL    HW143193  13.465   1.450   5.693  0.2582 -0.3069  0.7408
41861SOL    HW243194  13.611   1.425   5.663  0.4494  0.1787  1.2618
41862SOL     OW43195   3.638   7.787  10.366 -0.0122  0.0408  0.7040
41862SOL    HW143196   3.644   7.878  10.337 -1.2700 -0.1133 -0.1723
41862SOL    HW243197   3.717   7.745  10.331  1.1173  0.9978  2.0205
41863SOL     OW43198   2.202   0.585  11.113 -0.4325 -0.3027 -0.0194
41863SOL    HW143199   2.221   0.637  11.191 -0.9588 -2.8040  1.9368
41863SOL    HW243200   2.161   0.505  11.147  0.7684 -2.2505 -2.7420
41864SOL     OW43201  11.221   0.969  11.022 -0.2206  0.3790  0.4234
41864SOL    HW143202  11.303   0.922  11.006  0.1786  0.0082  3.1876
41864SOL    HW243203  11.243   1.061  11.007  2.0591  0.8718  5.0337
41865SOL     OW43204   0.009   5.955  13.092  0.2968 -0.1472  0.0993
41865SOL    HW143205   0.059   5.924  13.168 -1.9348 -2.8703  0.5931
41865SOL    HW243206   0.037   5.899  13.020  0.5419  0.7551 -0.5341
41866SOL     OW43207   5.368   0.312   8.222 -0.1372 -0.2061  0.3321
41866SOL    HW143208   5.320   0.247   8.274  0.0867  0.0885  0.9174
41866SOL    HW243209   5.367   0.277   8.133  2.1015 -2.3438  1.0032
41867SOL     OW43210   0.887   5.453   7.208  0.1053  0.4267 -0.1929
41867SOL    HW143211   0.914   5.363   7.228 -1.1748  0.1529  0.4036
41867SOL    HW243212   0.875   5.455   7.113  3.7962  1.0441 -0.7982
41868SOL     OW43213   4.698   3.730   1.491  0.3005 -0.0975  0.1659
41868SOL    HW143214   4.643   3.658   1.461 -0.4996  0.2106  0.8578
41868SOL    HW243215   4.637   3.792   1.531  0.8589  1.3685 -1.1497
41869SOL     OW43216   3.324   5.171  12.018  1.1260  0.5688 -0.2014
41869SOL    HW143217   3.302   5.078  12.006  0.9611  0.7334 -1.3534
41869SOL    HW243218   3.357   5.177  12.107  1.5901 -0.6892 -0.2716
41870SOL     OW43219   1.880   7.504   0.052  0.2781 -0.1655  0.4493
41870SOL    HW143220   1.786   7.489   0.045  0.3944 -1.0304  0.7391
41870SOL    HW243221   1.909   7.511  -0.039  0.1349 -1.1487  0.3239
41871SOL     OW43222  10.013  12.813   2.264 -0.2454  0.0776 -0.9780
41871SOL    HW143223  10.014  12.750   2.192 -0.0135 -0.0099 -0.8981
41871SOL    HW243224   9.978  12.893   2.225 -1.0334 -0.2501 -0.9477
41872SOL     OW43225  11.772   1.008  11.621  0.3097 -0.4571  0.0431
41872SOL    HW143226  11.782   1.103  11.615 -0.1816 -0.3871  0.3089
41872SOL    HW243227  11.774   0.989  11.715 -1.4910 -0.4960  0.0947
41873SOL     OW43228   5.829  14.088   0.136  0.4758 -1.3110  0.0640
41873SOL    HW143229   5.921  14.078   0.110  0.6231 -1.5773  0.6706
41873SOL    HW243230   5.780  14.059   0.059  0.8454  1.4050 -1.3163
41874SOL     OW43231   8.233  11.926   6.516  0.2365  0.1039 -0.4135
41874SOL    HW143232   8.213  11.834   6.531  0.5145  0.1565  0.3109
41874SOL    HW243233   8.262  11.959   6.601 -0.9774  1.1550 -0.3895
41875SOL     OW43234   4.675   3.539   2.268  0.3488  0.2190 -0.2485
41875SOL    HW143235   4.626   3.620   2.253 -1.3296 -1.0130 -1.8203
41875SOL    HW243236   4.618   3.487   2.324  1.7714  0.3704  1.4283
41876SOL     OW43237   8.079   7.797   4.878  0.1790 -0.2269 -0.2736
41876SOL    HW143238   8.059   7.704   4.884  1.7296 -0.5607  0.2896
41876SOL    HW243239   8.174   7.801   4.885  0.0069  1.6227  3.1104
41877SOL     OW43240  10.018   3.830   8.751  0.0929 -0.2808  0.1930
41877SOL    HW143241  10.105   3.809   8.785  0.1309 -0.1652  0.1671
41877SOL    HW243242   9.961   3.827   8.827  0.3576  1.0418  0.4642
41878SOL     OW43243   1.790  11.764  12.438  0.1790  0.2223 -0.1045
41878SOL    HW143244   1.759  11.854  12.449  2.2749  0.8013  1.7385
41878SOL    HW243245   1.770  11.722  12.522  1.6585 -0.1931  0.0683
41879SOL     OW43246  10.948   4.375   0.413 -0.2251 -0.4164  0.3574
41879SOL    HW143247  10.919   4.394   0.502 -0.0645  1.2183  0.0953
41879SOL    HW243248  11.019   4.311   0.424 -0.0323 -0.0437  1.4195
41880SOL     OW43249   7.529   1.583   8.089 -0.1766  0.0387  0.3108
41880SOL    HW143250   7.481   1.530   8.153 -0.5276 -1.3970 -1.0860
41880SOL    HW243251   7.487   1.563   8.006  1.6363  0.2492 -0.6844
41881SOL     OW43252  11.039  12.197   6.154  1.0133 -0.1738 -0.8284
41881SOL    HW143253  11.069  12.107   6.167  1.4798 -0.0240 -0.8749
41881SOL    HW243254  10.989  12.193   6.073  3.2088  0.1184 -2.2652
41882SOL     OW43255   6.101   0.854   3.664 -0.2271  0.4358  0.3440
41882SOL    HW143256   6.098   0.949   3.678 -1.1203  0.3059  1.1729
41882SOL    HW243257   6.140   0.819   3.745  2.1444  0.2251 -0.8057
41883SOL     OW43258  11.207   6.614  10.600 -0.3955  0.2940 -0.1515
41883SOL    HW143259  11.227   6.605  10.693  0.1547  0.6067 -0.2364
41883SOL    HW243260  11.113   6.593  10.593 -0.5322  0.6583  0.5288
41884SOL     OW43261   1.541   8.030   1.663 -0.0940  0.1595 -0.3039
41884SOL    HW143262   1.634   8.050   1.657  0.1065 -0.1103  1.3520
41884SOL    HW243263   1.536   7.935   1.654 -0.2659  0.2140 -0.8225
41885SOL     OW43264  11.589  13.039   6.298  0.0821 -0.2645 -0.5553
41885SOL    HW143265  11.649  13.112   6.280 -1.2126  0.6440 -1.3072
41885SOL    HW243266  11.559  13.056   6.388  1.8640 -1.4257  0.3176
41886SOL     OW43267   5.025  10.891   1.713 -0.6221 -0.5719 -0.2843
41886SOL    HW143268   5.090  10.822   1.730 -0.7422 -0.4143  0.9216
41886SOL    HW243269   5.064  10.944   1.644  0.7330 -0.2642  0.6647
41887SOL     OW43270   6.590  12.431   5.005 -0.4538 -0.1060 -0.0159
41887SOL    HW143271   6.544  12.441   5.088 -0.6399  0.3863 -0.1755
41887SOL    HW243272   6.674  12.474   5.019 -0.0881 -0.8636  0.2228
41888SOL     OW43273  13.527   4.493  11.081  0.3004 -0.1829 -0.4460
41888SOL    HW143274  13.580   4.571  11.063  2.1385 -1.3634 -0.4600
41888SOL    HW243275  13.566   4.456  11.160  0.4902 -1.9210 -1.3174
41889SOL     OW43276  11.586  12.189  11.421  0.1370  0.0449  0.0722
41889SOL    HW143277  11.514  12.171  11.482  0.6567  0.3300  0.7845
41889SOL    HW243278  11.552  12.258  11.364 -0.1724  0.1484  0.3769
41890SOL     OW43279   4.942  11.049  13.999 -0.1675 -0.4287  0.2711
41890SOL    HW143280   4.920  11.137  14.028 -0.4994 -0.5027  0.2428
41890SOL    HW243281   5.030  11.058  13.962 -0.3426 -0.0353 -0.0603
41891SOL     OW43282   4.795   5.838  12.649 -0.3173 -0.9228  0.4461
41891SOL    HW143283   4.755   5.806  12.568 -0.0645  2.2683 -1.1028
41891SOL    HW243284   4.731   5.901  12.683  1.1396  0.4544  0.7231
41892SOL     OW43285   5.939   9.610  13.438  0.1301  0.1525  0.3787
41892SOL    HW143286   5.977   9.602  13.525  3.4887  0.4190 -0.9164
41892SOL    HW243287   5.878   9.684  13.445  2.6009  2.2196  1.8934
41893SOL     OW43288  12.893   1.005  13.285  0.8901  0.1518  0.6468
41893SOL    HW143289  12.813   1.004  13.233  1.6852 -0.8001 -0.6256
41893SOL    HW243290  12.910   0.914  13.306  2.1255  0.2255  0.0839
41894SOL     OW43291  10.768   5.292   2.207  0.2203  0.8260 -0.5577
41894SOL    HW143292  10.854   5.289   2.250 -1.1689  1.8435  2.6110
41894SOL    HW243293  10.776   5.363   2.143  1.9483  0.3303 -0.9549
41895SOL     OW43294   6.963  12.055   8.315  0.2608  0.1636  0.2507
41895SOL    HW143295   6.955  11.960   8.307 -1.2631  0.3701 -1.2691
41895SOL    HW243296   6.893  12.080   8.376  0.5608  0.3475  0.5279
41896SOL     OW43297   9.778   1.523  12.505 -0.5473 -0.1224  0.3503
41896SOL    HW143298   9.699   1.478  12.477 -0.2147 -1.0240  0.8158
41896SOL    HW243299   9.759   1.554  12.594 -1.0682  1.4254 -0.2573
41897SOL     OW43300  10.013   8.322   1.432 -0.2787 -0.1655  0.0249
41897SOL    HW143301  10.035   8.235   1.465  1.1773  0.9305  2.1817
41897SOL    HW243302  10.084   8.342   1.371 -0.3505 -0.3059 -0.1055
41898SOL     OW43303  11.542   4.846   1.619  0.2670 -0.0209 -0.0501
41898SOL    HW143304  11.514   4.780   1.682  0.4812  0.3024  0.3886
41898SOL    HW243305  11.604   4.800   1.562  1.4757  0.1257  1.0991
41899SOL     OW43306   5.989   1.717   3.184 -0.0891 -0.2203  0.1180
41899SOL    HW143307   5.919   1.698   3.247  0.5049 -0.3594  0.7568
41899SOL    HW243308   5.992   1.640   3.127 -0.8843  0.0715 -0.3231
41900SOL     OW43309   0.813   1.738  12.812  0.3745  0.0947  0.0301
41900SOL    HW143310   0.902   1.770  12.798  0.3774  0.7168  1.3150
41900SOL    HW243311   0.823   1.644  12.824  0.6453 -0.0889 -1.4980
41901SOL     OW43312   7.062   0.361  13.109 -0.5400  0.6795  0.0886
41901SOL    HW143313   6.971   0.338  13.093  0.1970 -1.5532 -1.4998
41901SOL    HW243314   7.076   0.442  13.061 -1.7698  1.3005  0.7405
41902SOL     OW43315  12.998   7.962  12.230  0.4901 -0.4683  0.3218
41902SOL    HW143316  13.084   7.942  12.192  0.5122 -2.2096  1.1727
41902SOL    HW243317  13.013   8.037  12.287  1.2254 -0.1326 -0.2928
41903SOL     OW43318   4.507   8.690   3.408 -0.1975  0.3745 -0.4478
41903SOL    HW143319   4.450   8.671   3.482  1.0927 -1.1415  0.2292
41903SOL    HW243320   4.477   8.775   3.375 -1.5368  0.5441  1.0810
41904SOL     OW43321  11.822  12.813   2.353 -0.7796  0.1188  0.4959
41904SOL    HW143322  11.755  12.857   2.406 -0.7422  0.9964 -0.1587
41904SOL    HW243323  11.807  12.846   2.264  0.2960  0.0459  0.2751
41905SOL     OW43324   7.781   1.380  13.434 -0.5442  0.0738 -0.1701
41905SOL    HW143325   7.747   1.462  13.468 -1.1535 -0.3745  0.3080
41905SOL    HW243326   7.740   1.370  13.348 -0.4251  0.2901 -0.2537
41906SOL     OW43327   0.619   9.177   6.979  0.1307 -0.6451  0.4096
41906SOL    HW143328   0.697   9.184   7.034 -0.7302 -1.9603  1.9278
41906SOL    HW243329   0.566   9.110   7.023 -1.8639  0.2311 -0.5369
41907SOL     OW43330  10.782   0.040   8.726 -0.3518  0.0243  0.7451
41907SOL    HW143331  10.861   0.084   8.695 -0.9034  0.5784  0.1041
41907SOL    HW243332  10.806   0.007   8.813  0.0948  1.5868  1.2538
41908SOL     OW43333  11.477   0.841   0.600  0.1300  0.2570 -0.5442
41908SOL    HW143334  11.429   0.877   0.526 -0.1933 -1.6454 -1.3325
41908SOL    HW243335  11.512   0.758   0.568  0.1804 -0.5125  1.3516
41909SOL     OW43336  10.301   5.699  11.159 -0.1692  0.0368 -0.1338
41909SOL    HW143337  10.360   5.682  11.232  1.0596 -2.0033 -1.5163
41909SOL    HW243338  10.227   5.747  11.199  1.1812  0.4108  2.0995
41910SOL     OW43339   7.615  13.837   3.895 -0.1467  0.0394  0.0977
41910SOL    HW143340   7.533  13.800   3.862  0.3857 -0.6079 -0.5253
41910SOL    HW243341   7.588  13.916   3.942 -1.0559  0.2294 -0.7076
41911SOL     OW43342  11.963   3.962   2.088 -0.3632 -0.8559 -0.2491
41911SOL    HW143343  11.976   4.055   2.101 -0.1503 -1.0414  1.0150
41911SOL    HW243344  11.874   3.954   2.053 -0.2907 -0.1657 -0.5849
41912SOL     OW43345   3.179   4.212   7.181 -0.3933  0.3145  0.5118
41912SOL    HW143346   3.165   4.236   7.090 -0.9207  3.5464  1.3155
41912SOL    HW243347   3.182   4.116   7.181  4.2620  0.0706 -3.5229
41913SOL     OW43348   9.083  10.930   3.261  0.1977  0.4533 -0.2619
41913SOL    HW143349   9.044  10.895   3.341 -0.0252  2.0143  0.3469
41913SOL    HW243350   9.103  10.853   3.207 -0.2681 -0.5718  1.0083
41914SOL     OW43351   7.572   6.571   1.688  0.0369 -1.2091 -0.2552
41914SOL    HW143352   7.630   6.610   1.623 -1.3214  1.3303 -0.0899
41914SOL    HW243353   7.631   6.533   1.753  1.5244  0.3454 -0.6110
41915SOL     OW43354   4.422   8.538  12.051  0.3007  0.2509  0.4369
41915SOL    HW143355   4.492   8.508  12.108  1.1542 -0.1238 -0.7689
41915SOL    HW243356   4.352   8.473  12.063  0.2244  0.4993  1.4677
41916SOL     OW43357   6.503   4.040   5.454  0.1876 -0.0320  0.0443
41916SOL    HW143358   6.517   4.083   5.370  0.4021  0.8745  0.5310
41916SOL    HW243359   6.519   3.947   5.437 -2.6041 -0.2996 -1.5604
41917SOL     OW43360  10.944  11.241   7.504  0.2438 -0.2266  0.5349
41917SOL    HW143361  10.917  11.330   7.527 -0.9741 -0.2523 -0.6613
41917SOL    HW243362  10.864  11.189   7.511  0.0756 -0.4995 -2.1949
41918SOL     OW43363   3.797   5.983   3.826  0.0065  0.1345 -0.2241
41918SOL    HW143364   3.819   6.044   3.756 -2.2996  1.5752  0.1946
41918SOL    HW243365   3.838   6.021   3.904  0.3251 -0.0045 -0.3218
41919SOL     OW43366   8.126   4.400  14.047 -0.0854 -0.3358 -0.1807
41919SOL    HW143367   8.106   4.481  14.096  0.1676 -0.5988  0.3724
41919SOL    HW243368   8.155   4.339  14.115  1.8511 -0.2031 -0.8506
41920SOL     OW43369  11.432  13.220  10.240  0.6225 -0.1394 -0.5504
41920SOL    HW143370  11.422  13.126  10.222  2.8962 -0.8055  1.0421
41920SOL    HW243371  11.362  13.240  10.302  0.3280 -0.8893 -0.6291
41921SOL     OW43372  10.066  11.762  11.473 -0.6394 -0.0080  0.3317
41921SOL    HW143373  10.012  11.776  11.395  2.0227  1.0475 -1.4754
41921SOL    HW243374  10.116  11.683  11.453  1.3864  1.2672  0.0629
41922SOL     OW43375   0.006   5.178   7.690  0.1898  0.1735 -0.6341
41922SOL    HW143376  -0.000   5.094   7.735  0.4999 -0.1402 -1.1584
41922SOL    HW243377  -0.045   5.166   7.610  2.0387 -0.2789 -1.8126
41923SOL     OW43378   0.446   8.438   5.309  0.3078  0.0718 -0.0592
41923SOL    HW143379   0.474   8.387   5.233 -0.8259 -1.3314  0.4195
41923SOL    HW243380   0.444   8.376   5.381 -1.1195  0.7721  0.5446
41924SOL     OW43381   8.179   2.342   3.971  0.3131 -0.3340  0.1649
41924SOL    HW143382   8.212   2.394   4.045  1.4894 -1.8953  0.8168
41924SOL    HW243383   8.234   2.367   3.897 -0.4420  0.7653 -0.0437
41925SOL     OW43384  13.118  12.650   4.014  0.4819  0.1141 -0.0602
41925SOL    HW143385  13.176  12.723   3.993 -1.1641  1.4014 -0.2902
41925SOL    HW243386  13.131  12.587   3.943  0.3574  1.1475 -1.0140
41926SOL     OW43387  11.944   2.143   5.951  0.0924 -0.2713  0.3036
41926SOL    HW143388  11.934   2.098   5.866  1.8689 -0.8197  0.3311
41926SOL    HW243389  11.856   2.174   5.972 -0.1742  1.2660 -2.4804
41927SOL     OW43390   9.242  13.236   4.288 -0.2617 -0.2578 -0.3625
41927SOL    HW143391   9.333  13.227   4.314 -0.4113 -0.3402  0.1473
41927SOL    HW243392   9.199  13.158   4.324 -1.4670  1.9691  3.5943
41928SOL     OW43393   7.211   8.070   4.458  0.1818  0.3491  0.2064
41928SOL    HW143394   7.222   8.049   4.551 -0.0126  0.0730  0.1688
41928SOL    HW243395   7.154   8.147   4.458  1.5787  1.4235  0.3776
41929SOL     OW43396   4.531  12.159  12.577 -0.0790  0.8253  0.3969
41929SOL    HW143397   4.605  12.109  12.543  0.7925 -0.2277  3.4975
41929SOL    HW243398   4.566  12.207  12.652 -2.3165  1.0498  1.4034
41930SOL     OW43399  12.196   0.275   6.158  0.5088 -0.3803  0.4402
41930SOL    HW143400  12.247   0.344   6.115 -1.2638  1.5460  1.2551
41930SOL    HW243401  12.152   0.230   6.086  0.3344  0.4777  0.0017
41931SOL     OW43402   5.115  13.466  13.446 -0.0375 -0.2613  0.1010
41931SOL    HW143403   5.107  13.425  13.532  0.6860 -0.2982  0.1558
41931SOL    HW243404   5.180  13.536  13.459  0.8787 -0.9521 -0.6534
41932SOL     OW43405   5.575   1.978  13.302 -0.0603  0.0528  0.4062
41932SOL    HW143406   5.651   1.921  13.294  1.7153  2.4204 -1.0141
41932SOL    HW243407   5.588   2.025  13.384  0.2560  0.6990  0.0036
41933SOL     OW43408  12.615   9.979  11.879 -0.0597 -0.0143 -0.1433
41933SOL    HW143409  12.623  10.074  11.880 -1.3062  0.1052 -0.3593
41933SOL    HW243410  12.580   9.958  11.793 -1.2061 -0.5229  0.4116
41934SOL     OW43411  12.996  13.496   2.073  0.2252 -0.4027  0.2394
41934SOL    HW143412  12.934  13.423   2.078 -0.1005 -0.2022 -0.6962
41934SOL    HW243413  13.079  13.460   2.104 -0.2543 -0.7983  1.0656
41935SOL     OW43414   0.162  13.965  10.040 -0.2837  0.4836 -0.1098
41935SOL    HW143415   0.186  13.878  10.007  1.3905  1.3327 -1.2851
41935SOL    HW243416   0.240  13.996  10.086 -0.9102  1.3039  0.4308
41936SOL     OW43417  10.760   5.428  13.986  0.6076 -0.0703  0.5865
41936SOL    HW143418  10.722   5.479  13.915 -0.5370 -0.1632  1.1028
41936SOL    HW243419  10.849   5.460  13.995  0.5181  0.4658 -0.3859
41937SOL     OW43420   7.352   1.246   9.429 -0.5435 -0.1870  0.7371
41937SOL    HW143421   7.283   1.238   9.363 -0.0614  2.4106 -0.2231
41937SOL    HW243422   7.422   1.190   9.397 -1.5058 -1.4281  0.7476
41938SOL     OW43423   9.641   0.488  13.702 -0.6795 -0.1668 -0.6184
41938SOL    HW143424   9.704   0.548  13.663 -1.4458  1.0370 -0.0727
41938SOL    HW243425   9.560   0.503  13.653 -0.3816 -2.2808 -1.8540
41939SOL     OW43426   1.117   5.644   1.394 -0.1732 -0.1645  0.0629
41939SOL    HW143427   1.076   5.577   1.449  1.1381 -1.6214 -0.6486
41939SOL    HW243428   1.203   5.658   1.433 -0.2606  0.7829 -0.0670
41940SOL     OW43429   5.863   4.476   5.096 -0.1345  0.2481  0.1799
41940SOL    HW143430   5.801   4.538   5.059 -0.5160  0.4425  1.1046
41940SOL    HW243431   5.884   4.511   5.183 -2.3710 -2.1320  1.8756
41941SOL     OW43432   5.554  11.492  12.128 -0.1597 -0.0155  0.4725
41941SOL    HW143433   5.634  11.543  12.126 -0.7102  0.8737 -1.6310
41941SOL    HW243434   5.518  11.506  12.216  1.3554  0.5462  1.0241
41942SOL     OW43435   4.134  10.730   0.552 -0.1736 -0.1158  0.6222
41942SOL    HW143436   4.155  10.786   0.626  0.5918  1.2256 -0.5670
41942SOL    HW243437   4.199  10.752   0.485 -0.6854 -1.4631 -0.3713
41943SOL     OW43438   9.279   1.702   8.917 -0.1259  0.0426 -0.3771
41943SOL    HW143439   9.366   1.676   8.886 -1.0358 -1.4843 -1.8178
41943SOL    HW243440   9.291   1.720   9.010  1.6979 -0.3152 -0.5086
41944SOL     OW43441  10.062   8.922  12.040  0.0074  0.1244 -0.8005
41944SOL    HW143442   9.971   8.951  12.048 -0.6761 -1.9456 -0.5619
41944SOL    HW243443  10.066   8.879  11.955  0.2404 -1.4663 -0.0105
41945SOL     OW43444   1.582   1.852   5.809 -0.4245  0.6989 -0.0078
41945SOL    HW143445   1.498   1.894   5.792 -0.0365  1.6542  0.3212
41945SOL    HW243446   1.560   1.773   5.859 -1.0465  1.8277  1.6067
41946SOL     OW43447   9.400   4.233   3.838  0.1223 -0.7324 -0.1146
41946SOL    HW143448   9.318   4.221   3.887  0.3602  0.5355  0.6451
41946SOL    HW243449   9.391   4.320   3.798  1.2724 -0.3756  0.3571
41947SOL     OW43450   6.317  13.775  10.171 -0.0380  0.3052 -0.4992
41947SOL    HW143451   6.286  13.818  10.251  0.2998 -0.5412  0.0950
41947SOL    HW243452   6.297  13.682  10.184 -1.2905  0.3315 -2.0189
41948SOL     OW43453   7.579   9.882   3.389  0.1065  0.1859 -0.0704
41948SOL    HW143454   7.652   9.826   3.366 -0.3834 -0.6878  0.4593
41948SOL    HW243455   7.520   9.826   3.440 -1.0508  0.7985 -0.6879
41949SOL     OW43456   0.650   9.656   3.897 -0.0963 -0.0329  0.1407
41949SOL    HW143457   0.722   9.713   3.923  0.9035 -1.2164  0.0511
41949SOL    HW243458   0.585   9.666   3.967  0.3411  0.7153  0.4513
41950SOL     OW43459   1.304   7.469  10.709  0.3433  0.3719 -0.5013
41950SOL    HW143460   1.256   7.386  10.711  0.5931  0.2198  1.4088
41950SOL    HW243461   1.239   7.535  10.735  0.6481  0.4653  0.0364
41951SOL     OW43462   1.239  13.971  10.480 -0.4173 -0.6031 -0.2211
41951SOL    HW143463   1.282  14.008  10.557 -0.5109  1.7463 -1.1961
41951SOL    HW243464   1.159  14.023  10.469  0.3214  0.1720 -2.6939
41952SOL     OW43465   8.220   4.192  11.648  0.2342  0.3840 -0.2396
41952SOL    HW143466   8.297   4.135  11.647  0.2608  0.3304  1.5382
41952SOL    HW243467   8.151   4.140  11.606  0.4324 -0.7571  0.7797
41953SOL     OW43468   1.895   7.846   0.197 -0.0059  0.3448  0.2365
41953SOL    HW143469   1.956   7.913   0.230  0.1144 -0.3951  1.5621
41953SOL    HW243470   1.898   7.857   0.102  0.8634  1.4847  0.3638
41954SOL     OW43471   4.229   3.146   1.092  0.3937  0.3970  0.3524
41954SOL    HW143472   4.167   3.077   1.066  1.0883 -0.4952  0.9929
41954SOL    HW243473   4.293   3.148   1.021 -0.1233  1.0310 -0.1081
41955SOL     OW43474   5.878   4.382  13.850  0.3787  0.0856  0.0230
41955SOL    HW143475   5.823   4.457  13.872  0.8378  0.3760  0.2000
41955SOL    HW243476   5.833   4.339  13.776  1.4019  2.0092 -1.8252
41956SOL     OW43477   3.046  13.115   1.836 -0.2957  0.4439 -0.8294
41956SOL    HW143478   3.030  13.114   1.931  1.5303  0.5274 -0.4739
41956SOL    HW243479   2.994  13.188   1.803 -1.4767 -0.0054  0.0044
41957SOL     OW43480   4.436   0.541   8.646 -0.0907 -0.4836  0.3573
41957SOL    HW143481   4.346   0.562   8.620 -0.1767 -1.1351  0.1182
41957SOL    HW243482   4.479   0.517   8.564  0.3036 -0.1714  0.4713
41958SOL     OW43483   0.400  10.500   5.194 -0.7724  0.2177 -0.0152
41958SOL    HW143484   0.485  10.462   5.216 -1.0288 -0.1855  0.2994
41958SOL    HW243485   0.394  10.492   5.099 -0.9262 -0.7797  0.0647
41959SOL     OW43486   2.516  13.052  11.346  0.1638 -0.1612  0.3946
41959SOL    HW143487   2.482  13.037  11.434 -1.2946  1.2304  0.1008
41959SOL    HW243488   2.443  13.090  11.297  1.5457  1.0541 -0.8431
41960SOL     OW43489   6.957   3.236  11.659  0.3700  0.2224  0.3530
41960SOL    HW143490   6.959   3.264  11.751  0.7509  0.1855  0.3562
41960SOL    HW243491   7.047   3.245  11.629  0.5614 -1.2104  0.4217
41961SOL     OW43492   8.356   6.134   4.588 -0.5224 -0.4738  0.0130
41961SOL    HW143493   8.320   6.180   4.664 -1.0424 -1.1162  0.1662
41961SOL    HW243494   8.434   6.090   4.622  0.0649  0.4007 -0.1693
41962SOL     OW43495   9.930   2.016   4.990 -0.0008  0.3605 -0.1402
41962SOL    HW143496   9.910   2.109   5.000  1.8496  0.7785  0.0520
41962SOL    HW243497  10.022   2.014   4.961  0.1535 -1.4194  0.3381
41963SOL     OW43498  12.629   4.699   5.723  0.2007 -0.0638  0.1101
41963SOL    HW143499  12.675   4.620   5.696  1.3028  0.2703  0.9510
41963SOL    HW243500  12.648   4.763   5.653  0.9012  0.0263  0.3750
41964SOL     OW43501   4.631   5.265  13.200 -0.3708 -0.0177  0.3619
41964SOL    HW143502   4.603   5.295  13.114  0.7535  2.5197  0.8090
41964SOL    HW243503   4.687   5.189  13.182  0.0480  0.6190 -1.1778
41965SOL     OW43504   9.887  10.624  12.806 -0.4568 -0.6863  0.7285
41965SOL    HW143505   9.946  10.549  12.796 -1.3298 -1.4282  1.0033
41965SOL    HW243506   9.943  10.694  12.841  0.1886 -1.4729  1.3158
41966SOL     OW43507   0.814   6.855  12.450  0.2241  0.1783 -0.0430
41966SOL    HW143508   0.782   6.944  12.439 -1.0434 -0.2307  0.1841
41966SOL    HW243509   0.824   6.822  12.360 -2.3589 -0.4721 -0.1684
41967SOL     OW43510   4.743   4.941   8.105 -0.1537 -0.1641  0.6614
41967SOL    HW143511   4.675   5.009   8.103  1.3218  1.3597  0.4070
41967SOL    HW243512   4.819   4.984   8.143  0.6631 -1.8715  1.0450
41968SOL     OW43513   5.393  12.853   0.021 -0.4926 -0.2172 -0.1194
41968SOL    HW143514   5.418  12.908   0.095 -0.1096 -0.0189 -0.3978
41968SOL    HW243515   5.456  12.873  -0.048 -1.0737 -0.1232 -0.6330
41969SOL     OW43516   5.059   9.980   2.015  0.4148  0.2725 -0.3394
41969SOL    HW143517   4.974   9.989   1.972  0.4412  1.7978 -0.1292
41969SOL    HW243518   5.111  10.052   1.978  2.1174 -1.4943 -1.5853
41970SOL     OW43519   7.596   2.936  12.229  0.1160 -0.2222  0.1112
41970SOL    HW143520   7.527   2.900  12.284 -0.1463 -0.6260 -0.4666
41970SOL    HW243521   7.577   3.029  12.224  0.1621 -0.1760  0.7235
41971SOL     OW43522   4.467   1.484   0.396  0.2327  0.1934 -0.3115
41971SOL    HW143523   4.551   1.464   0.356  0.2127 -0.9997  0.1940
41971SOL    HW243524   4.432   1.557   0.345  1.7384  0.9740 -0.2879
41972SOL     OW43525   8.198   1.265  10.147  0.2089  0.2673 -0.2328
41972SOL    HW143526   8.294   1.263  10.146  0.2888 -3.2099  0.5835
41972SOL    HW243527   8.176   1.314  10.226  1.4148 -0.3740  0.5374
41973SOL     OW43528   0.703   0.391   2.636  0.0030  0.1226  0.2674
41973SOL    HW143529   0.759   0.430   2.568  0.5105  0.4356  0.8584
41973SOL    HW243530   0.739   0.424   2.718 -0.3114 -0.6420  0.7181
41974SOL     OW43531  12.157  12.939   3.239  0.1639  0.1267 -0.0816
41974SOL    HW143532  12.183  12.997   3.311  2.2746  1.1990 -1.6234
41974SOL    HW243533  12.184  12.984   3.160 -1.6612 -1.2449 -1.5948
41975SOL     OW43534   4.491  11.713   9.663 -0.1119 -0.0968 -0.5242
41975SOL    HW143535   4.436  11.752   9.595  0.7856  0.9052 -0.7037
41975SOL    HW243536   4.456  11.747   9.745  0.2810  0.6099 -0.6438
41976SOL     OW43537  10.386   9.205   8.260  0.5268  0.2611 -0.5147
41976SOL    HW143538  10.386   9.293   8.223 -1.1379 -0.6306 -2.8549
41976SOL    HW243539  10.478   9.183   8.271  1.0304  1.4616 -2.0327
41977SOL     OW43540  10.989   3.119   9.067 -0.1457  0.1995 -0.4819
41977SOL    HW143541  11.076   3.157   9.054  0.5953 -1.0722  0.5090
41977SOL    HW243542  10.961   3.094   8.979  0.7799  0.0489 -0.7531
41978SOL     OW43543   5.548   4.975   4.439 -0.3445 -0.2259  0.0251
41978SOL    HW143544   5.596   4.987   4.357  1.1727  1.6790  1.1226
41978SOL    HW243545   5.505   4.890   4.429 -2.4503  1.0085 -3.8434
41979SOL     OW43546   2.610   2.796  11.668 -0.2211  0.7710  0.1586
41979SOL    HW143547   2.537   2.739  11.643  0.1948  0.8341 -1.3473
41979SOL    HW243548   2.592   2.878  11.621 -0.0845  1.3957  1.1824
41980SOL     OW43549  10.871   4.552   2.947  0.2452  0.2286  0.6265
41980SOL    HW143550  10.844   4.518   3.032 -0.8530  2.3624  1.2182
41980SOL    HW243551  10.964   4.531   2.940  0.1133 -0.8466  1.9061
41981SOL     OW43552   8.887   6.082   1.204  1.0416  0.4862 -1.1518
41981SOL    HW143553   8.963   6.058   1.258  1.5111  0.8177 -1.6494
41981SOL    HW243554   8.816   6.026   1.236  1.7013 -0.4149 -1.2182
41982SOL     OW43555   8.177  10.944   8.169 -0.0950 -0.7848  0.2561
41982SOL    HW143556   8.101  10.887   8.170 -1.3677  0.8351  1.4477
41982SOL    HW243557   8.216  10.934   8.255 -0.8702  0.7657  0.8222
41983SOL     OW43558   9.873   9.896   2.041 -0.4599 -0.0567 -0.2752
41983SOL    HW143559   9.887   9.960   2.111 -2.4469  1.2674 -1.0001
41983SOL    HW243560   9.924   9.928   1.967  0.6129 -0.7612  0.1357
41984SOL     OW43561   6.515  11.328   5.091 -0.1322 -0.4986 -0.2839
41984SOL    HW143562   6.446  11.370   5.040 -0.4392  1.2474  1.4405
41984SOL    HW243563   6.594  11.376   5.068 -0.2407  0.1778  0.6751
41985SOL     OW43564   4.563  12.954   4.866  0.0018  0.2595  0.4970
41985SOL    HW143565   4.607  12.871   4.851  2.4622  1.0283  2.7259
41985SOL    HW243566   4.477  12.930   4.902 -0.0741 -1.2646 -0.6159
41986SOL     OW43567  12.444   7.685   6.814 -0.2429 -0.5714  0.0204
41986SOL    HW143568  12.428   7.778   6.805  1.3904 -0.1596  0.9569
41986SOL    HW243569  12.386   7.657   6.885  0.2805  0.0529  0.7102
41987SOL     OW43570   9.168   3.713   3.311  0.2515  0.5297  1.2879
41987SOL    HW143571   9.153   3.619   3.306 -2.8052  0.9626  0.5514
41987SOL    HW243572   9.210   3.736   3.228 -0.6413  0.0461  0.6935
41988SOL     OW43573  12.201   8.627   7.169  0.2317 -0.2473  0.1579
41988SOL    HW143574  12.171   8.649   7.257  0.8480 -1.5985  0.7250
41988SOL    HW243575  12.193   8.709   7.120  0.1598  0.5969  1.5347
41989SOL     OW43576   9.891   2.770  13.765 -0.1696 -0.5723  0.0355
41989SOL    HW143577   9.910   2.850  13.714 -0.8171  1.4829  2.7866
41989SOL    HW243578   9.797   2.758  13.754 -0.0913 -0.8969 -0.2846
41990SOL     OW43579   5.759   0.281   6.645 -0.3644 -0.4791 -0.1572
41990SOL    HW143580   5.850   0.309   6.641 -0.6989  0.5443 -1.2285
41990SOL    HW243581   5.762   0.194   6.683  0.7109  1.0751  3.7929
41991SOL     OW43582   5.033   8.129  14.064  0.1270 -0.0305 -0.3044
41991SOL    HW143583   5.039   8.182  13.985 -0.3453  0.3417 -0.0943
41991SOL    HW243584   4.959   8.070  14.048  1.4837 -1.6100 -1.1057
41992SOL     OW43585   9.383   2.093  13.367 -0.2436  0.1078 -0.3286
41992SOL    HW143586   9.411   2.132  13.450  0.3786  1.6466 -1.2138
41992SOL    HW243587   9.333   2.162  13.324 -0.3273 -0.5785 -1.3638
41993SOL     OW43588  11.316   1.143   3.725 -0.7104  1.0046 -0.3582
41993SOL    HW143589  11.282   1.229   3.701  1.8673  1.8429 -1.4370
41993SOL    HW243590  11.288   1.085   3.653 -0.2884  1.5623 -0.9871
41994SOL     OW43591   1.580   2.550   7.522 -0.4447 -0.1794 -0.4243
41994SOL    HW143592   1.512   2.577   7.460 -1.5828 -1.2420  0.3219
41994SOL    HW243593   1.622   2.475   7.481  0.5789  0.7005 -1.0548
41995SOL     OW43594   6.041   9.512   1.392  0.0309 -0.1590  0.2343
41995SOL    HW143595   6.024   9.556   1.309  1.3002 -0.5848 -0.2777
41995SOL    HW243596   6.005   9.424   1.381  2.1298 -0.9517 -0.7261
41996SOL     OW43597  11.676   7.810   2.605 -0.4553 -0.1859 -0.2971
41996SOL    HW143598  11.666   7.861   2.686  1.7710  0.3543 -0.3026
41996SOL    HW243599  11.588   7.776   2.587 -1.0317 -0.3032  2.3302
41997SOL     OW43600   5.989   1.569   0.934 -0.3360  0.7580  0.1436
41997SOL    HW143601   5.975   1.479   0.962  1.7447  0.1091 -0.7264
41997SOL    HW243602   5.988   1.620   1.014 -0.2757 -0.2097  0.7741
41998SOL     OW43603  12.590   8.395  13.576  0.0599  0.0916 -0.6513
41998SOL    HW143604  12.601   8.374  13.668  0.3090  1.6016 -0.3092
41998SOL    HW243605  12.585   8.491  13.573 -2.3490  0.0246 -1.9477
41999SOL     OW43606   4.497  11.230   8.990 -0.5800 -0.0867  0.2860
41999SOL    HW143607   4.519  11.154   8.935 -1.2711 -0.5929  0.6876
41999SOL    HW243608   4.582  11.264   9.018 -0.2582 -1.4363  1.0609
42000SOL     OW43609   7.614   5.765   3.473  0.5770  0.3748 -0.3519
42000SOL    HW143610   7.612   5.830   3.403  2.6032 -0.3554 -1.1647
42000SOL    HW243611   7.618   5.681   3.427  0.5751 -0.1887  0.6518
42001SOL     OW43612   8.674  10.731  10.881 -0.0237 -0.4172  0.2557
42001SOL    HW143613   8.711  10.750  10.794 -1.1056  1.3858  0.1365
42001SOL    HW243614   8.674  10.816  10.925  0.0123 -1.2131  1.8475
42002SOL     OW43615   7.834   6.816  13.297 -0.1045  0.5331 -0.1948
42002SOL    HW143616   7.916   6.864  13.304  0.4406 -0.4023  0.0938
42002SOL    HW243617   7.785   6.861  13.228  0.6962  1.0357 -0.4461
42003SOL     OW43618   1.793  11.134  11.093  0.1456  0.5736 -0.1016
42003SOL    HW143619   1.853  11.099  11.027 -1.0741 -1.2295 -0.3371
42003SOL    HW243620   1.708  11.099  11.068 -0.4317  0.2202  2.1749
42004SOL     OW43621   1.522   2.706   2.838  0.1488 -0.4874 -0.1499
42004SOL    HW143622   1.570   2.640   2.789  0.8045  1.0188 -1.6340
42004SOL    HW243623   1.546   2.789   2.797 -0.5168  0.7148  1.7366
42005SOL     OW43624   5.827   7.296  12.024 -0.4973  0.0274  0.2144
42005SOL    HW143625   5.786   7.277  12.109 -0.6476  0.4367  0.2351
42005SOL    HW243626   5.919   7.272  12.037 -0.5896 -0.2429  0.3847
42006SOL     OW43627  13.780   3.247  11.264  0.0746  0.3378  0.2181
42006SOL    HW143628  13.762   3.327  11.216  0.0598 -0.7781 -1.7354
42006SOL    HW243629  13.808   3.184  11.197  0.5866 -1.1492  1.7429
42007SOL     OW43630  13.016   6.005   8.651  0.4109 -0.4006 -0.6143
42007SOL    HW143631  12.986   5.920   8.684  0.2573  0.0395  0.4215
42007SOL    HW243632  12.935   6.056   8.641  0.5816 -0.0718 -0.3285
42008SOL     OW43633  11.764   1.970  10.857  0.9086  0.2221  0.2489
42008SOL    HW143634  11.855   1.976  10.830  0.9912 -0.8688  0.2513
42008SOL    HW243635  11.767   1.958  10.952  0.8327 -1.1527  0.0956
42009SOL     OW43636   7.740   7.669   9.386  0.1542  0.3118  0.4565
42009SOL    HW143637   7.795   7.600   9.350  1.3054  1.1952  0.4601
42009SOL    HW243638   7.750   7.661   9.481 -2.1383 -1.4217  0.6252
42010SOL     OW43639   3.839  11.890   2.417 -0.0168  0.3313  0.0174
42010SOL    HW143640   3.921  11.843   2.408  1.0396  1.9950  0.5557
42010SOL    HW243641   3.790  11.869   2.338  1.1966 -0.1877 -0.6121
42011SOL     OW43642   6.419  14.030  10.566  0.0370  0.6420 -0.3033
42011SOL    HW143643   6.364  14.089  10.616  1.5516  0.8546  1.1859
42011SOL    HW243644   6.501  14.078  10.553  0.7016 -0.4971 -0.5004
42012SOL     OW43645   2.831   3.591   5.011 -0.3246 -0.1067 -0.0834
42012SOL    HW143646   2.856   3.683   5.003  2.2179 -0.8464 -1.5869
42012SOL    HW243647   2.737   3.590   4.992 -0.4649  2.1675  0.1944
42013SOL     OW43648  11.044  12.920   5.704  0.4942  0.3002 -0.1174
42013SOL    HW143649  11.016  13.003   5.667  1.6785  0.1201 -1.4990
42013SOL    HW243650  11.139  12.923   5.704  0.5680  0.0125  2.3968
42014SOL     OW43651   9.078  13.219   8.203  0.0360 -0.9029  0.3650
42014SOL    HW143652   9.072  13.182   8.291 -0.7268  0.4355  0.8946
42014SOL    HW243653   9.128  13.300   8.214 -1.1426 -0.0700 -0.1940
42015SOL     OW43654   8.132  12.386  12.809 -0.7387 -0.0931  0.1649
42015SOL    HW143655   8.038  12.367  12.805 -0.7829  0.1500  0.0000
42015SOL    HW243656   8.136  12.476  12.843 -0.6899  1.0078 -2.4762
42016SOL     OW43657   4.812   9.590   9.402  0.3752  0.0927  0.5911
42016SOL    HW143658   4.775   9.606   9.315 -2.3550 -1.7966  1.2486
42016SOL    HW243659   4.793   9.670   9.451  0.1107  0.4243 -0.0458
42017SOL     OW43660  13.031   6.354   7.773 -0.3709 -0.1104  0.9086
42017SOL    HW143661  13.048   6.411   7.697 -3.3906  2.5249  1.9678
42017SOL    HW243662  12.981   6.281   7.737 -2.2590  1.3843  0.2758
42018SOL     OW43663   0.900   7.988  12.763  0.0418  0.8536  0.3202
42018SOL    HW143664   0.939   7.976  12.676 -0.1767 -0.0701  0.3473
42018SOL    HW243665   0.822   8.041  12.747 -0.4384  0.0279 -0.1651
42019SOL     OW43666   9.514   9.827   5.036  0.1111 -0.2517  0.1476
42019SOL    HW143667   9.472   9.811   5.121  2.5381 -0.9312  1.3214
42019SOL    HW243668   9.478   9.760   4.979 -1.3766  0.0477  0.6808
42020SOL     OW43669  13.541   5.140   5.666  0.2974  0.5408  0.5222
42020SOL    HW143670  13.583   5.080   5.727  0.0833  0.6918  0.8235
42020SOL    HW243671  13.468   5.177   5.716  0.9659  1.7362  0.6541
42021SOL     OW43672   3.519   8.766   5.732 -1.2328  0.4040 -0.2870
42021SOL    HW143673   3.499   8.737   5.642  0.3727 -0.6043 -0.3738
42021SOL    HW243674   3.530   8.860   5.725 -4.4883  0.8774 -0.4392
42022SOL     OW43675   8.936   5.070   0.316 -0.7660 -0.1235  0.4977
42022SOL    HW143676   8.860   5.091   0.370 -1.2723 -0.1833 -0.1814
42022SOL    HW243677   8.930   4.976   0.301  0.2378 -0.3940  1.6199
42023SOL     OW43678  11.362   1.566  13.987 -0.1181 -0.6006  0.4125
42023SOL    HW143679  11.349   1.563  14.082  0.8995 -0.5181  0.5592
42023SOL    HW243680  11.435   1.626  13.974  2.8550 -3.9703 -0.0547
42024SOL     OW43681   1.597  10.728  10.568 -0.3149  0.0390 -0.2553
42024SOL    HW143682   1.638  10.752  10.652 -0.4932  0.2431 -0.2280
42024SOL    HW243683   1.656  10.662  10.532  1.5392  2.2253 -1.4979
42025SOL     OW43684   7.062   0.706  11.239 -0.0355  0.0105  0.1727
42025SOL    HW143685   7.156   0.723  11.250  0.0986 -1.1493  1.0398
42025SOL    HW243686   7.051   0.616  11.270 -0.8628 -1.1223 -3.0431
42026SOL     OW43687   2.759  10.317  10.324 -0.1070  0.4293  0.0917
42026SOL    HW143688   2.709  10.333  10.404  0.2075 -1.6844  0.7891
42026SOL    HW243689   2.761  10.221  10.316  0.4717  0.5706 -2.0709
42027SOL     OW43690   0.896   2.161   2.800 -0.0794  0.2216  0.5034
42027SOL    HW143691   0.860   2.115   2.876 -0.2065 -0.7564 -0.1359
42027SOL    HW243692   0.826   2.160   2.735  0.4783 -0.1413 -0.1058
42028SOL     OW43693   0.944   0.190  10.565  0.3914 -0.4459  0.4197
42028SOL    HW143694   0.860   0.148  10.583  0.2987 -0.1132  0.7537
42028SOL    HW243695   0.922   0.267  10.513  0.5341 -0.6194  0.0974
42029SOL     OW43696   0.614   2.977   9.288 -0.0129  0.4418 -0.2549
42029SOL    HW143697   0.649   2.909   9.231  0.1362  1.4210 -1.3744
42029SOL    HW243698   0.621   3.057   9.236 -2.0724  0.9979  0.2524
42030SOL     OW43699   8.565   2.294   6.372 -0.4873  0.0826 -0.4992
42030SOL    HW143700   8.573   2.219   6.313 -1.0300  1.6166 -2.6353
42030SOL    HW243701   8.593   2.369   6.319 -0.7342  1.5063  1.3008
42031SOL     OW43702   4.362   3.914   8.147 -0.3769  0.0325 -0.8813
42031SOL    HW143703   4.394   3.995   8.106  2.2722 -1.1756 -1.4320
42031SOL    HW243704   4.367   3.932   8.241 -0.9902  0.9003 -0.9973
42032SOL     OW43705  13.163   6.977   2.622  0.3368 -0.1607  0.6366
42032SOL    HW143706  13.184   7.067   2.648  1.3540 -0.1067 -0.2849
42032SOL    HW243707  13.247   6.932   2.620 -0.1620 -1.1501  1.0870
42033SOL     OW43708   6.661  12.719   2.799  0.4316  0.7438  0.9211
42033SOL    HW143709   6.640  12.778   2.872  1.0590  2.3769 -0.1536
42033SOL    HW243710   6.745  12.750   2.767  0.5912 -0.5191  0.0557
42034SOL     OW43711   1.003   2.845   4.618  0.3993  0.3234  0.2584
42034SOL    HW143712   0.963   2.860   4.704 -0.0386  0.5181  0.0286
42034SOL    HW243713   1.041   2.930   4.595  0.9050  0.1535  0.4511
42035SOL     OW43714  10.051  10.195   8.316 -0.2338  0.2103 -0.3309
42035SOL    HW143715   9.998  10.192   8.396 -0.7003  0.3463 -0.6250
42035SOL    HW243716  10.018  10.121   8.264  2.6586 -2.3530  1.1609
42036SOL     OW43717   2.171   6.400   5.719  0.2025  0.1637 -0.2525
42036SOL    HW143718   2.188   6.494   5.732  1.5802  0.1504 -1.7200
42036SOL    HW243719   2.076   6.393   5.719  0.0727  1.5965 -0.3112
42037SOL     OW43720   5.319   6.023   0.407  0.3473 -0.5905  0.1008
42037SOL    HW143721   5.285   5.949   0.357 -1.1217 -1.2953  1.9676
42037SOL    HW243722   5.405   5.994   0.438  0.6282 -0.7204 -0.7915
42038SOL     OW43723   2.072  10.541   0.397  0.6510  0.0804 -0.1081
42038SOL    HW143724   2.058  10.635   0.399  0.7622  0.1884 -2.1898
42038SOL    HW243725   2.166  10.530   0.412  1.0690  0.5179 -2.0657
42039SOL     OW43726   5.868  11.539  10.502 -0.3076  0.1120 -0.3390
42039SOL    HW143727   5.946  11.586  10.476  0.6929 -1.3432 -0.0868
42039SOL    HW243728   5.854  11.474  10.432 -1.5473  0.6187 -0.5971
42040SOL     OW43729   4.674  10.068   8.660  0.0825  0.0109  0.7605
42040SOL    HW143730   4.652  10.051   8.569  2.7614  1.1915 -0.2402
42040SOL    HW243731   4.726   9.992   8.687 -0.8032 -0.3903  1.3551
42041SOL     OW43732   4.244   5.837   4.007  0.0495  0.1744 -0.4033
42041SOL    HW143733   4.307   5.772   4.039 -0.9683 -0.8824 -0.4739
42041SOL    HW243734   4.297   5.911   3.980  1.1368  0.1856  1.5452
42042SOL     OW43735   6.842   1.082   6.444  0.0632 -0.1633  0.2731
42042SOL    HW143736   6.850   1.166   6.399 -1.1736  0.0802  0.4666
42042SOL    HW243737   6.900   1.090   6.520 -2.1082  1.6645  1.8984
42043SOL     OW43738  11.983   7.715   2.972 -0.0442  0.5110  0.2520
42043SOL    HW143739  11.974   7.714   2.877  0.2331  0.0768  0.2287
42043SOL    HW243740  11.947   7.631   3.001  0.8294  0.1893  0.4341
42044SOL     OW43741   6.019   8.189  13.426 -0.1396 -0.0307 -0.4158
42044SOL    HW143742   5.928   8.170  13.449 -0.0554 -0.5253 -0.4879
42044SOL    HW243743   6.039   8.128  13.355  0.4488 -0.3557  0.0239
42045SOL     OW43744   0.729   7.016   8.195  0.0782  0.0556  0.2128
42045SOL    HW143745   0.734   7.099   8.243 -1.2220  0.3845 -0.1552
42045SOL    HW243746   0.691   7.040   8.110 -0.9430 -0.9971  0.3484
42046SOL     OW43747   0.734   9.266   1.572  0.2098 -0.2509  0.0775
42046SOL    HW143748   0.807   9.210   1.597  0.0348 -0.3851  0.2902
42046SOL    HW243749   0.753   9.351   1.611 -0.4624 -0.6743  1.3705
42047SOL     OW43750   8.832  10.980  12.249 -0.6535 -0.1753 -0.0558
42047SOL    HW143751   8.795  10.913  12.191 -2.4984  0.5668  0.1958
42047SOL    HW243752   8.761  11.043  12.261  0.3142  0.6819  1.4787
42048SOL     OW43753  12.212  12.464   1.009 -0.2586  0.1373  0.2331
42048SOL    HW143754  12.142  12.399   1.021 -0.4236  0.2343 -0.1766
42048SOL    HW243755  12.188  12.536   1.067 -0.0647 -0.1727  0.7045
42049SOL     OW43756   9.844  11.781  13.820  0.5510  0.7228  0.1182
42049SOL    HW143757   9.904  11.855  13.827  0.3731  0.8953 -0.2078
42049SOL    HW243758   9.853  11.736  13.904  1.7205  0.2943 -0.2208
42050SOL     OW43759   5.879   5.928   0.652  0.0109  0.2957 -0.1605
42050SOL    HW143760   5.803   5.876   0.677 -1.8209  1.7732 -2.2905
42050SOL    HW243761   5.938   5.866   0.609 -1.8340 -0.2349 -2.0676
42051SOL     OW43762   9.945   6.027  13.198 -0.2379  0.1078 -0.2203
42051SOL    HW143763   9.923   6.005  13.289 -2.8191 -2.9398 -1.3983
42051SOL    HW243764   9.872   6.082  13.169 -0.2644 -0.2686 -0.8787
42052SOL     OW43765   8.705  14.063   5.606  0.5808 -0.0103  0.7362
42052SOL    HW143766   8.729  14.110   5.686  0.0121 -0.1173  0.9818
42052SOL    HW243767   8.778  14.003   5.591  1.1676  0.7245  0.5912
42053SOL     OW43768  10.866  12.933  10.405  0.4992  0.5094  0.0145
42053SOL    HW143769  10.772  12.948  10.394  0.6304  0.4241 -1.2668
42053SOL    HW243770  10.902  13.020  10.425  0.3509  0.7907 -0.9330
42054SOL     OW43771   1.838   0.646  10.406  0.1536  0.1822  0.0303
42054SOL    HW143772   1.781   0.641  10.329 -2.0709  0.8790  1.5197
42054SOL    HW243773   1.910   0.702  10.379  0.0573 -0.5111 -1.8680
42055SOL     OW43774   5.908  13.656   5.097  0.2897  0.6707  0.2161
42055SOL    HW143775   5.859  13.582   5.060  3.2873 -0.7183 -1.3741
42055SOL    HW243776   5.914  13.719   5.025  1.3078  0.5308  0.1637
42056SOL     OW43777   3.707   3.082   5.850  0.0000  0.0965 -0.2286
42056SOL    HW143778   3.778   3.017   5.852 -0.3130 -0.2392  0.0213
42056SOL    HW243779   3.747   3.159   5.810  0.3442 -0.2909 -0.6467
42057SOL     OW43780   5.116   6.031   6.028 -0.1199  0.2419  0.3528
42057SOL    HW143781   5.043   6.058   5.972  1.1991  2.7467 -0.2983
42057SOL    HW243782   5.102   6.079   6.110  0.6904  0.6236  0.2764
42058SOL     OW43783   2.704   4.673   1.873  0.5028 -0.3004  0.2119
42058SOL    HW143784   2.687   4.704   1.962  0.9592 -0.2813  0.2997
42058SOL    HW243785   2.643   4.721   1.818  0.5989  0.1078  0.4522
42059SOL     OW43786  10.677   1.272   2.119  0.2222 -0.3346  0.1164
42059SOL    HW143787  10.613   1.256   2.049 -0.9698  0.1869  1.0380
42059SOL    HW243788  10.728   1.347   2.089 -0.3866 -0.0122 -0.1277
42060SOL     OW43789   3.149   7.461   2.878  0.1046  0.1843 -0.0215
42060SOL    HW143790   3.228   7.514   2.872  1.2898 -1.3696  1.0078
42060SOL    HW243791   3.077   7.524   2.878  1.4310  1.7655  1.0740
42061SOL     OW43792  11.924   3.556   8.617  0.5424  0.2649  0.1191
42061SOL    HW143793  11.883   3.632   8.659 -0.3471 -0.1538  0.0228
42061SOL    HW243794  11.855   3.491   8.612  2.0241 -1.7425  2.9951
42062SOL     OW43795  11.199  12.945   2.661 -0.1268  0.0061 -0.0450
42062SOL    HW143796  11.209  13.037   2.636 -2.0088  0.7325  1.6520
42062SOL    HW243797  11.227  12.942   2.752  1.5167 -1.4960 -0.5462
42063SOL     OW43798   2.292   0.629   5.655  0.8905 -0.2979 -0.3833
42063SOL    HW143799   2.250   0.554   5.614 -0.6985 -0.8287  2.0135
42063SOL    HW243800   2.240   0.704   5.627  0.1381 -0.5900  0.1934
42064SOL     OW43801   3.391   5.336   2.688  0.1622 -0.1275  0.0994
42064SOL    HW143802   3.427   5.247   2.691  0.0223 -0.2227 -0.8229
42064SOL    HW243803   3.439   5.379   2.618  1.9173  1.3094  2.0401
42065SOL     OW43804   1.599  10.144   4.932 -0.1526 -0.0010 -0.4059
42065SOL    HW143805   1.609  10.055   4.966 -0.1219  0.3729  0.6198
42065SOL    HW243806   1.677  10.190   4.962 -0.3221  0.4494 -0.6439
42066SOL     OW43807   3.091  12.758  12.384  0.0845 -0.3940  0.0852
42066SOL    HW143808   3.051  12.840  12.413  2.7733  1.6853 -1.4933
42066SOL    HW243809   3.053  12.743  12.297 -1.2444 -1.5362  0.8254
42067SOL     OW43810  11.980   8.935   4.797 -0.1933  0.1594 -0.2738
42067SOL    HW143811  12.062   8.939   4.747 -0.8793  2.5637 -1.3579
42067SOL    HW243812  11.919   8.892   4.737 -0.4125  0.9043 -0.5965
42068SOL     OW43813   1.654  13.687   8.066 -0.1965  0.7651 -0.4876
42068SOL    HW143814   1.684  13.778   8.068  0.3640  0.5677  0.9741
42068SOL    HW243815   1.616  13.671   8.152 -0.0923 -0.4473 -0.6402
42069SOL     OW43816   4.533   6.684   2.703  0.9376  0.0121  0.1905
42069SOL    HW143817   4.546   6.653   2.614 -1.4399 -0.5846 -0.0049
42069SOL    HW243818   4.495   6.772   2.694  1.0372  0.1083  0.6366
42070SOL     OW43819  12.947   8.927   0.076  0.2699  0.5975 -0.4775
42070SOL    HW143820  12.941   8.854   0.014  2.2751  0.8569 -1.0508
42070SOL    HW243821  13.038   8.925   0.106 -0.3098  1.3146  1.4511
42071SOL     OW43822  11.878  10.263   9.642 -0.3294  0.2075  0.3706
42071SOL    HW143823  11.808  10.215   9.688 -1.7079  0.0965 -1.6762
42071SOL    HW243824  11.843  10.351   9.630 -1.2273 -0.4367 -2.6626
42072SOL     OW43825   1.381   3.819  12.308  0.0863 -0.0513 -0.6366
42072SOL    HW143826   1.395   3.870  12.388  1.1012 -0.8018 -0.3198
42072SOL    HW243827   1.410   3.731  12.330  2.2316  0.1246 -2.3672
42073SOL     OW43828  11.710  13.351  12.191  0.3574  0.6575 -0.2186
42073SOL    HW143829  11.685  13.394  12.273 -0.1564 -2.1577  1.2612
42073SOL    HW243830  11.805  13.364  12.186  0.2454  1.7668  0.2326
42074SOL     OW43831   8.644   4.014  13.620 -0.3805 -0.4531 -0.3496
42074SOL    HW143832   8.585   4.085  13.644  1.4508  0.8368  0.6413
42074SOL    HW243833   8.611   3.938  13.669 -1.7631 -0.0411 -0.6098
42075SOL     OW43834   2.361   7.033   3.545  0.7077 -0.0820  0.3736
42075SOL    HW143835   2.425   6.963   3.535  1.0815  0.3549 -0.3924
42075SOL    HW243836   2.302   7.002   3.614  2.9476  0.4363  2.6478
42076SOL     OW43837   1.982   1.744   1.585  0.1959 -0.0985  0.1732
42076SOL    HW143838   1.943   1.778   1.666 -1.9382 -0.8647 -0.4763
42076SOL    HW243839   1.988   1.821   1.528 -0.9714 -0.0553  0.0793
42077SOL     OW43840   7.917   1.904   2.649  0.2628 -0.2024  0.0410
42077SOL    HW143841   7.859   1.967   2.605 -0.2920  0.2105  1.3349
42077SOL    HW243842   8.002   1.948   2.653  0.4507 -0.4350 -1.0192
42078SOL     OW43843   1.678  12.001   8.698  0.7961  0.2268  0.0293
42078SOL    HW143844   1.658  12.045   8.615  2.3521  0.1717 -0.4115
42078SOL    HW243845   1.772  12.014   8.710  0.7755 -0.5951  1.3181
42079SOL     OW43846   0.585  12.946   3.670  0.0486 -0.3285 -0.0162
42079SOL    HW143847   0.633  12.863   3.664  1.1041  0.1843  0.8276
42079SOL    HW243848   0.608  12.993   3.590  0.4723 -0.3538  0.0833
42080SOL     OW43849  13.253  12.128   2.448 -0.1351 -0.0105 -0.1295
42080SOL    HW143850  13.329  12.099   2.498 -0.1686  1.8048  1.0729
42080SOL    HW243851  13.275  12.108   2.357  1.6272  0.1612  0.2239
42081SOL     OW43852  13.763   9.428   3.209 -0.4010 -0.4137 -0.0896
42081SOL    HW143853  13.731   9.518   3.203  0.3170 -0.0941  0.6172
42081SOL    HW243854  13.758   9.407   3.303  1.5002 -0.3110  0.0782
42082SOL     OW43855   4.241   9.721   6.895 -0.2621 -0.3644 -0.7100
42082SOL    HW143856   4.240   9.627   6.874 -0.5827 -0.2679 -1.1286
42082SOL    HW243857   4.296   9.760   6.827  0.0786 -0.2757 -0.3911
42083SOL     OW43858  11.439  13.273   3.555 -0.0664  0.2421 -0.0031
42083SOL    HW143859  11.351  13.280   3.591  0.0099 -1.9382  0.7063
42083SOL    HW243860  11.488  13.343   3.599 -1.0566  0.4620  0.7884
42084SOL     OW43861   4.103   0.285   8.978  0.7241 -0.3306  0.9081
42084SOL    HW143862   4.129   0.206   9.025  1.0965 -2.2968 -2.3036
42084SOL    HW243863   4.185   0.334   8.966  0.7609 -0.2324  1.5109
42085SOL     OW43864   1.823  13.649   4.998 -0.1982  0.1128  0.3644
42085SOL    HW143865   1.849  13.655   4.907 -2.0424  0.2067 -0.1992
42085SOL    HW243866   1.902  13.671   5.048  1.0351 -0.6709 -1.1638
42086SOL     OW43867   8.118   7.762   1.608  0.3047  0.2603  0.0808
42086SOL    HW143868   8.062   7.695   1.570  1.8948 -0.3230 -1.3582
42086SOL    HW243869   8.193   7.714   1.643  2.3894  1.2666 -2.5910
42087SOL     OW43870   3.637   4.544   1.720  0.1537  0.0295 -0.8393
42087SOL    HW143871   3.639   4.449   1.711 -3.1926 -0.0114 -2.4314
42087SOL    HW243872   3.571   4.561   1.787  0.8348  1.2790 -0.4415
42088SOL     OW43873   9.020   5.601  13.661 -0.5174 -0.4255 -0.2509
42088SOL    HW143874   9.037   5.641  13.747  0.1203  0.5216 -0.7983
42088SOL    HW243875   8.973   5.520  13.681 -0.3321 -0.2451  0.9952
42089SOL     OW43876  11.829   5.646   7.205 -0.3379 -0.2397  0.3137
42089SOL    HW143877  11.777   5.567   7.218 -1.2273  0.2680 -0.1050
42089SOL    HW243878  11.913   5.625   7.246  0.4163 -2.4048 -2.0667
42090SOL     OW43879   8.909  10.893   5.780  0.0421  0.0130  0.1043
42090SOL    HW143880   8.961  10.815   5.761  1.2376  0.6666  0.6077
42090SOL    HW243881   8.905  10.897   5.876 -1.3629 -0.2819  0.0838
42091SOL     OW43882   5.289   3.402   1.498  0.8887  0.5204 -0.5858
42091SOL    HW143883   5.272   3.496   1.497  1.2951  0.6382  0.9810
42091SOL    HW243884   5.253   3.370   1.416 -0.0275  1.9117 -0.7568
42092SOL     OW43885   7.104   3.011  12.702 -0.2517 -0.2184  0.0704
42092SOL    HW143886   7.029   3.026  12.645  0.3766  0.7110 -0.5309
42092SOL    HW243887   7.172   2.977  12.644  0.1660  0.0568  0.3949
42093SOL     OW43888   4.772   6.020   1.778 -0.3748  0.2412  0.6583
42093SOL    HW143889   4.706   5.957   1.747 -0.0884 -0.0082  0.5467
42093SOL    HW243890   4.844   5.965   1.809  1.0027  0.4951 -1.8498
42094SOL     OW43891   8.913  10.930   9.479 -0.0971 -0.2765  0.4515
42094SOL    HW143892   8.949  10.855   9.526  1.9426  0.0905 -0.4059
42094SOL    HW243893   8.898  10.898   9.390 -1.7181 -0.3399  0.7154
42095SOL     OW43894  12.794  13.245   0.638  0.7179 -0.8903 -0.5347
42095SOL    HW143895  12.837  13.325   0.669  2.5114 -1.1057 -2.2527
42095SOL    HW243896  12.864  13.179   0.639 -0.1559 -1.8473 -1.2869
42096SOL     OW43897   8.771   8.570  13.151  0.0495 -0.6269 -0.5162
42096SOL    HW143898   8.739   8.495  13.101 -0.3393 -0.9170  0.1441
42096SOL    HW243899   8.717   8.570  13.230  1.3558 -0.8404  0.4109
42097SOL     OW43900  11.512   7.169   2.610 -0.6035  0.0299 -0.0342
42097SOL    HW143901  11.529   7.248   2.559 -1.3339 -0.2498 -0.7170
42097SOL    HW243902  11.580   7.171   2.678 -0.6765  1.2964  0.0381
42098SOL     OW43903   4.641  12.227   7.920 -0.3252 -0.3575  0.0808
42098SOL    HW143904   4.669  12.307   7.964  2.2150 -0.3729 -1.3181
42098SOL    HW243905   4.600  12.257   7.839 -1.5957 -0.4574  0.6520
42099SOL     OW43906   6.943   5.318   0.950  0.5684 -0.1385  0.2843
42099SOL    HW143907   6.909   5.251   0.890 -1.3262  2.1278 -1.3585
42099SOL    HW243908   6.898   5.302   1.032  1.9774 -2.3077  0.7046
42100SOL     OW43909  13.867  10.068  12.831  0.0328  0.5228 -0.7588
42100SOL    HW143910  13.895  10.127  12.762 -0.2652 -0.9108 -2.1585
42100SOL    HW243911  13.914  10.098  12.909  0.5059  2.0737 -1.6102
42101SOL     OW43912  11.005   8.796  10.703  0.2616  0.2353 -0.0982
42101SOL    HW143913  11.073   8.762  10.646  1.6761 -0.3628  1.8584
42101SOL    HW243914  10.977   8.721  10.755 -0.3398  0.9388  0.6211
42102SOL     OW43915   0.360   0.786   2.255 -0.1724 -0.0079  0.1550
42102SOL    HW143916   0.308   0.707   2.267 -1.4904  0.2759 -2.8535
42102SOL    HW243917   0.297   0.858   2.260  0.5712  0.6636  0.1196
42103SOL     OW43918  12.931  11.957   4.954 -0.1056 -0.5253  0.1079
42103SOL    HW143919  12.981  11.942   4.874  0.9580  1.6363  0.3017
42103SOL    HW243920  12.926  11.871   4.996 -0.2624 -1.6070 -1.9984
42104SOL     OW43921   6.118  13.295  10.202 -0.0325  0.6558  0.9468
42104SOL    HW143922   6.065  13.277  10.125  1.6053  0.1126 -0.1124
42104SOL    HW243923   6.068  13.360  10.252 -1.6007  0.2411 -0.0390
42105SOL     OW43924   3.242   1.038   1.853 -0.1015  0.0716 -0.4298
42105SOL    HW143925   3.324   0.993   1.875 -0.0198  0.4580  0.0694
42105SOL    HW243926   3.197   1.049   1.936 -0.2097  0.7351 -0.5732
42106SOL     OW43927   1.393   7.955   6.841  0.0413 -0.2141  0.1252
42106SOL    HW143928   1.449   7.900   6.896  1.2721  1.7476  0.9322
42106SOL    HW243929   1.452   8.022   6.806 -1.3381  0.4291 -1.0512
42107SOL     OW43930   8.010   6.002   0.266 -0.3916 -0.2342  0.2985
42107SOL    HW143931   8.028   5.933   0.201 -3.2862 -0.9434  0.1403
42107SOL    HW243932   8.096   6.040   0.283  1.0715 -2.6687 -0.9678
42108SOL     OW43933   7.837   1.640  13.266 -0.0776 -0.1834 -1.3835
42108SOL    HW143934   7.756   1.615  13.221 -1.9991  2.9514 -0.0451
42108SOL    HW243935   7.849   1.733  13.244  1.6683  0.1299  0.5712
42109SOL     OW43936  10.410   1.572  12.075  0.7041  0.1317  0.1132
42109SOL    HW143937  10.316   1.554  12.080  0.5103  0.9851 -0.3766
42109SOL    HW243938  10.418   1.643  12.012  1.8859 -1.5154 -1.7441
42110SOL     OW43939   4.426   3.837  10.879 -0.3541 -0.1213  0.5363
42110SOL    HW143940   4.423   3.742  10.892 -2.2797  0.0306  1.6164
42110SOL    HW243941   4.504   3.852  10.825 -0.5115 -2.3924 -0.4180
42111SOL     OW43942  12.647   8.794  12.342  0.2101 -0.1435 -0.0103
42111SOL    HW143943  12.636   8.882  12.378  0.4444  0.6296 -1.7050
42111SOL    HW243944  12.558   8.760  12.334  0.2048 -0.8434  2.3646
42112SOL     OW43945  12.181  12.513   6.476 -0.1012  0.4726  0.3529
42112SOL    HW143946  12.190  12.443   6.411 -1.2913 -0.5626  1.2596
42112SOL    HW243947  12.263  12.510   6.526 -0.0024 -0.0509  0.1628
42113SOL     OW43948   9.259   9.170   3.757  0.2404  0.3241 -0.2023
42113SOL    HW143949   9.205   9.094   3.734  0.2144  0.8493 -2.0215
42113SOL    HW243950   9.346   9.148   3.725  0.5261  0.5585  0.3949
42114SOL     OW43951   5.171   1.085   3.584  0.1073  0.2146  0.0453
42114SOL    HW143952   5.099   1.022   3.589  0.2112 -0.0665 -1.6080
42114SOL    HW243953   5.239   1.047   3.641  0.2664 -1.3399 -1.1119
42115SOL     OW43954   7.498   1.655   5.800 -0.3482 -0.2608  0.0764
42115SOL    HW143955   7.533   1.742   5.820  2.0964 -0.3443 -3.0359
42115SOL    HW243956   7.403   1.668   5.796 -0.0891  2.1196  0.2686
42116SOL     OW43957  12.051   2.150   4.822  0.2109  0.0733  0.1983
42116SOL    HW143958  12.017   2.114   4.740  2.0215  2.4816 -1.7633
42116SOL    HW243959  12.105   2.080   4.858  1.7271 -0.1304 -2.2302
42117SOL     OW43960  13.579   5.585   3.885 -0.3555 -0.1114 -0.1172
42117SOL    HW143961  13.591   5.612   3.794  1.0358 -0.6783 -0.1313
42117SOL    HW243962  13.561   5.666   3.933  0.0643  0.3508 -0.7264
42118SOL     OW43963  11.162   5.068  11.765 -0.5131 -0.0009  0.1814
42118SOL    HW143964  11.102   5.080  11.838 -0.2657 -1.6000  0.7006
42118SOL    HW243965  11.136   5.133  11.701 -0.3395  1.8558  1.9143
42119SOL     OW43966  13.477  11.917   8.990  0.0508  0.0371 -0.2774
42119SOL    HW143967  13.521  11.926   8.906 -3.3572 -2.5897 -2.5899
42119SOL    HW243968  13.532  11.855   9.038 -0.1112 -1.8854 -2.4087
42120SOL     OW43969   3.110  13.839   0.978 -0.6493 -0.0126 -0.2907
42120SOL    HW143970   3.110  13.899   1.052  1.3398  0.2424 -0.4370
42120SOL    HW243971   3.195  13.795   0.983  0.0270  0.8172 -3.0276
42121SOL     OW43972   2.700   8.676  13.098  0.1776 -0.8337  0.3643
42121SOL    HW143973   2.680   8.742  13.164  2.3238 -0.1338  0.3791
42121SOL    HW243974   2.616   8.659  13.055 -0.5658  1.3533  0.8423
42122SOL     OW43975   1.835   0.583   0.182  0.4011 -0.2894  0.7343
42122SOL    HW143976   1.800   0.664   0.145  0.3744  0.3808  2.1737
42122SOL    HW243977   1.779   0.514   0.146 -0.9039  0.5368  1.0984
42123SOL     OW43978   3.466   7.887  11.657  0.3732  0.0998 -0.2930
42123SOL    HW143979   3.441   7.801  11.623  0.2181 -0.7942  1.9041
42123SOL    HW243980   3.383   7.929  11.679  0.5033  0.1351  0.1431
42124SOL     OW43981   9.474   5.709   2.529  0.0175  0.2019  0.0371
42124SOL    HW143982   9.479   5.698   2.624  0.0160  1.0584  0.1458
42124SOL    HW243983   9.565   5.717   2.501  0.0157 -0.0127 -0.0300
42125SOL     OW43984   7.350   1.395   6.310  0.2013 -0.1809 -0.2218
42125SOL    HW143985   7.287   1.409   6.240 -1.5052 -0.8854  1.0811
42125SOL    HW243986   7.379   1.304   6.300 -0.9610 -0.6808  0.6122
42126SOL     OW43987   8.986   0.145   4.830  0.0299  0.0058 -0.4372
42126SOL    HW143988   9.050   0.112   4.893  0.9773  2.8130  0.2188
42126SOL    HW243989   9.039   0.178   4.757 -0.8063  0.2069 -0.9658
42127SOL     OW43990   5.694   9.971   9.861  0.1755  0.0281 -0.0372
42127SOL    HW143991   5.788   9.981   9.872  0.1803  2.3824 -1.5207
42127SOL    HW243992   5.669   9.905   9.925  3.1564 -2.4754 -1.2301
42128SOL     OW43993   3.851   1.234   8.968  0.2000 -0.4090 -0.1090
42128SOL    HW143994   3.931   1.270   8.930 -1.0805  1.0303 -1.6098
42128SOL    HW243995   3.864   1.139   8.964  1.7186 -0.2163 -0.5633
42129SOL     OW43996   0.094  13.480   2.795  0.1406  0.2808 -0.5410
42129SOL    HW143997  -0.000  13.490   2.812  0.5851  1.7995  1.4616
42129SOL    HW243998   0.136  13.519   2.872  2.4215 -0.9981 -1.0575
42130SOL     OW43999  13.798   7.259  13.797 -0.6860 -0.3686  0.2040
42130SOL    HW144000  13.770   7.265  13.888 -1.9646  0.3436 -0.2189
42130SOL    HW244001  13.765   7.175  13.767  0.2812 -0.8972  0.5443
42131SOL     OW44002  13.471   7.431  10.647 -0.2387 -0.2397 -0.0066
42131SOL    HW144003  13.433   7.371  10.583 -0.5101  1.0468 -1.1013
42131SOL    HW244004  13.397   7.485  10.675  0.5709  1.7920 -1.5819
42132SOL     OW44005   7.069  11.428   9.520  0.0733 -0.1178  0.4389
42132SOL    HW144006   7.032  11.425   9.432 -0.6360 -0.2864  0.7331
42132SOL    HW244007   7.157  11.463   9.508 -0.2186  0.3938 -0.2718
42133SOL     OW44008  10.427   0.042  10.797  0.1974 -0.2660  0.4317
42133SOL    HW144009  10.407  -0.046  10.830 -1.6896 -0.3645 -0.8087
42133SOL    HW244010  10.437   0.030  10.703 -1.1405  0.9919  0.1029
42134SOL     OW44011  11.158  11.999   7.014 -0.3017  0.1866  0.1126
42134SOL    HW144012  11.252  11.988   7.028 -0.3137  0.9072  0.7780
42134SOL    HW244013  11.136  11.931   6.950  0.0234 -2.3587  2.4886
42135SOL     OW44014  10.367   8.119   2.195  0.2890  0.2152 -0.4361
42135SOL    HW144015  10.371   8.024   2.188  0.0884  0.1359  0.4836
42135SOL    HW244016  10.321   8.136   2.277  2.9186  1.0851  0.9739
42136SOL     OW44017   3.314   1.229   8.618  0.6821  0.1957 -0.1458
42136SOL    HW144018   3.350   1.295   8.559  1.6484  1.3983  1.7125
42136SOL    HW244019   3.322   1.267   8.705 -0.5280 -1.5966  0.8171
42137SOL     OW44020   6.375  10.990   7.288  0.3257 -1.0238  1.1964
42137SOL    HW144021   6.365  10.895   7.280 -1.8176 -0.7189 -1.1623
42137SOL    HW244022   6.455  11.010   7.240 -0.3806 -1.5041 -0.2491
42138SOL     OW44023   1.243   8.484   7.701 -0.1087 -0.1939 -0.0100
42138SOL    HW144024   1.324   8.437   7.718 -0.3878 -0.4953  0.5287
42138SOL    HW244025   1.180   8.445   7.762 -0.8213 -0.4173 -0.8673
42139SOL     OW44026   0.015   7.205   3.110 -0.0510  0.2836 -0.2644
42139SOL    HW144027   0.099   7.250   3.099 -0.0343  0.6089  1.0206
42139SOL    HW244028   0.029   7.146   3.184 -1.0346  0.5364  0.1360
42140SOL     OW44029  10.473   4.231   2.013  0.1849  0.4509  0.1817
42140SOL    HW144030  10.509   4.272   2.093 -1.5199  1.3218  0.5465
42140SOL    HW244031  10.549   4.222   1.955  1.3979  0.1546  1.7411
42141SOL     OW44032   6.067  13.756   4.445  0.2211  0.0807  0.3777
42141SOL    HW144033   6.088  13.717   4.530  1.2215 -1.4695 -0.5365
42141SOL    HW244034   6.144  13.737   4.391 -0.0219  1.8092 -0.6385
42142SOL     OW44035  13.291   9.011   0.795  0.5044  0.4100 -0.0219
42142SOL    HW144036  13.291   9.072   0.868  2.0744  0.3873  0.0241
42142SOL    HW244037  13.366   8.954   0.810 -0.8061 -1.4723 -0.1391
42143SOL     OW44038   6.504  12.386   8.466  0.3265  0.0058  0.8480
42143SOL    HW144039   6.569  12.319   8.445 -0.9268 -0.3279 -2.7677
42143SOL    HW244040   6.552  12.468   8.465  1.0369 -0.4021  0.0610
42144SOL     OW44041   8.248   3.206   3.336  0.1526  0.0116  0.7087
42144SOL    HW144042   8.228   3.286   3.385 -0.5910  1.3980 -1.6781
42144SOL    HW244043   8.184   3.207   3.264  0.4042 -2.5459  0.3870
42145SOL     OW44044   8.135   8.771   1.758 -0.3552  0.6000  0.1416
42145SOL    HW144045   8.188   8.738   1.831 -0.1724  0.7854  0.0955
42145SOL    HW244046   8.046   8.743   1.778 -0.2253  0.2038  0.1734
42146SOL     OW44047   7.870  12.211   6.814 -0.6654 -0.6603 -0.3821
42146SOL    HW144048   7.879  12.138   6.752 -0.0057  0.3354 -1.5274
42146SOL    HW244049   7.781  12.204   6.848 -0.5062 -2.1626 -0.2380
42147SOL     OW44050   4.734   6.837   3.932 -0.1045  0.5923  0.8253
42147SOL    HW144051   4.753   6.772   3.864 -1.6841  0.3078  0.6262
42147SOL    HW244052   4.639   6.848   3.929  0.0541  2.3837  1.3636
42148SOL     OW44053  13.062   8.898   1.351 -0.0893 -0.3230  0.2249
42148SOL    HW144054  13.100   8.962   1.290  0.5194 -0.3982  0.5296
42148SOL    HW244055  13.113   8.907   1.431 -1.6492  0.6596  1.1842
42149SOL     OW44056   4.193  10.844   4.407  0.5662 -0.7755  0.3148
42149SOL    HW144057   4.242  10.763   4.390 -0.3557 -1.3767  0.4634
42149SOL    HW244058   4.194  10.853   4.503  2.1310  0.3313  0.2298
42150SOL     OW44059   6.653   7.402   4.654 -0.0441 -0.0306 -0.1462
42150SOL    HW144060   6.692   7.396   4.567 -0.4887  0.3998 -0.3839
42150SOL    HW244061   6.626   7.494   4.663 -0.8947 -0.2808  0.0429
42151SOL     OW44062  12.214   0.072   8.202 -0.5941  0.0426 -0.5864
42151SOL    HW144063  12.288   0.034   8.154 -0.8151 -0.5000 -0.5060
42151SOL    HW244064  12.228   0.166   8.197 -1.0686  0.0550 -2.4754
42152SOL     OW44065   0.653   7.214  11.916 -0.3954 -0.1714  0.0390
42152SOL    HW144066   0.558   7.226  11.921 -0.5080 -0.5569 -0.9795
42152SOL    HW244067   0.679   7.265  11.840  0.6695  2.4078  1.9586
42153SOL     OW44068  11.481   9.879   3.898  0.2446 -0.4869  0.1528
42153SOL    HW144069  11.561   9.887   3.949  1.8421 -2.5954 -1.8486
42153SOL    HW244070  11.427   9.818   3.948  1.1203 -1.3191  0.1054
42154SOL     OW44071   0.320   7.176   6.727  0.7337  0.2806  0.1776
42154SOL    HW144072   0.370   7.099   6.752  2.1489  1.7041  2.0137
42154SOL    HW244073   0.256   7.187   6.797  0.8380  1.0103  0.1621
42155SOL     OW44074   2.909   1.175   1.766 -0.0284  0.0850  0.1378
42155SOL    HW144075   2.814   1.172   1.757  0.1034  0.5032 -2.1705
42155SOL    HW244076   2.941   1.105   1.708  1.0834  2.0643 -1.8300
42156SOL     OW44077  11.181   4.103   6.197  0.3335 -0.4018 -0.5698
42156SOL    HW144078  11.139   4.076   6.115 -0.0576 -0.8350 -0.2338
42156SOL    HW244079  11.202   4.020   6.241  0.2012 -0.1657 -0.0594
42157SOL     OW44080   0.572   6.364   0.912 -0.1572  0.2839  0.0236
42157SOL    HW144081   0.548   6.386   1.002  0.9840 -0.9678  0.6712
42157SOL    HW244082   0.640   6.429   0.890  0.6364 -0.3167  0.6297
42158SOL     OW44083   9.602   3.958   1.031  0.0302  0.5625 -0.0916
42158SOL    HW144084   9.675   3.901   1.055 -1.5360 -1.0704  1.0940
42158SOL    HW244085   9.586   3.940   0.939 -0.3557 -0.9075  0.2361
42159SOL     OW44086   0.112   5.469   3.627 -0.0819 -0.0023  0.9357
42159SOL    HW144087   0.070   5.539   3.576 -0.2899  0.7203  2.0479
42159SOL    HW244088   0.057   5.392   3.613 -0.6062  0.4023  0.7365
42160SOL     OW44089   8.713  10.157   0.665  0.8369 -0.5901  0.5987
42160SOL    HW144090   8.658  10.161   0.744  0.6684  0.8040  0.4344
42160SOL    HW244091   8.684  10.078   0.619 -1.9723  0.7735 -0.1498
42161SOL     OW44092   6.626  10.091  10.284 -0.2784 -0.0609  0.3497
42161SOL    HW144093   6.681  10.016  10.259  2.3015  1.4410  1.0579
42161SOL    HW244094   6.552  10.088  10.225  0.0418 -2.8135 -0.0323
42162SOL     OW44095  12.501  14.062   9.231  0.0227  0.1966  0.8695
42162SOL    HW144096  12.547  14.120   9.171 -1.3143 -0.1525 -0.5792
42162SOL    HW244097  12.536  13.975   9.212 -0.2344  0.1172  0.7494
42163SOL     OW44098  11.476   4.593  12.911 -0.2468 -0.2139  0.5222
42163SOL    HW144099  11.392   4.617  12.872 -0.3429  0.6583  1.2303
42163SOL    HW244100  11.502   4.513  12.866 -1.4755 -0.5127  0.3224
42164SOL     OW44101   1.528  13.240  11.629 -0.3768 -0.3952 -0.2991
42164SOL    HW144102   1.459  13.291  11.588 -0.5221 -0.3171  0.0467
42164SOL    HW244103   1.576  13.302  11.684  0.8095 -0.1337 -1.5612
42165SOL     OW44104   9.928   4.411   4.561 -0.3520 -0.6556  0.3025
42165SOL    HW144105   9.983   4.488   4.571  0.3710 -1.2907  1.5046
42165SOL    HW244106   9.848   4.443   4.518  0.8140  0.3384 -1.2123
42166SOL     OW44107  11.360   1.386  13.209  0.3241  0.4097  0.2547
42166SOL    HW144108  11.366   1.475  13.175  2.7364 -0.0936 -0.8699
42166SOL    HW244109  11.448   1.366  13.239 -0.0777 -1.7175  0.1648
42167SOL     OW44110  14.086   1.971  11.318  0.1658  1.1381  0.0718
42167SOL    HW144111  13.992   1.987  11.324 -0.2823  0.0774 -2.5979
42167SOL    HW244112  14.119   1.986  11.406 -2.8093 -0.3256  1.5775
42168SOL     OW44113   3.620   9.923  10.259 -0.0672 -0.0547  0.0706
42168SOL    HW144114   3.526   9.929  10.277  0.1214  1.8540  0.6923
42168SOL    HW244115   3.660   9.988  10.318  1.8929 -2.2770  1.3670
42169SOL     OW44116   0.832   2.949   8.226 -0.2699 -0.1942  0.7042
42169SOL    HW144117   0.802   3.026   8.177 -0.6848  0.3630  1.7866
42169SOL    HW244118   0.927   2.950   8.216 -0.3882 -0.5146 -0.6681
42170SOL     OW44119  13.197  11.843   9.504  0.2357  0.5343 -0.1970
42170SOL    HW144120  13.283  11.871   9.473  0.4311  0.8587  0.6153
42170SOL    HW244121  13.214  11.803   9.590 -0.2296 -0.7529 -0.6716
42171SOL     OW44122   9.115  12.753   6.949 -0.2264 -1.1154  0.6356
42171SOL    HW144123   9.174  12.794   7.012  1.1088  1.2167 -1.9387
42171SOL    HW244124   9.027  12.777   6.980  0.4385  1.5246  0.7045
42172SOL     OW44125   6.705  11.739  13.428 -0.0312  0.1234 -0.0023
42172SOL    HW144126   6.733  11.812  13.482 -2.0743  1.1830 -0.2842
42172SOL    HW244127   6.716  11.770  13.338 -0.1824 -0.2109 -0.1367
42173SOL     OW44128   0.924   0.868   6.562 -0.6432 -0.0737 -0.0936
42173SOL    HW144129   0.892   0.849   6.651  0.0804  1.6529  0.5824
42173SOL    HW244130   0.845   0.891   6.513 -0.9992 -0.6311  0.2055
42174SOL     OW44131   9.184  13.917  11.597  0.1517 -1.1418 -0.6357
42174SOL    HW144132   9.104  13.899  11.548  0.7182  1.1310 -2.6085
42174SOL    HW244133   9.222  13.993  11.553  2.2375 -0.7413  1.6403
42175SOL     OW44134  11.360   7.275  10.707 -0.0279 -0.4596  0.6453
42175SOL    HW144135  11.325   7.186  10.703 -0.8327 -0.1685  1.0450
42175SOL    HW244136  11.283   7.332  10.706  0.5131  0.3168 -1.3543
42176SOL     OW44137  12.677  11.393   1.655 -0.0082  0.6706 -0.1879
42176SOL    HW144138  12.588  11.404   1.622 -0.7166  0.3131  1.5048
42176SOL    HW244139  12.720  11.339   1.589 -1.9170 -1.6251  0.3197
42177SOL     OW44140   5.207   2.821  11.626  0.4547  0.1114 -1.1157
42177SOL    HW144141   5.211   2.915  11.648 -0.2137 -0.1648  0.3371
42177SOL    HW244142   5.116   2.797  11.641  1.0574 -1.2383  0.7896
42178SOL     OW44143  13.939   8.424   5.917 -0.2214 -0.1217  0.3758
42178SOL    HW144144  13.980   8.483   5.853 -1.6285 -1.0381 -1.4875
42178SOL    HW244145  13.851   8.461   5.929 -0.3025 -0.5271  1.0242
42179SOL     OW44146   2.125  12.672  10.133 -0.2259  0.2498 -0.1341
42179SOL    HW144147   2.143  12.578  10.128  1.0979  0.4256  0.7363
42179SOL    HW244148   2.123  12.701  10.042  0.5910 -0.4254 -0.3818
42180SOL     OW44149  10.857   0.464  12.278 -0.1493  0.1532 -0.1261
42180SOL    HW144150  10.832   0.375  12.305  0.9812 -0.3655 -0.7264
42180SOL    HW244151  10.939   0.481  12.324 -0.9185  1.3640  0.8732
42181SOL     OW44152   7.503   0.098   2.366  0.2454  0.0493 -0.1143
42181SOL    HW144153   7.491   0.061   2.454 -2.2269 -3.3517 -1.6782
42181SOL    HW244154   7.428   0.156   2.353  0.7997  0.8362  0.0569
42182SOL     OW44155   2.319   6.459  12.868  0.0144 -0.7035  0.1263
42182SOL    HW144156   2.223   6.458  12.866 -0.0661  0.3773  1.4523
42182SOL    HW244157   2.342   6.552  12.867  1.0345 -0.9438  0.1847
42183SOL     OW44158   4.133   7.426   1.238 -0.2718 -0.4710 -0.2620
42183SOL    HW144159   4.056   7.426   1.181  0.6847 -0.4982 -1.6075
42183SOL    HW244160   4.103   7.467   1.319 -1.9347 -1.2969 -0.4006
42184SOL     OW44161   5.499  11.333  13.689  0.1222 -0.2637  0.2075
42184SOL    HW144162   5.506  11.239  13.668  0.8604 -0.0822 -0.4239
42184SOL    HW244163   5.464  11.372  13.608 -1.6414 -0.1717  0.9564
42185SOL     OW44164   1.383   9.380  13.383  0.1979 -1.0682  0.0890
42185SOL    HW144165   1.299   9.407  13.347  0.3648 -0.3924  0.2007
42185SOL    HW244166   1.414   9.456  13.432  1.6765 -0.6941 -1.3693
42186SOL     OW44167   7.743  10.527   3.888 -0.2236 -0.5825  0.3933
42186SOL    HW144168   7.680  10.464   3.922  0.0320  0.2215  2.4507
42186SOL    HW244169   7.806  10.474   3.839  0.0937 -1.9845  2.2140
42187SOL     OW44170   9.317   1.767   2.031 -0.2929  0.2671  1.2512
42187SOL    HW144171   9.402   1.786   2.071  2.5340  0.9954 -4.1607
42187SOL    HW244172   9.323   1.676   2.004 -2.0870 -0.2088  2.2665
42188SOL     OW44173  12.931   4.711  10.879 -0.2855 -0.3649 -0.4207
42188SOL    HW144174  12.915   4.804  10.866  0.6343 -0.2318 -0.7011
42188SOL    HW244175  12.886   4.690  10.960 -0.5367  0.3200 -0.3794
42189SOL     OW44176   9.574   1.048  10.081  0.0594 -0.0920 -0.6297
42189SOL    HW144177   9.641   1.010  10.025  0.4570 -1.1052  0.4822
42189SOL    HW244178   9.495   1.050  10.027  0.5357 -0.6271 -1.3540
42190SOL     OW44179  13.541  10.704   8.627  0.0780 -0.2452  0.2271
42190SOL    HW144180  13.448  10.704   8.605  0.2335 -1.6516 -0.5845
42190SOL    HW244181  13.545  10.740   8.716 -1.0577  1.3247 -0.3136
42191SOL     OW44182   3.071   3.769   4.475 -0.0969  0.0210 -0.0346
42191SOL    HW144183   3.076   3.750   4.381  1.2468  1.7470 -0.3624
42191SOL    HW244184   3.162   3.769   4.504 -0.5305 -1.2296  1.4682
42192SOL     OW44185   5.639  12.919   8.242  0.3149  0.2862 -0.6272
42192SOL    HW144186   5.575  12.953   8.179 -0.3742 -0.1754 -0.1926
42192SOL    HW244187   5.649  12.827   8.219 -0.5575 -0.0967  0.4063
42193SOL     OW44188   6.207   2.393  12.306  0.0063 -0.5411 -0.2356
42193SOL    HW144189   6.190   2.481  12.272 -0.5126 -0.8539 -0.8102
42193SOL    HW244190   6.279   2.405  12.368 -0.5245  0.3953  0.2230
42194SOL     OW44191   5.834   0.733   0.339  0.4483  0.0560 -0.0288
42194SOL    HW144192   5.856   0.813   0.291  0.0886  0.1430 -0.0530
42194SOL    HW244193   5.822   0.666   0.271  1.4867 -0.2046  0.0333
42195SOL     OW44194   8.225  13.995  13.154  0.6338 -0.0739 -0.2532
42195SOL    HW144195   8.251  14.068  13.210  1.1357  2.1822 -3.1780
42195SOL    HW244196   8.305  13.944  13.141  1.7651  2.0843 -2.5287
42196SOL     OW44197  10.260   1.909   7.729  0.4410  0.4428  0.1172
42196SOL    HW144198  10.323   1.916   7.657 -0.1959 -0.1351 -0.5289
42196SOL    HW244199  10.310   1.877   7.803  0.6170 -1.7503 -0.8724
42197SOL     OW44200   6.777   1.805  13.512 -0.4616 -0.7958  0.3539
42197SOL    HW144201   6.686   1.804  13.481 -0.2058  0.2301 -0.5307
42197SOL    HW244202   6.788   1.894  13.547  0.4490 -0.6015 -0.3946
42198SOL     OW44203   7.464  10.879   4.735  0.2324 -0.6187 -0.4476
42198SOL    HW144204   7.469  10.849   4.826 -0.5676 -0.7434 -0.4372
42198SOL    HW244205   7.406  10.955   4.738 -0.4055 -1.0667 -0.9536
42199SOL     OW44206   4.927   7.466   5.070 -0.8391  0.3948 -0.1255
42199SOL    HW144207   4.917   7.491   4.978 -0.1071 -1.5908 -0.7885
42199SOL    HW244208   4.946   7.548   5.115 -0.1175  1.2609 -1.9126
42200SOL     OW44209   4.440  13.002   1.443 -0.2870 -0.1705 -0.3497
42200SOL    HW144210   4.357  12.973   1.479  0.5069 -0.7696  1.0976
42200SOL    HW244211   4.429  13.097   1.432 -1.4330 -0.3617 -1.0079
42201SOL     OW44212   7.679   6.092   1.896  0.0685  0.0791  0.2110
42201SOL    HW144213   7.727   6.025   1.945 -1.9541 -1.8613 -0.3010
42201SOL    HW244214   7.637   6.146   1.964 -1.7037 -1.8175  0.7099
42202SOL     OW44215   0.325  11.390  11.713 -0.3572 -0.1493  0.8657
42202SOL    HW144216   0.405  11.439  11.695 -0.9481 -0.1004 -2.2538
42202SOL    HW244217   0.354  11.301  11.731  0.4522  0.1550  1.0982
42203SOL     OW44218  12.984   5.128  12.849 -0.2596 -0.0705 -0.2571
42203SOL    HW144219  13.034   5.123  12.930 -0.5210  0.0496 -0.0840
42203SOL    HW244220  12.897   5.157  12.877 -0.2403  0.3538 -0.6272
42204SOL     OW44221  12.567   0.492  10.392  0.1643 -0.0856  0.5927
42204SOL    HW144222  12.617   0.425  10.438 -0.0306  0.4675  1.6498
42204SOL    HW244223  12.534   0.549  10.462 -0.7080  0.3943 -0.1898
42205SOL     OW44224   3.542  13.270   9.057  0.2198  0.0354  0.3474
42205SOL    HW144225   3.526  13.340   8.994 -0.6291 -1.5475 -1.2813
42205SOL    HW244226   3.475  13.284   9.125 -1.5823 -0.5672 -1.2108
42206SOL     OW44227   4.343   0.619  13.725 -0.3638  0.1020  0.5743
42206SOL    HW144228   4.259   0.583  13.696 -0.6838  0.3666  1.1715
42206SOL    HW244229   4.395   0.624  13.645 -0.2807 -1.7328  0.4673
42207SOL     OW44230   0.387   5.022   1.933  1.1384 -0.6834 -0.2178
42207SOL    HW144231   0.402   5.116   1.936 -3.4175  0.2918  2.3772
42207SOL    HW244232   0.435   4.987   2.008  0.3174  0.2283  0.7745
42208SOL     OW44233   5.821  12.551  10.063  0.0708  0.0797 -0.1612
42208SOL    HW144234   5.802  12.508  10.146  1.5691  0.2899  0.3235
42208SOL    HW244235   5.823  12.645  10.085  0.1678  0.1583 -0.5003
42209SOL     OW44236   1.115   8.385  14.066 -0.4255 -0.2435 -0.5271
42209SOL    HW144237   1.122   8.397  14.161  1.1867 -0.8108 -0.5380
42209SOL    HW244238   1.062   8.306  14.056 -0.7415 -0.0914 -0.1050
42210SOL     OW44239  13.300   8.926   2.591 -0.4534  0.0837  0.1892
42210SOL    HW144240  13.262   8.964   2.670 -0.9393 -0.5593  0.2741
42210SOL    HW244241  13.319   9.001   2.535 -2.8379  0.4374 -0.2933
42211SOL     OW44242   7.810   3.308  12.236 -0.2886 -0.0261 -0.0262
42211SOL    HW144243   7.856   3.311  12.320 -0.3838  1.0676  0.0072
42211SOL    HW244244   7.844   3.229  12.193  1.8563  0.8520 -0.1059
42212SOL     OW44245   7.847   1.131   0.016  0.4051 -0.5622  0.1334
42212SOL    HW144246   7.842   1.055  -0.042  3.1367 -1.5911  1.0800
42212SOL    HW244247   7.905   1.192  -0.029  1.3388 -0.7315  1.0711
42213SOL     OW44248   6.779   2.390   5.433  0.6245  0.0417  0.2314
42213SOL    HW144249   6.789   2.484   5.448  0.6642  0.3084 -1.2977
42213SOL    HW244250   6.754   2.355   5.519 -0.8641  1.6630  0.5313
42214SOL     OW44251   1.065  10.763  11.692  0.1005 -0.0045  0.3615
42214SOL    HW144252   1.115  10.693  11.734  0.0985 -0.7118 -0.7649
42214SOL    HW244253   1.105  10.844  11.723  1.2358 -0.5453  0.3426
42215SOL     OW44254   5.842  10.669  10.943 -0.5808 -0.0368  0.2030
42215SOL    HW144255   5.869  10.756  10.973  0.6252 -0.4797  0.4405
42215SOL    HW244256   5.846  10.674  10.847  1.5212 -0.3993  0.2114
42216SOL     OW44257  13.443   3.667   2.694  0.4305 -0.3106 -0.2165
42216SOL    HW144258  13.372   3.711   2.740  1.6361 -0.8634  2.3587
42216SOL    HW244259  13.510   3.734   2.684  0.3300 -0.2985 -0.8290
42217SOL     OW44260   0.912   0.245  13.700  1.1245  0.6792 -0.0661
42217SOL    HW144261   0.851   0.305  13.743 -1.3152 -1.6027 -0.1064
42217SOL    HW244262   0.925   0.174  13.763  0.2592 -0.9917 -1.6769
42218SOL     OW44263   4.179   0.172  12.803  0.2050  0.0121  0.2447
42218SOL    HW144264   4.269   0.142  12.786  1.1224  2.4203  0.4586
42218SOL    HW244265   4.150   0.120  12.878  1.0170 -1.4895 -0.4227
42219SOL     OW44266  12.957   6.335  13.759  0.0325  0.5335  0.1611
42219SOL    HW144267  12.951   6.308  13.667  0.5375  0.0141  0.2707
42219SOL    HW244268  12.881   6.296  13.801  1.0400 -1.2619  0.4335
42220SOL     OW44269   9.113  11.416  10.026 -0.1429  0.4001 -0.0384
42220SOL    HW144270   9.049  11.451   9.963  0.3548 -0.6007 -1.1314
42220SOL    HW244271   9.104  11.321  10.020  0.8349  0.2582  0.4540
42221SOL     OW44272  10.239   3.559   5.020  0.4421  0.0750  0.2387
42221SOL    HW144273  10.215   3.492   4.956 -0.4706  2.6610 -2.3192
42221SOL    HW244274  10.163   3.563   5.079  0.8250 -1.5631  0.9126
42222SOL     OW44275  11.843  11.602  12.663 -0.1068 -0.4115  0.0167
42222SOL    HW144276  11.798  11.633  12.584  0.8952 -2.0711 -1.2667
42222SOL    HW244277  11.884  11.520  12.636  2.3105  0.1991  1.5880
42223SOL     OW44278  13.267   9.081   7.076 -0.3689 -0.4529 -0.1277
42223SOL    HW144279  13.332   9.074   7.145 -0.7084  0.8621  0.3686
42223SOL    HW244280  13.192   9.125   7.118  0.1018  2.0945 -1.7193
42224SOL     OW44281   9.197   3.920   3.503  0.0276 -0.2522 -0.1418
42224SOL    HW144282   9.284   3.926   3.464 -0.6822 -0.4463 -1.8163
42224SOL    HW244283   9.158   3.843   3.462 -1.3593  0.5176 -0.2875
42225SOL     OW44284   5.628  10.316   5.583  0.1689 -0.3135 -0.4974
42225SOL    HW144285   5.552  10.337   5.639 -0.2780 -0.5097 -1.0179
42225SOL    HW244286   5.629  10.386   5.518  0.3440 -0.3973 -0.5847
42226SOL     OW44287  10.333   7.571   2.203 -0.0409 -0.2280 -0.6412
42226SOL    HW144288  10.250   7.551   2.248  0.1271  1.6724  0.6029
42226SOL    HW244289  10.400   7.544   2.265  0.2681 -0.6067 -1.1341
42227SOL     OW44290   4.234   8.339   1.483  0.3328 -0.3254  0.1024
42227SOL    HW144291   4.229   8.384   1.567  2.3263 -1.0239  0.6312
42227SOL    HW244292   4.165   8.273   1.488  0.5661 -0.5081  1.2916
42228SOL     OW44293   0.877   1.402   3.904 -0.2923 -0.2835  0.6663
42228SOL    HW144294   0.874   1.437   3.993 -1.2077 -0.2294  0.6298
42228SOL    HW244295   0.969   1.379   3.890  0.2417  1.6028  0.8761
42229SOL     OW44296   8.525   3.743   5.088  0.0169 -0.2778 -0.1576
42229SOL    HW144297   8.570   3.759   5.171 -0.4550 -1.0224  0.2579
42229SOL    HW244298   8.589   3.698   5.034  0.2952  0.1232 -0.1655
42230SOL     OW44299  10.472   0.527   1.142 -0.1810 -0.3027 -0.0158
42230SOL    HW144300  10.525   0.579   1.202  0.1072 -2.5442  1.8086
42230SOL    HW244301  10.382   0.557   1.156  0.2037  1.3982 -0.8927
42231SOL     OW44302  11.751   8.973   7.540 -0.3173  0.1091  0.4366
42231SOL    HW144303  11.724   9.037   7.606 -0.4891 -0.1029  0.5769
42231SOL    HW244304  11.773   8.895   7.590  1.7249  0.6381  0.4157
42232SOL     OW44305   8.231   9.374   5.657 -0.1679 -0.6817 -0.1637
42232SOL    HW144306   8.156   9.417   5.697  0.0198 -1.0440  0.5890
42232SOL    HW244307   8.200   9.287   5.634  0.3386 -1.2881  1.2968
42233SOL     OW44308   0.734  14.075  14.084  0.0746  0.4790 -0.0215
42233SOL    HW144309   0.781  14.050  14.164 -0.1045  0.1713 -0.0092
42233SOL    HW244310   0.797  14.126  14.034  0.4549 -0.0108 -0.0519
42234SOL     OW44311  13.761   4.688   2.502  0.0338 -0.3532  0.3003
42234SOL    HW144312  13.809   4.769   2.486 -1.5589  0.6032  0.1947
42234SOL    HW244313  13.724   4.700   2.589  0.3410 -1.2820  0.5718
42235SOL     OW44314   9.147  11.873  11.724 -0.2592 -0.5237  0.0918
42235SOL    HW144315   9.193  11.811  11.667 -0.7045 -0.6959 -0.0823
42235SOL    HW244316   9.216  11.932  11.755  0.0587 -0.6960 -0.2764
42236SOL     OW44317   3.396  10.752   2.389 -0.0547  0.3028 -0.0927
42236SOL    HW144318   3.352  10.668   2.402 -0.1668  0.6233  2.1180
42236SOL    HW244319   3.463  10.735   2.323 -0.3168 -1.4329  0.0458
42237SOL     OW44320   2.155   1.207   3.373  0.3490 -0.2718 -0.4301
42237SOL    HW144321   2.073   1.255   3.360  0.7551  0.3542 -0.7181
42237SOL    HW244322   2.177   1.173   3.286  0.9069  0.3999 -0.5565
42238SOL     OW44323   7.311  13.423   8.908 -0.2741 -0.8981  0.5794
42238SOL    HW144324   7.362  13.503   8.895  0.1163 -1.1806  0.3508
42238SOL    HW244325   7.374  13.361   8.944 -0.6526 -1.0075  1.0607
42239SOL     OW44326   0.784   1.895   1.932  0.2844  0.9935  0.4953
42239SOL    HW144327   0.874   1.892   1.964 -0.2385  0.3384  1.9823
42239SOL    HW244328   0.765   1.989   1.926  1.6500  1.2001 -1.6862
42240SOL     OW44329   2.650   2.557   6.819  0.5863 -0.2709 -0.0522
42240SOL    HW144330   2.734   2.549   6.865  0.4864  1.8221  0.6156
42240SOL    HW244331   2.603   2.626   6.867 -0.6499  0.0797 -1.6698
42241SOL     OW44332   4.138   6.310   9.994 -0.4654  0.0211 -0.5992
42241SOL    HW144333   4.089   6.377  10.042 -1.3338  0.3350 -1.8402
42241SOL    HW244334   4.087   6.298   9.913  0.9858 -0.3798 -1.4894
42242SOL     OW44335   3.344   9.157   8.925 -0.0794  0.3766  0.2495
42242SOL    HW144336   3.281   9.086   8.939 -0.0856  0.3762  0.2202
42242SOL    HW244337   3.301   9.215   8.863  0.4370 -0.2635 -0.7524
42243SOL     OW44338   8.368   9.081   9.476  0.4307 -0.2715 -0.8366
42243SOL    HW144339   8.318   9.009   9.514  2.2398 -1.3750 -0.3988
42243SOL    HW244340   8.323   9.160   9.505  0.5577 -1.1193  2.0294
42244SOL     OW44341   6.734   0.069   2.252  0.5360 -0.2082 -0.0938
42244SOL    HW144342   6.783   0.111   2.322 -0.7896  0.6110  0.3814
42244SOL    HW244343   6.735  -0.024   2.275  0.2507  0.0312  0.9309
42245SOL     OW44344   3.625   6.762   2.486 -0.0618  0.2143  0.0041
42245SOL    HW144345   3.532   6.776   2.466  0.2521  3.9700  0.4966
42245SOL    HW244346   3.671   6.794   2.409  0.8668 -0.1835  0.3813
42246SOL     OW44347  11.407   5.337  11.402 -0.0793  0.2806 -0.0064
42246SOL    HW144348  11.392   5.252  11.359 -1.3299  0.9699 -1.0169
42246SOL    HW244349  11.486   5.371  11.360  0.1066 -0.1336 -0.0002
42247SOL     OW44350  10.739   6.232   2.096 -0.2537 -0.5722  0.4869
42247SOL    HW144351  10.827   6.247   2.062 -0.7493 -1.4927 -1.2983
42247SOL    HW244352  10.753   6.181   2.176  0.7973 -1.7410 -0.3996
42248SOL     OW44353   1.911   0.480   6.257  0.3513 -0.0747  0.3149
42248SOL    HW144354   1.844   0.471   6.325  0.7058  0.1170  0.6914
42248SOL    HW244355   1.894   0.407   6.197 -0.7132  0.4535 -0.0563
42249SOL     OW44356   0.217   5.083   9.946  0.2936  0.4264 -0.4371
42249SOL    HW144357   0.206   5.169   9.988  1.5860  1.7303 -2.5924
42249SOL    HW244358   0.164   5.088   9.867 -0.1861 -1.0779 -0.2363
42250SOL     OW44359   3.309  13.536   8.320 -0.3748 -0.3098 -0.3967
42250SOL    HW144360   3.246  13.495   8.379 -1.1873 -0.3967 -1.3009
42250SOL    HW244361   3.394  13.520   8.361 -1.0731  3.1572  2.9110
42251SOL     OW44362  13.829   3.350   5.006  0.1349  0.4741  0.6404
42251SOL    HW144363  13.881   3.293   5.063  0.4451 -1.0476 -1.0699
42251SOL    HW244364  13.893   3.392   4.948 -0.3438  0.1125 -0.1727
42252SOL     OW44365   6.311   2.959  13.654  0.3153 -0.6508  0.2057
42252SOL    HW144366   6.399   2.924  13.639  0.5840  0.2483 -0.4284
42252SOL    HW244367   6.324   3.054  13.659 -0.2117 -0.6189  3.0556
42253SOL     OW44368   8.678  11.071   1.566  0.1470  0.1932  0.3888
42253SOL    HW144369   8.626  11.132   1.513 -0.5674  0.7339  1.6622
42253SOL    HW244370   8.718  11.012   1.503 -1.2869  0.3475 -0.7016
42254SOL     OW44371  12.122   4.418  14.056  0.1103 -0.6332 -0.1432
42254SOL    HW144372  12.091   4.393  14.143 -1.8628 -0.8228 -0.8557
42254SOL    HW244373  12.090   4.350  13.998  0.9029 -0.2055 -1.1298
42255SOL     OW44374  11.498  14.011   2.560 -0.3134 -0.1992 -0.1880
42255SOL    HW144375  11.409  14.038   2.582 -0.4728  1.3188 -2.3847
42255SOL    HW244376  11.489  13.920   2.532 -1.0516 -0.2672  0.2320
42256SOL     OW44377  11.083   3.676   1.407  0.6209  0.1242 -0.0209
42256SOL    HW144378  11.022   3.653   1.477 -0.5117  0.7364 -0.7791
42256SOL    HW244379  11.153   3.610   1.413  0.0676 -0.3836  1.0738
42257SOL     OW44380   4.398  11.392   3.453  0.0746  0.3507 -0.0217
42257SOL    HW144381   4.431  11.423   3.538  0.4048 -0.1284  0.0298
42257SOL    HW244382   4.477  11.381   3.400 -0.1466  0.8335 -0.4601
42258SOL     OW44383  10.540  13.921   0.261 -0.9415 -0.0814 -0.2839
42258SOL    HW144384  10.501  13.958   0.182  0.2196  1.8867 -0.0009
42258SOL    HW244385  10.570  13.834   0.234 -0.6694  0.4918 -1.9787
42259SOL     OW44386   0.980   3.770   7.885 -0.8641  0.5350  0.0281
42259SOL    HW144387   1.014   3.733   7.804 -0.6749  0.6598  0.0514
42259SOL    HW244388   0.891   3.735   7.892 -0.5956 -0.1350  0.1877
42260SOL     OW44389   1.759  13.896   4.116 -0.3169 -0.3800  0.4391
42260SOL    HW144390   1.764  13.861   4.205  0.2559 -1.2597  0.0747
42260SOL    HW244391   1.846  13.880   4.079 -0.4828  0.1680 -0.2084
42261SOL     OW44392   8.852   7.183   2.257  0.2428 -0.2842 -0.1173
42261SOL    HW144393   8.818   7.097   2.281  1.4136 -0.7091  0.1130
42261SOL    HW244394   8.780   7.243   2.274 -1.1975 -1.4026 -1.8449
42262SOL     OW44395   0.313  13.789   1.911  0.0463 -0.2590 -0.1283
42262SOL    HW144396   0.369  13.778   1.988 -0.7504 -0.0548  0.4902
42262SOL    HW244397   0.367  13.757   1.838  1.0799  0.1986  0.4025
42263SOL     OW44398   8.202   3.566   0.872  0.7190 -0.2550 -0.1928
42263SOL    HW144399   8.245   3.548   0.956 -0.0887 -0.8657  0.1045
42263SOL    HW244400   8.268   3.612   0.821  1.2905 -0.0407  0.7106
42264SOL     OW44401   2.121  13.265   0.483 -0.1410  0.0293  0.4260
42264SOL    HW144402   2.138  13.219   0.566  0.4388  1.4997  1.1623
42264SOL    HW244403   2.167  13.348   0.492  0.1273  0.1299 -1.4936
42265SOL     OW44404  13.898   9.923   8.059 -0.1002  0.1240  0.4092
42265SOL    HW144405  13.969   9.962   8.009  0.2431  1.3404  1.7732
42265SOL    HW244406  13.836   9.892   7.993  0.4390  1.4340 -0.7625
42266SOL     OW44407   1.802   2.990   1.613  0.7933  0.4446 -1.1500
42266SOL    HW144408   1.860   2.925   1.653 -0.4679 -0.1141 -0.1597
42266SOL    HW244409   1.778   2.953   1.528  2.0847  0.8264 -1.7176
42267SOL     OW44410   6.887  12.513   4.450 -0.0330  0.6548  0.1854
42267SOL    HW144411   6.855  12.597   4.483 -0.1572  0.4924  0.4753
42267SOL    HW244412   6.982  12.517   4.461 -0.2229 -0.3293  2.7829
42268SOL     OW44413   5.429   4.750   0.871 -0.0955 -0.3700  0.1679
42268SOL    HW144414   5.470   4.780   0.790  2.5924 -2.4304  0.6082
42268SOL    HW244415   5.487   4.783   0.940 -2.1780  1.1066  1.3337
42269SOL     OW44416  11.956   2.344   4.982 -0.0562 -0.2034 -0.4466
42269SOL    HW144417  11.925   2.415   4.926  2.1887  0.2776 -1.1739
42269SOL    HW244418  11.979   2.274   4.920  0.1685 -0.5851  0.0624
42270SOL     OW44419  12.244   1.943   1.947 -0.3579 -0.2515  0.1052
42270SOL    HW144420  12.163   1.994   1.943 -0.3038 -0.1188  0.5958
42270SOL    HW244421  12.214   1.852   1.955 -0.4534 -0.3679 -1.4170
42271SOL     OW44422   7.963  12.853   0.031  0.2993  0.0646  0.3091
42271SOL    HW144423   7.902  12.798  -0.019  0.1338 -0.6912  1.3231
42271SOL    HW244424   8.049  12.830  -0.004  0.1602 -0.2164  0.1421
42272SOL     OW44425   2.336  13.767   5.482 -0.2279 -0.1016 -0.0186
42272SOL    HW144426   2.340  13.724   5.397  0.1214 -0.8862  0.3853
42272SOL    HW244427   2.287  13.848   5.466 -0.4921 -0.4236 -0.8849
42273SOL     OW44428   5.316   0.368   9.888  0.1145  0.3680 -0.1855
42273SOL    HW144429   5.299   0.280   9.922 -0.1128  0.3849 -0.2560
42273SOL    HW244430   5.301   0.360   9.793 -2.0739  0.9998  0.0485
42274SOL     OW44431   4.635   6.992   1.681  0.0439  0.9476  0.2156
42274SOL    HW144432   4.721   6.997   1.639  1.1635  0.2174  2.2512
42274SOL    HW244433   4.588   6.925   1.631  1.5602 -0.3675  0.4621
42275SOL     OW44434   3.858   3.909   2.717 -0.0943 -0.4961  0.1923
42275SOL    HW144435   3.828   3.916   2.626 -2.1013 -0.6569  0.7993
42275SOL    HW244436   3.906   3.989   2.733  2.0254 -1.3077 -1.5798
42276SOL     OW44437  12.504   0.748  13.455  0.3217  0.1374  0.2516
42276SOL    HW144438  12.547   0.788  13.531  0.5769  0.4175 -0.0396
42276SOL    HW244439  12.416   0.784  13.457  0.2647 -0.0071  0.5250
42277SOL     OW44440  10.806   3.738  11.255 -0.0783  0.2881  0.4299
42277SOL    HW144441  10.755   3.793  11.315  0.3319  1.2107 -0.0427
42277SOL    HW244442  10.883   3.713  11.305  0.3415  1.1899  0.2458
42278SOL     OW44443   9.747   2.724   6.724 -0.3720 -0.2521 -0.1914
42278SOL    HW144444   9.779   2.634   6.730 -0.1479 -0.4451 -3.0478
42278SOL    HW244445   9.702   2.728   6.640 -1.9427  1.8706  0.6593
42279SOL     OW44446  10.702  10.574   1.868  0.2343 -0.4170  0.1316
42279SOL    HW144447  10.610  10.603   1.875  0.0944 -0.5201 -1.1568
42279SOL    HW244448  10.728  10.558   1.959 -0.4455  1.4024  0.7012
42280SOL     OW44449   0.112   8.265  10.280  0.1975  0.3092  0.5905
42280SOL    HW144450   0.141   8.353  10.304  0.3600  0.7070 -1.0007
42280SOL    HW244451   0.192   8.214  10.271  0.1898  0.3789  0.0983
42281SOL     OW44452   9.845   2.913   2.771  0.0563  0.0726 -0.7603
42281SOL    HW144453   9.826   2.823   2.744  1.1861 -0.9225  1.5132
42281SOL    HW244454   9.764   2.943   2.813  0.6409 -1.1263  1.3799
42282SOL     OW44455   0.135   6.657   7.913  0.7454  0.0556 -0.0923
42282SOL    HW144456   0.057   6.606   7.893  0.7701  0.3058 -0.8418
42282SOL    HW244457   0.164   6.623   7.998 -1.0312  1.0134  0.9562
42283SOL     OW44458  11.995   2.213   7.662 -0.0246 -0.1214  0.2389
42283SOL    HW144459  11.965   2.145   7.602 -0.8211 -0.3248  0.8488
42283SOL    HW244460  11.914   2.256   7.691  0.4972  1.5623 -0.6688
42284SOL     OW44461   3.865   3.640   3.452  0.3624 -0.0733 -0.1340
42284SOL    HW144462   3.933   3.614   3.514  1.3706 -1.2554 -1.6485
42284SOL    HW244463   3.883   3.733   3.435 -0.3974  0.4945  1.8318
42285SOL     OW44464   4.899  13.718   4.624 -0.5912 -0.0576  0.2984
42285SOL    HW144465   4.850  13.637   4.638 -0.1265 -0.1250  1.7019
42285SOL    HW244466   4.837  13.777   4.581 -1.3247 -0.7496  0.3841
42286SOL     OW44467  12.164   3.854   8.851 -0.2364 -0.0310  0.3056
42286SOL    HW144468  12.157   3.857   8.755 -0.3836  0.9331  0.3395
42286SOL    HW244469  12.159   3.945   8.878 -1.1057 -0.3662  1.3080
42287SOL     OW44470  13.080   9.046   1.843 -0.0267  0.1367  0.1395
42287SOL    HW144471  13.017   9.021   1.910  0.5631 -2.3422 -0.1279
42287SOL    HW244472  13.033   9.036   1.760  0.2279 -0.0877  0.0203
42288SOL     OW44473   4.348   1.346  13.290  0.0198  0.2031  0.1952
42288SOL    HW144474   4.305   1.431  13.278 -1.5018 -0.5780  0.0219
42288SOL    HW244475   4.397   1.332  13.209  1.0171  1.3004  0.5707
42289SOL     OW44476   6.252  11.629   9.179  0.4377  0.3915  0.1829
42289SOL    HW144477   6.194  11.671   9.243  0.8243  0.6004  0.4084
42289SOL    HW244478   6.232  11.536   9.185 -0.8478  0.5861 -0.7410
42290SOL     OW44479   1.556   9.104   3.559  0.2076  0.3002 -0.2881
42290SOL    HW144480   1.611   9.164   3.609 -0.6800  0.4673  0.5186
42290SOL    HW244481   1.566   9.133   3.468 -0.0444  1.5508  0.0628
42291SOL     OW44482   2.291   1.316   2.111  0.2530 -0.5440  0.2212
42291SOL    HW144483   2.198   1.335   2.125 -0.2065 -1.2301 -1.5846
42291SOL    HW244484   2.318   1.382   2.047  0.7591 -0.9451  0.0256
42292SOL     OW44485   8.225   6.694  13.207  0.5270  0.2949  0.2454
42292SOL    HW144486   8.315   6.724  13.194  0.1149  1.5404  0.1541
42292SOL    HW244487   8.180   6.716  13.126 -0.3977  1.8174  1.1231
42293SOL     OW44488  10.738  13.780   8.752 -0.2468  0.2223  0.3824
42293SOL    HW144489  10.673  13.715   8.777  0.0202 -0.3317 -0.3354
42293SOL    HW244490  10.783  13.802   8.833  1.9058 -2.9578  0.2079
42294SOL     OW44491  12.103   3.928  12.227 -0.1414  0.8856  0.0616
42294SOL    HW144492  12.093   3.850  12.282 -0.8745  1.9753  1.5404
42294SOL    HW244493  12.105   4.001  12.289 -2.0243  2.2669 -1.3803
42295SOL     OW44494   8.716   8.466   0.594  0.4987 -0.3397  0.0845
42295SOL    HW144495   8.651   8.511   0.649  2.2191  1.9780  0.4161
42295SOL    HW244496   8.777   8.427   0.657  0.4091 -0.9709 -0.2147
42296SOL     OW44497   2.102  12.451  10.569  1.1832 -0.1448 -0.2034
42296SOL    HW144498   2.094  12.498  10.652  2.0685  0.1595 -0.2703
42296SOL    HW244499   2.079  12.516  10.503 -0.1914 -0.5821 -0.1751
42297SOL     OW44500   3.976   6.459  11.793  0.2312  0.3870 -0.2028
42297SOL    HW144501   4.032   6.418  11.859  0.9331  1.9454  0.2191
42297SOL    HW244502   3.889   6.424  11.811  1.1141 -3.0468 -1.6148
42298SOL     OW44503  11.032   7.672   6.668 -0.0364 -0.0428  0.1622
42298SOL    HW144504  11.015   7.719   6.587  2.2484 -0.1830 -0.4639
42298SOL    HW244505  11.053   7.583   6.641 -0.2066 -0.3513  0.9989
42299SOL     OW44506   8.837  11.970   9.789 -0.0071 -0.3876  0.1260
42299SOL    HW144507   8.816  12.063   9.800 -0.5030 -0.5666  0.6809
42299SOL    HW244508   8.781  11.942   9.717 -1.0026 -0.6349  0.9861
42300SOL     OW44509  10.765   4.841   5.174  0.6972 -0.4303  0.6013
42300SOL    HW144510  10.680   4.799   5.178  0.4567 -0.0127 -0.0687
42300SOL    HW244511  10.777   4.878   5.262 -0.6273  1.0971  0.1737
42301SOL     OW44512  12.157   4.383   5.951 -0.3471 -0.1994 -0.0099
42301SOL    HW144513  12.186   4.434   5.875  3.0166 -0.6056  0.8179
42301SOL    HW244514  12.114   4.447   6.008  1.1363  1.1376 -0.3054
42302SOL     OW44515   4.854   5.640  13.140  0.4147  0.5485  0.2280
42302SOL    HW144516   4.853   5.736  13.135 -0.9912  0.5028 -1.4316
42302SOL    HW244517   4.854   5.611  13.049  2.4578 -1.0906  0.6789
42303SOL     OW44518   7.619   0.362   1.642  0.1143 -0.2770 -0.2637
42303SOL    HW144519   7.584   0.438   1.597  0.2092 -0.2229 -0.2462
42303SOL    HW244520   7.707   0.351   1.605 -0.2157 -0.8979 -0.8998
42304SOL     OW44521   5.157   8.988   3.504  0.0601  0.2191 -0.1380
42304SOL    HW144522   5.074   9.036   3.509 -0.2449 -0.3132 -0.0936
42304SOL    HW244523   5.138   8.902   3.540  0.4388 -0.1610 -0.8256
42305SOL     OW44524   8.869   0.113  14.011  0.7285 -0.1918  0.0034
42305SOL    HW144525   8.828   0.176  13.952  2.5347  2.4952  1.4340
42305SOL    HW244526   8.802   0.045  14.024 -0.9597  0.8917 -2.3590
42306SOL     OW44527   9.079   2.936   8.560  0.3367 -0.0538  0.0935
42306SOL    HW144528   9.088   3.028   8.535  0.0962  0.2582  1.1101
42306SOL    HW244529   9.065   2.938   8.655  0.0843 -1.1274  0.0921
42307SOL     OW44530   4.495   0.271   7.343 -0.0811 -0.6432  0.1461
42307SOL    HW144531   4.411   0.288   7.301  1.5676  0.3079 -3.0905
42307SOL    HW244532   4.496   0.327   7.420 -1.9974  0.0392 -0.2880
42308SOL     OW44533   9.695  13.200   1.676 -0.6584 -0.1410  0.5154
42308SOL    HW144534   9.654  13.169   1.756  0.8945 -1.3550  0.8941
42308SOL    HW244535   9.734  13.284   1.700 -0.7910 -0.1723  0.8465
42309SOL     OW44536   7.567  11.607  13.094  0.5638  0.3024  0.5065
42309SOL    HW144537   7.525  11.685  13.129  1.7521  1.2121 -0.0024
42309SOL    HW244538   7.556  11.613  12.999  0.7498 -0.1016  0.4530
42310SOL     OW44539   9.862  11.997   3.091 -0.1738  0.1029  0.1849
42310SOL    HW144540   9.862  12.014   3.186 -1.0377 -1.4993  0.5209
42310SOL    HW244541   9.791  12.050   3.057  0.1507  0.7011  0.4256
42311SOL     OW44542   0.379   9.043  12.611  0.6516 -0.5958  0.1808
42311SOL    HW144543   0.447   9.037  12.677  1.6102  1.1760 -0.5817
42311SOL    HW244544   0.328   9.120  12.637  1.1464  0.2230 -1.2043
42312SOL     OW44545   0.269   1.191   3.502  0.1084 -0.4803  0.3071
42312SOL    HW144546   0.327   1.206   3.577 -0.2262 -0.9087  0.6600
42312SOL    HW244547   0.278   1.270   3.449 -0.3808  0.2762  1.2912
42313SOL     OW44548   3.864   4.710  10.171  0.1440  0.4535 -0.2260
42313SOL    HW144549   3.946   4.661  10.165 -1.0904 -1.7124 -0.4456
42313SOL    HW244550   3.800   4.655  10.127 -1.8064  1.1756  1.5351
42314SOL     OW44551   8.343   2.153   4.166  0.2141 -0.0169 -0.1725
42314SOL    HW144552   8.368   2.169   4.257  2.8321  0.3460 -0.8743
42314SOL    HW244553   8.262   2.202   4.154  0.3932  0.8037  1.6604
42315SOL     OW44554   0.706   1.650  11.375 -0.0972 -0.5754 -0.5236
42315SOL    HW144555   0.799   1.651  11.397 -0.2130 -0.4660 -0.0344
42315SOL    HW244556   0.674   1.734  11.407 -0.3069 -0.4895 -0.9535
42316SOL     OW44557   1.516  13.563   7.721  0.4182 -0.2479  0.1041
42316SOL    HW144558   1.465  13.498   7.771  1.8811  0.1810  2.3013
42316SOL    HW244559   1.509  13.534   7.630 -2.4840 -1.0288  0.4785
42317SOL     OW44560   3.989  11.029  13.011 -0.0716  0.4486  0.0428
42317SOL    HW144561   3.973  11.046  13.103  2.9721 -2.0896  1.2292
42317SOL    HW244562   3.916  10.974  12.983 -0.6980  0.7349  1.0977
42318SOL     OW44563  10.732  10.835   2.683 -0.1645  0.9596 -0.3465
42318SOL    HW144564  10.638  10.846   2.698 -0.2210 -0.3224  0.4123
42318SOL    HW244565  10.770  10.835   2.771  0.1049 -1.8265 -0.3676
42319SOL     OW44566   6.369   2.147   1.964  0.1466  0.1436  0.3829
42319SOL    HW144567   6.280   2.167   1.991 -1.7422 -1.9329 -3.4430
42319SOL    HW244568   6.383   2.201   1.886  0.8923 -1.8475 -0.9493
42320SOL     OW44569   5.842   9.531  13.198  0.4874 -0.0552  0.1302
42320SOL    HW144570   5.752   9.557  13.180  0.6615  0.7098  0.3387
42320SOL    HW244571   5.860   9.564  13.286  1.3635  0.9169 -0.3849
42321SOL     OW44572   5.958   1.311  13.256  0.7816  0.4366  0.1291
42321SOL    HW144573   5.998   1.235  13.297 -0.5615 -0.3294  0.0363
42321SOL    HW244574   5.945   1.285  13.165  0.2872  0.7603  0.1044
42322SOL     OW44575   9.240  12.628  10.101 -0.1482  0.6614  0.2532
42322SOL    HW144576   9.222  12.631  10.007 -0.7438 -0.5544  0.2978
42322SOL    HW244577   9.187  12.555  10.132 -1.1000  1.9620  1.7996
42323SOL     OW44578  12.031  11.412   7.267 -0.1617 -0.3452 -0.1738
42323SOL    HW144579  12.030  11.370   7.181 -2.0424  0.8820 -0.8000
42323SOL    HW244580  11.970  11.485   7.259  0.4778  0.4795  1.8847
42324SOL     OW44581  13.870  11.537  10.718 -0.2248 -0.0949 -0.2341
42324SOL    HW144582  13.841  11.605  10.779 -1.5598  0.1199 -1.0536
42324SOL    HW244583  13.933  11.485  10.768  0.4462  1.4251  0.5724
42325SOL     OW44584   3.060   0.847   2.222 -0.0466  0.0190  0.2453
42325SOL    HW144585   3.009   0.820   2.146  0.4459 -0.3476  0.0391
42325SOL    HW244586   3.131   0.784   2.227  0.0211  0.1379  0.9150
42326SOL     OW44587  12.540   2.831   1.363  0.2117 -0.4126  0.0682
42326SOL    HW144588  12.555   2.861   1.452 -0.0067 -0.0356 -0.0183
42326SOL    HW244589  12.627   2.815   1.327  0.3399  0.2453  0.0756
42327SOL     OW44590  11.211  12.422   1.333 -0.3981 -0.3711  0.0006
42327SOL    HW144591  11.302  12.451   1.328 -0.9714  1.6955  0.5204
42327SOL    HW244592  11.163  12.482   1.275 -1.3746 -1.8171 -0.7618
42328SOL     OW44593   8.050  10.620   9.548  0.3089  0.0148 -0.3671
42328SOL    HW144594   7.956  10.607   9.534  0.3735 -0.0103 -0.7864
42328SOL    HW244595   8.061  10.611   9.642  0.2909 -2.6815 -0.5549
42329SOL     OW44596   0.131   6.598   4.068  0.6897 -0.3344  0.1857
42329SOL    HW144597   0.139   6.572   3.976 -0.9022  1.0382 -0.3846
42329SOL    HW244598   0.077   6.530   4.108  0.5496 -0.4131 -0.1350
42330SOL     OW44599  11.905   9.322   6.652 -0.4858  0.2754 -0.3671
42330SOL    HW144600  11.885   9.257   6.584 -0.0366  0.7489 -0.9709
42330SOL    HW244601  11.821   9.341   6.694 -0.6355 -0.6208 -0.2459
42331SOL     OW44602   0.699   4.359  11.779 -0.1747 -0.4132 -0.1449
42331SOL    HW144603   0.720   4.429  11.718  0.1841 -0.1040  0.3236
42331SOL    HW244604   0.783   4.338  11.821  0.3630 -3.0325 -2.2368
42332SOL     OW44605   3.169   8.688   4.599 -0.3222 -0.3558 -0.1436
42332SOL    HW144606   3.143   8.744   4.525  0.5251 -0.6337 -0.6731
42332SOL    HW244607   3.224   8.745   4.653  2.0857 -1.0981 -1.6300
42333SOL     OW44608  10.490   4.649  13.573  0.2736 -0.0193 -0.2694
42333SOL    HW144609  10.462   4.581  13.635 -0.9358  1.3243  0.7186
42333SOL    HW244610  10.581   4.629  13.555  0.4415 -0.8894  1.3733
42334SOL     OW44611   3.664   1.646  11.592 -0.2052  0.1028 -0.6378
42334SOL    HW144612   3.676   1.691  11.675 -1.4844 -0.8793  0.1145
42334SOL    HW244613   3.605   1.703  11.542 -1.4310 -0.4457  0.1249
42335SOL     OW44614   9.570  13.851  13.315 -0.5954 -0.0821  0.4568
42335SOL    HW144615   9.633  13.816  13.253 -0.2421  0.9213  0.2351
42335SOL    HW244616   9.510  13.903  13.261 -0.7950  0.0939  0.8460
42336SOL     OW44617   9.872  12.022   8.407  0.1229  0.0144 -0.1282
42336SOL    HW144618   9.866  12.081   8.481  0.7166  0.6763 -0.5882
42336SOL    HW244619   9.884  12.080   8.331 -1.7277 -0.5602 -0.9307
42337SOL     OW44620   1.714   3.289  11.559 -0.3649  0.0558  0.2284
42337SOL    HW144621   1.771   3.315  11.632 -0.2800 -0.8873  0.5157
42337SOL    HW244622   1.755   3.210  11.524 -1.2524 -0.3934  0.1631
42338SOL     OW44623  10.243   9.427   0.154 -0.1383 -0.5125 -0.1051
42338SOL    HW144624  10.281   9.498   0.102 -1.4659 -1.3454 -2.3533
42338SOL    HW244625  10.313   9.400   0.213  1.4616  0.4910 -1.4681
42339SOL     OW44626   4.488   7.743   6.517  0.1883 -0.4511 -0.5968
42339SOL    HW144627   4.519   7.815   6.461  1.2996 -0.6998 -0.3336
42339SOL    HW244628   4.463   7.786   6.599  1.5373 -0.4211 -0.1778
42340SOL     OW44629  11.017   9.472   5.270  0.5117  0.0357 -0.1788
42340SOL    HW144630  11.048   9.417   5.199  1.1202  0.8871 -0.5773
42340SOL    HW244631  10.996   9.556   5.229  2.2069  1.0054  0.8390
42341SOL     OW44632  13.019   4.149  10.882 -0.1976 -0.2266 -0.0447
42341SOL    HW144633  12.983   4.190  10.803 -0.1906 -1.3807 -0.6744
42341SOL    HW244634  12.984   4.201  10.954 -0.0424  0.9842 -0.8066
42342SOL     OW44635   5.034  10.922   5.544 -0.4440 -0.2112 -0.6549
42342SOL    HW144636   5.021  10.984   5.616  0.6650 -0.1062 -0.5209
42342SOL    HW244637   5.008  10.837   5.579  1.3507 -0.3871  0.3343
42343SOL     OW44638   6.456  10.784   6.543  0.1496  0.2439 -0.2147
42343SOL    HW144639   6.446  10.814   6.452 -0.0709  1.3733  0.1662
42343SOL    HW244640   6.461  10.865   6.594 -0.6274 -0.3790  0.8808
42344SOL     OW44641  12.174  13.307   6.470 -0.1913 -0.0845 -0.5525
42344SOL    HW144642  12.231  13.232   6.450  0.8598  0.6700 -0.4821
42344SOL    HW244643  12.087  13.279   6.442  0.1099 -1.4741 -0.1743
42345SOL     OW44644  13.262   1.450   7.689  0.2916 -0.1944 -0.6407
42345SOL    HW144645  13.168   1.444   7.706  0.4468  0.9993  0.8832
42345SOL    HW244646  13.271   1.519   7.623  0.1684  1.1660  0.6870
42346SOL     OW44647  12.759   3.357   6.730  0.0576  0.1476  0.1866
42346SOL    HW144648  12.744   3.365   6.824  0.4989  1.5096  0.1712
42346SOL    HW244649  12.806   3.437   6.707  0.6148 -0.5219 -1.0662
42347SOL     OW44650   5.448   3.748   0.833  0.1506 -0.2746  0.3283
42347SOL    HW144651   5.384   3.680   0.813 -0.1359  0.0977 -0.0281
42347SOL    HW244652   5.439   3.762   0.928 -1.7554  1.2138 -0.0305
42348SOL     OW44653  13.173   2.614   0.093  0.7666  0.0254  0.1505
42348SOL    HW144654  13.189   2.535   0.145  0.2436 -0.7151 -0.8045
42348SOL    HW244655  13.199   2.591   0.004  1.4256  1.2098  0.0118
42349SOL     OW44656   7.556  11.025   8.518  0.4019 -0.2117 -0.2085
42349SOL    HW144657   7.613  10.969   8.465 -0.9104 -1.4066 -0.4121
42349SOL    HW244658   7.572  11.113   8.484  1.8990 -0.5405 -0.4418
42350SOL     OW44659  10.598  11.684   6.389 -0.1385  0.1624  0.3445
42350SOL    HW144660  10.585  11.778   6.379 -1.0632 -0.1402 -1.8404
42350SOL    HW244661  10.646  11.675   6.471 -2.8260  2.2813  2.3289
42351SOL     OW44662  12.599   0.495   0.877  0.6206 -0.0497 -0.3438
42351SOL    HW144663  12.658   0.424   0.853  0.4392 -0.8139  1.3614
42351SOL    HW244664  12.640   0.574   0.841  1.9329 -0.7407 -0.4048
42352SOL     OW44665  11.896   4.380   7.522  0.2638  0.0151 -0.0535
42352SOL    HW144666  11.880   4.469   7.554  0.9566  0.4786 -0.9244
42352SOL    HW244667  11.935   4.334   7.597 -1.5801 -0.0589  0.9088
42353SOL     OW44668   9.175  12.004   6.999 -0.1160  0.1487  0.0908
42353SOL    HW144669   9.110  12.073   7.010 -0.6394 -0.2813 -0.2306
42353SOL    HW244670   9.210  12.018   6.911 -2.9445 -2.1768 -1.6397
42354SOL     OW44671  13.081   9.818   3.662  0.2325 -0.3643 -0.1287
42354SOL    HW144672  13.151   9.783   3.718  0.0310  1.6069  1.4786
42354SOL    HW244673  13.063   9.748   3.600  1.2811 -2.2426  1.5446
42355SOL     OW44674  13.785   8.809   2.208  0.7091  1.0856  0.7427
42355SOL    HW144675  13.764   8.899   2.184  1.2359  1.5074  1.7894
42355SOL    HW244676  13.737   8.794   2.289  1.7279  0.9110  1.3334
42356SOL     OW44677   7.101   0.550   8.640  0.0436  0.2299 -0.4487
42356SOL    HW144678   7.022   0.574   8.688  0.0335 -1.4162  0.4001
42356SOL    HW244679   7.094   0.599   8.558 -0.7507  1.8126  0.4988
42357SOL     OW44680   6.119  10.497  13.217 -0.1251 -0.2999 -0.3302
42357SOL    HW144681   6.194  10.484  13.158 -0.3060  0.0853 -0.6454
42357SOL    HW244682   6.047  10.523  13.160  0.1084  1.7233  0.2251
42358SOL     OW44683  10.512   2.235   7.422  0.1596 -0.9635 -0.0968
42358SOL    HW144684  10.525   2.330   7.420  0.3050 -0.9849 -0.2104
42358SOL    HW244685  10.601   2.199   7.420  0.0893 -1.1096 -0.6811
42359SOL     OW44686   1.923   5.929  12.118  0.7261  0.0839 -0.0237
42359SOL    HW144687   1.901   5.982  12.195 -0.0334 -1.6011  0.9818
42359SOL    HW244688   1.979   5.986  12.065 -2.3434  2.9796 -0.4762
42360SOL     OW44689   3.684  10.320  12.916 -0.5284 -0.3259 -0.0059
42360SOL    HW144690   3.629  10.340  12.840  0.4700  1.8984 -0.2488
42360SOL    HW244691   3.626  10.331  12.991 -0.5914  1.7209 -0.2702
42361SOL     OW44692   1.068   2.359  11.341 -0.0231 -0.1656 -0.1262
42361SOL    HW144693   1.134   2.354  11.272  1.5150 -1.8768  1.3490
42361SOL    HW244694   1.011   2.283  11.325  0.6139 -0.8409  0.6806
42362SOL     OW44695   5.859   8.893  13.937  0.3274  0.2006  0.3250
42362SOL    HW144696   5.926   8.850  13.884 -0.8326 -0.6360 -0.5054
42362SOL    HW244697   5.856   8.843  14.018  0.5971  0.1523  0.3055
42363SOL     OW44698  12.916   6.071   2.221  0.0553 -0.5612  0.3435
42363SOL    HW144699  12.980   6.050   2.152 -0.3397 -0.9475  0.0879
42363SOL    HW244700  12.968   6.114   2.289  0.0704  2.1809 -1.2398
42364SOL     OW44701   8.062   4.983   4.030  0.2570 -0.0113 -0.5135
42364SOL    HW144702   8.008   5.062   4.016  1.7440  1.3092  0.8039
42364SOL    HW244703   8.052   4.933   3.949 -1.6096  0.9830 -0.9667
42365SOL     OW44704   1.745   3.866   7.812 -0.3524  0.9457  0.2244
42365SOL    HW144705   1.681   3.937   7.812 -0.1135  1.2112 -1.6609
42365SOL    HW244706   1.822   3.903   7.770 -0.5429 -0.6402 -1.6840
42366SOL     OW44707   9.062  10.823  13.464 -0.3912  0.1013  0.3467
42366SOL    HW144708   9.059  10.797  13.556  1.4633 -0.1486  0.3864
42366SOL    HW244709   9.143  10.874  13.456 -1.0833  1.0623 -0.9262
42367SOL     OW44710   4.386   4.582   9.589 -0.5253 -0.0146  0.1505
42367SOL    HW144711   4.362   4.675   9.585 -0.9007 -0.0947  0.5406
42367SOL    HW244712   4.466   4.576   9.536  0.1253  0.7295  1.0131
42368SOL     OW44713   8.791  13.739   4.658 -0.0110  0.4263 -0.4199
42368SOL    HW144714   8.804  13.812   4.597  0.9473  0.3853 -0.2870
42368SOL    HW244715   8.878  13.726   4.698 -0.1040 -0.9504 -0.6293
42369SOL     OW44716   8.303   1.864   4.141 -0.4871  0.0296  0.1784
42369SOL    HW144717   8.341   1.815   4.067  1.6369 -0.5111  1.5494
42369SOL    HW244718   8.306   1.955   4.113 -0.7913 -0.2605 -0.8466
42370SOL     OW44719  14.022   7.571   2.510 -0.7331  0.0508 -0.2337
42370SOL    HW144720  13.950   7.594   2.567 -0.0805  0.7875  0.3061
42370SOL    HW244721  13.991   7.592   2.422 -1.2875  0.0466 -0.0422
42371SOL     OW44722  11.159   7.615  11.820  0.2118  0.3305 -0.2403
42371SOL    HW144723  11.242   7.649  11.852 -0.4106  1.5096  0.1985
42371SOL    HW244724  11.180   7.529  11.784  1.5126  0.3833  0.3473
42372SOL     OW44725  11.472   7.186  10.956  0.6897  0.4873  0.2429
42372SOL    HW144726  11.461   7.173  10.862 -1.7106  1.2086  0.3531
42372SOL    HW244727  11.517   7.270  10.964 -1.2896  1.6578 -0.2979
42373SOL     OW44728   0.090  12.075  11.683 -0.1608  0.3300 -0.3620
42373SOL    HW144729   0.054  12.063  11.595 -0.5767  0.2871 -0.1892
42373SOL    HW244730   0.057  12.160  11.712  2.0095  1.5505 -1.2073
42374SOL     OW44731   9.079  11.926  13.645 -0.5260 -0.0494 -0.0991
42374SOL    HW144732   9.052  12.005  13.691 -0.4958  0.4680 -0.9479
42374SOL    HW244733   9.004  11.867  13.651 -1.0395  0.5402 -0.5518
42375SOL     OW44734   6.252   6.830  12.470 -0.2143 -0.4352  0.3738
42375SOL    HW144735   6.198   6.859  12.396  0.4618 -1.8351 -0.7211
42375SOL    HW244736   6.190   6.791  12.531 -0.5192 -1.7857 -0.7459
42376SOL     OW44737   0.415   8.779   0.458  1.2475  0.5108  0.1860
42376SOL    HW144738   0.437   8.872   0.464  0.1836  1.2031 -3.7694
42376SOL    HW244739   0.320   8.776   0.466  1.2690 -0.2368  0.2224
42377SOL     OW44740  12.308   5.884   1.151  0.0538  0.5324  0.6617
42377SOL    HW144741  12.394   5.849   1.130  0.8105  2.3621  0.5992
42377SOL    HW244742  12.248   5.812   1.129  1.5272 -0.7940  0.7444
42378SOL     OW44743   7.975   9.023  12.030  0.1960 -0.2948 -0.0505
42378SOL    HW144744   7.918   9.004  11.956  0.6927  0.3834 -0.6219
42378SOL    HW244745   7.970   9.119  12.040 -0.4465 -0.4314  1.2693
42379SOL     OW44746   6.630   2.938   5.581 -0.0710  0.2382  0.1881
42379SOL    HW144747   6.581   3.002   5.530  0.8486 -0.2478 -1.3808
42379SOL    HW244748   6.677   2.990   5.646  0.0440  1.0731 -0.5401
42380SOL     OW44749   3.741   3.415   7.534  0.5821 -0.0492 -0.2658
42380SOL    HW144750   3.756   3.500   7.577 -0.0973  0.2350 -0.5850
42380SOL    HW244751   3.700   3.437   7.451  0.4262 -0.6943 -0.3630
42381SOL     OW44752   8.501   7.541   0.542 -0.0673 -0.7357  0.0694
42381SOL    HW144753   8.424   7.590   0.512 -0.0163  0.0269  1.1272
42381SOL    HW244754   8.470   7.494   0.620  0.7242  0.1871  0.9546
42382SOL     OW44755  10.355  10.274  10.835  0.3391 -0.2174  0.3648
42382SOL    HW144756  10.377  10.367  10.839  0.9520 -0.3581  0.2360
42382SOL    HW244757  10.301  10.266  10.757 -1.2428  0.3408  1.3389
42383SOL     OW44758   4.462  12.825   7.441  0.3207 -0.3160 -0.4456
42383SOL    HW144759   4.522  12.761   7.403 -1.3694 -0.7652 -2.5573
42383SOL    HW244760   4.381  12.776   7.457 -0.6795  1.0192 -1.1689
42384SOL     OW44761   8.631   4.785   4.117 -0.7281  0.0518 -0.2213
42384SOL    HW144762   8.585   4.850   4.064 -0.3657  0.2880 -0.2434
42384SOL    HW244763   8.673   4.835   4.186 -1.5468 -0.2972  0.5549
42385SOL     OW44764  12.576   7.327  11.528  0.4144  0.2033 -0.3316
42385SOL    HW144765  12.554   7.417  11.502  0.8043 -0.2742 -2.5683
42385SOL    HW244766  12.638   7.337  11.600 -2.1454  1.6318  1.8631
42386SOL     OW44767  11.857   5.224   5.468 -0.1067 -0.2102 -0.4492
42386SOL    HW144768  11.844   5.132   5.491 -0.3485 -0.1668 -0.4084
42386SOL    HW244769  11.944   5.245   5.502 -0.7609  0.0696  1.1600
42387SOL     OW44770   6.694  11.223  11.945 -0.6272  0.4772  0.2470
42387SOL    HW144771   6.724  11.152  11.889  1.2595  2.1048 -0.9583
42387SOL    HW244772   6.701  11.189  12.034  3.5055  0.0889 -0.0050
42388SOL     OW44773   1.031   3.758   7.286 -0.0358  0.3450 -0.0203
42388SOL    HW144774   0.953   3.804   7.255  0.7238  1.0813 -0.8968
42388SOL    HW244775   1.053   3.801   7.369  1.8004  3.0367 -1.7318
42389SOL     OW44776   4.276   6.298   8.837  0.2629 -0.0245 -0.4147
42389SOL    HW144777   4.315   6.376   8.876  0.3565 -0.0094 -0.5427
42389SOL    HW244778   4.256   6.241   8.912 -1.9891  1.0978 -0.0685
42390SOL     OW44779   9.227  10.509  12.159 -0.4876  0.2055  0.1892
42390SOL    HW144780   9.271  10.594  12.156  1.2269 -0.6549 -0.3735
42390SOL    HW244781   9.223  10.487  12.252 -0.2557  0.5560  0.2823
42391SOL     OW44782  11.481   5.582  12.746 -0.1345 -0.2087  0.4722
42391SOL    HW144783  11.519   5.661  12.708 -1.6077  1.1791  1.7648
42391SOL    HW244784  11.442   5.536  12.672  0.6027  0.3358 -0.2707
42392SOL     OW44785  10.380   3.385  12.596 -0.6746 -0.0795 -0.5800
42392SOL    HW144786  10.344   3.331  12.526 -0.8471 -0.5459 -0.1371
42392SOL    HW244787  10.303   3.425  12.637 -0.5776  0.1605 -0.6320
42393SOL     OW44788  10.859   2.197   4.966  0.0805  0.1450 -0.4684
42393SOL    HW144789  10.811   2.115   4.978  1.2873 -0.4899  0.1773
42393SOL    HW244790  10.796   2.255   4.924 -1.0367 -0.8710 -0.2650
42394SOL     OW44791  13.500   7.498  11.182 -0.1848  0.0819  0.4429
42394SOL    HW144792  13.570   7.499  11.248 -2.1495 -2.1684  2.7772
42394SOL    HW244793  13.547   7.503  11.098  2.7555 -0.7550  1.8836
42395SOL     OW44794   5.811  10.647   8.655 -0.3414  0.5107  0.3260
42395SOL    HW144795   5.745  10.710   8.625  0.7177  1.8429  0.7060
42395SOL    HW244796   5.784  10.626   8.745 -0.4743  0.7288  0.3374
42396SOL     OW44797  11.615  10.613   9.804  0.2536 -0.2671 -0.4008
42396SOL    HW144798  11.522  10.625   9.820 -0.1168 -3.5398  0.6856
42396SOL    HW244799  11.656  10.692   9.841 -1.9959  1.0822 -0.5924
42397SOL     OW44800  11.461  13.286   2.312 -0.3898  0.1785 -0.1084
42397SOL    HW144801  11.384  13.342   2.313 -1.8320 -1.5961 -2.2213
42397SOL    HW244802  11.531  13.342   2.278 -1.6378  0.9304 -1.5857
42398SOL     OW44803   7.210  12.347  11.322  0.1987  0.1782 -0.1684
42398SOL    HW144804   7.168  12.346  11.236 -0.2818 -0.7493  0.0549
42398SOL    HW244805   7.274  12.417  11.317  1.6450 -1.1838 -1.9914
42399SOL     OW44806  11.168   0.674   6.078  0.9930 -0.2368  0.5388
42399SOL    HW144807  11.202   0.671   6.168  0.4361 -1.6317  0.7196
42399SOL    HW244808  11.092   0.733   6.084  0.4730 -0.9441  1.1706
42400SOL     OW44809   4.116   9.908  10.617  0.1342  0.1385  0.6099
42400SOL    HW144810   4.144   9.991  10.655 -1.0952  1.1682 -0.6131
42400SOL    HW244811   4.156   9.907  10.530 -1.8517  0.6808 -0.3683
42401SOL     OW44812   4.702   4.330  10.216  0.1446 -0.0500  0.1853
42401SOL    HW144813   4.688   4.238  10.195 -0.1611 -0.1780  0.9235
42401SOL    HW244814   4.793   4.335  10.245  0.4356  0.0494 -0.7251
42402SOL     OW44815  10.087   1.396   3.937 -0.7649 -0.5656  0.5541
42402SOL    HW144816  10.026   1.322   3.930 -1.5134  0.1326 -0.7670
42402SOL    HW244817  10.031   1.471   3.955 -0.0759 -0.2093  1.2182
42403SOL     OW44818   3.433   7.325   8.120 -0.2990  0.0080  0.4706
42403SOL    HW144819   3.480   7.304   8.201 -0.5738  0.0278  0.6357
42403SOL    HW244820   3.341   7.313   8.141 -0.3222 -0.9189 -0.1245
42404SOL     OW44821  13.968   1.630  10.849 -0.7866 -0.2526 -0.2460
42404SOL    HW144822  13.991   1.723  10.843  1.7061 -0.6378  1.5292
42404SOL    HW244823  13.943   1.618  10.940 -0.9515 -1.3409 -0.4263
42405SOL     OW44824   6.923  12.947  12.395  0.6933 -0.2745  0.0446
42405SOL    HW144825   6.977  13.020  12.367 -0.5166  0.4316 -0.5454
42405SOL    HW244826   6.870  12.925  12.318 -1.1198  0.2431  1.0763
42406SOL     OW44827   0.916   4.514   3.576 -0.3418 -0.4345  0.7092
42406SOL    HW144828   0.927   4.421   3.594  0.7623 -0.3089  0.7459
42406SOL    HW244829   0.954   4.527   3.489 -0.8308 -0.0833  0.5421
42407SOL     OW44830   2.675   7.811   5.661 -0.2137  0.5837  0.1732
42407SOL    HW144831   2.757   7.861   5.668  0.1421  0.0933 -0.4762
42407SOL    HW244832   2.608   7.878   5.644  0.2077  0.8763 -0.3545
42408SOL     OW44833   2.279   5.996   9.023  0.7247 -0.0870  0.5894
42408SOL    HW144834   2.357   6.007   8.968 -0.2314  1.6216 -0.5212
42408SOL    HW244835   2.289   6.063   9.091 -0.2995  0.9652 -0.2568
42409SOL     OW44836   3.556   7.222   4.360 -0.0896 -0.1817  0.0306
42409SOL    HW144837   3.555   7.280   4.435  1.0242 -0.2063  0.0892
42409SOL    HW244838   3.505   7.268   4.293 -1.1663 -0.2076  0.8208
42410SOL     OW44839  11.852   2.698   5.215 -0.1986 -0.2602 -0.4853
42410SOL    HW144840  11.822   2.617   5.255  0.7813  0.6079  2.2120
42410SOL    HW244841  11.943   2.707   5.242 -0.3846  1.9023 -0.3822
42411SOL     OW44842  13.050   4.960   5.284  0.1294  0.3688 -0.1872
42411SOL    HW144843  12.997   5.039   5.295  0.0589  0.2697  0.2000
42411SOL    HW244844  12.991   4.897   5.242  0.1112  0.4438 -0.2724
42412SOL     OW44845   8.350   2.341   2.760 -0.0008  0.5592 -0.0686
42412SOL    HW144846   8.313   2.337   2.672  2.2460 -1.5346 -1.0249
42412SOL    HW244847   8.434   2.296   2.753  1.4636  2.5768  2.5909
42413SOL     OW44848   2.656   4.560  13.623 -0.4717  0.1275 -0.2659
42413SOL    HW144849   2.673   4.654  13.632 -0.6177 -0.0137  2.7971
42413SOL    HW244850   2.564   4.550  13.650  0.0782 -1.0376  1.3342
42414SOL     OW44851   3.076   1.153  13.789  0.1702  0.0616  0.2548
42414SOL    HW144852   3.049   1.233  13.834 -0.5213  0.4176 -0.7444
42414SOL    HW244853   3.004   1.134  13.729  0.0877 -1.6111  0.8307
42415SOL     OW44854  10.153  13.719   9.775 -0.0467  0.4502  0.4586
42415SOL    HW144855  10.124  13.628   9.777  0.1409  0.3702 -0.1239
42415SOL    HW244856  10.245  13.715   9.748 -0.2825  0.8511 -0.4725
42416SOL     OW44857   5.418   8.539   2.739 -0.2859  0.2074 -0.0306
42416SOL    HW144858   5.449   8.514   2.826 -0.8251  0.8511  0.3575
42416SOL    HW244859   5.471   8.487   2.678 -0.7318 -1.1735  0.7140
42417SOL     OW44860  12.081  12.049  12.400 -0.5647  0.1238  0.2564
42417SOL    HW144861  11.993  12.012  12.409 -0.8882  0.9657  0.5727
42417SOL    HW244862  12.136  11.973  12.379 -1.4087 -0.3714 -0.2453
42418SOL     OW44863   3.990  12.316  11.494  0.0919 -0.3517  0.6025
42418SOL    HW144864   3.940  12.334  11.415  1.5526  1.8978  0.0822
42418SOL    HW244865   3.951  12.372  11.561  1.0302  0.4204  0.5287
42419SOL     OW44866  12.018   1.998   6.369 -0.0353  0.9642 -0.4899
42419SOL    HW144867  12.006   2.027   6.459 -1.8088 -0.6511 -0.1628
42419SOL    HW244868  12.113   1.986   6.360  0.1585  1.1493  1.1344
42420SOL     OW44869   9.552   7.901  13.946 -0.3698 -0.2774 -0.0716
42420SOL    HW144870   9.627   7.959  13.948 -0.1460 -0.5709  0.8302
42420SOL    HW244871   9.576   7.831  13.885  0.0641 -0.3394  0.1723
42421SOL     OW44872  10.275   1.197   7.430  0.3393 -0.1944  0.0391
42421SOL    HW144873  10.267   1.107   7.399  0.3782 -0.6209  1.2140
42421SOL    HW244874  10.252   1.192   7.523 -2.2264  1.4291 -0.4142
42422SOL     OW44875   6.092   6.909   7.401  0.8332  0.3987 -0.1456
42422SOL    HW144876   6.018   6.910   7.461  1.8649  0.4185  1.1719
42422SOL    HW244877   6.067   6.846   7.333 -0.4402  0.5255  0.1744
42423SOL     OW44878   7.782  10.572  13.229  0.0716 -0.2812 -0.0204
42423SOL    HW144879   7.715  10.505  13.219  0.1592 -0.3204 -0.3604
42423SOL    HW244880   7.863  10.530  13.200  0.2512 -0.2437  0.4216
42424SOL     OW44881   4.153   7.538   9.834 -0.1997  0.2901 -0.5766
42424SOL    HW144882   4.103   7.579   9.906 -0.3650  0.2593 -0.6727
42424SOL    HW244883   4.242   7.572   9.844  0.2924 -1.2821  0.8894
42425SOL     OW44884   4.050   0.161   2.600  0.1332  0.1843 -0.0370
42425SOL    HW144885   4.041   0.187   2.509 -0.2045  0.5312  0.0915
42425SOL    HW244886   4.133   0.113   2.604  0.9207  1.4852 -0.2270
42426SOL     OW44887  11.319   3.185   9.728  0.4560 -0.1759 -0.1004
42426SOL    HW144888  11.326   3.094   9.756  1.3135  0.2831  1.2480
42426SOL    HW244889  11.228   3.210   9.747 -0.0761 -1.0179 -1.4072
42427SOL     OW44890  12.716  10.044   1.053 -0.0613 -0.0310  0.7977
42427SOL    HW144891  12.651  10.103   1.092 -1.4755 -1.3740  0.5613
42427SOL    HW244892  12.686   9.956   1.077  1.7012 -0.6917  0.6967
42428SOL     OW44893  10.538  11.493  10.025 -0.2033 -0.6151  0.3044
42428SOL    HW144894  10.530  11.547  10.103  1.0725 -0.5934  0.4406
42428SOL    HW244895  10.553  11.555   9.954 -1.5411 -0.6208 -0.0194
42429SOL     OW44896  12.588  11.226  10.037  0.0093 -0.3788 -0.3609
42429SOL    HW144897  12.513  11.200  10.091  0.8738 -1.0473  0.5683
42429SOL    HW244898  12.604  11.318  10.060  0.2601 -0.6086  0.4116
42430SOL     OW44899   6.791  10.585   6.910  0.3222  0.1571 -0.1799
42430SOL    HW144900   6.807  10.673   6.875  0.5002 -0.5371 -1.9566
42430SOL    HW244901   6.877  10.557   6.942  0.5826  0.1065 -0.9015
42431SOL     OW44902   5.472   9.831   4.194  0.0477 -0.3556  0.0550
42431SOL    HW144903   5.449   9.909   4.144 -1.4477 -0.0626  1.1297
42431SOL    HW244904   5.398   9.771   4.181  0.9278 -1.4003 -0.3276
42432SOL     OW44905  11.972   3.705   4.081  0.3201  0.2022  0.3708
42432SOL    HW144906  11.920   3.786   4.078  2.0386  1.3353 -2.1759
42432SOL    HW244907  11.965   3.669   3.993  1.8794 -0.9272  0.6659
42433SOL     OW44908   8.253   2.419   4.233 -0.2589 -0.1315 -0.5436
42433SOL    HW144909   8.317   2.476   4.276 -0.7757  0.7595 -0.9296
42433SOL    HW244910   8.170   2.440   4.276 -0.2810 -1.4254  0.0958
42434SOL     OW44911   6.489   0.599   1.172  0.4518  0.2913 -0.0392
42434SOL    HW144912   6.407   0.638   1.142  1.5479  1.1422 -2.1673
42434SOL    HW244913   6.550   0.674   1.179  1.4552 -0.5015 -0.0477
42435SOL     OW44914  11.910   6.314   1.454 -0.5056 -0.2888 -0.1834
42435SOL    HW144915  11.846   6.329   1.384  0.0070 -0.0187 -0.5955
42435SOL    HW244916  11.993   6.344   1.418 -0.3713  0.6020  0.8296
42436SOL     OW44917   2.376   7.577  10.116  0.1127  0.0028 -0.1387
42436SOL    HW144918   2.414   7.503  10.163 -0.1075  0.4687  0.7976
42436SOL    HW244919   2.286   7.582  10.148  0.1737  0.7682 -0.0732
42437SOL     OW44920   0.281  13.176   1.695  0.1212 -0.2617  0.1274
42437SOL    HW144921   0.276  13.220   1.610 -0.8284  0.3506  0.4966
42437SOL    HW244922   0.310  13.243   1.756 -1.3334 -0.1074  0.6921
42438SOL     OW44923   3.243  10.515   3.022  0.0242 -0.6654 -0.2340
42438SOL    HW144924   3.272  10.602   3.047  0.8125 -0.9617 -0.0852
42438SOL    HW244925   3.264  10.460   3.097 -0.1749 -1.0426 -0.4515
42439SOL     OW44926  10.470   5.788  12.855  0.1647  0.4019 -0.3549
42439SOL    HW144927  10.464   5.694  12.873 -0.1236  0.1522 -1.6537
42439SOL    HW244928  10.395   5.826  12.901 -0.2730 -0.1432 -0.6043
42440SOL     OW44929  13.937  11.780   1.757  0.3284  0.2960  0.3201
42440SOL    HW144930  13.960  11.868   1.787  0.5547  0.9734 -1.6758
42440SOL    HW244931  13.887  11.794   1.676 -2.0967 -1.3461  1.4112
42441SOL     OW44932   9.456   8.404  10.540  0.0819  0.1961  0.0960
42441SOL    HW144933   9.481   8.494  10.561 -1.1071  1.0095 -1.6670
42441SOL    HW244934   9.521   8.376  10.476 -0.2165  0.2533 -0.2386
42442SOL     OW44935  13.917   9.596   1.417 -0.1014  0.9325 -0.0835
42442SOL    HW144936  13.868   9.678   1.415  0.4581  1.2827  0.3580
42442SOL    HW244937  13.939   9.583   1.510 -0.8362 -0.1078 -0.0353
42443SOL     OW44938   7.116   0.982   4.210  0.1122 -0.0866 -0.3630
42443SOL    HW144939   7.146   1.028   4.132 -1.1468  1.2526 -0.1016
42443SOL    HW244940   7.033   0.942   4.183 -1.1184  1.6300  0.6208
42444SOL     OW44941   0.796   0.379   5.066  0.5593  0.2629  0.0258
42444SOL    HW144942   0.820   0.450   5.007  2.0251  0.8879  1.2968
42444SOL    HW244943   0.704   0.360   5.045  0.8453  0.8633 -1.9837
42445SOL     OW44944   6.280   1.126   3.206  0.3428  0.1896 -0.1637
42445SOL    HW144945   6.243   1.055   3.155 -0.0478 -0.9394  1.5801
42445SOL    HW244946   6.344   1.082   3.264  0.6997  1.3709  0.3649
42446SOL     OW44947  13.805  10.117   6.428 -0.0617 -0.6829  0.3909
42446SOL    HW144948  13.874  10.172   6.390 -0.7433 -0.2093 -0.1785
42446SOL    HW244949  13.823  10.119   6.522  0.9789 -0.9524  0.2142
42447SOL     OW44950   3.840  11.687   7.139  0.0487  0.5305  0.7665
42447SOL    HW144951   3.773  11.709   7.075  1.2710  1.4581 -0.2519
42447SOL    HW244952   3.858  11.594   7.123 -1.6215  0.0092  1.7029
42448SOL     OW44953  10.743   9.137  11.480 -0.6582 -0.1577  0.0717
42448SOL    HW144954  10.822   9.192  11.484 -0.7554 -0.1095  3.3046
42448SOL    HW244955  10.679   9.191  11.435  0.7485  0.2687 -1.5470
42449SOL     OW44956   2.598  11.784   0.916 -0.1637  0.2701  0.0460
42449SOL    HW144957   2.523  11.738   0.954  1.3081 -1.2697  1.2520
42449SOL    HW244958   2.559  11.846   0.855 -2.5674  1.2948  2.3947
42450SOL     OW44959   4.692  13.975   2.205 -0.2463 -0.0260  0.5972
42450SOL    HW144960   4.701  13.962   2.299  0.6522  0.9933  0.6861
42450SOL    HW244961   4.664  13.891   2.171 -0.7381 -0.3674  1.7924
42451SOL     OW44962   2.878   9.129   4.409  0.3539  0.8574 -0.2433
42451SOL    HW144963   2.937   9.162   4.477 -0.4882  2.1344 -0.0864
42451SOL    HW244964   2.934   9.075   4.353  0.8592 -1.1649  2.0496
42452SOL     OW44965   8.957   2.590   2.786  0.2201 -0.3073 -0.7830
42452SOL    HW144966   9.044   2.628   2.775  0.9011 -1.2335  0.9846
42452SOL    HW244967   8.974   2.499   2.812 -1.2317 -0.0564  1.2135
42453SOL     OW44968   6.001  11.616   3.198 -0.2395 -0.4529  0.4198
42453SOL    HW144969   6.050  11.580   3.272 -0.3851 -0.8633  0.3154
42453SOL    HW244970   6.040  11.702   3.183  0.1476 -0.5945  0.6247
42454SOL     OW44971  10.412   3.189   1.643 -0.1624  0.1420  0.5367
42454SOL    HW144972  10.477   3.120   1.629  0.4368  0.5247  1.3330
42454SOL    HW244973  10.396   3.224   1.556 -0.3921 -0.9157  0.1337
42455SOL     OW44974   0.801  13.769  13.547 -0.2069 -0.2860 -0.3830
42455SOL    HW144975   0.828  13.682  13.576 -2.3481 -0.6681  0.7176
42455SOL    HW244976   0.776  13.758  13.455 -0.3322 -0.8147 -0.2865
42456SOL     OW44977   5.419   4.502   1.405 -0.0599 -0.3856 -0.0449
42456SOL    HW144978   5.325   4.489   1.401 -0.3478  0.3293  2.3543
42456SOL    HW244979   5.429   4.592   1.437  1.3567 -0.8958  1.0749
42457SOL     OW44980  10.081   9.793   3.157  0.0282 -0.1793 -0.7388
42457SOL    HW144981  10.166   9.807   3.198 -0.5975 -0.6089  0.7588
42457SOL    HW244982  10.034   9.876   3.171  0.0005 -0.1368 -1.0745
42458SOL     OW44983   0.624   1.069  11.431 -0.3248 -0.2720  0.7471
42458SOL    HW144984   0.593   1.159  11.440  1.2843  0.1878  2.5087
42458SOL    HW244985   0.547   1.015  11.449 -0.7058  0.8001  2.5971
42459SOL     OW44986   5.176  11.488   9.250  0.4613  0.0902  0.2606
42459SOL    HW144987   5.155  11.529   9.166 -1.4992 -0.2680  0.5257
42459SOL    HW244988   5.257  11.440   9.234  0.3641  0.3957 -1.2966
42460SOL     OW44989   5.710  13.028   5.477  0.0206 -0.5964 -0.1268
42460SOL    HW144990   5.665  13.094   5.424  1.7512  1.5006  0.8579
42460SOL    HW244991   5.640  12.969   5.505 -1.5771  0.6386 -1.3044
42461SOL     OW44992   1.683   1.007   6.026 -0.4996 -0.3252  0.3247
42461SOL    HW144993   1.659   0.932   6.081  2.9589  0.0522  2.6743
42461SOL    HW244994   1.759   0.977   5.976 -1.5500  0.4332 -1.8414
42462SOL     OW44995   0.312   9.213   5.886 -0.7585 -0.4666 -0.1846
42462SOL    HW144996   0.360   9.290   5.856 -1.1290  0.2024  0.8920
42462SOL    HW244997   0.311   9.155   5.810 -2.9513  1.7251 -1.9968
42463SOL     OW44998   2.635   9.809  13.709 -0.1077  0.1991 -0.3901
42463SOL    HW144999   2.606   9.726  13.670 -2.1604 -1.1237  3.4472
42463SOL    HW245000   2.554   9.860  13.717  0.4355  0.8683  0.9729
42464SOL     OW45001  13.858  10.268   1.331  0.2229 -0.3386 -0.1265
42464SOL    HW145002  13.812  10.348   1.308 -2.2670 -1.8670 -0.9021
42464SOL    HW245003  13.949  10.295   1.344 -0.9870  3.2381  3.0872
42465SOL     OW45004   3.970   3.542   0.006 -0.1261 -0.3760  0.0859
42465SOL    HW145005   3.886   3.499  -0.010 -0.2166 -0.6501  1.2483
42465SOL    HW245006   4.008   3.551  -0.082 -1.1517 -0.6632 -0.4148
42466SOL     OW45007   9.002   6.191   3.724 -0.3773  0.1177 -0.0677
42466SOL    HW145008   8.921   6.210   3.677  0.5728  1.1261 -1.3631
42466SOL    HW245009   9.015   6.097   3.714  0.9172  0.5490 -3.8166
42467SOL     OW45010  11.291   6.329  13.366 -0.3615 -0.0487 -0.2256
42467SOL    HW145011  11.313   6.419  13.342 -0.0079 -0.2375 -0.6088
42467SOL    HW245012  11.219   6.305  13.307  0.1845 -0.3456 -0.7782
42468SOL     OW45013   6.165   3.806   6.969  0.7775  0.4437 -0.8772
42468SOL    HW145014   6.072   3.818   6.951  0.5325  0.7895  0.5110
42468SOL    HW245015   6.207   3.804   6.882 -0.8374 -2.7700 -1.7578
42469SOL     OW45016   1.582   5.387  10.150 -0.2516  0.7152 -0.3351
42469SOL    HW145017   1.531   5.459  10.112 -0.5845  0.3050 -0.6869
42469SOL    HW245018   1.523   5.345  10.212 -0.0617  0.7429 -0.1359
42470SOL     OW45019   2.381  10.449   3.225 -0.3094 -0.2846  0.4726
42470SOL    HW145020   2.374  10.484   3.136  0.6077 -2.9595 -0.7680
42470SOL    HW245021   2.290  10.436   3.253 -0.6292  1.5480  0.3953
42471SOL     OW45022   1.807   1.217   1.844  0.0630 -0.0166 -0.2137
42471SOL    HW145023   1.882   1.239   1.789  0.7316  0.9151  1.0203
42471SOL    HW245024   1.770   1.301   1.870 -0.1486 -0.4208  0.8744
42472SOL     OW45025  11.481   6.675  10.977 -0.2132  0.4787  0.1475
42472SOL    HW145026  11.429   6.610  11.025  0.8838 -0.4000  0.1606
42472SOL    HW245027  11.422   6.706  10.908 -1.2413  0.5471  1.0136
42473SOL     OW45028   4.472   6.435   5.427  0.3873  0.2605  0.2754
42473SOL    HW145029   4.377   6.430   5.413  0.2931  0.3866  0.8297
42473SOL    HW245030   4.509   6.370   5.368 -0.0628  0.0374  0.2375
42474SOL     OW45031  12.714  13.522  12.803 -1.0253 -0.3646 -0.3401
42474SOL    HW145032  12.618  13.530  12.810 -1.3235 -2.8079 -0.8539
42474SOL    HW245033  12.735  13.570  12.723 -1.3731  2.5806  1.1862
42475SOL     OW45034  11.988  12.416   4.161 -0.1918  0.1196 -0.5557
42475SOL    HW145035  11.969  12.358   4.234  0.5940  0.9086  0.3011
42475SOL    HW245036  12.028  12.360   4.095  0.3285 -0.3560  0.1587
42476SOL     OW45037   2.954  13.975   2.565  0.0737  0.6424  0.5096
42476SOL    HW145038   3.006  13.919   2.623 -0.2010 -2.0962 -1.7362
42476SOL    HW245039   3.017  14.008   2.501  0.0247  2.1122  1.1773
42477SOL     OW45040   5.552   3.543   9.342  0.4009 -0.2041  0.6046
42477SOL    HW145041   5.622   3.483   9.316 -0.0379 -0.6489  0.4498
42477SOL    HW245042   5.485   3.534   9.274  0.2581  0.3378  0.6668
42478SOL     OW45043   0.643  11.424   9.824 -0.0184  0.0703 -0.3595
42478SOL    HW145044   0.589  11.403   9.901 -2.0393  2.6172 -0.9585
42478SOL    HW245045   0.692  11.502   9.851 -0.5176  0.8024 -1.5275
42479SOL     OW45046   7.905   0.166   0.519  0.1576 -0.5448 -0.1281
42479SOL    HW145047   7.961   0.122   0.455 -1.7839 -1.6609 -1.1607
42479SOL    HW245048   7.839   0.211   0.467  0.0793  0.7687  1.0438
42480SOL     OW45049   0.250  10.976  10.100 -0.0498 -0.0422  0.0393
42480SOL    HW145050   0.166  11.015  10.074 -0.7521 -0.1402  1.9536
42480SOL    HW245051   0.316  11.030  10.057 -1.0514 -0.5324 -2.3007
42481SOL     OW45052   6.094  13.532   8.482  0.0618  0.3498 -0.2743
42481SOL    HW145053   6.063  13.622   8.476 -1.1665 -0.1654 -3.4143
42481SOL    HW245054   6.015  13.479   8.488  0.6770 -0.6103 -0.4007
42482SOL     OW45055  14.064   6.672  11.349  0.2968  0.5598  0.0611
42482SOL    HW145056  14.080   6.736  11.419  1.1120  1.9253 -1.3157
42482SOL    HW245057  13.969   6.679  11.332  0.2756  0.9667  0.3381
42483SOL     OW45058   7.299   1.042   5.032 -0.0183 -0.0417  0.2997
42483SOL    HW145059   7.305   0.979   4.960 -0.7375  0.6553 -0.3873
42483SOL    HW245060   7.329   0.993   5.109 -0.2966 -1.1369 -0.2639
42484SOL     OW45061   9.055   3.081  12.025 -0.5931 -0.9358 -0.6253
42484SOL    HW145062   9.031   3.164  11.984 -1.1851 -1.2472 -0.9169
42484SOL    HW245063   9.029   3.090  12.116 -1.4728 -1.1168 -0.8473
42485SOL     OW45064   2.430   0.405  12.452  0.7280  0.1981 -0.2463
42485SOL    HW145065   2.437   0.494  12.417 -0.8438  0.7165  0.6785
42485SOL    HW245066   2.450   0.414  12.545  0.2152 -0.3630 -0.0751
42486SOL     OW45067   4.828   4.017   1.283 -0.0562 -0.1739  0.0581
42486SOL    HW145068   4.777   3.972   1.216  0.2013  0.2015 -0.3967
42486SOL    HW245069   4.883   3.949   1.321 -0.0392 -0.3417 -0.2682
42487SOL     OW45070   9.729   9.642  10.422  0.0499 -0.5228 -0.0707
42487SOL    HW145071   9.692   9.724  10.454  0.2850 -0.3148 -0.3246
42487SOL    HW245072   9.703   9.639  10.330 -0.4738 -1.0304  0.0821
42488SOL     OW45073  13.260  12.352   5.381 -0.2934 -0.8394 -0.5173
42488SOL    HW145074  13.189  12.292   5.360 -0.8323 -0.2398 -0.4161
42488SOL    HW245075  13.262  12.414   5.308 -0.8311  0.0122  0.1785
42489SOL     OW45076   6.281   7.846   4.967 -0.1348 -0.1430 -0.2199
42489SOL    HW145077   6.309   7.785   4.900  0.6430  0.6767 -0.6584
42489SOL    HW245078   6.185   7.849   4.958 -0.2257 -1.6021  0.1037
42490SOL     OW45079  10.857   6.436   6.723 -0.8193 -0.3662 -0.1709
42490SOL    HW145080  10.922   6.452   6.792 -1.2440 -0.4932  0.2633
42490SOL    HW245081  10.909   6.417   6.645 -0.3395 -1.0819  0.3180
42491SOL     OW45082   4.588   7.538   4.725  0.5311  0.3400  0.0232
42491SOL    HW145083   4.515   7.519   4.784 -0.5627  2.0920 -0.6797
42491SOL    HW245084   4.610   7.454   4.686 -1.1542 -0.2352  0.2262
42492SOL     OW45085   2.165   0.901   2.380 -0.2562  0.0012  0.0957
42492SOL    HW145086   2.085   0.950   2.364  0.8555  1.6866 -0.6007
42492SOL    HW245087   2.235   0.955   2.343  1.5396 -0.1050  2.9776
42493SOL     OW45088   9.139   8.541   3.969 -0.1302  0.0932 -0.4768
42493SOL    HW145089   9.051   8.504   3.972  0.0820 -0.5904 -1.9999
42493SOL    HW245090   9.177   8.522   4.056 -1.3212  0.0409  0.0444
42494SOL     OW45091  11.681   5.962   7.506  0.3004 -0.7387  0.0754
42494SOL    HW145092  11.728   6.015   7.570 -1.3849 -0.5570  1.2305
42494SOL    HW245093  11.598   6.009   7.493 -0.5617 -2.2414 -0.0723
42495SOL     OW45094  10.550   2.837  12.198 -0.3892  0.4519 -0.3664
42495SOL    HW145095  10.617   2.857  12.263 -0.7712  0.1477  0.1322
42495SOL    HW245096  10.562   2.744  12.178 -2.6803 -0.5570  2.2023
42496SOL     OW45097   7.042   0.161   6.059 -0.3567  0.5449  0.4428
42496SOL    HW145098   6.985   0.229   6.023  0.0925  1.1917  0.9366
42496SOL    HW245099   7.126   0.175   6.016 -0.8625 -1.2519 -1.3131
42497SOL     OW45100  10.041   6.392   4.845 -0.5984 -0.3159 -0.5757
42497SOL    HW145101  10.021   6.446   4.768  1.6590 -0.7625 -1.5832
42497SOL    HW245102   9.973   6.325   4.846 -0.2371 -0.7902 -2.7183
42498SOL     OW45103  12.532   0.389   7.388 -0.4074  0.2888 -0.3948
42498SOL    HW145104  12.479   0.310   7.399  1.7924 -1.0749  1.1291
42498SOL    HW245105  12.573   0.403   7.473  0.7737  1.9623 -1.1792
42499SOL     OW45106   9.621   3.471  13.844 -0.5315 -0.2017 -0.0123
42499SOL    HW145107   9.647   3.483  13.752 -1.0048 -0.6406 -0.2091
42499SOL    HW245108   9.562   3.395  13.842 -1.2099  0.3016  0.5362
42500SOL     OW45109   3.180   2.105  11.686  0.5702 -0.3005 -0.1295
42500SOL    HW145110   3.116   2.092  11.756  0.4409 -1.0604 -0.3788
42500SOL    HW245111   3.220   2.019  11.674 -0.0930 -0.4438 -1.6329
42501SOL     OW45112  11.890   9.141  11.754  0.2347 -0.3999  0.3895
42501SOL    HW145113  11.945   9.196  11.809 -0.1519 -1.1233  1.5358
42501SOL    HW245114  11.897   9.179  11.667 -0.0025  1.4509  1.1280
42502SOL     OW45115   7.003   2.962  11.628 -0.3766  0.3469 -0.3424
42502SOL    HW145116   6.970   3.051  11.637 -2.1374 -0.3549  0.9156
42502SOL    HW245117   6.926   2.911  11.601  0.3544 -0.9146 -0.1078
42503SOL     OW45118  12.156   9.484  13.122 -0.1553 -0.4078  0.2272
42503SOL    HW145119  12.194   9.541  13.189  0.8774 -2.0159  1.0830
42503SOL    HW245120  12.063   9.478  13.144 -0.2664  0.8551  0.1573
42504SOL     OW45121   7.622   8.908   7.382  0.1982 -0.2508 -0.0018
42504SOL    HW145122   7.596   8.845   7.314 -0.9508 -1.0250  1.1079
42504SOL    HW245123   7.545   8.916   7.438  1.2338  0.0792  1.4426
42505SOL     OW45124   6.958  12.402  13.503 -0.1399  0.4870 -0.0268
42505SOL    HW145125   6.913  12.344  13.441 -2.0727  2.0323 -0.1530
42505SOL    HW245126   6.937  12.490  13.473  0.2510  1.2611  1.8627
42506SOL     OW45127   2.811   4.461  10.252  0.1381 -0.2010 -0.1778
42506SOL    HW145128   2.768   4.534  10.296  0.1387  0.5832 -1.4243
42506SOL    HW245129   2.816   4.392  10.318  0.5864  1.0932  1.1819
42507SOL     OW45130  10.658   0.402   8.856 -0.1234  0.7848 -0.3370
42507SOL    HW145131  10.689   0.371   8.771 -0.6890  0.0136 -0.2752
42507SOL    HW245132  10.720   0.471   8.881  0.9227 -0.0069 -0.6804
42508SOL     OW45133   5.196   1.620   9.441 -0.8412 -0.4627 -0.1381
42508SOL    HW145134   5.248   1.667   9.507 -1.4581  0.7870 -0.5070
42508SOL    HW245135   5.106   1.647   9.458 -1.4268 -2.6401  0.5231
42509SOL     OW45136   4.551   7.796   1.381 -0.5046  0.5820 -0.4160
42509SOL    HW145137   4.566   7.821   1.472 -2.9258 -0.3251  0.3004
42509SOL    HW245138   4.506   7.712   1.386  2.4640 -1.3681 -2.5989
42510SOL     OW45139   8.798  13.324   8.400 -0.1998 -0.5198 -0.4533
42510SOL    HW145140   8.721  13.267   8.399 -0.8353  0.1752  2.0213
42510SOL    HW245141   8.789  13.374   8.481  2.0689  0.7129 -0.8977
42511SOL     OW45142   8.869  11.203   2.227 -0.0979 -0.0291 -0.2597
42511SOL    HW145143   8.830  11.166   2.148  0.4664  1.1453 -1.1040
42511SOL    HW245144   8.963  11.197   2.213  0.0254 -0.5421  0.6864
42512SOL     OW45145  13.759   7.872   9.969 -0.5825 -0.1031 -0.2054
42512SOL    HW145146  13.737   7.812  10.040 -0.8290  0.4055  0.1535
42512SOL    HW245147  13.854   7.876   9.969 -0.5289 -0.9949 -0.6587
42513SOL     OW45148  12.127  11.860   2.906 -0.0923  0.0193 -0.3962
42513SOL    HW145149  12.069  11.813   2.847 -0.3293 -2.7463  1.8520
42513SOL    HW245150  12.204  11.881   2.853 -1.1238 -0.4857 -2.1731
42514SOL     OW45151   7.183  11.980   3.883 -0.3042 -0.7620  0.1175
42514SOL    HW145152   7.238  12.010   3.955 -1.4596 -0.6367  0.9809
42514SOL    HW245153   7.094  12.003   3.909 -0.7174 -0.2650 -1.5893
42515SOL     OW45154   6.109  11.535   0.974  0.5075 -0.2059  0.0247
42515SOL    HW145155   6.070  11.449   0.960  0.6994  0.0653 -2.6030
42515SOL    HW245156   6.052  11.577   1.039 -0.5058 -1.7169  0.1654
42516SOL     OW45157  11.202  11.085  11.683  0.1876 -0.2787  0.0915
42516SOL    HW145158  11.240  11.094  11.770 -1.1985 -0.8598  0.7903
42516SOL    HW245159  11.230  10.999  11.653  1.0528  0.1104 -0.2600
42517SOL     OW45160   7.297   2.502   7.338  0.1429  0.2816  0.6195
42517SOL    HW145161   7.289   2.451   7.419 -0.8913 -2.2791 -0.9518
42517SOL    HW245162   7.216   2.553   7.333  0.6145  1.1592  1.5930
42518SOL     OW45163   3.448   7.854   5.027 -0.1297  0.3214 -0.0924
42518SOL    HW145164   3.522   7.817   5.075  0.2773  1.3278  0.0890
42518SOL    HW245165   3.391   7.779   5.009  0.6916 -0.3934  0.1929
42519SOL     OW45166   2.757   4.854   5.578 -0.0372  0.2676 -0.6817
42519SOL    HW145167   2.743   4.763   5.604  0.4518  1.1489  3.3457
42519SOL    HW245168   2.672   4.896   5.590  0.1385  0.6786 -0.8660
42520SOL     OW45169   4.303   4.205   2.088  0.1360 -0.2877 -0.0286
42520SOL    HW145170   4.297   4.301   2.084  0.6924 -0.2904 -1.2538
42520SOL    HW245171   4.240   4.174   2.024  0.1348 -0.7391  0.1899
42521SOL     OW45172   4.401   1.799   9.438  0.4148  0.2756 -0.2058
42521SOL    HW145173   4.311   1.785   9.467  0.1445 -0.1555 -1.2161
42521SOL    HW245174   4.403   1.768   9.348  1.7357 -0.3541  0.0016
42522SOL     OW45175  10.561   0.925  12.644 -0.4096 -0.1503 -0.4728
42522SOL    HW145176  10.528   0.948  12.730 -0.5720 -2.8950  0.2810
42522SOL    HW245177  10.648   0.966  12.640 -0.2768 -0.2239  1.1100
42523SOL     OW45178   7.076  10.878   1.271 -0.2482  0.2127  0.3226
42523SOL    HW145179   7.153  10.887   1.328 -0.9331 -0.1291  1.3401
42523SOL    HW245180   7.069  10.963   1.227  0.2192  0.5432  0.8720
42524SOL     OW45181   9.455  10.813   8.573  0.0862 -0.6758 -0.8117
42524SOL    HW145182   9.523  10.873   8.602 -1.6714  0.5102  1.1135
42524SOL    HW245183   9.405  10.862   8.508 -0.5125 -0.5829 -0.2799
42525SOL     OW45184  10.447   5.254  11.932 -0.2388  0.5793  0.1398
42525SOL    HW145185  10.460   5.329  11.874  2.0093  0.4433  0.3804
42525SOL    HW245186  10.379   5.202  11.889  0.0765  1.4068 -1.4389
42526SOL     OW45187   0.817  11.426   6.407  0.4819  0.1083 -0.6063
42526SOL    HW145188   0.804  11.374   6.487 -0.7809  1.0528 -0.1631
42526SOL    HW245189   0.734  11.471   6.394  1.5366  2.0886 -0.9150
42527SOL     OW45190   1.976   9.434   2.293 -0.2023 -0.2171 -0.4199
42527SOL    HW145191   1.899   9.395   2.251  0.2843  1.2551 -2.8836
42527SOL    HW245192   1.945   9.518   2.325  0.3449  0.4658 -1.5890
42528SOL     OW45193   3.009   6.427  13.461 -0.2208 -0.4569 -0.1428
42528SOL    HW145194   3.067   6.351  13.461  0.9464  0.4124 -0.1379
42528SOL    HW245195   2.946   6.408  13.530 -1.0542 -2.2127 -1.3142
42529SOL     OW45196  14.053   8.586  11.189 -0.0229  0.5199  0.2758
42529SOL    HW145197  13.967   8.568  11.227  0.4472  0.0644  1.1572
42529SOL    HW245198  14.114   8.572  11.261  0.9150 -0.4366 -0.6721
42530SOL     OW45199   3.285   4.314   8.633  0.2423 -0.1780 -0.3526
42530SOL    HW145200   3.347   4.348   8.698  1.2575 -0.7338 -1.0009
42530SOL    HW245201   3.252   4.392   8.589  0.3301  0.1418  0.1364
42531SOL     OW45202  11.988  10.926   2.851  0.2815  0.6107 -0.6208
42531SOL    HW145203  11.924  10.914   2.921  1.5899 -0.2151  0.4878
42531SOL    HW245204  11.978  10.848   2.796  0.4755  0.3757 -0.3253
42532SOL     OW45205   3.039   6.292   9.572  0.4421  0.2794  0.4416
42532SOL    HW145206   2.985   6.278   9.649 -3.0128 -0.9741 -1.9991
42532SOL    HW245207   3.085   6.209   9.559 -1.6646 -0.7901 -0.6712
42533SOL     OW45208   5.718  10.766   6.388  0.1506 -0.0830 -0.5708
42533SOL    HW145209   5.710  10.724   6.303 -1.6212  1.1737 -1.1028
42533SOL    HW245210   5.645  10.731   6.440 -0.8898  1.6127 -0.7732
42534SOL     OW45211   5.354   1.488   4.289 -0.6033 -0.3142 -0.0672
42534SOL    HW145212   5.402   1.569   4.303 -1.0367 -0.1533  0.5740
42534SOL    HW245213   5.349   1.448   4.376  0.6243 -1.6300 -0.5626
42535SOL     OW45214  11.788  10.921   5.440 -0.1628 -0.3051  0.0589
42535SOL    HW145215  11.718  10.856   5.432 -0.6923  0.3620 -0.9607
42535SOL    HW245216  11.744  10.998   5.477 -0.2947  0.5454 -1.7492
42536SOL     OW45217   8.497   7.418   0.265  0.4239  0.7022  0.6435
42536SOL    HW145218   8.488   7.335   0.218  1.8527  2.8558 -4.0677
42536SOL    HW245219   8.407   7.448   0.278 -0.1468 -1.5509  2.8204
42537SOL     OW45220  11.913  13.650   2.800 -0.1229 -0.0066  0.1874
42537SOL    HW145221  11.858  13.710   2.750  0.6854 -0.5795 -1.4778
42537SOL    HW245222  11.956  13.596   2.733  0.3560 -1.3980  1.5614
42538SOL     OW45223   2.561  11.927   8.610 -0.3525  0.3110 -0.1694
42538SOL    HW145224   2.549  12.018   8.581  0.8101  1.0534  1.5384
42538SOL    HW245225   2.647  11.902   8.575 -0.6432 -0.1350 -0.5828
42539SOL     OW45226   0.549   5.229   9.690 -0.1557 -0.2067  0.3176
42539SOL    HW145227   0.510   5.286   9.624 -0.6951 -0.4666  0.4096
42539SOL    HW245228   0.591   5.288   9.752 -0.5637  0.0816  0.3193
42540SOL     OW45229   9.214  12.643   8.907 -0.1127  0.3405  0.0400
42540SOL    HW145230   9.213  12.575   8.840 -0.2844 -0.5526  0.9264
42540SOL    HW245231   9.290  12.622   8.961 -0.2352  0.7910  0.3914
42541SOL     OW45232   8.680   3.652   4.586  0.1393 -0.3656 -0.6976
42541SOL    HW145233   8.749   3.708   4.622  0.2260 -0.5474 -0.5822
42541SOL    HW245234   8.654   3.696   4.505 -0.3916  0.2973 -0.1775
42542SOL     OW45235   0.473   6.287  12.902 -0.0799 -0.5019  0.5681
42542SOL    HW145236   0.547   6.334  12.863 -2.4286  2.0839 -1.1618
42542SOL    HW245237   0.439   6.346  12.969 -0.5280 -1.6938  1.4185
42543SOL     OW45238  10.375   9.250   4.899  0.3621  0.1824 -0.1467
42543SOL    HW145239  10.427   9.296   4.965  0.5302 -0.6217  0.2935
42543SOL    HW245240  10.439   9.203   4.846  0.2347  0.8502 -0.9340
42544SOL     OW45241   2.650  12.869  12.006  0.5271  0.0573 -0.0473
42544SOL    HW145242   2.560  12.901  12.013  0.5397 -0.2987  2.3924
42544SOL    HW245243   2.703  12.934  12.052  1.3645 -0.3909 -0.3469
42545SOL     OW45244   0.011   1.373   4.149 -0.2773  0.4537 -0.4208
42545SOL    HW145245  -0.060   1.324   4.189  0.1802  2.0019  2.5763
42545SOL    HW245246  -0.032   1.445   4.103 -0.7406  0.7042  0.3775
42546SOL     OW45247   5.078   5.316   4.974  0.0670 -0.3053 -0.7131
42546SOL    HW145248   5.138   5.243   4.980  1.9510  1.2099 -0.1134
42546SOL    HW245249   5.010   5.297   5.038 -0.8542 -2.6270 -2.2433
42547SOL     OW45250   2.887   4.692   1.672  0.5187  0.1000 -0.0089
42547SOL    HW145251   2.862   4.757   1.606  2.9122  2.1300  0.9296
42547SOL    HW245252   2.818   4.698   1.739  0.0762  0.7914 -0.5077
42548SOL     OW45253   2.126   6.163  11.456 -0.1200  0.0232  0.3054
42548SOL    HW145254   2.211   6.120  11.462 -0.6025 -0.9109  0.6954
42548SOL    HW245255   2.146   6.253  11.432  0.8464 -0.8216 -2.3552
42549SOL     OW45256   3.200  11.370  14.016 -0.1365 -0.3549  0.1543
42549SOL    HW145257   3.178  11.278  14.033  2.4964 -1.2099 -0.4744
42549SOL    HW245258   3.169  11.386  13.927 -0.5059 -0.6644  0.2251
42550SOL     OW45259   7.667  11.832   3.436  0.3903 -0.1829  0.0078
42550SOL    HW145260   7.761  11.843   3.421  0.7214 -3.0575 -0.6654
42550SOL    HW245261   7.628  11.846   3.349  0.4507 -0.8931 -0.1424
42551SOL     OW45262   4.654   4.882   1.295 -0.4638  0.7396 -0.2604
42551SOL    HW145263   4.655   4.875   1.200 -1.7368  1.3432 -0.3313
42551SOL    HW245264   4.747   4.879   1.320 -0.1705 -1.6577 -1.3300
42552SOL     OW45265   7.097   8.840   2.177 -0.1682  0.1180  0.7969
42552SOL    HW145266   7.144   8.914   2.216 -2.1542  2.1846 -0.5163
42552SOL    HW245267   7.042   8.807   2.248 -1.4073  1.8109  0.6806
42553SOL     OW45268   9.060   8.842   1.656  0.2166 -0.4278 -0.0214
42553SOL    HW145269   9.093   8.756   1.683  0.9942 -0.6620 -1.5787
42553SOL    HW245270   9.007   8.823   1.578 -0.2094  0.4404  0.0494
42554SOL     OW45271   4.972   5.063   8.171  0.2623 -0.6498 -0.0260
42554SOL    HW145272   5.013   5.068   8.258  0.1160  0.0208  0.0090
42554SOL    HW245273   5.012   5.134   8.122 -2.8638  1.9896  0.8772
42555SOL     OW45274   3.935   5.994   1.832  0.5168  0.2551  0.5673
42555SOL    HW145275   4.029   6.008   1.843  0.5041  0.2986  0.6224
42555SOL    HW245276   3.902   5.982   1.921  0.6806 -1.1119  0.4658
42556SOL     OW45277   5.325  11.153   1.701 -0.2756 -0.0506 -0.5213
42556SOL    HW145278   5.248  11.209   1.688  0.2699  0.7351 -0.4141
42556SOL    HW245279   5.368  11.151   1.615  0.4036  0.7511 -0.2108
42557SOL     OW45280   3.995  11.050   5.460  0.0670  0.2172 -0.0176
42557SOL    HW145281   3.920  11.025   5.407  1.4288  0.4739 -2.1696
42557SOL    HW245282   3.978  11.141   5.485 -1.0012 -0.1888  0.7779
42558SOL     OW45283  10.432  13.570   0.239 -0.4588  0.5470 -0.3840
42558SOL    HW145284  10.418  13.665   0.235 -1.3797  0.5104  1.2682
42558SOL    HW245285  10.352  13.535   0.277  1.4611 -0.3871  3.2983
42559SOL     OW45286   2.682   1.285   8.937 -0.3625  0.1817 -0.3181
42559SOL    HW145287   2.677   1.201   8.891 -0.3402 -0.5297  0.9376
42559SOL    HW245288   2.740   1.269   9.011  0.1812  1.5000 -0.4202
42560SOL     OW45289  12.678   5.117   3.189  0.0124 -0.4453 -0.2205
42560SOL    HW145290  12.734   5.189   3.219  1.0933 -1.2658 -0.1910
42560SOL    HW245291  12.593   5.135   3.228  0.7202 -0.1232  1.2347
42561SOL     OW45292   2.002   1.534   0.380 -0.1169  0.0124  0.7226
42561SOL    HW145293   2.047   1.537   0.295  0.9793  1.6674  1.3194
42561SOL    HW245294   2.038   1.457   0.424  0.3569 -0.0481  0.2356
42562SOL     OW45295  12.867   7.462   1.166 -0.4180  0.3120 -0.3317
42562SOL    HW145296  12.943   7.479   1.222  0.3455 -0.1653 -1.2024
42562SOL    HW245297  12.809   7.408   1.221  0.3337 -0.1871 -0.0037
42563SOL     OW45298  10.149   7.895   1.134  0.3883 -0.8268 -0.3236
42563SOL    HW145299  10.170   7.873   1.043  2.5150  0.9026 -0.3349
42563SOL    HW245300  10.210   7.965   1.157 -0.9154 -0.3445  2.0672
42564SOL     OW45301   8.997  12.322   4.908 -0.3977  0.2163 -0.0388
42564SOL    HW145302   9.032  12.391   4.965 -1.9293  0.0490  1.1503
42564SOL    HW245303   8.932  12.366   4.854  0.1389  0.1023 -0.8039
42565SOL     OW45304   1.800  12.865   1.234  0.5697 -0.3688  0.5168
42565SOL    HW145305   1.715  12.838   1.199  0.8422 -0.9930  0.3169
42565SOL    HW245306   1.841  12.783   1.262  1.2518 -0.1144  0.2780
42566SOL     OW45307   0.816   4.633   0.538 -0.1687 -0.6687  0.0190
42566SOL    HW145308   0.906   4.601   0.539 -0.0685 -0.4117  1.6839
42566SOL    HW245309   0.762   4.557   0.557 -0.3042 -0.7672 -0.7114
42567SOL     OW45310   7.539   1.318  12.944 -0.5720 -0.5533 -0.0604
42567SOL    HW145311   7.577   1.394  12.900 -2.6266  0.5972  0.0649
42567SOL    HW245312   7.541   1.249  12.878  0.7232 -0.2438 -0.3800
42568SOL     OW45313   2.675   4.698   6.012  0.5096 -0.0601 -0.0023
42568SOL    HW145314   2.721   4.616   5.997  2.1241  0.3982  1.9298
42568SOL    HW245315   2.584   4.678   5.993  0.7148 -2.5632  1.2171
42569SOL     OW45316   4.776   3.581   2.849 -0.3304  0.0859 -0.3366
42569SOL    HW145317   4.781   3.665   2.803 -3.0307 -0.0864 -1.1026
42569SOL    HW245318   4.821   3.519   2.791  0.5768  0.7500 -0.3639
42570SOL     OW45319   5.519   0.953  11.384 -0.1333  0.2161 -0.0650
42570SOL    HW145320   5.525   0.947  11.479  0.7747  0.2843 -0.1120
42570SOL    HW245321   5.582   0.887  11.352  1.1814  1.6825 -0.6079
42571SOL     OW45322  11.326  10.450   9.338 -0.6219 -0.0575 -0.9349
42571SOL    HW145323  11.309  10.367   9.382  0.2487 -0.3798 -1.2064
42571SOL    HW245324  11.272  10.447   9.259 -0.5108 -0.4115 -0.9979
42572SOL     OW45325   4.156  11.826  13.049 -0.8891  0.4198 -0.0202
42572SOL    HW145326   4.212  11.772  13.104 -1.1557 -0.1218 -0.2711
42572SOL    HW245327   4.129  11.899  13.105  1.6467  1.8031 -0.4359
42573SOL     OW45328   5.202   0.714   2.599 -0.0225  0.3092 -0.8540
42573SOL    HW145329   5.107   0.724   2.588 -0.4030  2.7317  2.9925
42573SOL    HW245330   5.213   0.667   2.681  2.1888 -0.5363 -1.5447
42574SOL     OW45331   0.826  12.885   8.022  0.0790 -0.2501  1.0300
42574SOL    HW145332   0.745  12.862   8.067 -1.1801  0.3215 -0.8666
42574SOL    HW245333   0.837  12.978   8.039 -0.5382  0.0252 -0.0075
42575SOL     OW45334   4.836   9.840   8.620  0.0515  0.4437  0.5045
42575SOL    HW145335   4.806   9.843   8.529 -1.0625  1.1068  0.8643
42575SOL    HW245336   4.870   9.752   8.632 -0.9478 -0.0610 -0.2151
42576SOL     OW45337   7.338   2.896  13.237  0.2889  0.0811 -0.2378
42576SOL    HW145338   7.362   2.908  13.329  2.1807 -0.6224 -0.6051
42576SOL    HW245339   7.340   2.801  13.224  0.0467  0.1737 -1.0095
42577SOL     OW45340   9.913   6.808   1.380 -0.0984 -0.7014 -0.2101
42577SOL    HW145341   9.920   6.739   1.445 -1.4843  0.2875  1.0566
42577SOL    HW245342   9.886   6.885   1.429 -0.1046  0.3715 -1.8005
42578SOL     OW45343  12.672   5.607   7.799 -0.3686  0.7321 -0.0617
42578SOL    HW145344  12.761   5.573   7.813 -1.6957 -2.3881  1.6946
42578SOL    HW245345  12.686   5.693   7.760  3.4211  0.4766  0.3309
42579SOL     OW45346  12.257  12.850  12.380 -0.4472  0.1567  0.5494
42579SOL    HW145347  12.259  12.898  12.464 -0.7730  0.3059  0.4746
42579SOL    HW245348  12.311  12.903  12.321 -0.7687  0.4074  0.4805
42580SOL     OW45349   9.278   1.512  12.596 -0.7887  0.5978  0.2892
42580SOL    HW145350   9.319   1.426  12.607 -1.1997  0.4524  0.6949
42580SOL    HW245351   9.184   1.495  12.601 -0.9033  0.9590 -0.4578
42581SOL     OW45352   7.546   0.688   7.098  0.7061  0.2665 -0.3809
42581SOL    HW145353   7.610   0.620   7.077  0.2777 -0.5062  0.7508
42581SOL    HW245354   7.473   0.641   7.138 -0.1650  1.2474 -0.7816
42582SOL     OW45355   3.039   3.607   9.978  0.1021  0.6526  0.3243
42582SOL    HW145356   2.965   3.552  10.005  0.3372  0.8140  1.3253
42582SOL    HW245357   3.075   3.641  10.059  0.8534  1.1443 -0.1983
42583SOL     OW45358  12.711   4.600  12.757  0.2900  0.0906  0.0447
42583SOL    HW145359  12.732   4.668  12.822  1.9239  0.3664 -0.7193
42583SOL    HW245360  12.627   4.627  12.720  0.5702  1.3084  0.2630
42584SOL     OW45361   9.690   3.208   1.431 -0.2346  0.2821  0.4035
42584SOL    HW145362   9.772   3.241   1.396 -0.7712  0.0471 -1.1544
42584SOL    HW245363   9.700   3.113   1.430 -1.1435  0.1524 -1.5369
42585SOL     OW45364   1.104   7.681   8.238  0.2410 -0.2101 -0.0211
42585SOL    HW145365   1.021   7.639   8.262 -0.0569  1.1841  1.5751
42585SOL    HW245366   1.085   7.724   8.154  0.0034 -1.6212 -0.7236
42586SOL     OW45367   2.250  11.362  13.958 -0.5614 -0.2723  0.2714
42586SOL    HW145368   2.192  11.288  13.972  0.2154 -0.8800  0.3801
42586SOL    HW245369   2.327  11.324  13.915 -0.5134  0.6140 -0.4489
42587SOL     OW45370   4.166  11.177  10.664 -0.5191 -0.2016  0.1458
42587SOL    HW145371   4.173  11.169  10.569 -1.3349  0.1886  0.0439
42587SOL    HW245372   4.118  11.099  10.691 -0.1403 -0.3987  0.2672
42588SOL     OW45373   4.900   0.710   6.957  0.2913 -0.2282  0.5804
42588SOL    HW145374   4.961   0.727   6.885  0.4139 -1.1518  0.4586
42588SOL    HW245375   4.957   0.681   7.029 -0.0581 -1.7288  0.2637
42589SOL     OW45376   8.946   3.863   1.081 -0.1922  1.1173 -0.0293
42589SOL    HW145377   8.901   3.853   1.164 -0.9445  1.4771 -0.3793
42589SOL    HW245378   8.879   3.845   1.015  1.0881 -2.2478 -0.6008
42590SOL     OW45379   5.993   2.042  12.717  0.3383 -0.0110 -0.5567
42590SOL    HW145380   5.965   2.029  12.627  1.0869  1.0935 -0.9587
42590SOL    HW245381   6.037   1.960  12.740 -0.7310 -0.6970 -0.8286
42591SOL     OW45382   9.503   0.216   9.021 -0.3468 -0.0604 -0.2021
42591SOL    HW145383   9.543   0.287   9.071  0.4327 -1.0284  0.5878
42591SOL    HW245384   9.420   0.252   8.990 -0.3499  0.9201  0.8848
42592SOL     OW45385   3.354   5.237   9.951 -0.4993  0.2395  0.2117
42592SOL    HW145386   3.365   5.234   9.856 -1.2109 -0.0871  0.1336
42592SOL    HW245387   3.423   5.179   9.985 -0.9379 -0.5233 -0.1705
42593SOL     OW45388   9.357   1.420  11.114  0.0700 -0.3326 -0.3214
42593SOL    HW145389   9.373   1.446  11.204 -0.3743 -2.7814  0.5337
42593SOL    HW245390   9.434   1.369  11.089  0.5780  0.9987 -1.6758
42594SOL     OW45391  10.195   5.771   1.970 -0.2674  0.4729  0.0150
42594SOL    HW145392  10.155   5.724   1.896 -1.3161  0.1999  0.7375
42594SOL    HW245393  10.223   5.854   1.933  0.6544 -0.2807 -1.0478
42595SOL     OW45394  12.604   8.652   2.165  0.0570  0.2788 -0.2321
42595SOL    HW145395  12.673   8.631   2.227 -0.3747 -0.4865  0.0058
42595SOL    HW245396  12.548   8.714   2.211  1.7113  2.6051 -1.1808
42596SOL     OW45397   4.595   8.454   4.370  0.0382 -0.1021 -0.1558
42596SOL    HW145398   4.649   8.375   4.370  0.6866  0.3251  0.9771
42596SOL    HW245399   4.649   8.520   4.411 -1.1473  0.4834  0.5105
42597SOL     OW45400  11.374  13.461   5.842 -0.3426  0.7487  0.2243
42597SOL    HW145401  11.310  13.528   5.818 -0.3198  0.4883 -0.6232
42597SOL    HW245402  11.388  13.473   5.935 -3.9690 -1.1285  1.1922
42598SOL     OW45403  13.136  13.864   0.609  0.4162 -0.5442  0.1787
42598SOL    HW145404  13.093  13.931   0.555  2.1486  1.5402  1.2287
42598SOL    HW245405  13.229  13.877   0.593  0.8898 -1.1685  2.2101
42599SOL     OW45406   3.572   9.300   4.431 -0.3135  0.2721  0.0530
42599SOL    HW145407   3.564   9.212   4.469  1.0690 -0.3083 -0.8980
42599SOL    HW245408   3.588   9.357   4.506 -0.2864 -0.4403  0.6029
42600SOL     OW45409  11.881   1.145   9.801  0.7000  0.2392  0.1239
42600SOL    HW145410  11.899   1.167   9.893 -3.3964  1.9101  0.7587
42600SOL    HW245411  11.877   1.230   9.757 -1.8123 -0.1224 -0.4950
42601SOL     OW45412  11.700  12.502   9.926 -0.0544  0.0825 -0.2451
42601SOL    HW145413  11.666  12.428   9.875  1.9410 -2.0484  1.3140
42601SOL    HW245414  11.655  12.494  10.011  0.9670 -0.0256  0.2958
42602SOL     OW45415   5.730   6.128   5.613 -0.1688  0.3205 -0.3387
42602SOL    HW145416   5.773   6.207   5.581 -1.0468  1.8138  1.9385
42602SOL    HW245417   5.646   6.126   5.567  0.0989  0.3751 -0.8341
42603SOL     OW45418   2.346  10.983   0.976 -0.8788  0.1889  0.1194
42603SOL    HW145419   2.316  10.960   0.888  0.6200 -0.3910 -0.2837
42603SOL    HW245420   2.404  11.058   0.963 -0.8476  0.2581  0.6384
42604SOL     OW45421   1.747   8.777   1.513 -0.3022 -0.4514  0.7519
42604SOL    HW145422   1.796   8.720   1.453  0.0497  0.0644  0.5346
42604SOL    HW245423   1.659   8.740   1.515 -1.2729  1.2656 -2.5876
42605SOL     OW45424   1.800   3.968  12.858 -0.3120  0.2572  0.0306
42605SOL    HW145425   1.799   3.954  12.953 -1.5273 -1.4610 -0.1997
42605SOL    HW245426   1.755   4.052  12.846 -2.5271 -0.7468  0.8460
42606SOL     OW45427   4.530   3.679   9.600  0.3381  0.2673 -0.3182
42606SOL    HW145428   4.592   3.739   9.641  2.2266 -0.9381 -1.2589
42606SOL    HW245429   4.472   3.651   9.671 -0.3087  2.7767  0.2173
42607SOL     OW45430   6.544   1.320   5.895  0.1384 -0.3321  0.5650
42607SOL    HW145431   6.490   1.371   5.956 -0.2157 -0.0867  0.0529
42607SOL    HW245432   6.627   1.366   5.892  0.9699 -1.5491  2.5472
42608SOL     OW45433   8.409  11.300   9.991  0.1368 -0.3338  0.5188
42608SOL    HW145434   8.477  11.368   9.990 -0.1516 -0.0415  0.1840
42608SOL    HW245435   8.384  11.292  10.082  0.4393 -0.2516  0.6095
42609SOL     OW45436   6.968   1.978  10.774  0.0319 -0.0676  0.1133
42609SOL    HW145437   6.881   1.940  10.770  0.1736 -0.5287  1.2580
42609SOL    HW245438   6.982   2.014  10.686 -0.8122 -1.0629 -0.4505
42610SOL     OW45439  14.028   0.232   0.762 -0.4014  0.4606 -0.3152
42610SOL    HW145440  14.048   0.324   0.743  0.1777 -0.1735 -3.2949
42610SOL    HW245441  14.100   0.203   0.818  2.1592  0.6868 -3.2152
42611SOL     OW45442   6.941  11.509  11.113 -0.1013 -0.5273  0.4870
42611SOL    HW145443   7.019  11.525  11.060  0.2446 -1.1509  0.7968
42611SOL    HW245444   6.875  11.569  11.078  0.5695  0.1321  0.3393
42612SOL     OW45445   1.163  11.509   1.316 -0.3611  0.1561 -0.0490
42612SOL    HW145446   1.173  11.414   1.319 -0.1062  0.0845 -1.7194
42612SOL    HW245447   1.239  11.543   1.363 -0.6189 -0.4481  0.8322
42613SOL     OW45448   4.557   8.697   6.808 -0.0850  0.2844 -0.0241
42613SOL    HW145449   4.590   8.769   6.862  2.9720 -0.3428 -0.8893
42613SOL    HW245450   4.520   8.635   6.871 -1.5987  1.9530  0.8305
42614SOL     OW45451   9.284   2.972   2.262  0.0234  0.2281  0.4871
42614SOL    HW145452   9.299   2.878   2.272  1.7660  0.2640 -1.1267
42614SOL    HW245453   9.231   2.979   2.183 -0.0917  0.6127  0.5984
42615SOL     OW45454  11.905   0.190   4.554 -0.2611  0.6543  0.7681
42615SOL    HW145455  11.818   0.214   4.585  0.1126  0.8276  1.7147
42615SOL    HW245456  11.895   0.099   4.527 -0.9268  0.9136  0.1090
42616SOL     OW45457  12.473   1.947   1.324  0.4115  0.7172  0.1274
42616SOL    HW145458  12.498   1.856   1.339  2.2173  0.7490 -2.1440
42616SOL    HW245459  12.496   1.992   1.406 -2.9429 -1.1650  2.3200
42617SOL     OW45460  10.112   4.824   3.362  0.1138  0.6283  0.2417
42617SOL    HW145461  10.154   4.744   3.393 -0.4617 -0.4094 -1.5047
42617SOL    HW245462  10.051   4.794   3.295 -0.1293  2.5447 -0.4494
42618SOL     OW45463  13.803   1.478   2.606 -0.3351 -0.0960 -0.9117
42618SOL    HW145464  13.767   1.426   2.678 -1.5210 -1.0993 -2.1698
42618SOL    HW245465  13.892   1.499   2.633 -0.6828 -0.6359  0.7382
42619SOL     OW45466   6.161   1.721   8.802  0.8261 -0.1958  0.1180
42619SOL    HW145467   6.251   1.706   8.772  0.7364  1.0822 -0.8955
42619SOL    HW245468   6.125   1.783   8.739 -0.3049  0.4537  1.3552
42620SOL     OW45469   6.057   6.855   4.607  0.7291 -0.2035 -0.6621
42620SOL    HW145470   6.048   6.876   4.514 -1.5804  0.9260 -0.2499
42620SOL    HW245471   6.086   6.937   4.647 -1.1251  0.1871 -0.0363
42621SOL     OW45472   3.388  13.876   9.674 -0.5428 -0.1624 -0.4288
42621SOL    HW145473   3.470  13.925   9.664 -1.1930  1.2068  0.6640
42621SOL    HW245474   3.413  13.797   9.722  0.1918  0.0351 -0.4696
42622SOL     OW45475   5.737   9.346   6.374 -0.0183  0.0567 -0.6212
42622SOL    HW145476   5.748   9.440   6.392  0.3986 -0.2336  0.7552
42622SOL    HW245477   5.647   9.327   6.400  0.0663 -0.0256 -0.3821
42623SOL     OW45478   6.505   4.979   8.998 -0.1902  0.1265 -0.3408
42623SOL    HW145479   6.570   5.033   9.043 -0.0275  1.1453 -1.7588
42623SOL    HW245480   6.544   4.891   8.997 -0.0511  0.1424  1.1644
42624SOL     OW45481   1.420   3.915  10.182  0.2938 -0.3185 -0.4732
42624SOL    HW145482   1.394   3.834  10.226 -2.0041  0.3171 -0.5315
42624SOL    HW245483   1.388   3.905  10.092  0.0027  0.6073 -0.4888
42625SOL     OW45484  12.219  14.013   5.365  0.1315  0.3412  0.8207
42625SOL    HW145485  12.153  14.076   5.394  0.2766  0.0761  1.7782
42625SOL    HW245486  12.259  14.053   5.288  0.5808  1.6689  1.7121
42626SOL     OW45487  11.233   5.150  13.298 -0.2629 -0.0784  0.1196
42626SOL    HW145488  11.215   5.192  13.382  1.4592  0.9829  0.0005
42626SOL    HW245489  11.266   5.063  13.322 -2.3943 -0.8713  0.4102
42627SOL     OW45490  11.441   4.190   2.903  0.2333  0.3759 -0.1804
42627SOL    HW145491  11.431   4.095   2.910 -0.6913  0.5103  0.7251
42627SOL    HW245492  11.360   4.225   2.942  1.3373  1.5478  1.1978
42628SOL     OW45493   7.821   9.694  13.121  0.0608 -0.2401 -0.7707
42628SOL    HW145494   7.801   9.663  13.033 -0.8312 -0.8878 -0.3653
42628SOL    HW245495   7.747   9.749  13.145  0.2908 -0.0744 -0.4248
42629SOL     OW45496  13.347   1.565   0.647  0.2723  0.3303 -0.4552
42629SOL    HW145497  13.381   1.476   0.655 -0.3677 -0.1459 -2.4974
42629SOL    HW245498  13.284   1.573   0.719  0.4447 -0.8083 -0.1590
42630SOL     OW45499  13.298   1.796   9.428  0.1376 -0.0715  0.0412
42630SOL    HW145500  13.283   1.740   9.504 -1.2664  0.9375  0.5466
42630SOL    HW245501  13.393   1.808   9.426  0.2948 -0.9899  0.9869
42631SOL     OW45502   0.913   2.959   0.780  0.1612  0.4116  0.0760
42631SOL    HW145503   0.939   3.051   0.791  1.0261  0.4505 -1.8296
42631SOL    HW245504   0.979   2.923   0.720 -0.4084 -1.3492  0.4490
42632SOL     OW45505  10.158   3.675  11.220  0.7081 -0.1675 -0.5030
42632SOL    HW145506  10.115   3.598  11.257  1.6882 -1.5925 -2.1976
42632SOL    HW245507  10.166   3.735  11.293 -0.0461 -1.6895  0.8917
42633SOL     OW45508  13.811   4.112   6.733 -0.2640  0.0143  0.2262
42633SOL    HW145509  13.742   4.055   6.698 -0.4902  0.0280  0.6412
42633SOL    HW245510  13.833   4.170   6.661  0.3179 -0.9141 -0.3702
42634SOL     OW45511  10.479   8.815   6.365  0.3233 -0.2581 -0.1067
42634SOL    HW145512  10.554   8.831   6.423 -1.2945  1.4504  1.6917
42634SOL    HW245513  10.494   8.874   6.291  0.2767  0.8741  0.7559
42635SOL     OW45514   0.348   3.164   8.298  0.1047  0.4330  0.0313
42635SOL    HW145515   0.263   3.147   8.256  0.1667 -0.5258  0.2826
42635SOL    HW245516   0.328   3.229   8.365  0.1288  2.5976 -1.9224
42636SOL     OW45517   6.107   1.065   9.199 -0.2738 -0.1170 -0.2423
42636SOL    HW145518   6.039   1.098   9.139 -1.6881 -1.0614  0.7595
42636SOL    HW245519   6.189   1.083   9.154 -1.2360  0.0545 -2.0474
42637SOL     OW45520   4.155   9.683  10.791 -0.1150 -0.3190 -0.0317
42637SOL    HW145521   4.102   9.746  10.742 -1.0102 -2.0323 -1.3987
42637SOL    HW245522   4.132   9.699  10.883 -3.8104 -1.4638 -0.5529
42638SOL     OW45523   8.853  12.803   5.336  0.1395  0.5318 -0.2866
42638SOL    HW145524   8.878  12.895   5.347  0.9711  0.3191 -0.3177
42638SOL    HW245525   8.770  12.795   5.384 -0.1402  1.3826 -0.6142
42639SOL     OW45526   1.488   2.138  12.022  0.1017  0.4716  0.6111
42639SOL    HW145527   1.462   2.162  11.933 -1.0668 -0.4440  0.6773
42639SOL    HW245528   1.573   2.096  12.012 -0.5124 -0.6133 -0.2310
42640SOL     OW45529   0.274  13.955   8.383 -0.5214  0.0217  0.1813
42640SOL    HW145530   0.294  14.022   8.317 -0.5965 -0.9566 -0.8770
42640SOL    HW245531   0.183  13.970   8.407 -0.5251  0.3315 -0.0236
42641SOL     OW45532   9.744   0.364   8.587  0.1212 -0.4557  0.2354
42641SOL    HW145533   9.745   0.377   8.682  1.9199 -2.6636  0.6234
42641SOL    HW245534   9.835   0.377   8.561 -0.1961 -0.6984 -1.0516
42642SOL     OW45535   4.264   9.723  12.822 -0.2139  0.6196  0.2104
42642SOL    HW145536   4.309   9.789  12.770  1.8236 -1.3585 -0.7353
42642SOL    HW245537   4.179   9.713  12.780  0.3750  0.9624 -1.1280
42643SOL     OW45538   8.099  11.103   4.755 -0.7881  0.0579  0.1590
42643SOL    HW145539   8.030  11.072   4.813 -0.9799  1.3115  0.6281
42643SOL    HW245540   8.124  11.189   4.790 -2.1450  1.7292 -2.6068
42644SOL     OW45541  13.047   7.410   9.065 -0.1580 -0.2237 -0.0795
42644SOL    HW145542  13.096   7.344   9.016  0.0533  0.2139 -0.4529
42644SOL    HW245543  13.102   7.488   9.063 -0.9347  0.3251 -0.6371
42645SOL     OW45544   1.211   5.933   2.249  0.4158 -0.1177 -0.1567
42645SOL    HW145545   1.175   5.869   2.188  1.1770 -1.0842  0.3929
42645SOL    HW245546   1.294   5.960   2.209 -0.8724  2.2020 -1.4866
42646SOL     OW45547  10.785   0.278   2.146  0.2762 -0.3299 -0.0172
42646SOL    HW145548  10.789   0.183   2.146 -1.5062 -0.4537  0.2739
42646SOL    HW245549  10.836   0.304   2.070 -1.1379 -1.6898 -1.5322
42647SOL     OW45550  13.239   2.211   3.029  0.5330 -0.4772 -0.1037
42647SOL    HW145551  13.148   2.241   3.029  0.3427 -1.0131  0.6500
42647SOL    HW245552  13.268   2.223   3.120  0.9950 -0.9456 -0.1835
42648SOL     OW45553   9.893  11.463   4.677 -0.1842 -0.1660  0.7354
42648SOL    HW145554   9.839  11.457   4.755 -0.3221  0.2646  0.6762
42648SOL    HW245555   9.901  11.557   4.660 -1.7058 -0.2486 -0.8301
42649SOL     OW45556   7.518   8.541   5.307  0.5453  0.2271  0.2544
42649SOL    HW145557   7.557   8.454   5.315 -0.0578 -0.0428  0.3336
42649SOL    HW245558   7.456   8.546   5.381  0.5171  0.6883  0.2006
42650SOL     OW45559   2.288   1.003   4.847 -0.5484 -0.4882  0.3719
42650SOL    HW145560   2.252   1.091   4.863  0.1666  0.2540 -1.7723
42650SOL    HW245561   2.370   1.002   4.897 -0.1587  0.4055 -0.2140
42651SOL     OW45562   2.096  11.671  13.208 -0.6071 -0.2447  0.4374
42651SOL    HW145563   2.101  11.755  13.253 -3.5218 -0.5305  1.5302
42651SOL    HW245564   2.134  11.687  13.122 -0.3794  1.9635  0.8978
42652SOL     OW45565   6.734   9.702  12.816  0.1229  0.1600 -0.3974
42652SOL    HW145566   6.691   9.622  12.849  0.7064 -0.1492 -0.3748
42652SOL    HW245567   6.741   9.758  12.893 -0.0420  0.1202 -0.3531
42653SOL     OW45568  13.199   9.690   7.591  0.0715 -0.3873 -0.2667
42653SOL    HW145569  13.276   9.714   7.540 -0.2433 -0.1604 -0.6435
42653SOL    HW245570  13.230   9.623   7.652  0.6069 -0.1561 -0.2809
42654SOL     OW45571  11.650   4.434   8.631 -0.1299  0.6218  0.6694
42654SOL    HW145572  11.639   4.465   8.541 -0.2762 -0.0926  0.4349
42654SOL    HW245573  11.622   4.508   8.686 -1.4487  0.5582  0.1184
42655SOL     OW45574   3.733  10.622   0.600  0.5922 -0.4757  0.3540
42655SOL    HW145575   3.742  10.540   0.648 -0.6720 -0.9636 -0.1772
42655SOL    HW245576   3.642  10.649   0.617  0.1144 -0.6577 -1.7009
42656SOL     OW45577   5.510   2.583  12.378  0.4326 -0.6251  0.3346
42656SOL    HW145578   5.558   2.523  12.321 -0.2501 -2.8738  1.9570
42656SOL    HW245579   5.541   2.561  12.466 -1.7910 -0.4630  1.2110
42657SOL     OW45580   1.516   0.983   0.933 -0.1250  0.0698  0.2886
42657SOL    HW145581   1.510   0.896   0.972  3.2731 -0.9052 -0.9895
42657SOL    HW245582   1.481   0.973   0.845 -0.7173  0.3014  0.4924
42658SOL     OW45583  14.062   4.678   9.024  0.1529  0.1920 -0.0188
42658SOL    HW145584  14.078   4.584   9.016  1.6010  0.5132 -1.3951
42658SOL    HW245585  14.065   4.710   8.933 -1.0628  1.4623  0.3538
42659SOL     OW45586   6.690   5.188   3.316  0.4923  0.2464 -0.3110
42659SOL    HW145587   6.694   5.233   3.400 -0.9459 -1.7202  0.8930
42659SOL    HW245588   6.739   5.107   3.329  1.4658  0.5396 -1.8448
42660SOL     OW45589   5.617   7.717   1.736  0.7140 -0.0103 -0.2765
42660SOL    HW145590   5.670   7.700   1.658 -1.0896 -1.7585 -1.2050
42660SOL    HW245591   5.578   7.632   1.758 -0.6658  0.9314  1.1389
42661SOL     OW45592  11.087   3.281   2.875  0.8980 -0.0060  0.2040
42661SOL    HW145593  11.015   3.330   2.836  1.5690  1.4411  0.7329
42661SOL    HW245594  11.143   3.258   2.801 -0.6853 -2.3049 -0.4175
42662SOL     OW45595   6.036   1.920  11.902 -0.5466 -0.4168 -0.0658
42662SOL    HW145596   6.123   1.960  11.889 -0.4797 -1.1103 -2.0290
42662SOL    HW245597   5.989   1.983  11.957  0.5631  0.9156 -0.5885
42663SOL     OW45598  10.555   2.708   8.050  0.4836 -0.6225 -0.3861
42663SOL    HW145599  10.467   2.724   8.017 -0.4211  2.3517  2.9131
42663SOL    HW245600  10.611   2.761   7.994 -0.1920 -0.2870 -0.7574
42664SOL     OW45601   8.305   9.065  12.234 -0.1983  0.5654  0.2384
42664SOL    HW145602   8.238   9.035  12.296  2.2333 -2.2208  1.7920
42664SOL    HW245603   8.332   9.151  12.267 -1.5109  0.7807  0.8070
42665SOL     OW45604  11.010  13.794   8.655 -0.0385  0.2279 -0.7963
42665SOL    HW145605  11.026  13.851   8.730  0.0617  1.3766 -1.6679
42665SOL    HW245606  10.930  13.746   8.678 -0.1539  0.7535 -0.0696
42666SOL     OW45607   1.772   3.239   4.647  0.1171 -0.0195  0.3476
42666SOL    HW145608   1.707   3.250   4.578  0.7296  0.4850 -0.1520
42666SOL    HW245609   1.720   3.229   4.727 -0.5587  1.9918  0.2008
42667SOL     OW45610  13.303   9.224  10.080  0.0631 -0.1895  0.0146
42667SOL    HW145611  13.252   9.162  10.132 -2.1423  1.0932 -0.4845
42667SOL    HW245612  13.242   9.296  10.061  1.9917  1.3135 -0.9009
42668SOL     OW45613  12.232  11.941   5.277  0.1312  0.0294  1.1419
42668SOL    HW145614  12.256  11.979   5.193 -0.5402  2.6709  2.0491
42668SOL    HW245615  12.305  11.882   5.298  1.0215  0.4454 -0.5810
42669SOL     OW45616   4.985  10.704   5.319  0.3175  0.5500  0.0592
42669SOL    HW145617   5.058  10.743   5.368  1.1887  0.9958 -1.5149
42669SOL    HW245618   4.930  10.778   5.295 -0.4361  0.2614  0.8606
42670SOL     OW45619   9.666   3.027  11.728  0.4864  0.4531 -0.3111
42670SOL    HW145620   9.673   3.109  11.777 -0.3703  0.1253  0.3753
42670SOL    HW245621   9.624   3.053  11.645  1.0156  0.8385 -0.4680
42671SOL     OW45622   8.822  12.669   3.332  0.4969 -0.0574  0.6139
42671SOL    HW145623   8.871  12.621   3.265 -1.7715  0.8505 -1.8922
42671SOL    HW245624   8.780  12.600   3.384 -2.3855 -1.0470 -2.6525
42672SOL     OW45625   6.191   0.820  10.162 -0.4268  0.0373 -0.0459
42672SOL    HW145626   6.198   0.914  10.178 -0.2649 -0.3637  2.9501
42672SOL    HW245627   6.269   0.798  10.113 -0.9366  1.5665 -1.6531
42673SOL     OW45628  12.262  12.223   3.214  0.3891  0.0499 -0.3480
42673SOL    HW145629  12.295  12.134   3.201 -0.4942 -0.3195 -0.1435
42673SOL    HW245630  12.178  12.211   3.260  1.7373  1.1078  2.6500
42674SOL     OW45631   7.979  13.907   8.847  0.0270 -0.4099 -0.1805
42674SOL    HW145632   8.046  13.875   8.908 -0.5134  1.4416  1.4847
42674SOL    HW245633   8.025  13.914   8.763  1.6742 -0.1489  0.6884
42675SOL     OW45634   8.241  11.908   9.650  0.1808 -0.7558 -0.2358
42675SOL    HW145635   8.189  11.920   9.571  0.0612 -2.2544 -0.4037
42675SOL    HW245636   8.244  11.814   9.663  1.5616 -0.6133  0.6482
42676SOL     OW45637  13.797   5.520   7.676  0.0018 -0.1320  0.1172
42676SOL    HW145638  13.821   5.522   7.768  1.8176 -1.0204 -0.2740
42676SOL    HW245639  13.796   5.611   7.648 -1.4536  0.2001  1.2046
42677SOL     OW45640   3.749  10.141   6.550 -0.5944 -0.5366  0.1573
42677SOL    HW145641   3.806  10.069   6.576  0.8687  0.6418  0.3716
42677SOL    HW245642   3.729  10.125   6.458  1.1320 -0.3210 -0.2764
42678SOL     OW45643  10.504   1.794   4.295  0.0510  0.0919  0.0306
42678SOL    HW145644  10.452   1.773   4.217 -0.6076  2.0744 -0.1352
42678SOL    HW245645  10.439   1.818   4.361  0.6102 -1.4569  1.2091
42679SOL     OW45646   3.460   7.391   7.228  0.0833  0.3502 -0.9043
42679SOL    HW145647   3.427   7.340   7.155 -1.3591 -0.0304 -0.0324
42679SOL    HW245648   3.551   7.364   7.238 -0.5645 -1.9476 -0.5976
42680SOL     OW45649   1.869   3.654   9.281 -0.2198 -0.1909 -0.3683
42680SOL    HW145650   1.850   3.604   9.360 -0.2718  1.1847  0.5195
42680SOL    HW245651   1.796   3.715   9.273 -0.1960 -0.2778 -1.4731
42681SOL     OW45652  10.654  11.139  13.042  0.0553 -0.1981 -0.6885
42681SOL    HW145653  10.579  11.131  13.101  1.0326 -0.1874  0.6220
42681SOL    HW245654  10.636  11.217  12.991  0.5879  1.7241  1.8477
42682SOL     OW45655   2.377   5.675   7.635 -0.0054 -0.3320  0.2001
42682SOL    HW145656   2.302   5.659   7.691 -0.2223 -0.2491 -0.0637
42682SOL    HW245657   2.452   5.646   7.686 -0.3639 -2.1755 -0.2571
42683SOL     OW45658   4.483   3.363   9.246  0.6485 -0.4216  0.4484
42683SOL    HW145659   4.502   3.349   9.153 -2.1975 -1.0890 -0.1313
42683SOL    HW245660   4.481   3.275   9.284  0.4044 -0.2510  0.8362
42684SOL     OW45661   2.041   4.125   4.363 -0.3188  0.4036  0.4419
42684SOL    HW145662   1.980   4.062   4.401  0.9964 -0.6599  0.8738
42684SOL    HW245663   1.989   4.204   4.349 -2.1193 -0.8658 -0.4698
42685SOL     OW45664   0.441   7.276   7.437 -0.1311  0.7681 -0.2820
42685SOL    HW145665   0.534   7.258   7.429 -0.1976  0.8976 -1.5793
42685SOL    HW245666   0.415   7.306   7.350 -1.6215 -0.4195 -0.2921
42686SOL     OW45667   0.619   3.690   3.309 -0.2530  0.5996  0.1392
42686SOL    HW145668   0.544   3.726   3.357 -1.1851 -0.0300 -0.7842
42686SOL    HW245669   0.678   3.764   3.296 -0.4030  0.9662  1.4458
42687SOL     OW45670   9.829   3.654   0.453 -0.1094  0.1002  0.1909
42687SOL    HW145671   9.809   3.719   0.386  1.0309  1.6686  1.3202
42687SOL    HW245672   9.861   3.704   0.528 -0.2766 -1.6769  1.5363
42688SOL     OW45673   6.300   4.681   4.511  0.1898  0.0750 -0.6219
42688SOL    HW145674   6.220   4.640   4.476  0.7587 -1.8508  0.2194
42688SOL    HW245675   6.371   4.631   4.472  0.8933 -0.3116  1.0587
42689SOL     OW45676   0.495   4.215  13.466  0.4520 -0.2610  0.1483
42689SOL    HW145677   0.554   4.282  13.430 -0.3612  1.3305  1.6356
42689SOL    HW245678   0.542   4.182  13.543  0.7502 -1.2777 -0.4548
42690SOL     OW45679  12.636   1.748  11.301 -0.3139  0.2810 -0.1392
42690SOL    HW145680  12.607   1.836  11.276 -0.9593  0.6700  1.8285
42690SOL    HW245681  12.711   1.731  11.244  1.5897  3.2629  1.2134
42691SOL     OW45682  10.299  13.480   7.621  0.1817  0.4804 -0.0329
42691SOL    HW145683  10.319  13.570   7.646 -0.9241  0.1731  2.1924
42691SOL    HW245684  10.216  13.460   7.665  0.3694 -1.5988 -0.5012
42692SOL     OW45685   5.775   8.608   2.548 -0.0603  0.1728  0.1502
42692SOL    HW145686   5.720   8.685   2.562 -1.8964 -0.9279 -0.6604
42692SOL    HW245687   5.776   8.596   2.453  0.2500 -0.7710  0.2607
42693SOL     OW45688   1.317   1.604   3.709 -0.0620  0.8157  0.0817
42693SOL    HW145689   1.349   1.546   3.640  0.3890  0.3658  0.6570
42693SOL    HW245690   1.343   1.561   3.790  1.3063  2.3884  0.5307
42694SOL     OW45691  10.933   2.204   3.154  0.2757  0.2279  0.2547
42694SOL    HW145692  10.884   2.205   3.236  1.8446 -0.5250  1.2334
42694SOL    HW245693  11.016   2.247   3.175  0.1802  1.2892 -1.3159
42695SOL     OW45694  10.272   1.516  11.446  0.3290 -0.2526 -0.0917
42695SOL    HW145695  10.264   1.572  11.369 -0.6922 -1.1421 -0.6530
42695SOL    HW245696  10.328   1.444  11.419  0.1699 -0.4377  0.0643
42696SOL     OW45697   4.465   9.050   6.572  0.4447 -0.0378  0.0196
42696SOL    HW145698   4.514   9.110   6.517 -0.0116  0.0830 -0.2640
42696SOL    HW245699   4.385   9.031   6.521 -0.9402  1.6189  1.4636
42697SOL     OW45700  13.078   3.273   0.430  0.1214 -0.1058 -0.2218
42697SOL    HW145701  13.117   3.337   0.371  2.9290 -0.1548  1.4039
42697SOL    HW245702  13.023   3.326   0.489 -0.3190  0.3199 -1.0038
42698SOL     OW45703  10.423   4.038  10.832 -0.2628 -0.0386  0.4125
42698SOL    HW145704  10.462   3.985  10.763  2.1156  1.5863  0.3867
42698SOL    HW245705  10.470   4.012  10.912 -4.0326 -3.0422  1.9474
42699SOL     OW45706   8.865   2.904  13.982 -0.2366 -0.1241  0.1859
42699SOL    HW145707   8.774   2.892  13.955 -0.6492  2.4330  0.2245
42699SOL    HW245708   8.909   2.936  13.903  0.4301 -0.4567  0.4158
42700SOL     OW45709   8.946   0.143   2.486  0.4689 -0.0082 -0.2131
42700SOL    HW145710   8.957   0.052   2.515  1.2049 -0.1132 -0.7669
42700SOL    HW245711   8.852   0.156   2.481  0.3572 -0.9757 -0.8053
42701SOL     OW45712   7.505  12.686  13.180 -0.4253  0.2037  0.0982
42701SOL    HW145713   7.550  12.647  13.255 -0.5088 -1.7797 -0.8321
42701SOL    HW245714   7.562  12.666  13.105 -1.1593  0.6961 -0.6061
42702SOL     OW45715   5.775  10.467   8.884 -0.0607 -0.1921  0.1214
42702SOL    HW145716   5.858  10.420   8.889 -0.6712 -1.1714  1.6605
42702SOL    HW245717   5.718  10.409   8.833 -0.1356 -0.0426  0.0350
42703SOL     OW45718  13.502  12.243   0.896 -0.3505  0.5750  0.3452
42703SOL    HW145719  13.465  12.219   0.981  1.6537 -1.4641  0.7626
42703SOL    HW245720  13.533  12.333   0.908 -0.4847  0.4675  1.6683
42704SOL     OW45721   2.341  12.154   6.966 -0.1095  0.3888  0.2627
42704SOL    HW145722   2.416  12.098   6.980 -0.9215 -1.1430 -1.1645
42704SOL    HW245723   2.365  12.209   6.892 -0.3905 -0.1597 -0.2487
42705SOL     OW45724   4.537   2.749  10.132  0.4636 -0.0273 -0.3165
42705SOL    HW145725   4.481   2.697  10.190  2.7162 -2.2679 -0.0241
42705SOL    HW245726   4.491   2.750  10.048 -2.0182  1.8397  0.9178
42706SOL     OW45727  14.085  13.718   6.004  0.0892  0.4550 -1.4344
42706SOL    HW145728  14.104  13.635   5.960  1.9043  0.9540 -1.6640
42706SOL    HW245729  14.077  13.695   6.097 -3.4327 -0.5544 -1.8461
42707SOL     OW45730   4.924   0.103  10.469 -0.4309  0.1740 -0.2278
42707SOL    HW145731   4.900   0.167  10.537 -1.6396  0.2297 -0.6932
42707SOL    HW245732   4.991   0.148  10.417 -0.9485  0.9026 -0.2852
42708SOL     OW45733   5.829   7.205  12.694 -0.2336 -0.0704  0.6413
42708SOL    HW145734   5.921   7.205  12.721  0.3626  1.3085 -1.1348
42708SOL    HW245735   5.809   7.113  12.675  0.7523 -0.3991  1.1611
42709SOL     OW45736   6.880   3.637  11.623  0.3369  0.7464  0.1403
42709SOL    HW145737   6.952   3.575  11.632  0.3241  0.7212  0.0757
42709SOL    HW245738   6.911   3.718  11.663  0.3210  0.6717  0.3044
42710SOL     OW45739   2.453   2.618   1.127  0.1079  0.0499  0.6102
42710SOL    HW145740   2.364   2.632   1.096 -0.5769 -1.2566  1.8870
42710SOL    HW245741   2.449   2.536   1.176  1.9001  0.2380  1.1399
42711SOL     OW45742   9.183  13.244   5.407  0.1028  0.4868 -0.2548
42711SOL    HW145743   9.272  13.270   5.382  0.0490  0.6928 -0.2358
42711SOL    HW245744   9.175  13.272   5.498 -0.2946  1.2969 -0.5283
42712SOL     OW45745   0.568   4.874   4.158 -0.0235 -0.5347  0.0201
42712SOL    HW145746   0.630   4.939   4.190  0.1060 -0.6759  0.0545
42712SOL    HW245747   0.621   4.797   4.136 -0.2916 -0.9901  0.9234
42713SOL     OW45748   4.455   3.106   9.415  0.6998  0.3619  0.5310
42713SOL    HW145749   4.383   3.136   9.472  0.7348  1.1062  0.1928
42713SOL    HW245750   4.522   3.075   9.476 -0.6506 -2.1840  0.8423
42714SOL     OW45751   5.019   1.450  11.746  0.3131  0.4067  0.0684
42714SOL    HW145752   5.053   1.449  11.656  0.3173  2.3240  0.0109
42714SOL    HW245753   5.088   1.490  11.798  0.2406 -0.5379  0.9313
42715SOL     OW45754   8.407  13.207   3.567 -0.5435  0.5612 -0.2863
42715SOL    HW145755   8.358  13.130   3.538  0.2478 -0.8438  1.8348
42715SOL    HW245756   8.352  13.246   3.634  0.8737 -0.7602  1.7798
42716SOL     OW45757   6.138   8.750   8.837 -0.0069  0.1646  0.5373
42716SOL    HW145758   6.122   8.656   8.834 -0.0193  0.1705 -2.5586
42716SOL    HW245759   6.080   8.782   8.906 -0.0269 -2.0573  1.6408
42717SOL     OW45760   9.618   3.586   1.131  0.1500  0.1642 -0.0252
42717SOL    HW145761   9.542   3.548   1.174 -0.2207 -0.6952 -1.3618
42717SOL    HW245762   9.676   3.512   1.115 -0.8827 -0.1481 -3.2753
42718SOL     OW45763  11.243  12.002   9.760  0.0016  0.4950 -0.0933
42718SOL    HW145764  11.188  11.931   9.724  0.7773  0.0757 -0.4728
42718SOL    HW245765  11.290  12.036   9.684 -0.8316  1.8686 -0.0270
42719SOL     OW45766   1.539   9.847  13.507 -0.8567  0.1514  0.1119
42719SOL    HW145767   1.496   9.927  13.474 -0.8324 -0.2735 -0.9817
42719SOL    HW245768   1.608   9.829  13.444 -1.5275 -1.3173 -0.2606
42720SOL     OW45769  11.918   0.402   6.248 -0.8919  0.6307  0.2994
42720SOL    HW145770  11.913   0.404   6.152 -0.6918 -0.7458  0.2267
42720SOL    HW245771  11.912   0.309   6.270 -0.1875  0.8567  1.5833
42721SOL     OW45772  11.073   6.349  13.207 -0.2188  0.3557  0.0380
42721SOL    HW145773  11.042   6.432  13.243  0.2303  0.7269 -0.4262
42721SOL    HW245774  11.039   6.347  13.117 -0.2564  0.0186  0.0567
42722SOL     OW45775   2.334   7.110   7.982 -0.3863 -0.5644 -0.5159
42722SOL    HW145776   2.285   7.180   8.025  0.5214 -0.7979  0.9484
42722SOL    HW245777   2.282   7.031   7.995 -0.2487 -0.5835 -0.0821
42723SOL     OW45778  10.593  13.514   5.593 -0.5251 -0.0684 -0.2065
42723SOL    HW145779  10.512  13.492   5.547  0.9784 -1.9601 -2.1827
42723SOL    HW245780  10.610  13.605   5.569 -0.9219 -0.3518 -1.6877
42724SOL     OW45781  10.520  11.686   7.087  0.0553 -0.2779 -0.7275
42724SOL    HW145782  10.466  11.611   7.110 -0.3091  0.0923 -0.3397
42724SOL    HW245783  10.458  11.758   7.078  0.3626 -0.0885 -1.4127
42725SOL     OW45784  12.788   1.543  13.663 -0.1293  0.1896 -0.1462
42725SOL    HW145785  12.844   1.467  13.680  0.7097  0.5479 -1.1823
42725SOL    HW245786  12.743   1.522  13.581 -1.8827 -0.2705  0.8774
42726SOL     OW45787   0.522   8.458   2.281  0.8007 -0.5286  0.0017
42726SOL    HW145788   0.442   8.442   2.331  1.0037  0.2029  0.5852
42726SOL    HW245789   0.572   8.376   2.287  0.2125 -0.9048 -0.1676
42727SOL     OW45790   8.039  12.040  14.045  0.0360  0.3381 -0.5583
42727SOL    HW145791   7.976  12.008  14.109  1.5604  0.2641  0.9686
42727SOL    HW245792   8.113  12.069  14.097  0.9856  1.0789 -2.2633
42728SOL     OW45793   8.339   0.789   3.576  0.1657  0.2744  0.0397
42728SOL    HW145794   8.391   0.832   3.508  1.6188  0.3590  1.1371
42728SOL    HW245795   8.257   0.838   3.579 -0.0478  0.1093 -1.7908
42729SOL     OW45796   9.098   8.182   2.880 -0.3747 -0.1882  0.0337
42729SOL    HW145797   9.047   8.138   2.812  0.9696 -1.7437 -0.0400
42729SOL    HW245798   9.085   8.128   2.958 -1.4217  1.2470  0.8829
42730SOL     OW45799   2.155   3.564   7.552 -0.2085  0.1178  0.6003
42730SOL    HW145800   2.248   3.571   7.575 -0.1958 -0.6397  0.8130
42730SOL    HW245801   2.114   3.639   7.595  0.2664  0.3197  0.7057
42731SOL     OW45802   1.371   6.516   2.200  0.0656  0.4196  0.1448
42731SOL    HW145803   1.372   6.462   2.279 -0.5484 -0.1936 -0.2564
42731SOL    HW245804   1.365   6.453   2.128 -2.4680  1.0539 -0.2805
42732SOL     OW45805   5.856   7.475  13.603  0.2032  0.5174  0.0852
42732SOL    HW145806   5.826   7.395  13.647  0.0396  0.8862  0.6586
42732SOL    HW245807   5.788   7.539  13.622  0.7171  1.0093  0.3067
42733SOL     OW45808   2.165   1.835   5.422  0.6198  0.2407  0.7703
42733SOL    HW145809   2.202   1.908   5.373  2.5322 -0.5413  0.9540
42733SOL    HW245810   2.099   1.798   5.364  2.0266  0.0359 -0.7883
42734SOL     OW45811   6.444   9.505   3.471 -0.4076 -0.1355  0.1694
42734SOL    HW145812   6.377   9.573   3.470 -0.4364 -0.1662 -0.1848
42734SOL    HW245813   6.479   9.505   3.382 -1.3065 -1.4733 -0.2134
42735SOL     OW45814  12.412  11.462  10.291 -0.6400 -0.1392 -0.0053
42735SOL    HW145815  12.339  11.443  10.232 -1.3692 -1.3203  1.2138
42735SOL    HW245816  12.491  11.442  10.239 -1.2171 -0.2596 -0.8606
42736SOL     OW45817   3.069   3.086  13.022 -0.8354 -0.1308 -0.0318
42736SOL    HW145818   3.122   3.145  13.074 -1.2693  0.7404 -0.5621
42736SOL    HW245819   3.042   3.017  13.083  2.1191 -1.4549 -0.0722
42737SOL     OW45820   4.438   6.804   6.963 -0.2190 -0.6047 -0.0828
42737SOL    HW145821   4.448   6.833   6.872 -1.8212  1.0172  0.1908
42737SOL    HW245822   4.367   6.858   6.998  0.3420 -1.1787  2.1474
42738SOL     OW45823  11.551   0.862  13.830 -0.0923 -0.0685 -0.0300
42738SOL    HW145824  11.463   0.895  13.847  0.5380  1.2332  0.8747
42738SOL    HW245825  11.575   0.816  13.911  0.7212  1.1423  0.4394
42739SOL     OW45826   7.276   8.696   3.134 -0.3719  0.1127  0.1926
42739SOL    HW145827   7.260   8.629   3.201  1.7705  0.7615  1.4729
42739SOL    HW245828   7.284   8.778   3.184  3.7280  0.2874 -0.3699
42740SOL     OW45829  13.890  13.225  10.091 -0.5494 -0.2199  0.2947
42740SOL    HW145830  13.921  13.235  10.001 -0.8277 -0.5506  0.1571
42740SOL    HW245831  13.807  13.177  10.082 -1.7117  1.6390  0.5482
42741SOL     OW45832   1.470   5.155  13.696 -0.1052 -0.3145  0.0668
42741SOL    HW145833   1.422   5.077  13.725  1.3248 -1.0825  0.4361
42741SOL    HW245834   1.511   5.188  13.776 -2.1000  1.9010  0.2984
42742SOL     OW45835   7.471  12.071  11.631  0.0160 -0.3004  0.1619
42742SOL    HW145836   7.390  12.022  11.620  1.2217 -2.1458 -0.8975
42742SOL    HW245837   7.509  12.075  11.543  1.9568 -1.0679  0.9262
42743SOL     OW45838  12.209   0.837   3.071  0.5898  0.2279 -0.0436
42743SOL    HW145839  12.290   0.825   3.020  0.7185  2.1999 -0.3756
42743SOL    HW245840  12.232   0.902   3.138 -0.8605  1.3223 -0.5549
42744SOL     OW45841  14.077  12.376  12.945  0.1929  0.0164 -0.0461
42744SOL    HW145842  14.085  12.411  13.034  0.9586  1.2473 -0.5761
42744SOL    HW245843  14.148  12.313  12.937 -1.1326 -1.6770  0.8798
42745SOL     OW45844  13.339  11.042  11.812 -0.4409 -0.2799 -0.4295
42745SOL    HW145845  13.402  11.105  11.778  0.3470  1.6874  3.9077
42745SOL    HW245846  13.254  11.084  11.802 -0.1938  0.3790  0.1411
42746SOL     OW45847   0.960   1.094   5.616  0.4010  0.0571 -0.2619
42746SOL    HW145848   0.885   1.099   5.557 -0.6099  0.7026  1.0452
42746SOL    HW245849   1.035   1.116   5.560 -0.7389  2.6915 -0.9368
42747SOL     OW45850   7.087   7.895   3.181 -0.2350  0.2321 -0.1154
42747SOL    HW145851   7.112   7.865   3.093  2.2253  3.2842 -0.6393
42747SOL    HW245852   7.168   7.891   3.232 -0.9614  1.1277  1.1789
42748SOL     OW45853  12.419   4.382  10.742 -0.0632  0.1683 -0.7618
42748SOL    HW145854  12.363   4.437  10.797 -0.5257 -0.3307 -0.7172
42748SOL    HW245855  12.357   4.329  10.691  0.2786  2.0664 -3.3153
42749SOL     OW45856   2.521   3.293   8.247 -0.5055  0.4379 -0.0217
42749SOL    HW145857   2.493   3.232   8.314  1.2588 -1.6964 -1.0902
42749SOL    HW245858   2.444   3.305   8.192 -0.8858 -0.9698  0.1589
42750SOL     OW45859   9.903  12.966   0.865  0.1330  0.1569  0.3282
42750SOL    HW145860   9.826  12.937   0.815 -0.1660  3.0699 -1.0931
42750SOL    HW245861   9.908  12.905   0.939 -1.6659 -2.0189 -1.2163
42751SOL     OW45862   1.949   0.570  13.598  0.2464 -0.3741 -0.5381
42751SOL    HW145863   2.039   0.543  13.617  0.8510  2.0592  0.4101
42751SOL    HW245864   1.954   0.665  13.588 -2.4521  0.0301  1.0130
42752SOL     OW45865   0.657   9.272   6.213 -0.4594  0.1442 -0.2511
42752SOL    HW145866   0.586   9.210   6.203 -0.2168 -0.4213  1.1857
42752SOL    HW245867   0.728   9.236   6.160 -1.1886  0.6768 -1.6342
42753SOL     OW45868   5.117  11.025   6.187 -0.2095 -0.1799 -0.5036
42753SOL    HW145869   5.113  10.955   6.252 -0.2980  0.2311 -0.0626
42753SOL    HW245870   5.181  10.994   6.122  0.2001 -0.4016  0.0060
42754SOL     OW45871  11.022   0.298   5.642  0.3312  0.9245 -0.2038
42754SOL    HW145872  10.940   0.296   5.594  0.3151  0.4208 -0.1621
42754SOL    HW245873  11.049   0.390   5.641  0.3344  0.9192 -1.1777
42755SOL     OW45874   7.460   1.578   8.578 -0.0073  0.5578 -0.1789
42755SOL    HW145875   7.469   1.652   8.637 -1.6343  0.5387  0.1223
42755SOL    HW245876   7.464   1.616   8.490 -0.1475  0.9027 -0.0342
42756SOL     OW45877   1.869   5.406   2.404 -0.0300 -0.6803  0.7605
42756SOL    HW145878   1.891   5.420   2.496  1.1871  0.1538  0.3589
42756SOL    HW245879   1.952   5.415   2.358 -0.7279 -0.4863 -0.4920
42757SOL     OW45880   4.948   6.969  12.471 -0.0738 -0.0417 -0.1603
42757SOL    HW145881   4.990   6.884  12.458  1.2312  0.7224 -1.4039
42757SOL    HW245882   4.863   6.962  12.427 -0.5726 -1.0973  0.9337
42758SOL     OW45883   9.019  11.832   4.934  0.2484 -0.6256  0.6265
42758SOL    HW145884   9.003  11.745   4.898  1.6582 -0.9483  0.7275
42758SOL    HW245885   9.111  11.850   4.913 -0.2323  1.1998 -0.1342
42759SOL     OW45886   0.978  11.147   0.772  0.0452  0.2404  0.6018
42759SOL    HW145887   1.054  11.101   0.810  0.7668  0.9817  0.1002
42759SOL    HW245888   1.004  11.239   0.771 -0.0284  0.2887 -1.4341
42760SOL     OW45889   1.461   4.529   5.493  0.9118 -0.6367  0.3416
42760SOL    HW145890   1.469   4.501   5.585  0.7153 -3.6198 -0.4253
42760SOL    HW245891   1.551   4.527   5.460  0.8874 -0.4295  0.2682
42761SOL     OW45892   0.677  10.960   4.787  0.1335  0.3368 -0.0646
42761SOL    HW145893   0.739  11.029   4.811 -0.1883  0.6495 -0.1180
42761SOL    HW245894   0.682  10.897   4.859 -0.8779  1.2998  0.8834
42762SOL     OW45895   6.082   2.151   4.478 -0.3708  0.2597  0.3020
42762SOL    HW145896   6.128   2.199   4.410 -0.0120  0.6881  0.8340
42762SOL    HW245897   6.084   2.060   4.449 -2.0794  0.6729 -1.2931
42763SOL     OW45898   1.997  10.452   2.475 -0.7996 -0.7691 -0.0970
42763SOL    HW145899   2.081  10.477   2.437 -1.6407  0.7029 -1.1091
42763SOL    HW245900   1.935  10.517   2.442 -2.0204 -0.7139  2.0830
42764SOL     OW45901  11.895  11.157   8.577  0.0357  0.1191  0.1706
42764SOL    HW145902  11.982  11.116   8.571  0.6622  1.1152  1.6757
42764SOL    HW245903  11.896  11.225   8.510  0.6327  0.4668  0.5173
42765SOL     OW45904   9.876  10.088  13.547  0.4946 -0.8138  0.2448
42765SOL    HW145905   9.952  10.138  13.518 -1.2440  0.8321 -1.8125
42765SOL    HW245906   9.872  10.103  13.642  0.3600  2.6381 -0.1981
42766SOL     OW45907   7.817   2.098  11.702  0.5498 -0.2203 -0.0056
42766SOL    HW145908   7.841   2.190  11.687 -0.6012  0.2232  0.7166
42766SOL    HW245909   7.843   2.053  11.622 -1.1831  1.2126 -1.4581
42767SOL     OW45910   2.228   6.694   4.928  0.4938 -0.3979 -0.4989
42767SOL    HW145911   2.201   6.606   4.902  3.4221 -1.2366 -1.0218
42767SOL    HW245912   2.207   6.700   5.021 -2.5272 -0.4290 -1.0726
42768SOL     OW45913   1.168   4.335   8.864  0.2860 -0.1333 -0.3816
42768SOL    HW145914   1.165   4.389   8.785  1.3213  0.4694 -0.0213
42768SOL    HW245915   1.250   4.359   8.907  1.0765 -2.3981 -0.4851
42769SOL     OW45916   4.194  11.197  11.955 -0.8250  0.0752 -0.4427
42769SOL    HW145917   4.216  11.290  11.947  0.1921 -0.1700 -0.6445
42769SOL    HW245918   4.118  11.195  12.013  1.8153  0.7996  3.4718
42770SOL     OW45919   9.701  10.661  12.238  0.0302  0.4864 -0.2864
42770SOL    HW145920   9.693  10.566  12.237  2.0946  0.2246 -2.7539
42770SOL    HW245921   9.653  10.690  12.160 -1.4772  1.6414  0.9986
42771SOL     OW45922  10.418  13.399  12.200 -0.7103  0.0941 -0.3280
42771SOL    HW145923  10.436  13.307  12.216  0.0492  0.6326  2.4698
42771SOL    HW245924  10.337  13.417  12.248  0.4768  1.3656  1.3377
42772SOL     OW45925  12.849   7.754   2.039 -0.6997  0.1310 -0.1402
42772SOL    HW145926  12.835   7.661   2.020  3.2056 -0.2595 -2.0506
42772SOL    HW245927  12.893   7.754   2.124 -1.7383  0.3796  0.4117
42773SOL     OW45928  10.569   2.187   6.812 -0.1181 -0.1989 -0.7152
42773SOL    HW145929  10.638   2.140   6.860 -1.1123 -2.9458 -1.7702
42773SOL    HW245930  10.594   2.279   6.819  1.5901 -0.7429  2.1363
42774SOL     OW45931   0.728   7.661  12.606 -0.9510 -0.4441 -0.5797
42774SOL    HW145932   0.695   7.694  12.690  0.7812  0.8674 -0.3639
42774SOL    HW245933   0.820   7.644  12.621 -0.8133 -1.0508 -1.9843
42775SOL     OW45934   8.727   1.484  13.708 -0.3719 -0.4944 -0.0659
42775SOL    HW145935   8.677   1.422  13.655  0.1595 -1.0991  0.1275
42775SOL    HW245936   8.819   1.462  13.692 -0.1939 -0.6626  1.0492
42776SOL     OW45937  13.805  13.347   5.905 -0.0793  0.7158 -0.1916
42776SOL    HW145938  13.877  13.407   5.927  0.2737  0.1443  0.2257
42776SOL    HW245939  13.726  13.397   5.926  0.1962  1.2083 -0.2944
42777SOL     OW45940   9.545   0.981  10.731  0.2414 -0.3415 -0.3544
42777SOL    HW145941   9.551   0.886  10.738 -1.4399 -0.3998  1.0681
42777SOL    HW245942   9.572   1.014  10.817 -2.1611  0.2197  0.2666
42778SOL     OW45943   5.214   6.144   2.204  0.0547  0.0743 -0.3200
42778SOL    HW145944   5.194   6.146   2.297  1.2484  0.6019 -0.0569
42778SOL    HW245945   5.263   6.063   2.192 -0.9175 -0.4780 -0.6859
42779SOL     OW45946   1.955   3.952  11.682  0.2656  0.3730  0.6992
42779SOL    HW145947   1.876   3.990  11.721 -0.0342  0.0731  0.3921
42779SOL    HW245948   1.923   3.879  11.629  0.7846  0.0286  0.8482
42780SOL     OW45949  10.376   7.985  10.641  0.3932 -0.2864 -0.1512
42780SOL    HW145950  10.291   7.951  10.614  0.0065 -0.0731  0.7635
42780SOL    HW245951  10.437   7.953  10.574 -0.1460 -1.7429  0.0242
42781SOL     OW45952   3.016  11.260   1.626  0.1594 -0.1415 -0.6132
42781SOL    HW145953   2.942  11.310   1.660 -0.3441 -0.5619 -1.0837
42781SOL    HW245954   2.977  11.183   1.586  0.9507 -1.1774  0.5276
42782SOL     OW45955  13.343   5.820   3.051  0.3527 -0.0388 -0.1683
42782SOL    HW145956  13.320   5.738   3.007  0.6199  0.7985 -1.9373
42782SOL    HW245957  13.429   5.843   3.017  0.6710  0.5475  0.9694
42783SOL     OW45958   1.767  11.568   2.302 -0.2972  0.1840  0.2149
42783SOL    HW145959   1.721  11.489   2.330 -0.1191 -0.0504 -0.1404
42783SOL    HW245960   1.778  11.557   2.207  0.2499  0.3568  0.2551
42784SOL     OW45961   9.902  10.835  12.289  0.2541 -0.0188  0.8782
42784SOL    HW145962   9.826  10.798  12.244 -0.0326  2.2343 -0.6659
42784SOL    HW245963   9.962  10.761  12.299 -1.1619 -1.3585 -0.0161
42785SOL     OW45964   3.617   1.222   6.017 -0.2493 -0.2204  0.3266
42785SOL    HW145965   3.578   1.143   6.055 -0.2185 -0.0388  0.7434
42785SOL    HW245966   3.608   1.288   6.085  0.7765 -0.1690  0.4356
42786SOL     OW45967   2.115   7.235  13.177  0.2056 -0.1049  0.0938
42786SOL    HW145968   2.158   7.150  13.165 -0.0500 -0.2171 -0.0299
42786SOL    HW245969   2.184   7.299  13.160 -0.1653 -0.2292 -2.2217
42787SOL     OW45970  13.226   5.616   5.828 -0.2085  0.1267  0.3145
42787SOL    HW145971  13.167   5.629   5.754 -0.4654  1.5847  0.7514
42787SOL    HW245972  13.293   5.683   5.819 -0.2872  0.3832  1.4246
42788SOL     OW45973  11.471   3.242  13.450  0.7018 -0.0357  0.6013
42788SOL    HW145974  11.505   3.163  13.492  1.4177  0.7709  1.5977
42788SOL    HW245975  11.548   3.281  13.407  0.5253  0.5151  0.7771
42789SOL     OW45976   2.662  13.455   7.052  0.3330  0.0339  0.0556
42789SOL    HW145977   2.567  13.455   7.048  0.2868 -2.0494  0.1011
42789SOL    HW245978   2.683  13.508   7.128 -0.7308  1.2533 -0.4674
42790SOL     OW45979  10.917   3.357   4.742  0.1449 -0.3170  0.2948
42790SOL    HW145980  10.925   3.284   4.680  0.2973 -0.6443  0.6962
42790SOL    HW245981  10.837   3.338   4.792  0.7196 -0.7359  1.0740
42791SOL     OW45982   0.212   3.682   7.823  0.2092  0.1056 -0.0935
42791SOL    HW145983   0.128   3.682   7.776  0.8178  1.5518 -1.2743
42791SOL    HW245984   0.235   3.590   7.831 -0.9679 -0.2626 -0.7475
42792SOL     OW45985   6.898  10.974   0.258 -0.4421 -0.1148 -0.0371
42792SOL    HW145986   6.891  11.038   0.329  1.2850 -0.4685  0.5161
42792SOL    HW245987   6.902  10.890   0.303  1.8335 -0.2752 -0.4034
42793SOL     OW45988   1.778   3.241   1.691 -0.2260 -0.2788 -0.1615
42793SOL    HW145989   1.786   3.146   1.680 -0.3110 -0.1082 -1.9191
42793SOL    HW245990   1.848   3.263   1.753  0.2278 -1.4009 -0.2398
42794SOL     OW45991   7.314   9.948   2.484  0.5819 -0.3431  0.5151
42794SOL    HW145992   7.333   9.866   2.529 -1.7499 -1.3206 -0.1482
42794SOL    HW245993   7.363   9.943   2.402 -1.1090 -2.1146 -0.4889
42795SOL     OW45994   4.452  13.996   0.687  0.5986 -0.3822  0.3627
42795SOL    HW145995   4.372  14.046   0.705  1.1878  1.3867 -1.4456
42795SOL    HW245996   4.423  13.922   0.634  0.1534  0.3946 -0.5064
42796SOL     OW45997   3.215   9.059   3.406 -0.0015  0.4612  0.9237
42796SOL    HW145998   3.204   8.971   3.370  0.5043  0.4208  0.8652
42796SOL    HW245999   3.127   9.083   3.436 -0.0721 -0.2034  1.2729
42797SOL     OW46000   9.999   6.372   3.194 -0.3088  0.1018 -0.1816
42797SOL    HW146001  10.001   6.277   3.178 -0.1922 -0.2084  1.4810
42797SOL    HW246002   9.909   6.397   3.177 -0.5914 -0.5103  0.3722
42798SOL     OW46003   5.775  11.836   5.896  0.2822 -0.0886  0.1628
42798SOL    HW146004   5.820  11.834   5.980  2.9768  1.7521 -1.1016
42798SOL    HW246005   5.713  11.909   5.903 -0.0449 -0.4188  0.7668
42799SOL     OW46006   5.076  13.131  11.998  0.0401 -0.4306 -0.0556
42799SOL    HW146007   5.158  13.146  11.952 -0.9585  0.5113 -1.6094
42799SOL    HW246008   5.074  13.200  12.065  0.7884 -0.8452  0.4037
42800SOL     OW46009   9.566   4.875  13.442 -0.2757  0.0335 -0.0045
42800SOL    HW146010   9.546   4.946  13.503  1.7940  1.1038 -0.4864
42800SOL    HW246011   9.590   4.801  13.498  0.9368  0.7931  0.5104
42801SOL     OW46012  12.251   1.154   1.762  0.1830  0.1451 -0.6954
42801SOL    HW146013  12.241   1.071   1.715  0.9597  0.2121 -1.0043
42801SOL    HW246014  12.162   1.183   1.780 -0.1167 -0.2033 -1.5718
42802SOL     OW46015   2.194  10.367  14.051  0.1349 -0.0956  0.0063
42802SOL    HW146016   2.100  10.354  14.055  0.3450 -1.6769  0.5283
42802SOL    HW246017   2.231  10.287  14.089  1.6542  1.4137  1.8969
42803SOL     OW46018  10.505   9.472   6.056  0.4537 -0.0925  0.2004
42803SOL    HW146019  10.550   9.555   6.044  0.9188 -0.3556  0.0866
42803SOL    HW246020  10.428   9.493   6.110 -0.1718  0.6366 -0.9259
42804SOL     OW46021  10.162   2.881   1.017 -0.0493 -0.2776  0.1669
42804SOL    HW146022  10.201   2.797   1.042  0.3434  0.5691  2.6027
42804SOL    HW246023  10.236   2.942   1.012 -0.6997  0.7702  2.2875
42805SOL     OW46024  10.979   0.800   3.839 -0.0690  0.0482 -0.0840
42805SOL    HW146025  11.061   0.802   3.790 -0.8510 -0.8876 -1.5120
42805SOL    HW246026  10.981   0.718   3.888 -0.1387  0.0450 -0.0857
42806SOL     OW46027  10.996   6.418   6.476 -0.3277  0.2498 -0.7688
42806SOL    HW146028  11.091   6.409   6.472 -0.3593 -0.0669 -0.8755
42806SOL    HW246029  10.980   6.511   6.461  0.0713  0.6983  1.2424
42807SOL     OW46030  14.009  12.109   7.770  0.2037 -0.6035 -0.0113
42807SOL    HW146031  14.024  12.065   7.854 -1.6814 -0.7387  0.2901
42807SOL    HW246032  14.093  12.103   7.725  1.3055 -0.4075  1.9024
42808SOL     OW46033   7.179  10.344   0.535 -0.4598 -0.3983  0.1289
42808SOL    HW146034   7.185  10.334   0.630  1.4996  2.3650  0.4126
42808SOL    HW246035   7.244  10.282   0.501  2.5980  2.0953  1.0089
42809SOL     OW46036   9.913   4.329  10.660 -0.5517  0.1309 -0.4160
42809SOL    HW146037   9.941   4.414  10.695  0.9211  0.6306 -2.5747
42809SOL    HW246038   9.984   4.269  10.682 -0.0199  0.2559 -1.7037
42810SOL     OW46039  10.948   9.329   8.057 -0.3912  0.2315 -0.1974
42810SOL    HW146040  10.858   9.340   8.028  0.3839  0.3480 -2.8568
42810SOL    HW246041  10.943   9.266   8.129 -2.4623 -1.0314 -1.3330
42811SOL     OW46042   9.531  10.485  11.558 -0.1421 -0.1645  0.3167
42811SOL    HW146043   9.567  10.574  11.561 -1.8052  0.5902 -0.6033
42811SOL    HW246044   9.447  10.491  11.603 -0.4594 -1.1769 -0.1052
42812SOL     OW46045   7.390   2.803   1.017 -0.0944 -0.1048  0.5573
42812SOL    HW146046   7.371   2.711   1.038  1.5990 -0.4752  0.6734
42812SOL    HW246047   7.482   2.802   0.989 -0.3445  1.4186 -0.4235
42813SOL     OW46048  10.017   5.222   7.118  0.1193  0.1442 -0.2389
42813SOL    HW146049  10.099   5.181   7.145  0.1057 -0.7071 -1.4010
42813SOL    HW246050   9.957   5.148   7.102 -0.1762  0.6223 -1.5136
42814SOL     OW46051   1.291   2.213   8.852 -0.2618  0.5535 -0.6545
42814SOL    HW146052   1.216   2.154   8.842 -0.1121  0.4065 -0.9085
42814SOL    HW246053   1.263   2.276   8.919 -0.7331  0.6905 -0.9729
42815SOL     OW46054   9.622   0.902   2.681 -0.1971  0.2144 -0.2149
42815SOL    HW146055   9.649   0.823   2.633  1.9877  1.1567 -0.6566
42815SOL    HW246056   9.693   0.917   2.743 -0.2750  2.1589 -0.5382
42816SOL     OW46057   6.960  11.238   2.242 -0.1055 -0.2528  0.1426
42816SOL    HW146058   6.923  11.212   2.327  1.3913 -0.8241  0.6529
42816SOL    HW246059   6.944  11.332   2.237  0.1636 -0.1272  1.2705
42817SOL     OW46060  13.495  13.696   0.848  0.0130 -0.0466 -0.4233
42817SOL    HW146061  13.585  13.690   0.880  0.2174  0.0337 -0.9673
42817SOL    HW246062  13.504  13.712   0.754 -0.5707 -0.0861 -0.4918
42818SOL     OW46063   3.496   1.803  11.453  0.4702  0.0877 -0.2146
42818SOL    HW146064   3.538   1.804  11.367  0.2664 -0.9408 -0.3356
42818SOL    HW246065   3.484   1.896  11.474 -0.5727  0.3724 -1.8350
42819SOL     OW46066  12.415  13.022   9.891  0.4493  0.6183  0.0883
42819SOL    HW146067  12.322  13.021   9.869  0.1671 -0.7838  1.1984
42819SOL    HW246068  12.449  12.941   9.852  1.4922  1.6805 -1.3237
42820SOL     OW46069  13.739   7.775   1.489 -0.4598 -0.3815 -0.1485
42820SOL    HW146070  13.765   7.861   1.455  1.3641 -1.2151 -1.0225
42820SOL    HW246071  13.706   7.793   1.577  1.6367  1.0268  0.4272
42821SOL     OW46072  13.028  14.087   0.435 -0.3876  0.1561  0.0066
42821SOL    HW146073  12.975  14.060   0.360  0.4320  1.6548 -1.1812
42821SOL    HW246074  13.051  14.178   0.417  2.6870 -0.4142  0.3226
42822SOL     OW46075   4.517   7.589   5.791  0.5045 -0.0115  0.5529
42822SOL    HW146076   4.612   7.580   5.794  0.8451  2.2755 -0.9069
42822SOL    HW246077   4.484   7.501   5.807  2.8843 -1.0874 -0.0649
42823SOL     OW46078   6.743   2.141   9.102  0.9915 -0.0152  0.1839
42823SOL    HW146079   6.730   2.117   9.010  0.5398  0.0645  0.2262
42823SOL    HW246080   6.837   2.131   9.115  0.8258 -2.0237  0.2534
42824SOL     OW46081   5.084   8.502   0.897 -0.0814  0.5501 -0.1391
42824SOL    HW146082   5.143   8.518   0.824  0.9577 -0.5181  0.4273
42824SOL    HW246083   4.997   8.524   0.863  0.0388 -1.9809 -2.4701
42825SOL     OW46084   7.327  10.158   5.152  0.3160  0.1882  0.4780
42825SOL    HW146085   7.297  10.249   5.142  0.2018  0.0360 -0.6860
42825SOL    HW246086   7.405  10.165   5.208 -0.2478  0.8884  1.2068
42826SOL     OW46087  10.665  10.256  12.110  0.0040 -0.3618 -0.9654
42826SOL    HW146088  10.751  10.290  12.084 -0.2095  2.5036  1.6103
42826SOL    HW246089  10.675  10.231  12.201 -1.8813  0.0122 -0.6122
42827SOL     OW46090   4.196  12.772   2.711 -0.2131 -0.0829 -0.2020
42827SOL    HW146091   4.238  12.765   2.626  1.0839 -1.1429  0.4849
42827SOL    HW246092   4.212  12.863   2.738  1.4842 -0.3739 -0.0785
42828SOL     OW46093  12.077   7.277   9.704  0.2906 -0.6325 -0.3846
42828SOL    HW146094  12.091   7.371   9.717 -0.4976 -0.5351 -0.1657
42828SOL    HW246095  12.131   7.235   9.770 -1.2884 -0.2441  1.2132
42829SOL     OW46096   7.535   1.713   4.608  0.2615  0.2991  0.6918
42829SOL    HW146097   7.569   1.797   4.639  1.3798 -0.3394  1.2584
42829SOL    HW246098   7.577   1.702   4.522 -0.6231  0.7450  0.1896
42830SOL     OW46099  12.914  11.426  10.681 -0.2629  0.1538  0.0042
42830SOL    HW146100  13.003  11.416  10.716  0.1308  4.4288  0.6564
42830SOL    HW246101  12.927  11.434  10.586 -0.2863 -1.4587 -0.1720
42831SOL     OW46102   4.336  11.291  11.672  0.0109  0.0387 -0.0325
42831SOL    HW146103   4.425  11.257  11.668 -0.9616 -3.2540  2.1986
42831SOL    HW246104   4.335  11.347  11.750  0.7883  2.7934 -1.8632
42832SOL     OW46105  10.985  13.661   9.900 -0.3572  0.5198 -0.5726
42832SOL    HW146106  10.942  13.580   9.871  1.1306 -0.1926 -0.9124
42832SOL    HW246107  11.024  13.638   9.984 -0.7916  1.2032 -0.1807
42833SOL     OW46108   4.220   3.419   2.953 -0.2709  0.2080  0.3630
42833SOL    HW146109   4.313   3.399   2.963 -0.3147 -0.0897  0.1560
42833SOL    HW246110   4.216   3.515   2.958  0.0350  0.2170  0.4490
42834SOL     OW46111   8.257   7.421   7.413  0.1007 -0.1038 -0.7318
42834SOL    HW146112   8.236   7.442   7.504 -0.6243  2.0514 -1.3393
42834SOL    HW246113   8.317   7.491   7.386  0.9559 -1.1696 -1.6994
42835SOL     OW46114   8.070   7.566   9.608 -0.0321 -0.2490 -0.0405
42835SOL    HW146115   8.079   7.471   9.594  0.5411 -0.7640  3.0473
42835SOL    HW246116   8.134   7.605   9.549  0.2532 -1.8290 -0.8460
42836SOL     OW46117   9.849  13.106   2.654 -0.3098 -0.7271  0.2375
42836SOL    HW146118   9.761  13.067   2.650 -0.3387 -0.6604  0.2350
42836SOL    HW246119   9.852  13.147   2.741 -0.2771 -0.7380  0.2415
42837SOL     OW46120   8.159   1.735  12.503 -0.0135  0.2317 -0.1288
42837SOL    HW146121   8.206   1.785  12.570 -0.3356 -1.0850  1.1139
42837SOL    HW246122   8.208   1.752  12.423 -0.6198  3.2429  0.0185
42838SOL     OW46123   3.276   1.236   1.642 -0.5174  0.2581 -0.4377
42838SOL    HW146124   3.261   1.195   1.727 -2.8875  0.7461 -0.5486
42838SOL    HW246125   3.358   1.198   1.611  0.4407  0.0913  2.0479
42839SOL     OW46126   6.167   5.478   4.287  0.2646  0.6151 -0.1797
42839SOL    HW146127   6.191   5.398   4.334  0.6752  1.5089  1.2144
42839SOL    HW246128   6.138   5.448   4.201 -0.6656 -1.1256  0.6855
42840SOL     OW46129   9.790   9.407  10.928  0.2004 -0.0922 -0.4503
42840SOL    HW146130   9.722   9.368  10.873  1.7573 -2.3236 -0.9180
42840SOL    HW246131   9.744   9.432  11.009 -1.0038 -2.5971 -0.2722
42841SOL     OW46132  13.033   2.037  12.895  0.3595 -0.1721  0.0296
42841SOL    HW146133  13.079   1.962  12.856  0.3853 -0.8303  1.2714
42841SOL    HW246134  13.059   2.112  12.841 -0.3045 -1.1675 -1.7351
42842SOL     OW46135  13.572  11.423   6.496  0.0420 -0.0299 -0.2294
42842SOL    HW146136  13.643  11.365   6.525  0.8789  0.5776 -1.0057
42842SOL    HW246137  13.593  11.443   6.405  0.2396  2.1584  0.2406
42843SOL     OW46138  10.862   6.701  13.592 -0.1156 -0.1335  0.5612
42843SOL    HW146139  10.949   6.677  13.624 -0.0251 -0.5894  0.0093
42843SOL    HW246140  10.864   6.677  13.499  0.4377  3.2368 -0.4421
42844SOL     OW46141   4.859   9.659  12.880  0.4098 -0.1543  0.2666
42844SOL    HW146142   4.952   9.681  12.873  0.1251  0.7799 -1.0156
42844SOL    HW246143   4.828   9.710  12.956  0.9157 -0.4036  0.6459
42845SOL     OW46144   4.640   4.201   3.401  0.5450 -0.2549  0.0900
42845SOL    HW146145   4.712   4.167   3.454  1.5432 -0.1756 -1.1736
42845SOL    HW246146   4.636   4.143   3.325  0.1239  0.4910 -0.4701
42846SOL     OW46147   9.831   4.335   5.121 -0.3743 -0.1875 -0.0034
42846SOL    HW146148   9.897   4.322   5.054  0.4005  0.9379  0.5268
42846SOL    HW246149   9.796   4.422   5.105 -0.6475 -0.1661  0.6504
42847SOL     OW46150  12.253   1.477  11.446  0.0897  0.4720  0.2055
42847SOL    HW146151  12.232   1.428  11.525  1.1197  1.0152  0.8315
42847SOL    HW246152  12.343   1.451  11.424  0.1256  0.9881 -0.2819
42848SOL     OW46153  13.680   4.989   8.546 -0.3767  0.6346  0.0040
42848SOL    HW146154  13.764   4.982   8.501 -0.4631  1.8096 -0.3660
42848SOL    HW246155  13.678   4.913   8.605 -0.1864 -0.8489 -1.7891
42849SOL     OW46156   3.463   4.126   6.976 -0.1349 -0.3191 -0.4325
42849SOL    HW146157   3.443   4.033   6.984  1.9722 -0.7560  0.3832
42849SOL    HW246158   3.465   4.158   7.066 -0.0974  0.3471 -0.6660
42850SOL     OW46159   3.315   9.144  11.792  0.4602 -0.1600  0.8359
42850SOL    HW146160   3.320   9.072  11.854  0.8638  1.1197  2.3752
42850SOL    HW246161   3.277   9.216  11.842 -2.0570  0.1354 -1.2447
42851SOL     OW46162   2.168  12.828   6.932  0.1821 -0.6259  0.5961
42851SOL    HW146163   2.213  12.888   6.872  0.9018 -3.2569 -1.7357
42851SOL    HW246164   2.079  12.863   6.939  0.4488  0.4880 -0.9900
42852SOL     OW46165  12.794   4.142  11.725  0.6779  0.0943 -0.3070
42852SOL    HW146166  12.800   4.083  11.801  1.5534  1.0871  0.4223
42852SOL    HW246167  12.808   4.084  11.650 -0.5179 -0.9628  0.2510
42853SOL     OW46168   7.428   0.781   0.185  0.1852  0.5909 -0.1244
42853SOL    HW146169   7.428   0.819   0.273  1.0931  0.5191 -0.0901
42853SOL    HW246170   7.337   0.753   0.172 -0.3213  1.9926  0.1757
42854SOL     OW46171   3.708  13.383   0.930  0.2330  0.1180 -0.0411
42854SOL    HW146172   3.741  13.293   0.929 -1.6104 -0.6142  0.3269
42854SOL    HW246173   3.623  13.378   0.886  1.0949  2.1538 -2.1389
42855SOL     OW46174   5.761   1.299   1.250  0.3085  0.0500 -0.2135
42855SOL    HW146175   5.716   1.351   1.182 -1.0199 -0.0968  0.5109
42855SOL    HW246176   5.842   1.346   1.267  0.0500  0.8006 -0.9848
42856SOL     OW46177  10.714   5.085  11.269 -0.0392 -0.4520 -0.2991
42856SOL    HW146178  10.773   5.125  11.332 -0.7235 -0.2867  0.2519
42856SOL    HW246179  10.731   5.130  11.187  0.2699 -0.0887 -0.0354
42857SOL     OW46180   1.931   3.084  14.088 -0.4415 -0.7904 -0.0298
42857SOL    HW146181   1.879   3.089  14.009  1.0433 -1.2903 -1.0824
42857SOL    HW246182   2.009   3.136  14.070 -0.1287 -0.8130  1.1425
42858SOL     OW46183  13.758  10.832   7.801 -0.4314  0.2575  0.0594
42858SOL    HW146184  13.666  10.859   7.800 -0.2214  0.9858  0.0355
42858SOL    HW246185  13.772  10.791   7.715 -0.0516  2.5218 -1.0201
42859SOL     OW46186  11.070   3.013   6.356  0.3331 -0.0684 -0.6378
42859SOL    HW146187  11.127   2.940   6.330 -0.0017 -1.1110  1.3816
42859SOL    HW246188  11.018   2.979   6.428  0.1599  2.1675  0.3951
42860SOL     OW46189   9.839  13.159   6.829  0.1115  0.4731  0.5654
42860SOL    HW146190   9.912  13.151   6.891  1.1896  0.1826 -0.6781
42860SOL    HW246191   9.806  13.069   6.820  1.0147  0.2127 -0.4525
42861SOL     OW46192   0.091   0.440  12.137  0.0493  0.3006 -0.0895
42861SOL    HW146193   0.089   0.395  12.052  1.9639  0.5408 -0.3090
42861SOL    HW246194   0.159   0.507  12.127  0.9784 -0.2696  1.9245
42862SOL     OW46195  12.873   8.809   1.031 -0.1993 -0.1650  0.2172
42862SOL    HW146196  12.937   8.788   1.099 -0.0529  1.2409  0.5417
42862SOL    HW246197  12.916   8.876   0.978 -1.3960  0.8031  0.4308
42863SOL     OW46198   4.598   2.583  11.859 -0.2351  0.5295 -0.1841
42863SOL    HW146199   4.645   2.568  11.942 -1.2118 -0.9973  0.1286
42863SOL    HW246200   4.625   2.510  11.803 -2.1734 -0.4161  0.0127
42864SOL     OW46201  12.371  11.304   7.679 -0.3586  0.0844 -0.2676
42864SOL    HW146202  12.376  11.243   7.605 -0.9551  0.0115 -0.2591
42864SOL    HW246203  12.283  11.342   7.672  0.1348  1.2452 -0.5058
42865SOL     OW46204   7.112  11.997   8.620  0.2996 -0.0956 -0.4298
42865SOL    HW146205   7.020  11.972   8.615  0.1804  0.0456  0.7193
42865SOL    HW246206   7.119  12.075   8.566 -0.5459  0.6219  0.4531
42866SOL     OW46207  13.061  11.705   4.719 -0.2559  0.3708  0.0564
42866SOL    HW146208  13.129  11.772   4.710 -1.1920  1.2712 -0.4989
42866SOL    HW246209  13.095  11.630   4.670  0.6332  0.5593  0.3574
42867SOL     OW46210   7.389   9.579   5.125  0.3186  0.2331  0.5303
42867SOL    HW146211   7.356   9.618   5.206  1.1982 -1.6365  1.8711
42867SOL    HW246212   7.320   9.595   5.061 -0.6987  1.2049  1.8168
42868SOL     OW46213  11.558   4.428   3.646  0.4900  0.0095 -0.4422
42868SOL    HW146214  11.472   4.466   3.665  0.1376 -0.8820 -0.1957
42868SOL    HW246215  11.540   4.362   3.579  0.8392 -0.8042  0.2530
42869SOL     OW46216  10.765  12.647   9.463  1.0167 -0.9193  0.4696
42869SOL    HW146217  10.680  12.665   9.423  1.6948 -1.0717 -1.1550
42869SOL    HW246218  10.746  12.626   9.554 -0.5600  0.1728  0.4249
42870SOL     OW46219   3.689   3.014   7.558  0.2188  0.1021 -0.0348
42870SOL    HW146220   3.639   2.953   7.612  0.8424  0.6647  1.2177
42870SOL    HW246221   3.628   3.086   7.539 -0.0829 -0.2264 -0.3148
42871SOL     OW46222   9.741   1.942   9.262 -0.0947 -0.2992  0.3700
42871SOL    HW146223   9.803   1.936   9.334 -0.8096 -3.1836  0.8771
42871SOL    HW246224   9.795   1.944   9.183  0.6506  0.2465  0.8818
42872SOL     OW46225  11.848   8.061   3.189  0.0402 -0.2012  0.2962
42872SOL    HW146226  11.892   8.106   3.117  0.0098  0.2387  0.5451
42872SOL    HW246227  11.906   8.075   3.264 -0.2589 -0.0748  0.5059
42873SOL     OW46228   8.774  12.272   3.152  0.3230 -0.5276 -0.1536
42873SOL    HW146229   8.754  12.181   3.175  0.1660 -0.8316 -1.4470
42873SOL    HW246230   8.698  12.321   3.182 -0.1944 -1.0098 -0.6542
42874SOL     OW46231   1.862  13.041   5.034 -0.1868 -0.4578 -0.3698
42874SOL    HW146232   1.887  13.077   4.949 -2.3715 -1.0888 -1.3386
42874SOL    HW246233   1.932  13.069   5.093  0.4052  1.6595 -1.9551
42875SOL     OW46234   9.219   7.263   5.407  0.6662  0.2280 -0.0832
42875SOL    HW146235   9.300   7.213   5.416 -0.0459 -1.0970 -0.7264
42875SOL    HW246236   9.158   7.222   5.470 -0.3805 -0.7522 -1.6582
42876SOL     OW46237   5.408   6.812   3.384  0.3377  0.2354 -0.1381
42876SOL    HW146238   5.365   6.832   3.300  0.1485  0.5878  0.0406
42876SOL    HW246239   5.338   6.819   3.449  1.0151  2.8271  0.4292
42877SOL     OW46240   1.798   9.723  12.844  0.3588 -0.1607  0.4782
42877SOL    HW146241   1.828   9.729  12.753  1.6453 -1.9813  0.7227
42877SOL    HW246242   1.707   9.751  12.841  0.2757 -0.5014 -1.4434
42878SOL     OW46243   3.263  11.081  10.425  0.1439 -0.1172 -0.2347
42878SOL    HW146244   3.293  11.153  10.370 -0.2416 -1.4741 -2.3572
42878SOL    HW246245   3.312  11.005  10.394 -0.8458 -1.1407  0.5896
42879SOL     OW46246   5.124  12.625   9.521  0.0182 -0.6247  0.2073
42879SOL    HW146247   5.212  12.591   9.538  0.8042  1.0341 -0.2796
42879SOL    HW246248   5.129  12.660   9.432 -0.9389  0.0743  0.4060
42880SOL     OW46249   3.028   8.927   2.203  0.1681  0.3395  0.3187
42880SOL    HW146250   2.974   8.913   2.280  0.3911 -0.9619  0.2548
42880SOL    HW246251   3.018   8.847   2.152  1.8559  0.2258  0.1291
42881SOL     OW46252   4.812   1.743   0.406 -0.5251  0.1330 -0.0232
42881SOL    HW146253   4.842   1.821   0.361 -0.2035 -0.5973 -1.1045
42881SOL    HW246254   4.756   1.699   0.343  0.3567 -1.1841  0.0787
42882SOL     OW46255   1.590  13.399   5.238 -0.2061  0.3269 -0.3129
42882SOL    HW146256   1.557  13.477   5.192  0.6675  0.3403 -0.9509
42882SOL    HW246257   1.681  13.419   5.257 -0.4674  0.1932  1.2119
42883SOL     OW46258  10.666  13.638   0.724 -0.5011  0.2309 -0.1991
42883SOL    HW146259  10.725  13.565   0.741 -0.7244  0.4053  1.5495
42883SOL    HW246260  10.723  13.710   0.696  0.4649  0.9233  3.0894
42884SOL     OW46261   7.553   6.606   1.267  0.1119 -0.6523 -0.3580
42884SOL    HW146262   7.576   6.515   1.285  0.8233 -0.5035 -0.4494
42884SOL    HW246263   7.616   6.634   1.200  0.3764  0.1110  0.1904
42885SOL     OW46264   4.541   8.997   5.843  0.4865 -0.1835  0.1056
42885SOL    HW146265   4.554   9.011   5.937 -0.3842  0.4485  0.1483
42885SOL    HW246266   4.466   8.939   5.838 -1.0331  1.7025 -0.2028
42886SOL     OW46267  10.035  11.058   8.112  0.2265  0.2436  0.1772
42886SOL    HW146268   9.952  11.079   8.069 -0.1758 -0.9209  0.3309
42886SOL    HW246269  10.082  11.003   8.048 -0.3706 -1.4928  1.1545
42887SOL     OW46270   4.738   6.111   7.660  0.5312  0.2432  0.2202
42887SOL    HW146271   4.667   6.047   7.663  0.3595  0.3214 -1.4002
42887SOL    HW246272   4.785   6.091   7.579  1.0910  1.5221  0.2113
42888SOL     OW46273  12.783   4.500   5.619 -0.7989 -0.0707  0.5441
42888SOL    HW146274  12.823   4.418   5.647 -0.0737  0.5358  1.3504
42888SOL    HW246275  12.857   4.557   5.599 -1.2927 -0.1641 -1.7829
42889SOL     OW46276   7.134   2.884   4.069  0.4476  0.0699 -0.4279
42889SOL    HW146277   7.152   2.793   4.094  2.4090 -0.1287 -2.2245
42889SOL    HW246278   7.175   2.936   4.138 -0.2312 -0.4022  0.3445
42890SOL     OW46279   2.031   6.982   1.405  0.6143 -0.2691  0.0308
42890SOL    HW146280   2.116   7.020   1.423  0.4627 -0.6537  1.6733
42890SOL    HW246281   1.969   7.054   1.413  0.7356 -0.0329 -0.9655
42891SOL     OW46282  10.525   5.696  14.088 -0.5083 -0.0112 -0.2774
42891SOL    HW146283  10.484   5.752  14.154  0.0007 -0.0089  0.0478
42891SOL    HW246284  10.464   5.624  14.076 -0.8999  0.3145 -0.2727
42892SOL     OW46285   7.312  12.899  10.441 -0.2064  0.6378  0.6114
42892SOL    HW146286   7.217  12.893  10.439 -0.1970  0.6227 -0.0570
42892SOL    HW246287   7.338  12.900  10.349  0.3985  1.2957  0.7824
42893SOL     OW46288   5.787   4.845   3.290  0.3411  0.1032 -0.0113
42893SOL    HW146289   5.827   4.855   3.204 -0.8820  0.3360 -0.5673
42893SOL    HW246290   5.809   4.926   3.336  0.7687  0.0887 -0.1802
42894SOL     OW46291   6.081  13.581   5.317 -0.2575 -0.4596 -0.5667
42894SOL    HW146292   6.011  13.611   5.375 -0.6307 -0.5533 -0.9582
42894SOL    HW246293   6.065  13.629   5.235  0.4535 -0.0830 -0.4911
42895SOL     OW46294   4.184   6.354  13.408  0.5286  0.3728 -0.1185
42895SOL    HW146295   4.211   6.307  13.329 -0.3027 -1.2662  0.5177
42895SOL    HW246296   4.106   6.403  13.382  0.0156 -0.4833 -0.2381
42896SOL     OW46297   9.603   7.601   0.705  0.0417  0.2514  0.1059
42896SOL    HW146298   9.610   7.538   0.777 -0.5694 -0.7173 -0.6412
42896SOL    HW246299   9.510   7.623   0.702  0.1002  0.4642 -0.2246
42897SOL     OW46300   5.237   2.588   2.640 -0.2663  0.4556 -0.0099
42897SOL    HW146301   5.262   2.641   2.564 -0.7278  3.5788  1.8329
42897SOL    HW246302   5.209   2.504   2.603  5.2162 -0.5865 -2.8396
42898SOL     OW46303   1.623   6.502  13.654 -0.3458  0.1925  0.1785
42898SOL    HW146304   1.711   6.464  13.649 -0.6803 -0.4515 -1.4521
42898SOL    HW246305   1.620   6.544  13.740  1.9394  1.2136 -0.1712
42899SOL     OW46306   2.438   7.925   1.367  0.1164  0.4612 -0.0619
42899SOL    HW146307   2.488   7.874   1.303 -2.1493  1.5288 -2.8696
42899SOL    HW246308   2.446   8.015   1.337 -3.2324  0.6958 -0.5547
42900SOL     OW46309   4.302   4.513   8.226 -0.0137  0.3514  0.2587
42900SOL    HW146310   4.362   4.584   8.204 -0.8695  0.7173 -1.0124
42900SOL    HW246311   4.294   4.463   8.146  0.1242 -0.8759  0.9815
42901SOL     OW46312  13.492   8.824  10.171 -0.5117  0.8122 -1.0485
42901SOL    HW146313  13.462   8.739  10.203  1.7134  0.9893  1.8625
42901SOL    HW246314  13.417   8.882  10.184 -0.6384  0.2230  1.3036
42902SOL     OW46315   3.701   2.037  14.049  0.4784 -0.3830  0.1392
42902SOL    HW146316   3.747   1.953  14.042 -0.8105 -1.0920 -0.1027
42902SOL    HW246317   3.611   2.017  14.021  0.6432  1.5277 -2.0270
42903SOL     OW46318   8.742   4.172  14.018 -0.2027  0.1584  0.3074
42903SOL    HW146319   8.763   4.208  13.932 -3.2004  0.2230 -0.4935
42903SOL    HW246320   8.798   4.094  14.026  1.1657  0.9614 -1.0191
42904SOL     OW46321  12.288   1.486   7.922 -0.4064 -0.0424  0.0134
42904SOL    HW146322  12.209   1.477   7.974 -0.5114  1.3126  0.1196
42904SOL    HW246323  12.330   1.565   7.955  2.0988 -1.8228  1.4035
42905SOL     OW46324  13.077   2.991   3.980  0.6053  0.3288  0.0981
42905SOL    HW146325  13.168   2.961   3.975  0.6620  0.4607  0.3182
42905SOL    HW246326  13.038   2.939   4.050 -0.5916 -2.5855 -2.5194
42906SOL     OW46327  11.325   1.745  12.827  0.2741  0.2248 -0.5759
42906SOL    HW146328  11.388   1.806  12.788  1.5420  1.4144  2.9492
42906SOL    HW246329  11.288   1.698  12.752  2.8548  1.8600 -3.0940
42907SOL     OW46330   6.391   0.100   9.216  0.8352 -0.0363 -0.2056
42907SOL    HW146331   6.369   0.169   9.153 -3.3646  0.2890  1.3182
42907SOL    HW246332   6.428   0.147   9.291  0.5918  0.2380 -0.2571
42908SOL     OW46333  12.917   4.916   4.645 -0.2466 -0.0411 -0.7596
42908SOL    HW146334  12.936   4.884   4.733  0.1049  0.4258 -0.6563
42908SOL    HW246335  12.886   4.840   4.597  0.6453 -0.5544 -0.5486
42909SOL     OW46336   9.605   2.822   4.002 -0.0072  0.5232 -0.6080
42909SOL    HW146337   9.684   2.768   3.995  0.6445  1.4918 -0.8646
42909SOL    HW246338   9.636   2.912   3.988 -1.3415  0.8068 -2.0198
42910SOL     OW46339   3.530  11.056   9.955  0.1402 -0.1600 -0.1356
42910SOL    HW146340   3.472  11.015   9.891 -0.2959  1.5667 -0.8882
42910SOL    HW246341   3.538  10.991  10.025 -0.7419 -1.3970 -1.1459
42911SOL     OW46342   9.341   8.335   2.794  0.4947 -0.5589 -0.3364
42911SOL    HW146343   9.306   8.247   2.807 -1.2689  0.0745 -0.5626
42911SOL    HW246344   9.375   8.334   2.704 -0.5964 -0.6727 -0.7586
42912SOL     OW46345   9.004   9.141   0.322 -1.0723  0.6557  0.0324
42912SOL    HW146346   9.010   9.066   0.262  1.7186  0.0551  0.9148
42912SOL    HW246347   8.931   9.118   0.381 -2.1856  0.0631 -1.5005
42913SOL     OW46348  11.793  12.266   1.888  0.0445 -0.2086  0.0786
42913SOL    HW146349  11.721  12.275   1.950 -0.2372  1.8419 -0.4760
42913SOL    HW246350  11.828  12.178   1.904 -1.6691 -0.7101  1.3144
42914SOL     OW46351   3.471   5.609   2.797 -0.3579  0.2082 -0.5151
42914SOL    HW146352   3.565   5.600   2.816  0.0324  0.8187 -1.9971
42914SOL    HW246353   3.437   5.520   2.807 -0.0193  0.2849  1.8318
42915SOL     OW46354   6.154   2.778   2.230  0.5610 -0.0582 -0.3490
42915SOL    HW146355   6.087   2.756   2.165 -0.4234  0.0143  0.6087
42915SOL    HW246356   6.178   2.868   2.210 -0.0261  0.0977 -0.3799
42916SOL     OW46357   2.884  13.236   5.122 -0.0937 -0.1484  0.0175
42916SOL    HW146358   2.958  13.296   5.118  1.0037 -1.4883 -1.1437
42916SOL    HW246359   2.861  13.221   5.030 -1.4821 -0.1610  0.3509
42917SOL     OW46360   0.744  10.958   4.304 -0.1368 -0.1761 -0.5939
42917SOL    HW146361   0.676  11.017   4.271 -0.8229 -0.9608 -0.6067
42917SOL    HW246362   0.826  11.004   4.285 -0.6532  0.8096 -0.5295
42918SOL     OW46363   9.787  12.913  12.684 -0.0933 -0.4285 -0.3241
42918SOL    HW146364   9.775  12.823  12.716 -0.6940  0.0845  0.9685
42918SOL    HW246365   9.864  12.945  12.732 -1.1865  0.4537  0.9158
42919SOL     OW46366  11.162   4.696  10.880  0.2039  0.2487  0.3857
42919SOL    HW146367  11.206   4.675  10.963  0.8872 -0.6553 -0.1784
42919SOL    HW246368  11.222   4.756  10.835  0.2772  0.0038  0.1530
42920SOL     OW46369   1.834   4.749   3.778  0.6761  0.2356  0.4191
42920SOL    HW146370   1.758   4.776   3.727  0.0469  0.1759  1.2838
42920SOL    HW246371   1.891   4.705   3.716 -0.5709 -0.8140 -0.0355
42921SOL     OW46372   0.363   0.086   6.466 -0.4359 -0.3133 -0.0431
42921SOL    HW146373   0.430   0.075   6.533 -2.5283  0.8895  2.4397
42921SOL    HW246374   0.285   0.047   6.504 -1.6467  0.1189 -1.9584
42922SOL     OW46375   2.900   0.504   4.798 -0.2732 -0.4418 -0.3943
42922SOL    HW146376   2.812   0.475   4.823 -1.4919  1.8952 -1.7120
42922SOL    HW246377   2.892   0.529   4.706  1.8008 -0.1799 -0.5472
42923SOL     OW46378   7.364  11.558   0.035  0.1868 -0.2295 -0.4403
42923SOL    HW146379   7.352  11.490  -0.032  1.7847  0.1158 -1.1240
42923SOL    HW246380   7.455  11.584   0.025  0.0229  0.9035  0.8889
42924SOL     OW46381   1.846  10.125   8.221 -0.2110 -0.8279  0.3833
42924SOL    HW146382   1.936  10.093   8.229 -0.4891 -2.4894 -2.0266
42924SOL    HW246383   1.804  10.096   8.302  1.3671 -0.0222  1.5600
42925SOL     OW46384   5.793   1.748   5.826 -0.4089 -0.2873 -0.1678
42925SOL    HW146385   5.852   1.683   5.787 -1.8453 -0.5240 -2.1382
42925SOL    HW246386   5.711   1.701   5.840 -1.0257  0.7164 -0.2601
42926SOL     OW46387   4.751   1.234  13.010 -0.1030 -0.2468  0.3503
42926SOL    HW146388   4.806   1.204  12.938 -0.6359  0.1379 -0.2190
42926SOL    HW246389   4.769   1.172  13.081  1.2697  0.0253  0.2705
42927SOL     OW46390   9.510   4.061   2.371 -0.3312  0.0501 -0.7077
42927SOL    HW146391   9.461   3.993   2.417 -1.2424  1.9731  1.3408
42927SOL    HW246392   9.466   4.068   2.286  1.0354 -3.1980 -1.8384
42928SOL     OW46393  10.514   1.674  11.252  0.2943  0.3185  0.1020
42928SOL    HW146394  10.527   1.580  11.238  1.3036  0.7133 -2.1813
42928SOL    HW246395  10.506   1.709  11.163  1.2890  2.5678  0.8444
42929SOL     OW46396   0.210   2.864  10.532 -0.1463  0.3515 -0.0186
42929SOL    HW146397   0.211   2.879  10.437 -2.0031 -0.5027 -0.2032
42929SOL    HW246398   0.152   2.932  10.566 -0.7421 -0.3094  0.3039
42930SOL     OW46399   3.463   9.604   7.936  0.9041  0.3092  0.4880
42930SOL    HW146400   3.550   9.583   7.902  0.9133  1.5106 -0.2933
42930SOL    HW246401   3.430   9.522   7.971  2.2719 -0.2125  0.6118
42931SOL     OW46402  10.736  13.957  10.298  0.5112 -0.3001  0.0517
42931SOL    HW146403  10.795  13.908  10.240  2.3144 -1.3952  2.6388
42931SOL    HW246404  10.707  13.893  10.363  2.7035  1.7935  3.3915
42932SOL     OW46405   3.412   3.252   2.732 -0.9094  0.8620 -0.2893
42932SOL    HW146406   3.399   3.188   2.662 -1.5444 -0.3386  0.8854
42932SOL    HW246407   3.475   3.315   2.695 -2.5984  1.3432 -2.6271
42933SOL     OW46408  12.281   5.787   5.295  0.1270  0.4480 -0.3440
42933SOL    HW146409  12.187   5.795   5.305 -0.0075 -0.4396 -0.7836
42933SOL    HW246410  12.314   5.768   5.383  0.0339  1.7806  0.0029
42934SOL     OW46411   1.065   7.159  13.881  0.6436 -0.0235  0.2061
42934SOL    HW146412   1.035   7.074  13.912 -0.4779  0.6977  1.1731
42934SOL    HW246413   1.023   7.170  13.796 -1.0031  0.4946  1.0573
42935SOL     OW46414   3.726   2.079   5.336  0.0099  0.9522  0.1998
42935SOL    HW146415   3.781   2.118   5.268  2.6922  0.4803  1.9417
42935SOL    HW246416   3.686   2.003   5.294  2.2814  0.1615 -0.7191
42936SOL     OW46417   4.654   4.354   9.208 -0.0076  0.3549 -0.0319
42936SOL    HW146418   4.627   4.440   9.177 -0.2684  0.9032  1.6098
42936SOL    HW246419   4.672   4.367   9.301 -0.4752 -1.4745  0.3447
42937SOL     OW46420   7.680   0.106   3.915  0.1835  0.6299 -0.4389
42937SOL    HW146421   7.748   0.063   3.864  0.9097  2.1688 -0.8407
42937SOL    HW246422   7.599   0.060   3.891  1.1072 -1.6419  0.5173
42938SOL     OW46423   2.955   2.204   2.509  0.2654 -0.0853 -0.0904
42938SOL    HW146424   2.999   2.128   2.471  0.7758  0.3760 -0.4274
42938SOL    HW246425   2.920   2.252   2.434  0.2348  0.1921  0.0972
42939SOL     OW46426   8.367   1.510   4.878 -0.6516 -0.1355  0.2646
42939SOL    HW146427   8.398   1.449   4.811 -0.3229  0.3999 -0.0847
42939SOL    HW246428   8.309   1.458   4.934  1.3460 -1.3274  1.3304
42940SOL     OW46429   3.608  12.883  12.770 -0.3394  0.6899  0.3272
42940SOL    HW146430   3.559  12.871  12.689 -0.7372 -0.8647  0.7761
42940SOL    HW246431   3.542  12.903  12.836 -0.4726 -1.6093  0.9770
42941SOL     OW46432  10.519   9.299   5.534  1.0332 -0.0637 -0.2221
42941SOL    HW146433  10.547   9.335   5.450 -0.8745 -1.0318 -1.3267
42941SOL    HW246434  10.574   9.222   5.547  0.2201 -0.8666 -1.4262
42942SOL     OW46435  12.073  11.112   1.504  0.2057 -0.3145  0.2749
42942SOL    HW146436  12.014  11.053   1.457 -0.0412 -0.5962  0.9260
42942SOL    HW246437  12.083  11.072   1.590 -2.7959  2.3487  2.0680
42943SOL     OW46438   8.662   1.871   4.125  0.1710 -0.0011 -0.4484
42943SOL    HW146439   8.748   1.846   4.158 -0.0827  0.1665  0.3563
42943SOL    HW246440   8.609   1.886   4.203 -0.6477 -0.2837 -0.9289
42944SOL     OW46441  13.752  13.539   8.112  0.6290 -0.9945  0.4520
42944SOL    HW146442  13.847  13.547   8.119  0.6682 -0.9613 -0.0732
42944SOL    HW246443  13.726  13.617   8.062  0.3108 -0.9385  0.7032
42945SOL     OW46444   0.515   3.430  10.445 -0.4089  0.5753  0.6312
42945SOL    HW146445   0.483   3.397  10.529  2.0189 -1.7946  0.7624
42945SOL    HW246446   0.480   3.370  10.380 -0.4388  1.0564  0.1979
42946SOL     OW46447  11.175   0.941   1.870  0.1411  0.9711 -0.3626
42946SOL    HW146448  11.132   0.945   1.955  0.5451  0.6404 -0.1385
42946SOL    HW246449  11.196   1.032   1.849  1.1132  0.9563  0.4552
42947SOL     OW46450  13.447   1.888   8.803 -0.0727 -0.5230 -0.0794
42947SOL    HW146451  13.373   1.849   8.756 -0.5774  0.1837  0.1167
42947SOL    HW246452  13.525   1.853   8.758 -0.4944 -1.8698  0.1809
42948SOL     OW46453  12.227   0.938  13.207  0.0782 -0.0158 -0.2899
42948SOL    HW146454  12.240   0.998  13.133  3.2648  1.0355  0.9227
42948SOL    HW246455  12.186   0.992  13.274  2.3880  0.7795  0.5860
42949SOL     OW46456   6.661  13.499   9.883  0.3100 -0.0578 -0.8647
42949SOL    HW146457   6.740  13.503   9.829  0.6029  1.4148 -0.3725
42949SOL    HW246458   6.692  13.480   9.971  0.2499  1.5891 -0.4631
42950SOL     OW46459   3.737   5.637   2.864  0.2689  0.1810  0.2990
42950SOL    HW146460   3.758   5.721   2.824  0.8320 -0.6065 -1.1412
42950SOL    HW246461   3.821   5.590   2.867 -0.0446 -0.3630  1.0206
42951SOL     OW46462   7.197  14.078   5.170 -0.2423  0.1469 -0.2924
42951SOL    HW146463   7.243  14.082   5.086 -2.1741 -0.1284 -1.4251
42951SOL    HW246464   7.209  13.988   5.200 -0.7475 -0.1750 -1.0237
42952SOL     OW46465   4.736  12.266   6.619 -0.3546 -0.2411 -0.2328
42952SOL    HW146466   4.832  12.261   6.622 -0.2964 -0.4739 -1.5447
42952SOL    HW246467   4.707  12.176   6.632 -0.5318  0.1436  2.4782
42953SOL     OW46468   4.838   9.810   0.894  0.0280  0.8769  0.0209
42953SOL    HW146469   4.809   9.730   0.850 -1.6167  2.3016 -1.6312
42953SOL    HW246470   4.899   9.779   0.961 -1.1504 -1.8273 -0.0097
42954SOL     OW46471   4.458   3.414   1.725 -0.0890  0.5820  0.3343
42954SOL    HW146472   4.366   3.440   1.738  0.4639  2.2941  1.0525
42954SOL    HW246473   4.475   3.353   1.797 -0.6377  0.2877  0.2239
42955SOL     OW46474   8.360   2.129   8.748 -0.1554 -0.0134  0.1238
42955SOL    HW146475   8.422   2.113   8.676 -1.0345 -1.7385 -0.3085
42955SOL    HW246476   8.412   2.175   8.814  0.9290  0.7662 -1.2160
42956SOL     OW46477   7.305   3.071  11.439 -0.5296 -0.4406 -0.3730
42956SOL    HW146478   7.238   3.059  11.371 -1.1416 -2.7450  0.5325
42956SOL    HW246479   7.280   3.152  11.482 -2.2175 -0.7490 -0.6801
42957SOL     OW46480   7.466  10.212   3.138 -0.2406  0.0479 -0.0145
42957SOL    HW146481   7.515  10.226   3.219  0.5171 -0.1059 -0.4411
42957SOL    HW246482   7.522  10.246   3.069 -0.1937 -1.2205 -0.6345
42958SOL     OW46483   8.038  13.875   1.663 -0.3282 -0.1560  0.0670
42958SOL    HW146484   7.966  13.812   1.658  0.2181 -0.9609  1.6184
42958SOL    HW246485   8.034  13.908   1.753  2.1193 -1.3367  0.7027
42959SOL     OW46486  13.416   0.689  12.996 -0.4925  0.0365  0.1501
42959SOL    HW146487  13.437   0.620  13.059 -1.4050 -0.6888 -0.3148
42959SOL    HW246488  13.353   0.649  12.936  0.7871  0.5123 -1.6048
42960SOL     OW46489   5.740  12.220   8.263 -0.0888 -0.0920 -0.2151
42960SOL    HW146490   5.806  12.207   8.332 -0.6411 -1.6471  0.0674
42960SOL    HW246491   5.673  12.273   8.305 -0.2962 -0.8054  0.3852
42961SOL     OW46492  12.821   6.578   2.773 -0.0184 -0.0771  0.6336
42961SOL    HW146493  12.733   6.573   2.811 -1.2435  0.4466 -1.9552
42961SOL    HW246494  12.857   6.660   2.807 -0.8470  0.1072  1.0863
42962SOL     OW46495   1.148   3.051   3.832 -0.1849 -0.3307 -0.0695
42962SOL    HW146496   1.056   3.024   3.836 -0.6556  0.9898 -1.0713
42962SOL    HW246497   1.178   3.020   3.747  0.0815 -0.1425 -0.0443
42963SOL     OW46498   4.334  10.236   1.180  0.6066 -0.3041 -0.2729
42963SOL    HW146499   4.335  10.281   1.264  0.3463  0.1574 -0.5109
42963SOL    HW246500   4.426  10.226   1.156  0.6990 -0.9401  0.3246
42964SOL     OW46501   4.568  10.097   9.082 -1.0385  0.1416  0.1302
42964SOL    HW146502   4.538  10.143   9.161  0.3613  1.7439 -0.1965
42964SOL    HW246503   4.661  10.120   9.075 -0.5647 -1.8285 -0.7576
42965SOL     OW46504   1.892  10.955   9.615 -0.0831 -0.2156  0.4596
42965SOL    HW146505   1.812  10.904   9.601 -0.4069  0.2739  0.5197
42965SOL    HW246506   1.923  10.928   9.701 -1.0372  0.7211  1.1274
42966SOL     OW46507   4.405   2.179   2.695  0.2855 -0.3456  0.0951
42966SOL    HW146508   4.322   2.186   2.742  0.1515 -2.9556  0.4387
42966SOL    HW246509   4.385   2.122   2.621  1.5848 -0.3765 -0.2515
42967SOL     OW46510  13.507  13.160   5.309 -0.3178 -0.4942  0.0990
42967SOL    HW146511  13.433  13.214   5.336 -0.2512  0.4131 -1.4180
42967SOL    HW246512  13.470  13.099   5.245  0.0085 -0.9184  0.3077
42968SOL     OW46513  12.232   7.436   2.531  0.4108 -0.3600 -0.5665
42968SOL    HW146514  12.237   7.526   2.564 -0.2318 -0.5076 -0.0719
42968SOL    HW246515  12.318   7.398   2.553  0.5948  0.0541 -0.5593
42969SOL     OW46516   9.193   3.243   4.476 -0.6365  0.6742  0.4881
42969SOL    HW146517   9.229   3.328   4.453 -0.8341  0.2927 -1.4382
42969SOL    HW246518   9.267   3.194   4.512 -0.7653  1.9626  2.6190
42970SOL     OW46519  10.674  10.490   3.626 -0.3697  0.0048 -0.0166
42970SOL    HW146520  10.768  10.471   3.629 -0.1478  0.5202 -2.0113
42970SOL    HW246521  10.632  10.406   3.646  0.5466 -0.6471 -0.7298
42971SOL     OW46522   9.595  10.957   3.555 -0.0914 -0.7632  0.2300
42971SOL    HW146523   9.621  10.920   3.640 -0.5833  2.2868  1.8535
42971SOL    HW246524   9.653  11.032   3.543 -2.7487  1.4021  0.0048
42972SOL     OW46525  11.481  12.529   5.664  0.2352  0.0916  0.0425
42972SOL    HW146526  11.475  12.502   5.756  1.2581  0.0944  0.1287
42972SOL    HW246527  11.404  12.491   5.623 -0.6309  0.6944  1.0378
42973SOL     OW46528   7.165   3.731   7.223 -0.1921 -0.0728 -0.3082
42973SOL    HW146529   7.135   3.807   7.173 -0.6706 -0.1576 -0.1592
42973SOL    HW246530   7.111   3.659   7.192  0.2571 -0.3524 -0.4425
42974SOL     OW46531   4.096   3.040  11.835  0.2989  0.0409  0.1605
42974SOL    HW146532   4.099   3.062  11.928  1.8898 -0.9168  0.3787
42974SOL    HW246533   4.186   3.014  11.814  0.8183  3.2847 -2.4301
42975SOL     OW46534   3.249   3.562   2.520 -0.1624 -0.3057  0.0724
42975SOL    HW146535   3.228   3.650   2.550  1.7303  0.4700 -0.6686
42975SOL    HW246536   3.196   3.550   2.441  0.3924  0.6439 -0.4578
42976SOL     OW46537   5.037   9.432   6.457 -0.6162  0.3710  0.0965
42976SOL    HW146538   5.061   9.400   6.370 -1.9097  0.6791 -0.3935
42976SOL    HW246539   5.072   9.521   6.461 -2.4726  1.1994 -1.0083
42977SOL     OW46540  10.952  13.292  13.404  0.2961 -0.1538 -0.0521
42977SOL    HW146541  11.019  13.238  13.364 -0.1922 -0.6171 -0.2616
42977SOL    HW246542  10.928  13.246  13.485  0.0611 -0.1248 -0.1029
42978SOL     OW46543  12.238   0.909  12.240 -0.1439 -0.6779 -0.0111
42978SOL    HW146544  12.200   0.967  12.305 -0.0185 -0.1275 -0.4247
42978SOL    HW246545  12.316   0.872  12.283  0.2088  0.0538 -0.0166
42979SOL     OW46546  10.929   3.175   9.545  0.9787 -0.0653  0.5088
42979SOL    HW146547  10.893   3.097   9.503  2.0510 -0.4415  0.2409
42979SOL    HW246548  10.856   3.235   9.551 -0.4708 -1.8666  2.6730
42980SOL     OW46549  13.545  11.420   1.690 -0.3873  0.0151 -0.0771
42980SOL    HW146550  13.499  11.459   1.764  0.2682  0.5800  0.0422
42980SOL    HW246551  13.633  11.401   1.723  0.0956  0.8123 -0.8583
42981SOL     OW46552   5.850   2.689  13.197 -0.5758 -0.5361  0.6624
42981SOL    HW146553   5.933   2.706  13.241  0.9931 -0.5211 -2.0488
42981SOL    HW246554   5.837   2.594  13.206  0.1599 -0.6594  0.4836
42982SOL     OW46555   9.072  10.854   6.969 -0.2976  0.4106  0.5883
42982SOL    HW146556   9.034  10.787   6.912 -0.1649  1.1681 -0.4243
42982SOL    HW246557   9.023  10.934   6.947 -0.8138  0.5546  2.1458
42983SOL     OW46558   6.908   5.064   2.740 -0.0057  0.1417 -0.0033
42983SOL    HW146559   6.826   5.036   2.781  0.2501 -0.7956 -0.1069
42983SOL    HW246560   6.912   5.158   2.756 -1.2632  0.2526 -0.2937
42984SOL     OW46561   6.603   6.340   4.342  0.0495 -0.2181  0.4174
42984SOL    HW146562   6.651   6.341   4.259 -1.1684  0.5701 -0.3089
42984SOL    HW246563   6.663   6.380   4.405  0.2122  1.1495 -0.5622
42985SOL     OW46564   8.888   9.439   2.977 -0.3379  0.3508  0.2671
42985SOL    HW146565   8.946   9.371   3.011 -1.0224 -0.7839 -0.7763
42985SOL    HW246566   8.852   9.481   3.055 -1.9050 -2.2014  1.0234
42986SOL     OW46567   5.080   3.571   6.779 -0.6489  0.2671  0.4706
42986SOL    HW146568   5.140   3.628   6.732 -0.6578  0.8024  1.0981
42986SOL    HW246569   5.055   3.504   6.715  0.7366 -0.0680  0.2561
42987SOL     OW46570   2.892   9.401  13.210 -0.2342 -0.3243  0.0856
42987SOL    HW146571   2.860   9.488  13.236  0.9400  0.1837 -0.1271
42987SOL    HW246572   2.812   9.351  13.193 -0.9255  1.0307 -0.8491
42988SOL     OW46573   9.303  12.558  10.943 -0.0127  0.0025  0.0959
42988SOL    HW146574   9.301  12.522  11.032 -1.4483 -1.8920 -0.6244
42988SOL    HW246575   9.304  12.653  10.956 -0.2327 -0.2119  2.1159
42989SOL     OW46576   9.601   8.797   5.255 -0.1206 -0.2664  0.1511
42989SOL    HW146577   9.574   8.706   5.267 -1.1742 -0.0483 -0.3911
42989SOL    HW246578   9.522   8.848   5.274 -0.5236  0.3430 -2.6620
42990SOL     OW46579  10.749   0.358   3.371 -0.0098 -0.1177 -0.5319
42990SOL    HW146580  10.774   0.346   3.279  1.7373  0.8726 -0.2364
42990SOL    HW246581  10.702   0.441   3.373  0.2831  0.0496 -0.4884
42991SOL     OW46582   2.814   8.162   8.845 -0.4587  0.0929  0.0559
42991SOL    HW146583   2.785   8.080   8.805 -1.5798  0.7495 -0.5267
42991SOL    HW246584   2.789   8.154   8.937 -0.7374 -0.1306 -0.0383
42992SOL     OW46585   6.669  13.013   6.284 -0.1414  0.6365 -0.3177
42992SOL    HW146586   6.588  12.979   6.322 -0.5552  0.4012 -1.3556
42992SOL    HW246587   6.727  12.937   6.278  1.1542  1.2443  2.7280
42993SOL     OW46588   5.332   8.546   4.828 -0.0073 -0.8846 -0.2572
42993SOL    HW146589   5.358   8.584   4.745 -0.9425  0.6326  0.1087
42993SOL    HW246590   5.261   8.486   4.805  0.7917 -1.6831 -0.7140
42994SOL     OW46591  11.300   0.141   5.940 -0.6217 -0.0209  0.2498
42994SOL    HW146592  11.285   0.221   5.889 -1.0362 -0.5613 -0.5009
42994SOL    HW246593  11.372   0.097   5.896  1.6463  1.2918  2.3454
42995SOL     OW46594   1.678  13.210  13.781 -0.2223 -0.6118 -0.1024
42995SOL    HW146595   1.719  13.238  13.699  0.5713 -2.5031 -0.3860
42995SOL    HW246596   1.588  13.242  13.775 -0.2837 -1.0338 -1.8842
42996SOL     OW46597   8.580   1.519  13.447 -0.0542  0.8926  0.0170
42996SOL    HW146598   8.635   1.441  13.457 -0.5086  0.8015  2.7629
42996SOL    HW246599   8.508   1.491  13.390  1.1713  0.1243 -1.1892
42997SOL     OW46600   5.581   4.016   7.064 -0.7454  0.8993  0.1126
42997SOL    HW146601   5.596   4.032   6.971 -0.7407 -1.5647 -0.3696
42997SOL    HW246602   5.487   3.998   7.070 -0.7282  0.9629  0.5572
42998SOL     OW46603   4.661   4.255   5.416  0.2960 -0.2349  0.0016
42998SOL    HW146604   4.660   4.296   5.502  1.7685 -1.1492  0.4980
42998SOL    HW246605   4.754   4.237   5.399 -0.1771 -2.3667 -0.6485
42999SOL     OW46606   7.706  10.828  13.673 -0.2552 -0.2180 -0.3225
42999SOL    HW146607   7.784  10.846  13.726 -0.8226  0.1641  0.3916
42999SOL    HW246608   7.736  10.763  13.608  0.8281  0.4126 -0.4864
43000SOL     OW46609   6.960   6.582   2.287 -0.0732  0.5901 -0.2349
43000SOL    HW146610   6.936   6.636   2.212 -2.1903 -1.0800 -0.8814
43000SOL    HW246611   7.012   6.510   2.250  1.6270  1.4126  0.4276
43001SOL     OW46612   4.486   1.238   4.359  0.3209 -0.0368 -0.0589
43001SOL    HW146613   4.524   1.294   4.426 -1.5150  0.4557  0.6304
43001SOL    HW246614   4.523   1.151   4.375  1.8374  0.5863 -0.0321
43002SOL     OW46615   4.139  13.692   1.478 -0.5151  0.9991 -0.2773
43002SOL    HW146616   4.223  13.730   1.502 -0.3426  0.3323  0.2095
43002SOL    HW246617   4.161  13.606   1.440 -0.9869  0.6653  0.1848
43003SOL     OW46618   1.231   6.151  13.927  0.0112  0.5511  0.0028
43003SOL    HW146619   1.207   6.220  13.989 -0.2196 -1.0238  1.7923
43003SOL    HW246620   1.321   6.129  13.950 -0.3410 -0.5954  0.3542
43004SOL     OW46621   8.273   5.447   7.277  0.2177  0.0400 -0.5112
43004SOL    HW146622   8.265   5.528   7.226 -0.0438  0.4406  0.1497
43004SOL    HW246623   8.366   5.442   7.298  0.2614  0.0808 -0.6871
43005SOL     OW46624   5.193  13.614   8.984  0.4304  0.3399  0.0550
43005SOL    HW146625   5.233  13.528   8.973  2.0953  0.8291  1.6197
43005SOL    HW246626   5.267  13.675   8.987 -0.6673  1.7652 -0.4171
43006SOL     OW46627  13.176   3.747  13.168  0.1718 -0.5072 -0.4311
43006SOL    HW146628  13.135   3.820  13.215  0.0859 -0.0418 -1.2195
43006SOL    HW246629  13.269   3.770  13.164  0.0224  0.0030 -1.4347
43007SOL     OW46630   2.194   8.511  12.266 -0.0207 -0.9719 -0.2844
43007SOL    HW146631   2.288   8.508  12.245  0.1315 -0.5826  0.3266
43007SOL    HW246632   2.173   8.423  12.297  0.4985 -0.6485  1.0491
43008SOL     OW46633   0.406  12.035   8.047  0.3046  0.6137 -0.2570
43008SOL    HW146634   0.469  11.992   7.990  0.0055  2.4310 -2.0709
43008SOL    HW246635   0.458  12.096   8.100  0.6676 -1.5084  1.9838
43009SOL     OW46636  12.665  14.072  11.925  0.1340 -0.8968  0.9585
43009SOL    HW146637  12.582  14.099  11.885 -0.2721 -0.8866  1.8056
43009SOL    HW246638  12.657  13.977  11.934  0.4442 -0.9675  0.5374
43010SOL     OW46639  13.381   7.939  11.406  0.6668 -0.4363  0.0064
43010SOL    HW146640  13.321   7.886  11.354  0.1593  0.7998 -0.7348
43010SOL    HW246641  13.466   7.929  11.362  0.2762  0.4655 -0.9944
43011SOL     OW46642  12.781   2.389   4.889  0.1406  0.1541  0.1881
43011SOL    HW146643  12.825   2.428   4.965  0.1868  0.4617  0.0041
43011SOL    HW246644  12.839   2.318   4.862 -1.2366 -1.9059  2.2114
43012SOL     OW46645  12.919   7.853   8.423 -0.0938 -0.3461 -0.8662
43012SOL    HW146646  12.992   7.914   8.413  1.0270 -1.4383  0.1747
43012SOL    HW246647  12.893   7.861   8.515  0.1677 -1.4697 -0.6664
43013SOL     OW46648   8.694  10.431  11.576  0.0447  0.0827  0.2655
43013SOL    HW146649   8.764  10.492  11.552  0.1844 -0.4631 -0.7704
43013SOL    HW246650   8.739  10.350  11.598 -0.2000  0.0845  0.8056
43014SOL     OW46651   3.099  12.049   2.300  0.4187  0.3838  0.4381
43014SOL    HW146652   3.046  11.975   2.329  0.0721  0.8866  1.0863
43014SOL    HW246653   3.124  12.026   2.210 -0.9771  0.1836  0.0761
43015SOL     OW46654   2.315  11.117   3.855  0.4981 -0.5124 -0.0197
43015SOL    HW146655   2.274  11.035   3.881 -0.4324 -0.2847 -0.7020
43015SOL    HW246656   2.408  11.104   3.872  0.1432 -0.9701  1.7821
43016SOL     OW46657   9.868   5.130   5.316 -0.2806 -0.0765  0.0323
43016SOL    HW146658   9.955   5.134   5.276 -0.0429  1.9313  0.6345
43016SOL    HW246659   9.881   5.076   5.394  0.7927  1.2454  0.8280
43017SOL     OW46660   3.089  13.424   6.075 -0.1242  0.0642 -0.5330
43017SOL    HW146661   3.153  13.395   6.140  0.8214 -2.9057 -2.5870
43017SOL    HW246662   3.009  13.440   6.125  1.1010 -0.0340  1.5789
43018SOL     OW46663  13.634  10.250   4.382  0.3009  0.5026 -0.4644
43018SOL    HW146664  13.705  10.252   4.446 -0.3750 -0.0929  0.3243
43018SOL    HW246665  13.679  10.254   4.297  1.3173 -0.4848 -0.0061
43019SOL     OW46666   0.835   4.212   4.095  0.2075  0.4420 -0.2623
43019SOL    HW146667   0.848   4.228   4.002 -0.2643 -1.4512 -0.7036
43019SOL    HW246668   0.879   4.128   4.111  0.1473  0.6620  1.1862
43020SOL     OW46669  10.094  13.657  11.479  0.5022 -0.1468 -0.4309
43020SOL    HW146670  10.099  13.595  11.406  0.0156 -1.2855  0.4617
43020SOL    HW246671  10.015  13.631  11.527  0.9814  0.3717  0.6670
43021SOL     OW46672  11.981  12.953   3.561 -0.5684 -0.4032  0.3003
43021SOL    HW146673  11.985  12.876   3.504  0.7210 -0.3456  0.2855
43021SOL    HW246674  11.964  12.918   3.648  0.6938 -0.7782  0.4088
43022SOL     OW46675   2.568  12.153   7.705 -0.0527  0.0951  0.2936
43022SOL    HW146676   2.501  12.090   7.677 -0.4336  0.2292  0.8721
43022SOL    HW246677   2.568  12.220   7.637  1.9769 -1.6441 -1.5529
43023SOL     OW46678  11.637   8.328   5.019  0.0512  0.0895  0.3649
43023SOL    HW146679  11.617   8.390   5.089 -1.9673  0.8163 -0.7637
43023SOL    HW246680  11.634   8.381   4.939 -1.3149 -1.3442 -0.5870
43024SOL     OW46681   2.136  13.478  11.451 -0.4524 -0.0479 -0.6619
43024SOL    HW146682   2.047  13.448  11.433 -1.4596  2.1960  0.2412
43024SOL    HW246683   2.170  13.507  11.366 -0.4001 -1.2603 -1.0749
43025SOL     OW46684  10.878  11.040  13.671  0.1092  0.4207  0.4323
43025SOL    HW146685  10.787  11.009  13.670  0.7172 -1.7965 -2.9666
43025SOL    HW246686  10.924  10.977  13.726 -0.1538  0.6529  0.9203
43026SOL     OW46687   2.386  11.955   6.508  0.0632  0.1370 -0.0332
43026SOL    HW146688   2.468  12.003   6.499 -1.2519  2.3874 -1.0942
43026SOL    HW246689   2.361  11.933   6.419 -0.1014 -1.3088  0.3430
43027SOL     OW46690  13.969   4.403  13.504  0.2047 -0.4534 -0.2965
43027SOL    HW146691  13.875   4.408  13.518  0.3125  2.6318 -0.0785
43027SOL    HW246692  14.001   4.491  13.522  2.9016 -0.9529 -2.0346
43028SOL     OW46693   1.662   4.803   3.441  0.5374  0.7138  0.1898
43028SOL    HW146694   1.597   4.791   3.510 -0.0886  0.3200 -0.4680
43028SOL    HW246695   1.715   4.877   3.472  1.2576 -0.4228  1.8359
43029SOL     OW46696   5.188   6.329  13.116  0.4881  0.2404 -0.3503
43029SOL    HW146697   5.160   6.332  13.024  0.7985  0.1803 -0.4505
43029SOL    HW246698   5.221   6.240  13.127  0.0944  0.1302 -0.0706
43030SOL     OW46699   5.760   6.438  12.842 -0.8471  0.0534 -0.5527
43030SOL    HW146700   5.803   6.390  12.771  1.7999 -0.0367  0.9922
43030SOL    HW246701   5.797   6.526  12.836  0.1664 -0.2007  1.2348
43031SOL     OW46702  10.751   1.934   1.879 -0.1025  0.0732  0.1459
43031SOL    HW146703  10.723   1.899   1.963 -0.2021  0.7586  0.3998
43031SOL    HW246704  10.727   2.026   1.882 -0.8825 -0.0720 -0.9573
43032SOL     OW46705  12.789  13.325   1.277 -0.9618 -0.8428  0.1462
43032SOL    HW146706  12.809  13.377   1.199  1.9016 -1.4245  0.3771
43032SOL    HW246707  12.833  13.371   1.349 -0.7297 -2.0770  0.8270
43033SOL     OW46708   3.952   6.568   8.944 -0.0831  0.0214 -0.0850
43033SOL    HW146709   3.875   6.563   8.887 -0.5652  0.4600  0.5137
43033SOL    HW246710   3.930   6.510   9.018  0.6856 -0.8294 -0.5040
43034SOL     OW46711   5.851  11.773   0.364 -0.2774 -0.2546  0.1869
43034SOL    HW146712   5.762  11.805   0.348 -0.5211 -0.5872  0.8466
43034SOL    HW246713   5.848  11.739   0.453  0.2425 -1.1855 -0.1395
43035SOL     OW46714  11.809  12.368  13.913 -0.1700  0.1362 -0.4852
43035SOL    HW146715  11.739  12.323  13.960 -0.3018 -1.1688 -1.8701
43035SOL    HW246716  11.804  12.334  13.823  2.3304 -0.1236 -0.5993
43036SOL     OW46717   5.613  12.797  13.793 -0.0064  0.4622 -0.0258
43036SOL    HW146718   5.526  12.757  13.797  0.4753 -0.6908 -0.6095
43036SOL    HW246719   5.599  12.880  13.747 -0.7057  0.0408 -0.5972
43037SOL     OW46720  12.898  12.591  12.934 -0.7969  0.0263 -0.0702
43037SOL    HW146721  12.926  12.601  12.843 -1.9047 -0.2875 -0.4688
43037SOL    HW246722  12.867  12.678  12.959  0.6693  0.4161  0.4301
43038SOL     OW46723   6.684   5.878  12.756 -0.3851  0.2720 -0.0629
43038SOL    HW146724   6.625   5.900  12.828  0.6956 -0.4001  1.0560
43038SOL    HW246725   6.772   5.891  12.791  0.1683 -0.2149 -1.2093
43039SOL     OW46726  14.091   6.398   7.498 -0.2718 -0.4487  0.7316
43039SOL    HW146727  14.132   6.318   7.531 -1.6815 -1.6971 -0.3941
43039SOL    HW246728  14.010   6.406   7.548  0.0689  0.5277  1.1363
43040SOL     OW46729   7.698  10.106   2.211 -0.5361  0.0168 -0.0507
43040SOL    HW146730   7.644  10.184   2.196 -0.3416  0.2608  0.4831
43040SOL    HW246731   7.759  10.105   2.137 -0.6001  0.3238 -0.1119
43041SOL     OW46732   8.767   8.672   1.123  0.0753 -0.1871 -0.2906
43041SOL    HW146733   8.765   8.767   1.111  0.3534 -0.2472 -0.8381
43041SOL    HW246734   8.745   8.637   1.037  0.8911 -0.6191 -0.3373
43042SOL     OW46735  12.930   7.648   9.725 -0.1727 -0.5681  0.0625
43042SOL    HW146736  12.882   7.568   9.706 -0.8598 -0.0740 -0.3104
43042SOL    HW246737  12.910   7.668   9.816  2.1106 -2.2398  1.0409
43043SOL     OW46738  11.864  13.856   1.935  0.3475  0.9294  0.2772
43043SOL    HW146739  11.919  13.849   1.857 -1.0837 -0.6197 -0.6438
43043SOL    HW246740  11.861  13.950   1.953  2.0627  1.1771 -0.4972
43044SOL     OW46741   8.003  10.401  11.520  0.1637 -0.3641 -0.0818
43044SOL    HW146742   8.047  10.473  11.473  1.4774 -0.5909  0.7518
43044SOL    HW246743   8.045  10.400  11.606 -1.5143 -0.6026  0.7666
43045SOL     OW46744  10.095   4.541   6.460  0.0961 -0.0043  0.2808
43045SOL    HW146745  10.060   4.621   6.499  0.4522 -0.4817  1.6444
43045SOL    HW246746  10.066   4.471   6.519 -1.5157 -1.0942 -1.6998
43046SOL     OW46747  10.819   1.346  13.188  0.9001  0.3356 -0.2256
43046SOL    HW146748  10.913   1.332  13.198  0.7980 -1.1390 -1.0397
43046SOL    HW246749  10.785   1.346  13.278  1.7183  1.4800  0.1155
43047SOL     OW46750   7.722   1.621  13.585 -0.2457 -0.0009 -0.2526
43047SOL    HW146751   7.648   1.645  13.529 -0.3601  1.6075  0.5516
43047SOL    HW246752   7.791   1.684  13.562  0.2179 -0.2761  0.3626
43048SOL     OW46753   1.510   2.564   3.592  0.0106  0.2134 -0.3030
43048SOL    HW146754   1.434   2.516   3.624 -0.9163  1.1662 -1.0212
43048SOL    HW246755   1.504   2.649   3.635  1.3629 -0.1089  0.5750
43049SOL     OW46756   8.928   2.319   3.434 -0.0740  0.1327  0.2558
43049SOL    HW146757   8.991   2.259   3.395 -0.0813 -0.2512  0.8308
43049SOL    HW246758   8.975   2.403   3.438 -0.4803  0.5181 -1.7005
43050SOL     OW46759   5.723   4.986  12.646  0.0438 -0.3669  0.0266
43050SOL    HW146760   5.708   5.008  12.738 -1.7453 -1.3403  0.0070
43050SOL    HW246761   5.814   5.011  12.631  0.8877 -1.5403  2.4914
43051SOL     OW46762   6.525   8.993   8.817  0.4674  0.3349 -0.6316
43051SOL    HW146763   6.530   9.025   8.907  1.1324  1.9334 -1.2068
43051SOL    HW246764   6.591   8.925   8.812  1.1033  0.8997 -0.1527
43052SOL     OW46765  12.353   4.174  13.620 -0.0189  0.9845  0.3031
43052SOL    HW146766  12.342   4.079  13.619  2.2812  0.6167 -1.9496
43052SOL    HW246767  12.385   4.193  13.709  1.0837 -0.6281  0.3022
43053SOL     OW46768  11.492  10.252   0.617  0.0691  0.5987  0.0632
43053SOL    HW146769  11.567  10.288   0.665  0.9738 -0.9687 -0.1071
43053SOL    HW246770  11.472  10.170   0.661 -0.9719  0.5506 -0.4616
43054SOL     OW46771   1.583   2.721   4.439 -0.3685  0.0446 -0.2517
43054SOL    HW146772   1.620   2.744   4.524 -0.0551  2.3266 -0.9482
43054SOL    HW246773   1.508   2.779   4.428 -1.0469 -0.9428 -1.1030
43055SOL     OW46774  10.037   7.681  13.505 -0.2072 -0.3634  0.0260
43055SOL    HW146775  10.035   7.622  13.580  0.4215  0.0494  0.3711
43055SOL    HW246776   9.962   7.654  13.452 -1.0569 -0.2398  1.1205
43056SOL     OW46777  11.377   8.187   5.572 -0.6344  0.3650  0.0062
43056SOL    HW146778  11.434   8.183   5.495 -2.1831  0.8345 -1.2076
43056SOL    HW246779  11.302   8.132   5.550 -0.4867 -0.6493  1.7794
43057SOL     OW46780   1.795   4.728   8.153  0.0086  0.0426 -0.1198
43057SOL    HW146781   1.816   4.691   8.067 -1.6325  1.2643 -1.1209
43057SOL    HW246782   1.880   4.741   8.195  1.0092  0.9472 -2.2468
43058SOL     OW46783   0.125  10.758   9.851  0.0848  0.1799  0.3821
43058SOL    HW146784   0.052  10.762   9.789  0.4520 -0.1652 -0.0801
43058SOL    HW246785   0.083  10.753   9.937 -0.4321  1.7008  0.2466
43059SOL     OW46786   3.793   2.614  11.391 -0.3257  0.8483  0.2580
43059SOL    HW146787   3.732   2.571  11.451  0.6031  0.0604  0.6725
43059SOL    HW246788   3.769   2.580  11.304  1.6097 -2.1757  0.7479
43060SOL     OW46789   9.844   4.185   8.407 -0.4574  0.7959  0.3750
43060SOL    HW146790   9.836   4.271   8.366 -1.6288  0.6230  0.2000
43060SOL    HW246791   9.933   4.156   8.387 -0.2406  1.7241 -0.0345
43061SOL     OW46792  10.170   9.817  13.181 -0.3665  0.5310  0.2683
43061SOL    HW146793  10.110   9.747  13.155 -0.1558 -0.0607  1.3328
43061SOL    HW246794  10.206   9.850  13.098  0.0042 -1.0461 -0.2182
43062SOL     OW46795  11.127  13.003   0.003 -0.0810 -0.2711 -0.3271
43062SOL    HW146796  11.164  12.950   0.074  0.2834  1.3461  0.7602
43062SOL    HW246797  11.145  12.953  -0.076  1.0924 -1.3110  0.5511
43063SOL     OW46798   0.987   5.175   1.444 -0.0251 -0.0195 -0.6350
43063SOL    HW146799   0.934   5.096   1.443 -0.7064  0.4250 -0.7475
43063SOL    HW246800   1.040   5.170   1.364 -0.0900 -0.3461 -0.6563
43064SOL     OW46801  10.013   2.417   3.711  0.4836 -0.0343 -0.4698
43064SOL    HW146802  10.082   2.478   3.686  2.0057 -2.4947 -2.8430
43064SOL    HW246803   9.934   2.451   3.668  0.9083  1.0941 -0.3982
43065SOL     OW46804  10.264  12.568   9.912  0.0270 -0.1246 -0.0100
43065SOL    HW146805  10.337  12.509   9.932 -0.4427 -0.7163  0.0186
43065SOL    HW246806  10.293  12.618   9.836  0.8469  0.3611  0.6081
43066SOL     OW46807  12.446  13.847   0.143 -0.3309  0.3376  0.5664
43066SOL    HW146808  12.438  13.942   0.155 -0.8302  0.6272 -1.6826
43066SOL    HW246809  12.399  13.810   0.218 -2.9937  1.9247 -0.1778
43067SOL     OW46810  13.811   5.038   2.780  0.3177  0.2218  0.3302
43067SOL    HW146811  13.889   4.987   2.758  0.1249  0.0050  0.1460
43067SOL    HW246812  13.751   5.024   2.707  0.3610  0.9226  0.1541
43068SOL     OW46813  12.420   1.088  11.359  0.2598 -0.5527  0.8228
43068SOL    HW146814  12.479   1.071  11.432  0.4215 -1.2652  0.5313
43068SOL    HW246815  12.339   1.044  11.383 -0.3746  0.9062  1.4878
43069SOL     OW46816   3.675   2.376  12.658  0.0958  0.1196 -0.1401
43069SOL    HW146817   3.650   2.438  12.727  1.7192  0.3426  0.2962
43069SOL    HW246818   3.660   2.290  12.696  2.2822  0.2002  1.1118
43070SOL     OW46819  13.892   1.249   3.540 -0.0552 -0.7018 -0.3505
43070SOL    HW146820  13.939   1.332   3.537  0.9790 -1.2044  0.8677
43070SOL    HW246821  13.945   1.194   3.598 -2.8330 -0.8699  2.2803
43071SOL     OW46822   7.916   1.331   5.096 -0.3178 -1.0600  0.1706
43071SOL    HW146823   7.840   1.373   5.135 -0.0675 -0.6409  0.2220
43071SOL    HW246824   7.893   1.238   5.090 -1.2521 -0.7817 -0.8196
43072SOL     OW46825   1.402   7.287   8.348  0.0095  0.6810  0.6340
43072SOL    HW146826   1.373   7.379   8.352 -0.9657  0.3419  1.9133
43072SOL    HW246827   1.468   7.280   8.416  0.6877  0.6271 -0.0240
43073SOL     OW46828  11.013   0.134  11.250  0.4461 -0.1909 -0.3648
43073SOL    HW146829  10.970   0.051  11.226  2.8186 -1.5829 -0.1400
43073SOL    HW246830  11.022   0.181  11.168  1.3935 -1.3813 -0.9851
43074SOL     OW46831   5.136   2.909   8.869  0.2068 -0.2165  0.2806
43074SOL    HW146832   5.154   2.830   8.919 -0.5408  0.0395  0.9660
43074SOL    HW246833   5.219   2.928   8.824  1.2352  0.1009  2.1984
43075SOL     OW46834   8.667  10.736   0.815  0.2994  0.2859  0.0909
43075SOL    HW146835   8.582  10.705   0.782  0.2734  1.8993 -1.5350
43075SOL    HW246836   8.675  10.825   0.779  3.2015 -0.2393 -0.8014
43076SOL     OW46837   5.964   6.440   5.972 -0.1994 -0.2464  0.2979
43076SOL    HW146838   5.931   6.350   5.972  0.2170 -0.4274 -1.0531
43076SOL    HW246839   5.897   6.491   5.926 -0.1320  0.0095  0.4802
43077SOL     OW46840  10.233   2.069  10.830  0.2350 -0.2261  0.0572
43077SOL    HW146841  10.149   2.040  10.795 -1.9657  0.4554  4.2168
43077SOL    HW246842  10.226   2.165  10.832  1.4354 -0.1204 -0.1855
43078SOL     OW46843  13.420   4.726   4.200 -0.2915  0.0315 -0.1716
43078SOL    HW146844  13.380   4.744   4.285 -1.2287  2.2552 -1.0144
43078SOL    HW246845  13.346   4.707   4.142  0.3885 -2.3889 -0.3669
43079SOL     OW46846   9.001   2.625  12.646 -0.1251 -0.7830 -0.4503
43079SOL    HW146847   9.034   2.715  12.652 -2.0859 -0.0865  0.8377
43079SOL    HW246848   9.061   2.574  12.701  0.3425 -0.0590 -0.2657
43080SOL     OW46849  12.907  10.900  12.359  0.2784  0.4725  0.4240
43080SOL    HW146850  12.828  10.865  12.399 -0.6833  1.6087 -0.4451
43080SOL    HW246851  12.978  10.868  12.416 -0.9370  1.1202  2.4065
43081SOL     OW46852  10.869  11.456  10.790 -0.9427  0.0518  0.1168
43081SOL    HW146853  10.807  11.384  10.801  0.4982 -1.0031  1.9609
43081SOL    HW246854  10.891  11.483  10.879  3.6810 -1.8774 -0.1570
43082SOL     OW46855  11.888  12.368   4.456 -0.4142  0.1419 -0.8450
43082SOL    HW146856  11.979  12.346   4.474 -0.7389  0.1983  1.0599
43082SOL    HW246857  11.860  12.419   4.532 -2.6431 -1.6884 -0.3244
43083SOL     OW46858   4.055  10.410   1.185  0.5476 -0.1403 -0.0699
43083SOL    HW146859   4.079  10.318   1.181 -0.0309 -0.3034  0.1093
43083SOL    HW246860   4.138  10.456   1.196  0.7652 -0.7125  0.8367
43084SOL     OW46861   5.911   4.640   2.209  0.7254 -0.2636  0.4105
43084SOL    HW146862   5.853   4.703   2.166  1.7114  0.2334 -0.2362
43084SOL    HW246863   5.909   4.664   2.301  1.2265  0.8511  0.1497
43085SOL     OW46864  11.032  11.885  13.661  0.6047 -0.2243  0.0628
43085SOL    HW146865  11.067  11.881  13.751  1.2026 -1.3596 -0.1894
43085SOL    HW246866  11.094  11.833  13.610 -0.4838 -0.7713 -0.7434
43086SOL     OW46867  10.113   9.609   0.504  0.4165 -0.0617 -0.3526
43086SOL    HW146868  10.060   9.638   0.578  0.6844  2.0094 -0.8849
43086SOL    HW246869  10.203   9.629   0.530  0.4582  1.3609 -1.4561
43087SOL     OW46870  11.151   2.287   5.401  0.2784 -0.0020 -0.4556
43087SOL    HW146871  11.190   2.234   5.332 -0.9581 -0.6730 -0.6605
43087SOL    HW246872  11.077   2.235   5.433  0.1010  0.8298  0.5468
43088SOL     OW46873   8.305  12.204   7.447 -0.2016  0.0762 -0.5236
43088SOL    HW146874   8.291  12.184   7.540 -1.4621 -1.5155 -1.0067
43088SOL    HW246875   8.224  12.246   7.418  1.3749  3.7049 -0.2228
43089SOL     OW46876  10.834   0.641   3.071 -0.4088  0.1237  0.3051
43089SOL    HW146877  10.839   0.707   3.140 -1.3354  1.5971 -0.9651
43089SOL    HW246878  10.746   0.605   3.078 -0.5260  0.3223 -0.1309
43090SOL     OW46879  12.665   2.644  12.828 -0.3069  0.0458 -0.1028
43090SOL    HW146880  12.575   2.673  12.815 -0.8565 -1.5789 -0.2164
43090SOL    HW246881  12.657   2.559  12.870  1.2001  0.0680  0.2988
43091SOL     OW46882   0.582   5.875   0.129  0.0996  0.7707  0.6084
43091SOL    HW146883   0.647   5.816   0.090  0.1756  0.9170  0.5107
43091SOL    HW246884   0.635   5.944   0.170 -0.0145  1.4638 -0.3896
43092SOL     OW46885  11.580   5.140   5.355  0.3305 -0.0570 -0.0719
43092SOL    HW146886  11.624   5.185   5.283  0.2432  0.9969  0.5188
43092SOL    HW246887  11.620   5.176   5.434  0.2076 -0.9760  0.4236
43093SOL     OW46888   6.252   7.749   4.099 -0.1275 -0.1836  0.2342
43093SOL    HW146889   6.213   7.815   4.156  1.0083 -0.2020  1.0775
43093SOL    HW246890   6.235   7.666   4.143  1.3370 -0.1426  0.9442
43094SOL     OW46891  10.110   6.072   3.440 -0.0344  0.1731  0.0288
43094SOL    HW146892  10.086   6.047   3.529 -1.9304  0.2407 -0.4155
43094SOL    HW246893  10.124   6.167   3.445  0.9783  0.0085  0.4652
43095SOL     OW46894   4.275   2.065   6.738  0.1370  0.0010  0.2215
43095SOL    HW146895   4.246   1.987   6.691 -0.9691  0.2640  0.4486
43095SOL    HW246896   4.369   2.051   6.750 -0.2000 -1.7665  1.1464
43096SOL     OW46897  12.600   6.854  10.031  0.2571 -0.5552  0.2123
43096SOL    HW146898  12.693   6.860  10.054  0.8093 -2.7654 -1.0681
43096SOL    HW246899  12.576   6.942  10.002  1.4127  0.5121  2.3203
43097SOL     OW46900  11.315   3.874   3.865  0.1566  0.4301 -0.4717
43097SOL    HW146901  11.321   3.800   3.926 -0.1142 -0.8362 -1.9190
43097SOL    HW246902  11.397   3.871   3.816 -0.1087  0.7032 -0.9445
43098SOL     OW46903   6.411   9.765  11.401 -0.0840 -0.6916 -0.3587
43098SOL    HW146904   6.504   9.788  11.401 -0.3996  0.6526  0.6039
43098SOL    HW246905   6.382   9.780  11.491 -1.2637 -1.0075 -0.6657
43099SOL     OW46906   1.686  13.164  12.541 -0.1103 -0.5703 -0.1754
43099SOL    HW146907   1.624  13.139  12.473  0.8600 -0.7281 -1.0271
43099SOL    HW246908   1.652  13.247  12.575 -1.1701 -1.0105 -0.1131
43100SOL     OW46909   3.557   4.437  12.875 -0.4514  0.1200 -0.6946
43100SOL    HW146910   3.563   4.366  12.811 -1.0310 -0.3807 -0.2089
43100SOL    HW246911   3.581   4.516  12.827 -0.4293 -0.3164 -1.4025
43101SOL     OW46912   6.223   3.979   3.957 -0.1046  0.1016  0.2988
43101SOL    HW146913   6.280   3.910   3.923 -1.7199 -0.1837 -2.1333
43101SOL    HW246914   6.135   3.941   3.952 -0.8414  1.6570  0.7789
43102SOL     OW46915  13.962  10.784   2.673 -0.1105  0.2358 -0.3876
43102SOL    HW146916  13.998  10.852   2.616 -0.6378  0.3573 -0.5824
43102SOL    HW246917  13.894  10.828   2.723  1.6806  0.6600  1.8577
43103SOL     OW46918   7.125   0.329   0.056  0.2685 -0.0532  0.1343
43103SOL    HW146919   7.137   0.316  -0.038  2.5871 -1.6173  0.5764
43103SOL    HW246920   7.084   0.248   0.087  0.5201 -0.0005  0.6196
43104SOL     OW46921  10.673   9.237   8.340  0.4543 -0.3720 -0.3507
43104SOL    HW146922  10.660   9.325   8.306  0.0475 -0.0531  0.6055
43104SOL    HW246923  10.767   9.220   8.326  0.3287 -0.2141 -1.4996
43105SOL     OW46924   6.091  13.172   8.525 -0.0229 -0.1222  0.1966
43105SOL    HW146925   6.028  13.228   8.480  0.3275 -0.7302 -1.1025
43105SOL    HW246926   6.167  13.229   8.541  0.6670 -0.3552 -1.8559
43106SOL     OW46927   4.405   8.470   2.758  0.3408 -0.5409  0.8857
43106SOL    HW146928   4.329   8.520   2.727  1.8612  2.5428  1.7907
43106SOL    HW246929   4.396   8.385   2.714 -1.4186  1.0837 -2.3057
43107SOL     OW46930   3.289   5.223   7.947  0.0757  0.6787 -0.0415
43107SOL    HW146931   3.327   5.186   7.867  0.6141  0.8807  0.1214
43107SOL    HW246932   3.363   5.238   8.005 -0.3520  0.1268  0.6745
43108SOL     OW46933   3.750   7.238  12.409 -0.3131 -0.1799  0.0195
43108SOL    HW146934   3.672   7.210  12.456  0.7347 -1.0141  1.3373
43108SOL    HW246935   3.784   7.312  12.460 -0.3071  0.2793 -0.6304
43109SOL     OW46936  12.767   3.592   3.748  0.1898 -0.2381 -0.1945
43109SOL    HW146937  12.709   3.566   3.676 -0.3039 -2.5224  0.9057
43109SOL    HW246938  12.855   3.568   3.718 -0.1337 -2.2645  0.3140
43110SOL     OW46939  12.115   0.070  12.212 -0.0070 -0.3480  0.2530
43110SOL    HW146940  12.159  -0.005  12.172  0.3531  0.4830 -0.9741
43110SOL    HW246941  12.169   0.091  12.288  0.8948 -0.2679 -0.3912
43111SOL     OW46942  11.851  12.412   7.459 -0.7388  0.2973  0.3158
43111SOL    HW146943  11.760  12.403   7.488 -0.2352 -1.7004  1.4326
43111SOL    HW246944  11.884  12.323   7.454 -0.0066  0.5859 -4.2312
43112SOL     OW46945   6.284   0.828   9.332  0.1612 -0.0278  0.1299
43112SOL    HW146946   6.248   0.832   9.243  1.9342  0.0351 -0.6342
43112SOL    HW246947   6.373   0.864   9.323 -0.0177  1.0360  2.1606
43113SOL     OW46948   0.732   3.488  10.620 -0.2717  0.4535  0.0694
43113SOL    HW146949   0.810   3.533  10.652 -1.3739  2.6686 -0.1502
43113SOL    HW246950   0.673   3.486  10.695 -0.2597 -0.6316  0.0592
43114SOL     OW46951   7.675  12.700   2.176  0.2858  0.2132 -0.5284
43114SOL    HW146952   7.744  12.746   2.128 -1.0761  1.8996 -0.9530
43114SOL    HW246953   7.639  12.639   2.111  2.6918 -2.2791  0.2909
43115SOL     OW46954  10.635   1.974  12.012 -0.0897  0.4078  0.5709
43115SOL    HW146955  10.699   2.020  12.067 -0.0064 -1.1216  1.8154
43115SOL    HW246956  10.656   1.881  12.024 -1.8080 -0.0694  0.0674
43116SOL     OW46957   9.340   3.077  11.254  0.4239  0.4295 -0.3431
43116SOL    HW146958   9.256   3.032  11.255  1.2296 -1.3565  3.0430
43116SOL    HW246959   9.324   3.156  11.202 -3.4973  0.4694  0.5657
43117SOL     OW46960   1.644  11.170   9.056  0.1779  0.3592 -0.2517
43117SOL    HW146961   1.697  11.152   9.134 -1.2726  1.5369  1.0691
43117SOL    HW246962   1.554  11.154   9.085 -0.2477 -1.9449 -2.5268
43118SOL     OW46963   8.789   5.976   0.103 -0.2004  0.3621 -0.1883
43118SOL    HW146964   8.877   5.993   0.137 -0.5183 -0.8423  1.3151
43118SOL    HW246965   8.745   6.061   0.109  0.7904  0.9385 -0.7937
43119SOL     OW46966  11.256  13.422  11.114 -0.4429  0.3649  0.3906
43119SOL    HW146967  11.346  13.391  11.119 -0.4734  0.3881  1.1253
43119SOL    HW246968  11.203  13.343  11.112 -0.3810  0.3177 -1.1188
43120SOL     OW46969  10.805   1.393  14.053  0.1624 -0.1969 -0.0757
43120SOL    HW146970  10.804   1.488  14.044 -0.1475 -0.0701  1.1126
43120SOL    HW246971  10.859   1.377  14.130 -1.6687 -0.8262  1.1448
43121SOL     OW46972   8.873   1.983  10.138 -0.1238 -0.1915  0.4317
43121SOL    HW146973   8.967   1.975  10.120 -0.3831 -1.4165 -0.5640
43121SOL    HW246974   8.832   1.966  10.053 -1.2422  0.7904  0.7553
43122SOL     OW46975   9.720   9.399  13.041  0.2251  0.2937  0.1372
43122SOL    HW146976   9.739   9.332  13.106  1.2241  2.0253  1.7035
43122SOL    HW246977   9.657   9.457  13.084  1.7096  2.0686  0.0123
43123SOL     OW46978   4.842  12.874  13.720  0.2972 -0.2219  0.5294
43123SOL    HW146979   4.924  12.867  13.672  0.2537  0.3695  0.3608
43123SOL    HW246980   4.860  12.835  13.805  1.3019  1.5366  1.1659
43124SOL     OW46981   2.863   8.494   0.797  0.3748 -0.2347  0.0838
43124SOL    HW146982   2.771   8.511   0.774  0.2854  1.0279  1.2705
43124SOL    HW246983   2.912   8.560   0.749  0.4475  0.5075  1.1468
43125SOL     OW46984   5.192   9.920   5.159 -0.2203 -0.3178 -0.1462
43125SOL    HW146985   5.205   9.850   5.095  3.5046 -0.9501  1.0064
43125SOL    HW246986   5.190  10.000   5.108 -0.9685 -1.0251 -1.2607
43126SOL     OW46987   5.701   1.729   7.721 -0.1342 -0.6677  0.4340
43126SOL    HW146988   5.719   1.670   7.648  1.2295 -1.5712  1.4270
43126SOL    HW246989   5.693   1.671   7.797  1.8883  0.3966  1.5572
43127SOL     OW46990   4.899  11.857  11.539  0.4075  0.3848 -0.4552
43127SOL    HW146991   4.863  11.946  11.536 -0.4383  0.0344 -0.8481
43127SOL    HW246992   4.988  11.869  11.573 -0.4639  1.1358  1.6893
43128SOL     OW46993  11.718   9.327  11.358 -0.7835 -0.6954 -0.5249
43128SOL    HW146994  11.788   9.325  11.423  0.0779 -0.7620 -1.4378
43128SOL    HW246995  11.673   9.244  11.369 -0.7866 -0.6215  0.1154
43129SOL     OW46996   5.254   8.294   1.304 -0.2744  0.1708  0.5992
43129SOL    HW146997   5.193   8.230   1.341 -1.5821 -0.1414 -1.8917
43129SOL    HW246998   5.199   8.364   1.270  0.9784  1.3579  0.9053
43130SOL     OW46999   3.682   8.555  12.574  0.3921  0.2586  0.3302
43130SOL    HW147000   3.742   8.528  12.504 -1.1768  2.7481 -2.2249
43130SOL    HW247001   3.696   8.650  12.581  0.0544  0.1727  3.0565
43131SOL     OW47002   3.189   1.175   0.992  0.2837 -0.1326 -0.2242
43131SOL    HW147003   3.269   1.153   0.945  1.6387  2.4098  0.7478
43131SOL    HW247004   3.124   1.190   0.923  1.0053 -0.8303 -1.0698
43132SOL     OW47005  13.599   2.633  11.891  0.0481 -0.0427 -0.0025
43132SOL    HW147006  13.644   2.639  11.807 -0.0648 -0.5856 -0.1087
43132SOL    HW247007  13.525   2.574  11.874  0.1591 -0.3411  0.5286
43133SOL     OW47008   8.560  10.872   2.032 -0.6861  0.4037 -0.5736
43133SOL    HW147009   8.470  10.896   2.050 -0.4743  0.4206  0.5417
43133SOL    HW247010   8.588  10.933   1.964 -1.8037 -0.2455 -1.6370
43134SOL     OW47011  12.872   2.213   2.486  0.1833 -0.0895 -0.3307
43134SOL    HW147012  12.810   2.278   2.520 -2.0059 -1.8569 -0.6696
43134SOL    HW247013  12.923   2.186   2.562  1.3869  2.1920 -0.2487
43135SOL     OW47014   7.204   8.409   3.900 -0.2459 -0.3638  0.8923
43135SOL    HW147015   7.216   8.412   3.806 -0.3028 -0.2945  0.8873
43135SOL    HW247016   7.263   8.476   3.934  0.2118 -0.7897  0.9496
43136SOL     OW47017   4.755   4.693   8.031  0.1784 -0.2094 -0.1689
43136SOL    HW147018   4.756   4.700   7.935 -0.0278 -0.1631 -0.1676
43136SOL    HW247019   4.748   4.783   8.062  1.4383 -0.1230 -0.0856
43137SOL     OW47020  10.748   7.108   7.331 -0.0859  0.5778  0.0868
43137SOL    HW147021  10.841   7.125   7.347  0.0625 -1.0976  1.3346
43137SOL    HW247022  10.733   7.021   7.368 -2.0620  0.6166 -0.4972
43138SOL     OW47023   2.722   2.570  13.431 -0.0191  0.0369 -0.2258
43138SOL    HW147024   2.685   2.523  13.506 -0.1315 -3.3793 -2.2205
43138SOL    HW247025   2.814   2.541  13.428 -0.1464 -0.3091 -1.6462
43139SOL     OW47026   4.707  11.415  12.318 -0.1221  0.3977 -0.1395
43139SOL    HW147027   4.768  11.487  12.301 -1.2970  1.3298 -0.4889
43139SOL    HW247028   4.633  11.431  12.260 -1.0636 -0.2745  0.8336
43140SOL     OW47029   4.983  12.346  10.228  0.3749  0.4236  0.3685
43140SOL    HW147030   5.033  12.427  10.229 -1.7633  1.8296  2.9717
43140SOL    HW247031   4.893  12.373  10.214 -0.0716 -1.8919 -2.3206
43141SOL     OW47032  13.154   3.398   3.334 -0.1754 -0.2507 -0.6102
43141SOL    HW147033  13.067   3.386   3.373 -0.8863  1.6034 -1.4801
43141SOL    HW247034  13.152   3.346   3.254  0.2840 -1.8184  0.3470
43142SOL     OW47035   0.105   3.485   2.043 -0.3190  0.7827  0.5910
43142SOL    HW147036   0.146   3.406   2.077  1.4709  1.6378  0.5407
43142SOL    HW247037   0.178   3.542   2.020 -1.5553  2.6184  0.9876
43143SOL     OW47038   5.799   2.059   3.776 -0.1331  0.2809 -0.2575
43143SOL    HW147039   5.792   2.105   3.693 -2.2088  2.2343  0.9128
43143SOL    HW247040   5.844   2.120   3.834  0.5261 -0.7234  0.3373
43144SOL     OW47041   0.480  10.944   9.178 -0.2087  0.0079 -0.3080
43144SOL    HW147042   0.414  10.987   9.233  1.0950 -0.0024  1.3552
43144SOL    HW247043   0.513  11.014   9.122  0.4865  0.7691  0.9940
43145SOL     OW47044   5.858   7.369   4.557 -0.2996 -0.4815 -0.3290
43145SOL    HW147045   5.873   7.426   4.481  0.3762  0.1045  0.2286
43145SOL    HW247046   5.816   7.425   4.622  0.4816 -0.5745  0.2731
43146SOL     OW47047  13.509   7.766  11.870  0.3644 -0.7359  0.2360
43146SOL    HW147048  13.456   7.695  11.836 -0.4094  0.8810 -2.1700
43146SOL    HW247049  13.445   7.827  11.908  0.8629 -0.5448  0.7843
43147SOL     OW47050  10.647   1.379   4.217 -0.0742 -0.0726 -0.3053
43147SOL    HW147051  10.660   1.289   4.247  1.2218  0.2244  0.0561
43147SOL    HW247052  10.588   1.418   4.282  1.4996  0.1094  1.0680
43148SOL     OW47053   9.721   1.635   1.037 -0.3307  0.7688  0.1777
43148SOL    HW147054   9.742   1.578   0.963  1.2467  1.7009 -0.1417
43148SOL    HW247055   9.625   1.630   1.045 -0.3281 -0.9932 -0.5542
43149SOL     OW47056   1.296   6.547   9.899 -0.3468  0.3831  0.2219
43149SOL    HW147057   1.309   6.635   9.935  1.9260  0.5724 -0.8291
43149SOL    HW247058   1.305   6.558   9.804  0.3681 -1.0147  0.0897
43150SOL     OW47059   2.338   4.151  12.232  0.0999 -0.5583  0.1698
43150SOL    HW147060   2.390   4.231  12.239 -1.0589  0.0951  1.9897
43150SOL    HW247061   2.283   4.166  12.154  0.3085  0.1554  0.1478
43151SOL     OW47062   5.017   3.054   8.458 -0.3534 -0.7083  0.0032
43151SOL    HW147063   5.032   3.104   8.378  0.8232  1.7124  1.6319
43151SOL    HW247064   5.099   3.006   8.472 -0.3767 -0.7458  0.0119
43152SOL     OW47065   0.883   7.101  10.299 -0.0744 -0.8407 -0.1799
43152SOL    HW147066   0.921   7.023  10.258  1.2898 -0.1166 -0.3451
43152SOL    HW247067   0.959   7.152  10.328 -0.9445  0.4249 -0.0601
43153SOL     OW47068  12.773  10.267   0.003  0.0408 -0.3248  0.0675
43153SOL    HW147069  12.848  10.326  -0.003  0.5503 -0.9461  0.2814
43153SOL    HW247070  12.699  10.320  -0.027  1.0697 -0.7032 -3.6222
43154SOL     OW47071  12.860   2.191   5.971  0.1592 -0.2616  0.0745
43154SOL    HW147072  12.890   2.113   6.019 -1.7346 -1.5870 -0.7249
43154SOL    HW247073  12.919   2.198   5.896 -0.3745 -1.7327 -0.5245
43155SOL     OW47074  13.914   8.321   7.276  0.2216  0.1505  0.6730
43155SOL    HW147075  13.977   8.390   7.255  1.0459 -1.2529 -1.8642
43155SOL    HW247076  13.960   8.239   7.254 -2.6879 -0.9113 -2.0786
43156SOL     OW47077   6.704   9.843  11.066 -0.1261  0.2068 -0.4187
43156SOL    HW147078   6.616   9.821  11.035  0.7047 -2.1963 -1.3097
43156SOL    HW247079   6.707   9.810  11.156 -0.7162  2.1167  0.3602
43157SOL     OW47080   6.854  13.616   2.232  0.3092  0.2749 -0.2693
43157SOL    HW147081   6.870  13.578   2.319 -2.5060 -2.0917 -0.6287
43157SOL    HW247082   6.879  13.547   2.171  2.0034  1.8149 -1.4188
43158SOL     OW47083  12.817  10.904   2.554  0.5348  0.4834 -0.0307
43158SOL    HW147084  12.778  10.817   2.550  2.0082 -0.1785 -2.6931
43158SOL    HW247085  12.779  10.945   2.632 -2.3693 -1.4753 -0.2999
43159SOL     OW47086   2.139   8.954  10.379  0.0638 -0.1913  0.3852
43159SOL    HW147087   2.122   8.860  10.376 -0.4180 -0.1133  0.5086
43159SOL    HW247088   2.213   8.967  10.320 -0.9265 -0.4173 -0.9626
43160SOL     OW47089   7.078  11.813   7.877  0.0627  0.3789 -0.3075
43160SOL    HW147090   7.170  11.832   7.898 -0.2681  1.8566 -0.1084
43160SOL    HW247091   7.071  11.830   7.783  0.4071 -1.5839 -0.7376
43161SOL     OW47092   0.139   9.168  10.312  0.0326 -0.4033 -0.1521
43161SOL    HW147093   0.100   9.108  10.375  1.3402 -0.9581  0.1677
43161SOL    HW247094   0.226   9.132  10.296  0.3758  0.7191 -0.9265
43162SOL     OW47095  13.574  10.932  12.837  0.2240 -0.3027 -0.0128
43162SOL    HW147096  13.549  10.840  12.834  0.3119 -0.3743  1.2317
43162SOL    HW247097  13.654  10.936  12.783 -1.0148 -0.5024 -1.9859
43163SOL     OW47098   5.286   0.616   9.484 -0.0402 -0.2561 -0.2238
43163SOL    HW147099   5.236   0.629   9.565  0.1651  0.6509 -0.2292
43163SOL    HW247100   5.365   0.570   9.512  0.1547  0.2920  0.1364
43164SOL     OW47101   4.758   1.059   3.549  0.2620 -0.3979 -0.1877
43164SOL    HW147102   4.827   0.992   3.549 -0.8976 -1.7585  2.0750
43164SOL    HW247103   4.789   1.125   3.611  0.4340  0.0142 -0.7182
43165SOL     OW47104   3.513   5.511  10.117 -0.1770  0.6496  0.2437
43165SOL    HW147105   3.588   5.452  10.118  0.5192  1.5064  1.6395
43165SOL    HW247106   3.438   5.455  10.139  0.3854  0.1676  0.9915
43166SOL     OW47107  13.842   8.511   3.969  0.0406  0.3417 -0.5565
43166SOL    HW147108  13.904   8.583   3.982 -0.3368  0.4977  0.4825
43166SOL    HW247109  13.861   8.479   3.881  0.5239  1.4143 -0.8643
43167SOL     OW47110  10.807  13.484   7.139  0.2856 -0.0949 -0.2040
43167SOL    HW147111  10.767  13.529   7.213 -0.0864 -2.1178  0.8828
43167SOL    HW247112  10.901  13.491   7.155  0.1925 -1.8058  1.3151
43168SOL     OW47113   3.919   3.795   5.505 -0.1247  0.1632  0.7341
43168SOL    HW147114   3.977   3.854   5.457 -0.6143  0.3341  0.3438
43168SOL    HW247115   3.920   3.714   5.453  1.7461 -0.7383  2.0684
43169SOL     OW47116   1.952   1.230  10.307  0.1788  0.2494 -0.2561
43169SOL    HW147117   1.899   1.310  10.310 -0.2214  0.0816 -1.8301
43169SOL    HW247118   1.990   1.223  10.395 -0.2589  1.8288  0.0937
43170SOL     OW47119   6.063  14.018   6.922  0.2622  0.9389  0.2061
43170SOL    HW147120   6.148  14.049   6.954  0.5231  0.5755 -0.1173
43170SOL    HW247121   5.999  14.070   6.970  0.6271  0.1889  1.5829
43171SOL     OW47122   5.338   4.474   9.667  0.3875  0.2962 -0.7526
43171SOL    HW147123   5.349   4.527   9.588 -0.6792  0.3826 -0.8628
43171SOL    HW247124   5.278   4.404   9.641  0.8341 -0.2796 -0.2834
43172SOL     OW47125   5.747  10.816  10.292  0.7843  0.3161  1.0776
43172SOL    HW147126   5.842  10.829  10.287  0.7577  1.4474  2.6550
43172SOL    HW247127   5.711  10.905  10.294 -0.3776 -0.0917 -0.1388
43173SOL     OW47128   2.644   0.690  12.072 -0.5489  0.1566  0.7846
43173SOL    HW147129   2.721   0.646  12.109 -1.4450 -0.9008  1.4715
43173SOL    HW247130   2.652   0.781  12.099  1.6550  0.5989 -1.1344
43174SOL     OW47131  12.775   7.807  11.568 -0.4978  0.0875 -0.0549
43174SOL    HW147132  12.700   7.853  11.531  0.0946  2.0603  1.0359
43174SOL    HW247133  12.737   7.747  11.632 -1.1808  2.7691  2.2864
43175SOL     OW47134   7.793  13.233  12.543  0.1231 -0.3338 -0.4987
43175SOL    HW147135   7.849  13.165  12.506  1.7255  0.3908  0.4928
43175SOL    HW247136   7.852  13.288  12.595 -1.3510  1.0281 -0.1673
43176SOL     OW47137  12.268   4.651   0.640 -0.3416  0.5144  0.2893
43176SOL    HW147138  12.333   4.585   0.615  1.0052  2.1873 -0.9082
43176SOL    HW247139  12.209   4.605   0.699  2.0412 -1.0792  1.6325
43177SOL     OW47140  10.436  10.471   1.154 -0.3873  0.0460 -0.2508
43177SOL    HW147141  10.526  10.481   1.184 -0.1781 -0.3292 -0.7266
43177SOL    HW247142  10.421  10.376   1.154 -1.4097  0.1503  1.5883
43178SOL     OW47143   0.971   8.915   0.506  0.6509  0.0437  0.8191
43178SOL    HW147144   0.904   8.981   0.487 -0.6591 -1.4053  0.1876
43178SOL    HW247145   1.004   8.940   0.592  0.6541  1.8653  0.3446
43179SOL     OW47146   8.925   4.319  11.039  0.1588 -0.0816 -0.0850
43179SOL    HW147147   8.969   4.383  10.983  1.4807  0.3941  1.3944
43179SOL    HW247148   8.982   4.243  11.037 -1.1512 -1.0805 -1.4313
43180SOL     OW47149  12.493   9.298   1.076  0.1290  0.4883  0.1607
43180SOL    HW147150  12.464   9.299   1.167 -0.2391  0.7930  0.0394
43180SOL    HW247151  12.506   9.390   1.053  1.2428  0.3620  0.2276
43181SOL     OW47152   2.050   5.850   3.545 -0.0001  0.2993 -0.4752
43181SOL    HW147153   2.033   5.785   3.476 -0.5045  0.5554 -0.5981
43181SOL    HW247154   1.998   5.819   3.619  0.8249 -0.1762 -0.0778
43182SOL     OW47155  13.258   6.783  12.578 -0.2437  0.6320 -0.0834
43182SOL    HW147156  13.260   6.867  12.623  0.7406  0.2325  0.6606
43182SOL    HW247157  13.228   6.721  12.645 -1.1271  0.4100 -0.6710
43183SOL     OW47158   1.834  11.088   3.059 -0.3290  0.1458  0.8405
43183SOL    HW147159   1.905  11.031   3.087 -0.7291 -1.1288 -0.5972
43183SOL    HW247160   1.755  11.034   3.064 -0.6391  0.3352 -1.0888
43184SOL     OW47161   6.571   2.559   8.364 -0.0660  0.3641 -0.2659
43184SOL    HW147162   6.597   2.468   8.355  2.0951  0.9837 -0.9569
43184SOL    HW247163   6.508   2.573   8.293  0.9857 -0.1599 -1.3533
43185SOL     OW47164   8.271   6.848   1.811  0.3118  0.4456 -0.7126
43185SOL    HW147165   8.255   6.776   1.750  0.7910 -0.0695 -0.2382
43185SOL    HW247166   8.365   6.863   1.806  0.8507 -1.3958  1.8357
43186SOL     OW47167  11.229   0.247   9.556 -0.0432  0.0477 -0.2704
43186SOL    HW147168  11.295   0.229   9.489 -0.2121 -1.5145 -0.0556
43186SOL    HW247169  11.253   0.191   9.630 -0.6148  0.7645  0.4817
43187SOL     OW47170  13.176   1.316  10.742 -0.1749  0.2087  0.3273
43187SOL    HW147171  13.172   1.220  10.750  0.4021  0.2547  1.3751
43187SOL    HW247172  13.094   1.339  10.698 -1.5345 -0.5889  2.2629
43188SOL     OW47173   0.327  11.465   6.890 -0.0299  0.1272  0.1666
43188SOL    HW147174   0.339  11.413   6.810  2.6342  0.4685  0.2463
43188SOL    HW247175   0.311  11.400   6.959  0.7145 -0.4181 -0.1599
43189SOL     OW47176   7.099  10.974   2.727 -0.0429 -0.2216 -0.1719
43189SOL    HW147177   7.056  10.889   2.717  0.0670 -0.3457  0.3486
43189SOL    HW247178   7.107  11.008   2.638 -0.9737 -0.3149 -0.3020
43190SOL     OW47179  12.144   0.326  11.857  0.2462  0.0050  0.4355
43190SOL    HW147180  12.124   0.335  11.763 -2.3284  1.1862  1.0034
43190SOL    HW247181  12.067   0.281  11.892 -0.3170  2.3612  2.4477
43191SOL     OW47182  10.394   3.247  11.585  0.4265  0.0889  0.3856
43191SOL    HW147183  10.415   3.238  11.492 -1.2265 -2.2558  0.1324
43191SOL    HW247184  10.435   3.171  11.626  0.3921  0.6154  1.4298
43192SOL     OW47185  10.368   4.782  10.957 -0.5540 -0.3166 -0.0293
43192SOL    HW147186  10.461   4.804  10.954 -0.4270 -0.7646  0.4500
43192SOL    HW247187  10.349   4.743  10.872 -0.3161 -0.1909 -0.1412
43193SOL     OW47188   7.863   3.692   9.434  0.7600 -0.0174 -0.2141
43193SOL    HW147189   7.818   3.776   9.440  0.1460 -0.3262 -0.4719
43193SOL    HW247190   7.911   3.685   9.517  1.1120  0.7455 -0.3376
43194SOL     OW47191   5.937   6.322   5.552 -0.6010 -0.1079  0.1318
43194SOL    HW147192   5.997   6.320   5.627 -1.2053 -1.0861  0.6103
43194SOL    HW247193   5.936   6.414   5.524  0.9326 -0.0260  0.2542
43195SOL     OW47194   2.096  10.032   9.482 -0.2236  0.0626 -0.1472
43195SOL    HW147195   2.133  10.049   9.569 -1.1141  0.1686  0.2242
43195SOL    HW247196   2.141  10.093   9.424 -0.4027  0.7724  0.4444
43196SOL     OW47197   3.359  11.745   4.720 -0.4573 -0.8510  0.3040
43196SOL    HW147198   3.393  11.680   4.660  0.1521  0.4289 -0.7967
43196SOL    HW247199   3.434  11.767   4.776  0.5576  1.5683 -1.7683
43197SOL     OW47200   4.572  12.885  13.671  0.1218 -0.0990 -0.4021
43197SOL    HW147201   4.662  12.898  13.700  0.3630  0.2271 -1.2649
43197SOL    HW247202   4.519  12.910  13.746  0.7638 -1.4895  0.5571
43198SOL     OW47203   6.139   8.799  12.213  0.0705 -0.2351  0.8624
43198SOL    HW147204   6.153   8.742  12.289  0.9916 -0.1367  0.7776
43198SOL    HW247205   6.045   8.792  12.195  0.0084 -0.9967  1.4254
43199SOL     OW47206   5.016   6.681  12.817  0.3232 -0.1759 -0.2000
43199SOL    HW147207   4.940   6.715  12.770 -0.5300 -0.9019  0.6090
43199SOL    HW247208   4.987   6.597  12.853  1.5523 -0.5336  0.0236
43200SOL     OW47209   3.163   6.062   5.836 -0.8301 -0.4247  0.0109
43200SOL    HW147210   3.233   6.019   5.787 -0.7455  1.2247 -1.3835
43200SOL    HW247211   3.083   6.015   5.811 -0.5582 -0.7155 -0.3270
43201SOL     OW47212   4.484  11.575   3.125  0.3153 -0.2322 -0.5112
43201SOL    HW147213   4.472  11.636   3.197  0.1096 -0.3910 -0.4095
43201SOL    HW247214   4.577  11.581   3.104  0.4056 -0.2927 -0.1360
43202SOL     OW47215   8.861   4.945   3.152 -0.3502  0.7345 -0.1340
43202SOL    HW147216   8.945   4.904   3.129 -0.2942  0.7177  0.0909
43202SOL    HW247217   8.867   5.034   3.117 -0.6064  0.4466 -0.9172
43203SOL     OW47218   7.274   2.447   3.085 -0.3462  0.2150  0.1641
43203SOL    HW147219   7.356   2.405   3.111  0.0756  1.9388  1.8663
43203SOL    HW247220   7.289   2.478   2.996  0.6477  0.0340  0.2614
43204SOL     OW47221   9.757  11.207  11.734  0.9302  0.2247 -0.0519
43204SOL    HW147222   9.661  11.204  11.729  0.8562 -0.5912  1.2483
43204SOL    HW247223   9.776  11.287  11.782  0.8763  0.0912  0.1909
43205SOL     OW47224   5.208  13.863  10.357  0.3256  0.0867  0.2437
43205SOL    HW147225   5.169  13.870  10.444  1.5705  1.4572  0.7356
43205SOL    HW247226   5.159  13.926  10.304  0.0213 -0.2502  0.1190
43206SOL     OW47227   5.213   0.975   3.166  0.0514  0.1901 -0.6540
43206SOL    HW147228   5.277   1.017   3.110  0.7365 -0.2228 -0.1883
43206SOL    HW247229   5.154   1.046   3.193 -0.0636  0.4505 -1.5787
43207SOL     OW47230  14.089   5.030  10.148  0.2167 -0.2141  0.2804
43207SOL    HW147231  14.161   5.073  10.101 -0.0685  0.9779  0.8979
43207SOL    HW247232  14.085   5.075  10.232 -1.1576 -0.3626  0.3172
43208SOL     OW47233  11.904   1.611  13.314  0.7464 -0.2301 -0.6305
43208SOL    HW147234  11.892   1.583  13.405  1.2802 -1.4433 -0.9244
43208SOL    HW247235  11.949   1.695  13.321  0.7966 -0.3209  0.2208
43209SOL     OW47236   2.565   1.808   9.953 -0.8872  0.4050 -0.3571
43209SOL    HW147237   2.643   1.863   9.941 -0.8811  0.8462  1.4201
43209SOL    HW247238   2.587   1.725   9.911  0.7280  0.3761  0.4593
43210SOL     OW47239   1.884   2.034   5.901 -0.7968 -0.5766  0.1395
43210SOL    HW147240   1.825   2.032   5.826  0.1662 -0.3431 -0.6591
43210SOL    HW247241   1.942   1.960   5.887  0.8376  0.7661 -0.6067
43211SOL     OW47242   4.743   8.037   2.538 -0.1120 -0.1318 -0.4749
43211SOL    HW147243   4.835   8.063   2.540 -0.5430  1.8852 -2.4831
43211SOL    HW247244   4.695   8.117   2.563 -1.3416 -0.9881 -0.0054
43212SOL     OW47245   6.665   8.466   8.800 -0.1111  0.5236 -0.0600
43212SOL    HW147246   6.572   8.490   8.803 -0.3220 -0.2067 -0.7072
43212SOL    HW247247   6.693   8.488   8.711  0.4719  1.1790  0.2684
43213SOL     OW47248  13.923  11.070  11.397  0.1310  0.4185  0.0074
43213SOL    HW147249  13.863  11.145  11.397 -0.2129  0.1466 -0.0943
43213SOL    HW247250  13.899  11.020  11.319  1.8495  1.3676 -1.1980
43214SOL     OW47251   8.604  11.331   3.215 -0.1872 -0.0417 -0.0408
43214SOL    HW147252   8.547  11.385   3.269 -0.3232  0.4062 -0.6245
43214SOL    HW247253   8.692  11.367   3.228 -0.0850 -0.4926  0.5631
43215SOL     OW47254  13.233   9.194   4.910 -0.3693  0.1667 -0.4214
43215SOL    HW147255  13.197   9.222   4.995 -1.5940 -0.0121 -0.8628
43215SOL    HW247256  13.156   9.170   4.858  0.2358  1.6373 -2.0924
43216SOL     OW47257   6.807   8.348   3.105 -0.4496  0.5967 -0.4582
43216SOL    HW147258   6.714   8.327   3.112 -0.2064 -0.0213  1.4800
43216SOL    HW247259   6.829   8.388   3.189  0.6050  2.6510 -1.6485
43217SOL     OW47260   1.034   7.395   8.101 -0.1390  0.5985  0.2562
43217SOL    HW147261   1.068   7.306   8.095  0.4521  0.7983  0.5234
43217SOL    HW247262   1.010   7.406   8.192  0.6753  1.0156  0.4330
43218SOL     OW47263   1.837  11.036  12.592  0.1332 -0.5487  0.1877
43218SOL    HW147264   1.877  11.009  12.510 -1.7033 -1.1662 -0.5647
43218SOL    HW247265   1.891  10.996  12.660 -0.0318 -2.5643 -0.8120
43219SOL     OW47266   6.299  11.901   2.160 -0.0859  0.2141  0.3071
43219SOL    HW147267   6.250  11.863   2.087 -1.2041  1.6916  0.2428
43219SOL    HW247268   6.273  11.993   2.161  1.7529  0.7673  1.0937
43220SOL     OW47269   8.630  12.861  10.966 -0.1394  0.5305 -0.2030
43220SOL    HW147270   8.650  12.877  11.058 -2.3046 -0.8044  0.5887
43220SOL    HW247271   8.676  12.780  10.944  2.6308  2.2593 -1.2043
43221SOL     OW47272   0.687   0.161  13.558 -0.3480  0.3438  0.3747
43221SOL    HW147273   0.774   0.158  13.599  0.0177  1.8299 -0.2230
43221SOL    HW247274   0.684   0.084  13.502  0.8498  0.5961 -0.0642
43222SOL     OW47275   5.898   1.319   4.202  0.6504 -0.2978  0.1371
43222SOL    HW147276   5.992   1.330   4.220  0.6002  0.2476  0.0785
43222SOL    HW247277   5.888   1.225   4.188  0.9630 -0.5524  1.4422
43223SOL     OW47278   9.832   4.677   7.294  0.4194  0.3471  0.0732
43223SOL    HW147279   9.905   4.622   7.265 -1.5892 -2.1879 -0.5987
43223SOL    HW247280   9.863   4.720   7.373  2.0997 -1.9798  0.7714
43224SOL     OW47281   4.906  13.170  11.596 -0.4725  0.8820  0.2704
43224SOL    HW147282   4.917  13.095  11.654 -1.6598 -0.3942 -1.0893
43224SOL    HW247283   4.967  13.153  11.524 -0.7809  1.2012 -0.0683
43225SOL     OW47284  12.784   2.398   0.408  0.5885 -0.3606  0.0831
43225SOL    HW147285  12.802   2.455   0.483 -0.3508  0.5585 -0.3746
43225SOL    HW247286  12.777   2.457   0.333  3.7805 -1.4414 -1.2362
43226SOL     OW47287  10.878   6.769   9.927 -0.2889  0.0562 -0.1004
43226SOL    HW147288  10.850   6.854   9.891 -1.7427 -0.7991 -1.1197
43226SOL    HW247289  10.875   6.781  10.021  1.5504  1.7370 -0.1810
43227SOL     OW47290   5.470  11.102   9.117  0.4693  0.1633 -0.2283
43227SOL    HW147291   5.488  11.136   9.030  0.2470  1.1555  0.1078
43227SOL    HW247292   5.430  11.175   9.165 -1.1743 -0.9239  0.1370
43228SOL     OW47293  11.706   0.076   0.543  0.1603 -0.1156  0.3378
43228SOL    HW147294  11.677  -0.001   0.592 -1.1629 -0.1778 -0.5051
43228SOL    HW247295  11.707   0.146   0.608 -0.3325 -0.4664  0.7386
43229SOL     OW47296   8.767  11.464   7.342 -0.1704  0.4254  0.3125
43229SOL    HW147297   8.755  11.433   7.253 -0.1546 -0.0911  0.4854
43229SOL    HW247298   8.759  11.559   7.336 -0.8742  0.3418 -0.1197
43230SOL     OW47299  10.509   0.606  12.618 -0.3118 -0.3451 -0.3598
43230SOL    HW147300  10.565   0.642  12.548  0.2784  0.5465  0.5429
43230SOL    HW247301  10.474   0.525  12.581 -0.6562  0.4955 -1.9999
43231SOL     OW47302   8.036   3.442   6.070  0.3244 -0.3697  1.0513
43231SOL    HW147303   7.944   3.463   6.057  0.0732 -1.4298  1.0200
43231SOL    HW247304   8.040   3.347   6.062  1.7317 -0.1992 -0.8403
43232SOL     OW47305   9.069   2.267   4.617  0.1989 -0.0354  0.4459
43232SOL    HW147306   9.073   2.356   4.582  1.7476 -0.4690 -0.5746
43232SOL    HW247307   9.102   2.276   4.707 -0.8462  0.5880  0.7923
43233SOL     OW47308   8.167   5.106  13.882  0.0492 -0.7979  0.0871
43233SOL    HW147309   8.077   5.079  13.867  0.5138 -3.5863  1.5953
43233SOL    HW247310   8.162   5.164  13.958 -0.7328  1.7605 -1.8006
43234SOL     OW47311   9.174  13.061   3.112 -0.2004 -0.5961 -0.0796
43234SOL    HW147312   9.226  13.141   3.104 -0.1056 -0.8300 -2.4771
43234SOL    HW247313   9.120  13.075   3.190  0.5249  1.3777  0.1211
43235SOL     OW47314   2.987   7.424  10.212  0.2328  0.0203  0.5838
43235SOL    HW147315   3.064   7.473  10.240 -0.9477  2.2009  0.2274
43235SOL    HW247316   3.017   7.333  10.206  2.6238  0.7271  0.9153
43236SOL     OW47317   4.778   4.589   9.033  0.2615  0.5287 -0.4575
43236SOL    HW147318   4.871   4.601   9.056  0.5402  0.9104 -1.7256
43236SOL    HW247319   4.778   4.517   8.971 -0.5825 -1.0390  1.2787
43237SOL     OW47320   1.803  12.773  12.435  0.0582 -0.2341 -0.3306
43237SOL    HW147321   1.710  12.752  12.440 -0.1270  0.6505  0.0955
43237SOL    HW247322   1.810  12.864  12.465  1.3154 -0.9308  1.6926
43238SOL     OW47323   2.916   0.311  11.180 -0.3296  0.8428  0.0881
43238SOL    HW147324   2.848   0.361  11.226 -1.0013  1.8341 -1.8408
43238SOL    HW247325   2.969   0.378  11.136  0.7432 -0.0241  0.0248
43239SOL     OW47326   2.754  10.145   5.076  0.4393 -0.8251  0.1581
43239SOL    HW147327   2.801  10.079   5.026 -0.4880 -1.1245 -0.3344
43239SOL    HW247328   2.767  10.227   5.027  0.7740 -0.8205  0.2475
43240SOL     OW47329  12.396   7.959   6.822  0.2752 -0.0307 -0.2527
43240SOL    HW147330  12.357   8.041   6.791  0.9024 -0.0845 -1.2411
43240SOL    HW247331  12.471   7.987   6.875 -0.5042  0.0505  0.8461
43241SOL     OW47332   3.319   1.420   6.456  0.0405 -0.6975 -0.0313
43241SOL    HW147333   3.312   1.499   6.510 -0.1450 -1.5718  1.2655
43241SOL    HW247334   3.337   1.349   6.519 -1.5058 -1.9728 -0.9390
43242SOL     OW47335  13.783  12.308   7.477  0.2054 -0.2162  0.3368
43242SOL    HW147336  13.877  12.309   7.459  0.3335 -1.7595  0.7163
43242SOL    HW247337  13.773  12.244   7.548 -1.1938 -0.5394 -0.1195
43243SOL     OW47338  11.919   3.871   2.330 -0.5709 -0.9974  0.1618
43243SOL    HW147339  11.940   3.891   2.238 -0.7306 -1.0663  0.1111
43243SOL    HW247340  11.994   3.819   2.360 -0.5243 -0.9861  0.0674
43244SOL     OW47341  10.643  12.565   6.654  0.4374 -0.2070 -0.4109
43244SOL    HW147342  10.577  12.533   6.592 -1.1327  1.4886  0.2934
43244SOL    HW247343  10.719  12.584   6.601  0.1413 -1.5290 -1.3674
43245SOL     OW47344   3.864   5.280  13.597  0.4399  0.2704  0.2119
43245SOL    HW147345   3.861   5.375  13.610  0.4090  0.3483 -0.3749
43245SOL    HW247346   3.869   5.268  13.503 -1.1782 -0.3607  0.1771
43246SOL     OW47347   7.601  11.550   2.650  0.5736  0.4091 -0.1187
43246SOL    HW147348   7.597  11.636   2.692 -2.8796  0.6186 -0.5752
43246SOL    HW247349   7.531  11.552   2.585 -1.6715 -3.6691  1.8183
43247SOL     OW47350   3.516  13.967   6.580  0.5589 -0.6610 -0.3165
43247SOL    HW147351   3.444  14.030   6.573  0.3379 -1.0234 -1.4954
43247SOL    HW247352   3.509  13.914   6.501  0.2648 -2.6685  0.9913
43248SOL     OW47353  11.586   1.488   5.938  0.0011 -0.5866  0.1297
43248SOL    HW147354  11.647   1.464   5.868 -0.9361 -0.7670 -0.6546
43248SOL    HW247355  11.593   1.583   5.945 -0.1088 -0.5363 -0.4196
43249SOL     OW47356  10.965   9.253   2.250 -0.1445  0.4358 -0.1619
43249SOL    HW147357  11.012   9.204   2.182 -0.9949  0.0142 -0.4595
43249SOL    HW247358  11.029   9.263   2.320  0.5606  0.3471 -0.7762
43250SOL     OW47359   8.006  10.261   2.076  0.1824  0.1024 -0.7477
43250SOL    HW147360   7.940  10.215   2.024 -1.9104  4.3648 -2.3956
43250SOL    HW247361   8.072  10.289   2.012  0.7680  0.4140 -0.0294
43251SOL     OW47362   2.288   4.393  10.069  0.1228  0.3975  0.0187
43251SOL    HW147363   2.380   4.395  10.097 -0.1954 -1.5099  1.3737
43251SOL    HW247364   2.245   4.458  10.125  0.2471 -0.4033  1.0674
43252SOL     OW47365   7.077  10.648   8.554 -0.2950 -0.1877 -0.4060
43252SOL    HW147366   7.102  10.555   8.553 -0.0693 -0.1470  0.6122
43252SOL    HW247367   7.148  10.692   8.508  0.0135 -0.4312 -0.1701
43253SOL     OW47368  12.318   6.692   6.901 -0.4123  0.6305 -0.0096
43253SOL    HW147369  12.252   6.677   6.969 -0.7913  1.8296 -0.0852
43253SOL    HW247370  12.279   6.656   6.821  0.1051 -0.9399  0.4172
43254SOL     OW47371   0.512   8.799   9.795  0.2110  0.2944 -0.0677
43254SOL    HW147372   0.542   8.708   9.795 -1.0669 -0.1545 -0.6560
43254SOL    HW247373   0.482   8.814   9.705  1.9962  1.8673 -0.4459
43255SOL     OW47374   7.745   0.869   6.760  0.3145 -0.0199  0.1221
43255SOL    HW147375   7.734   0.953   6.715 -0.7079 -0.3240 -0.2183
43255SOL    HW247376   7.759   0.806   6.689  0.3393 -0.2510  0.3319
43256SOL     OW47377   2.344   7.916   5.395 -0.0375 -0.5187  0.0320
43256SOL    HW147378   2.343   7.850   5.464  0.3982  1.4226  1.9895
43256SOL    HW247379   2.403   7.984   5.427 -0.0846  0.6209 -2.1178
43257SOL     OW47380   9.227  10.659   0.763 -0.1350  0.0867  0.1014
43257SOL    HW147381   9.221  10.682   0.670  0.2695  1.3060  0.3616
43257SOL    HW247382   9.315  10.623   0.774  0.4382  1.4885  0.3138
43258SOL     OW47383   4.729   0.422  12.527 -0.1565  0.3666  0.4427
43258SOL    HW147384   4.656   0.459  12.478  0.5689  2.1903  0.6694
43258SOL    HW247385   4.798   0.410  12.462 -0.9390 -2.3866  0.0081
43259SOL     OW47386   8.788   4.026  13.129  0.2218  0.1764 -0.3988
43259SOL    HW147387   8.877   4.002  13.155  0.1953  0.9051  0.3943
43259SOL    HW247388   8.734   4.005  13.205 -0.4535 -1.1054 -1.1849
43260SOL     OW47389  12.759   6.379   3.066  0.4187  0.5062  0.3756
43260SOL    HW147390  12.684   6.328   3.096 -0.3391  0.1483 -1.8798
43260SOL    HW247391  12.834   6.320   3.077 -0.1532 -0.3996 -0.4052
43261SOL     OW47392  12.135   9.637   4.612  0.7333 -0.2428  0.1712
43261SOL    HW147393  12.115   9.628   4.705 -2.3458 -1.0378 -0.4828
43261SOL    HW247394  12.146   9.547   4.580 -1.7590 -0.2589 -0.8463
43262SOL     OW47395   2.844   2.831   8.283 -0.0103  0.1131 -1.0061
43262SOL    HW147396   2.856   2.789   8.198 -0.8013  1.3613 -1.7632
43262SOL    HW247397   2.932   2.836   8.320  0.2973 -0.7563 -1.5819
43263SOL     OW47398  10.143   1.068   0.773  0.2934 -0.3094  0.3681
43263SOL    HW147399  10.127   0.988   0.823  0.4321 -0.2061  0.5792
43263SOL    HW247400  10.074   1.128   0.803 -0.4388 -0.6763 -0.5267
43264SOL     OW47401   1.658   3.528   5.833  0.4834  0.6719 -0.1732
43264SOL    HW147402   1.712   3.528   5.912 -0.9863 -0.0230  0.8908
43264SOL    HW247403   1.669   3.615   5.796 -0.8545  2.0101  2.3109
43265SOL     OW47404   3.484   0.918  11.334 -0.1022  0.1874  0.0447
43265SOL    HW147405   3.555   0.939  11.273 -1.1497 -3.1660 -2.5751
43265SOL    HW247406   3.416   0.982  11.314  0.7201  1.0778 -0.0144
43266SOL     OW47407   3.167  10.155   9.029 -0.4842 -0.6274 -0.1441
43266SOL    HW147408   3.226  10.115   9.093 -0.5808 -1.6317 -0.6671
43266SOL    HW247409   3.079  10.134   9.061 -0.5333 -1.5711 -0.8498
43267SOL     OW47410  10.006   4.039   6.840  0.3481 -0.4800 -0.6444
43267SOL    HW147411   9.962   3.957   6.817  1.3548 -0.7163 -1.8443
43267SOL    HW247412  10.006   4.089   6.758  1.9547 -0.3450 -0.5996
43268SOL     OW47413   6.348  12.047   3.578 -0.1186 -1.1183 -0.4514
43268SOL    HW147414   6.419  12.089   3.529  0.0435  0.7676  1.2597
43268SOL    HW247415   6.380  12.043   3.668 -1.6164 -1.5814  0.0916
43269SOL     OW47416  11.582  11.422   7.079 -0.1424  0.0338 -0.2323
43269SOL    HW147417  11.601  11.425   7.172 -0.2955  1.3691 -0.2308
43269SOL    HW247418  11.487  11.434   7.073  0.0069  1.1711 -0.5952
43270SOL     OW47419   7.926   2.207  14.077 -0.0844  0.1066  0.6608
43270SOL    HW147420   7.870   2.247  14.011  0.4877 -1.6505 -0.9464
43270SOL    HW247421   7.865   2.168  14.140 -0.6805 -0.6881 -0.3810
43271SOL     OW47422   5.459  12.142  10.363  0.4091  0.4218 -0.5248
43271SOL    HW147423   5.544  12.128  10.406  0.4597  0.5531 -0.5822
43271SOL    HW247424   5.481  12.187  10.281  0.1972  1.2966 -0.1044
43272SOL     OW47425   3.791   0.429  11.675  0.6358  0.0674  0.3936
43272SOL    HW147426   3.833   0.363  11.619  1.4034 -0.8873  2.0275
43272SOL    HW247427   3.823   0.513  11.642  0.1258 -0.3663 -1.3341
43273SOL     OW47428   3.203   1.920   4.700  0.2286 -0.7284 -0.4921
43273SOL    HW147429   3.153   1.886   4.774 -1.5064  2.0131 -0.2583
43273SOL    HW247430   3.293   1.896   4.719 -0.5111 -2.4964  1.0855
43274SOL     OW47431  13.259  10.350   1.252 -0.1236  0.3510 -0.2755
43274SOL    HW147432  13.276  10.261   1.223 -0.2755 -0.0586  0.8635
43274SOL    HW247433  13.312  10.361   1.330  1.4581  1.9548 -1.4938
43275SOL     OW47434  11.484   8.024   4.684 -0.0630 -0.0056 -0.4181
43275SOL    HW147435  11.465   7.932   4.698  1.8640 -0.2767  0.8692
43275SOL    HW247436  11.570   8.024   4.641  0.0330  1.1948 -0.2614
43276SOL     OW47437  13.749  13.940   3.028  0.2573  0.8628  0.3704
43276SOL    HW147438  13.730  13.938   3.122 -4.2901  0.1533 -0.3239
43276SOL    HW247439  13.738  13.849   3.000  0.4712  1.2454 -1.0015
43277SOL     OW47440   6.652  12.651   8.447  0.7568 -0.4433 -0.0135
43277SOL    HW147441   6.593  12.686   8.514 -0.7512 -1.1728 -0.8982
43277SOL    HW247442   6.732  12.702   8.456 -1.3100  3.4971 -1.3252
43278SOL     OW47443   3.842   6.981  11.872 -0.2159  0.6849 -0.0032
43278SOL    HW147444   3.935   6.998  11.859 -0.6293  1.5532 -2.1521
43278SOL    HW247445   3.821   6.912  11.809 -1.2823  1.3931 -0.4426
43279SOL     OW47446   3.822  11.766   1.149  0.1729 -0.8029  0.3136
43279SOL    HW147447   3.730  11.779   1.126  0.1567 -0.0451  0.7825
43279SOL    HW247448   3.821  11.744   1.242  0.3317 -2.7031 -0.0913
43280SOL     OW47449   5.229   4.267   9.518  1.0646  0.2152 -0.3994
43280SOL    HW147450   5.239   4.234   9.429  1.3687  3.2637 -1.6213
43280SOL    HW247451   5.135   4.260   9.536  0.8106  0.7050 -1.4802
43281SOL     OW47452   6.525   6.974  11.449 -0.2497 -1.0486  0.3330
43281SOL    HW147453   6.459   6.979  11.518  0.5449  0.2191  1.0385
43281SOL    HW247454   6.487   7.024  11.376 -0.8082 -1.8372  0.0628
43282SOL     OW47455  13.466  10.258   3.834  0.0154 -0.8870  0.0082
43282SOL    HW147456  13.443  10.322   3.901  0.2631  0.8296 -1.4879
43282SOL    HW247457  13.562  10.253   3.837 -0.0318 -1.7861  0.6122
43283SOL     OW47458   9.040   7.117  11.450  0.0140 -0.1011  0.1405
43283SOL    HW147459   9.004   7.185  11.393 -0.7108 -2.0615 -1.8876
43283SOL    HW247460   8.972   7.049  11.451  0.1326 -0.3268  3.1635
43284SOL     OW47461   0.008   4.640  11.082 -0.3731  0.1755  0.2456
43284SOL    HW147462  -0.018   4.552  11.109  3.1161 -1.0105  0.2125
43284SOL    HW247463   0.093   4.654  11.122 -0.8093  3.6648  0.3352
43285SOL     OW47464  12.709   9.725  14.063  0.5054  0.5454 -0.7705
43285SOL    HW147465  12.618   9.701  14.080  0.9965 -0.7263  0.1695
43285SOL    HW247466  12.706   9.820  14.050 -1.1108  0.3806 -1.9582
43286SOL     OW47467   4.788  10.653   9.102  0.1633 -0.4519  0.4087
43286SOL    HW147468   4.846  10.683   9.032  2.4915 -0.1691  2.3210
43286SOL    HW247469   4.735  10.729   9.123 -0.4750 -0.5025 -0.9166
43287SOL     OW47470  10.035   2.628  13.927  0.1555  0.6003  0.4879
43287SOL    HW147471  10.059   2.551  13.876  1.4471  1.9127 -0.9919
43287SOL    HW247472   9.987   2.683  13.865  0.0605  1.3974  1.2608
43288SOL     OW47473   7.180   5.661   0.335 -0.3909  0.2489 -0.1233
43288SOL    HW147474   7.275   5.662   0.349 -0.4117 -1.3008  0.3482
43288SOL    HW247475   7.168   5.606   0.258 -0.9687 -0.7258  0.6370
43289SOL     OW47476  10.169   0.596   8.462  0.2298  0.0217  0.0443
43289SOL    HW147477  10.164   0.678   8.511 -0.3795 -0.3156  0.5680
43289SOL    HW247478  10.114   0.535   8.512  2.1110 -1.2212  0.6909
43290SOL     OW47479   2.883   0.584   3.574 -0.3487  0.1460 -0.0630
43290SOL    HW147480   2.978   0.580   3.586 -0.4771 -1.0842  0.6805
43290SOL    HW247481   2.865   0.524   3.501 -0.4156  1.5626 -1.2564
43291SOL     OW47482   6.185  11.711  12.556  0.1408 -0.2103 -0.3913
43291SOL    HW147483   6.100  11.746  12.531  0.2051  0.3591  0.1635
43291SOL    HW247484   6.165  11.640  12.617 -0.0949 -2.6173 -3.0503
43292SOL     OW47485   7.176   5.040   4.552 -0.4877  0.7280  0.3717
43292SOL    HW147486   7.154   4.948   4.569 -0.0017  0.4244 -0.5426
43292SOL    HW247487   7.143   5.055   4.463  0.8989  0.9423 -0.1251
43293SOL     OW47488   1.988  11.059   6.807  0.0972  0.0735  0.0610
43293SOL    HW147489   1.991  11.148   6.843  1.2816  0.2647 -0.4568
43293SOL    HW247490   1.994  11.071   6.712 -0.9973 -0.5121 -0.0933
43294SOL     OW47491   0.215   3.498   5.217  0.2445  0.0896 -0.0758
43294SOL    HW147492   0.140   3.557   5.216 -1.3815 -1.8065 -2.4975
43294SOL    HW247493   0.183   3.419   5.260  1.2827 -0.3111 -0.0037
43295SOL     OW47494   7.788   5.047  14.007  0.1211  0.0973  0.4406
43295SOL    HW147495   7.856   5.038  14.074  0.9670 -1.9934 -0.5922
43295SOL    HW247496   7.764   5.140  14.009  1.6039  0.4953  2.1799
43296SOL     OW47497   0.712   8.409   2.032 -0.0262 -0.0908 -0.6116
43296SOL    HW147498   0.781   8.422   2.097  0.5238  0.9275 -1.3580
43296SOL    HW247499   0.655   8.485   2.042 -0.0187 -0.0001 -1.2083
43297SOL     OW47500   8.083   8.335   4.455 -0.4130  0.1575  0.6538
43297SOL    HW147501   8.059   8.261   4.511 -0.1037  0.3280  1.0100
43297SOL    HW247502   8.107   8.295   4.372 -1.6243 -0.0437  0.3857
43298SOL     OW47503   7.681  13.576   6.048  0.2930  0.3185 -0.0590
43298SOL    HW147504   7.689  13.669   6.074  1.3874  0.0787  0.5606
43298SOL    HW247505   7.765  13.557   6.006 -0.7018  0.1315 -2.0195
43299SOL     OW47506  13.506   5.230  12.167 -0.3080  0.3077  0.5006
43299SOL    HW147507  13.521   5.324  12.173  1.2959  0.0544  1.0295
43299SOL    HW247508  13.464   5.207  12.250 -2.0155  0.7405 -0.2040
43300SOL     OW47509   1.373   3.298  11.448  0.0672  0.0845 -0.3239
43300SOL    HW147510   1.361   3.220  11.502  1.5245  0.1460  0.1342
43300SOL    HW247511   1.377   3.370  11.511 -0.5830  0.4505 -0.6964
43301SOL     OW47512   5.953  12.120   1.339 -0.1099 -0.1323  0.0702
43301SOL    HW147513   5.949  12.162   1.254  0.0783  0.7622  0.4913
43301SOL    HW247514   5.886  12.051   1.336  2.3486 -2.6918 -2.1282
43302SOL     OW47515   1.994   5.979   5.498 -0.4153  0.5524  0.2242
43302SOL    HW147516   1.993   6.047   5.430 -0.8093  0.4726  0.1456
43302SOL    HW247517   2.019   5.899   5.451 -3.3016 -0.0930 -0.4294
43303SOL     OW47518   4.613   2.355   1.714  0.1021 -0.3300  0.4071
43303SOL    HW147519   4.658   2.387   1.636  1.6124  0.3112  1.4966
43303SOL    HW247520   4.638   2.263   1.721 -2.2955 -1.2219 -1.3660
43304SOL     OW47521   1.208   0.241  10.751 -0.0798 -0.2346  0.2087
43304SOL    HW147522   1.120   0.278  10.750  0.8811  2.2115 -0.9754
43304SOL    HW247523   1.253   0.286  10.823  0.9561  0.5978 -0.9102
43305SOL     OW47524   9.403   3.118  13.269  0.2053 -0.0688  0.1414
43305SOL    HW147525   9.480   3.170  13.292  1.6145 -2.0553  0.1528
43305SOL    HW247526   9.418   3.033  13.312 -1.3171 -0.9670 -1.0073
43306SOL     OW47527   0.509   1.876   8.618  0.0521  0.3771 -0.1336
43306SOL    HW147528   0.418   1.896   8.597 -0.2093  1.2031  1.5374
43306SOL    HW247529   0.508   1.855   8.712  1.5014 -0.0757 -0.1922
43307SOL     OW47530  13.739   1.185  13.180  0.1215 -0.9753  0.0485
43307SOL    HW147531  13.805   1.203  13.247  0.7277  0.0392 -0.7868
43307SOL    HW247532  13.750   1.255  13.116 -0.7111 -1.6853 -0.9103
43308SOL     OW47533  12.305   5.999   1.392 -0.0539  0.1368  0.5671
43308SOL    HW147534  12.395   6.020   1.417 -0.2142  0.7108  0.6847
43308SOL    HW247535  12.312   5.959   1.306  0.1621  1.9625 -0.3137
43309SOL     OW47536   4.325   7.273   0.876  0.0042  0.2667 -0.3976
43309SOL    HW147537   4.383   7.203   0.905 -0.3473 -0.3734 -1.2099
43309SOL    HW247538   4.335   7.341   0.942  2.0845  0.3986 -0.7707
43310SOL     OW47539   1.859  12.443   0.995  0.1747  0.1538 -0.0919
43310SOL    HW147540   1.917  12.371   1.018 -1.7691 -1.5908 -0.3765
43310SOL    HW247541   1.842  12.488   1.078  3.7354  2.2896 -0.3054
43311SOL     OW47542  13.547   2.147  11.791  0.1237 -0.0219 -0.1796
43311SOL    HW147543  13.543   2.124  11.884 -0.7572  1.2795  0.1272
43311SOL    HW247544  13.498   2.229  11.784 -1.4398 -1.0303 -2.1128
43312SOL     OW47545   6.099   8.204   8.570  0.1888  0.2253  0.1535
43312SOL    HW147546   6.019   8.239   8.533  0.3689  1.0841  0.5586
43312SOL    HW247547   6.081   8.111   8.583 -0.1249  0.0470 -1.3946
43313SOL     OW47548   6.464   1.742   0.467  0.4045  0.1315  0.2348
43313SOL    HW147549   6.422   1.657   0.482 -1.7355  1.1048  0.1605
43313SOL    HW247550   6.543   1.740   0.521  0.1736 -1.7286  0.5636
43314SOL     OW47551   8.028   1.563   5.170  0.4089  0.1860  0.3831
43314SOL    HW147552   8.072   1.596   5.092  1.5678 -0.6119  0.6586
43314SOL    HW247553   7.993   1.478   5.144  0.7817 -0.0729  0.7236
43315SOL     OW47554   8.338  10.894   4.964 -0.3602 -0.3080  0.2237
43315SOL    HW147555   8.421  10.905   5.012 -0.0453  1.0983 -0.5931
43315SOL    HW247556   8.296  10.980   4.970 -0.9442 -0.5097 -0.8515
43316SOL     OW47557  12.683   3.591   7.294  0.2278  0.4214  0.4090
43316SOL    HW147558  12.723   3.505   7.294 -0.2512  0.1917 -0.4566
43316SOL    HW247559  12.726   3.638   7.366  1.9868  0.1744 -0.4478
43317SOL     OW47560   7.438   4.698   0.428  0.3565  0.0202  0.3698
43317SOL    HW147561   7.406   4.683   0.517 -0.8881 -1.6650 -0.2971
43317SOL    HW247562   7.510   4.636   0.418  1.0278  0.7822  0.4648
43318SOL     OW47563   3.142   1.258  11.662 -0.1790  0.0037  0.0123
43318SOL    HW147564   3.161   1.193  11.730  0.1009 -0.1944 -0.2554
43318SOL    HW247565   3.172   1.341  11.699 -1.7288  0.2072  0.9005
43319SOL     OW47566   6.486   1.874  11.039 -0.2764 -0.7089  0.0513
43319SOL    HW147567   6.491   1.797  10.982 -0.7718  0.0279 -1.0163
43319SOL    HW247568   6.414   1.855  11.099  0.9178 -1.9503  1.1898
43320SOL     OW47569   4.712  11.181   7.653 -0.1813 -0.2510 -0.0827
43320SOL    HW147570   4.731  11.228   7.734 -0.5078  0.9676 -0.6975
43320SOL    HW247571   4.690  11.092   7.682  2.6018 -0.7269  0.9556
43321SOL     OW47572   9.791   9.993  12.172 -0.0770 -0.5386 -0.1158
43321SOL    HW147573   9.807   9.965  12.082 -3.8972 -2.3626 -0.4389
43321SOL    HW247574   9.706  10.037  12.169  1.3106  2.7089  2.1190
43322SOL     OW47575   6.498  10.179   1.451 -0.6567  0.8273 -0.0872
43322SOL    HW147576   6.592  10.198   1.448 -0.6782  0.8238 -2.0590
43322SOL    HW247577   6.477  10.177   1.544  1.4955 -0.1965  0.4322
43323SOL     OW47578   0.281   5.476   9.441  0.3662 -1.0680  0.3971
43323SOL    HW147579   0.358   5.480   9.497 -0.2045 -0.8097  1.1724
43323SOL    HW247580   0.228   5.552   9.466  0.1704 -0.8556 -0.5956
43324SOL     OW47581   8.812   8.318   5.861  0.2067  0.3791  0.4165
43324SOL    HW147582   8.738   8.268   5.896  0.1217  1.1372  1.3801
43324SOL    HW247583   8.792   8.328   5.768 -1.8681  2.1158  0.9662
43325SOL     OW47584   6.198   6.721   0.559  0.2662  0.0305  0.5487
43325SOL    HW147585   6.255   6.659   0.512 -0.1818 -1.6523  2.0943
43325SOL    HW247586   6.110   6.703   0.525  0.3159  0.9555 -0.1149
43326SOL     OW47587   0.870   6.999  11.891  0.0520 -0.0400  0.1725
43326SOL    HW147588   0.815   7.019  11.966 -0.1247 -1.8455  0.5643
43326SOL    HW247589   0.811   6.999  11.816 -0.4495 -1.5659  0.5349
43327SOL     OW47590   9.264   3.961   6.313 -0.1629  0.2719  0.2305
43327SOL    HW147591   9.335   3.963   6.377 -1.2038  2.6628  1.4647
43327SOL    HW247592   9.260   3.870   6.285  0.4348 -0.9347  3.5260
43328SOL     OW47593   3.525   1.045   8.660  0.0702  0.8367 -0.1311
43328SOL    HW147594   3.508   0.952   8.677  0.1513  0.3221 -2.4447
43328SOL    HW247595   3.439   1.081   8.638  0.1513  1.1360  0.0387
43329SOL     OW47596  10.437   9.985   9.349 -0.3394 -0.2794  0.6974
43329SOL    HW147597  10.446  10.067   9.299  1.1276 -1.4139 -1.0341
43329SOL    HW247598  10.346   9.984   9.376 -0.5252  1.6808  0.3314
43330SOL     OW47599   9.754   8.555   1.208 -0.5201  0.0868  0.0161
43330SOL    HW147600   9.800   8.479   1.244 -0.0133  0.7044  0.7037
43330SOL    HW247601   9.731   8.530   1.119 -1.1781 -1.2159  0.5267
43331SOL     OW47602   5.223   3.759   2.891 -0.3494  0.1150 -0.2503
43331SOL    HW147603   5.312   3.792   2.904 -0.9231  1.7140 -0.2057
43331SOL    HW247604   5.216   3.745   2.797 -0.1258  0.1835 -0.2775
43332SOL     OW47605  11.172  10.292   9.636  0.7638  0.3502 -0.0774
43332SOL    HW147606  11.168  10.246   9.552 -0.9115 -1.7532  1.0650
43332SOL    HW247607  11.264  10.294   9.659  1.2335  0.8302 -1.8765
43333SOL     OW47608   0.185   1.646   4.233  0.2788 -0.1093 -0.0286
43333SOL    HW147609   0.223   1.723   4.275 -0.0395 -0.8179  1.6667
43333SOL    HW247610   0.091   1.660   4.235  0.0089 -1.5348  2.6050
43334SOL     OW47611   1.316   1.655  13.600 -0.0342  0.6874  0.4789
43334SOL    HW147612   1.229   1.615  13.597 -0.1171  0.8900  0.1517
43334SOL    HW247613   1.376   1.585  13.575 -0.1181  0.5947  0.5365
43335SOL     OW47614   5.234   0.492   0.221 -0.1627  0.3082 -0.1789
43335SOL    HW147615   5.278   0.575   0.241  0.7880  0.2892 -1.9704
43335SOL    HW247616   5.225   0.448   0.305  3.1831  0.3587  0.3489
43336SOL     OW47617  12.677   5.982   9.561 -0.5204 -0.0348 -0.3945
43336SOL    HW147618  12.767   5.948   9.555 -1.7483 -3.5420 -2.0488
43336SOL    HW247619  12.641   5.939   9.639 -1.2274 -0.0084 -0.7041
43337SOL     OW47620   5.590  11.205   4.566  0.0463  0.1162 -0.3658
43337SOL    HW147621   5.508  11.213   4.614 -0.3170 -1.5214 -0.6701
43337SOL    HW247622   5.658  11.216   4.633 -0.4441 -0.6375  0.2776
43338SOL     OW47623  14.025   4.657   1.519  0.5925  0.2140  0.3994
43338SOL    HW147624  14.111   4.654   1.559  0.1664 -0.3494  1.3061
43338SOL    HW247625  13.978   4.726   1.567  0.7640  1.0378 -0.5821
43339SOL     OW47626   6.425  11.428  12.070 -0.0137  0.5165  0.4810
43339SOL    HW147627   6.514  11.442  12.104 -0.4616  0.3652  1.7542
43339SOL    HW247628   6.417  11.492  12.000  0.9674  0.8118  0.6121
43340SOL     OW47629   0.090   6.470  12.705  0.3944  0.7089  0.2760
43340SOL    HW147630   0.171   6.431  12.738  0.7613  1.4716  0.3010
43340SOL    HW247631   0.111   6.563  12.693 -0.6218  1.0229  0.7728
43341SOL     OW47632   3.899  12.719  12.023  0.2651  0.1462 -0.0589
43341SOL    HW147633   3.903  12.811  11.994  1.1186  0.0316 -0.3464
43341SOL    HW247634   3.806  12.698  12.022 -0.0018  1.1923  0.6056
43342SOL     OW47635  11.510   0.682   4.616 -0.3144  0.5417 -0.2118
43342SOL    HW147636  11.596   0.686   4.576 -0.2819 -0.5763 -0.3018
43342SOL    HW247637  11.473   0.599   4.584 -1.4831  1.0785 -0.3023
43343SOL     OW47638  11.841   5.821   1.949  0.2678 -0.6733 -0.3260
43343SOL    HW147639  11.923   5.825   1.997  0.0685 -1.2194  0.0819
43343SOL    HW247640  11.803   5.736   1.973 -0.4969 -0.3588 -0.3676
43344SOL     OW47641  13.239   7.782  11.582  0.3879  0.6818 -0.0324
43344SOL    HW147642  13.312   7.832  11.545 -1.0878  1.6603 -1.8002
43344SOL    HW247643  13.247   7.696  11.542  1.1948  0.4235  0.6582
43345SOL     OW47644  11.473   7.956  10.365  0.0646  0.1309 -0.0090
43345SOL    HW147645  11.399   7.929  10.419 -0.1308 -0.8730 -0.7505
43345SOL    HW247646  11.436   8.018  10.302 -0.1974 -0.5262 -0.5097
43346SOL     OW47647  13.361  11.727  12.058 -0.2941  0.3080 -0.5200
43346SOL    HW147648  13.439  11.782  12.046 -1.0399  1.3098 -0.9828
43346SOL    HW247649  13.342  11.732  12.152  0.7703 -0.7806 -0.2231
43347SOL     OW47650   3.368  10.267   2.964  0.4251 -0.2094  0.5045
43347SOL    HW147651   3.323  10.346   2.933 -0.4511 -1.3189 -1.1812
43347SOL    HW247652   3.300  10.217   3.010  0.5838 -0.6996  0.2109
43348SOL     OW47653   0.940   6.635   9.552 -0.2816  0.4333  0.1157
43348SOL    HW147654   0.887   6.582   9.492 -0.1184 -0.6494  0.8985
43348SOL    HW247655   0.920   6.725   9.528 -2.4401  0.0647  0.3395
43349SOL     OW47656   9.154  10.262  10.731  0.3826 -0.3853 -0.6143
43349SOL    HW147657   9.122  10.174  10.710 -1.8743 -0.1047  1.2788
43349SOL    HW247658   9.231  10.247  10.785 -1.9459 -1.4164  2.7039
43350SOL     OW47659   3.665   2.233  10.254 -0.3846  0.0237 -0.1462
43350SOL    HW147660   3.615   2.312  10.234 -0.8991 -0.1570  0.3932
43350SOL    HW247661   3.644   2.172  10.184  1.1808  0.8520 -1.4116
43351SOL     OW47662  11.783   1.801   7.652 -0.1445  0.0044 -0.0766
43351SOL    HW147663  11.755   1.712   7.632 -1.8289  0.4468  0.1574
43351SOL    HW247664  11.838   1.792   7.730  0.9648 -0.9805 -0.9432
43352SOL     OW47665  10.264   9.604   2.377 -0.2284  0.0343  0.0448
43352SOL    HW147666  10.224   9.529   2.421 -1.6623  0.6268 -0.1960
43352SOL    HW247667  10.225   9.604   2.289  0.5122  0.4836 -0.2952
43353SOL     OW47668  13.782  12.642   4.562 -0.7433 -0.0233  0.3480
43353SOL    HW147669  13.858  12.673   4.512 -1.0192  0.3035  0.1219
43353SOL    HW247670  13.734  12.587   4.500  0.2901 -1.7927  1.0641
43354SOL     OW47671   3.814  13.865  12.473 -0.2148  0.4694  0.5205
43354SOL    HW147672   3.838  13.890  12.563  0.4843 -0.1323  0.5116
43354SOL    HW247673   3.841  13.939  12.420  1.1188  0.0812  0.5923
43355SOL     OW47674   7.345  13.364   4.875 -0.2398  0.3473 -0.5252
43355SOL    HW147675   7.439  13.350   4.880 -0.4647 -0.7825  1.7955
43355SOL    HW247676   7.327  13.373   4.781  1.9423 -1.1302 -1.1616
43356SOL     OW47677   8.510  13.910   2.620  0.5779  0.1791  0.0769
43356SOL    HW147678   8.568  13.833   2.622  1.3988  0.7953  1.2211
43356SOL    HW247679   8.555  13.972   2.562 -1.0890 -0.8937 -2.5600
43357SOL     OW47680   2.272   1.594   5.891 -0.4300  0.3102  0.1349
43357SOL    HW147681   2.264   1.597   5.795  0.9962  1.2724  0.0066
43357SOL    HW247682   2.354   1.641   5.909  1.2278 -2.8004  1.5789
43358SOL     OW47683  10.264   6.491   4.203  0.1842  0.5976  0.5760
43358SOL    HW147684  10.331   6.530   4.147 -0.5422  1.0338 -0.0028
43358SOL    HW247685  10.185   6.490   4.149  0.0009 -1.0019  0.8365
43359SOL     OW47686  11.996  12.435   1.781  0.3307 -0.1929  0.4947
43359SOL    HW147687  11.926  12.375   1.807 -1.7146  1.7524 -0.1208
43359SOL    HW247688  12.046  12.451   1.861  0.0567 -1.6061  0.9654
43360SOL     OW47689  12.451  13.405   5.182 -0.2577 -0.7330  0.4487
43360SOL    HW147690  12.529  13.350   5.183 -0.0798 -0.4943 -0.1299
43360SOL    HW247691  12.481  13.490   5.150 -0.1498  0.3077  3.1085
43361SOL     OW47692  12.071   5.326   4.754 -0.0557 -0.1060 -0.5392
43361SOL    HW147693  12.057   5.232   4.744  0.4039 -0.3062  0.5287
43361SOL    HW247694  12.026   5.348   4.836  2.1296  0.0459  0.7068
43362SOL     OW47695  10.612  12.079   2.628  0.0988  0.1075  0.2943
43362SOL    HW147696  10.556  12.061   2.704 -0.3251  2.2916  0.5436
43362SOL    HW247697  10.566  12.038   2.555  0.2890 -1.6494  1.0945
43363SOL     OW47698   5.448   5.857   2.739 -0.3733 -0.1538  0.0667
43363SOL    HW147699   5.409   5.894   2.818 -1.0619  1.8305 -1.1379
43363SOL    HW247700   5.374   5.821   2.690 -0.0068 -0.9582  0.0765
43364SOL     OW47701  11.576   4.069  11.181 -0.2096 -0.7432  0.0375
43364SOL    HW147702  11.643   4.109  11.237  0.2393 -3.1482  1.3688
43364SOL    HW247703  11.624   4.006  11.128 -1.1724 -1.2061 -0.3014
43365SOL     OW47704   1.505  11.224  10.309  0.3879  0.0080  0.2162
43365SOL    HW147705   1.429  11.259  10.263  1.4707 -1.1484 -2.7091
43365SOL    HW247706   1.471  11.149  10.359 -0.5334  0.1260 -0.2227
43366SOL     OW47707   3.901   7.777   0.680  0.0812  0.0783 -0.9216
43366SOL    HW147708   3.961   7.725   0.732 -1.8545 -1.3632  0.0129
43366SOL    HW247709   3.926   7.759   0.589  0.0789 -1.7716 -0.5970
43367SOL     OW47710   9.977   4.776   4.742 -0.0900  0.2449  0.2302
43367SOL    HW147711  10.054   4.730   4.774 -1.0813 -0.9703  0.9399
43367SOL    HW247712   9.987   4.776   4.646  0.1627 -1.0798  0.2383
43368SOL     OW47713   2.201   1.148   7.204 -0.1292 -0.6475 -0.2913
43368SOL    HW147714   2.126   1.172   7.151 -1.0625 -1.8431  0.4135
43368SOL    HW247715   2.264   1.219   7.192 -1.4189  0.4427 -0.8047
43369SOL     OW47716   1.655   8.776   8.179 -0.2928 -0.4775  0.0880
43369SOL    HW147717   1.745   8.761   8.207 -0.5964 -2.4111  0.1348
43369SOL    HW247718   1.663   8.826   8.098  0.9283 -2.1880 -0.9178
43370SOL     OW47719   9.076   5.884   2.075 -0.1395  0.4467  0.1805
43370SOL    HW147720   9.023   5.886   1.995 -1.7499  0.6800  1.2247
43370SOL    HW247721   9.094   5.791   2.089  0.6224  0.4332 -0.7102
43371SOL     OW47722   8.749   3.520   1.952  0.4436  0.0635 -0.5053
43371SOL    HW147723   8.703   3.602   1.971  0.7447  0.7636 -2.5598
43371SOL    HW247724   8.840   3.539   1.973  0.2545 -0.4192  0.8792
43372SOL     OW47725  10.865   6.251   5.382  0.1181  0.6057  0.1986
43372SOL    HW147726  10.810   6.329   5.377  0.4367  0.7481 -2.1024
43372SOL    HW247727  10.937   6.276   5.439 -0.5363  1.4769  0.6709
43373SOL     OW47728  12.389   8.965   1.125 -0.0528  0.2196  0.3320
43373SOL    HW147729  12.378   9.053   1.089  0.5707  0.5445  0.9130
43373SOL    HW247730  12.308   8.949   1.172 -0.5981  0.0605 -0.6391
43374SOL     OW47731  13.210   0.782   7.881  0.7409  0.1930  0.3150
43374SOL    HW147732  13.172   0.828   7.806 -0.4419 -0.6707  0.3609
43374SOL    HW247733  13.304   0.781   7.863  0.4884  0.0659 -1.1298
43375SOL     OW47734   2.085   8.796  11.734  0.5161  0.3473 -0.2643
43375SOL    HW147735   2.074   8.712  11.778  0.3144 -0.7582 -2.3248
43375SOL    HW247736   2.043   8.859  11.793  1.2719 -0.8478  1.6508
43376SOL     OW47737   8.240   7.454   6.011 -0.5899  0.1111  0.3210
43376SOL    HW147738   8.330   7.483   5.994 -0.5756  1.1524  1.9158
43376SOL    HW247739   8.250   7.368   6.052 -0.4744 -0.8401 -1.5959
43377SOL     OW47740  11.750  10.681   5.283  0.2047 -0.7026 -0.0515
43377SOL    HW147741  11.821  10.712   5.227  1.9742 -2.4598  1.0645
43377SOL    HW247742  11.672  10.684   5.228  1.2006  0.8598 -1.4761
43378SOL     OW47743  11.407   5.318   8.712 -0.2853  0.4584  0.3642
43378SOL    HW147744  11.449   5.233   8.729 -2.4545 -0.5041  1.3708
43378SOL    HW247745  11.479   5.377   8.692  1.3881 -1.4087  0.5590
43379SOL     OW47746  13.947   2.869   2.774 -0.6985  0.0346  0.4542
43379SOL    HW147747  13.994   2.802   2.724  1.7100  2.2418 -0.4790
43379SOL    HW247748  13.929   2.828   2.858 -0.8767 -2.3052 -0.6277
43380SOL     OW47749   2.669   2.992   5.907  0.2455  0.2579 -0.3842
43380SOL    HW147750   2.730   2.938   5.858  0.4986 -0.2379  0.4585
43380SOL    HW247751   2.698   2.986   5.998 -1.3376 -0.3853  0.1200
43381SOL     OW47752   5.599  10.441  13.067  0.1633 -0.0030 -0.7402
43381SOL    HW147753   5.643  10.448  13.152 -0.6182 -0.6346 -0.2633
43381SOL    HW247754   5.596  10.347  13.049 -2.7821 -0.2319  0.2686
43382SOL     OW47755   9.576   0.964  11.828 -0.4022 -0.0253  0.1075
43382SOL    HW147756   9.667   0.965  11.801 -0.8948 -0.0293 -1.6451
43382SOL    HW247757   9.577   0.924  11.915  1.2336 -0.1568  0.0465
43383SOL     OW47758   2.722   4.771   6.325 -0.8018 -0.1436  0.0156
43383SOL    HW147759   2.725   4.757   6.231  2.1143  1.4840 -0.2778
43383SOL    HW247760   2.681   4.857   6.336  0.8273  0.6922 -0.0400
43384SOL     OW47761  11.782   4.039  13.244  0.7144 -0.0151  0.2776
43384SOL    HW147762  11.808   3.998  13.326 -1.3973  1.3101  1.6977
43384SOL    HW247763  11.772   3.965  13.183 -1.2932 -1.5566  2.2644
43385SOL     OW47764   2.473   0.956   5.337 -0.4100 -0.2836 -0.0214
43385SOL    HW147765   2.478   1.052   5.344 -1.5077 -0.2724  1.0110
43385SOL    HW247766   2.516   0.925   5.417 -0.8017 -0.6301  0.0533
43386SOL     OW47767   5.231   2.732   9.371  0.0481  0.7367  0.0264
43386SOL    HW147768   5.300   2.676   9.334 -1.4526  0.0252 -1.8470
43386SOL    HW247769   5.262   2.751   9.460  0.6221 -3.1612  0.8528
43387SOL     OW47770   9.088   3.566   9.604 -0.1417  0.0744 -0.4629
43387SOL    HW147771   9.102   3.565   9.699  2.2011 -0.2959 -0.7513
43387SOL    HW247772   8.994   3.577   9.594 -0.3625  0.9908  1.8991
43388SOL     OW47773   4.644   0.273  10.910  0.5807  0.3918  0.2604
43388SOL    HW147774   4.696   0.322  10.974  1.0939 -0.4770  0.5271
43388SOL    HW247775   4.673   0.182  10.920  0.5072  0.2050 -1.0629
43389SOL     OW47776   9.532   0.837   1.961 -0.1324  0.6475 -0.4386
43389SOL    HW147777   9.524   0.900   2.032  2.5379  1.3450 -0.6631
43389SOL    HW247778   9.487   0.758   1.993  1.0330  0.9106  2.0507
43390SOL     OW47779   4.384  12.128   8.291 -0.2713  0.1710 -0.3663
43390SOL    HW147780   4.355  12.045   8.331  1.5161 -0.2625  0.1171
43390SOL    HW247781   4.368  12.193   8.359  2.7011 -0.5570  1.1963
43391SOL     OW47782  11.817   1.856  11.412 -0.2591 -0.5687 -0.0281
43391SOL    HW147783  11.905   1.836  11.444  0.1573 -0.2060 -0.8977
43391SOL    HW247784  11.792   1.935  11.460  0.5835  0.2932 -0.9234
43392SOL     OW47785   5.163   2.836  12.651 -0.4262  0.2228  0.4203
43392SOL    HW147786   5.145   2.796  12.566  1.4909 -1.6572  0.8126
43392SOL    HW247787   5.246   2.883  12.638 -0.0911 -0.1233  1.2529
43393SOL     OW47788   1.634   9.682   0.432 -0.1854  0.7027  0.2957
43393SOL    HW147789   1.630   9.617   0.362 -0.7412  2.9818 -1.9694
43393SOL    HW247790   1.727   9.707   0.436 -0.2052  0.8056  0.1227
43394SOL     OW47791   9.994   3.109  12.396 -0.0555 -0.5027 -0.1840
43394SOL    HW147792  10.055   3.102  12.469 -0.6377  1.9980  0.6386
43394SOL    HW247793   9.925   3.167  12.429 -1.0684 -0.4655 -2.2542
43395SOL     OW47794  13.831   3.743   4.785 -0.0973  0.1674 -0.1252
43395SOL    HW147795  13.778   3.752   4.706 -0.3679  0.6709  0.1080
43395SOL    HW247796  13.768   3.737   4.856  0.0915 -1.8976 -0.0699
43396SOL     OW47797  10.170  11.081   5.579 -0.4960 -0.1573  0.3626
43396SOL    HW147798  10.255  11.061   5.540 -0.3566  2.5963 -0.9840
43396SOL    HW247799  10.110  11.084   5.505 -1.6824 -1.3737  1.2270
43397SOL     OW47800  13.158   2.507  13.455 -0.6733 -0.0191 -0.0095
43397SOL    HW147801  13.223   2.460  13.402  1.0967  1.6021  0.6140
43397SOL    HW247802  13.098   2.545  13.391  0.9327  1.1931 -0.8562
43398SOL     OW47803  11.196   2.304   2.770 -0.9185 -0.2898 -0.1509
43398SOL    HW147804  11.105   2.322   2.795 -0.7691  1.1686 -0.5895
43398SOL    HW247805  11.246   2.376   2.807  0.2775 -1.7051  1.1400
43399SOL     OW47806   1.037   1.577   6.605  0.3437 -0.2617  0.6590
43399SOL    HW147807   0.973   1.611   6.543 -1.3181  0.7314  2.7959
43399SOL    HW247808   1.027   1.482   6.601  1.8368 -0.3999 -2.0860
43400SOL     OW47809  12.592   0.156   6.593  0.3317 -0.2360  0.2289
43400SOL    HW147810  12.645   0.093   6.545  0.2280 -0.0614 -0.1192
43400SOL    HW247811  12.555   0.213   6.526  0.6262  0.3539  0.5494
43401SOL     OW47812   4.534  10.544   7.799  0.0952  0.1988 -0.8129
43401SOL    HW147813   4.453  10.584   7.830  0.2769 -1.0829  1.6061
43401SOL    HW247814   4.538  10.567   7.707 -2.6208  0.9650 -0.8440
43402SOL     OW47815   4.639  10.292   9.941  0.1656 -0.4382 -0.0235
43402SOL    HW147816   4.727  10.275   9.975  0.6835 -0.5755 -1.3845
43402SOL    HW247817   4.647  10.376   9.896 -0.5118 -0.2647  0.1650
43403SOL     OW47818   1.750  10.804   0.857  0.2940  0.0124  0.2099
43403SOL    HW147819   1.822  10.813   0.919  1.7041 -0.4758 -1.2838
43403SOL    HW247820   1.696  10.882   0.871  1.8138  1.0582  0.5048
43404SOL     OW47821   6.015   0.859   2.515 -0.7325  0.0567 -0.2273
43404SOL    HW147822   6.010   0.795   2.586  0.2005  0.0072 -0.1862
43404SOL    HW247823   6.070   0.930   2.550 -2.0321  1.0660 -0.1462
43405SOL     OW47824   9.006   2.076   8.830 -0.4616 -0.2492  0.7269
43405SOL    HW147825   8.917   2.093   8.860 -0.7276 -1.3894  0.6203
43405SOL    HW247826   9.001   2.086   8.735 -0.7819 -1.5018  0.5897
43406SOL     OW47827   4.409   5.726   5.638  0.3975  0.8488 -0.0308
43406SOL    HW147828   4.467   5.659   5.601 -0.4245  0.8618 -1.4283
43406SOL    HW247829   4.431   5.805   5.589  0.3270  1.2415  0.5705
43407SOL     OW47830   2.555  13.941   5.547 -0.0458  0.1163 -0.3100
43407SOL    HW147831   2.507  13.859   5.555  1.0645 -0.4843  0.3756
43407SOL    HW247832   2.540  13.969   5.456 -0.5142 -0.7805 -0.5198
43408SOL     OW47833   9.094   4.394   1.406 -0.0318  0.4478 -0.0239
43408SOL    HW147834   9.076   4.302   1.421 -0.4218  0.5174 -0.0360
43408SOL    HW247835   9.077   4.407   1.312  0.5505  0.4182 -0.1380
43409SOL     OW47836   1.611  13.460  13.222 -0.1637  0.1539  0.3747
43409SOL    HW147837   1.613  13.555  13.238 -0.1251 -0.0108  1.4401
43409SOL    HW247838   1.695  13.429  13.257  1.0847  0.0461 -2.3932
43410SOL     OW47839   2.876   8.936   2.420 -0.4052 -0.3338 -0.0708
43410SOL    HW147840   2.788   8.967   2.400 -0.2277  0.3249  0.1315
43410SOL    HW247841   2.885   8.948   2.514  0.6888  1.7811 -0.3831
43411SOL     OW47842  13.269   2.147   5.925  0.2240  0.3137  0.2738
43411SOL    HW147843  13.259   2.228   5.975  0.0467 -1.0237  2.5263
43411SOL    HW247844  13.364   2.140   5.910  0.3045  0.6115  0.6229
43412SOL     OW47845   0.046  12.769   5.279  0.2801  0.2222 -0.5280
43412SOL    HW147846   0.045  12.733   5.190 -1.5357 -0.7423 -0.1780
43412SOL    HW247847  -0.025  12.834   5.279  0.6127  0.5887  0.0702
43413SOL     OW47848   1.087   9.564   4.427 -0.5057  0.4781  0.7853
43413SOL    HW147849   1.183   9.558   4.429 -0.2846  2.0884 -1.1714
43413SOL    HW247850   1.057   9.485   4.471  1.7338 -0.9007  0.0049
43414SOL     OW47851   3.177   8.003   1.861 -0.2763 -0.0468 -0.4497
43414SOL    HW147852   3.206   8.036   1.946  1.2379 -0.6737 -0.6903
43414SOL    HW247853   3.239   8.040   1.799 -1.9317  1.1953 -1.4535
43415SOL     OW47854  14.049   9.387   6.252  0.3497 -0.1405 -0.0992
43415SOL    HW147855  13.988   9.313   6.252  0.6085 -0.3528 -0.0396
43415SOL    HW247856  14.000   9.458   6.209 -0.3355  0.0086  0.8665
43416SOL     OW47857   7.190  11.124   9.755  0.0883  0.3944 -0.3097
43416SOL    HW147858   7.187  11.213   9.791  1.3292 -0.7930  3.1897
43416SOL    HW247859   7.231  11.072   9.824 -2.7427 -3.4005 -1.1485
43417SOL     OW47860   1.864   5.450  10.404  0.3244  0.0082  0.3936
43417SOL    HW147861   1.802   5.423  10.472 -0.0559 -0.1158 -0.0002
43417SOL    HW247862   1.852   5.386  10.334 -2.2839  2.4033 -1.5925
43418SOL     OW47863  13.749   4.265  14.003 -0.5309 -0.8336 -0.0592
43418SOL    HW147864  13.818   4.239  13.943 -1.1797 -2.4391 -0.1770
43418SOL    HW247865  13.692   4.322  13.952  0.4166  0.1061 -0.0990
43419SOL     OW47866   2.056   4.363  11.727  0.2161  0.4660  0.1385
43419SOL    HW147867   1.995   4.335  11.659 -0.4133  2.4763 -0.1978
43419SOL    HW247868   2.018   4.329  11.808 -0.2580 -0.0239 -0.2811
43420SOL     OW47869   6.160   8.515  12.108 -0.5126  0.3275  0.4994
43420SOL    HW147870   6.218   8.530  12.033  0.7126 -1.6247  0.9827
43420SOL    HW247871   6.152   8.601  12.149  1.9278  0.7181  0.3022
43421SOL     OW47872   3.825   8.648  11.466  0.5549  0.0928  0.4595
43421SOL    HW147873   3.906   8.698  11.474  1.7278 -1.5995 -0.3295
43421SOL    HW247874   3.760   8.712  11.436  2.2240  0.9427 -1.5374
43422SOL     OW47875  12.173   4.297   9.419 -0.1485 -0.2730  0.0450
43422SOL    HW147876  12.252   4.248   9.441 -0.3918  0.0275  1.6887
43422SOL    HW247877  12.136   4.250   9.344  1.1798 -0.8523 -0.2800
43423SOL     OW47878   8.404   9.439   6.731 -0.0627 -0.0974 -0.2504
43423SOL    HW147879   8.316   9.476   6.723  0.5706  1.1575 -2.3968
43423SOL    HW247880   8.451   9.499   6.788 -0.6692 -0.9902  1.2287
43424SOL     OW47881   1.393   0.836  12.422  0.5707  0.1175  0.1542
43424SOL    HW147882   1.428   0.747  12.411  2.5298  0.9505 -0.6672
43424SOL    HW247883   1.466   0.894  12.399 -1.4982  1.9950 -2.1890
43425SOL     OW47884   4.158   2.673   2.685  0.6118 -0.2659 -0.0427
43425SOL    HW147885   4.108   2.752   2.703  0.6053 -0.1960 -0.3583
43425SOL    HW247886   4.208   2.693   2.606  1.4279 -0.2029  0.4786
43426SOL     OW47887  10.344  12.608  13.877  0.0274 -0.1853 -0.3535
43426SOL    HW147888  10.323  12.606  13.783  3.1249 -2.1961 -1.1560
43426SOL    HW247889  10.277  12.552  13.917 -0.8111 -0.0410 -1.4866
43427SOL     OW47890   6.342  11.495   0.378 -0.5171 -0.3145  0.0039
43427SOL    HW147891   6.255  11.499   0.419 -0.4541 -1.7509  0.3314
43427SOL    HW247892   6.366  11.402   0.383  1.0378  0.0662 -0.0847
43428SOL     OW47893   5.523   0.473  12.947 -0.0975 -0.1973  0.4617
43428SOL    HW147894   5.439   0.438  12.976 -0.4782 -0.8730 -1.2977
43428SOL    HW247895   5.541   0.425  12.866  0.2865  2.3700 -1.0660
43429SOL     OW47896   4.940   1.268  13.502 -0.3029  0.1060  0.2008
43429SOL    HW147897   4.966   1.204  13.436  1.2841  1.9589 -1.0755
43429SOL    HW247898   4.904   1.341  13.452 -2.7468  0.0145  1.6636
43430SOL     OW47899  12.319   4.563   6.380  0.1873  0.2488  0.1929
43430SOL    HW147900  12.372   4.642   6.392 -0.5693  0.7276  0.4546
43430SOL    HW247901  12.266   4.558   6.459 -0.9463  0.3955 -0.5421
43431SOL     OW47902   3.946   5.132  10.693 -0.0082 -0.0460 -0.8434
43431SOL    HW147903   3.973   5.040  10.694  0.8417  0.1834 -1.3760
43431SOL    HW247904   3.872   5.136  10.754 -0.6807 -1.2525 -1.5464
43432SOL     OW47905   0.661   1.076  13.538 -0.0077 -0.0683 -0.4437
43432SOL    HW147906   0.708   1.121  13.609 -0.0485 -2.0586  0.8972
43432SOL    HW247907   0.715   1.093  13.461  0.1865  1.9182  0.0590
43433SOL     OW47908   6.914  12.136  11.654  0.2443 -0.0926 -0.5611
43433SOL    HW147909   6.942  12.055  11.612  1.4747  0.3450 -0.6153
43433SOL    HW247910   6.968  12.204  11.613  0.3734  0.5466  0.6367
43434SOL     OW47911   6.326   0.125   5.611  0.2566  0.2437  0.0260
43434SOL    HW147912   6.333   0.067   5.686 -0.0690  0.6077  0.3440
43434SOL    HW247913   6.382   0.200   5.633 -0.4324  0.7001  0.2426
43435SOL     OW47914   2.758   9.451  11.981 -0.3889  0.0050 -0.8049
43435SOL    HW147915   2.794   9.382  12.036 -1.5308  0.2725  0.3304
43435SOL    HW247916   2.782   9.532  12.026 -2.2351  0.1957 -0.0634
43436SOL     OW47917  12.563   7.669   2.081 -1.0378  0.2824 -0.2486
43436SOL    HW147918  12.580   7.660   1.987 -0.6041 -1.2191 -0.0457
43436SOL    HW247919  12.643   7.707   2.116 -0.7118 -0.3459 -0.3039
43437SOL     OW47920   8.537   1.186  12.386  0.2929  0.5096 -0.0313
43437SOL    HW147921   8.605   1.121  12.370 -0.6190 -1.0088  1.8363
43437SOL    HW247922   8.497   1.201  12.300  1.0633 -0.7626 -0.6342
43438SOL     OW47923   5.258   5.170   1.391  0.1143 -0.2192 -0.4409
43438SOL    HW147924   5.311   5.250   1.383 -0.0209  0.0943  1.4020
43438SOL    HW247925   5.168   5.200   1.377  0.1382 -0.2149 -0.5933
43439SOL     OW47926  12.947   3.174  10.882  0.2591 -0.1769 -0.1740
43439SOL    HW147927  12.917   3.083  10.884 -1.0534  0.2338 -0.0094
43439SOL    HW247928  12.983   3.188  10.970  1.9851 -0.9915 -0.7138
43440SOL     OW47929  13.068  12.690   1.552  0.7156  0.3697 -0.3891
43440SOL    HW147930  12.997  12.626   1.548  1.0198  0.0808 -1.9181
43440SOL    HW247931  13.130  12.653   1.615 -0.1320  0.2606  0.3990
43441SOL     OW47932   9.113   8.129   6.652 -0.1932 -0.1116  0.0931
43441SOL    HW147933   9.114   8.210   6.703 -2.6249  0.9368 -1.3138
43441SOL    HW247934   9.164   8.150   6.574  1.7877 -1.0366  1.0720
43442SOL     OW47935   0.866   6.143  11.493  0.5477 -0.0668  0.0963
43442SOL    HW147936   0.825   6.226  11.469 -1.2316 -0.1923  2.3590
43442SOL    HW247937   0.841   6.082  11.424 -0.5157  0.6058 -0.1259
43443SOL     OW47938   0.304   1.222  10.726 -0.5654  0.3630 -0.4753
43443SOL    HW147939   0.327   1.296  10.670 -0.2507  0.0868 -0.7116
43443SOL    HW247940   0.367   1.227  10.799 -0.8779  0.6330 -0.2196
43444SOL     OW47941   9.175   9.840   6.497  0.4024 -0.4569  0.8001
43444SOL    HW147942   9.117   9.802   6.431  1.0919  0.2006 -0.2170
43444SOL    HW247943   9.164   9.935   6.487  0.1674 -0.3524  1.9551
43445SOL     OW47944  13.555   6.314   6.220  0.1869  0.5468  0.0412
43445SOL    HW147945  13.494   6.295   6.149  0.3366 -1.0939  0.3056
43445SOL    HW247946  13.598   6.230   6.238 -0.2884  0.7294  2.4539
43446SOL     OW47947   6.916   3.708   4.481  0.2268  0.3863 -0.3248
43446SOL    HW147948   6.917   3.614   4.500 -1.4606  0.4795  0.4645
43446SOL    HW247949   6.976   3.718   4.407 -1.2696 -1.6866 -1.9620
43447SOL     OW47950  12.330  12.621  12.206  0.1044 -0.0370 -0.9911
43447SOL    HW147951  12.252  12.616  12.152  1.2809  2.8671 -3.2379
43447SOL    HW247952  12.324  12.706  12.250  1.8360  0.1327 -1.0082
43448SOL     OW47953   8.901   5.752   1.420 -0.5787  0.6180  0.6143
43448SOL    HW147954   8.954   5.832   1.424  0.2490  0.1400 -0.2154
43448SOL    HW247955   8.832   5.773   1.358  0.9214  0.0282 -1.3787
43449SOL     OW47956   7.868   0.163  10.061  0.5236  0.2965 -0.0118
43449SOL    HW147957   7.800   0.175   9.994 -0.4624 -0.5469  0.8183
43449SOL    HW247958   7.822   0.128  10.137  1.9585 -0.6703  0.4503
43450SOL     OW47959   7.470   1.198   5.328 -0.1629  0.0582 -0.8862
43450SOL    HW147960   7.453   1.199   5.422  0.0858 -0.7791 -0.8269
43450SOL    HW247961   7.481   1.106   5.306  3.2050  0.3945 -1.0983
43451SOL     OW47962   8.236  14.020   4.942  0.3804  0.7366  0.0993
43451SOL    HW147963   8.311  13.984   4.989 -0.0743  2.3752  2.2467
43451SOL    HW247964   8.232  13.969   4.861  2.5585 -0.7515  0.8228
43452SOL     OW47965  11.513   0.665   8.323  0.1897 -0.3411 -0.2889
43452SOL    HW147966  11.567   0.597   8.362 -0.2356  0.1441  1.2101
43452SOL    HW247967  11.448   0.618   8.271  0.8708 -0.9950 -0.5635
43453SOL     OW47968   4.859   6.004   1.357 -0.4280 -0.5623  0.3200
43453SOL    HW147969   4.870   5.937   1.290 -1.1365  0.0729 -0.4419
43453SOL    HW247970   4.767   6.030   1.352 -0.0411  0.8941  0.1678
43454SOL     OW47971   0.040   4.644   8.011 -0.0803  0.1684  0.4537
43454SOL    HW147972   0.073   4.705   8.077  1.3417 -1.3890  1.2609
43454SOL    HW247973   0.107   4.643   7.943 -0.2557 -0.2412  0.2811
43455SOL     OW47974   5.633   4.098   3.585 -0.0716  0.3554  0.0473
43455SOL    HW147975   5.621   4.046   3.505 -1.9228  0.4305  0.2358
43455SOL    HW247976   5.630   4.189   3.555 -2.0782  0.4158  0.3056
43456SOL     OW47977   1.511   9.962  11.831 -0.1854 -1.1588 -0.1972
43456SOL    HW147978   1.465  10.037  11.793 -1.8456 -1.7921  0.4975
43456SOL    HW247979   1.447   9.892  11.831  0.5283 -1.8673  1.5289
43457SOL     OW47980   0.164   3.950   2.548  0.6110 -0.3322  0.0174
43457SOL    HW147981   0.083   4.000   2.542  0.8460 -0.0693 -1.1671
43457SOL    HW247982   0.136   3.861   2.572  0.0937  0.0597  0.9100
43458SOL     OW47983  11.518   4.554   3.292 -0.1462 -0.7954 -0.0604
43458SOL    HW147984  11.583   4.494   3.258  0.2722 -0.8225  0.7725
43458SOL    HW247985  11.561   4.639   3.293 -0.4745 -0.6162 -0.4844
43459SOL     OW47986   0.280   2.903  12.542 -0.2095 -0.2560  0.2181
43459SOL    HW147987   0.312   2.980  12.495 -0.5395 -0.6261 -0.6227
43459SOL    HW247988   0.276   2.834  12.476 -1.5096 -0.5626  0.5890
43460SOL     OW47989  13.073   1.578  12.147  0.4501 -0.2114  0.0794
43460SOL    HW147990  12.997   1.628  12.116  0.7084 -0.1778 -0.5069
43460SOL    HW247991  13.065   1.493  12.104  0.7106 -0.2298  0.0658
43461SOL     OW47992  12.350   5.140   9.754  0.5054  0.3890  0.2428
43461SOL    HW147993  12.261   5.107   9.764  0.3501  0.5002 -0.7005
43461SOL    HW247994  12.403   5.062   9.738  0.6154  0.3044  0.9767
43462SOL     OW47995  11.753   3.283   2.852  0.3814 -0.6173 -0.4075
43462SOL    HW147996  11.740   3.341   2.927  0.4596 -1.1673  0.0362
43462SOL    HW247997  11.810   3.331   2.793  0.8640 -0.4538  0.1936
43463SOL     OW47998   1.935   5.356   3.379  0.3080  0.1996  0.3182
43463SOL    HW147999   1.904   5.327   3.293  1.3509  0.0186 -0.0159
43463SOL    HW248000   1.857   5.355   3.434 -0.1064 -1.2004 -0.2285
43464SOL     OW48001  11.740   1.661  11.199 -0.2987  0.3008 -0.0925
43464SOL    HW148002  11.715   1.728  11.135  0.4265 -0.4079 -1.1243
43464SOL    HW248003  11.762   1.712  11.278  0.6014  1.3155 -0.9657
43465SOL     OW48004   9.516   4.087  10.431  0.1797  0.2177 -0.4688
43465SOL    HW148005   9.561   4.158  10.477  0.8516  1.0816 -2.3868
43465SOL    HW248006   9.495   4.024  10.500  1.8920  1.0594  0.8979
43466SOL     OW48007   9.212   4.500   5.334  0.1573  0.3565  0.7134
43466SOL    HW148008   9.164   4.563   5.281  0.2482 -0.4382 -0.3315
43466SOL    HW248009   9.236   4.549   5.413 -0.5828  1.3484  0.3437
43467SOL     OW48010   0.512  11.164  11.734  0.5446  0.3994  0.1773
43467SOL    HW148011   0.545  11.170  11.644 -0.5148  0.8352 -0.1924
43467SOL    HW248012   0.522  11.071  11.757 -0.3364  0.0284 -0.8529
43468SOL     OW48013   3.320  13.821  12.845 -0.5228 -0.0222  0.4946
43468SOL    HW148014   3.352  13.831  12.756 -0.3473 -3.3672  0.0597
43468SOL    HW248015   3.303  13.911  12.875 -1.0192  1.1937 -3.0026
43469SOL     OW48016  13.195  10.860  11.358 -0.2563  0.3660  0.0772
43469SOL    HW148017  13.100  10.849  11.359 -0.3266  0.2238 -2.4252
43469SOL    HW248018  13.211  10.943  11.402 -1.6210  0.8385 -0.2936
43470SOL     OW48019   7.771   7.574   7.702  0.0128 -0.3396 -0.1609
43470SOL    HW148020   7.720   7.546   7.779 -1.0329 -2.4787 -1.5374
43470SOL    HW248021   7.827   7.499   7.683 -1.6353 -0.9977 -2.9950
43471SOL     OW48022   8.615  11.293  11.014  0.6426 -0.7327  0.0353
43471SOL    HW148023   8.583  11.245  11.090 -1.2166 -1.2659 -1.0212
43471SOL    HW248024   8.549  11.278  10.947  2.1505 -0.1406 -1.6502
43472SOL     OW48025  13.777   5.282   2.343 -0.0282  0.4203  0.5250
43472SOL    HW148026  13.800   5.273   2.435  0.6084  0.5564  0.3814
43472SOL    HW248027  13.858   5.263   2.296 -0.6460 -0.9175 -0.0597
43473SOL     OW48028   4.366  11.654   6.132 -0.2725 -0.1255 -0.2597
43473SOL    HW148029   4.363  11.563   6.162  0.3080 -1.6532 -4.2734
43473SOL    HW248030   4.288  11.663   6.077 -0.0694  1.7169 -0.2830
43474SOL     OW48031  11.728   2.257   6.740  0.2404 -0.3672  0.9169
43474SOL    HW148032  11.767   2.237   6.825  1.9107 -0.1105  0.2354
43474SOL    HW248033  11.802   2.272   6.682 -0.8350 -1.5597 -0.8670
43475SOL     OW48034   1.549   8.060   0.783 -0.4604  0.0188  0.4205
43475SOL    HW148035   1.551   8.013   0.700 -0.6903  0.5131  0.1318
43475SOL    HW248036   1.495   8.137   0.766  1.2077  1.2351  0.4289
43476SOL     OW48037   7.166   1.078  10.411 -0.2196 -0.4142  0.7047
43476SOL    HW148038   7.247   1.078  10.460 -0.5616  1.4703  1.3566
43476SOL    HW248039   7.188   1.039  10.327  1.2054 -0.4777  1.0942
43477SOL     OW48040   7.574  11.098   6.556  0.1561  0.1027  0.4532
43477SOL    HW148041   7.596  11.026   6.615 -0.5291 -0.5585 -0.0676
43477SOL    HW248042   7.491  11.072   6.517 -0.3652  1.4239  0.6295
43478SOL     OW48043  12.186   3.357  10.495  0.7131 -0.0183  0.2732
43478SOL    HW148044  12.195   3.381  10.587  0.2892  2.0168 -0.1662
43478SOL    HW248045  12.202   3.438  10.447 -1.5253 -0.4235 -1.3361
43479SOL     OW48046   2.282   2.877   4.718  0.1278 -0.6458  0.5075
43479SOL    HW148047   2.344   2.824   4.767  2.0331  0.0767 -0.9906
43479SOL    HW248048   2.312   2.871   4.627 -1.2097  0.8126 -0.0744
43480SOL     OW48049   0.433   6.469   0.589  0.3165 -0.9030 -0.3834
43480SOL    HW148050   0.492   6.540   0.566  0.6277 -0.3424  1.9719
43480SOL    HW248051   0.372   6.507   0.651 -0.0746 -2.4716  0.2411
43481SOL     OW48052   9.117   0.869  10.234  0.3465  0.3736 -0.4910
43481SOL    HW148053   9.144   0.905  10.318 -1.3356  0.0939  0.2267
43481SOL    HW248054   9.133   0.775  10.241  1.0873  0.4612 -0.8696
43482SOL     OW48055   0.125   8.735   2.178  0.1378 -0.7321 -0.0283
43482SOL    HW148056   0.068   8.754   2.103 -2.1225 -1.0302  1.4958
43482SOL    HW248057   0.110   8.809   2.238  4.0856  1.0377 -0.9103
43483SOL     OW48058  12.357   5.112   4.238 -0.0475  0.0383  0.3225
43483SOL    HW148059  12.334   5.039   4.295  1.2380 -1.5489 -1.0743
43483SOL    HW248060  12.313   5.094   4.155 -1.1264  1.8073  0.4611
43484SOL     OW48061   1.251  12.157   8.093 -0.2535  0.3645  0.3973
43484SOL    HW148062   1.186  12.224   8.115  0.4539  1.0757  0.3595
43484SOL    HW248063   1.199  12.082   8.066 -1.0596  1.0373  0.0192
43485SOL     OW48064   1.222   5.878   6.111 -0.4370 -0.4740  0.2967
43485SOL    HW148065   1.310   5.909   6.133  0.5490 -1.7788 -1.5765
43485SOL    HW248066   1.184   5.950   6.060  0.7428 -1.0879 -1.5293
43486SOL     OW48067   5.041  13.609   9.210 -0.4482  0.6984 -0.0198
43486SOL    HW148068   5.022  13.701   9.231  3.0260  1.3085  1.1142
43486SOL    HW248069   5.088  13.613   9.126 -0.9248 -0.1476 -0.3366
43487SOL     OW48070   7.506  13.175  10.267 -0.6175  0.0693  0.6613
43487SOL    HW148071   7.516  13.149  10.176 -0.0995  0.5342  0.5833
43487SOL    HW248072   7.413  13.198  10.275 -0.9483 -1.1507  0.5733
43488SOL     OW48073  10.388   8.714   5.908 -0.4979  0.6887 -0.0113
43488SOL    HW148074  10.400   8.791   5.852  0.6337  1.8996  1.7620
43488SOL    HW248075  10.336   8.746   5.982  0.2127 -0.1573  0.8897
43489SOL     OW48076   0.552   3.743   0.671  0.0237 -0.4547 -0.4209
43489SOL    HW148077   0.458   3.725   0.684 -0.5472  1.8251 -1.0065
43489SOL    HW248078   0.585   3.760   0.759 -0.5379  0.4716 -0.3726
43490SOL     OW48079   1.873   7.359   6.494  0.0325  0.5009 -0.1380
43490SOL    HW148080   1.835   7.322   6.574  1.0364  2.0588  1.1208
43490SOL    HW248081   1.805   7.417   6.460 -0.3692 -0.1065 -0.3969
43491SOL     OW48082  12.333  13.819   3.937  0.0179  0.2453 -0.0038
43491SOL    HW148083  12.355  13.753   3.871  0.0401  1.0638 -0.8415
43491SOL    HW248084  12.239  13.833   3.925 -0.0705  0.0622  0.4639
43492SOL     OW48085   3.884   8.253   8.709 -0.0090 -0.8653  0.2061
43492SOL    HW148086   3.883   8.215   8.797 -0.1577 -0.0033  0.5862
43492SOL    HW248087   3.923   8.185   8.654  4.1976  0.0436  1.6638
43493SOL     OW48088   0.715   7.791   3.940  0.0340  0.1089  0.4613
43493SOL    HW148089   0.717   7.831   3.853  2.6306  0.1863  0.4741
43493SOL    HW248090   0.706   7.697   3.923 -0.3695  0.1977  0.1689
43494SOL     OW48091   8.161   0.795   4.709  0.2042 -0.0555  0.0596
43494SOL    HW148092   8.125   0.732   4.772 -1.9598  0.4898 -0.5429
43494SOL    HW248093   8.231   0.839   4.757  0.2326 -1.3416  1.2589
43495SOL     OW48094   8.793   9.640   4.092 -0.5573  0.2822 -0.2465
43495SOL    HW148095   8.871   9.585   4.082  0.6942  1.8452  0.4446
43495SOL    HW248096   8.760   9.651   4.003  0.0173 -0.3811 -0.5583
43496SOL     OW48097  13.640   6.153  10.916  0.1181 -0.8621  0.1031
43496SOL    HW148098  13.591   6.214  10.860  0.2901  0.3749  1.2517
43496SOL    HW248099  13.720   6.136  10.867  0.2780  0.2125 -0.0426
43497SOL     OW48100   7.141   1.269   0.410 -0.5907  0.4003  0.1689
43497SOL    HW148101   7.133   1.174   0.405 -1.2345  0.4947 -0.7499
43497SOL    HW248102   7.181   1.285   0.496  1.1741 -0.7849 -0.3840
43498SOL     OW48103  13.620   3.767   3.066 -0.0640  0.4425 -0.1962
43498SOL    HW148104  13.656   3.805   3.146 -0.6194  0.0946  0.2286
43498SOL    HW248105  13.542   3.819   3.047  0.7667  1.3443 -1.2452
43499SOL     OW48106  13.607   8.761   6.367  0.1763 -0.1852 -0.0552
43499SOL    HW148107  13.542   8.812   6.319  1.1560  0.8087 -0.3567
43499SOL    HW248108  13.680   8.752   6.307 -0.0717 -2.2442 -0.1242
43500SOL     OW48109   1.175   1.193  11.934  0.2596 -0.8070  0.3386
43500SOL    HW148110   1.212   1.167  11.849 -0.4792 -1.2565  0.1424
43500SOL    HW248111   1.121   1.118  11.960 -1.8526  0.4399 -0.1889
43501SOL     OW48112   2.578  13.295  13.397  0.4225 -0.1089 -0.1908
43501SOL    HW148113   2.484  13.311  13.397  0.4856  0.3701 -1.6958
43501SOL    HW248114   2.617  13.382  13.403  0.7984 -0.3270  0.8336
43502SOL     OW48115   8.806   8.528   2.518 -0.3621  1.2220 -0.3675
43502SOL    HW148116   8.717   8.521   2.554 -0.3780  0.7063 -0.4972
43502SOL    HW248117   8.856   8.571   2.586  0.1809 -1.8064  1.3295
43503SOL     OW48118  13.983   6.179   2.621  0.1628  0.1506 -0.3969
43503SOL    HW148119  14.073   6.210   2.620  0.0572  0.7381  1.8804
43503SOL    HW248120  13.932   6.252   2.587  0.1680  1.6640  2.5685
43504SOL     OW48121   5.298  12.202   9.206  0.6712 -0.3302  0.6737
43504SOL    HW148122   5.324  12.124   9.255 -1.6657 -1.7880 -0.2610
43504SOL    HW248123   5.206  12.188   9.186  0.7347  1.7022 -1.3832
43505SOL     OW48124   2.184   4.238   9.856 -0.0399 -0.4195  0.0477
43505SOL    HW148125   2.214   4.289   9.931  1.8553 -1.8240  0.3180
43505SOL    HW248126   2.264   4.204   9.816 -1.0571 -0.3464 -2.1818
43506SOL     OW48127   8.256   8.603  12.175 -0.0546  0.0599  0.3199
43506SOL    HW148128   8.272   8.510  12.159 -1.1018 -0.2082  0.7270
43506SOL    HW248129   8.300   8.648  12.103 -0.0328 -0.7870 -0.2038
43507SOL     OW48130   2.120  13.337   5.729 -0.5616  0.4031  0.1071
43507SOL    HW148131   2.083  13.342   5.818 -3.7697  0.6746 -1.1077
43507SOL    HW248132   2.064  13.394   5.677  1.7749  0.9327 -1.9874
43508SOL     OW48133  12.762  12.993   8.215  0.2938  0.0046  0.1938
43508SOL    HW148134  12.712  12.922   8.255 -0.2660 -0.1650 -0.7891
43508SOL    HW248135  12.776  12.965   8.124  0.7445  0.8008  0.0068
43509SOL     OW48136  10.856   3.955   6.189  0.2012  0.2335  0.3124
43509SOL    HW148137  10.779   3.900   6.173 -1.0176  1.4585  1.6100
43509SOL    HW248138  10.931   3.897   6.177 -1.0299 -1.9167  2.3401
43510SOL     OW48139   2.995   8.538  11.407 -0.0081 -0.1437 -0.2601
43510SOL    HW148140   2.943   8.592  11.347 -0.1710  0.0825  0.0856
43510SOL    HW248141   2.930   8.485  11.454  0.0590  0.2371  0.2699
43511SOL     OW48142  10.076   3.010   7.556  0.3336 -0.0903  0.6172
43511SOL    HW148143  10.033   3.094   7.570  1.8710  0.7505  0.4487
43511SOL    HW248144  10.100   2.980   7.643  0.7903  0.2082  0.5997
43512SOL     OW48145   1.380   6.152   3.113  0.4352  0.0314 -0.0809
43512SOL    HW148146   1.313   6.154   3.181  2.0489 -0.8540  1.6439
43512SOL    HW248147   1.358   6.224   3.054 -1.4581  0.3381  0.9422
43513SOL     OW48148  10.391   4.956   0.160 -0.2053  0.0293 -0.4165
43513SOL    HW148149  10.457   4.887   0.165  0.1434  0.3400 -0.6698
43513SOL    HW248150  10.315   4.921   0.207 -0.8095 -1.3922 -2.2948
43514SOL     OW48151   1.036   3.494   9.840  0.2538 -0.5322 -0.0900
43514SOL    HW148152   1.093   3.571   9.838 -0.6368  0.1766  0.5169
43514SOL    HW248153   0.987   3.498   9.758 -2.2242  1.5294  1.3465
43515SOL     OW48154   9.496  14.036   0.366  0.5416 -0.5612 -0.1802
43515SOL    HW148155   9.403  14.017   0.350  0.2364  0.8126 -0.1449
43515SOL    HW248156   9.505  14.034   0.461 -0.1593  2.1759  0.0348
43516SOL     OW48157  10.612  13.955   3.754 -0.2181  0.1795  0.8515
43516SOL    HW148158  10.664  13.910   3.687 -0.0130  0.2762  0.9424
43516SOL    HW248159  10.633  14.047   3.743 -0.6930  0.2626  0.6204
43517SOL     OW48160  10.822   0.287  11.986 -0.4206  0.1284 -0.3156
43517SOL    HW148161  10.840   0.237  11.906  1.0390  1.0812 -0.6075
43517SOL    HW248162  10.905   0.286  12.034 -0.8287  0.9119  0.4238
43518SOL     OW48163   9.312   9.923   4.232  1.0240  0.4913  0.0141
43518SOL    HW148164   9.240   9.949   4.176  1.3184  1.0161 -0.1367
43518SOL    HW248165   9.294   9.833   4.256 -0.1797  0.9141  0.7601
43519SOL     OW48166  12.279   7.883   4.148  0.4598 -0.1686 -0.5194
43519SOL    HW148167  12.337   7.958   4.139  2.1767 -1.0817  1.9056
43519SOL    HW248168  12.253   7.861   4.059  3.5212  0.5603 -1.7019
43520SOL     OW48169   4.697   5.754   4.687  0.2544  0.7249 -0.1769
43520SOL    HW148170   4.647   5.779   4.764 -0.5611 -0.6890 -0.2176
43520SOL    HW248171   4.737   5.835   4.656  0.3349  1.3646  1.5395
43521SOL     OW48172   3.677   8.484  10.930  0.2136  0.1137  0.0609
43521SOL    HW148173   3.760   8.460  10.972  0.4678  0.5326 -0.1917
43521SOL    HW248174   3.638   8.401  10.905 -0.2760 -0.1948  1.7386
43522SOL     OW48175  11.626   0.559   3.824 -0.1633  0.1743 -0.5108
43522SOL    HW148176  11.701   0.573   3.767 -0.5012 -1.2548 -1.3674
43522SOL    HW248177  11.566   0.630   3.802  0.0194  0.0593 -1.4346
43523SOL     OW48178   0.144  10.060  10.216  0.5497  0.3799  0.4788
43523SOL    HW148179   0.095  10.075  10.135 -0.5991 -0.1449  1.0493
43523SOL    HW248180   0.162  10.148  10.250  2.9087  0.7220 -1.3624
43524SOL     OW48181   1.903   9.752   2.100  0.0638 -0.0884  0.1823
43524SOL    HW148182   1.871   9.737   2.011 -0.6246  2.0941 -0.0024
43524SOL    HW248183   1.955   9.833   2.093  1.1303 -0.6164  1.5177
43525SOL     OW48184   7.598   5.359  10.694 -0.6276  0.0438  0.0769
43525SOL    HW148185   7.657   5.308  10.638 -0.4123  1.0344 -0.6185
43525SOL    HW248186   7.618   5.450  10.674 -0.3879  0.4477  1.9369
43526SOL     OW48187  13.998   6.111   6.055  0.1905 -0.0038 -0.7613
43526SOL    HW148188  13.944   6.137   5.980 -2.3576 -0.9339  0.6290
43526SOL    HW248189  14.018   6.193   6.099 -1.5765  0.2778 -0.3974
43527SOL     OW48190  10.287   5.525   0.763 -0.1372 -0.0206  0.1323
43527SOL    HW148191  10.222   5.575   0.813  0.6107  0.4333  0.6615
43527SOL    HW248192  10.370   5.568   0.781  0.1174  0.3649 -1.7877
43528SOL     OW48193  10.540   2.441  11.115 -0.2275  0.3094  0.2158
43528SOL    HW148194  10.516   2.452  11.022  1.0647  0.5429 -0.1067
43528SOL    HW248195  10.476   2.379  11.149 -0.2787 -0.3522 -1.0277
43529SOL     OW48196  12.683  12.924  13.543  1.0553 -0.1131  0.2693
43529SOL    HW148197  12.619  12.962  13.483  1.6298  1.3258  0.5314
43529SOL    HW248198  12.679  12.830  13.526 -0.2029  0.0776 -0.6144
43530SOL     OW48199  11.821   5.278  12.750 -0.3000 -0.3885 -0.5407
43530SOL    HW148200  11.827   5.194  12.794  0.5305 -0.7507 -1.3209
43530SOL    HW248201  11.756   5.327  12.800  0.6004 -0.7909  1.0709
43531SOL     OW48202  11.108   0.698   8.257  0.1900 -0.7063  0.0144
43531SOL    HW148203  11.119   0.641   8.181  0.2259  1.4633 -1.7077
43531SOL    HW248204  11.020   0.735   8.246  0.6443  0.5209  0.3716
43532SOL     OW48205   3.191   7.431  13.651  0.5346  0.2789 -0.1056
43532SOL    HW148206   3.270   7.475  13.619  0.0292  2.3176  1.2642
43532SOL    HW248207   3.119   7.489  13.626 -0.4076 -0.8293 -0.0559
43533SOL     OW48208   7.586  10.240  11.926  0.1519  1.1593 -0.5097
43533SOL    HW148209   7.577  10.331  11.897  0.8620  1.1572 -0.7418
43533SOL    HW248210   7.609  10.246  12.018 -0.6982  1.1936 -0.2929
43534SOL     OW48211  11.651   6.044   4.564 -0.3423 -0.3733 -0.4164
43534SOL    HW148212  11.682   5.992   4.490  1.3346 -0.9934  0.6791
43534SOL    HW248213  11.707   6.122   4.565 -1.5865  0.5691 -0.8908
43535SOL     OW48214  10.704   7.591   5.646  0.7001 -0.2222  0.5660
43535SOL    HW148215  10.696   7.496   5.642  0.7221 -0.2975  1.8971
43535SOL    HW248216  10.636   7.619   5.707 -0.1966  0.7700 -0.8047
43536SOL     OW48217   5.286   0.320  10.920 -0.0284  0.2595 -0.1734
43536SOL    HW148218   5.269   0.383  10.990 -0.1979 -1.7209  1.6710
43536SOL    HW248219   5.352   0.261  10.956 -1.6856 -2.1093 -0.7871
43537SOL     OW48220   5.219   7.287   8.461  0.4119  0.4604 -0.4919
43537SOL    HW148221   5.148   7.300   8.399 -0.6922  1.8885  0.9963
43537SOL    HW248222   5.176   7.255   8.541  1.4919  0.8427  0.2709
43538SOL     OW48223   1.176   8.889   4.154 -0.0309 -0.2383  0.3943
43538SOL    HW148224   1.271   8.905   4.155 -0.2603  1.3116 -0.5397
43538SOL    HW248225   1.162   8.833   4.078  0.2387 -1.3363  1.1305
43539SOL     OW48226   2.385   7.410  11.660  0.3890  0.0440 -0.3090
43539SOL    HW148227   2.397   7.329  11.611 -0.2068 -1.2458  1.6030
43539SOL    HW248228   2.315   7.456  11.612 -1.4794 -2.0254  0.2638
43540SOL     OW48229   6.465  13.434   5.016  0.1605  0.1444 -0.4474
43540SOL    HW148230   6.484  13.500   5.082 -1.0163 -0.5296  0.6045
43540SOL    HW248231   6.370  13.436   5.006  0.1561 -0.9868 -0.8018
43541SOL     OW48232   1.760   9.116   4.432  0.0118  0.0478  0.1010
43541SOL    HW148233   1.719   9.090   4.349 -1.1074 -1.8222  1.1642
43541SOL    HW248234   1.731   9.206   4.445 -0.7069  0.0005 -1.0033
43542SOL     OW48235  10.273   1.724   0.807 -0.3083 -0.4792 -0.2803
43542SOL    HW148236  10.263   1.640   0.762  1.1610 -1.0096  0.3134
43542SOL    HW248237  10.198   1.728   0.867 -0.5724 -1.2193 -0.5450
43543SOL     OW48238   9.007  13.689   2.361 -0.2426 -0.0031  0.1376
43543SOL    HW148239   8.990  13.595   2.359 -2.2672  0.3185  0.7031
43543SOL    HW248240   8.946  13.726   2.298 -0.0471  1.0087  0.5237
43544SOL     OW48241   0.752  11.412   3.590  0.0523 -0.1610  0.0834
43544SOL    HW148242   0.730  11.502   3.567  1.0512  0.0636 -0.0384
43544SOL    HW248243   0.806  11.420   3.669  1.5940 -0.5153 -0.8980
43545SOL     OW48244  10.182   1.754   9.244  0.0187  0.4175 -0.5128
43545SOL    HW148245  10.144   1.839   9.267  0.7568  1.0998 -1.6859
43545SOL    HW248246  10.274   1.774   9.224 -0.2990 -0.2532 -2.9507
43546SOL     OW48247   1.215  10.896  13.553  0.5492  0.4360 -0.3246
43546SOL    HW148248   1.142  10.866  13.499 -1.4657  0.4588  2.1788
43546SOL    HW248249   1.192  10.986  13.577  1.6531  0.6259  0.1187
43547SOL     OW48250   1.654   6.773   8.764 -0.3530 -0.3568 -0.3030
43547SOL    HW148251   1.720   6.727   8.712 -0.8666 -2.0739  0.4813
43547SOL    HW248252   1.570   6.739   8.730 -0.7167 -0.7173  0.9060
43548SOL     OW48253   3.673   2.367   2.461 -0.4121 -0.2888  0.4331
43548SOL    HW148254   3.729   2.432   2.503  0.8780 -0.9219 -0.2742
43548SOL    HW248255   3.707   2.359   2.372 -0.6830 -1.7738  0.4389
43549SOL     OW48256   8.973   2.276   0.484  0.3689 -0.3427  0.5744
43549SOL    HW148257   8.894   2.251   0.437  0.4083 -1.2647  0.9650
43549SOL    HW248258   9.009   2.193   0.515  2.8620 -0.2600 -1.7291
43550SOL     OW48259   6.172   3.622  13.386 -0.5071  0.2619 -0.5746
43550SOL    HW148260   6.141   3.695  13.333 -0.1056  0.0842 -1.0645
43550SOL    HW248261   6.098   3.562  13.390 -0.2527 -0.1479 -1.7098
43551SOL     OW48262   6.514  12.222   4.303 -0.4337 -0.6226 -0.1565
43551SOL    HW148263   6.499  12.213   4.208 -1.1735 -2.1373  0.0773
43551SOL    HW248264   6.531  12.315   4.315 -0.5614 -0.3549 -1.7558
43552SOL     OW48265  10.278  12.008   9.878  0.1733 -0.3881  0.2229
43552SOL    HW148266  10.276  11.916   9.851 -1.5535 -1.0944  2.4554
43552SOL    HW248267  10.367  12.037   9.856  0.6967 -2.4989 -0.7514
43553SOL     OW48268   6.228   1.241  10.591 -0.3166  0.1821  0.3070
43553SOL    HW148269   6.280   1.223  10.513  1.1143  0.3566  1.1811
43553SOL    HW248270   6.290   1.232  10.663 -1.6445 -0.1425  1.4439
43554SOL     OW48271  12.917   7.139  12.630 -0.4338 -0.1950 -0.0779
43554SOL    HW148272  12.952   7.078  12.696 -2.3024 -3.5579 -1.8739
43554SOL    HW248273  12.966   7.119  12.551 -1.5112  0.1750 -0.8577
43555SOL     OW48274   7.781   7.123   2.713  0.0996 -0.1874 -0.1514
43555SOL    HW148275   7.732   7.197   2.749  0.3518 -0.3340  0.4943
43555SOL    HW248276   7.829   7.160   2.639 -1.0606 -0.0590 -0.8826
43556SOL     OW48277   2.337  12.613   4.432  0.4309 -0.1297 -0.0102
43556SOL    HW148278   2.308  12.696   4.395 -0.5836  0.2717  1.5659
43556SOL    HW248279   2.409  12.584   4.376 -0.2112  1.0460 -1.4776
43557SOL     OW48280   4.071   4.504   5.545 -0.4352  0.3422 -0.1052
43557SOL    HW148281   4.164   4.521   5.531 -0.3917 -0.0750 -0.3661
43557SOL    HW248282   4.065   4.468   5.633 -0.7918  3.6577  1.3384
43558SOL     OW48283   5.855   2.255   5.702 -1.1869 -0.0648  0.2913
43558SOL    HW148284   5.951   2.249   5.710 -0.8971  1.8598 -1.1075
43558SOL    HW248285   5.841   2.311   5.627 -3.4838 -1.7970 -0.6811
43559SOL     OW48286  11.633   7.843   7.013 -0.3056  0.0509 -0.2874
43559SOL    HW148287  11.671   7.820   7.098 -0.6703  0.1338 -0.1001
43559SOL    HW248288  11.662   7.932   6.996 -2.3454  1.0090  0.9761
43560SOL     OW48289   7.743   5.110   7.438 -0.1642  0.2594  0.5525
43560SOL    HW148290   7.678   5.102   7.368  1.7279  2.8561 -1.7425
43560SOL    HW248291   7.826   5.084   7.397  0.9837  1.7664  1.7948
43561SOL     OW48292   4.177  13.670  13.377  0.2014  0.2735 -0.2784
43561SOL    HW148293   4.120  13.621  13.318  0.2707  0.5909 -0.6148
43561SOL    HW248294   4.198  13.608  13.447 -2.2953  0.7856  1.0207
43562SOL     OW48295  13.613   9.494  13.810 -0.2389  0.1720 -0.4652
43562SOL    HW148296  13.593   9.433  13.738 -0.5967  0.1556 -0.3539
43562SOL    HW248297  13.557   9.570  13.793 -1.7973 -0.6162  0.8472
43563SOL     OW48298   1.294  14.056   5.898  0.1021 -0.3200  0.5251
43563SOL    HW148299   1.302  13.961   5.894  0.4066 -0.2687 -0.2274
43563SOL    HW248300   1.367  14.089   5.846  0.1146  0.3332  0.9394
43564SOL     OW48301  10.949   4.733  10.693 -0.1488 -0.3517  0.0396
43564SOL    HW148302  10.992   4.814  10.665  0.6805  0.0194  2.2348
43564SOL    HW248303  11.006   4.697  10.761 -2.1547 -1.0254  1.4664
43565SOL     OW48304  12.192  13.110  11.679  0.1524  0.1903  0.4234
43565SOL    HW148305  12.216  13.059  11.757  0.3795 -0.6750 -0.2016
43565SOL    HW248306  12.101  13.135  11.694 -0.2808 -1.2334  0.3188
43566SOL     OW48307   6.709  11.941   8.841  0.5290 -0.3415 -0.3479
43566SOL    HW148308   6.617  11.957   8.820 -0.2746  0.2683  3.0213
43566SOL    HW248309   6.736  12.017   8.892  1.4738 -2.4630  2.5850
43567SOL     OW48310   1.756   1.503   4.161 -0.0494 -0.1235  0.0819
43567SOL    HW148311   1.838   1.482   4.207 -0.1580  0.4540  0.5467
43567SOL    HW248312   1.784   1.529   4.073  0.3403  0.8430  0.4798
43568SOL     OW48313   5.049  10.730   4.850 -0.5029  0.5682  0.0749
43568SOL    HW148314   5.011  10.764   4.769 -0.4699 -2.1713 -1.2242
43568SOL    HW248315   4.974  10.699   4.900 -0.3218 -1.1483 -0.6560
43569SOL     OW48316   4.327   1.747   9.930  0.1707 -0.0844  0.0663
43569SOL    HW148317   4.393   1.745   9.861  0.8553 -0.8488  0.7161
43569SOL    HW248318   4.250   1.707   9.891  0.0252  0.9132 -0.7364
43570SOL     OW48319   3.652  13.291   8.603 -0.2927  0.0701  0.2634
43570SOL    HW148320   3.667  13.196   8.605  0.2026  0.0234 -2.3097
43570SOL    HW248321   3.576  13.304   8.660 -0.5973 -1.9199  0.3896
43571SOL     OW48322   8.364   2.104   7.771  0.2483 -0.0915  0.1739
43571SOL    HW148323   8.282   2.153   7.777 -0.0824 -0.0145 -3.0018
43571SOL    HW248324   8.337   2.016   7.743  1.1848  0.0633 -1.3634
43572SOL     OW48325   1.175  12.829  13.577 -0.1254  0.1884 -0.0608
43572SOL    HW148326   1.098  12.847  13.631 -0.7212 -0.1228 -0.7923
43572SOL    HW248327   1.245  12.879  13.619 -0.2275 -1.1305  1.8240
43573SOL     OW48328   7.000   1.548  11.259 -0.0111  0.5886  0.3386
43573SOL    HW148329   6.984   1.642  11.259  1.6510  0.8974 -0.4042
43573SOL    HW248330   6.951   1.515  11.335  1.4392  2.4087  2.1466
43574SOL     OW48331   4.637   0.117   7.852  0.5026 -0.2917 -0.2915
43574SOL    HW148332   4.560   0.149   7.899 -0.1722 -2.0056 -0.1617
43574SOL    HW248333   4.676   0.195   7.813 -0.9877  0.6826  0.1049
43575SOL     OW48334  10.223   7.224   1.504 -0.4798  0.1143  0.6184
43575SOL    HW148335  10.288   7.171   1.457 -0.8272 -0.7968  1.1341
43575SOL    HW248336  10.140   7.180   1.486 -0.9288  1.1054  0.2001
43576SOL     OW48337   4.970   7.291   6.314  0.2628 -0.2649  0.1089
43576SOL    HW148338   4.986   7.309   6.221  0.9550  0.1995  0.3112
43576SOL    HW248339   5.039   7.229   6.338  0.0909 -0.3753  0.3208
43577SOL     OW48340  12.485   0.334   9.257 -0.1243 -0.2258  0.4946
43577SOL    HW148341  12.530   0.285   9.189 -0.1334  0.2038  0.1726
43577SOL    HW248342  12.469   0.270   9.326 -1.0310 -0.9191 -0.3313
43578SOL     OW48343   0.922  12.973  12.608  1.1449  0.1306 -0.7440
43578SOL    HW148344   0.993  12.936  12.659  0.0391 -0.3653  0.5010
43578SOL    HW248345   0.936  13.068  12.612  0.7572  0.1512  1.0463
43579SOL     OW48346   2.117   3.728   8.014 -0.4417  0.4887  0.0724
43579SOL    HW148347   2.060   3.679   7.955 -1.1827  0.5558  0.7226
43579SOL    HW248348   2.139   3.808   7.965 -0.1796  0.0644 -0.5239
43580SOL     OW48349   1.543  13.238   3.533  0.3102 -0.1789  0.2308
43580SOL    HW148350   1.527  13.152   3.571  0.6985 -0.0086  0.7952
43580SOL    HW248351   1.494  13.298   3.588 -1.8901 -0.2324 -1.5181
43581SOL     OW48352  14.036   0.124   4.061 -0.2065  0.2597  0.6935
43581SOL    HW148353  14.039   0.143   4.154 -0.1127 -2.3609  1.2993
43581SOL    HW248354  13.946   0.096   4.044  0.2514 -1.2133  0.4898
43582SOL     OW48355  10.865   2.346   9.910  0.2343 -0.2463 -0.9604
43582SOL    HW148356  10.859   2.438   9.882  0.4172 -0.0076 -0.2507
43582SOL    HW248357  10.826   2.346   9.998  2.2261 -0.4008 -0.0240
43583SOL     OW48358  14.034   0.060  12.002  0.1483 -0.7270  0.1354
43583SOL    HW148359  14.060   0.144  11.963 -0.4905 -0.2807  0.6515
43583SOL    HW248360  13.974   0.022  11.938  1.5207 -1.4693 -0.7643
43584SOL     OW48361   0.649   6.670  10.567 -0.2757 -0.0538  0.8043
43584SOL    HW148362   0.715   6.627  10.513 -0.4477  0.3608  0.2583
43584SOL    HW248363   0.571   6.674  10.511  0.4098  3.1690 -0.1156
43585SOL     OW48364   1.973   8.133  12.164 -0.1790 -0.5891  0.1537
43585SOL    HW148365   1.900   8.114  12.105  1.7716 -1.5746 -2.1533
43585SOL    HW248366   2.025   8.053  12.162  2.4314  1.0110 -0.6355
43586SOL     OW48367   8.056  11.763  13.053  0.0552  0.3170 -0.4410
43586SOL    HW148368   8.114  11.735  13.124  2.2467  0.6326 -1.9759
43586SOL    HW248369   8.002  11.832  13.091  1.5375  0.8473  0.8070
43587SOL     OW48370   0.323   6.800  13.299 -0.1924 -0.4302 -0.1333
43587SOL    HW148371   0.270   6.747  13.240 -0.0590 -0.0291 -0.6171
43587SOL    HW248372   0.288   6.889  13.290 -0.2587 -0.3920  0.4895
43588SOL     OW48373  13.486   9.123   4.456  0.2615 -0.3278 -0.5580
43588SOL    HW148374  13.516   9.212   4.439 -1.5535  0.5020  0.2679
43588SOL    HW248375  13.502   9.110   4.550 -1.3000 -0.0815 -0.2282
43589SOL     OW48376  11.674   5.166   9.057 -0.0318 -0.0168 -0.1551
43589SOL    HW148377  11.755   5.192   9.014 -1.0924  1.1581 -1.5160
43589SOL    HW248378  11.613   5.149   8.986 -0.7788 -1.6392  0.8315
43590SOL     OW48379   8.655   5.168   4.979 -0.3545  0.0190  0.3180
43590SOL    HW148380   8.685   5.095   4.925  0.2008  0.1849  0.3983
43590SOL    HW248381   8.562   5.150   4.994  0.2061 -1.7722  2.0778
43591SOL     OW48382   5.077   1.718  13.238 -0.3857 -0.2648  0.1760
43591SOL    HW148383   5.139   1.782  13.204 -0.2288 -0.2465  0.5042
43591SOL    HW248384   5.106   1.699  13.327 -0.3872 -0.8466  0.0591
43592SOL     OW48385   8.703  12.143   0.686  0.8779  0.2490  0.2962
43592SOL    HW148386   8.681  12.084   0.758  2.5912 -0.4671  0.2864
43592SOL    HW248387   8.753  12.214   0.727 -0.8171  1.5380  0.2439
43593SOL     OW48388   2.890   5.264   6.880  0.2021  0.5010 -0.3363
43593SOL    HW148389   2.813   5.209   6.895 -0.4250  1.0413 -1.4427
43593SOL    HW248390   2.916   5.293   6.968 -0.7919  0.2262  0.0667
43594SOL     OW48391   3.852   9.340  11.532  0.4860  0.2480  0.3308
43594SOL    HW148392   3.821   9.340  11.622  0.7810 -1.0950  0.4572
43594SOL    HW248393   3.852   9.247  11.506  2.0977  0.4187 -0.4408
43595SOL     OW48394   3.483   6.121  13.836 -0.6810 -0.3489 -0.1540
43595SOL    HW148395   3.568   6.147  13.872 -0.5875  0.5031 -0.9573
43595SOL    HW248396   3.490   6.139  13.742 -2.0756  0.6633 -0.0986
43596SOL     OW48397   5.983   3.702   4.813 -0.0505  0.0884  0.3300
43596SOL    HW148398   5.927   3.667   4.744  0.3996  0.2806 -0.1375
43596SOL    HW248399   5.925   3.757   4.866 -0.3792  0.0059  0.0579
43597SOL     OW48400   0.316   2.118  12.387 -0.3701  0.3621 -0.2794
43597SOL    HW148401   0.392   2.176  12.381 -1.5349  1.9242 -0.5920
43597SOL    HW248402   0.353   2.030  12.388  1.6816  1.0638  3.2633
43598SOL     OW48403   5.137   7.341   4.607  0.1271 -0.3602 -0.3621
43598SOL    HW148404   5.105   7.254   4.633 -0.2091 -0.6205 -1.5862
43598SOL    HW248405   5.219   7.352   4.656  0.3440 -1.5074 -0.4343
43599SOL     OW48406   9.725   0.745   3.611 -0.1033  0.1966  0.3409
43599SOL    HW148407   9.789   0.729   3.542 -1.3137  1.0067 -1.0140
43599SOL    HW248408   9.663   0.806   3.573 -1.5607 -0.3616  1.6975
43600SOL     OW48409   0.920   1.923  13.480  0.0052  0.4531  0.6796
43600SOL    HW148410   0.994   1.896  13.426  0.1772  1.5916  0.3138
43600SOL    HW248411   0.960   1.969  13.554 -0.2895 -0.0039  1.1309
43601SOL     OW48412   6.647   4.850  12.660  0.1697  0.2865  0.0284
43601SOL    HW148413   6.675   4.824  12.572 -0.8293 -1.5106  0.1989
43601SOL    HW248414   6.712   4.812  12.719 -0.7424 -1.0319  0.2171
43602SOL     OW48415   5.024   0.284  11.045 -0.7805  0.4424  0.5480
43602SOL    HW148416   5.072   0.267  10.964 -2.2466 -4.6880  0.3905
43602SOL    HW248417   4.955   0.344  11.021 -0.7910 -0.4605 -1.9082
43603SOL     OW48418  10.649   3.338  13.201 -0.2911  0.1473  0.9569
43603SOL    HW148419  10.640   3.355  13.295 -1.0083 -0.9677  1.1031
43603SOL    HW248420  10.645   3.425  13.161 -2.7385  0.5038  1.7744
43604SOL     OW48421  10.510   7.046   4.444  0.6533  0.3358  0.1865
43604SOL    HW148422  10.600   7.035   4.414  0.9726 -1.2146  1.5501
43604SOL    HW248423  10.460   6.978   4.397  0.2278  1.0025 -0.3515
43605SOL     OW48424  12.288   7.818   8.551 -0.0498  0.1840 -0.0126
43605SOL    HW148425  12.245   7.895   8.513  0.8587  1.1809  0.9264
43605SOL    HW248426  12.294   7.837   8.644  0.3389 -0.9746  0.2175
43606SOL     OW48427   3.113  12.342  10.748  0.8126 -0.2446 -0.1234
43606SOL    HW148428   3.187  12.401  10.739  2.0432 -1.6958  0.1916
43606SOL    HW248429   3.047  12.394  10.794  2.5452  0.3338  1.8672
43607SOL     OW48430  10.454  10.984   2.292 -0.1721  0.3150 -0.4599
43607SOL    HW148431  10.490  11.068   2.319  0.0339  0.1923 -0.3549
43607SOL    HW248432  10.422  10.999   2.203  0.8429  0.2137 -0.8468
43608SOL     OW48433   2.141   2.599   3.969  0.7959  0.3865 -0.3628
43608SOL    HW148434   2.045   2.599   3.970  0.7940  0.6159  1.1166
43608SOL    HW248435   2.165   2.507   3.964  0.5392  0.3801 -2.8991
43609SOL     OW48436  12.203   6.283  11.611 -0.4990 -0.9566  1.0041
43609SOL    HW148437  12.192   6.301  11.705  2.6175 -2.0182  1.6986
43609SOL    HW248438  12.161   6.199  11.597  0.4229 -1.5843  1.8750
43610SOL     OW48439  11.075  11.226   9.638  0.2638 -0.1823  0.2187
43610SOL    HW148440  10.992  11.270   9.616  0.5626 -0.2770 -1.1626
43610SOL    HW248441  11.058  11.133   9.623  0.4713 -0.2496  0.3991
43611SOL     OW48442  13.478   6.284  10.760 -0.3133  0.4140  0.4068
43611SOL    HW148443  13.411   6.300  10.827  0.4617 -1.1574  1.6284
43611SOL    HW248444  13.497   6.371  10.724 -3.0172  0.9212 -0.0428
43612SOL     OW48445   3.051  10.282  11.569  0.1812  0.0895  0.4135
43612SOL    HW148446   3.026  10.190  11.581  3.1036 -1.0307 -1.1538
43612SOL    HW248447   2.981  10.320  11.516 -0.8743 -1.3241  0.7475
43613SOL     OW48448   3.208   4.860   3.379  0.3984  0.0668  0.0197
43613SOL    HW148449   3.140   4.870   3.312  0.8589 -0.3872 -0.5300
43613SOL    HW248450   3.271   4.799   3.340  1.4664  0.9953  0.2360
43614SOL     OW48451   9.363  10.385   2.584  0.5224 -0.2506 -0.0388
43614SOL    HW148452   9.385  10.345   2.669  1.8609 -0.8849 -0.6627
43614SOL    HW248453   9.361  10.479   2.602  0.1458 -0.4068  0.8272
43615SOL     OW48454   8.251   5.764  12.716 -0.6531 -0.1469 -0.1090
43615SOL    HW148455   8.217   5.706  12.648  0.0467 -1.4021  0.5884
43615SOL    HW248456   8.332   5.723  12.745  0.8034  2.0568 -0.7790
43616SOL     OW48457  12.518   6.719   4.366 -0.0698 -0.2901  0.1257
43616SOL    HW148458  12.508   6.677   4.280  0.0464 -1.2518  0.5740
43616SOL    HW248459  12.548   6.649   4.424 -1.0022  0.1348  1.1536
43617SOL     OW48460   3.929  13.102   1.987 -0.2707 -0.2531  0.0667
43617SOL    HW148461   3.990  13.076   2.057  0.5185  0.5487 -0.3143
43617SOL    HW248462   3.857  13.039   1.994 -0.6496  0.3439  2.1848
43618SOL     OW48463  11.750   4.031  11.598 -0.5715 -0.4718  0.5956
43618SOL    HW148464  11.666   3.986  11.604 -0.9128  0.0107 -0.2656
43618SOL    HW248465  11.807   3.986  11.660 -1.2223 -1.3538  0.5692
43619SOL     OW48466  10.221  13.812   5.003 -0.2498 -0.3547  0.0636
43619SOL    HW148467  10.203  13.892   5.053  0.3078 -1.3208  1.9046
43619SOL    HW248468  10.224  13.841   4.912  1.8273  2.0905  0.7995
43620SOL     OW48469   9.011   5.668   5.458  0.3385  0.6464  0.1207
43620SOL    HW148470   9.023   5.574   5.471  1.0886  0.6222 -0.6437
43620SOL    HW248471   9.054   5.686   5.374 -0.9643  1.4324 -0.4150
43621SOL     OW48472   3.505   7.671  10.006 -1.0136  0.1706 -0.3373
43621SOL    HW148473   3.505   7.624   9.923 -2.2602 -0.8232  0.1939
43621SOL    HW248474   3.436   7.629  10.058 -0.9567  1.4307  0.8245
43622SOL     OW48475   4.143   8.595  12.296  0.6241 -0.3751  0.6236
43622SOL    HW148476   4.080   8.648  12.344 -0.5124  0.1755 -1.3439
43622SOL    HW248477   4.093   8.560  12.222  2.5167 -0.3058 -0.7611
43623SOL     OW48478   0.962  13.534   2.817 -0.6437  0.0805 -0.2286
43623SOL    HW148479   0.949  13.457   2.873 -0.9369  0.6062  0.4482
43623SOL    HW248480   0.881  13.541   2.767 -0.2550 -0.5781 -0.9706
43624SOL     OW48481   0.363   0.031   8.184 -0.1839 -0.0521  0.0904
43624SOL    HW148482   0.438   0.086   8.202 -0.4333  0.0738  0.7936
43624SOL    HW248483   0.365   0.016   8.089 -0.0754  1.0990 -0.1018
43625SOL     OW48484   8.248  13.232  10.713 -0.6053 -0.3989 -0.3229
43625SOL    HW148485   8.330  13.258  10.756  0.8312 -2.6439 -1.5473
43625SOL    HW248486   8.253  13.270  10.626 -0.3579 -1.3688 -0.7466
43626SOL     OW48487  11.747   4.626   4.564  0.0959 -0.4837  0.4827
43626SOL    HW148488  11.653   4.637   4.557  0.3328  1.9386  0.5146
43626SOL    HW248489  11.762   4.607   4.657 -0.2440  0.8418  0.8291
43627SOL     OW48490   3.105  12.251  11.580  0.1251 -0.2028  0.5185
43627SOL    HW148491   3.166  12.237  11.652  0.8566 -0.3252 -0.1175
43627SOL    HW248492   3.152  12.305  11.517 -0.7214  0.4204  0.3981
43628SOL     OW48493   3.185   5.435  10.833 -0.7255 -0.2802  0.5452
43628SOL    HW148494   3.148   5.347  10.827 -0.2344 -0.4177 -2.4945
43628SOL    HW248495   3.279   5.421  10.842 -0.2028 -0.3241 -3.2226
43629SOL     OW48496   9.111   3.101  13.598  0.0534 -0.4588 -0.5381
43629SOL    HW148497   9.132   3.147  13.680 -0.1630  1.0500 -1.2988
43629SOL    HW248498   9.115   3.169  13.531 -0.5221 -1.5256 -1.6868
43630SOL     OW48499   1.827  12.215   4.482 -0.5408 -0.8466 -0.3993
43630SOL    HW148500   1.733  12.222   4.466 -1.4609 -2.9206  3.1254
43630SOL    HW248501   1.847  12.122   4.472  0.9097 -0.6224  0.0716
43631SOL     OW48502   2.353   3.702  12.025  0.1859  0.2993 -0.0455
43631SOL    HW148503   2.421   3.766  12.048 -0.1621  0.8314 -0.4731
43631SOL    HW248504   2.337   3.716  11.932 -0.5752  0.2401  0.0695
43632SOL     OW48505  11.930   1.402   1.116 -0.8175 -0.2797  0.3718
43632SOL    HW148506  11.836   1.393   1.135 -0.9281 -1.3035 -0.5570
43632SOL    HW248507  11.933   1.464   1.043 -0.5776  1.5749  1.8742
43633SOL     OW48508  11.353   5.838   1.523 -0.2440  0.0125  0.1269
43633SOL    HW148509  11.296   5.881   1.459 -0.2337 -0.1806 -0.0119
43633SOL    HW248510  11.397   5.911   1.568 -0.5992  0.1619  0.2368
43634SOL     OW48511   5.935  13.905  13.296  0.4289  0.0626  0.2491
43634SOL    HW148512   5.923  13.948  13.211 -1.7003 -1.1436 -0.1444
43634SOL    HW248513   6.025  13.925  13.321  1.0940  0.5436 -2.2474
43635SOL     OW48514   6.851   4.560  10.219 -0.0636  0.0424 -0.6462
43635SOL    HW148515   6.771   4.560  10.168 -0.5155 -0.0398  0.0452
43635SOL    HW248516   6.858   4.470  10.253  1.2957 -0.4736 -2.1726
43636SOL     OW48517   1.381   6.020  11.211  0.0157 -0.0539  0.0202
43636SOL    HW148518   1.346   5.948  11.263  0.6143 -0.0695  0.4105
43636SOL    HW248519   1.365   6.098  11.265 -1.8775  0.3121 -0.9952
43637SOL     OW48520  12.001  12.159  10.130 -0.0149  0.0334 -0.1770
43637SOL    HW148521  12.096  12.160  10.117 -0.0184  0.9766 -0.1726
43637SOL    HW248522  11.966  12.192  10.047 -0.3675 -0.7256 -0.3407
43638SOL     OW48523   3.821   0.980   3.262  0.3684  0.0043 -0.0833
43638SOL    HW148524   3.820   0.884   3.264 -1.8818 -0.0182  0.5783
43638SOL    HW248525   3.869   1.002   3.183  0.7090 -1.6673 -0.3866
43639SOL     OW48526   9.319  13.836   5.287 -0.3342  0.1265  0.1154
43639SOL    HW148527   9.327  13.910   5.347 -2.2652  0.5111 -0.0388
43639SOL    HW248528   9.331  13.874   5.200 -1.3493  0.2830  0.0345
43640SOL     OW48529   4.079  12.551   4.047 -0.4560  0.0372 -0.0313
43640SOL    HW148530   3.999  12.510   4.015  0.2926 -1.7299  0.2208
43640SOL    HW248531   4.149  12.495   4.014  0.4298 -1.2789  3.6346
43641SOL     OW48532  11.989   5.140   8.763 -0.2750 -0.2398  0.0999
43641SOL    HW148533  11.966   5.227   8.796  0.2749 -0.7242  1.8544
43641SOL    HW248534  12.068   5.154   8.711 -0.8977  0.4658 -0.7051
43642SOL     OW48535   0.859  11.944   7.055  0.5125 -0.0307  0.6531
43642SOL    HW148536   0.914  12.016   7.087  0.5120 -0.2718  1.2020
43642SOL    HW248537   0.851  11.961   6.961  1.4205  0.0799  0.5823
43643SOL     OW48538   3.256   8.115  11.948  0.2890  0.0046  0.0555
43643SOL    HW148539   3.315   8.189  11.932  1.0045 -0.5609  0.0164
43643SOL    HW248540   3.181   8.154  11.994  0.1093  0.9447 -0.9828
43644SOL     OW48541  12.862   5.132   9.764 -0.3231  0.1231 -0.0267
43644SOL    HW148542  12.773   5.161   9.745 -1.2963 -1.8724  1.0698
43644SOL    HW248543  12.872   5.052   9.712  0.4233 -0.2475  0.6704
43645SOL     OW48544   2.119   4.474  13.660  0.0926  0.0281 -0.4352
43645SOL    HW148545   2.115   4.460  13.565 -1.6310 -1.5364 -0.1996
43645SOL    HW248546   2.076   4.397  13.697 -0.8012  1.3998  1.5554
43646SOL     OW48547   3.373   2.307   6.005 -0.1358 -0.7119 -0.2841
43646SOL    HW148548   3.350   2.399   6.012  0.7300 -0.4087 -1.1246
43646SOL    HW248549   3.290   2.260   6.014 -0.4196  0.0471  1.6108
43647SOL     OW48550  13.114   1.559   2.387 -0.2294  0.4657  0.9150
43647SOL    HW148551  13.053   1.578   2.316  0.6757  0.4586  0.1204
43647SOL    HW248552  13.175   1.632   2.386  2.0634 -1.3301 -0.8273
43648SOL     OW48553  10.472  11.410  11.854 -0.1138 -0.2959 -0.1055
43648SOL    HW148554  10.449  11.411  11.761 -0.3244  0.2695 -0.0534
43648SOL    HW248555  10.387  11.415  11.899  0.0414  0.5681  0.1037
43649SOL     OW48556   3.413  13.777   5.760  0.3148  0.3394  0.5458
43649SOL    HW148557   3.460  13.799   5.840 -0.4975  2.8163  0.4578
43649SOL    HW248558   3.354  13.852   5.746 -2.2438 -1.7145 -0.3863
43650SOL     OW48559   4.784   1.279   0.541  0.3793  0.1544  0.0575
43650SOL    HW148560   4.712   1.215   0.534  1.3976 -1.1268  0.7851
43650SOL    HW248561   4.830   1.273   0.457  0.1347  0.3597 -0.0919
43651SOL     OW48562   9.765   4.608   1.779 -0.2834  0.0154  0.2175
43651SOL    HW148563   9.775   4.686   1.832  1.5682 -0.3206  0.4188
43651SOL    HW248564   9.784   4.535   1.838  2.5719 -0.3382 -0.9368
43652SOL     OW48565   3.563   8.510   0.021 -0.4221 -0.2372  0.5172
43652SOL    HW148566   3.552   8.596  -0.019 -0.2422 -0.4643 -0.0345
43652SOL    HW248567   3.570   8.450  -0.053  0.0540 -0.6534  0.8889
43653SOL     OW48568   6.083   1.693  13.254  0.6089  0.5164  0.3118
43653SOL    HW148569   6.147   1.709  13.324  0.5284 -0.1603  0.5495
43653SOL    HW248570   6.099   1.603  13.227 -0.1748  0.3671  0.3088
43654SOL     OW48571   3.866  14.050   8.362 -0.0886 -0.0681  0.0832
43654SOL    HW148572   3.847  13.970   8.313 -2.3080 -0.2629  1.1724
43654SOL    HW248573   3.909  14.107   8.298 -1.9621 -0.6896 -1.8317
43655SOL     OW48574   4.523   7.825  10.904  0.1560 -0.3216 -0.0267
43655SOL    HW148575   4.571   7.906  10.891 -0.0756 -0.2489 -0.4673
43655SOL    HW248576   4.446   7.833  10.847 -0.5343 -0.3069  0.8779
43656SOL     OW48577   3.214  10.986   6.215 -0.2094  0.1317 -0.1982
43656SOL    HW148578   3.249  10.917   6.272  0.8833  2.4331  2.1413
43656SOL    HW248579   3.189  11.057   6.276 -3.4055  1.0036 -2.2590
43657SOL     OW48580  12.960  12.182  11.391 -0.5881  0.0198  0.1633
43657SOL    HW148581  13.053  12.180  11.415 -0.6488  0.3378  0.4356
43657SOL    HW248582  12.959  12.212  11.301 -0.4551  0.5526  0.3360
43658SOL     OW48583   4.698  11.592   7.444  0.1835 -0.5794  0.3288
43658SOL    HW148584   4.756  11.616   7.516 -0.7702  0.0379  0.9182
43658SOL    HW248585   4.659  11.509   7.471 -0.1343 -0.3741  0.5020
43659SOL     OW48586   8.979   1.087   0.674  0.0826  0.8512  0.1878
43659SOL    HW148587   8.889   1.115   0.691  0.1441  0.5322  1.0587
43659SOL    HW248588   9.026   1.109   0.754  0.5874  0.1897  0.0768
43660SOL     OW48589   6.530   5.880   3.389  1.0095  0.1597  0.4192
43660SOL    HW148590   6.451   5.907   3.435  1.4862  0.3187  1.1739
43660SOL    HW248591   6.506   5.881   3.296  0.5219  1.5181  0.5374
43661SOL     OW48592   5.166   0.889   5.680  0.0663  0.3793  0.4073
43661SOL    HW148593   5.227   0.960   5.658  1.5607 -0.1536  2.4829
43661SOL    HW248594   5.196   0.858   5.766 -1.8389 -1.3771  0.5104
43662SOL     OW48595  11.636  10.068  13.126  0.2969 -0.2384 -0.0900
43662SOL    HW148596  11.693   9.991  13.128 -1.1128 -1.3048  1.6025
43662SOL    HW248597  11.565  10.043  13.067  1.5660  1.1645 -2.3642
43663SOL     OW48598   4.176  11.720   7.192  0.2791  0.3808  0.1431
43663SOL    HW148599   4.181  11.696   7.285  0.7291  0.5007  0.1518
43663SOL    HW248600   4.091  11.687   7.164 -0.1138  0.8448  0.7435
43664SOL     OW48601   5.754   3.763   3.257  0.6735  0.0727  0.4055
43664SOL    HW148602   5.843   3.781   3.287 -0.0339 -1.6798  4.2243
43664SOL    HW248603   5.752   3.668   3.242 -0.2678  0.2631 -0.9220
43665SOL     OW48604   0.988   7.261   1.697  0.4917  0.0831 -0.5026
43665SOL    HW148605   0.905   7.220   1.722  0.5287  0.1463 -0.2753
43665SOL    HW248606   1.053   7.221   1.755  0.9508 -1.4189 -1.9845
43666SOL     OW48607  10.718   4.851   7.508 -0.2280 -0.3673 -0.2007
43666SOL    HW148608  10.813   4.847   7.507 -0.2327 -0.8620  0.4859
43666SOL    HW248609  10.692   4.785   7.572 -1.0511 -0.5356 -0.6946
43667SOL     OW48610   1.202  12.084   9.833  1.1592  0.0518  0.2952
43667SOL    HW148611   1.147  12.051   9.904 -0.1092 -0.6234 -0.9475
43667SOL    HW248612   1.260  12.011   9.812  0.6093 -0.2456 -0.2383
43668SOL     OW48613  13.609  13.449  10.407 -0.4592 -0.1147 -0.0306
43668SOL    HW148614  13.606  13.487  10.495 -4.0102 -0.0670 -0.0357
43668SOL    HW248615  13.621  13.524  10.348 -0.9147  0.2198  0.2950
43669SOL     OW48616   1.177   9.681   9.105  1.0308  0.3047 -0.7620
43669SOL    HW148617   1.183   9.691   9.200 -0.4262  1.4051 -0.7474
43669SOL    HW248618   1.184   9.587   9.090 -3.1022 -0.5033  0.8940
43670SOL     OW48619   7.153   1.326   2.557 -0.3848  0.3540 -0.6622
43670SOL    HW148620   7.090   1.306   2.488 -1.0804  3.2209 -0.9679
43670SOL    HW248621   7.102   1.370   2.624  0.6875 -0.4975  0.7808
43671SOL     OW48622   2.975  11.746   8.327  0.3350 -0.1600  0.3053
43671SOL    HW148623   2.933  11.722   8.244 -1.5643 -0.3816  1.2607
43671SOL    HW248624   3.041  11.678   8.342 -0.1086 -0.7728 -0.4695
43672SOL     OW48625  11.717  12.883  10.430  0.1772  0.9259  0.1950
43672SOL    HW148626  11.689  12.961  10.478  0.5030  1.4481 -0.4439
43672SOL    HW248627  11.745  12.916  10.344  2.9333  0.4726  0.8247
43673SOL     OW48628   3.581   9.038   5.790  0.0545  0.0191 -0.5021
43673SOL    HW148629   3.590   9.132   5.777 -0.4347  0.4153  1.6467
43673SOL    HW248630   3.565   9.028   5.884 -2.1890 -2.0367 -1.0024
43674SOL     OW48631   2.466   7.292   4.465 -0.0418  0.4253 -1.2925
43674SOL    HW148632   2.405   7.227   4.429 -0.6282 -0.0803  0.5184
43674SOL    HW248633   2.411   7.355   4.510  0.7244  0.3194 -0.1731
43675SOL     OW48634   6.607   6.741   4.116 -0.1743  0.4484  0.4564
43675SOL    HW148635   6.523   6.788   4.117  0.2697  1.2983 -0.5388
43675SOL    HW248636   6.640   6.754   4.027  1.8653  1.6596  1.3206
43676SOL     OW48637   7.680  12.274  11.052 -0.4702 -0.2130 -0.8175
43676SOL    HW148638   7.747  12.231  10.999  2.4292  0.1940  2.1836
43676SOL    HW248639   7.684  12.366  11.026  1.9910  0.2612  0.8773
43677SOL     OW48640   2.099  12.575  13.021 -0.0456 -0.8665  0.1263
43677SOL    HW148641   2.040  12.502  13.041  0.0819 -0.9544  0.1856
43677SOL    HW248642   2.147  12.547  12.943  0.4797 -1.1362  0.5309
43678SOL     OW48643   9.813   4.622   0.308  0.4204  0.0126  0.2372
43678SOL    HW148644   9.758   4.615   0.386  0.0856 -0.3722 -0.0265
43678SOL    HW248645   9.783   4.550   0.252  2.0658 -1.0375  0.6366
43679SOL     OW48646   2.097  10.570   9.676 -0.1420 -0.7345  0.2787
43679SOL    HW148647   2.107  10.476   9.656 -0.5838 -0.8330  0.5118
43679SOL    HW248648   2.141  10.614   9.603  1.8634 -1.1323  1.1776
43680SOL     OW48649  13.849   5.690  10.678  0.4273 -0.1522  0.1036
43680SOL    HW148650  13.925   5.637  10.653 -0.2335 -0.4518 -1.3896
43680SOL    HW248651  13.884   5.779  10.687  1.1551 -0.4734  0.5076
43681SOL     OW48652   9.060   1.446  10.425 -0.1283  0.4109 -0.2444
43681SOL    HW148653   9.112   1.472  10.501  1.7412  0.6134 -1.5427
43681SOL    HW248654   9.036   1.529  10.383 -1.0666  0.2939  0.0217
43682SOL     OW48655   6.690  13.134   5.992  0.0892 -0.0679  0.0535
43682SOL    HW148656   6.627  13.129   6.065  1.4720  0.5802  1.3376
43682SOL    HW248657   6.726  13.046   5.986 -0.9165 -0.4468 -0.6971
43683SOL     OW48658   1.961  13.389   1.372  0.3631  0.6526  0.1573
43683SOL    HW148659   1.920  13.302   1.376  1.1183  0.2568 -0.3113
43683SOL    HW248660   2.044  13.378   1.420  0.7483  0.9338 -0.4305
43684SOL     OW48661   9.348  10.718  12.846 -0.2806  0.1454 -0.0230
43684SOL    HW148662   9.440  10.742  12.856  0.1851 -1.0446 -1.2158
43684SOL    HW248663   9.316  10.776  12.777 -0.0066 -0.4658 -0.6726
43685SOL     OW48664   1.463   6.916   2.967  0.6039 -0.0468  0.8184
43685SOL    HW148665   1.383   6.954   3.004  0.1984 -1.5560  1.5330
43685SOL    HW248666   1.515   6.993   2.941 -1.4568  0.9788 -0.5869
43686SOL     OW48667   2.601   5.147   8.075  0.2347  0.2566 -0.7107
43686SOL    HW148668   2.693   5.126   8.088 -0.2939 -1.2040  1.1607
43686SOL    HW248669   2.555   5.095   8.142 -1.9397  0.9276 -1.5989
43687SOL     OW48670   2.981   8.364   3.425 -0.0215  0.5353  0.2094
43687SOL    HW148671   2.984   8.459   3.439  0.9380  0.5314  0.1556
43687SOL    HW248672   3.016   8.352   3.337  1.5368  0.0388  0.8538
43688SOL     OW48673   6.024   9.847   6.624  0.7159  0.3709  0.4741
43688SOL    HW148674   6.085   9.849   6.551 -3.2022 -0.2651 -3.2380
43688SOL    HW248675   5.998   9.938   6.637 -0.4077  0.2659 -0.7959
43689SOL     OW48676   9.531   3.075   3.515 -0.3616  0.1166  0.5778
43689SOL    HW148677   9.586   3.078   3.437  0.2814  0.1128  1.0226
43689SOL    HW248678   9.486   3.160   3.515  0.6731  0.6843  0.9299
43690SOL     OW48679  12.200  13.644   7.796  0.2397 -0.3777  0.0216
43690SOL    HW148680  12.294  13.645   7.774  0.7666 -2.0573  1.8705
43690SOL    HW248681  12.178  13.551   7.798 -0.7591 -0.1440  2.2844
43691SOL     OW48682   4.856   4.702  12.712 -0.0357 -0.1725  0.7666
43691SOL    HW148683   4.839   4.745  12.629 -1.7166 -1.3430  0.4651
43691SOL    HW248684   4.935   4.649  12.696 -0.5564 -0.6725 -0.2000
43692SOL     OW48685  10.156  11.791  10.360  0.3573 -0.3049 -0.2153
43692SOL    HW148686  10.216  11.770  10.431 -0.5413 -2.0162  0.0996
43692SOL    HW248687  10.069  11.789  10.399 -0.0643  0.1322 -1.0788
43693SOL     OW48688   8.158   7.298   4.918 -0.6881  0.0301 -0.8676
43693SOL    HW148689   8.104   7.268   4.845 -1.3289  0.3265 -0.5134
43693SOL    HW248690   8.221   7.358   4.878 -0.1758 -0.8234 -1.3850
43694SOL     OW48691   9.720   3.782   2.136 -0.0119  0.1246 -0.0775
43694SOL    HW148692   9.770   3.700   2.145 -0.9107 -0.3109  1.2834
43694SOL    HW248693   9.755   3.838   2.205 -0.3337  0.3789 -0.1221
43695SOL     OW48694   0.654   3.221  12.597 -0.3757  0.3640  0.5827
43695SOL    HW148695   0.594   3.243  12.526 -1.3877  0.5007  1.4603
43695SOL    HW248696   0.632   3.130  12.619  1.9064 -0.7291 -1.1758
43696SOL     OW48697   0.088  10.292   1.458  0.2352 -0.3463  0.1892
43696SOL    HW148698   0.112  10.279   1.550 -1.6435 -0.0351  0.7698
43696SOL    HW248699   0.079  10.386   1.448  3.1299 -0.0764 -1.1264
43697SOL     OW48700   1.561  10.457   5.717  0.3647  0.3968  0.3016
43697SOL    HW148701   1.553  10.541   5.671 -1.0846 -0.2628 -0.7042
43697SOL    HW248702   1.475  10.444   5.758  0.3618 -0.8710 -0.0607
43698SOL     OW48703   8.567  11.719   3.814 -0.4229 -0.1099 -0.0669
43698SOL    HW148704   8.621  11.696   3.889 -0.8275 -1.3223 -0.1311
43698SOL    HW248705   8.507  11.646   3.804 -2.2078  1.2514  0.0955
43699SOL     OW48706   2.077   4.623   4.548 -0.0422  0.5427  0.2382
43699SOL    HW148707   2.045   4.534   4.562 -2.3824  1.2696 -0.0852
43699SOL    HW248708   2.153   4.612   4.490  0.3412 -1.2803  1.0039
43700SOL     OW48709   4.056   1.999   9.230  0.1444 -0.7086  0.2269
43700SOL    HW148710   4.150   1.978   9.222 -0.2740 -2.2448 -1.5594
43700SOL    HW248711   4.018   1.966   9.148 -1.9427  0.0202  0.8507
43701SOL     OW48712  14.091   7.686   5.928  0.5222  0.0341 -0.0802
43701SOL    HW148713  14.084   7.724   6.016  1.1798  2.7139 -1.0684
43701SOL    HW248714  14.089   7.592   5.942 -0.9115  0.3609  2.6613
43702SOL     OW48715   1.875   3.765   9.687  0.3713 -0.4997 -1.4173
43702SOL    HW148716   1.936   3.823   9.733 -1.2904  0.1167  0.1170
43702SOL    HW248717   1.790   3.785   9.725 -0.7413 -1.6424 -3.1938
43703SOL     OW48718  13.578  12.134  10.842 -0.2383  0.2332  0.2322
43703SOL    HW148719  13.629  12.118  10.763  0.0238  0.8361  0.2768
43703SOL    HW248720  13.582  12.052  10.890 -0.0320  0.0046 -0.1702
43704SOL     OW48721   2.625   8.481   8.312  0.1958  0.9040  0.2327
43704SOL    HW148722   2.557   8.423   8.278 -0.2085  0.2565  2.0054
43704SOL    HW248723   2.597   8.569   8.287 -1.6772  0.7132  1.4507
43705SOL     OW48724   3.824   8.929   5.673 -0.0534 -0.2101 -0.1812
43705SOL    HW148725   3.800   9.012   5.632 -1.5919 -0.6584 -0.2749
43705SOL    HW248726   3.777   8.930   5.757 -1.3211 -1.5751 -0.8179
43706SOL     OW48727   4.432  11.681   2.533  0.0935 -0.0531 -0.2430
43706SOL    HW148728   4.423  11.683   2.438 -3.6857  2.3250 -0.0718
43706SOL    HW248729   4.491  11.753   2.554 -1.6512  1.6249 -0.7867
43707SOL     OW48730   8.848  13.861   9.951 -0.4293  0.5393  0.3430
43707SOL    HW148731   8.933  13.851   9.909 -0.0764 -0.3180  1.2433
43707SOL    HW248732   8.867  13.880  10.042 -1.1790 -0.5879  0.7628
43708SOL     OW48733  10.205   2.126  12.098 -0.4654  0.0246 -0.1337
43708SOL    HW148734  10.193   2.206  12.047 -1.1665 -1.0044 -1.6671
43708SOL    HW248735  10.117   2.094  12.114 -0.1968 -0.3694  0.5963
43709SOL     OW48736  12.899   7.885   4.895  0.4072 -0.3695  0.8544
43709SOL    HW148737  12.975   7.833   4.920  1.1718 -0.2645 -1.1020
43709SOL    HW248738  12.831   7.820   4.878  1.5650 -0.9308 -2.2882
43710SOL     OW48739  12.203   9.316   9.115  0.1572  0.3487 -0.3212
43710SOL    HW148740  12.284   9.367   9.123  0.3584  0.1166 -0.8678
43710SOL    HW248741  12.183   9.317   9.021  1.4965 -2.6249 -0.7469
43711SOL     OW48742   4.697   1.910  13.355  0.6729  0.7780 -0.5596
43711SOL    HW148743   4.649   1.872  13.429  0.6947  0.3416 -0.7679
43711SOL    HW248744   4.635   1.908  13.283  0.6821  1.1223 -0.5824
43712SOL     OW48745   5.322   1.589  10.103  0.3376 -0.2277  0.0936
43712SOL    HW148746   5.292   1.605  10.193 -1.2395  0.2187 -0.4742
43712SOL    HW248747   5.266   1.518  10.072  0.9669 -0.4706 -0.5010
43713SOL     OW48748   8.342   0.426  13.009  0.0879 -0.0540  0.0318
43713SOL    HW148749   8.405   0.404  12.940 -1.0995 -1.2686 -0.7172
43713SOL    HW248750   8.340   0.522  13.010  0.6467 -0.0079 -1.1301
43714SOL     OW48751   9.340   7.954   3.224 -0.0849 -0.7825  0.3595
43714SOL    HW148752   9.364   7.902   3.147 -0.2452 -2.4922  1.4170
43714SOL    HW248753   9.246   7.968   3.215  0.3732  1.8032 -1.3397
43715SOL     OW48754   5.178   0.805  11.052  0.4844  0.7412  0.4904
43715SOL    HW148755   5.145   0.866  10.987  0.1557 -1.1893 -1.2784
43715SOL    HW248756   5.127   0.823  11.131 -0.4476  1.9190 -0.3467
43716SOL     OW48757  13.499   3.731   3.648 -0.5324 -0.1595  0.3534
43716SOL    HW148758  13.522   3.640   3.628  1.1505  0.2636  0.2202
43716SOL    HW248759  13.433   3.754   3.582 -1.1501 -1.3448  0.5375
43717SOL     OW48760   9.975   3.191  11.762  0.0068 -0.3928  0.0457
43717SOL    HW148761   9.916   3.263  11.784  0.9675  0.8776 -1.3656
43717SOL    HW248762   9.935   3.115  11.804 -1.3873  0.8226  1.0564
43718SOL     OW48763  12.784  13.340  13.971 -0.0840  0.0924  0.0384
43718SOL    HW148764  12.856  13.350  14.033 -0.3146 -1.2733  0.5508
43718SOL    HW248765  12.748  13.428  13.962  0.0340  0.3423  1.7513
43719SOL     OW48766   3.154   0.844  10.356  0.2707  0.1159  0.2400
43719SOL    HW148767   3.202   0.761  10.359 -1.4756 -1.0620 -1.6583
43719SOL    HW248768   3.090   0.832  10.286 -1.1007  2.5167  0.9627
43720SOL     OW48769   3.288  12.626   0.208  0.3665  0.2282 -0.2727
43720SOL    HW148770   3.344  12.634   0.286  1.3292  1.5777 -1.0567
43720SOL    HW248771   3.199  12.642   0.240  0.9470  2.8312  0.2830
43721SOL     OW48772   1.351  12.805  11.123  0.8873  0.3469  0.3571
43721SOL    HW148773   1.324  12.740  11.188  0.8337  0.6217  0.6081
43721SOL    HW248774   1.397  12.872  11.172 -0.8708  1.5665  0.4293
43722SOL     OW48775   6.003  11.187   2.755  0.3544 -0.3005 -0.2744
43722SOL    HW148776   6.069  11.128   2.791  0.3400 -0.1172  0.0597
43722SOL    HW248777   5.968  11.233   2.832  0.2277 -0.0028 -0.5087
43723SOL     OW48778   9.842   5.135  11.084  0.3306  0.1768 -0.1182
43723SOL    HW148779   9.852   5.057  11.137  0.5346  1.3778  1.7058
43723SOL    HW248780   9.931   5.164  11.067  0.3518 -1.2128 -2.8081
43724SOL     OW48781  10.087   8.042   3.797 -0.3565 -0.4385 -0.0108
43724SOL    HW148782   9.998   8.028   3.766 -0.1162  0.6568 -1.3036
43724SOL    HW248783  10.117   8.118   3.747  1.3694 -0.9097  0.2712
43725SOL     OW48784   7.087   4.647   1.015 -0.4718 -0.3973  0.2554
43725SOL    HW148785   7.155   4.585   1.042  1.2279  1.8637  1.5358
43725SOL    HW248786   7.095   4.651   0.920  1.6711  0.2458  0.4096
43726SOL     OW48787  13.542   8.595   8.900 -0.4316  0.4256 -0.3798
43726SOL    HW148788  13.590   8.561   8.976  0.3983 -0.4706 -1.2679
43726SOL    HW248789  13.558   8.531   8.831 -1.3172  1.1281 -1.2750
43727SOL     OW48790   3.762   9.183   1.508  0.4205  0.1620 -0.6903
43727SOL    HW148791   3.706   9.142   1.574  0.8529  0.6910  0.0187
43727SOL    HW248792   3.710   9.256   1.474  0.4345  0.2623 -0.4951
43728SOL     OW48793   1.727   5.045   5.728 -0.0772  0.0017  0.4747
43728SOL    HW148794   1.682   4.977   5.779  1.9529 -2.2434 -0.5750
43728SOL    HW248795   1.772   5.097   5.794 -3.0134  1.5597  1.4562
43729SOL     OW48796   0.792   4.804  13.516  0.3855 -0.2031 -0.2064
43729SOL    HW148797   0.739   4.879  13.541  1.7180  0.8671 -0.4902
43729SOL    HW248798   0.830   4.773  13.598 -0.2291 -0.6438 -0.0781
43730SOL     OW48799   0.080   9.113   4.252  0.6143 -0.0887 -0.4832
43730SOL    HW148800   0.037   9.106   4.337  0.1463 -0.8552 -0.7798
43730SOL    HW248801   0.009   9.127   4.190  1.0152  1.2833 -0.6681
43731SOL     OW48802  13.036   0.611   4.787 -0.3780 -0.6462  0.1195
43731SOL    HW148803  13.119   0.610   4.836  1.7423 -0.6691 -3.1370
43731SOL    HW248804  13.040   0.692   4.736 -0.8171 -2.0908 -2.3833
43732SOL     OW48805   3.106   8.817   6.197 -0.3270  0.5566 -0.3412
43732SOL    HW148806   3.102   8.903   6.238  2.1121  0.3695  0.4900
43732SOL    HW248807   3.184   8.821   6.141  0.3685 -1.3644  0.4042
43733SOL     OW48808  13.117   5.101   0.445  0.5068 -0.1949  0.7086
43733SOL    HW148809  13.038   5.122   0.494  0.7964  1.2841  0.5825
43733SOL    HW248810  13.189   5.129   0.502  1.0251 -2.3148  1.2043
43734SOL     OW48811   2.831   0.834   9.124 -0.7734  0.0346 -0.3318
43734SOL    HW148812   2.916   0.873   9.104 -0.0020 -1.3246  0.1438
43734SOL    HW248813   2.776   0.857   9.050 -0.1943  1.4967 -0.3358
43735SOL     OW48814   6.728   6.127   4.877 -0.3624  0.2678  0.2814
43735SOL    HW148815   6.639   6.135   4.842 -1.0532 -2.7074  1.0205
43735SOL    HW248816   6.715   6.106   4.969  0.8474 -3.2061 -0.1949
43736SOL     OW48817  13.183   9.999   9.524  0.3715 -0.1531 -0.0613
43736SOL    HW148818  13.142   9.939   9.586  1.1196  0.5728  1.1983
43736SOL    HW248819  13.147  10.085   9.547  0.9627  0.1843 -0.3653
43737SOL     OW48820   5.056   6.191   0.057 -0.0860 -0.2624  0.0629
43737SOL    HW148821   5.027   6.242   0.132  1.2968  0.4233  0.1720
43737SOL    HW248822   5.036   6.245  -0.019  0.7682  0.1676  0.1321
43738SOL     OW48823   9.519   5.219   2.045  0.2563  0.0142 -0.2948
43738SOL    HW148824   9.537   5.222   1.951  0.3530  1.2739 -0.2419
43738SOL    HW248825   9.425   5.200   2.050  0.4454 -1.0760 -0.6212
43739SOL     OW48826   1.031  12.963   1.961 -0.1997  0.5897 -0.1886
43739SOL    HW148827   1.019  12.888   1.902  0.3843 -0.1526  0.6221
43739SOL    HW248828   0.981  12.941   2.039  1.2512  0.2968  0.6971
43740SOL     OW48829   8.385   3.052   8.449 -0.5490  0.1996 -0.3859
43740SOL    HW148830   8.311   3.098   8.408 -1.2350 -1.0824 -0.6173
43740SOL    HW248831   8.454   3.053   8.381 -0.5388  0.8860 -0.3783
43741SOL     OW48832   2.113   4.853  13.965 -0.5116 -0.2056 -0.7847
43741SOL    HW148833   2.141   4.925  13.909 -0.3568  0.1116 -0.3122
43741SOL    HW248834   2.062   4.796  13.908  1.0132 -0.7519 -1.6639
43742SOL     OW48835   8.218   7.961   9.383 -0.2312  0.1498  0.0628
43742SOL    HW148836   8.218   8.013   9.303 -0.9914 -0.0534 -0.0809
43742SOL    HW248837   8.125   7.951   9.405 -0.0536 -0.3251  0.6212
43743SOL     OW48838   5.768   4.358   2.031 -0.1152 -0.4435  0.1113
43743SOL    HW148839   5.690   4.341   1.978  0.7172 -0.2588 -1.2240
43743SOL    HW248840   5.737   4.413   2.103 -0.9135  1.2646 -1.4436
43744SOL     OW48841   8.491   5.091   5.226 -0.5578 -0.2967 -0.1937
43744SOL    HW148842   8.422   5.029   5.250 -0.7178  0.2087  0.7022
43744SOL    HW248843   8.453   5.142   5.154 -0.9981 -0.2321  0.0822
43745SOL     OW48844  10.312   3.708  12.630  0.0121  0.5620 -0.0490
43745SOL    HW148845  10.311   3.767  12.554  0.5725 -1.8011 -2.0084
43745SOL    HW248846  10.405   3.690  12.645 -0.0814  1.0664  1.3094
43746SOL     OW48847   6.250  13.777   3.249  0.2066  0.2796 -0.0877
43746SOL    HW148848   6.242  13.798   3.342 -0.0822  1.2762 -0.3203
43746SOL    HW248849   6.193  13.840   3.205  1.0767  0.4616 -1.0048
43747SOL     OW48850  12.118  10.143   4.641 -0.4118 -0.2739 -0.1832
43747SOL    HW148851  12.195  10.196   4.663 -1.0846  0.7823 -0.3348
43747SOL    HW248852  12.154  10.057   4.617  0.8667  0.7240 -2.0514
43748SOL     OW48853   4.127   5.836   0.329  0.1167 -0.0172 -0.3767
43748SOL    HW148854   4.190   5.772   0.363 -0.7302 -0.6953 -0.0420
43748SOL    HW248855   4.123   5.818   0.235 -1.2489 -1.5226 -0.0778
43749SOL     OW48856   4.073  11.830  10.405 -0.0120 -0.1181  0.3763
43749SOL    HW148857   4.083  11.773  10.481  1.4567 -1.0914 -0.4905
43749SOL    HW248858   4.060  11.917  10.441 -0.8444 -0.7771  1.7298
43750SOL     OW48859   1.386   5.696   8.463  0.1806 -0.1581 -0.3220
43750SOL    HW148860   1.404   5.673   8.372  0.8945 -0.0481 -0.2122
43750SOL    HW248861   1.311   5.756   8.458  0.2597 -0.0990 -0.8377
43751SOL     OW48862   3.733   0.735   0.290  0.4843 -0.4147 -0.0305
43751SOL    HW148863   3.669   0.774   0.350  0.4322 -0.9615  0.2653
43751SOL    HW248864   3.780   0.811   0.254 -2.5230  0.3516 -2.8270
43752SOL     OW48865   5.686   0.270  13.846 -0.1312 -0.4349  0.2846
43752SOL    HW148866   5.689   0.228  13.760 -1.0947 -3.0517  1.3952
43752SOL    HW248867   5.593   0.284  13.862  0.0044 -0.4314  1.0882
43753SOL     OW48868   7.394   2.775  10.487  0.3549  0.4983 -0.0335
43753SOL    HW148869   7.391   2.812  10.575  0.3198 -0.3773  0.3466
43753SOL    HW248870   7.483   2.740  10.478 -0.0197 -0.5640  0.1619
43754SOL     OW48871  10.923   2.621  11.470 -0.4439 -0.9040  0.4036
43754SOL    HW148872  10.982   2.546  11.467  1.5826  0.6291  0.0431
43754SOL    HW248873  10.953   2.673  11.545 -0.3986  0.6101 -0.6121
43755SOL     OW48874   8.864   2.968   5.492 -0.3867 -0.6115 -0.2551
43755SOL    HW148875   8.773   2.941   5.505 -0.5539  0.5944  1.4670
43755SOL    HW248876   8.867   3.059   5.521  1.5711 -0.9296  0.7725
43756SOL     OW48877   9.659  11.587   2.392  0.1233 -0.4485 -0.1871
43756SOL    HW148878   9.714  11.538   2.331  1.1212  0.5339 -0.1026
43756SOL    HW248879   9.692  11.563   2.478 -0.2491 -0.6195 -0.0904
43757SOL     OW48880   1.782   6.544   3.647  0.6984 -0.1006  0.5479
43757SOL    HW148881   1.844   6.597   3.596 -0.1204 -0.9404 -1.4386
43757SOL    HW248882   1.837   6.490   3.704  1.6806  0.6654  0.3570
43758SOL     OW48883  13.781   7.462   2.030 -0.4685  0.5273  0.0055
43758SOL    HW148884  13.752   7.442   2.118  2.1686 -0.9100  0.6533
43758SOL    HW248885  13.750   7.388   1.977  1.1233 -0.5708  0.5294
43759SOL     OW48886   1.213   7.384   2.874  0.2903  0.4968  0.6119
43759SOL    HW148887   1.199   7.461   2.818  0.1183 -0.5080 -0.8040
43759SOL    HW248888   1.196   7.415   2.963 -0.4102  1.9304  0.0147
43760SOL     OW48889  13.235  10.021  12.595 -0.4279  0.5902 -0.2154
43760SOL    HW148890  13.221   9.961  12.668 -0.1146 -1.4214 -1.7374
43760SOL    HW248891  13.157  10.011  12.540  0.5931 -0.1497 -1.6039
43761SOL     OW48892   8.834   2.432   5.671 -0.5072 -0.0594  0.3980
43761SOL    HW148893   8.913   2.482   5.690 -0.5894 -0.0512  0.7175
43761SOL    HW248894   8.762   2.491   5.692 -0.6148 -0.4979  1.3339
43762SOL     OW48895  12.128  11.246   3.651  0.0288 -0.5329  0.6395
43762SOL    HW148896  12.046  11.269   3.608 -0.0778 -0.9920  0.5895
43762SOL    HW248897  12.115  11.156   3.681  0.0699 -0.1913  1.7157
43763SOL     OW48898   2.002   5.386  10.790  0.0203 -0.3341 -0.8951
43763SOL    HW148899   2.012   5.421  10.878  0.7051  2.0122 -1.8257
43763SOL    HW248900   1.909   5.364  10.783  0.0815 -1.1604  0.5986
43764SOL     OW48901   3.209   5.972   5.148  0.5404 -0.5454 -0.1710
43764SOL    HW148902   3.133   6.011   5.192  1.0973  0.8535 -0.3880
43764SOL    HW248903   3.246   5.912   5.212 -0.4444 -0.8496  0.1245
43765SOL     OW48904   4.999   3.016   2.501  1.2036 -0.3236  0.0729
43765SOL    HW148905   5.025   3.090   2.556  1.2113 -0.2030 -0.0944
43765SOL    HW248906   4.981   2.945   2.563  2.3220 -0.5332  0.1712
43766SOL     OW48907   2.012   7.821   4.664  0.0813 -0.4559  0.0541
43766SOL    HW148908   1.997   7.746   4.722  0.2156 -0.9447 -0.5277
43766SOL    HW248909   2.047   7.889   4.721 -0.1938 -0.7836  0.6218
43767SOL     OW48910  12.925   3.531  12.184  0.9095  0.2598  0.1154
43767SOL    HW148911  12.879   3.478  12.118  2.6896 -0.0609 -0.9346
43767SOL    HW248912  12.860   3.544  12.254 -0.9972  0.4474 -1.5855
43768SOL     OW48913   4.261   0.487   6.317  0.0471 -0.0630 -0.4366
43768SOL    HW148914   4.353   0.496   6.344  0.8527  0.9504 -3.1279
43768SOL    HW248915   4.238   0.573   6.282 -1.2636 -0.8343 -1.5855
43769SOL     OW48916  11.809   7.846   5.642  0.3512 -0.1997  0.0455
43769SOL    HW148917  11.738   7.885   5.590 -0.8249 -2.1151  0.1248
43769SOL    HW248918  11.839   7.917   5.698 -0.6612  1.0033 -0.8723
43770SOL     OW48919   9.037  12.616  13.869 -0.5643  0.1333  0.1435
43770SOL    HW148920   9.015  12.604  13.776  0.3865  0.3520 -0.1249
43770SOL    HW248921   9.026  12.710  13.885  0.2549  0.2653 -0.0269
43771SOL     OW48922   5.549   3.645   9.952  0.0749 -0.1680  0.1269
43771SOL    HW148923   5.571   3.725  10.000  2.0544  0.2599 -1.3723
43771SOL    HW248924   5.476   3.670   9.896  1.2331  0.8796 -0.9637
43772SOL     OW48925  13.602   3.438   7.207 -0.1660 -0.8899  0.3705
43772SOL    HW148926  13.645   3.480   7.281 -1.6221 -3.2221  2.7361
43772SOL    HW248927  13.648   3.354   7.198 -0.4977 -0.9537 -0.9074
43773SOL     OW48928   8.327  12.709  10.743  0.6093 -0.3910 -0.1766
43773SOL    HW148929   8.313  12.804  10.745  2.4639 -0.0886  2.2411
43773SOL    HW248930   8.421  12.699  10.728  0.6128 -1.8122  0.6530
43774SOL     OW48931  12.813   6.106  10.169  0.1011  0.6682  0.4982
43774SOL    HW148932  12.845   6.121  10.258  0.2086  0.3656  0.5129
43774SOL    HW248933  12.724   6.074  10.181  0.2785  0.1834  0.5154
43775SOL     OW48934   2.165   3.554  10.146  0.0567  0.2754  0.1432
43775SOL    HW148935   2.185   3.470  10.106  0.8619  0.6187 -0.1908
43775SOL    HW248936   2.134   3.608  10.073 -1.1916  0.0461  0.4878
43776SOL     OW48937   8.204   9.683   5.584 -0.0934 -0.3688 -0.0540
43776SOL    HW148938   8.193   9.590   5.600  0.8836 -0.6211 -0.7539
43776SOL    HW248939   8.287   9.705   5.625 -0.8208  0.4439  1.0466
43777SOL     OW48940  11.948   7.072   2.455  0.1608 -0.1994  0.0748
43777SOL    HW148941  11.996   7.139   2.503  0.7308 -0.5596  0.0245
43777SOL    HW248942  12.014   7.029   2.401 -0.5033  0.3766 -1.2592
43778SOL     OW48943   4.450  13.579   5.625  0.2477  0.0037 -0.1012
43778SOL    HW148944   4.443  13.504   5.684  0.0738 -0.1019 -0.2511
43778SOL    HW248945   4.379  13.637   5.652 -0.1460 -0.2719 -0.5181
43779SOL     OW48946   4.980  10.190   2.399  0.1796 -0.3826  0.0770
43779SOL    HW148947   4.992  10.282   2.423 -0.7604  0.2880 -1.7940
43779SOL    HW248948   4.887  10.184   2.378  0.0894 -1.9589  0.8335
43780SOL     OW48949   5.362   0.331   5.775 -0.7235  0.1289  0.1604
43780SOL    HW148950   5.399   0.298   5.693 -0.6531  0.0933  0.2066
43780SOL    HW248951   5.426   0.395   5.807 -0.4641 -0.2968  0.4943
43781SOL     OW48952   0.658   0.664  12.798 -0.0953  0.0558  0.1409
43781SOL    HW148953   0.721   0.618  12.742 -2.1115 -3.2174  0.2933
43781SOL    HW248954   0.574   0.652  12.754 -1.1037  1.4377  1.5751
43782SOL     OW48955  10.320   8.720  13.673 -0.2568  0.3437 -0.6621
43782SOL    HW148956  10.246   8.769  13.709 -0.5533 -0.3405 -0.3171
43782SOL    HW248957  10.393   8.783  13.672 -0.2425  0.4046  1.1433
43783SOL     OW48958  10.222   7.600   4.063  0.0720 -0.3960  0.3169
43783SOL    HW148959  10.133   7.632   4.050  0.6823  0.7788 -1.3394
43783SOL    HW248960  10.274   7.679   4.078  1.1520 -0.8522 -0.8442
43784SOL     OW48961  13.639   1.123   3.076 -0.3999 -0.6994  0.3871
43784SOL    HW148962  13.553   1.082   3.080 -1.0812  0.3051 -1.9941
43784SOL    HW248963  13.621   1.217   3.074  0.6732 -0.4911 -0.9626
43785SOL     OW48964  11.431   8.599   6.253  0.4946 -0.3077  0.1639
43785SOL    HW148965  11.440   8.504   6.245  0.3809 -0.2118 -1.2128
43785SOL    HW248966  11.486   8.635   6.184 -1.1828  0.5628 -0.7758
43786SOL     OW48967   4.606   8.821   5.316 -0.1518  0.3034  0.1618
43786SOL    HW148968   4.658   8.817   5.397  0.2656 -1.7067 -0.1431
43786SOL    HW248969   4.593   8.729   5.292 -0.3546  0.8546 -2.0136
43787SOL     OW48970   3.889   1.701   4.238 -0.3743 -0.3668 -0.2614
43787SOL    HW148971   3.815   1.725   4.182  0.3122 -1.7478 -1.8578
43787SOL    HW248972   3.936   1.635   4.187  0.6170 -1.2786  1.7399
43788SOL     OW48973  10.805   7.298   2.188  0.2595 -0.0966 -0.2088
43788SOL    HW148974  10.852   7.306   2.104 -0.5474 -2.3721 -0.9637
43788SOL    HW248975  10.728   7.353   2.178  0.3457 -0.0853 -0.8609
43789SOL     OW48976   2.827   1.916  13.386  0.4047 -0.2171 -0.5486
43789SOL    HW148977   2.760   1.932  13.453 -0.0637 -0.5104 -0.9357
43789SOL    HW248978   2.781   1.866  13.318  1.2661 -1.3193 -0.3589
43790SOL     OW48979   3.860   0.899   4.877  0.5282  0.3867  0.5249
43790SOL    HW148980   3.821   0.895   4.789 -0.0303 -1.1328  0.8004
43790SOL    HW248981   3.951   0.922   4.862  0.3845  0.3651 -0.4419
43791SOL     OW48982   4.552   5.822   0.236  0.4823  0.6713  0.4104
43791SOL    HW148983   4.529   5.904   0.280 -0.1468 -0.5736  2.5488
43791SOL    HW248984   4.470   5.772   0.233  1.2732 -0.7642  1.2265
43792SOL     OW48985   6.349  12.411  11.902 -0.4176  0.1423 -0.2876
43792SOL    HW148986   6.419  12.457  11.949 -0.0976 -2.0967  1.5800
43792SOL    HW248987   6.394  12.364  11.831 -0.7411  2.4694 -2.1757
43793SOL     OW48988   0.344  13.387   2.961  0.0588 -0.5132  0.2222
43793SOL    HW148989   0.305  13.313   3.008 -0.8503 -0.2634 -0.1337
43793SOL    HW248990   0.348  13.457   3.027 -0.5866 -0.3749  0.1177
43794SOL     OW48991  11.746   5.887  11.655  0.0577  0.2483 -0.1765
43794SOL    HW148992  11.793   5.908  11.574  0.5034 -0.1444 -0.0239
43794SOL    HW248993  11.694   5.966  11.673  0.0964  0.4096 -0.7411
43795SOL     OW48994   5.108  13.046   9.550  0.0193  0.3020  0.0019
43795SOL    HW148995   5.136  12.982   9.615 -0.3695 -0.0396 -0.1683
43795SOL    HW248996   5.017  13.024   9.531 -0.1140  0.8895 -0.0709
43796SOL     OW48997  14.088   5.650   5.775  0.5007 -0.1257  0.4724
43796SOL    HW148998  14.038   5.594   5.834  0.1198  0.7254  0.9827
43796SOL    HW248999  14.078   5.738   5.811  1.3890  0.2268 -0.0990
43797SOL     OW49000   7.258   7.084   6.853 -0.2103  0.2276  0.1334
43797SOL    HW149001   7.319   7.020   6.816 -0.2860 -0.0542  0.4970
43797SOL    HW249002   7.301   7.169   6.836 -0.2157  0.1063 -0.5460
43798SOL     OW49003  11.336   8.157   4.464 -0.0472  0.0118  0.2318
43798SOL    HW149004  11.408   8.137   4.524  1.6732  0.5484 -1.5338
43798SOL    HW249005  11.359   8.243   4.428 -1.9188  0.4818  0.0724
43799SOL     OW49006   4.010   5.485   5.250 -0.4621  0.1151 -0.5427
43799SOL    HW149007   3.953   5.446   5.317 -0.1957  0.8382  0.1145
43799SOL    HW249008   3.955   5.486   5.171 -1.2147  0.3920 -0.0297
43800SOL     OW49009   0.907  10.155   9.225  0.0967  0.2419 -0.1017
43800SOL    HW149010   0.993  10.143   9.264  0.3365  1.2803 -0.2783
43800SOL    HW249011   0.868  10.067   9.224  1.3121 -0.3078 -0.4125
43801SOL     OW49012   1.714   2.889  13.006  0.0054  0.4802  0.0013
43801SOL    HW149013   1.686   2.814  12.953 -0.1879  1.1525 -0.8615
43801SOL    HW249014   1.798   2.862  13.042  0.9500  0.6220 -1.9735
43802SOL     OW49015   8.052   9.043   2.467  0.0264 -0.0541  0.1348
43802SOL    HW149016   8.138   9.084   2.463  0.0454  0.0722  1.3729
43802SOL    HW249017   8.017   9.069   2.553 -0.6239 -1.3151  0.2769
43803SOL     OW49018   8.149   9.973   7.218  0.2561  0.7283 -0.0484
43803SOL    HW149019   8.132  10.000   7.308  2.2479 -0.2679  0.6900
43803SOL    HW249020   8.225  10.025   7.191 -0.5511  1.2941 -1.3246
43804SOL     OW49021   8.622  11.078   8.331 -0.2950  0.1530  0.1410
43804SOL    HW149022   8.563  11.032   8.391  1.3980 -2.2323  0.1253
43804SOL    HW249023   8.603  11.171   8.346 -2.0214 -0.4319  2.1759
43805SOL     OW49024  11.532  12.086  13.874 -0.2845  0.5435 -0.4264
43805SOL    HW149025  11.536  12.082  13.969  0.1687 -0.9178 -0.4893
43805SOL    HW249026  11.474  12.014  13.849  0.2575  0.3909 -1.2889
43806SOL     OW49027   3.952  12.830   1.011  1.1716 -0.4306 -1.0076
43806SOL    HW149028   3.920  12.815   0.921  0.1503  1.4514 -1.0151
43806SOL    HW249029   4.007  12.908   1.004 -0.3635  0.8449  0.2344
43807SOL     OW49030   2.491   6.087   2.896 -0.0424 -0.6787 -0.7873
43807SOL    HW149031   2.461   5.997   2.888  0.3869 -0.6468 -3.6201
43807SOL    HW249032   2.586   6.081   2.901 -0.0100 -0.3758 -1.0051
43808SOL     OW49033  12.495   0.086  12.557  0.2806 -0.3326 -0.2724
43808SOL    HW149034  12.421   0.132  12.518  0.3375 -0.3195 -0.3654
43808SOL    HW249035  12.536   0.040  12.484 -0.7893 -1.9373  0.0817
43809SOL     OW49036   3.327   7.305   7.714  0.3855 -0.0254 -0.0727
43809SOL    HW149037   3.271   7.309   7.636 -0.3688  0.9403  0.4852
43809SOL    HW249038   3.294   7.229   7.763 -0.1927  0.3088  0.0646
43810SOL     OW49039   3.692   1.629   9.274 -0.5260  0.4081 -0.3726
43810SOL    HW149040   3.649   1.546   9.295  0.8510 -0.1935  0.2310
43810SOL    HW249041   3.654   1.693   9.335 -1.0939  0.0588 -0.3617
43811SOL     OW49042  13.975   1.643   2.283 -0.4542  0.1820 -0.3221
43811SOL    HW149043  13.953   1.554   2.312  2.4684  0.3824  3.1881
43811SOL    HW249044  14.070   1.642   2.273 -0.4735  2.6610 -1.2835
43812SOL     OW49045   4.952   4.232   5.394 -0.0933  0.9606 -0.0051
43812SOL    HW149046   5.001   4.260   5.316  0.8003 -0.4652 -0.0027
43812SOL    HW249047   5.016   4.181   5.444 -1.2422  0.1353  0.6493
43813SOL     OW49048  11.600   1.857   1.744 -0.2537 -0.6227  0.0940
43813SOL    HW149049  11.561   1.810   1.818  0.8723 -0.4298  0.8196
43813SOL    HW249050  11.533   1.921   1.719 -0.6324 -0.6669  0.9640
43814SOL     OW49051   8.708   9.359   6.425  0.7858 -0.4361 -0.3622
43814SOL    HW149052   8.652   9.405   6.363  1.0748  0.5755  0.1114
43814SOL    HW249053   8.758   9.298   6.370  0.8641  0.2709 -1.1016
43815SOL     OW49054   9.585   4.510   6.205 -0.2202 -0.2393 -0.1823
43815SOL    HW149055   9.584   4.587   6.147 -0.0710  0.9875  1.3897
43815SOL    HW249056   9.500   4.468   6.190 -0.2325  0.1182 -1.1925
43816SOL     OW49057   4.035  12.646   8.798  0.2609 -0.0399 -0.0377
43816SOL    HW149058   3.975  12.610   8.732 -0.1468  1.6181 -0.6154
43816SOL    HW249059   4.064  12.729   8.760  0.4105  0.7126  1.6668
43817SOL     OW49060  11.674   5.979   9.381 -0.2105 -0.0437 -0.3301
43817SOL    HW149061  11.619   6.048   9.419 -0.1820 -0.9336  1.4284
43817SOL    HW249062  11.761   6.016   9.377 -0.2244  0.0865  0.4723
43818SOL     OW49063   4.709   2.114   3.222 -0.1232 -0.3081  0.3849
43818SOL    HW149064   4.736   2.032   3.179  0.9941 -0.3793  1.1869
43818SOL    HW249065   4.648   2.086   3.290 -0.1128 -0.4331  0.3430
43819SOL     OW49066   5.940   2.568   9.994  0.3937 -0.3790 -0.0890
43819SOL    HW149067   6.029   2.548   9.966  0.6450  1.5698 -0.7933
43819SOL    HW249068   5.885   2.537   9.922  0.6507  0.1099 -0.4986
43820SOL     OW49069  12.710   5.824   8.004 -0.0634  0.5275  0.1526
43820SOL    HW149070  12.737   5.758   8.068 -2.3325 -0.8519 -0.2040
43820SOL    HW249071  12.615   5.814   7.998 -0.2697  2.7045 -1.1957
43821SOL     OW49072  13.573  13.683   5.391  0.1893  0.6013 -0.0687
43821SOL    HW149073  13.534  13.691   5.303 -1.7670 -0.0657  0.6919
43821SOL    HW249074  13.572  13.773   5.425 -0.6126  0.6214 -0.1166
43822SOL     OW49075  12.860   0.828   8.300 -0.0329  0.3908 -0.3467
43822SOL    HW149076  12.925   0.846   8.232  1.9228  1.6909  1.7278
43822SOL    HW249077  12.850   0.911   8.346 -1.4710 -0.3827  0.8202
43823SOL     OW49078   7.614   3.302   5.255 -0.6360 -0.4134 -0.3637
43823SOL    HW149079   7.554   3.270   5.322 -1.0409  0.0663 -0.4907
43823SOL    HW249080   7.582   3.262   5.174 -1.4434  0.6872 -0.6014
43824SOL     OW49081   9.226   1.295  10.676 -0.3112 -0.4368 -0.8867
43824SOL    HW149082   9.307   1.251  10.653 -0.0094 -0.2172 -0.2745
43824SOL    HW249083   9.162   1.225  10.686  0.3211 -0.8310  0.7182
43825SOL     OW49084  11.413   0.959   7.255 -0.3394  0.3219  0.4680
43825SOL    HW149085  11.339   0.955   7.195 -0.9577  0.6188  1.1897
43825SOL    HW249086  11.411   1.048   7.290  2.0747  1.3077 -1.5943
43826SOL     OW49087   9.229   0.952  12.774 -0.6196  0.2652  0.4973
43826SOL    HW149088   9.210   0.906  12.692  1.4256 -4.3131  2.2082
43826SOL    HW249089   9.149   0.941  12.826 -0.8814  0.5996  0.1789
43827SOL     OW49090  13.791   8.846   3.793  0.1955  0.4557  0.6240
43827SOL    HW149091  13.712   8.866   3.743 -0.5376 -0.9930  1.1526
43827SOL    HW249092  13.849   8.803   3.731 -0.2545 -0.3140  0.7344
43828SOL     OW49093   0.437   1.469  13.334  0.2600 -0.3197  0.0962
43828SOL    HW149094   0.422   1.428  13.249 -1.1790  0.8597 -0.2585
43828SOL    HW249095   0.364   1.439  13.388  0.0501  0.5066  0.2924
43829SOL     OW49096   0.183   4.975   0.779 -0.0014 -0.8225 -0.0087
43829SOL    HW149097   0.235   5.039   0.828  0.2824 -0.8211 -0.3055
43829SOL    HW249098   0.211   4.986   0.688 -1.2176 -0.1488 -0.3262
43830SOL     OW49099  13.437   8.971  14.076 -0.7637 -0.6637 -0.3146
43830SOL    HW149100  13.369   9.010  14.132 -1.3934  0.5634 -1.8677
43830SOL    HW249101  13.475   8.902  14.130 -1.9283 -0.1041  1.3110
43831SOL     OW49102   6.878  10.803   1.434  0.0136 -0.0464  0.1586
43831SOL    HW149103   6.825  10.882   1.432 -3.7788 -2.3272  1.0129
43831SOL    HW249104   6.941  10.814   1.362 -0.0260  3.8041  0.5246
43832SOL     OW49105   2.532   6.202   2.534 -0.3651 -0.2282 -0.6013
43832SOL    HW149106   2.460   6.221   2.594  0.1722 -0.5666  0.1609
43832SOL    HW249107   2.572   6.288   2.517 -1.1729  0.0139 -1.3331
43833SOL     OW49108   5.913  14.056  13.047  0.2326  0.4486  0.0971
43833SOL    HW149109   5.975  13.993  13.009 -0.0749  0.3183 -0.2046
43833SOL    HW249110   5.885  14.109  12.972 -0.4837  0.1015  0.1055
43834SOL     OW49111   2.254   4.830  13.505  0.2980  0.3556  0.1180
43834SOL    HW149112   2.211   4.871  13.430 -0.7240 -2.3518 -0.8889
43834SOL    HW249113   2.207   4.865  13.581  0.0836  1.7056 -0.6046
43835SOL     OW49114   3.502   2.387  11.222 -0.2586 -0.4760  0.2580
43835SOL    HW149115   3.445   2.457  11.253 -1.1428  0.4261 -3.0549
43835SOL    HW249116   3.550   2.359  11.300 -2.6421  1.1414  2.4739
43836SOL     OW49117  11.187   4.238   5.698 -1.0305 -0.0292 -0.5855
43836SOL    HW149118  11.180   4.171   5.766  1.2785 -0.6480 -0.8888
43836SOL    HW249119  11.166   4.320   5.743  1.7184 -0.2313  1.3114
43837SOL     OW49120   5.368  12.653  10.595 -0.0674 -0.3772  0.2515
43837SOL    HW149121   5.424  12.720  10.557 -0.1114  1.0209  2.4397
43837SOL    HW249122   5.280  12.676  10.567 -0.0291  0.2409  0.6100
43838SOL     OW49123   2.801   4.113  12.139  0.2819 -0.4371 -0.1070
43838SOL    HW149124   2.750   4.168  12.079  2.4792 -1.0417 -2.7023
43838SOL    HW249125   2.842   4.175  12.199  1.2504  0.6714 -1.8296
43839SOL     OW49126   3.704   0.083  11.578  0.4784 -0.0974  0.4450
43839SOL    HW149127   3.740   0.141  11.645 -0.2486 -1.2957  1.9484
43839SOL    HW249128   3.779   0.060  11.523  1.4317 -0.2388  1.7474
43840SOL     OW49129   2.158   7.108  10.711 -0.8702  0.1476  0.0484
43840SOL    HW149130   2.132   7.063  10.631  1.1535 -1.8576  0.4079
43840SOL    HW249131   2.076   7.136  10.751 -1.9067  1.7180 -2.9274
43841SOL     OW49132   6.885  10.626   6.535  0.3467  0.2826  0.4707
43841SOL    HW149133   6.967  10.577   6.528 -0.6015 -1.1947 -1.1878
43841SOL    HW249134   6.888  10.689   6.463  0.5775  1.1922  1.2422
43842SOL     OW49135   9.038   8.290   1.061 -0.0027  0.4287  0.9569
43842SOL    HW149136   9.026   8.286   0.966 -1.5246 -2.4420  1.1730
43842SOL    HW249137   9.009   8.378   1.085  0.1298  1.1161 -1.1696
43843SOL     OW49138   5.669  12.840   0.868  0.2144  0.4026 -0.2481
43843SOL    HW149139   5.622  12.858   0.787  1.6874  1.3116 -0.9561
43843SOL    HW249140   5.601  12.836   0.935 -1.1598 -1.4454 -1.6521
43844SOL     OW49141  12.091  11.056   5.397 -0.6401 -0.9526  0.7319
43844SOL    HW149142  12.179  11.076   5.427 -0.0794 -1.7119 -0.3428
43844SOL    HW249143  12.045  11.140   5.401  0.3834 -0.3643  0.4809
43845SOL     OW49144  12.385   0.201   4.374 -0.0231  0.0949 -0.2069
43845SOL    HW149145  12.408   0.202   4.467 -2.0290 -0.3688  0.3339
43845SOL    HW249146  12.432   0.126   4.339  1.5770  0.8803  0.1804
43846SOL     OW49147   0.696  13.045   3.447  0.2491 -0.2688  0.0695
43846SOL    HW149148   0.777  13.086   3.417  1.3884 -2.4334 -0.0572
43846SOL    HW249149   0.702  12.955   3.414  0.0855 -1.9167  3.9360
43847SOL     OW49150   2.951  13.051   4.259 -0.0414 -0.1045  0.1864
43847SOL    HW149151   3.012  13.001   4.313  0.1689 -0.5850 -0.4913
43847SOL    HW249152   2.946  13.136   4.302  0.9180 -0.1375  0.3900
43848SOL     OW49153  13.364  13.203   3.474  0.8198  0.1375  0.3912
43848SOL    HW149154  13.447  13.200   3.521  1.2755  1.1350 -0.3214
43848SOL    HW249155  13.309  13.262   3.526  0.2639 -1.1067  1.2744
43849SOL     OW49156   9.876   9.715  10.770 -0.1538 -0.0703  0.5600
43849SOL    HW149157   9.817   9.642  10.791  0.3302  0.0519  2.5488
43849SOL    HW249158   9.843   9.788  10.821 -0.8467  1.2791 -1.6852
43850SOL     OW49159   7.766   6.523   8.596  0.5321 -0.0629  0.2229
43850SOL    HW149160   7.682   6.477   8.594  0.2562  0.4318  0.0632
43850SOL    HW249161   7.824   6.466   8.646  0.8208 -1.6328 -1.7788
43851SOL     OW49162   8.764   1.088   6.162  0.0086  0.3116  0.9103
43851SOL    HW149163   8.802   1.128   6.083  0.4558  0.6651  1.3004
43851SOL    HW249164   8.682   1.135   6.176 -0.9489 -0.8934 -0.3155
43852SOL     OW49165   1.628   1.573   0.178 -0.3938  0.3094  0.4424
43852SOL    HW149166   1.538   1.605   0.180  0.0210  1.6019  3.1600
43852SOL    HW249167   1.623   1.485   0.213 -0.8135 -0.5299 -1.5815
43853SOL     OW49168   4.048   5.264   7.932  0.1141 -0.5005  0.1346
43853SOL    HW149169   4.009   5.267   7.845  0.8327 -0.0188 -0.1927
43853SOL    HW249170   4.063   5.171   7.950 -0.1292 -0.6060 -0.2090
43854SOL     OW49171   1.196   3.025   3.570  0.0237 -0.6903  0.1610
43854SOL    HW149172   1.253   3.097   3.540 -0.0311 -0.5321  0.4324
43854SOL    HW249173   1.223   2.950   3.517 -0.2193 -0.3630 -0.4370
43855SOL     OW49174  10.928  10.828   0.224 -0.8134  0.1652  0.4023
43855SOL    HW149175  10.848  10.776   0.234  0.2296 -1.3948  0.8783
43855SOL    HW249176  10.983  10.776   0.165  0.2517  0.7433  0.8645
43856SOL     OW49177  12.964  11.965   0.251  0.2931 -0.1086 -0.3425
43856SOL    HW149178  12.934  12.034   0.312  0.2507 -1.2495  0.9810
43856SOL    HW249179  12.916  11.983   0.170 -1.6986 -0.0830  0.7783
43857SOL     OW49180   1.308   2.879   7.353  0.4448 -0.0330 -0.0719
43857SOL    HW149181   1.260   2.876   7.271 -1.4885 -1.0854  1.0253
43857SOL    HW249182   1.386   2.826   7.338 -0.6705 -1.5314 -0.7714
43858SOL     OW49183   1.543   0.347  10.302  0.0693  0.4527  0.6216
43858SOL    HW149184   1.589   0.300  10.233 -1.8906  0.5994 -0.8719
43858SOL    HW249185   1.498   0.278  10.352 -0.1079  0.4860  0.5090
43859SOL     OW49186   1.258   1.245  12.767 -0.0230 -0.1591 -0.3604
43859SOL    HW149187   1.352   1.259  12.779  0.0317 -0.3099 -0.6057
43859SOL    HW249188   1.252   1.158  12.729 -0.2630 -0.1498 -0.3409
43860SOL     OW49189   4.324   9.411   2.499 -0.5233  0.5176 -0.1426
43860SOL    HW149190   4.322   9.395   2.404  0.1300 -0.9278  0.0681
43860SOL    HW249191   4.407   9.457   2.513  1.0409 -2.1869  0.0953
43861SOL     OW49192  10.853   7.434   9.115 -0.3482  0.1832  0.2780
43861SOL    HW149193  10.840   7.495   9.043 -1.5217 -0.6557 -0.2485
43861SOL    HW249194  10.947   7.437   9.132 -0.4624  2.7569  0.8543
43862SOL     OW49195  11.436   3.782   0.868  0.8202 -0.2069 -0.1687
43862SOL    HW149196  11.511   3.831   0.902  0.0920  0.4919  0.4665
43862SOL    HW249197  11.424   3.711   0.932 -0.0456  0.6343  0.6427
43863SOL     OW49198   2.847   8.549   3.715 -0.1703  0.1904  0.7141
43863SOL    HW149199   2.897   8.503   3.648 -0.7490  0.3931  0.1338
43863SOL    HW249200   2.791   8.482   3.754  1.9414 -0.5289  2.8098
43864SOL     OW49201   5.912  12.193   2.123  0.2465  0.1742 -0.0679
43864SOL    HW149202   5.861  12.254   2.070  1.8503  0.0209 -1.8822
43864SOL    HW249203   5.849  12.126   2.150 -1.3857  2.1149  1.2913
43865SOL     OW49204   7.405   1.465   4.379  0.3696 -0.6074 -0.1660
43865SOL    HW149205   7.436   1.407   4.310 -0.5950 -2.9478  1.2592
43865SOL    HW249206   7.342   1.413   4.429 -1.5573  2.0868  0.4629
43866SOL     OW49207   3.180   8.937   8.938 -0.7702  0.5204 -0.4231
43866SOL    HW149208   3.124   8.906   9.009 -0.2394  1.2494  0.3338
43866SOL    HW249209   3.164   8.876   8.866 -3.1396  1.1829 -0.5275
43867SOL     OW49210  13.966   7.951   9.677 -0.0147 -0.0335  0.1042
43867SOL    HW149211  13.907   8.025   9.687 -0.9770 -0.7717  0.0361
43867SOL    HW249212  14.009   7.943   9.763  1.4607  1.6970 -0.4233
43868SOL     OW49213   8.393  12.995   1.695  0.6526 -0.1858  0.1830
43868SOL    HW149214   8.310  12.995   1.742  0.2127 -1.6489 -0.5089
43868SOL    HW249215   8.460  12.999   1.763  0.0182  0.5544  0.7707
43869SOL     OW49216   9.122   0.759  13.384 -0.0105  0.0421  0.2153
43869SOL    HW149217   9.082   0.760  13.471  1.3656  1.1170  0.8759
43869SOL    HW249218   9.210   0.795  13.398  1.4610 -2.7219 -1.0354
43870SOL     OW49219   1.908   0.939  10.313 -0.4887 -0.2106  0.2811
43870SOL    HW149220   1.831   0.936  10.370 -2.0335  0.9150 -1.6082
43870SOL    HW249221   1.912   1.030  10.282  0.8824 -0.5344 -0.5993
43871SOL     OW49222   3.669   9.771   9.348 -0.4455 -0.3646 -0.2621
43871SOL    HW149223   3.732   9.699   9.359 -0.1088 -0.1399 -0.6754
43871SOL    HW249224   3.583   9.729   9.357 -0.2420 -0.4714  1.5285
43872SOL     OW49225   1.883   7.260   3.956  0.0466 -0.1979 -0.6899
43872SOL    HW149226   1.877   7.351   3.927  1.0672  0.2074  0.2571
43872SOL    HW249227   1.800   7.243   4.000 -0.5851 -0.0865 -1.8083
43873SOL     OW49228   8.859   5.254   9.206 -0.0301 -0.4001  0.2237
43873SOL    HW149229   8.861   5.324   9.141  1.6083  0.3642  1.0365
43873SOL    HW249230   8.865   5.173   9.155  0.9684  0.1804 -0.5925
43874SOL     OW49231  10.805   9.029   2.810 -0.7957 -0.5650 -0.2632
43874SOL    HW149232  10.750   9.025   2.889 -0.1353  0.5111  0.2652
43874SOL    HW249233  10.778   9.110   2.767 -2.3681 -1.9671 -2.0916
43875SOL     OW49234   3.212   3.028  11.447  0.6058  0.0027 -0.0903
43875SOL    HW149235   3.287   2.970  11.462  1.7810  1.0170 -1.6965
43875SOL    HW249236   3.182   3.051  11.535  1.1561 -1.6978  0.5798
43876SOL     OW49237   3.514   0.835  10.607 -0.0375 -0.3048 -0.1410
43876SOL    HW149238   3.419   0.840  10.625  0.0997  1.9706  0.3166
43876SOL    HW249239   3.552   0.812  10.692 -0.0347  1.4689  0.3810
43877SOL     OW49240   2.741   1.741   5.556 -0.0300 -0.3457  0.0440
43877SOL    HW149241   2.648   1.740   5.579 -0.3054  1.1950 -0.8735
43877SOL    HW249242   2.784   1.700   5.631 -1.5478 -2.5207 -0.1594
43878SOL     OW49243  13.185   8.418  11.063  0.2562 -0.2178  0.2465
43878SOL    HW149244  13.253   8.473  11.024 -0.0904 -0.2327 -0.4008
43878SOL    HW249245  13.226   8.379  11.140  0.5064  0.9416  0.7090
43879SOL     OW49246   8.539  10.063   3.737  0.3737 -0.3960 -0.0370
43879SOL    HW149247   8.449  10.056   3.705  0.0443  0.0708  0.7681
43879SOL    HW249248   8.593  10.058   3.658 -0.3268 -1.2372 -0.4767
43880SOL     OW49249  12.277   7.462  11.278 -0.4062 -0.4364  0.0025
43880SOL    HW149250  12.234   7.498  11.200  0.1729 -0.4571 -0.3336
43880SOL    HW249251  12.246   7.518  11.349  0.4358  0.7257 -0.5030
43881SOL     OW49252   6.348  10.482   5.759 -0.0310  0.3863 -0.3052
43881SOL    HW149253   6.286  10.410   5.761 -2.0196  1.9489 -1.6741
43881SOL    HW249254   6.412  10.458   5.692 -0.1933 -0.4443 -0.1717
43882SOL     OW49255  11.913   5.407   8.793 -0.4303  0.3871 -0.0433
43882SOL    HW149256  11.895   5.485   8.740  1.1827  0.5344 -0.4445
43882SOL    HW249257  11.895   5.435   8.883  0.8801  1.5155 -0.0913
43883SOL     OW49258   6.656   2.816  12.114  0.1338 -0.0309  1.3540
43883SOL    HW149259   6.627   2.901  12.146 -1.0563  0.6957 -1.3872
43883SOL    HW249260   6.579   2.759  12.125  0.6358 -0.5655  2.3168
43884SOL     OW49261   2.369   2.153   3.538  0.5511  0.6998 -0.3423
43884SOL    HW149262   2.331   2.241   3.536  0.0138  0.4802 -2.5595
43884SOL    HW249263   2.340   2.116   3.622  1.1267  2.7365  0.8222
43885SOL     OW49264   1.543   3.741   9.932  0.0922 -0.1959 -0.1236
43885SOL    HW149265   1.459   3.782   9.950  0.2565  0.0942 -0.0151
43885SOL    HW249266   1.597   3.811   9.896  0.4613 -0.2482  0.3220
43886SOL     OW49267   7.860   8.177   3.512 -1.0424  0.8157 -0.2268
43886SOL    HW149268   7.794   8.246   3.513 -0.6102  1.2450  1.3539
43886SOL    HW249269   7.829   8.114   3.446 -3.2586  0.7758  0.7927
43887SOL     OW49270   4.654  10.999   3.915 -0.5067 -0.0339 -0.4552
43887SOL    HW149271   4.575  11.033   3.872 -0.6564  0.2851  0.0703
43887SOL    HW249272   4.697  10.947   3.847 -0.5888  0.7092 -1.0820
43888SOL     OW49273   8.089  13.687  10.526 -0.1520 -0.0630  0.2713
43888SOL    HW149274   8.075  13.619  10.461 -0.9207  0.4103 -0.0705
43888SOL    HW249275   8.129  13.759  10.477 -1.4757  0.6063  0.1192
43889SOL     OW49276  10.275   3.756   6.413 -0.6537 -0.3138  0.3193
43889SOL    HW149277  10.277   3.697   6.489  1.0592 -1.1034 -0.2988
43889SOL    HW249278  10.318   3.836   6.444 -0.7575 -0.3048  0.4415
43890SOL     OW49279   5.274   4.880   1.311  0.2109 -0.2865  0.1627
43890SOL    HW149280   5.219   4.849   1.383 -0.4754 -0.9811 -0.6330
43890SOL    HW249281   5.244   4.970   1.296 -1.4019 -0.9466 -0.8555
43891SOL     OW49282  10.368  11.982   1.150 -0.0084 -0.2605  0.7812
43891SOL    HW149283  10.299  11.941   1.201 -0.4413  1.0095  1.2507
43891SOL    HW249284  10.355  12.076   1.162  0.8994  0.0362 -0.3246
43892SOL     OW49285   4.912  13.909   6.332 -0.9814  0.9114  0.2362
43892SOL    HW149286   4.959  13.917   6.415  0.8807  1.8786 -0.8338
43892SOL    HW249287   4.886  13.817   6.328  1.8206 -0.0017  0.4648
43893SOL     OW49288  14.018  10.487  13.305 -0.2706 -0.3615 -0.0606
43893SOL    HW149289  14.081  10.416  13.300  0.5470  0.3197  0.2889
43893SOL    HW249290  13.935  10.449  13.275  0.3768 -1.1870 -0.8311
43894SOL     OW49291  12.391   8.351  11.813 -0.1436  0.2616  0.2762
43894SOL    HW149292  12.441   8.356  11.895 -1.4384  1.8257  1.0188
43894SOL    HW249293  12.443   8.402  11.751  1.3816 -1.7960 -0.2417
43895SOL     OW49294   3.517   7.366   1.854  0.1774  0.3732 -0.1459
43895SOL    HW149295   3.457   7.406   1.916 -2.8554 -1.2204 -1.8186
43895SOL    HW249296   3.460   7.327   1.787  3.1582  0.9588 -3.3214
43896SOL     OW49297  13.661   3.827   6.677 -0.7141 -0.1997  0.0141
43896SOL    HW149298  13.610   3.903   6.706 -1.4109 -0.4483 -0.5088
43896SOL    HW249299  13.707   3.798   6.756 -0.1579  0.9688  0.1350
43897SOL     OW49300   4.674   0.093   3.067 -0.2326  0.1284  0.2864
43897SOL    HW149301   4.693   0.183   3.041  0.0408 -0.1931 -0.7056
43897SOL    HW249302   4.612   0.062   3.000  1.9843 -1.3545 -1.2160
43898SOL     OW49303   0.973   3.925  13.042  0.4774  0.2395 -0.6437
43898SOL    HW149304   0.912   3.991  13.075 -0.4934 -1.7749  1.9122
43898SOL    HW249305   1.029   3.904  13.117  1.2158 -1.3315 -1.5853
43899SOL     OW49306  13.730   7.707   5.574  0.3113 -0.0619 -0.2248
43899SOL    HW149307  13.638   7.733   5.569 -0.6974 -2.3517  3.2195
43899SOL    HW249308  13.764   7.754   5.650  0.3981 -3.0459  1.7323
43900SOL     OW49309   9.826  12.709  13.722  0.4449 -0.1643 -0.3137
43900SOL    HW149310   9.838  12.765  13.799  0.2634 -1.8666  1.0146
43900SOL    HW249311   9.883  12.633  13.738  2.2162  0.4301 -2.9739
43901SOL     OW49312   6.916  10.419  13.620  0.2363  0.0208  0.5867
43901SOL    HW149313   6.962  10.477  13.680  1.6245 -0.3883 -0.0332
43901SOL    HW249314   6.972  10.416  13.542 -1.5266  0.6004 -0.7942
43902SOL     OW49315   4.519   8.217  12.027 -0.4167 -0.3305 -0.5819
43902SOL    HW149316   4.588   8.246  12.087 -2.2326  1.9378  0.5501
43902SOL    HW249317   4.455   8.174  12.083  0.3377 -3.1914 -1.7356
43903SOL     OW49318   0.911   5.636   6.559 -0.6179  0.3808  0.1770
43903SOL    HW149319   0.863   5.567   6.607  0.8019 -0.6845  0.1300
43903SOL    HW249320   0.844   5.701   6.537 -1.6766 -0.0876  1.8356
43904SOL     OW49321   3.597   1.643   2.480 -0.5635 -0.2142 -0.2983
43904SOL    HW149322   3.646   1.596   2.412  0.3281  2.1905 -1.4342
43904SOL    HW249323   3.616   1.595   2.561  1.4415 -0.9880 -1.1637
43905SOL     OW49324   2.097   6.193   7.035  0.3466  0.0467 -0.8334
43905SOL    HW149325   2.162   6.263   7.042  0.4538 -0.0144 -1.2319
43905SOL    HW249326   2.144   6.119   6.998  1.2266 -1.5115  2.8619
43906SOL     OW49327   5.988   3.811   1.446 -0.1077  0.2638 -0.5702
43906SOL    HW149328   5.986   3.907   1.446  2.0110  0.3524 -0.0100
43906SOL    HW249329   6.081   3.789   1.446 -0.5340 -1.7960  0.8541
43907SOL     OW49330   1.383   7.330   8.033 -0.0555 -0.0873 -0.0414
43907SOL    HW149331   1.410   7.378   8.111 -0.1332  1.7958 -1.1108
43907SOL    HW249332   1.311   7.382   7.996 -0.6595 -1.4422 -0.8656
43908SOL     OW49333   9.014   6.756   9.414 -0.1796  0.4840  0.2489
43908SOL    HW149334   9.005   6.767   9.319  0.7292 -0.4938  0.0269
43908SOL    HW249335   9.012   6.844   9.449  0.5611  0.9394 -0.7976
43909SOL     OW49336   3.587  12.798   0.904  0.1248  0.1052  0.2408
43909SOL    HW149337   3.604  12.706   0.923  0.2056  0.0423 -0.1283
43909SOL    HW249338   3.568  12.837   0.989  1.3953  0.0286  0.5694
43910SOL     OW49339   2.363   6.777   1.438  0.1859  0.5548  0.1625
43910SOL    HW149340   2.285   6.809   1.484  0.8560  1.0469  1.0014
43910SOL    HW249341   2.434   6.792   1.500  0.9952  0.4120 -0.7186
43911SOL     OW49342   9.550  12.041   0.259  0.0104 -0.1107  0.5016
43911SOL    HW149343   9.541  12.134   0.241  0.3098 -0.1375  0.2120
43911SOL    HW249344   9.467  12.016   0.301  1.0056  0.9158  3.3178
43912SOL     OW49345   9.535   7.778  10.730 -0.2423 -0.6569 -0.3232
43912SOL    HW149346   9.530   7.871  10.709 -0.6669 -0.4949  0.4698
43912SOL    HW249347   9.450   7.743  10.704 -0.4105 -0.6468  0.2122
43913SOL     OW49348   4.381  12.431   8.061 -0.3452  0.1621  0.0055
43913SOL    HW149349   4.364  12.518   8.025 -0.0061  0.2486  0.0458
43913SOL    HW249350   4.427  12.385   7.991 -1.5044 -0.3602 -0.4257
43914SOL     OW49351   0.693   9.121   0.992 -0.6073 -0.6215 -0.0475
43914SOL    HW149352   0.723   9.135   1.081 -0.4144 -2.0236  0.1294
43914SOL    HW249353   0.727   9.035   0.968  0.6814  0.3646 -2.0449
43915SOL     OW49354   9.451   1.017   7.723  0.4479  0.0576  0.6329
43915SOL    HW149355   9.450   1.015   7.628  0.4118  1.1341  0.6009
43915SOL    HW249356   9.435   0.926   7.749  2.3823 -0.6343 -0.3829
43916SOL     OW49357  11.279  13.822   1.415 -0.0190  0.1421 -0.2469
43916SOL    HW149358  11.267  13.811   1.509  0.0364 -1.8780 -0.4418
43916SOL    HW249359  11.362  13.869   1.407  0.9988 -1.4257  0.6819
43917SOL     OW49360  12.765   6.087  12.780 -0.4576  0.0999  0.3643
43917SOL    HW149361  12.716   6.053  12.705 -3.4267  1.7342  1.3860
43917SOL    HW249362  12.855   6.059  12.764 -0.8242  0.6081 -3.9605
43918SOL     OW49363   0.534   2.644   4.563 -0.2475 -0.1856 -0.4241
43918SOL    HW149364   0.629   2.644   4.548 -0.1185  2.8661 -0.2105
43918SOL    HW249365   0.524   2.672   4.654 -1.4026 -2.6534  0.3174
43919SOL     OW49366  11.871   4.766  10.630  0.3810  0.4823 -0.1794
43919SOL    HW149367  11.894   4.848  10.672 -1.1118  0.9927 -0.3105
43919SOL    HW249368  11.924   4.700  10.675 -1.3654  0.9413  2.7827
43920SOL     OW49369   7.754   4.314  12.756 -0.2096 -0.2328 -0.8576
43920SOL    HW149370   7.823   4.380  12.764  0.1535 -0.5731 -1.1473
43920SOL    HW249371   7.672   4.363  12.769  0.0658  0.2342 -0.8598
43921SOL     OW49372   2.973   9.471  11.349 -0.0409 -0.3595 -0.4424
43921SOL    HW149373   3.025   9.458  11.270  0.4244 -1.2266 -0.0085
43921SOL    HW249374   2.883   9.478  11.318  0.1313 -0.7345 -1.0424
43922SOL     OW49375   9.881  10.809  11.464 -0.2965  0.3858  0.5340
43922SOL    HW149376   9.864  10.735  11.406 -0.0334  0.7127  0.0290
43922SOL    HW249377   9.889  10.885  11.405 -0.2653  0.7646  1.0140
43923SOL     OW49378  10.506  12.275  13.646  0.2739  0.2594  0.2110
43923SOL    HW149379  10.495  12.188  13.684  1.0539  0.8671  1.8915
43923SOL    HW249380  10.588  12.308  13.684  0.1112  1.6390 -0.5808
43924SOL     OW49381  12.340   7.140  10.995  0.6937 -0.1926  0.4947
43924SOL    HW149382  12.421   7.132  10.945  0.5721  1.0879  0.0805
43924SOL    HW249383  12.300   7.221  10.965 -0.4408 -0.4798  1.1501
43925SOL     OW49384   6.397   0.905   6.524  0.0306 -0.6682 -0.5351
43925SOL    HW149385   6.396   0.811   6.506  0.9085 -0.4566 -1.8490
43925SOL    HW249386   6.450   0.942   6.454 -1.0032  0.9215 -0.5240
43926SOL     OW49387   9.597   4.446  10.410 -0.1231  0.1077 -0.0918
43926SOL    HW149388   9.599   4.366  10.356 -2.7793 -0.1754  0.1093
43926SOL    HW249389   9.594   4.414  10.500  0.3053  0.4762  0.0528
43927SOL     OW49390   8.688  11.450   4.633 -0.2476 -0.6358 -0.1871
43927SOL    HW149391   8.618  11.437   4.569  0.2836  0.6573 -1.0646
43927SOL    HW249392   8.643  11.463   4.716 -0.9709 -1.6768 -0.3994
43928SOL     OW49393  11.982   1.417   7.760  0.4488  0.2033 -0.8472
43928SOL    HW149394  11.984   1.351   7.830  0.0660  0.8340 -0.2255
43928SOL    HW249395  12.025   1.375   7.686 -0.6724 -1.1284 -0.7998
43929SOL     OW49396   3.008   4.694  12.268 -0.2112  0.5560 -0.3889
43929SOL    HW149397   2.996   4.694  12.173  0.4893  2.3316 -0.5284
43929SOL    HW249398   3.076   4.760  12.283 -0.0279  0.0321  1.3211
43930SOL     OW49399   0.992   1.051   1.223 -0.1121 -0.3783 -0.6507
43930SOL    HW149400   1.078   1.012   1.210  0.4902  0.9424 -0.7274
43930SOL    HW249401   0.971   1.093   1.140 -0.2102  0.4676 -0.2180
43931SOL     OW49402  12.240   0.451  12.086 -0.2973  0.8835  0.1670
43931SOL    HW149403  12.163   0.506  12.100 -1.3712 -0.8015  1.2888
43931SOL    HW249404  12.240   0.433  11.992 -1.2924  0.8906  0.1555
43932SOL     OW49405   5.802   5.683   1.489 -0.2130  0.2405 -0.0566
43932SOL    HW149406   5.814   5.629   1.567 -2.9904  0.8063  0.8713
43932SOL    HW249407   5.752   5.758   1.519 -2.6426 -0.2153 -2.5745
43933SOL     OW49408  10.201   4.408   2.725 -0.5440  0.3390 -0.0055
43933SOL    HW149409  10.142   4.383   2.796  2.3812 -1.9459  1.7952
43933SOL    HW249410  10.267   4.463   2.766  0.8392 -0.4681 -1.0768
43934SOL     OW49411   7.959   8.881  12.698 -0.1482 -0.1394 -0.1672
43934SOL    HW149412   8.006   8.933  12.633 -1.6418  1.7840  0.1678
43934SOL    HW249413   7.973   8.927  12.780  1.8109 -2.5993  0.9963
43935SOL     OW49414   2.079   6.742   4.581  0.1065 -0.5884 -0.2228
43935SOL    HW149415   2.087   6.829   4.621  0.4962 -0.0792 -1.3864
43935SOL    HW249416   2.064   6.759   4.488 -0.4571 -1.7626 -0.3674
43936SOL     OW49417   5.482   4.206   4.073  0.1308  0.4528 -0.9927
43936SOL    HW149418   5.509   4.234   3.986 -2.0072  0.3793 -1.7355
43936SOL    HW249419   5.551   4.146   4.101  0.8474  0.4558 -2.6348
43937SOL     OW49420   9.318   1.730  10.746  0.3363  0.3804 -1.5251
43937SOL    HW149421   9.299   1.658  10.806 -0.5097  1.8043 -0.0175
43937SOL    HW249422   9.385   1.694  10.687 -1.3013 -2.2052 -1.9725
43938SOL     OW49423  10.901  10.965   8.534 -0.2843 -0.1629 -0.5281
43938SOL    HW149424  10.994  10.944   8.526 -0.3733 -0.6648 -0.3302
43938SOL    HW249425  10.898  11.060   8.544  0.0989  0.0657 -2.2697
43939SOL     OW49426  10.727   3.860   8.497  0.0765  0.7418 -0.3523
43939SOL    HW149427  10.646   3.838   8.451 -1.3769  1.3033  1.7490
43939SOL    HW249428  10.775   3.777   8.503 -1.7233 -0.2958  0.8140
43940SOL     OW49429   8.351  11.561   6.750  0.0981  0.6369 -0.6026
43940SOL    HW149430   8.427  11.528   6.702 -0.8326 -0.8871 -1.0510
43940SOL    HW249431   8.385  11.574   6.839  0.3428 -2.4232 -0.1406
43941SOL     OW49432   4.311   1.828   3.003 -0.6806 -0.4760 -0.0556
43941SOL    HW149433   4.358   1.840   2.920 -1.1036 -1.0121 -0.3740
43941SOL    HW249434   4.358   1.884   3.065 -1.1179  0.9195 -0.9365
43942SOL     OW49435   3.617  11.772   6.270 -0.5541 -0.2395  0.5864
43942SOL    HW149436   3.575  11.827   6.204 -1.7599 -0.7673  0.8857
43942SOL    HW249437   3.551  11.706   6.292  0.0113 -0.3786  1.9450
43943SOL     OW49438   9.609  11.133   5.205  0.3514  0.3418 -0.4660
43943SOL    HW149439   9.515  11.133   5.187 -0.2562 -0.3061  2.1669
43943SOL    HW249440   9.626  11.218   5.245  0.8477  0.4007 -0.8019
43944SOL     OW49441   2.913  11.507   6.841 -0.1447 -0.4612  0.0796
43944SOL    HW149442   2.937  11.587   6.794  2.8820  1.0916  3.7030
43944SOL    HW249443   2.898  11.535   6.931 -0.9444 -3.7563  1.1271
43945SOL     OW49444  10.677   9.114   0.762  0.3469 -0.2875 -0.1386
43945SOL    HW149445  10.699   9.034   0.810 -2.0827 -0.5373  0.6918
43945SOL    HW249446  10.590   9.097   0.724  0.4853  1.3698 -1.3224
43946SOL     OW49447   0.891   8.788   4.192  0.1207  0.3613 -0.4154
43946SOL    HW149448   0.883   8.775   4.286  0.4791  0.5882 -0.3536
43946SOL    HW249449   0.977   8.826   4.180 -0.6707  2.2012 -0.6413
43947SOL     OW49450   4.280   4.621   1.456 -0.0210  0.1219 -0.3064
43947SOL    HW149451   4.251   4.712   1.445  0.1698  0.7451  3.3318
43947SOL    HW249452   4.331   4.621   1.536  0.6088 -3.1188 -0.5690
43948SOL     OW49453   7.582  13.422   4.193 -0.4426  0.2742  0.5555
43948SOL    HW149454   7.517  13.418   4.123  0.4470  1.8305 -0.4124
43948SOL    HW249455   7.562  13.347   4.248 -0.6818 -1.5230 -1.7982
43949SOL     OW49456   3.787   9.469   7.329 -0.4472 -0.1655  0.1379
43949SOL    HW149457   3.774   9.541   7.267 -0.5145  0.2474  0.6270
43949SOL    HW249458   3.848   9.504   7.394 -0.5698 -0.5064  0.4404
43950SOL     OW49459   6.231   0.320   2.138 -0.2206  0.1706 -0.2743
43950SOL    HW149460   6.281   0.399   2.117  0.0173 -0.0799 -0.6530
43950SOL    HW249461   6.170   0.309   2.065 -0.3567  0.0888 -0.1493
43951SOL     OW49462   7.728  11.516   3.870  0.1686 -0.4333  0.0581
43951SOL    HW149463   7.778  11.580   3.821  1.0579 -1.2970 -0.1839
43951SOL    HW249464   7.703  11.450   3.806 -0.8714 -0.2798  0.2723
43952SOL     OW49465   1.795   7.606   0.279  0.0447  0.0930 -0.2782
43952SOL    HW149466   1.838   7.540   0.226 -0.0400 -0.0717 -0.1413
43952SOL    HW249467   1.832   7.689   0.248  1.1967 -0.1052  0.5165
43953SOL     OW49468   3.544   8.915   2.555 -0.0608  0.1502  0.2995
43953SOL    HW149469   3.532   8.834   2.506 -1.1528  0.1846  0.4708
43953SOL    HW249470   3.468   8.969   2.532  1.9803  2.2997 -1.9601
43954SOL     OW49471   2.060   9.270   6.605  0.4554 -0.0504  0.1361
43954SOL    HW149472   2.013   9.263   6.522 -0.2186 -0.9652  0.5843
43954SOL    HW249473   2.147   9.302   6.580 -0.1816  1.0894 -0.7650
43955SOL     OW49474   7.154   9.976   3.390 -0.7049 -0.0302 -0.3382
43955SOL    HW149475   7.156  10.068   3.367  0.0740  0.1696  0.4792
43955SOL    HW249476   7.157   9.974   3.486  1.6739 -0.9093 -0.3622
43956SOL     OW49477   6.386   3.311   8.939  0.1141 -0.1713 -0.5739
43956SOL    HW149478   6.462   3.253   8.936  0.5921  0.4458 -0.5924
43956SOL    HW249479   6.318   3.263   8.892  0.2319 -1.0869  0.1434
43957SOL     OW49480   0.847   8.699   9.294 -0.1569 -0.4494  0.3092
43957SOL    HW149481   0.891   8.615   9.279  1.0542  0.1037  0.6295
43957SOL    HW249482   0.808   8.721   9.209  1.8050 -0.0771 -0.5702
43958SOL     OW49483   2.154   9.174   6.851  0.0965  0.0166  0.1560
43958SOL    HW149484   2.083   9.200   6.910  1.7129 -0.2583  2.3470
43958SOL    HW249485   2.123   9.199   6.764 -3.8351 -2.5887  0.5814
43959SOL     OW49486   4.386   3.552   0.586  0.0820 -0.3904 -0.1029
43959SOL    HW149487   4.371   3.495   0.511 -0.3273  0.0097 -0.3273
43959SOL    HW249488   4.310   3.609   0.589  1.8785  2.2756 -1.7934
43960SOL     OW49489   0.767  12.292   6.903  0.1453  0.1482  0.1654
43960SOL    HW149490   0.730  12.358   6.844 -0.7100  0.3159  0.8727
43960SOL    HW249491   0.839  12.253   6.854 -0.8935 -0.1012 -1.1901
43961SOL     OW49492   8.118   9.703  11.153 -0.7995  0.4258 -0.0492
43961SOL    HW149493   8.152   9.638  11.092 -1.1001  0.5013 -0.3008
43961SOL    HW249494   8.180   9.702  11.226  0.0903  0.9946 -0.7634
43962SOL     OW49495  12.485  12.055   3.159 -0.0837  0.3527  0.2801
43962SOL    HW149496  12.525  12.121   3.216 -0.7366  0.3177  0.7925
43962SOL    HW249497  12.499  11.972   3.206 -0.0595  0.2395  0.0748
43963SOL     OW49498  13.449  12.550  11.296 -0.4743  0.3273  0.1383
43963SOL    HW149499  13.360  12.519  11.278 -0.5265 -0.6582  1.8307
43963SOL    HW249500  13.452  12.637  11.258 -1.3094 -0.5945 -2.2411
43964SOL     OW49501   6.160  11.642  11.899 -0.6302  0.3717 -0.2454
43964SOL    HW149502   6.248  11.608  11.885 -1.6990 -2.9813  0.4463
43964SOL    HW249503   6.121  11.643  11.811 -0.5537 -0.1440 -0.2869
43965SOL     OW49504   0.512  13.321  12.020 -0.0165 -0.2501  0.4984
43965SOL    HW149505   0.449  13.249  12.019  0.5605 -0.7737  1.0581
43965SOL    HW249506   0.458  13.399  12.006 -0.5272 -0.8495 -1.1173
43966SOL     OW49507   5.451  11.401   0.865  0.3783  0.0436 -0.3741
43966SOL    HW149508   5.363  11.425   0.895  0.4501 -0.3222  0.1445
43966SOL    HW249509   5.457  11.307   0.882  1.0097  0.1416 -0.0304
43967SOL     OW49510   5.629   0.316   5.281 -0.5547 -0.1021 -1.0659
43967SOL    HW149511   5.652   0.374   5.354 -0.2538 -2.3307  0.7259
43967SOL    HW249512   5.714   0.288   5.246 -0.6982  0.9511 -2.3356
43968SOL     OW49513  11.012  13.007   4.030  0.0424 -0.5907  0.3868
43968SOL    HW149514  11.004  13.092   4.072 -1.5445 -0.8663  0.7246
43968SOL    HW249515  10.957  13.013   3.952  0.3289 -1.1406  0.1343
43969SOL     OW49516   6.327   3.433   8.109  0.1403  0.3442  0.2205
43969SOL    HW149517   6.301   3.522   8.134 -1.2805  0.1649 -0.4704
43969SOL    HW249518   6.290   3.421   8.022  0.6971 -0.7737  0.1153
43970SOL     OW49519   7.369   3.713  14.031 -0.1635  0.0237 -0.0653
43970SOL    HW149520   7.275   3.700  14.038  0.0794 -1.3084  1.2219
43970SOL    HW249521   7.378   3.798  13.989 -1.9092 -0.8961 -2.5460
43971SOL     OW49522  13.893  12.461  13.529 -0.0404 -0.1657 -0.1083
43971SOL    HW149523  13.916  12.369  13.516  0.5850  0.0293 -0.4584
43971SOL    HW249524  13.913  12.479  13.621 -1.3987 -0.7114  0.3123
43972SOL     OW49525   6.016  11.496  10.756  0.1860  0.2428 -0.2805
43972SOL    HW149526   6.047  11.571  10.807  0.0593 -1.0384  1.7869
43972SOL    HW249527   5.929  11.522  10.727  0.8747  1.6195 -1.2745
43973SOL     OW49528   2.247   0.227  10.952 -0.2551  0.2846  0.4162
43973SOL    HW149529   2.318   0.210  11.014 -1.2613 -0.0352  1.5178
43973SOL    HW249530   2.251   0.155  10.890  0.1927  0.1079  0.6484
43974SOL     OW49531  13.161  13.742  12.028 -0.8397  0.0493  0.3185
43974SOL    HW149532  13.195  13.805  12.091 -1.0689  1.4622 -0.9342
43974SOL    HW249533  13.225  13.670  12.030  0.3235  1.0524  0.5784
43975SOL     OW49534  13.714   2.269   3.015 -0.3175 -0.0580 -0.0206
43975SOL    HW149535  13.729   2.180   3.047 -2.5660  0.1534  1.9316
43975SOL    HW249536  13.721   2.324   3.093  2.8245  1.8438 -1.4547
43976SOL     OW49537   7.655   6.142   4.547 -0.0731 -0.1879  0.2007
43976SOL    HW149538   7.578   6.198   4.535 -0.8059 -0.8469  1.6009
43976SOL    HW249539   7.689   6.167   4.632 -0.9204 -2.4002  1.2621
43977SOL     OW49540   1.871  11.844  13.543 -0.5104  0.0088  0.1594
43977SOL    HW149541   1.856  11.835  13.448 -0.3993  0.5902  0.0858
43977SOL    HW249542   1.880  11.754  13.574  0.2693 -0.1619 -0.5176
43978SOL     OW49543   6.446   6.579   5.127 -0.6015 -0.1423  0.1135
43978SOL    HW149544   6.469   6.648   5.064 -2.7258 -0.4231 -1.0694
43978SOL    HW249545   6.380   6.620   5.184 -1.0726 -0.8424  0.0881
43979SOL     OW49546  10.024  11.650   1.984 -0.1607 -0.4671 -0.2544
43979SOL    HW149547   9.982  11.569   2.012  2.6899 -1.0376  3.0718
43979SOL    HW249548  10.078  11.625   1.909 -3.1306 -0.3506 -2.6068
43980SOL     OW49549   1.472   8.044   4.320  0.3463  0.1663 -0.1539
43980SOL    HW149550   1.486   8.031   4.414  1.1081 -0.4116 -0.3384
43980SOL    HW249551   1.388   8.001   4.302  1.1619 -1.5348 -0.0989
43981SOL     OW49552  11.167   8.550  13.261 -0.4347 -0.2156 -0.5000
43981SOL    HW149553  11.230   8.569  13.191 -0.2883 -0.1025 -0.3388
43981SOL    HW249554  11.216   8.497  13.324 -0.9468 -1.4460 -1.1200
43982SOL     OW49555   7.391  10.253   0.903  0.8936 -0.3298 -0.5652
43982SOL    HW149556   7.318  10.296   0.859  0.1426 -0.4789  0.5055
43982SOL    HW249557   7.350  10.190   0.962  1.9001 -0.6916 -0.2385
43983SOL     OW49558   5.111  11.140  11.213  0.1921  0.1227 -0.4295
43983SOL    HW149559   5.026  11.175  11.186  0.7947  0.8537 -1.4315
43983SOL    HW249560   5.105  11.135  11.309 -0.1052  2.5699 -0.2613
43984SOL     OW49561   8.800   5.276  13.540 -0.0179 -0.2413 -0.0415
43984SOL    HW149562   8.895   5.270  13.551  0.0401  1.5777  0.8843
43984SOL    HW249563   8.774   5.344  13.602 -1.6954  0.4745 -1.4723
43985SOL     OW49564  10.815   8.481  11.311 -0.2852 -0.1617  0.2028
43985SOL    HW149565  10.792   8.469  11.403 -1.2278 -1.0009 -0.1244
43985SOL    HW249566  10.748   8.541  11.277  1.5074  2.1937  0.6291
43986SOL     OW49567   6.853   7.025   0.808 -0.1396  0.4182 -0.1127
43986SOL    HW149568   6.941   7.049   0.779 -0.0944  1.6825  1.0101
43986SOL    HW249569   6.863   6.997   0.898 -0.5494 -1.8197 -0.6953
43987SOL     OW49570  11.678   6.278   6.419 -0.4221  0.2831 -0.4138
43987SOL    HW149571  11.686   6.267   6.514 -0.5749 -0.8976 -0.5206
43987SOL    HW249572  11.764   6.254   6.385  1.2991  5.2133 -0.3222
43988SOL     OW49573   2.430  10.392  13.120  0.2355  0.1001 -0.3349
43988SOL    HW149574   2.396  10.474  13.082  1.4400 -0.7496 -3.5425
43988SOL    HW249575   2.522  10.411  13.138 -0.0560  0.1321  1.3371
43989SOL     OW49576   9.316  11.871  10.458  0.2863  0.0429 -0.2367
43989SOL    HW149577   9.311  11.798  10.519 -1.4351 -0.0297 -0.4022
43989SOL    HW249578   9.249  11.932  10.489 -0.4212  0.1406 -1.8493
43990SOL     OW49579   3.486   0.666   2.395 -0.3635  0.2375 -0.0565
43990SOL    HW149580   3.572   0.625   2.396  0.3168  1.4174 -2.4887
43990SOL    HW249581   3.424   0.594   2.403  0.7854 -0.6274  1.8350
43991SOL     OW49582   5.965  10.054   2.273  0.3806 -0.3662 -0.0651
43991SOL    HW149583   5.941  10.141   2.242  0.8641 -0.1001  0.2935
43991SOL    HW249584   5.927  10.048   2.361  2.0445  0.2813  0.7459
43992SOL     OW49585  11.288   3.357  10.652 -0.0371 -0.2855  0.7383
43992SOL    HW149586  11.357   3.297  10.623  1.2072  1.8834 -1.1994
43992SOL    HW249587  11.331   3.414  10.716 -0.4070  0.1744  0.5879
43993SOL     OW49588   4.582   4.353   6.048 -0.7030 -0.0859 -0.3711
43993SOL    HW149589   4.651   4.414   6.072  0.0013 -1.1024  0.3129
43993SOL    HW249590   4.627   4.282   6.003 -1.1264 -1.2099  0.8910
43994SOL     OW49591   8.745   1.127  11.761 -0.0983 -0.2641  0.2855
43994SOL    HW149592   8.698   1.080  11.692 -1.4989 -0.2132  1.1685
43994SOL    HW249593   8.767   1.060  11.825 -2.1015  0.1843  1.5475
43995SOL     OW49594   2.199   1.330   8.809 -0.3676 -0.2807  0.0198
43995SOL    HW149595   2.260   1.256   8.810 -1.0748 -0.8775 -0.1572
43995SOL    HW249596   2.112   1.290   8.817 -0.7993  0.4877 -0.6543
43996SOL     OW49597   9.082  11.592   2.876  0.1205  0.5843  0.5348
43996SOL    HW149598   9.077  11.586   2.971  0.6260  0.7590  0.5770
43996SOL    HW249599   9.027  11.666   2.853 -1.0749 -0.2706  0.5694
43997SOL     OW49600  10.987   5.189  10.818  0.4489 -0.1581  0.0854
43997SOL    HW149601  11.034   5.177  10.901  1.0666 -0.6605 -0.3292
43997SOL    HW249602  10.952   5.278  10.823 -0.4981 -0.5775  1.3697
43998SOL     OW49603  11.164   0.930   7.141  0.1558 -0.4607 -0.8336
43998SOL    HW149604  11.111   0.891   7.071 -0.8600 -1.2367  0.3264
43998SOL    HW249605  11.100   0.971   7.199  0.9312 -0.3712 -0.0338
43999SOL     OW49606   5.342  13.478  12.605  0.0993  0.0658  0.5829
43999SOL    HW149607   5.411  13.412  12.600 -0.7779 -0.7958 -1.3746
43999SOL    HW249608   5.283  13.446  12.674 -0.0459 -0.9624  0.0068
44000SOL     OW49609   6.832  12.716  13.076  0.1123 -0.7444  0.0763
44000SOL    HW149610   6.870  12.791  13.122 -0.0789 -0.3527 -0.3967
44000SOL    HW249611   6.889  12.702  13.000 -0.8158  0.0270 -0.7949
44001SOL     OW49612  13.248  13.050   5.398 -0.0663  0.3225 -0.0042
44001SOL    HW149613  13.292  12.966   5.413  0.8756  0.8193  0.1281
44001SOL    HW249614  13.234  13.086   5.486 -1.3788 -0.1434 -0.0166
44002SOL     OW49615   1.035   7.695   7.249  0.5228 -0.0934  0.5954
44002SOL    HW149616   1.051   7.634   7.320  0.1971  0.6630  1.3358
44002SOL    HW249617   1.087   7.661   7.176  1.3793 -0.5300  1.3825
44003SOL     OW49618   4.522   1.670   9.671 -0.1282 -0.0620 -0.7297
44003SOL    HW149619   4.485   1.736   9.612  0.0714  0.0367 -0.7431
44003SOL    HW249620   4.571   1.611   9.614 -1.7826 -1.2753 -0.9715
44004SOL     OW49621   7.267  12.836   9.212 -0.0820  0.3522  0.3900
44004SOL    HW149622   7.318  12.759   9.187  2.5530  2.5688 -1.6855
44004SOL    HW249623   7.186  12.828   9.161  0.1265 -1.0256  0.2250
44005SOL     OW49624  10.908   9.966  12.528  0.3658  0.6682  0.0979
44005SOL    HW149625  10.896   9.959  12.433  2.1394  0.8826 -0.1698
44005SOL    HW249626  10.947   9.882  12.553  0.4269  0.8276  0.5470
44006SOL     OW49627   7.484   4.127  13.717 -0.3708  0.0389 -0.3583
44006SOL    HW149628   7.532   4.206  13.743  0.6041 -0.5744 -0.2386
44006SOL    HW249629   7.547   4.056  13.727 -0.9103 -0.6301 -1.4680
44007SOL     OW49630   8.252   2.208   0.412  0.2087  0.3206 -0.3391
44007SOL    HW149631   8.192   2.228   0.340  0.4332  1.3124 -0.2753
44007SOL    HW249632   8.216   2.129   0.452 -0.6173  0.4510 -0.7910
44008SOL     OW49633   7.133   8.541   3.289 -0.4863  0.1296 -0.1424
44008SOL    HW149634   7.128   8.448   3.269 -0.4899  0.4054 -1.5271
44008SOL    HW249635   7.054   8.560   3.340  0.3288 -0.9230  1.6308
44009SOL     OW49636   9.114   6.509   1.878  0.0104  0.0360  0.7028
44009SOL    HW149637   9.117   6.424   1.833  0.4915  0.3142  0.2090
44009SOL    HW249638   9.081   6.487   1.966 -1.3916 -0.4412  0.0874
44010SOL     OW49639   4.306   0.032  13.314  0.4275  0.2800 -0.3906
44010SOL    HW149640   4.224  -0.012  13.336 -0.1093  0.1400 -2.4440
44010SOL    HW249641   4.368   0.004  13.382 -1.4006  1.1369  1.7780
44011SOL     OW49642  13.720   9.058   0.170  0.0674  0.2465 -0.1024
44011SOL    HW149643  13.804   9.101   0.151 -0.2433  1.1623  0.5613
44011SOL    HW249644  13.655   9.114   0.128 -0.1812 -0.9398 -1.3991
44012SOL     OW49645   0.415   9.839   1.431  0.4695 -0.0245  0.1501
44012SOL    HW149646   0.345   9.778   1.452  0.8780  0.0240  1.7857
44012SOL    HW249647   0.392   9.920   1.476  0.9478  0.4040 -0.3454
44013SOL     OW49648   4.623   8.974   1.699  0.0084  0.2019 -0.4256
44013SOL    HW149649   4.617   8.998   1.607 -0.3971  0.1498 -0.4138
44013SOL    HW249650   4.707   9.011   1.728  2.0196 -2.9343 -1.7321
44014SOL     OW49651   0.086  11.298  11.601 -0.0391  0.3075  0.1085
44014SOL    HW149652   0.150  11.368  11.615 -1.1662  1.1937  1.0027
44014SOL    HW249653   0.097  11.240  11.676 -0.2551  0.4487  0.2515
44015SOL     OW49654   6.248   5.865  12.060 -0.1165 -0.0676 -0.3523
44015SOL    HW149655   6.188   5.816  12.116 -1.5094  0.9157 -0.9276
44015SOL    HW249656   6.303   5.798  12.020 -0.5588 -0.9641  0.4858
44016SOL     OW49657   9.554  11.284   3.375  0.4692 -0.6099 -0.4513
44016SOL    HW149658   9.524  11.235   3.452 -0.1338 -1.2787 -1.0989
44016SOL    HW249659   9.474  11.305   3.327  0.8048  0.2015 -0.6652
44017SOL     OW49660   9.117   0.433  12.374  0.1927 -0.5272 -0.3103
44017SOL    HW149661   9.120   0.411  12.281  0.4732  1.5157 -0.8233
44017SOL    HW249662   9.026   0.418  12.399  0.3597 -2.2347 -0.5687
44018SOL     OW49663  13.461  12.242  12.637 -0.4337  0.4440 -0.4890
44018SOL    HW149664  13.384  12.293  12.612 -1.0677  0.6748  1.7658
44018SOL    HW249665  13.490  12.281  12.719  1.0073 -0.8043 -0.3643
44019SOL     OW49666  10.392   3.751  11.093 -0.1958  0.1466  0.7854
44019SOL    HW149667  10.306   3.736  11.132 -0.3257  2.1054  1.3838
44019SOL    HW249668  10.374   3.772  11.001 -0.0624 -2.3551  0.1218
44020SOL     OW49669   5.481   7.314  13.684  0.1444 -0.2386  0.4155
44020SOL    HW149670   5.427   7.322  13.605 -0.5899  0.2091  0.9583
44020SOL    HW249671   5.484   7.220  13.701  2.1134 -0.5776 -1.3624
44021SOL     OW49672   0.045  11.748   2.545  0.9623 -0.4858 -0.0751
44021SOL    HW149673   0.074  11.796   2.622 -1.2856  0.0164  0.5411
44021SOL    HW249674  -0.037  11.705   2.573 -0.5209  0.5966 -2.4442
44022SOL     OW49675  10.013  12.486  13.761 -0.4194  0.0185  0.1067
44022SOL    HW149676  10.088  12.438  13.725  0.9238  2.2487 -0.2729
44022SOL    HW249677   9.937  12.433  13.737  0.9605 -2.1467  0.1712
44023SOL     OW49678  13.796  11.105   1.608 -0.4357  0.1122 -0.1645
44023SOL    HW149679  13.727  11.166   1.633 -0.5297 -0.8358  2.0995
44023SOL    HW249680  13.751  11.038   1.556 -1.2166 -0.3809  1.1070
44024SOL     OW49681   4.599   6.557   2.121  0.0654  0.1796 -0.0980
44024SOL    HW149682   4.510   6.534   2.096  0.0129 -1.4195  1.3753
44024SOL    HW249683   4.611   6.646   2.088 -1.0642 -0.5731 -2.8079
44025SOL     OW49684  13.008   5.062  14.021  0.0603 -0.0926 -0.0079
44025SOL    HW149685  12.919   5.099  14.019 -0.0961 -0.4045  0.6197
44025SOL    HW249686  12.994   4.968  14.035  0.4958  0.0829  1.9685
44026SOL     OW49687  11.631   1.342   3.724  0.0456 -0.0822  0.1585
44026SOL    HW149688  11.555   1.381   3.768 -0.9780 -0.1772 -1.4674
44026SOL    HW249689  11.595   1.272   3.670  1.3934 -0.6123 -0.0983
44027SOL     OW49690  13.762   0.337   4.638 -0.5189 -0.0497  0.0599
44027SOL    HW149691  13.780   0.266   4.576 -0.1659  1.0580 -1.1415
44027SOL    HW249692  13.677   0.314   4.676 -0.8012 -0.6933 -0.9186
44028SOL     OW49693   7.811   8.763  13.173 -0.0534 -0.1708  0.1668
44028SOL    HW149694   7.727   8.783  13.215  0.0908  0.8644 -0.0003
44028SOL    HW249695   7.818   8.668  13.176 -0.5613 -0.1921  1.5078
44029SOL     OW49696   7.707   8.160   7.059  0.0454  0.1824 -0.0525
44029SOL    HW149697   7.675   8.115   7.137 -0.0954  0.5681  0.1126
44029SOL    HW249698   7.783   8.109   7.031 -1.2435 -1.3257 -0.9946
44030SOL     OW49699   6.043   9.602   6.311 -0.7050  0.4306  0.2645
44030SOL    HW149700   6.087   9.526   6.349 -1.4576 -0.4194 -0.5246
44030SOL    HW249701   6.083   9.677   6.355  1.0889 -0.3351  0.0394
44031SOL     OW49702  10.166  11.514   1.799  0.5908  0.1854 -0.6267
44031SOL    HW149703  10.218  11.434   1.808  0.7167  0.2596 -0.6996
44031SOL    HW249704  10.122  11.505   1.714 -0.2507 -0.3084 -0.1594
44032SOL     OW49705   4.277   8.312   3.536  0.3631 -0.0823 -0.3134
44032SOL    HW149706   4.218   8.282   3.467 -0.5415  1.5372 -0.2911
44032SOL    HW249707   4.221   8.363   3.595  1.3913 -0.2540  0.8533
44033SOL     OW49708  11.561   1.127   5.405  0.0234  0.7530  0.1282
44033SOL    HW149709  11.619   1.052   5.417 -0.9404  0.0014  0.1841
44033SOL    HW249710  11.606   1.199   5.448  0.6590  0.0576  0.6537
44034SOL     OW49711  12.059  13.907   4.769  0.9835 -0.1394 -0.0214
44034SOL    HW149712  11.979  13.854   4.763  1.4054 -0.6889 -1.3883
44034SOL    HW249713  12.031  13.996   4.746  0.4413  0.0751  1.3734
44035SOL     OW49714   7.912   2.747  13.739  0.8163 -0.0749 -0.0804
44035SOL    HW149715   7.976   2.791  13.796  1.0027  1.1786 -1.2139
44035SOL    HW249716   7.879   2.816  13.682 -2.0891 -0.5110  0.8844
44036SOL     OW49717   6.008   4.341   4.511  0.2598  0.0241  0.0339
44036SOL    HW149718   6.001   4.257   4.557  0.6160  0.4567  0.9112
44036SOL    HW249719   5.921   4.381   4.520 -0.3048 -0.7935 -1.5096
44037SOL     OW49720   3.800   4.935   2.757  0.0130 -0.3632 -0.7696
44037SOL    HW149721   3.888   4.934   2.794  0.0789 -0.0171 -0.9177
44037SOL    HW249722   3.747   4.888   2.821  0.6455 -2.2366 -1.5596
44038SOL     OW49723  13.722   9.227   9.408  0.3035  0.5379  0.1051
44038SOL    HW149724  13.742   9.140   9.374  0.1732  0.5996 -0.1357
44038SOL    HW249725  13.728   9.284   9.332  0.1252  0.6965  0.2090
44039SOL     OW49726   5.507   9.835   4.473  0.0526 -0.0212 -0.4336
44039SOL    HW149727   5.440   9.769   4.491  0.9714 -0.5053  1.3780
44039SOL    HW249728   5.509   9.841   4.377 -1.2116 -1.3923 -0.5806
44040SOL     OW49729   8.331  14.014   1.613 -0.1860  0.2365 -0.4737
44040SOL    HW149730   8.289  13.971   1.538  1.5268  0.8218 -1.8210
44040SOL    HW249731   8.354  13.942   1.672 -1.5877 -0.2250 -0.4438
44041SOL     OW49732   5.512   0.771   4.708  0.1681 -0.0265  0.8465
44041SOL    HW149733   5.418   0.783   4.721  0.1942 -0.1921  1.2067
44041SOL    HW249734   5.533   0.692   4.757 -0.4066 -3.0001 -3.2163
44042SOL     OW49735   3.121   8.682  12.098 -0.6447  0.1964 -0.2214
44042SOL    HW149736   3.090   8.633  12.174  1.2847 -0.6903  0.0504
44042SOL    HW249737   3.099   8.773  12.118 -1.6190 -0.2067  0.6371
44043SOL     OW49738   8.949   9.017   4.126 -0.6266 -0.8270 -0.0008
44043SOL    HW149739   8.920   9.106   4.143 -1.5168 -0.4467 -2.9320
44043SOL    HW249740   9.037   9.026   4.090 -0.3216 -1.2297  0.6265
44044SOL     OW49741   2.766  10.697   9.327  0.7045  0.0856 -0.7057
44044SOL    HW149742   2.843  10.746   9.355  0.2341 -0.2558  1.3298
44044SOL    HW249743   2.762  10.711   9.232  3.8458 -0.7505 -1.0628
44045SOL     OW49744   4.932   4.573  10.396  0.3436 -0.4234  0.1478
44045SOL    HW149745   4.999   4.601  10.334  0.3895 -0.4980  0.1636
44045SOL    HW249746   4.915   4.650  10.450 -1.0384  0.2169 -1.1394
44046SOL     OW49747   4.792   4.339   7.545 -0.4614  0.2559 -0.4797
44046SOL    HW149748   4.811   4.408   7.482  1.4168 -1.4996 -2.0016
44046SOL    HW249749   4.822   4.373   7.629 -0.3962  1.5840 -1.0248
44047SOL     OW49750   9.823   9.866  12.397 -0.3112 -0.5425 -0.1073
44047SOL    HW149751   9.910   9.828  12.383  0.9741  2.1813 -0.0470
44047SOL    HW249752   9.798   9.900  12.311 -1.6292 -1.7541 -0.2496
44048SOL     OW49753  13.748   3.230   9.293  0.0972 -0.0799  0.3700
44048SOL    HW149754  13.805   3.230   9.216  0.0808  0.4908  0.3541
44048SOL    HW249755  13.673   3.177   9.266 -0.1773  0.5835 -0.2246
44049SOL     OW49756   2.244   7.052   7.086  0.5366  0.2594  0.1528
44049SOL    HW149757   2.244   7.140   7.047 -1.2974 -0.1840 -0.9649
44049SOL    HW249758   2.191   7.061   7.165 -0.4811 -0.0018 -0.4731
44050SOL     OW49759  11.806   2.766  13.368  0.2347  0.2278  0.3069
44050SOL    HW149760  11.711   2.767  13.358 -0.0110 -0.2193  2.3220
44050SOL    HW249761  11.830   2.859  13.370 -0.2251  0.3471  0.3971
44051SOL     OW49762   9.269  11.122   7.477 -0.3790  0.4709  0.0564
44051SOL    HW149763   9.242  11.209   7.504  1.8653  0.7372  1.8016
44051SOL    HW249764   9.288  11.129   7.384 -2.3504  1.2232 -0.3220
44052SOL     OW49765   6.549   0.334   4.753  0.1348 -0.3263  0.3760
44052SOL    HW149766   6.641   0.346   4.728 -0.0499 -0.3132 -0.3332
44052SOL    HW249767   6.550   0.326   4.848  0.7622  0.6451  0.4586
44053SOL     OW49768  11.491   1.765   7.785 -0.0766 -0.2538  0.3272
44053SOL    HW149769  11.410   1.811   7.764  0.9026  0.6749 -1.7730
44053SOL    HW249770  11.466   1.674   7.797 -1.4400  0.0484 -0.1017
44054SOL     OW49771  12.251   0.188   9.350 -0.6566 -0.1826 -0.3098
44054SOL    HW149772  12.179   0.222   9.403 -0.5455  0.0792 -0.3247
44054SOL    HW249773  12.234   0.219   9.262  1.0971  2.5971  0.2097
44055SOL     OW49774   5.888   9.380   5.449 -0.3083 -0.2816 -0.0355
44055SOL    HW149775   5.811   9.370   5.505 -0.0732  0.0820  0.3518
44055SOL    HW249776   5.912   9.472   5.457 -0.3595 -0.1889 -0.8509
44056SOL     OW49777  12.227  14.024  10.042  0.3651 -0.0343  0.5866
44056SOL    HW149778  12.263  14.070  10.119  0.0832  0.1124  0.6327
44056SOL    HW249779  12.226  14.090   9.973 -0.5073  0.1675  0.7898
44057SOL     OW49780   4.077   0.218   5.306 -0.2139 -0.5315  0.1566
44057SOL    HW149781   3.996   0.206   5.257 -0.3369 -1.4815  0.5772
44057SOL    HW249782   4.143   0.173   5.253  0.0967  0.4691 -0.3212
44058SOL     OW49783   2.419   7.417   2.994  0.1976 -0.9078 -0.0880
44058SOL    HW149784   2.335   7.410   3.039 -0.5093  1.2339 -0.9373
44058SOL    HW249785   2.483   7.426   3.065 -0.6140  0.0103  0.5566
44059SOL     OW49786   2.261   0.524   2.106  0.0746  0.1940 -0.3694
44059SOL    HW149787   2.309   0.548   2.185 -1.0929  1.4683 -0.0260
44059SOL    HW249788   2.169   0.532   2.130 -0.2976  0.3748 -1.7988
44060SOL     OW49789   1.836   7.063   9.058 -0.7240  0.3074  0.0732
44060SOL    HW149790   1.927   7.091   9.052 -0.5711 -0.4194 -1.6009
44060SOL    HW249791   1.790   7.136   9.100  0.6627  0.5531  1.2183
44061SOL     OW49792   4.365   4.285  13.670  0.4727  0.1008 -0.5627
44061SOL    HW149793   4.384   4.192  13.672  1.3116  0.2591  0.7689
44061SOL    HW249794   4.446   4.326  13.702 -0.5087  1.1381  0.7310
44062SOL     OW49795  13.424   2.889  13.468 -0.0244 -0.3239 -0.3846
44062SOL    HW149796  13.423   2.905  13.373  1.0458  0.4710 -0.2819
44062SOL    HW249797  13.517   2.883  13.490 -0.2613 -0.3223  0.6410
44063SOL     OW49798   4.059   0.157   7.135 -0.7784  0.5077  0.6044
44063SOL    HW149799   4.134   0.100   7.114 -1.0991  0.0824  0.5946
44063SOL    HW249800   4.046   0.209   7.056 -2.0000 -1.1070 -0.3231
44064SOL     OW49801  10.261   2.077   2.759 -0.1133  0.4609 -0.1736
44064SOL    HW149802  10.175   2.115   2.738 -0.1560  1.3495  1.4839
44064SOL    HW249803  10.323   2.129   2.709 -0.5655 -0.9327 -2.3297
44065SOL     OW49804   0.190   4.156   9.060 -0.1489  0.3578  0.0437
44065SOL    HW149805   0.279   4.147   9.094 -0.4086 -0.7060  0.4944
44065SOL    HW249806   0.198   4.220   8.989  1.3378 -1.1437 -1.2269
44066SOL     OW49807  11.228   0.257   1.659 -0.4932  0.0614  0.6342
44066SOL    HW149808  11.295   0.323   1.678 -1.8152  0.9615  2.4554
44066SOL    HW249809  11.165   0.303   1.602  0.0689 -0.5895 -0.5547
44067SOL     OW49810   4.569   5.751   6.087  0.3109  0.8778 -0.1149
44067SOL    HW149811   4.638   5.689   6.063 -0.4241 -0.7895  1.7495
44067SOL    HW249812   4.615   5.831   6.111  1.7329 -0.4218  1.7823
44068SOL     OW49813   8.142  12.560   4.169  0.3396 -0.3228 -0.4701
44068SOL    HW149814   8.211  12.548   4.234 -1.6959  0.3523  1.9846
44068SOL    HW249815   8.089  12.481   4.175 -0.7853  0.4373 -0.1191
44069SOL     OW49816   9.156   3.449   7.718 -0.2972 -0.5409  0.3319
44069SOL    HW149817   9.118   3.435   7.631 -1.9780  0.2256  0.9056
44069SOL    HW249818   9.139   3.368   7.766 -3.4619  0.5615  1.3257
44070SOL     OW49819  12.758  10.610  12.021 -0.0103  0.0743  0.0036
44070SOL    HW149820  12.709  10.692  12.020 -1.5230 -0.7269  1.7120
44070SOL    HW249821  12.848  10.636  12.006 -0.1005  2.3749  2.6029
44071SOL     OW49822   5.558   6.996   1.600  0.2706 -0.0397  0.1441
44071SOL    HW149823   5.507   7.074   1.621  1.1802  0.3275  1.0547
44071SOL    HW249824   5.506   6.923   1.632 -0.9484  0.0973 -1.3883
44072SOL     OW49825  12.257  12.553  10.000 -0.2619  0.9930 -1.1902
44072SOL    HW149826  12.259  12.608  10.078  1.5251  1.0942 -1.2614
44072SOL    HW249827  12.248  12.614   9.927 -3.8869  0.7989 -1.0673
44073SOL     OW49828   4.535   3.909  13.810  0.6081  0.1111 -0.5123
44073SOL    HW149829   4.531   3.814  13.824 -0.1638  0.1767 -0.2606
44073SOL    HW249830   4.449   3.932  13.777 -0.1498  1.1077  1.9133
44074SOL     OW49831   4.502   0.559  13.486  0.2349 -0.5643  0.3016
44074SOL    HW149832   4.536   0.610  13.412 -2.0476  0.6031 -0.0421
44074SOL    HW249833   4.475   0.476  13.447 -0.0823 -0.3195 -0.0134
44075SOL     OW49834   3.112   8.102  13.264  0.8625 -0.0747  0.1856
44075SOL    HW149835   3.024   8.139  13.252  1.9376  2.0725 -1.7862
44075SOL    HW249836   3.119   8.087  13.358 -1.1388  0.9465  0.5463
44076SOL     OW49837   1.250   9.248   1.163 -0.3978 -0.0473  0.8625
44076SOL    HW149838   1.291   9.209   1.240  0.0651 -0.7142  0.2897
44076SOL    HW249839   1.156   9.234   1.177 -0.2316 -1.9554  0.3988
44077SOL     OW49840   0.121  12.243   2.261 -0.1901 -0.6830  0.4344
44077SOL    HW149841   0.162  12.217   2.178  0.5450 -0.3106  0.6730
44077SOL    HW249842   0.187  12.225   2.327 -0.5455 -0.4052  0.8709
44078SOL     OW49843  11.685   1.952   7.069  0.0901  0.4648 -0.0042
44078SOL    HW149844  11.753   1.889   7.043  1.4542  1.6167  0.6170
44078SOL    HW249845  11.698   2.026   7.009 -0.6118  0.7082  0.1440
44079SOL     OW49846   1.226  12.568   8.443  0.1659  0.2076 -0.4427
44079SOL    HW149847   1.248  12.476   8.458 -0.0634  0.3250  0.6839
44079SOL    HW249848   1.130  12.570   8.446  0.1863  0.5609  0.0360
44080SOL     OW49849   3.747   1.018   9.333  0.2831 -0.3176  0.0247
44080SOL    HW149850   3.805   1.093   9.343 -0.1808  0.1489 -0.6972
44080SOL    HW249851   3.783   0.951   9.391  2.6454 -0.7343 -1.7836
44081SOL     OW49852  13.850   1.323   4.272 -0.2910 -0.4527 -0.0321
44081SOL    HW149853  13.795   1.396   4.244  0.8952  0.5755  0.2138
44081SOL    HW249854  13.788   1.252   4.291 -1.3518 -0.1069 -1.9651
44082SOL     OW49855   0.753  12.561   8.667  0.3957  0.2602 -0.2931
44082SOL    HW149856   0.727  12.555   8.759  2.8929 -0.0874  0.4792
44082SOL    HW249857   0.763  12.655   8.651 -1.4972  0.4304 -0.7230
44083SOL     OW49858  12.741   2.092  10.359 -0.3523  0.4356 -0.0319
44083SOL    HW149859  12.649   2.080  10.381 -0.6735  1.8376 -0.5284
44083SOL    HW249860  12.741   2.159  10.291  0.9080 -0.7706 -1.3039
44084SOL     OW49861   3.650   2.796  11.754 -0.2868 -0.4383 -0.1150
44084SOL    HW149862   3.627   2.774  11.844 -0.4126  0.0439 -0.0278
44084SOL    HW249863   3.597   2.736  11.701 -2.5472  1.2535  0.0494
44085SOL     OW49864  11.095   4.991  12.776  0.0528  0.7242 -0.4418
44085SOL    HW149865  11.077   5.005  12.683 -0.2607 -0.4267 -0.5683
44085SOL    HW249866  11.082   4.897  12.789 -1.4706  1.1112  1.1064
44086SOL     OW49867  12.078   6.780   9.862 -0.5055  0.4790  0.1847
44086SOL    HW149868  12.062   6.686   9.875  0.0195  0.6620  2.8840
44086SOL    HW249869  12.010   6.808   9.801 -0.5743 -1.6710 -0.7988
44087SOL     OW49870   0.600   5.430  12.686 -0.1383  0.0013 -0.3297
44087SOL    HW149871   0.687   5.393  12.699 -0.1550 -0.2101 -0.8312
44087SOL    HW249872   0.571   5.452  12.775  1.4371  2.4405 -0.3405
44088SOL     OW49873   3.945  13.616   5.123 -0.2585 -0.0232 -0.1771
44088SOL    HW149874   4.007  13.687   5.108 -1.0184  0.4592 -1.1309
44088SOL    HW249875   3.859  13.658   5.120 -0.6350 -0.5202  1.9905
44089SOL     OW49876   6.079  13.643   6.202  0.3794 -0.1213 -0.0045
44089SOL    HW149877   6.119  13.582   6.140 -0.0590  0.9180 -1.3712
44089SOL    HW249878   6.104  13.730   6.170  0.4327  0.4392  1.5020
44090SOL     OW49879   5.941  13.804   7.222 -0.0135 -0.3471 -0.0763
44090SOL    HW149880   5.905  13.889   7.246  1.1543  0.5581 -1.3601
44090SOL    HW249881   5.865  13.748   7.207 -0.7813  0.2532  1.4599
44091SOL     OW49882   9.791  12.146   4.449  0.4821 -0.5843  0.0395
44091SOL    HW149883   9.868  12.196   4.421  1.0402 -1.4154  0.0663
44091SOL    HW249884   9.733  12.211   4.488  0.0311  0.5190 -2.2677
44092SOL     OW49885  10.529   7.045   1.928 -0.0881  0.1271  0.3480
44092SOL    HW149886  10.509   7.111   1.862 -3.1549 -0.4640  0.5000
44092SOL    HW249887  10.614   7.009   1.903  0.5859  2.5001 -1.0393
44093SOL     OW49888   2.623   8.615  13.424 -0.3776  0.5337 -0.1078
44093SOL    HW149889   2.537   8.620  13.466  0.2757 -0.8602  1.5131
44093SOL    HW249890   2.627   8.527  13.387  0.6155  0.2925  0.5166
44094SOL     OW49891  10.139   5.186  11.519  0.3468  0.2637  0.2215
44094SOL    HW149892  10.229   5.208  11.544  0.6144 -0.5812  0.0423
44094SOL    HW249893  10.114   5.116  11.579 -1.2679  2.3922  2.2245
44095SOL     OW49894  12.064   4.062   2.903  0.2198 -0.1290 -0.0742
44095SOL    HW149895  12.041   4.104   2.820 -0.1917  0.1445  0.1741
44095SOL    HW249896  12.136   4.003   2.881 -1.0431 -1.4050 -0.9847
44096SOL     OW49897  11.646   0.846   1.267 -0.0635  0.0994  0.3976
44096SOL    HW149898  11.681   0.758   1.281 -0.5866  0.2703  3.3778
44096SOL    HW249899  11.704   0.884   1.200 -0.0974 -2.5769 -1.3264
44097SOL     OW49900  11.319  10.032   3.723  0.0220  0.2993 -0.5944
44097SOL    HW149901  11.293   9.956   3.670 -1.0597 -0.2913  0.7156
44097SOL    HW249902  11.366   9.995   3.798 -0.0208  0.9641 -0.2265
44098SOL     OW49903   0.488   3.269   7.031 -0.2359  0.1991 -0.1800
44098SOL    HW149904   0.514   3.193   6.979  0.0296 -0.6382  1.1205
44098SOL    HW249905   0.563   3.285   7.090 -1.2189 -0.0353  1.1899
44099SOL     OW49906  10.942   8.871   7.006  0.2161 -0.0348 -0.4052
44099SOL    HW149907  10.992   8.945   7.039 -0.0227 -0.5115  1.0853
44099SOL    HW249908  10.920   8.895   6.915 -0.6212  2.1299  0.3046
44100SOL     OW49909  11.739   6.751   7.143 -0.2284 -0.2226  0.3058
44100SOL    HW149910  11.707   6.662   7.134  0.7531 -0.7470  1.7219
44100SOL    HW249911  11.817   6.755   7.087 -0.4267 -0.1611  0.0308
44101SOL     OW49912   1.021  11.213   6.735  0.0253 -0.1370  0.1367
44101SOL    HW149913   1.059  11.275   6.672  0.8894 -0.3246  0.4642
44101SOL    HW249914   1.000  11.267   6.811 -1.5451  0.1943 -0.5011
44102SOL     OW49915  13.878   5.724   4.178 -0.0241  0.5308  0.3033
44102SOL    HW149916  13.784   5.730   4.196  0.1628  1.5006  1.0734
44102SOL    HW249917  13.893   5.632   4.158 -0.9180  0.0805  1.5522
44103SOL     OW49918   2.972   0.789   3.834 -0.2827 -1.1137  0.2814
44103SOL    HW149919   2.945   0.852   3.767  1.8080 -0.5946 -0.1789
44103SOL    HW249920   2.900   0.787   3.896 -1.3001  0.1630 -0.7828
44104SOL     OW49921   3.123   3.384   8.297  0.5454  0.2031  0.2923
44104SOL    HW149922   3.155   3.305   8.342  0.1320 -0.0663  0.1171
44104SOL    HW249923   3.061   3.423   8.358 -1.7686 -1.3859 -0.8890
44105SOL     OW49924   3.917   2.546   5.334  0.4721  0.2059 -0.2098
44105SOL    HW149925   3.840   2.599   5.355 -0.1337 -0.4731 -0.6229
44105SOL    HW249926   3.987   2.609   5.319  0.3226  0.7947  1.4182
44106SOL     OW49927   2.696   2.719   4.933 -0.6058 -1.1260 -0.2895
44106SOL    HW149928   2.768   2.674   4.978 -2.6187 -2.2068  2.1402
44106SOL    HW249929   2.693   2.805   4.974  1.1535  0.1314 -2.5993
44107SOL     OW49930   2.658   1.305  12.804 -0.5335 -0.4388  0.0276
44107SOL    HW149931   2.674   1.380  12.746  1.1906 -1.6514 -1.1954
44107SOL    HW249932   2.687   1.334  12.890  1.2005 -0.0170 -0.6556
44108SOL     OW49933  12.326   2.663   8.839  0.5810  0.1254  0.4664
44108SOL    HW149934  12.375   2.640   8.760  2.5618  0.2321  1.5781
44108SOL    HW249935  12.242   2.696   8.808  1.9944  1.9500 -1.7055
44109SOL     OW49936   6.275   6.403   0.723 -0.4302  0.3584 -0.0834
44109SOL    HW149937   6.325   6.484   0.722 -0.4468  0.5206  3.1130
44109SOL    HW249938   6.184   6.431   0.713 -0.2764  0.4214 -1.6482
44110SOL     OW49939  13.391   9.126  11.415 -0.4971  0.1194 -0.5063
44110SOL    HW149940  13.351   9.205  11.379 -0.9225  0.4630  0.6738
44110SOL    HW249941  13.392   9.141  11.510  0.2342 -0.9143 -0.3343
44111SOL     OW49942   8.634   0.236  12.291  0.9897  0.4896  0.1457
44111SOL    HW149943   8.552   0.197  12.319  2.0424 -1.3715  0.7608
44111SOL    HW249944   8.626   0.329  12.314 -1.5030  0.6813 -1.1837
44112SOL     OW49945   8.587  13.120   8.177 -0.5284  0.0830  0.8417
44112SOL    HW149946   8.613  13.113   8.085 -0.0441  0.5369  0.9376
44112SOL    HW249947   8.633  13.048   8.221  0.4834  0.7894  0.9837
44113SOL     OW49948  10.527   1.881   8.357  0.1966  0.1580 -0.0621
44113SOL    HW149949  10.615   1.907   8.331 -0.0608 -0.3696 -1.6004
44113SOL    HW249950  10.508   1.804   8.303  0.0034 -1.7722  2.5515
44114SOL     OW49951  10.103   7.511  13.772 -0.0693 -0.2053  0.1449
44114SOL    HW149952  10.093   7.554  13.857  0.3467  0.3354 -0.0787
44114SOL    HW249953  10.117   7.418  13.794  1.2848  0.1176  0.7297
44115SOL     OW49954   4.325   6.078   6.314 -0.0077  0.9015  0.6341
44115SOL    HW149955   4.402   6.050   6.363 -0.8931  0.2570  1.7138
44115SOL    HW249956   4.258   6.094   6.381 -1.7220 -1.3561 -0.3779
44116SOL     OW49957   4.218   2.877  11.180 -0.3112 -0.3499 -0.1146
44116SOL    HW149958   4.214   2.784  11.161  1.2617 -1.4089  3.8300
44116SOL    HW249959   4.150   2.892  11.246  0.4026  0.9661  0.3750
44117SOL     OW49960   4.871  10.353   4.622  0.2757 -0.8107  0.0120
44117SOL    HW149961   4.958  10.326   4.649  0.2711 -0.8382 -0.0001
44117SOL    HW249962   4.885  10.430   4.567  0.4502 -2.0190 -1.7337
44118SOL     OW49963   2.847   9.722   3.054 -0.2713 -0.3922  0.6779
44118SOL    HW149964   2.771   9.697   3.106  0.0365 -1.0705  0.8097
44118SOL    HW249965   2.827   9.692   2.965  0.0504 -1.0206  0.8134
44119SOL     OW49966   7.612   1.493  12.010 -0.4552 -0.1563  0.1994
44119SOL    HW149967   7.617   1.470  11.917 -0.6725  1.5620 -0.2843
44119SOL    HW249968   7.544   1.437  12.046  0.5605 -1.7976 -0.3508
44120SOL     OW49969   6.832   8.201   2.624 -0.6426 -0.7346 -0.1743
44120SOL    HW149970   6.767   8.154   2.676 -1.1935  0.9329  0.7108
44120SOL    HW249971   6.909   8.144   2.625 -1.5655 -2.0321  0.0673
44121SOL     OW49972   0.102   1.412  10.878  0.5915 -0.0556 -0.4230
44121SOL    HW149973   0.021   1.459  10.903  1.5531  2.0309 -0.9900
44121SOL    HW249974   0.073   1.344  10.818 -1.0043 -0.9331  1.2312
44122SOL     OW49975   5.078   2.546   3.560 -0.3112  0.1379 -0.1354
44122SOL    HW149976   4.995   2.506   3.533  0.4117 -0.9346 -0.8760
44122SOL    HW249977   5.144   2.483   3.532  0.7808  1.1632  0.0885
44123SOL     OW49978   5.626   2.902  10.385 -0.0477 -0.2291  0.2016
44123SOL    HW149979   5.612   2.902  10.290  1.4352 -0.5881 -0.0437
44123SOL    HW249980   5.637   2.809  10.407  0.4949 -0.0768  0.5789
44124SOL     OW49981  11.814   7.166   2.115  0.1877 -0.0681  0.6474
44124SOL    HW149982  11.829   7.260   2.125  1.4819 -0.2336  0.4230
44124SOL    HW249983  11.843   7.146   2.026  2.4488 -1.1198  1.5538
44125SOL     OW49984   5.317  11.118   9.723  0.6930  0.3741 -0.4656
44125SOL    HW149985   5.251  11.070   9.674  0.5075 -1.5169  1.4664
44125SOL    HW249986   5.397  11.066   9.712  1.1263  1.0094 -0.3692
44126SOL     OW49987  11.910   4.369   6.306  0.1152  0.3056 -1.2680
44126SOL    HW149988  11.894   4.430   6.234  0.9991 -0.2661 -1.9711
44126SOL    HW249989  12.005   4.359   6.309  0.0959  0.2781 -0.0379
44127SOL     OW49990   7.798   5.652   0.705  0.1556 -0.0866  0.2583
44127SOL    HW149991   7.892   5.657   0.724 -0.2567  0.9907  2.4180
44127SOL    HW249992   7.762   5.731   0.746 -1.6523 -0.2746 -0.8750
44128SOL     OW49993   5.148   8.602  13.357  0.0192  0.4983  0.3745
44128SOL    HW149994   5.129   8.696  13.358 -1.1404  0.2795  0.7399
44128SOL    HW249995   5.070   8.562  13.318  1.0214 -0.2222 -0.9593
44129SOL     OW49996   4.027  13.752   7.305  0.3149  0.3067 -0.2974
44129SOL    HW149997   4.110  13.731   7.263 -0.7111  0.5674 -2.6139
44129SOL    HW249998   4.015  13.846   7.287 -0.8826  0.0733 -0.8121
44130SOL     OW49999   2.605  11.967  10.234  0.1839  0.2554 -0.7689
44130SOL    HW150000   2.599  11.971  10.138 -0.5283  0.3401 -0.7315
44130SOL    HW250001   2.695  11.940  10.251 -0.0220 -0.9766 -1.5009
44131SOL     OW50002  12.047   4.770  11.136 -0.6835  0.1228 -0.0544
44131SOL    HW150003  12.136   4.806  11.129  0.0235 -1.5219 -0.0599
44131SOL    HW250004  11.991   4.837  11.097  0.7770  0.3830 -1.8878
44132SOL     OW50005   3.355   4.896   8.062 -0.0790 -0.0276 -0.2887
44132SOL    HW150006   3.369   4.915   8.155  1.8590 -2.0544 -0.0899
44132SOL    HW250007   3.322   4.979   8.026 -2.1390  0.4668  2.3781
44133SOL     OW50008   7.832   6.302   0.009 -0.3069 -0.0158  0.3596
44133SOL    HW150009   7.887   6.346   0.075 -0.0449  0.3021 -0.0659
44133SOL    HW250010   7.853   6.347  -0.073  1.6802 -2.3378 -0.5443
44134SOL     OW50011   3.980   8.550   9.800  0.2032 -0.1412 -0.4647
44134SOL    HW150012   3.926   8.629   9.794  0.5001  0.2288  1.2861
44134SOL    HW250013   4.043   8.569   9.869  0.4635 -1.8115 -0.2017
44135SOL     OW50014   3.877  12.898  13.405  0.2233 -0.9093 -0.4110
44135SOL    HW150015   3.867  12.812  13.363 -0.8804 -0.4927 -1.0669
44135SOL    HW250016   3.805  12.902  13.468  0.7532 -0.7718  0.1984
44136SOL     OW50017  13.319   7.736  11.243  0.0895 -0.0572  0.8295
44136SOL    HW150018  13.322   7.732  11.147  1.3743 -0.4748  0.8581
44136SOL    HW250019  13.324   7.645  11.271  0.1964  0.0866  1.2898
44137SOL     OW50020   7.139  12.536   9.739  0.1911  0.4737  0.2394
44137SOL    HW150021   7.099  12.451   9.723  0.5364  0.6598 -1.9342
44137SOL    HW250022   7.208  12.518   9.804 -1.9543 -0.1906  2.5101
44138SOL     OW50023   4.951   3.623   4.297 -0.0584 -0.9206  0.1638
44138SOL    HW150024   5.022   3.681   4.268  0.6069 -2.0620 -0.5867
44138SOL    HW250025   4.986   3.534   4.284 -1.3483 -1.4991  0.5033
44139SOL     OW50026  12.253   3.687   0.262  0.5795 -0.3951 -0.1803
44139SOL    HW150027  12.346   3.709   0.251  0.2822  1.1534  0.1468
44139SOL    HW250028  12.237   3.695   0.356  0.1168 -0.6466 -0.2340
44140SOL     OW50029  11.887  12.302   7.743 -0.9214  0.0327  0.1045
44140SOL    HW150030  11.803  12.332   7.707 -1.5131  0.2955  1.6209
44140SOL    HW250031  11.868  12.215   7.779  0.1858 -1.1683 -2.0459
44141SOL     OW50032   8.955   1.208   3.739 -0.1805  0.0830  0.4073
44141SOL    HW150033   8.937   1.115   3.754  0.9833 -0.2234  0.0198
44141SOL    HW250034   8.999   1.237   3.819 -0.0968  0.1725  0.3290
44142SOL     OW50035   3.377   4.246   1.107 -0.0303  0.1272  0.3094
44142SOL    HW150036   3.437   4.194   1.053  0.4025  0.6583  0.2749
44142SOL    HW250037   3.353   4.320   1.052  0.9540  1.0433  1.0745
44143SOL     OW50038   5.318   3.747   7.834 -0.3274  0.4806 -0.0620
44143SOL    HW150039   5.318   3.657   7.867 -0.7438 -0.2887 -1.9721
44143SOL    HW250040   5.396   3.787   7.872  0.7675 -1.1973 -0.4175
44144SOL     OW50041   4.734   1.004   7.300  0.4033 -0.2023 -0.3681
44144SOL    HW150042   4.751   1.041   7.387 -1.3556 -0.8385  0.2875
44144SOL    HW250043   4.816   1.017   7.252  0.7412  2.0171  0.7079
44145SOL     OW50044  11.512   9.434   3.555  0.1410 -0.7037 -0.1661
44145SOL    HW150045  11.467   9.494   3.496 -1.6322 -3.6334 -2.0674
44145SOL    HW250046  11.591   9.409   3.508  0.2319 -0.8197  0.0473
44146SOL     OW50047   2.240  10.163   2.180 -0.2779 -0.1956  0.3239
44146SOL    HW150048   2.154  10.201   2.164 -1.1770 -2.1703  0.1720
44146SOL    HW250049   2.257  10.179   2.272 -0.5214  0.7392  0.2113
44147SOL     OW50050   4.814   0.165   7.158  0.4670 -0.2835  0.8453
44147SOL    HW150051   4.761   0.100   7.204 -3.4742  1.2744 -1.0209
44147SOL    HW250052   4.841   0.226   7.226 -2.3051  0.1350  1.7049
44148SOL     OW50053  10.082  12.016  12.172  0.5281 -0.5071 -0.2618
44148SOL    HW150054  10.062  12.056  12.087 -0.6707  1.8426  1.0244
44148SOL    HW250055  10.008  11.959  12.190 -1.0141  1.6512  0.6638
44149SOL     OW50056   8.096   4.657   1.591  0.2288  0.5592 -0.0997
44149SOL    HW150057   8.079   4.573   1.634 -3.4405  1.4363  0.5445
44149SOL    HW250058   8.082   4.722   1.659  0.4599  1.7940 -1.1856
44150SOL     OW50059   9.516   3.060  10.438  0.1921 -0.2346  0.2029
44150SOL    HW150060   9.461   2.994  10.396 -0.1654 -0.2703  0.7185
44150SOL    HW250061   9.604   3.044  10.403 -0.0544 -0.4167 -0.3403
44151SOL     OW50062   4.959   2.406  13.353  0.2047 -0.9046 -0.0640
44151SOL    HW150063   4.963   2.434  13.261 -2.7381  0.7642  0.1846
44151SOL    HW250064   4.895   2.335  13.353 -1.1693  0.2613  0.8280
44152SOL     OW50065   6.704   1.695   0.572 -1.1142  0.4617  0.2505
44152SOL    HW150066   6.799   1.693   0.576 -0.9405 -0.0987 -2.2639
44152SOL    HW250067   6.676   1.613   0.612 -0.4511  0.0633 -0.0883
44153SOL     OW50068   1.238  10.285   5.420 -0.4971 -0.5614  0.1923
44153SOL    HW150069   1.218  10.376   5.443 -1.4206 -0.4995 -0.7671
44153SOL    HW250070   1.161  10.235   5.449 -0.6591 -0.8090 -0.6460
44154SOL     OW50071   7.592   3.220   6.091  0.0033  0.2202 -0.0460
44154SOL    HW150072   7.532   3.287   6.058  1.6825  1.2388 -1.1804
44154SOL    HW250073   7.603   3.160   6.017 -0.8209 -0.8446  0.6803
44155SOL     OW50074   8.560   3.518   9.226  0.5623  0.2567 -0.2259
44155SOL    HW150075   8.501   3.580   9.181  0.8939  1.1234  0.5102
44155SOL    HW250076   8.503   3.471   9.287 -0.0775 -1.5795 -2.1268
44156SOL     OW50077   5.630  12.153   5.138  0.2349  0.2155 -0.2425
44156SOL    HW150078   5.545  12.147   5.182  0.6323 -0.5019  0.4306
44156SOL    HW250079   5.610  12.197   5.055 -1.1536 -1.7873 -1.0378
44157SOL     OW50080   6.724  13.486   5.935  0.4945 -0.3852 -0.6336
44157SOL    HW150081   6.754  13.555   5.876 -1.7910  0.0464 -1.4002
44157SOL    HW250082   6.702  13.413   5.876  1.6848 -1.3216  0.0520
44158SOL     OW50083   7.722   0.876   9.838 -0.0981  0.2216  0.8406
44158SOL    HW150084   7.632   0.870   9.871 -0.9207  0.1397 -1.2208
44158SOL    HW250085   7.717   0.942   9.768  0.6607 -2.0374 -1.5052
44159SOL     OW50086   9.841   2.625   4.322 -0.2101 -0.1391 -0.3822
44159SOL    HW150087   9.791   2.555   4.365 -0.1133 -0.0265 -0.0794
44159SOL    HW250088   9.829   2.701   4.379  1.4329 -0.4674  0.4771
44160SOL     OW50089  11.953   8.344   0.016  0.0880  0.5179  0.4360
44160SOL    HW150090  11.949   8.405  -0.058 -0.8631  0.6831  0.6127
44160SOL    HW250091  12.034   8.366   0.061 -0.9356  2.7066  1.3764
44161SOL     OW50092   4.516  13.209  10.677 -0.1207  0.0316  0.3883
44161SOL    HW150093   4.573  13.282  10.653 -0.0894 -0.7827 -2.5254
44161SOL    HW250094   4.574  13.132  10.676 -0.7988 -0.4929 -0.3170
44162SOL     OW50095   2.476   4.631   6.675  0.1023 -0.5547 -1.0928
44162SOL    HW150096   2.569   4.646   6.662  0.2426 -1.1196 -0.7706
44162SOL    HW250097   2.455   4.557   6.618  0.4267 -2.1194  0.7200
44163SOL     OW50098   3.330   8.917  11.952 -0.3482  0.2607 -0.1141
44163SOL    HW150099   3.286   8.870  12.023 -0.3444 -0.4126 -0.5505
44163SOL    HW250100   3.361   8.849  11.893 -0.1206  0.8005 -0.6348
44164SOL     OW50101   4.490   2.223   6.911 -0.1783  0.5493  0.3604
44164SOL    HW150102   4.532   2.136   6.910 -0.2968  0.4912  0.4501
44164SOL    HW250103   4.413   2.211   6.966  0.0069  0.8084  0.6753
44165SOL     OW50104   3.772   2.121   6.309 -0.3826 -0.1024  0.2555
44165SOL    HW150105   3.855   2.090   6.273  0.0592  0.6264  0.6380
44165SOL    HW250106   3.750   2.055   6.376 -0.7887 -1.0035 -0.7413
44166SOL     OW50107   3.551   1.405  12.134 -0.6044  0.3754 -0.2378
44166SOL    HW150108   3.529   1.363  12.051  0.9959 -0.4997 -0.2628
44166SOL    HW250109   3.487   1.369  12.196 -0.8173 -0.1997 -0.7724
44167SOL     OW50110   2.473  10.598   1.410 -0.0086 -0.1800  0.1586
44167SOL    HW150111   2.498  10.689   1.396  1.3415  0.1231  3.5853
44167SOL    HW250112   2.516  10.573   1.491 -3.5268 -2.6366  1.5369
44168SOL     OW50113  11.164   9.028   6.459  0.6618 -0.0628 -0.1323
44168SOL    HW150114  11.176   9.046   6.366 -0.2274  1.7295  0.0525
44168SOL    HW250115  11.229   9.083   6.503  1.5713 -1.4372  0.3174
44169SOL     OW50116  11.983   1.213  11.864 -0.0124 -0.5262  0.3517
44169SOL    HW150117  12.003   1.147  11.798  1.7847  0.3954 -0.1101
44169SOL    HW250118  12.051   1.202  11.930  1.8793  2.2771 -0.8976
44170SOL     OW50119  12.583   7.217  13.422  0.4714 -0.1713  0.0183
44170SOL    HW150120  12.617   7.129  13.439 -1.6042 -1.0610 -0.1272
44170SOL    HW250121  12.495   7.202  13.386  0.2160  1.9601 -0.3608
44171SOL     OW50122   1.362   8.932   7.907  0.3980  0.0218 -0.2002
44171SOL    HW150123   1.446   8.897   7.937 -0.0020 -1.7446 -0.9820
44171SOL    HW250124   1.385   8.990   7.835  0.9850 -0.0747 -0.0977
44172SOL     OW50125   0.417   2.396   5.338 -0.0810  0.1589 -0.1686
44172SOL    HW150126   0.445   2.457   5.406 -1.0941  0.0044  0.4135
44172SOL    HW250127   0.385   2.451   5.268  1.1414  0.3243 -0.6194
44173SOL     OW50128   1.802   3.525   1.640 -0.0703  0.4637  0.1554
44173SOL    HW150129   1.780   3.432   1.631  0.4121  0.4450 -1.0645
44173SOL    HW250130   1.878   3.527   1.698  0.1432  0.0648 -0.1103
44174SOL     OW50131  13.804   2.919   9.543 -0.4568 -0.2727  0.7555
44174SOL    HW150132  13.740   2.875   9.487  1.5614 -1.3313 -0.8379
44174SOL    HW250133  13.856   2.848   9.580 -0.7125  0.5141  2.7701
44175SOL     OW50134   6.945   5.064   3.595  0.8374 -0.2044  0.4260
44175SOL    HW150135   6.862   5.108   3.578  0.8806 -1.0024 -2.4816
44175SOL    HW250136   6.971   5.093   3.682 -1.3812  1.8019  0.5146
44176SOL     OW50137  12.444   4.858   6.447  0.0500  0.3660  0.1809
44176SOL    HW150138  12.434   4.948   6.479  0.8567  0.4209  0.2923
44176SOL    HW250139  12.523   4.861   6.393 -0.4468 -0.0669 -0.5924
44177SOL     OW50140   5.583   5.616   3.455  0.1940  0.0130 -0.0620
44177SOL    HW150141   5.633   5.656   3.526 -1.8995  2.2445  0.2791
44177SOL    HW250142   5.513   5.567   3.498  0.2250 -0.4909 -0.5685
44178SOL     OW50143   2.584   1.467   0.940 -0.7118  0.0980 -0.3851
44178SOL    HW150144   2.606   1.434   0.853  1.8878  1.9650 -0.5540
44178SOL    HW250145   2.574   1.389   0.994 -0.7406 -1.0524 -1.9793
44179SOL     OW50146  13.388  13.769   8.946 -0.3377 -0.3380 -0.2518
44179SOL    HW150147  13.381  13.796   9.038  0.9108  0.4017 -0.3527
44179SOL    HW250148  13.461  13.819   8.912  0.2979 -1.8499 -1.2058
44180SOL     OW50149   9.077   0.156  12.532  0.2067  0.7297  0.5315
44180SOL    HW150150   9.155   0.189  12.575  2.3070 -0.5576 -1.9609
44180SOL    HW250151   9.066   0.211  12.455 -0.7350  0.2373  0.2870
44181SOL     OW50152  12.158   3.019   9.623  0.4598 -0.2305  0.1375
44181SOL    HW150153  12.079   3.055   9.583  0.1628  0.7548  1.5156
44181SOL    HW250154  12.128   2.943   9.672  0.5791 -0.5676 -0.3058
44182SOL     OW50155   0.601   5.954   2.988  0.6294 -0.3901 -0.1722
44182SOL    HW150156   0.665   5.883   2.991 -1.3284 -2.2479  0.4320
44182SOL    HW250157   0.562   5.948   2.901  0.1412 -0.3577  0.0407
44183SOL     OW50158   5.129   2.350   7.221 -0.9424 -0.4011  0.1442
44183SOL    HW150159   5.146   2.444   7.215 -0.0944 -0.6084 -0.8509
44183SOL    HW250160   5.113   2.323   7.131 -0.1139 -1.4033  0.2828
44184SOL     OW50161  12.275   0.494   2.030  0.3947 -0.7646 -0.1871
44184SOL    HW150162  12.357   0.456   2.061  2.0665  2.4878 -0.2334
44184SOL    HW250163  12.240   0.541   2.106  0.7169  1.1836 -1.1948
44185SOL     OW50164   8.635   1.139   6.677 -0.3162 -0.7700 -0.1094
44185SOL    HW150165   8.572   1.202   6.641  0.5551  0.1076 -0.1459
44185SOL    HW250166   8.691   1.116   6.603  0.0798 -0.7044  0.1676
44186SOL     OW50167  11.082   4.639   5.527 -0.2040 -0.1964 -0.4692
44186SOL    HW150168  11.049   4.689   5.453 -0.4272  0.2546 -0.0714
44186SOL    HW250169  11.049   4.551   5.513  0.9497 -0.4597 -1.6569
44187SOL     OW50170  13.843  11.549  11.884 -0.1702 -0.2517  0.6604
44187SOL    HW150171  13.871  11.590  11.965 -0.5759  0.7907  0.2889
44187SOL    HW250172  13.876  11.607  11.815  1.2309 -1.7525  0.0066
44188SOL     OW50173   3.281   1.322   7.980 -0.2368 -1.3117  0.0088
44188SOL    HW150174   3.277   1.415   8.001  0.3081 -0.9556 -1.3440
44188SOL    HW250175   3.360   1.291   8.024  0.0932 -0.9173 -0.2939
44189SOL     OW50176  10.555   1.067  10.958  0.0936 -0.5698  0.2643
44189SOL    HW150177  10.505   1.008  10.902  0.2952  1.3186 -2.0391
44189SOL    HW250178  10.490   1.103  11.019 -0.9220  0.1226 -1.1886
44190SOL     OW50179   2.481  11.920  12.326  0.4697 -0.2302  0.0773
44190SOL    HW150180   2.426  11.987  12.367 -1.2682 -1.3993 -0.2497
44190SOL    HW250181   2.555  11.911  12.385 -1.0024 -0.4840  1.9803
44191SOL     OW50182   7.084  11.012   4.568  0.7398  0.0963 -0.2531
44191SOL    HW150183   7.091  11.107   4.580  1.6028  0.1040 -0.7377
44191SOL    HW250184   7.162  10.989   4.517 -0.1906 -0.6702 -1.3501
44192SOL     OW50185   7.174   6.917  13.214  1.0180 -0.6505  0.0374
44192SOL    HW150186   7.197   6.957  13.297  0.9375 -0.3797 -0.0701
44192SOL    HW250187   7.162   6.824  13.234  2.9703 -0.9536 -0.0435
44193SOL     OW50188   6.355   2.696   1.287  0.3316  0.0080 -0.4369
44193SOL    HW150189   6.261   2.704   1.270  0.2135  1.9810  0.7572
44193SOL    HW250190   6.361   2.661   1.375  0.7792 -1.5732 -1.0667
44194SOL     OW50191   6.101   8.839  13.775  0.0961 -0.6096  0.1018
44194SOL    HW150192   6.166   8.800  13.717 -0.0513 -0.4304 -0.1843
44194SOL    HW250193   6.150   8.859  13.855  0.4829 -0.1512 -0.2398
44195SOL     OW50194  13.619   1.357   3.302 -0.2227  0.6369  0.2691
44195SOL    HW150195  13.581   1.345   3.389  0.5793  2.5329  0.9289
44195SOL    HW250196  13.685   1.425   3.314  1.7760 -0.8691 -1.2826
44196SOL     OW50197  12.403  10.439   7.145  0.0240 -0.4934  0.2712
44196SOL    HW150198  12.397  10.475   7.234 -1.0805 -0.1508  0.0785
44196SOL    HW250199  12.471  10.372   7.151  1.2581  0.7600  0.9373
44197SOL     OW50200  13.714   1.329   0.838  0.2923 -0.6408 -0.0949
44197SOL    HW150201  13.806   1.306   0.825  0.0479 -2.3856  0.9880
44197SOL    HW250202  13.693   1.299   0.926 -1.6017 -1.3054 -0.7115
44198SOL     OW50203  10.845   7.816   3.537  0.2916  0.0990 -0.2175
44198SOL    HW150204  10.790   7.887   3.505 -1.3115 -0.1889  1.6497
44198SOL    HW250205  10.783   7.755   3.578  1.5437 -2.5631 -1.9973
44199SOL     OW50206   2.563  12.864   3.588 -0.1314  0.0503  0.7093
44199SOL    HW150207   2.554  12.780   3.633  0.0900  0.5002  1.6217
44199SOL    HW250208   2.480  12.909   3.605 -0.2188  0.0533  0.2879
44200SOL     OW50209   0.209   9.694  10.243  0.3740  0.1579  0.0924
44200SOL    HW150210   0.141   9.695  10.176  0.7942 -0.1634 -0.3434
44200SOL    HW250211   0.182   9.624  10.303 -0.3074  0.8304  0.5885
44201SOL     OW50212   0.643  11.866   8.289 -0.1324 -0.3867 -0.6690
44201SOL    HW150213   0.633  11.940   8.349 -1.5101 -1.3224  0.3364
44201SOL    HW250214   0.720  11.819   8.321 -0.3816 -0.4226 -0.0993
44202SOL     OW50215   8.268   7.311   1.739 -0.1321  0.0148 -0.1569
44202SOL    HW150216   8.348   7.329   1.788  1.2310  0.9894 -2.5190
44202SOL    HW250217   8.251   7.393   1.691 -2.5181 -0.2096  0.1935
44203SOL     OW50218  13.716  13.944   2.722 -0.1538  0.1667 -0.2221
44203SOL    HW150219  13.653  13.897   2.777 -0.6011  0.1727 -0.7257
44203SOL    HW250220  13.801  13.910   2.749 -0.3413  0.3785  0.6839
44204SOL     OW50221  12.918   8.515   3.190  0.2020 -0.3059  0.1117
44204SOL    HW150222  12.941   8.434   3.234  2.8066  0.7457  0.9034
44204SOL    HW250223  12.942   8.584   3.252 -0.5925  1.1313 -1.0819
44205SOL     OW50224  10.024  11.078  12.963  0.0814 -0.0907 -0.4900
44205SOL    HW150225   9.936  11.085  12.925 -0.2045  0.7025  0.2755
44205SOL    HW250226  10.028  11.150  13.025  0.6229 -1.1878  0.7922
44206SOL     OW50227  11.864  10.759   7.195 -0.5732  0.1158  0.0952
44206SOL    HW150228  11.847  10.809   7.275 -0.7453  0.8150 -0.3649
44206SOL    HW250229  11.796  10.692   7.193 -1.9156  1.4150 -0.5257
44207SOL     OW50230   2.342   8.717   7.447  0.2465 -0.1859  0.3845
44207SOL    HW150231   2.350   8.792   7.388 -1.2764  0.4228  0.9104
44207SOL    HW250232   2.328   8.757   7.533 -2.5768 -1.0239  0.3987
44208SOL     OW50233   0.087   0.811   1.141  0.5348 -0.2115  0.4101
44208SOL    HW150234   0.174   0.831   1.107  1.2257 -0.7025  1.8221
44208SOL    HW250235   0.101   0.794   1.234 -0.6663 -2.7524  0.2197
44209SOL     OW50236   5.590   5.879   2.126 -0.2222  0.2277  0.5763
44209SOL    HW150237   5.642   5.924   2.193 -0.3595 -0.2183  0.9897
44209SOL    HW250238   5.654   5.837   2.069 -0.1095  0.4080  0.5703
44210SOL     OW50239   1.780   6.453   7.164  0.3150  0.8431 -0.7176
44210SOL    HW150240   1.777   6.529   7.222 -0.3259 -0.1566  0.6212
44210SOL    HW250241   1.845   6.395   7.206 -0.5726 -0.1375 -0.6718
44211SOL     OW50242   3.978   7.297   5.631 -0.0684  0.4409 -0.4066
44211SOL    HW150243   4.023   7.337   5.706 -1.6843  1.0722  0.2748
44211SOL    HW250244   3.949   7.212   5.663  0.1468  0.2671 -0.6673
44212SOL     OW50245  13.434  13.311  12.681  0.1788 -0.0415 -0.0957
44212SOL    HW150246  13.431  13.250  12.755 -1.1039 -0.6827 -0.6404
44212SOL    HW250247  13.354  13.363  12.689 -0.0405 -0.2087 -1.0878
44213SOL     OW50248   3.045   8.260   1.671  0.2398 -0.0338  0.1613
44213SOL    HW150249   3.032   8.316   1.595  1.3363  2.9178  1.9791
44213SOL    HW250250   2.974   8.284   1.731  0.4368 -0.9804  0.7893
44214SOL     OW50251  12.789   0.405   6.980 -0.1845  0.5071  0.0412
44214SOL    HW150252  12.743   0.454   6.911  1.6053  1.2660 -0.6799
44214SOL    HW250253  12.769   0.314   6.962 -1.0646  0.7885 -0.4918
44215SOL     OW50254  11.749   9.475   5.652 -0.4212  0.3285  0.3648
44215SOL    HW150255  11.776   9.516   5.570 -0.4462 -0.4052 -0.0194
44215SOL    HW250256  11.738   9.548   5.713  0.6261  0.7899  0.0182
44216SOL     OW50257   8.111   6.690   3.315 -0.1242 -0.7110 -0.4877
44216SOL    HW150258   8.157   6.719   3.393 -0.0917  0.5443 -0.9499
44216SOL    HW250259   8.134   6.597   3.306  0.4464 -0.6821  0.5727
44217SOL     OW50260  10.035   3.246   6.941  0.2860 -0.1237  0.0165
44217SOL    HW150261   9.950   3.287   6.928  0.8586  1.6295  1.4298
44217SOL    HW250262  10.032   3.209   7.029  1.5314  1.5417  0.8232
44218SOL     OW50263  12.029   5.359  11.534  0.1904 -0.3516 -0.0964
44218SOL    HW150264  12.063   5.447  11.551 -0.1309 -0.2376 -0.0382
44218SOL    HW250265  12.095   5.300  11.572  1.4179 -0.1983 -1.8985
44219SOL     OW50266  12.712  10.295  11.876 -0.0209  0.4355 -0.0086
44219SOL    HW150267  12.711  10.357  11.803 -1.1480 -0.7071 -0.9993
44219SOL    HW250268  12.792  10.243  11.861 -0.4189 -0.0120 -0.6373
44220SOL     OW50269   5.366  12.068  12.397 -0.2141  0.3493 -0.7172
44220SOL    HW150270   5.313  12.079  12.318 -1.8543  0.3593  0.3380
44220SOL    HW250271   5.402  12.155  12.414 -2.0939  1.0354  0.0296
44221SOL     OW50272   9.716   8.360   0.483  0.1859  0.3178 -0.4502
44221SOL    HW150273   9.723   8.428   0.416  0.0026  1.0481  0.2552
44221SOL    HW250274   9.636   8.382   0.532  0.2663 -0.2489 -0.0563
44222SOL     OW50275   8.366  12.541   2.508 -0.5717  0.4657 -0.6348
44222SOL    HW150276   8.361  12.478   2.580 -0.1480  1.3723  0.2179
44222SOL    HW250277   8.425  12.500   2.445 -1.0594 -0.4048 -0.5491
44223SOL     OW50278   6.517   1.937   7.319 -0.2503  0.0749  0.0431
44223SOL    HW150279   6.572   2.014   7.309 -0.8741  0.3578 -1.5738
44223SOL    HW250280   6.576   1.868   7.349  0.4785  0.9611  0.6834
44224SOL     OW50281   0.539   5.535   9.565  0.4158  0.2334 -0.1609
44224SOL    HW150282   0.613   5.495   9.611  1.8769  0.3223 -2.2769
44224SOL    HW250283   0.567   5.625   9.548 -0.7660  0.6862  0.1926
44225SOL     OW50284   0.286   5.774   2.894 -0.5070 -0.3558  0.3445
44225SOL    HW150285   0.311   5.822   2.973 -0.5430 -0.4487  0.4125
44225SOL    HW250286   0.259   5.841   2.832  3.5608  0.2174 -1.1589
44226SOL     OW50287  11.132  10.591   1.586  0.1718  0.0305  0.1550
44226SOL    HW150288  11.217  10.549   1.578  0.2789 -0.0905  1.6458
44226SOL    HW250289  11.150  10.674   1.630 -0.4386  0.1683  0.1540
44227SOL     OW50290   7.074   3.413   1.465 -0.0980 -0.1822  0.0739
44227SOL    HW150291   7.028   3.350   1.410 -1.3600  0.8993 -0.1532
44227SOL    HW250292   7.167   3.396   1.448 -0.4237 -1.3877 -0.6345
44228SOL     OW50293   8.355   1.106   4.839  0.3947  0.5823 -0.0094
44228SOL    HW150294   8.399   1.126   4.922  2.1537  1.5054 -1.1350
44228SOL    HW250295   8.360   1.011   4.832 -0.7995  0.3608  1.4495
44229SOL     OW50296   6.546   1.624  11.908  0.3986  0.1374  0.0648
44229SOL    HW150297   6.613   1.562  11.880  0.1970  0.4803 -1.2568
44229SOL    HW250298   6.480   1.621  11.838  0.3870  1.8380 -0.0366
44230SOL     OW50299   2.393   7.262   0.663  0.3057  0.0433  0.0255
44230SOL    HW150300   2.331   7.193   0.688  0.9792 -0.0412  1.5638
44230SOL    HW250301   2.430   7.231   0.581  0.1056 -1.1195  0.3431
44231SOL     OW50302   3.975  13.640   4.449 -0.0928 -0.1379  0.3622
44231SOL    HW150303   3.972  13.601   4.537  1.4221  0.6953  0.8100
44231SOL    HW250304   3.887  13.675   4.436 -0.1571  0.3257  1.8348
44232SOL     OW50305  12.050   5.546   9.192 -0.1111 -0.5011  0.7268
44232SOL    HW150306  12.002   5.473   9.153 -1.1871  1.2282 -1.4553
44232SOL    HW250307  11.991   5.582   9.258  0.1139 -1.1283  1.2757
44233SOL     OW50308   2.389   6.437   1.688 -0.1921 -0.2693 -0.7331
44233SOL    HW150309   2.318   6.425   1.751 -0.1498 -1.2250 -0.8620
44233SOL    HW250310   2.345   6.466   1.608 -0.4019 -0.5235 -0.7114
44234SOL     OW50311   1.107  13.003   7.780  0.2990  0.0914  0.4656
44234SOL    HW150312   1.094  13.093   7.810 -1.6613  0.3913 -1.0348
44234SOL    HW250313   1.195  12.981   7.808 -0.1968  1.4183  3.4489
44235SOL     OW50314   8.336   5.452   0.274 -0.3593 -0.0552 -0.4876
44235SOL    HW150315   8.310   5.360   0.280 -0.8357  0.0716 -0.5905
44235SOL    HW250316   8.278   5.490   0.208 -1.9507  0.9370  1.3933
44236SOL     OW50317   1.475  11.987   2.261  0.2774 -0.1755  0.7649
44236SOL    HW150318   1.554  11.945   2.296  0.7532  1.0223  1.1810
44236SOL    HW250319   1.492  11.994   2.167  1.1024  0.9085  0.9694
44237SOL     OW50320   9.565   2.145   9.210  0.1982  0.3583 -0.4325
44237SOL    HW150321   9.628   2.074   9.224  1.2307  0.9693 -1.7491
44237SOL    HW250322   9.503   2.137   9.282  1.0624 -1.0505  0.1914
44238SOL     OW50323   6.474   7.426   1.693 -0.0067  0.4782 -0.0725
44238SOL    HW150324   6.466   7.331   1.704  0.7521  0.0463 -2.5735
44238SOL    HW250325   6.407   7.448   1.629  1.4622  1.1499 -1.4610
44239SOL     OW50326   7.096  12.643   2.807 -0.0401  0.4169 -0.3562
44239SOL    HW150327   7.191  12.645   2.817 -0.0521  1.9138 -0.2701
44239SOL    HW250328   7.080  12.577   2.740  1.0726  0.1875 -0.4095
44240SOL     OW50329   5.173   4.350   5.784  0.0256 -0.1493  0.7125
44240SOL    HW150330   5.180   4.281   5.851 -0.2291 -0.8806  0.0075
44240SOL    HW250331   5.123   4.419   5.825 -1.8682 -1.4179  0.6537
44241SOL     OW50332   6.229  11.134   1.949  0.2392 -0.6971 -0.0356
44241SOL    HW150333   6.291  11.088   1.892 -0.7366 -1.2787 -0.6645
44241SOL    HW250334   6.251  11.226   1.939  1.1893 -0.9157 -0.0189
44242SOL     OW50335   3.354   0.949   1.374 -0.4766 -0.2410 -0.2416
44242SOL    HW150336   3.365   1.001   1.295 -0.8027 -0.4575 -0.4317
44242SOL    HW250337   3.400   0.998   1.442 -0.1990 -0.0518 -0.5638
44243SOL     OW50338   3.951   7.955   5.132  0.1544  0.2617  0.0424
44243SOL    HW150339   3.953   8.018   5.204  0.5656  2.0350 -1.4472
44243SOL    HW250340   4.027   7.899   5.146  0.6885  1.1018  0.5302
44244SOL     OW50341  10.257  12.985  13.804  0.1606 -0.1117  0.3516
44244SOL    HW150342  10.349  12.959  13.808 -0.2035 -1.5343  0.0887
44244SOL    HW250343  10.259  13.076  13.772  1.4791  0.0206  0.7497
44245SOL     OW50344   1.016   3.991   1.439  0.0254  0.0876  0.1530
44245SOL    HW150345   1.077   4.044   1.490  1.4281 -0.2708 -1.0854
44245SOL    HW250346   1.018   3.905   1.480  1.7781 -0.4324 -0.9360
44246SOL     OW50347   3.983   0.758   6.431  0.4360  0.6801  0.1742
44246SOL    HW150348   4.027   0.819   6.491 -0.5219  0.7461  0.8362
44246SOL    HW250349   4.038   0.757   6.353  0.7557  1.9775  0.3613
44247SOL     OW50350   5.664  11.156   6.274 -0.3242 -0.0466 -0.5529
44247SOL    HW150351   5.629  11.172   6.362 -0.9240 -1.2876 -0.5454
44247SOL    HW250352   5.616  11.080   6.242  0.0021  0.2814 -1.9041
44248SOL     OW50353  14.008   2.440   8.391 -0.2412  0.0727 -0.5348
44248SOL    HW150354  14.073   2.422   8.323 -0.0981  1.8289 -0.9182
44248SOL    HW250355  13.961   2.357   8.402  0.8981 -0.7375 -1.5001
44249SOL     OW50356   5.420   0.190   2.435 -0.3580  0.4105 -0.7954
44249SOL    HW150357   5.502   0.200   2.387 -0.4668 -1.7100 -1.4910
44249SOL    HW250358   5.354   0.176   2.368 -1.0788  0.7276 -0.1674
44250SOL     OW50359   2.118   0.891   7.329 -0.3926 -0.2906  0.0195
44250SOL    HW150360   2.192   0.872   7.387 -1.8510 -1.9368  1.4879
44250SOL    HW250361   2.122   0.985   7.314  2.3481 -0.4001 -0.5279
44251SOL     OW50362   1.121   2.957   8.254 -0.4328 -0.3056  0.0118
44251SOL    HW150363   1.205   3.000   8.236 -1.3151  1.1457 -0.8575
44251SOL    HW250364   1.140   2.897   8.326  1.4820 -0.4843 -0.5764
44252SOL     OW50365   9.934  10.938   1.450  0.3163 -0.1356  0.1976
44252SOL    HW150366   9.850  10.923   1.493 -1.9004 -1.6221 -4.0343
44252SOL    HW250367   9.983  10.858   1.465  0.2521  0.0018  1.1984
44253SOL     OW50368   3.122   4.874  10.052  0.2289  0.4327  0.0361
44253SOL    HW150369   3.034   4.884  10.017  0.4015  0.3967 -0.4179
44253SOL    HW250370   3.178   4.920   9.989  0.8926 -2.0717 -1.3495
44254SOL     OW50371  12.105   7.316   0.947  0.2977 -0.4728 -0.5395
44254SOL    HW150372  12.166   7.248   0.917 -0.7530 -0.9805 -1.5978
44254SOL    HW250373  12.120   7.389   0.887  0.0419 -0.4995 -0.6336
44255SOL     OW50374   7.485  12.316   5.853  0.3122 -0.4792  0.5425
44255SOL    HW150375   7.409  12.370   5.874  0.4582  0.4511 -1.1583
44255SOL    HW250376   7.560  12.375   5.859  0.3873 -0.1451 -2.1745
44256SOL     OW50377  10.445  11.383  12.172 -0.0759 -0.4684  0.3460
44256SOL    HW150378  10.471  11.300  12.212 -1.3690 -0.2860  1.6874
44256SOL    HW250379  10.354  11.369  12.145  0.7930 -0.6345 -2.8169
44257SOL     OW50380  12.523   8.796   2.438 -1.2160  0.0733 -0.5038
44257SOL    HW150381  12.546   8.871   2.383 -3.1581 -0.6663 -2.4489
44257SOL    HW250382  12.485   8.835   2.516  0.4778  1.1248 -0.1439
44258SOL     OW50383   5.112  11.023   9.519 -0.2744 -0.1110  0.3062
44258SOL    HW150384   5.079  11.086   9.455  2.0342  1.5712  0.6250
44258SOL    HW250385   5.035  10.996   9.569 -1.8154  0.0333 -1.8840
44259SOL     OW50386   2.312  10.292   1.214  0.0718  0.2169 -0.2998
44259SOL    HW150387   2.308  10.303   1.309  2.5519  2.6384 -0.3253
44259SOL    HW250388   2.363  10.368   1.184  0.0649 -0.9005 -3.4835
44260SOL     OW50389   4.801  14.065  11.336 -0.6141 -0.1109 -0.6383
44260SOL    HW150390   4.848  14.054  11.253 -0.8772 -0.4808 -0.7367
44260SOL    HW250391   4.720  14.110  11.312 -0.4677  0.2247 -0.5144
44261SOL     OW50392   5.835  10.379   1.969  0.0811 -0.3107 -0.0456
44261SOL    HW150393   5.818  10.466   1.933  0.4692 -0.4130 -0.4842
44261SOL    HW250394   5.757  10.328   1.947  0.2006 -0.2991 -0.5142
44262SOL     OW50395   3.304   8.307   4.166  0.0737 -0.0117 -0.1073
44262SOL    HW150396   3.227   8.295   4.222 -0.7178 -0.8322 -1.3234
44262SOL    HW250397   3.272   8.361   4.093  0.8013  0.1328 -0.3233
44263SOL     OW50398   4.051   5.882   3.682  0.6765  0.0018  0.4430
44263SOL    HW150399   4.107   5.953   3.713  2.1084 -2.0696  2.9910
44263SOL    HW250400   3.978   5.881   3.744  1.2092 -1.3734  1.0710
44264SOL     OW50401   3.841  10.569  10.747  0.4043  0.1881 -0.0693
44264SOL    HW150402   3.840  10.541  10.838  1.4618 -0.0883 -0.1326
44264SOL    HW250403   3.762  10.621  10.737 -2.2615 -3.4555 -0.1677
44265SOL     OW50404   5.324   2.588   3.340 -0.1620 -0.6651 -0.0263
44265SOL    HW150405   5.368   2.547   3.415 -1.7277 -4.0237 -0.7195
44265SOL    HW250406   5.384   2.575   3.267 -0.3134 -1.0985 -0.0820
44266SOL     OW50407   3.707   9.181  12.343 -0.7358 -0.3581  0.1762
44266SOL    HW150408   3.776   9.247  12.351 -0.2373 -0.6527 -1.3458
44266SOL    HW250409   3.629   9.224  12.378 -0.0737  0.4541  0.7034
44267SOL     OW50410   3.178   0.427  13.890 -0.3907  0.3964  0.0447
44267SOL    HW150411   3.169   0.489  13.818  0.2201  1.6970  1.0565
44267SOL    HW250412   3.266   0.391  13.880 -1.3542 -1.7565 -1.6036
44268SOL     OW50413   2.510  13.287   5.492  0.4012 -0.5570 -0.3840
44268SOL    HW150414   2.580  13.347   5.465  0.1847 -0.5895 -1.0186
44268SOL    HW250415   2.436  13.344   5.513  0.6697 -0.5064  0.4927
44269SOL     OW50416   4.581   4.108  12.014  0.3427 -1.0355 -0.6574
44269SOL    HW150417   4.554   4.095  11.923 -3.2520  0.0328  0.1033
44269SOL    HW250418   4.620   4.195  12.015  1.6895 -1.5967 -1.3539
44270SOL     OW50419   3.941  11.435   1.404  0.4046  0.0949  0.4966
44270SOL    HW150420   3.966  11.446   1.312 -1.2553 -1.4031 -0.1863
44270SOL    HW250421   3.986  11.355   1.431  0.3444  0.1607  0.7961
44271SOL     OW50422  10.976  11.904   0.027 -0.0703 -0.8096 -0.5781
44271SOL    HW150423  10.944  11.969   0.089  0.8498 -0.0430 -0.8918
44271SOL    HW250424  11.019  11.838   0.081 -2.8582 -2.3600 -0.0489
44272SOL     OW50425   6.130   3.380  11.263  0.3577 -0.3030 -0.1543
44272SOL    HW150426   6.189   3.381  11.188  0.2438 -0.6483 -0.2508
44272SOL    HW250427   6.051   3.423  11.232 -0.4068 -2.0973 -0.8406
44273SOL     OW50428  11.985   7.157   3.296  0.4590 -0.3757  0.0021
44273SOL    HW150429  11.950   7.068   3.302  2.8729 -1.4656 -0.9033
44273SOL    HW250430  11.974   7.181   3.204  0.0415  0.1860  0.1915
44274SOL     OW50431   8.418   5.132  12.327 -0.3301 -0.1930  0.1638
44274SOL    HW150432   8.508   5.099  12.322 -0.4900 -0.6116 -0.0312
44274SOL    HW250433   8.420   5.215  12.280 -0.1135 -0.3553 -0.1161
44275SOL     OW50434  11.021   8.647   4.917  0.2412 -0.4587  0.2906
44275SOL    HW150435  11.052   8.613   5.001  0.8983 -0.6269 -0.0103
44275SOL    HW250436  11.097   8.691   4.880  0.2412 -1.2134 -0.6373
44276SOL     OW50437   3.868  11.825   4.939  0.4193  0.4597 -0.1954
44276SOL    HW150438   3.862  11.919   4.924  2.8306  0.6855 -0.1123
44276SOL    HW250439   3.882  11.816   5.033  2.4493  0.2063 -0.4862
44277SOL     OW50440  12.292   1.659   1.593 -0.1423 -0.2695 -0.5828
44277SOL    HW150441  12.203   1.624   1.596 -0.0953 -0.4072 -0.7871
44277SOL    HW250442  12.281   1.753   1.577 -0.2470 -0.3109 -0.7500
44278SOL     OW50443   5.357  13.847  11.265 -0.0295 -0.7725 -0.3552
44278SOL    HW150444   5.437  13.898  11.278 -1.5928  2.0367 -0.9190
44278SOL    HW250445   5.296  13.908  11.224 -2.4926 -2.7960  0.0291
44279SOL     OW50446   5.072   2.037  11.241  0.9393  0.4473  0.7055
44279SOL    HW150447   5.036   2.121  11.213  0.6238  0.4954  1.2496
44279SOL    HW250448   5.162   2.038  11.208  0.4276  0.2682 -0.7705
44280SOL     OW50449   2.256  13.162   0.694  0.6359 -0.0412  0.0381
44280SOL    HW150450   2.272  13.078   0.737 -0.4698 -1.5055 -2.2299
44280SOL    HW250451   2.340  13.184   0.653  0.2775 -1.4512 -1.5634
44281SOL     OW50452   6.649   6.486  13.812 -0.5279 -0.3774  0.0964
44281SOL    HW150453   6.615   6.552  13.872  0.7511 -0.3340  0.7965
44281SOL    HW250454   6.655   6.532  13.728  2.3081  1.0977  0.9999
44282SOL     OW50455   0.637   7.812   5.668 -0.3145 -0.2503  0.1588
44282SOL    HW150456   0.718   7.810   5.720  0.1547 -2.7570 -0.4983
44282SOL    HW250457   0.571   7.848   5.727  0.6537 -0.9705  1.7586
44283SOL     OW50458  12.333   9.212  12.019  0.0254 -0.3471  0.1275
44283SOL    HW150459  12.356   9.261  12.099  0.5862 -0.8858  0.3064
44283SOL    HW250460  12.346   9.120  12.043 -0.5588 -0.5592 -0.3507
44284SOL     OW50461   7.183   5.300   0.866  1.1369  0.1439 -0.9401
44284SOL    HW150462   7.094   5.317   0.896  0.7942  0.6526 -2.1633
44284SOL    HW250463   7.208   5.380   0.819  2.8881  0.6917  0.7661
44285SOL     OW50464  10.448   5.015   1.501  0.0996 -0.6089  0.1136
44285SOL    HW150465  10.515   4.961   1.460  1.4888  0.7174  0.5660
44285SOL    HW250466  10.493   5.062   1.570 -1.1307  0.8529 -0.0132
44286SOL     OW50467   0.221   6.322   3.545 -0.0901  0.0854 -0.2882
44286SOL    HW150468   0.171   6.298   3.467 -0.6160  0.0268  0.0568
44286SOL    HW250469   0.230   6.241   3.594  0.7374  0.0061 -0.5542
44287SOL     OW50470   0.539   6.027   6.754 -0.2499  0.0792 -0.2526
44287SOL    HW150471   0.602   5.955   6.757 -0.7327 -0.3650  2.3618
44287SOL    HW250472   0.564   6.083   6.828 -2.0563  0.6290 -0.0121
44288SOL     OW50473   4.603   0.216  13.103  0.1312 -0.4901  0.6821
44288SOL    HW150474   4.646   0.187  13.184  1.3105 -0.5671  0.0436
44288SOL    HW250475   4.673   0.222  13.039 -0.6618  0.3581 -0.1379
44289SOL     OW50476   9.666  10.295  11.398 -0.3544  0.0410 -0.2677
44289SOL    HW150477   9.624  10.373  11.433 -0.1282 -0.1755  0.5060
44289SOL    HW250478   9.594  10.239  11.371 -0.5142  0.7313 -1.3405
44290SOL     OW50479  11.489  11.488  11.345 -0.0768 -0.0772 -0.0870
44290SOL    HW150480  11.442  11.552  11.291 -1.5571 -0.4810  0.6572
44290SOL    HW250481  11.568  11.468  11.295  0.3452  2.1881 -0.4173
44291SOL     OW50482   7.672  13.626   0.280  0.2100  0.1840  0.0951
44291SOL    HW150483   7.730  13.683   0.332 -0.9765  1.8904 -0.3657
44291SOL    HW250484   7.732  13.571   0.230  1.4290  1.0704  0.5150
44292SOL     OW50485   5.207   6.127  10.870 -0.0083 -0.1980 -0.4994
44292SOL    HW150486   5.225   6.144  10.778 -0.9510 -0.5617 -0.7696
44292SOL    HW250487   5.198   6.032  10.876  1.7550 -0.3572  0.3174
44293SOL     OW50488   9.065   2.540   1.237  0.3617 -0.1265 -0.1181
44293SOL    HW150489   9.140   2.482   1.234  0.4215 -0.0648  0.2075
44293SOL    HW250490   9.096   2.621   1.196  0.0347 -0.5910 -1.3330
44294SOL     OW50491   1.033   4.616   8.440 -0.2532  0.3459  0.3891
44294SOL    HW150492   1.103   4.630   8.377  0.1318  0.1249  0.7580
44294SOL    HW250493   1.026   4.699   8.488  1.8119 -0.4946  2.3631
44295SOL     OW50494   7.282  10.730  12.550 -0.0607 -0.3609  0.5311
44295SOL    HW150495   7.314  10.677  12.478 -1.4842 -0.7677  0.1669
44295SOL    HW250496   7.194  10.756  12.524  0.4364  1.8781  0.8730
44296SOL     OW50497  14.028   3.203  13.474  0.1500  0.0719  0.0881
44296SOL    HW150498  14.098   3.219  13.537 -0.3369  0.0436  0.6553
44296SOL    HW250499  14.038   3.270  13.407  3.3075 -2.3848 -2.2010
44297SOL     OW50500   1.350   0.894  10.698  0.0650  0.3819  0.0275
44297SOL    HW150501   1.390   0.914  10.782 -1.1738  1.8359  0.3299
44297SOL    HW250502   1.357   0.799  10.689  1.9760  0.4111  0.8262
44298SOL     OW50503   7.386   6.380   1.677  0.2314 -0.0912 -0.1752
44298SOL    HW150504   7.383   6.367   1.582 -0.4755  1.9931 -0.4985
44298SOL    HW250505   7.449   6.452   1.689 -0.6333  0.5341  0.7910
44299SOL     OW50506  13.487   9.655   9.335 -0.3295 -0.5536 -0.0226
44299SOL    HW150507  13.511   9.747   9.321 -1.9699  0.0629  0.9315
44299SOL    HW250508  13.533   9.629   9.414 -0.1524 -0.4444 -0.0897
44300SOL     OW50509   7.732   0.363   9.596 -0.0319  0.4450  0.2076
44300SOL    HW150510   7.728   0.453   9.631  1.4964 -0.2020  2.2732
44300SOL    HW250511   7.719   0.307   9.673  3.8155 -1.0867 -0.0409
44301SOL     OW50512  12.577   8.714   8.793 -0.9708  0.0428  1.0228
44301SOL    HW150513  12.496   8.705   8.743 -1.0481  1.0480  0.9594
44301SOL    HW250514  12.569   8.798   8.838 -0.4167 -0.3313  1.8540
44302SOL     OW50515   5.204  10.537   2.687  0.0182  0.0033 -0.0980
44302SOL    HW150516   5.222  10.609   2.626 -0.7223  1.4138  1.3034
44302SOL    HW250517   5.166  10.469   2.631 -2.0818  1.8196 -1.0478
44303SOL     OW50518   4.158   1.859   6.602  0.1515  0.2825  0.1273
44303SOL    HW150519   4.104   1.880   6.526  0.9662  0.8414 -0.3208
44303SOL    HW250520   4.241   1.827   6.565  0.4951  0.3884  0.7767
44304SOL     OW50521   4.145   2.008  10.462 -0.2677  0.0925 -0.3260
44304SOL    HW150522   4.053   1.989  10.482  0.0071 -1.5342 -0.4881
44304SOL    HW250523   4.140   2.084  10.403 -1.4147  0.8205  0.6408
44305SOL     OW50524   8.252   3.532   5.901  0.4160  0.1144 -0.2261
44305SOL    HW150525   8.286   3.520   5.813  1.4125  0.5765  0.0838
44305SOL    HW250526   8.171   3.482   5.902  0.7692 -0.5028 -1.1737
44306SOL     OW50527   9.063  12.234   8.296 -0.2700 -0.2560 -0.2835
44306SOL    HW150528   9.008  12.256   8.221 -2.7846 -2.4625  0.7541
44306SOL    HW250529   9.011  12.259   8.372  1.7584  0.9131  0.7785
44307SOL     OW50530  12.637   6.910   6.722  0.0082 -0.3956  0.4754
44307SOL    HW150531  12.647   6.834   6.665 -1.1792 -1.7849  1.9895
44307SOL    HW250532  12.723   6.950   6.725 -0.0783  0.2898 -2.9376
44308SOL     OW50533  12.971  13.286   1.810 -0.2610 -0.1532  0.4300
44308SOL    HW150534  12.900  13.268   1.749 -0.6717  1.4031  0.4237
44308SOL    HW250535  12.939  13.255   1.895 -1.3129  1.2903  0.5881
44309SOL     OW50536  13.207   4.488   3.908 -0.6422 -0.6055 -0.0337
44309SOL    HW150537  13.248   4.571   3.934  0.1070 -1.4163  1.5193
44309SOL    HW250538  13.244   4.470   3.821  0.0211  0.1435  0.0701
44310SOL     OW50539   7.812   7.565  12.598 -0.0229  0.1801 -0.8880
44310SOL    HW150540   7.790   7.657  12.585  0.7046  0.4290 -0.4275
44310SOL    HW250541   7.892   7.552  12.548  0.7940  0.2331  0.3603
44311SOL     OW50542   0.175   3.444   8.794  0.0599 -0.1146 -0.1519
44311SOL    HW150543   0.172   3.516   8.857  1.9832 -0.7237  0.6953
44311SOL    HW250544   0.127   3.477   8.718  0.7331  1.9891  0.2793
44312SOL     OW50545   1.183   7.729   7.761 -0.3036 -0.8429 -0.7029
44312SOL    HW150546   1.118   7.760   7.699  0.4563 -0.2315 -1.2106
44312SOL    HW250547   1.133   7.707   7.840 -1.1738 -0.8741 -1.2564
44313SOL     OW50548  13.860   3.918  11.278 -0.4813  0.0487 -0.6840
44313SOL    HW150549  13.783   3.875  11.240  0.3819 -0.9712 -1.3294
44313SOL    HW250550  13.909   3.952  11.203  0.5131 -0.7363 -0.4170
44314SOL     OW50551   0.450   1.214   7.576 -0.3744 -0.0140 -0.6009
44314SOL    HW150552   0.461   1.152   7.504  1.5236 -0.8254  0.3292
44314SOL    HW250553   0.359   1.201   7.604 -0.8058 -0.4682 -2.1194
44315SOL     OW50554   7.292   1.812   9.322 -0.1088  0.2032 -0.0953
44315SOL    HW150555   7.362   1.803   9.386 -0.8711  0.4620  0.7933
44315SOL    HW250556   7.266   1.722   9.301  1.0171  0.0750 -1.0499
44316SOL     OW50557   3.332   6.269   3.021 -0.7528 -0.0726 -0.3512
44316SOL    HW150558   3.421   6.301   3.038  0.0959 -0.5176 -3.2859
44316SOL    HW250559   3.276   6.345   3.039  0.3098  0.5043  0.6692
44317SOL     OW50560   6.714  10.513  11.635  0.1680  0.1335  0.1117
44317SOL    HW150561   6.676  10.591  11.675  0.2453 -0.2540  0.9759
44317SOL    HW250562   6.648  10.445  11.648 -0.6102  0.3964 -2.0751
44318SOL     OW50563  11.998   7.259   1.348  1.2484  1.4136 -0.0387
44318SOL    HW150564  11.922   7.266   1.290  1.8101  1.3361 -0.7839
44318SOL    HW250565  12.040   7.344   1.343  1.6085  1.2285 -0.1782
44319SOL     OW50566  13.770   1.634   3.653 -0.1569 -0.0252 -0.9561
44319SOL    HW150567  13.852   1.609   3.695  0.4033  0.1541 -1.9086
44319SOL    HW250568  13.735   1.704   3.708  0.8156  0.5551 -1.0360
44320SOL     OW50569   5.615  13.263   6.087 -0.0452 -0.3687  0.1921
44320SOL    HW150570   5.633  13.356   6.073 -3.2113  0.2013 -0.8436
44320SOL    HW250571   5.538  13.261   6.144  0.5485 -2.4038  1.0047
44321SOL     OW50572   3.507   0.762   4.424  0.3646 -0.0561 -0.4193
44321SOL    HW150573   3.600   0.742   4.436  0.4065  1.0816  1.5972
44321SOL    HW250574   3.461   0.690   4.468  0.3549  0.3391  0.2331
44322SOL     OW50575  12.727  10.341   7.526 -0.4304 -0.0934  0.4128
44322SOL    HW150576  12.722  10.308   7.616 -1.4580 -1.4342 -0.1071
44322SOL    HW250577  12.637  10.366   7.505  0.0371  1.4858  0.1959
44323SOL     OW50578  14.016   3.177   8.536  0.3806  0.0955 -0.6532
44323SOL    HW150579  14.005   3.160   8.630 -0.8586  1.4457 -0.5134
44323SOL    HW250580  14.003   3.091   8.495  1.0630 -0.5399  0.4010
44324SOL     OW50581   4.693  10.886   3.639 -0.2785 -0.0297  0.4566
44324SOL    HW150582   4.721  10.965   3.592 -0.6698 -0.5903 -0.7480
44324SOL    HW250583   4.740  10.815   3.596  1.1938 -0.3550  2.4505
44325SOL     OW50584   9.721   0.510   9.831  0.2105  0.0767 -0.0462
44325SOL    HW150585   9.628   0.496   9.809  0.3612  1.0514 -1.4987
44325SOL    HW250586   9.744   0.437   9.888 -0.6259 -2.0083 -2.1977
44326SOL     OW50587   0.735  11.082  10.733  0.5483  0.1185  0.6356
44326SOL    HW150588   0.779  11.157  10.772  1.4230  0.7723 -1.4736
44326SOL    HW250589   0.716  11.024  10.807  0.5612  2.0219  2.2235
44327SOL     OW50590   2.122   1.509   4.939 -0.0101  0.0634 -0.3281
44327SOL    HW150591   2.070   1.505   5.019  1.5511  2.9750  1.0133
44327SOL    HW250592   2.140   1.603   4.927  1.0077 -0.4014 -3.3246
44328SOL     OW50593   4.274   7.280  12.061  0.8879  0.3444  0.1256
44328SOL    HW150594   4.346   7.292  12.122  1.1744 -1.0444  0.1015
44328SOL    HW250595   4.305   7.318  11.979  1.0042  1.0674  0.4956
44329SOL     OW50596   0.731   3.906   3.825 -0.0846 -0.6706 -0.4245
44329SOL    HW150597   0.663   3.954   3.777  1.1306  0.9359 -0.6127
44329SOL    HW250598   0.779   3.859   3.757 -1.1288 -2.0456 -0.2630
44330SOL     OW50599   6.690  11.115  12.213  0.0882 -0.0455  0.0142
44330SOL    HW150600   6.624  11.046  12.216 -0.3930  0.3274 -1.4441
44330SOL    HW250601   6.655  11.184  12.270 -0.5217 -0.0612 -0.3400
44331SOL     OW50602  13.057  13.775  10.981  0.0232 -0.3700  0.2005
44331SOL    HW150603  12.994  13.801  11.048 -0.3132  0.2529 -0.3466
44331SOL    HW250604  13.138  13.820  11.005  0.1303 -0.7821  0.6290
44332SOL     OW50605   9.479  12.949   9.788 -0.3410 -0.9730 -0.1017
44332SOL    HW150606   9.508  13.007   9.717  0.1467 -1.0025  0.0692
44332SOL    HW250607   9.542  12.876   9.786 -0.1783 -0.8525  0.5144
44333SOL     OW50608   2.950  12.548  11.680  0.2057  0.3582  0.4540
44333SOL    HW150609   2.899  12.469  11.662  0.5324 -0.0353  1.2146
44333SOL    HW250610   2.943  12.599  11.599 -0.9181  0.0634  0.3448
44334SOL     OW50611   8.227  10.713   2.319 -0.2031 -0.3650 -0.3395
44334SOL    HW150612   8.297  10.672   2.369 -0.6153 -0.2248  0.3666
44334SOL    HW250613   8.162  10.644   2.307 -0.3014 -0.2798 -0.3006
44335SOL     OW50614  10.894  10.300   0.303  0.2051 -0.4251 -0.4037
44335SOL    HW150615  10.819  10.357   0.285 -0.0901 -0.6875 -0.0285
44335SOL    HW250616  10.855  10.215   0.324  0.6952 -1.3680 -2.9404
44336SOL     OW50617  12.289   5.356   4.611 -0.0805  0.5722  0.0410
44336SOL    HW150618  12.324   5.440   4.640  0.8199  0.3916 -0.5030
44336SOL    HW250619  12.215   5.340   4.669 -0.0184  1.5494  0.4090
44337SOL     OW50620  12.143   3.318   9.772 -0.0267  0.4965 -0.0971
44337SOL    HW150621  12.066   3.261   9.781 -0.9206  1.7994  0.8189
44337SOL    HW250622  12.107   3.406   9.769  1.4540  1.1429  0.3494
44338SOL     OW50623  10.477   4.219   9.163 -0.3737 -0.0511 -0.3869
44338SOL    HW150624  10.493   4.144   9.220  2.2792 -0.0136 -0.9551
44338SOL    HW250625  10.564   4.253   9.143 -1.4445  3.0978 -0.3135
44339SOL     OW50626  11.373   5.418   5.894 -0.1651  0.0176  0.2605
44339SOL    HW150627  11.357   5.473   5.817  0.5331  0.0060  0.0957
44339SOL    HW250628  11.358   5.476   5.969  0.6299  0.4706  0.0879
44340SOL     OW50629   5.474   0.254   6.564 -0.2056  0.3967  0.1336
44340SOL    HW150630   5.426   0.227   6.643  0.3490 -0.7746  0.0952
44340SOL    HW250631   5.565   0.256   6.592  0.2101 -1.7785 -0.8921
44341SOL     OW50632  11.631   0.431   4.300  0.4339 -0.5170  0.0805
44341SOL    HW150633  11.589   0.347   4.279  0.9165 -0.9787  0.8876
44341SOL    HW250634  11.576   0.469   4.368 -0.7756  0.6817 -1.4867
44342SOL     OW50635   6.079   5.218   8.722  0.0065  0.2295  0.4042
44342SOL    HW150636   6.022   5.261   8.659  0.4352 -0.4826 -0.4852
44342SOL    HW250637   6.063   5.124   8.710  0.6839  0.0551  0.7778
44343SOL     OW50638   5.017   3.198  11.649  0.7163 -0.1528  0.2096
44343SOL    HW150639   5.013   3.243  11.564 -1.0817  0.2309  0.4554
44343SOL    HW250640   4.926   3.180  11.671  1.2804 -2.4303  0.9543
44344SOL     OW50641   5.214   1.475   9.757  0.5314 -0.2288 -0.7603
44344SOL    HW150642   5.160   1.428   9.819  1.5775 -0.4563  0.0045
44344SOL    HW250643   5.220   1.417   9.681  0.8645 -0.8411 -0.2812
44345SOL     OW50644   0.833   0.055  12.392  0.2020 -0.1442  0.4858
44345SOL    HW150645   0.793  -0.031  12.390 -0.6266  0.2185 -1.6659
44345SOL    HW250646   0.882   0.061  12.310  0.4269  1.3414  0.6927
44346SOL     OW50647   3.945   0.702   6.765 -0.5700  0.1733 -0.7007
44346SOL    HW150648   4.038   0.686   6.747 -0.6754 -1.6653  0.1688
44346SOL    HW250649   3.945   0.778   6.824  0.4218 -0.0947 -0.3254
44347SOL     OW50650  10.303  11.857   0.613 -0.4349 -0.3273 -0.3025
44347SOL    HW150651  10.294  11.768   0.578  0.6961 -1.1469  1.3525
44347SOL    HW250652  10.394  11.881   0.595 -0.4875  0.1510  0.0433
44348SOL     OW50653   9.552  10.087  12.110  0.4834 -0.1227 -0.0801
44348SOL    HW150654   9.510  10.027  12.048 -0.4134 -3.0781  3.0399
44348SOL    HW250655   9.482  10.144  12.140  0.0085 -1.1127  0.7727
44349SOL     OW50656  12.197  10.542   8.162 -0.1474 -0.1228 -0.2658
44349SOL    HW150657  12.156  10.532   8.077 -5.2508  3.2108  1.3521
44349SOL    HW250658  12.257  10.616   8.151 -0.6009  0.1374 -1.0632
44350SOL     OW50659  11.108   8.900   8.995 -0.4479  0.6318  0.0107
44350SOL    HW150660  11.187   8.949   8.972  0.3404 -0.3585  0.5776
44350SOL    HW250661  11.138   8.829   9.051 -1.7355  0.1933  0.1876
44351SOL     OW50662  11.782   2.691   8.290  0.5838  0.7099 -0.2511
44351SOL    HW150663  11.688   2.696   8.270 -0.1156  0.1971  2.4395
44351SOL    HW250664  11.797   2.763   8.351  1.1714 -1.0109  1.7586
44352SOL     OW50665  11.584   3.181   7.525  0.1367 -1.1431 -0.2105
44352SOL    HW150666  11.533   3.101   7.536 -1.0802 -0.6609 -1.9359
44352SOL    HW250667  11.615   3.202   7.613 -1.8017 -2.0232  0.7477
44353SOL     OW50668  10.647  12.637  13.857 -0.2096  0.0268  0.1047
44353SOL    HW150669  10.558  12.617  13.826  0.1590 -0.1332 -0.9183
44353SOL    HW250670  10.704  12.600  13.789  0.6275  0.4665  0.5524
44354SOL     OW50671   7.601   0.052   0.673 -0.1758 -0.5940 -0.1022
44354SOL    HW150672   7.547   0.102   0.611  1.2006 -0.1902 -1.0243
44354SOL    HW250673   7.539   0.021   0.739 -1.4308  0.3608 -0.7857
44355SOL     OW50674  10.265   0.395   7.658  0.0376 -0.2189  0.3868
44355SOL    HW150675  10.218   0.455   7.715 -1.6312  0.9786 -2.0899
44355SOL    HW250676  10.197   0.352   7.606  1.4930  0.4665 -2.2782
44356SOL     OW50677   5.945  12.477   7.017  0.1360  0.4340  0.6376
44356SOL    HW150678   5.870  12.448   6.965 -0.5081 -0.2234  1.8630
44356SOL    HW250679   5.905  12.519   7.094  1.0455  3.4359 -0.4071
44357SOL     OW50680   4.932   2.835  11.428  0.1029 -0.3834  0.5024
44357SOL    HW150681   4.967   2.811  11.343  0.7782 -2.5498  1.3162
44357SOL    HW250682   4.839   2.854  11.412  0.4725  0.3763 -0.8644
44358SOL     OW50683   3.959   7.460  11.581 -0.2413  0.2303 -0.1542
44358SOL    HW150684   3.981   7.372  11.612 -1.3796  0.1066  0.3433
44358SOL    HW250685   3.867   7.471  11.603  0.2944  2.2262  1.4217
44359SOL     OW50686  13.752  14.084  12.933  0.1615 -0.4600 -0.3567
44359SOL    HW150687  13.753  14.027  12.857  0.5980 -1.7462  0.5803
44359SOL    HW250688  13.787  14.167  12.901  1.8656 -1.4516 -1.2150
44360SOL     OW50689   0.351   9.740  13.791 -0.2186 -0.1914 -0.4053
44360SOL    HW150690   0.273   9.722  13.739 -1.1643 -2.0285  1.4636
44360SOL    HW250691   0.322   9.803  13.857 -0.2453 -1.0692  0.4485
44361SOL     OW50692  11.056  10.697  10.881  0.1361 -0.1046 -0.1514
44361SOL    HW150693  11.103  10.681  10.799  0.4067  0.7881 -0.1830
44361SOL    HW250694  11.080  10.786  10.905 -0.6178 -0.0565  0.4585
44362SOL     OW50695   0.543  11.304   3.184 -0.0611 -0.0931 -0.1005
44362SOL    HW150696   0.623  11.256   3.205 -1.0848 -0.9669  2.1813
44362SOL    HW250697   0.479  11.236   3.164 -0.3050  0.5900 -1.7947
44363SOL     OW50698   4.025   8.682   4.293 -0.2062  0.4749  0.2609
44363SOL    HW150699   4.056   8.771   4.314 -3.2515  1.3588  1.6527
44363SOL    HW250700   3.996   8.687   4.202  0.8010  0.5302 -0.0607
44364SOL     OW50701   5.495  13.997   4.334  0.5576 -0.0339  0.1756
44364SOL    HW150702   5.458  13.913   4.304 -2.1405  0.6644  1.2283
44364SOL    HW250703   5.545  13.975   4.412 -1.0843 -0.5937  1.1226
44365SOL     OW50704   8.482   1.064   3.084  0.6408  0.0839 -0.7781
44365SOL    HW150705   8.504   0.984   3.035  0.3475 -0.5495  0.1121
44365SOL    HW250706   8.552   1.074   3.148 -0.4733 -0.7396  0.6267
44366SOL     OW50707  14.064   3.518   6.226 -0.3258  0.1774 -0.2172
44366SOL    HW150708  14.044   3.474   6.143  0.2283  1.1741 -0.9023
44366SOL    HW250709  14.017   3.467   6.292 -0.5700 -0.7920 -1.1072
44367SOL     OW50710   7.353   4.451   1.093 -0.1738  0.0881 -0.3399
44367SOL    HW150711   7.409   4.441   1.170  0.6584  0.1547 -0.9138
44367SOL    HW250712   7.314   4.365   1.080  1.3273 -0.5274 -1.0555
44368SOL     OW50713   2.115   4.152  10.516  0.1435 -0.6257 -0.1948
44368SOL    HW150714   2.029   4.123  10.546  0.7805 -1.6738  0.7227
44368SOL    HW250715   2.110   4.144  10.421 -1.6385  1.9667 -0.4291
44369SOL     OW50716  13.323   1.227   4.874 -0.3146  0.7974  0.1823
44369SOL    HW150717  13.341   1.279   4.795  1.0143  0.4493  0.2381
44369SOL    HW250718  13.252   1.168   4.848  1.2899 -0.5526 -1.3287
44370SOL     OW50719   5.885   4.162  11.093 -0.1176 -0.1759 -0.3023
44370SOL    HW150720   5.837   4.240  11.067 -0.6254 -0.4564 -0.2098
44370SOL    HW250721   5.843   4.132  11.173 -0.2184 -0.8019 -0.5785
44371SOL     OW50722   5.211  12.801  12.845  0.1661  0.1449 -0.3685
44371SOL    HW150723   5.159  12.863  12.896  0.2907  0.7142 -0.9072
44371SOL    HW250724   5.215  12.722  12.898 -0.3350  0.4689  0.1568
44372SOL     OW50725  10.865   3.687  11.521  0.2005  0.3562  0.5582
44372SOL    HW150726  10.835   3.597  11.507 -1.9760  0.9914  0.7690
44372SOL    HW250727  10.883   3.692  11.615 -1.2999  0.5371  0.8689
44373SOL     OW50728   2.841  10.942   7.164 -0.1749  0.3209 -0.4536
44373SOL    HW150729   2.890  10.929   7.245  0.2143  1.2874 -0.5131
44373SOL    HW250730   2.886  11.016   7.121 -1.1930  0.6974 -0.8951
44374SOL     OW50731   9.824   9.933   8.816 -0.0518 -0.2911 -0.4225
44374SOL    HW150732   9.899   9.989   8.838 -0.8135  0.1375  1.2504
44374SOL    HW250733   9.861   9.846   8.805  0.6261 -0.2114  1.0629
44375SOL     OW50734  12.692  13.604  13.941 -0.0168 -0.2778  0.0494
44375SOL    HW150735  12.603  13.621  13.972 -0.4744  1.2144 -1.9008
44375SOL    HW250736  12.707  13.668  13.872  2.4805 -0.6973  0.0852
44376SOL     OW50737   9.615   9.449  12.369  0.1141  0.5640 -0.6035
44376SOL    HW150738   9.545   9.506  12.402 -1.8534 -3.0897  2.2517
44376SOL    HW250739   9.573   9.395  12.303  0.7358 -0.4165 -0.2091
44377SOL     OW50740  13.863   7.034   5.041  0.3933  0.0779 -0.1115
44377SOL    HW150741  13.913   7.005   5.117  1.5576  0.1012 -0.8427
44377SOL    HW250742  13.883   7.128   5.034 -0.5489  0.3029  0.1742
44378SOL     OW50743   1.448   1.093   7.389  0.3701  0.6094 -0.2912
44378SOL    HW150744   1.472   1.044   7.310  1.1241 -0.0258  0.3054
44378SOL    HW250745   1.375   1.044   7.427 -0.2223  1.1092 -0.7625
44379SOL     OW50746   1.632   2.304  10.975 -0.3808  0.5124 -0.5700
44379SOL    HW150747   1.608   2.222  10.934 -0.0354 -0.1286  0.4605
44379SOL    HW250748   1.724   2.318  10.952 -0.3381  0.4195 -0.4596
44380SOL     OW50749   1.318   9.785   8.592  0.0369 -0.1264 -0.4047
44380SOL    HW150750   1.226   9.785   8.617  0.3210  0.2780  0.6884
44380SOL    HW250751   1.363   9.742   8.665  0.8425  0.7162 -0.3925
44381SOL     OW50752  10.158   3.823   0.304 -0.4579  0.5014  0.7576
44381SOL    HW150753  10.176   3.891   0.370 -0.4994  0.9918  0.2680
44381SOL    HW250754  10.205   3.746   0.335  0.6344  1.1162  0.6585
44382SOL     OW50755  12.193  11.010   9.397 -0.4909  0.4000 -0.0469
44382SOL    HW150756  12.288  11.023   9.392 -0.2101 -0.6692  1.6558
44382SOL    HW250757  12.156  11.087   9.354  1.1362  0.6364 -1.1331
44383SOL     OW50758  11.968  13.547   9.625 -0.6492 -0.0304 -0.0408
44383SOL    HW150759  12.052  13.558   9.581 -0.8381  1.8632  0.0264
44383SOL    HW250760  11.914  13.618   9.592 -1.2536  0.6031  2.1885
44384SOL     OW50761   1.291   4.985   6.214 -0.0228  0.5430 -0.2828
44384SOL    HW150762   1.240   5.066   6.210 -1.7700 -0.5394 -1.6612
44384SOL    HW250763   1.261   4.942   6.294 -1.1746  0.0091 -0.9800
44385SOL     OW50764  10.751   8.807   7.429 -0.3564 -0.2198  0.2619
44385SOL    HW150765  10.823   8.849   7.475  0.3184 -0.3216 -0.6668
44385SOL    HW250766  10.786   8.788   7.342 -2.1569  1.6180 -0.9438
44386SOL     OW50767   8.927   7.693   0.908  0.2443  0.2410  0.4654
44386SOL    HW150768   8.948   7.603   0.885  0.6706  0.5733 -0.4687
44386SOL    HW250769   8.857   7.685   0.973  2.1499 -0.8467  2.5327
44387SOL     OW50770   0.730   0.032  10.212 -0.6660 -0.7688 -0.3870
44387SOL    HW150771   0.697   0.121  10.223 -1.5132 -1.1494  0.2212
44387SOL    HW250772   0.752   0.026  10.119  0.4134  0.4085 -0.2332
44388SOL     OW50773   4.771  13.785   3.730  0.5076 -0.5753  0.0995
44388SOL    HW150774   4.821  13.824   3.658  1.6049 -1.9577  0.0558
44388SOL    HW250775   4.838  13.761   3.795 -0.1843 -1.6532  0.4392
44389SOL     OW50776   2.082   7.540   3.250  0.1418 -0.4517 -0.6069
44389SOL    HW150777   2.155   7.510   3.304  1.3431  0.2655 -1.7713
44389SOL    HW250778   2.113   7.622   3.211 -1.0487 -0.4661 -1.6338
44390SOL     OW50779  10.532   2.185   0.196 -0.3482  0.1653 -0.3258
44390SOL    HW150780  10.622   2.185   0.164 -0.9367  0.7459 -2.0672
44390SOL    HW250781  10.541   2.194   0.291  1.4603 -1.5762 -0.2577
44391SOL     OW50782  13.274   9.219   0.433 -0.0875 -0.1874 -0.5696
44391SOL    HW150783  13.256   9.128   0.458  0.3590 -0.0611  0.2390
44391SOL    HW250784  13.195   9.248   0.388 -1.2696 -0.1833  1.3773
44392SOL     OW50785   2.880   6.488   0.420 -0.4153 -0.1499  0.2650
44392SOL    HW150786   2.819   6.557   0.391 -0.7439 -0.5951 -0.1255
44392SOL    HW250787   2.955   6.498   0.362 -1.3265 -1.4323 -1.2296
44393SOL     OW50788  11.305   8.154  13.709  0.2367 -0.1146 -0.5791
44393SOL    HW150789  11.247   8.089  13.748  0.9863 -0.0437  0.7124
44393SOL    HW250790  11.306   8.226  13.772 -0.3142  1.0202 -1.8169
44394SOL     OW50791  13.700   6.112   3.362 -0.1203  0.0426 -0.0695
44394SOL    HW150792  13.748   6.034   3.335  0.5982  0.6188 -0.4735
44394SOL    HW250793  13.621   6.112   3.308 -2.2698 -2.5835  2.6448
44395SOL     OW50794   7.297   1.109   2.940 -0.5739 -0.0483  0.0274
44395SOL    HW150795   7.280   1.200   2.961  0.3647  0.5635 -1.6636
44395SOL    HW250796   7.281   1.102   2.846  0.9489 -1.2166 -0.1996
44396SOL     OW50797  12.871   0.965   4.074  0.5174  0.5206  0.1602
44396SOL    HW150798  12.915   0.911   4.009  0.6305 -0.2524  0.8583
44396SOL    HW250799  12.943   0.999   4.129  0.2704 -0.9373  1.4500
44397SOL     OW50800   7.544   1.836   0.750 -0.2018 -0.4135 -0.1361
44397SOL    HW150801   7.557   1.777   0.676 -2.2526  0.0919 -0.9715
44397SOL    HW250802   7.473   1.894   0.723  1.3524  2.1458  0.8391
44398SOL     OW50803  10.694   6.475   4.546 -0.2528 -0.5990  0.1667
44398SOL    HW150804  10.639   6.553   4.552 -1.0592 -1.1766  0.5081
44398SOL    HW250805  10.665   6.432   4.465 -1.2489 -1.5889  1.0207
44399SOL     OW50806   2.513   8.695   9.162 -0.2511 -0.5412 -0.1913
44399SOL    HW150807   2.555   8.682   9.077  0.2543 -0.5418  0.0523
44399SOL    HW250808   2.425   8.725   9.141 -0.3820 -1.2774 -0.7243
44400SOL     OW50809   4.016   7.833  11.504 -0.4113  0.6064 -0.3167
44400SOL    HW150810   4.001   7.892  11.431 -1.6456  0.1592 -0.4520
44400SOL    HW250811   4.095   7.785  11.481 -0.4554  0.8883 -1.0685
44401SOL     OW50812   3.947   6.950   4.462 -0.4217 -0.4908 -0.2676
44401SOL    HW150813   3.895   6.925   4.538 -0.1495  0.9144  0.4110
44401SOL    HW250814   3.885   6.996   4.405 -0.0575  0.9487  0.4222
44402SOL     OW50815   1.845   4.316   0.033  0.4728  0.3079 -0.3533
44402SOL    HW150816   1.921   4.358   0.075  0.1487 -0.8164  1.4969
44402SOL    HW250817   1.791   4.287   0.107 -0.1472 -1.8003 -1.5734
44403SOL     OW50818  13.923   3.143   2.160  0.8216  0.2897  0.8552
44403SOL    HW150819  14.001   3.087   2.163 -0.6065 -1.8666  0.6115
44403SOL    HW250820  13.850   3.082   2.176 -0.9121  1.9937 -0.1824
44404SOL     OW50821  13.284  13.349   3.232  0.2306  0.0587  0.5468
44404SOL    HW150822  13.351  13.359   3.165  0.1021  0.7397  0.5143
44404SOL    HW250823  13.326  13.296   3.300  0.3628 -0.6355 -0.0520
44405SOL     OW50824   4.253   2.974   6.086  0.1143 -0.3013  0.2312
44405SOL    HW150825   4.211   3.045   6.037 -0.0701 -1.1313 -0.8414
44405SOL    HW250826   4.254   2.900   6.026  0.3759 -1.2025  1.3053
44406SOL     OW50827   7.505   7.764   4.387  0.0483  0.1274 -0.4797
44406SOL    HW150828   7.558   7.690   4.417 -1.0888 -1.8063 -2.8856
44406SOL    HW250829   7.523   7.770   4.293 -0.8600  2.1135 -0.5712
44407SOL     OW50830   8.526   9.981   2.392 -0.3781  0.0423 -0.0109
44407SOL    HW150831   8.476   9.978   2.310  1.8637 -2.4639 -1.4537
44407SOL    HW250832   8.547  10.074   2.404 -2.6301  0.7455 -1.0119
44408SOL     OW50833  11.326   6.101   0.140 -0.4539  0.0869  0.2692
44408SOL    HW150834  11.255   6.165   0.140  0.7343  1.4841  2.2187
44408SOL    HW250835  11.310   6.047   0.217  0.6518  0.5222  0.8236
44409SOL     OW50836   7.303   3.249   1.316  0.4291 -0.3067 -0.8601
44409SOL    HW150837   7.329   3.165   1.352 -0.0828 -0.1768 -0.1502
44409SOL    HW250838   7.272   3.229   1.227  0.8839 -0.7637 -0.9206
44410SOL     OW50839   9.580   9.326   4.315 -0.8692  0.0428  0.2487
44410SOL    HW150840   9.488   9.342   4.291 -1.1574 -0.1950  1.1674
44410SOL    HW250841   9.578   9.245   4.365  0.0712 -0.8521 -1.0808
44411SOL     OW50842   1.832   1.277   9.040 -0.1317  0.3656 -0.6883
44411SOL    HW150843   1.766   1.339   9.070 -0.5757 -0.1589 -0.5667
44411SOL    HW250844   1.912   1.301   9.087 -0.3030  0.8308 -0.6331
44412SOL     OW50845   2.199   2.575   5.526 -0.2321  0.3791 -0.0665
44412SOL    HW150846   2.254   2.626   5.466  0.4663 -0.5922 -0.2727
44412SOL    HW250847   2.132   2.637   5.555  1.1519  1.7144  0.4670
44413SOL     OW50848  10.287   2.049   5.666  0.2980 -0.1741 -0.2062
44413SOL    HW150849  10.317   2.069   5.755 -1.8531 -0.9589  0.7591
44413SOL    HW250850  10.262   2.134   5.629 -0.8337 -0.0724  0.7529
44414SOL     OW50851   9.574   5.610   0.460  0.1322 -0.6131  0.1726
44414SOL    HW150852   9.508   5.671   0.492  0.2097  0.9813 -2.4293
44414SOL    HW250853   9.657   5.642   0.496  0.0568  0.3197 -0.4518
44415SOL     OW50854   1.361  12.076  12.936  0.1169  0.3425  0.2155
44415SOL    HW150855   1.278  12.118  12.957 -0.3531 -0.0176 -0.8496
44415SOL    HW250856   1.341  12.020  12.860  1.8700  2.1744 -1.7231
44416SOL     OW50857  11.249  11.071   6.633 -0.4332  0.1572 -0.1805
44416SOL    HW150858  11.173  11.029   6.674 -0.2682  0.4111  0.4034
44416SOL    HW250859  11.276  11.010   6.564 -1.8123  0.5641 -1.1113
44417SOL     OW50860  12.821   7.088   3.833  0.1934 -0.0982  0.4190
44417SOL    HW150861  12.862   7.003   3.814  0.1878  0.0487 -0.2823
44417SOL    HW250862  12.884   7.153   3.802  0.0889  0.1543  0.7239
44418SOL     OW50863   5.482   0.902  12.793 -0.0873 -0.8825 -0.4340
44418SOL    HW150864   5.545   0.969  12.766 -1.0901  0.0960 -0.3730
44418SOL    HW250865   5.491   0.833  12.727  0.6606 -0.5126 -0.7282
44419SOL     OW50866   7.204   3.534   6.435  0.0413  0.9211 -0.1291
44419SOL    HW150867   7.299   3.531   6.426  0.1259 -2.0862  0.6907
44419SOL    HW250868   7.171   3.519   6.347  0.4285 -1.1669  0.0372
44420SOL     OW50869  11.297   4.308   1.271 -0.6990 -0.0097 -0.0388
44420SOL    HW150870  11.307   4.374   1.202  0.3230  0.1229  0.2228
44420SOL    HW250871  11.303   4.224   1.224 -0.4788  0.0842 -0.1821
44421SOL     OW50872   0.690  12.534   9.502 -0.7820 -0.3550 -0.1312
44421SOL    HW150873   0.651  12.608   9.454 -1.0377 -1.0521 -1.0295
44421SOL    HW250874   0.740  12.575   9.572 -0.1767  0.7204 -1.1507
44422SOL     OW50875   0.801   0.320   5.365  0.1283  0.7383 -0.1004
44422SOL    HW150876   0.789   0.410   5.336  1.1247  0.7605 -0.4870
44422SOL    HW250877   0.858   0.328   5.442  0.7431  0.4081 -0.5115
44423SOL     OW50878   0.414   1.184  13.425  0.1646 -0.2035 -0.5810
44423SOL    HW150879   0.490   1.214  13.475 -0.0464 -1.6264  0.6520
44423SOL    HW250880   0.442   1.190  13.333  1.4232  0.1787 -0.1904
44424SOL     OW50881   6.078   1.902  12.205 -0.2047 -0.3140 -0.5003
44424SOL    HW150882   6.031   1.966  12.152  0.8042  1.7558  0.9813
44424SOL    HW250883   6.009   1.854  12.252 -0.9417  0.5353 -0.6977
44425SOL     OW50884   8.131   0.993  12.581  0.6750 -0.0036 -0.2864
44425SOL    HW150885   8.101   0.989  12.672 -0.9089  1.0415 -0.7142
44425SOL    HW250886   8.143   1.086  12.564  1.7387 -0.2392 -0.9262
44426SOL     OW50887   9.001   6.264   1.417 -0.0608 -0.1595 -0.1610
44426SOL    HW150888   8.966   6.352   1.433  1.1542 -0.0098  2.1157
44426SOL    HW250889   9.089   6.280   1.383  0.9627 -0.3722  2.1588
44427SOL     OW50890   3.249   2.251  11.455  0.4477  0.4288 -0.4847
44427SOL    HW150891   3.210   2.222  11.537  1.3952  1.8772  0.5197
44427SOL    HW250892   3.330   2.202  11.448 -0.4122 -0.9368 -1.4530
44428SOL     OW50893  10.226   6.188   6.514  0.1847 -0.2668  0.1283
44428SOL    HW150894  10.274   6.117   6.470 -0.5792 -0.9999  0.4426
44428SOL    HW250895  10.224   6.259   6.450  1.4148 -0.3264 -0.0037
44429SOL     OW50896  12.629   1.262   6.021  0.3914  0.2870 -0.9648
44429SOL    HW150897  12.554   1.206   6.000  1.8282 -2.4514  0.6720
44429SOL    HW250898  12.674   1.272   5.937  0.9173 -2.4592 -1.1299
44430SOL     OW50899   8.931   0.988  12.506 -0.2381 -0.2478 -0.6031
44430SOL    HW150900   8.980   1.067  12.482 -1.6592  1.1211  0.6902
44430SOL    HW250901   8.921   0.994  12.601 -0.4676 -1.9625 -0.4850
44431SOL     OW50902  12.383  13.022   7.552 -0.0450 -0.0461 -0.2770
44431SOL    HW150903  12.463  13.054   7.595 -1.3630  2.8145  0.3186
44431SOL    HW250904  12.396  12.928   7.543  2.4050 -0.0275  1.9046
44432SOL     OW50905  13.412   1.582  10.524 -0.0044  0.0147  0.5419
44432SOL    HW150906  13.347   1.620  10.583  2.1247 -0.2528  3.2191
44432SOL    HW250907  13.403   1.487  10.537  0.3164 -0.0614  0.2214
44433SOL     OW50908   9.289  11.768  11.073  0.0843  0.1083 -0.0632
44433SOL    HW150909   9.281  11.778  10.979 -0.1822  0.3504 -0.0170
44433SOL    HW250910   9.380  11.790  11.092 -0.0368  0.7230 -0.1819
44434SOL     OW50911   6.751  13.552  11.343 -0.0948 -0.2714  0.3105
44434SOL    HW150912   6.789  13.464  11.342 -0.0995 -0.2686 -0.2711
44434SOL    HW250913   6.661  13.540  11.313 -0.6403 -0.3029  1.8532
44435SOL     OW50914   8.402   0.181   0.909 -0.2870 -0.1463  0.0461
44435SOL    HW150915   8.414   0.217   0.997 -2.6025 -0.1256  0.4331
44435SOL    HW250916   8.479   0.127   0.894  0.8130  0.9324  1.5284
44436SOL     OW50917   6.240   3.004   0.603 -0.2939 -0.1464  0.1826
44436SOL    HW150918   6.226   2.962   0.688 -0.0861 -3.8405 -1.3837
44436SOL    HW250919   6.156   2.994   0.558 -0.0265  0.5684 -0.4888
44437SOL     OW50920   1.999   2.582   9.830 -0.2295  0.1340  0.2121
44437SOL    HW150921   1.933   2.575   9.898  0.6857 -2.5241  0.9660
44437SOL    HW250922   1.954   2.623   9.756 -2.1715  0.0929  1.3181
44438SOL     OW50923   3.803   2.686   9.399 -0.2068  0.0451  0.0545
44438SOL    HW150924   3.778   2.618   9.461 -2.8043  1.5364  0.7802
44438SOL    HW250925   3.790   2.768   9.447  0.8289  1.1439 -1.4524
44439SOL     OW50926   3.710   4.298   7.436  0.0028 -0.3389  0.1862
44439SOL    HW150927   3.767   4.320   7.509  1.9358  0.5535 -1.4960
44439SOL    HW250928   3.763   4.315   7.358 -2.8605  1.5590 -1.5413
44440SOL     OW50929   0.348   4.253   5.537 -0.2424 -0.5486  0.2465
44440SOL    HW150930   0.378   4.162   5.538  0.5367 -0.3178 -0.3619
44440SOL    HW250931   0.344   4.279   5.629  1.8336 -0.4918  0.3690
44441SOL     OW50932   7.759   9.992   2.950 -0.6703  0.0046  0.3078
44441SOL    HW150933   7.693   9.934   2.988 -0.4987 -0.5122 -0.1716
44441SOL    HW250934   7.782   9.951   2.867  2.5899 -1.6268  1.8445
44442SOL     OW50935  14.060   7.517   4.743  0.7060 -0.3463 -0.4356
44442SOL    HW150936  14.015   7.512   4.828  0.0414 -1.2520 -0.8265
44442SOL    HW250937  14.008   7.460   4.685  0.6086  0.9879 -1.7042
44443SOL     OW50938  12.611  12.725   5.321 -0.2197 -0.2075 -0.1206
44443SOL    HW150939  12.627  12.641   5.365 -0.9991 -0.0611  0.4695
44443SOL    HW250940  12.622  12.706   5.228 -0.1325 -0.8988  0.0252
44444SOL     OW50941   0.082  12.143   1.450  0.1348 -0.9234  0.4087
44444SOL    HW150942   0.118  12.076   1.508  0.6510 -1.5691 -0.6123
44444SOL    HW250943   0.123  12.125   1.365  0.7687  1.0890  0.2416
44445SOL     OW50944   1.653   7.176   0.104 -0.8540 -0.4991 -0.1295
44445SOL    HW150945   1.646   7.271   0.095 -2.2688 -0.5908 -0.2453
44445SOL    HW250946   1.566   7.148   0.133  0.0882 -1.5527  1.9467
44446SOL     OW50947   3.522  13.846  11.243 -0.3202  0.1213 -0.0441
44446SOL    HW150948   3.602  13.882  11.280 -0.1496 -0.8400  0.5511
44446SOL    HW250949   3.536  13.751  11.242 -1.2646 -0.0256 -0.3636
44447SOL     OW50950  13.326  11.968   7.670 -0.5650  0.4361 -0.0999
44447SOL    HW150951  13.299  12.058   7.650 -1.6972  0.8239  2.6625
44447SOL    HW250952  13.257  11.935   7.728 -0.8185 -2.7082 -2.0128
44448SOL     OW50953   3.600   3.230   6.724  0.6778 -0.4137 -0.0394
44448SOL    HW150954   3.633   3.143   6.743  1.3260 -1.4193 -4.5246
44448SOL    HW250955   3.672   3.289   6.747  0.6360 -1.0967  1.9994
44449SOL     OW50956   8.953   1.464   8.667 -0.3948  0.4690 -0.2297
44449SOL    HW150957   8.943   1.381   8.713 -1.6222  0.7725  0.1043
44449SOL    HW250958   8.983   1.526   8.734 -2.0679  0.8830  0.2042
44450SOL     OW50959   2.250   9.374   0.794  0.3605 -0.0896 -0.9195
44450SOL    HW150960   2.198   9.409   0.721 -1.2797 -0.3314  0.0698
44450SOL    HW250961   2.257   9.447   0.856  0.2924 -0.3680 -0.5813
44451SOL     OW50962  11.485   5.250  11.066  0.0814  0.0677 -0.0847
44451SOL    HW150963  11.421   5.219  11.130  0.7317 -1.1388  0.0127
44451SOL    HW250964  11.505   5.173  11.013  0.0127  0.9062 -1.3518
44452SOL     OW50965  10.660   7.281   7.129  0.7695  0.2363  0.6169
44452SOL    HW150966  10.704   7.265   7.046  1.5916  1.5429  0.7660
44452SOL    HW250967  10.706   7.226   7.192  1.5437  0.8145  0.5759
44453SOL     OW50968   9.174  11.793   9.051 -0.7594  0.2971 -0.0982
44453SOL    HW150969   9.144  11.872   9.096 -1.0716  0.4862 -0.6224
44453SOL    HW250970   9.269  11.796   9.059 -0.7272  1.0326 -0.5941
44454SOL     OW50971   2.496   5.583  13.629 -0.0218  0.0032  0.6194
44454SOL    HW150972   2.481   5.557  13.719 -0.7395  1.6580  1.0210
44454SOL    HW250973   2.412   5.619  13.600  0.9369  2.1862  0.2830
44455SOL     OW50974   5.833   7.444   2.548 -0.6225 -0.1683 -0.1684
44455SOL    HW150975   5.857   7.421   2.458  2.3779  2.1264 -0.1466
44455SOL    HW250976   5.909   7.416   2.600 -2.4831 -1.8808  1.8354
44456SOL     OW50977   2.082   3.843   2.331  0.5744 -0.0800  0.8232
44456SOL    HW150978   2.057   3.791   2.407  0.3094 -0.3280  0.5682
44456SOL    HW250979   2.040   3.928   2.344  1.3115  0.2074  1.4270
44457SOL     OW50980   9.117   4.612  11.330 -0.1397  0.5225  0.4226
44457SOL    HW150981   9.108   4.519  11.353 -1.0214  0.6955  0.7979
44457SOL    HW250982   9.035   4.633  11.286  0.3026  0.9799 -0.2022
44458SOL     OW50983  12.250   9.727  12.178  0.5768  0.3794 -0.3170
44458SOL    HW150984  12.158   9.752  12.172  0.1860 -0.4031  1.5435
44458SOL    HW250985  12.297   9.810  12.190 -0.2854  0.5956  2.0387
44459SOL     OW50986   1.143   2.626   8.342  0.4037 -0.6593 -0.1213
44459SOL    HW150987   1.133   2.594   8.252  0.4216 -0.3595 -0.2310
44459SOL    HW250988   1.054   2.628   8.376  0.3751 -0.5788 -0.1998
44460SOL     OW50989  11.907   2.462   6.137  0.1441 -0.1044 -0.4109
44460SOL    HW150990  11.852   2.464   6.215  0.0680 -1.8549 -0.3892
44460SOL    HW250991  11.995   2.480   6.169  0.2725 -1.7701  0.2683
44461SOL     OW50992   0.948  11.651   3.527 -0.0446  0.0716 -0.0158
44461SOL    HW150993   1.001  11.725   3.499  0.7559 -0.7035 -0.6390
44461SOL    HW250994   1.012  11.582   3.545 -0.6954 -0.1487  1.6126
44462SOL     OW50995   9.108   0.950   3.121  0.0696  0.1454  0.0663
44462SOL    HW150996   9.149   0.974   3.204  0.7894  1.2517 -0.5813
44462SOL    HW250997   9.181   0.939   3.060 -0.4230 -1.0532 -0.3464
44463SOL     OW50998   6.522  11.097   4.298 -0.1349 -0.4752 -0.3438
44463SOL    HW150999   6.612  11.063   4.309  0.6780  1.2485 -1.3102
44463SOL    HW251000   6.511  11.105   4.204 -0.6972  0.8654 -0.1785
44464SOL     OW51001   3.451   5.134  10.747 -0.1982  0.4274  0.4835
44464SOL    HW151002   3.530   5.131  10.692 -0.4483  0.0843  0.1374
44464SOL    HW251003   3.456   5.055  10.800 -0.4768  0.2388  0.2276
44465SOL     OW51004   4.214   7.333   2.731 -0.6567 -0.2957  0.5314
44465SOL    HW151005   4.158   7.260   2.756  0.2634 -0.5634  1.9266
44465SOL    HW251006   4.234   7.318   2.639 -0.2518 -1.9912  0.8620
44466SOL     OW51007   4.448   0.264   1.964  0.0643  1.1032 -0.1561
44466SOL    HW151008   4.377   0.201   1.974  0.7190  0.2582 -0.7401
44466SOL    HW251009   4.527   0.211   1.955  1.0807  2.0393  2.3968
44467SOL     OW51010   9.782  12.873   8.939 -0.3090  0.5491 -0.3914
44467SOL    HW151011   9.822  12.949   8.981  1.1918 -1.0327  1.2482
44467SOL    HW251012   9.688  12.891   8.940  0.0310  2.4882 -0.3491
44468SOL     OW51013  11.341  13.132   7.378  0.7784 -0.4579 -1.0474
44468SOL    HW151014  11.299  13.217   7.395 -1.2126 -1.2531 -1.6479
44468SOL    HW251015  11.381  13.141   7.292 -0.3598 -0.4193 -1.5953
44469SOL     OW51016   6.311   9.072   1.915 -0.7158  0.2455  0.4377
44469SOL    HW151017   6.345   9.001   1.861  2.7940  0.9769  1.4127
44469SOL    HW251018   6.347   9.152   1.875 -1.3626  1.1264  1.5509
44470SOL     OW51019  11.080   0.489   3.924 -0.1158 -0.4179 -0.2374
44470SOL    HW151020  11.008   0.499   3.986  0.1223 -0.8177  0.1021
44470SOL    HW251021  11.158   0.476   3.978 -0.0558 -1.7844 -0.6008
44471SOL     OW51022   2.878   2.074   7.793 -0.2728  0.2051  0.0007
44471SOL    HW151023   2.893   1.987   7.831 -1.1118  0.2147  0.3668
44471SOL    HW251024   2.847   2.128   7.866  1.2249  1.1071  0.0044
44472SOL     OW51025   8.699   2.656   5.770  0.3825 -0.3644 -0.0704
44472SOL    HW151026   8.717   2.749   5.783  0.2241 -0.4534  0.8511
44472SOL    HW251027   8.655   2.629   5.851  0.1583 -1.1704 -0.4560
44473SOL     OW51028   2.489   7.748  11.012  0.8733 -0.7101 -0.0955
44473SOL    HW151029   2.554   7.679  10.998 -0.6758 -2.2723  0.0705
44473SOL    HW251030   2.430   7.712  11.079  1.9836  2.2040  2.7378
44474SOL     OW51031   7.136   7.546  13.249  0.3375  0.3833  0.1693
44474SOL    HW151032   7.173   7.584  13.329 -0.5819 -0.5530  1.0632
44474SOL    HW251033   7.198   7.477  13.225  1.4931  1.7293 -0.9067
44475SOL     OW51034  13.663   8.328   4.448 -0.1324  0.5400  0.0831
44475SOL    HW151035  13.637   8.340   4.356 -0.8015 -1.0831  0.0231
44475SOL    HW251036  13.589   8.283   4.488  1.4588 -1.8372  0.5667
44476SOL     OW51037  10.589   9.258  11.266 -0.3741 -0.2680  0.0902
44476SOL    HW151038  10.516   9.204  11.237 -0.5637  0.3905 -0.7191
44476SOL    HW251039  10.549   9.343  11.287  0.1446  0.1103 -0.3948
44477SOL     OW51040   1.293   9.894   4.222 -0.5460  0.0628 -0.1019
44477SOL    HW151041   1.242   9.880   4.302  1.1948  1.5885  1.3543
44477SOL    HW251042   1.280   9.986   4.201  1.2904  0.4005  0.1063
44478SOL     OW51043   6.918   8.513   4.433  0.2598 -0.3172 -0.3361
44478SOL    HW151044   6.856   8.469   4.492  0.5021 -2.4300 -1.5561
44478SOL    HW251045   6.863   8.554   4.367  0.0685  0.6497  0.3899
44479SOL     OW51046   7.697  11.973   1.898 -0.5573  0.0545 -0.4556
44479SOL    HW151047   7.722  12.038   1.963 -1.5989  0.2423 -0.2296
44479SOL    HW251048   7.763  11.904   1.906 -0.4425  0.2724  0.5074
44480SOL     OW51049   5.235  11.493   4.806 -0.3426 -0.0439 -0.1082
44480SOL    HW151050   5.161  11.466   4.861 -0.9556 -0.0364 -0.8914
44480SOL    HW251051   5.203  11.571   4.761  0.6399  0.7362  0.5305
44481SOL     OW51052   8.440   3.488   1.415  0.2911  0.2267 -0.5822
44481SOL    HW151053   8.426   3.574   1.375  0.1234 -0.0611 -1.1620
44481SOL    HW251054   8.534   3.471   1.402  0.7351  1.1288  1.2053
44482SOL     OW51055  12.456   1.330   7.416 -0.7881  0.3263  0.1467
44482SOL    HW151056  12.398   1.257   7.439 -1.3831  0.7599  0.0365
44482SOL    HW251057  12.493   1.305   7.331 -0.3268 -0.2392  0.5090
44483SOL     OW51058  12.221   1.862  13.913  0.0974 -0.2696 -0.0468
44483SOL    HW151059  12.266   1.812  13.981 -1.0561 -0.1099  0.8662
44483SOL    HW251060  12.291   1.895  13.857  0.9571 -1.9406 -0.0109
44484SOL     OW51061   9.688   5.778   4.584 -0.2285  0.4837  0.3420
44484SOL    HW151062   9.628   5.710   4.616 -0.9338  1.2705  0.7096
44484SOL    HW251063   9.770   5.731   4.568 -0.5151 -0.3409  1.1955
44485SOL     OW51064   9.275  13.420   9.116 -0.0590 -0.1388  0.1350
44485SOL    HW151065   9.261  13.327   9.100 -0.3863  0.1910 -1.7950
44485SOL    HW251066   9.288  13.427   9.210 -2.1079 -1.8709  0.6286
44486SOL     OW51067   5.114   3.580  11.750 -0.1141  0.3880 -0.6793
44486SOL    HW151068   5.151   3.566  11.663 -1.2480  1.2779 -1.3333
44486SOL    HW251069   5.120   3.494  11.792 -0.8489 -0.4306 -2.1503
44487SOL     OW51070   8.139   9.281   4.292 -0.4959  0.7839 -0.0509
44487SOL    HW151071   8.110   9.318   4.208 -0.9342  0.3029 -0.1218
44487SOL    HW251072   8.212   9.224   4.269 -0.4326  0.8737 -0.0705
44488SOL     OW51073  13.959   7.992  10.948  0.5509  0.6360 -0.4227
44488SOL    HW151074  14.049   8.013  10.925  0.6692  2.2289  1.2817
44488SOL    HW251075  13.939   7.914  10.896  2.4901  0.9262 -1.7214
44489SOL     OW51076   6.965   6.980   2.591  0.9098  0.1300 -0.8021
44489SOL    HW151077   6.893   6.980   2.527  0.2849 -0.0909 -0.1094
44489SOL    HW251078   6.975   6.888   2.615  1.2055  0.2018 -0.6514
44490SOL     OW51079   5.335   3.727  11.025  0.1654  0.0027  0.6274
44490SOL    HW151080   5.384   3.736  10.943  1.1153 -2.8663  0.7904
44490SOL    HW251081   5.391   3.675  11.082 -2.2636 -1.9130  1.4761
44491SOL     OW51082   0.694   6.340  13.198 -0.3001 -0.0716 -0.8258
44491SOL    HW151083   0.607   6.373  13.172  0.0493 -0.0296 -1.9821
44491SOL    HW251084   0.689   6.334  13.294 -1.3069  0.7079 -0.8059
44492SOL     OW51085  13.926  11.814  13.345 -0.6081 -0.0390 -0.2909
44492SOL    HW151086  13.923  11.829  13.440 -0.0427  3.0224 -0.6589
44492SOL    HW251087  14.015  11.784  13.328  0.0779  1.7777 -0.0784
44493SOL     OW51088   1.236   1.593   2.170 -0.1437  0.7228  0.0701
44493SOL    HW151089   1.205   1.577   2.080 -0.0720  1.0589 -0.0148
44493SOL    HW251090   1.300   1.663   2.161  1.3752 -0.6013  0.1143
44494SOL     OW51091   1.695   1.320   8.183 -0.2328  0.1301  0.0272
44494SOL    HW151092   1.754   1.381   8.227  0.0135  0.0730 -0.2206
44494SOL    HW251093   1.739   1.236   8.187 -0.5851 -0.0408  0.3915
44495SOL     OW51094  11.952   7.633   1.999 -0.2017 -0.0951  0.3452
44495SOL    HW151095  12.022   7.693   1.973  0.9591 -1.2011  0.8494
44495SOL    HW251096  11.982   7.595   2.081 -0.8904 -1.4340 -0.0006
44496SOL     OW51097   0.950   9.363   2.370  0.7364  0.7099 -0.0858
44496SOL    HW151098   1.013   9.362   2.443  2.2239 -1.1435 -1.2913
44496SOL    HW251099   0.990   9.422   2.306  0.7151  0.3650 -0.4179
44497SOL     OW51100   5.158   7.103  13.784  0.0582  0.3331  0.2039
44497SOL    HW151101   5.226   7.050  13.742  0.3286  0.5972  0.3066
44497SOL    HW251102   5.150   7.180  13.728  0.7857  0.9327  0.9087
44498SOL     OW51103  12.953  11.882  11.321 -0.4102 -0.2004  0.5358
44498SOL    HW151104  12.965  11.975  11.336  0.0952 -0.1236 -0.2438
44498SOL    HW251105  12.895  11.877  11.245  0.7665 -0.4816 -0.3794
44499SOL     OW51106  11.126   6.773  12.202  0.0991  0.5839 -0.0841
44499SOL    HW151107  11.149   6.706  12.137 -1.9351  0.7175 -1.0384
44499SOL    HW251108  11.063   6.729  12.259 -1.1108  1.5861 -0.6001
44500SOL     OW51109   6.000  11.966  13.432  0.2517 -0.2220 -0.2088
44500SOL    HW151110   5.983  11.873  13.414 -0.0317 -0.2203  0.0404
44500SOL    HW251111   5.975  12.011  13.351 -3.1825  0.0282  0.8420
44501SOL     OW51112   3.285   4.662   7.931 -0.0942  0.0878 -0.0611
44501SOL    HW151113   3.308   4.744   7.975  0.5528 -0.2701  0.2917
44501SOL    HW251114   3.350   4.653   7.861 -0.7529  0.3526 -0.7211
44502SOL     OW51115   9.087   5.955   1.365 -0.2620  0.0028  0.3257
44502SOL    HW151116   9.125   6.006   1.437 -0.5854  0.2128  0.3521
44502SOL    HW251117   9.161   5.938   1.306 -0.4686  2.1194 -0.6306
44503SOL     OW51118   7.445  10.115  11.272 -0.5550 -0.2921 -0.0826
44503SOL    HW151119   7.397  10.179  11.220  1.5695  1.4016 -0.0755
44503SOL    HW251120   7.421  10.134  11.362 -1.8165 -1.1810 -0.1997
44504SOL     OW51121   4.073   8.242   0.684 -0.4143 -0.1090  0.2915
44504SOL    HW151122   4.093   8.330   0.650 -0.9475  0.6603  1.8627
44504SOL    HW251123   4.146   8.188   0.655  0.2991  1.0191 -0.0854
44505SOL     OW51124   0.672   1.977  13.079 -0.5126 -0.6774  0.1301
44505SOL    HW151125   0.624   2.058  13.063  0.0095 -0.1384  1.1893
44505SOL    HW251126   0.645   1.950  13.167 -0.6084 -1.6073 -0.1792
44506SOL     OW51127   8.937  13.485   2.070  0.0727 -0.1913 -0.1952
44506SOL    HW151128   8.933  13.504   2.164  1.2621  1.0927 -0.3797
44506SOL    HW251129   9.014  13.429   2.059  2.1636  2.5805 -0.7823
44507SOL     OW51130  12.448   8.107  12.070  0.6439  0.1010  0.3204
44507SOL    HW151131  12.511   8.055  12.119 -0.7813 -2.2366 -0.1912
44507SOL    HW251132  12.487   8.116  11.983 -0.4957 -3.1818 -0.6748
44508SOL     OW51133   1.208   0.399   2.008 -0.4342 -0.0536  0.2738
44508SOL    HW151134   1.257   0.370   1.931  1.6467  1.3213  1.0081
44508SOL    HW251135   1.214   0.326   2.069  0.6887  0.0739  0.3364
44509SOL     OW51136   1.612   1.987   6.703 -0.1617 -0.6688 -0.5737
44509SOL    HW151137   1.555   1.926   6.749  0.0921 -0.1239  0.4901
44509SOL    HW251138   1.697   1.943   6.699 -0.3311 -0.9652 -1.0745
44510SOL     OW51139   5.591   7.489   0.561  0.3411 -0.3041 -0.6862
44510SOL    HW151140   5.610   7.574   0.601 -0.0342  1.0137 -3.0937
44510SOL    HW251141   5.510   7.461   0.603  1.1656 -0.1643  1.0957
44511SOL     OW51142  14.071   4.938   5.086 -0.1771 -0.1871 -0.4572
44511SOL    HW151143  13.989   4.966   5.126 -0.5117 -0.6509 -0.8203
44511SOL    HW251144  14.064   4.843   5.078  0.0492 -0.1501 -1.2493
44512SOL     OW51145   1.236   8.545   6.886 -0.6190 -0.3129  0.6681
44512SOL    HW151146   1.216   8.535   6.793 -0.7994  1.7032  0.4611
44512SOL    HW251147   1.314   8.490   6.900  0.8865  1.1914 -1.2508
44513SOL     OW51148   5.276   1.230  12.066 -0.4702  0.3073 -0.6337
44513SOL    HW151149   5.188   1.241  12.104  0.0225 -0.0839  0.6764
44513SOL    HW251150   5.328   1.192  12.137  0.6167 -0.0263 -1.5820
44514SOL     OW51151   4.220   4.273  11.122  0.0723  0.0853  0.5856
44514SOL    HW151152   4.263   4.320  11.050  0.2157 -0.4810  0.2949
44514SOL    HW251153   4.239   4.181  11.105 -1.2049 -0.1854  0.4823
44515SOL     OW51154  12.425   2.343   6.828  0.1679  0.3874 -0.2628
44515SOL    HW151155  12.330   2.335   6.823 -0.0353  2.0450  0.3386
44515SOL    HW251156  12.440   2.432   6.861  1.8754 -0.4765  1.5152
44516SOL     OW51157   5.182   3.758   5.006 -0.0893 -0.4158 -0.3553
44516SOL    HW151158   5.147   3.712   5.083  0.5356 -0.0010  0.1878
44516SOL    HW251159   5.195   3.848   5.035  0.1516 -0.2520 -0.9489
44517SOL     OW51160  13.365   2.082   6.526  0.4942 -0.0067 -0.0309
44517SOL    HW151161  13.304   2.115   6.460 -2.6530 -0.6105  2.3685
44517SOL    HW251162  13.360   1.986   6.517  1.3841 -0.0752  0.0358
44518SOL     OW51163   2.886   2.726   5.905  0.0701 -0.3439 -0.2119
44518SOL    HW151164   2.896   2.787   5.979  1.5022  0.3196 -0.9028
44518SOL    HW251165   2.923   2.644   5.938  1.1411  0.0782 -0.3142
44519SOL     OW51166  13.566   1.603   9.553  0.6406  0.3619  0.2123
44519SOL    HW151167  13.485   1.553   9.567  0.3276  0.5054 -0.9490
44519SOL    HW251168  13.608   1.560   9.478  1.3305  0.6730  0.4108
44520SOL     OW51169   4.208   0.043  11.870  0.2531 -0.6359 -0.6660
44520SOL    HW151170   4.303   0.029  11.864  0.5944 -0.1544  2.0836
44520SOL    HW251171   4.197   0.136  11.852  0.4271 -0.5449 -0.3301
44521SOL     OW51172   4.542   3.763  11.485 -0.7498  0.1763  0.2911
44521SOL    HW151173   4.565   3.836  11.543  0.4392 -0.4358  0.6250
44521SOL    HW251174   4.574   3.790  11.399  0.0636 -0.0974  0.4932
44522SOL     OW51175   8.051   7.323   9.520 -0.2664  0.1921 -0.3109
44522SOL    HW151176   7.994   7.249   9.539  0.0126 -0.0204 -0.2848
44522SOL    HW251177   8.097   7.298   9.440 -0.9310  0.7877 -0.8909
44523SOL     OW51178  12.997  12.469  13.557  0.5442  0.5861 -0.3916
44523SOL    HW151179  12.908  12.450  13.586  0.1054  1.0248 -1.3913
44523SOL    HW251180  12.986  12.527  13.481  1.5945 -1.1879 -2.0054
44524SOL     OW51181   5.883   9.241   4.188 -0.0000  0.1650 -0.0761
44524SOL    HW151182   5.892   9.188   4.267  2.2739  1.8977  0.9383
44524SOL    HW251183   5.807   9.298   4.205 -0.8584 -0.9369 -0.1063
44525SOL     OW51184   8.483   5.853   0.785 -0.1353 -0.7133  0.1143
44525SOL    HW151185   8.469   5.828   0.876 -0.4420 -3.6361 -0.6633
44525SOL    HW251186   8.451   5.944   0.781 -1.0282 -0.8268  2.6708
44526SOL     OW51187   7.881   5.700   7.167  0.2972  0.7256  0.0168
44526SOL    HW151188   7.872   5.709   7.262  1.2847  0.5136  0.1407
44526SOL    HW251189   7.794   5.718   7.133 -0.7933 -1.9221  1.1406
44527SOL     OW51190  10.898   1.474   3.608 -0.3142 -0.5098 -0.7728
44527SOL    HW151191  10.866   1.384   3.612 -1.2251 -0.1405  1.2609
44527SOL    HW251192  10.928   1.493   3.697 -1.6058  1.6937 -0.7464
44528SOL     OW51193   3.642   6.180  13.073 -0.0354 -0.2428 -0.3398
44528SOL    HW151194   3.664   6.122  13.001  0.7749 -0.3738  0.0039
44528SOL    HW251195   3.712   6.245  13.074 -0.9150  0.7645 -0.7163
44529SOL     OW51196  10.686   3.293   9.575  0.4407 -0.1101 -0.1742
44529SOL    HW151197  10.651   3.319   9.660  3.4788  0.9035  0.9178
44529SOL    HW251198  10.614   3.307   9.513 -1.5093  0.1759  2.0301
44530SOL     OW51199  11.851  11.777  12.091 -0.5810  0.3514  0.2960
44530SOL    HW151200  11.786  11.711  12.071 -0.4151  0.3685 -0.3008
44530SOL    HW251201  11.934  11.741  12.058 -0.4582  0.7663  0.1426
44531SOL     OW51202   0.679   4.933   6.707  1.2097 -0.3139 -0.3703
44531SOL    HW151203   0.700   5.002   6.644  1.0672 -0.8749 -1.0476
44531SOL    HW251204   0.594   4.899   6.677 -0.5515  1.6167  2.0436
44532SOL     OW51205   7.356   3.674   6.673  0.2711  0.3744 -0.2424
44532SOL    HW151206   7.370   3.583   6.696 -0.9150  0.4678  0.9786
44532SOL    HW251207   7.261   3.685   6.674  0.3122  1.2480 -1.9264
44533SOL     OW51208   8.189  11.850  11.369 -0.0404  0.0867 -0.2368
44533SOL    HW151209   8.097  11.826  11.383  0.1512 -2.0101 -1.9948
44533SOL    HW251210   8.185  11.936  11.326 -1.1827  0.0255 -0.2861
44534SOL     OW51211   1.472   8.221   1.848  0.6659  0.3748  0.4176
44534SOL    HW151212   1.498   8.155   1.784  1.3490  0.4177  0.6352
44534SOL    HW251213   1.378   8.209   1.859  0.7527 -0.4512  0.3268
44535SOL     OW51214   8.719   6.671   0.259  0.0102  0.2249 -0.3016
44535SOL    HW151215   8.643   6.615   0.247 -1.6538  2.7580 -2.8775
44535SOL    HW251216   8.693   6.734   0.326  1.0461 -0.6326  0.9737
44536SOL     OW51217  12.576  11.261  12.468 -0.1738 -0.3329 -0.3864
44536SOL    HW151218  12.528  11.206  12.406 -2.6174 -0.0872  1.1560
44536SOL    HW251219  12.558  11.351  12.438 -0.2643 -0.2503 -0.0844
44537SOL     OW51220   6.120   2.235   2.081 -0.0873  0.2414  0.0410
44537SOL    HW151221   6.060   2.179   2.031 -0.5701  0.9763 -0.2239
44537SOL    HW251222   6.062   2.295   2.128  0.4307  1.4763 -0.8174
44538SOL     OW51223   2.978   8.944   1.571 -0.1492 -0.0724  0.1718
44538SOL    HW151224   3.063   8.904   1.590 -0.9780 -1.2539  1.6425
44538SOL    HW251225   2.981   9.029   1.615  0.6697  0.3842 -0.7452
44539SOL     OW51226   4.100   0.021   9.940  0.0138  0.1869  0.5818
44539SOL    HW151227   4.080  -0.034  10.015  0.7012  0.8492  1.2663
44539SOL    HW251228   4.136   0.101   9.978 -1.0054  1.1389 -0.3837
44540SOL     OW51229   4.173   5.257  10.617 -0.1629 -0.1002 -0.3276
44540SOL    HW151230   4.089   5.220  10.644 -0.4157 -0.6461 -1.7804
44540SOL    HW251231   4.151   5.346  10.589 -0.0771  0.1106  0.2711
44541SOL     OW51232  12.309  10.748   3.576 -0.0154 -0.4304 -0.4952
44541SOL    HW151233  12.371  10.782   3.511 -0.3283 -0.8069 -0.9973
44541SOL    HW251234  12.230  10.728   3.526 -0.7228  0.4730  0.2082
44542SOL     OW51235   4.753  10.197  12.204  0.3210  0.1316 -0.2484
44542SOL    HW151236   4.798  10.119  12.172 -0.3070 -0.7185  0.8589
44542SOL    HW251237   4.693  10.164  12.270 -0.1778  1.5345  0.0288
44543SOL     OW51238  11.214  10.101  12.805  0.8253 -0.0640  0.0997
44543SOL    HW151239  11.151  10.092  12.877  1.2037 -2.2150  0.1977
44543SOL    HW251240  11.211  10.195  12.784 -1.6539  0.0832  0.7716
44544SOL     OW51241  11.525  13.552   0.744 -0.1120 -0.1282 -0.3425
44544SOL    HW151242  11.580  13.568   0.667 -0.6752 -0.7200 -0.8817
44544SOL    HW251243  11.515  13.457   0.747  0.8414 -0.2062  1.1446
44545SOL     OW51244   4.239  12.030   0.443  0.3208  0.5688 -0.1838
44545SOL    HW151245   4.195  12.096   0.390  0.4045  1.3696  0.7165
44545SOL    HW251246   4.221  11.947   0.398 -2.2460  0.8232  0.2519
44546SOL     OW51247   0.987   9.236   7.666  0.1242  0.1060 -0.7293
44546SOL    HW151248   0.899   9.204   7.685  1.2325 -2.7589  0.2601
44546SOL    HW251249   1.002   9.304   7.731 -0.1430 -1.9540  1.6809
44547SOL     OW51250   7.034   9.811   3.748  0.1612 -0.3688  0.0833
44547SOL    HW151251   7.016   9.891   3.700  1.7980 -0.7539 -1.2318
44547SOL    HW251252   6.961   9.753   3.726  0.1212 -0.0162 -0.7275
44548SOL     OW51253   0.891   9.558   5.676 -0.1622 -0.2067 -0.0002
44548SOL    HW151254   0.925   9.550   5.587  0.1762  0.9526  0.0079
44548SOL    HW251255   0.956   9.612   5.721 -0.5037 -0.5019  0.8583
44549SOL     OW51256   9.852  11.509   6.442  0.3684 -0.9815  0.1030
44549SOL    HW151257   9.814  11.504   6.354  0.9304 -0.2825 -0.1855
44549SOL    HW251258   9.927  11.449   6.440  0.3483 -1.0077  0.1281
44550SOL     OW51259  11.540   7.752   3.007 -0.0498 -0.0391 -0.3543
44550SOL    HW151260  11.448   7.771   2.989  0.1038  0.4855 -0.5907
44550SOL    HW251261  11.580   7.837   3.020  0.3634 -0.2768 -0.0304
44551SOL     OW51262   3.598  13.623   8.226 -0.3332 -0.5012 -0.0197
44551SOL    HW151263   3.587  13.530   8.202  0.0683 -0.9816  1.5816
44551SOL    HW251264   3.588  13.670   8.143  2.8310 -2.1860 -1.5254
44552SOL     OW51265   0.032  13.020   2.310 -0.8160 -0.3565 -0.1464
44552SOL    HW151266   0.122  13.019   2.341 -0.2407 -0.2660 -1.7426
44552SOL    HW251267  -0.020  13.039   2.388  0.5705  0.0089  0.7167
44553SOL     OW51268  10.103   8.511   0.562 -0.5155  0.0805 -0.3475
44553SOL    HW151269  10.015   8.508   0.600  0.9725  2.0689  3.9116
44553SOL    HW251270  10.093   8.560   0.480 -3.1111  2.5379  1.2583
44554SOL     OW51271   4.719   6.645   6.635  0.5500 -0.0042 -0.0150
44554SOL    HW151272   4.712   6.740   6.637  0.8727  0.0143  1.7626
44554SOL    HW251273   4.812   6.627   6.625  0.4530 -0.1541 -0.7338
44555SOL     OW51274   8.186   1.468   3.666 -0.5874  0.5091  0.0926
44555SOL    HW151275   8.191   1.533   3.596 -2.8793  0.6167 -0.0655
44555SOL    HW251276   8.093   1.444   3.669  0.2790 -3.7434 -0.7543
44556SOL     OW51277   9.573   9.199   4.993  0.2932  0.3719 -0.1623
44556SOL    HW151278   9.637   9.231   5.056 -1.0037 -0.1717  1.4979
44556SOL    HW251279   9.611   9.118   4.959  0.0858 -0.4824  1.5507
44557SOL     OW51280  13.270  11.683   5.007 -0.4712 -0.0510  0.1181
44557SOL    HW151281  13.319  11.664   4.927  3.4683  0.6889  2.1250
44557SOL    HW251282  13.316  11.635   5.076 -3.6293 -0.5685  2.1096
44558SOL     OW51283   5.935   9.706  13.737  0.0141 -0.7245  0.7317
44558SOL    HW151284   5.971   9.764  13.805  0.6428 -1.1921  0.8144
44558SOL    HW251285   5.972   9.620  13.758  0.1654 -0.8861 -0.1720
44559SOL     OW51286   8.587   9.409  13.598  0.1632 -0.0902  0.2953
44559SOL    HW151287   8.496   9.401  13.626  0.4483  1.0055  1.6593
44559SOL    HW251288   8.617   9.318  13.588 -0.4729 -0.5252  1.9868
44560SOL     OW51289  10.941  10.513   1.428  0.0556  0.2017  0.1425
44560SOL    HW151290  10.896  10.463   1.495  0.1322  2.3865  1.9509
44560SOL    HW251291  11.004  10.567   1.475 -0.7987  2.8232 -1.4282
44561SOL     OW51292  13.474   3.682   7.284  0.4610 -0.1503 -0.4817
44561SOL    HW151293  13.482   3.590   7.260 -0.5948 -0.1595 -0.8391
44561SOL    HW251294  13.484   3.683   7.379 -2.1094 -1.0105 -0.1258
44562SOL     OW51295   6.437   0.535  11.839 -0.3525 -0.1046  0.1291
44562SOL    HW151296   6.345   0.558  11.856 -0.5582 -0.0969 -0.8985
44562SOL    HW251297   6.432   0.465  11.773  0.4036  1.6040 -1.8673
44563SOL     OW51298  12.485   8.662   0.516 -0.0240  0.2019  0.7177
44563SOL    HW151299  12.539   8.638   0.591 -0.1628 -0.1529  0.7035
44563SOL    HW251300  12.530   8.737   0.477 -0.7065  1.2928  1.9861
44564SOL     OW51301   8.174   3.029   7.511  0.2422 -0.0128  0.0421
44564SOL    HW151302   8.146   2.945   7.547  1.1613 -0.7680 -0.9571
44564SOL    HW251303   8.218   3.073   7.584 -1.2120  0.1102  0.8899
44565SOL     OW51304   4.934   0.142   3.678 -0.5018 -0.5057  0.3131
44565SOL    HW151305   4.860   0.135   3.738 -0.5855  2.5082  0.7147
44565SOL    HW251306   4.896   0.139   3.591 -1.0175  0.1801  0.5087
44566SOL     OW51307   6.371   2.242   1.367 -0.0025 -0.4762  0.4841
44566SOL    HW151308   6.394   2.221   1.277 -0.9502 -1.0068  0.3561
44566SOL    HW251309   6.418   2.177   1.420 -0.1776 -0.7494  0.3066
44567SOL     OW51310   8.111   9.828   2.117  0.7804 -0.5248 -0.0740
44567SOL    HW151311   8.044   9.784   2.169  0.3301 -0.1572 -0.3330
44567SOL    HW251312   8.070   9.840   2.031  1.3036 -0.6001 -0.3400
44568SOL     OW51313   0.025  10.833   3.371  0.1699 -0.3891  0.0505
44568SOL    HW151314  -0.036  10.907   3.374 -0.3764 -0.7893 -0.8669
44568SOL    HW251315  -0.030  10.756   3.379  0.9442 -0.7778  4.3157
44569SOL     OW51316   8.841   0.018   7.071  0.1087 -0.4258  0.1465
44569SOL    HW151317   8.898   0.011   6.994  0.2593 -2.9340  0.4074
44569SOL    HW251318   8.839   0.112   7.091  1.7102  0.0587 -1.6735
44570SOL     OW51319   6.897  11.818   6.227 -0.0108 -0.1865  0.4014
44570SOL    HW151320   6.918  11.828   6.320  1.5953  0.3710  0.0194
44570SOL    HW251321   6.903  11.907   6.192  3.2310 -0.7568 -0.9000
44571SOL     OW51322   0.850   5.118  10.869  0.2869 -0.8428 -0.2651
44571SOL    HW151323   0.804   5.037  10.892 -1.1489  0.3337  1.2090
44571SOL    HW251324   0.878   5.155  10.953  1.9950 -0.3827 -0.9905
44572SOL     OW51325   1.987  12.632   9.201  0.1196  0.0531  0.6446
44572SOL    HW151326   2.055  12.693   9.229  0.6029 -0.8920  1.6005
44572SOL    HW251327   2.035  12.555   9.172 -0.3714  0.8062 -2.5424
44573SOL     OW51328  11.861   2.164  12.940  0.3761  0.3223 -0.4477
44573SOL    HW151329  11.807   2.196  12.868  0.5757  1.1681 -0.2354
44573SOL    HW251330  11.914   2.240  12.965  0.8962 -0.1934  0.0496
44574SOL     OW51331   5.348  13.621  10.439 -0.6727  0.1792  0.2469
44574SOL    HW151332   5.332  13.694  10.379  0.1100 -0.5149 -0.8456
44574SOL    HW251333   5.367  13.663  10.523  0.1795  1.2622 -0.4561
44575SOL     OW51334  10.140  10.880   0.155  0.5668 -0.0081 -0.4582
44575SOL    HW151335  10.135  10.854   0.247  0.9229 -2.1413 -0.9807
44575SOL    HW251336  10.053  10.914   0.135  0.5565  0.7270  0.7089
44576SOL     OW51337   0.979  11.944  10.871  0.4611 -0.0344  0.0535
44576SOL    HW151338   0.927  11.921  10.948 -0.9011  1.6871 -0.2869
44576SOL    HW251339   1.065  11.967  10.905  0.8795 -2.2886  0.7043
44577SOL     OW51340   5.810  11.242   3.751 -0.2082 -0.1806 -0.0619
44577SOL    HW151341   5.759  11.176   3.799  1.9449 -2.0583 -0.2245
44577SOL    HW251342   5.758  11.323   3.760 -3.2695 -1.9452 -0.3590
44578SOL     OW51343   1.654   8.748   4.028 -0.3975  0.0983 -0.3841
44578SOL    HW151344   1.600   8.688   3.977  0.7838 -1.7749  0.4693
44578SOL    HW251345   1.744   8.717   4.015 -0.0257 -0.4154  2.6186
44579SOL     OW51346   8.445   2.453   1.211 -0.0424 -0.4677 -0.3717
44579SOL    HW151347   8.464   2.360   1.207 -0.7616 -0.8864  2.9208
44579SOL    HW251348   8.351   2.458   1.226 -0.0676  0.8261 -0.8306
44580SOL     OW51349  12.137  10.135   2.689 -0.3320 -0.0608 -0.1617
44580SOL    HW151350  12.183  10.133   2.605 -1.6628  0.4883 -0.9290
44580SOL    HW251351  12.177  10.065   2.740 -0.0454 -0.9341 -1.5420
44581SOL     OW51352  12.162   2.325   6.786  0.0853 -0.0696 -0.2384
44581SOL    HW151353  12.111   2.406   6.784 -0.9628 -0.6934  0.5002
44581SOL    HW251354  12.156   2.294   6.876  0.7598 -0.7916 -0.4275
44582SOL     OW51355  10.240   8.193   4.299 -0.3262  0.7798  0.5497
44582SOL    HW151356  10.288   8.128   4.349 -1.0968 -0.3710 -0.1609
44582SOL    HW251357  10.183   8.142   4.241 -1.0643  2.0831  0.0782
44583SOL     OW51358   9.341  10.257  12.220 -0.1052  0.1302  0.3507
44583SOL    HW151359   9.391  10.258  12.301 -0.2157  2.1289  0.4221
44583SOL    HW251360   9.315  10.347  12.205 -0.2569 -0.1984 -1.8137
44584SOL     OW51361   7.534   2.933  11.911 -0.4787 -0.7457 -0.5101
44584SOL    HW151362   7.509   2.900  11.825  1.5900 -1.5500 -0.8561
44584SOL    HW251363   7.586   2.862  11.950 -0.7717 -0.1150  1.1286
44585SOL     OW51364   9.183  13.431   4.834 -0.3254  0.5255 -0.2531
44585SOL    HW151365   9.178  13.482   4.915 -2.0721 -2.0142  1.3566
44585SOL    HW251366   9.270  13.390   4.837 -1.4661 -2.0281  2.0709
44586SOL     OW51367   4.689   4.888  10.165  0.0691  0.1004 -0.4716
44586SOL    HW151368   4.609   4.902  10.215 -0.2050  1.5800 -1.2385
44586SOL    HW251369   4.706   4.794  10.170 -0.8893 -0.0143  0.9295
44587SOL     OW51370   4.246   5.232   3.444 -0.0629 -0.4219 -0.3697
44587SOL    HW151371   4.329   5.242   3.396  0.0106  0.4235 -0.0837
44587SOL    HW251372   4.182   5.279   3.391 -0.9842 -3.2573 -2.0047
44588SOL     OW51373   2.774  12.582   1.054 -0.0654 -0.4458 -0.7018
44588SOL    HW151374   2.785  12.576   1.149  0.4777 -0.4091 -0.7591
44588SOL    HW251375   2.738  12.670   1.040 -1.4126 -0.9298 -0.4295
44589SOL     OW51376   3.910   8.762   0.083  0.5790  0.3487 -0.0152
44589SOL    HW151377   3.974   8.734   0.018  2.8101  2.8124  0.9403
44589SOL    HW251378   3.827   8.763   0.036  1.8728  0.7017 -2.4328
44590SOL     OW51379   2.845   1.287  10.124 -0.7888 -0.0119  0.3465
44590SOL    HW151380   2.848   1.355  10.057  0.1843  0.1722  0.5671
44590SOL    HW251381   2.898   1.321  10.196 -2.1068 -0.0465  1.3751
44591SOL     OW51382  11.835   1.775   5.960  0.3857 -0.2142  0.2055
44591SOL    HW151383  11.854   1.754   5.869 -0.4251 -0.1284  0.0131
44591SOL    HW251384  11.742   1.756   5.971  0.3330  0.3642  0.8516
44592SOL     OW51385  11.443   9.671   0.194 -0.1120 -0.2915 -0.0964
44592SOL    HW151386  11.494   9.706   0.120  1.0998 -3.2857 -0.8222
44592SOL    HW251387  11.352   9.679   0.166  0.3158 -1.4594 -2.0695
44593SOL     OW51388   9.996  11.353  11.027 -0.0020  0.6717 -0.7988
44593SOL    HW151389   9.915  11.310  11.000  1.3350 -1.4836 -1.5943
44593SOL    HW251390  10.003  11.336  11.120 -0.9262  1.7466 -0.5073
44594SOL     OW51391   9.830   8.029   3.676  0.1321 -0.3304  0.2357
44594SOL    HW151392   9.854   8.084   3.601  1.3437 -1.7735 -0.4757
44594SOL    HW251393   9.767   7.967   3.641  1.6061 -1.7844  0.0706
44595SOL     OW51394  12.527  11.196  14.090 -0.2723 -0.0341 -0.0630
44595SOL    HW151395  12.562  11.264  14.032 -1.7932  0.9242  0.0750
44595SOL    HW251396  12.574  11.116  14.065  1.7778  1.0913 -0.0379
44596SOL     OW51397   7.321   1.531   7.237 -0.3216 -0.0062 -1.0641
44596SOL    HW151398   7.395   1.591   7.250 -0.1150 -0.4433 -0.1097
44596SOL    HW251399   7.244   1.584   7.257 -0.1235 -0.1128  0.0715
44597SOL     OW51400   1.767  10.170   0.374 -0.2973  0.1333 -0.4200
44597SOL    HW151401   1.853  10.186   0.337  0.4614 -2.0494  0.2790
44597SOL    HW251402   1.720  10.253   0.361  2.1590  1.6975  0.0122
44598SOL     OW51403   5.008   4.212   6.527  0.2419 -0.0603 -0.3070
44598SOL    HW151404   5.041   4.198   6.616 -1.1158  0.2141  0.2535
44598SOL    HW251405   4.981   4.125   6.497  2.2767 -0.4785 -1.1543
44599SOL     OW51406   5.436   9.113   2.421  0.0593  0.2375 -0.1997
44599SOL    HW151407   5.345   9.138   2.410 -0.6918 -1.5034  1.4578
44599SOL    HW251408   5.476   9.186   2.470 -0.3605  1.0980 -1.1154
44600SOL     OW51409  10.897   8.887   5.599 -0.3302 -0.4022  0.2779
44600SOL    HW151410  10.811   8.846   5.589  0.0521 -1.2385  0.3374
44600SOL    HW251411  10.956   8.829   5.552  0.0568  0.7365 -0.7017
44601SOL     OW51412   5.598  13.324  12.497  0.3041  0.4211  0.2175
44601SOL    HW151413   5.592  13.348  12.405 -0.0601  0.3226  0.2124
44601SOL    HW251414   5.687  13.293  12.509  0.1593 -0.1936 -0.2601
44602SOL     OW51415  13.316  11.767   0.287  0.7516  0.0725 -0.0020
44602SOL    HW151416  13.332  11.857   0.318  2.3523 -0.2860  0.2524
44602SOL    HW251417  13.391  11.746   0.232  1.4683 -1.8470  1.5928
44603SOL     OW51418  13.316   7.577   2.586 -0.7595  0.6441  0.0597
44603SOL    HW151419  13.260   7.646   2.621  1.0748  3.0282 -1.3657
44603SOL    HW251420  13.273   7.550   2.505 -0.1644  2.1625 -0.8120
44604SOL     OW51421  11.461  12.493   1.260 -0.3125  0.1020  0.0044
44604SOL    HW151422  11.432  12.538   1.180  0.4511  0.6479  0.0263
44604SOL    HW251423  11.556  12.487   1.251 -0.3843 -1.4537  0.0440
44605SOL     OW51424  10.977  13.723   8.030  0.3302  0.2091  0.2016
44605SOL    HW151425  11.067  13.698   8.011 -0.2947 -1.4009 -0.9292
44605SOL    HW251426  10.933  13.640   8.048 -0.8513  1.0026  1.1312
44606SOL     OW51427  11.807  13.190   1.003 -0.1916 -0.2162 -0.3087
44606SOL    HW151428  11.757  13.243   0.941 -1.0855  0.1647  0.6845
44606SOL    HW251429  11.891  13.174   0.960  0.4998  2.7783 -0.3247
44607SOL     OW51430   7.303  11.009   4.170  0.1453  0.5896 -0.5750
44607SOL    HW151431   7.252  10.960   4.236  1.4452 -0.0263  0.0059
44607SOL    HW251432   7.393  10.982   4.185  0.5568  1.0051 -2.1551
44608SOL     OW51433   0.114   7.567   7.400 -0.2275  0.3309  0.3981
44608SOL    HW151434   0.054   7.532   7.466 -0.5816  2.9977  1.6354
44608SOL    HW251435   0.200   7.568   7.443  0.0055 -0.0864 -0.0469
44609SOL     OW51436   8.166  11.806   7.775  0.6026  0.2843 -0.3567
44609SOL    HW151437   8.225  11.844   7.840 -0.6119 -0.8110  1.4777
44609SOL    HW251438   8.211  11.727   7.745  0.4297 -0.1274  0.4508
44610SOL     OW51439   1.901   1.863   2.645  0.4062 -0.7463 -0.3370
44610SOL    HW151440   1.919   1.895   2.733 -0.3719 -0.1081 -0.4015
44610SOL    HW251441   1.940   1.928   2.586  0.1502 -0.7074 -0.4658
44611SOL     OW51442   7.188   7.951   2.532  0.1853  0.4112 -0.0573
44611SOL    HW151443   7.201   7.892   2.606  0.9384  1.8407  0.9941
44611SOL    HW251444   7.265   7.938   2.477  0.0614  0.0166 -0.1479
44612SOL     OW51445   6.723   6.218   6.265 -0.2398 -0.4535  0.2975
44612SOL    HW151446   6.756   6.157   6.199  1.0751  1.0692 -0.5021
44612SOL    HW251447   6.700   6.297   6.216  0.3217  0.5493  1.5906
44613SOL     OW51448   0.319  10.709   5.362 -0.3386  0.2575  0.2585
44613SOL    HW151449   0.241  10.733   5.311 -0.3924  1.1761  0.7461
44613SOL    HW251450   0.356  10.635   5.315 -2.0205 -0.8125  0.5202
44614SOL     OW51451   2.505  12.013   4.552  0.5163 -0.1621  0.6398
44614SOL    HW151452   2.436  12.075   4.578  0.3043 -0.8376  1.7144
44614SOL    HW251453   2.585  12.049   4.589  0.8851  0.9059 -1.0461
44615SOL     OW51454   5.686   8.842  11.266  0.2373 -0.3759  0.1065
44615SOL    HW151455   5.683   8.826  11.172  2.2539  0.1144 -0.0854
44615SOL    HW251456   5.713   8.759  11.304  2.1814  0.1175 -0.0677
44616SOL     OW51457  13.787   2.001   0.228  0.9861  0.9443 -0.7211
44616SOL    HW151458  13.853   1.962   0.170  0.4548 -1.4591  0.1926
44616SOL    HW251459  13.831   2.009   0.313 -0.1785 -1.9980  0.2782
44617SOL     OW51460   5.917  13.559   8.810  0.0769  0.5239 -0.3421
44617SOL    HW151461   5.874  13.641   8.787 -1.1892  0.6337  2.0653
44617SOL    HW251462   5.873  13.493   8.758 -0.5747  1.0853 -0.5148
44618SOL     OW51463  10.559  11.235   1.924  0.0156 -0.3333  0.2017
44618SOL    HW151464  10.551  11.150   1.880  0.7260 -0.3731  0.1322
44618SOL    HW251465  10.639  11.227   1.976 -0.0082  0.2368  0.3285
44619SOL     OW51466   5.434   0.115  11.018  0.5108 -0.1513 -0.1950
44619SOL    HW151467   5.511   0.059  11.012 -0.1755 -1.3309  1.2844
44619SOL    HW251468   5.372   0.064  11.070 -1.3493  0.6672 -1.4844
44620SOL     OW51469  11.962   8.926   0.142 -0.1536 -0.2274 -0.5065
44620SOL    HW151470  11.938   8.889   0.056 -2.1234 -0.1368 -0.0388
44620SOL    HW251471  12.013   8.856   0.184 -1.3098 -1.2782 -0.7893
44621SOL     OW51472  12.361   3.867  12.695 -0.1391  0.2865  0.5580
44621SOL    HW151473  12.401   3.953  12.682  0.8242 -0.1964  0.1741
44621SOL    HW251474  12.336   3.839  12.607 -1.1716  0.4916  0.7687
44622SOL     OW51475   4.364   1.439   1.703 -0.1297  0.1838  0.2667
44622SOL    HW151476   4.438   1.377   1.711  0.4821  0.7373 -0.8624
44622SOL    HW251477   4.405   1.523   1.684 -1.0722  0.1641 -2.2858
44623SOL     OW51478   7.252   8.747  11.342  0.1134  0.7208 -0.0821
44623SOL    HW151479   7.241   8.816  11.277 -1.7763  0.9576  0.4050
44623SOL    HW251480   7.303   8.788  11.412  2.1148  0.4773 -1.3178
44624SOL     OW51481   0.245  11.551   9.784  0.6072  0.3928 -0.5729
44624SOL    HW151482   0.212  11.631   9.826 -1.8083 -0.3009 -0.9710
44624SOL    HW251483   0.233  11.567   9.690  1.5942  0.1458 -0.7492
44625SOL     OW51484   0.718   4.477   0.803  0.1341  0.2981  1.0199
44625SOL    HW151485   0.708   4.411   0.734 -1.3541 -0.0674  1.5371
44625SOL    HW251486   0.724   4.426   0.884  1.5637  0.7336  1.2115
44626SOL     OW51487  10.565  10.522   9.740  0.1479  0.0959 -0.1929
44626SOL    HW151488  10.543  10.489   9.653  0.7150 -0.6674 -0.0530
44626SOL    HW251489  10.592  10.612   9.725 -1.9744  0.7300 -0.5134
44627SOL     OW51490   9.702   5.650  11.381 -0.3303 -0.2511 -0.3336
44627SOL    HW151491   9.792   5.619  11.377  0.0099  0.7648 -3.9106
44627SOL    HW251492   9.673   5.653  11.289 -3.0601  2.1279  0.4394
44628SOL     OW51493  11.137   8.555   1.747  0.4443 -0.0352  0.2020
44628SOL    HW151494  11.067   8.526   1.805 -2.0744 -1.6438 -3.2734
44628SOL    HW251495  11.097   8.625   1.694  1.9135 -0.0057 -0.9481
44629SOL     OW51496   4.499   3.409  12.372  0.1708  0.0679 -0.0677
44629SOL    HW151497   4.474   3.373  12.287 -0.3364 -0.6735  0.3855
44629SOL    HW251498   4.451   3.356  12.435  0.8266  0.3771  0.7014
44630SOL     OW51499  10.497   7.281   4.842  0.2287  0.4678  0.5640
44630SOL    HW151500  10.575   7.251   4.796  0.7716  1.6737  0.6640
44630SOL    HW251501  10.430   7.216   4.820  1.1465 -0.3726  0.1688
44631SOL     OW51502   4.315   3.126  13.415 -0.2445  0.2202  0.7928
44631SOL    HW151503   4.228   3.114  13.452  0.4983 -0.9712  2.2556
44631SOL    HW251504   4.299   3.170  13.331 -2.2660 -0.2106  0.8885
44632SOL     OW51505   6.903  13.383   7.921  0.0843  0.1529  0.0703
44632SOL    HW151506   6.889  13.468   7.964  0.0518  0.0902  0.1838
44632SOL    HW251507   6.879  13.399   7.829 -0.4136  0.1335  0.1916
44633SOL     OW51508  10.925   3.039   7.282  0.7796  0.1729  0.0232
44633SOL    HW151509  10.998   3.088   7.244  0.4045  0.2541 -0.6107
44633SOL    HW251510  10.961   2.952   7.298  1.9833  1.0658  2.8089
44634SOL     OW51511   9.861   0.946   5.382 -0.1964 -0.1042  0.1710
44634SOL    HW151512   9.793   0.952   5.315 -0.4568  2.2456  0.5635
44634SOL    HW251513   9.819   0.900   5.455 -1.0518  0.4131  0.0199
44635SOL     OW51514   2.830  11.277   7.228  0.1676  0.3433 -0.6122
44635SOL    HW151515   2.743  11.238   7.241 -0.0275  0.3245 -1.8225
44635SOL    HW251516   2.891  11.211   7.261 -0.2897  0.8164  1.2868
44636SOL     OW51517   1.099   2.340   2.715 -0.0491 -0.1636 -0.1962
44636SOL    HW151518   1.167   2.312   2.776  0.4841  0.5034 -0.4736
44636SOL    HW251519   1.017   2.311   2.755  0.3440 -0.2611  0.5418
44637SOL     OW51520  11.699  13.701   4.553  0.0625  0.2381  0.0031
44637SOL    HW151521  11.677  13.794   4.544 -0.4518  0.0845 -0.3275
44637SOL    HW251522  11.749  13.696   4.634  0.5760  0.8924 -0.2616
44638SOL     OW51523   4.381   2.614  12.469  0.5818 -0.1252 -0.1822
44638SOL    HW151524   4.365   2.652  12.555  1.3022  4.4547 -1.7553
44638SOL    HW251525   4.296   2.616  12.425  0.6290 -0.3109 -0.2852
44639SOL     OW51526   8.083   5.217   1.886  0.0904 -0.4556  0.3309
44639SOL    HW151527   8.149   5.148   1.895  1.6866  0.9742  0.1065
44639SOL    HW251528   8.038   5.219   1.970 -0.7900 -2.5107 -0.0407
44640SOL     OW51529   4.331   1.816  13.455 -0.2247 -0.8013  0.5602
44640SOL    HW151530   4.249   1.819  13.504 -1.4057  0.0410 -1.3238
44640SOL    HW251531   4.358   1.908  13.449 -0.8910 -0.6892 -1.4896
44641SOL     OW51532   5.280   7.648  13.745 -0.2254 -0.1401  0.3601
44641SOL    HW151533   5.237   7.712  13.802  1.1421  0.7082  0.4815
44641SOL    HW251534   5.373   7.665  13.755  0.1343 -1.4596 -0.4375
44642SOL     OW51535   5.739  12.330  11.184 -0.3174  0.2023 -0.0367
44642SOL    HW151536   5.761  12.370  11.268  0.8622  0.7917 -0.6097
44642SOL    HW251537   5.650  12.360  11.165  0.0807  1.5416  0.1487
44643SOL     OW51538   5.147  12.447  10.520 -0.6309  0.1850 -0.8672
44643SOL    HW151539   5.068  12.432  10.572  0.5456 -0.2734  0.9096
44643SOL    HW251540   5.144  12.539  10.496 -1.4540  0.2927 -0.3744
44644SOL     OW51541   5.301   7.738  11.055 -0.1014  0.2864  0.3328
44644SOL    HW151542   5.225   7.772  11.102 -1.1661 -1.8697  0.3106
44644SOL    HW251543   5.263   7.685  10.984  1.4226 -0.4371  0.0207
44645SOL     OW51544  10.647  10.764   9.699 -0.8628  0.4594 -0.7899
44645SOL    HW151545  10.687  10.786   9.615  0.8016 -0.1823 -0.2121
44645SOL    HW251546  10.600  10.843   9.725  1.7310  2.0763 -0.5850
44646SOL     OW51547   1.421   2.688   9.883 -0.1930  0.1743  0.3400
44646SOL    HW151548   1.330   2.683   9.913 -0.9161  1.4329 -1.4325
44646SOL    HW251549   1.462   2.751   9.941 -0.8005  0.5067  0.4221
44647SOL     OW51550   8.302  13.850   9.269  0.0667 -0.0558 -0.3247
44647SOL    HW151551   8.350  13.931   9.286  2.5136 -1.5319  0.1665
44647SOL    HW251552   8.246  13.871   9.194 -1.5099  2.8521  1.4613
44648SOL     OW51553  10.874  11.011   6.421  0.1561 -0.5373 -0.4768
44648SOL    HW151554  10.792  10.963   6.403  1.1037 -2.1941 -0.6028
44648SOL    HW251555  10.903  11.042   6.336 -0.9414  1.1602 -0.2828
44649SOL     OW51556   4.423   8.563  12.911 -0.1180 -0.9539  0.3525
44649SOL    HW151557   4.396   8.539  13.000  0.7031  1.7618  1.4387
44649SOL    HW251558   4.480   8.638  12.923  0.3667 -0.7567 -2.4923
44650SOL     OW51559   9.758  12.808   0.190  0.2587 -0.4610 -0.7256
44650SOL    HW151560   9.693  12.749   0.228 -3.2529  1.2528 -3.4267
44650SOL    HW251561   9.746  12.891   0.236  2.2853 -0.6750  0.2933
44651SOL     OW51562  10.405  12.293   4.087 -0.1815 -0.4489 -0.1220
44651SOL    HW151563  10.485  12.247   4.115 -0.9573 -1.5958  0.2722
44651SOL    HW251564  10.381  12.347   4.163 -0.4622 -1.0602  0.2355
44652SOL     OW51565   6.783   1.600   7.917  0.1535 -0.0074  0.0346
44652SOL    HW151566   6.778   1.534   7.848  3.3248  1.3901 -1.7481
44652SOL    HW251567   6.728   1.672   7.886  0.2703 -0.0383 -0.2445
44653SOL     OW51568  11.065   5.849  12.964 -0.1896  0.4590  0.3182
44653SOL    HW151569  11.032   5.921  12.910 -1.9177 -0.3906  0.1817
44653SOL    HW251570  11.142   5.817  12.918 -1.1017  0.3568 -1.1877
44654SOL     OW51571   1.668   9.855   4.628 -0.0856 -0.5467  0.2943
44654SOL    HW151572   1.738   9.801   4.592  0.1512 -0.3440  0.4493
44654SOL    HW251573   1.686   9.860   4.721 -0.1671 -0.2924  0.2993
44655SOL     OW51574   7.684   8.159   5.547 -0.2612  0.5076  0.2998
44655SOL    HW151575   7.740   8.090   5.513 -0.2016 -0.2013  1.7589
44655SOL    HW251576   7.694   8.153   5.642 -1.4986  1.4746  0.5109
44656SOL     OW51577  11.232   9.801  10.385  0.0511 -0.4780 -0.7653
44656SOL    HW151578  11.229   9.882  10.334 -0.7881 -0.9885 -1.5745
44656SOL    HW251579  11.185   9.821  10.465  1.3819  0.3388 -0.1587
44657SOL     OW51580   7.048   2.965  13.210  0.1528 -0.4513 -0.0683
44657SOL    HW151581   7.138   2.958  13.241 -0.5249 -1.3779  1.9184
44657SOL    HW251582   7.053   2.955  13.115  2.0211 -1.6374  0.1123
44658SOL     OW51583  11.002   7.610   2.026  1.0320  0.0539  0.3175
44658SOL    HW151584  11.021   7.619   1.933  0.7465 -1.1996  0.1256
44658SOL    HW251585  10.926   7.667   2.041  1.1346  0.3285 -0.1896
44659SOL     OW51586   5.998   2.313   8.454 -0.6236  0.0582  0.7268
44659SOL    HW151587   5.953   2.271   8.527 -0.1344 -0.3482  0.8032
44659SOL    HW251588   5.985   2.407   8.468 -1.3244 -0.0485  0.8186
44660SOL     OW51589   4.778  10.709   3.829 -0.1806 -0.1997 -0.0630
44660SOL    HW151590   4.766  10.734   3.737  0.7424  0.4220 -0.0240
44660SOL    HW251591   4.808  10.618   3.825 -1.0377 -0.4747 -0.3319
44661SOL     OW51592   4.101   4.258   1.882 -0.2664 -0.1432  0.1868
44661SOL    HW151593   4.074   4.340   1.841 -0.2855 -0.7581 -1.0902
44661SOL    HW251594   4.116   4.198   1.808  0.1202 -1.1733  1.0701
44662SOL     OW51595   3.917   9.156   4.259  0.3833 -0.1003 -0.0899
44662SOL    HW151596   3.870   9.240   4.261  0.5981  0.0152  0.1018
44662SOL    HW251597   3.856   9.096   4.216  0.6206  0.3970 -1.1582
44663SOL     OW51598  11.989  12.878   3.816 -0.5179 -0.1916  0.1905
44663SOL    HW151599  11.939  12.805   3.852 -1.8323  0.5069 -0.1571
44663SOL    HW251600  12.075  12.870   3.857 -1.0431 -1.1688  1.1686
44664SOL     OW51601   4.802  10.233  14.031 -0.2805 -0.2396 -0.5019
44664SOL    HW151602   4.834  10.231  14.121 -2.6984 -2.3871  0.4642
44664SOL    HW251603   4.826  10.319  13.999 -0.0434  0.9468  2.4863
44665SOL     OW51604   6.583  12.893  12.400  0.6760 -0.1531  0.4389
44665SOL    HW151605   6.590  12.847  12.316 -1.2411  0.1631  0.0670
44665SOL    HW251606   6.498  12.866  12.435 -0.4300  2.8090  0.3171
44666SOL     OW51607   0.271  10.163   9.028 -0.2374  0.1762  0.6192
44666SOL    HW151608   0.247  10.238   8.975  3.5412 -0.6656 -2.8537
44666SOL    HW251609   0.309  10.200   9.107 -2.2352  1.6537  0.9566
44667SOL     OW51610   3.153   0.441   4.726 -0.1508  0.4922  0.2020
44667SOL    HW151611   3.069   0.474   4.756  0.2663  0.6405  1.2799
44667SOL    HW251612   3.217   0.482   4.785  0.9243  2.2558 -2.0481
44668SOL     OW51613  12.341   0.491   7.953 -0.2846  0.2507  0.1222
44668SOL    HW151614  12.307   0.536   8.031 -0.4109 -0.4252  0.4609
44668SOL    HW251615  12.365   0.562   7.894 -1.2257  0.7576  0.3279
44669SOL     OW51616   6.296   7.978   3.497 -0.8045 -0.7843 -0.1847
44669SOL    HW151617   6.251   8.007   3.417 -0.3869 -2.8275 -1.2185
44669SOL    HW251618   6.383   8.018   3.491 -0.9198 -0.5777 -0.5176
44670SOL     OW51619   6.475   9.454   4.622  0.0407  0.0557  0.6573
44670SOL    HW151620   6.465   9.408   4.539  0.1260 -1.0479  1.2383
44670SOL    HW251621   6.453   9.389   4.689  1.6927  0.3651  1.5700
44671SOL     OW51622  10.670   0.255  10.432  0.0207 -0.1311  0.0153
44671SOL    HW151623  10.643   0.345  10.418 -1.8789 -0.5981  0.3284
44671SOL    HW251624  10.694   0.223  10.345  0.6327  0.6344 -0.1077
44672SOL     OW51625  11.801   4.103   3.249  0.3079  0.2064 -0.0574
44672SOL    HW151626  11.857   4.030   3.277  0.0874  0.0870  0.0709
44672SOL    HW251627  11.717   4.062   3.227  0.0628  0.4676  0.3753
44673SOL     OW51628  11.761   4.086   4.416 -0.1324 -0.3999 -0.1041
44673SOL    HW151629  11.708   4.093   4.336 -0.5336 -1.8373  0.0027
44673SOL    HW251630  11.820   4.013   4.398  1.5006  0.8463 -0.0189
44674SOL     OW51631  13.270  13.940  11.024 -0.1999  0.1138  0.0384
44674SOL    HW151632  13.306  13.887  11.095  0.6273 -0.6467 -0.9238
44674SOL    HW251633  13.303  14.028  11.041 -0.4637  0.0568  0.8971
44675SOL     OW51634  12.354   4.491   4.416 -0.2636 -0.0599  0.1970
44675SOL    HW151635  12.400   4.422   4.368  1.7048  1.0231  0.4111
44675SOL    HW251636  12.261   4.477   4.396  0.2501 -1.5242 -1.3737
44676SOL     OW51637  12.490   8.377   6.466  0.1403  0.1713  0.1865
44676SOL    HW151638  12.465   8.466   6.493  1.7875  1.1674 -1.3132
44676SOL    HW251639  12.561   8.354   6.526  0.4345  0.3113 -0.1090
44677SOL     OW51640   8.990   1.111  13.012 -0.3920 -0.6036  0.1879
44677SOL    HW151641   9.051   1.184  13.008 -2.1227  0.8973 -0.0818
44677SOL    HW251642   9.030   1.049  13.072  0.0616  1.6100  2.3070
44678SOL     OW51643   4.116  11.441   7.885  0.1218  0.0898  0.5269
44678SOL    HW151644   4.081  11.508   7.944  0.3853  0.4392  0.2886
44678SOL    HW251645   4.172  11.387   7.941 -0.9604 -0.6235  0.9700
44679SOL     OW51646   0.152   8.523   4.154  0.3996 -0.8612  0.1111
44679SOL    HW151647   0.223   8.501   4.094 -1.0747 -2.4456 -1.1639
44679SOL    HW251648   0.121   8.439   4.187 -0.2270 -0.1472  1.4234
44680SOL     OW51649   4.304   6.706   4.925 -0.5164 -0.6743  0.1815
44680SOL    HW151650   4.347   6.673   5.004 -0.1173 -0.1347  0.1930
44680SOL    HW251651   4.358   6.780   4.897 -1.3537 -0.0730  0.1114
44681SOL     OW51652   6.808   1.327   2.004  0.3412 -0.4235  0.4958
44681SOL    HW151653   6.715   1.336   1.986  0.1708  2.6661  2.0938
44681SOL    HW251654   6.849   1.400   1.956  1.7858 -1.0485  0.7109
44682SOL     OW51655   3.389  11.516  13.047  0.2863  0.3896 -0.0038
44682SOL    HW151656   3.356  11.432  13.078  4.2291 -2.0843 -1.5827
44682SOL    HW251657   3.311  11.568  13.027 -2.3341 -2.1117  2.8154
44683SOL     OW51658   6.823   9.304   1.208  0.6496  0.1097 -0.5259
44683SOL    HW151659   6.747   9.303   1.151 -0.4588  0.2452  0.8750
44683SOL    HW251660   6.870   9.385   1.185 -0.3295  0.6839 -0.5717
44684SOL     OW51661  11.538   0.880   6.631 -0.0836 -0.4089  0.7707
44684SOL    HW151662  11.589   0.955   6.660 -1.4729  1.8077 -2.0598
44684SOL    HW251663  11.450   0.896   6.665 -0.5354 -0.3806 -0.3656
44685SOL     OW51664   0.786   3.597   1.087 -0.0875  0.1531 -0.3735
44685SOL    HW151665   0.879   3.615   1.102  0.3296 -1.9739 -0.0292
44685SOL    HW251666   0.755   3.559   1.169 -0.7809 -0.8171 -1.0584
44686SOL     OW51667   1.639   0.342   2.200 -0.3280 -0.3567  0.0720
44686SOL    HW151668   1.631   0.424   2.249  0.5412  1.9721 -3.3373
44686SOL    HW251669   1.553   0.329   2.161  0.4712  1.1430 -2.4019
44687SOL     OW51670  12.978  12.791   8.367  0.2830  0.0718 -0.6081
44687SOL    HW151671  12.957  12.871   8.319  0.1580  0.1711 -0.3896
44687SOL    HW251672  13.029  12.739   8.305 -0.3945 -0.0708 -1.0618
44688SOL     OW51673  13.005   3.774  11.116 -0.0061 -0.2507  0.0027
44688SOL    HW151674  12.922   3.728  11.115  0.2889 -0.8577  1.5857
44688SOL    HW251675  13.018   3.801  11.025 -1.5886 -0.7266 -0.3949
44689SOL     OW51676   7.345  13.919  13.178  0.0907 -0.2902  0.7492
44689SOL    HW151677   7.424  13.966  13.205  1.2389 -1.1634 -0.9231
44689SOL    HW251678   7.288  13.986  13.141  0.7249  0.1355  0.5338
44690SOL     OW51679  12.667   7.736   6.951 -0.5248 -0.2997  0.0854
44690SOL    HW151680  12.579   7.705   6.931 -1.9318  1.0092  3.5088
44690SOL    HW251681  12.681   7.810   6.892 -1.6371 -0.5938 -0.5787
44691SOL     OW51682   2.836   0.742   4.293  0.4719  0.2381  0.4595
44691SOL    HW151683   2.773   0.804   4.330 -1.0990  0.2127 -1.9571
44691SOL    HW251684   2.800   0.656   4.314  0.9375  0.1804  1.0395
44692SOL     OW51685  12.027   8.797   1.998 -0.1895 -0.2367 -0.1253
44692SOL    HW151686  12.039   8.795   2.093  0.7587  2.7935 -0.0786
44692SOL    HW251687  11.933   8.809   1.986 -0.2178  0.1372  0.4446
44693SOL     OW51688   9.972   8.363  13.555  0.5602 -0.4398  0.0984
44693SOL    HW151689  10.004   8.305  13.486  0.4396 -0.4033  0.0112
44693SOL    HW251690  10.051   8.390  13.602  0.5059 -1.7497  0.9991
44694SOL     OW51691  11.223   9.012  12.151 -0.1057 -0.3083  0.0388
44694SOL    HW151692  11.132   9.040  12.163 -0.5912 -1.6561 -0.2798
44694SOL    HW251693  11.234   8.939  12.212  1.2210  0.7179  1.0820
44695SOL     OW51694   6.364   9.490   6.804 -0.1837 -0.6150 -0.2446
44695SOL    HW151695   6.343   9.562   6.864  0.7390 -0.0414 -0.5963
44695SOL    HW251696   6.286   9.435   6.805 -1.2182  0.7912 -0.5508
44696SOL     OW51697   4.435  10.580  13.617 -0.0612  0.0311  0.4674
44696SOL    HW151698   4.399  10.492  13.606  0.3014  0.1353 -2.1275
44696SOL    HW251699   4.371  10.624  13.674 -1.0902 -1.4215  0.5155
44697SOL     OW51700  10.749  14.056   4.489  0.7035  0.1210  0.1018
44697SOL    HW151701  10.800  13.975   4.493 -0.4565 -0.7019 -1.1036
44697SOL    HW251702  10.791  14.113   4.553  1.1687 -1.6414  1.4603
44698SOL     OW51703   9.019  11.033   9.719 -1.1314 -0.1833  0.3039
44698SOL    HW151704   8.957  11.033   9.646 -1.5394  1.5432  0.6196
44698SOL    HW251705   8.977  10.978   9.786 -1.2447 -0.8966 -0.3361
44699SOL     OW51706   0.017   9.637   9.302 -0.6555 -0.0985 -0.2494
44699SOL    HW151707  -0.055   9.700   9.304 -0.7875 -0.2540 -0.0570
44699SOL    HW251708   0.058   9.643   9.388  0.3190  0.8463 -0.7644
44700SOL     OW51709  12.645   9.125   7.817  0.1465 -0.0437 -0.2202
44700SOL    HW151710  12.686   9.182   7.751 -1.2758 -1.0287 -2.0516
44700SOL    HW251711  12.696   9.140   7.896  1.3503  1.9226 -1.2791
44701SOL     OW51712   3.571   8.281  13.905 -0.4009  0.3048 -0.6405
44701SOL    HW151713   3.573   8.185  13.905  0.7366  0.3129  0.0812
44701SOL    HW251714   3.479   8.303  13.888 -0.8633 -0.9205  0.1260
44702SOL     OW51715   8.510   1.620   8.099 -0.5317  0.0228  0.1154
44702SOL    HW151716   8.559   1.565   8.160  0.2167 -0.8307 -1.1978
44702SOL    HW251717   8.536   1.709   8.120  0.1361 -0.2937  0.6778
44703SOL     OW51718   9.871  12.474   8.297  0.3089  0.0037  0.0654
44703SOL    HW151719   9.868  12.532   8.373  1.0726 -1.3851  1.2214
44703SOL    HW251720   9.964  12.453   8.287  0.3104  0.6784 -1.7026
44704SOL     OW51721   2.953   1.742  13.853  0.4991 -0.2789  0.4538
44704SOL    HW151722   2.919   1.680  13.788 -1.8682  0.6094  0.7511
44704SOL    HW251723   2.890   1.737  13.925  1.4925  0.8805  1.4311
44705SOL     OW51724   8.612  11.804   7.086  0.1650  0.1023 -0.4329
44705SOL    HW151725   8.650  11.794   7.173  1.1473 -1.1717 -0.9744
44705SOL    HW251726   8.629  11.895   7.063  1.9232 -0.1336 -0.1860
44706SOL     OW51727  11.770   2.382   0.575  0.2866 -0.4904 -0.2846
44706SOL    HW151728  11.842   2.442   0.598  0.2289 -0.5312  0.0067
44706SOL    HW251729  11.745   2.342   0.658 -0.2155 -0.3245 -0.3548
44707SOL     OW51730   7.632   1.782  12.774 -0.4265 -0.2330  0.1805
44707SOL    HW151731   7.537   1.800  12.775 -0.2500  1.0507 -1.5227
44707SOL    HW251732   7.669   1.850  12.830 -0.4267 -0.0079 -0.0881
44708SOL     OW51733  10.613   3.743   3.571 -0.1126  0.7509  0.3498
44708SOL    HW151734  10.700   3.710   3.550  0.2136  1.8312 -0.0425
44708SOL    HW251735  10.629   3.819   3.626 -0.7094  2.1385 -1.3084
44709SOL     OW51736  10.708   9.589   6.640 -0.3793  0.7543 -0.4325
44709SOL    HW151737  10.768   9.575   6.713 -1.7659  1.5329  0.9150
44709SOL    HW251738  10.755   9.647   6.580  0.8457 -0.0399 -0.2885
44710SOL     OW51739  13.655   9.225   0.986  0.2063 -0.0164 -0.2224
44710SOL    HW151740  13.563   9.236   0.963 -0.0101  0.8738  0.9785
44710SOL    HW251741  13.656   9.227   1.082  1.3834 -0.8846 -0.1920
44711SOL     OW51742  13.181   1.268   5.229 -0.5127  0.0735  0.0677
44711SOL    HW151743  13.127   1.304   5.159 -0.8509  1.0991  0.8437
44711SOL    HW251744  13.177   1.173   5.216 -1.5043  0.2022 -0.6136
44712SOL     OW51745  13.512  11.450   4.458 -0.0238  0.5987  0.3630
44712SOL    HW151746  13.566  11.452   4.537  1.5066  1.7502 -0.6674
44712SOL    HW251747  13.476  11.539   4.451 -0.1812  0.4977 -0.1964
44713SOL     OW51748   6.843   4.913   0.573  0.2023 -0.3957  0.3251
44713SOL    HW151749   6.874   4.899   0.483  0.7116 -0.0013  0.4329
44713SOL    HW251750   6.914   4.961   0.615 -2.4344  5.3600 -0.8419
44714SOL     OW51751   2.817   1.203  13.695  0.1699 -0.1614 -0.4079
44714SOL    HW151752   2.807   1.280  13.640  1.2401 -0.0549 -0.4854
44714SOL    HW251753   2.824   1.237  13.784 -0.3914 -0.2481 -0.3278
44715SOL     OW51754   4.386   3.762  12.179  0.0744  0.0440 -0.1317
44715SOL    HW151755   4.354   3.805  12.258  0.1238 -0.0992 -0.0322
44715SOL    HW251756   4.481   3.771  12.184  0.0589  0.2971 -0.3267
44716SOL     OW51757   0.254   8.413   1.807  0.4690  0.1599  0.5808
44716SOL    HW151758   0.256   8.489   1.864  0.6676 -0.0782  0.8990
44716SOL    HW251759   0.315   8.351   1.848  0.3755 -0.1346  0.2810
44717SOL     OW51760   8.974   8.846   6.843 -0.3411 -0.0256 -0.3127
44717SOL    HW151761   9.055   8.804   6.814 -0.0159  0.9657 -0.8915
44717SOL    HW251762   8.906   8.808   6.787  0.0095  0.5094 -1.1196
44718SOL     OW51763   2.456  12.595   5.680  0.0081  0.1619 -0.8091
44718SOL    HW151764   2.454  12.509   5.639  1.0499 -1.1894  1.7795
44718SOL    HW251765   2.547  12.624   5.671  0.4200 -0.4587  1.0297
44719SOL     OW51766   9.005   4.313   9.130 -0.4170 -0.8447  0.4088
44719SOL    HW151767   8.985   4.298   9.037  0.3549 -2.0299  0.4165
44719SOL    HW251768   9.014   4.226   9.167  0.5685 -0.3758  1.3262
44720SOL     OW51769   5.995   6.163   3.030  0.3522  0.8357 -0.7428
44720SOL    HW151770   6.027   6.232   2.972  0.4187  2.1406  0.7777
44720SOL    HW251771   5.911   6.195   3.061  1.3971  1.3504  1.7513
44721SOL     OW51772  13.875   8.601   1.607 -0.0308 -0.5274 -0.8010
44721SOL    HW151773  13.891   8.647   1.524 -1.0537  1.4943  0.0515
44721SOL    HW251774  13.959   8.561   1.628  0.3758 -0.7055 -2.5726
44722SOL     OW51775   9.343   5.076   0.899 -0.4552  0.1107 -0.3456
44722SOL    HW151776   9.252   5.047   0.908 -1.3575  2.2588 -1.8818
44722SOL    HW251777   9.356   5.086   0.805  1.3553 -0.0442 -0.1360
44723SOL     OW51778   0.995   0.617   6.779  0.2575  0.0693 -0.6764
44723SOL    HW151779   1.011   0.539   6.726 -0.0639 -0.5545  0.1204
44723SOL    HW251780   1.071   0.673   6.763  0.3449 -0.2664 -1.4946
44724SOL     OW51781  13.315   8.561   0.303  0.2631 -0.0609 -0.2984
44724SOL    HW151782  13.341   8.535   0.392 -1.2510  0.6267  0.3744
44724SOL    HW251783  13.220   8.566   0.307  0.0598 -1.2368 -2.3243
44725SOL     OW51784   2.224   7.728   3.138 -0.1951  0.3001  0.3329
44725SOL    HW151785   2.302   7.772   3.170  0.3264 -0.3248 -0.0671
44725SOL    HW251786   2.245   7.702   3.048 -1.2511  1.0765 -0.1750
44726SOL     OW51787   1.772   8.505   8.768 -0.0456 -0.3459 -0.0084
44726SOL    HW151788   1.850   8.555   8.792 -0.8708  0.4728  1.0730
44726SOL    HW251789   1.777   8.496   8.673  1.0190  0.2681 -0.0237
44727SOL     OW51790   3.256  10.934   2.253 -0.3542 -0.7234 -0.1666
44727SOL    HW151791   3.305  10.871   2.305  1.1037  0.8766  0.5144
44727SOL    HW251792   3.166  10.929   2.286 -0.5148 -3.0621 -0.8068
44728SOL     OW51793   5.729   9.509   2.015  0.0881 -0.1243 -0.1642
44728SOL    HW151794   5.723   9.583   2.075  2.2296  1.5304 -1.8225
44728SOL    HW251795   5.786   9.446   2.061  1.1368  0.8223 -0.1156
44729SOL     OW51796  13.673   9.799   8.640  0.1671  0.3536  0.4638
44729SOL    HW151797  13.614   9.784   8.714 -1.4706  2.5027 -0.3117
44729SOL    HW251798  13.619   9.784   8.562  0.9325  1.3224 -0.2836
44730SOL     OW51799  12.624   1.036   3.412 -0.1835 -0.4034 -0.1731
44730SOL    HW151800  12.711   1.041   3.373  0.5560 -1.7380  1.2032
44730SOL    HW251801  12.638   0.995   3.497 -2.1929 -0.8516 -0.0038
44731SOL     OW51802   2.652   5.739  11.510  0.2541  0.1676 -0.2831
44731SOL    HW151803   2.737   5.710  11.543  0.0550  0.3549  0.4128
44731SOL    HW251804   2.670   5.823  11.468  0.1631  1.0406  1.3289
44732SOL     OW51805   9.667   4.181   2.551 -0.0598 -0.2816 -0.3218
44732SOL    HW151806   9.625   4.145   2.473 -1.1504  1.1982 -0.4537
44732SOL    HW251807   9.653   4.275   2.545  0.9872 -0.0044  1.0067
44733SOL     OW51808   9.492   9.631  13.824  0.3614  0.6621 -0.7262
44733SOL    HW151809   9.426   9.665  13.885  0.2189 -0.3983 -0.2550
44733SOL    HW251810   9.552   9.704  13.810  1.1681  0.5877  1.7598
44734SOL     OW51811   0.507  10.828   8.747 -0.0138 -0.2482  0.5926
44734SOL    HW151812   0.442  10.759   8.730  0.2387 -0.1744 -0.7397
44734SOL    HW251813   0.482  10.900   8.689  1.8894 -0.6329 -0.7748
44735SOL     OW51814   0.833   3.297  13.364  0.0274 -0.0951 -0.2039
44735SOL    HW151815   0.892   3.324  13.295  0.4352  0.3037  0.2967
44735SOL    HW251816   0.801   3.378  13.403  2.5005 -0.2037  2.3829
44736SOL     OW51817   8.492  13.413  12.146  0.3172  0.4234 -0.2768
44736SOL    HW151818   8.453  13.332  12.115  1.5199 -0.0926 -0.4796
44736SOL    HW251819   8.533  13.390  12.229  2.7010  0.2076 -1.4374
44737SOL     OW51820   2.079   0.480   8.590 -0.3611  0.0401 -0.1249
44737SOL    HW151821   2.107   0.411   8.530  0.1071  1.4080 -1.5418
44737SOL    HW251822   2.113   0.561   8.551 -2.2016  1.2553  0.6738
44738SOL     OW51823   9.260   7.780   0.352  0.3667  0.2083  0.4802
44738SOL    HW151824   9.267   7.831   0.433  1.2119  0.0072  0.5388
44738SOL    HW251825   9.176   7.808   0.314  0.4540  1.0715  0.8976
44739SOL     OW51826   4.092  10.263   5.132 -0.1439  0.0811  0.4529
44739SOL    HW151827   4.079  10.333   5.068  0.8102  0.7985  1.0242
44739SOL    HW251828   4.152  10.300   5.196  0.3796 -1.2653  0.7691
44740SOL     OW51829   3.643   8.373  12.257  0.7097  0.3171 -0.5100
44740SOL    HW151830   3.685   8.382  12.342 -0.6272 -0.0396  0.2170
44740SOL    HW251831   3.653   8.459  12.216  0.5225  0.7954  0.4175
44741SOL     OW51832   6.652   2.178  13.071 -0.4809  0.0479 -0.0521
44741SOL    HW151833   6.688   2.149  13.155 -0.1936 -0.3448 -0.3111
44741SOL    HW251834   6.560   2.154  13.075 -0.7321  1.0300  0.6009
44742SOL     OW51835  10.699   5.062  13.623  0.1733  0.1185 -0.1017
44742SOL    HW151836  10.618   5.010  13.618  0.1877  0.0075  0.7543
44742SOL    HW251837  10.669   5.153  13.624  0.0295  0.0694  0.6430
44743SOL     OW51838   3.298   6.269  10.763  0.0793 -0.6631 -0.1548
44743SOL    HW151839   3.313   6.324  10.840  2.6785 -0.6135 -0.5772
44743SOL    HW251840   3.340   6.185  10.785 -0.7733 -1.2889 -0.8366
44744SOL     OW51841   0.305   8.505   6.949 -0.4445 -0.3543  0.0613
44744SOL    HW151842   0.393   8.496   6.911 -0.5498  1.2450 -0.6850
44744SOL    HW251843   0.313   8.472   7.038  0.8301 -0.5644 -0.1152
44745SOL     OW51844  13.787   5.627  10.098 -0.5155  0.0772  0.2928
44745SOL    HW151845  13.809   5.553  10.154  1.3885 -0.0518 -0.5429
44745SOL    HW251846  13.822   5.603  10.012 -0.9347  1.4245 -0.2856
44746SOL     OW51847   4.325  12.594   0.787 -0.0243 -0.2951  0.6077
44746SOL    HW151848   4.336  12.688   0.799 -1.6661  0.3463 -2.1843
44746SOL    HW251849   4.233  12.577   0.808  0.8645 -1.9464  3.9959
44747SOL     OW51850   6.722   2.760   2.344 -0.1728 -0.5107  0.2945
44747SOL    HW151851   6.788   2.740   2.278  0.9490 -1.3530  1.6129
44747SOL    HW251852   6.670   2.679   2.350 -0.2910 -0.4245  0.4287
44748SOL     OW51853   9.893   0.978   0.019 -0.4873 -0.0602 -0.1098
44748SOL    HW151854   9.851   0.961  -0.065 -2.0383  0.3681  0.5484
44748SOL    HW251855   9.826   1.021   0.072 -0.0376 -1.5481  1.8256
44749SOL     OW51856  12.858   2.442  12.266 -0.0262 -0.0935 -0.4860
44749SOL    HW151857  12.769   2.468  12.286 -0.4595 -2.3198  0.7602
44749SOL    HW251858  12.900   2.523  12.234 -2.2255  1.1688 -0.3763
44750SOL     OW51859  11.680   9.105   7.776 -0.3340  0.8899 -0.1779
44750SOL    HW151860  11.586   9.091   7.779 -0.3131  0.3334 -1.3250
44750SOL    HW251861  11.690   9.198   7.755 -0.6810  0.6448 -1.5338
44751SOL     OW51862   1.615   7.189   4.106 -0.0669 -0.2512  0.0568
44751SOL    HW151863   1.535   7.236   4.129  0.9595  2.4577 -1.5198
44751SOL    HW251864   1.679   7.217   4.170  0.5363  0.4822 -0.8495
44752SOL     OW51865   3.270   8.289   6.849  0.2805  0.2340  0.3229
44752SOL    HW151866   3.186   8.301   6.894 -0.0911  0.8800 -0.5225
44752SOL    HW251867   3.316   8.224   6.903  0.0021  1.2275  1.8356
44753SOL     OW51868   0.976   6.213   0.180  0.0797 -0.3899 -0.4016
44753SOL    HW151869   0.889   6.254   0.186 -1.0857 -2.3532 -2.3048
44753SOL    HW251870   1.023   6.267   0.117  0.6621  1.2087  1.2871
44754SOL     OW51871  12.984  12.863   4.222 -0.1354 -0.3590  0.2655
44754SOL    HW151872  13.057  12.836   4.166 -0.2998 -1.2007  0.4504
44754SOL    HW251873  12.980  12.958   4.211 -0.2730 -0.5166 -1.2981
44755SOL     OW51874   3.682   1.556   0.922 -0.0636  0.4920 -0.1948
44755SOL    HW151875   3.675   1.538   1.016 -1.4495 -1.1062 -0.5545
44755SOL    HW251876   3.695   1.651   0.916  3.2470  0.3191  1.7024
44756SOL     OW51877  11.195   5.382   3.939 -0.3580  0.5510  0.4235
44756SOL    HW151878  11.128   5.315   3.950 -0.7885  1.1416  1.5757
44756SOL    HW251879  11.231   5.394   4.026  1.9356 -0.4104 -0.3158
44757SOL     OW51880   9.739   4.619   5.951  0.2832  0.5464  0.1530
44757SOL    HW151881   9.831   4.623   5.924 -0.0580 -1.3460 -1.4609
44757SOL    HW251882   9.691   4.662   5.880 -0.3171 -1.1657 -0.5102
44758SOL     OW51883   2.499   3.229   4.105 -0.3844 -0.2945  0.6332
44758SOL    HW151884   2.485   3.280   4.026  1.0505 -1.2191 -0.2724
44758SOL    HW251885   2.458   3.144   4.087  0.1131 -0.5748  0.7905
44759SOL     OW51886   5.169  11.393   2.237  0.5786 -0.4930 -0.0743
44759SOL    HW151887   5.138  11.342   2.312  0.2762  0.3248  0.3721
44759SOL    HW251888   5.172  11.331   2.165  2.0298 -1.5843  0.8814
44760SOL     OW51889   9.923   3.030   9.594 -0.1440  0.2109  0.5773
44760SOL    HW151890   9.990   3.033   9.525 -0.2167  0.7555  0.5251
44760SOL    HW251891   9.948   3.100   9.654 -2.4842  2.7449 -1.1558
44761SOL     OW51892   2.325   0.557   3.728  0.1522  0.0998 -0.1652
44761SOL    HW151893   2.368   0.474   3.704  1.7557  0.1257  2.2492
44761SOL    HW251894   2.345   0.616   3.656  3.2080 -0.2978  0.1969
44762SOL     OW51895  10.747   1.031   5.657 -0.2815  0.2014 -0.2059
44762SOL    HW151896  10.790   0.947   5.672 -2.2277 -0.8813 -0.2606
44762SOL    HW251897  10.670   1.029   5.715 -1.4300  1.0754 -1.6185
44763SOL     OW51898   8.082  10.975   0.761 -0.4808  0.7749  0.4590
44763SOL    HW151899   8.114  10.885   0.767 -0.4561  0.7599  0.1402
44763SOL    HW251900   7.989  10.970   0.783 -0.2704  0.8176  1.3986
44764SOL     OW51901  13.914   8.466   6.358  0.4562  0.6506  0.8189
44764SOL    HW151902  13.979   8.401   6.384  1.0869  0.9742  0.0821
44764SOL    HW251903  13.830   8.427   6.382  0.6705 -1.2323 -1.1466
44765SOL     OW51904   0.831   1.912   1.451 -0.1835  0.7351 -0.3100
44765SOL    HW151905   0.737   1.927   1.460 -0.0706  0.4243  1.7254
44765SOL    HW251906   0.853   1.852   1.522  1.2513 -0.7193 -1.8883
44766SOL     OW51907   6.898   9.407   4.636 -0.5001 -0.5591  0.5187
44766SOL    HW151908   6.822   9.373   4.683 -0.5199 -0.6211  0.4413
44766SOL    HW251909   6.885   9.502   4.637 -1.3100 -0.6393 -0.7215
44767SOL     OW51910  13.182   5.946   8.898 -0.3519 -0.3402 -0.2418
44767SOL    HW151911  13.105   5.939   8.842  0.5089  0.1901 -1.5202
44767SOL    HW251912  13.148   5.980   8.981 -1.2039  1.9221 -1.4569
44768SOL     OW51913   3.700   7.712   8.654  0.4096 -0.2794  0.3419
44768SOL    HW151914   3.780   7.719   8.603  0.0868  1.1421 -0.0145
44768SOL    HW251915   3.630   7.710   8.590  0.0588  0.4571  0.6922
44769SOL     OW51916   9.704   9.485   6.536  0.3654  0.3362  0.2749
44769SOL    HW151917   9.700   9.579   6.517  0.4863 -0.2101 -2.9578
44769SOL    HW251918   9.794   9.460   6.516  0.1085 -0.6238  0.2711
44770SOL     OW51919   1.392   4.538   7.527  0.1344  0.4911  0.1030
44770SOL    HW151920   1.383   4.445   7.549 -0.7862  0.8099  1.1737
44770SOL    HW251921   1.466   4.568   7.580  0.6836  0.2826 -0.5428
44771SOL     OW51922  12.845   2.243   0.030  0.4395  0.4329 -0.0338
44771SOL    HW151923  12.888   2.257  -0.054 -0.5246 -1.4572 -0.9032
44771SOL    HW251924  12.904   2.185   0.078  0.6347  0.9212  0.3360
44772SOL     OW51925  10.769   4.225  12.365  0.4336 -0.1227  0.5364
44772SOL    HW151926  10.737   4.185  12.284 -1.1451 -1.4436  1.7623
44772SOL    HW251927  10.820   4.156  12.408 -0.1493  0.0002  1.4538
44773SOL     OW51928  12.069   5.714   5.669 -0.6479 -0.5207 -0.0331
44773SOL    HW151929  12.114   5.793   5.639 -2.3783  0.5916  0.1291
44773SOL    HW251930  12.018   5.743   5.746 -2.2827 -1.4642 -0.7025
44774SOL     OW51931   0.157   5.413  13.463  0.0318  0.4037 -0.5981
44774SOL    HW151932   0.232   5.471  13.450  1.7799 -1.0744  1.8272
44774SOL    HW251933   0.116   5.446  13.543 -1.8047  1.0094 -1.7401
44775SOL     OW51934  11.891   6.301   7.014  0.0054 -0.2878 -0.2500
44775SOL    HW151935  11.867   6.232   6.951 -1.5027 -1.0223  1.0597
44775SOL    HW251936  11.912   6.253   7.094  0.1402  0.7337  0.3346
44776SOL     OW51937  12.977   2.664   9.683  0.2940 -0.0065  0.7095
44776SOL    HW151938  12.900   2.618   9.715 -0.3078 -0.2306 -0.9518
44776SOL    HW251939  12.990   2.736   9.744 -1.3864  0.1704  0.8827
44777SOL     OW51940   3.985  10.390   3.750 -0.4878 -0.3175 -0.3775
44777SOL    HW151941   3.896  10.424   3.739 -0.7944 -0.9405  0.1327
44777SOL    HW251942   3.976  10.318   3.812  0.5923  0.5707  0.8643
44778SOL     OW51943  11.117   2.316   1.262 -0.9172 -0.4142  0.0970
44778SOL    HW151944  11.160   2.232   1.276 -0.5678 -0.3786 -0.7147
44778SOL    HW251945  11.185   2.373   1.228 -1.0999  0.2745  0.8409
44779SOL     OW51946   3.015   4.934   5.531 -0.3627  0.1587 -0.0420
44779SOL    HW151947   2.926   4.929   5.566 -0.2543  2.0939  0.6628
44779SOL    HW251948   3.015   5.015   5.479  0.6467 -0.4781 -1.0613
44780SOL     OW51949  12.813   1.262   3.067  0.5201  0.1136  0.0872
44780SOL    HW151950  12.848   1.211   3.140  1.3193  0.4277 -0.0645
44780SOL    HW251951  12.888   1.277   3.010 -0.3881 -1.6481 -1.7267
44781SOL     OW51952  13.993  10.711  10.888  0.2087  0.5840 -0.5307
44781SOL    HW151953  13.947  10.778  10.938 -1.0133 -0.7550  0.2286
44781SOL    HW251954  13.974  10.629  10.934 -0.3154 -0.6123 -2.7278
44782SOL     OW51955   2.409  13.132   2.081  0.5442  0.4094 -0.1011
44782SOL    HW151956   2.441  13.162   2.167  0.9151 -3.4859  1.3418
44782SOL    HW251957   2.479  13.076   2.048 -0.5541  0.0100 -1.8775
44783SOL     OW51958   9.250  10.046   2.864 -0.8747  0.6880 -0.0190
44783SOL    HW151959   9.163  10.015   2.890 -0.3162  0.0787  1.2320
44783SOL    HW251960   9.307   9.970   2.877  0.3495  1.8652  2.1205
44784SOL     OW51961   6.904   7.853  13.183 -0.1447 -0.0546 -0.2098
44784SOL    HW151962   6.839   7.917  13.155  0.4792  1.0341  0.7466
44784SOL    HW251963   6.897   7.852  13.279 -0.3034 -1.6046 -0.2227
44785SOL     OW51964   2.252   5.453   1.634 -0.3710 -0.1177 -0.1504
44785SOL    HW151965   2.252   5.515   1.707  0.4542 -2.3766  1.8852
44785SOL    HW251966   2.163   5.417   1.634 -0.3980 -0.0521 -0.3366
44786SOL     OW51967   8.488   6.011   2.186 -0.1509 -0.2457  0.1664
44786SOL    HW151968   8.411   6.055   2.222 -1.0516 -1.2339 -0.4761
44786SOL    HW251969   8.495   5.930   2.237 -1.2047 -1.4714 -1.5242
44787SOL     OW51970   5.640   0.507  12.464 -0.2143  0.1649  0.4785
44787SOL    HW151971   5.607   0.473  12.380 -0.9831 -0.4540  1.0076
44787SOL    HW251972   5.723   0.549  12.442  0.3993 -1.3859 -0.3588
44788SOL     OW51973  10.652  10.261  13.892  0.2426 -0.2245 -0.5703
44788SOL    HW151974  10.589  10.273  13.963  1.6919  0.9914  0.5657
44788SOL    HW251975  10.602  10.217  13.823 -1.6974  0.2359  0.4772
44789SOL     OW51976   4.668   5.331   8.699 -0.1274  0.3099  0.2138
44789SOL    HW151977   4.599   5.361   8.758 -2.0720 -0.4465 -1.5011
44789SOL    HW251978   4.656   5.384   8.620  0.1589 -0.9519 -0.7139
44790SOL     OW51979   0.777   1.714  12.096  0.0742 -0.1727  0.2716
44790SOL    HW151980   0.707   1.670  12.047 -0.2190 -3.1074  2.9765
44790SOL    HW251981   0.832   1.753  12.029 -2.1857 -0.8480 -2.1578
44791SOL     OW51982  13.339   0.812   5.017 -0.6370  0.0491 -0.6897
44791SOL    HW151983  13.426   0.834   4.982 -0.7111 -0.6546 -1.3513
44791SOL    HW251984  13.353   0.795   5.110 -0.2174  0.7600 -0.6140
44792SOL     OW51985   6.107   1.221   2.096 -0.1453  0.1085 -0.2744
44792SOL    HW151986   6.099   1.262   2.182 -0.3682  1.7251 -1.0334
44792SOL    HW251987   6.125   1.293   2.036  1.8861 -1.1941 -1.3555
44793SOL     OW51988  11.360  13.490   9.861  0.1488  0.7082 -0.2665
44793SOL    HW151989  11.286  13.433   9.880 -0.0284  0.5242 -1.4602
44793SOL    HW251990  11.429  13.461   9.920 -0.5230  0.4731  0.4182
44794SOL     OW51991   7.680  13.706   0.834 -0.1166 -0.2525 -0.0155
44794SOL    HW151992   7.765  13.666   0.849  0.0148 -0.0161 -0.1309
44794SOL    HW251993   7.693  13.764   0.759 -0.4733 -0.5072 -0.2809
44795SOL     OW51994   5.216   1.325  10.003  0.3330 -0.0853  0.1098
44795SOL    HW151995   5.304   1.289  10.009  0.7303  0.8621  0.0628
44795SOL    HW251996   5.176   1.305  10.087  0.1799 -1.5423 -0.2835
44796SOL     OW51997  10.302   6.946  12.228 -0.3099  0.5726 -0.2727
44796SOL    HW151998  10.397   6.956  12.226 -0.0478 -1.5124 -1.0310
44796SOL    HW251999  10.274   6.964  12.138 -0.7350  1.8700  0.1080
44797SOL     OW52000   6.618   9.821   6.802  0.3624 -0.3563 -0.2121
44797SOL    HW152001   6.569   9.799   6.882  0.6745  0.7807  0.3101
44797SOL    HW252002   6.576   9.900   6.769 -0.0721 -1.0878 -1.4707
44798SOL     OW52003   1.505   0.618   9.643 -0.4725  0.2049  0.7002
44798SOL    HW152004   1.518   0.525   9.662 -0.4907  0.2997  1.2025
44798SOL    HW252005   1.590   0.658   9.662  0.5785 -0.1600 -2.6676
44799SOL     OW52006   0.019   9.703   7.734  0.1999 -0.5379  0.4564
44799SOL    HW152007   0.014   9.665   7.646 -0.3905 -0.1473  0.3112
44799SOL    HW252008  -0.027   9.640   7.790  0.0149 -0.4817  0.3705
44800SOL     OW52009  13.225  11.707   1.869 -0.0587 -0.1293  0.0928
44800SOL    HW152010  13.147  11.761   1.880  0.1941  0.0390  1.1675
44800SOL    HW252011  13.285  11.760   1.817 -0.4646 -0.0598 -0.3073
44801SOL     OW52012   4.430   9.957  12.187 -0.0502 -0.0576 -0.0869
44801SOL    HW152013   4.370  10.032  12.183  1.7672  1.4229 -0.5712
44801SOL    HW252014   4.488   9.976  12.261 -0.0492 -1.3941  0.2774
44802SOL     OW52015   2.222   2.192   3.180 -0.3366  0.0847 -0.5047
44802SOL    HW152016   2.139   2.208   3.225  0.0869 -0.2332  0.4319
44802SOL    HW252017   2.288   2.203   3.248  0.4626  1.1493 -1.4187
44803SOL     OW52018   5.771   9.769   9.438 -0.4456  0.1758  0.1620
44803SOL    HW152019   5.753   9.839   9.501 -0.4534  1.0031 -0.7548
44803SOL    HW252020   5.689   9.758   9.391 -0.0939  0.3642 -0.4971
44804SOL     OW52021   6.922  13.094   4.098 -0.2877 -0.4649 -0.2898
44804SOL    HW152022   6.914  13.014   4.046 -2.8672  1.1450 -2.6730
44804SOL    HW252023   6.837  13.103   4.142 -0.2179  1.1147 -0.3945
44805SOL     OW52024   9.810   1.275   5.069 -0.1601  0.2592  0.2656
44805SOL    HW152025   9.749   1.227   5.125 -0.2038 -0.8926 -0.7298
44805SOL    HW252026   9.819   1.360   5.111  0.1291 -0.6933  2.2465
44806SOL     OW52027  10.845   5.954   8.572  0.0539  0.1324  0.1599
44806SOL    HW152028  10.896   6.003   8.508  0.4620 -0.6796 -0.1595
44806SOL    HW252029  10.906   5.889   8.607 -0.6708 -0.6910 -0.0463
44807SOL     OW52030   6.188   6.081  12.319  0.2763  0.2651 -0.3990
44807SOL    HW152031   6.189   6.031  12.238 -2.6153  0.8907 -0.9123
44807SOL    HW252032   6.126   6.152  12.303  1.5960  1.9655  1.4959
44808SOL     OW52033   3.533   2.606   3.288  0.6022 -0.5762 -0.2353
44808SOL    HW152034   3.522   2.529   3.232  2.7295 -0.2841 -1.1242
44808SOL    HW252035   3.519   2.573   3.376  2.3207 -2.2221 -0.5197
44809SOL     OW52036   7.875   3.455   6.786  0.0145 -0.1834 -0.7435
44809SOL    HW152037   7.962   3.463   6.827 -0.3180  1.8137 -0.3422
44809SOL    HW252038   7.853   3.544   6.758 -2.3584 -0.4385  0.0917
44810SOL     OW52039   3.764   1.066  13.958 -0.1181  0.2136  0.8209
44810SOL    HW152040   3.793   1.021  13.879  0.3820  1.1704  0.4446
44810SOL    HW252041   3.842   1.110  13.992 -0.6433  1.0310  1.0148
44811SOL     OW52042   8.579   2.859   3.262  0.1794  0.2014 -0.3848
44811SOL    HW152043   8.557   2.771   3.293  1.5537 -0.3565 -0.9127
44811SOL    HW252044   8.495   2.905   3.258 -0.4446 -0.7742  0.8305
44812SOL     OW52045  13.647   1.872   6.246  0.0122  0.3192  0.4065
44812SOL    HW152046  13.636   1.833   6.159 -1.0789 -0.3870  0.8415
44812SOL    HW252047  13.636   1.799   6.306 -0.5733  1.0373  1.1918
44813SOL     OW52048   1.352   4.646   3.189 -0.0278 -0.1242  0.4737
44813SOL    HW152049   1.306   4.702   3.252  0.4670  1.0130 -0.1480
44813SOL    HW252050   1.412   4.705   3.144 -0.5938 -0.8358 -1.3101
44814SOL     OW52051   3.942   9.507   2.522  0.3546 -0.1735  0.2947
44814SOL    HW152052   3.870   9.560   2.487  0.8550 -0.2935 -0.9766
44814SOL    HW252053   4.001   9.571   2.562  1.0506  0.3035 -1.3972
44815SOL     OW52054  13.139   3.490   4.850  0.0138  0.2270  0.8209
44815SOL    HW152055  13.052   3.490   4.889  0.3727 -0.8156  1.6751
44815SOL    HW252056  13.129   3.443   4.767  0.0440 -1.4012  1.6893
44816SOL     OW52057   7.090   9.342   8.524  0.1131 -0.5254 -0.0391
44816SOL    HW152058   7.132   9.313   8.443 -1.6304 -0.3064 -1.0687
44816SOL    HW252059   7.159   9.388   8.572  1.2471 -0.8856 -1.2710
44817SOL     OW52060   3.935   6.470   9.920  0.3531  0.3849 -0.1658
44817SOL    HW152061   3.840   6.471   9.916  0.2891 -2.0542 -1.3152
44817SOL    HW252062   3.957   6.518  10.001 -1.8644  0.3049  0.5409
44818SOL     OW52063   7.766   3.096  13.180  0.4921  0.3786 -0.1739
44818SOL    HW152064   7.821   3.137  13.114 -0.1241  0.1335 -0.8608
44818SOL    HW252065   7.781   3.147  13.259 -0.0634  1.8010 -0.9410
44819SOL     OW52066  11.233   9.191   1.449 -0.3489  0.0316  0.3891
44819SOL    HW152067  11.311   9.137   1.442  0.8421  1.8491 -1.2379
44819SOL    HW252068  11.165   9.141   1.403 -0.5031 -2.0374  2.7020
44820SOL     OW52069   2.266   2.958   5.694 -0.3368 -0.1290 -1.0081
44820SOL    HW152070   2.282   2.864   5.703  1.7540  0.2611  0.1663
44820SOL    HW252071   2.236   2.969   5.604 -0.5682 -1.9030 -1.1855
44821SOL     OW52072   6.697   7.582   5.290  0.3276 -0.1372 -0.0089
44821SOL    HW152073   6.752   7.648   5.334 -0.0234  1.2695 -1.5497
44821SOL    HW252074   6.670   7.523   5.359  0.5668  1.4211  1.4846
44822SOL     OW52075   5.299   3.173  10.649  0.2304 -0.5543 -0.5729
44822SOL    HW152076   5.329   3.096  10.600  1.0829 -0.7177  0.1683
44822SOL    HW252077   5.256   3.228  10.584  1.6790 -0.5845 -1.6019
44823SOL     OW52078   4.061   0.196   6.752 -0.2408 -0.1037 -0.4035
44823SOL    HW152079   4.141   0.215   6.703  0.4349  0.0494  0.7432
44823SOL    HW252080   4.050   0.271   6.810 -0.9444 -0.3525 -0.2099
44824SOL     OW52081   3.582  11.330   8.798  0.6939  0.4243  0.1844
44824SOL    HW152082   3.591  11.333   8.893  0.6752 -1.3612  0.2686
44824SOL    HW252083   3.531  11.251   8.781 -0.3482  1.3548 -1.2590
44825SOL     OW52084  12.484  10.190  10.168  0.4521 -0.5237  0.0963
44825SOL    HW152085  12.491  10.108  10.218  0.9243 -1.0591 -0.8156
44825SOL    HW252086  12.396  10.187  10.131 -0.1250  0.1664  1.3585
44826SOL     OW52087   8.335   6.486   4.281  0.0820 -0.2648 -0.1544
44826SOL    HW152088   8.246   6.521   4.287  0.0290 -0.1049 -1.5307
44826SOL    HW252089   8.327   6.393   4.302 -0.3299 -0.1531  0.1895
44827SOL     OW52090  13.041  12.061   8.895 -0.2281 -0.0925 -0.1071
44827SOL    HW152091  13.045  12.003   8.970  0.9638 -1.6982 -1.3330
44827SOL    HW252092  13.113  12.032   8.838 -0.2824  1.8796 -1.2917
44828SOL     OW52093  13.741   7.508   9.726 -0.1868 -0.5956  0.0980
44828SOL    HW152094  13.749   7.521   9.820 -0.3992  0.1452  0.0211
44828SOL    HW252095  13.658   7.461   9.715  0.2088 -1.3590  0.3285
44829SOL     OW52096   7.070   3.343   2.860  0.1634  0.0534 -0.0414
44829SOL    HW152097   7.150   3.320   2.814  0.4829 -1.9158  1.3354
44829SOL    HW252098   7.000   3.297   2.813  0.2539 -0.5555  0.4078
44830SOL     OW52099  13.613  11.852  12.053 -0.3245 -0.5852 -0.3913
44830SOL    HW152100  13.696  11.833  12.008 -0.8423 -2.7695 -0.4954
44830SOL    HW252101  13.624  11.814  12.140 -0.6692  0.4834  0.1380
44831SOL     OW52102   4.522   5.525  13.547  0.4740 -0.1620  0.0567
44831SOL    HW152103   4.446   5.491  13.498  0.4530  1.5556 -1.2065
44831SOL    HW252104   4.496   5.518  13.639 -1.4212  0.7583 -0.3591
44832SOL     OW52105   6.997   1.717  12.471  0.2073  0.6697  0.2718
44832SOL    HW152106   7.045   1.774  12.531 -0.1634  0.5657  0.6698
44832SOL    HW252107   6.923   1.769  12.441 -0.2112  0.3559  0.7463
44833SOL     OW52108   1.420   1.615  13.067 -0.4886 -0.1977  0.0686
44833SOL    HW152109   1.448   1.524  13.073  0.8084 -0.1193 -2.9777
44833SOL    HW252110   1.487   1.665  13.115  0.1261 -0.6624 -0.3026
44834SOL     OW52111  12.191   1.142  10.796  0.2841  0.4760 -0.0576
44834SOL    HW152112  12.276   1.106  10.823 -0.0962  0.9339  1.9634
44834SOL    HW252113  12.208   1.235  10.781  0.7450  0.0134 -2.7827
44835SOL     OW52114  11.201   3.676   4.378 -0.0061  0.0326 -0.1164
44835SOL    HW152115  11.254   3.733   4.433  0.1091 -1.4086  1.3437
44835SOL    HW252116  11.118   3.722   4.370  0.0704  0.4244  1.0727
44836SOL     OW52117   8.489   3.065   1.763  0.0396 -0.2638 -1.0743
44836SOL    HW152118   8.499   3.069   1.858 -2.7831  0.9221 -0.7420
44836SOL    HW252119   8.553   3.129   1.731  0.1495  0.2525  0.1080
44837SOL     OW52120  10.808   9.539   7.768  0.0779 -0.8855 -0.0848
44837SOL    HW152121  10.867   9.562   7.840  0.7717 -0.7387 -0.6937
44837SOL    HW252122  10.731   9.593   7.783  0.4949 -0.3517  0.1626
44838SOL     OW52123  13.723   8.883  10.961  0.2396 -0.0672 -0.5892
44838SOL    HW152124  13.786   8.888  10.889 -0.9637  1.0930 -1.6331
44838SOL    HW252125  13.772   8.909  11.038  0.6932  2.6200 -1.6636
44839SOL     OW52126   7.885   3.702  12.824 -0.3584 -0.0425 -0.2731
44839SOL    HW152127   7.969   3.746  12.811 -1.6578  2.1757 -1.9130
44839SOL    HW252128   7.903   3.609  12.810  1.8349  0.3460 -0.3466
44840SOL     OW52129   7.020   1.620   3.358 -0.1194  0.0249  0.2080
44840SOL    HW152130   7.089   1.686   3.363  0.5823 -0.6335 -0.4599
44840SOL    HW252131   6.972   1.630   3.440  0.4664  0.8249  0.4732
44841SOL     OW52132   7.841   9.157   4.730 -0.1563  0.2002 -0.0071
44841SOL    HW152133   7.932   9.139   4.752 -0.2876 -1.5437 -0.7210
44841SOL    HW252134   7.835   9.252   4.728  1.5244  0.3451  0.5285
44842SOL     OW52135  12.479   2.169   8.433 -0.5522  0.1677  0.3923
44842SOL    HW152136  12.549   2.234   8.444 -0.6867  0.4291 -0.2633
44842SOL    HW252137  12.401   2.222   8.416 -1.0493 -0.0891  1.7544
44843SOL     OW52138   1.713   2.580   1.874  0.1319 -0.1015  0.1859
44843SOL    HW152139   1.621   2.560   1.892  0.5718 -2.1941  0.3821
44843SOL    HW252140   1.719   2.580   1.779 -0.2937  1.4038  0.1228
44844SOL     OW52141   1.175  10.110   1.886 -0.2152  0.1430  0.4051
44844SOL    HW152142   1.130  10.048   1.944  0.1341  0.3417  0.9016
44844SOL    HW252143   1.118  10.118   1.810 -0.3109 -0.7066  0.3810
44845SOL     OW52144  11.014   9.056   4.442  0.3491  0.3185 -0.5890
44845SOL    HW152145  11.007   9.002   4.520  0.0565 -0.2802 -1.0206
44845SOL    HW252146  11.106   9.048   4.416  0.8430  1.8097  0.5889
44846SOL     OW52147   8.407   8.881   2.833 -0.4334  0.3406  0.2245
44846SOL    HW152148   8.429   8.960   2.782  0.2364 -0.5251 -0.8629
44846SOL    HW252149   8.418   8.908   2.924  3.0220  0.6180 -0.1626
44847SOL     OW52150   4.000   4.728  12.670  0.1042  0.4399 -0.3641
44847SOL    HW152151   4.030   4.673  12.598 -2.1091 -0.7272 -0.5047
44847SOL    HW252152   4.078   4.773  12.701  1.8273 -1.8689 -1.0632
44848SOL     OW52153   6.782   0.979   8.456 -0.3429 -0.4977  0.1943
44848SOL    HW152154   6.733   0.934   8.386  0.1923  2.1209 -2.0258
44848SOL    HW252155   6.871   0.945   8.449 -0.3394 -0.3980 -0.2722
44849SOL     OW52156   1.388   2.513  13.332  0.3028 -0.2192 -0.0439
44849SOL    HW152157   1.297   2.507  13.361 -0.1349  0.9144 -1.0942
44849SOL    HW252158   1.383   2.517  13.237  1.3646  0.9417 -0.0765
44850SOL     OW52159   3.203   6.363   0.909 -0.6900 -0.1376  0.1110
44850SOL    HW152160   3.130   6.386   0.852 -0.8082 -3.4478 -1.3430
44850SOL    HW252161   3.281   6.380   0.856 -0.4874  1.4095  0.8713
44851SOL     OW52162   5.329  12.706   2.687  0.5772  0.0828  0.6940
44851SOL    HW152163   5.356  12.791   2.652 -0.8601  0.7266  1.0968
44851SOL    HW252164   5.258  12.677   2.631 -1.4892  0.9389  2.7028
44852SOL     OW52165   4.573  13.185   4.566  0.1578  0.7689  0.2982
44852SOL    HW152166   4.497  13.196   4.510  0.2015  1.4742  0.3707
44852SOL    HW252167   4.553  13.238   4.644  0.9339  1.3638  0.1011
44853SOL     OW52168   7.745   2.109   4.888 -0.3632  0.4492  0.0137
44853SOL    HW152169   7.743   2.180   4.823  0.0801  0.7426  0.3133
44853SOL    HW252170   7.672   2.128   4.947 -1.3216 -0.3001 -0.8840
44854SOL     OW52171   3.677   5.712   9.303  0.3955  0.5456 -0.1380
44854SOL    HW152172   3.597   5.660   9.303  1.2307 -0.7904 -0.1130
44854SOL    HW252173   3.701   5.721   9.211  1.4739 -1.1432 -0.0752
44855SOL     OW52174   5.826   8.137   4.314  0.3620 -0.1706 -0.0519
44855SOL    HW152175   5.793   8.192   4.243  2.1253  1.1410  0.0890
44855SOL    HW252176   5.801   8.048   4.289 -2.2248  0.5967 -0.4912
44856SOL     OW52177  10.324   4.846   1.140  0.3463 -0.3437 -0.4671
44856SOL    HW152178  10.304   4.907   1.069  0.9093 -1.2057 -1.3933
44856SOL    HW252179  10.271   4.877   1.214  1.3706  1.8953 -0.5694
44857SOL     OW52180   5.625  13.814   9.550 -0.2483 -0.1321 -0.3515
44857SOL    HW152181   5.617  13.839   9.642  0.7779  0.6429 -0.4589
44857SOL    HW252182   5.629  13.897   9.503 -2.0533 -0.5097 -1.2462
44858SOL     OW52183   7.884   8.731  11.544  0.0552 -0.4083  0.3737
44858SOL    HW152184   7.970   8.737  11.584  1.1145  0.4079 -1.8867
44858SOL    HW252185   7.856   8.822  11.531 -1.4674 -0.6429  1.6323
44859SOL     OW52186   8.850   2.392  11.417 -0.2108 -0.0625  0.3352
44859SOL    HW152187   8.931   2.443  11.421 -0.3366  0.2480 -0.7423
44859SOL    HW252188   8.793   2.441  11.358 -0.7973 -0.8173  0.2491
44860SOL     OW52189  12.146   0.315   9.118  0.2367  0.7780  0.2838
44860SOL    HW152190  12.216   0.380   9.113 -0.5136  1.5777  0.0870
44860SOL    HW252191  12.126   0.294   9.026  0.2104  0.5622  0.3376
44861SOL     OW52192   6.622   8.939   0.749 -0.0037  0.0884  0.6817
44861SOL    HW152193   6.625   8.848   0.718 -2.2622  0.5952 -1.3830
44861SOL    HW252194   6.560   8.937   0.822  0.4313 -0.1161  1.0493
44862SOL     OW52195   8.723   5.706   1.879 -0.2139  0.4049  0.2046
44862SOL    HW152196   8.723   5.679   1.787  1.7275  1.0724 -0.0367
44862SOL    HW252197   8.748   5.627   1.927 -2.9159 -0.4369  0.4143
44863SOL     OW52198   3.471  13.036   8.606 -1.0565 -0.1345  0.2441
44863SOL    HW152199   3.526  12.965   8.572  0.0989  0.2789  1.2006
44863SOL    HW252200   3.493  13.041   8.699  0.9168  3.2088 -0.2464
44864SOL     OW52201  12.465   3.480   8.122  0.1480  0.4447 -0.1586
44864SOL    HW152202  12.490   3.414   8.057  1.0065 -0.5680  1.1566
44864SOL    HW252203  12.520   3.555   8.101  3.7071 -1.3121  1.8958
44865SOL     OW52204   2.469   6.196   3.711 -0.7017  0.0840  0.1359
44865SOL    HW152205   2.374   6.206   3.716 -1.0103  0.4303 -3.7700
44865SOL    HW252206   2.483   6.102   3.723 -1.6276 -0.1007 -0.1187
44866SOL     OW52207   6.984   2.389  13.915  0.1904 -0.2498  0.2779
44866SOL    HW152208   6.939   2.444  13.851 -1.1953 -2.0641 -0.3857
44866SOL    HW252209   7.061   2.440  13.940 -0.3110  1.3916 -1.2960
44867SOL     OW52210   4.785  10.112   1.256 -0.0504 -0.1656  0.0349
44867SOL    HW152211   4.783  10.123   1.351  2.1196 -0.6065  0.1660
44867SOL    HW252212   4.878  10.111   1.233 -0.5126 -0.6774 -2.0345
44868SOL     OW52213   0.031  13.198   5.139 -0.0238  0.0700 -0.4612
44868SOL    HW152214  -0.026  13.257   5.090 -1.5523 -0.4337  0.6315
44868SOL    HW252215   0.019  13.112   5.098 -0.8684 -0.2354  0.3611
44869SOL     OW52216   1.863   6.027   2.717  0.8506 -0.0372  0.1358
44869SOL    HW152217   1.809   6.081   2.660 -1.2070 -3.3485 -1.3615
44869SOL    HW252218   1.803   5.997   2.785  1.2750 -2.0288 -0.2956
44870SOL     OW52219   9.858   4.209   2.022  0.1792  0.7851 -0.0750
44870SOL    HW152220   9.948   4.182   2.046  0.1148 -0.4424 -1.1156
44870SOL    HW252221   9.856   4.303   2.040  1.2111  0.5712  1.3776
44871SOL     OW52222   0.395  11.077   4.835  0.1597  0.3820  0.2419
44871SOL    HW152223   0.446  11.149   4.873  3.2911 -0.2909 -2.2597
44871SOL    HW252224   0.460  11.018   4.798 -2.4350 -1.7917 -1.2236
44872SOL     OW52225   1.427  12.217  10.012 -0.0555  0.2137  0.3943
44872SOL    HW152226   1.349  12.163  10.000  0.0744  0.1598 -0.2667
44872SOL    HW252227   1.491  12.158  10.051  0.8091 -0.7900 -2.3193
44873SOL     OW52228   2.737  11.625   4.868 -0.7929  0.3500 -0.0216
44873SOL    HW152229   2.746  11.618   4.773 -0.6553 -0.4213  0.0383
44873SOL    HW252230   2.660  11.572   4.888 -0.6664  0.2969  0.3237
44874SOL     OW52231   5.008   0.456  12.020  0.1474 -0.0379  0.2725
44874SOL    HW152232   4.914   0.438  12.027  0.0712 -0.6740 -1.7377
44874SOL    HW252233   5.024   0.523  12.086 -2.0030  1.0758 -0.2287
44875SOL     OW52234   1.581   9.278   8.705  0.0589 -0.0856  0.2432
44875SOL    HW152235   1.619   9.303   8.789  0.4898  1.2631 -0.3168
44875SOL    HW252236   1.564   9.184   8.712  0.9508 -0.1684  1.4928
44876SOL     OW52237   0.114   1.053   0.660  0.1249 -0.1393  0.2025
44876SOL    HW152238   0.186   1.109   0.633  0.0625 -0.0490  0.2234
44876SOL    HW252239   0.156   0.979   0.705  0.1488  0.4568  1.2007
44877SOL     OW52240   5.551   7.449   9.271 -0.1211 -0.2705  0.4199
44877SOL    HW152241   5.545   7.424   9.363  3.7739 -0.0580  0.8910
44877SOL    HW252242   5.549   7.545   9.272  1.4408 -0.2167  0.5160
44878SOL     OW52243   3.070   5.928   6.384 -0.3536  0.1416  0.0425
44878SOL    HW152244   2.998   5.887   6.337  1.5634 -1.6651 -1.5296
44878SOL    HW252245   3.148   5.904   6.335  1.2893  2.8432  1.0899
44879SOL     OW52246   6.457  10.932   3.787 -0.4215 -0.3423 -0.0961
44879SOL    HW152247   6.396  10.919   3.714  0.0382  0.1285 -0.5658
44879SOL    HW252248   6.480  10.843   3.814 -0.9647 -0.5237 -0.2089
44880SOL     OW52249   6.943   1.253  12.303  0.3660 -0.4743  0.2299
44880SOL    HW152250   6.938   1.338  12.347 -0.8693 -2.4375  4.4383
44880SOL    HW252251   6.855   1.216  12.314  0.6798 -2.0793 -2.0805
44881SOL     OW52252   4.967   4.374   9.312  0.1360 -0.1940 -0.0324
44881SOL    HW152253   5.025   4.451   9.317  0.6088 -0.5646  0.3014
44881SOL    HW252254   4.981   4.341   9.223 -1.2566  1.0012 -0.7407
44882SOL     OW52255   8.014   0.675   2.383  0.0011 -0.0195 -0.3266
44882SOL    HW152256   7.997   0.592   2.427 -1.8097  0.8051  0.6621
44882SOL    HW252257   8.059   0.651   2.302  1.0483 -1.7934  0.7226
44883SOL     OW52258   7.858  10.553   7.340 -0.0807 -0.2169 -0.2016
44883SOL    HW152259   7.904  10.533   7.422 -1.2076  0.0637  0.5236
44883SOL    HW252260   7.796  10.622   7.363 -2.2121 -1.8664 -0.6647
44884SOL     OW52261   1.261   5.789   7.452 -0.1582 -0.5453 -0.3628
44884SOL    HW152262   1.232   5.880   7.459  0.6850 -0.2689 -0.4218
44884SOL    HW252263   1.343   5.793   7.404  1.3089 -1.0476  1.9223
44885SOL     OW52264   7.848   2.636  11.823 -0.6603 -0.2671  0.4712
44885SOL    HW152265   7.822   2.652  11.914  2.4234  2.1683  1.0777
44885SOL    HW252266   7.793   2.695  11.771 -0.1015  0.8951  1.1598
44886SOL     OW52267   8.583   8.769   2.472 -0.3093  0.1661 -0.5570
44886SOL    HW152268   8.541   8.689   2.504 -1.6266  1.0961  0.1376
44886SOL    HW252269   8.604   8.750   2.380 -0.6146 -0.9611 -0.4059
44887SOL     OW52270   6.220   9.351  12.964 -0.7090 -0.1085 -0.8424
44887SOL    HW152271   6.138   9.344  13.013 -0.1812  0.6074  0.1605
44887SOL    HW252272   6.278   9.401  13.021  0.1224  0.2137 -1.9397
44888SOL     OW52273  12.451   2.968   9.769 -0.3153 -0.2250  0.6802
44888SOL    HW152274  12.416   2.949   9.857 -0.2189  0.7480  0.9432
44888SOL    HW252275  12.545   2.976   9.782 -0.2419 -0.6174  0.3867
44889SOL     OW52276  11.910   6.479   0.972  0.6631 -0.3610 -0.3314
44889SOL    HW152277  11.825   6.457   1.009  0.1479  1.5290 -0.2935
44889SOL    HW252278  11.890   6.523   0.889  1.3945  2.3940  0.8192
44890SOL     OW52279   4.580  12.001  10.899 -0.0525 -0.4660 -0.5681
44890SOL    HW152280   4.528  11.927  10.931 -0.1201 -0.4441 -0.6261
44890SOL    HW252281   4.520  12.075  10.901 -0.0728 -0.4760 -0.7967
44891SOL     OW52282   9.290   6.675  10.203 -0.0055 -0.4122 -0.0295
44891SOL    HW152283   9.350   6.748  10.222  0.5539 -0.7832 -0.3319
44891SOL    HW252284   9.322   6.640  10.120  0.2647 -1.5537  0.5368
44892SOL     OW52285   3.795   2.285   9.924 -0.5578 -0.1965  0.4158
44892SOL    HW152286   3.726   2.219   9.934  0.3872 -1.1513  0.8047
44892SOL    HW252287   3.814   2.314  10.014 -0.3503 -0.0329  0.3197
44893SOL     OW52288   2.067   0.849   8.592 -0.5933 -0.6040 -0.2007
44893SOL    HW152289   1.982   0.845   8.549 -0.0124 -0.3255 -1.3975
44893SOL    HW252290   2.124   0.894   8.530  0.1970  0.0977  0.9877
44894SOL     OW52291   3.180   7.602  12.707 -0.0970 -0.6223 -0.1559
44894SOL    HW152292   3.162   7.628  12.798 -0.0616  0.2703 -0.3889
44894SOL    HW252293   3.273   7.620  12.696  0.1712 -1.8783 -0.0141
44895SOL     OW52294   8.927  14.055   0.370 -0.0882 -0.4489 -0.5504
44895SOL    HW152295   8.834  14.075   0.355  0.3979  2.0333 -0.6622
44895SOL    HW252296   8.963  14.040   0.283  0.1523  1.3818 -0.7960
44896SOL     OW52297  12.007   2.457  12.304 -0.5268  0.4164 -0.4902
44896SOL    HW152298  12.052   2.413  12.232  0.1654  1.3164 -0.6280
44896SOL    HW252299  11.917   2.468  12.273 -0.2940  0.5843 -1.1313
44897SOL     OW52300   3.106   5.422   1.947  0.4990 -0.4424 -0.1291
44897SOL    HW152301   3.135   5.462   1.865 -1.4902  1.3443 -0.0619
44897SOL    HW252302   3.114   5.492   2.012  0.4796 -1.3224  0.8433
44898SOL     OW52303   2.922  12.362   4.946 -0.7670 -0.0579 -0.6336
44898SOL    HW152304   2.934  12.360   4.851  1.7595  0.8106 -0.4058
44898SOL    HW252305   2.861  12.434   4.961  0.5168  1.2641 -1.5104
44899SOL     OW52306  10.538  10.715   9.322  0.0630  0.2172 -0.0216
44899SOL    HW152307  10.539  10.664   9.241  1.4589 -1.1292  0.7775
44899SOL    HW252308  10.455  10.691   9.364 -0.3276  0.3544 -0.7033
44900SOL     OW52309   1.397  12.816   4.480  0.5159  0.2012  0.6020
44900SOL    HW152310   1.398  12.875   4.555  1.3345  0.0609  0.7094
44900SOL    HW252311   1.316  12.767   4.489  1.0284 -0.4651  1.9081
44901SOL     OW52312  12.663  12.965  11.757  0.6088  0.5451 -0.2395
44901SOL    HW152313  12.633  13.039  11.810  0.8584  1.5946 -1.5107
44901SOL    HW252314  12.587  12.941  11.704  0.9277  0.8499 -0.8548
44902SOL     OW52315   2.594  13.964  11.869  0.3967 -0.0879 -0.5327
44902SOL    HW152316   2.613  14.009  11.952  2.6685  0.7013 -1.3918
44902SOL    HW252317   2.648  14.010  11.805 -1.5369 -0.4938 -2.5373
44903SOL     OW52318   6.985   2.281   7.970 -0.1815 -0.3553  0.5881
44903SOL    HW152319   7.064   2.229   7.960 -0.8847 -1.1699 -1.1704
44903SOL    HW252320   6.919   2.219   8.002 -0.7762 -0.3774 -0.5985
44904SOL     OW52321  10.596  13.031  10.324 -0.2334 -0.4177  0.3091
44904SOL    HW152322  10.528  13.026  10.391  0.1375  1.1242  0.8536
44904SOL    HW252323  10.555  12.998  10.245 -1.2308 -0.6394  0.9039
44905SOL     OW52324   3.397   4.968   6.029  0.0179 -0.2696 -0.4517
44905SOL    HW152325   3.418   5.028   6.100  0.9683  0.8136 -1.5888
44905SOL    HW252326   3.471   4.907   6.026 -0.1569 -0.4883 -0.3329
44906SOL     OW52327  12.349   5.143  11.611 -0.2499 -0.2256 -0.0925
44906SOL    HW152328  12.308   5.057  11.627  1.4820 -1.1564 -0.4533
44906SOL    HW252329  12.402   5.130  11.532 -1.0759  1.6074 -1.0173
44907SOL     OW52330   8.834   1.804   9.045 -0.2664 -0.4291 -0.6033
44907SOL    HW152331   8.818   1.768   9.132  0.0655 -0.9389 -0.7521
44907SOL    HW252332   8.830   1.899   9.058  1.7763 -0.4158  0.3783
44908SOL     OW52333   3.600   0.670   5.713 -0.1865  0.0438  0.2759
44908SOL    HW152334   3.587   0.712   5.798  0.6436  1.9735 -0.4948
44908SOL    HW252335   3.530   0.606   5.707 -0.5546  0.2017  2.1983
44909SOL     OW52336  12.611   9.034   5.217 -0.4537 -0.9199  0.5522
44909SOL    HW152337  12.531   9.002   5.258 -1.4434  0.0943 -0.4955
44909SOL    HW252338  12.667   9.060   5.290 -0.9503 -1.9043  1.3119
44910SOL     OW52339  13.706   9.062  10.173  0.0359  0.1009  0.1720
44910SOL    HW152340  13.699   8.973  10.209  2.2080  0.3529  1.4744
44910SOL    HW252341  13.797   9.086  10.190 -0.5455  2.6502 -0.0040
44911SOL     OW52342  12.879   1.304   2.135 -0.1686  0.3307 -0.1254
44911SOL    HW152343  12.839   1.241   2.194  1.1407 -1.0648 -0.6649
44911SOL    HW252344  12.903   1.378   2.191 -0.5061 -0.2249  0.7699
44912SOL     OW52345   1.113   4.732  10.144 -0.2239 -0.1027  0.5314
44912SOL    HW152346   1.084   4.714  10.234  1.7517 -0.5455  1.1293
44912SOL    HW252347   1.104   4.827  10.135 -0.9209 -0.1154  1.0107
44913SOL     OW52348   2.533   6.426   4.980 -0.1188 -0.3053  0.1391
44913SOL    HW152349   2.540   6.480   4.902 -1.0763 -0.8490 -0.3457
44913SOL    HW252350   2.491   6.483   5.045 -0.5537 -0.2651 -0.1734
44914SOL     OW52351   7.997   6.941   8.454  0.1060  0.0567 -0.7829
44914SOL    HW152352   8.069   6.895   8.410  1.2233  0.4723  0.5480
44914SOL    HW252353   7.981   6.890   8.533 -0.3330  0.5669 -0.5359
44915SOL     OW52354   0.323   9.138   8.513  0.1333 -0.1435  0.0729
44915SOL    HW152355   0.326   9.178   8.600 -0.2173 -1.3544  0.6501
44915SOL    HW252356   0.337   9.045   8.528  2.2570 -0.1261 -1.3717
44916SOL     OW52357   7.269  14.054  10.215  0.9156  0.2039  0.2121
44916SOL    HW152358   7.221  14.136  10.230  1.1496 -0.0084  2.4340
44916SOL    HW252359   7.228  14.017  10.137  0.0379  1.8761 -0.1800
44917SOL     OW52360   2.863  11.440   5.694 -0.1323  0.0646  0.2457
44917SOL    HW152361   2.864  11.488   5.777  0.2497 -0.8278  0.7719
44917SOL    HW252362   2.952  11.409   5.684 -0.7685 -2.0959  0.8615
44918SOL     OW52363   8.871   2.752   3.160 -0.1986  0.0572  0.0029
44918SOL    HW152364   8.881   2.836   3.204 -0.7471 -0.9749  2.2563
44918SOL    HW252365   8.961   2.721   3.147  0.0164  1.1231 -1.1864
44919SOL     OW52366   4.716   1.229   4.908 -0.1553 -0.5653 -0.2614
44919SOL    HW152367   4.688   1.318   4.926 -1.3589 -1.1134  0.7062
44919SOL    HW252368   4.730   1.190   4.994 -1.6795 -1.9219 -0.5749
44920SOL     OW52369  11.490  14.051   1.446 -0.5550  0.1698  0.8517
44920SOL    HW152370  11.578  14.022   1.469 -1.0773 -1.4292  0.9821
44920SOL    HW252371  11.498  14.087   1.358 -0.2939 -3.1078 -0.6186
44921SOL     OW52372   4.665   4.716   1.995  0.3458 -0.0864  0.2606
44921SOL    HW152373   4.756   4.746   1.994  0.0893  0.7140 -0.4551
44921SOL    HW252374   4.671   4.623   1.969  0.9734 -0.1046  0.4449
44922SOL     OW52375  12.985  11.493   2.197 -0.1038 -0.8555 -0.5167
44922SOL    HW152376  12.922  11.555   2.161  0.2663  0.6232  1.2351
44922SOL    HW252377  13.004  11.433   2.125 -1.2879  0.4191 -1.9516
44923SOL     OW52378   3.123  11.972   3.749 -0.4420  0.0121 -0.3087
44923SOL    HW152379   3.159  11.887   3.727  1.5124  0.4414  0.9425
44923SOL    HW252380   3.114  11.971   3.844 -1.2249  0.9058 -0.3528
44924SOL     OW52381  12.123   4.184   8.645 -0.0122 -0.3085 -0.1872
44924SOL    HW152382  12.215   4.188   8.619  1.0429  1.8935  3.2459
44924SOL    HW252383  12.097   4.275   8.657 -2.4092 -0.9166 -0.2523
44925SOL     OW52384   4.453   2.975   2.518  0.5441 -0.0635  0.1397
44925SOL    HW152385   4.436   3.026   2.439 -1.4859 -1.3321 -0.3069
44925SOL    HW252386   4.452   3.039   2.589 -0.5125  0.7243 -0.5617
44926SOL     OW52387   5.464  10.544   2.960  0.5329  0.2067  0.3035
44926SOL    HW152388   5.395  10.527   2.896  1.0522  0.9941 -0.4909
44926SOL    HW252389   5.504  10.458   2.975  0.2566 -0.0257 -0.2525
44927SOL     OW52390   8.074  13.334   3.540  0.6695 -0.1561  0.1982
44927SOL    HW152391   8.139  13.296   3.481 -1.5189 -2.6719 -0.7720
44927SOL    HW252392   8.005  13.367   3.483  0.4463  1.2636  1.2368
44928SOL     OW52393   2.712   1.196   4.698 -0.1606  0.5960 -0.0867
44928SOL    HW152394   2.804   1.200   4.671  0.0876 -0.2134  0.5991
44928SOL    HW252395   2.664   1.231   4.624  0.6180 -0.1564 -0.9750
44929SOL     OW52396  11.986   7.489   0.696 -0.2629 -0.1537  0.0872
44929SOL    HW152397  11.924   7.425   0.661 -0.2130  0.8399 -2.0418
44929SOL    HW252398  12.070   7.464   0.657 -0.0756  0.6429 -0.0331
44930SOL     OW52399   9.952   3.330   3.911 -0.3774  0.2504  0.1087
44930SOL    HW152400   9.888   3.380   3.961 -1.5978 -1.7891  0.6762
44930SOL    HW252401   9.930   3.349   3.819 -0.4759  1.1226  0.2960
44931SOL     OW52402  13.147   3.379   1.713  0.3301 -0.5454 -0.0573
44931SOL    HW152403  13.078   3.421   1.764  1.1787  0.4462  0.2881
44931SOL    HW252404  13.106   3.358   1.629 -0.5139 -0.3907  0.3128
44932SOL     OW52405  10.106  12.025   9.152 -0.1892  0.5081  0.0836
44932SOL    HW152406  10.127  12.105   9.200 -2.2294  0.2796  1.4979
44932SOL    HW252407  10.155  11.957   9.197  3.5414  1.1377 -2.6272
44933SOL     OW52408   0.794  13.847   3.906  0.2287  0.2939 -0.4515
44933SOL    HW152409   0.740  13.923   3.881 -0.0271  0.5759  0.8699
44933SOL    HW252410   0.774  13.781   3.840 -2.1593  0.2072  0.2392
44934SOL     OW52411   3.627  11.833   7.784  0.1464 -0.4961  0.4157
44934SOL    HW152412   3.700  11.882   7.748  0.3693  0.1418  1.6651
44934SOL    HW252413   3.585  11.893   7.846 -0.6929 -1.2601  0.6252
44935SOL     OW52414   7.696  10.250   5.555 -0.4822 -0.0789 -0.1735
44935SOL    HW152415   7.721  10.245   5.462 -0.9160 -0.2050 -0.2838
44935SOL    HW252416   7.698  10.158   5.584  1.2957  0.0887  0.3869
44936SOL     OW52417   5.300   7.942   2.030 -0.1709  0.2392  0.5744
44936SOL    HW152418   5.220   7.973   1.987 -0.5874 -1.6766 -0.1103
44936SOL    HW252419   5.362   7.928   1.958  0.2450  0.1613  0.9416
44937SOL     OW52420   8.599   2.454   0.546 -0.2831 -0.2399  0.6657
44937SOL    HW152421   8.633   2.401   0.474  0.1839  0.9790 -0.0490
44937SOL    HW252422   8.515   2.487   0.514  0.8355  1.9885 -0.2511
44938SOL     OW52423   7.537   0.617   3.303 -0.6396 -0.0479  0.2420
44938SOL    HW152424   7.582   0.544   3.262 -1.4620 -1.2440  1.4072
44938SOL    HW252425   7.572   0.695   3.258  0.4659 -1.1093 -0.8081
44939SOL     OW52426   2.346  13.229   4.029 -0.0085 -0.3152 -0.7749
44939SOL    HW152427   2.351  13.253   4.122  2.6433 -0.0323 -0.9109
44939SOL    HW252428   2.263  13.267   3.999 -0.3911  0.5462  1.2144
44940SOL     OW52429   6.855  10.542   2.630 -0.2706  0.1243 -0.6821
44940SOL    HW152430   6.797  10.525   2.556 -1.0487  1.2627 -0.3573
44940SOL    HW252431   6.819  10.620   2.671  0.8269  0.1763  0.2227
44941SOL     OW52432  12.059  10.142   0.937  0.1122 -0.4367 -0.5463
44941SOL    HW152433  12.032  10.178   0.853 -1.0233  2.3566  0.8988
44941SOL    HW252434  12.151  10.119   0.925  0.2475  0.8344 -2.2507
44942SOL     OW52435  11.910  10.238  11.295  0.5260  0.3304 -0.0446
44942SOL    HW152436  11.892  10.260  11.204  0.4609  0.3922 -0.0167
44942SOL    HW252437  11.824  10.216  11.332  0.4813  0.8233  0.1429
44943SOL     OW52438   8.526   3.432   3.703  0.3944  0.2243 -0.8465
44943SOL    HW152439   8.522   3.358   3.763 -1.0977 -0.9929 -2.3464
44943SOL    HW252440   8.596   3.408   3.641 -1.5287 -1.0971 -2.6546
44944SOL     OW52441   5.671  10.705   5.597 -0.6406 -0.3148  0.3003
44944SOL    HW152442   5.616  10.693   5.675 -0.0935 -1.5281  0.5313
44944SOL    HW252443   5.742  10.642   5.609 -0.8920 -0.9785 -1.4890
44945SOL     OW52444   3.577  10.466   5.786  0.3568  0.2066  0.1660
44945SOL    HW152445   3.496  10.490   5.832 -0.1842 -0.5114 -0.3915
44945SOL    HW252446   3.614  10.550   5.759  0.8486  0.6866  2.1418
44946SOL     OW52447   1.181  12.608   4.569 -0.1110 -0.3363  0.3570
44946SOL    HW152448   1.107  12.623   4.628 -0.8234  1.3315 -0.8934
44946SOL    HW252449   1.144  12.556   4.497  0.4155 -1.1376  0.6497
44947SOL     OW52450  10.495  11.351  12.945  0.0037  0.3638 -0.1649
44947SOL    HW152451  10.412  11.318  12.979  0.5695 -0.5277  0.3598
44947SOL    HW252452  10.470  11.399  12.866 -0.9324 -0.5136 -0.4224
44948SOL     OW52453  10.133   4.495  13.578 -0.2502  0.0881 -0.2975
44948SOL    HW152454  10.225   4.507  13.603 -0.3166  2.8745 -1.0999
44948SOL    HW252455  10.131   4.410  13.535  1.2342 -1.6016  2.6703
44949SOL     OW52456   3.675  11.469   2.725  0.7751 -0.2545  0.2115
44949SOL    HW152457   3.606  11.488   2.662 -0.1022 -1.7950  0.6598
44949SOL    HW252458   3.756  11.472   2.674  0.4806  1.9986 -0.2321
44950SOL     OW52459   7.083  13.056   0.604  0.3102 -0.5990 -0.2465
44950SOL    HW152460   7.018  12.991   0.631  0.4243  0.5404  3.1801
44950SOL    HW252461   7.035  13.114   0.544 -1.2026 -1.0780  0.4479
44951SOL     OW52462   6.414   2.599   6.412  0.0904  0.0094  0.3622
44951SOL    HW152463   6.440   2.683   6.375  3.1532 -0.9727  0.0200
44951SOL    HW252464   6.465   2.592   6.493  0.2429 -1.7038  0.1524
44952SOL     OW52465   3.500   0.848   7.411  0.3634  0.3285 -0.1748
44952SOL    HW152466   3.440   0.776   7.390  2.1581 -1.0902 -0.7815
44952SOL    HW252467   3.467   0.923   7.361  1.2076 -1.4219 -3.7556
44953SOL     OW52468   3.710   4.332   2.943 -0.2678  0.1567 -0.3425
44953SOL    HW152469   3.621   4.360   2.923 -0.0327 -0.1396 -1.9457
44953SOL    HW252470   3.700   4.270   3.015 -1.3962 -0.1914 -0.7732
44954SOL     OW52471   4.032   0.913   0.332 -0.5995  0.1142 -0.0004
44954SOL    HW152472   4.087   0.850   0.285 -1.5804 -0.0028 -1.0565
44954SOL    HW252473   3.973   0.858   0.384 -0.7923  0.1842 -0.1434
44955SOL     OW52474   9.708   2.984   0.360 -0.3850 -0.3690 -0.6072
44955SOL    HW152475   9.754   2.925   0.300  1.4997  1.2494 -0.8442
44955SOL    HW252476   9.720   2.943   0.446  1.1038 -0.2478 -0.7358
44956SOL     OW52477   2.336   3.215   2.556 -0.3181 -0.0626 -0.1204
44956SOL    HW152478   2.415   3.210   2.609  0.1621 -1.7411 -0.9549
44956SOL    HW252479   2.358   3.277   2.486  0.4129 -0.8425 -0.5913
44957SOL     OW52480   3.498   6.773   2.752 -0.5781 -0.1373 -0.2206
44957SOL    HW152481   3.532   6.812   2.672 -1.4623  0.8180 -0.1556
44957SOL    HW252482   3.522   6.835   2.821  0.0725 -0.8940  0.2454
44958SOL     OW52483   5.924   6.343  13.447 -0.0614 -0.4322  0.1746
44958SOL    HW152484   6.002   6.302  13.409 -0.9094 -0.8400 -1.1736
44958SOL    HW252485   5.856   6.276  13.441 -0.8658  0.3727  0.1051
44959SOL     OW52486   7.012   1.084   5.784  0.4580 -0.4085 -0.5384
44959SOL    HW152487   7.047   1.053   5.700  1.2924 -0.8977 -0.0231
44959SOL    HW252488   7.053   1.028   5.850 -0.6905 -0.4596  0.1656
44960SOL     OW52489   1.381   9.434   3.777 -0.1416  0.1903  0.2638
44960SOL    HW152490   1.353   9.347   3.750 -2.0969  1.2557 -1.4088
44960SOL    HW252491   1.463   9.449   3.731 -0.2967 -0.4122 -0.2180
44961SOL     OW52492   4.014   4.743   8.001 -0.3461 -0.5580 -0.4621
44961SOL    HW152493   3.930   4.716   7.962 -0.2157 -0.6734 -0.6619
44961SOL    HW252494   4.032   4.675   8.067 -0.9018 -0.0055  0.2822
44962SOL     OW52495   8.787   1.219   1.121 -0.2256  0.7991 -0.1432
44962SOL    HW152496   8.818   1.128   1.123  0.0313  0.8850 -0.1577
44962SOL    HW252497   8.728   1.223   1.046  0.1760  0.7770 -0.4604
44963SOL     OW52498   2.585   4.999  12.992 -0.1743  0.5924  0.0375
44963SOL    HW152499   2.504   4.981  13.038  0.0841 -1.0275 -0.1057
44963SOL    HW252500   2.577   4.955  12.907  0.3148  1.5534 -0.5409
44964SOL     OW52501   7.469   0.498   0.718  0.3425  0.9635 -0.0209
44964SOL    HW152502   7.376   0.479   0.710 -0.0507 -0.1276  4.5143
44964SOL    HW252503   7.511   0.439   0.655 -1.9237  0.5625 -1.2474
44965SOL     OW52504  12.511  12.919  11.373 -0.0554  0.3479 -0.0919
44965SOL    HW152505  12.466  12.930  11.289 -1.3838 -0.2915  0.5000
44965SOL    HW252506  12.556  12.835  11.366  1.1513  1.0231 -0.7129
44966SOL     OW52507   4.955   6.476  10.287 -0.0302 -0.0085  0.0025
44966SOL    HW152508   5.001   6.488  10.370  0.1215  2.9654 -0.3852
44966SOL    HW252509   5.025   6.458  10.224  0.1553  0.3800  0.0944
44967SOL     OW52510   2.997   1.682  12.609  0.0420  0.0981  0.2755
44967SOL    HW152511   3.022   1.741  12.537  0.6857 -0.6580 -0.1387
44967SOL    HW252512   2.929   1.729  12.656  0.8474  1.3704  0.2149
44968SOL     OW52513  12.477   8.427   2.740  0.5355  0.1227 -0.1030
44968SOL    HW152514  12.451   8.443   2.649  1.5162 -2.8008 -1.0467
44968SOL    HW252515  12.544   8.493   2.758  1.1405  0.0853 -1.9451
44969SOL     OW52516   6.792   6.271   3.448  0.0089  0.4083 -0.8068
44969SOL    HW152517   6.700   6.279   3.419  0.7063  1.2218 -3.0453
44969SOL    HW252518   6.831   6.356   3.426  1.3153  0.0705  0.1050
44970SOL     OW52519   6.704   6.679   5.545 -0.5390 -0.5725 -0.1844
44970SOL    HW152520   6.710   6.729   5.626  0.5415 -0.0768 -0.5493
44970SOL    HW252521   6.776   6.712   5.491 -0.2296 -2.0197 -0.7135
44971SOL     OW52522   3.257  13.881  13.501  0.4097 -0.2748  0.0085
44971SOL    HW152523   3.329  13.842  13.550  1.4228  0.7084 -0.6615
44971SOL    HW252524   3.274  13.857  13.410 -1.4924 -2.1441  0.0710
44972SOL     OW52525  13.056   9.325   2.205 -0.0284  0.0865 -0.2091
44972SOL    HW152526  13.050   9.320   2.300 -1.6740  2.8653 -0.0684
44972SOL    HW252527  12.980   9.276   2.173  0.0869 -0.1733 -0.0911
44973SOL     OW52528   7.131   3.061  11.204  0.0278  0.1740 -0.0873
44973SOL    HW152529   7.151   2.980  11.158 -0.0093  1.3936 -2.4150
44973SOL    HW252530   7.037   3.074  11.190  0.2084  1.0622 -0.5199
44974SOL     OW52531   2.618  10.748  12.809 -0.1770  0.3311  0.3230
44974SOL    HW152532   2.681  10.693  12.762 -1.9434 -0.3493 -1.3685
44974SOL    HW252533   2.664  10.831  12.823  1.0911 -0.1508 -0.8531
44975SOL     OW52534  13.185   9.019   1.117  0.0353  0.2102 -0.1189
44975SOL    HW152535  13.117   9.021   1.050 -1.1434 -0.8915  0.9782
44975SOL    HW252536  13.247   9.087   1.091 -1.5968  1.4130 -1.0338
44976SOL     OW52537   0.012  12.136  12.369  0.6510 -0.0799 -0.0435
44976SOL    HW152538   0.077  12.162  12.303 -0.0862  0.1578 -0.6913
44976SOL    HW252539   0.062  12.128  12.450  1.8246 -1.6293 -0.8669
44977SOL     OW52540   4.953   5.001   5.607  0.5062  0.2417 -0.4149
44977SOL    HW152541   4.922   5.014   5.517 -0.4693 -1.3929 -0.3698
44977SOL    HW252542   5.048   5.011   5.601  0.5226 -0.4169 -1.7723
44978SOL     OW52543  13.007  11.818   0.810  0.2840  0.2624  0.1132
44978SOL    HW152544  12.957  11.842   0.733  0.7433  2.2944  0.4026
44978SOL    HW252545  13.012  11.898   0.863 -0.5254 -1.1929  2.5755
44979SOL     OW52546   0.493  13.741   5.987  0.0313 -0.5909 -0.1187
44979SOL    HW152547   0.587  13.758   5.975 -0.1691 -0.2436 -1.2847
44979SOL    HW252548   0.451  13.789   5.916 -1.1892  0.8409  1.5181
44980SOL     OW52549  12.095   2.615  10.879  0.3734  0.4263 -0.2986
44980SOL    HW152550  12.130   2.678  10.942 -0.9216  0.3350  0.5628
44980SOL    HW252551  12.090   2.533  10.928  2.8975 -0.6688 -1.6629
44981SOL     OW52552   7.851   6.724   7.718 -0.6396  0.1937  0.0320
44981SOL    HW152553   7.873   6.683   7.634 -0.9425  1.0538 -0.4868
44981SOL    HW252554   7.889   6.667   7.784 -2.3776 -1.7943 -0.5713
44982SOL     OW52555   3.115   5.480  11.430 -0.4888  0.1954  0.6547
44982SOL    HW152556   3.123   5.499  11.337  1.0510 -1.3950  0.4236
44982SOL    HW252557   3.022   5.497  11.450 -1.4177 -1.6119 -1.6908
44983SOL     OW52558   8.615   7.934   3.352  0.1335 -0.1406  0.4865
44983SOL    HW152559   8.695   7.984   3.337 -0.4055 -0.0176 -2.6751
44983SOL    HW252560   8.646   7.845   3.371  1.0694 -0.1706 -1.0081
44984SOL     OW52561  13.446  11.200  13.471  0.0897 -0.3241 -0.2496
44984SOL    HW152562  13.540  11.182  13.467  0.1571 -0.0914  0.2510
44984SOL    HW252563  13.435  11.278  13.417 -0.3905 -2.4616 -3.4992
44985SOL     OW52564   7.570   6.735   8.623  0.6844 -0.0146  0.3586
44985SOL    HW152565   7.636   6.673   8.655  0.1864 -1.1232 -0.6924
44985SOL    HW252566   7.597   6.819   8.660  1.4463 -0.8260  1.7239
44986SOL     OW52567   3.138   3.896  12.829 -0.6543  0.6724  0.4440
44986SOL    HW152568   3.113   3.960  12.896  1.1790  1.6299  0.2819
44986SOL    HW252569   3.229   3.919  12.807 -0.9092 -0.1933 -1.7156
44987SOL     OW52570  10.045  13.270  13.622  0.3171 -0.1850  0.1385
44987SOL    HW152571   9.967  13.314  13.656  0.8301  1.6709 -0.9542
44987SOL    HW252572  10.113  13.287  13.688  0.4829  0.6151 -0.2244
44988SOL     OW52573   5.938  13.994   1.182  0.4272  0.4614  0.3438
44988SOL    HW152574   5.993  14.031   1.113  2.2358  0.1103  1.5326
44988SOL    HW252575   5.902  13.914   1.145  0.9216  0.5757 -0.3886
44989SOL     OW52576   5.943   2.908   3.004 -0.6489  0.1040 -0.1145
44989SOL    HW152577   6.038   2.900   3.010 -0.6781  0.4815  1.0862
44989SOL    HW252578   5.919   2.966   3.076 -1.8897 -0.7791  0.2144
44990SOL     OW52579   8.905   0.625   7.191  0.0350 -0.9372  0.1512
44990SOL    HW152580   8.877   0.602   7.280 -0.8077 -0.2685  0.0724
44990SOL    HW252581   8.840   0.585   7.134 -0.8548  0.6967 -0.0320
44991SOL     OW52582   2.828   1.340   5.194  0.4921 -0.0151 -0.1510
44991SOL    HW152583   2.771   1.370   5.264  1.4404  3.0652 -0.5324
44991SOL    HW252584   2.771   1.331   5.118  0.0384  0.0467  0.1791
44992SOL     OW52585   6.807  10.438   0.774 -0.5487 -0.4016 -0.3280
44992SOL    HW152586   6.849  10.522   0.795 -1.2119 -0.0194 -0.4879
44992SOL    HW252587   6.748  10.422   0.848  0.2682 -1.2200  0.1757
44993SOL     OW52588   5.006   4.334   1.030 -0.0296 -0.3987  0.1789
44993SOL    HW152589   5.048   4.420   1.023 -1.8866  0.4956 -1.2503
44993SOL    HW252590   4.918   4.354   1.063 -1.3241 -1.3756 -2.3727
44994SOL     OW52591   0.028   9.307   7.920  0.0836  0.4198  1.0589
44994SOL    HW152592   0.077   9.236   7.962 -0.8727 -1.8534 -1.3717
44994SOL    HW252593  -0.047   9.321   7.977 -0.8198 -2.0858  0.6297
44995SOL     OW52594   9.893   3.744  10.121  0.1921 -0.0689  0.2650
44995SOL    HW152595   9.919   3.654  10.100 -1.0009 -0.2462 -0.4981
44995SOL    HW252596   9.843   3.736  10.202  0.4622 -0.0327  0.4368
44996SOL     OW52597   9.155   0.873   8.616 -0.4943  0.6481  0.4002
44996SOL    HW152598   9.245   0.853   8.641  0.1858  2.0245 -0.7705
44996SOL    HW252599   9.148   0.968   8.625 -1.6489  0.6324 -0.1051
44997SOL     OW52600   0.821   5.260   0.769  0.2912 -0.3947  0.1364
44997SOL    HW152601   0.900   5.254   0.822  2.3295  1.1464 -2.5187
44997SOL    HW252602   0.804   5.354   0.763 -1.6004 -0.6827  0.3558
44998SOL     OW52603  14.076   6.650   0.321  0.5040 -0.1316 -0.4160
44998SOL    HW152604  14.013   6.610   0.261 -0.2372  0.9206 -0.3756
44998SOL    HW252605  14.048   6.622   0.407 -0.2688  0.7870 -0.3570
44999SOL     OW52606   5.634   2.969   4.133  0.1936 -0.5138 -0.4568
44999SOL    HW152607   5.554   2.973   4.187  0.8622  0.9097  0.4790
44999SOL    HW252608   5.602   2.975   4.043 -0.6746  2.6867 -0.0422
45000SOL     OW52609  12.955  12.413   7.125  0.3405  0.1728  0.5579
45000SOL    HW152610  13.027  12.429   7.064 -1.6537 -0.2767 -2.0624
45000SOL    HW252611  12.911  12.497   7.133 -0.9599 -0.3551 -0.7838
45001SOL     OW52612   6.726  10.693  12.760 -0.4003  0.2264  0.1411
45001SOL    HW152613   6.645  10.707  12.808 -0.4189 -1.8655  0.8312
45001SOL    HW252614   6.781  10.642  12.820 -0.4735 -2.6018 -1.9784
45002SOL     OW52615   7.044  11.408   4.053  0.4966 -0.3687 -0.3921
45002SOL    HW152616   7.038  11.375   3.963 -0.4589 -0.2646 -0.3771
45002SOL    HW252617   7.032  11.502   4.045 -2.4491 -0.5988  0.0532
45003SOL     OW52618   0.043   2.324  13.732 -0.0856 -0.0557 -0.0838
45003SOL    HW152619   0.093   2.268  13.792  0.1781  1.0406  0.7642
45003SOL    HW252620   0.023   2.402  13.784 -0.9560  0.3876 -1.0485
45004SOL     OW52621   5.659  12.099   5.887  0.3228 -0.4151  0.0335
45004SOL    HW152622   5.729  12.126   5.827 -0.4130  2.4926  0.3576
45004SOL    HW252623   5.687  12.131   5.973 -0.4686 -1.0228  0.5339
45005SOL     OW52624   2.138   1.673  10.963  0.1337 -0.2197  0.0977
45005SOL    HW152625   2.155   1.696  10.872 -0.5885  0.1689  0.0450
45005SOL    HW252626   2.059   1.619  10.960  0.5198 -0.8044  0.4291
45006SOL     OW52627  11.711   7.756   4.540 -0.1604  0.8804 -0.2491
45006SOL    HW152628  11.768   7.691   4.499 -2.1926 -0.4652 -1.1406
45006SOL    HW252629  11.757   7.839   4.531  1.9565 -0.2386 -0.2240
45007SOL     OW52630  11.052  10.510   6.992 -0.1573  0.5170  0.3815
45007SOL    HW152631  11.068  10.507   7.086  0.3087  0.1127  0.2923
45007SOL    HW252632  11.085  10.426   6.959  4.1471  2.3852 -0.8242
45008SOL     OW52633  10.869   3.724  12.715  0.3332 -0.0727  0.4427
45008SOL    HW152634  10.891   3.647  12.663  0.6183  0.5838 -0.4154
45008SOL    HW252635  10.941   3.732  12.778  1.1356  0.4262 -0.5224
45009SOL     OW52636  12.359   4.462  10.441 -0.4890 -0.2185  0.1536
45009SOL    HW152637  12.421   4.409  10.392  0.3891  1.4798 -0.6384
45009SOL    HW252638  12.284   4.404  10.456  1.5431 -2.6131  1.8711
45010SOL     OW52639   4.661   9.653   9.168 -0.4729  0.2722 -0.1144
45010SOL    HW152640   4.666   9.653   9.073 -2.6520 -1.6354 -0.3038
45010SOL    HW252641   4.576   9.691   9.188 -0.8706 -1.0812  0.9429
45011SOL     OW52642   4.097   2.688  11.539 -0.4098 -0.0061 -0.0318
45011SOL    HW152643   4.187   2.688  11.568 -0.1672 -0.5100 -0.7484
45011SOL    HW252644   4.047   2.720  11.614  0.5833  2.4633 -0.3240
45012SOL     OW52645  13.075  12.768  10.836  0.3256  0.1364 -0.5277
45012SOL    HW152646  13.055  12.679  10.866 -0.6353  0.3577 -0.4854
45012SOL    HW252647  13.104  12.814  10.915 -1.2472  0.4419 -0.0940
45013SOL     OW52648   7.971   0.410   3.108  0.5675  0.8158  0.4845
45013SOL    HW152649   7.903   0.366   3.056  1.1150  0.7473 -0.1905
45013SOL    HW252650   7.940   0.500   3.116 -1.2170  0.0994  2.9890
45014SOL     OW52651   1.566   9.113   7.686  0.3032  0.0741 -0.0129
45014SOL    HW152652   1.502   9.183   7.696  1.0883  1.0807 -1.6557
45014SOL    HW252653   1.640   9.140   7.740  0.4691  0.3419 -0.3732
45015SOL     OW52654   5.465  12.093   3.261  0.2864  0.2918  0.4912
45015SOL    HW152655   5.425  12.116   3.345 -0.7743  2.4579 -0.5265
45015SOL    HW252656   5.534  12.158   3.249  0.1325  0.2857 -0.5048
45016SOL     OW52657   3.491  10.930   9.016  0.5073 -0.0604  0.1607
45016SOL    HW152658   3.462  10.850   9.060 -0.8569 -0.9509 -2.1613
45016SOL    HW252659   3.568  10.957   9.064  0.2042 -1.9974  1.8839
45017SOL     OW52660  11.686   8.127   6.415  0.0937  0.0830 -0.2868
45017SOL    HW152661  11.699   8.222   6.414  1.5652 -0.1014 -0.6886
45017SOL    HW252662  11.635   8.110   6.335 -2.0221  0.7250  0.8475
45018SOL     OW52663   7.219  12.146   7.527 -0.4005 -0.1862 -0.0261
45018SOL    HW152664   7.152  12.206   7.492  0.0610  0.6037  0.4164
45018SOL    HW252665   7.190  12.127   7.616  0.6802  1.3305  0.6991
45019SOL     OW52666   2.136   6.376   6.292 -0.1283 -0.0484  0.4150
45019SOL    HW152667   2.137   6.458   6.242  0.5871 -0.3125 -0.0151
45019SOL    HW252668   2.228   6.357   6.307 -0.3203 -0.1694  1.5274
45020SOL     OW52669   1.689   2.449   1.380 -0.4887 -0.1643  0.5323
45020SOL    HW152670   1.632   2.480   1.309  0.3098 -0.7412 -0.3821
45020SOL    HW252671   1.774   2.435   1.338 -0.2575 -1.4626  1.3887
45021SOL     OW52672  11.694   3.269   0.822 -0.4372 -0.0282  0.3111
45021SOL    HW152673  11.709   3.358   0.853 -1.3368  0.6932 -1.2349
45021SOL    HW252674  11.725   3.270   0.732  1.4354 -1.8611  0.8591
45022SOL     OW52675   1.974   0.769   8.974 -0.4368  0.5897 -0.0714
45022SOL    HW152676   2.003   0.859   8.986 -0.5791  0.7408 -0.8208
45022SOL    HW252677   2.043   0.728   8.921 -0.3325  0.2332  0.3319
45023SOL     OW52678   1.839  12.169   6.046 -0.4626  0.2820 -0.0022
45023SOL    HW152679   1.821  12.221   5.968  0.8597 -0.0008 -0.5215
45023SOL    HW252680   1.778  12.095   6.040 -1.6402  1.2103  0.2140
45024SOL     OW52681   8.427   3.757  11.297 -0.0599  0.3599 -0.5619
45024SOL    HW152682   8.504   3.813  11.295 -0.4971  1.1478  1.7982
45024SOL    HW252683   8.449   3.685  11.238  1.6934  1.5126 -1.4156
45025SOL     OW52684  10.740   4.343   9.549  0.1152  0.2290 -0.3247
45025SOL    HW152685  10.746   4.346   9.645  1.5306 -0.2861 -0.3603
45025SOL    HW252686  10.773   4.255   9.527 -0.5844  0.1964 -1.2638
45026SOL     OW52687   0.748   4.267   3.606  0.0680  0.2067 -0.4250
45026SOL    HW152688   0.766   4.294   3.696 -1.3560  0.4034 -0.1785
45026SOL    HW252689   0.817   4.204   3.586 -0.3721 -0.8958  1.3008
45027SOL     OW52690  11.902   8.186  12.668  0.7366  0.2263  0.1296
45027SOL    HW152691  11.975   8.196  12.607 -1.3343 -0.0383 -2.5308
45027SOL    HW252692  11.887   8.275  12.702  2.0247  0.3402  0.4645
45028SOL     OW52693   7.202   7.227   4.102  0.4081 -0.0297 -0.6287
45028SOL    HW152694   7.214   7.145   4.054  2.1812  0.0944 -0.4768
45028SOL    HW252695   7.140   7.277   4.048  0.9685 -0.6143 -1.8652
45029SOL     OW52696   8.724   2.518   4.058  0.6255  0.1569 -0.3604
45029SOL    HW152697   8.674   2.446   4.020 -1.3199  0.5476  1.2591
45029SOL    HW252698   8.771   2.479   4.131 -0.1908  0.4336  0.3307
45030SOL     OW52699  13.146   6.661   3.622  0.1681 -0.0519  0.0862
45030SOL    HW152700  13.134   6.569   3.645 -0.5250  0.2604  1.0598
45030SOL    HW252701  13.064   6.703   3.648  0.3023  0.7693 -0.7626
45031SOL     OW52702   0.836   5.245   0.223 -0.4368  0.6285  0.4513
45031SOL    HW152703   0.827   5.243   0.318 -1.9143 -1.6681  0.3370
45031SOL    HW252704   0.832   5.153   0.197 -0.4044  1.2338 -1.8770
45032SOL     OW52705  11.345   5.820   9.077  0.5434 -0.3233  0.4985
45032SOL    HW152706  11.416   5.800   9.016  0.3704 -1.4928  0.6491
45032SOL    HW252707  11.268   5.776   9.039  0.6092 -1.7758  1.9439
45033SOL     OW52708  10.923   3.261  10.411 -0.2812 -0.0917  0.4254
45033SOL    HW152709  10.935   3.353  10.434  0.2408 -0.2166  0.6774
45033SOL    HW252710  10.996   3.216  10.455 -1.3307 -0.8100  1.5156
45034SOL     OW52711   6.826   0.295  10.940  0.3342  0.0793  0.8836
45034SOL    HW152712   6.848   0.223  11.000  1.8321 -0.3884 -0.1733
45034SOL    HW252713   6.910   0.322  10.904 -0.5655 -0.1020 -1.4823
45035SOL     OW52714   0.379  12.537   3.529  0.1676 -0.0475  0.0448
45035SOL    HW152715   0.449  12.472   3.541 -1.9350 -2.3636  0.6739
45035SOL    HW252716   0.355  12.529   3.437  1.0538  1.1468 -0.3073
45036SOL     OW52717   4.830   2.860   1.603  0.1122  0.0668 -0.2500
45036SOL    HW152718   4.860   2.783   1.554 -1.3765 -0.8543  0.2233
45036SOL    HW252719   4.910   2.900   1.636  1.0304 -0.3885 -1.7853
45037SOL     OW52720   1.390   4.313   0.835  0.2134  0.2081 -0.0917
45037SOL    HW152721   1.446   4.383   0.868  0.7367 -0.7924  1.2416
45037SOL    HW252722   1.315   4.311   0.894 -0.8815  1.0212 -1.4020
45038SOL     OW52723   5.662   8.879   3.626 -0.0762  0.1316 -0.3488
45038SOL    HW152724   5.673   8.958   3.679 -0.2949  1.5815 -2.3452
45038SOL    HW252725   5.690   8.905   3.538 -1.9170 -1.4704 -1.4930
45039SOL     OW52726  13.222  13.724  13.325  0.6283 -0.3278  0.0061
45039SOL    HW152727  13.279  13.792  13.360 -0.6896  0.4552  0.7062
45039SOL    HW252728  13.273  13.682  13.256  1.6081  1.1215 -0.1772
45040SOL     OW52729   9.781  10.241   2.687 -0.1473 -0.6613 -0.2992
45040SOL    HW152730   9.864  10.207   2.721 -0.2063  1.7389  2.6832
45040SOL    HW252731   9.786  10.335   2.702 -1.9634  0.0942 -3.5661
45041SOL     OW52732   2.349   6.696   8.303  0.0227 -0.1902  0.0729
45041SOL    HW152733   2.373   6.745   8.381  0.9625  1.0243 -0.9440
45041SOL    HW252734   2.262   6.662   8.322 -0.5695  1.6935  0.8957
45042SOL     OW52735  12.247  11.009   3.011 -0.3990  0.2344  0.0114
45042SOL    HW152736  12.206  11.013   3.098  0.4372 -0.7267  0.4698
45042SOL    HW252737  12.181  10.968   2.956 -0.1639 -1.0947  0.6900
45043SOL     OW52738   3.718   0.531   9.991 -0.1186 -0.3112  0.0088
45043SOL    HW152739   3.721   0.516   9.896  3.1031  0.5750 -0.1474
45043SOL    HW252740   3.732   0.625  10.001  0.7162 -0.5524  1.3799
45044SOL     OW52741  12.594   4.809  13.037  0.2385  0.0516 -0.0348
45044SOL    HW152742  12.606   4.878  13.103  0.1527  0.4352 -0.4168
45044SOL    HW252743  12.532   4.846  12.975  0.5634 -0.1848 -0.5030
45045SOL     OW52744   8.952  11.829  12.405 -0.3683  0.1861  0.1634
45045SOL    HW152745   8.921  11.918  12.424 -0.0314  0.5374 -0.8843
45045SOL    HW252746   8.890  11.773  12.451 -1.6895  0.9157 -0.6580
45046SOL     OW52747   2.107   2.458   6.210  0.3592  0.0445  0.5001
45046SOL    HW152748   2.151   2.409   6.278  1.0535  2.5442  1.9977
45046SOL    HW252749   2.175   2.515   6.173 -0.6012  0.6690 -0.3772
45047SOL     OW52750   5.120  10.694   8.907  0.0354  0.3151  0.3591
45047SOL    HW152751   5.114  10.693   9.003 -0.5334  1.5932  0.3580
45047SOL    HW252752   5.213  10.703   8.889  0.0739  0.9127  0.8172
45048SOL     OW52753   2.154   4.062   5.325 -0.0063 -0.4774 -0.2905
45048SOL    HW152754   2.149   4.066   5.420  1.0513  1.1174 -0.2506
45048SOL    HW252755   2.246   4.082   5.305 -0.4530  0.3454 -1.6639
45049SOL     OW52756   6.695   9.974   1.282  0.0861 -0.2494  0.5634
45049SOL    HW152757   6.713   9.880   1.276  0.0412 -0.2150 -0.2831
45049SOL    HW252758   6.611   9.980   1.327 -0.8722 -0.7314 -1.0732
45050SOL     OW52759  12.649   6.946   8.482 -0.2792 -0.4139 -0.3030
45050SOL    HW152760  12.740   6.922   8.501 -0.3256 -0.6612 -0.3879
45050SOL    HW252761  12.607   6.950   8.567  0.2852  1.6981 -0.0700
45051SOL     OW52762  10.978   7.896   7.769  0.4272 -0.1236  0.2428
45051SOL    HW152763  10.993   7.939   7.685 -0.4213 -0.2932 -0.0105
45051SOL    HW252764  11.011   7.807   7.757  0.0859 -0.2190  0.0081
45052SOL     OW52765   9.670  13.811   3.245  0.0286  0.1045 -0.5590
45052SOL    HW152766   9.696  13.719   3.248 -1.9612 -0.5706 -2.0313
45052SOL    HW252767   9.679  13.841   3.336  1.4023 -1.2984 -0.1720
45053SOL     OW52768  14.051   7.694   0.132 -0.8616  0.1383  0.5765
45053SOL    HW152769  14.032   7.691   0.038  0.0572  0.0456  0.3913
45053SOL    HW252770  14.133   7.647   0.142 -0.9256  0.1930  1.4273
45054SOL     OW52771   0.653   3.462   0.830 -0.0103 -0.3281 -0.3216
45054SOL    HW152772   0.724   3.492   0.887  1.0228 -0.7643 -1.3206
45054SOL    HW252773   0.579   3.519   0.850  1.0185  0.9808 -0.1544
45055SOL     OW52774   9.945   4.069   3.630  0.2661  0.3917  0.2821
45055SOL    HW152775   9.997   4.148   3.639 -0.4042  0.7375  1.3091
45055SOL    HW252776   9.979   4.009   3.697  0.0225  0.2408  0.2748
45056SOL     OW52777   7.852  13.321   4.162  0.6759  0.0251 -0.0659
45056SOL    HW152778   7.764  13.349   4.189  0.9756 -0.0031  1.0091
45056SOL    HW252779   7.859  13.231   4.194  1.5614  0.4676  1.0630
45057SOL     OW52780   1.631   4.402   8.260  0.3764  0.3172 -0.0979
45057SOL    HW152781   1.677   4.471   8.307 -0.0066  0.9876 -0.6895
45057SOL    HW252782   1.639   4.325   8.316  0.8259  0.8348  0.5584
45058SOL     OW52783   0.423  14.050   3.098  0.2635 -0.3225 -0.4819
45058SOL    HW152784   0.460  14.089   3.178 -0.3035  2.4499 -1.4452
45058SOL    HW252785   0.348  13.999   3.128  0.0612  0.6716  0.8019
45059SOL     OW52786   1.693   9.058  11.776  0.2730 -0.2263  0.0222
45059SOL    HW152787   1.619   9.116  11.756  1.4148  1.6745  1.0208
45059SOL    HW252788   1.744   9.055  11.695  0.5109  0.6638  0.1328
45060SOL     OW52789   3.432   2.349   2.010  0.2095  0.3278  0.1310
45060SOL    HW152790   3.398   2.362   2.098  1.4387  0.0434  0.6670
45060SOL    HW252791   3.390   2.268   1.980 -0.8268  0.8511  0.1294
45061SOL     OW52792  10.428   3.000  11.729  0.1107 -0.5005  0.2695
45061SOL    HW152793  10.348   2.951  11.745 -0.3770 -0.0385 -0.6670
45061SOL    HW252794  10.498   2.944  11.762 -0.6638 -0.3822  2.2171
45062SOL     OW52795  14.051   7.896   6.403 -0.1869 -0.1212  0.0890
45062SOL    HW152796  14.127   7.944   6.370  1.0191 -1.6931  0.4568
45062SOL    HW252797  14.036   7.933   6.490  0.0273  0.3258 -0.0570
45063SOL     OW52798   1.308  10.544   9.130  0.5282  1.0020  0.3276
45063SOL    HW152799   1.281  10.573   9.042  0.1655  0.3498  0.2198
45063SOL    HW252800   1.377  10.606   9.155  3.4153 -1.0058 -1.9687
45064SOL     OW52801   5.662   4.687   8.005 -0.3695 -0.2411 -0.5284
45064SOL    HW152802   5.716   4.750   7.958  0.9777  0.0371  1.2514
45064SOL    HW252803   5.624   4.737   8.077 -0.3300 -1.1510  0.1507
45065SOL     OW52804   0.143   3.909   0.972 -0.2594  0.2959  0.1931
45065SOL    HW152805   0.213   3.972   0.956  0.0623 -0.0087  0.3920
45065SOL    HW252806   0.068   3.962   0.998  0.3898  0.5099  1.6845
45066SOL     OW52807   6.208   4.566   9.949  0.3380 -0.2632 -0.2116
45066SOL    HW152808   6.218   4.617  10.029  2.0691 -1.8647  0.6696
45066SOL    HW252809   6.235   4.625   9.879  1.4867  0.3182  0.6882
45067SOL     OW52810  11.005  12.656   5.689 -0.1165  0.0302  0.0541
45067SOL    HW152811  11.005  12.752   5.683 -0.1762 -0.0317 -1.3802
45067SOL    HW252812  11.088  12.635   5.732  0.0837  0.7088  0.0215
45068SOL     OW52813  12.265  12.911  11.526  0.0741 -0.7635 -0.1472
45068SOL    HW152814  12.357  12.910  11.503 -0.1964  0.4507 -1.4146
45068SOL    HW252815  12.250  12.999  11.561 -0.4750 -1.1491  0.6140
45069SOL     OW52816  13.188   9.684   8.935 -0.3200  0.6553  0.0305
45069SOL    HW152817  13.201   9.747   9.006 -1.9994  0.9496  0.1157
45069SOL    HW252818  13.179   9.738   8.856  0.1421  0.4100 -0.1919
45070SOL     OW52819   0.064   6.056   8.424 -0.3451  0.1952 -0.4853
45070SOL    HW152820   0.031   5.966   8.413 -0.7620  0.4127 -1.0774
45070SOL    HW252821   0.112   6.074   8.343  1.6145 -0.2577  0.5330
45071SOL     OW52822   2.552   5.726   3.358  0.2126  0.2169  0.0223
45071SOL    HW152823   2.630   5.671   3.360  1.6493  2.1070 -1.0063
45071SOL    HW252824   2.541   5.756   3.448 -0.8297 -1.9223  0.6984
45072SOL     OW52825   9.298  10.498   3.156  0.3348  0.3686  0.0600
45072SOL    HW152826   9.260  10.583   3.135  2.5156  1.3982  0.0429
45072SOL    HW252827   9.369  10.487   3.094  0.4396 -1.2440  0.4145
45073SOL     OW52828   4.980  11.759  12.472 -0.8533 -0.7685  0.0525
45073SOL    HW152829   4.938  11.692  12.527  0.3060 -0.5766  1.1875
45073SOL    HW252830   4.984  11.837  12.527  1.6219 -0.9789  0.2621
45074SOL     OW52831  11.440  10.598   3.428 -0.6133 -0.4082  0.0658
45074SOL    HW152832  11.401  10.670   3.379  0.8544  0.1716 -0.3169
45074SOL    HW252833  11.392  10.596   3.511 -0.8406  0.8512 -0.0224
45075SOL     OW52834   1.948  10.657   2.253 -0.3213  0.0849 -0.3033
45075SOL    HW152835   1.888  10.720   2.211 -0.2296 -1.1137 -2.3500
45075SOL    HW252836   2.007  10.629   2.183 -0.8612 -2.8838  0.2982
45076SOL     OW52837  10.601  13.500   3.491 -0.0433 -0.2781  0.5002
45076SOL    HW152838  10.555  13.429   3.447 -0.7148  0.4791 -0.0465
45076SOL    HW252839  10.628  13.558   3.420 -0.5572  0.6240  1.0296
45077SOL     OW52840   7.854   4.322  14.031  0.6740  0.0346  0.0233
45077SOL    HW152841   7.831   4.385  13.963  1.0406 -0.0973 -0.2223
45077SOL    HW252842   7.947   4.337  14.048  0.7226 -0.3268  0.0864
45078SOL     OW52843   5.218  11.641  12.299 -0.1583  0.1110  0.3659
45078SOL    HW152844   5.227  11.546  12.295  3.4498  0.2628  1.0959
45078SOL    HW252845   5.154  11.656  12.369  0.2805 -1.7933  1.2388
45079SOL     OW52846   6.991   2.105   1.387 -0.5401 -0.1196 -0.1239
45079SOL    HW152847   7.047   2.061   1.323 -1.8231 -1.7621 -0.2000
45079SOL    HW252848   6.904   2.067   1.372 -1.4607  1.5725  0.6856
45080SOL     OW52849  11.991   4.083   5.402  0.2351  0.4502 -0.2286
45080SOL    HW152850  12.022   4.153   5.460  1.0603  0.7673 -1.0320
45080SOL    HW252851  11.897   4.075   5.421  0.5240  0.3879  1.3054
45081SOL     OW52852   2.698  10.564   4.153  0.1319 -0.2344  0.1343
45081SOL    HW152853   2.620  10.523   4.191  0.5914 -1.0716  0.2110
45081SOL    HW252854   2.743  10.492   4.109  1.0925  0.1409  0.4803
45082SOL     OW52855   6.313   2.687   0.433 -0.1990 -0.1920 -0.0856
45082SOL    HW152856   6.218   2.683   0.426 -0.4028  2.8317 -0.1186
45082SOL    HW252857   6.337   2.773   0.399  2.4778 -0.5102  0.7193
45083SOL     OW52858   8.577  12.344   3.359 -0.0967 -0.1486  0.4997
45083SOL    HW152859   8.526  12.272   3.322  0.0208  0.3917 -0.7441
45083SOL    HW252860   8.516  12.390   3.416 -0.5638 -0.3967  0.2059
45084SOL     OW52861   1.976  13.539   0.603  0.7409 -0.4740  0.2670
45084SOL    HW152862   1.963  13.626   0.639 -1.2997 -0.6983  0.2221
45084SOL    HW252863   2.057  13.545   0.553  0.4778  1.4937 -0.0018
45085SOL     OW52864  12.723  13.881   9.747  0.4325 -0.0731  0.0955
45085SOL    HW152865  12.677  13.797   9.747  0.1549  0.0754 -0.5925
45085SOL    HW252866  12.776  13.879   9.667 -1.1191  1.2352 -1.0091
45086SOL     OW52867  13.496   8.985  10.437  0.7844 -0.2715 -0.6835
45086SOL    HW152868  13.500   8.891  10.424 -0.2145 -0.3275 -0.7083
45086SOL    HW252869  13.537   9.000  10.522 -3.1759 -1.3363  1.6807
45087SOL     OW52870   0.633   1.262   4.803  0.3008 -0.6502  0.4828
45087SOL    HW152871   0.728   1.267   4.819  0.6969  1.1542 -1.9799
45087SOL    HW252872   0.623   1.189   4.742  0.2145 -0.2410  0.0085
45088SOL     OW52873  13.857   0.724   0.238  0.6669  0.6298 -0.1205
45088SOL    HW152874  13.930   0.785   0.227  0.3007  0.7945 -1.9827
45088SOL    HW252875  13.899   0.642   0.264  1.5833  0.6427 -1.4321
45089SOL     OW52876   2.512  13.562  11.565 -0.0189 -0.4977 -0.4251
45089SOL    HW152877   2.516  13.622  11.640  0.1713  1.6002 -2.0194
45089SOL    HW252878   2.603  13.543  11.545 -0.0587 -0.7173 -0.4045
45090SOL     OW52879   4.957   3.818   0.328  0.1799  0.5592 -0.4784
45090SOL    HW152880   4.960   3.761   0.252  1.8692 -0.0402  0.0000
45090SOL    HW252881   4.950   3.759   0.403 -2.7291  1.1620 -0.1347
45091SOL     OW52882   7.046   1.462   3.137 -0.5838 -0.1651 -0.5877
45091SOL    HW152883   7.027   1.376   3.175  1.6598 -0.1073  0.8750
45091SOL    HW252884   7.039   1.523   3.210  0.4766  0.4864 -1.0058
45092SOL     OW52885   8.660   7.692   8.130  0.0357 -0.0173  0.1584
45092SOL    HW152886   8.711   7.767   8.099 -1.8118  1.4879  0.5176
45092SOL    HW252887   8.637   7.644   8.051  2.0282 -0.7975  0.0039
45093SOL     OW52888   6.176   6.223  12.558 -0.1172  0.3561  1.1796
45093SOL    HW152889   6.113   6.295  12.547 -0.0137  0.6480  2.3681
45093SOL    HW252890   6.198   6.197  12.469 -3.1384 -0.8446  0.6692
45094SOL     OW52891  12.714   6.247   5.073  0.2347  0.2036  0.0170
45094SOL    HW152892  12.697   6.269   5.164  1.1063 -1.1250  0.5322
45094SOL    HW252893  12.632   6.208   5.042  0.0539  0.3280  0.3403
45095SOL     OW52894  11.362   0.568  13.302 -0.3792 -0.3098  0.7189
45095SOL    HW152895  11.296   0.617  13.351 -0.4401 -0.0128  0.3393
45095SOL    HW252896  11.441   0.622  13.307 -0.6401  0.2007 -0.3206
45096SOL     OW52897   0.646  13.517   8.003  0.1639  0.1597  0.2355
45096SOL    HW152898   0.583  13.447   7.984 -0.2433 -0.4982  3.4680
45096SOL    HW252899   0.601  13.597   7.975 -0.5856 -0.5858 -0.7959
45097SOL     OW52900   0.237  12.478   1.572  0.0331 -0.0895 -0.3454
45097SOL    HW152901   0.263  12.387   1.559 -1.4111 -0.7264  0.9911
45097SOL    HW252902   0.148  12.473   1.606  0.5885  1.7442  1.5246
45098SOL     OW52903  10.807   1.276   2.710  0.3249  0.0490  0.3146
45098SOL    HW152904  10.893   1.291   2.750 -0.1350 -1.1084  1.8586
45098SOL    HW252905  10.773   1.364   2.694  1.2322  0.5420  0.9536
45099SOL     OW52906   7.183  11.412   3.215 -0.7408  0.2148  0.4303
45099SOL    HW152907   7.235  11.342   3.176  0.4323  1.6423 -0.6238
45099SOL    HW252908   7.225  11.430   3.299 -0.6291  0.1398  0.3895
45100SOL     OW52909  13.820   8.606   5.317  0.2137  0.0935  0.3131
45100SOL    HW152910  13.809   8.543   5.247  0.4643  0.9815 -0.5454
45100SOL    HW252911  13.895   8.574   5.367 -0.1722 -0.7166  0.3904
45101SOL     OW52912  11.888   7.120   0.964 -0.9305 -0.4627  0.8565
45101SOL    HW152913  11.959   7.171   1.003  0.1917 -0.7828 -0.7244
45101SOL    HW252914  11.834   7.186   0.919  0.4462 -0.6033 -1.0736
45102SOL     OW52915   7.822  10.770   3.751 -0.3812 -0.5625  0.4018
45102SOL    HW152916   7.802  10.685   3.792  1.9463 -1.9211 -1.0150
45102SOL    HW252917   7.916  10.781   3.765 -0.4140  1.2178 -0.5144
45103SOL     OW52918   5.064   1.846   5.683 -0.1448 -0.2305  0.1006
45103SOL    HW152919   5.137   1.795   5.647  0.9624  1.9611 -0.9615
45103SOL    HW252920   5.054   1.919   5.622 -0.7261  1.5647  2.2376
45104SOL     OW52921   5.985   6.041   2.766 -1.3803  0.2108  0.0727
45104SOL    HW152922   5.961   6.091   2.844 -1.3426 -0.8636  0.7991
45104SOL    HW252923   5.951   5.953   2.783  0.8095 -0.7172  0.0287
45105SOL     OW52924   6.978   0.076   7.033  0.3265 -0.1001  0.5629
45105SOL    HW152925   7.050   0.017   7.012  0.1370  0.1319 -0.8170
45105SOL    HW252926   6.900   0.030   7.004  0.2066  0.9427 -0.8557
45106SOL     OW52927  13.812   9.288   4.609 -0.4082  0.3588 -0.1356
45106SOL    HW152928  13.733   9.289   4.556  0.6609  1.5161 -1.7660
45106SOL    HW252929  13.814   9.373   4.652  0.5425  0.8159 -1.0497
45107SOL     OW52930   1.408   4.786   8.281  0.4477 -0.0803 -0.0983
45107SOL    HW152931   1.339   4.853   8.274  1.0220  0.3388 -2.4722
45107SOL    HW252932   1.363   4.704   8.260  0.3962  0.0013 -0.3092
45108SOL     OW52933   1.682   0.042  11.739  0.2090 -0.0365  0.0693
45108SOL    HW152934   1.690   0.018  11.647 -0.3518  0.8038 -0.2054
45108SOL    HW252935   1.601  -0.002  11.767  0.3863 -0.3026  0.1747
45109SOL     OW52936   2.152   8.320  10.753  0.3571 -0.2016 -0.1602
45109SOL    HW152937   2.124   8.235  10.785 -0.1491 -0.3125 -0.8859
45109SOL    HW252938   2.134   8.381  10.825  0.1494 -0.6022  0.1252
45110SOL     OW52939   8.924   1.836  13.481  0.2661  0.0718 -0.4897
45110SOL    HW152940   8.966   1.828  13.568  0.4340 -1.4613 -0.6855
45110SOL    HW252941   8.997   1.857  13.422  0.1186  1.3399 -0.2547
45111SOL     OW52942  13.808   0.649   4.283  0.5807  0.4245 -0.2889
45111SOL    HW152943  13.869   0.575   4.277  0.0062 -0.1510  0.7742
45111SOL    HW252944  13.860   0.724   4.254  1.7981 -0.0617  0.5383
45112SOL     OW52945   8.781  13.310   4.538 -0.5396 -0.2190 -0.1083
45112SOL    HW152946   8.692  13.309   4.574 -0.1671 -0.6067  0.8313
45112SOL    HW252947   8.833  13.354   4.606  0.2703 -1.3817  0.0465
45113SOL     OW52948  12.589  13.228   8.942  0.6705 -0.1644 -0.4797
45113SOL    HW152949  12.644  13.302   8.917  0.6902 -0.6741 -2.0694
45113SOL    HW252950  12.649  13.170   8.990  0.1133  1.8196  2.8915
45114SOL     OW52951   0.916   2.189   3.762  0.0690  0.2018 -0.0782
45114SOL    HW152952   0.842   2.129   3.758  0.1747 -0.0324  1.0575
45114SOL    HW252953   0.896   2.247   3.836  1.1452 -0.0502  0.4304
45115SOL     OW52954   8.435   8.157  11.878 -0.0516  0.8583 -0.3628
45115SOL    HW152955   8.526   8.168  11.852 -0.5067  1.0163 -1.9993
45115SOL    HW252956   8.413   8.068  11.852  0.0656  0.2190  1.5364
45116SOL     OW52957   2.397   9.979   5.146 -0.2694  0.1063 -0.4194
45116SOL    HW152958   2.317   9.978   5.199  0.0330  1.1227  0.0900
45116SOL    HW252959   2.392  10.062   5.098 -0.7638 -0.9858 -2.3734
45117SOL     OW52960   1.235  11.056  12.748  0.1744  0.3814  0.3148
45117SOL    HW152961   1.320  11.030  12.784  0.0841 -0.1909  0.1259
45117SOL    HW252962   1.231  11.151  12.762  1.8044  0.8181 -1.5973
45118SOL     OW52963   0.117   5.635   1.418 -0.1239 -0.0114  0.7591
45118SOL    HW152964   0.146   5.719   1.455  1.2258 -0.3345  0.5187
45118SOL    HW252965   0.196   5.581   1.419 -0.3877 -0.5114 -1.2600
45119SOL     OW52966   5.823   1.334   7.254 -0.3308 -0.4843  0.0376
45119SOL    HW152967   5.727   1.340   7.255 -0.4214 -0.2452 -2.4405
45119SOL    HW252968   5.842   1.240   7.260 -0.8015 -0.6475 -0.9051
45120SOL     OW52969   4.967   1.945  10.947  0.3738 -0.6291  0.0491
45120SOL    HW152970   4.957   1.934  11.041 -1.4115 -2.5172 -0.2723
45120SOL    HW252971   5.062   1.951  10.933  0.6049  1.2267  2.0512
45121SOL     OW52972   8.652   5.572   6.234  0.1701  0.5488 -0.0777
45121SOL    HW152973   8.600   5.581   6.314 -0.8446  1.1384 -0.7810
45121SOL    HW252974   8.628   5.486   6.200 -0.2727  0.7630 -0.3276
45122SOL     OW52975   3.498   6.876  13.025  0.0806 -0.0589 -0.7992
45122SOL    HW152976   3.522   6.816  12.955  0.1039 -0.7829 -0.1848
45122SOL    HW252977   3.425   6.926  12.989  1.2700  0.8802 -2.0053
45123SOL     OW52978  12.712   0.961   7.752 -0.1188 -0.1346  0.1676
45123SOL    HW152979  12.694   0.902   7.826  0.1656 -0.9789 -0.4263
45123SOL    HW252980  12.640   1.024   7.754  0.2028  0.2222  1.5288
45124SOL     OW52981   0.248   4.332   3.604 -0.4109  0.7645  0.4424
45124SOL    HW152982   0.339   4.324   3.577 -0.9188 -0.3178 -1.0737
45124SOL    HW252983   0.199   4.338   3.522 -1.9621 -1.9272  1.0367
45125SOL     OW52984   4.113   1.199   2.091 -0.0488  0.1155 -0.6103
45125SOL    HW152985   4.112   1.146   2.011 -3.1054 -0.3934 -0.3628
45125SOL    HW252986   4.154   1.281   2.064  1.3658 -0.9942 -1.9910
45126SOL     OW52987   1.178   2.253   5.575 -0.4355 -0.1958  0.4878
45126SOL    HW152988   1.169   2.235   5.669 -0.7127  1.2319  0.7674
45126SOL    HW252989   1.253   2.200   5.547  0.8953  0.7774  1.9709
45127SOL     OW52990   4.597   0.185   4.378 -0.3775 -0.4163  0.0557
45127SOL    HW152991   4.516   0.160   4.422  0.5894 -1.6415  1.2292
45127SOL    HW252992   4.583   0.161   4.287 -0.6780 -2.3485  0.5751
45128SOL     OW52993  11.423   8.964   0.800  0.6374 -0.0880 -0.1261
45128SOL    HW152994  11.337   8.951   0.841 -0.5543  0.6808 -2.2093
45128SOL    HW252995  11.460   9.040   0.845 -0.8278  1.0304 -0.7288
45129SOL     OW52996   3.199   0.761   7.112 -0.2180  0.1367  0.0525
45129SOL    HW152997   3.207   0.667   7.132  1.6083 -0.0646 -1.3529
45129SOL    HW252998   3.199   0.803   7.198  3.7101 -0.9164  0.8112
45130SOL     OW52999  13.754   6.968   3.317  0.2349  0.4514  0.3393
45130SOL    HW153000  13.763   6.878   3.349 -2.8917  0.1226  0.5732
45130SOL    HW253001  13.797   7.021   3.384  1.0674 -0.7733  0.8232
45131SOL     OW53002   3.089  13.442   7.288  0.0858 -0.1581 -0.0515
45131SOL    HW153003   3.089  13.388   7.367  0.2558  0.2498  0.2252
45131SOL    HW253004   3.118  13.382   7.219 -0.5839 -0.6610  0.0912
45132SOL     OW53005  13.841   3.908   1.848  0.0392 -0.1882 -0.0247
45132SOL    HW153006  13.893   3.833   1.819  0.8553 -0.0369  0.9848
45132SOL    HW253007  13.784   3.873   1.917  1.5785  0.3871  1.6311
45133SOL     OW53008   8.261  11.255   7.599 -0.5627  0.4008 -0.2059
45133SOL    HW153009   8.242  11.263   7.505 -0.8344  0.7519 -0.1231
45133SOL    HW253010   8.184  11.291   7.642  0.2735  1.8574  0.1330
45134SOL     OW53011   1.068   3.686   5.139  0.4306 -0.1327  0.3115
45134SOL    HW153012   1.132   3.690   5.069  0.2591  0.5259  0.1870
45134SOL    HW253013   0.993   3.737   5.106  0.1592 -0.2241  0.7749
45135SOL     OW53014  13.368   0.819   5.909 -0.1587 -0.5497 -0.3727
45135SOL    HW153015  13.330   0.781   5.988  0.6284 -0.4277  0.0728
45135SOL    HW253016  13.306   0.796   5.839 -1.0127 -0.4041  0.3207
45136SOL     OW53017   8.202   9.977  12.155  0.7321  0.0240  0.6412
45136SOL    HW153018   8.210   9.987  12.060 -1.8568 -0.6016  0.2784
45136SOL    HW253019   8.292   9.980  12.187  1.6724  0.3922 -1.8059
45137SOL     OW53020   5.493  12.927  12.976 -0.5906  0.3892  0.6360
45137SOL    HW153021   5.421  12.867  12.955  0.5552 -0.6336 -0.4961
45137SOL    HW253022   5.519  12.901  13.065 -0.2573 -0.6812  0.2482
45138SOL     OW53023   3.632   6.969  11.476  0.0567 -0.5377 -0.2642
45138SOL    HW153024   3.593   6.885  11.449  0.2445 -1.0768  1.0944
45138SOL    HW253025   3.725   6.951  11.486  0.0378 -0.2694  0.4315
45139SOL     OW53026   4.713  13.273   1.577  0.7810 -0.3950  0.8714
45139SOL    HW153027   4.763  13.354   1.569 -0.0155 -0.0370 -1.1220
45139SOL    HW253028   4.772  13.212   1.622  1.8380  0.9185  1.3195
45140SOL     OW53029   0.840   4.189  12.273 -0.5679 -0.2319 -0.2080
45140SOL    HW153030   0.898   4.115  12.254 -0.4957 -0.1691 -0.2363
45140SOL    HW253031   0.888   4.241  12.337 -0.2171  0.2670 -0.8634
45141SOL     OW53032   2.901   6.872   9.224 -0.0062 -0.5688  0.1663
45141SOL    HW153033   2.858   6.787   9.209  2.7640 -2.2177  0.8978
45141SOL    HW253034   2.982   6.867   9.174 -0.4488  2.3685 -1.0548
45142SOL     OW53035   1.216  11.711  12.203 -0.7170  0.0616 -0.1975
45142SOL    HW153036   1.236  11.796  12.241  1.0166 -0.6877  0.6772
45142SOL    HW253037   1.221  11.726  12.108  0.7529  0.7128 -0.0540
45143SOL     OW53038  12.220   3.337   2.128 -0.0221  0.3837 -0.6064
45143SOL    HW153039  12.244   3.262   2.182  2.1517  0.7627 -0.9642
45143SOL    HW253040  12.135   3.364   2.162  0.3830 -0.5847  1.3254
45144SOL     OW53041  11.290   0.464   4.132 -0.1810  0.0103 -0.1418
45144SOL    HW153042  11.276   0.543   4.183 -0.3966 -1.0133  1.4509
45144SOL    HW253043  11.369   0.482   4.080 -1.4355  2.0392 -1.4773
45145SOL     OW53044   8.588   4.764   5.150 -0.3945 -0.5821 -0.7061
45145SOL    HW153045   8.558   4.694   5.092 -1.2201  0.5128 -1.6521
45145SOL    HW253046   8.537   4.840   5.123  0.7113  0.4693  0.0840
45146SOL     OW53047   1.933  11.862  10.322  0.2788  0.6840  0.0171
45146SOL    HW153048   2.015  11.849  10.370 -0.7790 -0.5471  1.6108
45146SOL    HW253049   1.940  11.805  10.245  0.9718  0.6778  0.0834
45147SOL     OW53050   5.716   0.739   8.512 -0.0341 -0.1582  0.1756
45147SOL    HW153051   5.696   0.768   8.602  0.9492 -1.5596  0.8761
45147SOL    HW253052   5.654   0.788   8.458 -0.8800  0.4892  1.6406
45148SOL     OW53053   2.345   5.744  10.811  0.4743  0.0184  0.6361
45148SOL    HW153054   2.426   5.724  10.856  1.2242  0.6097 -0.3999
45148SOL    HW253055   2.331   5.671  10.751  0.3621  0.0203  0.6587
45149SOL     OW53056  11.464   3.848   0.551 -0.1447  0.0116  0.3566
45149SOL    HW153057  11.454   3.895   0.634 -2.3710 -1.9205  1.2718
45149SOL    HW253058  11.523   3.775   0.571 -0.3746 -0.2366  0.1290
45150SOL     OW53059   3.120   7.919   0.514 -0.4492  0.2259 -0.0940
45150SOL    HW153060   3.189   7.975   0.551 -0.6138  0.8229 -0.6822
45150SOL    HW253061   3.039   7.951   0.553 -0.5109  0.1956 -0.1976
45151SOL     OW53062   5.622   8.415  10.794  0.6654  0.2982  0.1420
45151SOL    HW153063   5.637   8.427  10.888 -1.5305  1.9387  0.3556
45151SOL    HW253064   5.537   8.455  10.778  0.1521 -1.5183 -2.2530
45152SOL     OW53065   1.940   6.013  13.317 -0.0492 -0.0321  0.9737
45152SOL    HW153066   1.905   6.044  13.400  0.3425  1.7156  0.5253
45152SOL    HW253067   2.033   6.001  13.333 -0.3101 -1.8386  1.3573
45153SOL     OW53068  10.381   7.342   1.264  0.0787  0.6852  0.2465
45153SOL    HW153069  10.362   7.268   1.206 -0.2806  1.9675 -1.3403
45153SOL    HW253070  10.310   7.341   1.328  0.9060 -1.2261  1.2051
45154SOL     OW53071  13.293   8.906   9.482  0.0490 -0.2728 -0.0130
45154SOL    HW153072  13.198   8.908   9.495 -0.3143 -1.1578 -2.1537
45154SOL    HW253073  13.309   8.968   9.411  0.9154 -1.0595 -0.5157
45155SOL     OW53074  11.831   2.808  13.991 -0.3953  0.2309  0.3119
45155SOL    HW153075  11.750   2.763  14.017  0.8693 -1.0555  2.3889
45155SOL    HW253076  11.884   2.810  14.071  1.8171  0.5958 -1.0615
45156SOL     OW53077  12.279   4.868  11.626 -0.1581 -0.1030  0.3360
45156SOL    HW153078  12.369   4.860  11.659 -0.4720 -0.9378  1.0090
45156SOL    HW253079  12.227   4.894  11.702 -0.4703  0.5128 -0.0818
45157SOL     OW53080  12.615   1.899   1.856  0.1144 -0.5326 -0.5117
45157SOL    HW153081  12.670   1.940   1.789 -1.2819  1.5066 -0.4980
45157SOL    HW253082  12.626   1.953   1.933  0.1864 -1.7202  0.3359
45158SOL     OW53083   4.321   9.999   2.594 -0.0055 -0.2307  0.0617
45158SOL    HW153084   4.395   9.955   2.637  0.1283 -1.5852 -1.4583
45158SOL    HW253085   4.245   9.972   2.646  0.4763  0.9309  1.4581
45159SOL     OW53086   3.010   4.357   2.014  0.0632  0.4936 -0.1386
45159SOL    HW153087   3.068   4.432   2.018 -0.1060  0.5631  2.4631
45159SOL    HW253088   2.958   4.371   1.935  1.1687  2.2255 -0.6056
45160SOL     OW53089  13.336   9.008   8.143 -0.0424 -0.1121  0.4636
45160SOL    HW153090  13.421   9.017   8.101  0.3353 -2.0553  0.7138
45160SOL    HW253091  13.331   8.915   8.167 -2.2422 -0.0570  0.4120
45161SOL     OW53092  10.899   4.295   6.759 -0.3755  0.7242 -0.9230
45161SOL    HW153093  10.966   4.336   6.814 -0.0362 -1.4663  0.4017
45161SOL    HW253094  10.948   4.249   6.691 -0.5292 -0.5255 -0.2053
45162SOL     OW53095   4.962   8.161   8.343 -0.2779  0.5125  0.4678
45162SOL    HW153096   4.968   8.232   8.408 -0.4405  1.3146 -0.3772
45162SOL    HW253097   4.868   8.156   8.322 -0.2003  0.3724  0.1582
45163SOL     OW53098  11.904   2.160  13.341  0.2990 -0.5255  0.0202
45163SOL    HW153099  11.950   2.147  13.424  0.3411 -0.3698  0.0213
45163SOL    HW253100  11.890   2.255  13.336  1.6204 -0.3533 -0.8523
45164SOL     OW53101   9.010   2.640   9.472 -0.2783 -0.2548  0.5224
45164SOL    HW153102   9.071   2.692   9.418  1.9376 -0.2798  2.8080
45164SOL    HW253103   9.041   2.550   9.462 -0.3303 -0.3509  1.1953
45165SOL     OW53104   5.348   9.973  12.289  0.0670 -0.0504 -0.1626
45165SOL    HW153105   5.414   9.999  12.353 -1.4717 -0.0825  1.5250
45165SOL    HW253106   5.390   9.905  12.236  1.0087 -0.9047  1.6148
45166SOL     OW53107   7.573   5.763   0.224 -0.2483  0.1222  0.3679
45166SOL    HW153108   7.516   5.841   0.226 -1.1945 -0.2441 -3.5906
45166SOL    HW253109   7.512   5.689   0.221  0.6018 -0.6648  1.6092
45167SOL     OW53110   4.975   9.166   1.046 -0.1192  0.5806  0.4099
45167SOL    HW153111   5.019   9.094   1.001  0.0176  0.6706  0.3971
45167SOL    HW253112   4.985   9.240   0.986 -2.0018  0.1495 -0.5156
45168SOL     OW53113   0.250   5.829   4.198  0.5119  0.6926  0.2739
45168SOL    HW153114   0.278   5.789   4.280  1.6276  3.0422  1.1036
45168SOL    HW253115   0.308   5.791   4.131 -0.1212 -0.9022  0.5783
45169SOL     OW53116   0.813  12.621   9.740  0.0110  0.4923 -0.1540
45169SOL    HW153117   0.773  12.688   9.795 -1.7858 -0.5308 -0.1429
45169SOL    HW253118   0.889  12.591   9.791 -2.0026 -0.9636  2.2579
45170SOL     OW53119   7.461   3.917  11.297 -0.7189  0.2585 -0.0247
45170SOL    HW153120   7.416   3.845  11.253  1.1522 -1.2776  0.4862
45170SOL    HW253121   7.531   3.942  11.237  0.0830  0.0561  0.8000
45171SOL     OW53122   0.212   6.254  10.627 -0.6966  0.1610 -0.5546
45171SOL    HW153123   0.268   6.296  10.561  0.2635  2.0199  1.3015
45171SOL    HW253124   0.273   6.226  10.695 -1.7813 -0.4270  0.1956
45172SOL     OW53125   8.288   2.006   5.363 -0.0511 -0.6362  0.1547
45172SOL    HW153126   8.301   2.052   5.281 -0.0473 -0.0091  0.5037
45172SOL    HW253127   8.280   1.914   5.338  1.8007 -0.6816 -0.3788
45173SOL     OW53128  13.798   1.974   6.484  0.2666  0.2626 -0.8562
45173SOL    HW153129  13.764   1.949   6.398 -2.8271  0.7750  0.0907
45173SOL    HW253130  13.768   2.064   6.496  1.0255  0.3402  0.5729
45174SOL     OW53131  10.206  10.974  13.226  0.0996 -0.0053 -0.2221
45174SOL    HW153132  10.261  10.897  13.238  1.0629  0.7423  0.4028
45174SOL    HW253133  10.128  10.942  13.180  1.2939 -1.0163 -1.6606
45175SOL     OW53134   3.968   7.143   9.581  0.8563  0.6123 -0.4574
45175SOL    HW153135   3.899   7.166   9.519  0.1768 -1.3099 -0.5010
45175SOL    HW253136   3.981   7.222   9.633 -0.0278  1.6154 -1.6958
45176SOL     OW53137   0.656   2.353  10.425  0.4005  0.1633  0.0847
45176SOL    HW153138   0.657   2.305  10.508 -1.8097 -1.2941 -0.6405
45176SOL    HW253139   0.604   2.298  10.367 -0.5311  2.5098 -1.4222
45177SOL     OW53140   2.514   7.788  12.994 -0.2384  0.2015  0.1630
45177SOL    HW153141   2.586   7.847  12.970  0.6786  0.0739  2.3788
45177SOL    HW253142   2.544   7.701  12.969  0.2028  0.2055  0.6567
45178SOL     OW53143   5.338  10.685  10.443  0.3832 -0.3017 -0.0207
45178SOL    HW153144   5.429  10.689  10.473  0.7566 -3.0415 -0.5303
45178SOL    HW253145   5.343  10.685  10.348 -0.0535 -1.2239 -0.0626
45179SOL     OW53146   2.498  10.370   2.008  0.0132  0.1815 -0.2608
45179SOL    HW153147   2.587  10.396   1.983 -0.2764  1.2594 -0.2416
45179SOL    HW253148   2.510  10.294   2.064  0.9032  0.1101 -0.5270
45180SOL     OW53149   6.653   0.159  11.864  0.6335 -0.4066 -0.1469
45180SOL    HW153150   6.632   0.065  11.866 -0.4151 -0.2244 -1.4629
45180SOL    HW253151   6.618   0.193  11.946  1.8641 -1.3017  0.7985
45181SOL     OW53152   7.845  10.345   2.422  0.1614 -0.1558  0.2203
45181SOL    HW153153   7.827  10.359   2.515 -3.1166  3.0236 -0.6526
45181SOL    HW253154   7.758  10.334   2.382  1.1057  2.2370 -2.8630
45182SOL     OW53155   6.033   2.742   9.066 -0.5229 -0.7643 -0.1312
45182SOL    HW153156   5.991   2.826   9.047  0.8900 -0.0941 -0.4841
45182SOL    HW253157   6.121   2.751   9.029  1.2673 -0.7029  3.6636
45183SOL     OW53158   7.315   7.953   4.221  0.4300  0.6401  0.2183
45183SOL    HW153159   7.404   7.928   4.245 -0.4917 -1.3346  1.8573
45183SOL    HW253160   7.283   8.004   4.296 -0.0893  0.6291  0.0104
45184SOL     OW53161   0.190   2.076   2.033 -0.3982  0.1087  0.5955
45184SOL    HW153162   0.212   2.169   2.030  0.5031 -0.1072  0.0564
45184SOL    HW253163   0.270   2.034   2.063 -0.1848 -0.6646 -0.9617
45185SOL     OW53164   7.094  10.797   1.612  0.0842  0.2367  0.4194
45185SOL    HW153165   7.034  10.770   1.543 -0.9117  0.1036  1.3122
45185SOL    HW253166   7.043  10.859   1.665  0.6824 -0.0067  1.2939
45186SOL     OW53167   9.644   8.091  10.379 -0.3265 -0.5761  0.3526
45186SOL    HW153168   9.625   8.003  10.345 -2.7674  0.1243 -0.2947
45186SOL    HW253169   9.602   8.150  10.317  3.5979  1.2995 -0.8348
45187SOL     OW53170   6.273   0.092  10.734 -0.0254  0.1093  0.0201
45187SOL    HW153171   6.207   0.142  10.781  1.8817  2.2537  0.5878
45187SOL    HW253172   6.338   0.069  10.801  1.6097  1.2635 -1.0884
45188SOL     OW53173   5.043  13.242   0.184  0.2158 -0.1563 -0.1625
45188SOL    HW153174   5.114  13.294   0.144  1.0629  0.6150  2.1905
45188SOL    HW253175   5.084  13.158   0.204 -0.3245 -0.6934 -1.2455
45189SOL     OW53176   8.782  13.964  13.568  0.2562 -0.4957 -0.2704
45189SOL    HW153177   8.828  13.893  13.522 -0.4556 -0.3748 -1.2165
45189SOL    HW253178   8.758  14.025  13.498 -0.4398 -0.0660  0.3382
45190SOL     OW53179  11.453   8.986   1.550 -0.2991  0.0761 -0.7546
45190SOL    HW153180  11.532   9.027   1.584  0.3538 -1.4564 -0.3259
45190SOL    HW253181  11.396   8.977   1.627  0.1026 -0.9781 -0.5576
45191SOL     OW53182  12.389   8.950  11.988  0.1144  0.3227  0.2929
45191SOL    HW153183  12.397   8.987  11.900  0.6134  1.6041  0.8596
45191SOL    HW253184  12.391   8.855  11.974 -1.6693  0.4524 -1.2406
45192SOL     OW53185  13.230   5.282   0.864  0.5614  0.0347  0.0508
45192SOL    HW153186  13.266   5.230   0.936 -1.5631 -2.5610 -0.6192
45192SOL    HW253187  13.153   5.325   0.902 -0.3152 -0.9950 -0.5273
45193SOL     OW53188   3.196  13.295  12.850  0.5287 -0.0624 -0.1816
45193SOL    HW153189   3.252  13.370  12.829  0.7039 -0.1089  0.1233
45193SOL    HW253190   3.116  13.311  12.800  0.3434  0.6190  0.3181
45194SOL     OW53191  11.594  10.917   4.345  0.5800 -0.0844  0.0463
45194SOL    HW153192  11.504  10.932   4.316  0.5434  2.6872  1.2699
45194SOL    HW253193  11.647  10.935   4.267  0.1227 -1.2043 -0.5368
45195SOL     OW53194  12.250   7.174   6.636  0.2565  0.2927  0.1956
45195SOL    HW153195  12.236   7.263   6.667  0.2426 -0.2918  2.0080
45195SOL    HW253196  12.233   7.178   6.542 -0.3313  2.0582  0.3402
45196SOL     OW53197   0.934   7.872   8.430 -0.6924  0.0346  0.2580
45196SOL    HW153198   0.873   7.944   8.413 -1.4678 -0.4604  0.8675
45196SOL    HW253199   0.978   7.857   8.346 -1.1700  0.6253 -0.1027
45197SOL     OW53200   0.063   4.360   8.338 -0.3420  0.1095 -0.3547
45197SOL    HW153201   0.064   4.264   8.338 -0.5779  0.0963 -1.4365
45197SOL    HW253202   0.048   4.384   8.247 -0.0339  1.1850 -0.1366
45198SOL     OW53203  10.959   9.251  13.813 -0.0865  0.1049  0.2685
45198SOL    HW153204  10.914   9.309  13.751 -0.6176 -0.2964  0.2730
45198SOL    HW253205  11.037   9.300  13.840 -0.9569  1.1690  0.9072
45199SOL     OW53206   0.153   4.639   3.346  0.6311  0.2978 -0.3166
45199SOL    HW153207   0.209   4.693   3.402  0.4958 -0.4226  0.5188
45199SOL    HW253208   0.196   4.554   3.344  0.6997  0.3457 -1.4148
45200SOL     OW53209   2.692   1.979   4.265 -0.2255  0.0292 -0.5065
45200SOL    HW153210   2.636   1.970   4.188 -0.8255  0.6833 -0.1610
45200SOL    HW253211   2.763   1.917   4.250  1.2623  2.1402 -2.9926
45201SOL     OW53212   0.469   1.058   0.307  0.0476  0.0194 -0.1069
45201SOL    HW153213   0.407   1.123   0.275  1.6535  1.6829 -0.0497
45201SOL    HW253214   0.415   0.990   0.348 -1.8178  0.0777 -2.3048
45202SOL     OW53215   9.633   0.959   2.220 -0.0944 -0.2907 -0.0545
45202SOL    HW153216   9.690   1.008   2.278  0.3691 -1.4530  0.5149
45202SOL    HW253217   9.610   1.020   2.151  2.3374  0.0825 -0.6339
45203SOL     OW53218   7.808   3.788   9.986 -0.5345  0.2015 -0.2360
45203SOL    HW153219   7.893   3.812   9.949  1.0309 -0.8220  2.3387
45203SOL    HW253220   7.761   3.747   9.914  2.0354 -1.1790 -1.2886
45204SOL     OW53221   1.896   3.375  11.745 -0.3594 -0.0418 -0.1433
45204SOL    HW153222   1.884   3.345  11.836 -0.3305  1.7508  0.4861
45204SOL    HW253223   1.978   3.424  11.747 -0.8295  0.7923 -0.9298
45205SOL     OW53224   7.104   8.242  11.601 -0.3158 -0.1495 -0.2730
45205SOL    HW153225   7.075   8.163  11.554  0.7832 -1.4746  1.1829
45205SOL    HW253226   7.193   8.258  11.569  0.4216 -1.0346  1.2462
45206SOL     OW53227   7.863   1.279  11.317 -0.1770 -0.0772  0.4067
45206SOL    HW153228   7.943   1.288  11.369 -0.5982  1.8575  0.8279
45206SOL    HW253229   7.881   1.209  11.256  2.0605  0.6591  0.1419
45207SOL     OW53230   4.818  11.960  13.915  0.3597 -0.3075  0.0967
45207SOL    HW153231   4.781  11.928  13.997 -0.3054  0.5663  0.1516
45207SOL    HW253232   4.913  11.950  13.925  0.3002  0.0301  1.0696
45208SOL     OW53233  12.877   3.230   8.002 -0.3103 -0.5745 -0.1165
45208SOL    HW153234  12.825   3.150   8.015  0.5578 -1.2872 -0.8663
45208SOL    HW253235  12.816   3.293   7.965 -0.6670 -1.3894 -0.9645
45209SOL     OW53236   7.143   1.511  13.101 -0.5685  0.0454 -0.2410
45209SOL    HW153237   7.198   1.448  13.054  0.1632  0.3927  0.1408
45209SOL    HW253238   7.140   1.587  13.043 -0.0674  0.2896  0.0502
45210SOL     OW53239   1.194   9.697   0.093  0.0986 -0.0454  0.2974
45210SOL    HW153240   1.134   9.769   0.072 -1.3473 -1.0029  0.9609
45210SOL    HW253241   1.178   9.679   0.185  0.9239 -0.7731  0.3063
45211SOL     OW53242  10.777   5.585  12.945 -0.4015 -0.3259  0.2783
45211SOL    HW153243  10.682   5.593  12.943 -0.6036 -2.0654  1.2070
45211SOL    HW253244  10.801   5.606  13.035  0.2692  1.4091 -0.2623
45212SOL     OW53245  13.852   8.714  13.057  0.2665  0.0481  0.3927
45212SOL    HW153246  13.848   8.749  13.146  0.6137  0.4452  0.2550
45212SOL    HW253247  13.789   8.766  13.008 -0.3006 -0.5159  0.5200
45213SOL     OW53248   8.532  12.556  10.669  0.1323  0.4987 -0.0192
45213SOL    HW153249   8.617  12.561  10.626  0.6891  0.6117  1.0447
45213SOL    HW253250   8.497  12.470  10.646  0.9620  0.0760  0.2990
45214SOL     OW53251   4.284   0.457   2.616 -0.3169 -0.3377 -0.1160
45214SOL    HW153252   4.362   0.449   2.671 -0.6284  0.9094  0.5442
45214SOL    HW253253   4.315   0.441   2.527  0.8637  0.9149  0.0382
45215SOL     OW53254   9.970  12.983   1.337  0.5651 -0.0576 -0.4304
45215SOL    HW153255   9.932  12.992   1.425  1.3470 -0.6034 -0.0289
45215SOL    HW253256   9.894  12.984   1.279 -0.0167 -0.4003  0.3014
45216SOL     OW53257   7.331   2.625  13.274 -0.1478  0.4348  0.4898
45216SOL    HW153258   7.373   2.540  13.266  0.9287  1.0126 -0.2878
45216SOL    HW253259   7.298   2.627  13.364 -1.5640 -1.3850  0.0588
45217SOL     OW53260   3.429  10.852   0.383 -0.0959  0.1995 -0.1843
45217SOL    HW153261   3.399  10.868   0.472 -2.0022  0.3257 -0.8008
45217SOL    HW253262   3.487  10.925   0.364 -1.0186  1.1189  0.3972
45218SOL     OW53263   3.110   1.378   1.174 -0.2367  0.0867  0.6404
45218SOL    HW153264   3.087   1.309   1.113  1.0502 -0.2635  0.5282
45218SOL    HW253265   3.108   1.336   1.260  0.3627 -0.0455  0.5906
45219SOL     OW53266   4.130   0.703   9.131  0.1521 -0.5559 -0.4148
45219SOL    HW153267   4.096   0.640   9.068 -2.0590 -0.0017  0.1172
45219SOL    HW253268   4.096   0.787   9.101  1.0330  0.0531  0.2297
45220SOL     OW53269  11.842   6.094  10.478 -0.1563  0.7157 -0.2460
45220SOL    HW153270  11.755   6.123  10.454  0.1140  2.1248  0.3726
45220SOL    HW253271  11.857   6.014  10.427 -1.5716  0.7728 -0.7656
45221SOL     OW53272   0.712   7.496   1.130  0.1952 -0.3520  0.0282
45221SOL    HW153273   0.683   7.468   1.043  0.0201 -0.1383  0.0174
45221SOL    HW253274   0.706   7.592   1.128 -0.7110 -0.3865  0.5839
45222SOL     OW53275  11.372   4.552   9.050  0.0264  0.4206  0.3041
45222SOL    HW153276  11.322   4.631   9.031 -0.5277  0.6090  2.2747
45222SOL    HW253277  11.357   4.537   9.143  0.2941 -1.9023  0.0224
45223SOL     OW53278   2.096   7.822   4.174  0.1955 -0.7628 -0.1947
45223SOL    HW153279   2.165   7.758   4.157 -1.1840 -2.2099 -0.5678
45223SOL    HW253280   2.140   7.892   4.222  1.5517 -2.5116  1.2602
45224SOL     OW53281  12.126   2.731   0.807  0.5962 -0.7184 -0.1012
45224SOL    HW153282  12.119   2.698   0.896  0.6304  0.6236  0.4169
45224SOL    HW253283  12.060   2.682   0.758 -1.5887  0.6596  1.3197
45225SOL     OW53284   9.097   3.023  10.914 -0.2647 -0.2728  0.1961
45225SOL    HW153285   9.106   2.932  10.942  0.2190  0.1613  1.5132
45225SOL    HW253286   9.022   3.056  10.963 -1.0042 -0.2042 -0.9607
45226SOL     OW53287   9.275   9.557  13.308 -0.8829  0.3498 -0.6812
45226SOL    HW153288   9.298   9.645  13.339  1.0819  0.2434 -1.6285
45226SOL    HW253289   9.205   9.528  13.365 -0.3230  1.8279  0.8248
45227SOL     OW53290   1.751   3.369  11.156  0.4070 -0.2161  0.4493
45227SOL    HW153291   1.714   3.420  11.227  1.1427 -0.2990  0.8964
45227SOL    HW253292   1.738   3.423  11.078  0.9358  0.5488  0.8764
45228SOL     OW53293   7.585   4.477   7.122 -0.4621 -0.2179 -0.5573
45228SOL    HW153294   7.583   4.481   7.027  0.2533  0.6535 -0.5456
45228SOL    HW253295   7.660   4.420   7.142 -1.3627 -1.4390 -0.5097
45229SOL     OW53296   3.720   4.427  12.030  0.5994 -0.4697  0.1067
45229SOL    HW153297   3.782   4.428  12.103 -0.4780 -0.2336  1.0518
45229SOL    HW253298   3.650   4.369  12.060 -0.3999  0.5136 -0.2837
45230SOL     OW53299  13.740  12.313   6.979 -0.0389  0.0438  0.6513
45230SOL    HW153300  13.735  12.238   7.038 -1.0281  0.0461  0.5886
45230SOL    HW253301  13.772  12.277   6.896  1.5596  0.0745  1.2065
45231SOL     OW53302  11.360  13.053  10.964  0.1747  0.5199  0.4332
45231SOL    HW153303  11.304  12.976  10.950  0.2948  0.4797  0.1589
45231SOL    HW253304  11.431  13.021  11.020 -0.0140  0.5428  0.6869
45232SOL     OW53305   9.171   5.034   9.679  0.4075  0.3546 -0.4253
45232SOL    HW153306   9.118   5.089   9.736  1.0649 -0.2716  0.8448
45232SOL    HW253307   9.209   4.969   9.738  0.1830 -1.0503 -1.7678
45233SOL     OW53308   7.342   9.475  13.886 -0.3873 -0.1159 -0.1193
45233SOL    HW153309   7.259   9.431  13.900 -1.6386  1.1924 -2.7404
45233SOL    HW253310   7.319   9.560  13.847  2.1748 -0.3919 -2.5804
45234SOL     OW53311   0.189  10.121   3.873  0.0772  0.1159 -0.1310
45234SOL    HW153312   0.237  10.039   3.881  1.7735  1.1021  0.3877
45234SOL    HW253313   0.195  10.143   3.780 -0.7163 -0.5062 -0.3446
45235SOL     OW53314   4.194  10.286  11.957 -0.3931  0.1547 -0.2873
45235SOL    HW153315   4.125  10.334  11.912 -0.1648  0.7571  0.0049
45235SOL    HW253316   4.259  10.269  11.889  0.1893  1.5107 -0.0851
45236SOL     OW53317   5.957  11.526   7.132 -0.0152  0.0542 -0.4316
45236SOL    HW153318   5.952  11.466   7.206 -0.5599  2.8635  2.0132
45236SOL    HW253319   5.867  11.536   7.102  0.1210 -0.5898 -1.0716
45237SOL     OW53320  13.515   8.537  13.690  0.1390 -0.0806  0.5367
45237SOL    HW153321  13.558   8.452  13.693  0.3693  0.0568  1.3062
45237SOL    HW253322  13.432   8.523  13.736  0.2745  0.1603  0.8583
45238SOL     OW53323   2.751  12.331   8.273  0.0947 -0.1995 -0.3803
45238SOL    HW153324   2.773  12.238   8.285  0.1936 -0.2546 -0.9844
45238SOL    HW253325   2.830  12.370   8.235 -0.5489 -0.2491 -1.8496
45239SOL     OW53326   1.722   7.002   5.579  0.0226 -0.1170  0.5075
45239SOL    HW153327   1.705   6.982   5.487  1.7274  0.4693  0.0255
45239SOL    HW253328   1.650   7.061   5.604 -0.0212  0.3649 -0.6865
45240SOL     OW53329   7.321   0.839   1.038 -0.1660  0.1616 -0.6340
45240SOL    HW153330   7.356   0.809   0.954  0.2092 -0.3193 -0.3083
45240SOL    HW253331   7.355   0.929   1.047 -0.1462  0.1864 -0.9602
45241SOL     OW53332  10.444  13.352  11.476  1.4292 -0.1524  0.1497
45241SOL    HW153333  10.438  13.275  11.420  2.1396 -0.6613  0.7537
45241SOL    HW253334  10.355  13.366  11.507  1.0754 -0.0107 -0.8999
45242SOL     OW53335   4.688   1.573   3.870  0.0939  0.2485 -0.1003
45242SOL    HW153336   4.664   1.594   3.780  0.0204 -0.2464 -0.1989
45242SOL    HW253337   4.690   1.477   3.873  0.5318  0.2637  0.3100
45243SOL     OW53338   0.145   6.835  10.009  0.4736  0.1635  0.2964
45243SOL    HW153339   0.131   6.793   9.924 -0.0026  1.0792 -0.1039
45243SOL    HW253340   0.229   6.880  10.000  1.0804 -0.8450  0.7926
45244SOL     OW53341  12.225   8.445   4.069  0.7217  0.2032  0.5477
45244SOL    HW153342  12.248   8.464   3.978  0.3952 -2.0498 -0.0660
45244SOL    HW253343  12.303   8.404   4.106  0.8148  1.0071  1.2683
45245SOL     OW53344   2.133   5.649   7.739  0.8621 -0.4318 -0.2877
45245SOL    HW153345   2.111   5.742   7.747  0.1849 -0.6684  0.9479
45245SOL    HW253346   2.089   5.620   7.659 -0.8840 -0.1930  0.5311
45246SOL     OW53347  13.433  10.081   4.234 -0.8491  0.3481  0.2983
45246SOL    HW153348  13.516  10.067   4.189 -0.6651  0.5354  0.5786
45246SOL    HW253349  13.440  10.168   4.273 -0.6011 -0.1974  1.5247
45247SOL     OW53350  12.676   7.375  12.362  0.5433  0.4928  0.3736
45247SOL    HW153351  12.748   7.429  12.395  2.2676 -0.0630 -2.2513
45247SOL    HW253352  12.679   7.296  12.416  1.0919  1.0005  1.1073
45248SOL     OW53353   7.844   7.329  14.065 -0.5582 -0.7490  0.8059
45248SOL    HW153354   7.790   7.330  14.144  1.4536  1.6372  2.3149
45248SOL    HW253355   7.906   7.257  14.078  0.8751  0.6693  2.3484
45249SOL     OW53356   1.286   8.047   7.082  0.4964  0.2687 -0.5823
45249SOL    HW153357   1.290   8.023   6.989  1.3519  0.8476 -0.7038
45249SOL    HW253358   1.194   8.033   7.106 -0.4015  2.6548 -2.2236
45250SOL     OW53359   2.318   6.583   2.107 -1.0202  0.9202 -0.6522
45250SOL    HW153360   2.330   6.595   2.202  0.2441 -0.9493 -0.5154
45250SOL    HW253361   2.330   6.671   2.071 -0.1143  1.4506  0.8145
45251SOL     OW53362   5.259  11.929   7.440  0.1173 -0.1882 -0.0441
45251SOL    HW153363   5.213  11.849   7.466 -1.2908  1.0662  1.5886
45251SOL    HW253364   5.343  11.924   7.487 -0.3032 -0.3430  0.7143
45252SOL     OW53365   8.109   7.546  12.758 -0.7005 -0.0839 -0.5653
45252SOL    HW153366   8.112   7.617  12.694  0.1497 -1.3182 -1.9672
45252SOL    HW253367   8.094   7.589  12.842  1.7415  1.9544 -1.0599
45253SOL     OW53368  10.866   1.919   4.001  0.1978  0.3581  0.4310
45253SOL    HW153369  10.946   1.895   3.954 -0.2376  1.7220 -1.0895
45253SOL    HW253370  10.839   2.001   3.962 -1.5949  0.2723  1.3920
45254SOL     OW53371   2.628   1.645   3.141 -0.4187 -0.0063 -0.2943
45254SOL    HW153372   2.571   1.707   3.095 -0.5639 -0.7785 -1.1815
45254SOL    HW253373   2.716   1.676   3.122 -0.4986  0.2885 -0.2023
45255SOL     OW53374   2.937   0.379   7.212  0.6599  0.3658 -0.0826
45255SOL    HW153375   3.030   0.394   7.231  1.2106 -2.2692 -0.3417
45255SOL    HW253376   2.938   0.330   7.130 -0.9944  0.4139 -0.1548
45256SOL     OW53377   6.521  10.426   0.564 -0.0732 -0.2535  0.1190
45256SOL    HW153378   6.483  10.392   0.483 -0.0156  1.2998 -0.5895
45256SOL    HW253379   6.447  10.432   0.624 -0.8251  1.6947 -0.8983
45257SOL     OW53380   2.262   4.266  10.716 -0.7089  0.6858  0.0799
45257SOL    HW153381   2.352   4.288  10.691  0.0724 -1.2078  0.9694
45257SOL    HW253382   2.215   4.259  10.632  0.3679  0.2513 -0.5153
45258SOL     OW53383   4.071   2.120   0.171  0.4172  0.2101 -0.2235
45258SOL    HW153384   4.058   2.177   0.247  0.7943  0.3489 -0.2583
45258SOL    HW253385   4.054   2.032   0.203  0.8913  0.2370  0.1043
45259SOL     OW53386  10.549   5.645   0.775  0.0723  0.1505 -0.8438
45259SOL    HW153387  10.575   5.704   0.846 -2.0769  1.4867 -1.1031
45259SOL    HW253388  10.630   5.632   0.726  0.8790  1.9804 -0.1244
45260SOL     OW53389  10.400  13.641   3.967 -0.2557 -0.0449  0.4084
45260SOL    HW153390  10.409  13.709   4.034  0.0608 -0.9051  1.2696
45260SOL    HW253391  10.376  13.562   4.016  1.0625 -0.9560 -0.3291
45261SOL     OW53392   1.658   4.697   9.732  0.0710  0.4177 -0.0597
45261SOL    HW153393   1.569   4.668   9.754  0.0830 -0.4967 -1.1207
45261SOL    HW253394   1.697   4.720   9.816 -0.6143 -0.8241  0.6250
45262SOL     OW53395   3.089   2.477   3.247  0.2787  0.0700  0.1197
45262SOL    HW153396   3.081   2.570   3.270  1.2509  0.2163 -0.0661
45262SOL    HW253397   3.052   2.471   3.159  0.9077  0.4416 -0.1798
45263SOL     OW53398   2.111  13.703  11.616  0.0382  0.3543 -0.1911
45263SOL    HW153399   2.189  13.742  11.576  0.0735  0.2825 -0.1920
45263SOL    HW253400   2.112  13.612  11.588  1.1632 -0.2251  1.6116
45264SOL     OW53401   3.118  11.432   5.386  0.0483 -0.5720  0.2387
45264SOL    HW153402   3.166  11.462   5.309 -0.2076  0.9763  0.6357
45264SOL    HW253403   3.027  11.450   5.366  0.0412  0.5671  1.1671
45265SOL     OW53404   5.554   7.170   1.013 -0.1559  0.0739  0.5463
45265SOL    HW153405   5.522   7.179   1.102 -0.6653 -1.1567  0.5094
45265SOL    HW253406   5.492   7.111   0.971  0.4058  0.1711 -0.4553
45266SOL     OW53407  13.891   2.429   8.739 -0.2486  0.3875 -0.0653
45266SOL    HW153408  13.847   2.421   8.824  1.3452  1.0318  0.8531
45266SOL    HW253409  13.922   2.340   8.720  2.2810  0.8101  1.6902
45267SOL     OW53410  10.973   5.218  13.223 -0.7181 -0.0302 -0.1282
45267SOL    HW153411  10.878   5.210  13.231 -0.6431  0.7507  2.7513
45267SOL    HW253412  10.991   5.310  13.242  0.6925 -0.4801  0.9047
45268SOL     OW53413   1.977   0.985  12.771 -0.0375 -0.2430 -0.1486
45268SOL    HW153414   2.015   0.947  12.692 -0.4743  0.7020 -0.8329
45268SOL    HW253415   1.905   0.927  12.794 -1.3730  0.6651 -1.7903
45269SOL     OW53416   9.080   0.972  13.885  0.4706 -0.4797  0.0835
45269SOL    HW153417   9.171   0.988  13.910 -0.0601  0.8044  1.3460
45269SOL    HW253418   9.028   1.008  13.957 -1.0772  0.3079 -1.3410
45270SOL     OW53419   4.604   2.467   4.008 -0.3690 -0.2312  0.0852
45270SOL    HW153420   4.692   2.502   4.017 -0.6034  0.4603 -0.2369
45270SOL    HW253421   4.562   2.524   3.944 -0.9899 -0.6715  0.0904
45271SOL     OW53422   0.093   7.906   0.274 -0.4006 -0.3741  0.0304
45271SOL    HW153423   0.183   7.878   0.255 -0.7280 -0.0140 -2.2602
45271SOL    HW253424   0.040   7.827   0.264 -0.5144 -0.2959  0.0088
45272SOL     OW53425   3.217   9.608   6.363 -0.4062  0.0213 -0.0482
45272SOL    HW153426   3.150   9.652   6.311 -0.4460 -0.7972 -0.7218
45272SOL    HW253427   3.294   9.665   6.357 -0.6284  0.2865 -0.4086
45273SOL     OW53428   6.192  10.105  10.871 -0.2622 -0.1955 -0.1825
45273SOL    HW153429   6.242  10.146  10.801  0.6014 -0.0358  0.5051
45273SOL    HW253430   6.141  10.176  10.909  0.4126  0.0321  0.3127
45274SOL     OW53431  10.084   5.691   3.004  0.2350  0.2506  0.0072
45274SOL    HW153432  10.003   5.743   3.005  0.6230  0.9063 -1.2389
45274SOL    HW253433  10.153   5.755   3.023  0.5439 -0.1570  0.2598
45275SOL     OW53434   6.212   8.005   5.215 -0.1497 -0.1817  0.4505
45275SOL    HW153435   6.264   7.999   5.134 -0.8028  0.1620  0.0042
45275SOL    HW253436   6.215   8.098   5.239  0.4560 -0.3550  1.1117
45276SOL     OW53437  13.586   2.770   4.715  0.2720  0.4389 -0.4596
45276SOL    HW153438  13.545   2.747   4.798  0.5375 -0.9208 -0.6857
45276SOL    HW253439  13.524   2.740   4.648 -0.3446  2.2920 -0.7797
45277SOL     OW53440  12.197  12.752   3.413  0.4613 -0.1666 -0.2622
45277SOL    HW153441  12.266  12.693   3.383  0.4395 -0.0819 -0.4844
45277SOL    HW253442  12.186  12.814   3.341 -1.4707 -1.5703 -1.2565
45278SOL     OW53443   7.754   9.338   5.501 -0.9458  0.3637 -0.0374
45278SOL    HW153444   7.666   9.329   5.538 -1.0924 -0.8897 -0.6279
45278SOL    HW253445   7.809   9.283   5.556 -0.2175  2.2148  1.1841
45279SOL     OW53446   0.186  12.723   1.688 -0.0406 -0.1839 -0.0989
45279SOL    HW153447   0.222  12.646   1.644  2.6269 -0.5421  2.4207
45279SOL    HW253448   0.116  12.689   1.743  0.2296 -0.5997 -0.0122
45280SOL     OW53449  11.750  13.217   6.174 -0.1480 -0.6218 -0.4845
45280SOL    HW153450  11.760  13.195   6.081  0.0864  0.3598 -0.7014
45280SOL    HW253451  11.710  13.304   6.174 -0.1561 -0.6184  0.3370
45281SOL     OW53452  12.631   7.148   7.460  0.4876 -0.6775  0.1330
45281SOL    HW153453  12.592   7.208   7.524  0.6699 -1.3818  0.9314
45281SOL    HW253454  12.707   7.196   7.426  0.2523 -0.1998  0.2688
45282SOL     OW53455  12.063   7.708   7.756  0.1154  0.0022 -0.0057
45282SOL    HW153456  12.118   7.767   7.807  0.8964 -0.6182 -0.1014
45282SOL    HW253457  12.003   7.765   7.709  0.2314  0.6562  0.6250
45283SOL     OW53458   3.811   1.772  14.045  0.0642 -0.2646  0.4165
45283SOL    HW153459   3.904   1.790  14.030  0.2475 -2.6268 -2.0381
45283SOL    HW253460   3.809   1.686  14.086 -1.0207 -0.5476 -0.1764
45284SOL     OW53461   6.734  13.124   3.783 -0.0290  0.6139  0.4189
45284SOL    HW153462   6.780  13.203   3.810  1.3942  1.2132 -3.1760
45284SOL    HW253463   6.778  13.053   3.830  2.5054  1.4880 -0.4774
45285SOL     OW53464   1.454   5.999   1.582  0.4148  0.3434 -0.1362
45285SOL    HW153465   1.469   6.077   1.635  1.1463  1.4547 -1.8921
45285SOL    HW253466   1.400   6.029   1.509  0.0670 -0.9681 -0.4473
45286SOL     OW53467   3.502  13.398   6.695  0.4920 -0.3625 -0.0576
45286SOL    HW153468   3.581  13.343   6.689  1.2474  0.6045  0.8735
45286SOL    HW253469   3.486  13.425   6.604  0.2008 -1.9534 -0.5183
45287SOL     OW53470   4.935   1.039   7.111 -0.1441 -0.0386  0.3596
45287SOL    HW153471   4.989   1.005   7.040  0.5275  1.5618  0.0512
45287SOL    HW253472   4.926   1.132   7.091 -1.8074  0.0253  1.2020
45288SOL     OW53473  12.909   8.773   2.685  0.3782 -0.2698 -0.0423
45288SOL    HW153474  12.871   8.842   2.630 -0.4980 -0.0372  0.8235
45288SOL    HW253475  12.932   8.818   2.767  1.8421 -0.5663 -0.2619
45289SOL     OW53476   8.754   7.370   2.796 -0.0226 -0.0034 -0.1141
45289SOL    HW153477   8.817   7.314   2.842  1.6446  1.7137 -0.2120
45289SOL    HW253478   8.668   7.338   2.825  0.9122 -1.2122  1.4581
45290SOL     OW53479   0.628   6.090   4.577 -0.7182 -0.9258 -0.3904
45290SOL    HW153480   0.543   6.047   4.572 -1.1110 -0.2851  0.4806
45290SOL    HW253481   0.643   6.125   4.490 -2.1467  0.4220 -0.1356
45291SOL     OW53482  10.125  13.847   4.753 -0.4682 -0.3839  0.3763
45291SOL    HW153483  10.031  13.837   4.766 -0.1519 -3.3942  1.0482
45291SOL    HW253484  10.143  13.802   4.671  0.4146  0.0498  0.3235
45292SOL     OW53485   1.638   0.193   6.914  0.0264 -0.4711 -0.5816
45292SOL    HW153486   1.542   0.196   6.908  0.0598 -1.2365 -1.8800
45292SOL    HW253487   1.665   0.285   6.915 -0.7669 -0.2196  1.1751
45293SOL     OW53488   8.326   2.964   3.236 -0.4445  0.0122  0.0875
45293SOL    HW153489   8.287   2.981   3.150  3.4977 -0.4179 -2.0830
45293SOL    HW253490   8.322   3.048   3.282 -1.2093  0.7110 -1.2074
45294SOL     OW53491   0.545   6.156  10.349  0.0095 -0.7228 -0.4292
45294SOL    HW153492   0.506   6.115  10.271  1.4346 -0.0648 -1.5539
45294SOL    HW253493   0.546   6.087  10.415 -0.2031 -1.6543 -1.3788
45295SOL     OW53494   9.641   7.488   1.419 -0.4968 -0.4063  0.2213
45295SOL    HW153495   9.696   7.566   1.410  0.6219 -1.0977  0.8859
45295SOL    HW253496   9.583   7.491   1.343  2.1841 -1.0231 -1.9942
45296SOL     OW53497   1.411   6.878   5.516  0.1420 -0.3989 -0.1836
45296SOL    HW153498   1.469   6.803   5.506  2.0428  1.1244 -1.2663
45296SOL    HW253499   1.468   6.950   5.542 -1.5742  0.7516  0.6375
45297SOL     OW53500   3.396   2.777   9.686 -0.2915 -0.1040 -0.5666
45297SOL    HW153501   3.357   2.798   9.601  1.1825 -0.6487 -1.4178
45297SOL    HW253502   3.384   2.682   9.695  0.8706 -0.3040 -0.8980
45298SOL     OW53503   1.932   6.001  13.040 -0.4446  0.7777  0.3127
45298SOL    HW153504   2.007   5.944  13.025 -0.1226  1.3363 -0.1860
45298SOL    HW253505   1.908   5.985  13.132  0.3651  0.7062  0.5168
45299SOL     OW53506   3.215  12.792   4.197 -0.0076  0.1537 -0.0850
45299SOL    HW153507   3.189  12.835   4.116 -0.4189  0.5602  0.2542
45299SOL    HW253508   3.225  12.699   4.173 -0.3227  0.2357 -0.5555
45300SOL     OW53509   0.924   1.202   4.822  0.3537  0.0961 -0.6103
45300SOL    HW153510   0.913   1.236   4.733 -1.1844 -1.9429 -1.2669
45300SOL    HW253511   1.019   1.200   4.835  0.5766  2.0360 -1.5065
45301SOL     OW53512   3.554  12.704   6.772 -0.1145 -0.6036  0.4543
45301SOL    HW153513   3.644  12.699   6.740 -0.4470 -0.0893 -0.6413
45301SOL    HW253514   3.559  12.682   6.865  1.4088  1.2570  0.8749
45302SOL     OW53515  13.719  12.273   0.343  0.3704  0.7704  0.1228
45302SOL    HW153516  13.714  12.186   0.304  0.3765  0.7759  0.1100
45302SOL    HW253517  13.637  12.282   0.392  1.3472 -0.1875  2.0651
45303SOL     OW53518   9.456   1.706   9.609 -0.0023  0.7310 -0.4662
45303SOL    HW153519   9.445   1.627   9.661  0.7252  0.1704 -1.1267
45303SOL    HW253520   9.443   1.677   9.519  0.3606  1.3461 -0.7229
45304SOL     OW53521  14.054   8.993   9.039 -0.3929  0.1896  0.2759
45304SOL    HW153522  14.116   9.035   9.100 -0.4429  0.0501  0.4234
45304SOL    HW253523  14.056   8.900   9.064 -1.1404  0.2806  0.7031
45305SOL     OW53524   1.670   3.786  12.160  1.0691  0.7561 -0.1516
45305SOL    HW153525   1.637   3.733  12.233  0.4144  0.4857 -0.6332
45305SOL    HW253526   1.733   3.730  12.116 -0.0220  0.1299 -0.9884
45306SOL     OW53527   5.993   7.982   0.203 -0.1403  0.0640  0.1539
45306SOL    HW153528   5.898   7.986   0.213 -0.2337 -1.0853 -0.0939
45306SOL    HW253529   6.011   7.892   0.176  0.9649  0.4458 -0.4743
45307SOL     OW53530   2.928   6.714  13.622  0.0433  0.3586  0.2500
45307SOL    HW153531   2.922   6.621  13.601  1.1520  0.4653 -0.6181
45307SOL    HW253532   2.840   6.748  13.606 -1.0594 -0.9618  2.9343
45308SOL     OW53533  12.222   4.060   6.660  0.6035 -0.6533 -0.5067
45308SOL    HW153534  12.170   3.990   6.698 -0.8680  0.5928 -0.0996
45308SOL    HW253535  12.308   4.052   6.701 -0.3116 -0.6411  1.5425
45309SOL     OW53536   0.503  11.396   1.261 -0.0583 -0.2508  0.2912
45309SOL    HW153537   0.567  11.467   1.253 -0.2692 -0.0265  0.5720
45309SOL    HW253538   0.516  11.362   1.350 -0.6712  0.1278  0.5314
45310SOL     OW53539  10.832   0.872  13.139  0.0650  0.0707 -0.2112
45310SOL    HW153540  10.747   0.904  13.170  0.2010 -0.0351  0.2784
45310SOL    HW253541  10.875   0.951  13.105 -0.1184  0.1746 -0.2088
45311SOL     OW53542   6.642   3.195  11.872 -0.2246 -0.3421 -0.2137
45311SOL    HW153543   6.652   3.246  11.792  1.3074 -0.9511 -0.4465
45311SOL    HW253544   6.559   3.148  11.861 -0.2701 -0.0454 -1.2136
45312SOL     OW53545   3.364   7.654  11.555 -0.1741 -0.1330 -0.1576
45312SOL    HW153546   3.382   7.572  11.509  2.5910  1.1248 -1.5525
45312SOL    HW253547   3.337   7.626  11.643  1.3317 -2.5462 -0.3535
45313SOL     OW53548  11.958   0.224  12.058  0.2263 -0.4510  0.0975
45313SOL    HW153549  11.921   0.284  12.122  0.1176 -0.3850 -0.0279
45313SOL    HW253550  12.034   0.185  12.103 -0.1904 -0.8431  0.4775
45314SOL     OW53551  12.785   8.241   8.290  0.0102  0.4662  0.1199
45314SOL    HW153552  12.760   8.168   8.234 -0.4951  0.2901  0.5688
45314SOL    HW253553  12.775   8.208   8.379  1.2985  0.5763  0.3195
45315SOL     OW53554  11.624  13.661   4.976 -0.5778 -0.8326 -0.0754
45315SOL    HW153555  11.637  13.755   4.959 -1.6808 -0.6977 -0.2325
45315SOL    HW253556  11.533  13.644   4.951 -0.6749 -1.7503  0.8309
45316SOL     OW53557   5.217   0.591   6.224 -0.3211  0.1514 -0.1995
45316SOL    HW153558   5.197   0.511   6.273 -0.3470 -1.0854 -2.1391
45316SOL    HW253559   5.260   0.648   6.288  0.8162 -1.8770  0.9443
45317SOL     OW53560  13.223   7.240   6.922  0.0475 -0.7923  0.2654
45317SOL    HW153561  13.270   7.201   6.996 -0.8340 -0.1476  1.1972
45317SOL    HW253562  13.137   7.263   6.958  0.8893  3.1955  0.2132
45318SOL     OW53563   0.534   2.832   0.182  0.4106 -0.2948 -0.0861
45318SOL    HW153564   0.599   2.764   0.200  0.8529  0.5341  1.6871
45318SOL    HW253565   0.582   2.914   0.187 -0.7587  0.3599  1.5684
45319SOL     OW53566   4.765   1.026   6.249  0.3860  0.1710  0.2550
45319SOL    HW153567   4.693   1.066   6.298 -0.9956 -0.7664 -0.9088
45319SOL    HW253568   4.789   1.092   6.184  1.1724  0.8146  1.1804
45320SOL     OW53569  11.068  13.604   6.936 -0.3227  0.4702  0.3574
45320SOL    HW153570  11.056  13.699   6.931  0.3934  0.5386 -0.3798
45320SOL    HW253571  11.073  13.586   7.030 -1.6782  0.9837  0.5449
45321SOL     OW53572  13.762   1.212  10.860  0.3747 -0.1377  0.2210
45321SOL    HW153573  13.756   1.304  10.835  0.3810 -0.2060 -0.0315
45321SOL    HW253574  13.837   1.178  10.812 -0.1070 -0.4723 -0.3059
45322SOL     OW53575  12.722   8.019   4.017 -0.2444 -0.5318 -0.0513
45322SOL    HW153576  12.782   8.069   3.962 -1.3572  2.8093  1.4753
45322SOL    HW253577  12.771   8.004   4.098 -0.6869  0.3091  0.3914
45323SOL     OW53578   0.998   3.735   6.227  0.3880 -0.4085 -0.1284
45323SOL    HW153579   1.055   3.724   6.303  1.0894 -0.5749 -0.6644
45323SOL    HW253580   0.916   3.770   6.263 -0.1873 -2.7197  1.0072
45324SOL     OW53581   6.093   2.178  11.082  0.1465  0.6434  0.1757
45324SOL    HW153582   6.029   2.248  11.068 -1.1240 -0.2005  1.5146
45324SOL    HW253583   6.059   2.104  11.032 -0.1011  0.1024  1.1255
45325SOL     OW53584   7.040   3.380  10.446 -0.3090 -0.1898  0.4693
45325SOL    HW153585   6.956   3.423  10.430 -0.9098 -1.7903 -0.9466
45325SOL    HW253586   7.103   3.452  10.454 -1.3194  0.9717 -1.4273
45326SOL     OW53587   9.947  10.984   3.644 -0.1741  0.0862 -0.4190
45326SOL    HW153588  10.036  10.974   3.675  0.2027  0.2180 -1.4067
45326SOL    HW253589   9.896  11.005   3.722  0.5077 -0.7880  0.2882
45327SOL     OW53590  10.741  10.658   4.344 -0.4024 -0.0987  0.2213
45327SOL    HW153591  10.705  10.616   4.266  2.2784 -0.8879 -0.7045
45327SOL    HW253592  10.815  10.711   4.311 -0.6088  1.3919  1.9754
45328SOL     OW53593   2.715   5.669   1.866 -0.5052 -0.7071 -0.3765
45328SOL    HW153594   2.631   5.702   1.898 -0.1913 -0.0003 -0.2513
45328SOL    HW253595   2.702   5.658   1.771 -1.3447 -2.5283 -0.0942
45329SOL     OW53596  13.485  11.722   6.330  0.5647  0.0653  0.2606
45329SOL    HW153597  13.549  11.713   6.400 -0.4523  1.6993  1.4504
45329SOL    HW253598  13.520  11.791   6.274  0.5127 -0.0183  0.1224
45330SOL     OW53599   6.880  10.635  12.257 -0.1575 -0.3162  0.5193
45330SOL    HW153600   6.917  10.716  12.294 -1.7387  0.0773  1.3029
45330SOL    HW253601   6.888  10.647  12.162  2.9901 -0.8882  0.5850
45331SOL     OW53602  12.471   9.734  11.142 -0.3620 -0.3072 -0.3014
45331SOL    HW153603  12.408   9.778  11.200 -0.2866  0.4082 -0.7543
45331SOL    HW253604  12.545   9.795  11.136 -1.1336  0.5065 -2.5929
45332SOL     OW53605   9.732   4.964   4.767 -0.0125  0.1996  0.3174
45332SOL    HW153606   9.688   4.960   4.852  0.0053  0.8853  0.3598
45332SOL    HW253607   9.752   4.872   4.747 -0.2036  0.0109  0.9508
45333SOL     OW53608   3.020   0.879  12.199  0.6025  0.3109  0.0122
45333SOL    HW153609   3.052   0.791  12.217 -1.2483 -0.5757 -0.8099
45333SOL    HW253610   2.951   0.893  12.264  1.0542  1.2759  0.3030
45334SOL     OW53611  13.848  13.353  11.609  0.2811  0.3822 -0.2353
45334SOL    HW153612  13.895  13.377  11.689 -0.4150 -0.5447  0.4700
45334SOL    HW253613  13.765  13.317  11.639  0.4076 -0.9045 -1.3176
45335SOL     OW53614   1.747   2.128   3.136  0.3295  0.0180  0.2104
45335SOL    HW153615   1.801   2.074   3.194 -0.0230 -1.6058 -0.9028
45335SOL    HW253616   1.699   2.064   3.083 -0.6563  1.4506 -0.6631
45336SOL     OW53617   6.098   7.628  10.662  0.2914  0.0881  0.4235
45336SOL    HW153618   6.145   7.710  10.679 -1.0239  1.0498 -0.4401
45336SOL    HW253619   6.006   7.651  10.672 -0.1396 -1.0961 -0.6202
45337SOL     OW53620   5.450  11.954  13.957  0.2278 -0.4053 -0.2709
45337SOL    HW153621   5.413  12.029  14.004 -2.1496 -0.7133 -1.5164
45337SOL    HW253622   5.494  11.902  14.026  3.0417  2.6227  0.4442
45338SOL     OW53623   7.567   1.173  11.128  0.1100  0.2835 -0.2162
45338SOL    HW153624   7.538   1.125  11.051 -0.4144 -0.7255  0.5849
45338SOL    HW253625   7.486   1.202  11.171  0.4069  1.5100 -0.4313
45339SOL     OW53626   4.431  12.283  11.322  0.1016 -0.0762  0.1349
45339SOL    HW153627   4.497  12.320  11.263  0.6136 -1.1552  0.0050
45339SOL    HW253628   4.376  12.358  11.347  0.2522  0.5083 -1.2172
45340SOL     OW53629   7.973   0.181  13.457 -0.1027  0.2209  0.2179
45340SOL    HW153630   8.006   0.244  13.393  0.7836 -0.2394  0.2015
45340SOL    HW253631   7.911   0.231  13.511 -1.7519  0.3638 -1.6685
45341SOL     OW53632   4.959  11.278   4.260  0.3694 -0.1658 -0.4060
45341SOL    HW153633   4.888  11.217   4.279  0.0684  0.7137  1.4872
45341SOL    HW253634   5.021  11.227   4.208  0.5979 -2.4668  1.8986
45342SOL     OW53635  12.708   2.791  10.161 -0.3166 -0.3034  0.4353
45342SOL    HW153636  12.789   2.839  10.144 -0.6893  0.9090  1.8713
45342SOL    HW253637  12.643   2.859  10.177 -0.5147 -1.1227  4.2146
45343SOL     OW53638   7.058   2.391   8.343 -0.2359  0.1003 -0.5378
45343SOL    HW153639   7.012   2.437   8.273 -0.9851 -1.2951 -1.0141
45343SOL    HW253640   6.997   2.392   8.416 -0.0885  0.2153 -0.4171
45344SOL     OW53641  11.015  14.062   5.511  0.3558  0.4654 -0.2738
45344SOL    HW153642  10.942  14.008   5.544  1.5460 -1.8464 -1.1540
45344SOL    HW253643  10.992  14.079   5.420  1.1100 -0.7567 -0.7211
45345SOL     OW53644   3.951  10.745   2.999  0.6634 -1.0357  0.3559
45345SOL    HW153645   3.904  10.713   3.075 -0.1337 -0.8594 -0.0557
45345SOL    HW253646   3.949  10.840   3.007 -0.0528 -0.9924 -0.2520
45346SOL     OW53647   2.125   1.178   8.223  0.1903 -0.3207 -0.4575
45346SOL    HW153648   2.182   1.125   8.168  0.3814  0.6867 -1.2505
45346SOL    HW253649   2.079   1.115   8.278 -0.1089 -1.3713 -1.8607
45347SOL     OW53650   3.564   6.067   3.436 -0.4050 -0.0025 -0.0110
45347SOL    HW153651   3.494   6.042   3.497 -0.3717  1.1096  0.5039
45347SOL    HW253652   3.524   6.059   3.350 -0.6896 -0.8689  0.1902
45348SOL     OW53653   9.953   5.335   2.635  0.6354 -0.4101 -0.1682
45348SOL    HW153654  10.021   5.387   2.678  0.2744 -0.1833  0.1325
45348SOL    HW253655   9.911   5.396   2.574  0.7417 -0.5661 -0.3976
45349SOL     OW53656   1.163   7.725  12.418 -0.1553  0.0283 -0.2257
45349SOL    HW153657   1.198   7.778  12.346 -0.0286  0.3662  0.0829
45349SOL    HW253658   1.147   7.640  12.378 -0.2620  0.2652 -0.7026
45350SOL     OW53659   3.463   4.269   4.605  0.7458 -0.7029 -0.6768
45350SOL    HW153660   3.369   4.253   4.596  1.0056 -2.1517 -1.0396
45350SOL    HW253661   3.468   4.356   4.644 -0.8217 -1.7786  2.2368
45351SOL     OW53662  12.737   4.147   9.516  0.2446  0.1075  0.2741
45351SOL    HW153663  12.773   4.065   9.481 -0.1303 -0.3727  0.9790
45351SOL    HW253664  12.668   4.119   9.575 -0.4655  0.9817 -0.1273
45352SOL     OW53665  12.920   0.063   5.408  0.4579 -0.1671 -0.2123
45352SOL    HW153666  12.937   0.141   5.355 -0.3407  0.9749  1.1354
45352SOL    HW253667  12.850   0.018   5.362 -0.3133  0.8809 -0.1250
45353SOL     OW53668   0.253  12.722   3.017  0.1494 -0.1011  0.5917
45353SOL    HW153669   0.277  12.778   2.943  1.6905 -0.0441  1.0895
45353SOL    HW253670   0.318  12.652   3.015 -0.5686 -0.8018  1.1502
45354SOL     OW53671  11.589   7.826   1.553  0.3028 -0.1036  0.3653
45354SOL    HW153672  11.523   7.820   1.484  0.8875 -0.5806 -0.1691
45354SOL    HW253673  11.670   7.848   1.508  1.2505 -2.8745  0.5034
45355SOL     OW53674   2.445   6.877   4.909  0.0172 -0.1793 -0.0996
45355SOL    HW153675   2.447   6.948   4.845  0.1867 -0.2618 -0.1884
45355SOL    HW253676   2.364   6.829   4.890 -0.4036  0.3455  0.3548
45356SOL     OW53677   8.449   7.091   9.644  0.3145 -0.0424 -0.2031
45356SOL    HW153678   8.389   7.151   9.689 -1.1951  0.0909 -2.2728
45356SOL    HW253679   8.488   7.144   9.575  3.5451  0.0923  1.5563
45357SOL     OW53680   2.674   2.381   8.205 -0.5020  0.4219  0.1559
45357SOL    HW153681   2.660   2.407   8.296 -0.0757 -1.6318  0.8555
45357SOL    HW253682   2.596   2.410   8.158 -0.1416  2.7097  0.8681
45358SOL     OW53683  11.991   2.219   9.447  0.0317  0.0503 -0.1013
45358SOL    HW153684  11.967   2.238   9.356  1.7506  0.5684 -0.4712
45358SOL    HW253685  11.918   2.255   9.498  1.0945  3.9858 -1.0078
45359SOL     OW53686   3.658   5.398  13.962 -0.3923  0.1780  0.2023
45359SOL    HW153687   3.610   5.464  14.012  1.8053  1.0852  1.2578
45359SOL    HW253688   3.725   5.366  14.022  0.3449 -1.0224 -1.1919
45360SOL     OW53689   9.677   1.554  12.218  0.4179 -0.0469  0.1137
45360SOL    HW153690   9.618   1.562  12.293 -2.5677  0.3844 -2.0796
45360SOL    HW253691   9.736   1.483  12.240 -1.1015 -0.6929  2.3870
45361SOL     OW53692  12.446   4.972   9.400  0.4505  0.0910 -0.2095
45361SOL    HW153693  12.356   4.997   9.380  0.0153 -1.3900 -0.2201
45361SOL    HW253694  12.495   4.995   9.321 -0.1593 -0.2524 -0.6988
45362SOL     OW53695   5.658  11.117  13.910 -0.8915 -0.5335  0.1492
45362SOL    HW153696   5.731  11.066  13.943  0.3107  0.9695 -0.0912
45362SOL    HW253697   5.580  11.065  13.931  0.2743 -2.5032 -0.2186
45363SOL     OW53698   5.524  12.808   5.583  0.3105  0.6381 -0.1954
45363SOL    HW153699   5.592  12.752   5.546 -0.4100  0.1483 -0.8083
45363SOL    HW253700   5.441  12.766   5.557 -0.2268  0.7274  1.3051
45364SOL     OW53701   4.950   3.163   0.694  0.5519  0.1936 -0.1136
45364SOL    HW153702   4.907   3.154   0.779  2.8382  1.2334  1.2481
45364SOL    HW253703   4.983   3.076   0.675  0.4272  0.0580  0.2776
45365SOL     OW53704   6.192  10.132  13.901 -0.6395  0.5315 -0.4224
45365SOL    HW153705   6.217  10.096  13.986  0.6973  2.9374  0.2978
45365SOL    HW253706   6.271  10.124  13.847 -1.3305 -0.5287 -1.3209
45366SOL     OW53707  10.277  13.136   5.576 -0.4329  0.2803  0.2348
45366SOL    HW153708  10.308  13.203   5.637 -0.8110 -0.7640  1.6196
45366SOL    HW253709  10.267  13.182   5.493  1.6723  1.3801  0.5231
45367SOL     OW53710   6.107  11.369   4.708  0.1578  0.5052  0.0154
45367SOL    HW153711   6.088  11.289   4.659 -0.8462  0.7831 -0.0737
45367SOL    HW253712   6.113  11.341   4.799  0.6504  0.2019 -0.1084
45368SOL     OW53713  14.026  13.486   0.241 -0.3823  0.1287  0.2735
45368SOL    HW153714  14.115  13.523   0.240 -0.8591  1.4965  2.0947
45368SOL    HW253715  13.969  13.561   0.226 -1.2597 -0.7517 -0.9170
45369SOL     OW53716  10.226   1.383   6.409 -0.2225 -0.3441  0.5689
45369SOL    HW153717  10.148   1.355   6.458 -0.2320 -0.2113  0.6289
45369SOL    HW253718  10.192   1.438   6.339 -0.0844  0.7535  1.3431
45370SOL     OW53719   0.558   4.024   2.528 -1.1348  0.3121 -0.0365
45370SOL    HW153720   0.630   4.046   2.587 -1.0644  0.6414 -0.2379
45370SOL    HW253721   0.547   3.930   2.536  2.6577 -0.7575 -3.6676
45371SOL     OW53722   4.439  11.081   8.182 -0.4212  0.4278  0.3905
45371SOL    HW153723   4.531  11.105   8.189  0.6202 -2.9599 -0.3179
45371SOL    HW253724   4.413  11.058   8.272  0.0370 -0.5572  0.2774
45372SOL     OW53725   1.643  11.051   0.866 -0.5012 -0.0297 -0.2598
45372SOL    HW153726   1.672  11.142   0.855  0.1416  0.0195  1.4431
45372SOL    HW253727   1.580  11.037   0.796 -1.0608  1.9213 -0.2080
45373SOL     OW53728  12.415   5.795   1.695  0.0726 -0.1573 -0.0980
45373SOL    HW153729  12.401   5.828   1.607 -0.5818  3.0958  1.0997
45373SOL    HW253730  12.510   5.804   1.710 -0.0124  0.5870 -0.0057
45374SOL     OW53731   6.618  12.817  11.113  0.0049 -0.0307  0.0666
45374SOL    HW153732   6.565  12.810  11.034 -0.9275  0.9735  0.5717
45374SOL    HW253733   6.648  12.728  11.129 -1.2004 -0.5667 -0.4803
45375SOL     OW53734   6.928  11.483  11.373 -0.3756  0.5320 -0.6455
45375SOL    HW153735   6.958  11.393  11.363  0.7368  0.9645 -1.4917
45375SOL    HW253736   6.932  11.519  11.284 -1.8035  1.1256 -0.4954
45376SOL     OW53737  10.539  13.131   6.958 -0.0557 -0.4003  0.1672
45376SOL    HW153738  10.571  13.221   6.952  0.0134 -0.3966  0.6071
45376SOL    HW253739  10.460  13.137   7.012  0.0226 -0.6239  0.3078
45377SOL     OW53740   1.980   0.683   6.450 -0.0285  0.3497  0.7926
45377SOL    HW153741   1.962   0.777   6.448 -1.0915  0.1738  1.0692
45377SOL    HW253742   1.981   0.657   6.358  0.3151  0.6334  0.7128
45378SOL     OW53743  12.941   2.391   2.272  0.4732  0.3610 -0.2084
45378SOL    HW153744  12.941   2.321   2.336  1.8164  0.3521 -0.1883
45378SOL    HW253745  12.915   2.348   2.190 -1.1120  0.3486  0.2539
45379SOL     OW53746   6.575   0.380   6.402  0.7722 -0.1245  0.5881
45379SOL    HW153747   6.526   0.299   6.388  1.2045 -0.3215  0.1848
45379SOL    HW253748   6.655   0.353   6.448  1.2711 -0.0393 -0.2104
45380SOL     OW53749   8.597   2.566   6.547 -0.5064 -0.1593  0.5401
45380SOL    HW153750   8.576   2.590   6.457  0.0902  0.7535  0.6339
45380SOL    HW253751   8.687   2.596   6.559 -1.2396  1.5627  2.0672
45381SOL     OW53752   1.451   9.655   4.245  0.3081  0.4919 -0.3111
45381SOL    HW153753   1.465   9.599   4.169 -1.7665 -0.0892 -0.3155
45381SOL    HW253754   1.397   9.727   4.212  1.4369  1.5811  0.1034
45382SOL     OW53755  11.503   2.496   0.190 -0.4751 -1.0235  0.0649
45382SOL    HW153756  11.469   2.525   0.275 -0.3828  0.2398 -0.3114
45382SOL    HW253757  11.426   2.464   0.143 -0.4584 -2.1483  0.7796
45383SOL     OW53758  11.847  14.040  13.144 -0.8333  0.6320  0.2318
45383SOL    HW153759  11.854  14.013  13.052  0.3872  0.5373  0.3342
45383SOL    HW253760  11.762  14.083  13.150 -1.2731 -0.0539 -0.7653
45384SOL     OW53761   7.596   1.732   1.480 -0.3037  0.2363 -0.5591
45384SOL    HW153762   7.568   1.821   1.454 -0.1849  0.7932  1.1014
45384SOL    HW253763   7.598   1.735   1.575  0.4355 -1.3598 -0.5030
45385SOL     OW53764   6.964   5.760   1.956 -0.1537 -0.0194  0.7198
45385SOL    HW153765   6.991   5.795   2.040  0.5138 -0.4864  0.7096
45385SOL    HW253766   7.027   5.795   1.894 -0.0547 -0.4605  0.5654
45386SOL     OW53767  11.660   6.487   4.179  0.3127 -0.4332  0.0865
45386SOL    HW153768  11.610   6.568   4.165 -0.7230 -1.5275 -3.2867
45386SOL    HW253769  11.602   6.433   4.233  0.1420  0.2884  0.6483
45387SOL     OW53770  13.865  13.414   3.488  0.4350  0.0697 -0.2308
45387SOL    HW153771  13.875  13.424   3.393  1.8565  1.5474  0.0355
45387SOL    HW253772  13.934  13.353   3.514 -0.5069 -1.0289 -0.2318
45388SOL     OW53773   8.375  10.025  13.449 -0.4763  0.4254  0.1990
45388SOL    HW153774   8.375  10.045  13.355 -0.7852 -1.7706 -0.3305
45388SOL    HW253775   8.463   9.991  13.466 -0.8976 -0.6108  0.3468
45389SOL     OW53776  12.727   5.124   8.810  0.1812  0.2811  0.0066
45389SOL    HW153777  12.701   5.146   8.720 -1.7175 -1.0209  0.1654
45389SOL    HW253778  12.814   5.085   8.801 -0.0923 -0.0717 -1.3124
45390SOL     OW53779   4.233  11.921   3.831 -0.0978 -0.8015  0.1533
45390SOL    HW153780   4.296  11.931   3.903  0.7137  0.8028 -0.7324
45390SOL    HW253781   4.272  11.854   3.775  0.1253 -0.8238  0.3298
45391SOL     OW53782   0.967   5.620  10.141 -0.7957 -0.2063 -0.2930
45391SOL    HW153783   1.023   5.673  10.083 -0.6806 -1.0528 -0.9919
45391SOL    HW253784   0.938   5.548  10.085  0.1314 -1.6156  0.9593
45392SOL     OW53785   4.765   3.234   6.738  0.1445  0.0797  0.1181
45392SOL    HW153786   4.857   3.247   6.715  0.8669 -1.6501  1.8389
45392SOL    HW253787   4.755   3.275   6.823 -0.5674 -0.1412  0.1487
45393SOL     OW53788  13.082   8.130   3.120  0.8033  0.4540  0.0996
45393SOL    HW153789  13.169   8.151   3.154  1.4507  1.7326 -2.1582
45393SOL    HW253790  13.022   8.184   3.173  1.4111  0.0729  1.2137
45394SOL     OW53791   6.569   2.603   8.932 -0.0903  0.4428 -0.5740
45394SOL    HW153792   6.478   2.632   8.934 -0.6468 -1.2387  0.8755
45394SOL    HW253793   6.564   2.509   8.921  1.5280  0.4067 -1.3054
45395SOL     OW53794   0.048  12.332   7.011 -0.0847 -0.3576 -0.5208
45395SOL    HW153795   0.025  12.341   6.918 -0.3506 -2.6641 -0.7425
45395SOL    HW253796   0.144  12.330   7.012 -0.0541  0.7408 -0.6056
45396SOL     OW53797   7.026  10.248   5.477  0.3529  0.2315  0.1298
45396SOL    HW153798   7.003  10.229   5.568  0.0651  1.5480  0.3569
45396SOL    HW253799   7.067  10.167   5.445 -1.1451 -0.8761  0.8719
45397SOL     OW53800   7.701   5.054   3.869  0.5025 -0.1733 -0.4974
45397SOL    HW153801   7.771   4.990   3.862 -1.7887 -2.8303 -0.6310
45397SOL    HW253802   7.710   5.090   3.957  2.4053  0.0946 -0.7576
45398SOL     OW53803  13.550   5.576   4.492 -0.2112 -0.3204 -0.0777
45398SOL    HW153804  13.550   5.501   4.552 -2.0403  0.3476  0.8442
45398SOL    HW253805  13.548   5.537   4.405  0.9678 -1.3214  0.3188
45399SOL     OW53806   8.069  11.644   1.467 -0.0509  0.2839  0.0406
45399SOL    HW153807   8.002  11.673   1.529  0.3983  0.1939  0.5840
45399SOL    HW253808   8.101  11.725   1.427  2.2226  0.8110  2.6068
45400SOL     OW53809   6.361   9.487   7.616 -0.4516 -0.0288  0.5945
45400SOL    HW153810   6.384   9.560   7.558 -0.0574  0.5663  1.4783
45400SOL    HW253811   6.278   9.454   7.582  1.4626 -2.1609 -2.6666
45401SOL     OW53812   0.822   1.744   5.126 -0.3382 -1.0545  0.3020
45401SOL    HW153813   0.905   1.737   5.077 -0.7409 -2.0137 -0.2729
45401SOL    HW253814   0.757   1.765   5.059 -1.1087 -3.6161  0.1572
45402SOL     OW53815   2.664   3.584   3.391  0.0322  0.7500  0.2879
45402SOL    HW153816   2.632   3.599   3.302  0.7068 -0.2562 -0.1469
45402SOL    HW253817   2.759   3.592   3.385  0.0078  2.1724  1.2469
45403SOL     OW53818   4.774  10.049   4.980  0.0458  0.1210 -0.1850
45403SOL    HW153819   4.770   9.964   4.937 -0.6038  0.4917 -0.8899
45403SOL    HW253820   4.730  10.036   5.064 -0.5118 -0.1145 -0.5076
45404SOL     OW53821  10.164  11.835   6.013 -0.3688 -0.4402 -0.1157
45404SOL    HW153822  10.122  11.769   5.958 -2.5886  0.0780  0.8631
45404SOL    HW253823  10.094  11.868   6.069  1.4092  0.3321  1.7853
45405SOL     OW53824  10.905  13.951  11.236  0.2323 -0.3938  0.1956
45405SOL    HW153825  10.851  13.910  11.168 -0.7427  0.3683  0.4898
45405SOL    HW253826  10.995  13.946  11.201 -0.3605  1.0541 -1.7283
45406SOL     OW53827   6.493  12.085   8.523  0.4244 -0.0498 -0.1566
45406SOL    HW153828   6.453  12.119   8.603 -0.9809 -1.7522 -0.0880
45406SOL    HW253829   6.419  12.072   8.463  1.2355 -0.5984 -1.0632
45407SOL     OW53830   2.096  12.565  10.800  0.0148 -0.5088 -0.0511
45407SOL    HW153831   2.041  12.644  10.799  0.7650  0.0306  0.1969
45407SOL    HW253832   2.124  12.558  10.891  2.2749  0.5981 -0.6020
45408SOL     OW53833   3.904   7.336   6.065  0.3949 -0.0520  0.6597
45408SOL    HW153834   3.857   7.260   6.100 -0.7592  0.6386  0.6636
45408SOL    HW253835   3.982   7.299   6.023 -1.0159 -1.4303 -0.8978
45409SOL     OW53836   2.194  13.624  10.537 -0.2814 -0.4299  0.6456
45409SOL    HW153837   2.254  13.591  10.604  1.3327  0.5527 -0.2548
45409SOL    HW253838   2.214  13.717  10.531 -2.8874  0.2459  1.2787
45410SOL     OW53839   3.068   0.487   8.322  0.3969 -0.1915  0.3239
45410SOL    HW153840   3.030   0.514   8.406  2.3717  1.7634  0.7042
45410SOL    HW253841   3.092   0.395   8.335 -0.2388 -0.2007  1.5575
45411SOL     OW53842  12.890   6.115   7.579 -0.4157  0.3079  0.5258
45411SOL    HW153843  12.824   6.089   7.644  0.4755  1.1374  1.8334
45411SOL    HW253844  12.956   6.045   7.583 -0.2121  0.5113  0.7460
45412SOL     OW53845  10.904  11.893   1.287 -0.4239 -0.0086 -0.0141
45412SOL    HW153846  10.857  11.922   1.365 -0.8998  2.2336 -1.0520
45412SOL    HW253847  10.919  11.800   1.301 -1.2847  0.1470  2.3304
45413SOL     OW53848   1.766   7.149   1.447 -0.2828 -0.1633 -0.0665
45413SOL    HW153849   1.749   7.226   1.393 -1.8543 -0.5946 -0.2424
45413SOL    HW253850   1.845   7.171   1.496  0.1723  0.9362 -1.2320
45414SOL     OW53851  12.513   5.043  12.024 -0.3572 -0.0834 -0.1270
45414SOL    HW153852  12.466   4.960  12.020  0.6239 -0.6810  0.5854
45414SOL    HW253853  12.589   5.031  11.968 -0.5108  0.5425 -0.4835
45415SOL     OW53854   9.656  10.017   6.453 -0.5291 -0.0900  0.3818
45415SOL    HW153855   9.625   9.936   6.414 -0.2397 -0.1947  0.3646
45415SOL    HW253856   9.660  10.079   6.381  0.2647 -0.3563  0.1768
45416SOL     OW53857  10.981  14.036  12.041  0.2347  0.4114  0.5336
45416SOL    HW153858  11.018  14.086  11.968 -0.3559 -0.3243 -0.2995
45416SOL    HW253859  11.057  14.007  12.092  0.7929 -0.5421 -0.7809
45417SOL     OW53860   4.967   7.231   3.590 -0.5654 -0.2360 -0.0826
45417SOL    HW153861   4.939   7.155   3.641  1.0431 -0.7672  0.0857
45417SOL    HW253862   4.923   7.221   3.505 -0.9669 -0.9374  0.1973
45418SOL     OW53863  13.516  13.641   3.077 -0.3230  0.3181 -0.4163
45418SOL    HW153864  13.538  13.555   3.039 -2.4435  0.6497 -2.6506
45418SOL    HW253865  13.536  13.632   3.170 -0.5556 -2.6343 -0.5458
45419SOL     OW53866   5.807  10.047  11.978  0.4041 -0.1430 -0.0694
45419SOL    HW153867   5.756   9.977  11.938  1.6844 -0.8143 -0.5867
45419SOL    HW253868   5.746  10.091  12.037 -0.6467 -1.1691 -0.3638
45420SOL     OW53869   0.448  11.311  10.697 -0.2488  0.3887  0.2356
45420SOL    HW153870   0.471  11.253  10.625  2.2525  0.3211  0.9772
45420SOL    HW253871   0.399  11.382  10.655  0.3951 -0.0724 -1.4105
45421SOL     OW53872   4.261  10.894   9.616  0.1532  0.1597 -0.3287
45421SOL    HW153873   4.233  10.983   9.639 -0.0917  0.1329 -0.5324
45421SOL    HW253874   4.345  10.907   9.572 -0.1241  0.3272 -0.8080
45422SOL     OW53875  10.206   1.615   3.079 -0.6016  0.1981 -0.0039
45422SOL    HW153876  10.149   1.578   3.012 -1.1558 -0.2837  0.7185
45422SOL    HW253877  10.160   1.694   3.108 -0.6535  0.0889  0.2154
45423SOL     OW53878   8.483   5.721   1.525  0.3513  0.3667  0.2131
45423SOL    HW153879   8.430   5.644   1.505  1.7204 -0.4742 -0.3210
45423SOL    HW253880   8.450   5.752   1.609 -2.3681  1.1390 -1.0203
45424SOL     OW53881   3.577   6.675  13.586 -0.1584  0.3971  0.0479
45424SOL    HW153882   3.658   6.680  13.638 -0.1113  1.5308 -0.1103
45424SOL    HW253883   3.569   6.762  13.547  0.2918 -0.6879 -2.6141
45425SOL     OW53884   6.855   5.323   4.442 -0.0574  0.0619 -0.4860
45425SOL    HW153885   6.793   5.328   4.369  0.5522  1.4944 -0.9669
45425SOL    HW253886   6.941   5.331   4.400  0.2757  1.8842  0.4046
45426SOL     OW53887   3.317   6.797  11.952  0.2822  0.1982 -0.0993
45426SOL    HW153888   3.344   6.813  11.862 -1.3230  1.8268 -0.3428
45426SOL    HW253889   3.320   6.701  11.962  0.6773  0.0106 -1.7963
45427SOL     OW53890  13.393   2.375   4.080  0.1670 -0.5750 -0.1297
45427SOL    HW153891  13.324   2.429   4.118 -1.1860 -3.4432  1.9115
45427SOL    HW253892  13.461   2.372   4.147  0.4808 -0.8943 -0.4601
45428SOL     OW53893   2.021   2.292  11.533  0.3259 -0.1707  0.4932
45428SOL    HW153894   2.016   2.358  11.602  0.4855  0.5768 -0.1920
45428SOL    HW253895   1.940   2.303  11.484 -0.6090 -1.8716  1.5666
45429SOL     OW53896   5.330  10.300   5.924  0.2236 -0.1594 -0.6911
45429SOL    HW153897   5.361  10.354   5.852 -0.7648  0.6238 -0.5392
45429SOL    HW253898   5.315  10.362   5.996  0.2859 -0.8036 -0.1080
45430SOL     OW53899   7.080   0.442   3.526 -0.4464 -0.9188  0.0124
45430SOL    HW153900   6.989   0.422   3.547 -0.2451  0.4278  2.5500
45430SOL    HW253901   7.096   0.528   3.565  1.8505 -0.9697 -0.6348
45431SOL     OW53902  12.141   9.317   6.829 -0.3815 -0.6548  0.2962
45431SOL    HW153903  12.227   9.356   6.816 -0.5525 -0.2587  0.3601
45431SOL    HW253904  12.084   9.361   6.766 -0.6732 -0.4762  0.6822
45432SOL     OW53905  10.707  13.484  10.488  0.0788  0.1579 -0.0579
45432SOL    HW153906  10.770  13.420  10.454 -0.2922  0.2722 -1.0053
45432SOL    HW253907  10.659  13.513  10.410 -2.4818 -1.3652  0.8494
45433SOL     OW53908   9.049   2.747   0.624 -0.2247  0.6580 -0.0883
45433SOL    HW153909   8.973   2.693   0.605 -0.6726  0.5809  1.7272
45433SOL    HW253910   9.016   2.837   0.620 -0.0903  0.6856 -0.6020
45434SOL     OW53911  10.342   7.581  12.789 -0.0855  0.2487  0.7039
45434SOL    HW153912  10.434   7.586  12.761  0.0238 -1.5830  0.6018
45434SOL    HW253913  10.319   7.489  12.778 -2.3849  0.9018 -0.6435
45435SOL     OW53914   6.918   8.873  13.131  0.9754 -0.0147  0.1184
45435SOL    HW153915   6.891   8.960  13.101 -0.1122 -0.6788 -0.9178
45435SOL    HW253916   7.013   8.871  13.119  0.8701  0.6410 -0.9046
45436SOL     OW53917   4.216   6.118   9.036 -0.0931 -0.6685  0.3521
45436SOL    HW153918   4.205   6.073   9.120  2.1602 -2.2880 -0.1130
45436SOL    HW253919   4.174   6.059   8.973  1.4248 -1.3759 -0.0537
45437SOL     OW53920   3.765   2.475  13.564 -0.4194  0.1122  0.1836
45437SOL    HW153921   3.713   2.532  13.507 -1.1419 -0.8822 -0.1852
45437SOL    HW253922   3.700   2.429  13.618  0.2591  1.1536  1.9704
45438SOL     OW53923   5.629  10.276   8.737  0.3364  0.1931  0.3644
45438SOL    HW153924   5.561  10.244   8.796 -0.9624  1.3926 -0.4164
45438SOL    HW253925   5.584  10.289   8.654  2.1841 -1.8293 -1.0705
45439SOL     OW53926   1.807   6.079  12.433  0.8707  0.7110  0.7775
45439SOL    HW153927   1.840   6.074  12.522 -1.7422  0.0859  1.8068
45439SOL    HW253928   1.792   5.988  12.408  0.1037  0.9606  0.3060
45440SOL     OW53929   8.881   5.522   3.669  0.0489  0.1464 -0.3077
45440SOL    HW153930   8.897   5.446   3.726 -1.4603  0.6061  0.7711
45440SOL    HW253931   8.967   5.563   3.660  0.3424  0.0146  1.6031
45441SOL     OW53932  14.079  10.837   8.273  0.2148 -0.1471  0.1354
45441SOL    HW153933  14.087  10.773   8.344  0.2218 -0.3211 -0.0248
45441SOL    HW253934  14.169  10.852   8.245  0.0797 -1.5251 -1.1438
45442SOL     OW53935   4.298  13.669  10.772  0.4012 -0.4728 -0.2737
45442SOL    HW153936   4.337  13.601  10.826 -0.3750 -0.4063  0.3934
45442SOL    HW253937   4.210  13.637  10.753 -0.1687  0.5523  0.4927
45443SOL     OW53938  12.210   9.461   3.884  0.3022  0.6639  0.0358
45443SOL    HW153939  12.192   9.547   3.846 -1.2570  0.5308  0.4194
45443SOL    HW253940  12.231   9.406   3.809 -0.3777  0.9768 -0.3925
45444SOL     OW53941   2.586  11.287   4.078  0.4435 -0.7395  0.4681
45444SOL    HW153942   2.568  11.357   4.016  0.8904 -1.5911 -0.6552
45444SOL    HW253943   2.530  11.306   4.153 -0.2501  0.2084 -0.2677
45445SOL     OW53944  11.633  11.230   4.884  0.4293 -0.1140 -0.5382
45445SOL    HW153945  11.544  11.261   4.867  1.0850  2.7091  0.5679
45445SOL    HW253946  11.681  11.248   4.803  0.6895  1.4343 -0.0667
45446SOL     OW53947   9.388   2.970   8.796  0.1474  0.2615  0.2806
45446SOL    HW153948   9.389   3.051   8.745 -0.9387  0.1738  0.1028
45446SOL    HW253949   9.430   2.905   8.739 -1.2774  0.1035 -0.6264
45447SOL     OW53950  12.114   0.413  10.333 -0.0980 -0.7350 -0.0374
45447SOL    HW153951  12.191   0.357  10.336  0.5322  0.0866 -0.3104
45447SOL    HW253952  12.141   0.487  10.277 -1.1136 -0.4863 -0.2170
45448SOL     OW53953   6.592   3.293   8.067  0.2427  0.0508 -0.1469
45448SOL    HW153954   6.617   3.255   8.151  0.4000 -1.5077 -0.8671
45448SOL    HW253955   6.499   3.314   8.077 -0.3689 -2.3038 -0.2946
45449SOL     OW53956   6.708  11.880  13.167  0.3350  0.4434 -0.0377
45449SOL    HW153957   6.719  11.973  13.148 -2.1158  0.8624  0.2807
45449SOL    HW253958   6.618  11.860  13.140  1.2107 -2.1845 -1.3685
45450SOL     OW53959   6.840  13.222   1.772  0.4099  0.3381  0.3321
45450SOL    HW153960   6.874  13.283   1.838  0.6902  0.9561 -0.3764
45450SOL    HW253961   6.864  13.261   1.688 -0.5626 -0.0899 -0.1552
45451SOL     OW53962   3.079   3.863   5.934 -0.0663 -0.3472 -0.7518
45451SOL    HW153963   3.054   3.956   5.927 -0.1006 -0.1585  1.3230
45451SOL    HW253964   3.160   3.857   5.883 -0.8251  0.4809 -2.1299
45452SOL     OW53965   2.425   4.435   8.310  0.4724  0.0665  0.5228
45452SOL    HW153966   2.458   4.406   8.395  1.2891  0.5122  0.3662
45452SOL    HW253967   2.503   4.439   8.254 -0.0974 -0.5378 -0.3435
45453SOL     OW53968   5.116   2.376   5.220  0.0521  0.7937  0.3287
45453SOL    HW153969   5.197   2.407   5.260  1.3676 -0.0458 -1.4882
45453SOL    HW253970   5.104   2.288   5.254  1.8270 -0.3889 -1.8097
45454SOL     OW53971   0.899   0.109  13.347  0.1113 -0.4338 -0.7940
45454SOL    HW153972   0.946   0.029  13.326 -0.1820 -1.0255  0.6554
45454SOL    HW253973   0.807   0.086  13.338 -0.0254 -0.7016  0.9229
45455SOL     OW53974   2.718  11.894  13.928 -0.2587  0.2294 -0.2547
45455SOL    HW153975   2.740  11.878  13.836 -1.9207 -0.6450 -0.5581
45455SOL    HW253976   2.676  11.813  13.957  1.0378  0.1561  1.5687
45456SOL     OW53977   5.142   7.814  13.927  0.7289  0.4654 -0.0449
45456SOL    HW153978   5.047   7.801  13.926  0.8716 -0.9397  1.1385
45456SOL    HW253979   5.154   7.906  13.903 -0.8917  0.5365 -0.6990
45457SOL     OW53980  11.358  10.292   3.774  0.5170  0.1258 -0.2269
45457SOL    HW153981  11.273  10.336   3.778 -0.0727 -0.9787 -0.4500
45457SOL    HW253982  11.338  10.201   3.753  1.6447 -0.5071  1.2537
45458SOL     OW53983   9.020   1.966   3.764 -0.6574 -0.2127 -0.1826
45458SOL    HW153984   8.972   2.041   3.799  0.7511  0.9435 -0.6463
45458SOL    HW253985   9.073   1.934   3.837  0.6721  0.8728 -0.6357
45459SOL     OW53986  13.825   7.689   7.777 -0.0483  0.5434 -0.3707
45459SOL    HW153987  13.850   7.781   7.784 -1.3079  0.9218 -0.6658
45459SOL    HW253988  13.840   7.654   7.865  1.0658  0.8532 -0.4231
45460SOL     OW53989  11.752   8.477   4.154  0.4750 -0.2516 -0.4686
45460SOL    HW153990  11.752   8.567   4.187  1.6650 -1.3910  3.0745
45460SOL    HW253991  11.661   8.459   4.132  0.0138  1.4533 -0.0811
45461SOL     OW53992  12.794   0.961   0.654 -0.1608 -0.0168 -0.3850
45461SOL    HW153993  12.833   1.017   0.722 -2.4544 -0.4861  1.4434
45461SOL    HW253994  12.719   1.011   0.622 -1.7952 -1.6532  0.7393
45462SOL     OW53995   4.010   7.700   6.170  0.0750 -0.5678  0.2404
45462SOL    HW153996   3.948   7.650   6.117 -1.1617  0.2058  0.8942
45462SOL    HW253997   4.050   7.763   6.109 -1.0459  0.0568  0.1269
45463SOL     OW53998   1.218  12.369  13.633  0.4837  0.6123 -0.2593
45463SOL    HW153999   1.140  12.404  13.677 -0.0584 -0.2233 -0.5392
45463SOL    HW254000   1.191  12.284  13.600  1.7499 -0.0361  0.3054
45464SOL     OW54001  13.923   4.943   5.494 -0.2298  0.5002  0.2174
45464SOL    HW154002  13.982   4.874   5.464  0.1953  1.0719 -0.2849
45464SOL    HW254003  13.836   4.903   5.491  0.2032 -0.6329  1.8271
45465SOL     OW54004   5.864  12.728  12.014  0.7058 -0.1477 -0.2261
45465SOL    HW154005   5.820  12.813  12.010 -0.1379 -0.4710  1.4573
45465SOL    HW254006   5.830  12.680  11.938 -0.6629  0.1899  0.1442
45466SOL     OW54007   6.854   8.639   4.989  0.0186 -0.2323 -0.2250
45466SOL    HW154008   6.898   8.559   4.959 -1.1504 -1.0554  0.1785
45466SOL    HW254009   6.801   8.611   5.063 -0.4258  0.9279 -0.0827
45467SOL     OW54010   7.925   7.540   7.412 -0.1383 -0.6562 -0.3091
45467SOL    HW154011   7.960   7.486   7.483 -1.1742 -1.6018 -0.4912
45467SOL    HW254012   7.876   7.479   7.357 -1.2729  0.4474 -0.5785
45468SOL     OW54013   3.061   6.947   6.980  0.4190  0.1463  0.1881
45468SOL    HW154014   2.999   6.923   7.050  0.8376  0.7890  0.7929
45468SOL    HW254015   3.033   7.034   6.952  0.4485  0.0228 -0.2375
45469SOL     OW54016   1.233  10.514   5.184 -0.0541  0.4589  0.6174
45469SOL    HW154017   1.309  10.469   5.147  1.4579  2.8403  0.5609
45469SOL    HW254018   1.187  10.447   5.235  1.1025 -1.4793 -0.7622
45470SOL     OW54019   0.882   5.802   1.332 -0.3748  0.0062  0.0025
45470SOL    HW154020   0.956   5.759   1.376  0.3698 -0.7308 -1.8513
45470SOL    HW254021   0.857   5.741   1.263 -2.3593  0.5288  0.2009
45471SOL     OW54022   1.473   4.172   6.490  0.1144 -0.3573  0.0414
45471SOL    HW154023   1.555   4.127   6.469 -0.1746 -0.5577 -0.6921
45471SOL    HW254024   1.454   4.224   6.412  0.1003  0.5296  0.6273
45472SOL     OW54025   7.809   6.408   3.443 -0.4483  0.0876 -0.3244
45472SOL    HW154026   7.752   6.472   3.486  0.3930  1.2814 -0.9153
45472SOL    HW254027   7.751   6.337   3.416 -1.7565  1.4981 -1.3722
45473SOL     OW54028   6.366   4.725  12.641  0.0730  0.0279 -0.2032
45473SOL    HW154029   6.278   4.699  12.615 -0.2123  1.0472 -0.3192
45473SOL    HW254030   6.412   4.643  12.655 -0.9415 -0.5269  0.0192
45474SOL     OW54031  12.692   0.173   6.865 -0.4367  0.0556 -0.0885
45474SOL    HW154032  12.650   0.146   6.783 -0.9425  0.1913  0.1214
45474SOL    HW254033  12.730   0.093   6.900  1.3038  0.2937 -1.3106
45475SOL     OW54034  12.723   3.783   8.294 -0.0144  0.4315 -0.1642
45475SOL    HW154035  12.809   3.745   8.273  0.0694  1.6553 -2.3927
45475SOL    HW254036  12.721   3.786   8.389  1.8189 -0.9364 -0.0147
45476SOL     OW54037   9.763   1.754  11.511  0.3927  0.3151  0.1184
45476SOL    HW154038   9.828   1.763  11.442  1.5248 -3.5797  0.4483
45476SOL    HW254039   9.684   1.725  11.465  0.0823  1.0915  0.1457
45477SOL     OW54040  10.079  13.716   0.603 -0.4355  0.0810 -0.2651
45477SOL    HW154041  10.156  13.735   0.548  0.6532 -1.3183  0.7023
45477SOL    HW254042  10.016  13.677   0.543  0.5214 -0.9089 -0.6537
45478SOL     OW54043  12.165   2.348   8.621 -0.4259 -0.1444 -0.3716
45478SOL    HW154044  12.162   2.293   8.542  0.9853  0.2800 -0.7502
45478SOL    HW254045  12.231   2.415   8.601  0.5146 -0.4626  1.4407
45479SOL     OW54046   3.180   6.063   7.188  0.1865 -0.1473  0.4712
45479SOL    HW154047   3.085   6.054   7.189 -0.0980  2.4389  0.8117
45479SOL    HW254048   3.206   6.065   7.280  0.2969  1.3962  0.4221
45480SOL     OW54049   6.953   0.003   9.178 -0.6651  0.0763 -0.3610
45480SOL    HW154050   6.891  -0.065   9.205  1.4850 -1.3602  1.3362
45480SOL    HW254051   7.008   0.018   9.255  0.7030  1.7219 -1.5672
45481SOL     OW54052   6.685   1.732   6.397  0.1517  0.2604  0.1156
45481SOL    HW154053   6.743   1.807   6.415  0.0322  0.3755  0.0268
45481SOL    HW254054   6.671   1.691   6.482  0.4784  0.1494  0.1177
45482SOL     OW54055   7.231   9.317   4.542  0.2756  0.4553 -0.1164
45482SOL    HW154056   7.139   9.321   4.569  0.2122 -0.8397 -0.1065
45482SOL    HW254057   7.248   9.404   4.505 -1.0470  0.6125 -0.4267
45483SOL     OW54058   7.376   1.910  12.239  0.5947  0.3776 -0.1474
45483SOL    HW154059   7.285   1.880  12.247  0.3290 -0.1153 -3.5585
45483SOL    HW254060   7.426   1.848  12.293 -0.7761 -1.3797 -0.7932
45484SOL     OW54061   0.202   7.813   7.163  0.3091  0.1336 -0.9010
45484SOL    HW154062   0.280   7.763   7.184 -0.9018 -1.4654 -0.0262
45484SOL    HW254063   0.140   7.749   7.129 -2.2309  0.3820  2.6737
45485SOL     OW54064   7.170   9.233   4.848  0.2150 -0.3374  0.3947
45485SOL    HW154065   7.095   9.189   4.889  0.6931 -0.4907  1.1242
45485SOL    HW254066   7.166   9.323   4.882  1.0869 -0.6776  1.4707
45486SOL     OW54067  11.509  11.069   9.175  0.0924  0.4640  0.3052
45486SOL    HW154068  11.418  11.043   9.189 -0.1351  1.3662  0.5868
45486SOL    HW254069  11.538  11.017   9.100 -1.0719  1.0944 -0.6212
45487SOL     OW54070   0.274   4.430  10.958  0.3335 -0.0117 -0.0675
45487SOL    HW154071   0.190   4.385  10.961  0.3926 -0.1298 -0.2050
45487SOL    HW254072   0.323   4.396  11.033  0.3371 -0.0928 -0.1081
45488SOL     OW54073   4.864   4.932  12.852  0.4378 -0.3015  0.3446
45488SOL    HW154074   4.956   4.956  12.864  1.1330 -2.0821 -1.0361
45488SOL    HW254075   4.866   4.857  12.793 -2.0683  1.9652 -2.9981
45489SOL     OW54076   5.525   4.090   8.204 -0.0164  0.6139  0.0120
45489SOL    HW154077   5.552   4.119   8.291  1.1187 -0.5698  0.0786
45489SOL    HW254078   5.430   4.086   8.209  0.0572  0.0505  1.3747
45490SOL     OW54079   1.282   7.259   4.780 -0.2656 -0.7267  0.1600
45490SOL    HW154080   1.263   7.336   4.833 -0.7690 -0.9910  0.3647
45490SOL    HW254081   1.367   7.278   4.740 -0.7386  0.2793 -0.4154
45491SOL     OW54082   1.126   5.369  10.899 -0.1016 -0.2600  0.0897
45491SOL    HW154083   1.078   5.411  10.828 -0.8549 -0.5183  0.4350
45491SOL    HW254084   1.167   5.293  10.858  1.0150  0.6077 -0.4663
45492SOL     OW54085   8.864   2.941   5.194  0.4530 -0.2225  0.1231
45492SOL    HW154086   8.874   3.030   5.163 -1.3209  0.6622  1.8602
45492SOL    HW254087   8.894   2.943   5.285  0.1885 -1.3344  0.2584
45493SOL     OW54088   0.572  10.477  13.931 -0.2329  0.0261  0.4347
45493SOL    HW154089   0.627  10.555  13.936  2.1175 -1.6216  2.8115
45493SOL    HW254090   0.620  10.418  13.872 -1.2163 -0.1957 -0.1591
45494SOL     OW54091   9.361   4.425   2.439  0.7003  0.3736  0.5088
45494SOL    HW154092   9.354   4.514   2.405  1.9325  1.0347  1.8960
45494SOL    HW254093   9.443   4.391   2.403  1.3542  0.6116  1.7542
45495SOL     OW54094   5.318  13.384   4.031  0.3483  0.0453  0.0339
45495SOL    HW154095   5.374  13.409   4.103  0.7115  2.2161 -0.9220
45495SOL    HW254096   5.242  13.343   4.072  1.0654  0.1877  1.5402
45496SOL     OW54097  12.533   1.753   4.392 -0.0648  0.5727 -0.2886
45496SOL    HW154098  12.481   1.833   4.383  0.9395  1.3102  0.2914
45496SOL    HW254099  12.624   1.783   4.392  0.3016 -0.3632  1.7454
45497SOL     OW54100   0.204  10.284   7.488  0.4021 -0.0609 -0.2102
45497SOL    HW154101   0.113  10.293   7.516  1.1976  0.0206  2.6417
45497SOL    HW254102   0.198  10.256   7.397 -2.4304  1.5962 -0.6616
45498SOL     OW54103   4.791   6.787   3.013  0.5105 -0.1068  0.4485
45498SOL    HW154104   4.812   6.828   3.097 -0.8354 -0.6928  1.1197
45498SOL    HW254105   4.700   6.759   3.023  0.7388 -1.3848 -0.7338
45499SOL     OW54106   2.400   4.525   1.984 -0.0517 -0.5698 -0.1053
45499SOL    HW154107   2.425   4.553   1.896 -0.0352 -0.3794 -0.0405
45499SOL    HW254108   2.405   4.604   2.037  0.6812 -0.8373  0.2300
45500SOL     OW54109   8.729   3.395  13.830 -0.0943 -0.5070 -0.2055
45500SOL    HW154110   8.675   3.388  13.908 -0.4110  1.8831 -0.1289
45500SOL    HW254111   8.687   3.336  13.767 -0.0897 -2.1375  1.2358
45501SOL     OW54112  13.790   7.520   8.316 -1.1066 -0.0532  0.3174
45501SOL    HW154113  13.805   7.427   8.334 -2.2696 -0.5547 -1.1645
45501SOL    HW254114  13.696   7.528   8.304 -1.1221  1.4803  1.1216
45502SOL     OW54115  11.747   4.815  13.081  0.1036 -0.5128  0.4026
45502SOL    HW154116  11.833   4.814  13.124  0.5810 -0.5994 -0.5166
45502SOL    HW254117  11.721   4.723  13.078  0.6767 -0.6629 -0.6242
45503SOL     OW54118   3.585   5.021   6.768 -0.0440 -0.3618 -0.3946
45503SOL    HW154119   3.625   5.061   6.846 -0.7450  1.3493 -0.8845
45503SOL    HW254120   3.493   5.010   6.791  0.0269 -1.2388 -0.4741
45504SOL     OW54121   1.059   8.973  13.829 -0.0213 -0.9566 -0.1004
45504SOL    HW154122   1.095   8.969  13.918  1.4960  0.9309 -0.5524
45504SOL    HW254123   0.990   9.039  13.834  0.3435 -0.5469 -0.3940
45505SOL     OW54124   0.493   7.004   2.371 -0.6985  0.4818 -0.3085
45505SOL    HW154125   0.499   6.909   2.378  0.5501  0.6636  1.8017
45505SOL    HW254126   0.576   7.032   2.334 -0.5848  0.8321  0.1978
45506SOL     OW54127   2.604  10.836  14.045 -0.2574  0.1560  0.4298
45506SOL    HW154128   2.539  10.895  14.083 -0.8458 -0.6587  0.7112
45506SOL    HW254129   2.554  10.784  13.982  0.0018 -0.8089  0.9980
45507SOL     OW54130  11.510  12.208   3.467  0.1693  0.4813  0.1696
45507SOL    HW154131  11.551  12.295   3.459  0.7243  0.3175  1.1590
45507SOL    HW254132  11.558  12.165   3.538  0.3983 -0.9269 -0.8006
45508SOL     OW54133   6.245   3.733   1.730  0.1345  0.0938 -0.0427
45508SOL    HW154134   6.193   3.807   1.762  0.4881  0.3331 -0.0178
45508SOL    HW254135   6.180   3.665   1.711 -0.1620  0.2804  0.2799
45509SOL     OW54136   3.409  11.476   6.785  0.0787  0.3154  0.3528
45509SOL    HW154137   3.367  11.443   6.706  2.2589 -0.1777 -0.6758
45509SOL    HW254138   3.377  11.566   6.793 -1.4040 -0.1370 -0.1389
45510SOL     OW54139   0.088   5.980   5.850  0.2230 -0.0804  0.2501
45510SOL    HW154140   0.051   6.029   5.924  1.4893  0.9318  0.2548
45510SOL    HW254141   0.181   5.974   5.870  0.4942 -0.2564 -1.0102
45511SOL     OW54142   1.094  13.457   8.834  0.3764 -0.1396 -0.0484
45511SOL    HW154143   1.079  13.546   8.864  1.3956 -0.0862  0.3628
45511SOL    HW254144   1.040  13.448   8.756 -0.6565  0.4349  0.5914
45512SOL     OW54145   5.431  12.196   7.762  0.3124 -0.0130 -0.0357
45512SOL    HW154146   5.353  12.252   7.760 -2.0086 -2.9746 -0.1155
45512SOL    HW254147   5.451  12.180   7.669  0.5275  0.1146 -0.0115
45513SOL     OW54148   6.215   0.407  12.352  0.2301  0.5673  0.0097
45513SOL    HW154149   6.210   0.323  12.398  0.6253  1.7093  2.2718
45513SOL    HW254150   6.276   0.391  12.280 -1.3363 -1.6138 -0.9622
45514SOL     OW54151  12.239   7.652   5.050  0.2762 -0.5539  0.1136
45514SOL    HW154152  12.186   7.595   4.994  0.9897 -0.9117 -0.2184
45514SOL    HW254153  12.316   7.600   5.071  1.0431  0.3559 -0.3614
45515SOL     OW54154   3.479   8.587   9.866 -0.2218  0.3575  0.3436
45515SOL    HW154155   3.572   8.562   9.871 -0.2232  0.0969 -0.6840
45515SOL    HW254156   3.432   8.504   9.866 -0.4377  0.4795  0.5332
45516SOL     OW54157   7.625   6.583   3.885 -0.0540 -0.0488  0.0559
45516SOL    HW154158   7.683   6.648   3.924 -1.7965  0.3660  2.1881
45516SOL    HW254159   7.680   6.506   3.873  0.7551 -0.0691  3.0873
45517SOL     OW54160   7.087   6.383   1.988 -0.0678  0.0578 -0.2136
45517SOL    HW154161   7.063   6.432   1.909 -0.3468 -0.4764 -0.4684
45517SOL    HW254162   7.140   6.310   1.955  0.3261  0.1730  0.1597
45518SOL     OW54163   9.580   3.235   7.044  0.3175 -0.0167  0.5693
45518SOL    HW154164   9.634   3.209   7.118  0.8296 -0.9136 -0.1111
45518SOL    HW254165   9.541   3.319   7.071  0.3501 -0.4221  1.9111
45519SOL     OW54166   7.492  12.749   8.273  0.4925 -0.0886  0.1602
45519SOL    HW154167   7.416  12.808   8.272  1.7126  1.5548  0.2906
45519SOL    HW254168   7.505  12.729   8.366 -1.0539 -2.1542 -0.0151
45520SOL     OW54169   8.663   3.447   0.503  0.3417 -0.1126  0.1112
45520SOL    HW154170   8.635   3.448   0.595  2.8775 -1.6673  1.0171
45520SOL    HW254171   8.754   3.475   0.506  1.5790 -3.3793 -1.3888
45521SOL     OW54172   0.362   5.195   0.859  0.0281 -0.5384 -0.5098
45521SOL    HW154173   0.444   5.200   0.908 -0.6831 -1.3383  0.8033
45521SOL    HW254174   0.386   5.222   0.770  1.5721 -0.1319 -0.0022
45522SOL     OW54175   8.921  11.400   8.087 -0.3188  0.2685 -0.0149
45522SOL    HW154176   9.001  11.445   8.060 -0.6560  1.3302  0.6764
45522SOL    HW254177   8.860  11.416   8.016  0.4559 -1.7074 -1.1958
45523SOL     OW54178   6.938  13.415  13.356  0.2172  0.0289 -0.0475
45523SOL    HW154179   7.026  13.389  13.330  0.7091  1.8609 -0.2832
45523SOL    HW254180   6.900  13.454  13.277 -0.8299 -0.7311  0.0527
45524SOL     OW54181   1.671   6.957  10.785 -0.0180 -0.4978  0.4172
45524SOL    HW154182   1.644   6.944  10.876 -0.2137 -0.5012  0.3583
45524SOL    HW254183   1.648   6.875  10.741 -0.4173 -0.2995  0.2469
45525SOL     OW54184   7.079   5.059   4.283  0.1545  0.1916  0.0808
45525SOL    HW154185   7.084   5.008   4.202  0.4604  1.8662 -0.9947
45525SOL    HW254186   6.990   5.046   4.315  0.4810 -1.7234  0.3531
45526SOL     OW54187   2.442   8.802   7.114 -0.3403  0.0814  0.7302
45526SOL    HW154188   2.374   8.818   7.180 -1.5853  1.2075 -0.7239
45526SOL    HW254189   2.516   8.855   7.142 -2.2036  3.8252 -0.6720
45527SOL     OW54190   1.627   0.787   6.200  0.3723 -0.1057 -0.3027
45527SOL    HW154191   1.607   0.827   6.285  0.5903  2.1813 -1.2582
45527SOL    HW254192   1.640   0.694   6.220  2.1473  0.6140  2.4472
45528SOL     OW54193   2.410   9.044  11.655 -0.0460  1.0649  0.4564
45528SOL    HW154194   2.475   9.038  11.726  1.5781  0.3533 -1.0154
45528SOL    HW254195   2.423   9.132  11.619  1.1780  0.4437 -0.7418
45529SOL     OW54196  10.599   5.317   0.563  0.1871  0.1145  0.2437
45529SOL    HW154197  10.575   5.260   0.490 -2.6710  0.4619  0.7990
45529SOL    HW254198  10.599   5.405   0.525  0.1040  0.1630  0.3555
45530SOL     OW54199   3.063  11.578  12.432  0.0965 -0.3474  0.3676
45530SOL    HW154200   3.091  11.610  12.518  1.5457 -0.0521 -0.1834
45530SOL    HW254201   3.126  11.509  12.410 -0.1562 -0.3114 -0.5219
45531SOL     OW54202  13.341   4.402   8.796  0.0651  0.3044  0.5191
45531SOL    HW154203  13.247   4.393   8.780  0.2467  0.8414 -0.9695
45531SOL    HW254204  13.351   4.488   8.837 -0.1031  0.1397  0.9157
45532SOL     OW54205  11.870  10.199   8.796  0.1779 -0.5031 -0.2600
45532SOL    HW154206  11.906  10.187   8.708 -0.1501 -0.6065 -0.3788
45532SOL    HW254207  11.857  10.293   8.804  0.4339 -0.4695 -0.2333
45533SOL     OW54208   4.223  12.919   5.893 -0.0106 -0.0555 -0.0601
45533SOL    HW154209   4.162  12.903   5.821  0.2766  0.2481 -0.3766
45533SOL    HW254210   4.306  12.940   5.850  0.5135 -1.1865  0.3719
45534SOL     OW54211   4.320  13.144   2.237  0.6475  0.7110  0.2129
45534SOL    HW154212   4.335  13.233   2.204  0.8312  0.1290 -1.3495
45534SOL    HW254213   4.227  13.141   2.257  0.2241  0.6748 -1.6312
45535SOL     OW54214  10.352   5.502   8.669 -0.1397  0.8868  0.3864
45535SOL    HW154215  10.442   5.528   8.690  0.0070 -0.0563  1.0332
45535SOL    HW254216  10.354   5.483   8.575  0.5968 -0.0506  0.5719
45536SOL     OW54217   2.177   9.575   2.983 -0.4310  0.3255  0.1692
45536SOL    HW154218   2.243   9.570   2.914 -0.3143 -1.5998  0.3789
45536SOL    HW254219   2.121   9.648   2.957  0.4289  0.5276 -1.2168
45537SOL     OW54220   8.700   3.387   8.833 -0.4472 -0.4436 -0.2455
45537SOL    HW154221   8.784   3.342   8.836 -0.3005 -0.1347  0.8415
45537SOL    HW254222   8.651   3.350   8.907 -0.9504 -0.0242 -0.3652
45538SOL     OW54223  10.638   2.933  10.908 -0.9182  1.0224 -0.2121
45538SOL    HW154224  10.721   2.973  10.933 -1.0920  2.0926 -1.2279
45538SOL    HW254225  10.659   2.880  10.831 -0.4750 -1.8634  1.7342
45539SOL     OW54226   0.826  13.839  11.823  0.0551 -0.1912 -0.1893
45539SOL    HW154227   0.918  13.853  11.803  0.4420 -2.2375 -0.0502
45539SOL    HW254228   0.817  13.868  11.914  0.9279 -1.3110  0.2759
45540SOL     OW54229   8.259  11.072   0.572  0.2350 -0.7110  0.5415
45540SOL    HW154230   8.203  11.050   0.646 -1.7637  1.5438 -0.1751
45540SOL    HW254231   8.240  11.005   0.506 -0.3882 -0.8901  0.8980
45541SOL     OW54232   5.333   3.980  13.301  0.1358  0.1442  0.1838
45541SOL    HW154233   5.406   3.920  13.317  0.7575  0.3895 -1.4886
45541SOL    HW254234   5.264   3.949  13.359  0.9187 -1.3168  0.4038
45542SOL     OW54235   4.174   0.086   1.090  1.0849  0.4948 -0.6416
45542SOL    HW154236   4.176   0.005   1.141 -0.9431  0.4132 -0.6255
45542SOL    HW254237   4.258   0.087   1.044  1.3916 -1.3182 -0.1986
45543SOL     OW54238   2.912   1.662   0.311  0.5037  0.3170 -0.6109
45543SOL    HW154239   3.008   1.668   0.317  0.4626  1.0674 -0.6208
45543SOL    HW254240   2.880   1.735   0.364 -0.0966 -0.6635  0.4022
45544SOL     OW54241   2.014  12.328   6.181 -0.0137  0.9244  0.3113
45544SOL    HW154242   1.995  12.404   6.126  0.6014  0.4127 -0.6297
45544SOL    HW254243   1.970  12.255   6.138  0.4728  0.5183  0.4885
45545SOL     OW54244   4.415   1.928  13.871  0.2168  0.2193 -0.0289
45545SOL    HW154245   4.427   1.971  13.955 -0.9865  0.3597  0.0895
45545SOL    HW254246   4.432   1.996  13.806 -0.1072  0.4453  0.1243
45546SOL     OW54247  11.085  13.117  11.195 -0.3894  0.2405 -0.0846
45546SOL    HW154248  11.090  13.032  11.152  1.0802 -0.3739  1.1811
45546SOL    HW254249  11.051  13.097  11.283 -0.7376  1.0693 -0.0225
45547SOL     OW54250   3.985  13.301   0.206 -1.1057 -0.2817  0.3388
45547SOL    HW154251   4.036  13.220   0.213  2.1819  1.6628  1.3770
45547SOL    HW254252   3.972  13.330   0.296 -1.0962  0.9623 -0.0345
45548SOL     OW54253   3.679  12.505   0.899  0.0733 -0.3098 -0.0063
45548SOL    HW154254   3.630  12.468   0.825  1.2481 -1.8138 -0.0823
45548SOL    HW254255   3.770  12.507   0.868  0.2079  1.6371  0.4280
45549SOL     OW54256   2.879  11.683   5.505  0.1500 -0.2254 -0.5484
45549SOL    HW154257   2.799  11.713   5.462 -1.3159 -1.5452  1.1575
45549SOL    HW254258   2.853  11.608   5.558  2.7432 -1.4171 -0.7817
45550SOL     OW54259  10.131   5.133   7.374 -0.3948 -0.1600 -0.9519
45550SOL    HW154260  10.188   5.144   7.450 -1.0882  0.5337 -0.5211
45550SOL    HW254261  10.087   5.217   7.365 -1.4067 -0.7077 -1.2257
45551SOL     OW54262   6.775   0.458   0.535 -0.0240 -0.4495  0.2708
45551SOL    HW154263   6.748   0.386   0.477  0.0748 -0.8460  0.7060
45551SOL    HW254264   6.717   0.530   0.512 -1.7477 -1.3797  1.4145
45552SOL     OW54265  13.210  11.395   1.309 -0.0550 -0.2338  0.1745
45552SOL    HW154266  13.287  11.437   1.271 -1.8626  0.4497 -3.0469
45552SOL    HW254267  13.148  11.467   1.322 -0.8039 -1.0232  1.0948
45553SOL     OW54268   9.231   5.677  11.888  0.2121 -0.6143 -0.4023
45553SOL    HW154269   9.209   5.604  11.945 -1.1626 -0.1331 -0.2886
45553SOL    HW254270   9.274   5.740  11.945 -1.1483 -0.1388  0.1272
45554SOL     OW54271   8.602   1.281   4.280  0.0550 -0.0074 -0.1769
45554SOL    HW154272   8.625   1.374   4.274  0.4617 -0.1614 -1.3464
45554SOL    HW254273   8.517   1.275   4.237  0.7900 -0.4039 -1.6655
45555SOL     OW54274   9.378  13.180   1.124 -0.3251  0.1437  0.2265
45555SOL    HW154275   9.423  13.162   1.042  0.0972  0.9517  0.2727
45555SOL    HW254276   9.449  13.187   1.189 -0.5953  0.2734  0.5111
45556SOL     OW54277   2.957   4.628   3.736 -0.1338  0.3752  0.3391
45556SOL    HW154278   3.035   4.576   3.713  0.9120  1.5094  1.1876
45556SOL    HW254279   2.969   4.710   3.688 -2.4525 -0.5627 -2.1020
45557SOL     OW54280   7.806   0.042  10.291 -0.4708  0.3544 -0.1044
45557SOL    HW154281   7.729  -0.014  10.284 -0.8745  0.7458  1.0608
45557SOL    HW254282   7.809   0.068  10.383  0.3836  1.3027 -0.3817
45558SOL     OW54283  12.717   6.771   6.048 -0.3017 -0.3713 -0.0175
45558SOL    HW154284  12.794   6.734   6.091 -0.4001 -0.4896  0.0594
45558SOL    HW254285  12.668   6.813   6.119 -0.0067  0.2328 -0.1577
45559SOL     OW54286   8.251  11.199   2.108  0.0919  0.0452 -0.2254
45559SOL    HW154287   8.229  11.141   2.035 -2.3505 -0.2188  0.6541
45559SOL    HW254288   8.261  11.140   2.183 -2.5952  0.6647  0.7177
45560SOL     OW54289   1.829   0.818  11.320 -0.1660  0.2008  0.7553
45560SOL    HW154290   1.905   0.877  11.315  0.8489 -1.1365 -0.4008
45560SOL    HW254291   1.859   0.744  11.373 -0.8051 -0.1518  0.6359
45561SOL     OW54292   7.745   0.532   6.936  0.0259  0.8042 -0.2929
45561SOL    HW154293   7.777   0.621   6.950  0.1251  1.0708 -2.0350
45561SOL    HW254294   7.727   0.499   7.025 -1.0460  2.9210  0.3503
45562SOL     OW54295   6.788   0.898   3.595  0.0255 -0.2029 -0.0671
45562SOL    HW154296   6.804   0.986   3.563  0.7528 -0.5261 -0.6170
45562SOL    HW254297   6.845   0.889   3.672  0.9104 -0.6150 -0.7551
45563SOL     OW54298   4.207  13.756   4.680 -0.4164  0.2426 -0.0875
45563SOL    HW154299   4.116  13.773   4.656 -0.3984 -0.6012 -0.7883
45563SOL    HW254300   4.202  13.691   4.751 -0.3534  0.0868 -0.2256
45564SOL     OW54301   6.485   5.986   1.543 -0.1941  0.0573  0.3400
45564SOL    HW154302   6.527   5.900   1.543  0.6199  0.4377  0.3838
45564SOL    HW254303   6.514   6.027   1.624 -0.2390  0.5247  0.1273
45565SOL     OW54304  11.767   6.301   3.448  0.3932 -0.0544 -0.5144
45565SOL    HW154305  11.852   6.281   3.409  0.6838 -0.5269  0.3354
45565SOL    HW254306  11.785   6.310   3.542 -0.2698  1.1524 -0.4847
45566SOL     OW54307   3.385  11.958   0.378 -0.0619  1.0305  0.4994
45566SOL    HW154308   3.443  11.901   0.328  0.3559  1.6438  0.2819
45566SOL    HW254309   3.322  11.991   0.314  0.3177  1.6141  0.4247
45567SOL     OW54310   4.464   3.925  10.115  0.2238  0.2793  0.1147
45567SOL    HW154311   4.432   3.957  10.030  1.5915 -0.8764 -0.8802
45567SOL    HW254312   4.405   3.853  10.137  0.8099 -0.4663 -0.6743
45568SOL     OW54313   0.934  13.204   8.565  0.5503 -0.4230  0.1524
45568SOL    HW154314   0.925  13.200   8.470  0.1306  0.6483  0.1287
45568SOL    HW254315   1.028  13.214   8.580  0.6582 -0.9707 -0.1198
45569SOL     OW54316   7.408   2.765  11.299  0.0504  1.1499 -1.0260
45569SOL    HW154317   7.454   2.710  11.236  2.9758  0.9727  1.0852
45569SOL    HW254318   7.429   2.855  11.273  0.8105  1.0852 -0.6688
45570SOL     OW54319   0.377   7.686  13.441 -0.4361  0.0173 -0.5454
45570SOL    HW154320   0.305   7.673  13.502 -0.1805  0.8506 -0.0462
45570SOL    HW254321   0.400   7.598  13.411 -1.3427 -0.2934 -0.3533
45571SOL     OW54322  10.933   8.361   2.768 -0.0963 -0.1196 -0.5678
45571SOL    HW154323  10.968   8.328   2.851  0.7339 -0.2594 -0.9615
45571SOL    HW254324  10.863   8.421   2.794  0.7326  0.5167  0.2642
45572SOL     OW54325   2.867   0.887  10.220  0.0146 -0.4235 -0.5332
45572SOL    HW154326   2.849   0.956  10.283 -0.2704 -0.2310 -0.8185
45572SOL    HW254327   2.842   0.806  10.265 -1.4722 -0.1784 -0.8481
45573SOL     OW54328   7.315  13.698  13.026 -0.0939 -0.1748 -0.3110
45573SOL    HW154329   7.355  13.728  12.944  1.3536 -1.8016 -0.2555
45573SOL    HW254330   7.339  13.764  13.090 -0.1880  0.4778 -0.9347
45574SOL     OW54331  11.396   0.751   2.449  0.4808 -0.1490  0.1273
45574SOL    HW154332  11.472   0.698   2.425  0.6929 -0.5361  1.5521
45574SOL    HW254333  11.353   0.702   2.519 -0.8012  0.3166 -0.2939
45575SOL     OW54334   5.268  13.965   6.277 -0.0463 -0.1579  1.0367
45575SOL    HW154335   5.245  13.873   6.281  0.4791 -0.2799  1.2523
45575SOL    HW254336   5.242  14.001   6.361 -4.7060  0.9739 -0.5899
45576SOL     OW54337   0.655   7.613  13.547  0.4114 -0.2576 -0.1088
45576SOL    HW154338   0.662   7.530  13.500 -1.2381 -1.1403  1.1070
45576SOL    HW254339   0.574   7.652  13.515 -0.8984 -1.0056  2.0661
45577SOL     OW54340   2.762   1.079   3.033 -0.0536 -0.0677  0.0293
45577SOL    HW154341   2.794   1.065   3.122  2.3383  0.2197 -0.7133
45577SOL    HW254342   2.750   0.991   2.999 -1.5182 -0.1828  0.7811
45578SOL     OW54343  11.592  13.926   5.171 -0.1953 -0.0048 -0.0279
45578SOL    HW154344  11.652  13.906   5.099 -1.2609 -1.1975 -0.6296
45578SOL    HW254345  11.590  14.022   5.174 -0.8784  0.1182 -2.2912
45579SOL     OW54346  13.586   2.890  11.598 -0.0770 -0.6040  0.2726
45579SOL    HW154347  13.630   2.805  11.605 -1.4636 -1.4490 -0.7376
45579SOL    HW254348  13.492   2.868  11.601 -0.4502  0.9496  0.5248
45580SOL     OW54349  12.385   5.765   5.524 -0.4495 -0.7720  0.6031
45580SOL    HW154350  12.452   5.826   5.556  0.3920 -0.1562 -2.0855
45580SOL    HW254351  12.404   5.683   5.570  0.9441 -0.0994  1.2934
45581SOL     OW54352  13.629   5.483  13.498  0.1756  0.2734  0.0430
45581SOL    HW154353  13.564   5.413  13.501 -0.7423  0.9585 -1.8014
45581SOL    HW254354  13.713   5.438  13.489 -0.4677 -0.6385 -1.9553
45582SOL     OW54355   5.713   0.372   0.784 -0.0752 -0.5197  0.5698
45582SOL    HW154356   5.660   0.301   0.821 -1.1802 -0.2413 -0.4183
45582SOL    HW254357   5.719   0.351   0.691 -0.1200  0.4934  0.3249
45583SOL     OW54358  11.536   6.331   9.750 -0.2516  0.3205 -0.3513
45583SOL    HW154359  11.570   6.417   9.774 -1.2373  0.8405 -0.7548
45583SOL    HW254360  11.456   6.321   9.803  1.1574 -1.4743  1.6343
45584SOL     OW54361   0.437   6.893   7.577 -0.1038 -0.0643 -0.3689
45584SOL    HW154362   0.527   6.897   7.610 -0.0072  0.7303 -0.7059
45584SOL    HW254363   0.393   6.833   7.637  0.6661 -0.5262 -0.2448
45585SOL     OW54364   4.304   2.638   9.681 -0.0066 -0.0387 -0.0207
45585SOL    HW154365   4.237   2.701   9.657 -0.1041 -0.1905 -0.1507
45585SOL    HW254366   4.354   2.624   9.600  1.1389  1.2194  0.4277
45586SOL     OW54367   4.158   4.520   8.581 -0.4627  0.8287 -0.1031
45586SOL    HW154368   4.182   4.433   8.547  0.4646  1.5360 -1.3358
45586SOL    HW254369   4.167   4.511   8.676  2.0591  0.2372 -0.3279
45587SOL     OW54370   4.634  10.332   3.476  0.4367  0.1082 -0.2218
45587SOL    HW154371   4.557  10.369   3.519  0.7761  0.6329 -0.0573
45587SOL    HW254372   4.601  10.256   3.429 -0.0112 -0.2541  0.6591
45588SOL     OW54373  10.595   8.306   2.649 -0.3061  0.4888  0.0159
45588SOL    HW154374  10.537   8.277   2.719  0.6606  1.2455  1.1954
45588SOL    HW254375  10.683   8.294   2.685  0.3946 -1.8182 -2.1828
45589SOL     OW54376   7.165   0.973   5.993 -0.5267 -0.5682 -0.5006
45589SOL    HW154377   7.172   0.996   6.085  1.4362 -1.2806 -0.4326
45589SOL    HW254378   7.236   0.911   5.977 -0.3115  0.1290 -2.6662
45590SOL     OW54379   4.685   6.359  11.509 -0.1870 -0.2871 -0.4237
45590SOL    HW154380   4.680   6.270  11.543  1.2667 -0.3096 -0.2277
45590SOL    HW254381   4.616   6.363  11.443 -1.4266 -1.0050  0.7632
45591SOL     OW54382   1.242   7.151   1.136  0.0801 -0.1380  0.4592
45591SOL    HW154383   1.331   7.171   1.166 -0.8979  0.9979  2.8656
45591SOL    HW254384   1.231   7.204   1.057  1.9594 -1.3532 -0.6912
45592SOL     OW54385   6.795   1.910  12.056 -0.9712  0.1170 -0.1957
45592SOL    HW154386   6.813   1.863  11.975  0.9149  0.2266  0.1004
45592SOL    HW254387   6.767   1.997  12.027  1.0369  0.6326 -0.8082
45593SOL     OW54388   7.181  13.769  12.262  0.4086  0.5797 -0.3024
45593SOL    HW154389   7.172  13.676  12.241  2.2186  0.0397  1.0889
45593SOL    HW254390   7.148  13.776  12.352  0.8803  1.1676 -0.1710
45594SOL     OW54391   1.937   0.214   5.449 -0.5681 -0.4896  0.5470
45594SOL    HW154392   1.894   0.213   5.535  0.6688  0.9813  1.2341
45594SOL    HW254393   2.002   0.144   5.455 -0.5965 -0.4999  0.7682
45595SOL     OW54394  11.730  12.896   6.053  0.0362 -0.2075 -0.0341
45595SOL    HW154395  11.641  12.923   6.077  0.2411 -0.7732  1.4820
45595SOL    HW254396  11.728  12.801   6.056  0.9632 -0.2075  1.1318
45596SOL     OW54397   6.365   4.639  13.279 -0.2473  0.6413  0.5169
45596SOL    HW154398   6.347   4.600  13.194 -0.6398 -0.7143  1.1933
45596SOL    HW254399   6.284   4.628  13.329  0.8915 -1.4724  2.0956
45597SOL     OW54400   7.456   2.521  12.324  0.0731 -0.1859  0.2395
45597SOL    HW154401   7.491   2.527  12.235  0.6186  1.0636  0.5261
45597SOL    HW254402   7.532   2.532  12.381 -0.6633  2.0501  0.8731
45598SOL     OW54403   6.863   8.637  12.989  0.2052  0.2561 -0.1665
45598SOL    HW154404   6.820   8.579  13.052 -0.2933  0.8101  0.0191
45598SOL    HW254405   6.951   8.649  13.024  0.8416 -1.6334 -1.0423
45599SOL     OW54406   9.061   6.755   0.522 -0.3001  0.2134  0.2790
45599SOL    HW154407   8.991   6.810   0.557 -1.2457 -0.5154 -0.4333
45599SOL    HW254408   9.138   6.811   0.522 -1.0405  1.2501  0.4089
45600SOL     OW54409   8.527   0.958   2.705  0.1877  0.2827 -0.3992
45600SOL    HW154410   8.535   0.884   2.644  1.8270 -0.6319  0.8501
45600SOL    HW254411   8.564   0.925   2.787  0.6908  2.3970  0.2733
45601SOL     OW54412  13.642   8.685  13.485  0.1713 -0.7971 -0.0788
45601SOL    HW154413  13.601   8.658  13.567  0.1703 -0.7891 -0.0768
45601SOL    HW254414  13.580   8.659  13.417  0.0584 -0.5767 -0.0595
45602SOL     OW54415  14.058   7.109   4.620 -0.0576  0.0076  0.6831
45602SOL    HW154416  14.012   7.193   4.627  0.1551  0.2510 -0.6461
45602SOL    HW254417  13.988   7.045   4.604 -0.0961  0.1177  0.4134
45603SOL     OW54418   7.937   7.014   3.028  0.0838 -0.1567 -0.4107
45603SOL    HW154419   7.857   7.001   2.978  0.6276 -1.4698 -0.9917
45603SOL    HW254420   7.969   7.100   3.002 -1.7050  0.8850  0.6709
45604SOL     OW54421   9.839   2.437  11.447  0.2279  0.3346  0.4911
45604SOL    HW154422   9.833   2.525  11.409  2.3337  0.5867  0.6051
45604SOL    HW254423   9.798   2.446  11.534  0.3129  1.1798  0.4532
45605SOL     OW54424   0.147  10.847  12.451 -0.4013 -0.0669  0.1731
45605SOL    HW154425   0.112  10.926  12.493 -0.5522 -0.7947  1.4806
45605SOL    HW254426   0.220  10.878  12.398  0.5953  0.7797  1.9392
45606SOL     OW54427  13.624   6.199  12.523 -0.3067 -0.2811 -0.2044
45606SOL    HW154428  13.697   6.250  12.557 -0.1213  0.1917 -1.2617
45606SOL    HW254429  13.552   6.218  12.583  0.6048 -1.3148  1.2529
45607SOL     OW54430  11.357   2.364   0.530 -0.4997  0.8211  0.2746
45607SOL    HW154431  11.405   2.442   0.504 -0.4969  0.3676 -1.1351
45607SOL    HW254432  11.388   2.346   0.619 -0.4903  2.3925  0.6180
45608SOL     OW54433  11.738   1.638   3.097  0.0178  0.3047 -0.0315
45608SOL    HW154434  11.786   1.671   3.021 -0.3919  0.3171 -0.2891
45608SOL    HW254435  11.790   1.666   3.172 -0.3002  1.5301 -0.2427
45609SOL     OW54436   7.432   4.699  13.308  1.1508 -0.3559  0.3581
45609SOL    HW154437   7.512   4.749  13.327  0.7909  0.5995 -0.4930
45609SOL    HW254438   7.447   4.663  13.220  0.6503 -0.1615  0.1889
45610SOL     OW54439  13.421   2.133   8.662  0.0919 -0.3102 -0.2048
45610SOL    HW154440  13.332   2.114   8.632  0.3056  0.2124 -1.1921
45610SOL    HW254441  13.439   2.064   8.727 -0.3713 -1.5019 -1.2953
45611SOL     OW54442   6.785   8.063   1.511 -0.1367 -0.8110  0.1816
45611SOL    HW154443   6.745   7.983   1.477  0.8017 -0.4647 -1.9749
45611SOL    HW254444   6.758   8.068   1.602 -1.6665 -2.6427 -0.1204
45612SOL     OW54445  13.772   8.222   9.120 -0.2432  0.1482 -0.6262
45612SOL    HW154446  13.712   8.155   9.089  0.0289 -0.3038 -0.1822
45612SOL    HW254447  13.728   8.262   9.195 -0.5398  0.6799 -1.0788
45613SOL     OW54448   9.837  13.906   5.186  0.1446 -0.3126  0.0630
45613SOL    HW154449   9.821  13.828   5.238  1.2954 -0.2302  0.5695
45613SOL    HW254450   9.789  13.891   5.104  0.2383 -1.4805  0.2140
45614SOL     OW54451   9.863   1.335  12.303 -0.4926 -0.0757  0.1189
45614SOL    HW154452   9.938   1.276  12.295  0.4973  1.2126 -0.6369
45614SOL    HW254453   9.847   1.341  12.397 -0.2960 -1.1427  0.2327
45615SOL     OW54454   3.521  13.627  11.982 -0.5450  0.1462 -0.3385
45615SOL    HW154455   3.504  13.561  12.049 -1.3883 -0.6214 -1.2699
45615SOL    HW254456   3.449  13.618  11.920  0.9175 -0.1496 -2.1092
45616SOL     OW54457   3.580   1.109   3.373 -0.1558 -0.5963 -0.2111
45616SOL    HW154458   3.564   1.202   3.362 -1.1623 -0.6467  0.7236
45616SOL    HW254459   3.656   1.091   3.317 -1.2273  0.3456 -2.0304
45617SOL     OW54460   1.512   0.821   5.354 -0.2337 -0.1559 -0.1474
45617SOL    HW154461   1.457   0.867   5.290  1.4196  0.7727 -0.9670
45617SOL    HW254462   1.469   0.837   5.438 -1.5729 -0.0319 -0.8401
45618SOL     OW54463   2.721  10.354   5.500 -0.1126  0.1734 -0.6452
45618SOL    HW154464   2.683  10.331   5.415 -1.8130  0.6911 -0.0721
45618SOL    HW254465   2.703  10.278   5.556 -0.1258  0.3421 -0.4170
45619SOL     OW54466   3.380   8.118   3.985 -0.3114 -0.2981 -0.2302
45619SOL    HW154467   3.347   8.186   4.045 -0.5569  0.8325 -1.5906
45619SOL    HW254468   3.429   8.167   3.919  0.5328 -1.5845 -0.5768
45620SOL     OW54469   5.567   0.990  12.474 -0.2595  0.4045  0.3458
45620SOL    HW154470   5.556   1.033  12.559  0.4656  0.5018  0.3961
45620SOL    HW254471   5.585   0.899  12.496  0.9111  0.6188  0.3461
45621SOL     OW54472  12.047   3.191  12.365  0.1167  0.1606 -0.1143
45621SOL    HW154473  11.993   3.255  12.319 -0.1961 -0.1652 -0.2082
45621SOL    HW254474  12.049   3.223  12.456 -0.3629  0.0979 -0.0775
45622SOL     OW54475  11.833   6.063   4.050 -0.1527  0.3777  0.3212
45622SOL    HW154476  11.851   6.086   4.142  2.5765 -1.6930  0.4377
45622SOL    HW254477  11.763   6.123   4.023  0.7121  2.7706  2.9729
45623SOL     OW54478  10.834  13.339  12.385  0.0024 -0.5653  0.1049
45623SOL    HW154479  10.794  13.421  12.357 -1.5546 -1.2243  0.2784
45623SOL    HW254480  10.789  13.272  12.334  0.7926 -1.3658  0.4381
45624SOL     OW54481   6.912   3.230  11.946  0.8405 -0.4565 -0.3880
45624SOL    HW154482   6.919   3.146  11.991  0.3311 -0.5541 -0.4824
45624SOL    HW254483   6.819   3.254  11.954  1.1848  0.6760  0.6723
45625SOL     OW54484  11.187   9.871   6.074 -0.0810  0.0509 -0.4050
45625SOL    HW154485  11.128   9.924   6.020 -2.3394 -1.3734  0.4879
45625SOL    HW254486  11.177   9.907   6.162  0.5360 -0.1126 -0.2634
45626SOL     OW54487  13.706  11.253   3.272  0.1159  0.1392  0.1403
45626SOL    HW154488  13.718  11.174   3.325  0.2573 -0.7352 -1.1538
45626SOL    HW254489  13.786  11.260   3.220 -0.6430  0.1092 -1.0614
45627SOL     OW54490   9.193   0.541  12.930  0.7188  0.3047  0.9819
45627SOL    HW154491   9.198   0.539  12.834  0.8684  0.6034  0.9829
45627SOL    HW254492   9.100   0.527  12.949  1.0023 -2.1914  0.8791
45628SOL     OW54493  10.331   1.851   6.322  0.8669 -0.4811 -0.3430
45628SOL    HW154494  10.295   1.805   6.398  0.9178  0.6794  0.3999
45628SOL    HW254495  10.425   1.832   6.324  1.5053  2.2449  1.9184
45629SOL     OW54496   6.500   0.402  12.685 -0.3145 -0.3629  0.0227
45629SOL    HW154497   6.490   0.328  12.745  0.3871 -0.6330 -0.1862
45629SOL    HW254498   6.586   0.438  12.706 -0.6813  0.4493  0.1759
45630SOL     OW54499   6.612  10.131   3.980 -0.0332 -0.3352  0.4498
45630SOL    HW154500   6.610  10.200   3.914  1.0907 -0.3387  0.3839
45630SOL    HW254501   6.598  10.177   4.063 -0.5630 -0.2073  0.2896
45631SOL     OW54502   1.879   3.328   5.497 -0.8655 -0.3885  0.4015
45631SOL    HW154503   1.936   3.348   5.571 -0.7184  0.6202  0.0252
45631SOL    HW254504   1.797   3.374   5.516 -0.3647  1.0021 -0.6987
45632SOL     OW54505   8.827   3.826   1.339  0.3481  0.4622 -0.0590
45632SOL    HW154506   8.778   3.902   1.372 -0.9966 -0.0278 -0.8335
45632SOL    HW254507   8.759   3.767   1.306  1.3406 -1.3197  0.9862
45633SOL     OW54508   0.024   0.934   8.017  0.3977  0.3831  0.2891
45633SOL    HW154509  -0.061   0.891   8.022 -0.1026  1.4293  1.3071
45633SOL    HW254510   0.052   0.941   8.108  0.8122  1.5052  0.0855
45634SOL     OW54511   9.036   9.975   0.839 -0.4157 -0.6450 -0.4062
45634SOL    HW154512   8.980   9.990   0.915  0.4884  0.1695  0.1206
45634SOL    HW254513   9.013  10.044   0.777 -1.9106 -1.9289 -1.3742
45635SOL     OW54514   3.898   0.117   1.214  0.4675  0.2060 -0.2126
45635SOL    HW154515   3.896   0.027   1.247  1.8518  0.5622  0.9301
45635SOL    HW254516   3.986   0.127   1.176  0.0383  0.8370 -1.0836
45636SOL     OW54517  10.380  11.201   3.577 -0.4425  0.3282 -0.0028
45636SOL    HW154518  10.463  11.248   3.567  0.2030 -0.3435  1.9526
45636SOL    HW254519  10.330  11.254   3.639 -1.9539  1.2657 -1.8979
45637SOL     OW54520  13.009   4.805   8.734 -0.4227 -0.5339  0.2090
45637SOL    HW154521  12.937   4.741   8.739  0.1544 -1.2875 -0.6578
45637SOL    HW254522  12.983   4.863   8.662  0.3649 -1.5413 -0.9345
45638SOL     OW54523   9.585   6.683   9.257  0.0429  0.6197 -0.3497
45638SOL    HW154524   9.593   6.742   9.332 -1.3564  0.6429 -0.1872
45638SOL    HW254525   9.636   6.725   9.188  0.2537  1.2812  0.1982
45639SOL     OW54526   8.876   2.224  13.154  0.0066  0.0172 -0.1207
45639SOL    HW154527   8.878   2.128  13.147  0.0409  0.0144 -0.0700
45639SOL    HW254528   8.811   2.241  13.223  0.4170  0.0125  0.2694
45640SOL     OW54529  10.787   5.749  14.038  0.4332 -0.5210  0.5266
45640SOL    HW154530  10.697   5.722  14.052  1.1607 -2.5461  1.7740
45640SOL    HW254531  10.814   5.705  13.957 -0.3219  1.9696 -1.1931
45641SOL     OW54532   2.664   5.522  10.762  0.0831 -0.0955 -0.2426
45641SOL    HW154533   2.750   5.564  10.771 -0.0777  0.1905 -0.0528
45641SOL    HW254534   2.627   5.524  10.849  0.3894 -1.3344 -0.0613
45642SOL     OW54535  12.594   4.272   2.381 -0.2665 -0.9305  0.0279
45642SOL    HW154536  12.540   4.214   2.327 -1.1672 -1.6133  1.5966
45642SOL    HW254537  12.616   4.220   2.458  1.4294 -0.1569  0.1002
45643SOL     OW54538   7.481  13.080  10.005  0.2547 -0.1718  0.2383
45643SOL    HW154539   7.572  13.064   9.978  0.1451  0.4308 -0.5217
45643SOL    HW254540   7.461  13.167   9.970 -1.2008 -1.0302 -1.1811
45644SOL     OW54541   2.231  13.157   8.970 -0.6836  0.1883 -0.4628
45644SOL    HW154542   2.290  13.180   8.899 -0.3398  1.4961  0.2171
45644SOL    HW254543   2.278  13.087   9.018  0.0664  0.8114 -0.2660
45645SOL     OW54544   1.068  12.352  10.740 -0.1139 -0.1241  0.1439
45645SOL    HW154545   0.985  12.388  10.712 -0.5737  1.1490  2.8427
45645SOL    HW254546   1.045  12.280  10.800  0.6877  0.2384  0.9238
45646SOL     OW54547   1.247   1.277   0.354 -0.3644 -0.2161  0.3788
45646SOL    HW154548   1.247   1.191   0.396  0.5706 -0.6201 -0.3995
45646SOL    HW254549   1.164   1.317   0.380 -0.4986 -1.0704  1.3152
45647SOL     OW54550   2.773   4.177   1.920  0.0713 -1.0765  0.3667
45647SOL    HW154551   2.816   4.103   1.877  0.0331 -0.7542 -0.2299
45647SOL    HW254552   2.795   4.253   1.866  0.8846 -0.4889  1.4939
45648SOL     OW54553  10.840   0.036   2.072  0.0543 -0.0079  0.0258
45648SOL    HW154554  10.927   0.009   2.100  1.0042  1.6761 -1.1412
45648SOL    HW254555  10.793  -0.047   2.059  1.6614 -0.9793  0.0613
45649SOL     OW54556   1.476   6.362   3.325 -0.3748  0.3430  0.2839
45649SOL    HW154557   1.403   6.408   3.284 -0.3802  0.7525  0.7474
45649SOL    HW254558   1.523   6.322   3.251 -0.2032  1.3268 -0.1645
45650SOL     OW54559  12.988   0.436  10.408  0.6500 -0.1447  0.0640
45650SOL    HW154560  13.032   0.355  10.436  0.7486 -0.5197 -1.1323
45650SOL    HW254561  12.900   0.429  10.445  1.2793  0.2013  1.7325
45651SOL     OW54562   7.099   1.452   6.165 -0.2926  0.3806 -0.3802
45651SOL    HW154563   7.137   1.538   6.149 -0.9446  0.7298 -0.1193
45651SOL    HW254564   7.075   1.419   6.079  0.1729  0.3636 -0.5003
45652SOL     OW54565  10.038  14.062   1.148 -0.4856  0.1591  0.5596
45652SOL    HW154566  10.003  14.036   1.233 -2.3358 -1.0277 -0.4975
45652SOL    HW254567  10.076  13.982   1.112 -1.0542  0.2705 -0.3248
45653SOL     OW54568   4.444  13.066   7.607 -0.2878 -0.4042  0.4710
45653SOL    HW154569   4.451  13.020   7.523  0.9384 -1.0030  0.8836
45653SOL    HW254570   4.446  13.159   7.583 -1.2842 -0.5535 -0.2541
45654SOL     OW54571   8.132  11.206   8.864 -0.6328  0.0906 -0.1624
45654SOL    HW154572   8.047  11.188   8.904 -0.9980 -0.0249 -0.9666
45654SOL    HW254573   8.194  11.206   8.937 -1.2563 -0.2635  0.3751
45655SOL     OW54574   0.258   0.729  10.496  0.1620  0.2836  0.0036
45655SOL    HW154575   0.349   0.760  10.490 -0.0259  0.7658 -0.4319
45655SOL    HW254576   0.207   0.797  10.452 -0.2674 -0.6382 -0.9509
45656SOL     OW54577   4.905  13.406   0.615 -0.1462 -0.0300 -0.2731
45656SOL    HW154578   4.900  13.329   0.672 -1.7633  0.5160  0.3703
45656SOL    HW254579   4.926  13.478   0.674  0.4231  0.1949 -0.7362
45657SOL     OW54580   0.456   9.221  13.425 -0.0982 -0.1685 -0.4098
45657SOL    HW154581   0.491   9.292  13.371  0.9724 -0.1068  0.3282
45657SOL    HW254582   0.424   9.265  13.503 -1.1980 -0.3101 -0.7683
45658SOL     OW54583  10.456  12.139   8.012 -0.3264  0.1679 -0.6176
45658SOL    HW154584  10.539  12.112   8.051 -0.2248 -0.8920 -1.5232
45658SOL    HW254585  10.414  12.192   8.080  1.3528  1.2559 -0.3752
45659SOL     OW54586   1.844   5.715   0.757 -0.2178 -0.3302 -0.7729
45659SOL    HW154587   1.906   5.695   0.827  0.5794  0.8281 -1.1125
45659SOL    HW254588   1.875   5.664   0.682  0.2975  0.1714 -0.9143
45660SOL     OW54589   0.459   6.450   3.658 -0.6447 -0.5033 -0.3191
45660SOL    HW154590   0.436   6.437   3.750  1.7006 -1.6702  0.1825
45660SOL    HW254591   0.379   6.429   3.609 -1.2217 -2.4253  1.3397
45661SOL     OW54592   0.350   7.906   8.352  0.1153 -0.3577  0.5167
45661SOL    HW154593   0.319   7.930   8.439  0.2061  2.1161 -0.0630
45661SOL    HW254594   0.275   7.920   8.295  0.6716  0.2203 -0.0963
45662SOL     OW54595   7.911   4.910  10.733  0.2151 -0.3672 -0.1463
45662SOL    HW154596   7.881   4.992  10.695  1.2832  0.1469  0.0813
45662SOL    HW254597   7.831   4.864  10.759 -0.4474  0.1061 -1.2748
45663SOL     OW54598   7.911   7.550   0.560  0.3046 -0.1301  0.8002
45663SOL    HW154599   7.975   7.541   0.631  1.2974 -0.7346 -0.1364
45663SOL    HW254600   7.937   7.483   0.497 -1.0411 -0.1295  0.2256
45664SOL     OW54601   2.110   7.368   3.034  0.2714  0.2002  0.0023
45664SOL    HW154602   2.056   7.399   2.961 -3.0649 -0.9283  1.7916
45664SOL    HW254603   2.102   7.437   3.101  1.1869  0.0521  0.2900
45665SOL     OW54604   9.592   3.835  12.359  0.8978  0.0852 -0.4329
45665SOL    HW154605   9.586   3.747  12.397  1.6506 -0.1605 -0.8612
45665SOL    HW254606   9.600   3.820  12.265 -0.7137  0.6883 -0.6997
45666SOL     OW54607  12.302   4.591   7.493  0.4828 -0.0506 -0.1812
45666SOL    HW154608  12.336   4.523   7.435  0.5409  0.2686 -0.5239
45666SOL    HW254609  12.353   4.669   7.472  0.7438 -0.0152  0.5420
45667SOL     OW54610   0.519   4.403   3.572 -0.3330 -0.6319  0.3140
45667SOL    HW154611   0.563   4.486   3.593  1.2090 -0.6867 -2.3253
45667SOL    HW254612   0.581   4.336   3.600 -1.0818 -0.9105  1.3773
45668SOL     OW54613   5.884   0.018   5.822  0.6415 -0.2978 -0.1974
45668SOL    HW154614   5.949  -0.046   5.796  1.0907  0.2898 -0.5389
45668SOL    HW254615   5.804  -0.007   5.774  0.2582 -1.7048  1.0973
45669SOL     OW54616  12.402  12.402   9.651 -0.3089 -0.5836 -1.0792
45669SOL    HW154617  12.438  12.455   9.722 -2.0605 -0.1918 -0.4334
45669SOL    HW254618  12.447  12.318   9.659 -1.7492 -1.2102  1.7506
45670SOL     OW54619   5.175   6.085   9.481  0.1874 -0.3664  0.5767
45670SOL    HW154620   5.257   6.117   9.519  0.4610 -0.2747 -0.0747
45670SOL    HW254621   5.152   6.150   9.415 -1.7451  0.9456  2.3989
45671SOL     OW54622  10.786   5.600   7.014 -0.0970 -0.2942  0.6772
45671SOL    HW154623  10.701   5.578   6.975 -0.0724 -0.7354  0.8606
45671SOL    HW254624  10.763   5.638   7.099 -0.0823 -2.6756  1.8395
45672SOL     OW54625  10.538   0.665  10.348  1.2929  0.3710 -0.1781
45672SOL    HW154626  10.491   0.727  10.404  0.8323  0.0037 -0.1581
45672SOL    HW254627  10.586   0.610  10.410 -0.3525 -0.9776 -0.0332
45673SOL     OW54628   2.306   7.242   5.719 -0.8566  0.2117  0.3013
45673SOL    HW154629   2.234   7.285   5.766 -1.1363  2.2185 -1.7222
45673SOL    HW254630   2.372   7.311   5.709 -0.9678  0.0354 -2.4171
45674SOL     OW54631   2.957   2.249   4.892  0.0090 -0.5628 -0.4750
45674SOL    HW154632   2.887   2.266   4.954  1.0904 -2.6839  1.4986
45674SOL    HW254633   2.920   2.186   4.830 -0.4603 -0.0182 -0.7542
45675SOL     OW54634   2.918  13.688   8.350 -0.5189  0.2932  0.3979
45675SOL    HW154635   2.845  13.643   8.309 -0.8191  0.5172  0.6738
45675SOL    HW254636   2.978  13.708   8.279 -0.6319 -0.0712  0.1994
45676SOL     OW54637   5.925  12.209  13.556 -0.3483 -0.1470  0.2581
45676SOL    HW154638   5.904  12.116  13.570 -1.5160 -0.0252 -0.5525
45676SOL    HW254639   5.948  12.214  13.463 -0.5644  0.4243  0.2335
45677SOL     OW54640   1.886  10.959  13.383 -0.6864  0.3831 -0.6379
45677SOL    HW154641   1.813  11.006  13.342 -0.3124  1.0656 -0.5348
45677SOL    HW254642   1.953  10.956  13.315  0.2500  2.2336  0.1362
45678SOL     OW54643   5.807  12.063   0.354  0.2982  0.5489 -0.3256
45678SOL    HW154644   5.897  12.049   0.325  0.0085 -0.0317 -0.9858
45678SOL    HW254645   5.754  12.048   0.275 -0.3363  1.4437 -0.0838
45679SOL     OW54646   1.242   5.358   3.589  0.4889 -0.4010 -0.9073
45679SOL    HW154647   1.180   5.391   3.654 -0.0679 -0.8445 -1.2122
45679SOL    HW254648   1.238   5.263   3.599  0.9039 -0.4427 -1.1344
45680SOL     OW54649   5.238   0.650   7.370 -0.0209 -0.0930 -0.5805
45680SOL    HW154650   5.208   0.569   7.329 -0.1011 -0.2966 -0.1299
45680SOL    HW254651   5.160   0.705   7.376  0.1285  0.2011 -1.3061
45681SOL     OW54652   3.866   0.480   5.713 -0.1999 -0.1091  0.3238
45681SOL    HW154653   3.779   0.508   5.686 -0.6099 -1.5649  0.0586
45681SOL    HW254654   3.854   0.453   5.804 -0.7474 -3.0465 -0.5228
45682SOL     OW54655  12.850   2.915   1.363  0.4055  0.0634  0.1576
45682SOL    HW154656  12.875   2.924   1.271  0.9284  0.0578  0.2926
45682SOL    HW254657  12.894   2.834   1.392  1.0107  0.5528  0.6495
45683SOL     OW54658   9.491   3.353   2.502  0.5640  0.0997  0.1519
45683SOL    HW154659   9.508   3.408   2.426 -0.4890  1.3457  0.7748
45683SOL    HW254660   9.398   3.368   2.522  0.0263 -2.4674 -0.0733
45684SOL     OW54661   9.111   9.395   4.482  0.0978 -0.3650  0.1325
45684SOL    HW154662   9.204   9.375   4.467 -0.0363 -0.3429 -0.8003
45684SOL    HW254663   9.089   9.457   4.413 -0.6898 -0.5952  0.1780
45685SOL     OW54664  12.788  12.163  13.304  0.4839 -0.3394 -0.3295
45685SOL    HW154665  12.810  12.120  13.387  0.3090  1.0799  0.4907
45685SOL    HW254666  12.852  12.131  13.242  0.8966 -1.1002  0.4712
45686SOL     OW54667   3.816   9.326   0.143 -0.5017  0.0114 -0.4307
45686SOL    HW154668   3.811   9.237   0.177 -1.1198  0.3688  0.4328
45686SOL    HW254669   3.827   9.315   0.048  0.9201 -0.9932 -0.1840
45687SOL     OW54670  12.935   4.324   8.074 -0.2059  0.3014  0.4377
45687SOL    HW154671  12.845   4.308   8.103 -0.6281  2.5402  0.5283
45687SOL    HW254672  12.928   4.398   8.014  1.1460 -1.7734 -2.5312
45688SOL     OW54673  10.943   1.018   3.692 -0.7230  0.3244  0.0481
45688SOL    HW154674  10.951   0.962   3.769 -3.6323 -1.5895 -0.9136
45688SOL    HW254675  11.026   1.007   3.646  0.3737  0.1219  1.9334
45689SOL     OW54676   8.950   3.034  13.246  0.2505  0.1759 -0.4368
45689SOL    HW154677   8.859   3.021  13.217 -0.2507  2.4122 -0.0848
45689SOL    HW254678   8.960   2.974  13.320  0.3521 -2.8900 -2.7521
45690SOL     OW54679  13.578  12.986   6.881 -0.2099  0.0384 -0.5205
45690SOL    HW154680  13.509  12.966   6.945  0.1701 -0.0327 -0.1359
45690SOL    HW254681  13.653  13.012   6.933  0.6924 -1.7791 -0.8403
45691SOL     OW54682   7.501   7.722   7.830  0.1212 -0.2751 -0.1912
45691SOL    HW154683   7.558   7.693   7.758  0.0762 -1.6279  0.2762
45691SOL    HW254684   7.426   7.762   7.787  0.8234  0.3589 -0.8531
45692SOL     OW54685  10.207  11.636   3.624 -0.5799  0.1240 -0.2360
45692SOL    HW154686  10.282  11.694   3.612 -2.1737  2.1014 -1.2794
45692SOL    HW254687  10.245  11.549   3.634  1.8306  1.0647 -0.5606
45693SOL     OW54688  13.297  10.331  13.786 -0.0315 -0.3248 -0.4408
45693SOL    HW154689  13.389  10.358  13.787 -0.1907  0.2707 -0.7942
45693SOL    HW254690  13.298  10.241  13.817  0.4775  0.2417  1.3096
45694SOL     OW54691   7.855   2.453   0.508 -0.4628  0.3045 -0.6294
45694SOL    HW154692   7.929   2.429   0.452  0.6584  1.2566  0.3941
45694SOL    HW254693   7.826   2.371   0.546  0.0553 -0.0828 -1.0577
45695SOL     OW54694  13.068   5.340   1.632 -0.3697  0.2039  0.0587
45695SOL    HW154695  12.987   5.297   1.658 -0.2952 -0.8011 -1.2904
45695SOL    HW254696  13.041   5.424   1.594 -0.6476  0.5425  0.9757
45696SOL     OW54697   5.113   3.255   1.068 -0.4320  0.0342  0.2824
45696SOL    HW154698   5.125   3.164   1.094  0.0587 -0.2857 -1.0236
45696SOL    HW254699   5.128   3.304   1.149 -1.2464 -1.0561  1.1268
45697SOL     OW54700   9.434  11.429   8.596 -0.1819  0.4373 -0.2276
45697SOL    HW154701   9.383  11.348   8.604  0.6228  0.0099  0.9331
45697SOL    HW254702   9.396  11.488   8.660 -0.1986  0.6668 -0.4464
45698SOL     OW54703   2.242  13.484   4.477 -0.0230  0.0425  0.1155
45698SOL    HW154704   2.285  13.418   4.531  0.5880 -0.9856 -1.5478
45698SOL    HW254705   2.281  13.474   4.390 -2.2712  0.3338 -1.0083
45699SOL     OW54706   5.753  12.910  10.666  0.7389  0.0928 -0.1068
45699SOL    HW154707   5.798  12.976  10.613  2.6120 -0.1773  1.0252
45699SOL    HW254708   5.803  12.908  10.748 -1.5780 -0.0466  1.3891
45700SOL     OW54709   3.948   6.197   3.396 -0.4424  0.1236  0.3363
45700SOL    HW154710   3.996   6.114   3.396 -1.7100 -0.6681  1.2526
45700SOL    HW254711   3.995   6.251   3.459 -1.3591 -1.0673  2.1417
45701SOL     OW54712  10.316   2.332   1.361  0.9836 -0.2019 -0.0714
45701SOL    HW154713  10.259   2.377   1.299  2.0696  0.9240 -0.2880
45701SOL    HW254714  10.348   2.401   1.419  1.1215 -1.0117  0.8387
45702SOL     OW54715   8.404   0.135   1.887  0.5135 -0.1387 -0.2604
45702SOL    HW154716   8.424   0.110   1.797 -0.9468 -2.1583 -0.0958
45702SOL    HW254717   8.309   0.132   1.892  0.4241  2.1440  0.8086
45703SOL     OW54718  13.017   6.903   4.029  0.0816 -0.3042  0.6941
45703SOL    HW154719  13.087   6.947   3.981  0.1482  0.7849  1.7438
45703SOL    HW254720  13.030   6.810   4.010 -0.0950  0.0820 -1.6245
45704SOL     OW54721   4.849   6.148   3.679 -0.5607  0.2921  0.1996
45704SOL    HW154722   4.903   6.074   3.649 -1.2315  0.0005 -0.3023
45704SOL    HW254723   4.854   6.143   3.774  0.2266  0.2168  0.1638
45705SOL     OW54724   0.012   5.786   0.653 -0.3830 -0.2931 -0.1861
45705SOL    HW154725   0.098   5.825   0.671 -0.4197 -1.1054  2.0493
45705SOL    HW254726   0.008   5.709   0.709 -2.1251 -0.9472 -1.1333
45706SOL     OW54727  11.179  11.379  12.655 -0.5393  0.1460 -0.7374
45706SOL    HW154728  11.266  11.340  12.656  0.7684  2.7710  1.3271
45706SOL    HW254729  11.177  11.432  12.576 -0.5566 -0.5033 -1.1747
45707SOL     OW54730   6.718   8.731  13.534  0.1204 -0.0734 -0.1417
45707SOL    HW154731   6.761   8.715  13.450  0.2203  1.7282 -0.4601
45707SOL    HW254732   6.625   8.732  13.514  0.1516  0.5149 -0.2670
45708SOL     OW54733   6.279  13.614   9.481 -0.0561 -0.0994  0.3098
45708SOL    HW154734   6.280  13.608   9.577  0.4065  1.1176  0.4011
45708SOL    HW254735   6.188  13.634   9.459  0.1270  1.1225  0.6192
45709SOL     OW54736   4.453  10.587   9.065  0.3363  0.2774 -0.0593
45709SOL    HW154737   4.453  10.536   8.984  1.0800  2.0798 -1.2500
45709SOL    HW254738   4.510  10.538   9.124  0.1761 -0.8107 -0.7817
45710SOL     OW54739   2.894   1.379   2.940 -0.3364  0.1632  0.4367
45710SOL    HW154740   2.834   1.361   2.867  0.6035 -1.5660  0.0326
45710SOL    HW254741   2.953   1.303   2.942  2.5382  2.2506  0.1508
45711SOL     OW54742   9.861   0.462   3.959  0.1881 -0.3954  0.0945
45711SOL    HW154743   9.895   0.376   3.981  0.5071 -0.6604 -1.3134
45711SOL    HW254744   9.775   0.445   3.922  0.2060 -0.0987 -0.0853
45712SOL     OW54745   2.618  13.779   0.028 -0.0770  0.3955 -0.0809
45712SOL    HW154746   2.711  13.793   0.010  0.5850 -4.0629 -1.3831
45712SOL    HW254747   2.576  13.787  -0.057 -0.2956 -0.8674 -0.1064
45713SOL     OW54748   9.298  12.711   0.998  0.1442  0.5654 -0.5869
45713SOL    HW154749   9.220  12.690   1.049 -0.0054  1.8908 -0.2438
45713SOL    HW254750   9.361  12.744   1.063  1.5218 -1.6975 -0.6327
45714SOL     OW54751   6.669   3.831   3.095  0.0780  0.4993 -0.0384
45714SOL    HW154752   6.645   3.816   3.003 -0.9046  0.7767  0.1542
45714SOL    HW254753   6.649   3.748   3.139 -0.6364  0.7542  0.1363
45715SOL     OW54754   9.789  13.387   4.163  0.2415  0.1392  0.0865
45715SOL    HW154755   9.848  13.409   4.236  0.5362 -0.8109  0.1464
45715SOL    HW254756   9.846  13.347   4.098 -0.1010  0.5833 -0.4952
45716SOL     OW54757   1.798   7.764   1.794  0.2977 -0.0380  0.7987
45716SOL    HW154758   1.821   7.847   1.751  1.2231 -0.0603  1.2252
45716SOL    HW254759   1.876   7.709   1.783 -0.8024 -1.4080 -0.7553
45717SOL     OW54760   2.969   4.291   2.832 -0.1522 -0.0127 -0.2442
45717SOL    HW154761   2.883   4.305   2.792  0.0207 -1.4190 -1.1825
45717SOL    HW254762   3.023   4.256   2.761  0.9530  0.0133  0.5514
45718SOL     OW54763   5.827  13.024  13.962 -0.1306  0.1338  0.3088
45718SOL    HW154764   5.780  12.948  13.995  0.7514 -0.3131  0.5596
45718SOL    HW254765   5.814  13.091  14.030  0.7744 -0.4418  1.0647
45719SOL     OW54766   3.716   2.604   1.750  0.4624  0.6167  0.3292
45719SOL    HW154767   3.631   2.609   1.793  0.2843 -0.5353  0.1449
45719SOL    HW254768   3.712   2.524   1.697 -0.0977  2.9040 -3.4639
45720SOL     OW54769  12.108   4.613   2.285  0.1254 -0.0336 -0.1110
45720SOL    HW154770  12.098   4.555   2.210 -0.6013 -2.1032  1.5033
45720SOL    HW254771  12.024   4.609   2.331  0.7889  0.5774  1.2297
45721SOL     OW54772   9.113   6.536   0.328 -0.8059 -0.8596  0.1060
45721SOL    HW154773   9.085   6.569   0.413 -1.8636 -1.1281 -0.1303
45721SOL    HW254774   9.192   6.485   0.348 -1.2654 -1.2547  0.9975
45722SOL     OW54775  12.834  10.207   3.032 -0.0012  0.3940  0.4685
45722SOL    HW154776  12.821  10.243   3.119  1.7375  0.9813  0.5184
45722SOL    HW254777  12.880  10.276   2.984  1.2424 -0.8244 -0.1559
45723SOL     OW54778   6.050  12.271  10.673  0.2549  0.1358 -0.0252
45723SOL    HW154779   5.959  12.289  10.694  0.1917  1.3418 -1.2057
45723SOL    HW254780   6.100  12.321  10.738  0.0510  2.1513 -1.3122
45724SOL     OW54781  10.721   9.554   3.997  0.3669  0.1217  0.2476
45724SOL    HW154782  10.793   9.594   3.947  1.1388  1.2237  2.1165
45724SOL    HW254783  10.739   9.579   4.088 -2.2067  0.1288  0.8217
45725SOL     OW54784  13.609   4.542  13.302  0.2363  0.3122 -0.4892
45725SOL    HW154785  13.698   4.577  13.291  0.9581 -1.3776 -0.3344
45725SOL    HW254786  13.552   4.617  13.289  1.6632  1.2896 -1.3784
45726SOL     OW54787   0.116   0.117  11.291 -0.1530 -0.1986  0.0461
45726SOL    HW154788   0.141   0.204  11.324  2.0022 -1.3179  1.6342
45726SOL    HW254789   0.106   0.130  11.196 -1.4778  2.0840  0.4246
45727SOL     OW54790   7.103  13.140  12.331 -0.0272  0.3881  0.3339
45727SOL    HW154791   7.142  13.106  12.250 -2.0331  5.0106 -2.9758
45727SOL    HW254792   7.174  13.190  12.372 -0.3281  2.7976 -1.8344
45728SOL     OW54793   3.238  11.146   2.600  0.4990  0.1546 -0.2200
45728SOL    HW154794   3.187  11.202   2.542 -1.3201 -0.9907  0.2157
45728SOL    HW254795   3.321  11.132   2.554  0.6931  2.4904 -0.6945
45729SOL     OW54796   0.992  12.894  13.768  0.3777 -0.1655 -0.3984
45729SOL    HW154797   0.981  12.984  13.798  1.2472 -0.1412 -0.1057
45729SOL    HW254798   0.960  12.840  13.841  2.2094 -0.1031  0.5129
45730SOL     OW54799   9.698   9.857   3.192  0.2144  0.2417  0.3965
45730SOL    HW154800   9.691   9.772   3.236  0.0478 -0.2057 -0.4641
45730SOL    HW254801   9.749   9.911   3.252  2.3947 -1.1752 -0.0273
45731SOL     OW54802  13.453   9.613   3.247  0.2180  0.1296  0.6470
45731SOL    HW154803  13.387   9.682   3.245  1.6750  1.7400  3.0405
45731SOL    HW254804  13.416   9.546   3.304 -0.6951 -0.6219 -0.7443
45732SOL     OW54805   0.834  11.420   5.774  0.2609  0.0692  0.5575
45732SOL    HW154806   0.821  11.501   5.724  0.1538 -0.6508 -0.6204
45732SOL    HW254807   0.770  11.359   5.737 -0.1772 -0.3451  1.9423
45733SOL     OW54808   7.992   8.994   3.799 -0.4509  0.3072 -0.1563
45733SOL    HW154809   8.085   8.973   3.793 -0.4719 -0.1136  0.8916
45733SOL    HW254810   7.970   8.985   3.892 -1.8330 -0.8250 -0.5532
45734SOL     OW54811   8.684   9.982   3.017  0.3850  0.2254  0.0847
45734SOL    HW154812   8.656   9.899   3.055  0.4033  0.1997  0.0421
45734SOL    HW254813   8.649  10.049   3.076  0.4837  0.1835  0.1911
45735SOL     OW54814   0.384  11.145  12.470 -0.3642 -0.3075  0.4355
45735SOL    HW154815   0.464  11.196  12.456 -0.0949 -0.4626  1.3623
45735SOL    HW254816   0.393  11.071  12.409 -0.4573  0.3951 -0.4501
45736SOL     OW54817  12.658  10.588   7.834  0.2961 -0.0370  0.3362
45736SOL    HW154818  12.591  10.534   7.875 -0.1977 -0.0868 -0.5292
45736SOL    HW254819  12.667  10.553   7.746 -1.8684  2.7788 -1.1859
45737SOL     OW54820  14.066   9.267   0.156  0.1686  0.0104  0.4069
45737SOL    HW154821  14.160   9.278   0.149  0.2776 -1.7901 -2.0474
45737SOL    HW254822  14.032   9.297   0.072 -1.5961  1.5080  1.5755
45738SOL     OW54823   1.113  14.090   5.591 -0.9531  0.0840 -0.0246
45738SOL    HW154824   1.112  14.148   5.667  0.3217 -0.2542  0.2719
45738SOL    HW254825   1.201  14.100   5.555 -1.0107 -0.9861 -0.4929
45739SOL     OW54826   0.479   0.247   5.150 -0.5905 -0.4076  0.6297
45739SOL    HW154827   0.454   0.214   5.237  0.9801 -1.5459  0.6862
45739SOL    HW254828   0.532   0.177   5.112 -1.0012  0.2050 -1.1440
45740SOL     OW54829   6.091  11.945   1.510 -0.7566  0.0414 -0.2822
45740SOL    HW154830   6.067  12.002   1.437  1.0550  0.3917 -0.6621
45740SOL    HW254831   6.116  12.005   1.580  0.1173 -0.2678 -0.3130
45741SOL     OW54832  10.796   6.919  12.189 -0.4681 -0.2585  0.4472
45741SOL    HW154833  10.876   6.883  12.229 -0.0234  0.9479  0.6765
45741SOL    HW254834  10.827   6.995  12.139 -1.4342  0.0314  0.2831
45742SOL     OW54835  13.143   6.101   2.029 -0.3682 -0.2653 -0.0585
45742SOL    HW154836  13.209   6.145   2.083 -1.5014  2.0028 -0.3971
45742SOL    HW254837  13.169   6.009   2.030  2.3506  0.4042  0.4294
45743SOL     OW54838   8.219   0.901   8.794 -0.4292 -0.5074 -0.0966
45743SOL    HW154839   8.133   0.891   8.752 -0.5525  0.7511 -0.1848
45743SOL    HW254840   8.276   0.840   8.747 -0.8470  0.0056 -1.2924
45744SOL     OW54841  14.065   2.919   2.112 -0.1604  0.0756  0.0118
45744SOL    HW154842  14.001   2.850   2.130  0.7704 -0.3408  1.9935
45744SOL    HW254843  14.055   2.937   2.019 -2.2139 -0.9175 -0.0301
45745SOL     OW54844   8.098  13.953   8.356 -0.2730  0.0573  0.7596
45745SOL    HW154845   8.143  13.869   8.346  0.5706  0.4280  1.3445
45745SOL    HW254846   8.019  13.932   8.406 -1.5428 -0.8352 -1.4870
45746SOL     OW54847   0.728  13.906   7.605 -0.1273 -0.1992 -0.4641
45746SOL    HW154848   0.757  13.996   7.589  0.8299 -0.6429 -1.3227
45746SOL    HW254849   0.711  13.869   7.519  0.1153 -1.0460 -0.1657
45747SOL     OW54850   1.315   2.940   7.614 -0.0017 -0.2973 -0.5351
45747SOL    HW154851   1.325   2.906   7.525 -1.0508 -2.3165  0.0433
45747SOL    HW254852   1.318   2.862   7.669 -3.6712  0.3331  0.8201
45748SOL     OW54853   9.954  12.666   9.092 -0.0828  0.1395 -0.1297
45748SOL    HW154854   9.898  12.727   9.045  0.1812  0.4916  0.0138
45748SOL    HW254855   9.912  12.655   9.177 -0.8023 -0.8388 -0.5872
45749SOL     OW54856  10.311   7.965   6.711  0.0748  0.0244 -0.8981
45749SOL    HW154857  10.361   8.041   6.740 -2.1617  0.9562  0.8283
45749SOL    HW254858  10.286   7.920   6.792 -1.9585 -0.2777 -1.6247
45750SOL     OW54859   3.142   0.055   3.348 -0.4470 -0.4507 -0.7352
45750SOL    HW154860   3.087  -0.015   3.313 -1.1174 -1.0527  1.3811
45750SOL    HW254861   3.146   0.038   3.442  1.9839  0.5727 -0.5830
45751SOL     OW54862   0.758  11.673   7.974  0.2664 -0.3391  0.6833
45751SOL    HW154863   0.734  11.615   8.047 -2.3760  1.0042  1.0195
45751SOL    HW254864   0.777  11.614   7.901  1.8742 -1.6840  2.1140
45752SOL     OW54865   3.499   9.913   0.500 -0.1771  0.2137  0.0731
45752SOL    HW154866   3.505   9.997   0.452 -0.6229  0.5446  0.5925
45752SOL    HW254867   3.417   9.919   0.548 -0.0350 -0.3871  0.3893
45753SOL     OW54868  12.054   8.639   9.709  0.1790 -0.6279 -0.0421
45753SOL    HW154869  12.057   8.652   9.803  0.6904 -1.1254  0.0185
45753SOL    HW254870  11.963   8.613   9.691 -0.0424 -0.0611  0.2412
45754SOL     OW54871   3.724   6.224  10.242  0.0214 -0.9391  0.1976
45754SOL    HW154872   3.798   6.175  10.205  0.3998  0.8582 -1.6321
45754SOL    HW254873   3.650   6.200  10.187  0.2279  0.5289 -0.7603
45755SOL     OW54874   9.500  10.385  10.842  0.2441  0.3303  0.3112
45755SOL    HW154875   9.472  10.429  10.922 -1.4056  1.6884 -0.9443
45755SOL    HW254876   9.475  10.293  10.855 -0.6888  0.6784  1.0466
45756SOL     OW54877  13.054  10.367   3.536  0.7072  0.3594  0.2194
45756SOL    HW154878  13.036  10.273   3.532  0.4786  0.3968  0.3658
45756SOL    HW254879  13.131  10.379   3.480  0.2304  0.2134 -0.4896
45757SOL     OW54880  13.685   3.122   0.596  1.0758  0.2662 -0.1526
45757SOL    HW154881  13.662   3.162   0.680 -2.3874 -1.6724  0.0069
45757SOL    HW254882  13.704   3.031   0.618 -0.6263 -0.4632 -1.4415
45758SOL     OW54883  12.509   6.485   9.287 -0.1115 -0.2972 -0.5080
45758SOL    HW154884  12.508   6.397   9.325 -0.9387  0.1178  0.4691
45758SOL    HW254885  12.582   6.529   9.330  0.1231 -0.4060 -0.7884
45759SOL     OW54886   8.171   0.906   6.233  0.0071 -0.0568  0.2751
45759SOL    HW154887   8.100   0.868   6.182 -0.3448 -2.4980  2.3205
45759SOL    HW254888   8.227   0.831   6.254  1.0218  1.1169  2.0012
45760SOL     OW54889  12.889   7.087   1.241  0.3591 -0.7478 -0.1324
45760SOL    HW154890  12.844   7.050   1.165 -1.2121 -1.5674  1.1444
45760SOL    HW254891  12.909   7.012   1.296  0.3773 -0.0532  0.8358
45761SOL     OW54892   3.800   9.725  10.812  0.1900  0.2402 -0.2071
45761SOL    HW154893   3.858   9.772  10.872  0.2637  0.0508 -0.1272
45761SOL    HW254894   3.822   9.633  10.826  0.7126  0.2268 -1.0306
45762SOL     OW54895   9.404   6.438   0.450  0.2090 -0.6130  0.3749
45762SOL    HW154896   9.481   6.451   0.506  0.7731 -0.4826 -0.4066
45762SOL    HW254897   9.427   6.363   0.395 -0.7712 -1.4190  1.0331
45763SOL     OW54898   2.557   8.461   6.778 -0.4120  0.2632 -0.2354
45763SOL    HW154899   2.600   8.427   6.857  0.4590 -0.0987 -0.8455
45763SOL    HW254900   2.509   8.538   6.808 -2.5275 -1.4832  1.2315
45764SOL     OW54901   0.329   1.359   0.810 -0.0494 -0.1134 -0.6381
45764SOL    HW154902   0.235   1.367   0.822 -0.1614 -1.1265 -0.7285
45764SOL    HW254903   0.339   1.303   0.734  0.6326  0.0722 -0.6961
45765SOL     OW54904  10.288   0.034   6.643 -0.0518  0.0541  0.1740
45765SOL    HW154905  10.222  -0.007   6.587 -0.8991 -0.1801  1.3047
45765SOL    HW254906  10.279   0.128   6.626 -1.6639  0.1512  1.3009
45766SOL     OW54907  13.760  12.097   0.861 -0.4024 -0.0151 -0.5580
45766SOL    HW154908  13.671  12.120   0.888  0.1417 -0.5358  1.9935
45766SOL    HW254909  13.751  12.009   0.823 -0.7092 -1.5083  2.5781
45767SOL     OW54910  13.324  10.898   7.306  0.0140  0.4763 -0.2152
45767SOL    HW154911  13.269  10.846   7.364  1.0631 -0.1319  0.2744
45767SOL    HW254912  13.393  10.837   7.278  0.9228  1.4306 -0.1070
45768SOL     OW54913  13.981   0.946   2.402  0.0351  0.1828 -0.7186
45768SOL    HW154914  13.899   0.897   2.413  0.3630 -0.3873 -0.7553
45768SOL    HW254915  14.008   0.968   2.492  0.6671 -1.0384 -0.5836
45769SOL     OW54916   3.396  11.253   8.328  0.2530 -0.0165 -0.0555
45769SOL    HW154917   3.407  11.312   8.403 -0.8441 -0.3881  0.4228
45769SOL    HW254918   3.442  11.173   8.353 -1.2166 -0.6297  0.8281
45770SOL     OW54919  10.552  13.980  13.040  0.5157 -0.5542 -0.3589
45770SOL    HW154920  10.626  14.030  13.004  1.1593 -0.4947  0.9717
45770SOL    HW254921  10.521  13.927  12.967  0.2466  1.2611 -1.6480
45771SOL     OW54922   2.465  14.048   5.041  0.1790 -0.4362  0.7353
45771SOL    HW154923   2.477  14.137   5.074 -0.8591  0.5516 -1.3279
45771SOL    HW254924   2.444  14.059   4.948  0.2325 -2.8631  0.3500
45772SOL     OW54925  12.641   1.443   1.344  0.4743 -0.1785 -0.3090
45772SOL    HW154926  12.596   1.468   1.264 -0.9363 -0.8275  0.2341
45772SOL    HW254927  12.734   1.451   1.324  0.1375  2.0369 -1.2156
45773SOL     OW54928   6.377  12.844  12.006 -0.3035  0.6650  0.2600
45773SOL    HW154929   6.393  12.934  11.977  0.8135  1.0210  1.7985
45773SOL    HW254930   6.290  12.823  11.973 -1.4897  3.0860  1.5511
45774SOL     OW54931  11.771  13.562   5.918  0.1264 -0.3894 -0.3545
45774SOL    HW154932  11.841  13.514   5.872 -1.1770 -1.3016 -1.4957
45774SOL    HW254933  11.757  13.512   5.998  0.0826 -0.8312 -0.6295
45775SOL     OW54934   9.916   4.617  11.584  0.6842 -0.3162 -0.4225
45775SOL    HW154935   9.948   4.527  11.597 -0.8944 -0.8210  0.2904
45775SOL    HW254936   9.966   4.669  11.647  3.4693 -0.1546 -2.5655
45776SOL     OW54937   9.460  10.510   3.613  0.1224  0.1100 -0.3612
45776SOL    HW154938   9.532  10.566   3.587 -0.1283 -0.1672 -1.7132
45776SOL    HW254939   9.495  10.458   3.686  1.1487  0.2563 -0.7410
45777SOL     OW54940   5.923   5.962   1.188 -0.6857 -0.2756 -0.6983
45777SOL    HW154941   5.864   5.887   1.181 -0.1986 -0.6400 -1.0081
45777SOL    HW254942   5.952   5.978   1.098 -0.8065  0.3025 -0.6367
45778SOL     OW54943   9.262   2.482  10.914  0.3925 -0.3042 -0.4671
45778SOL    HW154944   9.321   2.514  10.982  1.3618 -0.4310 -1.2269
45778SOL    HW254945   9.272   2.387  10.915 -0.4617 -0.4031 -0.0262
45779SOL     OW54946   4.768   2.605  10.715  0.7912  0.2550 -0.1867
45779SOL    HW154947   4.796   2.668  10.649  1.4799 -2.6452 -2.9223
45779SOL    HW254948   4.841   2.544  10.724 -0.4419 -1.1485  0.9935
45780SOL     OW54949   1.264   0.194  10.218  0.0318  0.2886  0.1954
45780SOL    HW154950   1.268   0.202  10.313  0.1362  0.3070  0.1887
45780SOL    HW254951   1.174   0.218  10.196  0.5410  2.2725  0.0947
45781SOL     OW54952   2.970  10.289   1.297 -0.1538 -0.1077  0.7294
45781SOL    HW154953   2.940  10.223   1.234 -1.3668  0.1147  1.0426
45781SOL    HW254954   3.064  10.296   1.281  0.1436 -2.3463  1.0813
45782SOL     OW54955  12.288  10.782   0.926 -0.4081 -0.4491 -0.4913
45782SOL    HW154956  12.312  10.690   0.915 -0.5931 -1.1057  3.1927
45782SOL    HW254957  12.200  10.780   0.964  0.0424  1.1364  0.7643
45783SOL     OW54958   0.616  10.365   1.534 -0.3756  0.1519 -0.3301
45783SOL    HW154959   0.552  10.343   1.466 -0.1574 -1.0278 -0.1793
45783SOL    HW254960   0.634  10.458   1.521 -1.9606  0.4564 -0.4952
45784SOL     OW54961  11.457  13.282  10.818  0.2654  0.4931  0.4477
45784SOL    HW154962  11.531  13.336  10.847  1.2878 -0.3406 -0.5229
45784SOL    HW254963  11.425  13.241  10.899  0.6942  1.0559  0.9133
45785SOL     OW54964   4.612   4.088  12.413  0.3966 -0.7694 -0.4260
45785SOL    HW154965   4.603   4.007  12.363  0.5378  0.4233 -2.4892
45785SOL    HW254966   4.524   4.105  12.447  0.2366 -1.4763 -0.4665
45786SOL     OW54967   9.029   3.077   5.843 -0.5053 -0.1627  0.4662
45786SOL    HW154968   8.953   3.119   5.804 -0.4620  0.5416  1.1097
45786SOL    HW254969   9.102   3.103   5.787 -0.5687  0.1369  0.5183
45787SOL     OW54970   8.459   3.316   8.653 -0.5233 -0.5676 -0.7640
45787SOL    HW154971   8.542   3.354   8.682 -0.4818  0.0571 -1.6683
45787SOL    HW254972   8.484   3.230   8.618 -0.3027 -0.4995 -0.7747
45788SOL     OW54973  13.038   0.529   0.381 -0.1664 -0.2411 -0.0145
45788SOL    HW154974  12.954   0.485   0.375  0.3690 -1.4395  0.8854
45788SOL    HW254975  13.018   0.622   0.366 -1.3202 -0.7406 -1.9933
45789SOL     OW54976   0.504   9.783   8.685  0.4710  0.5162  0.0632
45789SOL    HW154977   0.566   9.759   8.753  0.4657 -0.1658 -0.1688
45789SOL    HW254978   0.426   9.730   8.703 -0.2165  1.6352  0.5843
45790SOL     OW54979   2.618   8.406  12.588  0.3040  0.0112 -0.4053
45790SOL    HW154980   2.656   8.403  12.500 -0.5751 -0.6286 -0.7830
45790SOL    HW254981   2.524   8.400  12.573  0.0382  1.3426  0.5113
45791SOL     OW54982  11.744   4.008   1.936  0.0842 -0.3439 -0.5331
45791SOL    HW154983  11.699   4.091   1.953 -0.7075 -0.8986  0.2051
45791SOL    HW254984  11.725   3.989   1.844 -2.6845 -1.3599  0.1297
45792SOL     OW54985  13.785   5.906  14.009 -0.0878 -0.0684 -0.2076
45792SOL    HW154986  13.707   5.853  13.992 -1.1274  1.1515  0.6270
45792SOL    HW254987  13.795   5.960  13.930 -0.9163  0.7574  0.2413
45793SOL     OW54988   3.600   4.861  11.904  0.6092 -0.4152  0.5424
45793SOL    HW154989   3.570   4.819  11.985  1.4725 -1.5873  0.2734
45793SOL    HW254990   3.691   4.835  11.895  0.2251 -1.3341 -1.4158
45794SOL     OW54991   7.462   5.480   0.437 -0.1691  0.2861 -0.1152
45794SOL    HW154992   7.557   5.489   0.440 -0.0371 -1.0613  0.6867
45794SOL    HW254993   7.448   5.398   0.389 -0.9049  0.1336  0.3549
45795SOL     OW54994   0.453   2.202  11.321  0.1126  0.0268  0.4349
45795SOL    HW154995   0.441   2.224  11.228  1.2694  0.9772  0.4784
45795SOL    HW254996   0.472   2.286  11.362  1.0353 -0.5818  1.2869
45796SOL     OW54997  11.753   7.658   1.730  0.7684  0.0465 -0.0037
45796SOL    HW154998  11.711   7.716   1.667 -0.5846 -0.9264 -0.0305
45796SOL    HW254999  11.781   7.582   1.678  1.6422  0.2067  0.2043
45797SOL     OW55000   1.487  10.244   7.097 -0.1394 -0.0612 -0.1723
45797SOL    HW155001   1.394  10.240   7.120 -0.2105 -0.0455 -0.4532
45797SOL    HW255002   1.518  10.154   7.104  0.2947  0.2095  1.8409
45798SOL     OW55003   9.932   0.507   6.752 -0.4052  0.2485  0.2947
45798SOL    HW155004   9.874   0.565   6.703  1.0835 -0.4224 -2.4765
45798SOL    HW255005  10.009   0.561   6.770  0.4307 -0.3884 -1.1356
45799SOL     OW55006   8.566  13.289   8.985  0.3956  0.2582  0.6189
45799SOL    HW155007   8.661  13.282   8.982  0.5168  1.8822 -0.3696
45799SOL    HW255008   8.547  13.315   9.075  1.0537  1.5827  0.3990
45800SOL     OW55009  13.481   1.383   0.384  0.2137 -0.4853  0.0206
45800SOL    HW155010  13.560   1.336   0.356 -0.6247 -1.3097 -1.0533
45800SOL    HW255011  13.472   1.361   0.477  2.0659  0.8507  0.5839
45801SOL     OW55012   8.150   2.630   3.101 -0.2821  0.1707 -0.7390
45801SOL    HW155013   8.246   2.626   3.102 -0.2361  0.6782 -1.6959
45801SOL    HW255014   8.122   2.539   3.116  0.3347  0.0612 -0.1852
45802SOL     OW55015   7.450  11.408   5.902 -0.2960 -0.1535 -0.3075
45802SOL    HW155016   7.473  11.476   5.839 -1.1149  0.0284 -0.4169
45802SOL    HW255017   7.528  11.352   5.906 -0.0001  0.1925 -1.0009
45803SOL     OW55018   3.722   3.119  12.760 -0.0245  0.0383 -0.2807
45803SOL    HW155019   3.772   3.185  12.712 -1.0817  0.6522 -0.5685
45803SOL    HW255020   3.763   3.115  12.846  0.9004  0.0835 -0.7149
45804SOL     OW55021  10.480   2.842   7.494 -0.8583 -0.6027  0.6367
45804SOL    HW155022  10.460   2.935   7.489  1.2132 -0.1145  0.6690
45804SOL    HW255023  10.395   2.799   7.499 -1.8468  1.4284  3.4250
45805SOL     OW55024  12.102  13.977  13.570  0.1231  0.3318 -0.5267
45805SOL    HW155025  12.090  14.037  13.497  0.1932 -1.3864 -2.0062
45805SOL    HW255026  12.017  13.936  13.582  0.3321 -0.0091 -0.1891
45806SOL     OW55027   1.429   8.308   7.850 -0.2869 -0.4955  0.5085
45806SOL    HW155028   1.415   8.279   7.940  0.6897 -0.8094  0.5680
45806SOL    HW255029   1.497   8.375   7.856  0.1609 -0.8858 -0.0489
45807SOL     OW55030   4.194  12.966   8.190 -0.2806 -0.3941 -0.0502
45807SOL    HW155031   4.278  12.993   8.153 -1.0720  1.6771 -0.5113
45807SOL    HW255032   4.201  12.989   8.283  0.1488 -1.5565  0.2199
45808SOL     OW55033   9.571   1.014   1.323  0.5137 -0.0335  0.2043
45808SOL    HW155034   9.538   0.936   1.280  1.3269  0.0366 -0.5672
45808SOL    HW255035   9.499   1.042   1.380 -0.1175 -0.8223 -0.1877
45809SOL     OW55036  10.944   3.863  13.505 -0.0844 -0.0718 -0.1517
45809SOL    HW155037  10.954   3.799  13.435 -0.3515 -0.9824  0.6272
45809SOL    HW255038  11.034   3.889  13.527  0.0764 -0.8288  0.1105
45810SOL     OW55039   3.475  11.540  12.204  0.2645 -0.4475 -0.5139
45810SOL    HW155040   3.479  11.461  12.256  2.5069  0.3834  0.6790
45810SOL    HW255041   3.404  11.591  12.244  1.2121 -0.3087  1.0599
45811SOL     OW55042   2.935  11.011  12.791  0.1543  0.1708 -0.1152
45811SOL    HW155043   2.979  11.038  12.711  0.3915  0.2395  0.0347
45811SOL    HW255044   3.004  11.015  12.858  0.1261 -0.5569 -0.0395
45812SOL     OW55045  12.223   9.055   7.434 -0.3446 -0.0468  0.8719
45812SOL    HW155046  12.162   9.114   7.479 -0.6933  1.1588 -1.0596
45812SOL    HW255047  12.301   9.109   7.418 -0.6019 -0.1087 -0.7757
45813SOL     OW55048   9.488   3.530   5.665 -0.1859  0.4052 -0.6088
45813SOL    HW155049   9.480   3.436   5.675 -2.3323  0.3517 -2.2161
45813SOL    HW255050   9.561   3.554   5.722  0.2959 -2.1729 -0.0278
45814SOL     OW55051   1.571   6.959   3.960  0.5365 -0.0879  0.2247
45814SOL    HW155052   1.518   7.011   3.899 -1.3851 -0.7233  1.2789
45814SOL    HW255053   1.584   7.017   4.035 -1.6214 -1.0318  1.4070
45815SOL     OW55054  10.274   1.323   6.760 -0.2192  0.3439 -0.2148
45815SOL    HW155055  10.257   1.393   6.824 -0.8557 -0.7159  0.8077
45815SOL    HW255056  10.357   1.348   6.719  1.8596 -0.4392  3.1612
45816SOL     OW55057   5.656   5.445   5.031  0.2234 -0.2939 -0.2674
45816SOL    HW155058   5.674   5.526   4.983 -2.6775 -0.7525 -2.4530
45816SOL    HW255059   5.616   5.474   5.113 -0.9420  0.5856 -1.1022
45817SOL     OW55060  13.183   9.504  13.026 -0.0508 -0.3836 -0.1419
45817SOL    HW155061  13.185   9.447  13.103  1.1017  0.3094  0.3683
45817SOL    HW255062  13.093   9.536  13.023  0.3902  1.3913  2.3155
45818SOL     OW55063   2.564   0.622  13.366 -0.1758  0.0849 -0.0003
45818SOL    HW155064   2.655   0.606  13.341 -0.1083 -1.6586  1.1693
45818SOL    HW255065   2.517   0.546  13.333 -0.9154  0.1671  0.8325
45819SOL     OW55066  12.900   9.471  12.090  0.1461 -0.4113  0.1312
45819SOL    HW155067  12.814   9.498  12.057  0.2317 -0.6562 -0.2958
45819SOL    HW255068  12.883   9.440  12.179 -0.2981 -0.9738 -0.1471
45820SOL     OW55069   3.248   4.689   2.251  0.5734  0.2513  0.0492
45820SOL    HW155070   3.255   4.780   2.279  1.0610  0.4229 -0.5946
45820SOL    HW255071   3.224   4.640   2.330  1.2208  0.8084  0.5979
45821SOL     OW55072  10.807   2.824   9.479 -0.4030  0.2463 -0.1489
45821SOL    HW155073  10.860   2.851   9.554 -2.1923  1.7399  0.6645
45821SOL    HW255074  10.719   2.813   9.515 -0.8298 -1.4543 -1.5860
45822SOL     OW55075   1.285   3.441  10.072 -0.4282 -0.2622 -0.0804
45822SOL    HW155076   1.322   3.355  10.096  2.2256  0.8066  0.0308
45822SOL    HW255077   1.283   3.440   9.977 -0.2717 -0.4085 -0.0844
45823SOL     OW55078  11.181   1.810   2.298  0.8423  0.0066 -0.5905
45823SOL    HW155079  11.220   1.788   2.214  0.2436 -1.9381 -0.3969
45823SOL    HW255080  11.256   1.818   2.358  1.1127 -1.5112 -0.6932
45824SOL     OW55081   6.916   7.383  13.244 -0.4815 -0.0362  0.1619
45824SOL    HW155082   6.949   7.293  13.237 -1.0183 -0.4980  2.4907
45824SOL    HW255083   6.994   7.438  13.235 -0.2527 -0.6394 -2.0777
45825SOL     OW55084  10.074  11.946  11.673  0.0554  0.4677 -0.3927
45825SOL    HW155085  10.072  11.902  11.588  1.9516 -1.6740  0.5614
45825SOL    HW255086  10.156  11.996  11.672 -0.2528  0.9875 -0.0702
45826SOL     OW55087  10.309  12.720   5.483 -0.0433 -0.4280 -0.6627
45826SOL    HW155088  10.218  12.704   5.504 -0.3544 -0.6048 -2.0201
45826SOL    HW255089  10.336  12.792   5.540 -1.0125 -0.4094 -0.2239
45827SOL     OW55090  13.271   1.214  13.427 -0.3879 -0.2021  0.5891
45827SOL    HW155091  13.341   1.187  13.368  0.7843 -0.2372  1.9309
45827SOL    HW255092  13.268   1.145  13.493 -2.2805 -0.6249  0.1021
45828SOL     OW55093   0.812   6.563   6.047  0.1190  0.8442  0.1827
45828SOL    HW155094   0.863   6.495   6.003  1.9851  2.5212 -0.3976
45828SOL    HW255095   0.748   6.591   5.982  0.1622  0.5045 -0.0072
45829SOL     OW55096   9.144  11.576   4.039 -0.4223  0.7577 -0.2755
45829SOL    HW155097   9.076  11.636   4.071 -1.8500  1.1562 -3.6976
45829SOL    HW255098   9.102  11.490   4.037  0.2902  0.3638  0.6571
45830SOL     OW55099  11.761   0.389   2.068  0.4827 -0.3767  0.1973
45830SOL    HW155100  11.713   0.459   2.024 -0.6496 -0.8715  0.6056
45830SOL    HW255101  11.705   0.312   2.057  2.0397 -1.3985 -0.8572
45831SOL     OW55102  12.036   2.562  12.573 -0.0704 -0.5704 -0.1945
45831SOL    HW155103  12.063   2.489  12.630  0.6609  1.2223  1.9035
45831SOL    HW255104  12.046   2.528  12.484 -0.1285 -3.1365  0.6862
45832SOL     OW55105   1.137   5.881  13.613  0.1182 -0.6129  0.0354
45832SOL    HW155106   1.094   5.919  13.690 -0.1312  0.4781 -0.6123
45832SOL    HW255107   1.068   5.830  13.570 -0.0458 -0.3435 -0.0282
45833SOL     OW55108  12.859  12.530  11.676 -0.3389 -0.1493  0.3948
45833SOL    HW155109  12.840  12.454  11.731 -0.2391 -1.1104 -0.8532
45833SOL    HW255110  12.842  12.500  11.587 -0.6104  1.4064 -0.1028
45834SOL     OW55111  11.967   5.529   7.595 -0.3854  0.4497  0.1089
45834SOL    HW155112  11.950   5.436   7.611 -1.7062  0.5733 -0.4807
45834SOL    HW255113  11.903   5.575   7.649  1.7606  1.1284  2.2416
45835SOL     OW55114  12.097  10.397   0.372 -0.1032  0.7004 -0.1396
45835SOL    HW155115  12.081  10.451   0.449 -0.2798  1.6407 -0.8037
45835SOL    HW255116  12.028  10.331   0.374 -0.0987  0.7118  0.5069
45836SOL     OW55117   8.582   3.238   5.805  0.0405  0.0691  0.0884
45836SOL    HW155118   8.507   3.269   5.755 -0.2395 -1.3328 -0.4166
45836SOL    HW255119   8.551   3.235   5.895 -0.6013 -0.7148 -0.1468
45837SOL     OW55120   9.542   6.839   8.826  0.0168  0.0026  0.4261
45837SOL    HW155121   9.572   6.757   8.785  2.1014  0.9116 -0.0248
45837SOL    HW255122   9.552   6.905   8.757 -0.3950  0.8604  1.1741
45838SOL     OW55123   4.731   5.211   6.060 -0.6383  0.2986  0.4702
45838SOL    HW155124   4.775   5.138   6.102 -1.5357 -0.6519 -0.2062
45838SOL    HW255125   4.683   5.255   6.130 -0.2527  0.1291  0.8415
45839SOL     OW55126  13.110   8.991   8.353  0.1661 -0.5368  0.6617
45839SOL    HW155127  13.202   8.970   8.335 -0.4172 -1.5528 -1.4849
45839SOL    HW255128  13.070   8.906   8.374 -0.4426 -0.2266  0.7893
45840SOL     OW55129   3.274   0.213   0.418  0.0082 -0.2091 -0.2039
45840SOL    HW155130   3.216   0.142   0.448  1.0791 -1.9813 -2.0166
45840SOL    HW255131   3.224   0.256   0.349 -0.0286 -0.2495 -0.2034
45841SOL     OW55132   5.932   9.153   1.897  0.0368  0.0220  0.2395
45841SOL    HW155133   5.876   9.229   1.910  0.4228 -0.0194  2.5521
45841SOL    HW255134   5.988   9.177   1.823  0.0920  1.9585  0.8629
45842SOL     OW55135   6.623   3.792   6.993  0.2467  0.0219  1.0858
45842SOL    HW155136   6.717   3.796   6.977  0.2035  0.3092  0.9036
45842SOL    HW255137   6.616   3.760   7.084  0.5351  0.7402  1.3651
45843SOL     OW55138   5.497   2.592   0.923 -0.1468 -0.0219 -0.2003
45843SOL    HW155139   5.547   2.542   0.988  0.5838  1.1137  0.1622
45843SOL    HW255140   5.557   2.661   0.896 -1.8858  2.1806  1.1757
45844SOL     OW55141  10.248   2.837  11.117 -0.5225 -0.3665 -0.3778
45844SOL    HW155142  10.319   2.901  11.107 -0.0708 -0.7573  0.2163
45844SOL    HW255143  10.211   2.829  11.029 -0.3355  0.4169 -0.5425
45845SOL     OW55144   1.567   4.503   6.982 -0.4334  0.2883  0.1788
45845SOL    HW155145   1.541   4.558   7.056 -0.4004 -0.3768  0.6927
45845SOL    HW255146   1.490   4.448   6.965 -0.0499 -0.3342  0.4451
45846SOL     OW55147   7.112   0.455   5.451 -0.4355  0.1080  0.6473
45846SOL    HW155148   7.132   0.387   5.387  0.2465 -0.7362  1.7369
45846SOL    HW255149   7.025   0.486   5.426  0.1783  0.4512 -1.2385
45847SOL     OW55150   2.728   3.071  11.840 -0.1199 -0.4350  0.2515
45847SOL    HW155151   2.632   3.078  11.848 -0.3487 -1.9712 -0.7684
45847SOL    HW255152   2.742   2.985  11.801  1.6840 -0.0941  0.0958
45848SOL     OW55153  11.633   3.396   3.473 -0.6848 -0.1928 -1.4280
45848SOL    HW155154  11.669   3.442   3.549 -0.9310 -0.6703 -1.0180
45848SOL    HW255155  11.558   3.348   3.508 -0.8328 -0.3730 -1.9872
45849SOL     OW55156   6.995   9.455   7.867 -0.1149 -0.1715 -0.1872
45849SOL    HW155157   7.088   9.436   7.878  0.7060  2.7358 -1.1548
45849SOL    HW255158   6.984   9.464   7.772 -0.8787  1.4593  0.0207
45850SOL     OW55159  10.974  11.186   1.761  0.2562 -0.1666 -0.3846
45850SOL    HW155160  11.005  11.162   1.674 -1.8533 -0.5871 -1.0778
45850SOL    HW255161  10.959  11.280   1.755  0.4597 -0.1315 -0.3553
45851SOL     OW55162   5.080  11.656   9.950 -0.0406 -0.0511  0.3901
45851SOL    HW155163   5.107  11.695   9.867 -1.1843  2.0172  0.9244
45851SOL    HW255164   5.006  11.599   9.927 -0.0124  0.1035 -0.0894
45852SOL     OW55165   4.904   7.148  10.484  0.0029  0.0776 -0.4970
45852SOL    HW155166   4.882   7.067  10.531 -2.0125 -0.1435 -1.7079
45852SOL    HW255167   4.943   7.119  10.402  0.6936  0.4026 -0.2962
45853SOL     OW55168   4.372   9.126  10.608 -0.1617  0.3590 -0.0992
45853SOL    HW155169   4.463   9.153  10.594 -0.2378  0.1642 -1.0579
45853SOL    HW255170   4.338   9.110  10.519 -0.6093 -1.2616  0.3253
45854SOL     OW55171   9.806   1.705   5.838 -0.6735  0.2634  0.3907
45854SOL    HW155172   9.783   1.613   5.824 -2.6373  0.5631  1.3421
45854SOL    HW255173   9.798   1.717   5.933 -0.2501  1.3778  0.2955
45855SOL     OW55174  10.334   7.177   5.272 -0.2406  0.2370 -0.2566
45855SOL    HW155175  10.301   7.169   5.362  2.7511 -2.0168  0.7848
45855SOL    HW255176  10.375   7.264   5.270 -0.4164  0.3500  0.5441
45856SOL     OW55177   0.294   1.803   6.964  0.4336 -0.5152  0.2122
45856SOL    HW155178   0.335   1.859   6.897 -3.0869  1.2472 -0.7238
45856SOL    HW255179   0.253   1.733   6.914 -2.3761  0.9099  0.3047
45857SOL     OW55180   8.708  12.446   5.295  0.0489  0.0209 -0.7116
45857SOL    HW155181   8.769  12.502   5.246  1.9351 -2.8809 -1.9531
45857SOL    HW255182   8.752  12.361   5.299 -2.9516 -1.6124  0.4388
45858SOL     OW55183  12.681   0.887   9.838 -0.1154 -0.1600 -0.3220
45858SOL    HW155184  12.663   0.794   9.848  0.1999 -0.1099  0.8543
45858SOL    HW255185  12.662   0.924   9.924 -0.4053  0.8918 -0.8244
45859SOL     OW55186   8.001   7.209  12.483 -0.1504  0.5348  0.3892
45859SOL    HW155187   7.965   7.122  12.468 -0.2160  0.4378  1.0753
45859SOL    HW255188   8.096   7.197  12.475 -0.0643  0.1054  1.8374
45860SOL     OW55189   0.970   2.876   0.343 -0.1353  0.2119  0.3096
45860SOL    HW155190   1.049   2.916   0.306 -1.2798  0.7559 -1.7240
45860SOL    HW255191   0.921   2.845   0.267 -2.2637  0.5985  1.4341
45861SOL     OW55192  12.975   7.773   4.428  0.2771 -0.2868 -0.1977
45861SOL    HW155193  12.992   7.680   4.413  0.2698 -0.5512  1.2645
45861SOL    HW255194  12.890   7.775   4.473  0.3188  0.4306 -0.1345
45862SOL     OW55195  11.612   1.167   9.383  0.1913  0.4929 -0.4917
45862SOL    HW155196  11.649   1.176   9.296 -0.9402  1.2772 -0.9156
45862SOL    HW255197  11.611   1.072   9.399  0.6102  0.3543 -1.2325
45863SOL     OW55198   5.880  13.320   7.861  0.5705 -0.0556 -0.2203
45863SOL    HW155199   5.785  13.329   7.857  0.4710 -0.9601 -0.1325
45863SOL    HW255200   5.908  13.317   7.770  0.4316 -0.5401 -0.2497
45864SOL     OW55201   4.665   9.182   4.964  0.2448  0.0135  0.5340
45864SOL    HW155202   4.611   9.167   5.041  1.3768 -2.0967  0.9918
45864SOL    HW255203   4.755   9.182   4.998  0.7026  0.0807 -0.6423
45865SOL     OW55204   6.524   2.556  10.965  0.6225 -0.0244 -0.2590
45865SOL    HW155205   6.607   2.555  11.014 -0.9823  1.3878  2.7853
45865SOL    HW255206   6.507   2.464  10.946  0.7294 -0.9446  3.2755
45866SOL     OW55207   2.063   3.706   2.073 -0.2493  0.1252 -0.3609
45866SOL    HW155208   2.058   3.614   2.098 -0.4337 -0.1094 -1.2106
45866SOL    HW255209   2.049   3.755   2.154 -2.0401 -0.5778 -0.2150
45867SOL     OW55210   6.890   7.659   1.128  0.6044  0.1665 -0.0945
45867SOL    HW155211   6.973   7.673   1.174  0.1812 -2.0678  1.4898
45867SOL    HW255212   6.831   7.624   1.195 -0.8096 -0.8612 -1.7965
45868SOL     OW55213   7.525  13.470   5.608 -0.2294 -0.7951  0.1821
45868SOL    HW155214   7.522  13.514   5.693 -0.9056  0.8971 -0.6683
45868SOL    HW255215   7.472  13.391   5.620 -0.4779 -0.4780  1.2823
45869SOL     OW55216   1.329   0.331   2.622 -0.3035  0.6009 -0.2979
45869SOL    HW155217   1.238   0.319   2.647 -0.2143  0.9133  0.1827
45869SOL    HW255218   1.376   0.260   2.665 -0.7264 -1.6031 -3.1361
45870SOL     OW55219  13.696   6.870   4.414 -0.2321 -0.4775  0.3115
45870SOL    HW155220  13.609   6.904   4.436  0.9733  2.4335  1.1028
45870SOL    HW255221  13.689   6.844   4.323 -2.0663 -0.8593  0.5163
45871SOL     OW55222  12.854   3.925  13.079 -0.0789  0.1211  0.4595
45871SOL    HW155223  12.875   4.017  13.095  0.2951 -0.4539  4.3163
45871SOL    HW255224  12.806   3.898  13.157  0.4821 -3.1727 -0.1886
45872SOL     OW55225   6.698   1.975   0.369 -0.4531 -0.2442  0.1531
45872SOL    HW155226   6.783   1.934   0.385  0.1611  1.3287  1.1910
45872SOL    HW255227   6.640   1.940   0.437 -0.5893 -1.1118 -0.3897
45873SOL     OW55228   6.782   3.632  12.447  0.2514 -0.1423 -0.0448
45873SOL    HW155229   6.746   3.710  12.490 -0.1237 -0.3295 -0.0114
45873SOL    HW255230   6.726   3.560  12.478  0.4029 -0.3766 -0.3152
45874SOL     OW55231  10.741   4.319  13.526  0.7060  0.1454 -0.5310
45874SOL    HW155232  10.667   4.318  13.465  0.2458 -1.6421  0.0078
45874SOL    HW255233  10.777   4.231  13.523  1.9652  0.5974  0.2656
45875SOL     OW55234   1.096   0.307   4.288 -0.1525 -0.2439  0.1357
45875SOL    HW155235   1.011   0.291   4.329  0.2427  1.4002  1.7194
45875SOL    HW255236   1.145   0.356   4.353  1.2046  0.8354 -1.6139
45876SOL     OW55237   2.902   2.042   2.247 -0.2812 -0.8122 -0.3224
45876SOL    HW155238   2.828   2.094   2.217 -0.0267  1.2234  2.1215
45876SOL    HW255239   2.979   2.094   2.223  0.1033 -1.0265  0.3925
45877SOL     OW55240  13.315  13.126   7.625  0.1676  0.4520 -0.2205
45877SOL    HW155241  13.366  13.048   7.648  0.6677  0.5880 -0.8180
45877SOL    HW255242  13.379  13.198   7.626 -0.0379  0.6521 -0.8283
45878SOL     OW55243  12.023  10.798  11.926 -0.0905  0.0120  0.1106
45878SOL    HW155244  12.095  10.768  11.872 -1.2818  1.5138 -2.4735
45878SOL    HW255245  12.056  10.876  11.970  0.2322  0.0111 -0.1286
45879SOL     OW55246   4.823   4.313  13.357 -0.1559  0.5319  0.2608
45879SOL    HW155247   4.914   4.340  13.346 -0.3791  2.3210  2.1966
45879SOL    HW255248   4.791   4.300  13.267  1.9228 -0.0112 -0.4580
45880SOL     OW55249  11.678  12.565  12.282 -0.4191 -0.4188  0.5254
45880SOL    HW155250  11.690  12.659  12.268  0.7517 -0.7357 -0.8951
45880SOL    HW255251  11.766  12.529  12.273 -1.1892 -1.9644 -1.9124
45881SOL     OW55252  10.212   2.472  13.584 -0.2008  0.9835  0.2668
45881SOL    HW155253  10.270   2.494  13.511  1.5654  2.6766  2.0105
45881SOL    HW255254  10.223   2.378  13.596  2.4759  1.2341  0.6041
45882SOL     OW55255  10.796   3.002   9.268  0.7925 -0.8090  0.3800
45882SOL    HW155256  10.822   2.938   9.334  1.2558 -0.5853  0.4205
45882SOL    HW255257  10.873   3.012   9.212  1.5375  1.3023  1.6412
45883SOL     OW55258   6.670   0.540   7.369  0.2226  0.5260  0.3227
45883SOL    HW155259   6.593   0.591   7.343  1.1701  3.0438  2.0382
45883SOL    HW255260   6.716   0.522   7.288 -1.6286 -0.2153 -0.6347
45884SOL     OW55261  11.195   8.520   7.493  0.3283  0.1667  0.0690
45884SOL    HW155262  11.211   8.577   7.569 -0.2284  1.5624 -0.8158
45884SOL    HW255263  11.102   8.497   7.501  0.6162 -0.8605  0.5664
45885SOL     OW55264   1.123   7.026   8.645  0.3085  0.7682  0.1643
45885SOL    HW155265   1.113   7.037   8.550 -1.8885  0.8603  0.3751
45885SOL    HW255266   1.218   7.030   8.659  0.6314  1.6533 -1.9097
45886SOL     OW55267   6.695   3.990   5.783 -0.3800 -0.1196  0.2094
45886SOL    HW155268   6.605   3.957   5.784 -0.4354  0.0414  0.4212
45886SOL    HW255269   6.746   3.922   5.827 -0.2376 -0.6784 -0.7823
45887SOL     OW55270   2.032   2.309   1.769  0.2164 -0.0420 -0.6333
45887SOL    HW155271   2.065   2.398   1.760 -1.6171  0.9558  1.4819
45887SOL    HW255272   2.084   2.257   1.707  1.5576  2.4056 -1.6819
45888SOL     OW55273  11.756  13.206   4.231 -0.1547 -0.7653  0.4226
45888SOL    HW155274  11.821  13.201   4.161  0.5940 -0.2245  1.0607
45888SOL    HW255275  11.774  13.129   4.286 -2.1549 -2.4654 -1.1151
45889SOL     OW55276   1.364   9.797   7.894 -0.0558 -0.1685  0.3824
45889SOL    HW155277   1.299   9.866   7.908 -1.3545 -1.8260  3.3699
45889SOL    HW255278   1.334   9.752   7.815 -1.9786 -0.2089  1.0827
45890SOL     OW55279   5.859   4.052   4.840  0.2170  0.4837 -0.1455
45890SOL    HW155280   5.937   4.070   4.787  1.4255  1.6973  1.9315
45890SOL    HW255281   5.828   4.139   4.866 -1.2346 -0.0361 -0.0443
45891SOL     OW55282  10.639   2.654   0.557  0.0591 -0.1101  0.2175
45891SOL    HW155283  10.714   2.605   0.591  0.5550  0.6782  0.2917
45891SOL    HW255284  10.646   2.646   0.461 -0.5182 -1.1208  0.2402
45892SOL     OW55285   0.782   1.384  10.485 -0.5494 -0.1826  0.0193
45892SOL    HW155286   0.847   1.444  10.449  0.1546 -0.7019  0.4201
45892SOL    HW255287   0.824   1.299  10.483 -1.1488 -0.4923  0.4669
45893SOL     OW55288   0.341   9.054  14.066 -0.5091  0.1156 -0.0149
45893SOL    HW155289   0.277   9.113  14.105  0.5600  0.0824  1.9429
45893SOL    HW255290   0.426   9.092  14.091  0.2331 -0.4292 -1.5999
45894SOL     OW55291   4.116   9.442   0.559 -0.1671  0.2524  0.1056
45894SOL    HW155292   4.049   9.430   0.627 -0.0332  1.0829  0.3964
45894SOL    HW255293   4.068   9.477   0.484  0.2057  2.9373  1.0113
45895SOL     OW55294   5.533   7.654   0.864  0.5075 -0.5550 -0.6503
45895SOL    HW155295   5.528   7.712   0.940 -0.4724 -0.9990 -0.3458
45895SOL    HW255296   5.602   7.690   0.810  0.8682  0.0762  0.2091
45896SOL     OW55297  13.956   6.132   4.163  0.3088  0.0449 -0.2941
45896SOL    HW155298  13.929   6.119   4.254  0.2796 -1.1621 -0.4518
45896SOL    HW255299  14.046   6.099   4.160  0.4772  0.5336 -0.5955
45897SOL     OW55300  10.516   0.378   5.946  0.0256  0.1564 -0.4347
45897SOL    HW155301  10.582   0.379   6.015  0.0789 -0.0578 -0.4829
45897SOL    HW255302  10.515   0.468   5.913  1.3852 -0.1663 -1.4636
45898SOL     OW55303   1.818   4.625   3.329 -0.9756 -0.7722 -0.7542
45898SOL    HW155304   1.774   4.545   3.360 -0.3545 -0.6251  0.5856
45898SOL    HW255305   1.753   4.694   3.343 -1.0830 -0.8685 -0.7745
45899SOL     OW55306  11.135   5.173   5.123  0.2137  0.3810 -0.3714
45899SOL    HW155307  11.099   5.086   5.108  1.8017 -0.1319 -1.3784
45899SOL    HW255308  11.168   5.171   5.213 -0.5348  0.2581 -0.0896
45900SOL     OW55309  11.945   8.198   9.573  0.1011 -0.2563 -0.8771
45900SOL    HW155310  11.916   8.289   9.563  1.7766  0.1737 -2.4976
45900SOL    HW255311  11.866   8.146   9.560 -0.5224  0.9156 -2.1058
45901SOL     OW55312   3.790   5.502   8.553  0.3555 -0.0820  0.4910
45901SOL    HW155313   3.848   5.522   8.626 -0.5031  0.6845  0.9777
45901SOL    HW255314   3.748   5.419   8.578  0.9412 -0.4343  0.3166
45902SOL     OW55315   6.094   9.887   1.336  0.2080  0.7928  0.1970
45902SOL    HW155316   6.147   9.863   1.412  0.7975 -1.2070 -0.7794
45902SOL    HW255317   6.153   9.878   1.261 -0.7708  1.1827 -0.6486
45903SOL     OW55318  12.892   3.484  12.921 -0.3645 -0.1091 -0.0696
45903SOL    HW155319  12.977   3.528  12.924 -0.6994  0.6070 -0.8128
45903SOL    HW255320  12.844   3.519  12.996  0.3418 -1.2960  0.9861
45904SOL     OW55321   3.868  10.888  11.898  0.1517  0.6566 -0.0896
45904SOL    HW155322   3.938  10.950  11.882 -0.0649  1.1976  0.9673
45904SOL    HW255323   3.903  10.830  11.966 -0.2961  0.7386  0.2159
45905SOL     OW55324  12.995  12.632   5.363 -0.0260  0.2195 -0.4343
45905SOL    HW155325  12.995  12.718   5.406  0.1338 -0.0013  0.0140
45905SOL    HW255326  13.064  12.639   5.297 -0.1999  0.5241 -0.5888
45906SOL     OW55327   0.706   8.045   8.429 -0.5601  0.2320  0.2107
45906SOL    HW155328   0.659   8.099   8.493 -0.2284  0.4006  0.3145
45906SOL    HW255329   0.754   8.107   8.376  2.0581 -0.0378  2.0738
45907SOL     OW55330   3.674   6.128   7.224  0.2511 -0.6818  0.1070
45907SOL    HW155331   3.669   6.069   7.149 -1.4642 -1.3721  0.7260
45907SOL    HW255332   3.674   6.216   7.185  0.0436 -1.0454 -0.7262
45908SOL     OW55333   3.032   9.368   7.721 -0.6633 -0.6899 -0.1783
45908SOL    HW155334   3.041   9.463   7.725 -0.6457 -0.7157  1.0713
45908SOL    HW255335   3.087   9.341   7.648  1.5727  0.0459  1.1343
45909SOL     OW55336   2.926  13.640   3.919  0.3774  0.4015 -0.6233
45909SOL    HW155337   2.862  13.651   3.989  0.4647 -1.6048 -0.1710
45909SOL    HW255338   2.886  13.681   3.843 -0.1715  1.7105  0.3217
45910SOL     OW55339  11.459   7.155   6.528  0.1825  0.4441 -0.1086
45910SOL    HW155340  11.386   7.123   6.475  0.2840 -0.2202  0.1496
45910SOL    HW255341  11.418   7.197   6.603  0.0635  0.2188 -0.0481
45911SOL     OW55342   0.912  10.684  11.305 -0.1833  0.6408  0.0036
45911SOL    HW155343   0.865  10.698  11.223  0.5328  2.5838 -0.1254
45911SOL    HW255344   0.852  10.631  11.358 -0.8999 -0.1512 -1.5325
45912SOL     OW55345   0.770  10.140   2.637 -0.3316  0.3532  0.4113
45912SOL    HW155346   0.675  10.134   2.629 -0.3710 -0.7983  1.5078
45912SOL    HW255347   0.792  10.079   2.707  1.1648  1.0199  0.5504
45913SOL     OW55348   0.160   9.631   5.718 -0.5026  0.5343 -0.4623
45913SOL    HW155349   0.232   9.583   5.758 -1.2205 -0.3485 -0.1851
45913SOL    HW255350   0.199   9.675   5.642  0.1867 -0.4911 -0.7277
45914SOL     OW55351   3.376  12.409   6.897  0.9636 -0.1697 -0.1043
45914SOL    HW155352   3.353  12.499   6.922  0.2800  0.1090 -1.6658
45914SOL    HW255353   3.345  12.355   6.970  1.6358  0.8621  0.9868
45915SOL     OW55354  12.744   6.841   4.109 -0.6548  0.3124  0.0345
45915SOL    HW155355  12.683   6.906   4.145 -2.6467  0.5593 -3.3809
45915SOL    HW255356  12.828   6.887   4.107 -0.7971  0.8448  2.5416
45916SOL     OW55357   1.227   9.106   4.911 -0.0039 -0.0727  0.1528
45916SOL    HW155358   1.303   9.149   4.949  0.7779 -0.2241 -1.1465
45916SOL    HW255359   1.176   9.074   4.985  1.7193 -0.8415  1.0522
45917SOL     OW55360  13.245   3.932   5.586  0.3924 -0.8359  0.4672
45917SOL    HW155361  13.226   3.850   5.540 -0.7913 -0.6792  0.6298
45917SOL    HW255362  13.268   3.905   5.675 -2.2419 -0.9430  1.2009
45918SOL     OW55363   4.776  13.963   7.200 -0.7192 -0.7973 -0.0143
45918SOL    HW155364   4.768  13.954   7.295 -0.9654 -1.3627 -0.0799
45918SOL    HW255365   4.859  13.922   7.178 -1.2149 -1.7542 -0.1673
45919SOL     OW55366   7.927  11.061   6.375  0.0975 -0.1342  0.2719
45919SOL    HW155367   7.906  10.992   6.437  0.8285  0.8769  1.7188
45919SOL    HW255368   7.994  11.113   6.419  1.6663 -0.1393 -1.9344
45920SOL     OW55369   2.979   6.807  10.599 -0.5668 -0.4162  0.1146
45920SOL    HW155370   2.963   6.895  10.565  0.6139 -0.3571 -0.3444
45920SOL    HW255371   3.008   6.820  10.689  0.7880 -0.2124 -0.3195
45921SOL     OW55372   5.347   4.787   6.807  0.0892  0.3753 -0.8835
45921SOL    HW155373   5.300   4.791   6.890  1.0040 -1.5924 -0.2219
45921SOL    HW255374   5.294   4.730   6.751  0.3477  0.3194 -1.0733
45922SOL     OW55375  13.915   7.999  12.721  0.0606 -0.3602  0.1095
45922SOL    HW155376  13.926   7.905  12.712  1.3020 -0.3994  1.6027
45922SOL    HW255377  13.824   8.016  12.695 -0.4792 -2.1045  0.7537
45923SOL     OW55378  12.347   1.158   8.441  0.0869  0.7365 -0.1038
45923SOL    HW155379  12.410   1.094   8.475 -0.5249 -1.3748 -2.6359
45923SOL    HW255380  12.286   1.172   8.513  1.0253 -0.4501  0.9765
45924SOL     OW55381   6.608   1.113   2.047 -0.2372 -0.3568  0.3198
45924SOL    HW155382   6.700   1.129   2.029 -0.2881  1.0546  1.1446
45924SOL    HW255383   6.598   1.018   2.038  0.4684 -0.2447 -3.3320
45925SOL     OW55384   3.908   4.820   1.683  0.1811  0.2043  0.0739
45925SOL    HW155385   3.982   4.825   1.745  0.9398 -1.4979 -0.6236
45925SOL    HW255386   3.898   4.726   1.666 -1.5510  0.4780 -0.5912
45926SOL     OW55387   5.483   5.867   0.742 -0.2169 -0.2111 -0.1845
45926SOL    HW155388   5.489   5.944   0.798  1.1277 -0.5066  0.0978
45926SOL    HW255389   5.507   5.899   0.655  0.6601 -0.3632 -0.0063
45927SOL     OW55390   1.064  11.787   2.165 -0.2420 -0.0382 -0.1440
45927SOL    HW155391   1.050  11.826   2.078  0.2417 -0.4705 -0.4250
45927SOL    HW255392   1.156  11.761   2.165 -0.1951  0.1136  0.5687
45928SOL     OW55393  12.556  10.066   2.256  0.0756  0.1672  0.7409
45928SOL    HW155394  12.524  10.017   2.332 -0.2464 -0.3625  0.2669
45928SOL    HW255395  12.534  10.012   2.181 -0.2550  1.0316  0.2037
45929SOL     OW55396   6.058   1.010   1.073  0.1137  0.1395 -0.2924
45929SOL    HW155397   5.964   1.003   1.056  0.3448  1.0818 -2.2598
45929SOL    HW255398   6.095   0.932   1.033  0.0154 -1.5344  2.6180
45930SOL     OW55399   0.171   5.600  12.126  0.5483  0.2273 -0.3645
45930SOL    HW155400   0.158   5.618  12.219  1.1155 -1.0826 -0.0095
45930SOL    HW255401   0.082   5.593  12.090  0.3295  0.8271  0.0629
45931SOL     OW55402   2.142   6.710   0.691  0.0962 -0.1327 -0.1002
45931SOL    HW155403   2.068   6.668   0.736  0.5144  0.3088  1.0295
45931SOL    HW255404   2.206   6.640   0.680 -0.7996 -0.7273 -1.8527
45932SOL     OW55405  10.713   2.539   1.196 -0.1377  0.3114 -0.3841
45932SOL    HW155406  10.682   2.509   1.111  0.7158  0.4459 -0.7484
45932SOL    HW255407  10.702   2.463   1.253 -0.6599  0.2042 -0.6180
45933SOL     OW55408   8.560   4.678  12.929 -0.6945  0.0790  0.3500
45933SOL    HW155409   8.511   4.760  12.934 -1.7010 -0.1960 -2.8156
45933SOL    HW255410   8.559   4.656  12.836  1.8737 -2.1582  0.7535
45934SOL     OW55411   9.137   0.667   8.403  0.2584  0.2268  0.3314
45934SOL    HW155412   9.160   0.711   8.484  0.0562  1.4535 -0.2485
45934SOL    HW255413   9.204   0.600   8.391  0.7418  0.5635  1.1019
45935SOL     OW55414   5.482   6.805  12.345  0.1188  0.1948  0.0878
45935SOL    HW155415   5.412   6.814  12.281  2.5642  0.9457 -2.7407
45935SOL    HW255416   5.443   6.834  12.427 -2.5733  1.6116 -1.5310
45936SOL     OW55417   2.596  12.951  13.588  0.4565  0.2325  0.5826
45936SOL    HW155418   2.571  13.035  13.627 -0.1178  0.3022  0.0803
45936SOL    HW255419   2.532  12.937  13.519  1.0259 -0.2406  0.1408
45937SOL     OW55420   6.458   9.487   3.939 -0.3100  0.5289 -0.6506
45937SOL    HW155421   6.448   9.396   3.911 -2.2787  0.6935 -0.5729
45937SOL    HW255422   6.432   9.487   4.031  1.0161  0.9504 -0.2497
45938SOL     OW55423  11.703  14.007  11.392  0.3862  0.3704 -0.4412
45938SOL    HW155424  11.757  14.050  11.458  0.1561  1.0401 -0.6738
45938SOL    HW255425  11.623  13.984  11.439  0.4563  0.3239 -0.3454
45939SOL     OW55426   9.713   0.196   4.817 -0.5962 -0.2001 -0.3903
45939SOL    HW155427   9.627   0.227   4.845  0.0345  0.2022  1.2392
45939SOL    HW255428   9.765   0.193   4.898  0.6031 -1.5032 -1.1543
45940SOL     OW55429   1.368   1.006   6.928 -0.2130  0.3561 -0.0023
45940SOL    HW155430   1.365   0.914   6.955  0.2397  0.0239 -1.0272
45940SOL    HW255431   1.413   1.051   7.000 -1.6843  0.0415  1.1510
45941SOL     OW55432   1.184  13.367  11.901 -0.3137 -0.1419 -0.0431
45941SOL    HW155433   1.172  13.317  11.982  0.7674 -1.4768 -0.6706
45941SOL    HW255434   1.207  13.455  11.931  0.3625 -0.6842  1.1127
45942SOL     OW55435  12.264   1.096  12.977 -0.1107  0.2450 -0.0468
45942SOL    HW155436  12.200   1.082  12.907  0.0859 -0.6378 -0.0507
45942SOL    HW255437  12.288   1.188  12.968  1.1817 -0.2426 -2.2480
45943SOL     OW55438   9.098   0.344   4.646 -0.6356 -1.0897 -0.3204
45943SOL    HW155439   9.073   0.351   4.554 -1.6876  1.1506  0.0884
45943SOL    HW255440   9.193   0.335   4.644 -0.6001 -0.6612 -1.6172
45944SOL     OW55441   4.366  12.709   7.957 -0.2008 -0.4291  0.3810
45944SOL    HW155442   4.303  12.747   7.895  0.2679 -0.3187 -0.0370
45944SOL    HW255443   4.424  12.656   7.903 -0.1173 -0.7762  0.8042
45945SOL     OW55444  13.844   8.348   5.662 -0.5688 -0.3610  0.2443
45945SOL    HW155445  13.888   8.424   5.626  1.0603 -1.0694  0.6625
45945SOL    HW255446  13.771   8.332   5.602  0.7585 -0.1860 -1.4957
45946SOL     OW55447   3.015   6.970   1.103  0.7884 -0.1573  0.0621
45946SOL    HW155448   2.940   6.914   1.084  0.0872  1.1911 -1.3782
45946SOL    HW255449   3.071   6.917   1.159  0.6610 -2.6588 -2.0026
45947SOL     OW55450  13.655  13.953  10.031  0.3285  0.6427  0.1279
45947SOL    HW155451  13.684  14.021  10.091 -0.7224  1.2764 -0.0471
45947SOL    HW255452  13.603  14.000   9.965 -1.0478 -0.4036  0.4207
45948SOL     OW55453   9.753   3.260   9.974 -0.0365 -0.1139 -0.8735
45948SOL    HW155454   9.806   3.192  10.016 -0.0054  1.1892  1.4079
45948SOL    HW255455   9.805   3.340   9.981 -0.8443  0.5235 -1.7728
45949SOL     OW55456   8.162  13.136  13.116 -0.3085 -0.5901 -0.3487
45949SOL    HW155457   8.075  13.163  13.145 -0.2606 -0.9100  0.0867
45949SOL    HW255458   8.179  13.054  13.162  0.3861 -0.3319 -0.1428
45950SOL     OW55459   3.242   3.366   8.059 -0.8432 -0.0966 -0.1321
45950SOL    HW155460   3.196   3.366   8.143  0.3446  2.9082  0.6389
45950SOL    HW255461   3.222   3.452   8.021  3.8108  1.3995  0.2031
45951SOL     OW55462   8.484   2.809   2.961 -0.0768  0.1642  0.3020
45951SOL    HW155463   8.451   2.820   2.872  2.0863  0.6027 -0.5168
45951SOL    HW255464   8.429   2.866   3.014  0.0156  1.6872 -1.1436
45952SOL     OW55465   4.175   5.708  11.022 -0.5478 -0.1622 -0.6059
45952SOL    HW155466   4.163   5.776  10.955  1.3438  0.4786 -0.3623
45952SOL    HW255467   4.123   5.738  11.096  1.5117  1.9473  0.0905
45953SOL     OW55468   8.135   9.510   3.814  0.3857  0.0360  0.3734
45953SOL    HW155469   8.221   9.523   3.772  0.2151 -0.8687 -0.3025
45953SOL    HW255470   8.105   9.426   3.779 -0.1661 -0.3241  1.6715
45954SOL     OW55471   3.537   8.769  13.428 -0.6485  0.2993  0.5678
45954SOL    HW155472   3.536   8.819  13.509 -0.9109  0.6499  0.3534
45954SOL    HW255473   3.554   8.679  13.455 -2.1622  0.1662  1.1608
45955SOL     OW55474   0.429   2.026   9.193 -0.5081  0.4132  0.3431
45955SOL    HW155475   0.431   1.991   9.283 -0.2353  0.4219  0.3428
45955SOL    HW255476   0.416   1.949   9.138 -0.4491  0.3784  0.3766
45956SOL     OW55477  13.601  10.729   4.163  0.0436 -0.1781  0.1594
45956SOL    HW155478  13.644  10.805   4.203  0.0037 -0.6914  1.1986
45956SOL    HW255479  13.513  10.761   4.139 -0.1273 -0.0139  0.9907
45957SOL     OW55480   1.977   1.662   9.440  0.4654  1.0690 -0.2633
45957SOL    HW155481   2.054   1.611   9.413 -1.0740 -1.7767  0.3708
45957SOL    HW255482   2.004   1.704   9.522  0.8282 -1.4075  0.9599
45958SOL     OW55483   3.582  13.586  13.890  0.1374  0.2107  0.0709
45958SOL    HW155484   3.529  13.666  13.899  1.5586  1.2467 -0.4686
45958SOL    HW255485   3.570  13.540  13.974 -2.3680 -0.1178 -0.3692
45959SOL     OW55486  11.747  11.334  11.564 -0.2918 -0.2469  0.5560
45959SOL    HW155487  11.762  11.292  11.649 -1.2329 -1.3476  0.2115
45959SOL    HW255488  11.663  11.299  11.535  0.3903 -0.5245 -1.1899
45960SOL     OW55489   2.946   6.129   4.408 -0.0067 -1.1220  0.3230
45960SOL    HW155490   3.028   6.080   4.409 -0.6498 -2.2916 -1.4037
45960SOL    HW255491   2.896   6.092   4.337 -1.5858  0.3707  0.5835
45961SOL     OW55492   5.342   1.512   7.774  0.3010  0.0683 -0.5823
45961SOL    HW155493   5.270   1.525   7.835 -0.3826  0.2717 -1.4115
45961SOL    HW255494   5.388   1.434   7.806  0.7516  0.9119  0.9284
45962SOL     OW55495   2.709   6.479  11.270  0.3987  0.0964  0.3897
45962SOL    HW155496   2.748   6.489  11.182 -1.4114  2.4945 -0.2349
45962SOL    HW255497   2.778   6.509  11.329  1.1384 -0.1714 -0.3000
45963SOL     OW55498  10.759   4.023   9.549 -0.3445  0.3849 -0.0533
45963SOL    HW155499  10.846   4.012   9.588 -0.8516  0.2223  1.0740
45963SOL    HW255500  10.709   3.948   9.581 -1.5191  1.5957  1.0752
45964SOL     OW55501  12.558   5.989  10.276  0.4292  0.6754  0.2337
45964SOL    HW155502  12.574   5.941  10.195 -1.4045  0.6801 -0.1665
45964SOL    HW255503  12.551   5.921  10.343 -0.8297  0.4374 -0.1104
45965SOL     OW55504   9.986   8.614  11.313  0.2305 -0.1497 -0.1983
45965SOL    HW155505   9.896   8.584  11.318 -0.5433  1.5953 -2.3769
45965SOL    HW255506  10.031   8.548  11.260  0.3467 -1.1729  1.1363
45966SOL     OW55507   5.246  11.694   6.996  0.1414 -0.0775  0.4667
45966SOL    HW155508   5.318  11.733   6.947 -0.1143  1.1733  1.0297
45966SOL    HW255509   5.191  11.653   6.929 -2.2155  4.7011 -1.0506
45967SOL     OW55510  10.266  10.444   0.572  0.1854 -0.5757 -0.1274
45967SOL    HW155511  10.296  10.415   0.658  0.7659  2.0366  0.6353
45967SOL    HW255512  10.172  10.428   0.572  0.1515 -0.3991  1.0647
45968SOL     OW55513   9.169   9.318   6.507  0.1662  0.1500  0.0788
45968SOL    HW155514   9.254   9.281   6.485  0.1631  0.4874 -0.5277
45968SOL    HW255515   9.158   9.391   6.445 -1.0764 -0.6026 -0.6252
45969SOL     OW55516   6.917   6.312   3.078 -0.3573  0.1530 -0.1180
45969SOL    HW155517   6.839   6.367   3.082 -0.0735  0.5201  0.7615
45969SOL    HW255518   6.884   6.224   3.062 -0.8839  0.4461 -0.6522
45970SOL     OW55519   4.298   2.762   4.305  0.1591 -0.3291 -0.1662
45970SOL    HW155520   4.291   2.673   4.341  0.5467 -0.4061 -0.2709
45970SOL    HW255521   4.392   2.773   4.288  0.0954  0.0561 -0.2669
45971SOL     OW55522  11.259   2.945   8.965  0.5750 -0.3333 -0.2052
45971SOL    HW155523  11.310   3.019   8.996 -0.0190 -0.6974  1.7661
45971SOL    HW255524  11.196   2.984   8.903  0.8845  0.6546  0.0811
45972SOL     OW55525   0.001   5.421   4.432 -0.7308  0.0724 -0.0428
45972SOL    HW155526   0.003   5.346   4.491 -0.3334  0.4204  0.4064
45972SOL    HW255527  -0.016   5.384   4.346 -1.8198 -0.3984  0.3596
45973SOL     OW55528   4.266   7.264   1.566 -0.1024 -0.3653  0.3513
45973SOL    HW155529   4.171   7.273   1.572 -0.2789 -0.4455 -1.5228
45973SOL    HW255530   4.284   7.275   1.472  1.4272 -3.2131  0.2134
45974SOL     OW55531   7.656   0.386   3.174  0.1963 -0.1337 -0.0338
45974SOL    HW155532   7.746   0.376   3.204  0.4757 -1.9245 -1.3165
45974SOL    HW255533   7.607   0.319   3.221 -0.4870  0.8132  0.6334
45975SOL     OW55534   6.850   2.919   3.568  0.4530 -0.1314  0.0042
45975SOL    HW155535   6.844   2.994   3.627 -1.3600 -0.1651 -0.0732
45975SOL    HW255536   6.943   2.898   3.565  0.7015  0.4274  2.1487
45976SOL     OW55537   5.311  13.863   5.493  0.2269  0.1752  0.3792
45976SOL    HW155538   5.327  13.899   5.581 -0.0867 -0.2394  0.6106
45976SOL    HW255539   5.234  13.910   5.462 -0.1895 -0.2919  0.6865
45977SOL     OW55540  11.649   9.307  13.783  0.2626  0.3722 -0.5326
45977SOL    HW155541  11.583   9.244  13.812 -0.7397  1.2111 -0.8848
45977SOL    HW255542  11.663   9.364  13.859  2.6523 -1.3935  0.4620
45978SOL     OW55543  12.371  10.420  12.084  0.5246 -0.4024  0.2920
45978SOL    HW155544  12.422  10.399  12.162  1.0864 -1.1044 -0.2429
45978SOL    HW255545  12.385  10.345  12.026  1.9661  1.0518 -1.3836
45979SOL     OW55546   8.934   9.480   7.286  0.4380  0.6741 -0.4330
45979SOL    HW155547   8.975   9.424   7.353  0.8983 -0.6649 -1.7822
45979SOL    HW255548   8.988   9.468   7.208 -0.5091  1.6281 -1.2657
45980SOL     OW55549  12.021   5.447   9.967 -0.1652 -0.2344 -0.1417
45980SOL    HW155550  11.990   5.361   9.939 -3.7726  1.1292 -0.7790
45980SOL    HW255551  11.973   5.509   9.913  2.2433  2.2691  0.3585
45981SOL     OW55552  10.205  13.889  11.419 -0.2187 -0.2355 -0.0831
45981SOL    HW155553  10.129  13.924  11.466  1.4982 -0.0933  2.8097
45981SOL    HW255554  10.203  13.795  11.438  1.3434  0.0397  1.7406
45982SOL     OW55555  14.086   2.072   2.499 -0.0817  0.2073 -0.3830
45982SOL    HW155556  14.120   2.067   2.588  0.1399  0.1975 -0.4693
45982SOL    HW255557  14.024   1.999   2.492 -1.3486  1.1856  0.3027
45983SOL     OW55558   4.010  10.246   7.551  0.4578 -0.7889 -0.4609
45983SOL    HW155559   3.985  10.244   7.459 -0.9100 -0.5953 -0.1154
45983SOL    HW255560   3.933  10.213   7.598 -0.0793  1.9749  0.8191
45984SOL     OW55561  11.080   9.186   3.038  0.0241 -0.1555  0.1580
45984SOL    HW155562  10.991   9.222   3.039 -0.4382 -1.2279  2.4326
45984SOL    HW255563  11.135   9.259   3.066 -0.4782 -0.1796  1.2646
45985SOL     OW55564   2.324   7.360   7.857  0.2415  0.3019 -0.1268
45985SOL    HW155565   2.377   7.282   7.874  1.7730  1.0985 -0.9779
45985SOL    HW255566   2.234   7.328   7.851  0.6137 -1.1190  1.2847
45986SOL     OW55567   7.090   7.329   4.367 -0.2668  0.7204  0.0732
45986SOL    HW155568   7.109   7.274   4.291  0.0375  1.4621 -0.4060
45986SOL    HW255569   7.076   7.416   4.330 -1.5569  0.8167  0.7305
45987SOL     OW55570   7.479   2.283   5.313  0.0864  0.5543 -0.1839
45987SOL    HW155571   7.399   2.252   5.270  0.6865  0.6957 -1.4291
45987SOL    HW255572   7.481   2.235   5.396 -1.1627  0.3792 -0.2341
45988SOL     OW55573   3.108  13.934  10.219  0.7103  0.3599  0.2051
45988SOL    HW155574   3.180  13.907  10.161  0.9134 -0.9130  1.0215
45988SOL    HW255575   3.071  14.011  10.176  2.8971  1.3929  0.0288
45989SOL     OW55576   6.516   5.015  11.192  0.1358 -0.1323  0.2321
45989SOL    HW155577   6.501   4.958  11.267 -0.5539 -1.4350 -0.8535
45989SOL    HW255578   6.504   5.103  11.226  2.4541 -0.4903  2.2659
45990SOL     OW55579   1.325   9.112   3.068  0.6762 -0.2799  0.3313
45990SOL    HW155580   1.412   9.076   3.084  0.0490 -1.1834  1.9015
45990SOL    HW255581   1.265   9.049   3.108 -0.9856 -1.5534 -3.6978
45991SOL     OW55582   0.521   7.965   9.175 -0.6729 -0.4555 -0.0682
45991SOL    HW155583   0.498   7.957   9.268 -1.4135  0.8214 -0.1334
45991SOL    HW255584   0.592   8.030   9.173 -1.8545  0.8592 -0.5455
45992SOL     OW55585  14.012   4.539  10.220 -0.6045 -0.5463  0.1179
45992SOL    HW155586  13.936   4.565  10.168 -1.4616 -2.9829  0.0226
45992SOL    HW255587  13.975   4.500  10.299  0.6515  0.7502  1.4294
45993SOL     OW55588   2.920   8.008   0.685  0.2673  0.8135 -1.1682
45993SOL    HW155589   2.922   8.104   0.690 -0.1835  0.7654  0.3097
45993SOL    HW255590   2.832   7.985   0.715  0.0808 -0.0525 -2.2963
45994SOL     OW55591   4.341  13.811  12.709  0.0358 -0.2802  0.3260
45994SOL    HW155592   4.379  13.742  12.655  0.2979 -1.0974  1.5176
45994SOL    HW255593   4.248  13.813  12.684  0.4747  0.5560 -1.3691
45995SOL     OW55594  10.526   7.704  12.295 -0.0154  0.0561  0.3802
45995SOL    HW155595  10.575   7.758  12.356 -1.0925  0.0086  1.3216
45995SOL    HW255596  10.473   7.766  12.245 -0.4090 -0.0262  0.6861
45996SOL     OW55597   6.468  10.828   2.864 -0.4651 -0.5129  0.4947
45996SOL    HW155598   6.478  10.848   2.957  0.1422  0.2174  0.2769
45996SOL    HW255599   6.374  10.841   2.847 -0.6025 -0.7703  1.0249
45997SOL     OW55600   0.467  12.506  10.875 -0.6956 -0.2307  0.1672
45997SOL    HW155601   0.522  12.583  10.862 -0.4640 -0.6506 -1.6698
45997SOL    HW255602   0.528  12.434  10.890 -0.8317 -0.3413  0.2006
45998SOL     OW55603  10.925   2.923   0.811 -0.1987  0.1287 -0.3536
45998SOL    HW155604  10.912   3.018   0.811  1.9312  0.5523 -3.0616
45998SOL    HW255605  11.016   2.912   0.783 -0.7774 -2.7152 -1.4244
45999SOL     OW55606  11.807   5.791   4.003 -0.1867 -0.2663 -0.0274
45999SOL    HW155607  11.893   5.758   3.978 -0.9190 -1.7416 -0.7427
45999SOL    HW255608  11.820   5.885   4.019  1.8258 -0.7075  1.2643
46000SOL     OW55609   7.380   8.277   1.442  0.2319 -1.2095 -0.0546
46000SOL    HW155610   7.464   8.236   1.419 -0.3475 -2.3365 -0.2073
46000SOL    HW255611   7.386   8.292   1.536  0.7122 -1.0341 -0.1086
46001SOL     OW55612   5.227   2.478  12.827 -0.2189 -0.5133 -0.3653
46001SOL    HW155613   5.275   2.395  12.818  0.9498  0.2434 -1.4982
46001SOL    HW255614   5.294   2.540  12.857 -1.0056  0.1081  0.1289
46002SOL     OW55615   1.962   0.362   1.718  0.6976  0.1781 -0.0137
46002SOL    HW155616   1.947   0.344   1.625 -0.5447  0.8350  0.0471
46002SOL    HW255617   1.967   0.276   1.758  1.7709 -0.1296 -0.7506
46003SOL     OW55618   5.363  11.442   1.295  0.5450 -0.3720  0.0442
46003SOL    HW155619   5.423  11.370   1.317  2.1879  0.6012 -1.0703
46003SOL    HW255620   5.342  11.482   1.380  0.5309 -1.4282  0.5585
46004SOL     OW55621   2.666  10.603   7.240  0.3293  0.3104 -0.4347
46004SOL    HW155622   2.667  10.668   7.169  0.2863  1.9858  1.0240
46004SOL    HW255623   2.656  10.655   7.319 -1.2733 -1.6171  0.7073
46005SOL     OW55624   7.172  11.628  11.008  0.0528  0.1698 -0.2737
46005SOL    HW155625   7.214  11.620  11.094  1.5396  0.1524 -0.9855
46005SOL    HW255626   7.228  11.688  10.959 -1.7691  1.6628 -0.6604
46006SOL     OW55627  11.840   7.442   3.806  0.0371 -0.0011 -0.1508
46006SOL    HW155628  11.866   7.507   3.741  1.8401 -1.4225 -0.9404
46006SOL    HW255629  11.859   7.483   3.890  1.0752  0.5457 -0.6347
46007SOL     OW55630  12.405   3.795   3.183 -0.0098 -0.1575 -0.0526
46007SOL    HW155631  12.338   3.855   3.215  0.7276  0.8178 -0.2868
46007SOL    HW255632  12.457   3.774   3.261  0.9514  1.1277 -0.3206
46008SOL     OW55633   2.569   0.757  13.789 -0.0057  0.0608  0.3514
46008SOL    HW155634   2.607   0.698  13.855  1.5542  1.0355  0.3741
46008SOL    HW255635   2.644   0.783  13.735 -0.8354  1.2609 -0.2537
46009SOL     OW55636  12.644   8.168   7.777  0.2726  0.0883  0.9304
46009SOL    HW155637  12.572   8.231   7.768  0.7426  0.7179  1.4592
46009SOL    HW255638  12.705   8.193   7.708 -1.4198 -2.4883 -1.7424
46010SOL     OW55639   2.511   3.316  14.044 -0.3806  0.1656  0.6026
46010SOL    HW155640   2.457   3.323  14.122 -0.0727  0.9964  0.7526
46010SOL    HW255641   2.489   3.231  14.007 -1.4744  0.3025  0.8928
46011SOL     OW55642  12.275  11.603   9.484 -0.5200  0.2783 -0.2789
46011SOL    HW155643  12.346  11.636   9.429  0.9613 -0.8863  0.8799
46011SOL    HW255644  12.295  11.636   9.571 -0.3227 -1.6226  0.4350
46012SOL     OW55645   5.356   4.117   6.131 -0.2232  0.4374 -0.3020
46012SOL    HW155646   5.371   4.073   6.215 -1.2387  0.6222 -0.0124
46012SOL    HW255647   5.331   4.047   6.072  0.8936  0.2480 -0.5695
46013SOL     OW55648   0.454   0.152   2.183  0.1261 -0.2449 -0.1588
46013SOL    HW155649   0.513   0.221   2.214 -0.6550  0.3978 -0.0768
46013SOL    HW255650   0.371   0.169   2.227 -0.6397 -0.0726 -1.5960
46014SOL     OW55651   8.383  11.538  13.727  0.3848 -0.6974 -0.2666
46014SOL    HW155652   8.302  11.571  13.688  0.0893 -0.9520  0.1242
46014SOL    HW255653   8.452  11.572  13.670  0.2331  1.8925  0.9305
46015SOL     OW55654   3.634   6.296  12.481 -0.1488 -0.0165 -0.2734
46015SOL    HW155655   3.654   6.258  12.567  0.1171 -0.9204 -0.7238
46015SOL    HW255656   3.554   6.252  12.454  0.2480 -0.3898 -0.8714
46016SOL     OW55657  11.982  13.284   1.313  0.5708  0.5896 -0.1466
46016SOL    HW155658  12.042  13.288   1.238  0.0968  0.4217 -0.5341
46016SOL    HW255659  11.903  13.243   1.279  0.3976  0.3887  0.4806
46017SOL     OW55660  13.642   2.841   0.596 -0.6726  0.2597  0.3958
46017SOL    HW155661  13.614   2.789   0.671  1.4278  0.0576  1.1063
46017SOL    HW255662  13.632   2.782   0.521 -1.4335 -0.0312  0.7189
46018SOL     OW55663   3.780  10.106   0.347 -0.8685 -0.4225  0.1970
46018SOL    HW155664   3.842  10.173   0.379  0.4528 -0.7769 -1.5074
46018SOL    HW255665   3.695  10.150   0.349 -0.2483  0.8236  0.4931
46019SOL     OW55666   1.868   7.195   1.130  0.1153  0.3339  1.2311
46019SOL    HW155667   1.943   7.174   1.186  1.1447 -1.8941 -0.7929
46019SOL    HW255668   1.900   7.261   1.070  0.6683 -0.9155  0.0988
46020SOL     OW55669   6.349   9.409   1.622  0.5994  0.3310 -0.1246
46020SOL    HW155670   6.412   9.436   1.689  0.8324 -0.3640 -0.0631
46020SOL    HW255671   6.354   9.314   1.620 -1.3032  0.1628  0.7326
46021SOL     OW55672  13.980   9.689  13.296 -0.1184  0.2430 -0.7054
46021SOL    HW155673  14.004   9.708  13.205 -0.4602 -0.1949 -0.8900
46021SOL    HW255674  13.965   9.775  13.335  0.6445  0.4689 -0.8888
46022SOL     OW55675   3.253   9.580   0.915  0.0227  0.1420  0.1556
46022SOL    HW155676   3.235   9.593   1.008 -1.8087  1.0916 -0.2842
46022SOL    HW255677   3.288   9.491   0.910  3.6564  1.2860  2.1313
46023SOL     OW55678  12.535   8.459  12.024 -0.7262  0.1600 -0.5095
46023SOL    HW155679  12.626   8.430  12.037 -0.4150  1.7620  1.4748
46023SOL    HW255680  12.495   8.449  12.110 -1.7303  1.6861 -0.7675
46024SOL     OW55681  13.338   9.574   9.970  0.0390  0.2358  0.1758
46024SOL    HW155682  13.433   9.577   9.969  0.0312  0.9161  0.4198
46024SOL    HW255683  13.315   9.502   9.912  0.7151 -0.4837  0.7893
46025SOL     OW55684   6.706   2.339   4.571 -0.7342  0.1127  0.3246
46025SOL    HW155685   6.730   2.260   4.621  0.3457  0.5178  0.4772
46025SOL    HW255686   6.634   2.378   4.622 -0.1213  0.1394  1.2022
46026SOL     OW55687   2.365  13.450   4.887  0.6472 -0.0049 -0.3023
46026SOL    HW155688   2.427  13.501   4.941 -0.2789  0.9750 -0.1370
46026SOL    HW255689   2.393  13.359   4.899  1.0914  0.2806  1.0416
46027SOL     OW55690   9.567   0.025  11.945 -0.2817 -0.2242 -0.5330
46027SOL    HW155691   9.646   0.003  11.895  0.1450  0.8577 -0.3589
46027SOL    HW255692   9.595   0.017  12.037 -0.0938  1.0673 -0.4647
46028SOL     OW55693   4.044  10.216   2.196 -0.6538  0.4017  0.3603
46028SOL    HW155694   4.137  10.211   2.220 -0.4155 -0.9355 -0.7211
46028SOL    HW255695   4.043  10.255   2.109 -0.9675 -0.8715 -0.2322
46029SOL     OW55696   9.566   8.302   3.612 -0.1616 -0.1074 -0.5188
46029SOL    HW155697   9.644   8.247   3.605 -1.1544 -1.7590  0.4998
46029SOL    HW255698   9.552   8.335   3.524 -0.4593 -2.9315 -1.6567
46030SOL     OW55699   7.747   9.663   0.975 -0.0125  0.2453 -1.1744
46030SOL    HW155700   7.801   9.687   0.899  1.6959  1.6970  0.3897
46030SOL    HW255701   7.793   9.589   1.015 -0.1296  0.3698 -0.8012
46031SOL     OW55702   2.468   6.137   5.818 -0.6845  0.1854  0.2312
46031SOL    HW155703   2.540   6.189   5.782 -0.4485 -0.7900 -0.7329
46031SOL    HW255704   2.510   6.074   5.877 -0.8070 -0.0366  0.0806
46032SOL     OW55705   7.857   0.034   3.326  0.4521  0.5217  0.1341
46032SOL    HW155706   7.857   0.127   3.350  1.4800  0.8259 -0.9213
46032SOL    HW255707   7.942   0.002   3.357  0.3939  0.1039 -0.1337
46033SOL     OW55708  12.045  10.165   5.916 -0.0580  0.2824  0.1987
46033SOL    HW155709  12.080  10.216   5.843 -1.0276  1.6473  0.6576
46033SOL    HW255710  12.011  10.085   5.875  0.5241  0.4585 -0.6663
46034SOL     OW55711   6.117   3.874  10.497  0.4910  0.2048 -0.4918
46034SOL    HW155712   6.073   3.845  10.577  0.1050  0.1541 -0.7160
46034SOL    HW255713   6.045   3.905  10.441  0.7872  0.5406 -0.6913
46035SOL     OW55714   6.790  12.177  14.008  0.2222 -0.2503  0.3995
46035SOL    HW155715   6.773  12.207  13.918 -1.6007  2.3857  1.5226
46035SOL    HW255716   6.744  12.093  14.014 -0.5222  0.0442 -0.8325
46036SOL     OW55717   8.182   7.155   1.962 -0.3896  0.2625  0.1511
46036SOL    HW155718   8.262   7.181   2.008 -0.9174 -0.6443  1.6492
46036SOL    HW255719   8.196   7.184   1.872  1.6430  0.0784  0.3594
46037SOL     OW55720   8.097   2.065   8.698  0.2273 -0.0406 -0.2434
46037SOL    HW155721   8.107   2.079   8.604 -0.7732  0.4712 -0.2867
46037SOL    HW255722   8.186   2.075   8.733  0.8445 -1.5597 -1.2725
46038SOL     OW55723  11.628  10.371   1.249 -0.0767 -0.4182  0.0297
46038SOL    HW155724  11.557  10.433   1.266  0.2216  0.3276 -1.3210
46038SOL    HW255725  11.614  10.301   1.313 -1.6653  0.0075  0.1981
46039SOL     OW55726   3.592  12.042   6.426 -0.3019  0.7029  0.6507
46039SOL    HW155727   3.589  11.984   6.350  0.7960  2.6036 -0.9430
46039SOL    HW255728   3.502  12.071   6.438 -0.8790 -1.2433  1.4936
46040SOL     OW55729  13.153   0.310   2.665 -0.3447  0.2294  0.2485
46040SOL    HW155730  13.187   0.395   2.693 -0.7481 -0.0146  1.5516
46040SOL    HW255731  13.103   0.330   2.585  1.0862  0.9046 -0.5291
46041SOL     OW55732   6.737  12.840   3.458  0.1977  0.8111 -0.2206
46041SOL    HW155733   6.782  12.823   3.375  1.0672  3.5641 -0.4313
46041SOL    HW255734   6.654  12.793   3.452  1.6510 -1.8030 -1.1837
46042SOL     OW55735   2.214  10.007   6.085  0.7640  0.2126 -0.1157
46042SOL    HW155736   2.256  10.040   6.005  0.4338  2.4714  0.5776
46042SOL    HW255737   2.285   9.994   6.147  0.7651  1.0153  0.0564
46043SOL     OW55738   2.467   7.030   9.196 -0.1825 -0.2279 -0.3278
46043SOL    HW155739   2.381   7.060   9.168 -0.1471 -0.5542 -0.8003
46043SOL    HW255740   2.528   7.092   9.156 -0.1327 -0.6841 -0.9653
46044SOL     OW55741   8.755   3.322   7.447 -0.1794 -0.4044 -0.0471
46044SOL    HW155742   8.737   3.228   7.439 -0.2704 -0.4979  1.0299
46044SOL    HW255743   8.669   3.363   7.448 -0.2292 -0.4987  1.3491
46045SOL     OW55744  11.211   4.997   3.305 -0.1541 -0.3220 -0.0122
46045SOL    HW155745  11.268   4.921   3.290  2.0363  1.1220  0.5885
46045SOL    HW255746  11.174   5.016   3.218  1.5315 -0.3776 -0.7879
46046SOL     OW55747   7.246  13.080   2.035  0.2155 -0.1196  0.4756
46046SOL    HW155748   7.286  13.155   2.078  0.8641 -1.2313  1.8586
46046SOL    HW255749   7.152  13.098   2.040  0.2517 -0.2624  2.5039
46047SOL     OW55750   5.109   9.664  12.324  0.8757  0.1411  0.5289
46047SOL    HW155751   5.042   9.598  12.343  1.7886 -1.4389 -1.3844
46047SOL    HW255752   5.063   9.747  12.333 -0.9714 -0.8313  0.6528
46048SOL     OW55753  11.841   7.045   0.369 -0.0160  0.3198 -0.3308
46048SOL    HW155754  11.896   7.122   0.382 -0.8515  0.9610 -0.4770
46048SOL    HW255755  11.754   7.080   0.349 -0.4613 -0.6630 -0.2182
46049SOL     OW55756   4.234   0.046   4.293 -0.2550 -0.0252  0.1958
46049SOL    HW155757   4.152  -0.004   4.286 -0.5455  0.5130 -0.3288
46049SOL    HW255758   4.252   0.075   4.204  2.4669 -3.1458 -0.4652
46050SOL     OW55759   9.816   8.525  12.128  0.5106  0.3845 -0.1763
46050SOL    HW155760   9.909   8.502  12.120 -0.0975 -2.0030 -1.3273
46050SOL    HW255761   9.789   8.484  12.210  0.5173  1.3136  0.2978
46051SOL     OW55762   0.599  12.007  13.607  0.6085  0.2052 -0.0312
46051SOL    HW155763   0.635  12.058  13.680  0.8724  0.4570 -0.3359
46051SOL    HW255764   0.637  11.919  13.618  1.8336  0.6252 -0.7080
46052SOL     OW55765   3.950   3.925   2.166 -0.0953  0.0711 -0.2254
46052SOL    HW155766   4.038   3.959   2.183 -0.0397 -0.0692 -0.2309
46052SOL    HW255767   3.918   3.898   2.251 -0.1156  0.0808 -0.2300
46053SOL     OW55768   5.686  13.957   2.569 -0.0613  0.3535 -0.3950
46053SOL    HW155769   5.769  13.937   2.613 -0.9805  2.2231  2.4731
46053SOL    HW255770   5.643  13.873   2.559  0.3664 -0.2287  2.0962
46054SOL     OW55771   4.012   2.036   8.450  0.0076 -0.1731 -0.1919
46054SOL    HW155772   4.015   1.974   8.523 -0.7713 -0.4535 -0.3857
46054SOL    HW255773   4.008   1.981   8.372 -0.4376  0.1221 -0.3794
46055SOL     OW55774   0.001  11.539   8.314 -0.3102 -0.4809 -0.1247
46055SOL    HW155775  -0.082  11.575   8.343 -0.8069 -0.4625 -1.4837
46055SOL    HW255776  -0.024  11.465   8.258  0.6049 -0.7286 -0.2196
46056SOL     OW55777   5.597   8.770   2.749 -0.3320  0.1589 -0.0529
46056SOL    HW155778   5.539   8.822   2.694 -0.5947 -1.0974 -1.0273
46056SOL    HW255779   5.543   8.697   2.779  0.6877 -0.9956 -0.9184
46057SOL     OW55780   2.634   2.136   1.512  0.0391  0.0118  0.1257
46057SOL    HW155781   2.569   2.068   1.491 -1.4674  0.7027  2.1972
46057SOL    HW255782   2.718   2.094   1.499 -0.8279 -1.5887 -0.6468
46058SOL     OW55783   2.196  11.121   3.173 -0.1764  0.5507 -0.3470
46058SOL    HW155784   2.240  11.192   3.126 -1.0178  2.0971  1.0692
46058SOL    HW255785   2.139  11.166   3.236 -1.0100 -1.3996  0.3753
46059SOL     OW55786   8.418   5.824   1.050  0.4825  1.1103  0.5241
46059SOL    HW155787   8.338   5.779   1.078  0.2165  0.4221 -1.2080
46059SOL    HW255788   8.453   5.862   1.130 -0.5407 -0.2149  1.6550
46060SOL     OW55789   1.575  11.744   8.648  0.1311  0.4133  0.0016
46060SOL    HW155790   1.520  11.743   8.727 -0.4314  1.7506 -0.3391
46060SOL    HW255791   1.617  11.830   8.650  0.9686  0.0212 -0.5854
46061SOL     OW55792   4.856   2.328   5.943  0.4473 -0.3057 -0.3864
46061SOL    HW155793   4.838   2.310   5.851  1.1707  0.6295 -0.7368
46061SOL    HW255794   4.832   2.248   5.989 -1.3852 -0.2633 -1.1867
46062SOL     OW55795   5.145   2.077   3.377  0.3462  0.1846  0.7569
46062SOL    HW155796   5.072   2.020   3.352  1.0760 -0.8245  0.8420
46062SOL    HW255797   5.131   2.157   3.327  0.4017 -0.8503 -1.0148
46063SOL     OW55798   2.614  12.250  10.800  0.0270 -0.0395  0.1525
46063SOL    HW155799   2.616  12.256  10.896 -2.5754  0.9191  0.2255
46063SOL    HW255800   2.524  12.226  10.780  0.2571  0.7970 -2.1142
46064SOL     OW55801   9.028   8.191   9.886  0.4181  0.1596  0.1638
46064SOL    HW155802   9.118   8.200   9.856  1.1452 -0.3236  2.0606
46064SOL    HW255803   8.989   8.126   9.827  1.6727 -0.5109  0.0397
46065SOL     OW55804   0.074  11.503  13.544 -0.3970 -0.1518  0.2453
46065SOL    HW155805   0.015  11.471  13.612 -2.4084  2.3254 -0.1760
46065SOL    HW255806   0.133  11.563  13.590 -0.2259 -0.2762  0.1870
46066SOL     OW55807   4.477   5.911   5.466  0.3978 -0.1782 -0.2549
46066SOL    HW155808   4.503   5.898   5.374  0.9636 -0.9143 -0.0048
46066SOL    HW255809   4.508   5.999   5.487 -0.5891  0.3733 -1.0447
46067SOL     OW55810   4.562   0.432   0.008 -0.2849  0.2782  0.1568
46067SOL    HW155811   4.475   0.415  -0.028  0.2839 -1.5457 -0.4404
46067SOL    HW255812   4.602   0.493  -0.054 -0.4575 -0.3739 -0.6152
46068SOL     OW55813   6.512   6.343   5.029 -0.5454  0.0648 -0.2515
46068SOL    HW155814   6.451   6.343   4.955 -1.7040  0.7218  0.6737
46068SOL    HW255815   6.482   6.415   5.085  1.0865  0.4040  0.2428
46069SOL     OW55816  12.647   0.440   8.146  0.5057 -0.1409  0.3034
46069SOL    HW155817  12.709   0.375   8.178  1.0620 -0.0886 -0.6185
46069SOL    HW255818  12.605   0.398   8.070 -0.5865 -0.1692  0.8982
46070SOL     OW55819  10.090   5.208   5.970  0.2909  0.3617 -0.2607
46070SOL    HW155820  10.180   5.180   5.956  0.6082  1.4333 -0.4604
46070SOL    HW255821  10.037   5.137   5.933  1.0178 -0.7273  0.7256
46071SOL     OW55822   3.716  13.161  10.155 -0.0088 -0.2803  0.1420
46071SOL    HW155823   3.800  13.166  10.111 -0.5351  1.0384 -0.7917
46071SOL    HW255824   3.713  13.073  10.194  1.1174 -0.9157 -1.1557
46072SOL     OW55825   2.755   9.464  13.509  0.1454  0.2889  0.5064
46072SOL    HW155826   2.754   9.379  13.466 -0.7521  0.6316 -0.1749
46072SOL    HW255827   2.736   9.527  13.439 -0.5460  0.9276  1.2471
46073SOL     OW55828   2.723   4.833  13.678 -0.1040 -0.6824 -0.2511
46073SOL    HW155829   2.633   4.862  13.661 -0.2764 -1.3354 -0.4795
46073SOL    HW255830   2.778   4.899  13.636 -0.4395  0.3508  0.8468
46074SOL     OW55831   2.166   6.646   2.351 -0.0903  0.0994  0.6715
46074SOL    HW155832   2.105   6.719   2.352  0.8729  0.9274  1.2346
46074SOL    HW255833   2.113   6.569   2.371 -0.9181  0.8107  1.2452
46075SOL     OW55834  13.331   7.019   0.110  0.1164  0.9310  0.5208
46075SOL    HW155835  13.242   7.027   0.146  0.2429 -1.9840  1.7825
46075SOL    HW255836  13.371   6.949   0.160  2.2728  0.3791 -1.7540
46076SOL     OW55837   9.572   2.742   9.581  0.0792  0.3101 -0.0480
46076SOL    HW155838   9.518   2.693   9.643  1.8042 -0.6106  0.7915
46076SOL    HW255839   9.575   2.831   9.617 -0.0104  0.1090  0.4636
46077SOL     OW55840   1.551  11.198  11.342 -0.3854 -0.6155  0.3608
46077SOL    HW155841   1.472  11.245  11.315 -1.4182 -2.3261  0.2672
46077SOL    HW255842   1.604  11.264  11.387 -1.3677  0.8313 -0.5109
46078SOL     OW55843   4.902   4.773   4.157 -0.0044 -0.9127 -0.3792
46078SOL    HW155844   4.828   4.718   4.131 -1.8945  1.0550  0.4747
46078SOL    HW255845   4.864   4.860   4.168  2.5328  0.2614 -0.1751
46079SOL     OW55846  13.642  12.515   5.370  0.2451  0.3320  0.1936
46079SOL    HW155847  13.617  12.548   5.284 -1.6360 -0.0298  0.5761
46079SOL    HW255848  13.722  12.465   5.353  0.5827  1.2597 -1.1316
46080SOL     OW55849  11.960   4.517   3.212  0.0136 -0.2482  0.0626
46080SOL    HW155850  11.941   4.427   3.187  0.9124  0.0212 -1.7138
46080SOL    HW255851  12.034   4.543   3.157 -0.9038  1.9204 -0.2698
46081SOL     OW55852   1.272   5.268   4.223  0.0195  0.4263  0.2350
46081SOL    HW155853   1.327   5.196   4.253 -1.6926 -0.3199  1.7649
46081SOL    HW255854   1.325   5.346   4.238  1.6709 -0.4334 -0.8878
46082SOL     OW55855  11.459  13.460   1.920 -0.2724  0.6089 -0.1865
46082SOL    HW155856  11.537  13.407   1.906  1.0154  1.7543  1.9583
46082SOL    HW255857  11.409  13.452   1.839  2.2365  0.1165 -1.8109
46083SOL     OW55858   9.344   1.963   3.303 -0.2604 -0.4003 -0.5556
46083SOL    HW155859   9.346   1.908   3.225  0.0490  0.1176 -0.9181
46083SOL    HW255860   9.283   1.919   3.362  1.7024 -2.3959  0.0973
46084SOL     OW55861   2.546   5.959   9.162 -0.3700  0.2698 -0.0449
46084SOL    HW155862   2.612   6.018   9.127 -0.1821  0.2151  0.2160
46084SOL    HW255863   2.474   6.016   9.189  0.0081  0.4263  0.6496
46085SOL     OW55864   4.867   2.310   9.385  0.0193 -0.0701  0.1648
46085SOL    HW155865   4.959   2.286   9.374  0.3885  0.6002  1.5362
46085SOL    HW255866   4.824   2.229   9.410  0.1365 -0.4832 -0.9195
46086SOL     OW55867   3.300   1.693   3.754  0.1304  0.0080  1.0822
46086SOL    HW155868   3.388   1.704   3.719 -0.2514  2.6772  0.7603
46086SOL    HW255869   3.245   1.676   3.678  0.0787  0.5020  1.0034
46087SOL     OW55870   1.911  10.996   2.768  0.0773  0.1593 -0.2595
46087SOL    HW155871   2.006  10.987   2.762  0.0995 -0.4114  0.8065
46087SOL    HW255872   1.896  11.049   2.846 -0.4690  0.6090 -0.6629
46088SOL     OW55873   2.312  13.355   7.929  0.1392  0.5266 -0.0518
46088SOL    HW155874   2.275  13.268   7.911 -1.6525  1.1514  0.3984
46088SOL    HW255875   2.250  13.395   7.990  0.3894  2.4890 -1.0211
46089SOL     OW55876   8.904  12.184   5.325  0.4242 -0.2366  0.5985
46089SOL    HW155877   8.991  12.166   5.360  0.6883 -1.3165 -0.5305
46089SOL    HW255878   8.909  12.159   5.233 -0.1110  2.9067 -0.3952
46090SOL     OW55879   9.616  10.132   2.010  0.1606 -0.7022 -0.2301
46090SOL    HW155880   9.661  10.104   1.930  0.3492 -0.3983 -0.2309
46090SOL    HW255881   9.534  10.081   2.010  0.2222 -0.8057 -0.5442
46091SOL     OW55882   3.379  13.135   5.148 -0.1133 -0.4043  0.4004
46091SOL    HW155883   3.373  13.192   5.225 -0.1881 -0.7553  0.6567
46091SOL    HW255884   3.347  13.189   5.075  0.3771  0.0764  0.5338
46092SOL     OW55885   3.624  11.855   2.783  0.6220 -0.3674  0.5045
46092SOL    HW155886   3.572  11.934   2.769  0.3267 -1.1731 -4.4694
46092SOL    HW255887   3.712  11.878   2.754  1.1225 -1.2869  1.2128
46093SOL     OW55888   8.117  12.370   7.319 -0.0486  0.0817 -0.5332
46093SOL    HW155889   8.073  12.384   7.235 -0.3431  1.6587 -0.1499
46093SOL    HW255890   8.055  12.401   7.384  0.4881 -0.3961  0.2221
46094SOL     OW55891   1.892   1.582   2.847 -0.3077 -0.9004 -0.2808
46094SOL    HW155892   1.951   1.532   2.903 -1.6074 -1.0759  1.0020
46094SOL    HW255893   1.853   1.517   2.788 -0.1481 -0.9768 -0.3028
46095SOL     OW55894   3.354   0.204   1.286 -0.2658  0.3163  0.6168
46095SOL    HW155895   3.405   0.124   1.303 -0.8618 -0.3620 -0.6719
46095SOL    HW255896   3.263   0.175   1.286 -0.4589  0.8968 -0.3912
46096SOL     OW55897  13.725   5.601  11.870 -0.1898  0.2979 -0.0916
46096SOL    HW155898  13.702   5.694  11.865 -0.6935  0.1375 -0.8366
46096SOL    HW255899  13.673   5.568  11.944 -1.2395  0.2705 -0.8175
46097SOL     OW55900  11.674   9.568   7.101 -0.4741 -0.3084  0.0872
46097SOL    HW155901  11.717   9.570   7.187  0.7176 -1.0760 -0.4709
46097SOL    HW255902  11.720   9.500   7.053 -2.3441 -1.1932 -0.5479
46098SOL     OW55903   1.276  13.960   5.219  0.8346 -0.2949  0.3064
46098SOL    HW155904   1.294  13.866   5.207 -0.7720 -0.7671  1.3583
46098SOL    HW255905   1.292  13.976   5.312  1.1826  0.5157  0.1170
46099SOL     OW55906   0.065   8.502   9.088 -0.3918 -0.9245 -0.0926
46099SOL    HW155907   0.004   8.564   9.048 -1.3796 -1.9134 -0.1981
46099SOL    HW255908   0.069   8.527   9.180  2.0853  1.5278 -0.7604
46100SOL     OW55909   8.731   7.766   3.928  0.7103 -0.0559  0.1192
46100SOL    HW155910   8.736   7.847   3.879  0.5245  0.3588  0.7661
46100SOL    HW255911   8.735   7.793   4.020  0.4816 -0.7637  0.3492
46101SOL     OW55912   9.458   2.189  11.565 -0.0547 -0.3597 -0.8011
46101SOL    HW155913   9.497   2.243  11.634 -0.3188  0.4632 -1.2833
46101SOL    HW255914   9.392   2.246  11.525 -0.8731 -1.3092 -0.8224
46102SOL     OW55915  11.279   6.696  13.486  0.4770  0.7330 -0.6329
46102SOL    HW155916  11.290   6.647  13.405 -1.4181  0.3508 -0.7034
46102SOL    HW255917  11.325   6.779  13.471  2.3385 -0.3225 -1.1096
46103SOL     OW55918   2.541   7.174  12.290  0.6105  0.3661  1.0180
46103SOL    HW155919   2.627   7.196  12.326  2.9779 -0.9147 -3.1099
46103SOL    HW255920   2.517   7.249  12.236  1.3763 -0.9430 -1.2595
46104SOL     OW55921   8.901   2.136   5.309 -0.3125 -0.0732  0.0426
46104SOL    HW155922   8.817   2.149   5.266 -1.1359 -1.1863  1.2306
46104SOL    HW255923   8.927   2.223   5.339 -1.5585  0.1289  0.5720
46105SOL     OW55924  10.368   6.063   3.486 -0.7832 -0.7458 -0.0199
46105SOL    HW155925  10.403   5.977   3.507  0.6706 -0.9449 -2.7461
46105SOL    HW255926  10.279   6.046   3.456 -0.2022 -1.4885 -1.4129
46106SOL     OW55927   8.635   5.768   3.024  0.0758 -0.4043 -0.0994
46106SOL    HW155928   8.602   5.695   3.076  0.2959 -0.7077 -0.3797
46106SOL    HW255929   8.567   5.785   2.959 -0.5709  0.5126  0.7810
46107SOL     OW55930   0.794   9.747   1.236 -0.0199  0.0554  0.0196
46107SOL    HW155931   0.749   9.667   1.207 -0.1307  0.5013 -1.0831
46107SOL    HW255932   0.885   9.720   1.245 -0.4923 -0.9645  2.6800
46108SOL     OW55933   2.458   4.872   7.316  0.5178  0.4850 -0.6531
46108SOL    HW155934   2.398   4.944   7.332  0.9488  0.6305  0.4062
46108SOL    HW255935   2.533   4.890   7.373  1.4164  0.1309 -1.6926
46109SOL     OW55936   5.179   6.345  10.139 -0.3671  0.1120  0.2844
46109SOL    HW155937   5.140   6.302  10.063  1.5375 -0.3649 -0.4940
46109SOL    HW255938   5.256   6.291  10.159 -0.5767  0.4879  2.2880
46110SOL     OW55939   4.613  13.476   4.378  0.9797  0.7684  0.6308
46110SOL    HW155940   4.529  13.441   4.348  2.0049  0.1366 -1.7449
46110SOL    HW255941   4.600  13.571   4.379  0.1366  0.6594  0.6352
46111SOL     OW55942   6.242  12.051   8.399 -0.4159 -0.7092  0.6655
46111SOL    HW155943   6.289  12.013   8.325 -2.3337  3.1693 -2.9286
46111SOL    HW255944   6.161  12.001   8.405  0.1378 -1.6067  0.7779
46112SOL     OW55945  11.147   7.620   6.120 -0.0306 -0.1934 -0.0338
46112SOL    HW155946  11.227   7.668   6.099 -0.1841  0.7527  1.3614
46112SOL    HW255947  11.169   7.528   6.106  0.6099  0.1872 -1.7451
46113SOL     OW55948   2.761  12.286   5.210  0.3562  0.4817 -0.7560
46113SOL    HW155949   2.853  12.280   5.237  0.1615  1.6036  0.2420
46113SOL    HW255950   2.740  12.380   5.216  0.1541  0.8568 -4.5136
46114SOL     OW55951   5.227  13.129  12.926  0.5006  0.5103  0.1484
46114SOL    HW155952   5.178  13.199  12.883  1.2571 -0.2045 -1.9767
46114SOL    HW255953   5.162  13.086  12.982 -0.6349  1.2209 -0.5763
46115SOL     OW55954   4.907   5.683  11.333  0.2940  0.3834  0.0851
46115SOL    HW155955   4.966   5.636  11.275  0.7058  0.8058  0.1606
46115SOL    HW255956   4.882   5.618  11.399 -1.9974 -0.8336 -1.7805
46116SOL     OW55957   9.535   9.543  13.196 -0.2618 -0.6412 -0.2392
46116SOL    HW155958   9.448   9.535  13.236 -0.7994  1.1228 -0.9137
46116SOL    HW255959   9.553   9.637  13.199  1.5656 -0.9579 -0.2810
46117SOL     OW55960  10.279  13.050  12.021  0.4314 -0.1589 -0.4754
46117SOL    HW155961  10.245  12.975  11.973 -0.4418  0.2939 -0.5772
46117SOL    HW255962  10.309  13.111  11.953  0.2142  0.0093 -0.4239
46118SOL     OW55963   9.660  12.116  13.405  0.6907  0.3079  0.6009
46118SOL    HW155964   9.694  12.029  13.425 -0.9924 -1.0998 -2.0489
46118SOL    HW255965   9.583  12.099  13.350 -1.7234  3.4043  2.7207
46119SOL     OW55966  13.627   7.937  11.320 -0.2241 -0.1855  0.5278
46119SOL    HW155967  13.688   7.883  11.370  0.3762  0.5399  0.5974
46119SOL    HW255968  13.679   7.969  11.246 -0.7161 -0.1282  0.2049
46120SOL     OW55969   5.173   6.904   2.932 -0.3283 -0.2057  0.0686
46120SOL    HW155970   5.183   6.840   2.861  1.1445  1.6837 -1.5217
46120SOL    HW255971   5.135   6.981   2.890  0.4422  0.9120  1.3429
46121SOL     OW55972  12.478   1.667   1.809  0.7541  0.6153 -0.4111
46121SOL    HW155973  12.496   1.757   1.834  0.2420  0.5150  0.3621
46121SOL    HW255974  12.413   1.674   1.739 -2.0087  0.8386  1.9638
46122SOL     OW55975   6.982  12.031  13.442 -0.4929 -0.5535  0.1816
46122SOL    HW155976   6.893  12.066  13.437  0.1884  1.1518 -1.4022
46122SOL    HW255977   6.978  11.963  13.509 -2.8523 -0.1586  0.5206
46123SOL     OW55978  10.672   8.193   4.571  0.3912  0.4833  0.2839
46123SOL    HW155979  10.716   8.276   4.555 -0.6761  0.9371 -0.3513
46123SOL    HW255980  10.588   8.217   4.610 -0.9227 -0.1332 -2.0091
46124SOL     OW55981   2.670   0.406   8.291 -0.3792  0.0295 -0.0671
46124SOL    HW155982   2.721   0.486   8.279 -1.8021  0.8036 -1.5138
46124SOL    HW255983   2.588   0.424   8.243 -0.9584 -2.0815  0.0637
46125SOL     OW55984   5.739   9.297   7.356  0.4653  0.1482  0.1094
46125SOL    HW155985   5.649   9.268   7.338  0.4757  0.9735 -1.3679
46125SOL    HW255986   5.794   9.223   7.331  0.4628  1.1419 -3.2686
46126SOL     OW55987   9.749  11.970   7.020 -0.3328  0.3029  0.3316
46126SOL    HW155988   9.805  11.957   7.097 -0.8811 -1.9133  0.4316
46126SOL    HW255989   9.770  11.896   6.963 -2.8821 -0.4301  0.2309
46127SOL     OW55990   1.624   9.242   6.190 -0.3291  0.4981 -0.1200
46127SOL    HW155991   1.616   9.337   6.186 -1.0469  0.4185 -0.9981
46127SOL    HW255992   1.669   9.218   6.109 -0.4156  0.0725 -0.0484
46128SOL     OW55993  10.463   5.058   5.690 -0.6708  0.0520 -0.0546
46128SOL    HW155994  10.507   5.001   5.754 -1.0196  0.4285  0.5237
46128SOL    HW255995  10.401   5.000   5.646 -0.8681 -0.0681  0.3763
46129SOL     OW55996   3.661  11.588   0.405  0.3034 -0.2496  1.1587
46129SOL    HW155997   3.737  11.566   0.459  0.6672 -1.1923  0.2922
46129SOL    HW255998   3.644  11.680   0.425  3.3592  0.8491 -0.6354
46130SOL     OW55999   9.041   3.448   0.102  0.3410  0.2036 -0.3628
46130SOL    HW156000   9.125   3.434   0.059 -0.4402 -1.2391 -1.4866
46130SOL    HW256001   9.059   3.435   0.195  1.2037 -0.8726 -0.6642
46131SOL     OW56002  11.325   7.697   1.853 -0.9843 -0.2793  0.4770
46131SOL    HW156003  11.364   7.784   1.846 -2.8158  0.5425 -0.2156
46131SOL    HW256004  11.269   7.703   1.931 -1.1543 -0.8215  0.3988
46132SOL     OW56005  13.284   6.000  12.843  0.2401  0.3019  0.4685
46132SOL    HW156006  13.343   5.959  12.907 -1.4232 -0.5786  1.4962
46132SOL    HW256007  13.312   5.965  12.758  0.5889 -0.8562  1.0467
46133SOL     OW56008   3.579  11.289  13.035  0.1517 -0.0961  0.6053
46133SOL    HW156009   3.535  11.261  13.115 -0.0336  1.7602  1.1847
46133SOL    HW256010   3.543  11.376  13.016 -0.7545 -0.9672 -2.2182
46134SOL     OW56011   8.014   8.892  11.075  0.0003 -0.1033  0.5152
46134SOL    HW156012   7.938   8.948  11.090 -1.2296 -1.2213 -1.2237
46134SOL    HW256013   8.060   8.935  11.003 -1.4299 -1.6736 -1.4440
46135SOL     OW56014   4.563  13.390   1.084 -0.3148  0.5053  0.2038
46135SOL    HW156015   4.521  13.456   1.139 -1.1054  0.4020 -0.2507
46135SOL    HW256016   4.494  13.363   1.023  0.2074 -0.2165 -0.0803
46136SOL     OW56017  10.936  13.933   1.436 -0.0567 -0.1456 -0.2892
46136SOL    HW156018  10.936  13.940   1.532 -1.1685  1.0623 -0.3454
46136SOL    HW256019  10.913  13.842   1.418  0.1206 -0.3688  0.5889
46137SOL     OW56020   4.632  11.024  12.146  0.3797  0.6358  0.5004
46137SOL    HW156021   4.554  11.010  12.092  1.6464 -0.9581 -1.0188
46137SOL    HW256022   4.599  11.066  12.226 -2.0822 -0.4515  0.1264
46138SOL     OW56023   4.955   9.485  11.739  0.7089  0.2727 -0.7096
46138SOL    HW156024   4.955   9.471  11.833 -4.3341 -0.4504 -0.5656
46138SOL    HW256025   5.022   9.552  11.725  0.6527  1.5027  3.5591
46139SOL     OW56026  12.592   7.726   4.300 -0.1370  0.4195 -0.6906
46139SOL    HW156027  12.559   7.764   4.382  1.7074 -0.3773  0.4862
46139SOL    HW256028  12.514   7.688   4.259 -0.7986 -1.2851  1.8924
46140SOL     OW56029   1.614   8.335   4.051  0.3307 -0.4420 -0.0768
46140SOL    HW156030   1.521   8.337   4.074  0.2916 -0.6882 -0.2087
46140SOL    HW256031   1.618   8.280   3.973  0.5741 -0.3430 -0.1339
46141SOL     OW56032   3.249  13.377   3.085  0.6934  0.2578  0.4477
46141SOL    HW156033   3.333  13.374   3.039 -0.4592 -1.4283 -1.7313
46141SOL    HW256034   3.235  13.288   3.117 -0.3088  0.4875  0.7054
46142SOL     OW56035   9.404  10.844  12.502  0.1238 -0.7315 -0.1712
46142SOL    HW156036   9.389  10.822  12.410  2.7539  0.8800 -1.1018
46142SOL    HW256037   9.495  10.821  12.517 -0.5142 -1.8731  2.3909
46143SOL     OW56038  11.340   8.328  12.600  0.2967 -0.0440 -0.9683
46143SOL    HW156039  11.265   8.302  12.545  0.7992 -1.3731 -1.0697
46143SOL    HW256040  11.391   8.386  12.545 -0.3474  0.3951 -1.1130
46144SOL     OW56041   8.742   9.678   3.809  0.3017 -0.0850 -0.4174
46144SOL    HW156042   8.797   9.731   3.752  0.7999  1.6661  1.5811
46144SOL    HW256043   8.689   9.742   3.858 -0.9826 -1.5639  0.2267
46145SOL     OW56044   5.731   1.922   2.814 -0.5203 -0.5707 -0.5019
46145SOL    HW156045   5.719   1.828   2.828  2.0796 -0.6664  1.9066
46145SOL    HW256046   5.760   1.930   2.723  2.1759 -2.5380  0.0680
46146SOL     OW56047   4.581   0.663   2.566  0.5271 -0.5099 -0.0193
46146SOL    HW156048   4.503   0.657   2.511  1.2798 -1.3847 -1.0386
46146SOL    HW256049   4.614   0.751   2.552 -0.4142 -0.0420  0.6310
46147SOL     OW56050  10.202   0.812   0.872  0.4428  0.2916 -0.2680
46147SOL    HW156051  10.268   0.805   0.802 -0.3429 -0.1109 -0.9951
46147SOL    HW256052  10.203   0.726   0.914 -0.7327 -0.2752 -1.3374
46148SOL     OW56053   2.079   9.986   3.563 -0.1512  0.0407 -0.5544
46148SOL    HW156054   2.091   9.913   3.501  0.5057 -0.0787 -0.2932
46148SOL    HW256055   2.107  10.063   3.515 -0.5574  0.0869 -0.7264
46149SOL     OW56056  11.394  10.825  10.898  0.1322  0.0127 -0.3395
46149SOL    HW156057  11.380  10.815  10.992 -1.0567  1.3675 -0.3323
46149SOL    HW256058  11.317  10.873  10.867 -0.6174 -2.3125 -2.4161
46150SOL     OW56059  10.694   5.191   7.624 -0.1849 -0.4513  0.0227
46150SOL    HW156060  10.649   5.111   7.652  0.1732 -0.2835  1.1454
46150SOL    HW256061  10.644   5.262   7.665 -2.1725  0.1847 -3.1403
46151SOL     OW56062  11.922   7.881   7.603 -0.2054  0.2514  0.5200
46151SOL    HW156063  11.831   7.889   7.630 -0.8232 -0.2108 -1.3277
46151SOL    HW256064  11.923   7.909   7.512  1.3001 -0.7962  0.1758
46152SOL     OW56065   8.554   5.717  11.755 -0.0319  0.4154  0.0266
46152SOL    HW156066   8.537   5.750  11.667 -1.0718 -0.8127 -0.2653
46152SOL    HW256067   8.543   5.793  11.812 -3.1377  0.5040 -0.5373
46153SOL     OW56068   3.067   8.362   3.900 -0.3791  0.3525  0.2245
46153SOL    HW156069   3.095   8.452   3.917 -1.2057  0.5662  0.5084
46153SOL    HW256070   3.082   8.317   3.983  3.2273 -0.6688 -0.8156
46154SOL     OW56071   4.113   5.318   3.037  0.6463  0.0670  0.5947
46154SOL    HW156072   4.146   5.407   3.051 -1.9276  1.1938  0.1996
46154SOL    HW256073   4.056   5.302   3.113  0.1740 -0.7580  0.0828
46155SOL     OW56074  10.726   5.910   0.520 -0.6716  0.4048 -0.4169
46155SOL    HW156075  10.728   5.996   0.476 -0.7940  0.5957 -0.0565
46155SOL    HW256076  10.719   5.847   0.448  0.2697  0.6461 -0.7315
46156SOL     OW56077   9.779   2.363   0.100  0.1571 -0.0010  0.0575
46156SOL    HW156078   9.861   2.413   0.105 -0.7355  1.3978  1.9793
46156SOL    HW256079   9.731   2.403   0.027  0.4148  0.4293  0.1201
46157SOL     OW56080   9.339   0.241   9.982 -0.1219  0.1402 -0.1290
46157SOL    HW156081   9.335   0.190   9.901  0.5160 -1.2606  0.6844
46157SOL    HW256082   9.263   0.211  10.032 -0.5405  1.0382 -0.2076
46158SOL     OW56083  10.237   0.122   1.020 -0.1826  0.6763 -0.5270
46158SOL    HW156084  10.204   0.043   1.063 -0.9849 -0.9974 -3.8563
46158SOL    HW256085  10.328   0.129   1.049 -0.1710 -1.3421  0.0619
46159SOL     OW56086  10.517  10.846  13.393  0.3544 -0.3263  0.2346
46159SOL    HW156087  10.458  10.781  13.431  1.3748 -1.6580 -0.3729
46159SOL    HW256088  10.602  10.802  13.389  0.9855  0.9068 -0.5783
46160SOL     OW56089   9.749   6.971  12.870 -0.2727  0.5685  0.0986
46160SOL    HW156090   9.696   6.907  12.918 -0.7377  0.7527 -0.1638
46160SOL    HW256091   9.756   6.934  12.782  0.8586  0.0668  0.3824
46161SOL     OW56092   9.735  11.525   1.446  0.2478 -0.3294 -0.3362
46161SOL    HW156093   9.716  11.460   1.378 -3.6816 -0.4363  0.6524
46161SOL    HW256094   9.762  11.473   1.522  0.6040 -0.5133 -0.5838
46162SOL     OW56095  11.668   7.188  14.018 -0.3342 -0.9974 -0.3097
46162SOL    HW156096  11.615   7.156  13.945  0.2048  1.1602 -1.7221
46162SOL    HW256097  11.758   7.163  13.995  0.0735  1.1766 -1.3477
46163SOL     OW56098   8.687   6.971   0.865 -0.8184  0.0077  0.2746
46163SOL    HW156099   8.622   6.904   0.847  0.1847 -1.2779  1.2404
46163SOL    HW256100   8.760   6.924   0.906  1.6027  1.0138 -2.4891
46164SOL     OW56101   2.408  13.307   4.622 -0.4273 -0.0674 -0.1332
46164SOL    HW156102   2.430  13.372   4.689  2.1128  0.0238 -0.9809
46164SOL    HW256103   2.486  13.301   4.568 -1.6607 -1.7190 -1.8290
46165SOL     OW56104   3.308   1.749   6.334 -0.0648  0.3755 -0.0500
46165SOL    HW156105   3.282   1.684   6.269  1.1687  0.6462 -0.8295
46165SOL    HW256106   3.293   1.705   6.418 -1.9782  0.1367 -0.4738
46166SOL     OW56107   8.200  12.762  14.017  0.1620  0.4711  0.1593
46166SOL    HW156108   8.260  12.753  14.091 -0.2522  0.9824  0.5700
46166SOL    HW256109   8.207  12.679  13.970  1.2549  0.5602  0.1391
46167SOL     OW56110   5.243  11.354  12.195 -0.3592  0.6284  0.1223
46167SOL    HW156111   5.149  11.351  12.215 -0.2131 -0.6182  0.7492
46167SOL    HW256112   5.253  11.303  12.115 -0.5514  3.2017 -1.6760
46168SOL     OW56113   2.251   8.619   6.422 -0.0915  0.2054  0.0803
46168SOL    HW156114   2.226   8.670   6.499 -0.2416  1.3981 -0.7398
46168SOL    HW256115   2.344   8.602   6.434 -0.3738 -0.7192  1.1337
46169SOL     OW56116   0.891   3.338  13.667 -0.4739 -0.3019  0.1532
46169SOL    HW156117   0.857   3.303  13.749 -0.7786  0.1067  0.2060
46169SOL    HW256118   0.881   3.267  13.604 -2.6306  0.1966 -0.1448
46170SOL     OW56119  11.026   7.398   6.617  0.5002 -0.3149  0.0224
46170SOL    HW156120  10.943   7.383   6.570 -0.0694 -2.1949  1.4720
46170SOL    HW256121  11.046   7.313   6.657  2.3543  0.5018  0.9555
46171SOL     OW56122   0.169   4.647  12.158 -0.3947 -1.1646 -0.1306
46171SOL    HW156123   0.178   4.556  12.128 -1.3982 -1.0535 -0.7770
46171SOL    HW256124   0.237   4.656  12.226 -1.4173 -2.9179  1.1971
46172SOL     OW56125  13.187  11.573   2.645  0.7297 -0.1848 -0.1432
46172SOL    HW156126  13.124  11.555   2.575 -0.6595  0.5552  0.8670
46172SOL    HW256127  13.195  11.668   2.647  1.4828 -0.2465  0.0912
46173SOL     OW56128   9.283   0.082   6.976  0.2234  0.5836 -0.6916
46173SOL    HW156129   9.246   0.002   7.013  1.3085  0.9719  1.4064
46173SOL    HW256130   9.264   0.076   6.882  0.4879 -2.2427 -0.6684
46174SOL     OW56131  11.914   8.527  11.870  0.0564 -0.0695  0.5975
46174SOL    HW156132  11.920   8.622  11.861  0.0001 -0.0229  1.0433
46174SOL    HW256133  11.988   8.502  11.924  1.0971 -0.4986 -0.9538
46175SOL     OW56134   3.338  10.809   9.442 -0.1968 -0.6008  0.1996
46175SOL    HW156135   3.348  10.721   9.404 -1.7780  0.3199 -2.6475
46175SOL    HW256136   3.403  10.862   9.397  0.7770 -0.2638  1.9405
46176SOL     OW56137   3.301   2.074   5.003 -0.2410 -0.1920  0.1363
46176SOL    HW156138   3.340   2.113   4.925 -2.5513  1.3559 -0.3418
46176SOL    HW256139   3.328   1.982   4.999  0.9360  0.1687 -1.6462
46177SOL     OW56140   1.758  12.272  10.905 -0.2103  0.3496 -0.3051
46177SOL    HW156141   1.688  12.323  10.866  0.1529  0.4687 -0.8091
46177SOL    HW256142   1.821  12.259  10.834 -0.1102 -0.4596 -0.0856
46178SOL     OW56143   0.375   8.994  10.281 -0.1553  0.6857 -0.5518
46178SOL    HW156144   0.438   9.062  10.305  0.1924  1.2916 -2.8743
46178SOL    HW256145   0.415   8.951  10.205 -1.2483 -0.8490 -0.2928
46179SOL     OW56146   1.353   7.260  11.008  0.0429  0.3690 -0.3221
46179SOL    HW156147   1.284   7.211  10.961  0.3108  1.0773 -1.5075
46179SOL    HW256148   1.305   7.325  11.058 -0.2078  0.2299 -0.3773
46180SOL     OW56149   2.178   6.429   4.751  0.1520 -0.0245  0.2116
46180SOL    HW156150   2.135   6.370   4.813  0.9220 -0.0146  0.7691
46180SOL    HW256151   2.261   6.387   4.731 -0.3585 -0.3438 -1.3314
46181SOL     OW56152  14.043   4.061  11.522 -0.2691 -0.3208  0.6124
46181SOL    HW156153  14.026   4.099  11.609 -0.0226  1.1106  0.0683
46181SOL    HW256154  14.138   4.068  11.512 -0.3137 -0.3557  0.1695
46182SOL     OW56155  13.584   3.713   0.131  0.0555 -0.3551  0.2240
46182SOL    HW156156  13.668   3.666   0.133  0.6826  0.7541  0.3551
46182SOL    HW256157  13.601   3.795   0.178 -1.1600 -0.2038  0.4196
46183SOL     OW56158   5.462  11.359   9.242  0.3943  0.4380  0.2948
46183SOL    HW156159   5.485  11.440   9.287 -0.5581  1.3443 -0.7523
46183SOL    HW256160   5.418  11.306   9.308 -0.5282  1.5239  0.5834
46184SOL     OW56161   7.573  10.653  13.833  0.4612  0.2759 -0.2706
46184SOL    HW156162   7.591  10.577  13.777 -1.3710 -0.0281 -0.5055
46184SOL    HW256163   7.625  10.723  13.794 -0.9263  0.1370 -2.5768
46185SOL     OW56164   2.014   2.990   6.510 -0.7929  0.5231 -0.1583
46185SOL    HW156165   1.965   2.910   6.522 -2.4295  1.6067  0.7287
46185SOL    HW256166   2.048   3.012   6.597  2.1717 -0.6857 -0.8901
46186SOL     OW56167  10.627   6.958  11.634  0.0550  0.2328  0.2490
46186SOL    HW156168  10.534   6.972  11.619  0.1642 -0.2441 -0.9969
46186SOL    HW256169  10.633   6.869  11.668  0.0099  0.5092  1.0048
46187SOL     OW56170  10.592  11.941   0.628  0.0603  0.1642 -0.3555
46187SOL    HW156171  10.629  12.029   0.634 -1.4960  0.8989 -1.0113
46187SOL    HW256172  10.531  11.935   0.701 -0.1901 -0.1949 -0.5903
46188SOL     OW56173  10.196   3.220   0.791  0.0266  0.4149  0.2409
46188SOL    HW156174  10.285   3.218   0.825  0.2043  1.7228 -0.0920
46188SOL    HW256175  10.194   3.151   0.725  1.2087  1.2460 -0.7029
46189SOL     OW56176  12.895   7.555   8.642  0.0482  0.2916  0.3891
46189SOL    HW156177  12.827   7.514   8.588 -1.5166  2.3300  0.6967
46189SOL    HW256178  12.975   7.547   8.590 -0.1240 -3.0529  0.4391
46190SOL     OW56179   7.673   5.482   0.199  0.0187  0.5262 -0.3623
46190SOL    HW156180   7.729   5.558   0.183 -1.0304  1.5891  0.7898
46190SOL    HW256181   7.679   5.467   0.293  1.0736 -1.5556 -0.7071
46191SOL     OW56182  13.046  11.711  10.695  0.5450  0.1965 -0.0988
46191SOL    HW156183  13.061  11.800  10.726 -0.8424  0.1027  0.9293
46191SOL    HW256184  13.071  11.655  10.769 -1.1424 -0.1197  0.2661
46192SOL     OW56185  12.197  13.973   5.892  0.0692  0.1128  0.4969
46192SOL    HW156186  12.132  13.905   5.878  0.9657 -0.4132 -1.5098
46192SOL    HW256187  12.254  13.968   5.815  0.7129  2.5281  0.7251
46193SOL     OW56188   6.523  13.915   9.085 -0.1266  0.2154 -0.1922
46193SOL    HW156189   6.517  13.977   9.012 -0.9371  0.8359  0.3892
46193SOL    HW256190   6.443  13.929   9.135 -1.4251 -2.8269 -1.2246
46194SOL     OW56191  12.068   9.139  10.140 -0.1558  0.0511 -0.0407
46194SOL    HW156192  12.043   9.229  10.160 -0.4333 -0.3689  1.6545
46194SOL    HW256193  12.114   9.109  10.219 -0.8606 -1.5826 -0.2172
46195SOL     OW56194  12.070   3.586   0.044  0.0868  0.7976 -0.1363
46195SOL    HW156195  12.124   3.640   0.102 -0.1892  2.3185 -1.2169
46195SOL    HW256196  12.088   3.620  -0.044 -0.7903 -0.2984 -0.7687
46196SOL     OW56197   5.284  13.675   2.739  0.7020 -0.2348 -0.0063
46196SOL    HW156198   5.206  13.621   2.732  0.2262  0.3161  0.8191
46196SOL    HW256199   5.336  13.634   2.808 -1.3500  2.2413  3.3614
46197SOL     OW56200  12.419   3.653   4.176 -0.2536 -0.2493  0.0984
46197SOL    HW156201  12.498   3.708   4.174 -0.2300 -0.2538  0.7306
46197SOL    HW256202  12.349   3.711   4.147 -0.2150  0.0941  0.6852
46198SOL     OW56203  13.207   5.762  11.669  0.0758  0.4451  0.1831
46198SOL    HW156204  13.149   5.837  11.681 -0.2550  0.0260  1.2438
46198SOL    HW256205  13.148   5.687  11.658  0.3906  0.3866 -1.3701
46199SOL     OW56206   9.411   3.257   1.613 -0.3459 -0.3880 -0.2649
46199SOL    HW156207   9.394   3.229   1.524  0.6065 -1.4508 -0.1387
46199SOL    HW256208   9.351   3.206   1.667  0.3891 -1.1541 -0.1543
46200SOL     OW56209   3.896   3.367   1.331 -0.4986  0.3096 -0.1320
46200SOL    HW156210   3.882   3.275   1.307  2.3819 -0.6075  1.2479
46200SOL    HW256211   3.834   3.383   1.402 -0.8816 -0.6246 -0.2382
46201SOL     OW56212   1.141   4.973  12.202  0.0954  0.3703  0.2188
46201SOL    HW156213   1.227   4.988  12.162  0.7999 -0.9456  1.1660
46201SOL    HW256214   1.157   4.980  12.296 -0.1164 -2.8419  0.6156
46202SOL     OW56215  13.348   4.580   9.192  0.2466  0.2155  0.1586
46202SOL    HW156216  13.378   4.670   9.182 -2.0976  1.4866  3.2015
46202SOL    HW256217  13.428   4.529   9.207  1.4668  2.0556  0.1676
46203SOL     OW56218   8.067   8.776   2.716 -0.2470  0.1762  0.4134
46203SOL    HW156219   8.147   8.723   2.706  0.3823  0.7498  2.0551
46203SOL    HW256220   8.022   8.767   2.632  1.5639 -0.1388 -0.5789
46204SOL     OW56221   8.368   3.901   3.741 -1.0639 -0.3338  0.1187
46204SOL    HW156222   8.352   3.813   3.774  1.2045 -1.8462 -2.4252
46204SOL    HW256223   8.458   3.921   3.767 -0.2596 -0.3647 -2.4554
46205SOL     OW56224  10.987   3.994   9.315 -0.1895 -0.1310 -0.0486
46205SOL    HW156225  11.010   4.031   9.400  2.1324 -1.4586 -0.0134
46205SOL    HW256226  10.981   3.900   9.331 -1.2816 -0.2649 -1.0825
46206SOL     OW56227  12.256   8.385  11.406  0.1596  0.1592 -0.1161
46206SOL    HW156228  12.240   8.347  11.492 -1.0949 -0.5421 -0.6255
46206SOL    HW256229  12.170   8.413  11.376  0.8072  1.7636 -0.5329
46207SOL     OW56230   7.494  11.801  12.319  0.4819 -0.0846  0.4345
46207SOL    HW156231   7.571  11.814  12.375  1.5005 -0.0425 -0.9354
46207SOL    HW256232   7.510  11.858  12.244 -1.2561  0.4810  0.4487
46208SOL     OW56233   8.119  13.788   6.374  0.2517 -0.2873 -0.3975
46208SOL    HW156234   8.195  13.811   6.320 -0.7677  0.9390 -1.3901
46208SOL    HW256235   8.102  13.696   6.355  2.0005 -0.8630  0.5431
46209SOL     OW56236  13.750  13.444  12.207  0.1838 -0.2941 -0.0638
46209SOL    HW156237  13.799  13.389  12.268  0.3312 -1.1771 -0.9413
46209SOL    HW256238  13.673  13.472  12.255 -0.8986 -2.8849 -0.1703
46210SOL     OW56239   6.734   3.773   0.557 -0.6012  0.3259 -0.4039
46210SOL    HW156240   6.729   3.851   0.612  0.0983 -1.0095  1.6533
46210SOL    HW256241   6.642   3.751   0.540 -0.8124  1.4062 -0.7760
46211SOL     OW56242   4.393  14.089   1.386 -0.6013 -0.5348  0.0120
46211SOL    HW156243   4.313  14.043   1.362 -0.7505 -0.2239 -0.0988
46211SOL    HW256244   4.363  14.172   1.424 -0.3345  0.0835 -1.0603
46212SOL     OW56245  11.889  12.996  13.451  0.3423  0.5758 -0.0553
46212SOL    HW156246  11.939  13.077  13.441 -0.6484  1.5537  2.1859
46212SOL    HW256247  11.873  12.967  13.361 -0.4305  3.5998 -1.0244
46213SOL     OW56248   9.637   7.253   0.745 -0.1325  0.6593 -0.4993
46213SOL    HW156249   9.586   7.195   0.802  1.6621 -1.8623 -1.2674
46213SOL    HW256250   9.574   7.288   0.683 -1.4567  0.3457  0.6173
46214SOL     OW56251  12.106   9.482  12.122  0.5712  0.1570  0.0111
46214SOL    HW156252  12.143   9.570  12.129  0.1521  0.4248 -0.9600
46214SOL    HW256253  12.110   9.447  12.211  1.7377  0.7471  0.2116
46215SOL     OW56254   7.328   0.364   6.171  0.0709  0.1661 -0.4277
46215SOL    HW156255   7.260   0.432   6.174 -0.4562 -0.3683  0.0278
46215SOL    HW256256   7.351   0.350   6.263 -1.4890 -1.8982 -0.2848
46216SOL     OW56257   8.342  11.686  12.803 -0.2782 -0.1931 -0.2213
46216SOL    HW156258   8.399  11.704  12.729  0.0018  3.1153  0.6664
46216SOL    HW256259   8.255  11.714  12.774 -0.7042 -1.3207 -0.1207
46217SOL     OW56260   0.916   5.290   4.597 -0.1036  0.2543  0.2818
46217SOL    HW156261   0.956   5.217   4.645 -1.3969 -0.4822  0.3034
46217SOL    HW256262   0.950   5.280   4.508  0.4002  0.1522  0.4778
46218SOL     OW56263   9.246   6.517   2.535 -0.2819 -0.2362 -0.2052
46218SOL    HW156264   9.158   6.535   2.569 -0.4543  1.2154 -1.3569
46218SOL    HW256265   9.299   6.502   2.614 -1.0434  1.2840  0.6281
46219SOL     OW56266   8.312   5.742   6.024  0.1813 -0.5670  0.0112
46219SOL    HW156267   8.234   5.708   5.981  0.1844 -0.2451 -0.2514
46219SOL    HW256268   8.280   5.778   6.107  0.0404 -0.3954 -0.1150
46220SOL     OW56269   8.734   5.027  13.589  0.2529  0.4088 -0.6127
46220SOL    HW156270   8.691   5.026  13.675 -1.9180  1.0439 -1.6282
46220SOL    HW256271   8.767   5.117  13.581  1.4980  0.0396 -0.0190
46221SOL     OW56272  10.460   9.055   0.281 -0.0261 -0.0017  0.1894
46221SOL    HW156273  10.527   9.053   0.212  1.2931 -2.0816  1.4612
46221SOL    HW256274  10.439   9.148   0.290  0.7870  0.4723 -1.9999
46222SOL     OW56275  11.645  10.383   5.487 -0.3663  0.0647  0.2849
46222SOL    HW156276  11.622  10.291   5.493 -3.5763  0.8030  1.1838
46222SOL    HW256277  11.621  10.409   5.399 -0.0417  0.1912  0.2306
46223SOL     OW56278  11.727  11.248   6.896 -0.4215  0.2103  0.6657
46223SOL    HW156279  11.680  11.318   6.941  0.6001  0.2048  1.7803
46223SOL    HW256280  11.737  11.180   6.962 -1.6368 -1.1457 -0.4777
46224SOL     OW56281  13.691   3.940  13.770  0.7039 -0.1932 -0.4866
46224SOL    HW156282  13.755   3.983  13.714  1.3443 -1.7290 -0.9636
46224SOL    HW256283  13.722   3.850  13.779 -1.3531 -0.9728 -0.6870
46225SOL     OW56284   0.106   2.371  12.827 -0.3490  0.8592 -0.1685
46225SOL    HW156285   0.157   2.380  12.908 -0.5163  1.3991 -0.1177
46225SOL    HW256286   0.170   2.344  12.761  0.2585  2.6408 -0.3752
46226SOL     OW56287   2.639   2.552   8.785 -0.1930  0.2620  0.2021
46226SOL    HW156288   2.577   2.572   8.715  0.4861 -0.7838 -0.7191
46226SOL    HW256289   2.720   2.595   8.759 -0.0591  0.2250  0.5557
46227SOL     OW56290  10.114  11.533  13.041  0.4633  0.2087  0.0249
46227SOL    HW156291  10.109  11.499  13.130  3.6077  2.0868  1.0770
46227SOL    HW256292  10.026  11.519  13.005 -0.7201 -1.2723  3.1196
46228SOL     OW56293   9.597   9.025  14.021  0.5423 -0.0320 -0.1474
46228SOL    HW156294   9.643   9.103  14.052 -0.2269  1.2762 -2.1108
46228SOL    HW256295   9.507   9.054  14.007  0.1853 -1.3419 -0.7193
46229SOL     OW56296   7.100  11.764   9.125  0.2892  0.2145  0.4432
46229SOL    HW156297   7.112  11.827   9.196 -0.5054  0.0376  0.7343
46229SOL    HW256298   7.120  11.815   9.046  0.2574  0.6663  0.7198
46230SOL     OW56299   0.340  13.712   2.559  0.0287  0.5186 -0.2215
46230SOL    HW156300   0.362  13.629   2.518 -2.8904  0.1139 -1.1731
46230SOL    HW256301   0.346  13.694   2.653 -1.2382 -1.0483 -0.3900
46231SOL     OW56302   4.257   5.714   6.484  0.0540  0.3237  0.1107
46231SOL    HW156303   4.242   5.620   6.493 -1.1888  0.4648 -0.3541
46231SOL    HW256304   4.316   5.735   6.556 -1.2081 -0.4680  1.4336
46232SOL     OW56305  11.832   7.364   2.528 -0.2620 -0.0542  0.1980
46232SOL    HW156306  11.911   7.391   2.574 -0.6248 -1.2988  1.6520
46232SOL    HW256307  11.861   7.292   2.471  0.0339  0.9495 -0.9591
46233SOL     OW56308   2.747   9.036   6.249  0.1616 -0.0038 -0.7012
46233SOL    HW156309   2.795   9.003   6.325 -0.7356  0.2515 -0.0066
46233SOL    HW256310   2.670   9.080   6.286 -0.7483 -0.6157 -1.7886
46234SOL     OW56311   7.759  10.253  12.869  0.2927  0.3656 -0.8453
46234SOL    HW156312   7.712  10.184  12.821 -1.0896  0.1201  0.7670
46234SOL    HW256313   7.741  10.333  12.819 -1.0761  0.1098 -0.8018
46235SOL     OW56314  13.996   4.460   9.790  0.6753 -0.4586  0.6680
46235SOL    HW156315  13.962   4.538   9.834 -0.5684 -0.5527 -0.0915
46235SOL    HW256316  14.089   4.479   9.776  0.1328  1.4399 -0.6676
46236SOL     OW56317   0.924   8.402   7.508  0.1730  0.4848 -0.4923
46236SOL    HW156318   0.933   8.371   7.598 -0.2225 -0.7689 -0.8718
46236SOL    HW256319   0.830   8.398   7.491  0.0192  2.5212 -0.3593
46237SOL     OW56320   6.439   8.335   0.332  0.5349 -0.1129  0.3171
46237SOL    HW156321   6.443   8.360   0.240  0.3021 -0.3589  0.2429
46237SOL    HW256322   6.504   8.266   0.341  0.0498 -0.5922  0.1820
46238SOL     OW56323   4.266   8.251   5.763  0.1711  0.6874 -0.3040
46238SOL    HW156324   4.270   8.238   5.858  1.0044  1.3111 -0.2464
46238SOL    HW256325   4.328   8.188   5.728 -1.1190 -0.5017 -0.5580
46239SOL     OW56326   8.260   0.723  14.088  0.0213 -0.1531 -0.7253
46239SOL    HW156327   8.282   0.816  14.093 -0.1315 -0.1687  0.5123
46239SOL    HW256328   8.345   0.678  14.084  0.1788 -0.0639  1.0725
46240SOL     OW56329   0.592   1.543  11.978  0.4983 -0.3641  0.0169
46240SOL    HW156330   0.518   1.504  11.933 -0.7864  1.2360  0.6444
46240SOL    HW256331   0.632   1.472  12.027  0.3171 -1.5694 -1.5078
46241SOL     OW56332   9.426   5.934   5.676  0.9242 -0.0350 -0.5118
46241SOL    HW156333   9.519   5.914   5.667  1.2569  0.9895  0.5614
46241SOL    HW256334   9.415   6.018   5.631  0.1450 -0.9763 -2.1887
46242SOL     OW56335  11.744  12.420   5.989 -0.1156  0.0946  0.1968
46242SOL    HW156336  11.698  12.498   6.019  1.6307  2.0286 -1.8323
46242SOL    HW256337  11.811  12.403   6.055  0.2469  1.0602  0.0871
46243SOL     OW56338   8.200  11.094   5.343  0.2758 -0.1999  0.3743
46243SOL    HW156339   8.114  11.097   5.385  0.1569 -0.9837  0.2144
46243SOL    HW256340   8.262  11.094   5.416  0.1318  0.1056  0.4977
46244SOL     OW56341   8.962  11.120   1.288 -0.1841 -0.3763  0.5398
46244SOL    HW156342   8.935  11.134   1.197  0.4307 -1.2623  0.2165
46244SOL    HW256343   8.908  11.047   1.319 -0.8098  0.2945  1.0878
46245SOL     OW56344  10.896   2.703   6.886 -0.0709  0.2769  0.6966
46245SOL    HW156345  10.933   2.790   6.873 -0.0503  0.1463 -0.1672
46245SOL    HW256346  10.805   2.711   6.858 -0.4734  0.3725  1.9768
46246SOL     OW56347   5.186  10.604   5.522 -0.2628  0.1185  0.5324
46246SOL    HW156348   5.202  10.544   5.450  0.9345  0.8919  0.1259
46246SOL    HW256349   5.134  10.553   5.585  0.8326 -1.3932  0.2656
46247SOL     OW56350   8.962   8.066  12.834 -0.1470 -0.0014  0.1257
46247SOL    HW156351   8.959   7.994  12.897 -1.8932  1.1586  1.4630
46247SOL    HW256352   8.882   8.056  12.783 -0.7911  1.3719  0.8260
46248SOL     OW56353  10.494   5.458   2.925 -0.0743  0.2124 -0.2457
46248SOL    HW156354  10.551   5.383   2.911 -2.5550 -1.4746 -2.3979
46248SOL    HW256355  10.471   5.454   3.018  0.6239 -1.0899 -0.1015
46249SOL     OW56356   1.502   3.041  12.989 -0.2462 -1.3248  0.1939
46249SOL    HW156357   1.586   3.001  13.012  1.0937  1.4643  0.6182
46249SOL    HW256358   1.490   3.020  12.896  1.0392 -1.6060  0.0665
46250SOL     OW56359  12.500   5.719   1.081 -0.6379  0.1276 -0.3684
46250SOL    HW156360  12.493   5.627   1.056 -0.6653  0.0318 -0.0096
46250SOL    HW256361  12.594   5.733   1.096 -0.3647  0.6502 -2.2672
46251SOL     OW56362   6.368  10.245  12.795 -0.5002  0.4453 -0.5364
46251SOL    HW156363   6.335  10.265  12.707 -0.1984 -0.2998 -0.8314
46251SOL    HW256364   6.336  10.157  12.813  2.5995 -1.0312 -1.5355
46252SOL     OW56365  12.182  10.662   4.790  0.8223 -0.8349  0.1084
46252SOL    HW156366  12.147  10.609   4.862 -0.5858 -0.7116 -0.4516
46252SOL    HW256367  12.152  10.617   4.711 -0.8597  1.0409 -0.3914
46253SOL     OW56368  12.357   8.892   7.861  0.0739  0.4961  0.1050
46253SOL    HW156369  12.349   8.987   7.868 -0.1672  0.3832  2.0064
46253SOL    HW256370  12.429   8.870   7.921 -0.1990 -0.5487  0.0738
46254SOL     OW56371   0.743   2.703   7.554  0.2937  0.4925  0.1900
46254SOL    HW156372   0.782   2.782   7.515 -2.1425  1.2285 -1.0103
46254SOL    HW256373   0.701   2.735   7.634 -0.0500  0.2693  0.1001
46255SOL     OW56374  12.774   4.759   6.756 -0.4762 -0.1592  0.4257
46255SOL    HW156375  12.703   4.819   6.777 -2.1917 -1.7096 -0.6006
46255SOL    HW256376  12.730   4.679   6.728  1.6645 -0.8495 -1.2566
46256SOL     OW56377  11.487   5.424   9.619 -0.2818  0.1768  0.1448
46256SOL    HW156378  11.550   5.354   9.636  0.2725  0.8521  0.9814
46256SOL    HW256379  11.405   5.379   9.600  0.1108 -0.6991  0.4779
46257SOL     OW56380   9.299   8.342   1.698  0.3136 -0.1188  0.5026
46257SOL    HW156381   9.297   8.268   1.637  0.7392  0.1323  0.1738
46257SOL    HW256382   9.306   8.303   1.785  0.5412 -0.4627  0.3295
46258SOL     OW56383   4.138  10.727   1.414 -0.3103  0.1581  0.3359
46258SOL    HW156384   4.098  10.667   1.351 -0.0696 -0.8651  1.1345
46258SOL    HW256385   4.075  10.730   1.486  0.8339 -1.1563  1.4333
46259SOL     OW56386   4.656   1.662   9.190  0.0748 -0.0425  0.1733
46259SOL    HW156387   4.630   1.744   9.148  3.1735  1.1956  0.3853
46259SOL    HW256388   4.686   1.606   9.119  2.3988  0.8855  0.3332
46260SOL     OW56389   1.724   5.233  11.612 -0.6968 -0.7214  0.5634
46260SOL    HW156390   1.775   5.275  11.681 -1.8889 -0.0603  1.0860
46260SOL    HW256391   1.767   5.149  11.598  0.0128 -0.5520  1.5878
46261SOL     OW56392   2.044   3.503   1.296  0.3026  0.5254  0.5220
46261SOL    HW156393   2.015   3.594   1.302 -2.3474 -0.2894  1.5430
46261SOL    HW256394   2.106   3.492   1.369  0.5942  1.4561  0.4278
46262SOL     OW56395   8.887   1.380   7.601  0.2853  0.5602 -0.3493
46262SOL    HW156396   8.964   1.334   7.633 -0.1572 -0.7828 -1.1268
46262SOL    HW256397   8.813   1.324   7.624 -0.4563  1.7255  0.2013
46263SOL     OW56398   9.322   0.849  11.729 -0.1500 -0.2951  0.2101
46263SOL    HW156399   9.359   0.767  11.697 -2.2424 -0.7769 -1.1463
46263SOL    HW256400   9.398   0.902  11.753  1.2555 -2.8340  1.7873
46264SOL     OW56401  10.960   2.783  12.625 -0.3475  0.2991  0.0013
46264SOL    HW156402  10.964   2.873  12.658  2.0592 -0.7468  2.9729
46264SOL    HW256403  10.912   2.734  12.692 -0.7729 -0.8627 -1.1026
46265SOL     OW56404   0.963   9.037  10.064 -0.4533 -0.2058  0.2030
46265SOL    HW156405   0.913   8.960  10.037 -1.8684  0.4311  0.9335
46265SOL    HW256406   1.021   9.005  10.133 -0.4009 -0.7932 -0.1090
46266SOL     OW56407   2.896   3.887  12.109  0.0158 -0.0027  0.1489
46266SOL    HW156408   2.947   3.847  12.179 -1.2021  0.5521  1.4038
46266SOL    HW256409   2.877   3.975  12.140 -1.0094  0.0754 -0.6426
46267SOL     OW56410   7.807   5.650   6.795  0.1160 -0.7188  0.1771
46267SOL    HW156411   7.793   5.711   6.722 -1.4665 -2.2693 -0.8950
46267SOL    HW256412   7.902   5.645   6.804  0.3093  1.7944  0.2512
46268SOL     OW56413   4.747   9.788   5.472  0.4274  0.6264  0.5002
46268SOL    HW156414   4.769   9.817   5.384 -0.4566  1.8657  0.6673
46268SOL    HW256415   4.831   9.770   5.514  0.8647  0.2988 -0.4913
46269SOL     OW56416   8.818   0.928   3.133  0.3785  0.0066  0.8468
46269SOL    HW156417   8.780   0.979   3.204  0.1046 -0.2104  0.8574
46269SOL    HW256418   8.912   0.946   3.138  0.0667  2.7055 -0.8556
46270SOL     OW56419   4.343   2.575   7.418 -0.5045 -0.2660  0.3492
46270SOL    HW156420   4.334   2.489   7.376 -3.4506  0.6821 -1.2663
46270SOL    HW256421   4.406   2.622   7.363 -1.5135 -0.2877 -0.8711
46271SOL     OW56422   1.577   0.330  12.889 -0.0938 -0.1893  0.9756
46271SOL    HW156423   1.597   0.287  12.972  2.2475 -0.6394  0.2526
46271SOL    HW256424   1.661   0.333  12.843 -1.3327 -0.0130 -1.4068
46272SOL     OW56425  13.135  12.235   1.465  0.6335  0.0264  0.0752
46272SOL    HW156426  13.108  12.145   1.445  0.7232  0.0312 -0.0664
46272SOL    HW256427  13.091  12.288   1.399  2.2051 -0.1150 -1.1466
46273SOL     OW56428  10.974   5.368   5.236 -0.5425  0.2510  0.5834
46273SOL    HW156429  11.036   5.296   5.232  0.0737  0.7976 -0.0914
46273SOL    HW256430  11.029   5.447   5.239 -1.1521  0.8075 -1.1689
46274SOL     OW56431   5.891   0.230  14.014  0.3871 -0.2948  0.1650
46274SOL    HW156432   5.801   0.230  13.981  0.6842 -1.4813 -0.6785
46274SOL    HW256433   5.883   0.267  14.102 -0.7866  0.4912 -0.2385
46275SOL     OW56434   6.960   3.669   5.323 -0.1168  0.3918  0.4026
46275SOL    HW156435   7.027   3.636   5.264  0.6686  1.5464  0.6213
46275SOL    HW256436   6.921   3.591   5.362 -0.1156 -0.3656 -1.0300
46276SOL     OW56437  13.591   9.373   6.779  0.1930  0.0173  0.0188
46276SOL    HW156438  13.573   9.467   6.775  2.6178  0.5090 -2.0874
46276SOL    HW256439  13.537   9.336   6.710 -1.7929 -0.4102  1.7299
46277SOL     OW56440   9.377   4.954   6.448  0.0632  0.3243  0.1928
46277SOL    HW156441   9.342   4.910   6.525  1.3807 -0.1501  0.5392
46277SOL    HW256442   9.381   5.047   6.474 -1.9355  0.5810 -0.2523
46278SOL     OW56443  11.328   0.389  13.823 -0.1729  0.1852  0.0659
46278SOL    HW156444  11.282   0.329  13.882 -0.7557  0.2587 -0.3044
46278SOL    HW256445  11.396   0.428  13.878 -0.5238  0.0436  0.6148
46279SOL     OW56446   5.222  10.990  11.024 -0.2617  0.2673  0.4728
46279SOL    HW156447   5.182  11.044  11.092 -2.1389 -0.5956  0.1375
46279SOL    HW256448   5.168  10.910  11.023 -0.1748  0.1720 -1.8712
46280SOL     OW56449   2.860   3.951   2.126  0.4552  0.5758 -0.0601
46280SOL    HW156450   2.876   4.028   2.180 -1.3205  0.3364  0.8825
46280SOL    HW256451   2.765   3.942   2.124  0.5081 -0.1303 -2.2867
46281SOL     OW56452   0.585   7.278   9.427  0.2706  0.1026 -0.8928
46281SOL    HW156453   0.575   7.253   9.336 -0.1257  0.0288 -0.8317
46281SOL    HW256454   0.670   7.322   9.431 -0.6969  2.1853 -1.7542
46282SOL     OW56455  11.992   4.071   1.519 -0.0709  0.1702 -0.4710
46282SOL    HW156456  11.924   4.090   1.454 -0.8317  0.0725  0.2784
46282SOL    HW256457  11.972   4.130   1.592  0.8002  0.3111 -0.3414
46283SOL     OW56458   2.275   1.186  13.002 -0.1668  0.1073 -0.3708
46283SOL    HW156459   2.287   1.245  12.927 -0.9241 -0.4008 -0.9079
46283SOL    HW256460   2.277   1.243  13.078  2.6523  0.4250 -0.5873
46284SOL     OW56461   5.523  13.539   1.865  0.0963 -0.1060  0.0416
46284SOL    HW156462   5.589  13.592   1.821 -1.0454 -0.7394 -2.5955
46284SOL    HW256463   5.525  13.570   1.956  1.6176  2.2441 -0.6988
46285SOL     OW56464  12.237   1.638   8.647 -0.5661 -0.5127  0.3601
46285SOL    HW156465  12.330   1.618   8.656 -0.7872 -1.6239  0.2094
46285SOL    HW256466  12.193   1.553   8.646 -1.7623  0.0079  2.2098
46286SOL     OW56467  11.736   3.160   3.947  0.0501 -0.1591 -0.2928
46286SOL    HW156468  11.649   3.134   3.977 -0.0245  0.0854 -0.2945
46286SOL    HW256469  11.788   3.080   3.952 -0.0300 -0.1821  0.2375
46287SOL     OW56470   0.541   4.611   9.877  0.3914 -0.1942  0.0038
46287SOL    HW156471   0.586   4.639   9.956  0.2067  0.4353 -0.1127
46287SOL    HW256472   0.604   4.556   9.831  0.8241  0.1912  0.1353
46288SOL     OW56473   5.328  11.487  11.920  0.2498 -0.6597  0.0851
46288SOL    HW156474   5.262  11.468  11.987  0.5274  0.8377  0.8405
46288SOL    HW256475   5.400  11.527  11.969 -0.7266  3.3080 -1.3192
46289SOL     OW56476  10.522  13.525  13.942 -0.2957  0.0826 -0.8929
46289SOL    HW156477  10.563  13.474  13.873  0.7700  0.6619 -0.7064
46289SOL    HW256478  10.477  13.459  13.996  0.2677 -0.5600 -1.1825
46290SOL     OW56479   7.006   2.697   2.940  0.1939 -0.1983 -0.0638
46290SOL    HW156480   6.916   2.664   2.940  0.8604 -2.2495 -1.3680
46290SOL    HW256481   7.006   2.768   3.004 -3.2975  2.6053 -2.7220
46291SOL     OW56482   9.195  11.594  14.055 -0.3118  0.4582  0.3810
46291SOL    HW156483   9.129  11.619  14.120 -0.2556  1.1820  0.1718
46291SOL    HW256484   9.229  11.678  14.022 -0.2730  0.1060 -0.5115
46292SOL     OW56485   4.281   9.662  11.113 -0.4627  0.0687 -0.3247
46292SOL    HW156486   4.301   9.738  11.059 -2.5678 -0.0454 -1.3886
46292SOL    HW256487   4.318   9.588  11.065 -0.1326  0.2210 -0.3055
46293SOL     OW56488   0.231   9.730   5.483 -0.2161 -0.2013 -0.1960
46293SOL    HW156489   0.321   9.728   5.450 -0.6712  2.2712 -1.8151
46293SOL    HW256490   0.176   9.731   5.405 -1.5116  1.5416  0.6854
46294SOL     OW56491   4.843  13.394   6.244  0.2454  0.4215 -0.5088
46294SOL    HW156492   4.833  13.465   6.181 -1.6251 -2.5597 -3.9545
46294SOL    HW256493   4.753  13.367   6.264  0.8939 -0.9886  0.6983
46295SOL     OW56494  13.970  10.690   1.398 -0.1419 -0.6868 -0.7427
46295SOL    HW156495  13.999  10.622   1.459  1.1359  0.6388  0.2225
46295SOL    HW256496  14.042  10.753   1.397  0.1417 -0.9045 -4.0991
46296SOL     OW56497   5.371   8.348  10.507 -0.6317 -0.0151  0.5270
46296SOL    HW156498   5.302   8.387  10.561  1.1180  5.3781 -0.5546
46296SOL    HW256499   5.346   8.369  10.417 -0.2119 -2.9890 -0.3957
46297SOL     OW56500   6.372   0.773   0.422 -0.3078 -0.4017 -0.1553
46297SOL    HW156501   6.397   0.859   0.389 -1.8060  0.1087 -0.0429
46297SOL    HW256502   6.282   0.784   0.451  0.4388 -1.2265  2.7309
46298SOL     OW56503  10.894   9.593   3.053  0.0608 -0.8595 -0.5998
46298SOL    HW156504  10.863   9.647   3.126 -0.5613  0.2931 -1.6656
46298SOL    HW256505  10.818   9.541   3.027 -0.5769  0.6793 -2.0770
46299SOL     OW56506  11.132   7.439  10.867 -0.4421 -0.5439 -0.3582
46299SOL    HW156507  11.192   7.507  10.897 -0.1421 -0.1592 -1.7643
46299SOL    HW256508  11.052   7.454  10.917  0.3710 -0.6122  1.0149
46300SOL     OW56509  13.858   6.256   8.263  0.0142 -0.0311  0.2225
46300SOL    HW156510  13.887   6.225   8.349  0.1034 -0.7299 -0.0490
46300SOL    HW256511  13.834   6.176   8.216 -2.1675  0.4887  0.3509
46301SOL     OW56512   0.823   4.888   4.522  0.4125 -0.3426  0.5251
46301SOL    HW156513   0.891   4.946   4.557 -1.4107  1.7817  0.7588
46301SOL    HW256514   0.798   4.927   4.438  1.1530 -2.5080 -0.7885
46302SOL     OW56515   0.511   2.857   0.637  0.6264 -0.9495  0.8203
46302SOL    HW156516   0.555   2.797   0.576  0.6531 -1.8641  1.7108
46302SOL    HW256517   0.437   2.807   0.671  0.8449 -0.6015  1.8399
46303SOL     OW56518   8.756   0.200   4.361 -0.3072 -0.3160  0.1175
46303SOL    HW156519   8.818   0.184   4.290  2.4116  3.0287  1.4444
46303SOL    HW256520   8.778   0.133   4.426  0.7152 -0.3008 -0.1882
46304SOL     OW56521  11.787   5.286  11.526  0.1574  0.3919 -0.3398
46304SOL    HW156522  11.788   5.190  11.528 -3.2666  0.2349  1.7843
46304SOL    HW256523  11.879   5.311  11.532  1.2002 -2.7342 -1.4075
46305SOL     OW56524  13.568   1.659  10.942  0.2119  1.1238  0.0673
46305SOL    HW156525  13.491   1.670  10.886 -0.3620  1.9886  0.9870
46305SOL    HW256526  13.623   1.597  10.895 -0.6539  1.1476 -1.0238
46306SOL     OW56527  12.344   9.050   6.087  0.7179  0.2148 -0.1055
46306SOL    HW156528  12.256   9.045   6.050  0.1236  0.2944  1.2443
46306SOL    HW256529  12.376   8.959   6.087 -0.6940 -0.3889  2.3954
46307SOL     OW56530   3.519   9.738   8.330 -0.6799 -0.1232 -0.1142
46307SOL    HW156531   3.577   9.693   8.268 -1.6945 -1.1634 -0.3373
46307SOL    HW256532   3.577   9.797   8.378  0.2006  0.4617 -1.8055
46308SOL     OW56533   7.059   0.764  11.696  0.2741  0.2434  0.1385
46308SOL    HW156534   7.005   0.688  11.677 -1.8672  2.3282 -3.4137
46308SOL    HW256535   7.008   0.815  11.759  0.1502  0.1727  0.0962
46309SOL     OW56536   1.449   4.675   8.679  0.4158 -0.0559  0.3732
46309SOL    HW156537   1.482   4.750   8.729  1.3115 -1.1203  1.4624
46309SOL    HW256538   1.528   4.625   8.657 -0.1398 -0.5437 -0.5754
46310SOL     OW56539   3.289  10.050  11.880 -0.2134  0.9609 -0.0080
46310SOL    HW156540   3.310   9.995  11.804 -0.8216  2.6572 -1.4826
46310SOL    HW256541   3.198  10.030  11.900 -0.0542  0.5141  0.2810
46311SOL     OW56542  13.382   8.154  10.442  0.4342 -0.1985  1.0284
46311SOL    HW156543  13.324   8.139  10.516 -1.8987  2.4734 -0.0380
46311SOL    HW256544  13.396   8.249  10.441  0.2223 -0.0904 -1.9542
46312SOL     OW56545   5.490  10.428   4.084 -0.0874  0.4137  0.0672
46312SOL    HW156546   5.520  10.502   4.031  0.5450 -0.4205 -0.7623
46312SOL    HW256547   5.465  10.467   4.168 -1.0070  1.7446 -0.7933
46313SOL     OW56548   4.643  10.016   7.205 -0.3825  0.2917  0.5975
46313SOL    HW156549   4.612   9.932   7.173  0.8268 -0.0428  0.2663
46313SOL    HW256550   4.655  10.069   7.126  0.9829  0.0205  0.5923
46314SOL     OW56551   8.808   6.388   9.787  0.5524  0.1130 -0.3259
46314SOL    HW156552   8.872   6.368   9.855 -0.1091  0.6744  0.4744
46314SOL    HW256553   8.860   6.394   9.706  1.3799 -0.2902  0.1633
46315SOL     OW56554  10.309   7.837   2.778  0.2325 -0.1797  0.5265
46315SOL    HW156555  10.249   7.887   2.832  1.1255  1.9083 -0.2943
46315SOL    HW256556  10.276   7.849   2.688  2.1009  1.5406 -0.0171
46316SOL     OW56557   0.329  11.854   1.781 -0.2127 -0.2126 -0.9480
46316SOL    HW156558   0.354  11.823   1.868  0.3007  0.1777 -0.9517
46316SOL    HW256559   0.405  11.835   1.726  0.0450  0.8928 -0.9832
46317SOL     OW56560  12.698   2.790   9.866 -0.2665  0.3571 -0.5976
46317SOL    HW156561  12.670   2.775   9.957 -2.9646  0.8092 -1.2834
46317SOL    HW256562  12.698   2.703   9.827 -2.1303  0.4661 -0.9192
46318SOL     OW56563   5.398   0.992   7.449  0.6089  0.7423 -0.1444
46318SOL    HW156564   5.391   1.037   7.533 -2.1785  0.3114 -0.0605
46318SOL    HW256565   5.387   1.062   7.384  0.2479  0.7289 -0.0978
46319SOL     OW56566   8.549   7.682  13.270  0.5254 -0.1089 -0.0660
46319SOL    HW156567   8.632   7.651  13.306  0.3649  1.1189  1.4880
46319SOL    HW256568   8.568   7.771  13.240 -0.5169  0.7657  1.7012
46320SOL     OW56569   0.335   6.724  12.449  0.4414 -0.5511 -0.1076
46320SOL    HW156570   0.292   6.725  12.535 -1.0197  0.1765 -0.8098
46320SOL    HW256571   0.396   6.651  12.454  0.6266 -0.3224  1.6583
46321SOL     OW56572   0.767  13.658   7.161  0.2142 -0.3024  0.1075
46321SOL    HW156573   0.737  13.571   7.185  0.1805 -0.8161 -1.6416
46321SOL    HW256574   0.862  13.655   7.169  0.1147  0.1270  1.8883
46322SOL     OW56575   3.693   6.404  13.696 -0.3371 -0.2883 -0.8000
46322SOL    HW156576   3.723   6.346  13.626 -0.0169 -1.2213  0.0868
46322SOL    HW256577   3.748   6.482  13.688 -0.5324 -0.2436 -1.7882
46323SOL     OW56578   9.945   4.701  10.990  0.2591  0.0027  0.0270
46323SOL    HW156579  10.020   4.714  11.047 -0.5253  2.9183  0.5425
46323SOL    HW256580   9.873   4.679  11.049  0.1075 -0.0375 -0.1720
46324SOL     OW56581  12.809   4.818   3.479 -0.0208  0.2811  0.1763
46324SOL    HW156582  12.842   4.734   3.512  3.2226  2.7375  4.2107
46324SOL    HW256583  12.871   4.842   3.410 -0.8337 -0.5032 -0.8431
46325SOL     OW56584   1.414  10.281   0.049  0.0114  0.1185 -0.2612
46325SOL    HW156585   1.497  10.246   0.018 -0.0610 -0.3443  0.0558
46325SOL    HW256586   1.384  10.339  -0.021  1.3367  1.4980  0.2515
46326SOL     OW56587   9.355  11.962   3.926 -0.8581  0.0625  0.4140
46326SOL    HW156588   9.418  11.898   3.958 -1.8756 -0.2785  1.8277
46326SOL    HW256589   9.408  12.034   3.892  0.3171 -1.4276 -1.0798
46327SOL     OW56590   8.555   9.643   6.860 -0.6538  0.1056 -0.2059
46327SOL    HW156591   8.603   9.624   6.779  0.8151  3.7582 -0.3879
46327SOL    HW256592   8.613   9.612   6.930  2.1072  3.9817 -0.4445
46328SOL     OW56593   3.384  13.998   7.892  0.7043 -0.3951  0.3315
46328SOL    HW156594   3.436  14.007   7.972 -0.2699 -0.2030  0.9580
46328SOL    HW256595   3.303  13.956   7.921  0.7912 -1.3663 -0.7502
46329SOL     OW56596   1.481   6.881   0.778  0.2278  0.2754  0.0277
46329SOL    HW156597   1.475   6.872   0.873  0.2498  0.2750  0.0290
46329SOL    HW256598   1.390   6.887   0.749  0.2429  1.6401  0.1835
46330SOL     OW56599  11.268   2.411   9.007 -0.0026  0.1880  0.0098
46330SOL    HW156600  11.347   2.440   9.052 -0.4093  1.0622  0.1637
46330SOL    HW256601  11.211   2.378   9.077 -0.8365  1.9988  0.2494
46331SOL     OW56602   2.867   8.650   2.362 -0.2030 -0.0339 -0.0023
46331SOL    HW156603   2.834   8.611   2.443 -0.7080  0.1228 -0.1270
46331SOL    HW256604   2.825   8.736   2.357 -0.5385 -0.2226 -0.6500
46332SOL     OW56605   5.912  13.216   6.670 -0.1164 -0.6184 -0.5976
46332SOL    HW156606   5.937  13.268   6.594 -0.9325 -0.5134 -0.8041
46332SOL    HW256607   5.838  13.264   6.709 -0.8700 -1.5949 -0.7752
46333SOL     OW56608  12.255   0.197   9.928  0.0336  0.0329 -0.5470
46333SOL    HW156609  12.276   0.252   9.853 -0.2607  1.2126  0.2156
46333SOL    HW256610  12.306   0.233  10.000  0.7504 -1.4296 -0.2752
46334SOL     OW56611   4.796   5.060  13.125 -0.2275  0.3837  0.2176
46334SOL    HW156612   4.839   5.030  13.045 -0.8744  1.5152 -0.5984
46334SOL    HW256613   4.730   4.994  13.144 -0.3411  0.3082 -0.4258
46335SOL     OW56614   1.882   4.552   9.566  0.2210  0.2231 -0.6712
46335SOL    HW156615   1.938   4.492   9.617 -0.8217 -2.8182 -2.8056
46335SOL    HW256616   1.816   4.582   9.628  0.5900 -1.1384  0.4364
46336SOL     OW56617   4.421   6.112   6.817 -0.1895 -0.1397  0.1413
46336SOL    HW156618   4.361   6.185   6.801 -0.1359 -0.2338 -0.4776
46336SOL    HW256619   4.368   6.034   6.808 -0.2778 -0.1816  0.9470
46337SOL     OW56620   8.455   3.332  12.076  0.1322 -0.0078 -0.3650
46337SOL    HW156621   8.450   3.264  12.144  3.4122 -0.5533 -0.4585
46337SOL    HW256622   8.472   3.413  12.124 -0.7517  0.2045 -0.4013
46338SOL     OW56623  13.252   5.796   0.213  0.2108 -1.0519  0.5286
46338SOL    HW156624  13.165   5.755   0.204  0.2610 -1.0005 -0.2767
46338SOL    HW256625  13.274   5.824   0.124 -0.4478  2.0699  1.2348
46339SOL     OW56626   5.006   5.464   4.152  0.3144  0.2799  0.1607
46339SOL    HW156627   5.023   5.394   4.216  0.1413 -0.9160 -1.0391
46339SOL    HW256628   5.050   5.435   4.072 -1.7843  0.3035 -1.0969
46340SOL     OW56629   0.908   4.615  11.083 -0.3581 -0.1277  0.2926
46340SOL    HW156630   0.960   4.580  11.011  1.8411  0.9251  1.2977
46340SOL    HW256631   0.820   4.625  11.046  0.5917 -0.0107 -2.0982
46341SOL     OW56632   1.902  10.527   5.416 -0.4720 -0.0626 -0.2397
46341SOL    HW156633   1.934  10.614   5.443 -1.2977  0.7573 -1.7989
46341SOL    HW256634   1.960  10.466   5.462  1.9213  1.3405 -1.2068
46342SOL     OW56635   2.304   1.462   5.227 -0.7051 -0.2825  0.9776
46342SOL    HW156636   2.210   1.459   5.244 -1.1647  0.4484 -1.1594
46342SOL    HW256637   2.316   1.410   5.147  0.5153  0.6179  0.5439
46343SOL     OW56638   1.832   3.277   0.306  0.2737  0.0885  0.0906
46343SOL    HW156639   1.799   3.197   0.264 -1.1018  1.1661 -0.9721
46343SOL    HW256640   1.864   3.330   0.233 -0.6755  1.3376  0.5552
46344SOL     OW56641   3.094   0.148   7.943  0.5170  0.7985  0.3788
46344SOL    HW156642   3.127   0.060   7.957  2.2140  1.5592  1.4198
46344SOL    HW256643   3.052   0.144   7.857 -2.4196 -1.8236  1.7332
46345SOL     OW56644   6.693   4.940   4.611  0.2579 -0.2165  0.2037
46345SOL    HW156645   6.600   4.948   4.593 -0.2438 -2.2449  1.5590
46345SOL    HW256646   6.705   4.972   4.700  0.5823 -1.1875  0.5322
46346SOL     OW56647   8.080  11.289  10.494 -0.6920  0.0715 -0.5552
46346SOL    HW156648   7.994  11.286  10.535  0.1482  0.9556  1.3916
46346SOL    HW256649   8.075  11.363  10.433 -1.0616  0.6759  0.1969
46347SOL     OW56650  11.027  10.881  13.810  0.3344  0.0944  0.5733
46347SOL    HW156651  11.113  10.905  13.844  0.7371  0.5041 -0.6814
46347SOL    HW256652  11.015  10.789  13.837  1.5173 -0.2183  0.0827
46348SOL     OW56653   8.057  11.208   0.066  0.4076 -0.0797  0.0769
46348SOL    HW156654   8.056  11.302   0.050  0.1213 -0.3065 -1.3348
46348SOL    HW256655   8.037  11.168  -0.018  0.7196 -1.4201  0.5994
46349SOL     OW56656   4.867   3.440   2.647  0.4292  0.0570  0.2917
46349SOL    HW156657   4.958   3.458   2.621  0.8121 -0.8857  0.9196
46349SOL    HW256658   4.842   3.364   2.594 -0.2366  0.7191 -0.3663
46350SOL     OW56659   0.801   3.503  11.223  0.4701 -0.8677  0.0255
46350SOL    HW156660   0.874   3.454  11.262  1.6104  0.6386 -0.1102
46350SOL    HW256661   0.776   3.565  11.291 -1.0413 -1.6689  0.2391
46351SOL     OW56662   6.146   3.488   4.866  0.1979 -0.2765 -0.0271
46351SOL    HW156663   6.215   3.547   4.837 -1.3653  1.4911 -0.3712
46351SOL    HW256664   6.065   3.539   4.856 -1.0779 -1.9387  1.1708
46352SOL     OW56665  13.695   8.474  12.817 -0.0813 -0.0840  0.5962
46352SOL    HW156666  13.743   8.495  12.737  0.2769  1.0579  1.0922
46352SOL    HW256667  13.610   8.516  12.806 -0.3451 -0.6458  0.4589
46353SOL     OW56668  13.668   4.687   3.471 -0.0373 -0.6989  0.5622
46353SOL    HW156669  13.651   4.770   3.516 -0.2888 -0.3384 -0.1713
46353SOL    HW256670  13.694   4.627   3.540 -1.8944 -0.5996  1.4094
46354SOL     OW56671   2.381   6.174  10.240 -0.2130 -1.0039 -0.6043
46354SOL    HW156672   2.344   6.119  10.171 -0.6219 -1.6219  0.0950
46354SOL    HW256673   2.429   6.112  10.296  1.0754 -0.3610 -0.9443
46355SOL     OW56674  12.677  14.076  12.722 -0.1532 -0.3277 -0.6272
46355SOL    HW156675  12.603  14.110  12.671 -1.3882 -0.2281  1.1580
46355SOL    HW256676  12.743  14.146  12.717 -0.9479  0.4452 -0.6214
46356SOL     OW56677  11.685   7.121   2.821  0.3484 -0.3948 -0.5113
46356SOL    HW156678  11.759   7.080   2.775  0.1174 -0.9208 -0.4251
46356SOL    HW256679  11.642   7.048   2.866  1.3778  0.2979  1.7043
46357SOL     OW56680   1.994  13.652  14.017 -0.0475  0.0908  0.1565
46357SOL    HW156681   1.927  13.719  14.003 -0.0580 -0.0926 -0.7426
46357SOL    HW256682   1.950  13.569  13.999  0.3658 -0.0394 -0.3033
46358SOL     OW56683   0.108   8.329   9.756  0.1438  0.4733 -0.2859
46358SOL    HW156684   0.026   8.351   9.712 -0.5494  0.4635  0.9820
46358SOL    HW256685   0.154   8.412   9.763  0.9411  0.2734 -2.2979
46359SOL     OW56686   5.853   9.485  12.711  0.4400  0.4175  0.3645
46359SOL    HW156687   5.905   9.414  12.750 -2.4279 -2.2188 -0.2650
46359SOL    HW256688   5.797   9.515  12.782 -0.7041 -0.3187 -0.2112
46360SOL     OW56689   7.165  12.205   8.415  0.1529  0.3088 -0.3796
46360SOL    HW156690   7.099  12.149   8.374 -1.5758  1.3047  0.9205
46360SOL    HW256691   7.244  12.190   8.364 -0.8663 -1.5120 -1.5254
46361SOL     OW56692   2.946   5.828  10.941 -0.6721 -0.0031  0.7890
46361SOL    HW156693   3.008   5.868  11.003 -1.0967  1.7861  0.1279
46361SOL    HW256694   2.904   5.903  10.898 -2.7755 -1.1644  0.6972
46362SOL     OW56695   7.687  11.641  13.759  0.1325  0.4179 -0.3260
46362SOL    HW156696   7.773  11.678  13.740 -0.3284  1.0140 -1.3272
46362SOL    HW256697   7.658  11.604  13.676 -1.3550  1.8559 -0.5076
46363SOL     OW56698  12.562   0.234   3.392 -0.2205 -0.0090 -0.5013
46363SOL    HW156699  12.561   0.313   3.339 -1.1783  0.2118 -0.1880
46363SOL    HW256700  12.595   0.262   3.477  0.9435 -0.2823 -0.8525
46364SOL     OW56701   7.863  13.054  10.861  0.3863 -0.0004 -0.1675
46364SOL    HW156702   7.843  12.962  10.879  0.2153 -0.0691 -0.7063
46364SOL    HW256703   7.830  13.101  10.938  1.0541 -0.4543  0.4088
46365SOL     OW56704   6.037  12.651   5.128  0.1178  0.3920  1.0863
46365SOL    HW156705   5.960  12.663   5.073 -0.9698 -2.5571  1.8242
46365SOL    HW256706   6.102  12.611   5.071  0.1290  0.3264  1.1447
46366SOL     OW56707   3.479   7.275   9.694 -0.1752  0.6868 -0.3649
46366SOL    HW156708   3.480   7.226   9.612  1.8642  1.1164 -0.6401
46366SOL    HW256709   3.541   7.229   9.751 -0.7842  1.0019  0.5865
46367SOL     OW56710   3.951   9.990   0.569 -0.1412 -0.5954  0.2283
46367SOL    HW156711   3.867  10.013   0.528  0.4319  1.1493 -0.0235
46367SOL    HW256712   3.961  10.053   0.640  1.1493 -0.5254  0.0025
46368SOL     OW56713   8.727  13.824   4.385  0.1595 -0.5006 -0.0959
46368SOL    HW156714   8.666  13.810   4.313  1.2433 -0.2219 -1.0945
46368SOL    HW256715   8.753  13.736   4.411 -0.7027 -0.6257  0.3900
46369SOL     OW56716   5.029  12.823   4.700 -0.4139 -0.3407 -0.2275
46369SOL    HW156717   5.046  12.894   4.762 -0.0360 -0.4771 -0.1755
46369SOL    HW256718   5.024  12.744   4.753 -0.7961 -0.3640 -0.2914
46370SOL     OW56719   8.366  13.875   0.869 -0.5320 -0.0429  0.2050
46370SOL    HW156720   8.429  13.947   0.873 -0.5155 -0.0579  0.2117
46370SOL    HW256721   8.377  13.837   0.782 -0.7017  0.1071  0.1188
46371SOL     OW56722   8.209   3.864   4.019  0.0782  0.1702  0.1054
46371SOL    HW156723   8.211   3.769   4.011 -0.2323  0.1295  0.4659
46371SOL    HW256724   8.208   3.896   3.929  0.7375 -0.1505 -0.0234
46372SOL     OW56725   3.308   7.229   5.175  0.3132 -0.1738 -0.2555
46372SOL    HW156726   3.253   7.305   5.195 -0.6223 -0.8633 -0.0983
46372SOL    HW256727   3.324   7.188   5.260  3.5574  1.5830  0.1324
46373SOL     OW56728  12.720   3.697   1.089 -0.5285  0.3548 -0.2221
46373SOL    HW156729  12.735   3.690   1.184 -1.0190 -0.0994 -0.1752
46373SOL    HW256730  12.661   3.771   1.080  1.1399  1.7460 -0.3570
46374SOL     OW56731   8.327  12.818   5.055 -0.2415  0.4081  0.4469
46374SOL    HW156732   8.244  12.774   5.034  0.8746 -0.9811 -1.3657
46374SOL    HW256733   8.385  12.746   5.081  1.2163  0.9641 -1.1414
46375SOL     OW56734  13.051  11.533   0.673  0.3937 -0.2602 -0.2733
46375SOL    HW156735  13.042  11.504   0.764  0.7689 -0.1953 -0.2133
46375SOL    HW256736  13.107  11.610   0.679 -0.1536  0.1628 -0.4861
46376SOL     OW56737   9.612   3.781   0.025 -0.1892 -0.4921  0.3590
46376SOL    HW156738   9.521   3.763   0.048 -0.7623  2.0560  0.3926
46376SOL    HW256739   9.653   3.805   0.108 -0.4978  1.9801 -0.1308
46377SOL     OW56740  12.814   2.318   7.163 -0.1504  0.6284 -0.1416
46377SOL    HW156741  12.775   2.395   7.204 -1.4281  0.1354 -0.3568
46377SOL    HW256742  12.742   2.281   7.111  1.1869  0.8108 -2.2145
46378SOL     OW56743   4.142   9.785   7.619  0.5341  0.0324  0.4624
46378SOL    HW156744   4.177   9.840   7.549  0.7158 -0.1665  0.3956
46378SOL    HW256745   4.111   9.847   7.685  1.6506  0.2278  0.8377
46379SOL     OW56746   2.650   1.162  10.906 -0.5277 -0.6658 -0.3522
46379SOL    HW156747   2.571   1.212  10.888 -0.2522  0.0016  0.2309
46379SOL    HW256748   2.624   1.098  10.972 -0.5461 -0.3360 -0.0361
46380SOL     OW56749  10.971   5.111   9.118  0.5500  0.0402  0.8641
46380SOL    HW156750  10.915   5.189   9.122  1.8500  0.9610  1.8820
46380SOL    HW256751  10.909   5.038   9.119 -0.7462  1.0194 -0.8981
46381SOL     OW56752   2.290   7.619   3.569  0.4029  0.0504 -0.0720
46381SOL    HW156753   2.303   7.704   3.528 -0.7119  1.6410  2.6091
46381SOL    HW256754   2.375   7.597   3.608  0.1176  1.1822  1.2797
46382SOL     OW56755   4.943   1.226  11.524 -0.0746 -0.7596 -0.4927
46382SOL    HW156756   5.017   1.167  11.532  0.2142 -0.2886  0.5020
46382SOL    HW256757   4.902   1.225  11.611  0.1056  0.7015 -0.3731
46383SOL     OW56758  12.661   1.717   6.081 -0.2831  0.3149  0.5097
46383SOL    HW156759  12.628   1.713   5.992  1.6893  0.8080 -0.2878
46383SOL    HW256760  12.635   1.633   6.119  0.2955 -0.6168 -1.0691
46384SOL     OW56761   3.147  14.030   4.971  0.0834  0.8925  0.0657
46384SOL    HW156762   3.205  14.080   5.030  1.1293 -0.7393  0.5028
46384SOL    HW256763   3.064  14.026   5.017  0.3255  1.2769  0.5468
46385SOL     OW56764   4.916  13.807   1.777  0.3400 -0.3070 -0.1673
46385SOL    HW156765   4.869  13.871   1.723 -1.3189 -2.0795 -0.9577
46385SOL    HW256766   5.000  13.795   1.732  0.5430  1.0390 -0.1852
46386SOL     OW56767  10.054   7.293  11.622 -0.1280  0.0528 -0.3538
46386SOL    HW156768  10.077   7.203  11.647  0.6938  0.3954  0.1561
46386SOL    HW256769  10.111   7.313  11.548 -0.6438 -0.0100 -0.7688
46387SOL     OW56770   6.377   9.705  13.251  0.4931  0.0325  0.4718
46387SOL    HW156771   6.465   9.702  13.288  1.0310  0.5735 -0.7101
46387SOL    HW256772   6.390   9.729  13.159 -0.8433 -0.5382  0.1060
46388SOL     OW56773   3.359  10.384  13.892  0.0087  0.3901 -0.3866
46388SOL    HW156774   3.443  10.362  13.931  1.1394  0.5964 -2.5176
46388SOL    HW256775   3.308  10.303  13.898  1.6032 -0.8254 -1.9511
46389SOL     OW56776  13.213  11.692   2.268 -0.2003  0.5474 -0.2569
46389SOL    HW156777  13.193  11.600   2.252 -1.5251  0.8343 -0.4225
46389SOL    HW256778  13.308  11.696   2.276 -0.1966 -1.0063  0.8709
46390SOL     OW56779   4.160   3.086  13.107  0.5849  0.3965 -0.3838
46390SOL    HW156780   4.222   3.098  13.036  1.4125 -1.7298 -0.0760
46390SOL    HW256781   4.178   2.999  13.141  1.2610  1.8581  3.4700
46391SOL     OW56782   6.360   8.914   5.402  0.5392 -0.2356  0.6674
46391SOL    HW156783   6.444   8.923   5.356 -0.0578 -0.1420 -0.4521
46391SOL    HW256784   6.311   8.852   5.347 -0.9865  1.4811  0.0081
46392SOL     OW56785   3.298  10.075   8.036  0.8608 -0.3745 -0.2642
46392SOL    HW156786   3.259  10.069   7.949 -2.1107 -0.5309  0.9375
46392SOL    HW256787   3.351   9.996   8.044  0.4793 -0.7934 -1.6253
46393SOL     OW56788  12.200   8.950   1.392 -0.5292  0.0402 -0.1084
46393SOL    HW156789  12.109   8.952   1.422 -0.2375 -0.6755  0.8904
46393SOL    HW256790  12.243   8.890   1.453  0.3001 -0.7424 -1.4271
46394SOL     OW56791   7.965  11.050   2.424 -0.1500 -0.4849  0.5207
46394SOL    HW156792   7.946  11.100   2.345 -0.5359 -0.7216  0.4630
46394SOL    HW256793   7.900  10.980   2.424 -2.5809  1.5827  2.9580
46395SOL     OW56794   7.266   8.780   7.238  0.2267 -0.4284  0.1867
46395SOL    HW156795   7.213   8.816   7.309  0.5509 -1.4316  0.9704
46395SOL    HW256796   7.236   8.826   7.160  0.0731  0.9302  1.0107
46396SOL     OW56797  10.725   5.210   5.861 -0.1700  0.4550 -0.4994
46396SOL    HW156798  10.691   5.202   5.949 -0.2838 -0.6175 -0.6235
46396SOL    HW256799  10.745   5.303   5.851 -0.4326  0.6353  0.5420
46397SOL     OW56800  12.309   2.912   9.985 -0.0027 -0.3289  0.0331
46397SOL    HW156801  12.287   2.956  10.067 -2.0363 -0.5314 -0.3582
46397SOL    HW256802  12.225   2.895   9.943  0.9977  0.4207 -2.4623
46398SOL     OW56803   3.895   5.291  13.285 -0.5628  0.0108  0.3421
46398SOL    HW156804   3.831   5.307  13.215  0.7632 -0.0231 -0.9056
46398SOL    HW256805   3.940   5.211  13.259  0.5388  0.4713  0.7877
46399SOL     OW56806  10.512   5.518  12.916 -0.2481 -0.6858 -0.0595
46399SOL    HW156807  10.472   5.490  12.998  0.7056 -1.3264  0.2147
46399SOL    HW256808  10.512   5.439  12.862 -0.8830 -0.2623 -0.6825
46400SOL     OW56809   0.328   8.809  10.663 -0.3302 -0.5512 -0.1288
46400SOL    HW156810   0.325   8.733  10.721 -1.4452 -1.7209 -1.6367
46400SOL    HW256811   0.421   8.827  10.651 -0.0633 -1.4466  0.5161
46401SOL     OW56812   1.721   0.345   5.126 -0.2275  0.1455 -0.0314
46401SOL    HW156813   1.640   0.297   5.109 -0.2979  0.5489 -0.9310
46401SOL    HW256814   1.693   0.434   5.148 -0.0445  0.3295 -0.5054
46402SOL     OW56815   4.544   9.308  11.789  0.4702  0.2359 -0.6295
46402SOL    HW156816   4.455   9.274  11.776  1.3251 -1.8151 -1.6725
46402SOL    HW256817   4.568   9.344  11.703  0.4817  1.2791 -0.2003
46403SOL     OW56818   4.695   6.632   7.247  0.1484 -0.2185  0.0768
46403SOL    HW156819   4.732   6.707   7.200  0.0074 -0.5490 -0.5677
46403SOL    HW256820   4.697   6.560   7.184  0.9827 -0.9683  0.9190
46404SOL     OW56821   2.569   7.641   2.300  0.4489  0.7998  0.1647
46404SOL    HW156822   2.552   7.723   2.346 -1.0398 -0.3074  1.7217
46404SOL    HW256823   2.484   7.596   2.297  0.8692 -0.0022 -2.1183
46405SOL     OW56824   5.005   6.151  11.396  0.6196 -1.0376 -0.6884
46405SOL    HW156825   5.075   6.199  11.351  1.0826 -1.8813 -0.8940
46405SOL    HW256826   4.972   6.089  11.331  2.4981 -3.5329  0.5630
46406SOL     OW56827  12.480  12.025   2.657 -0.6179  0.0181  0.0784
46406SOL    HW156828  12.485  12.022   2.752 -1.6024  0.4221  0.1500
46406SOL    HW256829  12.386  12.025   2.637 -0.4270 -0.6772 -0.9130
46407SOL     OW56830   4.478   1.554  11.073 -1.1096 -1.0371 -0.4391
46407SOL    HW156831   4.415   1.488  11.101  0.1808 -1.1663  2.4524
46407SOL    HW256832   4.527   1.512  11.002 -1.0744 -2.7928  0.5726
46408SOL     OW56833   1.366   0.744   5.575  0.8186  0.6160 -0.1155
46408SOL    HW156834   1.348   0.821   5.629 -0.5137  0.8304 -0.8228
46408SOL    HW256835   1.361   0.670   5.636 -0.9995  0.8200  0.0300
46409SOL     OW56836   7.558   2.121   5.945 -0.1782 -0.1064  0.2809
46409SOL    HW156837   7.598   2.041   5.980 -2.1787 -1.8595 -1.2203
46409SOL    HW256838   7.633   2.178   5.926  1.2034 -0.7358  3.2496
46410SOL     OW56839   8.892   3.926   7.046 -0.0647  1.2795  0.3805
46410SOL    HW156840   8.800   3.938   7.022 -0.4873 -0.1704  1.1431
46410SOL    HW256841   8.938   3.994   6.998 -1.3813  1.1951 -1.1030
46411SOL     OW56842   5.446  10.449  12.367  0.7172 -0.1449 -0.3782
46411SOL    HW156843   5.416  10.372  12.317  1.2715 -1.0770  0.6839
46411SOL    HW256844   5.404  10.523  12.324 -1.4570 -1.2096 -0.2015
46412SOL     OW56845   9.444  13.034   4.593  0.2600 -0.5868 -0.2755
46412SOL    HW156846   9.453  12.958   4.536 -0.0161  0.4764 -1.7848
46412SOL    HW256847   9.373  13.011   4.653  1.2026 -2.1083  0.3153
46413SOL     OW56848   5.569   7.087   5.224  0.4896  0.2591  0.2088
46413SOL    HW156849   5.481   7.122   5.235 -0.3716 -1.1043 -1.6365
46413SOL    HW256850   5.583   7.032   5.301  0.0074  0.9962  0.8321
46414SOL     OW56851   3.309   1.813   5.073  0.3674  0.1500  0.1460
46414SOL    HW156852   3.221   1.791   5.044  0.3232 -1.6335  1.4592
46414SOL    HW256853   3.311   1.789   5.166  2.4789 -0.7149 -0.0635
46415SOL     OW56854  11.921  12.185   5.099 -0.4275  0.0180  0.8199
46415SOL    HW156855  11.912  12.274   5.066  1.3614 -0.2490 -0.5761
46415SOL    HW256856  11.973  12.194   5.178  1.3789  0.1278 -0.3147
46416SOL     OW56857   6.164   7.055   4.098  0.2914 -0.0176 -0.2367
46416SOL    HW156858   6.198   7.105   4.172  0.1953  0.4865 -0.5282
46416SOL    HW256859   6.077   7.091   4.082 -0.0853 -0.7908  0.0230
46417SOL     OW56860   5.815   2.592  12.832 -0.2080  0.5277 -0.1117
46417SOL    HW156861   5.761   2.553  12.901 -1.3928  1.1492 -0.6460
46417SOL    HW256862   5.792   2.543  12.753 -1.7164  2.1896 -0.7911
46418SOL     OW56863   6.558   3.603   7.973  0.2350  0.6132 -0.5554
46418SOL    HW156864   6.548   3.508   7.975  0.8818  0.5220 -1.3368
46418SOL    HW256865   6.614   3.623   8.048  0.8763  0.2752 -0.9397
46419SOL     OW56866  10.813   7.404   3.491  0.1042 -0.5753 -0.2221
46419SOL    HW156867  10.740   7.343   3.493  1.6275 -2.4917  0.8600
46419SOL    HW256868  10.852   7.391   3.405 -1.1545  0.9382 -1.0640
46420SOL     OW56869  12.996  12.023   1.271  0.1926  0.4036  0.7706
46420SOL    HW156870  12.953  12.052   1.190  2.4315 -0.7409 -0.9459
46420SOL    HW256871  12.944  11.949   1.301  0.7704 -0.8738 -1.1782
46421SOL     OW56872  10.335   1.720  12.792 -0.4791  0.6262 -0.1631
46421SOL    HW156873  10.343   1.636  12.837 -0.8616  0.4154 -0.4850
46421SOL    HW256874  10.425   1.751  12.782 -0.2080 -0.4938 -1.4508
46422SOL     OW56875  13.933   0.644   9.963 -0.1690  0.0183  0.1548
46422SOL    HW156876  13.937   0.702   9.887  0.3499  0.8636  0.8115
46422SOL    HW256877  14.004   0.581   9.949 -1.5150 -1.2702 -1.1763
46423SOL     OW56878   9.637   3.598  12.485 -0.5796 -0.2217  0.1953
46423SOL    HW156879   9.635   3.542  12.562 -0.5106  1.0013  1.1134
46423SOL    HW256880   9.702   3.666  12.505 -0.5597  0.1175 -0.9317
46424SOL     OW56881   5.008   4.667   2.480 -0.6434 -0.4928  0.4881
46424SOL    HW156882   4.919   4.699   2.467  0.1186  1.3461 -0.5313
46424SOL    HW256883   5.006   4.626   2.567 -1.8600  1.9425  1.7167
46425SOL     OW56884  13.784   6.884   3.904 -0.2218  0.3814 -0.1891
46425SOL    HW156885  13.848   6.840   3.959 -0.6008 -0.6611 -0.5549
46425SOL    HW256886  13.818   6.973   3.894  0.0107  0.5097  1.4526
46426SOL     OW56887   0.385   0.767   8.587 -0.2223  0.7650  0.6080
46426SOL    HW156888   0.463   0.821   8.604 -0.1014  0.5103  0.8639
46426SOL    HW256889   0.410   0.711   8.514  1.0360 -1.6942  2.8024
46427SOL     OW56890   7.072  13.122  13.595  0.0112 -0.1793 -0.0251
46427SOL    HW156891   6.977  13.119  13.608 -0.0781 -1.5233 -0.7788
46427SOL    HW256892   7.108  13.077  13.671  0.1538  1.4012  0.8921
46428SOL     OW56893   4.000  13.025   5.732 -0.6702  0.3449  0.3501
46428SOL    HW156894   3.966  12.997   5.817 -2.9555  0.6732 -0.3649
46428SOL    HW256895   3.923  13.021   5.674  0.7414  0.4435 -1.6164
46429SOL     OW56896   3.595  13.780   1.826 -0.0228  0.0308 -0.0606
46429SOL    HW156897   3.540  13.838   1.878 -0.2083  0.4900 -0.7553
46429SOL    HW256898   3.627  13.715   1.889 -0.5293  0.3569  0.5500
46430SOL     OW56899   9.232   2.005   0.206 -0.2339 -0.0751 -0.2856
46430SOL    HW156900   9.251   2.056   0.285 -0.2669  1.0163 -0.9632
46430SOL    HW256901   9.145   2.033   0.179  0.2492  0.4694 -1.3652
46431SOL     OW56902  11.432   3.877   3.444  0.4427  0.3173 -0.1109
46431SOL    HW156903  11.408   3.834   3.362  0.0198 -0.4220  0.3822
46431SOL    HW256904  11.350   3.916   3.475 -0.1255 -1.8497  1.3707
46432SOL     OW56905   1.810   0.134   5.686 -0.1936 -0.2611  0.6617
46432SOL    HW156906   1.746   0.084   5.636 -1.5025  0.4821  1.5589
46432SOL    HW256907   1.871   0.067   5.720 -0.4524 -0.9644 -0.2245
46433SOL     OW56908  10.593   5.507   5.810 -0.4980  0.6341  0.0200
46433SOL    HW156909  10.654   5.477   5.743  0.4888 -0.3059  1.2626
46433SOL    HW256910  10.650   5.537   5.882 -1.4820  0.4362  0.9100
46434SOL     OW56911   8.166   4.773   3.379  0.0952 -0.0835  0.1076
46434SOL    HW156912   8.199   4.721   3.453  1.9946  0.0737 -0.5701
46434SOL    HW256913   8.244   4.817   3.345 -1.1511  1.7306 -0.5159
46435SOL     OW56914  12.034   8.776   6.364 -0.3967  0.0219 -0.3990
46435SOL    HW156915  12.015   8.813   6.278  1.2169 -1.9904 -1.7117
46435SOL    HW256916  12.107   8.828   6.396  0.5329 -0.6665 -1.3278
46436SOL     OW56917  12.003   7.993   5.391  0.0114  0.0932 -0.4387
46436SOL    HW156918  11.965   8.038   5.316  0.0517  0.0268 -0.4995
46436SOL    HW256919  11.958   8.030   5.467 -0.4162 -0.2250 -0.5334
46437SOL     OW56920   7.198   4.471  11.352 -0.3249 -0.3278 -0.7215
46437SOL    HW156921   7.288   4.500  11.361 -0.2733 -0.1372 -1.7187
46437SOL    HW256922   7.151   4.517  11.422  0.5776 -1.5560  0.7648
46438SOL     OW56923   2.126   1.210   5.793 -0.1314 -0.3179 -0.4479
46438SOL    HW156924   2.094   1.269   5.862  0.6908  0.5339 -0.7711
46438SOL    HW256925   2.167   1.268   5.729  1.9151 -1.3144 -0.1274
46439SOL     OW56926   3.241   0.003   2.116 -0.4650  0.2635 -0.5314
46439SOL    HW156927   3.257   0.064   2.188 -1.7376  0.2239 -0.1791
46439SOL    HW256928   3.182   0.050   2.057 -1.6234 -0.6645 -0.1560
46440SOL     OW56929   8.256   2.373   8.499  0.4373 -0.2239  0.1964
46440SOL    HW156930   8.253   2.468   8.489  0.6648 -0.2134  0.2289
46440SOL    HW256931   8.232   2.358   8.591  0.0374 -0.2206  0.0936
46441SOL     OW56932  13.239  12.447   8.659 -0.7370  0.1125  0.1493
46441SOL    HW156933  13.257  12.501   8.582  1.6770 -2.0246 -0.8995
46441SOL    HW256934  13.176  12.382   8.629  0.3072 -0.8035 -0.0831
46442SOL     OW56935  11.646   0.774  12.856 -0.1660 -0.6116 -0.3094
46442SOL    HW156936  11.726   0.735  12.892 -0.3558 -0.2873  0.4942
46442SOL    HW256937  11.579   0.757  12.923 -0.0709  1.7585  0.4950
46443SOL     OW56938   0.750  10.953   9.932 -0.3151 -1.0562  0.0725
46443SOL    HW156939   0.760  10.999   9.848  2.2569 -0.4611  0.6236
46443SOL    HW256940   0.660  10.973   9.959 -0.3603  0.9635 -1.2931
46444SOL     OW56941  12.443  11.356   1.377  0.3642 -0.2398 -0.6969
46444SOL    HW156942  12.347  11.353   1.376  0.3228 -0.5368  1.0114
46444SOL    HW256943  12.464  11.415   1.450  1.4881 -1.4461 -0.0088
46445SOL     OW56944   9.093   6.295   6.303  0.7172 -0.0820 -0.3290
46445SOL    HW156945   9.130   6.210   6.330 -1.3009 -0.7767  0.4639
46445SOL    HW256946   9.038   6.321   6.377  0.9085  1.6964 -0.7855
46446SOL     OW56947   0.755   2.959  11.661  0.7697 -0.5397 -0.0441
46446SOL    HW156948   0.829   2.911  11.698  0.1197 -1.2127  0.4223
46446SOL    HW256949   0.681   2.938  11.718  0.0386 -0.5320 -0.9511
46447SOL     OW56950  10.496  10.315   2.888 -0.8259 -0.0010 -0.0614
46447SOL    HW156951  10.467  10.310   2.979 -3.4055  1.7304 -0.6825
46447SOL    HW256952  10.513  10.408   2.873  0.5914 -0.3852 -1.1045
46448SOL     OW56953   1.170   3.979  13.512 -0.5124 -0.3245  0.0296
46448SOL    HW156954   1.090   3.941  13.548 -0.3032  0.2011  1.1097
46448SOL    HW256955   1.214   4.017  13.588 -0.6491  1.9706 -0.9502
46449SOL     OW56956   7.058  11.678   4.061  0.3377 -0.0454 -0.0943
46449SOL    HW156957   7.141  11.723   4.078  0.4685 -0.0058 -0.8093
46449SOL    HW256958   7.037  11.700   3.971 -0.8738  0.6053  0.3254
46450SOL     OW56959   5.028  11.481  11.657 -0.0443  0.4518  0.4567
46450SOL    HW156960   5.001  11.518  11.741 -0.3484 -0.4812  0.7866
46450SOL    HW256961   4.947  11.450  11.617  0.2054  0.0994  0.2184
46451SOL     OW56962   1.550  11.547   4.949 -0.3931 -0.0119 -0.2534
46451SOL    HW156963   1.599  11.467   4.969  2.0251  2.0233  2.9488
46451SOL    HW256964   1.460  11.517   4.937  0.5833 -3.3145 -0.6087
46452SOL     OW56965   9.363  13.281   9.978  0.0689  0.5207  0.2196
46452SOL    HW156966   9.354  13.188   9.998 -0.5410  0.7383  1.0066
46452SOL    HW256967   9.433  13.311  10.034 -1.3103  1.0241  1.7530
46453SOL     OW56968   5.805   7.023   3.566 -0.5190  0.5630 -0.0689
46453SOL    HW156969   5.802   7.075   3.486 -1.6840 -0.1330 -0.5142
46453SOL    HW256970   5.761   6.941   3.542 -0.4212  0.1423  1.1409
46454SOL     OW56971   0.818  10.407   9.766  0.2283 -0.5558 -0.2592
46454SOL    HW156972   0.860  10.324   9.748  2.3423  0.7780 -1.9486
46454SOL    HW256973   0.781  10.435   9.682  1.3302  1.0903 -0.2561
46455SOL     OW56974  13.694   2.705   1.509 -0.1107 -0.0060  0.3569
46455SOL    HW156975  13.643   2.728   1.431 -1.2291 -1.2847  0.6812
46455SOL    HW256976  13.728   2.618   1.490 -1.7335 -1.0353  1.9159
46456SOL     OW56977  10.380   4.652   5.780 -0.1132 -0.6996  0.1042
46456SOL    HW156978  10.412   4.720   5.839 -0.3678 -0.1585 -0.3793
46456SOL    HW256979  10.350   4.582   5.839 -0.1610 -0.2574  0.6130
46457SOL     OW56980   3.857   8.419  12.414  0.0597 -0.1111 -0.1362
46457SOL    HW156981   3.940   8.399  12.456 -0.5512 -0.6769  0.8346
46457SOL    HW256982   3.882   8.457  12.330  1.3899  3.3587  1.6357
46458SOL     OW56983   4.977   0.715   4.723 -0.3766 -0.4769 -0.0344
46458SOL    HW156984   5.069   0.723   4.698 -0.0278 -0.3536  1.2226
46458SOL    HW256985   4.949   0.805   4.739 -1.0421 -0.4091 -1.4566
46459SOL     OW56986   3.356   0.741  13.969  0.3525 -0.2733  1.1721
46459SOL    HW156987   3.445   0.775  13.978  0.7632 -0.9618 -0.0730
46459SOL    HW256988   3.332   0.714  14.057  1.1209  0.5271  1.6462
46460SOL     OW56989   5.366   8.635   7.423  0.2510  0.2006  0.0920
46460SOL    HW156990   5.455   8.600   7.425  0.1603 -0.0312  0.2818
46460SOL    HW256991   5.311   8.557   7.412  0.0036  0.1971  1.2288
46461SOL     OW56992   6.797   3.151  13.471 -0.3862 -0.2032  0.7813
46461SOL    HW156993   6.757   3.159  13.385 -1.4010 -0.3745  1.2231
46461SOL    HW256994   6.858   3.077  13.463 -1.8643 -1.4488  0.7125
46462SOL     OW56995   7.314  11.545   9.524  0.0291 -0.2420 -0.4566
46462SOL    HW156996   7.312  11.640   9.517  2.6951 -0.1035 -0.3851
46462SOL    HW256997   7.328  11.515   9.434 -0.3566 -0.5667 -0.4134
46463SOL     OW56998   2.986   0.290  14.028  0.0814  0.4309 -0.7601
46463SOL    HW156999   3.045   0.355  13.991  0.0185  1.7309  1.2690
46463SOL    HW257000   2.983   0.220  13.962  5.2155 -0.6040 -0.3576
46464SOL     OW57001  12.979   0.044  10.649  0.5766  0.0909 -0.3094
46464SOL    HW157002  12.901   0.021  10.597  0.4522  0.2622 -0.1974
46464SOL    HW257003  13.018  -0.041  10.671  1.2775  0.0290 -1.6617
46465SOL     OW57004   2.153   7.451   5.908  0.3701 -0.0908 -0.6296
46465SOL    HW157005   2.117   7.488   5.989 -0.4542  1.1952 -1.5269
46465SOL    HW257006   2.129   7.515   5.840  1.9022 -0.6349 -1.7392
46466SOL     OW57007  10.445   1.705   8.133 -0.3758 -0.7299 -0.0384
46466SOL    HW157008  10.375   1.646   8.160  0.4115 -1.2412  0.9403
46466SOL    HW257009  10.521   1.648   8.120 -0.3871 -0.3302 -2.1558
46467SOL     OW57010  11.578   4.855   5.088  0.2149  0.4619  0.4804
46467SOL    HW157011  11.594   4.762   5.076  1.0206  0.7478 -0.9614
46467SOL    HW257012  11.566   4.866   5.182 -2.8398 -1.4947  0.4605
46468SOL     OW57013   5.240  13.181   7.402 -0.0584 -0.5117  0.2070
46468SOL    HW157014   5.217  13.088   7.401 -0.5703 -0.3883 -0.5610
46468SOL    HW257015   5.211  13.213   7.317  0.9494  0.1558  0.1003
46469SOL     OW57016   8.730  12.978   2.772  0.0650 -0.1401  0.4277
46469SOL    HW157017   8.645  13.001   2.735 -0.2262 -0.5825  0.8212
46469SOL    HW257018   8.791  13.037   2.727 -0.5699  0.8996  0.8842
46470SOL     OW57019   1.356  10.786  12.847 -0.0654  0.1820  0.0985
46470SOL    HW157020   1.283  10.782  12.908 -0.3321 -0.2090 -0.2365
46470SOL    HW257021   1.395  10.698  12.850  0.0087  0.2049 -0.1817
46471SOL     OW57022  10.184   4.980  13.511 -0.3198 -0.7900 -0.4901
46471SOL    HW157023  10.140   5.006  13.592  1.8904 -0.7226  0.7881
46471SOL    HW257024  10.157   4.890  13.496 -0.7333 -0.8145  0.3476
46472SOL     OW57025  11.907  11.891   8.423 -0.1050  0.1585 -0.1222
46472SOL    HW157026  11.823  11.845   8.428 -0.0497  0.1001  0.3150
46472SOL    HW257027  11.898  11.950   8.347  0.4197 -1.7475 -1.7433
46473SOL     OW57028  13.087  12.749  11.190 -0.4533  0.5089  0.4273
46473SOL    HW157029  13.025  12.749  11.263  0.2589  2.3261  1.1158
46473SOL    HW257030  13.077  12.836  11.150 -0.1693 -0.1150 -1.0604
46474SOL     OW57031  10.575   4.342   6.470 -0.0724 -0.0420 -0.1205
46474SOL    HW157032  10.616   4.400   6.406  0.5809  0.7041  0.9387
46474SOL    HW257033  10.617   4.257   6.456 -0.4823 -0.0896 -1.1683
46475SOL     OW57034  12.743  12.032  10.810  0.0533  0.2100 -0.6757
46475SOL    HW157035  12.836  12.053  10.822 -0.4744  2.2538  0.3348
46475SOL    HW257036  12.700  12.117  10.799 -2.0858 -0.3938  1.9451
46476SOL     OW57037  12.834   1.056   2.764 -0.0856 -0.2590  0.7042
46476SOL    HW157038  12.875   1.143   2.773 -0.6852  0.0047  0.9764
46476SOL    HW257039  12.814   1.049   2.671  0.1651 -0.1983  0.6439
46477SOL     OW57040  11.027  12.497   0.470  0.0803  0.1899 -0.3895
46477SOL    HW157041  10.971  12.514   0.545  0.4614 -1.5039  0.3157
46477SOL    HW257042  11.113  12.482   0.507  0.3749 -0.2057 -1.2154
46478SOL     OW57043  13.646   2.575  10.932  0.2804  0.8638  0.3194
46478SOL    HW157044  13.719   2.584  10.870  1.9260 -0.5172  1.9601
46478SOL    HW257045  13.610   2.488  10.914 -1.0091  1.5186 -0.4531
46479SOL     OW57046  13.218  13.329   2.597 -0.0223 -0.4012 -0.7459
46479SOL    HW157047  13.149  13.333   2.663  0.7789  1.0633  0.0582
46479SOL    HW257048  13.298  13.352   2.645  1.0717 -2.1557 -1.6274
46480SOL     OW57049   2.994  13.533   2.816 -0.3592  0.4129  0.6340
46480SOL    HW157050   2.931  13.583   2.868 -1.0307  0.8332 -0.5402
46480SOL    HW257051   2.957  13.533   2.728  1.0037  0.1603  0.0411
46481SOL     OW57052   6.697   9.293   4.772  0.2140 -0.2010 -0.6682
46481SOL    HW157053   6.667   9.202   4.775 -0.4752  0.0087 -0.8802
46481SOL    HW257054   6.666   9.332   4.853  2.2888 -0.6595  0.4115
46482SOL     OW57055   8.913   9.836   0.000 -0.3968  0.3757  0.3441
46482SOL    HW157056   8.993   9.875   0.035 -0.1662  0.0461  0.1852
46482SOL    HW257057   8.872   9.794   0.076  0.9409 -1.7781 -0.0521
46483SOL     OW57058  12.064   1.148   0.095 -0.1507  0.1639 -0.4580
46483SOL    HW157059  12.111   1.103   0.025  1.0782 -0.8045  0.9198
46483SOL    HW257060  12.059   1.084   0.166 -2.2871  0.7474 -0.0024
46484SOL     OW57061   8.354   8.516  12.690  0.9977 -0.0784  0.3912
46484SOL    HW157062   8.371   8.424  12.671  1.6066  0.1805 -0.3875
46484SOL    HW257063   8.423   8.563  12.642 -1.4118  0.9925 -2.3255
46485SOL     OW57064   0.585   5.521   0.524 -0.2675  0.1685 -0.0461
46485SOL    HW157065   0.675   5.527   0.554 -0.7427  0.3822  1.4214
46485SOL    HW257066   0.543   5.601   0.556 -1.2703 -0.4990  0.3899
46486SOL     OW57067  12.697   5.029   5.662  0.0730 -0.2175  0.2759
46486SOL    HW157068  12.781   5.000   5.697 -0.4245 -1.5772  0.4222
46486SOL    HW257069  12.659   4.950   5.623 -1.5175  0.1523  0.9744
46487SOL     OW57070   9.996   1.400   9.524  0.4232  0.0588  0.3168
46487SOL    HW157071  10.042   1.333   9.475 -1.1815  1.4271 -3.4713
46487SOL    HW257072   9.920   1.356   9.561  0.9987 -0.7786  0.5139
46488SOL     OW57073  11.434   1.076  12.701  0.1322  0.4545  0.4910
46488SOL    HW157074  11.417   1.020  12.777  1.9917 -0.5679  0.1974
46488SOL    HW257075  11.438   1.164  12.738 -0.6009  0.1663  1.3073
46489SOL     OW57076   3.743   6.318   8.371  0.1508  0.5351 -0.3307
46489SOL    HW157077   3.663   6.333   8.421 -0.1978 -0.4389 -0.5716
46489SOL    HW257078   3.712   6.293   8.284  0.7068 -0.1216 -0.3526
46490SOL     OW57079  10.239   5.030   4.740 -0.4003 -1.0946  0.3671
46490SOL    HW157080  10.298   5.080   4.684  1.7992 -3.1725  0.6761
46490SOL    HW257081  10.154   5.074   4.730  0.4288  0.1104 -2.6202
46491SOL     OW57082   2.909  13.364   1.764  0.3160 -1.0318  0.0470
46491SOL    HW157083   2.899  13.408   1.849  2.1033 -1.4807  0.5405
46491SOL    HW257084   2.891  13.432   1.699 -0.5093 -0.5282  0.7821
46492SOL     OW57085  11.700   5.790   9.572  0.6568 -0.0050 -0.2434
46492SOL    HW157086  11.682   5.857   9.506  0.3604 -0.1049 -0.2640
46492SOL    HW257087  11.648   5.714   9.545 -0.6873  0.4598  0.9447
46493SOL     OW57088  10.605  13.467   2.768  0.0830  0.0526 -0.4215
46493SOL    HW157089  10.623  13.549   2.815 -0.0757  0.2601 -0.7240
46493SOL    HW257090  10.661  13.402   2.811 -0.0214  0.2552  0.0225
46494SOL     OW57091   9.463   6.872  10.268  0.8007 -0.2349 -0.3078
46494SOL    HW157092   9.435   6.952  10.313 -0.4952 -1.0400  0.3866
46494SOL    HW257093   9.509   6.903  10.191 -2.2624  1.2919 -1.7070
46495SOL     OW57094  10.406  12.661  11.900 -0.2566 -0.4121 -0.1559
46495SOL    HW157095  10.410  12.658  11.805 -1.4372 -0.0809 -0.2295
46495SOL    HW257096  10.392  12.570  11.927 -0.2791 -0.4601 -0.3287
46496SOL     OW57097  10.472   6.577   1.274  0.2907  0.5548 -0.3476
46496SOL    HW157098  10.426   6.661   1.277  0.2015  0.6045 -2.0640
46496SOL    HW257099  10.564   6.601   1.258  0.4327  0.3601  0.1718
46497SOL     OW57100   0.426   6.613  12.065  0.2401 -0.4606 -0.5146
46497SOL    HW157101   0.479   6.597  11.987 -0.1825 -3.6548 -0.2659
46497SOL    HW257102   0.484   6.590  12.138 -0.7645 -1.9739 -0.1517
46498SOL     OW57103   0.123  11.093   3.946  0.2397  0.3324 -0.4527
46498SOL    HW157104   0.081  11.058   3.868  1.0437 -0.3419 -0.5969
46498SOL    HW257105   0.060  11.078   4.017  0.0438 -0.2327 -0.7424
46499SOL     OW57106   5.642   4.162   8.920  0.7130 -0.5397 -0.3992
46499SOL    HW157107   5.654   4.105   8.996  0.4154 -0.8814 -0.6049
46499SOL    HW257108   5.720   4.148   8.867  1.0309 -0.1271 -0.0504
46500SOL     OW57109   5.838   9.885   5.414  0.6726 -0.7053 -0.3680
46500SOL    HW157110   5.796   9.937   5.346  0.4924 -0.8762 -0.3891
46500SOL    HW257111   5.896   9.946   5.459  0.7715 -0.5848 -0.6575
46501SOL     OW57112   4.869   1.270   0.971 -0.3592 -0.2754  0.7536
46501SOL    HW157113   4.808   1.218   0.918  0.3955 -1.0537  0.6244
46501SOL    HW257114   4.945   1.213   0.983  0.9444  1.1449 -0.2602
46502SOL     OW57115   9.206   5.656   1.109 -0.3273 -0.4199  0.2088
46502SOL    HW157116   9.252   5.701   1.038  0.1611 -0.2551  0.6282
46502SOL    HW257117   9.187   5.724   1.173  0.6603 -0.8418  0.9703
46503SOL     OW57118  12.069   0.400   9.470 -0.1921 -0.6403 -0.0194
46503SOL    HW157119  12.069   0.460   9.544  3.8105  0.0904 -0.3675
46503SOL    HW257120  12.057   0.456   9.394 -0.1737 -0.8066 -0.1443
46504SOL     OW57121  13.814   0.667   3.656 -0.0570 -0.1365  0.0280
46504SOL    HW157122  13.871   0.723   3.603  3.9590 -2.1623  1.7376
46504SOL    HW257123  13.803   0.714   3.738  0.5484 -0.4204  0.2765
46505SOL     OW57124   3.872   4.556   9.029  0.1133 -0.2320  0.1233
46505SOL    HW157125   3.952   4.525   9.071  0.9560  1.6055 -0.0257
46505SOL    HW257126   3.853   4.490   8.962  1.9442 -0.3293 -0.3466
46506SOL     OW57127   8.089   3.162  10.224 -0.0133  0.3960  0.4324
46506SOL    HW157128   8.141   3.150  10.303 -0.2483 -0.6133  0.4469
46506SOL    HW257129   8.129   3.237  10.180  0.1495  0.9346  1.4748
46507SOL     OW57130  10.971   4.258   8.997  0.3463 -0.0308 -0.0132
46507SOL    HW157131  11.042   4.308   9.037 -0.9737  0.8713  1.3078
46507SOL    HW257132  10.902   4.257   9.063 -0.0145 -2.9238 -0.3130
46508SOL     OW57133   7.004   1.198   3.203  0.5974 -0.1773 -0.2927
46508SOL    HW157134   6.912   1.205   3.228  0.2322  1.3992 -1.8171
46508SOL    HW257135   7.007   1.121   3.145  0.4750 -0.8816  0.6202
46509SOL     OW57136   7.903   0.096   1.693 -0.2952 -0.1269  0.0113
46509SOL    HW157137   7.862   0.109   1.779  1.7724  0.5498  0.9622
46509SOL    HW257138   7.874   0.009   1.667 -2.6521  0.4528  0.3650
46510SOL     OW57139   4.723   2.182   4.674  0.1375  0.0582 -0.3369
46510SOL    HW157140   4.803   2.234   4.667 -0.2745  0.7046 -0.2484
46510SOL    HW257141   4.680   2.214   4.752 -0.6022  0.2569 -0.8188
46511SOL     OW57142   8.081  10.355   9.262  0.4889 -0.9273 -0.0939
46511SOL    HW157143   8.154  10.415   9.244  0.1836 -0.9859 -1.6618
46511SOL    HW257144   8.117  10.268   9.244 -0.1351 -0.9054 -1.6238
46512SOL     OW57145   4.130  10.637   3.220  0.3768  0.0209 -0.0752
46512SOL    HW157146   4.125  10.730   3.197 -1.0688 -0.0904 -0.2461
46512SOL    HW257147   4.215  10.609   3.186  1.2217  1.4677  0.7325
46513SOL     OW57148  11.068  13.465   7.786 -0.0707 -0.1424 -0.0878
46513SOL    HW157149  10.998  13.403   7.805 -0.8149  1.1701  1.7620
46513SOL    HW257150  11.137  13.443   7.849  0.4598 -0.2716 -0.6986
46514SOL     OW57151   2.376  12.805   8.172  0.4829  0.6273  0.3476
46514SOL    HW157152   2.435  12.734   8.145 -0.7087 -0.4785  0.5427
46514SOL    HW257153   2.316  12.764   8.234 -1.0550  1.4767 -0.5213
46515SOL     OW57154  10.508  10.931   8.878 -0.3625  0.7412 -0.2216
46515SOL    HW157155  10.511  11.014   8.926  0.0386  0.2771  0.5787
46515SOL    HW257156  10.565  10.945   8.802 -0.4465  1.2597 -0.1939
46516SOL     OW57157   3.215  10.220   5.254  0.2660 -0.5172 -0.3278
46516SOL    HW157158   3.171  10.288   5.204 -0.6912 -1.0230 -0.2145
46516SOL    HW257159   3.261  10.267   5.324 -2.2962 -0.0655  1.2011
46517SOL     OW57160   7.804   1.600   8.058  0.4536 -0.6746 -0.5968
46517SOL    HW157161   7.711   1.613   8.076  0.6848  0.9533 -0.3724
46517SOL    HW257162   7.841   1.571   8.141  0.5549  1.2859  0.1144
46518SOL     OW57163   1.324   4.791   9.372 -0.1269  0.0735  0.2915
46518SOL    HW157164   1.330   4.869   9.427  1.4380 -0.0856  0.3930
46518SOL    HW257165   1.402   4.794   9.317  0.9709 -2.3079  1.5458
46519SOL     OW57166   5.590  11.768   1.371  0.1581 -0.6124 -0.2857
46519SOL    HW157167   5.535  11.766   1.449 -1.6623 -0.2160 -1.5096
46519SOL    HW257168   5.530  11.751   1.298  0.8900  3.2961 -2.0652
46520SOL     OW57169   3.945   7.485   0.940  0.3123  0.0868 -0.1155
46520SOL    HW157170   3.991   7.402   0.931  1.8438  0.5170  2.6688
46520SOL    HW257171   4.014   7.551   0.941 -0.6784  1.1537  0.1435
46521SOL     OW57172  14.010   5.231  10.386  0.0112  0.3846 -0.2215
46521SOL    HW157173  14.083   5.207  10.443 -0.2977  1.4766  0.6621
46521SOL    HW257174  13.942   5.261  10.446 -1.4730 -1.3184 -0.9637
46522SOL     OW57175   8.371   6.591  10.623  0.3474 -0.1445 -0.1087
46522SOL    HW157176   8.326   6.591  10.707 -1.2444 -0.0857 -0.9144
46522SOL    HW257177   8.464   6.592  10.645 -0.0357  0.8857  1.6435
46523SOL     OW57178   2.054   5.300   0.115  0.5944 -0.1873  0.4991
46523SOL    HW157179   2.004   5.219   0.105  0.4338 -0.1918  1.3044
46523SOL    HW257180   2.145   5.272   0.119  0.4433 -0.5166  2.5562
46524SOL     OW57181  13.458   5.070   7.315 -0.3447 -0.1040 -0.1840
46524SOL    HW157182  13.458   5.142   7.378 -0.2430  0.4945 -0.8466
46524SOL    HW257183  13.549   5.064   7.286  0.1085 -1.8972  1.3825
46525SOL     OW57184  11.111  11.038   3.426 -0.0844  0.6673  0.1039
46525SOL    HW157185  11.179  10.994   3.477  0.1641  0.9929  0.0610
46525SOL    HW257186  11.047  10.970   3.407  1.0858 -0.1038 -1.3886
46526SOL     OW57187  11.624  11.264  12.366 -0.1854  0.6028 -0.4401
46526SOL    HW157188  11.658  11.350  12.390 -2.1279  1.6322 -1.1774
46526SOL    HW257189  11.543  11.282  12.320 -1.1474 -1.6725  0.2098
46527SOL     OW57190   7.446   0.537   4.888 -0.2091 -0.2431 -0.2824
46527SOL    HW157191   7.478   0.489   4.812 -0.0393  2.1264 -1.8040
46527SOL    HW257192   7.523   0.546   4.945  0.1849 -0.2709 -0.8040
46528SOL     OW57193  12.328  12.478   3.329  0.1557  0.0374 -0.2659
46528SOL    HW157194  12.319  12.443   3.417  1.2963 -1.1726 -0.5904
46528SOL    HW257195  12.316  12.402   3.272  3.1956 -0.0217 -0.9838
46529SOL     OW57196  12.108  10.302   1.187  0.4288 -0.6803  0.2030
46529SOL    HW157197  12.093  10.268   1.099  1.0234  0.2577 -0.2778
46529SOL    HW257198  12.028  10.350   1.208  0.0489 -1.3924  0.4239
46530SOL     OW57199  11.252  13.060  11.891 -0.6992 -0.6782 -0.2534
46530SOL    HW157200  11.320  13.116  11.928 -0.0464 -0.7776 -1.2682
46530SOL    HW257201  11.288  13.029  11.809 -2.2867 -0.0937 -1.2153
46531SOL     OW57202  11.712   7.626   7.876 -0.3658 -0.6152  0.2115
46531SOL    HW157203  11.793   7.638   7.827  0.8576  0.1834  2.2872
46531SOL    HW257204  11.703   7.531   7.884  0.1560 -0.7166 -0.3744
46532SOL     OW57205   6.537   3.605   6.643 -0.0029 -0.5733  0.1884
46532SOL    HW157206   6.491   3.566   6.568  2.0464  1.5555 -2.3879
46532SOL    HW257207   6.485   3.681   6.667 -0.4682 -1.0510  0.7232
46533SOL     OW57208   8.266  13.650   6.072  0.3629 -0.2404 -0.1329
46533SOL    HW157209   8.345  13.698   6.045 -0.3624  0.3844 -1.1803
46533SOL    HW257210   8.254  13.584   6.005  0.5449 -0.9982  0.5605
46534SOL     OW57211   7.360  12.969  10.948 -0.0993 -0.1778 -0.2346
46534SOL    HW157212   7.268  12.946  10.941 -0.4297  0.7103  0.8206
46534SOL    HW257213   7.361  13.065  10.941  0.8340 -0.2378 -1.0592
46535SOL     OW57214   2.629  11.294  13.210 -0.5826 -0.1146  0.5397
46535SOL    HW157215   2.578  11.250  13.142  0.4305 -1.3065  0.5222
46535SOL    HW257216   2.666  11.370  13.166 -1.7723  0.4068  0.3826
46536SOL     OW57217   3.452   7.237  13.561  0.0596 -0.2726 -0.1144
46536SOL    HW157218   3.396   7.220  13.636  0.0725  1.0491  0.2093
46536SOL    HW257219   3.416   7.316  13.521  0.5428 -0.5001 -1.0249
46537SOL     OW57220  11.761   9.654   3.887 -0.5470  0.0761 -0.5485
46537SOL    HW157221  11.724   9.566   3.898 -1.5281  0.3060 -1.7853
46537SOL    HW257222  11.855   9.642   3.904 -0.7712 -1.0601  0.0060
46538SOL     OW57223   0.285   3.916   6.004 -0.1710 -0.0742 -0.0157
46538SOL    HW157224   0.366   3.880   6.041 -0.0581 -0.2199 -0.3973
46538SOL    HW257225   0.238   3.951   6.079  0.7669  1.0490  0.0688
46539SOL     OW57226   5.384   3.790   9.326  0.5103  0.2530  0.3238
46539SOL    HW157227   5.452   3.733   9.361  0.9411  0.5717  0.0162
46539SOL    HW257228   5.386   3.775   9.232 -0.0126  0.0878  0.3345
46540SOL     OW57229   1.512   8.738  10.557 -0.2746 -0.7018 -0.2441
46540SOL    HW157230   1.580   8.688  10.601  0.2974  0.6263  0.4314
46540SOL    HW257231   1.545   8.751  10.468 -0.0862 -0.8816 -0.2014
46541SOL     OW57232   9.347   5.477   3.130 -0.4591 -0.2981 -0.1358
46541SOL    HW157233   9.262   5.520   3.140 -1.3373 -2.1383  0.8479
46541SOL    HW257234   9.397   5.504   3.207 -0.8315 -0.6440  0.2308
46542SOL     OW57235   4.848  11.985  13.138 -0.0367 -0.5901 -0.6490
46542SOL    HW157236   4.833  11.967  13.045  0.3284 -2.1073 -0.4397
46542SOL    HW257237   4.943  11.984  13.147 -0.0229  0.7556 -0.4607
46543SOL     OW57238   1.862   5.978   4.269  0.1025  0.5530 -0.4273
46543SOL    HW157239   1.872   5.882   4.265  1.7172  0.3650  3.5241
46543SOL    HW257240   1.940   6.008   4.317 -1.2049  3.6497 -0.0202
46544SOL     OW57241  11.976   9.814  13.438  0.5188  0.3757 -0.8426
46544SOL    HW157242  12.056   9.856  13.468  0.5767 -0.0934 -0.3338
46544SOL    HW257243  11.936   9.777  13.517  0.6976 -0.9128 -1.3180
46545SOL     OW57244   9.048   8.566   1.084 -1.4984  0.1341 -0.2272
46545SOL    HW157245   9.101   8.561   1.004 -0.4572 -0.7942  0.4839
46545SOL    HW257246   9.092   8.633   1.137  0.6200 -2.3587  1.4376
46546SOL     OW57247  13.113   4.137   3.642  0.1666 -0.0075 -0.2959
46546SOL    HW157248  13.050   4.143   3.570  1.1985 -3.0350 -1.6154
46546SOL    HW257249  13.089   4.056   3.687  0.1583  1.3153  2.2544
46547SOL     OW57250   1.686   8.808   0.131  0.5905  0.2570  0.1767
46547SOL    HW157251   1.777   8.825   0.154  0.7238  0.1402 -0.2588
46547SOL    HW257252   1.674   8.714   0.149  0.5580  0.2695  0.2233
46548SOL     OW57253   7.545   3.375   8.300 -0.4953 -0.2146 -0.2055
46548SOL    HW157254   7.616   3.388   8.363 -0.1660 -0.0320 -0.6078
46548SOL    HW257255   7.494   3.303   8.336  1.0099 -1.6763 -0.8648
46549SOL     OW57256  10.558  12.532   5.858 -0.3101  0.5014  0.1723
46549SOL    HW157257  10.575  12.537   5.764  0.0060 -0.4586  0.1610
46549SOL    HW257258  10.572  12.621   5.890  2.4503  0.3133 -0.2212
46550SOL     OW57259  14.083  13.865   2.906  0.3830 -0.1322  0.0833
46550SOL    HW157260  14.143  13.839   2.835  1.6935  2.6325  0.0654
46550SOL    HW257261  14.042  13.783   2.933  1.0836 -1.5507 -2.7147
46551SOL     OW57262   2.216  12.597   4.950 -0.0489  0.5128  0.0039
46551SOL    HW157263   2.206  12.598   5.045 -0.1912 -1.3243  0.0511
46551SOL    HW257264   2.159  12.526   4.921  0.8454  0.2912 -1.3245
46552SOL     OW57265   9.760   5.614  13.282 -0.0278 -0.0516  0.5463
46552SOL    HW157266   9.708   5.691  13.258 -0.5607 -0.3856  0.5997
46552SOL    HW257267   9.715   5.541  13.239  1.1881 -0.1924 -0.5393
46553SOL     OW57268  13.377  10.522  11.054 -0.0360 -0.0674  0.1231
46553SOL    HW157269  13.446  10.457  11.063  0.4246  0.7039  3.0001
46553SOL    HW257270  13.423  10.602  11.029 -0.0042  0.1876  0.9718
46554SOL     OW57271   0.153   9.757   6.201 -0.1021 -0.0940 -0.1317
46554SOL    HW157272   0.137   9.777   6.109  0.1441  0.3932 -0.0721
46554SOL    HW257273   0.072   9.782   6.246 -0.1066 -0.0308 -0.1741
46555SOL     OW57274  10.166   5.261  14.042  0.3330  0.7874 -0.7278
46555SOL    HW157275  10.084   5.212  14.036 -0.1185  1.4183 -0.0897
46555SOL    HW257276  10.235   5.196  14.034 -0.2416  0.2042 -0.9655
46556SOL     OW57277  10.006  12.568  10.529  0.1734  0.4999 -0.0577
46556SOL    HW157278  10.069  12.497  10.517  0.8844  0.9083  1.0330
46556SOL    HW257279  10.047  12.625  10.596 -1.2619  0.8712  0.5382
46557SOL     OW57280   2.430   3.595   7.621  0.1946  0.1871 -1.0623
46557SOL    HW157281   2.439   3.537   7.545 -0.3043  1.5773 -2.2351
46557SOL    HW257282   2.496   3.663   7.607  0.4232  0.1976  0.0188
46558SOL     OW57283   6.006   8.878   5.852 -0.3994  0.8090  0.2898
46558SOL    HW157284   5.945   8.810   5.824 -1.0732  1.7802 -0.6987
46558SOL    HW257285   6.082   8.869   5.794 -0.7188  1.2290 -0.2002
46559SOL     OW57286   2.679  14.028   0.437 -0.1511 -0.6938  0.4039
46559SOL    HW157287   2.600  13.990   0.399 -0.0341 -0.4182 -0.1243
46559SOL    HW257288   2.648  14.081   0.510 -0.7682  1.5871 -1.3862
46560SOL     OW57289   7.528   6.635   9.267 -0.0882 -0.0572 -0.9083
46560SOL    HW157290   7.451   6.691   9.272 -0.3407 -0.4006 -0.8877
46560SOL    HW257291   7.513   6.568   9.334 -0.0009 -0.4024 -1.2262
46561SOL     OW57292   2.964   7.197   2.913 -0.1053  0.2929  0.2419
46561SOL    HW157293   2.986   7.290   2.921 -0.0625  0.2769  0.3135
46561SOL    HW257294   2.922   7.175   2.997  2.2622 -0.3961  1.3321
46562SOL     OW57295   8.372  10.648   9.884  0.1728 -0.7491  0.7931
46562SOL    HW157296   8.451  10.597   9.863 -0.9009 -2.7779  1.4455
46562SOL    HW257297   8.401  10.711   9.951  1.3740 -0.9761  0.5156
46563SOL     OW57298   8.509   2.567   8.999 -0.3543  0.1637 -0.2298
46563SOL    HW157299   8.566   2.514   8.943 -0.3372  1.8727 -1.9410
46563SOL    HW257300   8.482   2.507   9.069 -0.8542 -2.2981 -2.3677
46564SOL     OW57301   5.547   3.025   0.136 -0.4033  0.2464 -0.0273
46564SOL    HW157302   5.507   2.958   0.082  2.6797 -0.7606 -1.2544
46564SOL    HW257303   5.628   3.047   0.091 -0.4578  3.6285  1.2210
46565SOL     OW57304   2.664  11.080   6.933  0.2171 -0.3591  0.3874
46565SOL    HW157305   2.608  11.005   6.956  0.7104 -0.8365  0.0643
46565SOL    HW257306   2.612  11.157   6.956 -0.4326 -0.7988  0.4170
46566SOL     OW57307  13.115  11.948   3.493 -0.2740  0.3933 -0.0456
46566SOL    HW157308  13.146  11.960   3.403  1.2982 -0.3179  0.3709
46566SOL    HW257309  13.155  12.019   3.542  0.2903 -0.2204  0.4007
46567SOL     OW57310   1.594   2.865   5.191  0.2268 -0.0866  0.0242
46567SOL    HW157311   1.663   2.886   5.254 -1.1095 -0.0460  1.5470
46567SOL    HW257312   1.531   2.937   5.199 -0.0326 -0.1330 -1.3119
46568SOL     OW57313   5.803  10.362   1.653  0.0079  0.8669 -0.2925
46568SOL    HW157314   5.826  10.269   1.663  0.1097  1.0137  1.0707
46568SOL    HW257315   5.708  10.363   1.652 -0.0025  0.7990  0.3564
46569SOL     OW57316   6.437   8.280   2.344  0.6523  0.1905 -0.1848
46569SOL    HW157317   6.515   8.228   2.327  1.2864  0.7360  0.9413
46569SOL    HW257318   6.369   8.240   2.289  1.0868 -1.8926  0.6888
46570SOL     OW57319   1.080   8.606   5.894 -0.3356  0.0163  0.1627
46570SOL    HW157320   0.999   8.572   5.932 -1.4884  1.4035 -0.9264
46570SOL    HW257321   1.086   8.563   5.808 -0.2949  0.4071 -0.0345
46571SOL     OW57322   7.572   6.322   8.660  0.0239 -0.3248  0.0444
46571SOL    HW157323   7.502   6.268   8.624 -1.2370  1.7983 -0.8932
46571SOL    HW257324   7.538   6.352   8.745 -0.2252  0.6783 -0.3930
46572SOL     OW57325   9.645   9.867   0.644  0.0079 -0.5412 -0.0087
46572SOL    HW157326   9.623   9.945   0.695  0.0526 -0.3924 -0.2150
46572SOL    HW257327   9.630   9.794   0.704 -3.0625 -0.6354 -0.7097
46573SOL     OW57328   0.709   0.217   3.778 -0.4561  0.2590 -0.6704
46573SOL    HW157329   0.645   0.168   3.830 -0.0256 -0.8437 -1.1391
46573SOL    HW257330   0.779   0.239   3.839 -0.0325 -0.8819 -0.7177
46574SOL     OW57331   3.922  11.599  10.598  0.1426  0.1116 -0.3730
46574SOL    HW157332   3.862  11.645  10.657  0.8040 -0.8337  1.0790
46574SOL    HW257333   3.895  11.508  10.603 -0.5347  0.1479 -2.4857
46575SOL     OW57334   7.092   1.804   3.781 -0.0981  0.0893  0.0413
46575SOL    HW157335   7.004   1.790   3.816  0.3504 -0.9412  0.7953
46575SOL    HW257336   7.081   1.873   3.716 -1.3575  0.4010  0.5607
46576SOL     OW57337   7.692   4.494  13.357  0.0478 -0.3594  0.1772
46576SOL    HW157338   7.739   4.545  13.422 -0.0391  2.3701 -1.7375
46576SOL    HW257339   7.603   4.488  13.391  0.1585  0.4617  0.6379
46577SOL     OW57340   0.888   7.877  13.102  0.0625 -0.3302 -0.3313
46577SOL    HW157341   0.811   7.927  13.074 -1.4630 -1.7986  1.0702
46577SOL    HW257342   0.955   7.944  13.119 -1.2197  1.0634 -0.5755
46578SOL     OW57343   9.722   3.848   2.971  0.1032 -0.2227  0.0078
46578SOL    HW157344   9.643   3.800   2.944 -0.7508  0.8860  0.4317
46578SOL    HW257345   9.729   3.919   2.908 -0.1110  0.5545  0.8381
46579SOL     OW57346   7.370   5.359  11.598 -0.4513 -0.1820  0.1938
46579SOL    HW157347   7.424   5.393  11.527  0.7447 -0.2215  1.0573
46579SOL    HW257348   7.317   5.434  11.625  0.1222  0.2305  0.2031
46580SOL     OW57349   1.742   5.294   0.375 -0.0206  0.0066  0.0229
46580SOL    HW157350   1.724   5.336   0.459 -0.5669 -1.7713  0.8632
46580SOL    HW257351   1.837   5.290   0.369  0.0180  0.0750  0.6078
46581SOL     OW57352   4.893   4.288  12.130 -0.3299  0.0141  0.2635
46581SOL    HW157353   4.819   4.312  12.074 -0.1418 -1.6465 -0.7979
46581SOL    HW257354   4.954   4.362  12.124 -0.1801 -0.2242 -2.0399
46582SOL     OW57355  13.277   0.266  12.834 -0.6305  0.0533  0.6218
46582SOL    HW157356  13.334   0.233  12.765 -1.8651 -2.2145  0.5708
46582SOL    HW257357  13.332   0.265  12.913  0.0591  0.1786  0.1511
46583SOL     OW57358   5.887   2.085  13.875 -0.1296 -0.0287  0.2384
46583SOL    HW157359   5.979   2.086  13.903  0.0387 -2.3370  0.0087
46583SOL    HW257360   5.843   2.034  13.943 -0.8859 -0.4579 -0.5709
46584SOL     OW57361   7.457   4.139   0.777  0.0369 -0.8182  0.0921
46584SOL    HW157362   7.530   4.107   0.724 -0.9662 -0.5858 -1.4733
46584SOL    HW257363   7.482   4.229   0.799  0.3416 -0.8276 -0.2016
46585SOL     OW57364   9.278  10.908  10.209 -0.0686 -0.6239 -0.4606
46585SOL    HW157365   9.193  10.945  10.232  0.4092 -0.9831  2.1207
46585SOL    HW257366   9.275  10.818  10.241  1.4079 -0.5240  0.0437
46586SOL     OW57367   1.099   3.396  12.385 -0.2467 -0.3257 -0.0745
46586SOL    HW157368   1.191   3.414  12.364  0.0930 -0.6826  1.0452
46586SOL    HW257369   1.088   3.429  12.473 -0.1877 -3.4308  1.2309
46587SOL     OW57370  13.034  11.100  11.711  0.4314 -0.1718 -0.4181
46587SOL    HW157371  13.013  11.180  11.758 -0.9449 -0.1419 -1.0271
46587SOL    HW257372  12.975  11.034  11.748  0.2683 -0.4575 -1.1650
46588SOL     OW57373   3.923  13.185   9.875 -0.5768 -0.0509  0.3222
46588SOL    HW157374   3.916  13.266   9.826 -0.6260 -0.9320 -1.1959
46588SOL    HW257375   3.996  13.199   9.936 -0.2506  0.9423 -0.2824
46589SOL     OW57376  12.329   1.062   9.992 -0.6519  0.4052 -0.9376
46589SOL    HW157377  12.402   1.003  10.010 -0.3117  0.7336 -1.2111
46589SOL    HW257378  12.326   1.121  10.068 -0.5016  0.5174 -1.0167
46590SOL     OW57379  10.754   2.186  13.596 -0.3488  0.0688 -0.2530
46590SOL    HW157380  10.690   2.237  13.646 -0.7595 -0.8725  0.2240
46590SOL    HW257381  10.799   2.250  13.541 -2.1444  0.6679 -1.0891
46591SOL     OW57382  12.427  11.100  12.251  0.0084  0.2283  0.2346
46591SOL    HW157383  12.378  11.019  12.233  0.9556 -0.1999 -0.5377
46591SOL    HW257384  12.381  11.167  12.201 -1.1252  0.3049  1.3311
46592SOL     OW57385   0.404   9.917   5.942 -0.6181 -0.3029  0.1579
46592SOL    HW157386   0.402  10.005   5.905 -0.4064 -0.6733 -0.7582
46592SOL    HW257387   0.314   9.885   5.932 -1.2595  0.5780  2.4666
46593SOL     OW57388  10.994   6.787  14.041  0.3966 -0.4578 -0.9603
46593SOL    HW157389  10.914   6.735  14.055  0.3479 -0.1999 -0.1775
46593SOL    HW257390  11.050   6.764  14.115  0.8952 -0.3589 -1.3083
46594SOL     OW57391   9.788   3.332   8.226 -0.1120 -0.7688  0.1944
46594SOL    HW157392   9.731   3.408   8.217 -0.3175 -0.9086  0.3012
46594SOL    HW257393   9.877   3.368   8.227 -0.2109 -0.5296  0.2826
46595SOL     OW57394   9.369   2.043   7.737 -0.2448  0.6627 -0.1552
46595SOL    HW157395   9.277   2.063   7.753 -0.0165  2.3701 -0.7759
46595SOL    HW257396   9.415   2.075   7.814 -0.1568 -0.3099  0.2163
46596SOL     OW57397   7.523   8.362   2.247  0.1432  0.6981 -0.5168
46596SOL    HW157398   7.606   8.325   2.276  0.0152  0.9634  0.2108
46596SOL    HW257399   7.464   8.348   2.321 -0.5823  0.1357 -1.1789
46597SOL     OW57400   3.056  11.270   8.101 -0.7075  0.2306  0.1542
46597SOL    HW157401   3.038  11.319   8.020  0.2954  0.8939  0.3147
46597SOL    HW257402   3.071  11.180   8.072  1.0877  0.7255 -0.5992
46598SOL     OW57403   9.074   2.110   2.224  0.3056 -0.1805  0.4892
46598SOL    HW157404   9.103   2.199   2.241 -0.2147 -0.2455  1.8176
46598SOL    HW257405   8.979   2.113   2.234 -0.0453 -0.3609 -1.9842
46599SOL     OW57406   2.181   8.436  13.099  0.0883  0.3486 -0.3263
46599SOL    HW157407   2.164   8.522  13.061 -0.5362 -0.2393 -1.4031
46599SOL    HW257408   2.202   8.380  13.024  0.4029 -0.4664  0.3554
46600SOL     OW57409   3.044   5.498   4.601  0.0889 -0.6783 -0.2556
46600SOL    HW157410   3.047   5.501   4.697 -1.2651  1.4862 -0.2202
46600SOL    HW257411   3.131   5.465   4.576  0.9936  0.0542  1.6838
46601SOL     OW57412  10.596  13.688   5.183  0.5547  0.5476 -0.1277
46601SOL    HW157413  10.541  13.737   5.244 -0.1044 -0.2793 -0.0365
46601SOL    HW257414  10.667  13.654   5.237  0.9343  1.2693 -0.1652
46602SOL     OW57415  13.335   7.658  12.251  0.4829  0.0166  0.3418
46602SOL    HW157416  13.270   7.643  12.320 -0.6103  2.7875  0.0326
46602SOL    HW257417  13.377   7.573  12.239 -3.0634 -1.9560  0.5509
46603SOL     OW57418   4.638   8.012  12.777 -0.3022 -0.1655  0.0243
46603SOL    HW157419   4.613   7.946  12.712 -0.0657 -0.0305 -0.2116
46603SOL    HW257420   4.585   7.993  12.854 -0.8444 -0.1121 -0.3327
46604SOL     OW57421   3.725   8.274   7.369  0.1671  0.5626  0.2255
46604SOL    HW157422   3.776   8.250   7.292  0.7357  1.4296  0.3176
46604SOL    HW257423   3.634   8.264   7.342  0.3722 -0.3771 -0.1454
46605SOL     OW57424  12.877   1.961   5.820 -0.2824 -0.2156  0.1385
46605SOL    HW157425  12.938   2.027   5.786  2.2961 -1.8192  1.3061
46605SOL    HW257426  12.879   1.974   5.915 -0.4570 -1.3622  0.3093
46606SOL     OW57427   7.037   1.281  10.551  0.3093  0.4769 -0.2648
46606SOL    HW157428   6.970   1.305  10.487  0.2366  1.6718  0.2386
46606SOL    HW257429   7.108   1.243  10.498 -0.3634  0.0510 -0.8887
46607SOL     OW57430   7.724   6.758   0.820  0.5005  0.1258  0.0865
46607SOL    HW157431   7.817   6.738   0.809  0.6707  0.9600 -0.0493
46607SOL    HW257432   7.683   6.673   0.836  1.2925 -0.2447  0.1998
46608SOL     OW57433   4.250   1.264   9.006  0.0283 -0.3458 -0.1158
46608SOL    HW157434   4.341   1.286   8.984  0.3529 -0.0714  1.3788
46608SOL    HW257435   4.229   1.322   9.080 -1.2531 -0.6496 -0.2284
46609SOL     OW57436   2.083   0.014   7.485  0.0349  0.3253  0.5248
46609SOL    HW157437   2.040   0.075   7.545  0.9907 -0.0198  1.6157
46609SOL    HW257438   2.041  -0.070   7.504 -1.4890  0.6561 -1.1858
46610SOL     OW57439  13.396  10.650  10.052 -0.3753 -0.4953 -0.6411
46610SOL    HW157440  13.456  10.610   9.990 -0.7816 -2.3490  0.1083
46610SOL    HW257441  13.311  10.647  10.008 -0.3678 -0.1777 -0.6846
46611SOL     OW57442   5.874   8.163   2.823  0.1989 -0.3652  0.1271
46611SOL    HW157443   5.859   8.165   2.917 -1.2326 -0.2697 -0.0935
46611SOL    HW257444   5.811   8.099   2.789 -0.0149  0.3450 -0.8835
46612SOL     OW57445   2.005  10.910  11.206 -0.6508 -0.0022  0.5415
46612SOL    HW157446   2.052  10.977  11.155  1.0629 -1.1483  0.5328
46612SOL    HW257447   1.967  10.958  11.279  0.9062  0.9473  0.7799
46613SOL     OW57448   7.923   3.311   7.713  0.3747 -0.1897 -0.5550
46613SOL    HW157449   7.932   3.236   7.771 -0.3146  0.7836  0.8444
46613SOL    HW257450   7.926   3.273   7.625  0.0537 -1.8525  0.1169
46614SOL     OW57451   0.449   5.078   5.168 -0.2506  0.2716  0.2097
46614SOL    HW157452   0.491   5.067   5.254  0.6086 -2.3922 -0.4273
46614SOL    HW257453   0.375   5.017   5.170  1.9114 -2.7594 -2.0577
46615SOL     OW57454  10.714   5.601   3.410  0.5257  0.2232 -0.8525
46615SOL    HW157455  10.807   5.608   3.435  0.6468 -3.1045  0.0277
46615SOL    HW257456  10.696   5.508   3.409 -3.0078  0.7688 -0.4361
46616SOL     OW57457   7.222   2.516   8.657  0.2206 -0.1850  0.4494
46616SOL    HW157458   7.179   2.477   8.733  1.2217  0.6722  1.5042
46616SOL    HW257459   7.315   2.494   8.667  0.4960  0.6860 -0.0487
46617SOL     OW57460   6.146   0.409   7.545 -0.5889  0.7311 -0.1079
46617SOL    HW157461   6.156   0.483   7.605 -0.5506  0.4217  0.2658
46617SOL    HW257462   6.052   0.394   7.542 -0.5839  0.6848 -0.0480
46618SOL     OW57463   1.048   4.233   0.330  0.6165 -0.0589 -0.2218
46618SOL    HW157464   0.954   4.249   0.340  0.5185 -0.1798 -0.9258
46618SOL    HW257465   1.068   4.263   0.242  1.2534  0.0217 -0.0488
46619SOL     OW57466   4.925   9.799   1.282  0.4073 -0.3904  0.0016
46619SOL    HW157467   4.947   9.892   1.275  0.7669 -0.5056 -0.4088
46619SOL    HW257468   4.962   9.759   1.203 -1.6885 -0.5187 -0.9745
46620SOL     OW57469  11.065  12.571   0.196 -0.2545  0.2351 -0.3403
46620SOL    HW157470  11.153  12.540   0.173 -0.1505  1.5462 -1.8305
46620SOL    HW257471  11.037  12.511   0.265  1.8710 -0.1261  0.3092
46621SOL     OW57472   6.225   2.943  12.262 -0.0592 -0.3142 -0.1966
46621SOL    HW157473   6.185   2.959  12.347  1.4940 -0.4595  0.5916
46621SOL    HW257474   6.252   3.030  12.231 -2.0248 -0.0479 -1.3078
46622SOL     OW57475   6.077  11.167  13.171 -0.1830 -0.1316 -0.5215
46622SOL    HW157476   6.060  11.120  13.253  0.1728  1.0494  0.2572
46622SOL    HW257477   6.001  11.148  13.116 -1.5939  0.8979  0.9609
46623SOL     OW57478   1.227   2.869   0.045  0.0016  0.0425 -0.0007
46623SOL    HW157479   1.263   2.866  -0.044 -0.2098  0.5268 -0.1055
46623SOL    HW257480   1.136   2.897   0.033 -0.0132  0.1579  0.3696
46624SOL     OW57481   3.108   3.429  12.930  0.1100  0.4068  0.1217
46624SOL    HW157482   3.071   3.373  12.998  1.0688  0.1605  0.4581
46624SOL    HW257483   3.177   3.376  12.890 -1.6414 -0.1888 -2.3586
46625SOL     OW57484   3.301   2.211   1.425 -0.0826 -0.1046 -0.0893
46625SOL    HW157485   3.209   2.207   1.401 -0.2605  0.4488  0.4636
46625SOL    HW257486   3.334   2.291   1.382 -0.0173  0.0317  0.2084
46626SOL     OW57487  10.588  12.839   5.887  0.0536 -0.1288  0.1711
46626SOL    HW157488  10.542  12.856   5.804  0.7757  2.2160  0.1879
46626SOL    HW257489  10.664  12.896   5.884  0.5058 -0.5612  2.1428
46627SOL     OW57490   7.383   7.680   0.628  0.0754  0.1417 -0.3526
46627SOL    HW157491   7.468   7.636   0.628 -0.3890 -0.8804  2.0208
46627SOL    HW257492   7.333   7.635   0.560  1.2680  0.5579 -1.5719
46628SOL     OW57493   1.453   7.263   5.253 -0.9529 -0.1915  0.0865
46628SOL    HW157494   1.483   7.237   5.166 -2.7316  1.5328 -1.1143
46628SOL    HW257495   1.369   7.218   5.264 -1.9891  1.5748 -0.2363
46629SOL     OW57496   0.913   2.239   7.499  0.5292  0.1012  0.4252
46629SOL    HW157497   0.972   2.313   7.517  0.0757 -0.1548  3.4810
46629SOL    HW257498   0.828   2.268   7.530 -0.1445 -0.9434 -0.3728
46630SOL     OW57499  10.997   9.157   7.187 -0.4100 -0.1840 -0.4904
46630SOL    HW157500  10.939   9.159   7.263  0.4392  0.3930  0.1624
46630SOL    HW257501  11.037   9.244   7.185  1.2667 -0.9107 -0.2350
46631SOL     OW57502  10.492   9.172   4.168  0.0646  0.3002 -0.2177
46631SOL    HW157503  10.556   9.232   4.130  0.4970 -0.4095 -0.6517
46631SOL    HW257504  10.472   9.111   4.097  0.0764 -0.4074  0.3709
46632SOL     OW57505   1.878   2.238   4.518  0.0321 -0.3449 -0.6742
46632SOL    HW157506   1.920   2.187   4.449 -0.8426 -1.4778 -0.4089
46632SOL    HW257507   1.806   2.284   4.473  0.0570 -0.3247 -0.6930
46633SOL     OW57508  12.299   1.571   3.563  0.3128 -0.7961 -0.1055
46633SOL    HW157509  12.266   1.585   3.652  0.7344 -1.3657  0.1521
46633SOL    HW257510  12.370   1.634   3.553  0.1103 -0.5735 -0.1187
46634SOL     OW57511   8.163  11.792   3.487 -0.0508  0.0314 -0.5508
46634SOL    HW157512   8.238  11.849   3.501  0.7465 -0.3484 -2.8408
46634SOL    HW257513   8.200  11.705   3.478 -0.8479 -0.2772 -0.9332
46635SOL     OW57514   8.188   0.646  13.440 -0.4691 -0.0495  0.0776
46635SOL    HW157515   8.220   0.592  13.368 -0.3002 -1.0476  0.8839
46635SOL    HW257516   8.170   0.731  13.400 -1.2861 -0.8608 -1.3295
46636SOL     OW57517   7.104   3.322   3.983  0.9577 -0.6041  0.3383
46636SOL    HW157518   7.169   3.341   4.051  0.5761 -1.0186  0.8267
46636SOL    HW257519   7.106   3.227   3.974  0.4237 -0.6163  0.3431
46637SOL     OW57520   3.883  11.415   9.708  0.3557 -0.1632  0.2273
46637SOL    HW157521   3.835  11.442   9.630  0.5668 -0.4967 -0.0187
46637SOL    HW257522   3.815  11.399   9.773  0.2022  0.5458  0.2537
46638SOL     OW57523   8.613   1.128   4.511 -0.1988  0.2853  0.4094
46638SOL    HW157524   8.646   1.176   4.587 -0.7727 -0.6900  1.2959
46638SOL    HW257525   8.613   1.193   4.440  1.0025  1.0221  1.0510
46639SOL     OW57526   2.749   5.012   8.410  0.0459 -0.2758 -0.4335
46639SOL    HW157527   2.674   5.027   8.353 -0.2710  2.2662  0.5200
46639SOL    HW257528   2.729   4.929   8.454 -2.2624  0.3506 -0.1631
46640SOL     OW57529   1.288  10.253   9.244  0.3401  0.3750 -0.1750
46640SOL    HW157530   1.352  10.227   9.309 -0.0541  2.1924  1.0396
46640SOL    HW257531   1.317  10.340   9.215 -0.8449  0.6660 -0.5614
46641SOL     OW57532  13.984   3.482   6.999  0.2787  0.3250  0.3161
46641SOL    HW157533  14.009   3.449   7.085 -1.1427  1.4051  1.1804
46641SOL    HW257534  14.062   3.526   6.966  1.1211 -0.8926  0.6234
46642SOL     OW57535  11.556  12.376   8.485  0.2980  0.1893  0.7267
46642SOL    HW157536  11.503  12.419   8.419 -2.2345 -0.5057  2.1599
46642SOL    HW257537  11.605  12.447   8.527 -0.4258  1.0554  0.1475
46643SOL     OW57538   2.184   5.689   2.870 -0.5412  0.3075 -0.3745
46643SOL    HW157539   2.243   5.719   2.940 -1.4231 -2.1481  1.5569
46643SOL    HW257540   2.098   5.720   2.897 -1.1312 -1.9629  0.5353
46644SOL     OW57541   5.922  13.988   2.132 -0.1929  0.1996  0.0526
46644SOL    HW157542   5.922  13.993   2.228  0.2513  0.8806  0.0308
46644SOL    HW257543   5.984  13.919   2.111  0.0503  0.3558  0.2506
46645SOL     OW57544   3.179   8.238   3.233 -0.2446  0.1222  0.1566
46645SOL    HW157545   3.263   8.224   3.278 -0.0362  1.0632  0.0765
46645SOL    HW257546   3.182   8.178   3.158  0.4627  0.3141  0.0251
46646SOL     OW57547   0.002  10.662   8.470 -0.7781  0.4079 -0.4572
46646SOL    HW157548  -0.022  10.711   8.549 -0.7500  0.5250 -0.5206
46646SOL    HW257549  -0.049  10.581   8.476 -1.0872  0.5971 -0.5238
46647SOL     OW57550  13.454  10.377   0.902 -0.4112  0.6993 -0.0737
46647SOL    HW157551  13.363  10.376   0.931 -0.7334  0.3041 -1.0419
46647SOL    HW257552  13.451  10.414   0.814  0.2679  0.0328 -0.3890
46648SOL     OW57553   4.298   6.527  12.663 -0.2644  0.1676  0.4280
46648SOL    HW157554   4.210   6.556  12.638  0.4418  2.0204 -0.0627
46648SOL    HW257555   4.349   6.532  12.582  0.2573 -1.0884  0.6641
46649SOL     OW57556  10.700   4.514  14.044  0.0707 -0.1783 -0.0487
46649SOL    HW157557  10.729   4.503  13.954 -0.1691  0.4637 -0.2067
46649SOL    HW257558  10.609   4.486  14.044 -0.3146  1.0034 -0.2913
46650SOL     OW57559   2.451   8.404  10.850  0.1936 -0.4571  0.5850
46650SOL    HW157560   2.499   8.487  10.840 -1.7400  0.6756 -0.0222
46650SOL    HW257561   2.461   8.381  10.942  0.0678  0.9484  0.9798
46651SOL     OW57562  10.929   1.842  13.540  0.5617 -0.1126 -0.0411
46651SOL    HW157563  10.953   1.814  13.451  1.6349 -0.9405  0.4913
46651SOL    HW257564  11.000   1.899  13.567  1.0036 -1.0526  0.8360
46652SOL     OW57565   5.560  12.927   1.743  0.3668  0.1200 -0.3013
46652SOL    HW157566   5.623  12.889   1.682 -0.4996 -0.4610 -0.8592
46652SOL    HW257567   5.475  12.906   1.705 -0.1751  0.2715  0.8003
46653SOL     OW57568   0.268  12.250   4.237  0.0387  0.1948 -0.5733
46653SOL    HW157569   0.295  12.324   4.182 -1.7482 -0.0871 -1.9020
46653SOL    HW257570   0.252  12.289   4.323 -1.8397  1.5980 -1.4998
46654SOL     OW57571   9.092  10.800   5.397 -0.5055 -0.0195 -0.5514
46654SOL    HW157572   9.036  10.723   5.401 -1.0857  0.3990 -0.5966
46654SOL    HW257573   9.032  10.875   5.402  0.1377  0.4359  1.1469
46655SOL     OW57574   9.417   8.814   1.438  0.4753  0.2616 -0.0643
46655SOL    HW157575   9.500   8.852   1.408  0.9299 -1.4019 -1.1277
46655SOL    HW257576   9.390   8.868   1.511  2.3157  1.0927  0.0593
46656SOL     OW57577   5.252   8.499   0.664  0.4179  0.4661  0.5656
46656SOL    HW157578   5.310   8.424   0.650  0.9585  0.8799  0.5468
46656SOL    HW257579   5.218   8.520   0.577 -1.1205 -0.8331  0.7985
46657SOL     OW57580  12.682   4.149   1.105  0.3420 -0.0360 -0.8311
46657SOL    HW157581  12.601   4.110   1.071  0.4405 -0.7092 -0.3251
46657SOL    HW257582  12.689   4.233   1.060 -2.4793  1.6993  1.5921
46658SOL     OW57583  11.126   8.719   3.561  0.6687  0.2503 -0.2411
46658SOL    HW157584  11.124   8.814   3.570  1.1631  0.3041 -0.6820
46658SOL    HW257585  11.064   8.688   3.628 -0.7058  0.9503 -1.1288
46659SOL     OW57586   4.093  11.081   4.772 -0.0207  0.1002 -0.3567
46659SOL    HW157587   4.121  10.990   4.776  2.9020  0.9153  0.8170
46659SOL    HW257588   4.164  11.126   4.726 -0.7913  1.9514  0.1505
46660SOL     OW57589  11.383   6.817   5.068 -0.2241 -0.1181  0.1323
46660SOL    HW157590  11.326   6.871   5.123 -0.6133  0.6465 -0.9700
46660SOL    HW257591  11.405   6.874   4.994 -1.1032 -1.6328 -1.3770
46661SOL     OW57592  10.226  10.648  13.188  0.0318 -0.3948 -0.1791
46661SOL    HW157593  10.277  10.586  13.136 -0.1054 -0.5608 -0.1215
46661SOL    HW257594  10.140  10.649  13.146  0.1364  0.0259 -0.3880
46662SOL     OW57595   3.895  12.329  13.142  0.2746 -0.4014  0.1594
46662SOL    HW157596   3.981  12.369  13.124  0.3641 -0.7722 -0.2675
46662SOL    HW257597   3.916  12.249  13.191  0.4230 -1.9663 -2.2702
46663SOL     OW57598  10.371  12.248   0.817  0.1421  0.2946  0.0739
46663SOL    HW157599  10.335  12.280   0.734 -0.7411  0.5275  0.5345
46663SOL    HW257600  10.303  12.190   0.852  0.4341  0.3298  0.7178
46664SOL     OW57601   4.488  11.255   1.598 -0.2463 -0.5479  0.3336
46664SOL    HW157602   4.481  11.317   1.671 -0.0625  0.8280 -0.7768
46664SOL    HW257603   4.405  11.263   1.551  0.5154  0.3381 -0.9284
46665SOL     OW57604   2.078   4.770   8.564 -0.3947 -0.1856  0.1192
46665SOL    HW157605   1.987   4.789   8.586 -0.6613 -1.6702  0.4284
46665SOL    HW257606   2.083   4.674   8.564  0.3839 -0.2513 -3.0362
46666SOL     OW57607   7.284  12.025   3.237 -0.5511  0.0827 -0.2836
46666SOL    HW157608   7.355  11.960   3.236 -0.0348  0.6296  0.1445
46666SOL    HW257609   7.206  11.974   3.217 -0.3030 -0.8684  0.9948
46667SOL     OW57610   1.346   9.143  13.538 -0.2690 -0.7188 -0.1014
46667SOL    HW157611   1.361   9.228  13.497 -0.3995 -1.1336 -1.0480
46667SOL    HW257612   1.254   9.144  13.564  0.0244 -0.1338  0.9821
46668SOL     OW57613   5.556   6.167  12.736  0.1896 -0.2008  0.0804
46668SOL    HW157614   5.604   6.229  12.680 -1.0452  0.5123 -0.2090
46668SOL    HW257615   5.567   6.082  12.692  0.5567  0.0830 -0.3876
46669SOL     OW57616  11.682   4.490   1.249 -0.0576  0.1084 -0.0986
46669SOL    HW157617  11.752   4.545   1.212 -0.2231  0.3182 -0.1019
46669SOL    HW257618  11.728   4.416   1.287  0.2552  0.7341  0.7795
46670SOL     OW57619  11.287   6.622   1.089  0.3666  0.0306  0.6947
46670SOL    HW157620  11.329   6.583   1.012 -0.7269  0.9517 -0.4022
46670SOL    HW257621  11.196   6.637   1.062  0.2075  1.2938  1.8162
46671SOL     OW57622   1.853   8.737  13.542  0.3862  0.2696 -0.4095
46671SOL    HW157623   1.861   8.762  13.634 -0.4989  0.5743 -0.3990
46671SOL    HW257624   1.763   8.704  13.534  0.6100 -0.1983 -1.0595
46672SOL     OW57625   5.704   6.550   2.508 -0.7658  0.6989  0.4384
46672SOL    HW157626   5.648   6.619   2.473 -1.0774  0.2612  0.0615
46672SOL    HW257627   5.775   6.541   2.445 -1.0268  0.2944  0.1972
46673SOL     OW57628   4.744  11.840   3.589 -0.1939 -0.4274  0.3355
46673SOL    HW157629   4.695  11.790   3.523  0.3576 -1.2394  0.5272
46673SOL    HW257630   4.827  11.859   3.546 -0.0237 -0.5322  0.6204
46674SOL     OW57631   5.854   8.435   4.241  0.3587 -0.1591 -0.0651
46674SOL    HW157632   5.864   8.513   4.295  0.4525  0.2315 -0.6327
46674SOL    HW257633   5.940   8.393   4.242  0.7491  0.5824 -1.0033
46675SOL     OW57634   9.612   6.473   1.245  0.2135 -0.2629  0.2631
46675SOL    HW157635   9.657   6.435   1.321  0.8949  0.3913  0.2067
46675SOL    HW257636   9.607   6.401   1.182 -2.2928 -1.4562  1.6770
46676SOL     OW57637   5.675   9.424   2.827  0.6686  0.1773  0.9774
46676SOL    HW157638   5.723   9.349   2.864  2.7715  0.8815 -0.1576
46676SOL    HW257639   5.730   9.500   2.846 -0.4453  1.1731  0.3702
46677SOL     OW57640   4.910  13.957   4.939 -0.2147 -0.8043  0.0863
46677SOL    HW157641   4.999  13.943   4.905 -0.1906  0.7628 -0.5925
46677SOL    HW257642   4.857  13.889   4.896  0.5825 -1.5423  0.2378
46678SOL     OW57643  12.335   4.837   1.458 -0.0144  0.2709  0.3579
46678SOL    HW157644  12.422   4.833   1.497 -0.3602 -0.0124  1.1085
46678SOL    HW257645  12.297   4.751   1.474 -0.1623  0.1349 -0.6246
46679SOL     OW57646   8.844   0.058   0.711 -0.2098  0.1256  0.3438
46679SOL    HW157647   8.800   0.049   0.796 -0.1370  1.8083  0.5992
46679SOL    HW257648   8.777   0.095   0.653  0.0224 -0.0930 -0.0682
46680SOL     OW57649  13.629   8.592   1.339  0.2471  0.3200 -0.3725
46680SOL    HW157650  13.608   8.684   1.319 -0.5038  0.0625 -0.7700
46680SOL    HW257651  13.662   8.595   1.429  1.0231  1.0899 -0.6606
46681SOL     OW57652   0.219  10.932   3.178 -0.3854  0.0049  0.1165
46681SOL    HW157653   0.259  10.861   3.128  0.7937  0.3210  0.5696
46681SOL    HW257654   0.169  10.888   3.247 -0.6256 -0.4035 -0.3149
46682SOL     OW57655   8.850   9.533   9.262 -0.4784  0.5927 -0.1958
46682SOL    HW157656   8.793   9.589   9.209 -2.1003 -1.0603 -0.3043
46682SOL    HW257657   8.902   9.485   9.198  0.5359  1.5565 -0.1182
46683SOL     OW57658   1.682   4.815   8.809  0.1988  0.6088  0.4020
46683SOL    HW157659   1.725   4.878   8.866  0.1715  3.4398 -2.4533
46683SOL    HW257660   1.752   4.779   8.755 -0.0275 -0.7024  0.9312
46684SOL     OW57661   4.048  12.998   2.230 -0.4735  0.2352 -0.1962
46684SOL    HW157662   4.029  12.905   2.220 -0.4209 -0.0862  2.0722
46684SOL    HW257663   3.981  13.030   2.290 -0.4323  1.6695 -0.8637
46685SOL     OW57664  12.127   2.738   1.986 -0.1281 -0.1431  0.1900
46685SOL    HW157665  12.163   2.748   1.898 -0.3102 -1.6569 -0.0971
46685SOL    HW257666  12.201   2.753   2.044  0.5650 -1.3320 -0.3284
46686SOL     OW57667  11.349  12.541  11.100  0.2605  0.2005 -0.0352
46686SOL    HW157668  11.331  12.626  11.141  2.1653  0.7125 -0.1618
46686SOL    HW257669  11.329  12.477  11.168 -0.3513  0.8140  0.3708
46687SOL     OW57670   2.821  11.467   2.956  0.0060 -0.0471  0.9582
46687SOL    HW157671   2.890  11.422   3.005 -0.5652 -2.0482  0.0244
46687SOL    HW257672   2.853  11.468   2.866 -0.4356  0.5854  0.7991
46688SOL     OW57673   5.516   1.199   0.005  0.3561  0.1442  0.1112
46688SOL    HW157674   5.599   1.186   0.051  0.0679 -0.0380  0.5796
46688SOL    HW257675   5.467   1.261   0.060  0.1699  0.2273 -0.1470
46689SOL     OW57676  11.848   9.446   9.003  0.2455  0.0760 -0.0073
46689SOL    HW157677  11.925   9.418   8.954 -0.9922 -0.1181 -1.9339
46689SOL    HW257678  11.798   9.366   9.017 -0.4921  0.4620 -0.3941
46690SOL     OW57679   9.272   2.118  12.287  0.3394 -0.2781  0.7613
46690SOL    HW157680   9.189   2.073  12.301 -0.1025  0.0622 -0.6469
46690SOL    HW257681   9.316   2.067  12.219  0.9258 -0.0010  0.9255
46691SOL     OW57682   2.700   2.307   5.726 -0.7004 -0.7662  0.2280
46691SOL    HW157683   2.736   2.321   5.814 -1.1032 -0.3142  0.3226
46691SOL    HW257684   2.777   2.295   5.671 -0.4742 -2.2363  0.8316
46692SOL     OW57685   5.146   6.758   3.172 -0.1032  0.3467  0.0334
46692SOL    HW157686   5.154   6.803   3.088 -2.1318 -0.3873 -0.6339
46692SOL    HW257687   5.177   6.670   3.155 -0.1420  0.3113  0.1464
46693SOL     OW57688  10.467   9.086   0.584 -0.0069 -0.1922 -0.1663
46693SOL    HW157689  10.484   9.042   0.501 -0.6540 -1.4936  0.3588
46693SOL    HW257690  10.379   9.122   0.574  0.7887  1.6648 -0.8542
46694SOL     OW57691  13.451   8.059   2.498 -0.0251  0.2504 -0.3326
46694SOL    HW157692  13.384   8.036   2.433 -0.0084 -1.3362  0.1703
46694SOL    HW257693  13.518   7.992   2.486  1.0578  1.2991 -0.2158
46695SOL     OW57694  11.800   3.829   5.458  0.4801  0.3625  0.0606
46695SOL    HW157695  11.753   3.910   5.437  0.8090  0.1424 -1.7104
46695SOL    HW257696  11.857   3.814   5.382 -0.4820 -2.1813 -0.2558
46696SOL     OW57697  12.722   3.665   4.045  0.1790 -0.5051  0.1473
46696SOL    HW157698  12.716   3.615   3.963 -0.9462 -0.4618  0.1916
46696SOL    HW257699  12.797   3.627   4.091  2.2621  0.9020 -1.8543
46697SOL     OW57700   3.595   3.386  11.936 -0.1795  0.0295 -0.2715
46697SOL    HW157701   3.561   3.446  11.870  0.5297  0.4141 -0.2928
46697SOL    HW257702   3.673   3.347  11.897  1.8365  2.2646  1.2719
46698SOL     OW57703  11.605   4.692  13.456 -0.2385  0.4054 -0.4380
46698SOL    HW157704  11.635   4.782  13.447  0.0413  0.2754 -0.8074
46698SOL    HW257705  11.534   4.684  13.392 -1.9794  1.0894  1.2838
46699SOL     OW57706   4.280   6.104   7.476  0.0355 -0.2565  0.5621
46699SOL    HW157707   4.228   6.085   7.398 -0.9347 -1.2832  1.4351
46699SOL    HW257708   4.370   6.107   7.444 -0.4780  1.0135 -0.8790
46700SOL     OW57709  13.836   7.641   7.078  0.4987  0.3863  0.5423
46700SOL    HW157710  13.829   7.637   7.174  2.3671 -1.1620  0.6810
46700SOL    HW257711  13.882   7.560   7.054  1.5197  1.4943 -1.5076
46701SOL     OW57712   7.320  10.959   6.734  0.4505  0.1071  0.1997
46701SOL    HW157713   7.360  10.968   6.647  0.7707 -0.7992  0.2473
46701SOL    HW257714   7.294  11.049   6.757  2.4438  0.7565  0.1506
46702SOL     OW57715   3.178   7.803   2.378 -0.8530 -0.8001  0.1622
46702SOL    HW157716   3.189   7.734   2.443 -0.1246  0.2646  1.2154
46702SOL    HW257717   3.123   7.869   2.421 -0.7162 -0.2724 -0.4517
46703SOL     OW57718   8.891  12.923  11.092  0.4185  0.4673  0.0576
46703SOL    HW157719   8.879  13.008  11.051  0.1244 -0.3684 -1.6918
46703SOL    HW257720   8.965  12.934  11.152 -0.2208  2.1722  0.5765
46704SOL     OW57721   1.285   1.836   7.243  0.0823 -0.3579  0.8561
46704SOL    HW157722   1.333   1.891   7.181  0.3015 -0.8858  0.5500
46704SOL    HW257723   1.215   1.893   7.276 -1.8671 -0.8884 -2.0066
46705SOL     OW57724  12.977   1.891   9.599  0.0169  0.1419  0.2039
46705SOL    HW157725  13.040   1.869   9.667 -0.2915 -1.7440 -0.0513
46705SOL    HW257726  12.930   1.967   9.633  0.6177 -0.0693  1.5810
46706SOL     OW57727   4.543  12.412   0.498 -0.2310 -0.5202  0.1357
46706SOL    HW157728   4.478  12.358   0.544 -0.4323 -0.1458  0.2983
46706SOL    HW257729   4.513  12.502   0.512  0.9509 -0.2544  1.2031
46707SOL     OW57730   3.283  13.154   3.246 -0.5105  0.4633  1.0616
46707SOL    HW157731   3.353  13.120   3.191  0.4454  2.0686  1.1960
46707SOL    HW257732   3.316  13.145   3.335 -1.1763 -0.2386  1.2492
46708SOL     OW57733  13.509   2.733   4.261  0.5429  0.0451 -0.1706
46708SOL    HW157734  13.434   2.785   4.289 -0.1905 -0.1322 -1.7049
46708SOL    HW257735  13.580   2.761   4.317 -0.6396  0.2929  1.2644
46709SOL     OW57736   1.790  13.965   1.803  0.1593  0.0895  0.0137
46709SOL    HW157737   1.727  14.029   1.836 -0.0893 -0.3519  0.3950
46709SOL    HW257738   1.872  14.014   1.795 -0.9433  1.7626 -4.0091
46710SOL     OW57739   6.899   1.015  13.048  0.6888  0.6393 -0.6516
46710SOL    HW157740   6.803   1.014  13.046  0.6931 -0.6630 -1.0132
46710SOL    HW257741   6.923   1.105  13.027 -0.4568  0.9748 -0.5620
46711SOL     OW57742   9.024  13.731   4.800 -0.4116 -0.0239  0.2973
46711SOL    HW157743   9.093  13.674   4.835  0.0785  1.1120  1.2589
46711SOL    HW257744   8.971  13.755   4.876 -1.9849 -0.9764 -0.4466
46712SOL     OW57745   0.946   2.008   5.029  0.3354 -0.2968  0.4991
46712SOL    HW157746   0.872   1.997   5.089 -0.8420  3.8854  0.1210
46712SOL    HW257747   1.007   2.064   5.076  1.0456  0.1603 -0.9324
46713SOL     OW57748   9.091   0.729   5.939  0.0248  0.2619  0.3492
46713SOL    HW157749   9.155   0.736   5.868  0.8957 -3.1024  0.6391
46713SOL    HW257750   9.142   0.746   6.018  0.1198 -0.4993  0.4545
46714SOL     OW57751  11.560   4.632   7.884  0.2775  0.6362  0.4286
46714SOL    HW157752  11.636   4.618   7.941  0.9475 -0.8236 -0.7688
46714SOL    HW257753  11.508   4.552   7.894 -0.0784  0.7760 -0.2906
46715SOL     OW57754   7.437   5.239   0.331  0.0222 -0.3832  0.1543
46715SOL    HW157755   7.420   5.166   0.390 -0.1647 -0.3696  0.1190
46715SOL    HW257756   7.430   5.202   0.243  2.6591 -0.9557  0.1065
46716SOL     OW57757   3.923   4.000   0.958  0.1378  0.7024 -0.2789
46716SOL    HW157758   3.970   3.957   1.030 -0.4970  0.0858 -0.2155
46716SOL    HW257759   3.982   3.992   0.883  1.0714  1.8923  0.2952
46717SOL     OW57760  13.446   6.240   9.225  0.4452 -0.8253 -0.4999
46717SOL    HW157761  13.358   6.268   9.251  0.9570  1.2078 -0.8091
46717SOL    HW257762  13.431   6.165   9.167 -1.0601 -0.7371 -0.2638
46718SOL     OW57763   3.930   2.090   5.509  0.1562 -0.2134 -0.1472
46718SOL    HW157764   3.840   2.079   5.476  0.3801 -2.1864 -0.1733
46718SOL    HW257765   3.948   2.183   5.495 -1.5640  0.0474 -0.9614
46719SOL     OW57766  13.625   4.249   3.546 -0.0680 -0.2205  0.7840
46719SOL    HW157767  13.692   4.192   3.583 -0.9644 -1.4538  0.5734
46719SOL    HW257768  13.544   4.223   3.590 -0.8011 -0.3465 -0.5704
46720SOL     OW57769   0.454   0.828   7.751  0.4475 -0.0239  0.2306
46720SOL    HW157770   0.360   0.814   7.743  0.5250  0.0726 -1.0403
46720SOL    HW257771   0.464   0.874   7.835 -0.5930 -0.3211  0.5354
46721SOL     OW57772  13.805   6.068   8.999 -0.3677  0.5051  0.2486
46721SOL    HW157773  13.897   6.043   8.990 -0.8890 -1.6008  0.2361
46721SOL    HW257774  13.768   6.003   9.059 -1.8215  1.3992  0.3845
46722SOL     OW57775  11.086   4.579   3.819 -0.8926 -0.0705 -0.4459
46722SOL    HW157776  11.028   4.566   3.744 -0.2213 -0.1915 -0.9444
46722SOL    HW257777  11.043   4.648   3.870 -0.4264  1.3306 -1.8922
46723SOL     OW57778  13.894   7.770  13.803 -0.5460 -0.0249  0.0746
46723SOL    HW157779  13.873   7.682  13.834 -0.4487 -0.1899 -0.3270
46723SOL    HW257780  13.809   7.809  13.783 -0.5340 -0.4409 -0.8633
46724SOL     OW57781  12.198  10.724   9.303 -0.3215 -0.0865  0.1399
46724SOL    HW157782  12.235  10.808   9.328 -1.0495 -0.2095  1.7704
46724SOL    HW257783  12.159  10.739   9.217  2.3354  0.3554 -1.0863
46725SOL     OW57784   2.020   3.314   3.506 -0.4851 -0.0410  0.4271
46725SOL    HW157785   2.064   3.235   3.538  2.3313  1.2427  0.0564
46725SOL    HW257786   1.978   3.351   3.583  1.8097  0.2641  1.6337
46726SOL     OW57787   6.801   2.526  11.692  0.0775 -0.0803 -0.3532
46726SOL    HW157788   6.748   2.446  11.692 -0.1921  0.0938  0.6248
46726SOL    HW257789   6.805   2.553  11.783 -0.8943  1.7254 -0.8059
46727SOL     OW57790   5.842  11.060   4.333 -0.1697  0.1381 -0.7249
46727SOL    HW157791   5.933  11.029   4.335 -0.3114 -0.3523  2.1913
46727SOL    HW257792   5.797  10.996   4.277  0.8393 -0.9690 -0.3323
46728SOL     OW57793   0.259   7.140   9.218  0.2529 -0.0441  0.1587
46728SOL    HW157794   0.319   7.202   9.176  0.6176  0.0234  0.7587
46728SOL    HW257795   0.172   7.170   9.191  0.4594  0.2427 -0.2098
46729SOL     OW57796   9.452  10.617   9.920 -0.7243  0.2030  0.8072
46729SOL    HW157797   9.512  10.570   9.863  0.4765  1.1708  1.2220
46729SOL    HW257798   9.425  10.553   9.985  0.9402  0.0706  1.4130
46730SOL     OW57799   2.575   0.520   4.088 -0.2198  0.4032 -0.3201
46730SOL    HW157800   2.632   0.522   4.165  0.2025  1.3160 -0.6422
46730SOL    HW257801   2.590   0.433   4.049 -1.1965 -0.4744  1.1618
46731SOL     OW57802  10.072   2.149  12.969  0.2838  0.2472  1.0376
46731SOL    HW157803  10.075   2.083  13.039 -2.8317 -2.9010 -1.4246
46731SOL    HW257804  10.159   2.145  12.929 -0.0720 -3.5935  0.1947
46732SOL     OW57805   8.505   3.092  12.229 -0.4471  0.0246  0.0961
46732SOL    HW157806   8.560   3.086  12.151 -1.1019 -0.9937 -0.3166
46732SOL    HW257807   8.563   3.068  12.301  0.0868  0.6809 -0.1105
46733SOL     OW57808  13.235   0.334   1.211 -0.5532  0.1961 -0.0692
46733SOL    HW157809  13.305   0.294   1.160 -1.2303 -0.6445 -0.3690
46733SOL    HW257810  13.158   0.329   1.155 -0.6244  2.1767 -0.2038
46734SOL     OW57811   6.516   8.023   0.134  0.2385  0.1856 -0.2967
46734SOL    HW157812   6.580   7.997   0.068  1.7621  0.3860  1.0262
46734SOL    HW257813   6.563   8.086   0.189 -1.8842  2.2554 -0.6886
46735SOL     OW57814   9.555   5.894  10.371 -0.1735  0.4478  0.1790
46735SOL    HW157815   9.559   5.986  10.397 -1.3981  0.1888  1.3879
46735SOL    HW257816   9.462   5.872  10.374 -0.1077 -0.3559 -1.9197
46736SOL     OW57817  12.552  13.037  10.448 -0.7619  0.1397  0.7958
46736SOL    HW157818  12.552  12.941  10.444 -0.3391  0.1363  0.7951
46736SOL    HW257819  12.637  13.062  10.412 -1.2181  0.5521 -0.0210
46737SOL     OW57820  11.364   4.009   8.239 -0.1443  0.1825  0.4009
46737SOL    HW157821  11.401   4.039   8.322 -1.1116  1.0462  0.5447
46737SOL    HW257822  11.271   3.998   8.257  0.0741 -2.6540  0.2522
46738SOL     OW57823   5.066  10.669   7.639  0.7305 -0.4273  0.5711
46738SOL    HW157824   5.042  10.658   7.546 -0.1714  0.2643  0.7069
46738SOL    HW257825   5.159  10.648   7.642  0.7025 -0.7751 -0.4390
46739SOL     OW57826  11.392   0.288   6.184 -0.0535  0.2561  0.2606
46739SOL    HW157827  11.419   0.277   6.093 -1.4708  0.5838 -0.2294
46739SOL    HW257828  11.454   0.352   6.220  1.2337 -0.7373 -0.1071
46740SOL     OW57829   8.312  13.719   7.357  0.2052  0.3197 -0.0277
46740SOL    HW157830   8.296  13.645   7.298 -1.5693  1.9822 -1.7847
46740SOL    HW257831   8.282  13.795   7.308 -1.9997  1.7829  3.2430
46741SOL     OW57832  10.696   3.918   7.050  0.2729  0.0020 -0.3465
46741SOL    HW157833  10.634   3.856   7.088  0.2829  1.8433  3.0769
46741SOL    HW257834  10.781   3.894   7.089  0.8504  0.3642 -1.3359
46742SOL     OW57835   7.584   7.782   4.725 -0.3491 -0.5466 -0.5644
46742SOL    HW157836   7.590   7.710   4.662 -0.0230 -1.7617  0.8116
46742SOL    HW257837   7.513   7.836   4.691  1.4302  0.2894 -3.3730
46743SOL     OW57838   3.494   5.541   6.202  0.0681  0.0553 -0.0385
46743SOL    HW157839   3.492   5.628   6.242  1.4104  0.7169 -1.2978
46743SOL    HW257840   3.578   5.504   6.227 -0.1025 -0.5061 -0.2613
46744SOL     OW57841   5.870   2.985   9.794  0.0919  0.0118  0.0874
46744SOL    HW157842   5.880   2.932   9.715  0.1553  1.7735 -1.1327
46744SOL    HW257843   5.791   2.949   9.836 -0.5988 -0.2619 -1.3660
46745SOL     OW57844   0.742   9.103  13.478 -0.0466  0.3322  0.2916
46745SOL    HW157845   0.711   9.024  13.522 -0.2563 -0.4008 -1.1166
46745SOL    HW257846   0.663   9.146  13.447  0.1985 -0.8432 -2.1348
46746SOL     OW57847   6.043   3.238  12.277 -0.6705 -0.6009 -0.6741
46746SOL    HW157848   6.114   3.216  12.338  0.5575 -1.2794 -2.2771
46746SOL    HW257849   6.016   3.326  12.302  0.1412 -0.6660  0.5170
46747SOL     OW57850   0.816  12.223   1.550 -0.0731  0.3132  0.1846
46747SOL    HW157851   0.778  12.296   1.600  0.5184  0.9915 -0.3507
46747SOL    HW257852   0.870  12.265   1.483  0.3469 -0.6206 -0.0718
46748SOL     OW57853  10.154  13.948   4.355  0.0421 -0.3015 -0.4152
46748SOL    HW157854  10.131  14.005   4.428  1.5934 -2.1674  1.6663
46748SOL    HW257855  10.249  13.957   4.346  0.0042 -0.8141 -1.6075
46749SOL     OW57856  13.050  11.543   8.585  0.7675  0.4334 -0.4772
46749SOL    HW157857  13.030  11.477   8.519  0.5591 -0.7235  0.7064
46749SOL    HW257858  13.011  11.623   8.551 -2.6693 -0.8929 -0.0692
46750SOL     OW57859  11.407   9.646   3.437 -0.1472  0.4287 -0.0569
46750SOL    HW157860  11.456   9.723   3.408  0.8080 -0.7471 -1.7463
46750SOL    HW257861  11.315   9.671   3.427  0.0686  2.0241  1.4042
46751SOL     OW57862  11.303   3.833   4.587  0.9022  0.1188  0.2196
46751SOL    HW157863  11.367   3.830   4.659 -0.4350  0.2641  1.4455
46751SOL    HW257864  11.296   3.926   4.564 -0.1219  0.3113  1.2582
46752SOL     OW57865  12.390   7.906   2.426 -0.5701  0.0087  0.4864
46752SOL    HW157866  12.462   7.885   2.366 -1.1170 -1.1807  0.2140
46752SOL    HW257867  12.323   7.840   2.407 -1.7168  1.0617  0.7778
46753SOL     OW57868   2.943  13.449  10.765 -0.3393  0.2578 -0.2075
46753SOL    HW157869   3.003  13.420  10.833 -2.3209 -1.4198  0.9817
46753SOL    HW257870   2.929  13.542  10.782  0.6464  0.2914  0.4837
46754SOL     OW57871   6.946  13.925   0.446 -0.1992  0.5576  0.4998
46754SOL    HW157872   6.891  13.847   0.455 -0.0928  0.5279  0.9360
46754SOL    HW257873   7.034  13.890   0.428 -0.6676  0.6365 -2.3878
46755SOL     OW57874   1.983   3.869   6.202  0.2229 -0.1161  0.2034
46755SOL    HW157875   1.953   3.822   6.124  0.0728  0.2222  0.0550
46755SOL    HW257876   2.073   3.838   6.215  0.8296  1.0119 -1.0516
46756SOL     OW57877   4.047   1.784   5.724 -0.3563  0.9485 -0.6474
46756SOL    HW157878   4.080   1.701   5.758 -0.3852  1.2053  0.0170
46756SOL    HW257879   3.955   1.786   5.750  0.0934  2.0263  1.0093
46757SOL     OW57880   6.550   7.343   0.522  0.0204  0.4604 -0.1033
46757SOL    HW157881   6.621   7.363   0.583  0.8266  1.5077 -1.3307
46757SOL    HW257882   6.587   7.280   0.461 -0.8447 -0.7350  0.5647
46758SOL     OW57883   1.437  13.700   2.594  0.0663  0.2757 -0.2188
46758SOL    HW157884   1.379  13.688   2.668 -1.9523  0.6168 -1.6575
46758SOL    HW257885   1.413  13.631   2.533 -1.0813  2.2244 -2.1398
46759SOL     OW57886   0.317   8.574   1.595 -0.4734  0.5729  0.4235
46759SOL    HW157887   0.310   8.521   1.674 -0.9513  0.0089  0.0159
46759SOL    HW257888   0.411   8.587   1.583 -0.4139  3.3059  2.7819
46760SOL     OW57889   8.238   2.176   7.421 -0.1331  0.2761  0.2383
46760SOL    HW157890   8.318   2.199   7.468  0.9499  1.7446 -2.1113
46760SOL    HW257891   8.238   2.081   7.417  0.9796  0.2195  1.1630
46761SOL     OW57892   3.127  11.567   3.343  0.2981  0.7589 -0.0781
46761SOL    HW157893   3.208  11.553   3.391 -1.1635 -3.6931  1.6071
46761SOL    HW257894   3.078  11.630   3.397  0.8767  0.0152  1.3604
46762SOL     OW57895  10.164  12.983   1.754 -0.0959 -0.2268  0.1619
46762SOL    HW157896  10.182  13.036   1.831  0.6534  2.9087 -1.9844
46762SOL    HW257897  10.069  12.968   1.757 -0.1868  0.4986  1.2588
46763SOL     OW57898   4.177   0.023  13.068  0.0869 -0.5152  0.4751
46763SOL    HW157899   4.196  -0.069  13.051 -1.1586 -0.7390  0.2376
46763SOL    HW257900   4.207   0.037  13.158  0.9739 -0.9471  0.2558
46764SOL     OW57901  10.352   9.947   0.848 -1.0294  0.4576  0.0974
46764SOL    HW157902  10.258   9.929   0.852 -0.5539 -2.1580  2.4741
46764SOL    HW257903  10.394   9.863   0.865  1.8366  1.3262 -1.8623
46765SOL     OW57904   4.847   0.185   8.538  0.7298 -0.0787 -0.2221
46765SOL    HW157905   4.847   0.144   8.625 -0.8383 -1.0392 -0.6445
46765SOL    HW257906   4.758   0.173   8.506  0.2618  3.3959 -0.5327
46766SOL     OW57907   9.783  13.752   1.715  0.6655  0.1351  0.3553
46766SOL    HW157908   9.765  13.845   1.702 -0.9390 -0.1460  0.4389
46766SOL    HW257909   9.856  13.751   1.777  1.6600  1.3321 -0.7248
46767SOL     OW57910  10.877   6.301   0.202 -0.3031  0.1260 -0.8488
46767SOL    HW157911  10.860   6.359   0.276  0.4611 -0.7607  0.0438
46767SOL    HW257912  10.950   6.342   0.156 -1.3851  1.1846 -1.7000
46768SOL     OW57913   2.518  13.689   8.920  0.1318  0.1861 -0.2463
46768SOL    HW157914   2.436  13.724   8.953 -0.2089  0.0985 -0.9853
46768SOL    HW257915   2.549  13.755   8.857  0.6852  0.2740  0.1063
46769SOL     OW57916  10.315   5.010  10.662  0.3238 -0.1513  0.3311
46769SOL    HW157917  10.389   5.057  10.624  0.7263  1.4415  2.8722
46769SOL    HW257918  10.337   4.918  10.651  2.7075  0.2859  0.9561
46770SOL     OW57919   3.119   2.950   6.918  0.3762  0.6271 -0.0777
46770SOL    HW157920   3.095   2.857   6.920  0.4736  0.6106  0.4872
46770SOL    HW257921   3.138   2.971   7.009  0.4878  1.1692 -0.2272
46771SOL     OW57922   9.613   2.588  10.814 -0.0448  0.2528 -0.2000
46771SOL    HW157923   9.548   2.622  10.876 -1.4253 -1.5726 -0.5605
46771SOL    HW257924   9.659   2.666  10.782 -0.2777  1.3735  1.9969
46772SOL     OW57925   7.702   2.666   5.846 -0.3153 -0.1519  0.5222
46772SOL    HW157926   7.626   2.712   5.810  0.5724  0.7126 -0.3181
46772SOL    HW257927   7.737   2.727   5.912  0.2061 -0.1054  0.2115
46773SOL     OW57928   1.661   7.370   1.234  0.2386  0.1290 -0.4622
46773SOL    HW157929   1.679   7.463   1.246 -0.7363  0.4371 -1.2610
46773SOL    HW257930   1.734   7.339   1.180  0.7888  0.3224  0.1533
46774SOL     OW57931   4.060   5.448   0.438  0.4677 -0.0345 -0.2122
46774SOL    HW157932   4.142   5.484   0.473  0.6249  0.1611 -0.7724
46774SOL    HW257933   4.087   5.371   0.389  0.3463  0.1523 -0.5797
46775SOL     OW57934   5.267   3.923  11.301 -0.0461 -0.1307 -0.0403
46775SOL    HW157935   5.211   3.911  11.225 -1.0778 -0.3600  0.7376
46775SOL    HW257936   5.333   3.987  11.273  0.1094 -0.8396 -1.3829
46776SOL     OW57937   9.213  12.504   8.381  0.2170 -0.0355 -0.2560
46776SOL    HW157938   9.214  12.411   8.357  0.4135 -0.0737 -0.0920
46776SOL    HW257939   9.199  12.549   8.297 -1.4451 -0.2795 -0.1444
46777SOL     OW57940  11.619   9.916   5.076  0.0502  0.5032  0.0882
46777SOL    HW157941  11.538   9.894   5.030  0.5612  1.3276 -1.2676
46777SOL    HW257942  11.676   9.841   5.062 -0.2023  0.2531  0.3841
46778SOL     OW57943  10.193  12.778   2.578 -0.2101  0.8837  0.0337
46778SOL    HW157944  10.186  12.752   2.486  0.9640 -1.1225  0.4645
46778SOL    HW257945  10.195  12.874   2.575 -1.2634  0.9023 -1.9238
46779SOL     OW57946  11.907   8.376   7.699 -0.1321  0.1546  0.1422
46779SOL    HW157947  11.844   8.304   7.693 -0.5635  0.4115  1.3263
46779SOL    HW257948  11.879   8.437   7.630 -1.2862  0.3315  0.7428
46780SOL     OW57949   2.331  10.655  10.374  0.1265 -0.2621  0.1099
46780SOL    HW157950   2.366  10.568  10.353 -2.8111 -1.9464  1.4856
46780SOL    HW257951   2.332  10.658  10.470 -0.1617  1.0708  0.0834
46781SOL     OW57952  10.102   9.250   6.616 -0.5293  0.1700  0.2741
46781SOL    HW157953  10.173   9.313   6.613 -0.3981  0.1168  1.6628
46781SOL    HW257954  10.141   9.171   6.653 -0.9570 -0.3582 -0.3791
46782SOL     OW57955   2.515  10.053   5.482 -0.4524 -0.2354 -0.0911
46782SOL    HW157956   2.439   9.995   5.477 -1.0492  0.4511  0.6453
46782SOL    HW257957   2.490  10.120   5.545  0.9998 -0.3156  0.6225
46783SOL     OW57958   5.687  10.532  13.503  0.0806 -0.1730 -0.1970
46783SOL    HW157959   5.638  10.583  13.439 -1.5212 -1.9437 -0.4602
46783SOL    HW257960   5.774  10.572  13.504 -0.5901  1.4343 -1.6383
46784SOL     OW57961   3.570   3.792   9.457  0.2447 -0.5914  0.3781
46784SOL    HW157962   3.543   3.849   9.529 -0.0907 -0.8939  0.4914
46784SOL    HW257963   3.659   3.822   9.436 -0.0298  0.1570  0.2508
46785SOL     OW57964   1.340  10.397   5.892 -0.4196  0.2060 -0.0258
46785SOL    HW157965   1.385  10.451   5.957 -0.3266 -1.0863  1.0335
46785SOL    HW257966   1.286  10.337   5.944  1.2087 -2.2513 -0.9607
46786SOL     OW57967   6.658  10.334   3.306  0.5079 -0.6233 -0.0666
46786SOL    HW157968   6.701  10.321   3.390 -0.2273 -0.6765  0.3111
46786SOL    HW257969   6.589  10.397   3.324 -0.1917 -1.2606 -0.4449
46787SOL     OW57970   6.457  13.773   4.067  0.6291 -0.3991 -0.8068
46787SOL    HW157971   6.503  13.854   4.045 -0.1243 -0.1813 -1.6274
46787SOL    HW257972   6.394  13.760   3.995 -1.0195 -0.3620  0.5617
46788SOL     OW57973   8.291   6.720   5.288  0.4107 -0.5133  0.5119
46788SOL    HW157974   8.314   6.811   5.306 -0.2073 -0.8198  3.2419
46788SOL    HW257975   8.346   6.696   5.214  0.6168  2.0424 -0.2807
46789SOL     OW57976   3.805   8.830   8.410  0.0235 -0.3230 -0.0093
46789SOL    HW157977   3.841   8.765   8.348 -1.2114 -0.2381 -0.8557
46789SOL    HW257978   3.808   8.912   8.362  0.0207 -0.0555  0.4470
46790SOL     OW57979  13.179   5.994   7.641  0.3328 -0.3907 -0.0986
46790SOL    HW157980  13.222   5.964   7.561 -0.2398 -1.1709 -0.1234
46790SOL    HW257981  13.171   5.915   7.695  1.2373  0.2184  0.9868
46791SOL     OW57982   5.563   3.987   5.070  0.0487 -0.3637  0.1808
46791SOL    HW157983   5.619   3.932   5.015  0.2772  0.1397 -0.0920
46791SOL    HW257984   5.505   3.924   5.115 -1.4696 -0.7190 -2.0776
46792SOL     OW57985  12.983  11.456   6.811  0.0373  0.4211 -0.2069
46792SOL    HW157986  13.004  11.396   6.882 -0.3785  0.8850  0.3172
46792SOL    HW257987  12.900  11.495   6.836  1.0244  2.3625  0.2315
46793SOL     OW57988  10.237   1.403   5.360  0.1546 -0.1346 -0.3546
46793SOL    HW157989  10.179   1.448   5.421  2.1334 -1.2423  2.5460
46793SOL    HW257990  10.188   1.324   5.335 -0.0803 -0.4780  1.1036
46794SOL     OW57991   9.747  12.680   9.283 -0.0678  0.1649  0.1581
46794SOL    HW157992   9.729  12.734   9.360  1.0104  1.6055 -0.5560
46794SOL    HW257993   9.677  12.703   9.221  0.2328  0.5582 -0.0422
46795SOL     OW57994   4.475   5.597  11.875  0.1945 -0.2216 -0.6686
46795SOL    HW157995   4.398   5.649  11.898  1.8157  1.6102  0.9801
46795SOL    HW257996   4.529   5.656  11.822  1.4334 -0.6920  0.0188
46796SOL     OW57997   6.521   4.886   4.905  0.5422 -0.3428 -0.2344
46796SOL    HW157998   6.591   4.950   4.894  1.9910 -1.6957  0.6923
46796SOL    HW257999   6.490   4.900   4.995  0.7235 -0.7948 -0.0995
46797SOL     OW58000   9.397  13.717   4.093 -0.2494 -0.4619  0.0500
46797SOL    HW158001   9.367  13.746   4.007  1.1505  1.7217  0.2467
46797SOL    HW258002   9.441  13.793   4.131 -0.6854 -1.4032  2.6577
46798SOL     OW58003   0.044   0.319   0.101 -0.1836 -0.8417 -0.1407
46798SOL    HW158004   0.063   0.410   0.080 -1.9999 -0.5478 -0.6968
46798SOL    HW258005   0.060   0.271   0.019  1.7697 -1.2245  0.4249
46799SOL     OW58006   3.781  13.262  13.721  0.8982 -0.2622  0.0563
46799SOL    HW158007   3.846  13.293  13.783  2.0501 -1.4968 -0.4880
46799SOL    HW258008   3.719  13.212  13.774 -0.3353  1.8945  0.7575
46800SOL     OW58009   6.316   9.161   4.165  0.8356  0.4266  0.2872
46800SOL    HW158010   6.357   9.078   4.141  1.5009  0.9539 -0.4524
46800SOL    HW258011   6.256   9.180   4.093  1.4751  1.1046 -0.0780
46801SOL     OW58012   4.962   7.535   7.335 -0.6526  0.0817 -0.0587
46801SOL    HW158013   4.981   7.470   7.267  1.1114  0.5104 -0.0183
46801SOL    HW258014   5.012   7.506   7.411  0.5557  1.7069 -0.1831
46802SOL     OW58015  11.252  13.400   2.111 -0.4498 -0.3530 -0.0318
46802SOL    HW158016  11.315  13.401   2.039 -1.6274 -1.0421 -1.1239
46802SOL    HW258017  11.263  13.484   2.154  0.1921  0.1452 -1.1212
46803SOL     OW58018   8.348   1.347  12.955  0.2208  0.5624 -0.4056
46803SOL    HW158019   8.388   1.353  12.868  0.4416  0.1423 -0.3351
46803SOL    HW258020   8.303   1.431  12.966  0.0528  0.5543 -0.9925
46804SOL     OW58021   7.820   6.974  10.394 -0.0588 -0.0235  0.0170
46804SOL    HW158022   7.844   7.020  10.475 -0.1260  1.3987 -0.7392
46804SOL    HW258023   7.841   6.882  10.412 -2.4550 -0.1919  2.5523
46805SOL     OW58024   0.305   1.237   2.816 -0.1749 -0.7932  0.1356
46805SOL    HW158025   0.319   1.314   2.761 -3.7405 -0.4525 -0.5543
46805SOL    HW258026   0.351   1.166   2.770  1.8882  0.5783 -0.0225
46806SOL     OW58027   1.276   5.095  13.407 -0.0882  0.7059 -0.2543
46806SOL    HW158028   1.366   5.096  13.376 -0.7631  0.8728 -2.4288
46806SOL    HW258029   1.242   5.182  13.384 -1.1455  0.2045 -0.6584
46807SOL     OW58030   5.058   3.703   6.092  0.8018 -0.4097  0.9059
46807SOL    HW158031   4.970   3.727   6.121  1.0968  1.5302  0.3158
46807SOL    HW258032   5.056   3.607   6.087 -1.9022 -0.3828 -0.8901
46808SOL     OW58033   2.606  10.048  12.749 -0.1104  0.3317 -0.0433
46808SOL    HW158034   2.624  10.027  12.657 -0.1454 -0.1682  0.0610
46808SOL    HW258035   2.632  10.139  12.758  0.5614  0.1769 -0.3751
46809SOL     OW58036  10.442  12.231  11.508  0.4895 -0.0985 -0.0863
46809SOL    HW158037  10.509  12.258  11.571  1.3849  0.0233 -1.0580
46809SOL    HW258038  10.401  12.312  11.480 -0.5281 -0.2189  0.9708
46810SOL     OW58039   6.475   4.986  12.075 -0.5796  0.2275  0.0748
46810SOL    HW158040   6.558   5.032  12.061 -0.6627 -0.0865 -1.6127
46810SOL    HW258041   6.501   4.896  12.096 -0.4539 -0.3352 -2.2185
46811SOL     OW58042   1.141   2.706   6.372 -0.1239  0.1809 -0.3027
46811SOL    HW158043   1.176   2.795   6.367 -0.1887  0.1383 -1.9731
46811SOL    HW258044   1.131   2.679   6.281 -1.2378 -1.1046  0.1722
46812SOL     OW58045  10.814   2.523   0.687  0.3273 -0.3351  0.5033
46812SOL    HW158046  10.837   2.528   0.780  1.5267  0.0899  0.2001
46812SOL    HW258047  10.894   2.492   0.644 -0.1283 -0.2474 -0.4289
46813SOL     OW58048  12.762   8.972   9.492 -0.1673 -0.2119 -0.0011
46813SOL    HW158049  12.706   8.894   9.494  0.6337 -0.9292 -2.3347
46813SOL    HW258050  12.754   9.005   9.403  1.6946  0.7130  0.1279
46814SOL     OW58051   8.292  12.761  10.354  0.7677  0.0884  0.2695
46814SOL    HW158052   8.295  12.843  10.402  1.0536 -0.5345  1.3467
46814SOL    HW258053   8.360  12.769  10.287  1.7733  0.1815  1.2817
46815SOL     OW58054   2.752   5.241   6.345 -0.2697  0.1361 -0.3869
46815SOL    HW158055   2.780   5.307   6.281  2.5524 -0.4027  0.1722
46815SOL    HW258056   2.745   5.288   6.428  1.6444 -0.1759 -0.0087
46816SOL     OW58057  12.177   5.369  11.287 -0.6008 -0.0688 -0.4546
46816SOL    HW158058  12.134   5.355  11.371 -0.6796  0.8956 -0.3256
46816SOL    HW258059  12.226   5.289  11.272 -0.3585 -0.1388  0.6467
46817SOL     OW58060  12.447   3.001   5.504 -0.3391  0.2434  0.1778
46817SOL    HW158061  12.407   2.927   5.550 -1.1605  1.4627  1.4793
46817SOL    HW258062  12.516   3.032   5.562 -0.6205  1.0786  0.0849
46818SOL     OW58063   0.485   7.066   0.879 -0.5951 -0.1472  0.3861
46818SOL    HW158064   0.527   7.149   0.902  0.1896 -0.6561  0.8098
46818SOL    HW258065   0.556   7.003   0.873 -1.4249 -1.4854  3.1305
46819SOL     OW58066   3.554   5.724   1.288 -0.3326 -0.2515 -0.3109
46819SOL    HW158067   3.571   5.802   1.235 -0.2325  0.1152  0.2514
46819SOL    HW258068   3.560   5.651   1.226 -1.4871  0.2606 -1.0771
46820SOL     OW58069   8.159   2.525   2.365 -0.2822 -0.2161 -0.1913
46820SOL    HW158070   8.104   2.579   2.308 -0.2176 -0.9915 -1.0132
46820SOL    HW258071   8.241   2.515   2.317 -0.5908 -1.7321 -0.4692
46821SOL     OW58072   5.627   7.242   5.853 -0.1424  0.1208 -0.3020
46821SOL    HW158073   5.618   7.337   5.862 -1.6604 -0.0082 -0.2642
46821SOL    HW258074   5.554   7.206   5.903  0.6213 -1.0877 -0.0244
46822SOL     OW58075   3.203  11.709  10.646 -0.2875  0.0883 -0.1049
46822SOL    HW158076   3.149  11.666  10.580  0.9537  1.6128 -2.2394
46822SOL    HW258077   3.162  11.795  10.658  0.6263  0.5856 -0.4403
46823SOL     OW58078   1.909   6.906   6.678 -0.1070  0.0777  0.2271
46823SOL    HW158079   1.855   6.909   6.599 -0.4642  0.5690  0.4817
46823SOL    HW258080   1.907   6.814   6.704 -0.4999  0.0227  0.0125
46824SOL     OW58081   1.658  13.661   1.463 -0.0623 -0.0414 -0.2195
46824SOL    HW158082   1.655  13.578   1.416  1.2605 -0.9281  1.1574
46824SOL    HW258083   1.623  13.641   1.549  1.1732  0.5597  0.4538
46825SOL     OW58084  11.548  13.303   9.685 -0.3142 -0.6349 -0.4969
46825SOL    HW158085  11.584  13.301   9.774 -0.2761 -0.5381 -0.5091
46825SOL    HW258086  11.481  13.235   9.684  1.2529 -2.2299 -1.0758
46826SOL     OW58087  12.185  10.918   9.024  0.0405  0.0679  0.1632
46826SOL    HW158088  12.098  10.957   9.026 -0.1411 -0.1576 -1.8847
46826SOL    HW258089  12.244  10.991   9.040 -0.4555  0.5024  0.0421
46827SOL     OW58090   5.617   7.492   6.155 -0.3693 -0.3363 -0.5483
46827SOL    HW158091   5.671   7.552   6.206  1.0277 -1.3143 -0.8378
46827SOL    HW258092   5.639   7.405   6.188 -2.8310 -0.7320  0.3108
46828SOL     OW58093  10.346  13.668   8.150  0.2710 -0.1568 -0.2170
46828SOL    HW158094  10.428  13.705   8.182 -0.5172  0.6852  0.9302
46828SOL    HW258095  10.372  13.589   8.102  1.6896 -0.2964  0.7145
46829SOL     OW58096   4.087   7.292  10.140  0.2282 -0.0995  0.1646
46829SOL    HW158097   4.133   7.285  10.224 -1.3061 -1.6511  0.9347
46829SOL    HW258098   4.097   7.384  10.115  2.5981 -0.0827  0.9111
46830SOL     OW58099   6.975  10.656   9.416 -0.1518  0.2010  0.5725
46830SOL    HW158100   6.995  10.565   9.440  0.7463  0.4486  0.7950
46830SOL    HW258101   6.880  10.663   9.429 -0.1620 -0.5703  1.0250
46831SOL     OW58102   5.011  10.392  11.068  0.8483  0.5802 -0.5888
46831SOL    HW158103   5.022  10.395  11.163  0.1126 -3.1737 -0.2208
46831SOL    HW258104   4.916  10.398  11.055  0.7834 -0.8278 -0.8848
46832SOL     OW58105  12.787  12.309   8.486  0.2712 -0.1139  0.0434
46832SOL    HW158106  12.730  12.373   8.528  2.6786  0.2548  3.0444
46832SOL    HW258107  12.857  12.361   8.447  1.1767 -0.7553  0.7655
46833SOL     OW58108  11.230   0.272   9.203 -0.1256 -0.0640 -0.1264
46833SOL    HW158109  11.288   0.199   9.224  1.7356  1.0777 -1.1092
46833SOL    HW258110  11.283   0.350   9.217 -1.8192  1.0990  0.0852
46834SOL     OW58111  13.854   4.504   8.768 -0.4883  0.0511  0.2179
46834SOL    HW158112  13.869   4.421   8.722  1.1146 -0.5536  1.7513
46834SOL    HW258113  13.902   4.569   8.716 -0.1949 -0.3171  0.0230
46835SOL     OW58114   6.278   7.089   2.031 -0.5132  0.3178 -0.1075
46835SOL    HW158115   6.191   7.105   1.995 -0.4169  0.3388 -0.3359
46835SOL    HW258116   6.263   7.043   2.113 -0.6853 -1.0142 -0.8596
46836SOL     OW58117   9.770   0.118  13.500  0.1751  0.0540  0.3030
46836SOL    HW158118   9.760   0.142  13.592  1.6501 -1.8604  1.0064
46836SOL    HW258119   9.687   0.144  13.460 -0.6749  0.5215  2.2481
46837SOL     OW58120   1.090  11.876   5.084  0.2037 -0.1174 -0.3712
46837SOL    HW158121   1.163  11.921   5.041  0.1562 -1.1662 -1.5900
46837SOL    HW258122   1.013  11.898   5.032  0.2577 -1.9814 -1.3326
46838SOL     OW58123   3.470  12.521   1.424 -0.1192 -0.0368  0.0369
46838SOL    HW158124   3.554  12.556   1.395 -0.3407  0.2569 -0.2465
46838SOL    HW258125   3.409  12.594   1.417 -0.5975 -0.4843 -0.6206
46839SOL     OW58126   1.244   7.923   9.983  0.3527  0.4494  0.7048
46839SOL    HW158127   1.337   7.901   9.993  0.1929 -0.8543 -0.3464
46839SOL    HW258128   1.199   7.840   9.998 -0.6981  1.1681  1.6779
46840SOL     OW58129  10.649   8.883   0.927 -0.4894 -0.4035 -0.4699
46840SOL    HW158130  10.683   8.898   1.015  0.1772 -1.4495 -0.5242
46840SOL    HW258131  10.561   8.848   0.941  0.1520 -1.9865 -0.1221
46841SOL     OW58132   9.502   2.624   5.312 -0.3405 -0.0008 -0.0921
46841SOL    HW158133   9.413   2.655   5.298 -0.1802  0.3254 -0.3864
46841SOL    HW258134   9.513   2.553   5.248  0.5243  1.7428 -1.9713
46842SOL     OW58135   7.289  10.461  11.808 -0.1670 -0.4549 -0.1157
46842SOL    HW158136   7.296  10.366  11.806 -2.1388 -0.6250 -1.0483
46842SOL    HW258137   7.377  10.491  11.831  1.1353 -2.4069 -2.1609
46843SOL     OW58138   5.235   1.225   9.299 -0.3918 -0.1088  0.2591
46843SOL    HW158139   5.266   1.314   9.286 -0.2648 -0.3542 -1.2665
46843SOL    HW258140   5.315   1.172   9.301 -0.4330 -0.1603  1.6495
46844SOL     OW58141   4.555   6.040   0.491 -0.3168 -0.1723 -0.7339
46844SOL    HW158142   4.593   6.124   0.518  0.8233 -0.7516 -0.4450
46844SOL    HW258143   4.498   6.062   0.418 -0.3493  0.9087 -0.4057
46845SOL     OW58144  10.247  11.862   9.339 -0.4126 -0.4532  0.2063
46845SOL    HW158145  10.212  11.793   9.395 -1.9548  0.1327  0.0097
46845SOL    HW258146  10.272  11.932   9.398  1.6267 -1.3029  0.4556
46846SOL     OW58147   1.434   7.589   7.296  0.4561 -0.4008 -0.5352
46846SOL    HW158148   1.392   7.546   7.221 -1.6139 -1.9113  1.3775
46846SOL    HW258149   1.436   7.682   7.272  0.0030 -0.8532 -2.5025
46847SOL     OW58150   1.174   8.096   6.481  0.2675 -0.0814 -0.0397
46847SOL    HW158151   1.092   8.051   6.459  0.3400  0.4975 -1.6480
46847SOL    HW258152   1.243   8.038   6.448  0.3678  1.0333 -1.9474
46848SOL     OW58153   1.808   7.218   4.310 -0.2642 -0.0565 -0.3432
46848SOL    HW158154   1.878   7.179   4.363 -0.2277  1.3913  0.7243
46848SOL    HW258155   1.851   7.289   4.263 -0.6556 -0.2987 -1.0766
46849SOL     OW58156  11.488   5.625   6.260 -0.2119 -0.1228 -0.0437
46849SOL    HW158157  11.409   5.609   6.210 -0.4201  0.2899  0.1509
46849SOL    HW258158  11.547   5.553   6.236 -0.2806  0.1010 -0.9337
46850SOL     OW58159   2.890   5.383   2.702 -0.1005  0.6032 -0.0451
46850SOL    HW158160   2.978   5.350   2.683 -0.4226  0.0571 -0.5818
46850SOL    HW258161   2.856   5.325   2.770 -0.7418 -0.3216 -1.1276
46851SOL     OW58162   1.912  13.907  10.717 -0.0677 -0.4713 -0.0088
46851SOL    HW158163   1.880  13.822  10.688 -0.9873 -0.0649 -0.2148
46851SOL    HW258164   1.855  13.931  10.790  1.1265 -0.6948  1.0393
46852SOL     OW58165   7.623   3.409  13.481 -0.1534  0.1430  0.0363
46852SOL    HW158166   7.585   3.410  13.393  1.3047 -0.3533 -0.6249
46852SOL    HW258167   7.624   3.501  13.507  2.3003  0.7428 -1.8029
46853SOL     OW58168   8.204  13.916   5.550 -0.5680 -0.5586 -0.3662
46853SOL    HW158169   8.275  13.961   5.506  0.2521 -1.4721 -0.0142
46853SOL    HW258170   8.212  13.825   5.522 -1.2699 -0.7785  0.1049
46854SOL     OW58171  11.229  10.724   2.099  0.2815  0.4561 -0.3094
46854SOL    HW158172  11.287  10.679   2.038  1.0909  0.1157  0.7007
46854SOL    HW258173  11.257  10.696   2.185 -2.3311 -0.9268  0.2151
46855SOL     OW58174   4.992   5.094   2.492 -0.3042  0.3175  0.4357
46855SOL    HW158175   4.955   5.056   2.572  0.2822  0.9526  1.0078
46855SOL    HW258176   5.068   5.144   2.521  1.2903 -1.2728 -0.7680
46856SOL     OW58177  13.937   4.008   0.494  0.3237  0.5363 -0.3379
46856SOL    HW158178  14.007   4.072   0.506 -0.3640  1.0733  0.9473
46856SOL    HW258179  13.897   3.999   0.580 -0.7485 -0.2869 -0.8975
46857SOL     OW58180  11.326  10.580  11.426 -0.2676 -0.2690  0.1073
46857SOL    HW158181  11.355  10.596  11.337  0.1942  0.4270  0.3736
46857SOL    HW258182  11.361  10.654  11.476  0.1397 -1.0445  1.0018
46858SOL     OW58183  11.531  11.159   4.576  0.5717  0.7537  0.0656
46858SOL    HW158184  11.488  11.080   4.609 -0.2930  0.7339 -1.0455
46858SOL    HW258185  11.624  11.142   4.587  0.3902 -0.4002 -0.0982
46859SOL     OW58186   6.391   0.413  12.127 -0.1436  0.0603  0.0199
46859SOL    HW158187   6.350   0.441  12.045  0.5092  0.2702 -0.2421
46859SOL    HW258188   6.484   0.435  12.116  0.0628 -0.5311  0.5469
46860SOL     OW58189   9.601   7.833  10.997 -0.0862 -0.0565 -0.0309
46860SOL    HW158190   9.689   7.800  11.015 -0.4715 -0.5259  1.0982
46860SOL    HW258191   9.576   7.792  10.915  0.1539 -1.1451  0.4273
46861SOL     OW58192   2.411   8.337   4.659  0.0029  0.5075 -0.1635
46861SOL    HW158193   2.485   8.276   4.656  1.9449  2.6866  0.4546
46861SOL    HW258194   2.368   8.327   4.575  0.8872 -0.9775 -0.4661
46862SOL     OW58195   8.870  12.076   5.037 -0.2976 -0.1138  0.1869
46862SOL    HW158196   8.907  11.998   4.996 -1.3417 -0.1107 -0.8208
46862SOL    HW258197   8.892  12.148   4.977 -2.5590 -0.2358 -0.8991
46863SOL     OW58198   9.714  12.470   1.623 -0.2376 -0.3323 -0.4934
46863SOL    HW158199   9.653  12.535   1.589 -0.4235  0.7171  1.6534
46863SOL    HW258200   9.798  12.515   1.627 -0.0914 -0.6261 -0.1625
46864SOL     OW58201   6.126  11.326  10.129 -0.8813 -0.4854  0.1851
46864SOL    HW158202   6.120  11.413  10.169 -4.1002 -0.3925 -0.2354
46864SOL    HW258203   6.073  11.333  10.050 -0.5991 -2.6568 -0.2418
46865SOL     OW58204   3.699   4.699   3.325 -0.0255 -0.0952  0.6318
46865SOL    HW158205   3.773   4.653   3.365 -1.2377 -1.6058  1.2464
46865SOL    HW258206   3.686   4.655   3.241  0.8587  1.3442 -0.2957
46866SOL     OW58207   1.786   0.522   2.442  0.2326 -0.0803  0.1737
46866SOL    HW158208   1.833   0.602   2.420  2.0901 -1.0260  0.5594
46866SOL    HW258209   1.848   0.469   2.492 -1.3125 -1.3028  0.9241
46867SOL     OW58210   1.409   2.076   4.559  0.2273 -0.2727  0.0979
46867SOL    HW158211   1.351   2.084   4.635  0.9365 -2.3154  0.9152
46867SOL    HW258212   1.353   2.098   4.484 -0.9577  0.0923  1.0446
46868SOL     OW58213   3.274   3.726  11.205 -0.2717  0.6473  0.5995
46868SOL    HW158214   3.344   3.680  11.160 -0.3587  0.4699  0.6434
46868SOL    HW258215   3.204   3.661  11.214  0.2295  0.2662  2.1563
46869SOL     OW58216   5.958  12.780  11.374 -0.6235 -0.0081 -0.6717
46869SOL    HW158217   5.924  12.696  11.405 -0.2664  0.0248 -0.1779
46869SOL    HW258218   6.018  12.758  11.304 -1.3803 -0.0889 -1.3113
46870SOL     OW58219   4.862   4.555   3.599  0.0988 -0.6051  0.1295
46870SOL    HW158220   4.792   4.532   3.538 -0.2616 -0.4945  0.4920
46870SOL    HW258221   4.866   4.481   3.660  1.1007 -1.1498 -0.5815
46871SOL     OW58222   5.937   2.596   5.275 -0.3778  0.3586  0.3305
46871SOL    HW158223   5.868   2.634   5.329 -1.7692 -0.3783 -0.8578
46871SOL    HW258224   6.009   2.660   5.279 -1.8624  2.1334 -0.0003
46872SOL     OW58225   8.417  11.503   4.536  0.2766  0.2231 -0.1053
46872SOL    HW158226   8.369  11.584   4.558 -1.6988 -0.8996  0.0120
46872SOL    HW258227   8.381  11.477   4.451 -0.2928 -1.3490  0.5905
46873SOL     OW58228   5.294  11.936   8.572  0.0147 -0.1969 -0.4188
46873SOL    HW158229   5.214  11.892   8.541 -0.4600  0.6680 -0.4683
46873SOL    HW258230   5.298  12.017   8.520  1.7172 -0.8828 -1.4367
46874SOL     OW58231  10.723   4.955   9.056  0.1288 -0.2857 -0.5749
46874SOL    HW158232  10.646   5.010   9.070 -0.1270 -0.2585 -2.0190
46874SOL    HW258233  10.689   4.874   9.018  0.8850  0.0705 -2.0600
46875SOL     OW58234   2.669   0.506   9.364  0.1044 -0.4344 -0.4882
46875SOL    HW158235   2.647   0.529   9.273 -1.5792  0.6568  0.1479
46875SOL    HW258236   2.606   0.438   9.388 -0.6901  0.5938  0.4238
46876SOL     OW58237   6.776   4.507   2.826 -0.1067 -0.0602  0.4192
46876SOL    HW158238   6.865   4.504   2.862 -0.5230 -0.3247  1.4737
46876SOL    HW258239   6.788   4.515   2.732  1.0556  2.4664  0.7031
46877SOL     OW58240   7.214   3.317   0.408 -0.1777  0.1450  0.4415
46877SOL    HW158241   7.275   3.350   0.474  0.0773 -1.3607  1.0059
46877SOL    HW258242   7.271   3.285   0.338 -0.3310 -0.5706  0.6342
46878SOL     OW58243  13.530  14.012   8.974 -0.4408  0.1489  0.0138
46878SOL    HW158244  13.564  14.033   9.060 -1.3908  0.7170  0.2708
46878SOL    HW258245  13.599  14.038   8.913  1.3620 -2.6430  0.6701
46879SOL     OW58246   3.403   6.593   1.972  0.4266  0.3923  0.3600
46879SOL    HW158247   3.356   6.510   1.966 -0.2546  0.8703 -1.6513
46879SOL    HW258248   3.359   6.641   2.042 -0.0236 -0.4080  0.6376
46880SOL     OW58249   5.759   2.646  11.291 -0.3329  0.4975 -0.2081
46880SOL    HW158250   5.804   2.595  11.358  1.0356  1.3613 -0.4499
46880SOL    HW258251   5.685   2.686  11.337 -1.1154 -1.2086  0.1090
46881SOL     OW58252   6.174  11.827   8.108  0.0844  0.1269 -0.0438
46881SOL    HW158253   6.174  11.796   8.198  1.2914  0.1020 -0.0328
46881SOL    HW258254   6.253  11.882   8.102  0.4203 -0.4640 -1.2773
46882SOL     OW58255  13.525   9.291   5.936 -0.4034  0.5355 -0.1678
46882SOL    HW158256  13.454   9.305   5.998 -1.0680 -2.1773 -0.2029
46882SOL    HW258257  13.490   9.318   5.851 -0.3719  1.8157  0.1971
46883SOL     OW58258  11.339   6.754  10.382  0.7846 -0.3747 -0.2340
46883SOL    HW158259  11.277   6.822  10.356 -1.1275 -1.3543  1.5039
46883SOL    HW258260  11.303   6.718  10.463  3.9455 -0.6250  1.2173
46884SOL     OW58261  10.511   6.332   4.304  0.6596  0.0300 -0.1870
46884SOL    HW158262  10.446   6.397   4.276  1.9044  1.9385  1.0939
46884SOL    HW258263  10.584   6.344   4.243  0.0231 -1.9049 -1.4391
46885SOL     OW58264   7.535   4.123   0.345 -0.4026  0.0292  0.2556
46885SOL    HW158265   7.528   4.205   0.295  1.5206 -0.9520 -1.7868
46885SOL    HW258266   7.532   4.055   0.279 -0.3619 -1.5063  1.7761
46886SOL     OW58267   1.663   8.439   5.107  0.1398  0.3163 -0.0581
46886SOL    HW158268   1.683   8.505   5.173 -3.3269  1.3736  0.0972
46886SOL    HW258269   1.586   8.473   5.061  0.6648 -1.7595 -2.7275
46887SOL     OW58270  11.964   2.402   6.564 -0.0079  0.1099 -0.2518
46887SOL    HW158271  11.968   2.470   6.631 -2.1123 -0.1413  0.2141
46887SOL    HW258272  12.050   2.360   6.567 -0.0077  0.1397  2.2752
46888SOL     OW58273   3.068   4.418  11.003 -0.2739 -0.5671 -0.2737
46888SOL    HW158274   3.076   4.346  11.066  1.4908  0.8127  1.2043
46888SOL    HW258275   3.140   4.477  11.025 -1.8093  1.8219 -1.1827
46889SOL     OW58276   1.570  13.670   5.140  0.2481  0.4353  0.8677
46889SOL    HW158277   1.586  13.764   5.151  2.2552  0.2819 -0.2916
46889SOL    HW258278   1.643  13.639   5.087  0.4799 -2.0847  2.4770
46890SOL     OW58279   0.282   4.856   4.598 -0.9668 -0.3682  0.2291
46890SOL    HW158280   0.288   4.769   4.557 -0.6266 -1.4825  2.4858
46890SOL    HW258281   0.285   4.917   4.525 -0.2083 -2.2227 -1.3847
46891SOL     OW58282   7.518   3.105  13.978  0.2800  0.3938  0.1289
46891SOL    HW158283   7.552   3.171  13.918  1.6993 -0.4818 -0.0765
46891SOL    HW258284   7.451   3.060  13.928  0.1864  0.8486 -0.1657
46892SOL     OW58285   4.107   9.399   0.971  0.3425  0.1316 -0.7294
46892SOL    HW158286   4.129   9.462   0.902 -1.5685 -0.5560 -2.0668
46892SOL    HW258287   4.084   9.319   0.923 -1.7150 -0.1678  0.6529
46893SOL     OW58288   6.772  12.722   6.716  0.7453  0.3750  0.4016
46893SOL    HW158289   6.773  12.711   6.621  1.8987 -0.3249  0.4771
46893SOL    HW258290   6.739  12.811   6.729  1.1449  0.7013 -0.6815
46894SOL     OW58291  10.177   3.327   7.996  0.0336  0.0594  0.9302
46894SOL    HW158292  10.119   3.251   7.992 -0.8714  0.7337  0.8555
46894SOL    HW258293  10.130   3.390   8.051  1.0060  0.3709  1.4165
46895SOL     OW58294   5.084   9.931  12.352  0.3843 -0.3818  0.6223
46895SOL    HW158295   5.092   9.941  12.447  1.4074 -1.2235  0.6431
46895SOL    HW258296   5.174   9.943  12.320 -0.1819  1.4179 -0.4061
46896SOL     OW58297   3.240   4.948   9.060 -0.3299 -0.4219  0.4403
46896SOL    HW158298   3.227   4.973   9.152  1.7544  0.5580  0.5106
46896SOL    HW258299   3.195   4.864   9.053 -2.3843  0.4769  1.7695
46897SOL     OW58300   4.987  12.199   8.710 -0.1163  0.3404  0.0877
46897SOL    HW158301   5.017  12.108   8.702 -0.4603  0.3310 -1.5187
46897SOL    HW258302   5.066  12.249   8.729 -0.2683 -0.5322  3.6399
46898SOL     OW58303  12.825  13.892   8.342 -0.5092  0.0359  0.6314
46898SOL    HW158304  12.914  13.893   8.306 -1.3765  2.0317 -1.7443
46898SOL    HW258305  12.797  13.801   8.334  0.7882 -0.3271 -0.0141
46899SOL     OW58306   7.509   0.039  10.835  0.7110 -0.3312  0.2737
46899SOL    HW158307   7.441   0.034  10.768  0.0649  0.6303  0.8328
46899SOL    HW258308   7.535  -0.052  10.850 -0.3928 -0.7047 -0.0088
46900SOL     OW58309   4.694   0.881   9.752 -0.8479 -0.3858 -0.3561
46900SOL    HW158310   4.610   0.916   9.723  0.0332  1.1960 -1.1258
46900SOL    HW258311   4.672   0.800   9.798 -2.7055 -0.4381 -1.2619
46901SOL     OW58312   0.989   7.676   4.798  0.5911  0.0727  0.3156
46901SOL    HW158313   1.010   7.764   4.768 -0.0305  0.8718  2.1175
46901SOL    HW258314   0.904   7.684   4.840  0.4416 -1.4358  0.3603
46902SOL     OW58315   5.066  12.972   7.762 -0.5642 -0.0774 -0.5916
46902SOL    HW158316   4.992  12.956   7.820 -0.5821  2.5610  0.2406
46902SOL    HW258317   5.087  13.065   7.774  2.6342 -0.6185 -1.1006
46903SOL     OW58318   7.565   7.321   0.087  0.5212 -0.2127  0.0772
46903SOL    HW158319   7.519   7.397   0.051 -0.7443 -0.4299  1.1196
46903SOL    HW258320   7.515   7.300   0.167  2.2702 -0.6657  1.0980
46904SOL     OW58321  10.897   6.390  12.264 -0.0309  0.2867 -0.4612
46904SOL    HW158322  10.913   6.477  12.299 -0.5550 -0.3083  1.3490
46904SOL    HW258323  10.813   6.396  12.219 -0.2894  0.5983  0.0681
46905SOL     OW58324   9.146   0.551   0.297  0.4733 -0.6683 -0.2135
46905SOL    HW158325   9.207   0.517   0.231  1.9588  1.1067  0.1174
46905SOL    HW258326   9.153   0.647   0.288  1.1250 -0.3235  2.7971
46906SOL     OW58327   3.695  13.030   6.395 -0.2749 -0.3763 -0.1646
46906SOL    HW158328   3.677  12.939   6.369  1.8498 -1.2370  1.1747
46906SOL    HW258329   3.790  13.038   6.390 -0.4257  1.8589 -0.3874
46907SOL     OW58330   3.878  10.306   0.505  0.3933 -0.4364  0.0087
46907SOL    HW158331   3.812  10.353   0.556 -1.0583  1.0765 -3.0434
46907SOL    HW258332   3.961  10.346   0.532 -0.2693  0.1245  1.3316
46908SOL     OW58333  10.340  12.222   2.939 -0.1346 -0.6972  0.3051
46908SOL    HW158334  10.384  12.143   2.909  0.8779 -1.3733  3.2340
46908SOL    HW258335  10.257  12.192   2.975 -0.4628 -0.1985 -0.0157
46909SOL     OW58336  13.869   1.687  10.177  0.2341  0.2829 -0.3311
46909SOL    HW158337  13.929   1.616  10.204 -0.0047  0.2632  0.1635
46909SOL    HW258338  13.873   1.749  10.250 -2.1018 -0.8006  0.8312
46910SOL     OW58339  11.594   6.617   4.489 -0.0249  0.3878 -0.2472
46910SOL    HW158340  11.535   6.678   4.443 -1.5463 -0.1883  0.8637
46910SOL    HW258341  11.579   6.635   4.582 -0.7500 -1.8482  0.1315
46911SOL     OW58342   6.387   9.680  12.660  0.2872 -0.6575  0.3867
46911SOL    HW158343   6.328   9.604  12.655 -0.6861  0.0981 -0.0803
46911SOL    HW258344   6.465   9.653  12.611 -1.2714 -0.3304 -2.5087
46912SOL     OW58345  13.406   7.139   0.382 -0.1197 -0.0514  0.7704
46912SOL    HW158346  13.455   7.149   0.463  1.4936 -1.8660  0.1009
46912SOL    HW258347  13.342   7.070   0.400 -0.0385 -0.1609  0.6509
46913SOL     OW58348   7.200   7.739   4.572 -0.2634  0.1842 -0.2703
46913SOL    HW158349   7.237   7.652   4.559  1.2758  0.9349 -1.1888
46913SOL    HW258350   7.202   7.780   4.486  0.3820  1.6096  0.3764
46914SOL     OW58351   1.431   6.351   2.941 -0.2597  0.1599  0.8142
46914SOL    HW158352   1.382   6.372   2.862 -0.2249  0.2229  0.8090
46914SOL    HW258353   1.517   6.324   2.909 -0.0740  0.6868  0.8543
46915SOL     OW58354   0.891   5.239  11.112  0.4675 -0.5466  0.3071
46915SOL    HW158355   0.917   5.164  11.166 -0.1633  0.5770  2.2525
46915SOL    HW258356   0.867   5.307  11.175  0.7899  1.2329 -1.3979
46916SOL     OW58357   7.612   5.597   6.057 -0.2995 -0.6489  0.0966
46916SOL    HW158358   7.597   5.686   6.026 -1.2488 -1.4110 -1.8609
46916SOL    HW258359   7.524   5.560   6.067 -0.0183 -2.3815 -2.5768
46917SOL     OW58360  12.196  11.405  10.598 -0.2336 -0.7663  0.2869
46917SOL    HW158361  12.159  11.375  10.515 -1.1344 -0.4408  0.5535
46917SOL    HW258362  12.158  11.492  10.611  1.6784  0.1753 -0.0677
46918SOL     OW58363   8.402  11.664   1.129 -0.5205 -0.3792  0.4778
46918SOL    HW158364   8.458  11.650   1.052 -0.6533  0.9760  0.0917
46918SOL    HW258365   8.403  11.581   1.175  1.9296 -0.3862  0.5554
46919SOL     OW58366   3.941   5.396   7.034 -0.2323  0.1398 -0.1975
46919SOL    HW158367   3.910   5.480   7.003  1.3422  1.1101  0.7062
46919SOL    HW258368   4.005   5.368   6.967 -0.1371  0.0729 -0.0790
46920SOL     OW58369   1.047   3.871   1.912 -0.1168  0.0397  0.5013
46920SOL    HW158370   1.136   3.835   1.910 -0.0474  0.1672  1.2514
46920SOL    HW258371   1.059   3.964   1.930 -0.1258  1.0704 -3.6568
46921SOL     OW58372  11.498  12.151   9.108 -0.7015 -0.2109  0.0777
46921SOL    HW158373  11.509  12.058   9.130 -1.2000 -0.0745  0.9107
46921SOL    HW258374  11.557  12.164   9.034  0.5439 -0.8288  0.9214
46922SOL     OW58375   5.768   3.141   3.439  0.3580  0.1734 -0.2894
46922SOL    HW158376   5.786   3.081   3.511 -0.7795 -0.0097 -0.1401
46922SOL    HW258377   5.685   3.183   3.462  1.3067  2.1187 -0.1968
46923SOL     OW58378   1.551   4.419  14.012 -0.1121  0.3123 -0.2417
46923SOL    HW158379   1.633   4.460  13.983  0.2215 -0.8540 -1.0442
46923SOL    HW258380   1.505   4.399  13.930 -1.7627  1.9996  0.2169
46924SOL     OW58381   0.890   0.928   2.335 -0.1995 -0.1382  0.5671
46924SOL    HW158382   0.906   0.884   2.418  1.0077 -0.1378  0.3461
46924SOL    HW258383   0.967   0.909   2.282  0.1579  1.8287  0.3059
46925SOL     OW58384   3.145   2.892  10.412  0.3281  0.2318 -0.2157
46925SOL    HW158385   3.224   2.870  10.362  0.1518  0.1234 -0.4442
46925SOL    HW258386   3.179   2.925  10.496  0.6098 -2.1835  0.7102
46926SOL     OW58387   3.890  11.752  13.394  0.6916  0.0856  0.2554
46926SOL    HW158388   3.936  11.679  13.353  0.0311  0.7150 -1.6895
46926SOL    HW258389   3.890  11.821  13.328 -1.0705  0.9050  1.0522
46927SOL     OW58390   0.080   4.037   6.860 -0.0409  0.1732 -0.3556
46927SOL    HW158391   0.167   4.017   6.826  0.3669  0.7658  0.3106
46927SOL    HW258392   0.095   4.106   6.925 -0.8339 -0.7241  0.8129
46928SOL     OW58393   6.429   0.826   2.044  0.2362  0.3296 -0.0227
46928SOL    HW158394   6.377   0.818   1.964 -1.5116 -2.7627  1.2718
46928SOL    HW258395   6.514   0.790   2.021  0.2760  0.9154 -0.8533
46929SOL     OW58396  11.258   0.178  12.294 -0.3415  0.2664 -0.1625
46929SOL    HW158397  11.299   0.264  12.299 -0.0617  0.0712  1.3254
46929SOL    HW258398  11.331   0.116  12.293 -0.5587  0.0103 -0.2878
46930SOL     OW58399   2.364  10.655   9.030 -0.2454 -0.7771 -0.1834
46930SOL    HW158400   2.445  10.634   8.984 -0.4814 -1.4063 -0.3248
46930SOL    HW258401   2.383  10.736   9.077 -0.8273  1.5202 -3.5827
46931SOL     OW58402   0.798   6.734   6.967  0.2358  0.1441 -0.1742
46931SOL    HW158403   0.876   6.709   6.916 -2.1942 -1.2151 -3.5756
46931SOL    HW258404   0.765   6.812   6.923 -0.6433  0.3838  0.8720
46932SOL     OW58405   8.712   5.747   3.606  0.2340  0.2501 -1.0012
46932SOL    HW158406   8.733   5.824   3.657  1.4204 -0.3385 -0.5581
46932SOL    HW258407   8.761   5.676   3.648  1.0558 -0.3037 -2.7791
46933SOL     OW58408   4.343   0.790   8.333  0.3609 -0.1722  0.1454
46933SOL    HW158409   4.295   0.752   8.259 -0.0966 -1.4468  1.0563
46933SOL    HW258410   4.433   0.761   8.320 -0.0352 -1.9404  0.9948
46934SOL     OW58411   0.404   9.311   0.490 -0.3758  0.3521  0.5359
46934SOL    HW158412   0.345   9.364   0.437  1.7981  1.2309 -1.1529
46934SOL    HW258413   0.431   9.369   0.561 -1.2220  0.0610  1.1136
46935SOL     OW58414   7.989   6.573   1.824 -0.1657 -0.2324 -0.0968
46935SOL    HW158415   8.012   6.480   1.825  1.5310  0.1460  1.5535
46935SOL    HW258416   8.073   6.619   1.825 -0.9071  1.3992 -2.7866
46936SOL     OW58417  14.072   6.541   1.766 -0.3428 -0.0045 -0.0540
46936SOL    HW158418  14.152   6.583   1.798 -1.3669  0.6928  1.7404
46936SOL    HW258419  14.022   6.612   1.726 -0.5028 -0.2277 -0.2528
46937SOL     OW58420   0.285   1.437   4.962  0.0490  0.1392  0.2765
46937SOL    HW158421   0.269   1.530   4.978  0.8937  0.0617  1.8235
46937SOL    HW258422   0.201   1.394   4.981  0.2418  0.3843  1.8303
46938SOL     OW58423   2.499   7.420  10.310 -0.2440 -0.2607  0.1940
46938SOL    HW158424   2.450   7.370  10.375 -0.1903 -1.4887 -0.6951
46938SOL    HW258425   2.583   7.438  10.353  0.4724 -2.5483 -0.0999
46939SOL     OW58426   3.433   1.707   0.453 -0.4302  0.5233 -0.2665
46939SOL    HW158427   3.455   1.652   0.528 -0.5300  1.6633  0.6035
46939SOL    HW258428   3.501   1.773   0.450 -0.2964  0.3577 -1.3324
46940SOL     OW58429   2.427  10.124   9.612  0.3040 -0.4736  0.1653
46940SOL    HW158430   2.409  10.214   9.585 -0.6699 -0.8772 -0.5770
46940SOL    HW258431   2.372  10.110   9.689  0.1343 -0.5790  0.0231
46941SOL     OW58432  13.212   1.050   3.601  0.4325  0.2889 -0.2369
46941SOL    HW158433  13.188   0.966   3.561  0.2450  0.1041  0.2519
46941SOL    HW258434  13.261   1.026   3.679  1.8008  0.6615 -0.9552
46942SOL     OW58435   5.523   9.190   3.785 -0.2570 -0.1249  0.0966
46942SOL    HW158436   5.608   9.150   3.765 -0.0660  0.0025  0.6312
46942SOL    HW258437   5.469   9.170   3.709  1.3033  2.9282 -1.9885
46943SOL     OW58438  12.838  10.180  10.271 -0.1237 -0.2404 -0.1298
46943SOL    HW158439  12.894  10.190  10.347  0.2517 -3.0820  0.0656
46943SOL    HW258440  12.882  10.229  10.202  1.3315 -0.4165  0.6360
46944SOL     OW58441   3.021   5.013  11.666  0.4838  0.2984 -0.6714
46944SOL    HW158442   3.038   5.099  11.628 -0.8173  0.5652 -0.6744
46944SOL    HW258443   2.984   4.962  11.595 -1.1257  0.5290 -0.0332
46945SOL     OW58444  12.862   2.998  13.726 -0.2627  0.3746  0.1428
46945SOL    HW158445  12.913   3.075  13.752  0.3917 -0.1480  0.4186
46945SOL    HW258446  12.868   2.939  13.802 -0.3491 -0.1572 -0.2597
46946SOL     OW58447  12.907  11.373   9.396 -0.3144  0.6342  0.2355
46946SOL    HW158448  12.905  11.468   9.411 -0.1088  0.4961  1.1895
46946SOL    HW258449  12.988  11.359   9.346 -0.8592  1.0689 -0.8019
46947SOL     OW58450  11.427   0.769   3.196 -0.1798  0.4753 -0.2398
46947SOL    HW158451  11.357   0.813   3.243  0.8102  0.5394  1.2475
46947SOL    HW258452  11.489   0.742   3.264 -0.1563 -2.1805 -1.1596
46948SOL     OW58453  10.771   3.138   3.640 -0.2924  0.4650  1.0619
46948SOL    HW158454  10.690   3.170   3.601 -0.9046 -0.5789  1.4363
46948SOL    HW258455  10.820   3.101   3.567  0.4520  2.2368  0.6129
46949SOL     OW58456   1.460   9.134  10.022  0.4478 -0.0392 -0.0472
46949SOL    HW158457   1.498   9.220  10.007 -1.3520  1.0223  1.2497
46949SOL    HW258458   1.514   9.075   9.969  2.3067  1.7195 -0.2120
46950SOL     OW58459   5.416   0.245  13.951 -0.2768  0.3193 -0.2303
46950SOL    HW158460   5.419   0.340  13.950  0.2310  0.3594 -2.7458
46950SOL    HW258461   5.376   0.221  13.867 -2.2862 -1.6903  1.1893
46951SOL     OW58462   6.923   9.060   8.916  0.0255  0.1101  0.0235
46951SOL    HW158463   6.917   8.970   8.886  0.0748  0.7059 -1.9311
46951SOL    HW258464   6.922   9.112   8.835  0.9235  1.8047  1.0472
46952SOL     OW58465  12.788   6.002  13.913 -0.1361 -0.0538 -0.2675
46952SOL    HW158466  12.739   6.084  13.915 -0.2868 -0.0258 -2.5011
46952SOL    HW258467  12.743   5.945  13.975  0.2628  1.6700  1.7002
46953SOL     OW58468  13.935   2.242   7.113  0.6606 -0.4348 -0.3584
46953SOL    HW158469  13.863   2.204   7.163  0.8804  0.4764  0.7063
46953SOL    HW258470  14.007   2.249   7.176  1.5798 -0.9976 -1.3095
46954SOL     OW58471   5.022   4.261   1.660 -0.4754 -0.1945  0.1966
46954SOL    HW158472   5.031   4.284   1.568  1.9297  5.1625  1.3682
46954SOL    HW258473   5.107   4.222   1.684 -1.2282 -1.9357  0.1824
46955SOL     OW58474   0.401   0.262   0.930  0.3119  0.0369 -0.0623
46955SOL    HW158475   0.418   0.278   1.023  0.3013  0.5687 -0.1494
46955SOL    HW258476   0.348   0.336   0.902  2.0721  1.0198 -0.9998
46956SOL     OW58477   9.758   6.612   2.916 -0.8119 -0.1223 -0.2408
46956SOL    HW158478   9.794   6.524   2.928 -2.8358 -1.1674 -1.4154
46956SOL    HW258479   9.790   6.639   2.830  0.5222  0.7162  0.4746
46957SOL     OW58480   9.282   1.088   0.710  0.3214  0.0267  0.8110
46957SOL    HW158481   9.292   1.038   0.629  0.2350 -0.0305  0.8356
46957SOL    HW258482   9.355   1.150   0.709 -0.8309  1.4366 -0.3298
46958SOL     OW58483   6.781   4.061  12.138 -0.3932  0.1550  0.2443
46958SOL    HW158484   6.873   4.069  12.114  0.3500 -3.4751  1.3113
46958SOL    HW258485   6.777   4.095  12.227  0.1615 -0.5496  0.5490
46959SOL     OW58486   8.336   6.918   2.799  0.4137 -0.5297  0.0601
46959SOL    HW158487   8.273   6.866   2.849  0.5454 -1.1232 -0.3864
46959SOL    HW258488   8.319   6.895   2.707  1.0993 -0.4887 -0.0809
46960SOL     OW58489   4.705   5.981   5.837  0.3644 -0.3281 -0.4632
46960SOL    HW158490   4.685   5.891   5.812 -0.0623  0.1279 -1.8319
46960SOL    HW258491   4.768   6.011   5.772 -0.6001  0.8197 -0.9057
46961SOL     OW58492   9.606   3.708   4.069  0.0233 -0.4020 -0.1025
46961SOL    HW158493   9.592   3.653   4.146 -0.1405  1.2600  1.1133
46961SOL    HW258494   9.540   3.680   4.006 -1.8440  0.2046  1.5170
46962SOL     OW58495   7.083   9.433   2.321 -0.5537  0.4667  0.3759
46962SOL    HW158496   7.086   9.528   2.327 -2.2262  0.4687  1.8871
46962SOL    HW258497   7.018   9.415   2.253 -0.0019  0.3787 -0.1409
46963SOL     OW58498   2.243  11.020   8.026 -0.3836  0.2170 -0.2808
46963SOL    HW158499   2.231  11.115   8.027  1.8065  0.5474 -0.2506
46963SOL    HW258500   2.263  11.000   7.935 -0.7520 -0.2240 -0.2705
46964SOL     OW58501  11.107   6.985  12.899  0.5216 -0.0418  0.1705
46964SOL    HW158502  11.024   6.938  12.893  0.8175 -0.4084 -1.5546
46964SOL    HW258503  11.116   7.007  12.992 -0.7762 -1.2926  0.6207
46965SOL     OW58504  12.630   6.619   9.859  0.5612  0.1843  0.5192
46965SOL    HW158505  12.590   6.690   9.909  0.7660  0.6928 -0.0285
46965SOL    HW258506  12.724   6.630   9.872  0.5767 -0.5154  1.1323
46966SOL     OW58507   7.626  12.286   0.343  0.6358  0.2252  0.1394
46966SOL    HW158508   7.670  12.308   0.261 -1.2603 -2.3355 -1.7104
46966SOL    HW258509   7.639  12.192   0.353 -0.6216  0.1920  1.9169
46967SOL     OW58510  11.459  12.530   8.770 -0.0016  0.5641 -0.4217
46967SOL    HW158511  11.375  12.508   8.730 -0.4651 -0.1701  0.8739
46967SOL    HW258512  11.510  12.570   8.700 -0.5202 -1.2429 -1.9118
46968SOL     OW58513   5.133   4.467   6.541 -0.4318  0.9351  0.0802
46968SOL    HW158514   5.074   4.399   6.511  0.0705  1.1258 -1.4338
46968SOL    HW258515   5.134   4.458   6.636  0.1864 -1.6691 -0.0869
46969SOL     OW58516   0.367   9.414  11.265  0.2507  0.3737 -0.1394
46969SOL    HW158517   0.297   9.450  11.211  0.1125 -0.1970 -0.3571
46969SOL    HW258518   0.361   9.461  11.348 -2.4462 -1.8077  1.0507
46970SOL     OW58519  12.002   9.682   4.847 -0.0308 -0.2496 -0.2575
46970SOL    HW158520  12.001   9.638   4.932  0.4233  0.2405  0.0122
46970SOL    HW258521  12.025   9.773   4.867 -1.6040  0.2837 -0.7382
46971SOL     OW58522  12.088   2.867  10.364  0.6137  0.0993  0.3817
46971SOL    HW158523  12.109   2.785  10.409  0.2315  0.0077  0.3970
46971SOL    HW258524  12.134   2.934  10.414  3.2701 -0.3665 -1.2226
46972SOL     OW58525   3.754   6.357  11.207 -0.0722 -0.1450 -0.5389
46972SOL    HW158526   3.766   6.283  11.147 -0.8226 -0.3004 -0.5071
46972SOL    HW258527   3.781   6.434  11.157  1.9710 -0.5596 -0.1495
46973SOL     OW58528   4.087   2.733   5.310 -0.7245 -0.0860  0.1826
46973SOL    HW158529   4.039   2.806   5.348 -1.4449 -0.9537  0.9960
46973SOL    HW258530   4.124   2.768   5.229 -1.3150  1.0767  0.3919
46974SOL     OW58531  10.064   5.818  10.970 -0.1201 -0.0077  0.1945
46974SOL    HW158532  10.084   5.738  11.019  0.4478 -0.3491 -0.5799
46974SOL    HW258533  10.126   5.818  10.897  0.1691  1.3669  0.4255
46975SOL     OW58534   6.904   2.530   0.617 -0.4105 -0.1945  0.6202
46975SOL    HW158535   6.816   2.558   0.642 -0.1470  0.2399  1.0855
46975SOL    HW258536   6.905   2.536   0.521 -0.5673  0.7954  0.6679
46976SOL     OW58537   6.581  11.110   4.927  0.2423 -0.3595  0.1167
46976SOL    HW158538   6.641  11.181   4.904 -0.8759  0.5708 -0.0184
46976SOL    HW258539   6.527  11.147   4.998 -0.1431 -1.1892  0.2618
46977SOL     OW58540  11.478   1.801   8.909  0.5219 -0.2721  0.2903
46977SOL    HW158541  11.411   1.795   8.976 -0.5874  1.0396 -0.6340
46977SOL    HW258542  11.500   1.895   8.905  0.1520 -0.2226 -1.5132
46978SOL     OW58543   1.325   2.557  12.889 -0.4942 -0.5967 -0.3516
46978SOL    HW158544   1.338   2.501  12.813  0.3966 -1.2724  0.2791
46978SOL    HW258545   1.382   2.520  12.956 -0.0274  0.9624  0.1470
46979SOL     OW58546   5.763   3.880   5.656  0.1763  0.0685 -0.3523
46979SOL    HW158547   5.782   3.823   5.731 -1.0468  0.2104  0.0973
46979SOL    HW258548   5.755   3.820   5.582 -0.8183 -0.3345  0.0631
46980SOL     OW58549   2.794  10.400   5.909  0.2416 -0.0175 -0.0868
46980SOL    HW158550   2.767  10.422   5.998  1.8182 -1.9675  0.9665
46980SOL    HW258551   2.771  10.477   5.856 -1.3112  0.9337  1.8556
46981SOL     OW58552  12.259   2.088   1.251 -0.2223 -0.7003  0.4176
46981SOL    HW158553  12.339   2.046   1.281  0.5751  0.8406  0.5021
46981SOL    HW258554  12.196   2.073   1.323  0.4358 -0.6128  1.0216
46982SOL     OW58555   7.977  13.693   0.781  0.3245 -0.4684 -0.2855
46982SOL    HW158556   7.932  13.760   0.731 -0.2180 -0.3157  0.3981
46982SOL    HW258557   8.059  13.677   0.733  1.1050  1.6496  0.2408
46983SOL     OW58558  13.668   5.635   3.304 -0.2383 -0.1280  0.1841
46983SOL    HW158559  13.719   5.603   3.379 -0.4443 -1.6136 -0.2809
46983SOL    HW258560  13.578   5.634   3.334 -0.2433  0.0154  0.1730
46984SOL     OW58561  12.888   5.165   1.748 -0.1141  0.5260  0.1642
46984SOL    HW158562  12.878   5.074   1.719  1.5694  0.9802 -2.0911
46984SOL    HW258563  12.976   5.169   1.785 -0.7488  0.9329  1.7184
46985SOL     OW58564   7.366   1.354   3.459 -0.3052 -0.3271  0.1840
46985SOL    HW158565   7.376   1.437   3.505  1.0370 -0.6345  0.4804
46985SOL    HW258566   7.359   1.377   3.367  0.0606  0.1063  0.2664
46986SOL     OW58567   2.111  10.797  10.053  0.1822 -0.0951  0.0854
46986SOL    HW158568   2.051  10.768  10.121 -1.5446  1.1750 -0.8111
46986SOL    HW258569   2.172  10.856  10.097  0.1407 -0.6029  0.8257
46987SOL     OW58570   2.959   2.170  13.396 -0.1062 -0.4742 -0.3135
46987SOL    HW158571   2.903   2.229  13.346 -0.4882  0.0753  0.7093
46987SOL    HW258572   2.928   2.082  13.375 -1.2883 -0.1808  0.1454
46988SOL     OW58573  14.012   6.730   5.688 -0.1220 -0.2482 -0.0029
46988SOL    HW158574  13.990   6.800   5.627 -1.5320 -0.2508  0.4727
46988SOL    HW258575  13.929   6.687   5.708  0.7609 -2.5118 -0.7954
46989SOL     OW58576   0.106   8.142   4.722 -0.1002 -0.5357  0.0129
46989SOL    HW158577   0.055   8.061   4.721 -0.3428 -0.4362 -2.6965
46989SOL    HW258578   0.046   8.209   4.690 -0.3469  1.1353  3.5242
46990SOL     OW58579   0.999   5.878  12.399 -0.0436 -0.3369  0.7494
46990SOL    HW158580   0.960   5.919  12.476  1.8810  1.4696  0.8498
46990SOL    HW258581   0.969   5.787  12.402 -1.2327  0.0633  2.7694
46991SOL     OW58582  10.680   4.160   1.115  0.3786  0.0972 -0.3658
46991SOL    HW158583  10.717   4.072   1.107  0.8221  0.3474 -1.2284
46991SOL    HW258584  10.603   4.157   1.058  0.8399  0.4892 -1.0251
46992SOL     OW58585   3.985  10.918   2.731 -0.2072  0.1156  0.4328
46992SOL    HW158586   4.020  10.862   2.801  0.8054 -0.6922 -0.6768
46992SOL    HW258587   3.938  10.987   2.777  1.9073  0.6117  1.9945
46993SOL     OW58588   2.019  13.109  10.974  0.2806 -0.8860  0.2098
46993SOL    HW158589   2.017  13.192  11.022  3.5542 -0.8036  0.4684
46993SOL    HW258590   1.928  13.081  10.970 -1.3841  3.7866 -1.8715
46994SOL     OW58591   0.015  13.071  11.232  0.2692  0.3613 -0.1844
46994SOL    HW158592   0.034  13.036  11.319  1.4992 -0.3772 -0.7151
46994SOL    HW258593   0.095  13.117  11.207  0.7449 -1.2133 -1.7494
46995SOL     OW58594   5.811  11.777  13.793 -0.3233  0.1931 -0.2026
46995SOL    HW158595   5.761  11.859  13.800  0.7183  0.7548  1.3887
46995SOL    HW258596   5.902  11.806  13.792  0.0470 -0.9363 -0.0654
46996SOL     OW58597   7.627  12.453   7.610 -0.2250 -0.8346 -0.1662
46996SOL    HW158598   7.546  12.413   7.576 -0.4138 -0.3073 -0.3506
46996SOL    HW258599   7.655  12.394   7.680 -2.2357  0.3140  1.7607
46997SOL     OW58600   3.345  11.019   7.799 -0.2926  0.5386  0.7641
46997SOL    HW158601   3.385  11.054   7.879 -1.1535  0.4576  1.2492
46997SOL    HW258602   3.272  11.078   7.782  0.8379  1.5198 -0.9145
46998SOL     OW58603   6.852  12.088  10.401  0.7703 -0.2961  0.3266
46998SOL    HW158604   6.823  12.128  10.484 -0.2185  3.4117 -1.5560
46998SOL    HW258605   6.938  12.127  10.385 -0.1839  1.2289 -1.5478
46999SOL     OW58606   8.462   2.348  11.573 -0.5232  0.2199 -0.1096
46999SOL    HW158607   8.523   2.317  11.507 -0.9331  0.7234 -0.7331
46999SOL    HW258608   8.483   2.296  11.651  1.5918  1.3128  0.1227
47000SOL     OW58609   1.107   2.212  10.337 -0.0108  0.5700  0.1611
47000SOL    HW158610   1.066   2.233  10.421  0.1004  1.6931 -0.0460
47000SOL    HW258611   1.175   2.279  10.327 -0.5545  0.9448 -1.1864
47001SOL     OW58612  11.529   2.938  13.879  0.1746 -0.4273 -0.2015
47001SOL    HW158613  11.552   2.847  13.860 -1.5452 -1.1592  0.9392
47001SOL    HW258614  11.449   2.953  13.828  1.0589  0.8468 -1.2646
47002SOL     OW58615   9.959   4.688  11.305  0.4028 -0.1513  0.1927
47002SOL    HW158616  10.053   4.670  11.295  0.5242  0.3846  0.3414
47002SOL    HW258617   9.944   4.680  11.400  0.3528  0.0119  0.1993
47003SOL     OW58618   5.196  13.711  13.902 -0.4597 -0.1181 -0.2495
47003SOL    HW158619   5.251  13.642  13.865 -0.4621  0.6584 -1.7923
47003SOL    HW258620   5.209  13.786  13.844 -3.3613  0.0326 -0.8719
47004SOL     OW58621   6.192   1.412  13.934  1.0258  0.4445 -0.1247
47004SOL    HW158622   6.162   1.459  14.011  0.8830 -0.0386  0.1142
47004SOL    HW258623   6.126   1.429  13.867  1.0574  0.7116 -0.0893
47005SOL     OW58624   4.879  14.037   6.844  0.1888 -0.5818 -0.1149
47005SOL    HW158625   4.915  14.008   6.760  0.3978 -0.2698 -0.1368
47005SOL    HW258626   4.815  13.970   6.867 -1.6493  0.5216 -1.7192
47006SOL     OW58627   3.071  12.601   3.302 -0.4961 -0.0343  0.2396
47006SOL    HW158628   3.086  12.577   3.394 -0.0054  0.5360  0.3214
47006SOL    HW258629   3.037  12.691   3.307 -0.8827 -0.1595 -0.1179
47007SOL     OW58630  11.460   4.087   5.437 -0.2327 -0.4567  0.3627
47007SOL    HW158631  11.446   4.163   5.494 -0.5042 -0.9136  0.9232
47007SOL    HW258632  11.387   4.029   5.457 -1.2220  0.0319 -1.6010
47008SOL     OW58633  14.072   3.287   7.233  0.4109  0.3604 -0.0850
47008SOL    HW158634  14.133   3.253   7.298 -0.3261  1.3038  1.1307
47008SOL    HW258635  14.006   3.333   7.284 -0.9961 -0.1263 -1.4144
47009SOL     OW58636   7.558   0.918   3.597 -0.1574 -0.3800  0.1227
47009SOL    HW158637   7.475   0.925   3.551  0.6048  1.9155 -1.0577
47009SOL    HW258638   7.623   0.902   3.528  0.5359 -0.8602  0.8681
47010SOL     OW58639   2.695   6.232   6.543  0.2860 -0.4144 -0.3590
47010SOL    HW158640   2.780   6.244   6.584  0.6257  1.0277 -1.4309
47010SOL    HW258641   2.714   6.210   6.452 -0.4606  0.4960 -0.7603
47011SOL     OW58642   7.541  10.089  12.758  0.2381 -0.4173  0.0635
47011SOL    HW158643   7.497  10.145  12.822  2.1399  1.6659 -0.3442
47011SOL    HW258644   7.470  10.043  12.714 -1.3069  0.4739  1.5103
47012SOL     OW58645   1.662   3.256   2.483 -0.1596  0.0476 -0.1840
47012SOL    HW158646   1.615   3.330   2.446 -0.6536 -0.4835 -0.6414
47012SOL    HW258647   1.721   3.228   2.413 -0.6932 -0.6072 -0.3858
47013SOL     OW58648  12.380  13.720   0.849 -0.0543  0.0069 -0.1759
47013SOL    HW158649  12.302  13.667   0.833  1.6310 -2.0040 -2.3188
47013SOL    HW258650  12.386  13.777   0.771  0.2990  0.5963  0.2715
47014SOL     OW58651   8.693   4.193   3.500  0.0061 -0.0431 -0.2250
47014SOL    HW158652   8.744   4.122   3.461 -0.1386 -0.0838 -0.3415
47014SOL    HW258653   8.612   4.195   3.448 -0.6755 -0.8355  0.7732
47015SOL     OW58654   2.954  13.577   8.616  0.1550  0.9239  0.4615
47015SOL    HW158655   2.943  13.605   8.525 -1.9031  2.2889  1.0666
47015SOL    HW258656   3.033  13.623   8.645  1.3428 -0.2007 -0.8280
47016SOL     OW58657  11.873   2.079   8.984 -0.1005  0.1355 -0.2746
47016SOL    HW158658  11.897   2.153   8.928 -0.3298 -0.2492 -0.8855
47016SOL    HW258659  11.800   2.037   8.939  0.8549 -1.2360 -0.6121
47017SOL     OW58660  10.321   1.983   3.882  0.0583  0.3401  0.8362
47017SOL    HW158661  10.405   1.962   3.840 -0.1727  0.5702  0.2689
47017SOL    HW258662  10.315   2.078   3.879  0.7868  0.5187  2.8268
47018SOL     OW58663   3.343   4.574  12.997 -0.3766 -0.5508 -0.1666
47018SOL    HW158664   3.425   4.564  12.949 -0.7080  0.3217 -0.9499
47018SOL    HW258665   3.277   4.538  12.939 -0.6837 -0.2513 -0.0035
47019SOL     OW58666  12.424  13.513   6.990  0.2181 -0.4464  0.1877
47019SOL    HW158667  12.426  13.549   6.901 -0.6266 -0.7415  0.0386
47019SOL    HW258668  12.490  13.563   7.038 -1.0124  1.4331  0.0250
47020SOL     OW58669  12.373   9.453  11.186 -0.0007  0.5018  0.0901
47020SOL    HW158670  12.444   9.477  11.246 -0.9822  1.2284  1.0002
47020SOL    HW258671  12.345   9.535  11.147 -0.8754  0.3395  0.3603
47021SOL     OW58672   8.963   8.659  10.066  0.3353  0.4957 -0.4115
47021SOL    HW158673   8.928   8.728  10.010 -0.4693  0.5768  0.1764
47021SOL    HW258674   8.935   8.578  10.023  1.0591  0.5215 -0.9608
47022SOL     OW58675   4.665   2.669   7.440 -0.6406 -0.3976  0.2701
47022SOL    HW158676   4.754   2.703   7.426 -0.8214 -0.0485 -0.0376
47022SOL    HW258677   4.633   2.716   7.517 -0.8493  0.0552 -0.0892
47023SOL     OW58678   0.455   7.375   6.586  0.1791  0.0326  0.2418
47023SOL    HW158679   0.430   7.287   6.614 -2.0101 -0.1880 -1.9634
47023SOL    HW258680   0.518   7.361   6.515  0.1989  0.2559  0.2149
47024SOL     OW58681   5.084   5.138   1.959  0.1205 -0.0890  0.3385
47024SOL    HW158682   5.085   5.135   1.864 -2.8691 -0.4645  0.2210
47024SOL    HW258683   5.064   5.048   1.986  0.5911  0.0795  1.2962
47025SOL     OW58684   0.627   1.053   4.618 -0.3888 -0.0780  0.3388
47025SOL    HW158685   0.532   1.061   4.610 -1.0616  2.7351  5.8986
47025SOL    HW258686   0.641   0.962   4.646 -1.6234 -0.1808  0.6900
47026SOL     OW58687   0.441   5.271  10.198  0.2803 -0.3634 -0.1001
47026SOL    HW158688   0.514   5.332  10.208  0.0894 -0.2842  0.8571
47026SOL    HW258689   0.439   5.222  10.280 -0.2489 -0.9223 -0.4349
47027SOL     OW58690   5.790  10.907   4.002 -0.6310 -0.3210 -0.0134
47027SOL    HW158691   5.837  10.990   4.010  0.4725 -0.8396 -0.8431
47027SOL    HW258692   5.785  10.892   3.907 -0.0766 -1.6086  0.1495
47028SOL     OW58693   4.966  11.490   0.820  0.0343 -0.4760 -0.1420
47028SOL    HW158694   4.918  11.484   0.738 -0.0873 -0.5816 -0.0639
47028SOL    HW258695   4.900  11.474   0.888  0.7445 -3.9932 -0.1301
47029SOL     OW58696   9.603   3.472   0.038  0.2027 -0.1815  0.3151
47029SOL    HW158697   9.595   3.556   0.083 -1.1713 -0.8753  1.4209
47029SOL    HW258698   9.596   3.494  -0.055  0.5524  0.9887  0.5469
47030SOL     OW58699  13.852   9.125  10.528  0.2542  0.2197 -0.2685
47030SOL    HW158700  13.939   9.089  10.512 -0.1402 -0.8879 -0.0063
47030SOL    HW258701  13.801   9.051  10.563 -0.4593  1.1408  0.7060
47031SOL     OW58702   4.232   7.606  13.652  0.0685 -0.3136 -0.1235
47031SOL    HW158703   4.231   7.544  13.726 -1.2938  0.4897  0.5775
47031SOL    HW258704   4.241   7.550  13.575  1.6353 -1.1783  0.6243
47032SOL     OW58705   4.201   7.923   1.040 -0.4077  0.5287  0.3436
47032SOL    HW158706   4.141   7.990   1.075 -3.8129 -0.0785 -3.5389
47032SOL    HW258707   4.247   7.967   0.968  2.3446  0.3298  1.8532
47033SOL     OW58708   6.704   9.593  13.167 -0.1440 -0.7485  0.1636
47033SOL    HW158709   6.685   9.575  13.259  0.3959 -1.9603  0.0554
47033SOL    HW258710   6.743   9.512  13.134 -1.6761 -0.8513 -1.5310
47034SOL     OW58711   9.314   6.818   1.201  0.0459  0.0793  0.0703
47034SOL    HW158712   9.228   6.777   1.216 -0.0600  0.3414  0.1852
47034SOL    HW258713   9.372   6.775   1.264 -0.4407  1.3123  1.3990
47035SOL     OW58714  12.396  10.393  12.729 -0.2205  0.1016  0.4474
47035SOL    HW158715  12.459  10.464  12.740  0.1435 -0.4949  2.7879
47035SOL    HW258716  12.378  10.363  12.818 -0.8618 -2.3107 -0.4092
47036SOL     OW58717  10.219  10.343   2.696  0.3337 -0.1044 -0.3925
47036SOL    HW158718  10.150  10.323   2.633 -0.2338  0.1737  0.1316
47036SOL    HW258719  10.183  10.315   2.780  1.0182 -0.3232 -0.1699
47037SOL     OW58720  12.408  10.124   9.463  0.0211 -0.2206  0.0188
47037SOL    HW158721  12.348  10.186   9.505 -0.0701 -0.3682  0.1105
47037SOL    HW258722  12.378  10.119   9.372  0.2246  0.1081 -0.0669
47038SOL     OW58723  13.886   3.576   8.211  0.5447 -0.6388  1.0852
47038SOL    HW158724  13.933   3.507   8.258  0.3214 -0.8407  1.0123
47038SOL    HW258725  13.818   3.530   8.162 -0.3493 -0.2630  1.9501
47039SOL     OW58726  12.773   2.021   5.288 -0.1257 -0.0136 -0.1402
47039SOL    HW158727  12.729   1.970   5.357  0.1128  2.3382  1.8837
47039SOL    HW258728  12.737   1.987   5.206 -2.6663 -0.9395  1.2481
47040SOL     OW58729   3.123  12.983   1.360 -0.3561 -0.2091 -0.0381
47040SOL    HW158730   3.180  13.034   1.418 -0.1625  0.8785 -1.1537
47040SOL    HW258731   3.087  12.915   1.417 -0.5862  1.1360  1.4991
47041SOL     OW58732  13.203   7.710   7.821 -0.7426 -0.1525  0.5372
47041SOL    HW158733  13.109   7.695   7.811 -1.3979  2.6418  1.5268
47041SOL    HW258734  13.229   7.657   7.896 -1.9057  0.2111  1.2171
47042SOL     OW58735  11.655   5.260  10.832  0.1405 -0.1658  0.1527
47042SOL    HW158736  11.696   5.297  10.754  1.1215 -3.1009 -0.8658
47042SOL    HW258737  11.729   5.244  10.892 -0.4876  1.1373  1.3345
47043SOL     OW58738  11.174  13.735   8.252  0.7715 -0.0174  0.4670
47043SOL    HW158739  11.096  13.691   8.285  1.4030 -0.7953  0.9862
47043SOL    HW258740  11.246  13.697   8.304  1.3687  1.5208  0.8150
47044SOL     OW58741   9.180   4.009   2.886  0.1167 -1.0562  0.3015
47044SOL    HW158742   9.122   3.934   2.897 -0.2071 -0.8203  0.2026
47044SOL    HW258743   9.177   4.030   2.793  0.2986 -0.9943  0.3076
47045SOL     OW58744   2.515   2.135   2.311 -0.3645  0.0406  0.0769
47045SOL    HW158745   2.591   2.140   2.253  0.0698 -0.0334  0.6405
47045SOL    HW258746   2.440   2.142   2.252  0.0811  1.1726 -0.3702
47046SOL     OW58747  13.297   7.887   3.065 -0.0706  0.1814  0.5675
47046SOL    HW158748  13.248   7.811   3.034  3.8270 -2.3217 -0.2067
47046SOL    HW258749  13.348   7.915   2.989  1.7816  0.7437  1.9508
47047SOL     OW58750   8.844  10.269   1.642  0.6902  0.0126 -0.0047
47047SOL    HW158751   8.865  10.205   1.573 -0.1142 -1.4754  1.0974
47047SOL    HW258752   8.917  10.261   1.704  0.0619 -0.6491  0.6729
47048SOL     OW58753   4.300   2.908  13.764  0.3900  0.2529  0.3123
47048SOL    HW158754   4.243   2.984  13.753  1.3258  1.2588  1.9959
47048SOL    HW258755   4.377   2.928  13.711  0.1751 -0.0429 -0.1184
47049SOL     OW58756   2.270  12.735   5.974  0.5818  0.0269 -0.3941
47049SOL    HW158757   2.224  12.789   5.910  0.5439  0.6151  0.1205
47049SOL    HW258758   2.336  12.688   5.923  0.2894  0.1823 -0.9248
47050SOL     OW58759   9.506   0.101   2.675  0.3610  0.2569 -0.0539
47050SOL    HW158760   9.571   0.034   2.655  0.9435  1.0727 -0.9376
47050SOL    HW258761   9.433   0.052   2.713  0.5466 -0.9580 -1.1792
47051SOL     OW58762  10.051   4.759  13.624 -0.0342 -0.3105  0.5449
47051SOL    HW158763  10.073   4.668  13.603  1.2836  0.3418 -1.0582
47051SOL    HW258764  10.049   4.761  13.720 -0.2699 -2.0527  0.6152
47052SOL     OW58765  14.031   5.091   8.630  0.3019 -0.5604 -0.0770
47052SOL    HW158766  13.943   5.128   8.637 -0.3502 -1.8210 -1.1927
47052SOL    HW258767  14.051   5.095   8.536  0.5964 -2.1063 -0.1091
47053SOL     OW58768   3.785   0.526   9.377 -0.0989  0.1457  0.6712
47053SOL    HW158769   3.799   0.465   9.304 -1.0563  0.8629 -0.1405
47053SOL    HW258770   3.866   0.521   9.428  0.8954  0.1386 -0.8242
47054SOL     OW58771  12.143   6.126   8.228 -0.0587 -0.2876  0.3553
47054SOL    HW158772  12.178   6.214   8.238  1.3573 -0.8732  0.7004
47054SOL    HW258773  12.064   6.126   8.283  0.2957  0.5572  0.8935
47055SOL     OW58774  10.963   4.194  12.877  0.2819  0.1607 -0.5952
47055SOL    HW158775  10.905   4.177  12.803 -1.2654  0.0884  0.5987
47055SOL    HW258776  10.937   4.280  12.910  1.5184  0.5739 -0.6160
47056SOL     OW58777   0.028  13.245  10.507 -0.7236 -0.7902 -0.6050
47056SOL    HW158778   0.038  13.211  10.418 -3.1215 -0.7722 -0.9455
47056SOL    HW258779  -0.015  13.174  10.554  0.1742 -0.6501  0.4779
47057SOL     OW58780  11.714   3.835  13.080 -0.0930  0.2464 -0.1521
47057SOL    HW158781  11.620   3.836  13.061 -0.5157  0.6091  1.8155
47057SOL    HW258782  11.754   3.863  12.998 -1.8207  1.8925 -0.5179
47058SOL     OW58783   7.873   7.553   3.461  0.0800  0.5456  0.7209
47058SOL    HW158784   7.842   7.511   3.541  2.1750  0.9982  1.8347
47058SOL    HW258785   7.963   7.580   3.480 -0.1639  2.9110 -0.9365
47059SOL     OW58786   4.253   7.375  13.494  0.1530 -0.4422 -0.4556
47059SOL    HW158787   4.286   7.390  13.405 -0.3441 -0.6170 -0.6737
47059SOL    HW258788   4.303   7.300  13.525 -0.6152 -1.2322 -1.0976
47060SOL     OW58789   5.559  12.849   6.587 -0.2832  0.4011  0.1435
47060SOL    HW158790   5.558  12.905   6.665  0.4025 -1.3070  1.4484
47060SOL    HW258791   5.572  12.909   6.514 -0.0511  1.9763  1.4325
47061SOL     OW58792   1.228   9.603   8.257 -0.0413  0.4729  0.3899
47061SOL    HW158793   1.284   9.679   8.271 -0.5522  0.4310  3.2416
47061SOL    HW258794   1.161   9.633   8.195  0.0793  2.1853  1.0456
47062SOL     OW58795   1.370   9.561   0.825  0.7526 -0.0350  0.9430
47062SOL    HW158796   1.390   9.484   0.771 -1.4988 -1.4623  1.9882
47062SOL    HW258797   1.379   9.530   0.915  0.5987  1.1777  1.3941
47063SOL     OW58798  12.631   5.514   2.651 -0.1788  0.4296 -0.9051
47063SOL    HW158799  12.605   5.423   2.638  0.2138  0.3672 -1.3053
47063SOL    HW258800  12.563   5.552   2.706 -0.1398 -0.2087 -0.4114
47064SOL     OW58801  10.418   5.437   4.280 -0.1178 -0.0786 -0.2357
47064SOL    HW158802  10.443   5.439   4.188  0.0374 -2.3495 -0.2981
47064SOL    HW258803  10.426   5.527   4.310 -0.2600  0.7156 -2.4588
47065SOL     OW58804   6.990   4.376   5.660  0.2854  0.3443  0.1071
47065SOL    HW158805   6.999   4.351   5.753 -0.5237  1.2100  0.4304
47065SOL    HW258806   6.905   4.339   5.634 -0.6247  2.1010  0.4084
47066SOL     OW58807   5.113   4.697  10.216  0.4098 -0.2518  0.0224
47066SOL    HW158808   5.185   4.750  10.184  0.2545 -0.9314 -1.5295
47066SOL    HW258809   5.068   4.666  10.137  0.1284 -2.1510  0.8608
47067SOL     OW58810   6.500   5.981  10.362 -0.0383 -1.1983  0.1927
47067SOL    HW158811   6.590   5.984  10.328  0.0788 -2.3825  0.3552
47067SOL    HW258812   6.447   5.961  10.285 -0.1546 -0.6114  0.1180
47068SOL     OW58813   4.153  11.389   0.288 -0.4958  0.5820  0.6951
47068SOL    HW158814   4.239  11.399   0.249  1.3218  0.2829  4.2364
47068SOL    HW258815   4.106  11.469   0.265  1.3070  1.4909  0.0246
47069SOL     OW58816  13.897  12.922   1.230  0.0484 -0.4013  0.4196
47069SOL    HW158817  13.905  12.908   1.136  2.9412 -1.7420  0.7507
47069SOL    HW258818  13.811  12.962   1.241 -0.8881 -1.2763 -2.6463
47070SOL     OW58819   6.414  11.450   0.093 -0.5357  0.4399 -0.1715
47070SOL    HW158820   6.324  11.446   0.123 -0.5194 -0.4096 -0.2272
47070SOL    HW258821   6.441  11.359   0.083 -0.3193  0.6633 -2.0764
47071SOL     OW58822   3.000   5.042  14.068 -0.1603  0.1793 -0.0421
47071SOL    HW158823   2.918   5.022  14.112 -0.7809 -0.4760 -1.4525
47071SOL    HW258824   3.051   4.961  14.073 -0.2837  0.0608 -0.6138
47072SOL     OW58825   8.467   0.406  12.740 -0.0605 -0.0832 -0.7951
47072SOL    HW158826   8.421   0.439  12.663  3.4233  2.9168 -1.8845
47072SOL    HW258827   8.519   0.333  12.708 -0.7295 -0.6802 -0.5563
47073SOL     OW58828  14.024   5.197   9.158 -0.4151 -0.6387 -0.0461
47073SOL    HW158829  14.055   5.274   9.206 -1.3276  0.5865 -1.3355
47073SOL    HW258830  14.103   5.161   9.117 -0.2059  0.6263 -0.7991
47074SOL     OW58831   9.910  11.003   5.873  0.5944 -0.6314  0.0598
47074SOL    HW158832   9.990  10.951   5.860  1.8255  1.1799  0.0811
47074SOL    HW258833   9.883  10.983   5.962  1.2308 -0.9859  0.1805
47075SOL     OW58834   0.769   5.987   9.921 -0.4236  0.0653 -0.1031
47075SOL    HW158835   0.802   6.001   9.832 -2.7909 -2.3142 -1.4811
47075SOL    HW258836   0.686   6.033   9.923  0.0539  0.9353  1.2918
47076SOL     OW58837   9.391  11.447  10.092  0.3857  0.1356 -0.4338
47076SOL    HW158838   9.403  11.417  10.182  0.5288  1.1565 -0.0996
47076SOL    HW258839   9.305  11.415  10.066  0.2528  0.0255  0.1435
47077SOL     OW58840  10.128   5.873  11.806 -0.1671  0.1556  0.3997
47077SOL    HW158841  10.036   5.851  11.792  0.0938  0.3821 -1.9695
47077SOL    HW258842  10.158   5.809  11.871 -2.2865  0.9468  2.3214
47078SOL     OW58843   7.264   5.759  12.858  0.2508 -0.0308 -0.0224
47078SOL    HW158844   7.266   5.785  12.766 -2.6593 -0.7293 -0.3857
47078SOL    HW258845   7.246   5.840  12.905  0.7377  0.1703 -0.1848
47079SOL     OW58846   7.760  11.053   3.726 -0.2272  0.4537 -0.1736
47079SOL    HW158847   7.787  10.968   3.693  1.7959  0.2660  1.7083
47079SOL    HW258848   7.694  11.033   3.792 -1.0125  0.5083 -0.9226
47080SOL     OW58849  11.029   4.573  11.427 -0.7139 -0.7285  0.3542
47080SOL    HW158850  11.084   4.520  11.483  0.3784 -0.1213 -0.1184
47080SOL    HW258851  11.085   4.645  11.399 -2.2358  0.8858  1.2500
47081SOL     OW58852   6.567  11.330   7.158 -0.0442  0.1795 -0.8036
47081SOL    HW158853   6.584  11.236   7.157  0.3422  0.2136  0.6672
47081SOL    HW258854   6.540  11.349   7.248  1.8500  1.7884 -0.4841
47082SOL     OW58855   5.411  12.781   9.799 -0.4287  0.6310 -0.0866
47082SOL    HW158856   5.486  12.820   9.756  0.2273 -0.1930  0.2808
47082SOL    HW258857   5.448  12.728   9.870 -1.2600 -0.5998 -0.5273
47083SOL     OW58858   6.597  10.428   7.866 -0.4711 -0.2223  0.2125
47083SOL    HW158859   6.587  10.424   7.771 -0.8579 -0.9596  0.2801
47083SOL    HW258860   6.521  10.382   7.900  0.2682 -0.9833  0.8673
47084SOL     OW58861  12.164   6.908   3.061 -0.1001 -0.0839  0.9173
47084SOL    HW158862  12.070   6.923   3.076  0.0071  0.0316  1.5243
47084SOL    HW258863  12.203   6.918   3.148  0.5416  0.3644  0.5830
47085SOL     OW58864   5.790   0.866  13.395 -0.6946 -0.8416  0.0956
47085SOL    HW158865   5.791   0.870  13.300 -2.6333 -0.8002  0.0355
47085SOL    HW258866   5.831   0.782  13.417  1.5828  0.0073 -0.6356
47086SOL     OW58867   5.039   1.047   4.089  0.1703 -0.0352  0.0977
47086SOL    HW158868   5.043   1.137   4.055  3.7736 -0.1816 -0.2496
47086SOL    HW258869   4.980   1.002   4.028 -0.6181  1.7639 -0.5508
47087SOL     OW58870   0.716  12.898   8.992  0.3318  0.3520  0.0186
47087SOL    HW158871   0.720  12.803   8.996  2.5945  0.4256  2.2672
47087SOL    HW258872   0.783  12.923   8.928 -0.1546  0.4566 -0.4574
47088SOL     OW58873  10.883   3.130   2.923  0.2277  0.2159  0.3816
47088SOL    HW158874  10.973   3.161   2.912  0.3576  0.3065  1.5705
47088SOL    HW258875  10.833   3.209   2.947  0.7257 -0.4503  4.3524
47089SOL     OW58876   1.840   5.175  10.568  0.1427  0.2932 -0.2139
47089SOL    HW158877   1.875   5.150  10.654  1.2291 -1.2718 -1.0476
47089SOL    HW258878   1.755   5.133  10.564  0.7577 -0.9780 -0.4835
47090SOL     OW58879   2.274   2.139   2.142 -0.3791  0.7323  1.3059
47090SOL    HW158880   2.186   2.142   2.104  0.3768 -0.4264 -0.7110
47090SOL    HW258881   2.328   2.191   2.082  0.5060  0.5135  1.8854
47091SOL     OW58882  11.070   2.161   9.477 -0.0969 -0.1799 -0.5815
47091SOL    HW158883  11.090   2.255   9.478  1.0339 -0.4014 -0.5034
47091SOL    HW258884  11.003   2.150   9.545 -0.6583  0.6499 -0.9831
47092SOL     OW58885   3.183   2.475   9.048 -0.1383 -0.0800  0.3215
47092SOL    HW158886   3.263   2.456   8.998 -0.2201  0.6891 -0.1181
47092SOL    HW258887   3.202   2.443   9.136 -0.6436 -3.1288 -0.5568
47093SOL     OW58888   5.448   1.010   1.354 -0.5235 -0.0231  0.2018
47093SOL    HW158889   5.498   0.941   1.310 -1.0933 -0.7493  0.6673
47093SOL    HW258890   5.357   0.981   1.347 -0.9117  1.3485 -0.7573
47094SOL     OW58891  12.725   3.261   3.439  0.1203 -0.0963  0.2132
47094SOL    HW158892  12.636   3.263   3.404 -0.2964 -2.1367  1.0257
47094SOL    HW258893  12.756   3.172   3.419  2.0287  0.6088 -0.1437
47095SOL     OW58894   6.852   1.045   3.871 -0.2706  0.5776 -0.5222
47095SOL    HW158895   6.841   1.137   3.847  0.4824  0.7536 -0.2060
47095SOL    HW258896   6.939   1.022   3.839 -0.3327  0.0615 -0.3275
47096SOL     OW58897   2.800   8.310   9.081  0.4224  0.0816 -0.1184
47096SOL    HW158898   2.786   8.389   9.028  1.2906  1.8913  2.2012
47096SOL    HW258899   2.891   8.285   9.064 -0.3086 -1.5291 -2.1311
47097SOL     OW58900  11.351   6.293  10.490  0.6148  0.0901 -0.0497
47097SOL    HW158901  11.347   6.334  10.577 -1.7636  1.5593 -0.7524
47097SOL    HW258902  11.383   6.362  10.432  0.9162 -0.4698 -0.5592
47098SOL     OW58903  11.503  13.162  11.724  0.1457  0.2494 -0.2913
47098SOL    HW158904  11.556  13.201  11.655 -1.8336  0.7363 -1.6092
47098SOL    HW258905  11.536  13.201  11.805  2.2511 -0.0407 -0.9507
47099SOL     OW58906  12.868   4.974  13.648 -0.5621 -0.8606 -0.6191
47099SOL    HW158907  12.822   4.905  13.600 -1.2142 -2.0903  1.6199
47099SOL    HW258908  12.907   4.929  13.723  2.7905  0.4758 -1.3884
47100SOL     OW58909   4.816   3.899  13.746 -0.5604  0.1328 -0.2783
47100SOL    HW158910   4.721   3.908  13.747 -0.5859 -0.0013 -0.9407
47100SOL    HW258911   4.842   3.935  13.661 -0.0790 -0.4148 -0.3614
47101SOL     OW58912   2.767   6.155   6.881  0.3855  0.4952 -0.3596
47101SOL    HW158913   2.848   6.160   6.831  0.1601 -0.2273 -0.8136
47101SOL    HW258914   2.716   6.230   6.851 -0.2945 -0.6456 -2.2392
47102SOL     OW58915   5.127  13.975   4.346  0.3728 -0.2271 -0.0224
47102SOL    HW158916   5.154  13.918   4.418 -1.2754  1.1339  1.7857
47102SOL    HW258917   5.054  13.928   4.304 -0.0691 -0.0733  0.5714
47103SOL     OW58918  12.749   7.777  10.380  0.0340  0.2453  0.1024
47103SOL    HW158919  12.693   7.850  10.354 -1.3467 -1.3250 -1.5913
47103SOL    HW258920  12.838   7.804  10.357 -0.4966  1.2632 -0.7687
47104SOL     OW58921   5.216  13.856   7.461 -0.6491 -0.0804  0.1940
47104SOL    HW158922   5.182  13.942   7.486 -2.7574 -0.8326  0.0863
47104SOL    HW258923   5.300  13.874   7.420 -0.1895  1.7653  1.7982
47105SOL     OW58924  11.713   9.879   4.058  0.3284  0.0487 -0.0084
47105SOL    HW158925  11.738   9.799   4.011 -0.5683  0.0991 -0.5965
47105SOL    HW258926  11.744   9.865   4.147  0.0847 -1.0062 -0.0755
47106SOL     OW58927   8.485  10.930   4.684  0.2880 -0.9627  0.5144
47106SOL    HW158928   8.538  10.885   4.749  0.2334 -0.7228  0.7259
47106SOL    HW258929   8.538  10.929   4.605  0.8669 -0.2021  0.8805
47107SOL     OW58930   5.172   4.369   7.641 -0.0149 -0.1882  0.2224
47107SOL    HW158931   5.203   4.446   7.593 -1.0106 -0.1135 -0.3388
47107SOL    HW258932   5.106   4.402   7.701 -1.9057 -0.7905 -1.4009
47108SOL     OW58933   3.736   6.671   0.371  0.2797  0.3651  0.4907
47108SOL    HW158934   3.655   6.655   0.324 -0.3714 -0.3091  1.7884
47108SOL    HW258935   3.803   6.676   0.303 -0.8708  1.1625 -0.6089
47109SOL     OW58936  10.251   5.404   6.641 -0.1056  0.4241  0.0068
47109SOL    HW158937  10.290   5.416   6.554  0.7883  2.4409  0.6212
47109SOL    HW258938  10.257   5.490   6.682 -2.3268  0.0059  1.3654
47110SOL     OW58939   6.301   3.061   5.821  0.1234  0.4562  0.0500
47110SOL    HW158940   6.367   3.103   5.876 -0.2321  1.8198 -0.5295
47110SOL    HW258941   6.218   3.097   5.852 -0.2251 -0.1257 -0.1943
47111SOL     OW58942  10.933   5.477  10.023  0.8480 -0.3701 -0.1699
47111SOL    HW158943  10.936   5.506  10.114 -1.6183  1.2656 -0.5128
47111SOL    HW258944  10.856   5.420  10.019  0.6089  0.0068 -1.3054
47112SOL     OW58945   4.579  13.896   6.426  0.1791 -0.3720 -0.2764
47112SOL    HW158946   4.659  13.856   6.462  1.0585  0.6822 -0.9742
47112SOL    HW258947   4.509  13.866   6.483  1.0157 -1.6522  0.1280
47113SOL     OW58948  13.918  10.433   5.601 -0.2850 -0.0601 -0.1050
47113SOL    HW158949  13.970  10.505   5.566  1.5162 -0.1117  2.2411
47113SOL    HW258950  13.857  10.473   5.661 -0.0692 -0.3756  0.3313
47114SOL     OW58951   5.527  12.534   3.525 -0.4854 -0.1103 -0.6655
47114SOL    HW158952   5.613  12.496   3.504 -0.5588 -0.5723 -0.1638
47114SOL    HW258953   5.533  12.624   3.494  0.3461 -0.0013 -0.2240
47115SOL     OW58954  11.145  10.928  10.646  0.2644  0.0789  0.5293
47115SOL    HW158955  11.177  11.017  10.661 -1.1469  0.9965 -1.5111
47115SOL    HW258956  11.099  10.932  10.562  0.3829 -2.6524  0.2254
47116SOL     OW58957   5.946   5.423   5.455  0.1814  0.3823  0.2532
47116SOL    HW158958   6.007   5.353   5.481 -1.5452 -0.8255  1.2401
47116SOL    HW258959   5.953   5.488   5.525  1.3640  0.9552 -0.3705
47117SOL     OW58960   3.382  11.238  11.178 -0.2230 -0.2022  0.0425
47117SOL    HW158961   3.408  11.264  11.266  3.1042  0.7394 -1.0801
47117SOL    HW258962   3.320  11.306  11.151 -2.1917 -1.1093  1.9456
47118SOL     OW58963   9.851   3.830  11.283  0.1170  0.4321  0.0809
47118SOL    HW158964   9.788   3.893  11.319 -0.6295 -1.4000  2.1985
47118SOL    HW258965   9.932   3.848  11.332  0.0801  0.1595  0.2423
47119SOL     OW58966  12.157  12.252   4.021 -0.8295 -0.1021 -0.2420
47119SOL    HW158967  12.227  12.197   4.057  0.6362 -0.0826 -2.8277
47119SOL    HW258968  12.082  12.193   4.014 -0.0009 -1.1326 -0.7165
47120SOL     OW58969   3.326   2.650   1.082  0.3766 -0.2155 -0.3849
47120SOL    HW158970   3.236   2.679   1.066  0.9747  0.8869 -1.9550
47120SOL    HW258971   3.371   2.728   1.113  0.7129 -0.8723  0.8298
47121SOL     OW58972   0.033   7.816   2.092 -0.0355  0.6674 -0.3172
47121SOL    HW158973  -0.012   7.889   2.050  0.1350  0.7720 -0.3186
47121SOL    HW258974   0.120   7.850   2.114 -0.4008  0.8843  0.8871
47122SOL     OW58975   4.240  12.368   3.949 -0.0000  0.1131 -0.1086
47122SOL    HW158976   4.331  12.374   3.977  0.2848 -0.6411 -0.8352
47122SOL    HW258977   4.219  12.274   3.955  0.1196 -0.1347 -2.4391
47123SOL     OW58978  13.903  10.921   7.303  0.0638  0.2068  0.8559
47123SOL    HW158979  13.958  10.884   7.233 -1.5725  0.0629 -0.4030
47123SOL    HW258980  13.955  10.993   7.338 -0.1006  2.1245 -2.4126
47124SOL     OW58981   7.779  12.257   6.390 -0.1721  0.1042  1.3165
47124SOL    HW158982   7.716  12.301   6.446 -1.8176 -0.1496 -0.2398
47124SOL    HW258983   7.734  12.178   6.360 -0.1197  1.0917 -1.7316
47125SOL     OW58984  13.701   4.558   3.199 -0.3936 -0.3394 -0.6144
47125SOL    HW158985  13.729   4.620   3.131 -1.2295  1.0656  0.2939
47125SOL    HW258986  13.710   4.606   3.281 -4.0043 -0.2348 -0.1113
47126SOL     OW58987   0.690   8.789   0.749 -0.2408  1.0953 -0.1978
47126SOL    HW158988   0.765   8.767   0.694 -0.4963  2.2433 -1.0339
47126SOL    HW258989   0.724   8.782   0.838 -0.2107 -2.2952 -0.3114
47127SOL     OW58990  12.274  11.421   6.937  0.4292  0.0725 -0.1829
47127SOL    HW158991  12.330  11.494   6.965  0.1906 -0.0241  0.5826
47127SOL    HW258992  12.202  11.463   6.890 -0.0331  0.4025  0.7879
47128SOL     OW58993   9.014   1.543   3.838 -0.0135 -0.4397 -0.0724
47128SOL    HW158994   9.004   1.457   3.880  0.3301  0.0833  1.1221
47128SOL    HW258995   8.926   1.565   3.807 -0.0421 -1.3657 -0.7027
47129SOL     OW58996   2.158   8.214   5.556 -0.1461  0.5912  0.3286
47129SOL    HW158997   2.204   8.234   5.474 -0.1931 -1.3901 -0.2317
47129SOL    HW258998   2.228   8.210   5.622  0.6894 -2.7486 -0.5813
47130SOL     OW58999   4.866  11.599  12.929 -0.1500 -0.2364  0.0934
47130SOL    HW159000   4.952  11.562  12.909 -0.1741  0.2809 -1.0349
47130SOL    HW259001   4.867  11.685  12.888 -1.1000 -0.1091  0.3247
47131SOL     OW59002   2.520   9.538  11.056  0.2410  0.2940  0.2714
47131SOL    HW159003   2.500   9.582  11.138 -0.8394 -1.9388  1.2885
47131SOL    HW259004   2.436   9.536  11.009  0.9042  1.7935 -1.0635
47132SOL     OW59005   9.527   4.622   1.486  0.0941  0.7357  0.5562
47132SOL    HW159006   9.551   4.712   1.462  1.2093  0.2712 -0.1485
47132SOL    HW259007   9.578   4.567   1.427  0.7067 -0.3926  2.0740
47133SOL     OW59008   4.524   4.074   1.747  0.6802 -0.8854  0.3999
47133SOL    HW159009   4.545   4.153   1.797 -2.1002  0.3997 -0.3025
47133SOL    HW259010   4.599   4.063   1.689  1.6453  0.5739  1.2847
47134SOL     OW59011  13.304   2.307   3.293 -0.1302  0.5940 -0.6181
47134SOL    HW159012  13.382   2.348   3.330  0.3475  0.8439 -1.8596
47134SOL    HW259013  13.232   2.359   3.328  0.3472  1.2787 -0.6272
47135SOL     OW59014  11.842  12.269   6.585  0.4728 -0.0261  0.0137
47135SOL    HW159015  11.867  12.335   6.520  2.7944 -0.0931  0.7447
47135SOL    HW259016  11.893  12.291   6.663  1.6223 -2.8241  0.1891
47136SOL     OW59017   7.389  11.112  10.022 -0.0765  0.2450 -0.2469
47136SOL    HW159018   7.432  11.044   9.970 -1.9284  0.0721 -1.6887
47136SOL    HW259019   7.445  11.124  10.098  2.9020  0.6105 -2.3179
47137SOL     OW59020  10.950  11.319   9.079 -0.4162  0.3910 -0.4619
47137SOL    HW159021  10.961  11.408   9.112 -1.2040  1.1715 -2.2166
47137SOL    HW259022  11.033  11.300   9.034  0.6965 -0.7090  1.8545
47138SOL     OW59023   3.074   0.167   8.893 -0.2695 -0.0507  0.1125
47138SOL    HW159024   3.135   0.174   8.820 -0.8671  0.5445 -0.3366
47138SOL    HW259025   3.088   0.078   8.927  2.7049  0.8888  1.6956
47139SOL     OW59026   7.456  10.849   9.354 -0.3580 -0.2833 -0.4603
47139SOL    HW159027   7.431  10.914   9.419  0.6161 -0.5378  0.1838
47139SOL    HW259028   7.373  10.810   9.326 -0.7731 -0.2609  0.7139
47140SOL     OW59029   3.047  12.397  12.614 -0.4779  0.3135  0.0017
47140SOL    HW159030   2.959  12.433  12.619 -0.6084  0.3898 -2.0654
47140SOL    HW259031   3.045  12.320  12.670 -1.0798  1.7266  2.0317
47141SOL     OW59032   7.928   0.928   8.760  0.2158 -0.2595 -0.5276
47141SOL    HW159033   7.888   0.964   8.840  1.8138 -0.4591  0.4086
47141SOL    HW259034   7.900   0.836   8.759 -0.1597 -0.1487 -0.4332
47142SOL     OW59035  12.029   5.753   6.834  0.0891  0.5126 -0.3031
47142SOL    HW159036  12.107   5.757   6.779  1.6781  0.0681  1.7836
47142SOL    HW259037  12.027   5.663   6.867 -0.8472  0.7400  0.3069
47143SOL     OW59038   4.915  12.070   7.335 -0.2206  0.3899  0.6506
47143SOL    HW159039   4.855  12.003   7.304 -1.2776  1.3070  0.6305
47143SOL    HW259040   4.996  12.024   7.353 -0.3457 -0.5988 -1.0809
47144SOL     OW59041   4.574   0.802   1.974  0.5208  0.1271  0.1725
47144SOL    HW159042   4.536   0.888   1.989 -1.1366 -0.3176 -1.0949
47144SOL    HW259043   4.587   0.765   2.061  1.2589  1.6407  0.7231
47145SOL     OW59044   1.245   5.712  10.931  0.1622 -0.0934  0.3229
47145SOL    HW159045   1.192   5.791  10.941  0.7816  0.2109  1.2924
47145SOL    HW259046   1.334   5.739  10.955  0.9237 -0.4359 -1.8288
47146SOL     OW59047   1.022   2.656   3.474 -0.0672 -0.1313 -0.3943
47146SOL    HW159048   0.944   2.712   3.469 -0.8287 -1.1322 -0.0490
47146SOL    HW259049   0.987   2.570   3.495  1.1272 -0.6514 -0.5213
47147SOL     OW59050   7.623   3.245  12.885 -0.2462  0.2685  0.2087
47147SOL    HW159051   7.644   3.324  12.934 -0.6125  0.4581  0.0625
47147SOL    HW259052   7.552   3.271  12.826  1.3585  0.5147 -1.7089
47148SOL     OW59053   3.323   2.658   0.641  0.0000 -0.1657 -0.2782
47148SOL    HW159054   3.378   2.735   0.657  0.9497 -0.9856  0.4532
47148SOL    HW259055   3.295   2.668   0.550  1.3243  0.3001 -0.6558
47149SOL     OW59056  13.312  11.546   9.307 -0.0893  0.3641  0.2723
47149SOL    HW159057  13.246  11.554   9.239 -0.1705 -1.3129  0.1069
47149SOL    HW259058  13.392  11.521   9.260  0.4301  1.3889  0.5787
47150SOL     OW59059   0.273   5.687   6.295  0.2611  0.2860  0.5120
47150SOL    HW159060   0.272   5.783   6.301  1.2542  0.2889  0.8035
47150SOL    HW259061   0.326   5.658   6.370  0.5263 -0.4508  0.0538
47151SOL     OW59062   2.650   7.042   8.643  0.6025 -0.1778  0.2361
47151SOL    HW159063   2.618   7.100   8.712  0.3904 -0.0749  0.0522
47151SOL    HW259064   2.674   7.100   8.571 -0.0978 -0.3461 -0.1434
47152SOL     OW59065   6.895  11.363  12.409 -0.5981  0.2385 -0.0480
47152SOL    HW159066   6.801  11.347  12.417 -0.9679  2.4563  0.9165
47152SOL    HW259067   6.920  11.404  12.492  1.4755 -1.2888  0.1551
47153SOL     OW59068   8.364  10.327   0.742  0.0110 -0.0664 -0.3885
47153SOL    HW159069   8.367  10.311   0.648 -0.0114  1.3382 -0.6407
47153SOL    HW259070   8.275  10.357   0.759  0.5048  1.3800 -0.2278
47154SOL     OW59071   9.531  11.790   9.461 -0.3769  0.4928 -0.3648
47154SOL    HW159072   9.555  11.880   9.484 -0.7842  1.3933 -3.1228
47154SOL    HW259073   9.461  11.767   9.522  1.3865  1.0571  2.0178
47155SOL     OW59074   6.724   4.127   3.669  0.1618  0.2718  0.1324
47155SOL    HW159075   6.797   4.076   3.634  0.3096  1.4336 -1.3548
47155SOL    HW259076   6.765   4.207   3.703 -0.3932  1.0746 -0.9933
47156SOL     OW59077  11.123  13.204   5.055 -0.3766 -0.4768  0.2107
47156SOL    HW159078  11.086  13.247   4.977  0.0896  1.1822  0.8637
47156SOL    HW259079  11.176  13.133   5.020  0.6566  0.8737 -1.0837
47157SOL     OW59080  12.557  10.840   3.491  0.4096 -0.3906 -0.0957
47157SOL    HW159081  12.556  10.936   3.490  2.5350 -0.2794  1.2082
47157SOL    HW259082  12.601  10.815   3.410  2.6971 -0.0484  0.9502
47158SOL     OW59083  13.076  10.576  11.925 -0.1682  0.1776  0.2321
47158SOL    HW159084  13.134  10.608  11.994 -0.4244 -1.0893  1.0592
47158SOL    HW259085  13.085  10.481  11.927 -1.3105  0.0297 -0.4822
47159SOL     OW59086   5.603  11.065   3.812  0.1511 -0.0238 -0.2896
47159SOL    HW159087   5.547  11.100   3.744  1.5396 -1.3738 -2.2401
47159SOL    HW259088   5.629  10.978   3.780  1.7919 -0.2395  1.4085
47160SOL     OW59089   7.193   5.488  13.807  0.1916  0.1454 -0.3847
47160SOL    HW159090   7.183   5.486  13.712 -1.1975 -0.9447 -0.2530
47160SOL    HW259091   7.285   5.511  13.821  0.2078  1.2290 -1.9628
47161SOL     OW59092   9.864  10.913   2.389  0.3343 -0.3479  0.9241
47161SOL    HW159093   9.956  10.942   2.391  0.8396 -1.3014 -2.7084
47161SOL    HW259094   9.868  10.820   2.371 -1.3528 -0.3858  0.5850
47162SOL     OW59095  12.122  13.986   9.499  0.0779  0.6296 -0.1528
47162SOL    HW159096  12.210  14.008   9.530 -0.4478 -0.1141  2.0513
47162SOL    HW259097  12.064  14.014   9.569 -1.2706 -0.6457 -0.6982
47163SOL     OW59098   0.122   5.014   6.677 -0.5638  0.0303 -0.0693
47163SOL    HW159099   0.081   5.087   6.630 -2.5944  0.5740  2.3333
47163SOL    HW259100   0.061   4.941   6.664 -1.5793  0.3964  2.1998
47164SOL     OW59101   2.089   0.325   9.806  0.4273 -0.0880 -0.2310
47164SOL    HW159102   2.093   0.229   9.813 -1.2312 -0.3573 -1.9529
47164SOL    HW259103   2.033   0.340   9.729  0.2528  2.2745  0.3014
47165SOL     OW59104   0.230   6.218  11.866 -0.3508 -0.1400  0.2136
47165SOL    HW159105   0.227   6.211  11.961  1.0685 -1.7547  0.1785
47165SOL    HW259106   0.307   6.168  11.840 -1.0532 -0.2727 -1.8276
47166SOL     OW59107   3.061  10.982  13.761 -0.1037  0.1421 -0.4290
47166SOL    HW159108   2.989  11.014  13.707 -1.3139  0.7007  1.4041
47166SOL    HW259109   3.065  10.888  13.743 -0.9879  0.1869 -0.9076
47167SOL     OW59110   2.562   4.257   3.359  0.6490  0.1649 -0.0414
47167SOL    HW159111   2.520   4.206   3.290  1.4717  0.3534 -0.6992
47167SOL    HW259112   2.655   4.236   3.351  0.7569  0.1449  1.0532
47168SOL     OW59113   1.011   6.315  11.239  0.0857  0.8186 -0.4010
47168SOL    HW159114   1.000   6.286  11.148 -1.0248  1.5901 -0.5440
47168SOL    HW259115   0.922   6.331  11.270  0.3460 -0.6555  1.2756
47169SOL     OW59116   4.339   8.259   8.665 -0.0867  1.4472 -0.4615
47169SOL    HW159117   4.267   8.225   8.718 -1.2047 -1.9157 -3.6994
47169SOL    HW259118   4.418   8.231   8.711 -0.9772 -0.0321  0.2401
47170SOL     OW59119   9.677   2.905   9.104  0.3853  0.2720  0.1350
47170SOL    HW159120   9.764   2.907   9.142  0.4066 -1.8563  0.3048
47170SOL    HW259121   9.619   2.933   9.175  0.6859 -1.0626  0.9478
47171SOL     OW59122   7.398   2.166   3.351  0.0856 -0.1877  0.0471
47171SOL    HW159123   7.393   2.239   3.412 -3.3206 -0.8602  0.7528
47171SOL    HW259124   7.439   2.203   3.272 -2.7926  2.9523 -0.1708
47172SOL     OW59125   7.284   5.474   3.312 -0.3367  0.2191  0.1222
47172SOL    HW159126   7.253   5.552   3.267 -0.9423 -0.0884 -0.0142
47172SOL    HW259127   7.213   5.451   3.372 -1.1359 -1.4247 -1.3446
47173SOL     OW59128  13.870   6.743   2.366  0.3357 -0.4457 -0.1537
47173SOL    HW159129  13.952   6.782   2.335 -0.0524  0.2080 -0.4012
47173SOL    HW259130  13.863   6.769   2.457  2.2669 -3.6974  1.0735
47174SOL     OW59131   7.670   3.957   2.954 -0.1768  0.1695 -0.3313
47174SOL    HW159132   7.684   3.924   3.042  0.3713  1.6679  0.1813
47174SOL    HW259133   7.649   4.050   2.966  0.0151  0.4361 -1.7873
47175SOL     OW59134   3.530   7.420   3.395  0.5073 -0.2108 -0.3789
47175SOL    HW159135   3.456   7.461   3.441 -0.2727  1.7800 -3.1065
47175SOL    HW259136   3.499   7.332   3.375  0.0271 -0.3687  0.9365
47176SOL     OW59137   5.473   6.044  13.374 -0.0142 -0.5191 -0.1974
47176SOL    HW159138   5.521   5.961  13.373 -0.7371 -0.9550  0.0651
47176SOL    HW259139   5.541   6.111  13.367  0.7893 -1.0542  1.6861
47177SOL     OW59140   2.147   1.346   7.789  0.6925  0.0180 -0.7417
47177SOL    HW159141   2.139   1.251   7.774 -0.4048 -0.0457  0.1216
47177SOL    HW259142   2.174   1.353   7.880  1.2868  0.5369 -0.9542
47178SOL     OW59143   6.302   1.207   5.416  0.2492  0.2445 -0.7155
47178SOL    HW159144   6.246   1.270   5.461  1.5114  0.2391  0.9711
47178SOL    HW259145   6.354   1.167   5.486 -0.0655 -2.2256 -1.8158
47179SOL     OW59146   1.234   4.395   3.480 -0.7309  0.1426 -0.0040
47179SOL    HW159147   1.170   4.327   3.500 -0.7892 -0.0842 -0.8977
47179SOL    HW259148   1.188   4.453   3.419  0.0365 -0.2794 -1.0269
47180SOL     OW59149  11.504  13.565   4.445  0.2004  0.3199 -0.6080
47180SOL    HW159150  11.570  13.608   4.499  0.2641 -0.1561 -0.2961
47180SOL    HW259151  11.551  13.538   4.366  1.0009 -2.0754  0.5720
47181SOL     OW59152   6.879  13.989   3.755  0.2988  0.0223 -0.2471
47181SOL    HW159153   6.965  14.030   3.740  0.2309  0.0426 -0.5844
47181SOL    HW259154   6.821  14.034   3.694  0.1083 -0.1924 -0.2224
47182SOL     OW59155  13.641  12.005   2.791 -0.0479 -0.2034 -0.0147
47182SOL    HW159156  13.652  12.088   2.837  0.5176 -0.4898  0.3813
47182SOL    HW259157  13.728  11.985   2.756  0.2473 -1.4137  1.2738
47183SOL     OW59158  13.143   0.102   2.840 -0.5052 -0.2797 -0.3190
47183SOL    HW159159  13.070   0.041   2.836 -0.3830 -0.4373 -0.1691
47183SOL    HW259160  13.128   0.163   2.768 -1.0564  0.0013  0.0334
47184SOL     OW59161   8.466   1.666   3.342  0.6615  0.5257 -0.1829
47184SOL    HW159162   8.513   1.619   3.411  0.3600 -0.4742 -0.6393
47184SOL    HW259163   8.378   1.628   3.343  0.6570  0.4972 -1.1120
47185SOL     OW59164   8.448  11.096   4.085 -0.1308 -0.3965 -0.4395
47185SOL    HW159165   8.357  11.078   4.064 -0.5264  1.8405 -0.9312
47185SOL    HW259166   8.489  11.115   4.000  0.0284  1.5539  0.0316
47186SOL     OW59167   9.153   1.937  10.144 -0.2608 -0.5781 -0.2093
47186SOL    HW159168   9.224   1.978  10.193  0.9087 -0.6987 -1.7539
47186SOL    HW259169   9.126   1.863  10.198 -0.4505  0.5003  1.2353
47187SOL     OW59170   5.367  13.117  13.438  0.1374  0.6578  0.4030
47187SOL    HW159171   5.388  13.173  13.513  0.3699  0.3237  0.5923
47187SOL    HW259172   5.348  13.178  13.367  0.1059  0.9779  0.6841
47188SOL     OW59173   8.607   9.582   4.306 -0.1030  0.1206 -0.4634
47188SOL    HW159174   8.666   9.613   4.237 -0.3899 -1.0219 -1.2521
47188SOL    HW259175   8.572   9.500   4.272  1.6143 -1.7913  2.0443
47189SOL     OW59176  11.992   1.594   3.274 -0.6200 -0.0690 -0.1567
47189SOL    HW159177  12.053   1.658   3.236 -1.0103  0.6065  0.3466
47189SOL    HW259178  12.048   1.520   3.299 -0.4047 -0.7688 -2.4941
47190SOL     OW59179  11.546  13.008   3.592  0.5480  0.2821  0.5660
47190SOL    HW159180  11.497  13.087   3.566  1.8670  0.8676 -0.2410
47190SOL    HW259181  11.509  12.984   3.676 -2.3934 -0.3873 -0.7777
47191SOL     OW59182   8.899   8.121  13.633 -0.0385  0.0276 -0.4938
47191SOL    HW159183   8.990   8.149  13.643  0.2769 -1.2068  0.3945
47191SOL    HW259184   8.902   8.057  13.561 -0.2579  0.1663 -0.6283
47192SOL     OW59185  13.530   1.189   5.057 -0.5972  0.4419  0.0905
47192SOL    HW159186  13.445   1.203   5.016 -0.9387  0.3468  0.7615
47192SOL    HW259187  13.546   1.095   5.047 -1.3704  0.1306  1.4615
47193SOL     OW59188   9.493   8.248   1.170 -0.3329  0.3421 -0.1893
47193SOL    HW159189   9.560   8.311   1.144  0.6323 -0.9073 -0.8953
47193SOL    HW259190   9.536   8.194   1.236 -1.2985  0.6865  0.7440
47194SOL     OW59191  13.105  10.749   8.917  0.0008 -0.4585  0.2184
47194SOL    HW159192  13.096  10.840   8.946  0.3868 -0.2356 -0.3392
47194SOL    HW259193  13.015  10.716   8.916 -0.2188  0.1290 -0.2204
47195SOL     OW59194   2.870  11.551   8.099 -0.6796  0.6740 -0.6165
47195SOL    HW159195   2.936  11.564   8.031 -1.1380  1.3603 -0.9469
47195SOL    HW259196   2.830  11.467   8.079  1.9925 -1.2119  1.2427
47196SOL     OW59197   1.539   5.526   8.612  0.5495 -0.0960 -0.0708
47196SOL    HW159198   1.520   5.526   8.706  4.3108  1.3800  0.8824
47196SOL    HW259199   1.492   5.603   8.578  0.6743  0.4997  1.0471
47197SOL     OW59200   4.783  11.734   4.108 -0.2509  0.5826  0.2201
47197SOL    HW159201   4.878  11.729   4.119 -0.2956 -0.9466  0.1759
47197SOL    HW259202   4.771  11.760   4.017  0.1379  0.7571  0.2170
47198SOL     OW59203   0.855  11.784   1.472  0.3986 -0.3148 -0.1285
47198SOL    HW159204   0.847  11.704   1.421 -0.9500 -0.7113  0.6619
47198SOL    HW259205   0.796  11.846   1.429  0.5529 -0.1092 -0.0487
47199SOL     OW59206   9.022   8.485   5.925 -0.1128 -0.2717 -0.0193
47199SOL    HW159207   8.989   8.565   5.885 -1.8262  0.4236  2.5547
47199SOL    HW259208   8.948   8.424   5.922  0.5854 -1.1321 -0.3054
47200SOL     OW59209   0.841   9.094   7.113  0.1770  0.0190 -0.6159
47200SOL    HW159210   0.811   9.084   7.203 -0.2315 -1.4032 -0.8813
47200SOL    HW259211   0.873   9.008   7.089 -0.8829  0.0264 -2.2301
47201SOL     OW59212  12.939   6.868   1.385 -0.4278  0.2192 -0.0269
47201SOL    HW159213  13.032   6.867   1.406 -0.9715  0.5337  2.8919
47201SOL    HW259214  12.906   6.785   1.421 -1.3991  0.4485 -0.3545
47202SOL     OW59215  10.540   9.336  13.481 -0.4178 -0.0115  0.5294
47202SOL    HW159216  10.611   9.275  13.463 -0.0448  0.9539 -1.5458
47202SOL    HW259217  10.502   9.305  13.563 -1.0859 -3.7875 -1.0222
47203SOL     OW59218   9.803  11.489  13.252  0.0276 -0.2929  0.1488
47203SOL    HW159219   9.733  11.502  13.316  0.0463  0.0210  0.1091
47203SOL    HW259220   9.757  11.482  13.168  0.0040 -0.6831  0.1916
47204SOL     OW59221  12.562   4.745   0.579  0.4108 -0.1333  0.0063
47204SOL    HW159222  12.578   4.658   0.616  1.6988  1.0748  2.5039
47204SOL    HW259223  12.468   4.748   0.564  0.1199 -1.4121  1.3937
47205SOL     OW59224  13.331  12.999   0.588  0.7083 -0.2549 -0.9999
47205SOL    HW159225  13.300  12.927   0.533 -2.0771 -0.2991  0.4691
47205SOL    HW259226  13.284  13.076   0.557 -0.0672 -0.0649  0.5171
47206SOL     OW59227   2.677   1.523   1.573 -0.0744 -0.6301  0.4427
47206SOL    HW159228   2.754   1.580   1.574  1.4125 -2.5159 -0.0789
47206SOL    HW259229   2.617   1.563   1.636  1.9458  0.1144  2.0357
47207SOL     OW59230  11.334   2.547   9.369 -0.2575  0.5683  0.3130
47207SOL    HW159231  11.390   2.622   9.350  1.0065 -0.3497  0.2970
47207SOL    HW259232  11.250   2.586   9.395  0.8784  2.0382  2.0427
47208SOL     OW59233   6.020   7.447   2.307  0.4799 -0.0820  0.5266
47208SOL    HW159234   5.992   7.534   2.279  1.8766  0.2413  0.0665
47208SOL    HW259235   6.034   7.399   2.225 -1.6915 -1.2667  0.7627
47209SOL     OW59236  13.824   8.971   7.584  0.0389 -0.2180 -0.3417
47209SOL    HW159237  13.877   8.912   7.639 -0.1949 -0.2799 -0.1801
47209SOL    HW259238  13.866   9.056   7.594 -1.3435  0.3115  1.8401
47210SOL     OW59239   1.702  13.305  11.060 -0.1341 -0.5066 -0.2401
47210SOL    HW159240   1.635  13.245  11.093 -0.0571  0.7491  2.4546
47210SOL    HW259241   1.653  13.384  11.035  0.1586 -0.1015  0.4207
47211SOL     OW59242  13.356  11.545   5.825  0.1965  0.6295 -0.0211
47211SOL    HW159243  13.431  11.495   5.858  0.2485  1.5505  1.3512
47211SOL    HW259244  13.385  11.581   5.741  0.7898 -0.1517 -0.1607
47212SOL     OW59245   4.364   5.202   7.004  0.0523 -0.4034 -0.1890
47212SOL    HW159246   4.357   5.273   7.068  1.2162  1.0212 -1.5462
47212SOL    HW259247   4.408   5.132   7.051 -0.7356 -0.0753  1.0716
47213SOL     OW59248   3.174   4.940   4.265  0.3076 -0.0743  0.8960
47213SOL    HW159249   3.138   5.011   4.211 -2.8595 -1.8158  0.5173
47213SOL    HW259250   3.185   4.979   4.352  1.5907  1.6373  0.0452
47214SOL     OW59251   9.392   2.528   6.846 -0.0523 -0.2560  0.1375
47214SOL    HW159252   9.459   2.471   6.808 -0.2910 -1.5671  1.6036
47214SOL    HW259253   9.398   2.609   6.794  0.8576 -1.2906 -1.4594
47215SOL     OW59254   3.401   4.474   4.234  0.7507  0.3771  0.2423
47215SOL    HW159255   3.365   4.563   4.232 -1.4373 -0.4543 -0.9735
47215SOL    HW259256   3.368   4.438   4.316  1.5848  0.6483  0.7043
47216SOL     OW59257  13.826   1.140   1.631  0.2314  0.1889  0.5607
47216SOL    HW159258  13.793   1.202   1.566  0.1442 -0.0288  0.3968
47216SOL    HW259259  13.754   1.133   1.694  0.2669  0.3055  0.6149
47217SOL     OW59260   9.842  11.807   9.328  0.4171  0.3299  0.0643
47217SOL    HW159261   9.933  11.779   9.333  0.0568 -0.7255  1.7387
47217SOL    HW259262   9.797  11.752   9.393 -1.3470  1.0563 -0.4877
47218SOL     OW59263   6.215   8.348   3.671  0.4428  0.0597 -0.0888
47218SOL    HW159264   6.183   8.367   3.582  2.5858  1.3800 -0.6682
47218SOL    HW259265   6.193   8.427   3.721 -0.4665 -0.5494  0.4976
47219SOL     OW59266   8.821   1.075   8.555  0.0085 -0.2578 -0.1168
47219SOL    HW159267   8.739   1.123   8.562  0.2034  0.4013 -1.9214
47219SOL    HW259268   8.876   1.111   8.624 -0.6317  0.4834  0.0149
47220SOL     OW59269   7.051   6.720   4.200  0.3172 -0.4181 -0.4843
47220SOL    HW159270   7.010   6.661   4.263  0.4506 -0.6753 -0.6353
47220SOL    HW259271   7.066   6.666   4.122  2.1124 -0.7124  0.0031
47221SOL     OW59272   0.440   3.417   0.539 -0.0910  0.3858 -0.4385
47221SOL    HW159273   0.471   3.440   0.452  3.3073 -0.5440  0.3622
47221SOL    HW259274   0.427   3.502   0.583  0.4462  0.8495 -1.1471
47222SOL     OW59275   8.578  11.504   0.679 -0.5509  0.0998 -0.0541
47222SOL    HW159276   8.657  11.536   0.634 -1.2691  0.6343 -0.9714
47222SOL    HW259277   8.580  11.549   0.764  1.3311 -1.6550  0.9167
47223SOL     OW59278   0.343  10.893  10.580 -0.0627  0.2683 -0.2738
47223SOL    HW159279   0.369  10.810  10.540 -2.7795 -0.0888 -1.4568
47223SOL    HW259280   0.265  10.872  10.630 -1.0668  2.1638 -0.9632
47224SOL     OW59281   7.242  11.265   2.140  0.2030 -0.1436 -0.0142
47224SOL    HW159282   7.154  11.245   2.172 -0.6767  0.5283 -1.8378
47224SOL    HW259283   7.267  11.344   2.187 -1.1014  0.8910 -0.9420
47225SOL     OW59284   1.443  14.018  12.838  0.2676  0.0648 -0.0042
47225SOL    HW159285   1.360  13.976  12.857  0.4245  0.2493  1.1724
47225SOL    HW259286   1.482  14.034  12.924  1.8020 -0.5905 -0.5394
47226SOL     OW59287   3.141  10.106   0.877  0.4590 -0.2658  0.5287
47226SOL    HW159288   3.226  10.104   0.833  0.2615 -1.7399  0.1822
47226SOL    HW259289   3.154  10.055   0.957  0.3220  0.8688  1.2990
47227SOL     OW59290   3.699  12.628   1.385  0.1050  0.6950  0.5126
47227SOL    HW159291   3.750  12.571   1.328  0.0431  0.5122  0.6373
47227SOL    HW259292   3.752  12.635   1.465 -0.7653 -0.7597  1.2564
47228SOL     OW59293  10.879  10.042   3.445  0.4046 -0.2330 -0.0291
47228SOL    HW159294  10.821  10.098   3.392 -0.4105 -0.5622  0.4924
47228SOL    HW259295  10.936  10.000   3.381  1.0404  1.1895 -0.4291
47229SOL     OW59296  13.029   3.544   2.920  1.0115 -0.6648  0.0889
47229SOL    HW159297  12.978   3.618   2.888  0.3408 -1.0971  0.1456
47229SOL    HW259298  12.964   3.478   2.943  1.5855 -1.1247  0.4143
47230SOL     OW59299  10.430   1.000   5.359  0.3711  0.1103 -0.1661
47230SOL    HW159300  10.448   1.087   5.395 -1.4446 -0.4726  2.4252
47230SOL    HW259301  10.509   0.950   5.378  0.5350  0.5919  0.4639
47231SOL     OW59302   4.886  11.731   8.540  0.3666  0.4337  0.6020
47231SOL    HW159303   4.844  11.655   8.582  1.5694 -0.7975 -0.3147
47231SOL    HW259304   4.860  11.806   8.594  0.1321 -0.7939  2.2916
47232SOL     OW59305   6.613  11.717   5.786  0.3174  0.0571  0.0166
47232SOL    HW159306   6.576  11.799   5.752  1.3170  0.6506  0.3377
47232SOL    HW259307   6.698  11.741   5.821  0.0587 -0.8673  1.3760
47233SOL     OW59308   6.059   3.554   5.517  0.6054 -0.3416 -0.0257
47233SOL    HW159309   6.053   3.465   5.550  0.6775 -0.6158 -0.7303
47233SOL    HW259310   6.136   3.553   5.459  0.9276  0.3124  0.3751
47234SOL     OW59311  10.337   1.572  10.888  0.1019  0.0266  0.1109
47234SOL    HW159312  10.395   1.647  10.898 -0.5429  0.6183 -0.4573
47234SOL    HW259313  10.395   1.499  10.865  0.5855  0.7045 -0.8735
47235SOL     OW59314   2.744   3.972   3.491  0.4061 -0.3287 -0.2761
47235SOL    HW159315   2.742   4.063   3.460 -0.6147 -0.8895 -1.9764
47235SOL    HW259316   2.833   3.943   3.471  0.9880  0.5054  0.9893
47236SOL     OW59317   2.798   4.434   5.984  0.4759 -0.1123 -0.5193
47236SOL    HW159318   2.862   4.468   5.921  2.6149  0.6293  1.8755
47236SOL    HW259319   2.796   4.340   5.969 -0.5598  0.2295 -2.9203
47237SOL     OW59320  11.941   7.152   5.926 -0.0514  0.4197  0.1498
47237SOL    HW159321  11.854   7.130   5.960 -0.4742 -0.0019 -1.1250
47237SOL    HW259322  11.932   7.243   5.897  0.2507  0.7131  0.9389
47238SOL     OW59323  13.273   9.523   4.962  1.1381 -0.4619  0.5191
47238SOL    HW159324  13.264   9.573   4.881  1.6599 -0.2930  0.5624
47238SOL    HW259325  13.271   9.432   4.934  0.0684 -0.4212  0.4516
47239SOL     OW59326   3.511   5.290   9.087 -0.0529 -0.2150  0.3212
47239SOL    HW159327   3.530   5.251   9.002 -1.6528  0.4005 -0.3781
47239SOL    HW259328   3.419   5.318   9.080 -0.3008 -0.3614  2.3386
47240SOL     OW59329   3.079   2.344   8.233 -0.4021 -0.5231  0.4456
47240SOL    HW159330   3.158   2.326   8.183 -0.6879 -0.4666 -0.0300
47240SOL    HW259331   3.076   2.439   8.240 -0.0987 -0.5496  1.0046
47241SOL     OW59332   3.087  12.432   8.829 -0.3897  0.2415 -0.3665
47241SOL    HW159333   3.127  12.429   8.742  0.3418 -0.9183 -0.0084
47241SOL    HW259334   3.138  12.371   8.881 -0.6640  1.1073  0.9600
47242SOL     OW59335  12.194  12.306   6.299  0.0389  0.5509 -0.6170
47242SOL    HW159336  12.156  12.252   6.368 -0.0125  0.9386 -0.3459
47242SOL    HW259337  12.233  12.242   6.238 -0.0713  0.2060 -0.3282
47243SOL     OW59338   9.915   7.689  12.834  0.6537  0.1151  0.0865
47243SOL    HW159339   9.992   7.706  12.889 -0.0089 -0.9714  1.4233
47243SOL    HW259340   9.861   7.631  12.887 -0.3693 -0.3968 -1.4610
47244SOL     OW59341   6.116  11.928   1.827  0.4927 -0.3834  0.1756
47244SOL    HW159342   6.033  11.882   1.835 -0.1228  0.9225  2.2849
47244SOL    HW259343   6.092  12.019   1.815  1.6805 -0.2850 -1.8442
47245SOL     OW59344   2.818  12.307  11.553  0.2259  0.3833  0.0525
47245SOL    HW159345   2.803  12.338  11.464 -1.7744  1.1404  0.5969
47245SOL    HW259346   2.909  12.279  11.554  0.2774  0.2876 -2.2426
47246SOL     OW59347  11.693   0.087   8.937  0.2312 -0.0094  0.5043
47246SOL    HW159348  11.738   0.052   8.860  0.2083 -0.7174  0.8030
47246SOL    HW259349  11.648   0.165   8.906  1.7483  0.7982  0.2024
47247SOL     OW59350   2.914   1.668   6.212 -0.0674 -0.2012  0.3267
47247SOL    HW159351   3.005   1.640   6.201  0.6231  1.6779  0.9846
47247SOL    HW259352   2.912   1.714   6.295 -0.7266  3.0659 -1.3341
47248SOL     OW59353   5.386   6.861   3.822 -0.1029  0.0510 -0.0669
47248SOL    HW159354   5.291   6.871   3.822 -0.2948 -1.3859  1.3804
47248SOL    HW259355   5.404   6.805   3.746 -0.3309  0.8480 -0.7167
47249SOL     OW59356   1.976   1.064  11.689 -0.3337  0.4441 -0.1701
47249SOL    HW159357   2.068   1.081  11.707 -0.1853  0.3057 -0.7626
47249SOL    HW259358   1.950   1.000  11.755  0.4613 -0.8156 -1.0381
47250SOL     OW59359   9.038   8.888   3.404 -0.0139  0.0124 -0.7637
47250SOL    HW159360   9.121   8.841   3.397 -0.2213 -0.2870 -1.3142
47250SOL    HW259361   8.973   8.820   3.424  0.1009  0.4589  1.2754
47251SOL     OW59362  13.214   3.787   7.750 -0.2412  0.5323 -0.2290
47251SOL    HW159363  13.214   3.695   7.724 -2.7743  0.3528  0.2109
47251SOL    HW259364  13.227   3.785   7.844  0.4390  0.6831 -0.3158
47252SOL     OW59365  11.398  12.070   3.204  0.5750  0.0397  0.0435
47252SOL    HW159366  11.471  12.030   3.251 -0.3841 -1.4715  0.3103
47252SOL    HW259367  11.367  12.139   3.262  1.4267  0.3115  0.1814
47253SOL     OW59368   0.417   8.508   9.471  0.3031 -0.4968 -0.7771
47253SOL    HW159369   0.477   8.471   9.406  0.1990 -1.2346 -0.4626
47253SOL    HW259370   0.382   8.432   9.517 -0.4065 -0.0360 -0.5429
47254SOL     OW59371   9.091  13.204   0.551 -0.1345  0.0058  0.1291
47254SOL    HW159372   9.062  13.268   0.615 -1.6396 -0.9860  0.4936
47254SOL    HW259373   9.162  13.247   0.503 -0.8305  1.7595  0.6299
47255SOL     OW59374  12.951  10.640   6.746 -0.7452 -0.3532 -0.4424
47255SOL    HW159375  12.896  10.711   6.715 -0.8531 -0.0071  0.5083
47255SOL    HW259376  13.002  10.614   6.670  0.1904  1.5561 -0.5074
47256SOL     OW59377   3.433  11.258  11.941 -0.1105 -0.8524  0.2990
47256SOL    HW159378   3.515  11.283  11.984 -0.7761  1.4907  0.3472
47256SOL    HW259379   3.418  11.168  11.970  1.0466 -0.4167  2.5174
47257SOL     OW59380  11.882   3.803   3.636  0.5226 -0.1062  0.0970
47257SOL    HW159381  11.857   3.733   3.697  1.1925 -0.7216 -0.3145
47257SOL    HW259382  11.862   3.884   3.682  1.0894 -0.5605  1.1639
47258SOL     OW59383  10.789   7.411   4.943  0.4919  0.2771 -0.4025
47258SOL    HW159384  10.812   7.493   4.987 -0.9263 -0.0206  1.0111
47258SOL    HW259385  10.803   7.344   5.010 -1.8399 -0.1920 -0.3154
47259SOL     OW59386   7.050   1.356   5.590  0.1194  0.1650  0.4337
47259SOL    HW159387   7.100   1.276   5.569  0.7808  1.3744 -3.4672
47259SOL    HW259388   7.114   1.427   5.581 -1.3171  1.4299 -0.2877
47260SOL     OW59389  11.075   3.931  10.468 -0.2714 -0.0537 -1.3856
47260SOL    HW159390  11.168   3.939  10.447  0.2558  2.8446  1.2279
47260SOL    HW259391  11.042   4.021  10.466 -2.3040 -0.6713  0.4489
47261SOL     OW59392  12.802   9.495   8.333  0.2314  0.4648  0.0248
47261SOL    HW159393  12.724   9.447   8.359  1.5198  0.0049  3.5205
47261SOL    HW259394  12.815   9.559   8.403  2.1630  1.5559 -1.2504
47262SOL     OW59395   9.663  10.662   3.540 -0.2852  0.5536  0.2596
47262SOL    HW159396   9.664  10.728   3.470 -0.2037 -0.5584 -0.8344
47262SOL    HW259397   9.732  10.600   3.515 -2.1150 -1.4033 -0.2288
47263SOL     OW59398   3.893   6.414   1.455  0.1746 -0.5261  0.0817
47263SOL    HW159399   3.922   6.324   1.467  0.3222 -0.5579 -0.4912
47263SOL    HW259400   3.943   6.445   1.379  0.8023  0.3352  0.8386
47264SOL     OW59401   7.836  11.094   7.353 -0.1409 -0.5587 -0.2028
47264SOL    HW159402   7.873  11.022   7.302 -1.6841 -2.4454  1.1949
47264SOL    HW259403   7.749  11.107   7.315 -0.1470  0.1026  0.0267
47265SOL     OW59404  11.461  10.347  11.541  0.3417 -0.2710 -0.2029
47265SOL    HW159405  11.435  10.376  11.454  0.5092 -0.1908 -0.2274
47265SOL    HW259406  11.506  10.422  11.579 -0.8721  0.1376  0.4582
47266SOL     OW59407   9.042   1.448  11.989 -0.3085 -0.2531 -0.0539
47266SOL    HW159408   9.118   1.443  11.932  0.7090  0.8099  1.1485
47266SOL    HW259409   9.002   1.361  11.984  1.2487 -0.9827 -0.3211
47267SOL     OW59410   4.897  12.729   1.801  0.0625 -0.3734  0.1471
47267SOL    HW159411   4.954  12.673   1.748 -0.2461  0.3692 -1.0065
47267SOL    HW259412   4.832  12.669   1.837  1.1495 -1.1287  0.9310
47268SOL     OW59413   1.002   0.687   4.484 -0.2532 -0.2504 -0.0649
47268SOL    HW159414   1.096   0.669   4.480 -0.2551 -0.1809 -0.4519
47268SOL    HW259415   0.978   0.666   4.574  0.3038  0.5602  0.2860
47269SOL     OW59416   5.203   8.390   2.000  0.2175  0.2497  0.0699
47269SOL    HW159417   5.206   8.412   1.907  0.8120  1.4834  0.3622
47269SOL    HW259418   5.281   8.431   2.037  0.4354 -0.9290  0.9812
47270SOL     OW59419   7.330   2.675   5.411  0.1943 -0.0923 -0.3115
47270SOL    HW159420   7.331   2.679   5.315  1.4759 -0.2934 -0.3112
47270SOL    HW259421   7.419   2.652   5.435 -0.4699 -1.5023  0.8823
47271SOL     OW59422   3.607   5.235   7.720  0.4884 -0.0457 -0.4370
47271SOL    HW159423   3.522   5.197   7.698 -0.2055  1.3086 -0.2004
47271SOL    HW259424   3.636   5.184   7.796 -0.9935  0.6304  0.6468
47272SOL     OW59425   8.802  10.549  13.647  0.3228  0.1305  0.1059
47272SOL    HW159426   8.886  10.507  13.662  0.1268  0.0926  1.1562
47272SOL    HW259427   8.738  10.479  13.658  0.1887 -0.2503 -2.3474
47273SOL     OW59428   2.036   2.589  13.690  0.3427 -0.1923  0.6854
47273SOL    HW159429   1.983   2.591  13.770 -0.9708  1.7747 -0.1527
47273SOL    HW259430   1.988   2.531  13.631  0.3782 -0.2624  0.7255
47274SOL     OW59431   1.263   5.940  10.138  0.2652 -0.3952 -0.5107
47274SOL    HW159432   1.246   5.874  10.206  0.3898  0.3444  0.2447
47274SOL    HW259433   1.228   6.021  10.174  0.8623  0.1265 -1.0894
47275SOL     OW59434   0.792  14.090   6.112  0.0699  0.0438  0.0202
47275SOL    HW159435   0.772  14.009   6.159 -0.7074  0.0276 -0.3249
47275SOL    HW259436   0.830  14.062   6.029  0.7944  0.0625  0.3312
47276SOL     OW59437   9.964  13.581   7.492  0.3726  0.3368 -0.7267
47276SOL    HW159438   9.872  13.570   7.516  0.3199 -0.1147 -1.1075
47276SOL    HW259439   9.987  13.669   7.522  0.0171  0.1880 -0.0034
47277SOL     OW59440   3.495   9.258  12.491  0.4571  0.3089 -0.1379
47277SOL    HW159441   3.471   9.204  12.566 -1.2183 -2.6606 -2.5815
47277SOL    HW259442   3.441   9.337  12.500 -1.3970 -0.9690  0.6504
47278SOL     OW59443   9.344  13.707  11.574 -0.4227  0.0050  0.1418
47278SOL    HW159444   9.275  13.774  11.580  0.2167  0.7163 -0.2966
47278SOL    HW259445   9.322  13.657  11.495  0.9727  1.9030 -1.5584
47279SOL     OW59446   6.063   2.158  13.370  0.1558  0.0613  0.0398
47279SOL    HW159447   6.143   2.189  13.414  0.8389 -1.2118 -0.2582
47279SOL    HW259448   6.056   2.214  13.293  0.2260  0.7931  0.5470
47280SOL     OW59449   8.956  12.164   7.486  0.0594 -0.3314  0.2502
47280SOL    HW159450   9.051  12.178   7.479  0.4954 -2.2281  1.5917
47280SOL    HW259451   8.930  12.134   7.399  0.7193  0.0774 -0.0948
47281SOL     OW59452   5.319  10.147   7.034 -0.6709 -0.6498  0.5887
47281SOL    HW159453   5.370  10.102   7.102 -0.1486  0.1980  0.7758
47281SOL    HW259454   5.244  10.089   7.018  1.0625 -2.6662 -0.7361
47282SOL     OW59455   0.901  12.679   0.496  0.6238 -0.6278  0.6184
47282SOL    HW159456   0.986  12.647   0.527  0.6583 -1.8553 -0.6268
47282SOL    HW259457   0.838  12.616   0.530  0.4505 -0.8521 -0.0963
47283SOL     OW59458   5.991  13.254   4.773 -0.0265 -0.1879 -0.5464
47283SOL    HW159459   6.055  13.268   4.703 -0.1349 -1.9045 -1.0385
47283SOL    HW259460   5.937  13.181   4.742 -1.2803  0.2488  0.5196
47284SOL     OW59461   5.749   6.351   4.850 -0.5784  0.1960  0.1464
47284SOL    HW159462   5.795   6.304   4.781  0.5324  0.7415  0.4818
47284SOL    HW259463   5.670   6.301   4.866  1.1352 -2.3501  1.3735
47285SOL     OW59464   4.607  12.301   7.669  0.1818  0.2623 -0.3164
47285SOL    HW159465   4.685  12.253   7.696  0.5795  1.4499  0.7400
47285SOL    HW259466   4.632  12.343   7.587  0.2302 -0.3394 -0.6169
47286SOL     OW59467   9.684   1.967  13.638 -0.0029 -0.3705 -0.0854
47286SOL    HW159468   9.612   2.022  13.667 -0.4081 -0.5855 -0.6540
47286SOL    HW259469   9.714   1.922  13.717 -0.6576 -0.4616  0.1193
47287SOL     OW59470   7.814  10.157   4.351  0.4812  0.3814 -0.0107
47287SOL    HW159471   7.729  10.134   4.390 -0.4913 -0.0931 -2.2412
47287SOL    HW259472   7.875  10.157   4.425 -0.9244 -1.9976  1.2820
47288SOL     OW59473  13.024   5.394   7.272 -0.1633  0.3368 -0.0665
47288SOL    HW159474  13.119   5.387   7.278 -0.2906 -0.2699  2.2439
47288SOL    HW259475  13.007   5.419   7.182  2.3137  2.7535  0.0144
47289SOL     OW59476  10.688  11.029   5.756 -0.4790  0.1714  0.3919
47289SOL    HW159477  10.664  10.967   5.688 -1.0986  0.3802  0.4125
47289SOL    HW259478  10.604  11.055   5.795 -0.1750  0.5157  0.8202
47290SOL     OW59479   0.670   6.316   5.934 -0.1314  0.2791  0.1290
47290SOL    HW159480   0.693   6.262   5.859 -0.1313  0.8665 -0.3052
47290SOL    HW259481   0.754   6.348   5.968 -0.0774 -0.6013  0.8601
47291SOL     OW59482   3.943  12.754   3.224  0.6639 -0.2093 -0.0490
47291SOL    HW159483   3.906  12.674   3.260 -2.8499  1.5216  0.6152
47291SOL    HW259484   3.949  12.813   3.299  1.2157  0.8394 -0.8844
47292SOL     OW59485  12.249   3.539  13.318 -0.0321 -0.6502  0.1189
47292SOL    HW159486  12.317   3.557  13.253  0.4592  1.4732  1.1385
47292SOL    HW259487  12.280   3.581  13.398 -2.2710 -0.1345  0.7884
47293SOL     OW59488  11.034   5.707   1.053  0.0101  0.4159  0.3172
47293SOL    HW159489  11.015   5.673   0.965 -1.4697 -1.1041  1.1662
47293SOL    HW259490  11.115   5.756   1.042 -0.5926  1.0351 -2.0794
47294SOL     OW59491  14.029  12.342   2.550 -0.7056 -0.0927 -0.2507
47294SOL    HW159492  14.094  12.312   2.486  0.7820  3.6849 -0.7974
47294SOL    HW259493  14.081  12.369   2.626 -2.0696 -0.7100  0.9287
47295SOL     OW59494   3.292   4.993   9.835  0.1711 -0.0589  0.0932
47295SOL    HW159495   3.306   5.062   9.771 -0.0916  0.7612  0.9011
47295SOL    HW259496   3.378   4.978   9.873 -0.0465  0.9490  1.0239
47296SOL     OW59497   2.315   5.443   5.257 -0.7156  0.0472  0.8937
47296SOL    HW159498   2.237   5.470   5.208 -1.6740 -0.4419  2.1064
47296SOL    HW259499   2.326   5.511   5.324  1.1827  1.2617 -0.5528
47297SOL     OW59500   3.094  10.405   6.372 -0.6420  0.4972  0.1396
47297SOL    HW159501   3.142  10.419   6.291  1.2505 -1.7530  0.7519
47297SOL    HW259502   3.076  10.311   6.374 -1.7961  0.7081  1.7318
47298SOL     OW59503   4.563   1.322   2.817  0.4424  0.0221  0.2530
47298SOL    HW159504   4.541   1.262   2.887  1.8209  0.5913  1.2300
47298SOL    HW259505   4.659   1.327   2.819  0.5834 -0.5286 -2.1806
47299SOL     OW59506  10.611   3.193  12.778 -0.0965 -0.3578 -0.7443
47299SOL    HW159507  10.557   3.181  12.856  1.8694  1.8577  1.1129
47299SOL    HW259508  10.611   3.108  12.735 -2.4103 -1.2654  0.8857
47300SOL     OW59509  13.500   5.699  10.159 -0.0327 -0.3215 -0.7093
47300SOL    HW159510  13.515   5.664  10.247 -1.6996 -1.0286 -0.6799
47300SOL    HW259511  13.580   5.678  10.111  0.8837  0.0394  0.6126
47301SOL     OW59512   5.322   8.002   5.500  0.1565 -0.8007 -0.0427
47301SOL    HW159513   5.406   7.967   5.472  0.8874  0.3590  0.6244
47301SOL    HW259514   5.305   8.073   5.438  0.6484  0.2511  0.9914
47302SOL     OW59515   1.529  13.567  12.403 -0.0025 -0.0667  0.2097
47302SOL    HW159516   1.513  13.550  12.310 -1.0103  1.3874  0.0905
47302SOL    HW259517   1.444  13.592  12.438  0.6841  1.0422  1.1566
47303SOL     OW59518   9.565  10.326   3.232 -0.0734  0.5818 -0.0953
47303SOL    HW159519   9.469  10.323   3.229 -0.1842  2.7543  0.1820
47303SOL    HW259520   9.593  10.309   3.142 -0.7368  0.4691 -0.2823
47304SOL     OW59521   7.017  13.993   4.528 -0.1629  0.4091 -0.2140
47304SOL    HW159522   6.939  14.024   4.483 -0.0887 -0.6758 -1.1305
47304SOL    HW259523   6.998  13.903   4.551  1.0385 -0.0919 -1.0401
47305SOL     OW59524   8.518   4.004  12.512  0.3517 -0.3736 -0.5154
47305SOL    HW159525   8.504   4.015  12.606 -1.3949 -0.2061 -0.7583
47305SOL    HW259526   8.580   4.073  12.489  1.4716 -0.9568  0.6458
47306SOL     OW59527   0.801  11.868  11.708 -0.1733  0.1081 -0.3853
47306SOL    HW159528   0.776  11.830  11.793 -0.5038  0.1115 -0.4771
47306SOL    HW259529   0.859  11.804  11.668 -0.3870 -0.1052 -0.3545
47307SOL     OW59530   5.160   5.952  11.483  0.0926  0.0282  0.2323
47307SOL    HW159531   5.074   5.991  11.465  0.4198  1.0685  0.8161
47307SOL    HW259532   5.218   6.027  11.492  1.7577 -0.6236 -3.2128
47308SOL     OW59533   8.662   7.016   3.884 -0.3770  0.0608  0.1058
47308SOL    HW159534   8.571   7.046   3.880 -0.1199  1.1121  1.2768
47308SOL    HW259535   8.705   7.056   3.809 -0.7467  0.0559 -0.1066
47309SOL     OW59536   9.865  12.805  13.106 -0.4160  0.5920 -0.4404
47309SOL    HW159537   9.909  12.827  13.188 -1.3140  1.2777 -0.1357
47309SOL    HW259538   9.832  12.716  13.120  0.6633  0.1459 -0.6003
47310SOL     OW59539   6.891   8.566   1.765  0.4552  0.0491  0.4846
47310SOL    HW159540   6.865   8.655   1.740 -2.8519 -1.2005 -1.2347
47310SOL    HW259541   6.871   8.561   1.859 -2.2319  0.3986  0.0322
47311SOL     OW59542   2.863   5.649  12.575 -0.5204  0.3039 -0.6369
47311SOL    HW159543   2.816   5.568  12.555 -0.8895  0.1441  0.7654
47311SOL    HW259544   2.795   5.716  12.578 -0.5858  0.1952  0.7157
47312SOL     OW59545   9.045   6.066  12.163  0.1063  0.5692  0.4272
47312SOL    HW159546   9.066   5.973  12.159 -0.3506  0.4934 -0.3597
47312SOL    HW259547   8.952   6.070  12.184  0.3005  0.8655  1.2614
47313SOL     OW59548   5.598   1.874   6.782 -0.5546  0.2323 -0.2815
47313SOL    HW159549   5.675   1.832   6.819 -0.9349 -1.1966 -1.0122
47313SOL    HW259550   5.532   1.869   6.852 -0.0340  1.4041  0.3213
47314SOL     OW59551   8.392   4.639   1.840  0.1781 -0.7096  0.2701
47314SOL    HW159552   8.401   4.724   1.883  0.8438 -0.5317 -0.1921
47314SOL    HW259553   8.382   4.577   1.911  0.1536 -0.2944  0.6341
47315SOL     OW59554   7.887   5.341   3.277 -0.4261  0.5256  0.1895
47315SOL    HW159555   7.835   5.362   3.199 -0.2361  1.3473  0.2717
47315SOL    HW259556   7.919   5.253   3.261  1.2744  1.3759 -1.6262
47316SOL     OW59557   3.160  11.185   2.188  0.0431  0.6039  0.3440
47316SOL    HW159558   3.207  11.111   2.228  0.3815  1.9557  2.6316
47316SOL    HW259559   3.217  11.260   2.205 -1.4962  1.7848  0.3931
47317SOL     OW59560   0.335   5.423  12.596 -0.1946  0.3297 -0.2175
47317SOL    HW159561   0.428   5.417  12.618  0.0934  1.7304 -0.9613
47317SOL    HW259562   0.326   5.369  12.517  0.3343  1.4314 -1.0660
47318SOL     OW59563  11.006   1.356   1.133  0.0460 -0.4338 -0.0291
47318SOL    HW159564  10.942   1.419   1.166 -0.8990 -0.1463 -2.2221
47318SOL    HW259565  10.971   1.271   1.158 -0.1709 -0.2058  0.4563
47319SOL     OW59566  12.289   5.036   2.690 -0.2186 -0.1360 -0.6190
47319SOL    HW159567  12.316   4.987   2.768  0.9839  1.7184  0.1936
47319SOL    HW259568  12.193   5.031   2.692 -0.2075 -0.4218  0.8110
47320SOL     OW59569  11.547   5.223   9.311 -0.0780  0.4199 -0.1367
47320SOL    HW159570  11.465   5.270   9.297  0.6297  2.1043  1.0028
47320SOL    HW259571  11.579   5.205   9.222 -1.7213 -0.4134 -0.5963
47321SOL     OW59572   5.988  10.319   3.041  0.2856 -0.3818 -0.0118
47321SOL    HW159573   5.924  10.325   3.112  0.8862 -1.7978  0.7041
47321SOL    HW259574   6.024  10.407   3.033  0.5345 -0.2842  1.7915
47322SOL     OW59575   8.148  10.632   6.992  0.1016 -0.3756 -0.3806
47322SOL    HW159576   8.076  10.571   6.978  1.8067 -2.1937 -1.8444
47322SOL    HW259577   8.160  10.632   7.087 -0.3083 -1.9357 -0.2938
47323SOL     OW59578  12.198   4.114  10.028 -0.3432  0.0258  0.3954
47323SOL    HW159579  12.211   4.192  10.082 -0.0938  0.2644 -0.0075
47323SOL    HW259580  12.130   4.140   9.965 -0.7843 -0.3191  0.7275
47324SOL     OW59581  11.441  13.734   9.826 -0.3329  0.2393  0.0638
47324SOL    HW159582  11.495  13.668   9.869 -0.4168  0.0407 -0.1285
47324SOL    HW259583  11.351  13.702   9.837 -0.3248 -0.0741 -0.6757
47325SOL     OW59584   8.710   4.495   2.046  0.0896 -0.0204  0.1238
47325SOL    HW159585   8.776   4.561   2.066  0.7436 -0.4232 -0.6232
47325SOL    HW259586   8.715   4.433   2.118 -0.3586  0.6109  0.7048
47326SOL     OW59587   0.104  11.065  11.444 -0.4268  0.5844  0.0196
47326SOL    HW159588   0.029  11.073  11.385  0.4578  1.5393 -1.0240
47326SOL    HW259589   0.102  11.146  11.496 -0.7172  0.1290  0.7323
47327SOL     OW59590   5.825  12.360   3.006 -0.2763  0.3249 -0.4064
47327SOL    HW159591   5.858  12.413   2.933  0.3262 -1.2041 -1.2886
47327SOL    HW259592   5.903  12.317   3.041 -1.1554 -3.8629 -2.9242
47328SOL     OW59593   6.931   9.089  12.021 -0.9051 -0.3335  0.1200
47328SOL    HW159594   7.002   9.087  11.957  2.2035 -0.1554  3.2785
47328SOL    HW259595   6.956   9.026  12.088 -2.8465  0.9612  2.2372
47329SOL     OW59596   1.372   6.997   8.301 -0.3234 -0.5656 -0.2610
47329SOL    HW159597   1.386   7.087   8.332 -2.3856 -0.6364  1.0514
47329SOL    HW259598   1.426   6.990   8.222 -2.0984  2.6893 -1.9793
47330SOL     OW59599  12.963   9.397   8.739  0.6151 -0.2668 -0.3948
47330SOL    HW159600  12.897   9.328   8.733  0.3825 -0.0218 -0.6376
47330SOL    HW259601  12.961   9.423   8.831 -1.5696  1.6218 -0.8801
47331SOL     OW59602   6.308   3.576   8.868 -0.1590  0.1487  0.2450
47331SOL    HW159603   6.322   3.612   8.956 -0.7686 -0.6458  0.6818
47331SOL    HW259604   6.363   3.497   8.866 -0.5596 -0.1259  0.1025
47332SOL     OW59605   7.464   0.628   8.684  0.4206  0.2022 -0.0670
47332SOL    HW159606   7.443   0.720   8.699  0.5562  0.3272 -0.6255
47332SOL    HW259607   7.434   0.610   8.595 -1.2104 -0.7698  0.6395
47333SOL     OW59608   7.394   0.989   8.552  0.0006  0.3581  0.1313
47333SOL    HW159609   7.476   0.986   8.601 -1.3263  0.7314  2.4816
47333SOL    HW259610   7.375   0.897   8.531 -0.4738 -0.1071  2.3070
47334SOL     OW59611  11.172   9.377  10.776  0.0996  0.1066  0.1174
47334SOL    HW159612  11.238   9.362  10.844  0.3642 -0.6283 -0.2804
47334SOL    HW259613  11.111   9.304  10.786 -0.1382  0.2745 -0.1062
47335SOL     OW59614  12.731   7.372   1.407 -0.4859 -0.4546  0.0466
47335SOL    HW159615  12.733   7.466   1.387 -0.4591 -0.4983 -0.1573
47335SOL    HW259616  12.703   7.368   1.499  0.5134 -0.2066  0.3727
47336SOL     OW59617   1.368  14.037   4.841 -0.0633  0.1592 -0.1937
47336SOL    HW159618   1.277  14.018   4.866  0.0993  0.2564  0.4934
47336SOL    HW259619   1.405  13.952   4.819 -0.4920  0.1882 -1.0958
47337SOL     OW59620   7.612  12.309  13.320 -0.7058 -0.2320 -0.5933
47337SOL    HW159621   7.570  12.323  13.235  0.8975 -0.2743 -1.4266
47337SOL    HW259622   7.703  12.290  13.299 -0.1190  0.4109  1.1691
47338SOL     OW59623   2.013   1.929   7.235  0.2248  1.0252  0.4573
47338SOL    HW159624   2.044   1.862   7.296 -0.8669  1.3711  1.4255
47338SOL    HW259625   2.019   1.888   7.149 -2.8712 -1.3510  1.2075
47339SOL     OW59626   9.910   3.769   3.291  0.4151 -0.2419  0.3080
47339SOL    HW159627   9.829   3.746   3.337 -0.3668  0.7118 -0.5373
47339SOL    HW259628   9.918   3.864   3.303  0.1841  0.0401 -1.4971
47340SOL     OW59629  10.440   8.430   0.078 -0.0874  0.4829 -0.3192
47340SOL    HW159630  10.403   8.451   0.164  0.6936  0.9407 -0.0887
47340SOL    HW259631  10.455   8.515   0.037 -1.0016  0.2555 -1.1567
47341SOL     OW59632  10.267  11.965   6.782  0.3010  0.1685  0.1900
47341SOL    HW159633  10.233  11.883   6.745 -0.9456  1.2056 -1.0710
47341SOL    HW259634  10.241  12.032   6.719  2.2432  1.4188  0.6432
47342SOL     OW59635   7.555  12.636   2.733  0.0454 -0.5154  0.0206
47342SOL    HW159636   7.557  12.727   2.703 -0.4304 -0.6422 -0.3983
47342SOL    HW259637   7.503  12.639   2.814 -1.1200 -0.6194 -0.7122
47343SOL     OW59638  11.742  10.575   3.457 -0.1253 -0.9812 -0.0004
47343SOL    HW159639  11.656  10.609   3.480  0.0903 -1.0400  0.9104
47343SOL    HW259640  11.751  10.493   3.507  0.6297 -0.7528  0.2565
47344SOL     OW59641  11.493  12.608   9.040  0.1667 -0.2783 -0.0857
47344SOL    HW159642  11.558  12.578   9.104 -0.3888  0.0760  0.6488
47344SOL    HW259643  11.506  12.550   8.965 -1.1276 -2.6984  1.4067
47345SOL     OW59644  11.998   0.814  13.526  0.0733 -0.1219  0.2589
47345SOL    HW159645  12.076   0.769  13.492  0.5280  1.1638 -0.4750
47345SOL    HW259646  11.980   0.771  13.609 -0.0315 -2.2166 -0.7871
47346SOL     OW59647   6.672   7.493   2.658  0.0834  0.5347 -0.0845
47346SOL    HW159648   6.761   7.466   2.681  0.7973  2.2321 -0.6936
47346SOL    HW259649   6.637   7.418   2.609  1.0784 -0.2628  0.3756
47347SOL     OW59650  11.846  13.442  10.288 -0.0578  0.5113  0.1383
47347SOL    HW159651  11.832  13.521  10.236  1.7954  0.8724  0.1280
47347SOL    HW259652  11.866  13.474  10.376 -0.6140 -0.0119  0.4670
47348SOL     OW59653   3.199   0.809  11.954  0.3074  0.5764  0.4798
47348SOL    HW159654   3.126   0.829  11.896 -1.1107 -1.5955  1.3603
47348SOL    HW259655   3.163   0.819  12.042  0.7009 -1.4986  0.9385
47349SOL     OW59656  11.998   8.211  11.493 -0.3959  0.0556 -0.5166
47349SOL    HW159657  12.005   8.147  11.564  0.3535 -0.4774 -1.0523
47349SOL    HW259658  12.012   8.296  11.536  2.4823 -0.4035 -0.3314
47350SOL     OW59659   2.235  13.597  12.424 -0.1674  0.6006 -0.3696
47350SOL    HW159660   2.211  13.579  12.333  3.0657 -1.8808 -0.9200
47350SOL    HW259661   2.189  13.530  12.475 -0.6465  0.9235 -0.3719
47351SOL     OW59662   9.997   3.774  12.911 -0.1093  0.0028 -0.2219
47351SOL    HW159663   9.961   3.832  12.978  1.0952 -0.3449  0.7667
47351SOL    HW259664  10.074   3.733  12.952 -0.4655 -1.7159 -1.1378
47352SOL     OW59665   5.330  12.704   6.484  0.2757  0.1425 -0.2321
47352SOL    HW159666   5.397  12.662   6.431  0.0602 -2.0703  1.1105
47352SOL    HW259667   5.373  12.781   6.520  1.7245 -0.5679 -0.3686
47353SOL     OW59668   8.293  13.381   1.528  0.5384  0.3724 -0.1730
47353SOL    HW159669   8.368  13.441   1.531  0.7051  0.1346  1.1294
47353SOL    HW259670   8.265  13.375   1.620  0.3912 -1.3755 -0.3126
47354SOL     OW59671  11.166   2.620   3.258 -0.1047 -0.2937  0.3343
47354SOL    HW159672  11.129   2.556   3.198  0.4440  0.5694 -0.9762
47354SOL    HW259673  11.252   2.584   3.282  0.0071 -0.2708 -0.0302
47355SOL     OW59674   2.075   9.756   2.647 -0.0029 -0.6028 -0.6264
47355SOL    HW159675   2.132   9.688   2.681  0.6939 -0.2228 -0.9982
47355SOL    HW259676   2.092   9.832   2.703 -1.6289 -1.0223  0.5335
47356SOL     OW59677  11.245  11.644   2.741  0.3703 -0.3885 -0.2485
47356SOL    HW159678  11.306  11.589   2.692 -2.1026 -1.9308 -1.8693
47356SOL    HW259679  11.171  11.586   2.761 -0.4972  1.2909  1.8395
47357SOL     OW59680   9.549   4.529  12.202  0.0966  0.4706  0.8077
47357SOL    HW159681   9.472   4.587  12.207 -0.4884 -0.1009 -0.9441
47357SOL    HW259682   9.593   4.555  12.121  0.7918 -0.3660  0.9102
47358SOL     OW59683   5.241   4.787   2.654 -0.5851 -0.1518  0.4674
47358SOL    HW159684   5.208   4.768   2.566 -0.0138  0.8183  0.0332
47358SOL    HW259685   5.281   4.874   2.647 -0.8364  0.0923  1.7684
47359SOL     OW59686   6.900   2.696   1.204  0.3712 -0.3051 -0.5992
47359SOL    HW159687   6.838   2.749   1.254 -0.2161 -0.7332 -0.8713
47359SOL    HW259688   6.871   2.606   1.216  2.0389 -0.7078  0.7956
47360SOL     OW59689   6.714   3.091  13.872  0.1023  0.0838 -0.3601
47360SOL    HW159690   6.690   3.181  13.851  0.7768  0.9507  2.2310
47360SOL    HW259691   6.650   3.063  13.938  0.9463 -0.6705  0.1707
47361SOL     OW59692   0.171   3.167  10.365  0.1612  0.1982  0.1849
47361SOL    HW159693   0.092   3.118  10.387  0.1417 -0.4620 -1.2569
47361SOL    HW259694   0.218   3.176  10.448  0.0649 -2.1009  0.5537
47362SOL     OW59695  10.135  11.036  10.343 -0.4264 -0.2693  0.2883
47362SOL    HW159696  10.117  11.009  10.434 -2.1516 -0.7212 -0.1558
47362SOL    HW259697  10.189  10.965  10.308 -1.6204 -1.2148  0.3160
47363SOL     OW59698   3.164   4.153  12.063  0.7888  0.0879  0.6923
47363SOL    HW159699   3.163   4.130  12.156 -1.1786 -0.9141  0.4668
47363SOL    HW259700   3.122   4.238  12.058  2.8769  1.2067  0.8960
47364SOL     OW59701   1.000   7.953   0.725 -0.4965  0.0243  0.0644
47364SOL    HW159702   0.998   8.040   0.764 -1.4133 -0.5956  1.4701
47364SOL    HW259703   0.970   7.966   0.635 -2.4610  0.9288  0.8016
47365SOL     OW59704  10.284   3.212   1.287 -0.2366  0.4424  0.5254
47365SOL    HW159705  10.322   3.146   1.345  0.4484 -0.0617 -0.4701
47365SOL    HW259706  10.292   3.175   1.199 -1.0746  1.2752  0.0787
47366SOL     OW59707  11.441   1.375   2.099  0.1488 -0.4285 -0.5830
47366SOL    HW159708  11.455   1.436   2.027 -0.2389 -0.1621 -0.4340
47366SOL    HW259709  11.420   1.430   2.175  0.5091 -0.7062 -0.2753
47367SOL     OW59710   0.207  13.181   8.725  0.3448 -0.1277  0.1441
47367SOL    HW159711   0.192  13.180   8.819  1.2384  1.5554  0.3426
47367SOL    HW259712   0.214  13.274   8.702  2.8442 -0.5115 -1.1009
47368SOL     OW59713   4.204   7.827  12.753 -0.7337  0.3382 -0.4100
47368SOL    HW159714   4.183   7.805  12.844  2.7231 -1.0763  0.1866
47368SOL    HW259715   4.255   7.907  12.759  0.5301 -0.4074 -0.9584
47369SOL     OW59716   3.198  11.559  10.373  0.6279 -0.1989 -0.1202
47369SOL    HW159717   3.105  11.539  10.369  0.2790  1.3613 -0.5739
47369SOL    HW259718   3.215  11.609  10.293  1.1227  2.3783  1.4998
47370SOL     OW59719  11.139   4.454   0.967 -0.0999 -0.1327 -0.0103
47370SOL    HW159720  11.163   4.473   1.058  0.3588 -0.1332 -0.1288
47370SOL    HW259721  11.093   4.370   0.971 -1.5046  0.6225  0.4241
47371SOL     OW59722   8.616  11.223  11.737 -0.0318  0.9445 -0.5131
47371SOL    HW159723   8.619  11.214  11.642 -1.3283  1.4367 -0.6116
47371SOL    HW259724   8.557  11.155  11.766  1.0144  0.2496  0.0410
47372SOL     OW59725   4.729  11.258  13.750 -0.2284  0.2351 -0.5411
47372SOL    HW159726   4.815  11.288  13.720  0.0208 -0.7407 -0.8512
47372SOL    HW259727   4.704  11.320  13.818  0.6140  0.6741 -0.6180
47373SOL     OW59728  11.554   5.717  13.582  0.1675  0.5389 -0.4296
47373SOL    HW159729  11.558   5.741  13.675  0.1331  0.3754 -0.3850
47373SOL    HW259730  11.496   5.640  13.580  0.4145  0.3548 -0.5497
47374SOL     OW59731   0.848   8.229  11.518  0.5592  0.0470  0.1041
47374SOL    HW159732   0.804   8.239  11.602 -0.8688 -1.0447 -0.4672
47374SOL    HW259733   0.832   8.138  11.494  1.4316  0.1907 -1.0838
47375SOL     OW59734   7.292  12.897   8.035 -0.0662 -0.4363 -0.5217
47375SOL    HW159735   7.225  12.835   8.006 -0.3092 -0.8243  0.7986
47375SOL    HW259736   7.283  12.899   8.130  1.5983 -0.2448 -0.3397
47376SOL     OW59737   3.909   4.602   6.820 -0.0538 -0.6622 -0.0196
47376SOL    HW159738   3.819   4.626   6.842  0.1872 -1.1725  1.6879
47376SOL    HW259739   3.958   4.618   6.901  1.6164  0.6210 -1.2312
47377SOL     OW59740   6.136   2.643   7.903 -0.3560  0.2724 -0.1249
47377SOL    HW159741   6.193   2.710   7.939  1.4482 -0.0484 -2.1470
47377SOL    HW259742   6.125   2.668   7.811 -0.0575 -1.8745 -0.8086
47378SOL     OW59743   9.317   0.645  13.846  0.3074  0.1359 -0.4414
47378SOL    HW159744   9.366   0.680  13.772 -1.6402 -0.1429 -1.9209
47378SOL    HW259745   9.323   0.550  13.837  0.1252  0.0980 -0.1868
47379SOL     OW59746   9.804   9.742  11.542  0.1424 -0.2973  0.2724
47379SOL    HW159747   9.797   9.757  11.636  1.9210  0.9776  0.2421
47379SOL    HW259748   9.831   9.651  11.534  1.9239  0.1279  1.1090
47380SOL     OW59749   5.931  12.566   8.745 -0.5820  0.7002  0.2778
47380SOL    HW159750   5.898  12.534   8.661  1.4705 -0.6445 -0.0654
47380SOL    HW259751   5.989  12.638   8.722 -1.7547  1.8486  0.7574
47381SOL     OW59752   6.191   7.160   6.382 -0.3271  0.0049  0.3611
47381SOL    HW159753   6.157   7.229   6.438  0.7421  0.2038  0.7970
47381SOL    HW259754   6.117   7.101   6.367 -0.5350 -0.2736  2.3221
47382SOL     OW59755   8.449   5.923  10.154  0.2492 -0.3303 -0.2305
47382SOL    HW159756   8.433   6.018  10.152 -1.5045 -0.6025 -0.1223
47382SOL    HW259757   8.469   5.904  10.245  0.3331 -0.1220 -0.2029
47383SOL     OW59758   4.811   3.028   6.557  0.3096  0.3214 -0.1706
47383SOL    HW159759   4.735   2.991   6.512 -0.2392  0.1322  0.8708
47383SOL    HW259760   4.775   3.094   6.615  1.1037  1.2361 -0.6851
47384SOL     OW59761   8.179   9.139  14.008 -0.1577  0.0934 -0.3358
47384SOL    HW159762   8.204   9.223  14.048 -0.9345  0.3514 -0.3721
47384SOL    HW259763   8.142   9.164  13.923 -4.3412  0.1899  1.2857
47385SOL     OW59764  11.258   8.576  12.488 -0.3909  0.7270 -0.4737
47385SOL    HW159765  11.261   8.523  12.409 -1.6092 -0.1636  0.0326
47385SOL    HW259766  11.164   8.584  12.508 -0.1028  0.5986  1.0715
47386SOL     OW59767   4.780   5.859  10.955  1.0092  0.6094 -0.0771
47386SOL    HW159768   4.757   5.768  10.973 -0.3164  0.9253 -0.0389
47386SOL    HW259769   4.875   5.863  10.967  0.9466 -0.5203  0.9552
47387SOL     OW59770  13.887   3.287   6.637  0.3382  0.2836 -0.3192
47387SOL    HW159771  13.886   3.383   6.647  2.4053  0.3300 -0.1118
47387SOL    HW259772  13.979   3.265   6.629  0.0171 -1.8632  1.1242
47388SOL     OW59773   0.902   2.197   2.300  0.6634  0.0549  0.0401
47388SOL    HW159774   0.980   2.201   2.246  0.0673 -0.4194 -0.8756
47388SOL    HW259775   0.866   2.109   2.284 -1.0242  0.8854 -0.9612
47389SOL     OW59776   3.961  10.430   3.189 -0.2492  0.0253 -0.1423
47389SOL    HW159777   4.036  10.489   3.181  0.2962 -0.8585 -2.4545
47389SOL    HW259778   3.893  10.469   3.134 -0.8867 -0.0606  0.5757
47390SOL     OW59779   9.709   0.286   5.677  0.3619 -0.0129  0.2179
47390SOL    HW159780   9.658   0.233   5.738  1.2902 -1.9743 -0.6531
47390SOL    HW259781   9.794   0.243   5.671  0.4919  0.4098 -2.0491
47391SOL     OW59782   1.639   8.470  12.126 -0.0366 -0.1554 -0.3740
47391SOL    HW159783   1.701   8.526  12.079  0.8788 -1.4340 -0.7148
47391SOL    HW259784   1.553   8.503  12.099  0.4474  1.7450  0.2302
47392SOL     OW59785   7.172   9.073  11.861 -0.3128 -0.2864 -0.0858
47392SOL    HW159786   7.111   9.105  11.794  2.1641  1.5627 -1.6454
47392SOL    HW259787   7.191   8.983  11.833 -0.8243 -0.2056 -0.7368
47393SOL     OW59788   7.712   3.971   6.907  0.1254 -0.1124  0.2295
47393SOL    HW159789   7.726   3.926   6.990  1.7043  0.0841  0.1143
47393SOL    HW259790   7.793   4.021   6.893 -0.9139  1.4705 -0.4509
47394SOL     OW59791   7.436   9.386   6.093  0.4430  0.2188  0.1964
47394SOL    HW159792   7.383   9.457   6.058 -0.5739  0.1628  1.5376
47394SOL    HW259793   7.398   9.368   6.179  2.7092  0.2479  1.2836
47395SOL     OW59794   6.879   7.892   2.447 -0.7610  0.6580  0.6081
47395SOL    HW159795   6.952   7.911   2.507 -0.0559  1.7222 -0.5339
47395SOL    HW259796   6.826   7.827   2.493  1.9414 -1.6771  0.7373
47396SOL     OW59797   3.501   5.195   0.001  0.1783 -0.1453 -0.5010
47396SOL    HW159798   3.542   5.184  -0.085  1.5054 -0.8963  0.2023
47396SOL    HW259799   3.495   5.290   0.013 -0.2121 -0.0302 -1.4959
47397SOL     OW59800  12.155  11.652   0.468 -0.5014 -0.2966 -0.2938
47397SOL    HW159801  12.144  11.744   0.494  1.7081 -0.1347  0.3022
47397SOL    HW259802  12.196  11.611   0.544 -2.0190 -1.9686 -0.3204
47398SOL     OW59803  12.800   7.120   7.758  0.8223 -0.2578 -0.2490
47398SOL    HW159804  12.822   7.206   7.721 -0.1301  0.2552  0.3232
47398SOL    HW259805  12.710   7.104   7.729  0.1747  0.0025  1.5071
47399SOL     OW59806   2.146   9.951  13.660  0.1943  0.2182  0.7204
47399SOL    HW159807   2.121  10.040  13.686  1.6461  0.7537  0.3775
47399SOL    HW259808   2.065   9.901  13.667 -1.4243  2.1642 -1.9605
47400SOL     OW59809  13.068  10.496  10.551 -0.7813 -0.4064  0.1009
47400SOL    HW159810  13.057  10.576  10.500  0.9604  0.3260  0.8011
47400SOL    HW259811  13.139  10.516  10.612 -1.7892 -1.7506  1.8027
47401SOL     OW59812   0.350   4.333   9.738 -0.0080 -0.2620 -0.1006
47401SOL    HW159813   0.341   4.284   9.656 -1.0502 -1.1570  0.5174
47401SOL    HW259814   0.443   4.356   9.742  0.2232 -0.9359 -1.1204
47402SOL     OW59815  12.466  12.705   7.857  0.4674 -0.4380  0.1100
47402SOL    HW159816  12.419  12.708   7.773  0.0331  0.1701  0.3686
47402SOL    HW259817  12.436  12.783   7.904  2.2229  0.3168  0.0345
47403SOL     OW59818   7.458   0.621   9.577 -0.6360 -0.1409 -0.6499
47403SOL    HW159819   7.515   0.661   9.643 -0.1821 -2.5442  0.5325
47403SOL    HW259820   7.386   0.583   9.627 -1.4147 -0.1805 -1.7729
47404SOL     OW59821   8.156   2.909   5.569  0.5235 -0.0114  0.4281
47404SOL    HW159822   8.163   2.983   5.508  0.5382 -0.1949  0.2034
47404SOL    HW259823   8.072   2.923   5.613 -1.4752 -1.9325 -2.4346
47405SOL     OW59824  12.765  11.873   6.088 -0.1513  0.0997  0.0642
47405SOL    HW159825  12.853  11.906   6.066  0.0726 -1.7718 -2.1174
47405SOL    HW259826  12.781  11.812   6.160  0.6819 -1.7094 -1.5820
47406SOL     OW59827   1.998   1.080   6.034 -0.2900  0.0384  0.2472
47406SOL    HW159828   2.038   0.993   6.031 -0.5359 -0.1284  1.3863
47406SOL    HW259829   1.971   1.097   5.944  4.6072  1.2869 -1.2570
47407SOL     OW59830   1.624   6.044   3.568  0.2815 -0.1193  0.0563
47407SOL    HW159831   1.643   6.032   3.661 -1.8390  2.5375  0.9533
47407SOL    HW259832   1.587   6.132   3.562  1.5252  0.3158 -3.5317
47408SOL     OW59833   8.662  10.966   6.458  0.4055 -0.2090  0.3679
47408SOL    HW159834   8.725  10.896   6.477  1.4315  0.3604 -0.8443
47408SOL    HW259835   8.583  10.920   6.430  1.1808 -0.8960 -0.7384
47409SOL     OW59836   5.672   2.486   6.217  0.7347 -0.0862  0.7943
47409SOL    HW159837   5.608   2.415   6.207 -0.9507  1.6144 -1.4971
47409SOL    HW259838   5.756   2.441   6.222 -0.3064 -2.2779  0.1737
47410SOL     OW59839  13.028   7.927   5.291 -0.5383  0.4980 -0.0608
47410SOL    HW159840  12.985   7.843   5.275  1.9758 -0.8896 -0.1904
47410SOL    HW259841  13.013   7.978   5.212  0.2770 -1.0043 -1.2583
47411SOL     OW59842  12.661   8.318   3.948  0.3243  0.1839 -0.4218
47411SOL    HW159843  12.652   8.248   4.013  2.0170 -0.6269 -1.0166
47411SOL    HW259844  12.751   8.350   3.959  0.0639  1.2399 -1.1832
47412SOL     OW59845   3.681   5.898   0.671  0.5969 -0.2452  1.2725
47412SOL    HW159846   3.637   5.901   0.756 -0.5560 -0.5169  0.6990
47412SOL    HW259847   3.666   5.809   0.639 -1.5892  0.6741 -0.5376
47413SOL     OW59848   8.117  11.800   5.278  0.1561 -0.2783 -0.5454
47413SOL    HW159849   8.041  11.768   5.230  0.2020  0.6437 -1.2462
47413SOL    HW259850   8.129  11.890   5.248  1.9935 -0.6503 -1.0437
47414SOL     OW59851  13.641   8.576   0.358  0.2806 -0.1319 -0.0317
47414SOL    HW159852  13.545   8.581   0.363  0.3767  1.8732  1.0274
47414SOL    HW259853  13.668   8.666   0.339  2.0284 -0.2472  1.6492
47415SOL     OW59854  12.265   4.256   5.305  0.3726 -0.1779 -0.4124
47415SOL    HW159855  12.271   4.161   5.315  0.6963 -0.4021 -2.4078
47415SOL    HW259856  12.225   4.286   5.386  0.0611 -2.0404  0.1621
47416SOL     OW59857   8.019  11.861   6.766  0.8687 -0.2528 -0.5144
47416SOL    HW159858   8.038  11.951   6.738 -0.3944  0.4171  0.6704
47416SOL    HW259859   8.081  11.807   6.717  0.9049  1.1522 -2.1023
47417SOL     OW59860   0.783   4.705   0.268 -0.1580  0.6381  0.9116
47417SOL    HW159861   0.798   4.693   0.362  1.2388 -0.0751  0.6204
47417SOL    HW259862   0.731   4.628   0.243  1.9345 -0.7610  0.5914
47418SOL     OW59863  12.633   7.286   5.587 -0.1647  0.3528 -0.8783
47418SOL    HW159864  12.686   7.299   5.665 -0.2673  1.3725 -0.9709
47418SOL    HW259865  12.543   7.302   5.617 -0.3029 -0.1719 -0.9997
47419SOL     OW59866   1.548  10.355  11.970 -0.3653  0.2320  0.2561
47419SOL    HW159867   1.572  10.379  11.881  1.5208 -0.1463  0.6258
47419SOL    HW259868   1.578  10.428  12.024  0.4738 -0.4952  0.7961
47420SOL     OW59869  13.629  12.799   3.851  0.5285  0.3865  0.2163
47420SOL    HW159870  13.694  12.847   3.800  0.9745  1.2574  1.5371
47420SOL    HW259871  13.558  12.861   3.865 -0.1843 -0.2686 -0.4507
47421SOL     OW59872   5.581  11.736   7.282 -0.3693  0.1967  0.7125
47421SOL    HW159873   5.614  11.732   7.193 -2.0801  1.3979 -0.0226
47421SOL    HW259874   5.642  11.795   7.328  0.5521 -0.4829  0.3782
47422SOL     OW59875   4.687   4.087   1.506 -0.1975 -0.2078  0.5567
47422SOL    HW159876   4.730   4.016   1.553 -0.2336  0.0755  1.0313
47422SOL    HW259877   4.732   4.091   1.422  0.6370  0.0095  1.0002
47423SOL     OW59878   6.451   4.558   0.592  0.0091  0.1605  0.5929
47423SOL    HW159879   6.496   4.628   0.545  1.2172 -1.7262 -1.2373
47423SOL    HW259880   6.521   4.501   0.624 -0.9556 -1.2582  0.2926
47424SOL     OW59881   2.732   3.232   4.431 -0.2732  0.2731 -0.2828
47424SOL    HW159882   2.660   3.284   4.395 -0.9451 -0.4755 -0.0655
47424SOL    HW259883   2.751   3.272   4.516 -2.7783 -1.4909  1.2646
47425SOL     OW59884  13.324   7.642   6.636 -0.1652 -0.1854 -0.0471
47425SOL    HW159885  13.399   7.583   6.626  0.2917  0.5832 -1.4231
47425SOL    HW259886  13.293   7.627   6.726  0.5387 -1.7859 -0.0384
47426SOL     OW59887   4.488   0.475   0.631 -0.1175  0.5763 -0.6015
47426SOL    HW159888   4.398   0.443   0.634 -0.2536  0.9981  0.7654
47426SOL    HW259889   4.515   0.476   0.723  1.3085  0.3938 -0.9975
47427SOL     OW59890   9.680  13.897   4.950  0.6242  0.3717  0.1128
47427SOL    HW159891   9.741  13.845   4.897  0.9519  0.0472  0.7960
47427SOL    HW259892   9.660  13.973   4.896  2.5981  1.1171  0.3531
47428SOL     OW59893  12.506   3.893   1.081 -0.3468 -0.8104  0.5963
47428SOL    HW159894  12.424   3.852   1.054  0.5293 -3.0088  1.0550
47428SOL    HW259895  12.485   3.937   1.163 -1.8959  1.9015 -1.1023
47429SOL     OW59896  10.519   6.599   4.120  0.4002  0.2687  0.0600
47429SOL    HW159897  10.555   6.578   4.034 -0.6922  3.0725 -1.2000
47429SOL    HW259898  10.595   6.603   4.178  1.1812 -1.4492 -0.7664
47430SOL     OW59899  13.200   1.858  12.727  0.5715  0.6861 -0.4284
47430SOL    HW159900  13.284   1.895  12.751 -0.2133  0.8562  2.4889
47430SOL    HW259901  13.203   1.767  12.759 -0.2574  0.6431 -0.4277
47431SOL     OW59902   3.000   1.717   6.487 -0.0431  0.1932  0.3463
47431SOL    HW159903   3.039   1.630   6.476  1.6736  0.8747  0.7832
47431SOL    HW259904   3.043   1.753   6.564  1.1148  2.3485 -1.1854
47432SOL     OW59905  13.502   7.470   7.842 -0.0798 -0.4567  0.0014
47432SOL    HW159906  13.429   7.489   7.901  1.1106  0.0791  1.3772
47432SOL    HW259907  13.570   7.433   7.898  0.2862 -2.1749 -1.4548
47433SOL     OW59908   4.574   2.409   0.166 -0.3140  0.2201 -0.0352
47433SOL    HW159909   4.612   2.476   0.223 -1.5754  1.0742 -0.1600
47433SOL    HW259910   4.559   2.453   0.083 -1.3460 -0.1400 -0.0549
47434SOL     OW59911   6.552   7.583   5.673  0.0919 -0.1603 -0.0432
47434SOL    HW159912   6.520   7.593   5.763  1.5462 -1.2243  0.6142
47434SOL    HW259913   6.500   7.646   5.623  0.7425  2.0843  1.9045
47435SOL     OW59914   1.195  13.161   8.587 -0.1197  0.4451 -0.1229
47435SOL    HW159915   1.227  13.099   8.652 -0.7860  1.3931  1.1515
47435SOL    HW259916   1.235  13.133   8.505  2.2479  0.3037  0.9989
47436SOL     OW59917  11.155   1.318   3.173 -0.2847  0.1002 -0.7749
47436SOL    HW159918  11.237   1.325   3.124 -0.0073  2.4770 -0.1002
47436SOL    HW259919  11.093   1.371   3.124 -0.0011  2.5455  1.2825
47437SOL     OW59920  12.998   6.607   6.931  0.2015 -0.3805 -0.2803
47437SOL    HW159921  13.041   6.679   6.886  1.3297 -1.4003 -0.8680
47437SOL    HW259922  12.925   6.648   6.978  1.6273  1.3625  0.5238
47438SOL     OW59923  12.664  11.258   9.293  0.0954 -0.0164 -0.4438
47438SOL    HW159924  12.680  11.262   9.199  1.0030  1.5150 -0.2682
47438SOL    HW259925  12.743  11.297   9.332 -0.6212  0.1526  0.8960
47439SOL     OW59926   0.257   9.649   3.736 -0.3116 -0.2066 -0.3036
47439SOL    HW159927   0.333   9.591   3.727 -0.5491 -0.4689 -0.6418
47439SOL    HW259928   0.228   9.665   3.647 -1.6755 -1.4749 -0.1120
47440SOL     OW59929  11.117   8.973  11.861 -0.2056 -0.0823 -0.1851
47440SOL    HW159930  11.130   9.021  11.943  0.4405 -1.3513  0.4905
47440SOL    HW259931  11.179   8.900  11.866 -1.5808 -1.3561 -0.8818
47441SOL     OW59932  11.421   3.264  10.147 -0.4172 -0.0654  0.1415
47441SOL    HW159933  11.339   3.308  10.171 -1.5556 -1.5838 -0.7405
47441SOL    HW259934  11.461   3.321  10.082 -0.8227  0.6597  0.5159
47442SOL     OW59935  12.165   3.941   0.460  0.0647  0.1189  0.2497
47442SOL    HW159936  12.233   3.998   0.495 -1.1687  0.6636  1.8975
47442SOL    HW259937  12.188   3.854   0.492  0.4471  0.1452  0.0572
47443SOL     OW59938   2.233  12.955   3.357 -0.2727  0.0960  0.2097
47443SOL    HW159939   2.248  13.014   3.283  0.5087 -1.4704 -0.9312
47443SOL    HW259940   2.141  12.931   3.350 -0.1412 -0.2424 -0.4243
47444SOL     OW59941  13.009   2.426  10.178  0.4470 -0.3941 -0.1936
47444SOL    HW159942  12.920   2.391  10.172 -0.0399  0.8621 -0.7583
47444SOL    HW259943  13.040   2.428  10.087  0.5447  0.3789 -0.1531
47445SOL     OW59944  13.710   8.864  11.437  0.0538 -0.0364 -0.5803
47445SOL    HW159945  13.634   8.912  11.471  1.0623  1.1911  0.0037
47445SOL    HW259946  13.671   8.790  11.390 -1.5091  0.5711 -0.3336
47446SOL     OW59947   0.624   8.924   1.307  0.1495 -0.4864  0.4058
47446SOL    HW159948   0.687   8.889   1.370  1.4397 -0.3922 -0.7789
47446SOL    HW259949   0.625   8.861   1.235 -0.4636 -0.0335 -0.0064
47447SOL     OW59950  12.142   0.291   1.001 -0.0348 -0.1057  0.3467
47447SOL    HW159951  12.131   0.346   0.923  2.3612 -0.1103 -0.0567
47447SOL    HW259952  12.161   0.353   1.072 -0.9787 -0.1936  0.6923
47448SOL     OW59953   4.736  12.320  14.072 -0.0773 -0.2662 -0.2198
47448SOL    HW159954   4.704  12.290  14.157  2.3836  1.4665  1.4570
47448SOL    HW259955   4.701  12.408  14.062  0.6567  0.0117 -0.4058
47449SOL     OW59956  13.547   2.308   0.089 -0.4115 -0.3388 -0.0211
47449SOL    HW159957  13.545   2.385   0.031  0.6343  0.1128  0.5086
47449SOL    HW259958  13.576   2.343   0.173 -2.9846 -0.7773  1.1385
47450SOL     OW59959   4.291   3.936   4.847  0.0115 -0.0542  0.0199
47450SOL    HW159960   4.379   3.972   4.833  0.1927 -0.2902  0.5422
47450SOL    HW259961   4.254   3.929   4.758 -0.2258  1.8850 -0.0796
47451SOL     OW59962   3.620   0.082   4.546  0.3959  0.6178  0.1950
47451SOL    HW159963   3.649   0.092   4.455  0.6756 -0.0909  0.1992
47451SOL    HW259964   3.526   0.069   4.540  0.3029  1.3079  0.0628
47452SOL     OW59965   1.799  10.815   9.160  0.3723  0.1706  0.0097
47452SOL    HW159966   1.715  10.779   9.187 -0.0663  0.5177 -0.8601
47452SOL    HW259967   1.863  10.747   9.182 -0.4183 -1.1371 -1.5572
47453SOL     OW59968  12.948   0.019   2.528  0.1196 -0.2274 -0.5957
47453SOL    HW159969  12.923  -0.009   2.440  0.9073  0.7139 -1.1286
47453SOL    HW259970  13.042   0.002   2.532  0.4858  1.6477 -0.6849
47454SOL     OW59971  13.746  11.782   2.211  0.9087 -0.4177 -0.0782
47454SOL    HW159972  13.685  11.783   2.137 -0.9592 -0.8012  1.3765
47454SOL    HW259973  13.791  11.698   2.204  0.7255 -0.4630 -0.7679
47455SOL     OW59974   0.652   3.387   9.846 -0.1697  0.2233 -0.1215
47455SOL    HW159975   0.609   3.380   9.760 -2.4696  0.4243  0.9296
47455SOL    HW259976   0.641   3.478   9.871 -0.0478  0.0357  0.6326
47456SOL     OW59977  13.705   7.114  10.722  0.7119  0.2248  0.4982
47456SOL    HW159978  13.682   7.021  10.714  1.0958  0.2154 -0.7070
47456SOL    HW259979  13.664   7.141  10.804 -0.1114 -0.8039  0.4617
47457SOL     OW59980   8.680  11.942  10.901  0.4895 -0.3276  0.7061
47457SOL    HW159981   8.726  11.858  10.903  0.4422 -0.3671  0.3257
47457SOL    HW259982   8.674  11.963  10.807  1.5660  0.6816  0.8373
47458SOL     OW59983   4.497   2.382  12.147  0.1575  0.2349  0.0141
47458SOL    HW159984   4.521   2.383  12.240 -0.2738  1.0897  0.1240
47458SOL    HW259985   4.471   2.472  12.128 -0.6862 -0.1486 -0.6945
47459SOL     OW59986   3.898   4.158  11.411 -0.4742  0.7009  0.4255
47459SOL    HW159987   3.990   4.133  11.418 -0.9231 -0.6655  2.2852
47459SOL    HW259988   3.881   4.163  11.317  1.3202  0.3035  0.0498
47460SOL     OW59989   1.063   9.710   1.235  0.0925 -0.3622  0.1866
47460SOL    HW159990   1.102   9.631   1.273  0.7824 -0.5150 -0.8076
47460SOL    HW259991   1.111   9.723   1.153 -0.4949  0.6909 -0.0008
47461SOL     OW59992   8.406   4.615   0.196 -0.1011 -0.2601  0.3655
47461SOL    HW159993   8.340   4.641   0.131  1.8023 -0.0675 -1.6175
47461SOL    HW259994   8.464   4.690   0.201  1.3099 -1.3134  0.2170
47462SOL     OW59995   7.949  11.761   8.349  0.1488  0.5151  0.3590
47462SOL    HW159996   8.005  11.816   8.404  0.3697  0.0401  0.6183
47462SOL    HW259997   7.877  11.736   8.406  0.1748  0.3396  0.3153
47463SOL     OW59998   9.127   9.514  13.087 -0.1627  0.0682  0.2357
47463SOL    HW159999   9.177   9.440  13.051 -0.5823 -0.5255  0.8418
47463SOL    HW260000   9.163   9.528  13.174 -0.6589  0.0072  0.4570
47464SOL     OW60001   1.344   2.734   1.465 -0.1792 -0.4454  0.2357
47464SOL    HW160002   1.354   2.660   1.525  0.7800 -0.2539  0.3369
47464SOL    HW260003   1.412   2.796   1.492  0.3608 -0.4037 -1.1103
47465SOL     OW60004   1.831   0.323  12.782 -0.6958 -0.3296  0.1858
47465SOL    HW160005   1.908   0.365  12.744 -1.2007 -0.7025 -1.3090
47465SOL    HW260006   1.799   0.265  12.714 -2.1127 -0.4314  0.9034
47466SOL     OW60007  11.930   8.285  12.951 -0.0411  0.2864 -0.0819
47466SOL    HW160008  11.943   8.346  13.024  1.6989 -1.0016  0.7724
47466SOL    HW260009  11.914   8.342  12.875 -1.9448  1.6679  1.2411
47467SOL     OW60010  11.145   2.620   9.631  0.4358 -0.1446  0.5406
47467SOL    HW160011  11.238   2.630   9.655 -0.3344  1.1088  3.4545
47467SOL    HW260012  11.124   2.699   9.582  0.7451 -0.1620  0.3761
47468SOL     OW60013   3.434   0.358   6.348  0.2840 -0.2332  0.4188
47468SOL    HW160014   3.368   0.425   6.364 -1.3794 -1.7705  0.3141
47468SOL    HW260015   3.477   0.345   6.432  2.2483  2.4968 -0.0266
47469SOL     OW60016   9.805   7.173  13.036 -0.5822 -0.1148 -0.4522
47469SOL    HW160017   9.786   7.094  12.985 -1.2582  0.3646 -0.9572
47469SOL    HW260018   9.731   7.231  13.020  0.8117  1.4501 -1.7558
47470SOL     OW60019   9.517   3.430   2.792 -0.3945 -0.0945  0.1809
47470SOL    HW160020   9.516   3.403   2.701  0.7716  2.8815 -0.8224
47470SOL    HW260021   9.592   3.385   2.830  0.0117 -0.1806 -0.7144
47471SOL     OW60022   6.777   1.313   9.527  0.0668 -0.4180  0.0601
47471SOL    HW160023   6.702   1.254   9.529 -1.3245  1.2684 -0.1372
47471SOL    HW260024   6.770   1.357   9.442  2.0933 -1.1752 -0.5745
47472SOL     OW60025  13.156   5.377   3.257 -0.2879  0.3746  0.2158
47472SOL    HW160026  13.223   5.423   3.208 -0.7533  0.6668 -0.1581
47472SOL    HW260027  13.199   5.350   3.338 -0.1674  1.9574  0.6953
47473SOL     OW60028  12.158   4.132   8.913  0.0840  0.3777 -0.2328
47473SOL    HW160029  12.127   4.130   8.823  1.4931  0.3304 -0.7465
47473SOL    HW260030  12.149   4.224   8.939  0.0367  0.4693 -0.5613
47474SOL     OW60031   4.902   0.866   9.352  0.0857 -0.1790  0.2322
47474SOL    HW160032   4.923   0.879   9.444  0.7559 -3.5749  0.6896
47474SOL    HW260033   4.823   0.813   9.352 -0.8667  1.1590 -1.2382
47475SOL     OW60034  13.396   7.487   2.125  0.2491 -0.5517 -0.5323
47475SOL    HW160035  13.418   7.397   2.149  1.0726 -0.4260 -0.7893
47475SOL    HW260036  13.421   7.493   2.033 -1.4877 -0.5895 -1.0443
47476SOL     OW60037   7.013   0.923  10.795  0.1521  0.1416 -0.0634
47476SOL    HW160038   7.000   0.865  10.869  1.2943  0.6238  0.5407
47476SOL    HW260039   6.995   0.869  10.718 -0.0620 -0.6382  0.5275
47477SOL     OW60040  12.719  12.826   6.115  0.1843  0.9441 -0.3029
47477SOL    HW160041  12.728  12.912   6.155  0.0570 -0.0282  1.9878
47477SOL    HW260042  12.805  12.785   6.127 -0.0410  0.3988 -0.4944
47478SOL     OW60043  11.601   4.986   6.475 -0.1165 -0.3499 -0.1385
47478SOL    HW160044  11.650   4.965   6.554 -0.9623 -0.3738  0.3990
47478SOL    HW260045  11.667   5.014   6.412  0.6010 -0.6234  0.4780
47479SOL     OW60046  11.923   6.071  12.473 -0.0313 -0.1024 -0.1788
47479SOL    HW160047  11.998   6.120  12.439  0.2989  0.2844  1.0467
47479SOL    HW260048  11.878   6.133  12.531 -0.1348 -0.9460  0.6682
47480SOL     OW60049   5.037   2.113   8.750  0.2280 -0.0480 -0.2959
47480SOL    HW160050   5.057   2.205   8.768 -1.6164  0.3612 -0.1565
47480SOL    HW260051   4.969   2.115   8.683 -3.2237 -1.0587  2.8531
47481SOL     OW60052   5.527   9.365  13.436  0.0954 -0.4170  0.8004
47481SOL    HW160053   5.460   9.298  13.422 -0.3900 -0.1746  1.8020
47481SOL    HW260054   5.515   9.390  13.528  0.8737  0.3872  0.6881
47482SOL     OW60055   3.990   4.895   5.657 -0.2276 -0.3898  0.7407
47482SOL    HW160056   4.085   4.899   5.671  0.1797  2.4481 -1.6027
47482SOL    HW260057   3.980   4.845   5.576 -0.6317  0.0555  0.5095
47483SOL     OW60058   8.084   1.499  13.152 -0.7088  0.4263  0.3090
47483SOL    HW160059   8.023   1.562  13.189 -1.6354 -1.3686  2.0342
47483SOL    HW260060   8.095   1.433  13.220 -0.3218 -1.6313 -1.6219
47484SOL     OW60061   0.688  12.675   8.276  0.1588 -0.2474  0.4839
47484SOL    HW160062   0.689  12.720   8.361 -1.8614  0.3537  0.2499
47484SOL    HW260063   0.628  12.727   8.222  0.2353 -1.4614 -0.8366
47485SOL     OW60064   8.335   0.606  10.052  0.7954  0.0277 -0.2092
47485SOL    HW160065   8.283   0.686  10.045  1.0203  0.3725  1.6055
47485SOL    HW260066   8.293   0.555  10.122  0.2505 -1.8002 -1.7627
47486SOL     OW60067  13.702   3.147   1.429  0.5919 -0.1372  0.2131
47486SOL    HW160068  13.619   3.168   1.472 -0.5116 -0.1606 -1.7733
47486SOL    HW260069  13.758   3.223   1.444  0.0821  0.0450  1.2478
47487SOL     OW60070  13.745   5.389   3.959 -0.2607  0.1597 -0.3229
47487SOL    HW160071  13.779   5.362   3.874 -1.4160  0.5988 -0.9596
47487SOL    HW260072  13.684   5.460   3.939 -2.9612 -1.7385  0.4819
47488SOL     OW60073   0.814   9.330  11.812  0.1733  0.6408  0.5372
47488SOL    HW160074   0.850   9.242  11.807  1.7197  1.2936 -0.7220
47488SOL    HW260075   0.784   9.339  11.902 -0.1383 -1.2019  0.6589
47489SOL     OW60076   2.944   7.685   2.640 -0.3305 -0.1636 -0.5566
47489SOL    HW160077   3.018   7.633   2.609 -0.0304  0.4967 -0.9683
47489SOL    HW260078   2.978   7.735   2.713  0.1145  1.3852 -1.7707
47490SOL     OW60079  10.617   6.279  13.293 -0.1043 -0.7897  0.0118
47490SOL    HW160080  10.631   6.188  13.271  0.8205 -0.7269  0.2994
47490SOL    HW260081  10.533   6.280  13.340 -1.1677 -1.1712 -1.7844
47491SOL     OW60082   6.801   9.809   5.043 -0.2379 -0.4447  0.2755
47491SOL    HW160083   6.848   9.727   5.030  0.4277 -1.2178  5.3360
47491SOL    HW260084   6.710   9.788   5.023  0.3545 -1.3395 -1.7115
47492SOL     OW60085   4.339   7.112  13.403  0.3248 -0.0079 -0.3909
47492SOL    HW160086   4.421   7.156  13.425 -0.1688  0.3159  0.8969
47492SOL    HW260087   4.336   7.113  13.307  0.3852  2.6735 -0.4432
47493SOL     OW60088   3.258  13.883   3.917 -0.4632  0.1694  0.0842
47493SOL    HW160089   3.315  13.960   3.914  0.8771 -0.7945  0.2610
47493SOL    HW260090   3.258  13.857   4.009  0.3210 -0.9179 -0.2052
47494SOL     OW60091  10.499  11.345   7.992 -0.5220  0.2063 -0.3388
47494SOL    HW160092  10.523  11.438   7.984  1.9916 -0.2999  0.1919
47494SOL    HW260093  10.572  11.299   7.951 -1.2404 -1.5666  0.2986
47495SOL     OW60094   6.167   0.849   3.340  0.3518  0.1605 -0.2953
47495SOL    HW160095   6.103   0.782   3.316 -1.0847  0.9175  1.2134
47495SOL    HW260096   6.206   0.876   3.257  0.1002 -1.6710 -1.0491
47496SOL     OW60097  12.871  11.286   5.108  0.4682 -0.6158 -0.0129
47496SOL    HW160098  12.799  11.241   5.064 -0.8159  1.8559 -0.6465
47496SOL    HW260099  12.949  11.260   5.059 -0.6951  0.5996 -2.7477
47497SOL     OW60100   1.903   7.900  10.042  0.4357  0.3629 -0.0280
47497SOL    HW160101   1.950   7.833   9.992  0.4751  0.8672 -0.6774
47497SOL    HW260102   1.848   7.944   9.978 -2.0894 -1.1678  0.9561
47498SOL     OW60103   1.157  13.623   1.597  0.4497  0.2091 -0.1201
47498SOL    HW160104   1.202  13.692   1.646  2.1297 -0.4926 -0.6104
47498SOL    HW260105   1.165  13.545   1.653  0.0972 -0.0047 -0.3599
47499SOL     OW60106  12.846   5.777  10.150  0.3228 -0.3461 -0.4109
47499SOL    HW160107  12.760   5.756  10.112  0.3537 -0.0860 -0.6286
47499SOL    HW260108  12.826   5.822  10.232  0.2557 -1.1079 -0.0050
47500SOL     OW60109   8.116   6.712   1.352 -0.2653  0.1772  0.2094
47500SOL    HW160110   8.190   6.772   1.360  0.3920 -0.8078  2.2864
47500SOL    HW260111   8.041   6.762   1.385  0.3062 -0.1316  2.0789
47501SOL     OW60112  13.482  11.291   8.702 -0.0291 -0.0472 -0.4542
47501SOL    HW160113  13.567  11.249   8.706 -0.2892 -0.5008  1.3468
47501SOL    HW260114  13.420  11.219   8.691 -0.3336  0.0027  0.7532
47502SOL     OW60115   2.756   9.073   8.713 -0.3418  0.8742 -0.7808
47502SOL    HW160116   2.742   9.111   8.626 -0.1644  0.3042 -1.0658
47502SOL    HW260117   2.719   8.985   8.706  0.3071  0.5726 -0.5016
47503SOL     OW60118  13.377   1.696  13.028  0.0942  0.6623  0.6376
47503SOL    HW160119  13.443   1.710  13.096  0.5028 -1.9806  0.8943
47503SOL    HW260120  13.307   1.648  13.072 -0.1761 -0.0361 -0.5070
47504SOL     OW60121  13.974   3.138   0.058  0.6829 -0.0611 -0.6248
47504SOL    HW160122  13.944   3.138  -0.033  2.6319  1.1229 -1.3306
47504SOL    HW260123  13.896   3.113   0.109 -0.9410  0.9303 -2.4642
47505SOL     OW60124   4.544  12.407   4.487 -0.4700 -0.0075  0.0393
47505SOL    HW160125   4.492  12.487   4.491 -1.6265 -0.5289 -2.3121
47505SOL    HW260126   4.616  12.429   4.427 -0.5173 -0.5633 -0.2270
47506SOL     OW60127   1.465   4.679  13.212 -0.3178  0.1405  0.1663
47506SOL    HW160128   1.425   4.634  13.138  0.6042 -1.2172  0.4557
47506SOL    HW260129   1.528   4.616  13.247  0.6102  1.4552  0.9488
47507SOL     OW60130   4.459   9.852   7.554 -0.4262 -0.0461 -0.0185
47507SOL    HW160131   4.416   9.937   7.543  0.1734  0.0153 -2.3858
47507SOL    HW260132   4.441   9.806   7.472  2.8502 -0.5197 -0.6121
47508SOL     OW60133   0.399   0.283   7.856 -0.0914  0.0879  0.5157
47508SOL    HW160134   0.335   0.326   7.914  1.2064  0.8671  1.4330
47508SOL    HW260135   0.405   0.193   7.890 -2.4611 -0.7701 -1.1092
47509SOL     OW60136   3.708   5.863  12.304  0.0045 -0.0608 -0.1511
47509SOL    HW160137   3.623   5.851  12.347  0.1591 -0.9692 -0.0684
47509SOL    HW260138   3.764   5.798  12.345  0.4451 -0.2252 -0.9925
47510SOL     OW60139  13.827   4.103  11.912 -0.4669 -0.8419  0.4834
47510SOL    HW160140  13.900   4.044  11.894 -1.4018 -2.3227  1.3026
47510SOL    HW260141  13.813   4.151  11.830 -0.7014 -2.9461 -0.7753
47511SOL     OW60142   7.562   9.556  12.782  0.1761 -0.1496 -0.5911
47511SOL    HW160143   7.641   9.557  12.837 -1.3525 -1.5143  1.7872
47511SOL    HW260144   7.515   9.635  12.806 -0.2674 -0.5066 -0.2689
47512SOL     OW60145  10.716   9.084  11.776  0.2938 -0.2361 -0.1263
47512SOL    HW160146  10.621   9.097  11.780  0.2055 -0.5140 -1.0968
47512SOL    HW260147  10.739   9.102  11.684  1.4322  1.4617  0.4303
47513SOL     OW60148  10.921   3.400   2.656  0.1518 -0.4624 -0.0738
47513SOL    HW160149  10.993   3.337   2.656 -0.6914 -1.4645 -1.0991
47513SOL    HW260150  10.864   3.372   2.584 -0.7434  0.9103  0.0578
47514SOL     OW60151  10.803   6.479   3.196 -0.0121 -0.6374  0.4253
47514SOL    HW160152  10.863   6.464   3.123 -1.6883  1.0658 -1.3769
47514SOL    HW260153  10.832   6.561   3.235  0.6304 -1.3403  1.4862
47515SOL     OW60154  13.036   4.925   9.527 -0.3329 -0.5169  0.7168
47515SOL    HW160155  13.065   4.869   9.455 -1.9597  0.4262 -0.7340
47515SOL    HW260156  13.085   5.007   9.515  0.1495 -0.7172  1.3005
47516SOL     OW60157   8.888   5.013   9.063  0.1818 -0.0208 -0.0778
47516SOL    HW160158   8.929   4.928   9.085  0.2211  0.4356  1.8237
47516SOL    HW260159   8.823   4.992   8.997  0.8579 -1.3885 -0.3487
47517SOL     OW60160   8.426   2.230  13.318  0.2400 -0.0858  0.7537
47517SOL    HW160161   8.364   2.160  13.300 -0.8461  0.7609  1.1419
47517SOL    HW260162   8.472   2.244  13.235 -1.7232  0.8773 -0.2116
47518SOL     OW60163   4.751  10.472   9.603 -0.2897  0.0159 -0.4405
47518SOL    HW160164   4.792  10.478   9.689  0.2320 -1.2549 -0.5714
47518SOL    HW260165   4.727  10.379   9.594 -0.4198  0.1422 -1.6186
47519SOL     OW60166   2.061  12.172   4.678  0.1280  0.3916 -0.2533
47519SOL    HW160167   2.101  12.188   4.593  0.0432  0.6777 -0.2436
47519SOL    HW260168   1.995  12.105   4.662  0.1567  0.3990 -0.3995
47520SOL     OW60169   5.194   1.937  11.468  0.0961 -0.2948 -0.5883
47520SOL    HW160170   5.113   1.959  11.422  0.1637  2.3476  0.3823
47520SOL    HW260171   5.259   1.925  11.398 -0.4213  0.8891 -1.3027
47521SOL     OW60172  12.914  10.808  11.875 -0.0360  0.1873  0.3183
47521SOL    HW160173  12.941  10.808  11.967  0.1277 -1.3084  0.2966
47521SOL    HW260174  12.966  10.738  11.835 -0.8534  0.1248 -0.6776
47522SOL     OW60175   2.514   1.180  11.671 -0.3597 -0.1552  0.4074
47522SOL    HW160176   2.490   1.270  11.694 -1.0105  0.2121 -1.5154
47522SOL    HW260177   2.435   1.145  11.629  0.5542 -0.9536 -0.6761
47523SOL     OW60178   7.662   2.779  13.451  0.0547  0.2601 -0.0400
47523SOL    HW160179   7.640   2.764  13.360  0.6839 -0.9704 -0.0049
47523SOL    HW260180   7.579   2.806  13.492 -1.2269 -3.0966 -0.1419
47524SOL     OW60181   4.150   8.187  11.569 -0.2906 -0.3957 -0.9766
47524SOL    HW160182   4.225   8.137  11.537  1.1634  0.6316  0.6438
47524SOL    HW260183   4.102   8.212  11.490  0.1288 -2.4514 -1.9552
47525SOL     OW60184   7.930   0.704   1.238  0.2556  0.1162 -0.0916
47525SOL    HW160185   7.869   0.652   1.290  1.6803 -2.5179 -0.9189
47525SOL    HW260186   7.924   0.668   1.150  1.5396  1.1554 -0.6397
47526SOL     OW60187   3.929   1.839   5.242  0.7642 -0.9980 -0.3009
47526SOL    HW160188   3.952   1.750   5.216  0.3727 -0.7187 -1.7111
47526SOL    HW260189   3.836   1.846   5.224  0.7154 -0.4135  0.1461
47527SOL     OW60190   4.863   0.364   7.350  0.1195 -0.0238  0.0566
47527SOL    HW160191   4.906   0.446   7.373  2.0634 -1.3037  1.2599
47527SOL    HW260192   4.870   0.310   7.428 -0.6178 -1.5663 -0.8792
47528SOL     OW60193  10.258  12.039   5.834  0.3832  0.6949  0.2587
47528SOL    HW160194  10.348  12.006   5.836  0.1521  0.0252 -0.0605
47528SOL    HW260195  10.213  11.990   5.903 -0.1696 -0.2976 -0.7771
47529SOL     OW60196  11.051  10.935  12.653  0.1843 -0.2149 -0.3567
47529SOL    HW160197  11.093  11.019  12.672  1.3747 -0.6250 -1.0679
47529SOL    HW260198  11.089  10.875  12.717 -0.5562 -0.2528  0.0550
47530SOL     OW60199  12.136   8.153   4.551  0.1885 -0.0630  0.4057
47530SOL    HW160200  12.109   8.063   4.535  1.2449 -0.5013  0.9609
47530SOL    HW260201  12.175   8.181   4.468 -1.3378  0.3587 -0.1929
47531SOL     OW60202  10.400   5.550   3.264  0.1060 -0.5075  0.4515
47531SOL    HW160203  10.403   5.563   3.359  0.7525 -0.3080  0.4066
47531SOL    HW260204  10.313   5.513   3.248 -0.2932  0.1492  1.0328
47532SOL     OW60205   7.633   1.696  13.065  0.1517  0.0595  0.3396
47532SOL    HW160206   7.553   1.747  13.056  0.2923  0.9587  3.1654
47532SOL    HW260207   7.646   1.656  12.979 -2.1039  1.6373 -0.8426
47533SOL     OW60208   2.932  10.104  12.717 -0.3855 -0.0152  0.2984
47533SOL    HW160209   3.021  10.081  12.691  0.2965  1.2416  1.4272
47533SOL    HW260210   2.894  10.022  12.748  0.3181 -0.5845 -0.2978
47534SOL     OW60211   0.132   5.142  13.907  0.5198  0.5767 -0.2738
47534SOL    HW160212   0.192   5.107  13.973  2.3871 -0.1810 -2.2117
47534SOL    HW260213   0.178   5.218  13.872 -0.0208  0.4703 -1.2486
47535SOL     OW60214   4.960  13.745  11.967  0.2816  0.3746 -0.0656
47535SOL    HW160215   4.895  13.678  11.945  1.8641 -0.5942 -2.1352
47535SOL    HW260216   4.944  13.816  11.905 -1.0037  1.7472  1.7349
47536SOL     OW60217   8.137  10.074   1.496  0.0243 -0.4973 -0.2436
47536SOL    HW160218   8.173  10.162   1.486  1.1403 -1.2474 -4.3761
47536SOL    HW260219   8.050  10.088   1.533  1.0621  2.0613  1.5455
47537SOL     OW60220   5.112   2.320   3.271  0.5350  0.2538 -0.2406
47537SOL    HW160221   5.163   2.398   3.291  2.2685 -0.5788 -1.2399
47537SOL    HW260222   5.036   2.354   3.223 -1.5547  1.8101  3.7408
47538SOL     OW60223   4.667   6.016   9.894  0.4045 -0.3272  0.1826
47538SOL    HW160224   4.621   5.967   9.826 -0.0795 -1.3528  1.2110
47538SOL    HW260225   4.636   6.106   9.884 -0.2619 -0.6177 -0.4478
47539SOL     OW60226   2.499  13.223   4.941  0.2599  0.3748  0.5886
47539SOL    HW160227   2.548  13.224   5.023  0.0436  0.9368  0.7147
47539SOL    HW260228   2.418  13.176   4.962  0.4050  0.1148  0.5740
47540SOL     OW60229   4.047  11.364  11.611 -0.7398 -0.1925  0.7536
47540SOL    HW160230   4.134  11.370  11.650  0.1828  0.4607 -1.3137
47540SOL    HW260231   4.053  11.292  11.548 -0.5837  2.0059 -1.9113
47541SOL     OW60232  10.466  14.052   3.987  0.3607  0.0484  0.3295
47541SOL    HW160233  10.516  14.014   3.916  1.7801 -1.4156  2.0135
47541SOL    HW260234  10.506  14.138   4.003 -0.2843  0.6004 -0.8975
47542SOL     OW60235   1.820  13.258  13.565  0.3668 -0.2273 -0.0887
47542SOL    HW160236   1.906  13.227  13.592  0.3030 -0.5542 -0.2644
47542SOL    HW260237   1.831  13.283  13.473  0.6288  1.0433  0.2626
47543SOL     OW60238   3.420   5.711   1.821  0.0866  0.3251 -0.1530
47543SOL    HW160239   3.364   5.778   1.861  1.2358  1.1743  0.0870
47543SOL    HW260240   3.405   5.632   1.872 -1.6518  0.2426 -0.7261
47544SOL     OW60241   3.389   0.542   8.461  0.0110  0.0609  0.7783
47544SOL    HW160242   3.420   0.461   8.422 -1.7452  0.5959 -2.0441
47544SOL    HW260243   3.300   0.522   8.490 -0.8269  1.1653 -0.8862
47545SOL     OW60244   6.901  10.796  13.500  0.1807 -0.2991  0.3788
47545SOL    HW160245   6.857  10.788  13.584 -0.0440  0.8440  0.3748
47545SOL    HW260246   6.896  10.889  13.478 -0.5837 -0.7075 -1.3349
47546SOL     OW60247   8.320   2.372   9.796  0.2404  0.4630  0.1173
47546SOL    HW160248   8.374   2.316   9.851 -0.2068 -1.2505 -1.0997
47546SOL    HW260249   8.264   2.419   9.858 -0.8810 -2.0542  1.1681
47547SOL     OW60250   8.070  11.876   8.610  0.0483  0.4108  0.3304
47547SOL    HW160251   7.990  11.859   8.659 -0.4369  1.5354 -0.0388
47547SOL    HW260252   8.060  11.966   8.578  1.9625  1.0256  1.2843
47548SOL     OW60253   6.691   3.417   1.243  0.3100 -0.0742 -0.0835
47548SOL    HW160254   6.775   3.372   1.244  0.5081  0.2905 -0.1113
47548SOL    HW260255   6.644   3.383   1.320  0.3602 -0.5021 -0.2388
47549SOL     OW60256   9.241   9.814  11.611 -0.0537 -0.2838 -0.0815
47549SOL    HW160257   9.173   9.881  11.616 -0.0670 -0.3236  0.2921
47549SOL    HW260258   9.193   9.731  11.614  0.0437 -0.3222  0.9503
47550SOL     OW60259   1.880   9.021  12.652  0.1586 -0.1504  0.0896
47550SOL    HW160260   1.809   9.013  12.589  1.2302 -0.5238 -1.1124
47550SOL    HW260261   1.836   9.030  12.737 -1.3245 -1.7257 -0.4521
47551SOL     OW60262   0.606   5.870  12.719  0.1930  0.2718 -0.2862
47551SOL    HW160263   0.544   5.823  12.663  0.2062  1.9635 -1.8122
47551SOL    HW260264   0.670   5.804  12.744 -1.2180 -1.0996 -0.1571
47552SOL     OW60265   1.881   6.305   1.520 -0.3395 -0.0711 -0.4885
47552SOL    HW160266   1.838   6.221   1.536 -2.2047  1.1549  1.5083
47552SOL    HW260267   1.968   6.295   1.560 -0.1225 -1.3637 -1.2278
47553SOL     OW60268   9.582   8.832   4.516  0.1890  0.9826  0.1444
47553SOL    HW160269   9.542   8.878   4.589 -1.3629 -0.3818  0.1951
47553SOL    HW260270   9.641   8.769   4.557 -0.9905 -0.0671  0.2666
47554SOL     OW60271   9.366  13.774  11.279  0.0962  0.2205 -0.6280
47554SOL    HW160272   9.310  13.725  11.218 -2.4336  1.3326  0.6620
47554SOL    HW260273   9.376  13.860  11.237 -0.3502  0.4715 -0.2317
47555SOL     OW60274   4.715   4.444   2.553 -0.0310  0.0427  0.0399
47555SOL    HW160275   4.682   4.528   2.521  0.0849  0.3921  0.8017
47555SOL    HW260276   4.782   4.468   2.618 -1.2097 -0.5864  1.5540
47556SOL     OW60277   0.631   1.809   0.087  0.0521 -0.0155  0.4284
47556SOL    HW160278   0.610   1.719   0.063  1.7399 -0.1406 -0.7449
47556SOL    HW260279   0.609   1.861   0.010 -1.7692  0.7709  1.4053
47557SOL     OW60280   4.315   2.163   3.746 -0.3474  0.0999 -0.2207
47557SOL    HW160281   4.390   2.126   3.698 -1.8330 -3.5727  0.0021
47557SOL    HW260282   4.350   2.182   3.833  0.9933  1.3696 -0.9851
47558SOL     OW60283   7.133   9.184   4.230  0.3947  0.4139 -0.4180
47558SOL    HW160284   7.115   9.163   4.321 -1.4134  2.9559 -0.0855
47558SOL    HW260285   7.227   9.202   4.228  0.2497  1.5120  1.2364
47559SOL     OW60286  11.857  12.611  13.565 -0.8394 -0.2874 -0.0238
47559SOL    HW160287  11.824  12.540  13.511 -0.4581  0.0621 -0.7303
47559SOL    HW260288  11.782  12.668  13.578 -0.8909 -0.2780 -0.3478
47560SOL     OW60289   6.604   1.646   2.009  0.5319 -0.1261 -0.1966
47560SOL    HW160290   6.620   1.626   1.917 -2.4499  0.2440 -0.8687
47560SOL    HW260291   6.566   1.734   2.009 -0.7811 -0.6464  1.2257
47561SOL     OW60292   2.729   4.407  12.799  0.4132  0.2191 -0.0470
47561SOL    HW160293   2.779   4.388  12.878 -0.5455  1.7077  0.9848
47561SOL    HW260294   2.641   4.428  12.830  0.1932  1.5787 -1.4239
47562SOL     OW60295   3.610   2.314   5.499 -0.2819 -0.0897 -0.3700
47562SOL    HW160296   3.597   2.224   5.469 -1.7423 -0.0873  0.1732
47562SOL    HW260297   3.674   2.306   5.570 -1.8606 -1.0170  1.0379
47563SOL     OW60298  10.808   4.130  10.209 -0.1288  0.0133  0.5114
47563SOL    HW160299  10.873   4.190  10.245 -1.0184  0.1292  1.9786
47563SOL    HW260300  10.857   4.051  10.188  1.3700  1.6283 -2.8229
47564SOL     OW60301   9.972  10.502   9.051  0.2385  0.7745  0.6661
47564SOL    HW160302   9.979  10.585   9.003  2.1458  0.4061  0.1899
47564SOL    HW260303  10.044  10.449   9.016  0.6085 -0.1655  2.6991
47565SOL     OW60304   1.743   7.781  11.931  0.2401  0.0574 -0.1693
47565SOL    HW160305   1.799   7.772  11.854  1.5574  0.0174  0.7635
47565SOL    HW260306   1.668   7.725  11.912 -0.7174  1.9450 -2.4755
47566SOL     OW60307   1.671   4.074   5.894 -0.1089  0.1333 -0.1639
47566SOL    HW160308   1.670   4.095   5.800 -0.8310  1.2050  0.0653
47566SOL    HW260309   1.639   4.153   5.936  0.8964 -0.0910  1.0542
47567SOL     OW60310  13.025  11.262   9.078  0.4197  0.1133  0.0278
47567SOL    HW160311  13.092  11.278   9.145  1.1986 -0.5421 -0.5653
47567SOL    HW260312  12.951  11.316   9.104 -0.3696 -2.0968  2.9275
47568SOL     OW60313   4.428  11.241  12.914  0.2903 -0.1596 -0.0722
47568SOL    HW160314   4.438  11.327  12.956  1.8315 -0.5735  0.4722
47568SOL    HW260315   4.427  11.179  12.986  0.0285 -0.6688 -0.5109
47569SOL     OW60316   4.468   0.767   3.701  0.0145  0.1105  0.4293
47569SOL    HW160317   4.408   0.834   3.732  1.3470  1.5751 -0.0266
47569SOL    HW260318   4.538   0.816   3.657  1.0471 -1.5766  0.1055
47570SOL     OW60319   1.768   6.708   4.654 -0.6742 -0.0105 -0.7096
47570SOL    HW160320   1.823   6.640   4.693 -1.0095 -0.3057 -0.7374
47570SOL    HW260321   1.679   6.684   4.680 -0.8706 -0.0178 -1.3624
47571SOL     OW60322   4.879   9.888   3.680 -0.2318 -0.3139  0.6605
47571SOL    HW160323   4.806   9.950   3.690 -0.0096 -0.0318  0.5333
47571SOL    HW260324   4.915   9.880   3.768 -0.3045 -0.3170  0.6902
47572SOL     OW60325   4.628   1.727  10.516 -0.2520  0.3009  0.0866
47572SOL    HW160326   4.724   1.719  10.512 -0.0803  1.0818  1.8440
47572SOL    HW260327   4.601   1.652  10.569 -0.2400  1.9345  2.5163
47573SOL     OW60328   6.519   2.725  13.926 -0.4969  0.7574 -0.2273
47573SOL    HW160329   6.475   2.789  13.981 -0.4154  0.2095  0.4971
47573SOL    HW260330   6.481   2.641  13.950 -0.6852  0.5301 -1.2422
47574SOL     OW60331   1.626   3.649  12.640 -0.1896  0.2215  0.4105
47574SOL    HW160332   1.648   3.576  12.698  1.2331  0.6939  0.4994
47574SOL    HW260333   1.706   3.701  12.635 -0.0276 -0.1362 -2.4527
47575SOL     OW60334   7.382  12.887   6.750  0.0907  0.2756 -0.6730
47575SOL    HW160335   7.422  12.876   6.664 -0.3656  1.5744 -1.0744
47575SOL    HW260336   7.293  12.853   6.739  0.0699  0.3313 -0.6727
47576SOL     OW60337  12.095   9.783   2.533  0.4353 -0.3835  0.2168
47576SOL    HW160338  12.052   9.699   2.544  1.3761 -0.7403  1.3483
47576SOL    HW260339  12.137   9.778   2.447 -1.7805  0.0123 -0.9568
47577SOL     OW60340   7.073  13.425   5.387 -0.1844  0.4017 -0.1570
47577SOL    HW160341   7.021  13.346   5.371 -0.5551  0.6273 -0.0779
47577SOL    HW260342   7.027  13.494   5.339 -0.2280  0.7001  0.3150
47578SOL     OW60343  12.312   3.273   6.044 -0.0182  0.1153  0.6873
47578SOL    HW160344  12.383   3.264   6.108  0.8726 -0.0066 -0.2900
47578SOL    HW260345  12.356   3.293   5.962 -1.2646  3.5511  0.6698
47579SOL     OW60346   4.352   8.939  13.247  0.1860 -0.1141 -0.8579
47579SOL    HW160347   4.330   9.008  13.184 -2.5832  0.2727  0.3853
47579SOL    HW260348   4.363   8.984  13.330  0.3932 -0.9568 -0.4160
47580SOL     OW60349  14.039  10.401   6.889 -0.1596  0.0070  0.3089
47580SOL    HW160350  14.073  10.352   6.963  0.6063 -0.4282 -0.3239
47580SOL    HW260351  14.067  10.352   6.812  0.5297  1.3583 -0.3313
47581SOL     OW60352   2.653  13.804  13.273 -0.5992 -0.1842  0.3724
47581SOL    HW160353   2.683  13.824  13.362  0.2597  0.8223 -0.1169
47581SOL    HW260354   2.717  13.847  13.216 -0.6617 -1.5067 -0.7543
47582SOL     OW60355   7.689  10.280   2.977 -0.2778  0.2189 -0.0312
47582SOL    HW160356   7.653  10.225   2.907 -2.2407  0.2414  0.8638
47582SOL    HW260357   7.744  10.221   3.028 -2.7346 -1.2087  1.1984
47583SOL     OW60358   6.093   8.010   2.937 -0.4623  0.7515  0.4486
47583SOL    HW160359   6.011   7.984   2.979 -0.4612  1.0465  0.6341
47583SOL    HW260360   6.066   8.061   2.861 -0.4514  1.0502  0.6413
47584SOL     OW60361   3.821   6.677   8.429 -0.1726 -0.1936 -0.2419
47584SOL    HW160362   3.863   6.619   8.365  1.0477  0.7335 -0.3277
47584SOL    HW260363   3.728   6.664   8.417  0.0179  0.0640 -2.3483
47585SOL     OW60364  13.224   5.245   9.650 -0.2959 -0.4890  0.6038
47585SOL    HW160365  13.146   5.272   9.698  0.9761  2.0248  1.3826
47585SOL    HW260366  13.280   5.204   9.716 -0.5257 -1.4795  0.2169
47586SOL     OW60367  11.714   2.146   0.034  0.1451 -0.4167  0.1999
47586SOL    HW160368  11.797   2.107   0.061  0.5772 -0.6610 -1.3652
47586SOL    HW260369  11.736   2.199  -0.043 -0.7573  1.4593  1.1711
47587SOL     OW60370   5.303   3.102   0.211  0.4859 -0.3945 -0.2681
47587SOL    HW160371   5.390   3.072   0.183  1.0234 -0.6291  1.5583
47587SOL    HW260372   5.320   3.181   0.261 -0.5744  0.7199 -1.5872
47588SOL     OW60373  11.774   4.471  10.478 -0.4260  0.2319 -0.4838
47588SOL    HW160374  11.833   4.515  10.418  1.4452 -0.3092  0.8740
47588SOL    HW260375  11.756   4.535  10.547  0.9277 -0.4913  0.5949
47589SOL     OW60376   2.983   7.898   1.220 -0.0166  0.1937  0.0779
47589SOL    HW160377   2.966   7.992   1.222 -1.6099 -0.0728 -0.1025
47589SOL    HW260378   2.975   7.874   1.128 -4.2362 -0.8493  0.5315
47590SOL     OW60379  10.421  10.640   0.936 -0.7543 -0.4851 -0.1266
47590SOL    HW160380  10.428  10.602   1.023  0.4972 -0.0898 -0.0349
47590SOL    HW260381  10.417  10.735   0.952  0.3943 -0.3528 -0.5135
47591SOL     OW60382  11.452   7.931   9.978  0.6724 -0.1223 -0.0764
47591SOL    HW160383  11.543   7.947   9.953  0.9103 -1.4719 -0.1595
47591SOL    HW260384  11.452   7.842  10.012 -0.6037 -0.0897  0.0639
47592SOL     OW60385  10.827   9.296   1.784  0.3609 -0.4292  0.5850
47592SOL    HW160386  10.810   9.369   1.845 -0.7304  0.0205 -0.2093
47592SOL    HW260387  10.905   9.323   1.736  0.3723 -0.1098  0.7750
47593SOL     OW60388  10.188   0.962  13.451 -0.4302  0.1314 -0.0298
47593SOL    HW160389  10.163   1.025  13.384 -1.7543 -1.2666 -0.9081
47593SOL    HW260390  10.233   0.892  13.403 -0.4522 -0.3864  0.6772
47594SOL     OW60391   4.274  12.972  11.818 -0.1694  0.3114 -0.3019
47594SOL    HW160392   4.232  12.973  11.732 -0.5396 -1.1383 -0.1753
47594SOL    HW260393   4.264  13.061  11.851  0.0060  0.8952 -1.7650
47595SOL     OW60394   8.428  10.390  11.512 -0.1175 -0.1395 -0.4294
47595SOL    HW160395   8.513  10.392  11.557 -0.2022 -0.4023 -0.2539
47595SOL    HW260396   8.441  10.443  11.434 -0.2174  1.0574  0.3379
47596SOL     OW60397   2.997  12.166  10.971  0.2786 -0.1141 -0.3995
47596SOL    HW160398   2.910  12.129  10.954 -1.3038  2.5456  1.2391
47596SOL    HW260399   3.026  12.199  10.886 -0.4494 -0.7433 -0.9008
47597SOL     OW60400   2.584   0.295   3.078 -0.0918  0.1559 -0.3037
47597SOL    HW160401   2.559   0.205   3.058 -0.9309  0.5713 -1.1693
47597SOL    HW260402   2.653   0.315   3.014  0.2869  0.0476  0.0646
47598SOL     OW60403   5.267  13.794  13.432 -0.1352  0.3559  0.0292
47598SOL    HW160404   5.301  13.878  13.398 -0.7470  0.4914 -0.2662
47598SOL    HW260405   5.315  13.728  13.383  0.3212  0.5327  0.2320
47599SOL     OW60406   4.448   4.523   8.658 -0.4561  0.9099 -0.1579
47599SOL    HW160407   4.474   4.437   8.690 -3.5752  0.3148  1.1779
47599SOL    HW260408   4.362   4.509   8.617 -0.4915  3.1855 -1.0270
47600SOL     OW60409   1.723   1.470   5.925  0.4081 -0.3380 -0.3528
47600SOL    HW160410   1.808   1.512   5.939  0.0596  0.9069 -1.7707
47600SOL    HW260411   1.661   1.526   5.972  0.2895 -0.9802  0.2781
47601SOL     OW60412   4.157   1.010   4.807  0.0925  0.1550  0.4493
47601SOL    HW160413   4.202   1.072   4.865  0.5156  0.4070 -0.1342
47601SOL    HW260414   4.228   0.963   4.763 -0.1553  1.2937 -1.2870
47602SOL     OW60415  11.600   8.823  11.362 -0.5240 -0.1632  0.1106
47602SOL    HW160416  11.676   8.800  11.416  1.1625 -1.7969 -2.6931
47602SOL    HW260417  11.553   8.741  11.349 -0.6476  0.0805 -1.1561
47603SOL     OW60418  12.431  10.740   9.721  0.0594 -0.0451 -0.0050
47603SOL    HW160419  12.479  10.816   9.688 -1.1367  0.2128 -1.2223
47603SOL    HW260420  12.389  10.702   9.644  0.1882 -1.6299  0.6693
47604SOL     OW60421   9.361  11.043  12.710  0.1099 -0.0060  0.0438
47604SOL    HW160422   9.267  11.060  12.714  0.3198  1.6228 -0.8726
47604SOL    HW260423   9.372  10.986  12.633 -0.0211  0.9572 -0.7143
47605SOL     OW60424  11.935  10.181   6.970  0.6115  0.4481  0.5513
47605SOL    HW160425  11.992  10.243   7.015 -0.4414  2.2029 -0.4016
47605SOL    HW260426  11.995  10.121   6.925  1.6595  0.5524  1.7481
47606SOL     OW60427   3.969   5.548   9.994  0.0370 -0.3716  0.2905
47606SOL    HW160428   3.907   5.485  10.031  0.0111 -1.1227 -0.9555
47606SOL    HW260429   4.025   5.495   9.937 -0.4365  0.8279 -1.3509
47607SOL     OW60430   6.489   0.829   2.778 -0.0021 -0.1290 -0.0939
47607SOL    HW160431   6.428   0.897   2.810  0.4635 -0.5855  1.9168
47607SOL    HW260432   6.488   0.839   2.683 -0.3076  2.4019  0.0980
47608SOL     OW60433   9.248  14.083   2.763 -0.2890 -0.2535  0.3027
47608SOL    HW160434   9.232  14.133   2.844  0.6066 -0.9627  0.9432
47608SOL    HW260435   9.161  14.062   2.730 -0.6815  0.9130  0.5220
47609SOL     OW60436  13.104   0.461   8.523  0.0436 -0.2415  0.0332
47609SOL    HW160437  13.083   0.486   8.433  1.4518 -1.8182 -0.7901
47609SOL    HW260438  13.177   0.518   8.548 -0.4331  0.2847  0.2317
47610SOL     OW60439  12.370  10.819   6.415 -0.2265 -0.2668  0.4687
47610SOL    HW160440  12.349  10.878   6.343 -0.1476  2.0466  2.2414
47610SOL    HW260441  12.463  10.797   6.403  0.3668  1.8061  0.9727
47611SOL     OW60442  12.567   6.300  11.996 -0.6631 -0.1072  0.3516
47611SOL    HW160443  12.478   6.274  12.018 -0.0656 -3.3628 -0.5525
47611SOL    HW260444  12.563   6.324  11.904 -0.5630 -0.6361  0.2049
47612SOL     OW60445   2.755   0.441  12.476  0.1190 -0.7540 -0.1660
47612SOL    HW160446   2.783   0.532  12.474 -0.5773 -0.5105  0.6854
47612SOL    HW260447   2.684   0.438  12.541 -0.1392 -1.8199 -0.4623
47613SOL     OW60448   9.107   8.067   2.280 -0.3182 -0.3265  0.2078
47613SOL    HW160449   9.134   8.125   2.209 -0.2885 -1.0419 -0.3717
47613SOL    HW260450   9.087   8.126   2.353  2.4533  0.3128  0.5746
47614SOL     OW60451   9.691   9.137   3.484  0.1454  0.1355 -0.7099
47614SOL    HW160452   9.629   9.124   3.413  0.3973 -2.9733 -0.4982
47614SOL    HW260453   9.711   9.048   3.515  1.8717  1.2434  1.6566
47615SOL     OW60454   4.185  10.869   0.786 -0.1240 -0.3643  0.3007
47615SOL    HW160455   4.120  10.875   0.857 -0.5080 -1.4322  0.0603
47615SOL    HW260456   4.267  10.848   0.831 -0.0448  0.4726  0.5605
47616SOL     OW60457   7.740   3.413  12.556  0.8899 -0.2520  0.0681
47616SOL    HW160458   7.741   3.417  12.651  0.8244 -0.9688  0.1049
47616SOL    HW260459   7.648   3.403  12.533  1.0585 -2.2389  0.0537
47617SOL     OW60460   2.479   5.181   4.225 -0.3606 -0.3972  0.5501
47617SOL    HW160461   2.498   5.275   4.224 -0.0628 -0.4379 -1.5023
47617SOL    HW260462   2.552   5.143   4.275 -0.0243  0.3610  0.6614
47618SOL     OW60463   3.562   2.058  13.709  0.5146  0.1117  0.3108
47618SOL    HW160464   3.643   2.107  13.721  0.5612  0.2843 -0.6518
47618SOL    HW260465   3.554   2.005  13.788  0.5444  1.5498  1.3029
47619SOL     OW60466  13.163   4.167   4.977 -0.2724 -0.0741 -0.4277
47619SOL    HW160467  13.256   4.169   5.002 -0.1036 -2.2931 -0.6981
47619SOL    HW260468  13.116   4.175   5.060  0.2127 -1.3790 -0.0091
47620SOL     OW60469  12.968   7.520   6.499  0.5407  0.6224 -0.5998
47620SOL    HW160470  12.880   7.532   6.535 -0.0132 -2.9619 -0.4201
47620SOL    HW260471  13.024   7.571   6.557 -1.1018  0.5357  1.1938
47621SOL     OW60472  10.853   3.078  12.943  0.2218  0.0159 -0.3503
47621SOL    HW160473  10.763   3.085  12.975  0.2985  1.0474 -0.3264
47621SOL    HW260474  10.846   3.092  12.848  0.1958 -1.3570 -0.5681
47622SOL     OW60475   8.938   1.327   0.360 -0.7939 -0.0174  0.0546
47622SOL    HW160476   9.007   1.301   0.421  0.9063 -1.2456 -2.2478
47622SOL    HW260477   8.866   1.358   0.417  1.0498 -0.0660  2.5897
47623SOL     OW60478   2.880  12.396   0.333 -0.3318  0.4697  0.3818
47623SOL    HW160479   2.834  12.396   0.417  0.4401 -0.9301  0.8304
47623SOL    HW260480   2.965  12.356   0.352 -0.8076 -1.5593 -1.3911
47624SOL     OW60481   3.819   6.718  13.772 -0.3379 -0.1199  0.1715
47624SOL    HW160482   3.773   6.739  13.853 -0.7287  0.7772 -0.2576
47624SOL    HW260483   3.827   6.803  13.727  0.5577 -0.4787 -0.3688
47625SOL     OW60484   4.072   9.516  12.981  0.8006  0.4132 -0.2537
47625SOL    HW160485   4.107   9.468  13.056 -1.6760 -2.5916 -0.8332
47625SOL    HW260486   4.047   9.602  13.016 -0.1583 -0.8550  2.3610
47626SOL     OW60487   6.161   3.289   5.960  0.3262 -0.7415 -0.1257
47626SOL    HW160488   6.083   3.276   6.014  1.2918  0.5632  1.6984
47626SOL    HW260489   6.129   3.338   5.884 -0.7326 -0.8461  0.2256
47627SOL     OW60490  13.976   4.953  11.167 -0.5554 -0.3627 -0.0817
47627SOL    HW160491  13.934   5.039  11.156  0.4638  0.2049  0.2502
47627SOL    HW260492  13.967   4.910  11.082 -0.2802  0.4439 -0.5266
47628SOL     OW60493   7.440  12.523   9.871 -0.0914 -0.4870 -0.3136
47628SOL    HW160494   7.439  12.550   9.779  0.7090 -1.5040 -0.6320
47628SOL    HW260495   7.521  12.562   9.906  1.1278 -2.4565 -0.8011
47629SOL     OW60496   0.132   7.275   4.362  0.1491 -0.1284  0.1975
47629SOL    HW160497   0.131   7.190   4.317  1.1982 -0.4472  0.7340
47629SOL    HW260498   0.068   7.328   4.315 -2.0624 -1.8302  1.1116
47630SOL     OW60499  12.309  11.239   9.073 -0.2726  0.1865  0.2237
47630SOL    HW160500  12.229  11.285   9.097  0.0728  0.4860  0.8351
47630SOL    HW260501  12.369  11.307   9.044 -0.7403 -0.1937 -1.7332
47631SOL     OW60502   6.785   0.170   3.413  0.4213 -0.1958 -0.3436
47631SOL    HW160503   6.863   0.146   3.363 -1.3777 -3.2009 -1.9606
47631SOL    HW260504   6.723   0.203   3.348 -0.1498  0.9652  0.7349
47632SOL     OW60505   7.264   5.032   1.468  0.2606 -0.5287  0.5755
47632SOL    HW160506   7.286   5.103   1.528  0.2793 -0.1387  0.1119
47632SOL    HW260507   7.345   4.983   1.459  0.4035 -0.2690  0.4422
47633SOL     OW60508   7.552   3.855   7.707 -0.1267  0.1294 -0.1936
47633SOL    HW160509   7.564   3.875   7.800 -0.1760  1.9991 -0.5445
47633SOL    HW260510   7.622   3.793   7.687 -0.3628 -0.6341  1.1632
47634SOL     OW60511  10.036  13.598  13.012  0.7890  0.1130  0.3272
47634SOL    HW160512  10.004  13.563  12.928 -0.2884  0.7464  0.4639
47634SOL    HW260513  10.074  13.522  13.056  2.2725 -0.0506 -1.1283
47635SOL     OW60514   4.954  13.459   4.976 -0.2326 -0.3398  0.0219
47635SOL    HW160515   5.009  13.532   4.947  1.0414 -1.3970 -0.3266
47635SOL    HW260516   4.865  13.494   4.975  0.3821  1.3342  0.2919
47636SOL     OW60517  12.628   3.685   6.785  0.0175  0.2029  0.8968
47636SOL    HW160518  12.646   3.698   6.878 -1.4757 -0.3067  1.2839
47636SOL    HW260519  12.712   3.659   6.748  0.2614 -1.5823  2.4969
47637SOL     OW60520   5.742   3.492   7.247 -0.3300 -0.4008  0.0477
47637SOL    HW160521   5.791   3.410   7.240  1.2286  0.6287 -2.2079
47637SOL    HW260522   5.669   3.483   7.186  0.8154  0.4571 -1.5190
47638SOL     OW60523   7.882  10.543   0.250  0.4108  0.1485  0.0285
47638SOL    HW160524   7.823  10.529   0.324 -0.0476  0.6086 -0.2392
47638SOL    HW260525   7.879  10.462   0.200 -0.3857  0.3436 -0.2500
47639SOL     OW60526   6.067   2.573   8.482  0.2730 -0.6966  0.0901
47639SOL    HW160527   6.130   2.560   8.553  0.5899  1.4027  0.2535
47639SOL    HW260528   6.043   2.666   8.488 -1.8019 -1.1115 -0.8308
47640SOL     OW60529   9.308   1.076  13.970 -0.3514 -0.4052 -0.5486
47640SOL    HW160530   9.254   1.148  14.002  0.5059  1.1994 -2.5012
47640SOL    HW260531   9.347   1.038  14.049 -0.1213  1.8700  0.5126
47641SOL     OW60532  12.962  13.479   9.541  0.0983 -0.6097  0.2480
47641SOL    HW160533  12.996  13.499   9.453 -0.0355 -0.9814  0.1090
47641SOL    HW260534  13.018  13.408   9.572  0.3703 -0.2383  0.6069
47642SOL     OW60535   9.018  12.552   2.426 -0.0880 -0.5216  0.2510
47642SOL    HW160536   9.044  12.516   2.342 -1.0754 -0.6377 -0.0135
47642SOL    HW260537   8.943  12.500   2.453 -1.4621  1.1898 -0.0659
47643SOL     OW60538   1.020   4.462   4.048  0.8007 -0.0492 -0.5644
47643SOL    HW160539   1.108   4.498   4.061  0.2920  1.2274 -0.5079
47643SOL    HW260540   0.975   4.479   4.132  1.0701 -2.4768  0.1443
47644SOL     OW60541  13.396   6.161   7.720 -0.3318 -0.4591 -0.3450
47644SOL    HW160542  13.314   6.123   7.753 -1.0541  0.3101 -1.1980
47644SOL    HW260543  13.386   6.255   7.736  0.3058 -0.3370 -0.6412
47645SOL     OW60544   7.070  12.303  12.387 -0.1729  0.1825  0.4305
47645SOL    HW160545   6.991  12.284  12.437 -0.2466  2.0246  1.1077
47645SOL    HW260546   7.117  12.368  12.440  0.7377  0.7135 -0.9533
47646SOL     OW60547  10.579  13.373  12.901 -0.4727 -0.0044  0.2052
47646SOL    HW160548  10.600  13.318  12.976 -1.6014  0.2517  0.7335
47646SOL    HW260549  10.652  13.435  12.895  0.0657 -0.5942  0.5300
47647SOL     OW60550   2.188   0.952   9.579 -0.2910  0.1858  0.2009
47647SOL    HW160551   2.158   0.872   9.622 -0.5743 -0.3181 -0.8842
47647SOL    HW260552   2.266   0.977   9.627 -0.8821 -0.0580  1.3209
47648SOL     OW60553   0.157   2.020   7.874 -0.0784 -0.2334  0.0913
47648SOL    HW160554   0.101   2.083   7.828 -0.4724  0.1933  1.1311
47648SOL    HW260555   0.117   1.935   7.856 -1.1542  0.0786  0.9218
47649SOL     OW60556   4.095   4.701   2.463  0.6207  0.1512  0.0381
47649SOL    HW160557   4.113   4.766   2.395  0.6313 -0.7947 -0.8825
47649SOL    HW260558   4.116   4.746   2.545 -0.1026  1.5620 -0.5092
47650SOL     OW60559  13.154   0.358   0.853 -0.5943  0.5639 -0.5975
47650SOL    HW160560  13.153   0.435   0.795 -1.2957  1.4401  0.5283
47650SOL    HW260561  13.095   0.382   0.924  0.2338 -0.4896  0.4729
47651SOL     OW60562  10.352   3.680   2.493  0.3283  0.5334 -0.2016
47651SOL    HW160563  10.301   3.599   2.488  1.5700 -0.3190  0.2986
47651SOL    HW260564  10.442   3.652   2.477  1.0226  1.5529  1.6452
47652SOL     OW60565  12.842  12.105   6.315  0.4006  0.5505 -0.2775
47652SOL    HW160566  12.782  12.167   6.274 -0.6536 -0.8716 -1.0003
47652SOL    HW260567  12.888  12.064   6.241  0.6363  0.0581  0.1358
47653SOL     OW60568   9.194  13.423  13.270 -0.0352 -0.0850  0.8122
47653SOL    HW160569   9.219  13.510  13.300  1.4604  0.9615 -2.9127
47653SOL    HW260570   9.101  13.431  13.247  0.3553  0.9161 -0.5229
47654SOL     OW60571   0.675   9.687  11.504  0.0568  0.5514  0.2507
47654SOL    HW160572   0.727   9.754  11.459 -0.0407 -0.1027 -0.8751
47654SOL    HW260573   0.736   9.643  11.563  0.6495  0.1798 -0.6268
47655SOL     OW60574  13.705   4.232   2.077 -0.3713  0.3477  0.1557
47655SOL    HW160575  13.788   4.273   2.102 -0.0575  0.8492 -1.5974
47655SOL    HW260576  13.711   4.143   2.113  0.0948  0.9641  1.6668
47656SOL     OW60577  12.825   6.171   4.231 -0.5963  0.3097 -0.5110
47656SOL    HW160578  12.763   6.197   4.162 -1.3597 -1.0079 -0.3575
47656SOL    HW260579  12.769   6.152   4.306  0.0274 -0.6099 -0.2726
47657SOL     OW60580   9.241  10.062  11.181 -0.4221  0.0938  0.1614
47657SOL    HW160581   9.284  10.073  11.097 -2.2402  0.4376 -0.7803
47657SOL    HW260582   9.151  10.091  11.166 -0.7547  0.3484  2.2773
47658SOL     OW60583   7.049   6.453   0.136  0.5174 -0.1936  0.4047
47658SOL    HW160584   7.029   6.364   0.106  1.2132 -0.2281  0.0083
47658SOL    HW260585   7.145   6.456   0.136  0.5109  0.9325 -0.7469
47659SOL     OW60586   2.013   0.563   2.179 -0.4695 -0.3362 -0.3898
47659SOL    HW160587   1.969   0.552   2.095 -0.5875 -0.4206 -0.3177
47659SOL    HW260588   1.981   0.647   2.212 -0.6621 -0.4481 -0.2877
47660SOL     OW60589  13.930   3.327   3.203 -0.0231 -0.6372  0.1663
47660SOL    HW160590  13.874   3.278   3.264  0.8708  0.4813  1.9472
47660SOL    HW260591  13.874   3.342   3.126 -1.3527 -1.6319  0.9017
47661SOL     OW60592  12.296   1.591   0.278  0.1853  0.4038 -0.4900
47661SOL    HW160593  12.290   1.556   0.367  0.4017  0.3214 -0.5079
47661SOL    HW260594  12.243   1.531   0.226  0.3646  0.2369 -0.4804
47662SOL     OW60595   9.642   1.008  10.991 -0.3987  0.1184  0.4074
47662SOL    HW160596   9.736   1.001  10.979 -0.4174  1.4497 -0.6743
47662SOL    HW260597   9.629   1.000  11.086  0.6360 -1.5529  0.4467
47663SOL     OW60598  13.919   0.447   3.552  0.2620 -0.1174  0.0584
47663SOL    HW160599  13.863   0.519   3.579  0.2440  0.2348 -0.8855
47663SOL    HW260600  13.991   0.447   3.615 -2.3068 -2.5801  3.3145
47664SOL     OW60601  13.873   6.657   6.391  0.4939  0.5147 -0.5211
47664SOL    HW160602  13.858   6.624   6.302 -1.1487  1.3719 -0.6038
47664SOL    HW260603  13.908   6.582   6.439  0.2408 -0.3054 -1.5838
47665SOL     OW60604   5.815  13.731  13.017  0.0078 -0.4131  0.0484
47665SOL    HW160605   5.895  13.695  12.979  0.9800  1.7913 -0.1150
47665SOL    HW260606   5.831  13.727  13.112 -0.2085 -1.0513  0.0658
47666SOL     OW60607   7.522   9.055   1.103  0.1542 -0.2832  0.4493
47666SOL    HW160608   7.504   8.988   1.168 -2.6371 -0.4346 -0.3903
47666SOL    HW260609   7.464   9.128   1.126  2.2567  1.4618  0.6348
47667SOL     OW60610  13.532   2.100   3.809  0.3006 -0.5174  0.2607
47667SOL    HW160611  13.561   2.136   3.893 -1.6768  0.5090  0.5651
47667SOL    HW260612  13.505   2.176   3.758  3.0799 -0.9149 -2.0872
47668SOL     OW60613   8.665   2.297   7.169  0.0792  0.2635  0.2662
47668SOL    HW160614   8.731   2.304   7.239 -2.2403 -2.0266  2.9483
47668SOL    HW260615   8.706   2.239   7.104  0.9254 -0.7204  1.6192
47669SOL     OW60616   4.057   9.543  10.246  0.1731 -0.0811  0.7856
47669SOL    HW160617   4.015   9.600  10.310 -0.0722 -0.6764  1.1508
47669SOL    HW260618   4.149   9.570  10.247 -0.1978  1.3372 -0.1401
47670SOL     OW60619  12.276   4.468   3.527 -0.1092 -0.0159  0.0899
47670SOL    HW160620  12.216   4.519   3.472 -0.7923  0.2083  1.0127
47670SOL    HW260621  12.266   4.506   3.615 -0.2718 -1.4227  0.7061
47671SOL     OW60622   9.708   3.050   1.787 -0.2642  0.5680  0.3395
47671SOL    HW160623   9.712   2.983   1.855  2.1840  0.6326  0.3341
47671SOL    HW260624   9.667   3.006   1.712 -1.8550  0.1429  1.3956
47672SOL     OW60625  10.839   3.981  13.808  0.1048 -0.3985 -0.5577
47672SOL    HW160626  10.859   3.915  13.873  0.9098 -0.8837 -1.2870
47672SOL    HW260627  10.854   3.938  13.724 -1.1079  0.1490 -1.0828
47673SOL     OW60628  12.367   3.134   8.691  0.2549 -0.3211  0.5145
47673SOL    HW160629  12.273   3.126   8.706 -0.1220  1.3604 -0.6388
47673SOL    HW260630  12.379   3.105   8.600  0.7008  0.2863  0.3717
47674SOL     OW60631   4.300   2.215  12.817 -0.6696 -0.0879  0.1018
47674SOL    HW160632   4.217   2.258  12.839 -0.0081  0.4977  1.5100
47674SOL    HW260633   4.359   2.238  12.888  1.1235  0.5805 -1.5326
47675SOL     OW60634   2.842   2.955  10.182 -0.3482 -0.2464 -0.0451
47675SOL    HW160635   2.892   2.884  10.221 -2.0339 -1.1182  0.6509
47675SOL    HW260636   2.760   2.914  10.153 -1.7898  1.5487  1.2165
47676SOL     OW60637   8.293   8.310   2.703 -0.1707 -0.1650 -0.0771
47676SOL    HW160638   8.297   8.395   2.746  1.7362 -0.6919  0.9149
47676SOL    HW260639   8.266   8.249   2.772 -1.0954 -0.4378 -0.6664
47677SOL     OW60640   2.414   4.194  14.079  0.1574 -0.6429  0.0978
47677SOL    HW160641   2.488   4.158  14.128  0.4227 -0.6705 -0.3261
47677SOL    HW260642   2.351   4.121  14.074 -0.2568 -0.3815  1.1601
47678SOL     OW60643   7.752   2.009   5.205  0.1444  0.4708 -0.9529
47678SOL    HW160644   7.746   1.917   5.178 -0.8050  0.5851 -1.1579
47678SOL    HW260645   7.675   2.050   5.167  0.5291  1.3459 -0.8030
47679SOL     OW60646   0.674   8.403   3.086 -0.1158  0.4124 -0.3201
47679SOL    HW160647   0.732   8.348   3.034  0.7239  2.2727 -1.4589
47679SOL    HW260648   0.586   8.383   3.053  0.1291 -0.4781 -0.4593
47680SOL     OW60649   1.941   9.077   2.782 -0.1770 -0.1816 -0.1622
47680SOL    HW160650   1.914   9.026   2.706  1.0180 -1.2637  0.1122
47680SOL    HW260651   2.011   9.134   2.749  0.1947 -0.4999  0.0674
47681SOL     OW60652   5.331   6.660   7.272 -0.0861 -0.1647 -0.0825
47681SOL    HW160653   5.313   6.712   7.194  0.2133  0.3733  0.1973
47681SOL    HW260654   5.274   6.583   7.264  0.4545 -0.4683 -1.1666
47682SOL     OW60655   7.011   7.103  11.884 -0.3575 -0.2622 -0.3890
47682SOL    HW160656   6.944   7.048  11.924  0.8618 -1.7506 -0.2824
47682SOL    HW260657   6.988   7.107  11.791 -1.1999  0.1857 -0.1664
47683SOL     OW60658   4.487   2.244  13.011 -0.4750  0.6053  0.3554
47683SOL    HW160659   4.475   2.324  13.062  1.3373  0.4069  1.1886
47683SOL    HW260660   4.582   2.234  13.004 -0.6699 -0.3592 -1.5395
47684SOL     OW60661  10.352  11.027   0.727 -0.0508 -0.5801 -0.0288
47684SOL    HW160662  10.343  11.060   0.637 -3.0636  1.7910  0.9692
47684SOL    HW260663  10.446  11.033   0.745  0.4594  0.2287 -2.5393
47685SOL     OW60664  11.828   2.890   0.684  0.3465  0.0075 -0.8422
47685SOL    HW160665  11.829   2.912   0.591 -0.9506 -0.3201 -0.9549
47685SOL    HW260666  11.787   2.804   0.688  0.6794 -0.1212  0.0167
47686SOL     OW60667  12.590  12.334   6.830 -0.1079  0.1383  0.1123
47686SOL    HW160668  12.601  12.240   6.819  3.1228  0.2212  1.5118
47686SOL    HW260669  12.679  12.370   6.823 -0.6151  2.5687  3.5356
47687SOL     OW60670  10.809   4.449  13.778  0.1334  0.1534 -0.2968
47687SOL    HW160671  10.893   4.435  13.821 -0.4307 -1.4574  0.3509
47687SOL    HW260672  10.823   4.419  13.688 -0.0476 -1.2733  0.1269
47688SOL     OW60673   8.085  13.094   2.318  0.2169 -0.4573 -0.5436
47688SOL    HW160674   8.107  13.003   2.340  0.5448 -0.5324 -1.1585
47688SOL    HW260675   8.073  13.137   2.403  2.1870 -0.5396 -0.1819
47689SOL     OW60676   0.487   4.278   9.016  0.1406 -0.2608 -0.6887
47689SOL    HW160677   0.486   4.373   9.025  1.3745 -0.3049  0.0629
47689SOL    HW260678   0.476   4.263   8.922 -0.6471  0.5908 -0.7512
47690SOL     OW60679   8.271   3.469   3.990  0.5432  0.2373 -0.2762
47690SOL    HW160680   8.238   3.468   4.079 -1.4346  2.0472 -0.8963
47690SOL    HW260681   8.218   3.405   3.943  1.2137 -0.3254 -0.2784
47691SOL     OW60682   4.021  12.732   3.743 -0.2048  0.2283 -0.0074
47691SOL    HW160683   4.087  12.771   3.800 -0.9791  1.8294 -0.1644
47691SOL    HW260684   3.977  12.667   3.799  2.2058 -1.7320 -0.2406
47692SOL     OW60685  13.964   6.801  13.052  0.6050  0.2239 -0.0515
47692SOL    HW160686  13.927   6.889  13.039 -3.2680 -1.2687 -0.4059
47692SOL    HW260687  13.980   6.768  12.963  1.8581  0.4311  0.0760
47693SOL     OW60688   1.102  11.650  12.618  0.1275 -0.3501 -0.1811
47693SOL    HW160689   1.035  11.612  12.561 -1.2493  0.2976  0.9555
47693SOL    HW260690   1.057  11.721  12.664  2.4358  2.5439 -1.9548
47694SOL     OW60691   2.542   0.033   3.012 -0.2141  0.3821  0.3436
47694SOL    HW160692   2.502   0.001   2.931 -0.5149  0.1248  0.5893
47694SOL    HW260693   2.604  -0.036   3.036 -0.7603  0.0357  0.7979
47695SOL     OW60694   5.301   3.871   2.183 -0.0757 -0.2513 -0.0423
47695SOL    HW160695   5.255   3.803   2.135 -0.0343 -0.1590 -0.2114
47695SOL    HW260696   5.250   3.950   2.167  1.5299  0.4133 -2.3340
47696SOL     OW60697   0.938   7.415   7.711 -0.0891  0.1260  0.6779
47696SOL    HW160698   0.871   7.477   7.738 -1.4281 -0.9919  0.0494
47696SOL    HW260699   0.904   7.330   7.737 -0.3842 -0.7848 -2.2795
47697SOL     OW60700   3.793   9.590   5.934 -0.3717  0.6942 -0.2554
47697SOL    HW160701   3.833   9.616   5.852 -1.6620  0.2874 -1.0368
47697SOL    HW260702   3.784   9.495   5.927 -2.1919  0.8511 -0.4599
47698SOL     OW60703   9.644  10.736  11.142  0.5690 -0.1536  0.2419
47698SOL    HW160704   9.651  10.721  11.047  0.4867 -0.2351  0.2492
47698SOL    HW260705   9.715  10.798  11.161 -0.0182  0.6244 -0.0403
47699SOL     OW60706   3.334   8.638   9.615  0.7543  0.5833  0.0431
47699SOL    HW160707   3.389   8.623   9.692 -0.8728 -2.1574  0.8265
47699SOL    HW260708   3.308   8.550   9.587 -2.6991  1.6709 -0.6335
47700SOL     OW60709   8.242  13.990  12.371 -0.0405 -0.0204 -1.0636
47700SOL    HW160710   8.245  13.945  12.286 -0.1623 -0.7912 -0.6646
47700SOL    HW260711   8.295  13.934  12.429  2.2583  1.8197 -1.2317
47701SOL     OW60712   4.473  14.075  11.819 -0.2446  0.2844 -0.0155
47701SOL    HW160713   4.487  14.085  11.913  1.2488  0.8032 -0.2657
47701SOL    HW260714   4.483  13.981  11.804  1.2141  0.3840  0.1342
47702SOL     OW60715   4.971   4.243   1.369 -0.4573  0.3314  0.1598
47702SOL    HW160716   4.905   4.303   1.334 -1.2958 -1.7291 -2.1227
47702SOL    HW260717   4.922   4.163   1.389  1.0308 -0.5212  0.4924
47703SOL     OW60718  10.423   5.819   3.702  0.1865 -0.0773 -0.2157
47703SOL    HW160719  10.334   5.827   3.738  0.6523 -0.4229  1.0977
47703SOL    HW260720  10.480   5.825   3.779  1.1256 -3.4659 -0.4749
47704SOL     OW60721  10.151  12.104   0.527  0.0764  0.4748  0.1077
47704SOL    HW160722  10.183  12.018   0.555 -0.9067  0.0460 -0.0718
47704SOL    HW260723  10.143  12.097   0.432  0.4252  0.9257  0.0378
47705SOL     OW60724  11.042   0.829   7.956  0.3322 -0.6870 -0.5646
47705SOL    HW160725  10.986   0.755   7.978  1.4280 -1.0707  1.0636
47705SOL    HW260726  10.986   0.906   7.970  0.0276 -1.0849  0.5225
47706SOL     OW60727   6.268  13.410  14.035 -0.2866  0.4067 -0.5519
47706SOL    HW160728   6.304  13.323  14.015  2.2916  0.9011  1.4299
47706SOL    HW260729   6.194  13.392  14.092  0.9867 -0.5351  0.9011
47707SOL     OW60730  11.520   9.477   2.843  0.3638  0.3585 -0.1828
47707SOL    HW160731  11.585   9.408   2.855 -0.7047 -0.6753 -0.0824
47707SOL    HW260732  11.491   9.467   2.752 -0.6234 -0.0944  0.1688
47708SOL     OW60733   7.580   2.738   9.917 -0.1954 -0.0198 -0.0814
47708SOL    HW160734   7.570   2.700  10.005  1.7628  1.8605  1.0445
47708SOL    HW260735   7.507   2.799   9.910  0.5709  1.0557  0.9692
47709SOL     OW60736   9.076  11.910  11.163  0.1809  0.2377 -0.1031
47709SOL    HW160737   9.101  11.942  11.249  0.1353 -1.3749  0.5564
47709SOL    HW260738   9.159  11.891  11.119  0.2194  1.5470 -0.6418
47710SOL     OW60739   0.480   6.727   2.336  0.2531 -0.0106  0.1758
47710SOL    HW160740   0.435   6.681   2.407 -1.1287  0.1721 -0.5501
47710SOL    HW260741   0.446   6.687   2.256 -1.2323  2.3979 -0.5102
47711SOL     OW60742   3.789  11.505  11.376  0.3256 -0.3291 -0.1155
47711SOL    HW160743   3.782  11.446  11.301  2.4522  0.4421 -0.9868
47711SOL    HW260744   3.703  11.547  11.382 -0.5524 -1.9368 -0.7703
47712SOL     OW60745   8.211   5.144  12.000 -0.1337  0.0932  0.1740
47712SOL    HW160746   8.171   5.072  12.048 -0.3221 -0.4651 -0.7945
47712SOL    HW260747   8.144   5.174  11.939 -0.5680  2.0637  1.5101
47713SOL     OW60748   1.783   6.762   8.183 -0.2706 -0.2996 -0.2052
47713SOL    HW160749   1.731   6.737   8.107  0.3626 -3.0875  0.1779
47713SOL    HW260750   1.871   6.731   8.163  0.6907  1.8351  0.3478
47714SOL     OW60751  11.528  13.986   9.129  0.2648 -0.5144 -0.4528
47714SOL    HW160752  11.437  14.017   9.135  0.5167  0.1795 -0.1344
47714SOL    HW260753  11.556  14.008   9.041  0.3130 -0.1831 -0.3570
47715SOL     OW60754   7.282  10.673   5.028  0.1714  0.2081  0.2589
47715SOL    HW160755   7.263  10.729   4.953 -0.1826 -0.5411 -0.2192
47715SOL    HW260756   7.364  10.707   5.064 -0.4097  1.4941  0.4235
47716SOL     OW60757   1.169   2.097   3.656  0.5028 -0.0933 -0.4708
47716SOL    HW160758   1.181   2.007   3.686 -0.2648 -0.0487 -0.0163
47716SOL    HW260759   1.097   2.131   3.708  0.8485  0.8252 -0.5634
47717SOL     OW60760   9.611   8.430   2.387  0.0288 -0.5094  0.8510
47717SOL    HW160761   9.685   8.418   2.326 -0.2426  0.6336  0.2834
47717SOL    HW260762   9.536   8.448   2.331 -0.3986 -0.2455  1.4955
47718SOL     OW60763   2.912   2.760   7.257  0.5598  0.2212 -0.3358
47718SOL    HW160764   2.948   2.711   7.331  1.3295  1.6575  0.2682
47718SOL    HW260765   2.886   2.844   7.293 -1.3250  0.0797 -1.2394
47719SOL     OW60766  13.341   7.222  10.433 -0.2106  0.0496  0.9216
47719SOL    HW160767  13.289   7.251  10.358  1.0810  0.4086  0.1343
47719SOL    HW260768  13.279   7.173  10.487 -1.3688  0.4892  0.0424
47720SOL     OW60769   5.367   7.689   5.451 -0.8038 -0.1236 -0.1089
47720SOL    HW160770   5.339   7.719   5.365 -0.5930 -1.0659 -0.5235
47720SOL    HW260771   5.288   7.651   5.491 -0.3926 -1.9983 -0.9348
47721SOL     OW60772   1.911   0.945   6.424  0.2777  0.2384 -0.3274
47721SOL    HW160773   1.961   1.021   6.454 -0.9555  2.0723 -2.6277
47721SOL    HW260774   1.821   0.961   6.455 -0.2668  0.4213 -1.9164
47722SOL     OW60775   8.169   8.457  13.781 -0.0732  0.0972 -0.1784
47722SOL    HW160776   8.215   8.384  13.738  0.6883  0.9855 -0.9033
47722SOL    HW260777   8.149   8.518  13.711  0.5424  1.2474  0.6115
47723SOL     OW60778   7.293  13.454  13.388  0.0841  0.2584 -0.0772
47723SOL    HW160779   7.269  13.495  13.471 -3.3453  0.4786 -1.0315
47723SOL    HW260780   7.249  13.508  13.321  2.1155 -0.3414 -2.0332
47724SOL     OW60781  11.877  10.935   2.217  0.5668  0.4075  0.5614
47724SOL    HW160782  11.944  10.871   2.240  2.7797  2.2804 -0.2649
47724SOL    HW260783  11.923  11.020   2.220 -1.3707  1.6279 -1.4914
47725SOL     OW60784   1.008   1.295   1.332 -0.4605 -0.7034  0.0950
47725SOL    HW160785   0.964   1.276   1.415 -0.8892 -0.5026 -0.0837
47725SOL    HW260786   1.002   1.213   1.283 -1.7870 -0.2972 -0.4410
47726SOL     OW60787   7.867   5.941  12.705 -0.3078 -0.2148  0.4638
47726SOL    HW160788   7.846   5.854  12.673 -0.2181  0.0794 -0.4136
47726SOL    HW260789   7.903   5.987  12.629 -0.6429  0.6828  0.8364
47727SOL     OW60790  13.441   4.503   6.387 -0.2197 -0.3380 -0.1566
47727SOL    HW160791  13.436   4.515   6.482 -0.8795  2.0230 -0.4285
47727SOL    HW260792  13.357   4.464   6.363 -0.4229 -0.0896  0.1456
47728SOL     OW60793  13.890   1.736   6.566  0.0201  1.0462  0.0420
47728SOL    HW160794  13.858   1.820   6.532  0.0225  0.9426 -0.2159
47728SOL    HW260795  13.817   1.702   6.618 -0.1596  0.9795 -0.2508
47729SOL     OW60796  10.265   6.811   1.998 -0.2534  0.1261  0.3867
47729SOL    HW160797  10.342   6.867   1.987  0.4255 -1.0057 -0.9780
47729SOL    HW260798  10.197   6.869   2.031 -0.1579  2.2316 -2.7848
47730SOL     OW60799  12.955   2.613  11.216  0.3784  0.7079  0.2324
47730SOL    HW160800  13.027   2.674  11.231 -0.6310  1.7990  0.8819
47730SOL    HW260801  12.948   2.606  11.121 -0.8777  3.4050  0.0414
47731SOL     OW60802  12.325  13.894   8.143 -0.3220 -0.1834 -0.0910
47731SOL    HW160803  12.305  13.804   8.170  1.0965 -0.7139 -0.6943
47731SOL    HW260804  12.419  13.904   8.161 -0.1449  0.6825 -1.3557
47732SOL     OW60805   6.716   4.047   9.893  0.0511 -0.4050  0.1540
47732SOL    HW160806   6.789   4.042   9.955 -0.9864 -1.7285  1.3272
47732SOL    HW260807   6.702   4.141   9.881  0.5396 -0.1109  1.6421
47733SOL     OW60808  14.024  10.793   4.373  0.0202 -0.0729 -0.4186
47733SOL    HW160809  14.038  10.717   4.316 -1.5427 -1.6220  1.1419
47733SOL    HW260810  13.944  10.833   4.340  0.1070  0.1006 -0.4184
47734SOL     OW60811   2.431  10.743   4.980  0.2766 -0.2873  0.3603
47734SOL    HW160812   2.365  10.741   4.911 -0.1227 -0.7781  0.7459
47734SOL    HW260813   2.405  10.673   5.040 -0.5044  1.3584  2.0262
47735SOL     OW60814   3.556  13.058   6.032 -0.2121 -0.5533 -0.1385
47735SOL    HW160815   3.629  13.001   6.054 -0.0763 -0.8962 -1.4195
47735SOL    HW260816   3.482  12.999   6.020  0.1777 -0.6292 -2.5602
47736SOL     OW60817   3.632   4.640  12.711 -0.0069 -0.1509  0.3210
47736SOL    HW160818   3.723   4.624  12.687  0.3261  0.0494  1.4089
47736SOL    HW260819   3.619   4.733  12.695 -0.6080 -0.5167 -1.6469
47737SOL     OW60820   6.419   3.224   7.645 -0.2891 -0.2460  0.1922
47737SOL    HW160821   6.457   3.161   7.585 -2.0040 -0.7559 -0.4311
47737SOL    HW260822   6.467   3.305   7.629 -0.6479 -0.3788 -1.8323
47738SOL     OW60823   8.631   8.805   2.114  0.2504 -0.3950  0.2212
47738SOL    HW160824   8.630   8.714   2.143  0.9201  0.2189  2.3279
47738SOL    HW260825   8.540   8.835   2.123  0.2093 -0.5887  0.4473
47739SOL     OW60826   6.854   3.247  12.309  0.1044  0.0162 -0.0744
47739SOL    HW160827   6.848   3.173  12.248 -1.1190 -0.6657  0.8172
47739SOL    HW260828   6.807   3.318  12.266 -0.7058 -0.4444  0.0133
47740SOL     OW60829   5.126   9.931  13.267  0.2569  0.6635 -0.4033
47740SOL    HW160830   5.212   9.960  13.238  1.1926 -2.0334 -0.6178
47740SOL    HW260831   5.106   9.987  13.342  2.3694  1.1109 -0.1085
47741SOL     OW60832   1.107   2.154  13.882  0.3756 -0.4024 -0.0649
47741SOL    HW160833   1.071   2.072  13.916 -1.9743  1.1527  1.5752
47741SOL    HW260834   1.094   2.149  13.788 -2.8843 -0.6374  0.2843
47742SOL     OW60835   1.148   7.961  13.892 -0.0533  1.0122 -0.4217
47742SOL    HW160836   1.150   8.053  13.866 -0.7428  0.6436 -1.8830
47742SOL    HW260837   1.153   7.912  13.810 -0.9626 -0.2377  0.2238
47743SOL     OW60838   4.877  13.919   4.193  0.6073  0.0188 -0.1644
47743SOL    HW160839   4.878  13.974   4.115  2.1602  0.3283  0.0485
47743SOL    HW260840   4.798  13.946   4.240 -0.0086  0.2709 -1.2948
47744SOL     OW60841   5.420  13.394  12.066  0.1735  0.3094 -0.4447
47744SOL    HW160842   5.378  13.313  12.039 -1.1007  0.8504 -0.1443
47744SOL    HW260843   5.372  13.463  12.020  1.6879  0.8743 -1.2445
47745SOL     OW60844   3.487   0.928   6.443 -0.2714 -0.8227  0.1753
47745SOL    HW160845   3.419   0.963   6.502  0.4775  1.6132 -0.2984
47745SOL    HW260846   3.509   0.843   6.481  1.6208  1.3576  4.8181
47746SOL     OW60847   4.227  13.181   6.500 -0.8094  0.1937 -1.4799
47746SOL    HW160848   4.300  13.135   6.459  0.4760  0.1283  0.7487
47746SOL    HW260849   4.172  13.111   6.537 -0.3777  0.3139 -0.5777
47747SOL     OW60850   5.113   5.301   8.079  0.2468  0.4211 -0.7758
47747SOL    HW160851   5.022   5.330   8.083  0.1103 -0.0364 -0.5196
47747SOL    HW260852   5.143   5.305   8.170  0.4567  0.4751 -0.8463
47748SOL     OW60853   4.845   2.511   1.926  0.2554 -0.1271  0.1082
47748SOL    HW160854   4.826   2.605   1.919  0.5978 -0.1039 -0.6980
47748SOL    HW260855   4.935   2.507   1.959  0.4429 -0.1564 -0.3961
47749SOL     OW60856   5.538   9.978   3.835 -0.3932  0.4804  0.7046
47749SOL    HW160857   5.538   9.884   3.817  0.9467  0.8663 -1.7233
47749SOL    HW260858   5.622   9.994   3.879 -0.5466  0.5908  0.9625
47750SOL     OW60859   9.666  14.041   9.396 -0.0979 -0.0195 -0.1372
47750SOL    HW160860   9.628  14.124   9.425 -0.8704 -1.0906  2.1619
47750SOL    HW260861   9.636  13.977   9.461  0.1362 -2.1922 -2.0533
47751SOL     OW60862   5.079   3.346   0.328  0.0992 -0.3059 -0.1511
47751SOL    HW160863   5.019   3.343   0.402  1.8890  0.0175  1.3748
47751SOL    HW260864   5.106   3.255   0.316  1.5080 -0.0949  1.1052
47752SOL     OW60865   2.954   3.776  11.820  0.1308 -0.1672  0.2968
47752SOL    HW160866   3.014   3.841  11.783 -2.6242  1.4106 -1.7457
47752SOL    HW260867   2.923   3.816  11.901  0.4560 -0.1849  0.4332
47753SOL     OW60868  13.043  12.640   4.517  0.0647 -0.0928  0.0884
47753SOL    HW160869  12.994  12.722   4.510 -1.0689 -0.7650 -0.0823
47753SOL    HW260870  13.062  12.631   4.611 -0.6999 -0.1394  0.2408
47754SOL     OW60871   2.229   7.825   2.313  0.1787  0.0691 -0.4113
47754SOL    HW160872   2.307   7.839   2.368 -0.1832 -0.2217  0.1868
47754SOL    HW260873   2.219   7.907   2.266 -1.3335  1.5909  2.3145
47755SOL     OW60874  11.502   6.537   8.732  0.0886 -0.5951 -0.0813
47755SOL    HW160875  11.443   6.515   8.804 -1.4791  1.3066 -0.6953
47755SOL    HW260876  11.553   6.457   8.718 -2.7015 -2.5689  0.1228
47756SOL     OW60877   1.100  12.942  11.979 -0.5060  0.2132  0.3215
47756SOL    HW160878   1.068  12.867  12.029 -0.4633 -1.2021 -1.6711
47756SOL    HW260879   1.022  12.978  11.936 -0.3803  0.7183  0.5092
47757SOL     OW60880  10.268   5.867  13.774  0.3463 -0.3360  0.1339
47757SOL    HW160881  10.255   5.773  13.785  0.5528 -0.5267 -1.1027
47757SOL    HW260882  10.363   5.877  13.766  0.2548 -0.1526 -0.7817
47758SOL     OW60883   9.089   6.519   7.710 -0.0872  0.1170  0.1583
47758SOL    HW160884   9.166   6.557   7.752 -0.1035 -0.0031  0.2970
47758SOL    HW260885   9.096   6.547   7.618 -0.0691  0.4061  0.2453
47759SOL     OW60886  13.262   4.407   5.842 -0.0356  0.1426 -0.2171
47759SOL    HW160887  13.356   4.387   5.849 -0.2476 -1.1602 -0.6756
47759SOL    HW260888  13.253   4.494   5.879  1.1074 -0.3664  1.3697
47760SOL     OW60889   4.286   5.613   9.978 -0.2569  0.0453  0.6362
47760SOL    HW160890   4.350   5.664  10.028  0.8353 -0.5242 -0.1329
47760SOL    HW260891   4.220   5.677   9.950  0.5955  0.8665  0.4702
47761SOL     OW60892   1.271   0.438   6.498  0.2233  0.0811  0.2295
47761SOL    HW160893   1.232   0.411   6.581 -0.1381 -0.2544 -0.0479
47761SOL    HW260894   1.215   0.510   6.469  0.4411  0.3003  0.3506
47762SOL     OW60895  11.331   2.284  11.539  0.1260  0.0270 -0.3116
47762SOL    HW160896  11.334   2.244  11.626 -2.3495  0.8095  0.2153
47762SOL    HW260897  11.413   2.333  11.532  0.3473 -0.0003  1.6307
47763SOL     OW60898   8.533   4.463   6.658 -0.1263 -0.0574 -0.3589
47763SOL    HW160899   8.617   4.497   6.626  0.1677  0.2778  0.7271
47763SOL    HW260900   8.526   4.376   6.617 -0.1012  0.6095 -1.8387
47764SOL     OW60901   3.640   7.806   7.075  0.4281  0.1018 -0.2235
47764SOL    HW160902   3.608   7.885   7.031 -0.1768 -0.0748 -0.0988
47764SOL    HW260903   3.570   7.782   7.136  1.4081  0.5880  1.1545
47765SOL     OW60904  12.022   1.443  10.012 -0.3303  0.1579 -0.3824
47765SOL    HW160905  12.073   1.523  10.021 -2.3204  1.4999 -0.2883
47765SOL    HW260906  12.020   1.406  10.100 -0.8030  0.9463 -0.0498
47766SOL     OW60907  10.056   4.298   6.215  0.4610  0.0614  0.0054
47766SOL    HW160908  10.061   4.336   6.127  1.3404  1.8591  0.7886
47766SOL    HW260909  10.143   4.311   6.252 -0.3822  0.9621  1.7674
47767SOL     OW60910  13.284   3.568   2.238 -0.3499  0.2468 -0.2692
47767SOL    HW160911  13.329   3.575   2.153 -1.1520  0.9624 -0.6436
47767SOL    HW260912  13.193   3.550   2.216 -0.4941  0.0587  0.4555
47768SOL     OW60913  13.764  13.360   0.938 -0.1423 -0.4277  0.4815
47768SOL    HW160914  13.760  13.268   0.911  0.8173 -0.5652  0.7972
47768SOL    HW260915  13.724  13.407   0.865  0.4025 -0.9972 -0.2041
47769SOL     OW60916   6.199  12.588   7.666 -0.3784  0.2351  0.4630
47769SOL    HW160917   6.238  12.516   7.617  1.6881  0.3659  1.8205
47769SOL    HW260918   6.140  12.545   7.728  0.9037 -0.3285  1.3219
47770SOL     OW60919   9.236   4.246   4.421  0.3084 -0.0177  0.7174
47770SOL    HW160920   9.255   4.162   4.379 -0.9839  0.2533 -0.4852
47770SOL    HW260921   9.262   4.312   4.357 -2.6141  0.3862 -0.2220
47771SOL     OW60922   0.282   0.306  11.680  0.2174 -0.4019  0.5013
47771SOL    HW160923   0.211   0.320  11.743 -0.4287  1.6185 -0.6005
47771SOL    HW260924   0.250   0.236  11.623 -0.2635 -0.5172  0.9106
47772SOL     OW60925  10.001  12.591   2.078  0.1225 -0.0436  0.1208
47772SOL    HW160926   9.916  12.616   2.115  1.3361  1.6290  1.9967
47772SOL    HW260927  10.032  12.520   2.135 -0.0442 -0.7189 -0.6184
47773SOL     OW60928   8.376   1.406   9.764 -0.1209  0.2763  0.0292
47773SOL    HW160929   8.416   1.491   9.749  0.6838 -0.1128 -0.1104
47773SOL    HW260930   8.450   1.348   9.784 -0.5753 -0.5485 -0.6187
47774SOL     OW60931   5.991  13.524  11.671 -0.0606  0.5102  0.0428
47774SOL    HW160932   5.946  13.593  11.622 -0.8517 -1.5688 -2.4216
47774SOL    HW260933   5.931  13.450  11.668  0.6397 -0.2909  2.8116
47775SOL     OW60934  11.592  10.358   3.274 -0.0702  0.3202  0.2484
47775SOL    HW160935  11.571  10.435   3.327 -1.0976 -0.3647  0.8598
47775SOL    HW260936  11.545  10.286   3.316 -0.7800 -0.2886 -1.5003
47776SOL     OW60937   3.100  10.264   9.685 -0.1796 -0.0023  0.3900
47776SOL    HW160938   3.084  10.298   9.597  0.3145 -0.3540  0.1621
47776SOL    HW260939   3.168  10.198   9.673  1.9556  1.8946  1.4051
47777SOL     OW60940   7.098   6.035   4.375 -0.5330 -0.3669 -0.1274
47777SOL    HW160941   7.185   6.033   4.415 -0.2863  0.8968 -0.5582
47777SOL    HW260942   7.110   5.993   4.290 -1.0279 -2.9289  0.9859
47778SOL     OW60943   7.510   1.245  12.177 -0.8370  0.0245  0.4025
47778SOL    HW160944   7.434   1.232  12.232 -0.4946  0.6851  1.0368
47778SOL    HW260945   7.486   1.204  12.093 -2.6074  1.8023 -0.0382
47779SOL     OW60946   3.495  13.776   3.763 -0.1225  0.3886  0.1308
47779SOL    HW160947   3.412  13.820   3.785  0.2274  1.2056 -0.1365
47779SOL    HW260948   3.469  13.701   3.711 -0.7600  0.1180  0.8087
47780SOL     OW60949   6.580   8.581   2.952  0.2191 -0.0414  0.2025
47780SOL    HW160950   6.603   8.490   2.933 -0.3868 -0.0949 -0.3333
47780SOL    HW260951   6.599   8.628   2.870  0.5475  0.3198  0.4814
47781SOL     OW60952   6.138   0.720  10.823  0.6682 -0.4425  0.2946
47781SOL    HW160953   6.148   0.806  10.863 -0.1342 -0.9843  1.7709
47781SOL    HW260954   6.058   0.727  10.772 -1.5195 -1.2350  3.3243
47782SOL     OW60955   8.571   2.786   7.443 -0.2325 -0.5169  0.5767
47782SOL    HW160956   8.524   2.730   7.381 -0.3346 -2.3619  2.2399
47782SOL    HW260957   8.514   2.862   7.454 -1.0593 -0.9986 -0.2139
47783SOL     OW60958  12.270   9.886   8.274 -0.7026 -0.4841 -0.4976
47783SOL    HW160959  12.364   9.902   8.284 -0.9983  0.5392  0.8579
47783SOL    HW260960  12.263   9.790   8.275  0.0046 -0.6469  3.4340
47784SOL     OW60961   0.887   7.344   2.610  0.1366  0.2917  0.3608
47784SOL    HW160962   0.794   7.334   2.590 -0.4451  0.2372  2.7118
47784SOL    HW260963   0.909   7.266   2.662  1.0001  1.1562  1.3552
47785SOL     OW60964  10.091   9.457   8.759 -0.5510  0.3716 -0.0041
47785SOL    HW160965  10.007   9.410   8.765  0.7867 -2.8816 -3.1392
47785SOL    HW260966  10.151   9.405   8.812  0.2534  0.5407 -0.7383
47786SOL     OW60967   9.744  10.453   5.527  0.1832 -0.0933  0.0135
47786SOL    HW160968   9.709  10.541   5.539 -0.2853 -0.3957  0.9201
47786SOL    HW260969   9.827  10.453   5.576 -0.4203 -0.5201  1.0553
47787SOL     OW60970   8.662   0.100  10.604  0.0608 -0.7519 -0.1557
47787SOL    HW160971   8.668   0.075  10.696  0.0315  0.7961  0.2830
47787SOL    HW260972   8.752   0.094  10.572  0.1318 -0.8981  0.0673
47788SOL     OW60973   0.217   8.118   6.570  0.6815  0.3426 -0.4270
47788SOL    HW160974   0.275   8.184   6.609  0.9465  0.9035 -1.7111
47788SOL    HW260975   0.164   8.087   6.643  2.2246  0.2061  0.6817
47789SOL     OW60976   2.805  10.870  13.421 -0.1166 -0.6088 -0.0210
47789SOL    HW160977   2.726  10.859  13.368 -0.9065  1.8087  0.5160
47789SOL    HW260978   2.823  10.783  13.455 -0.1533 -2.0463 -3.3676
47790SOL     OW60979   2.486   0.235   5.397 -0.2707  0.3545 -0.0464
47790SOL    HW160980   2.414   0.297   5.397 -2.8494 -2.3851  1.3379
47790SOL    HW260981   2.496   0.210   5.305  0.0659  1.9006 -0.4633
47791SOL     OW60982   5.358   6.833   5.984  0.5098 -0.7649  0.3447
47791SOL    HW160983   5.271   6.793   5.987 -0.6082  1.1571 -2.0646
47791SOL    HW260984   5.376   6.845   5.890  1.3857  2.7836  0.7886
47792SOL     OW60985  13.859   8.700   3.072  0.2593  0.2908  0.2952
47792SOL    HW160986  13.802   8.624   3.087  0.6357  0.4181  2.7102
47792SOL    HW260987  13.881   8.695   2.979 -0.6700 -1.8767  0.1294
47793SOL     OW60988   7.990   9.841   6.987 -0.0697  0.2799 -0.3162
47793SOL    HW160989   7.922   9.908   6.987 -0.3606 -0.0143 -0.2419
47793SOL    HW260990   8.052   9.869   7.055 -0.4032  0.2558 -0.0014
47794SOL     OW60991   0.252  10.331   9.558 -0.4774  0.1697  0.1044
47794SOL    HW160992   0.208  10.401   9.606 -0.7512 -0.3067  0.5640
47794SOL    HW260993   0.287  10.273   9.626  1.3732  0.8179 -0.2306
47795SOL     OW60994  11.704   9.740   8.403  0.4018 -0.1644  0.2752
47795SOL    HW160995  11.698   9.754   8.308  0.3778  2.1370  0.5523
47795SOL    HW260996  11.731   9.649   8.412 -0.7033 -0.7852 -1.9005
47796SOL     OW60997   0.964  12.248   8.454  0.1181  0.1038 -0.4690
47796SOL    HW160998   1.005  12.164   8.435  2.4554  1.1440 -0.2793
47796SOL    HW260999   0.871  12.234   8.432  0.7599 -1.9401 -2.2605
47797SOL     OW61000   0.724  12.146  11.200 -0.2505  0.3721  0.1106
47797SOL    HW161001   0.817  12.128  11.185 -0.3581  0.4944 -0.7522
47797SOL    HW261002   0.691  12.067  11.243 -0.4279 -1.0431 -2.4616
47798SOL     OW61003   8.995   6.877   3.826 -0.1371  0.3038 -0.1799
47798SOL    HW161004   8.952   6.950   3.782  0.6578  0.6911 -0.3282
47798SOL    HW261005   9.068   6.916   3.872  0.7348 -0.4813 -0.8467
47799SOL     OW61006   6.514  12.137  10.159  0.3056  0.3842  0.3546
47799SOL    HW161007   6.485  12.089  10.237 -2.4338 -1.3686 -1.5441
47799SOL    HW261008   6.596  12.095  10.135 -0.0201 -0.6737  1.0065
47800SOL     OW61009   7.590   5.889   2.806  0.3339  0.3772  0.5620
47800SOL    HW161010   7.500   5.916   2.825  0.5514  1.1558  0.5025
47800SOL    HW261011   7.580   5.824   2.736 -0.2285 -0.1147  1.0825
47801SOL     OW61012  12.202   2.540  11.551  0.0256  0.2533 -0.0892
47801SOL    HW161013  12.136   2.586  11.499  0.5162  0.8313 -0.2083
47801SOL    HW261014  12.153   2.473  11.598 -0.8602  1.5361  0.8597
47802SOL     OW61015   4.217  11.628   8.499 -0.0765  0.2574  0.2771
47802SOL    HW161016   4.235  11.582   8.581  1.4156 -0.7657 -0.5765
47802SOL    HW261017   4.134  11.673   8.514 -0.6530 -1.2196  1.7928
47803SOL     OW61018   5.824  13.419   3.091  0.0938 -0.2677  0.0645
47803SOL    HW161019   5.902  13.367   3.108 -0.9877 -2.5004 -1.2609
47803SOL    HW261020   5.751  13.362   3.115 -1.1794  1.6577  1.0706
47804SOL     OW61021  13.106   7.597  13.106 -0.3270 -0.6886 -0.0213
47804SOL    HW161022  13.098   7.682  13.150  1.0625 -0.3691 -0.3489
47804SOL    HW261023  13.017   7.576  13.080 -0.7844  0.4034  0.5571
47805SOL     OW61024  12.249  13.093   3.046  0.2375  0.2245 -0.6150
47805SOL    HW161025  12.291  13.173   3.077  0.4020  0.1381 -0.6108
47805SOL    HW261026  12.313  13.053   2.988  1.3184 -1.2836  1.4837
47806SOL     OW61027   5.810   6.060   4.868 -0.4757 -0.4172 -0.0631
47806SOL    HW161028   5.786   6.105   4.787  0.1667 -0.8427 -0.5002
47806SOL    HW261029   5.748   5.988   4.874 -0.5533 -0.3585 -0.1496
47807SOL     OW61030  13.754  13.434  13.146  0.2204  0.0263  0.0574
47807SOL    HW161031  13.661  13.413  13.141 -0.0242  1.2135 -1.1245
47807SOL    HW261032  13.757  13.530  13.144  1.5009  0.0139 -1.7911
47808SOL     OW61033   2.212  12.122  13.118  0.3744  0.4315 -0.1660
47808SOL    HW161034   2.280  12.170  13.166  1.1166 -1.2951  0.5900
47808SOL    HW261035   2.206  12.167  13.034  0.1489  2.5874  0.9223
47809SOL     OW61036   3.239   8.797   3.311 -0.0220 -0.4320  0.3731
47809SOL    HW161037   3.334   8.809   3.307  0.0878 -1.4440 -0.5954
47809SOL    HW261038   3.210   8.806   3.220 -0.9002  0.1242  0.6925
47810SOL     OW61039   3.132   6.981   9.675  0.1160  0.4855  0.1146
47810SOL    HW161040   3.227   6.975   9.687  0.0209 -0.8245  0.3218
47810SOL    HW261041   3.122   7.014   9.586  0.8327 -2.9998 -1.4482
47811SOL     OW61042   3.254   0.392   6.908 -0.2226  0.4918 -0.2930
47811SOL    HW161043   3.201   0.443   6.847 -0.7182  0.5499  0.1836
47811SOL    HW261044   3.298   0.327   6.853 -2.2820 -0.8406 -0.4606
47812SOL     OW61045  10.228  10.974   9.264 -0.1818  0.3270  0.3966
47812SOL    HW161046  10.224  10.910   9.334 -0.6212  3.2249  3.2818
47812SOL    HW261047  10.282  11.045   9.300  1.3468  1.1002 -3.0569
47813SOL     OW61048  10.201  13.832   7.708  0.0014  0.1676  0.1685
47813SOL    HW161049  10.225  13.869   7.623  0.9820 -1.5280 -0.3455
47813SOL    HW261050  10.281  13.788   7.738 -0.5938 -0.0149  1.5589
47814SOL     OW61051   2.003   2.519   1.117 -0.1995  0.0428  0.1954
47814SOL    HW161052   1.943   2.519   1.042 -0.1604  0.0357  0.1644
47814SOL    HW261053   2.085   2.485   1.082  0.4501  1.9713 -0.2506
47815SOL     OW61054   2.672  10.327   7.646 -0.2746  0.2292  0.3228
47815SOL    HW161055   2.714  10.375   7.718  1.7602 -1.2214  0.1956
47815SOL    HW261056   2.731  10.338   7.572 -1.8376  0.8655 -0.8820
47816SOL     OW61057   5.759   5.751   1.226 -0.3486 -0.5421 -0.5534
47816SOL    HW161058   5.767   5.728   1.318  0.8720  1.0441 -0.2254
47816SOL    HW261059   5.669   5.726   1.203 -0.6308 -1.0879  1.0061
47817SOL     OW61060   2.204   1.462  11.230  0.3670  0.0420 -0.4292
47817SOL    HW161061   2.278   1.482  11.288  1.3864  0.2431 -1.7649
47817SOL    HW261062   2.234   1.485  11.143 -1.1328 -0.2957 -1.0724
47818SOL     OW61063   1.237  10.262  13.369  0.0227  0.5626 -0.9862
47818SOL    HW161064   1.187  10.343  13.376 -0.5035  0.1247  0.7614
47818SOL    HW261065   1.209  10.225  13.285 -0.4395  1.7174 -1.3660
47819SOL     OW61066   0.429   1.776   2.705  0.2099 -0.6852 -0.0821
47819SOL    HW161067   0.460   1.867   2.696 -0.1669 -0.7096 -1.9510
47819SOL    HW261068   0.488   1.738   2.770  0.1842  0.9749  0.9865
47820SOL     OW61069   0.238   2.261  10.974  0.5651 -0.1482  0.5097
47820SOL    HW161070   0.166   2.271  11.036 -1.3950 -0.3940 -1.5913
47820SOL    HW261071   0.214   2.184  10.922  1.3933  0.8599 -1.4650
47821SOL     OW61072   5.560   3.843  13.403  0.7215 -0.3971 -0.3589
47821SOL    HW161073   5.540   3.757  13.441 -1.4730 -0.0806 -0.6301
47821SOL    HW261074   5.555   3.903  13.477  0.4691 -0.2862 -0.4649
47822SOL     OW61075  13.531   4.879   2.798 -0.4222 -0.4861 -0.0414
47822SOL    HW161076  13.439   4.889   2.822 -0.6736  0.5256 -1.2963
47822SOL    HW261077  13.547   4.949   2.734  1.5119  0.0776  0.9744
47823SOL     OW61078   1.100   9.047   5.142 -0.1183  0.0773  0.1922
47823SOL    HW161079   1.164   9.074   5.208  0.6872  2.7008 -1.5460
47823SOL    HW261080   1.023   9.021   5.194  1.1327  0.1389  2.1981
47824SOL     OW61081   0.879   8.337   3.348  0.0786 -0.0904 -0.6272
47824SOL    HW161082   0.893   8.273   3.278 -0.9883  0.4325 -1.3570
47824SOL    HW261083   0.916   8.296   3.426 -0.9629 -1.8005 -0.9660
47825SOL     OW61084  10.411   5.025   2.268  0.2557  0.6062 -0.7608
47825SOL    HW161085  10.359   4.945   2.269 -0.9176  1.3101  1.7168
47825SOL    HW261086  10.481   5.009   2.331  0.2985  1.3694 -0.6093
47826SOL     OW61087   4.870  12.892   1.230 -0.1099 -0.6004 -0.9307
47826SOL    HW161088   4.888  12.809   1.186 -0.9121 -0.8673 -0.7706
47826SOL    HW261089   4.779  12.912   1.209 -0.7900 -1.1503  1.2102
47827SOL     OW61090   2.724  10.904   1.172 -0.2039 -0.1525 -0.2600
47827SOL    HW161091   2.814  10.889   1.144 -0.4413 -1.2363 -0.4817
47827SOL    HW261092   2.722  10.874   1.263  0.0271  1.3387  0.2690
47828SOL     OW61093  13.820   1.937  11.283  0.1499  0.4408 -0.3105
47828SOL    HW161094  13.746   1.877  11.290  0.6308 -0.2823 -1.2453
47828SOL    HW261095  13.780   2.024  11.289 -0.6559  0.0479  0.1751
47829SOL     OW61096   7.286   1.227  12.332 -0.0259 -0.2984 -0.0970
47829SOL    HW161097   7.341   1.153  12.358 -1.8245 -1.8191 -0.4224
47829SOL    HW261098   7.209   1.221  12.389 -0.9366  0.3601 -1.2170
47830SOL     OW61099   4.447   6.920  12.092  0.7030  0.4760 -0.1772
47830SOL    HW161100   4.484   7.002  12.059 -0.8583  2.1272  1.8990
47830SOL    HW261101   4.432   6.936  12.186 -0.9201 -1.6845  0.0182
47831SOL     OW61102  13.924   1.332   6.778 -0.2328 -0.1848  0.6190
47831SOL    HW161103  13.982   1.302   6.708 -0.0644  0.9179  0.2612
47831SOL    HW261104  13.845   1.362   6.732 -0.2761  0.1933  0.9329
47832SOL     OW61105   1.857   9.766   0.833  0.2106  0.0520 -0.2817
47832SOL    HW161106   1.762   9.752   0.830  0.1970  0.3453 -1.6188
47832SOL    HW261107   1.869   9.854   0.799  1.0758 -0.6058 -1.7587
47833SOL     OW61108   2.845  11.040   8.208  0.5972 -0.2058  0.4872
47833SOL    HW161109   2.778  10.983   8.169 -0.7145  0.4617  1.6475
47833SOL    HW261110   2.907  11.057   8.137 -0.7639 -0.4111 -0.7999
47834SOL     OW61111   8.360   9.735   9.919  0.0819 -0.3289 -0.0329
47834SOL    HW161112   8.293   9.757   9.854 -1.1166  0.8587  1.5012
47834SOL    HW261113   8.417   9.811   9.920 -0.1794 -0.1345  0.6069
47835SOL     OW61114   0.694   6.449  10.245  0.4068 -0.0132  0.1867
47835SOL    HW161115   0.611   6.489  10.221  1.5186  1.2825 -1.7005
47835SOL    HW261116   0.672   6.356  10.259 -1.3063  0.2455 -0.5248
47836SOL     OW61117   9.781  13.446   1.758 -0.2503 -0.1054 -0.2120
47836SOL    HW161118   9.736  13.530   1.753 -1.6375 -0.7956  0.1010
47836SOL    HW261119   9.834  13.452   1.838  1.9283  1.4799 -1.6784
47837SOL     OW61120  11.067   0.152   1.106  0.5800 -0.6633  0.2041
47837SOL    HW161121  11.107   0.081   1.157 -2.7637 -1.9413  1.3389
47837SOL    HW261122  11.030   0.108   1.029 -0.0072  0.1346  0.0115
47838SOL     OW61123   6.161   1.524   0.087 -0.3421 -0.4154  0.0200
47838SOL    HW161124   6.174   1.476   0.168 -0.3536 -1.4145 -0.5519
47838SOL    HW261125   6.088   1.583   0.105  0.0900 -0.1463  0.9301
47839SOL     OW61126   5.508   0.288   3.952 -0.5387 -0.4374  0.3872
47839SOL    HW161127   5.445   0.229   3.910 -1.2253  0.8745 -0.5019
47839SOL    HW261128   5.569   0.230   3.997  0.5807 -2.0539 -2.8387
47840SOL     OW61129   5.355   1.316  10.489 -0.2077 -0.1979 -0.3077
47840SOL    HW161130   5.365   1.299  10.583  1.5224 -0.3109 -0.4807
47840SOL    HW261131   5.431   1.274  10.449 -0.7624  0.1106 -1.7401
47841SOL     OW61132  12.007   4.989   2.751  0.1839  0.3195 -0.8871
47841SOL    HW161133  12.014   4.923   2.682  1.3143  1.6345 -2.0930
47841SOL    HW261134  11.921   4.974   2.791  1.0998 -2.9753  0.0925
47842SOL     OW61135  11.536   0.141   9.658  0.3784 -0.4082  0.1916
47842SOL    HW161136  11.551   0.119   9.750 -0.7961 -1.7513  0.0771
47842SOL    HW261137  11.619   0.181   9.630  1.7441 -2.4328  1.0968
47843SOL     OW61138   1.183   7.742   3.348 -0.6393 -0.4474  0.1053
47843SOL    HW161139   1.138   7.794   3.282 -0.2681 -0.0614  0.1560
47843SOL    HW261140   1.268   7.720   3.308 -0.6490 -0.7101  0.2231
47844SOL     OW61141   1.247   4.179  12.563  0.7265  0.1717 -0.2647
47844SOL    HW161142   1.295   4.159  12.644  1.4348 -0.4355 -0.8172
47844SOL    HW261143   1.310   4.162  12.493  0.0034  0.3173 -0.9690
47845SOL     OW61144  10.730   4.560   6.346  0.1222  0.0588 -0.6209
47845SOL    HW161145  10.760   4.593   6.430  0.8690 -0.1744 -0.7882
47845SOL    HW261146  10.676   4.630   6.310 -2.0183 -0.6561  0.9968
47846SOL     OW61147  11.189  13.375   8.186  0.2415  0.7573 -0.1830
47846SOL    HW161148  11.228  13.440   8.245  0.4711  0.7538 -0.3302
47846SOL    HW261149  11.141  13.316   8.244 -1.1676  1.8668 -0.1638
47847SOL     OW61150  11.859   5.986   2.240  0.0752 -0.0598  0.5823
47847SOL    HW161151  11.905   6.043   2.301  1.2292 -1.2126  0.8227
47847SOL    HW261152  11.925   5.961   2.175 -1.3341  1.9644 -1.8549
47848SOL     OW61153   9.667   6.266   3.880 -0.5899 -0.6521  0.1437
47848SOL    HW161154   9.713   6.256   3.963 -0.5659 -1.1474  0.0781
47848SOL    HW261155   9.603   6.335   3.896 -0.0245 -0.1623  0.3212
47849SOL     OW61156   7.531  12.142   5.632 -0.1429  0.1360 -0.0311
47849SOL    HW161157   7.467  12.163   5.563  0.7840  0.8953 -0.6909
47849SOL    HW261158   7.505  12.199   5.705  1.0426  2.1405 -1.0619
47850SOL     OW61159  11.411   9.976  12.996  0.8038 -0.6242  0.6315
47850SOL    HW161160  11.356   9.986  13.074 -0.2317 -1.4743  0.0414
47850SOL    HW261161  11.355  10.003  12.923  1.5893 -0.3275  0.1216
47851SOL     OW61162   1.970   3.243   1.406 -0.0380  0.2134  0.0073
47851SOL    HW161163   1.911   3.237   1.481 -1.4932  0.3184 -1.0832
47851SOL    HW261164   2.024   3.320   1.424 -0.1780  0.0803  1.0588
47852SOL     OW61165   0.300   5.864   9.258 -0.0342 -0.1681 -0.1483
47852SOL    HW161166   0.236   5.828   9.196  0.2278 -0.0149 -0.5126
47852SOL    HW261167   0.379   5.878   9.206 -0.3083  1.5071 -0.1816
47853SOL     OW61168   3.046  11.856   4.983 -0.2101  0.8137  0.1667
47853SOL    HW161169   3.131  11.894   5.008 -0.9544  1.6728  1.4691
47853SOL    HW261170   2.990  11.932   4.968 -0.6397  0.2558 -1.2000
47854SOL     OW61171   1.539   5.365   7.881  0.0214  0.0371  0.7514
47854SOL    HW161172   1.475   5.431   7.856 -0.3844 -0.6038  0.0856
47854SOL    HW261173   1.575   5.333   7.798  0.6737 -0.1367  1.0904
47855SOL     OW61174   9.563  12.823  10.486 -0.1091  0.0184  0.0647
47855SOL    HW161175   9.652  12.818  10.452  0.3667  0.1307  1.2529
47855SOL    HW261176   9.509  12.786  10.416  0.9268 -0.6641 -0.4076
47856SOL     OW61177   4.980   5.727  11.932 -0.3284  0.4576 -0.3040
47856SOL    HW161178   4.965   5.773  11.849 -2.2074  1.5354  0.5676
47856SOL    HW261179   4.899   5.678  11.947  0.4185 -0.6022  0.3600
47857SOL     OW61180   2.310   8.667   5.323 -0.2565 -0.0838 -0.1521
47857SOL    HW161181   2.233   8.716   5.353 -1.1399 -1.5169  0.0142
47857SOL    HW261182   2.299   8.580   5.362  1.9810 -0.0341  0.7136
47858SOL     OW61183   2.396   5.888   5.264  0.5198  0.1597 -0.6094
47858SOL    HW161184   2.393   5.984   5.261 -0.7087  0.1529 -0.0856
47858SOL    HW261185   2.385   5.867   5.357  0.4608 -0.5025 -0.7655
47859SOL     OW61186   1.673   0.312  13.452  0.1945 -0.1836 -0.3233
47859SOL    HW161187   1.678   0.373  13.526  1.6179  1.2330 -1.4992
47859SOL    HW261188   1.763   0.306  13.420 -0.2569 -1.4057 -1.4297
47860SOL     OW61189   8.351  14.044   8.741 -0.2115 -0.2101 -0.2357
47860SOL    HW161190   8.370  13.960   8.783  0.9415 -0.7666 -1.7704
47860SOL    HW261191   8.418  14.103   8.776 -0.5662 -0.1146  0.2894
47861SOL     OW61192   4.034   8.856   8.078  1.0042  0.2695 -0.4924
47861SOL    HW161193   3.975   8.930   8.098  2.1681  0.9828  0.4680
47861SOL    HW261194   4.013   8.790   8.144 -0.1828 -0.3792 -1.4791
47862SOL     OW61195   5.995  13.968  10.618  0.0804 -0.1420  0.7986
47862SOL    HW161196   6.002  14.038  10.553 -1.7541 -1.7785 -1.3236
47862SOL    HW261197   5.976  14.013  10.700 -1.8822  1.8513 -0.6388
47863SOL     OW61198   5.619   7.116   3.028 -0.2348  0.3105  0.2025
47863SOL    HW161199   5.526   7.120   3.010 -0.5962  2.1424  2.0515
47863SOL    HW261200   5.625   7.087   3.119  0.9664  0.6377  0.2526
47864SOL     OW61201   9.132   4.456  12.289 -0.3513 -0.1928 -0.1561
47864SOL    HW161202   9.119   4.401  12.367 -1.6428  0.8861  0.4204
47864SOL    HW261203   9.179   4.532  12.321 -1.4537  0.5620 -0.2666
47865SOL     OW61204   3.730  12.671   3.951 -0.4544  0.3793  0.3424
47865SOL    HW161205   3.666  12.725   3.996 -0.2870  0.7121  0.1873
47865SOL    HW261206   3.815  12.705   3.981 -0.3423 -0.9794  1.6494
47866SOL     OW61207  12.785   6.017   9.904  0.9301  0.1658  0.4563
47866SOL    HW161208  12.821   6.036   9.990  1.5196  1.4283 -0.0341
47866SOL    HW261209  12.796   6.099   9.855  2.3114 -1.0466 -1.4070
47867SOL     OW61210   0.837   8.184  10.339  0.8563  0.4719 -0.2870
47867SOL    HW161211   0.891   8.245  10.389  2.2554 -0.4169 -0.6766
47867SOL    HW261212   0.867   8.098  10.366 -0.9250 -0.0905  0.0737
47868SOL     OW61213   0.413   9.619   3.075  0.1597  0.5581 -0.2424
47868SOL    HW161214   0.412   9.627   2.980  0.0588  0.3830 -0.2564
47868SOL    HW261215   0.430   9.526   3.091  1.4153  0.7892 -0.0879
47869SOL     OW61216  13.308   1.841   7.239 -0.0167  0.2591 -0.1672
47869SOL    HW161217  13.292   1.922   7.189  0.1936  0.8418  0.6760
47869SOL    HW261218  13.319   1.773   7.173  0.2302  1.0056 -0.9083
47870SOL     OW61219   4.643   3.964   6.357 -0.1105  0.0233 -0.3787
47870SOL    HW161220   4.664   3.882   6.402 -1.1512  0.9926  2.1008
47870SOL    HW261221   4.553   3.954   6.328  0.7697 -0.8545 -3.0367
47871SOL     OW61222  12.798   8.249   7.568  0.2663  0.1852 -0.0380
47871SOL    HW161223  12.795   8.341   7.543 -2.3046 -0.0174 -0.8519
47871SOL    HW261224  12.868   8.211   7.516  1.0592  1.5911 -0.0178
47872SOL     OW61225   7.254   5.485  12.455 -0.1485 -0.3339 -0.1788
47872SOL    HW161226   7.305   5.547  12.403  1.8439 -1.4711  0.3473
47872SOL    HW261227   7.163   5.510  12.438  0.5317  1.5014 -1.4707
47873SOL     OW61228   9.862   9.923  13.221  0.4387 -0.2903 -0.1374
47873SOL    HW161229   9.899   9.835  13.213  0.5829 -0.1456 -1.1854
47873SOL    HW261230   9.919   9.967  13.284 -0.4983 -1.3745  1.5406
47874SOL     OW61231   0.841  13.231   6.782  0.2404 -0.1775 -0.1340
47874SOL    HW161232   0.835  13.291   6.707 -0.3641  0.0811  0.1119
47874SOL    HW261233   0.932  13.203   6.783 -0.0323 -1.2195 -1.7616
47875SOL     OW61234   4.910  13.552  10.315  0.6885  0.8159 -0.1430
47875SOL    HW161235   4.872  13.636  10.290  1.9952  1.2792 -0.6523
47875SOL    HW261236   4.841  13.488  10.296 -0.0408  1.6812 -0.4918
47876SOL     OW61237   6.938  12.811  13.812 -0.4837 -0.9869  0.6378
47876SOL    HW161238   6.918  12.799  13.905  0.0507 -0.0327  0.8942
47876SOL    HW261239   7.004  12.881  13.811 -0.9374 -0.5512 -0.4947
47877SOL     OW61240   0.409   5.304   0.614 -0.3711  0.2855  0.6162
47877SOL    HW161241   0.340   5.329   0.553  0.3680  1.2652  0.1447
47877SOL    HW261242   0.478   5.368   0.599  0.6677 -0.7050  1.0332
47878SOL     OW61243   0.422   8.266  12.961  0.0241 -0.5706  0.9062
47878SOL    HW161244   0.415   8.308  13.047 -1.2177  0.1999  0.4495
47878SOL    HW261245   0.339   8.220  12.950 -0.8069  1.1974 -0.8146
47879SOL     OW61246  10.029   6.950   1.187 -0.4900 -0.0101  0.6722
47879SOL    HW161247   9.994   6.885   1.248  0.7897 -0.0698  1.3848
47879SOL    HW261248  10.053   7.024   1.243  1.3424 -0.3282  0.3704
47880SOL     OW61249  10.788   2.472   4.052 -0.3705 -0.3004 -0.7943
47880SOL    HW161250  10.705   2.492   4.009 -0.8071  1.8200  0.8889
47880SOL    HW261251  10.849   2.538   4.018  0.1320 -0.6428 -0.5680
47881SOL     OW61252   0.629   1.440   6.962  0.4794 -0.6597 -0.1403
47881SOL    HW161253   0.580   1.412   6.884  0.7241  1.6199 -1.1826
47881SOL    HW261254   0.562   1.473   7.021  0.4794 -0.4112 -0.2776
47882SOL     OW61255   1.029   6.541   6.375 -0.2176  0.7962  0.5417
47882SOL    HW161256   0.952   6.502   6.418  1.3235 -0.9211  1.8780
47882SOL    HW261257   0.993   6.614   6.324 -2.4785  1.3364  2.7311
47883SOL     OW61258   4.964  13.802  14.021 -0.6593 -0.1545  0.2785
47883SOL    HW161259   4.980  13.896  14.013 -0.4500 -0.0019  2.0811
47883SOL    HW261260   5.035  13.761  13.971 -0.9476  0.6385 -0.7993
47884SOL     OW61261   5.131   0.357   6.985 -0.0284 -0.3941  0.3044
47884SOL    HW161262   5.052   0.328   6.939  0.8773  0.9333 -2.2575
47884SOL    HW261263   5.202   0.309   6.942  0.8898  1.0946  0.1238
47885SOL     OW61264  10.924   3.607   6.938 -0.6156 -0.1012  0.4089
47885SOL    HW161265  10.941   3.615   7.032  0.9943 -2.1280  0.3343
47885SOL    HW261266  10.912   3.698   6.909  1.2098  0.7759  2.1527
47886SOL     OW61267   3.222   1.272  13.266  0.1701 -0.0517  0.0830
47886SOL    HW161268   3.215   1.195  13.323  1.2265 -0.0696  0.2038
47886SOL    HW261269   3.147   1.264  13.207 -2.0878  0.9510  2.6030
47887SOL     OW61270   9.859   9.449   0.864 -0.2358 -0.0297 -0.2403
47887SOL    HW161271   9.811   9.392   0.803 -0.5665  0.4071 -0.3949
47887SOL    HW261272   9.803   9.454   0.941 -0.0262 -0.2228 -0.0767
47888SOL     OW61273   9.201   5.332  11.690  0.1113 -0.0199 -0.9317
47888SOL    HW161274   9.201   5.364  11.599 -1.6036  0.8975 -0.6443
47888SOL    HW261275   9.275   5.377  11.731  0.0862  0.5894 -1.5310
47889SOL     OW61276  12.906  10.939   3.364  0.0368 -0.8806  0.0263
47889SOL    HW161277  12.975  10.892   3.411  0.5612  1.1737  1.4629
47889SOL    HW261278  12.857  10.984   3.432  0.3233  1.5869 -1.2765
47890SOL     OW61279   1.527   6.706   4.075  0.3293 -0.1599  0.4518
47890SOL    HW161280   1.537   6.798   4.052 -1.5223  0.1040  0.5215
47890SOL    HW261281   1.531   6.705   4.171 -2.1919  0.2794  0.6260
47891SOL     OW61282   2.775   5.037   1.018 -0.0930  0.1319 -0.3820
47891SOL    HW161283   2.839   4.968   1.000  0.4353  0.1313  1.3636
47891SOL    HW261284   2.821   5.098   1.075 -1.2372  0.8109 -0.1654
47892SOL     OW61285  12.026  10.388  11.621  0.0459  0.4080 -0.2468
47892SOL    HW161286  12.004  10.417  11.533  1.6264  0.5443 -0.6151
47892SOL    HW261287  12.121  10.396  11.627  0.0330 -0.1395  1.2788
47893SOL     OW61288   8.571   8.464  13.368  0.1521 -0.0965 -0.2889
47893SOL    HW161289   8.658   8.446  13.406  0.2401  1.2876  0.2287
47893SOL    HW261290   8.510   8.440  13.438  0.1549 -0.3900 -0.3867
47894SOL     OW61291   0.558   3.156   6.719  0.2603  0.4999 -0.3912
47894SOL    HW161292   0.538   3.200   6.637 -2.0301  0.0988 -0.1118
47894SOL    HW261293   0.624   3.090   6.695 -1.2556 -0.4551 -2.1910
47895SOL     OW61294   8.982   7.399   0.395  0.0686 -0.1504 -0.1329
47895SOL    HW161295   9.021   7.318   0.363  0.6371  0.6935 -1.7068
47895SOL    HW261296   9.057   7.455   0.416 -0.2561  0.8558 -1.5046
47896SOL     OW61297   3.818   0.649  11.932 -0.7298 -0.3994  0.0927
47896SOL    HW161298   3.904   0.652  11.974 -0.3150 -0.4268 -0.7455
47896SOL    HW261299   3.836   0.632  11.840 -1.6954 -1.8048  0.1261
47897SOL     OW61300  12.841   8.983   2.531 -0.5345 -0.0689  0.2166
47897SOL    HW161301  12.846   8.972   2.436 -1.9914  0.5543  0.0334
47897SOL    HW261302  12.778   9.054   2.544 -1.9709 -1.5100  1.6712
47898SOL     OW61303   6.446   0.516  13.488 -0.2739 -0.1194  0.5625
47898SOL    HW161304   6.434   0.590  13.547  1.6417  0.6417  0.0701
47898SOL    HW261305   6.531   0.531  13.447 -0.5137 -1.8191 -0.6857
47899SOL     OW61306   7.218   7.774  13.099 -0.2906  0.1042  0.2830
47899SOL    HW161307   7.170   7.702  13.140 -0.9080  0.0951 -0.4345
47899SOL    HW261308   7.224   7.841  13.168  0.8506 -0.8714  1.1537
47900SOL     OW61309   0.720   2.845   7.795 -0.0908  0.1197  0.0095
47900SOL    HW161310   0.673   2.794   7.861  0.2918  0.2559  0.3883
47900SOL    HW261311   0.708   2.936   7.821  3.1345  0.1015  2.0651
47901SOL     OW61312   9.839  13.405  10.981  0.7477  0.0372 -0.5486
47901SOL    HW161313   9.824  13.496  11.006 -2.1978 -0.6216  0.4174
47901SOL    HW261314   9.840  13.406  10.885 -1.2310  0.8818 -0.6067
47902SOL     OW61315   1.339  10.672  13.229 -0.2406  0.3217 -0.0105
47902SOL    HW161316   1.359  10.737  13.297 -0.9115  0.0374  0.4729
47902SOL    HW261317   1.269  10.712  13.177  0.2819  0.5443 -0.5541
47903SOL     OW61318   1.975  11.207   5.633 -0.4916  0.1489  0.5010
47903SOL    HW161319   2.069  11.195   5.631 -0.5760 -0.8204  1.3818
47903SOL    HW261320   1.941  11.138   5.575 -0.6112  1.3397 -0.8893
47904SOL     OW61321  12.519  12.433   1.933 -0.3813  0.0758  0.4141
47904SOL    HW161322  12.528  12.503   1.868  1.1986 -1.4735 -1.1776
47904SOL    HW261323  12.575  12.362   1.899 -1.3806 -1.7105  2.2736
47905SOL     OW61324   7.971   0.139   9.708 -0.3846  0.6241  0.3568
47905SOL    HW161325   8.020   0.079   9.764 -0.8675  0.0093  0.1360
47905SOL    HW261326   8.036   0.203   9.679  0.3134 -0.2020  0.0276
47906SOL     OW61327  13.580   9.381   4.406  0.1584  0.4768 -0.0070
47906SOL    HW161328  13.548   9.463   4.444 -1.9599  0.2602 -1.1262
47906SOL    HW261329  13.660   9.404   4.359 -0.3694  1.9004 -0.2361
47907SOL     OW61330   1.222   0.479  10.242 -0.2088  0.3363  0.1420
47907SOL    HW161331   1.305   0.433  10.256  0.1094  1.0605  0.6890
47907SOL    HW261332   1.226   0.506  10.150 -0.6044 -1.0965 -0.3274
47908SOL     OW61333   1.161   6.076   7.447 -0.2772  0.1958  0.0528
47908SOL    HW161334   1.079   6.074   7.398 -0.0351  2.0291 -0.5168
47908SOL    HW261335   1.137   6.114   7.531 -0.1815 -0.2593  0.2893
47909SOL     OW61336   6.660  12.625   1.190  0.0804 -0.3795  0.6424
47909SOL    HW161337   6.584  12.646   1.244 -1.0942 -2.1079 -0.2326
47909SOL    HW261338   6.644  12.670   1.108 -0.6113 -1.6231  0.0618
47910SOL     OW61339   1.064  13.185   8.939 -0.2877  0.4578  0.5998
47910SOL    HW161340   1.143  13.149   8.900 -0.9928 -0.4246 -0.0728
47910SOL    HW261341   1.076  13.280   8.934 -0.5694  0.4421 -2.3725
47911SOL     OW61342   7.612  11.723   4.045 -0.0211 -0.3268 -1.0092
47911SOL    HW161343   7.570  11.671   4.114  2.5033 -0.6147  0.4661
47911SOL    HW261344   7.646  11.659   3.983  0.0192 -0.2217 -1.0967
47912SOL     OW61345   1.967   8.670   7.967 -0.5242 -0.2715 -0.3325
47912SOL    HW161346   2.048   8.659   8.017  0.0239 -0.5608 -1.2591
47912SOL    HW261347   1.939   8.759   7.985  0.5572  0.1780 -0.8074
47913SOL     OW61348   5.656  12.856   1.978 -0.5143 -0.1110 -0.6432
47913SOL    HW161349   5.615  12.893   1.899 -0.3206  1.9727  0.1485
47913SOL    HW261350   5.750  12.866   1.963 -0.4731  0.1858 -0.2140
47914SOL     OW61351   4.830   7.065   0.921  0.2795  0.8083  0.3676
47914SOL    HW161352   4.775   7.060   0.843  0.3019 -1.0313  0.4144
47914SOL    HW261353   4.770   7.087   0.992 -0.0375  0.8681  0.0833
47915SOL     OW61354  11.520  11.647   5.921  0.0035 -0.0349  0.4413
47915SOL    HW161355  11.518  11.552   5.925  0.4625 -0.1746 -1.5709
47915SOL    HW261356  11.582  11.667   5.850 -0.7167  1.7270  0.2443
47916SOL     OW61357   3.558  13.326   8.319  0.2972  0.1244  0.6062
47916SOL    HW161358   3.581  13.237   8.345 -2.4153 -1.0084 -0.5193
47916SOL    HW261359   3.572  13.329   8.224  1.3668  1.2648  0.7741
47917SOL     OW61360   2.374   9.838   4.932  0.0888 -0.3462  0.1017
47917SOL    HW161361   2.363   9.890   5.012  0.9316  0.7699 -0.4701
47917SOL    HW261362   2.297   9.859   4.879  0.1376 -0.1123  0.1196
47918SOL     OW61363   6.850   8.508   3.415 -0.0252 -0.1146 -0.3543
47918SOL    HW161364   6.783   8.575   3.403  0.0509 -0.2393 -1.5105
47918SOL    HW261365   6.897   8.536   3.494 -2.9801 -1.3370  2.0506
47919SOL     OW61366   6.609   3.583   3.175  0.1993  0.0182 -0.6207
47919SOL    HW161367   6.531   3.545   3.216  0.1647  0.1375 -0.5757
47919SOL    HW261368   6.681   3.525   3.203  0.5722  1.4376  1.6481
47920SOL     OW61369   4.890  12.564  11.455  0.5130  0.5135  0.7330
47920SOL    HW161370   4.900  12.605  11.541 -2.1790  0.4084  1.1794
47920SOL    HW261371   4.814  12.507  11.464  0.6956 -0.1842 -1.4797
47921SOL     OW61372  12.769   5.201   6.669  0.7661  0.1145  0.0309
47921SOL    HW161373  12.822   5.195   6.749  2.0326  2.2514 -0.5625
47921SOL    HW261374  12.685   5.236   6.699  0.4283 -1.2020  0.6878
47922SOL     OW61375  11.603   7.870   8.176  0.2904  0.0182  0.5886
47922SOL    HW161376  11.639   7.957   8.158 -1.0834  0.5667  0.3141
47922SOL    HW261377  11.563   7.843   8.092 -1.2214  0.1099  1.2401
47923SOL     OW61378  12.801  10.941   5.361 -0.1594  0.4418  0.3558
47923SOL    HW161379  12.777  11.031   5.342 -3.8933 -0.3762  0.5252
47923SOL    HW261380  12.798  10.897   5.276 -0.2205  0.1132  0.5251
47924SOL     OW61381   9.178  12.499   2.635  0.6477 -0.1529 -0.0068
47924SOL    HW161382   9.121  12.526   2.563 -1.1707 -1.9670  0.6276
47924SOL    HW261383   9.138  12.538   2.713  1.4443  0.1657  0.2504
47925SOL     OW61384   2.801   2.049  10.144  0.3137  0.2261  0.0712
47925SOL    HW161385   2.748   2.099  10.083 -1.2345 -2.0473 -0.5886
47925SOL    HW261386   2.739   2.015  10.209  1.3908 -0.2245  0.9077
47926SOL     OW61387   6.504  12.699  10.158  0.2810 -0.1144  0.1960
47926SOL    HW161388   6.414  12.697  10.190 -0.5556  1.4450 -1.8599
47926SOL    HW261389   6.515  12.616  10.112  0.0696 -0.5194  0.8684
47927SOL     OW61390   6.674   1.356   2.250  0.0517 -0.3114  0.0970
47927SOL    HW161391   6.639   1.430   2.300  0.4786  0.9546 -1.3828
47927SOL    HW261392   6.605   1.336   2.186  1.1543  0.9356 -1.5689
47928SOL     OW61393  12.143   0.104   2.530 -0.2730 -0.1971  0.0541
47928SOL    HW161394  12.072   0.168   2.520 -0.0315 -0.0766 -1.0459
47928SOL    HW261395  12.099   0.020   2.540 -0.6048 -0.1967 -1.1378
47929SOL     OW61396   8.534  10.995  12.478 -0.2368 -0.4253  0.3062
47929SOL    HW161397   8.560  10.907  12.507  1.0806  0.6365  2.6788
47929SOL    HW261398   8.617  11.041  12.466 -0.9098  0.4701 -1.1443
47930SOL     OW61399  10.274  12.322   4.777 -0.8648 -0.4639 -0.1921
47930SOL    HW161400  10.333  12.325   4.852 -1.9995  2.5235  0.7237
47930SOL    HW261401  10.316  12.377   4.711 -0.8772 -1.3819 -0.9936
47931SOL     OW61402  11.302   3.409   9.573  0.1382 -0.0132 -0.0175
47931SOL    HW161403  11.288   3.317   9.591  1.8246 -0.4920 -0.9185
47931SOL    HW261404  11.263   3.455   9.648  0.1817 -1.5018  0.9475
47932SOL     OW61405   4.962  13.691   2.413 -0.6482 -0.1595 -0.8254
47932SOL    HW161406   4.966  13.676   2.508  0.4515  1.3540 -0.5853
47932SOL    HW261407   4.973  13.604   2.374 -0.3174 -0.7078  0.4348
47933SOL     OW61408   9.002   4.835   9.974 -0.8620  0.6499  0.2346
47933SOL    HW161409   8.983   4.761  10.032 -1.9527  1.5366  1.0363
47933SOL    HW261410   8.979   4.912  10.024  0.6317  1.5948 -0.4407
47934SOL     OW61411  11.955   7.420   5.860  0.1593  0.5427 -0.3462
47934SOL    HW161412  11.979   7.455   5.945 -0.4509  1.2075 -0.4320
47934SOL    HW261413  12.018   7.458   5.799 -0.3161  1.2922 -0.3948
47935SOL     OW61414   1.834  12.832   8.686  0.3473 -0.2447  0.5579
47935SOL    HW161415   1.894  12.771   8.643  0.6998 -0.2891  1.1093
47935SOL    HW261416   1.756  12.832   8.630 -0.1831 -2.1955  1.2071
47936SOL     OW61417   4.908   2.671   3.236 -0.4173 -0.0619  0.0620
47936SOL    HW161418   4.917   2.578   3.217  0.3188 -0.2846  1.3560
47936SOL    HW261419   4.949   2.715   3.162 -0.8426 -0.7597 -0.6001
47937SOL     OW61420  12.686   3.361   6.985  0.0465 -0.2215 -0.0226
47937SOL    HW161421  12.592   3.376   6.991  0.0963  1.6701 -2.6371
47937SOL    HW261422  12.698   3.271   7.016 -2.8229 -1.1175 -1.2381
47938SOL     OW61423  10.799   3.321   6.510  0.0155  0.6789  0.3429
47938SOL    HW161424  10.759   3.408   6.510 -0.3678  0.6336 -3.3544
47938SOL    HW261425  10.872   3.328   6.449  1.3001 -1.1196  1.5726
47939SOL     OW61426   3.950  13.134   6.564 -0.2722  0.0266 -0.2597
47939SOL    HW161427   3.981  13.045   6.544 -0.3171 -0.8926  3.2104
47939SOL    HW261428   3.966  13.183   6.483  1.8370 -2.5763 -1.5872
47940SOL     OW61429   4.502   3.620  14.091  0.6927  0.4824  0.4901
47940SOL    HW161430   4.517   3.714  14.081 -0.4744  0.8022  1.4323
47940SOL    HW261431   4.581   3.587  14.133 -0.1717  1.6810  3.3107
47941SOL     OW61432  11.044   1.490   0.845  0.1497  0.1555 -0.1585
47941SOL    HW161433  10.951   1.506   0.828  0.0908 -1.2538 -1.3319
47941SOL    HW261434  11.044   1.423   0.913  0.3737  1.9726  1.7485
47942SOL     OW61435  11.979   0.512   9.750  0.5754  0.1039  0.0129
47942SOL    HW161436  11.974   0.535   9.842 -2.2138  1.0236 -0.2808
47942SOL    HW261437  11.888   0.496   9.724  1.4845 -2.7687 -1.9634
47943SOL     OW61438   4.335  12.790   5.391 -0.2509  0.3043  0.2372
47943SOL    HW161439   4.369  12.807   5.303 -0.5223 -1.0115 -0.1427
47943SOL    HW261440   4.268  12.857   5.404 -1.9894 -0.9699 -1.6051
47944SOL     OW61441   1.548   4.289   6.201  1.0238  0.2850  0.2889
47944SOL    HW161442   1.477   4.251   6.149  2.1320  0.6028 -1.5662
47944SOL    HW261443   1.519   4.378   6.220  1.0347  0.5205 -0.7387
47945SOL     OW61444  12.919   6.143   3.621 -0.1701  0.1481  0.3778
47945SOL    HW161445  12.907   6.123   3.529 -0.7915 -0.4947  0.5875
47945SOL    HW261446  12.974   6.072   3.654 -0.8938 -0.2595  0.7388
47946SOL     OW61447   0.791  10.335  11.173  0.1638 -0.3488 -0.4994
47946SOL    HW161448   0.878  10.373  11.184 -0.5344  0.9513  0.7571
47946SOL    HW261449   0.795  10.291  11.088  2.1880 -0.7570 -0.2546
47947SOL     OW61450   1.846   7.786   5.561 -0.3960  0.2594  0.2889
47947SOL    HW161451   1.773   7.841   5.533  0.0647  1.4762  1.3796
47947SOL    HW261452   1.922   7.821   5.514 -0.1264  0.4607  0.8678
47948SOL     OW61453  13.380   5.443   1.280 -0.1595  0.5819  0.5883
47948SOL    HW161454  13.470   5.410   1.276  0.2823  1.6275  1.4670
47948SOL    HW261455  13.351   5.425   1.369 -0.2414  1.6628  0.7989
47949SOL     OW61456  10.143  12.622   7.655  0.1761  0.1580  0.7433
47949SOL    HW161457  10.199  12.572   7.716  2.8955 -1.9258 -3.0563
47949SOL    HW261458  10.202  12.683   7.612 -0.9523 -0.4263 -1.7881
47950SOL     OW61459   0.977   3.712  12.870  0.2281  0.1317 -0.0987
47950SOL    HW161460   0.974   3.797  12.915 -0.8161  0.4638 -0.7576
47950SOL    HW261461   0.988   3.648  12.939 -0.4196  0.7017  0.5461
47951SOL     OW61462   4.669   2.073   8.662 -0.5786 -0.2415 -0.4104
47951SOL    HW161463   4.609   2.116   8.724  1.3641 -1.4092  2.4840
47951SOL    HW261464   4.647   1.980   8.669  0.7786 -0.5604 -0.1323
47952SOL     OW61465  13.246  14.049   8.175  0.2959  0.6554  0.2018
47952SOL    HW161466  13.197  14.046   8.092 -0.6756 -0.5916  0.7790
47952SOL    HW261467  13.285  13.961   8.183  0.4093  0.7733  1.0440
47953SOL     OW61468   8.510   6.238   9.138 -0.5177 -0.2918 -0.4457
47953SOL    HW161469   8.545   6.164   9.089  2.3828 -1.1789  2.5722
47953SOL    HW261470   8.430   6.204   9.179 -1.4197 -0.3829 -2.1776
47954SOL     OW61471   9.795  13.788  13.484  0.1644  0.5323 -0.0758
47954SOL    HW161472   9.714  13.775  13.434  0.1224  0.8607 -0.0955
47954SOL    HW261473   9.863  13.751  13.429  0.0332  0.2914 -0.0793
47955SOL     OW61474  11.869  10.589  13.416 -0.0144  0.1526 -0.4915
47955SOL    HW161475  11.948  10.622  13.457  1.0590 -0.1513 -2.2056
47955SOL    HW261476  11.856  10.502  13.454 -1.7457  1.5728  2.5793
47956SOL     OW61477   3.904   0.332  11.003 -0.5510  0.6750 -0.3989
47956SOL    HW161478   3.970   0.385  10.958  1.2520 -0.9155  0.1944
47956SOL    HW261479   3.955   0.263  11.047 -2.6899 -1.3274 -0.8415
47957SOL     OW61480   6.817  12.895  12.151 -0.1542  0.0256 -0.2426
47957SOL    HW161481   6.811  12.970  12.091 -0.9726  1.5950  1.6705
47957SOL    HW261482   6.746  12.837  12.123  0.5729 -0.1356 -1.8481
47958SOL     OW61483   1.406  12.703  12.914 -0.5397 -0.0728  0.0228
47958SOL    HW161484   1.491  12.660  12.926 -0.6144 -0.4154 -0.6233
47958SOL    HW261485   1.343  12.641  12.950 -1.0129 -2.2187 -3.9380
47959SOL     OW61486  12.786  12.034  11.547 -0.0633 -0.4369 -0.1503
47959SOL    HW161487  12.854  12.100  11.557  0.4943 -1.1960  1.1950
47959SOL    HW261488  12.738  12.062  11.468 -0.4836  2.1397  0.9155
47960SOL     OW61489  10.549   2.044   8.966  0.1289 -0.3576 -0.2222
47960SOL    HW161490  10.505   2.119   8.926 -1.5532 -1.0031  0.3500
47960SOL    HW261491  10.573   2.074   9.054  0.6439 -0.0835 -0.4502
47961SOL     OW61492  12.570   0.091   2.777  0.4034  0.2260  0.5088
47961SOL    HW161493  12.516   0.118   2.851  0.0879  3.8312 -0.8428
47961SOL    HW261494  12.525   0.126   2.700  2.6451 -0.1162 -1.0581
47962SOL     OW61495   4.836   5.975   6.633  0.2069  0.0871 -0.6850
47962SOL    HW161496   4.777   6.042   6.669  0.2500 -0.5931  0.7192
47962SOL    HW261497   4.795   5.949   6.551 -1.7201 -0.6449  0.4289
47963SOL     OW61498  10.694  13.668  12.616 -0.4447  0.5132 -0.0290
47963SOL    HW161499  10.625  13.609  12.588  0.2067 -0.9262  1.2149
47963SOL    HW261500  10.709  13.726  12.542 -0.7126 -1.2899 -1.5616
47964SOL     OW61501   1.054   7.520   3.789  0.2797  0.0636 -0.3537
47964SOL    HW161502   1.037   7.521   3.883 -0.0461  0.8005 -0.4170
47964SOL    HW261503   1.147   7.499   3.782  0.1313 -0.8066  0.0985
47965SOL     OW61504   5.303   7.855   5.214 -0.5585 -0.5025  0.1471
47965SOL    HW161505   5.383   7.905   5.203  0.7840 -1.6556  3.5590
47965SOL    HW261506   5.317   7.776   5.161  1.2535 -1.3398  1.7597
47966SOL     OW61507   5.003   9.630   3.633 -0.1385 -0.3870 -0.1014
47966SOL    HW161508   4.985   9.724   3.634  0.8582 -0.1737  1.6276
47966SOL    HW261509   4.937   9.594   3.574 -1.6208  1.1906  0.5055
47967SOL     OW61510  10.498   6.641   5.250 -0.0481 -0.6274 -1.0173
47967SOL    HW161511  10.442   6.694   5.194 -0.2215 -0.3157 -0.5581
47967SOL    HW261512  10.472   6.665   5.339 -0.5211 -1.9057 -0.7969
47968SOL     OW61513  11.733   0.202  11.908  0.1726  0.2965 -0.2330
47968SOL    HW161514  11.811   0.213  11.962 -1.1795 -1.6498  2.3157
47968SOL    HW261515  11.763   0.154  11.831  1.4273 -0.9141  0.9728
47969SOL     OW61516  12.315   1.822   9.254  1.2683  0.0200  0.5224
47969SOL    HW161517  12.352   1.736   9.232  1.2311  0.2913 -0.6925
47969SOL    HW261518  12.351   1.881   9.187  0.3588  0.7175  0.6275
47970SOL     OW61519  10.973  11.502   7.558  0.1088  0.4475  0.5566
47970SOL    HW161520  11.005  11.589   7.532 -0.1170  0.4971  0.4398
47970SOL    HW261521  10.970  11.505   7.654  1.0247  0.2335  0.5941
47971SOL     OW61522   5.074   5.320   0.238  0.0241  0.0778  0.2112
47971SOL    HW161523   5.123   5.397   0.268  1.9113 -0.6259 -0.9101
47971SOL    HW261524   5.061   5.268   0.318  3.1567 -0.7791  0.3146
47972SOL     OW61525   7.940  13.040   4.176  0.3885  0.0500  0.1855
47972SOL    HW161526   7.987  12.957   4.189  0.9509  0.5765  1.7301
47972SOL    HW261527   7.854  13.025   4.217  0.2760  0.0356 -0.0570
47973SOL     OW61528  13.366   2.574  13.630 -0.0736 -0.4709 -0.4278
47973SOL    HW161529  13.360   2.665  13.660  1.5292 -0.1868 -0.8792
47973SOL    HW261530  13.309   2.570  13.554  1.6787  0.8712 -1.9197
47974SOL     OW61531   0.806   7.156  11.173  0.1277  0.3109 -0.4778
47974SOL    HW161532   0.890   7.194  11.197 -0.9588  1.1619  2.4625
47974SOL    HW261533   0.822   7.063  11.164  1.4563  0.5276 -0.5327
47975SOL     OW61534   7.522  13.606   5.841  0.5485 -0.1373  0.4711
47975SOL    HW161535   7.436  13.636   5.871  1.3115  1.8997  0.8485
47975SOL    HW261536   7.570  13.587   5.922  1.2947  1.4164  0.4360
47976SOL     OW61537   2.986   7.205   5.032 -0.3908 -0.5928  0.1654
47976SOL    HW161538   2.971   7.300   5.027  0.5049 -0.3357  1.6106
47976SOL    HW261539   3.057   7.188   4.970 -1.3163 -0.5332 -0.9449
47977SOL     OW61540   6.473   4.056   1.107  0.3657 -0.0363 -0.3617
47977SOL    HW161541   6.424   4.115   1.164 -0.7298 -0.3925 -0.9037
47977SOL    HW261542   6.564   4.082   1.119  0.1025  0.3735  0.9870
47978SOL     OW61543   9.285   1.819   5.081  0.3219  0.1263  0.3685
47978SOL    HW161544   9.227   1.870   5.139 -0.4567 -2.4464  2.0155
47978SOL    HW261545   9.231   1.801   5.004 -0.7743 -1.3265  1.4228
47979SOL     OW61546   2.210  11.565   0.282 -0.3536  0.1844 -0.0810
47979SOL    HW161547   2.234  11.642   0.334 -1.7058  1.1443 -0.8129
47979SOL    HW261548   2.283  11.553   0.222  0.2373  0.3887  0.5796
47980SOL     OW61549   7.870   2.092   6.184 -0.4789  0.4069 -0.5346
47980SOL    HW161550   7.845   2.107   6.093  0.9074  1.0018 -0.8476
47980SOL    HW261551   7.948   2.038   6.179  0.4578  1.6158  0.2161
47981SOL     OW61552   7.595  13.809   1.323  0.2251 -0.1864 -0.1503
47981SOL    HW161553   7.517  13.864   1.332 -0.1836 -0.9609  1.3637
47981SOL    HW261554   7.624  13.824   1.233  0.4991  2.9615  0.3560
47982SOL     OW61555   4.616  12.295   0.233 -0.0549  0.2119  0.7782
47982SOL    HW161556   4.592  12.255   0.316  0.2388 -0.4830  0.5321
47982SOL    HW261557   4.712  12.302   0.236  0.0109 -0.3707  0.2580
47983SOL     OW61558   1.387  11.126   5.237  0.4790  0.3265 -0.3708
47983SOL    HW161559   1.385  11.213   5.277  1.6723 -0.9470  2.7966
47983SOL    HW261560   1.295  11.104   5.223  0.0296  1.1899  1.0249
47984SOL     OW61561  10.978   3.073   1.440  0.2758 -0.1225 -0.4809
47984SOL    HW161562  10.985   3.085   1.535 -1.7154 -0.9584 -0.1836
47984SOL    HW261563  10.992   2.979   1.427  4.3897  0.4457 -1.5202
47985SOL     OW61564  13.968   2.801   7.589 -0.0017  0.0356 -0.0181
47985SOL    HW161565  13.995   2.762   7.506 -0.4512 -1.0358  0.3203
47985SOL    HW261566  13.872   2.798   7.587 -0.0323 -1.6880  1.2676
47986SOL     OW61567   3.524  12.012  10.037 -0.0501  0.5920  0.5484
47986SOL    HW161568   3.619  12.015  10.050  0.0303  1.2720 -0.1113
47986SOL    HW261569   3.513  11.984   9.946 -0.5654 -2.5536  1.4770
47987SOL     OW61570   2.749   0.845   4.012 -0.5428  0.4030 -0.4781
47987SOL    HW161571   2.773   0.934   4.040  1.4956  0.0527 -0.9662
47987SOL    HW261572   2.769   0.790   4.088 -1.1603  0.2769 -0.4068
47988SOL     OW61573   5.995   0.455   4.805  0.3096 -0.1325 -0.4746
47988SOL    HW161574   6.059   0.397   4.764 -1.2707 -2.3754  0.0109
47988SOL    HW261575   5.917   0.446   4.750  0.0198  1.6303 -0.3992
47989SOL     OW61576  13.332   2.071   4.139 -0.1876 -0.2498 -0.2850
47989SOL    HW161577  13.404   2.095   4.197  1.6555 -1.4284 -1.9314
47989SOL    HW261578  13.266   2.031   4.196 -0.5378  2.7016  1.5543
47990SOL     OW61579   4.855   3.822   5.527 -0.1715 -0.1707 -0.2927
47990SOL    HW161580   4.762   3.839   5.511 -0.2330 -1.4488 -1.5174
47990SOL    HW261581   4.878   3.754   5.463  1.0860 -1.4134  1.3821
47991SOL     OW61582   8.172   0.800  10.250  0.2245  0.4432  0.3527
47991SOL    HW161583   8.116   0.723  10.266  1.5529 -0.6224  0.1032
47991SOL    HW261584   8.110   0.871  10.231 -1.0497 -0.9691 -1.2070
47992SOL     OW61585   0.481   3.422  13.569  0.6114 -0.5756 -0.0513
47992SOL    HW161586   0.405   3.437  13.514 -0.0863 -0.7084  0.8483
47992SOL    HW261587   0.555   3.457  13.519 -0.1891  0.6333 -0.4331
47993SOL     OW61588   0.208   0.660   5.540  0.3574  0.3319 -0.0029
47993SOL    HW161589   0.136   0.707   5.582  0.5612  0.9722 -0.3438
47993SOL    HW261590   0.279   0.662   5.605  0.2575  0.2133  0.1091
47994SOL     OW61591  11.078   0.286   4.989 -0.4641  0.1023  0.0215
47994SOL    HW161592  11.022   0.208   4.995  0.1214 -0.3449 -0.1295
47994SOL    HW261593  11.146   0.270   5.055  0.7149 -0.3989 -1.2753
47995SOL     OW61594   2.681   0.907   0.252  0.0792  0.0803  0.6901
47995SOL    HW161595   2.665   0.843   0.322  1.9243 -0.3916  0.7405
47995SOL    HW261596   2.594   0.925   0.216 -0.6494 -1.4519  1.5508
47996SOL     OW61597   0.472   1.888  11.880  0.9658 -0.1687  0.1553
47996SOL    HW161598   0.402   1.947  11.853 -0.4359 -1.5840  0.5227
47996SOL    HW261599   0.552   1.931  11.852 -0.1732 -0.0293 -3.3294
47997SOL     OW61600   4.771   7.708   7.281  0.3496 -0.1733 -0.2605
47997SOL    HW161601   4.834   7.638   7.297  1.6155  0.6571 -1.4137
47997SOL    HW261602   4.707   7.668   7.222  0.4603 -0.6605 -0.0625
47998SOL     OW61603   7.542  13.278   9.043 -0.1361  0.1222  0.9203
47998SOL    HW161604   7.592  13.355   9.017 -0.3770  0.2770  0.9194
47998SOL    HW261605   7.565  13.212   8.977 -1.4215  0.7789 -0.2281
47999SOL     OW61606  11.763   3.015   1.418  0.2493  0.1995  0.3243
47999SOL    HW161607  11.807   2.941   1.460  1.4176  0.3737 -0.5423
47999SOL    HW261608  11.761   2.992   1.325  0.8435  1.3603  0.0087
48000SOL     OW61609  13.844   6.651   0.545  0.4253  0.2157  0.2906
48000SOL    HW161610  13.780   6.663   0.615  1.9514 -0.0539  1.8075
48000SOL    HW261611  13.911   6.717   0.563  1.1295 -0.2412 -0.6030
48001SOL     OW61612   7.064   4.051   7.583 -0.1921 -0.5017  0.2063
48001SOL    HW161613   7.127   3.979   7.586 -0.4199 -0.6818  1.1037
48001SOL    HW261614   7.063   4.085   7.673  0.0785  0.7711 -0.2509
48002SOL     OW61615   6.445  13.596  13.333  0.0017 -0.2218 -0.2061
48002SOL    HW161616   6.386  13.558  13.398 -0.2937 -0.0288 -0.3566
48002SOL    HW261617   6.457  13.687  13.362  0.2828 -0.2826 -0.1356
48003SOL     OW61618   8.905   1.444  13.253  0.3416  0.1993  0.8190
48003SOL    HW161619   8.871   1.404  13.333  4.1484 -2.1464  1.5071
48003SOL    HW261620   8.972   1.505  13.283  0.6378  0.5680 -0.5216
48004SOL     OW61621  10.549   1.241   5.127 -0.5520  0.0021  0.1980
48004SOL    HW161622  10.533   1.294   5.049  1.1689  1.0589  0.5239
48004SOL    HW261623  10.494   1.163   5.114 -1.8211  1.0552 -1.1017
48005SOL     OW61624  11.950   7.073  11.634 -0.0846 -0.1882  0.7781
48005SOL    HW161625  12.009   7.148  11.635  1.3337 -1.2360  0.4694
48005SOL    HW261626  11.886   7.090  11.702 -1.2520  2.3800 -0.8319
48006SOL     OW61627   5.365   8.881   6.017 -0.2849 -0.0012  0.1219
48006SOL    HW161628   5.282   8.837   6.035 -0.4457  0.8932  1.8479
48006SOL    HW261629   5.383   8.930   6.097  1.8283 -0.0228 -0.2866
48007SOL     OW61630   0.758   8.483   5.105  0.1575  0.3523 -0.0932
48007SOL    HW161631   0.852   8.490   5.119  0.3393 -0.8485 -0.5661
48007SOL    HW261632   0.731   8.569   5.074  1.2029  0.5571 -0.4626
48008SOL     OW61633   8.361   5.503   1.398 -0.5376 -0.3169  0.6803
48008SOL    HW161634   8.309   5.542   1.327 -1.5023  0.2563  1.6806
48008SOL    HW261635   8.448   5.490   1.360 -1.0536 -0.0841 -0.6274
48009SOL     OW61636   5.577   5.774  13.840 -0.2514  0.0756 -0.2298
48009SOL    HW161637   5.574   5.784  13.745 -0.3970 -2.4174 -0.5398
48009SOL    HW261638   5.670   5.771  13.861 -0.1815 -1.6492 -0.6311
48010SOL     OW61639   3.218   9.758   4.523  0.2096  0.0847  0.0542
48010SOL    HW161640   3.146   9.694   4.528  0.5473 -0.4669 -1.4440
48010SOL    HW261641   3.274   9.725   4.452  3.2206 -0.7671  2.5877
48011SOL     OW61642  13.102   3.375  11.332 -0.2638 -0.0702 -0.2674
48011SOL    HW161643  13.086   3.447  11.394  0.7808  0.7639 -0.9278
48011SOL    HW261644  13.194   3.354  11.343 -0.7029 -1.7857  0.3677
48012SOL     OW61645   9.742   2.188   6.313 -0.2562 -0.2168  0.1149
48012SOL    HW161646   9.668   2.217   6.261  0.0881  0.1282 -0.1902
48012SOL    HW261647   9.704   2.158   6.395 -0.6993  0.2734  0.0930
48013SOL     OW61648  10.135   0.323  13.411 -0.5742  0.0174  0.1043
48013SOL    HW161649  10.155   0.234  13.441 -0.9438 -0.0542  0.1436
48013SOL    HW261650  10.052   0.345  13.454  0.2814  0.9787  1.3301
48014SOL     OW61651   4.815  11.736   4.645 -0.5216 -0.7869  0.2483
48014SOL    HW161652   4.765  11.817   4.654  0.3769 -0.1886 -0.0268
48014SOL    HW261653   4.878  11.754   4.575  0.1787 -1.4746  0.6832
48015SOL     OW61654   9.200  13.591  13.921 -0.3322  0.5903  0.4038
48015SOL    HW161655   9.130  13.619  13.863  0.3622  2.6554  0.4939
48015SOL    HW261656   9.251  13.670  13.937  2.5893 -0.9946 -0.4001
48016SOL     OW61657  10.413  10.086   8.658 -0.5804 -0.1621 -0.3263
48016SOL    HW161658  10.359  10.014   8.690 -1.1572  0.1167 -0.6364
48016SOL    HW261659  10.381  10.102   8.569 -1.2294  1.1850  0.1215
48017SOL     OW61660  13.197   4.618   4.951  0.0802  0.1870 -0.3737
48017SOL    HW161661  13.132   4.560   4.990  1.0355 -0.4086  0.3606
48017SOL    HW261662  13.188   4.604   4.856  0.3473 -1.2227 -0.2062
48018SOL     OW61663   2.801  11.470  10.033  0.7797  0.7242 -0.7262
48018SOL    HW161664   2.819  11.439  10.122  0.7569  0.2381 -0.8863
48018SOL    HW261665   2.862  11.421   9.978  1.0129  1.2534 -0.9474
48019SOL     OW61666  10.918  13.153   5.647 -0.1168 -0.0883 -0.6694
48019SOL    HW161667  10.987  13.207   5.608 -0.2698 -0.8178 -2.0234
48019SOL    HW261668  10.857  13.216   5.685  0.2727  0.6469 -1.2295
48020SOL     OW61669   6.076  12.342   5.799  0.0015 -0.4013 -0.5358
48020SOL    HW161670   6.064  12.285   5.875  0.6572  0.3834  0.1726
48020SOL    HW261671   6.155  12.307   5.756  1.1270  0.6681  0.5807
48021SOL     OW61672   9.730   9.020   1.628  0.0942 -0.3400  0.3592
48021SOL    HW161673   9.822   8.998   1.642 -0.3386 -1.4543  1.6686
48021SOL    HW261674   9.682   8.946   1.664 -1.3435  0.7378  0.7624
48022SOL     OW61675  13.966  12.205   1.002 -0.4762 -0.1897 -0.1797
48022SOL    HW161676  14.000  12.257   0.929  1.1841 -1.3744 -0.3086
48022SOL    HW261677  13.878  12.179   0.974 -0.8315  1.4077 -0.6681
48023SOL     OW61678   2.243   4.244  11.464 -0.1596  0.2061  0.3450
48023SOL    HW161679   2.203   4.159  11.484 -1.1597  0.4248 -0.6456
48023SOL    HW261680   2.186   4.283  11.399 -0.2082  2.0573  1.4282
48024SOL     OW61681   0.432   7.735   4.056 -0.1875 -0.0571 -0.5184
48024SOL    HW161682   0.515   7.782   4.067 -0.3233 -0.0945  0.9121
48024SOL    HW261683   0.365   7.803   4.066 -0.3842 -0.4773  1.4673
48025SOL     OW61684  11.569   9.100  11.388  0.0586  0.0616 -0.7097
48025SOL    HW161685  11.619   9.018  11.391 -0.1141 -0.0105  1.0006
48025SOL    HW261686  11.481   9.073  11.360 -0.0832 -0.3917  0.1592
48026SOL     OW61687   6.536  11.367   2.920  0.1140 -0.2415 -0.3670
48026SOL    HW161688   6.618  11.389   2.964 -1.1229 -0.2433  2.0802
48026SOL    HW261689   6.539  11.271   2.911  0.1359 -0.3058  0.2732
48027SOL     OW61690   5.641   9.454   1.480 -0.2035  0.7200 -0.4644
48027SOL    HW161691   5.617   9.545   1.465 -1.0827  0.1431 -3.2915
48027SOL    HW261692   5.561   9.412   1.511  0.8729  1.3008  3.6764
48028SOL     OW61693  13.218   9.747  14.021 -0.2536  0.3933 -0.0638
48028SOL    HW161694  13.280   9.675  14.013 -0.6882  0.1529 -1.8580
48028SOL    HW261695  13.148   9.724  13.959 -1.7539  1.0230  1.3433
48029SOL     OW61696   9.511   9.404  13.961  0.1649 -0.2931 -0.4644
48029SOL    HW161697   9.603   9.379  13.957  0.1904 -0.2543 -0.1301
48029SOL    HW261698   9.509   9.494  13.931  0.1453 -0.5090 -1.1279
48030SOL     OW61699   3.411   9.841  10.706 -0.1304  0.1953 -0.3631
48030SOL    HW161700   3.424   9.845  10.801  0.1417 -0.6810 -0.3544
48030SOL    HW261701   3.321   9.873  10.693 -0.4574 -0.4386  0.2720
48031SOL     OW61702   7.790   6.425   2.968 -0.5767  0.2895  0.3554
48031SOL    HW161703   7.744   6.487   2.911 -0.1060  0.0073 -0.3448
48031SOL    HW261704   7.741   6.343   2.958 -1.0441  0.4724  1.0792
48032SOL     OW61705   9.961   2.923   2.001  0.8284  0.7602  0.0382
48032SOL    HW161706   9.874   2.928   2.040  0.2890  1.9865 -1.2475
48032SOL    HW261707   9.950   2.869   1.923  1.9523 -1.9041  1.5987
48033SOL     OW61708   4.248  12.043  10.745  0.5439 -0.2188 -0.6869
48033SOL    HW161709   4.306  11.990  10.691  1.8899  0.3514  0.1488
48033SOL    HW261710   4.166  11.994  10.748  1.6758 -2.2031 -0.0745
48034SOL     OW61711   3.760   2.962   0.749  0.0440 -0.1129 -0.0304
48034SOL    HW161712   3.775   3.052   0.720 -0.1900  0.2121  0.8509
48034SOL    HW261713   3.761   2.966   0.844  1.2231 -1.2537  0.0287
48035SOL     OW61714  13.402  13.192   2.132 -0.2403 -0.2560  0.1742
48035SOL    HW161715  13.383  13.254   2.203 -1.1487  0.4736 -0.6775
48035SOL    HW261716  13.345  13.117   2.151  0.4931 -0.6402  0.9294
48036SOL     OW61717  11.956   7.775   3.253  0.8480  0.1755 -0.1316
48036SOL    HW161718  11.897   7.850   3.258  0.2308 -0.3860  1.3500
48036SOL    HW261719  11.977   7.768   3.160 -0.2454  1.2737 -0.4925
48037SOL     OW61720   2.905   1.782   0.730  0.2903  0.3738  1.0437
48037SOL    HW161721   2.892   1.836   0.652 -0.8258  0.6381  1.4032
48037SOL    HW261722   2.974   1.720   0.704  0.3492  0.8306  0.0473
48038SOL     OW61723   4.822  12.981   3.935 -0.6990  0.0390 -0.0696
48038SOL    HW161724   4.796  13.008   4.023  0.6808  1.3269 -0.0032
48038SOL    HW261725   4.784  12.895   3.923 -1.5009  0.1494  1.5219
48039SOL     OW61726  10.304   4.687  13.385 -0.1295  0.2208 -0.0285
48039SOL    HW161727  10.374   4.697  13.320 -1.4153  1.1056 -1.3485
48039SOL    HW261728  10.348   4.697  13.469  1.7244 -1.6949 -0.6749
48040SOL     OW61729   5.975   2.457   2.190 -0.1079 -0.2190  0.3920
48040SOL    HW161730   5.970   2.500   2.275 -0.6789  0.7080 -0.0967
48040SOL    HW261731   5.885   2.428   2.172 -0.4059  1.2838 -0.7281
48041SOL     OW61732  10.436   0.264  11.595  0.1214 -0.5964  0.0779
48041SOL    HW161733  10.410   0.183  11.551 -0.7843 -1.7640  2.5136
48041SOL    HW261734  10.506   0.300  11.541 -0.2408 -2.3830 -1.7095
48042SOL     OW61735  11.476   6.152  13.461  0.3534  0.2581 -0.0230
48042SOL    HW161736  11.400   6.199  13.425 -0.7436 -0.7787  0.8574
48042SOL    HW261737  11.544   6.162  13.394 -1.8767 -2.4771 -3.0313
48043SOL     OW61738  10.761   2.028   1.286 -0.1439 -0.1027  0.0314
48043SOL    HW161739  10.799   2.094   1.228  1.2333  0.0168  1.0007
48043SOL    HW261740  10.731   2.078   1.362 -0.6709 -0.4099  0.0271
48044SOL     OW61741   7.654  11.100   0.143 -0.5681 -0.3178 -0.0944
48044SOL    HW161742   7.657  11.196   0.147  0.8206 -0.3421 -0.1308
48044SOL    HW261743   7.635  11.081   0.051 -1.8931 -0.0830  0.1114
48045SOL     OW61744   7.525   7.699   1.695 -0.0505 -0.1248  0.5694
48045SOL    HW161745   7.600   7.751   1.667  0.5246 -0.9961  0.4422
48045SOL    HW261746   7.562   7.639   1.761 -0.6634 -0.4655  0.6055
48046SOL     OW61747   6.082  12.168   5.439 -0.4437  0.3796  0.0246
48046SOL    HW161748   5.992  12.155   5.409  0.4954 -1.7234 -2.1022
48046SOL    HW261749   6.093  12.105   5.510 -0.4609  0.1989 -0.1334
48047SOL     OW61750   0.821   8.229   7.945  0.3799  0.1750 -0.4890
48047SOL    HW161751   0.769   8.309   7.941  1.3591  0.7914 -1.2967
48047SOL    HW261752   0.775   8.168   7.888 -0.2459  0.2327 -0.0533
48048SOL     OW61753   0.196  13.861   3.129 -0.4940  0.4095  0.9811
48048SOL    HW161754   0.124  13.869   3.067 -0.1084  0.2639  0.5100
48048SOL    HW261755   0.158  13.886   3.213 -1.3617 -0.6710  0.9285
48049SOL     OW61756   4.112  12.097  12.219 -0.0477 -0.0098  0.4461
48049SOL    HW161757   4.131  12.011  12.256 -1.9565 -0.9351 -0.5846
48049SOL    HW261758   4.145  12.091  12.129 -0.3985  0.2560  0.3016
48050SOL     OW61759   0.780   3.414   0.501  0.2197  0.3189 -0.4520
48050SOL    HW161760   0.776   3.341   0.440  0.1157  0.3037 -0.4282
48050SOL    HW261761   0.721   3.388   0.573 -1.7475  1.4483 -1.5572
48051SOL     OW61762  11.873  11.529   1.652  0.4654 -0.3511  0.5910
48051SOL    HW161763  11.823  11.592   1.704 -0.4694 -0.8957  0.3756
48051SOL    HW261764  11.887  11.573   1.568  2.7495  0.8938  1.5169
48052SOL     OW61765   9.550  11.347   8.178  0.1028 -0.3224  0.5050
48052SOL    HW161766   9.553  11.313   8.267 -0.9627 -0.5877  0.4492
48052SOL    HW261767   9.539  11.270   8.123 -1.5603  0.0135  0.3205
48053SOL     OW61768   6.429   9.272  11.804  0.6385 -0.2441 -0.2698
48053SOL    HW161769   6.405   9.205  11.740  0.7131 -0.3832 -0.1523
48053SOL    HW261770   6.372   9.346  11.784  1.3359  0.0731 -1.1322
48054SOL     OW61771  12.165   7.338   0.272  0.0098  0.2572  0.1494
48054SOL    HW161772  12.172   7.356   0.366  1.1062  2.1876 -0.2423
48054SOL    HW261773  12.201   7.416   0.230 -0.2686 -0.6452 -1.8904
48055SOL     OW61774   1.225  12.580  13.064 -0.1947 -0.2503  0.0618
48055SOL    HW161775   1.147  12.616  13.105 -1.5178 -2.0840 -0.7040
48055SOL    HW261776   1.277  12.546  13.136 -1.9277 -2.3592  0.4161
48056SOL     OW61777  11.707   4.299  11.646  0.2585 -0.3969  0.4916
48056SOL    HW161778  11.689   4.205  11.636 -0.4739 -0.1372 -0.8806
48056SOL    HW261779  11.796   4.310  11.612  0.3913 -0.6003  0.7664
48057SOL     OW61780   3.344   6.652  14.051 -0.0692 -0.2169 -0.0829
48057SOL    HW161781   3.272   6.599  14.086  2.2516 -2.3318  1.9087
48057SOL    HW261782   3.374   6.603  13.974 -0.8228  0.7491 -1.0095
48058SOL     OW61783  11.144   5.891  10.769  0.3472 -0.1184 -0.2686
48058SOL    HW161784  11.148   5.797  10.784 -0.5354 -0.0515  0.4475
48058SOL    HW261785  11.058   5.918  10.802  1.0243  1.1103  0.5912
48059SOL     OW61786  12.521   9.092  13.003 -0.2845  0.0747 -0.6275
48059SOL    HW161787  12.426   9.084  13.003 -0.2170 -0.9896 -0.1039
48059SOL    HW261788  12.540   9.160  13.067 -0.6074 -1.4570  1.1648
48060SOL     OW61789   8.157   2.889   2.316  0.7219 -0.2227 -0.3690
48060SOL    HW161790   8.101   2.820   2.281  0.6595 -0.7230  0.6659
48060SOL    HW261791   8.108   2.923   2.392  1.8087 -0.6919  0.5726
48061SOL     OW61792  10.991   9.755   9.991  0.2049  0.1176  0.0387
48061SOL    HW161793  10.967   9.731   9.901 -0.8450 -0.3926  0.4394
48061SOL    HW261794  10.911   9.743  10.041  1.2342 -1.4896  1.4218
48062SOL     OW61795   6.448   1.486   9.962  0.3202  0.4822 -0.2208
48062SOL    HW161796   6.353   1.477   9.972  0.3347 -1.1333 -1.1802
48062SOL    HW261797   6.461   1.576   9.933 -0.8387  0.9604  0.6662
48063SOL     OW61798   3.352   3.248   0.334  0.1629  0.0331 -0.6507
48063SOL    HW161799   3.306   3.207   0.260  1.2008 -1.1208 -0.7006
48063SOL    HW261800   3.310   3.211   0.411 -3.3029  3.8135 -0.4103
48064SOL     OW61801   1.149   7.143   4.138  0.2704 -0.1325  0.1238
48064SOL    HW161802   1.144   7.067   4.197  1.3379  0.4201  0.9685
48064SOL    HW261803   1.058   7.170   4.126 -0.0335 -0.8142  0.7859
48065SOL     OW61804   1.468   7.055   1.829 -0.4852 -0.0087  0.3011
48065SOL    HW161805   1.531   7.021   1.766 -1.5511 -0.7261 -0.4234
48065SOL    HW261806   1.521   7.097   1.897  0.7123  0.2877 -0.7844
48066SOL     OW61807   6.002   6.455   0.743 -0.0631  0.2898  0.1898
48066SOL    HW161808   5.945   6.386   0.777  0.0522  0.0627 -0.0647
48066SOL    HW261809   5.945   6.531   0.735 -1.0277 -0.5674 -2.4202
48067SOL     OW61810  12.158   3.746  11.731 -0.4751 -0.6920  0.3694
48067SOL    HW161811  12.192   3.769  11.644 -0.1891  1.3351  0.9535
48067SOL    HW261812  12.141   3.652  11.726  2.4690 -1.2692 -0.8846
48068SOL     OW61813   9.935   2.051  11.861 -0.1041 -0.2413  0.0054
48068SOL    HW161814   9.915   1.969  11.905 -0.1837  0.3559  1.1250
48068SOL    HW261815   9.967   2.025  11.774  0.0938 -1.4533  0.4248
48069SOL     OW61816  11.203  11.602   5.681 -0.2938 -0.0809  0.1044
48069SOL    HW161817  11.266  11.532   5.700 -0.9319 -0.5745  0.4519
48069SOL    HW261818  11.168  11.580   5.595 -0.9174 -0.5167  0.4648
48070SOL     OW61819   5.893   0.047  12.182 -0.0563 -1.1853  0.0575
48070SOL    HW161820   5.917  -0.024  12.241  1.3811 -1.9609 -1.3604
48070SOL    HW261821   5.842   0.005  12.113 -1.4375 -0.3554  0.5345
48071SOL     OW61822  10.832  12.302   7.660 -0.3589 -0.4889 -0.2588
48071SOL    HW161823  10.896  12.243   7.700 -0.4911 -0.6019 -0.2125
48071SOL    HW261824  10.876  12.386   7.656 -1.2592  0.2397  2.7010
48072SOL     OW61825  10.164   2.418   5.763 -0.2537  0.6871  0.4275
48072SOL    HW161826  10.212   2.393   5.684  0.9065  1.9449  0.7003
48072SOL    HW261827  10.072   2.408   5.739  0.0868 -1.5519 -0.1982
48073SOL     OW61828   3.403   3.548   3.829  0.2096 -0.2129  0.5367
48073SOL    HW161829   3.357   3.546   3.746  2.1243 -0.3720 -0.5914
48073SOL    HW261830   3.397   3.639   3.858 -0.3841 -0.1394  0.1905
48074SOL     OW61831   2.532   5.347   6.959 -0.2092  0.5027 -0.0310
48074SOL    HW161832   2.595   5.415   6.935 -1.9943  2.0965 -0.4572
48074SOL    HW261833   2.585   5.270   6.977  1.7489  1.3854 -1.6783
48075SOL     OW61834  10.257   2.077   3.122  0.3502 -0.1682  0.4206
48075SOL    HW161835  10.259   2.160   3.170  0.5396 -0.0835  0.2694
48075SOL    HW261836  10.327   2.025   3.161  0.9942  0.1742 -0.2401
48076SOL     OW61837  11.675  10.826   3.819  0.0614 -0.1899 -0.4906
48076SOL    HW161838  11.622  10.752   3.851  0.1270  0.7280  1.9645
48076SOL    HW261839  11.611  10.895   3.802  0.1333 -0.3357 -1.3914
48077SOL     OW61840   1.094  13.686  12.678 -0.4080  0.5102 -0.2203
48077SOL    HW161841   1.042  13.749  12.629  1.0050  1.9734  0.0509
48077SOL    HW261842   1.126  13.624  12.613 -2.1031 -0.1852 -0.4400
48078SOL     OW61843   1.801  12.224   1.840 -0.4499  0.5249 -0.0878
48078SOL    HW161844   1.799  12.150   1.779 -0.1805  0.4900 -0.0559
48078SOL    HW261845   1.718  12.217   1.888 -0.0622 -0.2686  0.5051
48079SOL     OW61846   6.897   6.712  12.797  0.0010 -0.6218 -0.1546
48079SOL    HW161847   6.985   6.740  12.775 -0.7832  0.0851 -2.6898
48079SOL    HW261848   6.873   6.651  12.727 -2.5227  1.4516 -1.2780
48080SOL     OW61849   0.263  11.156   8.432 -0.1239 -0.0171 -0.0922
48080SOL    HW161850   0.210  11.152   8.352  0.6007 -0.3413 -0.5661
48080SOL    HW261851   0.319  11.232   8.420  0.4735 -0.4653 -0.2140
48081SOL     OW61852   3.080   1.192   3.049  0.6436  0.2029  0.0124
48081SOL    HW161853   3.124   1.176   3.133  0.5858  2.2161  0.4920
48081SOL    HW261854   3.106   1.118   2.994 -1.0568 -2.3583  2.4091
48082SOL     OW61855   8.170  11.581  13.550 -0.2845 -0.3141 -0.0749
48082SOL    HW161856   8.139  11.530  13.475 -0.7825 -0.3135  0.1316
48082SOL    HW261857   8.178  11.670  13.516  0.4323 -0.4826 -0.3916
48083SOL     OW61858   7.937   4.175  12.980  0.3986 -0.1581 -0.4607
48083SOL    HW161859   7.895   4.122  12.912 -0.7804 -0.5218  0.5201
48083SOL    HW261860   7.865   4.205  13.035  1.3365  0.0369  0.6957
48084SOL     OW61861  11.538   5.030  10.903 -0.4631  0.2132 -0.6708
48084SOL    HW161862  11.574   4.946  10.873  0.7607  0.2073  0.7418
48084SOL    HW261863  11.586   5.096  10.854  2.2194  0.2445  1.7769
48085SOL     OW61864   4.293   9.363   1.413  0.2438  0.0948 -0.0706
48085SOL    HW161865   4.294   9.285   1.357 -1.5278 -1.9511  2.4700
48085SOL    HW261866   4.208   9.359   1.458 -0.4328  4.1832 -0.5782
48086SOL     OW61867   2.189   0.479  13.671 -0.5440 -0.1137 -0.0866
48086SOL    HW161868   2.222   0.409  13.727  0.5463  1.9144  1.9558
48086SOL    HW261869   2.268   0.519  13.635 -0.9403  1.7584  1.0082
48087SOL     OW61870   2.293   9.768  10.131  0.4357  0.0124  0.6090
48087SOL    HW161871   2.203   9.779  10.100  0.1684  1.9228  1.9309
48087SOL    HW261872   2.294   9.806  10.219  2.7398  0.9162  0.2836
48088SOL     OW61873   4.479   2.951  10.776 -0.0185  0.1575  0.3101
48088SOL    HW161874   4.520   2.953  10.690 -0.2065 -0.0639  0.2129
48088SOL    HW261875   4.513   2.872  10.818 -2.0247 -1.3183 -0.6343
48089SOL     OW61876   6.173   0.911   3.070 -0.6383 -0.2962  0.0195
48089SOL    HW161877   6.079   0.916   3.052 -0.8614 -0.5777  1.0700
48089SOL    HW261878   6.202   0.832   3.024 -1.3001 -1.2961  1.2755
48090SOL     OW61879   8.295   0.475  11.539  0.5547  0.7916 -0.3411
48090SOL    HW161880   8.260   0.556  11.576 -0.9194  0.0522 -0.0361
48090SOL    HW261881   8.226   0.443  11.481  1.1432 -0.1909 -0.5183
48091SOL     OW61882   2.760   3.213  10.845 -0.6062 -0.2440  0.2369
48091SOL    HW161883   2.664   3.214  10.846 -0.6463  0.6087 -1.2851
48091SOL    HW261884   2.784   3.137  10.898 -2.1211 -0.5660  0.5054
48092SOL     OW61885   0.463   5.810   3.496 -0.0714 -0.6289 -0.1646
48092SOL    HW161886   0.434   5.894   3.461 -1.4529 -0.7724  0.5620
48092SOL    HW261887   0.550   5.827   3.532  0.0351  0.2601 -0.8179
48093SOL     OW61888   8.027   9.920   6.671  0.2701 -0.5267  0.2273
48093SOL    HW161889   8.087   9.886   6.604 -0.4782 -0.7309 -0.3555
48093SOL    HW261890   8.081   9.928   6.750  0.9046 -1.3202 -0.1132
48094SOL     OW61891  10.919   8.878   3.141 -0.5059 -0.1361 -0.2182
48094SOL    HW161892  11.005   8.885   3.099  0.3596 -0.9717  1.3156
48094SOL    HW261893  10.905   8.964   3.182 -0.6300  0.1603 -0.8764
48095SOL     OW61894   9.779   0.672   0.850 -0.5126  0.3408  0.1077
48095SOL    HW161895   9.710   0.703   0.909 -1.6364 -0.3178 -0.8129
48095SOL    HW261896   9.762   0.716   0.767 -1.3188 -1.5761 -0.8236
48096SOL     OW61897  10.143   6.396  13.286  0.2238 -0.4395 -0.3927
48096SOL    HW161898  10.164   6.490  13.291  1.2600 -0.5423 -2.0583
48096SOL    HW261899  10.050   6.391  13.307  0.4332  0.7846  1.0459
48097SOL     OW61900   2.688   4.972   6.643 -0.6860 -0.2004  0.3173
48097SOL    HW161901   2.614   4.964   6.583 -0.4267 -0.7758  0.0620
48097SOL    HW261902   2.750   5.030   6.599 -0.7622 -0.1314  0.3019
48098SOL     OW61903  13.541   7.434  13.727  0.6868  0.1745 -0.2106
48098SOL    HW161904  13.512   7.409  13.640  1.2636 -1.2682 -0.0135
48098SOL    HW261905  13.627   7.394  13.736  2.0679  2.9674 -0.1610
48099SOL     OW61906   9.055   2.808   3.719  0.0469  0.3037 -0.7569
48099SOL    HW161907   9.065   2.898   3.687 -1.7329  0.7030 -0.3000
48099SOL    HW261908   9.140   2.787   3.757  0.0796  2.3864  0.5058
48100SOL     OW61909   6.369   6.617   8.836 -0.4017 -0.0492  0.1319
48100SOL    HW161910   6.330   6.635   8.750 -1.6763 -1.0920  0.4533
48100SOL    HW261911   6.403   6.702   8.864 -1.7805  0.7754 -0.5343
48101SOL     OW61912   5.690  12.259   1.246 -0.2138 -0.5170 -0.3302
48101SOL    HW161913   5.746  12.327   1.208 -0.8586 -0.3174 -0.9501
48101SOL    HW261914   5.609  12.305   1.269  0.2770 -0.5466  1.6620
48102SOL     OW61915   8.495   4.699   1.488  0.1042 -0.1340 -0.1343
48102SOL    HW161916   8.543   4.738   1.561 -1.2185  0.1364  0.6184
48102SOL    HW261917   8.443   4.771   1.452  0.3575 -0.3863 -1.0284
48103SOL     OW61918   8.226  10.827  12.576  0.0373 -0.9192 -0.2365
48103SOL    HW161919   8.218  10.887  12.651  1.8210  0.8666 -1.3563
48103SOL    HW261920   8.242  10.742  12.616 -0.6320 -0.3238  1.4253
48104SOL     OW61921   4.442   7.521  13.236  0.1217 -0.5145 -0.4168
48104SOL    HW161922   4.475   7.456  13.175  0.1664 -0.6757 -0.2208
48104SOL    HW261923   4.514   7.536  13.297 -0.9808 -2.7944  1.6133
48105SOL     OW61924  12.925  10.374   8.837 -0.2223  0.1031 -0.0494
48105SOL    HW161925  12.844  10.410   8.801 -0.1157 -0.2623 -0.6688
48105SOL    HW261926  12.906  10.360   8.930 -1.3389 -1.2545 -0.4528
48106SOL     OW61927   9.464   1.726  12.678 -0.2245  0.1706 -0.0761
48106SOL    HW161928   9.459   1.779  12.759 -0.7071 -2.0030  1.3984
48106SOL    HW261929   9.380   1.682  12.673  0.3230 -0.8201 -0.9923
48107SOL     OW61930  12.150   8.406   1.405 -0.7254  0.0374  0.6541
48107SOL    HW161931  12.117   8.454   1.481  1.0174 -0.5999  1.8735
48107SOL    HW261932  12.244   8.395   1.422 -0.2565 -0.0638 -1.6345
48108SOL     OW61933   2.812   0.566   8.884  0.1164  0.4666 -0.5076
48108SOL    HW161934   2.891   0.620   8.893  0.8558 -0.6527 -0.0205
48108SOL    HW261935   2.842   0.477   8.902 -0.8628 -0.2630 -2.2517
48109SOL     OW61936   3.214   4.222   8.367  0.2627 -0.4031  0.1241
48109SOL    HW161937   3.160   4.293   8.332 -1.1700 -1.5442 -0.0438
48109SOL    HW261938   3.303   4.259   8.368  0.1981  0.1903 -3.4192
48110SOL     OW61939   0.591   3.724   8.654  0.0438 -0.1860  0.6724
48110SOL    HW161940   0.535   3.663   8.703 -1.5254 -0.1220 -0.9544
48110SOL    HW261941   0.534   3.797   8.634  0.6122 -0.2428 -1.3056
48111SOL     OW61942  14.066  11.572  11.138 -0.0230 -0.2385  0.5592
48111SOL    HW161943  14.027  11.490  11.168 -3.1421 -0.4663 -3.3082
48111SOL    HW261944  14.151  11.546  11.102  0.7504 -0.9789  2.7117
48112SOL     OW61945   3.036   3.653   1.050 -0.2701 -0.3974 -0.0546
48112SOL    HW161946   2.991   3.601   0.983  0.9295 -1.0333 -0.3907
48112SOL    HW261947   2.968   3.713   1.083 -1.3527 -1.2986 -0.5568
48113SOL     OW61948   9.569  12.050   5.993  0.7865 -0.9390 -0.0026
48113SOL    HW161949   9.486  12.024   5.952  0.0357  0.4691  0.5817
48113SOL    HW261950   9.635  12.026   5.928 -0.0421 -2.2427 -0.4177
48114SOL     OW61951   8.383  12.485   4.327  0.0116  0.2289 -0.0928
48114SOL    HW161952   8.412  12.420   4.263 -2.0836 -2.0423  1.1204
48114SOL    HW261953   8.448  12.479   4.397  0.3509  0.1748 -0.4041
48115SOL     OW61954  13.896  12.305  12.579  0.2364  0.2753  0.2245
48115SOL    HW161955  13.912  12.395  12.607  2.4152  0.4097 -1.2437
48115SOL    HW261956  13.970  12.283  12.522  0.5561 -2.9363  1.6257
48116SOL     OW61957  10.120   5.414   2.064  0.1645  0.5015 -0.3227
48116SOL    HW161958  10.076   5.347   2.011  1.9139 -0.4292 -0.6437
48116SOL    HW261959  10.174   5.364   2.125  1.8390  1.5843 -0.8550
48117SOL     OW61960  10.687  10.431  13.513  0.1712 -0.7810 -0.1688
48117SOL    HW161961  10.619  10.497  13.516  0.6711 -0.2750  0.7879
48117SOL    HW261962  10.667  10.377  13.437 -0.1937  0.5297 -1.0170
48118SOL     OW61963   3.133   7.805  11.407  0.3080 -0.1053  0.2922
48118SOL    HW161964   3.156   7.898  11.409 -0.5196  0.1459 -0.8549
48118SOL    HW261965   3.203   7.762  11.455 -0.4164  1.3265  2.7948
48119SOL     OW61966   0.096  11.623   0.693  0.3925  0.1722 -0.1577
48119SOL    HW161967   0.092  11.602   0.600 -0.3802 -0.1693 -0.0510
48119SOL    HW261968   0.083  11.718   0.697  0.3297  0.1734 -0.3900
48120SOL     OW61969   5.017  11.290   1.081 -0.3324 -0.9726  0.2180
48120SOL    HW161970   4.945  11.265   1.138 -1.6391 -1.6567 -1.6244
48120SOL    HW261971   4.983  11.275   0.992  1.1321  1.2305 -0.7985
48121SOL     OW61972   0.479   4.089   7.390 -0.4733  0.0894 -0.4899
48121SOL    HW161973   0.441   4.020   7.444 -0.8570  1.0791  0.5314
48121SOL    HW261974   0.518   4.150   7.452  0.8940  0.2218 -1.4198
48122SOL     OW61975   6.285   3.970  12.827  0.0456 -0.1522 -0.5216
48122SOL    HW161976   6.340   3.892  12.823 -2.4689 -2.1545  0.4917
48122SOL    HW261977   6.285   3.994  12.920 -0.6474 -0.1124 -0.5267
48123SOL     OW61978   5.365   4.786   8.193 -0.4603 -0.2119  0.5360
48123SOL    HW161979   5.288   4.841   8.196  0.0994  0.7749 -1.5077
48123SOL    HW261980   5.346   4.722   8.125  0.4827 -0.0072  0.0661
48124SOL     OW61981  13.327  10.258  12.922 -0.0650 -0.4360  0.1933
48124SOL    HW161982  13.397  10.197  12.946 -0.2254 -1.7719 -2.2993
48124SOL    HW261983  13.301  10.299  13.004  2.1581 -1.4847  1.5202
48125SOL     OW61984  12.244  11.585   7.229  0.5506 -0.3934 -0.2800
48125SOL    HW161985  12.271  11.595   7.320 -1.1421  0.1174  0.2035
48125SOL    HW261986  12.174  11.519   7.232 -0.4097  0.5554 -1.0003
48126SOL     OW61987   0.746  11.978   9.498  0.6890  0.1688 -0.2745
48126SOL    HW161988   0.739  12.060   9.449  0.8582  0.2286 -0.2005
48126SOL    HW261989   0.835  11.979   9.534  0.2272  0.6058  0.8929
48127SOL     OW61990  13.540   3.513   1.274  0.2621  0.0190 -0.0520
48127SOL    HW161991  13.453   3.504   1.313  0.8565  0.7027  1.4714
48127SOL    HW261992  13.566   3.603   1.292  2.0334 -0.6792  1.1185
48128SOL     OW61993  11.960   5.835   0.513 -0.2352  0.3494  0.2364
48128SOL    HW161994  11.963   5.930   0.525  1.9261  0.4749 -0.8080
48128SOL    HW261995  11.946   5.823   0.419  0.1519 -0.3630  0.2642
48129SOL     OW61996  10.517  13.505   8.634 -0.0645  0.5118 -0.0987
48129SOL    HW161997  10.475  13.432   8.589  1.3887 -0.3364 -0.1565
48129SOL    HW261998  10.553  13.466   8.714  0.7966  1.1505 -0.1611
48130SOL     OW61999  13.673   8.365   3.293  0.1391  0.2866  0.7087
48130SOL    HW162000  13.670   8.274   3.323 -0.0294 -0.5721 -1.6916
48130SOL    HW262001  13.766   8.385   3.288  0.2012  0.0009  0.6498
48131SOL     OW62002   1.426  13.826   7.652 -0.3952 -0.0334  0.6558
48131SOL    HW162003   1.363  13.837   7.723  0.9236  1.4396  1.6727
48131SOL    HW262004   1.469  13.742   7.670  0.0018  0.3746  1.6993
48132SOL     OW62005  11.260   2.614  12.739 -0.2400 -0.3702  0.0450
48132SOL    HW162006  11.356   2.609  12.740 -0.2441 -2.6184 -1.3581
48132SOL    HW262007  11.240   2.698  12.699  1.1809 -0.2194 -0.3962
48133SOL     OW62008   5.465  11.142  11.003 -0.0325 -0.7770 -0.2812
48133SOL    HW162009   5.435  11.231  10.984 -0.6881 -1.0882 -0.7215
48133SOL    HW262010   5.386  11.088  10.997  0.3032 -1.3452  0.2960
48134SOL     OW62011   4.782   6.220   2.776  0.1510  0.1620 -0.8905
48134SOL    HW162012   4.759   6.219   2.683  0.0472 -0.1538 -0.8623
48134SOL    HW262013   4.877   6.220   2.777  0.1575 -0.5651 -0.9933
48135SOL     OW62014   6.201   7.765   1.111  0.6068  0.1951 -0.0965
48135SOL    HW162015   6.285   7.761   1.156 -0.0626 -2.5847  1.1222
48135SOL    HW262016   6.223   7.780   1.019  2.1789  2.7647  0.6002
48136SOL     OW62017   2.192   5.433   8.156 -0.0334 -0.1517 -0.3133
48136SOL    HW162018   2.205   5.424   8.062  0.8918  2.2722 -0.4927
48136SOL    HW262019   2.104   5.469   8.165 -0.1924 -0.5569 -0.2284
48137SOL     OW62020   0.875  13.438   0.722 -0.0099  0.2689 -0.1229
48137SOL    HW162021   0.830  13.508   0.675 -0.2374 -0.3586 -0.8828
48137SOL    HW262022   0.850  13.358   0.674  0.4580 -0.2949  0.5512
48138SOL     OW62023  13.544   1.883  13.181  0.1897 -0.0674  0.4580
48138SOL    HW162024  13.463   1.931  13.195  0.2823  0.0799  0.4900
48138SOL    HW262025  13.582   1.922  13.102 -0.0413 -0.5047  0.1247
48139SOL     OW62026   8.834   9.082  10.669 -0.7654 -0.4629  0.2110
48139SOL    HW162027   8.774   9.069  10.742 -1.7652  2.2242 -0.0194
48139SOL    HW262028   8.792   9.149  10.615  2.4837  1.7636  0.1383
48140SOL     OW62029   7.218  10.318   6.026  0.1772  0.5482 -0.0476
48140SOL    HW162030   7.226  10.274   5.941  0.0614  0.4170  0.0084
48140SOL    HW262031   7.251  10.255   6.089  0.7766  0.8543 -0.0493
48141SOL     OW62032   0.417  14.055  10.132 -0.6890  0.2337 -0.5079
48141SOL    HW162033   0.400  14.149  10.124 -0.5288  0.3020 -0.0690
48141SOL    HW262034   0.474  14.048  10.208 -1.2373 -0.2888 -0.1391
48142SOL     OW62035   3.605   2.696  10.766 -0.4156 -0.5344  0.2240
48142SOL    HW162036   3.664   2.625  10.741 -0.4726 -0.7877  0.7941
48142SOL    HW262037   3.627   2.714  10.858 -1.3749 -0.7901  0.5145
48143SOL     OW62038   2.285   8.463   5.526 -0.0281  0.1506 -0.0755
48143SOL    HW162039   2.327   8.521   5.589 -0.1319  0.9490 -0.7236
48143SOL    HW262040   2.192   8.467   5.548  0.0737 -0.6819  0.5969
48144SOL     OW62041   9.667  10.884   1.268  0.2978 -0.5129 -0.0033
48144SOL    HW162042   9.761  10.900   1.271  0.7191 -2.0908 -2.0721
48144SOL    HW262043   9.630  10.967   1.237  0.9948  0.1276  0.8498
48145SOL     OW62044  10.382   9.575   1.112  0.0345  0.1910  0.9994
48145SOL    HW162045  10.288   9.561   1.123 -0.3192  1.6189  0.0709
48145SOL    HW262046  10.419   9.564   1.199 -0.9662 -0.5625  1.3407
48146SOL     OW62047   3.217   0.753  12.936  0.4774 -0.0757 -0.0439
48146SOL    HW162048   3.290   0.752  12.874  0.5365 -1.3807  0.0079
48146SOL    HW262049   3.223   0.668  12.981 -2.1570 -1.0808 -1.3733
48147SOL     OW62050   9.116   4.817   5.477 -0.5831  0.3596 -0.0287
48147SOL    HW162051   9.038   4.872   5.471  0.0853  1.5041  1.1504
48147SOL    HW262052   9.128   4.783   5.388 -2.2780  0.3235 -0.2839
48148SOL     OW62053  11.437   7.961   3.773  0.3778  0.3239 -0.0822
48148SOL    HW162054  11.359   7.935   3.724  0.4580 -0.0332 -0.0225
48148SOL    HW262055  11.411   8.042   3.819  0.2318  0.5289 -0.5233
48149SOL     OW62056   9.524   6.641  13.751  0.0272  0.5142 -0.1096
48149SOL    HW162057   9.480   6.725  13.767  0.0358  0.6154 -0.5791
48149SOL    HW262058   9.459   6.575  13.776 -0.2824  0.6639 -0.4990
48150SOL     OW62059   4.596   4.856   3.280  0.2182  0.1861  0.0698
48150SOL    HW162060   4.655   4.922   3.243 -2.1769  3.2015  1.1218
48150SOL    HW262061   4.618   4.854   3.374 -1.9035  2.2613  0.7224
48151SOL     OW62062   6.483  11.029  10.735  0.1517 -0.3399 -0.0887
48151SOL    HW162063   6.551  11.000  10.674  0.1895  1.2654 -0.8685
48151SOL    HW262064   6.413  10.965  10.725  0.6846 -0.8210 -0.8802
48152SOL     OW62065   2.012  11.588   2.993  0.0534  0.0856  0.2839
48152SOL    HW162066   2.085  11.586   3.055  2.1324  1.8439 -1.9116
48152SOL    HW262067   1.990  11.496   2.978  1.1582 -0.4444  1.7043
48153SOL     OW62068  12.579   9.086  12.410  0.3396 -0.2241 -0.0435
48153SOL    HW162069  12.589   9.109  12.502 -0.1862  2.9530 -0.6485
48153SOL    HW262070  12.632   9.151  12.363  1.1383 -2.1643 -1.9884
48154SOL     OW62071   5.457   1.748   4.359 -0.2229 -0.0489 -0.6819
48154SOL    HW162072   5.532   1.778   4.308 -0.3086  0.2297 -0.6411
48154SOL    HW262073   5.381   1.768   4.304 -0.2686 -0.3645 -0.7404
48155SOL     OW62074   8.579  13.369   6.021  0.6360  0.0273 -0.3722
48155SOL    HW162075   8.546  13.409   5.941 -0.3709  3.3523  1.4937
48155SOL    HW262076   8.507  13.315   6.053  0.1133  0.6305 -0.5138
48156SOL     OW62077   6.416   3.563   3.355  0.3569  0.4993  0.2807
48156SOL    HW162078   6.463   3.588   3.435 -0.4399  2.5703  0.1476
48156SOL    HW262079   6.328   3.540   3.386  0.5484 -0.4075  0.1780
48157SOL     OW62080   4.645  11.942   1.311 -0.1967 -0.2918 -0.4195
48157SOL    HW162081   4.601  12.011   1.262  0.5996  0.9243  0.5278
48157SOL    HW262082   4.694  11.988   1.379 -1.0902 -1.8938  1.4103
48158SOL     OW62083  10.649   6.963   1.286 -0.1419  0.0454  0.0411
48158SOL    HW162084  10.732   7.001   1.257  1.1307 -0.5205  2.6458
48158SOL    HW262085  10.617   6.916   1.209  1.3595  1.1729 -1.3732
48159SOL     OW62086   2.520   9.583  12.183  0.2489  0.4390  0.0176
48159SOL    HW162087   2.459   9.511  12.169 -0.4392  1.0073 -0.0138
48159SOL    HW262088   2.582   9.577  12.110  0.3160 -0.2350  0.1297
48160SOL     OW62089   6.777   2.542  11.130 -0.1087  0.5635  0.5776
48160SOL    HW162090   6.764   2.466  11.073 -0.8344  0.2733  1.1199
48160SOL    HW262091   6.752   2.511  11.217 -0.3246  1.4052  0.8222
48161SOL     OW62092  12.866  10.934  13.676  0.8401  0.1754 -0.3512
48161SOL    HW162093  12.855  10.932  13.580  1.3038  1.5919 -0.4556
48161SOL    HW262094  12.876  11.027  13.697  0.2877 -0.0812  1.1413
48162SOL     OW62095  12.205   2.976  11.653 -0.5308 -0.2363 -0.8988
48162SOL    HW162096  12.110   2.987  11.648 -0.2073  2.7763 -2.5945
48162SOL    HW262097  12.225   2.986  11.746 -1.8780 -1.6083 -0.4101
48163SOL     OW62098   1.504   9.672   2.673 -0.1624  0.1452 -0.3641
48163SOL    HW162099   1.570   9.738   2.695  0.7659 -0.0836 -2.2475
48163SOL    HW262100   1.555   9.595   2.649 -1.2302 -1.4450  2.1278
48164SOL     OW62101   1.485   4.782  11.758  0.5591 -0.1978 -0.2243
48164SOL    HW162102   1.462   4.843  11.689 -1.4573 -1.8070 -1.0538
48164SOL    HW262103   1.413   4.787  11.821  1.0685 -0.6804  0.4273
48165SOL     OW62104  10.321   8.728  12.921 -0.1396 -0.1719 -0.1237
48165SOL    HW162105  10.369   8.736  12.839  2.1244  0.5999  1.1934
48165SOL    HW262106  10.230   8.745  12.898  0.5951  1.1453 -2.2808
48166SOL     OW62107   4.210  11.134   9.913  0.6443 -0.1212 -0.2658
48166SOL    HW162108   4.118  11.134   9.890  0.5447 -0.4143  0.1262
48166SOL    HW262109   4.224  11.051   9.959  0.8803  0.3495  0.5343
48167SOL     OW62110   8.733   8.479   3.279  0.3629  0.0363 -0.1421
48167SOL    HW162111   8.695   8.503   3.194 -0.5265 -0.6070  0.0571
48167SOL    HW262112   8.684   8.401   3.305 -0.7745  1.3338  1.8670
48168SOL     OW62113  13.037   4.896   3.330 -0.1601 -0.1001  0.1390
48168SOL    HW162114  13.115   4.949   3.316 -1.8186  2.4907  0.0464
48168SOL    HW262115  13.014   4.865   3.242 -0.8271  1.6053 -0.3316
48169SOL     OW62116   5.434   1.978   2.319  0.3807  0.5840  0.4820
48169SOL    HW162117   5.372   1.910   2.344  0.9772 -0.4769 -0.8177
48169SOL    HW262118   5.385   2.035   2.259  0.3734  0.3137  0.2304
48170SOL     OW62119  13.890   2.280   3.333  0.8393 -0.2501  0.4545
48170SOL    HW162120  13.919   2.359   3.378  1.3035 -0.4783  0.5611
48170SOL    HW262121  13.795   2.289   3.328  0.9060  0.4142  0.2727
48171SOL     OW62122  10.283  10.732   5.620  0.6958  0.5811  0.4631
48171SOL    HW162123  10.305  10.671   5.690  0.8856 -0.0610 -0.1360
48171SOL    HW262124  10.305  10.685   5.540 -1.0069  0.6620 -0.1051
48172SOL     OW62125   6.608   7.555   3.528 -0.0283 -0.1676  0.5554
48172SOL    HW162126   6.697   7.558   3.563  0.1174 -0.4756  0.2086
48172SOL    HW262127   6.619   7.557   3.433 -0.3671 -0.8524  0.4998
48173SOL     OW62128  11.610   5.767   8.065  0.3741 -0.2035 -0.1442
48173SOL    HW162129  11.687   5.816   8.038 -0.4651  0.8150 -0.7491
48173SOL    HW262130  11.625   5.678   8.031  1.7133 -0.2879  0.6035
48174SOL     OW62131   9.963   7.756   1.618 -0.2057 -0.1785  0.4032
48174SOL    HW162132  10.050   7.754   1.579 -0.1843  0.4563  0.4115
48174SOL    HW262133   9.978   7.738   1.711 -0.0976 -0.2346  0.3746
48175SOL     OW62134  13.527   2.697   8.216 -0.3979 -0.4622 -0.5652
48175SOL    HW162135  13.473   2.633   8.170 -0.7095 -0.5003 -0.1544
48175SOL    HW262136  13.485   2.707   8.302 -0.7299  0.7830 -0.8530
48176SOL     OW62137   0.031   6.241   5.183 -0.0152 -0.2932 -0.0696
48176SOL    HW162138   0.064   6.284   5.262  0.5503 -0.6909 -0.0869
48176SOL    HW262139  -0.064   6.254   5.187  0.0321 -0.1087  0.5550
48177SOL     OW62140   4.877   4.094   4.074 -0.1181 -0.1505 -0.4556
48177SOL    HW162141   4.959   4.045   4.080 -0.0719 -0.2682 -1.6633
48177SOL    HW262142   4.819   4.054   4.139 -0.0796 -1.8425 -1.4078
48178SOL     OW62143   2.429   8.682   6.863  1.2973  0.5073 -0.5659
48178SOL    HW162144   2.440   8.679   6.958  0.9255 -0.6227 -0.5450
48178SOL    HW262145   2.433   8.775   6.841 -0.5207  0.9566  0.7767
48179SOL     OW62146   8.084   6.009   2.950  0.0524  0.4056 -0.0430
48179SOL    HW162147   7.990   6.016   2.935 -0.4920 -1.8228  1.7219
48179SOL    HW262148   8.114   5.942   2.889  0.2013  0.0863  0.3728
48180SOL     OW62149   4.973   0.783   3.311  0.1720 -0.1368  0.1153
48180SOL    HW162150   4.880   0.772   3.291  0.2947  1.5347 -1.7872
48180SOL    HW262151   4.977   0.786   3.406 -1.1973 -3.7791  0.4438
48181SOL     OW62152   3.694   9.241   6.195 -0.0949 -0.0473  0.3795
48181SOL    HW162153   3.756   9.244   6.268 -1.4299  1.2097  1.5470
48181SOL    HW262154   3.625   9.303   6.220 -0.3345  0.8800 -2.2285
48182SOL     OW62155  10.501   1.894   1.745 -0.1287  0.1728 -0.4456
48182SOL    HW162156  10.596   1.883   1.752  0.2294  3.0970  0.3437
48182SOL    HW262157  10.465   1.826   1.803  1.5158 -0.2704  0.1144
48183SOL     OW62158  10.435   8.813  13.138  0.1728  0.9776 -0.4694
48183SOL    HW162159  10.383   8.780  13.065 -0.9166  2.3612 -0.3702
48183SOL    HW262160  10.506   8.750  13.148 -1.7663 -1.2968 -0.2738
48184SOL     OW62161   1.319   7.961   0.471  0.6845  0.0341 -0.2829
48184SOL    HW162162   1.275   7.888   0.515 -0.1867  1.1184  0.7051
48184SOL    HW262163   1.294   7.952   0.379  0.9773 -1.1727 -0.2604
48185SOL     OW62164   2.951  10.278   9.418 -0.3718  0.3994 -0.2825
48185SOL    HW162165   2.958  10.183   9.413  1.2858  0.4462  0.5512
48185SOL    HW262166   3.000  10.310   9.342  0.4690  0.6039  0.3378
48186SOL     OW62167   4.553  13.481  11.200 -0.4767  0.1946  0.3513
48186SOL    HW162168   4.492  13.420  11.241 -3.0366  0.9021 -2.0399
48186SOL    HW262169   4.619  13.426  11.159 -1.7537 -0.9042 -0.2959
48187SOL     OW62170   3.069   5.439   8.079 -0.4145 -0.2842 -0.2153
48187SOL    HW162171   3.076   5.432   7.984 -1.7706  1.4710 -0.5031
48187SOL    HW262172   3.149   5.483   8.106 -1.2305  1.7586 -0.9430
48188SOL     OW62173   3.043   4.626   5.952  0.1535 -0.2869  0.9616
48188SOL    HW162174   3.078   4.715   5.956 -1.7870  0.5151  1.2895
48188SOL    HW262175   3.098   4.575   6.012  1.7793  0.4808  0.1870
48189SOL     OW62176   9.575   6.630   0.722 -0.0669 -0.1635 -0.4651
48189SOL    HW162177   9.658   6.589   0.699  0.1896  0.8689 -1.5183
48189SOL    HW262178   9.558   6.691   0.649 -1.2109  0.4052  0.2488
48190SOL     OW62179   9.488   2.589   0.435  0.7917  0.1723 -0.6828
48190SOL    HW162180   9.431   2.583   0.512 -2.2820 -1.1298 -2.8687
48190SOL    HW262181   9.534   2.505   0.433 -0.4479 -0.5256 -1.1448
48191SOL     OW62182   4.158   1.194   5.827  0.2478  0.0162 -0.1537
48191SOL    HW162183   4.103   1.183   5.750 -0.9718  1.6644  0.4372
48191SOL    HW262184   4.133   1.121   5.884  0.7253 -0.8615 -1.0405
48192SOL     OW62185   9.383   0.724  12.973  0.8003  0.4976 -0.2660
48192SOL    HW162186   9.304   0.672  12.987  1.5276 -1.8501 -3.5097
48192SOL    HW262187   9.350   0.809  12.943 -0.4014  1.3876  3.1326
48193SOL     OW62188   5.662  13.282   1.864 -0.3414 -0.1047  0.1027
48193SOL    HW162189   5.598  13.213   1.884  0.1686 -0.6090  0.0011
48193SOL    HW262190   5.623  13.361   1.901 -0.5295 -0.5969  0.9787
48194SOL     OW62191  12.599  13.772   9.265 -0.2426 -0.4723 -0.0776
48194SOL    HW162192  12.603  13.818   9.348 -1.9706 -1.6545  0.7008
48194SOL    HW262193  12.675  13.805   9.216  1.4901 -0.5618  2.3563
48195SOL     OW62194   8.170   2.840   6.793  0.3153  0.3205 -0.0134
48195SOL    HW162195   8.080   2.852   6.763 -0.9806  0.1848  3.3710
48195SOL    HW262196   8.173   2.749   6.824  2.0372 -0.0727 -1.1877
48196SOL     OW62197  11.488  13.004   3.855 -0.3234  0.1898  0.3643
48196SOL    HW162198  11.393  12.995   3.846 -0.2297 -1.6763  0.8269
48196SOL    HW262199  11.507  12.961   3.938  0.8100  1.6472  0.8996
48197SOL     OW62200   2.054   3.871   5.152  0.1012 -0.1535 -0.0807
48197SOL    HW162201   2.100   3.930   5.212 -0.1297  0.1473 -0.1985
48197SOL    HW262202   1.962   3.894   5.162 -0.0311 -0.7595  0.1632
48198SOL     OW62203   1.132  10.111   2.923 -0.2451  0.4953 -0.0838
48198SOL    HW162204   1.129  10.168   2.847 -1.0171  1.7945  0.8795
48198SOL    HW262205   1.043  10.075   2.930  0.0768 -0.3661 -0.3399
48199SOL     OW62206   0.313  11.425   3.350 -0.3045 -0.1763 -0.1914
48199SOL    HW162207   0.322  11.496   3.414 -1.3000 -1.4514  1.4530
48199SOL    HW262208   0.403  11.396   3.334 -0.0719 -0.3812  1.3278
48200SOL     OW62209   2.680   2.343  11.346  0.1303 -0.1906  0.7842
48200SOL    HW162210   2.708   2.274  11.287 -1.9529 -1.9879  1.7539
48200SOL    HW262211   2.742   2.340  11.418  2.7256  2.0544 -1.1440
48201SOL     OW62212   8.395   7.131   2.964  0.2689 -0.1131 -0.2005
48201SOL    HW162213   8.304   7.142   2.992  0.1891 -0.2572 -0.4016
48201SOL    HW262214   8.393   7.060   2.901  0.5937 -0.4256  0.1376
48202SOL     OW62215  13.672   7.335   9.167 -0.4399  0.0341 -0.2023
48202SOL    HW162216  13.607   7.340   9.097 -0.2818  0.9340 -0.2873
48202SOL    HW262217  13.629   7.284   9.236 -0.9319 -0.0752 -0.5848
48203SOL     OW62218   0.722  11.861  14.057  0.3710 -0.5178 -0.6247
48203SOL    HW162219   0.645  11.879  14.002 -1.8458 -0.3492  2.2608
48203SOL    HW262220   0.747  11.946  14.092 -0.4945 -0.9838  1.2517
48204SOL     OW62221   1.512   4.595   1.206 -0.6729 -0.0733  0.0354
48204SOL    HW162222   1.604   4.590   1.178 -0.6768  1.3883 -0.3234
48204SOL    HW262223   1.464   4.548   1.139 -0.3220  0.3966 -0.5561
48205SOL     OW62224   2.680   7.757   5.221  0.2143 -0.1408 -0.3161
48205SOL    HW162225   2.672   7.705   5.141  0.8035  1.3180 -1.3503
48205SOL    HW262226   2.598   7.806   5.226  0.7701  0.8464 -0.8122
48206SOL     OW62227  13.483   3.711  13.693  0.3402  0.5462  0.3319
48206SOL    HW162228  13.567   3.756  13.686 -0.2383  1.5892 -0.2662
48206SOL    HW262229  13.433   3.743  13.617 -0.2155 -0.8735  0.0724
48207SOL     OW62230   5.412   6.489   2.409  0.2350  0.5679 -0.0048
48207SOL    HW162231   5.472   6.423   2.443 -0.1049  0.4131  0.3019
48207SOL    HW262232   5.375   6.450   2.330 -0.1937  0.2637  0.3420
48208SOL     OW62233   4.567   4.336   6.361  0.1276  0.0015  0.2911
48208SOL    HW162234   4.526   4.308   6.280 -0.9775  0.4290  0.6819
48208SOL    HW262235   4.529   4.422   6.379 -2.0099 -1.2830  2.7875
48209SOL     OW62236   3.966   2.608   7.119 -0.1537 -0.3193 -0.0330
48209SOL    HW162237   3.999   2.686   7.074  1.2691 -2.0185 -2.1109
48209SOL    HW262238   3.986   2.623   7.211 -0.3793  1.9486 -0.2993
48210SOL     OW62239   2.738   8.866  13.285  0.1107 -0.1108  0.0319
48210SOL    HW162240   2.769   8.939  13.232  1.4713 -1.2454 -0.7755
48210SOL    HW262241   2.661   8.901  13.331  1.1773  2.0571  0.2839
48211SOL     OW62242   7.621  13.204   4.593  0.4299 -0.5031  0.0309
48211SOL    HW162243   7.691  13.249   4.545  2.3840 -2.1722  1.1236
48211SOL    HW262244   7.612  13.120   4.548 -0.2090 -0.6813  0.4881
48212SOL     OW62245   1.794   8.377  14.016  0.5506  0.0776  0.1078
48212SOL    HW162246   1.756   8.303  14.063  0.4846 -0.6666 -1.0831
48212SOL    HW262247   1.807   8.444  14.084  0.8226 -1.0924  1.2449
48213SOL     OW62248   1.895   8.806  10.844 -0.1503 -0.4034  0.3126
48213SOL    HW162249   1.860   8.781  10.929 -1.2767 -3.1575 -0.8332
48213SOL    HW262250   1.824   8.855  10.802 -0.9693 -2.0309 -0.2800
48214SOL     OW62251  11.804  10.816   9.863 -0.0104  0.0363 -0.0767
48214SOL    HW162252  11.892  10.794   9.834  0.6112  1.4438  0.6159
48214SOL    HW262253  11.785  10.900   9.821  0.0539  1.0437  1.7801
48215SOL     OW62254   1.445   8.009   2.670  0.5923  0.4400  0.0587
48215SOL    HW162255   1.432   7.914   2.668  1.3878  0.3343 -1.2237
48215SOL    HW262256   1.494   8.028   2.590  2.4114  1.6459  1.3850
48216SOL     OW62257   7.472  12.009   2.735 -0.0137 -0.1271  0.6366
48216SOL    HW162258   7.553  12.050   2.765  1.4922  0.8559 -4.0264
48216SOL    HW262259   7.403  12.057   2.780  1.8883  0.9995  2.5493
48217SOL     OW62260  11.326  10.854   0.725  0.1151  0.1481 -0.6100
48217SOL    HW162261  11.331  10.913   0.800  0.0286  0.2736 -0.7040
48217SOL    HW262262  11.397  10.881   0.668 -0.4610  0.7299 -1.0661
48218SOL     OW62263   2.375   4.481   9.633 -0.3721 -0.5447 -0.0878
48218SOL    HW162264   2.411   4.412   9.688 -1.9492 -0.9183  0.5419
48218SOL    HW262265   2.330   4.539   9.695 -1.2726 -0.3919 -0.8640
48219SOL     OW62266   7.670   4.076   4.340 -0.6497  0.2667  0.1580
48219SOL    HW162267   7.679   4.171   4.341 -1.5317  0.4399 -1.9236
48219SOL    HW262268   7.628   4.054   4.423 -0.8643  1.7597  0.4600
48220SOL     OW62269   1.534   7.777  13.917 -0.2966 -0.5027  0.0303
48220SOL    HW162270   1.516   7.859  13.872  0.7932 -0.5983 -0.5893
48220SOL    HW262271   1.584   7.725  13.855  0.9089 -0.7860  1.1945
48221SOL     OW62272   4.188   3.217  10.405 -0.1703 -0.4073 -0.3864
48221SOL    HW162273   4.111   3.221  10.462 -0.4736  0.0236 -0.8141
48221SOL    HW262274   4.259   3.252  10.458  0.0098 -1.9411  0.4368
48222SOL     OW62275   3.330   1.999  12.030  0.1221  0.5228 -0.1536
48222SOL    HW162276   3.256   1.952  11.992  0.1448  0.9963 -0.8071
48222SOL    HW262277   3.306   2.092  12.022 -0.3569  0.6328  1.9923
48223SOL     OW62278   0.449  11.781   5.683  0.3887 -0.0911 -0.3547
48223SOL    HW162279   0.359  11.799   5.707  0.2926 -0.9644 -0.0537
48223SOL    HW262280   0.494  11.764   5.766  0.3581 -1.7257 -0.6372
48224SOL     OW62281   6.674   9.210   8.656 -0.1477 -0.4981 -0.1899
48224SOL    HW162282   6.591   9.217   8.608 -0.3441  2.4069  0.3500
48224SOL    HW262283   6.648   9.186   8.745 -0.6037  1.2887  0.2130
48225SOL     OW62284   6.576   3.103   9.056  0.2109  0.5918 -0.2741
48225SOL    HW162285   6.607   3.100   8.965  0.1219 -1.6833 -0.2859
48225SOL    HW262286   6.656   3.099   9.108  0.2507  1.6725 -0.2400
48226SOL     OW62287   4.436   3.086   5.149 -0.2266 -0.1820  0.5704
48226SOL    HW162288   4.359   3.053   5.194 -1.4830 -0.9888 -1.9683
48226SOL    HW262289   4.471   3.011   5.101  1.5075  0.4309  0.7728
48227SOL     OW62290   3.001   2.637   7.496 -0.1115  0.1443  0.5078
48227SOL    HW162291   3.009   2.713   7.554 -0.8147  0.2809  0.4330
48227SOL    HW262292   3.091   2.613   7.475  0.1287  2.0295 -0.8628
48228SOL     OW62293   6.888   0.558   5.315 -0.0417  0.2632  0.6031
48228SOL    HW162294   6.833   0.545   5.392 -0.7717  1.2468  0.2847
48228SOL    HW262295   6.932   0.642   5.331  0.9237 -0.2368  0.5923
48229SOL     OW62296   8.548   0.353   9.427  0.1715 -0.1881  0.2017
48229SOL    HW162297   8.493   0.315   9.496  0.2748  0.5462  0.7105
48229SOL    HW262298   8.583   0.278   9.380 -0.9751 -0.6819  0.0998
48230SOL     OW62299   5.895   6.265   0.541  0.6481  0.1790  0.0934
48230SOL    HW162300   5.936   6.236   0.622  1.0583  2.2606  0.7047
48230SOL    HW262301   5.802   6.271   0.562 -0.0308 -3.6933 -1.0354
48231SOL     OW62302   2.060   9.641   1.258  0.0444  0.2805  0.2049
48231SOL    HW162303   2.066   9.564   1.202 -1.7138  0.3910 -0.1961
48231SOL    HW262304   1.973   9.678   1.239  0.2005  1.4427  1.5691
48232SOL     OW62305   4.340   9.836   2.160 -0.1757  0.3369 -0.8898
48232SOL    HW162306   4.314   9.781   2.086 -0.9045  0.0095 -0.4008
48232SOL    HW262307   4.264   9.834   2.219 -0.0732  1.5654 -0.6908
48233SOL     OW62308  10.053   5.133   1.632  0.2566 -0.3312  0.4216
48233SOL    HW162309  10.118   5.203   1.621 -0.4316  0.1626 -0.6764
48233SOL    HW262310  10.069   5.075   1.557 -0.8625  0.0550 -0.1377
48234SOL     OW62311   7.263   2.175   5.205 -0.0058 -0.1836 -0.0534
48234SOL    HW162312   7.179   2.203   5.241 -0.3762  2.1787 -2.4537
48234SOL    HW262313   7.244   2.094   5.158 -0.7666 -0.1154  0.1251
48235SOL     OW62314   2.653  10.137   3.914  0.2821 -0.2565  0.2335
48235SOL    HW162315   2.628  10.215   3.864  1.1841  0.0136  0.1885
48235SOL    HW262316   2.571  10.089   3.926 -0.5394  1.2980  1.2961
48236SOL     OW62317   2.178   0.331  10.480 -0.8530 -0.0485 -0.0256
48236SOL    HW162318   2.140   0.349  10.394  0.6549  1.1704 -0.4904
48236SOL    HW262319   2.153   0.406  10.533 -1.1301 -0.4277  0.3841
48237SOL     OW62320   6.540   8.891  13.290 -0.2848 -0.8346 -0.1065
48237SOL    HW162321   6.576   8.867  13.205  0.7931  1.3532 -0.3303
48237SOL    HW262322   6.609   8.943  13.331 -1.3724 -0.5947  1.4934
48238SOL     OW62323   3.100   1.482  13.774  0.4400  0.1020 -0.5266
48238SOL    HW162324   3.076   1.539  13.700  0.8930  0.5243 -0.3587
48238SOL    HW262325   3.184   1.444  13.748 -1.1498 -2.7502 -1.8895
48239SOL     OW62326  10.384  12.938   0.644  0.0310 -0.1054  0.0591
48239SOL    HW162327  10.412  12.994   0.717  0.7757 -3.3627  2.5439
48239SOL    HW262328  10.289  12.940   0.648  0.0333 -0.9291  1.8864
48240SOL     OW62329   8.594  12.656   5.436 -0.4827  0.1961 -0.2985
48240SOL    HW162330   8.628  12.645   5.525  2.3483 -0.7260 -1.3743
48240SOL    HW262331   8.621  12.576   5.390 -2.2258  0.4604 -1.9408
48241SOL     OW62332   6.628  13.654   9.168  0.2203 -0.5410 -0.6578
48241SOL    HW162333   6.600  13.741   9.138 -0.3965 -0.5855 -0.2264
48241SOL    HW262334   6.624  13.659   9.263 -2.6377 -1.8991 -0.6091
48242SOL     OW62335   5.071  10.205   8.948 -0.7273 -0.3966 -0.2428
48242SOL    HW162336   5.047  10.290   8.910 -2.0184 -0.4746  0.3403
48242SOL    HW262337   5.040  10.141   8.883 -2.0246 -0.4918  0.4337
48243SOL     OW62338   6.339  12.126   0.243 -0.3085 -0.1730 -0.8675
48243SOL    HW162339   6.373  12.140   0.331  1.0262 -1.8156 -1.0657
48243SOL    HW262340   6.248  12.154   0.248  0.7622  3.7359 -0.1205
48244SOL     OW62341   3.449  11.947   7.547  0.8452  0.3594 -0.2795
48244SOL    HW162342   3.474  12.018   7.488 -2.0377  1.4991 -0.2823
48244SOL    HW262343   3.500  11.963   7.627  0.1717  2.5718 -0.2174
48245SOL     OW62344   4.546   9.318   4.432  0.4152 -0.5512 -0.1249
48245SOL    HW162345   4.550   9.390   4.495  0.9452 -0.2712 -0.4743
48245SOL    HW262346   4.592   9.246   4.475 -0.2918 -0.7553  0.3097
48246SOL     OW62347   0.480  11.883   9.652  0.3095  0.3399  0.2225
48246SOL    HW162348   0.447  11.931   9.728 -0.7547  1.6690 -1.0167
48246SOL    HW262349   0.568  11.919   9.638  0.0578  0.9441  0.1458
48247SOL     OW62350   3.378  10.198   4.392 -0.3738  0.1003 -0.2432
48247SOL    HW162351   3.320  10.253   4.339 -1.0259  0.4458  0.8086
48247SOL    HW262352   3.381  10.114   4.345 -1.6784  0.0944 -0.3461
48248SOL     OW62353  12.639   7.096  11.774  0.6424  0.4245  0.1904
48248SOL    HW162354  12.657   7.171  11.717 -0.6533  0.8622  0.3304
48248SOL    HW262355  12.655   7.128  11.862 -0.5357  0.7683  0.3034
48249SOL     OW62356   9.544  13.759   2.667 -0.0573 -0.3245 -0.8514
48249SOL    HW162357   9.610  13.691   2.653  1.4857  0.5764  1.5755
48249SOL    HW262358   9.569  13.829   2.607  0.7882 -0.2939 -0.4807
48250SOL     OW62359   3.562   9.422   0.139 -0.2638  0.1435  0.3242
48250SOL    HW162360   3.567   9.457   0.228 -1.6139  0.0482  0.4652
48250SOL    HW262361   3.646   9.380   0.125  1.6073  3.6004  0.0415
48251SOL     OW62362   4.179   7.670   9.553  0.0115  0.0668  0.0880
48251SOL    HW162363   4.257   7.700   9.599 -0.8069  1.7659  0.4728
48251SOL    HW262364   4.106   7.702   9.606 -0.9535 -0.5440 -0.8165
48252SOL     OW62365   2.320   7.582   1.876 -0.4435  0.1891  0.3124
48252SOL    HW162366   2.396   7.592   1.819  0.0604 -0.6148  0.8344
48252SOL    HW262367   2.336   7.643   1.949 -0.3185  0.0399  0.4084
48253SOL     OW62368   2.251   9.674  11.550 -0.2009  0.1593  0.6139
48253SOL    HW162369   2.186   9.735  11.585  0.7261  2.5069 -1.4320
48253SOL    HW262370   2.199   9.602  11.515 -1.8077  1.9616 -0.9932
48254SOL     OW62371   5.890   9.739  14.026  0.0066  0.7667 -0.4014
48254SOL    HW162372   5.813   9.683  14.030 -0.6006  1.5036 -1.2043
48254SOL    HW262373   5.912   9.758  14.117 -0.2558 -0.1117 -0.1487
48255SOL     OW62374   7.143   2.134  10.143 -0.1831  0.2917  0.2341
48255SOL    HW162375   7.197   2.115  10.219 -0.0905  1.4309  0.4595
48255SOL    HW262376   7.206   2.151  10.073 -0.1668  2.9736  0.8160
48256SOL     OW62377  12.788   5.622   5.088 -0.2701 -0.3825 -0.0568
48256SOL    HW162378  12.851   5.664   5.029 -1.0204  0.6918 -0.1367
48256SOL    HW262379  12.764   5.540   5.044 -0.7090  0.3364 -1.2112
48257SOL     OW62380   9.349   0.081   5.727 -0.3783  0.1277  0.1749
48257SOL    HW162381   9.254   0.069   5.732 -0.3856  0.5507  1.0227
48257SOL    HW262382   9.381   0.059   5.814  0.2546  0.4589  0.0311
48258SOL     OW62383   0.158   8.136   7.868 -0.3888  0.0643 -0.0466
48258SOL    HW162384   0.125   8.047   7.868  1.7926 -0.8172  0.6338
48258SOL    HW262385   0.140   8.169   7.956  0.9879 -0.6535  0.5469
48259SOL     OW62386  10.731  11.471   4.111  0.4710 -0.4404  0.0566
48259SOL    HW162387  10.739  11.384   4.072 -1.6945 -0.0048 -1.4812
48259SOL    HW262388  10.651  11.467   4.163  1.9706 -0.2297  2.5446
48260SOL     OW62389  10.282   1.503   7.447 -0.1679  0.6798 -0.4388
48260SOL    HW162390  10.280   1.407   7.439 -0.5953  0.6465 -0.0220
48260SOL    HW262391  10.325   1.518   7.532 -1.2947  0.8096  0.1254
48261SOL     OW62392  13.784   8.104   6.507  0.4055 -0.2965 -0.2093
48261SOL    HW162393  13.715   8.089   6.571 -0.4747 -0.0104 -1.0593
48261SOL    HW262394  13.865   8.085   6.554 -0.3042 -1.9397  0.4376
48262SOL     OW62395   5.373  11.678   3.915  0.6513 -0.1245 -0.3340
48262SOL    HW162396   5.328  11.673   3.999 -0.4693  1.1644 -0.8190
48262SOL    HW262397   5.440  11.746   3.927 -0.3741  1.0122 -0.8265
48263SOL     OW62398   0.515   9.756   2.277 -0.1258  0.1311  0.2499
48263SOL    HW162399   0.529   9.662   2.292  2.2799  0.4889  0.7387
48263SOL    HW262400   0.548   9.771   2.189  0.4872  0.6761  0.5625
48264SOL     OW62401   1.444   4.087   1.204  0.4783  0.0811 -0.4772
48264SOL    HW162402   1.400   4.131   1.276 -2.2754 -2.0234 -0.7031
48264SOL    HW262403   1.536   4.089   1.228 -0.1030  1.2676  2.0410
48265SOL     OW62404  11.987  12.406  12.498  0.0256  0.8211 -0.1899
48265SOL    HW162405  12.067  12.458  12.501 -0.7334  2.0044  1.2029
48265SOL    HW262406  11.958  12.413  12.407  1.0953  0.9965 -0.5323
48266SOL     OW62407   7.642   5.157   3.608  0.1382 -0.2758 -0.0978
48266SOL    HW162408   7.656   5.150   3.702 -0.2425  1.5781  0.1349
48266SOL    HW262409   7.600   5.242   3.596  2.0482  0.4907 -2.1348
48267SOL     OW62410   6.201   3.680   2.874 -0.1084  0.1750  0.2859
48267SOL    HW162411   6.221   3.760   2.827 -0.1587 -0.3417 -0.6444
48267SOL    HW262412   6.286   3.640   2.892 -0.1148 -0.0634 -0.1754
48268SOL     OW62413  11.966  12.333   6.822  0.5905  0.4587  0.0160
48268SOL    HW162414  11.883  12.304   6.859  0.6710 -0.0220 -0.1594
48268SOL    HW262415  11.964  12.428   6.826 -0.0545  0.4549 -0.1739
48269SOL     OW62416   6.948   4.008   2.418  0.3555  0.2342 -0.3082
48269SOL    HW162417   6.995   3.997   2.336 -0.0623  0.0667 -0.5320
48269SOL    HW262418   7.016   4.013   2.485  0.6595 -1.0884 -0.4879
48270SOL     OW62419   5.380  11.955   9.866 -0.0074  0.7587  0.5930
48270SOL    HW162420   5.433  11.914   9.934 -0.0545 -1.7322 -0.7428
48270SOL    HW262421   5.303  11.988   9.912 -0.8901 -2.4075  1.6591
48271SOL     OW62422  12.048   4.043   3.956  0.3382  0.4322 -0.2458
48271SOL    HW162423  12.081   3.954   3.958 -0.9403 -0.0518  0.2594
48271SOL    HW262424  11.990   4.046   3.881 -2.6570 -0.3434  1.8753
48272SOL     OW62425   4.687  12.240   2.231 -0.1654 -0.6094  0.3904
48272SOL    HW162426   4.728  12.154   2.239  0.4915 -0.4223 -0.7513
48272SOL    HW262427   4.760  12.301   2.219 -0.5584  0.2534  2.1078
48273SOL     OW62428  11.595   8.579   0.514 -0.3786  0.0434  0.4582
48273SOL    HW162429  11.625   8.657   0.468  3.3230 -1.2615  0.3451
48273SOL    HW262430  11.570   8.612   0.601 -1.1623  1.6000 -0.2987
48274SOL     OW62431   3.175   1.571   6.148  0.0000  0.1334  0.2520
48274SOL    HW162432   3.168   1.586   6.054  2.6738  0.0439 -0.0467
48274SOL    HW262433   3.205   1.481   6.156  1.8472  0.7657  1.0256
48275SOL     OW62434   4.009   1.422   7.483  0.3375 -0.2106  0.1892
48275SOL    HW162435   3.937   1.374   7.525  1.1830 -0.1626  1.8142
48275SOL    HW262436   3.997   1.407   7.390 -1.0258 -1.2759  0.4963
48276SOL     OW62437   0.700   9.195  11.056 -0.4980 -0.1012 -0.0003
48276SOL    HW162438   0.788   9.172  11.085 -0.4691  0.7973  0.6557
48276SOL    HW262439   0.706   9.198  10.960  0.0182 -0.6588  0.0090
48277SOL     OW62440   0.300   0.884   3.447 -0.1661 -0.1992 -0.1895
48277SOL    HW162441   0.312   0.949   3.517 -0.3387  1.3924 -1.5631
48277SOL    HW262442   0.231   0.922   3.392 -0.1200 -1.4668 -1.1512
48278SOL     OW62443   4.143   0.064   6.151 -0.1133 -0.2893  0.0715
48278SOL    HW162444   4.093  -0.017   6.146 -2.5063  1.1262 -0.6093
48278SOL    HW262445   4.103   0.113   6.223  1.1204  0.4069  0.3156
48279SOL     OW62446  13.706   9.945   6.244 -0.1012  0.3211  0.1980
48279SOL    HW162447  13.731  10.005   6.314 -0.4000  0.8233 -0.1179
48279SOL    HW262448  13.665   9.871   6.288 -0.4123  0.6998  0.5405
48280SOL     OW62449   8.544   5.103  11.279 -0.1306  0.2954  0.0709
48280SOL    HW162450   8.497   5.056  11.348 -0.7637  0.2835 -0.3589
48280SOL    HW262451   8.477   5.121  11.213  0.5409 -0.0360 -0.7181
48281SOL     OW62452   6.249  13.684   4.212  0.3159  0.6359 -0.5345
48281SOL    HW162453   6.216  13.635   4.136  0.7343  2.7588 -2.2072
48281SOL    HW262454   6.338  13.710   4.186  1.2296 -0.2306  1.5478
48282SOL     OW62455   6.393  13.711   8.779  0.9374 -0.1534  0.1577
48282SOL    HW162456   6.346  13.795   8.776 -0.0559 -0.7146 -0.8172
48282SOL    HW262457   6.332  13.652   8.823  1.7721 -0.3029  1.1565
48283SOL     OW62458   8.889   7.521   3.536  0.1277  0.3235  0.4694
48283SOL    HW162459   8.975   7.561   3.550  0.3638 -0.9024  2.9603
48283SOL    HW262460   8.838   7.545   3.613 -1.2297 -0.3871 -0.1609
48284SOL     OW62461   3.751   7.092   6.633  0.8293 -0.5653  0.5176
48284SOL    HW162462   3.837   7.123   6.603  0.5502 -0.7815 -0.5252
48284SOL    HW262463   3.695   7.170   6.630  0.9540 -0.4416  1.1263
48285SOL     OW62464  10.638   2.658   7.594  0.3569  0.2864 -0.5790
48285SOL    HW162465  10.565   2.684   7.650  0.5301 -0.3820 -0.0285
48285SOL    HW262466  10.601   2.658   7.506 -0.1175  0.6370 -0.3873
48286SOL     OW62467   8.902   3.978  11.380 -0.3001 -0.1079  0.3471
48286SOL    HW162468   8.848   4.056  11.389 -0.5145 -0.1464 -0.4616
48286SOL    HW262469   8.972   3.989  11.444 -0.3557  0.7258  0.2745
48287SOL     OW62470  13.240   7.931  12.944 -0.7871 -0.0410 -0.0113
48287SOL    HW162471  13.210   7.843  12.968  0.3935 -0.1065  1.3550
48287SOL    HW262472  13.307   7.952  13.009 -0.1476  1.3644 -1.0668
48288SOL     OW62473  11.279   8.504   3.597 -0.2957  0.3156 -0.1293
48288SOL    HW162474  11.224   8.578   3.569  0.3117  0.7810 -0.1082
48288SOL    HW262475  11.360   8.514   3.547 -1.0711 -1.6892 -1.8943
48289SOL     OW62476   2.394  10.116   2.686 -0.5451 -0.5651  0.1956
48289SOL    HW162477   2.387  10.175   2.611 -2.9141 -0.0842  0.7103
48289SOL    HW262478   2.475  10.143   2.730 -0.8888  1.4497 -0.3084
48290SOL     OW62479   7.479  12.571   7.129 -0.2310 -0.0794  0.0569
48290SOL    HW162480   7.510  12.653   7.169 -1.8583  0.3848  0.4285
48290SOL    HW262481   7.385  12.572   7.143 -0.2231 -2.3261  0.6231
48291SOL     OW62482   2.499  13.187   5.740 -0.0703 -0.1139  0.5066
48291SOL    HW162483   2.549  13.257   5.782  0.9159  0.6603 -1.7788
48291SOL    HW262484   2.508  13.204   5.646  0.1323 -3.2347 -0.1750
48292SOL     OW62485  11.874  11.372   9.917 -0.2073 -0.2659  0.0012
48292SOL    HW162486  11.835  11.435   9.977 -0.1640  0.5025 -0.7726
48292SOL    HW262487  11.848  11.401   9.830  1.9289  0.1723 -0.5405
48293SOL     OW62488  13.149   2.834  13.247  0.3118 -0.2208  0.4472
48293SOL    HW162489  13.201   2.766  13.203 -1.5604 -0.4581 -1.5588
48293SOL    HW262490  13.069   2.841  13.195  0.0940  3.0364  1.0135
48294SOL     OW62491  12.557  10.931   4.532 -0.8416 -0.1447  0.8404
48294SOL    HW162492  12.519  10.862   4.586  1.4944 -1.0608  1.4383
48294SOL    HW262493  12.623  10.973   4.588  0.3288  0.1171 -0.6447
48295SOL     OW62494   3.277   8.331  13.991 -0.3656 -0.0753  0.2918
48295SOL    HW162495   3.287   8.397  13.922  1.8557 -0.8455 -0.2094
48295SOL    HW262496   3.256   8.382  14.070 -0.7827  1.0203 -0.5034
48296SOL     OW62497   6.048  11.612  11.658 -0.0857  0.1284  0.3108
48296SOL    HW162498   5.967  11.632  11.610 -0.0623  0.8682  0.5811
48296SOL    HW262499   6.087  11.539  11.609 -2.0961 -1.8754  1.4918
48297SOL     OW62500   4.510  11.808   7.370 -0.1634  0.0932  0.3867
48297SOL    HW162501   4.431  11.759   7.394  0.1761 -0.7295 -0.1182
48297SOL    HW262502   4.581  11.744   7.378 -0.0177 -0.2763 -2.6367
48298SOL     OW62503  11.392  10.577   2.380 -0.6796 -0.2117  0.4198
48298SOL    HW162504  11.372  10.511   2.446 -1.3711  0.1777  0.6015
48298SOL    HW262505  11.338  10.652   2.403 -2.1244 -0.5938 -1.4430
48299SOL     OW62506   5.578   4.933   8.161  0.2008 -0.4023  0.1445
48299SOL    HW162507   5.543   5.015   8.125 -0.0132 -1.3666 -2.0558
48299SOL    HW262508   5.503   4.873   8.159  1.1262 -1.5928 -1.5965
48300SOL     OW62509  12.525  13.938   4.979 -0.3220 -0.0377  0.0166
48300SOL    HW162510  12.452  13.948   4.917 -0.9004 -1.3325  0.4509
48300SOL    HW262511  12.591  13.999   4.948 -1.7250  1.4642 -0.1841
48301SOL     OW62512   4.200   2.130   3.514  0.0071 -0.2446  0.0940
48301SOL    HW162513   4.225   2.143   3.605 -1.0530  2.2776  0.1187
48301SOL    HW262514   4.105   2.120   3.517 -0.1940  1.1250 -0.7809
48302SOL     OW62515  10.476  11.728   9.326 -0.3849 -0.8230 -0.1287
48302SOL    HW162516  10.422  11.789   9.277  0.8007 -0.3061 -0.8472
48302SOL    HW262517  10.423  11.705   9.403 -0.9049  1.0630  0.1336
48303SOL     OW62518   6.652   0.255   3.717  0.0758 -0.9725 -0.2906
48303SOL    HW162519   6.647   0.350   3.721 -0.7213 -1.0185  0.1759
48303SOL    HW262520   6.671   0.235   3.626  0.1975 -0.3721 -0.3993
48304SOL     OW62521   1.823   1.777   6.731  0.7764 -0.1801  0.1675
48304SOL    HW162522   1.885   1.829   6.680 -1.2690  0.9909 -1.2950
48304SOL    HW262523   1.770   1.731   6.665  0.5744 -1.7767  1.3678
48305SOL     OW62524   1.648   4.328   5.131  0.2171  0.0438 -0.1078
48305SOL    HW162525   1.654   4.400   5.068 -0.7640 -0.5550 -0.9218
48305SOL    HW262526   1.630   4.251   5.077  0.5717 -0.6955  0.8088
48306SOL     OW62527  12.040   4.220   7.725 -0.6934  0.3277 -0.0312
48306SOL    HW162528  12.118   4.170   7.750 -1.1905 -0.3805  0.1200
48306SOL    HW262529  11.990   4.228   7.806 -2.0811 -1.5537 -0.6350
48307SOL     OW62530   4.479   0.706  10.884  0.1939 -0.1982  0.3023
48307SOL    HW162531   4.498   0.626  10.834 -0.1655  0.2672 -0.5924
48307SOL    HW262532   4.494   0.680  10.976 -2.7112 -2.1701  0.3478
48308SOL     OW62533   5.093  12.392   3.037  0.2883  0.2819  0.0278
48308SOL    HW162534   5.159  12.369   2.971 -1.7266  0.1698 -2.0892
48308SOL    HW262535   5.137  12.378   3.121  2.0192 -2.7188 -1.2167
48309SOL     OW62536   3.559  11.633   8.310  0.2881  0.3858  0.2846
48309SOL    HW162537   3.619  11.676   8.371  0.2006  1.6192 -0.4715
48309SOL    HW262538   3.473  11.669   8.332 -0.5593 -2.5786  2.4822
48310SOL     OW62539   4.638   0.535   3.870 -0.2018  0.6622 -0.4361
48310SOL    HW162540   4.626   0.589   3.791 -0.3890  1.7173  0.2967
48310SOL    HW262541   4.553   0.534   3.912  0.4557  2.1747  1.0246
48311SOL     OW62542  13.312   1.007   6.668 -0.1423  0.0202  0.0424
48311SOL    HW162543  13.239   0.990   6.608  0.0582 -3.3099  0.5230
48311SOL    HW262544  13.299   1.097   6.698 -3.2833 -0.0041 -0.9225
48312SOL     OW62545   3.750   4.008  13.031  0.5589  0.0046  0.2246
48312SOL    HW162546   3.807   4.059  12.974  0.5286  1.4682  1.4414
48312SOL    HW262547   3.761   4.047  13.118 -0.6250 -1.1071  0.9226
48313SOL     OW62548   0.866   8.568   8.033 -0.4822  0.3392  0.0234
48313SOL    HW162549   0.847   8.525   7.950 -0.5278 -1.1190  0.7491
48313SOL    HW262550   0.814   8.649   8.031 -1.5040 -0.3095 -0.8235
48314SOL     OW62551   2.316  11.390   6.111  0.7495 -0.3172  0.2158
48314SOL    HW162552   2.317  11.393   6.015  1.0068 -3.3433  0.0052
48314SOL    HW262553   2.405  11.412   6.137  0.0962  3.0541  0.0366
48315SOL     OW62554  11.921   4.229   1.736 -0.8688  0.8359 -0.2267
48315SOL    HW162555  11.869   4.154   1.766 -1.8905  2.0882  1.2629
48315SOL    HW262556  11.980   4.248   1.809 -0.6266  1.5082 -0.5922
48316SOL     OW62557  11.640   4.967   2.096  0.0932 -0.8648 -0.1945
48316SOL    HW162558  11.553   4.957   2.058 -2.1457  0.4250  3.9820
48316SOL    HW262559  11.662   5.059   2.082 -0.7853 -0.3589  1.4703
48317SOL     OW62560   8.953   0.890   5.246 -0.0643  0.0111 -0.0635
48317SOL    HW162561   9.000   0.871   5.165 -0.2071  0.4131 -0.2421
48317SOL    HW262562   8.969   0.813   5.302  1.6490  0.5629  0.2682
48318SOL     OW62563  13.491   2.465   1.313 -0.2182 -0.8082 -0.7276
48318SOL    HW162564  13.544   2.541   1.337 -2.3421  0.0258  1.8081
48318SOL    HW262565  13.552   2.392   1.315  0.8810  0.0289  2.5012
48319SOL     OW62566  11.975   8.580   6.725  0.0841 -0.1737  0.1599
48319SOL    HW162567  11.881   8.595   6.723  0.0988 -0.1363 -1.1290
48319SOL    HW262568  11.987   8.516   6.796 -1.1140 -1.4340 -0.7178
48320SOL     OW62569   9.656  11.521   3.783 -0.0124 -0.5116 -0.2796
48320SOL    HW162570   9.713  11.586   3.744  1.0294 -1.0211  0.3396
48320SOL    HW262571   9.715  11.451   3.811 -1.1746 -2.3231 -2.0121
48321SOL     OW62572   6.787   4.488  12.368  0.1848  0.4470 -0.4175
48321SOL    HW162573   6.790   4.584  12.368 -1.3596  0.5252 -1.0904
48321SOL    HW262574   6.858   4.462  12.310 -0.1450  1.2401 -1.1995
48322SOL     OW62575   0.482   7.897   4.887 -0.4774 -0.2069  0.2307
48322SOL    HW162576   0.535   7.929   4.815 -1.3912 -0.3009 -0.5002
48322SOL    HW262577   0.431   7.974   4.915 -1.0150 -0.4660 -0.0321
48323SOL     OW62578  12.054   5.727  10.523  0.3855 -0.6720  0.0548
48323SOL    HW162579  12.123   5.716  10.457  2.1203 -0.6386  1.7765
48323SOL    HW262580  12.095   5.780  10.592 -1.7267  0.2745  0.6714
48324SOL     OW62581  11.391   9.183   3.256  0.2571  0.3484  0.2755
48324SOL    HW162582  11.462   9.239   3.225 -0.2663  1.7614  1.5129
48324SOL    HW262583  11.313   9.239   3.252 -0.3908 -0.4698  1.0426
48325SOL     OW62584  10.919   0.814  13.804  0.5006  0.4604 -0.2788
48325SOL    HW162585  10.960   0.735  13.770 -0.3529  0.3044 -0.9848
48325SOL    HW262586  10.838   0.782  13.845  0.3625  0.9240 -0.1917
48326SOL     OW62587   3.181   3.154   8.426  0.5420 -0.9872 -0.6520
48326SOL    HW162588   3.267   3.171   8.465 -0.2131  1.2671  0.2000
48326SOL    HW262589   3.132   3.109   8.495  0.5051 -0.7102 -0.4956
48327SOL     OW62590   0.891  12.012   3.938  0.1696  0.4876  0.5136
48327SOL    HW162591   0.823  12.071   3.972  0.7245  1.8446 -0.6416
48327SOL    HW262592   0.859  11.987   3.851  0.7652  0.4834  0.2944
48328SOL     OW62593   1.095   9.454   6.326 -0.1317 -0.1039  0.3145
48328SOL    HW162594   1.125   9.380   6.274 -0.7553 -0.8864  1.0402
48328SOL    HW262595   1.008   9.475   6.292 -1.3497 -1.8048  2.1538
48329SOL     OW62596  10.236   4.329   7.244 -0.0451  0.1153  0.2247
48329SOL    HW162597  10.328   4.310   7.227  0.0134  0.2174  0.4171
48329SOL    HW262598  10.236   4.422   7.269 -0.3685  0.4928 -1.0766
48330SOL     OW62599   1.716   9.237   3.741 -0.6258 -0.4913 -0.2465
48330SOL    HW162600   1.677   9.250   3.827 -0.2221 -1.8276  0.1640
48330SOL    HW262601   1.794   9.184   3.758 -0.7957 -1.1644 -1.4732
48331SOL     OW62602   0.083  12.060   4.222 -0.4728  0.0181 -0.0616
48331SOL    HW162603   0.154  12.124   4.216  0.4090 -1.0155 -1.3447
48331SOL    HW262604   0.010  12.100   4.175 -0.1426  0.3535 -0.2950
48332SOL     OW62605   5.968   5.124  12.616  0.3599 -0.4050  0.2596
48332SOL    HW162606   6.024   5.071  12.673  1.1943 -0.7006 -0.8041
48332SOL    HW262607   5.972   5.212  12.655  1.4875 -0.4456  0.2734
48333SOL     OW62608  12.629   8.810   8.040 -0.7858  0.1989  0.0929
48333SOL    HW162609  12.634   8.721   8.075  2.0425 -0.7942 -2.4604
48333SOL    HW262610  12.709   8.853   8.071 -1.2985  1.3278 -0.1040
48334SOL     OW62611  12.641  13.115   2.729  0.3361  0.2233  0.2079
48334SOL    HW162612  12.703  13.044   2.710 -0.5414 -0.8985  1.3906
48334SOL    HW262613  12.572  13.104   2.663  0.4178  0.2553  0.1166
48335SOL     OW62614  13.902  12.597   2.720 -0.3058 -0.4375  0.7909
48335SOL    HW162615  13.882  12.686   2.749  0.9278 -0.4212  1.6611
48335SOL    HW262616  13.849  12.585   2.641 -2.8883 -0.0480  2.3395
48336SOL     OW62617   9.087   9.637  12.564  0.0402 -0.3346 -0.0533
48336SOL    HW162618   9.095   9.543  12.548  0.3055 -0.3428  0.1231
48336SOL    HW262619   9.083   9.645  12.659 -3.1050 -0.4148 -0.0623
48337SOL     OW62620  13.913  12.820   6.539 -0.1689 -0.8546 -0.1712
48337SOL    HW162621  13.863  12.850   6.462 -0.9521  0.1981  0.7036
48337SOL    HW262622  13.947  12.901   6.577 -0.2657 -1.3138  0.9036
48338SOL     OW62623   9.346   1.260  12.601  0.0076  0.4581  0.0105
48338SOL    HW162624   9.390   1.176  12.609 -1.2598 -0.1321  1.3416
48338SOL    HW262625   9.252   1.239  12.606 -0.3741  1.8553 -0.6270
48339SOL     OW62626   2.151  12.183   7.681 -0.1503  0.5534 -0.3805
48339SOL    HW162627   2.197  12.115   7.631 -0.1307  1.0877 -1.1049
48339SOL    HW262628   2.192  12.179   7.768 -0.0170 -0.2226 -0.4629
48340SOL     OW62629  11.242   4.133   0.129  0.3542  0.2451 -0.3842
48340SOL    HW162630  11.226   4.218   0.171 -1.5071 -0.1811 -0.1627
48340SOL    HW262631  11.323   4.146   0.080  0.3478  2.0139  0.0035
48341SOL     OW62632   3.279  11.730   0.762 -0.0935 -0.3193 -0.0876
48341SOL    HW162633   3.256  11.652   0.812 -1.0279 -0.0854 -0.1259
48341SOL    HW262634   3.220  11.797   0.794  0.3586  0.2401 -0.4122
48342SOL     OW62635   1.778   7.387  10.236  0.3273  0.4591 -0.5232
48342SOL    HW162636   1.837   7.432  10.176  0.9106  0.0385 -0.2762
48342SOL    HW262637   1.730   7.325  10.180 -0.1659  1.0743 -0.7875
48343SOL     OW62638   7.537  13.290  12.208  0.0708  0.6506  0.0790
48343SOL    HW162639   7.567  13.294  12.299  2.3114 -0.4274 -0.5467
48343SOL    HW262640   7.608  13.328  12.157  0.0004 -1.0885 -1.4262
48344SOL     OW62641   4.951   5.812   7.903  0.2109 -0.7048  0.0490
48344SOL    HW162642   5.028   5.848   7.859  0.0734 -0.0082  0.3617
48344SOL    HW262643   4.974   5.721   7.923  1.7588  0.0330  1.9648
48345SOL     OW62644   6.207   4.736  11.260  0.3070  0.7922 -0.6589
48345SOL    HW162645   6.151   4.790  11.205 -0.6763 -0.3677 -0.8396
48345SOL    HW262646   6.183   4.646  11.238  2.1838  0.2399 -0.6689
48346SOL     OW62647   7.143   3.028  13.626  0.4437  0.0770  0.8214
48346SOL    HW162648   7.185   3.094  13.571  0.9941 -0.4632  0.5888
48346SOL    HW262649   7.072   3.075  13.669 -1.4416  0.0545 -2.0005
48347SOL     OW62650  13.203   3.032   1.020  0.0733  0.2725  0.4312
48347SOL    HW162651  13.191   3.121   0.987 -1.4166 -0.1329 -0.1923
48347SOL    HW262652  13.118   2.990   1.008  0.4358 -0.9183  1.7221
48348SOL     OW62653   4.668   8.378   3.672  0.0132  0.2682 -0.3149
48348SOL    HW162654   4.609   8.317   3.628  1.0362 -0.4511 -0.7244
48348SOL    HW262655   4.752   8.365   3.629  0.6822  0.6451  0.8457
48349SOL     OW62656   1.119   7.233  10.321 -0.3210 -0.2216 -0.6103
48349SOL    HW162657   1.202   7.216  10.365  0.0516  0.5302 -0.9996
48349SOL    HW262658   1.097   7.323  10.346 -1.6336 -0.8057  0.4575
48350SOL     OW62659   7.465   3.760   0.448  0.2020  0.0410  0.1335
48350SOL    HW162660   7.373   3.777   0.427  0.3753 -1.9885 -3.0257
48350SOL    HW262661   7.508   3.756   0.362  2.7043 -1.6799  1.3550
48351SOL     OW62662   5.991   4.369   4.868  0.1514  0.0633 -0.3867
48351SOL    HW162663   5.958   4.428   4.936 -0.1013 -0.2968 -0.1901
48351SOL    HW262664   5.913   4.346   4.817 -0.0625 -1.3393  0.4976
48352SOL     OW62665   5.143   1.559   0.307  0.2473  0.1575  0.7217
48352SOL    HW162666   5.053   1.557   0.274  0.9804  0.2884 -1.4518
48352SOL    HW262667   5.142   1.501   0.383 -1.9463  1.1868  1.5775
48353SOL     OW62668   2.734   2.823   6.371 -0.2988  0.1144  0.0574
48353SOL    HW162669   2.741   2.868   6.456  0.8361  0.6939 -0.3327
48353SOL    HW262670   2.640   2.807   6.361 -0.5384  0.8009  1.0416
48354SOL     OW62671   7.150   6.410   4.826  0.4699  0.4242  0.0289
48354SOL    HW162672   7.073   6.355   4.814  0.2130  0.5590  0.9305
48354SOL    HW262673   7.216   6.372   4.769 -0.5462  0.8948 -1.5019
48355SOL     OW62674   5.836   3.458   6.628  0.0143 -0.4522 -0.0195
48355SOL    HW162675   5.807   3.456   6.537 -0.7892 -0.4749  0.2214
48355SOL    HW262676   5.770   3.407   6.675 -0.1419  0.3989  0.7170
48356SOL     OW62677  11.492  12.954   8.964 -0.2164 -0.2953 -0.2832
48356SOL    HW162678  11.404  12.925   8.940 -1.1715  0.2414  2.2857
48356SOL    HW262679  11.519  12.896   9.035  0.1835  1.4629  1.0739
48357SOL     OW62680  13.525   7.718   9.102 -0.0191  0.4046 -0.0359
48357SOL    HW162681  13.529   7.808   9.132 -0.1451  0.1458  0.7724
48357SOL    HW262682  13.605   7.677   9.135 -0.5108 -0.0721  0.5875
48358SOL     OW62683   1.454  13.358   6.832  0.0717 -0.1033 -0.2423
48358SOL    HW162684   1.378  13.408   6.802  0.5161  0.3192 -0.6844
48358SOL    HW262685   1.424  13.314   6.911 -0.8302 -0.4491 -0.7587
48359SOL     OW62686   3.082   4.780  12.576  0.1951  0.2815  0.2498
48359SOL    HW162687   3.094   4.848  12.510 -2.2150 -0.0510 -0.6293
48359SOL    HW262688   3.113   4.699  12.535  2.1704  0.6377  0.9480
48360SOL     OW62689   9.739   7.777   9.711 -0.5717  0.2688  0.2142
48360SOL    HW162690   9.681   7.833   9.660 -0.9381 -0.7141 -0.4882
48360SOL    HW262691   9.827   7.804   9.687 -0.7268  1.4194  0.8835
48361SOL     OW62692  12.490  11.482  13.380 -0.4283 -0.5840  0.0223
48361SOL    HW162693  12.431  11.455  13.311 -0.7566  0.1011  0.0283
48361SOL    HW262694  12.556  11.537  13.336 -0.7757  0.0525  0.2772
48362SOL     OW62695   6.174   8.604   4.371 -0.3421  0.6052  0.8045
48362SOL    HW162696   6.102   8.599   4.434 -0.7059  1.1940  0.4480
48362SOL    HW262697   6.171   8.521   4.324 -0.5466  0.4701  1.0539
48363SOL     OW62698   9.234   8.580  13.494  0.2545  0.0568 -0.1129
48363SOL    HW162699   9.299   8.535  13.546  1.2993  1.1563 -0.4277
48363SOL    HW262700   9.257   8.560  13.403 -0.3736 -0.2485 -0.2136
48364SOL     OW62701  10.802   8.550   5.073  0.5415 -0.0273  0.3237
48364SOL    HW162702  10.829   8.469   5.115  1.3741  0.9547  1.7473
48364SOL    HW262703  10.869   8.567   5.007  0.5983 -0.2563  0.3238
48365SOL     OW62704   2.217  11.281   8.041 -0.3043 -0.1070  0.0517
48365SOL    HW162705   2.169  11.306   8.121  1.6263 -1.5870  1.7980
48365SOL    HW262706   2.294  11.337   8.041  0.8794 -1.6626  0.5668
48366SOL     OW62707   1.948   9.226   7.007  0.4736  0.1820  0.5912
48366SOL    HW162708   1.859   9.243   7.039 -0.0051 -3.2439  1.5001
48366SOL    HW262709   1.999   9.301   7.038 -1.6808  1.2166  1.8900
48367SOL     OW62710   7.936   2.091   1.815 -0.2612 -0.4680  0.3842
48367SOL    HW162711   8.020   2.121   1.781 -0.5693 -0.0684 -0.0281
48367SOL    HW262712   7.878   2.090   1.739 -1.3930  1.9280  1.1037
48368SOL     OW62713  12.613   6.498  12.190 -0.3047 -0.2481  0.1429
48368SOL    HW162714  12.607   6.534  12.101  1.6597  1.2680  0.5374
48368SOL    HW262715  12.563   6.417  12.187  1.5360 -1.4444 -3.0043
48369SOL     OW62716   8.391   3.031  13.639 -0.5301 -0.2094  0.2279
48369SOL    HW162717   8.313   3.066  13.682 -1.0629  0.8249 -1.5176
48369SOL    HW262718   8.395   2.940  13.668  0.1113  0.7938  3.7682
48370SOL     OW62719   0.379   4.811   5.983  0.0667  0.3275 -0.0862
48370SOL    HW162720   0.305   4.752   5.965  0.0276  0.3288  0.0673
48370SOL    HW262721   0.415   4.779   6.066 -0.8204  1.3676  0.7260
48371SOL     OW62722   4.356   8.688   3.625  0.5067 -0.3685 -0.2905
48371SOL    HW162723   4.390   8.772   3.657 -0.1882 -0.5929  1.1184
48371SOL    HW262724   4.389   8.624   3.688  0.5927 -1.0893 -1.0547
48372SOL     OW62725   5.390  10.585   6.870  0.1122 -0.4515  0.0124
48372SOL    HW162726   5.324  10.592   6.939 -0.6674  0.8443 -0.8070
48372SOL    HW262727   5.471  10.564   6.916 -0.0730  1.7873  1.5138
48373SOL     OW62728  10.782   6.069  13.677 -0.3490 -1.3736  0.6804
48373SOL    HW162729  10.798   6.145  13.620 -1.1810 -0.1704  1.9764
48373SOL    HW262730  10.858   6.013  13.663  0.7017  0.0799  0.2521
48374SOL     OW62731  10.609  10.931  11.916 -0.0901  0.0901 -0.0492
48374SOL    HW162732  10.638  11.022  11.914 -1.5249  0.6141  1.0975
48374SOL    HW262733  10.621  10.904  12.007  0.5803 -0.9708 -0.4347
48375SOL     OW62734  10.801   7.943   0.594 -0.0380  0.0660 -0.1842
48375SOL    HW162735  10.795   8.030   0.631 -0.5387  0.1027 -0.3361
48375SOL    HW262736  10.751   7.888   0.654 -0.3048  0.0112 -0.4520
48376SOL     OW62737   2.193  12.836   5.351  0.7750 -0.2372 -0.1096
48376SOL    HW162738   2.266  12.851   5.411 -0.3483 -0.4831  1.3918
48376SOL    HW262739   2.169  12.923   5.320  0.6070  0.0550  0.7890
48377SOL     OW62740   7.562  10.582  12.499  0.9002 -0.4690 -0.1780
48377SOL    HW162741   7.545  10.543  12.585  1.0266 -2.3438 -0.9556
48377SOL    HW262742   7.488  10.553  12.445  0.4563  1.2629 -0.5637
48378SOL     OW62743   8.692   3.700   0.124 -0.7105  0.3395  0.0357
48378SOL    HW162744   8.682   3.729   0.215  0.2924  1.3091 -0.1431
48378SOL    HW262745   8.651   3.769   0.072  0.2883  0.6735 -0.3227
48379SOL     OW62746   2.476   4.070   5.552  0.3844  0.4441  0.2979
48379SOL    HW162747   2.382   4.070   5.566  0.3683 -1.2201  0.3974
48379SOL    HW262748   2.512   4.037   5.634  0.7848 -2.3615 -0.9061
48380SOL     OW62749  13.704   7.094   7.509  0.0709 -0.1355 -0.6702
48380SOL    HW162750  13.770   7.029   7.489  0.9457  0.5382 -0.0504
48380SOL    HW262751  13.623   7.044   7.521  0.9133 -1.2107  0.7746
48381SOL     OW62752   0.828   7.350   0.433  0.5780 -0.1005 -0.3611
48381SOL    HW162753   0.857   7.379   0.520  0.1317  1.3027 -0.6691
48381SOL    HW262754   0.884   7.274   0.415  0.9219 -0.2112  0.9977
48382SOL     OW62755   9.484   6.705   1.372 -0.4712  0.3897 -0.2348
48382SOL    HW162756   9.555   6.770   1.374 -0.2801  0.1744  0.1787
48382SOL    HW262757   9.526   6.626   1.338 -0.5837  0.3428 -0.2628
48383SOL     OW62758   3.016   1.309   4.327  0.3345 -0.2978  0.4154
48383SOL    HW162759   2.953   1.364   4.372 -0.5494 -0.2873 -0.8028
48383SOL    HW262760   3.009   1.224   4.370 -1.4310 -0.6506 -0.5033
48384SOL     OW62761   7.587   1.372   2.911 -0.0678  0.7252 -0.3955
48384SOL    HW162762   7.562   1.357   2.820 -1.4110 -0.1413  0.0938
48384SOL    HW262763   7.651   1.303   2.930 -1.8716 -0.8792  0.1084
48385SOL     OW62764   4.203   1.130  13.367 -0.0515 -0.6242  0.2068
48385SOL    HW162765   4.239   1.217  13.349 -0.6757  0.1075  2.2136
48385SOL    HW262766   4.119   1.129  13.322 -0.3933  0.1295  0.8027
48386SOL     OW62767   8.289   3.258   2.387  0.2385  0.8353 -0.4070
48386SOL    HW162768   8.306   3.183   2.330  0.6694  1.3952 -1.0207
48386SOL    HW262769   8.193   3.266   2.388  0.2005  0.4208 -0.5207
48387SOL     OW62770  11.274   7.494   1.658 -0.2729  0.0413  0.2157
48387SOL    HW162771  11.272   7.530   1.569  0.8464 -0.6299 -0.1063
48387SOL    HW262772  11.301   7.567   1.713 -0.4451  0.3263 -0.0749
48388SOL     OW62773  10.866  14.048   8.974 -0.0361  0.3003 -0.2196
48388SOL    HW162774  10.774  14.036   8.999  0.1180  0.4611  0.4435
48388SOL    HW262775  10.903  14.102   9.044  0.2680  1.2560 -1.1051
48389SOL     OW62776   6.497   4.966   5.178 -0.2714 -0.3880 -0.0444
48389SOL    HW162777   6.586   4.932   5.169  0.5807  1.5141  0.5717
48389SOL    HW262778   6.456   4.910   5.244  0.8929 -0.5476  0.5741
48390SOL     OW62779   1.317   9.826   3.822 -0.4199  0.4300  0.4848
48390SOL    HW162780   1.253   9.813   3.751  1.4078  0.5640 -1.2768
48390SOL    HW262781   1.270   9.799   3.901 -2.1027 -1.1326 -0.9398
48391SOL     OW62782   3.867   3.452   5.451  0.1825  0.2287  0.1460
48391SOL    HW162783   3.948   3.421   5.411  0.2849  1.5287 -0.7320
48391SOL    HW262784   3.821   3.498   5.380 -0.7283  0.5998  0.9438
48392SOL     OW62785   0.555   0.721   7.505 -0.3408 -0.1180  0.0085
48392SOL    HW162786   0.511   0.700   7.587  1.2119  1.5157  1.3401
48392SOL    HW262787   0.587   0.810   7.517 -1.3852  0.7880 -2.9975
48393SOL     OW62788   4.890  11.829   2.447  0.5625 -0.3024  0.4842
48393SOL    HW162789   4.824  11.800   2.509  0.2244 -1.3826 -0.3423
48393SOL    HW262790   4.894  11.759   2.382  1.1603  0.6192 -0.5109
48394SOL     OW62791   1.369   8.338  11.631 -0.0696  0.0715 -0.3657
48394SOL    HW162792   1.365   8.395  11.554  0.5826  0.5540 -0.0546
48394SOL    HW262793   1.360   8.399  11.705 -1.7664 -0.4911 -0.0645
48395SOL     OW62794  13.162   8.236  11.736 -0.1163 -0.2040 -0.0432
48395SOL    HW162795  13.124   8.256  11.651  1.2058  1.6179 -0.2709
48395SOL    HW262796  13.245   8.192  11.715  0.1882  0.2024  0.3053
48396SOL     OW62797  11.947   5.580   7.938 -0.1449 -0.6777  0.6485
48396SOL    HW162798  11.907   5.500   7.971 -0.7697 -0.5045  0.3311
48396SOL    HW262799  11.878   5.622   7.887  0.3967 -0.2893  0.2233
48397SOL     OW62800   2.467   7.239  13.840 -0.4671  0.3778  0.3502
48397SOL    HW162801   2.394   7.301  13.835  0.8498  1.9753 -0.0942
48397SOL    HW262802   2.500   7.248  13.929 -0.1565  0.4826  0.2273
48398SOL     OW62803   8.523   0.658  11.558 -0.0778  0.2000 -0.2463
48398SOL    HW162804   8.453   0.592  11.551 -0.7383  0.4371  2.8368
48398SOL    HW262805   8.487   0.735  11.513 -1.6983  0.2003  0.9592
48399SOL     OW62806   7.041   3.297   9.687 -0.3073 -0.0832 -0.6626
48399SOL    HW162807   7.001   3.220   9.727 -1.7324 -0.3645 -2.4900
48399SOL    HW262808   7.088   3.263   9.611  0.8961  0.6163 -0.2517
48400SOL     OW62809  11.164   7.814   5.562  0.4136 -0.1229  0.0069
48400SOL    HW162810  11.131   7.771   5.484 -2.4570  1.9482 -0.0988
48400SOL    HW262811  11.094   7.806   5.626  0.5685  2.4851  0.6370
48401SOL     OW62812  12.575   0.576   1.820  0.1744  0.6858 -0.0594
48401SOL    HW162813  12.529   0.658   1.836  1.6935  1.8927 -1.4246
48401SOL    HW262814  12.668   0.599   1.828  0.7104 -0.4587 -2.1703
48402SOL     OW62815  13.714   8.484   0.055 -0.7874 -0.8030 -0.6130
48402SOL    HW162816  13.778   8.524  -0.004  1.5538 -2.6814  0.5091
48402SOL    HW262817  13.718   8.538   0.135  0.3487 -1.6242 -0.0968
48403SOL     OW62818  11.330   1.217   9.501 -0.1151 -0.4810  0.5789
48403SOL    HW162819  11.422   1.189   9.502 -0.5009 -2.3385 -2.8765
48403SOL    HW262820  11.334   1.311   9.484  1.0763 -0.0960  2.5597
48404SOL     OW62821  12.843   6.525  10.495 -0.4038  0.0938  0.6254
48404SOL    HW162822  12.838   6.588  10.567  0.1495  0.2588  0.5243
48404SOL    HW262823  12.849   6.440  10.538 -1.0760  0.1061  0.7624
48405SOL     OW62824   2.843   3.021   9.081 -0.2326  0.3389  0.0830
48405SOL    HW162825   2.885   2.957   9.139  2.7170  1.0537 -1.0862
48405SOL    HW262826   2.771   2.973   9.039  0.2792 -1.4188  1.1208
48406SOL     OW62827   5.027   6.948   0.032 -0.1155 -0.2184 -0.6217
48406SOL    HW162828   5.113   6.921   0.064 -0.1284  0.4377 -0.0155
48406SOL    HW262829   4.968   6.879   0.063 -0.1063  0.3314  0.7062
48407SOL     OW62830  11.240   7.279   3.002 -0.2325 -0.8907 -0.0994
48407SOL    HW162831  11.268   7.355   2.951  2.6106  0.7391  3.4229
48407SOL    HW262832  11.298   7.208   2.974 -0.2674 -0.6753 -0.7170
48408SOL     OW62833   1.109   5.502   7.799 -0.0709 -0.0474 -0.2967
48408SOL    HW162834   1.091   5.569   7.733 -1.4456 -0.6733 -0.5918
48408SOL    HW262835   1.023   5.481   7.836  0.3991 -1.2761  0.1493
48409SOL     OW62836  13.894   2.530   0.659 -1.0031  0.1737 -0.1445
48409SOL    HW162837  13.890   2.620   0.690  1.0149  0.2282  0.0997
48409SOL    HW262838  13.873   2.535   0.566 -0.3309  0.9712 -0.2560
48410SOL     OW62839   1.728   7.347   9.459  0.4979  0.1151  0.5232
48410SOL    HW162840   1.740   7.442   9.453 -0.9693  0.2459 -0.9578
48410SOL    HW262841   1.657   7.336   9.521 -0.1142  0.0721 -0.1702
48411SOL     OW62842   9.005   7.782  11.105 -0.9360 -0.1875  0.2604
48411SOL    HW162843   9.073   7.849  11.099 -1.4333  0.3004 -0.0239
48411SOL    HW262844   8.931   7.827  11.146 -1.9727  0.0178 -1.6975
48412SOL     OW62845  11.274  12.348   7.106  0.3988 -0.0931  0.3506
48412SOL    HW162846  11.193  12.375   7.062  1.0302  0.6785 -0.3687
48412SOL    HW262847  11.297  12.423   7.162  1.3705  0.2913 -0.5352
48413SOL     OW62848   6.641  11.078   0.983  0.4498 -0.0738  0.6920
48413SOL    HW162849   6.551  11.107   0.972 -0.2483 -2.5990 -0.8553
48413SOL    HW262850   6.639  11.020   1.059  0.8356 -0.0160  0.7538
48414SOL     OW62851   2.520  13.166   9.942 -0.0957 -0.1465  0.1843
48414SOL    HW162852   2.565  13.248   9.961  1.3382 -0.8455 -0.0238
48414SOL    HW262853   2.435  13.174   9.984  0.9003  0.5337  2.1574
48415SOL     OW62854   7.423   9.595   4.745 -0.0323 -0.1797  0.0937
48415SOL    HW162855   7.454   9.508   4.771 -1.7518 -0.6196  0.8697
48415SOL    HW262856   7.417   9.591   4.649  1.8774 -0.1752 -0.0549
48416SOL     OW62857   7.282   0.736   1.320  0.0794  0.3016 -0.4248
48416SOL    HW162858   7.299   0.753   1.228 -1.3362 -1.1195 -1.0048
48416SOL    HW262859   7.362   0.694   1.352  1.0631  1.9357 -0.6389
48417SOL     OW62860   1.906   7.276  12.243 -0.3273  0.5616  0.2448
48417SOL    HW162861   1.862   7.360  12.243 -1.1133  0.1585 -0.3976
48417SOL    HW262862   1.837   7.212  12.227  0.3798 -0.1426 -0.0612
48418SOL     OW62863   5.776   7.289   4.261 -0.5450  0.1956  0.0586
48418SOL    HW162864   5.702   7.330   4.217  0.7806  0.7561 -1.7465
48418SOL    HW262865   5.770   7.197   4.237  0.2779  0.5278 -1.5415
48419SOL     OW62866   1.353   3.181  10.060  0.1045  0.2956  0.2135
48419SOL    HW162867   1.320   3.175   9.970 -0.1548  1.7873  0.1822
48419SOL    HW262868   1.341   3.093  10.095  1.0371 -0.5559 -1.4804
48420SOL     OW62869   0.918  13.496   2.160 -0.1057 -0.1607 -0.1198
48420SOL    HW162870   0.853  13.565   2.152  0.5580  0.4615 -0.2309
48420SOL    HW262871   0.997  13.540   2.192  0.2451 -0.9116  0.0824
48421SOL     OW62872  12.549   1.843   9.793  0.0311 -0.3662  0.5855
48421SOL    HW162873  12.559   1.882   9.879  0.1817 -0.4944  0.6265
48421SOL    HW262874  12.590   1.905   9.733 -1.4820  0.5048  0.4087
48422SOL     OW62875   9.328   0.233   1.901 -0.3348  0.3747  0.4682
48422SOL    HW162876   9.269   0.248   1.975 -0.3203 -1.3795  0.8939
48422SOL    HW262877   9.415   0.256   1.935 -0.0228 -2.2860  1.7615
48423SOL     OW62878   9.202   4.051   2.356  0.2806 -0.0585 -0.3417
48423SOL    HW162879   9.131   4.049   2.291 -0.6111  0.6677  0.5774
48423SOL    HW262880   9.267   4.111   2.318  0.1020 -0.2019 -0.8900
48424SOL     OW62881   9.292   3.219   6.922  0.1559  0.8637  0.1014
48424SOL    HW162882   9.332   3.298   6.885  0.1064  0.3203 -1.1608
48424SOL    HW262883   9.359   3.184   6.981  0.5276  1.3627 -0.0201
48425SOL     OW62884   2.083   5.034   4.869 -0.7479 -0.1004  0.6828
48425SOL    HW162885   2.095   5.129   4.873 -1.7496  0.0863 -0.2498
48425SOL    HW262886   2.160   5.002   4.821 -0.5601  0.2752  0.7279
48426SOL     OW62887   7.951   8.770   2.457 -0.2278  0.3622 -0.1615
48426SOL    HW162888   7.861   8.779   2.424  0.8750  0.4094 -3.5023
48426SOL    HW262889   7.988   8.858   2.449  0.3786  0.1647  0.3955
48427SOL     OW62890  12.728   3.711  10.071 -0.7336 -0.3004 -0.3973
48427SOL    HW162891  12.781   3.725   9.993  0.3911  0.2699  0.4462
48427SOL    HW262892  12.791   3.697  10.141 -1.6531  1.1520  0.7830
48428SOL     OW62893   9.308   4.783  12.592 -0.7211 -0.1559  0.1671
48428SOL    HW162894   9.301   4.876  12.571  0.4227 -0.1926 -0.4334
48428SOL    HW262895   9.355   4.780  12.675 -1.2045 -0.1946  0.4473
48429SOL     OW62896   9.612   5.167   5.807  0.0808  0.1147 -0.5318
48429SOL    HW162897   9.643   5.257   5.802 -2.2735  1.3014  2.7324
48429SOL    HW262898   9.673   5.124   5.867  1.3637 -0.6386 -2.2994
48430SOL     OW62899   0.261  12.272   2.823  0.3396 -0.0245  0.3811
48430SOL    HW162900   0.303  12.317   2.750  1.1079  0.8787  1.3449
48430SOL    HW262901   0.184  12.230   2.784  0.5274  0.7382 -0.8727
48431SOL     OW62902   0.702   6.205   6.939  0.2092 -0.1566 -0.1338
48431SOL    HW162903   0.703   6.298   6.960  0.3296 -0.3011  0.5550
48431SOL    HW262904   0.790   6.186   6.909  0.9839 -0.5352  2.1370
48432SOL     OW62905   0.479  11.652   8.231  0.2864 -0.0093  0.7016
48432SOL    HW162906   0.506  11.737   8.265  1.4291 -0.8430  1.9818
48432SOL    HW262907   0.560  11.608   8.206 -0.3930 -0.0347 -1.8163
48433SOL     OW62908   5.116   8.126   1.907  0.0947  0.4690 -0.1660
48433SOL    HW162909   5.033   8.100   1.947  0.2274 -0.0830 -0.2407
48433SOL    HW262910   5.155   8.186   1.971  0.4975 -0.7320  0.7581
48434SOL     OW62911   6.092  13.515  11.943 -0.0251  0.2946  0.9727
48434SOL    HW162912   6.128  13.597  11.977 -0.9247  1.0812  0.0879
48434SOL    HW262913   6.060  13.537  11.856 -0.9970 -0.8076  1.0229
48435SOL     OW62914  10.470   1.104   2.973  0.2503  0.5128 -0.1015
48435SOL    HW162915  10.540   1.164   3.000 -1.6137  2.3393  0.9820
48435SOL    HW262916  10.441   1.138   2.888 -1.1099  1.5446  0.7174
48436SOL     OW62917   9.197   8.758  10.214  0.1868 -0.0232 -0.8457
48436SOL    HW162918   9.120   8.729  10.163 -2.2486  3.2063  0.6291
48436SOL    HW262919   9.222   8.681  10.264 -3.3637 -0.8242 -0.0116
48437SOL     OW62920  13.590  12.057   9.690  0.0368 -0.2151  0.0546
48437SOL    HW162921  13.542  12.122   9.742 -1.3540 -0.3126 -1.0292
48437SOL    HW262922  13.667  12.104   9.659 -0.8579  0.9011 -0.5663
48438SOL     OW62923  12.221  12.719   8.108 -0.0201  0.6196  0.0224
48438SOL    HW162924  12.305  12.764   8.118  0.8127 -0.8203 -0.2493
48438SOL    HW262925  12.239  12.628   8.132 -1.0550 -0.1146 -1.7764
48439SOL     OW62926   0.409  11.865   8.713 -0.5660  0.4043  0.7045
48439SOL    HW162927   0.471  11.797   8.688  0.7063  1.1686  1.6266
48439SOL    HW262928   0.332  11.817   8.743 -1.0131 -0.5548 -1.7287
48440SOL     OW62929   5.644  13.753   7.622 -0.2524  0.2244  0.7150
48440SOL    HW162930   5.626  13.661   7.604  0.7399  0.3739 -1.2937
48440SOL    HW262931   5.625  13.763   7.716 -1.8190 -1.6389  0.6565
48441SOL     OW62932   0.177   7.679   3.592 -0.4084 -0.3330 -0.4502
48441SOL    HW162933   0.258   7.674   3.644 -0.5389 -1.6272 -0.3402
48441SOL    HW262934   0.194   7.625   3.515 -0.7552  0.3626 -1.0312
48442SOL     OW62935   4.821  12.322   0.533 -0.2792  0.0810 -0.1026
48442SOL    HW162936   4.841  12.298   0.624 -1.0070 -0.3157 -0.0446
48442SOL    HW262937   4.738  12.368   0.538 -0.6719 -0.5622 -0.6535
48443SOL     OW62938   4.847   2.976  13.201  0.6713 -0.3900 -0.1898
48443SOL    HW162939   4.903   2.968  13.278  0.1366  0.7441  0.3348
48443SOL    HW262940   4.829   2.885  13.176  2.1068 -0.7805  0.0699
48444SOL     OW62941  13.730   0.999   0.838  0.2116  0.1848 -0.4189
48444SOL    HW162942  13.774   0.962   0.914  0.2118  0.4098 -0.3096
48444SOL    HW262943  13.637   0.995   0.859  0.2602  1.2573  0.0608
48445SOL     OW62944   7.362  10.469   4.842 -0.2483 -0.2844 -0.2782
48445SOL    HW162945   7.442  10.485   4.892 -1.0036 -0.6527  1.1193
48445SOL    HW262946   7.307  10.545   4.860 -0.1070  0.1259 -1.4976
48446SOL     OW62947   2.134   5.772   5.326  0.0635  0.5161 -0.1797
48446SOL    HW162948   2.206   5.820   5.367  0.2873  1.2912 -1.4343
48446SOL    HW262949   2.148   5.783   5.232 -2.6714  2.2302 -0.4986
48447SOL     OW62950  13.499   5.542   7.693  0.7945  0.3581  0.5760
48447SOL    HW162951  13.436   5.476   7.665  1.7463 -0.4012  0.1850
48447SOL    HW262952  13.581   5.494   7.705  1.6143  1.5238 -0.1268
48448SOL     OW62953  12.182   7.532   7.993  0.4416  0.0136  0.6168
48448SOL    HW162954  12.195   7.624   8.018  0.0192  0.0915  0.5513
48448SOL    HW262955  12.148   7.536   7.904  0.5408 -0.2140  0.5681
48449SOL     OW62956   1.272   1.399   7.481 -0.1557 -0.5842  0.0405
48449SOL    HW162957   1.367   1.401   7.497 -0.1049  0.4288 -0.3155
48449SOL    HW262958   1.248   1.491   7.470 -1.6663 -0.5154  2.9425
48450SOL     OW62959   8.313   7.668   0.388  0.0016  0.2040  0.1030
48450SOL    HW162960   8.236   7.647   0.335  1.0401  0.4718 -1.5954
48450SOL    HW262961   8.313   7.763   0.394  0.2345  0.2075  0.0499
48451SOL     OW62962  12.745  11.339   8.581  0.0569  0.1734 -0.1651
48451SOL    HW162963  12.822  11.354   8.527  1.0988 -0.4776  1.0955
48451SOL    HW262964  12.764  11.383   8.664 -2.0731  2.3104 -0.6970
48452SOL     OW62965   6.001   9.946  11.075 -0.1492  0.2585 -0.1804
48452SOL    HW162966   6.088   9.913  11.097 -0.5532 -1.0467 -0.4934
48452SOL    HW262967   6.015  10.001  10.998  0.4358  0.2864 -0.0608
48453SOL     OW62968   8.075  10.775  13.667 -0.3084 -0.5149 -0.1433
48453SOL    HW162969   8.062  10.681  13.657  0.2280 -0.7306  1.0254
48453SOL    HW262970   8.156  10.783  13.717  0.3273  0.6071 -1.2862
48454SOL     OW62971  14.065   7.807   2.773 -0.1802  0.4782  0.3856
48454SOL    HW162972  13.973   7.787   2.789  0.3686 -1.8233  1.1043
48454SOL    HW262973  14.096   7.846   2.855  0.2405 -1.9883  1.4925
48455SOL     OW62974   4.524   9.900   2.798 -0.3562  0.4770 -0.3359
48455SOL    HW162975   4.559   9.864   2.879 -1.2840  1.5397  0.5593
48455SOL    HW262976   4.574   9.980   2.784 -0.6856  0.6641 -0.4375
48456SOL     OW62977  11.318  10.619   7.426  0.0297  0.2100  0.2229
48456SOL    HW162978  11.284  10.671   7.499 -1.0759 -1.0788  0.6531
48456SOL    HW262979  11.291  10.529   7.445  2.4235 -0.6761 -0.1814
48457SOL     OW62980   5.438   5.924   1.118  0.1197  0.5245 -0.0783
48457SOL    HW162981   5.480   5.874   1.189  1.9157 -1.6851 -2.4866
48457SOL    HW262982   5.345   5.900   1.124  0.5709 -1.2928  0.2988
48458SOL     OW62983   1.347  12.392   5.821  0.4433 -0.6356 -0.3004
48458SOL    HW162984   1.327  12.474   5.776  0.0504 -1.1973 -1.1825
48458SOL    HW262985   1.371  12.418   5.910  0.8134  0.4672 -0.7126
48459SOL     OW62986  13.082   1.366   0.642 -0.2772 -0.0951 -0.3196
48459SOL    HW162987  13.095   1.401   0.730 -0.7813  1.4769 -0.8325
48459SOL    HW262988  13.164   1.384   0.596  0.5659 -2.2865  0.2141
48460SOL     OW62989   8.286   4.043   3.194 -0.1508  0.3476 -0.0906
48460SOL    HW162990   8.220   4.109   3.175 -0.9448  0.0930  1.5656
48460SOL    HW262991   8.236   3.967   3.223  0.8448  0.2491  1.5007
48461SOL     OW62992   0.155  14.006   9.636 -0.1277 -0.3738  0.6828
48461SOL    HW162993   0.118  14.078   9.686 -1.6702 -0.1129 -0.7561
48461SOL    HW262994   0.096  13.932   9.653 -0.3985 -0.4054 -0.3623
48462SOL     OW62995   1.796   1.267   8.775 -0.8936 -0.6845  0.4070
48462SOL    HW162996   1.833   1.183   8.749 -0.6923 -0.4930  0.0729
48462SOL    HW262997   1.808   1.270   8.870  2.5604  0.5795  0.0608
48463SOL     OW62998   4.956  12.179   6.150  0.4682 -0.6543  0.4491
48463SOL    HW162999   4.967  12.085   6.161  0.5809 -0.7110 -0.1664
48463SOL    HW263000   4.991  12.198   6.064 -1.3031 -0.3431 -0.2532
48464SOL     OW63001  10.887   4.386   4.453  0.8724  0.0252 -0.0516
48464SOL    HW163002  10.946   4.375   4.379  0.6646  1.0285 -0.3884
48464SOL    HW263003  10.850   4.473   4.441 -0.5299 -0.5054  0.2624
48465SOL     OW63004  13.751  13.222  10.348  0.1116  0.4084 -0.3013
48465SOL    HW163005  13.691  13.169  10.296  0.9861  0.2389 -1.1521
48465SOL    HW263006  13.712  13.310  10.347 -0.5358  0.1258 -0.1753
48466SOL     OW63007   3.528   7.741   0.561 -0.1653  0.4383 -0.1005
48466SOL    HW163008   3.608   7.715   0.515  1.9515  2.1870  2.2893
48466SOL    HW263009   3.527   7.837   0.553 -0.1478  0.7412  2.6310
48467SOL     OW63010  11.206   5.533   6.957  0.6848  0.0649 -0.0655
48467SOL    HW163011  11.167   5.588   7.026 -0.0021  0.4977 -0.7853
48467SOL    HW263012  11.144   5.539   6.884 -0.0837 -2.6860  0.2413
48468SOL     OW63013   8.241   1.539   6.656 -0.6643 -0.0316 -0.7255
48468SOL    HW163014   8.235   1.609   6.590 -2.8926 -0.9922 -1.6696
48468SOL    HW263015   8.153   1.535   6.694 -0.0313 -1.0382  0.7023
48469SOL     OW63016   4.723   9.870   3.976  0.7868  0.3038  0.0753
48469SOL    HW163017   4.818   9.864   3.965  0.9429  2.8409 -0.6469
48469SOL    HW263018   4.695   9.927   3.904 -1.4370 -1.1476 -0.2953
48470SOL     OW63019  13.130  11.044   7.623  0.5399 -0.4419  0.7342
48470SOL    HW163020  13.050  11.086   7.592  0.6240  1.5927  3.0007
48470SOL    HW263021  13.200  11.088   7.576  0.5474  1.1882  2.1828
48471SOL     OW63022   4.106  13.276   4.662 -0.3975  0.2381  0.6567
48471SOL    HW163023   4.131  13.305   4.574  1.5969  1.6727  1.5962
48471SOL    HW263024   4.028  13.328   4.682  0.2972  1.4095  0.4528
48472SOL     OW63025   1.565   1.835   8.902  0.1295 -0.0377 -0.3657
48472SOL    HW163026   1.569   1.924   8.936  0.3062 -0.0475 -0.3594
48472SOL    HW263027   1.640   1.829   8.843 -0.0109 -0.1119 -0.5355
48473SOL     OW63028   1.285  10.489  11.051  0.2585  0.4899  0.1536
48473SOL    HW163029   1.357  10.547  11.026  1.5247  0.1414  2.6239
48473SOL    HW263030   1.327  10.419  11.100 -1.7721  0.5263  2.1202
48474SOL     OW63031   5.067   3.294  12.376 -0.1626 -0.1030 -0.3483
48474SOL    HW163032   5.159   3.289  12.400  0.1543  0.4686 -1.3745
48474SOL    HW263033   5.029   3.212  12.407  1.2607 -1.5398 -2.1801
48475SOL     OW63034   0.348   5.430  11.584 -0.4040  0.4590  0.0866
48475SOL    HW163035   0.265   5.436  11.631 -0.1393  0.7580  0.5365
48475SOL    HW263036   0.376   5.522  11.575 -0.5189  0.4084 -0.7788
48476SOL     OW63037   9.546   1.197   3.203 -0.1971 -0.0054 -0.3109
48476SOL    HW163038   9.565   1.290   3.195  0.3252  0.0137  0.9198
48476SOL    HW263039   9.624   1.154   3.168  0.8661  0.0614  1.8262
48477SOL     OW63040   2.468  10.154   4.719 -0.1665  0.2164 -0.0564
48477SOL    HW163041   2.468  10.059   4.705 -0.7000  0.5128 -2.6205
48477SOL    HW263042   2.557  10.181   4.696  0.1094  0.3319  1.0748
48478SOL     OW63043   3.488   1.145   7.431 -0.2977 -0.4193 -0.3027
48478SOL    HW163044   3.488   1.120   7.338 -1.3770  1.6735 -0.9277
48478SOL    HW263045   3.395   1.150   7.454 -0.0438 -0.7270  0.8606
48479SOL     OW63046   4.607   1.234   8.287 -0.4740 -0.1899 -0.2695
48479SOL    HW163047   4.644   1.178   8.219  0.0607  0.6869 -0.7201
48479SOL    HW263048   4.680   1.247   8.349 -0.1028  1.2319 -0.9617
48480SOL     OW63049   1.042   4.844  13.736 -0.1467  0.1393  0.4690
48480SOL    HW163050   1.107   4.781  13.767 -0.5764  0.6946  2.6209
48480SOL    HW263051   1.072   4.867  13.647  2.9377  0.7573  1.5366
48481SOL     OW63052   2.274   2.360   0.768  0.0243 -0.3519 -0.3684
48481SOL    HW163053   2.343   2.386   0.707 -0.4083 -0.2602 -0.8188
48481SOL    HW263054   2.206   2.321   0.713 -0.9451  0.9116 -0.1050
48482SOL     OW63055   8.952   5.674   0.273  0.0928 -1.4583 -0.9290
48482SOL    HW163056   8.920   5.664   0.363 -0.3859 -2.1495 -1.1639
48482SOL    HW263057   9.017   5.605   0.263  0.4640 -1.1059 -0.9813
48483SOL     OW63058   1.287   2.796  12.414  0.0501  0.5265 -0.6320
48483SOL    HW163059   1.298   2.891  12.419  0.6404  0.4224  0.3263
48483SOL    HW263060   1.234   2.774  12.490  0.7953 -0.0250 -0.2607
48484SOL     OW63061   7.935  13.927  13.104  0.3742  0.3100 -0.3481
48484SOL    HW163062   7.895  14.013  13.115  0.6829  0.3149  0.8309
48484SOL    HW263063   8.028  13.943  13.117  0.5867 -0.0039 -1.3679
48485SOL     OW63064   3.606   3.208   0.987 -0.6259  0.0208 -0.8050
48485SOL    HW163065   3.513   3.187   0.992 -0.7232  0.2281 -1.5685
48485SOL    HW263066   3.650   3.126   1.009 -0.9787  0.0406  0.0195
48486SOL     OW63067   2.826   7.230   5.811 -0.7204 -0.1730  0.2214
48486SOL    HW163068   2.858   7.295   5.874  1.0641 -0.0328 -0.7483
48486SOL    HW263069   2.736   7.256   5.794  0.3399  3.0916 -1.3008
48487SOL     OW63070   4.488   2.312   1.940 -0.3052  0.1805 -0.0623
48487SOL    HW163071   4.566   2.327   1.992  1.3480 -2.9712 -1.3096
48487SOL    HW263072   4.513   2.335   1.850  0.1323 -2.9495 -0.8678
48488SOL     OW63073   9.826   2.155   0.980 -0.6004 -0.3861  0.6757
48488SOL    HW163074   9.754   2.093   0.967 -0.4242 -0.4026 -0.2755
48488SOL    HW263075   9.844   2.151   1.074 -1.3716 -0.9027  0.8131
48489SOL     OW63076   6.779   2.560   0.898  0.8000  0.1924 -0.2368
48489SOL    HW163077   6.753   2.548   0.989  1.2683  0.1401 -0.1118
48489SOL    HW263078   6.836   2.637   0.899  0.7428  0.2378 -0.4959
48490SOL     OW63079   1.109   5.450   2.666  0.6981 -0.6026  0.1479
48490SOL    HW163080   1.125   5.519   2.602 -4.4767  0.3240 -0.5335
48490SOL    HW263081   1.124   5.492   2.751 -1.1240  1.1033 -0.3086
48491SOL     OW63082   8.491   0.837   9.027  0.1663 -0.7458  0.2457
48491SOL    HW163083   8.541   0.856   8.948 -1.5785  3.5424 -0.0995
48491SOL    HW263084   8.554   0.843   9.098  0.9634 -0.0168 -0.5024
48492SOL     OW63085  13.611  11.351   0.912  0.1477  0.0859  0.7254
48492SOL    HW163086  13.522  11.375   0.887  0.0847  1.2802  1.9702
48492SOL    HW263087  13.648  11.312   0.833 -2.2812 -2.9869  0.9196
48493SOL     OW63088  12.133   2.795   7.661  0.6151 -0.1333 -0.0732
48493SOL    HW163089  12.156   2.832   7.576  4.2242  1.4758  1.3853
48493SOL    HW263090  12.056   2.844   7.689 -0.0184  0.0012 -1.9318
48494SOL     OW63091   3.543   7.639   7.503  0.5766  0.9540  0.1220
48494SOL    HW163092   3.544   7.576   7.576  1.2964 -1.0786 -1.5290
48494SOL    HW263093   3.584   7.717   7.539  2.0419 -0.3986  1.5818
48495SOL     OW63094   8.978   5.911   0.830 -0.1850  0.6589  0.2656
48495SOL    HW163095   8.979   6.003   0.853  0.4058  0.6275  0.3972
48495SOL    HW263096   8.898   5.899   0.780 -1.0367  0.9214  1.5282
48496SOL     OW63097   0.424   1.074   5.204  0.4984 -0.5738 -0.1932
48496SOL    HW163098   0.503   1.048   5.156  0.3556 -1.5125  0.0445
48496SOL    HW263099   0.435   1.167   5.221  1.5292 -0.6823 -0.2152
48497SOL     OW63100   6.080   4.820   0.695  0.3949  0.0834 -0.2024
48497SOL    HW163101   6.080   4.725   0.708  0.7530  0.0850 -0.1853
48497SOL    HW263102   6.032   4.833   0.613 -1.4146  0.0357  0.8142
48498SOL     OW63103   0.721   0.383  13.792 -0.0663  0.0308 -0.2627
48498SOL    HW163104   0.647   0.324  13.787 -1.3930  1.6328 -0.5303
48498SOL    HW263105   0.700   0.442  13.864  1.7127 -0.4215  0.6977
48499SOL     OW63106   2.640   1.266   1.673  0.1016 -0.1756 -1.0892
48499SOL    HW163107   2.660   1.349   1.629 -1.4403  0.4099 -0.7606
48499SOL    HW263108   2.545   1.269   1.687  0.3655 -0.9204  1.1306
48500SOL     OW63109   7.879   0.911  12.074 -0.3803  0.0898  0.1438
48500SOL    HW163110   7.970   0.938  12.086 -0.1020  0.2386 -1.8262
48500SOL    HW263111   7.850   0.884  12.160  1.6785 -0.4003  0.7431
48501SOL     OW63112   4.029   4.754  13.656  0.3064 -0.4385  0.2918
48501SOL    HW163113   3.951   4.768  13.601  0.9847  2.1553 -0.1450
48501SOL    HW263114   3.995   4.748  13.745 -0.4251  1.6052  0.2170
48502SOL     OW63115  11.764   1.567   1.714  0.5248  0.1516  0.1058
48502SOL    HW163116  11.728   1.490   1.670  0.7261 -0.3306  0.7585
48502SOL    HW263117  11.688   1.606   1.758  0.6623 -0.4927  0.9429
48503SOL     OW63118   1.741   2.357   7.428  0.3504  0.4074  0.5709
48503SOL    HW163119   1.831   2.381   7.405 -0.1714  0.4146 -1.6824
48503SOL    HW263120   1.747   2.266   7.458  0.9985  0.1221 -0.3918
48504SOL     OW63121  12.431   4.507   1.647 -0.8597  0.0826 -0.1806
48504SOL    HW163122  12.489   4.514   1.723  1.1168 -0.4417 -1.5388
48504SOL    HW263123  12.403   4.416   1.647 -2.0119  0.4152  0.6650
48505SOL     OW63124   2.332   3.997   3.605  0.0912 -0.6831  0.2840
48505SOL    HW163125   2.241   4.000   3.574 -0.4501  1.2106  1.8282
48505SOL    HW263126   2.373   3.929   3.552 -1.8750 -0.6666 -1.4013
48506SOL     OW63127   9.733   0.884  13.472  0.1779  0.1073  0.2480
48506SOL    HW163128   9.726   0.926  13.386  0.7912 -0.4073 -0.0606
48506SOL    HW263129   9.805   0.822  13.463 -0.4581 -0.7388  0.8169
48507SOL     OW63130  12.990   7.482  13.434 -0.5786 -0.0280 -0.2670
48507SOL    HW163131  12.917   7.518  13.384 -1.2103 -0.9324 -0.0330
48507SOL    HW263132  12.966   7.497  13.526  0.1925  0.9065 -0.2130
48508SOL     OW63133   3.997   8.501   8.454  0.4284 -0.0910 -0.4301
48508SOL    HW163134   3.970   8.496   8.546  0.2067 -0.3274 -0.5059
48508SOL    HW263135   4.091   8.519   8.457  0.4031  0.0019 -0.1576
48509SOL     OW63136   2.157   3.623  11.535  0.5625  0.0080  0.1124
48509SOL    HW163137   2.213   3.630  11.458  0.6251  1.2764  0.2602
48509SOL    HW263138   2.068   3.614  11.500  0.6466  0.0052 -0.0989
48510SOL     OW63139  13.178   3.304  12.748 -0.0867  0.0760 -0.2025
48510SOL    HW163140  13.144   3.364  12.681 -0.0244 -0.5669 -0.8274
48510SOL    HW263141  13.125   3.321  12.825  0.7993  1.8701  0.0522
48511SOL     OW63142   9.109   6.455  13.013 -0.4233 -0.0394  0.1773
48511SOL    HW163143   9.094   6.360  13.008 -0.5677  0.0249 -2.5755
48511SOL    HW263144   9.033   6.493  12.968 -0.3066  1.3882  1.1370
48512SOL     OW63145   0.195  12.505   8.622  0.3262 -0.2026 -0.4053
48512SOL    HW163146   0.282  12.500   8.661  0.0857  0.4332  0.2224
48512SOL    HW263147   0.155  12.420   8.642  0.4267 -0.1086  0.2225
48513SOL     OW63148  10.060   2.654  10.312  0.0428 -0.1533  0.2200
48513SOL    HW163149  10.030   2.608  10.234  0.4244 -0.6490  0.3595
48513SOL    HW263150  10.149   2.622  10.326 -0.6673 -1.5488  1.9651
48514SOL     OW63151   3.774   9.837  13.601 -0.3652  0.4989 -0.2371
48514SOL    HW163152   3.690   9.867  13.634 -0.1181 -1.0239  1.9849
48514SOL    HW263153   3.757   9.747  13.571  0.1527  0.7222 -1.2626
48515SOL     OW63154   8.366   1.590  10.090 -1.7176 -0.4812  0.0457
48515SOL    HW163155   8.424   1.562  10.160  0.3523  1.0647 -0.9275
48515SOL    HW263156   8.356   1.514  10.034  1.5058 -0.2217 -1.0819
48516SOL     OW63157   9.928   9.481   1.300 -0.4028  0.2974  0.1154
48516SOL    HW163158   9.978   9.413   1.344 -1.7001 -0.1868  0.9020
48516SOL    HW263159   9.961   9.481   1.210  0.7394 -0.2378  0.5146
48517SOL     OW63160   6.690   7.913   7.898  0.0584 -0.4540  0.1546
48517SOL    HW163161   6.650   7.933   7.813 -0.5504 -0.4471  0.4332
48517SOL    HW263162   6.736   7.830   7.884 -1.7348 -1.5362  0.3233
48518SOL     OW63163   6.561  13.085  10.492  0.6795  0.4401 -0.2596
48518SOL    HW163164   6.588  13.148  10.559  0.5040 -0.5905  0.8176
48518SOL    HW263165   6.481  13.046  10.527  0.5518 -0.0744 -1.1067
48519SOL     OW63166   6.981  13.487   8.618 -0.0777  0.3104  0.2724
48519SOL    HW163167   7.029  13.530   8.547 -1.1446 -0.8236 -1.2244
48519SOL    HW263168   6.993  13.544   8.694 -1.2325  3.1463 -1.5175
48520SOL     OW63169   8.819  11.815  10.627 -0.1046 -0.1397  0.2814
48520SOL    HW163170   8.877  11.751  10.586  0.4126  1.0781 -0.9898
48520SOL    HW263171   8.753  11.763  10.672  0.5658 -1.5476 -0.3116
48521SOL     OW63172  10.588  11.600  13.059  0.0498 -0.1942 -0.5703
48521SOL    HW163173  10.589  11.517  13.012 -1.0569 -0.7935  0.4075
48521SOL    HW263174  10.649  11.656  13.011  1.8382 -1.9689 -0.4816
48522SOL     OW63175  13.166  12.529   0.278  0.3898  0.2265 -0.4738
48522SOL    HW163176  13.157  12.537   0.183 -0.8705 -0.5165 -0.4371
48522SOL    HW263177  13.076  12.535   0.311  0.6957 -0.6752  0.5715
48523SOL     OW63178   8.258   3.602   4.784  0.2070  0.1716 -0.1924
48523SOL    HW163179   8.242   3.587   4.878 -0.7299  0.9858 -0.2008
48523SOL    HW263180   8.310   3.682   4.781  0.6337 -0.1082 -0.3577
48524SOL     OW63181   5.849   4.544   3.412  0.0351 -0.7433 -0.0662
48524SOL    HW163182   5.914   4.534   3.342  0.2563 -0.4669  0.0971
48524SOL    HW263183   5.792   4.615   3.382  0.5627 -0.1362  0.3605
48525SOL     OW63184   5.951   1.308  11.619 -0.1570  0.0919 -0.3015
48525SOL    HW163185   5.939   1.265  11.704  1.1907  0.4823  0.1098
48525SOL    HW263186   5.919   1.397  11.632  1.4293  0.6116  0.2797
48526SOL     OW63187   8.623  13.325   0.801  0.2495  0.2291 -0.2784
48526SOL    HW163188   8.711  13.342   0.836  0.5337  1.5874 -1.5561
48526SOL    HW263189   8.638  13.271   0.723 -0.2058 -0.8780  0.3692
48527SOL     OW63190   7.631  13.192   3.318  0.2935  0.1851  0.0072
48527SOL    HW163191   7.587  13.176   3.402  0.2038  0.1085 -0.0535
48527SOL    HW263192   7.596  13.124   3.260 -0.0366  0.5505 -0.2336
48528SOL     OW63193   9.675  12.967   3.920 -0.1863 -0.2574 -0.1926
48528SOL    HW163194   9.747  12.939   3.863  0.1259  0.7930 -0.3323
48528SOL    HW263195   9.661  13.058   3.898  0.0327  0.2268  1.5024
48529SOL     OW63196   1.788   9.406   7.603 -0.1509 -0.1036  0.0680
48529SOL    HW163197   1.721   9.428   7.667 -0.1449 -2.1799  0.8873
48529SOL    HW263198   1.871   9.418   7.649 -0.1357 -1.3192  0.3874
48530SOL     OW63199   5.635   5.869  11.911 -0.3545  0.1151 -1.0413
48530SOL    HW163200   5.683   5.788  11.893  0.0409  0.3627 -1.1005
48530SOL    HW263201   5.635   5.876  12.007 -1.9317 -0.8834 -0.9200
48531SOL     OW63202   5.618   4.776   6.770  0.6553 -0.1947 -0.2108
48531SOL    HW163203   5.527   4.801   6.785  0.9327 -0.4576  2.1956
48531SOL    HW263204   5.614   4.717   6.694 -0.9030  1.2563 -1.3220
48532SOL     OW63205  11.966  12.716   6.334 -0.0047  0.0167  0.3937
48532SOL    HW163206  12.053  12.751   6.355  0.0705  0.3651 -0.4759
48532SOL    HW263207  11.906  12.770   6.386  0.0695  1.8229 -1.2733
48533SOL     OW63208  13.231   5.979   8.222  0.3694 -0.2859  0.5523
48533SOL    HW163209  13.211   5.995   8.130 -1.0354  2.3861  1.2156
48533SOL    HW263210  13.182   5.900   8.244  0.3530 -0.6887 -0.8440
48534SOL     OW63211  12.463   1.594   9.207 -0.1003 -0.2890 -0.4442
48534SOL    HW163212  12.556   1.582   9.191 -0.1330  1.3133 -2.1485
48534SOL    HW263213  12.421   1.527   9.153  0.0236 -0.5759 -0.1915
48535SOL     OW63214   2.965   8.362   7.828 -0.6181 -0.1954 -0.4704
48535SOL    HW163215   3.008   8.386   7.911 -0.6477 -1.3760 -0.0934
48535SOL    HW263216   2.910   8.437   7.807 -0.1525  0.3727  0.2660
48536SOL     OW63217  11.550   2.875   2.927 -0.0883  0.3683 -0.5188
48536SOL    HW163218  11.552   2.951   2.985 -1.6971  0.7677 -0.9244
48536SOL    HW263219  11.619   2.818   2.960  0.4176  1.5048  0.4876
48537SOL     OW63220   4.518   6.552  12.863 -0.3948 -0.1127 -0.1206
48537SOL    HW163221   4.474   6.546  12.779 -1.1254 -0.4407  0.2761
48537SOL    HW263222   4.513   6.644  12.886 -0.8029 -0.1296 -0.1252
48538SOL     OW63223   8.403   6.921   4.655  0.3944  0.4630 -0.3062
48538SOL    HW163224   8.427   6.989   4.718  0.0067  0.2653  0.0555
48538SOL    HW263225   8.326   6.879   4.693  0.7760 -0.3379 -0.4113
48539SOL     OW63226   4.082  10.032   7.771 -0.1018  0.5375  0.4201
48539SOL    HW163227   4.026  10.110   7.765  0.2637  0.8114  0.5349
48539SOL    HW263228   4.034   9.973   7.829  0.1613  1.1593  1.3124
48540SOL     OW63229  12.319   4.276   1.657  0.2721 -0.0857  0.1053
48540SOL    HW163230  12.318   4.180   1.650  0.1120 -0.1658  1.1294
48540SOL    HW263231  12.242   4.304   1.609  0.0629 -0.4982  0.1952
48541SOL     OW63232   4.245   4.808   5.262 -0.1545  0.5928  0.5362
48541SOL    HW163233   4.150   4.809   5.271 -0.0967  2.5692  1.4958
48541SOL    HW263234   4.267   4.716   5.248 -2.1858  0.0794  0.4136
48542SOL     OW63235   6.145   8.608  12.425 -0.1148  0.3872  0.2508
48542SOL    HW163236   6.194   8.525  12.418 -0.1439  0.4024 -0.1601
48542SOL    HW263237   6.201   8.664  12.478 -0.5733 -0.2453  1.4659
48543SOL     OW63238   0.536  12.318  10.445  0.5554  0.3868  0.3212
48543SOL    HW163239   0.560  12.403  10.409  0.9464  0.7254  1.3314
48543SOL    HW263240   0.443  12.309  10.428  1.1251 -0.5438 -2.8896
48544SOL     OW63241   2.916  11.495  12.818 -0.0867 -0.3507  0.2866
48544SOL    HW163242   2.885  11.411  12.851 -0.7953  0.1759  0.9976
48544SOL    HW263243   2.841  11.533  12.774 -0.3349  0.7036  1.5570
48545SOL     OW63244   6.161   7.142   1.017  0.7312  0.0454 -0.0341
48545SOL    HW163245   6.223   7.205   1.054  0.2896 -0.1071  0.9680
48545SOL    HW263246   6.207   7.058   1.023  0.6425  0.0145  0.1903
48546SOL     OW63247   9.127   8.157   3.491 -0.6223 -0.2279 -0.0262
48546SOL    HW163248   9.153   8.207   3.414 -1.6708  1.0480  0.3978
48546SOL    HW263249   9.184   8.188   3.561 -0.9010 -0.0366  0.1164
48547SOL     OW63250   8.895   8.106   8.601  0.6521  0.0875 -0.5286
48547SOL    HW163251   8.914   8.028   8.549 -1.1224 -0.5372 -0.2993
48547SOL    HW263252   8.886   8.176   8.537 -0.8348 -0.5439 -1.0623
48548SOL     OW63253  14.091  10.927   4.830 -0.0494 -0.2135 -0.4637
48548SOL    HW163254  14.132  10.872   4.763 -0.3365  0.6576 -1.3749
48548SOL    HW263255  14.161  10.944   4.892  0.5277 -0.1288 -1.1188
48549SOL     OW63256  12.217  11.797   6.910 -0.5144 -0.0075 -0.1242
48549SOL    HW163257  12.295  11.825   6.958 -0.9370 -0.5180  0.8828
48549SOL    HW263258  12.152  11.779   6.977 -1.1019 -0.8203 -0.8846
48550SOL     OW63259   1.879  12.140  10.276  0.1903 -0.1779  0.1141
48550SOL    HW163260   1.932  12.119  10.200 -1.5752  0.0054 -1.2377
48550SOL    HW263261   1.875  12.058  10.326 -0.2550 -0.8887 -1.0421
48551SOL     OW63262  13.811   2.510   2.525 -0.3935 -0.1006 -0.1658
48551SOL    HW163263  13.866   2.444   2.484  2.9743  2.8738 -1.0376
48551SOL    HW263264  13.826   2.498   2.619  0.7799 -0.1631 -0.3445
48552SOL     OW63265   6.925  13.092   8.250 -0.3524  0.1312  0.5201
48552SOL    HW163266   6.870  13.086   8.172 -0.7654 -1.2316  0.8791
48552SOL    HW263267   6.914  13.007   8.293  1.3470  0.1708  1.0834
48553SOL     OW63268   4.837  13.094   2.424 -0.1231 -0.0948 -0.2603
48553SOL    HW163269   4.790  13.029   2.372 -1.8034  0.4002  0.5631
48553SOL    HW263270   4.846  13.170   2.366  0.7120 -0.6012 -0.8053
48554SOL     OW63271   7.310  11.623  12.421  0.0320 -0.0351 -0.4361
48554SOL    HW163272   7.389  11.663  12.386 -0.9877  1.3399 -1.2754
48554SOL    HW263273   7.287  11.555  12.358  1.4211 -1.6059  0.6694
48555SOL     OW63274   2.575   9.004   4.587 -0.5209 -0.2574  0.5345
48555SOL    HW163275   2.631   8.929   4.607 -0.6151 -0.2163  0.9701
48555SOL    HW263276   2.616   9.077   4.633 -0.9494 -0.2337  0.8871
48556SOL     OW63277  12.458  13.668  14.036  0.5367 -0.2546  0.6494
48556SOL    HW163278  12.454  13.731  14.109  0.5255  0.0454  0.3901
48556SOL    HW263279  12.404  13.706  13.968  1.3255 -0.0601  0.1197
48557SOL     OW63280   2.174   2.331  13.014 -0.2007 -0.1043  0.1041
48557SOL    HW163281   2.195   2.365  12.927  0.4250 -0.1554  0.2291
48557SOL    HW263282   2.127   2.250  12.997  1.2904 -0.9426 -0.2045
48558SOL     OW63283   1.677   4.525   9.372  0.1170  0.3489  0.1372
48558SOL    HW163284   1.749   4.565   9.420 -0.4049  0.8824  0.4855
48558SOL    HW263285   1.681   4.563   9.285  0.9307 -0.4547 -0.1904
48559SOL     OW63286  10.267  12.751   9.698  0.1173  0.1863 -0.2678
48559SOL    HW163287  10.302  12.840   9.696 -3.0176  1.5231 -0.9161
48559SOL    HW263288  10.223  12.740   9.614 -1.3065 -1.1908  0.5805
48560SOL     OW63289  11.791  11.542   4.994  0.3507  0.5145  0.8055
48560SOL    HW163290  11.886  11.541   5.003  0.5692  0.5527 -1.1532
48560SOL    HW263291  11.764  11.451   5.013  1.0750 -0.1266 -1.0280
48561SOL     OW63292  13.669  13.533   1.116  0.1590  0.0419 -0.1082
48561SOL    HW163293  13.708  13.462   1.064  2.1698  1.0089 -0.0156
48561SOL    HW263294  13.716  13.612   1.088 -1.7469  1.3045  0.0870
48562SOL     OW63295   3.080   0.561   6.752  0.2528  0.0318  0.2114
48562SOL    HW163296   3.024   0.638   6.767  1.9345  1.6795 -1.4472
48562SOL    HW263297   3.037   0.515   6.679 -1.0568 -0.9941  1.5602
48563SOL     OW63298   3.246   9.913   2.610 -0.2100 -0.1824  0.1550
48563SOL    HW163299   3.259   9.903   2.516 -0.0208 -0.5254  0.2168
48563SOL    HW263300   3.328   9.883   2.649 -0.2006  0.1811  0.4173
48564SOL     OW63301   9.846   0.098   2.904 -0.2872  0.2996 -0.0036
48564SOL    HW163302   9.774   0.160   2.888  0.7120  2.0169  1.7712
48564SOL    HW263303   9.804   0.022   2.942 -1.3099  0.7618 -0.1712
48565SOL     OW63304  13.049   9.376   2.778  0.1562  0.3292  0.1180
48565SOL    HW163305  12.990   9.327   2.836  1.7580 -0.7593  0.8949
48565SOL    HW263306  13.042   9.467   2.807  0.7681 -0.1680  1.9158
48566SOL     OW63307   5.588   0.172   1.422  0.3633  1.1740  0.1621
48566SOL    HW163308   5.619   0.222   1.498  1.2447  1.0675 -0.1176
48566SOL    HW263309   5.657   0.109   1.404  0.1228  1.1300 -0.6713
48567SOL     OW63310   0.489   5.554   6.906  0.2466 -0.1347 -0.5970
48567SOL    HW163311   0.503   5.461   6.885  0.6449 -0.0537 -0.6923
48567SOL    HW263312   0.575   5.585   6.935 -0.3123 -0.2983  1.4037
48568SOL     OW63313   2.703   0.634   3.792  0.1644 -0.6891  0.3363
48568SOL    HW163314   2.710   0.556   3.847 -1.3458 -1.1558 -0.1041
48568SOL    HW263315   2.784   0.634   3.740  0.3012 -1.7974  0.5308
48569SOL     OW63316   7.012  12.808  10.738  0.4811  0.1098  0.3748
48569SOL    HW163317   6.999  12.739  10.672  1.4635  0.3166 -0.0519
48569SOL    HW263318   6.943  12.872  10.720  0.4573 -0.0606 -0.1605
48570SOL     OW63319  10.025   0.725   8.730  0.4419  0.1125 -0.3331
48570SOL    HW163320  10.103   0.779   8.715 -0.5249  1.2482 -1.4919
48570SOL    HW263321  10.053   0.662   8.796  1.4350  2.4922  1.7259
48571SOL     OW63322   0.861   0.259   0.614 -0.2850  0.1207 -0.0649
48571SOL    HW163323   0.805   0.290   0.685 -0.3085  0.3578 -0.1878
48571SOL    HW263324   0.946   0.301   0.630 -0.1889 -0.1039  0.0239
48572SOL     OW63325  12.214  12.326   2.973  0.0190 -0.5617  1.0659
48572SOL    HW163326  12.221  12.291   3.062  0.4844 -1.6274  0.6365
48572SOL    HW263327  12.196  12.419   2.985  0.0531 -0.6897  2.2713
48573SOL     OW63328  13.890  12.281  13.918  0.6091  0.6873  0.5587
48573SOL    HW163329  13.937  12.337  13.856  0.9073 -0.2683 -0.1010
48573SOL    HW263330  13.805  12.266  13.875  0.3302  1.0439  0.9754
48574SOL     OW63331   8.076   3.266  13.518 -0.3169  0.2475 -0.3590
48574SOL    HW163332   8.024   3.252  13.597 -0.0675 -1.5308 -0.4813
48574SOL    HW263333   8.163   3.291  13.550 -0.5910  0.9383 -0.1222
48575SOL     OW63334   2.375   2.669   1.808  0.1475  0.1210 -0.2006
48575SOL    HW163335   2.333   2.630   1.731  0.1086 -0.6154  0.1829
48575SOL    HW263336   2.307   2.723   1.847  0.1190  0.3758 -0.5960
48576SOL     OW63337   0.976   2.598   0.024  0.6247 -0.3145 -0.1472
48576SOL    HW163338   1.059   2.551   0.035  1.6777  1.5750  0.4366
48576SOL    HW263339   0.989   2.650  -0.055  0.2919  0.5532  0.3601
48577SOL     OW63340   4.527  11.247  11.003  0.4088 -0.2510  0.1393
48577SOL    HW163341   4.545  11.260  11.096  0.0692 -0.3136  0.2151
48577SOL    HW263342   4.466  11.173  11.000 -0.5917  0.5586 -0.0458
48578SOL     OW63343   6.309   7.633   4.794 -0.1934  0.2142 -0.0538
48578SOL    HW163344   6.260   7.621   4.713  0.9516 -0.1370 -0.7289
48578SOL    HW263345   6.337   7.545   4.818 -0.4475  0.3294  0.6803
48579SOL     OW63346   4.472  13.265   0.486  0.1854  0.6998  0.7869
48579SOL    HW163347   4.550  13.315   0.464  1.0126 -0.8116  0.1784
48579SOL    HW263348   4.438  13.308   0.564  2.7391  0.2532  2.2606
48580SOL     OW63349   4.487   2.275   8.184 -0.1783  0.6929 -0.5472
48580SOL    HW163350   4.548   2.322   8.128 -2.0765  0.4333 -3.0006
48580SOL    HW263351   4.453   2.341   8.244  0.7025  1.3406 -0.7507
48581SOL     OW63352   3.785   2.894  11.336 -0.3194 -0.4107 -0.6649
48581SOL    HW163353   3.879   2.911  11.332 -0.3045  0.2973  1.2432
48581SOL    HW263354   3.778   2.808  11.377 -0.4043  1.1462  3.0400
48582SOL     OW63355   2.527   3.503   0.324 -0.3687  0.0700  0.3850
48582SOL    HW163356   2.446   3.489   0.275  1.1201 -0.2151 -2.1639
48582SOL    HW263357   2.575   3.421   0.315 -0.0896 -0.0648  2.5591
48583SOL     OW63358   2.849   3.858   4.954 -0.0442  0.2077  0.0869
48583SOL    HW163359   2.915   3.850   4.885  0.5882  0.8108  0.6064
48583SOL    HW263360   2.769   3.884   4.907 -0.2890 -1.8140 -0.7060
48584SOL     OW63361   0.639  12.721   9.282 -0.9220 -0.0213  0.8304
48584SOL    HW163362   0.718  12.776   9.287 -2.0436  1.5848  1.9247
48584SOL    HW263363   0.650  12.671   9.202  1.9125 -1.0015  1.6970
48585SOL     OW63364   4.572  11.759   6.259 -0.0670 -0.6288 -0.4602
48585SOL    HW163365   4.498  11.743   6.201 -0.5157  0.1341 -0.1201
48585SOL    HW263366   4.598  11.849   6.241  1.1600 -1.0682 -0.9852
48586SOL     OW63367   3.429   3.386  12.813 -0.2971  0.3023  0.8650
48586SOL    HW163368   3.394   3.303  12.780  0.3026 -0.1481  1.3203
48586SOL    HW263369   3.434   3.373  12.908 -1.5130  1.3813  1.1056
48587SOL     OW63370   3.859   6.040   0.504 -0.2666 -0.7331  0.3308
48587SOL    HW163371   3.796   6.110   0.523  2.1095  0.9960  2.5095
48587SOL    HW263372   3.825   5.963   0.550 -1.7022 -0.3724 -0.0966
48588SOL     OW63373   9.863  13.455   1.199  0.0835 -0.3581  0.5083
48588SOL    HW163374   9.912  13.412   1.129 -0.5513 -0.8536  0.3577
48588SOL    HW263375   9.805  13.516   1.153 -0.5710 -0.9198  0.5599
48589SOL     OW63376   6.970   9.819   2.121  0.0257 -0.1010  0.1000
48589SOL    HW163377   7.047   9.787   2.169 -0.0979 -2.6943 -1.2440
48589SOL    HW263378   6.896   9.800   2.180  0.3332  2.4749  1.4305
48590SOL     OW63379   8.503   6.333   3.084  0.3801  0.0334 -0.2924
48590SOL    HW163380   8.407   6.332   3.087  0.3807 -0.8261  1.7584
48590SOL    HW263381   8.527   6.243   3.059  0.5871 -0.4508  1.4405
48591SOL     OW63382   2.326   9.596   2.722 -0.2165  0.4145 -0.0734
48591SOL    HW163383   2.400   9.535   2.731 -2.2882 -3.0652 -3.5703
48591SOL    HW263384   2.356   9.661   2.659  0.3875 -0.0998 -0.3325
48592SOL     OW63385  12.954  13.195   8.244  0.0398  0.3846  0.0912
48592SOL    HW163386  12.963  13.236   8.330 -1.0594 -0.1818  0.4866
48592SOL    HW263387  12.894  13.122   8.257  2.3964 -1.7815 -0.4903
48593SOL     OW63388   8.783   9.055   5.207  0.2074  0.0042  0.0431
48593SOL    HW163389   8.736   9.138   5.198 -1.1271 -0.4808  2.0377
48593SOL    HW263390   8.819   9.057   5.296  0.2378 -1.5022  0.0965
48594SOL     OW63391  10.771  13.803  11.967  0.0252 -0.4887 -0.2476
48594SOL    HW163392  10.683  13.841  11.969  0.1824 -0.1158 -0.3234
48594SOL    HW263393  10.826  13.869  12.010  0.7492  0.5492 -2.5812
48595SOL     OW63394  13.539  11.227   9.037  0.1986  0.3283 -0.1175
48595SOL    HW163395  13.540  11.136   9.068 -2.2451  0.3093  0.1038
48595SOL    HW263396  13.577  11.222   8.949  2.7009 -0.3972  0.9212
48596SOL     OW63397  11.325   5.154   2.568 -0.0980 -0.2991 -0.4140
48596SOL    HW163398  11.412   5.169   2.606  0.2630 -2.1797 -0.3552
48596SOL    HW263399  11.333   5.182   2.477  0.4640 -0.0986 -0.3054
48597SOL     OW63400  13.205  12.257   5.109  0.1086 -0.5550  0.1589
48597SOL    HW163401  13.235  12.232   5.022  2.4557  1.6596  0.2136
48597SOL    HW263402  13.147  12.332   5.093  0.2269 -0.3968  0.4586
48598SOL     OW63403   7.677   3.290  11.283  0.4018 -0.7120 -0.2516
48598SOL    HW163404   7.660   3.384  11.270 -0.3158 -0.8077 -0.0494
48598SOL    HW263405   7.679   3.254  11.194  2.3809 -0.2390 -0.4374
48599SOL     OW63406   8.005  11.658   4.120 -0.1397  0.2319  0.2143
48599SOL    HW163407   7.939  11.618   4.176 -0.7022  0.2638 -0.4124
48599SOL    HW263408   8.028  11.589   4.057 -0.8705  0.7593 -0.6619
48600SOL     OW63409   1.008   8.238   3.110 -0.3879 -0.0009 -0.4529
48600SOL    HW163410   1.092   8.198   3.090  0.1035  1.0329 -0.5127
48600SOL    HW263411   1.007   8.320   3.060 -1.4421 -0.0123 -0.4871
48601SOL     OW63412  11.975   8.231   3.399  0.3731  0.1242 -0.0144
48601SOL    HW163413  11.962   8.326   3.399  0.4506  0.1530  1.6979
48601SOL    HW263414  11.887   8.195   3.389  0.0567  0.3902  1.5539
48602SOL     OW63415   5.113   6.603   5.139 -0.0091 -0.4078 -0.4777
48602SOL    HW163416   5.169   6.538   5.096  0.0308 -0.5767 -0.1721
48602SOL    HW263417   5.143   6.604   5.230 -0.8018 -0.8408 -0.1989
48603SOL     OW63418   9.098   7.881   3.518 -0.0213  0.7040 -0.2097
48603SOL    HW163419   9.128   7.971   3.529 -0.1954  0.7245  0.1003
48603SOL    HW263420   9.093   7.869   3.423  2.2933  0.2708 -0.3297
48604SOL     OW63421   6.142  12.335  13.133  0.1404  0.3106  0.5265
48604SOL    HW163422   6.227  12.336  13.089 -0.2170 -0.0180 -0.1783
48604SOL    HW263423   6.110  12.425  13.125  0.2362  0.3367  0.4318
48605SOL     OW63424   4.485   9.341   6.199 -0.1751 -0.5225 -0.2751
48605SOL    HW163425   4.473   9.347   6.104  1.3953  0.0767 -0.4749
48605SOL    HW263426   4.406   9.297   6.231 -0.7794 -0.6383 -1.8401
48606SOL     OW63427   5.362   2.872   5.344 -0.1607  0.6470  0.0078
48606SOL    HW163428   5.356   2.962   5.313 -0.8349  0.6281  0.0819
48606SOL    HW263429   5.326   2.875   5.432 -0.4554  0.2437 -0.1004
48607SOL     OW63430   7.743   3.815   5.106 -0.0253  0.4880 -0.0437
48607SOL    HW163431   7.781   3.801   5.193 -0.0109 -0.2981 -0.1746
48607SOL    HW263432   7.795   3.761   5.048 -1.0924 -0.2991 -0.2878
48608SOL     OW63433  11.307   3.468   6.357  0.2667  0.5989 -0.5908
48608SOL    HW163434  11.299   3.375   6.338  0.2124  0.5134 -0.1422
48608SOL    HW263435  11.375   3.474   6.424 -0.4178  0.7890  0.1064
48609SOL     OW63436   7.257   0.398   8.840  0.5454  0.2838 -0.1729
48609SOL    HW163437   7.228   0.310   8.815  0.6112 -0.0444  0.8749
48609SOL    HW263438   7.193   0.457   8.800 -1.1090 -0.3876  1.4002
48610SOL     OW63439  12.042  12.266   1.037 -0.1518  0.4882  0.0891
48610SOL    HW163440  12.078  12.179   1.019 -1.0666  0.4095 -1.6015
48610SOL    HW263441  11.958  12.248   1.079 -0.2621  0.5554 -0.1026
48611SOL     OW63442  11.186  12.445   3.674  0.0909 -1.4121 -0.2525
48611SOL    HW163443  11.278  12.463   3.693 -0.3682  0.9060  0.0938
48611SOL    HW263444  11.138  12.488   3.745 -1.3428 -0.6338 -1.6386
48612SOL     OW63445   4.213   9.854  13.065  0.3519 -0.2503 -0.0725
48612SOL    HW163446   4.217   9.827  12.974  1.7288 -2.7253  0.6427
48612SOL    HW263447   4.119   9.864  13.083 -0.0377 -1.4774 -1.2720
48613SOL     OW63448   8.367   9.981   4.245  0.2710 -0.2396 -0.6998
48613SOL    HW163449   8.452   9.948   4.217  0.0794 -0.6929 -0.7628
48613SOL    HW263450   8.376   9.993   4.340  1.1508  1.9873 -1.0088
48614SOL     OW63451   0.073  11.339   2.663  0.6663  0.4880  0.4685
48614SOL    HW163452   0.101  11.291   2.585 -0.3685 -0.9020  0.9078
48614SOL    HW263453   0.137  11.410   2.672  3.6417 -2.0519  1.0122
48615SOL     OW63454  12.039  10.292  10.724 -0.5673  0.2949  0.3013
48615SOL    HW163455  12.095  10.368  10.711  0.1646  0.2768  2.9088
48615SOL    HW263456  12.096  10.217  10.713 -0.3146  0.2509  1.7345
48616SOL     OW63457  12.832  13.390  10.638  0.5131  0.6694 -0.4907
48616SOL    HW163458  12.841  13.300  10.670  0.2349  0.7526 -0.1758
48616SOL    HW263459  12.912  13.434  10.669  0.4859  0.6199 -0.3482
48617SOL     OW63460   5.848   9.080  13.582 -0.2449 -0.4435 -0.3734
48617SOL    HW163461   5.943   9.090  13.579 -0.3674  0.9120 -0.3999
48617SOL    HW263462   5.835   8.989  13.607  1.0636 -0.6023 -0.1591
48618SOL     OW63463   7.411  12.365   9.622  0.2877 -0.5572  0.1910
48618SOL    HW163464   7.322  12.332   9.605  0.3378 -1.0314  0.8251
48618SOL    HW263465   7.469  12.297   9.588  0.3875 -1.4945  2.1505
48619SOL     OW63466   7.717  12.803   4.266 -0.4283 -0.2729  0.1993
48619SOL    HW163467   7.623  12.811   4.250 -0.9032 -3.0975  0.9993
48619SOL    HW263468   7.755  12.779   4.182 -0.1599  2.1101 -0.4200
48620SOL     OW63469   5.594   8.019   1.495 -0.1666 -0.0128 -0.1488
48620SOL    HW163470   5.637   7.934   1.508  0.4531 -0.0626 -2.1706
48620SOL    HW263471   5.667   8.081   1.489 -0.5917  0.5771  0.5338
48621SOL     OW63472   3.186  11.190   3.673 -0.0418 -0.0500  0.2789
48621SOL    HW163473   3.143  11.214   3.755  0.8615  0.3712  0.6472
48621SOL    HW263474   3.237  11.112   3.695 -0.2605 -0.2876 -0.0409
48622SOL     OW63475   0.240  14.072  14.084  0.1124 -0.0339  0.5689
48622SOL    HW163476   0.330  14.055  14.055 -0.4579 -0.8648 -0.7714
48622SOL    HW263477   0.191  13.995  14.056 -1.5142  1.4700 -0.8856
48623SOL     OW63478  11.341   6.536  11.282 -0.7726 -0.1312 -0.3070
48623SOL    HW163479  11.335   6.523  11.377 -0.2394  1.3056 -0.0441
48623SOL    HW263480  11.405   6.470  11.253  0.1350  0.3295  0.5708
48624SOL     OW63481   8.847   6.290   5.620  0.2700 -0.0229  0.0566
48624SOL    HW163482   8.768   6.250   5.657 -0.4826  0.2558 -1.1926
48624SOL    HW263483   8.886   6.336   5.694  0.5127 -1.9987  1.2598
48625SOL     OW63484   1.537   7.944   3.179  0.1267  0.6747  0.4487
48625SOL    HW163485   1.557   7.951   3.086 -0.8065  1.7731  0.3058
48625SOL    HW263486   1.619   7.965   3.223  0.7204 -0.3749 -0.1033
48626SOL     OW63487  10.357   7.338   2.795  0.5208  0.7850 -0.7320
48626SOL    HW163488  10.371   7.279   2.869 -3.3083  0.7412  0.1557
48626SOL    HW263489  10.373   7.425   2.831 -3.2308  0.9628  1.0096
48627SOL     OW63490  13.736  11.236   2.070 -0.3644 -0.2295  0.1117
48627SOL    HW163491  13.790  11.173   2.022  0.1332  0.1334  0.1894
48627SOL    HW263492  13.749  11.319   2.024  0.7733  0.3100  1.3338
48628SOL     OW63493   1.592   3.025   7.735 -0.1468  0.0524  0.0571
48628SOL    HW163494   1.503   3.035   7.702 -0.8948 -1.8213  1.3350
48628SOL    HW263495   1.623   2.943   7.697  0.7979  0.3412  0.1670
48629SOL     OW63496   5.724   8.848   6.413 -0.1056  0.0686 -0.2144
48629SOL    HW163497   5.646   8.831   6.465  0.7185  0.0310  1.0516
48629SOL    HW263498   5.734   8.770   6.359 -0.1165 -0.5753  0.6948
48630SOL     OW63499   3.040  12.413   4.430  0.3823 -0.1073  0.4626
48630SOL    HW163500   3.114  12.472   4.418  0.2327  0.1457  0.7654
48630SOL    HW263501   2.970  12.451   4.377  0.4914 -0.3957  0.1056
48631SOL     OW63502  10.862   3.825   9.131 -0.0235  0.7739  0.2709
48631SOL    HW163503  10.937   3.861   9.083  1.6928 -1.3872  1.1509
48631SOL    HW263504  10.878   3.848   9.222 -0.5891  0.5480  0.4344
48632SOL     OW63505  11.975  10.875  10.124 -0.3200 -0.2047  0.2710
48632SOL    HW163506  11.905  10.829  10.172 -2.4809  0.7429 -1.7825
48632SOL    HW263507  11.964  10.847  10.033 -0.8388  3.1668 -0.8423
48633SOL     OW63508   2.495   6.009   9.577  0.3244  0.7356 -0.3808
48633SOL    HW163509   2.429   6.055   9.628  0.9076  0.8255  0.3041
48633SOL    HW263510   2.447   5.936   9.537 -0.2327  0.9339 -0.0861
48634SOL     OW63511   5.991   2.213   5.324 -0.1681  0.0772 -0.4960
48634SOL    HW163512   5.899   2.192   5.339 -0.0946  1.1595  1.9061
48634SOL    HW263513   6.001   2.210   5.229 -1.7543 -3.7064 -0.7371
48635SOL     OW63514  10.807   4.948   5.784  0.3253 -0.2047 -0.1314
48635SOL    HW163515  10.766   5.034   5.794  1.3246  0.2205  0.5365
48635SOL    HW263516  10.744   4.886   5.820  0.1926  0.4166  0.7211
48636SOL     OW63517   8.780   2.122   0.329 -0.0498  0.0196  0.2141
48636SOL    HW163518   8.691   2.094   0.351  0.1877 -0.3156  0.7804
48636SOL    HW263519   8.797   2.083   0.243 -0.7806  0.8542 -0.3300
48637SOL     OW63520   0.334   8.935   4.875 -0.0288 -0.2775  0.2724
48637SOL    HW163521   0.399   8.935   4.804 -0.7326  0.3195 -0.3855
48637SOL    HW263522   0.250   8.942   4.831 -0.4274  1.4411  1.1885
48638SOL     OW63523   5.352   3.073   4.712  0.2625 -0.3359 -0.0823
48638SOL    HW163524   5.411   3.094   4.784  0.1143  2.2282 -0.6191
48638SOL    HW263525   5.410   3.056   4.638  0.3913  0.5402 -0.1977
48639SOL     OW63526   4.087  13.947  13.427 -0.0578  0.2929  0.2557
48639SOL    HW163527   4.072  13.925  13.519 -1.5837  1.7408  0.4112
48639SOL    HW263528   4.122  13.867  13.388 -0.2542 -0.6290  1.8883
48640SOL     OW63529   5.846   8.172  10.968  0.2822  0.2126 -0.2631
48640SOL    HW163530   5.815   8.179  10.878  1.1951  0.0905 -0.5996
48640SOL    HW263531   5.766   8.163  11.020 -0.3629  1.8237 -0.8931
48641SOL     OW63532   1.065   7.278   5.533 -0.2266 -0.0486  0.5307
48641SOL    HW163533   1.153   7.314   5.541 -0.2331  0.4289 -1.1838
48641SOL    HW263534   1.053   7.265   5.439 -1.9952 -0.0853  0.7323
48642SOL     OW63535  10.151   7.597   0.953 -0.2946  0.4350  0.1259
48642SOL    HW163536  10.172   7.681   0.913  1.2615 -0.5509 -1.3044
48642SOL    HW263537  10.108   7.548   0.883  1.0487 -0.7888  0.1067
48643SOL     OW63538   8.728   1.107  10.428  0.2230  0.1484 -0.1712
48643SOL    HW163539   8.722   1.011  10.426  0.4667  0.0489  2.0667
48643SOL    HW263540   8.721   1.132  10.336  1.5883 -2.1050 -0.9823
48644SOL     OW63541   7.109   6.391   9.058  0.0290 -0.3491  0.6527
48644SOL    HW163542   7.156   6.389   9.141 -0.0516 -0.5819  0.6943
48644SOL    HW263543   7.127   6.478   9.021  0.9392 -0.6421  0.4000
48645SOL     OW63544   8.586   0.667  13.216 -0.2046 -0.1733 -0.1059
48645SOL    HW163545   8.664   0.618  13.190 -1.2609 -1.4292 -1.0319
48645SOL    HW263546   8.568   0.723  13.140 -0.0637  0.3160  0.2169
48646SOL     OW63547   4.421  12.382  13.005 -0.6816  0.2100 -0.1808
48646SOL    HW163548   4.438  12.476  12.994 -1.0485  0.0811 -2.0425
48646SOL    HW263549   4.461  12.361  13.090 -0.8983  2.1088  0.4530
48647SOL     OW63550  10.968  13.702   2.445 -0.0851  0.1250  0.4963
48647SOL    HW163551  10.903  13.756   2.399  0.9755 -0.4920 -1.8982
48647SOL    HW263552  11.051  13.749   2.432  0.3524 -0.4554  1.1645
48648SOL     OW63553  10.506  12.847  11.614 -0.2568  0.5225 -0.1931
48648SOL    HW163554  10.556  12.916  11.657  0.0854 -0.5382  1.2052
48648SOL    HW263555  10.540  12.844  11.525  0.6467  1.2846  0.1114
48649SOL     OW63556   5.172   1.756  12.235 -0.6825  0.2412  0.2322
48649SOL    HW163557   5.077   1.751  12.244 -0.7933  0.5205 -0.6886
48649SOL    HW263558   5.187   1.776  12.142  0.3461 -2.9589 -0.4550
48650SOL     OW63559   2.565   0.224   5.125  0.1804  0.3750 -0.3080
48650SOL    HW163560   2.609   0.212   5.041 -0.1773  0.0694 -0.4543
48650SOL    HW263561   2.524   0.310   5.119  2.4755  1.6131  0.6177
48651SOL     OW63562   5.415  12.580   1.728  0.4635 -0.2574  0.1791
48651SOL    HW163563   5.394  12.520   1.799 -2.4248 -1.2625 -1.3959
48651SOL    HW263564   5.478  12.531   1.674 -0.1420 -0.9763  0.1078
48652SOL     OW63565  11.972  11.953   4.931 -0.6505 -0.2051 -0.0413
48652SOL    HW163566  11.955  12.019   4.998 -1.8674  0.2429 -0.7513
48652SOL    HW263567  12.067  11.952   4.922 -0.5921  1.5318 -0.0563
48653SOL     OW63568   7.052   2.713   0.021  0.7993  0.1873  0.1155
48653SOL    HW163569   7.038   2.803  -0.010  1.1867  0.5167  0.8742
48653SOL    HW263570   6.970   2.690   0.065  0.3262 -0.2058 -0.9263
48654SOL     OW63571   0.912  10.015   7.128 -0.2622 -0.1963 -0.3872
48654SOL    HW163572   1.003  10.037   7.145 -0.3042 -0.0819 -0.3079
48654SOL    HW263573   0.915   9.929   7.087 -0.1459 -0.3683 -0.0241
48655SOL     OW63574   8.953   2.276  10.431  0.3767 -0.2438 -0.0252
48655SOL    HW163575   8.904   2.355  10.410  0.3366  0.2344  1.7141
48655SOL    HW263576   8.905   2.206  10.386  0.9707  0.7705 -2.3803
48656SOL     OW63577  11.361  10.629   6.607 -0.1549 -0.2875  0.0312
48656SOL    HW163578  11.409  10.547   6.601  0.5278  0.1300 -0.3191
48656SOL    HW263579  11.307  10.620   6.685 -1.0880 -1.5839 -0.7189
48657SOL     OW63580   9.813   4.885  11.673 -0.1979 -0.5471 -0.1728
48657SOL    HW163581   9.740   4.895  11.734  0.3526 -0.6298  0.5092
48657SOL    HW263582   9.833   4.791  11.674 -0.4848 -0.6237 -0.8430
48658SOL     OW63583   9.832   3.918   9.894  0.1613 -0.5202 -0.3423
48658SOL    HW163584   9.830   3.889   9.985 -0.3102  0.6444  0.0465
48658SOL    HW263585   9.744   3.902   9.861 -0.1813  0.6458 -0.0431
48659SOL     OW63586   6.159  11.843   3.167  0.2348 -0.1819 -0.0761
48659SOL    HW163587   6.244  11.884   3.182  0.0694  0.4239 -0.7412
48659SOL    HW263588   6.096  11.915   3.177  0.1054  0.4661 -3.9034
48660SOL     OW63589   2.563  12.463  13.558 -0.1246  0.0476 -0.3311
48660SOL    HW163590   2.638  12.509  13.521 -0.6620  0.1086 -1.4153
48660SOL    HW263591   2.497  12.466  13.488 -1.4795  0.8044  0.9083
48661SOL     OW63592   7.032   2.115  13.776 -0.6918  0.0756 -0.3929
48661SOL    HW163593   7.110   2.171  13.772 -0.3663 -0.4336 -2.2153
48661SOL    HW263594   7.005   2.117  13.868  2.7473 -1.5068  0.8032
48662SOL     OW63595   2.411   3.108   8.066  0.4325 -0.0050  0.0745
48662SOL    HW163596   2.435   3.016   8.076  0.7453 -0.0276 -0.7951
48662SOL    HW263597   2.315   3.108   8.073  0.5663  0.1302  3.8410
48663SOL     OW63598  13.409   8.853   2.164 -0.3483  0.2612 -0.3951
48663SOL    HW163599  13.386   8.830   2.254  0.0763  0.9049 -0.1174
48663SOL    HW263600  13.420   8.948   2.165  2.3105  0.0407 -0.4874
48664SOL     OW63601  10.063   2.246   0.701  0.5735 -0.6892  0.0915
48664SOL    HW163602  10.120   2.235   0.777 -0.3874 -2.8139  0.5742
48664SOL    HW263603  10.014   2.326   0.719  1.6712 -0.1512  0.8044
48665SOL     OW63604   2.373  11.455   0.621  0.0957  0.5018  0.8581
48665SOL    HW163605   2.451  11.507   0.603  0.0195  0.9338  1.7253
48665SOL    HW263606   2.379  11.434   0.715  1.0391 -2.5779  0.2262
48666SOL     OW63607   8.579   4.782  11.941 -0.4097  0.1167 -0.3528
48666SOL    HW163608   8.655   4.775  11.998 -0.8891 -1.0713  0.1699
48666SOL    HW263609   8.614   4.769  11.852  0.3439  2.0206 -0.3800
48667SOL     OW63610  12.452   8.851   9.545  0.3769 -0.2420  0.0291
48667SOL    HW163611  12.361   8.820   9.535  0.5740 -0.6244 -0.6562
48667SOL    HW263612  12.495   8.823   9.464  2.1130 -3.5939  1.9201
48668SOL     OW63613   8.443   2.836   4.792 -0.3308  0.4340  0.5523
48668SOL    HW163614   8.432   2.824   4.886  1.2152 -0.7202  0.6270
48668SOL    HW263615   8.516   2.779   4.769 -1.4135 -0.2166 -1.5627
48669SOL     OW63616   5.260  12.516   9.249  0.3078 -0.5510  0.4772
48669SOL    HW163617   5.262  12.524   9.153 -0.4079 -0.1511  0.4868
48669SOL    HW263618   5.231  12.427   9.265 -0.4974 -0.3295  0.3069
48670SOL     OW63619   6.443  14.030   4.895  0.4992 -0.1634  0.7397
48670SOL    HW163620   6.534  14.053   4.913 -0.0083  3.3036 -0.3706
48670SOL    HW263621   6.394  14.066   4.969 -0.1441  0.0591  0.2120
48671SOL     OW63622  10.409   8.902   2.666 -0.6096  0.2325 -0.7752
48671SOL    HW163623  10.380   8.818   2.702 -1.4314 -0.3834 -2.7406
48671SOL    HW263624  10.404   8.963   2.739  0.2012 -1.4423  0.7670
48672SOL     OW63625   2.248   7.866   4.878  0.2399  0.1225  0.6763
48672SOL    HW163626   2.307   7.797   4.848 -0.2862  0.3228 -0.9164
48672SOL    HW263627   2.278   7.944   4.832 -1.4259  0.1615 -0.4199
48673SOL     OW63628  11.177   9.046   6.927  0.1298 -0.6045 -0.2226
48673SOL    HW163629  11.144   8.985   6.861 -1.4817 -1.6541  1.4650
48673SOL    HW263630  11.246   8.997   6.971  0.1117 -0.4959 -0.0749
48674SOL     OW63631   5.224   8.503   1.727 -0.0012  0.2164  0.3381
48674SOL    HW163632   5.196   8.564   1.658 -0.4872  0.7174  0.9649
48674SOL    HW263633   5.260   8.428   1.680 -0.0666  0.6766 -0.4574
48675SOL     OW63634   1.363   0.001  11.738 -0.2426 -0.6072 -0.4393
48675SOL    HW163635   1.357   0.074  11.799 -1.7109 -0.4154 -0.7740
48675SOL    HW263636   1.379   0.042  11.653 -0.8316 -0.6724 -0.5888
48676SOL     OW63637  13.787  10.525   8.357  0.1760  0.1074 -0.1307
48676SOL    HW163638  13.815  10.551   8.445 -0.8053  0.0946  0.1976
48676SOL    HW263639  13.762  10.607   8.314 -0.5791 -0.0184  0.0565
48677SOL     OW63640   9.092   5.920   6.863 -0.2861 -0.0169 -0.2231
48677SOL    HW163641   9.013   5.898   6.814  0.4524 -0.7032 -1.1602
48677SOL    HW263642   9.102   6.014   6.854 -0.8077  0.0198 -0.4058
48678SOL     OW63643  12.036   6.275  12.101 -0.1012  0.4551 -0.2230
48678SOL    HW163644  11.987   6.354  12.124  0.4471  0.8376 -0.3326
48678SOL    HW263645  12.090   6.256  12.178 -0.5157 -0.0436 -0.0497
48679SOL     OW63646   6.365   4.258   1.719  0.1111  0.0608 -0.0701
48679SOL    HW163647   6.289   4.223   1.672  1.2133 -1.3268 -0.8922
48679SOL    HW263648   6.379   4.197   1.791 -0.8589  1.5481  1.4705
48680SOL     OW63649   5.475  10.251  13.742 -0.5978 -0.4551 -0.0818
48680SOL    HW163650   5.474  10.332  13.793  1.1070 -0.5195  0.0898
48680SOL    HW263651   5.492  10.280  13.652  0.5139 -0.6453  0.0584
48681SOL     OW63652   8.719   2.978   3.014  0.0634 -0.3122 -0.5894
48681SOL    HW163653   8.670   3.059   2.999  1.6969  0.7218 -0.5645
48681SOL    HW263654   8.805   2.994   2.975  0.2756 -2.2248 -1.0008
48682SOL     OW63655  11.606   5.374   0.324  0.0100 -0.1987 -0.2835
48682SOL    HW163656  11.650   5.445   0.371  0.1345 -0.6823  0.3409
48682SOL    HW263657  11.678   5.321   0.288 -0.0511 -0.8138  0.4742
48683SOL     OW63658   1.284   8.273   4.100 -0.1174 -0.2774  0.1615
48683SOL    HW163659   1.196   8.252   4.069 -0.6316  0.9397  0.7713
48683SOL    HW263660   1.330   8.189   4.098 -2.1314 -1.5707  2.6340
48684SOL     OW63661   0.011   0.716   2.298 -0.4552  0.3404 -0.1404
48684SOL    HW163662   0.006   0.812   2.292  1.4206  0.3989 -1.2772
48684SOL    HW263663  -0.081   0.688   2.303 -1.0431  2.2791  2.4819
48685SOL     OW63664  11.661   3.454   3.752 -0.8808  0.1184 -0.3436
48685SOL    HW163665  11.712   3.445   3.833 -1.4499 -0.5555 -0.0521
48685SOL    HW263666  11.586   3.507   3.777 -0.5923  0.6744 -0.6502
48686SOL     OW63667   3.466  10.923   1.494  0.1385  0.9664 -0.2346
48686SOL    HW163668   3.469  10.997   1.555  0.4862 -0.0114  0.9890
48686SOL    HW263669   3.516  10.854   1.538 -2.1499 -0.8098 -0.1808
48687SOL     OW63670   7.592   8.795   4.492  0.3765 -0.4460  0.1150
48687SOL    HW163671   7.499   8.779   4.507  0.2687  0.9277  1.0322
48687SOL    HW263672   7.635   8.714   4.520 -0.4301 -0.5465  1.0956
48688SOL     OW63673   2.446   9.913   3.297 -0.0922  0.6728  0.0687
48688SOL    HW163674   2.516   9.882   3.238  0.1529 -0.4845  0.9226
48688SOL    HW263675   2.386   9.839   3.302 -1.8328  1.9105 -1.2384
48689SOL     OW63676  13.538  12.224   7.329 -0.2002  0.4202  0.3291
48689SOL    HW163677  13.615  12.245   7.382  0.1071 -1.0550  0.5143
48689SOL    HW263678  13.473  12.193   7.392  0.2550 -1.5949 -0.1160
48690SOL     OW63679  11.956   2.986   3.021  0.0920 -0.0912 -0.1450
48690SOL    HW163680  11.903   2.923   3.072  0.8626 -0.5749  0.0778
48690SOL    HW263681  11.904   3.002   2.942 -0.0931 -1.0711 -0.2387
48691SOL     OW63682   8.418   2.228   9.984 -0.2423  0.4259 -0.4325
48691SOL    HW163683   8.377   2.167  10.046 -0.7558 -0.0191 -1.1773
48691SOL    HW263684   8.481   2.174   9.936  0.2570  0.8002 -0.2006
48692SOL     OW63685  13.916   9.727  13.689  0.8315 -0.3809  0.1633
48692SOL    HW163686  13.871   9.672  13.625 -0.3962  2.5954 -1.7222
48692SOL    HW263687  13.846   9.766  13.742  1.3148  1.7293 -0.6366
48693SOL     OW63688   5.631  13.531   5.993 -0.4649 -0.0750  0.2216
48693SOL    HW163689   5.566  13.564   5.931 -0.7085 -1.2819 -0.1751
48693SOL    HW263690   5.697  13.601   5.997 -1.1910  0.6575 -0.2495
48694SOL     OW63691  10.691  13.340   6.451 -0.3283  0.3039 -0.2867
48694SOL    HW163692  10.729  13.409   6.397  0.3197 -0.5219 -0.8970
48694SOL    HW263693  10.713  13.259   6.406 -1.4942 -0.2897  0.1676
48695SOL     OW63694   2.083  10.101   8.812 -0.1942 -0.1249 -0.2310
48695SOL    HW163695   2.054  10.048   8.886 -0.4461  0.0226 -0.2202
48695SOL    HW263696   2.176  10.117   8.829 -0.5803  1.1995  0.8792
48696SOL     OW63697   9.730   2.225   2.643  0.3553  0.0116 -0.5416
48696SOL    HW163698   9.744   2.231   2.738  0.0238  0.5864 -0.5199
48696SOL    HW263699   9.639   2.198   2.634  0.4648 -0.3116 -0.6975
48697SOL     OW63700   9.329  11.878  12.341  0.2941 -0.1719  0.0222
48697SOL    HW163701   9.310  11.926  12.261 -1.4986 -1.5541 -0.4264
48697SOL    HW263702   9.282  11.926  12.409 -0.7232 -0.7295 -0.2740
48698SOL     OW63703  13.727   8.400   0.620  0.6489 -0.5227  0.1938
48698SOL    HW163704  13.688   8.326   0.574 -1.4590  1.1279 -0.8676
48698SOL    HW263705  13.690   8.396   0.708 -0.3483 -0.1540 -0.1932
48699SOL     OW63706   0.675   0.850  11.937  0.9036 -0.3765  0.0134
48699SOL    HW163707   0.751   0.870  11.883  1.4614 -0.6815  0.6574
48699SOL    HW263708   0.618   0.926  11.929  0.8015 -0.5671 -1.2771
48700SOL     OW63709  13.722   9.546   3.843 -0.0633  0.1876 -0.2324
48700SOL    HW163710  13.662   9.532   3.917  1.3103 -1.6183  0.6144
48700SOL    HW263711  13.715   9.466   3.791  0.2333  0.7571 -1.1821
48701SOL     OW63712   0.175  13.325   1.258 -0.1627 -0.6119 -0.1054
48701SOL    HW163713   0.179  13.407   1.208  0.0781  0.1040  1.0531
48701SOL    HW263714   0.092  13.286   1.232  1.3021 -1.9097 -3.5139
48702SOL     OW63715   2.782   5.678   7.582  0.3463 -0.3617  0.1515
48702SOL    HW163716   2.846   5.678   7.653  0.1173  0.1195  0.3634
48702SOL    HW263717   2.705   5.636   7.619  0.6677 -1.3304 -0.2353
48703SOL     OW63718   8.467  12.921   7.136 -0.0499 -0.2646 -0.5475
48703SOL    HW163719   8.540  12.868   7.106 -0.1066 -0.8670  0.3615
48703SOL    HW263720   8.435  12.877   7.215  0.1165  1.2800  0.4308
48704SOL     OW63721  10.666  11.784  12.547  0.0752  0.3032  0.4616
48704SOL    HW163722  10.714  11.801  12.466 -1.8541  0.9855 -0.6017
48704SOL    HW263723  10.630  11.869  12.572  0.1973 -0.0092  1.7457
48705SOL     OW63724   2.285   1.093  11.518  0.9352  0.1889 -0.3379
48705SOL    HW163725   2.296   0.998  11.511  4.1890  0.2767  1.5186
48705SOL    HW263726   2.247   1.106  11.605  0.5230  0.6010 -0.5758
48706SOL     OW63727   0.049   3.309   7.989 -0.1722  0.1167  0.5739
48706SOL    HW163728  -0.038   3.289   7.955 -0.3726 -2.2982  2.2706
48706SOL    HW263729   0.032   3.363   8.066 -0.1631 -0.2509  0.8341
48707SOL     OW63730  11.342  10.395   8.263  0.2344  0.0461  0.7098
48707SOL    HW163731  11.274  10.391   8.195  1.5770 -2.1147 -0.6148
48707SOL    HW263732  11.325  10.477   8.309 -2.8214 -0.0526 -0.0148
48708SOL     OW63733   0.115   5.835  13.951 -0.2922 -0.1832  0.1261
48708SOL    HW163734   0.149   5.775  14.018 -1.9275  0.0090  1.1813
48708SOL    HW263735   0.191   5.855  13.896  1.1432 -0.2283  2.0007
48709SOL     OW63736  12.199  13.872  11.675 -0.0989  0.1906  0.0432
48709SOL    HW163737  12.211  13.783  11.710 -0.2406 -0.2367 -0.9465
48709SOL    HW263738  12.149  13.859  11.594  1.0149  1.0306 -0.8081
48710SOL     OW63739   8.546   1.509   7.850 -0.3972  0.1544 -0.0135
48710SOL    HW163740   8.632   1.537   7.817  0.3681 -0.3056  1.4897
48710SOL    HW263741   8.536   1.557   7.932 -0.9920 -0.7568  0.4582
48711SOL     OW63742   3.041   0.877   7.654 -0.0638  0.1482 -0.2185
48711SOL    HW163743   3.040   0.973   7.662  1.6671  0.3317 -1.5094
48711SOL    HW263744   3.081   0.847   7.736  1.4706  0.7246 -0.7143
48712SOL     OW63745   7.090   5.508   1.589  0.4347 -0.2899 -0.3164
48712SOL    HW163746   7.101   5.504   1.684  1.2978  1.8057 -0.2630
48712SOL    HW263747   7.108   5.419   1.558  1.7792 -0.6367  1.3302
48713SOL     OW63748   6.454   4.184   8.822  0.7515 -0.1014 -0.0833
48713SOL    HW163749   6.448   4.242   8.898 -3.9560 -1.1191  0.6134
48713SOL    HW263750   6.494   4.104   8.857  0.0341 -0.0173  0.9946
48714SOL     OW63751   3.512   2.508  12.411  0.1785  0.2694 -0.1671
48714SOL    HW163752   3.459   2.484  12.487  0.4004 -1.0385 -0.4083
48714SOL    HW263753   3.542   2.597  12.431  1.4115 -0.5344  1.9581
48715SOL     OW63754  11.957  12.080   3.281 -0.2336 -0.6053  0.7411
48715SOL    HW163755  11.976  12.036   3.363 -1.0507 -1.2842  0.5798
48715SOL    HW263756  11.888  12.143   3.302  0.6817  0.3767  0.8964
48716SOL     OW63757   1.395   2.673   8.444 -0.0381 -0.1257 -0.0505
48716SOL    HW163758   1.308   2.687   8.407 -0.1815  0.1110  0.3707
48716SOL    HW263759   1.397   2.580   8.466 -0.1597 -0.1456 -0.1222
48717SOL     OW63760   5.488   0.829   9.769 -0.2831 -0.2965 -0.0057
48717SOL    HW163761   5.450   0.868   9.847  0.1311 -0.6283  0.3639
48717SOL    HW263762   5.486   0.899   9.704  1.7387  0.8376  1.0508
48718SOL     OW63763   2.516  13.940   5.282 -0.2005 -0.3566 -0.0131
48718SOL    HW163764   2.588  13.881   5.261  0.2468 -0.1140  0.7780
48718SOL    HW263765   2.495  13.982   5.199  1.3256  0.3884 -0.0692
48719SOL     OW63766   2.868   6.364   3.635 -0.1170 -0.3819 -0.2072
48719SOL    HW163767   2.849   6.425   3.565  0.2643 -0.3112 -0.2526
48719SOL    HW263768   2.921   6.414   3.697  2.0440 -1.2334 -1.2717
48720SOL     OW63769   1.486   9.445   4.048 -0.2106 -0.0736 -0.2349
48720SOL    HW163770   1.393   9.445   4.027 -0.5930  1.9838  1.1142
48720SOL    HW263771   1.530   9.469   3.966 -1.1468  1.7817 -0.2532
48721SOL     OW63772   2.944  11.072   6.908 -0.5264 -0.2840 -0.5741
48721SOL    HW163773   2.964  11.137   6.840 -0.5241 -1.7780 -2.0610
48721SOL    HW263774   2.849  11.080   6.920 -0.6595 -0.5466 -1.3613
48722SOL     OW63775   8.141   9.389  12.177 -0.1183 -0.5326 -0.3567
48722SOL    HW163776   8.165   9.437  12.256 -0.2456 -0.5089 -0.3306
48722SOL    HW263777   8.220   9.342  12.152  0.3770  0.6490 -1.0905
48723SOL     OW63778   2.358   4.395   4.657 -0.1480 -0.0271  0.0831
48723SOL    HW163779   2.307   4.384   4.738  0.8928  1.1352  0.9322
48723SOL    HW263780   2.358   4.489   4.642  2.5069  0.1411  0.6617
48724SOL     OW63781   1.304  11.452  12.156 -0.2995 -0.0345  0.0189
48724SOL    HW163782   1.283  11.542  12.180 -0.3336 -0.2949  0.9790
48724SOL    HW263783   1.277  11.399  12.231  3.5640 -0.4363  1.3605
48725SOL     OW63784   7.104   6.103   2.278  0.3149  0.3250  0.3456
48725SOL    HW163785   7.135   6.143   2.360  2.0578 -3.4880  1.7672
48725SOL    HW263786   7.178   6.108   2.218  0.3836 -0.2841  0.3721
48726SOL     OW63787  10.658  11.289  13.426 -0.0165 -0.2522 -0.3317
48726SOL    HW163788  10.711  11.303  13.504 -0.3148  0.1687 -0.2027
48726SOL    HW263789  10.594  11.222  13.451 -1.0396  0.8958  0.2510
48727SOL     OW63790  10.178   8.219   0.027  0.4922  0.1712 -0.3980
48727SOL    HW163791  10.092   8.256   0.005 -0.5891 -2.5843 -1.2407
48727SOL    HW263792  10.239   8.265  -0.030 -0.6496  1.0777 -0.9340
48728SOL     OW63793   9.510   1.687  12.973 -0.2512 -0.2891  0.2154
48728SOL    HW163794   9.560   1.762  12.942 -1.5279  0.2289 -0.7138
48728SOL    HW263795   9.547   1.667  13.058  1.1226  0.4306 -0.1803
48729SOL     OW63796  10.013   2.909  10.343  0.2817  0.2304  0.0487
48729SOL    HW163797   9.974   2.918  10.256 -0.0679  0.5092  0.2337
48729SOL    HW263798  10.017   2.814  10.357 -3.4651  0.0858  1.3770
48730SOL     OW63799   0.168   4.523   1.559  1.1620 -0.3290 -0.3454
48730SOL    HW163800   0.201   4.471   1.485 -0.2772 -0.7629 -0.7023
48730SOL    HW263801   0.091   4.476   1.589  0.4587  1.0301  0.0354
48731SOL     OW63802   7.233  10.805  11.059 -0.0585  0.1456  0.3856
48731SOL    HW163803   7.247  10.744  10.987 -1.2417  0.9981 -0.6009
48731SOL    HW263804   7.282  10.884  11.034 -1.9223  1.1116 -0.4207
48732SOL     OW63805  12.589   0.187   9.044  0.0790 -0.0675 -0.2578
48732SOL    HW163806  12.679   0.198   9.011  0.3794  0.0970  0.5973
48732SOL    HW263807  12.541   0.150   8.970  1.0881 -1.1225 -0.4065
48733SOL     OW63808   9.083  13.584   7.966 -0.1401 -0.2738  0.4647
48733SOL    HW163809   9.134  13.532   8.028  0.6950  0.7626  0.6781
48733SOL    HW263810   9.091  13.538   7.883 -0.3232 -1.0678  0.8839
48734SOL     OW63811   9.626  13.916   8.018 -0.1651 -0.2186 -0.0410
48734SOL    HW163812   9.596  13.870   8.096 -1.7199 -0.8385 -0.9522
48734SOL    HW263813   9.620  13.851   7.948  1.2876  0.2897 -0.6750
48735SOL     OW63814   7.485  11.312   6.783  0.2595  0.2868 -0.4353
48735SOL    HW163815   7.508  11.270   6.699 -0.7449 -1.6911  0.2107
48735SOL    HW263816   7.559  11.292   6.840  0.5879  0.9566 -0.6207
48736SOL     OW63817   8.140   3.317  13.264  0.2138 -0.5347  0.2054
48736SOL    HW163818   8.083   3.305  13.340 -0.3432 -0.1803 -0.1514
48736SOL    HW263819   8.207   3.379  13.294  0.4767 -1.0238  0.6545
48737SOL     OW63820   7.257   5.584   5.438 -0.0302 -0.2274 -0.2244
48737SOL    HW163821   7.352   5.590   5.449 -0.1542  2.0717  0.1944
48737SOL    HW263822   7.246   5.548   5.350  1.3757  3.2212 -2.0156
48738SOL     OW63823   5.494   6.482   5.515  0.2285 -0.5187 -0.2804
48738SOL    HW163824   5.495   6.479   5.610  1.6180  0.5885 -0.2322
48738SOL    HW263825   5.406   6.510   5.492 -0.4754 -1.8955  0.6079
48739SOL     OW63826   1.184   2.078   4.715  0.3344  0.3775  0.2574
48739SOL    HW163827   1.131   2.152   4.744 -1.5051 -1.3037  1.4617
48739SOL    HW263828   1.120   2.012   4.689  1.8207 -1.6889  1.5321
48740SOL     OW63829   0.502  13.630  11.983  0.2536 -0.2039 -0.2681
48740SOL    HW163830   0.540  13.666  11.903 -0.5588 -0.3037 -0.7160
48740SOL    HW263831   0.407  13.632  11.966  0.1092 -0.7342  0.4754
48741SOL     OW63832   9.821   3.953  10.481 -0.0396  0.0971 -0.3100
48741SOL    HW163833   9.913   3.952  10.456 -0.2171 -0.4424 -0.9908
48741SOL    HW263834   9.774   3.939  10.398 -0.7774  1.4946 -0.1543
48742SOL     OW63835   1.773  10.120   3.855  0.2992  0.2802  0.1584
48742SOL    HW163836   1.867  10.134   3.848  0.5124 -1.2063 -0.4267
48742SOL    HW263837   1.755  10.127   3.949  0.7180  1.9541  0.1475
48743SOL     OW63838   1.752  12.372  13.179 -0.6473 -0.6667  0.1602
48743SOL    HW163839   1.695  12.308  13.137  1.3427 -1.3954 -1.5515
48743SOL    HW263840   1.834  12.367  13.131  0.0055  2.2981  0.7835
48744SOL     OW63841   5.607   8.805   2.015  1.0941 -0.1802 -0.0396
48744SOL    HW163842   5.588   8.711   2.025  0.8707 -0.1234  0.0731
48744SOL    HW263843   5.567   8.846   2.092 -0.0228  0.1746 -0.7885
48745SOL     OW63844  13.388   0.854   5.289  0.2687 -0.2033  0.0418
48745SOL    HW163845  13.444   0.924   5.323  0.1125  0.4990 -1.1120
48745SOL    HW263846  13.400   0.782   5.351 -0.0829  1.0606  1.6200
48746SOL     OW63847   4.822   5.967  13.313 -0.1489 -0.1440 -0.5592
48746SOL    HW163848   4.730   5.969  13.288  0.0214  0.5061 -1.1990
48746SOL    HW263849   4.868   5.941  13.232  0.2853  0.3526 -0.4793
48747SOL     OW63850   7.965  13.554  13.409 -0.5339  0.1923 -0.7126
48747SOL    HW163851   8.040  13.493  13.411 -0.2820  0.5029  1.7415
48747SOL    HW263852   7.888  13.497  13.416 -0.3123  0.0860  1.2219
48748SOL     OW63853   2.658   0.398   5.617 -0.3066  0.1891 -0.1082
48748SOL    HW163854   2.590   0.331   5.621 -0.7916  0.7209  1.6142
48748SOL    HW263855   2.693   0.393   5.528 -0.2620 -2.3719  0.0050
48749SOL     OW63856   1.853   0.877   6.901 -0.0619 -0.2391 -0.4056
48749SOL    HW163857   1.783   0.854   6.963 -0.4930  1.3114 -0.2786
48749SOL    HW263858   1.917   0.806   6.910 -1.7985 -1.9437 -0.8531
48750SOL     OW63859  13.096  11.984   8.528  0.0812  0.4322 -0.0533
48750SOL    HW163860  13.072  12.074   8.510  1.4112  0.7114 -0.5456
48750SOL    HW263861  13.169  11.990   8.590  0.0561 -0.3058  0.0646
48751SOL     OW63862   4.930  13.152   7.346 -0.6915  0.1147 -0.0948
48751SOL    HW163863   4.961  13.236   7.381  1.0197 -0.1820 -0.8290
48751SOL    HW263864   4.981  13.138   7.267 -1.4584 -1.2951 -0.3806
48752SOL     OW63865   7.419   3.415   2.499 -0.0456 -0.3463  0.3147
48752SOL    HW163866   7.376   3.490   2.540  2.3519 -0.2505  2.8800
48752SOL    HW263867   7.452   3.449   2.416 -0.6793  0.8858  0.5436
48753SOL     OW63868  10.967  11.216  11.081 -0.0581 -0.2171  0.1450
48753SOL    HW163869  11.061  11.215  11.059  0.2376  0.3611  1.2988
48753SOL    HW263870  10.957  11.293  11.136 -1.6022  0.8446 -1.5113
48754SOL     OW63871   9.694   6.188  12.493  0.2950 -1.2949 -0.1965
48754SOL    HW163872   9.710   6.125  12.563  1.3613 -0.4181  0.3659
48754SOL    HW263873   9.780   6.220  12.468 -0.0809 -1.3722 -1.7408
48755SOL     OW63874   0.202   0.532   7.978 -0.0172 -0.4870  0.2599
48755SOL    HW163875   0.242   0.455   8.018 -0.3322 -0.9847 -0.3628
48755SOL    HW263876   0.138   0.562   8.042 -0.1050 -0.9217  0.3788
48756SOL     OW63877   4.320  12.850   9.013 -0.2007  0.3814  0.2069
48756SOL    HW163878   4.320  12.863   8.918  0.2087 -0.0533  0.1448
48756SOL    HW263879   4.378  12.775   9.027 -1.9590 -0.9652  0.6183
48757SOL     OW63880   3.554   1.724   7.354  0.7123 -0.1211 -0.0736
48757SOL    HW163881   3.580   1.632   7.347  0.5124 -0.0793 -2.0649
48757SOL    HW263882   3.629   1.768   7.394  1.1946 -1.0041  0.0093
48758SOL     OW63883   6.973   2.551   4.374  0.0535  0.2160  0.5183
48758SOL    HW163884   7.019   2.519   4.452 -0.2325 -0.0429  0.5840
48758SOL    HW263885   7.009   2.500   4.302  2.1347  2.1753  0.0841
48759SOL     OW63886   8.080  13.457  13.141  0.1369  0.0856 -0.2798
48759SOL    HW163887   7.991  13.422  13.130  1.0266 -2.7306  0.6470
48759SOL    HW263888   8.087  13.525  13.074 -2.8836  0.8399 -0.0023
48760SOL     OW63889   7.020   0.429   3.973  0.2118 -0.3615 -0.0296
48760SOL    HW163890   6.953   0.408   3.908 -0.2041  2.6950 -0.7773
48760SOL    HW263891   7.103   0.419   3.926  0.1829 -2.1074  0.2544
48761SOL     OW63892   8.019   7.188  10.041  0.4277 -0.0430 -0.5844
48761SOL    HW163893   8.065   7.273  10.039  0.4134 -0.0417 -1.0121
48761SOL    HW263894   8.090   7.124  10.035  0.3863 -0.0426 -1.1500
48762SOL     OW63895  12.800  13.009   3.084  0.4966 -0.0107  0.1715
48762SOL    HW163896  12.880  13.055   3.057 -0.4440  1.1186 -0.8264
48762SOL    HW263897  12.822  12.970   3.169  2.1112  0.2220 -0.1013
48763SOL     OW63898   1.555   0.661  11.530 -0.1627 -0.2603 -0.2900
48763SOL    HW163899   1.542   0.633  11.440 -0.3136 -0.7674 -0.1146
48763SOL    HW263900   1.516   0.748  11.535  0.7384  0.1956 -0.9659
48764SOL     OW63901  13.717   7.922   2.136 -0.2981  0.6838  0.2474
48764SOL    HW163902  13.633   7.911   2.181  0.1934  0.6855  1.2003
48764SOL    HW263903  13.728   7.842   2.085  0.6508 -0.9122  2.7468
48765SOL     OW63904   0.161   2.508  10.124  0.3235 -0.1330  0.0131
48765SOL    HW163905   0.148   2.597  10.090  2.0408  0.4265  0.7103
48765SOL    HW263906   0.145   2.516  10.218 -1.0334 -0.9309 -0.1271
48766SOL     OW63907   9.063   8.259   9.562 -0.3246  0.1285 -0.2001
48766SOL    HW163908   9.000   8.330   9.569 -1.5397 -0.8963 -0.5065
48766SOL    HW263909   9.053   8.226   9.472  0.0733 -0.5549 -0.0019
48767SOL     OW63910   6.638   2.488  11.387  0.2153  0.3210  0.1386
48767SOL    HW163911   6.672   2.575  11.410 -1.2655  1.0681 -0.3984
48767SOL    HW263912   6.544   2.500  11.380  0.0287 -1.2495 -0.3612
48768SOL     OW63913   3.782   0.432   8.456  0.8529  0.9133  0.3610
48768SOL    HW163914   3.806   0.371   8.526  1.1783 -1.0738 -1.3821
48768SOL    HW263915   3.700   0.397   8.421  0.9877  1.5407 -0.6008
48769SOL     OW63916   4.903   0.752  13.445  0.2949 -0.1779 -0.2607
48769SOL    HW163917   4.858   0.718  13.522 -0.7684  3.4908  0.9457
48769SOL    HW263918   4.969   0.686  13.424 -0.0354 -1.7834  3.1509
48770SOL     OW63919  10.181  10.915   2.741  0.2154  0.2263 -0.0421
48770SOL    HW163920  10.208  11.000   2.776 -0.3554  1.2792 -1.9981
48770SOL    HW263921  10.256  10.886   2.689 -0.9322  1.5693 -2.7178
48771SOL     OW63922   2.827  12.968   7.686 -0.2418 -0.1289  0.0433
48771SOL    HW163923   2.772  12.891   7.675 -0.9199  0.7240 -3.5576
48771SOL    HW263924   2.890  12.963   7.614 -1.4558  3.5347 -1.4585
48772SOL     OW63925  12.586  12.952   6.623  0.4905 -0.4817  0.1495
48772SOL    HW163926  12.549  12.888   6.562 -0.2469 -0.2035  0.2892
48772SOL    HW263927  12.609  12.901   6.701 -0.1164 -0.5808  0.2693
48773SOL     OW63928   5.277  10.733   6.538  0.2039  0.2835 -0.3880
48773SOL    HW163929   5.336  10.808   6.534  1.2717 -0.4510  0.8158
48773SOL    HW263930   5.321  10.665   6.487 -0.4166  0.2583 -0.8906
48774SOL     OW63931   6.120  11.369   9.714 -0.4382 -0.4323  0.1092
48774SOL    HW163932   6.068  11.289   9.706 -1.9570  0.3750  1.4124
48774SOL    HW263933   6.169  11.359   9.796 -1.0652  0.1799  0.5741
48775SOL     OW63934  12.202   5.917   8.400 -0.3061 -0.2183  0.2664
48775SOL    HW163935  12.231   5.961   8.480 -1.9513 -0.4124  1.0121
48775SOL    HW263936  12.160   5.986   8.348 -0.6095 -0.4003  0.2696
48776SOL     OW63937   4.943  12.152   6.830 -0.3485  0.0041  0.8233
48776SOL    HW163938   5.022  12.100   6.813 -0.0464  0.6607  0.1751
48776SOL    HW263939   4.966  12.205   6.907  1.2850  2.9423 -1.4779
48777SOL     OW63940   1.204  12.236   7.644 -0.4641  0.2894  0.1247
48777SOL    HW163941   1.249  12.319   7.628  0.2973 -0.2662 -0.7316
48777SOL    HW263942   1.111  12.260   7.647 -0.2484  1.1963  0.0529
48778SOL     OW63943   0.275  13.216  11.154 -0.5920 -0.3272  0.3855
48778SOL    HW163944   0.210  13.284  11.173 -0.6136 -0.2113 -0.1126
48778SOL    HW263945   0.253  13.185  11.067  1.4936  1.4210 -0.8561
48779SOL     OW63946  13.280   0.106   6.447 -0.2069 -0.1475 -0.1129
48779SOL    HW163947  13.203   0.145   6.490  0.4857 -1.4576  2.4583
48779SOL    HW263948  13.243   0.038   6.390 -1.0819  1.0482 -1.0477
48780SOL     OW63949   4.304   3.118   7.501 -0.1107  0.5344  0.3050
48780SOL    HW163950   4.389   3.134   7.460  0.0025  0.0936  0.3682
48780SOL    HW263951   4.323   3.114   7.594 -0.0492 -0.5047  0.2586
48781SOL     OW63952  13.262   4.133   4.328 -0.0273  0.4433  0.3066
48781SOL    HW163953  13.202   4.204   4.306  0.8036  1.3128  0.7949
48781SOL    HW263954  13.221   4.055   4.290 -0.7495  1.2345 -0.5949
48782SOL     OW63955   5.557   0.072  10.520 -0.3717 -0.1012 -0.2266
48782SOL    HW163956   5.531   0.058  10.429  1.4449 -1.6322 -0.5734
48782SOL    HW263957   5.516   0.001  10.569  0.7313 -0.8189 -0.3077
48783SOL     OW63958   2.775   1.056   8.762  0.0465  0.7841  0.8375
48783SOL    HW163959   2.847   1.110   8.795 -0.8572  1.2524  2.1242
48783SOL    HW263960   2.818   0.986   8.713  1.2805  2.1075 -0.0445
48784SOL     OW63961   4.796   3.958  13.065  0.2016  0.1217 -0.1541
48784SOL    HW163962   4.842   4.035  13.031  0.5234 -0.7966 -1.9281
48784SOL    HW263963   4.706   3.968  13.034  0.5306 -0.7915 -1.5432
48785SOL     OW63964  13.853   5.226   9.442  0.1161 -0.0919 -0.2687
48785SOL    HW163965  13.880   5.144   9.400 -1.6609 -0.4109 -0.8712
48785SOL    HW263966  13.843   5.204   9.535  1.9388  0.0665 -0.0085
48786SOL     OW63967  12.895   5.082   4.894  0.3701  0.0163 -0.3777
48786SOL    HW163968  12.946   5.143   4.842  0.6374  0.3294  0.2379
48786SOL    HW263969  12.950   5.004   4.900  0.6165  0.2106 -0.0447
48787SOL     OW63970   2.106   4.584   7.533 -0.4054 -0.5633 -0.4334
48787SOL    HW163971   2.043   4.655   7.521 -2.2844 -2.2823 -1.4501
48787SOL    HW263972   2.079   4.517   7.470  1.4437 -2.0818  0.2814
48788SOL     OW63973  13.138   2.659   8.828  0.4834  0.1141  0.0530
48788SOL    HW163974  13.113   2.581   8.877 -0.0188  1.0486  1.3434
48788SOL    HW263975  13.168   2.626   8.744  1.9089 -1.6126  1.1706
48789SOL     OW63976   5.195  10.961  11.830  0.3123  0.6243  0.4770
48789SOL    HW163977   5.145  11.040  11.811  0.6197  0.6293 -0.3655
48789SOL    HW263978   5.140  10.890  11.798  0.0506  0.4874  1.2028
48790SOL     OW63979   6.998  11.321   8.715  0.2954 -0.4687  0.3178
48790SOL    HW163980   7.001  11.306   8.810  3.7203  0.8242  0.5746
48790SOL    HW263981   7.035  11.241   8.677  0.7031 -0.2406  0.2300
48791SOL     OW63982   6.358   3.424   3.808 -0.4832 -0.1576 -0.1250
48791SOL    HW163983   6.315   3.341   3.794  1.4724 -0.9409 -2.0547
48791SOL    HW263984   6.428   3.404   3.871 -0.3162  0.1530 -0.2093
48792SOL     OW63985   2.296  11.048   2.334 -0.2506  0.5487  0.7325
48792SOL    HW163986   2.229  11.116   2.322  0.1997  0.8926  0.0288
48792SOL    HW263987   2.363  11.071   2.269  0.1021 -0.3330  0.7825
48793SOL     OW63988   4.246   3.392   3.863  0.2208  0.0003  0.1608
48793SOL    HW163989   4.168   3.439   3.894  0.6383  0.9577 -0.1958
48793SOL    HW263990   4.319   3.450   3.885  0.5679  0.5735 -2.2654
48794SOL     OW63991   0.565   1.240   3.339  0.5053  0.3066  0.6558
48794SOL    HW163992   0.642   1.185   3.327 -0.1572 -0.2271 -1.6732
48794SOL    HW263993   0.496   1.180   3.367 -0.0498  0.0118 -1.2371
48795SOL     OW63994   9.433  14.050   7.444  0.0568 -0.3954 -0.8740
48795SOL    HW163995   9.353  14.079   7.401  0.9279 -0.4265 -2.6344
48795SOL    HW263996   9.475  14.131   7.473 -0.4173 -0.3503 -0.3198
48796SOL     OW63997  12.627   8.302   1.548 -0.4534  0.3184  0.1139
48796SOL    HW163998  12.604   8.321   1.456  0.4944  0.2798 -0.1464
48796SOL    HW263999  12.721   8.321   1.553 -0.1710 -1.1085  0.7026
48797SOL     OW64000  14.030   4.335   7.629 -0.6605 -0.2270  0.3513
48797SOL    HW164001  14.041   4.271   7.559 -1.0974 -0.9538  0.9370
48797SOL    HW264002  14.116   4.377   7.637 -0.7482  0.2444 -0.9646
48798SOL     OW64003   0.554   4.166  13.718 -0.1127 -0.8103 -0.4758
48798SOL    HW164004   0.638   4.201  13.749  1.0245 -1.3039 -2.7746
48798SOL    HW264005   0.493   4.238  13.730  1.1197  0.3194 -0.6715
48799SOL     OW64006   5.166   3.519  10.885 -0.0524 -0.0975  0.1001
48799SOL    HW164007   5.237   3.542  10.826  0.7383  0.6557  1.2937
48799SOL    HW264008   5.089   3.563  10.850  0.3017 -0.0183 -0.5919
48800SOL     OW64009  12.293   7.098  13.363 -0.3189  0.2316 -0.6940
48800SOL    HW164010  12.342   7.068  13.286  1.1334  1.4176 -0.2765
48800SOL    HW264011  12.202   7.070  13.346  0.2886 -1.0891 -1.9830
48801SOL     OW64012   2.466  12.758  11.089  0.4097 -0.6391  0.9613
48801SOL    HW164013   2.383  12.795  11.059  1.5276  1.0733 -0.1487
48801SOL    HW264014   2.459  12.759  11.185 -1.3411 -1.7904  0.8977
48802SOL     OW64015  12.391  10.833   0.584  0.0728 -0.3081 -0.1832
48802SOL    HW164016  12.380  10.742   0.612 -0.9192 -0.3243 -0.5849
48802SOL    HW264017  12.482  10.854   0.606 -0.1611 -0.8526  1.4824
48803SOL     OW64018   4.772   8.005  13.196  0.1221  0.2890  0.0171
48803SOL    HW164019   4.829   8.082  13.204 -0.3287  0.6163  0.1066
48803SOL    HW264020   4.712   8.027  13.125  0.2510 -0.1443 -0.2237
48804SOL     OW64021   8.840  13.317   7.407 -0.1257 -0.0112  0.7117
48804SOL    HW164022   8.919  13.364   7.434 -0.1470 -0.2117  1.1452
48804SOL    HW264023   8.807  13.365   7.331  1.2507 -0.7872 -0.4219
48805SOL     OW64024   1.994  13.807   9.474 -0.2699 -0.3647  0.4065
48805SOL    HW164025   1.929  13.786   9.541 -0.4693  1.3493  0.7843
48805SOL    HW264026   1.957  13.771   9.393 -1.5398  0.3060  0.6706
48806SOL     OW64027  10.000   8.188  12.374 -0.1103  0.2792 -0.3199
48806SOL    HW164028   9.930   8.252  12.372 -1.2860 -0.9532 -2.0696
48806SOL    HW264029   9.962   8.112  12.419  0.6836  0.1971  0.2334
48807SOL     OW64030  12.720   2.078   6.383  0.4331 -0.2393  0.3777
48807SOL    HW164031  12.721   2.151   6.321 -0.0179  0.2894  0.9958
48807SOL    HW264032  12.812   2.049   6.386  0.8394  1.0662  1.0374
48808SOL     OW64033  11.057   3.268  13.100 -0.0450  0.4083 -0.2305
48808SOL    HW164034  11.040   3.237  13.189 -1.3929  0.6040 -0.4016
48808SOL    HW264035  11.012   3.205  13.044 -0.8072  1.3176 -0.6808
48809SOL     OW64036  13.049   5.021   6.000 -0.7260  0.1215 -0.8291
48809SOL    HW164037  13.122   4.994   6.056  0.1215 -0.4130 -2.1481
48809SOL    HW264038  13.061   5.116   5.989 -0.6261  0.1480 -0.4993
48810SOL     OW64039   2.638   1.320   3.048  0.6421  0.3007  0.0759
48810SOL    HW164040   2.703   1.358   3.108  2.4634  0.7338 -2.0514
48810SOL    HW264041   2.673   1.233   3.026 -0.6268 -0.3526  0.5415
48811SOL     OW64042  11.184   0.923   5.851 -0.4023  0.1515 -0.2055
48811SOL    HW164043  11.113   0.887   5.799 -0.7535  1.4453 -0.6634
48811SOL    HW264044  11.195   1.012   5.818 -0.9719  1.2069  2.2423
48812SOL     OW64045   4.800   4.594  13.489 -0.5072 -0.0174  0.0496
48812SOL    HW164046   4.763   4.548  13.414 -0.8253 -0.0160  0.2016
48812SOL    HW264047   4.894   4.576  13.485 -0.6771 -1.0190  0.3342
48813SOL     OW64048  13.189   4.253   3.389 -0.0922 -0.4446  0.2762
48813SOL    HW164049  13.258   4.192   3.414  0.1906 -0.2381  0.0115
48813SOL    HW264050  13.171   4.302   3.470  0.2024 -0.3763  0.3030
48814SOL     OW64051   7.350   6.497   2.687 -0.0282  0.7692  0.4240
48814SOL    HW164052   7.319   6.549   2.613  1.4443 -0.1802 -0.9235
48814SOL    HW264053   7.445   6.497   2.677  0.0631 -1.2756  1.0056
48815SOL     OW64054   3.993  11.930  10.753  0.3900  0.3683 -0.5489
48815SOL    HW164055   4.048  11.856  10.779  1.2896  1.2933  0.2964
48815SOL    HW264056   3.904  11.901  10.770  0.7451 -0.4563 -0.0381
48816SOL     OW64057   1.801   7.735  10.722  0.6130 -0.5373  0.3069
48816SOL    HW164058   1.816   7.775  10.807  0.9779 -0.1039  0.0435
48816SOL    HW264059   1.881   7.754  10.672  0.5449 -1.0775 -0.0190
48817SOL     OW64060   7.319  10.175   2.779 -0.6281 -0.4057  0.6259
48817SOL    HW164061   7.241  10.201   2.730 -0.3293 -1.2481 -0.3278
48817SOL    HW264062   7.320  10.234   2.855 -2.3163 -0.5518  0.7986
48818SOL     OW64063   3.175   7.597   5.531 -0.2559  0.0325  0.1714
48818SOL    HW164064   3.182   7.546   5.611 -2.6802 -0.3269  0.2064
48818SOL    HW264065   3.151   7.685   5.560  1.8086  0.7164 -0.0269
48819SOL     OW64066   4.158   1.096   5.283 -0.2315  0.7241  0.4615
48819SOL    HW164067   4.111   1.024   5.241 -2.2978  0.8654  2.3200
48819SOL    HW264068   4.250   1.078   5.265 -0.7744 -1.4820 -0.5074
48820SOL     OW64069   6.305   6.827  13.504  0.0975 -0.4699 -0.2721
48820SOL    HW164070   6.237   6.815  13.438  1.7197 -0.6275 -2.0003
48820SOL    HW264071   6.290   6.915  13.538 -1.3179 -0.7324 -0.1837
48821SOL     OW64072   7.584   1.149  12.673 -0.1191  0.8164  0.1050
48821SOL    HW164073   7.516   1.130  12.609  0.9277 -3.0944 -0.1184
48821SOL    HW264074   7.658   1.181  12.621 -0.2302  0.4487 -0.2828
48822SOL     OW64075   0.552  11.604   1.599 -0.5830 -0.4514  0.5448
48822SOL    HW164076   0.504  11.623   1.519  0.0514  0.3585  0.3439
48822SOL    HW264077   0.576  11.690   1.633 -0.7224 -0.7912  1.5302
48823SOL     OW64078   3.444   6.701   0.696  0.4359 -0.1364  0.3982
48823SOL    HW164079   3.441   6.719   0.790 -0.6478 -0.1237  0.3699
48823SOL    HW264080   3.409   6.612   0.688 -0.2694  0.1800 -0.0684
48824SOL     OW64081  10.255   8.842   5.046  0.2152  0.0192 -0.0126
48824SOL    HW164082  10.310   8.908   5.086 -0.6801 -0.9403  3.0229
48824SOL    HW264083  10.316   8.772   5.020  0.7040  0.1573  0.7587
48825SOL     OW64084  13.494   3.292   0.463  0.0267 -0.3313  0.1503
48825SOL    HW164085  13.468   3.241   0.387 -1.8511 -0.4977  0.8403
48825SOL    HW264086  13.571   3.247   0.498  2.5207  1.1208 -2.9363
48826SOL     OW64087  10.910   2.447  12.889 -0.5111  0.3940  0.4447
48826SOL    HW164088  10.870   2.376  12.839 -0.5980 -1.0891  2.5281
48826SOL    HW264089  11.000   2.419  12.903 -0.8021  0.2179  2.0935
48827SOL     OW64090   3.177   2.659   0.283  0.1186 -0.6128  0.3849
48827SOL    HW164091   3.132   2.578   0.305 -2.7667  1.0045  0.8270
48827SOL    HW264092   3.225   2.638   0.203 -2.2863 -2.2232 -0.7536
48828SOL     OW64093   1.607  12.232   4.848 -0.5225  0.4703  0.0787
48828SOL    HW164094   1.675  12.286   4.808  1.4736 -1.8900  0.0313
48828SOL    HW264095   1.573  12.286   4.919  1.6906  1.6297  0.3514
48829SOL     OW64096   5.038   3.378   1.330  0.7574  0.2173 -0.3059
48829SOL    HW164097   5.009   3.346   1.415  0.2647  0.9629 -0.1817
48829SOL    HW264098   4.957   3.402   1.285  1.0405  0.2109 -0.8267
48830SOL     OW64099   4.665   3.493   9.434 -0.4070  0.4820 -0.4334
48830SOL    HW164100   4.610   3.531   9.502 -2.3924 -1.2474 -0.9801
48830SOL    HW264101   4.605   3.477   9.361  0.9018 -1.0953 -1.2247
48831SOL     OW64102   0.086   8.652   5.405 -0.7201  0.1524 -0.3840
48831SOL    HW164103   0.119   8.716   5.343 -3.0959  0.9603 -0.9331
48831SOL    HW264104   0.095   8.567   5.361  1.0693  0.2446 -0.2532
48832SOL     OW64105   9.102   3.006   2.053  0.4202 -0.1952  1.2066
48832SOL    HW164106   9.066   3.090   2.026  1.4080 -0.6187 -1.8578
48832SOL    HW264107   9.026   2.952   2.074 -0.5459  0.2829 -0.7929
48833SOL     OW64108   0.456   9.501   1.572 -0.0787  0.0945 -0.1225
48833SOL    HW164109   0.527   9.552   1.532  0.3287 -1.5633 -1.6646
48833SOL    HW264110   0.488   9.479   1.659  1.2301 -0.4098 -0.7014
48834SOL     OW64111  13.747  11.779   7.548  0.5685 -0.0058 -0.3151
48834SOL    HW164112  13.810  11.712   7.574  1.6359  1.3479  0.7772
48834SOL    HW264113  13.801  11.850   7.514 -0.5406  0.2759 -1.5333
48835SOL     OW64114  11.112  13.277   2.303  0.7692  0.5070 -0.4459
48835SOL    HW164115  11.035  13.327   2.275  1.6470  2.8182  1.0202
48835SOL    HW264116  11.174  13.288   2.231 -0.2344 -1.5438 -1.7345
48836SOL     OW64117  12.340  12.494  11.689 -0.0791 -0.4295  0.0382
48836SOL    HW164118  12.378  12.494  11.601  0.4606  1.4786  0.2099
48836SOL    HW264119  12.283  12.571  11.690  0.8689  0.3067  1.7077
48837SOL     OW64120   3.773   0.242   7.193 -0.1761  0.1020  0.0360
48837SOL    HW164121   3.860   0.221   7.226 -0.9491  0.8344  2.8328
48837SOL    HW264122   3.717   0.171   7.225 -0.7374 -0.0307 -1.1887
48838SOL     OW64123   7.186   3.785  11.303  0.1624 -0.2150 -0.0887
48838SOL    HW164124   7.179   3.818  11.213  2.2973  3.7131  0.9457
48838SOL    HW264125   7.122   3.837  11.353  0.6818 -0.6231  1.0282
48839SOL     OW64126  13.922   8.263  10.567  0.2694 -0.7229  0.4369
48839SOL    HW164127  13.980   8.299  10.634 -0.1046  0.7489  0.0064
48839SOL    HW264128  13.874   8.193  10.612  0.6373 -0.3436  1.4593
48840SOL     OW64129  12.733   1.534  12.579  0.5263  1.0163  0.1695
48840SOL    HW164130  12.746   1.620  12.619  2.1036  1.4469 -1.1430
48840SOL    HW264131  12.777   1.540  12.494  2.2182 -1.6130  0.7235
48841SOL     OW64132   4.657  11.431   6.637 -0.2829  0.1192  0.1905
48841SOL    HW164133   4.706  11.433   6.719 -0.9684  1.0314  0.5935
48841SOL    HW264134   4.691  11.505   6.587 -1.5353  1.0351  0.6591
48842SOL     OW64135   8.184   9.775  13.199  0.0896  0.5382  0.2372
48842SOL    HW164136   8.208   9.764  13.291  2.0400 -0.6002 -0.3258
48842SOL    HW264137   8.238   9.849  13.169 -0.3262  0.7279 -0.0486
48843SOL     OW64138   3.908   9.102   9.832 -0.4389 -0.9363  0.7507
48843SOL    HW164139   3.928   9.179   9.885  0.0424 -1.0728  0.7689
48843SOL    HW264140   3.837   9.059   9.879 -0.8270 -0.4234  0.6568
48844SOL     OW64141   7.215   5.834   1.104  0.3278  0.0299 -0.0320
48844SOL    HW164142   7.163   5.899   1.152  1.0140  0.9948 -0.5554
48844SOL    HW264143   7.153   5.797   1.041 -0.0321  0.3059  0.1484
48845SOL     OW64144   5.815   8.301   7.761 -0.1018 -0.4388  0.2793
48845SOL    HW164145   5.810   8.214   7.721 -0.3938 -0.6958  0.8689
48845SOL    HW264146   5.832   8.284   7.854 -2.6677  0.0266  0.9141
48846SOL     OW64147   9.824   2.167  10.739  0.3820 -0.6791 -0.1313
48846SOL    HW164148   9.900   2.134  10.691  1.5342  0.0409  1.1271
48846SOL    HW264149   9.806   2.252  10.700 -0.8378 -1.5128 -1.5040
48847SOL     OW64150   1.922   0.857  12.483 -0.4130 -0.3155  0.2274
48847SOL    HW164151   1.970   0.776  12.503  0.9523  0.0371 -1.4246
48847SOL    HW264152   1.842   0.827  12.441  0.0936 -0.8350 -0.3990
48848SOL     OW64153   3.427   8.648   3.443  0.0646 -0.9397  0.4312
48848SOL    HW164154   3.362   8.619   3.379  0.4141 -0.7463 -0.0138
48848SOL    HW264155   3.470   8.723   3.402 -0.3424 -0.2170  1.2741
48849SOL     OW64156   6.116   5.532   0.268 -0.2875 -0.4992  0.1078
48849SOL    HW164157   6.192   5.500   0.316  0.7084  1.7929  0.1703
48849SOL    HW264158   6.052   5.554   0.335 -0.0054 -0.0213  0.2246
48850SOL     OW64159  14.025   6.866   0.607 -0.6283 -0.1219  0.0597
48850SOL    HW164160  14.063   6.891   0.691  0.3114  0.5366 -0.5515
48850SOL    HW264161  14.089   6.893   0.542 -0.3453 -2.5065 -0.7757
48851SOL     OW64162   9.697  11.440   8.605 -0.2042 -0.1115  0.0725
48851SOL    HW164163   9.603  11.456   8.618 -0.2689 -0.2706 -0.2063
48851SOL    HW264164   9.717  11.367   8.663  0.0581  0.8485  1.2384
48852SOL     OW64165  10.499   0.224   3.195  0.1101  0.0860 -0.3059
48852SOL    HW164166  10.445   0.181   3.262 -2.1573  0.5114 -1.7473
48852SOL    HW264167  10.518   0.310   3.232 -1.7225  0.5878 -0.4519
48853SOL     OW64168  11.969  13.816   9.369  0.4060 -0.3058 -0.5314
48853SOL    HW164169  11.915  13.809   9.447 -1.4949  3.5399 -1.2957
48853SOL    HW264170  12.047  13.864   9.398  0.8070 -0.8894 -0.6057
48854SOL     OW64171   6.192   3.902   1.193 -0.1019 -0.0384 -0.4021
48854SOL    HW164172   6.272   3.868   1.233 -0.4913 -1.1053 -0.4743
48854SOL    HW264173   6.182   3.850   1.113 -0.2485  0.8869 -0.9930
48855SOL     OW64174  13.531  14.075   9.586 -0.3657  0.3116 -0.2649
48855SOL    HW164175  13.435  14.072   9.591 -0.5060  1.0400 -1.8365
48855SOL    HW264176  13.552  14.166   9.603  0.0237  0.2078 -0.1993
48856SOL     OW64177   3.573   8.965   9.106  0.5773  0.0933 -0.2611
48856SOL    HW164178   3.521   9.020   9.165  0.0889 -1.7922  1.1614
48856SOL    HW264179   3.644   8.931   9.161  0.7027 -0.9209 -1.0254
48857SOL     OW64180   6.937   2.136   0.852 -0.4424  0.5335 -0.5951
48857SOL    HW164181   6.916   2.072   0.919  0.1040 -0.1107 -1.0275
48857SOL    HW264182   6.863   2.133   0.792 -1.0060  1.2228  0.0393
48858SOL     OW64183  10.041   4.141  11.577 -0.3438  0.3901 -0.0711
48858SOL    HW164184  10.018   4.204  11.509 -2.2091  0.4841  0.5842
48858SOL    HW264185  10.098   4.189  11.637 -0.7139  1.0847 -0.2630
48859SOL     OW64186   1.719   1.495   1.286 -0.0122  0.0849  0.0842
48859SOL    HW164187   1.715   1.406   1.251 -1.5950 -0.3696  1.3207
48859SOL    HW264188   1.800   1.532   1.249  0.9996 -2.0517  0.0361
48860SOL     OW64189   0.786  10.107   0.060 -0.1472  0.3736 -0.5213
48860SOL    HW164190   0.790  10.107   0.156 -0.7515  0.9089 -0.4853
48860SOL    HW264191   0.862  10.157   0.032 -0.5087  1.0683 -0.2816
48861SOL     OW64192   2.496   4.376  10.327  0.0647 -0.2222 -0.2204
48861SOL    HW164193   2.422   4.374  10.387 -0.6911 -1.1975 -1.1454
48861SOL    HW264194   2.523   4.468  10.326 -0.3478 -0.0646  1.0463
48862SOL     OW64195   8.879   0.046   1.197 -0.3754 -0.5584 -0.3358
48862SOL    HW164196   8.806   0.078   1.143 -0.5942  0.3049  0.4467
48862SOL    HW264197   8.857   0.074   1.285  0.6111 -0.8390  0.0102
48863SOL     OW64198   1.172   8.515   2.553  0.5180 -0.2803  0.3766
48863SOL    HW164199   1.188   8.536   2.646 -2.4440 -1.6195  1.3229
48863SOL    HW264200   1.232   8.443   2.534 -0.4882 -1.6690  2.0850
48864SOL     OW64201   4.663  12.886   3.585  0.5947 -0.7126 -0.1523
48864SOL    HW164202   4.729  12.825   3.554  1.5404  0.3030 -0.1854
48864SOL    HW264203   4.602  12.895   3.512  0.0431 -2.1120  0.0888
48865SOL     OW64204   7.045  10.757  13.226 -0.1809 -0.3026 -0.3090
48865SOL    HW164205   7.024  10.822  13.292 -0.9409  0.0235 -0.8564
48865SOL    HW264206   7.023  10.798  13.143 -3.6928 -2.2583 -0.5464
48866SOL     OW64207  12.314   4.764  12.950 -0.2229 -0.4128  0.1221
48866SOL    HW164208  12.316   4.859  12.955 -0.3005 -0.4051  0.0114
48866SOL    HW264209  12.289   4.736  13.038 -1.7322 -0.2710 -0.2318
48867SOL     OW64210   9.243   8.118  13.350  0.1202  0.4300  0.2057
48867SOL    HW164211   9.299   8.060  13.402 -0.1533 -1.4783 -1.4983
48867SOL    HW264212   9.303   8.159  13.288  0.3272  2.1619  1.4586
48868SOL     OW64213   4.967   8.602   4.624  0.3470 -0.2877 -0.0169
48868SOL    HW164214   4.944   8.659   4.698  0.9992 -0.6239  0.4623
48868SOL    HW264215   5.031   8.652   4.574 -1.2973  0.6078 -1.2924
48869SOL     OW64216   0.202   5.238  11.799  0.0308  0.0620  0.0373
48869SOL    HW164217   0.122   5.193  11.827 -0.3840 -0.4096 -1.7760
48869SOL    HW264218   0.257   5.242  11.878 -1.5442 -0.0795  1.1940
48870SOL     OW64219   0.711   3.974  12.409 -0.2804 -0.2930  0.1344
48870SOL    HW164220   0.665   3.909  12.356 -0.9966  0.4242 -0.1455
48870SOL    HW264221   0.711   4.053  12.355 -1.3710  0.5791  1.3515
48871SOL     OW64222   0.696  13.659   2.151  0.1999  0.3557 -0.3277
48871SOL    HW164223   0.749  13.734   2.123  0.5065  0.8295  1.4014
48871SOL    HW264224   0.608  13.678   2.119  0.5631  0.7851 -1.0864
48872SOL     OW64225   4.360  12.805  13.184 -0.3063 -0.0531  0.1625
48872SOL    HW164226   4.290  12.784  13.246 -0.8354 -0.1790 -0.4648
48872SOL    HW264227   4.391  12.892  13.211  0.0990 -0.4957  1.1552
48873SOL     OW64228   2.811  10.575   2.500 -0.2412  1.1558  0.1894
48873SOL    HW164229   2.717  10.573   2.482 -0.1236 -2.1573 -0.6178
48873SOL    HW264230   2.849  10.617   2.423 -0.8568 -0.6071 -1.1482
48874SOL     OW64231   8.973  10.335   2.734  0.3407  0.1432  0.1615
48874SOL    HW164232   8.967  10.318   2.640  1.1583 -0.0606  0.1406
48874SOL    HW264233   8.942  10.425   2.744  0.4914  0.2558 -0.3413
48875SOL     OW64234  13.460   3.706   7.574  0.2193  0.3943 -0.4875
48875SOL    HW164235  13.485   3.754   7.652  1.6652 -1.4275  0.2196
48875SOL    HW264236  13.381   3.657   7.600 -0.2774  1.0597 -0.7056
48876SOL     OW64237   7.425   4.012  10.725  0.2656  0.5349  0.9368
48876SOL    HW164238   7.425   4.107  10.737  0.2430  0.4660  1.5041
48876SOL    HW264239   7.350   3.995  10.668  0.7996  0.9422  0.0835
48877SOL     OW64240   6.260  10.724   0.494 -0.2327  0.3182 -0.0667
48877SOL    HW164241   6.195  10.665   0.533  1.6267 -1.2060  0.8991
48877SOL    HW264242   6.257  10.704   0.400 -0.6483 -0.2613  0.0607
48878SOL     OW64243   8.896  10.264   2.969  0.5422  0.1682 -0.4236
48878SOL    HW164244   8.823  10.326   2.971  0.8137  0.4753  0.4548
48878SOL    HW264245   8.931  10.271   2.880  0.2061  0.8389 -0.5094
48879SOL     OW64246   3.261   5.779   8.370  0.2623 -0.3054  0.0578
48879SOL    HW164247   3.340   5.831   8.356 -0.2991  0.8085  0.8204
48879SOL    HW264248   3.293   5.689   8.382  1.6995  0.4422  2.7498
48880SOL     OW64249   7.430  11.084   2.542 -0.0388 -0.0430  0.3509
48880SOL    HW164250   7.366  11.015   2.525 -0.6694  0.4270  0.7996
48880SOL    HW264251   7.415  11.109   2.633 -0.8820  1.7738 -0.2475
48881SOL     OW64252   1.877   1.564   3.899 -0.0082 -0.1938 -0.3083
48881SOL    HW164253   1.950   1.626   3.906 -1.2581  1.5978 -1.9444
48881SOL    HW264254   1.890   1.521   3.815 -1.4413  1.0767 -1.2321
48882SOL     OW64255   5.477   6.755   2.996 -0.3728 -0.0079 -0.2941
48882SOL    HW164256   5.454   6.662   2.995  1.2562 -0.4584  0.0711
48882SOL    HW264257   5.544   6.762   3.064  0.4592  1.1851 -1.1952
48883SOL     OW64258   5.122   6.572  14.007  0.3598 -0.1184  0.3615
48883SOL    HW164259   5.053   6.542  14.066 -0.0300  0.8298  0.4058
48883SOL    HW264260   5.156   6.492  13.967 -1.9662 -0.5123 -1.0176
48884SOL     OW64261   9.641   3.872   0.302  0.5757 -0.0198  0.4748
48884SOL    HW164262   9.716   3.930   0.315 -0.1190  1.5478 -1.8369
48884SOL    HW264263   9.570   3.913   0.352  0.3395  0.6144 -0.3581
48885SOL     OW64264  11.883   6.454   4.334 -0.1296  0.3359 -0.0062
48885SOL    HW164265  11.859   6.372   4.377  0.4103 -0.1256 -0.5732
48885SOL    HW264266  11.811   6.473   4.275  0.1353 -0.1747 -0.4931
48886SOL     OW64267   7.336   5.075  13.527  0.4645 -0.2925 -0.3983
48886SOL    HW164268   7.286   5.149  13.492  0.2675 -0.4800 -0.5096
48886SOL    HW264269   7.426   5.108  13.530  0.2030  0.3607  0.6741
48887SOL     OW64270  11.913   1.293  13.427 -0.0573  0.6732 -0.5033
48887SOL    HW164271  11.857   1.369  13.409  0.2365  0.6139 -1.7268
48887SOL    HW264272  11.933   1.257  13.341 -1.6074 -1.8517  0.0870
48888SOL     OW64273   2.135  13.864   0.384  0.5130 -0.2019 -0.4933
48888SOL    HW164274   2.058  13.815   0.412  2.1361 -2.3522  0.4826
48888SOL    HW264275   2.135  13.857   0.289 -0.3147 -0.4237 -0.4864
48889SOL     OW64276   3.800  10.906   0.592 -0.2463 -0.2253  0.8311
48889SOL    HW164277   3.886  10.926   0.631  0.5575 -0.2532 -0.8604
48889SOL    HW264278   3.793  10.811   0.599  2.2434 -0.9722 -3.4968
48890SOL     OW64279   0.650   8.033   2.753  0.5823  0.0412  0.5383
48890SOL    HW164280   0.705   8.061   2.826 -0.3339  0.7234  0.9862
48890SOL    HW264281   0.577   7.987   2.795 -0.3273  1.0551  0.1239
48891SOL     OW64282   3.349   3.710   9.256  0.2020 -0.5950 -0.2669
48891SOL    HW164283   3.386   3.737   9.172 -0.4103  2.6227  0.3605
48891SOL    HW264284   3.418   3.732   9.320 -0.0577 -1.2822  0.2629
48892SOL     OW64285   3.309  10.280  13.226 -0.4363  0.6376  0.4000
48892SOL    HW164286   3.270  10.335  13.158 -0.4368  1.7538  1.2784
48892SOL    HW264287   3.402  10.300  13.222 -0.5785  1.6542  1.5205
48893SOL     OW64288   0.919  11.861  12.479 -0.5873 -0.2417 -0.0198
48893SOL    HW164289   0.976  11.914  12.424  2.6216 -0.0173  3.1547
48893SOL    HW264290   0.944  11.771  12.460 -0.4389 -0.2324  0.1300
48894SOL     OW64291   8.726   1.875   5.928 -0.0296  0.1052 -0.5198
48894SOL    HW164292   8.801   1.821   5.903  0.5902  0.0458  1.3674
48894SOL    HW264293   8.695   1.838   6.011 -0.0835  2.1306  0.4229
48895SOL     OW64294   2.092   0.035  13.172  0.2497  0.5924  0.0778
48895SOL    HW164295   2.137  -0.007  13.245  0.3173  1.4992  0.5679
48895SOL    HW264296   2.012  -0.016  13.161  1.3412 -1.0326 -0.7991
48896SOL     OW64297   6.775  11.377   6.339  0.2958 -0.5124 -0.2425
48896SOL    HW164298   6.736  11.423   6.414  0.7690 -0.7036  0.1249
48896SOL    HW264299   6.790  11.445   6.274  1.4860 -0.0287  0.4992
48897SOL     OW64300   2.863   0.316  10.832  0.0597  0.5319 -0.2164
48897SOL    HW164301   2.923   0.256  10.787 -0.0369 -0.8356  1.3646
48897SOL    HW264302   2.920   0.378  10.877  0.2473  0.0788  0.1729
48898SOL     OW64303   8.457   0.923   8.184 -0.6338 -0.5057 -0.6446
48898SOL    HW164304   8.414   0.988   8.128  0.3608  0.8629  0.1229
48898SOL    HW264305   8.447   0.956   8.273  0.0892 -1.2854 -0.2543
48899SOL     OW64306  12.680   1.845   3.120 -0.3583  0.2046 -0.0104
48899SOL    HW164307  12.745   1.801   3.065 -0.5574  0.8304 -0.7740
48899SOL    HW264308  12.728   1.867   3.200  0.6461  1.4439 -0.9056
48900SOL     OW64309  11.098   0.792   1.082 -0.0536  0.3042  0.1130
48900SOL    HW164310  11.176   0.738   1.068  0.4020  0.5523  1.5194
48900SOL    HW264311  11.131   0.873   1.122 -0.8903  1.0016 -0.5601
48901SOL     OW64312   8.268   8.825   0.420 -0.1050  0.0112  0.7886
48901SOL    HW164313   8.300   8.799   0.333 -1.0036 -1.8994  0.9789
48901SOL    HW264314   8.339   8.800   0.479 -0.1189 -0.0760  0.7680
48902SOL     OW64315   3.034   0.128  11.881 -0.2137 -0.9563  0.2035
48902SOL    HW164316   3.091   0.052  11.865 -0.4513 -0.8873 -1.0913
48902SOL    HW264317   3.015   0.162  11.793 -0.4383  0.3643  0.7546
48903SOL     OW64318   4.469  10.679   5.905 -0.0760  0.0774 -0.2695
48903SOL    HW164319   4.432  10.733   5.974  0.0271  0.7127 -0.7030
48903SOL    HW264320   4.418  10.702   5.827  0.6329  0.3006 -0.6789
48904SOL     OW64321   7.510  13.376   1.450  0.2110  0.0157  0.2625
48904SOL    HW164322   7.569  13.451   1.439  1.2898 -0.1285  3.8975
48904SOL    HW264323   7.436  13.396   1.393  1.0539  3.1999  0.0772
48905SOL     OW64324  11.029  10.424   0.902  0.6466 -0.4889  0.7955
48905SOL    HW164325  11.054  10.453   0.990  0.7537 -0.2063  0.6746
48905SOL    HW264326  11.077  10.483   0.843 -1.2749  0.9485  0.5564
48906SOL     OW64327   1.620   1.828   5.114  0.1479 -0.1418  0.0592
48906SOL    HW164328   1.531   1.863   5.118 -0.4548 -1.4064 -1.2820
48906SOL    HW264329   1.668   1.876   5.181 -1.5666  0.5032  0.8773
48907SOL     OW64330   0.944   8.841  13.423  0.1086 -0.4454 -0.5865
48907SOL    HW164331   1.022   8.864  13.474  0.1337 -0.3890 -0.6498
48907SOL    HW264332   0.873   8.839  13.487  0.1220 -0.2762 -0.5644
48908SOL     OW64333   6.245  13.730  11.992 -0.5219  0.1016  0.2009
48908SOL    HW164334   6.320  13.743  11.933  0.0524 -0.3051  0.8192
48908SOL    HW264335   6.237  13.813  12.039  0.7967 -0.4608  1.5147
48909SOL     OW64336   8.576   4.741   5.445 -0.4328  0.4897  0.0081
48909SOL    HW164337   8.489   4.707   5.426  0.7416 -2.4920 -0.6374
48909SOL    HW264338   8.614   4.758   5.358  0.2075  0.1153  0.2094
48910SOL     OW64339   6.081  12.621  11.156  0.1994 -0.4050 -0.9612
48910SOL    HW164340   6.025  12.629  11.079 -2.2506 -1.1450  0.6391
48910SOL    HW264341   6.051  12.541  11.200  2.0211 -0.4100  0.3956
48911SOL     OW64342   1.310   7.969  10.674 -0.4356  0.3993 -0.1638
48911SOL    HW164343   1.278   8.012  10.595  0.7434  1.3189 -0.1611
48911SOL    HW264344   1.398   7.939  10.652 -1.3254 -2.4207 -0.2880
48912SOL     OW64345  10.969  12.525   8.100  0.5428  0.1348  0.0489
48912SOL    HW164346  11.015  12.591   8.048 -0.5302 -0.4213 -1.6845
48912SOL    HW264347  10.903  12.489   8.041  1.1989 -2.6275  0.8489
48913SOL     OW64348  10.897   0.429   1.014 -0.3560  0.2641 -0.1391
48913SOL    HW164349  10.991   0.410   1.020  0.1945  2.3741 -1.1746
48913SOL    HW264350  10.855   0.361   1.068  1.8171 -0.1833  1.0994
48914SOL     OW64351  14.002  11.338   9.665 -0.2560  0.0245  0.3698
48914SOL    HW164352  13.994  11.244   9.683 -1.3310 -0.1200 -0.6955
48914SOL    HW264353  14.008  11.379   9.751 -2.9415 -0.7808  1.0369
48915SOL     OW64354  13.538  13.908  11.164  0.2009  0.9172  0.0891
48915SOL    HW164355  13.632  13.926  11.165  0.0659  2.3339 -2.5605
48915SOL    HW264356  13.498  13.994  11.151 -1.2443  0.0376 -1.7355
48916SOL     OW64357   6.296   1.091   7.215  0.2185 -0.0367 -0.0518
48916SOL    HW164358   6.301   1.093   7.311 -2.5825  1.9894  0.1938
48916SOL    HW264359   6.366   1.149   7.186 -0.3880  1.2447  0.9497
48917SOL     OW64360   2.148   5.101  12.896  0.2374  0.2248 -1.0641
48917SOL    HW164361   2.185   5.135  12.814  1.0002  1.4430 -0.2607
48917SOL    HW264362   2.056   5.086  12.877  0.5845 -0.3783 -2.3926
48918SOL     OW64363  12.119   8.711   4.178 -0.0303  0.3389 -0.4326
48918SOL    HW164364  12.099   8.754   4.095 -0.6228 -0.8340 -0.9185
48918SOL    HW264365  12.137   8.620   4.154  1.2373  0.3008  0.5607
48919SOL     OW64366   8.959  11.671  11.506 -0.7334 -0.4703  0.1856
48919SOL    HW164367   8.899  11.687  11.434  1.7768  1.3123 -1.6831
48919SOL    HW264368   9.042  11.649  11.463  0.6647 -0.1225  2.5535
48920SOL     OW64369   6.839   1.899   6.617 -0.0316 -0.5668 -0.5117
48920SOL    HW164370   6.869   1.989   6.629 -0.9762 -0.2797 -0.1485
48920SOL    HW264371   6.861   1.855   6.699 -0.2091 -0.4706 -0.4114
48921SOL     OW64372   1.811  10.936   0.496 -0.0022 -0.5499 -0.0640
48921SOL    HW164373   1.874  11.006   0.479  0.4366 -0.6433  1.1161
48921SOL    HW264374   1.857  10.875   0.553 -1.7497  0.3854  2.5698
48922SOL     OW64375  10.862   8.892  11.062  0.1476 -0.5301 -0.3665
48922SOL    HW164376  10.862   8.986  11.081 -1.9919 -0.5727  0.0698
48922SOL    HW264377  10.886   8.851  11.145  0.0438 -0.3992 -0.2701
48923SOL     OW64378   6.637   2.648   6.670 -0.4981  0.3071  0.1408
48923SOL    HW164379   6.671   2.705   6.740 -1.6279  0.9003  0.2248
48923SOL    HW264380   6.691   2.569   6.676 -0.4782  0.3936  1.6098
48924SOL     OW64381   3.072   5.406  12.863 -0.6114 -0.0886  0.2199
48924SOL    HW164382   3.021   5.478  12.902 -0.6334  0.7242 -1.2350
48924SOL    HW264383   3.038   5.397  12.775 -1.6027 -2.9185  0.7894
48925SOL     OW64384   0.021  12.249  10.781 -0.0644 -0.9967  0.4610
48925SOL    HW164385   0.023  12.215  10.691  0.4380  0.3315 -0.0546
48925SOL    HW264386   0.099  12.212  10.822  0.9862  0.2074 -0.3727
48926SOL     OW64387   0.336   8.639   2.547 -0.1891  0.7635  0.0912
48926SOL    HW164388   0.327   8.550   2.579  1.5485 -0.4525 -2.4375
48926SOL    HW264389   0.249   8.678   2.557 -1.8886 -2.2627 -1.5407
48927SOL     OW64390   7.238  12.344   7.875  0.3886  0.3188 -0.8156
48927SOL    HW164391   7.166  12.348   7.937  0.5210 -2.0447 -0.4155
48927SOL    HW264392   7.219  12.412   7.810 -2.1371 -0.1706 -0.6590
48928SOL     OW64393   3.097  10.140   2.284 -0.3234 -0.5634 -0.0067
48928SOL    HW164394   3.064  10.097   2.205  1.4642  1.2343 -1.8244
48928SOL    HW264395   3.027  10.200   2.309 -0.5640 -0.5285 -0.7406
48929SOL     OW64396   0.138  13.430   8.658 -0.2541  0.0940  0.3636
48929SOL    HW164397   0.124  13.507   8.713 -1.4202 -0.5582  1.0200
48929SOL    HW264398   0.085  13.447   8.580  0.7238  0.6347 -0.2027
48930SOL     OW64399   4.420   5.533   1.257 -0.4688  1.0779 -0.0321
48930SOL    HW164400   4.325   5.521   1.250 -0.7644  1.9489  1.8868
48930SOL    HW264401   4.434   5.556   1.348  1.7379 -0.1704  0.0124
48931SOL     OW64402   2.526  11.178   1.853 -0.2567 -0.2232  0.1839
48931SOL    HW164403   2.500  11.183   1.761 -0.4557 -0.5984  0.2150
48931SOL    HW264404   2.533  11.269   1.882  1.2745 -0.0564 -0.6053
48932SOL     OW64405   4.015  13.311   6.768 -0.3148  0.1864 -0.1024
48932SOL    HW164406   3.985  13.255   6.697  0.7324 -1.1197  0.4185
48932SOL    HW264407   4.110  13.296   6.771 -0.1742  1.1575  0.7737
48933SOL     OW64408  11.921   5.705   2.491  0.2666  0.1247  0.1953
48933SOL    HW164409  11.989   5.760   2.531  1.6099 -1.0348 -0.4106
48933SOL    HW264410  11.935   5.618   2.528 -0.1604 -0.3889 -0.8106
48934SOL     OW64411   3.699  12.982  13.078 -0.0088 -0.6860 -0.3596
48934SOL    HW164412   3.686  12.899  13.124  1.0843  0.0897  1.4620
48934SOL    HW264413   3.782  12.971  13.031 -0.3745 -0.9565 -0.9547
48935SOL     OW64414   5.763   6.638   1.888 -0.0631 -0.4509  0.0207
48935SOL    HW164415   5.713   6.591   1.955  0.4316  0.0067  0.7272
48935SOL    HW264416   5.738   6.730   1.900  0.2369 -0.3343 -0.2367
48936SOL     OW64417   7.318   0.665   9.147  0.1143 -0.0253  0.1690
48936SOL    HW164418   7.377   0.668   9.072 -0.2791  3.0981 -0.1779
48936SOL    HW264419   7.352   0.595   9.202  2.8945  0.2559 -1.0143
48937SOL     OW64420   5.548  10.925   2.125 -0.7403 -0.0833 -0.1304
48937SOL    HW164421   5.532  10.897   2.215  2.5465  0.5984  0.7843
48937SOL    HW264422   5.602  11.004   2.133  0.2398 -0.3837 -2.6832
48938SOL     OW64423   7.811   0.126   7.939  0.3050 -0.2416  0.1534
48938SOL    HW164424   7.899   0.104   7.969  0.6965  0.1708 -0.6408
48938SOL    HW264425   7.776   0.186   8.006  0.8872  0.1168  0.1420
48939SOL     OW64426   1.014   7.820   9.229 -0.8086  0.0130  0.3157
48939SOL    HW164427   1.067   7.890   9.267  1.9045 -1.5400 -0.4045
48939SOL    HW264428   0.962   7.787   9.303  0.5155  0.4531  1.4887
48940SOL     OW64429   4.224   5.617   2.313 -0.2115 -0.1762 -0.0825
48940SOL    HW164430   4.301   5.562   2.300  0.3989  0.3013  1.3034
48940SOL    HW264431   4.151   5.561   2.289  0.5248 -0.8422 -0.8569
48941SOL     OW64432   0.478  11.296  13.362  0.0150 -0.2270 -0.1146
48941SOL    HW164433   0.483  11.383  13.320  0.7673  0.5493  1.4949
48941SOL    HW264434   0.483  11.315  13.455 -0.1321 -2.0103  0.2731
48942SOL     OW64435   3.863   1.075  11.593  0.3522 -0.0534  0.4819
48942SOL    HW164436   3.779   1.032  11.575 -0.0967  0.1280  1.9898
48942SOL    HW264437   3.928   1.019  11.551 -0.4005 -1.0585  0.6119
48943SOL     OW64438   4.262  12.646  12.043 -0.0833  0.1600  0.5550
48943SOL    HW164439   4.335  12.705  12.024 -0.0327 -0.2426 -0.6337
48943SOL    HW264440   4.192  12.703  12.075  0.5168  0.6376  1.0427
48944SOL     OW64441   6.662   7.739   3.986  0.7187 -0.6755  0.6617
48944SOL    HW164442   6.653   7.805   3.917 -2.9743 -0.0707  1.5375
48944SOL    HW264443   6.729   7.775   4.044  1.5357  0.3858 -0.8678
48945SOL     OW64444  13.263   4.984   6.202 -0.2688  0.4260 -0.0220
48945SOL    HW164445  13.265   4.918   6.270 -0.4760 -0.7750 -1.1435
48945SOL    HW264446  13.342   5.037   6.218  0.8251 -1.1285 -0.0952
48946SOL     OW64447  14.007   8.997   8.250  0.0152  0.5784 -0.1542
48946SOL    HW164448  13.995   8.926   8.187  0.1552  1.2209 -0.9240
48946SOL    HW264449  14.050   8.956   8.325 -1.0207 -0.4004 -0.0635
48947SOL     OW64450  11.923   9.889  11.324 -0.4987  0.1859  0.4779
48947SOL    HW164451  11.912   9.830  11.399 -0.4255  0.7367  0.9242
48947SOL    HW264452  11.837   9.893  11.284 -1.5848  2.8726  2.7611
48948SOL     OW64453   7.415  11.596   7.546 -0.3859  0.2427 -0.2526
48948SOL    HW164454   7.325  11.594   7.579 -0.2194  1.4781  0.3295
48948SOL    HW264455   7.464  11.642   7.614  0.8725 -1.1671 -0.1698
48949SOL     OW64456  13.993  13.245   9.832  0.2515  0.2414  0.3094
48949SOL    HW164457  13.994  13.264   9.738 -0.8067  1.4066  0.5047
48949SOL    HW264458  14.006  13.151   9.838 -3.9812 -0.6879 -1.2875
48950SOL     OW64459   7.814  10.955   0.881 -0.0123  0.1092 -0.4815
48950SOL    HW164460   7.793  10.991   0.795  1.2238  2.1310 -0.0103
48950SOL    HW264461   7.746  10.988   0.939  0.6553  1.0399 -0.2054
48951SOL     OW64462   7.670   2.503  13.527  0.0679 -0.4339 -0.3511
48951SOL    HW164463   7.663   2.595  13.499  0.0644 -0.6992 -1.2418
48951SOL    HW264464   7.604   2.457  13.474 -1.8615 -0.5497  1.9598
48952SOL     OW64465   4.713  13.399   2.629 -0.4684 -0.2782  0.7040
48952SOL    HW164466   4.701  13.304   2.627 -0.1880 -0.3376 -2.0923
48952SOL    HW264467   4.777  13.417   2.560 -0.8023  1.9803  0.8867
48953SOL     OW64468  10.673   7.648   1.012 -0.5804  0.6167 -0.1850
48953SOL    HW164469  10.699   7.564   0.973 -1.6502  0.4572 -0.5739
48953SOL    HW264470  10.578   7.641   1.023 -0.8266  2.1575 -1.1591
48954SOL     OW64471   1.184   2.888   1.985 -0.6287 -0.3781 -0.2785
48954SOL    HW164472   1.262   2.836   2.004 -1.0558 -0.8205  0.2839
48954SOL    HW264473   1.207   2.937   1.905  1.3495  1.8640  1.5168
48955SOL     OW64474   9.828   1.899   7.235 -0.7085 -0.4666 -0.0773
48955SOL    HW164475   9.908   1.849   7.250  0.0082  0.2652 -1.2738
48955SOL    HW264476   9.806   1.935   7.320  0.1056 -0.8592  0.3151
48956SOL     OW64477   2.089   7.747   3.875 -0.0303  0.2463  0.0286
48956SOL    HW164478   2.098   7.816   3.941  0.3853  0.9119 -0.7156
48956SOL    HW264479   2.173   7.703   3.875 -0.1300  0.0511  0.1431
48957SOL     OW64480   1.026   3.149   4.463 -0.4446  0.7364  0.0746
48957SOL    HW164481   0.935   3.138   4.433 -0.0456 -1.6089 -0.4358
48957SOL    HW264482   1.017   3.179   4.554 -1.7062  1.8958 -0.3981
48958SOL     OW64483   6.131  11.072   8.478  0.2201 -0.1195 -0.0433
48958SOL    HW164484   6.159  11.134   8.546 -0.6105 -1.7273  1.8905
48958SOL    HW264485   6.085  11.003   8.527  0.5597 -1.9435 -2.1521
48959SOL     OW64486   3.963   8.289   3.858  0.4570  0.3805 -0.1291
48959SOL    HW164487   3.912   8.215   3.825  1.1892 -0.1606 -0.0742
48959SOL    HW264488   3.937   8.298   3.949  0.0702  0.4534 -0.2442
48960SOL     OW64489  12.581  12.934   0.233  0.1406 -0.1237 -0.0778
48960SOL    HW164490  12.580  12.873   0.307  2.2891 -0.5459 -0.3256
48960SOL    HW264491  12.601  13.019   0.272  0.4113 -0.1854 -0.0822
48961SOL     OW64492   2.207   6.856   8.970 -0.6418 -0.3991 -0.3804
48961SOL    HW164493   2.170   6.928   9.021 -0.1324 -0.4165  0.0217
48961SOL    HW264494   2.273   6.897   8.915  0.4359 -0.6970  0.6471
48962SOL     OW64495   0.442   0.080   9.656 -0.8983  0.2969 -0.4393
48962SOL    HW164496   0.415  -0.000   9.701 -0.4150  0.3057 -0.1319
48962SOL    HW264497   0.361   0.113   9.617 -0.9624 -0.7776 -1.2724
48963SOL     OW64498   2.129   8.282  12.396 -1.1129 -0.5989  0.2942
48963SOL    HW164499   2.109   8.217  12.329 -0.9425 -0.8095  0.4460
48963SOL    HW264500   2.197   8.241  12.450  1.2206  0.8471 -1.3705
48964SOL     OW64501   1.692   6.607  12.835 -0.4444  0.7358 -0.1155
48964SOL    HW164502   1.757   6.586  12.902 -1.0892  0.6434  0.4941
48964SOL    HW264503   1.608   6.590  12.877 -0.8481 -0.1075 -1.2243
48965SOL     OW64504   6.437   7.156   5.730  0.3361 -0.5434  0.0089
48965SOL    HW164505   6.499   7.098   5.685 -0.9665 -2.1130  0.1280
48965SOL    HW264506   6.493   7.218   5.778  1.7700 -0.8030 -1.2411
48966SOL     OW64507   8.649   6.091   4.237 -0.2721  0.9318  0.0310
48966SOL    HW164508   8.696   6.145   4.301  1.9548  0.4485 -1.0936
48966SOL    HW264509   8.711   6.022   4.215 -2.4359 -1.1703  0.1962
48967SOL     OW64510   0.872   5.279  13.206 -0.2355  0.2809 -0.4800
48967SOL    HW164511   0.782   5.287  13.238  0.0985  2.1505  0.0958
48967SOL    HW264512   0.874   5.326  13.123 -0.3328 -1.8738 -1.7767
48968SOL     OW64513   0.560   6.843  13.989 -0.2992  0.3696 -0.2149
48968SOL    HW164514   0.613   6.906  13.940 -1.6995  0.7248 -1.3624
48968SOL    HW264515   0.589   6.758  13.959  1.4599  0.4301  1.1826
48969SOL     OW64516  13.017   1.287  12.170 -0.3899 -0.1517 -1.0432
48969SOL    HW164517  12.959   1.233  12.224  1.0462 -0.0859  0.6858
48969SOL    HW264518  13.094   1.232  12.156  0.8070  1.1440  0.1540
48970SOL     OW64519   1.530  13.707  12.901  0.0158 -0.9262  0.5640
48970SOL    HW164520   1.465  13.759  12.948  1.3344  2.9169 -1.4533
48970SOL    HW264521   1.479  13.649  12.845 -1.6858  0.3721  0.6706
48971SOL     OW64522   5.540   0.210   0.882  0.4107 -0.2262 -0.0895
48971SOL    HW164523   5.453   0.241   0.858  0.5079  0.8641  0.8541
48971SOL    HW264524   5.528   0.118   0.904 -0.6720  0.1069  0.7918
48972SOL     OW64525  11.612   6.131  13.876 -0.1687 -0.1060  0.2896
48972SOL    HW164526  11.704   6.131  13.901  0.2342  0.7616 -1.0865
48972SOL    HW264527  11.571   6.069  13.936  1.1257  0.2080  1.5586
48973SOL     OW64528   8.610  11.622  10.755  0.5737 -0.0714 -0.2767
48973SOL    HW164529   8.536  11.628  10.815  0.7299 -0.3238 -0.0564
48973SOL    HW264530   8.676  11.572  10.803  0.2825 -1.2643 -1.0790
48974SOL     OW64531   6.511  10.513   6.326 -0.6310 -0.3848 -0.0764
48974SOL    HW164532   6.563  10.590   6.304  0.7801 -1.1476  0.4102
48974SOL    HW264533   6.482  10.529   6.415 -1.5352  0.1937 -0.4660
48975SOL     OW64534   4.879   1.156  10.973 -0.2362  0.0048  0.1720
48975SOL    HW164535   4.798   1.110  10.995 -0.7533 -0.5552 -2.6014
48975SOL    HW264536   4.851   1.231  10.921  1.0261 -1.5304 -2.9840
48976SOL     OW64537   7.698  13.265   6.075 -0.4301 -0.2283 -0.3774
48976SOL    HW164538   7.650  13.346   6.056 -0.7750 -0.0218  1.2383
48976SOL    HW264539   7.739  13.280   6.160 -0.5332 -1.7656 -0.0248
48977SOL     OW64540   2.229  13.802  11.854 -0.2828 -0.2938  0.7657
48977SOL    HW164541   2.182  13.885  11.865  0.1749 -0.2644  2.7904
48977SOL    HW264542   2.183  13.758  11.782  1.1695  2.8563 -2.3527
48978SOL     OW64543   8.858  10.690  11.587  0.4235  0.3883 -0.4262
48978SOL    HW164544   8.770  10.725  11.574  0.0345  0.2270  1.4943
48978SOL    HW264545   8.915  10.754  11.543 -0.4063  2.5417  1.3964
48979SOL     OW64546   6.973   7.758  10.631  0.2338 -0.4785 -0.1812
48979SOL    HW164547   6.972   7.846  10.669 -2.7229 -0.7198  0.5654
48979SOL    HW264548   7.028   7.766  10.553  0.6127  1.8455  0.2553
48980SOL     OW64549   5.164  12.777  10.961  0.5405 -0.3796  0.0934
48980SOL    HW164550   5.125  12.764  10.875 -0.0315 -1.2116  0.4702
48980SOL    HW264551   5.089  12.788  11.020  0.9264  0.1143  0.5022
48981SOL     OW64552   7.922   2.503  13.634  0.5128  0.6616 -0.0827
48981SOL    HW164553   7.925   2.585  13.681  1.1301  0.1183  0.8497
48981SOL    HW264554   7.839   2.506  13.586 -0.3751  1.0303  1.4168
48982SOL     OW64555   0.219   3.862   0.139  0.1952  0.1327  0.4184
48982SOL    HW164556   0.280   3.860   0.064 -2.0990  0.4567 -1.5835
48982SOL    HW264557   0.261   3.922   0.201  1.5810  0.9737 -1.2089
48983SOL     OW64558   4.053  13.284   1.297 -0.1552  0.5520  0.4006
48983SOL    HW164559   4.004  13.256   1.374 -0.0718  0.2912  0.3604
48983SOL    HW264560   3.996  13.346   1.253 -0.8248 -0.3924 -0.1116
48984SOL     OW64561   7.605  10.307   7.950 -0.5223 -0.0681  0.7686
48984SOL    HW164562   7.694  10.276   7.933 -0.3212  0.9427 -0.1578
48984SOL    HW264563   7.549  10.231   7.932  0.0774 -0.4195  0.3501
48985SOL     OW64564   3.912  12.432   6.505 -0.1690  0.1229 -0.0755
48985SOL    HW164565   3.864  12.356   6.537 -1.0378  0.3253 -0.8555
48985SOL    HW264566   4.004  12.412   6.523 -0.4265 -0.8966  0.1565
48986SOL     OW64567   8.934  12.937   2.313  0.0055 -0.6437  0.1590
48986SOL    HW164568   9.024  12.929   2.283  0.0825 -0.3836  0.3201
48986SOL    HW264569   8.931  12.887   2.394 -0.2126 -1.3850 -0.2950
48987SOL     OW64570   1.759   7.763  13.551 -0.2239 -0.1340  0.3592
48987SOL    HW164571   1.854   7.770  13.557  0.1098 -0.4872 -2.5844
48987SOL    HW264572   1.728   7.854  13.546  0.1052 -0.0373  0.0559
48988SOL     OW64573   1.445   7.130  12.348  0.4968 -0.3900  0.1331
48988SOL    HW164574   1.349   7.125  12.357  0.5244 -0.8662  0.1969
48988SOL    HW264575   1.477   7.126  12.438  0.5909 -0.5688  0.0913
48989SOL     OW64576   7.366   5.707   4.964 -0.0928 -0.3663  0.2820
48989SOL    HW164577   7.381   5.776   5.029 -0.8319  0.3800 -0.3062
48989SOL    HW264578   7.408   5.629   5.000  0.8495  0.4180  0.9276
48990SOL     OW64579   4.783   8.536   6.180 -0.0772 -0.1424 -0.3822
48990SOL    HW164580   4.766   8.582   6.097  0.3133  1.7837  0.5540
48990SOL    HW264581   4.780   8.605   6.246 -0.5443 -1.6694  1.2499
48991SOL     OW64582  14.050   3.320   8.307  0.1254 -0.2983  0.2420
48991SOL    HW164583  13.978   3.273   8.264  0.7813 -0.6113 -0.5562
48991SOL    HW264584  14.061   3.275   8.391 -0.1000 -0.7462  0.0401
48992SOL     OW64585   5.934  10.326   2.223  0.0182  0.2436 -0.0515
48992SOL    HW164586   6.002  10.392   2.206  1.1997 -1.4829 -2.5352
48992SOL    HW264587   5.880  10.326   2.145 -1.5624  0.0339  0.9982
48993SOL     OW64588   3.836   4.601   6.333 -0.3733  0.5048 -0.5264
48993SOL    HW164589   3.831   4.570   6.423 -1.9728  0.6813 -0.5146
48993SOL    HW264590   3.858   4.523   6.281  0.9235  0.4823  0.0412
48994SOL     OW64591   0.229   4.031  13.910  0.3254 -0.1446 -0.8993
48994SOL    HW164592   0.285   4.109  13.908 -1.4960  1.4370  2.2739
48994SOL    HW264593   0.270   3.974  13.975  0.3839 -0.8095 -1.5067
48995SOL     OW64594   9.431   7.638  11.338  0.0241  0.1235  0.4832
48995SOL    HW164595   9.350   7.619  11.387 -2.1456  0.0512 -2.8355
48995SOL    HW264596   9.468   7.552  11.318 -2.0867 -0.2728 -2.4223
48996SOL     OW64597  11.235  10.150   8.333 -0.1669 -0.3759  0.2624
48996SOL    HW164598  11.232  10.103   8.250  1.5602 -0.4345  0.1933
48996SOL    HW264599  11.285  10.229   8.314 -1.0809  0.3793  0.9107
48997SOL     OW64600   6.407   0.115  13.878 -0.1540  0.1447  0.2659
48997SOL    HW164601   6.415   0.152  13.966 -0.5335  0.7182  0.0676
48997SOL    HW264602   6.419   0.190  13.819 -1.9870  0.1571 -0.1294
48998SOL     OW64603   7.743   5.338   4.235  0.1915 -0.3046 -0.7929
48998SOL    HW164604   7.679   5.360   4.168 -0.0723  0.1256 -0.4090
48998SOL    HW264605   7.790   5.420   4.250 -1.7766  0.4688  1.7178
48999SOL     OW64606   9.940   0.301  12.419  0.6342  0.0747 -0.0619
48999SOL    HW164607  10.036   0.299  12.412  0.7693 -0.5412  1.5265
48999SOL    HW264608   9.916   0.389  12.390  1.4788 -0.3654 -2.3072
49000SOL     OW64609   0.114   1.311   5.736 -0.3583  0.1269 -0.1754
49000SOL    HW164610   0.190   1.333   5.790 -0.2201 -0.9397  0.0895
49000SOL    HW264611   0.076   1.234   5.779 -0.4536 -0.5308 -1.4004
49001SOL     OW64612   4.265   5.487   8.579  0.2432 -0.5228 -0.4062
49001SOL    HW164613   4.199   5.554   8.562  0.6161  0.1849  0.8291
49001SOL    HW264614   4.243   5.453   8.666  1.3939 -0.3750 -0.0414
49002SOL     OW64615  10.266   9.839   8.682 -0.1456 -0.8133  0.0291
49002SOL    HW164616  10.256   9.815   8.590 -2.5506 -1.5429  0.4168
49002SOL    HW264617  10.307   9.762   8.722  2.3257  0.0710 -0.6205
49003SOL     OW64618   0.021   3.372  12.912 -0.6194  0.3287 -0.1972
49003SOL    HW164619   0.060   3.293  12.874 -1.5166 -0.5191  0.5506
49003SOL    HW264620   0.082   3.442  12.893  1.6491 -1.0422  1.5056
49004SOL     OW64621   5.109   4.852   8.089 -0.4307 -0.5065 -0.4024
49004SOL    HW164622   5.072   4.818   8.008  0.0468  0.4909 -1.0646
49004SOL    HW264623   5.042   4.912   8.124 -0.0966  0.1017 -0.7835
49005SOL     OW64624   1.014   4.907   0.521  0.1541 -0.5331 -0.2403
49005SOL    HW164625   1.067   4.976   0.480  1.8989 -0.6807  1.6224
49005SOL    HW264626   1.038   4.827   0.474 -0.6367 -0.1736 -1.3055
49006SOL     OW64627   3.631  10.291  13.986  0.6064 -0.4696  0.1315
49006SOL    HW164628   3.719  10.263  14.011  0.4153 -0.2428  1.1002
49006SOL    HW264629   3.589  10.212  13.952  0.6005 -1.0210  1.3537
49007SOL     OW64630   2.730   7.534   8.908 -0.4805  0.0102 -0.0359
49007SOL    HW164631   2.677   7.602   8.950  0.0929 -0.5508  1.6760
49007SOL    HW264632   2.668   7.464   8.888 -0.7330  0.2182  0.0115
49008SOL     OW64633   7.656  11.038  13.489 -0.3413 -0.1338  0.5114
49008SOL    HW164634   7.699  11.005  13.410 -0.6359 -0.4135  0.4658
49008SOL    HW264635   7.667  10.969  13.554  0.9976  0.6009  1.1182
49009SOL     OW64636   4.335  10.697   8.510  0.4073 -0.1925  0.0591
49009SOL    HW164637   4.303  10.694   8.600  0.7134  0.5761  0.2013
49009SOL    HW264638   4.365  10.608   8.492  1.5296 -0.0638  1.1545
49010SOL     OW64639   4.418   1.122   9.426  0.3092  0.6547  0.2748
49010SOL    HW164640   4.406   1.031   9.398 -0.7188  1.5194 -2.3688
49010SOL    HW264641   4.457   1.115   9.513  1.6953 -2.3084 -0.4502
49011SOL     OW64642   7.870   2.056   3.980 -0.3250  0.3276  0.3095
49011SOL    HW164643   7.948   2.022   3.936  0.0839  0.3284  1.0260
49011SOL    HW264644   7.801   2.051   3.913 -0.0648 -1.0523  0.1126
49012SOL     OW64645   4.068   8.485   1.272 -0.5248 -0.1594  0.2774
49012SOL    HW164646   4.023   8.430   1.335  1.5398 -0.5256  1.5280
49012SOL    HW264647   4.077   8.570   1.315 -0.2399 -0.0138 -0.0591
49013SOL     OW64648   0.200  10.521   0.309 -0.4696 -0.4229 -0.0244
49013SOL    HW164649   0.130  10.559   0.361 -1.7123 -1.9632 -0.4887
49013SOL    HW264650   0.167  10.435   0.283  1.4605 -1.0679 -0.5483
49014SOL     OW64651   3.903   6.666   7.225  0.5786  0.4260 -0.2005
49014SOL    HW164652   3.855   6.612   7.163  1.7890 -0.4161 -0.4277
49014SOL    HW264653   3.843   6.678   7.298  0.7697 -2.5129  0.5541
49015SOL     OW64654  12.748  10.900  10.182  0.0440  0.1627  0.3277
49015SOL    HW164655  12.771  10.808  10.195 -0.8611 -0.2627 -0.8844
49015SOL    HW264656  12.793  10.925  10.102 -0.0647  0.6449  0.4145
49016SOL     OW64657   6.304   3.632   7.360  1.0278 -0.0767  0.1916
49016SOL    HW164658   6.376   3.596   7.309  0.9283 -0.7548  0.5063
49016SOL    HW264659   6.252   3.555   7.386 -0.1864  0.4399 -0.5851
49017SOL     OW64660   6.301   5.516  11.445 -0.0154 -0.1676 -0.2113
49017SOL    HW164661   6.213   5.478  11.448  0.2593 -0.8714 -0.7325
49017SOL    HW264662   6.327   5.524  11.536  0.1378 -1.7744 -0.0856
49018SOL     OW64663  12.107   2.365  13.526 -0.0640  0.1053 -0.3019
49018SOL    HW164664  12.176   2.303  13.502  0.2745 -1.3563  3.7087
49018SOL    HW264665  12.061   2.382  13.444  2.2290 -2.3980 -2.3260
49019SOL     OW64666   1.843  11.801  11.515 -0.3056  0.5852 -0.4223
49019SOL    HW164667   1.908  11.869  11.536  0.8393 -0.8631  1.0745
49019SOL    HW264668   1.891  11.739  11.460 -0.6235 -0.1178  0.0782
49020SOL     OW64669   1.983   3.889  10.199  0.0801 -0.2454  0.3787
49020SOL    HW164670   2.020   3.960  10.252  1.6777 -1.9459  1.6763
49020SOL    HW264671   2.012   3.909  10.110 -1.9995  2.2440  0.1156
49021SOL     OW64672   1.105   9.420  10.702 -0.2542 -0.1140 -0.1010
49021SOL    HW164673   1.078   9.346  10.648  1.8994 -1.5955  0.7221
49021SOL    HW264674   1.197   9.403  10.722 -0.5201  1.1796  2.6776
49022SOL     OW64675  12.446   4.368  12.149  0.0548  0.0232 -0.5258
49022SOL    HW164676  12.411   4.281  12.168 -0.8613  0.6445  0.8388
49022SOL    HW264677  12.377   4.410  12.097  0.2708  0.1191 -0.7362
49023SOL     OW64678  12.480   4.681   3.909 -0.6516 -0.2758  0.4143
49023SOL    HW164679  12.452   4.624   3.981 -2.2291 -0.3755 -0.2478
49023SOL    HW264680  12.575   4.667   3.903 -0.6159 -0.8645  1.9436
49024SOL     OW64681   3.537   5.571  13.246  0.1643 -0.5115  0.1049
49024SOL    HW164682   3.490   5.533  13.171 -0.6729  0.2040  0.2575
49024SOL    HW264683   3.628   5.544  13.232 -0.1504 -1.2631 -0.6150
49025SOL     OW64684  11.546   0.189   3.328  0.3079 -0.2264 -0.2367
49025SOL    HW164685  11.529   0.095   3.327  2.7349 -0.7370 -0.1641
49025SOL    HW264686  11.548   0.213   3.235 -1.2459  0.0010 -0.2447
49026SOL     OW64687   9.815   7.955   1.067 -0.1525  0.1119  0.6834
49026SOL    HW164688   9.756   7.918   1.132 -0.2267  0.5538  0.8694
49026SOL    HW264689   9.902   7.926   1.093 -0.3882 -1.6345 -0.3177
49027SOL     OW64690   0.130  12.564   5.545  0.3778  0.0136  0.0862
49027SOL    HW164691   0.034  12.559   5.549 -0.0651  4.5329  0.4845
49027SOL    HW264692   0.150  12.570   5.452 -0.0301  1.2498  0.0511
49028SOL     OW64693  12.698  12.140   8.262 -0.0458 -0.1543  0.0030
49028SOL    HW164694  12.706  12.211   8.199  0.4852 -0.4797 -0.3060
49028SOL    HW264695  12.746  12.170   8.339  0.0112 -0.0963 -0.0548
49029SOL     OW64696  10.928  11.532  11.058 -0.3619  0.5500  0.0023
49029SOL    HW164697  11.000  11.595  11.057  0.6672 -0.5707  0.0797
49029SOL    HW264698  10.946  11.478  11.135 -1.2520  0.2011 -0.0303
49030SOL     OW64699   9.650   0.593   0.400 -0.5683  0.7829  0.1289
49030SOL    HW164700   9.698   0.643   0.466 -0.0989  3.6364 -2.1396
49030SOL    HW264701   9.719   0.558   0.343 -1.0154  0.1904 -0.0538
49031SOL     OW64702   5.048   8.938   2.701  0.2776 -0.5629 -0.0073
49031SOL    HW164703   4.960   8.947   2.662 -0.4333  0.4026  1.7105
49031SOL    HW264704   5.081   9.027   2.706  1.3932 -0.9300 -0.6632
49032SOL     OW64705   1.656   1.762   2.711 -0.0630  0.0923  0.3421
49032SOL    HW164706   1.612   1.720   2.637  0.2581 -0.7477  0.6163
49032SOL    HW264707   1.740   1.790   2.675  0.1416 -0.4212  0.4096
49033SOL     OW64708   3.428  10.495   8.964  0.3344  0.4384 -0.2873
49033SOL    HW164709   3.437  10.418   9.020  0.1064  1.0267  0.5659
49033SOL    HW264710   3.458  10.465   8.878  0.8046 -0.4341  0.1669
49034SOL     OW64711  10.381   2.877   0.114  0.3644 -0.1755  0.0927
49034SOL    HW164712  10.408   2.823   0.189  1.1683 -0.1569 -0.1779
49034SOL    HW264713  10.449   2.943   0.106 -0.7692  1.1220  0.6331
49035SOL     OW64714   9.218   0.330   1.168  0.2241  0.2599  0.9651
49035SOL    HW164715   9.175   0.291   1.244  0.3505 -1.4619  0.2016
49035SOL    HW264716   9.158   0.312   1.095  2.1367 -2.2340 -0.1337
49036SOL     OW64717   5.283  12.136  11.723 -0.2432 -0.4618  0.4329
49036SOL    HW164718   5.293  12.229  11.743 -0.3335 -0.5508  0.9259
49036SOL    HW264719   5.308  12.092  11.804  1.3032 -0.9408 -0.2771
49037SOL     OW64720  12.136   3.324  12.909  0.3233 -0.1648  0.2925
49037SOL    HW164721  12.205   3.287  12.964 -0.0137  0.7547  1.3783
49037SOL    HW264722  12.055   3.304  12.955  0.0807  1.1958  0.5154
49038SOL     OW64723   4.521   0.932  13.080  0.5471  0.2763 -0.2052
49038SOL    HW164724   4.462   0.948  13.154  0.9248  0.0081  0.1616
49038SOL    HW264725   4.591   0.879  13.117  1.0605  0.6583 -0.6205
49039SOL     OW64726  10.229  13.521   0.436 -0.3652 -0.2290  0.0254
49039SOL    HW164727  10.280  13.547   0.513 -2.7253  0.1550  1.5915
49039SOL    HW264728  10.140  13.509   0.470 -1.2995 -1.0524 -2.4932
49040SOL     OW64729   8.111   1.730  13.440 -0.4334  0.8855  0.1612
49040SOL    HW164730   8.082   1.736  13.349 -1.5775  0.8613  0.5132
49040SOL    HW264731   8.196   1.775  13.441  1.2538 -1.9182 -1.5858
49041SOL     OW64732  12.145  13.958  10.989  0.2677 -0.3983  0.2505
49041SOL    HW164733  12.185  13.884  10.943  0.6689 -0.3110  0.4573
49041SOL    HW264734  12.141  14.028  10.923 -0.1060 -0.6009  0.0569
49042SOL     OW64735   0.923   7.369   4.390 -0.8792 -0.1022  0.6559
49042SOL    HW164736   0.895   7.452   4.350  0.0466  0.9275  2.0454
49042SOL    HW264737   0.959   7.395   4.474 -0.6028 -1.9560  1.1350
49043SOL     OW64738   7.369   7.447   4.173  0.0391 -0.3803  0.9079
49043SOL    HW164739   7.304   7.516   4.157 -0.7255 -0.3250  3.8118
49043SOL    HW264740   7.324   7.366   4.150  0.1870 -0.1176 -0.4035
49044SOL     OW64741   7.757  13.159  13.005 -0.1362  0.1694  0.2452
49044SOL    HW164742   7.808  13.171  13.086 -1.0817 -0.4180  0.9488
49044SOL    HW264743   7.684  13.103  13.031  0.0544 -0.8025 -1.2456
49045SOL     OW64744   4.986   3.308   9.923 -0.1242 -0.2015  0.5435
49045SOL    HW164745   5.067   3.356   9.939 -0.9802  1.6929 -0.4538
49045SOL    HW264746   5.006   3.254   9.846  0.6963 -1.1035  1.3656
49046SOL     OW64747   8.694   9.480   7.980  0.2547  0.1761  0.5719
49046SOL    HW164748   8.637   9.444   7.912 -0.7542  1.7159  0.5690
49046SOL    HW264749   8.666   9.437   8.060 -2.3883  2.3523  0.9410
49047SOL     OW64750   9.215  11.222   1.914 -0.3802 -0.0668  0.4546
49047SOL    HW164751   9.170  11.140   1.893  0.8337 -0.4349 -0.9066
49047SOL    HW264752   9.225  11.266   1.829 -1.7216  1.9010  1.2626
49048SOL     OW64753   9.900   8.450   3.231  0.3327  0.1932 -0.4510
49048SOL    HW164754   9.882   8.442   3.137 -0.5541  0.0881 -0.2878
49048SOL    HW264755   9.821   8.492   3.267  1.0292  1.0518  0.1187
49049SOL     OW64756   6.300   4.065   2.942  0.1890  0.6367  0.5347
49049SOL    HW164757   6.382   4.110   2.963  1.7713 -1.4797 -0.6958
49049SOL    HW264758   6.267   4.035   3.026  1.4114  0.3477  0.9293
49050SOL     OW64759   4.679  10.565   2.887 -0.2805 -0.4845 -0.1141
49050SOL    HW164760   4.657  10.476   2.860  0.5761 -1.1700  1.3162
49050SOL    HW264761   4.771  10.575   2.861 -0.5583  0.2470 -0.8653
49051SOL     OW64762  12.258   6.861   1.863  0.1789 -0.2405  0.1569
49051SOL    HW164763  12.197   6.846   1.791 -1.5889 -1.3718  1.7789
49051SOL    HW264764  12.278   6.774   1.896  0.1730  0.2979  1.6435
49052SOL     OW64765  11.856   8.721   2.744  0.1403  0.4350  0.4869
49052SOL    HW164766  11.876   8.640   2.698  0.3151 -0.3519  1.8756
49052SOL    HW264767  11.877   8.791   2.682  1.3099 -0.5498 -0.2599
49053SOL     OW64768   0.208   7.911   1.575  0.0675  0.0325 -0.6334
49053SOL    HW164769   0.285   7.967   1.589 -0.7595  1.4141 -1.3773
49053SOL    HW264770   0.148   7.937   1.645 -0.2204 -0.1295 -0.8222
49054SOL     OW64771  12.253   1.772   6.108 -0.3754  0.1214  0.2797
49054SOL    HW164772  12.330   1.770   6.165 -0.1934 -0.0728  0.0332
49054SOL    HW264773  12.179   1.766   6.167 -0.3134  2.5533  0.7374
49055SOL     OW64774   7.627   8.482  13.765 -0.0309 -0.2048  0.2468
49055SOL    HW164775   7.646   8.409  13.824 -1.3829 -0.6326  0.1719
49055SOL    HW264776   7.574   8.445  13.696 -0.3564  0.7603 -0.0382
49056SOL     OW64777   5.720   0.902  13.112  0.2434 -0.5792  0.3476
49056SOL    HW164778   5.632   0.939  13.125  0.3311  0.2801 -1.2449
49056SOL    HW264779   5.747   0.936  13.027  1.4497 -2.1892  0.0527
49057SOL     OW64780   5.920   8.460   2.071 -0.3940  0.4360  0.2031
49057SOL    HW164781   5.932   8.367   2.090 -0.4571  0.4283  0.2057
49057SOL    HW264782   6.007   8.492   2.049 -0.4715  0.2442 -0.3883
49058SOL     OW64783  10.779   5.354  12.766  0.6898 -0.0647  0.2775
49058SOL    HW164784  10.715   5.287  12.790  0.8123  0.2394  1.5567
49058SOL    HW264785  10.771   5.420  12.835  1.3946  0.6663 -0.3184
49059SOL     OW64786  10.381  11.359  13.939  0.1130 -0.6907  0.8545
49059SOL    HW164787  10.307  11.310  13.903  0.2856 -0.8177  0.6721
49059SOL    HW264788  10.425  11.397  13.863 -0.9807  1.1553  1.0757
49060SOL     OW64789   4.757  10.113   0.430  0.0667 -0.2820 -0.3588
49060SOL    HW164790   4.731  10.189   0.377 -0.6577 -0.3116 -0.0636
49060SOL    HW264791   4.701  10.042   0.399 -0.3074 -0.3201  0.3745
49061SOL     OW64792   0.876   1.903   0.577 -0.1824 -0.2868  0.0538
49061SOL    HW164793   0.822   1.831   0.545 -0.0039 -0.8459  0.9787
49061SOL    HW264794   0.862   1.903   0.671 -0.1971  0.9158  0.0580
49062SOL     OW64795   9.114  10.549  13.630  0.2078  0.2967 -0.0110
49062SOL    HW164796   9.130  10.631  13.677  0.0236  0.9203 -1.0248
49062SOL    HW264797   9.202  10.517  13.609  0.2674  0.4879 -0.0545
49063SOL     OW64798   5.225  12.064  10.821  0.1332  0.5193 -0.4503
49063SOL    HW164799   5.203  12.135  10.761  0.9196  0.3755 -0.9157
49063SOL    HW264800   5.149  12.005  10.818 -1.0100  1.8523  0.7617
49064SOL     OW64801   5.770   1.011   8.727 -0.3408  0.8790  0.4478
49064SOL    HW164802   5.676   0.995   8.731  0.0463 -1.7981  0.5543
49064SOL    HW264803   5.778   1.106   8.723 -3.0685  1.1477 -0.4549
49065SOL     OW64804   7.762   5.824  12.365  0.1790 -0.5289 -0.0432
49065SOL    HW164805   7.684   5.814  12.310 -0.0245 -0.0796  0.1595
49065SOL    HW264806   7.835   5.812  12.305 -0.0127 -2.9025  0.0996
49066SOL     OW64807   1.101   5.036   5.520 -0.1801 -0.1009  0.2251
49066SOL    HW164808   1.175   4.983   5.549 -0.2671 -0.1885  0.2867
49066SOL    HW264809   1.024   4.995   5.560 -0.1763  0.4900  0.8542
49067SOL     OW64810  13.303   8.056   1.492 -0.0463 -0.3364  0.0622
49067SOL    HW164811  13.370   8.011   1.440 -0.1017 -0.4220  0.0650
49067SOL    HW264812  13.226   8.058   1.435  0.1903  0.4680 -0.2453
49068SOL     OW64813  13.489   6.856  11.640  0.0070  0.2695  0.0096
49068SOL    HW164814  13.417   6.917  11.655  0.2130  0.9970 -1.7224
49068SOL    HW264815  13.446   6.773  11.620 -0.2844  0.0615  1.3833
49069SOL     OW64816   3.557   9.618  10.039 -0.0785  0.0255 -0.8261
49069SOL    HW164817   3.472   9.656  10.062 -0.2762 -0.0085 -1.4879
49069SOL    HW264818   3.537   9.530  10.010 -0.1443  0.8072 -3.3824
49070SOL     OW64819   5.543   5.730  13.571  0.2204  0.0202  0.1612
49070SOL    HW164820   5.458   5.719  13.529 -0.0861 -1.2138  1.0422
49070SOL    HW264821   5.594   5.783  13.510 -0.2012 -1.7086 -1.7581
49071SOL     OW64822   7.131   0.558   0.714 -0.0681  0.0103 -0.6331
49071SOL    HW164823   7.159   0.486   0.657 -1.6983 -1.0885 -0.1184
49071SOL    HW264824   7.090   0.621   0.655 -1.5414 -1.0144 -0.7607
49072SOL     OW64825   4.864   2.175  11.710 -0.1314  0.1541 -0.3979
49072SOL    HW164826   4.919   2.208  11.639  0.5465  0.9271  0.4691
49072SOL    HW264827   4.826   2.254  11.749  2.0391  0.0618  2.1482
49073SOL     OW64828   0.580   9.036   6.765  0.5669 -0.5295  0.1789
49073SOL    HW164829   0.604   9.076   6.848 -0.2207 -0.3868  0.3509
49073SOL    HW264830   0.626   9.088   6.699  1.0700 -0.5440  0.5158
49074SOL     OW64831   0.961  14.002   8.939  0.0897 -0.1629 -0.0560
49074SOL    HW164832   0.898  14.008   8.867  0.2646 -0.7921 -0.2668
49074SOL    HW264833   0.927  14.061   9.006 -0.9834 -0.8695  0.0329
49075SOL     OW64834   8.785   0.403   6.040  0.2045  0.2821  0.1682
49075SOL    HW164835   8.832   0.319   6.038 -0.1753  0.0349  1.2026
49075SOL    HW264836   8.702   0.383   6.083  0.4361  1.3530  1.1536
49076SOL     OW64837   9.863   0.235   8.241  0.0027 -0.1502 -0.1483
49076SOL    HW164838   9.949   0.194   8.253  0.5678  0.9491 -0.3774
49076SOL    HW264839   9.825   0.188   8.166  0.9276  0.1796 -0.8433
49077SOL     OW64840   0.833  11.473   0.967  0.7287  0.3386  0.3401
49077SOL    HW164841   0.891  11.407   0.929  1.2991  1.8004 -1.4460
49077SOL    HW264842   0.893  11.535   1.009  0.1892 -0.3079  2.1699
49078SOL     OW64843  11.042   4.936   5.622 -0.1887  0.8934  0.0262
49078SOL    HW164844  10.964   4.935   5.567  0.2684 -1.6893 -0.6767
49078SOL    HW264845  11.014   4.900   5.705  0.3208 -0.4766 -0.3766
49079SOL     OW64846   2.858   3.784   6.405  0.3956  0.6727  0.4607
49079SOL    HW164847   2.807   3.826   6.336 -0.0705  1.6244  1.3537
49079SOL    HW264848   2.946   3.777   6.368 -0.1934 -0.3720 -0.8397
49080SOL     OW64849  10.349  13.040  10.520  0.0043  1.0274 -0.7269
49080SOL    HW164850  10.306  13.030  10.435 -3.5336  0.7503  0.9139
49080SOL    HW264851  10.308  13.117  10.559  2.6958  2.1199  0.2005
49081SOL     OW64852   9.182   9.956   3.576 -0.0967 -0.0790  0.0259
49081SOL    HW164853   9.243   9.962   3.503 -1.2387  1.9584 -0.8557
49081SOL    HW264854   9.095   9.955   3.535 -0.8155  2.3824  1.2867
49082SOL     OW64855   1.801  10.474  12.407  0.1780  0.4876  0.3866
49082SOL    HW164856   1.706  10.479  12.393  0.2348 -0.9954 -0.8051
49082SOL    HW264857   1.819  10.380  12.410  1.6307  0.7524  0.5918
49083SOL     OW64858   4.358   4.169  12.468  0.1099 -0.3873 -0.5729
49083SOL    HW164859   4.266   4.187  12.487 -0.5790 -1.6087 -2.4308
49083SOL    HW264860   4.392   4.252  12.434 -0.3584 -0.0008 -0.1114
49084SOL     OW64861  13.614   1.276   9.671 -0.1951  0.6179 -0.0443
49084SOL    HW164862  13.589   1.274   9.579 -1.3202  0.2099  0.2586
49084SOL    HW264863  13.556   1.213   9.714  2.2448 -1.3972  0.4939
49085SOL     OW64864   7.585  11.545   2.280 -0.4643  0.3681  0.2238
49085SOL    HW164865   7.636  11.465   2.295  0.0154  0.7121  0.4579
49085SOL    HW264866   7.650  11.611   2.256 -1.0451  0.2199 -1.9114
49086SOL     OW64867   0.039   4.352  14.034  0.4578  0.0089 -0.2009
49086SOL    HW164868   0.072   4.441  14.050  1.5973 -0.5571  0.7395
49086SOL    HW264869   0.027   4.315  14.122  0.8030 -1.0604 -0.5913
49087SOL     OW64870  10.586   5.162   1.684 -0.3815  0.1533 -0.4739
49087SOL    HW164871  10.668   5.212   1.677  0.8299 -1.4942  1.0354
49087SOL    HW264872  10.545   5.195   1.764  0.1846 -0.8367  0.2589
49088SOL     OW64873   0.699   1.035   6.853  0.1676 -0.4012  0.1565
49088SOL    HW164874   0.640   1.000   6.920  0.7443 -1.0418  0.3451
49088SOL    HW264875   0.647   1.035   6.773 -0.9072  1.4358  0.7845
49089SOL     OW64876  11.167   8.744   4.075  0.1183  0.1911 -0.2685
49089SOL    HW164877  11.184   8.703   4.159  1.4279  2.5274  0.7131
49089SOL    HW264878  11.197   8.680   4.010 -1.4990 -1.9114  0.9356
49090SOL     OW64879   8.715  11.333  12.010  0.5283  0.1370 -0.1413
49090SOL    HW164880   8.788  11.395  12.000  2.0493 -1.7782 -1.8431
49090SOL    HW264881   8.682  11.321  11.921 -0.5019 -0.6176  0.3248
49091SOL     OW64882  12.541   5.318   4.137 -0.0044  0.0884  0.2241
49091SOL    HW164883  12.500   5.253   4.079 -0.6156 -0.6719  1.4689
49091SOL    HW264884  12.555   5.271   4.219  2.4842  0.6261  0.1716
49092SOL     OW64885   4.404   6.194   2.180 -0.2071  0.2553  0.4585
49092SOL    HW164886   4.455   6.163   2.255  0.0672 -0.3882  0.0162
49092SOL    HW264887   4.347   6.262   2.216  1.9719  2.0799  0.7335
49093SOL     OW64888  10.933  12.760   8.515 -0.0227  0.4863 -0.1789
49093SOL    HW164889  10.870  12.782   8.446 -0.7167 -0.1832  0.2177
49093SOL    HW264890  10.885  12.776   8.597  0.3104 -0.0652  0.1304
49094SOL     OW64891  11.949   6.810   7.968 -0.3514 -0.4420  0.5537
49094SOL    HW164892  11.939   6.790   8.061  0.7386  1.1273  1.0390
49094SOL    HW264893  12.040   6.837   7.958 -0.2455 -1.2807 -1.1242
49095SOL     OW64894  10.779   9.719   5.654 -0.4750 -0.3594 -0.1874
49095SOL    HW164895  10.717   9.791   5.646 -2.0483 -1.6308  0.0125
49095SOL    HW264896  10.763   9.665   5.577 -1.3258 -1.9460  1.0423
49096SOL     OW64897   9.668   7.059   5.477 -0.1371  0.1787  0.5116
49096SOL    HW164898   9.579   7.053   5.513  0.0741  0.3608  1.0648
49096SOL    HW264899   9.708   7.132   5.524 -1.1252  3.1511 -2.7722
49097SOL     OW64900   7.037   2.277  13.261 -0.4813 -0.1831  0.0596
49097SOL    HW164901   7.005   2.352  13.312  0.3146 -0.1273  0.4970
49097SOL    HW264902   6.958   2.228  13.237 -1.2009  1.7153 -1.7350
49098SOL     OW64903   0.386  10.368  10.427  0.3599 -0.4348 -0.2200
49098SOL    HW164904   0.413  10.282  10.458  1.1920 -0.2009 -0.2882
49098SOL    HW264905   0.310  10.350  10.372  1.0212 -1.2243 -0.9058
49099SOL     OW64906   0.300  12.687   1.989  0.0555 -0.2945 -0.1567
49099SOL    HW164907   0.388  12.678   2.027  0.1112  0.0352 -0.2037
49099SOL    HW264908   0.289  12.781   1.977  0.2026 -0.4076 -1.3316
49100SOL     OW64909  13.633   6.534   6.611 -0.8368  0.0068  0.1940
49100SOL    HW164910  13.700   6.561   6.674 -0.5506 -1.8658  0.7265
49100SOL    HW264911  13.560   6.595   6.627 -0.6117 -0.1566  2.0661
49101SOL     OW64912  10.846  11.900  13.153  0.0754  0.3444  0.6150
49101SOL    HW164913  10.766  11.926  13.198 -0.9756  0.4435 -1.2223
49101SOL    HW264914  10.816  11.843  13.082  1.5090  1.3645 -0.8637
49102SOL     OW64915   4.852   2.528   6.569  0.5901 -0.7592  0.6589
49102SOL    HW164916   4.882   2.553   6.656  1.1167 -1.8425  0.7895
49102SOL    HW264917   4.767   2.571   6.560  0.3580 -0.9535  1.8575
49103SOL     OW64918  10.967   3.062  12.667  0.2201 -0.5461  0.5590
49103SOL    HW164919  10.996   3.145  12.706 -0.0445 -0.0068 -0.3730
49103SOL    HW264920  10.986   3.072  12.574  0.3277 -1.5994  0.4644
49104SOL     OW64921  10.864   6.307   0.637 -0.2005 -0.7164  0.6162
49104SOL    HW164922  10.804   6.309   0.562  0.8561 -0.2223 -0.2466
49104SOL    HW264923  10.890   6.398   0.650  2.0879 -1.1266 -0.4974
49105SOL     OW64924   1.293  13.937   3.046  0.2032  0.2989  0.2887
49105SOL    HW164925   1.383  13.928   3.079  0.7935  0.0584 -1.2943
49105SOL    HW264926   1.294  14.020   2.998 -0.8910  1.1160  1.6287
49106SOL     OW64927   6.707   8.392   2.053  0.0268  0.0242 -0.3698
49106SOL    HW164928   6.647   8.358   1.986 -0.1713 -0.0121 -0.1725
49106SOL    HW264929   6.741   8.314   2.096 -0.1273  0.0610 -0.1811
49107SOL     OW64930   4.032   6.100  10.504 -0.3923 -0.3310 -0.3261
49107SOL    HW164931   3.942   6.126  10.485 -0.1455 -0.5937 -1.9815
49107SOL    HW264932   4.040   6.108  10.599 -2.1539 -0.3024 -0.1571
49108SOL     OW64933  12.797  10.194   2.254 -0.2766  0.8083 -0.6535
49108SOL    HW164934  12.800  10.262   2.186 -0.7756 -0.6075 -2.1584
49108SOL    HW264935  12.719  10.144   2.234  1.2726 -1.6262 -1.0535
49109SOL     OW64936   5.111   4.424   6.034 -0.1005  0.1961  0.6516
49109SOL    HW164937   5.086   4.365   6.105 -1.5141  0.4897  0.4092
49109SOL    HW264938   5.113   4.511   6.075  0.6564  0.1760  0.6861
49110SOL     OW64939   1.335   7.261   7.518  0.2499 -0.2595  0.8545
49110SOL    HW164940   1.336   7.356   7.530 -0.7860 -0.0354 -0.6040
49110SOL    HW264941   1.301   7.227   7.601 -1.1322  0.7762  0.7578
49111SOL     OW64942  12.449  13.158   6.503  0.4075 -0.0095  0.3617
49111SOL    HW164943  12.515  13.104   6.546  1.0584  1.0185  0.6686
49111SOL    HW264944  12.374  13.099   6.493  0.5604 -0.5552  2.0591
49112SOL     OW64945   9.448  12.413   7.723  0.1432  0.4243 -0.4003
49112SOL    HW164946   9.428  12.485   7.782 -0.4045 -0.5042  0.5966
49112SOL    HW264947   9.380  12.348   7.741  1.0390 -0.6400 -0.7333
49113SOL     OW64948   0.315   0.720   4.281  0.0815  0.5372 -0.0446
49113SOL    HW164949   0.385   0.663   4.313 -1.4375 -1.2180  0.3453
49113SOL    HW264950   0.291   0.773   4.357  0.3158  0.4421  0.0974
49114SOL     OW64951   3.984   3.766   5.769 -0.5612  0.0168 -0.0004
49114SOL    HW164952   3.979   3.792   5.677  1.8145  1.2641  0.1480
49114SOL    HW264953   3.966   3.672   5.768 -3.3055  0.4453 -1.3317
49115SOL     OW64954   4.294   4.985   5.437 -0.2690  0.1114 -0.1430
49115SOL    HW164955   4.280   4.940   5.520  1.4022 -0.6630 -0.2538
49115SOL    HW264956   4.282   4.918   5.370 -3.2985  1.0645 -0.7394
49116SOL     OW64957  13.615   1.164   8.648 -0.1862 -0.5889  0.0576
49116SOL    HW164958  13.585   1.193   8.735  1.4116 -0.2376  0.5315
49116SOL    HW264959  13.663   1.083   8.665 -0.4937 -0.9191 -0.6180
49117SOL     OW64960   0.391   0.127   5.662  0.4592 -0.2686  0.4230
49117SOL    HW164961   0.443   0.208   5.659  1.3912 -0.8509  0.3266
49117SOL    HW264962   0.389   0.096   5.572 -2.0527  0.9261 -0.0238
49118SOL     OW64963   8.563   0.364   1.863 -0.2074 -1.0616  0.1843
49118SOL    HW164964   8.508   0.286   1.856 -1.8536  0.0761  0.0797
49118SOL    HW264965   8.518   0.420   1.927  0.8800 -0.1392  0.1740
49119SOL     OW64966  13.141   3.128   2.872 -0.2643  0.0302  0.7243
49119SOL    HW164967  13.222   3.086   2.842 -0.3789  0.8062 -0.7476
49119SOL    HW264968  13.141   3.213   2.829 -2.1638 -0.1985  0.2137
49120SOL     OW64969  12.625   0.382  13.867  0.6052  0.2351  0.3120
49120SOL    HW164970  12.556   0.343  13.921  1.1730 -1.4090 -0.1067
49120SOL    HW264971  12.619   0.476  13.886 -1.9826  0.2114  0.0066
49121SOL     OW64972   9.412  10.031   1.240 -0.2587 -0.0618  0.2187
49121SOL    HW164973   9.397  10.098   1.307  0.7607 -0.3432  0.7521
49121SOL    HW264974   9.370   9.953   1.275 -0.1096 -0.0969  0.3204
49122SOL     OW64975   9.196   6.533   9.196  0.1972 -0.3320  0.1865
49122SOL    HW164976   9.256   6.460   9.209 -0.1788 -0.5331  0.8571
49122SOL    HW264977   9.252   6.609   9.180  0.6886 -0.3028  1.8516
49123SOL     OW64978   1.116   3.589   6.039 -0.2304  0.5941 -0.2470
49123SOL    HW164979   1.056   3.619   6.106  0.9669  2.2318  0.1377
49123SOL    HW264980   1.186   3.654   6.037  0.6226 -0.2864 -1.9288
49124SOL     OW64981   1.003   1.309   3.116 -0.1626 -0.0884  0.6624
49124SOL    HW164982   1.046   1.385   3.154 -1.0797  0.4312  0.6763
49124SOL    HW264983   1.004   1.326   3.021 -1.4368  0.5395  0.7386
49125SOL     OW64984  13.306   8.886   5.869 -0.6770  0.1852 -0.2897
49125SOL    HW164985  13.296   8.844   5.954 -0.3691 -0.1592 -0.4178
49125SOL    HW264986  13.386   8.939   5.878  0.2224 -1.0336 -0.8190
49126SOL     OW64987   0.112   8.036   3.802  0.5585 -0.3013  0.1701
49126SOL    HW164988   0.045   7.973   3.778  1.0656 -0.9560  0.4226
49126SOL    HW264989   0.084   8.070   3.887 -0.5924  1.0965 -0.7220
49127SOL     OW64990   6.976   7.284   3.930 -0.4306 -0.2521 -0.2992
49127SOL    HW164991   6.988   7.282   3.835 -3.9474 -2.9940 -0.9129
49127SOL    HW264992   6.910   7.352   3.944 -0.1113 -0.0358  0.1815
49128SOL     OW64993   3.947  10.157  11.770 -0.5318 -0.0696 -0.4776
49128SOL    HW164994   3.857  10.165  11.738 -0.5454 -1.0678 -0.7049
49128SOL    HW264995   4.001  10.190  11.698 -0.6234 -1.2535 -1.1029
49129SOL     OW64996   6.251  11.325   2.994 -0.3848 -0.3351  0.3361
49129SOL    HW164997   6.346  11.310   2.996 -0.4088 -0.4511  1.5133
49129SOL    HW264998   6.213  11.240   2.975 -0.2459 -0.1954 -0.6126
49130SOL     OW64999   5.469  11.410  12.425  0.2995 -0.0637  0.2718
49130SOL    HW165000   5.407  11.367  12.366  0.0825 -2.2307  1.9489
49130SOL    HW265001   5.536  11.344  12.441  0.5490  0.5914  2.1402
49131SOL     OW65002   5.821  12.032   8.832 -0.3110 -0.1900 -0.2933
49131SOL    HW165003   5.894  11.978   8.863  0.8376  0.8882 -1.0106
49131SOL    HW265004   5.822  12.109   8.889 -2.1972 -1.0500  0.9885
49132SOL     OW65005  13.586  10.235   3.445 -0.0324  0.3605 -0.0209
49132SOL    HW165006  13.504  10.276   3.471 -1.1707 -1.8863  0.1644
49132SOL    HW265007  13.642  10.241   3.522 -0.2594  1.2609  0.0858
49133SOL     OW65008   5.761   1.310   8.699 -0.0665 -0.2898 -0.0090
49133SOL    HW165009   5.684   1.366   8.707 -0.3053 -0.3042 -1.8077
49133SOL    HW265010   5.835   1.371   8.692 -0.3778 -0.0754 -2.5323
49134SOL     OW65011   5.009  10.990   1.977 -0.6813  0.5990  0.3945
49134SOL    HW165012   5.001  10.924   1.909  0.6078 -0.6862  1.4414
49134SOL    HW265013   5.026  10.941   2.057  1.5953  2.1984  0.9986
49135SOL     OW65014  12.815   3.628   5.907 -0.2022 -0.6540  0.4767
49135SOL    HW165015  12.883   3.615   5.840 -1.2597 -0.5182 -0.6578
49135SOL    HW265016  12.858   3.681   5.974  1.3468 -2.0662  0.6551
49136SOL     OW65017   0.872   6.514   8.032 -0.2721  0.1288 -0.1236
49136SOL    HW165018   0.778   6.503   8.046 -0.3289  0.0457 -0.5505
49136SOL    HW265019   0.912   6.436   8.071 -0.3573  0.2925  0.2930
49137SOL     OW65020  13.682  12.794   0.284 -0.4143 -0.7209  0.2959
49137SOL    HW165021  13.657  12.727   0.348 -2.4659 -1.0003 -0.7100
49137SOL    HW265022  13.676  12.876   0.332  1.7126 -1.1462  1.4288
49138SOL     OW65023   1.104   4.388   1.755  0.6316  0.1676  0.2553
49138SOL    HW165024   1.020   4.426   1.783  0.8301  0.4713  0.4507
49138SOL    HW265025   1.154   4.381   1.837  0.8749  0.1904  0.1069
49139SOL     OW65026   1.204  11.439  13.006  0.4325 -0.5129 -0.3478
49139SOL    HW165027   1.198  11.445  13.102 -0.4251  1.1265 -0.4766
49139SOL    HW265028   1.161  11.517  12.974 -0.1673 -1.5209 -2.1365
49140SOL     OW65029  11.710   6.073   1.461 -0.7478 -0.0000 -0.3049
49140SOL    HW165030  11.648   6.087   1.390 -1.1253 -0.6569 -0.1057
49140SOL    HW265031  11.675   5.999   1.510 -1.4598  1.5163  1.6315
49141SOL     OW65032   3.817   7.812   2.274  0.0796 -0.2904 -0.6879
49141SOL    HW165033   3.797   7.895   2.319  2.0432  0.2119 -0.6680
49141SOL    HW265034   3.797   7.745   2.339  1.9938  0.3855  0.6786
49142SOL     OW65035   8.515  10.784   0.140  0.0602  0.1301  0.1986
49142SOL    HW165036   8.561  10.796   0.057  1.1144 -3.5122  0.0433
49142SOL    HW265037   8.565  10.836   0.203 -0.3269  2.3688 -1.2584
49143SOL     OW65038   1.882   7.844  10.992 -0.3775 -0.0506  0.0194
49143SOL    HW165039   1.972   7.844  11.022  0.0031 -1.8371 -0.9719
49143SOL    HW265040   1.832   7.809  11.067  0.3883 -3.1962 -0.7713
49144SOL     OW65041   0.273  13.968   0.568  0.9208  0.1089  0.1513
49144SOL    HW165042   0.206  14.027   0.603 -0.4834  0.1910 -2.4578
49144SOL    HW265043   0.344  14.027   0.541  1.6329  0.1153  1.9116
49145SOL     OW65044  13.511   7.388   9.535  0.1775  0.2600  0.0681
49145SOL    HW165045  13.570   7.314   9.545 -1.0196 -0.7339  0.0384
49145SOL    HW265046  13.423   7.350   9.540 -0.4720  1.6996  0.2096
49146SOL     OW65047   4.865   7.236  12.020 -0.3619 -0.2128  0.3483
49146SOL    HW165048   4.864   7.313  11.963 -2.6248  0.0127  0.6085
49146SOL    HW265049   4.791   7.183  11.990 -1.4031 -0.2801  2.7845
49147SOL     OW65050   1.921   5.495   4.811  0.5359  0.2802 -0.0715
49147SOL    HW165051   1.892   5.435   4.742 -0.8134  0.4495  0.3258
49147SOL    HW265052   2.017   5.496   4.803  0.4573 -0.3794 -1.3656
49148SOL     OW65053  12.158   6.069  14.064 -0.1903  0.2687  0.1147
49148SOL    HW165054  12.229   6.006  14.052 -0.8655 -0.2362 -1.5870
49148SOL    HW265055  12.182   6.143  14.008 -0.9450  0.1216 -0.4189
49149SOL     OW65056  11.389   6.084   7.428 -0.0741  0.5958  0.4569
49149SOL    HW165057  11.323   6.043   7.483 -0.0219  1.2489  1.0218
49149SOL    HW265058  11.365   6.177   7.427  1.6549  1.1194  1.9063
49150SOL     OW65059   2.193   7.767   8.628 -0.3709 -0.0122 -0.5477
49150SOL    HW165060   2.190   7.846   8.575  0.2393  1.2428  1.2129
49150SOL    HW265061   2.149   7.701   8.574 -2.1882  1.8454 -1.5156
49151SOL     OW65062  14.003   3.845   8.222 -0.2067 -0.3707 -0.3238
49151SOL    HW165063  13.972   3.757   8.203 -0.6377  0.0919 -1.9202
49151SOL    HW265064  13.986   3.894   8.142 -0.0518  1.1880  0.5581
49152SOL     OW65065   7.832  11.690  11.567 -0.1320 -0.0722  0.1748
49152SOL    HW165066   7.810  11.727  11.481  0.4453  0.9384  0.4430
49152SOL    HW265067   7.804  11.757  11.629  3.1036  1.1024  0.5779
49153SOL     OW65068   1.378   7.386  11.812 -0.0021  0.1209 -0.4402
49153SOL    HW165069   1.320   7.322  11.770 -0.4463  0.1596  0.0877
49153SOL    HW265070   1.466   7.363  11.782 -0.3388  0.4189 -1.7164
49154SOL     OW65071   8.240   4.692   4.523  0.0206 -0.2769 -0.3104
49154SOL    HW165072   8.173   4.636   4.563 -0.1769 -2.2517 -3.0607
49154SOL    HW265073   8.323   4.650   4.547  0.0351 -0.1836 -0.1958
49155SOL     OW65074   4.009  13.977   4.305 -0.2936 -0.6221  0.1802
49155SOL    HW165075   3.943  14.045   4.292 -0.4708 -0.2365  2.6173
49155SOL    HW265076   3.976  13.901   4.256 -1.0209  0.4449 -1.0543
49156SOL     OW65077   8.381  10.206   2.036  0.0790 -0.4519  0.1248
49156SOL    HW165078   8.304  10.233   1.985 -0.5286 -2.0572  0.1122
49156SOL    HW265079   8.379  10.261   2.113 -0.1840  0.6066 -0.6161
49157SOL     OW65080  10.057  13.782  13.220  1.0477  0.4649 -0.7340
49157SOL    HW165081   9.992  13.852  13.219  1.7317  1.1304 -0.0538
49157SOL    HW265082  10.041  13.733  13.139 -0.6381  0.2712 -0.3208
49158SOL     OW65083   8.459   4.672  11.294 -0.1023 -0.3677  0.1362
49158SOL    HW165084   8.401   4.621  11.350  0.4638 -1.4948 -0.2886
49158SOL    HW265085   8.424   4.661  11.206 -0.1043  0.1657  0.0652
49159SOL     OW65086   6.376  12.760  14.078  0.2966 -0.6628  0.0043
49159SOL    HW165087   6.297  12.769  14.025 -1.2234  0.5437  2.3391
49159SOL    HW265088   6.378  12.668  14.102  1.3016 -1.3680 -2.4181
49160SOL     OW65089  11.706   0.920   9.141 -0.2632 -0.7950  0.1896
49160SOL    HW165090  11.720   0.872   9.222 -0.7261 -0.0120  0.7435
49160SOL    HW265091  11.717   1.012   9.164 -0.8338 -0.5268 -0.5277
49161SOL     OW65092  11.845   9.620   4.512  0.2191 -0.5870  0.0777
49161SOL    HW165093  11.773   9.669   4.551  0.4590  0.5569 -0.8431
49161SOL    HW265094  11.924   9.662   4.546  0.4488 -1.2446  0.3671
49162SOL     OW65095   9.075   2.418   0.294 -0.1647 -0.1828 -0.3143
49162SOL    HW165096   9.045   2.371   0.371 -0.8574  0.5498 -0.1258
49162SOL    HW265097   9.140   2.481   0.327 -1.9087  1.5442  0.0293
49163SOL     OW65098   5.037   8.833  13.963  0.0070 -0.0408  0.0867
49163SOL    HW165099   5.056   8.740  13.961  0.5988  0.0579  0.6070
49163SOL    HW265100   5.070   8.866  13.879  0.6589 -0.1517  0.2925
49164SOL     OW65101   5.480   1.159   8.739  0.1397  0.1661  0.3118
49164SOL    HW165102   5.404   1.217   8.739  1.3984  1.9176  1.6060
49164SOL    HW265103   5.516   1.168   8.651 -0.8911 -0.3689 -0.1858
49165SOL     OW65104   5.516   1.962  10.895 -0.1324 -1.0638 -0.8585
49165SOL    HW165105   5.588   1.957  10.831  0.4107  0.8203 -0.4763
49165SOL    HW265106   5.529   1.887  10.952  2.5442  0.0226  0.1329
49166SOL     OW65107  12.372  11.894   7.536 -0.7616  0.2039  0.2815
49166SOL    HW165108  12.308  11.884   7.465  0.1257  0.5279 -0.5815
49166SOL    HW265109  12.348  11.976   7.579 -1.7116 -0.3288  0.7973
49167SOL     OW65110  12.109   5.259   7.019 -0.0414  0.1161  0.2859
49167SOL    HW165111  12.154   5.250   7.103  1.5123  0.2162 -0.5038
49167SOL    HW265112  12.162   5.322   6.970 -0.4266 -0.5935 -1.0900
49168SOL     OW65113  11.487   6.300   0.197 -0.4423  0.4110 -0.1952
49168SOL    HW165114  11.447   6.236   0.139 -1.6842  1.3851 -0.4880
49168SOL    HW265115  11.544   6.250   0.255 -0.9750 -0.8695 -0.7565
49169SOL     OW65116  10.717  12.495  12.634  0.2382  0.0431  0.1944
49169SOL    HW165117  10.745  12.584  12.655 -2.4909  1.9344 -3.0592
49169SOL    HW265118  10.792  12.456  12.589  0.4429  2.0070 -1.3020
49170SOL     OW65119  10.027   5.515  14.049  0.2674 -0.4978  0.4700
49170SOL    HW165120  10.080   5.436  14.035  1.4247  0.6080 -2.0975
49170SOL    HW265121   9.937   5.487  14.030  0.7369 -1.1120 -1.0190
49171SOL     OW65122   7.475   1.937  10.059 -0.7965 -0.3990 -0.4886
49171SOL    HW165123   7.447   1.895   9.978 -0.3141 -0.5394 -0.5831
49171SOL    HW265124   7.569   1.951  10.048 -0.7908 -0.1119 -0.0915
49172SOL     OW65125   2.351   5.299   3.160  0.2542 -0.3000 -0.0484
49172SOL    HW165126   2.281   5.357   3.131  1.5648 -0.0124 -2.9663
49172SOL    HW265127   2.400   5.351   3.224 -0.8031  0.3560  0.2543
49173SOL     OW65128  13.803  11.459   6.775 -0.4525  0.0416  0.0669
49173SOL    HW165129  13.854  11.383   6.804 -0.1244  0.0031 -0.5911
49173SOL    HW265130  13.854  11.496   6.703 -0.0347  1.5497  1.0904
49174SOL     OW65131  13.484  13.967   2.993  0.2022  0.0947  0.4809
49174SOL    HW165132  13.579  13.974   3.008  0.4321 -1.5316 -0.0030
49174SOL    HW265133  13.445  14.005   3.071  1.2164  2.0879  0.0795
49175SOL     OW65134   3.347   5.234   1.399 -0.0510  0.1131 -0.2169
49175SOL    HW165135   3.431   5.188   1.396 -0.3014 -0.2790 -2.4919
49175SOL    HW265136   3.328   5.242   1.493  1.7889 -1.1168  0.3165
49176SOL     OW65137   3.901  11.460   8.213  0.3443  0.1226  0.2144
49176SOL    HW165138   3.939  11.547   8.219  1.4321 -0.2179 -1.2011
49176SOL    HW265139   3.893  11.431   8.304  1.1234  1.2135  0.6461
49177SOL     OW65140  10.398   5.554   1.849 -0.2731  0.1421  0.4221
49177SOL    HW165141  10.309   5.546   1.815  0.4163  2.5317 -2.2504
49177SOL    HW265142  10.389   5.607   1.928 -1.2241  0.0653  0.3763
49178SOL     OW65143   0.796  10.080   4.199  0.7501  0.0164  0.1000
49178SOL    HW165144   0.874  10.133   4.214 -1.5744  4.3209 -1.2609
49178SOL    HW265145   0.757  10.069   4.285  0.8006  1.4888  0.3354
49179SOL     OW65146   9.538   3.438   8.544  0.1518 -0.8415 -0.7051
49179SOL    HW165147   9.561   3.489   8.466  1.0200 -0.6729 -0.3423
49179SOL    HW265148   9.479   3.495   8.593  0.2285 -0.6313 -0.8554
49180SOL     OW65149   4.704  13.025   5.552  0.4872 -0.0619 -0.0297
49180SOL    HW165150   4.776  13.089   5.553  1.7146 -1.3182 -2.1394
49180SOL    HW265151   4.656  13.045   5.472  0.0573 -0.8920  0.0140
49181SOL     OW65152  10.880   5.856  10.159 -0.2889 -0.0282 -0.1811
49181SOL    HW165153  10.886   5.822  10.070  0.9746 -3.1446  0.9537
49181SOL    HW265154  10.937   5.933  10.159 -0.1939 -0.0527 -1.9834
49182SOL     OW65155   8.812   6.592   4.395  0.0351  0.5301  0.2798
49182SOL    HW165156   8.719   6.614   4.396  0.2625  1.8217 -1.6184
49182SOL    HW265157   8.824   6.544   4.313  0.7976 -0.9533  1.2205
49183SOL     OW65158   8.331  11.612   0.481 -0.1054 -0.2737 -0.0976
49183SOL    HW165159   8.399  11.679   0.478  0.0992 -0.4780 -0.0733
49183SOL    HW265160   8.368  11.543   0.537 -0.9048  0.2484  1.1094
49184SOL     OW65161   0.336   9.630   4.550  0.1091 -0.0104 -0.0230
49184SOL    HW165162   0.423   9.641   4.589  0.3741 -2.6389  0.3148
49184SOL    HW265163   0.293   9.565   4.605 -1.3789 -0.1642 -1.2935
49185SOL     OW65164   5.761   0.393  10.740 -0.1636  0.1822  0.1388
49185SOL    HW165165   5.841   0.446  10.736  0.1432 -0.2783  0.1734
49185SOL    HW265166   5.789   0.304  10.719 -0.7781  0.1328 -0.5382
49186SOL     OW65167   6.141  13.863  13.042  0.2655  0.1741 -0.3749
49186SOL    HW165168   6.100  13.808  12.976 -0.4141  0.0296  0.1567
49186SOL    HW265169   6.161  13.804  13.115  2.0400  0.1106 -0.8685
49187SOL     OW65170  11.927  13.599   7.280 -0.1901 -0.2513  0.6750
49187SOL    HW165171  11.882  13.665   7.332  0.7083 -0.2646  1.5190
49187SOL    HW265172  11.889  13.516   7.310  1.6617 -0.4348  2.8646
49188SOL     OW65173  13.022   3.320   5.245 -0.3112 -0.3327 -0.2288
49188SOL    HW165174  12.988   3.389   5.303 -1.7050 -1.6277  0.5735
49188SOL    HW265175  12.993   3.239   5.286  1.1461 -1.4020 -1.2438
49189SOL     OW65176  14.056   2.977   0.416  0.6411 -0.1622  0.1821
49189SOL    HW165177  13.990   2.935   0.359 -0.2387  0.1167  0.9669
49189SOL    HW265178  14.054   2.925   0.496 -1.9573  2.4030  2.0130
49190SOL     OW65179  11.324   8.023   7.894 -0.3134  0.1762  0.0495
49190SOL    HW165180  11.302   7.963   7.823  0.4933  0.2413 -0.2701
49190SOL    HW265181  11.420   8.029   7.891  0.1000 -2.3338  3.1551
49191SOL     OW65182  12.440   5.967   3.917 -0.2199  0.2159  0.5330
49191SOL    HW165183  12.371   6.027   3.944 -0.1444  0.0779  1.0405
49191SOL    HW265184  12.408   5.881   3.944  0.6705  0.2724  1.8764
49192SOL     OW65185   6.434   8.289   1.063 -0.2772 -0.2733 -0.3347
49192SOL    HW165186   6.509   8.230   1.071  0.3995  0.5911 -0.0826
49192SOL    HW265187   6.388   8.258   0.985  1.7142  0.6153 -1.9818
49193SOL     OW65188   0.685   1.218   0.414  0.3115  1.1375  0.1181
49193SOL    HW165189   0.645   1.144   0.369  0.7353  0.8690  0.1778
49193SOL    HW265190   0.746   1.178   0.476  1.3274  1.5562 -0.5882
49194SOL     OW65191   8.265   3.519  11.299 -0.3855  0.1104  0.4024
49194SOL    HW165192   8.263   3.608  11.263  0.4099  0.4007  1.0248
49194SOL    HW265193   8.178   3.505  11.336 -0.8199  0.2632 -0.5366
49195SOL     OW65194   7.564   1.892  13.406 -0.5305 -0.5142 -0.2409
49195SOL    HW165195   7.555   1.798  13.422 -0.8772 -0.5086 -0.3874
49195SOL    HW265196   7.634   1.899  13.341  0.8470 -0.5421  1.1789
49196SOL     OW65197  13.728  13.807   5.981  0.1649  0.0335  0.2271
49196SOL    HW165198  13.732  13.865   6.058 -1.2402  0.5941 -0.0858
49196SOL    HW265199  13.804  13.832   5.928  0.5941  0.3223  0.9669
49197SOL     OW65200   5.688   6.403   8.795  0.4779 -0.3971  0.2562
49197SOL    HW165201   5.751   6.471   8.771  0.9334 -1.0371 -0.4164
49197SOL    HW265202   5.741   6.324   8.803  0.2114 -0.4051  2.5852
49198SOL     OW65203   2.160   2.045   8.336 -1.1068 -0.0862  0.4120
49198SOL    HW165204   2.083   2.030   8.391 -1.9194  0.6566 -0.4817
49198SOL    HW265205   2.139   2.124   8.287 -0.1183 -0.3481 -0.4706
49199SOL     OW65206   7.982   8.863   3.381  0.2737  0.0036  0.0312
49199SOL    HW165207   7.978   8.847   3.475 -1.2567  0.5432  0.0783
49199SOL    HW265208   7.893   8.888   3.356  0.5494 -0.5342 -1.6426
49200SOL     OW65209   2.527  13.721   7.234 -0.1238  0.3738 -0.3561
49200SOL    HW165210   2.547  13.814   7.224  0.1374  0.4480  0.7364
49200SOL    HW265211   2.431  13.718   7.236 -0.1529  0.5197 -1.1956
49201SOL     OW65212   7.083   0.432   6.566  0.1550  0.3053 -0.2168
49201SOL    HW165213   7.123   0.427   6.653 -0.1746 -2.3072 -0.1563
49201SOL    HW265214   7.125   0.508   6.525  0.9055  1.1135  1.8995
49202SOL     OW65215   3.742   1.294   7.482 -0.1544  0.4637  0.0373
49202SOL    HW165216   3.693   1.306   7.564 -0.1205 -0.1615  0.1553
49202SOL    HW265217   3.702   1.217   7.442 -0.7245  1.2445 -0.9488
49203SOL     OW65218  13.567  13.121  13.002  0.0463  0.4149  0.2072
49203SOL    HW165219  13.653  13.127  12.959  0.8305  0.3375  1.6800
49203SOL    HW265220  13.588  13.089  13.090 -1.5675 -0.1419  0.4119
49204SOL     OW65221   8.993  10.807   8.494  0.2633  0.0428 -0.4634
49204SOL    HW165222   9.060  10.748   8.528  0.9318  0.4127 -1.1130
49204SOL    HW265223   9.021  10.826   8.404 -0.4157  0.6464 -0.5555
49205SOL     OW65224   1.668   9.677   6.443 -0.0289 -0.0738  0.3837
49205SOL    HW165225   1.731   9.638   6.383 -1.3245 -0.1022 -1.0288
49205SOL    HW265226   1.653   9.765   6.408  0.7507  0.7099  1.9092
49206SOL     OW65227   1.180   1.920  11.161  0.3904  0.7075  0.6867
49206SOL    HW165228   1.221   2.006  11.169 -1.8861  1.8508  0.8526
49206SOL    HW265229   1.158   1.895  11.250 -0.3274  0.6947  0.5176
49207SOL     OW65230   9.849  13.103   9.046 -0.0660  0.1440  0.3640
49207SOL    HW165231   9.778  13.163   9.022  0.4863  1.0977  1.0208
49207SOL    HW265232   9.929  13.156   9.037  0.8026 -1.4052 -2.1403
49208SOL     OW65233   8.116   6.906   7.513 -0.2225  0.0619  0.0603
49208SOL    HW165234   8.082   6.909   7.424  1.8492  1.2068 -0.7434
49208SOL    HW265235   8.061   6.968   7.562 -1.1186 -0.2826 -0.4790
49209SOL     OW65236   2.065   8.291   0.613 -0.4302 -0.0238  0.1828
49209SOL    HW165237   2.136   8.348   0.642 -0.7146  0.1643  0.5052
49209SOL    HW265238   2.109   8.209   0.590  0.2385  0.8611 -1.9810
49210SOL     OW65239   3.208   5.037  11.347  0.2543 -0.2665 -0.1458
49210SOL    HW165240   3.248   5.031  11.261  1.0956 -3.4321  0.3451
49210SOL    HW265241   3.234   4.956  11.392 -2.0191  0.1795  2.2687
49211SOL     OW65242  12.372  13.841  10.843 -0.2630 -0.2198  0.7680
49211SOL    HW165243  12.455  13.888  10.853  0.1348 -0.8776  0.5925
49211SOL    HW265244  12.367  13.785  10.920 -1.4466  1.1645  1.7486
49212SOL     OW65245  11.535   3.591   2.464  0.1491  0.2007  0.1025
49212SOL    HW165246  11.573   3.653   2.402  1.5025 -0.4173  0.2963
49212SOL    HW265247  11.454   3.634   2.493  1.3525  2.1952  0.7127
49213SOL     OW65248   5.471  10.279   6.709 -0.2622  0.0454  0.1154
49213SOL    HW165249   5.540  10.298   6.645 -0.4145 -0.9345 -0.3568
49213SOL    HW265250   5.420  10.208   6.670  0.3525 -1.4220  1.8050
49214SOL     OW65251   3.762   6.030  11.528 -0.1469 -0.1600  0.2783
49214SOL    HW165252   3.801   6.063  11.609  0.0344  1.0822 -0.2967
49214SOL    HW265253   3.824   6.055  11.459  0.5050 -2.5792 -0.1145
49215SOL     OW65254   7.663  11.329   8.971 -0.0451 -0.6981  0.5139
49215SOL    HW165255   7.755  11.307   8.957  0.1050  0.7799 -1.1339
49215SOL    HW265256   7.615  11.259   8.927  0.3286 -0.6839  0.0763
49216SOL     OW65257  12.803   8.076   2.393  0.3132 -0.5870  0.5887
49216SOL    HW165258  12.854   8.143   2.439 -1.4047  0.3325  1.2276
49216SOL    HW265259  12.803   8.105   2.302 -3.2825  2.4205  1.2759
49217SOL     OW65260  11.072   4.387  13.828  0.0747 -0.0904  0.2482
49217SOL    HW165261  11.108   4.393  13.739  0.2666 -0.6273  0.2838
49217SOL    HW265262  11.088   4.296  13.854  0.4137  0.1754  1.0001
49218SOL     OW65263   6.174   3.722   4.131 -0.3955  0.1767  0.8437
49218SOL    HW165264   6.164   3.817   4.137  0.6554  0.2839  1.1091
49218SOL    HW265265   6.221   3.708   4.048 -0.5373 -0.1134  0.8108
49219SOL     OW65266  13.850  10.685   6.151 -0.1354  0.3400 -0.6174
49219SOL    HW165267  13.786  10.623   6.187 -0.4906  0.9342 -0.2116
49219SOL    HW265268  13.925  10.630   6.126 -0.4126 -0.2406 -0.1910
49220SOL     OW65269   6.856  10.854   4.535 -0.3707 -0.1081 -0.1322
49220SOL    HW165270   6.942  10.867   4.574 -0.4339 -0.5625  0.1689
49220SOL    HW265271   6.797  10.908   4.587 -0.0242  1.5314 -1.3731
49221SOL     OW65272   6.197   4.559  13.041 -0.0462 -0.3021 -0.5562
49221SOL    HW165273   6.221   4.469  13.019 -1.8604 -0.7613 -0.9009
49221SOL    HW265274   6.127   4.580  12.979  0.9802  1.7123 -1.1124
49222SOL     OW65275   9.297   3.548   8.205 -0.5874  0.0282  0.6368
49222SOL    HW165276   9.278   3.601   8.127  1.4532 -0.7221 -0.4412
49222SOL    HW265277   9.337   3.609   8.267 -0.6237  0.2754  0.4180
49223SOL     OW65278   4.873  11.598   2.286  0.0908  0.2880  0.4595
49223SOL    HW165279   4.875  11.601   2.191 -0.3447  0.2219  0.4456
49223SOL    HW265280   4.906  11.510   2.308 -0.8692 -0.1197  0.3220
49224SOL     OW65281  11.692   6.090   6.722  0.0526 -0.2312  0.4604
49224SOL    HW165282  11.626   6.054   6.662 -0.6954 -0.7179  1.5445
49224SOL    HW265283  11.698   6.183   6.698 -0.7256 -0.2716  0.0777
49225SOL     OW65284   2.260   1.466   1.575 -0.2487  0.3056 -0.0084
49225SOL    HW165285   2.272   1.459   1.480  0.2816  0.7548  0.0185
49225SOL    HW265286   2.169   1.492   1.585 -0.4073 -0.0973 -0.3811
49226SOL     OW65287  11.594   7.960  11.981 -0.0813 -0.4590 -0.1818
49226SOL    HW165288  11.499   7.971  11.973 -0.1723 -0.4612  0.7989
49226SOL    HW265289  11.618   7.907  11.905 -0.9779 -1.1240 -0.0218
49227SOL     OW65290   2.240   4.994   2.907 -0.3463  0.6386  0.4203
49227SOL    HW165291   2.199   4.907   2.900  0.6148 -0.0489  2.5154
49227SOL    HW265292   2.318   4.989   2.852 -1.9359  1.3206 -2.0542
49228SOL     OW65293  12.801   9.200   8.664 -0.7306  0.1814 -0.4784
49228SOL    HW165294  12.740   9.153   8.606 -1.6201 -0.2790  0.7881
49228SOL    HW265295  12.864   9.134   8.690 -1.2412 -0.0118  0.2954
49229SOL     OW65296   0.481   1.786   3.482 -0.1834 -0.1146  0.4943
49229SOL    HW165297   0.502   1.848   3.412 -2.0127  0.0072  0.0101
49229SOL    HW265298   0.549   1.718   3.475  0.7052  0.8166 -0.2128
49230SOL     OW65299  10.993   1.123  12.713 -0.0434  0.6002 -0.5420
49230SOL    HW165300  11.022   1.150  12.626 -1.5977  1.6486 -0.7659
49230SOL    HW265301  10.962   1.034  12.702  2.0660 -0.2108 -0.4922
49231SOL     OW65302   9.546  13.536   7.254 -0.2229  0.6161 -0.4304
49231SOL    HW165303   9.477  13.566   7.315 -0.5412 -2.0454  0.6420
49231SOL    HW265304   9.499  13.487   7.187  0.4652  0.5711 -0.8892
49232SOL     OW65305   9.033  13.847   9.757 -0.3248 -0.3349 -0.2956
49232SOL    HW165306   9.032  13.894   9.674 -0.4378  0.5912  0.2181
49232SOL    HW265307   9.124  13.849   9.785 -0.5389  0.7585  0.3688
49233SOL     OW65308  11.430   1.896  11.011  0.0955 -0.5573  0.5142
49233SOL    HW165309  11.384   1.871  11.090 -0.1405 -0.7687  0.3133
49233SOL    HW265310  11.439   1.814  10.961 -0.6660 -0.2534 -0.1453
49234SOL     OW65311   9.479   4.749  12.858 -0.1157  0.4455  0.0748
49234SOL    HW165312   9.561   4.715  12.894 -0.5962 -2.3881 -1.2565
49234SOL    HW265313   9.413   4.726  12.924 -0.3279 -0.5984 -0.4807
49235SOL     OW65314   4.626   9.202   0.404  0.1079  0.2185  0.3121
49235SOL    HW165315   4.614   9.138   0.334 -0.1125  0.5968  0.0019
49235SOL    HW265316   4.547   9.256   0.402  0.5370  0.8561  0.1985
49236SOL     OW65317   2.580   4.137  13.121  0.2662  0.2899 -0.0050
49236SOL    HW165318   2.577   4.116  13.214 -1.8366 -0.2171 -0.1289
49236SOL    HW265319   2.605   4.230  13.118  3.0252 -0.3304  0.8690
49237SOL     OW65320   3.323   3.828   1.905 -0.0451 -0.3802  0.1530
49237SOL    HW165321   3.335   3.819   1.999  0.2270  0.7789  0.2512
49237SOL    HW265322   3.238   3.872   1.896 -0.7205 -1.7174 -0.2145
49238SOL     OW65323   4.465   1.586  13.608  0.5800 -0.2073 -0.2031
49238SOL    HW165324   4.469   1.628  13.694 -3.1187  0.8710 -0.3813
49238SOL    HW265325   4.429   1.654  13.550  1.2465 -1.4731 -2.2112
49239SOL     OW65326   3.749   9.479   7.882  0.1503 -0.1333  0.2348
49239SOL    HW165327   3.739   9.418   7.809 -0.8588 -0.1504  0.3732
49239SOL    HW265328   3.842   9.504   7.880  1.1609 -3.3069  1.4906
49240SOL     OW65329  10.914   7.958  12.157  0.0242  0.4220 -0.1356
49240SOL    HW165330  10.915   7.944  12.062  0.2595  0.6838 -0.1735
49240SOL    HW265331  10.885   8.048  12.167 -0.4742  0.2408  0.0633
49241SOL     OW65332   9.216  10.172   0.440  0.3757 -0.5014  0.3877
49241SOL    HW165333   9.252  10.120   0.368 -0.2867 -0.5535  0.0793
49241SOL    HW265334   9.231  10.120   0.518  0.9280 -0.5383  0.2572
49242SOL     OW65335   5.047   1.447   1.226  0.4653 -0.2398  0.5519
49242SOL    HW165336   5.068   1.361   1.263  0.8656 -0.6695 -0.6128
49242SOL    HW265337   4.953   1.455   1.236  0.1258 -1.6715 -0.9821
49243SOL     OW65338   4.757   2.314   1.469 -0.4511 -0.1830 -0.2553
49243SOL    HW165339   4.719   2.361   1.395  0.1369 -0.1072 -0.5176
49243SOL    HW265340   4.850   2.306   1.447 -0.2776 -0.2015  0.4473
49244SOL     OW65341   4.271   3.509   0.172  0.0089 -0.3189  0.2978
49244SOL    HW165342   4.264   3.593   0.216 -1.8488  1.2721 -2.6731
49244SOL    HW265343   4.314   3.530   0.089 -1.5152 -2.0298 -1.0036
49245SOL     OW65344   5.495  12.214   8.716  0.3653 -0.0646  0.5993
49245SOL    HW165345   5.529  12.183   8.800 -0.7397 -1.8485  0.4461
49245SOL    HW265346   5.506  12.140   8.657 -0.8641  0.4011 -0.2578
49246SOL     OW65347   1.733  13.920  10.421 -0.1369 -0.3864  0.2105
49246SOL    HW165348   1.746  13.836  10.376  1.9861  1.1676 -2.3350
49246SOL    HW265349   1.669  13.966  10.367  0.1272  0.3465  0.5158
49247SOL     OW65350  10.352  12.244   8.807 -0.4889  0.0899  0.0125
49247SOL    HW165351  10.363  12.297   8.886 -1.7012 -0.5639  0.6631
49247SOL    HW265352  10.299  12.170   8.836  1.8465 -1.9731 -0.6452
49248SOL     OW65353   9.031   6.176   0.941 -0.1445 -0.1103 -0.1590
49248SOL    HW165354   9.065   6.111   1.004 -0.9293  0.0012  0.3848
49248SOL    HW265355   9.088   6.166   0.864  1.1196  0.0549  0.7145
49249SOL     OW65356   1.174  12.025  13.194  0.1999 -0.0648 -0.4547
49249SOL    HW165357   1.266  12.002  13.204  0.3869  1.1431  0.9999
49249SOL    HW265358   1.130  11.941  13.179  1.0928 -1.2165  2.5416
49250SOL     OW65359   0.898   2.906  12.653 -0.4871 -0.1108 -0.0159
49250SOL    HW165360   0.909   2.946  12.567 -0.2026 -0.3299 -0.0834
49250SOL    HW265361   0.939   2.820  12.644 -0.1306  0.0098  0.4485
49251SOL     OW65362   4.427   6.957   8.816 -0.7481 -0.2937 -0.2624
49251SOL    HW165363   4.384   6.995   8.739 -0.9732 -0.4404 -0.2115
49251SOL    HW265364   4.401   6.865   8.814  1.8414 -1.0951 -1.8448
49252SOL     OW65365  10.543  10.145  12.919  0.1392 -0.4302  0.1692
49252SOL    HW165366  10.549  10.104  12.833 -1.7031  0.7860 -0.5941
49252SOL    HW265367  10.578  10.233  12.907  0.9178 -0.6038  0.9775
49253SOL     OW65368  13.150   2.759  11.419 -0.0891 -0.6108  0.3244
49253SOL    HW165369  13.139   2.694  11.489  0.5910  2.2223  3.3057
49253SOL    HW265370  13.080   2.823  11.435 -0.0159  0.0681 -1.7624
49254SOL     OW65371  13.821   5.040  11.879 -0.0873 -0.2376  0.1567
49254SOL    HW165372  13.798   4.993  11.959 -1.4450  1.2661  0.7123
49254SOL    HW265373  13.768   5.119  11.882 -0.3983 -0.2615 -2.3743
49255SOL     OW65374   9.054   9.485   2.521  0.0877 -0.4570 -0.1496
49255SOL    HW165375   9.045   9.579   2.536 -0.4852 -0.7495  1.6176
49255SOL    HW265376   9.135   9.477   2.472 -0.1929  0.9992 -0.9240
49256SOL     OW65377  11.359  11.656   1.122 -0.2047  0.3086 -0.3210
49256SOL    HW165378  11.428  11.672   1.059 -0.5022 -2.4854 -1.5101
49256SOL    HW265379  11.294  11.724   1.105  0.9766  1.2940 -1.0593
49257SOL     OW65380  11.436  14.021   3.252  0.6724 -0.0640 -0.2285
49257SOL    HW165381  11.343  14.000   3.264  0.8072 -0.8511 -0.5099
49257SOL    HW265382  11.455  13.997   3.162  1.7221 -2.2007  0.5045
49258SOL     OW65383   3.300  11.943  10.826  0.1762  0.0648  0.3583
49258SOL    HW165384   3.206  11.929  10.825 -0.0235  1.3166  0.2492
49258SOL    HW265385   3.316  12.003  10.752  1.3246 -1.7039 -0.9125
49259SOL     OW65386   7.720   5.144   2.987  0.4043 -0.1199 -0.5098
49259SOL    HW165387   7.702   5.121   2.895  1.0009  0.7995 -0.8765
49259SOL    HW265388   7.705   5.239   2.990 -1.0830 -0.3541  0.7101
49260SOL     OW65389   5.339  12.177   9.691  0.4825  0.1665 -0.0625
49260SOL    HW165390   5.431  12.169   9.663  1.1753  1.1354  1.7644
49260SOL    HW265391   5.328  12.107   9.756  0.4406  1.0217  0.8841
49261SOL     OW65392   0.548  10.473   2.586 -0.4937  0.6326 -0.2724
49261SOL    HW165393   0.535  10.379   2.587  1.5756  0.2967 -0.5457
49261SOL    HW265394   0.470  10.508   2.543 -1.9596 -0.7967  1.1036
49262SOL     OW65395   0.275   9.009  13.511 -0.2717 -0.1482  0.3839
49262SOL    HW165396   0.255   9.040  13.600 -1.8164  1.8840 -0.6093
49262SOL    HW265397   0.332   9.077  13.474 -1.4679  0.1753 -0.9169
49263SOL     OW65398   0.927   5.618  12.430 -0.1058  0.0651  0.0853
49263SOL    HW165399   0.881   5.552  12.379 -0.9672  0.1768  0.7081
49263SOL    HW265400   0.950   5.575  12.512 -0.3669  0.4320  0.3548
49264SOL     OW65401   2.411  11.989   8.234 -0.3482  0.2236  0.2483
49264SOL    HW165402   2.484  11.928   8.226 -0.6552 -0.5012  2.4338
49264SOL    HW265403   2.448  12.074   8.209  0.8683 -0.3474  0.0391
49265SOL     OW65404  13.443   2.855   1.771 -0.3969  0.7476  0.0088
49265SOL    HW165405  13.532   2.867   1.736 -0.3032  0.7965  0.2594
49265SOL    HW265406  13.457   2.831   1.863 -0.5584 -1.1551 -0.4101
49266SOL     OW65407  12.521   8.863   7.307 -0.3078  0.8654  0.5782
49266SOL    HW165408  12.490   8.893   7.392 -1.7166  0.6992  0.1489
49266SOL    HW265409  12.480   8.922   7.244  0.6764  0.9576  0.0007
49267SOL     OW65410   7.286   0.254   5.926 -0.1983 -0.1687  0.3651
49267SOL    HW165411   7.315   0.279   6.013  1.0446 -0.9148  0.1920
49267SOL    HW265412   7.367   0.230   5.880 -1.0021 -1.3529 -0.4750
49268SOL     OW65413  13.242  13.719   3.971 -0.1834 -0.0240 -0.3571
49268SOL    HW165414  13.166  13.721   3.912 -0.7908  0.2618  0.4183
49268SOL    HW265415  13.228  13.792   4.032  1.1707  0.5956 -0.7385
49269SOL     OW65416   2.520   0.024  13.741  0.3880 -0.4322 -0.0575
49269SOL    HW165417   2.591   0.088  13.739  0.5855 -0.6493 -0.0854
49269SOL    HW265418   2.456   0.057  13.679  1.4112 -1.3194 -1.6739
49270SOL     OW65419   7.390   1.410   9.627 -0.6837 -0.1016  0.1237
49270SOL    HW165420   7.386   1.344   9.559 -3.0111 -0.5012  0.5361
49270SOL    HW265421   7.321   1.385   9.689 -0.7882  1.9972  0.9578
49271SOL     OW65422  13.075   0.271   4.635 -0.0009  0.4674 -0.0279
49271SOL    HW165423  13.137   0.293   4.704 -0.9067 -1.9456  1.6657
49271SOL    HW265424  13.121   0.206   4.581 -0.3454  0.1552  0.0517
49272SOL     OW65425   5.220  10.405   1.384  0.0641  0.0136  0.6277
49272SOL    HW165426   5.270  10.390   1.303 -1.1178  0.5838 -0.2473
49272SOL    HW265427   5.227  10.322   1.432 -0.1674 -0.7560 -0.6143
49273SOL     OW65428   2.644  13.169   7.111  0.5628 -0.4085  0.4234
49273SOL    HW165429   2.637  13.264   7.099  1.0688 -0.5194 -0.9785
49273SOL    HW265430   2.558  13.142   7.142  0.3493  0.4764  0.6234
49274SOL     OW65431   9.644   0.522   3.749  0.0405  0.2884  0.1326
49274SOL    HW165432   9.603   0.564   3.824  0.7975  0.5755  0.3890
49274SOL    HW265433   9.688   0.593   3.703  1.5110 -0.2322  0.6805
49275SOL     OW65434   8.281   4.513   7.395  0.1663  0.3988  0.1896
49275SOL    HW165435   8.217   4.474   7.454  0.6050 -0.5473  0.0485
49275SOL    HW265436   8.331   4.573   7.451 -0.8866  1.2300  0.2780
49276SOL     OW65437   5.116  10.101   3.923  0.2354  0.0777 -0.2116
49276SOL    HW165438   5.200  10.125   3.884  0.4767 -1.1752 -0.5389
49276SOL    HW265439   5.119  10.136   4.012  1.5875 -0.8870  0.1528
49277SOL     OW65440  13.423  10.894   6.625  0.5351 -0.3802 -0.1754
49277SOL    HW165441  13.497  10.950   6.645  0.3070  0.2734 -1.0809
49277SOL    HW265442  13.393  10.924   6.539 -1.0679 -0.3137  0.3778
49278SOL     OW65443  13.026   8.272   8.020  0.5394  0.0170 -0.4448
49278SOL    HW165444  13.002   8.185   7.988  1.4081  0.4477 -2.4357
49278SOL    HW265445  12.943   8.320   8.022  0.2660 -0.4243 -0.7673
49279SOL     OW65446  13.289   5.274   8.723 -0.5843  0.1009 -0.1640
49279SOL    HW165447  13.330   5.207   8.669 -0.1290  0.3160 -0.0875
49279SOL    HW265448  13.343   5.279   8.801 -1.6059 -0.6712  0.6325
49280SOL     OW65449   2.477   1.316  13.730 -0.1330 -0.1795 -0.0322
49280SOL    HW165450   2.385   1.297  13.712 -0.3817  0.7116  0.2492
49280SOL    HW265451   2.483   1.412  13.731  0.5620 -0.2062  1.0857
49281SOL     OW65452   5.607  13.162  11.186  0.0874 -0.6211  0.2935
49281SOL    HW165453   5.594  13.183  11.278  0.4081  0.3883  0.1190
49281SOL    HW265454   5.600  13.066  11.181  0.6568 -0.7334  1.4554
49282SOL     OW65455   3.938  11.569   8.808  0.6768 -0.2582  0.3182
49282SOL    HW165456   3.920  11.531   8.722  1.6650 -2.0365  0.8467
49282SOL    HW265457   4.031  11.590   8.806  0.5462  0.3860  0.7070
49283SOL     OW65458  12.212   1.649  11.195  0.2211  0.9059  0.0433
49283SOL    HW165459  12.236   1.612  11.280  0.0967  1.6406  0.4097
49283SOL    HW265460  12.283   1.622  11.137 -0.4370 -0.8622  0.0032
49284SOL     OW65461   0.929   9.546   4.722  0.6181 -0.4670  0.8125
49284SOL    HW165462   0.953   9.537   4.630  0.2577  1.3996  0.5077
49284SOL    HW265463   0.995   9.493   4.769  1.6515 -0.3128 -0.4139
49285SOL     OW65464   4.231  11.008   7.876 -1.1076  0.0852 -0.3274
49285SOL    HW165465   4.309  11.060   7.896 -1.3556  0.4985 -0.4228
49285SOL    HW265466   4.266  10.929   7.834 -0.8008  0.7323 -1.3193
49286SOL     OW65467   0.024   5.275   4.654  0.0122 -0.0987  0.2529
49286SOL    HW165468   0.030   5.217   4.731 -0.9797 -0.7577 -0.1429
49286SOL    HW265469   0.013   5.362   4.691  1.5680 -0.1271  0.8666
49287SOL     OW65470   1.229   1.557  13.308  0.0774  0.3269 -0.3464
49287SOL    HW165471   1.291   1.492  13.343 -1.6625 -0.7207  0.8981
49287SOL    HW265472   1.276   1.596  13.234  1.0845 -2.6517 -1.4479
49288SOL     OW65473   0.703   7.277  13.222  0.2660  0.5620  0.1981
49288SOL    HW165474   0.684   7.190  13.258 -1.9553 -0.5053 -3.1103
49288SOL    HW265475   0.744   7.324  13.295  1.1480 -3.0453  2.2979
49289SOL     OW65476  10.804   8.929   7.779 -0.4624  0.2717  0.2469
49289SOL    HW165477  10.811   8.914   7.873  1.5855  0.2165  0.1290
49289SOL    HW265478  10.869   8.871   7.740 -0.8006  0.7937 -1.1586
49290SOL     OW65479  10.291   3.233   3.374 -0.1469  0.0821  0.0383
49290SOL    HW165480  10.337   3.236   3.290  1.6994 -0.8640  0.9627
49290SOL    HW265481  10.306   3.144   3.406  0.1198  0.7524  1.8822
49291SOL     OW65482  11.652   6.761   5.892  0.3170  0.2259  0.2196
49291SOL    HW165483  11.581   6.723   5.840  0.6665  0.4609 -0.4449
49291SOL    HW265484  11.609   6.819   5.954 -0.1505 -0.4931  0.5767
49292SOL     OW65485  14.024   2.538   4.234 -0.3384 -0.0820 -0.0143
49292SOL    HW165486  14.104   2.517   4.186  0.0139  1.3578 -0.1239
49292SOL    HW265487  13.953   2.515   4.174  0.0901  1.3710 -1.1492
49293SOL     OW65488   1.111   6.992  12.318  0.3319 -0.2683  0.0207
49293SOL    HW165489   1.056   6.920  12.287  2.2480 -1.4436 -0.8384
49293SOL    HW265490   1.088   7.066  12.262  0.1767 -0.9560 -0.8406
49294SOL     OW65491   7.439  11.105  12.024  0.3824  0.1636 -0.3739
49294SOL    HW165492   7.494  11.045  12.074  2.3339  0.9771 -1.4039
49294SOL    HW265493   7.369  11.051  11.988  2.1328 -1.5539 -1.3665
49295SOL     OW65494   7.489   9.688  11.965 -0.3870 -0.1949  0.0524
49295SOL    HW165495   7.399   9.669  11.941  0.0590 -1.1714 -0.9570
49295SOL    HW265496   7.541   9.661  11.889  0.5205  3.4652 -0.8200
49296SOL     OW65497   0.348   7.921  13.896  0.1818  0.6873  0.0567
49296SOL    HW165498   0.272   7.961  13.938 -1.2095 -0.4316 -1.2722
49296SOL    HW265499   0.331   7.928  13.802  2.0571  1.0023 -0.3091
49297SOL     OW65500   5.539   1.037   4.235  0.4034 -0.2376 -0.0191
49297SOL    HW165501   5.502   0.985   4.163 -0.0102 -0.6567  0.4867
49297SOL    HW265502   5.534   1.128   4.205 -2.5501 -0.0835  0.6359
49298SOL     OW65503   2.291  10.487   2.317 -0.0543 -0.3681 -0.1659
49298SOL    HW165504   2.372  10.482   2.266  0.2457  0.1924  0.2475
49298SOL    HW265505   2.269  10.580   2.317 -0.8502 -0.5479 -0.4998
49299SOL     OW65506   4.600   8.584   4.874 -0.1151 -0.9599  0.3610
49299SOL    HW165507   4.563   8.672   4.866  3.5679  0.6267 -1.8075
49299SOL    HW265508   4.643   8.568   4.790  1.9491 -3.4950  1.7429
49300SOL     OW65509   7.066   2.303  12.446 -0.1316 -0.3607 -0.3525
49300SOL    HW165510   7.102   2.297  12.357 -0.6030 -1.5451 -0.4851
49300SOL    HW265511   7.044   2.213  12.469  1.0494 -0.2510  1.4348
49301SOL     OW65512   8.877   3.619   0.500  0.8341 -0.0410 -0.0055
49301SOL    HW165513   8.941   3.626   0.571 -0.6705  3.2590  1.2266
49301SOL    HW265514   8.917   3.669   0.428 -0.0594  1.6689  0.6260
49302SOL     OW65515   3.080   4.298   5.769 -0.2266 -0.4011 -0.3017
49302SOL    HW165516   3.107   4.258   5.686  1.0630 -2.1051  0.8527
49302SOL    HW265517   3.157   4.346   5.799 -0.2879 -0.7292  0.4160
49303SOL     OW65518  13.295  11.324   3.424 -0.1368  0.2712 -0.0858
49303SOL    HW165519  13.277  11.238   3.385 -1.1451  0.5931 -0.3622
49303SOL    HW265520  13.366  11.359   3.371  0.2839 -0.3904  0.0293
49304SOL     OW65521   9.943  11.323   0.473  0.3972  0.0233 -0.0438
49304SOL    HW165522   9.938  11.321   0.377  1.4951 -0.4363 -0.0949
49304SOL    HW265523   9.956  11.415   0.494 -0.6626  0.2428 -0.2800
49305SOL     OW65524   7.634   0.866   7.315  0.5878  0.0739 -0.7873
49305SOL    HW165525   7.555   0.898   7.359  1.1078  0.8688 -0.4082
49305SOL    HW265526   7.602   0.800   7.254 -0.3253  0.0931 -0.3508
49306SOL     OW65527   2.685   8.995   0.102 -0.3635  0.5645 -0.0881
49306SOL    HW165528   2.740   8.916   0.106  0.0449  0.8741  2.4691
49306SOL    HW265529   2.743   9.062   0.066  0.0845  0.2713  0.0695
49307SOL     OW65530   3.049  10.601   0.347 -0.0255 -0.6580  0.2595
49307SOL    HW165531   3.022  10.691   0.330 -1.0891 -0.7798  1.1680
49307SOL    HW265532   3.086  10.571   0.264  1.4118  0.9658  0.2624
49308SOL     OW65533   6.397   7.591   0.842 -0.1515  0.1631 -0.0491
49308SOL    HW165534   6.365   7.681   0.852  0.6182  0.5895 -1.1456
49308SOL    HW265535   6.346   7.556   0.769  0.4855  0.1822 -0.5142
49309SOL     OW65536  13.869  13.500   7.357  0.3613  0.0229  0.3218
49309SOL    HW165537  13.777  13.479   7.369  0.1179  0.2829 -0.9941
49309SOL    HW265538  13.913  13.456   7.431 -0.7464 -0.4822  0.7058
49310SOL     OW65539   8.173   5.962   5.624 -0.1364  0.0210  0.0123
49310SOL    HW165540   8.078   5.964   5.639 -0.2565 -1.4193 -0.4756
49310SOL    HW265541   8.187   6.029   5.556 -0.9294 -0.3688 -0.5536
49311SOL     OW65542  13.763  11.614   1.557 -0.3078  0.4627 -0.0263
49311SOL    HW165543  13.750  11.583   1.647 -0.4283  0.7368  0.0499
49311SOL    HW265544  13.748  11.536   1.503 -1.0072  0.4775  0.1380
49312SOL     OW65545   0.028   1.495   7.555  0.7582  0.2881  0.0490
49312SOL    HW165546  -0.026   1.416   7.560 -1.7696  1.8872 -0.1467
49312SOL    HW265547   0.035   1.526   7.645 -0.4334  1.1552 -0.1302
49313SOL     OW65548   3.546   6.221   7.752  0.5139 -0.4093  0.1271
49313SOL    HW165549   3.593   6.243   7.671 -0.5299 -0.0743 -0.4154
49313SOL    HW265550   3.613   6.189   7.811  0.9085 -4.3239 -2.0750
49314SOL     OW65551   7.723  11.477   3.448  0.3185  0.0646 -0.5850
49314SOL    HW165552   7.750  11.517   3.365 -1.4361  1.2292 -0.6429
49314SOL    HW265553   7.646  11.526   3.475 -1.4010 -2.6247 -0.1354
49315SOL     OW65554   9.988   9.485   2.849 -0.2601  0.1708  0.8464
49315SOL    HW165555  10.062   9.452   2.898  0.5391 -0.7843 -0.9068
49315SOL    HW265556   9.931   9.408   2.837  0.3207 -0.0421 -0.9683
49316SOL     OW65557   1.429  11.348   7.383 -0.1860 -0.0240  0.0613
49316SOL    HW165558   1.352  11.311   7.340  0.1409 -1.0007  0.3020
49316SOL    HW265559   1.430  11.308   7.470  0.6771 -0.1389  0.0047
49317SOL     OW65560  13.323  13.311  10.891  0.0833 -0.1170 -0.9314
49317SOL    HW165561  13.413  13.326  10.921 -0.2807  1.5203 -0.5896
49317SOL    HW265562  13.331  13.297  10.797  0.5415  1.9307 -1.2347
49318SOL     OW65563   3.875  11.978   2.690  0.6669  0.0533  0.2657
49318SOL    HW165564   3.866  11.973   2.595 -1.1398 -0.3293  0.4237
49318SOL    HW265565   3.892  12.071   2.708 -0.6516  0.4382 -0.3447
49319SOL     OW65566   4.448   2.493   0.581  0.3646 -0.5278 -0.1600
49319SOL    HW165567   4.356   2.511   0.601  0.4880  1.3071 -1.0526
49319SOL    HW265568   4.445   2.430   0.508 -0.1134 -2.2919  1.3005
49320SOL     OW65569   0.103  11.531   1.101 -0.4888 -0.1604  0.2216
49320SOL    HW165570   0.012  11.559   1.098  0.0120  1.7694  1.4353
49320SOL    HW265571   0.141  11.577   1.176  0.8997 -2.8101  1.3230
49321SOL     OW65572  10.888   1.335  11.561 -0.2217 -0.9603  0.8281
49321SOL    HW165573  10.838   1.289  11.629 -0.1720 -2.7995 -0.3250
49321SOL    HW265574  10.976   1.298  11.566 -0.5171 -2.0196 -0.9955
49322SOL     OW65575  13.373   5.448   1.889  0.3477 -0.1633  0.3933
49322SOL    HW165576  13.390   5.355   1.878 -2.0823 -1.1013  3.0717
49322SOL    HW265577  13.458   5.486   1.910  1.5038 -1.5888 -1.3648
49323SOL     OW65578   7.471   1.666   9.101 -0.1073  0.0313  0.7234
49323SOL    HW165579   7.414   1.593   9.125  1.3545 -1.6996 -0.7309
49323SOL    HW265580   7.426   1.711   9.031  0.3607 -1.5092 -0.6301
49324SOL     OW65581   8.556  10.221  11.783  0.0249  0.2229 -0.0605
49324SOL    HW165582   8.530  10.135  11.816 -1.1873  0.2195 -0.9593
49324SOL    HW265583   8.539  10.281  11.856 -0.6955 -0.0704  0.0193
49325SOL     OW65584  14.029   5.352   1.567 -0.4486 -0.2230 -0.2968
49325SOL    HW165585  13.996   5.401   1.491 -1.6153  1.4320  1.1892
49325SOL    HW265586  13.952   5.308   1.602 -0.2498  0.3096  0.8329
49326SOL     OW65587   5.731   4.272   2.787 -0.2361 -0.1920 -0.3224
49326SOL    HW165588   5.796   4.218   2.742  1.0438  0.5869  0.5227
49326SOL    HW265589   5.650   4.259   2.737  1.1610  0.8938 -3.1152
49327SOL     OW65590  11.179   0.463   0.479  0.3634  0.2935 -0.6320
49327SOL    HW165591  11.099   0.415   0.458  0.7706 -0.8326  0.2624
49327SOL    HW265592  11.153   0.555   0.479 -0.6187  0.0304 -1.6537
49328SOL     OW65593  11.290   3.270  11.904  0.3136  0.2322 -0.0139
49328SOL    HW165594  11.376   3.305  11.880  0.1025  0.6467 -0.1813
49328SOL    HW265595  11.291   3.180  11.872  0.4433  0.4362 -0.5993
49329SOL     OW65596   4.857   7.772   1.050 -0.2927 -0.1323 -0.7898
49329SOL    HW165597   4.792   7.702   1.035 -0.0323 -0.2480 -1.4062
49329SOL    HW265598   4.838   7.837   0.982  1.4609 -1.0588 -2.2467
49330SOL     OW65599   7.032   2.226   4.301  0.2316 -0.5758 -0.9185
49330SOL    HW165600   7.020   2.180   4.384 -1.9479  0.9195 -0.3036
49330SOL    HW265601   7.110   2.186   4.262 -0.0108 -2.9051  0.7607
49331SOL     OW65602   1.029   1.623  13.741  0.9663  0.2584  0.0105
49331SOL    HW165603   0.991   1.706  13.713  1.1812  0.1524 -0.6125
49331SOL    HW265604   1.069   1.643  13.826 -0.6392  0.3166  0.7913
49332SOL     OW65605   9.993   4.465   3.135 -0.8073 -0.5778  0.2566
49332SOL    HW165606   9.991   4.410   3.056  0.9650 -0.1239 -0.1364
49332SOL    HW265607  10.074   4.515   3.127 -0.4818 -0.6804  2.4989
49333SOL     OW65608  10.229   7.473   5.222 -0.3527 -0.7582 -0.0533
49333SOL    HW165609  10.304   7.441   5.172  0.3613 -0.6338  0.9028
49333SOL    HW265610  10.245   7.567   5.231 -0.0794 -0.8956  1.0275
49334SOL     OW65611   8.738  13.922   1.918 -0.3814  0.0755  0.1828
49334SOL    HW165612   8.666  13.871   1.955 -1.6786 -0.5615 -2.8523
49334SOL    HW265613   8.805  13.857   1.896  0.4067  0.4477  1.4299
49335SOL     OW65614   1.212   1.096   4.007 -0.4913 -0.1874  0.0590
49335SOL    HW165615   1.130   1.127   4.046 -0.7828  0.5262 -1.0833
49335SOL    HW265616   1.190   1.078   3.916  0.4691 -0.6399 -0.0925
49336SOL     OW65617   2.823  13.616   4.429 -0.1689 -0.2671  0.4226
49336SOL    HW165618   2.815  13.710   4.440 -2.1618 -0.2080 -0.9367
49336SOL    HW265619   2.757  13.579   4.488 -1.1931 -0.6296 -0.8989
49337SOL     OW65620   3.696   3.962   6.927 -0.1434 -0.3807 -0.1419
49337SOL    HW165621   3.613   3.982   6.971 -0.9507 -0.8276 -1.4247
49337SOL    HW265622   3.671   3.935   6.839  1.1085 -3.8377  0.4368
49338SOL     OW65623   9.273   2.371  11.443  0.2587 -0.6503 -0.6614
49338SOL    HW165624   9.356   2.416  11.460  0.7441 -1.4304 -0.9085
49338SOL    HW265625   9.206   2.430  11.477  0.9609 -0.3640  0.2422
49339SOL     OW65626  10.147   4.121   3.932 -0.4934 -0.0328  0.7014
49339SOL    HW165627  10.226   4.071   3.952 -0.3757 -0.5881 -0.9562
49339SOL    HW265628  10.173   4.213   3.941  0.9906 -0.1110 -1.7081
49340SOL     OW65629  12.968   6.577  12.263 -0.1178  0.1828 -0.8521
49340SOL    HW165630  13.027   6.640  12.305  2.6820 -3.7122  1.8264
49340SOL    HW265631  13.015   6.550  12.184  0.6066 -1.1237 -0.0162
49341SOL     OW65632   4.593   3.594   1.908  0.0084 -0.0392  0.2159
49341SOL    HW165633   4.520   3.591   1.847 -0.0965  1.0838  0.2658
49341SOL    HW265634   4.573   3.668   1.966 -0.0881 -1.2964  1.8634
49342SOL     OW65635   6.098   3.345  10.084  0.1180  0.1936  0.0522
49342SOL    HW165636   6.051   3.263  10.093 -1.3288  0.8362 -1.1277
49342SOL    HW265637   6.133   3.363  10.171  0.8043 -1.8359  0.2391
49343SOL     OW65638   4.768   7.580   2.339  0.3203  0.1776 -0.5448
49343SOL    HW165639   4.837   7.627   2.293  0.5179  0.4541  0.0283
49343SOL    HW265640   4.694   7.641   2.338  0.4332  0.3235 -0.2017
49344SOL     OW65641  12.178   0.089  13.021 -0.2196  0.6367  0.5190
49344SOL    HW165642  12.239   0.136  12.963  0.5800  0.6990  1.3972
49344SOL    HW265643  12.164   0.005  12.977  0.6218  0.5627  0.3722
49345SOL     OW65644   2.683   5.396   8.477  0.0436 -0.0339  0.5745
49345SOL    HW165645   2.595   5.370   8.449  0.4580 -2.9349  1.6420
49345SOL    HW265646   2.698   5.348   8.559  2.5261  0.5797  0.5733
49346SOL     OW65647   0.709   0.988   9.093  0.0868  0.0963  0.0026
49346SOL    HW165648   0.722   0.918   9.157  2.1011  0.6085  0.2287
49346SOL    HW265649   0.686   1.065   9.146  1.4615  0.4478  0.1325
49347SOL     OW65650   1.394   2.080   2.626  0.1539  0.8442 -0.8376
49347SOL    HW165651   1.331   2.049   2.692 -0.0248  1.6623 -0.6077
49347SOL    HW265652   1.375   2.028   2.548 -0.7321  0.9954 -0.7328
49348SOL     OW65653   2.217   1.923   9.336 -0.3917  0.1610 -0.6308
49348SOL    HW165654   2.143   1.949   9.391 -1.9788 -0.1205 -2.5015
49348SOL    HW265655   2.266   2.004   9.321 -0.9131  0.5631 -0.1862
49349SOL     OW65656   2.313  12.726  12.508 -0.6352 -0.0119  0.4116
49349SOL    HW165657   2.228  12.690  12.532 -0.6202  0.6972  1.5700
49349SOL    HW265658   2.294  12.813  12.472 -0.2612  1.1470  2.8541
49350SOL     OW65659  13.592   2.491  10.120 -0.0562 -0.1935  0.0763
49350SOL    HW165660  13.505   2.507  10.156 -0.6610 -0.6312 -1.1467
49350SOL    HW265661  13.648   2.482  10.197 -1.0094  0.4779  0.8822
49351SOL     OW65662  12.827   4.074  11.202  0.2822 -0.2119 -0.0640
49351SOL    HW165663  12.863   4.160  11.223 -0.9967  0.0857  0.9792
49351SOL    HW265664  12.789   4.085  11.114  2.2649 -0.4235 -1.0148
49352SOL     OW65665   3.013  11.421   0.157 -0.2634 -0.1520 -0.1830
49352SOL    HW165666   3.062  11.391   0.233 -1.2725  0.3734  0.7053
49352SOL    HW265667   3.078  11.469   0.105  0.5476 -0.9128  0.1035
49353SOL     OW65668   8.721  11.452  13.101 -0.1351  0.2288  0.3038
49353SOL    HW165669   8.762  11.369  13.076  0.4563  0.4129  0.6706
49353SOL    HW265670   8.628  11.438  13.082  0.2576  0.3325 -1.9658
49354SOL     OW65671   0.287   3.707   4.139  1.0248 -0.5530  0.0466
49354SOL    HW165672   0.369   3.709   4.090  1.5355  0.8730  0.8816
49354SOL    HW265673   0.295   3.780   4.201 -0.7590 -0.5658  0.3389
49355SOL     OW65674   6.043  13.285   1.538  0.3463 -0.3537  0.4062
49355SOL    HW165675   5.996  13.217   1.586  0.3199 -0.7490 -0.1817
49355SOL    HW265676   6.039  13.258   1.447  0.4667  0.3595  0.1843
49356SOL     OW65677   5.259   0.761   3.328  0.8837 -0.4377 -0.1562
49356SOL    HW165678   5.244   0.827   3.260  1.5261  0.5380  0.6222
49356SOL    HW265679   5.174   0.754   3.372  0.6140 -0.6748 -0.6986
49357SOL     OW65680   4.626  10.762   4.123  0.3904  0.1918 -0.4492
49357SOL    HW165681   4.651  10.835   4.066  0.8507  0.3119 -0.0950
49357SOL    HW265682   4.589  10.805   4.200 -0.3870  0.0278 -0.7206
49358SOL     OW65683   6.854   0.180   2.491  0.1751  0.3312 -0.4203
49358SOL    HW165684   6.932   0.130   2.516  0.6853  0.9400 -0.7545
49358SOL    HW265685   6.870   0.268   2.525  0.0135  0.6739 -1.2000
49359SOL     OW65686   0.421   4.322   1.657  0.1959  0.9082  0.3442
49359SOL    HW165687   0.459   4.234   1.667 -0.5822  0.2831 -1.6354
49359SOL    HW265688   0.327   4.306   1.648 -0.4962  2.3179  3.8000
49360SOL     OW65689   4.044   0.964  11.434 -0.0751  0.1245  0.2141
49360SOL    HW165690   4.119   1.017  11.407  0.0220 -0.0040  0.2292
49360SOL    HW265691   4.020   0.915  11.355  0.2287 -0.2750  0.3655
49361SOL     OW65692  12.358   8.705   4.811  0.7462 -0.1650  0.1871
49361SOL    HW165693  12.438   8.661   4.838  0.8441  0.1477  0.4209
49361SOL    HW265694  12.326   8.746   4.891  0.0063 -0.8229  0.2356
49362SOL     OW65695  11.554   3.625   4.823 -0.1340  0.0477  0.0487
49362SOL    HW165696  11.605   3.545   4.812 -1.1050 -0.5637 -0.0860
49362SOL    HW265697  11.501   3.611   4.901  0.2544  0.8811  0.4811
49363SOL     OW65698   7.739  14.085   9.107  0.0408  0.3835  0.1168
49363SOL    HW165699   7.716  14.063   9.198  0.0457 -1.4010 -0.2755
49363SOL    HW265700   7.690  14.165   9.089 -2.4200 -0.8687  0.7673
49364SOL     OW65701   7.991   6.960  11.680 -0.6447  0.3170 -0.5488
49364SOL    HW165702   8.014   7.044  11.641 -1.6870  0.7542 -0.2624
49364SOL    HW265703   8.048   6.897  11.636 -0.8024  0.9834 -1.7584
49365SOL     OW65704   4.511  14.029   2.543  0.0972  0.3647  0.7301
49365SOL    HW165705   4.501  13.951   2.598 -0.0982 -1.3397 -1.5843
49365SOL    HW265706   4.596  14.017   2.500  0.3618  1.7853  0.8277
49366SOL     OW65707   0.251   2.947   2.235 -0.7584  0.2789 -0.1413
49366SOL    HW165708   0.165   2.959   2.194 -1.4998  1.9528  1.7433
49366SOL    HW265709   0.254   3.014   2.303  1.9671  0.0900  0.0098
49367SOL     OW65710   7.824  11.032   6.042  0.5295  0.2130  0.3932
49367SOL    HW165711   7.754  10.969   6.059  0.8000 -0.3376 -0.4710
49367SOL    HW265712   7.877  11.032   6.121  0.7399 -0.9415  0.2633
49368SOL     OW65713   4.849  10.437   3.244 -0.1987  0.2190  0.2390
49368SOL    HW165714   4.841  10.384   3.165  0.0369  0.6460 -0.0796
49368SOL    HW265715   4.759  10.450   3.274 -0.3588  0.7864 -0.4568
49369SOL     OW65716   1.716  10.192   4.667 -0.3928 -0.3526  0.0853
49369SOL    HW165717   1.811  10.186   4.677 -0.1644 -0.5441 -1.9099
49369SOL    HW265718   1.682  10.128   4.730  0.8288 -0.7930  0.3296
49370SOL     OW65719   0.976   6.233   2.674 -0.7221 -0.0155  0.2984
49370SOL    HW165720   1.015   6.269   2.754 -0.8231 -0.7683  0.6907
49370SOL    HW265721   1.022   6.151   2.658 -0.0859  0.5553 -0.9367
49371SOL     OW65722  12.751   4.764  13.548  0.3937  0.0134  0.5476
49371SOL    HW165723  12.665   4.793  13.519  0.9706  1.4282  0.1921
49371SOL    HW265724  12.733   4.686  13.601 -1.1218  0.4323  0.6961
49372SOL     OW65725   8.607  10.318  11.241  0.5202  0.0932  0.4154
49372SOL    HW165726   8.638  10.232  11.216  2.0579  0.8315 -0.3333
49372SOL    HW265727   8.679  10.377  11.220 -0.5643  1.5924  0.7183
49373SOL     OW65728   5.283   3.537   0.510  0.1705 -0.7251  0.1800
49373SOL    HW165729   5.241   3.537   0.596 -0.5458 -1.2025 -0.1642
49373SOL    HW265730   5.217   3.503   0.451  0.0770  1.1459 -0.8640
49374SOL     OW65731   9.916   1.136   7.441 -0.1057 -0.2172 -0.0205
49374SOL    HW165732   9.935   1.123   7.534  0.3278 -0.1188 -0.0929
49374SOL    HW265733   9.896   1.229   7.434  1.0181  0.0317 -0.2112
49375SOL     OW65734   0.947  10.328  13.517  0.2284 -0.1553 -0.0410
49375SOL    HW165735   1.001  10.381  13.457 -0.4295 -1.2932 -1.6956
49375SOL    HW265736   0.965  10.238  13.492 -2.6530 -0.5875 -0.9138
49376SOL     OW65737  13.001   1.809   0.856  0.1245 -0.3201  0.0812
49376SOL    HW165738  13.051   1.832   0.777 -0.5915 -2.5826 -1.1070
49376SOL    HW265739  13.068   1.794   0.923  0.7297  2.1363  0.1329
49377SOL     OW65740   0.082   4.851   5.733 -0.0410  0.0342 -0.1520
49377SOL    HW165741   0.102   4.888   5.646  0.2641 -0.3202 -0.2341
49377SOL    HW265742   0.155   4.791   5.751 -0.3985 -0.3277  0.0982
49378SOL     OW65743   6.655   7.713   3.112  0.0418  0.0541  0.2128
49378SOL    HW165744   6.673   7.779   3.045  0.3467 -1.1577 -0.9375
49378SOL    HW265745   6.704   7.742   3.188 -0.7683  1.7672  0.1234
49379SOL     OW65746   4.022  11.055   3.342 -0.3168  0.5335 -0.2804
49379SOL    HW165747   4.087  10.990   3.315  0.2124  0.0697  1.9249
49379SOL    HW265748   4.070  11.116   3.396 -1.2803  1.5152 -0.5002
49380SOL     OW65749   0.644   9.999   7.241 -0.1541 -0.0113  0.5506
49380SOL    HW165750   0.593   9.991   7.161 -0.1551  0.3369  0.5126
49380SOL    HW265751   0.732  10.024   7.211  0.2731 -1.4443  0.5600
49381SOL     OW65752   4.528  12.668   0.106 -0.4695 -0.0551 -0.2588
49381SOL    HW165753   4.601  12.704   0.157 -0.6272  1.2082 -0.8752
49381SOL    HW265754   4.460  12.650   0.172 -0.4378  0.9636  0.0826
49382SOL     OW65755  10.634   7.490  13.592 -0.1668  0.0806 -0.3258
49382SOL    HW165756  10.543   7.501  13.566 -0.5324  0.4648  1.0517
49382SOL    HW265757  10.631   7.480  13.687  1.0880 -1.5660 -0.4174
49383SOL     OW65758  13.518   1.179   9.428 -0.2525  0.2794 -0.0140
49383SOL    HW165759  13.484   1.164   9.340  1.3375  0.3874 -0.6715
49383SOL    HW265760  13.518   1.092   9.469 -0.4361  0.1321 -0.3238
49384SOL     OW65761   4.312   6.965   2.275  0.0049  0.2857 -0.1366
49384SOL    HW165762   4.267   6.986   2.193  0.2791  1.3274 -0.0295
49384SOL    HW265763   4.242   6.953   2.339 -0.2100 -0.5104 -0.5003
49385SOL     OW65764  12.795  11.207   5.399 -0.2566 -0.3122 -0.3557
49385SOL    HW165765  12.875  11.259   5.405  1.0021 -2.2819  1.1257
49385SOL    HW265766  12.725  11.267   5.425  1.1155  0.6904  1.1978
49386SOL     OW65767  11.884   6.682   6.340 -0.2902 -0.4059 -0.1042
49386SOL    HW165768  11.865   6.746   6.271 -0.4456 -0.8711 -0.4998
49386SOL    HW265769  11.964   6.715   6.382  0.6289 -0.8420 -1.4282
49387SOL     OW65770   9.456  11.997   2.268 -0.3561 -0.3019  0.0308
49387SOL    HW165771   9.418  11.934   2.329  0.4078  1.2836  2.3064
49387SOL    HW265772   9.550  11.996   2.288 -0.1039  0.4174 -1.0076
49388SOL     OW65773  10.788  11.712   3.989 -0.3205  0.1902  0.0910
49388SOL    HW165774  10.797  11.623   4.024  1.5438  0.6724  0.9125
49388SOL    HW265775  10.800  11.702   3.895  1.0584 -0.2941  0.3014
49389SOL     OW65776  10.298   7.060   7.096  0.3235  0.2893  0.3381
49389SOL    HW165777  10.365   6.995   7.118  0.8530  0.7811  0.2061
49389SOL    HW265778  10.218   7.026   7.136  0.8223  0.1042  1.2070
49390SOL     OW65779   4.201   1.942   7.111 -0.4849 -0.1798  0.6394
49390SOL    HW165780   4.214   1.852   7.139 -1.1982 -0.7590 -0.8119
49390SOL    HW265781   4.122   1.940   7.057  0.8647  0.8003 -1.5119
49391SOL     OW65782   3.685   3.333  12.560 -0.5708 -0.3607 -0.1398
49391SOL    HW165783   3.758   3.393  12.543  0.3772 -1.0948  1.1756
49391SOL    HW265784   3.640   3.371  12.635 -0.4567 -0.8496  0.1799
49392SOL     OW65785  12.621   2.781   0.930 -0.0932 -0.1601  0.0109
49392SOL    HW165786  12.590   2.840   0.862 -0.1255 -0.0106  0.1538
49392SOL    HW265787  12.571   2.806   1.008 -2.1244 -2.1429 -0.5417
49393SOL     OW65788   5.729  13.875  10.069 -0.1530  0.0074 -0.1267
49393SOL    HW165789   5.719  13.885  10.164  0.1413  0.9366 -0.1832
49393SOL    HW265790   5.763  13.959  10.040 -0.6297 -0.1342 -1.1189
49394SOL     OW65791   9.413  12.589   4.978  0.1957 -0.2045  0.0571
49394SOL    HW165792   9.342  12.559   5.035 -0.2080 -0.1963 -0.4415
49394SOL    HW265793   9.484  12.527   4.995 -0.0186 -0.3741  0.3541
49395SOL     OW65794   3.439   4.308   7.206 -0.2927  0.3789  0.2353
49395SOL    HW165795   3.349   4.275   7.207 -0.3484  0.5359  0.5687
49395SOL    HW265796   3.484   4.257   7.273  0.0604 -0.2271 -0.4557
49396SOL     OW65797   6.728   1.517  10.520  0.0214  0.0872 -0.7562
49396SOL    HW165798   6.743   1.434  10.564  1.8008  0.6404 -0.2494
49396SOL    HW265799   6.632   1.523  10.512 -0.1906 -1.4224  0.2897
49397SOL     OW65800   5.872   7.858  10.771  0.4564 -0.4314  0.0031
49397SOL    HW165801   5.821   7.794  10.821  1.9714 -0.4015  1.6913
49397SOL    HW265802   5.810   7.927  10.750 -0.7830 -1.5862 -0.2619
49398SOL     OW65803   5.755  13.105  11.498 -0.3409 -0.2056 -0.0216
49398SOL    HW165804   5.802  13.104  11.414 -0.7321  0.2736 -0.2496
49398SOL    HW265805   5.684  13.042  11.486 -1.7300  1.4484 -0.8400
49399SOL     OW65806   9.060   9.436  13.431 -0.2528 -0.6614  0.0808
49399SOL    HW165807   9.013   9.389  13.499  0.4005 -0.1749  0.8841
49399SOL    HW265808   8.995   9.494  13.391 -0.4748 -0.4206  0.7831
49400SOL     OW65809  10.225   7.874   8.321 -0.4893 -0.1679  0.2593
49400SOL    HW165810  10.216   7.903   8.230 -2.1027 -0.5260  0.2795
49400SOL    HW265811  10.293   7.806   8.317  1.2934  1.5286 -0.2363
49401SOL     OW65812   8.457   6.465   9.294  0.2257 -0.2074  0.1165
49401SOL    HW165813   8.507   6.407   9.237  1.1993  0.4822  0.2352
49401SOL    HW265814   8.366   6.447   9.274  0.5433 -0.0826 -1.5494
49402SOL     OW65815   8.739  12.218   9.753 -0.1297  0.7853  0.1953
49402SOL    HW165816   8.672  12.266   9.802  0.5079  0.6796  1.2210
49402SOL    HW265817   8.814  12.278   9.752  0.7253 -0.2019  1.6226
49403SOL     OW65818   3.146   8.292   0.461 -0.0424 -0.2510 -0.0120
49403SOL    HW165819   3.063   8.293   0.413 -0.4238  0.0548  0.6350
49403SOL    HW265820   3.157   8.382   0.490  0.8885 -0.1265 -0.6953
49404SOL     OW65821   3.374   8.433   4.613 -0.4879 -0.1332  0.1418
49404SOL    HW165822   3.408   8.437   4.703 -1.3764 -0.8954  0.5357
49404SOL    HW265823   3.380   8.523   4.581  2.5110 -0.2973 -0.0873
49405SOL     OW65824   4.221   0.705   5.730 -0.2515  0.0814  0.5300
49405SOL    HW165825   4.143   0.703   5.785 -0.7084  1.5514 -0.0022
49405SOL    HW265826   4.264   0.621   5.745 -2.0616 -0.8794  0.6494
49406SOL     OW65827   0.739   5.397   6.603  0.4268 -0.0812 -0.0518
49406SOL    HW165828   0.673   5.369   6.667 -0.5907  0.7916 -0.6664
49406SOL    HW265829   0.705   5.366   6.519  1.9042 -1.4842 -0.1744
49407SOL     OW65830   0.332   1.561   6.611 -0.4644  0.3072  0.2324
49407SOL    HW165831   0.336   1.539   6.518 -1.4903 -0.1763  0.2943
49407SOL    HW265832   0.240   1.551   6.635 -0.4761  1.7878  0.9821
49408SOL     OW65833   4.985   3.283  13.414 -0.2445  0.3359 -0.1225
49408SOL    HW165834   4.893   3.307  13.410 -0.4718 -0.4003  0.4795
49408SOL    HW265835   5.008   3.259  13.325 -0.1533  2.2209 -0.6406
49409SOL     OW65836  13.532   7.450   0.583 -0.2593 -0.2419  0.3331
49409SOL    HW165837  13.462   7.386   0.593  2.3948 -3.5326 -0.0689
49409SOL    HW265838  13.608   7.408   0.624  2.0338  1.9931 -1.3206
49410SOL     OW65839  12.853   4.090   7.245  0.2485  0.0875  0.0900
49410SOL    HW165840  12.918   4.071   7.313 -0.1429  0.1385  0.4829
49410SOL    HW265841  12.783   4.028   7.262 -0.6382  1.2534  0.8286
49411SOL     OW65842   9.032   8.555  13.249  0.1392  0.2964  0.6428
49411SOL    HW165843   9.050   8.638  13.204 -0.6933 -0.7041 -1.6855
49411SOL    HW265844   8.969   8.510  13.193  0.1652 -1.7052  2.1003
49412SOL     OW65845  10.234  10.806   3.525 -0.6331  0.0294  0.1500
49412SOL    HW165846  10.229  10.847   3.611 -0.4585  1.2938 -0.4221
49412SOL    HW265847  10.221  10.713   3.542 -1.5161  0.3604  1.4377
49413SOL     OW65848   3.118  12.153  12.788  0.1620  0.0034  1.3091
49413SOL    HW165849   3.120  12.063  12.822 -2.1034 -0.6653 -0.1398
49413SOL    HW265850   3.171  12.203  12.850  3.1710 -2.6362  1.1352
49414SOL     OW65851   1.142  10.942   0.442 -0.4404 -0.0041  0.0207
49414SOL    HW165852   1.155  10.869   0.381  1.0702 -0.9930  1.4632
49414SOL    HW265853   1.228  10.959   0.479 -1.1800  1.0671  1.3456
49415SOL     OW65854   8.211   3.128   0.634 -0.5389 -0.7315 -0.0207
49415SOL    HW165855   8.183   3.214   0.666  1.2746 -0.1447  0.1563
49415SOL    HW265856   8.279   3.102   0.696  0.7947 -1.0553 -1.5631
49416SOL     OW65857  11.673  11.956   2.829 -0.2180 -0.2008 -0.0233
49416SOL    HW165858  11.757  11.928   2.794  0.6062  4.0173 -2.1473
49416SOL    HW265859  11.688  11.966   2.924  0.2922 -3.3396  0.3126
49417SOL     OW65860   7.312   1.187  11.334 -0.2371 -0.5771  0.4024
49417SOL    HW165861   7.305   1.119  11.267 -1.7424 -0.6849  0.6349
49417SOL    HW265862   7.227   1.231  11.332  1.0302  2.0561 -0.5225
49418SOL     OW65863   3.011   3.040   8.614 -0.6805 -0.5735 -0.0635
49418SOL    HW165864   3.007   3.062   8.707 -0.8165  0.7513 -0.3621
49418SOL    HW265865   2.920   3.045   8.585 -0.6085 -0.7532 -0.3212
49419SOL     OW65866   0.126   7.671   4.195  0.5866 -0.4013 -0.1604
49419SOL    HW165867   0.141   7.586   4.236 -0.8830 -0.7714 -0.3253
49419SOL    HW265868   0.178   7.732   4.246 -0.3150 -1.0207  1.5790
49420SOL     OW65869   7.841   3.230  13.414 -0.3387 -0.0780 -0.1263
49420SOL    HW165870   7.789   3.301  13.452 -2.1455 -1.3935  0.0054
49420SOL    HW265871   7.925   3.236  13.459 -1.7519 -0.3967  2.8020
49421SOL     OW65872   6.708   0.192  11.240 -0.5234 -0.1306  0.1179
49421SOL    HW165873   6.761   0.137  11.182 -1.1456  0.9252 -1.5474
49421SOL    HW265874   6.767   0.214  11.312  0.8869 -0.0677 -0.9991
49422SOL     OW65875   3.185   5.090   6.500 -0.8771  0.1233 -0.1637
49422SOL    HW165876   3.141   5.173   6.514 -2.8976 -1.1291  1.4360
49422SOL    HW265877   3.115   5.029   6.475  0.2549 -1.4568  0.3400
49423SOL     OW65878   5.300   7.128   5.313 -0.0563  0.5360  0.5095
49423SOL    HW165879   5.300   7.171   5.399  0.3819  1.9101 -0.1546
49423SOL    HW265880   5.250   7.047   5.327  0.1277  0.6667  2.0854
49424SOL     OW65881  11.342  11.464  11.966  0.3742  0.0580 -0.2418
49424SOL    HW165882  11.389  11.420  11.896  0.4901  1.5376 -1.1372
49424SOL    HW265883  11.282  11.523  11.921 -0.6888 -0.0961  0.9045
49425SOL     OW65884   9.038   2.384   1.450 -0.0138 -0.0479 -0.4363
49425SOL    HW165885   8.969   2.419   1.506  0.4987 -0.3959  0.4405
49425SOL    HW265886   9.049   2.449   1.382  0.1153  0.9422  0.5042
49426SOL     OW65887   2.756   9.513   9.745  0.6811 -0.1998  1.0264
49426SOL    HW165888   2.737   9.430   9.789  0.1397 -1.3663 -1.2586
49426SOL    HW265889   2.852   9.516   9.739  0.7455 -0.1828  1.9127
49427SOL     OW65890  12.463   3.299   6.339 -0.2017 -0.5579  0.0649
49427SOL    HW165891  12.527   3.246   6.291  0.5759  1.3931 -1.2347
49427SOL    HW265892  12.476   3.276   6.431  0.8512 -1.7841 -0.3652
49428SOL     OW65893  10.014   6.366   7.336 -0.0911 -0.5454 -0.2858
49428SOL    HW165894  10.098   6.321   7.335  0.5472  0.5708  0.9358
49428SOL    HW265895  10.031   6.450   7.295 -1.1500 -1.1213 -2.0465
49429SOL     OW65896   3.399  13.139   4.066  0.0870  0.1881 -0.0893
49429SOL    HW165897   3.304  13.144   4.056  0.0198 -0.8473 -0.0123
49429SOL    HW265898   3.427  13.072   4.005  0.7899  0.5510 -0.1796
49430SOL     OW65899  10.288  13.811   0.195  0.3191  0.1617 -0.7115
49430SOL    HW165900  10.280  13.797   0.101 -2.0359  0.0921 -0.5625
49430SOL    HW265901  10.277  13.906   0.205  1.5304  0.3089 -0.5352
49431SOL     OW65902   2.295  13.175   0.058  0.8194 -0.3375  0.3201
49431SOL    HW165903   2.375  13.197   0.011 -0.1048  2.1309 -0.2676
49431SOL    HW265904   2.264  13.094   0.018  2.7509 -1.0883  0.2632
49432SOL     OW65905  11.651  12.917   5.373  0.0257  0.0659  0.1641
49432SOL    HW165906  11.691  12.849   5.427 -0.9305 -0.9550 -0.3857
49432SOL    HW265907  11.718  12.986   5.368  2.2669 -2.0591 -1.7385
49433SOL     OW65908   7.145   9.176  12.744  0.6900 -0.4537  0.4079
49433SOL    HW165909   7.215   9.230  12.707  0.8394 -0.4530  0.6859
49433SOL    HW265910   7.085   9.161  12.671  0.3293  0.6143  0.4679
49434SOL     OW65911   5.349  12.423   7.985 -0.2504  0.1138 -0.2978
49434SOL    HW165912   5.379  12.482   8.054  0.0422  0.3078 -0.5877
49434SOL    HW265913   5.369  12.336   8.019  0.8100  0.2399 -0.5480
49435SOL     OW65914   5.389  11.859  12.885 -0.1226 -0.1875 -0.2165
49435SOL    HW165915   5.425  11.787  12.832 -1.7077 -0.5309 -0.8819
49435SOL    HW265916   5.415  11.938  12.838 -0.9109 -0.4626 -1.1410
49436SOL     OW65917   9.239  13.367   5.647  0.5112  0.1830 -0.3258
49436SOL    HW165918   9.292  13.309   5.701  0.6337  0.6710  0.0846
49436SOL    HW265919   9.191  13.421   5.709  0.6204  0.7208 -0.7008
49437SOL     OW65920   3.020   2.339   1.197 -0.2212 -0.3977  0.1118
49437SOL    HW165921   2.993   2.250   1.217  0.5727 -0.6744 -0.0168
49437SOL    HW265922   3.030   2.381   1.282 -0.3111 -0.5165  0.1800
49438SOL     OW65923   5.634  12.850  10.394  0.2084  0.1752  0.1564
49438SOL    HW165924   5.685  12.834  10.474  1.1122 -1.8749 -0.7424
49438SOL    HW265925   5.585  12.769  10.382 -0.0886  0.5527 -1.2455
49439SOL     OW65926   0.345   0.097  10.972 -0.9081  0.0398 -0.1695
49439SOL    HW165927   0.326   0.140  11.055 -1.0503  0.6777 -0.5209
49439SOL    HW265928   0.364   0.169  10.912  4.0654 -0.4425  0.4128
49440SOL     OW65929   5.007   0.283   7.810 -0.7708 -0.2474  0.5090
49440SOL    HW165930   4.976   0.361   7.856  0.3131  0.7137 -0.3024
49440SOL    HW265931   5.095   0.307   7.779  0.1356 -2.2395  1.3192
49441SOL     OW65932   6.645   4.634   3.051 -0.2718  0.1779  0.1071
49441SOL    HW165933   6.675   4.722   3.072 -1.7555  0.7016  0.1623
49441SOL    HW265934   6.671   4.621   2.959  0.7954  0.2749  0.3796
49442SOL     OW65935   5.444  13.265   6.989 -0.0058  0.2789  0.3757
49442SOL    HW165936   5.440  13.334   7.056 -0.6275 -0.8024  1.4795
49442SOL    HW265937   5.517  13.291   6.933 -0.8770  2.3901  0.1270
49443SOL     OW65938   3.570  10.924   5.584  0.0107  0.1381  0.3218
49443SOL    HW165939   3.630  10.935   5.510 -0.7468  2.3003 -0.0461
49443SOL    HW265940   3.567  11.010   5.626 -0.6473 -0.6842  2.0578
49444SOL     OW65941  12.002   4.045   2.564 -0.3216 -0.5828  0.2152
49444SOL    HW165942  11.962   4.026   2.479  0.2278  0.8922 -0.4196
49444SOL    HW265943  12.094   4.019   2.553 -0.1805 -0.1159  0.2327
49445SOL     OW65944  11.492  11.923  11.998 -0.7265  0.0477  0.2416
49445SOL    HW165945  11.563  11.947  11.939 -0.8556 -1.2071 -0.4477
49445SOL    HW265946  11.516  11.837  12.031 -0.6661  0.6955  2.0439
49446SOL     OW65947   1.108  11.624  11.065 -0.7149  0.0961  0.1471
49446SOL    HW165948   1.186  11.659  11.108 -0.4794  0.4101 -0.5188
49446SOL    HW265949   1.114  11.656  10.975 -1.4526 -0.1358  0.0083
49447SOL     OW65950  13.878  10.089  13.857 -0.0274 -0.3180 -0.2017
49447SOL    HW165951  13.967  10.068  13.885  1.4800  0.8375 -3.5836
49447SOL    HW265952  13.859  10.174  13.897  0.5609 -0.3751  0.2053
49448SOL     OW65953   7.300   1.783   2.366  0.2348  0.6430  0.1039
49448SOL    HW165954   7.322   1.702   2.412  0.5914  0.2251 -0.7731
49448SOL    HW265955   7.217   1.764   2.322 -0.0811  1.0232  0.5280
49449SOL     OW65956   7.070  12.152   9.062  0.2523  0.0701  0.1176
49449SOL    HW165957   7.069  12.062   9.029  0.1379  0.4587 -0.9735
49449SOL    HW265958   7.155  12.160   9.106  0.8724 -0.1579 -0.9955
49450SOL     OW65959  12.255   4.437   7.715 -0.6297  0.3578 -0.5174
49450SOL    HW165960  12.253   4.518   7.664 -0.8736  0.9847  0.4697
49450SOL    HW265961  12.165   4.424   7.744 -0.3460  0.4666  0.4501
49451SOL     OW65962  12.562   9.805   1.314 -0.4374  0.1103  0.0099
49451SOL    HW165963  12.507   9.873   1.354  0.1492  0.3618  0.3918
49451SOL    HW265964  12.595   9.755   1.389 -0.6002 -0.3938 -0.2517
49452SOL     OW65965   4.024  11.202   8.085 -0.2027  0.3867  0.5609
49452SOL    HW165966   4.106  11.252   8.088  0.9301 -1.4179  2.7962
49452SOL    HW265967   4.046  11.116   8.121 -2.9132 -0.4486  0.4958
49453SOL     OW65968   6.859  11.010  11.897 -0.0365 -0.4373  0.0488
49453SOL    HW165969   6.903  10.963  11.826  1.4607  0.2705  0.4817
49453SOL    HW265970   6.861  10.949  11.971  0.6610 -0.2271  0.2067
49454SOL     OW65971  13.835   2.455   4.048  0.0750 -0.0925 -0.5435
49454SOL    HW165972  13.881   2.425   3.970 -0.7436 -0.2409 -0.9786
49454SOL    HW265973  13.779   2.526   4.017 -1.5594 -1.2847 -0.4518
49455SOL     OW65974   8.511   9.500   2.015 -0.3950 -0.3656  0.2455
49455SOL    HW165975   8.558   9.583   2.013 -0.4776 -0.3356 -0.4688
49455SOL    HW265976   8.419   9.524   2.030 -0.4286 -0.3261 -0.0278
49456SOL     OW65977  13.331   6.198   8.364 -0.1948  0.2787  0.1183
49456SOL    HW165978  13.343   6.162   8.452 -0.5738  1.4731  0.6786
49456SOL    HW265979  13.302   6.124   8.311 -0.2782 -0.3867  1.0733
49457SOL     OW65980  13.888  10.090   6.675  0.0749 -0.1648  0.2553
49457SOL    HW165981  13.940  10.170   6.688  0.2040 -0.5009  2.0277
49457SOL    HW265982  13.943  10.020   6.711 -0.9528 -0.7476  0.7231
49458SOL     OW65983  11.230   3.049   4.821  0.0042  0.4669  0.7384
49458SOL    HW165984  11.225   2.969   4.770 -0.6090  0.9397  0.0373
49458SOL    HW265985  11.192   3.026   4.906 -2.4209  0.5943 -0.2284
49459SOL     OW65986  12.016   9.456   3.325  0.2530  0.5009  0.7968
49459SOL    HW165987  12.057   9.373   3.299 -0.9215  0.1208  0.0577
49459SOL    HW265988  12.018   9.455   3.420  0.0465 -0.5054  0.8035
49460SOL     OW65989   0.960   3.179   1.624  0.0925 -0.1289 -0.5249
49460SOL    HW165990   1.038   3.142   1.582 -0.0752 -1.3995  0.2338
49460SOL    HW265991   0.942   3.120   1.697 -1.9237 -0.1895 -1.0252
49461SOL     OW65992   6.670  11.327  11.121  0.0651 -0.0560 -0.5672
49461SOL    HW165993   6.737  11.276  11.168 -0.8836 -0.4646  0.3790
49461SOL    HW265994   6.654  11.277  11.041  2.3601  1.1169 -1.8437
49462SOL     OW65995  12.549  11.166  13.389 -0.2233 -0.4925 -0.0382
49462SOL    HW165996  12.541  11.132  13.479 -0.8285  0.2052  0.1759
49462SOL    HW265997  12.547  11.261  13.399  0.6866 -0.3903 -0.7081
49463SOL     OW65998   5.007  12.795   4.179 -0.3048 -0.0646  0.4258
49463SOL    HW165999   4.989  12.799   4.273  0.7453 -0.2317  0.6521
49463SOL    HW266000   4.943  12.855   4.140  0.3159  1.3256  1.4298
49464SOL     OW66001   6.641  11.887  10.736 -0.4206  0.5521  0.6051
49464SOL    HW166002   6.595  11.831  10.799  0.3769  0.5939  1.2383
49464SOL    HW266003   6.626  11.976  10.767 -0.5874  0.6110  0.3531
49465SOL     OW66004   0.138   1.418   8.975  0.5296 -0.2160  0.3363
49465SOL    HW166005   0.159   1.344   9.033  0.0495 -0.0469  0.7323
49465SOL    HW266006   0.103   1.485   9.033 -2.3177 -0.9250 -0.4039
49466SOL     OW66007   3.671   8.016   8.502 -0.5710 -0.3399 -0.2599
49466SOL    HW166008   3.682   7.923   8.484  0.3258  0.0600 -2.0371
49466SOL    HW266009   3.760   8.052   8.494 -1.1593  0.9309 -1.5653
49467SOL     OW66010  13.609   3.694   4.288 -0.0591 -0.2361 -0.6798
49467SOL    HW166011  13.606   3.782   4.251  1.8948 -0.4497 -1.4760
49467SOL    HW266012  13.531   3.650   4.252 -1.2994  1.2445  0.0719
49468SOL     OW66013   5.811   0.900  10.664 -0.4432 -0.1899 -0.6040
49468SOL    HW166014   5.848   0.825  10.617  2.2095  0.9078 -0.4446
49468SOL    HW266015   5.854   0.977  10.625  0.0457  0.9309  1.9030
49469SOL     OW66016   9.438  12.492   2.059  0.1879 -0.2451 -0.3174
49469SOL    HW166017   9.474  12.534   1.981  1.1016  0.4718  0.4681
49469SOL    HW266018   9.476  12.404   2.058  1.1060  0.1326 -0.1038
49470SOL     OW66019   9.615   0.151  11.362  0.3403 -0.2953  0.1582
49470SOL    HW166020   9.647   0.198  11.439 -1.1790 -1.4109  1.5477
49470SOL    HW266021   9.567   0.076  11.398  0.3862 -1.3921 -1.9165
49471SOL     OW66022   6.234   1.475  13.140 -0.5790 -0.3031 -0.4372
49471SOL    HW166023   6.328   1.487  13.134 -0.5638 -1.0657 -2.9642
49471SOL    HW266024   6.223   1.388  13.178 -0.3343  0.3845  1.2691
49472SOL     OW66025   6.593  13.929  12.936  0.2362  0.3738 -0.4760
49472SOL    HW166026   6.599  14.024  12.946 -0.5996  0.4529 -0.7263
49472SOL    HW266027   6.501  13.912  12.916 -0.2212 -0.7007  2.0839
49473SOL     OW66028  11.679   9.154   1.636  0.2330 -0.0853  0.0153
49473SOL    HW166029  11.735   9.180   1.564 -0.0055 -0.0442 -0.1570
49473SOL    HW266030  11.701   9.214   1.707  0.8133 -0.4393  0.1371
49474SOL     OW66031   1.466  12.611  10.504 -0.1677 -0.2762  0.2884
49474SOL    HW166032   1.400  12.567  10.450  0.0432  0.6374 -0.7337
49474SOL    HW266033   1.533  12.639  10.443  0.9984 -0.8196  1.2667
49475SOL     OW66034  11.181  11.889   9.249  0.0814  0.3062  0.0614
49475SOL    HW166035  11.110  11.880   9.186 -1.5769 -0.1761  1.8775
49475SOL    HW266036  11.165  11.974   9.291 -0.7180 -0.6810  1.8856
49476SOL     OW66037   1.396   9.895   9.075 -0.1453  0.2147 -0.0346
49476SOL    HW166038   1.406   9.834   9.001  0.3444  0.5377 -0.2349
49476SOL    HW266039   1.403   9.839   9.153 -0.7380 -0.1390 -0.2227
49477SOL     OW66040   1.665   2.493   4.542 -0.1942  0.2025 -0.4462
49477SOL    HW166041   1.619   2.415   4.511 -0.6885  0.0458  0.6194
49477SOL    HW266042   1.631   2.564   4.489  0.8397 -0.3941 -1.9773
49478SOL     OW66043   3.889  10.936   0.096 -0.3199 -0.0267  0.0487
49478SOL    HW166044   3.868  10.857   0.147 -0.2334  0.2716  0.5498
49478SOL    HW266045   3.894  10.905   0.005  0.5365 -0.7526  0.3348
49479SOL     OW66046   1.336  13.790  11.240  0.2271 -0.3818  0.2097
49479SOL    HW166047   1.336  13.696  11.224  1.2554  0.0268 -2.8975
49479SOL    HW266048   1.298  13.828  11.161  1.1842  1.8660  0.7556
49480SOL     OW66049   7.005  13.528   9.084  0.0192 -0.7013  0.3152
49480SOL    HW166050   7.040  13.456   9.137  2.6206 -0.6049 -1.1244
49480SOL    HW266051   7.045  13.606   9.122 -1.5232 -0.1378  0.8535
49481SOL     OW66052   9.514   6.222   2.414 -0.2421  0.1730 -0.3345
49481SOL    HW166053   9.426   6.251   2.389 -0.5438  0.1868  0.6782
49481SOL    HW266054   9.521   6.134   2.377 -0.1771  0.6607 -1.5241
49482SOL     OW66055   3.533   5.496   5.243  0.1655 -0.1814  0.1866
49482SOL    HW166056   3.490   5.565   5.193  2.0129  0.2415 -0.9417
49482SOL    HW266057   3.597   5.542   5.297  1.8181 -0.9740 -1.0022
49483SOL     OW66058   4.729   2.185   6.640  0.4862  0.5788  0.1369
49483SOL    HW166059   4.762   2.126   6.707  0.0114 -0.5560 -0.6025
49483SOL    HW266060   4.783   2.166   6.563 -0.3512  0.3534 -0.4059
49484SOL     OW66061  13.426   4.650   3.157  0.4724 -0.1031  0.3438
49484SOL    HW166062  13.439   4.610   3.243  1.3018 -2.0508 -0.6257
49484SOL    HW266063  13.512   4.648   3.117 -0.3308 -1.5251 -1.4446
49485SOL     OW66064   9.962  10.838  11.125 -0.2910  0.0637  1.0304
49485SOL    HW166065  10.042  10.797  11.156  0.0518  0.4480  0.6747
49485SOL    HW266066   9.970  10.838  11.029 -1.1903 -0.8360  0.9349
49486SOL     OW66067   0.254   8.274   7.667 -0.1588  0.3419 -0.8720
49486SOL    HW166068   0.170   8.300   7.628 -0.8193  0.6724  0.7177
49486SOL    HW266069   0.231   8.215   7.738  1.1323 -1.6929 -2.0443
49487SOL     OW66070   0.260   2.705  10.760 -0.1805  0.0385 -0.2023
49487SOL    HW166071   0.257   2.761  10.683  1.7410 -0.5880 -0.7920
49487SOL    HW266072   0.252   2.616  10.726  0.7659 -0.2488  0.2740
49488SOL     OW66073  12.797   6.364  12.345 -0.0420 -0.6401 -0.4043
49488SOL    HW166074  12.743   6.405  12.277 -0.0798 -0.6452 -0.3778
49488SOL    HW266075  12.881   6.408  12.339 -1.1680  2.2165  2.1755
49489SOL     OW66076   0.776   2.742   0.900 -0.0753 -0.3027  0.0500
49489SOL    HW166077   0.849   2.682   0.915 -0.5899 -0.6897  1.1605
49489SOL    HW266078   0.816   2.822   0.865  0.8522 -0.5697  0.4829
49490SOL     OW66079   4.275   2.988   9.232  0.0873 -0.2351 -0.3167
49490SOL    HW166080   4.337   3.037   9.285  0.1576 -0.3602 -0.2824
49490SOL    HW266081   4.249   2.914   9.287  0.0771 -0.3048 -0.4144
49491SOL     OW66082  12.152   2.431  10.009  0.3318 -0.1863  0.7165
49491SOL    HW166083  12.217   2.487   9.967 -1.0834  0.3907 -0.8010
49491SOL    HW266084  12.155   2.349   9.959  0.5213 -0.5015  1.2342
49492SOL     OW66085   0.211   5.876   1.480 -0.1845  0.2370  0.4530
49492SOL    HW166086   0.233   5.927   1.558 -0.5027 -1.4016  1.6949
49492SOL    HW266087   0.128   5.912   1.450 -0.7110  0.0977  1.6705
49493SOL     OW66088   8.787  10.398   5.538 -1.1148 -0.4854 -0.0694
49493SOL    HW166089   8.854  10.448   5.585  0.5028 -1.1747 -1.4972
49493SOL    HW266090   8.707  10.412   5.587 -0.3648  2.0519  0.5976
49494SOL     OW66091   9.992   7.419   0.779  0.3628 -0.2194 -0.0583
49494SOL    HW166092  10.004   7.344   0.722  0.2316 -0.4466  0.2099
49494SOL    HW266093   9.986   7.494   0.720  0.7064 -0.3922 -0.3157
49495SOL     OW66094   0.449   3.458   1.780 -0.3436 -0.1952 -0.1973
49495SOL    HW166095   0.433   3.407   1.700  0.6367  0.5970 -0.9347
49495SOL    HW266096   0.510   3.404   1.830  0.5068  0.1269 -0.8647
49496SOL     OW66097   3.553   8.793   1.828 -0.1113 -0.1916 -0.1576
49496SOL    HW166098   3.463   8.785   1.862  0.3563 -0.7025  1.0157
49496SOL    HW266099   3.608   8.755   1.896  0.7928 -2.7829 -2.1724
49497SOL     OW66100   6.835   7.538  10.446  0.1737  0.7089  0.6827
49497SOL    HW166101   6.891   7.595  10.499  2.0773 -0.0139 -0.4508
49497SOL    HW266102   6.798   7.597  10.380  0.7941  0.9467  0.5353
49498SOL     OW66103  13.321   4.168  12.080  0.3846  0.5369  0.2688
49498SOL    HW166104  13.236   4.211  12.077  0.5996  0.9176 -0.3780
49498SOL    HW266105  13.346   4.172  12.173 -0.2081  0.5893  0.4329
49499SOL     OW66106   6.400  10.107  11.738 -0.1365 -0.0337 -0.1897
49499SOL    HW166107   6.430  10.020  11.712  0.3924  0.0436  0.1370
49499SOL    HW266108   6.313  10.092  11.776  0.5118 -0.6361  1.1363
49500SOL     OW66109   4.392  13.341  10.084  0.3187  0.0286  0.2934
49500SOL    HW166110   4.303  13.362  10.057  0.5888 -0.5882 -1.2179
49500SOL    HW266111   4.441  13.423  10.073  0.5030 -0.2855 -1.6099
49501SOL     OW66112   4.699   3.195   2.561  0.3024 -0.2281 -0.4790
49501SOL    HW166113   4.730   3.145   2.485 -0.8296 -1.1534 -0.3489
49501SOL    HW266114   4.734   3.147   2.636  2.3592  1.2917 -0.3574
49502SOL     OW66115   5.055   2.938   6.397  0.6428  0.8300 -0.0677
49502SOL    HW166116   4.996   2.992   6.450  0.2505 -0.4247  0.8192
49502SOL    HW266117   4.997   2.884   6.343  1.0371  1.6631 -1.3584
49503SOL     OW66118   5.681   4.607   6.572  0.3809 -0.1062 -0.5426
49503SOL    HW166119   5.713   4.520   6.596 -0.8777 -0.7551 -1.1278
49503SOL    HW266120   5.627   4.592   6.494 -1.2816  0.9317  0.3456
49504SOL     OW66121   0.423  10.652   0.554  0.0827 -0.1048 -0.2756
49504SOL    HW166122   0.381  10.566   0.554  0.9659 -0.5564  0.9763
49504SOL    HW266123   0.517  10.634   0.547  0.2159  0.8282 -1.3771
49505SOL     OW66124   2.289   6.261  12.446  0.4351 -0.1983  0.1295
49505SOL    HW166125   2.351   6.276  12.374  0.9805 -2.4340  0.0677
49505SOL    HW266126   2.203   6.257  12.404  0.6030 -0.1761 -0.2177
49506SOL     OW66127  11.233   4.425   3.121 -0.0843  0.0461 -0.1080
49506SOL    HW166128  11.204   4.370   3.048  1.1225  0.8863 -1.2615
49506SOL    HW266129  11.194   4.511   3.102  0.7884  0.4402 -0.1395
49507SOL     OW66130  11.521  10.645   0.699  0.4863  0.4035  0.0482
49507SOL    HW166131  11.455  10.715   0.705 -0.0612 -0.1921  1.3777
49507SOL    HW266132  11.481  10.579   0.642 -0.6070 -0.4803  1.7662
49508SOL     OW66133   8.995   2.324   6.910  1.4638 -0.7905  0.0042
49508SOL    HW166134   8.947   2.242   6.925  1.2098 -0.5022  0.7950
49508SOL    HW266135   9.032   2.346   6.995  1.1322  0.1709 -0.0931
49509SOL     OW66136  10.809   3.883   3.218 -0.4406  0.1074  0.4369
49509SOL    HW166137  10.771   3.889   3.306  1.2638 -1.1062  1.3344
49509SOL    HW266138  10.901   3.861   3.234 -0.0407  0.0405 -1.6665
49510SOL     OW66139   4.029   7.442   6.282 -0.0186 -0.2693 -0.1467
49510SOL    HW166140   4.067   7.512   6.229 -1.6716 -0.2935 -1.4734
49510SOL    HW266141   3.994   7.380   6.217 -0.0887 -1.4807  1.0029
49511SOL     OW66142  12.748   9.445   6.422 -0.3136 -0.4891 -0.7340
49511SOL    HW166143  12.757   9.520   6.480  0.9183 -0.7930 -0.5076
49511SOL    HW266144  12.698   9.478   6.348 -2.5978 -0.2967  0.8017
49512SOL     OW66145   9.456  13.308  11.032  0.5364 -0.2769 -0.3374
49512SOL    HW166146   9.433  13.256  11.110  1.3359  2.2528  1.7424
49512SOL    HW266147   9.551  13.319  11.038  0.6264 -0.1287 -1.7714
49513SOL     OW66148   2.911  12.610   9.922  0.0678  0.0705  0.2117
49513SOL    HW166149   2.914  12.615  10.018 -1.6487 -1.8459  0.4361
49513SOL    HW266150   2.995  12.572   9.897  0.3232  0.0892  1.0196
49514SOL     OW66151   8.210   1.347  14.041 -0.2184  0.0112 -0.1242
49514SOL    HW166152   8.179   1.410  14.106 -0.7754 -0.7202  0.3443
49514SOL    HW266153   8.130   1.315  13.999  0.0063 -0.7959  0.0430
49515SOL     OW66154  13.200   9.176   2.600  0.3385  0.3194  0.2110
49515SOL    HW166155  13.166   9.244   2.658  0.8078 -0.0610  0.9458
49515SOL    HW266156  13.136   9.172   2.529 -0.8316  0.0703  1.2319
49516SOL     OW66157  12.549  12.313   0.641  0.5979  0.3640  1.0139
49516SOL    HW166158  12.636  12.281   0.616  0.8420  1.8519 -0.2420
49516SOL    HW266159  12.489  12.271   0.580  0.5953  0.2574  1.0908
49517SOL     OW66160   5.544   2.290   1.931 -0.6186  0.3686 -0.7447
49517SOL    HW166161   5.500   2.271   2.015  0.1148  0.1709 -0.3942
49517SOL    HW266162   5.482   2.259   1.865 -0.8096 -0.3464 -0.2513
49518SOL     OW66163   4.829   3.847   6.175  0.1314  0.2165  0.0825
49518SOL    HW166164   4.884   3.873   6.249  0.5771 -0.3873 -0.0272
49518SOL    HW266165   4.749   3.898   6.185  0.7740  1.2299  0.1569
49519SOL     OW66166   7.608  12.805  10.953  0.4597  0.5185 -0.0203
49519SOL    HW166167   7.546  12.858  11.005  2.0093  2.5123 -0.0735
49519SOL    HW266168   7.600  12.841  10.864  0.9526  0.1065 -0.2329
49520SOL     OW66169   4.123  10.546   2.383 -0.1505 -0.3354  0.0189
49520SOL    HW166170   4.087  10.490   2.314  0.6420 -1.2457  0.3319
49520SOL    HW266171   4.115  10.635   2.348  0.7607 -0.8152 -1.5130
49521SOL     OW66172   1.722  12.656   4.113  0.0123  0.2019  0.0406
49521SOL    HW166173   1.641  12.605   4.110 -1.4670  2.4159 -0.2650
49521SOL    HW266174   1.705  12.725   4.177  1.4734  1.0065 -0.3875
49522SOL     OW66175   3.193  11.709   0.281  0.2272 -0.2486 -0.0481
49522SOL    HW166176   3.242  11.726   0.200  1.0316  0.7287  0.6202
49522SOL    HW266177   3.102  11.726   0.257  0.5578  0.9927 -0.5214
49523SOL     OW66178  12.439   1.204   9.247  0.1664 -0.0717 -0.6457
49523SOL    HW166179  12.529   1.236   9.235 -0.4374  1.8881 -0.1785
49523SOL    HW266180  12.403   1.259   9.316 -1.5023 -0.6647 -1.0082
49524SOL     OW66181  13.154   2.327   0.552 -0.2003  0.7417 -0.0084
49524SOL    HW166182  13.156   2.336   0.647  2.2845  0.4972  0.0404
49524SOL    HW266183  13.081   2.267   0.534  0.4331 -0.6942  1.9111
49525SOL     OW66184  11.696   7.347  10.986  0.2098  0.0226  0.6032
49525SOL    HW166185  11.765   7.285  11.006  0.9083 -0.5828 -3.0560
49525SOL    HW266186  11.729   7.431  11.020  1.5298 -0.7112  1.2141
49526SOL     OW66187   8.304   6.785   3.820  0.1135 -0.1539  0.5450
49526SOL    HW166188   8.390   6.776   3.860  0.2842 -1.1623 -0.0185
49526SOL    HW266189   8.277   6.695   3.800  0.5622  0.3133 -2.6988
49527SOL     OW66190   7.256   5.834   8.600  0.1685 -0.3056  0.0351
49527SOL    HW166191   7.181   5.853   8.656  1.2729  1.3677  1.0746
49527SOL    HW266192   7.219   5.805   8.518 -1.7116  1.9377 -0.0140
49528SOL     OW66193   2.587  12.382   8.762  1.0702  0.6957 -0.7517
49528SOL    HW166194   2.617  12.326   8.834 -0.0254  1.8580  0.6681
49528SOL    HW266195   2.665  12.428   8.733  1.7340 -0.5861 -1.0684
49529SOL     OW66196   3.973   6.708   6.765 -0.0681  0.2867  0.3616
49529SOL    HW166197   3.991   6.621   6.799  1.1868  0.4753  0.2586
49529SOL    HW266198   3.885   6.729   6.796 -1.1490 -1.7176 -1.1066
49530SOL     OW66199   9.054   3.247   6.507  0.1197  0.0063  0.1841
49530SOL    HW166200   9.096   3.181   6.452  0.7497 -0.9059  1.7065
49530SOL    HW266201   9.024   3.199   6.585  0.7916  1.5295  1.4375
49531SOL     OW66202   0.372  13.645   4.650 -0.5743  0.0479 -0.0907
49531SOL    HW166203   0.389  13.725   4.600 -0.6093  0.5706  0.7170
49531SOL    HW266204   0.407  13.575   4.595  1.1475  0.7738 -0.0060
49532SOL     OW66205  11.252  12.197   5.685 -0.4488  0.0233 -0.0082
49532SOL    HW166206  11.263  12.241   5.769 -0.3392 -0.2467  0.1197
49532SOL    HW266207  11.294  12.254   5.622  0.1802 -0.1693  0.2340
49533SOL     OW66208   2.090   0.956   0.253  0.1484 -0.7609  0.2456
49533SOL    HW166209   1.998   0.951   0.227  0.4297 -0.2511 -0.9682
49533SOL    HW266210   2.111   0.869   0.286 -0.6550 -1.0167  0.1006
49534SOL     OW66211  10.504   1.201   9.329 -0.2365  0.2506  0.4973
49534SOL    HW166212  10.511   1.234   9.419  0.7616  1.5797 -0.0345
49534SOL    HW266213  10.583   1.147   9.317 -0.2383  0.2831  0.3352
49535SOL     OW66214   8.228   4.282   1.642 -0.1872  0.1624 -0.2153
49535SOL    HW166215   8.152   4.321   1.684  0.3748  0.2517  0.7697
49535SOL    HW266216   8.288   4.355   1.628 -0.5290  0.1977 -1.5696
49536SOL     OW66217   4.463  10.117   1.550 -0.5189 -0.2859 -0.0557
49536SOL    HW166218   4.556  10.136   1.543 -0.8273  0.9778 -1.1846
49536SOL    HW266219   4.456  10.054   1.621  1.2244 -0.6326 -0.1585
49537SOL     OW66220  13.041   8.608   1.198  0.2372  0.8752  0.7312
49537SOL    HW166221  13.119   8.654   1.228 -0.8504  2.7824  0.8362
49537SOL    HW266222  12.977   8.623   1.267 -0.3166 -0.4167  0.5183
49538SOL     OW66223   1.146  10.763  13.049 -0.3750  0.1518 -0.3939
49538SOL    HW166224   1.109  10.837  13.098 -1.7310  0.1845 -1.4045
49538SOL    HW266225   1.080  10.694  13.057 -0.1647 -0.1680 -1.3731
49539SOL     OW66226   4.128  11.484   4.761 -0.1289 -0.4095  0.3157
49539SOL    HW166227   4.095  11.546   4.825  0.5614 -0.1098  0.3867
49539SOL    HW266228   4.126  11.531   4.678  1.1904  0.0074  0.5056
49540SOL     OW66229   3.525  10.477   6.649 -0.0940 -0.3397  0.5512
49540SOL    HW166230   3.554  10.391   6.681 -0.1662 -0.8712 -0.7464
49540SOL    HW266231   3.464  10.456   6.578 -0.9432  0.7886  0.9329
49541SOL     OW66232  12.232   5.347   4.326 -0.6856 -0.0925 -0.3243
49541SOL    HW166233  12.272   5.343   4.413  2.7389  1.9169 -1.6456
49541SOL    HW266234  12.267   5.271   4.280  0.7140  0.9744 -1.0886
49542SOL     OW66235   3.318   9.099   5.358 -0.1477  0.0705 -0.0123
49542SOL    HW166236   3.285   9.013   5.385 -1.0106  0.2150 -0.5986
49542SOL    HW266237   3.324   9.093   5.263 -0.3863  0.7228 -0.0703
49543SOL     OW66238   8.183   3.576  12.528 -0.1412 -0.3123 -0.6832
49543SOL    HW166239   8.179   3.541  12.439 -1.3416  0.3978 -0.9363
49543SOL    HW266240   8.275   3.593  12.543  0.1582 -1.0892 -1.5367
49544SOL     OW66241  11.584   3.461   5.947  0.7188  0.3102 -0.2983
49544SOL    HW166242  11.676   3.433   5.945  0.3005 -1.1185 -0.7002
49544SOL    HW266243  11.545   3.418   5.872 -0.5951 -0.1969  0.6485
49545SOL     OW66244   4.531   1.600  13.048 -0.4553  0.6648 -0.5430
49545SOL    HW166245   4.626   1.604  13.056 -0.4225 -0.3070 -0.3879
49545SOL    HW266246   4.511   1.507  13.045 -1.5000  0.8265  0.6168
49546SOL     OW66247   6.832   9.647   1.749  0.1861  0.5050 -0.2718
49546SOL    HW166248   6.903   9.652   1.813 -0.2217 -0.2285  0.2478
49546SOL    HW266249   6.863   9.586   1.683  0.2115  0.5152 -0.2696
49547SOL     OW66250   5.669   2.345   8.712 -0.0869  0.7606 -0.4438
49547SOL    HW166251   5.597   2.289   8.743  0.8032  1.6120  3.9315
49547SOL    HW266252   5.743   2.285   8.704 -0.5122  0.3929 -1.9084
49548SOL     OW66253   7.071  10.459  12.375 -0.3702 -0.3919  0.0314
49548SOL    HW166254   6.988  10.497  12.404 -0.3897  0.5697 -1.1646
49548SOL    HW266255   7.054  10.432  12.285  0.8529  0.6902 -0.5639
49549SOL     OW66256  12.927   4.984   8.558  0.0551 -0.2085 -0.9263
49549SOL    HW166257  12.985   5.045   8.513 -0.1403 -0.6259 -1.7671
49549SOL    HW266258  12.885   4.934   8.488 -1.0027 -0.2069 -0.3212
49550SOL     OW66259   9.870   0.754   4.071 -0.0873 -0.2902 -0.4105
49550SOL    HW166260   9.853   0.671   4.028 -0.1882  0.6678 -2.3022
49550SOL    HW266261   9.963   0.751   4.093  0.1429 -0.5004 -1.3815
49551SOL     OW66262   7.695   9.006   5.842  0.6138 -0.5914  0.0392
49551SOL    HW166263   7.621   9.066   5.854 -1.4723 -2.5756 -1.9335
49551SOL    HW266264   7.714   8.974   5.930  0.3983  1.3343  0.8333
49552SOL     OW66265  10.045  12.266   6.090 -0.2255 -0.1280 -0.0776
49552SOL    HW166266  10.133  12.235   6.110 -1.0126 -1.3498  1.7204
49552SOL    HW266267  10.023  12.325   6.162 -1.6026 -1.4018  0.6004
49553SOL     OW66268   8.170  11.680   6.576  0.1014  0.5530  0.3599
49553SOL    HW166269   8.236  11.630   6.625 -0.6506 -1.2629 -0.4183
49553SOL    HW266270   8.090  11.630   6.586 -1.2469  2.7499  1.3109
49554SOL     OW66271   8.391   4.760   0.693 -0.3986  0.2296 -0.1390
49554SOL    HW166272   8.328   4.768   0.764  0.2971 -0.2840  0.5499
49554SOL    HW266273   8.454   4.695   0.724 -0.6146 -0.7285 -1.6211
49555SOL     OW66274  10.030   7.075   3.715  0.0954  0.2384 -0.5154
49555SOL    HW166275  10.054   7.083   3.807 -0.5880  0.2765 -0.3344
49555SOL    HW266276   9.960   7.010   3.714  1.0563 -0.8296 -1.1898
49556SOL     OW66277   1.148  13.250  10.566  0.5294 -0.1091 -0.2111
49556SOL    HW166278   1.244  13.251  10.565  0.5332  0.2830 -2.2589
49556SOL    HW266279   1.123  13.210  10.483 -1.1022 -0.0064  0.1916
49557SOL     OW66280   7.987   8.525   0.879  0.1160 -0.6004  0.0524
49557SOL    HW166281   7.979   8.618   0.855  1.2655  0.0297  1.9282
49557SOL    HW266282   7.993   8.479   0.795 -1.9108  0.8317 -0.9659
49558SOL     OW66283   7.302   8.986   4.817  0.3936  0.1721  0.1906
49558SOL    HW166284   7.262   9.073   4.810 -2.6827 -0.9821  1.4397
49558SOL    HW266285   7.323   8.962   4.727 -1.1771  1.1891 -0.4969
49559SOL     OW66286  10.521  12.624   8.748 -0.4403 -0.0856  0.7090
49559SOL    HW166287  10.490  12.693   8.807 -1.0725 -0.6948  1.0908
49559SOL    HW266288  10.448  12.563   8.741 -0.3847 -0.0265 -0.7269
49560SOL     OW66289   5.975   3.695   6.513 -0.1965 -0.0608  0.0446
49560SOL    HW166290   6.041   3.745   6.466 -0.2327 -1.1579 -1.2247
49560SOL    HW266291   6.025   3.632   6.564 -0.2086  0.2783  0.4823
49561SOL     OW66292   5.086   2.530  10.646 -0.0564 -0.5902 -0.3197
49561SOL    HW166293   5.125   2.458  10.595  0.6878  0.3808 -1.1511
49561SOL    HW266294   5.124   2.520  10.733  1.7307  0.0308 -0.9845
49562SOL     OW66295   7.271   0.345  12.893 -0.1664  0.0295 -0.1379
49562SOL    HW166296   7.311   0.384  12.815  1.1387  0.7172  0.8199
49562SOL    HW266297   7.225   0.417  12.935 -0.5466 -0.2470 -0.0763
49563SOL     OW66298   5.131   4.971   8.441 -0.4282 -0.0281  0.0001
49563SOL    HW166299   5.164   4.949   8.528 -1.1433 -1.1071  0.0168
49563SOL    HW266300   5.206   4.959   8.384 -0.1930 -0.2219  0.3457
49564SOL     OW66301  11.423   2.327   6.773 -0.4445  0.3223  0.5753
49564SOL    HW166302  11.384   2.375   6.699 -1.1652  0.7477  1.2108
49564SOL    HW266303  11.515   2.315   6.748 -0.9614 -0.7252 -0.9773
49565SOL     OW66304   6.855   5.888   1.639 -0.3382 -0.5514  0.2604
49565SOL    HW166305   6.851   5.798   1.673  3.8816 -0.7513  0.7021
49565SOL    HW266306   6.793   5.937   1.693 -0.3180 -2.5718  2.2434
49566SOL     OW66307  10.289  10.468  12.805 -0.1842 -0.4491  1.0264
49566SOL    HW166308  10.335  10.452  12.888  0.6324 -1.5568  0.3980
49566SOL    HW266309  10.354  10.448  12.738 -0.3996  1.7470  0.0911
49567SOL     OW66310  12.004   9.022   5.295  0.5032 -0.6413  0.2671
49567SOL    HW166311  11.977   8.964   5.224  4.6692 -2.1787 -0.3158
49567SOL    HW266312  11.960   9.105   5.276 -1.6140 -2.1231 -1.7991
49568SOL     OW66313   9.882  12.968   3.355 -0.2869 -0.0323 -0.0024
49568SOL    HW166314   9.934  13.019   3.418 -0.4929 -1.0205  0.9937
49568SOL    HW266315   9.877  12.881   3.394 -3.6437  0.2766  0.5004
49569SOL     OW66316  13.216   6.944  13.121 -0.0335  0.0181 -0.2170
49569SOL    HW166317  13.292   6.915  13.173 -0.0583  0.4821  0.0796
49569SOL    HW266318  13.163   6.864  13.111 -0.0126 -0.0897  0.4464
49570SOL     OW66319  13.792   2.321   0.771  0.1938 -0.5030 -0.2005
49570SOL    HW166320  13.698   2.333   0.771  0.2986  0.4999 -1.3577
49570SOL    HW266321  13.826   2.395   0.720  1.5897 -0.9142  0.0845
49571SOL     OW66322  12.125   3.103   7.565 -0.1973  0.2485  0.7493
49571SOL    HW166323  12.188   3.066   7.502 -0.4741  0.2340  0.4768
49571SOL    HW266324  12.040   3.086   7.525 -0.3244  1.3392  0.5352
49572SOL     OW66325  11.617   4.630   4.248 -0.1418 -0.1659  0.0357
49572SOL    HW166326  11.683   4.688   4.286  0.2476 -0.3963 -0.2847
49572SOL    HW266327  11.667   4.567   4.196 -0.6819  0.3497 -1.1415
49573SOL     OW66328  11.731   2.458  13.099 -1.1954  0.1653 -0.8062
49573SOL    HW166329  11.665   2.390  13.114  1.2868 -2.5527 -1.1867
49573SOL    HW266330  11.789   2.452  13.174  0.7242 -0.2722 -2.2422
49574SOL     OW66331   7.531  10.517  12.149 -0.3466  0.0302 -0.5229
49574SOL    HW166332   7.495  10.594  12.194  1.0002  0.6389 -0.4425
49574SOL    HW266333   7.528  10.540  12.056 -3.5372 -1.4007 -0.9090
49575SOL     OW66334   2.639   6.887  13.863 -0.3974  0.6227 -0.3458
49575SOL    HW166335   2.583   6.964  13.851  0.5450  1.3260 -0.3067
49575SOL    HW266336   2.660   6.859  13.774 -0.4992  0.5826 -0.3574
49576SOL     OW66337   1.322   1.366  10.552  0.0412  0.1249  0.0227
49576SOL    HW166338   1.307   1.310  10.628  1.2077 -0.3540 -0.0854
49576SOL    HW266339   1.248   1.427  10.552 -0.7578 -0.8191  0.6790
49577SOL     OW66340   4.690  11.133   3.223 -0.4174  0.2510 -0.4420
49577SOL    HW166341   4.669  11.211   3.274  2.5833  1.2338 -0.5050
49577SOL    HW266342   4.738  11.166   3.147  0.0884 -1.5944 -0.9837
49578SOL     OW66343   0.206  12.522   6.023  0.2926 -0.0592 -0.0233
49578SOL    HW166344   0.171  12.586   5.960 -0.5079 -1.5796 -1.1793
49578SOL    HW266345   0.156  12.538   6.103 -0.8279 -0.0900 -0.6969
49579SOL     OW66346  11.645   5.695   0.428  0.1420  0.2501 -0.0744
49579SOL    HW166347  11.729   5.696   0.474  0.5352  0.1513 -0.7721
49579SOL    HW266348  11.584   5.656   0.490  0.5957  0.3866  0.4657
49580SOL     OW66349   4.115  12.244   0.710 -0.2114  0.4318  0.3413
49580SOL    HW166350   4.117  12.191   0.790  0.4402 -0.8407 -0.4904
49580SOL    HW266351   4.034  12.218   0.666  0.2043 -0.0478 -0.1622
49581SOL     OW66352   3.273   8.663   1.494  0.6443 -0.9584 -0.0959
49581SOL    HW166353   3.366   8.653   1.515  0.5912 -3.1134 -0.6843
49581SOL    HW266354   3.261   8.616   1.412 -0.8940 -0.3210 -0.2698
49582SOL     OW66355   2.094   6.764   1.632  0.5521 -0.0249 -0.1725
49582SOL    HW166356   2.039   6.747   1.709  1.2069 -0.8155  0.1368
49582SOL    HW266357   2.053   6.838   1.589 -0.2764 -0.0730  0.5152
49583SOL     OW66358   7.525  13.143   5.802 -0.3756  0.1119  0.1439
49583SOL    HW166359   7.535  13.224   5.852 -0.9031 -0.7383  1.6891
49583SOL    HW266360   7.551  13.074   5.863  1.6155 -0.8245 -1.6253
49584SOL     OW66361   0.005   5.196   4.077  0.1103 -0.6650 -0.4523
49584SOL    HW166362  -0.067   5.134   4.065 -1.3786  0.4765  1.8106
49584SOL    HW266363   0.057   5.158   4.148  0.7845 -0.6718 -0.9525
49585SOL     OW66364   1.899   0.101   6.387  0.3484 -0.4982  0.0014
49585SOL    HW166365   1.873   0.012   6.365 -3.8168  0.5740 -0.2913
49585SOL    HW266366   1.848   0.156   6.329  0.5743  2.1288  2.0950
49586SOL     OW66367   3.446   2.278   5.155  0.0030 -0.2372 -0.1871
49586SOL    HW166368   3.389   2.211   5.118 -0.3222 -1.8509  2.8976
49586SOL    HW266369   3.534   2.255   5.124 -0.0847 -2.2281  0.8899
49587SOL     OW66370   9.703   6.401   3.204 -0.3385 -0.2405  0.4710
49587SOL    HW166371   9.646   6.336   3.245 -2.0980  0.7299 -0.3420
49587SOL    HW266372   9.650   6.480   3.198  0.8239  0.4860 -1.0510
49588SOL     OW66373  11.958   0.478  12.498  0.1147  0.0325  0.2917
49588SOL    HW166374  12.005   0.403  12.533 -0.6805 -1.2415 -1.2606
49588SOL    HW266375  11.865   0.458  12.513 -0.0911  1.1105  0.6040
49589SOL     OW66376   3.893   8.616  13.706  0.0551  0.1500  0.0716
49589SOL    HW166377   3.879   8.597  13.799  0.3416  0.6634  0.2253
49589SOL    HW266378   3.953   8.691  13.706  0.9938 -0.5837 -0.5460
49590SOL     OW66379   3.416   0.526   4.874 -0.0878 -0.0187  0.7678
49590SOL    HW166380   3.470   0.603   4.860  1.6645 -1.6203 -2.3987
49590SOL    HW266381   3.477   0.460   4.908  0.0220 -1.7102 -2.3873
49591SOL     OW66382   6.204  10.253   1.123 -0.0738  0.3874  0.1517
49591SOL    HW166383   6.177  10.310   1.050  0.7576  2.1726  1.1603
49591SOL    HW266384   6.127  10.199   1.140 -0.9060  1.1888 -0.8944
49592SOL     OW66385  10.721   2.867   8.519  0.1881 -0.4547  0.7260
49592SOL    HW166386  10.668   2.946   8.513 -0.4246 -0.9331 -0.5453
49592SOL    HW266387  10.800   2.895   8.565  0.3312  1.1100 -0.3629
49593SOL     OW66388   4.365   9.473   7.471 -0.1929  0.2946 -0.0344
49593SOL    HW166389   4.375   9.492   7.378  0.7042  2.3303  0.4233
49593SOL    HW266390   4.450   9.438   7.498 -0.7481 -1.2032 -0.1410
49594SOL     OW66391   3.980   7.356   4.894 -0.1433  0.2749  0.1407
49594SOL    HW166392   3.888   7.364   4.919 -0.0015  0.3879  0.6390
49594SOL    HW266393   4.028   7.371   4.975  0.4250  3.0976 -0.5812
49595SOL     OW66394  13.456   3.886   6.198 -0.0187  0.4085 -0.1391
49595SOL    HW166395  13.420   3.806   6.236  3.6285 -0.6683  1.5764
49595SOL    HW266396  13.486   3.859   6.111  1.0515 -0.1453  0.3705
49596SOL     OW66397   1.469   4.385   3.313  0.5244  0.3139  0.2737
49596SOL    HW166398   1.463   4.455   3.247  1.3071  0.4618  0.3439
49596SOL    HW266399   1.386   4.390   3.360  0.7325  1.5049  0.5659
49597SOL     OW66400   9.839   0.681   1.512 -0.0530 -0.5196  0.2617
49597SOL    HW166401   9.833   0.671   1.417  2.4725  0.9639 -0.1324
49597SOL    HW266402   9.788   0.759   1.531 -0.6764 -0.8953  0.1899
49598SOL     OW66403   4.737   3.656   6.421 -0.3559  0.0080 -0.3396
49598SOL    HW166404   4.755   3.596   6.349  1.2527  0.5805 -0.4676
49598SOL    HW266405   4.656   3.624   6.460 -0.0562 -1.6560 -1.0046
49599SOL     OW66406   4.760   2.248  13.807 -0.2601  0.3524 -0.0046
49599SOL    HW166407   4.747   2.340  13.784 -0.7377 -0.0998 -1.6973
49599SOL    HW266408   4.833   2.248  13.869  0.0306  1.8291 -0.3226
49600SOL     OW66409   7.737   7.960   3.339  0.6676 -0.0217 -0.3660
49600SOL    HW166410   7.650   7.960   3.377  0.6685 -2.0537 -0.2311
49600SOL    HW266411   7.725   7.989   3.249  0.0786  1.0360  0.0444
49601SOL     OW66412   7.689  12.758   6.146  0.4642  0.3412  0.3469
49601SOL    HW166413   7.610  12.710   6.169  0.0084  1.9086  2.3243
49601SOL    HW266414   7.658  12.842   6.114  1.3120  0.1679 -1.0359
49602SOL     OW66415   0.459   8.108  12.676  0.1709 -0.6412 -0.2453
49602SOL    HW166416   0.476   8.188  12.626  0.7032  0.4600  1.5884
49602SOL    HW266417   0.537   8.096  12.730 -0.5175 -1.5466  0.5999
49603SOL     OW66418   6.370   7.750   5.521  0.1467  0.2242  0.5648
49603SOL    HW166419   6.375   7.760   5.426  0.3824  1.3990  0.6892
49603SOL    HW266420   6.359   7.839   5.554 -2.1043 -0.3343  1.5265
49604SOL     OW66421   4.149   4.845   6.002  0.3850  0.0967 -0.1828
49604SOL    HW166422   4.138   4.938   5.982 -1.3520 -0.2064 -0.8017
49604SOL    HW266423   4.079   4.825   6.064  0.5900 -0.8522 -0.2423
49605SOL     OW66424   8.163  11.837   9.943 -0.2049 -0.2985 -0.0637
49605SOL    HW166425   8.218  11.875   9.875 -0.0890 -0.4665 -0.0652
49605SOL    HW266426   8.096  11.903   9.959 -1.2682 -0.9599 -1.5642
49606SOL     OW66427   2.187   5.152  13.169  0.0687 -0.3329  0.0040
49606SOL    HW166428   2.182   5.122  13.079  2.4235  0.1592 -0.3791
49606SOL    HW266429   2.160   5.077  13.222 -1.6422 -0.5185 -1.0967
49607SOL     OW66430   1.179  11.891  13.881  0.1370 -0.0151  0.4180
49607SOL    HW166431   1.108  11.892  13.817 -1.0912  0.1582  1.7395
49607SOL    HW266432   1.137  11.873  13.965  1.6059  0.3919  1.2962
49608SOL     OW66433  13.003  12.134  10.321 -0.2447 -0.1468  0.2256
49608SOL    HW166434  12.994  12.072  10.394 -2.3789  0.0576  0.1882
49608SOL    HW266435  12.934  12.198  10.336  0.1230  0.6347 -1.2834
49609SOL     OW66436   7.331   3.261   2.762 -0.0901 -0.1482  0.5683
49609SOL    HW166437   7.360   3.299   2.679 -0.4782  0.2705  0.6210
49609SOL    HW266438   7.405   3.271   2.821  0.3014 -0.7282  0.1897
49610SOL     OW66439   3.567  12.808   1.213  0.0307 -0.4789  0.0987
49610SOL    HW166440   3.487  12.757   1.200 -0.3960 -0.3657  2.0534
49610SOL    HW266441   3.614  12.763   1.283  0.8942  0.3667  0.0936
49611SOL     OW66442   5.569   8.148   2.608  0.2584  0.0185  0.2572
49611SOL    HW166443   5.499   8.089   2.580  1.2828  0.0209 -2.5784
49611SOL    HW266444   5.635   8.090   2.645  0.8884 -0.6000 -1.7296
49612SOL     OW66445  13.556   7.916  13.146 -0.0596 -0.2834  0.2690
49612SOL    HW166446  13.643   7.927  13.107  0.7126 -0.5540  1.8357
49612SOL    HW266447  13.556   7.828  13.181 -0.8072 -0.1206  0.7014
49613SOL     OW66448  12.125  13.712   0.080 -0.2659  0.1889  0.2881
49613SOL    HW166449  12.127  13.616   0.071  1.3710  0.2089  0.1449
49613SOL    HW266450  12.187  13.743   0.015  0.2359  1.2669  1.2590
49614SOL     OW66451  12.547   2.264   4.965 -0.2415  0.2628  0.1907
49614SOL    HW166452  12.623   2.321   4.951  0.7355 -0.4342  2.2315
49614SOL    HW266453  12.571   2.181   4.922 -0.5165  0.5164 -0.4649
49615SOL     OW66454   1.787   3.909   3.751  0.0669 -0.3551 -0.6657
49615SOL    HW166455   1.775   3.886   3.843  1.1892  0.0539 -0.3976
49615SOL    HW266456   1.699   3.913   3.715 -0.4634  0.7350  0.6961
49616SOL     OW66457   6.026   1.136   8.302  0.5015  0.5332 -0.0077
49616SOL    HW166458   6.093   1.202   8.316  1.4468 -0.4400  0.2046
49616SOL    HW266459   6.040   1.106   8.212  2.4443 -1.8440  0.9549
49617SOL     OW66460  10.491   9.390   2.898  0.3250 -0.5940 -0.2583
49617SOL    HW166461  10.544   9.470   2.892  1.0501 -1.1397 -1.4002
49617SOL    HW266462  10.476   9.379   2.992  0.6081  0.6285 -0.0510
49618SOL     OW66463   7.759   1.065  10.082 -0.4082 -0.3000 -0.2301
49618SOL    HW166464   7.769   1.111   9.999 -1.7405  0.5587  0.0584
49618SOL    HW266465   7.833   1.004  10.084  0.3330  0.5037 -1.4805
49619SOL     OW66466   7.418   2.062   4.479  0.0041 -0.3239  0.1028
49619SOL    HW166467   7.453   2.000   4.415 -1.2178 -1.8766  0.8773
49619SOL    HW266468   7.460   2.037   4.562 -1.5078 -1.0411  0.6837
49620SOL     OW66469  12.378   9.741   7.309 -0.5221 -0.7115 -0.3555
49620SOL    HW166470  12.288   9.767   7.326  0.0557  0.3989  1.3032
49620SOL    HW266471  12.395   9.770   7.219 -1.1481  1.1220  0.0756
49621SOL     OW66472   6.140   2.462   3.310  0.1809  0.1677 -0.5783
49621SOL    HW166473   6.214   2.490   3.258  0.8135 -1.0458 -0.3623
49621SOL    HW266474   6.064   2.501   3.267  0.7901  0.0778 -1.7649
49622SOL     OW66475   2.257  10.219   3.717 -0.0089 -0.1910 -0.3583
49622SOL    HW166476   2.287  10.310   3.711 -0.8158  0.2502  1.5931
49622SOL    HW266477   2.325  10.168   3.673  0.8615  1.2814 -0.7693
49623SOL     OW66478   9.190   5.518   0.370  0.1213 -0.2507 -0.1793
49623SOL    HW166479   9.127   5.449   0.389  0.1774 -0.3033 -0.1829
49623SOL    HW266480   9.239   5.529   0.451 -0.9811  0.9397  0.3591
49624SOL     OW66481   0.143   8.927  12.815  0.5263 -0.0371 -0.0104
49624SOL    HW166482   0.149   8.891  12.903  1.4284  0.4349  0.1318
49624SOL    HW266483   0.230   8.963  12.797 -0.0272  1.0866 -0.5658
49625SOL     OW66484  11.931  12.495  12.237 -0.2501 -0.1933  0.1152
49625SOL    HW166485  11.999  12.541  12.188 -0.1496 -0.0063  0.4257
49625SOL    HW266486  11.943  12.403  12.215 -1.2299  0.0179 -1.4920
49626SOL     OW66487   3.302   4.033  13.287 -0.2029  0.1018  0.1356
49626SOL    HW166488   3.341   3.959  13.240 -1.2706 -0.4139  0.0407
49626SOL    HW266489   3.213   4.005  13.306 -0.4913  1.2114  0.4691
49627SOL     OW66490   9.511   2.287   6.775  0.3198 -0.0665  0.1848
49627SOL    HW166491   9.585   2.258   6.720 -0.6511 -1.6857 -0.3351
49627SOL    HW266492   9.433   2.263   6.724 -0.5770  0.1504  1.4294
49628SOL     OW66493   9.994  13.245   4.762 -0.0729 -0.1733 -0.4826
49628SOL    HW166494   9.906  13.248   4.723 -0.6275 -0.0052  0.7540
49628SOL    HW266495   9.984  13.289   4.846  0.9775 -1.0257  0.1024
49629SOL     OW66496   8.997   5.503   0.747  0.1272 -0.4888 -0.4508
49629SOL    HW166497   8.995   5.447   0.669  0.1947 -1.3028  0.1207
49629SOL    HW266498   9.035   5.585   0.716 -0.5495 -0.5295 -1.4457
49630SOL     OW66499   9.195   6.745  12.996 -0.4453  0.1898  0.0667
49630SOL    HW166500   9.279   6.766  13.036  0.0102 -1.0145 -0.2204
49630SOL    HW266501   9.183   6.652  13.012 -0.2683 -0.3467 -2.5106
49631SOL     OW66502   0.541  11.411  12.723 -0.1535 -0.3426  0.5526
49631SOL    HW166503   0.447  11.429  12.711  0.0595  0.6123  0.1708
49631SOL    HW266504   0.579  11.423  12.636  0.2827 -1.0286  0.6434
49632SOL     OW66505   6.298   7.843   0.854  0.2522  0.2149 -0.7135
49632SOL    HW166506   6.367   7.892   0.898 -0.3489  0.5803 -0.1590
49632SOL    HW266507   6.245   7.909   0.810 -0.1090 -0.0027 -0.6139
49633SOL     OW66508  11.195   9.265   5.357 -0.4259 -0.1705 -0.1821
49633SOL    HW166509  11.173   9.299   5.444 -1.6236 -2.5647  0.5159
49633SOL    HW266510  11.137   9.312   5.298  0.8262  1.9459  0.1305
49634SOL     OW66511   4.890  12.003  11.079 -0.0799 -0.4067 -0.1525
49634SOL    HW166512   4.946  11.933  11.113 -2.4927 -1.5009  1.8316
49634SOL    HW266513   4.930  12.083  11.113  0.2575 -1.1586  1.2995
49635SOL     OW66514  13.417   0.957  13.929 -0.0348  0.0882 -0.2402
49635SOL    HW166515  13.496   0.905  13.942  1.1790  1.4757 -1.6723
49635SOL    HW266516  13.373   0.916  13.855 -0.6010 -0.5740  0.4418
49636SOL     OW66517   9.915   2.882   9.212  0.3188  0.1776  0.2169
49636SOL    HW166518  10.006   2.881   9.180  0.4914  0.2139  0.7031
49636SOL    HW266519   9.908   2.803   9.266 -0.6421 -1.1610 -1.7151
49637SOL     OW66520   3.877   6.141   6.927 -0.2832 -0.3940 -0.4300
49637SOL    HW166521   3.816   6.141   6.854 -2.3031  0.0497  1.1727
49637SOL    HW266522   3.866   6.227   6.968  2.3119  0.1703 -0.7388
49638SOL     OW66523   4.723   3.536   7.184  0.2770 -0.0737  0.1910
49638SOL    HW166524   4.774   3.615   7.204 -1.1639  0.5304  1.7206
49638SOL    HW266525   4.648   3.541   7.243  0.6567 -3.1298  1.0870
49639SOL     OW66526   7.166  10.173   4.772 -0.5265  0.0913 -0.4654
49639SOL    HW166527   7.137  10.082   4.769  0.2791 -0.1771 -0.1910
49639SOL    HW266528   7.103  10.216   4.831 -2.2647  0.2342 -2.3108
49640SOL     OW66529   9.267   6.924   3.668 -0.0637 -0.4446  0.0756
49640SOL    HW166530   9.185   6.924   3.619 -1.2610 -0.3426  1.9646
49640SOL    HW266531   9.281   7.016   3.692  0.8673 -0.3933 -0.6207
49641SOL     OW66532   2.211  12.113   6.045 -0.3912 -0.0879  0.0031
49641SOL    HW166533   2.120  12.141   6.037 -0.7919 -1.3068  0.1093
49641SOL    HW266534   2.244  12.163   6.120 -0.3278  1.9198 -1.2953
49642SOL     OW66535  11.127  12.527   2.784  0.6821 -0.3169  0.6482
49642SOL    HW166536  11.093  12.607   2.746  1.1698 -0.6704 -0.5919
49642SOL    HW266537  11.209  12.554   2.826 -0.3120  0.2460  2.3152
49643SOL     OW66538  10.705   4.457  12.180  0.1855 -0.0732  0.0377
49643SOL    HW166539  10.684   4.414  12.263 -0.1313 -1.0696 -0.5434
49643SOL    HW266540  10.801   4.465  12.180  0.2512 -0.8789  0.1039
49644SOL     OW66541   4.833  12.704   3.474 -0.2255 -0.3247  0.1340
49644SOL    HW166542   4.836  12.609   3.472 -1.1852 -0.3484 -0.3232
49644SOL    HW266543   4.827  12.730   3.382  2.7970  0.3003  0.0124
49645SOL     OW66544   3.636   9.984   0.060  0.3913 -0.3176 -0.2780
49645SOL    HW166545   3.701  10.037   0.106 -0.3117  0.8350 -0.5745
49645SOL    HW266546   3.620   9.910   0.119  0.5253  0.4198  0.7066
49646SOL     OW66547  13.398   7.729   0.603  0.1871  0.0555 -0.1998
49646SOL    HW166548  13.419   7.636   0.594 -0.9167 -0.1780 -0.5084
49646SOL    HW266549  13.456   7.773   0.541  1.1139 -0.3637  0.3547
49647SOL     OW66550   9.282  10.354   6.213  0.2333  0.5433  0.1634
49647SOL    HW166551   9.187  10.350   6.211  0.2204  0.9887 -1.4654
49647SOL    HW266552   9.302  10.434   6.262 -0.1889 -0.0833  1.3904
49648SOL     OW66553   5.546   8.901   3.938 -0.1593  0.1525 -0.0313
49648SOL    HW166554   5.516   8.871   4.024 -1.0588  1.0761 -0.0118
49648SOL    HW266555   5.469   8.895   3.882  0.6691 -1.4588 -1.0813
49649SOL     OW66556   2.578   1.871   8.332  0.4976 -1.0252 -0.1376
49649SOL    HW166557   2.645   1.842   8.394  0.8929  2.6051  1.3966
49649SOL    HW266558   2.498   1.877   8.385  0.9086  2.4186  0.2907
49650SOL     OW66559   7.708   3.641  13.981  0.7389 -0.7084  0.6483
49650SOL    HW166560   7.684   3.553  14.009  0.5405 -0.6328  0.7206
49650SOL    HW266561   7.624   3.684  13.965  0.8154 -0.2817  1.3764
49651SOL     OW66562   6.316   0.894   6.145 -0.2637  0.7556  0.0991
49651SOL    HW166563   6.375   0.968   6.156  0.0927  0.2288  2.2825
49651SOL    HW266564   6.373   0.817   6.148 -0.8619  0.3069  0.1782
49652SOL     OW66565   0.611   7.132   9.181  0.2449 -0.1202 -0.6975
49652SOL    HW166566   0.702   7.152   9.203  0.3394 -0.9303 -0.3228
49652SOL    HW266567   0.605   7.145   9.086  0.8801 -0.5643 -0.8003
49653SOL     OW66568   6.612   1.353   6.983  0.3510  0.5758  1.1484
49653SOL    HW166569   6.658   1.417   7.037  1.6452 -0.5230  1.3981
49653SOL    HW266570   6.531   1.336   7.030  0.7956  0.7200  1.9806
49654SOL     OW66571  11.647  13.404   9.467 -0.4485 -0.0998  0.1839
49654SOL    HW166572  11.612  13.374   9.551  1.8341  0.0879  1.2685
49654SOL    HW266573  11.646  13.499   9.473 -0.4675 -0.0806 -0.0944
49655SOL     OW66574  12.183   8.420   3.583  0.1331 -0.0419  0.1697
49655SOL    HW166575  12.227   8.459   3.659  2.8448 -2.6395  0.1456
49655SOL    HW266576  12.128   8.351   3.620 -0.7152  0.4891 -0.0818
49656SOL     OW66577  10.908   5.509   2.641  0.3629 -0.2262  0.6909
49656SOL    HW166578  10.989   5.511   2.591 -0.1089  1.3884 -0.0731
49656SOL    HW266579  10.840   5.494   2.575 -0.2864  2.1396  0.7540
49657SOL     OW66580   7.755  11.527   5.893 -0.1738  0.4572 -0.0588
49657SOL    HW166581   7.792  11.546   5.807  1.7248  0.5617  0.7390
49657SOL    HW266582   7.767  11.433   5.904  0.8671  0.6479  0.6190
49658SOL     OW66583   4.201  10.858  12.170 -0.2358  0.1694 -0.6654
49658SOL    HW166584   4.185  10.764  12.175 -1.8279  0.2868 -2.3939
49658SOL    HW266585   4.141  10.896  12.235 -1.0257  0.0809 -1.3239
49659SOL     OW66586   6.393   7.264  12.337  0.5736 -0.2207 -0.6838
49659SOL    HW166587   6.388   7.270  12.242  1.7036  1.7057 -0.6716
49659SOL    HW266588   6.482   7.294  12.359  0.6466 -1.4553  0.9336
49660SOL     OW66589   9.237  11.085   1.270 -0.2616  0.5125 -0.1251
49660SOL    HW166590   9.248  11.048   1.358 -1.8851 -0.7910 -0.4209
49660SOL    HW266591   9.143  11.097   1.261 -0.2986 -0.9016 -2.2541
49661SOL     OW66592   4.323   9.498   7.211  0.2415  0.7261 -0.0959
49661SOL    HW166593   4.397   9.556   7.223 -0.4331  1.7272 -0.5866
49661SOL    HW266594   4.312   9.493   7.116  1.2317 -1.4656 -0.1547
49662SOL     OW66595  10.924  12.179   9.460 -0.0184  0.2059 -0.2465
49662SOL    HW166596  10.880  12.107   9.505  0.0835  0.0777 -0.3520
49662SOL    HW266597  11.002  12.139   9.421  0.1746  0.4291 -0.0876
49663SOL     OW66598   8.881  13.444  11.597  0.1464 -0.3232 -0.1505
49663SOL    HW166599   8.879  13.406  11.509 -1.1916  0.3652 -0.4480
49663SOL    HW266600   8.802  13.409  11.639 -0.6920  1.4500 -0.1644
49664SOL     OW66601   8.445   2.558   4.365 -0.4151  0.2579 -0.0869
49664SOL    HW166602   8.431   2.648   4.394  0.1042  0.4780 -0.5044
49664SOL    HW266603   8.538   2.554   4.341 -0.2697 -0.5704  0.5620
49665SOL     OW66604  12.736   2.396   9.543 -0.1072 -0.0691 -0.1905
49665SOL    HW166605  12.772   2.318   9.585 -1.4457 -0.2767  0.6394
49665SOL    HW266606  12.670   2.362   9.482  0.1970  0.3635 -0.7748
49666SOL     OW66607  11.946   1.227   8.055  0.1812 -0.9605  0.3164
49666SOL    HW166608  11.860   1.187   8.069 -0.2300 -0.6068 -0.9945
49666SOL    HW266609  12.004   1.153   8.039 -0.0541 -1.1664  0.4073
49667SOL     OW66610   7.066  11.103   7.630 -0.4225  0.0354 -0.6902
49667SOL    HW166611   7.119  11.142   7.561 -0.4366  1.3170 -0.0143
49667SOL    HW266612   7.015  11.176   7.665 -1.5157 -0.8752 -0.3137
49668SOL     OW66613  11.216   6.959   1.346  0.1220  0.1066  0.0283
49668SOL    HW166614  11.214   7.009   1.264  2.2737  1.9897  0.9897
49668SOL    HW266615  11.242   7.024   1.412 -0.2189 -1.6421  1.9772
49669SOL     OW66616   5.193   2.846   3.037 -0.0051  0.4147  0.3308
49669SOL    HW166617   5.274   2.810   3.000 -1.2932 -2.8134  0.3063
49669SOL    HW266618   5.141   2.871   2.961  0.9600  2.7185  0.3508
49670SOL     OW66619   2.062   4.298   8.309  0.2967 -0.4531 -0.0159
49670SOL    HW166620   2.128   4.351   8.263  1.1041 -0.5550  0.9984
49670SOL    HW266621   1.998   4.277   8.241  0.2540  1.3200 -0.5771
49671SOL     OW66622   9.068  13.997  10.045 -0.2944  0.2442  0.3064
49671SOL    HW166623   8.987  14.007  10.094 -0.5856  2.2990 -0.4856
49671SOL    HW266624   9.112  13.923  10.086 -1.5483  0.4625  2.1755
49672SOL     OW66625   4.966  13.755  13.162  0.2952  0.2900  0.0942
49672SOL    HW166626   4.909  13.680  13.144 -2.4652  2.5674 -1.3955
49672SOL    HW266627   4.951  13.774  13.254  1.0772 -0.9254  0.5124
49673SOL     OW66628   6.019   4.141   7.489  0.3123  0.0293 -0.3852
49673SOL    HW166629   6.086   4.167   7.553 -0.0568 -0.2725  0.1291
49673SOL    HW266630   5.988   4.056   7.520 -0.9435  0.5683 -0.1014
49674SOL     OW66631   3.383   4.895   2.757  0.0559 -0.6338 -0.5550
49674SOL    HW166632   3.362   4.881   2.849  0.6518  0.0929 -0.2903
49674SOL    HW266633   3.438   4.973   2.757 -2.2581  1.1430 -1.7853
49675SOL     OW66634   7.211   0.530  10.618  0.6174 -0.0608 -0.3086
49675SOL    HW166635   7.151   0.558  10.687 -1.4430 -0.7955 -1.7029
49675SOL    HW266636   7.215   0.605  10.558  1.7839  0.2920  0.1960
49676SOL     OW66637   9.032   9.228   3.049 -0.5197  0.1932  0.1197
49676SOL    HW166638   9.047   9.146   3.001  1.2973  0.1548  0.7156
49676SOL    HW266639   9.006   9.200   3.137  1.0635  0.2132  0.6210
49677SOL     OW66640   4.732   5.381   2.025  0.4235  0.3984 -0.1425
49677SOL    HW166641   4.752   5.465   2.068  0.6139  0.2362  0.0866
49677SOL    HW266642   4.767   5.315   2.084  0.2741  0.1556 -0.3262
49678SOL     OW66643   3.665  13.966   9.302 -0.0542 -0.0674 -0.0523
49678SOL    HW166644   3.617  13.886   9.282 -1.3569  0.3346  1.3194
49678SOL    HW266645   3.755  13.937   9.319 -0.4992 -1.2314  0.3934
49679SOL     OW66646   5.071  11.794   9.142  0.3298 -0.2482 -0.7384
49679SOL    HW166647   5.015  11.790   9.065  1.0780  0.1481 -1.3161
49679SOL    HW266648   5.013  11.774   9.215 -0.4359 -0.4124 -1.3796
49680SOL     OW66649  12.753   9.171   7.344  0.1893 -0.0134 -0.0162
49680SOL    HW166650  12.797   9.116   7.409 -0.0919  0.3034  0.4454
49680SOL    HW266651  12.660   9.168   7.368  0.1481  0.5148 -0.0920
49681SOL     OW66652   4.389   0.201   4.997  0.3742 -0.3043 -0.3403
49681SOL    HW166653   4.467   0.221   5.047  0.5424  2.1883 -1.4637
49681SOL    HW266654   4.414   0.215   4.905 -0.9529 -1.0114 -0.8532
49682SOL     OW66655   9.617  10.808   2.049  0.1651  0.3779  0.3949
49682SOL    HW166656   9.542  10.853   2.007 -0.0506  0.2332  0.6239
49682SOL    HW266657   9.660  10.877   2.099  0.0644  0.4163  0.4297
49683SOL     OW66658   4.754  11.631   3.021 -0.2311 -0.3906 -0.2956
49683SOL    HW166659   4.709  11.661   2.941  2.1528  1.2445 -1.1352
49683SOL    HW266660   4.823  11.573   2.989 -0.5155 -1.3635  0.8059
49684SOL     OW66661   9.664   8.953   4.280 -0.2279  0.6822 -0.6773
49684SOL    HW166662   9.575   8.988   4.274 -0.0010  1.2636 -0.7040
49684SOL    HW266663   9.659   8.891   4.353 -0.8476  0.0932 -1.1988
49685SOL     OW66664   3.536  11.496   7.015  0.4144  0.2195  0.2728
49685SOL    HW166665   3.496  11.507   6.928  0.9579  1.0139  0.1195
49685SOL    HW266666   3.630  11.502   6.999  0.5325 -0.0226  0.8686
49686SOL     OW66667   3.004  13.864   7.594  0.0691  0.5498  0.4332
49686SOL    HW166668   2.937  13.801   7.567  0.3347  0.1650  0.6596
49686SOL    HW266669   2.958  13.948   7.597  0.0926  0.6779 -1.5148
49687SOL     OW66670  11.454   1.996   0.805 -0.1912  0.1253 -0.4201
49687SOL    HW166671  11.526   1.981   0.743  1.1521 -1.6842  1.4522
49687SOL    HW266672  11.391   1.927   0.786  1.1029 -1.6498  1.3394
49688SOL     OW66673   4.365   1.280   3.738  0.5309  0.0974 -0.6650
49688SOL    HW166674   4.338   1.223   3.665  0.4574  0.0159 -0.5748
49688SOL    HW266675   4.421   1.346   3.697  2.4455 -1.3192 -0.4461
49689SOL     OW66676   2.014   8.833  13.786  0.2796 -0.0048  0.1658
49689SOL    HW166677   2.084   8.851  13.723  0.1961 -0.9222 -0.1900
49689SOL    HW266678   2.054   8.773  13.849 -0.4656 -1.3142 -0.5816
49690SOL     OW66679   8.721  11.789   6.639  0.0724 -0.1655  0.2887
49690SOL    HW166680   8.784  11.826   6.577 -0.0061 -0.2292  0.1711
49690SOL    HW266681   8.659  11.861   6.655 -0.1108 -0.2612  0.0196
49691SOL     OW66682   0.652   5.743  10.096  0.2319 -0.1081  0.3277
49691SOL    HW166683   0.690   5.740  10.008 -1.0414  1.2006 -0.3118
49691SOL    HW266684   0.722   5.777  10.151  0.5879  0.4555 -0.4575
49692SOL     OW66685   6.200   3.400   1.051  0.1975 -0.2480  0.3218
49692SOL    HW166686   6.154   3.338   0.994 -1.0178 -0.1938  1.1866
49692SOL    HW266687   6.214   3.351   1.133  1.2728 -0.0991  0.2378
49693SOL     OW66688   3.330   4.031   3.977 -0.8870 -0.0581 -0.2410
49693SOL    HW166689   3.332   4.109   3.921 -0.0448  0.3665  0.3685
49693SOL    HW266690   3.344   4.064   4.065  0.4424 -0.9824 -0.0826
49694SOL     OW66691  10.005   2.479   5.434  0.6705 -0.2412 -0.2038
49694SOL    HW166692   9.941   2.503   5.367 -0.5319 -1.4245  0.4728
49694SOL    HW266693  10.046   2.399   5.401  0.5821 -0.4348  0.1535
49695SOL     OW66694   1.003   2.069   9.120  0.3908 -0.1920  0.3111
49695SOL    HW166695   0.986   2.090   9.212  1.7314  1.0651  0.3094
49695SOL    HW266696   0.947   2.129   9.071  0.8238  0.2189  0.3136
49696SOL     OW66697   1.462  13.504  13.545  0.5918  0.2573  0.1150
49696SOL    HW166698   1.488  13.513  13.454  1.3608 -0.3197  0.2640
49696SOL    HW266699   1.544  13.502  13.594  0.2207 -0.1481  0.7484
49697SOL     OW66700   4.675   3.919  12.189 -0.4780  0.0344 -0.3614
49697SOL    HW166701   4.658   3.987  12.123 -0.8207 -0.6167 -0.9643
49697SOL    HW266702   4.716   3.848  12.139 -2.7545 -1.3764 -0.3437
49698SOL     OW66703   2.268   8.022   4.243  0.5994  0.4158 -0.6101
49698SOL    HW166704   2.289   8.110   4.210 -0.3545  0.6035 -0.7462
49698SOL    HW266705   2.236   8.037   4.332  0.1035  0.2426 -0.7581
49699SOL     OW66706   2.128   7.029   0.072  0.2298 -0.1139  0.3504
49699SOL    HW166707   2.056   6.981   0.112  0.7086 -0.3942  0.8855
49699SOL    HW266708   2.092   7.064  -0.009 -0.3356 -0.7525  0.3250
49700SOL     OW66709  10.220  13.490  12.382  0.4262 -0.4357 -0.0889
49700SOL    HW166710  10.207  13.438  12.461  0.7978  1.1071  1.0223
49700SOL    HW266711  10.150  13.461  12.322 -0.9662 -0.4088  1.4501
49701SOL     OW66712  13.780   4.371   0.843  0.5518 -0.6598  0.1505
49701SOL    HW166713  13.852   4.416   0.798  0.0775  1.5931  1.4827
49701SOL    HW266714  13.818   4.342   0.926  0.1371 -0.1766  0.5131
49702SOL     OW66715   4.118   1.996   5.090 -0.3095  0.1812  0.5826
49702SOL    HW166716   4.029   1.969   5.114 -0.3141  0.5144  0.9641
49702SOL    HW266717   4.165   1.999   5.173  1.4154 -4.4801  0.0861
49703SOL     OW66718   2.448   7.337   4.789 -0.2064  0.4661 -0.2270
49703SOL    HW166719   2.396   7.378   4.720 -0.4007  1.5047  0.5183
49703SOL    HW266720   2.434   7.243   4.777  1.3651  0.4479 -2.8805
49704SOL     OW66721   9.555   8.354  13.648 -0.7549 -0.4435  0.2590
49704SOL    HW166722   9.470   8.387  13.677 -0.5591  1.0707 -0.7574
49704SOL    HW266723   9.594   8.427  13.601 -0.0894 -1.9975 -1.7701
49705SOL     OW66724   6.394   7.328   3.236 -0.7685 -0.0772 -0.1376
49705SOL    HW166725   6.374   7.388   3.308 -0.2116  0.5137 -0.4653
49705SOL    HW266726   6.481   7.355   3.206 -0.9668 -0.3714 -0.9890
49706SOL     OW66727   0.294  13.323   5.635 -0.7884 -0.4422 -0.4635
49706SOL    HW166728   0.284  13.282   5.549 -1.6264  0.5888 -0.8801
49706SOL    HW266729   0.210  13.366   5.651 -0.7437 -0.8457  1.0157
49707SOL     OW66730   1.511   5.021   8.670  0.8032  1.2858 -0.1547
49707SOL    HW166731   1.574   4.972   8.618 -0.3415 -1.3926  0.7810
49707SOL    HW266732   1.561   5.053   8.745  1.1952 -0.5762  0.4473
49708SOL     OW66733  12.568   6.869   3.586 -0.0724  0.1920 -0.1315
49708SOL    HW166734  12.600   6.861   3.676 -0.3634 -0.7487 -0.0979
49708SOL    HW266735  12.499   6.935   3.590  0.0860  0.3360  0.2837
49709SOL     OW66736   1.420  10.829   4.549  0.1760 -0.1385 -0.0413
49709SOL    HW166737   1.438  10.919   4.523 -0.4451 -0.3698 -1.3173
49709SOL    HW266738   1.332  10.811   4.516 -0.1260 -0.8835  1.1100
49710SOL     OW66739   7.586   0.649   1.140 -0.2907  0.0802 -0.7318
49710SOL    HW166740   7.544   0.686   1.062  1.1226  0.5288 -1.3124
49710SOL    HW266741   7.589   0.721   1.203 -2.7129 -0.6418  0.3534
49711SOL     OW66742   2.249   6.322   3.032  0.5553 -0.2827  0.4761
49711SOL    HW166743   2.220   6.372   3.108  0.4386 -0.9056  0.8495
49711SOL    HW266744   2.313   6.260   3.067  1.4868  0.2955 -0.1536
49712SOL     OW66745   7.289   2.320   9.480  0.1977 -0.7230  0.2943
49712SOL    HW166746   7.230   2.393   9.461  0.1623 -0.7027  0.4803
49712SOL    HW266747   7.280   2.305   9.575 -1.2590 -2.2361 -0.0512
49713SOL     OW66748   0.496   6.303   3.001 -0.0220 -0.0245 -0.5622
49713SOL    HW166749   0.586   6.279   3.023 -0.0807  1.5856  1.7760
49713SOL    HW266750   0.466   6.355   3.075 -2.5591  0.3531 -1.7458
49714SOL     OW66751   8.307   3.958   9.677  0.2561 -0.3320 -0.0284
49714SOL    HW166752   8.385   3.919   9.636  0.4383 -0.8079  0.7468
49714SOL    HW266753   8.234   3.928   9.623  0.6453  0.5851 -1.1012
49715SOL     OW66754   2.115   9.212   0.366 -0.2032 -0.0492 -0.7932
49715SOL    HW166755   2.114   9.300   0.404 -1.6597 -0.2474 -0.3255
49715SOL    HW266756   2.196   9.173   0.397  0.7071  1.2830 -1.3959
49716SOL     OW66757   5.523  10.715   5.838  0.4191  0.0739 -0.2480
49716SOL    HW166758   5.570  10.716   5.921  1.3469  1.8023 -0.7456
49716SOL    HW266759   5.501  10.807   5.822 -1.2520 -0.4465 -1.0868
49717SOL     OW66760   6.321   7.822   1.778  0.2850  0.2173 -1.1939
49717SOL    HW166761   6.237   7.853   1.745  0.1319  2.7329  1.2828
49717SOL    HW266762   6.299   7.748   1.834 -0.6876  2.3321  1.3942
49718SOL     OW66763   6.446   9.259   4.417 -0.4290 -0.1713  0.1690
49718SOL    HW166764   6.414   9.186   4.470  0.5555 -0.6904  0.0688
49718SOL    HW266765   6.517   9.222   4.364 -1.4521  0.3180 -1.6067
49719SOL     OW66766   1.933   0.222  13.381  0.4909  0.0993  0.0920
49719SOL    HW166767   1.988   0.148  13.354  0.7427  0.2043  0.3159
49719SOL    HW266768   1.923   0.275  13.302  0.4395 -0.0940 -0.0310
49720SOL     OW66769   4.900  10.180   8.183  0.3773 -0.7978 -0.2413
49720SOL    HW166770   4.892  10.218   8.096  0.8453 -1.3904 -0.5439
49720SOL    HW266771   4.863  10.092   8.175  0.3238 -0.8161  0.1830
49721SOL     OW66772  13.701   9.607   4.230  0.3199 -0.1954 -0.1604
49721SOL    HW166773  13.615   9.642   4.255 -0.2303 -2.3796  1.3227
49721SOL    HW266774  13.759   9.683   4.232 -1.0353  0.8900  1.6261
49722SOL     OW66775   6.753  10.817  10.661 -0.2219 -0.0538  1.0559
49722SOL    HW166776   6.707  10.841  10.580  2.6393 -0.3103 -0.8082
49722SOL    HW266777   6.754  10.721  10.660  0.5881 -0.0485  0.8886
49723SOL     OW66778  12.380   6.349   8.783  0.4814  0.5042  0.0924
49723SOL    HW166779  12.424   6.279   8.735  0.5193  0.3132  0.3990
49723SOL    HW266780  12.418   6.345   8.871  1.7837  2.0706 -0.3624
49724SOL     OW66781   7.506  11.097   7.356 -0.2593  0.2977  0.6169
49724SOL    HW166782   7.475  11.077   7.267 -0.0039 -0.5664  0.7185
49724SOL    HW266783   7.507  11.193   7.359 -3.8035  0.4490  0.9083
49725SOL     OW66784  13.302   1.549   3.432 -0.9141 -0.4920  0.1387
49725SOL    HW166785  13.268   1.615   3.371 -0.2167  1.4478  1.7338
49725SOL    HW266786  13.229   1.490   3.446 -1.2715 -0.6923 -2.1085
49726SOL     OW66787  11.524  13.912   5.628  0.2865  0.3570  0.1489
49726SOL    HW166788  11.443  13.882   5.588 -0.8519  0.4293  2.2414
49726SOL    HW266789  11.561  13.834   5.669  2.1421 -0.0152 -2.0435
49727SOL     OW66790   0.003  12.491  10.638  0.4217 -0.0655 -0.3864
49727SOL    HW166791  -0.011  12.421  10.701  0.3673 -0.4757 -0.8463
49727SOL    HW266792   0.061  12.552  10.682  1.6412 -1.1035 -0.4970
49728SOL     OW66793   0.026   6.564  11.114  0.1914  0.7530 -0.4426
49728SOL    HW166794   0.121   6.559  11.099 -0.0293 -0.5137 -1.5693
49728SOL    HW266795   0.018   6.600  11.202  1.6966  1.8326 -0.7021
49729SOL     OW66796  13.966   7.118   3.963  0.5081 -0.0792 -0.2629
49729SOL    HW166797  13.932   7.149   4.047  1.0242  0.4149 -0.2355
49729SOL    HW266798  14.060   7.134   3.967  0.2246  2.8319 -2.0979
49730SOL     OW66799   0.336   0.018   1.906 -0.3748 -0.4127 -0.4758
49730SOL    HW166800   0.350   0.065   1.989 -1.5092 -0.8163 -0.0464
49730SOL    HW266801   0.343   0.086   1.839 -2.5071  0.5150  0.1718
49731SOL     OW66802  12.358   6.720  12.235 -0.1563 -0.3500  0.1198
49731SOL    HW166803  12.441   6.765  12.222  0.0389 -0.4508  0.9396
49731SOL    HW266804  12.292   6.781  12.204  0.1970 -0.1078 -0.1619
49732SOL     OW66805  10.359  12.133   5.380 -0.0078  0.0038 -0.0407
49732SOL    HW166806  10.402  12.131   5.465  2.9169 -0.9717 -1.3777
49732SOL    HW266807  10.302  12.056   5.379  1.2577 -0.9770  0.4757
49733SOL     OW66808  10.263   5.835   5.663  0.3743 -0.3309  0.0458
49733SOL    HW166809  10.319   5.760   5.641  0.0050 -0.6647  0.2314
49733SOL    HW266810  10.325   5.905   5.685  0.7229 -0.5851 -0.1186
49734SOL     OW66811   3.218  10.658   5.190  0.3053 -0.5299  0.1068
49734SOL    HW166812   3.307  10.685   5.213  0.5004 -1.4690  0.4910
49734SOL    HW266813   3.227  10.613   5.106  0.2076 -0.6923  0.1825
49735SOL     OW66814  13.739   1.239   1.352  0.1933  0.2198 -0.3292
49735SOL    HW166815  13.795   1.312   1.327 -1.2975  1.1074 -1.2031
49735SOL    HW266816  13.736   1.183   1.274  1.9520 -1.2662  0.5695
49736SOL     OW66817   7.334   8.292   4.230  0.4091  0.1374  0.0312
49736SOL    HW166818   7.360   8.227   4.295  2.2039  0.7320 -0.0319
49736SOL    HW266819   7.371   8.260   4.148 -0.9412 -0.0685 -0.5269
49737SOL     OW66820   6.434   2.822   0.071 -0.2239  0.1425  0.0578
49737SOL    HW166821   6.445   2.728   0.059 -1.2873 -0.0007  0.1561
49737SOL    HW266822   6.351   2.831   0.118 -0.8664  1.2018 -1.2218
49738SOL     OW66823   8.591  12.164   4.989  0.0763  0.2538  0.2730
49738SOL    HW166824   8.673  12.135   5.029 -0.8273 -3.1605 -0.0553
49738SOL    HW266825   8.531  12.175   5.062 -0.2272 -1.2245  0.2807
49739SOL     OW66826   0.386   7.860   2.598  0.3464 -0.1504  0.2138
49739SOL    HW166827   0.333   7.804   2.655 -0.3718  0.1301 -0.1633
49739SOL    HW266828   0.374   7.948   2.632  0.7303 -0.1083  0.2434
49740SOL     OW66829  12.678   8.240  12.590  0.1307  0.3796 -0.0205
49740SOL    HW166830  12.703   8.284  12.671 -0.9079  2.8974 -1.0008
49740SOL    HW266831  12.612   8.296  12.550  1.6260  0.0201 -3.3437
49741SOL     OW66832   3.862  12.452   5.914 -0.1136  0.2678 -0.3051
49741SOL    HW166833   3.777  12.478   5.880  0.3908 -0.1863 -1.9970
49741SOL    HW266834   3.844  12.422   6.003 -1.9170 -0.9725 -1.0433
49742SOL     OW66835  10.643   7.436  11.904  0.0605 -0.2450  0.3938
49742SOL    HW166836  10.597   7.366  11.948  0.4263  0.4468  1.9452
49742SOL    HW266837  10.713   7.393  11.855 -1.0303 -1.1223 -0.4126
49743SOL     OW66838   1.752  10.196  11.405 -0.0923  0.7486  0.0632
49743SOL    HW166839   1.734  10.255  11.332  0.0138  2.3285  1.2501
49743SOL    HW266840   1.822  10.139  11.374 -0.5995  0.8667 -1.3282
49744SOL     OW66841   6.209   6.710   6.975  0.8451 -0.0438  0.2630
49744SOL    HW166842   6.276   6.770   7.008 -0.1100  0.8655  0.5930
49744SOL    HW266843   6.140   6.712   7.041  0.6296 -1.2364  0.0941
49745SOL     OW66844  11.753  11.405   4.444 -0.2923  0.2649  0.5185
49745SOL    HW166845  11.726  11.400   4.352 -1.0164 -1.4732  0.7781
49745SOL    HW266846  11.805  11.485   4.450 -0.5087  0.5832 -1.3251
49746SOL     OW66847  10.123   3.414  12.169 -0.1247  0.4361 -0.2056
49746SOL    HW166848  10.061   3.341  12.173  1.2810 -0.7894  0.2332
49746SOL    HW266849  10.093   3.467  12.095 -1.3817 -0.3942 -0.3127
49747SOL     OW66850   0.675   5.806   7.295 -0.2007 -0.3012 -0.1599
49747SOL    HW166851   0.639   5.890   7.268 -1.4092  0.1771  2.5955
49747SOL    HW266852   0.616   5.741   7.256 -1.0001  0.2882  0.0276
49748SOL     OW66853   1.426  11.391   0.124 -0.3146 -0.2411  0.6419
49748SOL    HW166854   1.399  11.301   0.140  2.6285 -1.1911  0.8574
49748SOL    HW266855   1.511  11.399   0.168 -0.4684  2.6346  0.5902
49749SOL     OW66856   8.744   3.027  13.002  0.2404 -0.0501 -0.0981
49749SOL    HW166857   8.660   3.035  12.956  0.7724  2.9622 -0.7829
49749SOL    HW266858   8.721   3.001  13.091 -1.4568  0.7377 -0.2650
49750SOL     OW66859  13.604   7.222   3.988  0.3199  0.0865 -0.1013
49750SOL    HW166860  13.549   7.297   3.966  0.8887  0.9141  1.1739
49750SOL    HW266861  13.686   7.260   4.019 -0.0717 -0.9292  2.4505
49751SOL     OW66862  13.000  11.987  13.295  0.2303  0.2714  0.5599
49751SOL    HW166863  13.061  12.060  13.281  1.0877 -0.4259  0.5112
49751SOL    HW266864  13.046  11.911  13.258 -0.6489 -0.2893  0.5974
49752SOL     OW66865   3.779  12.530   3.101 -0.1029  0.4729 -0.3083
49752SOL    HW166866   3.730  12.449   3.098  0.4465  0.0627  1.0815
49752SOL    HW266867   3.808  12.544   3.010  0.4192 -1.2710 -0.4484
49753SOL     OW66868   1.618   9.956  12.081  0.0428 -0.4773  0.6362
49753SOL    HW166869   1.581   9.969  11.994  1.5641  0.3012  0.0803
49753SOL    HW266870   1.577  10.023  12.135 -2.1341 -1.9696  0.9610
49754SOL     OW66871  10.840   8.791  11.856  0.0560 -0.3003 -0.3955
49754SOL    HW166872  10.895   8.797  11.934 -1.1349  0.7627  0.4040
49754SOL    HW266873  10.839   8.879  11.820 -1.6568 -0.1190  0.0109
49755SOL     OW66874  11.295   8.168   0.344  0.3399  0.1434 -0.2248
49755SOL    HW166875  11.260   8.131   0.425  0.9136  1.1834  0.5166
49755SOL    HW266876  11.283   8.098   0.279 -2.6962  0.2653  0.0670
49756SOL     OW66877   1.964   7.137   3.088  0.2213 -0.0181  0.4954
49756SOL    HW166878   2.023   7.211   3.076 -0.4434  0.9184  2.5804
49756SOL    HW266879   1.954   7.100   3.000  1.6569  1.5121 -0.3658
49757SOL     OW66880   5.116  12.391  13.474  0.1722 -0.6662  0.3144
49757SOL    HW166881   5.203  12.431  13.476 -1.1667  2.4742  1.3749
49757SOL    HW266882   5.088  12.399  13.383  0.2806 -0.0240  0.3364
49758SOL     OW66883  11.631   3.840   2.323  0.3593  0.2006 -0.1576
49758SOL    HW166884  11.598   3.894   2.396 -0.0092  0.0328 -0.1973
49758SOL    HW266885  11.726   3.847   2.330  0.3299  0.0997  0.4072
49759SOL     OW66886   0.864   8.909   8.672 -0.0837  0.7723 -0.2471
49759SOL    HW166887   0.958   8.930   8.662  0.2702  0.6498  2.1965
49759SOL    HW266888   0.823   8.995   8.687 -0.1115  0.6943  0.1449
49760SOL     OW66889   1.555   7.145   2.075 -0.0861 -0.6303 -0.4039
49760SOL    HW166890   1.506   7.114   2.151 -2.3539 -0.8263 -1.8486
49760SOL    HW266891   1.647   7.137   2.101 -0.7520 -0.2529  2.4518
49761SOL     OW66892  10.385   9.480   4.561  0.5258  0.2797 -0.2655
49761SOL    HW166893  10.349   9.549   4.505  0.2663 -1.6975 -2.7133
49761SOL    HW266894  10.310   9.451   4.613  0.8076  2.2656  1.3813
49762SOL     OW66895  12.653   9.029   8.426  0.1228 -0.3027  0.4782
49762SOL    HW166896  12.701   8.955   8.463 -2.1737 -0.5842  3.3444
49762SOL    HW266897  12.593   8.989   8.363  2.2342 -0.1667 -1.7259
49763SOL     OW66898  12.289   5.484  10.055  0.0685  0.0402  0.2256
49763SOL    HW166899  12.196   5.484  10.033  0.0608  2.6354  0.0078
49763SOL    HW266900  12.292   5.463  10.148 -0.7880  0.7023  0.4104
49764SOL     OW66901   5.587  12.620  11.296  0.5158 -0.0153 -0.4599
49764SOL    HW166902   5.563  12.555  11.229 -0.8970 -0.8228  0.7725
49764SOL    HW266903   5.646  12.573  11.354 -1.5784 -0.7235  1.2173
49765SOL     OW66904   5.942   5.465   5.160  0.4225  0.1954  0.0530
49765SOL    HW166905   5.873   5.424   5.107  0.7998 -0.0420 -0.2684
49765SOL    HW266906   5.921   5.441   5.250  0.7655 -0.9161 -0.1525
49766SOL     OW66907   3.854   7.323  10.267 -0.3641 -0.3270 -0.5250
49766SOL    HW166908   3.812   7.240  10.245  2.0858 -1.4489 -1.3637
49766SOL    HW266909   3.936   7.322  10.217  1.2747  1.1030  1.9363
49767SOL     OW66910   2.214  13.972   6.715 -0.5625 -0.1875  0.3550
49767SOL    HW166911   2.218  14.065   6.695  0.0053 -0.1290  0.6991
49767SOL    HW266912   2.250  13.929   6.637 -0.6068 -0.1077  0.2904
49768SOL     OW66913   9.714   3.171   3.327  0.5177 -0.5152  0.5408
49768SOL    HW166914   9.748   3.254   3.361  0.7032 -0.1911 -0.4047
49768SOL    HW266915   9.774   3.149   3.255 -0.1122 -0.9558  0.1433
49769SOL     OW66916   6.459  12.052   2.639  0.0230  0.4180 -0.3723
49769SOL    HW166917   6.456  12.146   2.623 -1.0611  0.2329 -1.4655
49769SOL    HW266918   6.533  12.022   2.586  0.8135  0.7285  0.5312
49770SOL     OW66919   9.218   2.693   5.265 -0.4256 -0.2961 -0.2949
49770SOL    HW166920   9.193   2.717   5.176 -0.5341 -1.2267 -0.5243
49770SOL    HW266921   9.206   2.774   5.316 -0.3690  0.2398 -1.1128
49771SOL     OW66922   5.358   5.958   8.271  0.1997  0.2479 -0.8311
49771SOL    HW166923   5.271   5.939   8.306  0.7144  2.5815  2.0704
49771SOL    HW266924   5.370   6.052   8.285  3.4548 -0.1078 -0.4701
49772SOL     OW66925   2.282   2.971  13.581 -0.1579 -0.9103 -0.1403
49772SOL    HW166926   2.261   3.002  13.493  1.6243 -1.3043 -0.7590
49772SOL    HW266927   2.308   2.879  13.568  1.7840 -0.5042  0.4834
49773SOL     OW66928   0.053  10.437   3.390  0.1271  0.0214 -0.1491
49773SOL    HW166929   0.121  10.502   3.374  0.1247  1.0662  3.3467
49773SOL    HW266930  -0.028  10.479   3.358  0.2668  1.4458  1.2288
49774SOL     OW66931  10.042   3.635   1.472 -0.2997  0.0860  0.4458
49774SOL    HW166932  10.074   3.584   1.398 -0.0348  0.0762  0.5689
49774SOL    HW266933  10.047   3.575   1.547 -3.2676 -0.9196 -0.0048
49775SOL     OW66934   2.001   7.058   8.846  0.0731  0.1549 -0.2470
49775SOL    HW166935   2.029   7.055   8.754  1.7730 -1.2865  0.2512
49775SOL    HW266936   1.962   6.972   8.862  2.1459 -0.6549  0.9859
49776SOL     OW66937  14.001   1.164  13.515 -0.3141 -0.5080 -0.0842
49776SOL    HW166938  14.078   1.117  13.546 -2.0089 -1.2313  3.4811
49776SOL    HW266939  14.032   1.254  13.502  1.3453 -1.0130  0.1094
49777SOL     OW66940  11.372   8.720  12.026 -0.2092  0.3430  1.0088
49777SOL    HW166941  11.384   8.715  11.931 -1.0736  0.6152  0.8788
49777SOL    HW266942  11.442   8.779  12.056 -0.6324  1.1782  0.3916
49778SOL     OW66943   0.024   9.165   0.758 -0.2134  0.1360  0.3488
49778SOL    HW166944  -0.059   9.149   0.802 -0.3334 -1.1944 -0.3203
49778SOL    HW266945   0.023   9.109   0.681  1.2132  0.2409  0.2108
49779SOL     OW66946  12.230   6.922  12.007  0.1766  0.4673 -0.5089
49779SOL    HW166947  12.248   7.006  12.050 -0.5486 -0.0429  0.8722
49779SOL    HW266948  12.227   6.943  11.914 -2.9198  2.6157 -0.0949
49780SOL     OW66949  12.908  12.856  13.289 -0.1370 -0.0692  0.0304
49780SOL    HW166950  13.001  12.868  13.309  0.1237  1.1978 -1.6943
49780SOL    HW266951  12.864  12.919  13.346  0.2193  0.5074 -0.3170
49781SOL     OW66952   7.073   3.215   8.870 -0.0095  0.3336 -0.3325
49781SOL    HW166953   7.032   3.131   8.852  0.4990 -1.1289  4.1142
49781SOL    HW266954   7.006   3.266   8.915  0.2980  1.5611 -1.2131
49782SOL     OW66955  13.309  12.909   8.485  0.0944  0.6681  0.7369
49782SOL    HW166956  13.266  12.955   8.413 -3.5141 -1.3854  1.3444
49782SOL    HW266957  13.296  12.967   8.561  0.5871  1.1374  0.4715
49783SOL     OW66958   5.758   0.321   0.511  0.1630  0.0522  0.8361
49783SOL    HW166959   5.850   0.335   0.489 -0.1112 -2.1225 -2.4667
49783SOL    HW266960   5.738   0.235   0.473 -3.7123  1.2890 -0.3129
49784SOL     OW66961   1.417   0.866   9.245 -0.1996  1.1100 -0.3862
49784SOL    HW166962   1.469   0.922   9.188  2.0129 -0.8440 -0.4389
49784SOL    HW266963   1.477   0.796   9.271 -3.1127 -2.0472 -1.4314
49785SOL     OW66964   2.759  13.681  12.860  0.1406  0.4109 -0.0872
49785SOL    HW166965   2.739  13.588  12.868 -0.1747  0.4903  0.0871
49785SOL    HW266966   2.737  13.703  12.770  3.8415 -0.5287 -1.3726
49786SOL     OW66967  11.517   6.581  12.460 -0.2903 -0.1817  0.2692
49786SOL    HW166968  11.547   6.668  12.486  2.4012 -1.5651  2.2537
49786SOL    HW266969  11.597   6.530  12.450 -1.8184 -2.6629  0.0117
49787SOL     OW66970  12.058  12.749  14.003 -0.6875  0.3072 -0.0058
49787SOL    HW166971  11.971  12.710  14.011 -1.2291  1.2614 -1.0195
49787SOL    HW266972  12.069  12.765  13.909  0.0946  1.2736  0.2321
49788SOL     OW66973   7.081   0.112   5.545 -0.4617  0.4885  0.0967
49788SOL    HW166974   7.148   0.054   5.581 -1.6800 -1.3191 -0.3938
49788SOL    HW266975   7.125   0.160   5.475  0.2853 -0.9071 -0.4367
49789SOL     OW66976   7.108  14.037  12.338 -0.4496 -0.2403  0.6185
49789SOL    HW166977   7.140  13.955  12.302 -0.3232 -0.2472  0.7455
49789SOL    HW266978   7.179  14.100  12.325 -0.1797 -0.3836  1.3683
49790SOL     OW66979   3.182   4.545  12.786 -0.1176 -0.2077 -0.0463
49790SOL    HW166980   3.189   4.528  12.692 -0.6551 -0.5401 -0.0299
49790SOL    HW266981   3.098   4.589  12.796 -1.0728 -2.0757  0.5196
49791SOL     OW66982   7.843   2.793   9.850  0.0536  0.1289 -0.4452
49791SOL    HW166983   7.875   2.826   9.934  1.2835 -0.8408 -0.5090
49791SOL    HW266984   7.748   2.792   9.859  0.0072  2.4135  0.0139
49792SOL     OW66985  12.917   0.888   4.737 -0.0504 -0.4963 -0.2402
49792SOL    HW166986  12.988   0.893   4.801  0.5646 -1.0236 -0.8672
49792SOL    HW266987  12.837   0.892   4.790  0.4465 -1.1549  0.5873
49793SOL     OW66988  10.903  12.908  13.308 -0.0203 -0.5090  0.0093
49793SOL    HW166989  10.922  12.990  13.355  1.0309 -0.7481  0.0251
49793SOL    HW266990  10.983  12.856  13.317  0.1936 -0.5991 -1.9967
49794SOL     OW66991   0.398   8.165   5.625  0.0285  0.2827 -0.0570
49794SOL    HW166992   0.316   8.212   5.614  0.8815  1.9306  0.3317
49794SOL    HW266993   0.461   8.214   5.573  1.0931 -0.0685  0.8592
49795SOL     OW66994   3.368  10.982   5.992  0.1793 -0.0138 -0.9623
49795SOL    HW166995   3.409  10.896   6.003  0.1673  0.1976  1.1628
49795SOL    HW266996   3.318  10.995   6.073 -1.1588  1.2931 -1.9584
49796SOL     OW66997   3.822   4.590   3.096  0.1169  0.1259  0.2565
49796SOL    HW166998   3.796   4.504   3.129  0.6279  0.7415  2.4064
49796SOL    HW266999   3.907   4.575   3.054  0.0823 -0.4541  0.3880
49797SOL     OW67000   2.476   0.532   7.870  0.5682  0.0936 -0.3774
49797SOL    HW167001   2.570   0.525   7.887  0.2598  0.1724  1.5730
49797SOL    HW267002   2.435   0.522   7.956 -1.1620  1.0139 -1.0428
49798SOL     OW67003  10.077   6.158   0.265 -0.2828 -0.1079  0.3725
49798SOL    HW167004  10.140   6.088   0.284  0.8784  0.4915 -1.0524
49798SOL    HW267005  10.080   6.166   0.169 -1.8112  0.6197  0.3612
49799SOL     OW67006   9.664   9.616   7.257  0.3351 -0.8877  0.0883
49799SOL    HW167007   9.737   9.554   7.253 -0.2886 -1.6269 -0.1328
49799SOL    HW267008   9.601   9.575   7.318 -0.8442 -1.3223 -1.3688
49800SOL     OW67009   2.181   6.514  12.567 -0.1751 -0.1929 -0.7942
49800SOL    HW167010   2.176   6.556  12.481  0.6997 -0.1342 -0.8256
49800SOL    HW267011   2.213   6.425  12.547 -0.4614 -0.3436 -0.5775
49801SOL     OW67012   4.231   7.816   8.905  0.3878  0.1860 -0.1857
49801SOL    HW167013   4.256   7.734   8.862  1.1067  0.5897 -0.5627
49801SOL    HW267014   4.186   7.788   8.985 -0.7082 -0.5753 -1.0404
49802SOL     OW67015   8.975  13.496  13.070 -0.0092 -0.2826 -0.2123
49802SOL    HW167016   8.884  13.502  13.097  0.1481  0.9580  0.0899
49802SOL    HW267017   8.989  13.402  13.053 -1.5214 -0.4011 -0.9703
49803SOL     OW67018   6.666   9.975  12.701  0.4070 -0.0150  0.0341
49803SOL    HW167019   6.656   9.895  12.752 -3.2974 -1.0543 -1.9729
49803SOL    HW267020   6.648   9.949  12.611  1.6134  2.6821 -1.1208
49804SOL     OW67021   0.189   8.828   8.680 -0.0445 -0.7792 -0.5318
49804SOL    HW167022   0.237   8.748   8.698  1.0520 -0.3777 -1.5539
49804SOL    HW267023   0.220   8.891   8.746  1.0836 -0.4357 -1.3683
49805SOL     OW67024   3.674  12.828  12.448 -0.1740  0.2837  0.3460
49805SOL    HW167025   3.716  12.774  12.515  0.4435 -0.1822 -0.4009
49805SOL    HW267026   3.581  12.811  12.459 -0.0160 -0.5437  0.4498
49806SOL     OW67027  13.503  10.430   8.558  0.0544  0.8494 -0.3015
49806SOL    HW167028  13.497  10.471   8.471  1.3283 -0.3191 -0.9779
49806SOL    HW267029  13.492  10.503   8.619  0.6248  1.9490 -1.4477
49807SOL     OW67030  11.869  12.440   4.981 -0.0815 -0.4661  0.2522
49807SOL    HW167031  11.943  12.491   4.949 -1.8604  1.8683 -0.4507
49807SOL    HW267032  11.814  12.504   5.027 -1.4223 -2.2067  1.2009
49808SOL     OW67033   1.155   1.174  11.317  0.0896  0.5239  0.6558
49808SOL    HW167034   1.104   1.253  11.300 -0.7902 -0.2076 -0.2452
49808SOL    HW267035   1.140   1.155  11.409  0.0687  1.2257  0.8037
49809SOL     OW67036   9.991  13.998   2.358  0.0515 -0.2899  0.2312
49809SOL    HW167037  10.006  13.919   2.307  1.1759  0.9054 -1.4185
49809SOL    HW267038   9.906  14.030   2.328 -0.1714 -0.5955  0.5300
49810SOL     OW67039   6.936  11.298   5.638  0.3031 -0.6223 -0.1269
49810SOL    HW167040   7.026  11.328   5.641 -0.0629  0.4710  0.3051
49810SOL    HW267041   6.891  11.349   5.704 -0.8755 -0.3489 -1.0978
49811SOL     OW67042   4.548   7.469   6.524  0.5806  0.2447  0.2110
49811SOL    HW167043   4.536   7.564   6.520 -0.2173  0.1727  0.6887
49811SOL    HW267044   4.459   7.434   6.527  0.8625 -0.5376 -0.2617
49812SOL     OW67045  13.607   6.535   8.655  0.0951  0.0823 -0.5283
49812SOL    HW167046  13.549   6.507   8.726 -0.6039  1.5162 -0.4985
49812SOL    HW267047  13.684   6.479   8.663  0.0692  0.2543  1.4193
49813SOL     OW67048  11.730   5.691   7.477 -0.9508 -0.4029 -0.2159
49813SOL    HW167049  11.721   5.786   7.485  1.4716 -0.1761  0.6605
49813SOL    HW267050  11.749   5.677   7.384 -0.6176  0.0502 -0.2211
49814SOL     OW67051  10.232   4.587  11.342 -0.1479  0.5801  0.1223
49814SOL    HW167052  10.248   4.504  11.387  2.0624  0.5239 -0.6290
49814SOL    HW267053  10.259   4.654  11.405 -1.7938  0.7648  0.6741
49815SOL     OW67054  10.284   5.656   7.197  0.3072 -0.6003  0.4124
49815SOL    HW167055  10.378   5.674   7.199  0.4703 -1.2951 -0.6208
49815SOL    HW267056  10.269   5.614   7.112 -0.8981 -0.7115  0.6660
49816SOL     OW67057  12.001   2.100  11.253  0.5226  0.0375 -0.7670
49816SOL    HW167058  12.060   2.065  11.320  1.2909 -0.4976 -1.6984
49816SOL    HW267059  11.948   2.164  11.299  3.1567  2.0302 -0.2645
49817SOL     OW67060   7.995  13.680   9.695 -0.2326 -0.2530  0.5468
49817SOL    HW167061   7.903  13.700   9.679 -0.0551 -0.2542 -0.5284
49817SOL    HW267062   8.040  13.704   9.614  0.5089 -1.5655  0.5461
49818SOL     OW67063   2.906  13.125   8.860 -0.0898 -0.6030  0.0910
49818SOL    HW167064   2.986  13.146   8.812  1.8683 -0.1421  3.2523
49818SOL    HW267065   2.863  13.210   8.873  0.9061 -0.2811  1.5268
49819SOL     OW67066   0.448   0.434   6.701 -0.1410 -0.4980  0.2095
49819SOL    HW167067   0.429   0.430   6.607 -0.4362  1.4078  0.1420
49819SOL    HW267068   0.374   0.482   6.738 -0.6121 -2.2474  1.6316
49820SOL     OW67069  12.564   0.137  11.158  0.4309  0.8590 -0.3203
49820SOL    HW167070  12.539   0.122  11.067 -1.7983  2.2611 -0.0225
49820SOL    HW267071  12.489   0.105  11.208  1.2191  0.9844  0.9809
49821SOL     OW67072  13.396   4.245   9.564 -0.2914  0.2585  0.1655
49821SOL    HW167073  13.471   4.211   9.514  0.2185 -0.0031  1.0949
49821SOL    HW267074  13.428   4.326   9.603  0.1568 -0.7745  2.0872
49822SOL     OW67075   6.003   2.039   5.963  0.1261  0.7507 -0.2051
49822SOL    HW167076   5.988   2.077   5.876 -1.1199 -2.0183 -1.3026
49822SOL    HW267077   6.085   1.991   5.955 -0.1250  0.2680  0.0471
49823SOL     OW67078   8.656   3.295   7.887 -0.1087  0.1535  0.2960
49823SOL    HW167079   8.629   3.235   7.818  1.4755  0.3358 -0.5000
49823SOL    HW267080   8.749   3.278   7.900 -0.3431  0.1588  2.3632
49824SOL     OW67081   0.202  10.098   6.661  0.7050  0.0790 -0.2755
49824SOL    HW167082   0.220  10.080   6.569  0.6358 -1.5102  0.0018
49824SOL    HW267083   0.251  10.031   6.709 -1.0473 -0.5418  0.7458
49825SOL     OW67084  10.869  11.798   8.253  0.0137  0.2226 -0.0109
49825SOL    HW167085  10.834  11.741   8.322  0.5144 -0.0739 -0.0014
49825SOL    HW267086  10.884  11.881   8.297  0.7387 -0.0900  0.3478
49826SOL     OW67087   4.437   3.707   3.435  0.4950 -1.1605  0.0084
49826SOL    HW167088   4.384   3.756   3.498  0.1864  1.0374 -1.8322
49826SOL    HW267089   4.376   3.684   3.365  1.2491 -1.6523 -0.5026
49827SOL     OW67090   1.367   8.910   3.410 -0.5256 -0.7123 -0.1962
49827SOL    HW167091   1.360   8.852   3.335 -0.6616 -2.4665  1.0993
49827SOL    HW267092   1.459   8.932   3.415 -0.4898 -0.7141 -0.7780
49828SOL     OW67093   4.829  13.787   3.218  0.4308 -0.1993 -0.3404
49828SOL    HW167094   4.768  13.741   3.276 -0.5021 -0.3693 -1.4148
49828SOL    HW267095   4.777  13.806   3.139  1.7793 -0.4130 -1.3172
49829SOL     OW67096   3.612   8.661   8.540  0.0113  0.1961 -0.3483
49829SOL    HW167097   3.682   8.722   8.518  0.6429 -0.2786  0.3228
49829SOL    HW267098   3.655   8.590   8.587 -0.9259 -0.0851  0.1135
49830SOL     OW67099   9.910   1.945  11.618 -0.1003 -0.1775 -0.6851
49830SOL    HW167100   9.878   2.022  11.570  0.0209 -1.6290 -3.3233
49830SOL    HW267101   9.855   1.874  11.587  0.6324 -1.3762  0.6958
49831SOL     OW67102   7.558   4.401  12.570  0.4981  0.7298  0.1690
49831SOL    HW167103   7.570   4.491  12.602  1.0229  0.5593  0.4728
49831SOL    HW267104   7.643   4.378  12.533  0.5686  0.1343  0.6794
49832SOL     OW67105   4.721  13.338  13.168  0.3081 -0.4448 -0.0487
49832SOL    HW167106   4.674  13.263  13.132  0.0658  0.2855 -1.3408
49832SOL    HW267107   4.653  13.402  13.189  0.5931 -0.0704 -0.2361
49833SOL     OW67108   4.856  11.212   3.053 -0.5575 -0.0605  0.7803
49833SOL    HW167109   4.886  11.290   3.007 -1.2850  1.0221  2.0460
49833SOL    HW267110   4.908  11.140   3.017  0.2883  1.0465 -0.2585
49834SOL     OW67111   8.024   2.933   8.814  0.3538  0.3351 -0.0488
49834SOL    HW167112   8.024   2.840   8.837 -2.3893 -0.3310 -2.1413
49834SOL    HW267113   8.071   2.976   8.886  0.0227 -2.4485  1.9863
49835SOL     OW67114   7.731   3.429   2.045  0.0989 -0.2325 -0.5403
49835SOL    HW167115   7.796   3.462   2.106 -1.0254 -0.1833  0.6687
49835SOL    HW267116   7.779   3.367   1.990  1.9846  2.3821 -2.0513
49836SOL     OW67117   6.246  12.952   5.912 -0.4370 -0.1077 -0.2275
49836SOL    HW167118   6.321  12.917   5.864  0.5960  0.3149  1.0060
49836SOL    HW267119   6.189  12.875   5.927  0.8142 -0.9068  0.6740
49837SOL     OW67120   2.667   6.903   3.281  0.0779  0.4977  0.2765
49837SOL    HW167121   2.618   6.856   3.213 -0.1895 -0.7317  1.2695
49837SOL    HW267122   2.753   6.918   3.243  0.1282 -0.7124 -0.1345
49838SOL     OW67123   7.260  13.598  11.907 -0.2917 -0.1621 -0.9668
49838SOL    HW167124   7.201  13.539  11.859 -0.4295 -0.0751 -0.9030
49838SOL    HW267125   7.276  13.553  11.990 -1.8940  0.7422 -0.1220
49839SOL     OW67126   5.621   6.625  10.819  0.1645 -0.3822 -0.0443
49839SOL    HW167127   5.647   6.659  10.905  0.2539 -1.9857  0.5904
49839SOL    HW267128   5.692   6.651  10.761  0.4150  0.1762  0.4955
49840SOL     OW67129  13.562  10.663   5.919 -0.3661  0.1651  0.0292
49840SOL    HW167130  13.511  10.682   5.841 -1.9025  0.1717  0.9989
49840SOL    HW267131  13.525  10.720   5.986  1.2846  0.5572  0.6563
49841SOL     OW67132   6.533   4.425  13.531 -0.8374  0.0425  0.1478
49841SOL    HW167133   6.467   4.370  13.573  0.0067  0.3195  1.9403
49841SOL    HW267134   6.616   4.378  13.546 -0.3397  0.8738  0.0485
49842SOL     OW67135   5.802   2.517  11.552 -0.2691  0.3824  0.2557
49842SOL    HW167136   5.829   2.566  11.630 -0.1668 -0.7175  0.9369
49842SOL    HW267137   5.738   2.454  11.586  0.7191 -0.9688 -0.3172
49843SOL     OW67138   0.507   3.531   6.598  0.2829 -0.0762 -0.6721
49843SOL    HW167139   0.418   3.507   6.572 -0.5001  0.9838  0.8542
49843SOL    HW267140   0.495   3.593   6.670  2.2463  0.9318 -1.1240
49844SOL     OW67141  13.253   0.172   8.366  0.3334  0.4053  0.3965
49844SOL    HW167142  13.305   0.246   8.335  2.7059 -1.2819  0.0810
49844SOL    HW267143  13.255   0.110   8.294  1.6280 -1.4799  1.9312
49845SOL     OW67144   0.027   9.140   1.113  0.1303 -1.1451 -0.0463
49845SOL    HW167145   0.070   9.215   1.074 -1.3142 -0.3701 -0.2200
49845SOL    HW267146  -0.056   9.132   1.066 -0.6537 -1.5716  1.3381
49846SOL     OW67147  12.307   0.070   6.645 -0.6414  0.0099 -0.6031
49846SOL    HW167148  12.398   0.081   6.619 -0.5720 -0.6271 -0.6324
49846SOL    HW267149  12.258   0.120   6.580 -0.2160  2.0782  0.5638
49847SOL     OW67150   4.455  11.927   9.967 -0.0451 -0.0522  0.3184
49847SOL    HW167151   4.420  11.844  10.000  1.2752 -0.5422  0.5334
49847SOL    HW267152   4.410  11.940   9.883 -0.0508 -1.1374  0.1423
49848SOL     OW67153   0.975   9.809   5.088  0.8887 -0.1977 -0.4560
49848SOL    HW167154   0.976   9.786   5.181 -1.0338 -0.8743 -0.5592
49848SOL    HW267155   1.052   9.764   5.052  0.0234 -2.4253  0.2898
49849SOL     OW67156   1.322  11.980  11.528 -0.3226  0.3919  0.0044
49849SOL    HW167157   1.306  11.958  11.620  0.3199  0.4185  0.1286
49849SOL    HW267158   1.403  11.933  11.507 -1.0959 -0.5879 -0.8965
49850SOL     OW67159   4.730   0.449   6.309  0.3570  0.5132  0.1532
49850SOL    HW167160   4.748   0.355   6.313 -0.9385  0.2863  1.9233
49850SOL    HW267161   4.655   0.457   6.249 -0.1896  0.2873  0.7993
49851SOL     OW67162  11.034  11.807   4.040 -0.9420  0.1426 -0.1303
49851SOL    HW167163  11.038  11.893   3.998  0.7832 -0.2888 -0.9566
49851SOL    HW267164  10.961  11.762   3.999 -1.1027  0.7932 -0.5608
49852SOL     OW67165   8.391   5.596   4.059  0.1484 -0.1195 -0.2969
49852SOL    HW167166   8.485   5.607   4.046  0.1382 -0.8025 -1.0250
49852SOL    HW267167   8.363   5.540   3.986 -0.6868 -0.5578  0.3421
49853SOL     OW67168   1.871   4.903   4.985 -0.1041 -0.0309 -0.6347
49853SOL    HW167169   1.887   4.918   5.078 -0.1966 -1.5125 -0.3633
49853SOL    HW267170   1.941   4.950   4.941 -0.3118  1.0600  0.1448
49854SOL     OW67171   3.516  12.743   1.831 -0.4881  0.3425  0.3655
49854SOL    HW167172   3.469  12.660   1.822  1.1620 -0.4681 -1.2259
49854SOL    HW267173   3.487  12.795   1.755  1.7103 -0.5036 -1.1565
49855SOL     OW67174   5.562   4.517  13.127 -0.4159 -0.6549  0.0065
49855SOL    HW167175   5.651   4.532  13.097  0.1143 -1.9279  0.8503
49855SOL    HW267176   5.512   4.590  13.091  1.3113  1.1576  1.0990
49856SOL     OW67177  10.075   9.690  11.871 -0.1294  0.5841 -0.8447
49856SOL    HW167178   9.983   9.665  11.865  0.0092 -0.3727  0.4172
49856SOL    HW267179  10.076   9.765  11.930 -0.1400  0.9345 -1.2833
49857SOL     OW67180   1.060   1.347  13.733  0.2335  0.6112  0.2681
49857SOL    HW167181   1.072   1.332  13.639 -1.3909  1.3118 -0.0843
49857SOL    HW267182   1.057   1.442  13.742 -0.2800  0.5410  0.9267
49858SOL     OW67183   2.811   2.525   9.496  0.1567 -0.4718  0.3297
49858SOL    HW167184   2.719   2.548   9.509 -0.0963 -1.2772  0.0203
49858SOL    HW267185   2.809   2.435   9.462  1.0955 -1.0660  1.7127
49859SOL     OW67186   0.263   2.607  12.757 -0.3999  0.4484 -0.5023
49859SOL    HW167187   0.323   2.681  12.749  1.2931 -0.8007  0.0783
49859SOL    HW267188   0.220   2.621  12.841  1.1510 -0.0485  0.4211
49860SOL     OW67189   7.842  12.184  10.845  0.5066 -0.1900 -0.3062
49860SOL    HW167190   7.910  12.131  10.804 -0.8221 -1.5544 -0.8506
49860SOL    HW267191   7.760  12.142  10.818 -0.5904  1.7743 -0.2161
49861SOL     OW67192  12.454  11.736   0.969 -0.2170 -0.4918 -0.6420
49861SOL    HW167193  12.367  11.696   0.974 -0.4321 -0.0226 -0.5595
49861SOL    HW267194  12.437  11.830   0.977  0.3046 -0.4033 -0.5708
49862SOL     OW67195   1.294   2.612   0.362 -0.7534 -0.5001 -0.2513
49862SOL    HW167196   1.297   2.520   0.388 -2.1749 -1.1720 -2.2539
49862SOL    HW267197   1.232   2.651   0.424  1.0787 -0.4319  1.6683
49863SOL     OW67198  11.950   9.377   4.608 -0.2042 -0.2835 -0.0791
49863SOL    HW167199  11.880   9.443   4.614 -0.4647 -0.5263 -0.4175
49863SOL    HW267200  11.996   9.397   4.527 -1.8984 -2.0562 -1.5898
49864SOL     OW67201  10.399   6.400  11.547  0.7418  0.5355  0.7653
49864SOL    HW167202  10.386   6.422  11.454  1.9767  1.7330  0.8477
49864SOL    HW267203  10.311   6.397  11.583  0.2866  0.8640 -0.2732
49865SOL     OW67204  11.071   1.925  10.665 -0.1642 -0.0003  0.0851
49865SOL    HW167205  11.157   1.960  10.642 -0.5618  0.5169 -0.6605
49865SOL    HW267206  11.009   1.980  10.616 -1.0379  0.8824  2.0428
49866SOL     OW67207   1.879   5.076  12.421  0.4127  0.4695 -0.8707
49866SOL    HW167208   1.805   5.053  12.364  0.9145 -1.5048 -0.8218
49866SOL    HW267209   1.941   5.004  12.409  1.4961  1.1235  0.5282
49867SOL     OW67210  10.554   5.984   2.743 -0.1280  0.4430 -0.3446
49867SOL    HW167211  10.562   5.895   2.776  1.0441  1.1257  1.3306
49867SOL    HW267212  10.644   6.015   2.736 -0.5394  1.7024 -0.3111
49868SOL     OW67213  10.381  11.934   4.596  0.3238 -0.1473 -0.2310
49868SOL    HW167214  10.358  11.995   4.525  0.1587  0.6032  0.4593
49868SOL    HW267215  10.325  11.960   4.669  1.2954 -0.1871  0.5401
49869SOL     OW67216   4.539   5.339   3.015  0.3095  0.1318 -0.7226
49869SOL    HW167217   4.535   5.427   3.051 -0.0586 -0.2921  0.3183
49869SOL    HW267218   4.622   5.336   2.967  1.5526  0.2774  1.3110
49870SOL     OW67219  13.050   1.382   5.947 -0.1752  0.0482  0.7204
49870SOL    HW167220  13.081   1.419   5.865 -0.3776  0.6012  0.8872
49870SOL    HW267221  12.976   1.438   5.972 -1.3253 -1.2281  0.3256
49871SOL     OW67222   8.452  10.694   7.820 -0.5274 -0.1547  0.3048
49871SOL    HW167223   8.532  10.747   7.828 -0.6385  0.1067 -0.2443
49871SOL    HW267224   8.466  10.621   7.880 -0.0210  0.0681  0.4682
49872SOL     OW67225   1.446   1.565   6.291  0.0385  0.1074  0.0593
49872SOL    HW167226   1.417   1.656   6.284  1.0746  0.3904 -0.8258
49872SOL    HW267227   1.365   1.515   6.300 -0.5434  1.1135  0.5609
49873SOL     OW67228   1.866   4.679  11.309  0.1068 -0.0628 -0.5665
49873SOL    HW167229   1.860   4.650  11.218 -0.0029 -1.3385 -0.1785
49873SOL    HW267230   1.778   4.708  11.331  0.1350  0.2541 -0.8744
49874SOL     OW67231   2.154   4.108  10.156  0.3702 -0.9909 -0.2989
49874SOL    HW167232   2.067   4.112  10.116  0.4381  0.6370 -0.3511
49874SOL    HW267233   2.203   4.179  10.114  1.5463 -1.5097  0.1554
49875SOL     OW67234   5.111   3.425   9.262 -0.2830  0.5299 -0.1407
49875SOL    HW167235   5.083   3.404   9.351 -0.4199  0.8894 -0.0974
49875SOL    HW267236   5.034   3.408   9.208 -0.6491  1.6725 -0.0015
49876SOL     OW67237   0.047   5.367  12.409 -0.4165 -0.3417  0.1614
49876SOL    HW167238   0.078   5.453  12.380  0.8429 -0.9463 -0.3909
49876SOL    HW267239   0.126   5.312  12.409 -1.5347 -2.1358 -1.8086
49877SOL     OW67240   7.932  10.134   4.873 -0.0864 -0.5776 -0.8671
49877SOL    HW167241   7.883  10.204   4.914 -0.1636 -1.2715  0.2594
49877SOL    HW267242   7.878  10.056   4.886  0.6615 -1.1010 -0.8341
49878SOL     OW67243   4.388   1.025   6.728 -0.0976 -0.9228 -0.2541
49878SOL    HW167244   4.396   0.940   6.772  2.6916 -0.0313  1.2144
49878SOL    HW267245   4.473   1.039   6.687 -0.2352  1.4232  0.0984
49879SOL     OW67246   4.795  13.297   9.102 -0.0156 -0.4365 -0.0364
49879SOL    HW167247   4.783  13.332   9.190  0.1189 -2.4400  0.8243
49879SOL    HW267248   4.780  13.203   9.110 -0.2289 -0.6532 -2.2063
49880SOL     OW67249   4.053  11.612   0.191 -0.1297 -0.0725  0.3270
49880SOL    HW167250   3.997  11.671   0.141  1.8500 -0.6808 -2.8634
49880SOL    HW267251   4.118  11.669   0.232 -0.0121  0.1913 -0.2261
49881SOL     OW67252  13.803   9.317   7.304  0.0627  0.6312  0.2003
49881SOL    HW167253  13.818   9.270   7.223 -0.6649  0.4807  0.1479
49881SOL    HW267254  13.734   9.268   7.348  0.0590  1.0309  0.6477
49882SOL     OW67255   8.132   2.994  13.461 -0.3959 -0.3089 -0.1049
49882SOL    HW167256   8.053   3.002  13.515 -1.0695 -0.2818 -1.0628
49882SOL    HW267257   8.188   3.066  13.490 -1.6403  1.0253 -0.8681
49883SOL     OW67258   7.679   6.087  13.938  0.1569  0.5530  0.2804
49883SOL    HW167259   7.747   6.131  13.989  1.7551 -0.8662 -0.5067
49883SOL    HW267260   7.642   6.023  14.000  0.7258  0.1803  0.2457
49884SOL     OW67261  12.140   9.286   7.718 -0.0474  0.0341 -0.1633
49884SOL    HW167262  12.166   9.376   7.735  0.8208 -0.5535  1.7899
49884SOL    HW267263  12.218   9.234   7.736 -0.0632 -1.0346 -2.7354
49885SOL     OW67264   7.385   8.273   9.735  0.7296 -0.1632  0.1305
49885SOL    HW167265   7.403   8.201   9.795  2.3987 -0.2493 -0.4337
49885SOL    HW267266   7.470   8.313   9.718 -0.1060  1.7360  0.1409
49886SOL     OW67267   0.832   0.025  12.111 -0.0422  0.0595 -0.6298
49886SOL    HW167268   0.775  -0.048  12.086 -0.8015  0.6895 -0.7799
49886SOL    HW267269   0.881   0.045  12.031  1.1726 -1.1488 -0.2268
49887SOL     OW67270   0.997   3.823   0.005 -0.4561 -0.4138  0.2151
49887SOL    HW167271   1.011   3.892  -0.059  1.1109  0.6229  1.5706
49887SOL    HW267272   0.904   3.803  -0.000 -0.6505  0.7325 -1.2656
49888SOL     OW67273   3.778  13.832   8.184 -0.0498 -0.2862  0.2508
49888SOL    HW167274   3.761  13.743   8.214  1.4088 -0.8949 -0.6104
49888SOL    HW267275   3.766  13.829   8.089  2.0876 -0.1640 -0.0834
49889SOL     OW67276  10.455  12.377   4.973 -0.3741 -0.1261 -0.1700
49889SOL    HW167277  10.523  12.430   4.931 -0.4410 -0.3941 -0.6174
49889SOL    HW267278  10.454  12.407   5.064  1.5855 -1.3199  0.3040
49890SOL     OW67279  11.631   1.520  12.206 -0.1561 -0.3961  0.2174
49890SOL    HW167280  11.660   1.611  12.207  0.4679 -0.5538 -0.8445
49890SOL    HW267281  11.697   1.474  12.259 -1.1557 -0.0769  1.7980
49891SOL     OW67282   7.098   6.628  13.268  0.3848 -0.0592  0.1435
49891SOL    HW167283   7.116   6.576  13.346 -0.9103 -0.2275  0.3621
49891SOL    HW267284   7.002   6.624  13.259  0.5654 -1.1946 -2.2015
49892SOL     OW67285   6.641   1.626   2.327  0.2058  0.4648 -0.3344
49892SOL    HW167286   6.666   1.715   2.351  3.1344 -0.0559 -1.0077
49892SOL    HW267287   6.630   1.629   2.232  1.2870 -0.0294 -0.4975
49893SOL     OW67288   8.896   4.128   9.489 -0.0910  0.1478 -0.2144
49893SOL    HW167289   8.908   4.195   9.422 -1.6125 -0.8072 -1.5040
49893SOL    HW267290   8.854   4.174   9.562  2.1819  1.3455  0.4441
49894SOL     OW67291   9.742  10.796  10.792 -0.3266  0.2953 -0.2305
49894SOL    HW167292   9.737  10.876  10.739 -0.3662  0.1461 -0.4550
49894SOL    HW267293   9.651  10.778  10.815 -0.2907  0.4678  0.0504
49895SOL     OW67294  12.787  11.452   9.110  0.0106  0.3105 -0.4196
49895SOL    HW167295  12.777  11.514   9.182 -0.5000  2.3477 -2.1177
49895SOL    HW267296  12.785  11.507   9.031 -0.3987 -1.8936 -2.0461
49896SOL     OW67297  11.116   4.504  13.233  0.1907  0.3153 -0.7463
49896SOL    HW167298  11.149   4.417  13.211 -0.5403 -0.1497 -0.0359
49896SOL    HW267299  11.059   4.528  13.160 -0.0820 -0.0583 -0.6550
49897SOL     OW67300   1.069  13.897   6.117 -0.3991 -0.2558  0.2198
49897SOL    HW167301   0.991  13.846   6.136  0.0633 -0.8019  0.7130
49897SOL    HW267302   1.136  13.861   6.175  0.8050 -1.2321 -1.6806
49898SOL     OW67303  11.784   2.731   9.756  0.9856  0.8170  0.0691
49898SOL    HW167304  11.753   2.713   9.845 -0.0422 -0.3466 -0.4858
49898SOL    HW267305  11.775   2.647   9.711  1.6158  1.3632 -1.1018
49899SOL     OW67306  11.797  12.596  14.063  0.3279 -0.3846 -0.4932
49899SOL    HW167307  11.819  12.507  14.033 -0.1626 -1.0748  1.0772
49899SOL    HW267308  11.779  12.586  14.156  2.4016  1.7482  0.2416
49900SOL     OW67309   6.430   4.026   4.359  0.0834 -0.2618 -0.7202
49900SOL    HW167310   6.395   3.981   4.436 -1.9666  0.0050 -1.4258
49900SOL    HW267311   6.480   3.958   4.313  2.7252 -0.0352  1.5688
49901SOL     OW67312   4.668   8.912   4.919 -0.8379 -0.0992  0.2452
49901SOL    HW167313   4.581   8.890   4.952 -1.5388  0.8892 -0.8592
49901SOL    HW267314   4.667   9.008   4.911 -0.0753 -0.1687 -0.8796
49902SOL     OW67315  13.237  13.185   0.846  0.1702  0.0462 -0.3041
49902SOL    HW167316  13.257  13.220   0.933  0.5439 -2.1226  0.5521
49902SOL    HW267317  13.273  13.096   0.847 -3.0343 -1.4212 -1.3288
49903SOL     OW67318   3.821   5.258   4.242  0.1203 -0.3295 -0.1630
49903SOL    HW167319   3.872   5.177   4.250 -0.0807 -0.6552 -1.8440
49903SOL    HW267320   3.770   5.247   4.162 -1.1661  0.7915  0.4625
49904SOL     OW67321  11.179  10.544  11.675  0.4482  0.1757  0.2578
49904SOL    HW167322  11.118  10.618  11.667  1.4053  0.9240 -0.3895
49904SOL    HW267323  11.224  10.541  11.590 -1.6883 -3.1264 -0.9713
49905SOL     OW67324  10.944  12.551   7.591  0.1292 -0.0743  0.0213
49905SOL    HW167325  10.914  12.541   7.500  0.1920 -0.1016  0.0029
49905SOL    HW267326  10.933  12.644   7.610 -0.7927 -0.2419  0.3165
49906SOL     OW67327   1.679  10.830   9.526 -0.4677  0.5608 -0.7448
49906SOL    HW167328   1.584  10.825   9.511 -0.5824 -0.6032  0.2489
49906SOL    HW267329   1.711  10.741   9.511  0.3739  0.8025 -0.4501
49907SOL     OW67330   2.223   4.522   8.778 -0.5195  0.1733 -0.2747
49907SOL    HW167331   2.218   4.427   8.765 -0.1888  0.0841  0.2453
49907SOL    HW267332   2.309   4.536   8.816 -0.6935  0.6553 -0.0614
49908SOL     OW67333  12.937   1.341  13.728  0.3787 -0.0139 -0.4698
49908SOL    HW167334  12.956   1.335  13.821 -0.7826 -0.6876 -0.2659
49908SOL    HW267335  12.991   1.273  13.688  1.3482  0.6782 -0.3902
49909SOL     OW67336   7.461  13.770   9.625 -0.3707 -0.4555  0.3006
49909SOL    HW167337   7.405  13.711   9.676 -0.2662 -0.8537 -0.0390
49909SOL    HW267338   7.426  13.857   9.642 -0.4371 -0.5991  0.9262
49910SOL     OW67339   5.024   3.761   3.085  0.4111 -0.2878 -0.2907
49910SOL    HW167340   5.075   3.750   3.005  2.7896 -1.2677  1.2334
49910SOL    HW267341   5.044   3.849   3.115  2.1169 -0.9894  0.8010
49911SOL     OW67342   0.247   8.595   7.316  1.0947 -0.6569  0.4442
49911SOL    HW167343   0.226   8.634   7.401  0.5499 -1.2408  0.5800
49911SOL    HW267344   0.342   8.605   7.308  1.1874 -0.8429  1.2461
49912SOL     OW67345   3.051   9.452   9.750 -0.4458  0.8363  0.0397
49912SOL    HW167346   3.023   9.385   9.812  0.0511  0.8095  0.2412
49912SOL    HW267347   3.094   9.518   9.805 -0.7871  1.2344 -0.1770
49913SOL     OW67348   3.335   3.744   6.742  0.1221 -1.1935 -0.2525
49913SOL    HW167349   3.317   3.677   6.676  0.7884 -0.0776 -1.6060
49913SOL    HW267350   3.420   3.719   6.778 -0.5255 -2.1553  0.6653
49914SOL     OW67351   9.794   3.415  10.229 -0.4621  0.5284 -0.1881
49914SOL    HW167352   9.757   3.499  10.254  0.0310  0.7155 -0.0663
49914SOL    HW267353   9.725   3.372  10.179 -0.2435  1.5569 -1.4099
49915SOL     OW67354  13.343   5.807  12.043 -0.1614  0.3743 -0.2920
49915SOL    HW167355  13.377   5.861  11.972  1.2655 -0.1537 -0.0437
49915SOL    HW267356  13.362   5.858  12.122 -0.6305  0.4112 -0.2044
49916SOL     OW67357  10.956   8.365   2.421 -0.5666  0.5770  0.3827
49916SOL    HW167358  11.044   8.388   2.451  0.2132 -2.3701  0.6534
49916SOL    HW267359  10.959   8.378   2.326  0.2294  0.3976  0.3736
49917SOL     OW67360  13.410   9.222  12.047 -0.5267 -0.6498 -0.0118
49917SOL    HW167361  13.457   9.147  12.082 -0.4985 -0.1094  1.1604
49917SOL    HW267362  13.437   9.295  12.103  0.6864  0.5809 -2.1039
49918SOL     OW67363   1.482   1.287  13.753  0.3145 -0.4850 -0.5722
49918SOL    HW167364   1.488   1.296  13.658  0.0516 -0.5515 -0.5978
49918SOL    HW267365   1.425   1.358  13.780 -1.9675 -2.1077 -0.7997
49919SOL     OW67366  11.925  10.101  11.681 -0.1209  0.4057 -0.3691
49919SOL    HW167367  11.919  10.189  11.717  2.3575  0.1808  0.7954
49919SOL    HW267368  11.985  10.109  11.607 -0.4072 -0.2163 -0.6809
49920SOL     OW67369   6.480   1.985   9.204 -0.9997 -0.3183 -0.3835
49920SOL    HW167370   6.547   2.036   9.158 -1.4056  2.6571  2.0549
49920SOL    HW267371   6.399   2.005   9.156 -0.9619  0.3913 -0.1643
49921SOL     OW67372   1.320   7.617   2.501 -0.2816  0.0969 -0.4850
49921SOL    HW167373   1.312   7.553   2.431 -0.8938 -1.1496  0.6832
49921SOL    HW267374   1.411   7.609   2.532  0.6463  2.0861 -2.3959
49922SOL     OW67375   1.626   7.747   7.654  0.3223 -0.0329 -0.1571
49922SOL    HW167376   1.674   7.765   7.735 -1.2192  0.7423  0.6206
49922SOL    HW267377   1.651   7.658   7.632 -0.8113 -1.0705  2.3501
49923SOL     OW67378   7.186   3.803   1.674 -0.8528  0.6662  0.0510
49923SOL    HW167379   7.222   3.851   1.599 -0.2910  0.6277  0.2894
49923SOL    HW267380   7.112   3.754   1.639 -0.6062  0.6684 -0.4740
49924SOL     OW67381   9.067   5.277   2.592  0.1059  0.1651  0.4641
49924SOL    HW167382   8.980   5.318   2.598 -0.2865 -0.5826 -0.0670
49924SOL    HW267383   9.123   5.346   2.556  0.2383  1.3716  2.7684
49925SOL     OW67384  13.101   2.196  10.768  0.0655  0.5456  0.4775
49925SOL    HW167385  13.107   2.232  10.857 -0.5743  0.2946  0.6270
49925SOL    HW267386  13.192   2.183  10.741  0.2864  1.4318  0.7631
49926SOL     OW67387   1.204   6.103   0.762 -0.0807  0.0635 -0.0169
49926SOL    HW167388   1.281   6.058   0.797 -0.2740  0.3640  0.8233
49926SOL    HW267389   1.160   6.138   0.839 -1.4721 -0.7373 -0.4246
49927SOL     OW67390  12.046   2.700   8.504 -0.1118  0.3620  0.4640
49927SOL    HW167391  12.042   2.709   8.599 -1.8218  1.5243  0.3186
49927SOL    HW267392  11.962   2.733   8.473 -0.2711 -1.5493 -1.3581
49928SOL     OW67393   8.669   3.105   1.993 -0.2036 -0.4800  0.1888
49928SOL    HW167394   8.632   3.174   2.047 -1.7430 -1.0360 -0.0940
49928SOL    HW267395   8.656   3.135   1.903  0.7968 -0.3238  0.0876
49929SOL     OW67396   4.487   4.090   9.135 -0.0790 -0.6232 -0.1281
49929SOL    HW167397   4.555   4.044   9.085  0.6462 -1.0831  1.2243
49929SOL    HW267398   4.535   4.155   9.186 -1.0702  1.6272 -1.8720
49930SOL     OW67399   0.197   1.934  10.844 -0.2424  0.1477  0.0048
49930SOL    HW167400   0.184   1.872  10.773 -1.0618  0.0139  0.2648
49930SOL    HW267401   0.236   2.011  10.802  1.1025 -0.6568 -0.2585
49931SOL     OW67402   5.136   0.109   4.492  0.1454  0.0948  0.0509
49931SOL    HW167403   5.106   0.036   4.437 -0.9850  1.5803 -1.3994
49931SOL    HW267404   5.073   0.111   4.565  1.2979 -1.5085  1.1657
49932SOL     OW67405   6.111   2.807   5.294  0.2303  0.0309  0.5686
49932SOL    HW167406   6.165   2.760   5.358  0.5859  0.9674  0.9840
49932SOL    HW267407   6.173   2.864   5.249 -0.1757  0.0291  0.0104
49933SOL     OW67408   8.572  13.018   1.908 -0.0313  0.0081  0.3139
49933SOL    HW167409   8.582  12.925   1.928 -0.8149 -0.0723  0.3955
49933SOL    HW267410   8.571  13.061   1.993 -0.4591 -0.0060  0.3206
49934SOL     OW67411   6.922   7.904  13.479  0.4076  0.2965 -0.0009
49934SOL    HW167412   6.968   7.838  13.531 -0.6385 -0.7478 -0.3696
49934SOL    HW267413   6.838   7.915  13.524  0.2327  0.7386 -0.4335
49935SOL     OW67414   5.167   7.345   8.805 -0.5156  0.3018  0.5093
49935SOL    HW167415   5.165   7.334   8.900  2.4161 -2.1352  0.4327
49935SOL    HW267416   5.210   7.430   8.791 -1.5679  0.9893  1.3093
49936SOL     OW67417   9.303  10.855  11.057  0.4408  0.7735 -0.0045
49936SOL    HW167418   9.326  10.832  11.147 -0.1254  1.0431  0.2154
49936SOL    HW267419   9.281  10.948  11.062  1.2677  1.0102 -0.5956
49937SOL     OW67420  12.945  10.102   8.778 -0.4021 -0.0090 -0.2672
49937SOL    HW167421  13.008  10.092   8.849 -0.9858 -0.7472  0.1559
49937SOL    HW267422  12.926  10.196   8.776  1.5666  0.4272 -1.1791
49938SOL     OW67423   4.228   3.118   3.744 -0.0433  0.1534 -0.0659
49938SOL    HW167424   4.236   3.213   3.759  2.1439 -0.1436  0.9801
49938SOL    HW267425   4.279   3.102   3.664 -0.0041 -0.2210  0.0349
49939SOL     OW67426   8.722  11.647   4.040 -0.5831 -0.0167 -0.0066
49939SOL    HW167427   8.778  11.713   4.081 -0.5878 -0.0187  0.0033
49939SOL    HW267428   8.774  11.567   4.042 -0.2956  0.1466 -0.6701
49940SOL     OW67429  12.839   7.733   0.209  0.7919  0.0785 -0.0100
49940SOL    HW167430  12.751   7.752   0.240 -0.0910 -0.6410 -1.9390
49940SOL    HW267431  12.862   7.650   0.250  0.0359 -0.3783 -0.4837
49941SOL     OW67432   9.164  11.209  13.768  0.5760  0.0961  0.1712
49941SOL    HW167433   9.154  11.302  13.789 -2.0914  0.3600 -1.8336
49941SOL    HW267434   9.158  11.165  13.853 -0.2870  1.6263  0.9544
49942SOL     OW67435   0.357   2.237   0.796 -0.0823 -0.5548  0.2270
49942SOL    HW167436   0.272   2.195   0.783 -1.3404  1.8308  0.2919
49942SOL    HW267437   0.404   2.221   0.714 -1.7322  0.5547 -0.9961
49943SOL     OW67438   7.905   9.214  12.742 -0.2556 -0.4380  0.7494
49943SOL    HW167439   7.928   9.250  12.656 -1.6981 -1.8403 -0.2882
49943SOL    HW267440   7.811   9.200  12.738 -0.1860 -1.5284  2.1664
49944SOL     OW67441  11.244   6.489   5.165 -0.3558 -0.0100 -0.1493
49944SOL    HW167442  11.199   6.559   5.117  1.2434  1.0671 -0.1356
49944SOL    HW267443  11.336   6.499   5.143  0.2512 -0.3855  1.9993
49945SOL     OW67444   0.726  10.536   8.842  0.3313 -0.7580 -0.4878
49945SOL    HW167445   0.692  10.585   8.767 -0.2432  0.4190  0.5008
49945SOL    HW267446   0.648  10.500   8.885  0.5274 -0.2486  0.3223
49946SOL     OW67447   1.655   0.593  12.238 -0.5612  0.3832  0.5482
49946SOL    HW167448   1.710   0.544  12.178  1.3091 -3.3528  4.7456
49946SOL    HW267449   1.571   0.547  12.238 -0.0985 -0.5094  1.6618
49947SOL     OW67450   7.377   2.065  13.320  0.3918  0.0943  0.6637
49947SOL    HW167451   7.412   2.081  13.232  1.0179  2.6421  1.2958
49947SOL    HW267452   7.439   2.004  13.359  0.6422 -0.3173 -0.3432
49948SOL     OW67453   1.646   0.351   9.994  0.0527  0.2387  0.0063
49948SOL    HW167454   1.741   0.338  10.003 -0.0666 -1.8882 -1.1232
49948SOL    HW267455   1.636   0.445   9.982  1.8686  0.7116  1.7238
49949SOL     OW67456  12.781   5.043  10.192  0.5433  0.3471 -0.1127
49949SOL    HW167457  12.846   5.061  10.260  0.2323  2.0489 -0.2099
49949SOL    HW267458  12.812   4.964  10.149  1.1171 -0.3913  1.5608
49950SOL     OW67459  13.508   6.672   9.073 -0.1314  0.4011  0.0726
49950SOL    HW167460  13.559   6.624   9.139  1.8146 -0.2150 -1.7679
49950SOL    HW267461  13.523   6.764   9.095  1.7154  0.2310 -0.3115
49951SOL     OW67462   8.792   8.543  13.973  0.1389  0.0460 -0.0151
49951SOL    HW167463   8.843   8.624  13.967 -0.9752  0.7256 -0.5412
49951SOL    HW267464   8.734   8.557  14.047 -1.1076  0.3629 -1.0163
49952SOL     OW67465   6.881   2.371  11.394 -0.3298  0.7302 -0.8997
49952SOL    HW167466   6.799   2.421  11.396 -0.7120  0.1513  1.9491
49952SOL    HW267467   6.858   2.286  11.433  1.7731  0.8551  0.7544
49953SOL     OW67468   7.014   8.518   0.038 -0.0123 -0.1184  0.4181
49953SOL    HW167469   6.941   8.569   0.072 -0.4186 -0.8860  0.7045
49953SOL    HW267470   7.075   8.510   0.111  0.0672 -0.0291  0.3632
49954SOL     OW67471   4.516  11.592   3.590  0.1691  0.4346  0.0761
49954SOL    HW167472   4.606  11.567   3.611 -0.0754 -0.5645 -0.0125
49954SOL    HW267473   4.499  11.667   3.647 -0.0396 -1.3721  2.6146
49955SOL     OW67474   1.018   0.325   3.673  0.1165  0.4193  0.5926
49955SOL    HW167475   1.007   0.265   3.599 -0.8329  1.2295  0.0545
49955SOL    HW267476   1.069   0.275   3.737  0.4077 -0.5146 -0.3493
49956SOL     OW67477  13.954   8.311   1.101 -0.0909  0.0853  0.0602
49956SOL    HW167478  13.904   8.384   1.064  1.5015  0.4915 -1.4212
49956SOL    HW267479  13.997   8.348   1.178 -0.3836  0.3194  0.1136
49957SOL     OW67480  12.503   4.897  10.225 -0.3450 -0.7425 -0.0956
49957SOL    HW167481  12.519   4.954  10.300 -0.5626 -0.2199 -0.4405
49957SOL    HW267482  12.553   4.936  10.153 -0.8229 -0.7444 -0.4380
49958SOL     OW67483  11.190   7.396  11.686  0.3735  0.1777 -0.1105
49958SOL    HW167484  11.115   7.347  11.651 -0.0810  0.6989  0.1322
49958SOL    HW267485  11.249   7.328  11.719  0.7817 -0.3344 -1.7943
49959SOL     OW67486   6.142   6.230   7.369  0.6836 -0.0455 -0.0376
49959SOL    HW167487   6.059   6.255   7.328  0.3524 -0.4145  0.3955
49959SOL    HW267488   6.208   6.286   7.327  0.0445  1.1434  0.5125
49960SOL     OW67489   4.618   6.827   0.895  0.0732  0.6098  0.5459
49960SOL    HW167490   4.604   6.891   0.826 -0.5025  0.8929  0.9208
49960SOL    HW267491   4.630   6.744   0.849  0.2824  0.8952  0.0837
49961SOL     OW67492   6.176  13.543  10.352 -0.2547 -0.1339  0.8302
49961SOL    HW167493   6.205  13.587  10.432 -0.0835 -0.3263  0.8772
49961SOL    HW267494   6.247  13.482  10.332  0.2023  0.6680 -0.0749
49962SOL     OW67495   7.393  13.311   3.176 -0.2013  0.2602  0.0141
49962SOL    HW167496   7.438  13.247   3.231 -0.2209  1.2783  1.2338
49962SOL    HW267497   7.462  13.350   3.122 -0.2842 -1.2703 -1.2960
49963SOL     OW67498  11.538   4.060   3.176 -0.2669  0.0137  0.5616
49963SOL    HW167499  11.541   4.076   3.082  1.3920  2.0176  0.8887
49963SOL    HW267500  11.446   4.076   3.200 -0.1468  2.3714 -0.3058
49964SOL     OW67501   6.669   1.485   3.794 -0.0277  1.0827  0.5137
49964SOL    HW167502   6.671   1.580   3.785 -1.5184  1.0222 -1.0305
49964SOL    HW267503   6.600   1.457   3.733 -1.5170 -0.7491  2.8511
49965SOL     OW67504  12.561   4.122   3.501 -0.0218  0.4330 -0.3004
49965SOL    HW167505  12.517   4.038   3.515  0.3693 -0.1373 -2.1642
49965SOL    HW267506  12.546   4.142   3.409  0.8366  1.8618 -0.1612
49966SOL     OW67507   2.880   5.044   1.981 -0.0788 -0.0335  0.4460
49966SOL    HW167508   2.844   5.086   2.060  0.5390 -0.7898  1.1505
49966SOL    HW267509   2.910   5.116   1.927 -0.7598  0.5120  0.7805
49967SOL     OW67510   4.844   0.804   4.131 -0.1853  0.0505  0.0278
49967SOL    HW167511   4.822   0.863   4.059 -1.6854 -0.0794  0.3408
49967SOL    HW267512   4.905   0.741   4.093  1.5755  1.8466 -0.2688
49968SOL     OW67513  11.649   5.532   3.345  0.3842 -0.1809  0.5712
49968SOL    HW167514  11.694   5.500   3.424  0.9155 -0.7374  0.0515
49968SOL    HW267515  11.614   5.617   3.371  1.1759 -0.0300  1.1864
49969SOL     OW67516   5.436   1.865   5.818  0.7044 -0.3939  0.4365
49969SOL    HW167517   5.463   1.827   5.901 -2.1786  0.8147  2.0640
49969SOL    HW267518   5.487   1.946   5.811  0.8202 -0.3974  1.1557
49970SOL     OW67519   3.665   7.235   5.494 -0.2769 -0.5961  0.7088
49970SOL    HW167520   3.697   7.286   5.420  1.9574  1.2771  2.7836
49970SOL    HW267521   3.617   7.298   5.548 -1.7529 -1.8863  0.9789
49971SOL     OW67522   2.008   4.652   9.933 -0.1770  0.0431  0.2366
49971SOL    HW167523   2.015   4.740   9.895 -0.6752  0.4964  1.1520
49971SOL    HW267524   1.930   4.656   9.989  0.8469 -0.4062  1.7626
49972SOL     OW67525  11.030   6.453  12.006 -0.6225 -0.1625 -0.9682
49972SOL    HW167526  11.086   6.385  12.043 -0.2181  0.6922  0.0439
49972SOL    HW267527  10.961   6.466  12.070  0.3327  1.6419 -0.2122
49973SOL     OW67528   2.475   3.866   7.858  0.0056 -0.3846  0.3358
49973SOL    HW167529   2.451   3.793   7.801 -2.0542  0.5635 -0.1041
49973SOL    HW267530   2.481   3.827   7.945 -1.3791 -1.0535  0.1596
49974SOL     OW67531   8.051  11.226   0.450  0.2566  0.5471 -0.6408
49974SOL    HW167532   8.093  11.159   0.504 -0.1440  1.0211  0.2935
49974SOL    HW267533   8.009  11.178   0.379  2.1040  0.0326 -1.4335
49975SOL     OW67534   5.709  11.479  10.778 -0.3191  0.3345 -0.0283
49975SOL    HW167535   5.709  11.565  10.736 -0.3782 -0.2072 -1.2002
49975SOL    HW267536   5.683  11.496  10.868 -0.5635  1.5170 -0.3039
49976SOL     OW67537   0.797  10.569  12.828 -0.0065  0.1944 -0.3846
49976SOL    HW167538   0.750  10.541  12.749  1.1877 -1.3660 -0.5938
49976SOL    HW267539   0.884  10.592  12.797 -0.5246  3.0767  0.0008
49977SOL     OW67540  11.577  11.441  10.448  0.2008  0.6563 -0.3410
49977SOL    HW167541  11.668  11.469  10.442  0.2244  0.3846 -1.3025
49977SOL    HW267542  11.568  11.409  10.538  1.2457  0.0446 -0.4345
49978SOL     OW67543   6.965   3.968  12.407 -0.2877 -0.2100  0.3741
49978SOL    HW167544   7.015   4.003  12.481 -1.3165  3.4165 -0.4216
49978SOL    HW267545   6.892   3.922  12.448  0.1478  0.1456  1.6121
49979SOL     OW67546  10.967   0.536  13.762  0.3121  0.0903  1.0119
49979SOL    HW167547  11.014   0.469  13.712 -2.3439 -1.4799  0.3813
49979SOL    HW267548  10.934   0.489  13.839 -0.2371  1.0965  1.4130
49980SOL     OW67549   3.511   3.323   4.555  0.2597 -0.2030  0.0498
49980SOL    HW167550   3.537   3.246   4.605  0.2675  1.2957  2.5356
49980SOL    HW267551   3.441   3.363   4.608  1.0804  2.1189 -0.5100
49981SOL     OW67552   0.651  12.732  12.547  0.1963  0.5725 -0.1417
49981SOL    HW167553   0.601  12.651  12.558 -1.5684  1.8298  1.6302
49981SOL    HW267554   0.690  12.749  12.633 -0.2362  2.0737 -0.2102
49982SOL     OW67555   3.878  13.018  11.332  0.5897  0.2121  0.0163
49982SOL    HW167556   3.912  13.102  11.302  1.2767 -0.1476 -0.2340
49982SOL    HW267557   3.830  12.984  11.256  1.0444 -0.0116 -0.1721
49983SOL     OW67558   1.540   0.380   9.737  0.3718  0.0164 -0.1328
49983SOL    HW167559   1.569   0.317   9.671  0.1724  1.3449 -1.5624
49983SOL    HW267560   1.565   0.341   9.821  0.7046 -1.7025 -0.9859
49984SOL     OW67561   7.223   6.278   2.462 -0.4799 -0.0355 -0.2248
49984SOL    HW167562   7.292   6.344   2.462  0.9147 -1.4444 -0.4444
49984SOL    HW267563   7.163   6.307   2.532  0.9537  0.5794  0.8029
49985SOL     OW67564  12.084   9.623   5.363  0.2475  0.5295 -0.7354
49985SOL    HW167565  12.153   9.569   5.401 -0.9257 -0.0816  0.6115
49985SOL    HW267566  12.058   9.576   5.284 -0.8522 -1.0223  0.4840
49986SOL     OW67567  13.337   8.978  13.346 -0.3921  0.6806  0.1324
49986SOL    HW167568  13.324   8.968  13.252 -1.1224 -0.2019  0.3066
49986SOL    HW267569  13.374   8.894  13.375 -0.5907  0.7783  0.6935
49987SOL     OW67570  12.204   0.638   2.264  0.0231 -0.2623 -0.0933
49987SOL    HW167571  12.222   0.661   2.355 -0.4097  1.5309 -0.4161
49987SOL    HW267572  12.109   0.630   2.259 -0.0142  0.3297 -0.5064
49988SOL     OW67573   6.090   4.331   2.831  0.0201 -0.0116 -0.1921
49988SOL    HW167574   6.041   4.252   2.852 -0.3099  0.2980  0.2230
49988SOL    HW267575   6.026   4.389   2.789  0.0701  0.3075  0.1544
49989SOL     OW67576   0.816  13.787   8.130 -0.1110 -0.6507  0.3642
49989SOL    HW167577   0.785  13.700   8.156 -0.8978 -0.1434  1.1966
49989SOL    HW267578   0.881  13.810   8.197 -2.5838  0.9174  2.4315
49990SOL     OW67579   8.225  12.313   9.421 -0.1169 -0.4948  0.2388
49990SOL    HW167580   8.299  12.369   9.442 -1.0547  0.7018  0.4465
49990SOL    HW267581   8.148  12.361   9.452 -0.8970 -2.3485  1.3904
49991SOL     OW67582   3.750   6.097   7.949  0.0948 -0.1152 -0.0858
49991SOL    HW167583   3.736   6.014   7.996 -0.9423  0.0269 -0.1016
49991SOL    HW267584   3.812   6.076   7.880 -0.2477 -0.9144 -0.1613
49992SOL     OW67585   5.396   0.053  12.163  0.6074 -0.7999  0.0235
49992SOL    HW167586   5.409  -0.040  12.184  0.5165 -0.6451  0.7977
49992SOL    HW267587   5.403   0.098  12.247 -0.5631 -0.2364 -0.1551
49993SOL     OW67588  12.355   3.892  13.574 -0.1131  0.1209  0.3027
49993SOL    HW167589  12.347   3.798  13.586 -0.4257  0.0174 -0.6611
49993SOL    HW267590  12.389   3.903  13.485 -0.8633  0.9409  0.1051
49994SOL     OW67591   0.290   7.790   6.444  0.3068  0.3296 -0.3087
49994SOL    HW167592   0.362   7.726   6.444 -0.1539 -0.2054  0.1064
49994SOL    HW267593   0.332   7.875   6.452  0.9687  0.1172 -1.3723
49995SOL     OW67594   2.187   0.286   4.461 -0.5532 -0.0921  0.4627
49995SOL    HW167595   2.259   0.311   4.520  1.2698 -1.7814 -0.8965
49995SOL    HW267596   2.189   0.353   4.392 -0.4284 -0.0113  0.5436
49996SOL     OW67597  13.960   4.961   4.075 -0.2292  0.0765 -0.1345
49996SOL    HW167598  13.865   4.948   4.075 -0.2548  0.2262  0.4887
49996SOL    HW267599  13.993   4.894   4.135 -0.1507  1.3406  1.2981
49997SOL     OW67600   5.392  11.119  13.488 -0.0680 -0.4827  0.4238
49997SOL    HW167601   5.339  11.065  13.546  0.7936  0.9704  2.7179
49997SOL    HW267602   5.482  11.100  13.513  0.4052 -0.7314 -1.3573
49998SOL     OW67603   4.071   9.225   3.219  0.1457 -0.1568 -0.5546
49998SOL    HW167604   4.035   9.217   3.131  0.0966 -1.0626 -0.4603
49998SOL    HW267605   4.165   9.212   3.208 -0.0000 -1.4840 -0.3246
49999SOL     OW67606   0.960   8.643  10.080  0.2319 -0.0282  0.4173
49999SOL    HW167607   0.992   8.569  10.028  2.1651  0.7385  0.4034
49999SOL    HW267608   1.030   8.658  10.145 -0.1042  1.7747  0.4029
50000SOL     OW67609   9.799   1.973   3.778 -0.5192 -0.1291 -0.3080
50000SOL    HW167610   9.762   1.915   3.844 -0.3308  0.8972  0.7415
50000SOL    HW267611   9.892   1.952   3.777 -0.7953 -1.4837 -1.6792
50001SOL     OW67612  11.605   1.844   0.183 -0.2775  0.5061  0.0843
50001SOL    HW167613  11.633   1.797   0.105 -0.0964 -1.5427  1.2940
50001SOL    HW267614  11.664   1.920   0.188  0.4227  0.0706 -1.1646
50002SOL     OW67615   2.087  12.348   6.464 -0.2681 -0.1323 -0.2569
50002SOL    HW167616   2.027  12.409   6.508 -0.9787 -0.1699 -1.1335
50002SOL    HW267617   2.048  12.336   6.377  0.3752 -1.1122 -0.4161
50003SOL     OW67618  11.074   3.054   4.022  0.5835 -0.6905  0.0058
50003SOL    HW167619  11.102   3.067   4.113  1.4203  2.0801 -0.5694
50003SOL    HW267620  10.979   3.066   4.025  0.7119  0.3749  0.4087
50004SOL     OW67621  10.397   8.805   0.920 -0.2619  0.4323 -0.1151
50004SOL    HW167622  10.392   8.758   0.837 -1.3647 -1.6952  1.0685
50004SOL    HW267623  10.305   8.816   0.946  0.0761 -0.3715  1.5470
50005SOL     OW67624   8.778   9.327   0.497 -0.3880  0.0375  0.1577
50005SOL    HW167625   8.771   9.232   0.509 -1.0101  0.2120  1.4480
50005SOL    HW267626   8.826   9.357   0.575 -3.8134  1.1912  2.0565
50006SOL     OW67627   3.322  11.473   2.992  0.0895 -0.1996 -0.1685
50006SOL    HW167628   3.413  11.459   2.965  0.0628  0.8093 -0.8602
50006SOL    HW267629   3.318  11.443   3.083  1.5917  1.4409  0.4930
50007SOL     OW67630   4.393   4.584  10.705  0.4212 -0.4282 -0.0442
50007SOL    HW167631   4.366   4.563  10.615  0.8566 -0.3763 -0.1865
50007SOL    HW267632   4.486   4.605  10.698  0.0949  1.1582  0.1548
50008SOL     OW67633   8.772  10.713   6.502 -0.0635 -0.2456 -0.4026
50008SOL    HW167634   8.746  10.625   6.473  1.6544 -1.1463  0.6167
50008SOL    HW267635   8.731  10.723   6.588 -0.7810  0.2398 -0.7882
50009SOL     OW67636   9.086   4.568   9.203 -0.1451  0.4076  0.7368
50009SOL    HW167637   9.063   4.476   9.189 -0.8508  0.5522  0.9240
50009SOL    HW267638   9.046   4.614   9.130 -1.4376  0.8025  1.6480
50010SOL     OW67639   2.860  10.203  13.037  0.0973  0.0648  0.1787
50010SOL    HW167640   2.866  10.198  12.942 -0.6863 -0.3529  0.1450
50010SOL    HW267641   2.866  10.297  13.056 -0.1847  0.1884 -0.3154
50011SOL     OW67642  11.048   2.314   8.317 -0.1908 -0.3248  0.2123
50011SOL    HW167643  10.995   2.304   8.396 -0.7967  1.0317  0.0084
50011SOL    HW267644  11.021   2.399   8.280  2.0555  0.3847  0.0411
50012SOL     OW67645  12.042   3.848   1.776  0.6171 -0.0182  0.7304
50012SOL    HW167646  12.038   3.933   1.730  1.4514  0.7119  1.9472
50012SOL    HW267647  11.951   3.829   1.799  0.3787  0.3810  0.1450
50013SOL     OW67648  11.357   0.211   2.324 -0.8351 -0.0214 -0.0416
50013SOL    HW167649  11.295   0.252   2.263  0.7272  2.8803  0.1385
50013SOL    HW267650  11.302   0.177   2.394 -2.3437  1.4384 -0.4334
50014SOL     OW67651  13.601   3.452   1.591 -0.3045 -0.0402 -0.0674
50014SOL    HW167652  13.615   3.487   1.503 -0.3604  0.3010  0.0591
50014SOL    HW267653  13.669   3.493   1.644  0.1896 -0.8007 -0.0943
50015SOL     OW67654  14.004  12.475  11.365 -0.5544  0.3322 -0.1658
50015SOL    HW167655  13.936  12.447  11.426  1.2767  0.2027  1.9454
50015SOL    HW267656  13.997  12.571  11.362 -2.0784  0.2328 -1.6147
50016SOL     OW67657   5.097   7.137   1.922 -0.1615  0.3569  0.2912
50016SOL    HW167658   5.112   7.154   1.829  0.8139 -0.7758  0.2143
50016SOL    HW267659   5.046   7.056   1.923  0.5638 -0.1039  0.7460
50017SOL     OW67660   4.666   6.839   1.152 -0.6512 -0.4023  0.1501
50017SOL    HW167661   4.642   6.814   1.062 -0.5009 -0.2602  0.0683
50017SOL    HW267662   4.747   6.791   1.169  0.7632  1.4964 -0.7443
50018SOL     OW67663  12.690   8.347   9.517  0.3727 -0.0126  0.2003
50018SOL    HW167664  12.716   8.388   9.600  0.6909  1.3207 -0.5147
50018SOL    HW267665  12.607   8.389   9.494  1.4813  1.5173 -1.3356
50019SOL     OW67666  10.766  12.847  13.642 -0.0186  0.1577  0.0871
50019SOL    HW167667  10.807  12.763  13.622 -2.2160 -0.5454 -1.9906
50019SOL    HW267668  10.740  12.839  13.734  0.6455 -1.0482  0.1915
50020SOL     OW67669  12.522   8.019   8.431 -0.0779 -0.0499 -0.1316
50020SOL    HW167670  12.514   7.958   8.357  0.9696  0.8407 -1.0217
50020SOL    HW267671  12.435   8.020   8.470 -0.5786 -0.7887 -1.1604
50021SOL     OW67672   2.290   5.447  13.524 -0.1770 -0.3748 -0.5446
50021SOL    HW167673   2.328   5.389  13.589  0.3805  1.7420  1.1136
50021SOL    HW267674   2.365   5.483  13.477 -0.0904  2.2837  1.4045
50022SOL     OW67675   8.755   2.153   6.936 -0.5435  0.1942 -0.4998
50022SOL    HW167676   8.765   2.066   6.898 -0.2655  0.1482 -0.3222
50022SOL    HW267677   8.699   2.199   6.874 -0.6149 -0.0819 -0.6425
50023SOL     OW67678   0.448   8.317   2.015  0.1894 -0.1960 -0.1675
50023SOL    HW167679   0.397   8.248   2.058  0.7178 -0.4466  0.0785
50023SOL    HW267680   0.459   8.384   2.083  0.2628 -0.1823 -0.1931
50024SOL     OW67681  12.576   8.303   4.564  0.3675  0.4931  0.2243
50024SOL    HW167682  12.605   8.355   4.639  0.0104 -0.4485  1.0450
50024SOL    HW267683  12.496   8.260   4.595  0.3980 -0.1680 -0.5871
50025SOL     OW67684  14.060  13.506   8.455 -0.0803  0.8179 -0.5376
50025SOL    HW167685  13.970  13.480   8.437 -0.0723  0.1282  0.3355
50025SOL    HW267686  14.074  13.584   8.400 -0.1106 -0.9199 -3.1718
50026SOL     OW67687   6.763   7.871   1.021 -0.3364 -0.0637 -0.0183
50026SOL    HW167688   6.811   7.796   1.056 -4.1312 -2.2819  0.9647
50026SOL    HW267689   6.715   7.835   0.946 -0.5670  2.0100 -0.9373
50027SOL     OW67690  11.561   9.228  12.842 -0.0035 -0.0829 -0.2145
50027SOL    HW167691  11.599   9.299  12.894  1.2024 -0.7674 -0.1246
50027SOL    HW267692  11.505   9.272  12.779 -0.7591  0.8282  1.0380
50028SOL     OW67693   3.903   3.131   8.153  0.0532  0.1712  0.0580
50028SOL    HW167694   3.894   3.219   8.116 -2.3950  0.7531  1.8221
50028SOL    HW267695   3.965   3.142   8.225  1.1438  0.0107 -0.8157
50029SOL     OW67696  12.913   4.191  10.346  0.1542 -0.7347  0.3686
50029SOL    HW167697  12.953   4.105  10.356  0.8526 -0.5019 -0.3072
50029SOL    HW267698  12.886   4.195  10.254  0.2955 -0.1735  0.3455
50030SOL     OW67699  10.625   5.308  13.712 -0.1670 -0.0640 -0.0087
50030SOL    HW167700  10.535   5.329  13.687 -0.1002  0.3001  0.0448
50030SOL    HW267701  10.675   5.386  13.688 -0.1672  0.4813  1.6155
50031SOL     OW67702  12.027   8.111   6.373  0.5161 -0.1270  0.0304
50031SOL    HW167703  11.951   8.101   6.429  1.1185  1.1870  1.1352
50031SOL    HW267704  12.080   8.179   6.415  2.2953 -0.9773 -0.7044
50032SOL     OW67705  13.841   4.677  13.317  0.2671  0.1648  0.0408
50032SOL    HW167706  13.919   4.638  13.356 -0.3663  1.7585  3.1496
50032SOL    HW267707  13.874   4.719  13.237  1.8506 -2.1311 -0.6492
50033SOL     OW67708  10.660   0.232  12.559 -0.1163  0.2694  0.4201
50033SOL    HW167709  10.722   0.258  12.628  0.2632  0.1795  0.1173
50033SOL    HW267710  10.712   0.234  12.478 -0.4109 -0.1970  0.2180
50034SOL     OW67711   2.897  11.652   5.075  0.3598  0.3486 -0.0205
50034SOL    HW167712   2.839  11.623   5.005  1.0126  0.5522 -0.6546
50034SOL    HW267713   2.938  11.731   5.041  2.0159 -0.5155 -0.1372
50035SOL     OW67714   8.752  11.234   5.881  0.1778 -0.2004 -0.2933
50035SOL    HW167715   8.826  11.294   5.889  0.2835 -0.5027  1.6015
50035SOL    HW267716   8.687  11.282   5.829  0.7073  1.1038  0.2173
50036SOL     OW67717   2.141   4.426   5.549 -0.2440  0.5417  0.6077
50036SOL    HW167718   2.167   4.476   5.471  1.7476 -1.1158  0.1067
50036SOL    HW267719   2.052   4.397   5.530  0.3029 -0.1125 -1.2862
50037SOL     OW67720  13.785  13.768   3.523  0.5762 -0.3767  0.4086
50037SOL    HW167721  13.733  13.821   3.584  0.4774 -0.6437  0.5562
50037SOL    HW267722  13.866  13.750   3.570 -0.2589 -2.2120  1.2355
50038SOL     OW67723   8.168   5.323  11.206 -0.2835  0.4586  0.1130
50038SOL    HW167724   8.139   5.408  11.172 -1.1321 -0.3078 -1.1899
50038SOL    HW267725   8.248   5.342  11.254 -0.9835  2.1387  0.7156
50039SOL     OW67726   3.941  12.322   2.081 -0.3419 -0.4208  0.5293
50039SOL    HW167727   3.869  12.276   2.039 -0.0536  0.3642 -0.9150
50039SOL    HW267728   3.974  12.381   2.013 -0.1537  1.2906  2.0184
50040SOL     OW67729   2.690   5.327   7.843  0.0628 -0.4153 -0.7668
50040SOL    HW167730   2.641   5.260   7.891  1.8981 -1.9810 -0.9816
50040SOL    HW267731   2.726   5.384   7.911 -1.0925  0.1279 -0.5655
50041SOL     OW67732   9.808   3.302   6.146  1.1266  0.1533  0.1023
50041SOL    HW167733   9.900   3.297   6.122  1.0510 -0.3193 -0.0961
50041SOL    HW267734   9.800   3.384   6.194  1.4203  0.7555 -0.8641
50042SOL     OW67735  13.547   6.204   5.156 -0.1352 -0.1252 -0.5248
50042SOL    HW167736  13.572   6.115   5.130 -1.5200 -0.9012  0.6833
50042SOL    HW267737  13.552   6.254   5.075  0.4660 -1.3411 -1.2758
50043SOL     OW67738  12.928   0.097  12.095 -0.0636 -0.4557 -0.3273
50043SOL    HW167739  12.990   0.108  12.167  0.1918 -0.1675 -0.5856
50043SOL    HW267740  12.939   0.176  12.042  1.1532 -1.4962 -1.7407
50044SOL     OW67741   2.671   4.095   7.473 -0.1802 -0.9526  0.3797
50044SOL    HW167742   2.597   4.093   7.533  0.5297 -0.5073  1.2857
50044SOL    HW267743   2.726   4.167   7.503 -1.2157  1.2526 -2.5449
50045SOL     OW67744   6.703  13.638   7.740 -0.1020  0.1778 -0.0064
50045SOL    HW167745   6.697  13.734   7.737 -0.0618  0.1688 -0.8038
50045SOL    HW267746   6.741  13.619   7.825 -0.1653  0.8698  0.1863
50046SOL     OW67747   8.597   4.659   7.308  0.5338  0.4182  0.3636
50046SOL    HW167748   8.529   4.720   7.279 -0.0713  0.7117  2.2263
50046SOL    HW267749   8.677   4.688   7.264 -0.1614  1.2669 -0.3664
50047SOL     OW67750   0.650   1.114   2.989 -0.2077 -0.8865  0.3895
50047SOL    HW167751   0.659   1.020   2.976  1.9610 -0.5810 -0.7701
50047SOL    HW267752   0.689   1.130   3.075 -0.3013 -1.0178  0.4562
50048SOL     OW67753   0.784   8.401   1.160  0.4698  0.1794 -0.4848
50048SOL    HW167754   0.796   8.319   1.209  2.6253 -0.2190 -1.5602
50048SOL    HW267755   0.693   8.397   1.129  0.9590 -2.6544 -1.9235
50049SOL     OW67756  12.003   0.948   2.366 -0.0095  0.5600  0.3464
50049SOL    HW167757  11.965   0.861   2.354  0.1132  0.4059  1.0285
50049SOL    HW267758  11.961   1.002   2.300 -0.5013  0.1057  0.2848
50050SOL     OW67759  11.713   8.477   4.722  0.3908 -0.0261  0.0683
50050SOL    HW167760  11.733   8.538   4.793  2.5371 -0.4381 -0.1051
50050SOL    HW267761  11.786   8.488   4.660  0.6998 -2.5160 -0.1100
50051SOL     OW67762   2.873  11.840   0.425  0.0719  0.3458 -0.5859
50051SOL    HW167763   2.903  11.880   0.343  2.1005 -0.8855 -0.5202
50051SOL    HW267764   2.804  11.779   0.398  0.9379 -0.2795 -1.4583
50052SOL     OW67765  11.298  13.640   4.597 -0.3541 -0.6070 -0.2729
50052SOL    HW167766  11.370  13.625   4.536  0.2441  1.4788 -0.1383
50052SOL    HW267767  11.245  13.560   4.591  1.0593 -1.5008 -1.6000
50053SOL     OW67768  11.184   0.782   3.688 -0.8989  0.3612  0.3339
50053SOL    HW167769  11.128   0.808   3.615 -0.4057 -1.1745 -0.6297
50053SOL    HW267770  11.220   0.697   3.663  0.4657  0.4741  1.7100
50054SOL     OW67771  12.383   5.544   3.550  0.1147  0.1188 -0.1675
50054SOL    HW167772  12.311   5.495   3.510 -0.5123  0.9569 -0.1049
50054SOL    HW267773  12.355   5.636   3.545  1.5030  0.5282 -0.7685
50055SOL     OW67774   0.525   1.976   3.284 -0.3238 -0.4404  0.5038
50055SOL    HW167775   0.484   1.931   3.209  0.0238  0.3112 -0.1528
50055SOL    HW267776   0.588   2.036   3.244 -0.8690  0.7299  1.3645
50056SOL     OW67777  10.443  12.733  13.426  0.5142  0.6454  0.5287
50056SOL    HW167778  10.495  12.653  13.433  0.4897  0.6844  1.1993
50056SOL    HW267779  10.376  12.713  13.360  1.1048  0.4511 -0.0252
50057SOL     OW67780   5.743   9.181   4.795 -0.2929  0.3665 -0.1396
50057SOL    HW167781   5.692   9.248   4.749 -0.7017 -0.2923 -0.6583
50057SOL    HW267782   5.834   9.210   4.786 -0.5025  1.1181  0.0805
50058SOL     OW67783   2.832   8.376   7.412 -0.5862 -0.3058  0.0377
50058SOL    HW167784   2.817   8.302   7.470 -0.7679 -1.3938 -1.3241
50058SOL    HW267785   2.843   8.336   7.325  0.7559  1.1603 -0.5167
50059SOL     OW67786   9.334   9.599   1.090  0.3894  0.8937  0.1932
50059SOL    HW167787   9.279   9.537   1.042  1.6095  1.2663 -1.8423
50059SOL    HW267788   9.381   9.545   1.154  0.5062 -0.1016 -0.6967
50060SOL     OW67789   7.254   2.651   9.545 -0.0944  0.1490 -0.0646
50060SOL    HW167790   7.174   2.603   9.568 -0.3387  0.0416 -1.0821
50060SOL    HW267791   7.320   2.620   9.608 -0.7000 -0.2099  0.4016
50061SOL     OW67792  13.297   5.797   6.474  0.1068 -0.4683  0.3441
50061SOL    HW167793  13.374   5.838   6.434 -1.1238 -0.2436 -1.9832
50061SOL    HW267794  13.329   5.711   6.504  1.2390 -0.4621 -0.7443
50062SOL     OW67795   9.974   0.346   2.427 -0.7096  0.1479 -0.1063
50062SOL    HW167796   9.891   0.391   2.442 -0.4902  0.2296  0.9585
50062SOL    HW267797   9.977   0.278   2.494  0.1561  0.2665 -0.0147
50063SOL     OW67798   5.609  11.899   9.032  0.0817  0.3250 -0.2435
50063SOL    HW167799   5.628  11.889   9.125  0.0820 -0.0943 -0.2839
50063SOL    HW267800   5.626  11.991   9.013  0.1539  0.3943  0.1546
50064SOL     OW67801   2.991  10.496   2.903  0.8079  0.0512  0.1797
50064SOL    HW167802   2.930  10.502   2.976 -0.5298  0.2306 -0.9094
50064SOL    HW267803   3.077  10.510   2.942  0.4610 -2.6034  2.1936
50065SOL     OW67804   8.030  12.821   8.194 -0.2859 -0.1870 -0.4748
50065SOL    HW167805   7.934  12.817   8.193 -0.2800 -0.3411 -0.6211
50065SOL    HW267806   8.053  12.814   8.286 -0.4294  0.2684 -0.4011
50066SOL     OW67807  10.031   0.769   1.854  0.2489  0.2267 -0.0765
50066SOL    HW167808  10.047   0.701   1.788  0.3692  0.1610  0.0204
50066SOL    HW267809  10.083   0.843   1.826 -0.0120  0.3380 -0.2733
50067SOL     OW67810   8.410   4.844  13.649 -0.7047 -0.3123 -0.0101
50067SOL    HW167811   8.323   4.808  13.670 -0.7738 -0.9406 -1.3035
50067SOL    HW267812   8.431   4.900  13.724 -1.9201 -0.6998  0.6490
50068SOL     OW67813   9.918  11.763   7.645 -0.2277 -0.3038 -0.3577
50068SOL    HW167814   9.862  11.809   7.706 -0.8092 -0.8539 -0.4656
50068SOL    HW267815   9.906  11.670   7.666 -1.4940 -0.6054 -2.1568
50069SOL     OW67816  11.496   8.375  10.247  0.0189 -0.4850 -0.0977
50069SOL    HW167817  11.540   8.392  10.164  2.1465  0.6840  1.1905
50069SOL    HW267818  11.420   8.322  10.223  1.0745 -0.9923 -2.6707
50070SOL     OW67819   6.677  11.524   8.276  0.1627 -0.2426 -0.3000
50070SOL    HW167820   6.585  11.533   8.252 -0.4462 -0.8859  1.6253
50070SOL    HW267821   6.676  11.503   8.369  2.2659 -0.3531 -0.2482
50071SOL     OW67822   3.004  11.404   7.851  0.5403 -0.2727 -0.0326
50071SOL    HW167823   2.924  11.396   7.799  0.0294  0.0928  0.6868
50071SOL    HW267824   3.016  11.498   7.864  0.4475 -0.3708  0.8317
50072SOL     OW67825   8.060   3.992   2.635 -0.1298 -0.5680 -0.2671
50072SOL    HW167826   8.054   4.083   2.666  0.6266 -0.2977 -0.8996
50072SOL    HW267827   7.986   3.948   2.678 -0.5205  0.3451  0.0325
50073SOL     OW67828   2.393  11.081  13.255  0.7222  0.0615  0.2948
50073SOL    HW167829   2.397  10.995  13.298  0.5797  0.1426  0.4705
50073SOL    HW267830   2.413  11.062  13.163  0.1309 -0.2391  0.2252
50074SOL     OW67831   6.066   0.378   6.631  0.4219 -0.2045 -0.2163
50074SOL    HW167832   6.116   0.334   6.700 -1.6084 -0.5330  1.1297
50074SOL    HW267833   6.066   0.470   6.656  1.2780 -0.0298 -0.8331
50075SOL     OW67834   1.002  13.300   5.834 -0.4666  1.0464 -0.3499
50075SOL    HW167835   1.049  13.219   5.814 -2.4025 -0.1420 -0.4278
50075SOL    HW267836   0.990  13.298   5.929 -0.9699  0.9601 -0.4124
50076SOL     OW67837  10.668   9.850  13.862  0.0781 -0.4129  0.1835
50076SOL    HW167838  10.727   9.910  13.907 -0.4594  1.2329 -1.1962
50076SOL    HW267839  10.724   9.806  13.798  0.2626 -0.6320  0.4902
50077SOL     OW67840  10.851  13.492  10.806 -0.0831  0.6695 -0.0167
50077SOL    HW167841  10.879  13.428  10.871  1.4853  1.1000 -0.2489
50077SOL    HW267842  10.777  13.449  10.761  1.5039 -1.4180 -0.8126
50078SOL     OW67843   4.993  11.077   2.349  0.7071 -0.3731  0.1064
50078SOL    HW167844   4.935  11.006   2.376 -1.3854  0.3316 -2.1016
50078SOL    HW267845   4.977  11.147   2.413  0.5166 -0.8425  0.5770
50079SOL     OW67846  13.354   1.341   5.790  0.5407  0.5072 -0.0293
50079SOL    HW167847  13.284   1.297   5.743  1.5758  0.1014 -1.2765
50079SOL    HW267848  13.393   1.274   5.846 -0.4827  0.9083  1.2048
50080SOL     OW67849   2.271   7.749   1.098  0.2231  0.5742 -0.3708
50080SOL    HW167850   2.233   7.729   1.183 -0.7144  2.6602 -0.2219
50080SOL    HW267851   2.346   7.691   1.090 -0.5862 -0.7595  1.1824
50081SOL     OW67852  13.015  13.174   9.860  0.0732 -0.2442  0.7589
50081SOL    HW167853  12.921  13.189   9.849  0.3711  1.0116 -0.3691
50081SOL    HW267854  13.022  13.084   9.891 -1.5079 -0.3113  0.9810
50082SOL     OW67855   4.716  13.898   5.405  0.4066  0.4229  0.3836
50082SOL    HW167856   4.782  13.897   5.336  0.8069  1.4202  0.7425
50082SOL    HW267857   4.703  13.990   5.425 -2.6729  0.4351 -1.1484
50083SOL     OW67858   6.707   3.245  13.228  0.3648  0.0972  0.1208
50083SOL    HW167859   6.745   3.323  13.270 -0.6957  0.4116  0.5380
50083SOL    HW267860   6.752   3.239  13.144 -0.2424  1.7756 -0.3719
50084SOL     OW67861   2.130  11.728   5.269  0.2980  0.2933 -0.7745
50084SOL    HW167862   2.116  11.807   5.322 -0.7672  0.4678 -1.2763
50084SOL    HW267863   2.101  11.753   5.181  0.6134 -0.4444 -1.0940
50085SOL     OW67864   6.996   4.470   4.191  0.1670 -0.0008 -0.0843
50085SOL    HW167865   7.082   4.428   4.188  0.4850  0.6809 -1.6570
50085SOL    HW267866   6.982   4.489   4.284 -0.0894 -3.6641  0.7877
50086SOL     OW67867  10.677   2.404   6.948 -0.1441  0.4148 -0.7629
50086SOL    HW167868  10.686   2.369   7.037  0.3332  0.7515 -0.6742
50086SOL    HW267869  10.757   2.456   6.935 -1.8442  3.4647  0.0182
50087SOL     OW67870   4.268  13.310  12.970 -0.5720  0.0232  0.7186
50087SOL    HW167871   4.185  13.265  12.955 -0.6058  0.5323 -0.7606
50087SOL    HW267872   4.304  13.324  12.883  1.5206 -0.9806  1.3648
50088SOL     OW67873  11.377   9.939   0.438 -0.3729  0.3549 -0.9092
50088SOL    HW167874  11.454   9.911   0.488  0.3891 -0.3252 -2.3971
50088SOL    HW267875  11.385  10.034   0.433 -0.4671  0.4394  0.2411
50089SOL     OW67876  10.759   6.511  13.381 -0.0099 -0.0179  0.0151
50089SOL    HW167877  10.687   6.571  13.364  1.0729  1.3509  0.1155
50089SOL    HW267878  10.719   6.424  13.378 -1.4473  0.6478 -0.9706
50090SOL     OW67879   3.627   6.891   1.113 -0.2856 -0.2956  0.3079
50090SOL    HW167880   3.581   6.810   1.093 -0.6191  0.1191 -0.6124
50090SOL    HW267881   3.584   6.958   1.060  0.9547  0.2165 -0.0954
50091SOL     OW67882  13.257   4.192  13.040 -0.0476  0.1988  0.5468
50091SOL    HW167883  13.185   4.140  13.075  0.1342 -0.1507  0.4065
50091SOL    HW267884  13.335   4.139  13.056  0.2234  0.7161  0.9883
50092SOL     OW67885  13.121   3.088  12.498  0.0529  0.0675 -0.2207
50092SOL    HW167886  13.163   3.084  12.584 -1.8275 -0.4763  0.7314
50092SOL    HW267887  13.046   3.146  12.511 -0.5686 -0.4545 -1.3389
50093SOL     OW67888   1.050   5.177   3.042 -0.0487  0.1561  0.2882
50093SOL    HW167889   0.960   5.209   3.040  0.4308  1.5666 -1.4072
50093SOL    HW267890   1.068   5.152   2.951  0.9518 -1.0962  0.8074
50094SOL     OW67891   1.388   1.033   5.178 -0.5437  0.0295 -0.0297
50094SOL    HW167892   1.325   1.091   5.134  0.1547  0.9111  0.0995
50094SOL    HW267893   1.459   1.023   5.116 -0.3020 -0.0522  0.2599
50095SOL     OW67894   1.161  11.992  10.532  0.1386  0.3660  0.0205
50095SOL    HW167895   1.143  11.899  10.547  0.2823  0.3072 -0.1708
50095SOL    HW267896   1.233  11.993  10.469 -2.5702  0.5875 -3.3954
50096SOL     OW67897   7.636   6.523  14.051 -1.0143  0.0369 -0.0304
50096SOL    HW167898   7.606   6.462  14.118  0.2590  0.7616  1.2446
50096SOL    HW267899   7.699   6.580  14.096  1.8290 -1.0010 -2.3884
50097SOL     OW67900   2.335   4.046   5.946  0.7613  0.1662  0.3941
50097SOL    HW167901   2.313   4.103   6.020 -2.6874  0.2704 -0.5416
50097SOL    HW267902   2.288   4.084   5.872 -0.3410 -2.8897 -0.6309
50098SOL     OW67903   3.447  12.536  13.263 -0.4350 -0.3164 -0.6055
50098SOL    HW167904   3.521  12.492  13.221 -0.2307 -0.5863  0.0354
50098SOL    HW267905   3.467  12.532  13.357 -1.1356 -0.1636 -0.4498
50099SOL     OW67906   1.114  11.697  10.813  0.3567 -0.2660  0.5156
50099SOL    HW167907   1.144  11.704  10.722  1.3288 -0.5254  0.8089
50099SOL    HW267908   1.037  11.754  10.817  0.3182 -0.2214 -0.4562
50100SOL     OW67909   3.365  10.025  10.343  1.0270  0.7717 -0.0702
50100SOL    HW167910   3.432  10.087  10.372 -0.8657  2.1723  1.5940
50100SOL    HW267911   3.293  10.037  10.406 -0.1386 -1.8473 -0.7796
50101SOL     OW67912   2.525   2.451   7.929 -0.3143  0.2522 -0.5780
50101SOL    HW167913   2.561   2.420   7.847 -0.5649  1.2464 -1.0756
50101SOL    HW267914   2.447   2.500   7.904  0.1318  1.3666  0.1695
50102SOL     OW67915   4.437   2.828   3.453 -0.5658  0.2328  0.2725
50102SOL    HW167916   4.357   2.815   3.402 -0.7444 -0.0641  0.6190
50102SOL    HW267917   4.477   2.741   3.457  0.0100  0.4728 -0.2844
50103SOL     OW67918   3.041   5.933   0.703  0.2437 -0.5582  0.3351
50103SOL    HW167919   2.984   5.972   0.769 -0.1996  0.6847 -0.7360
50103SOL    HW267920   3.047   5.841   0.727 -1.1794 -0.4458  1.1975
50104SOL     OW67921   8.516   2.805   0.264  0.5879  0.2494 -0.5164
50104SOL    HW167922   8.487   2.734   0.206  0.1144 -0.8563  0.9873
50104SOL    HW267923   8.600   2.832   0.228  0.6544 -0.8928 -1.3000
50105SOL     OW67924  12.011   5.429   6.697 -0.1141  0.2276 -0.1822
50105SOL    HW167925  11.961   5.471   6.767  0.1169  2.4289 -1.2777
50105SOL    HW267926  11.986   5.476   6.618 -0.3954 -2.2229 -1.6606
50106SOL     OW67927  10.312   7.360   0.376 -0.0097 -0.3185  0.3398
50106SOL    HW167928  10.279   7.278   0.338  0.0299  0.0793 -0.5651
50106SOL    HW267929  10.306   7.424   0.305  4.1076 -0.5285 -0.4540
50107SOL     OW67930   1.088   0.314   4.903 -0.2684 -0.0393 -0.2914
50107SOL    HW167931   1.072   0.265   4.984  0.2414 -0.6433 -0.5455
50107SOL    HW267932   1.070   0.251   4.834  0.7438  0.0212 -0.6181
50108SOL     OW67933   3.627  13.900  13.327  0.2873 -0.0576  0.4103
50108SOL    HW167934   3.664  13.947  13.252  2.2052 -0.8149  0.8193
50108SOL    HW267935   3.692  13.832  13.346 -0.9413 -0.8915  1.7602
50109SOL     OW67936   4.785   1.887  10.274  0.0247 -0.0054  0.1505
50109SOL    HW167937   4.701   1.925  10.250 -0.3842 -1.2508 -0.4874
50109SOL    HW267938   4.850   1.945  10.235 -0.5745 -0.0271 -0.9257
50110SOL     OW67939  13.855  10.807   8.907  0.0928 -0.4422 -0.0021
50110SOL    HW167940  13.881  10.865   8.835 -2.3486  1.2292  0.3124
50110SOL    HW267941  13.879  10.856   8.986 -1.8229  0.1631  0.2661
50111SOL     OW67942  10.124   8.647   7.795 -0.1891  0.6622  0.5129
50111SOL    HW167943  10.095   8.719   7.850  0.3544  0.9800  0.3848
50111SOL    HW267944  10.204   8.678   7.754 -0.7266  0.5440 -0.6845
50112SOL     OW67945   7.450   5.744   4.644  0.1340 -0.0361  0.2736
50112SOL    HW167946   7.365   5.703   4.661  0.6327 -2.2213 -1.9927
50112SOL    HW267947   7.502   5.724   4.722 -0.8814 -0.2198  0.9263
50113SOL     OW67948   6.321   3.127   3.576 -0.1252  0.1949 -0.0587
50113SOL    HW167949   6.358   3.203   3.532 -0.8971  2.6220  3.1116
50113SOL    HW267950   6.389   3.099   3.637  0.1049 -1.7035 -1.0909
50114SOL     OW67951  11.061   6.904   2.623 -0.3633 -0.0126  0.0796
50114SOL    HW167952  11.025   6.968   2.562 -0.9472  0.5477  0.9862
50114SOL    HW267953  11.150   6.935   2.640 -0.1151 -0.3010 -0.6481
50115SOL     OW67954  12.282  10.474  11.643 -0.1061 -1.0684 -0.1957
50115SOL    HW167955  12.284  10.494  11.550 -1.2832  0.2894  0.0262
50115SOL    HW267956  12.279  10.560  11.686  0.1090 -1.6686  1.0857
50116SOL     OW67957   5.010   7.657   9.281 -0.3493  0.0685  0.1125
50116SOL    HW167958   5.021   7.610   9.198 -1.8526 -1.0002  0.4540
50116SOL    HW267959   5.070   7.731   9.275 -0.8793  0.4034 -2.2002
50117SOL     OW67960  13.215   6.959   6.178  0.3197  0.1605 -0.0287
50117SOL    HW167961  13.186   6.894   6.242 -0.0301 -0.2326 -0.5758
50117SOL    HW267962  13.144   7.024   6.177  0.3472  0.1916  0.0108
50118SOL     OW67963  10.014   4.043   3.299  0.1828  0.8129  0.3175
50118SOL    HW167964   9.991   4.092   3.378  1.5036  0.1650  1.1503
50118SOL    HW267965  10.108   4.056   3.290  0.1165  0.5095 -0.9129
50119SOL     OW67966   8.959  11.366   9.552 -0.5337 -0.3021  0.2426
50119SOL    HW167967   9.031  11.311   9.585  1.0932  1.2115 -0.6124
50119SOL    HW267968   8.930  11.415   9.629  0.0753 -0.1607  0.3890
50120SOL     OW67969   8.422   5.799   3.803  0.5499 -0.1262 -0.0838
50120SOL    HW167970   8.346   5.787   3.859  0.2835  0.9301 -0.2021
50120SOL    HW267971   8.495   5.815   3.864  0.4358  0.1109 -0.0094
50121SOL     OW67972  11.246   0.302   5.176 -0.1500  0.6935 -0.0842
50121SOL    HW167973  11.293   0.379   5.145  0.7069  0.7365  1.2471
50121SOL    HW267974  11.248   0.309   5.272  0.3098 -1.1871  0.0871
50122SOL     OW67975   5.847   6.084   0.083  0.1535  0.4992  0.1290
50122SOL    HW167976   5.931   6.051   0.049 -0.1237  0.4009 -0.4692
50122SOL    HW267977   5.837   6.041   0.168 -0.1344 -0.8723 -0.5705
50123SOL     OW67978   1.452   2.070   2.951 -0.0303  0.2841  0.0050
50123SOL    HW167979   1.430   2.163   2.959  0.6086  0.4954 -0.6137
50123SOL    HW267980   1.377   2.032   2.904 -1.1405  0.1136  1.8038
50124SOL     OW67981   4.067   6.761   1.131  0.2053 -0.2633 -0.6453
50124SOL    HW167982   4.142   6.821   1.128  0.4851 -0.6228 -1.0529
50124SOL    HW267983   3.993   6.812   1.098  0.2698  0.0939 -0.2435
50125SOL     OW67984  10.119  11.717   1.053  0.1389  0.0868 -0.5563
50125SOL    HW167985  10.118  11.625   1.078  1.5239 -0.2037 -1.4199
50125SOL    HW267986  10.028  11.746   1.061 -0.3411 -1.3870 -0.4266
50126SOL     OW67987   0.094   3.844   3.996 -0.1796 -0.2260  0.2787
50126SOL    HW167988   0.136   3.780   4.053  1.3958 -0.7124 -1.3023
50126SOL    HW267989   0.159   3.861   3.927 -2.3540 -0.5646 -2.0210
50127SOL     OW67990  13.425   5.337   5.844 -0.1518  0.2791  0.8309
50127SOL    HW167991  13.494   5.324   5.909  0.7112 -0.3736 -0.1693
50127SOL    HW267992  13.427   5.430   5.825  3.0599 -0.1270 -1.8292
50128SOL     OW67993   6.351   2.809   7.963 -0.5663  0.7145 -0.3254
50128SOL    HW167994   6.386   2.885   7.916 -0.2812  0.8930  0.1646
50128SOL    HW267995   6.429   2.758   7.987 -0.4991  1.7349  1.8490
50129SOL     OW67996   2.889   5.063  11.087 -0.2265  0.0079 -0.1845
50129SOL    HW167997   2.810   5.101  11.048  0.0547 -0.1610 -0.9446
50129SOL    HW267998   2.876   4.968  11.078  0.2423 -0.0133 -0.7077
50130SOL     OW67999  13.702  12.018  11.277 -0.0339  0.2999 -0.0205
50130SOL    HW168000  13.667  11.930  11.266 -0.7924  0.7348 -1.4177
50130SOL    HW268001  13.755  12.014  11.356  0.3699 -1.5317 -0.3526
50131SOL     OW68002   4.746   3.179   8.160 -0.2851 -0.5167 -0.3020
50131SOL    HW168003   4.840   3.196   8.170 -0.4872  1.5758 -1.3858
50131SOL    HW268004   4.708   3.204   8.244  0.0145 -0.4210 -0.1936
50132SOL     OW68005  12.804   0.672  13.051 -0.6476  0.0042  0.1660
50132SOL    HW168006  12.791   0.720  12.970 -0.3275  0.4533  0.3728
50132SOL    HW268007  12.841   0.736  13.111  0.6053 -0.7091  0.1908
50133SOL     OW68008   1.487   3.773   2.563 -0.4075  0.1305  0.3549
50133SOL    HW168009   1.437   3.820   2.630 -1.4190  1.4146 -1.2410
50133SOL    HW268010   1.524   3.841   2.508 -1.7907 -0.8472 -1.9421
50134SOL     OW68011   3.435   3.559   5.597 -0.3376 -0.5521  0.2038
50134SOL    HW168012   3.349   3.518   5.608  0.4288 -2.4035 -0.2431
50134SOL    HW268013   3.460   3.537   5.507  0.3450  0.5226  0.1087
50135SOL     OW68014  13.039  11.245   5.699 -0.9542 -0.4353  0.7418
50135SOL    HW168015  13.056  11.292   5.618  0.9354 -2.0044  0.1353
50135SOL    HW268016  13.025  11.313   5.764 -0.0272  0.9190 -0.4262
50136SOL     OW68017   5.978   1.505   2.768  0.5225  0.0606 -0.4236
50136SOL    HW168018   5.885   1.516   2.746  0.0552  0.5547  1.5488
50136SOL    HW268019   6.011   1.594   2.777  0.6270 -0.0857  0.8812
50137SOL     OW68020  13.581   9.910   3.002  0.0531 -0.1035  0.0193
50137SOL    HW168021  13.495   9.935   3.034  0.4001 -0.7831  1.5469
50137SOL    HW268022  13.625   9.871   3.077  1.2931 -0.8037 -1.0204
50138SOL     OW68023  13.214  12.128  13.799  0.0761 -0.0099 -0.7205
50138SOL    HW168024  13.175  12.147  13.884 -0.2536 -1.7905 -0.4225
50138SOL    HW268025  13.297  12.085  13.819  0.3269  0.1862 -1.3099
50139SOL     OW68026   7.776   7.920   2.914  0.3165 -0.4211  0.0935
50139SOL    HW168027   7.786   8.011   2.942 -2.3293 -0.0552  0.1012
50139SOL    HW268028   7.710   7.884   2.973  0.5922 -2.0520 -0.5622
50140SOL     OW68029   2.963   8.729   2.001 -0.1060 -0.2080 -0.0423
50140SOL    HW168030   2.896   8.756   1.939 -1.0885  1.8200  1.7460
50140SOL    HW268031   2.943   8.638   2.021 -2.0711  0.2122  0.0792
50141SOL     OW68032   7.366   1.684   4.131  0.5673  0.2194  0.2192
50141SOL    HW168033   7.400   1.614   4.075  2.7272  0.9637  0.5040
50141SOL    HW268034   7.283   1.649   4.165  1.0913 -1.7971 -0.4079
50142SOL     OW68035  10.775   5.365  10.272 -0.5316  0.0342 -0.1789
50142SOL    HW168036  10.866   5.350  10.297  0.1825  1.3910 -1.7737
50142SOL    HW268037  10.740   5.421  10.341 -0.3936 -1.0951  0.8295
50143SOL     OW68038  13.428  13.511  13.405 -0.2361  0.2458 -0.3721
50143SOL    HW168039  13.438  13.514  13.500 -0.6282  0.7976 -0.3453
50143SOL    HW268040  13.488  13.578  13.372 -1.0697  0.9877 -0.4251
50144SOL     OW68041   7.129  10.138   3.895  0.2938 -0.0005 -0.2426
50144SOL    HW168042   7.154  10.190   3.972  0.2243  1.6615 -1.2890
50144SOL    HW268043   7.042  10.104   3.916 -0.0438  1.0579  0.1298
50145SOL     OW68044   8.458  12.017   6.056  0.4838 -0.2641  0.1897
50145SOL    HW168045   8.408  11.990   6.133  1.3435 -1.1086  0.4748
50145SOL    HW268046   8.521  12.081   6.089 -0.1694  0.5499 -0.1089
50146SOL     OW68047   3.917  12.679  11.256  0.1845 -0.1791  0.2309
50146SOL    HW168048   3.930  12.726  11.174  1.0593  0.2928  0.6313
50146SOL    HW268049   3.822  12.666  11.262 -0.3934  3.3799  1.1221
50147SOL     OW68050  13.545   6.373  11.479 -0.3790  0.1239  0.0189
50147SOL    HW168051  13.505   6.291  11.505  0.2337 -0.0834  0.3366
50147SOL    HW268052  13.597   6.351  11.402  1.7476 -0.3636  1.4889
50148SOL     OW68053   0.013   5.759   3.228 -0.2997  0.2303 -0.1871
50148SOL    HW168054   0.045   5.823   3.165 -0.4719  0.8640  0.3606
50148SOL    HW268055  -0.074   5.790   3.252 -0.6825 -0.5931 -0.4434
50149SOL     OW68056  12.464  12.766   7.547  0.1142  0.4321 -0.4639
50149SOL    HW168057  12.506  12.769   7.461 -1.1005  0.2013 -1.0891
50149SOL    HW268058  12.424  12.679   7.551  0.0599  0.4887  0.2832
50150SOL     OW68059   3.799   7.145  13.390  0.0366 -0.1414 -0.4040
50150SOL    HW168060   3.845   7.183  13.465 -0.6566 -0.9060  0.4241
50150SOL    HW268061   3.747   7.217  13.354  0.8963  0.4065 -0.5945
50151SOL     OW68062  10.008  10.056   1.889 -0.8860  0.2353  0.6954
50151SOL    HW168063  10.085  10.024   1.842 -0.7105  3.5841 -1.7092
50151SOL    HW268064  10.043  10.108   1.960 -0.9134  0.9762  0.1783
50152SOL     OW68065   4.237   6.373  12.886 -0.0461 -0.6220  0.3233
50152SOL    HW168066   4.268   6.411  12.804 -0.3335 -0.3890  0.3223
50152SOL    HW268067   4.153   6.416  12.903 -2.1444 -3.5794 -1.4639
50153SOL     OW68068   6.541  12.339  10.392 -0.2561 -0.9697  0.0353
50153SOL    HW168069   6.624  12.316  10.350 -0.4867 -0.6560 -0.6015
50153SOL    HW268070   6.564  12.406  10.456 -0.0813 -0.5589 -0.4521
50154SOL     OW68071   2.760   8.584   7.192  0.0036  0.2261 -0.3110
50154SOL    HW168072   2.784   8.579   7.284 -1.4902 -0.2507  0.0645
50154SOL    HW268073   2.686   8.525   7.182  0.4540 -0.1382 -1.9390
50155SOL     OW68074  11.650   0.084   4.910  0.6689  0.0316  0.0604
50155SOL    HW168075  11.655   0.141   4.987  0.3276  0.9202 -0.5558
50155SOL    HW268076  11.735   0.040   4.907 -0.5711 -3.0067  3.1353
50156SOL     OW68077   7.239   0.481   5.673 -0.0906 -0.1706 -0.0517
50156SOL    HW168078   7.263   0.389   5.676 -1.5855 -0.5473  2.1991
50156SOL    HW268079   7.184   0.490   5.595 -0.1951 -1.2201 -0.1020
50157SOL     OW68080   5.070  13.250  10.649  0.2091 -0.1527  0.0301
50157SOL    HW168081   5.095  13.283  10.736 -1.7459 -1.2283  1.0563
50157SOL    HW268082   5.094  13.321  10.589  0.3167  1.2177  1.6114
50158SOL     OW68083   4.567   6.401   0.382 -0.2471  0.7632 -0.1626
50158SOL    HW168084   4.556   6.476   0.324  0.2048 -0.1427 -1.4590
50158SOL    HW268085   4.578   6.326   0.323  0.6734 -0.1303  1.0814
50159SOL     OW68086   4.838   2.536  11.392  0.0160 -0.7144 -0.3099
50159SOL    HW168087   4.814   2.614  11.443 -0.8079 -0.7378 -0.6525
50159SOL    HW268088   4.774   2.533  11.322  1.4983 -0.3273 -1.7441
50160SOL     OW68089   8.888   0.169   2.186  0.4612  0.2614  0.3247
50160SOL    HW168090   8.807   0.121   2.169  0.4990  0.0106  0.8558
50160SOL    HW268091   8.870   0.219   2.266 -0.0875  2.2550 -0.9575
50161SOL     OW68092   1.452   7.493  10.473 -0.1009  0.3017 -0.7365
50161SOL    HW168093   1.542   7.485  10.504  0.9001  3.2472 -2.5178
50161SOL    HW268094   1.401   7.509  10.553  0.9920 -0.7531  0.2148
50162SOL     OW68095   8.179  10.799   9.389  0.7233 -0.3969  0.3153
50162SOL    HW168096   8.151  10.719   9.434 -1.0179  0.9601  1.8242
50162SOL    HW268097   8.228  10.848   9.455  0.7842  0.2936 -0.2279
50163SOL     OW68098   7.110   7.109   3.461 -0.4063 -0.3178  0.4212
50163SOL    HW168099   7.133   7.016   3.452 -0.2561 -0.0540 -3.1404
50163SOL    HW268100   7.042   7.124   3.396  1.6613  2.6598 -1.3100
50164SOL     OW68101  10.167  12.828   4.534  0.3953  0.3160  0.0065
50164SOL    HW168102  10.109  12.765   4.491  0.0926 -0.3323  1.3093
50164SOL    HW268103  10.111  12.904   4.552 -0.7027 -1.0268  2.9927
50165SOL     OW68104   1.331   4.581  12.108  0.1851  0.5760  0.0681
50165SOL    HW168105   1.338   4.604  12.200  0.2601 -1.2151  0.5368
50165SOL    HW268106   1.376   4.497  12.100  2.1167  1.6833 -2.0218
50166SOL     OW68107   5.932  10.495   4.163 -0.1399  0.2935 -0.3779
50166SOL    HW168108   5.943  10.586   4.134  1.5377  0.6490  1.2138
50166SOL    HW268109   5.914  10.501   4.256  1.3981 -1.0297  0.0504
50167SOL     OW68110  12.147   8.672  11.723 -0.3940  0.6290  0.3280
50167SOL    HW168111  12.164   8.671  11.817  0.5025  2.1822  0.2170
50167SOL    HW268112  12.230   8.700  11.684 -0.3660 -1.2067 -1.0401
50168SOL     OW68113   7.399  10.518   5.998  0.4095 -0.8010  0.1287
50168SOL    HW168114   7.345  10.444   5.973 -0.2112 -0.4522  0.3968
50168SOL    HW268115   7.380  10.532   6.091  0.5679 -0.3559  0.1004
50169SOL     OW68116  12.438   3.160   8.119  0.2017 -0.3568 -0.0793
50169SOL    HW168117  12.494   3.084   8.101  0.1340 -1.1933  2.8252
50169SOL    HW268118  12.369   3.154   8.053  1.2676 -1.6847 -1.1359
50170SOL     OW68119   1.533   1.620  11.400  0.2049 -0.8247  0.1639
50170SOL    HW168120   1.581   1.604  11.481  1.1777 -0.5406 -0.3489
50170SOL    HW268121   1.582   1.574  11.333  1.5027  1.8989 -0.8682
50171SOL     OW68122  11.333   6.443   9.908  0.1501 -0.6031  0.1304
50171SOL    HW168123  11.315   6.366   9.961 -1.7852 -0.8109 -0.7423
50171SOL    HW268124  11.268   6.508   9.936  1.1030  0.3663  0.1583
50172SOL     OW68125   9.457   6.148   7.760 -0.3630 -0.4798 -0.7552
50172SOL    HW168126   9.542   6.137   7.718  0.0992 -0.1499  0.0730
50172SOL    HW268127   9.397   6.095   7.708  0.8436 -2.9286  0.1941
50173SOL     OW68128   1.361  12.549   1.523  0.3471 -0.0869 -0.0319
50173SOL    HW168129   1.429  12.561   1.590 -0.0273 -0.8223  0.4908
50173SOL    HW268130   1.346  12.637   1.488  2.5171 -0.0765 -1.1033
50174SOL     OW68131   0.987   8.899  11.952  0.2478  0.2871 -0.6332
50174SOL    HW168132   1.047   8.883  12.024 -2.0638  1.1698  1.6211
50174SOL    HW268133   0.910   8.846  11.972 -1.0995  1.7939 -1.5728
50175SOL     OW68134   0.455   5.879   1.324  0.0720 -0.4186  0.1015
50175SOL    HW168135   0.499   5.807   1.369 -1.6559 -0.9697  0.9991
50175SOL    HW268136   0.367   5.881   1.361 -0.8070  0.4138 -1.8496
50176SOL     OW68137   7.590   6.671   3.206 -0.2062 -0.1504  0.1293
50176SOL    HW168138   7.540   6.709   3.134 -1.4931 -2.3427 -0.2364
50176SOL    HW268139   7.682   6.679   3.178 -0.6302 -0.2105 -1.3882
50177SOL     OW68140   5.259  12.277   6.872  0.1370  0.3332  0.0097
50177SOL    HW168141   5.273  12.349   6.934 -0.3562  3.0745 -2.8039
50177SOL    HW268142   5.347  12.257   6.838  0.3792 -1.0250  1.3289
50178SOL     OW68143   1.981   3.378   8.923 -0.2289  0.0201  0.6407
50178SOL    HW168144   2.046   3.445   8.906 -0.5841 -0.1847 -1.9755
50178SOL    HW268145   2.016   3.328   8.997  1.7671  0.9135  0.3543
50179SOL     OW68146   5.896   3.895   6.902 -0.2359  0.3668 -0.6433
50179SOL    HW168147   5.859   3.845   6.975 -0.4488 -0.3022 -1.2003
50179SOL    HW268148   5.892   3.986   6.932  0.4712  0.0375  0.5185
50180SOL     OW68149   5.761  13.676  13.981  0.6462 -0.1694  0.0885
50180SOL    HW168150   5.794  13.607  14.039 -0.9663 -0.3178  0.8797
50180SOL    HW268151   5.667  13.677  13.996  0.5372  1.7293 -0.4610
50181SOL     OW68152   9.180  12.937   2.016 -0.1871 -0.2646  0.5790
50181SOL    HW168153   9.115  12.867   2.013 -1.0723  0.5202  0.9348
50181SOL    HW268154   9.133  13.015   1.985  0.6896  0.2446  0.4903
50182SOL     OW68155  12.814   1.056   8.449  0.0483 -0.3147  0.1191
50182SOL    HW168156  12.903   1.071   8.481 -1.0253 -0.1139  3.2954
50182SOL    HW268157  12.793   1.134   8.397  0.8956  0.7841  1.3744
50183SOL     OW68158  11.555   5.841   3.011  0.0079  0.7303  0.3848
50183SOL    HW168159  11.517   5.789   3.081  0.4735 -1.1006 -0.6783
50183SOL    HW268160  11.619   5.897   3.056  0.9399 -1.0268  1.3762
50184SOL     OW68161  12.521   9.853   4.141  0.3249  0.0456  0.5082
50184SOL    HW168162  12.436   9.891   4.118  0.9729  1.7448  0.7413
50184SOL    HW268163  12.533   9.876   4.233  1.6401  1.0896  0.1097
50185SOL     OW68164  13.266   7.916   3.330 -0.0800 -0.5023  0.4262
50185SOL    HW168165  13.331   7.978   3.363  1.8785 -2.7783  1.1163
50185SOL    HW268166  13.275   7.919   3.235 -0.1143  0.3487  0.4483
50186SOL     OW68167   9.892  13.723   9.981  0.3025 -0.7848 -0.0359
50186SOL    HW168168   9.843  13.669   9.919 -0.3282  0.7131 -0.8766
50186SOL    HW268169   9.969  13.751   9.933  1.9561 -2.8758  1.1832
50187SOL     OW68170   6.454   5.334   4.714 -0.6045 -0.7521 -0.2651
50187SOL    HW168171   6.432   5.423   4.743  0.2843 -0.3240 -0.8705
50187SOL    HW268172   6.433   5.279   4.789  0.2416  0.1487  0.6566
50188SOL     OW68173  11.864   2.900  10.995  0.3774  0.1683 -0.2275
50188SOL    HW168174  11.783   2.929  10.954  0.9328  0.1801 -1.3520
50188SOL    HW268175  11.884   2.968  11.059 -1.0474 -0.3677  0.8421
50189SOL     OW68176  10.721   6.134   0.374  0.2760  0.0902  0.2485
50189SOL    HW168177  10.758   6.138   0.286  0.4588  0.4876  0.3405
50189SOL    HW268178  10.692   6.224   0.392 -0.9783 -0.2609  0.0823
50190SOL     OW68179  12.624   6.484  10.289  0.1655  0.5526 -0.4094
50190SOL    HW168180  12.684   6.505  10.361 -0.8151  1.6522  0.1217
50190SOL    HW268181  12.610   6.390  10.297 -0.5405  0.7485  1.3889
50191SOL     OW68182   1.935   3.601   7.878  0.4877  0.7170  0.4242
50191SOL    HW168183   1.848   3.560   7.878  0.7836 -0.0748  2.5462
50191SOL    HW268184   1.996   3.528   7.867  0.9244  0.9616  1.1271
50192SOL     OW68185  13.742   7.118   6.472  0.0990  0.3330 -0.2643
50192SOL    HW168186  13.706   7.054   6.409  2.1094  1.2617 -2.5264
50192SOL    HW268187  13.666   7.149   6.520 -1.3948 -1.3466 -1.3818
50193SOL     OW68188   0.133  10.330  10.312 -0.2324  0.9536 -0.4691
50193SOL    HW168189   0.071  10.301  10.379  0.1409 -0.5559 -0.7312
50193SOL    HW268190   0.078  10.368  10.243 -0.9928 -1.0309 -1.0335
50194SOL     OW68191   6.758  13.509  10.916  0.1298 -0.3808  0.1756
50194SOL    HW168192   6.729  13.552  10.996 -1.4314 -1.5285  0.2812
50194SOL    HW268193   6.846  13.544  10.900 -0.4203  1.5510  1.1307
50195SOL     OW68194   5.450   1.031   2.489 -0.5145  0.5817 -0.2455
50195SOL    HW168195   5.390   0.994   2.553 -0.7431 -0.1187 -0.8494
50195SOL    HW268196   5.525   0.972   2.488 -0.3481  0.7909 -0.3586
50196SOL     OW68197   5.724   2.732   0.687 -0.0368 -0.5222  0.2764
50196SOL    HW168198   5.680   2.816   0.672 -1.4863 -0.7650  2.6169
50196SOL    HW268199   5.677   2.670   0.631  0.5116  0.0432 -0.8487
50197SOL     OW68200   7.146   6.749  11.666 -0.0794  0.6976 -0.3219
50197SOL    HW168201   7.094   6.823  11.698  1.0218  0.3287  2.6669
50197SOL    HW268202   7.089   6.704  11.604 -2.4397  1.6367  1.0404
50198SOL     OW68203   7.067   6.891   7.799 -0.5024  0.0197 -0.1913
50198SOL    HW168204   6.978   6.923   7.789 -0.9549 -0.8474  0.9097
50198SOL    HW268205   7.102   6.940   7.874 -0.4138 -0.4175  0.0523
50199SOL     OW68206   8.433  12.100   3.308 -0.0827 -0.5636  0.0543
50199SOL    HW168207   8.351  12.104   3.358 -0.3994 -0.9702 -0.4211
50199SOL    HW268208   8.441  12.008   3.283  0.5866 -0.5473  0.1954
50200SOL     OW68209   9.501  10.848   9.177  0.6212  0.3695 -0.1605
50200SOL    HW168210   9.497  10.943   9.182 -1.5715  0.3020  0.6289
50200SOL    HW268211   9.494  10.828   9.084  1.2652  0.9715 -0.3422
50201SOL     OW68212   2.341   3.025   6.445  0.5647 -0.4175  0.9650
50201SOL    HW168213   2.358   3.114   6.413 -4.3069  1.2196  1.9399
50201SOL    HW268214   2.296   2.982   6.372  0.1790 -0.9803  1.5273
50202SOL     OW68215   0.508   8.216   0.326 -0.1775 -0.3175  0.0241
50202SOL    HW168216   0.523   8.161   0.403  0.4042  0.3229  0.3880
50202SOL    HW268217   0.582   8.278   0.327 -1.0251  0.7243 -0.1375
50203SOL     OW68218   9.674   9.557   4.243 -0.2821 -0.4228  0.2865
50203SOL    HW168219   9.604   9.614   4.276 -0.6896 -1.1971  0.7826
50203SOL    HW268220   9.647   9.469   4.267  0.2288 -0.8598 -0.6841
50204SOL     OW68221   0.059   2.068  12.233 -0.1231  0.2995  1.1485
50204SOL    HW168222   0.145   2.095  12.266 -0.1453  0.1649  1.3221
50204SOL    HW268223   0.002   2.072  12.310 -0.2698  0.3777  1.0364
50205SOL     OW68224  12.792   2.461  11.775  0.1536  0.1208 -0.1051
50205SOL    HW168225  12.814   2.535  11.719 -1.1486  0.2457 -0.4817
50205SOL    HW268226  12.708   2.430  11.742 -0.5997  0.1294  1.6850
50206SOL     OW68227   8.382   0.136   3.210 -0.2164  0.3062  0.2381
50206SOL    HW168228   8.324   0.154   3.284 -1.1858 -0.5844 -0.2720
50206SOL    HW268229   8.328   0.155   3.133  0.3392 -0.0411 -0.2416
50207SOL     OW68230   2.471  10.942  12.460 -0.1034 -0.0370 -0.2570
50207SOL    HW168231   2.444  10.940  12.368 -1.4437  1.0076  0.0900
50207SOL    HW268232   2.533  10.869  12.468 -0.1368 -0.2910 -1.9253
50208SOL     OW68233   7.840   4.608   4.516  0.5463  0.1750  0.1418
50208SOL    HW168234   7.799   4.535   4.468 -0.6524  0.4552  0.7046
50208SOL    HW268235   7.792   4.686   4.486  2.6484  0.9792 -1.4355
50209SOL     OW68236   4.739   6.410   4.124 -0.3280 -0.2123 -0.1557
50209SOL    HW168237   4.778   6.472   4.185 -1.0810  0.7740 -0.6654
50209SOL    HW268238   4.648   6.437   4.115 -0.4793 -0.9236 -0.9733
50210SOL     OW68239   2.379   6.110   3.155  0.1084 -0.4052 -0.2455
50210SOL    HW168240   2.428   6.129   3.235 -0.5326  1.6872 -0.2748
50210SOL    HW268241   2.445   6.114   3.086  0.0381  2.1816 -0.2611
50211SOL     OW68242   1.486   5.173   0.452 -0.0328  0.5411 -0.1166
50211SOL    HW168243   1.481   5.196   0.545  1.2091 -0.5508  0.2465
50211SOL    HW268244   1.575   5.199   0.426 -0.3398  0.7487 -0.9824
50212SOL     OW68245   7.649  10.004   4.571  0.2746  0.3592  0.0087
50212SOL    HW168246   7.663  10.078   4.629  0.7177  1.1434 -1.0792
50212SOL    HW268247   7.585  10.035   4.507 -1.0779 -0.8536  0.6903
50213SOL     OW68248  13.385   3.677   8.791  0.4991  0.4450  0.0276
50213SOL    HW168249  13.448   3.606   8.803  0.3984  0.6810  2.3630
50213SOL    HW268250  13.439   3.755   8.783  0.5505  0.4197  0.1185
50214SOL     OW68251   6.619   4.822   5.669 -0.0691 -0.0840  0.5447
50214SOL    HW168252   6.667   4.783   5.742  0.3603 -0.7973 -0.0992
50214SOL    HW268253   6.687   4.857   5.611 -0.3410 -0.5849 -0.0913
50215SOL     OW68254  12.296   8.619   1.293 -0.2079 -0.1369  0.6646
50215SOL    HW168255  12.281   8.674   1.370  0.6571  2.4461 -0.9075
50215SOL    HW268256  12.241   8.542   1.309 -4.1578  2.5469  1.5568
50216SOL     OW68257  11.895  11.957   9.885 -0.8639  0.0140  0.4877
50216SOL    HW168258  11.923  11.957   9.793 -0.8106 -1.6176  0.4860
50216SOL    HW268259  11.976  11.971   9.934 -0.9845  1.5707  0.2921
50217SOL     OW68260   1.049   7.990   4.385  0.1538 -0.2192  0.3359
50217SOL    HW168261   1.097   7.961   4.307 -1.4799 -0.1854 -0.7377
50217SOL    HW268262   0.960   7.957   4.372  0.0368 -0.9602  2.6306
50218SOL     OW68263   4.066   1.016   3.611  0.5027  0.4803 -0.0458
50218SOL    HW168264   4.119   1.090   3.582 -0.1868  0.8314 -0.4415
50218SOL    HW268265   3.994   1.055   3.661  0.9658 -0.0377  1.0476
50219SOL     OW68266   8.685  13.077   6.223 -0.1803 -0.2134  0.4288
50219SOL    HW168267   8.612  13.022   6.193 -0.7040  1.1774 -0.9977
50219SOL    HW268268   8.652  13.118   6.303 -0.7609 -0.0448  0.1132
50220SOL     OW68269  11.820   7.599  11.917 -0.0385 -0.0735 -0.1943
50220SOL    HW168270  11.843   7.608  12.010 -2.2477  0.8923  0.3258
50220SOL    HW268271  11.790   7.508  11.908  1.4898 -0.5932 -0.3247
50221SOL     OW68272   2.904   8.191   5.033 -0.4704  0.4372 -0.1191
50221SOL    HW168273   2.864   8.113   5.073 -1.1063  0.7204 -0.1896
50221SOL    HW268274   2.900   8.257   5.102  1.7958 -0.1011  0.6110
50222SOL     OW68275   5.273   8.721  13.735 -0.1068  0.3499  0.2427
50222SOL    HW168276   5.266   8.816  13.737 -0.0653  0.3464  0.7542
50222SOL    HW268277   5.185   8.691  13.715 -0.0743  0.5000 -0.1354
50223SOL     OW68278   9.888  12.585  10.278  0.3019 -0.0739 -0.1870
50223SOL    HW168279   9.904  12.548  10.365 -2.5283 -2.6646 -0.5838
50223SOL    HW268280   9.957  12.547  10.224  0.3414 -0.8489  0.3848
50224SOL     OW68281  13.021   8.748  10.836 -0.7117 -0.2356 -0.0467
50224SOL    HW168282  13.005   8.824  10.893  0.1282 -0.3146  0.3093
50224SOL    HW268283  13.046   8.786  10.752 -1.1714 -0.1215 -0.1352
50225SOL     OW68284  13.053  10.629   3.901  0.1832  0.2695  0.4935
50225SOL    HW168285  13.030  10.536   3.895  1.3773  0.0390 -1.1036
50225SOL    HW268286  13.144  10.633   3.874  0.5216  1.7736  1.7533
50226SOL     OW68287  13.497   0.469   9.933 -0.0273  0.0770 -0.7167
50226SOL    HW168288  13.458   0.485  10.019 -1.0265  1.7369 -1.4320
50226SOL    HW268289  13.579   0.517   9.935 -0.2726  0.5047 -0.8451
50227SOL     OW68290   1.999   8.517   3.062  0.3143 -0.0410 -0.3793
50227SOL    HW168291   2.057   8.441   3.056  0.9223  0.3656  0.1919
50227SOL    HW268292   1.969   8.518   3.153 -0.3212 -0.0427 -0.5822
50228SOL     OW68293   8.147   8.350  13.383 -0.2373  0.0425  0.1139
50228SOL    HW168294   8.123   8.415  13.316 -2.2470 -0.4169  0.3043
50228SOL    HW268295   8.073   8.351  13.444 -0.1610 -2.1538  0.3186
50229SOL     OW68296   5.202   0.405   3.266  0.1115 -0.0493  0.0401
50229SOL    HW168297   5.205   0.314   3.295  1.1775 -0.3858 -1.0318
50229SOL    HW268298   5.119   0.439   3.301  0.7098 -0.7754  2.3016
50230SOL     OW68299  13.723   6.104   0.621  0.6708 -0.1437 -0.3787
50230SOL    HW168300  13.718   6.195   0.651 -2.3847 -0.4999  0.4853
50230SOL    HW268301  13.806   6.072   0.657  0.7482  1.6794  1.2268
50231SOL     OW68302   3.171  10.483   4.556 -0.0839 -0.0854 -0.4271
50231SOL    HW168303   3.163  10.564   4.507 -0.3718  2.0638  2.8278
50231SOL    HW268304   3.093  10.432   4.533 -0.6652  1.2252 -1.4397
50232SOL     OW68305   4.515  10.801   9.508 -0.1447  0.0586 -0.1084
50232SOL    HW168306   4.524  10.723   9.454 -1.7337 -0.0363 -0.3054
50232SOL    HW268307   4.536  10.771   9.597  0.4243 -0.2954 -0.3589
50233SOL     OW68308   6.606  10.932   3.490  0.3288 -0.5060  0.2683
50233SOL    HW168309   6.672  10.864   3.497  0.4655 -0.2495  2.0361
50233SOL    HW268310   6.629  10.994   3.559 -2.0152 -0.6459  1.2417
50234SOL     OW68311   8.525   5.081   9.244  0.3670 -0.1983 -0.4897
50234SOL    HW168312   8.603   5.068   9.298 -0.7928  1.1466  1.6629
50234SOL    HW268313   8.455   5.036   9.291 -0.7609  1.3473 -0.6129
50235SOL     OW68314  11.429   0.824   1.866  0.1161  0.1530 -0.7222
50235SOL    HW168315  11.344   0.868   1.859  0.2859  0.4923 -0.7095
50235SOL    HW268316  11.464   0.855   1.950  0.7191  0.8646 -1.2208
50236SOL     OW68317   8.718   8.403  10.674 -0.4791  0.0165 -0.2824
50236SOL    HW168318   8.798   8.408  10.726 -0.5321 -0.7907 -0.1127
50236SOL    HW268319   8.719   8.315  10.636  0.1042  0.9277 -2.5555
50237SOL     OW68320   6.334  11.740   1.013 -0.7377 -0.3413 -0.3327
50237SOL    HW168321   6.348  11.694   1.096 -0.7822 -0.3281 -0.3176
50237SOL    HW268322   6.283  11.818   1.037  0.3060  0.3170 -0.1901
50238SOL     OW68323   9.958   4.907   0.468  0.5562  0.5109  0.4247
50238SOL    HW168324   9.889   4.840   0.467  2.0790 -1.1285  0.1816
50238SOL    HW268325  10.012   4.885   0.544  1.3790  1.1330  0.0296
50239SOL     OW68326   4.215  11.278   1.931  0.0588 -0.5398 -0.4020
50239SOL    HW168327   4.202  11.259   2.023  0.6868  0.5163 -0.0705
50239SOL    HW268328   4.153  11.222   1.885 -1.6787  0.3276  0.7738
50240SOL     OW68329   9.175   0.146   6.691  0.1299 -0.5567  0.1932
50240SOL    HW168330   9.144   0.222   6.741 -0.3772 -1.1440  0.7990
50240SOL    HW268331   9.195   0.180   6.604  0.0243  0.2891  0.4941
50241SOL     OW68332   6.112   2.625   9.640  0.3765 -0.0497  0.2927
50241SOL    HW168333   6.023   2.660   9.640 -0.1479 -1.2653 -1.3341
50241SOL    HW268334   6.153   2.662   9.562  0.6158 -1.0908 -0.0923
50242SOL     OW68335  10.092  12.209   1.434 -1.2147  0.4970  0.6198
50242SOL    HW168336  10.035  12.218   1.510 -0.9897 -1.6031  1.1084
50242SOL    HW268337  10.045  12.150   1.375 -0.0824 -0.3390  0.5149
50243SOL     OW68338  10.719  11.562   6.956  0.2668 -0.9230  0.2654
50243SOL    HW168339  10.776  11.522   7.022 -0.5515  0.0194  1.5934
50243SOL    HW268340  10.661  11.619   7.006  1.2833  1.8465 -1.5035
50244SOL     OW68341  10.540   2.233   2.345 -0.2335  0.3966  0.9326
50244SOL    HW168342  10.515   2.155   2.394  0.2854  0.1468  0.8134
50244SOL    HW268343  10.462   2.257   2.295 -0.2123 -0.4012  0.5017
50245SOL     OW68344   4.664   1.934  12.317 -0.0865 -0.2707  1.2607
50245SOL    HW168345   4.668   1.881  12.398  3.7138 -0.0508  1.4068
50245SOL    HW268346   4.699   2.019  12.343  0.2202  0.1366 -0.4203
50246SOL     OW68347   8.220   5.198  12.634 -0.2879  0.3093  0.1146
50246SOL    HW168348   8.199   5.170  12.545 -0.2817  2.7975 -0.7471
50246SOL    HW268349   8.153   5.157  12.689  0.6753 -2.6386 -0.7061
50247SOL     OW68350   2.781   5.190  12.898 -0.0478  0.1083 -0.3335
50247SOL    HW168351   2.733   5.273  12.902 -1.1181 -0.5222  0.2321
50247SOL    HW268352   2.721   5.126  12.935  1.1918 -0.7239  0.2961
50248SOL     OW68353   4.108   5.715   0.069 -0.4248 -0.1345 -0.2513
50248SOL    HW168354   4.119   5.771  -0.008 -0.7954 -0.0514 -0.2434
50248SOL    HW268355   4.051   5.644   0.040 -2.5542  1.1541  0.5593
50249SOL     OW68356  13.872   6.655   0.131 -0.0041 -0.4046  0.9625
50249SOL    HW168357  13.876   6.744   0.094 -1.0768 -0.7509 -0.0205
50249SOL    HW268358  13.808   6.661   0.201  1.2414 -0.0046  2.1096
50250SOL     OW68359  11.039   9.966  11.715  0.8117  0.5485  0.3248
50250SOL    HW168360  11.121   9.917  11.722  1.7598  2.1323  0.7331
50250SOL    HW268361  11.065  10.058  11.716 -0.6720  1.1536 -2.9941
50251SOL     OW68362   8.068   3.422   1.111 -0.3440  0.1037 -0.1884
50251SOL    HW168363   8.058   3.481   1.037 -0.1819 -1.1613 -1.2549
50251SOL    HW268364   8.137   3.462   1.164  0.1193  0.6196 -1.1517
50252SOL     OW68365   6.742  13.885   6.085  0.4822 -0.2407 -0.6768
50252SOL    HW168366   6.650  13.904   6.068  0.6059 -0.0328 -1.1307
50252SOL    HW268367   6.787  13.911   6.005  1.2718  2.1578  0.4404
50253SOL     OW68368  10.105   7.900  13.670  0.2440 -0.0022 -0.0541
50253SOL    HW168369  10.155   7.838  13.723  0.6836 -0.4928 -1.0234
50253SOL    HW268370  10.075   7.849  13.595  0.8886  1.0313 -1.0273
50254SOL     OW68371   9.430  12.948   3.084  0.1659 -0.1360 -0.1327
50254SOL    HW168372   9.361  12.961   3.148 -0.6002  0.2084 -1.0106
50254SOL    HW268373   9.385  12.925   3.003  1.2035 -3.3478  0.0605
50255SOL     OW68374   0.395   5.819  14.048 -0.0012  0.1943  0.1482
50255SOL    HW168375   0.453   5.828  14.124  0.1410  0.3115  0.0273
50255SOL    HW268376   0.348   5.737  14.063  0.7191 -0.2758 -0.1002
50256SOL     OW68377  12.019  12.722  13.099  0.5446  0.0062 -0.0496
50256SOL    HW168378  11.945  12.770  13.136 -0.8075 -1.7687 -0.2882
50256SOL    HW268379  12.020  12.746  13.007  2.0409  2.1349  0.4626
50257SOL     OW68380  13.061   1.280   2.871 -0.3418 -0.3027 -0.0791
50257SOL    HW168381  13.146   1.274   2.915  0.9462 -0.6910 -2.4161
50257SOL    HW268382  13.079   1.330   2.791 -2.0033 -1.4834 -1.2675
50258SOL     OW68383  10.848   4.004  11.690  0.5817 -1.0211 -0.4018
50258SOL    HW168384  10.935   4.015  11.653  0.2363 -3.2333 -2.1518
50258SOL    HW268385  10.848   3.914  11.724 -1.1478 -1.2502 -0.9114
50259SOL     OW68386   3.392  13.198  12.248 -0.4730  0.5751  0.0752
50259SOL    HW168387   3.440  13.121  12.278 -1.2742  0.2015  0.4005
50259SOL    HW268388   3.303  13.166  12.231 -0.5288  1.1892 -0.8435
50260SOL     OW68389   6.301  11.378  10.356  0.2024 -0.3790  0.0906
50260SOL    HW168390   6.332  11.430  10.282  0.1030 -0.6517 -0.1441
50260SOL    HW268391   6.205  11.386  10.352  0.1181 -1.5600 -0.6740
50261SOL     OW68392  11.269  10.990   9.245  0.3598 -0.3037  0.6217
50261SOL    HW168393  11.200  11.053   9.264 -1.4660 -1.2917 -2.0788
50261SOL    HW268394  11.282  10.942   9.326 -1.2371  0.7346  1.5332
50262SOL     OW68395  13.825  11.065   3.591  0.2038 -0.1673 -0.1455
50262SOL    HW168396  13.909  11.105   3.570  0.4341 -1.5355 -2.0925
50262SOL    HW268397  13.838  11.027   3.678  1.4365  0.0919 -0.1955
50263SOL     OW68398   6.784   6.061  13.338  0.6043 -0.2662 -0.4908
50263SOL    HW168399   6.745   6.132  13.287 -1.7438 -1.2723 -0.2496
50263SOL    HW268400   6.801   6.100  13.424 -1.5855 -0.1594 -0.0380
50264SOL     OW68401   7.089   9.494   5.260 -0.5873  0.0709 -0.0446
50264SOL    HW168402   7.138   9.481   5.340  1.3678 -0.5566 -1.2765
50264SOL    HW268403   7.026   9.563   5.281 -2.3296 -2.1845  2.9100
50265SOL     OW68404   0.851   5.700   3.944  0.4308 -0.1760 -0.0031
50265SOL    HW168405   0.850   5.788   3.982 -0.8288 -0.7068  1.2743
50265SOL    HW268406   0.821   5.711   3.854 -0.5943  0.5977  0.4247
50266SOL     OW68407   1.745   2.825  13.797  0.5251 -0.1874  0.1709
50266SOL    HW168408   1.829   2.867  13.780  0.0402  0.2231 -1.2983
50266SOL    HW268409   1.697   2.833  13.715 -0.1763 -2.2577  0.3293
50267SOL     OW68410   9.827   2.473   9.706 -0.1319 -0.3923  0.0451
50267SOL    HW168411   9.900   2.528   9.678 -1.3704  1.0686 -0.4486
50267SOL    HW268412   9.814   2.412   9.633 -1.2702  1.2957 -1.2554
50268SOL     OW68413  12.556   4.046  10.325  0.8275  0.1970 -0.1418
50268SOL    HW168414  12.588   4.043  10.235  1.9611  0.3098  0.2321
50268SOL    HW268415  12.541   4.140  10.342  4.1059  0.6691  0.8850
50269SOL     OW68416   8.004  12.030  10.166  0.0745 -0.6619 -0.7460
50269SOL    HW168417   7.928  11.998  10.215  0.1970 -0.4103 -0.3897
50269SOL    HW268418   7.967  12.087  10.099  0.0259  0.4518  0.2072
50270SOL     OW68419   1.356   2.273   7.157  0.0898  0.4017 -0.2919
50270SOL    HW168420   1.431   2.333   7.160  0.4059  0.0138 -0.2855
50270SOL    HW268421   1.324   2.270   7.247  0.4830  0.0620 -0.1547
50271SOL     OW68422   7.470   9.859   1.630 -0.0841  0.1269 -0.1638
50271SOL    HW168423   7.551   9.886   1.674 -0.7068 -0.4485  1.3954
50271SOL    HW268424   7.501   9.801   1.559  0.8982  0.4225  0.0016
50272SOL     OW68425   5.855   5.745   3.958 -0.4726  0.3261 -0.0147
50272SOL    HW168426   5.891   5.815   3.904 -0.5868 -0.9321 -1.8025
50272SOL    HW268427   5.887   5.664   3.917 -1.5005 -0.7121  1.1361
50273SOL     OW68428   3.337   2.980   4.505  0.1040  0.0872  0.5439
50273SOL    HW168429   3.265   2.922   4.478 -0.4080  0.1412  1.7409
50273SOL    HW268430   3.297   3.067   4.508  0.7390  0.4511 -0.7231
50274SOL     OW68431  13.748   5.833   9.175 -0.3466 -0.1616 -0.9701
50274SOL    HW168432  13.750   5.758   9.116 -1.3511 -0.5912 -0.4756
50274SOL    HW268433  13.718   5.798   9.258 -0.5378  0.7369 -0.6458
50275SOL     OW68434   0.940  12.762   1.793 -0.0966  0.1725  0.3058
50275SOL    HW168435   0.943  12.681   1.844 -2.5177  0.2777  0.7434
50275SOL    HW268436   0.892  12.738   1.714 -0.4972  1.0827  0.2648
50276SOL     OW68437   2.827   6.520   1.256 -0.5589  0.3961  0.3486
50276SOL    HW168438   2.867   6.594   1.300 -0.2809  0.2099  0.4109
50276SOL    HW268439   2.818   6.454   1.325 -1.3402  0.5782  0.4302
50277SOL     OW68440   5.554   5.330  13.432  0.7048 -0.0473  0.7174
50277SOL    HW168441   5.645   5.352  13.452  0.1778  0.4793  2.7512
50277SOL    HW268442   5.544   5.239  13.460  0.5667 -0.0648  0.6161
50278SOL     OW68443  13.205  13.404   1.763  0.7398 -0.0662  0.0182
50278SOL    HW168444  13.226  13.313   1.784  0.8822 -0.3619 -1.2623
50278SOL    HW268445  13.130  13.425   1.817  1.3724 -0.5907  1.1251
50279SOL     OW68446  10.210  10.531   1.288  0.1985 -0.0969 -0.6642
50279SOL    HW168447  10.189  10.620   1.260 -1.0685 -0.1415  0.0847
50279SOL    HW268448  10.275  10.500   1.224 -0.4454  0.8365 -1.7963
50280SOL     OW68449   8.214   2.195   9.416  0.3713  0.2809 -0.0594
50280SOL    HW168450   8.198   2.218   9.325 -1.7913  2.3894  0.7547
50280SOL    HW268451   8.202   2.100   9.420  0.4448  0.1614 -1.9196
50281SOL     OW68452  13.156  11.870   2.664 -0.0185  0.3071  0.1387
50281SOL    HW168453  13.123  11.941   2.719 -2.5974  0.2165 -1.1491
50281SOL    HW268454  13.134  11.896   2.575  1.0703 -1.0826 -0.5857
50282SOL     OW68455   9.060   2.588  12.974 -0.0703 -0.2385  0.0362
50282SOL    HW168456   9.098   2.506  12.944  1.2824  0.2212  0.4430
50282SOL    HW268457   9.094   2.654  12.913 -1.5747 -0.0195 -0.6284
50283SOL     OW68458   0.636   1.831   7.929  0.6317 -0.4051  0.4752
50283SOL    HW168459   0.647   1.762   7.863 -0.7700 -0.5685  0.3797
50283SOL    HW268460   0.648   1.787   8.013  1.3571 -0.4122  0.3788
50284SOL     OW68461  12.018   0.179  10.100 -0.4335  0.2927  0.3012
50284SOL    HW168462  12.114   0.179  10.110 -0.4357 -0.1943  0.3553
50284SOL    HW268463  12.003   0.204  10.009 -0.1685 -1.7482 -0.3541
50285SOL     OW68464  13.766   1.173  13.676  0.5436  0.5914 -0.5272
50285SOL    HW168465  13.703   1.101  13.677  1.8234 -0.5627  0.5603
50285SOL    HW268466  13.829   1.149  13.609  0.6912  0.9628 -0.5246
50286SOL     OW68467  13.694   8.667   4.473 -0.3817 -0.0997 -0.3640
50286SOL    HW168468  13.658   8.655   4.385 -0.2216 -1.7489 -0.2258
50286SOL    HW268469  13.659   8.595   4.524 -1.3343  1.4190  1.2466
50287SOL     OW68470  11.178   7.040  13.155  0.1823 -0.2999 -0.3920
50287SOL    HW168471  11.137   6.978  13.215 -0.2534  1.1240  0.8629
50287SOL    HW268472  11.176   7.123  13.202  0.4080  0.7525 -2.1525
50288SOL     OW68473  11.558  10.453   2.821  0.4586  0.4692  0.5691
50288SOL    HW168474  11.513  10.411   2.894 -2.3719  3.1841  0.5762
50288SOL    HW268475  11.605  10.526   2.860  0.5054  0.8046 -0.0927
50289SOL     OW68476   7.221  12.182   4.911 -0.2399 -0.3626 -0.0983
50289SOL    HW168477   7.261  12.211   4.829  0.1987  0.2451  0.3201
50289SOL    HW268478   7.209  12.088   4.900  1.4606 -0.5885 -0.1741
50290SOL     OW68479   7.228  13.528   3.872  0.2796  0.1763  0.1462
50290SOL    HW168480   7.174  13.496   3.944 -0.8417 -1.6604 -1.4149
50290SOL    HW268481   7.186  13.608   3.844  0.7033  0.8954  1.4487
50291SOL     OW68482  11.230  12.419  10.272  0.0580  0.0024  0.0952
50291SOL    HW168483  11.291  12.419  10.198 -1.3425  0.5450 -1.1056
50291SOL    HW268484  11.166  12.486  10.250 -1.8311 -1.5377  0.5657
50292SOL     OW68485   7.583   8.773   3.059 -0.2674  0.0861 -0.8946
50292SOL    HW168486   7.556   8.857   3.096 -0.0856  0.2891 -1.2109
50292SOL    HW268487   7.584   8.788   2.964  0.3824 -0.0813 -0.9216
50293SOL     OW68488   5.709   3.270   2.773  0.5270  0.1674 -0.2167
50293SOL    HW168489   5.687   3.201   2.710  0.0251  0.0583  0.0662
50293SOL    HW268490   5.698   3.228   2.858 -0.6264  0.8178 -0.0172
50294SOL     OW68491   7.177  12.041  12.766 -0.5292  0.3774 -0.1983
50294SOL    HW168492   7.153  12.103  12.697 -0.7291 -0.9386 -1.3383
50294SOL    HW268493   7.264  12.009  12.741  0.0562  0.9652  0.9624
50295SOL     OW68494   6.202   2.167   3.128  0.4139 -0.4971 -0.3846
50295SOL    HW168495   6.276   2.118   3.163 -0.6974 -3.0597 -1.3392
50295SOL    HW268496   6.150   2.190   3.206 -0.2263 -3.0038  0.0159
50296SOL     OW68497   1.853  10.878  13.626 -0.5060  0.2594 -0.2321
50296SOL    HW168498   1.801  10.950  13.661  0.2149  1.6907 -1.9602
50296SOL    HW268499   1.853  10.892  13.532 -0.0014 -1.7978 -0.5797
50297SOL     OW68500   0.520   5.453   7.251  0.7259  0.0130  0.6188
50297SOL    HW168501   0.605   5.456   7.295  0.8204 -0.8218  0.5047
50297SOL    HW268502   0.469   5.389   7.300  0.2986  0.2007  0.4316
50298SOL     OW68503   3.091  13.900   3.197 -0.9336  0.0231  0.1291
50298SOL    HW168504   3.022  13.913   3.261 -0.0077 -1.0917  1.4289
50298SOL    HW268505   3.123  13.811   3.214  0.5117  0.3418 -0.7188
50299SOL     OW68506   5.833   4.049  13.442  0.4542  0.0563 -0.7198
50299SOL    HW168507   5.861   4.096  13.363 -0.8041 -0.8473 -1.7545
50299SOL    HW268508   5.886   3.969  13.443 -0.1331 -0.3429 -1.1412
50300SOL     OW68509  11.588   1.939   7.302 -0.2528 -0.4389 -0.1982
50300SOL    HW168510  11.607   1.951   7.209 -1.9629  0.8282 -0.4379
50300SOL    HW268511  11.592   1.844   7.315  0.9084 -0.5685 -1.3414
50301SOL     OW68512   9.056  10.348   9.649 -0.3593 -0.1968 -0.1209
50301SOL    HW168513   9.061  10.254   9.635 -0.3837 -0.0293 -1.4471
50301SOL    HW268514   9.064  10.385   9.561 -1.2022  1.0072  0.2840
50302SOL     OW68515  13.335   3.774  13.474 -0.1799  0.6515  0.1886
50302SOL    HW168516  13.335   3.679  13.479 -0.0558  0.6485  0.1427
50302SOL    HW268517  13.342   3.793  13.380  2.1145  0.6963  0.3023
50303SOL     OW68518   5.090   2.086  13.732 -0.1279  0.0525  0.1597
50303SOL    HW168519   5.123   1.996  13.724 -1.6791 -0.3996 -1.9243
50303SOL    HW268520   5.105   2.125  13.646 -1.4529  1.0723  0.3575
50304SOL     OW68521   4.805   3.254  12.641  0.2791  0.3783  0.0057
50304SOL    HW168522   4.789   3.344  12.610  1.3625  0.3707 -0.6538
50304SOL    HW268523   4.757   3.199  12.579 -1.0521  0.5145  0.8851
50305SOL     OW68524  12.991   9.055   0.929 -0.0962 -0.1924  0.0728
50305SOL    HW168525  12.924   9.120   0.950 -1.6549 -1.5756 -0.4532
50305SOL    HW268526  13.023   9.081   0.842  1.3542  1.4677  1.0346
50306SOL     OW68527   8.917   6.694   5.344  0.1591 -0.2972  0.1814
50306SOL    HW168528   8.852   6.654   5.286  1.7054 -2.0309 -0.4628
50306SOL    HW268529   8.964   6.619   5.382 -0.0480  0.8016  2.8415
50307SOL     OW68530  13.763  10.470   5.873  0.0063  0.0730 -0.6743
50307SOL    HW168531  13.714  10.395   5.908  1.7713 -0.8713 -0.0841
50307SOL    HW268532  13.724  10.546   5.917 -0.6619 -0.6716  0.0712
50308SOL     OW68533   6.017   6.559  12.212 -0.3415 -1.1446  0.2316
50308SOL    HW168534   5.984   6.482  12.260 -0.9347 -2.3311 -1.9417
50308SOL    HW268535   6.070   6.522  12.141 -0.6083  0.4485 -0.8535
50309SOL     OW68536   4.704   7.170   1.122 -0.9746  0.2677  0.6414
50309SOL    HW168537   4.687   7.192   1.213 -0.3942  0.6362  0.6636
50309SOL    HW268538   4.755   7.244   1.089  1.6952 -1.3541  0.9186
50310SOL     OW68539   0.543  13.629   9.600 -0.0028 -0.6668  0.1522
50310SOL    HW168540   0.627  13.593   9.626 -0.4110 -1.6794  0.1533
50310SOL    HW268541   0.558  13.723   9.590  1.0007 -0.7693  0.6021
50311SOL     OW68542  13.310   5.535   1.054 -0.2151 -0.1357  0.1274
50311SOL    HW168543  13.331   5.477   1.128  2.1171  0.0861 -0.2822
50311SOL    HW268544  13.215   5.526   1.043 -0.5845 -0.5105  2.8533
50312SOL     OW68545   4.824  14.086   2.772  0.0098  0.1338 -0.4810
50312SOL    HW168546   4.816  14.111   2.680  0.9401  0.8960 -0.3763
50312SOL    HW268547   4.736  14.096   2.808 -0.0316  1.4604 -0.9036
50313SOL     OW68548   4.475   3.377   3.207  0.0274 -0.0839  0.3769
50313SOL    HW168549   4.554   3.324   3.219 -1.0875 -2.2647 -1.3068
50313SOL    HW268550   4.507   3.459   3.168  1.5853 -0.2250  1.2608
50314SOL     OW68551   4.553   4.358   7.001 -0.0809  0.7070 -0.7420
50314SOL    HW168552   4.549   4.340   6.907 -0.7963  0.3224 -0.6501
50314SOL    HW268553   4.465   4.337   7.032  0.2374  0.5487  0.0645
50315SOL     OW68554   0.332  12.544   9.209  0.1754  0.7646  0.1698
50315SOL    HW168555   0.403  12.608   9.203  0.7668  0.0249 -1.0352
50315SOL    HW268556   0.345  12.487   9.134  0.1964 -1.3067  1.6509
50316SOL     OW68557  10.546   3.766   4.849  0.5751  0.7381 -0.3881
50316SOL    HW168558  10.475   3.724   4.800 -0.3847  0.6188  1.0267
50316SOL    HW268559  10.508   3.782   4.936  2.8528 -1.1603  1.0832
50317SOL     OW68560   7.824   7.606   0.906  0.3120  0.1409  0.6894
50317SOL    HW168561   7.904   7.568   0.869 -0.4334  2.1306 -3.5803
50317SOL    HW268562   7.759   7.536   0.898  0.6087 -0.0580 -0.1121
50318SOL     OW68563  10.879  13.262   7.865 -0.0960 -0.6136  0.9789
50318SOL    HW168564  10.784  13.260   7.875 -0.1490  0.1583  0.7522
50318SOL    HW268565  10.910  13.313   7.939 -0.2267  2.4552 -0.9048
50319SOL     OW68566  11.902   7.054   0.073  0.2414  0.2226 -0.6391
50319SOL    HW168567  11.934   6.985   0.131  0.6281  1.3277  0.5019
50319SOL    HW268568  11.901   7.013  -0.014  1.0447 -1.0296 -0.0948
50320SOL     OW68569  13.666   7.375   8.006 -0.6839  0.2943  0.1019
50320SOL    HW168570  13.615   7.361   8.086  0.3600  0.5091  0.8191
50320SOL    HW268571  13.743   7.319   8.017  1.3040  2.9927  0.9383
50321SOL     OW68572  13.415  10.506   4.053 -0.1776 -0.5420  0.3087
50321SOL    HW168573  13.389  10.543   3.969  0.5893  0.5850  0.5385
50321SOL    HW268574  13.429  10.583   4.109  1.2851 -1.1873  0.8677
50322SOL     OW68575   5.810   3.174   0.594 -0.1839 -0.2203  0.0325
50322SOL    HW168576   5.802   3.214   0.507 -2.5361  1.3599  0.8785
50322SOL    HW268577   5.720   3.160   0.622  0.5363 -1.8432  1.7514
50323SOL     OW68578   1.002   9.892  14.015  0.7761  0.2438 -0.0175
50323SOL    HW168579   1.096   9.900  13.996  0.7558 -0.4468 -0.4166
50323SOL    HW268580   0.964   9.973  13.980  0.9472 -0.3513 -1.6403
50324SOL     OW68581  13.175   7.486   9.963 -0.0217 -0.0482 -0.3803
50324SOL    HW168582  13.180   7.397   9.928  0.8421 -0.5433  0.9100
50324SOL    HW268583  13.224   7.540   9.900  0.6570 -0.7354 -0.4608
50325SOL     OW68584   5.564   3.821   5.973  0.3829  0.7246  0.2771
50325SOL    HW168585   5.530   3.754   5.914  0.2948 -0.6153  1.7762
50325SOL    HW268586   5.490   3.843   6.029  1.2516 -0.4880  2.0234
50326SOL     OW68587   4.681   1.581   2.908  0.0266  0.4256 -0.5124
50326SOL    HW168588   4.638   1.568   2.824  1.6317  2.2943 -1.6868
50326SOL    HW268589   4.746   1.649   2.892 -0.2491  1.5400  2.4611
50327SOL     OW68590   4.072   5.824  10.485 -0.1918  0.0991  0.7177
50327SOL    HW168591   4.080   5.920  10.488 -1.1407  0.1892  0.7010
50327SOL    HW268592   4.048   5.805  10.395  0.8179 -0.2362  0.5102
50328SOL     OW68593   2.952   4.460  13.951  0.1357 -0.4404  0.0682
50328SOL    HW168594   3.047   4.469  13.944  0.0800 -0.1075 -0.2641
50328SOL    HW268595   2.918   4.541  13.914 -0.2944 -0.8129 -0.3536
50329SOL     OW68596   3.316   2.859   9.122 -0.0749 -0.8449  0.2996
50329SOL    HW168597   3.355   2.809   9.051  0.6043  0.2761 -0.1474
50329SOL    HW268598   3.321   2.950   9.093  1.1533 -0.2354  2.1887
50330SOL     OW68599  11.037   6.352   1.635 -0.1863  0.5195  0.3441
50330SOL    HW168600  10.943   6.342   1.649 -0.1750  0.1885  0.1858
50330SOL    HW268601  11.045   6.414   1.563 -0.2612  1.4758  1.1330
50331SOL     OW68602  11.758  11.895   3.539 -0.0595 -0.0660  0.3635
50331SOL    HW168603  11.844  11.926   3.511  0.5880 -1.0969  1.1313
50331SOL    HW268604  11.735  11.951   3.614 -0.0658  0.2140  0.1527
50332SOL     OW68605   5.492   1.195   5.947  0.2536 -0.2111  0.1428
50332SOL    HW168606   5.573   1.162   5.909 -1.0553 -0.6846 -2.4772
50332SOL    HW268607   5.483   1.283   5.911 -0.9040 -0.5745 -0.5011
50333SOL     OW68608   6.054  11.188   9.477 -0.2345 -0.0610 -0.1680
50333SOL    HW168609   5.978  11.246   9.474  0.2459  0.5817 -0.1994
50333SOL    HW268610   6.042  11.129   9.403 -0.1742  0.7163 -0.8077
50334SOL     OW68611   7.340  10.747  13.275 -0.5895  0.1889 -0.2540
50334SOL    HW168612   7.305  10.828  13.311  0.2624  0.5664 -0.2507
50334SOL    HW268613   7.267  10.710  13.225 -2.1051 -0.7677  2.4356
50335SOL     OW68614  12.648  11.896  12.142 -0.3354  0.1288  0.2766
50335SOL    HW168615  12.679  11.904  12.232  1.1278  0.3910 -0.2218
50335SOL    HW268616  12.690  11.816  12.110 -0.9290 -0.0183 -0.1529
50336SOL     OW68617   1.143  10.522   6.145 -0.3925  0.3179 -0.1992
50336SOL    HW168618   1.160  10.442   6.095  0.7561  0.5242 -0.1744
50336SOL    HW268619   1.158  10.496   6.236  0.5716  0.6887 -0.2387
50337SOL     OW68620   9.786   1.288  11.724 -0.2194  0.3825 -0.6774
50337SOL    HW168621   9.729   1.364  11.736 -0.7717  0.0664 -1.2302
50337SOL    HW268622   9.854   1.298  11.790 -0.6321  1.0373 -0.3427
50338SOL     OW68623  11.490  13.909   7.307  0.3949  0.3987  0.0297
50338SOL    HW168624  11.423  13.969   7.274  0.3674 -0.8717 -2.3790
50338SOL    HW268625  11.453  13.875   7.388 -2.0163 -0.4138 -1.3264
50339SOL     OW68626   6.254  12.863   4.208 -0.7749 -0.1186  0.4298
50339SOL    HW168627   6.191  12.931   4.231  1.0907  1.5299  0.9488
50339SOL    HW268628   6.326  12.910   4.167  0.4671 -1.8276  0.5622
50340SOL     OW68629   6.093  13.220   6.281  0.0578 -0.1091 -0.0181
50340SOL    HW168630   6.080  13.243   6.189  2.9372 -0.8229 -0.7199
50340SOL    HW268631   6.053  13.133   6.290  0.4165 -0.3718 -0.8312
50341SOL     OW68632   7.063  10.025  12.491 -0.2448  0.0735  0.0821
50341SOL    HW168633   7.153  10.032  12.460 -1.1002 -0.1007 -2.7356
50341SOL    HW268634   7.018  10.099  12.449 -1.9669 -1.4637 -0.9219
50342SOL     OW68635  10.775   2.323  11.310  0.1418  0.0684  0.5236
50342SOL    HW168636  10.784   2.344  11.403 -0.4565 -0.7898  0.7857
50342SOL    HW268637  10.684   2.296  11.299  0.0053  0.8363 -0.4673
50343SOL     OW68638  11.450   2.741   6.651 -0.5800 -0.3168  0.4674
50343SOL    HW168639  11.537   2.775   6.673 -0.3656  0.0832 -0.8891
50343SOL    HW268640  11.408   2.727   6.735  0.0138  1.5588  1.1353
50344SOL     OW68641   9.435   1.599   4.003  0.3805 -0.3470  0.3170
50344SOL    HW168642   9.365   1.662   3.984  0.2952 -0.4358  0.3382
50344SOL    HW268643   9.449   1.608   4.097 -0.7295 -1.4870  0.6219
50345SOL     OW68644   3.878   9.033  10.205 -0.0540  0.2114  0.0232
50345SOL    HW168645   3.834   9.011  10.122  1.3611 -0.1936 -0.6453
50345SOL    HW268646   3.820   9.098  10.245 -2.1787 -1.5509  0.0302
50346SOL     OW68647   4.974   7.788   1.317  0.2578 -0.1151  0.0898
50346SOL    HW168648   4.913   7.728   1.362  0.8452  0.6083  1.9466
50346SOL    HW268649   4.957   7.773   1.224 -1.4965 -1.2264  0.5252
50347SOL     OW68650   6.543   1.744   3.822  0.1721 -0.3848 -0.3595
50347SOL    HW168651   6.481   1.681   3.786  0.1499 -0.6733  0.1790
50347SOL    HW268652   6.504   1.773   3.904  0.2526  0.2251 -0.5292
50348SOL     OW68653   8.114   2.205   0.170  0.6178 -0.2762 -0.5165
50348SOL    HW168654   8.132   2.111   0.158  0.5729 -0.1485 -1.6716
50348SOL    HW268655   8.042   2.223   0.111  1.1322  0.6490 -0.8756
50349SOL     OW68656   2.663   3.705  11.452  0.6024 -0.2341  0.2587
50349SOL    HW168657   2.669   3.632  11.390 -1.0649 -0.6379  0.5113
50349SOL    HW268658   2.735   3.763  11.428  2.1836 -2.0950  0.2599
50350SOL     OW68659  12.711   5.810   6.178 -0.0429 -0.0096 -0.6288
50350SOL    HW168660  12.724   5.870   6.252 -2.3236 -1.2245  0.8465
50350SOL    HW268661  12.781   5.746   6.188  1.1227  1.1555 -0.9792
50351SOL     OW68662   3.867  12.021  13.777  0.3597 -0.4395 -0.1925
50351SOL    HW168663   3.929  12.023  13.851  0.0664 -0.6870  0.0630
50351SOL    HW268664   3.860  11.928  13.755  1.7994 -0.2415 -1.6881
50352SOL     OW68665   5.262   3.181   1.671  0.0605 -0.0227 -0.2701
50352SOL    HW168666   5.244   3.234   1.749  2.2349  0.5377 -0.0652
50352SOL    HW268667   5.267   3.244   1.599 -2.6529 -0.6171 -1.0643
50353SOL     OW68668  10.993   1.091   8.610 -0.0187  0.0888  0.2967
50353SOL    HW168669  11.016   1.183   8.595  1.2992 -0.0072  1.4878
50353SOL    HW268670  10.986   1.053   8.522  1.4539  0.8673 -0.1885
50354SOL     OW68671   9.666   9.398   1.814 -0.0137  0.3220 -0.2033
50354SOL    HW168672   9.759   9.416   1.829 -0.0721  0.2789  0.2115
50354SOL    HW268673   9.665   9.345   1.734  0.5268 -1.6970  1.0638
50355SOL     OW68674   0.676  13.519  10.598  0.5082 -0.5401  0.1592
50355SOL    HW168675   0.684  13.601  10.647 -0.4250 -0.5431  0.3386
50355SOL    HW268676   0.655  13.453  10.664 -3.0091 -0.1712 -0.3838
50356SOL     OW68677  12.821  11.668   6.254 -0.0025 -0.4184 -0.1013
50356SOL    HW168678  12.844  11.686   6.345 -0.4909 -2.4738  0.4734
50356SOL    HW268679  12.893  11.615   6.221  1.3867  2.2264 -1.7345
50357SOL     OW68680   2.491  11.172  10.832 -0.2400 -0.3237 -0.0700
50357SOL    HW168681   2.444  11.089  10.833 -0.3087 -0.2834  0.7927
50357SOL    HW268682   2.566  11.158  10.890  0.2405 -0.0569 -0.6138
50358SOL     OW68683  12.602   8.627  10.290 -0.2836 -0.0482 -0.1057
50358SOL    HW168684  12.667   8.608  10.358 -1.0135 -2.8543 -0.0584
50358SOL    HW268685  12.542   8.689  10.331  1.0164  0.7293  0.6822
50359SOL     OW68686   1.521  10.310  12.472  0.2608 -0.4533 -0.1069
50359SOL    HW168687   1.564  10.270  12.547 -1.4434 -0.4192  0.9478
50359SOL    HW268688   1.569  10.277  12.396  1.3807 -1.3076  0.9380
50360SOL     OW68689   3.361  10.168  13.584 -0.1337  0.1023  0.6664
50360SOL    HW168690   3.394  10.258  13.582 -0.6215  0.3240  1.9579
50360SOL    HW268691   3.267  10.178  13.601 -0.5442 -0.5960 -0.9655
50361SOL     OW68692  13.394   8.609   3.650 -0.4191 -0.0541 -0.2417
50361SOL    HW168693  13.455   8.569   3.712  0.5319  1.3669 -0.2259
50361SOL    HW268694  13.418   8.572   3.565  0.8762  0.9388 -0.3231
50362SOL     OW68695   8.802   6.695   9.567 -0.3425 -0.3505  0.3149
50362SOL    HW168696   8.887   6.680   9.526 -0.7908  0.5737 -1.0307
50362SOL    HW268697   8.741   6.703   9.493 -1.6152 -1.0380  1.2515
50363SOL     OW68698  10.593   1.767  11.481 -0.1237 -0.4072 -0.0175
50363SOL    HW168699  10.565   1.736  11.394 -0.9652  1.5763 -0.4933
50363SOL    HW268700  10.540   1.715  11.542 -0.2931 -1.0859 -0.7112
50364SOL     OW68701   1.881   1.367  12.043  0.0041  0.0194 -0.1372
50364SOL    HW168702   1.813   1.318  11.998 -1.0315  1.5238 -0.2846
50364SOL    HW268703   1.835   1.420  12.108  0.8049  2.1056 -1.1557
50365SOL     OW68704   6.495   1.809   1.143  0.4946 -0.0736 -0.2030
50365SOL    HW168705   6.443   1.879   1.103 -0.6649 -1.3687 -1.1217
50365SOL    HW268706   6.586   1.835   1.129  0.0955  1.1635 -0.6474
50366SOL     OW68707   5.212   7.539   6.629  0.0711  0.0724 -0.0793
50366SOL    HW168708   5.227   7.495   6.713 -0.2769 -2.2015 -1.1253
50366SOL    HW268709   5.117   7.533   6.617 -0.0428  1.5748 -0.0565
50367SOL     OW68710  10.095   1.384  12.987 -0.1919  0.6507 -0.4359
50367SOL    HW168711  10.087   1.370  13.081  0.5848  1.5385 -0.2280
50367SOL    HW268712  10.124   1.474  12.978 -2.1299  1.2255 -1.6221
50368SOL     OW68713   4.443  12.351  11.911  0.6695 -0.1861 -0.3871
50368SOL    HW168714   4.372  12.344  11.975  0.6968 -1.6280 -0.4886
50368SOL    HW268715   4.400  12.337  11.826  0.8040  0.6639 -0.6035
50369SOL     OW68716   4.848   6.631   4.540 -0.1009 -0.1226 -0.4382
50369SOL    HW168717   4.770   6.653   4.489 -0.8564 -0.4640  0.5252
50369SOL    HW268718   4.912   6.698   4.516 -1.6784  2.0000  0.9200
50370SOL     OW68719   3.397   1.429  10.569 -0.1125  0.4285 -0.3882
50370SOL    HW168720   3.428   1.386  10.649 -1.1441 -1.0385 -0.7304
50370SOL    HW268721   3.460   1.402  10.502 -1.5258 -1.8744 -0.9107
50371SOL     OW68722   9.341   3.741   9.699 -0.5393 -0.1629  0.7088
50371SOL    HW168723   9.284   3.708   9.768 -1.7287  1.1059  0.3862
50371SOL    HW268724   9.295   3.818   9.665  0.8765  0.2846 -0.2847
50372SOL     OW68725   6.345   4.280  13.654 -0.2983 -0.3895 -0.2181
50372SOL    HW168726   6.264   4.317  13.691  0.8539  1.0674  1.0128
50372SOL    HW268727   6.321   4.251  13.567 -1.7048  1.9028 -0.6695
50373SOL     OW68728   1.380  10.207   8.972 -0.1018  0.2724 -0.1306
50373SOL    HW168729   1.439  10.268   9.015 -0.4793  0.7026 -0.2232
50373SOL    HW268730   1.328  10.260   8.913 -1.6618  0.1708  1.0646
50374SOL     OW68731   3.514  11.402   1.360 -0.1819 -0.2350  0.0963
50374SOL    HW168732   3.472  11.327   1.403  2.3797 -1.8968 -0.1274
50374SOL    HW268733   3.601  11.371   1.337 -0.2506  1.6487 -3.3246
50375SOL     OW68734  11.405   6.441   0.911 -0.1582  0.1802  0.6967
50375SOL    HW168735  11.342   6.465   0.844  1.2596  2.2959  0.0292
50375SOL    HW268736  11.453   6.367   0.873 -0.0971  0.6466 -0.1617
50376SOL     OW68737   2.511  12.614   1.680 -0.2487  0.0161 -0.3179
50376SOL    HW168738   2.579  12.679   1.695 -0.8407  0.1218  2.4127
50376SOL    HW268739   2.558  12.533   1.665  0.5531  0.1301  1.3252
50377SOL     OW68740   5.586   0.871   0.779  0.0352  0.1236  0.1666
50377SOL    HW168741   5.582   0.845   0.871 -1.8214  0.4782  0.2284
50377SOL    HW268742   5.649   0.943   0.777 -1.0681  1.2049  1.4942
50378SOL     OW68743   8.069  12.925   5.482  0.2679 -0.1012 -0.0801
50378SOL    HW168744   8.024  12.917   5.398  1.0753  1.8550 -0.7327
50378SOL    HW268745   8.137  12.857   5.480  2.0643  1.6462 -2.1984
50379SOL     OW68746  13.058  13.623   5.890  0.3732  0.0484  0.2144
50379SOL    HW168747  12.989  13.666   5.840  1.2801  1.1964 -0.0812
50379SOL    HW268748  13.081  13.547   5.837 -0.5965 -0.3212  0.2866
50380SOL     OW68749  11.188   7.535  12.155 -0.3464  0.2960 -0.0820
50380SOL    HW168750  11.102   7.504  12.183 -0.6128  0.0888 -1.1185
50380SOL    HW268751  11.183   7.630  12.163 -0.3051  0.2280  0.8756
50381SOL     OW68752  12.252  12.049   6.162  0.6912  0.0798 -0.5370
50381SOL    HW168753  12.265  11.974   6.221  0.7246  0.3597 -0.1868
50381SOL    HW268754  12.340  12.070   6.131  0.5662 -0.6726 -1.4455
50382SOL     OW68755   6.806   7.139   3.670 -0.4375  0.4210 -0.4952
50382SOL    HW168756   6.862   7.062   3.681 -0.6325  0.4768  1.1681
50382SOL    HW268757   6.866   7.213   3.674 -0.5623  0.4680  1.0093
50383SOL     OW68758  14.081   9.169   2.721  0.3604  0.2916 -0.0390
50383SOL    HW168759  14.128   9.228   2.780  2.0738  1.0015 -1.9942
50383SOL    HW268760  14.137   9.092   2.714 -0.0336  0.0349 -0.4094
50384SOL     OW68761  12.710   3.869  13.602 -0.2160 -0.0664 -1.0453
50384SOL    HW168762  12.736   3.878  13.694  1.1903 -1.1981 -1.2971
50384SOL    HW268763  12.638   3.931  13.592  1.6927  2.4981 -0.0075
50385SOL     OW68764   9.304   4.710  11.479  0.0650 -0.6549  0.1877
50385SOL    HW168765   9.232   4.683  11.422 -0.3316 -0.3295  0.5232
50385SOL    HW268766   9.354   4.631  11.494 -0.6285 -1.0449  0.5152
50386SOL     OW68767  13.108   4.196  13.460 -0.3148 -0.3301  0.3961
50386SOL    HW168768  13.114   4.252  13.383 -0.4115  1.7884  1.8487
50386SOL    HW268769  13.168   4.235  13.523 -0.1935 -2.0416  1.4048
50387SOL     OW68770   0.674   8.531   0.875 -0.2007 -0.2778  0.7189
50387SOL    HW168771   0.610   8.541   0.804 -1.0988  1.2941  1.6974
50387SOL    HW268772   0.622   8.539   0.955  0.9167 -1.1865  1.5777
50388SOL     OW68773  12.554   5.330  12.598  0.3558  0.2289  0.0887
50388SOL    HW168774  12.462   5.335  12.571  0.5663  1.5871 -0.4200
50388SOL    HW268775  12.565   5.403  12.659  0.9966 -0.2067  0.5105
50389SOL     OW68776  10.167  11.572  11.122  0.6760 -0.0084 -0.6107
50389SOL    HW168777  10.149  11.506  11.190  0.6067  1.7584  1.2049
50389SOL    HW268778  10.203  11.647  11.171  1.5980  0.9766 -2.6896
50390SOL     OW68779   2.176   6.042   6.712 -0.5779 -0.3176  0.7322
50390SOL    HW168780   2.223   6.004   6.786  0.6589 -0.4902 -0.1183
50390SOL    HW268781   2.175   6.136   6.730  0.0261 -0.3211  0.8055
50391SOL     OW68782   9.887   7.551  10.775  0.0907  0.3292 -0.0877
50391SOL    HW168783   9.955   7.500  10.819  0.5027  0.4355 -0.5979
50391SOL    HW268784   9.882   7.633  10.825 -0.1864  0.0252  0.3971
50392SOL     OW68785  11.575  12.594   2.462  0.1687  0.2140 -0.3438
50392SOL    HW168786  11.487  12.630   2.463 -0.3328 -0.9546 -0.1590
50392SOL    HW268787  11.633  12.670   2.464 -0.8081  1.0726 -2.3344
50393SOL     OW68788  11.742   5.577   1.675  0.1785 -0.2999  0.4023
50393SOL    HW168789  11.818   5.627   1.646 -0.0659 -0.2193 -0.1256
50393SOL    HW268790  11.767   5.486   1.664  0.8351 -0.3269  1.9118
50394SOL     OW68791  10.295   8.163   1.947 -0.2623  0.4743  0.2661
50394SOL    HW168792  10.240   8.090   1.919 -0.5978  1.1540 -0.9484
50394SOL    HW268793  10.343   8.130   2.022  1.3261 -1.7761 -1.6010
50395SOL     OW68794   1.010  12.216   2.296  0.5641  0.3529 -0.4575
50395SOL    HW168795   0.947  12.287   2.309 -0.1622 -0.0858 -1.4720
50395SOL    HW268796   1.020  12.209   2.201 -0.2521 -1.6335 -0.4458
50396SOL     OW68797  13.483   4.044   0.578 -0.2980  0.0563 -0.7052
50396SOL    HW168798  13.530   3.961   0.572  1.0939  0.7250  0.3614
50396SOL    HW268799  13.394   4.019   0.606 -0.4192 -1.1758 -2.0772
50397SOL     OW68800  11.976   5.219   9.451  0.6502 -0.0972 -0.2629
50397SOL    HW168801  11.886   5.208   9.482  0.4149 -2.5126 -1.5836
50397SOL    HW268802  11.998   5.309   9.474 -2.6228  1.0839 -1.2266
50398SOL     OW68803  11.715  12.224   8.055 -0.5005  0.5443  1.0279
50398SOL    HW168804  11.634  12.267   8.029 -0.4446  0.9480  1.4931
50398SOL    HW268805  11.755  12.285   8.118  1.7112  1.9170 -1.4774
50399SOL     OW68806   9.428   4.737   3.393  0.5852 -0.1823 -0.3725
50399SOL    HW168807   9.373   4.813   3.374  1.1489  0.4486  0.4627
50399SOL    HW268808   9.366   4.665   3.404  0.0701  0.0469 -1.6014
50400SOL     OW68809  10.533  11.796   6.713  0.0388 -0.0180  0.1626
50400SOL    HW168810  10.492  11.856   6.651  0.7722  2.3065  1.7787
50400SOL    HW268811  10.466  11.731   6.731 -0.7269  0.1396 -1.8413
50401SOL     OW68812  12.466   2.821   1.887 -0.1728  0.3469  0.3072
50401SOL    HW168813  12.504   2.737   1.914  0.0946  0.4382  0.2179
50401SOL    HW268814  12.523   2.887   1.926  0.8951  0.4877 -1.3415
50402SOL     OW68815  12.657  14.067  13.391 -0.1500 -0.2015 -0.1611
50402SOL    HW168816  12.671  14.063  13.297 -0.8680  0.4673 -0.3112
50402SOL    HW268817  12.562  14.061  13.402  0.0021 -1.4806  0.6030
50403SOL     OW68818  10.183  13.364  12.614  0.2397  0.2410  0.3266
50403SOL    HW168819  10.219  13.434  12.668  0.8132 -0.2989  0.6509
50403SOL    HW268820  10.148  13.301  12.676 -0.7253  0.4612  0.0258
50404SOL     OW68821  12.800   9.660  10.730  0.0461 -0.4043  0.1044
50404SOL    HW168822  12.832   9.583  10.777 -2.1534 -0.7151  1.2697
50404SOL    HW268823  12.782   9.629  10.642 -0.9649 -1.3183  0.6044
50405SOL     OW68824   8.317   8.675   0.935 -0.3826 -0.5373  0.3266
50405SOL    HW168825   8.330   8.767   0.958 -0.2361 -0.8924  1.7363
50405SOL    HW268826   8.403   8.648   0.901 -0.3650 -0.2180  0.1042
50406SOL     OW68827   4.268  10.705   7.106  0.0712  0.2047 -0.5056
50406SOL    HW168828   4.286  10.795   7.078  0.6253 -0.2461 -1.6256
50406SOL    HW268829   4.188  10.712   7.159  0.9478  1.5687  0.7253
50407SOL     OW68830   1.030   4.719   5.803  0.0113 -0.2967  0.3296
50407SOL    HW168831   1.113   4.767   5.792 -0.8070  0.7054 -2.2927
50407SOL    HW268832   0.977   4.776   5.858 -0.0457  0.6737 -0.6765
50408SOL     OW68833   3.946   9.354   3.458 -0.4544  0.7631  0.6358
50408SOL    HW168834   3.978   9.336   3.370  1.4957 -0.3974  1.5238
50408SOL    HW268835   3.893   9.278   3.481 -1.2845  1.2401  0.3569
50409SOL     OW68836  12.333   2.341  11.713 -0.5361  0.4783 -0.2520
50409SOL    HW168837  12.370   2.413  11.662 -0.3171  0.5293 -0.0175
50409SOL    HW268838  12.395   2.327  11.785 -1.1895  0.8484  0.3881
50410SOL     OW68839   3.931   5.821  11.779 -0.0579  0.3239 -0.1469
50410SOL    HW168840   3.861   5.887  11.778  0.2473  0.6424 -0.4179
50410SOL    HW268841   3.887   5.742  11.811 -0.6872  0.3625 -0.8644
50411SOL     OW68842  12.709   5.962   7.770  0.2887  0.0680  0.0158
50411SOL    HW168843  12.694   6.054   7.790  1.6421  0.4970 -0.7502
50411SOL    HW268844  12.726   5.920   7.854 -0.3307  0.5202  0.3652
50412SOL     OW68845   2.019  10.258   6.019 -0.8626  0.6383 -0.0284
50412SOL    HW168846   1.925  10.272   6.008 -0.6726  1.7356 -0.4299
50412SOL    HW268847   2.042  10.193   5.953 -1.4165  0.0122  0.3868
50413SOL     OW68848   4.636   6.437   0.089  0.1705  0.5440  0.1246
50413SOL    HW168849   4.615   6.363   0.032  0.1666 -0.5451  1.4984
50413SOL    HW268850   4.689   6.495   0.034  0.7122 -0.7833 -0.8056
50414SOL     OW68851   8.852   1.274   7.922 -0.5463  0.3462  0.0552
50414SOL    HW168852   8.894   1.324   7.992 -0.9737 -2.7358  2.7856
50414SOL    HW268853   8.838   1.187   7.961 -3.0517 -0.8401 -3.1086
50415SOL     OW68854  11.360   2.536   2.780 -0.0909  0.0193  0.0902
50415SOL    HW168855  11.333   2.609   2.725  0.9093  0.5225  0.2467
50415SOL    HW268856  11.451   2.520   2.756  0.1338 -0.2387  1.0698
50416SOL     OW68857  12.878   4.200  13.170 -0.1450  0.4343  0.1434
50416SOL    HW168858  12.970   4.177  13.155 -0.7540 -1.1512 -1.5315
50416SOL    HW268859  12.874   4.294  13.151  0.6794  0.0246 -2.4612
50417SOL     OW68860  12.308  12.767   5.079 -0.0869  0.2394 -1.3982
50417SOL    HW168861  12.369  12.838   5.102  0.4858 -0.2840 -1.2906
50417SOL    HW268862  12.261  12.800   5.002 -0.8382  1.3312 -0.5174
50418SOL     OW68863  12.992   1.743  10.743 -0.6305 -0.5728  0.1155
50418SOL    HW168864  12.930   1.736  10.670  0.9717  2.2139 -1.7091
50418SOL    HW268865  12.977   1.831  10.778  1.4463 -0.2823  0.3857
50419SOL     OW68866   3.110   0.082   4.174  0.5499 -0.2458 -0.1524
50419SOL    HW168867   3.141   0.011   4.231 -0.9440 -0.9750 -0.2065
50419SOL    HW268868   3.063   0.038   4.103  0.7739  0.7485 -0.9533
50420SOL     OW68869  13.238  13.871   4.430  0.7150  0.0902  0.2327
50420SOL    HW168870  13.316  13.834   4.389 -0.7746 -2.7766 -0.3188
50420SOL    HW268871  13.230  13.822   4.512 -0.8416 -0.1895 -0.0563
50421SOL     OW68872   8.597   6.157  12.672  0.1663  0.1154 -0.0946
50421SOL    HW168873   8.521   6.103  12.693 -1.8398  2.2749 -1.2859
50421SOL    HW268874   8.635   6.115  12.594 -1.4235  0.3833 -1.0706
50422SOL     OW68875  11.166  11.359   1.921 -0.4617 -0.0679  0.0023
50422SOL    HW168876  11.124  11.281   1.883 -1.0121  0.0218  0.4115
50422SOL    HW268877  11.110  11.382   1.995  0.5664 -0.2181  0.8488
50423SOL     OW68878   7.142   7.437  12.957 -0.1316  0.8301  0.2804
50423SOL    HW168879   7.196   7.418  13.034  0.6964  0.7671 -0.3071
50423SOL    HW268880   7.091   7.514  12.983 -0.8172  0.0357  1.3521
50424SOL     OW68881  13.389  12.267   9.999  0.0102  0.8307  0.0077
50424SOL    HW168882  13.326  12.293  10.066 -1.6995 -1.2071 -0.7069
50424SOL    HW268883  13.359  12.312   9.919 -2.8354 -2.6844 -1.1828
50425SOL     OW68884  10.206   3.714   8.026  0.1532  0.7834 -0.1317
50425SOL    HW168885  10.232   3.700   8.117 -1.2775  2.7800  0.6741
50425SOL    HW268886  10.284   3.750   7.984  0.3973  1.2922  0.7241
50426SOL     OW68887   8.387   3.766   3.038  0.4941  0.1922  0.2486
50426SOL    HW168888   8.416   3.735   2.952  1.5548  0.8109  0.3622
50426SOL    HW268889   8.294   3.744   3.042  0.7624 -1.1461 -0.4647
50427SOL     OW68890   7.056   6.420   7.414  0.6920  0.4545 -0.0134
50427SOL    HW168891   7.124   6.487   7.424  1.1428  0.0362 -0.2201
50427SOL    HW268892   7.077   6.377   7.331 -0.2951  0.8476 -0.4726
50428SOL     OW68893   1.161  11.632   0.881 -0.4900  0.1830 -0.0131
50428SOL    HW168894   1.256  11.630   0.898 -0.7317  0.3547  1.3940
50428SOL    HW268895   1.121  11.642   0.967 -1.8395 -0.7866 -0.5016
50429SOL     OW68896   0.353   3.325  13.820 -0.7132  0.6247 -0.3510
50429SOL    HW168897   0.408   3.375  13.759  0.6752 -1.4187 -0.8835
50429SOL    HW268898   0.320   3.390  13.882  0.7883  2.2230 -1.1517
50430SOL     OW68899  11.123   4.494   8.860 -0.0101  0.0966  0.1243
50430SOL    HW168900  11.189   4.426   8.873 -0.2863 -0.0722  0.6335
50430SOL    HW268901  11.075   4.466   8.782  0.5137  0.2225 -0.2538
50431SOL     OW68902   0.343  11.757   2.274 -0.2399 -0.9698 -0.4169
50431SOL    HW168903   0.252  11.786   2.277  0.3151  0.9651 -1.0253
50431SOL    HW268904   0.369  11.752   2.366 -0.7216 -0.7515 -0.2626
50432SOL     OW68905  12.131   3.934   7.738 -0.0790  0.1664 -0.3427
50432SOL    HW168906  12.225   3.933   7.717 -0.1974 -0.9817 -0.9300
50432SOL    HW268907  12.107   3.841   7.743 -1.0455  0.4492  0.4661
50433SOL     OW68908   8.492  13.852  13.007  0.4694 -0.0565 -0.6760
50433SOL    HW168909   8.471  13.760  12.997 -1.0694  0.2656 -0.6731
50433SOL    HW268910   8.537  13.857  13.092 -0.3121 -0.6748 -0.2141
50434SOL     OW68911   4.323   8.454   8.493 -0.1719  0.6276  0.0001
50434SOL    HW168912   4.326   8.387   8.561 -0.3178  2.5464  2.0285
50434SOL    HW268913   4.362   8.413   8.416 -1.0046 -2.0120  0.8898
50435SOL     OW68914   8.218   2.644   7.993 -0.3292  0.6935  0.0470
50435SOL    HW168915   8.168   2.668   7.916  0.2711  3.5230  0.4115
50435SOL    HW268916   8.296   2.600   7.959 -0.3963  1.3056 -0.9183
50436SOL     OW68917   8.563  11.708  13.451 -0.2073 -0.6505 -0.2729
50436SOL    HW168918   8.530  11.620  13.429 -0.4612 -0.7737  0.5673
50436SOL    HW268919   8.614  11.734  13.375  0.4611 -1.8227 -0.2489
50437SOL     OW68920   3.009  10.454  13.703  0.1612 -0.1717 -0.0806
50437SOL    HW168921   3.033  10.396  13.630 -0.0795 -0.7326  0.2823
50437SOL    HW268922   2.948  10.402  13.756 -0.8329  0.7705 -0.2788
50438SOL     OW68923   4.168  10.586  13.217  0.5158  0.2628  0.1490
50438SOL    HW168924   4.235  10.517  13.225  0.7865  0.5899  0.8105
50438SOL    HW268925   4.106  10.567  13.287  0.3850  0.4715  0.0894
50439SOL     OW68926  12.022   4.287   9.853  0.0597  0.4358  0.0233
50439SOL    HW168927  12.088   4.356   9.843  0.0066  0.5813  0.6471
50439SOL    HW268928  12.035   4.230   9.777  0.8543  0.5060  0.0990
50440SOL     OW68929   9.942   2.196   6.634  0.1133 -0.0778  0.0792
50440SOL    HW168930  10.028   2.158   6.616 -0.3019 -0.1466 -2.0967
50440SOL    HW268931   9.904   2.140   6.702  0.8218 -1.5612 -0.7008
50441SOL     OW68932  12.485   0.088   7.753 -0.0135  0.3017 -0.6672
50441SOL    HW168933  12.453   0.069   7.666 -0.2188  0.5281 -0.6422
50441SOL    HW268934  12.467   0.009   7.804  0.7201 -0.0889 -0.9932
50442SOL     OW68935   1.056   5.805  13.251 -0.1696  0.0122 -0.0307
50442SOL    HW168936   1.143   5.843  13.253 -0.3134  0.3191  1.5203
50442SOL    HW268937   0.997   5.880  13.238 -0.3166  0.0792  0.9413
50443SOL     OW68938   2.617  12.149   4.899  0.1961 -0.3529 -0.3485
50443SOL    HW168939   2.546  12.155   4.836 -0.1458 -0.7441 -0.0074
50443SOL    HW268940   2.645  12.058   4.896 -1.5237 -1.0632  1.8457
50444SOL     OW68941  11.978  13.359   5.410 -0.6020  0.0623 -0.0445
50444SOL    HW168942  11.955  13.377   5.319 -0.3525 -0.6727 -0.2619
50444SOL    HW268943  11.988  13.445   5.450 -3.3501  0.4553 -0.0128
50445SOL     OW68944   9.698   7.866  10.176 -0.3049 -0.2359 -0.0468
50445SOL    HW168945   9.651   7.846  10.095  1.4035 -0.5408 -1.0292
50445SOL    HW268946   9.709   7.781  10.219 -0.6169 -0.1689  0.1675
50446SOL     OW68947  10.727  12.939  12.400 -0.0974  0.1058  0.3136
50446SOL    HW168948  10.730  12.988  12.318 -0.5622 -0.4270 -0.0279
50446SOL    HW268949  10.818  12.916  12.417  0.0163  0.3239  0.0118
50447SOL     OW68950   9.924   2.452  12.865  0.0107  0.0438 -0.5440
50447SOL    HW168951   9.939   2.547  12.868  0.2685  0.0035 -0.5802
50447SOL    HW268952   9.924   2.425  12.957  1.0980 -0.1047 -0.5827
50448SOL     OW68953   7.349  11.084   2.786  0.4747  0.1726 -0.4628
50448SOL    HW168954   7.259  11.056   2.768  0.5154  0.2662 -0.8236
50448SOL    HW268955   7.340  11.153   2.852  0.4771 -1.7139  1.6344
50449SOL     OW68956  11.947  12.419  11.908 -0.3168  0.0604 -0.1922
50449SOL    HW168957  11.994  12.503  11.909  0.1077 -0.1748  0.8378
50449SOL    HW268958  11.970  12.379  11.824 -1.1080  1.2857 -1.0244
50450SOL     OW68959   0.382  12.405   3.273 -0.1547 -0.1838  0.1641
50450SOL    HW168960   0.423  12.451   3.199  0.3276 -0.7878  0.0427
50450SOL    HW268961   0.440  12.330   3.289 -1.6483 -1.5420 -0.5487
50451SOL     OW68962   3.965   5.764  12.915  0.0048  0.5316 -0.2086
50451SOL    HW168963   3.924   5.846  12.943  0.7604  0.7531  0.2817
50451SOL    HW268964   4.022   5.739  12.988  0.3821 -0.0168 -0.6742
50452SOL     OW68965  12.601   5.246   9.708 -0.2867 -0.5192 -0.4349
50452SOL    HW168966  12.601   5.330   9.661  1.0343 -0.2290  0.0297
50452SOL    HW268967  12.520   5.246   9.757  0.8479  1.7389  1.6457
50453SOL     OW68968  12.909   7.585   7.004  0.0179 -0.4716  0.2585
50453SOL    HW168969  12.838   7.643   6.978 -0.3085 -0.9807 -0.0017
50453SOL    HW268970  12.984   7.643   7.015 -0.7156  0.2499  1.7271
50454SOL     OW68971   6.638   3.496   6.228  0.2412  1.2495  0.3524
50454SOL    HW168972   6.600   3.565   6.173  0.4271  0.2171 -1.1370
50454SOL    HW268973   6.705   3.541   6.280 -0.4063  2.3872  0.2259
50455SOL     OW68974   1.975   1.925   6.542 -0.5850 -0.1602  0.3070
50455SOL    HW168975   2.066   1.899   6.558 -0.4453  0.8060  1.2180
50455SOL    HW268976   1.982   2.010   6.499 -1.0539  0.4767  1.4472
50456SOL     OW68977  13.260   5.981   6.869 -0.1053 -0.1063 -0.3681
50456SOL    HW168978  13.204   5.976   6.791 -0.1268  0.4320 -0.3932
50456SOL    HW268979  13.337   6.029   6.840  1.2431 -2.4080 -0.8200
50457SOL     OW68980   2.663   5.424  10.297 -0.5884  0.5029 -0.2677
50457SOL    HW168981   2.660   5.352  10.235 -0.3558  0.5957 -0.3891
50457SOL    HW268982   2.729   5.484  10.261 -0.8947  0.8523 -0.2495
50458SOL     OW68983  10.470   0.818   0.260 -0.3580 -0.5190 -0.0986
50458SOL    HW168984  10.417   0.741   0.244 -0.8497 -0.0772 -0.6345
50458SOL    HW268985  10.519   0.797   0.340 -0.5671 -1.3312 -0.1749
50459SOL     OW68986   5.511   5.232   4.896 -0.2914 -0.3517  0.0190
50459SOL    HW168987   5.567   5.287   4.950 -2.0560  0.1539  1.4543
50459SOL    HW268988   5.462   5.293   4.842 -1.3293 -0.5567  0.6913
50460SOL     OW68989  10.033   2.330  10.473  0.7086  0.1857 -0.1569
50460SOL    HW168990   9.972   2.401  10.493  2.3575  2.2503 -1.8813
50460SOL    HW268991  10.040   2.331  10.378  0.8952 -2.2793 -0.2172
50461SOL     OW68992   5.166   4.882   5.998 -0.8389  0.3116  0.2890
50461SOL    HW168993   5.072   4.875   5.977 -0.7813 -0.2312  0.2008
50461SOL    HW268994   5.176   4.972   6.029 -1.5289  0.1441  1.0244
50462SOL     OW68995   5.869  13.662   3.474  0.0800  0.1231  0.0677
50462SOL    HW168996   5.787  13.616   3.456  0.0051  0.6190 -0.9559
50462SOL    HW268997   5.870  13.734   3.411  1.5212 -0.1388 -0.2376
50463SOL     OW68998  10.043   0.220   3.024  0.3673 -0.3695 -0.1376
50463SOL    HW168999   9.995   0.282   3.080 -0.9441 -1.6661  0.2627
50463SOL    HW269000   9.980   0.197   2.956  1.1298 -0.6234 -0.7606
50464SOL     OW69001  13.423  10.981  12.093  0.5861 -0.3634 -0.1110
50464SOL    HW169002  13.483  11.043  12.133  0.6056 -1.6636  2.0275
50464SOL    HW269003  13.431  10.998  11.999  1.7481  1.7574  0.2987
50465SOL     OW69004   7.862  13.430   4.945 -0.3033  0.5539 -0.1408
50465SOL    HW169005   7.807  13.362   4.984  1.5587  0.3798  2.4138
50465SOL    HW269006   7.929  13.382   4.897 -0.7429  0.7172 -0.9504
50466SOL     OW69007   2.904   5.563  12.993  0.2311 -0.4798  0.0675
50466SOL    HW169008   2.846   5.635  12.972 -0.3864 -0.6695  1.0701
50466SOL    HW269009   2.898   5.553  13.088  0.0520 -2.0551 -0.0746
50467SOL     OW69010   1.156  10.996   4.017 -0.3409  0.1945  0.3519
50467SOL    HW169011   1.125  11.033   4.100 -0.1895  1.4921 -0.1437
50467SOL    HW269012   1.243  10.963   4.036 -0.3669  0.3443  0.7406
50468SOL     OW69013   3.017   3.295  12.135 -0.0522 -0.0041  0.0323
50468SOL    HW169014   2.977   3.289  12.049 -1.5240  0.6374  0.6411
50468SOL    HW269015   3.028   3.389  12.150 -1.9505  0.0490  1.4472
50469SOL     OW69016   3.202  13.887   6.132  1.0817 -0.4169 -0.9223
50469SOL    HW169017   3.121  13.926   6.098  2.3857  1.8507 -1.6255
50469SOL    HW269018   3.229  13.825   6.064 -0.1413 -1.3727 -0.5754
50470SOL     OW69019   4.828  12.877  10.272  0.3592  0.3223  0.1861
50470SOL    HW169020   4.808  12.861  10.180 -0.4164  2.0318  0.0100
50470SOL    HW269021   4.923  12.885  10.274  0.3365  1.0813 -0.6433
50471SOL     OW69022  10.833  11.227   4.759 -0.5571  0.4904 -0.4434
50471SOL    HW169023  10.853  11.252   4.669 -2.1539  2.4391 -0.3297
50471SOL    HW269024  10.845  11.307   4.810 -1.9088  0.0204  0.6880
50472SOL     OW69025   1.580   8.855   3.074 -0.3775 -0.3391 -0.2352
50472SOL    HW169026   1.647   8.788   3.089 -0.1838 -0.2722 -0.7883
50472SOL    HW269027   1.582   8.871   2.979 -0.2046  0.6752 -0.0751
50473SOL     OW69028   3.651   4.809   1.334  0.0041  0.1381  0.3169
50473SOL    HW169029   3.679   4.720   1.314 -0.0356 -0.0199  0.9669
50473SOL    HW269030   3.565   4.799   1.374 -1.0470  0.6202 -1.6559
50474SOL     OW69031   5.676  13.201   1.043  0.9283  0.5092 -0.2136
50474SOL    HW169032   5.677  13.129   1.105  0.2162 -0.7296 -1.5733
50474SOL    HW269033   5.760  13.245   1.056  0.7161  0.4371  1.7314
50475SOL     OW69034   1.746  11.592   7.257  0.3648 -0.0369  0.8459
50475SOL    HW169035   1.749  11.635   7.342  0.7602 -0.5912  1.1199
50475SOL    HW269036   1.838  11.585   7.230  0.1665  2.9863 -1.1203
50476SOL     OW69037   3.004  14.042   6.009 -0.1449 -0.5779 -0.2420
50476SOL    HW169038   3.059  14.118   5.991  0.1620 -0.6417  0.4034
50476SOL    HW269039   2.917  14.079   6.025  0.1209 -0.2937  0.6330
50477SOL     OW69040   2.807   8.475   4.059 -0.4253 -0.3231  0.1521
50477SOL    HW169041   2.887   8.450   4.014 -0.5753 -1.7667  0.6292
50477SOL    HW269042   2.835   8.500   4.147 -0.2152  1.8221 -0.4679
50478SOL     OW69043   7.555  10.082  13.976 -0.5487 -0.0779  0.2025
50478SOL    HW169044   7.485  10.111  13.917 -1.0396 -0.6961  0.4707
50478SOL    HW269045   7.512  10.074  14.061  0.1357  0.7049  0.6376
50479SOL     OW69046   6.137   3.842   3.609 -0.4334 -0.3851  0.0319
50479SOL    HW169047   6.066   3.796   3.654  0.6191  1.0988  3.4716
50479SOL    HW269048   6.212   3.784   3.617 -0.5721 -0.7966 -1.3196
50480SOL     OW69049   4.217  10.841   1.094  0.0560  0.4097 -0.3749
50480SOL    HW169050   4.135  10.874   1.131 -0.0700 -0.6668  0.3493
50480SOL    HW269051   4.221  10.749   1.122  0.6365 -0.0637 -1.9009
50481SOL     OW69052   7.346  10.755   7.154 -0.3475 -0.5147 -0.2970
50481SOL    HW169053   7.364  10.665   7.128 -2.5358 -1.4051  1.0231
50481SOL    HW269054   7.291  10.789   7.083 -0.9693 -0.8243  0.0247
50482SOL     OW69055   3.559   6.622   8.977 -0.0575  0.0147  0.3555
50482SOL    HW169056   3.644   6.631   9.021  0.4634  1.1655 -0.8200
50482SOL    HW269057   3.580   6.618   8.884 -1.2709 -0.2630  0.0776
50483SOL     OW69058  10.776   5.592   6.536  0.8416 -0.2198 -0.2896
50483SOL    HW169059  10.816   5.516   6.494 -0.5176 -0.9445 -0.3206
50483SOL    HW269060  10.793   5.580   6.629  3.2352  1.0231 -0.4840
50484SOL     OW69061   2.249  13.266   6.807  0.1684 -0.5671 -0.9744
50484SOL    HW169062   2.243  13.353   6.769 -2.1416 -0.0132  0.4699
50484SOL    HW269063   2.200  13.210   6.747 -1.6801 -0.0871  0.0244
50485SOL     OW69064   1.442   8.887   4.157 -0.1884 -0.1298 -0.0538
50485SOL    HW169065   1.519   8.841   4.122  0.1123  0.2314  0.1249
50485SOL    HW269066   1.470   8.978   4.164 -1.0186  0.2245 -1.1186
50486SOL     OW69067  12.297   6.189  13.476 -0.3923 -0.6370 -0.4622
50486SOL    HW169068  12.251   6.267  13.507  0.8998  0.3128 -0.8792
50486SOL    HW269069  12.390   6.211  13.482 -0.0260 -1.7084 -1.7084
50487SOL     OW69070  11.964  12.947   0.599 -0.4836 -0.3117 -0.4774
50487SOL    HW169071  11.942  13.016   0.536  0.4233 -0.0973 -0.5719
50487SOL    HW269072  11.890  12.886   0.595 -0.4895 -0.2450 -1.6860
50488SOL     OW69073   9.188   2.907   7.890  0.3244 -0.2336  0.4072
50488SOL    HW169074   9.252   2.943   7.952  1.2626 -0.4209 -0.4373
50488SOL    HW269075   9.187   2.970   7.818 -0.3789 -0.2833  0.3711
50489SOL     OW69076   3.859   2.703   0.377  0.2657 -0.2699 -0.0758
50489SOL    HW169077   3.797   2.766   0.341  0.1073  0.2659  1.0965
50489SOL    HW269078   3.865   2.634   0.311  1.1991  1.4275 -1.8840
50490SOL     OW69079  11.797   6.013  13.058  0.5275 -0.1767 -0.7112
50490SOL    HW169080  11.867   6.045  13.000  0.9357  0.5961  0.1933
50490SOL    HW269081  11.837   5.938  13.103  0.6850  0.1025 -0.3868
50491SOL     OW69082  10.635   2.927  12.720  0.0594 -0.2144 -0.1336
50491SOL    HW169083  10.565   2.862  12.714  1.4079 -1.6848 -0.7482
50491SOL    HW269084  10.713   2.876  12.740  1.3840  1.0542 -1.7355
50492SOL     OW69085   1.688  10.339   9.946 -0.5294  0.1740  0.1647
50492SOL    HW169086   1.672  10.412  10.006  0.6696  0.1578  0.5340
50492SOL    HW269087   1.615  10.342   9.884 -1.1206  0.9587  0.8814
50493SOL     OW69088   0.244   4.345   1.343 -0.1797  0.1204 -0.5371
50493SOL    HW169089   0.330   4.319   1.311 -0.2901  1.6451 -2.2887
50493SOL    HW269090   0.186   4.336   1.267 -1.4940 -0.4834  0.4920
50494SOL     OW69091   6.474  13.347  11.531  0.3695  0.3419 -0.0574
50494SOL    HW169092   6.539  13.398  11.578  0.7870  0.7939 -1.0871
50494SOL    HW269093   6.404  13.408  11.512 -0.0779  0.0103  0.4928
50495SOL     OW69094  12.826   9.117   3.825  0.2433 -0.0034 -0.3083
50495SOL    HW169095  12.771   9.053   3.781 -0.6348  0.8453 -0.4890
50495SOL    HW269096  12.878   9.156   3.754  0.6360 -0.3618 -0.2253
50496SOL     OW69097  11.294  13.103  13.231 -0.0689  0.3028 -0.9648
50496SOL    HW169098  11.306  13.183  13.282  0.9829 -0.9178  0.8026
50496SOL    HW269099  11.320  13.127  13.142 -1.4060  2.3400 -0.8758
50497SOL     OW69100  13.274   6.395  14.005 -0.0604  0.1420 -0.5442
50497SOL    HW169101  13.336   6.378  14.075 -0.8539 -1.4036 -0.1815
50497SOL    HW269102  13.292   6.486  13.979  1.2280  0.2619  0.6416
50498SOL     OW69103   7.564   5.419   4.444  0.0901 -0.8801 -0.1209
50498SOL    HW169104   7.471   5.440   4.453  0.6090  1.3496  0.6158
50498SOL    HW269105   7.569   5.368   4.363 -1.8458 -1.6894  0.2097
50499SOL     OW69106  12.795   0.374   0.348  0.4895 -0.1197 -0.2120
50499SOL    HW169107  12.740   0.449   0.371  0.4180 -0.7024  1.6817
50499SOL    HW269108  12.752   0.336   0.271 -0.1480  1.0725 -0.4710
50500SOL     OW69109   5.150   0.637   2.863  0.0668 -0.1462  0.2674
50500SOL    HW169110   5.192   0.563   2.906  0.5005  1.0981  2.0504
50500SOL    HW269111   5.069   0.651   2.912 -0.5844 -0.1310 -0.7722
50501SOL     OW69112   5.038   3.240   7.366 -0.2029 -0.6454 -0.2788
50501SOL    HW169113   4.959   3.190   7.386 -0.9827 -0.3096 -2.2726
50501SOL    HW269114   5.108   3.175   7.366 -1.4037 -2.2064 -4.3087
50502SOL     OW69115   9.574   1.617   8.165 -0.5711 -0.2075 -0.0531
50502SOL    HW169116   9.532   1.648   8.085  0.5396  1.7290  0.0658
50502SOL    HW269117   9.662   1.592   8.137  0.3283  1.8411  0.7406
50503SOL     OW69118  10.882  13.750  10.163 -0.7304 -0.2196  0.2219
50503SOL    HW169119  10.935  13.736  10.084  0.7524  2.1398  0.6728
50503SOL    HW269120  10.840  13.666  10.180  0.7989 -1.4565 -1.7199
50504SOL     OW69121  13.968  12.007   6.845  0.0050 -0.4748 -0.2800
50504SOL    HW169122  13.962  11.965   6.931 -2.1377 -2.2058 -1.1628
50504SOL    HW269123  13.897  12.071   6.846  1.1496  0.8436 -0.1596
50505SOL     OW69124   5.395  13.112   8.058  0.1880 -0.2203  0.2949
50505SOL    HW169125   5.372  13.026   8.094  0.2207 -0.8331 -1.0720
50505SOL    HW269126   5.444  13.092   7.978 -0.2359  1.0682 -0.3169
50506SOL     OW69127   0.849  13.779  10.135 -0.2569 -0.4171 -0.0769
50506SOL    HW169128   0.810  13.719  10.199  2.2690 -0.7827  1.2485
50506SOL    HW269129   0.775  13.810  10.083 -2.0545 -2.2661  1.2207
50507SOL     OW69130   9.314   8.959   1.651  0.2617 -0.2920 -0.4267
50507SOL    HW169131   9.224   8.928   1.643 -0.2112  1.0951 -0.7176
50507SOL    HW269132   9.352   8.903   1.719 -1.2977  0.0979  0.8339
50508SOL     OW69133   7.130   3.354  13.967 -0.6163  0.0907 -0.0321
50508SOL    HW169134   7.138   3.261  13.950 -3.0885 -0.5867  1.9458
50508SOL    HW269135   7.207   3.375  14.020 -0.2411 -0.9031 -0.1605
50509SOL     OW69136   1.289   4.996   5.078  0.1099 -0.2530  0.0515
50509SOL    HW169137   1.373   4.991   5.125 -0.1079  1.1480  0.6542
50509SOL    HW269138   1.276   5.090   5.063 -1.0070 -0.5079 -0.6751
50510SOL     OW69139  14.033   5.264   5.573 -0.0176  0.4703  0.5083
50510SOL    HW169140  13.995   5.179   5.550  0.6666  0.1480  0.5538
50510SOL    HW269141  14.103   5.277   5.508  1.8205 -0.3621  2.2191
50511SOL     OW69142   1.716   8.040  12.072 -0.3351 -0.2191  0.4028
50511SOL    HW169143   1.710   7.954  12.029 -0.5748 -0.1580  0.3086
50511SOL    HW269144   1.674   8.100  12.010 -0.2082 -0.0427  0.4893
50512SOL     OW69145  11.159   5.644   8.979  0.0390 -0.3123  0.1840
50512SOL    HW169146  11.247   5.605   8.983 -0.2699 -0.8913  3.2149
50512SOL    HW269147  11.116   5.597   8.907  1.7269 -1.0403 -0.4122
50513SOL     OW69148   0.735  13.966   4.539 -0.2541  0.3398  0.4397
50513SOL    HW169149   0.723  13.879   4.500  0.8294  0.8377 -1.1040
50513SOL    HW269150   0.683  14.023   4.482  3.8429  1.5808 -2.4929
50514SOL     OW69151   0.610   3.356   8.594 -0.0497 -0.3193  0.0578
50514SOL    HW169152   0.600   3.274   8.546 -0.2971  0.1831 -0.7770
50514SOL    HW269153   0.527   3.366   8.641 -0.0402 -0.5272  0.1171
50515SOL     OW69154   2.755   2.279   0.970 -0.4479 -0.3579  0.3290
50515SOL    HW169155   2.699   2.205   0.994 -0.7190 -0.0406  0.6827
50515SOL    HW269156   2.732   2.348   1.032 -0.5117  0.1761 -0.2792
50516SOL     OW69157   7.303   3.419   4.152  0.3703 -0.1779 -0.9697
50516SOL    HW169158   7.269   3.401   4.240  2.2739  2.2419  0.3668
50516SOL    HW269159   7.383   3.366   4.146  1.1322  0.8922 -0.5462
50517SOL     OW69160   0.127  13.539   4.638  0.6458 -0.7362 -0.1360
50517SOL    HW169161   0.202  13.598   4.644  0.5631 -0.5425 -0.8963
50517SOL    HW269162   0.116  13.505   4.727  2.9474 -2.4244 -0.3818
50518SOL     OW69163   0.618  13.315   0.267  0.0287 -0.4130  0.2448
50518SOL    HW169164   0.648  13.263   0.341  1.4080 -1.1839 -0.8233
50518SOL    HW269165   0.666  13.398   0.275 -1.5464  0.4351  1.4725
50519SOL     OW69166   1.642   9.598   5.085  0.5062 -0.0876  0.3396
50519SOL    HW169167   1.599   9.610   5.000  0.4804 -0.3828  0.3104
50519SOL    HW269168   1.734   9.616   5.068  0.2991  1.3177  0.5655
50520SOL     OW69169   6.503   3.019   0.647 -0.4565  0.1441 -0.5058
50520SOL    HW169170   6.519   2.947   0.708 -1.8274 -0.1926 -0.5123
50520SOL    HW269171   6.408   3.025   0.641 -0.3897  2.1298 -0.3114
50521SOL     OW69172   2.619   1.371   8.552 -0.0175  0.2164 -0.1950
50521SOL    HW169173   2.641   1.278   8.540  3.2661  0.9474 -0.6340
50521SOL    HW269174   2.649   1.392   8.640  0.5689  1.1706 -0.6085
50522SOL     OW69175   9.818   9.539  13.496  0.0866  0.2437 -0.0174
50522SOL    HW169176   9.823   9.633  13.518  0.8163  0.4784 -1.1389
50522SOL    HW269177   9.884   9.527  13.428 -0.0546 -1.0853  0.0652
50523SOL     OW69178   0.950   7.674   3.042 -0.0651  0.3401  0.1522
50523SOL    HW169179   0.866   7.675   3.088 -1.2616 -0.5911 -1.8566
50523SOL    HW269180   0.999   7.604   3.084 -0.6328  0.3122  0.7937
50524SOL     OW69181   4.202   6.460   5.412 -0.7042 -0.2803  0.2541
50524SOL    HW169182   4.164   6.520   5.476 -1.7684 -2.3761  1.7198
50524SOL    HW269183   4.140   6.462   5.339 -0.1113  1.2195 -0.2551
50525SOL     OW69184   0.046   9.918   9.641 -0.2707  0.4668 -0.3696
50525SOL    HW169185   0.097   9.982   9.691  0.7285 -1.2415  0.8992
50525SOL    HW269186   0.072   9.933   9.550  1.7601  0.3415  0.1321
50526SOL     OW69187   8.693   6.625   4.836 -0.2876  0.4518 -0.5958
50526SOL    HW169188   8.622   6.563   4.821 -1.2958  1.4700 -0.1591
50526SOL    HW269189   8.739   6.630   4.752  0.7754 -1.9901 -0.2559
50527SOL     OW69190  12.295   8.127  10.916  0.6912  0.1929  0.0628
50527SOL    HW169191  12.296   8.209  10.966  1.2095 -0.7855  1.7441
50527SOL    HW269192  12.204   8.117  10.887  0.2404  0.5082  1.3188
50528SOL     OW69193   5.356   9.801   0.983  0.2380  0.1331 -0.3932
50528SOL    HW169194   5.375   9.849   0.902 -0.3234 -0.5990 -0.9698
50528SOL    HW269195   5.386   9.860   1.053  0.1064  1.0642 -1.1016
50529SOL     OW69196  12.361  12.845   1.959  0.2196 -1.1251 -0.6050
50529SOL    HW169197  12.406  12.883   1.884 -0.1658  0.7075  0.0431
50529SOL    HW269198  12.423  12.780   1.994  1.8328  0.3832 -0.5205
50530SOL     OW69199  14.092   9.128   8.794  0.2651 -0.0434  0.1385
50530SOL    HW169200  14.180   9.092   8.779 -0.5103 -2.4271  0.7790
50530SOL    HW269201  14.062   9.083   8.874 -2.2218 -0.7227 -1.0913
50531SOL     OW69202   8.977  13.069  12.743  0.0813  0.2703  0.6321
50531SOL    HW169203   8.910  13.036  12.803  1.3867 -0.0848  1.9426
50531SOL    HW269204   9.011  12.990  12.700 -0.5522  0.4844 -0.2969
50532SOL     OW69205   0.833   2.574   0.290  0.1898  0.0916 -0.1406
50532SOL    HW169206   0.892   2.551   0.362 -0.3480  1.1446  0.6764
50532SOL    HW269207   0.889   2.583   0.214  0.7907 -0.9406  0.1599
50533SOL     OW69208   0.543   3.381  11.175  0.4978  0.3386 -0.0787
50533SOL    HW169209   0.626   3.412  11.212  1.0620 -1.0352 -0.1224
50533SOL    HW269210   0.480   3.390  11.246  0.8961  0.5594  0.2520
50534SOL     OW69211   2.150   1.644   0.723 -0.1744 -0.4966 -0.0453
50534SOL    HW169212   2.237   1.613   0.697  0.5248  0.5353  0.9675
50534SOL    HW269213   2.149   1.736   0.696 -0.8401 -0.4204  0.2232
50535SOL     OW69214   1.518   4.940   0.854  0.0809 -0.5500 -0.3586
50535SOL    HW169215   1.570   4.883   0.798 -1.0535 -0.6926 -1.2935
50535SOL    HW269216   1.429   4.931   0.822 -0.1215  1.8716 -0.6494
50536SOL     OW69217   3.017   6.290   2.844  0.0625 -0.0072 -0.1431
50536SOL    HW169218   2.995   6.283   2.751  2.6239 -1.6220 -0.7304
50536SOL    HW269219   3.090   6.352   2.847  0.7749 -0.8491  0.6048
50537SOL     OW69220   8.985   4.683   1.198 -0.4729 -0.0908 -0.1836
50537SOL    HW169221   8.990   4.600   1.150 -1.9979 -1.1340  1.3710
50537SOL    HW269222   9.052   4.675   1.266 -1.8523 -0.8916  1.1370
50538SOL     OW69223  13.831   6.508  11.297 -0.0795 -0.3024  0.0790
50538SOL    HW169224  13.895   6.533  11.230 -1.8152 -0.9056 -1.9243
50538SOL    HW269225  13.746   6.523  11.255 -1.3351  1.1313  2.8598
50539SOL     OW69226   1.666   9.876   8.296  0.6195  0.3051  0.1094
50539SOL    HW169227   1.660   9.919   8.381 -1.3603 -0.5104  0.4425
50539SOL    HW269228   1.742   9.819   8.303  0.2879 -0.0131  1.4707
50540SOL     OW69229   4.113   8.796   6.472 -0.1587 -0.4637  0.0954
50540SOL    HW169230   4.050   8.851   6.426  0.7918 -0.3233 -1.0734
50540SOL    HW269231   4.171   8.763   6.404  2.2789  0.9945  1.3495
50541SOL     OW69232   5.400   7.957  11.773 -0.4541  0.2168  0.4051
50541SOL    HW169233   5.431   7.867  11.778 -0.9400  0.0167 -0.1349
50541SOL    HW269234   5.336   7.957  11.702 -1.4625  0.6838  1.2833
50542SOL     OW69235   3.893   4.171  12.114  0.4521  0.3618 -0.6522
50542SOL    HW169236   3.876   4.164  12.020  0.3363  0.0000 -0.6071
50542SOL    HW269237   3.848   4.095  12.152  0.4868  0.5150 -0.3039
50543SOL     OW69238  10.702   1.217   3.660  0.0747  0.1545  0.0449
50543SOL    HW169239  10.688   1.215   3.754 -0.6661 -0.5253 -0.0654
50543SOL    HW269240  10.756   1.140   3.641  0.5708  0.5192 -0.0367
50544SOL     OW69241  13.064   7.506   0.894  0.4070  0.3816  0.0217
50544SOL    HW169242  13.075   7.419   0.855 -0.2462  0.4618 -0.3435
50544SOL    HW269243  13.148   7.550   0.878  0.0812  0.4971 -1.5097
50545SOL     OW69244  14.089   5.792   8.424 -0.6194  0.1876 -0.2329
50545SOL    HW169245  14.125   5.753   8.503 -0.6017  1.1554  0.2462
50545SOL    HW269246  13.996   5.769   8.426 -0.5217 -0.2129 -0.1971
50546SOL     OW69247  13.853   6.259   0.897  0.3099 -0.4425  0.1047
50546SOL    HW169248  13.879   6.186   0.841  1.9550  0.7702 -0.7931
50546SOL    HW269249  13.823   6.327   0.836 -2.1300 -0.6445  0.9686
50547SOL     OW69250   5.617   9.615   0.674 -0.3638 -0.2175  0.2411
50547SOL    HW169251   5.534   9.633   0.717 -1.0839  0.6084 -1.4230
50547SOL    HW269252   5.629   9.687   0.613 -0.0431 -1.9851 -1.8990
50548SOL     OW69253   8.370   3.279   6.032 -0.3366 -0.5496  0.2345
50548SOL    HW169254   8.348   3.371   6.044  3.6405  0.7926 -1.1462
50548SOL    HW269255   8.388   3.246   6.121 -2.0202 -0.1405  0.7584
50549SOL     OW69256   5.386   0.492  14.028  0.1940 -0.2030 -0.0196
50549SOL    HW169257   5.351   0.464  14.113 -0.3608  0.7952  0.0905
50549SOL    HW269258   5.313   0.539  13.987  0.8179  0.2854 -0.5771
50550SOL     OW69259   7.994   3.102  14.020 -0.0167  0.1762 -0.1761
50550SOL    HW169260   8.082   3.132  14.043 -0.0424  0.6900 -0.7323
50550SOL    HW269261   7.945   3.182  14.004 -0.4212 -0.1272 -0.4630
50551SOL     OW69262  11.410  12.697  14.069 -0.0397  0.3077  0.2035
50551SOL    HW169263  11.358  12.747  14.132  0.1937 -0.4789  1.0403
50551SOL    HW269264  11.443  12.622  14.119  0.1893 -0.3117 -0.8439
50552SOL     OW69265   8.653  12.113   7.103  0.3101  0.9380 -0.5514
50552SOL    HW169266   8.663  12.187   7.043 -0.5848  1.6688  0.1851
50552SOL    HW269267   8.561  12.089   7.097  0.5225  0.0802 -0.5310
50553SOL     OW69268   9.936   2.760   8.703  0.4696 -0.6149 -0.0779
50553SOL    HW169269   9.946   2.670   8.732  0.0049 -0.8932 -0.7424
50553SOL    HW269270  10.000   2.770   8.633  0.6711 -0.3581  0.1414
50554SOL     OW69271   6.094   1.067   8.569  0.0317  0.0161  0.2361
50554SOL    HW169272   6.128   1.084   8.481  1.7280  0.1921  0.8775
50554SOL    HW269273   6.079   0.973   8.572  0.1179 -0.0111 -0.1922
50555SOL     OW69274   2.933   1.415  11.566 -0.2429 -0.1256 -0.6028
50555SOL    HW169275   3.002   1.348  11.571 -1.4563 -1.4856 -1.3839
50555SOL    HW269276   2.937   1.460  11.650  0.9647 -0.8199 -0.2651
50556SOL     OW69277   4.861  10.177   3.331 -0.3204 -0.2639 -0.1786
50556SOL    HW169278   4.876  10.263   3.371 -0.6718 -0.8094  1.1812
50556SOL    HW269279   4.767  10.166   3.333 -0.2224 -1.0180  0.3901
50557SOL     OW69280   8.021   6.731   8.050 -1.0949 -0.1769  0.5645
50557SOL    HW169281   8.018   6.809   7.995 -2.6806 -0.2761  0.4725
50557SOL    HW269282   8.027   6.658   7.989 -0.3177 -0.1815  0.6310
50558SOL     OW69283   2.185  10.282   0.333 -0.8733  0.0728  0.0925
50558SOL    HW169284   2.103  10.307   0.291 -0.4911 -1.0617 -1.4700
50558SOL    HW269285   2.240  10.251   0.260  0.7420  0.2959  1.1634
50559SOL     OW69286  13.183  13.783   0.884 -0.4018 -0.5533  0.0179
50559SOL    HW169287  13.199  13.690   0.899  3.0402  0.0192  0.7524
50559SOL    HW269288  13.174  13.790   0.789 -0.9204 -1.6416 -0.0262
50560SOL     OW69289   7.597   2.728   6.198  0.6785  0.0161  0.7909
50560SOL    HW169290   7.549   2.652   6.166  1.6491  0.7046 -2.7123
50560SOL    HW269291   7.537   2.801   6.189  0.6196  0.0864  1.6533
50561SOL     OW69292   0.545   7.780   6.219 -0.2014 -0.2208 -0.1450
50561SOL    HW169293   0.636   7.798   6.196 -0.3172 -0.0404 -0.4752
50561SOL    HW269294   0.541   7.794   6.313 -0.1639  1.0249 -0.3058
50562SOL     OW69295   2.044   2.022   3.871  0.1317 -0.3552 -0.0208
50562SOL    HW169296   1.949   2.026   3.860  0.0789 -0.5062  0.3559
50562SOL    HW269297   2.056   1.987   3.959  0.5359  1.0576  0.5108
50563SOL     OW69298  12.082   1.286   2.919 -0.0697  0.2055  0.0525
50563SOL    HW169299  12.123   1.370   2.937  1.0848 -0.0520 -1.2681
50563SOL    HW269300  12.005   1.308   2.867 -1.2803  0.6240  1.9136
50564SOL     OW69301  10.391   9.630   8.026 -0.1167  0.7358  0.5860
50564SOL    HW169302  10.426   9.696   8.086  0.3174 -1.0961  2.4986
50564SOL    HW269303  10.368   9.556   8.083  0.0330 -1.0174 -1.4800
50565SOL     OW69304   9.263  10.047  12.068  0.2954 -0.7870  0.0106
50565SOL    HW169305   9.265  10.095  11.985 -3.2059  1.1920  0.8771
50565SOL    HW269306   9.284  10.112  12.134 -0.0361 -1.5547  0.8944
50566SOL     OW69307   2.593  13.008   1.222 -0.3523  0.6356  0.1591
50566SOL    HW169308   2.552  13.072   1.280  0.4113  1.2556  0.0260
50566SOL    HW269309   2.681  12.996   1.258 -1.3303 -2.4383  1.8453
50567SOL     OW69310   9.833  13.373  11.263  0.1814 -0.1668  0.1300
50567SOL    HW169311   9.820  13.382  11.169 -0.5746  0.0278  0.2452
50567SOL    HW269312   9.923  13.403  11.278 -0.4082  1.9568 -0.2549
50568SOL     OW69313   7.953  13.137   8.267 -0.3082 -0.1526 -0.2671
50568SOL    HW169314   7.934  13.210   8.209  0.6216 -0.4347 -0.9518
50568SOL    HW269315   8.037  13.102   8.235 -1.7184 -2.8740 -1.4059
50569SOL     OW69316   1.181   9.879   4.455  0.2869  0.1558  0.0660
50569SOL    HW169317   1.258   9.915   4.500 -0.1727 -0.0785  1.0761
50569SOL    HW269318   1.108   9.928   4.492  0.0440  1.6166 -2.1355
50570SOL     OW69319   6.656   2.397   1.569 -0.3543  0.1033 -0.1415
50570SOL    HW169320   6.653   2.301   1.567  0.2268  0.0887 -0.7103
50570SOL    HW269321   6.709   2.418   1.646 -2.0330  0.0282  1.0909
50571SOL     OW69322  10.814   3.672   4.092  0.4775  0.2096 -0.3069
50571SOL    HW169323  10.781   3.692   4.180  0.6332  0.1377 -0.2325
50571SOL    HW269324  10.840   3.580   4.096 -0.2321 -0.0150 -0.6509
50572SOL     OW69325  11.976  10.886   9.475  0.1736  0.0715 -0.1567
50572SOL    HW169326  12.050  10.911   9.421  0.1608 -0.7173 -0.5557
50572SOL    HW269327  12.009  10.814   9.529  0.4798  1.4662  1.6111
50573SOL     OW69328   7.354   2.672   8.166 -0.4243  0.8862 -0.3496
50573SOL    HW169329   7.421   2.610   8.197  0.8322  1.4918 -1.7503
50573SOL    HW269330   7.292   2.677   8.238  1.1180  0.4070  1.0928
50574SOL     OW69331   1.910   9.817   9.398 -0.0383  0.5607 -0.8188
50574SOL    HW169332   1.978   9.872   9.438  0.8263 -1.3148  0.4330
50574SOL    HW269333   1.896   9.857   9.311  2.6658  1.0424 -1.1493
50575SOL     OW69334  12.349  12.364   4.281 -0.2368 -0.0997 -0.1983
50575SOL    HW169335  12.433  12.391   4.318  0.3856  0.0848 -1.7105
50575SOL    HW269336  12.358  12.377   4.187 -1.3426 -1.7439 -0.5732
50576SOL     OW69337   9.626  11.379   5.340 -0.3602  0.1485 -0.1688
50576SOL    HW169338   9.608  11.323   5.416 -1.1821 -0.2713 -0.6518
50576SOL    HW269339   9.550  11.437   5.335  0.6003  1.5169  0.4779
50577SOL     OW69340  12.505   6.591  13.142 -0.5857  0.1081  0.2490
50577SOL    HW169341  12.542   6.677  13.121 -1.1669  0.4599  0.6567
50577SOL    HW269342  12.510   6.543  13.059 -1.8471  1.1117 -0.4494
50578SOL     OW69343   2.721   3.563  10.882 -0.2267  0.3741  0.6152
50578SOL    HW169344   2.782   3.512  10.936  0.7032  1.2357  0.4093
50578SOL    HW269345   2.751   3.653  10.892 -0.8222  0.6883 -0.3519
50579SOL     OW69346   9.279   4.661   1.268  0.2958  0.0143  0.3348
50579SOL    HW169347   9.371   4.633   1.272 -0.1304 -1.4809  0.2753
50579SOL    HW269348   9.261   4.671   1.174  0.6369  1.2178  0.3815
50580SOL     OW69349   4.283  13.292   6.741  0.1892 -0.1340 -0.0682
50580SOL    HW169350   4.271  13.267   6.649 -0.8603  1.3686 -0.3727
50580SOL    HW269351   4.337  13.371   6.738 -0.3740  0.2873  0.5563
50581SOL     OW69352   1.831   9.679   2.891  0.2398 -0.1437 -0.1534
50581SOL    HW169353   1.914   9.726   2.888  0.4645 -0.4525  0.7337
50581SOL    HW269354   1.802   9.676   2.800  1.6378 -0.7912 -0.6145
50582SOL     OW69355   6.312   4.301  11.723 -0.1153 -0.4660 -0.4352
50582SOL    HW169356   6.266   4.352  11.789  2.6583 -0.2626  1.5131
50582SOL    HW269357   6.278   4.333  11.639 -1.1411  1.8782  0.7853
50583SOL     OW69358   2.818   6.565   9.695 -0.2717 -0.5794  0.4074
50583SOL    HW169359   2.845   6.623   9.766 -2.1771  3.1365 -1.5722
50583SOL    HW269360   2.725   6.547   9.713 -0.6496  0.0127 -0.8465
50584SOL     OW69361  12.737   2.029  12.485 -0.0715  0.4302  0.5729
50584SOL    HW169362  12.815   2.041  12.537 -0.1402 -0.1720  0.8283
50584SOL    HW269363  12.738   1.936  12.462 -0.3832  0.5496  0.0550
50585SOL     OW69364   9.111   0.680  10.549  0.3460  0.5096  0.1078
50585SOL    HW169365   9.143   0.590  10.534 -0.0848  0.1238  1.3673
50585SOL    HW269366   9.187   0.735  10.529  1.1432 -0.2515  0.9223
50586SOL     OW69367  11.604   8.766   3.669 -0.2422  0.3009  0.4790
50586SOL    HW169368  11.560   8.703   3.611  0.0617 -0.1191  0.7022
50586SOL    HW269369  11.557   8.848   3.654 -0.6465  0.0232  0.1896
50587SOL     OW69370   8.010   6.269   4.805 -0.0758  0.2866 -0.3839
50587SOL    HW169371   7.966   6.340   4.851  1.7634  0.9103  0.4994
50587SOL    HW269372   7.980   6.277   4.714 -1.5442  0.8248  0.1240
50588SOL     OW69373   8.208   3.170   0.365 -0.3818 -0.0139  0.1183
50588SOL    HW169374   8.230   3.172   0.458 -0.6194 -0.1818  0.1780
50588SOL    HW269375   8.262   3.239   0.326  1.3840 -1.3754  0.0297
50589SOL     OW69376   2.812   6.607   9.118 -0.4937  0.2112 -0.6174
50589SOL    HW169377   2.793   6.533   9.177  0.8747 -0.1027 -0.5314
50589SOL    HW269378   2.749   6.674   9.143  0.9146  0.6216  2.2204
50590SOL     OW69379   1.599   7.339   7.597 -0.0440 -0.1828  0.4155
50590SOL    HW169380   1.528   7.280   7.572 -0.3428 -0.1810  1.2024
50590SOL    HW269381   1.646   7.292   7.666  1.5582 -0.7500 -1.0138
50591SOL     OW69382   1.232   6.178  11.363  0.2871  0.2400 -0.1881
50591SOL    HW169383   1.148   6.198  11.322  0.9228  1.3923 -0.9986
50591SOL    HW269384   1.211   6.116  11.433 -1.0227 -0.6095 -1.3046
50592SOL     OW69385  13.779   2.321  10.725  0.0993  0.4299 -0.1428
50592SOL    HW169386  13.849   2.383  10.701  0.8288  0.8717  2.6632
50592SOL    HW269387  13.826   2.245  10.760 -0.8140 -0.1430 -0.1426
50593SOL     OW69388   8.084  13.247   4.881 -0.3281 -0.6808  0.5720
50593SOL    HW169389   8.061  13.213   4.795  0.0582 -1.1014  0.6304
50593SOL    HW269390   8.162  13.300   4.866 -0.6899 -0.1502  0.5469
50594SOL     OW69391  10.338   0.784   1.261  0.3766  0.1596  0.1294
50594SOL    HW169392  10.246   0.809   1.250 -0.1302 -0.4130  2.5426
50594SOL    HW269393  10.388   0.858   1.227 -0.9471  0.5567 -1.0385
50595SOL     OW69394   2.570   5.209   1.247  0.1934 -0.9165 -0.0277
50595SOL    HW169395   2.610   5.293   1.224 -2.8011  0.9581  1.0422
50595SOL    HW269396   2.638   5.163   1.296  1.9769  0.8129 -0.7424
50596SOL     OW69397   2.982   6.629   3.750 -0.7283 -0.1243  0.0138
50596SOL    HW169398   3.006   6.710   3.794 -0.8736  0.0959 -0.3112
50596SOL    HW269399   2.886   6.628   3.751 -0.7353 -1.0399  1.3856
50597SOL     OW69400  11.032   4.027   7.968 -0.0069  0.0103  0.0042
50597SOL    HW169401  11.099   4.079   7.923 -0.4882  2.2819  1.7712
50597SOL    HW269402  10.949   4.058   7.932 -0.2570 -0.6925 -0.0418
50598SOL     OW69403   1.797  11.315   7.433 -0.1864  0.1539  0.2427
50598SOL    HW169404   1.756  11.387   7.480 -0.3310  0.4626 -0.3440
50598SOL    HW269405   1.826  11.255   7.501 -0.4125  0.5806  0.7202
50599SOL     OW69406   8.410   7.010   4.412 -0.1756  0.0251  0.7030
50599SOL    HW169407   8.426   6.972   4.498  0.8188  2.5779  1.7627
50599SOL    HW269408   8.317   7.034   4.414 -0.5824 -1.4235  0.3644
50600SOL     OW69409   6.603   2.962   1.611 -0.5470 -0.3524 -0.4996
50600SOL    HW169410   6.527   2.904   1.613 -1.4185  0.7606  0.5954
50600SOL    HW269411   6.574   3.042   1.655  1.4277 -0.1036  0.4952
50601SOL     OW69412   1.110   9.480   3.795 -0.4823  0.4471  0.0170
50601SOL    HW169413   1.204   9.494   3.803 -0.2907 -0.6705 -0.0945
50601SOL    HW269414   1.075   9.496   3.882  0.0569 -0.7736  0.4875
50602SOL     OW69415   8.574  13.674   8.620 -0.2307 -0.0711  0.2393
50602SOL    HW169416   8.525  13.613   8.564  1.3217 -2.8188  1.6228
50602SOL    HW269417   8.543  13.656   8.709 -0.1762  1.6781  0.6478
50603SOL     OW69418   9.981   9.915  11.438 -0.3693 -0.4146 -0.3451
50603SOL    HW169419   9.903   9.863  11.455 -0.0629 -1.3019 -1.5641
50603SOL    HW269420  10.041   9.894  11.510 -0.8886 -0.4402  0.0840
50604SOL     OW69421   4.133   9.076   7.470  0.2601 -0.1713  0.4222
50604SOL    HW169422   4.147   9.089   7.564 -3.1171 -1.4675  1.2195
50604SOL    HW269423   4.115   9.163   7.436 -1.5533 -0.0077  1.6519
50605SOL     OW69424   2.598  12.597   4.309  0.4085 -0.0232  0.2983
50605SOL    HW169425   2.651  12.651   4.367  0.5453 -0.5643  0.6826
50605SOL    HW269426   2.585  12.516   4.357 -0.7656  0.0913  0.2094
50606SOL     OW69427   6.913  10.382  12.718  0.5212 -0.6414 -0.1249
50606SOL    HW169428   6.878  10.460  12.762  0.7841 -0.3216 -0.4770
50606SOL    HW269429   6.835  10.338  12.684  0.4593  0.1520 -1.0445
50607SOL     OW69430   9.242   5.418  11.433 -0.4127  0.4612  0.3151
50607SOL    HW169431   9.163   5.453  11.392  0.2128  0.1164 -1.2425
50607SOL    HW269432   9.306   5.412  11.362  0.5183 -0.7654  1.2043
50608SOL     OW69433   4.811   5.093  10.909  0.8958  0.2698  0.2121
50608SOL    HW169434   4.798   5.023  10.972 -1.0951 -0.0015 -0.4034
50608SOL    HW269435   4.773   5.170  10.951  2.1120  0.7458  0.4584
50609SOL     OW69436   2.404  12.023   0.003 -0.2160  0.1025  0.2724
50609SOL    HW169437   2.467  12.073  -0.049  0.0369 -1.2318 -0.7699
50609SOL    HW269438   2.340  11.991  -0.061 -0.3222 -0.9506  0.8829
50610SOL     OW69439   3.710  12.195   0.328 -0.2654  0.2618 -0.2151
50610SOL    HW169440   3.778  12.261   0.317 -1.5226  2.2276  2.5834
50610SOL    HW269441   3.723  12.160   0.416 -2.5816  0.4539  0.2829
50611SOL     OW69442   8.780  13.126  12.478  0.2739 -0.1906 -0.8482
50611SOL    HW169443   8.841  13.067  12.436  1.5185 -0.7409  1.5414
50611SOL    HW269444   8.736  13.073  12.544  0.6886  1.2550  0.6703
50612SOL     OW69445   1.745   9.427   0.637  0.3279  0.2656  0.7194
50612SOL    HW169446   1.741   9.503   0.579  2.2273  1.3891  1.9450
50612SOL    HW269447   1.661   9.426   0.682 -0.0890  1.0392 -0.0205
50613SOL     OW69448   8.974   2.352   2.503 -0.7070  0.0672  0.2685
50613SOL    HW169449   8.931   2.434   2.527  2.4554  1.7714  0.7036
50613SOL    HW269450   9.016   2.371   2.419  0.7372 -0.8174  0.7540
50614SOL     OW69451   7.445   6.024   3.488  0.2038 -0.3625  0.3384
50614SOL    HW169452   7.404   5.962   3.427  0.1375 -2.3641  2.2835
50614SOL    HW269453   7.376   6.085   3.511 -0.2007 -0.5249 -0.3996
50615SOL     OW69454   7.961  10.006   0.321  0.0557 -0.3386  0.3024
50615SOL    HW169455   8.038  10.056   0.295 -1.1169  1.6574  0.3950
50615SOL    HW269456   7.942  10.037   0.410 -0.7639 -0.8870  0.3308
50616SOL     OW69457   9.033   2.013   7.035  0.3913  0.3693 -0.6740
50616SOL    HW169458   9.118   1.998   6.994  0.3500  2.4284 -1.6498
50616SOL    HW269459   8.970   1.995   6.965  0.0108 -0.7816 -0.0646
50617SOL     OW69460  11.572   2.488  13.827  0.2378 -0.3650 -0.0793
50617SOL    HW169461  11.520   2.566  13.846  0.3394 -0.5850  1.2624
50617SOL    HW269462  11.508   2.422  13.801 -0.2147 -0.6532  1.6219
50618SOL     OW69463   0.949   3.854  11.198 -0.5371  0.1103 -0.1427
50618SOL    HW169464   0.967   3.917  11.268 -1.1554  0.7801 -0.5761
50618SOL    HW269465   0.853   3.851  11.192 -0.5386 -1.1881  0.1498
50619SOL     OW69466  10.366   2.979   4.617 -0.0090  0.1427 -0.2125
50619SOL    HW169467  10.416   3.059   4.605 -0.0020  0.0973 -0.4856
50619SOL    HW269468  10.374   2.932   4.534 -0.1914 -0.0414 -0.1288
50620SOL     OW69469   4.567  13.252  13.790  0.1122  0.0100 -0.4247
50620SOL    HW169470   4.626  13.189  13.830  1.0531  1.0623 -0.0900
50620SOL    HW269471   4.619  13.332  13.781 -0.5449  0.2785 -2.3162
50621SOL     OW69472   0.484  10.392   8.890  0.2403  0.0841 -0.1842
50621SOL    HW169473   0.410  10.412   8.947  0.5799 -0.4575  0.4546
50621SOL    HW269474   0.522  10.312   8.926  0.9885  0.2157 -0.6447
50622SOL     OW69475   7.226   8.151   9.555  0.3345  0.3603  0.2732
50622SOL    HW169476   7.163   8.123   9.622  1.8471  1.7483  2.3849
50622SOL    HW269477   7.282   8.215   9.599  1.3189  1.4916 -2.3970
50623SOL     OW69478   1.462  10.535   4.962  0.1819  0.0952  0.4268
50623SOL    HW169479   1.521  10.515   4.889 -0.1592  0.5874  0.0068
50623SOL    HW269480   1.388  10.580   4.921 -1.8588 -2.8988  0.4718
50624SOL     OW69481  13.164   2.496   8.599 -0.3751  0.4533  0.2254
50624SOL    HW169482  13.256   2.471   8.608 -0.5093 -0.1230 -0.0051
50624SOL    HW269483  13.150   2.503   8.504 -0.6526  0.2325  0.2500
50625SOL     OW69484   2.612  10.836   4.061 -0.4787 -0.4931  0.3083
50625SOL    HW169485   2.527  10.856   4.101 -0.9073 -2.1568  0.2912
50625SOL    HW269486   2.668  10.815   4.136 -1.0982 -2.9429  0.1578
50626SOL     OW69487   8.840   7.840   0.685 -0.8259  0.2849  0.4686
50626SOL    HW169488   8.884   7.805   0.763  1.5278 -0.3888 -1.0745
50626SOL    HW269489   8.889   7.919   0.663 -1.9979  0.9371  0.1204
50627SOL     OW69490   2.794  11.003   3.789 -0.2015 -0.2156  0.1809
50627SOL    HW169491   2.817  11.094   3.774  1.2577 -0.5839  0.0563
50627SOL    HW269492   2.699  11.004   3.805 -0.3229  1.2105 -0.5509
50628SOL     OW69493   0.164   4.385  12.074  0.0697 -0.3668 -0.1757
50628SOL    HW169494   0.225   4.314  12.093 -0.8691 -1.4733 -1.1782
50628SOL    HW269495   0.087   4.342  12.037 -0.2559  1.2214 -1.4770
50629SOL     OW69496   0.820   3.075   7.085 -0.9251  0.3587  0.4368
50629SOL    HW169497   0.887   3.011   7.106 -0.1315  1.2326  0.6686
50629SOL    HW269498   0.804   3.064   6.992  0.7790  1.2431 -0.0029
50630SOL     OW69499   0.342   7.797   5.226  0.8365 -0.2435 -0.5090
50630SOL    HW169500   0.434   7.775   5.243  0.5548 -0.2666  1.1209
50630SOL    HW269501   0.294   7.759   5.300 -0.2034  1.9002  0.0045
50631SOL     OW69502   1.498   9.973   8.081 -0.5233  0.7196  0.6138
50631SOL    HW169503   1.551   9.937   8.152  1.0139  0.5789 -0.5537
50631SOL    HW269504   1.456   9.897   8.041  1.4589  0.3013 -0.8397
50632SOL     OW69505   7.153  10.176  13.602  0.1130 -0.0699  0.1836
50632SOL    HW169506   7.179  10.246  13.662  1.1362  0.4078 -0.7847
50632SOL    HW269507   7.212  10.184  13.527 -2.4019  0.6720 -1.8898
50633SOL     OW69508  12.200   3.063   2.201  0.3285  0.0513  0.1449
50633SOL    HW169509  12.189   2.999   2.131  1.7715  0.6662 -0.7066
50633SOL    HW269510  12.118   3.062   2.248 -0.6083 -0.5804 -1.4185
50634SOL     OW69511   1.485   4.689   4.640 -0.0745 -0.2886 -0.5343
50634SOL    HW169512   1.551   4.723   4.700 -0.6252 -1.3663  0.7156
50634SOL    HW269513   1.422   4.761   4.631 -0.3018 -0.3159  0.6745
50635SOL     OW69514  12.055  10.694   3.495  0.2802 -0.3248 -0.0831
50635SOL    HW169515  12.032  10.742   3.576  0.2156 -1.3512  0.5202
50635SOL    HW269516  11.976  10.700   3.441  0.2461  0.1807  0.0150
50636SOL     OW69517  12.073   6.502  11.504 -0.0215  0.6328 -0.2297
50636SOL    HW169518  12.068   6.571  11.571  1.1735  0.6639 -0.1526
50636SOL    HW269519  12.127   6.434  11.544  1.7738  1.1950 -1.6082
50637SOL     OW69520  12.316   1.247  10.191 -0.4950 -0.0244  0.5122
50637SOL    HW169521  12.282   1.332  10.219  1.7234  0.9021  0.6108
50637SOL    HW269522  12.302   1.190  10.267  1.1705  1.2190  1.8401
50638SOL     OW69523  11.526  10.708   8.491 -0.0601  0.3841 -0.0021
50638SOL    HW169524  11.523  10.804   8.500 -0.0159  0.1865  2.9613
50638SOL    HW269525  11.436  10.684   8.467  0.0753  1.1647 -1.4278
50639SOL     OW69526  13.464  10.733  12.587 -0.2303 -0.0992 -0.5409
50639SOL    HW169527  13.515  10.654  12.569  2.3360  1.0397  1.0991
50639SOL    HW269528  13.445  10.728  12.681  0.2711  1.3396 -0.3357
50640SOL     OW69529   3.730  12.552  10.917  0.2166 -0.2644  0.2000
50640SOL    HW169530   3.755  12.508  10.836 -1.2754 -0.0355 -0.4225
50640SOL    HW269531   3.710  12.642  10.891 -0.6311 -0.2805  0.7345
50641SOL     OW69532   6.278  13.952   9.268 -0.1574  0.1588  0.6897
50641SOL    HW169533   6.251  13.950   9.360  0.0253 -0.9426  0.7346
50641SOL    HW269534   6.315  14.039   9.256 -1.7146  0.9365  1.2048
50642SOL     OW69535   1.168   9.946  12.436 -0.1701 -0.6014  0.5268
50642SOL    HW169536   1.183   9.851  12.438 -0.2886 -0.6480 -0.4417
50642SOL    HW269537   1.169   9.972  12.528  1.0417 -1.3595  0.7529
50643SOL     OW69538   6.534   0.883  11.642  0.5152 -0.2444  0.2823
50643SOL    HW169539   6.589   0.809  11.670  0.6052 -1.1781 -2.0894
50643SOL    HW269540   6.445   0.848  11.641  0.2121  0.4351  1.4204
50644SOL     OW69541   5.400   8.876   2.571  0.1780 -0.3739 -0.4350
50644SOL    HW169542   5.357   8.809   2.518 -1.0978  0.7189 -0.8479
50644SOL    HW269543   5.409   8.950   2.511  1.6350 -0.1836 -0.0127
50645SOL     OW69544   7.039  12.713   4.063  0.3131  0.1458 -0.1439
50645SOL    HW169545   7.029  12.705   4.158 -2.3713  3.0988 -0.0136
50645SOL    HW269546   6.962  12.669   4.027  1.9564 -2.1188 -1.1633
50646SOL     OW69547   9.636   1.868   4.056  0.1534 -0.0784 -0.0359
50646SOL    HW169548   9.644   1.804   3.985 -1.8794 -0.1627 -0.2355
50646SOL    HW269549   9.598   1.819   4.129 -1.1945  0.7883 -0.1089
50647SOL     OW69550  12.173   8.495   2.878  0.1860 -0.4775  0.0097
50647SOL    HW169551  12.092   8.523   2.920  0.2971  0.3725 -0.3310
50647SOL    HW269552  12.242   8.520   2.939  0.2850  0.0053 -0.2947
50648SOL     OW69553   7.179   5.909   4.928 -0.0229  0.4202  0.3103
50648SOL    HW169554   7.159   5.816   4.939 -0.9898  0.7466  1.4931
50648SOL    HW269555   7.190   5.942   5.017 -2.4773  2.0015  0.1226
50649SOL     OW69556   8.191   1.782   6.842  0.3675 -0.5167  0.0443
50649SOL    HW169557   8.170   1.811   6.753  1.4280 -1.0434 -0.4018
50649SOL    HW269558   8.236   1.698   6.830 -0.3034 -1.0539  1.1479
50650SOL     OW69559   1.117   6.076  11.590  0.0260  0.1614 -0.4903
50650SOL    HW169560   1.027   6.102  11.568 -0.8813 -3.0200 -1.0351
50650SOL    HW269561   1.151   6.149  11.642 -3.0336  1.2844  0.1535
50651SOL     OW69562   2.005  12.981   6.718  0.1594  0.3497 -0.0670
50651SOL    HW169563   1.976  13.063   6.759 -0.5415 -1.6346  3.9120
50651SOL    HW269564   1.924  12.937   6.694  0.3700 -0.3298  0.4367
50652SOL     OW69565   0.066   8.982   9.642 -0.1887  0.7352  0.2091
50652SOL    HW169566   0.054   9.034   9.722  0.9102  3.0505 -1.0347
50652SOL    HW269567  -0.011   9.001   9.589 -0.9288 -0.8212  0.6741
50653SOL     OW69568   1.731   1.158   4.893  0.3402 -0.1627 -0.4297
50653SOL    HW169569   1.811   1.105   4.894 -0.5289 -1.5497  1.3418
50653SOL    HW269570   1.660   1.094   4.899 -0.9586  1.0167 -2.4006
50654SOL     OW69571   0.343   5.289   6.535  0.8611 -0.2244 -0.0011
50654SOL    HW169572   0.261   5.244   6.513  1.5656 -1.0843 -0.9411
50654SOL    HW269573   0.320   5.382   6.536  0.3580 -0.2308 -2.6957
50655SOL     OW69574   5.483   1.765  12.159  0.4448  0.6496  0.1133
50655SOL    HW169575   5.405   1.808  12.125  1.3590  1.1837 -1.3664
50655SOL    HW269576   5.450   1.703  12.224 -1.1187  1.5431  0.2124
50656SOL     OW69577   0.414   1.492   4.220 -0.2895  0.2795 -0.2314
50656SOL    HW169578   0.325   1.527   4.222 -0.0272  0.9011  1.2515
50656SOL    HW269579   0.418   1.429   4.292  0.4557  0.2139 -0.3161
50657SOL     OW69580   0.381  13.411   9.864 -0.3898 -0.0730  0.2278
50657SOL    HW169581   0.298  13.370   9.887 -1.0919  1.3146  0.2922
50657SOL    HW269582   0.358  13.480   9.802  0.7318  0.2498  0.1363
50658SOL     OW69583  11.633  12.248  12.794  0.3252 -0.0563 -0.5474
50658SOL    HW169584  11.558  12.189  12.803 -0.9303  1.6506  1.1944
50658SOL    HW269585  11.707  12.199  12.832 -0.0687 -1.4205 -1.4679
50659SOL     OW69586   6.864  11.611   4.292 -0.0070  0.1791  0.1467
50659SOL    HW169587   6.807  11.538   4.267  0.6327 -0.5817  0.8621
50659SOL    HW269588   6.912  11.633   4.212 -0.3989  0.0072 -0.1382
50660SOL     OW69589   0.033   1.544   6.581 -0.1196 -0.0860  0.1486
50660SOL    HW169590  -0.045   1.587   6.545 -1.4538 -1.5392  1.1401
50660SOL    HW269591   0.026   1.453   6.551  2.7021  0.2717 -2.0280
50661SOL     OW69592   5.222   5.004   4.520 -0.4223 -0.7214 -0.2424
50661SOL    HW169593   5.281   5.076   4.501 -1.4825  0.2476  0.0149
50661SOL    HW269594   5.240   4.981   4.611 -1.2765  0.4174  0.2403
50662SOL     OW69595  11.311  10.446   8.645  0.3572 -0.3374  0.3862
50662SOL    HW169596  11.299  10.499   8.566  1.9021 -1.3587 -0.5860
50662SOL    HW269597  11.271  10.498   8.715 -0.4044  0.9266 -0.9385
50663SOL     OW69598  11.591  12.811  12.537  0.4582 -0.5592  0.2691
50663SOL    HW169599  11.635  12.749  12.595  0.6893 -0.0643  0.6349
50663SOL    HW269600  11.626  12.791  12.450  0.1468 -1.2700  0.3001
50664SOL     OW69601   6.970   2.201   5.200 -0.5319 -0.5347  0.2088
50664SOL    HW169602   7.006   2.211   5.112  1.3627 -1.4158  0.8354
50664SOL    HW269603   6.916   2.279   5.213  0.9014  0.7137 -0.9312
50665SOL     OW69604  13.250   5.594   7.277  0.5065  0.2665  0.0493
50665SOL    HW169605  13.287   5.637   7.354  0.2811 -0.1811  0.4155
50665SOL    HW269606  13.239   5.664   7.213  1.5641  0.4790  0.0877
50666SOL     OW69607   6.279   4.128   5.235  0.2800  0.1993  0.7869
50666SOL    HW169608   6.236   4.191   5.176  0.6804  0.5601  0.8784
50666SOL    HW269609   6.215   4.114   5.305 -1.9373 -3.2195 -1.5977
50667SOL     OW69610  11.835   3.246   3.684 -0.3450 -0.2348  0.6122
50667SOL    HW169611  11.803   3.335   3.666 -1.7537 -0.8110  0.1057
50667SOL    HW269612  11.763   3.205   3.732 -0.9045 -1.9564 -1.5371
50668SOL     OW69613   9.418   0.279   7.155  0.1302 -0.4355 -0.6049
50668SOL    HW169614   9.404   0.197   7.108  2.0987 -0.8730 -0.4893
50668SOL    HW269615   9.409   0.347   7.088  0.4013 -0.8804 -1.0982
50669SOL     OW69616  11.590   3.164   4.439 -0.4144 -0.1280  0.2102
50669SOL    HW169617  11.595   3.238   4.379 -0.3239  0.3220  0.7647
50669SOL    HW269618  11.505   3.173   4.483 -0.6421 -0.6625 -0.1100
50670SOL     OW69619   1.567  13.513   5.591 -0.3703  0.3655 -0.1318
50670SOL    HW169620   1.486  13.543   5.550 -1.2959 -0.2425  1.1737
50670SOL    HW269621   1.563  13.417   5.584  0.3499  0.3396 -0.2673
50671SOL     OW69622   8.206   2.917   4.341 -0.0353 -0.0690  0.2392
50671SOL    HW169623   8.178   2.992   4.288 -1.8035  0.3318  1.6359
50671SOL    HW269624   8.125   2.868   4.357  0.4187 -0.1779  2.5138
50672SOL     OW69625   9.905  10.556   7.645 -0.3339 -0.0977 -0.5724
50672SOL    HW169626   9.861  10.493   7.588 -0.1344  0.4942 -1.3868
50672SOL    HW269627   9.891  10.641   7.604  0.0142  0.3145  0.1310
50673SOL     OW69628   4.335   0.320  10.618 -0.0238  0.4043 -0.3502
50673SOL    HW169629   4.245   0.288  10.609 -0.2992  1.4649 -1.5879
50673SOL    HW269630   4.388   0.256  10.570 -0.0888 -0.2484  0.4217
50674SOL     OW69631   8.815   3.563   6.428 -0.5407 -0.2468  0.6532
50674SOL    HW169632   8.759   3.516   6.366  0.4487  0.2885 -0.7113
50674SOL    HW269633   8.773   3.551   6.513 -1.3502 -1.9482  0.0578
50675SOL     OW69634   5.799  10.076  13.139 -0.3709  0.2495  0.2480
50675SOL    HW169635   5.845   9.999  13.175  1.3547  0.6874 -0.8828
50675SOL    HW269636   5.868  10.127  13.097 -1.9237  0.9481 -1.5918
50676SOL     OW69637  11.013   5.241   6.507 -0.1370 -0.0954  0.0214
50676SOL    HW169638  10.988   5.214   6.596  0.0640 -3.3530 -0.8038
50676SOL    HW269639  11.100   5.203   6.494 -0.3060  0.0496 -1.6942
50677SOL     OW69640  14.037  10.267   4.316 -0.3954 -0.3615  0.1895
50677SOL    HW169641  13.958  10.214   4.325  0.2688 -1.1644  1.7497
50677SOL    HW269642  14.078  10.236   4.235 -1.0914 -0.7300 -0.0253
50678SOL     OW69643  13.379   2.296   1.074 -0.3158 -0.0466 -0.0423
50678SOL    HW169644  13.475   2.297   1.069 -0.1600 -1.3494  1.6216
50678SOL    HW269645  13.361   2.285   1.168 -2.1046  0.2787 -0.3229
50679SOL     OW69646  12.193   8.263  12.598  0.1933 -0.0621 -0.4025
50679SOL    HW169647  12.249   8.215  12.538 -0.6775  0.5374 -1.7366
50679SOL    HW269648  12.226   8.240  12.685  0.2159 -2.5386 -0.9864
50680SOL     OW69649   6.485   9.705   0.781 -0.6441 -0.0777 -0.2601
50680SOL    HW169650   6.400   9.690   0.823 -1.0160 -0.5682 -1.1532
50680SOL    HW269651   6.507   9.796   0.802 -1.3547  0.0245  0.0548
50681SOL     OW69652   8.258  13.877   4.706 -0.0463 -0.0861  0.0678
50681SOL    HW169653   8.229  13.796   4.747 -0.8174  0.7085  1.1511
50681SOL    HW269654   8.285  13.851   4.617  2.2694 -1.9712  1.1979
50682SOL     OW69655   1.297   4.343   8.357  0.0422  0.0625 -0.3075
50682SOL    HW169656   1.266   4.256   8.381 -0.7733  0.8182  1.6071
50682SOL    HW269657   1.346   4.373   8.433 -2.4440  2.5105  0.5263
50683SOL     OW69658  12.476  11.474   5.829 -0.4728  0.5933  0.1082
50683SOL    HW169659  12.529  11.550   5.855  1.0273 -0.7119  1.0263
50683SOL    HW269660  12.516  11.400   5.875 -1.8884 -0.7689 -0.7687
50684SOL     OW69661   3.391   4.662  13.269 -0.4124 -0.3860  0.3960
50684SOL    HW169662   3.441   4.583  13.285 -1.0508 -0.8214  0.2912
50684SOL    HW269663   3.384   4.667  13.173  1.1457  0.7760  0.3033
50685SOL     OW69664   4.816  13.407   5.844 -0.4649  0.1688  0.2271
50685SOL    HW169665   4.866  13.369   5.916 -0.9503 -0.2716  0.3410
50685SOL    HW269666   4.751  13.340   5.823  1.3839 -0.9346 -2.4946
50686SOL     OW69667  11.738   9.707  11.029 -0.2467 -0.0068 -0.0903
50686SOL    HW169668  11.724   9.793  11.068  3.9815  0.3084  1.2314
50686SOL    HW269669  11.670   9.700  10.962 -1.3212  3.9209  0.3222
50687SOL     OW69670   5.427   9.761   2.078  0.0987  0.4455  0.0266
50687SOL    HW169671   5.428   9.857   2.085  0.0271  0.4289  0.2772
50687SOL    HW269672   5.427   9.731   2.168 -0.3220  0.2119 -0.0482
50688SOL     OW69673   0.951  13.819  11.175  0.1009  0.0017  0.1279
50688SOL    HW169674   0.974  13.780  11.260  0.5714 -0.4393 -0.1980
50688SOL    HW269675   1.030  13.867  11.148 -0.1252  0.3315  0.0429
50689SOL     OW69676  13.357   9.116   3.723  0.1968 -0.2161  0.9296
50689SOL    HW169677  13.281   9.150   3.769  0.8441 -0.5246  2.3120
50689SOL    HW269678  13.360   9.164   3.640 -2.3129 -1.2385  0.1575
50690SOL     OW69679   4.680   3.437   4.188 -0.1021 -0.5103 -0.3504
50690SOL    HW169680   4.737   3.440   4.110 -0.7382 -0.9787 -0.8438
50690SOL    HW269681   4.741   3.431   4.261  0.5023 -1.7134 -0.9149
50691SOL     OW69682   5.234   0.767   4.366 -0.0159  0.6216 -0.3931
50691SOL    HW169683   5.276   0.751   4.282  2.2122  1.1350  0.5541
50691SOL    HW269684   5.225   0.680   4.405  0.2622  0.5037 -0.5838
50692SOL     OW69685   1.442   1.390   0.635 -0.2636 -0.0460 -0.1322
50692SOL    HW169686   1.410   1.456   0.574  0.5885 -0.7752 -1.4075
50692SOL    HW269687   1.405   1.416   0.719  0.2261  2.2007 -0.5335
50693SOL     OW69688   0.214   8.669   0.155  0.0207 -0.3406  0.7507
50693SOL    HW169689   0.147   8.633   0.096  0.0461 -0.8695  1.0378
50693SOL    HW269690   0.168   8.683   0.237  0.1976 -0.4522  0.8688
50694SOL     OW69691   1.133   3.084   6.358 -0.4267  0.8626 -0.8256
50694SOL    HW169692   1.092   3.066   6.443 -0.1886  0.2405 -0.8395
50694SOL    HW269693   1.148   3.179   6.359 -1.5789  1.0572 -0.6928
50695SOL     OW69694   9.875   3.576  11.202 -0.1994  0.0335  0.2739
50695SOL    HW169695   9.867   3.663  11.241 -2.4862 -0.3218  0.7502
50695SOL    HW269696   9.878   3.517  11.277 -3.2482 -0.5552  0.0771
50696SOL     OW69697   1.385  11.824   6.120  0.3092 -0.1970  0.3133
50696SOL    HW169698   1.441  11.854   6.192  2.3775 -1.7951 -0.5135
50696SOL    HW269699   1.315  11.889   6.115  1.7129  1.5523  1.8628
50697SOL     OW69700   9.433   2.222   3.207  0.3061 -0.4020 -0.0898
50697SOL    HW169701   9.379   2.145   3.225  0.4164 -0.2118  1.1108
50697SOL    HW269702   9.510   2.188   3.161 -0.4628 -0.7641 -1.1567
50698SOL     OW69703   7.955   8.486   0.176  0.6310  0.4011  0.3212
50698SOL    HW169704   7.969   8.500   0.082 -1.3629 -0.5086 -0.1624
50698SOL    HW269705   7.922   8.570   0.208 -2.6921 -0.3757 -0.7179
50699SOL     OW69706  12.023   6.780   3.844 -0.1741 -0.2031  0.3501
50699SOL    HW169707  12.084   6.738   3.783  1.2502  1.3824  0.6178
50699SOL    HW269708  11.940   6.781   3.797  1.1306  2.0726 -2.2023
50700SOL     OW69709  13.251  13.042  12.569  1.1074  0.0705  0.1771
50700SOL    HW169710  13.331  13.005  12.532 -0.2677 -3.3122  0.1913
50700SOL    HW269711  13.270  13.051  12.663  1.3203 -1.3233  0.2871
50701SOL     OW69712   2.199   8.736   7.729  0.1321 -0.6369  0.6289
50701SOL    HW169713   2.141   8.659   7.732  0.1342 -0.6338  0.7782
50701SOL    HW269714   2.247   8.732   7.811  0.3943 -0.6790  0.4751
50702SOL     OW69715   3.845   2.362   3.042  0.3608  0.1379 -0.0961
50702SOL    HW169716   3.868   2.286   2.989  1.2226 -0.3680  0.9727
50702SOL    HW269717   3.848   2.331   3.132 -0.8121  1.0549  0.2922
50703SOL     OW69718   7.097  10.996   5.163  0.0260  0.0999  0.0673
50703SOL    HW169719   7.026  11.058   5.150  0.4572  0.4953 -0.4298
50703SOL    HW269720   7.123  11.008   5.254  1.2736  1.9235 -0.4665
50704SOL     OW69721   0.960  11.857  13.717  0.6534 -0.2543  0.5438
50704SOL    HW169722   0.871  11.830  13.741  0.4649  1.6587  2.4355
50704SOL    HW269723   0.977  11.815  13.633 -2.7905  0.8154 -0.8706
50705SOL     OW69724   0.122   0.988   6.330 -0.3217  0.0006  0.4934
50705SOL    HW169725   0.167   0.911   6.364  0.3600  0.2826  0.2540
50705SOL    HW269726   0.056   1.009   6.396 -1.2751 -1.4385  0.0480
50706SOL     OW69727   7.627   4.884  13.398 -0.7730 -0.7587  0.2897
50706SOL    HW169728   7.697   4.829  13.435  0.8549  0.3393 -1.0270
50706SOL    HW269729   7.598   4.938  13.472  1.9429  0.9274  0.2284
50707SOL     OW69730  12.037  13.079   8.728  0.3803 -0.2382 -0.5132
50707SOL    HW169731  12.001  13.080   8.639 -1.6208 -0.4038  0.2504
50707SOL    HW269732  12.109  13.015   8.723 -1.8942 -2.9742 -1.2637
50708SOL     OW69733   0.900   7.269   4.871  0.1016 -0.3995 -0.7936
50708SOL    HW169734   0.878   7.226   4.788  0.2247 -0.8594 -0.5917
50708SOL    HW269735   0.818   7.268   4.921 -0.2201  0.7420 -1.2811
50709SOL     OW69736   2.782   4.128  11.214 -0.6883  0.0083 -0.1211
50709SOL    HW169737   2.708   4.189  11.211  0.1926  1.1226 -0.1539
50709SOL    HW269738   2.786   4.100  11.305 -0.6684  0.5839  0.0618
50710SOL     OW69739  11.663   9.576   9.395  0.0973 -0.7530 -0.3394
50710SOL    HW169740  11.637   9.605   9.308 -1.3936 -2.5613 -0.5525
50710SOL    HW269741  11.751   9.539   9.383  0.1765 -0.3867 -0.9279
50711SOL     OW69742  11.529  10.583   0.978 -0.0926 -0.3547  0.1423
50711SOL    HW169743  11.446  10.629   0.993 -0.3481 -0.8747  0.3517
50711SOL    HW269744  11.555  10.608   0.890  0.4600  1.2566  0.7261
50712SOL     OW69745  10.855  12.616   2.915 -0.6880  0.3736  0.1182
50712SOL    HW169746  10.900  12.608   2.999 -0.1548 -0.7922 -0.2575
50712SOL    HW269747  10.907  12.678   2.865  1.9217 -2.5546 -1.1315
50713SOL     OW69748   0.600  11.256   6.160 -0.5194 -0.4967 -0.2571
50713SOL    HW169749   0.682  11.237   6.115 -0.6916 -1.4584 -0.1880
50713SOL    HW269750   0.611  11.218   6.248 -0.1596  1.4211  0.5732
50714SOL     OW69751   4.714   3.357   5.398 -0.2482 -0.1759  0.1842
50714SOL    HW169752   4.662   3.294   5.447 -0.9773 -0.0077 -0.3529
50714SOL    HW269753   4.662   3.437   5.399  0.3818  0.2355  0.3348
50715SOL     OW69754   1.684   7.407   4.898  0.0024 -0.0209 -0.3667
50715SOL    HW169755   1.762   7.388   4.950 -0.1299 -0.2712 -0.2575
50715SOL    HW269756   1.628   7.458   4.956 -0.4443 -0.8888 -0.0198
50716SOL     OW69757   5.591   5.750   6.136  0.3910 -0.2565 -0.4859
50716SOL    HW169758   5.546   5.680   6.089 -1.1320  1.7532 -2.2225
50716SOL    HW269759   5.550   5.751   6.223 -0.7461 -0.4848 -0.9968
50717SOL     OW69760   1.281  10.403  13.942 -0.8797 -0.2478  0.5740
50717SOL    HW169761   1.257  10.494  13.955 -0.6463 -0.2928  1.3479
50717SOL    HW269762   1.285  10.392  13.847 -0.6178  0.6165  0.4850
50718SOL     OW69763   2.453   4.092   3.832 -0.2569  0.4858 -0.2100
50718SOL    HW169764   2.395   4.072   3.759 -0.8451  1.7347 -0.1166
50718SOL    HW269765   2.537   4.055   3.807 -0.9111 -0.7166 -0.6746
50719SOL     OW69766   2.329   5.696  13.207  0.2220  0.2967 -0.5606
50719SOL    HW169767   2.419   5.682  13.237  0.6927  0.7451 -1.7060
50719SOL    HW269768   2.294   5.607  13.196  0.9063  0.0950 -1.2065
50720SOL     OW69769   2.485  10.740   0.716  0.9088  0.0383 -0.4113
50720SOL    HW169770   2.393  10.766   0.721  0.7068 -0.7708  0.4401
50720SOL    HW269771   2.534  10.816   0.746  0.5031  0.3670 -0.5751
50721SOL     OW69772  10.991  12.223   1.621 -0.7816  0.6296  0.4886
50721SOL    HW169773  10.989  12.190   1.710 -0.2227  1.4673  0.8251
50721SOL    HW269774  11.074  12.191   1.585 -1.4394 -0.5055 -0.0589
50722SOL     OW69775  10.679   2.203   5.842 -0.4083  0.3283 -0.0282
50722SOL    HW169776  10.742   2.196   5.914 -0.8639  2.3621  0.6244
50722SOL    HW269777  10.606   2.253   5.878 -1.5095 -0.2587 -1.3637
50723SOL     OW69778   1.987   1.752  12.323  0.0248 -0.5430 -0.7441
50723SOL    HW169779   2.080   1.772  12.335 -0.1029  0.3241 -1.1192
50723SOL    HW269780   1.986   1.673  12.270  0.5693  0.3472 -2.1424
50724SOL     OW69781   7.995   9.490   2.035  0.2322 -0.0365  0.0400
50724SOL    HW169782   7.963   9.515   2.122 -1.4436 -0.5894 -0.3710
50724SOL    HW269783   8.048   9.412   2.050  2.2642  1.4112  0.8523
50725SOL     OW69784  11.660   5.940  10.048 -0.3993 -0.3729  0.4559
50725SOL    HW169785  11.688   5.949   9.957 -1.5423 -1.3402 -0.0247
50725SOL    HW269786  11.582   5.995  10.055 -0.8967 -1.0747  0.5610
50726SOL     OW69787   5.803   0.301   3.099  0.1801  0.2318  0.3265
50726SOL    HW169788   5.733   0.263   3.046 -0.0461 -1.1418  1.5622
50726SOL    HW269789   5.760   0.330   3.179  0.7580  0.9796  0.3843
50727SOL     OW69790   2.577   2.642   2.916 -0.6588  0.2061 -0.0431
50727SOL    HW169791   2.559   2.577   2.847 -1.1990 -0.0562  0.3424
50727SOL    HW269792   2.645   2.698   2.878  0.4711 -1.1088 -0.0596
50728SOL     OW69793   8.885   6.983  13.745  0.1932 -0.0958  0.0822
50728SOL    HW169794   8.890   7.003  13.651 -0.1858  0.4405  0.1750
50728SOL    HW269795   8.793   6.998  13.768  0.3668  0.1371  0.6238
50729SOL     OW69796   3.893   6.447   0.454 -0.4478  0.6441  0.4638
50729SOL    HW169797   3.827   6.383   0.426  0.4987  0.0678 -0.5584
50729SOL    HW269798   3.851   6.532   0.441 -0.6333  0.3347 -1.2621
50730SOL     OW69799   1.760  11.236  13.535  0.3733 -0.1465 -0.2551
50730SOL    HW169800   1.822  11.301  13.568  0.4561 -0.0233 -0.6603
50730SOL    HW269801   1.724  11.196  13.615 -0.7970  1.4222  0.0748
50731SOL     OW69802   8.991   4.420   5.908  0.0153 -0.0919 -0.7676
50731SOL    HW169803   8.920   4.478   5.880 -0.3427 -0.9557 -1.6829
50731SOL    HW269804   8.950   4.334   5.918  0.8258 -0.4857 -0.7863
50732SOL     OW69805   8.330  12.119   8.840  0.2251 -0.0863  0.1986
50732SOL    HW169806   8.412  12.069   8.841 -1.2831 -2.7824  1.3107
50732SOL    HW269807   8.352  12.202   8.881  2.7408 -0.0011 -1.0933
50733SOL     OW69808  13.294   5.061   9.107  0.0834  0.3814  0.6500
50733SOL    HW169809  13.336   4.978   9.130 -0.2211  0.2351  0.6861
50733SOL    HW269810  13.210   5.059   9.153  0.5300  1.1963  1.5456
50734SOL     OW69811  13.375   1.712   6.701 -0.0793  0.0182  0.3390
50734SOL    HW169812  13.285   1.740   6.714 -0.3599 -1.7345  2.8914
50734SOL    HW269813  13.417   1.728   6.786  1.5802 -0.7444 -0.2967
50735SOL     OW69814   8.125   7.946   2.258  0.0445 -0.1774 -0.5190
50735SOL    HW169815   8.101   7.870   2.310  0.2724  1.8394  2.8415
50735SOL    HW269816   8.044   7.972   2.213 -0.6715 -0.9359  0.3105
50736SOL     OW69817   4.122   5.479   1.274  0.3418 -0.5423  0.2270
50736SOL    HW169818   4.055   5.431   1.225  0.7229 -1.1688  0.3059
50736SOL    HW269819   4.072   5.539   1.330 -0.1296 -0.5470 -0.1744
50737SOL     OW69820   1.961  10.785   0.650 -0.0522 -0.4200 -0.0582
50737SOL    HW169821   2.042  10.738   0.667 -0.0742 -0.4572 -0.0574
50737SOL    HW269822   1.895  10.740   0.703 -0.0497 -0.3168  0.0327
50738SOL     OW69823   4.124  12.360   8.211 -0.3555 -0.2514  0.2575
50738SOL    HW169824   4.208  12.358   8.165 -0.6259 -0.2728 -0.2414
50738SOL    HW269825   4.113  12.452   8.234 -0.4301 -0.1599 -0.1256
50739SOL     OW69826   6.769  12.530   4.035  0.3578  0.4179  0.0154
50739SOL    HW169827   6.814  12.470   3.975 -0.2108 -0.7698  0.7530
50739SOL    HW269828   6.690  12.557   3.987  0.0408 -0.3196  0.1128
50740SOL     OW69829   8.114   1.734  12.195  0.1276  0.4522 -0.3740
50740SOL    HW169830   8.175   1.802  12.165  1.0084 -0.1995 -0.1211
50740SOL    HW269831   8.112   1.671  12.124  0.5973 -0.0603  0.0519
50741SOL     OW69832  11.762   5.480   3.039 -0.1432 -1.0472  0.3272
50741SOL    HW169833  11.723   5.512   3.120 -0.1090 -0.3339  0.0659
50741SOL    HW269834  11.689   5.439   2.991 -0.8582  1.1561 -0.6168
50742SOL     OW69835   7.926  11.769  13.692  0.0188 -0.1386 -0.0678
50742SOL    HW169836   7.883  11.829  13.753  0.1667 -1.8897  1.8951
50742SOL    HW269837   8.018  11.772  13.715  0.0840 -0.7986 -0.1983
50743SOL     OW69838   0.208   4.922  11.869 -0.1651 -0.4193  0.2688
50743SOL    HW169839   0.261   4.920  11.949  0.2500 -0.6925 -0.0037
50743SOL    HW269840   0.149   4.996  11.881  1.7495  1.3325 -0.3187
50744SOL     OW69841   3.538   5.959   6.027 -0.3847  0.2127 -0.7040
50744SOL    HW169842   3.489   5.960   5.945 -1.3542  0.5578 -0.1347
50744SOL    HW269843   3.518   6.043   6.068  0.3170  0.1587 -0.2358
50745SOL     OW69844   3.889   9.916   2.909 -0.2357 -0.1400 -0.0942
50745SOL    HW169845   3.833   9.986   2.942  1.8859  1.3005  0.6319
50745SOL    HW269846   3.838   9.875   2.840 -1.1746  2.8209 -1.2942
50746SOL     OW69847  12.216   8.252   4.325  0.5627  0.3689  0.1605
50746SOL    HW169848  12.138   8.276   4.275 -0.1290 -0.6306  0.7201
50746SOL    HW269849  12.289   8.289   4.276 -0.2959  1.8270 -0.0781
50747SOL     OW69850  11.019   4.660   9.646 -0.1432  0.0919 -0.3163
50747SOL    HW169851  11.074   4.585   9.670  1.0935  0.7640 -0.9326
50747SOL    HW269852  11.032   4.722   9.718  0.3867  0.4890 -0.7473
50748SOL     OW69853   7.811   1.067   7.425 -0.3565  0.6562  0.7175
50748SOL    HW169854   7.765   1.058   7.508 -0.1130  2.6617  1.1105
50748SOL    HW269855   7.765   1.006   7.366 -0.8818 -0.3852  2.1373
50749SOL     OW69856   0.297  10.624  13.466 -0.6385 -0.1657  0.1201
50749SOL    HW169857   0.214  10.670  13.454 -0.6307  0.1292  1.0841
50749SOL    HW269858   0.298  10.600  13.558 -0.9628 -2.7820 -0.4953
50750SOL     OW69859   2.935   5.647   7.810 -0.4130 -0.3915 -0.5899
50750SOL    HW169860   2.895   5.607   7.888  0.2101 -0.6443 -0.3916
50750SOL    HW269861   3.019   5.602   7.801 -1.2241 -1.6485 -2.4612
50751SOL     OW69862   7.990   8.625  12.385  0.1052 -0.6302 -0.7782
50751SOL    HW169863   8.022   8.660  12.302 -0.8076  1.1889 -0.4188
50751SOL    HW269864   7.998   8.698  12.446 -4.3615 -0.0047 -0.6003
50752SOL     OW69865   4.279  11.896   6.233 -0.0450 -0.0785 -0.0097
50752SOL    HW169866   4.231  11.939   6.163  2.0742  0.6989 -1.0699
50752SOL    HW269867   4.304  11.811   6.197  1.1721  0.3804 -0.3103
50753SOL     OW69868   7.894   5.573   4.206  0.3134  0.2234 -0.1646
50753SOL    HW169869   7.832   5.637   4.170  1.7430  0.9588 -1.4568
50753SOL    HW269870   7.973   5.583   4.152  1.0432 -1.7342  0.4535
50754SOL     OW69871   0.600   7.348   2.527  0.0666 -0.3036  0.0028
50754SOL    HW169872   0.512   7.320   2.501 -0.5978  1.0349  0.6962
50754SOL    HW269873   0.648   7.354   2.445 -0.8218  0.0170 -0.5122
50755SOL     OW69874   9.478   1.930   6.656 -0.5010 -0.3554 -0.3823
50755SOL    HW169875   9.468   1.902   6.747 -1.8953  1.3202  0.0360
50755SOL    HW269876   9.444   1.856   6.604 -0.5238 -0.9577  0.4705
50756SOL     OW69877   2.399   8.923  12.975  0.0815 -0.2245  0.4113
50756SOL    HW169878   2.318   8.929  12.924  0.0490  0.6012  0.5588
50756SOL    HW269879   2.370   8.903  13.064 -0.0622  1.4616  0.7683
50757SOL     OW69880  10.092  10.174   4.553  0.4374  0.5877 -0.1952
50757SOL    HW169881  10.005  10.140   4.531  0.0028  0.9901  0.8364
50757SOL    HW269882  10.127  10.206   4.470 -0.8600  1.4361 -0.4487
50758SOL     OW69883   8.368  12.692   7.346  0.7808 -0.1230 -0.7451
50758SOL    HW169884   8.359  12.604   7.309  1.1391 -0.5059  0.0485
50758SOL    HW269885   8.451  12.689   7.394  0.5190  0.4708 -0.2437
50759SOL     OW69886   6.024   1.917   7.450  0.7713 -0.2790  1.0661
50759SOL    HW169887   5.981   1.916   7.364  0.7383  0.0539  1.0800
50759SOL    HW269888   6.112   1.884   7.433  1.2005  1.0214  0.6689
50760SOL     OW69889   1.698   2.813   7.595 -0.1263 -0.2219 -0.0148
50760SOL    HW169890   1.679   2.722   7.574  1.1709 -0.4575 -0.2451
50760SOL    HW269891   1.784   2.811   7.638 -0.3052  0.8407  0.4315
50761SOL     OW69892  11.121   2.741   9.394  0.2275  0.0539 -0.4940
50761SOL    HW169893  11.068   2.740   9.315 -0.1392  0.1047 -0.2548
50761SOL    HW269894  11.163   2.827   9.395 -0.9096  0.6247  0.1040
50762SOL     OW69895   5.539   9.554   8.712 -0.3966 -0.6639 -0.3039
50762SOL    HW169896   5.489   9.595   8.642 -2.3521 -2.2995  0.0296
50762SOL    HW269897   5.505   9.593   8.792  1.5320  0.8871 -0.1760
50763SOL     OW69898   9.832  12.011   0.777 -0.1022  0.0123 -0.2343
50763SOL    HW169899   9.856  12.021   0.685 -0.2873 -0.1228 -0.2974
50763SOL    HW269900   9.813  12.100   0.807  0.0646  0.0701 -0.2952
50764SOL     OW69901   7.815  13.905   7.368 -0.1166 -0.2041  0.5803
50764SOL    HW169902   7.852  13.983   7.408  1.1401 -0.4011 -0.1326
50764SOL    HW269903   7.856  13.832   7.415  1.2724 -0.4346 -0.9076
50765SOL     OW69904   1.067  12.988   8.155 -0.4128 -0.0873  0.0713
50765SOL    HW169905   1.049  12.931   8.230 -0.2873 -1.1160 -0.6536
50765SOL    HW269906   1.009  12.956   8.086 -0.9282  1.1980 -0.1260
50766SOL     OW69907   5.362   3.900  10.470  0.2831 -0.4821  0.5402
50766SOL    HW169908   5.402   3.875  10.387  0.3212  2.2414 -0.3546
50766SOL    HW269909   5.268   3.901  10.451  0.3627  1.5269  0.0294
50767SOL     OW69910   4.518   6.007   6.521  0.8723 -0.6024  0.3986
50767SOL    HW169911   4.484   5.945   6.586  1.4906  0.0031  1.3285
50767SOL    HW269912   4.513   6.092   6.565 -0.9417  0.2127 -1.2123
50768SOL     OW69913  12.680  12.196   0.877  0.2914 -0.9072  0.1186
50768SOL    HW169914  12.594  12.235   0.861  0.9914  0.4445 -0.5441
50768SOL    HW269915  12.668  12.103   0.861 -1.1522 -0.8194  0.5127
50769SOL     OW69916   8.798   8.423  13.486 -0.3024 -0.3984  0.3995
50769SOL    HW169917   8.815   8.503  13.535  0.1523 -0.9315  1.1301
50769SOL    HW269918   8.885   8.386  13.468 -0.4808 -0.4356 -0.4392
50770SOL     OW69919   5.386  12.051   5.805  0.3432  0.1688  0.5730
50770SOL    HW169920   5.374  11.956   5.797 -1.6952  0.4967 -1.1575
50770SOL    HW269921   5.466  12.060   5.858 -0.2211 -2.4723  2.0869
50771SOL     OW69922   2.980   6.675  12.331  0.1881 -1.0031 -0.4009
50771SOL    HW169923   2.961   6.768  12.329 -1.5604 -1.2800  0.9014
50771SOL    HW269924   2.970   6.646  12.240  0.4238  0.0122 -0.7561
50772SOL     OW69925   8.233   8.736  11.387  0.2551  0.0353  0.1147
50772SOL    HW169926   8.307   8.707  11.333  0.8052  0.3274  0.7009
50772SOL    HW269927   8.155   8.708  11.338  0.7528 -1.3259  0.0494
50773SOL     OW69928   9.167   4.357   0.931  0.3507  0.0537  0.1786
50773SOL    HW169929   9.230   4.287   0.949 -0.7981 -0.6438  1.7008
50773SOL    HW269930   9.110   4.321   0.863  0.5943  0.0459 -0.0225
50774SOL     OW69931   9.992   7.774   2.185  0.4006 -0.0480  0.2517
50774SOL    HW169932   9.933   7.825   2.240  1.6043  0.3065  1.2471
50774SOL    HW269933  10.046   7.725   2.246  0.4605 -1.1747 -0.6688
50775SOL     OW69934  12.542   2.778  11.433 -0.2059 -0.2324  0.1166
50775SOL    HW169935  12.602   2.849  11.411  0.8990 -0.4237  2.2821
50775SOL    HW269936  12.503   2.753  11.349  2.1009  0.4834 -1.2577
50776SOL     OW69937  10.675   9.740   6.221  0.3589  0.4768 -0.2156
50776SOL    HW169938  10.746   9.760   6.281  0.7329  1.4518 -0.9398
50776SOL    HW269939  10.661   9.822   6.172 -0.2802 -0.1215 -1.0868
50777SOL     OW69940   0.503   9.849  10.410 -0.2469 -1.2813 -0.4459
50777SOL    HW169941   0.579   9.817  10.363  0.2611 -0.3128 -0.3004
50777SOL    HW269942   0.520   9.826  10.502 -0.3560 -1.4797 -0.4736
50778SOL     OW69943  13.328   9.736   0.571 -0.3818  0.3821 -0.8526
50778SOL    HW169944  13.294   9.713   0.485 -1.2953  1.5741 -0.8429
50778SOL    HW269945  13.334   9.831   0.570  1.4916  0.2977 -0.2701
50779SOL     OW69946   9.034  12.907  13.096  0.1800  0.3562 -0.6360
50779SOL    HW169947   9.099  12.874  13.158 -0.6601 -0.3409 -0.1134
50779SOL    HW269948   8.976  12.833  13.079 -1.2584  1.3194 -0.0795
50780SOL     OW69949   4.590   9.909   8.402 -0.2568 -0.1336  0.4597
50780SOL    HW169950   4.497   9.926   8.382 -1.0552 -3.0742  1.1942
50780SOL    HW269951   4.632   9.905   8.316 -0.7808  1.1742  0.1123
50781SOL     OW69952   9.402  10.153   7.854  0.3998 -0.1044  0.0077
50781SOL    HW169953   9.476  10.195   7.899  1.7512  1.4114 -3.3240
50781SOL    HW269954   9.376  10.215   7.786 -3.7664 -0.7921  0.7129
50782SOL     OW69955  12.574   5.857  13.679  0.1424  0.7470  0.1866
50782SOL    HW169956  12.523   5.912  13.738 -0.3108 -1.4501  1.9573
50782SOL    HW269957  12.647   5.824  13.732  2.1425  1.9067 -1.6413
50783SOL     OW69958   2.987   3.317   3.677  0.0416 -0.8084  0.7154
50783SOL    HW169959   2.984   3.412   3.682 -1.6871 -0.8362  1.0339
50783SOL    HW269960   3.078   3.296   3.658  0.9541  0.8045  2.9114
50784SOL     OW69961  12.963   0.615  10.215  0.6709 -0.1979 -0.5987
50784SOL    HW169962  13.005   0.567  10.143  3.3242  0.8182  0.1505
50784SOL    HW269963  12.980   0.562  10.293 -0.9332 -0.5661 -0.4582
50785SOL     OW69964   5.635  10.485   9.460 -0.4632  0.0155 -0.3824
50785SOL    HW169965   5.725  10.481   9.428 -0.0374  0.5460  0.6825
50785SOL    HW269966   5.604  10.572   9.434 -0.6395 -0.1416 -0.6920
50786SOL     OW69967   4.868   7.401   2.821  0.3165  0.0458 -0.2295
50786SOL    HW169968   4.783   7.431   2.854 -0.2733 -1.5006 -0.2632
50786SOL    HW269969   4.932   7.437   2.883 -0.6166 -1.2282  1.5711
50787SOL     OW69970   9.204   4.468  12.834  0.0573  0.5397  0.0628
50787SOL    HW169971   9.154   4.388  12.849  1.9561 -0.6927  0.2366
50787SOL    HW269972   9.138   4.536  12.822 -1.7421 -1.4894 -2.9792
50788SOL     OW69973   1.215   7.141   5.229 -0.3558 -0.0894  0.1173
50788SOL    HW169974   1.138   7.198   5.231  1.4901  2.5303  1.6958
50788SOL    HW269975   1.219   7.111   5.138 -1.8293  1.7731 -0.6478
50789SOL     OW69976   3.072   9.673   2.693 -0.4192  0.0290  0.1021
50789SOL    HW169977   3.136   9.738   2.665 -0.3227 -0.4239 -0.7664
50789SOL    HW269978   3.117   9.624   2.763 -0.1684  0.3212  0.1469
50790SOL     OW69979  13.781   3.817   1.540 -0.1785 -0.5731 -0.6410
50790SOL    HW169980  13.864   3.814   1.588  0.3650  0.6115 -1.4405
50790SOL    HW269981  13.725   3.874   1.592 -0.0520 -0.3707 -0.7240
50791SOL     OW69982   3.761  12.394  12.255  0.4361 -0.4599  0.1628
50791SOL    HW169983   3.690  12.458  12.265  0.3361 -0.6667  0.8236
50791SOL    HW269984   3.840  12.447  12.246  0.2468 -0.2350 -0.2419
50792SOL     OW69985   1.172  11.176   1.974  0.7133  0.0663  0.4980
50792SOL    HW169986   1.135  11.248   1.924  0.7293 -1.1421 -1.3548
50792SOL    HW269987   1.255  11.209   2.008 -0.4206  1.6914  1.8095
50793SOL     OW69988   2.095  10.714   7.559 -0.4183 -0.3657  0.5667
50793SOL    HW169989   2.130  10.770   7.629 -2.1433 -1.5023  2.4292
50793SOL    HW269990   2.138  10.630   7.572  0.5836 -0.1325 -0.9238
50794SOL     OW69991   4.002   0.828  10.771 -0.4461 -0.1169  0.0700
50794SOL    HW169992   4.075   0.779  10.733  0.9934 -0.3381  2.9135
50794SOL    HW269993   4.037   0.916  10.785 -1.2777  0.2420 -0.0379
50795SOL     OW69994   3.516   1.530  10.202 -0.1444  0.2902  0.4747
50795SOL    HW169995   3.522   1.540  10.297 -0.3086  0.4741  0.4686
50795SOL    HW269996   3.606   1.530  10.172 -0.1087  1.1500  0.5443
50796SOL     OW69997   7.801  11.349   7.203 -0.6301 -0.2481 -0.5714
50796SOL    HW169998   7.802  11.310   7.290  1.1064  0.7888 -0.0704
50796SOL    HW269999   7.807  11.443   7.219 -0.1192 -0.0535 -1.7945
50797SOL     OW70000   4.663  13.541  10.514  0.2505  0.0689  0.4531
50797SOL    HW170001   4.735  13.540  10.577 -0.7927 -2.3863  1.7324
50797SOL    HW270002   4.674  13.461  10.463 -0.1222  0.9733 -1.1231
50798SOL     OW70003   9.867   5.378   0.700  0.2926  0.1479  0.0337
50798SOL    HW170004   9.951   5.332   0.694  0.3549  0.2880 -0.2314
50798SOL    HW270005   9.801   5.310   0.691  0.3598 -0.0951  1.2058
50799SOL     OW70006   2.977   3.639  12.817  0.7248  0.6863 -0.0310
50799SOL    HW170007   3.028   3.563  12.843 -0.6930 -0.2840  0.0517
50799SOL    HW270008   3.030   3.714  12.843  1.6156 -0.2676  1.0045
50800SOL     OW70009   4.086   0.306   5.749  0.3744 -0.4137  0.7421
50800SOL    HW170010   4.160   0.359   5.778  1.3509  0.1757 -2.4249
50800SOL    HW270011   4.015   0.369   5.738  0.7642 -0.1657 -0.4985
50801SOL     OW70012   7.977   0.833   7.641  0.1540 -0.4537 -0.3144
50801SOL    HW170013   7.890   0.797   7.659  0.7459 -1.7422  0.0674
50801SOL    HW270014   7.979   0.846   7.547 -1.5139  2.4750 -0.0663
50802SOL     OW70015   6.358   6.061  13.204 -0.5312  0.3579 -0.2092
50802SOL    HW170016   6.417   5.994  13.238 -1.0026  0.0814  0.0810
50802SOL    HW270017   6.282   6.012  13.172 -0.5322  0.6953 -0.7388
50803SOL     OW70018  13.132  11.792   6.153  0.3104  0.4300 -0.2255
50803SOL    HW170019  13.168  11.814   6.239  1.7004  2.5768 -1.2693
50803SOL    HW270020  13.199  11.737   6.112  0.0615  0.1681 -0.2860
50804SOL     OW70021  11.829   3.527   9.321 -0.0084  0.3149 -0.1835
50804SOL    HW170022  11.757   3.531   9.384 -0.5294 -1.5040 -0.6026
50804SOL    HW270023  11.902   3.487   9.369  0.3652  1.1140 -0.0774
50805SOL     OW70024   4.228   4.174   5.492  0.4805  0.1270 -0.1303
50805SOL    HW170025   4.280   4.201   5.416  1.0347 -0.7378 -0.0709
50805SOL    HW270026   4.146   4.141   5.455  0.7170 -0.2167 -0.3464
50806SOL     OW70027   9.826   7.176   9.926 -0.1479 -0.6433  0.0846
50806SOL    HW170028   9.742   7.207   9.892  0.0141 -0.3218 -0.0306
50806SOL    HW270029   9.804   7.130  10.007 -0.6894 -2.5615 -1.1053
50807SOL     OW70030  10.661   9.994  13.280 -0.0100 -0.4332 -0.6603
50807SOL    HW170031  10.657   9.941  13.359 -2.0995  1.0233  0.2998
50807SOL    HW270032  10.657   9.931  13.208 -1.8071 -1.6417  0.4240
50808SOL     OW70033   5.737  12.624   6.493 -0.1324  0.4649 -0.6448
50808SOL    HW170034   5.792  12.702   6.502 -0.7406  1.3661 -3.6071
50808SOL    HW270035   5.647  12.656   6.506 -0.2497 -0.2869  0.5821
50809SOL     OW70036   1.366   2.972   0.662  0.4399 -0.0567 -0.0422
50809SOL    HW170037   1.432   3.038   0.642 -0.0125 -0.7478 -5.1496
50809SOL    HW270038   1.282   3.019   0.658  0.3337 -0.1576  0.8629
50810SOL     OW70039   3.619  13.246  13.127  0.1270 -0.0304 -0.2012
50810SOL    HW170040   3.525  13.253  13.111 -0.1903 -1.0269  1.0640
50810SOL    HW270041   3.638  13.152  13.119  0.8768  0.0743  0.2452
50811SOL     OW70042   1.116   1.703   3.446 -0.6884  0.0529  0.3558
50811SOL    HW170043   1.165   1.785   3.447 -1.8073  0.7435  0.8256
50811SOL    HW270044   1.092   1.688   3.538 -1.1986 -0.3565  0.1637
50812SOL     OW70045  12.488   6.085   5.058  0.2842 -0.0275 -0.2931
50812SOL    HW170046  12.406   6.048   5.027 -0.4234  1.9064 -0.9112
50812SOL    HW270047  12.487   6.070   5.153  0.7158 -2.7147 -0.6602
50813SOL     OW70048   2.688  13.112  10.210  0.1371 -0.4418 -0.1383
50813SOL    HW170049   2.762  13.071  10.165  1.0054  0.5348  0.3512
50813SOL    HW270050   2.672  13.192  10.162  0.0477 -0.1661  0.3411
50814SOL     OW70051   2.674   1.617   2.313 -0.5129 -0.0807 -0.3766
50814SOL    HW170052   2.601   1.578   2.361 -0.4885  0.6697  0.2914
50814SOL    HW270053   2.719   1.672   2.378 -0.5884  1.1080 -1.2937
50815SOL     OW70054   8.176   4.423   5.001  0.1613  0.3406  0.1525
50815SOL    HW170055   8.087   4.433   4.968 -0.0888  2.0575  1.2224
50815SOL    HW270056   8.171   4.349   5.061 -0.3559 -0.0532 -0.3588
50816SOL     OW70057  13.194   5.033  13.802 -0.1090 -0.6845 -0.5377
50816SOL    HW170058  13.110   5.025  13.847 -0.0260 -0.1186 -0.2674
50816SOL    HW270059  13.259   5.031  13.872  0.0106  0.3630 -0.5937
50817SOL     OW70060   3.324   4.297  13.125  0.4263 -0.0370 -0.0834
50817SOL    HW170061   3.351   4.269  13.037  1.1046 -1.6417  0.5879
50817SOL    HW270062   3.295   4.216  13.168  1.0399  0.5332  1.4797
50818SOL     OW70063   0.195   6.060   1.673 -0.7056  0.1312 -0.5368
50818SOL    HW170064   0.226   6.008   1.747 -0.8964  0.2582 -0.3675
50818SOL    HW270065   0.201   6.151   1.702 -0.5904  0.1932 -0.7496
50819SOL     OW70066   7.523  13.134   3.825 -0.3207 -0.2755 -0.1242
50819SOL    HW170067   7.432  13.110   3.806 -0.6127  1.5731 -1.3078
50819SOL    HW270068   7.563  13.145   3.738  1.0261 -0.9600  0.3796
50820SOL     OW70069   3.559   7.859   8.070  0.6062  0.3436 -0.3261
50820SOL    HW170070   3.513   7.892   8.147  0.1319  0.4091 -0.6315
50820SOL    HW270071   3.629   7.923   8.055  0.8331  0.2187  0.1703
50821SOL     OW70072   2.463   7.264   6.386  0.3628 -0.6717 -0.0273
50821SOL    HW170073   2.443   7.206   6.458  2.3544  0.0942  1.2432
50821SOL    HW270074   2.544   7.308   6.413  1.0323 -0.1597 -2.6059
50822SOL     OW70075   6.358  13.599   0.821  0.1512  0.1612 -0.0775
50822SOL    HW170076   6.302  13.669   0.855 -0.6443 -1.2230  1.6759
50822SOL    HW270077   6.438  13.605   0.874  0.2937  0.0719 -0.2831
50823SOL     OW70078  12.850   7.174  13.572  0.2482 -0.8492 -0.0945
50823SOL    HW170079  12.871   7.263  13.601 -1.5309 -0.2177 -0.5604
50823SOL    HW270080  12.934   7.137  13.546  0.9124  1.0942 -0.9505
50824SOL     OW70081   4.320   7.892   6.279  0.5931 -0.1628  0.1761
50824SOL    HW170082   4.409   7.927   6.268  0.1891  1.0576  0.6267
50824SOL    HW270083   4.287   7.936   6.357 -0.1190 -1.2468  0.5022
50825SOL     OW70084   8.155   7.402  13.571  0.1126 -0.6844 -1.0643
50825SOL    HW170085   8.183   7.477  13.623 -0.1923 -0.5612 -1.0739
50825SOL    HW270086   8.119   7.441  13.491  0.7940 -0.8792 -1.4793
50826SOL     OW70087   1.832   2.278   0.975  0.0504  0.5588  0.4947
50826SOL    HW170088   1.889   2.218   1.023  1.3777  0.7570 -0.7665
50826SOL    HW270089   1.744   2.259   1.008  0.1362 -3.2677 -1.0145
50827SOL     OW70090   7.990  12.266   2.768 -0.2569  0.1026 -0.4705
50827SOL    HW170091   8.084  12.284   2.764 -0.0495 -0.1773  1.6403
50827SOL    HW270092   7.984  12.171   2.779 -0.8771 -0.0484 -1.9204
50828SOL     OW70093   4.595   2.589   6.521  0.2882  0.6140  0.3677
50828SOL    HW170094   4.564   2.564   6.434  1.4202 -0.3174  0.2104
50828SOL    HW270095   4.534   2.545   6.581  1.9976 -2.3726  0.0922
50829SOL     OW70096   8.393   5.305   3.334 -0.4932  0.0071  0.1082
50829SOL    HW170097   8.467   5.247   3.316 -0.8218  0.0016 -1.3911
50829SOL    HW270098   8.432   5.381   3.379  0.2717 -0.4142  0.1689
50830SOL     OW70099   3.579   7.389   3.892  0.3204  0.1193  0.0743
50830SOL    HW170100   3.591   7.312   3.836 -0.7953  0.1850 -0.2812
50830SOL    HW270101   3.658   7.392   3.946  0.2634 -1.4562  0.2951
50831SOL     OW70102   0.405   9.830   8.378  0.1042  0.0963  0.1985
50831SOL    HW170103   0.355   9.749   8.364 -1.1053  0.7273  0.6850
50831SOL    HW270104   0.384   9.855   8.468 -0.8074  1.7738 -0.4380
50832SOL     OW70105   5.318   4.349   6.282  0.1956  0.2608  0.1037
50832SOL    HW170106   5.233   4.354   6.327 -0.5630  1.2750 -1.3365
50832SOL    HW270107   5.311   4.272   6.226  0.6331 -0.2406  0.7261
50833SOL     OW70108   4.876   8.194   2.070 -0.0899  0.6541  0.1013
50833SOL    HW170109   4.852   8.268   2.125 -0.5866 -0.6433  1.7338
50833SOL    HW270110   4.863   8.117   2.126 -0.6026 -0.7662 -1.8412
50834SOL     OW70111  13.440   5.901  14.016 -0.0482 -0.0057  0.5731
50834SOL    HW170112  13.355   5.876  13.980  0.2538 -1.9232  1.0621
50834SOL    HW270113  13.502   5.839  13.978  1.3881  2.0905 -0.6989
50835SOL     OW70114  13.133  13.102   5.660 -0.3420 -0.5084 -0.4932
50835SOL    HW170115  13.173  13.065   5.739 -1.2815  0.9290  0.7208
50835SOL    HW270116  13.060  13.042   5.641 -1.8552  0.5685  1.4531
50836SOL     OW70117  12.624  10.217  13.022 -0.5553 -0.4118  0.0371
50836SOL    HW170118  12.600  10.229  13.114  0.4994 -0.4604  0.3307
50836SOL    HW270119  12.664  10.300  12.997  0.0226 -0.7297 -0.1008
50837SOL     OW70120  13.425   4.223   8.104  0.2911  0.4309 -1.0221
50837SOL    HW170121  13.514   4.189   8.095  0.5129  0.7651 -0.1409
50837SOL    HW270122  13.384   4.166   8.168  0.2734  1.0287 -0.4834
50838SOL     OW70123  10.029   0.603   2.972 -0.1888  0.3673 -0.2335
50838SOL    HW170124   9.995   0.538   3.033  0.2790  1.3953  1.1599
50838SOL    HW270125   9.970   0.598   2.897 -2.6281  1.1450  1.5293
50839SOL     OW70126   6.445   0.223  12.897 -0.6188  0.1753  0.8800
50839SOL    HW170127   6.425   0.304  12.943  0.2265  0.8182  0.1400
50839SOL    HW270128   6.407   0.154  12.952  0.4041  0.9078  2.5663
50840SOL     OW70129  13.818  12.918   4.991  0.7365 -0.5638 -0.0180
50840SOL    HW170130  13.805  12.909   4.897 -1.9394 -1.1526  0.3238
50840SOL    HW270131  13.779  13.002   5.013  1.9581 -0.1152  0.4900
50841SOL     OW70132   1.120   4.128   7.200  0.5255  0.3836 -0.4741
50841SOL    HW170133   1.177   4.186   7.251  0.3559  0.0899  0.0647
50841SOL    HW270134   1.178   4.057   7.171  0.3882 -0.0632  0.3128
50842SOL     OW70135   0.914  10.998   6.859  0.4735 -0.0523  0.1962
50842SOL    HW170136   0.969  10.924   6.832  1.2292  0.2476  0.8443
50842SOL    HW270137   0.952  11.073   6.814  0.0918  0.0402  0.0264
50843SOL     OW70138   6.855   7.981   6.797  0.1947 -0.1713 -0.5560
50843SOL    HW170139   6.774   8.028   6.818  1.4238  1.7931  0.0339
50843SOL    HW270140   6.839   7.945   6.710 -1.3778  0.0312 -0.3808
50844SOL     OW70141  13.551  12.950   7.357  0.6006  0.1149 -0.3134
50844SOL    HW170142  13.624  12.930   7.415  0.3363  2.2713  0.8878
50844SOL    HW270143  13.564  12.895   7.281  1.3855 -2.3039  1.4528
50845SOL     OW70144   1.072   5.595   5.118  0.1345  0.0281 -0.0897
50845SOL    HW170145   1.087   5.512   5.073 -0.3548 -0.6785  1.0138
50845SOL    HW270146   1.036   5.652   5.050 -1.9306 -1.4356 -0.3269
50846SOL     OW70147   2.160  10.480   1.615 -0.4182 -0.6979  0.0694
50846SOL    HW170148   2.205  10.465   1.698  0.5107 -2.1932 -0.6613
50846SOL    HW270149   2.067  10.474   1.637 -0.2059 -0.4787  1.0852
50847SOL     OW70150   3.012  10.391   2.428 -0.6031 -0.4365  0.0486
50847SOL    HW170151   3.031  10.330   2.499 -0.6674  0.2069  0.6270
50847SOL    HW270152   2.941  10.446   2.462 -0.1091  0.3789 -0.2128
50848SOL     OW70153  13.511   7.916   5.950 -0.2459  0.6834 -0.2588
50848SOL    HW170154  13.508   7.848   5.883  0.3110 -0.5694  0.9615
50848SOL    HW270155  13.526   7.997   5.901 -1.2630  0.0035 -1.7636
50849SOL     OW70156   5.040   1.314  12.790  1.0763  0.2229  0.0676
50849SOL    HW170157   5.109   1.301  12.726  0.3316 -0.2428 -0.6688
50849SOL    HW270158   4.999   1.228  12.799  1.7081  0.0730  1.8264
50850SOL     OW70159   2.296  13.639  13.354 -0.0081  0.3578 -0.3913
50850SOL    HW170160   2.374  13.594  13.383  0.3131  0.1263 -1.5780
50850SOL    HW270161   2.233  13.570  13.333  0.0698  0.4868 -1.0730
50851SOL     OW70162   2.156   8.692  10.805  0.1993  0.0314 -0.3676
50851SOL    HW170163   2.062   8.706  10.801  0.3887  1.1140 -1.6288
50851SOL    HW270164   2.193   8.778  10.827  0.8960 -0.3894  0.1697
50852SOL     OW70165   5.400   6.126   6.565  0.1752  0.3671 -0.2440
50852SOL    HW170166   5.428   6.204   6.516 -0.8859  0.1174 -1.3006
50852SOL    HW270167   5.480   6.075   6.576  1.1385  2.1062  1.4931
50853SOL     OW70168   3.356   2.429  12.617 -0.1795 -0.3427 -0.2054
50853SOL    HW170169   3.383   2.508  12.666 -2.3732 -0.6695  1.7175
50853SOL    HW270170   3.405   2.358  12.659  2.1752 -0.0608 -2.2603
50854SOL     OW70171   0.820  13.791   6.219  0.1629  0.4794 -0.1615
50854SOL    HW170172   0.833  13.700   6.245  1.0839  0.8016  0.5453
50854SOL    HW270173   0.769  13.829   6.290  1.2607  0.9392  0.4073
50855SOL     OW70174   3.397   3.195   9.349 -0.7138  0.1633 -0.5789
50855SOL    HW170175   3.420   3.170   9.259  0.6415 -0.7391 -0.0206
50855SOL    HW270176   3.420   3.287   9.356  1.6076 -0.3789 -0.4538
50856SOL     OW70177   1.844   9.278  11.423  0.5004 -0.1218  0.6678
50856SOL    HW170178   1.908   9.219  11.385  0.9159  0.5614  0.2817
50856SOL    HW270179   1.818   9.335  11.350 -0.9225 -0.7081  0.6827
50857SOL     OW70180   1.944  10.023  11.322  0.0952 -0.0289  0.0341
50857SOL    HW170181   2.017  10.064  11.277 -0.4369  0.1936 -0.6485
50857SOL    HW270182   1.955   9.930  11.305 -0.2927  0.0767 -0.8820
50858SOL     OW70183   3.739   3.654  13.173  0.0885  0.0235  0.3741
50858SOL    HW170184   3.781   3.730  13.214  0.8778 -0.0364 -0.3054
50858SOL    HW270185   3.780   3.578  13.215  1.2244 -0.0453 -0.7965
50859SOL     OW70186   9.012   3.082   0.263 -0.1462 -0.0321  0.2681
50859SOL    HW170187   8.968   3.162   0.290 -1.1423 -1.0900  2.0359
50859SOL    HW270188   8.949   3.037   0.207 -0.9043 -0.9668  1.7919
50860SOL     OW70189   6.946   5.379   0.370  0.1163  0.0870  0.1906
50860SOL    HW170190   6.945   5.440   0.297  0.8325 -1.8991 -1.5990
50860SOL    HW270191   6.948   5.434   0.448  0.2792  2.2976 -1.2878
50861SOL     OW70192  10.487  10.511  10.826  0.3247  0.3574  0.3341
50861SOL    HW170193  10.524  10.556  10.903  1.6721  2.4551 -1.4125
50861SOL    HW270194  10.552  10.525  10.757 -3.0917  3.4316 -2.7285
50862SOL     OW70195   2.190   3.128   4.669 -0.2111  0.0375  0.1568
50862SOL    HW170196   2.129   3.144   4.740  0.4885  1.5535  0.4549
50862SOL    HW270197   2.236   3.047   4.693 -0.1930  0.3754  1.2798
50863SOL     OW70198  10.633   1.349   6.084 -0.5238  0.5652 -0.1751
50863SOL    HW170199  10.579   1.404   6.141  1.1240  1.7137  0.3582
50863SOL    HW270200  10.581   1.336   6.005 -2.4709 -0.2442  1.1604
50864SOL     OW70201  11.774   4.469   4.864  0.6209  0.2719  0.3209
50864SOL    HW170202  11.694   4.418   4.850  0.1592  1.1596 -0.3639
50864SOL    HW270203  11.845   4.406   4.850  0.0600 -0.2226 -0.3672
50865SOL     OW70204   7.484   2.656  12.653 -0.0612  0.0623 -0.3980
50865SOL    HW170205   7.495   2.749  12.676 -0.8274  0.0345  0.1395
50865SOL    HW270206   7.557   2.612  12.696 -0.5204  0.2373  0.5922
50866SOL     OW70207   9.710  11.922  10.952 -0.0695 -0.4584 -0.2520
50866SOL    HW170208   9.772  11.972  10.899 -0.7635  0.6201 -0.0710
50866SOL    HW270209   9.631  11.917  10.898 -0.4489 -0.2049  0.2703
50867SOL     OW70210   8.603  10.028   1.516  0.3231  0.2674  0.2681
50867SOL    HW170211   8.634   9.961   1.576 -2.4038 -0.9700  0.4681
50867SOL    HW270212   8.545  10.083   1.570 -0.0638  0.7751 -0.6385
50868SOL     OW70213   4.311  11.811  12.054 -0.4264 -0.1291  0.0792
50868SOL    HW170214   4.335  11.866  12.129  0.3875  1.1601 -1.0771
50868SOL    HW270215   4.387  11.816  11.996 -1.4545 -0.1992 -1.3276
50869SOL     OW70216   6.310  13.703   2.484 -0.9913  0.1444 -0.2249
50869SOL    HW170217   6.217  13.700   2.462 -0.8115 -0.5501 -0.9159
50869SOL    HW270218   6.347  13.769   2.424 -0.7261 -0.8675 -1.2128
50870SOL     OW70219   0.356   9.218   3.690  0.4029  0.1673  0.3450
50870SOL    HW170220   0.400   9.170   3.621  0.7518 -0.0457  0.7114
50870SOL    HW270221   0.268   9.236   3.656  0.0401 -1.3048  0.4664
50871SOL     OW70222   2.694   2.852   8.754  0.0382 -0.4663  0.0472
50871SOL    HW170223   2.764   2.788   8.763  0.7785  0.0178 -1.8304
50871SOL    HW270224   2.738   2.937   8.751 -0.6448 -0.1197 -0.6561
50872SOL     OW70225   4.254   2.980   2.300 -0.1992 -0.2793 -0.1850
50872SOL    HW170226   4.236   3.029   2.381 -0.9843 -1.6841  0.5168
50872SOL    HW270227   4.265   3.048   2.233 -0.8667  0.8647  0.8311
50873SOL     OW70228   8.275  12.525  10.527 -0.2260  0.0073 -0.1511
50873SOL    HW170229   8.298  12.584  10.599  1.5728 -0.4590 -0.2938
50873SOL    HW270230   8.290  12.576  10.448 -0.0134 -0.2077 -0.2486
50874SOL     OW70231   8.281  10.345  10.109  0.0296 -0.5195  0.1248
50874SOL    HW170232   8.204  10.378  10.063  2.0956  1.8772 -1.9071
50874SOL    HW270233   8.323  10.422  10.145  2.0251 -1.6130  0.3008
50875SOL     OW70234  12.763   5.466  10.609  0.3366  0.2045 -0.1718
50875SOL    HW170235  12.668   5.478  10.620  0.3621  0.4975 -0.2703
50875SOL    HW270236  12.779   5.487  10.517  0.4542 -0.1261 -0.2267
50876SOL     OW70237  10.445   6.407  13.699 -0.1711 -0.4025  0.7505
50876SOL    HW170238  10.522   6.439  13.746  0.0594 -3.0106  2.3665
50876SOL    HW270239  10.459   6.432  13.608  1.4107  1.2117  1.3852
50877SOL     OW70240   7.474  14.043   0.896  0.3156 -0.0314  0.3159
50877SOL    HW170241   7.427  14.104   0.953  0.4427  2.2150 -1.8470
50877SOL    HW270242   7.406  13.983   0.865 -0.3960  0.8178  0.1928
50878SOL     OW70243   1.685   9.525   2.217  0.2409 -0.0693 -0.1280
50878SOL    HW170244   1.676   9.522   2.122 -1.0384  0.7727 -0.0603
50878SOL    HW270245   1.670   9.616   2.240 -1.7268 -0.6351  1.0543
50879SOL     OW70246   7.000   9.029   2.858 -0.3353  0.1373 -0.0748
50879SOL    HW170247   6.931   8.992   2.915  0.1475  1.4317  1.4319
50879SOL    HW270248   7.074   9.042   2.917  0.0720  1.8604 -0.9127
50880SOL     OW70249   5.744   2.259   3.595 -0.5060  0.1914 -0.3332
50880SOL    HW170250   5.758   2.354   3.603 -1.3662  0.2468  0.7436
50880SOL    HW270251   5.763   2.240   3.503  0.3309  1.2891 -0.4098
50881SOL     OW70252   6.992   8.923   1.401 -0.5538 -0.0504 -0.6288
50881SOL    HW170253   6.943   9.005   1.401  0.5608  0.6416 -0.0524
50881SOL    HW270254   7.033   8.920   1.487  1.6820  0.1898 -1.6151
50882SOL     OW70255   6.100  10.324   1.880  0.4706 -0.6064 -0.0022
50882SOL    HW170256   6.006  10.340   1.874  0.9899  3.2341 -0.4352
50882SOL    HW270257   6.107  10.239   1.922 -3.1716 -0.7158  0.7314
50883SOL     OW70258  12.175   8.398   0.955  0.1397  0.4367  0.8592
50883SOL    HW170259  12.166   8.408   0.860 -0.4949 -0.1868  0.8461
50883SOL    HW270260  12.248   8.455   0.978  2.3880 -1.7124 -0.4588
50884SOL     OW70261  12.473   6.760   3.366  1.1055  0.1737 -0.3068
50884SOL    HW170262  12.508   6.782   3.452  0.4631 -1.5266  0.4308
50884SOL    HW270263  12.517   6.677   3.343  2.6691  1.5010 -2.4912
50885SOL     OW70264   8.031   0.320   8.023  0.3767 -0.8375 -0.2372
50885SOL    HW170265   8.067   0.232   8.039 -0.0695 -1.0186 -0.2270
50885SOL    HW270266   8.070   0.374   8.092  2.0661 -0.6272 -1.3064
50886SOL     OW70267   5.460   0.965   6.608  0.0927  0.2898  0.2441
50886SOL    HW170268   5.482   1.043   6.556  2.7448  0.5015  1.5453
50886SOL    HW270269   5.532   0.904   6.593 -1.6482 -1.7468 -0.2792
50887SOL     OW70270   5.611   2.865   5.211  0.4390  0.3840  0.1216
50887SOL    HW170271   5.603   2.954   5.175  0.3346  0.8925  1.3545
50887SOL    HW270272   5.529   2.851   5.258  1.5064  0.6788  2.1633
50888SOL     OW70273   4.804   1.474  12.856  0.0980 -0.1975 -0.1380
50888SOL    HW170274   4.878   1.418  12.833 -0.3243  0.0353 -2.2689
50888SOL    HW270275   4.745   1.417  12.905  1.4212 -0.5270  1.1262
50889SOL     OW70276  13.335  10.309   5.869  0.9387 -0.1856 -0.3578
50889SOL    HW170277  13.298  10.395   5.851  2.5639  0.4627 -0.7702
50889SOL    HW270278  13.428  10.318   5.850  1.5354 -1.4573  1.6188
50890SOL     OW70279   9.896  10.366   3.009  0.4267 -0.0803 -0.5958
50890SOL    HW170280   9.852  10.451   3.012  0.0857 -0.2423 -0.9473
50890SOL    HW270281   9.933  10.355   3.097 -0.8630 -0.2711 -0.0504
50891SOL     OW70282   9.392   2.424   0.729  0.6246 -0.0477 -0.1927
50891SOL    HW170283   9.306   2.381   0.730 -0.1802  1.4085 -1.3999
50891SOL    HW270284   9.452   2.357   0.698  0.0499 -1.2720  1.2412
50892SOL     OW70285   7.237   5.476   9.444 -0.2792 -0.2404  0.2296
50892SOL    HW170286   7.257   5.384   9.462 -1.8921 -0.7808 -0.5498
50892SOL    HW270287   7.254   5.486   9.350  1.1517  0.6370  0.5513
50893SOL     OW70288  10.378   8.659   2.757 -0.0738  0.0469  0.1384
50893SOL    HW170289  10.428   8.613   2.825  0.6005 -2.6502 -1.9988
50893SOL    HW270290  10.421   8.634   2.675 -2.8647  0.4243 -1.5581
50894SOL     OW70291  12.351   5.910  11.916 -0.4759  0.1306 -0.3737
50894SOL    HW170292  12.434   5.956  11.930  0.1092 -0.9649 -0.1451
50894SOL    HW270293  12.350   5.890  11.823  0.1354 -0.9867 -0.1524
50895SOL     OW70294  12.370   2.635   9.879 -0.3153  0.4660  0.0199
50895SOL    HW170295  12.419   2.611   9.800  1.2757  0.5402  0.9421
50895SOL    HW270296  12.416   2.712   9.913  0.0940 -0.5549  1.9295
50896SOL     OW70297  13.671   6.760   4.150  0.7587  0.5239  0.1170
50896SOL    HW170298  13.637   6.824   4.087 -1.3374 -1.2509 -0.6702
50896SOL    HW270299  13.729   6.704   4.099  0.1092 -0.0925  0.0291
50897SOL     OW70300  13.483   1.042  10.668 -0.4153 -0.2769 -0.5052
50897SOL    HW170301  13.564   1.019  10.623  1.4040  0.0903  2.2771
50897SOL    HW270302  13.422   0.972  10.647  1.9421 -2.7601  0.3510
50898SOL     OW70303   3.857   3.118   1.267  0.1908  0.0073 -0.2685
50898SOL    HW170304   3.908   3.037   1.271  0.8303  0.4439  1.5179
50898SOL    HW270305   3.769   3.090   1.243 -0.3653 -1.6951  3.1131
50899SOL     OW70306   5.527  12.895  11.194 -0.2038  0.3042  0.4250
50899SOL    HW170307   5.492  12.886  11.105  0.6239  0.0555  0.1203
50899SOL    HW270308   5.530  12.805  11.227 -2.7387  0.5604  1.6081
50900SOL     OW70309   5.182  13.551  11.125 -0.4009  0.0558 -0.3028
50900SOL    HW170310   5.236  13.482  11.164 -0.0881  0.5064  0.0797
50900SOL    HW270311   5.147  13.600  11.200 -1.4454 -0.3015 -0.5403
50901SOL     OW70312  12.764   3.925   5.800  0.0105 -0.1051 -0.2719
50901SOL    HW170313  12.835   3.965   5.750 -0.8510  1.7669 -0.1069
50901SOL    HW270314  12.793   3.836   5.818  1.3601 -0.0600 -2.0412
50902SOL     OW70315  12.140   6.957   2.251 -1.0230 -0.1507  0.5009
50902SOL    HW170316  12.081   6.912   2.191 -0.2210  1.1587 -1.3371
50902SOL    HW270317  12.170   7.033   2.203  3.2318 -1.4259  0.7708
50903SOL     OW70318  11.718   5.494  12.406  0.0443  0.1806 -0.1064
50903SOL    HW170319  11.767   5.412  12.396  0.2740  0.2912  0.0971
50903SOL    HW270320  11.768   5.558  12.355  0.5806  0.4843  0.7827
50904SOL     OW70321  13.668   8.950   1.838  0.0112  0.3941 -0.6608
50904SOL    HW170322  13.753   8.977   1.802  1.6161 -1.7025  1.2368
50904SOL    HW270323  13.640   8.878   1.781  1.0749 -0.9405  0.4450
50905SOL     OW70324   3.139   8.453   2.789  0.1391  0.3804  0.0672
50905SOL    HW170325   3.197   8.471   2.863  0.4966 -0.5547  0.0267
50905SOL    HW270326   3.076   8.525   2.790 -0.4970 -0.1368  1.9086
50906SOL     OW70327   0.709   9.918  13.751  0.3302 -0.9335 -0.8851
50906SOL    HW170328   0.659   9.920  13.832 -0.3131 -0.8796 -1.2725
50906SOL    HW270329   0.796   9.952  13.775  1.2025 -3.8025  0.4442
50907SOL     OW70330   4.744  13.269  10.007  0.1444  0.0768 -0.2574
50907SOL    HW170331   4.803  13.200   9.977 -0.4009 -0.3489 -0.3571
50907SOL    HW270332   4.663  13.224  10.029  0.2241  0.5107  0.9843
50908SOL     OW70333   0.276   4.074   7.659  0.4207  0.5357  0.0814
50908SOL    HW170334   0.232   4.130   7.595  0.8836  1.3746  0.4735
50908SOL    HW270335   0.278   3.988   7.619  1.4851  1.2203 -1.4263
50909SOL     OW70336  10.012   2.421   8.274 -0.1774 -0.3910  0.3538
50909SOL    HW170337  10.085   2.399   8.332 -1.3654 -1.3321  1.5668
50909SOL    HW270338   9.979   2.504   8.307 -1.3350 -1.2977  1.5796
50910SOL     OW70339  12.889   2.162  12.257 -0.1824  0.7309  0.2737
50910SOL    HW170340  12.848   2.243  12.224 -0.4302  1.7351  2.8025
50910SOL    HW270341  12.827   2.129  12.322  0.6730 -0.6436  0.4272
50911SOL     OW70342   5.760   3.922   2.241 -0.0144 -0.0701 -0.0462
50911SOL    HW170343   5.826   3.861   2.272 -1.0021 -0.3059  1.7698
50911SOL    HW270344   5.677   3.884   2.270 -0.7110  1.7030  0.4739
50912SOL     OW70345   3.248   4.058   0.576  0.2055  0.0817  0.2073
50912SOL    HW170346   3.186   3.990   0.549 -0.7354  1.0603 -0.1637
50912SOL    HW270347   3.334   4.015   0.572 -0.5490 -1.8721  2.5324
50913SOL     OW70348  12.741   3.839   8.614  0.1879 -0.3712  0.2975
50913SOL    HW170349  12.667   3.851   8.673  0.6066 -0.5251  0.8634
50913SOL    HW270350  12.797   3.915   8.630  0.4238 -0.5384  0.2748
50914SOL     OW70351   2.162   4.059   2.110  0.0706 -0.3629  0.1682
50914SOL    HW170352   2.195   4.143   2.078  1.0757 -0.5330  0.7173
50914SOL    HW270353   2.074   4.051   2.072  0.3061  0.5323 -0.5827
50915SOL     OW70354   4.797  10.332   4.122 -0.1037  0.0519  0.0559
50915SOL    HW170355   4.837  10.298   4.202  0.6060 -0.1213 -0.3573
50915SOL    HW270356   4.742  10.260   4.091 -1.2751  0.5200  0.9665
50916SOL     OW70357   5.310   8.478  13.544  0.1494  0.2740 -0.0796
50916SOL    HW170358   5.253   8.527  13.485 -0.1437  0.3650  0.2716
50916SOL    HW270359   5.332   8.540  13.614  1.1621  0.4217 -0.5097
50917SOL     OW70360   1.818  10.683   1.205  0.0631  0.3785 -0.2771
50917SOL    HW170361   1.832  10.686   1.300  0.0760  1.2797 -0.3026
50917SOL    HW270362   1.871  10.609   1.176  0.6971  0.5846  0.3191
50918SOL     OW70363  11.157   1.023   6.540  0.0149 -0.2742 -0.7643
50918SOL    HW170364  11.084   1.019   6.478  0.4006 -0.3077 -1.2224
50918SOL    HW270365  11.234   1.005   6.487  0.5261  1.1856 -0.5693
50919SOL     OW70366   7.857   3.532  10.177  0.1393 -0.4005 -0.1347
50919SOL    HW170367   7.791   3.466  10.153  0.8320 -0.7241 -1.2257
50919SOL    HW270368   7.906   3.546  10.096  0.6442  0.7281  0.3541
50920SOL     OW70369  12.688   6.208   7.850  0.3823  0.4579  0.7603
50920SOL    HW170370  12.657   6.296   7.830  0.7478  0.3946 -0.1222
50920SOL    HW270371  12.736   6.217   7.932  0.0666  1.0018  0.8859
50921SOL     OW70372   4.460   9.426   5.000  0.7619 -0.0523  0.0943
50921SOL    HW170373   4.408   9.419   4.920 -0.5416 -0.5141  0.9489
50921SOL    HW270374   4.542   9.466   4.972  0.4269 -0.4237 -1.5082
50922SOL     OW70375   0.076   7.957   6.048  0.0287 -0.2176  0.2637
50922SOL    HW170376   0.068   7.999   6.133  1.7198  1.4990 -0.3510
50922SOL    HW270377   0.140   7.886   6.063  0.2691  0.0339  0.4442
50923SOL     OW70378   8.563   5.833   6.102 -0.2708  0.3824 -0.1315
50923SOL    HW170379   8.590   5.751   6.143  1.0268 -0.1086 -1.8790
50923SOL    HW270380   8.473   5.817   6.074  0.0680 -0.5601 -0.7148
50924SOL     OW70381   9.334  13.200  13.467  0.2454 -0.3150  0.4598
50924SOL    HW170382   9.383  13.127  13.505 -0.1163 -0.9206 -0.2012
50924SOL    HW270383   9.242  13.176  13.480  0.1186 -0.3303 -0.3900
50925SOL     OW70384   7.090  11.467   8.268  0.1451 -0.2957  0.5723
50925SOL    HW170385   7.126  11.533   8.328  2.9061  0.1468 -1.3423
50925SOL    HW270386   7.115  11.383   8.308  0.8647 -0.0397  0.6854
50926SOL     OW70387   2.814   0.002   6.864 -0.5162  0.1244 -0.3323
50926SOL    HW170388   2.768  -0.043   6.793 -0.1628 -0.7175 -0.0372
50926SOL    HW270389   2.896  -0.047   6.874 -0.6140  0.1687  0.7226
50927SOL     OW70390  10.265   0.396   0.987 -0.1276  0.7862  0.1343
50927SOL    HW170391  10.236   0.305   0.993  0.0649  0.2552 -3.8167
50927SOL    HW270392  10.187   0.448   1.006 -0.6059 -0.2454  1.0655
50928SOL     OW70393   2.389   3.422   2.397  0.1681 -0.2495  0.1989
50928SOL    HW170394   2.386   3.514   2.424 -0.8520  0.4175 -1.9883
50928SOL    HW270395   2.478   3.409   2.364  0.2075  0.0627  0.1800
50929SOL     OW70396  10.749   2.133  10.266  0.8289  0.0902 -0.1244
50929SOL    HW170397  10.792   2.208  10.225  0.4003  0.7354  0.5844
50929SOL    HW270398  10.727   2.163  10.354  1.8467 -1.3037  0.6420
50930SOL     OW70399   1.787   0.438  12.068  0.2050 -0.1571  0.5420
50930SOL    HW170400   1.860   0.396  12.114  1.1764  1.1525  0.2570
50930SOL    HW270401   1.769   0.380  11.994  0.2858 -0.9903  1.1508
50931SOL     OW70402  10.915   9.363  11.532 -0.7427  0.2257 -0.4857
50931SOL    HW170403  10.999   9.346  11.573 -1.6333  0.5463  1.5998
50931SOL    HW270404  10.936   9.385  11.441  1.6163  2.4267  0.4872
50932SOL     OW70405   7.133  12.617   4.424 -0.2085  0.9454  0.5350
50932SOL    HW170406   7.206  12.602   4.364 -1.3874 -1.5520 -0.4255
50932SOL    HW270407   7.074  12.676   4.377 -0.7258 -0.3291 -0.4713
50933SOL     OW70408   6.114   1.148   8.011  0.3145  0.0768  0.2981
50933SOL    HW170409   6.171   1.076   8.040  0.5693 -0.5041 -1.5408
50933SOL    HW270410   6.166   1.194   7.945 -1.2744 -0.3836 -1.3312
50934SOL     OW70411   4.258   1.339   5.456 -0.6804  0.1122 -0.1268
50934SOL    HW170412   4.308   1.274   5.506  0.2024 -0.0403 -1.1596
50934SOL    HW270413   4.217   1.289   5.385 -0.6405  0.5536 -0.4671
50935SOL     OW70414  13.636   7.047   9.857 -0.5519  0.5319  0.0486
50935SOL    HW170415  13.731   7.053   9.859 -0.5106 -0.0743  0.2428
50935SOL    HW270416  13.610   7.088   9.775 -0.0392 -0.3459 -0.5572
50936SOL     OW70417   0.004   8.566   2.772 -0.4507 -0.5705  0.1343
50936SOL    HW170418   0.044   8.486   2.807 -0.0903  0.0797  1.2885
50936SOL    HW270419  -0.088   8.544   2.761 -0.1489 -1.4942 -0.6889
50937SOL     OW70420   6.073  14.043   4.438  0.4504 -0.5936 -0.4076
50937SOL    HW170421   6.081  13.955   4.401 -1.0398 -0.4680 -1.0964
50937SOL    HW270422   5.985  14.071   4.415  1.5132  1.8647 -1.9321
50938SOL     OW70423   7.148  10.657  11.997 -0.6424 -0.0620 -0.1763
50938SOL    HW170424   7.079  10.622  11.940 -0.8946  1.5223 -0.8905
50938SOL    HW270425   7.206  10.582  12.013 -1.9390 -1.1592 -0.4322
50939SOL     OW70426  12.760  13.193   8.650  0.3035 -0.1120 -0.7207
50939SOL    HW170427  12.839  13.154   8.612  2.8775  1.2669  2.6999
50939SOL    HW270428  12.713  13.119   8.688  2.5541 -0.5955  1.3648
50940SOL     OW70429   6.405   1.648   1.709 -0.2324  0.6589 -0.2716
50940SOL    HW170430   6.390   1.742   1.721 -0.4854  0.5632  0.1660
50940SOL    HW270431   6.499   1.640   1.695  0.0777  0.7924  1.5530
50941SOL     OW70432   9.203   0.484   6.240 -0.5533  0.4310  0.4482
50941SOL    HW170433   9.255   0.530   6.307 -0.0214 -0.2263  0.4914
50941SOL    HW270434   9.150   0.553   6.200 -1.2427  0.7739  1.8787
50942SOL     OW70435   2.744  12.624   5.941 -0.2385 -0.5005 -0.0377
50942SOL    HW170436   2.807  12.581   5.999  1.4158  1.4013 -0.2700
50942SOL    HW270437   2.731  12.710   5.980  0.7295  0.7476 -2.2628
50943SOL     OW70438   4.479   2.541  13.156 -0.7448 -0.0654 -0.1450
50943SOL    HW170439   4.548   2.544  13.090  1.9497  0.5199  2.4394
50943SOL    HW270440   4.523   2.510  13.235 -3.5013  0.2699  1.6711
50944SOL     OW70441  13.969   5.858   2.270 -0.1521 -0.0705 -0.4277
50944SOL    HW170442  13.996   5.854   2.178 -0.3155  1.0076 -0.5348
50944SOL    HW270443  13.979   5.769   2.302  3.2509  0.1527 -0.5316
50945SOL     OW70444   2.593   8.895  12.739  0.4823 -0.0503 -0.6160
50945SOL    HW170445   2.536   8.906  12.815  2.6019  0.6590  0.9785
50945SOL    HW270446   2.535   8.865  12.670 -1.4679 -1.2972  1.4191
50946SOL     OW70447  11.158  11.618  11.825  0.2962  0.0626 -0.0564
50946SOL    HW170448  11.193  11.707  11.829 -0.8932  0.5176  0.6523
50946SOL    HW270449  11.072  11.624  11.866 -0.1878 -1.2294 -0.8116
50947SOL     OW70450  11.930  10.072   2.986 -0.5824  0.3906 -0.3302
50947SOL    HW170451  11.958  10.010   2.918 -1.8866 -1.2308  0.5534
50947SOL    HW270452  11.885  10.141   2.937  0.4295  0.4259 -1.2824
50948SOL     OW70453  11.674   2.075   1.130 -0.0070  0.0764 -0.0445
50948SOL    HW170454  11.654   1.990   1.091 -0.8923  0.0376  0.4640
50948SOL    HW270455  11.633   2.072   1.216 -0.8142  1.3572 -0.3574
50949SOL     OW70456  10.805  11.814  10.241  0.7857  0.5801 -0.0292
50949SOL    HW170457  10.869  11.863  10.293 -0.1327  0.7893  0.9514
50949SOL    HW270458  10.735  11.793  10.304 -0.3949  0.8989 -1.2011
50950SOL     OW70459   1.474   8.851  13.116  0.3144  0.2865 -0.3006
50950SOL    HW170460   1.454   8.927  13.062  0.0058  0.8311  0.5576
50950SOL    HW270461   1.553   8.814  13.077  1.1584  1.7342 -0.0631
50951SOL     OW70462   1.669   1.305   5.130 -0.5003 -0.6163 -0.0831
50951SOL    HW170463   1.706   1.263   5.052 -0.1691  0.5659 -0.5928
50951SOL    HW270464   1.682   1.399   5.115 -0.6757 -0.3500  1.2817
50952SOL     OW70465   5.850   1.754  12.615  0.4303 -0.0699  0.0734
50952SOL    HW170466   5.876   1.818  12.549  0.5112 -0.3899 -0.2071
50952SOL    HW270467   5.759   1.732  12.593  0.0504  0.7273  0.7965
50953SOL     OW70468   3.306  13.028   3.501 -0.1971  0.0530 -0.7608
50953SOL    HW170469   3.231  12.969   3.506 -0.4369  0.4196  0.4499
50953SOL    HW270470   3.382  12.973   3.520 -0.6186  0.4420  2.7963
50954SOL     OW70471   0.101  11.622   6.536  0.2974 -0.4025  0.0186
50954SOL    HW170472   0.111  11.637   6.630 -0.1766 -1.4274  0.2449
50954SOL    HW270473   0.132  11.703   6.495 -0.1914  0.3479  1.0830
50955SOL     OW70474   3.987  11.646  11.581 -0.0831 -0.3410 -0.2988
50955SOL    HW170475   3.946  11.563  11.557  0.3634 -0.6785  0.0937
50955SOL    HW270476   4.059  11.622  11.640 -0.3203  0.3654  0.2984
50956SOL     OW70477   7.285   2.934   4.496  0.5011  0.4394  0.0426
50956SOL    HW170478   7.270   2.893   4.581 -0.7507 -2.6820 -1.5145
50956SOL    HW270479   7.218   2.896   4.439  2.6475  0.6602 -2.8607
50957SOL     OW70480   5.685   2.125  11.230 -0.2554 -0.5207  0.0186
50957SOL    HW170481   5.664   2.201  11.176  2.8978 -0.0376 -0.7008
50957SOL    HW270482   5.615   2.123  11.295 -0.1995  3.3958  0.4696
50958SOL     OW70483   2.880   6.462   7.180 -0.2163 -0.2858  0.1707
50958SOL    HW170484   2.891   6.513   7.099 -1.1541  0.4591  0.4947
50958SOL    HW270485   2.818   6.392   7.156  0.4832 -0.8275 -0.0758
50959SOL     OW70486  11.416  11.435   1.485  0.1794  1.1227 -0.1047
50959SOL    HW170487  11.357  11.473   1.550 -1.2854  1.8890 -1.8139
50959SOL    HW270488  11.417  11.341   1.506  0.3994  1.4449  1.4828
50960SOL     OW70489  12.084   5.157  10.507 -0.2416  0.1228 -0.1978
50960SOL    HW170490  12.115   5.121  10.424  2.1642  0.5343  0.4547
50960SOL    HW270491  12.093   5.252  10.496 -0.9767  0.2388  0.1589
50961SOL     OW70492   3.995  13.208  11.807  0.5817 -0.5784  0.0681
50961SOL    HW170493   4.076  13.209  11.857  0.0973  3.0383  1.0681
50961SOL    HW270494   3.969  13.300  11.801 -2.5920 -1.4211 -1.6721
50962SOL     OW70495  13.013  13.605  10.775 -0.6369 -0.2483 -0.9010
50962SOL    HW170496  13.044  13.663  10.845 -0.5306 -2.3174  0.8647
50962SOL    HW270497  13.048  13.644  10.694  1.1487  1.0132  0.3993
50963SOL     OW70498   5.215   4.571  11.508 -0.2601 -0.0735  0.0971
50963SOL    HW170499   5.124   4.547  11.523  0.5104 -1.1523  5.2231
50963SOL    HW270500   5.254   4.494  11.466 -1.4094 -0.2217 -0.7137
50964SOL     OW70501  11.937   8.528   3.938  0.5073  0.4298 -0.1503
50964SOL    HW170502  11.853   8.535   3.984 -0.3260 -0.7258 -1.3975
50964SOL    HW270503  11.922   8.571   3.854  1.1982  0.3063 -0.3450
50965SOL     OW70504  12.703   8.060   0.370  0.2100 -0.0520 -0.3623
50965SOL    HW170505  12.736   8.009   0.444  0.4791  1.3884  0.5595
50965SOL    HW270506  12.742   8.019   0.293 -3.0843 -4.0626 -0.2552
50966SOL     OW70507  12.616   7.096   1.328  0.3491  1.0149 -0.2268
50966SOL    HW170508  12.689   7.156   1.317 -1.3215  3.1211 -0.4817
50966SOL    HW270509  12.601   7.058   1.242  0.6754  1.1277 -0.3305
50967SOL     OW70510   0.241  10.125   0.375  0.1718  0.3635  0.1158
50967SOL    HW170511   0.170  10.166   0.326  0.5941  1.6344  0.5396
50967SOL    HW270512   0.212  10.128   0.467 -0.2187 -1.1920  0.0809
50968SOL     OW70513   0.425  11.878  10.183  0.2575  0.7648 -0.0005
50968SOL    HW170514   0.495  11.840  10.130 -0.8228 -0.8717 -0.3343
50968SOL    HW270515   0.444  11.972  10.184  1.6161  0.5473 -1.3034
50969SOL     OW70516  10.146   8.579   2.376 -0.5650 -0.1218 -0.1620
50969SOL    HW170517  10.138   8.531   2.458  1.1154  0.6180  0.4818
50969SOL    HW270518  10.067   8.633   2.372 -0.4726  0.1604  1.2227
50970SOL     OW70519   5.859   3.677   8.346 -0.5020  0.3021 -0.2091
50970SOL    HW170520   5.804   3.599   8.346  2.0739 -1.6048 -0.5878
50970SOL    HW270521   5.807   3.742   8.297 -2.2057 -1.5119 -0.9305
50971SOL     OW70522   5.997  13.990  13.559  0.5099  0.5615 -0.0642
50971SOL    HW170523   5.974  13.976  13.467 -0.5743  0.1375  0.2581
50971SOL    HW270524   5.966  14.078  13.578  0.3004  0.4704  0.0215
50972SOL     OW70525  11.722   9.974   2.186 -0.0846  0.6804  0.0728
50972SOL    HW170526  11.716  10.069   2.199  2.5077  0.9227 -0.0478
50972SOL    HW270527  11.745   9.940   2.272 -1.1444  0.1132  0.1474
50973SOL     OW70528  11.472   6.786   6.337 -0.3112  0.0418  1.0522
50973SOL    HW170529  11.522   6.706   6.353 -1.0850 -0.5719  0.5043
50973SOL    HW270530  11.493   6.842   6.411  0.3245 -0.6326  1.3999
50974SOL     OW70531   8.431  13.124   0.525 -0.3168 -0.0943  0.2964
50974SOL    HW170532   8.347  13.168   0.529 -0.1367  0.2445  0.3968
50974SOL    HW270533   8.415  13.045   0.474 -0.8071 -0.2876  0.7481
50975SOL     OW70534  13.703  13.240   2.705 -0.1233 -0.2663 -0.0533
50975SOL    HW170535  13.659  13.251   2.789 -0.0042  1.0666 -0.1524
50975SOL    HW270536  13.632  13.238   2.641 -0.3174 -2.6183  0.1490
50976SOL     OW70537  10.832  11.768   5.850  0.6870  0.1440  0.5641
50976SOL    HW170538  10.840  11.856   5.814  0.0830  1.1967  2.7989
50976SOL    HW270539  10.754  11.732   5.808  0.9375  0.6729 -0.3673
50977SOL     OW70540   2.381   9.811   7.362 -0.1497 -0.4594 -0.2362
50977SOL    HW170541   2.418   9.781   7.279 -1.3646  1.1948 -1.4485
50977SOL    HW270542   2.388   9.907   7.358  1.8262 -0.3626  2.5993
50978SOL     OW70543   8.513  13.843  13.279  0.5186  0.1590  0.2740
50978SOL    HW170544   8.508  13.806  13.367  0.1011  0.1405  0.2462
50978SOL    HW270545   8.429  13.820  13.239  1.1081 -0.7513 -0.4898
50979SOL     OW70546  11.761  11.426   9.084 -0.2253  0.0019 -0.2205
50979SOL    HW170547  11.694  11.402   9.149  0.0532  0.4425  0.2386
50979SOL    HW270548  11.712  11.470   9.014 -0.3886  0.5660  0.2412
50980SOL     OW70549   5.704   1.288   3.085  0.0745  0.0613 -0.1954
50980SOL    HW170550   5.616   1.262   3.113  0.1048  0.6017  0.4332
50980SOL    HW270551   5.752   1.300   3.167  0.0151  2.2335 -0.4376
50981SOL     OW70552   5.916   7.805   0.519 -0.1761  0.5514  0.5262
50981SOL    HW170553   5.869   7.888   0.515 -1.0418  0.0613 -0.0118
50981SOL    HW270554   5.938   7.793   0.611  0.0641  1.4240  0.5880
50982SOL     OW70555   9.945  11.839   9.680 -0.4065 -0.7978 -0.0325
50982SOL    HW170556   9.892  11.918   9.690  0.0047 -0.0879 -2.6905
50982SOL    HW270557   9.885  11.767   9.701 -2.1191  0.0515 -1.6845
50983SOL     OW70558  10.617   0.261   2.833  0.2568  0.1175 -0.3245
50983SOL    HW170559  10.525   0.236   2.845  0.3358 -0.2282 -0.4328
50983SOL    HW270560  10.613   0.350   2.800 -0.1931 -1.0704 -3.9222
50984SOL     OW70561   1.210  12.546   5.511  0.1079 -0.0987 -0.0713
50984SOL    HW170562   1.118  12.570   5.510  0.1246  0.1855  1.5289
50984SOL    HW270563   1.248  12.604   5.577  0.7518 -2.4947  1.8134
50985SOL     OW70564   4.481  13.501   6.787  0.6209  0.3944 -0.2932
50985SOL    HW170565   4.457  13.518   6.878  1.1824 -1.5665  0.2635
50985SOL    HW270566   4.479  13.588   6.746  2.4752  1.7140  2.0799
50986SOL     OW70567  12.441   6.693  12.711  0.4344  0.1207  0.2300
50986SOL    HW170568  12.395   6.728  12.635  0.6048 -0.8448 -0.3359
50986SOL    HW270569  12.498   6.764  12.740  0.4197  0.4752 -0.5970
50987SOL     OW70570  12.492   2.703   0.178  0.0473 -0.1364  0.3432
50987SOL    HW170571  12.570   2.654   0.149  0.5191  0.8691 -0.1627
50987SOL    HW270572  12.523   2.756   0.251 -0.3545 -0.2848  0.6234
50988SOL     OW70573   1.743  12.151  11.465 -0.1639  0.6160 -0.5330
50988SOL    HW170574   1.738  12.205  11.544 -2.5607 -0.2391 -0.0076
50988SOL    HW270575   1.662  12.171  11.418 -0.6108 -1.6970 -0.8548
50989SOL     OW70576   1.412  12.341   6.751 -0.0331 -0.3677  0.4915
50989SOL    HW170577   1.449  12.355   6.839 -0.4928 -0.9019  0.7780
50989SOL    HW270578   1.471  12.278   6.710  1.1438  1.1531 -0.2180
50990SOL     OW70579   6.983   4.961   4.818  0.9127  0.8972 -0.3528
50990SOL    HW170580   7.051   4.992   4.759  0.6346  0.0881 -1.1294
50990SOL    HW270581   7.015   4.876   4.848 -0.4623 -0.3007 -2.0503
50991SOL     OW70582  10.939   4.992   2.912 -0.9762 -0.1223 -0.2358
50991SOL    HW170583  10.870   4.930   2.885 -2.2720  1.6490 -1.1727
50991SOL    HW270584  11.006   4.984   2.845 -1.4417 -0.0413 -0.7165
50992SOL     OW70585   2.724   0.295   0.523 -0.2551  0.5325  0.1086
50992SOL    HW170586   2.801   0.251   0.560 -0.9783  0.2118  1.2532
50992SOL    HW270587   2.707   0.248   0.441  0.1585 -0.0287  0.3402
50993SOL     OW70588  13.066   3.152   6.597 -0.7443 -0.5125  0.1782
50993SOL    HW170589  12.971   3.152   6.608 -0.7184  1.8681  0.9357
50993SOL    HW270590  13.083   3.227   6.540  0.6034 -1.8087 -1.2037
50994SOL     OW70591   9.625   6.555  11.438  0.2621 -0.0654  0.1097
50994SOL    HW170592   9.639   6.519  11.350  0.6477  3.0551 -1.2157
50994SOL    HW270593   9.536   6.528  11.460  0.8465 -2.5745 -0.3187
50995SOL     OW70594   1.139   8.921   3.182 -0.0072  0.2793 -0.2377
50995SOL    HW170595   1.204   8.854   3.164 -0.5795 -0.0599 -1.0799
50995SOL    HW270596   1.104   8.897   3.268  0.3234 -0.0640 -0.1952
50996SOL     OW70597   8.954   9.619   6.616  0.3582  0.1578 -0.0794
50996SOL    HW170598   9.013   9.600   6.544  0.9375  1.7158 -0.0498
50996SOL    HW270599   8.947   9.714   6.617 -1.8765  0.0427  0.1500
50997SOL     OW70600   8.060  11.932   2.543 -0.1598 -0.2007  1.1696
50997SOL    HW170601   8.045  12.022   2.514  1.7975 -0.5129 -1.1104
50997SOL    HW270602   8.137  11.937   2.600 -2.1170 -0.0525  4.0277
50998SOL     OW70603   3.395   9.841   5.243  0.7281 -0.3285 -0.0514
50998SOL    HW170604   3.392   9.864   5.336 -0.3204  1.0597 -0.4049
50998SOL    HW270605   3.313   9.794   5.228  0.5756  0.0491 -0.4150
50999SOL     OW70606  13.648  11.066   9.560 -0.4876  0.3157  0.3857
50999SOL    HW170607  13.641  11.121   9.639  0.4043  1.7970 -0.5036
50999SOL    HW270608  13.565  11.020   9.555 -2.3279  3.3755 -0.0493
51000SOL     OW70609  12.953   6.167  11.407 -0.2179  0.5934  0.4800
51000SOL    HW170610  12.956   6.140  11.315  1.3476 -1.3642  1.0433
51000SOL    HW270611  13.043   6.156  11.438 -1.0619 -0.6684  2.7192
51001SOL     OW70612  13.876  13.138   7.590  0.2427 -0.0093 -0.0578
51001SOL    HW170613  13.930  13.067   7.626  0.2258  0.6380  1.3153
51001SOL    HW270614  13.934  13.182   7.527  0.1918 -1.3142 -1.0667
51002SOL     OW70615  12.025   6.753   1.375 -0.2182 -0.1291 -0.1587
51002SOL    HW170616  12.112   6.752   1.415  0.1475  1.9517 -0.7830
51002SOL    HW270617  11.974   6.691   1.428  1.5918 -1.3608  0.2456
51003SOL     OW70618  11.970   0.761  12.423 -0.5045 -0.2986  0.8168
51003SOL    HW170619  11.911   0.771  12.348 -0.9522 -0.2509  1.1732
51003SOL    HW270620  11.992   0.668  12.423  1.3552  0.0934 -0.7611
51004SOL     OW70621   2.864  10.667  12.644  0.1916 -0.4579 -0.5621
51004SOL    HW170622   2.956  10.655  12.619  0.6788  1.8740 -0.1882
51004SOL    HW270623   2.827  10.721  12.575 -0.1319  0.8632  0.6002
51005SOL     OW70624   2.084   7.314  13.754 -0.2690  0.1784 -0.1841
51005SOL    HW170625   2.172   7.344  13.780  0.7814 -2.6489 -0.1381
51005SOL    HW270626   2.086   7.314  13.658  0.0844 -0.6628 -0.1796
51006SOL     OW70627   7.694  13.123   2.333  0.1279  0.3172  0.0643
51006SOL    HW170628   7.697  13.139   2.427 -2.4736  1.0456  0.0922
51006SOL    HW270629   7.648  13.040   2.324 -0.9685  0.9622 -0.5628
51007SOL     OW70630   7.709   0.203   9.816  0.2823 -0.1143  1.0941
51007SOL    HW170631   7.795   0.192   9.774  0.9243  1.4022  1.9407
51007SOL    HW270632   7.681   0.114   9.837  1.1547 -0.7130 -0.1284
51008SOL     OW70633   8.338   4.169   1.180  0.1915  0.5150  0.6166
51008SOL    HW170634   8.287   4.141   1.104  1.2928  0.8529 -0.2772
51008SOL    HW270635   8.276   4.164   1.253 -0.6790 -0.5873 -0.1496
51009SOL     OW70636  12.452   3.087  12.083  0.5095  0.6077 -0.4671
51009SOL    HW170637  12.369   3.062  12.042  1.0246 -0.2550 -1.0129
51009SOL    HW270638  12.455   3.182  12.076  0.0000  0.5675 -1.2774
51010SOL     OW70639  11.816   4.203   5.750 -0.1632 -0.1557 -0.4290
51010SOL    HW170640  11.800   4.272   5.687 -3.4033 -1.4306 -1.2007
51010SOL    HW270641  11.795   4.242   5.835 -0.7230  0.1623 -0.7122
51011SOL     OW70642   0.943  10.688   9.464  0.4422 -0.0755  0.6103
51011SOL    HW170643   0.865  10.730   9.503  0.5602 -0.0270  0.7993
51011SOL    HW270644   1.009  10.694   9.533  0.5808 -0.2128  0.4884
51012SOL     OW70645  10.752   0.980   3.115 -0.2998  0.5071  0.1350
51012SOL    HW170646  10.820   0.968   3.181 -0.9544  0.8677  0.8835
51012SOL    HW270647  10.758   1.073   3.092  0.1307  0.3159 -0.5445
51013SOL     OW70648   7.583   1.992   1.777  1.0624  0.4414 -0.0159
51013SOL    HW170649   7.629   1.936   1.840  0.5303  1.6080  1.4824
51013SOL    HW270650   7.491   1.986   1.803  1.0153  2.1190  0.3193
51014SOL     OW70651   9.504  11.185  12.888 -0.2434  0.0782  0.2029
51014SOL    HW170652   9.446  11.150  12.820 -0.8480 -0.9710  1.2252
51014SOL    HW270653   9.523  11.274  12.859 -0.4833 -0.3365 -1.3427
51015SOL     OW70654   4.873   3.102   3.867 -0.1648  0.5429  0.1990
51015SOL    HW170655   4.854   3.155   3.789  0.2047  0.7520  0.2479
51015SOL    HW270656   4.867   3.011   3.836  2.9009  0.5923 -0.8574
51016SOL     OW70657   5.958   7.953   3.982 -0.2830  0.4915 -0.0086
51016SOL    HW170658   5.993   8.024   3.929  1.3253  0.5886  1.1172
51016SOL    HW270659   5.938   7.884   3.919 -0.9079  1.5276 -0.9993
51017SOL     OW70660   0.549   2.272  12.435 -0.2699  0.1524  0.4986
51017SOL    HW170661   0.635   2.266  12.393 -0.2019  0.3805  0.6033
51017SOL    HW270662   0.565   2.251  12.527 -0.3692 -0.0498  0.4716
51018SOL     OW70663   8.950   2.386   5.420 -0.2515  0.1389  0.0017
51018SOL    HW170664   9.019   2.451   5.409  2.2757 -2.4714 -0.6779
51018SOL    HW270665   8.904   2.413   5.500 -0.6818  3.7816 -1.3205
51019SOL     OW70666   8.580  13.525  11.909  0.5669  0.0832 -0.3699
51019SOL    HW170667   8.585  13.492  11.999 -1.5284 -0.0146 -0.2306
51019SOL    HW270668   8.621  13.457  11.856  1.4239 -0.0700  0.4526
51020SOL     OW70669   4.229  10.469   9.234 -0.4980  0.3031 -0.4288
51020SOL    HW170670   4.137  10.491   9.221 -0.3733 -0.2093 -2.6719
51020SOL    HW270671   4.276  10.534   9.182  0.2231 -1.0702 -1.5535
51021SOL     OW70672   1.699   2.128   9.645  0.2231  0.1303  0.4445
51021SOL    HW170673   1.794   2.137   9.641  0.2859 -0.2327  0.9475
51021SOL    HW270674   1.666   2.218   9.634  0.7139  0.6115  2.4570
51022SOL     OW70675  12.234  12.910   2.663  0.3215  0.4388 -0.3710
51022SOL    HW170676  12.155  12.950   2.698  0.3308 -1.9562  2.9179
51022SOL    HW270677  12.207  12.871   2.580 -2.0811 -0.5131  0.7646
51023SOL     OW70678   0.381   7.424  13.318  0.1428 -0.6165 -0.6318
51023SOL    HW170679   0.288   7.410  13.298 -0.1369  0.6536 -0.2915
51023SOL    HW270680   0.409   7.342  13.358 -1.0079 -0.7991 -0.1516
51024SOL     OW70681  13.104   6.951  13.668 -0.2512 -0.3922 -0.4423
51024SOL    HW170682  13.170   6.941  13.737 -1.1736  1.2194  0.7494
51024SOL    HW270683  13.130   7.030  13.621 -0.2614 -0.8535 -1.2354
51025SOL     OW70684  11.220   1.799  13.700 -0.2156  0.6647 -0.1930
51025SOL    HW170685  11.231   1.840  13.786 -0.3306  0.1452  0.0738
51025SOL    HW270686  11.290   1.837  13.647  0.8520 -0.1506  0.5690
51026SOL     OW70687   4.787   1.997  10.523 -0.0029 -0.3930  0.5771
51026SOL    HW170688   4.779   1.923  10.583  0.7832 -2.5491 -1.8057
51026SOL    HW270689   4.783   1.958  10.436  0.4235  2.3964 -0.7988
51027SOL     OW70690   9.795  11.771   3.258 -0.4505  0.2766 -0.3626
51027SOL    HW170691   9.836  11.687   3.238 -1.9664 -0.7404  0.5959
51027SOL    HW270692   9.816  11.827   3.183  0.7279 -0.8925 -0.9311
51028SOL     OW70693  10.393   1.187   7.073  0.2097 -0.0144 -0.1528
51028SOL    HW170694  10.355   1.122   7.131 -2.1454  0.8526 -0.6122
51028SOL    HW270695  10.422   1.137   6.997 -0.3994 -0.6762  0.0402
51029SOL     OW70696   1.638  11.836   7.165 -0.2999 -0.2728 -0.1095
51029SOL    HW170697   1.673  11.751   7.191  1.2562  0.5059  0.4545
51029SOL    HW270698   1.677  11.853   7.079  1.3583  0.9053  0.8224
51030SOL     OW70699  14.088   5.611  11.217 -0.8905  0.2562  0.1770
51030SOL    HW170700  13.999   5.630  11.188 -1.1067 -2.5556 -1.3652
51030SOL    HW270701  14.078   5.582  11.308 -1.2563  1.5808  0.5921
51031SOL     OW70702  11.844   5.626   8.638 -0.6181  0.3216  1.1596
51031SOL    HW170703  11.820   5.621   8.545 -3.5938 -0.2216  1.8812
51031SOL    HW270704  11.886   5.711   8.647  2.0097 -0.5514 -1.0609
51032SOL     OW70705   0.506   9.374  12.634  0.4600  0.0162  0.0840
51032SOL    HW170706   0.566   9.312  12.592  2.5327  1.3819  0.8913
51032SOL    HW270707   0.439   9.391  12.568  0.7605 -1.7888 -0.7406
51033SOL     OW70708   4.462   3.076   0.965  0.5609  0.1551 -0.7194
51033SOL    HW170709   4.487   3.015   1.034 -1.1476 -0.4423 -0.5664
51033SOL    HW270710   4.508   3.045   0.887  1.0138 -0.3160 -0.2674
51034SOL     OW70711   8.743   8.298   5.616  0.0789  0.1367 -0.5155
51034SOL    HW170712   8.649   8.281   5.604  0.1564  0.7655 -2.2574
51034SOL    HW270713   8.752   8.392   5.605  0.6288  0.4630  2.0855
51035SOL     OW70714   8.586   4.251   2.120  0.5076 -0.3252 -0.2700
51035SOL    HW170715   8.653   4.187   2.097  0.0640  0.0889 -3.1107
51035SOL    HW270716   8.561   4.291   2.036 -1.9433  0.8627  0.9090
51036SOL     OW70717   0.272   9.447   5.040  0.2437 -0.3264  0.9882
51036SOL    HW170718   0.189   9.411   5.069  0.0632 -0.8050 -0.0760
51036SOL    HW270719   0.254   9.540   5.026 -0.4917 -0.6600 -0.4878
51037SOL     OW70720   6.958   8.941   9.527 -1.0062  0.1409 -0.0423
51037SOL    HW170721   6.984   8.849   9.527 -1.1764  0.0736 -1.2435
51037SOL    HW270722   7.030   8.986   9.571 -0.4900 -0.4592 -0.2590
51038SOL     OW70723   2.858   7.282   8.503 -0.0638 -0.0142  0.2690
51038SOL    HW170724   2.842   7.294   8.597  0.1926  1.9060  0.0942
51038SOL    HW270725   2.912   7.356   8.477  0.4025 -0.8453 -1.2949
51039SOL     OW70726   4.126  12.668   8.190  0.5232 -0.1958 -0.3639
51039SOL    HW170727   4.184  12.635   8.120  1.1606  1.0407 -0.4583
51039SOL    HW270728   4.152  12.760   8.200  0.5133 -0.3644  1.5754
51040SOL     OW70729   9.192   9.161   5.250  0.6844  0.0752 -0.4166
51040SOL    HW170730   9.259   9.225   5.226 -0.1728  0.5415 -1.6647
51040SOL    HW270731   9.164   9.123   5.167 -0.4545 -0.2583  0.0979
51041SOL     OW70732  11.085  14.024   2.099  0.4705 -0.4611 -0.2173
51041SOL    HW170733  11.120  13.986   2.018 -1.1551 -1.8015 -0.3669
51041SOL    HW270734  11.157  14.018   2.162  0.9387 -1.8894 -0.8432
51042SOL     OW70735   4.080   5.151  13.145  0.6880 -0.3530 -0.0043
51042SOL    HW170736   4.148   5.092  13.177  1.9578  1.7617  1.4696
51042SOL    HW270737   4.120   5.195  13.070  1.3054  1.3434  1.2344
51043SOL     OW70738   4.607   8.653   2.098 -0.4328  0.4315  0.1200
51043SOL    HW170739   4.687   8.704   2.084  0.5623 -0.8940  0.7533
51043SOL    HW270740   4.576   8.633   2.010  0.2022  0.5605 -0.1397
51044SOL     OW70741   1.575   0.573  11.272 -0.1863 -0.9065 -0.9604
51044SOL    HW170742   1.565   0.609  11.184  0.4582  0.9827 -0.3048
51044SOL    HW270743   1.669   0.581  11.291 -0.2035 -1.9340 -0.3341
51045SOL     OW70744   3.617   5.186   7.011  0.1952  0.0167  0.5695
51045SOL    HW170745   3.693   5.149   7.055  0.0852  0.0108  0.7588
51045SOL    HW270746   3.644   5.274   6.985  0.2636  0.0168  0.6415
51046SOL     OW70747   5.812   1.642   9.769  0.3636  0.2935 -0.3214
51046SOL    HW170748   5.754   1.572   9.737  1.0629 -0.5441  0.1985
51046SOL    HW270749   5.809   1.708   9.700  2.4684 -1.7954 -2.6540
51047SOL     OW70750   5.376   3.680   3.201  0.4654  0.2925  0.0648
51047SOL    HW170751   5.390   3.725   3.117 -0.6898  0.3375 -0.1203
51047SOL    HW270752   5.369   3.751   3.264  0.5887  0.2888  0.0829
51048SOL     OW70753   5.935  10.772   8.286  0.1722 -0.1533 -0.5373
51048SOL    HW170754   5.870  10.775   8.216  0.0629 -1.0812 -0.4866
51048SOL    HW270755   5.902  10.831   8.353 -0.2901 -0.1200 -0.7956
51049SOL     OW70756   1.792   1.997   0.772 -0.5552 -0.2395 -0.5199
51049SOL    HW170757   1.840   1.982   0.853 -1.4049 -0.4837 -0.0549
51049SOL    HW270758   1.848   2.057   0.722  0.0346 -0.1853  0.1864
51050SOL     OW70759   2.047  10.187   3.873  0.3785  0.0887  0.2744
51050SOL    HW170760   2.090  10.192   3.959  0.1987 -1.1975  0.4583
51050SOL    HW270761   2.120  10.186   3.811  0.4933  2.3612  0.2864
51051SOL     OW70762  11.862  13.720   1.403 -0.0762 -0.4922 -0.6832
51051SOL    HW170763  11.817  13.647   1.361  0.2628 -0.6802 -0.7261
51051SOL    HW270764  11.945  13.727   1.356  0.2230 -0.5765 -0.1773
51052SOL     OW70765   6.338   1.947  12.309  0.0673  0.1736 -0.1354
51052SOL    HW170766   6.375   1.879  12.253  1.2443  0.1578  0.6180
51052SOL    HW270767   6.243   1.942  12.294  0.2191 -0.9608 -0.8363
51053SOL     OW70768   9.070  10.418   5.906  0.4119  0.1891  0.2218
51053SOL    HW170769   9.158  10.446   5.879  1.3229 -0.6227  2.1181
51053SOL    HW270770   9.076  10.411   6.002 -1.5191 -0.5956  0.3237
51054SOL     OW70771   4.522   4.331   1.867 -0.0266  0.0933 -0.1639
51054SOL    HW170772   4.444   4.383   1.885 -0.2888 -0.2621 -0.2565
51054SOL    HW270773   4.595   4.390   1.886 -0.2932  0.0231  1.2159
51055SOL     OW70774  10.529  10.902   0.965 -0.5523 -0.0332 -0.5047
51055SOL    HW170775  10.606  10.893   1.021 -0.4737 -0.0269 -0.6109
51055SOL    HW270776  10.564  10.917   0.877 -0.6795  0.5631 -0.4549
51056SOL     OW70777  11.435   1.195   1.867 -0.1311  0.0709  0.0157
51056SOL    HW170778  11.435   1.261   1.937  1.6104 -0.9496  1.0500
51056SOL    HW270779  11.504   1.134   1.892  0.8067 -0.1578 -2.7984
51057SOL     OW70780  12.262   4.464  13.688 -0.4006  0.0511 -0.6293
51057SOL    HW170781  12.244   4.371  13.672  0.2784 -0.4328  1.1635
51057SOL    HW270782  12.196   4.510  13.637 -1.6467 -1.4557 -0.4619
51058SOL     OW70783   0.481  13.954   5.166 -0.2165  0.3451 -0.1000
51058SOL    HW170784   0.553  13.922   5.221  0.1399 -0.3632 -0.9596
51058SOL    HW270785   0.512  14.038   5.131  0.0891  0.1661 -0.2611
51059SOL     OW70786   6.465   6.588   0.680  0.3003 -0.2577  0.0266
51059SOL    HW170787   6.504   6.595   0.593 -2.1326  0.0138 -1.1154
51059SOL    HW270788   6.537   6.606   0.740  1.5899  1.7799 -1.9745
51060SOL     OW70789   8.514   4.196   3.109 -0.3991 -0.1610 -0.0200
51060SOL    HW170790   8.566   4.274   3.089 -1.9081  0.6731 -0.8717
51060SOL    HW270791   8.490   4.207   3.201  2.7206 -1.7062  1.1357
51061SOL     OW70792  13.229  10.105  10.397 -0.2917  0.2655  0.2983
51061SOL    HW170793  13.324  10.102  10.390 -0.2090  0.8881  1.0025
51061SOL    HW270794  13.199  10.022  10.361  0.1599  1.9496 -4.7274
51062SOL     OW70795   6.396  11.419   0.966  0.4511  0.3581  0.3112
51062SOL    HW170796   6.403  11.341   0.911  2.7699  0.2886  0.5740
51062SOL    HW270797   6.408  11.387   1.055  2.6486  1.0733  0.3379
51063SOL     OW70798   5.706   6.704   1.016  0.0996 -0.0448  0.4197
51063SOL    HW170799   5.778   6.767   1.022 -0.8996  1.1008  0.8114
51063SOL    HW270800   5.636   6.744   1.068 -1.2851 -0.4884 -1.0464
51064SOL     OW70801  10.717   0.962   1.101 -0.6217 -0.1795 -0.3177
51064SOL    HW170802  10.702   0.999   1.014 -1.6265 -0.6262 -0.3435
51064SOL    HW270803  10.759   0.878   1.085  1.0076  0.5946 -0.2838
51065SOL     OW70804  10.670  12.323   1.328  0.4627  0.1251 -0.0463
51065SOL    HW170805  10.696  12.414   1.337  1.8998  0.0538 -2.7163
51065SOL    HW270806  10.752  12.274   1.336  0.2544 -0.6253 -2.1431
51066SOL     OW70807   0.762   9.341   9.965 -0.2074 -0.1995 -0.2242
51066SOL    HW170808   0.822   9.386   9.906  0.2835  1.1677  1.2380
51066SOL    HW270809   0.712   9.282   9.909  1.1807  0.0189 -1.7706
51067SOL     OW70810  11.511  11.338  10.693  0.6217 -0.2294  0.5758
51067SOL    HW170811  11.495  11.324  10.786 -1.7653  0.4870  0.3280
51067SOL    HW270812  11.438  11.294  10.650  0.2116  1.7086 -0.8142
51068SOL     OW70813   2.261   2.779   8.457 -0.0072 -0.1270  0.5534
51068SOL    HW170814   2.199   2.835   8.503  1.1531  1.6425  0.0388
51068SOL    HW270815   2.210   2.702   8.432 -1.1511 -0.2375  3.0147
51069SOL     OW70816   5.958  13.603   6.719  0.8483  0.0013  0.1841
51069SOL    HW170817   6.015  13.536   6.683  1.8607  0.8719  0.1183
51069SOL    HW270818   6.002  13.686   6.700  1.2047  0.5528  2.8896
51070SOL     OW70819   3.224   8.370   7.160  0.2989  0.4252 -0.8968
51070SOL    HW170820   3.171   8.442   7.194  1.3995 -0.4256  3.1405
51070SOL    HW270821   3.174   8.291   7.183  1.7043 -0.2480 -0.0440
51071SOL     OW70822   4.552   5.602   3.497 -0.3990  0.0396 -0.1649
51071SOL    HW170823   4.484   5.669   3.504 -1.6411 -1.0829 -1.1669
51071SOL    HW270824   4.521   5.530   3.551 -0.5625 -0.8965 -1.4531
51072SOL     OW70825   3.612   9.914   5.766 -0.5914 -0.4013 -0.3231
51072SOL    HW170826   3.651   9.945   5.684 -1.2697 -0.4769 -0.6859
51072SOL    HW270827   3.518   9.909   5.747 -0.9821  1.2239  0.9843
51073SOL     OW70828   8.409   9.469   3.665  0.1657  0.4093 -0.5783
51073SOL    HW170829   8.423   9.376   3.679 -0.8282  0.1993 -0.9189
51073SOL    HW270830   8.473   9.494   3.599 -2.0478 -0.9104 -3.4296
51074SOL     OW70831   9.218   3.292   5.663  0.2337 -0.0461  0.7403
51074SOL    HW170832   9.160   3.345   5.718  1.6178  2.4297 -0.0142
51074SOL    HW270833   9.306   3.314   5.694  0.9477 -0.2995 -1.0063
51075SOL     OW70834   8.153   9.366   2.322  0.4774  0.1051 -0.3212
51075SOL    HW170835   8.103   9.374   2.404  1.7651 -0.5845  0.5683
51075SOL    HW270836   8.244   9.368   2.350  0.9491 -2.1300 -1.5207
51076SOL     OW70837   7.263  14.037   2.708 -0.8246 -0.8810  0.5755
51076SOL    HW170838   7.356  14.037   2.684 -1.1289  0.0532 -0.7835
51076SOL    HW270839   7.262  14.057   2.801  0.3133  0.4487  0.3344
51077SOL     OW70840   9.055   1.031   0.416  0.6657  0.0627  0.3585
51077SOL    HW170841   9.028   1.050   0.506  1.3852 -2.1344  1.0989
51077SOL    HW270842   9.114   1.102   0.393  0.7320  0.4874  1.7448
51078SOL     OW70843   9.120   3.412   9.199 -0.5700 -0.1331  0.7613
51078SOL    HW170844   9.101   3.465   9.122  1.9968  0.4766  0.4370
51078SOL    HW270845   9.154   3.329   9.164 -0.0761 -0.1329  1.2105
51079SOL     OW70846   1.644   6.640  13.873 -0.5926 -0.8201 -0.2571
51079SOL    HW170847   1.636   6.723  13.825 -0.5390 -0.5714  0.1625
51079SOL    HW270848   1.569   6.640  13.933 -0.8097 -1.2532 -0.5234
51080SOL     OW70849   5.249  13.085   5.827  0.2153 -0.3175 -0.1360
51080SOL    HW170850   5.302  13.013   5.793 -1.9023 -1.8745 -0.2975
51080SOL    HW270851   5.289  13.105   5.912  0.9760 -1.5338 -0.1755
51081SOL     OW70852  13.628   3.016   3.729 -0.1796  0.2091  0.3042
51081SOL    HW170853  13.623   3.002   3.824 -0.3287  0.2358  0.2992
51081SOL    HW270854  13.539   3.039   3.703 -0.6776 -2.0228 -0.1985
51082SOL     OW70855   7.917   3.882   7.138  0.2478  0.0489 -0.1496
51082SOL    HW170856   7.861   3.815   7.176  0.9368 -0.2548  0.3538
51082SOL    HW270857   7.914   3.954   7.201  0.1387  0.1720 -0.2961
51083SOL     OW70858   8.476   2.324   5.461 -0.0925  0.6152 -0.2939
51083SOL    HW170859   8.451   2.375   5.538  0.1599  2.4045 -1.3331
51083SOL    HW270860   8.393   2.300   5.420 -0.2594 -0.9821  0.8584
51084SOL     OW70861   6.913   3.764   5.567 -0.2330 -0.0923  0.2567
51084SOL    HW170862   6.944   3.727   5.485 -2.3552 -0.7960 -0.3123
51084SOL    HW270863   6.941   3.856   5.565  0.7112 -0.3861 -0.7100
51085SOL     OW70864   8.896   6.162   3.973  0.0765 -0.0089 -0.5632
51085SOL    HW170865   8.828   6.226   3.992  0.6210  0.2093  0.7596
51085SOL    HW270866   8.952   6.205   3.907  1.2311  1.5163  1.2889
51086SOL     OW70867   5.850   1.492   5.398 -0.1007  0.6128 -0.4620
51086SOL    HW170868   5.780   1.432   5.370 -0.0893  0.0274  0.6770
51086SOL    HW270869   5.923   1.472   5.340  0.1942 -1.1347  0.4179
51087SOL     OW70870   3.771   3.946   5.941 -0.7658  0.7005 -0.5569
51087SOL    HW170871   3.846   3.957   5.884 -0.0561  2.0810  0.5760
51087SOL    HW270872   3.781   3.858   5.978 -0.1895  0.5462 -1.0718
51088SOL     OW70873   1.564  13.885  10.690  0.3219 -0.2645  0.2844
51088SOL    HW170874   1.638  13.920  10.641  0.4150 -0.8321  0.0113
51088SOL    HW270875   1.487  13.930  10.653  0.4470 -0.2905 -0.0073
51089SOL     OW70876  10.732  13.059   1.388 -0.3942 -0.1236  0.6918
51089SOL    HW170877  10.697  13.147   1.371  0.0247 -0.3889 -1.8310
51089SOL    HW270878  10.805  13.050   1.327 -0.9409 -2.5384  0.3004
51090SOL     OW70879   1.455   2.367   3.869  0.1928  0.5044 -0.4118
51090SOL    HW170880   1.477   2.458   3.890 -0.1964  0.3760  0.5601
51090SOL    HW270881   1.520   2.314   3.915 -1.9105  0.1308  2.3283
51091SOL     OW70882   8.515   8.271   7.514 -0.3088 -0.6796  0.1049
51091SOL    HW170883   8.589   8.311   7.468 -0.4826  0.6033  0.8895
51091SOL    HW270884   8.553   8.198   7.562  0.1866 -0.9211 -0.6441
51092SOL     OW70885   9.863   5.087  13.301 -0.1829  0.1821 -0.1855
51092SOL    HW170886   9.951   5.094  13.264  0.8331 -1.4956  1.7324
51092SOL    HW270887   9.871   5.126  13.389 -0.0078 -3.9519  1.8831
51093SOL     OW70888  13.303   7.065  11.736 -0.0668  0.4205  0.7923
51093SOL    HW170889  13.234   7.063  11.670  0.5951  0.0244  0.0912
51093SOL    HW270890  13.277   6.997  11.799 -0.0950 -0.0362  0.2997
51094SOL     OW70891   8.763   3.432  12.495 -0.2869 -0.0058 -0.5022
51094SOL    HW170892   8.719   3.511  12.527 -2.0037 -1.4960  0.9766
51094SOL    HW270893   8.798   3.390  12.574 -1.9091 -2.1834 -0.8575
51095SOL     OW70894  10.491  12.200   8.352  0.0903 -0.2392  0.2112
51095SOL    HW170895  10.521  12.246   8.431 -0.3134 -1.0241  0.8452
51095SOL    HW270896  10.436  12.129   8.386  0.8994 -1.3501 -0.7032
51096SOL     OW70897   9.452  11.644   4.431  0.7716  0.0538 -0.1596
51096SOL    HW170898   9.406  11.641   4.347  1.4927 -1.5499 -0.5404
51096SOL    HW270899   9.402  11.706   4.484 -2.4178 -2.2455 -0.2090
51097SOL     OW70900  14.089  12.344  11.943  0.0981  0.2341 -0.1035
51097SOL    HW170901  14.173  12.323  11.901 -0.1313  0.4188 -0.6759
51097SOL    HW270902  14.030  12.361  11.869  0.2968  3.0242  0.2731
51098SOL     OW70903   8.592  10.339   0.011 -0.2283  0.3373 -0.3052
51098SOL    HW170904   8.573  10.391  -0.066 -1.5758 -0.1515 -0.3274
51098SOL    HW270905   8.538  10.378   0.080 -0.1324 -0.1239  0.0331
51099SOL     OW70906  12.481  11.113   3.429 -0.1586 -0.2946 -0.2543
51099SOL    HW170907  12.385  11.110   3.421 -0.3435 -0.8616  1.6657
51099SOL    HW270908  12.501  11.204   3.452 -0.2383 -0.2074 -0.5236
51100SOL     OW70909   1.589   8.377   0.370  0.2644  0.1400 -0.6278
51100SOL    HW170910   1.677   8.388   0.405  0.2951  1.4205 -1.0641
51100SOL    HW270911   1.570   8.283   0.381  0.2207  0.4218  2.8537
51101SOL     OW70912   0.517  11.846  12.578  0.3481  0.6037  0.0030
51101SOL    HW170913   0.556  11.928  12.545 -1.3733  1.0124 -1.1546
51101SOL    HW270914   0.453  11.822  12.511  0.9351 -1.8243  0.2354
51102SOL     OW70915  13.746   2.508  10.369  0.3720 -0.1129 -0.3500
51102SOL    HW170916  13.740   2.588  10.420  0.3374  0.3420 -1.0551
51102SOL    HW270917  13.832   2.471  10.392 -0.3627 -0.8716  1.3857
51103SOL     OW70918   2.688   9.783   4.807  0.2276  0.1538  0.2759
51103SOL    HW170919   2.662   9.693   4.788  0.3796 -0.0611  1.0669
51103SOL    HW270920   2.607   9.834   4.797 -0.5077 -0.4760  2.5270
51104SOL     OW70921   2.402   0.336   1.941  0.0080  0.3999  0.0536
51104SOL    HW170922   2.347   0.272   1.896 -0.0071 -1.0543  2.0055
51104SOL    HW270923   2.341   0.401   1.975 -0.5581 -1.0560  1.9695
51105SOL     OW70924  10.261   8.739   2.206  0.4606 -0.2798  0.4087
51105SOL    HW170925  10.248   8.680   2.281 -0.4423  2.0693  2.2135
51105SOL    HW270926  10.340   8.789   2.228  0.0283  0.6279 -0.0584
51106SOL     OW70927  11.317   6.200  11.549  0.5031  0.2898 -0.5962
51106SOL    HW170928  11.343   6.292  11.553  0.8338  0.1914 -0.4088
51106SOL    HW270929  11.287   6.180  11.638  0.7228  0.1326 -0.5581
51107SOL     OW70930   0.303   9.531  10.624  0.3458  0.5643 -0.2082
51107SOL    HW170931   0.251   9.540  10.544  3.6277  1.8664 -2.4087
51107SOL    HW270932   0.285   9.610  10.674 -0.1877  0.7452 -0.6811
51108SOL     OW70933   4.842   1.359   2.816 -0.4455  0.1412 -0.4172
51108SOL    HW170934   4.937   1.369   2.817 -0.0433 -2.4933 -1.5441
51108SOL    HW270935   4.808   1.448   2.807  1.9395  1.0984 -0.7834
51109SOL     OW70936  13.914   3.939   2.751 -0.1078 -0.2556 -0.0420
51109SOL    HW170937  13.897   4.004   2.820 -0.9865 -0.6439  0.1172
51109SOL    HW270938  13.939   3.992   2.675 -0.6995  0.2756  0.1180
51110SOL     OW70939   9.713  13.203  12.258  0.3697  0.1117  0.1830
51110SOL    HW170940   9.722  13.295  12.231 -1.9520  0.1692 -0.6376
51110SOL    HW270941   9.663  13.163  12.187 -0.9811 -1.1264  1.7436
51111SOL     OW70942   3.965   2.715  13.932  0.7796  0.2070  0.1517
51111SOL    HW170943   3.889   2.727  13.989  0.9393  1.6022  0.1117
51111SOL    HW270944   4.029   2.779  13.964  1.0181  0.7540 -1.3373
51112SOL     OW70945   9.746   3.391   3.111 -0.2516 -0.4916 -0.5221
51112SOL    HW170946   9.768   3.477   3.074 -0.2017  0.1768  0.9936
51112SOL    HW270947   9.755   3.403   3.206 -0.5613 -2.0911 -0.2707
51113SOL     OW70948  10.204   1.805  12.558 -0.4368  0.0824  0.0466
51113SOL    HW170949  10.227   1.764  12.641  0.4164  1.0184  0.2968
51113SOL    HW270950  10.154   1.739  12.511 -1.0101 -0.4296  1.3433
51114SOL     OW70951  13.199  11.164  10.726  0.0916 -0.2722  0.2830
51114SOL    HW170952  13.106  11.149  10.710  0.0910 -0.6644  0.6529
51114SOL    HW270953  13.229  11.212  10.649 -0.1996 -0.9949 -0.2878
51115SOL     OW70954   3.126   1.765   8.596  0.4643 -0.5855  0.0411
51115SOL    HW170955   3.089   1.677   8.590  0.2260 -0.4775 -0.1374
51115SOL    HW270956   3.085   1.812   8.523 -1.1697  0.3005  1.4414
51116SOL     OW70957   2.201   0.580   4.589 -0.6495  0.2028  0.3965
51116SOL    HW170958   2.150   0.659   4.574  0.3179  0.4831 -1.8116
51116SOL    HW270959   2.284   0.611   4.625 -0.3344  0.1970 -0.3081
51117SOL     OW70960   5.986   3.108   4.473  0.1606 -0.1360  0.0202
51117SOL    HW170961   5.982   3.187   4.526  0.5274  0.4256 -0.7672
51117SOL    HW270962   6.049   3.052   4.518 -1.1233 -0.5782  1.3422
51118SOL     OW70963   3.331   6.215   4.825  0.5334 -0.2385  0.1547
51118SOL    HW170964   3.391   6.158   4.872  2.0699  0.6934 -0.5975
51118SOL    HW270965   3.340   6.190   4.733 -1.9974 -1.6428  0.1906
51119SOL     OW70966   5.817   8.744  12.796  0.4313  0.2802  0.1759
51119SOL    HW170967   5.787   8.655  12.773  1.1238 -0.1746  0.9602
51119SOL    HW270968   5.754   8.773  12.863  0.2309  0.3624 -0.0479
51120SOL     OW70969   9.942  11.030   8.938 -0.0628 -0.1964  0.9251
51120SOL    HW170970  10.023  10.980   8.934 -0.8365 -1.5032  1.1909
51120SOL    HW270971   9.965  11.108   8.989  0.7374 -1.1380  2.0714
51121SOL     OW70972   2.910  11.743   3.507  0.0092  0.0754  0.2758
51121SOL    HW170973   2.901  11.729   3.601  0.6500 -1.6845  0.1045
51121SOL    HW270974   2.955  11.827   3.499  1.1504 -0.3927  1.5788
51122SOL     OW70975   8.032  14.051   2.841  0.4935 -0.1855 -0.1075
51122SOL    HW170976   8.095  13.983   2.818 -0.1264 -0.7684 -0.1139
51122SOL    HW270977   7.988  14.018   2.919  0.8743  0.6662  0.4852
51123SOL     OW70978   6.208   5.718  11.721 -0.2059 -0.2384 -0.2294
51123SOL    HW170979   6.186   5.698  11.812 -1.7834 -1.3725 -0.8101
51123SOL    HW270980   6.288   5.667  11.703  1.2056  1.4389  1.0081
51124SOL     OW70981   5.308   9.659   5.816 -0.4250 -0.2614 -0.0649
51124SOL    HW170982   5.278   9.678   5.727  2.0217 -0.8918 -1.1051
51124SOL    HW270983   5.393   9.703   5.823  0.2633 -1.6954  1.2994
51125SOL     OW70984  11.499   3.758   1.323  0.4219 -0.0541 -0.2864
51125SOL    HW170985  11.412   3.767   1.284  1.2485  0.8761 -1.9977
51125SOL    HW270986  11.514   3.663   1.326  0.0502 -0.1772 -1.6239
51126SOL     OW70987   6.350  13.310  12.968  0.1309  0.2763 -0.4087
51126SOL    HW170988   6.358  13.281  13.058 -0.0115 -1.1215 -0.8335
51126SOL    HW270989   6.258  13.294  12.945  0.3040  0.0816 -0.9842
51127SOL     OW70990   9.843   3.688   1.732 -0.6950  0.6017 -0.2557
51127SOL    HW170991   9.801   3.613   1.691 -1.8639  1.2531 -0.2746
51127SOL    HW270992   9.933   3.685   1.700 -1.0172 -0.1414 -1.1290
51128SOL     OW70993   5.485   2.029   9.354  0.0103 -0.4449 -0.1264
51128SOL    HW170994   5.457   2.023   9.446 -0.1591  1.5157 -0.0088
51128SOL    HW270995   5.580   2.026   9.358  0.0688  1.1323  0.2963
51129SOL     OW70996   6.525   6.406   8.787 -0.0935 -0.4255 -0.6145
51129SOL    HW170997   6.507   6.330   8.842 -1.2144  0.2460 -0.0105
51129SOL    HW270998   6.465   6.473   8.819  1.0004  0.7863 -0.9955
51130SOL     OW70999   7.793   7.068  13.818 -0.1381  0.2046  0.4799
51130SOL    HW171000   7.797   6.992  13.760  1.1003  0.2166  0.5246
51130SOL    HW271001   7.700   7.077  13.840 -0.4737 -0.4621 -0.6191
51131SOL     OW71002   8.744   9.299   1.243 -0.4766  0.2693 -0.6599
51131SOL    HW171003   8.708   9.254   1.319 -0.2720  0.3640 -0.5026
51131SOL    HW271004   8.703   9.257   1.168 -1.4023  0.8079 -0.4687
51132SOL     OW71005   2.637  13.383   6.781  0.2486  0.2088 -0.4081
51132SOL    HW171006   2.646  13.432   6.864 -2.2821  2.2226 -1.1894
51132SOL    HW271007   2.589  13.304   6.805 -1.9031  1.5303 -0.0725
51133SOL     OW71008  11.851   3.182   9.087  0.1666 -0.3417 -0.0362
51133SOL    HW171009  11.828   3.231   9.008  1.2054  1.3097  0.6529
51133SOL    HW271010  11.775   3.125   9.102  0.1669 -1.1316 -2.5039
51134SOL     OW71011   5.822  13.977   5.162 -0.0124  0.4171  0.3368
51134SOL    HW171012   5.788  13.888   5.164 -1.2519  0.8812  0.5207
51134SOL    HW271013   5.917  13.967   5.175  0.0801 -0.9703 -1.1672
51135SOL     OW71014   1.828  13.594  13.384  0.6479  0.2594 -0.4035
51135SOL    HW171015   1.795  13.582  13.473 -0.4261  0.5689 -0.7345
51135SOL    HW271016   1.883  13.673  13.389 -0.1702  0.8336 -0.1906
51136SOL     OW71017   6.354  12.151   9.342 -0.0249 -0.2616 -0.2243
51136SOL    HW171018   6.380  12.128   9.431  0.0054 -2.8657 -0.8132
51136SOL    HW271019   6.296  12.080   9.315 -0.3242  0.6530 -2.1626
51137SOL     OW71020   7.262  13.583   2.545  0.0708  0.2522  0.0171
51137SOL    HW171021   7.303  13.559   2.461  0.2743  1.7634 -0.3434
51137SOL    HW271022   7.218  13.666   2.527 -1.4228 -0.2993  0.9564
51138SOL     OW71023   5.519   8.700   9.242 -0.1109 -1.0087 -0.2123
51138SOL    HW171024   5.455   8.745   9.188  0.7958  0.8000  0.1434
51138SOL    HW271025   5.504   8.607   9.225 -1.9955 -0.5949 -1.0440
51139SOL     OW71026   1.747   6.815   6.484  0.0527 -0.0552  0.1972
51139SOL    HW171027   1.804   6.823   6.408 -0.0073 -0.2421  0.1319
51139SOL    HW271028   1.752   6.722   6.509  1.2344  0.2817  1.3306
51140SOL     OW71029   4.460   0.506  12.370 -0.0873  0.3748  0.0774
51140SOL    HW171030   4.405   0.532  12.444 -0.4772  0.6246 -0.2967
51140SOL    HW271031   4.521   0.579  12.360 -0.3301  0.5510 -0.1348
51141SOL     OW71032  13.854  13.025   4.395  0.4773 -0.1912  0.1309
51141SOL    HW171033  13.797  12.949   4.407 -1.4634  1.1697 -0.0923
51141SOL    HW271034  13.921  13.015   4.462  0.2908 -2.1098  0.0815
51142SOL     OW71035  12.619   1.680  11.557  0.2575  0.1740  0.7560
51142SOL    HW171036  12.702   1.700  11.600  0.3455 -2.0703  1.7742
51142SOL    HW271037  12.634   1.703  11.465  1.4360  1.3444  1.2093
51143SOL     OW71038  12.274   6.837  13.855 -0.6457  0.7149  0.2822
51143SOL    HW171039  12.292   6.885  13.935  1.1660  0.6121 -0.0332
51143SOL    HW271040  12.335   6.873  13.791 -0.7553 -0.5227 -0.5467
51144SOL     OW71041   7.617   0.327   6.372  0.1545  0.5258  0.4850
51144SOL    HW171042   7.538   0.302   6.421  0.9550 -2.2087  0.5718
51144SOL    HW271043   7.584   0.356   6.287 -1.0200  0.6769  0.9723
51145SOL     OW71044   8.845   0.187   3.262 -0.0279  0.5785 -0.1576
51145SOL    HW171045   8.918   0.157   3.207  0.0988 -0.1313  0.3736
51145SOL    HW271046   8.821   0.110   3.312 -1.3577  0.7266 -0.5392
51146SOL     OW71047   6.132   6.552   3.905  0.1271 -0.6402 -0.7217
51146SOL    HW171048   6.098   6.640   3.922  0.6139 -0.4911 -0.5053
51146SOL    HW271049   6.080   6.494   3.961  0.8768 -0.2979  0.3756
51147SOL     OW71050   4.587  11.074   5.277 -0.3196 -0.2051  0.1088
51147SOL    HW171051   4.627  11.094   5.362 -0.9753 -1.4496  0.7349
51147SOL    HW271052   4.502  11.119   5.279 -0.9103 -1.3160  0.6765
51148SOL     OW71053   8.647  12.147   4.373 -0.2534  0.2022 -0.3420
51148SOL    HW171054   8.692  12.086   4.431 -0.6197 -0.5950 -0.8733
51148SOL    HW271055   8.563  12.105   4.356 -0.4087  0.7406 -0.9222
51149SOL     OW71056   3.607   3.414   5.765  0.3027  0.7821  0.1835
51149SOL    HW171057   3.560   3.474   5.707 -1.1461 -0.6190 -0.1760
51149SOL    HW271058   3.580   3.441   5.853  0.9437  1.6665  0.1172
51150SOL     OW71059   3.012  12.652   0.261  0.2501 -0.3232 -0.2639
51150SOL    HW171060   2.946  12.692   0.204 -0.6699  1.4695  1.9193
51150SOL    HW271061   2.968  12.574   0.296 -1.1797  1.3053  1.8332
51151SOL     OW71062  12.477   7.910  12.914  0.5436 -0.5385  0.0592
51151SOL    HW171063  12.456   7.817  12.925  2.8766 -1.2663 -1.0504
51151SOL    HW271064  12.567   7.911  12.881  1.5556  2.2147  2.4800
51152SOL     OW71065   3.949  10.422   1.648  0.0087 -0.6912  0.1805
51152SOL    HW171066   4.010  10.351   1.668  2.8302  1.6675  0.7167
51152SOL    HW271067   3.906  10.395   1.567  1.8621 -2.4948 -0.2832
51153SOL     OW71068  12.420   8.514   2.503  0.0845 -0.4977 -0.6786
51153SOL    HW171069  12.484   8.569   2.458 -0.9918 -0.1692 -1.8562
51153SOL    HW271070  12.362   8.482   2.434 -2.2142  0.7744  0.5482
51154SOL     OW71071   8.302   4.210  12.745  0.5217  0.4475  0.5307
51154SOL    HW171072   8.247   4.201  12.823 -0.5314 -1.3690 -0.3536
51154SOL    HW271073   8.356   4.131  12.746  1.2651  0.9415 -0.0190
51155SOL     OW71074   0.358   6.826   0.453 -0.0354  0.3564  0.2918
51155SOL    HW171075   0.314   6.853   0.372  1.0557  1.8809  0.1733
51155SOL    HW271076   0.288   6.790   0.507 -1.0714  0.8459 -0.6749
51156SOL     OW71077   3.814  13.930   1.221  0.2875  0.4991  0.0720
51156SOL    HW171078   3.722  13.926   1.197  0.6731  0.0027 -1.3951
51156SOL    HW271079   3.831  13.847   1.267  0.6810 -0.8499 -2.3368
51157SOL     OW71080   1.141  10.496   6.923 -0.3005  0.0278  0.2969
51157SOL    HW171081   1.095  10.417   6.953  2.2613 -1.4630  0.6163
51157SOL    HW271082   1.111  10.565   6.983 -0.5628 -1.3336  1.8186
51158SOL     OW71083   5.190   9.645   9.103 -0.4335 -0.1559 -0.2020
51158SOL    HW171084   5.225   9.631   9.190 -0.3435 -1.3328 -0.4101
51158SOL    HW271085   5.173   9.556   9.069 -2.5205  0.3216 -0.5353
51159SOL     OW71086   3.843   8.038   1.571 -0.1096  0.0136  0.1586
51159SOL    HW171087   3.887   8.036   1.656 -1.3226 -0.9622  0.8149
51159SOL    HW271088   3.757   8.078   1.590 -1.7339 -3.1585  0.1699
51160SOL     OW71089   7.228  11.167   1.397 -0.2841  1.0029 -0.9161
51160SOL    HW171090   7.133  11.167   1.410 -0.0444  1.6044  1.0642
51160SOL    HW271091   7.262  11.228   1.462  1.8029 -2.1532  1.2707
51161SOL     OW71092  10.255   5.529   1.130 -0.0495 -0.1003  0.0177
51161SOL    HW171093  10.223   5.595   1.068 -1.7456 -1.5147 -0.6964
51161SOL    HW271094  10.189   5.527   1.199  1.3660  0.8104  1.4659
51162SOL     OW71095  12.642  10.640   0.997  0.1932  0.0796  0.1338
51162SOL    HW171096  12.640  10.610   0.906 -1.1292  1.4244 -0.3443
51162SOL    HW271097  12.586  10.578   1.044  0.9486 -0.6701  0.0530
51163SOL     OW71098   8.314   0.636   8.882 -0.0955  0.0547 -0.4080
51163SOL    HW171099   8.356   0.650   8.797  0.0615  0.4472 -0.2666
51163SOL    HW271100   8.355   0.700   8.940  0.1982 -0.5946  0.1023
51164SOL     OW71101   0.589  13.273   6.219 -0.0154  0.3969 -0.3732
51164SOL    HW171102   0.572  13.341   6.284  0.9406  0.7998 -0.5225
51164SOL    HW271103   0.613  13.196   6.270 -0.9644  0.1932 -0.2075
51165SOL     OW71104   5.171  13.423  11.483  0.1717  0.1183  0.1554
51165SOL    HW171105   5.202  13.513  11.495 -0.5684  0.3072  0.7149
51165SOL    HW271106   5.220  13.390  11.408  1.5300  0.4987  0.8351
51166SOL     OW71107  13.982   2.590   1.284 -0.3581 -0.2068 -0.2102
51166SOL    HW171108  14.064   2.571   1.330 -0.3005 -0.3858 -0.3828
51166SOL    HW271109  13.960   2.508   1.240  0.9329  0.6171 -2.5630
51167SOL     OW71110   4.620   5.214  12.208  0.2569 -0.4004 -0.3933
51167SOL    HW171111   4.542   5.239  12.158  0.6832  0.5539 -0.5981
51167SOL    HW271112   4.613   5.119  12.217 -1.0198 -0.3140 -0.2611
51168SOL     OW71113  11.423   7.956   0.909 -0.1972 -0.3127 -0.3319
51168SOL    HW171114  11.415   7.871   0.865  0.8328 -1.5467  1.6977
51168SOL    HW271115  11.514   7.982   0.894  0.1260 -0.6818  0.8576
51169SOL     OW71116   2.258   3.820   8.972 -0.2778 -0.9377 -0.4478
51169SOL    HW171117   2.229   3.773   8.894  2.0584 -3.8910  0.2864
51169SOL    HW271118   2.353   3.824   8.964  0.0127 -1.0033  2.0581
51170SOL     OW71119   3.812   3.893  11.592 -0.1491  0.1676  0.4691
51170SOL    HW171120   3.801   3.817  11.536 -1.3577  0.4029  0.3540
51170SOL    HW271121   3.869   3.952  11.543 -1.8224  0.7209 -0.9116
51171SOL     OW71122   0.828   4.928  11.810  0.1929  0.1285 -0.4257
51171SOL    HW171123   0.903   4.869  11.812  0.6541  0.7030 -0.6007
51171SOL    HW271124   0.842   4.988  11.883  0.6070  1.0829 -1.2663
51172SOL     OW71125  12.085  10.674   1.876  0.3641  0.3106 -0.2212
51172SOL    HW171126  12.009  10.648   1.929  0.6240  0.8250  0.4116
51172SOL    HW271127  12.161  10.653   1.930  0.5844  2.4021  0.3411
51173SOL     OW71128   1.323   9.183   2.805 -0.4939  0.5934  0.1131
51173SOL    HW171129   1.289   9.197   2.894 -2.1257 -0.7283 -0.2500
51173SOL    HW271130   1.262   9.230   2.749 -1.5620 -1.4114 -0.5213
51174SOL     OW71131   1.660   6.907  12.792  0.0098  0.0479  0.3652
51174SOL    HW171132   1.631   6.817  12.805  2.1357 -0.5220  1.5925
51174SOL    HW271133   1.709   6.928  12.871  0.1961  2.0392 -0.2280
51175SOL     OW71134   1.898   9.473   8.516 -0.1620 -0.3275  0.0833
51175SOL    HW171135   1.936   9.386   8.505  3.3977  1.1664 -0.5158
51175SOL    HW271136   1.917   9.495   8.607 -1.2068 -0.1779  0.2808
51176SOL     OW71137  10.461   1.349   5.854 -0.3476  0.1859  0.0156
51176SOL    HW171138  10.378   1.351   5.808 -0.4300 -0.8044  0.0963
51176SOL    HW271139  10.518   1.409   5.806 -0.5814 -0.4547 -1.0738
51177SOL     OW71140   4.238   4.040   1.787  0.1084 -0.2313 -0.1597
51177SOL    HW171141   4.329   4.068   1.777  0.8565 -2.2798  0.3267
51177SOL    HW271142   4.235   4.000   1.874 -1.2663 -0.1817 -0.1701
51178SOL     OW71143   0.730  10.066  11.477  0.2385 -0.2313  0.6993
51178SOL    HW171144   0.650  10.117  11.466 -0.9218 -1.8967  0.9600
51178SOL    HW271145   0.746  10.028  11.390 -0.8668 -2.0764  1.2389
51179SOL     OW71146  12.847   1.087   8.014  0.0819  0.1347  0.0185
51179SOL    HW171147  12.847   1.071   7.920 -0.6529  0.4290 -0.0427
51179SOL    HW271148  12.754   1.092   8.037  0.2329 -0.6092  0.8773
51180SOL     OW71149  10.823  10.848   7.592  0.1228 -0.0211 -0.0002
51180SOL    HW171150  10.746  10.820   7.543 -0.6694 -0.2729  1.3620
51180SOL    HW271151  10.788  10.893   7.669  1.2858 -1.8695  1.6851
51181SOL     OW71152   5.850   3.887   0.290 -0.0082  0.0510 -0.4565
51181SOL    HW171153   5.940   3.892   0.325 -0.6523 -2.9414  2.1190
51181SOL    HW271154   5.797   3.933   0.356 -0.8220 -2.5268  0.8447
51182SOL     OW71155   3.104   4.709   3.012  0.2750 -0.2515 -0.1078
51182SOL    HW171156   3.025   4.684   2.964  0.2550  0.7239 -0.5957
51182SOL    HW271157   3.172   4.650   2.978 -0.2516 -1.1482  0.3758
51183SOL     OW71158  12.983  13.749   7.465 -0.3350 -0.4881 -0.2325
51183SOL    HW171159  12.946  13.785   7.546 -1.6585 -1.8870 -0.1658
51183SOL    HW271160  13.077  13.764   7.473 -0.5598  0.4346  1.0258
51184SOL     OW71161   4.785   0.817   5.889 -0.6134 -0.7933  0.4859
51184SOL    HW171162   4.849   0.757   5.927 -0.1369 -0.9211 -0.4729
51184SOL    HW271163   4.838   0.886   5.849 -1.1150 -0.3771  0.5283
51185SOL     OW71164   6.919   2.054   2.782  1.0294 -0.3544  0.6102
51185SOL    HW171165   6.911   1.992   2.855  1.4527  0.0957  1.0496
51185SOL    HW271166   6.968   2.128   2.819  2.9524 -0.9240 -0.6175
51186SOL     OW71167   3.864   6.079   9.761 -0.3019  0.3029 -0.6526
51186SOL    HW171168   3.909   6.001   9.731  0.6150  0.7926 -0.5653
51186SOL    HW271169   3.801   6.047   9.826  0.6738 -0.2635  0.0259
51187SOL     OW71170   8.700   9.237   5.726  0.6688  0.2488 -0.1030
51187SOL    HW171171   8.721   9.231   5.632  0.7273 -0.2053 -0.0651
51187SOL    HW271172   8.698   9.146   5.755  2.2265  0.4358  0.6827
51188SOL     OW71173   1.891   4.981   1.874  0.3502  0.0060 -0.1096
51188SOL    HW171174   1.880   4.946   1.963 -1.8855 -0.8934 -0.6757
51188SOL    HW271175   1.927   5.068   1.887 -2.6113  1.1077  1.9544
51189SOL     OW71176   2.039  10.670  11.968 -0.3642  0.3935 -0.0332
51189SOL    HW171177   1.962  10.679  11.912  0.8087 -1.5360 -2.1031
51189SOL    HW271178   2.025  10.588  12.015 -0.1564  0.7089  0.5996
51190SOL     OW71179   5.442   7.897   5.766 -0.7753  0.1610  0.1789
51190SOL    HW171180   5.386   7.916   5.691 -0.4864  0.1209 -0.0431
51190SOL    HW271181   5.384   7.911   5.842 -0.6710  1.5805  0.0195
51191SOL     OW71182  13.697  12.431   9.521 -0.0174 -0.0934  0.5562
51191SOL    HW171183  13.663  12.363   9.462  1.1246  0.3409 -0.6445
51191SOL    HW271184  13.624  12.493   9.531 -0.4660 -0.5601  0.2118
51192SOL     OW71185   6.328   7.307   5.411  0.9586 -0.2934 -0.5732
51192SOL    HW171186   6.338   7.218   5.443  0.1714 -0.1555  0.0839
51192SOL    HW271187   6.242   7.335   5.442  1.6099  1.0654  0.1270
51193SOL     OW71188   0.964   2.741   4.113 -0.2271 -0.2567  0.1872
51193SOL    HW171189   0.884   2.747   4.061  0.9592 -0.0001 -1.7256
51193SOL    HW271190   0.950   2.665   4.170 -1.6311 -0.5242 -0.4676
51194SOL     OW71191   2.957   2.720   1.474 -0.2227 -0.5037 -0.3751
51194SOL    HW171192   2.998   2.804   1.451  0.4943 -0.7851 -0.1303
51194SOL    HW271193   2.904   2.740   1.552  0.4852 -0.4281  0.0914
51195SOL     OW71194  11.267  10.311   6.596 -0.6969  0.3996 -0.1790
51195SOL    HW171195  11.264  10.292   6.502 -0.0445 -0.1505 -0.0964
51195SOL    HW271196  11.359  10.299   6.620 -0.5352  2.1640  0.2128
51196SOL     OW71197  13.036   4.456   8.757 -0.0519 -0.0295 -0.0807
51196SOL    HW171198  12.991   4.541   8.759 -0.7929 -0.2851 -2.3475
51196SOL    HW271199  12.977   4.396   8.802  1.0349  0.7957  2.6727
51197SOL     OW71200   2.009  12.291   7.328  0.3653  0.2435 -0.5144
51197SOL    HW171201   1.922  12.326   7.311  0.1398  0.0685  0.2490
51197SOL    HW271202   2.016  12.215   7.269  0.1446  0.4642 -0.8293
51198SOL     OW71203   3.566  10.780  12.064  0.3960 -0.5146 -0.0383
51198SOL    HW171204   3.520  10.737  12.136  0.9689 -2.0390 -0.5246
51198SOL    HW271205   3.653  10.740  12.064  0.4815 -0.4009 -1.4176
51199SOL     OW71206  12.876  13.859  11.167  0.5289 -0.3279 -0.1621
51199SOL    HW171207  12.898  13.907  11.247  0.1638  1.5703 -1.1570
51199SOL    HW271208  12.830  13.780  11.198 -1.5430  1.4081  1.4625
51200SOL     OW71209  11.958   1.378   5.177  0.4315  0.4430  0.3026
51200SOL    HW171210  12.020   1.314   5.141 -1.1909 -0.1390 -1.6305
51200SOL    HW271211  11.943   1.440   5.105 -2.6975 -0.5785 -0.0361
51201SOL     OW71212  11.965  14.004   2.616  0.4582  0.0468  0.0586
51201SOL    HW171213  11.913  13.954   2.680  0.6411  0.8640  0.8649
51201SOL    HW271214  11.904  14.070   2.583  0.3810 -0.3394 -0.5917
51202SOL     OW71215   7.701  12.806   1.705 -0.4503 -0.1329 -0.0153
51202SOL    HW171216   7.744  12.877   1.657  1.2144 -0.7745  0.4591
51202SOL    HW271217   7.737  12.812   1.794 -0.6052 -1.2967  0.1453
51203SOL     OW71218   9.506  11.370   8.953 -0.5212  0.3346 -0.4917
51203SOL    HW171219   9.434  11.310   8.935 -0.3227  0.4578 -1.8406
51203SOL    HW271220   9.463  11.453   8.975 -0.7869 -0.0569  0.5282
51204SOL     OW71221   6.063   8.510   0.518 -0.7550 -0.1647  0.0100
51204SOL    HW171222   6.038   8.565   0.443  1.9791  0.3937 -0.6137
51204SOL    HW271223   6.081   8.424   0.480  1.2894  0.2923 -0.1648
51205SOL     OW71224   0.327  12.994   2.019  0.1612  0.1768 -0.6047
51205SOL    HW171225   0.412  13.008   1.978 -0.0857 -0.5841 -1.4093
51205SOL    HW271226   0.264  13.027   1.955 -0.2185 -0.7662 -0.7400
51206SOL     OW71227   5.740  11.010  11.718  0.2254 -0.3254  0.0255
51206SOL    HW171228   5.659  11.017  11.768 -0.4744 -0.5754 -1.0378
51206SOL    HW271229   5.804  11.061  11.768 -0.8352  0.7055  0.3672
51207SOL     OW71230   6.660   3.805  13.621  0.2232  0.1511 -0.4226
51207SOL    HW171231   6.737   3.789  13.567  1.1142  1.3689  0.4228
51207SOL    HW271232   6.696   3.825  13.708 -1.1315 -0.9519  0.4238
51208SOL     OW71233  11.645   1.238   8.305 -0.1628 -0.0138 -0.5985
51208SOL    HW171234  11.681   1.326   8.306 -0.6909  0.2090 -0.7625
51208SOL    HW271235  11.648   1.209   8.397 -2.8636  1.3786  0.0140
51209SOL     OW71236   6.337  13.694  10.537 -0.3064  0.3538 -0.6028
51209SOL    HW171237   6.424  13.708  10.499 -0.9978  0.7421 -2.1066
51209SOL    HW271238   6.350  13.706  10.631  1.3396  0.0136 -0.7499
51210SOL     OW71239  10.865   0.634  11.740 -0.4341 -0.3423 -0.0375
51210SOL    HW171240  10.830   0.620  11.828 -0.9483  1.1694  0.0347
51210SOL    HW271241  10.929   0.705  11.751 -1.1334  0.4709 -1.0016
51211SOL     OW71242  12.899  13.678   9.946  0.3979 -0.8972 -0.2222
51211SOL    HW171243  12.941  13.593   9.959 -0.2617 -1.1307  0.4166
51211SOL    HW271244  12.862  13.673   9.858 -0.3369 -1.5826  0.1165
51212SOL     OW71245   6.478  12.763  10.469  0.4089 -0.2094  0.4087
51212SOL    HW171246   6.442  12.709  10.399  3.7021 -1.5723 -0.4217
51212SOL    HW271247   6.435  12.732  10.548 -0.6962 -1.2238 -0.5418
51213SOL     OW71248  10.699  10.517   2.688  0.0860 -0.1488 -0.2535
51213SOL    HW171249  10.640  10.543   2.760  2.2710 -0.7361  1.8888
51213SOL    HW271250  10.777  10.571   2.700  0.2883  0.2035 -2.6705
51214SOL     OW71251  13.210   0.612   6.689  0.4305  0.0737 -0.0385
51214SOL    HW171252  13.301   0.594   6.713  0.2267  0.9457  1.5778
51214SOL    HW271253  13.189   0.548   6.621  1.3187 -2.1891  1.6844
51215SOL     OW71254  10.721   3.532  13.422  0.7235  0.2159 -0.5869
51215SOL    HW171255  10.743   3.467  13.488  0.8589  0.7874 -0.0547
51215SOL    HW271256  10.805   3.568  13.394  0.6235  0.5280 -0.4951
51216SOL     OW71257   9.357  10.324  13.708 -0.6941  0.4080 -0.5027
51216SOL    HW171258   9.360  10.374  13.790 -3.7974  1.3765 -0.8443
51216SOL    HW271259   9.334  10.235  13.735 -1.8117  0.7462 -0.2589
51217SOL     OW71260   7.705   1.771   7.094 -0.9022 -0.4794 -0.5827
51217SOL    HW171261   7.786   1.743   7.050 -1.0879 -0.8100 -0.7199
51217SOL    HW271262   7.690   1.860   7.062 -0.5745 -0.4049 -0.5322
51218SOL     OW71263  12.725   6.734   0.870 -0.0587 -0.1965  0.0741
51218SOL    HW171264  12.658   6.674   0.903 -0.0412 -0.3262 -0.1290
51218SOL    HW271265  12.795   6.677   0.838 -0.1633 -0.0742 -0.3799
51219SOL     OW71266   6.895   1.013   1.482  0.0442 -0.0155  0.0195
51219SOL    HW171267   6.911   0.923   1.511 -0.6754 -0.2118 -0.1909
51219SOL    HW271268   6.954   1.025   1.407 -0.1599 -0.4504 -0.2111
51220SOL     OW71269   7.286   9.234   8.350 -0.1229  0.1005  0.8066
51220SOL    HW171270   7.322   9.191   8.272 -2.1683 -2.4193  1.1095
51220SOL    HW271271   7.359   9.234   8.413  1.4223  1.7770 -0.8754
51221SOL     OW71272   5.044   8.975   0.409 -0.0664  0.1822  0.1616
51221SOL    HW171273   4.985   9.047   0.428 -1.0092 -0.7660  0.9437
51221SOL    HW271274   5.028   8.954   0.317 -0.7629  0.1103  0.2939
51222SOL     OW71275  10.662   7.568   7.135  0.4640 -1.2708  0.2274
51222SOL    HW171276  10.658   7.601   7.045  0.5990 -0.5174  0.4943
51222SOL    HW271277  10.650   7.473   7.126 -1.7722 -0.9792 -0.4004
51223SOL     OW71278   7.491   8.568   3.605 -0.2963 -0.5338  0.7279
51223SOL    HW171279   7.481   8.609   3.519  0.4645 -0.7552  0.5261
51223SOL    HW271280   7.410   8.590   3.652  0.5858  2.3319  1.0985
51224SOL     OW71281   9.886   4.784   3.199 -0.6151  0.6244  0.3454
51224SOL    HW171282   9.881   4.879   3.187  4.0719  0.7846 -3.0408
51224SOL    HW271283   9.883   4.748   3.110  3.1363 -1.7846  0.9847
51225SOL     OW71284  13.568   3.502  11.874  0.1570 -0.4779 -0.3832
51225SOL    HW171285  13.515   3.582  11.872  1.5336  0.5062  0.6813
51225SOL    HW271286  13.628   3.511  11.801 -0.2522 -0.9627 -0.7842
51226SOL     OW71287   2.564  11.903   2.760 -0.4280  0.1783  0.4036
51226SOL    HW171288   2.542  11.934   2.848  0.8488  0.1191  0.7519
51226SOL    HW271289   2.564  11.983   2.707  0.8405  0.5164  0.8868
51227SOL     OW71290   1.300  13.241   9.384  0.1815 -0.3452  0.5908
51227SOL    HW171291   1.270  13.295   9.310 -0.1911  0.2032  1.1372
51227SOL    HW271292   1.309  13.153   9.346  1.1008  0.1471 -0.3878
51228SOL     OW71293  13.412   8.484  10.938 -0.0860  0.3330  0.2111
51228SOL    HW171294  13.406   8.440  10.853  3.1690 -0.1698  0.1212
51228SOL    HW271295  13.474   8.555  10.924  1.4329 -0.4540  2.3956
51229SOL     OW71296   0.474   3.881  11.025 -0.0426  0.3269 -0.1356
51229SOL    HW171297   0.458   3.904  10.933 -1.3892  0.2434  0.0515
51229SOL    HW271298   0.451   3.788  11.031  0.1686  0.2984  0.2525
51230SOL     OW71299  14.034   9.406   7.398  0.5547  0.3385  0.4592
51230SOL    HW171300  14.040   9.433   7.306  2.5268 -1.3694  0.0226
51230SOL    HW271301  13.955   9.352   7.402  0.2358  0.7505 -0.1289
51231SOL     OW71302   5.789   1.098   8.411  0.0247 -0.5046 -0.0108
51231SOL    HW171303   5.818   1.060   8.494 -0.1478 -1.2649 -0.2917
51231SOL    HW271304   5.870   1.118   8.364  0.2007  1.9784  1.2118
51232SOL     OW71305   0.371   7.785   7.713  0.1687  0.2484  0.0712
51232SOL    HW171306   0.461   7.815   7.722  0.8247 -1.7485  0.6284
51232SOL    HW271307   0.373   7.726   7.638 -0.2059 -1.3281  1.2464
51233SOL     OW71308   3.815   9.332  13.081  0.5906 -0.1665 -0.3523
51233SOL    HW171309   3.802   9.425  13.100  3.6255  0.2802  0.0039
51233SOL    HW271310   3.817   9.327  12.986  1.3671  0.3208 -0.3704
51234SOL     OW71311   1.518  13.235  11.963  0.3477 -0.3346  0.2184
51234SOL    HW171312   1.435  13.265  12.001  1.1016  0.4390  1.3336
51234SOL    HW271313   1.505  13.243  11.868 -0.4460  0.9525  0.4051
51235SOL     OW71314   7.264  13.059   8.778 -0.1933 -0.2053  0.1227
51235SOL    HW171315   7.303  13.083   8.862 -1.9034  1.4184  0.5406
51235SOL    HW271316   7.227  12.972   8.792  1.0108 -0.6712  0.4945
51236SOL     OW71317   1.596   3.392  14.069 -0.0304 -0.3683 -0.4268
51236SOL    HW171318   1.578   3.461  14.004 -2.5292  0.2535  0.7803
51236SOL    HW271319   1.685   3.411  14.100  0.5035  0.4306 -2.3152
51237SOL     OW71320   7.892   7.364   0.984  0.6121 -0.1866  0.1170
51237SOL    HW171321   7.983   7.335   0.980  0.6796  0.0562 -0.1270
51237SOL    HW271322   7.841   7.283   0.978  0.7977 -0.2521 -0.6689
51238SOL     OW71323   1.592   6.914  13.757 -0.1066 -0.6582 -0.6172
51238SOL    HW171324   1.604   6.941  13.666  1.8301 -0.2847 -0.3003
51238SOL    HW271325   1.661   6.961  13.805 -2.3439  0.7992  1.4115
51239SOL     OW71326   9.986   6.986   4.619  0.3145 -0.1706 -0.3424
51239SOL    HW171327   9.963   7.076   4.598  0.3994 -0.3006 -1.0337
51239SOL    HW271328   9.957   6.973   4.709  1.0781  0.8109  0.0552
51240SOL     OW71329   6.394  11.215   6.576 -0.5806 -0.1394 -0.3265
51240SOL    HW171330   6.414  11.240   6.485  0.0673  0.1501 -0.1117
51240SOL    HW271331   6.344  11.288   6.611 -1.1267 -0.4024 -0.5520
51241SOL     OW71332   3.914   6.865  12.499  0.5647  0.6575  0.1875
51241SOL    HW171333   3.867   6.927  12.554 -0.3525  1.1207 -1.0582
51241SOL    HW271334   3.890   6.779  12.534  0.9439  0.9630  1.2231
51242SOL     OW71335   5.177   2.347  10.481  0.5039 -0.3684  0.0047
51242SOL    HW171336   5.100   2.293  10.466  1.1316 -0.8282 -1.9387
51242SOL    HW271337   5.192   2.391  10.397  2.0108  0.1530  0.5115
51243SOL     OW71338   5.338   3.927   1.633 -0.1795 -0.0368 -0.1758
51243SOL    HW171339   5.375   3.885   1.710 -1.3173 -0.5540  0.1025
51243SOL    HW271340   5.322   3.855   1.572  0.4439  0.3332 -0.7900
51244SOL     OW71341   8.994  11.177   9.296 -0.7392  0.9966 -0.1334
51244SOL    HW171342   8.959  11.199   9.382  0.0130 -1.0069  0.7684
51244SOL    HW271343   9.017  11.084   9.303  0.0970  0.9806 -2.2527
51245SOL     OW71344  13.385   6.477  13.566  0.7089 -0.0617  0.6104
51245SOL    HW171345  13.339   6.405  13.609  1.6188 -0.8081  0.3758
51245SOL    HW271346  13.458   6.435  13.521 -0.7903  0.5344 -2.6209
51246SOL     OW71347  11.837   6.931   6.579  0.1595  0.8089  0.1219
51246SOL    HW171348  11.839   7.026   6.592  0.1085  1.0321 -1.3429
51246SOL    HW271349  11.918   6.912   6.533  1.5120 -0.2878  2.7457
51247SOL     OW71350   5.237   3.171   3.920 -0.1322 -0.1026 -0.4381
51247SOL    HW171351   5.240   3.089   3.871  0.6158  0.7166 -1.8111
51247SOL    HW271352   5.304   3.162   3.987  0.3849 -0.3695 -0.9879
51248SOL     OW71353   7.913   5.381   7.280 -0.4781 -0.4090 -0.8983
51248SOL    HW171354   7.837   5.339   7.239 -0.8337  0.8063 -1.5480
51248SOL    HW271355   7.984   5.368   7.216 -0.1947 -1.2784 -0.4281
51249SOL     OW71356   4.640  11.849  13.618 -0.5592 -0.2700 -0.7949
51249SOL    HW171357   4.714  11.899  13.583 -0.8495  0.2941 -0.6013
51249SOL    HW271358   4.565  11.907  13.609 -0.5147  0.2267  1.4815
51250SOL     OW71359   2.753   0.581  10.619  0.2882  1.0906 -0.1552
51250SOL    HW171360   2.672   0.601  10.572  0.4109 -1.0348 -1.4275
51250SOL    HW271361   2.730   0.510  10.678  0.7981  1.8544  1.0056
51251SOL     OW71362  11.641   8.118  12.531 -0.1740  0.3195  1.1250
51251SOL    HW171363  11.632   8.207  12.496 -0.3404  0.7172  2.1455
51251SOL    HW271364  11.726   8.118  12.574 -0.2127  0.0111  1.2019
51252SOL     OW71365  13.612  13.245  13.403 -0.9350  0.2370  0.5072
51252SOL    HW171366  13.691  13.191  13.395  0.3395  1.9680  0.9230
51252SOL    HW271367  13.580  13.227  13.491 -0.5562  0.1085  0.6213
51253SOL     OW71368   0.405  10.567  12.940 -0.0316  0.0539 -0.7616
51253SOL    HW171369   0.322  10.525  12.916  0.2266 -1.5649  0.9474
51253SOL    HW271370   0.381  10.630  13.008  0.3937 -2.7706  2.2488
51254SOL     OW71371   1.303   2.270  13.002  0.0088 -0.0148  0.3418
51254SOL    HW171372   1.343   2.185  12.982 -0.2437  0.4331 -2.5950
51254SOL    HW271373   1.376   2.326  13.027  0.4942 -0.5573  0.1668
51255SOL     OW71374  13.092  12.664   4.782  0.7909  0.8505 -0.5129
51255SOL    HW171375  13.103  12.747   4.829  1.5292  0.2512  0.4146
51255SOL    HW271376  13.080  12.599   4.851  1.5346 -0.0019 -1.1690
51256SOL     OW71377   6.410  12.548  10.997 -0.2730 -0.3912  0.1775
51256SOL    HW171378   6.393  12.595  11.078 -1.5462  0.2482 -0.4266
51256SOL    HW271379   6.505  12.538  10.994 -0.2081 -0.4940  1.7591
51257SOL     OW71380  12.470  12.855  13.948 -0.1663  0.1426  0.4676
51257SOL    HW171381  12.542  12.913  13.924 -1.2503  0.4439 -2.4640
51257SOL    HW271382  12.392  12.894  13.908 -1.3646 -1.9967  0.5198
51258SOL     OW71383   1.667   5.644  11.783  0.0683  0.1307 -0.3574
51258SOL    HW171384   1.587   5.642  11.836  0.9431  0.4731  1.0433
51258SOL    HW271385   1.730   5.689  11.838  0.9521  0.7932 -1.8625
51259SOL     OW71386  13.426   3.395   2.728  0.5173  0.1777 -0.6647
51259SOL    HW171387  13.477   3.458   2.780  1.2241 -0.7849 -0.1621
51259SOL    HW271388  13.401   3.444   2.650  1.2567  1.0192 -0.3967
51260SOL     OW71389   3.812   8.407   5.346 -0.1931  0.0493  0.2570
51260SOL    HW171390   3.725   8.433   5.314  0.2605 -0.0225 -1.0823
51260SOL    HW271391   3.836   8.477   5.407 -1.2506 -0.0113  0.7685
51261SOL     OW71392  12.218  12.223   1.341 -1.0403  0.1173 -0.0144
51261SOL    HW171393  12.277  12.243   1.269 -0.1162 -1.4483  0.2663
51261SOL    HW271394  12.258  12.263   1.418 -0.4975 -0.6431  0.1125
51262SOL     OW71395  11.789   9.708   6.725 -0.2151  0.2313  0.5010
51262SOL    HW171396  11.871   9.743   6.690  0.5811 -0.5572  1.5169
51262SOL    HW271397  11.810   9.681   6.814 -1.5567 -0.1081  0.7464
51263SOL     OW71398   5.784  11.892   6.937 -0.0708 -0.4282  0.5976
51263SOL    HW171399   5.760  11.927   7.023  3.1751  0.8223  1.1502
51263SOL    HW271400   5.800  11.970   6.884  0.3994 -1.1755 -0.3757
51264SOL     OW71401   5.675   0.258   8.921 -0.2766 -0.1471  0.3931
51264SOL    HW171402   5.734   0.269   8.846  0.3434  3.5222  1.2100
51264SOL    HW271403   5.689   0.168   8.950 -0.0621 -1.5036 -3.4020
51265SOL     OW71404   9.970  13.187   2.392 -0.3417 -0.2279  0.1978
51265SOL    HW171405   9.933  13.132   2.461  1.2591 -0.3234  1.0131
51265SOL    HW271406   9.971  13.130   2.315 -2.2891 -0.0671 -0.0061
51266SOL     OW71407  13.669   2.548   8.635  0.2710 -0.0148 -0.4639
51266SOL    HW171408  13.741   2.497   8.670 -0.6291 -1.1059 -0.1533
51266SOL    HW271409  13.703   2.638   8.630  0.6677  0.1036  2.5966
51267SOL     OW71410   7.179   3.655   8.248  0.2558 -0.2107  0.6995
51267SOL    HW171411   7.231   3.701   8.315  0.7413  0.3869 -0.0713
51267SOL    HW271412   7.152   3.724   8.188 -0.5833 -0.6766  0.5321
51268SOL     OW71413  10.641  11.422   3.002 -0.0923  0.0957  0.3296
51268SOL    HW171414  10.584  11.411   3.079 -0.9445  0.6916 -0.1946
51268SOL    HW271415  10.703  11.490   3.027 -0.9009  0.8958  0.2155
51269SOL     OW71416  11.482   6.561   5.071  0.4592  0.4962 -0.4453
51269SOL    HW171417  11.567   6.544   5.031  0.0834  0.7046 -1.3606
51269SOL    HW271418  11.463   6.653   5.052 -0.9025 -0.0731 -2.1240
51270SOL     OW71419   3.127   6.839  11.220  0.7174 -0.2467  0.0228
51270SOL    HW171420   3.114   6.860  11.127  1.8113 -1.4690 -0.4359
51270SOL    HW271421   3.117   6.923  11.265 -0.4206  0.2684 -1.1216
51271SOL     OW71422   1.322  10.361  12.665  0.3428 -0.0472 -0.0484
51271SOL    HW171423   1.377  10.323  12.597 -0.2235  0.9663 -1.1003
51271SOL    HW271424   1.377  10.425  12.708  0.5498 -0.3403  0.1249
51272SOL     OW71425   5.633  12.281   3.205  0.5719  0.4547 -0.1399
51272SOL    HW171426   5.645  12.344   3.277 -0.9177  0.1742  0.3959
51272SOL    HW271427   5.700  12.305   3.141  2.7827 -0.0235  1.8213
51273SOL     OW71428  12.693   9.942   3.294 -0.3087  0.1721  0.0486
51273SOL    HW171429  12.720  10.019   3.344 -0.5878  0.4154 -0.1759
51273SOL    HW271430  12.772   9.913   3.249  0.1361 -0.5008  1.2242
51274SOL     OW71431   1.915  10.145  12.025  0.2131 -0.2374 -0.2833
51274SOL    HW171432   1.845  10.124  12.087 -1.0373  3.5864 -0.1411
51274SOL    HW271433   1.870  10.169  11.944  1.5131  0.0504 -0.9549
51275SOL     OW71434   5.358   3.125   2.087  0.2467  0.5575  1.2901
51275SOL    HW171435   5.343   3.199   2.029 -1.0475 -1.1997 -0.7412
51275SOL    HW271436   5.426   3.156   2.147  0.9675  2.8045 -0.5266
51276SOL     OW71437  11.957   4.051   4.211  0.2891 -0.0926 -0.1919
51276SOL    HW171438  12.017   4.078   4.141 -0.1355  1.2941 -0.0508
51276SOL    HW271439  11.871   4.079   4.181  0.1447  0.8559  1.0275
51277SOL     OW71440   2.339   1.812   2.788 -0.2609  0.3902 -0.1649
51277SOL    HW171441   2.270   1.845   2.846  0.6145  0.1962  1.0477
51277SOL    HW271442   2.334   1.866   2.710 -2.5001 -0.3470 -0.5971
51278SOL     OW71443  10.799   0.486   0.280  0.2100 -0.1932  0.2352
51278SOL    HW171444  10.788   0.580   0.264  0.6427 -0.4012 -1.4204
51278SOL    HW271445  10.758   0.444   0.204 -0.9614 -1.3932  1.4831
51279SOL     OW71446   6.060  12.756   7.803  0.3357  0.0926  0.2871
51279SOL    HW171447   6.015  12.693   7.860  1.7603  0.3119  1.7511
51279SOL    HW271448   6.111  12.701   7.743  0.2413 -0.1531  0.4298
51280SOL     OW71449   2.538   9.623   9.846 -1.1275 -0.4127 -0.1181
51280SOL    HW171450   2.619   9.573   9.832  0.7338  1.0590  3.7891
51280SOL    HW271451   2.478   9.561   9.888 -0.8333 -0.7173 -0.1466
51281SOL     OW71452   2.254   3.722  12.772  0.6761 -0.0015  0.0631
51281SOL    HW171453   2.165   3.736  12.802  1.3110  0.6064  1.7586
51281SOL    HW271454   2.281   3.807  12.736 -0.1516 -0.7709 -2.6281
51282SOL     OW71455  13.489   6.661   4.314 -0.7895  0.5162 -0.0305
51282SOL    HW171456  13.437   6.588   4.279 -1.2424 -0.0646  1.7804
51282SOL    HW271457  13.551   6.682   4.244 -1.2667 -0.9817 -0.9430
51283SOL     OW71458   7.961   4.442   2.215  0.0884 -0.2294  0.2047
51283SOL    HW171459   7.898   4.505   2.251 -0.4202 -1.4870  1.6164
51283SOL    HW271460   7.989   4.390   2.290  1.1380 -1.1553 -0.7823
51284SOL     OW71461   6.789  12.610   7.661  0.5905 -0.2555 -0.1573
51284SOL    HW171462   6.778  12.704   7.642 -0.0705 -0.6197 -1.6937
51284SOL    HW271463   6.855  12.580   7.599 -0.0589 -1.0445 -0.4877
51285SOL     OW71464   8.126   2.021   2.272 -0.6364 -0.6370 -0.0757
51285SOL    HW171465   8.059   2.061   2.327 -0.1580 -0.8242  0.6633
51285SOL    HW271466   8.187   1.980   2.334 -0.2673 -1.1504 -0.7559
51286SOL     OW71467   1.203   7.597  13.550  0.0845  0.4290 -0.4390
51286SOL    HW171468   1.207   7.688  13.578  1.4581 -0.2538  1.7296
51286SOL    HW271469   1.286   7.581  13.505  0.1717  0.0422 -0.1459
51287SOL     OW71470   4.708   2.815  10.919 -0.1409  0.3753  0.1098
51287SOL    HW171471   4.764   2.876  10.870  2.0493 -1.2646  0.4082
51287SOL    HW271472   4.715   2.732  10.872 -0.4782 -0.4480  1.4469
51288SOL     OW71473   3.651  11.223   4.155  0.3888  0.0590 -0.1678
51288SOL    HW171474   3.627  11.191   4.068  0.4076  0.8274 -0.4638
51288SOL    HW271475   3.747  11.217   4.157  0.4750  1.0001 -0.6033
51289SOL     OW71476  10.561  10.170   6.858  0.2226 -0.2902 -0.4929
51289SOL    HW171477  10.605  10.250   6.829 -0.5152  1.0273  1.8053
51289SOL    HW271478  10.490  10.157   6.795  1.3978 -0.1950 -1.9068
51290SOL     OW71479  13.925   4.752   5.704  0.2640 -0.1717 -0.0544
51290SOL    HW171480  13.905   4.823   5.643  0.2267  0.9296  1.1915
51290SOL    HW271481  14.017   4.767   5.728  0.3507 -0.7409 -0.0332
51291SOL     OW71482   8.150   1.312  11.256 -0.1295 -1.0705  0.3552
51291SOL    HW171483   8.197   1.390  11.285 -2.3835  0.0629  1.1848
51291SOL    HW271484   8.206   1.273  11.189  1.8895  0.2450  1.1967
51292SOL     OW71485   9.720  10.489   0.982 -0.3129 -0.1247  0.3788
51292SOL    HW171486   9.701  10.400   0.952  0.1349  0.4037 -1.6662
51292SOL    HW271487   9.652  10.509   1.045 -0.5260 -1.8467  0.7404
51293SOL     OW71488   3.028  11.027   1.248 -0.2496  0.0591  0.1152
51293SOL    HW171489   3.024  11.088   1.175  0.2133  0.7601  0.6593
51293SOL    HW271490   3.038  10.941   1.207  0.7448  0.5138 -0.6449
51294SOL     OW71491   0.829   9.231   4.366  0.3321  0.2732  0.4055
51294SOL    HW171492   0.801   9.316   4.333 -2.3157 -1.1431 -1.3546
51294SOL    HW271493   0.900   9.205   4.306 -0.7089  0.1019 -0.7881
51295SOL     OW71494   4.545   4.960  10.716 -0.2873  0.0034 -0.2435
51295SOL    HW171495   4.590   4.927  10.793  0.7759  0.1393 -0.7911
51295SOL    HW271496   4.611   5.011  10.669 -0.7932 -0.4363 -1.4684
51296SOL     OW71497  10.688  10.461   0.245 -0.4332  0.4816 -0.5108
51296SOL    HW171498  10.633  10.457   0.323 -0.0393  2.4758 -0.0674
51296SOL    HW271499  10.627  10.479   0.173 -0.4701  2.1830 -0.0950
51297SOL     OW71500   3.566   2.011   1.857  0.4980 -0.7412 -0.3753
51297SOL    HW171501   3.618   1.987   1.934 -0.1762 -1.1376 -0.0345
51297SOL    HW271502   3.567   1.933   1.802  1.6918 -0.1784 -1.1884
51298SOL     OW71503   0.590  13.153   7.164 -0.3668 -0.3477  0.1159
51298SOL    HW171504   0.599  13.072   7.213  2.2808 -1.4981 -2.0081
51298SOL    HW271505   0.621  13.132   7.076 -0.5852  2.6957 -0.8287
51299SOL     OW71506   5.929   0.546   2.940  0.1080 -0.1353 -0.0400
51299SOL    HW171507   5.840   0.524   2.967  0.0560 -0.1162 -0.1942
51299SOL    HW271508   5.984   0.510   3.009 -0.0663  0.5934  0.4988
51300SOL     OW71509  12.666   2.077   0.213 -0.2671 -0.1570  0.3774
51300SOL    HW171510  12.727   2.007   0.191 -0.8973 -0.3618 -0.7931
51300SOL    HW271511  12.707   2.156   0.178 -1.0410 -0.4154 -1.2200
51301SOL     OW71512  13.231   3.434  10.573  0.1428  0.4956 -0.3067
51301SOL    HW171513  13.299   3.494  10.544  1.0901 -0.3892  0.0295
51301SOL    HW271514  13.270   3.388  10.648 -0.6387 -0.3865 -0.4243
51302SOL     OW71515   6.827   2.298   6.383 -0.6201  0.1732  0.2162
51302SOL    HW171516   6.904   2.323   6.434 -1.0243  2.9152 -0.3428
51302SOL    HW271517   6.757   2.289   6.448 -0.2047 -0.6258  0.5564
51303SOL     OW71518   8.321  10.346   1.425 -0.3921  0.1845  0.0935
51303SOL    HW171519   8.312  10.280   1.356 -0.3124  1.0375 -0.7573
51303SOL    HW271520   8.306  10.429   1.381  0.6636  0.8278  0.8949
51304SOL     OW71521   4.312  12.732   5.662  0.1368  0.2169  0.3145
51304SOL    HW171522   4.389  12.780   5.693 -0.4761  2.1367 -0.9543
51304SOL    HW271523   4.305  12.755   5.569 -0.9724 -1.3185 -0.0177
51305SOL     OW71524   1.406   3.139   7.378 -0.1665 -0.0882 -0.1576
51305SOL    HW171525   1.481   3.089   7.410 -0.8642 -1.3546 -0.4138
51305SOL    HW271526   1.331   3.081   7.394 -0.9799  0.8062 -0.6564
51306SOL     OW71527   3.557  11.040   8.352 -0.8376 -0.0360  0.5094
51306SOL    HW171528   3.568  10.968   8.290  0.5801  0.1465  0.5152
51306SOL    HW271529   3.572  11.000   8.438  1.6205  0.4977  0.4246
51307SOL     OW71530   4.355   5.574  13.169 -0.7514  0.2816  0.5179
51307SOL    HW171531   4.316   5.647  13.217  0.8010  0.5806  1.3730
51307SOL    HW271532   4.369   5.507  13.236 -0.5421 -0.1328  0.0596
51308SOL     OW71533   6.401   5.453   0.083 -0.3765  0.0583 -0.5684
51308SOL    HW171534   6.429   5.536   0.121  0.2514  1.0370 -2.9728
51308SOL    HW271535   6.354   5.408   0.154  0.3436  1.9007  1.1550
51309SOL     OW71536   3.734   9.067   0.185 -0.4014  0.6374  0.3073
51309SOL    HW171537   3.702   9.041   0.271 -1.4136 -0.4242 -0.3551
51309SOL    HW271538   3.734   8.986   0.134 -0.9141  1.4356 -1.0181
51310SOL     OW71539   6.959   3.414   7.419  0.1692  0.1589  0.8463
51310SOL    HW171540   6.949   3.360   7.340  1.1374 -1.1016  1.5374
51310SOL    HW271541   6.887   3.387   7.476  0.9089 -0.7673  1.3701
51311SOL     OW71542   5.248   7.626   4.340 -0.4271 -0.5013 -0.3194
51311SOL    HW171543   5.191   7.664   4.406 -0.7453 -1.1237 -0.2275
51311SOL    HW271544   5.189   7.587   4.276 -0.2325  2.3023 -2.4000
51312SOL     OW71545   1.438  10.665   9.539  0.4955 -0.7361 -0.6487
51312SOL    HW171546   1.485  10.641   9.618 -1.2358 -3.4618 -0.3241
51312SOL    HW271547   1.356  10.704   9.570  1.4567  1.9361 -1.1992
51313SOL     OW71548   5.105   7.816  11.299  0.4232  0.5740  0.2006
51313SOL    HW171549   5.012   7.814  11.321  0.5608  0.1224  0.7551
51313SOL    HW271550   5.115   7.894  11.244 -0.3230  0.4889 -0.0668
51314SOL     OW71551   6.297   4.319  12.917 -0.3747  0.5121  0.2771
51314SOL    HW171552   6.361   4.280  12.857  0.8456  0.9399  1.2635
51314SOL    HW271553   6.212   4.294  12.881  0.3336  0.2050 -1.2521
51315SOL     OW71554  13.254   4.800   6.450  0.0157 -0.1152  0.7717
51315SOL    HW171555  13.216   4.724   6.405  1.4092 -0.0789 -0.5676
51315SOL    HW271556  13.345   4.800   6.423  0.1417  1.8070  1.0720
51316SOL     OW71557   7.430   2.902   6.592  0.0342  0.1679  0.7259
51316SOL    HW171558   7.470   2.840   6.653  0.7451 -1.0375 -0.9020
51316SOL    HW271559   7.491   2.975   6.589  0.2722 -0.0163  1.0053
51317SOL     OW71560   2.441   3.468  12.140  0.0492 -0.1172 -0.0375
51317SOL    HW171561   2.397   3.553  12.131  1.4512  0.6404 -0.0484
51317SOL    HW271562   2.511   3.471  12.075  0.4804 -1.0466  0.3727
51318SOL     OW71563  12.502   5.473  10.642  0.1406 -0.2419 -0.1568
51318SOL    HW171564  12.471   5.388  10.609  0.1191  0.1903 -1.3080
51318SOL    HW271565  12.473   5.475  10.733  2.3906 -2.5806  0.7359
51319SOL     OW71566   2.110   8.422   6.006  0.0709  0.0187 -0.0860
51319SOL    HW171567   2.126   8.407   6.100 -0.4077 -0.2078 -0.0396
51319SOL    HW271568   2.197   8.438   5.970  0.4950 -1.7863  0.0538
51320SOL     OW71569  10.134   3.240   2.417 -0.1120  0.2406 -0.2324
51320SOL    HW171570  10.116   3.307   2.484  1.4845  0.1646  0.2957
51320SOL    HW271571  10.179   3.287   2.347 -0.5943  0.0510 -0.6838
51321SOL     OW71572   5.080  14.041  11.731  0.0303  0.2239 -0.1186
51321SOL    HW171573   5.156  14.013  11.783 -1.5021 -0.0978  2.1215
51321SOL    HW271574   5.102  14.129  11.701  1.1582  0.2627  0.7680
51322SOL     OW71575   0.105   0.315  10.183  0.5237  0.1005 -0.5681
51322SOL    HW171576   0.014   0.314  10.153 -0.8561 -4.2909  2.7364
51322SOL    HW271577   0.114   0.398  10.230 -1.1872  1.3037 -2.2061
51323SOL     OW71578   9.669   2.638   6.101 -0.2199  0.6894 -0.1861
51323SOL    HW171579   9.711   2.568   6.151 -0.9803 -1.2438 -2.0743
51323SOL    HW271580   9.739   2.673   6.046 -0.3996 -0.7151 -1.3976
51324SOL     OW71581  10.185   1.483   9.794 -0.0897 -0.1367  0.2804
51324SOL    HW171582  10.142   1.425   9.731 -0.5367  0.8504 -0.3510
51324SOL    HW271583  10.238   1.541   9.740  0.6501 -0.1898  0.9360
51325SOL     OW71584   6.642   5.263   3.057  0.3109  0.1940 -0.5114
51325SOL    HW171585   6.624   5.263   3.151  2.1095  0.3963 -0.1494
51325SOL    HW271586   6.579   5.327   3.021 -0.4771  0.0210  0.5088
51326SOL     OW71587   7.436   9.260   1.732  0.6698 -0.0884  0.0293
51326SOL    HW171588   7.444   9.170   1.761 -1.4056 -0.2620  0.1815
51326SOL    HW271589   7.436   9.312   1.812 -1.5288 -0.2785  0.2088
51327SOL     OW71590  11.021  12.897   7.324  0.0867  0.2048 -0.0056
51327SOL    HW171591  10.955  12.829   7.337  1.7928 -2.1412 -2.5818
51327SOL    HW271592  10.992  12.944   7.246 -0.7602  2.1900  1.4132
51328SOL     OW71593   2.943  12.127   7.770 -0.3499 -0.0586 -0.2986
51328SOL    HW171594   2.971  12.042   7.738  0.3032 -0.0223  0.1715
51328SOL    HW271595   2.852  12.114   7.797 -0.6845 -0.2616 -1.4963
51329SOL     OW71596  12.033   4.865  13.021  0.5847 -0.4329 -0.5738
51329SOL    HW171597  12.025   4.955  13.050 -0.4668 -0.5672 -0.4101
51329SOL    HW271598  12.069   4.871  12.933  1.8376  0.0681 -0.0441
51330SOL     OW71599   1.936   2.418   5.946  0.0721 -0.1243  0.1518
51330SOL    HW171600   1.930   2.429   6.041  1.0948  0.2801  0.1837
51330SOL    HW271601   2.027   2.440   5.925  0.2713 -1.6279 -0.7302
51331SOL     OW71602   5.161  12.165   8.954  0.2549  1.1308 -0.8736
51331SOL    HW171603   5.205  12.238   8.998 -0.3184  1.7165 -1.2588
51331SOL    HW271604   5.210  12.152   8.873  1.7364 -0.3934  0.1859
51332SOL     OW71605   5.378  12.387  10.662  0.2835 -0.1978  0.2283
51332SOL    HW171606   5.389  12.482  10.660  0.9873 -0.2855 -0.8645
51332SOL    HW271607   5.305  12.370  10.603 -0.4830 -0.2809  1.1691
51333SOL     OW71608   0.601   4.101   9.666  0.4282 -0.4053  0.5067
51333SOL    HW171609   0.655   4.177   9.687  0.0449  0.4967 -1.5688
51333SOL    HW271610   0.629   4.034   9.729  2.3155  0.7505  0.9804
51334SOL     OW71611   0.896   7.257  13.666 -0.2305  0.1272  0.0696
51334SOL    HW171612   0.903   7.348  13.636  0.6089  0.1884  0.4368
51334SOL    HW271613   0.908   7.204  13.587  0.4241  0.3200  0.0349
51335SOL     OW71614  12.775   8.143  12.993  0.1013 -0.8656  0.5739
51335SOL    HW171615  12.840   8.135  12.923  0.5720  1.0954  0.7281
51335SOL    HW271616  12.819   8.192  13.062 -2.0616  2.4567 -0.1462
51336SOL     OW71617   3.764   9.499  10.582  0.2565 -0.0145 -0.8123
51336SOL    HW171618   3.831   9.431  10.590 -0.4681 -0.8931 -1.8642
51336SOL    HW271619   3.694   9.470  10.640 -0.2031 -0.3678 -1.5318
51337SOL     OW71620   0.380  12.931   6.152  0.5714  0.1646 -0.7140
51337SOL    HW171621   0.308  12.943   6.090  0.4696 -0.0882 -0.6475
51337SOL    HW271622   0.449  12.888   6.100 -0.3130 -2.0763 -0.1541
51338SOL     OW71623   4.257   2.309   9.369 -0.2034  0.4164  0.3495
51338SOL    HW171624   4.255   2.360   9.288  1.5875 -0.7192 -0.4698
51338SOL    HW271625   4.166   2.281   9.382 -0.6948  1.4254 -0.7202
51339SOL     OW71626   5.093   6.311   3.650 -0.3097 -0.2596  0.2824
51339SOL    HW171627   5.097   6.403   3.674 -1.0163  0.5907 -2.4815
51339SOL    HW271628   5.008   6.281   3.682  0.2416 -0.2147  1.8669
51340SOL     OW71629   0.091  13.882  12.800 -0.1783 -0.3860 -0.7822
51340SOL    HW171630  -0.003  13.894  12.785  0.1879  0.6309 -2.4965
51340SOL    HW271631   0.123  13.844  12.719  0.8773 -0.9940 -0.1024
51341SOL     OW71632   3.873  13.106   0.604 -0.2778 -0.1039  0.1875
51341SOL    HW171633   3.929  13.045   0.556  0.9515  0.4579  0.8589
51341SOL    HW271634   3.905  13.102   0.694 -1.5235  0.0242  0.6592
51342SOL     OW71635   8.425  10.763   6.592  0.0643  0.3837 -0.7114
51342SOL    HW171636   8.366  10.808   6.531 -2.0619 -1.2530 -0.0131
51342SOL    HW271637   8.374  10.687   6.622  1.3986  0.5420  2.2933
51343SOL     OW71638   0.553   8.744  11.574 -0.6290  0.1355  0.1955
51343SOL    HW171639   0.464   8.774  11.556 -0.4680 -0.2087 -1.3883
51343SOL    HW271640   0.563   8.750  11.669 -2.0258  1.0320  0.3054
51344SOL     OW71641  13.854   0.086  10.731 -0.2466  0.2733 -0.1001
51344SOL    HW171642  13.875   0.004  10.775 -0.8818 -0.7567 -1.6103
51344SOL    HW271643  13.932   0.141  10.744 -0.0913 -0.2877  1.5165
51345SOL     OW71644   4.224  13.096   9.793 -0.9178 -0.0668  0.4887
51345SOL    HW171645   4.313  13.120   9.819 -0.3318 -1.3767 -0.2411
51345SOL    HW271646   4.193  13.170   9.741 -0.5105  0.6752  1.2728
51346SOL     OW71647   5.042   0.789   1.802 -0.0067 -0.1158 -0.2644
51346SOL    HW171648   5.098   0.848   1.752 -0.7048  0.4843 -0.3543
51346SOL    HW271649   5.030   0.834   1.886 -1.3406  0.3722 -0.6820
51347SOL     OW71650  12.571   8.689   5.226 -0.3469 -0.3048 -0.5225
51347SOL    HW171651  12.549   8.759   5.288  0.3508 -0.3043 -0.2646
51347SOL    HW271652  12.524   8.612   5.259  0.8583 -0.5775  0.6463
51348SOL     OW71653   5.804   8.943   3.403 -0.2038 -0.3299  0.5668
51348SOL    HW171654   5.861   9.014   3.372  0.0875 -0.8841 -0.1716
51348SOL    HW271655   5.831   8.866   3.353 -0.8775 -0.8499  0.9849
51349SOL     OW71656   0.168   9.946  13.094 -0.2261  0.2302 -0.0476
51349SOL    HW171657   0.163  10.018  13.031 -1.2737 -0.1579 -0.4211
51349SOL    HW271658   0.077   9.924  13.112 -0.0038  0.9209  2.2977
51350SOL     OW71659  12.808   4.817   7.712  0.3985 -0.0066 -0.0973
51350SOL    HW171660  12.765   4.775   7.638 -1.0384  0.0123  0.6876
51350SOL    HW271661  12.900   4.792   7.704 -0.0007 -1.2852 -0.9996
51351SOL     OW71662   0.468   7.010  10.688  0.4180 -0.4263  0.1079
51351SOL    HW171663   0.521   7.073  10.638  1.0854 -1.3959 -0.4467
51351SOL    HW271664   0.421   6.961  10.620 -1.3169  0.4927  0.5946
51352SOL     OW71665  11.591   3.893   8.461  0.3302  0.0299 -0.0333
51352SOL    HW171666  11.676   3.921   8.428 -0.3511 -0.2095 -2.1701
51352SOL    HW271667  11.551   3.973   8.495  1.4522  0.1043  1.1730
51353SOL     OW71668  14.088   8.437   1.341 -0.0531 -0.2389  0.5635
51353SOL    HW171669  14.133   8.506   1.292 -0.2334 -0.1922  0.4612
51353SOL    HW271670  14.011   8.481   1.378 -1.7626 -0.9917 -1.8496
51354SOL     OW71671   0.951   4.149   1.935 -0.8002 -0.0798 -0.3630
51354SOL    HW171672   0.930   4.165   1.843 -0.7188 -0.8798 -0.5342
51354SOL    HW271673   0.885   4.085   1.963  0.2031 -1.1342 -0.3502
51355SOL     OW71674  12.428   8.101   9.910 -0.0295 -0.3365  0.0296
51355SOL    HW171675  12.469   8.187   9.896  0.3073 -0.4968  0.0238
51355SOL    HW271676  12.334   8.120   9.916  0.0737  0.0734  0.3695
51356SOL     OW71677  11.203  13.434   4.434 -0.3048  0.0593 -0.1778
51356SOL    HW171678  11.221  13.490   4.358 -3.2318  0.2270 -0.8930
51356SOL    HW271679  11.203  13.345   4.399 -0.7236  0.0559 -0.1706
51357SOL     OW71680   9.263   4.803   5.914 -0.0017 -0.1485  0.0760
51357SOL    HW171681   9.190   4.862   5.932  0.0589  0.2294 -0.8288
51357SOL    HW271682   9.323   4.856   5.860 -0.0456 -1.0824 -0.9312
51358SOL     OW71683   2.137  11.827  10.507  0.5136 -0.5264  0.3090
51358SOL    HW171684   2.132  11.739  10.545  0.9974 -1.5087 -1.7731
51358SOL    HW271685   2.056  11.870  10.536  0.2691 -1.6327  1.3692
51359SOL     OW71686   2.526   1.655  10.172  0.2361 -0.0970 -0.1286
51359SOL    HW171687   2.558   1.722  10.111  0.0728 -1.4819 -1.8028
51359SOL    HW271688   2.596   1.648  10.238  0.9978  0.5585 -0.8420
51360SOL     OW71689   1.882   0.562   6.742  0.0693  0.2026 -0.0450
51360SOL    HW171690   1.951   0.598   6.797  2.0136 -2.3257 -0.6525
51360SOL    HW271691   1.895   0.604   6.657 -0.3757  1.1026  0.3145
51361SOL     OW71692  11.804   1.992  12.056  0.1043  0.1184 -0.2052
51361SOL    HW171693  11.892   1.979  12.019  0.6771 -0.5515  1.3229
51361SOL    HW271694  11.766   1.904  12.057  0.2022  0.0757  0.9922
51362SOL     OW71695   1.445   7.183   5.850 -0.2551  0.3684 -0.0088
51362SOL    HW171696   1.358   7.214   5.875 -0.0238  1.1160 -0.1099
51362SOL    HW271697   1.452   7.096   5.890 -0.3168  1.0799  1.6267
51363SOL     OW71698   2.155   8.969   9.631 -0.1081  0.2278  0.0977
51363SOL    HW171699   2.201   8.890   9.660  0.1991  0.1447 -0.6176
51363SOL    HW271700   2.218   9.017   9.578 -0.6809  0.3473 -0.4936
51364SOL     OW71701  13.720   1.667   5.735  0.0448  0.0145 -0.6040
51364SOL    HW171702  13.641   1.619   5.713 -0.5937 -0.7116  2.7757
51364SOL    HW271703  13.698   1.759   5.717 -1.8280 -0.1014  0.8324
51365SOL     OW71704   2.437   9.200   3.801  0.0497 -0.1183 -0.2092
51365SOL    HW171705   2.507   9.232   3.858 -0.3437 -1.0157  0.8004
51365SOL    HW271706   2.483   9.160   3.727  0.6165 -0.8106  0.5022
51366SOL     OW71707  12.030  11.911  13.018 -0.0188 -0.4608  0.0386
51366SOL    HW171708  12.115  11.912  12.973  0.2036  0.1206  0.4424
51366SOL    HW271709  12.051  11.878  13.106 -0.0085  0.6734  0.4837
51367SOL     OW71710   5.405  12.712   7.589  0.1134  0.0178  0.1852
51367SOL    HW171711   5.363  12.726   7.673 -0.2142 -2.8509  0.5818
51367SOL    HW271712   5.499  12.714   7.608  0.0934  1.1695  0.2470
51368SOL     OW71713   3.238  12.961  13.849  0.3740 -0.1042 -0.3224
51368SOL    HW171714   3.212  13.034  13.905 -1.5512 -1.2066  0.3492
51368SOL    HW271715   3.244  12.998  13.762 -2.2673  0.6201 -0.2981
51369SOL     OW71716   4.597  11.213  11.666 -0.2802  0.0179  0.2104
51369SOL    HW171717   4.581  11.131  11.620 -1.0713  0.0391  0.4364
51369SOL    HW271718   4.650  11.188  11.742  0.1843 -0.1553 -0.1600
51370SOL     OW71719   0.504   9.725   5.400 -0.0104 -0.0370 -0.4299
51370SOL    HW171720   0.569   9.766   5.457 -0.2823 -0.3029  0.0781
51370SOL    HW271721   0.499   9.783   5.324  0.0161  0.5795  0.0304
51371SOL     OW71722   6.743   9.080   2.335 -0.3602  0.6906  0.1636
51371SOL    HW171723   6.822   9.072   2.389 -0.1931  0.4164 -0.1174
51371SOL    HW271724   6.717   9.171   2.344  0.7220  1.1216 -0.7591
51372SOL     OW71725   4.287   0.215   1.514 -0.4430 -0.3106 -0.0004
51372SOL    HW171726   4.336   0.265   1.579 -0.9337  0.5843 -0.3081
51372SOL    HW271727   4.201   0.202   1.553 -0.8510  0.5303 -0.6090
51373SOL     OW71728   8.165   1.567   3.005 -0.4804 -0.2832 -0.3714
51373SOL    HW171729   8.081   1.523   3.021  0.0968 -0.5938  2.3793
51373SOL    HW271730   8.165   1.641   3.066  1.8481 -1.2537  0.9518
51374SOL     OW71731   5.934   9.641   6.787  0.0131  0.9056 -0.0025
51374SOL    HW171732   5.953   9.724   6.743 -1.4310  2.4313  2.0161
51374SOL    HW271733   6.002   9.633   6.854  0.4079  0.1921 -0.4734
51375SOL     OW71734   0.693  14.002   9.313  0.1135  0.2087 -0.7931
51375SOL    HW171735   0.608  13.981   9.274 -1.3168  1.4492  1.4158
51375SOL    HW271736   0.714  14.089   9.279  0.2697  0.0929 -0.9909
51376SOL     OW71737  10.254  12.068   4.352 -0.2169 -0.2021 -0.0027
51376SOL    HW171738  10.349  12.078   4.347 -0.4973  4.1675 -1.5866
51376SOL    HW271739  10.234  12.000   4.289  1.8452 -2.4900  1.6103
51377SOL     OW71740   8.085   0.866   9.268 -0.2360 -0.2084 -0.5041
51377SOL    HW171741   8.112   0.939   9.212 -1.8009  0.1585 -0.8343
51377SOL    HW271742   8.069   0.794   9.207  1.5632 -0.9562 -0.1559
51378SOL     OW71743  11.433  10.249   9.745  0.1492 -0.2399  0.0124
51378SOL    HW171744  11.400  10.268   9.833  0.5095 -0.2138  0.1438
51378SOL    HW271745  11.513  10.198   9.760 -0.1342 -0.7905 -0.3143
51379SOL     OW71746  10.812   1.616   1.254  0.1726 -0.1376 -0.2730
51379SOL    HW171747  10.742   1.667   1.293  1.1497  1.4992 -0.5814
51379SOL    HW271748  10.888   1.674   1.255  1.2781 -1.5133 -0.8430
51380SOL     OW71749   7.840   3.266   9.644 -0.6862 -0.3446  0.0626
51380SOL    HW171750   7.906   3.198   9.661  0.6348  0.9933  0.5035
51380SOL    HW271751   7.773   3.252   9.711 -0.0898 -0.8002  0.5762
51381SOL     OW71752  10.616   7.032   5.012  0.1269 -0.1057 -0.2947
51381SOL    HW171753  10.618   7.058   4.920 -0.5209 -0.6012 -0.4514
51381SOL    HW271754  10.656   7.106   5.058 -0.6753  0.6875 -0.8470
51382SOL     OW71755   2.987  10.408   7.072  0.4568 -0.2070  0.4227
51382SOL    HW171756   2.898  10.410   7.107  0.4756 -1.1781  0.5696
51382SOL    HW271757   3.027  10.330   7.112  0.8263 -0.7536 -0.9292
51383SOL     OW71758   1.367   7.753   2.763  0.0556 -0.1335 -0.1006
51383SOL    HW171759   1.285   7.793   2.794  0.0898 -0.9452  1.1067
51383SOL    HW271760   1.341   7.702   2.686 -0.9402 -1.7320  1.2137
51384SOL     OW71761   0.684  10.876   0.916 -0.1714 -0.5599  0.2795
51384SOL    HW171762   0.763  10.894   0.968 -0.4378  0.0392  0.4913
51384SOL    HW271763   0.701  10.921   0.832 -0.0418 -0.9264  0.1066
51385SOL     OW71764  13.008  12.791   0.255 -0.1201  0.0052  0.2238
51385SOL    HW171765  12.927  12.805   0.205  0.4899  1.3084 -0.4629
51385SOL    HW271766  13.070  12.854   0.218  1.3198 -1.1743  0.5093
51386SOL     OW71767   9.776   6.836  12.632  0.0485  0.0183  0.0594
51386SOL    HW171768   9.857   6.798  12.667  0.7317  0.1010 -1.3657
51386SOL    HW271769   9.754   6.782  12.557 -0.2908  0.9976 -0.5674
51387SOL     OW71770   9.675   4.909   2.206 -0.2968 -0.6442 -0.1438
51387SOL    HW171771   9.663   4.999   2.237 -2.2297 -0.5535 -1.0369
51387SOL    HW271772   9.704   4.861   2.283 -0.0945  0.5536  0.5576
51388SOL     OW71773   4.148   6.423   6.459  0.3426 -0.7845  0.4595
51388SOL    HW171774   4.090   6.497   6.438 -1.4025 -1.7794  1.4926
51388SOL    HW271775   4.120   6.353   6.400  1.4858 -0.8677 -0.0081
51389SOL     OW71776  12.411  11.454   2.544 -0.0025  0.6011 -0.2253
51389SOL    HW171777  12.423  11.440   2.450 -0.2652 -0.0601 -0.1635
51389SOL    HW271778  12.369  11.374   2.576  3.4786 -0.9031  1.1139
51390SOL     OW71779   3.605   3.841   1.914  0.2439 -0.0196 -1.0637
51390SOL    HW171780   3.509   3.843   1.923  0.3944  0.4491  0.6696
51390SOL    HW271781   3.622   3.884   1.830 -1.0938 -0.6543 -1.6865
51391SOL     OW71782   2.963   8.759   7.379 -0.5708  0.3524 -0.0708
51391SOL    HW171783   2.975   8.816   7.304 -0.4875  0.4377  0.0083
51391SOL    HW271784   2.893   8.800   7.430 -0.0184  0.7716  0.3616
51392SOL     OW71785  14.053  12.605  13.334 -0.3652  0.3025 -0.0886
51392SOL    HW171786  14.024  12.683  13.287  3.0136  2.3906  0.9310
51392SOL    HW271787  14.058  12.632  13.425 -1.1611 -1.8491  0.6513
51393SOL     OW71788  12.862   6.726  13.579  0.2707  0.0175 -0.0371
51393SOL    HW171789  12.942   6.683  13.609  1.1550  1.3917 -0.3054
51393SOL    HW271790  12.894   6.801  13.529 -1.1625 -0.6011 -2.0129
51394SOL     OW71791   8.758  10.854   7.112 -0.1722 -0.4963 -0.3108
51394SOL    HW171792   8.733  10.916   7.180 -2.3807 -0.6712 -0.8779
51394SOL    HW271793   8.853  10.863   7.105 -0.3685  2.7805 -0.3291
51395SOL     OW71794   0.305   4.685   1.167 -0.4021  0.1621 -0.2361
51395SOL    HW171795   0.248   4.751   1.204 -0.6276  0.3840 -0.9504
51395SOL    HW271796   0.325   4.718   1.079  0.9717  0.1845  0.0655
51396SOL     OW71797  14.089   8.952   1.921  0.4843  0.1149 -0.5786
51396SOL    HW171798  14.020   8.894   1.953  1.8346 -0.8000  0.7984
51396SOL    HW271799  14.141   8.897   1.862  0.6448  0.5087 -0.8117
51397SOL     OW71800   2.877   6.434   6.222  0.4658 -0.0270  0.0064
51397SOL    HW171801   2.806   6.498   6.225  1.7600  1.4496  1.9555
51397SOL    HW271802   2.906   6.434   6.131 -2.9101 -1.8586 -1.2687
51398SOL     OW71803   8.720   0.526   7.008  0.1756 -0.2271 -0.0781
51398SOL    HW171804   8.684   0.612   6.989  0.7870  0.4852  1.8349
51398SOL    HW271805   8.717   0.480   6.924 -0.4525  1.5255 -1.0587
51399SOL     OW71806   9.471   1.513  10.609 -0.6429  0.5847 -0.1188
51399SOL    HW171807   9.391   1.466  10.632 -1.0329  0.6543 -1.2400
51399SOL    HW271808   9.480   1.499  10.514  1.1534 -0.1598  0.1258
51400SOL     OW71809  10.579   4.141   7.365  0.1431 -0.6947  0.1916
51400SOL    HW171810  10.545   4.211   7.309 -0.5790 -1.3506 -0.2107
51400SOL    HW271811  10.675   4.149   7.358  0.0886  0.8185  0.8953
51401SOL     OW71812   0.284   5.247   4.329  0.1984 -0.4641  0.3793
51401SOL    HW171813   0.201   5.219   4.289  0.8781 -2.3210  0.1571
51401SOL    HW271814   0.283   5.206   4.416  0.6617 -0.0771  0.5655
51402SOL     OW71815   5.073   1.749   7.647 -0.1842  0.2195  0.1808
51402SOL    HW171816   5.046   1.667   7.689 -1.0424 -0.8072 -2.2068
51402SOL    HW271817   5.021   1.817   7.691 -1.0030 -0.7762  0.7922
51403SOL     OW71818  12.448  12.319  13.671 -0.8816  0.6777  0.6082
51403SOL    HW171819  12.404  12.398  13.701 -0.2260  0.3108  2.6543
51403SOL    HW271820  12.402  12.247  13.716 -0.6487 -0.0199 -0.2334
51404SOL     OW71821   9.528   5.008  12.960 -0.6975  0.0363  0.0427
51404SOL    HW171822   9.491   4.921  12.943  0.5516 -0.5532  0.1818
51404SOL    HW271823   9.572   4.998  13.045  1.3752  0.1141 -0.9506
51405SOL     OW71824  13.086   4.489  10.921  0.3462 -0.0895 -0.1580
51405SOL    HW171825  13.092   4.495  11.016 -2.3059 -0.7211  0.1360
51405SOL    HW271826  13.044   4.571  10.895  1.2506  0.1730 -0.8374
51406SOL     OW71827  12.305   5.512  12.189 -0.1869 -0.1972  0.0822
51406SOL    HW171828  12.388   5.532  12.147 -2.0372  2.6436 -2.6583
51406SOL    HW271829  12.296   5.579  12.257  0.0001 -0.9294  0.8530
51407SOL     OW71830   0.493   6.415   2.355  0.0035 -0.2901  0.0771
51407SOL    HW171831   0.526   6.333   2.393  1.2169  0.2887  0.3248
51407SOL    HW271832   0.563   6.443   2.296  0.4507  1.5537  1.4341
51408SOL     OW71833   9.571   9.986  12.552  0.2365  0.6437  0.2310
51408SOL    HW171834   9.634   9.941  12.495 -1.0777 -0.5166 -0.3554
51408SOL    HW271835   9.620  10.005  12.632  0.6529 -2.7093  0.9002
51409SOL     OW71836  12.663  11.927   7.192  0.4009  0.3467 -0.2496
51409SOL    HW171837  12.604  11.946   7.265  1.3214 -1.9441  1.2301
51409SOL    HW271838  12.724  12.001   7.191 -2.0947  2.5484 -1.5422
51410SOL     OW71839   4.444   8.529   0.472 -0.6746  0.8634  0.3709
51410SOL    HW171840   4.487   8.608   0.440 -0.3415  1.4357  2.1038
51410SOL    HW271841   4.473   8.521   0.563 -2.8635  0.2865  1.0882
51411SOL     OW71842  10.903   7.448  12.764  0.3704 -0.3622  0.3564
51411SOL    HW171843  10.879   7.427  12.674 -0.3719  0.3412  0.3804
51411SOL    HW271844  10.888   7.366  12.812 -0.1120 -0.4909  0.0031
51412SOL     OW71845   3.792  10.997   9.535  0.6563  0.1229 -0.1835
51412SOL    HW171846   3.830  10.949   9.608  2.3670 -0.7756 -1.5785
51412SOL    HW271847   3.852  11.070   9.520 -0.1541  0.8106 -0.1479
51413SOL     OW71848  10.861  12.444   7.110  0.6491 -0.0424 -0.3231
51413SOL    HW171849  10.858  12.355   7.076 -2.1820  0.4401 -1.6463
51413SOL    HW271850  10.842  12.499   7.034 -2.2936  1.3440  1.2794
51414SOL     OW71851   9.396  13.170  11.253  0.0777 -0.3388 -0.2541
51414SOL    HW171852   9.338  13.221  11.310  1.2168 -1.0306  1.5942
51414SOL    HW271853   9.470  13.147  11.308  0.9530 -1.5798 -1.8638
51415SOL     OW71854   0.838   3.712   2.011 -0.2224 -0.2598 -0.2912
51415SOL    HW171855   0.916   3.759   1.982 -1.3002  0.9922 -1.2776
51415SOL    HW271856   0.802   3.675   1.930  1.0910 -3.7063  0.5318
51416SOL     OW71857   8.419   1.814  12.338  0.1143  0.4060 -0.6271
51416SOL    HW171858   8.476   1.790  12.266 -1.7808 -0.6507 -1.8606
51416SOL    HW271859   8.374   1.893  12.307  0.1663  0.6375 -0.1123
51417SOL     OW71860  11.777   3.736  14.074 -0.2189  0.5338 -0.0032
51417SOL    HW171861  11.870   3.716  14.083 -0.1036  1.5206  1.1337
51417SOL    HW271862  11.732   3.664  14.117  0.0657  0.7603  0.6717
51418SOL     OW71863   5.058  13.356   8.970  0.1740  0.4987  0.3891
51418SOL    HW171864   5.103  13.278   9.003  1.8394  1.8252  1.3991
51418SOL    HW271865   4.965  13.333   8.973  0.6616 -1.8751 -0.5367
51419SOL     OW71866   2.641  10.844   3.142 -0.4273  0.1532 -0.2546
51419SOL    HW171867   2.616  10.823   3.052 -0.4458  0.1638 -0.2520
51419SOL    HW271868   2.707  10.913   3.133  0.5159 -0.7264 -0.3185
51420SOL     OW71869   0.805   6.500   0.930 -0.0141 -0.5165  0.7043
51420SOL    HW171870   0.792   6.584   0.973  0.2906 -1.6081  3.0886
51420SOL    HW271871   0.900   6.492   0.923 -0.0626 -0.1940 -0.5938
51421SOL     OW71872  11.181   7.975   1.023  0.0062 -0.1664 -0.4237
51421SOL    HW171873  11.139   7.889   1.024  0.4060 -0.4482 -2.5338
51421SOL    HW271874  11.272   7.958   0.997  0.1152  0.8674 -0.7902
51422SOL     OW71875  12.840  11.998   6.574  0.3198 -0.0058  0.0698
51422SOL    HW171876  12.884  12.043   6.502  1.7364  0.4377  1.1623
51422SOL    HW271877  12.763  11.957   6.534  1.0218  0.2968 -1.6546
51423SOL     OW71878  12.049  14.016   4.200 -0.1458  0.0805  0.0722
51423SOL    HW171879  12.031  14.110   4.189  0.4083  0.1262 -0.4997
51423SOL    HW271880  11.963  13.978   4.218 -0.8243  0.3526 -2.2195
51424SOL     OW71881   5.124   1.470   2.644 -0.0172 -0.2092  0.2270
51424SOL    HW171882   5.137   1.380   2.674  3.3456  0.4385  1.1557
51424SOL    HW271883   5.101   1.519   2.723 -0.1422  0.0123  0.0558
51425SOL     OW71884   5.616   1.274  11.333  0.2771 -0.4817 -0.6229
51425SOL    HW171885   5.677   1.223  11.386 -0.2222  1.5879  2.1326
51425SOL    HW271886   5.662   1.356  11.315 -0.3876 -0.3045 -1.6118
51426SOL     OW71887   5.115   1.504   5.836  0.0542  0.3738 -0.0857
51426SOL    HW171888   5.070   1.586   5.817 -0.6558  0.4135  1.5944
51426SOL    HW271889   5.158   1.519   5.920 -0.9179 -1.2794  0.7545
51427SOL     OW71890   3.507  11.478   5.073  0.1084  0.8412 -0.1816
51427SOL    HW171891   3.578  11.442   5.127 -0.4429  1.4617  1.0050
51427SOL    HW271892   3.546  11.553   5.029  0.0833  1.4962  0.8685
51428SOL     OW71893   9.721   4.580  10.687 -0.8213  0.5517 -0.0151
51428SOL    HW171894   9.670   4.546  10.761  0.5333 -1.2880  0.1351
51428SOL    HW271895   9.812   4.561  10.710 -0.3387  0.3309 -1.9562
51429SOL     OW71896  10.555   3.045   2.913  0.3735  0.2985  0.2174
51429SOL    HW171897  10.508   3.121   2.947 -0.6419  0.0028 -0.4807
51429SOL    HW271898  10.627   3.082   2.861 -0.9374  0.8332 -1.2820
51430SOL     OW71899   8.248  12.677   9.238 -0.1911 -0.0478  0.5505
51430SOL    HW171900   8.321  12.734   9.213 -0.0377 -0.1272  0.8213
51430SOL    HW271901   8.262  12.659   9.331 -1.1961  0.8849  0.9117
51431SOL     OW71902   9.642  14.092   9.135 -0.3790 -0.0862  0.3101
51431SOL    HW171903   9.630  14.075   9.228 -2.1728 -1.1722 -0.0628
51431SOL    HW271904   9.560  14.135   9.108 -0.0700 -0.1797 -0.8303
51432SOL     OW71905  10.946  11.471  13.019  0.2258 -0.5015  0.2722
51432SOL    HW171906  10.885  11.438  13.084 -0.3969  0.6456  0.3033
51432SOL    HW271907  10.971  11.558  13.051  0.0743 -0.0060 -0.8851
51433SOL     OW71908   9.754  11.264  10.896  0.5762 -0.3109  0.5828
51433SOL    HW171909   9.709  11.334  10.850 -0.1786 -0.2885  1.3441
51433SOL    HW271910   9.822  11.235  10.834  1.0908  1.2657  0.3751
51434SOL     OW71911   3.672   6.506   1.605  0.2445 -0.0294  0.1613
51434SOL    HW171912   3.748   6.486   1.551  0.6528  1.5861  0.0717
51434SOL    HW271913   3.597   6.474   1.555  0.7255  0.2384 -0.7496
51435SOL     OW71914   0.739  11.068   7.486  0.0255 -0.0976 -0.3520
51435SOL    HW171915   0.721  11.074   7.580 -1.3507  5.7239 -0.6058
51435SOL    HW271916   0.668  11.014   7.451 -1.8723  0.9844  1.5966
51436SOL     OW71917  13.346   7.198  12.008 -0.9513 -0.5911  0.1060
51436SOL    HW171918  13.251   7.210  12.011 -0.8391  1.6151 -1.6731
51436SOL    HW271919  13.359   7.107  11.983 -2.7853 -0.0900 -3.2036
51437SOL     OW71920   5.528   0.141   9.206  0.2284  0.0432  0.3206
51437SOL    HW171921   5.584   0.202   9.159 -2.5177  1.5168 -1.2290
51437SOL    HW271922   5.575   0.124   9.288  2.0840  2.5300 -0.1232
51438SOL     OW71923   1.295  12.120   6.320 -0.2184  0.1287 -0.0144
51438SOL    HW171924   1.250  12.203   6.307 -0.7541 -0.4541 -2.2197
51438SOL    HW271925   1.388  12.142   6.313 -0.3757  0.4710 -1.2271
51439SOL     OW71926   1.281  12.041  13.628  0.0311 -0.0036 -0.3906
51439SOL    HW171927   1.240  11.963  13.592  2.3079 -0.8832 -1.2775
51439SOL    HW271928   1.332  12.077  13.556 -2.9050  3.9292 -0.8623
51440SOL     OW71929   7.703   4.439   3.433  0.1320  0.3429 -0.5490
51440SOL    HW171930   7.694   4.528   3.465  1.9761  0.4647 -0.2589
51440SOL    HW271931   7.702   4.385   3.512  1.4627  0.3493 -0.5123
51441SOL     OW71932   6.387   1.703   8.195 -0.0160 -0.4159  0.1422
51441SOL    HW171933   6.444   1.720   8.270 -0.8252 -0.3231  0.7555
51441SOL    HW271934   6.433   1.741   8.120 -0.4460  2.0282  1.0133
51442SOL     OW71935   1.802  13.357   3.817  0.6991 -0.1765  0.3278
51442SOL    HW171936   1.858  13.279   3.818 -0.9119 -1.3934 -0.4508
51442SOL    HW271937   1.795  13.381   3.725 -1.6192 -1.2756  0.1467
51443SOL     OW71938   7.853   1.006   9.257  0.7525  0.0448  0.3509
51443SOL    HW171939   7.932   0.958   9.280  0.8447 -0.3741 -0.7992
51443SOL    HW271940   7.781   0.948   9.282  0.7867  0.4502  1.4511
51444SOL     OW71941   9.564  10.639  10.250 -0.4236 -0.2482  0.3964
51444SOL    HW171942   9.617  10.709  10.288 -1.5338  0.2542  1.0570
51444SOL    HW271943   9.474  10.663  10.270 -0.8091 -2.1898  1.1998
51445SOL     OW71944   2.362   9.772   6.507  0.0032  0.7484  0.1824
51445SOL    HW171945   2.289   9.774   6.446  0.3235  1.6778 -0.1912
51445SOL    HW271946   2.323   9.790   6.592 -0.5606 -1.3279  0.4125
51446SOL     OW71947   1.124  11.928   7.699  0.1051  0.6930 -0.3139
51446SOL    HW171948   1.030  11.926   7.679 -0.1577 -0.2415  0.9120
51446SOL    HW271949   1.149  12.020   7.688 -0.7893  0.8334 -1.3321
51447SOL     OW71950   1.600   4.426  12.284  0.6312 -0.0956  0.0748
51447SOL    HW171951   1.607   4.474  12.202  0.4017  1.4430  0.9123
51447SOL    HW271952   1.670   4.361  12.281 -0.2420 -1.0246 -1.9134
51448SOL     OW71953  13.151   7.875   9.256 -0.3375  0.5852  0.4761
51448SOL    HW171954  13.097   7.953   9.241  1.6677  2.0353  0.1837
51448SOL    HW271955  13.216   7.904   9.321  0.5458 -0.7884  0.2406
51449SOL     OW71956   5.026   4.074   0.960 -0.5125 -0.4348  0.8120
51449SOL    HW171957   5.075   4.017   1.020  1.6667 -0.9184 -1.2800
51449SOL    HW271958   5.037   4.162   0.997 -0.1570 -0.8542  1.7337
51450SOL     OW71959  11.009   0.741  10.212 -0.3158 -0.0887 -0.0390
51450SOL    HW171960  11.024   0.725  10.118 -0.9548  0.9454 -0.3283
51450SOL    HW271961  10.973   0.659  10.244  1.6253 -1.1129 -0.2820
51451SOL     OW71962  11.027  14.048   4.223 -0.0724 -0.3750 -0.6033
51451SOL    HW171963  10.940  14.086   4.224  0.1455  0.2135  1.2772
51451SOL    HW271964  11.084  14.119   4.196 -0.2576 -1.1382 -3.2464
51452SOL     OW71965   9.372   6.529  11.565  0.0041  0.2745 -0.2164
51452SOL    HW171966   9.381   6.482  11.648 -0.0785  0.2346 -0.2299
51452SOL    HW271967   9.327   6.610  11.589 -0.7388 -0.0970 -0.3511
51453SOL     OW71968   1.910   8.481   3.333  0.3562  0.7633 -0.3720
51453SOL    HW171969   1.850   8.406   3.333  0.9191  0.2984  0.1720
51453SOL    HW271970   1.858   8.554   3.364 -0.1443  0.5495 -0.6904
51454SOL     OW71971   9.299   4.292   6.765  0.0649  0.1267 -0.1231
51454SOL    HW171972   9.306   4.336   6.681  0.4999 -1.0743 -0.7384
51454SOL    HW271973   9.216   4.245   6.762  0.3068 -0.3132 -0.0877
51455SOL     OW71974   9.369   2.108   5.861 -0.2682  0.2168  0.0726
51455SOL    HW171975   9.305   2.169   5.823 -1.0948 -1.2230 -0.9181
51455SOL    HW271976   9.451   2.158   5.861 -0.6946  1.0087 -1.6750
51456SOL     OW71977   0.797   8.827   9.968  0.2749 -0.1762 -0.2122
51456SOL    HW171978   0.852   8.750   9.977  0.1108 -0.3053 -0.3172
51456SOL    HW271979   0.717   8.805  10.015 -1.0271 -1.2624 -2.7419
51457SOL     OW71980   4.065   0.555  12.109  0.0979 -0.2019 -0.3989
51457SOL    HW171981   4.037   0.641  12.141 -2.0919 -0.7591 -0.6786
51457SOL    HW271982   4.160   0.562  12.104  0.2539  1.2665  2.3104
51458SOL     OW71983   6.365  13.335  10.504  0.0074  0.4264 -0.1055
51458SOL    HW171984   6.451  13.314  10.541  0.6243  1.9504 -0.5849
51458SOL    HW271985   6.308  13.266  10.535  1.1757 -0.0285  1.1204
51459SOL     OW71986   6.415   1.811  12.947 -0.2437 -0.0203  0.1515
51459SOL    HW171987   6.454   1.795  13.033 -0.6874  0.8615  0.5272
51459SOL    HW271988   6.468   1.758  12.887  0.3477 -0.3033  0.9042
51460SOL     OW71989  10.749   6.759   9.016 -0.1329 -0.2472 -0.4438
51460SOL    HW171990  10.678   6.771   9.079  0.0135  0.2432 -0.3709
51460SOL    HW271991  10.781   6.671   9.033 -0.1979 -0.1771  0.0571
51461SOL     OW71992  12.857   5.505  10.363  0.1488  0.1543 -0.3254
51461SOL    HW171993  12.893   5.423  10.328  1.1396 -0.4384  1.8812
51461SOL    HW271994  12.900   5.574  10.313  2.0617 -0.6352  0.1449
51462SOL     OW71995   8.550   0.113   8.861  0.5601  0.4626 -0.0880
51462SOL    HW171996   8.515   0.177   8.924 -0.0088 -0.0971  0.1770
51462SOL    HW271997   8.609   0.164   8.806 -1.2437  1.6082 -1.0452
51463SOL     OW71998  12.774  10.132   3.488 -0.6582 -0.3714 -0.1791
51463SOL    HW171999  12.861  10.111   3.519 -0.6373 -1.0892 -0.6962
51463SOL    HW272000  12.725  10.155   3.567  0.3081  1.2374 -0.0089
51464SOL     OW72001   0.041   3.370  10.912 -0.0196  0.0430  0.7577
51464SOL    HW172002  -0.023   3.404  10.975 -0.9674  1.1768 -0.7631
51464SOL    HW272003   0.112   3.435  10.914 -0.2736  0.3340  0.3041
51465SOL     OW72004   7.742   0.756  13.720  0.8355  0.1636  0.2620
51465SOL    HW172005   7.675   0.801  13.669  0.2599 -1.9649 -0.9734
51465SOL    HW272006   7.705   0.670  13.739  2.5393 -0.4567  1.0209
51466SOL     OW72007  11.733   0.296   2.391 -0.4191  0.3032 -0.4959
51466SOL    HW172008  11.789   0.364   2.429 -2.6727  2.2212 -0.3440
51466SOL    HW272009  11.773   0.277   2.306  0.9879  0.8692  0.0095
51467SOL     OW72010   6.157  12.151   1.686  0.1341  0.2417  0.4817
51467SOL    HW172011   6.103  12.214   1.637 -0.0731  0.0192  0.4247
51467SOL    HW272012   6.213  12.206   1.740  0.4880  0.5025 -0.1301
51468SOL     OW72013   5.792   3.896  13.722  0.0775 -0.0809  0.2068
51468SOL    HW172014   5.726   3.912  13.654 -0.6150 -2.7591  0.1153
51468SOL    HW272015   5.769   3.956  13.793 -1.1206  0.5569 -0.6863
51469SOL     OW72016   6.535   7.351   5.154 -0.0120 -0.0253  0.0015
51469SOL    HW172017   6.507   7.360   5.245 -0.6274 -2.0963  0.0708
51469SOL    HW272018   6.583   7.431   5.136 -1.2589  1.1710  1.6398
51470SOL     OW72019   0.310   2.693   9.648  0.3178  0.3437  0.8105
51470SOL    HW172020   0.246   2.763   9.663 -0.7938 -0.5942  0.5634
51470SOL    HW272021   0.389   2.724   9.692  0.0008  1.9617  0.3205
51471SOL     OW72022   9.982  11.529   3.833 -0.2445  0.2143 -0.0309
51471SOL    HW172023   9.993  11.566   3.745 -0.7677 -1.3683 -0.8003
51471SOL    HW272024   9.971  11.605   3.889  0.4129  1.2809 -1.2820
51472SOL     OW72025  14.068  12.018   0.277  0.0004  0.1552  0.0643
51472SOL    HW172026  13.983  11.992   0.312 -0.3183 -0.9278 -1.4170
51472SOL    HW272027  14.122  12.034   0.354 -1.7074  1.5650  1.0594
51473SOL     OW72028   0.981  13.202  11.032  0.2778  0.2645 -0.1114
51473SOL    HW172029   1.015  13.244  10.952 -1.2582  1.4427 -0.1902
51473SOL    HW272030   1.057  13.157  11.070  1.2837  0.5936 -1.6540
51474SOL     OW72031   3.877   1.924   6.810  0.1406 -0.2460 -0.1470
51474SOL    HW172032   3.920   1.839   6.803  1.7998  0.5755 -0.5279
51474SOL    HW272033   3.887   1.949   6.902  0.1017 -0.2497 -0.1419
51475SOL     OW72034   8.681  13.834   3.062 -0.8472 -0.4088  0.2984
51475SOL    HW172035   8.640  13.907   3.016  1.4431 -0.6185 -2.2985
51475SOL    HW272036   8.773  13.859   3.069 -0.3978 -2.1640  1.2570
51476SOL     OW72037  11.391   9.840   8.539 -0.3952  0.2125 -0.1584
51476SOL    HW172038  11.407   9.925   8.580  1.4990 -0.1264 -0.0954
51476SOL    HW272039  11.366   9.782   8.611 -0.3977  0.4173  0.0033
51477SOL     OW72040   4.995  10.699  11.364  0.2751 -0.0381 -0.0941
51477SOL    HW172041   5.088  10.684  11.381 -0.1615 -0.5013  2.1963
51477SOL    HW272042   4.951  10.668  11.442 -1.8058  0.5029 -0.9820
51478SOL     OW72043   7.737   8.811   5.216  0.3831 -0.4154  0.3335
51478SOL    HW172044   7.774   8.838   5.132  1.8472 -0.5417  0.9003
51478SOL    HW272045   7.644   8.832   5.210  0.1495 -1.7468 -1.8689
51479SOL     OW72046  11.077   4.059   3.609  0.7759 -0.1148 -0.5600
51479SOL    HW172047  10.998   4.109   3.591  0.3649 -0.1717  0.9002
51479SOL    HW272048  11.091   4.005   3.531 -1.4296 -1.1349 -0.3232
51480SOL     OW72049   5.839  11.232  12.772 -0.1118  0.3791  0.0616
51480SOL    HW172050   5.772  11.229  12.704  0.8394  0.5783 -0.9076
51480SOL    HW272051   5.831  11.319  12.810 -1.8830 -0.3633  1.5242
51481SOL     OW72052  12.920  10.287  10.935 -0.4076  0.3488  0.0247
51481SOL    HW172053  12.917  10.262  10.843 -0.7964  1.1644 -0.1872
51481SOL    HW272054  12.989  10.352  10.940  0.0195 -0.1230  0.4259
51482SOL     OW72055   4.814  10.726   0.589 -0.4201 -0.4172 -1.1418
51482SOL    HW172056   4.818  10.732   0.493  0.3719 -2.3228 -1.2745
51482SOL    HW272057   4.906  10.729   0.617 -0.6123 -0.4479 -0.4898
51483SOL     OW72058   1.731   6.517   4.402  0.2585  0.4391 -0.0517
51483SOL    HW172059   1.695   6.473   4.479 -0.7357 -1.3752 -1.4937
51483SOL    HW272060   1.688   6.603   4.401 -1.5259 -0.4043  0.1392
51484SOL     OW72061   4.054   3.874  13.301 -0.1650  0.1090  0.5818
51484SOL    HW172062   4.052   3.966  13.272 -2.1067 -0.7467 -2.4864
51484SOL    HW272063   4.036   3.879  13.395  1.1020  2.9073  0.7913
51485SOL     OW72064   4.949   1.615  10.273 -0.2775 -0.4176 -0.3053
51485SOL    HW172065   4.887   1.570  10.330 -1.6449  0.4879 -1.0148
51485SOL    HW272066   4.911   1.703  10.261  0.6098 -0.1805 -1.5825
51486SOL     OW72067  12.739  11.033   2.791 -0.0343  0.0979 -0.0985
51486SOL    HW172068  12.736  10.989   2.876  0.6738 -0.3395 -0.2907
51486SOL    HW272069  12.833  11.043   2.773 -0.1767  1.5498 -0.1399
51487SOL     OW72070   4.596   4.484   3.456  0.2911  0.1155 -0.1376
51487SOL    HW172071   4.595   4.389   3.462  0.8139  0.0896 -0.4254
51487SOL    HW272072   4.609   4.502   3.363  0.0309  0.4693 -0.1088
51488SOL     OW72073  10.201   4.819   4.949  0.0736  0.0546  0.2513
51488SOL    HW172074  10.290   4.789   4.928  0.6389 -0.4010  2.8941
51488SOL    HW272075  10.186   4.894   4.892  2.8161  1.1388  0.7946
51489SOL     OW72076  12.346   2.297   2.445  0.0375 -0.4057 -0.2440
51489SOL    HW172077  12.407   2.272   2.514  1.5323  1.2217 -0.9100
51489SOL    HW272078  12.270   2.331   2.491  0.6000 -0.2898  0.6118
51490SOL     OW72079  11.204   6.045  13.548 -0.3104 -0.2265  0.0836
51490SOL    HW172080  11.186   6.076  13.460 -1.4664  0.6346  0.5944
51490SOL    HW272081  11.299   6.049  13.556 -0.2994  1.6636 -0.4594
51491SOL     OW72082   8.387   5.638  13.971  0.4832  0.5018  0.1342
51491SOL    HW172083   8.397   5.598  13.885 -2.0569 -1.4848  0.6399
51491SOL    HW272084   8.357   5.727  13.953 -1.6573 -0.4026 -1.1270
51492SOL     OW72085  10.366   8.812   7.723  0.3273  0.2477 -0.1226
51492SOL    HW172086  10.415   8.894   7.713  1.2451 -0.2324  0.3588
51492SOL    HW272087  10.407   8.769   7.797 -0.9816 -0.0741  0.4316
51493SOL     OW72088   6.204   3.868   4.791  0.6413 -0.6363  0.1348
51493SOL    HW172089   6.233   3.886   4.880  1.1760 -3.1728  0.5601
51493SOL    HW272090   6.137   3.801   4.800 -0.1652 -0.0818 -1.3227
51494SOL     OW72091  11.124  11.819   5.944  0.2507 -0.0350  0.0752
51494SOL    HW172092  11.195  11.835   6.005  0.8302  1.3391 -0.8992
51494SOL    HW272093  11.153  11.860   5.862 -1.7381  0.7859 -0.2926
51495SOL     OW72094  12.995   4.602  11.640  0.2218 -0.5346 -0.0899
51495SOL    HW172095  13.072   4.657  11.658  1.2309 -2.0737  0.5357
51495SOL    HW272096  13.031   4.523  11.601 -1.2226 -0.6746 -1.2129
51496SOL     OW72097   3.603  11.234   4.604 -0.0813  0.1390  0.0553
51496SOL    HW172098   3.677  11.174   4.594  2.5285  2.9824  0.7808
51496SOL    HW272099   3.555  11.225   4.522  1.1249 -1.7251 -0.5288
51497SOL     OW72100  12.480   2.166  10.891  0.8494  0.2104 -0.0353
51497SOL    HW172101  12.531   2.106  10.836  0.0068 -1.3797  0.8590
51497SOL    HW272102  12.486   2.251  10.846  0.7834 -0.8571 -2.1752
51498SOL     OW72103  11.744   3.755   8.731  0.4530  0.0601  0.9093
51498SOL    HW172104  11.659   3.727   8.696  1.5998  0.3469 -2.4036
51498SOL    HW272105  11.742   3.850   8.725  0.9236  0.0775  1.0175
51499SOL     OW72106   0.334  13.688   6.757 -0.1264  0.1541  0.1731
51499SOL    HW172107   0.415  13.671   6.805  0.3627 -1.2869 -1.0495
51499SOL    HW272108   0.343  13.777   6.724  1.3117 -0.2260 -0.5346
51500SOL     OW72109  13.183   4.602  13.425 -0.2494  0.3532 -0.5226
51500SOL    HW172110  13.142   4.521  13.455 -1.5147  1.4049  0.7487
51500SOL    HW272111  13.235   4.631  13.500 -0.6170  1.2076 -0.5822
51501SOL     OW72112   8.667   6.684   2.309  0.8941  0.4519  0.2093
51501SOL    HW172113   8.709   6.770   2.301  1.4280  0.5075  2.7334
51501SOL    HW272114   8.620   6.673   2.226  1.3122  2.8878 -0.4506
51502SOL     OW72115   3.961   8.074  12.437 -0.1567  0.1404  0.1465
51502SOL    HW172116   3.903   8.058  12.512 -0.1002  1.1797  0.4300
51502SOL    HW272117   4.014   8.149  12.464 -1.1827  1.5300 -1.4926
51503SOL     OW72118   1.223   4.781  14.019 -0.0962 -0.0765 -0.1508
51503SOL    HW172119   1.169   4.709  13.987  0.1007 -0.3388  0.0972
51503SOL    HW272120   1.283   4.740  14.082  0.5680  0.1667 -0.6178
51504SOL     OW72121  11.700  11.002  13.225  0.0702  0.3091 -0.7467
51504SOL    HW172122  11.605  11.010  13.215  0.1208  2.3067 -0.0195
51504SOL    HW272123  11.713  10.912  13.257 -1.6591  0.2988  0.0331
51505SOL     OW72124   7.744   2.423   7.641  0.0454  0.2932  0.3014
51505SOL    HW172125   7.795   2.349   7.608 -0.2578  1.0199 -1.9480
51505SOL    HW272126   7.655   2.388   7.648  0.0919  0.1596  0.2361
51506SOL     OW72127  13.131   9.866  13.311 -0.2937 -0.1741  0.2742
51506SOL    HW172128  13.179   9.945  13.288 -1.4486 -0.0294 -1.9160
51506SOL    HW272129  13.140   9.859  13.406  1.5027  1.4515  0.2842
51507SOL     OW72130  10.530   2.327   3.767  0.4243  0.5378  0.3327
51507SOL    HW172131  10.527   2.252   3.827 -0.1835  0.6913  0.5004
51507SOL    HW272132  10.473   2.392   3.807  0.1812  0.7240 -0.3009
51508SOL     OW72133   3.417   6.465  13.888 -0.1488 -0.0931 -0.4691
51508SOL    HW172134   3.378   6.459  13.801 -0.1070  1.2745 -0.6026
51508SOL    HW272135   3.485   6.397  13.888  0.5105  0.5060 -1.8672
51509SOL     OW72136   0.827  12.104  13.048  0.3202  0.2015 -0.1453
51509SOL    HW172137   0.745  12.151  13.057 -0.3010 -0.5376 -1.6300
51509SOL    HW272138   0.851  12.080  13.137 -1.2311  0.1605  0.2860
51510SOL     OW72139   2.615   7.291   7.148  0.6687 -0.3837 -0.3817
51510SOL    HW172140   2.590   7.355   7.081  1.0193 -0.0440 -0.1958
51510SOL    HW272141   2.639   7.213   7.099 -2.8564 -1.5418 -0.5019
51511SOL     OW72142  11.516   2.738  13.603  0.9691 -0.1642 -0.2767
51511SOL    HW172143  11.600   2.735  13.649  1.8763  1.3033 -1.7155
51511SOL    HW272144  11.533   2.698  13.518  0.2020  0.1210 -0.5771
51512SOL     OW72145  10.062  11.561   0.529  0.1899  0.2618 -0.2080
51512SOL    HW172146  10.117  11.584   0.604  0.2310  1.5150 -0.6006
51512SOL    HW272147  10.124  11.548   0.457  0.0016  1.5587 -0.6227
51513SOL     OW72148  11.849   8.786  11.932 -0.5316 -0.1378  0.4622
51513SOL    HW172149  11.935   8.829  11.928 -0.5781 -0.0193  0.6746
51513SOL    HW272150  11.786   8.857  11.930 -0.5768  0.0116  2.9716
51514SOL     OW72151   7.215   6.638   4.645  0.2604  0.3196  0.2258
51514SOL    HW172152   7.161   6.573   4.690 -0.8499  1.2846  0.3371
51514SOL    HW272153   7.207   6.616   4.552 -0.7956  0.7582  0.1917
51515SOL     OW72154   1.455   5.598   7.719  0.2004  0.2885  0.0186
51515SOL    HW172155   1.507   5.668   7.679 -1.1670  0.9716 -0.6207
51515SOL    HW272156   1.403   5.562   7.646 -0.7409  0.1122  0.7567
51516SOL     OW72157  11.670   1.610   2.217  0.0256  0.2180  0.1813
51516SOL    HW172158  11.601   1.595   2.282 -1.8292  0.6295 -1.5791
51516SOL    HW272159  11.628   1.590   2.133  2.0533  0.5744 -0.9700
51517SOL     OW72160   2.934   5.100  11.373  0.3304 -0.3752  0.2211
51517SOL    HW172161   3.027   5.123  11.361  0.2699 -0.8579 -1.5328
51517SOL    HW272162   2.907   5.067  11.287 -1.3095 -0.8393  0.8836
51518SOL     OW72163  12.108   1.605  13.807 -0.2285 -0.1656 -0.1494
51518SOL    HW172164  12.073   1.575  13.891 -0.3998 -1.1865 -0.5689
51518SOL    HW272165  12.146   1.691  13.826  1.6654 -1.2818  1.4512
51519SOL     OW72166  13.868  11.931   2.442 -0.1163  0.4256 -0.1876
51519SOL    HW172167  13.910  12.004   2.397  0.1534 -0.5575 -1.6101
51519SOL    HW272168  13.835  11.875   2.371 -0.2512 -0.8651  0.8551
51520SOL     OW72169  11.745   0.090   7.061  0.5349 -0.0417  0.7245
51520SOL    HW172170  11.743   0.170   7.009 -2.5534  0.5834  1.6081
51520SOL    HW272171  11.739   0.019   6.997 -0.0667  0.5987  0.0524
51521SOL     OW72172   2.422   0.257   1.607 -0.1756 -0.2800  0.1025
51521SOL    HW172173   2.439   0.251   1.701  1.7880 -1.3314 -0.2614
51521SOL    HW272174   2.403   0.167   1.580 -0.7658  0.0185 -0.5016
51522SOL     OW72175   5.951   1.383   8.448  0.2968  0.4136  0.1899
51522SOL    HW172176   5.916   1.296   8.427  1.4325 -0.3339  1.2719
51522SOL    HW272177   5.884   1.444   8.417  0.1511 -0.7582 -2.0103
51523SOL     OW72178   8.582  13.871  12.324 -0.0319 -0.6469 -0.2231
51523SOL    HW172179   8.590  13.786  12.282  2.2877  0.5237 -2.4701
51523SOL    HW272180   8.608  13.934  12.256 -0.7182  1.7791  1.6151
51524SOL     OW72181   2.604  10.255   5.284 -0.2549 -0.1085  0.3633
51524SOL    HW172182   2.573  10.181   5.336  0.0526 -0.5716 -0.0940
51524SOL    HW272183   2.640  10.214   5.205  1.7687  0.3893  0.9858
51525SOL     OW72184   0.633   0.807   2.213 -0.7966  0.1969 -0.2414
51525SOL    HW172185   0.659   0.899   2.223  0.3496 -0.1155 -0.2468
51525SOL    HW272186   0.537   0.809   2.222 -0.5688  0.9389  3.3186
51526SOL     OW72187   9.052   9.399   1.226 -0.4592  0.0310  0.1843
51526SOL    HW172188   9.027   9.482   1.265 -0.3394 -0.0589  0.4597
51526SOL    HW272189   8.981   9.339   1.250 -0.0149 -0.2153  0.9313
51527SOL     OW72190   0.409   1.877   3.767  0.2177  0.0462  0.1482
51527SOL    HW172191   0.442   1.956   3.809  3.2441 -0.5494 -0.9085
51527SOL    HW272192   0.414   1.894   3.674 -2.6442 -0.1192 -0.1223
51528SOL     OW72193   8.682   0.121   2.555  0.2218 -0.4062 -0.7294
51528SOL    HW172194   8.640   0.132   2.641  0.4963  0.5792 -0.7089
51528SOL    HW272195   8.621   0.162   2.494  0.5062 -0.1831 -0.8677
51529SOL     OW72196   6.677   3.899   6.158  0.1837  0.5626 -0.3844
51529SOL    HW172197   6.624   3.838   6.105  0.0686  0.7982 -0.5417
51529SOL    HW272198   6.760   3.905   6.111  0.7637 -0.6522  0.4352
51530SOL     OW72199  12.562   7.909  12.460  0.0532 -0.2509  0.1830
51530SOL    HW172200  12.521   7.859  12.530 -0.5943  3.6116  2.8538
51530SOL    HW272201  12.641   7.946  12.499 -0.3885  2.1442 -1.0132
51531SOL     OW72202   3.947  10.025  13.699  0.3760  0.5835 -0.0959
51531SOL    HW172203   3.897   9.944  13.691 -1.3906  1.5954  0.2818
51531SOL    HW272204   3.981  10.041  13.611 -1.2783  0.6566 -0.7540
51532SOL     OW72205   2.861  12.620  10.591 -0.2963 -0.4681  0.2402
51532SOL    HW172206   2.777  12.663  10.579 -0.9100 -1.5434  0.5879
51532SOL    HW272207   2.919  12.690  10.624 -1.0294  0.2860 -0.0325
51533SOL     OW72208  13.267   6.303   2.168 -0.3491  0.2269  0.7279
51533SOL    HW172209  13.240   6.394   2.157  1.8773  0.8291 -0.3669
51533SOL    HW272210  13.272   6.290   2.263 -0.7984  1.1968  0.8919
51534SOL     OW72211   5.231   6.448   6.783 -1.2230  0.0938  0.4164
51534SOL    HW172212   5.281   6.379   6.826  1.3946  0.1610 -2.1679
51534SOL    HW272213   5.288   6.525   6.786 -2.5817  1.1693  0.1348
51535SOL     OW72214   1.654   4.345  11.656  0.2467  0.7580 -0.1772
51535SOL    HW172215   1.739   4.305  11.637  0.2218 -0.3897  1.9189
51535SOL    HW272216   1.673   4.439  11.661  1.4871  0.4830  0.6879
51536SOL     OW72217  11.480   4.440   0.128  0.3146 -0.0543  0.3474
51536SOL    HW172218  11.524   4.391   0.197 -0.3026 -0.6379  0.3436
51536SOL    HW272219  11.438   4.514   0.173 -0.2852 -0.5650  0.6408
51537SOL     OW72220   6.901   1.091  10.264  0.5234  0.3067 -0.1759
51537SOL    HW172221   6.963   1.039  10.315 -0.5071 -0.6659  0.1169
51537SOL    HW272222   6.956   1.154  10.216  1.8104 -1.0869 -0.6023
51538SOL     OW72223   8.313   2.861   1.862 -0.0630  0.3726  0.0610
51538SOL    HW172224   8.226   2.888   1.832 -0.6587 -0.6369  0.8113
51538SOL    HW272225   8.371   2.931   1.834 -0.8790  0.3762 -1.7586
51539SOL     OW72226   1.818   6.399   3.409 -0.2782  0.1638 -0.0695
51539SOL    HW172227   1.825   6.381   3.503  0.7392  1.9031  0.2290
51539SOL    HW272228   1.781   6.487   3.404 -0.8718 -0.1317 -1.3250
51540SOL     OW72229  11.962   8.251  13.743  0.2135 -0.4339 -0.3086
51540SOL    HW172230  12.037   8.227  13.688  1.7719  2.2490  0.4825
51540SOL    HW272231  11.889   8.199  13.708  1.8719 -1.3101 -2.7097
51541SOL     OW72232  11.335  13.232   8.728 -0.2230  0.3343 -0.5220
51541SOL    HW172233  11.268  13.191   8.784 -1.6699 -0.4133 -2.6544
51541SOL    HW272234  11.418  13.203   8.765 -1.1516 -1.9086  0.0012
51542SOL     OW72235  11.871   2.920   3.962  0.4562  0.2388 -0.0579
51542SOL    HW172236  11.955   2.904   3.918  0.7035  1.1468  0.0446
51542SOL    HW272237  11.837   2.833   3.982  0.3656 -0.2178 -1.9720
51543SOL     OW72238   2.912  14.070  12.070  0.2219 -0.0436  0.3371
51543SOL    HW172239   2.948  14.069  12.158 -1.9391  0.7571  1.3030
51543SOL    HW272240   2.969  14.131  12.022  0.8160  0.3125  1.4477
51544SOL     OW72241   9.394  12.167   3.270  0.2304 -0.1160 -0.4528
51544SOL    HW172242   9.331  12.209   3.212 -0.5223 -0.5636  0.0310
51544SOL    HW272243   9.430  12.095   3.219 -1.7028 -1.5943  0.1915
51545SOL     OW72244  13.722   0.765   3.390 -0.3906 -0.1229  0.2226
51545SOL    HW172245  13.737   0.859   3.377  1.1379 -0.3740  0.0176
51545SOL    HW272246  13.707   0.755   3.484 -2.6252  0.5568  0.0030
51546SOL     OW72247   3.951   4.434  13.788 -0.0846  0.1916  0.0145
51546SOL    HW172248   4.011   4.376  13.741 -0.3760 -1.4374  1.5212
51546SOL    HW272249   3.864   4.403  13.764 -0.2423 -0.0955  0.9072
51547SOL     OW72250   5.667  13.509   3.807 -0.1970 -0.0751 -0.1558
51547SOL    HW172251   5.572  13.513   3.796 -0.3553 -1.0686  0.6756
51547SOL    HW272252   5.699  13.468   3.727 -0.5810 -0.6436 -0.0276
51548SOL     OW72253   0.613   7.449  10.892 -0.1140  0.2133 -0.5575
51548SOL    HW172254   0.662   7.427  10.971 -0.5900  1.6728  0.1718
51548SOL    HW272255   0.563   7.369  10.873 -0.0033 -0.1652  0.6191
51549SOL     OW72256  10.529  11.966   5.868  0.3060  0.1412 -0.0617
51549SOL    HW172257  10.624  11.954   5.871  0.4631  1.4110  2.6124
51549SOL    HW272258  10.493  11.881   5.895  0.6937 -0.0633 -0.1808
51550SOL     OW72259   5.404  10.657   7.988  0.3317  0.0485  0.2859
51550SOL    HW172260   5.351  10.674   8.066 -0.8784  0.1886 -0.5533
51550SOL    HW272261   5.344  10.618   7.925  1.2991 -0.1011 -0.5833
51551SOL     OW72262  12.811   1.418  13.333 -0.0757 -0.0635 -0.1285
51551SOL    HW172263  12.884   1.367  13.370 -0.8999 -1.7940 -0.7713
51551SOL    HW272264  12.812   1.396  13.239 -1.4251 -0.1504 -0.1443
51552SOL     OW72265   7.480   2.339   7.683  0.4413  0.2192  0.2175
51552SOL    HW172266   7.395   2.351   7.642 -0.1778 -0.7171  1.1984
51552SOL    HW272267   7.461   2.318   7.774  1.8000  2.6836  1.1743
51553SOL     OW72268  10.501   5.242  12.206 -0.2436  0.1993  0.1988
51553SOL    HW172269  10.494   5.226  12.111  1.9530  0.4619 -0.0547
51553SOL    HW272270  10.573   5.304  12.214 -0.3207  0.0753  2.0762
51554SOL     OW72271   3.166  10.949   9.639  0.7221  0.4877 -0.0233
51554SOL    HW172272   3.188  10.954   9.732  0.0921 -0.8414  0.2161
51554SOL    HW272273   3.244  10.913   9.598  1.0493  1.2017 -0.0344
51555SOL     OW72274  12.445   6.935   6.923 -0.4328 -0.1147 -0.1258
51555SOL    HW172275  12.389   6.858   6.913  1.3147 -1.2750 -1.6129
51555SOL    HW272276  12.512   6.925   6.855  0.7897  1.8924  0.7007
51556SOL     OW72277   1.937   3.101  13.086 -0.1536 -0.5988  0.1895
51556SOL    HW172278   2.012   3.046  13.065 -0.4398 -0.7218 -0.5346
51556SOL    HW272279   1.904   3.131  13.001 -1.2143 -0.9358  0.4598
51557SOL     OW72280   9.930   7.594   4.003  0.0805  0.5000  0.7172
51557SOL    HW172281   9.906   7.662   4.066 -0.1493 -0.1752  1.3703
51557SOL    HW272282   9.871   7.521   4.023 -0.1536  0.3540 -0.4304
51558SOL     OW72283  11.035   4.838   4.349  0.2858  0.6549 -0.1241
51558SOL    HW172284  11.047   4.749   4.381 -1.5371  0.5134  0.2874
51558SOL    HW272285  11.120   4.862   4.312  1.2108 -0.7395  0.9776
51559SOL     OW72286   2.329   1.742   4.411 -0.2659  0.1106  0.1136
51559SOL    HW172287   2.285   1.799   4.474 -1.3632 -0.6814  0.0858
51559SOL    HW272288   2.259   1.707   4.357  0.6031  0.3050 -1.1834
51560SOL     OW72289   5.281   9.256  13.920  0.1027 -0.0960  0.5111
51560SOL    HW172290   5.186   9.271  13.923  0.3539  1.6665  2.8375
51560SOL    HW272291   5.312   9.282  14.007  2.5522 -2.1637  0.3740
51561SOL     OW72292   4.985   5.456   3.686  0.3185 -0.6509  0.4599
51561SOL    HW172293   4.954   5.521   3.749  1.0887 -1.0972  1.3214
51561SOL    HW272294   4.905   5.414   3.653 -0.0563 -2.0060  2.8775
51562SOL     OW72295   3.587  10.469  12.049  0.1261  0.4307  0.1739
51562SOL    HW172296   3.663  10.412  12.062 -0.5533 -0.3407  0.8880
51562SOL    HW272297   3.603  10.511  11.965  2.3068  1.8132  1.1938
51563SOL     OW72298   8.669  10.803   3.433 -0.2901  0.0537 -1.0851
51563SOL    HW172299   8.606  10.875   3.428 -0.3763  0.1383  0.5405
51563SOL    HW272300   8.752  10.844   3.454 -0.3352 -0.2893 -0.1633
51564SOL     OW72301   9.041   7.706   3.008 -0.5021 -0.6362  0.0090
51564SOL    HW172302   8.994   7.635   3.051  1.1412 -1.1312  1.0729
51564SOL    HW272303   9.089   7.664   2.937 -0.5473 -0.3609 -0.1873
51565SOL     OW72304   8.366   6.090   0.733  0.6900  0.1128 -0.1584
51565SOL    HW172305   8.310   6.105   0.658  1.2085 -1.4379 -0.9065
51565SOL    HW272306   8.452   6.122   0.706  1.0166 -0.9884 -0.4879
51566SOL     OW72307  13.849   2.274  11.110  0.1225  0.0355  0.2866
51566SOL    HW172308  13.778   2.223  11.149  0.9734 -0.4221  1.3023
51566SOL    HW272309  13.868   2.229  11.028  0.5413 -1.0519  0.9466
51567SOL     OW72310   2.740  10.110   2.623 -0.2076 -0.2145  0.7685
51567SOL    HW172311   2.796  10.178   2.659 -0.6193 -0.6919  2.3761
51567SOL    HW272312   2.690  10.154   2.555  1.6169  0.3761 -0.2751
51568SOL     OW72313  11.489  10.090   7.851  0.1660  0.0960 -0.0917
51568SOL    HW172314  11.413  10.130   7.809 -0.2723 -0.5846  0.0261
51568SOL    HW272315  11.480   9.996   7.831  0.0601 -0.2156  1.3199
51569SOL     OW72316  13.641   0.589  12.167  0.2233 -0.0053  0.4851
51569SOL    HW172317  13.591   0.611  12.245  1.5543 -0.1591  1.4219
51569SOL    HW272318  13.654   0.494  12.173 -0.4725 -0.1653 -0.4265
51570SOL     OW72319   8.957   6.308   9.579  0.1101  0.1408 -0.5022
51570SOL    HW172320   9.017   6.246   9.620 -1.3864 -1.1264 -0.1414
51570SOL    HW272321   8.929   6.265   9.498  0.0423  0.9104 -0.8971
51571SOL     OW72322   0.973   5.155  14.013 -0.0938  0.0257 -0.3228
51571SOL    HW172323   1.008   5.127  14.098 -2.7447 -0.6834  0.6266
51571SOL    HW272324   1.033   5.224  13.984 -0.6686  2.4479  3.5465
51572SOL     OW72325  13.312   9.941   3.483 -0.2380  0.2628  0.2965
51572SOL    HW172326  13.331  10.021   3.533 -0.9168  0.5254  0.1536
51572SOL    HW272327  13.314   9.871   3.548 -0.9538  0.5814  0.6767
51573SOL     OW72328   4.810   7.270   8.674  1.2600 -0.1838 -0.5671
51573SOL    HW172329   4.767   7.335   8.729  0.7116 -1.1426  0.1618
51573SOL    HW272330   4.781   7.186   8.708  0.2855 -0.8297 -2.8150
51574SOL     OW72331  12.886   4.114   3.356  0.4659 -0.1772 -0.1256
51574SOL    HW172332  12.840   4.099   3.274 -0.1011  0.4842  0.0603
51574SOL    HW272333  12.939   4.192   3.339 -0.0810  0.2918  0.3064
51575SOL     OW72334  11.192   9.414   8.113  0.4036 -0.2256 -0.1800
51575SOL    HW172335  11.244   9.368   8.047 -0.3891 -0.4176 -0.6846
51575SOL    HW272336  11.104   9.381   8.100  0.0531  0.5113  0.2950
51576SOL     OW72337   4.360   5.617   0.185 -0.1019 -0.5015  0.0303
51576SOL    HW172338   4.268   5.618   0.158  0.3147 -0.3075 -1.4522
51576SOL    HW272339   4.384   5.524   0.183 -0.1686 -0.5211  0.1097
51577SOL     OW72340  11.125   1.847   9.871  0.1131  0.0047  0.3791
51577SOL    HW172341  11.059   1.906   9.833 -0.3101  0.6290  2.0137
51577SOL    HW272342  11.085   1.760   9.864 -0.6370  0.3047  0.8093
51578SOL     OW72343  11.365   4.550   1.169  1.3265  0.4165 -0.1128
51578SOL    HW172344  11.447   4.530   1.215  1.5189  1.7978  0.2013
51578SOL    HW272345  11.384   4.631   1.121  0.4904  0.1202 -0.9648
51579SOL     OW72346   1.586  12.285   3.214 -0.2260 -0.4924 -0.5758
51579SOL    HW172347   1.655  12.351   3.206  0.1501 -0.4104  2.2043
51579SOL    HW272348   1.634  12.202   3.221 -0.4299 -0.5525  0.2407
51580SOL     OW72349   8.583   2.200  10.762 -0.0460 -0.3703 -0.5091
51580SOL    HW172350   8.536   2.251  10.696 -1.0515 -0.2646  0.2533
51580SOL    HW272351   8.649   2.261  10.796 -1.5176  0.6356  0.6973
51581SOL     OW72352   7.371  11.186   0.164  0.3136 -0.0435 -0.0668
51581SOL    HW172353   7.313  11.130   0.216  1.5394 -0.8968  0.4124
51581SOL    HW272354   7.359  11.156   0.074  0.9819 -1.1387  0.1885
51582SOL     OW72355   2.230   0.510   6.945  0.4665  0.2747 -0.0277
51582SOL    HW172356   2.303   0.473   6.895  0.1947  1.2664 -1.2107
51582SOL    HW272357   2.171   0.436   6.958  0.4302  0.0269 -1.4099
51583SOL     OW72358   7.073   7.583   2.625  0.1643 -0.7265 -0.1541
51583SOL    HW172359   7.018   7.511   2.656  1.0590 -1.4617 -0.2291
51583SOL    HW272360   7.041   7.602   2.536  0.1271 -1.2540 -0.2533
51584SOL     OW72361   7.191   3.912  12.052  0.0200 -0.0822 -0.1080
51584SOL    HW172362   7.243   3.904  11.972  0.9165  0.0120  0.4477
51584SOL    HW272363   7.150   3.827  12.063  1.1738 -0.6142  0.1872
51585SOL     OW72364   2.148  10.419   9.149  0.2036 -0.6103 -0.5401
51585SOL    HW172365   2.068  10.382   9.187  0.1790  0.7244  0.8299
51585SOL    HW272366   2.214  10.408   9.218  0.5817  0.4197 -0.7193
51586SOL     OW72367  11.569  12.868   4.529  0.4648 -0.0786  0.4122
51586SOL    HW172368  11.476  12.865   4.505  0.4634 -0.4879  0.4601
51586SOL    HW272369  11.604  12.942   4.478  0.3355 -0.5749 -0.4263
51587SOL     OW72370   0.581  14.050   2.852  0.4093  0.0656 -0.2129
51587SOL    HW172371   0.599  13.956   2.849 -0.3112 -0.0880 -0.0377
51587SOL    HW272372   0.555  14.066   2.943  0.8448  0.4990 -0.1593
51588SOL     OW72373   0.303   2.358   1.920  0.7486 -0.7041  0.3014
51588SOL    HW172374   0.366   2.401   1.863  0.3561 -0.3517  0.1270
51588SOL    HW272375   0.220   2.401   1.901  0.7061 -0.1905  1.5317
51589SOL     OW72376   5.106   4.346   4.519  0.3753  0.3006  0.5199
51589SOL    HW172377   5.055   4.415   4.477  1.0536  0.2879 -0.3475
51589SOL    HW272378   5.197   4.375   4.512  1.0739 -2.0512 -2.7139
51590SOL     OW72379   3.223   1.338   3.833 -0.2249  0.1975  0.4194
51590SOL    HW172380   3.192   1.370   3.748  2.7535  0.7758 -0.5516
51590SOL    HW272381   3.169   1.260   3.850 -1.1103  0.2365 -1.8465
51591SOL     OW72382   8.738   1.107   4.909 -0.5534  0.1300 -0.8114
51591SOL    HW172383   8.723   1.133   4.818  1.0875  0.1433 -1.1167
51591SOL    HW272384   8.766   1.187   4.952 -0.9050  0.0327 -0.4011
51592SOL     OW72385   9.217  10.509  11.594 -0.2492 -0.0074 -0.3101
51592SOL    HW172386   9.157  10.546  11.529  1.0405 -0.5290 -1.8814
51592SOL    HW272387   9.178  10.425  11.617 -0.6321  0.0990 -0.5550
51593SOL     OW72388   5.627   3.344  12.894 -0.1221 -0.0725  0.5166
51593SOL    HW172389   5.549   3.292  12.912 -1.7235  2.1683  0.3330
51593SOL    HW272390   5.628   3.411  12.962  0.7541  0.9045 -0.4230
51594SOL     OW72391  13.159   4.432   9.086  0.2657 -0.1961  0.1509
51594SOL    HW172392  13.240   4.469   9.123  0.2549  0.1405 -0.1513
51594SOL    HW272393  13.120   4.505   9.038  1.7254 -1.2995 -2.9851
51595SOL     OW72394   4.083  12.173   3.470 -0.4362 -0.0526  0.3125
51595SOL    HW172395   4.006  12.139   3.424 -0.4027  0.0342  0.1929
51595SOL    HW272396   4.086  12.265   3.446  0.5533 -0.3714 -0.8628
51596SOL     OW72397   9.150  10.703  11.374 -0.3694  0.6783  0.0422
51596SOL    HW172398   9.220  10.761  11.344 -0.1461 -0.1298 -1.0983
51596SOL    HW272399   9.076  10.722  11.316 -0.8102  0.9047  0.6673
51597SOL     OW72400   0.945   9.446   7.340  0.3496  0.0253  0.0753
51597SOL    HW172401   1.003   9.369   7.342  0.4751  0.0760 -1.0482
51597SOL    HW272402   0.904   9.447   7.427  0.5510 -1.1580  0.2082
51598SOL     OW72403   6.427  11.960   3.206  0.9093  0.1308  0.1230
51598SOL    HW172404   6.479  12.005   3.272  0.4784  0.3338  0.3286
51598SOL    HW272405   6.430  12.018   3.130 -1.3700  1.6155  1.0365
51599SOL     OW72406  11.463   2.281   4.007  0.3954  0.3208 -0.1330
51599SOL    HW172407  11.388   2.288   3.948 -1.1043  3.0456  1.8689
51599SOL    HW272408  11.444   2.204   4.061  0.5670 -0.7419 -1.5458
51600SOL     OW72409   4.517  10.429  12.692  0.1699  0.6165  0.0618
51600SOL    HW172410   4.461  10.449  12.767 -1.5118 -1.1859 -0.6443
51600SOL    HW272411   4.590  10.381  12.729  0.2363  1.2186  0.7421
51601SOL     OW72412  10.947   0.970   9.779 -0.4503  0.2693  0.5863
51601SOL    HW172413  11.025   1.012   9.743 -0.4734  0.2125  0.4691
51601SOL    HW272414  10.960   0.877   9.762 -1.1774  0.3822 -0.6647
51602SOL     OW72415   6.290   3.007   9.925 -0.3355 -0.0036 -0.5968
51602SOL    HW172416   6.325   3.090   9.892  1.8265 -1.1735 -1.4917
51602SOL    HW272417   6.322   3.001  10.015  0.1606 -0.2038 -0.7846
51603SOL     OW72418   6.796  11.702  10.092 -0.3530  0.0055  0.4302
51603SOL    HW172419   6.815  11.795  10.096  1.0353 -0.0592 -2.3889
51603SOL    HW272420   6.733  11.687  10.162 -0.5832  3.0360  0.9806
51604SOL     OW72421   8.045   5.238   2.166  0.2473 -0.9306  0.4081
51604SOL    HW172422   8.099   5.236   2.245 -0.1582 -1.2188  0.6844
51604SOL    HW272423   7.996   5.320   2.172  0.5334 -0.7471  0.2392
51605SOL     OW72424   7.639  12.208   9.590 -0.6824 -0.4769 -0.3678
51605SOL    HW172425   7.642  12.186   9.683  2.3778  0.1073 -0.2322
51605SOL    HW272426   7.698  12.146   9.548  0.2313  1.0749 -1.4729
51606SOL     OW72427   2.619  12.731   2.915 -0.2592 -0.1117  0.7392
51606SOL    HW172428   2.544  12.705   2.969 -0.3118  0.8863  1.1636
51606SOL    HW272429   2.663  12.799   2.966  0.6740 -0.3468  0.2775
51607SOL     OW72430   2.110  10.022   6.499  0.5351  0.1368  0.1782
51607SOL    HW172431   2.099  10.016   6.594 -2.8728  1.9876  0.0375
51607SOL    HW272432   2.181  10.086   6.488  2.0063 -1.1878  1.3886
51608SOL     OW72433  12.277   7.142   6.904  0.3021  0.5021  0.0104
51608SOL    HW172434  12.339   7.073   6.927  0.9018  1.8606  3.0400
51608SOL    HW272435  12.296   7.163   6.813  1.0953 -2.2536 -0.5530
51609SOL     OW72436   7.168   9.272  12.431  0.2522  0.5136  0.5801
51609SOL    HW172437   7.230   9.323  12.483 -0.6307  0.6821  1.5215
51609SOL    HW272438   7.222   9.226  12.366  1.3421  0.7016  1.3234
51610SOL     OW72439   3.647   6.235   0.491 -0.4761 -0.4129  0.1186
51610SOL    HW172440   3.569   6.277   0.453 -0.8582 -0.7693  0.4889
51610SOL    HW272441   3.647   6.147   0.453 -0.4227 -0.5112  0.3455
51611SOL     OW72442   1.638   9.422   2.607 -0.4256 -0.4223  0.0983
51611SOL    HW172443   1.618   9.356   2.673 -3.3685  0.3517  0.1181
51611SOL    HW272444   1.734   9.432   2.611  0.1353 -4.2921  0.3559
51612SOL     OW72445   1.300   3.319   1.467  0.1571 -0.3833  0.3878
51612SOL    HW172446   1.388   3.322   1.504  0.2263 -4.1202  0.8885
51612SOL    HW272447   1.314   3.325   1.372  0.6234  1.6296  0.5251
51613SOL     OW72448   7.021   4.424   0.278 -0.6495  0.1557 -0.6280
51613SOL    HW172449   7.083   4.350   0.273 -0.8259 -0.1508  1.1545
51613SOL    HW272450   7.076   4.499   0.300 -0.6560  0.2648 -0.9897
51614SOL     OW72451  11.871   8.657   3.703  0.3904 -0.2266 -0.6125
51614SOL    HW172452  11.931   8.720   3.662  0.9518 -0.4161 -0.1092
51614SOL    HW272453  11.784   8.692   3.686  0.5907 -0.3401 -2.0212
51615SOL     OW72454   5.759   2.749   9.232 -0.2073  0.4767  0.2542
51615SOL    HW172455   5.757   2.656   9.209 -3.8287  0.6004 -0.4877
51615SOL    HW272456   5.787   2.750   9.324  0.4475 -1.2916  0.1161
51616SOL     OW72457   2.866   4.749   3.280  0.3734  0.0665 -0.3804
51616SOL    HW172458   2.814   4.692   3.223  1.3104  0.1733 -1.3859
51616SOL    HW272459   2.844   4.722   3.369 -2.4044  0.9983 -0.7040
51617SOL     OW72460   7.846   4.070  10.962 -0.1018  0.1995  0.6947
51617SOL    HW172461   7.773   4.091  11.021 -0.6257  1.3074 -0.2943
51617SOL    HW272462   7.924   4.087  11.014 -0.5490  1.2869  1.0564
51618SOL     OW72463   1.937  13.090  10.241  0.4967 -0.3143  0.3052
51618SOL    HW172464   1.930  13.103  10.146 -1.3807 -1.1959  0.2776
51618SOL    HW272465   1.905  13.172  10.279  0.1557 -0.3803  0.1645
51619SOL     OW72466   8.348  11.200  12.192 -0.2739 -0.0146  0.3895
51619SOL    HW172467   8.331  11.115  12.234 -2.1522 -0.0758 -0.3795
51619SOL    HW272468   8.316  11.189  12.102  0.3177  1.2377  0.0014
51620SOL     OW72469   5.519   5.082  13.506  0.1850 -0.2364  0.3206
51620SOL    HW172470   5.445   5.044  13.553  1.0863 -1.5734  0.7153
51620SOL    HW272471   5.596   5.041  13.545  0.9967 -0.9955 -1.9216
51621SOL     OW72472  10.591   5.276   8.991  0.1270  0.0346 -0.2697
51621SOL    HW172473  10.537   5.240   9.061 -0.8715  0.4403 -0.8114
51621SOL    HW272474  10.534   5.338   8.946  1.2515  0.9922 -0.4405
51622SOL     OW72475  10.890   5.503   7.709  0.2020 -0.0102 -0.1968
51622SOL    HW172476  10.964   5.563   7.718 -0.1595  0.3560  0.3848
51622SOL    HW272477  10.931   5.417   7.696  0.7243  0.3389 -0.9636
51623SOL     OW72478   0.481  10.781  14.020 -0.1464 -0.2282 -0.5412
51623SOL    HW172479   0.452  10.727  13.946 -0.7041  0.5291 -0.8817
51623SOL    HW272480   0.402  10.826  14.049  0.1013 -0.3971  0.4213
51624SOL     OW72481   5.889   3.808  12.701 -0.0062  0.3938 -0.0920
51624SOL    HW172482   5.831   3.733  12.686 -0.9066  1.2311 -0.9257
51624SOL    HW272483   5.846   3.858  12.770 -0.7477  1.4422 -1.2638
51625SOL     OW72484   4.916   3.097   8.851 -0.1685  0.2061 -0.1402
51625SOL    HW172485   4.949   3.180   8.886 -0.6830  0.7017 -0.8170
51625SOL    HW272486   4.990   3.037   8.860  0.2221  0.7421  0.3343
51626SOL     OW72487   1.565  10.089  10.573 -0.5159  0.6229  0.4403
51626SOL    HW172488   1.626  10.045  10.632  0.2791  2.3325  0.9650
51626SOL    HW272489   1.480  10.052  10.596  0.1197 -0.8028  0.6577
51627SOL     OW72490   2.570   5.960   6.800  0.5210 -0.2277 -0.4032
51627SOL    HW172491   2.635   6.027   6.778  1.6313 -1.7329 -1.9780
51627SOL    HW272492   2.621   5.879   6.809 -0.8440 -1.0017  0.9165
51628SOL     OW72493   0.675   4.431   9.693  0.1791  0.3752 -0.1558
51628SOL    HW172494   0.761   4.388   9.696  0.3072  0.6270 -0.2573
51628SOL    HW272495   0.688   4.508   9.639 -0.4116 -0.2407 -1.2061
51629SOL     OW72496  12.652  10.682   2.497 -0.5046  0.1516  0.0263
51629SOL    HW172497  12.678  10.610   2.440  1.3639  1.3664 -0.7468
51629SOL    HW272498  12.562  10.702   2.470 -0.3451 -0.5760 -1.1344
51630SOL     OW72499   1.521  13.459   0.786 -0.3416  0.2450  0.6188
51630SOL    HW172500   1.607  13.429   0.755 -0.4899  0.8370 -0.4047
51630SOL    HW272501   1.497  13.529   0.726 -1.0682  0.8208  1.5565
51631SOL     OW72502  13.581   7.888   8.623  0.1863 -0.2625  0.4492
51631SOL    HW172503  13.608   7.973   8.657 -2.9900  1.6371 -1.2699
51631SOL    HW272504  13.658   7.855   8.577  1.4623  1.7406  1.0172
51632SOL     OW72505   5.809   4.246   0.504  0.2437 -0.3603 -0.0565
51632SOL    HW172506   5.871   4.235   0.577  1.0563 -0.2444 -0.7174
51632SOL    HW272507   5.766   4.330   0.523  1.4968  0.4071 -0.4410
51633SOL     OW72508   3.175   3.857   0.104  0.3733 -0.0709  0.1567
51633SOL    HW172509   3.162   3.773   0.149  0.5893  0.5099  1.3349
51633SOL    HW272510   3.268   3.876   0.116  0.9233 -0.8277 -2.2463
51634SOL     OW72511   2.357  11.443   9.604 -0.0310  0.1871 -0.6376
51634SOL    HW172512   2.347  11.467   9.696 -3.0742  0.4405 -0.9170
51634SOL    HW272513   2.410  11.512   9.566  0.3075  0.6883  0.7024
51635SOL     OW72514   7.478   4.764   1.933  0.0462  0.2770 -0.7075
51635SOL    HW172515   7.566   4.780   1.966  1.2830  1.4587 -4.0912
51635SOL    HW272516   7.463   4.670   1.948  1.6631  0.1605  0.3891
51636SOL     OW72517   5.617   4.417   1.044  0.2488  0.2478  0.1453
51636SOL    HW172518   5.528   4.421   1.079  0.1055 -0.6024 -0.1049
51636SOL    HW272519   5.667   4.475   1.102 -0.3961  0.4764  0.4932
51637SOL     OW72520   4.192   9.221   2.664 -0.0263 -0.4518  0.0130
51637SOL    HW172521   4.226   9.294   2.613  0.2720  0.7709  1.8392
51637SOL    HW272522   4.233   9.230   2.750 -2.6746 -0.6182  1.4285
51638SOL     OW72523   4.279   2.278  11.614 -0.2738 -0.4402 -0.2286
51638SOL    HW172524   4.290   2.197  11.564 -1.6460 -1.3602  0.8752
51638SOL    HW272525   4.278   2.250  11.705 -1.8474  0.6689  0.1414
51639SOL     OW72526  12.881   7.268   5.741 -0.2150 -0.5885 -0.4677
51639SOL    HW172527  12.900   7.255   5.648  0.0388  1.7119 -0.7881
51639SOL    HW272528  12.967   7.258   5.784  0.0000  0.1601 -0.7143
51640SOL     OW72529   0.892  12.246  12.262 -0.1463  0.4016  0.2452
51640SOL    HW172530   0.946  12.167  12.274  1.4765  1.3353 -0.4643
51640SOL    HW272531   0.804  12.220  12.289  0.1165 -1.9542 -0.9145
51641SOL     OW72532   4.825  12.950   7.957  0.1128  0.1156 -0.9111
51641SOL    HW172533   4.777  12.969   7.876 -1.3015  0.9489  0.0902
51641SOL    HW272534   4.769  12.889   8.005  0.7721 -0.0909 -0.3937
51642SOL     OW72535   1.623   2.858   9.507  0.4694 -0.0938 -0.0771
51642SOL    HW172536   1.671   2.908   9.573 -0.2138  0.6875 -0.1541
51642SOL    HW272537   1.539   2.838   9.549  0.0248  0.4138 -0.7005
51643SOL     OW72538  11.987   5.864  14.068  0.4599  0.1611 -0.0589
51643SOL    HW172539  11.996   5.840  14.160  0.5489 -0.4485 -0.2233
51643SOL    HW272540  12.069   5.910  14.048  0.5106  0.1522  0.1209
51644SOL     OW72541   8.053   3.322   5.282 -0.2457 -0.3406 -0.8796
51644SOL    HW172542   8.016   3.299   5.367 -0.4814  0.6116 -0.7050
51644SOL    HW272543   8.069   3.238   5.239 -0.1255 -0.8391  0.0962
51645SOL     OW72544   8.565   2.159   8.561  0.3278  0.4814  0.2634
51645SOL    HW172545   8.554   2.254   8.562  3.0779  0.9862  4.1832
51645SOL    HW272546   8.646   2.145   8.511 -0.8087 -0.0582 -1.5289
51646SOL     OW72547   7.442   5.871   2.069 -0.5519 -0.0292  0.1472
51646SOL    HW172548   7.528   5.859   2.107 -0.1612 -0.0723 -0.7224
51646SOL    HW272549   7.416   5.960   2.094  0.7795  0.8998 -1.5452
51647SOL     OW72550   7.820   6.339   9.869 -0.3205  0.2956 -0.0244
51647SOL    HW172551   7.807   6.290   9.787  0.0179  0.1998 -0.0223
51647SOL    HW272552   7.914   6.357   9.871 -0.0678 -1.0327  1.0923
51648SOL     OW72553  13.862  10.155  10.829 -0.6429  0.5430 -0.2685
51648SOL    HW172554  13.927  10.105  10.780 -1.8427  0.0620 -1.4298
51648SOL    HW272555  13.883  10.137  10.921 -0.5513 -1.4768 -0.6285
51649SOL     OW72556   6.952   7.449  10.999 -0.1197  0.3394 -0.0346
51649SOL    HW172557   7.001   7.530  11.008 -0.0961  0.3663 -0.3829
51649SOL    HW272558   6.864   7.470  11.029 -0.1824  0.5664 -0.3734
51650SOL     OW72559  10.473   0.191   0.226 -0.4587 -0.2590 -0.4852
51650SOL    HW172560  10.421   0.110   0.230  1.4556 -1.6715 -2.3303
51650SOL    HW272561  10.499   0.207   0.317 -0.2807 -2.1229 -0.1735
51651SOL     OW72562   8.080   9.450   3.190  0.4742  0.1472  0.0516
51651SOL    HW172563   8.152   9.424   3.132  0.9515 -0.6141  0.9642
51651SOL    HW272564   8.024   9.505   3.135  1.1932 -0.1186 -0.9776
51652SOL     OW72565   6.893  10.581  12.948  0.1601 -0.0256  0.3422
51652SOL    HW172566   6.979  10.559  12.984  0.5848 -1.0149 -1.1523
51652SOL    HW272567   6.831  10.531  13.001  0.8336 -2.0908 -0.7162
51653SOL     OW72568   7.700   1.093   2.859  0.1185 -0.6328 -0.1986
51653SOL    HW172569   7.782   1.089   2.810 -0.9216  1.3273 -2.2898
51653SOL    HW272570   7.634   1.060   2.798 -1.1835  1.6572 -0.1323
51654SOL     OW72571  11.656  11.881   6.488 -0.0380  0.4509 -0.4116
51654SOL    HW172572  11.717  11.920   6.424  0.4770  1.9959  0.9377
51654SOL    HW272573  11.695  11.901   6.573 -2.8006  2.2584  0.5653
51655SOL     OW72574   6.134   9.301   5.857 -0.2157 -0.4596  0.3551
51655SOL    HW172575   6.038   9.297   5.855 -0.1820 -1.2879  0.0373
51655SOL    HW272576   6.156   9.376   5.801 -0.6475 -0.9176 -0.4539
51656SOL     OW72577  11.810  12.690   0.848 -0.3904  0.2553 -0.0535
51656SOL    HW172578  11.778  12.726   0.765 -0.6417  0.4075  0.1078
51656SOL    HW272579  11.769  12.603   0.853  0.7635 -0.3469 -0.7746
51657SOL     OW72580   7.439   0.982   4.238  0.4966  0.3510 -0.4596
51657SOL    HW172581   7.366   0.922   4.253  1.1379 -0.7657 -1.5622
51657SOL    HW272582   7.449   0.984   4.143  1.4543  1.0362 -0.3572
51658SOL     OW72583   4.670   6.721  10.627  0.1399  0.4885 -0.4362
51658SOL    HW172584   4.592   6.729  10.681  0.5199 -1.4131  0.4739
51658SOL    HW272585   4.651   6.649  10.567  0.3833  1.4627 -1.7325
51659SOL     OW72586  12.294  10.790  10.608 -0.3896  0.2157  0.3724
51659SOL    HW172587  12.343  10.863  10.570 -0.6603  0.3950  0.3700
51659SOL    HW272588  12.358  10.719  10.612 -0.3938  0.1479 -0.5656
51660SOL     OW72589   5.691  13.683   1.512  0.8409 -0.0114  0.0368
51660SOL    HW172590   5.710  13.601   1.557  1.1039  0.6396  1.1343
51660SOL    HW272591   5.757  13.688   1.443  1.9757  0.1289  1.1024
51661SOL     OW72592  10.991   7.837   1.377  0.4719  0.3291 -0.3950
51661SOL    HW172593  10.923   7.822   1.311 -3.0000  1.5717  2.5834
51661SOL    HW272594  11.006   7.931   1.375 -0.9346  0.6519  1.5514
51662SOL     OW72595  11.619   9.534  11.865 -0.8203 -0.0180  0.4216
51662SOL    HW172596  11.701   9.562  11.825 -0.6903 -0.6503  0.2208
51662SOL    HW272597  11.645   9.502  11.951 -0.4338 -2.5456 -0.5433
51663SOL     OW72598   2.271   3.381   8.103 -0.1540  0.1863  0.2393
51663SOL    HW172599   2.302   3.414   8.019  1.0219 -0.0434  0.5689
51663SOL    HW272600   2.214   3.307   8.080  0.6892 -0.3018 -0.3402
51664SOL     OW72601   6.863  10.522   2.290 -0.2477 -0.7556  0.0538
51664SOL    HW172602   6.779  10.500   2.330 -0.2282 -0.5978  0.1835
51664SOL    HW272603   6.842  10.538   2.197 -0.4686 -0.1089  0.2063
51665SOL     OW72604  12.397   6.871   2.295  0.2443 -0.4802 -0.2216
51665SOL    HW172605  12.310   6.887   2.260 -0.1560 -0.7968  0.5862
51665SOL    HW272606  12.410   6.940   2.360  0.6714 -0.3246 -0.4703
51666SOL     OW72607   0.512   7.091   2.859  0.2804  0.1277  0.3215
51666SOL    HW172608   0.489   7.076   2.767  0.0313 -1.6371  0.6290
51666SOL    HW272609   0.461   7.026   2.907  2.0848 -0.4933  1.5000
51667SOL     OW72610  11.795   6.839  10.089  0.1406 -0.2463  0.2667
51667SOL    HW172611  11.728   6.886  10.040  0.5426  3.0341  2.5489
51667SOL    HW272612  11.873   6.842  10.034 -0.9602 -2.4580 -1.5876
51668SOL     OW72613  10.696   8.469   2.857  0.0944 -0.0208  0.0204
51668SOL    HW172614  10.729   8.557   2.838 -0.3176 -0.2221 -1.8094
51668SOL    HW272615  10.613   8.485   2.903  0.1609  0.5560 -0.0432
51669SOL     OW72616   5.111   6.452  13.337 -0.0161 -0.2527  0.0327
51669SOL    HW172617   5.123   6.395  13.261 -0.1745 -1.4321  0.8703
51669SOL    HW272618   5.196   6.495  13.349 -0.2156  0.5508 -1.2693
51670SOL     OW72619  11.181   6.141   1.781 -0.0494 -0.8725 -0.6881
51670SOL    HW172620  11.107   6.086   1.757 -0.8123 -0.9069  1.4798
51670SOL    HW272621  11.144   6.229   1.788  0.9450 -0.1849 -3.1270
51671SOL     OW72622  11.658  11.152  13.763 -0.8807  0.3023 -0.2922
51671SOL    HW172623  11.566  11.128  13.751 -1.1222  0.9602  0.1790
51671SOL    HW272624  11.704  11.112  13.688 -1.3555 -1.0408  0.1081
51672SOL     OW72625  11.932   9.969   1.119  0.5089 -0.2426  0.2355
51672SOL    HW172626  11.968  10.024   1.049 -0.9171 -0.7085 -0.9295
51672SOL    HW272627  12.000   9.905   1.138  1.3952  0.6599  0.1542
51673SOL     OW72628  12.913   2.113   3.541  0.1449  0.5720 -0.1422
51673SOL    HW172629  12.880   2.024   3.553 -0.8202  0.8602 -0.5917
51673SOL    HW272630  12.997   2.114   3.588  1.1109 -1.1179 -1.7072
51674SOL     OW72631   9.307  11.102   9.380 -0.6415 -0.3044  0.2314
51674SOL    HW172632   9.253  11.133   9.307  0.0110  1.6828  0.5219
51674SOL    HW272633   9.288  11.009   9.387 -2.2210 -0.1265 -1.1913
51675SOL     OW72634   8.872   2.893  11.171  0.3767 -0.1401  0.2269
51675SOL    HW172635   8.917   2.837  11.108  0.1241  0.0661 -0.1437
51675SOL    HW272636   8.890   2.982  11.141  0.0488 -0.0463  0.3041
51676SOL     OW72637  11.113  11.857   1.607  0.3224 -0.2722  0.4578
51676SOL    HW172638  11.121  11.951   1.590 -2.2004 -0.1448 -0.5767
51676SOL    HW272639  11.191  11.818   1.568  0.4394  1.2356 -0.9393
51677SOL     OW72640  12.378   2.074   8.769 -0.1656  0.2520 -0.4277
51677SOL    HW172641  12.425   2.155   8.749  0.4572  0.3262  1.2024
51677SOL    HW272642  12.396   2.058   8.861 -2.7240 -0.1328  0.0733
51678SOL     OW72643   9.923  13.551   4.935 -0.5112 -0.3793 -0.4016
51678SOL    HW172644   9.881  13.616   4.991 -0.5570  0.4314 -1.3367
51678SOL    HW272645   9.970  13.494   4.995 -0.4267  0.5500  0.4504
51679SOL     OW72646   3.712  12.522  13.086 -0.2079 -0.3019  0.1260
51679SOL    HW172647   3.767  12.445  13.103  0.7842 -0.1160 -1.9656
51679SOL    HW272648   3.753  12.564  13.011 -2.8318  0.2549 -1.0840
51680SOL     OW72649   4.350  13.291   0.111 -0.4466 -0.4425  0.6183
51680SOL    HW172650   4.285  13.333   0.054  0.8875 -0.3262 -0.9120
51680SOL    HW272651   4.327  13.198   0.108 -2.1581 -0.1350  2.3395
51681SOL     OW72652  12.364   9.492   7.716  0.1825 -0.2137  0.2004
51681SOL    HW172653  12.381   9.579   7.753  0.7855 -0.8253  1.4447
51681SOL    HW272654  12.442   9.472   7.664 -0.6577  0.6400 -1.4556
51682SOL     OW72655   0.426   7.407  13.038 -0.0163 -0.4569  0.0611
51682SOL    HW172656   0.458   7.404  13.128 -1.0061 -2.1892  0.3938
51682SOL    HW272657   0.458   7.326  12.997  2.9157  1.5669 -2.1282
51683SOL     OW72658   2.218  12.038  13.873  0.1302  0.1256  0.5920
51683SOL    HW172659   2.222  11.989  13.791 -0.6509  0.4285  0.3701
51683SOL    HW272660   2.206  12.129  13.847  0.6032  0.3212  1.0322
51684SOL     OW72661  11.178   9.022   1.222  0.6611 -0.2964 -0.1742
51684SOL    HW172662  11.148   8.957   1.158  0.4389  0.9768 -1.4105
51684SOL    HW272663  11.266   8.994   1.246 -0.4825 -2.7590  1.6995
51685SOL     OW72664  10.462   1.820   0.965 -0.2757  0.7719 -0.3920
51685SOL    HW172665  10.395   1.802   0.899  1.1069  1.1136 -1.9524
51685SOL    HW272666  10.470   1.737   1.013 -0.1663 -0.0291 -1.7362
51686SOL     OW72667   1.837   9.441  10.626  0.0490 -0.2256 -0.0570
51686SOL    HW172668   1.925   9.417  10.655  0.1139  1.1415  1.0015
51686SOL    HW272669   1.851   9.515  10.566 -0.2187 -1.8585 -2.2507
51687SOL     OW72670   8.005  11.122  10.786 -0.0424 -0.2135 -0.1161
51687SOL    HW172671   8.051  11.072  10.719 -1.6015 -1.4600 -0.3299
51687SOL    HW272672   7.945  11.178  10.738  0.5633  0.7015  0.1794
51688SOL     OW72673  12.192   4.475   9.844  0.8006 -0.1421  0.1792
51688SOL    HW172674  12.249   4.508   9.775  0.7676  0.9979  0.6596
51688SOL    HW272675  12.214   4.529   9.920  1.8353 -2.2608  1.4949
51689SOL     OW72676   4.862  12.556   5.902 -0.0957 -0.4230 -1.4220
51689SOL    HW172677   4.795  12.624   5.899  0.6225  0.5372  1.2704
51689SOL    HW272678   4.940  12.601   5.934  1.7057 -1.6469 -3.8688
51690SOL     OW72679   2.093   7.187   6.520 -0.1588  0.1818  0.1180
51690SOL    HW172680   2.112   7.176   6.427  0.2770 -0.7164  0.3034
51690SOL    HW272681   2.013   7.240   6.521  0.2852  0.9132 -0.7372
51691SOL     OW72682  12.115  10.367   9.168  1.2113  0.5209  0.0717
51691SOL    HW172683  12.186  10.373   9.232 -0.2429 -0.5204  1.8929
51691SOL    HW272684  12.047  10.425   9.203  0.1983 -0.4324 -0.2712
51692SOL     OW72685  10.375  13.494  12.767 -0.8786 -0.1048 -0.0333
51692SOL    HW172686  10.439  13.444  12.817 -2.4749 -1.9101  0.3005
51692SOL    HW272687  10.422  13.522  12.689  0.9535  0.6364  1.2675
51693SOL     OW72688  12.390  10.844   8.610  0.9637 -0.1705  0.1988
51693SOL    HW172689  12.336  10.830   8.688  1.0110 -1.6884 -0.0070
51693SOL    HW272690  12.381  10.938   8.590 -1.6668 -0.3678  0.1223
51694SOL     OW72691   9.944   1.823  13.706 -0.3642  0.3095  0.4271
51694SOL    HW172692  10.024   1.822  13.654 -0.9285  1.4604 -0.5167
51694SOL    HW272693   9.962   1.884  13.778 -0.6639  1.2321 -0.2672
51695SOL     OW72694  10.107   4.065  13.143  0.7299  0.6630  0.1940
51695SOL    HW172695  10.065   4.124  13.081  1.5177  0.7309 -0.2855
51695SOL    HW272696  10.078   4.096  13.229  0.3978  1.1628 -0.0950
51696SOL     OW72697   3.052  12.434   2.769  0.0258  0.2080  0.2028
51696SOL    HW172698   3.074  12.342   2.756  0.8872  0.3548  0.5154
51696SOL    HW272699   2.964  12.433   2.807 -0.0518 -0.4757  0.0069
51697SOL     OW72700   3.620   4.639   9.051  0.2948  0.3068  0.1004
51697SOL    HW172701   3.713   4.629   9.029 -0.1645 -1.2769 -1.3713
51697SOL    HW272702   3.590   4.550   9.066 -1.3582  0.6183 -1.1160
51698SOL     OW72703   7.131   2.132   1.897  0.0561 -0.0347 -0.3137
51698SOL    HW172704   7.037   2.145   1.913  0.0305  0.7469 -1.0444
51698SOL    HW272705   7.158   2.209   1.847  1.0574 -0.3291 -0.2436
51699SOL     OW72706  11.735   1.050   5.787 -0.5709  0.0510  0.1512
51699SOL    HW172707  11.780   1.089   5.862 -0.8296  0.3115  0.1737
51699SOL    HW272708  11.646   1.085   5.792 -0.9970 -1.0423  0.5493
51700SOL     OW72709   0.784   7.448   4.134  0.0872  0.1783 -0.0512
51700SOL    HW172710   0.728   7.371   4.138  0.7690 -0.3083  0.2993
51700SOL    HW272711   0.748   7.507   4.200 -0.2051  0.0004 -0.0504
51701SOL     OW72712  10.077   6.198   3.958 -0.3762  0.3382 -0.0415
51701SOL    HW172713   9.986   6.167   3.954 -0.8708  1.7492 -0.3897
51701SOL    HW272714  10.098   6.197   4.052 -0.5461 -0.5206 -0.0054
51702SOL     OW72715   6.793  11.088   3.259 -0.0245  0.6497  0.2232
51702SOL    HW172716   6.836  11.117   3.179 -1.0704  0.2223 -0.5181
51702SOL    HW272717   6.703  11.120   3.251 -0.4724 -0.4566  0.6371
51703SOL     OW72718   4.043   5.273   2.463  0.4467 -0.0666  1.0537
51703SOL    HW172719   4.105   5.228   2.406 -0.9837  0.1381 -0.7698
51703SOL    HW272720   3.989   5.203   2.500  0.6790 -0.1202  1.2936
51704SOL     OW72721   4.467   3.574  11.217  0.1866 -0.4925  0.9822
51704SOL    HW172722   4.500   3.557  11.129  1.4799 -0.3747  1.4208
51704SOL    HW272723   4.492   3.665  11.235  1.1013 -0.9063  1.9399
51705SOL     OW72724   3.485  10.693   9.126  0.1130  0.2731  0.0662
51705SOL    HW172725   3.436  10.649   9.056  0.5564  0.5981 -0.4548
51705SOL    HW272726   3.453  10.652   9.207  2.3243 -2.8271 -0.4813
51706SOL     OW72727  10.791  13.078   4.873 -0.5012 -0.3080  0.1948
51706SOL    HW172728  10.800  12.989   4.839 -1.0513  0.4829 -2.2345
51706SOL    HW272729  10.815  13.071   4.965 -1.7398 -3.1979  0.4202
51707SOL     OW72730   3.149   5.965   4.390  0.2986 -0.1212  0.6506
51707SOL    HW172731   3.093   5.888   4.403  0.1530 -0.2141 -0.4627
51707SOL    HW272732   3.238   5.930   4.388  0.1682 -0.4200 -0.9086
51708SOL     OW72733   8.831  11.407   5.044 -0.1358  0.8163 -0.1500
51708SOL    HW172734   8.881  11.460   4.982 -1.2013  0.1520 -1.6411
51708SOL    HW272735   8.882  11.411   5.125  1.6813  1.1509 -1.2440
51709SOL     OW72736   1.021   3.497   8.293  0.3293 -0.2435 -0.1693
51709SOL    HW172737   0.937   3.528   8.259  0.3988  1.9081  1.4231
51709SOL    HW272738   1.085   3.530   8.231  0.2003  0.7083  0.1908
51710SOL     OW72739  12.637   7.753   9.955  0.0629 -0.3071 -0.4598
51710SOL    HW172740  12.724   7.763   9.994  0.5080  1.6061 -1.8151
51710SOL    HW272741  12.577   7.783  10.022  0.5589 -0.1825 -0.0670
51711SOL     OW72742   6.902  11.691   9.783  0.1600  0.3496 -0.2983
51711SOL    HW172743   6.891  11.689   9.878  0.5257  2.0623 -0.1993
51711SOL    HW272744   6.814  11.677   9.748  0.0609 -0.5149  0.2758
51712SOL     OW72745   5.293   9.842  11.917 -0.6561  0.4818 -0.7431
51712SOL    HW172746   5.274   9.772  11.979 -0.1141  0.0817 -1.0164
51712SOL    HW272747   5.211   9.890  11.908 -1.3038 -0.6633 -1.2456
51713SOL     OW72748   1.399   5.971  12.510  0.9185 -0.0188  0.0860
51713SOL    HW172749   1.366   5.887  12.478  0.0516 -0.0589  1.0079
51713SOL    HW272750   1.482   5.949  12.554  0.7541 -0.3759  0.2223
51714SOL     OW72751  13.889   4.534   2.293  0.6954 -0.0766 -0.0690
51714SOL    HW172752  13.870   4.511   2.384 -0.0356 -0.2248 -0.2447
51714SOL    HW272753  13.857   4.624   2.284 -0.1397 -0.3920 -0.4189
51715SOL     OW72754   3.638   0.111   2.176 -0.1885 -0.3768  0.2912
51715SOL    HW172755   3.717   0.120   2.228  0.3237 -0.8556 -0.3860
51715SOL    HW272756   3.592   0.195   2.187  0.1263 -0.3101  1.1369
51716SOL     OW72757   6.881   5.628   5.407  0.4395  0.3706  0.3413
51716SOL    HW172758   6.843   5.567   5.343  0.6060 -1.3950  1.8412
51716SOL    HW272759   6.829   5.708   5.398  0.3538  0.1283 -1.8477
51717SOL     OW72760   4.046   0.466   1.955 -0.0649 -0.1249  0.3607
51717SOL    HW172761   3.994   0.402   1.907 -0.4049  0.3935  0.0431
51717SOL    HW272762   3.986   0.537   1.976  0.4052  0.2755  0.3786
51718SOL     OW72763  13.989   8.082   5.723 -0.2789  0.1643  0.2162
51718SOL    HW172764  13.940   8.000   5.736 -0.4083  0.4666  1.8136
51718SOL    HW272765  14.071   8.054   5.682 -0.3316 -0.7891  0.7188
51719SOL     OW72766   1.747   1.738  12.858  0.3240 -0.3802  0.3088
51719SOL    HW172767   1.743   1.743  12.953  1.6521  0.2528  0.3642
51719SOL    HW272768   1.841   1.746  12.838 -0.1011  2.1365 -1.1667
51720SOL     OW72769  11.377   5.315  11.654 -0.1834  0.3945  0.0529
51720SOL    HW172770  11.431   5.377  11.703 -0.8115  0.5677  0.5392
51720SOL    HW272771  11.386   5.341  11.563 -1.7790  2.3072  0.3654
51721SOL     OW72772   1.291   3.038   1.796  0.0783 -0.1587  0.0150
51721SOL    HW172773   1.384   3.033   1.818  0.2934  1.0584 -0.5364
51721SOL    HW272774   1.287   3.020   1.702 -0.2433 -0.1880  0.0333
51722SOL     OW72775   8.996  13.228   9.917 -0.4363  0.6033  0.0368
51722SOL    HW172776   8.969  13.319   9.907  1.0992  1.2435  1.2320
51722SOL    HW272777   9.072  13.220   9.859 -1.3342 -0.2955 -1.0334
51723SOL     OW72778  14.043   2.260   5.540 -0.2618  0.3061 -0.1895
51723SOL    HW172779  14.116   2.203   5.566 -0.5056  0.4087  0.7695
51723SOL    HW272780  14.085   2.344   5.521  0.0881 -0.1484 -1.5120
51724SOL     OW72781  11.085  13.766   0.917  0.5122 -0.3870 -0.0019
51724SOL    HW172782  11.147  13.782   0.988  1.3212 -1.7643 -0.3638
51724SOL    HW272783  11.084  13.671   0.906 -0.8927 -0.3279 -0.7090
51725SOL     OW72784   9.169   8.477   5.604 -0.4054  0.4131 -0.3632
51725SOL    HW172785   9.171   8.519   5.518 -1.8248  0.5104 -0.3694
51725SOL    HW272786   9.109   8.530   5.656 -0.5871 -0.3928  0.2782
51726SOL     OW72787  10.916   7.859   6.990  0.4785  0.2860  0.0615
51726SOL    HW172788  10.974   7.889   7.061 -0.2451  1.0593  0.3383
51726SOL    HW272789  10.942   7.912   6.914  0.7348 -0.0074 -0.0615
51727SOL     OW72790   6.167  12.916  12.243 -0.0386  0.9222  0.0456
51727SOL    HW172791   6.097  12.962  12.197  0.0476  0.6974 -0.3242
51727SOL    HW272792   6.159  12.825  12.212 -0.0564  0.7444  0.5739
51728SOL     OW72793   9.476   2.846   6.077  0.5396  0.1110  0.0925
51728SOL    HW172794   9.530   2.767   6.086 -1.9600 -1.5833  1.2772
51728SOL    HW272795   9.471   2.881   6.166 -1.1187 -0.3830  0.2203
51729SOL     OW72796  10.890  10.945   3.749  0.4547  0.0157 -0.3053
51729SOL    HW172797  10.963  10.889   3.775  1.1948  0.4390 -1.4179
51729SOL    HW272798  10.916  10.982   3.665 -0.3637  1.4235  0.0270
51730SOL     OW72799   7.564   0.042  12.731 -0.4510 -0.1873  0.2132
51730SOL    HW172800   7.495   0.063  12.668  0.4216 -2.1942 -1.5513
51730SOL    HW272801   7.641   0.088  12.699 -0.5026  0.5335  1.0928
51731SOL     OW72802   8.323   0.420  13.296  0.0482 -0.0577  0.1095
51731SOL    HW172803   8.234   0.390  13.311  0.7739 -2.5315 -0.1369
51731SOL    HW272804   8.339   0.403  13.203  1.2782 -1.2081  0.4947
51732SOL     OW72805   1.697   7.070   0.612 -0.0701  0.3369  0.1374
51732SOL    HW172806   1.760   7.136   0.583  1.1640 -0.1814  1.5511
51732SOL    HW272807   1.646   7.049   0.533 -0.1559  2.5714 -0.4647
51733SOL     OW72808  10.214  11.088   8.725  0.3323  0.0494  0.2456
51733SOL    HW172809  10.194  11.178   8.697 -2.0266  0.2995  2.3791
51733SOL    HW272810  10.249  11.098   8.814  1.0914 -1.0991  0.0907
51734SOL     OW72811  10.768  12.295   1.973 -0.6523  0.3203  0.0721
51734SOL    HW172812  10.857  12.300   1.937 -0.8418 -0.9551 -0.6293
51734SOL    HW272813  10.718  12.359   1.922 -0.8211 -1.1657 -1.7050
51735SOL     OW72814   9.731  10.771  13.082 -0.6968  0.2944 -0.4151
51735SOL    HW172815   9.694  10.772  12.993  1.6170  0.9143 -1.4382
51735SOL    HW272816   9.668  10.820  13.134 -2.6446 -0.9628 -1.4397
51736SOL     OW72817   5.094   8.157  12.622 -0.1153  0.3615 -0.3815
51736SOL    HW172818   5.117   8.065  12.605 -1.7992 -0.0723 -0.4135
51736SOL    HW272819   5.110   8.168  12.716 -1.9685 -0.6212  0.0901
51737SOL     OW72820   2.507   7.185   9.705 -0.0126  0.2651 -0.3172
51737SOL    HW172821   2.497   7.276   9.736  0.4589  0.8917 -1.9070
51737SOL    HW272822   2.444   7.135   9.757 -0.9175  1.6534 -0.0230
51738SOL     OW72823  13.535   8.624   9.187  0.5872 -0.3255 -0.1968
51738SOL    HW172824  13.503   8.711   9.163 -0.9963 -1.0261 -0.7084
51738SOL    HW272825  13.466   8.564   9.161  1.4995 -1.7303  0.4699
51739SOL     OW72826   1.012   7.818   6.953 -0.0057 -0.0731 -0.0382
51739SOL    HW172827   1.099   7.777   6.961  1.0368  1.8008 -1.0207
51739SOL    HW272828   1.006   7.875   7.030 -0.3263 -0.1177 -0.0300
51740SOL     OW72829   7.374   9.614   2.452  0.3095 -0.1034 -0.5364
51740SOL    HW172830   7.399   9.523   2.432 -0.5842  0.2849 -4.1098
51740SOL    HW272831   7.437   9.667   2.404 -0.5374  1.0957 -0.3567
51741SOL     OW72832  10.032  13.537   3.922  0.6598 -0.5659 -0.6470
51741SOL    HW172833  10.053  13.629   3.906  3.2071 -1.3100 -2.0639
51741SOL    HW272834   9.987  13.509   3.843 -0.9990 -0.3913  0.1678
51742SOL     OW72835   1.298   7.066  13.020  0.7756  0.1215 -0.5813
51742SOL    HW172836   1.231   7.117  13.066  0.3339  0.0067 -1.0889
51742SOL    HW272837   1.251   7.023  12.949  1.2997 -0.3544 -0.6480
51743SOL     OW72838   7.172   0.595  10.955  0.0345 -0.1091 -0.0353
51743SOL    HW172839   7.229   0.542  11.010 -0.6579 -1.4059 -0.5154
51743SOL    HW272840   7.154   0.674  11.006  1.0606 -0.3536  0.7178
51744SOL     OW72841   9.350   5.947   2.472 -0.1327  0.2148 -0.4751
51744SOL    HW172842   9.397   5.871   2.506 -0.3339  0.2611 -0.0946
51744SOL    HW272843   9.390   5.963   2.386  0.3102  0.0444 -0.3030
51745SOL     OW72844   8.332   6.476  13.325  0.3267  0.2808  0.2121
51745SOL    HW172845   8.408   6.534  13.324  0.5948 -0.0607  0.3846
51745SOL    HW272846   8.260   6.529  13.291  1.0632  0.0187 -1.9125
51746SOL     OW72847   6.501   1.449  11.487  0.1619  0.3662 -0.2279
51746SOL    HW172848   6.554   1.426  11.563  0.7711 -0.1810 -0.8068
51746SOL    HW272849   6.445   1.521  11.518  0.6652  0.4063  0.6246
51747SOL     OW72850  10.737   8.742   3.549  0.1016  0.1430  0.5836
51747SOL    HW172851  10.779   8.758   3.464 -1.4234  0.3372 -0.1675
51747SOL    HW272852  10.751   8.648   3.564 -0.9241 -0.2433 -0.6559
51748SOL     OW72853   1.077   3.579   0.144 -0.1648  0.2015 -0.1675
51748SOL    HW172854   1.070   3.672   0.122  2.8832  0.2120 -1.7058
51748SOL    HW272855   1.159   3.573   0.194 -0.7496 -1.5767  0.6461
51749SOL     OW72856   1.997   7.274   5.403 -0.1350  0.1197 -0.0336
51749SOL    HW172857   1.903   7.272   5.386  0.1002  0.5721 -1.4867
51749SOL    HW272858   2.033   7.330   5.335  1.2160 -0.1656  0.4091
51750SOL     OW72859  12.064  11.496  11.670  0.1421  0.5093 -0.2350
51750SOL    HW172860  12.090  11.431  11.735  1.0503  0.9576 -0.1353
51750SOL    HW272861  11.995  11.454  11.620 -1.1846  0.4474  1.5466
51751SOL     OW72862   6.823   0.860  13.525  0.0233  0.5198  0.3201
51751SOL    HW172863   6.877   0.802  13.472  1.4661  2.8902 -0.9499
51751SOL    HW272864   6.795   0.805  13.599  0.6535 -1.9513 -1.1603
51752SOL     OW72865  12.123  12.018   7.968 -0.2055  0.3438  0.3078
51752SOL    HW172866  12.215  12.007   7.995  0.2985  1.0515 -1.0416
51752SOL    HW272867  12.108  11.947   7.906 -1.0877 -0.7286  1.6808
51753SOL     OW72868   1.341   8.372   9.163 -0.2651 -0.0545 -0.1722
51753SOL    HW172869   1.298   8.445   9.208  3.1740  0.6060  2.5138
51753SOL    HW272870   1.396   8.413   9.097  0.2835 -0.3444  0.0931
51754SOL     OW72871  13.609   3.137   5.699  0.2172 -0.4404 -0.3294
51754SOL    HW172872  13.546   3.177   5.759  1.9112  0.2034  1.1008
51754SOL    HW272873  13.560   3.068   5.655 -1.7258  0.6514  0.0262
51755SOL     OW72874   0.148   0.659   6.114 -0.1560 -0.2578  0.6762
51755SOL    HW172875   0.240   0.674   6.136  0.2021 -0.6782 -0.4937
51755SOL    HW272876   0.149   0.588   6.050 -1.0683  1.4154 -1.3201
51756SOL     OW72877  12.830   8.713   1.738 -0.5752 -0.2208  0.0180
51756SOL    HW172878  12.754   8.659   1.761 -0.2978 -0.1190  1.2654
51756SOL    HW272879  12.873   8.664   1.668 -0.4147 -1.5793  1.0089
51757SOL     OW72880   5.228  12.755   1.800 -0.2481 -0.3879 -0.2533
51757SOL    HW172881   5.290  12.691   1.764 -1.2781 -1.2984 -0.4382
51757SOL    HW272882   5.144  12.733   1.760 -0.8177  0.4592  0.4398
51758SOL     OW72883   6.134   0.434   5.372  0.8884 -0.3043  0.2862
51758SOL    HW172884   6.083   0.355   5.354  1.8768 -0.7520 -0.6709
51758SOL    HW272885   6.118   0.491   5.297  2.7604 -0.9763 -0.6791
51759SOL     OW72886   2.538   1.821  14.064  0.3611 -0.0738  0.1512
51759SOL    HW172887   2.605   1.763  14.029  0.3462  1.2878 -2.3547
51759SOL    HW272888   2.457   1.772  14.056  0.2967  0.3241 -2.2934
51760SOL     OW72889   1.022   6.181  11.952  0.5403  0.8523 -0.0465
51760SOL    HW172890   1.002   6.127  12.028 -0.3472 -0.5072 -1.2011
51760SOL    HW272891   0.994   6.269  11.977 -0.8352  0.2055  0.8023
51761SOL     OW72892  10.433   1.213   2.727 -0.3606 -0.3064  0.3868
51761SOL    HW172893  10.486   1.220   2.647  1.0539  1.5043  1.3915
51761SOL    HW272894  10.408   1.303   2.747 -1.5577 -0.8409  1.4486
51762SOL     OW72895   1.346   0.813   7.451  0.0468  0.1754  0.2407
51762SOL    HW172896   1.388   0.822   7.537 -0.9429 -3.2391  1.2215
51762SOL    HW272897   1.255   0.792   7.472 -1.6745  4.4347 -1.8017
51763SOL     OW72898   7.946   2.319   1.561 -0.1726 -0.6155 -0.3138
51763SOL    HW172899   7.971   2.317   1.469  1.0215 -1.9677 -0.0004
51763SOL    HW272900   7.875   2.255   1.569 -2.0869  1.3584 -0.7239
51764SOL     OW72901   2.121   2.379   7.904 -0.4911 -0.7587  0.2637
51764SOL    HW172902   2.096   2.377   7.997  1.6770 -1.0501  0.9040
51764SOL    HW272903   2.189   2.311   7.896  1.0644  0.8414 -0.9729
51765SOL     OW72904   0.902   1.254   1.561  0.2463 -0.0820 -0.6767
51765SOL    HW172905   0.860   1.189   1.617  0.8096 -0.6745 -0.9385
51765SOL    HW272906   0.830   1.313   1.537  0.0616  0.4026  0.9370
51766SOL     OW72907  11.714   0.062  10.649 -0.2650  0.3750 -0.7917
51766SOL    HW172908  11.690   0.074  10.556 -3.7363  1.3735  0.0608
51766SOL    HW272909  11.736   0.149  10.679  0.5748  0.0974 -0.5928
51767SOL     OW72910  13.963   9.167  10.153 -0.6075 -0.4401  0.2579
51767SOL    HW172911  14.055   9.151  10.175 -0.1342  0.2263 -1.1342
51767SOL    HW272912  13.946   9.255  10.187 -0.2706  0.0417 -0.7777
51768SOL     OW72913  10.021   3.392  12.586  0.4823  0.0664 -0.3839
51768SOL    HW172914   9.967   3.315  12.606  1.9917 -1.2564 -1.1897
51768SOL    HW272915  10.028   3.439  12.669  0.3608 -1.2128  0.3737
51769SOL     OW72916   3.821  11.326  13.196  0.1775 -0.2593 -0.3619
51769SOL    HW172917   3.788  11.341  13.107  0.1987 -1.0452 -0.5099
51769SOL    HW272918   3.829  11.231  13.202  2.1175 -0.1254 -0.2294
51770SOL     OW72919   5.473   6.119   0.866 -0.0208 -0.2116 -0.4157
51770SOL    HW172920   5.460   6.212   0.848 -1.3011 -0.2802  0.0655
51770SOL    HW272921   5.455   6.110   0.959 -1.3389 -1.1621 -0.7315
51771SOL     OW72922   3.050   2.702   9.495 -0.2222 -0.8991  0.3939
51771SOL    HW172923   3.018   2.614   9.473 -1.6251 -1.0432  2.6945
51771SOL    HW272924   3.071   2.697   9.588  0.2571  1.0633  0.4294
51772SOL     OW72925   5.598   4.215   6.140 -0.1188 -0.0662  0.3161
51772SOL    HW172926   5.507   4.188   6.154 -0.6420  1.6409  0.4631
51772SOL    HW272927   5.633   4.151   6.078 -0.7451 -2.0247  1.8820
51773SOL     OW72928   8.299  12.160  11.594  0.5200  0.4490 -0.0976
51773SOL    HW172929   8.380  12.122  11.629  0.5740  1.7480  1.3119
51773SOL    HW272930   8.230  12.129  11.654 -0.1932 -1.1720 -1.6483
51774SOL     OW72931   2.800  13.636   7.799 -0.6905 -0.1712 -0.0062
51774SOL    HW172932   2.776  13.544   7.811  3.1390 -1.4382 -0.7092
51774SOL    HW272933   2.834  13.640   7.710  0.8957  1.4504  0.6128
51775SOL     OW72934   4.709   4.186   0.261 -0.2786 -0.2661  0.3240
51775SOL    HW172935   4.782   4.131   0.288  0.5715  1.3318  1.4908
51775SOL    HW272936   4.727   4.209   0.170 -0.0781 -1.0223  0.1718
51776SOL     OW72937   1.366   9.925   5.036 -0.1513 -0.1353 -0.4715
51776SOL    HW172938   1.334   9.992   5.096  1.6498  2.0551 -1.7879
51776SOL    HW272939   1.456   9.908   5.065  0.2371 -0.1320 -1.6311
51777SOL     OW72940  12.857  10.925   6.326  0.1520  0.5804 -0.5002
51777SOL    HW172941  12.870  10.941   6.419  2.9892 -0.5553 -0.6006
51777SOL    HW272942  12.847  10.830   6.318 -0.0729  0.6607 -1.3541
51778SOL     OW72943   3.854   8.689   6.024 -0.0161 -0.3336  0.1702
51778SOL    HW172944   3.934   8.649   5.989  0.5965 -0.5218  1.7115
51778SOL    HW272945   3.783   8.643   5.980  0.7029 -0.1285 -1.2705
51779SOL     OW72946   6.940   8.596   5.858  0.0566  0.8490  0.0481
51779SOL    HW172947   6.977   8.509   5.855 -0.3333  0.6790  0.0503
51779SOL    HW272948   6.845   8.582   5.851 -0.2427  1.0827  2.6411
51780SOL     OW72949   2.303   5.929   6.919  0.4284  0.2802  0.4385
51780SOL    HW172950   2.395   5.910   6.901  0.0370 -1.6913  0.2793
51780SOL    HW272951   2.284   5.881   7.000 -0.9801 -1.1593 -0.6749
51781SOL     OW72952  13.548  10.778  12.227  0.4392  0.1033 -0.1243
51781SOL    HW172953  13.486  10.851  12.220  1.0956  1.0260  2.5374
51781SOL    HW272954  13.631  10.814  12.194 -0.2886 -1.2412 -4.0404
51782SOL     OW72955   6.202   3.452   5.140 -0.3388 -0.0248  0.3616
51782SOL    HW172956   6.111   3.456   5.168 -0.4674 -0.3220 -0.0166
51782SOL    HW272957   6.199   3.458   5.045 -0.1313 -2.2898  0.1524
51783SOL     OW72958   3.099   5.193   6.112  0.3246 -0.1072 -0.2174
51783SOL    HW172959   3.155   5.253   6.159 -2.7955  2.4146  0.6118
51783SOL    HW272960   3.091   5.117   6.170  2.7049 -0.5520 -0.3631
51784SOL     OW72961   1.012   4.279   3.046 -0.4037  0.0602  0.2506
51784SOL    HW172962   1.086   4.338   3.061  0.8870 -1.4984  0.1931
51784SOL    HW272963   0.942   4.315   3.100  0.5067  1.3456  0.6293
51785SOL     OW72964   0.212   4.326   8.846  0.4833  0.4513 -0.2318
51785SOL    HW172965   0.282   4.319   8.781  1.4788  1.6320  0.6781
51785SOL    HW272966   0.145   4.379   8.803  0.4296 -0.1149 -0.8616
51786SOL     OW72967   6.791   4.300  12.572 -0.0375  0.2909  0.1111
51786SOL    HW172968   6.771   4.360  12.501 -0.0729 -0.3889 -0.4590
51786SOL    HW272969   6.854   4.347  12.627 -1.1980  1.4354  0.4985
51787SOL     OW72970   2.425   9.886   4.610 -0.2155  0.2741  0.2698
51787SOL    HW172971   2.439   9.807   4.557  0.4948 -0.1029  1.0031
51787SOL    HW272972   2.336   9.876   4.643  0.4849 -1.1716  1.8695
51788SOL     OW72973   2.943   3.912   7.047 -0.9053 -0.5748  0.3458
51788SOL    HW172974   2.893   3.956   7.116 -0.4026  1.1547 -0.3410
51788SOL    HW272975   2.908   3.948   6.965  1.6976  1.0705 -0.1463
51789SOL     OW72976  10.749   0.209   1.114  0.3534 -0.1766  0.2123
51789SOL    HW172977  10.760   0.148   1.187  1.2350 -1.1395 -0.6848
51789SOL    HW272978  10.786   0.162   1.038  1.3055  1.5837 -0.4605
51790SOL     OW72979  13.386  13.829  10.618  0.3471 -0.0997 -0.0249
51790SOL    HW172980  13.401  13.735  10.626 -1.9001 -0.6313 -1.0795
51790SOL    HW272981  13.442  13.857  10.545  0.1630 -0.8888 -0.4766
51791SOL     OW72982   1.242   2.616   6.129 -0.5079 -0.3492 -0.4630
51791SOL    HW172983   1.321   2.616   6.182 -0.5257 -2.3300 -0.3668
51791SOL    HW272984   1.273   2.616   6.039 -0.4347  0.2728 -0.4415
51792SOL     OW72985   9.808   3.062   7.161 -0.5353 -0.1514 -0.1496
51792SOL    HW172986   9.802   3.020   7.076  1.5426 -1.7461  0.4103
51792SOL    HW272987   9.900   3.087   7.170 -1.0101  1.3703  1.0266
51793SOL     OW72988   2.551   5.533  12.729 -0.6348 -0.0425 -0.0277
51793SOL    HW172989   2.620   5.559  12.790  0.5596 -1.5200 -0.6744
51793SOL    HW272990   2.572   5.579  12.648 -0.9142  0.1592  0.0112
51794SOL     OW72991   0.333   3.144  12.444  0.0049 -0.6712 -0.2138
51794SOL    HW172992   0.247   3.185  12.439  0.9596  1.4567 -0.0620
51794SOL    HW272993   0.395   3.215  12.432  1.7764 -2.1678 -0.4440
51795SOL     OW72994   2.919  13.369   0.665 -0.5331  0.3662  0.4949
51795SOL    HW172995   3.009  13.385   0.693 -0.8704  0.8006  1.3599
51795SOL    HW272996   2.865  13.407   0.734 -1.4101 -3.2673  2.0677
51796SOL     OW72997   3.335   9.684   6.085 -0.5577  0.5224  0.0282
51796SOL    HW172998   3.241   9.679   6.101 -0.4052 -1.5375  0.5695
51796SOL    HW272999   3.352   9.612   6.023  0.7471  0.4482  0.4545
51797SOL     OW73000   0.187  11.720   0.056  0.0182 -0.4795 -0.3163
51797SOL    HW173001   0.204  11.760  -0.030  0.2059 -0.7521 -0.4084
51797SOL    HW273002   0.252  11.650   0.062 -0.4805 -0.9397 -0.2741
51798SOL     OW73003   3.079  12.710   3.710  0.0305 -0.1530  0.0800
51798SOL    HW173004   3.076  12.799   3.676  0.2983 -0.0929  0.2081
51798SOL    HW273005   3.013  12.709   3.780 -0.7860 -0.3874 -0.6781
51799SOL     OW73006   0.191  12.020   0.467  0.1590  0.6623  0.0414
51799SOL    HW173007   0.140  12.037   0.546 -1.5629 -0.1292 -0.8356
51799SOL    HW273008   0.276  11.989   0.499 -1.6147 -3.0730  1.7289
51800SOL     OW73009   9.636   9.273   1.586  0.9755  0.2672  0.5529
51800SOL    HW173010   9.552   9.265   1.540  0.3261  1.4220  1.4539
51800SOL    HW273011   9.664   9.183   1.602  0.1762 -0.1354 -0.2295
51801SOL     OW73012   1.919   3.984   1.717  0.5127  0.4818 -0.1093
51801SOL    HW173013   1.883   4.036   1.788  1.9792  1.5666 -0.1233
51801SOL    HW273014   1.902   3.893   1.743 -1.9286  0.9047 -0.0050
51802SOL     OW73015  11.168   7.303   9.521  0.0859  0.0375  0.2850
51802SOL    HW173016  11.140   7.380   9.471 -1.1103 -0.7240 -0.2643
51802SOL    HW273017  11.228   7.257   9.463  0.1889  0.1369  0.3104
51803SOL     OW73018  12.458  11.864   4.609  0.3042  0.3807 -0.3145
51803SOL    HW173019  12.490  11.775   4.622  1.8310  0.7087 -1.4950
51803SOL    HW273020  12.507  11.916   4.672 -2.1627  0.1659  1.9415
51804SOL     OW73021   9.227   2.775  12.828  0.4527  0.3616 -0.3698
51804SOL    HW173022   9.219   2.867  12.856  0.8171  0.9143 -1.9692
51804SOL    HW273023   9.308   2.744  12.868  1.0049  1.1471 -0.8557
51805SOL     OW73024   8.042   1.646   0.392  0.2289 -0.6783  0.4006
51805SOL    HW173025   8.026   1.691   0.474  2.3472 -0.8411  0.9436
51805SOL    HW273026   8.103   1.702   0.344 -0.1032 -1.1298 -0.5905
51806SOL     OW73027   2.322  12.241  12.826 -0.2931  0.3485 -0.0631
51806SOL    HW173028   2.343  12.318  12.773 -1.1159  0.0691 -0.7991
51806SOL    HW273029   2.244  12.203  12.786  0.3113 -1.0959  0.0565
51807SOL     OW73030   0.840  10.499   1.951 -0.2602  0.5467  0.1851
51807SOL    HW173031   0.806  10.558   1.885 -0.5680 -0.0376 -0.1823
51807SOL    HW273032   0.832  10.547   2.033  0.3071  1.3491 -0.2220
51808SOL     OW73033   7.200   8.368   0.884  0.0832  0.3802 -0.2326
51808SOL    HW173034   7.220   8.455   0.919 -0.0143  0.1587  0.3841
51808SOL    HW273035   7.111   8.375   0.850 -0.4870  0.1336  1.1479
51809SOL     OW73036  11.216   6.214   3.034  0.2898  0.4391  0.4502
51809SOL    HW173037  11.296   6.202   3.085 -0.2566 -0.2978  1.1607
51809SOL    HW273038  11.210   6.308   3.019  0.7838  0.5965  1.2259
51810SOL     OW73039   0.366   7.061   4.379 -0.7841 -0.3907  0.3515
51810SOL    HW173040   0.280   7.055   4.420  0.3562 -1.4695  2.7465
51810SOL    HW273041   0.415   7.121   4.435  0.1669 -0.1251 -0.7356
51811SOL     OW73042   1.516  11.081  13.025  0.0880 -0.4586 -0.4978
51811SOL    HW173043   1.568  11.084  12.945  2.3960 -0.6358  0.8909
51811SOL    HW273044   1.576  11.047  13.091 -2.1007 -1.5547  1.0652
51812SOL     OW73045  12.728  13.073   7.497  0.2821  0.3693  0.1304
51812SOL    HW173046  12.771  13.129   7.562  1.8557  1.0622 -1.4062
51812SOL    HW273047  12.683  13.135   7.439 -0.1998 -0.1617 -0.0736
51813SOL     OW73048  11.082  12.017  13.192 -0.3506  0.0362  0.5573
51813SOL    HW173049  10.990  11.995  13.174  0.1965 -0.3890 -2.1697
51813SOL    HW273050  11.101  12.091  13.133  2.1862 -2.7392 -2.5069
51814SOL     OW73051   0.080  13.931   6.643  0.0825 -0.1654 -0.1577
51814SOL    HW173052   0.162  13.903   6.684  0.4381  0.5334 -0.3752
51814SOL    HW273053   0.078  14.026   6.655  0.5335  0.1807 -2.2737
51815SOL     OW73054  12.329   7.854   2.717 -0.1819 -0.4661  0.0241
51815SOL    HW173055  12.354   7.882   2.629  0.5486 -1.8913 -0.2536
51815SOL    HW273056  12.357   7.925   2.774  0.4125 -0.0531 -0.7740
51816SOL     OW73057   1.291   8.516   9.515 -0.0949  0.1397  0.1119
51816SOL    HW173058   1.228   8.587   9.523 -0.9011 -0.5841  0.3958
51816SOL    HW273059   1.241   8.437   9.539  0.8272 -0.4908  0.0098
51817SOL     OW73060   2.966   3.325   2.771 -0.2085 -0.2311  0.6430
51817SOL    HW173061   2.945   3.239   2.734 -0.9772  0.0525  0.4084
51817SOL    HW273062   3.037   3.358   2.715  0.0454 -0.6731  0.6928
51818SOL     OW73063   9.299   0.049   8.378  0.0938 -0.1497 -0.3144
51818SOL    HW173064   9.244   0.004   8.314 -0.7594 -1.0664  1.0076
51818SOL    HW273065   9.380   0.068   8.331 -0.7865 -0.0769 -1.8884
51819SOL     OW73066  12.756   2.011  13.346  0.5007 -0.3803 -0.1812
51819SOL    HW173067  12.800   2.031  13.263 -1.5889  1.4255 -0.9572
51819SOL    HW273068  12.692   1.944  13.323  0.8926 -0.9235  0.3017
51820SOL     OW73069   5.616   7.395   9.838 -0.5129 -0.0549  0.1322
51820SOL    HW173070   5.589   7.481   9.868  0.4050 -0.7392  3.2585
51820SOL    HW273071   5.704   7.383   9.875 -0.3432 -2.0675 -0.7782
51821SOL     OW73072   9.812   4.222   8.032 -0.4786  0.3510 -0.1047
51821SOL    HW173073   9.777   4.299   8.077  0.0135  0.9525 -0.7209
51821SOL    HW273074   9.861   4.258   7.958 -0.3436 -0.5665 -0.4765
51822SOL     OW73075   5.269   2.825   5.598 -0.0073  0.1235  0.1187
51822SOL    HW173076   5.357   2.792   5.612  0.9744  2.4455 -0.0373
51822SOL    HW273077   5.220   2.752   5.561  2.7856 -0.3110 -3.1155
51823SOL     OW73078   1.731   1.537   9.383 -0.1865 -0.6215  0.5344
51823SOL    HW173079   1.740   1.442   9.375  1.9430 -0.3874 -0.3321
51823SOL    HW273080   1.821   1.570   9.386 -0.7791  1.5793 -2.1159
51824SOL     OW73081   6.814   0.300   9.302 -0.2381 -0.2676 -0.2686
51824SOL    HW173082   6.776   0.380   9.265 -0.0140 -0.2134 -0.3817
51824SOL    HW273083   6.896   0.289   9.255 -1.4129 -1.9390 -2.0635
51825SOL     OW73084   2.094   0.184   3.343  0.1199  0.0491  0.1869
51825SOL    HW173085   2.059   0.155   3.258 -1.0481  1.8844  0.0034
51825SOL    HW273086   2.039   0.140   3.408 -0.9827  0.9984 -0.0732
51826SOL     OW73087   2.630   6.717   8.287 -0.4948  0.0124  0.3640
51826SOL    HW173088   2.686   6.649   8.250 -0.1651  0.3977  0.1379
51826SOL    HW273089   2.541   6.684   8.277 -0.3436 -0.3332  0.1548
51827SOL     OW73090   6.252   4.284   0.803 -0.5668 -0.4292  0.3869
51827SOL    HW173091   6.214   4.222   0.865 -0.5067 -1.1428 -0.2776
51827SOL    HW273092   6.258   4.367   0.852  0.6757 -1.2837  1.7576
51828SOL     OW73093   8.519   3.128   4.301  0.1232 -0.6084  0.1221
51828SOL    HW173094   8.465   3.198   4.337 -1.2002 -0.3033 -2.2984
51828SOL    HW273095   8.609   3.152   4.324 -0.4135  1.1315  0.5041
51829SOL     OW73096  11.788  11.228   4.634  0.0701  0.5447 -0.4111
51829SOL    HW173097  11.881  11.238   4.654  0.7017 -2.0457 -1.5941
51829SOL    HW273098  11.768  11.299   4.573  1.1435  1.3637  0.1559
51830SOL     OW73099  10.695   9.509   3.365 -0.1227 -0.3583  0.8427
51830SOL    HW173100  10.699   9.604   3.365 -2.8343 -0.1632  0.9425
51830SOL    HW273101  10.690   9.485   3.458  3.3835 -0.8951  1.0257
51831SOL     OW73102   1.142  12.407   3.119  0.4552  0.0433 -0.4368
51831SOL    HW173103   1.184  12.465   3.182  0.4113  0.1419 -0.4987
51831SOL    HW273104   1.211  12.345   3.094  0.2043 -0.6193  0.4608
51832SOL     OW73105  11.832   9.074   0.339  0.1714  0.2476 -0.0737
51832SOL    HW173106  11.742   9.078   0.306 -0.8151 -0.7059  2.2445
51832SOL    HW273107  11.878   9.019   0.277 -1.6791 -1.8028  0.2227
51833SOL     OW73108   7.098  12.850  10.991  0.2620  0.1425 -0.5617
51833SOL    HW173109   7.021  12.893  11.029  0.8276  1.1832 -0.5399
51833SOL    HW273110   7.075  12.839  10.898 -0.0819  0.0357 -0.4676
51834SOL     OW73111   1.643   4.859  10.267 -0.4069 -0.0220  0.0587
51834SOL    HW173112   1.700   4.933  10.290 -0.1097 -0.4495  0.7307
51834SOL    HW273113   1.622   4.818  10.351 -1.9276  0.2760 -0.1435
51835SOL     OW73114   3.867   2.609   7.940  0.0254 -0.0653  0.5232
51835SOL    HW173115   3.953   2.573   7.962  0.6742  0.6078 -0.8033
51835SOL    HW273116   3.872   2.627   7.846 -0.4662  2.8444  0.9767
51836SOL     OW73117   0.476   9.310  10.643 -0.6342 -0.5016 -0.2837
51836SOL    HW173118   0.411   9.381  10.638 -0.2196 -0.2194 -2.5381
51836SOL    HW273119   0.491   9.284  10.552  1.5140 -1.3910  0.2628
51837SOL     OW73120   9.581   4.288   6.521  0.0120  0.4026 -0.2196
51837SOL    HW173121   9.507   4.236   6.490  0.0334  0.6026 -0.6146
51837SOL    HW273122   9.640   4.292   6.446  0.4273  0.2392  0.0970
51838SOL     OW73123  12.483   3.172  11.202 -0.0464  0.2270 -0.1925
51838SOL    HW173124  12.569   3.214  11.196 -1.0232  2.3378 -0.4228
51838SOL    HW273125  12.459   3.152  11.111 -0.7397  1.7612 -0.3763
51839SOL     OW73126   3.241   1.038   5.086  0.1719 -0.2062 -0.0150
51839SOL    HW173127   3.154   1.062   5.119  1.4090  2.8198  1.4096
51839SOL    HW273128   3.280   0.987   5.157  0.1963  0.0164  0.1344
51840SOL     OW73129   0.391   0.252  12.177  0.2347  0.3281  0.3314
51840SOL    HW173130   0.480   0.240  12.210  0.8065 -1.1265 -1.5605
51840SOL    HW273131   0.393   0.337  12.133 -0.5135  2.2466  3.6909
51841SOL     OW73132  12.930   7.752   3.770 -0.4492 -0.0975 -0.6387
51841SOL    HW173133  12.971   7.804   3.701  0.9115  1.6894  1.3836
51841SOL    HW273134  12.999   7.740   3.835 -2.3282  0.6132  1.6336
51842SOL     OW73135   5.702   1.465   8.380  0.1574 -0.1567  0.3709
51842SOL    HW173136   5.658   1.385   8.353  0.2813  0.0370 -0.4376
51842SOL    HW273137   5.631   1.523   8.410  0.1188 -0.7503  1.4828
51843SOL     OW73138   9.891   8.116   8.321  0.4578 -0.1579 -0.4978
51843SOL    HW173139   9.939   8.049   8.370 -0.0141 -0.9482 -1.0960
51843SOL    HW273140   9.944   8.131   8.243  0.6893  0.3616 -0.2474
51844SOL     OW73141   1.890   3.570   3.890 -0.0372  0.0099  0.2788
51844SOL    HW173142   1.822   3.633   3.915  1.1985  0.7420  1.9520
51844SOL    HW273143   1.948   3.620   3.831  0.1632  0.0047  0.4718
51845SOL     OW73144  13.676  10.547  11.303 -0.6585  0.1153 -0.1830
51845SOL    HW173145  13.598  10.600  11.314  1.0299  3.0829 -1.3306
51845SOL    HW273146  13.727  10.563  11.382 -0.8072 -1.1432  0.1891
51846SOL     OW73147   7.157   0.921   7.218 -0.0198  0.2739  0.2788
51846SOL    HW173148   7.132   0.889   7.131 -1.2134  1.2081  0.2581
51846SOL    HW273149   7.083   0.975   7.246 -0.3665 -1.2751  2.5723
51847SOL     OW73150   4.524  12.260  10.070 -0.5547 -0.3933  0.1915
51847SOL    HW173151   4.589  12.193  10.091 -0.7231 -0.2790  1.1227
51847SOL    HW273152   4.440  12.219  10.087 -0.6776 -0.1384  0.2160
51848SOL     OW73153  13.750  13.913   3.296  0.3280 -0.8480 -0.3066
51848SOL    HW173154  13.779  13.867   3.375  0.3482 -0.3043  0.0122
51848SOL    HW273155  13.789  14.000   3.304 -0.3921 -0.5014 -0.4775
51849SOL     OW73156   9.012   4.249   0.719 -0.1650 -0.2574 -0.1269
51849SOL    HW173157   9.069   4.174   0.701  3.2011  2.1797 -0.7848
51849SOL    HW273158   8.990   4.283   0.632 -0.4580  0.3207  0.1693
51850SOL     OW73159  11.292  12.064  13.514 -0.3895  0.3098  0.0667
51850SOL    HW173160  11.319  12.028  13.598 -0.8304  0.4088  0.2530
51850SOL    HW273161  11.242  11.994  13.473  1.2158 -0.3611 -0.8454
51851SOL     OW73162   0.723   4.589   5.956 -0.0164  0.4189  0.2918
51851SOL    HW173163   0.745   4.497   5.939 -1.3017 -0.3769  2.4940
51851SOL    HW273164   0.729   4.632   5.871  2.7479 -1.2114 -0.4553
51852SOL     OW73165   2.168   1.215   5.387 -0.0824 -0.3515 -0.4145
51852SOL    HW173166   2.126   1.137   5.422  1.8223 -1.4072 -0.3418
51852SOL    HW273167   2.184   1.194   5.295  0.1367  0.0835 -0.4792
51853SOL     OW73168  10.307  10.093   4.670  0.7137 -0.3486 -0.0312
51853SOL    HW173169  10.352  10.161   4.619 -0.6227 -1.1486 -2.4234
51853SOL    HW273170  10.219  10.090   4.632  0.0737 -1.9455  1.4822
51854SOL     OW73171   8.709  11.533   2.923  0.0843 -0.0660  0.2328
51854SOL    HW173172   8.619  11.503   2.935 -0.7893  1.6820 -1.3438
51854SOL    HW273173   8.755  11.458   2.886 -1.0295 -0.6048 -0.0996
51855SOL     OW73174  12.289   0.903   5.868 -0.0122  0.0302  0.2442
51855SOL    HW173175  12.227   0.970   5.896  0.0627 -0.6868  2.3230
51855SOL    HW273176  12.234   0.832   5.834 -0.1518  0.5325 -0.6219
51856SOL     OW73177   1.807  13.378   4.996  0.1586 -0.8295 -0.7040
51856SOL    HW173178   1.901  13.358   5.003  0.0641 -1.0062  0.2440
51856SOL    HW273179   1.801  13.471   5.019  0.0228 -1.0003 -0.0392
51857SOL     OW73180  11.654  12.437   1.617 -0.5113  0.2994  0.0534
51857SOL    HW173181  11.733  12.389   1.638  0.0140  0.9522 -0.3941
51857SOL    HW273182  11.608  12.382   1.554  0.6364  0.8526 -1.3241
51858SOL     OW73183   4.143   9.074  10.758 -0.3433  0.7958 -0.0717
51858SOL    HW173184   4.108   9.139  10.819  0.2358  0.3658  0.7589
51858SOL    HW273185   4.226   9.112  10.728 -0.4191  0.8152 -0.2594
51859SOL     OW73186  13.507  10.508   0.672 -0.3296 -0.0087 -0.1877
51859SOL    HW173187  13.445  10.485   0.603 -0.2749  0.6162 -0.4515
51859SOL    HW273188  13.497  10.603   0.683  0.3588  0.0513 -0.0176
51860SOL     OW73189  11.271   1.134  13.066 -0.1907 -0.4677  0.4771
51860SOL    HW173190  11.256   1.165  12.977  3.1941  2.0387  0.5753
51860SOL    HW273191  11.272   1.214  13.119 -0.2727 -1.7298  2.4916
51861SOL     OW73192  12.072  11.635  13.184  0.5772  0.3117  0.0112
51861SOL    HW173193  12.120  11.608  13.262  0.2650  0.3387  0.2153
51861SOL    HW273194  12.018  11.709  13.213  0.8419  0.6478 -0.3548
51862SOL     OW73195   0.383   8.038   6.157  0.1072 -0.3229  0.0966
51862SOL    HW173196   0.466   8.033   6.204  0.6882  0.4090 -0.8255
51862SOL    HW273197   0.376   7.955   6.110 -0.2499 -0.8599  1.0644
51863SOL     OW73198   6.069  11.377   1.621  0.6867 -0.4385 -0.4562
51863SOL    HW173199   6.084  11.447   1.558  1.7636 -0.6495 -0.4579
51863SOL    HW273200   6.154  11.365   1.664  0.5106 -1.6929 -0.4105
51864SOL     OW73201   2.527  13.171  13.973 -0.0100 -0.2444 -0.6412
51864SOL    HW173202   2.594  13.105  13.991  0.5572  0.8927  1.8695
51864SOL    HW273203   2.566  13.253  14.005 -2.2796  0.5860  0.1732
51865SOL     OW73204  12.458   8.120   1.177 -0.3209  0.1502 -0.1644
51865SOL    HW173205  12.409   8.196   1.146 -1.0081 -0.0983  0.2939
51865SOL    HW273206  12.442   8.118   1.272  1.3358  0.6040  0.1485
51866SOL     OW73207  11.230   5.818   4.037  0.0863 -0.1531  0.4024
51866SOL    HW173208  11.298   5.882   4.016  1.4704 -1.0621  1.8552
51866SOL    HW273209  11.212   5.832   4.130 -4.7032  2.7381 -0.6096
51867SOL     OW73210   0.541   6.478  12.695 -0.2692  0.0358  0.4310
51867SOL    HW173211   0.446   6.466  12.690 -0.2593 -0.6522  1.4573
51867SOL    HW273212   0.562   6.536  12.623 -1.3019 -0.8128 -0.5956
51868SOL     OW73213   8.977   6.755   2.215  0.1924 -0.1201 -0.2209
51868SOL    HW173214   9.061   6.800   2.203  0.7114 -0.5378  1.4960
51868SOL    HW273215   8.941   6.748   2.127  1.1785  1.5493 -0.8133
51869SOL     OW73216  11.076   2.209   3.697  0.0124  0.2572  0.2709
51869SOL    HW173217  11.087   2.259   3.616 -1.8922 -1.4014 -1.1231
51869SOL    HW273218  10.983   2.186   3.699  0.5416 -2.1558  1.4480
51870SOL     OW73219   9.909   3.817   2.671 -0.5758 -0.2457  0.0405
51870SOL    HW173220   9.859   3.735   2.666 -0.7322 -0.1110 -0.7683
51870SOL    HW273221   9.844   3.883   2.693 -0.6833 -0.1494 -0.5329
51871SOL     OW73222  13.613   4.094   1.873  0.3408  0.2795  0.9818
51871SOL    HW173223  13.687   4.047   1.836  0.8557 -1.0166  3.4603
51871SOL    HW273224  13.653   4.165   1.924 -0.2458  0.9805  0.4766
51872SOL     OW73225   2.114   0.344   9.358  0.5830  0.0877 -0.8153
51872SOL    HW173226   2.020   0.363   9.348 -0.0296  0.1912  3.5426
51872SOL    HW273227   2.121   0.251   9.337 -0.0483  0.4711 -3.0234
51873SOL     OW73228   5.550   2.420  11.560 -0.2458 -0.3538 -0.1382
51873SOL    HW173229   5.462   2.395  11.586  0.0922 -1.3709  0.0948
51873SOL    HW273230   5.539   2.498  11.506 -1.2291 -0.1188  0.3913
51874SOL     OW73231   0.765   9.170   8.747  0.2055 -0.7007 -0.3082
51874SOL    HW173232   0.686   9.177   8.800 -0.8080 -0.1506 -1.8225
51874SOL    HW273233   0.828   9.229   8.789 -0.1081 -1.2842  1.0196
51875SOL     OW73234   6.915   3.310   9.069 -0.4307 -0.1311 -0.7774
51875SOL    HW173235   7.001   3.284   9.101 -0.2160  0.5250 -0.8142
51875SOL    HW273236   6.858   3.308   9.146 -0.5901 -1.3924 -0.9046
51876SOL     OW73237   7.891   0.081   5.187 -0.0180 -0.0165 -0.1395
51876SOL    HW173238   7.919   0.029   5.263  1.5678  0.9223 -0.0509
51876SOL    HW273239   7.949   0.157   5.187 -1.3486  1.0433 -1.1144
51877SOL     OW73240   3.662   8.168   2.108 -0.0711 -0.3597 -0.5454
51877SOL    HW173241   3.664   8.204   2.197 -2.2957  0.7908 -0.8732
51877SOL    HW273242   3.570   8.178   2.081  0.6437 -0.2367 -3.1599
51878SOL     OW73243   8.929  10.800   3.811  0.2665  0.0212  0.2807
51878SOL    HW173244   8.877  10.786   3.890  0.4958  0.5126  0.5288
51878SOL    HW273245   9.000  10.858   3.840  0.7694 -0.3831 -0.1210
51879SOL     OW73246  10.187   2.065  11.715  0.1741  0.4429  0.3248
51879SOL    HW173247  10.156   2.064  11.806 -0.4134 -0.5294  0.1183
51879SOL    HW273248  10.156   2.148  11.680 -0.9457  0.1337  0.5565
51880SOL     OW73249   9.439   9.199   6.741 -0.6164 -0.0494  0.6978
51880SOL    HW173250   9.534   9.184   6.734 -0.7201 -0.8550  1.0449
51880SOL    HW273251   9.407   9.185   6.652 -0.2654  1.3539  0.3196
51881SOL     OW73252  11.588  12.785   5.798 -0.0064 -0.0761 -0.1714
51881SOL    HW173253  11.567  12.695   5.823 -1.2303  0.3980  0.6319
51881SOL    HW273254  11.609  12.780   5.705  0.4338 -1.2567 -0.0331
51882SOL     OW73255   4.274   9.901   7.097  0.1526 -0.4176  0.2478
51882SOL    HW173256   4.228   9.983   7.080 -0.8962 -0.9258  0.5501
51882SOL    HW273257   4.257   9.847   7.020 -0.6092 -0.9678  0.7794
51883SOL     OW73258  10.795   6.789   1.466  0.2683  0.3086  0.0496
51883SOL    HW173259  10.870   6.834   1.504  0.9756  1.2921 -2.3115
51883SOL    HW273260  10.760   6.851   1.402 -1.1427 -1.0405 -0.5500
51884SOL     OW73261   8.613   3.147   6.559 -0.0682 -0.5451 -0.3625
51884SOL    HW173262   8.545   3.138   6.626  1.5602 -0.1034  1.4270
51884SOL    HW273263   8.629   3.241   6.552  1.9230 -0.7138  0.9758
51885SOL     OW73264   5.108   2.254  11.841 -0.5045  0.3851  0.1407
51885SOL    HW173265   5.134   2.272  11.931  0.4960 -1.7729  0.3470
51885SOL    HW273266   5.037   2.190  11.849 -0.7335  0.5354 -0.6031
51886SOL     OW73267   9.790  12.323   9.068  0.3132 -0.4130 -0.3542
51886SOL    HW173268   9.769  12.230   9.057  3.2401 -1.0954 -1.1045
51886SOL    HW273269   9.845  12.345   8.993  0.3150  1.7381  0.2034
51887SOL     OW73270  11.475  13.926   7.734  0.1657 -0.0412  0.0894
51887SOL    HW173271  11.436  13.869   7.668  3.4572 -0.2277 -1.8883
51887SOL    HW273272  11.543  13.873   7.775  0.9455  1.3493  0.6639
51888SOL     OW73273   3.229   6.007   6.887 -0.0064  0.2079  0.7659
51888SOL    HW173274   3.265   6.075   6.945 -1.1516  1.4301  0.1094
51888SOL    HW273275   3.252   6.037   6.799 -2.8331  1.2543  0.2813
51889SOL     OW73276   7.878  11.627   7.894 -0.3427 -0.0240  0.1782
51889SOL    HW173277   7.912  11.707   7.933  0.3004 -0.3362  0.2588
51889SOL    HW273278   7.832  11.583   7.966 -0.0788 -0.0755  0.3159
51890SOL     OW73279  12.335   9.202  10.732 -0.3684 -0.3582  0.0151
51890SOL    HW173280  12.299   9.182  10.818  0.6337 -0.4195  0.4247
51890SOL    HW273281  12.331   9.298  10.725  0.2970 -0.2947  0.4632
51891SOL     OW73282   2.441   0.380   6.813 -0.2268 -0.0999  0.5433
51891SOL    HW173283   2.535   0.371   6.825 -0.0323  0.4510 -0.4460
51891SOL    HW273284   2.432   0.427   6.730 -1.3830 -2.4879 -0.8180
51892SOL     OW73285  11.797   5.526  10.776 -0.1799 -0.5327 -0.2944
51892SOL    HW173286  11.768   5.510  10.686 -0.1411 -1.2893 -0.1803
51892SOL    HW273287  11.887   5.493  10.779 -1.0159 -2.9461  0.6756
51893SOL     OW73288   7.537   2.914   0.078 -0.5257 -0.1809  0.2839
51893SOL    HW173289   7.609   2.945   0.133 -1.2098  0.3217  0.9008
51893SOL    HW273290   7.533   2.977   0.006  0.2126 -0.7049 -0.2381
51894SOL     OW73291   4.975   3.686  10.771  0.0171  0.4783  0.0859
51894SOL    HW173292   4.996   3.779  10.770 -0.3170  0.6033  1.6612
51894SOL    HW273293   4.902   3.677  10.711  0.4916  1.1044 -0.6032
51895SOL     OW73294  10.871  13.518  12.782 -0.5647 -0.2260 -0.3923
51895SOL    HW173295  10.815  13.586  12.744 -0.5102  0.1377  0.1694
51895SOL    HW273296  10.937  13.501  12.714  0.3458  1.3969  0.0316
51896SOL     OW73297   4.460   5.242  11.263  0.1244 -0.1964 -0.0730
51896SOL    HW173298   4.411   5.223  11.183 -1.0481  0.5517  0.4495
51896SOL    HW273299   4.413   5.315  11.304  2.1340  1.1455  0.0301
51897SOL     OW73300  12.533  14.050  12.328  0.0364  0.4323 -0.5191
51897SOL    HW173301  12.474  14.000  12.273 -0.7072  3.0483 -2.2840
51897SOL    HW273302  12.619  14.041  12.286  0.0890 -0.0751 -0.3055
51898SOL     OW73303  13.683  10.598   0.240 -0.1191 -0.5067 -0.3826
51898SOL    HW173304  13.679  10.629   0.331  1.2122 -1.4031  0.0124
51898SOL    HW273305  13.663  10.675   0.187 -0.2695  0.1807  0.6487
51899SOL     OW73306   8.530   3.309  14.003 -0.1600 -0.2923 -0.4233
51899SOL    HW173307   8.445   3.282  13.968 -0.0679 -0.4049 -0.5613
51899SOL    HW273308   8.570   3.227  14.033 -0.9271 -0.0339  1.4956
51900SOL     OW73309  10.520   1.332   9.577  0.2532  0.1582 -0.1374
51900SOL    HW173310  10.553   1.316   9.665  0.5831  1.9325  0.0899
51900SOL    HW273311  10.573   1.405   9.544 -0.9682  0.6126 -1.1667
51901SOL     OW73312   1.921   8.548   6.407  0.1895  0.0989 -0.1901
51901SOL    HW173313   1.937   8.484   6.477  0.2072  1.2018  0.8481
51901SOL    HW273314   1.943   8.633   6.447  0.9826  0.6820 -1.8015
51902SOL     OW73315   9.063   2.633   0.894 -0.0324 -0.0169  0.1524
51902SOL    HW173316   9.068   2.677   0.978 -4.1252  1.3234 -0.0903
51902SOL    HW273317   9.081   2.701   0.829 -2.1365  0.3755 -0.0971
51903SOL     OW73318   6.246   3.002   5.568  0.3232  0.2258  0.6537
51903SOL    HW173319   6.314   3.012   5.635  0.0728  0.5251  0.8633
51903SOL    HW273320   6.295   2.991   5.487  0.6560  2.5572  0.4823
51904SOL     OW73321   5.029   8.698   0.481 -0.3563 -0.0101 -0.3723
51904SOL    HW173322   4.982   8.680   0.399  1.0571  0.9858 -1.4586
51904SOL    HW273323   5.077   8.779   0.463  0.5865 -0.1977  1.1893
51905SOL     OW73324   4.547   6.155   5.547 -0.0443  0.3698  0.4099
51905SOL    HW173325   4.601   6.214   5.495  0.0737 -0.4488 -0.4225
51905SOL    HW273326   4.580   6.165   5.637  1.2554  0.1646 -0.0240
51906SOL     OW73327   0.115  11.857   5.446 -0.1578  0.5634  0.2624
51906SOL    HW173328   0.189  11.908   5.479  1.2298 -1.9249  1.2728
51906SOL    HW273329   0.146  11.821   5.362 -0.0539 -0.6948  0.8113
51907SOL     OW73330   2.081   4.788   3.896 -0.2267 -0.2102  0.3730
51907SOL    HW173331   2.052   4.730   3.967 -1.6484 -1.7569 -1.3497
51907SOL    HW273332   2.001   4.807   3.847  0.5495  1.6418 -0.2467
51908SOL     OW73333   9.533   8.304   1.472 -0.0613 -0.0290  0.2071
51908SOL    HW173334   9.501   8.388   1.439  1.2515 -0.0724 -1.2928
51908SOL    HW273335   9.617   8.325   1.514 -0.9933 -0.2155  2.2755
51909SOL     OW73336   9.055  11.699   6.069 -0.7706  0.0407  0.2482
51909SOL    HW173337   9.126  11.757   6.042  0.3383 -1.3345  0.0568
51909SOL    HW273338   8.977  11.736   6.028  0.1358  0.5974 -1.0433
51910SOL     OW73339   3.685  11.481   4.065  0.3596 -0.2704  0.2816
51910SOL    HW173340   3.676  11.394   4.104 -0.9915 -0.4752 -0.4469
51910SOL    HW273341   3.777  11.486   4.040  0.3524 -1.7038 -0.1413
51911SOL     OW73342  12.451  12.535  10.414  0.2912  0.2195 -0.0885
51911SOL    HW173343  12.484  12.446  10.406 -0.3409 -0.1945  1.4586
51911SOL    HW273344  12.408  12.536  10.500  0.4238  2.0570 -0.0167
51912SOL     OW73345   1.680   8.374   1.507  0.1404 -0.5531  0.3161
51912SOL    HW173346   1.709   8.318   1.579 -1.0888  0.9597  2.0756
51912SOL    HW273347   1.744   8.358   1.438  1.6257 -1.7660  1.8663
51913SOL     OW73348  10.413   1.737   5.732 -0.2402  0.5807 -0.0149
51913SOL    HW173349  10.435   1.830   5.725 -1.2433  0.9039  0.8141
51913SOL    HW273350  10.347   1.734   5.801 -1.8257 -0.4582 -1.4916
51914SOL     OW73351  10.443   1.593  13.267  0.5757 -0.2373  0.2600
51914SOL    HW173352  10.511   1.596  13.335 -0.1905 -1.4028  1.1070
51914SOL    HW273353  10.406   1.505  13.273 -0.8271  0.2777 -0.3737
51915SOL     OW73354  13.720  14.036   2.024  0.8978 -0.5348  0.3984
51915SOL    HW173355  13.759  14.113   1.981  2.1392 -1.9638 -1.1865
51915SOL    HW273356  13.742  13.963   1.966 -1.1536 -1.9587  1.3044
51916SOL     OW73357  11.336  10.582   4.631 -0.4016  0.2591 -0.3448
51916SOL    HW173358  11.426  10.571   4.598 -0.8336 -0.5341 -1.3335
51916SOL    HW273359  11.311  10.495   4.662 -0.0016  0.9937  2.2431
51917SOL     OW73360   4.496  13.044  10.979  0.2174  0.1892 -0.4648
51917SOL    HW173361   4.582  13.084  10.969  0.6872  0.2087  2.5764
51917SOL    HW273362   4.457  13.048  10.892  3.5663 -0.5664 -2.1921
51918SOL     OW73363   1.740   7.945   9.377  0.1947  0.8476  0.4133
51918SOL    HW173364   1.666   7.888   9.399  0.7570 -0.5294 -1.0780
51918SOL    HW273365   1.734   7.957   9.282  2.1881  0.2552  0.1800
51919SOL     OW73366   7.038   2.849   2.671 -0.2829  0.1898  0.4739
51919SOL    HW173367   6.944   2.854   2.650 -0.2975 -2.3135 -0.3198
51919SOL    HW273368   7.041   2.805   2.757  0.1742 -1.1081 -0.1852
51920SOL     OW73369   4.243   6.974   0.434 -0.4543 -0.1478 -0.2026
51920SOL    HW173370   4.215   7.006   0.520  0.0855 -1.5185  0.5143
51920SOL    HW273371   4.295   7.046   0.398  2.8330 -0.9626  2.4150
51921SOL     OW73372   1.875  10.884   6.601 -0.3230  0.2126 -0.4000
51921SOL    HW173373   1.894  10.919   6.688  2.0877 -0.8853 -0.3970
51921SOL    HW273374   1.889  10.789   6.611 -2.3772 -0.2682 -1.4471
51922SOL     OW73375   8.882  10.044  12.875  0.0074 -0.4830  0.5298
51922SOL    HW173376   8.906  10.110  12.939  1.8566 -0.0801 -0.5293
51922SOL    HW273377   8.927   9.965  12.903  0.0855 -0.5469  0.2325
51923SOL     OW73378   1.123  11.723  10.531  0.1894 -0.3306  0.1491
51923SOL    HW173379   1.209  11.682  10.521  0.4945  0.6683 -1.8680
51923SOL    HW273380   1.068  11.682  10.464 -0.7964 -0.5903  1.0737
51924SOL     OW73381   7.337   8.282   8.322 -0.0420  0.6553  0.0170
51924SOL    HW173382   7.263   8.255   8.377 -0.5053 -1.0453 -1.3601
51924SOL    HW273383   7.381   8.199   8.300 -0.6686  1.1017 -3.2652
51925SOL     OW73384  13.183   7.067   4.284 -0.3045 -0.3678 -0.2685
51925SOL    HW173385  13.144   7.132   4.225 -0.1008 -0.0276 -0.0325
51925SOL    HW273386  13.227   7.005   4.225  0.6548  0.4607 -0.4448
51926SOL     OW73387   4.567   1.238  12.738 -0.5670  0.5036 -0.1769
51926SOL    HW173388   4.529   1.233  12.825 -0.6202  1.1881 -0.1497
51926SOL    HW273389   4.515   1.178  12.685 -1.9325  1.6485 -0.2189
51927SOL     OW73390  12.173   2.183   9.883 -0.2664 -0.3413 -0.0332
51927SOL    HW173391  12.237   2.114   9.901  0.4482  0.4761  0.6179
51927SOL    HW273392  12.182   2.200   9.789 -0.6493 -1.3040 -0.2656
51928SOL     OW73393   9.626   0.283  13.908  0.5010 -0.2838 -0.5108
51928SOL    HW173394   9.638   0.371  13.872 -1.6700 -0.0324 -0.7485
51928SOL    HW273395   9.617   0.296  14.003 -1.8542  0.0515 -0.7300
51929SOL     OW73396   4.432   4.753   1.845  0.7110 -0.4764  0.2844
51929SOL    HW173397   4.419   4.848   1.837  1.5679 -0.4828 -2.2356
51929SOL    HW273398   4.506   4.744   1.905  1.3669  0.5421 -0.3400
51930SOL     OW73399   0.696   2.066   3.838 -0.2146 -0.1767 -0.1414
51930SOL    HW173400   0.641   2.134   3.875  1.6932  1.1196  0.4898
51930SOL    HW273401   0.673   1.987   3.888  0.1641  0.8635  1.8083
51931SOL     OW73402  12.395  12.595   8.511  0.3195 -0.4921  0.2869
51931SOL    HW173403  12.301  12.591   8.529  0.2300 -1.1516 -0.3024
51931SOL    HW273404  12.412  12.688   8.493 -0.7053 -0.6917 -2.0509
51932SOL     OW73405   7.808   6.577  13.637  0.5545 -0.3431 -0.4080
51932SOL    HW173406   7.880   6.529  13.598 -1.6970 -2.2360 -2.6184
51932SOL    HW273407   7.763   6.514  13.692 -0.0131  0.4923  0.1166
51933SOL     OW73408  12.690   8.846   6.346  0.0810 -0.3084 -0.5768
51933SOL    HW173409  12.779   8.847   6.384 -0.6686  0.7482  1.3102
51933SOL    HW273410  12.635   8.814   6.417 -1.0755 -0.9233 -1.7239
51934SOL     OW73411   3.863   7.747   7.812  0.0719 -0.1816 -0.5455
51934SOL    HW173412   3.785   7.741   7.756 -0.6854 -0.2958  0.4925
51934SOL    HW273413   3.907   7.663   7.801 -1.2944 -1.1239  0.7381
51935SOL     OW73414   9.667  10.638   7.356  0.1053 -0.5534  0.0986
51935SOL    HW173415   9.595  10.617   7.415  0.3195  0.0294  0.5843
51935SOL    HW273416   9.699  10.553   7.325  0.8725 -0.9798  1.9030
51936SOL     OW73417  11.974   9.374   9.815  0.6016  0.2486 -0.7994
51936SOL    HW173418  12.030   9.301   9.841 -1.4912 -2.1429 -2.3882
51936SOL    HW273419  11.991   9.386   9.721 -1.1146 -0.2470 -1.2184
51937SOL     OW73420   0.963  11.279  12.694 -0.0380  0.0656  0.3201
51937SOL    HW173421   1.045  11.314  12.727  0.2523 -0.4093  0.1148
51937SOL    HW273422   0.960  11.305  12.602 -0.9825  1.6335  0.7683
51938SOL     OW73423  11.797  11.457   9.667 -0.1330  0.7224 -0.2738
51938SOL    HW173424  11.872  11.448   9.608  0.1691  1.6356 -0.0403
51938SOL    HW273425  11.774  11.550   9.663  0.9756  1.1865  2.3512
51939SOL     OW73426   5.901   3.520  13.159  0.3104 -0.4751  0.0037
51939SOL    HW173427   5.874   3.436  13.195  0.4701  0.0062  1.2924
51939SOL    HW273428   5.840   3.535  13.087  1.6486 -2.7035 -1.7134
51940SOL     OW73429   9.497   7.140  12.684  0.0366 -0.0847 -0.3262
51940SOL    HW173430   9.487   7.216  12.626  1.7161 -0.2404 -0.8794
51940SOL    HW273431   9.441   7.159  12.759  0.4837  1.7409 -0.4156
51941SOL     OW73432   1.394   8.031   3.971  0.2413 -0.4351 -0.0892
51941SOL    HW173433   1.447   8.090   3.918 -0.3821 -1.0206 -1.4075
51941SOL    HW273434   1.365   7.963   3.910 -0.9452 -0.8367  0.8784
51942SOL     OW73435   1.470  13.425   0.423 -0.3702 -0.3186 -0.2648
51942SOL    HW173436   1.435  13.503   0.465  0.4671  0.2367 -0.5815
51942SOL    HW273437   1.482  13.363   0.495  0.5523  0.4337  0.2544
51943SOL     OW73438  13.162   3.510  11.885  0.1844  0.3302  0.0052
51943SOL    HW173439  13.205   3.573  11.827  0.3337  0.5525  0.3558
51943SOL    HW273440  13.219   3.433  11.883 -0.1921  0.0646 -0.7180
51944SOL     OW73441   9.786   8.408   1.532 -0.2030  0.3166 -0.1341
51944SOL    HW173442   9.871   8.372   1.510 -0.0096 -0.7828  2.1508
51944SOL    HW273443   9.789   8.499   1.501  2.8878  1.1952  2.3459
51945SOL     OW73444   8.542  12.504   8.537  0.0561  0.2581 -0.3434
51945SOL    HW173445   8.575  12.448   8.467  2.3949  0.0630  0.8240
51945SOL    HW273446   8.531  12.446   8.612  1.7973  1.1558  0.6683
51946SOL     OW73447  11.820   0.311  10.740 -0.2515 -0.2720 -0.8940
51946SOL    HW173448  11.748   0.374  10.740  2.3664  3.0303  0.6308
51946SOL    HW273449  11.830   0.287  10.832  1.7071  0.8178 -0.7799
51947SOL     OW73450  11.702  10.874   5.798  0.0446 -0.1303  0.2102
51947SOL    HW173451  11.707  10.821   5.718  1.3009  0.1831  0.0535
51947SOL    HW273452  11.733  10.816   5.867 -1.0180 -0.3917  0.4849
51948SOL     OW73453   2.859   6.084  13.817  0.3416 -0.3250  0.2541
51948SOL    HW173454   2.929   6.019  13.809 -0.1914 -0.8671 -0.0597
51948SOL    HW273455   2.778   6.034  13.809 -0.0778  0.4659 -0.6231
51949SOL     OW73456  12.671   7.443   8.050 -0.1424  0.4280 -0.0136
51949SOL    HW173457  12.663   7.381   8.123  0.1672  1.5548  0.9940
51949SOL    HW273458  12.747   7.496   8.072 -1.5542  2.4776  0.1542
51950SOL     OW73459  13.870   2.783   5.980 -0.2618 -0.2440  0.0147
51950SOL    HW173460  13.786   2.756   5.943 -0.5807 -0.5600  0.9358
51950SOL    HW273461  13.846   2.830   6.060  0.3936  0.6615 -0.3081
51951SOL     OW73462  11.434  11.498   3.636  0.4631 -0.1276 -0.3360
51951SOL    HW173463  11.372  11.481   3.565 -0.7962  1.5220  0.3174
51951SOL    HW273464  11.400  11.447   3.710  0.2216  0.2922 -0.1538
51952SOL     OW73465   6.789  10.578   6.047  0.0452 -0.2050  0.6468
51952SOL    HW173466   6.701  10.606   6.073 -0.2146 -0.5508  0.1574
51952SOL    HW273467   6.822  10.651   5.993 -0.9826 -1.1632 -1.3850
51953SOL     OW73468   3.045   1.634  10.696  0.5774  0.3650  0.0553
51953SOL    HW173469   3.012   1.563  10.642  0.5156 -0.2483  0.8749
51953SOL    HW273470   2.968   1.669  10.741  0.8391 -0.2648  1.0377
51954SOL     OW73471   8.150   6.667   7.659  0.2948  0.1555  0.0751
51954SOL    HW173472   8.243   6.646   7.650  0.6497  0.7516  1.8628
51954SOL    HW273473   8.140   6.752   7.617  0.8707  0.7271  1.0595
51955SOL     OW73474  11.720   5.175   9.548 -0.0591 -0.6370  0.0841
51955SOL    HW173475  11.660   5.185   9.474  0.9644  0.0582 -0.6722
51955SOL    HW273476  11.662   5.163   9.624 -1.1304 -1.5528 -0.8264
51956SOL     OW73477   3.630   2.642   9.978 -0.0593 -0.2046  0.3439
51956SOL    HW173478   3.627   2.609   9.888 -1.1930  0.1107  0.2530
51956SOL    HW273479   3.688   2.718   9.973  1.5218 -1.3645  0.3026
51957SOL     OW73480   1.471  10.107  13.436 -0.2498  0.1533 -0.5795
51957SOL    HW173481   1.395  10.153  13.401 -2.0762  0.0219  2.8243
51957SOL    HW273482   1.528  10.176  13.470  0.2593  0.1457 -1.3794
51958SOL     OW73483  11.965   0.595   8.339  0.1233  0.1898 -0.0077
51958SOL    HW173484  12.039   0.542   8.308 -0.0097 -0.3122  0.5194
51958SOL    HW273485  11.972   0.677   8.290  2.6594  1.2868  1.9781
51959SOL     OW73486  10.493   5.016   6.878 -0.1734  0.3831 -0.2863
51959SOL    HW173487  10.583   5.012   6.910 -0.6859  1.3889  1.4121
51959SOL    HW273488  10.463   4.926   6.880  0.6239  0.1047 -0.3848
51960SOL     OW73489   2.119  12.335   1.666  0.2564  0.1036  0.0507
51960SOL    HW173490   2.032  12.343   1.628  0.6767  0.4136 -0.8908
51960SOL    HW273491   2.155  12.255   1.627  1.3774  1.3721 -1.7097
51961SOL     OW73492   9.270   6.247   2.328  0.2542  1.0099  0.4361
51961SOL    HW173493   9.218   6.169   2.309  1.0184  0.5495  0.1878
51961SOL    HW273494   9.247   6.269   2.418 -1.2249  1.5048 -0.0219
51962SOL     OW73495   0.681  12.795   4.852 -0.2200 -0.2018 -0.1069
51962SOL    HW173496   0.629  12.715   4.840  1.7463 -1.5543  0.0952
51962SOL    HW273497   0.717  12.788   4.940  0.5837  0.5486 -0.3677
51963SOL     OW73498   6.787  12.172   8.989  0.6061 -0.4574  0.7702
51963SOL    HW173499   6.879  12.150   9.003  0.5987  0.3296  2.2176
51963SOL    HW273500   6.752  12.185   9.077 -0.4780  0.9007  0.1658
51964SOL     OW73501   5.284  13.741  10.936  0.0570  0.1902  0.3000
51964SOL    HW173502   5.248  13.664  10.979  0.3641 -0.4930 -0.6453
51964SOL    HW273503   5.208  13.787  10.902 -0.1606  0.5451  1.2368
51965SOL     OW73504   9.952  11.322   0.194  0.4492 -0.0530  0.0188
51965SOL    HW173505   9.943  11.231   0.166 -2.0267  0.2168 -0.2625
51965SOL    HW273506   9.869  11.363   0.171  1.1045  2.0383  1.0917
51966SOL     OW73507   9.850   2.826   4.510 -0.3905  0.3599  0.9137
51966SOL    HW173508   9.824   2.908   4.554  0.4286  1.3840 -0.4256
51966SOL    HW273509   9.944   2.820   4.524  0.0230  1.0565 -1.1207
51967SOL     OW73510  12.737   2.377   3.863  0.8197  0.4053  0.0134
51967SOL    HW173511  12.700   2.411   3.945  0.8568  1.9535 -0.5871
51967SOL    HW273512  12.773   2.454   3.819 -1.7122  0.1737 -2.7721
51968SOL     OW73513   4.853   3.424   7.735 -0.1196 -0.1768 -0.1538
51968SOL    HW173514   4.848   3.507   7.688  0.3674 -0.1269 -0.1178
51968SOL    HW273515   4.803   3.439   7.815  0.7889  0.3988  0.3206
51969SOL     OW73516   4.559  10.527   0.782  0.5005 -0.0733 -0.3372
51969SOL    HW173517   4.629  10.583   0.815  0.4681 -0.0696 -0.2742
51969SOL    HW273518   4.602  10.443   0.764  0.7179  0.2211 -1.2282
51970SOL     OW73519   8.553  11.460  11.541  0.4788  0.5450  0.2517
51970SOL    HW173520   8.504  11.391  11.496  1.6886 -1.7074  2.1800
51970SOL    HW273521   8.486  11.510  11.587 -0.2378 -1.4403  1.5026
51971SOL     OW73522   7.717   0.615   6.028  0.0310 -0.1815  0.3231
51971SOL    HW173523   7.737   0.557   5.954  3.6667  1.9836 -0.6532
51971SOL    HW273524   7.730   0.560   6.106  0.0780 -1.5250 -0.5962
51972SOL     OW73525  11.265   3.614   7.797 -0.2817  0.0924  0.1949
51972SOL    HW173526  11.340   3.566   7.832  1.0610  1.0970 -1.1824
51972SOL    HW273527  11.260   3.693   7.852  0.1711  0.3994 -0.1988
51973SOL     OW73528   1.380   4.509   2.127 -0.1048 -0.4895  0.1380
51973SOL    HW173529   1.451   4.507   2.191  0.8566  0.8911 -0.8312
51973SOL    HW273530   1.406   4.576   2.064 -0.4111 -2.6066 -2.4180
51974SOL     OW73531   5.130   1.132   9.835  1.0127  0.5496  0.4121
51974SOL    HW173532   5.050   1.146   9.784  1.3388 -0.1433 -0.3076
51974SOL    HW273533   5.148   1.217   9.875  0.4941  0.9905 -0.2709
51975SOL     OW73534   0.127  11.790   1.351 -0.1440 -0.1346  0.3251
51975SOL    HW173535   0.034  11.768   1.358 -0.6076  0.9571 -1.7606
51975SOL    HW273536   0.146  11.836   1.433 -1.6783  0.3885  0.4276
51976SOL     OW73537   1.759   9.072  12.896  0.5071  0.3784  0.1150
51976SOL    HW173538   1.794   9.160  12.906  0.6217  0.5354 -1.4474
51976SOL    HW273539   1.664   9.083  12.893  0.5063  0.4095  0.2613
51977SOL     OW73540  10.492   8.558   3.313 -0.5920 -0.5759  0.0534
51977SOL    HW173541  10.553   8.632   3.306  0.2952 -1.4139 -1.7079
51977SOL    HW273542  10.430   8.585   3.381  1.0056  0.8407  1.0416
51978SOL     OW73543   4.509   1.522  10.302 -0.0319 -0.2595 -0.2116
51978SOL    HW173544   4.419   1.489  10.313 -0.3058  0.6893  0.6093
51978SOL    HW273545   4.498   1.616  10.289  0.8810 -0.0438  0.5034
51979SOL     OW73546   5.551  10.428   7.586 -0.0862  0.4344  0.3310
51979SOL    HW173547   5.645  10.410   7.577 -0.2502  0.7156 -2.8533
51979SOL    HW273548   5.512  10.342   7.602  0.5153 -0.0105 -0.5173
51980SOL     OW73549   8.789   4.643  12.118  0.2986  0.0535  0.3619
51980SOL    HW173550   8.741   4.634  12.200 -0.4449  0.1927 -0.0497
51980SOL    HW273551   8.818   4.554  12.098 -1.1689 -0.3426 -0.1927
51981SOL     OW73552   2.067   8.973   7.805 -0.5409  0.1589 -0.0629
51981SOL    HW173553   2.110   8.891   7.780  0.9951  1.1953 -1.0185
51981SOL    HW273554   2.113   9.041   7.755 -1.9371  1.5923  0.4863
51982SOL     OW73555   3.872   9.010   4.971 -0.3690 -0.6656 -0.6051
51982SOL    HW173556   3.842   9.009   5.062  1.4613  0.0694  0.0557
51982SOL    HW273557   3.933   9.084   4.967 -0.3099 -0.7840 -2.3983
51983SOL     OW73558   0.336   8.649   9.043  0.1404  0.2107  0.2671
51983SOL    HW173559   0.286   8.692   9.112  2.3074  0.6439  1.6645
51983SOL    HW273560   0.272   8.594   8.998 -2.0080  2.2586  0.5911
51984SOL     OW73561  13.079   2.448   5.950  0.0328 -0.1892  0.2312
51984SOL    HW173562  13.030   2.513   5.899  2.3823  0.7151 -1.0298
51984SOL    HW273563  13.012   2.386   5.979 -2.2068  2.2897  0.7936
51985SOL     OW73564   2.487   3.608  11.129 -0.2144 -0.1929  0.0201
51985SOL    HW173565   2.553   3.678  11.129  0.2176 -0.6007 -0.2218
51985SOL    HW273566   2.536   3.529  11.152 -0.0646 -1.0242 -2.8584
51986SOL     OW73567   8.275   7.151  12.462  0.5639 -0.1765  0.1544
51986SOL    HW173568   8.355   7.202  12.478  1.6365 -2.2240  1.7906
51986SOL    HW273569   8.283   7.124  12.370  0.0954  2.2396 -0.6752
51987SOL     OW73570   3.210   6.387   6.143  0.3705  0.4230  0.1887
51987SOL    HW173571   3.143   6.347   6.088  0.7241 -2.6731  1.7423
51987SOL    HW273572   3.185   6.479   6.149 -3.9636 -0.5707  0.8885
51988SOL     OW73573   2.011   1.161   2.343 -0.1906  0.0568 -0.3942
51988SOL    HW173574   2.017   1.225   2.271  2.9132  0.8617  0.4289
51988SOL    HW273575   2.070   1.195   2.410  0.2526 -2.8185  0.8152
51989SOL     OW73576   2.244   7.744   5.743 -0.2462 -0.2617  0.8415
51989SOL    HW173577   2.294   7.717   5.820  2.5247  0.8837 -0.4249
51989SOL    HW273578   2.293   7.708   5.669  0.7171  3.6407 -0.6639
51990SOL     OW73579   7.698  13.293   6.368  0.0411  0.2107  0.0962
51990SOL    HW173580   7.607  13.268   6.386  0.7997 -2.5527  0.5192
51990SOL    HW273581   7.705  13.382   6.404 -2.1325 -0.0103  1.2796
51991SOL     OW73582   8.282   1.363   6.333  0.0128  0.3331  0.4795
51991SOL    HW173583   8.200   1.355   6.381  1.3288 -1.4142  2.6045
51991SOL    HW273584   8.318   1.448   6.361  0.4696 -0.3914  2.1935
51992SOL     OW73585   5.877   6.457   0.189 -0.8554  0.1675 -0.6753
51992SOL    HW173586   5.817   6.413   0.129 -0.5464 -0.7379 -0.3306
51992SOL    HW273587   5.963   6.451   0.147 -0.6612 -0.3494 -0.2103
51993SOL     OW73588  10.501  10.345   5.321 -0.2984  0.3649 -0.4042
51993SOL    HW173589  10.572  10.382   5.375 -0.5410  0.0841  0.1163
51993SOL    HW273590  10.540  10.334   5.235  0.5140 -0.4142  0.0369
51994SOL     OW73591   8.072   0.442  11.364 -0.2332  0.2422  0.2674
51994SOL    HW173592   8.032   0.452  11.278  0.0683 -0.8641 -0.0236
51994SOL    HW273593   8.012   0.487  11.424 -1.2397 -0.2655 -0.3270
51995SOL     OW73594   2.487   6.735  12.276  0.2459 -0.0506  0.0266
51995SOL    HW173595   2.495   6.806  12.212 -0.2143  0.1530  0.1939
51995SOL    HW273596   2.559   6.750  12.338  0.9719 -0.5078 -0.6831
51996SOL     OW73597   4.634   2.714   0.126 -0.2969 -0.1265  0.2564
51996SOL    HW173598   4.610   2.719   0.219 -1.2093 -2.3753  0.2135
51996SOL    HW273599   4.723   2.680   0.126 -0.3213 -0.1906  0.3102
51997SOL     OW73600   8.148   2.696  13.216  0.0632 -0.0445 -0.6918
51997SOL    HW173601   8.197   2.683  13.297 -1.6060  1.4830  0.6548
51997SOL    HW273602   8.164   2.616  13.165  1.0123 -1.1439  1.2061
51998SOL     OW73603  10.036  13.072   3.039  0.4072  0.2243  0.0258
51998SOL    HW173604   9.945  13.043   3.042 -0.5730  3.0561  1.0616
51998SOL    HW273605  10.076  13.029   3.115 -0.2419 -0.4755 -0.0076
51999SOL     OW73606   3.427  12.410   4.459  0.0559  0.7599  0.5848
51999SOL    HW173607   3.363  12.377   4.395 -0.2138  1.4957  0.4609
51999SOL    HW273608   3.463  12.331   4.500  0.2265  0.2716 -0.4619
52000SOL     OW73609   2.455   9.811  11.495  0.2333 -0.2401 -0.1737
52000SOL    HW173610   2.418   9.899  11.498  3.4481  1.2024  0.5421
52000SOL    HW273611   2.383   9.754  11.524 -2.0645  2.0202 -1.0452
52001SOL     OW73612   3.178   9.396   0.458  0.1023  0.0212  0.0210
52001SOL    HW173613   3.128   9.437   0.528  1.2304  1.4893  0.0014
52001SOL    HW273614   3.193   9.306   0.488 -2.3842 -0.4407  0.0734
52002SOL     OW73615   3.150   8.602   3.996 -0.2932  0.1981  0.0020
52002SOL    HW173616   3.143   8.697   3.988 -1.4017  0.3627  2.1902
52002SOL    HW273617   3.179   8.588   4.086  0.1165 -1.5411 -0.3671
52003SOL     OW73618   6.189   7.230  12.507  0.2901  0.3902 -0.4412
52003SOL    HW173619   6.114   7.259  12.455  0.0080 -0.7676 -0.6964
52003SOL    HW273620   6.253   7.200  12.442 -0.0376 -1.0123 -0.1347
52004SOL     OW73621   2.056   1.105   4.453 -0.0841 -0.9433  0.0509
52004SOL    HW173622   2.031   1.163   4.524 -1.2839  0.2225 -1.2520
52004SOL    HW273623   2.044   1.157   4.373  2.6119 -1.7047 -0.9743
52005SOL     OW73624   5.061   4.236   0.681 -0.2232  0.0722 -0.9304
52005SOL    HW173625   5.075   4.202   0.770  1.2784  0.4630 -0.9925
52005SOL    HW273626   5.011   4.167   0.637  0.1513 -0.7149 -0.1556
52006SOL     OW73627  13.531   1.383   6.942  0.3168 -0.4973  0.1895
52006SOL    HW173628  13.509   1.315   7.005  1.7713  0.3389  1.6694
52006SOL    HW273629  13.573   1.336   6.870  0.0267 -1.3004  0.5282
52007SOL     OW73630   3.447  12.085   7.807  0.6191 -0.6628 -1.0612
52007SOL    HW173631   3.496  12.155   7.851  0.7996 -1.2170 -0.3642
52007SOL    HW273632   3.358  12.118   7.802  0.6366 -0.5059 -0.4538
52008SOL     OW73633   5.783  10.617   7.389 -0.0248  0.8359 -0.2521
52008SOL    HW173634   5.722  10.672   7.438  0.4104  1.4693 -0.4098
52008SOL    HW273635   5.809  10.549   7.452  0.6778  1.7515  0.4765
52009SOL     OW73636   9.090   7.371   1.426 -0.4925 -0.1972  0.2463
52009SOL    HW173637   9.004   7.390   1.389  0.5215  0.4536 -1.9290
52009SOL    HW273638   9.136   7.455   1.426  0.4761 -0.7069  0.4540
52010SOL     OW73639   3.461   8.652   2.539  0.3811  0.5706  0.8544
52010SOL    HW173640   3.418   8.571   2.508  1.3991  0.8866 -1.5961
52010SOL    HW273641   3.519   8.622   2.609  1.6068 -1.0675 -0.7734
52011SOL     OW73642   5.608   7.666  10.492  0.1789 -0.0909  0.1231
52011SOL    HW173643   5.522   7.686  10.528 -0.4249  0.0204 -1.3276
52011SOL    HW273644   5.632   7.583  10.533 -0.2121  0.3275  1.2198
52012SOL     OW73645   9.412   1.526   5.476 -0.9746 -0.4765  0.0120
52012SOL    HW173646   9.420   1.593   5.408  1.0853 -0.9481 -0.2777
52012SOL    HW273647   9.474   1.553   5.544  1.9827 -3.3767 -1.2953
52013SOL     OW73648   9.471   5.087  11.614 -0.3658  0.1429 -0.1863
52013SOL    HW173649   9.537   5.057  11.551  0.1535  1.2403 -0.1889
52013SOL    HW273650   9.486   5.181  11.621 -1.9611  0.4207 -0.2076
52014SOL     OW73651   7.709   6.303   4.819 -0.3167 -0.6181  0.5049
52014SOL    HW173652   7.648   6.377   4.822  1.1653  0.7242 -0.7858
52014SOL    HW273653   7.732   6.287   4.911 -1.3087 -0.0530  0.8651
52015SOL     OW73654  11.795  13.902  11.678 -0.8626  0.2857 -0.2260
52015SOL    HW173655  11.713  13.949  11.693 -0.7520 -0.0089  1.5722
52015SOL    HW273656  11.857  13.970  11.651 -1.1367  0.9058  0.6611
52016SOL     OW73657   1.346   9.993   6.259 -0.1282 -0.2293  0.6029
52016SOL    HW173658   1.307   9.955   6.180  1.1966 -0.3091 -0.0431
52016SOL    HW273659   1.327   9.930   6.328  0.6342 -1.2839 -0.1272
52017SOL     OW73660  12.023   5.907   6.446  0.2056 -0.4494  0.2679
52017SOL    HW173661  12.100   5.851   6.442  0.4959 -0.2116  1.8081
52017SOL    HW273662  11.958   5.864   6.391  0.1935 -2.6582  1.9093
52018SOL     OW73663   9.761  12.156   1.405 -0.7180  0.0480  0.0447
52018SOL    HW173664   9.779  12.068   1.438 -1.9524  0.1543  1.1170
52018SOL    HW273665   9.765  12.147   1.310  1.0352 -0.7179  0.1494
52019SOL     OW73666  10.686   4.543   7.394 -0.7653  0.6833  0.0258
52019SOL    HW173667  10.651   4.606   7.331 -1.5406 -0.7751 -1.0556
52019SOL    HW273668  10.618   4.538   7.462 -0.5387  1.2567  0.3042
52020SOL     OW73669   7.220  13.590   8.061 -0.0478  0.2000  0.1367
52020SOL    HW173670   7.161  13.515   8.068 -1.4536  1.2207 -0.2872
52020SOL    HW273671   7.211  13.635   8.145  0.7787 -0.0722  0.3834
52021SOL     OW73672  10.796   1.453   9.371  0.2889  0.2799 -0.1856
52021SOL    HW173673  10.740   1.433   9.296  0.7008  0.4511 -0.5409
52021SOL    HW273674  10.785   1.547   9.385 -1.7340 -0.1414  1.5584
52022SOL     OW73675  13.861  10.741  13.972  0.4657  0.1115 -0.0156
52022SOL    HW173676  13.905  10.817  13.933  0.7933  0.1284  0.3762
52022SOL    HW273677  13.909  10.725  14.054 -0.1301 -0.0034  0.3141
52023SOL     OW73678   3.230   2.503   5.125  0.3971  0.6099 -0.8550
52023SOL    HW173679   3.278   2.436   5.174  1.4959  1.8052 -0.2508
52023SOL    HW273680   3.237   2.582   5.179 -2.2267  0.8776 -0.7577
52024SOL     OW73681   4.595   8.331   5.709  0.3268  0.2061 -0.1066
52024SOL    HW173682   4.633   8.246   5.686  0.6097  0.5282 -0.8609
52024SOL    HW273683   4.563   8.366   5.626 -1.2604  0.1374  0.4427
52025SOL     OW73684  11.655   0.271   1.415 -0.1553  0.0972  0.4373
52025SOL    HW173685  11.642   0.211   1.342 -2.0170 -1.7479  2.1355
52025SOL    HW273686  11.578   0.327   1.415  0.4138  0.8951  0.2928
52026SOL     OW73687   0.649   6.401   7.182  0.4597 -0.4186 -0.3455
52026SOL    HW173688   0.648   6.436   7.093  1.0598  2.4351  0.6355
52026SOL    HW273689   0.562   6.362   7.194 -1.3412  2.9837 -0.9083
52027SOL     OW73690   0.103  12.843   7.033  0.0530  0.2904  0.7928
52027SOL    HW173691   0.011  12.866   7.020  0.4536  2.3647  1.2790
52027SOL    HW273692   0.116  12.848   7.128  0.5824 -0.4242  0.7701
52028SOL     OW73693   9.707   3.213   8.450  0.0798 -0.2979 -0.5916
52028SOL    HW173694   9.692   3.293   8.501 -2.1397 -0.7530 -0.3945
52028SOL    HW273695   9.714   3.243   8.359 -0.0988  0.1687 -0.4560
52029SOL     OW73696  10.483   8.076  13.356  1.0200 -0.5180  0.5733
52029SOL    HW173697  10.475   7.998  13.302  0.2775 -1.2304  1.6740
52029SOL    HW273698  10.555   8.056  13.417  0.7869 -0.3671  0.8985
52030SOL     OW73699   2.276  10.677  11.788 -0.0066 -0.0956 -0.1713
52030SOL    HW173700   2.261  10.763  11.749  2.0495  0.1581 -0.4738
52030SOL    HW273701   2.188  10.647  11.813 -0.7433  2.2023  0.2326
52031SOL     OW73702   1.419   2.295   9.417  0.0368  0.3071  0.3294
52031SOL    HW173703   1.405   2.390   9.418 -0.6812  0.3640 -3.1240
52031SOL    HW273704   1.506   2.284   9.378 -0.5105 -0.4476 -0.7231
52032SOL     OW73705   6.996   0.284   0.909 -0.6890  0.7053  0.0802
52032SOL    HW173706   7.024   0.241   0.990 -0.7201  1.7587  0.6611
52032SOL    HW273707   7.063   0.260   0.845 -0.4322  0.2205  0.5196
52033SOL     OW73708   9.505   1.208   7.896  0.8087  0.7574  0.2111
52033SOL    HW173709   9.482   1.138   7.835  0.3511  0.7894  0.3384
52033SOL    HW273710   9.495   1.167   7.983 -0.7950  1.3501  0.3347
52034SOL     OW73711   7.502  11.971  11.120  0.3795  0.6797  0.1897
52034SOL    HW173712   7.524  11.901  11.182  2.8293 -0.4640 -1.8198
52034SOL    HW273713   7.524  12.051  11.167  4.4799 -0.2182  0.1866
52035SOL     OW73714  12.221   6.188   0.497 -0.1190 -0.1202  0.3455
52035SOL    HW173715  12.239   6.274   0.534  2.8832  0.2105 -1.5194
52035SOL    HW273716  12.258   6.126   0.560  1.9398  0.2800 -0.3727
52036SOL     OW73717   6.615  10.405   3.884 -0.1552 -0.3603  0.1749
52036SOL    HW173718   6.531  10.431   3.922  0.8982  1.6277  1.3707
52036SOL    HW273719   6.601  10.407   3.790 -0.8977  2.2617  0.2674
52037SOL     OW73720   5.368   8.891   5.736  0.2439 -0.0836  0.0097
52037SOL    HW173721   5.368   8.889   5.832  0.8048  2.5542  0.1529
52037SOL    HW273722   5.429   8.822   5.710  1.8553  0.6266  1.6788
52038SOL     OW73723  13.083  12.322   7.333  0.2446  0.2838  0.0050
52038SOL    HW173724  13.116  12.237   7.305  0.3068 -0.4156  2.0555
52038SOL    HW273725  13.063  12.368   7.251  1.7318 -1.0695 -1.1851
52039SOL     OW73726   5.189   3.097  10.874 -0.4006  0.7696 -0.5555
52039SOL    HW173727   5.244   3.114  10.797  0.7109 -0.8776 -0.1908
52039SOL    HW273728   5.210   3.006  10.898  0.5612  1.7162  2.6778
52040SOL     OW73729   8.233   2.711  10.733  0.3847  0.2987  0.1581
52040SOL    HW173730   8.160   2.661  10.772  0.8415  0.2150  0.9237
52040SOL    HW273731   8.229   2.796  10.776 -1.6884  1.7653 -2.6227
52041SOL     OW73732  12.061   3.135   6.479 -0.1694  0.2230  0.4712
52041SOL    HW173733  12.144   3.104   6.516 -0.0205 -0.4331 -0.3887
52041SOL    HW273734  12.033   3.065   6.420 -0.6345  1.0380 -0.3005
52042SOL     OW73735   5.124   4.335   2.773  0.3893 -0.2279 -0.3101
52042SOL    HW173736   5.191   4.400   2.753  1.2143 -1.1400 -0.6305
52042SOL    HW273737   5.071   4.330   2.693  0.5164 -0.1629 -0.3989
52043SOL     OW73738   0.998   1.262   0.992  0.3856  0.4788 -0.2041
52043SOL    HW173739   0.988   1.225   0.904  2.7161 -0.0246 -0.3165
52043SOL    HW273740   0.910   1.289   1.016 -0.7550 -1.5074 -1.7569
52044SOL     OW73741  13.070  14.046  13.817  0.1403 -0.4808  0.2145
52044SOL    HW173742  12.980  14.015  13.826 -0.3381  0.5241 -0.9203
52044SOL    HW273743  13.113  13.981  13.763 -0.7065  0.4610 -1.6759
52045SOL     OW73744   4.249  13.270   8.694  0.0663 -0.2942  0.3824
52045SOL    HW173745   4.159  13.299   8.702  0.4600  0.5689  2.1019
52045SOL    HW273746   4.290  13.332   8.634 -0.2701 -0.1793  0.2733
52046SOL     OW73747   4.643   1.859  13.645  0.5831 -0.2170  0.0392
52046SOL    HW173748   4.579   1.931  13.644 -0.4723 -1.1281 -0.9622
52046SOL    HW273749   4.683   1.863  13.732  0.5507  1.5692  0.0069
52047SOL     OW73750   3.453   0.841   1.990  0.5268  0.3174 -0.2702
52047SOL    HW173751   3.485   0.867   2.076  0.3212  0.0049 -0.0971
52047SOL    HW273752   3.404   0.760   2.006 -0.6054  0.9345 -0.4720
52048SOL     OW73753   4.403   0.442  10.348  0.2049 -0.3723 -0.1150
52048SOL    HW173754   4.487   0.440  10.394  0.4695  0.0637 -0.5629
52048SOL    HW273755   4.337   0.446  10.417  0.5636 -0.4357  0.2354
52049SOL     OW73756  10.134   3.371  11.075 -0.0504  0.0198  0.1194
52049SOL    HW173757  10.152   3.458  11.040 -0.4913  0.0085 -0.1492
52049SOL    HW273758  10.043   3.354  11.051 -0.1686 -0.2480  0.7330
52050SOL     OW73759  13.806   9.681   3.441  0.2470 -0.3217  0.8622
52050SOL    HW173760  13.788   9.758   3.495  3.1326 -0.2812  1.9248
52050SOL    HW273761  13.899   9.688   3.419 -0.4803 -1.0387 -3.1114
52051SOL     OW73762   4.986   7.937   8.494  0.4770  0.5965 -0.0909
52051SOL    HW173763   4.944   7.978   8.419 -0.8381 -0.1890  0.1780
52051SOL    HW273764   4.956   7.989   8.569 -0.9591 -0.6229  0.2200
52052SOL     OW73765   1.095  13.952   7.525  0.4004 -0.2943  0.1277
52052SOL    HW173766   1.100  13.989   7.613 -0.0418  0.2303 -0.0609
52052SOL    HW273767   1.022  13.999   7.483  1.1764  0.1049 -0.8147
52053SOL     OW73768   1.110   4.006   1.106  0.7275 -0.2363 -0.5140
52053SOL    HW173769   1.174   3.956   1.056  2.2821  2.3009 -1.2539
52053SOL    HW273770   1.155   4.089   1.126 -0.5916 -0.2401  3.2418
52054SOL     OW73771   7.119   6.187   3.214  0.1237 -0.0507 -0.2451
52054SOL    HW173772   7.074   6.134   3.280  1.5714 -0.5946  0.3472
52054SOL    HW273773   7.049   6.219   3.157 -1.0050 -0.7996  0.6726
52055SOL     OW73774  13.522   7.279   5.476  0.1356  0.5277 -0.5477
52055SOL    HW173775  13.510   7.263   5.382  1.9803  2.4744 -1.1817
52055SOL    HW273776  13.541   7.372   5.483 -2.1588  0.9521  2.0680
52056SOL     OW73777  13.998   8.742   3.409 -0.2797  0.4368  0.1637
52056SOL    HW173778  13.998   8.780   3.322  1.0005 -0.7432 -0.3806
52056SOL    HW273779  13.906   8.745   3.436 -1.0451 -0.9730 -2.0483
52057SOL     OW73780   3.068  10.457   9.213  0.1705  0.0154  0.0696
52057SOL    HW173781   3.003  10.405   9.166 -0.1937 -0.9936  1.5944
52057SOL    HW273782   3.115  10.506   9.145 -0.4562 -1.2101 -1.2825
52058SOL     OW73783   0.321   7.409  10.268  0.6376 -0.5098  0.7304
52058SOL    HW173784   0.266   7.340  10.304  3.3223 -1.2017  4.1045
52058SOL    HW273785   0.371   7.366  10.199 -0.9985 -0.5734 -0.4704
52059SOL     OW73786   1.548  13.658   8.388  0.0248 -0.0588  0.0642
52059SOL    HW173787   1.635  13.699   8.382  0.2379 -0.6099 -0.8479
52059SOL    HW273788   1.488  13.727   8.360  0.2889 -0.0385 -0.4761
52060SOL     OW73789   2.877   6.249  11.100  0.2533  0.1902  0.1317
52060SOL    HW173790   2.865   6.344  11.092  0.4121  0.2010  0.0285
52060SOL    HW273791   2.839   6.213  11.020  0.4929  0.1912  0.0161
52061SOL     OW73792   4.831   9.480  13.816 -0.2421  0.3310  0.3518
52061SOL    HW173793   4.825   9.548  13.883  0.3672  0.9247 -0.1891
52061SOL    HW273794   4.776   9.409  13.850  3.6888 -1.4878  3.8861
52062SOL     OW73795   1.614  11.372   0.312  0.0547 -0.3555  0.1101
52062SOL    HW173796   1.702  11.403   0.292 -0.1523 -0.1487 -0.5035
52062SOL    HW273797   1.625  11.278   0.325  0.1329 -0.6004 -1.5175
52063SOL     OW73798  11.108   0.164   0.789  0.5869 -0.4153  0.0475
52063SOL    HW173799  11.188   0.155   0.737 -0.0551  0.2758 -1.0887
52063SOL    HW273800  11.068   0.077   0.786  0.6958 -0.4530 -0.3742
52064SOL     OW73801   8.629  10.225   4.357  0.0855  0.3850 -0.6236
52064SOL    HW173802   8.591  10.313   4.363  1.1424  0.8195  0.1273
52064SOL    HW273803   8.705  10.235   4.300 -0.1254 -0.1841 -1.0195
52065SOL     OW73804  13.068  10.561   7.358 -0.5546  0.1942  0.4454
52065SOL    HW173805  13.072  10.656   7.366  0.6534  0.1705  0.2785
52065SOL    HW273806  13.133  10.529   7.422 -2.7609 -0.6350  2.4145
52066SOL     OW73807   9.625   2.505   7.524  0.1300  0.5120  0.4138
52066SOL    HW173808   9.684   2.489   7.450 -0.2962  0.1308  0.1530
52066SOL    HW273809   9.586   2.420   7.543  0.7285  0.4609  1.5222
52067SOL     OW73810   0.195   8.764   2.934  0.2429 -0.6210 -1.2696
52067SOL    HW173811   0.263   8.829   2.919 -1.2155  1.0219 -1.1440
52067SOL    HW273812   0.231   8.683   2.899  2.0369  0.2920 -1.6692
52068SOL     OW73813   2.339   8.928   4.431 -0.0331  0.5428 -0.3941
52068SOL    HW173814   2.274   8.876   4.478  1.9927 -3.2987 -1.4443
52068SOL    HW273815   2.410   8.941   4.494 -0.3313  1.8405 -0.2776
52069SOL     OW73816   0.352   1.029   8.139 -0.1534 -0.0704 -0.1116
52069SOL    HW173817   0.331   1.041   8.232  1.0528  2.1635 -0.0540
52069SOL    HW273818   0.373   0.936   8.131 -0.4291 -0.3428  1.8194
52070SOL     OW73819   3.194   7.107  11.408 -0.5669 -0.0941 -0.3478
52070SOL    HW173820   3.253   7.143  11.342 -1.0357 -0.1508 -0.8053
52070SOL    HW273821   3.251   7.082  11.480 -0.2278  1.5164 -0.0375
52071SOL     OW73822  13.676   5.320   0.508 -0.7671  0.0242 -0.6130
52071SOL    HW173823  13.642   5.315   0.597  0.4853 -1.7030 -0.1777
52071SOL    HW273824  13.720   5.406   0.504 -0.1037 -0.2284  0.7391
52072SOL     OW73825   6.267  12.980   7.439  0.3942 -0.1399 -0.0779
52072SOL    HW173826   6.201  12.915   7.416 -0.2187  0.8320 -1.1902
52072SOL    HW273827   6.323  12.936   7.504 -0.5275 -1.4411 -0.1282
52073SOL     OW73828   1.851   6.049   3.416 -0.3756  0.6161 -0.2667
52073SOL    HW173829   1.888   5.973   3.461  1.0862  1.6228  0.3085
52073SOL    HW273830   1.758   6.049   3.442 -1.2696 -2.7000 -2.7811
52074SOL     OW73831  10.785  12.017  10.604 -0.8985 -0.6357 -0.4347
52074SOL    HW173832  10.794  11.976  10.690 -0.6881  1.9932  0.8954
52074SOL    HW273833  10.860  11.985  10.555  0.1589 -0.5984  1.0839
52075SOL     OW73834   6.438   6.619  11.569  0.0475 -0.3054  0.1391
52075SOL    HW173835   6.371   6.686  11.579  0.2949  0.0539 -0.4940
52075SOL    HW273836   6.416   6.576  11.487 -0.6037 -1.5836  0.9708
52076SOL     OW73837  10.380   3.581   6.589  0.1709  0.0432 -0.7596
52076SOL    HW173838  10.361   3.554   6.679 -0.6805  1.7973 -0.3601
52076SOL    HW273839  10.476   3.582   6.584  0.2279 -1.3048 -0.2897
52077SOL     OW73840  12.351   9.498   2.170  0.0984  0.4497 -0.2925
52077SOL    HW173841  12.278   9.456   2.215 -0.8246  2.1606 -0.1001
52077SOL    HW273842  12.404   9.426   2.138 -1.4704 -0.8526 -0.0942
52078SOL     OW73843   4.336   0.781  12.367  0.4076 -0.5280  0.2003
52078SOL    HW173844   4.305   0.748  12.451  0.0868 -1.0167 -0.1001
52078SOL    HW273845   4.429   0.757  12.364  0.5153 -0.1552  0.5828
52079SOL     OW73846   8.317   0.925   6.975  0.1954  0.0400  0.2976
52079SOL    HW173847   8.348   0.886   6.893  1.9301  2.2237 -0.2101
52079SOL    HW273848   8.230   0.958   6.955  0.9954  1.4498 -1.0521
52080SOL     OW73849   6.772   3.583   4.925 -0.5647  0.2712 -0.3126
52080SOL    HW173850   6.867   3.581   4.935 -0.6947 -1.9380  0.9542
52080SOL    HW273851   6.743   3.655   4.981  0.1937 -0.6356  1.2942
52081SOL     OW73852   1.549  13.732   5.904 -0.4446 -0.3817  0.1007
52081SOL    HW173853   1.565  13.678   5.981 -0.0439 -0.2165  0.1341
52081SOL    HW273854   1.625  13.790   5.899 -0.2198 -0.7348 -0.7124
52082SOL     OW73855   9.320   8.910  10.972  1.2731  0.4703 -0.1312
52082SOL    HW173856   9.259   8.869  10.911  0.8578  1.5918 -0.5039
52082SOL    HW273857   9.305   8.867  11.056  0.3037  0.4119 -0.3295
52083SOL     OW73858   3.405   8.129  10.029 -0.0499 -0.6435  0.1237
52083SOL    HW173859   3.358   8.056   9.989  0.6362 -1.7789  1.2861
52083SOL    HW273860   3.344   8.202  10.025 -0.0381 -0.6725 -2.8749
52084SOL     OW73861   0.055   6.486   3.790  1.1672 -0.1117  0.6598
52084SOL    HW173862   0.047   6.392   3.802 -1.6959  0.1192  1.3711
52084SOL    HW273863   0.065   6.498   3.696  0.1686 -1.1136  0.4028
52085SOL     OW73864  13.514   5.116   1.467 -0.6721 -0.3583  0.6267
52085SOL    HW173865  13.460   5.087   1.540 -0.0410  0.7722  1.5766
52085SOL    HW273866  13.584   5.167   1.507  0.6692 -1.1144 -0.6404
52086SOL     OW73867   4.871  14.025  13.136  0.6627  0.4430 -0.0307
52086SOL    HW173868   4.854  13.933  13.157 -0.4434  1.0086  1.7699
52086SOL    HW273869   4.940  14.022  13.070  1.1099 -1.6533  0.4576
52087SOL     OW73870   2.392  12.838  10.753 -0.7357  0.0120  0.5985
52087SOL    HW173871   2.386  12.743  10.746 -0.4201 -0.0445  1.0401
52087SOL    HW273872   2.485  12.855  10.764 -0.6042  0.4891 -1.0383
52088SOL     OW73873   3.507   7.469   5.157  0.3731  0.1284  0.1060
52088SOL    HW173874   3.500   7.528   5.082  0.6470  2.1511  1.5848
52088SOL    HW273875   3.418   7.465   5.192  0.3221 -0.5060 -0.0880
52089SOL     OW73876  12.261  13.917  12.553 -0.1847  1.0439  0.2121
52089SOL    HW173877  12.212  13.856  12.497 -0.4474 -1.0143  2.4910
52089SOL    HW273878  12.350  13.916  12.518 -0.2878 -0.3688 -0.0663
52090SOL     OW73879   7.832   2.020   9.217 -0.3736  0.5864 -0.1244
52090SOL    HW173880   7.803   2.112   9.214 -0.7450  0.5268  1.0384
52090SOL    HW273881   7.753   1.970   9.198 -0.2016  0.5082 -0.6224
52091SOL     OW73882   2.734   2.574   3.391  0.6710 -0.1320  0.2140
52091SOL    HW173883   2.732   2.645   3.455  0.1083 -0.6840  0.8253
52091SOL    HW273884   2.648   2.533   3.398  1.2243 -1.3010  0.3622
52092SOL     OW73885  13.758  13.327   5.591 -0.1258 -0.1912  0.1432
52092SOL    HW173886  13.755  13.247   5.537  0.2644  1.2748 -2.1771
52092SOL    HW273887  13.779  13.295   5.679 -0.4693 -2.6814 -0.5828
52093SOL     OW73888   6.532   4.583   5.017 -0.1411  0.0435  0.0719
52093SOL    HW173889   6.557   4.665   4.974  0.6789 -0.5677 -0.6624
52093SOL    HW273890   6.476   4.539   4.953  0.4248 -0.5046 -0.0674
52094SOL     OW73891   7.600   8.498  12.275 -0.0780  0.0836  0.3045
52094SOL    HW173892   7.588   8.521  12.367  2.5098  2.3172  0.1897
52094SOL    HW273893   7.683   8.539  12.250 -1.1476  0.3966 -3.2897
52095SOL     OW73894   0.585   0.767   2.500 -0.3344 -0.1321  0.2800
52095SOL    HW173895   0.604   0.772   2.407 -0.7907 -0.1100  0.1857
52095SOL    HW273896   0.671   0.760   2.542 -0.1518 -0.6550 -0.1728
52096SOL     OW73897   3.401   0.128   0.707 -0.5036 -0.0647 -0.0663
52096SOL    HW173898   3.487   0.117   0.666 -1.0421 -0.8286 -1.0528
52096SOL    HW273899   3.339   0.104   0.638 -1.4782 -0.5511  0.9478
52097SOL     OW73900  11.214   3.943   8.814 -0.2005 -0.4139 -0.2356
52097SOL    HW173901  11.305   3.913   8.802 -0.3191 -0.6490 -0.5831
52097SOL    HW273902  11.181   3.891   8.887  0.0365 -0.1187  0.0822
52098SOL     OW73903  12.021  12.175  13.665  0.4309 -0.2480 -0.1184
52098SOL    HW173904  12.012  12.182  13.570  0.8034 -0.2200 -0.1546
52098SOL    HW273905  11.931  12.167  13.698  0.1903  1.1193 -0.3622
52099SOL     OW73906  10.387   7.099   4.674 -0.4593 -0.1290  0.5611
52099SOL    HW173907  10.414   7.085   4.583 -0.7576  0.1941  0.4174
52099SOL    HW273908  10.296   7.070   4.677 -0.8142  0.9070  0.4645
52100SOL     OW73909  11.981   8.207  10.963 -0.3571  0.0769 -0.2324
52100SOL    HW173910  11.976   8.193  11.058 -2.4807  0.9663 -0.1448
52100SOL    HW273911  11.929   8.136  10.925  0.2786 -0.1337 -0.7344
52101SOL     OW73912  10.320  11.346   9.212  0.4013 -0.4952  0.1137
52101SOL    HW173913  10.257  11.336   9.283 -2.4286 -1.0968 -2.2901
52101SOL    HW273914  10.304  11.434   9.178  0.6301 -0.7505 -0.6831
52102SOL     OW73915  12.638   8.108  11.831 -0.2815 -0.4563 -0.1004
52102SOL    HW173916  12.727   8.078  11.848 -0.6608 -1.8931 -0.5111
52102SOL    HW273917  12.639   8.135  11.740 -0.2216 -0.2707 -0.0457
52103SOL     OW73918   1.048   0.977   9.663  0.2383 -0.1331 -0.4133
52103SOL    HW173919   1.007   1.059   9.634 -2.6852 -1.7716 -1.3378
52103SOL    HW273920   1.123   0.966   9.605  0.6059  1.7836 -0.3720
52104SOL     OW73921   2.167   4.669   6.198 -0.6880  0.0039 -0.4009
52104SOL    HW173922   2.138   4.587   6.238 -0.8769 -0.0304 -0.6098
52104SOL    HW273923   2.204   4.719   6.271  0.3924 -0.6883 -0.4520
52105SOL     OW73924   3.659  11.023   3.927 -0.2862  0.0100 -0.6430
52105SOL    HW173925   3.701  11.096   3.883  0.1107 -0.6004 -1.2967
52105SOL    HW273926   3.680  10.947   3.873 -1.3926 -0.4637 -0.4314
52106SOL     OW73927  13.881   6.448  10.553  0.1639 -0.0877 -0.1813
52106SOL    HW173928  13.932   6.499  10.491 -1.9459 -0.1824 -2.1342
52106SOL    HW273929  13.899   6.357  10.530  0.2200 -0.1404  0.0695
52107SOL     OW73930   6.748   1.832   4.252  0.4067 -0.3620 -0.8918
52107SOL    HW173931   6.688   1.770   4.293  1.2739 -0.2402  0.6235
52107SOL    HW273932   6.802   1.778   4.193  0.0180 -0.7592 -0.8899
52108SOL     OW73933   1.909   4.134   6.130 -0.2071 -0.0924 -0.3481
52108SOL    HW173934   1.929   4.041   6.139  0.1576  0.0280  0.0816
52108SOL    HW273935   1.902   4.147   6.035  0.8393 -0.3292 -0.4657
52109SOL     OW73936   9.481  10.426   2.920 -0.1849  0.1918  0.4082
52109SOL    HW173937   9.394  10.389   2.903  0.0753  0.0415 -0.6811
52109SOL    HW273938   9.540  10.351   2.918  0.1100  0.4310  0.0641
52110SOL     OW73939   4.425   9.657   2.721  0.1690 -0.3712 -0.4874
52110SOL    HW173940   4.451   9.748   2.712  0.0588 -0.0696  1.7137
52110SOL    HW273941   4.488   9.609   2.667 -0.6474  1.0443 -2.8438
52111SOL     OW73942  12.532   2.248   8.985  0.3067  0.2272 -0.1527
52111SOL    HW173943  12.552   2.315   8.919  1.8162 -0.6827 -0.6888
52111SOL    HW273944  12.604   2.255   9.048 -0.3742  0.1538  0.6431
52112SOL     OW73945   3.235   2.505   8.689  0.2596  0.2304  0.3950
52112SOL    HW173946   3.327   2.483   8.679  0.1175  0.1447 -0.9102
52112SOL    HW273947   3.234   2.587   8.738  1.0554  0.4674  0.0266
52113SOL     OW73948   2.390   9.628  12.716  0.2494 -0.8292  0.1477
52113SOL    HW173949   2.358   9.662  12.632 -1.0669 -2.0763  0.1012
52113SOL    HW273950   2.485   9.633  12.709  0.1534  1.6587 -0.3046
52114SOL     OW73951   2.376  10.842  12.734  0.1242  0.0904  0.3141
52114SOL    HW173952   2.468  10.814  12.738 -0.1914 -1.6662 -2.1901
52114SOL    HW273953   2.380  10.932  12.703  1.0057  0.1218  0.4854
52115SOL     OW73954   9.044   7.007  13.978  0.4244  0.4986  0.0722
52115SOL    HW173955   9.046   7.021  13.883 -0.9680 -1.4319 -0.3197
52115SOL    HW273956   8.992   7.079  14.012  1.8088  1.8043 -0.4562
52116SOL     OW73957   7.038   1.063   4.688 -0.1079 -0.4489 -0.0729
52116SOL    HW173958   6.953   1.029   4.714  0.8561 -2.7237  0.3967
52116SOL    HW273959   7.025   1.096   4.599 -1.2664 -1.7209 -0.4080
52117SOL     OW73960   3.013  13.880   9.419  0.1530 -0.2266 -0.6171
52117SOL    HW173961   3.044  13.833   9.342  3.2893 -0.0604  0.4135
52117SOL    HW273962   2.995  13.968   9.388 -0.0475 -0.5320 -1.4023
52118SOL     OW73963  13.222   5.827   9.570  0.5069  0.3417  0.5309
52118SOL    HW173964  13.273   5.844   9.490  0.5576 -0.9122  0.2704
52118SOL    HW273965  13.234   5.733   9.586 -0.4378  0.3485  1.3661
52119SOL     OW73966  10.896  10.121   3.031  0.0169 -0.1970 -0.2296
52119SOL    HW173967  10.900  10.028   3.007  2.5534  0.1282 -1.3865
52119SOL    HW273968  10.899  10.167   2.948 -0.9520  0.9624  0.3510
52120SOL     OW73969  12.768  13.700  10.860 -0.3900 -0.2536 -0.4090
52120SOL    HW173970  12.795  13.726  10.949  1.1724 -0.7650 -0.7043
52120SOL    HW273971  12.844  13.653  10.825 -0.7716  0.4082 -2.2250
52121SOL     OW73972  12.473  10.601  13.699 -0.4446 -0.4307 -0.3602
52121SOL    HW173973  12.461  10.615  13.793  0.8798 -3.3565  0.3532
52121SOL    HW273974  12.518  10.680  13.668 -1.0722  0.6581  1.3704
52122SOL     OW73975  13.401   3.590  10.393  0.6654  0.3217 -0.2718
52122SOL    HW173976  13.374   3.557  10.307 -1.4413 -2.6449  1.3055
52122SOL    HW273977  13.490   3.558  10.404  0.3670 -0.7327 -0.7464
52123SOL     OW73978   0.190  13.922   1.316  0.5274 -0.1844  0.2411
52123SOL    HW173979   0.101  13.895   1.290  1.3928 -0.8514 -2.3299
52123SOL    HW273980   0.227  13.843   1.357  0.3133 -0.2622  0.2892
52124SOL     OW73981  12.010  10.839   8.645  0.3228  0.0606 -0.0313
52124SOL    HW173982  12.072  10.798   8.704  0.7939 -2.0032 -1.8294
52124SOL    HW273983  12.019  10.790   8.563 -2.5983  0.6543 -0.8256
52125SOL     OW73984   6.852   3.585   6.432  0.0861 -0.0152 -0.4227
52125SOL    HW173985   6.841   3.561   6.524 -0.0806  1.3300 -0.0685
52125SOL    HW273986   6.905   3.514   6.395  0.2690 -0.5129  0.7379
52126SOL     OW73987  12.453   4.294   4.273  0.1919  0.0795 -0.2500
52126SOL    HW173988  12.538   4.273   4.312 -0.7204  0.6096  2.2634
52126SOL    HW273989  12.405   4.211   4.274  0.1444  0.1074 -0.1255
52127SOL     OW73990   5.112   9.255  13.088 -0.3269  0.5129  0.7493
52127SOL    HW173991   5.062   9.177  13.111  0.4617 -0.0171  0.7057
52127SOL    HW273992   5.144   9.236  13.000  1.2549  0.1544  1.3730
52128SOL     OW73993   3.618  10.158   8.140  0.1911 -0.1673  0.0067
52128SOL    HW173994   3.689  10.096   8.156 -0.8796 -2.0598 -2.0490
52128SOL    HW273995   3.564  10.153   8.219  0.8576 -0.7981  0.4313
52129SOL     OW73996  10.230   0.941   7.348  0.7436 -0.0144 -0.0627
52129SOL    HW173997  10.187   0.855   7.343  0.5294  0.0436  0.6186
52129SOL    HW273998  10.323   0.921   7.349  0.7327 -0.5294  3.4852
52130SOL     OW73999  13.132   8.143   8.585 -0.2659  0.2701 -0.3490
52130SOL    HW174000  13.075   8.195   8.528  0.6660  1.4967 -0.2108
52130SOL    HW274001  13.215   8.192   8.586  0.0854 -0.3089  1.1822
52131SOL     OW74002   1.795   6.044   1.603 -0.2021 -0.1472  0.4630
52131SOL    HW174003   1.701   6.029   1.612 -0.2111 -0.7873 -0.5525
52131SOL    HW274004   1.835   5.996   1.675 -0.6326 -0.0199  0.7907
52132SOL     OW74005  12.020  13.147  12.228 -0.1496  0.0720 -0.1177
52132SOL    HW174006  11.977  13.096  12.298 -0.8458  0.0381 -0.5568
52132SOL    HW274007  12.083  13.202  12.274  1.5451 -2.0607  0.2731
52133SOL     OW74008   7.266   5.058   0.505 -0.0597  0.8681 -0.3362
52133SOL    HW174009   7.232   5.080   0.419  0.5622  3.9097  0.0819
52133SOL    HW274010   7.202   5.093   0.567  1.3585  2.3644  0.3937
52134SOL     OW74011   1.119  12.189   1.780  0.2016 -0.6382 -0.6494
52134SOL    HW174012   1.174  12.248   1.728  1.4369 -0.6540  0.5809
52134SOL    HW274013   1.092  12.121   1.718  0.5494  0.0340 -1.5720
52135SOL     OW74014  13.664   5.365  10.269 -0.5063 -0.1956 -0.5465
52135SOL    HW174015  13.633   5.292  10.322 -0.3534  0.1175 -0.0044
52135SOL    HW274016  13.750   5.337  10.236 -0.6900 -0.4695 -0.7913
52136SOL     OW74017   1.487   0.137   2.779  0.0982  0.1234 -0.2265
52136SOL    HW174018   1.459   0.050   2.750 -1.0675 -0.4075  2.2213
52136SOL    HW274019   1.564   0.120   2.833  1.3803  0.9338 -1.7122
52137SOL     OW74020   9.276   2.361  13.312 -0.2156  0.2041 -0.2069
52137SOL    HW174021   9.269   2.395  13.223 -0.0387 -0.0629 -0.3232
52137SOL    HW274022   9.214   2.414  13.363  0.2599  0.8939 -0.3262
52138SOL     OW74023   2.835  11.140   7.523 -0.2250  0.5471  0.1751
52138SOL    HW174024   2.789  11.124   7.606 -0.9619  1.6887 -0.0021
52138SOL    HW274025   2.765  11.157   7.460  0.3237 -0.4607 -0.7327
52139SOL     OW74026  12.248   5.688   9.684  0.0207 -0.2380 -0.1754
52139SOL    HW174027  12.261   5.746   9.608  0.0631 -1.1162 -0.8548
52139SOL    HW274028  12.243   5.600   9.646 -0.9344 -0.5999  0.7524
52140SOL     OW74029   5.698   0.806   3.677 -0.2484 -0.0562 -0.5695
52140SOL    HW174030   5.645   0.730   3.652  0.3625 -0.8291  0.3964
52140SOL    HW274031   5.642   0.854   3.739 -0.0677 -0.5648  0.0058
52141SOL     OW74032   1.141   6.480   2.556 -0.7638 -0.2286 -0.1412
52141SOL    HW174033   1.066   6.431   2.525 -0.6182  0.1155 -1.0564
52141SOL    HW274034   1.215   6.447   2.505 -0.1689 -0.9595  1.1298
52142SOL     OW74035   3.566  11.243   9.460 -0.6308 -0.3512  0.1035
52142SOL    HW174036   3.630  11.311   9.439 -0.6894  0.2439  1.6959
52142SOL    HW274037   3.535  11.265   9.548 -1.6473 -1.6891  0.1229
52143SOL     OW74038   3.898  13.770  10.199  0.1355 -0.7155  0.3377
52143SOL    HW174039   3.845  13.834  10.152  1.0719 -0.9506 -1.1050
52143SOL    HW274040   3.986  13.808  10.202  0.1306 -0.7544  1.8647
52144SOL     OW74041   3.434  10.469   1.954  0.0577 -0.0422  0.0841
52144SOL    HW174042   3.510  10.507   1.912  1.3424 -2.3805  0.1015
52144SOL    HW274043   3.392  10.418   1.885 -0.7048  0.1243  0.4137
52145SOL     OW74044   2.475   8.006   5.621 -0.4741 -0.1560 -0.0502
52145SOL    HW174045   2.542   8.067   5.591  0.5211 -1.5165 -0.7448
52145SOL    HW274046   2.418   8.058   5.678  0.1279  1.4665 -0.8691
52146SOL     OW74047   3.182  12.259  12.031 -0.5571  0.0994  1.1757
52146SOL    HW174048   3.231  12.268  12.113 -0.3789 -0.3055  1.1216
52146SOL    HW274049   3.188  12.345  11.989  2.2920 -0.5621 -0.0234
52147SOL     OW74050   8.753   8.007   1.484  0.0284 -0.1579  0.2837
52147SOL    HW174051   8.717   8.089   1.517 -0.0301 -0.3991  0.8316
52147SOL    HW274052   8.677   7.956   1.458  0.0814  0.0833 -0.3571
52148SOL     OW74053   9.224   0.244   7.850 -0.1189 -0.1744 -0.2344
52148SOL    HW174054   9.261   0.240   7.761  2.8503  0.9887  0.8174
52148SOL    HW274055   9.172   0.325   7.850  1.3233  0.8025 -0.4876
52149SOL     OW74056   1.476   5.574   3.108 -0.1353 -0.3699  0.0609
52149SOL    HW174057   1.476   5.531   3.193  0.1968  0.7429  0.6382
52149SOL    HW274058   1.568   5.599   3.094  0.0510 -1.6205 -1.2015
52150SOL     OW74059   0.905   1.702   2.139 -0.3564 -0.4439 -0.3235
52150SOL    HW174060   0.940   1.643   2.205 -0.9814 -0.5235 -0.0606
52150SOL    HW274061   0.956   1.683   2.060  0.8209  0.0804  0.2808
52151SOL     OW74062   1.558   2.469   9.135 -0.1499 -0.0721  0.2762
52151SOL    HW174063   1.568   2.491   9.228 -0.7052  0.3666  0.2346
52151SOL    HW274064   1.643   2.433   9.110  0.1900  0.3508  0.8031
52152SOL     OW74065   9.543   0.462  10.601 -0.2138  0.0546  0.1074
52152SOL    HW174066   9.574   0.524  10.667 -0.0687 -0.5305  0.6030
52152SOL    HW274067   9.546   0.510  10.518  1.2825  0.2466  0.2563
52153SOL     OW74068   3.102   5.877  12.533 -1.1621 -0.6814 -0.4263
52153SOL    HW174069   3.114   5.923  12.616  0.0434  0.4484 -1.1711
52153SOL    HW274070   3.071   5.790  12.557 -0.4970 -0.4969  1.2264
52154SOL     OW74071   9.100  12.207  10.142 -0.1854 -1.0450 -0.3189
52154SOL    HW174072   9.035  12.139  10.123  1.1148 -1.7134 -2.7167
52154SOL    HW274073   9.181  12.159  10.159  0.8169 -0.1452 -2.2962
52155SOL     OW74074   9.347   3.927  12.784 -0.3909 -0.1148 -0.1847
52155SOL    HW174075   9.371   3.983  12.711  0.8438 -0.2565  0.0804
52155SOL    HW274076   9.406   3.953  12.855 -0.2237 -1.2980  0.1412
52156SOL     OW74077   3.160   1.504  13.370 -0.1680  0.2725  0.3080
52156SOL    HW174078   3.239   1.558  13.378  0.1446 -0.5197  5.0690
52156SOL    HW274079   3.194   1.415  13.360 -0.5664  0.1902 -0.3756
52157SOL     OW74080   2.488  12.502  11.651  0.1056  0.1735  0.1028
52157SOL    HW174081   2.580  12.523  11.637  0.0306  0.5424  0.1593
52157SOL    HW274082   2.462  12.456  11.571  0.5965 -0.8119  0.5034
52158SOL     OW74083   1.565   5.753   6.406 -0.5204 -0.6577  0.6519
52158SOL    HW174084   1.642   5.751   6.462 -0.0689  1.0990  0.1787
52158SOL    HW274085   1.499   5.800   6.458  0.2737  2.0665 -0.5832
52159SOL     OW74086   2.151   8.200   5.245  0.4194  0.1603  0.1770
52159SOL    HW174087   2.149   8.121   5.191 -0.2291 -0.3692  0.9603
52159SOL    HW274088   2.063   8.207   5.281  0.7996  0.5836  1.0562
52160SOL     OW74089  12.159  12.604   3.002 -0.2749 -0.2784  0.0407
52160SOL    HW174090  12.227  12.671   2.994  0.9010 -1.4136  0.1207
52160SOL    HW274091  12.094  12.642   3.061  0.5172  0.6613  0.3322
52161SOL     OW74092   3.829   3.208  11.027  0.1566  0.3540 -0.1997
52161SOL    HW174093   3.919   3.179  11.044 -0.6928 -3.0818 -0.7606
52161SOL    HW274094   3.779   3.173  11.101 -1.2545 -1.2553 -1.8420
52162SOL     OW74095   9.952  10.278   1.600 -0.3177  0.9531 -0.6005
52162SOL    HW174096   9.916  10.321   1.677 -1.2562 -2.4914  1.0701
52162SOL    HW274097   9.910  10.323   1.526 -0.9064  3.0451  0.8983
52163SOL     OW74098   2.551   7.725   6.527  0.3824  0.2033 -0.3688
52163SOL    HW174099   2.529   7.751   6.437  0.0317 -0.0363 -0.3550
52163SOL    HW274100   2.637   7.684   6.520  0.1593 -0.2206 -0.6673
52164SOL     OW74101   8.802  13.715   1.004 -0.5127  0.2119  0.0400
52164SOL    HW174102   8.892  13.698   0.977 -0.6073  1.8441 -1.4572
52164SOL    HW274103   8.751  13.709   0.923 -1.3899  1.5628  0.4591
52165SOL     OW74104   9.845   8.894   5.310 -0.1174 -0.0359 -0.1228
52165SOL    HW174105   9.858   8.959   5.241 -0.2703 -1.6982 -1.7732
52165SOL    HW274106   9.759   8.858   5.293 -0.0847 -0.6067  0.8532
52166SOL     OW74107  13.894   3.863   8.717  0.2743 -0.4145 -0.1152
52166SOL    HW174108  13.834   3.935   8.732  0.1193 -0.6627  0.4635
52166SOL    HW274109  13.892   3.812   8.798  0.4486 -1.0182 -0.4832
52167SOL     OW74110  13.809  12.089   2.044 -0.0365  0.0278  0.1172
52167SOL    HW174111  13.860  12.097   1.963 -0.9249 -2.5617 -0.8059
52167SOL    HW274112  13.752  12.013   2.029  0.3391 -1.0884  3.4881
52168SOL     OW74113   6.526   8.754   1.852 -0.0267 -0.2724 -0.4179
52168SOL    HW174114   6.498   8.673   1.808 -0.9486 -1.0951  1.5497
52168SOL    HW274115   6.561   8.724   1.936 -0.1773  1.3573  0.2584
52169SOL     OW74116   8.113  11.945   9.186  0.7616 -0.2967 -0.7060
52169SOL    HW174117   8.097  11.900   9.103  0.4158 -1.3016 -0.1151
52169SOL    HW274118   8.165  12.022   9.162 -0.9673  0.5280 -2.1129
52170SOL     OW74119  11.147   2.787  10.374  0.5142  0.5771  0.2776
52170SOL    HW174120  11.208   2.732  10.325 -0.6162 -1.6884  1.2933
52170SOL    HW274121  11.199   2.823  10.446  1.2487  0.8178 -0.3636
52171SOL     OW74122   9.226   5.634  12.854  0.3933  0.6239  0.0511
52171SOL    HW174123   9.267   5.549  12.834 -1.4262 -0.3602  0.3342
52171SOL    HW274124   9.266   5.660  12.937  2.0317  0.7948 -0.7398
52172SOL     OW74125   2.691   4.221   0.262 -0.2600  0.1583  0.4642
52172SOL    HW174126   2.670   4.198   0.352 -0.2850  2.1959  1.0114
52172SOL    HW274127   2.626   4.287   0.238 -0.8131 -0.9911 -1.3768
52173SOL     OW74128  10.296  11.423   2.985 -0.3296  0.2428  0.2740
52173SOL    HW174129  10.317  11.391   3.073 -0.4968 -0.1234  0.1822
52173SOL    HW274130  10.271  11.515   2.998 -0.1887  0.2374  0.5860
52174SOL     OW74131   4.892   4.529   2.740  0.2544 -0.2962  0.0125
52174SOL    HW174132   4.936   4.605   2.778  0.9146 -1.2907  1.3306
52174SOL    HW274133   4.879   4.469   2.814  2.7189 -2.8837 -1.4382
52175SOL     OW74134   3.221   4.368  11.270 -0.3001 -0.0046 -0.4235
52175SOL    HW174135   3.168   4.447  11.284  1.4307  0.8611  1.8648
52175SOL    HW274136   3.194   4.308  11.340  0.5103 -0.2132 -0.2749
52176SOL     OW74137   1.121   4.136   9.033  0.4567  0.3880 -0.3836
52176SOL    HW174138   1.077   4.072   8.977  2.2795 -0.3702 -1.0058
52176SOL    HW274139   1.164   4.197   8.972  3.0278 -0.8401  0.0895
52177SOL     OW74140  10.312   9.754  10.153  0.8842  0.6430 -0.7691
52177SOL    HW174141  10.366   9.675  10.159 -0.6951 -0.7215 -2.7917
52177SOL    HW274142  10.238   9.736  10.211  1.5643  1.6196  0.4329
52178SOL     OW74143   6.127   2.098   8.327 -0.0480 -0.2859 -0.4113
52178SOL    HW174144   6.082   2.175   8.363  0.0485 -1.1438  1.7040
52178SOL    HW274145   6.073   2.024   8.355  0.9189 -1.1118 -0.6820
52179SOL     OW74146  12.174   5.121   2.071 -0.2455 -0.1140 -0.3267
52179SOL    HW174147  12.117   5.158   2.138 -0.0429 -3.9402  2.2631
52179SOL    HW274148  12.125   5.046   2.037  2.4808 -2.6232  0.9048
52180SOL     OW74149  13.623   0.542   5.319  0.3378 -0.3266  0.3549
52180SOL    HW174150  13.712   0.517   5.295  0.2116 -0.7017  0.2713
52180SOL    HW274151  13.577   0.551   5.236 -0.1181 -1.6916  0.4334
52181SOL     OW74152   2.547   2.484   0.697 -0.7712 -0.3303  0.2548
52181SOL    HW174153   2.501   2.548   0.752 -1.0147 -0.0927 -0.2194
52181SOL    HW274154   2.587   2.423   0.759  0.8454  1.2028  0.7753
52182SOL     OW74155   1.469  12.633  13.794  0.2464  0.1001  0.2040
52182SOL    HW174156   1.447  12.601  13.707  0.1675 -0.3821  0.3979
52182SOL    HW274157   1.537  12.699  13.779 -2.0039  2.4039 -0.4969
52183SOL     OW74158   6.448   1.485   2.711  0.3168  0.2278  0.1772
52183SOL    HW174159   6.362   1.461   2.677  0.7030 -0.2020 -0.5016
52183SOL    HW274160   6.430   1.558   2.770 -0.4755  0.3707 -0.2256
52184SOL     OW74161   0.515   1.562   0.093 -0.2678  0.1625 -0.1088
52184SOL    HW174162   0.449   1.582   0.160 -1.4049 -0.9789 -0.8454
52184SOL    HW274163   0.464   1.537   0.016  1.0306 -1.3772 -0.5209
52185SOL     OW74164   3.143  13.334   7.529 -0.4082 -0.1143 -0.2427
52185SOL    HW174165   3.160  13.265   7.593  1.6716  0.3646 -0.1981
52185SOL    HW274166   3.221  13.390   7.533 -2.0315  2.3030 -0.2198
52186SOL     OW74167   5.394   4.883  10.792 -0.1067 -0.4396 -0.3476
52186SOL    HW174168   5.327   4.890  10.723  0.2709 -0.2677 -0.6968
52186SOL    HW274169   5.473   4.921  10.753 -0.4059  1.6137  0.8809
52187SOL     OW74170   1.891   7.612   6.742  0.4451 -0.0669 -0.2313
52187SOL    HW174171   1.976   7.575   6.721  1.7338  2.3156  0.3614
52187SOL    HW274172   1.838   7.597   6.664  2.4676  1.2560 -1.9675
52188SOL     OW74173   0.643   8.798  13.318  0.0717 -0.5296  0.1266
52188SOL    HW174174   0.689   8.816  13.399  1.9486  3.3278 -1.5302
52188SOL    HW274175   0.712   8.789  13.252 -1.4419 -0.9177 -1.4964
52189SOL     OW74176   7.453   5.822   1.755 -0.7165 -0.3433  0.1800
52189SOL    HW174177   7.507   5.882   1.702 -0.6777 -0.6338 -0.1124
52189SOL    HW274178   7.485   5.833   1.844 -0.8118  0.1883  0.1530
52190SOL     OW74179   4.817  10.186   7.364 -0.4316 -0.1488  0.0814
52190SOL    HW174180   4.735  10.152   7.328 -0.0113 -0.6978 -0.3768
52190SOL    HW274181   4.793  10.271   7.402 -1.1955 -0.2735 -0.1033
52191SOL     OW74182  12.924   4.010   6.539 -0.2950 -0.3509  0.3343
52191SOL    HW174183  12.935   4.101   6.568  0.6869 -0.2657 -0.2354
52191SOL    HW274184  12.966   3.958   6.608  1.4079 -0.1911 -0.5184
52192SOL     OW74185   5.679   0.260   5.830 -0.5460 -0.2874  0.0505
52192SOL    HW174186   5.643   0.346   5.806 -1.4075 -0.3885  0.8831
52192SOL    HW274187   5.677   0.210   5.749  1.2450  0.8817 -0.7671
52193SOL     OW74188   3.902  13.274   3.629  0.0683 -0.1124  0.3168
52193SOL    HW174189   3.963  13.305   3.562  0.0160 -2.2469 -0.8069
52193SOL    HW274190   3.816  13.278   3.586 -0.1697 -0.0505  0.7988
52194SOL     OW74191   0.511   8.938   1.984 -0.2578 -0.3400  0.1002
52194SOL    HW174192   0.606   8.947   1.994 -0.2005  0.3746 -1.0444
52194SOL    HW274193   0.474   8.990   2.056  0.1990  0.3272 -0.1486
52195SOL     OW74194  14.051   2.832   0.682 -0.1002  0.0929  0.4997
52195SOL    HW174195  13.987   2.824   0.753 -2.0502  1.0361 -1.0783
52195SOL    HW274196  14.119   2.890   0.717 -0.1600 -0.7719  2.1414
52196SOL     OW74197   3.591   5.816   0.937  0.1783  0.4857  0.2982
52196SOL    HW174198   3.515   5.841   0.990 -1.5806 -0.5868 -1.5823
52196SOL    HW274199   3.628   5.740   0.982  0.6664  1.4712  1.6378
52197SOL     OW74200   5.784  11.620  12.179 -0.4419  0.1174  0.2326
52197SOL    HW174201   5.778  11.703  12.132 -0.6810  0.1751  0.3639
52197SOL    HW274202   5.861  11.578  12.143 -0.2025  0.4867  0.3055
52198SOL     OW74203   1.656   1.622  10.133 -0.2671 -0.3018  0.1078
52198SOL    HW174204   1.602   1.566  10.077 -0.3616  1.3985 -1.5833
52198SOL    HW274205   1.704   1.678  10.072  3.7543 -1.8871  1.4492
52199SOL     OW74206  10.815  13.071   6.389 -0.2761 -0.1686  0.1122
52199SOL    HW174207  10.821  13.002   6.456 -1.9014 -1.1768 -0.7157
52199SOL    HW274208  10.866  13.037   6.316 -0.5707 -0.2198 -0.0701
52200SOL     OW74209  10.458  14.064   9.682 -0.1722 -0.3173 -0.5592
52200SOL    HW174210  10.485  13.979   9.718  1.2167  0.2228 -0.2614
52200SOL    HW274211  10.540  14.110   9.666 -0.7634 -0.0552 -3.2959
52201SOL     OW74212   6.374  11.171   6.980 -0.0118  0.4271  0.1601
52201SOL    HW174213   6.289  11.126   6.986 -0.5185  1.3945  0.5962
52201SOL    HW274214   6.361  11.251   7.031  1.5210  0.0717  1.1557
52202SOL     OW74215   0.597   6.258  10.746  0.4802  0.9534 -0.0153
52202SOL    HW174216   0.665   6.217  10.693 -0.8601 -0.7717 -0.4861
52202SOL    HW274217   0.547   6.312  10.684 -0.8607 -0.7752 -0.5144
52203SOL     OW74218   1.474   8.852  12.565  0.0228 -0.2043  0.1762
52203SOL    HW174219   1.535   8.844  12.639  2.7954  0.4487 -1.8657
52203SOL    HW274220   1.483   8.769  12.518  0.7228  0.5621 -1.0863
52204SOL     OW74221   2.065   5.321  11.265 -0.0826  0.2164  0.0402
52204SOL    HW174222   2.133   5.263  11.230 -0.0080  0.9132 -0.9935
52204SOL    HW274223   2.101   5.352  11.349  0.4638 -0.1558 -0.0533
52205SOL     OW74224   7.810  10.859   8.459  0.1243 -0.2649  0.0041
52205SOL    HW174225   7.804  10.778   8.409  0.8039  0.2963 -1.0340
52205SOL    HW274226   7.885  10.847   8.517 -0.8732 -1.0514  1.1855
52206SOL     OW74227   0.056  13.258   8.334  0.4172  0.3371 -0.7161
52206SOL    HW174228   0.130  13.214   8.291  1.2172  0.9217  0.0264
52206SOL    HW274229  -0.012  13.259   8.267  1.8415  1.8130 -2.2661
52207SOL     OW74230  13.023   2.602   5.457 -0.5608  0.6912  0.5742
52207SOL    HW174231  13.053   2.538   5.393  0.5311  0.0123  1.7036
52207SOL    HW274232  12.937   2.630   5.426 -0.9667 -1.1510 -0.0777
52208SOL     OW74233   2.755   7.936   4.876  0.1783 -0.5508 -0.2951
52208SOL    HW174234   2.797   7.880   4.811 -0.1299 -1.2621  0.1042
52208SOL    HW274235   2.696   7.877   4.923 -1.2700  0.4241 -0.8379
52209SOL     OW74236   5.858   6.228  11.557  0.0361 -0.0357  0.2018
52209SOL    HW174237   5.913   6.269  11.490 -1.7872  2.4469  0.0667
52209SOL    HW274238   5.921   6.187  11.617  1.8500  0.1075 -1.4840
52210SOL     OW74239   8.178   2.121  13.516  0.0131 -0.2270 -0.2512
52210SOL    HW174240   8.197   2.071  13.437 -0.5060 -0.0774 -0.4760
52210SOL    HW274241   8.105   2.177  13.492 -0.7966 -0.8747  0.6106
52211SOL     OW74242   9.717   6.161  11.029 -1.0230  0.3098 -0.0500
52211SOL    HW174243   9.648   6.102  11.058 -2.6828  1.6144 -1.1492
52211SOL    HW274244   9.784   6.104  10.991 -2.0598 -0.9150 -0.0745
52212SOL     OW74245   8.512  13.949   4.787 -0.7098 -0.4518 -0.1555
52212SOL    HW174246   8.423  13.936   4.755 -0.7005  3.2733 -2.2820
52212SOL    HW274247   8.552  14.007   4.723  2.5231 -0.1195  1.9525
52213SOL     OW74248   8.911   9.734   4.393  0.1531  0.3170 -0.5551
52213SOL    HW174249   8.854   9.745   4.470  0.1577  0.4662 -0.5724
52213SOL    HW274250   8.893   9.811   4.339 -1.4350 -0.7932 -1.7343
52214SOL     OW74251   8.236   9.422   4.664  0.1793  0.2065 -0.2568
52214SOL    HW174252   8.270   9.478   4.594 -0.2863  1.1239  0.2250
52214SOL    HW274253   8.142   9.416   4.646 -0.2822  1.9341  1.2291
52215SOL     OW74254  13.052  10.641  13.490 -0.0596 -0.3373 -0.4667
52215SOL    HW174255  13.054  10.735  13.470 -1.5627 -0.2393 -0.2466
52215SOL    HW274256  13.136  10.624  13.533  0.3093  0.8674 -0.6682
52216SOL     OW74257   8.924   3.202   7.904  0.3987 -1.0987 -0.0968
52216SOL    HW174258   9.010   3.185   7.941  0.1932 -0.6912  0.5985
52216SOL    HW274259   8.916   3.141   7.831  0.3763 -2.7537  1.2286
52217SOL     OW74260  11.085   1.104   8.351 -0.1283 -0.0389 -0.4560
52217SOL    HW174261  11.128   1.186   8.376 -1.0077  0.5249 -0.7409
52217SOL    HW274262  11.156   1.048   8.322  0.4118  0.8973 -0.9930
52218SOL     OW74263  10.866   6.840   2.094  0.5171 -0.2177  0.4526
52218SOL    HW174264  10.855   6.828   2.188  0.9260  1.1830  0.6898
52218SOL    HW274265  10.898   6.754   2.063  2.3537 -0.1336  1.9175
52219SOL     OW74266   6.499  13.311   3.820 -0.2979  0.4489 -0.2377
52219SOL    HW174267   6.581  13.280   3.781  0.3996  0.9995  0.7507
52219SOL    HW274268   6.484  13.396   3.780  1.4199  1.8856  1.9634
52220SOL     OW74269   2.415  12.345   4.369 -0.0404 -0.5444  0.6760
52220SOL    HW174270   2.396  12.287   4.295  0.7888  0.4788 -0.3783
52220SOL    HW274271   2.337  12.400   4.376 -0.0130 -0.4612  0.3712
52221SOL     OW74272   2.281  11.800   0.422  0.2804 -0.6239  0.5822
52221SOL    HW174273   2.325  11.845   0.351  0.9901 -1.3655  0.5304
52221SOL    HW274274   2.340  11.808   0.497 -0.1831 -0.3610  0.9278
52222SOL     OW74275  11.934   6.729   8.246  0.0294  0.0383  0.1527
52222SOL    HW174276  12.005   6.665   8.242 -0.9401 -1.0282 -0.5095
52222SOL    HW274277  11.912   6.734   8.339 -0.0842 -0.8188  0.1768
52223SOL     OW74278  13.271   9.631  10.222  0.1192 -0.1378 -0.0646
52223SOL    HW174279  13.241   9.721  10.208 -0.5431 -0.3066  0.2765
52223SOL    HW274280  13.287   9.597  10.133  0.6457  0.4033 -0.1854
52224SOL     OW74281   3.331   1.454   9.515 -0.3682  0.0130 -0.4566
52224SOL    HW174282   3.264   1.466   9.447 -0.0389  0.3246 -0.7304
52224SOL    HW274283   3.413   1.479   9.472 -0.4525  2.9483  0.8228
52225SOL     OW74284   3.630   2.806   9.228  0.5103 -0.1624 -0.3555
52225SOL    HW174285   3.627   2.772   9.139 -0.8587 -2.3911  0.4648
52225SOL    HW274286   3.699   2.755   9.270 -0.4934 -0.8472  0.4873
52226SOL     OW74287   3.689   6.350  11.720 -0.2265  0.3602 -0.4727
52226SOL    HW174288   3.596   6.334  11.704 -0.1971 -0.0203 -0.2866
52226SOL    HW274289   3.730   6.264  11.708 -0.2614 -0.0775  1.9656
52227SOL     OW74290  12.959   7.663   5.317 -0.0613 -0.5226 -0.0058
52227SOL    HW174291  13.051   7.636   5.317 -0.1712 -0.9096 -0.6161
52227SOL    HW274292  12.917   7.602   5.378 -0.1498 -1.2077 -0.7321
52228SOL     OW74293  10.318   6.232   3.058 -0.3766  0.0159 -0.0845
52228SOL    HW174294  10.370   6.294   3.109 -0.5157  1.0229 -1.1355
52228SOL    HW274295  10.234   6.228   3.104 -1.1601  2.3263 -1.1885
52229SOL     OW74296  13.872   6.279   5.293  0.1186 -0.5170 -1.1364
52229SOL    HW174297  13.780   6.251   5.294  0.2149 -0.8577 -0.1626
52229SOL    HW274298  13.868   6.374   5.289 -0.3659 -0.3701  1.1668
52230SOL     OW74299   4.924   7.235  13.353  0.0469 -0.7986 -0.0437
52230SOL    HW174300   4.914   7.206  13.444 -1.9532 -0.9523 -0.2590
52230SOL    HW274301   4.952   7.327  13.360  0.9963 -1.1326  0.6972
52231SOL     OW74302   9.273  13.563  10.576  0.0748  0.5528  0.6370
52231SOL    HW174303   9.352  13.561  10.630  1.6416  0.0012 -1.5554
52231SOL    HW274304   9.298  13.519  10.495 -2.3233  0.9002 -0.3776
52232SOL     OW74305  12.237   3.606   2.949  0.4992 -0.3644 -0.2855
52232SOL    HW174306  12.233   3.697   2.977 -0.4269  0.3613 -2.5265
52232SOL    HW274307  12.161   3.564   2.991 -1.3390  0.8873 -2.1170
52233SOL     OW74308  11.771   3.724  13.417 -0.7554 -0.4174 -0.0868
52233SOL    HW174309  11.679   3.698  13.410 -0.6544 -0.8694  0.2273
52233SOL    HW274310  11.819   3.652  13.376 -0.5529 -0.0467 -0.5197
52234SOL     OW74311   5.587   8.152   4.880  0.0094  0.1429 -0.1743
52234SOL    HW174312   5.566   8.192   4.964 -3.1536 -1.9623  0.2006
52234SOL    HW274313   5.639   8.074   4.902 -0.8583 -0.4341 -0.1074
52235SOL     OW74314   5.722   5.331   0.822  0.0747  0.0372  0.6301
52235SOL    HW174315   5.666   5.260   0.852 -2.9018  2.9227  2.6411
52235SOL    HW274316   5.673   5.373   0.751  1.4679  0.5016 -0.1121
52236SOL     OW74317  13.987   5.616   9.617 -0.2127  0.6593 -0.0477
52236SOL    HW174318  13.904   5.659   9.596  0.3378  1.7803  0.0311
52236SOL    HW274319  14.048   5.646   9.551 -0.5092 -2.5040 -1.9829
52237SOL     OW74320   3.106   7.436   9.663 -0.2517  0.0629 -0.4514
52237SOL    HW174321   3.014   7.435   9.638 -0.6952  2.5249  0.7529
52237SOL    HW274322   3.113   7.368   9.730 -1.3168  0.1118 -0.2632
52238SOL     OW74323   6.147   8.030  13.197 -0.0809 -0.5287  0.0246
52238SOL    HW174324   6.111   7.971  13.132  0.2898 -0.8086  0.0691
52238SOL    HW274325   6.201   8.092  13.147  1.8206 -1.9416  0.2195
52239SOL     OW74326   1.871   3.317  10.754  0.2100 -0.3580  0.3391
52239SOL    HW174327   1.888   3.280  10.841  0.1551 -0.7009  0.2058
52239SOL    HW274328   1.954   3.310  10.708  0.3221  0.1105  0.4654
52240SOL     OW74329   5.931   1.645   4.263 -0.4348 -0.3491  0.0299
52240SOL    HW174330   5.928   1.693   4.181 -0.1981 -0.5574 -0.1027
52240SOL    HW274331   5.995   1.575   4.248 -0.3204 -0.3334  0.4185
52241SOL     OW74332   5.144   1.232   7.387 -0.0763  0.0550  0.5824
52241SOL    HW174333   5.219   1.223   7.328 -0.9421 -1.0652 -0.4090
52241SOL    HW274334   5.135   1.327   7.399  0.7068  0.2690 -0.3327
52242SOL     OW74335  13.768   0.871   9.301 -0.7043  0.4233  0.2746
52242SOL    HW174336  13.684   0.829   9.284 -1.0807  0.7377  1.2719
52242SOL    HW274337  13.775   0.939   9.233 -1.5943  0.8716  0.6231
52243SOL     OW74338   0.495   9.838   9.096 -0.3036  0.7217 -0.1079
52243SOL    HW174339   0.520   9.882   9.177 -1.1596 -2.1518  1.8544
52243SOL    HW274340   0.401   9.854   9.087  0.0663  2.3992 -1.5143
52244SOL     OW74341   0.522   4.190   1.245 -0.3887 -0.1787  0.2952
52244SOL    HW174342   0.523   4.128   1.318 -1.0776 -0.6710 -0.0954
52244SOL    HW274343   0.580   4.151   1.180  0.5094  0.4381  0.7061
52245SOL     OW74344  13.644  10.705   9.694  0.2827 -0.4029 -0.5103
52245SOL    HW174345  13.567  10.719   9.639 -0.2192  0.8395  0.4631
52245SOL    HW274346  13.718  10.709   9.633 -0.3246 -0.1755 -1.2518
52246SOL     OW74347   9.062   8.970   1.944 -0.2924  0.1444 -0.5493
52246SOL    HW174348   9.020   9.015   2.017  0.8235  0.3997 -0.0480
52246SOL    HW274349   8.999   8.902   1.919 -0.5774 -0.1305  0.8334
52247SOL     OW74350   4.228   8.583   2.558  0.1013  0.8615  0.2544
52247SOL    HW174351   4.273   8.638   2.494  1.8237 -0.6828  0.0646
52247SOL    HW274352   4.185   8.515   2.505  0.7109  0.1547  0.6420
52248SOL     OW74353  11.831   6.503  13.780  0.2376  0.2286  0.3373
52248SOL    HW174354  11.781   6.559  13.720  0.5516  1.8832  1.5278
52248SOL    HW274355  11.869   6.435  13.725  2.2002  2.8164 -1.7385
52249SOL     OW74356  12.630   4.026   1.543 -0.5707  0.6002 -1.2104
52249SOL    HW174357  12.717   3.993   1.565 -0.4316  0.1103 -2.4078
52249SOL    HW274358  12.595   4.058   1.626  0.3747 -0.0579 -0.5316
52250SOL     OW74359   0.363   6.046   3.410  0.3109 -0.1727 -0.6522
52250SOL    HW174360   0.452   6.081   3.407  0.0399  0.7678  0.9684
52250SOL    HW274361   0.307   6.120   3.384 -0.0922 -0.2206  0.0517
52251SOL     OW74362   3.180   6.253  13.608 -0.1558  0.2087  0.2720
52251SOL    HW174363   3.196   6.348  13.608 -0.0822  0.3246  3.7413
52251SOL    HW274364   3.268   6.214  13.602 -0.2571  0.2203 -2.5733
52252SOL     OW74365   9.302  12.348   4.673  0.2376  0.4344 -0.5866
52252SOL    HW174366   9.361  12.422   4.684  1.9192 -0.8826 -0.2191
52252SOL    HW274367   9.298  12.334   4.578 -0.5286  1.3083 -0.6925
52253SOL     OW74368  10.945  12.267  12.856 -0.6990  0.7923 -0.5528
52253SOL    HW174369  10.964  12.341  12.915 -0.5892 -0.1228  0.5956
52253SOL    HW274370  10.851  12.271  12.842 -1.0350 -0.0309  1.1939
52254SOL     OW74371  11.038  11.461   6.856  0.2140 -0.0185  0.0052
52254SOL    HW174372  10.981  11.443   6.781 -0.4537  0.2409  0.4445
52254SOL    HW274373  11.117  11.497   6.817 -0.3805  0.7290 -0.5503
52255SOL     OW74374   7.497   1.915  13.834 -0.4375 -0.2477  0.5539
52255SOL    HW174375   7.464   1.969  13.762  1.2852 -0.4004 -0.3934
52255SOL    HW274376   7.534   1.978  13.896  0.5083 -0.2522  0.0081
52256SOL     OW74377   4.303   7.806  13.973  0.3853  0.3923  0.1112
52256SOL    HW174378   4.249   7.879  13.941 -0.0755  0.7472  1.6015
52256SOL    HW274379   4.366   7.848  14.032  0.6375 -0.3292  0.3633
52257SOL     OW74380   6.956  10.150   1.849  0.0570  0.7647  0.6575
52257SOL    HW174381   6.894  10.079   1.864  0.5241  0.5037  1.3955
52257SOL    HW274382   6.957  10.199   1.932  2.2571 -0.3570  1.3613
52258SOL     OW74383  11.287   8.423   1.959 -0.7061  0.1905  0.0698
52258SOL    HW174384  11.278   8.500   1.902 -0.0369  0.6607  0.5786
52258SOL    HW274385  11.272   8.349   1.901 -1.2711  0.6989 -0.4562
52259SOL     OW74386  12.152   6.457   2.196  0.3515 -0.2526 -0.7387
52259SOL    HW174387  12.201   6.498   2.267  0.2366 -1.4274  0.0355
52259SOL    HW274388  12.205   6.383   2.168  0.1877 -0.0611 -1.5882
52260SOL     OW74389   8.016  11.479   0.935  0.2157 -0.0166  0.3429
52260SOL    HW174390   7.974  11.409   0.984 -1.3502 -0.9775 -2.1528
52260SOL    HW274391   7.945  11.523   0.889  1.2953  2.5133  0.9039
52261SOL     OW74392   2.241   4.325   1.908 -0.1742  0.0625  0.1044
52261SOL    HW174393   2.304   4.383   1.950  1.9786 -2.2616  0.2900
52261SOL    HW274394   2.293   4.269   1.850 -2.3134 -0.7355 -1.1760
52262SOL     OW74395   1.944  13.662   5.645 -0.4472 -0.2523  0.5222
52262SOL    HW174396   1.889  13.665   5.567 -0.0401 -1.0006  0.2059
52262SOL    HW274397   1.894  13.609   5.707 -0.4420 -0.2645  0.5160
52263SOL     OW74398   8.500   3.079   2.544  0.1350  0.6489  0.1596
52263SOL    HW174399   8.515   3.171   2.520 -1.0063  0.6768 -0.5277
52263SOL    HW274400   8.487   3.034   2.460 -1.1724  0.2205  0.5711
52264SOL     OW74401   7.371   4.274   8.158 -0.5929  0.0069  0.1442
52264SOL    HW174402   7.285   4.260   8.117 -0.2733  0.8052 -0.8315
52264SOL    HW274403   7.421   4.324   8.093  1.6434 -2.8985 -0.5928
52265SOL     OW74404   9.743   2.490  11.686 -0.0837 -0.1286  0.2066
52265SOL    HW174405   9.692   2.558  11.731  0.9229  0.4474  0.5174
52265SOL    HW274406   9.752   2.421  11.752 -1.1982 -0.6272 -0.1434
52266SOL     OW74407   4.463  12.500   8.796 -0.3234  0.7030 -0.0106
52266SOL    HW174408   4.536  12.454   8.838  0.8198  0.5360 -2.0975
52266SOL    HW274409   4.397  12.432   8.782  0.7864 -0.0759 -1.7767
52267SOL     OW74410   7.721   8.994   8.526 -0.4803 -0.0331  0.4605
52267SOL    HW174411   7.756   8.987   8.437  2.4953  0.6371  1.4383
52267SOL    HW274412   7.697   8.905   8.550  1.5992 -0.7929 -0.0298
52268SOL     OW74413   8.736   9.960   6.556 -0.5010 -0.2081  0.1110
52268SOL    HW174414   8.756   9.972   6.649 -0.4683  1.0307 -0.0350
52268SOL    HW274415   8.641   9.963   6.551 -0.5623 -1.5199  0.2448
52269SOL     OW74416   8.525   8.853   5.569  0.3850  0.3364 -0.3510
52269SOL    HW174417   8.472   8.924   5.606  0.6440  0.0204  0.6331
52269SOL    HW274418   8.494   8.774   5.614  0.2625 -0.1556 -1.2693
52270SOL     OW74419   7.528   6.273   2.088  0.1000  0.5582 -0.0156
52270SOL    HW174420   7.581   6.238   2.160 -0.0457  0.7620  0.1942
52270SOL    HW274421   7.544   6.367   2.090  0.7925  0.4668 -0.8280
52271SOL     OW74422   6.525  10.587   4.874 -0.3636  0.1367 -0.5796
52271SOL    HW174423   6.510  10.673   4.836 -3.0410 -0.2663 -0.6330
52271SOL    HW274424   6.612  10.561   4.841 -0.1949  2.1193 -1.8554
52272SOL     OW74425   1.682   8.295   6.016 -0.5584 -0.0310 -0.2769
52272SOL    HW174426   1.617   8.249   5.962  0.5270  0.4594 -2.0606
52272SOL    HW274427   1.761   8.241   6.010 -0.3535  0.1335  0.7091
52273SOL     OW74428  10.628  12.933   4.487  0.1390  0.4218  0.3297
52273SOL    HW174429  10.719  12.917   4.513  0.1867  0.9999  0.5286
52273SOL    HW274430  10.632  13.013   4.434 -0.4314  1.2253  1.4536
52274SOL     OW74431  13.171  10.498   5.427  0.2654  0.3068 -0.0070
52274SOL    HW174432  13.237  10.440   5.389 -0.0258 -0.9825  1.3456
52274SOL    HW274433  13.136  10.449   5.502 -1.2384  1.5305  0.1546
52275SOL     OW74434   8.225  13.433   3.284 -0.0540  1.3097 -0.0280
52275SOL    HW174435   8.132  13.448   3.301 -0.6633 -1.3006 -0.5205
52275SOL    HW274436   8.246  13.491   3.211 -1.4416  1.5769 -0.2455
52276SOL     OW74437  11.066   9.618  13.833  0.1767  0.1729  0.5346
52276SOL    HW174438  11.027   9.680  13.771  0.3636  0.0565  0.2998
52276SOL    HW274439  11.005   9.615  13.906  1.2415  2.4178  1.6371
52277SOL     OW74440   1.175   0.364   7.707 -0.3179  0.6087 -0.0930
52277SOL    HW174441   1.238   0.293   7.716 -2.2031 -1.4757 -2.0744
52277SOL    HW274442   1.155   0.390   7.797  0.8205 -1.0137  0.6719
52278SOL     OW74443  10.205   0.080  13.489  0.1595  0.4221  0.1571
52278SOL    HW174444  10.161   0.005  13.530 -1.2824  1.7546  1.1240
52278SOL    HW274445  10.280   0.097  13.546  1.5029 -1.2858 -0.9935
52279SOL     OW74446   2.546  10.130   4.289 -0.3144  0.4592 -0.1386
52279SOL    HW174447   2.620  10.102   4.343  0.1265  0.5806 -0.6732
52279SOL    HW274448   2.470  10.087   4.328  0.0247  0.3882  0.4597
52280SOL     OW74449   0.523   0.432   3.594  0.5655  0.6920 -0.3910
52280SOL    HW174450   0.507   0.415   3.686 -2.1370  0.7997 -0.7565
52280SOL    HW274451   0.619   0.427   3.584  1.0373  1.9034  2.6118
52281SOL     OW74452  13.780   0.621   7.025 -0.0886 -0.1259  0.4493
52281SOL    HW174453  13.803   0.714   7.020 -0.4027  0.0164  1.4895
52281SOL    HW274454  13.857   0.579   7.065 -0.4552 -0.1041  1.1896
52282SOL     OW74455   5.157   1.793  12.649  0.1570 -0.3057 -0.6960
52282SOL    HW174456   5.158   1.771  12.742 -2.1139  1.5799 -0.1208
52282SOL    HW274457   5.103   1.725  12.608  0.6316 -0.7824 -0.5413
52283SOL     OW74458   2.282   4.664   9.839 -1.2676 -0.6322  0.3907
52283SOL    HW174459   2.270   4.707   9.754 -1.5315  0.6807  1.0673
52283SOL    HW274460   2.193   4.648   9.870 -1.1952 -2.3203 -0.1231
52284SOL     OW74461  10.334   8.517   1.873 -0.4180  0.2954  0.1374
52284SOL    HW174462  10.309   8.531   1.781 -0.3425  1.4518  0.2750
52284SOL    HW274463  10.257   8.546   1.923  0.2012  1.3770  0.4871
52285SOL     OW74464   3.830   5.110   1.670  0.4314  0.1572 -0.1014
52285SOL    HW174465   3.897   5.170   1.639 -0.3211  0.5564 -1.0038
52285SOL    HW274466   3.854   5.025   1.631 -0.3172  0.5818 -1.5745
52286SOL     OW74467   4.639   1.555   9.452 -0.3698  0.1624 -0.3893
52286SOL    HW174468   4.650   1.604   9.370 -0.3246 -0.2837 -0.6514
52286SOL    HW274469   4.602   1.471   9.425 -1.7442  0.5553  0.1809
52287SOL     OW74470   4.660  12.037  10.120  0.8309  0.4220 -0.0718
52287SOL    HW174471   4.644  12.025  10.213 -0.3868  1.9457 -0.0554
52287SOL    HW274472   4.595  11.982  10.077  1.1389  0.0224 -0.0338
52288SOL     OW74473   0.511   5.302   6.757  0.0981 -0.2133 -0.5928
52288SOL    HW174474   0.488   5.279   6.667 -1.4364  0.5328 -0.4127
52288SOL    HW274475   0.486   5.225   6.809 -2.0939  0.5578 -0.4060
52289SOL     OW74476  12.897   2.318   7.425  0.2055 -0.0438 -0.3717
52289SOL    HW174477  12.989   2.343   7.429  0.7442 -2.0039  0.6355
52289SOL    HW274478  12.873   2.325   7.333  1.7296 -0.6994 -0.8399
52290SOL     OW74479   7.092   7.715   1.868 -0.1578  0.1100  0.3205
52290SOL    HW174480   7.166   7.658   1.847 -0.1773  0.0093  0.5173
52290SOL    HW274481   7.039   7.717   1.788  1.6222  2.6418 -0.8958
52291SOL     OW74482   8.165   0.100   1.758  0.4207  0.6114 -0.7572
52291SOL    HW174483   8.208   0.040   1.697 -0.3350 -0.2762 -0.4391
52291SOL    HW274484   8.073   0.095   1.736  0.0187 -0.3534  0.9746
52292SOL     OW74485   9.332  14.085   7.997  0.2033 -0.4409  1.0362
52292SOL    HW174486   9.300  14.021   7.933  0.5089  1.8285 -1.5839
52292SOL    HW274487   9.311  14.170   7.959  2.6865  1.0823  2.7433
52293SOL     OW74488  11.905  13.266   6.394  0.3863  0.1185 -0.7171
52293SOL    HW174489  11.838  13.263   6.326  1.0390  1.3587 -1.4377
52293SOL    HW274490  11.859  13.243   6.475 -0.3139 -1.8027 -1.6140
52294SOL     OW74491  13.332   9.690  13.263  0.3638 -0.3154 -0.4732
52294SOL    HW174492  13.258   9.736  13.301  1.0951  0.8193 -0.3938
52294SOL    HW274493  13.373   9.753  13.205  0.4165 -1.3999 -1.6736
52295SOL     OW74494   1.830   8.804  10.240 -0.0377 -0.4057  0.3383
52295SOL    HW174495   1.853   8.818  10.148 -0.2750  2.0936  0.5755
52295SOL    HW274496   1.904   8.754  10.276  1.9009  1.7162 -0.4244
52296SOL     OW74497  11.976  12.741   3.158 -0.7303  0.4221  0.5772
52296SOL    HW174498  11.901  12.793   3.130 -0.2806  0.5038 -0.4907
52296SOL    HW274499  12.041  12.806   3.186  0.2488  0.5438 -1.7775
52297SOL     OW74500   3.641   4.506   8.622  0.1795  0.3844  0.0401
52297SOL    HW174501   3.606   4.595   8.633 -0.1056  0.3415 -0.5093
52297SOL    HW274502   3.636   4.489   8.528  0.8322  0.0244  0.0626
52298SOL     OW74503   0.741  12.021   9.086 -0.6126 -0.1727  0.2850
52298SOL    HW174504   0.762  12.087   9.152  0.6478  0.5666 -0.8265
52298SOL    HW274505   0.799  11.948   9.106  0.8210  0.6211 -0.8518
52299SOL     OW74506   7.625   9.920   9.916 -0.2057  0.3391 -0.0061
52299SOL    HW174507   7.698   9.907   9.977  0.7572  2.1910 -0.6634
52299SOL    HW274508   7.549   9.885   9.961  1.2270 -2.7755  0.2316
52300SOL     OW74509  12.555   4.760   9.091 -0.1365 -0.1128 -0.6568
52300SOL    HW174510  12.620   4.822   9.121 -1.1380  0.6432  0.0173
52300SOL    HW274511  12.550   4.775   8.996 -0.5397  1.0341 -0.4741
52301SOL     OW74512  11.004  12.127   7.844  0.0247  0.3149 -0.0363
52301SOL    HW174513  11.028  12.040   7.875 -0.3661  0.5966  1.0992
52301SOL    HW274514  11.026  12.185   7.917  0.6525  1.2299 -0.9196
52302SOL     OW74515  10.726   4.582  11.827 -0.3619  0.2745 -0.0508
52302SOL    HW174516  10.792   4.590  11.757 -0.0883 -1.3627 -0.0064
52302SOL    HW274517  10.661   4.522  11.792  0.0696 -1.0301  1.2869
52303SOL     OW74518   3.528  11.631   5.581  0.3008  0.2395 -0.0843
52303SOL    HW174519   3.487  11.582   5.510 -2.8600  0.3780  1.5128
52303SOL    HW274520   3.482  11.715   5.583  1.5547  0.9520  1.0273
52304SOL     OW74521  12.432   1.015  13.565 -0.3938  0.5010 -0.2124
52304SOL    HW174522  12.488   1.055  13.498  0.8311 -1.5309 -0.5128
52304SOL    HW274523  12.344   1.018  13.528  0.1073  0.3538 -1.4730
52305SOL     OW74524   3.995  10.469  11.855  0.0477  0.1412 -0.4288
52305SOL    HW174525   3.905  10.483  11.883 -0.3122 -1.7644 -0.4819
52305SOL    HW274526   4.018  10.549  11.807 -1.1389  1.2058  0.6915
52306SOL     OW74527   9.900   2.838   2.309 -0.1775 -0.1967  0.1934
52306SOL    HW174528   9.979   2.892   2.303  0.2707 -0.6431  1.5841
52306SOL    HW274529   9.829   2.896   2.283  0.5320  0.4000 -0.4829
52307SOL     OW74530  12.505  10.136   1.185  0.3134  0.1719 -0.5746
52307SOL    HW174531  12.463  10.060   1.145 -0.3788  0.6162 -0.7093
52307SOL    HW274532  12.442  10.166   1.251  1.0015  0.0558  0.1432
52308SOL     OW74533   2.351  11.646  13.978  0.4599  0.6122  0.0691
52308SOL    HW174534   2.338  11.551  13.985  0.6940  0.6900  2.1223
52308SOL    HW274535   2.439  11.661  14.014  0.5112  1.5967 -0.4251
52309SOL     OW74536   1.512   4.365   1.588  0.3765  0.0697 -0.0053
52309SOL    HW174537   1.458   4.437   1.622 -0.5920 -0.4331 -0.4349
52309SOL    HW274538   1.587   4.409   1.547 -0.5863  0.9028 -0.9350
52310SOL     OW74539   5.246  10.822   2.092 -0.2732 -0.4775 -0.1349
52310SOL    HW174540   5.309  10.878   2.138  0.6089 -2.2229  0.8853
52310SOL    HW274541   5.284  10.810   2.005 -0.4534  0.4343 -0.3551
52311SOL     OW74542   3.241  13.050   1.035  0.1576  0.1941 -0.0217
52311SOL    HW174543   3.323  13.002   1.047 -0.1378 -0.2614  0.1691
52311SOL    HW274544   3.173  12.984   1.043 -0.2762  0.7173  0.6992
52312SOL     OW74545  13.472   0.912  10.270  0.6054  0.5538  0.3084
52312SOL    HW174546  13.429   0.982  10.319  1.3838  0.3737  1.2548
52312SOL    HW274547  13.427   0.832  10.297  1.9150  0.2795  1.7996
52313SOL     OW74548  12.466  13.905   0.626  0.2092  0.4861  0.2864
52313SOL    HW174549  12.436  13.992   0.600  2.2854  1.1419 -0.1517
52313SOL    HW274550  12.435  13.847   0.556  0.5807  1.2417 -0.5312
52314SOL     OW74551  11.208   5.699   0.135 -0.1621 -0.2818  0.5621
52314SOL    HW174552  11.278   5.732   0.191 -0.0762  1.6699 -0.5850
52314SOL    HW274553  11.254   5.666   0.057 -0.3965 -1.0059  0.7291
52315SOL     OW74554   6.961   9.993  12.733 -0.3425 -0.4053 -0.0989
52315SOL    HW174555   6.866   9.999  12.726 -0.3236 -1.6426 -2.9295
52315SOL    HW274556   6.992  10.005  12.644  2.3301  1.5898  0.9872
52316SOL     OW74557  11.794  13.266   4.853 -0.1927 -0.2933  0.2352
52316SOL    HW174558  11.855  13.326   4.808 -0.1907  0.0092  0.6316
52316SOL    HW274559  11.710  13.281   4.810  0.3337 -2.0155 -1.5607
52317SOL     OW74560   6.006   4.343   0.035 -0.2501 -0.0817 -0.3704
52317SOL    HW174561   5.955   4.296   0.101 -0.8279  2.0609  0.8010
52317SOL    HW274562   5.941   4.371  -0.029 -0.7583  2.8864  1.2614
52318SOL     OW74563   2.242  10.933   5.848 -0.7265  0.3664 -0.2541
52318SOL    HW174564   2.286  10.955   5.766  1.8478  0.8110  1.1274
52318SOL    HW274565   2.185  11.008   5.867 -1.8134 -0.0096 -1.8654
52319SOL     OW74566   3.429   5.561   7.837 -0.0809  0.0417  0.1335
52319SOL    HW174567   3.503   5.522   7.884 -0.7728 -1.0921  0.3351
52319SOL    HW274568   3.453   5.553   7.744  1.8073  3.3259  0.1936
52320SOL     OW74569  11.031  13.364   8.802 -0.1739 -0.2770  0.2290
52320SOL    HW174570  11.064  13.275   8.816 -0.1666 -0.5011 -1.0490
52320SOL    HW274571  10.987  13.387   8.884  2.0580 -0.4338  1.5456
52321SOL     OW74572   1.947   9.995   1.159 -0.3062 -0.1035 -0.0520
52321SOL    HW174573   2.022  10.045   1.126 -0.6487 -0.6531 -1.7513
52321SOL    HW274574   1.946  10.013   1.254  3.5434 -2.1234  0.5597
52322SOL     OW74575   8.287   0.522   1.502 -0.1694 -0.1622 -0.3103
52322SOL    HW174576   8.234   0.593   1.466 -2.7866 -1.2442  1.1545
52322SOL    HW274577   8.310   0.550   1.590 -0.0391 -0.5393 -0.2192
52323SOL     OW74578   4.827   4.201  11.016  0.2691 -0.2717 -0.3090
52323SOL    HW174579   4.874   4.281  10.993  0.2545  0.1145  0.9683
52323SOL    HW274580   4.831   4.148  10.936  3.4697 -0.5528 -0.1123
52324SOL     OW74581   3.016   6.856   0.515 -0.4047 -0.3097  0.2755
52324SOL    HW174582   3.062   6.940   0.509  2.1732 -1.6922 -0.7586
52324SOL    HW274583   3.066   6.806   0.579 -1.0998 -1.5255 -0.1060
52325SOL     OW74584   3.837   9.476  12.809  0.1488  0.0972  0.1333
52325SOL    HW174585   3.890   9.528  12.869  0.9279  0.2013 -0.6411
52325SOL    HW274586   3.892   9.463  12.732 -0.6240 -0.5313 -0.3300
52326SOL     OW74587  12.380  10.685  13.006 -0.3847 -0.2979 -0.0158
52326SOL    HW174588  12.304  10.678  13.064 -1.0518  1.6692 -0.5638
52326SOL    HW274589  12.440  10.744  13.051  0.4782 -1.1944  0.0402
52327SOL     OW74590   5.958   0.982   2.221 -0.4532  0.0777 -0.4671
52327SOL    HW174591   5.937   1.002   2.312  0.2071  0.3634 -0.3734
52327SOL    HW274592   5.887   0.923   2.193 -1.4452  1.1107 -0.2154
52328SOL     OW74593   4.543  10.011   2.103 -0.0733 -0.3644 -0.3848
52328SOL    HW174594   4.607   9.947   2.132 -0.8824 -1.1516 -0.3081
52328SOL    HW274595   4.461   9.963   2.097 -0.8600  0.8187  0.3724
52329SOL     OW74596   9.878   6.030   3.318  0.2275 -0.8598 -0.2437
52329SOL    HW174597   9.833   6.114   3.308 -0.9516 -1.5321 -0.8849
52329SOL    HW274598   9.968   6.053   3.341  0.0853  0.5850 -1.0024
52330SOL     OW74599   3.888   1.820   1.206 -0.0300  0.2110 -0.2267
52330SOL    HW174600   3.801   1.786   1.228  0.6887 -2.4732 -1.1135
52330SOL    HW274601   3.938   1.812   1.287 -0.1846  0.2342 -0.1291
52331SOL     OW74602  12.048   6.329  12.436 -0.1612  0.0896 -0.3880
52331SOL    HW174603  12.122   6.278  12.402 -0.7976 -1.5222  0.5638
52331SOL    HW274604  12.041   6.403  12.376  2.3360  0.4093 -0.4192
52332SOL     OW74605   8.922   0.029   3.692 -0.2995  0.3471  0.0738
52332SOL    HW174606   8.977   0.066   3.761 -1.5281  0.6984  0.8809
52332SOL    HW274607   8.869  -0.037   3.736 -1.7002  1.1597 -0.3255
52333SOL     OW74608   3.966   3.168   9.691 -0.5657  0.3747 -0.0686
52333SOL    HW174609   3.916   3.245   9.662 -1.0839  0.2700  0.5172
52333SOL    HW274610   3.907   3.124   9.753  0.6115  0.7721  1.3986
52334SOL     OW74611   0.588   3.228   1.205  0.2705 -0.3373 -0.2649
52334SOL    HW174612   0.547   3.153   1.248  0.0348  0.2398  0.5399
52334SOL    HW274613   0.636   3.191   1.132 -1.4203 -1.0842 -1.0454
52335SOL     OW74614  13.839  13.447   2.847 -0.0634  0.4465 -0.2267
52335SOL    HW174615  13.794  13.409   2.923  0.9612  0.1967  0.2672
52335SOL    HW274616  13.818  13.387   2.775 -0.1091  0.0543  0.1096
52336SOL     OW74617  11.216   5.684   8.684  0.0567 -0.1343  0.6833
52336SOL    HW174618  11.225   5.696   8.589  0.0444 -0.2572  0.6669
52336SOL    HW274619  11.126   5.656   8.696 -0.9008  2.7708  1.0193
52337SOL     OW74620  14.029   5.498   5.093 -0.1381 -0.6255  0.6631
52337SOL    HW174621  14.046   5.591   5.105  0.8689 -0.7723  0.4880
52337SOL    HW274622  13.946   5.495   5.045 -0.6933  0.1377  1.5562
52338SOL     OW74623   1.517   2.815  11.676  0.9586 -0.1594  0.0394
52338SOL    HW174624   1.539   2.902  11.707  0.6192 -0.1325  0.2183
52338SOL    HW274625   1.449   2.830  11.610  1.1314 -0.2680 -0.1656
52339SOL     OW74626  13.953   1.131   9.959  0.3898 -0.1004  0.2880
52339SOL    HW174627  13.880   1.190   9.978 -0.8276 -1.7409  0.9638
52339SOL    HW274628  14.031   1.179   9.986 -0.5177  1.3154  0.4963
52340SOL     OW74629   8.217   1.265  12.139  0.3060 -0.1035  0.1156
52340SOL    HW174630   8.235   1.326  12.210  1.4863 -0.2342 -0.0598
52340SOL    HW274631   8.156   1.313  12.082  2.9491  1.9008 -1.2526
52341SOL     OW74632  10.712   9.628   2.630 -0.2725  0.3579 -0.1916
52341SOL    HW174633  10.635   9.583   2.597  0.2403  0.3832 -1.4787
52341SOL    HW274634  10.718   9.708   2.579  0.8150  0.1692 -0.4027
52342SOL     OW74635   3.732   0.529   6.798  0.2380  0.0887 -0.0793
52342SOL    HW174636   3.744   0.530   6.893  2.1207  0.0205 -0.2848
52342SOL    HW274637   3.800   0.587   6.764  2.4389 -3.0931 -1.6064
52343SOL     OW74638   7.787   3.671  13.253  0.0656  0.6141 -0.2609
52343SOL    HW174639   7.828   3.727  13.187  1.1951  0.6155  0.4130
52343SOL    HW274640   7.856   3.655  13.318 -1.1239  0.9926  1.1710
52344SOL     OW74641   8.389   4.748   2.406 -0.5957 -0.2174  0.0645
52344SOL    HW174642   8.434   4.679   2.455  1.4640  0.1947 -1.1683
52344SOL    HW274643   8.406   4.828   2.455 -0.8331 -0.1930  0.1106
52345SOL     OW74644   3.609   5.693   5.932 -0.4953  0.0890  0.3413
52345SOL    HW174645   3.619   5.726   5.843  0.8533 -0.2154  0.3636
52345SOL    HW274646   3.576   5.767   5.982  1.2811  1.0845  0.1311
52346SOL     OW74647  11.544   3.597   3.264  0.4862  0.1411  0.4925
52346SOL    HW174648  11.560   3.524   3.324 -0.3874  0.2256  0.8578
52346SOL    HW274649  11.605   3.665   3.292  0.5622 -0.0699  0.8466
52347SOL     OW74650  12.331  10.929   5.542  0.0568 -0.2149 -0.1605
52347SOL    HW174651  12.358  10.860   5.481 -0.1341 -0.2039 -0.2569
52347SOL    HW274652  12.349  10.892   5.629  0.8624 -0.0145 -0.2286
52348SOL     OW74653   1.456  12.177   5.698 -0.4516 -0.4628  0.0161
52348SOL    HW174654   1.409  12.247   5.744 -0.6641 -0.2655 -0.5001
52348SOL    HW274655   1.398  12.101   5.704 -0.2501 -0.5843  0.5174
52349SOL     OW74656  13.349   9.680   4.713  0.6628 -0.4058 -0.3583
52349SOL    HW174657  13.295   9.671   4.634  2.8261  0.7793 -2.0660
52349SOL    HW274658  13.358   9.774   4.726  4.4368 -0.4223 -1.7754
52350SOL     OW74659   0.102   2.413  12.243 -0.3901 -0.0774 -0.5291
52350SOL    HW174660   0.109   2.414  12.339 -1.0534  4.2838 -0.3470
52350SOL    HW274661   0.018   2.370  12.226  0.0778 -1.5983  0.7391
52351SOL     OW74662  11.309  12.810   0.747  0.3916  0.2493  0.2410
52351SOL    HW174663  11.222  12.804   0.786  1.3626 -0.2592  2.4733
52351SOL    HW274664  11.360  12.863   0.808  1.4189  1.3942 -1.5268
52352SOL     OW74665   7.393  11.072   1.213 -0.0428  0.2821  0.2595
52352SOL    HW174666   7.328  11.099   1.278 -0.3361 -0.1749  0.1583
52352SOL    HW274667   7.478  11.090   1.254 -0.2264  0.8441  0.4072
52353SOL     OW74668  10.986   9.155   6.068 -0.1505  0.5892 -1.0417
52353SOL    HW174669  10.971   9.229   6.126 -1.9054 -2.3329  2.6344
52353SOL    HW274670  10.913   9.157   6.007 -0.3833  1.6132 -0.7463
52354SOL     OW74671   4.181   7.618   4.936  0.0986 -0.5471  0.3771
52354SOL    HW174672   4.095   7.640   4.974 -0.2347 -1.9363  0.4877
52354SOL    HW274673   4.235   7.694   4.954 -0.8952  0.0328  1.0245
52355SOL     OW74674  11.800   2.492   1.121  0.3097  0.1589  0.3335
52355SOL    HW174675  11.719   2.442   1.133 -0.5383  1.8471  2.0886
52355SOL    HW274676  11.868   2.425   1.115 -0.9636 -1.2520  0.9267
52356SOL     OW74677   0.612  11.667   8.646 -0.3795 -0.1755 -0.1679
52356SOL    HW174678   0.665  11.590   8.669 -1.7951 -0.7442  1.4452
52356SOL    HW274679   0.601  11.660   8.552 -0.9941 -2.3744 -0.0046
52357SOL     OW74680  13.362  11.915   1.755 -0.4442 -0.1212  0.2991
52357SOL    HW174681  13.452  11.947   1.746 -1.0569  1.5719  0.0646
52357SOL    HW274682  13.328  11.960   1.833 -1.2727 -0.3218  0.0628
52358SOL     OW74683   5.109   7.656   2.833 -0.3275 -0.0182  0.0243
52358SOL    HW174684   5.057   7.652   2.913  0.8151 -0.9381  0.7525
52358SOL    HW274685   5.067   7.725   2.781 -3.0339 -1.5246 -0.0086
52359SOL     OW74686  14.038   4.658   5.017  0.1509 -0.5399 -0.4754
52359SOL    HW174687  13.968   4.668   4.953 -1.0789  1.9651  1.1316
52359SOL    HW274688  14.118   4.655   4.963 -1.0268 -2.2424 -2.2693
52360SOL     OW74689   3.322  10.570   5.881 -0.2625  0.0427 -0.1216
52360SOL    HW174690   3.371  10.621   5.946  2.7031  0.0386 -2.1232
52360SOL    HW274691   3.292  10.635   5.817  1.3944 -0.3736 -1.3940
52361SOL     OW74692   4.006   9.982   1.828  0.3948  0.8159 -0.0718
52361SOL    HW174693   3.980   9.981   1.736 -1.9565  1.7319  0.4847
52361SOL    HW274694   3.959   9.909   1.867  2.0977 -0.1343  0.2811
52362SOL     OW74695   6.712   8.217   8.506 -0.5479 -0.7546 -0.4218
52362SOL    HW174696   6.773   8.286   8.480 -1.3946  0.9661  1.8465
52362SOL    HW274697   6.752   8.136   8.473  2.8551  0.2839  0.7179
52363SOL     OW74698   9.145  11.536   3.578  0.1569  0.4219 -0.2927
52363SOL    HW174699   9.103  11.479   3.643 -1.1931  0.6656 -0.9188
52363SOL    HW274700   9.238  11.516   3.586 -0.0469 -0.0608  1.2248
52364SOL     OW74701  10.013   8.952   3.288 -0.8480 -0.8893  0.6698
52364SOL    HW174702   9.981   8.890   3.222  1.0572  0.2643 -1.4720
52364SOL    HW274703   9.998   9.038   3.250  0.4719 -0.1952  1.6345
52365SOL     OW74704   9.087  13.257   6.718 -0.3167 -0.0078  0.0908
52365SOL    HW174705   9.101  13.162   6.715 -0.6105 -0.0355 -0.6001
52365SOL    HW274706   9.153  13.289   6.780  2.1301 -0.2780 -2.1830
52366SOL     OW74707   7.470   0.186   6.830 -0.6324  0.1946  0.2241
52366SOL    HW174708   7.396   0.213   6.777 -1.5965 -3.3038 -0.4850
52366SOL    HW274709   7.438   0.188   6.920 -0.8581  0.7678  0.1318
52367SOL     OW74710   1.143   0.124   3.807  0.5214  0.3526  0.2170
52367SOL    HW174711   1.120   0.114   3.899  0.5884 -0.9344  0.1131
52367SOL    HW274712   1.235   0.149   3.808  1.1483 -1.8099  0.4757
52368SOL     OW74713  12.636  11.947   0.782  1.2667  0.0955  0.2115
52368SOL    HW174714  12.609  11.873   0.836  0.6325  0.6972  0.7222
52368SOL    HW274715  12.675  11.906   0.704 -1.1394 -0.8223 -0.6091
52369SOL     OW74716   3.189  12.003   0.870 -0.0061 -0.1729 -0.1410
52369SOL    HW174717   3.098  11.973   0.877 -0.0988  0.4238  1.7638
52369SOL    HW274718   3.182  12.097   0.853  0.2537 -0.1110  0.0942
52370SOL     OW74719   6.624   2.825   8.286  0.4212 -0.1677  0.7227
52370SOL    HW174720   6.648   2.791   8.200 -1.1805 -1.2732  0.6529
52370SOL    HW274721   6.621   2.748   8.342  0.4918  0.4070  1.5284
52371SOL     OW74722   5.377   3.875   5.450  0.3346 -0.1523  0.0718
52371SOL    HW174723   5.365   3.957   5.403  1.6303 -0.3006 -0.5603
52371SOL    HW274724   5.404   3.900   5.538  0.9552  0.1019 -0.1897
52372SOL     OW74725   0.546  10.284   4.511 -0.3815  0.9565  0.0773
52372SOL    HW174726   0.471  10.343   4.515  1.0622  2.8958  0.5015
52372SOL    HW274727   0.606  10.326   4.449  0.1975 -0.7684 -0.6002
52373SOL     OW74728   8.674   1.113   3.284  0.0503 -0.4097  1.0468
52373SOL    HW174729   8.685   1.203   3.253 -0.2611 -0.8671 -0.5133
52373SOL    HW274730   8.698   1.116   3.376 -1.9597  1.7176  1.6155
52374SOL     OW74731  11.872   3.513   6.631 -0.1048 -0.2082  0.6638
52374SOL    HW174732  11.776   3.516   6.636 -0.1231  0.2744  0.1696
52374SOL    HW274733  11.893   3.420   6.630 -0.6870 -0.3466 -1.1039
52375SOL     OW74734  10.826  11.469   3.368  0.2288  0.4002 -0.2462
52375SOL    HW174735  10.902  11.421   3.402 -0.5920 -0.3616  0.5577
52375SOL    HW274736  10.860  11.555   3.346  1.9861 -0.7750 -2.6257
52376SOL     OW74737   5.118   2.344   5.936 -0.3837 -0.2763  0.0226
52376SOL    HW174738   5.172   2.359   6.014  0.7607 -0.7742 -0.6430
52376SOL    HW274739   5.028   2.339   5.969  0.2084 -2.0886  1.5412
52377SOL     OW74740  11.290  12.322   6.145  0.7084  0.1875  0.0102
52377SOL    HW174741  11.208  12.278   6.122  0.3347  1.4743 -1.2689
52377SOL    HW274742  11.312  12.287   6.231 -0.8518 -0.6478  0.1149
52378SOL     OW74743   7.049   1.025  13.999  0.4718  1.0694  0.0046
52378SOL    HW174744   6.963   1.002  14.032  0.1622  2.2641  0.0830
52378SOL    HW274745   7.093   1.066  14.074  1.2244  0.2233  0.0488
52379SOL     OW74746   5.525   0.550   9.862  0.1711  0.2354  0.3113
52379SOL    HW174747   5.450   0.495   9.840  0.7350 -0.0652 -0.9511
52379SOL    HW274748   5.521   0.622   9.799  0.4004  0.7256  0.8542
52380SOL     OW74749  11.584  11.910   0.175  0.3261 -0.0072  0.2122
52380SOL    HW174750  11.601  11.819   0.153  0.7617 -0.0589  0.7675
52380SOL    HW274751  11.667  11.955   0.160 -0.3961  0.7002 -2.0705
52381SOL     OW74752   2.634  12.750   7.731  0.0019 -0.0793  0.3094
52381SOL    HW174753   2.670  12.663   7.717 -1.3338 -0.9973  2.0942
52381SOL    HW274754   2.544  12.745   7.698  0.4590  1.2133 -1.2372
52382SOL     OW74755  13.251   4.770   0.172  0.0282  0.0470  0.1949
52382SOL    HW174756  13.278   4.731   0.255  1.1563  1.0314  0.3057
52382SOL    HW274757  13.321   4.747   0.111 -0.2296  0.3126 -0.2066
52383SOL     OW74758   2.393   3.175   9.255 -0.3908  0.5416  0.0831
52383SOL    HW174759   2.356   3.141   9.174 -0.8559  1.3884 -0.0767
52383SOL    HW274760   2.344   3.256   9.271 -0.5077  0.2296  1.3640
52384SOL     OW74761   1.873   3.612  10.781  0.5250 -0.5736 -0.4136
52384SOL    HW174762   1.881   3.524  10.818 -0.0302 -0.0599  1.0488
52384SOL    HW274763   1.802   3.604  10.717 -1.2581 -0.7420  1.4456
52385SOL     OW74764  10.953   3.924   0.583  0.2912 -0.0002 -0.2339
52385SOL    HW174765  11.019   3.972   0.533 -0.0423  1.3717  0.6001
52385SOL    HW274766  10.938   3.845   0.532  2.2593 -0.1508 -0.6848
52386SOL     OW74767   1.501   2.613  10.727 -0.1570  0.2500 -0.0050
52386SOL    HW174768   1.437   2.679  10.753 -0.7892  0.4885 -2.0061
52386SOL    HW274769   1.574   2.663  10.690  1.4099  0.0003  2.4958
52387SOL     OW74770   6.196   8.649   1.447 -0.6640  0.4576 -0.7536
52387SOL    HW174771   6.136   8.707   1.400 -2.1209 -0.7856 -0.5158
52387SOL    HW274772   6.277   8.654   1.397 -1.5186  0.8089 -2.1831
52388SOL     OW74773   3.735   8.528   3.819  0.1851  0.2838  0.2096
52388SOL    HW174774   3.735   8.623   3.807  1.6732  0.2726 -0.0893
52388SOL    HW274775   3.750   8.516   3.913 -1.1402  0.3289  0.4454
52389SOL     OW74776  10.638   4.379   2.272 -0.3253  0.1161  0.1866
52389SOL    HW174777  10.727   4.346   2.271 -0.9634 -1.7161 -0.1913
52389SOL    HW274778  10.595   4.332   2.344 -0.9180  1.1992  0.5689
52390SOL     OW74779  12.530   5.317   6.709  0.3002 -0.2168  0.0406
52390SOL    HW174780  12.566   5.371   6.638  0.0629 -1.4370 -1.0376
52390SOL    HW274781  12.479   5.249   6.664 -0.7601 -0.3864  1.4232
52391SOL     OW74782   6.398   6.090   2.993 -0.8148  0.3443  0.2590
52391SOL    HW174783   6.327   6.026   2.994 -0.6796  0.1904  0.5421
52391SOL    HW274784   6.472   6.043   3.034 -1.0995  1.1163  1.7259
52392SOL     OW74785  14.034   7.276   2.480 -0.6069  0.7414  0.5274
52392SOL    HW174786  13.947   7.250   2.450 -0.2704 -0.1516  0.3005
52392SOL    HW274787  14.032   7.372   2.480 -1.0940  0.7516 -0.9532
52393SOL     OW74788   8.146  13.084   3.689 -0.3058 -0.8811  0.4150
52393SOL    HW174789   8.073  13.101   3.749  0.1323 -1.4558  1.1249
52393SOL    HW274790   8.222  13.124   3.731 -0.5912  1.9512 -1.4942
52394SOL     OW74791   4.171   5.338   4.925 -0.1316 -0.1731 -0.0295
52394SOL    HW174792   4.175   5.312   4.833  0.0320 -0.9106  0.1740
52394SOL    HW274793   4.077   5.341   4.945 -0.2001  1.0275 -0.4942
52395SOL     OW74794   0.414   8.909   2.839  0.3685  0.4436 -0.3600
52395SOL    HW174795   0.391   8.996   2.806  1.8552  1.2009  0.5268
52395SOL    HW274796   0.465   8.869   2.769 -0.5587  0.1513 -0.8848
52396SOL     OW74797   2.778   9.474   3.477  0.7058 -0.1786 -0.7416
52396SOL    HW174798   2.807   9.551   3.526  0.5149 -0.1814 -0.6241
52396SOL    HW274799   2.840   9.467   3.404  1.6232 -0.7615  0.0679
52397SOL     OW74800  12.183  10.590   6.351  0.7497  0.0802 -0.0948
52397SOL    HW174801  12.246  10.653   6.385  2.6313 -0.4768 -2.3279
52397SOL    HW274802  12.204  10.508   6.395  1.2850  0.0060 -0.4874
52398SOL     OW74803   3.107   8.895   1.046 -0.6095  0.1051 -0.3404
52398SOL    HW174804   3.152   8.980   1.047 -0.7946  0.2299 -1.5384
52398SOL    HW274805   3.017   8.916   1.022 -0.7521 -0.3928 -0.2365
52399SOL     OW74806   6.610  11.667  12.038  0.1315  0.2203 -0.3456
52399SOL    HW174807   6.642  11.623  11.960 -2.1257 -1.0458 -0.6284
52399SOL    HW274808   6.595  11.757  12.010 -2.6311 -0.6712 -2.0700
52400SOL     OW74809   7.709   0.305   2.896  0.0604 -0.2748 -0.2428
52400SOL    HW174810   7.682   0.378   2.840  1.7480  1.3820  0.9785
52400SOL    HW274811   7.648   0.309   2.971 -1.0577 -1.3721 -1.0527
52401SOL     OW74812  13.368   2.539  11.391  0.3401 -0.0920  0.1091
52401SOL    HW174813  13.290   2.593  11.377 -1.1566 -1.8714  1.1938
52401SOL    HW274814  13.435   2.579  11.336 -1.0875  1.9945 -0.2189
52402SOL     OW74815  14.030   1.831  11.632  0.1817 -0.2946 -0.2801
52402SOL    HW174816  14.023   1.926  11.634 -0.0333 -0.3211  1.5149
52402SOL    HW274817  14.089   1.809  11.703 -1.3372 -1.5912  0.6582
52403SOL     OW74818   7.782   9.133   1.379 -0.4599  0.2526  0.0905
52403SOL    HW174819   7.799   9.103   1.290  2.5546  0.0801  0.6019
52403SOL    HW274820   7.735   9.060   1.421  0.0924 -0.6165 -0.7568
52404SOL     OW74821   4.383  10.799   5.692  0.4075 -0.3107 -0.0240
52404SOL    HW174822   4.325  10.856   5.641  0.3394  0.8899  1.3200
52404SOL    HW274823   4.466  10.846   5.693  0.5675 -0.6029  0.4565
52405SOL     OW74824   5.860  10.171   5.222 -0.2504  0.1615 -0.2283
52405SOL    HW174825   5.886  10.133   5.138 -1.2850 -2.6972  0.6162
52405SOL    HW274826   5.767  10.188   5.212 -0.0891  1.1553 -0.0990
52406SOL     OW74827   7.842   6.693   1.181 -0.6663  0.1910  0.3840
52406SOL    HW174828   7.892   6.746   1.119 -1.1485 -0.4401 -0.5698
52406SOL    HW274829   7.874   6.603   1.167  0.8873  0.2955  2.6986
52407SOL     OW74830   9.642  13.642   0.115 -0.1522  0.7453 -0.2479
52407SOL    HW174831   9.592  13.724   0.120 -0.2136  0.7753 -1.3092
52407SOL    HW274832   9.637  13.607   0.204 -2.3053  0.6081 -0.3706
52408SOL     OW74833   4.142   7.020  12.055  0.2189  0.7023 -0.3366
52408SOL    HW174834   4.146   6.987  12.145 -1.8507  0.1923 -0.3707
52408SOL    HW274835   4.165   7.112  12.062  1.6157  0.3220  0.4573
52409SOL     OW74836  11.954  10.348  10.983  0.4705  0.1194 -0.1053
52409SOL    HW174837  11.985  10.317  10.898 -0.9711  1.0775 -1.0189
52409SOL    HW274838  11.859  10.337  10.980  0.3773  0.3455  1.3066
52410SOL     OW74839   0.518   5.072   6.489 -0.1291  0.4657 -0.0497
52410SOL    HW174840   0.468   5.153   6.502  1.7339  1.5681  0.6858
52410SOL    HW274841   0.555   5.081   6.401  2.0382  1.6325  0.9024
52411SOL     OW74842   5.365  11.247   4.713 -0.3859  0.1552  0.0417
52411SOL    HW174843   5.421  11.288   4.779 -0.0292 -0.2281 -0.0164
52411SOL    HW274844   5.277  11.254   4.748 -0.3602  1.1300 -0.0446
52412SOL     OW74845   6.677   7.324  12.632 -0.0474  0.3532  0.1908
52412SOL    HW174846   6.715   7.384  12.698 -1.5729  1.1442  0.3823
52412SOL    HW274847   6.588   7.308  12.663 -0.6290  0.3326 -1.4299
52413SOL     OW74848   1.494   1.632   2.055 -0.1788 -0.3400  0.6791
52413SOL    HW174849   1.490   1.536   2.053 -0.1680 -0.3319  0.1832
52413SOL    HW274850   1.506   1.657   1.964  0.9748  0.0914  0.9414
52414SOL     OW74851   5.364   2.566   9.855 -0.1186 -0.2087 -0.1694
52414SOL    HW174852   5.453   2.566   9.890 -0.3706  0.2621  0.5089
52414SOL    HW274853   5.309   2.543   9.930 -0.7929  2.1422  0.1471
52415SOL     OW74854  12.436  13.043   0.699 -0.3854  0.3198  0.2346
52415SOL    HW174855  12.362  12.985   0.682 -1.5315  1.9723 -0.7176
52415SOL    HW274856  12.506  12.984   0.728 -1.9544 -1.3395  0.9123
52416SOL     OW74857  10.464   7.608   4.864  0.1740 -0.1233  0.0445
52416SOL    HW174858  10.503   7.673   4.805 -1.1776  1.3385  0.6951
52416SOL    HW274859  10.470   7.526   4.815 -0.4342  0.9417 -1.9506
52417SOL     OW74860  13.563   1.164   6.119  0.2086 -0.5349  0.2593
52417SOL    HW174861  13.473   1.186   6.097  0.2644 -0.0427  0.5106
52417SOL    HW274862  13.578   1.080   6.077 -1.1363 -1.7954  2.0982
52418SOL     OW74863  10.325  11.778  11.262  0.3757 -0.3302 -0.2818
52418SOL    HW174864  10.314  11.817  11.349  1.4486 -0.1107 -0.2336
52418SOL    HW274865  10.372  11.845  11.212  0.2879 -0.6954 -0.8609
52419SOL     OW74866  13.525  13.082   8.271 -0.0606  0.0172 -0.3909
52419SOL    HW174867  13.573  13.015   8.320 -1.6951 -0.4955  0.6012
52419SOL    HW274868  13.513  13.154   8.333  1.1216  0.9893 -1.2517
52420SOL     OW74869   8.327   3.100   7.719 -0.2449 -0.2457  0.2577
52420SOL    HW174870   8.302   3.189   7.745 -0.3988  0.0317 -0.7818
52420SOL    HW274871   8.373   3.065   7.795  1.3484  1.3405  0.0952
52421SOL     OW74872   6.118   4.281   5.088 -0.3187 -0.2969 -0.2115
52421SOL    HW174873   6.072   4.292   5.005 -1.0345  0.0428  0.2142
52421SOL    HW274874   6.124   4.370   5.124 -0.5356 -0.5093  0.3667
52422SOL     OW74875   2.614  10.199   0.738 -0.3493  0.6122 -0.3353
52422SOL    HW174876   2.631  10.204   0.833  2.6110  1.2834 -0.7955
52422SOL    HW274877   2.555  10.272   0.721 -0.6210  0.7246  0.9239
52423SOL     OW74878   3.186   0.430  13.502 -0.0769  0.5613  0.3177
52423SOL    HW174879   3.255   0.421  13.568  0.2994  1.2396  0.0232
52423SOL    HW274880   3.207   0.510  13.455 -0.3629  0.1100 -0.6113
52424SOL     OW74881   4.356   8.137  12.486 -0.4362  0.0005  0.4179
52424SOL    HW174882   4.383   8.229  12.484  0.5129 -0.2868 -0.8900
52424SOL    HW274883   4.412   8.094  12.422 -2.2548 -1.1230 -0.5009
52425SOL     OW74884   4.864  12.741  13.131  0.3596 -0.6372 -0.1500
52425SOL    HW174885   4.772  12.713  13.130  0.4192 -1.0237  1.5517
52425SOL    HW274886   4.883  12.756  13.224  1.2826  1.9276 -0.6601
52426SOL     OW74887  12.749   2.753   4.476 -0.2817 -0.2073  0.5019
52426SOL    HW174888  12.777   2.682   4.533  0.5189 -0.2376  0.0903
52426SOL    HW274889  12.653   2.745   4.472 -0.2653 -0.7407  1.1238
52427SOL     OW74890  10.605   4.957  13.931  1.0067  0.3428  0.5469
52427SOL    HW174891  10.656   4.944  13.851 -0.4376 -0.7709 -0.2594
52427SOL    HW274892  10.655   4.913  13.999  2.5130  1.7438  0.3872
52428SOL     OW74893  11.877   5.166  10.089  0.3038 -0.3061 -0.3223
52428SOL    HW174894  11.881   5.077  10.123 -1.2867  0.0470  0.8826
52428SOL    HW274895  11.899   5.158   9.996 -0.3423 -2.0192 -0.3428
52429SOL     OW74896   3.564   7.798  11.070 -0.4560  0.5730  0.3143
52429SOL    HW174897   3.631   7.863  11.090 -0.2553  0.7260 -0.7891
52429SOL    HW274898   3.489   7.823  11.123 -0.6036  2.0899 -0.5561
52430SOL     OW74899  13.655   2.620   2.136  0.2216  0.0837  0.4103
52430SOL    HW174900  13.679   2.528   2.125 -0.8414 -0.1002 -0.6379
52430SOL    HW274901  13.602   2.621   2.216 -2.9448 -0.9608 -1.4747
52431SOL     OW74902  13.838  11.347   6.470  0.2136 -0.4086 -0.1452
52431SOL    HW174903  13.910  11.390   6.423  0.6883 -1.5776 -0.5304
52431SOL    HW274904  13.863  11.255   6.471 -0.5937 -0.6315  0.9849
52432SOL     OW74905   0.375   8.791   2.314  0.2110  0.4013 -0.0670
52432SOL    HW174906   0.354   8.709   2.358  0.4381  0.2501 -0.2415
52432SOL    HW274907   0.342   8.780   2.225  0.0532  0.5801 -0.0330
52433SOL     OW74908   5.662   6.233  13.393  0.5909 -0.0738  0.6153
52433SOL    HW174909   5.642   6.299  13.326  2.4785  1.3774  1.3851
52433SOL    HW274910   5.725   6.175  13.351  0.2422 -0.3744  0.5013
52434SOL     OW74911   8.899   2.955   7.740 -0.8296  0.1073 -0.1365
52434SOL    HW174912   8.825   2.894   7.743  0.0679 -0.9626  1.4245
52434SOL    HW274913   8.977   2.900   7.742  0.0156  1.2568  1.1609
52435SOL     OW74914   2.047   3.812   4.063 -0.2140 -0.3089 -0.1980
52435SOL    HW174915   2.103   3.736   4.049  0.5021  0.2811 -0.5936
52435SOL    HW274916   2.081   3.878   4.003  0.6641  1.1101  1.7467
52436SOL     OW74917   0.341   3.845   6.568  0.4437 -0.1877 -0.2868
52436SOL    HW174918   0.254   3.808   6.583 -0.6447  1.9050 -1.0520
52436SOL    HW274919   0.353   3.842   6.473  2.2142 -2.4561 -0.0888
52437SOL     OW74920  11.151  10.477  10.042  0.5179  0.1938 -0.0211
52437SOL    HW174921  11.057  10.480  10.025  0.5840  0.9348 -0.2945
52437SOL    HW274922  11.187  10.551   9.993  1.0716  0.7105  1.1230
52438SOL     OW74923  13.376   4.056   7.493  0.1539 -0.0597  0.6880
52438SOL    HW174924  13.287   4.073   7.461  0.6974 -0.7598 -1.3054
52438SOL    HW274925  13.368   4.065   7.588 -1.7912  1.0408  0.4884
52439SOL     OW74926   8.588   2.197   2.992  0.6600  0.0878 -0.0317
52439SOL    HW174927   8.514   2.138   3.003  1.7932 -1.2575  0.8174
52439SOL    HW274928   8.628   2.171   2.909  0.6028  0.3221 -0.1343
52440SOL     OW74929  12.980   5.741   9.205 -1.0342  0.3638  0.2453
52440SOL    HW174930  13.003   5.834   9.203 -0.1976  0.1902 -2.3514
52440SOL    HW274931  13.055   5.697   9.165 -2.4019 -1.1339 -0.8048
52441SOL     OW74932  13.310   7.294   0.676  0.0011  0.0039  0.1449
52441SOL    HW174933  13.251   7.360   0.640 -0.4816 -0.1791  0.5753
52441SOL    HW274934  13.254   7.241   0.733  0.4554 -0.5538  0.0851
52442SOL     OW74935  10.562   5.618   6.785 -0.6562 -0.2932 -0.0593
52442SOL    HW174936  10.476   5.649   6.813 -0.1459  0.0976  1.1363
52442SOL    HW274937  10.610   5.697   6.760 -0.0473 -0.3178  1.0034
52443SOL     OW74938   9.538  13.069   8.961  0.2176 -0.1834  0.1023
52443SOL    HW174939   9.554  13.161   8.985 -2.2716 -0.2293  2.5213
52443SOL    HW274940   9.586  13.056   8.880  3.6131  2.2195  1.4932
52444SOL     OW74941   5.654  14.047  13.211  0.0140  0.3204  0.0472
52444SOL    HW174942   5.725  14.093  13.165  0.0153  1.3408  1.0280
52444SOL    HW274943   5.608  14.116  13.259 -2.2901 -0.1542 -1.3396
52445SOL     OW74944   6.921   4.716  11.362 -0.2064 -0.2158 -0.2574
52445SOL    HW174945   6.990   4.671  11.411 -0.3701 -0.2441 -0.0534
52445SOL    HW274946   6.841   4.699  11.411 -0.6175 -1.4499 -1.2991
52446SOL     OW74947  13.597   1.717   8.615 -0.0524 -0.5981  0.1549
52446SOL    HW174948  13.530   1.678   8.559 -0.1045 -1.2932  0.7026
52446SOL    HW274949  13.651   1.644   8.643 -1.0459 -0.5408  2.4294
52447SOL     OW74950  12.273   4.651   2.830 -0.6029 -0.3927 -0.5076
52447SOL    HW174951  12.312   4.572   2.792 -1.3665 -0.1782 -1.8217
52447SOL    HW274952  12.190   4.620   2.868 -0.0020 -0.5450  0.7115
52448SOL     OW74953  12.382   1.928   5.301  0.1674 -0.2317  0.2910
52448SOL    HW174954  12.301   1.904   5.256 -0.0300 -0.0554  0.5550
52448SOL    HW274955  12.363   1.917   5.394 -0.1168  1.4909  0.4734
52449SOL     OW74956   6.775   1.407   0.883 -0.6476 -0.3254  0.0727
52449SOL    HW174957   6.710   1.431   0.949 -1.4558 -1.4069 -0.3012
52449SOL    HW274958   6.780   1.483   0.825 -1.2699 -0.0657  0.3504
52450SOL     OW74959  11.014   0.900  11.715 -0.4363  0.2484 -0.1802
52450SOL    HW174960  10.971   0.975  11.757  0.5996  1.4542 -1.1691
52450SOL    HW274961  11.104   0.903  11.748 -0.9008 -1.9412  1.4897
52451SOL     OW74962   1.096  13.605   0.786 -0.6185  0.5094 -0.0780
52451SOL    HW174963   1.018  13.551   0.779  0.5247 -1.1979 -0.2995
52451SOL    HW274964   1.082  13.676   0.723 -0.8062 -1.3660 -2.2923
52452SOL     OW74965  10.811  13.556  13.278  0.4552  0.3790  0.1887
52452SOL    HW174966  10.727  13.544  13.235  0.7475 -0.3584 -0.2041
52452SOL    HW274967  10.822  13.477  13.332  1.0207  0.3185 -0.0028
52453SOL     OW74968   2.962   3.643  12.535 -0.3935 -0.5412 -0.7627
52453SOL    HW174969   2.987   3.622  12.625  1.5808 -0.8558 -1.3338
52453SOL    HW274970   2.866   3.640  12.535 -0.4392 -0.4088  1.3385
52454SOL     OW74971   1.084   8.705   0.275  0.3144  0.2754  0.1812
52454SOL    HW174972   1.094   8.787   0.323 -1.0908  0.6157 -0.0632
52454SOL    HW274973   1.066   8.731   0.185 -1.8200 -0.2008  0.4045
52455SOL     OW74974   8.808  13.687   3.534 -0.3812  0.0663  0.1100
52455SOL    HW174975   8.715  13.677   3.552 -1.1383  2.6488 -1.7600
52455SOL    HW274976   8.849  13.699   3.619 -1.7376 -1.0483  0.9524
52456SOL     OW74977   6.604   2.143  11.130 -0.1521  0.4058  0.1884
52456SOL    HW174978   6.533   2.201  11.158 -0.4239  0.9340 -1.4926
52456SOL    HW274979   6.560   2.071  11.087  0.3074  0.4417 -0.3530
52457SOL     OW74980   3.046   8.608   1.632 -0.7310 -0.7448 -0.4318
52457SOL    HW174981   3.121   8.641   1.582 -1.1381 -0.3601 -0.7897
52457SOL    HW274982   3.086   8.558   1.703 -0.1567 -1.6395 -1.3639
52458SOL     OW74983  11.023   7.295   8.830  0.2244  0.4472  0.0024
52458SOL    HW174984  11.047   7.263   8.917 -1.7136  0.9497  0.7623
52458SOL    HW274985  10.943   7.248   8.807  1.7824 -1.2779 -2.5211
52459SOL     OW74986  11.512   4.008   6.326  0.6449  0.2578 -0.1350
52459SOL    HW174987  11.587   4.068   6.329  0.8674 -0.0515  0.6277
52459SOL    HW274988  11.548   3.924   6.353  0.1875 -0.0776 -0.5592
52460SOL     OW74989   2.216   8.088   9.858  0.3016  0.1825  0.1172
52460SOL    HW174990   2.311   8.092   9.861  0.2953  2.5248 -0.9524
52460SOL    HW274991   2.186   8.171   9.894 -1.2996  0.0248 -0.7322
52461SOL     OW74992   9.009   4.145  11.627 -0.5053  0.4185 -0.5990
52461SOL    HW174993   9.033   4.237  11.620  0.0041  0.2582 -1.0225
52461SOL    HW274994   9.092   4.098  11.630 -0.7620 -0.0136 -0.1644
52462SOL     OW74995   3.326   1.326   3.533 -0.0732 -0.1607 -0.2066
52462SOL    HW174996   3.393   1.387   3.506 -0.8389 -0.5795 -3.4161
52462SOL    HW274997   3.244   1.364   3.501 -0.8240 -1.7994 -0.3352
52463SOL     OW74998   2.848   2.732   0.222 -0.1085  0.3316 -0.4446
52463SOL    HW174999   2.841   2.639   0.244  0.5606  0.4965  0.5396
52463SOL    HW275000   2.886   2.734   0.134 -1.3006 -0.3339 -1.0007
52464SOL     OW75001  11.071   2.546   5.462 -0.2230  0.2130 -0.2607
52464SOL    HW175002  10.979   2.561   5.438 -0.5815 -0.9379  0.3460
52464SOL    HW275003  11.085   2.453   5.446  1.1987  0.6098 -1.4853
52465SOL     OW75004   2.315   7.116   5.063  0.5043  0.2923  0.1335
52465SOL    HW175005   2.219   7.120   5.062  0.4494  0.3168  2.1522
52465SOL    HW275006   2.336   7.033   5.019 -0.2707  1.4633 -2.6792
52466SOL     OW75007   2.492   6.458   3.856  0.2862  0.2356  0.0987
52466SOL    HW175008   2.496   6.369   3.822 -0.0696  0.2434  0.0374
52466SOL    HW275009   2.426   6.501   3.802  1.4599  0.9413 -0.8270
52467SOL     OW75010  10.961  10.615  13.886  0.1190 -0.4304  0.1166
52467SOL    HW175011  10.911  10.537  13.858 -1.3857  0.1580  1.0252
52467SOL    HW275012  10.913  10.647  13.962  0.5177  1.5955 -0.4461
52468SOL     OW75013   4.185   5.128   5.919  0.1206  0.1960 -0.2951
52468SOL    HW175014   4.279   5.115   5.936  0.5806  2.7020 -0.5149
52468SOL    HW275015   4.182   5.160   5.829 -0.8909  0.7634 -0.0621
52469SOL     OW75016   2.201   7.767   1.371 -0.1338 -0.6121 -1.3057
52469SOL    HW175017   2.273   7.822   1.402 -0.8663  0.3237 -1.2164
52469SOL    HW275018   2.128   7.789   1.429 -0.8346 -0.6538 -2.1558
52470SOL     OW75019   6.784  13.747   4.993  0.4800 -0.1097  0.5730
52470SOL    HW175020   6.728  13.783   5.062 -0.4710 -1.9290  0.8119
52470SOL    HW275021   6.813  13.823   4.944 -1.0975  1.0192  1.2897
52471SOL     OW75022   2.822   9.191  12.739 -0.2829  0.2037  0.7790
52471SOL    HW175023   2.828   9.260  12.672  0.5458  0.5570  1.2096
52471SOL    HW275024   2.730   9.163  12.735 -0.7620  1.6312  0.8772
52472SOL     OW75025   0.861   9.953   8.890  0.0226 -0.1185  0.2988
52472SOL    HW175026   0.887   9.861   8.901  0.2186 -0.2576 -1.1706
52472SOL    HW275027   0.775   9.949   8.849  0.3923  0.3493 -0.5427
52473SOL     OW75028  11.418  10.707   0.075  0.6062  0.1486  0.3328
52473SOL    HW175029  11.373  10.780   0.120 -0.9604  1.0770 -2.5057
52473SOL    HW275030  11.455  10.746  -0.003  3.2969 -1.4049  0.7326
52474SOL     OW75031   8.463  11.986  11.143 -0.0648 -0.5978 -0.1603
52474SOL    HW175032   8.556  11.989  11.121  0.0254  1.0167  0.3252
52474SOL    HW275033   8.457  12.031  11.227 -1.2609 -0.8677 -0.0885
52475SOL     OW75034   6.961   8.432   0.796 -0.5330  0.3454 -0.5198
52475SOL    HW175035   6.940   8.515   0.839 -2.7046  0.0293 -0.8428
52475SOL    HW275036   6.876   8.393   0.778  0.4394 -1.7974 -0.7166
52476SOL     OW75037  13.781   0.934   6.593 -0.5748  0.1082  0.2102
52476SOL    HW175038  13.706   0.921   6.651 -0.0847  2.9766  1.6527
52476SOL    HW275039  13.857   0.911   6.646 -0.2684 -0.2485 -0.3657
52477SOL     OW75040   7.807   2.777   9.093 -0.0929  0.0144 -0.2432
52477SOL    HW175041   7.865   2.844   9.129 -0.2700  0.3901 -0.6495
52477SOL    HW275042   7.723   2.790   9.137 -0.0247 -0.1790 -0.0548
52478SOL     OW75043   4.883  12.562   9.065  0.5065  0.7031  0.3709
52478SOL    HW175044   4.896  12.474   9.101  4.1007  1.1371  0.4978
52478SOL    HW275045   4.847  12.547   8.978 -1.0426 -0.7292  1.2014
52479SOL     OW75046  12.002   1.696  12.797  0.1670 -0.0694  0.0800
52479SOL    HW175047  11.988   1.683  12.891  1.1923 -0.2043  0.2320
52479SOL    HW275048  12.095   1.677  12.784  0.6377  2.2555 -0.5281
52480SOL     OW75049   9.927   3.507   0.876  0.5203 -0.1983  0.5587
52480SOL    HW175050   9.910   3.483   0.785  0.5068 -1.3213  0.8434
52480SOL    HW275051   9.942   3.423   0.921  0.2738  0.3127  1.6362
52481SOL     OW75052   1.041   4.688   7.765  0.0637  0.2362 -0.8689
52481SOL    HW175053   1.043   4.720   7.675  0.7797  0.5273 -0.7655
52481SOL    HW275054   1.004   4.761   7.816  0.2869  0.3308 -0.8394
52482SOL     OW75055   7.240  13.882   0.828 -0.1001 -0.3531 -0.9093
52482SOL    HW175056   7.214  13.900   0.918  3.0939  0.7168 -0.0775
52482SOL    HW275057   7.213  13.791   0.813 -1.4241 -0.2842  0.8068
52483SOL     OW75058   1.129   6.220   4.067 -0.1637 -0.2304 -0.0727
52483SOL    HW175059   1.118   6.290   4.002 -0.8818  0.4738  0.7851
52483SOL    HW275060   1.201   6.249   4.122  1.5735 -1.6002 -1.4945
52484SOL     OW75061   6.593  11.925   6.165 -0.6584  0.2716 -0.0586
52484SOL    HW175062   6.674  11.958   6.127 -1.0818 -0.7507 -1.9900
52484SOL    HW275063   6.622  11.860   6.230  0.1278 -1.0575 -1.6484
52485SOL     OW75064   4.147   1.267   3.013 -0.0077 -0.2534  0.6572
52485SOL    HW175065   4.075   1.327   3.031 -0.1835  0.0413 -0.8579
52485SOL    HW275066   4.214   1.321   2.972  0.4957 -0.7870  0.7546
52486SOL     OW75067   4.110  14.033   3.279  0.3512  0.2280 -0.1845
52486SOL    HW175068   4.050  13.993   3.216  0.4830 -0.5944  0.2073
52486SOL    HW275069   4.162  14.094   3.227  1.0677 -1.0820 -1.0538
52487SOL     OW75070  11.491   1.842   0.446 -0.3107  0.0881  0.8730
52487SOL    HW175071  11.536   1.819   0.365 -0.7251  0.4644  0.5325
52487SOL    HW275072  11.555   1.891   0.497 -0.1315  0.0610  0.6722
52488SOL     OW75073   5.149   8.702   6.053 -0.3488 -0.5549  0.2455
52488SOL    HW175074   5.126   8.660   6.136  2.8471 -0.0866  1.5468
52488SOL    HW275075   5.163   8.630   5.992 -1.8908 -0.9472  0.3237
52489SOL     OW75076   9.367   2.788   8.095  0.4495  0.3577 -0.2797
52489SOL    HW175077   9.414   2.715   8.055 -0.1251 -0.4474  0.4721
52489SOL    HW275078   9.417   2.866   8.070  1.5692 -0.3716 -0.3611
52490SOL     OW75079   7.017  11.557  10.791  0.1289 -0.0389  0.0709
52490SOL    HW175080   7.068  11.587  10.866 -1.1833  2.5424  0.0212
52490SOL    HW275081   7.049  11.609  10.717 -1.7616  0.8687 -0.1726
52491SOL     OW75082   8.800   0.755  13.753 -0.1024  0.4954  0.3157
52491SOL    HW175083   8.763   0.704  13.681 -0.9215  0.8379  0.4732
52491SOL    HW275084   8.893   0.736  13.751 -0.2452 -0.1901 -0.2770
52492SOL     OW75085   8.852   7.570  13.038  0.0872 -0.4331 -0.0536
52492SOL    HW175086   8.879   7.487  12.999 -0.9389 -1.5785  1.5823
52492SOL    HW275087   8.890   7.569  13.126 -1.2195  0.1144  0.5405
52493SOL     OW75088   4.436   3.575  10.279  0.5865  0.3477  0.4247
52493SOL    HW175089   4.507   3.589  10.342 -0.9689  1.3685  2.0676
52493SOL    HW275090   4.430   3.480  10.271  1.2086  0.2064  1.3925
52494SOL     OW75091  12.549   1.064   6.482  0.0109  0.3298  0.1739
52494SOL    HW175092  12.594   0.998   6.534 -1.1619 -0.7653 -0.1379
52494SOL    HW275093  12.618   1.109   6.434  0.8514 -0.5548  0.5329
52495SOL     OW75094  13.503   1.397  11.663  0.2413 -0.0768  0.0096
52495SOL    HW175095  13.424   1.436  11.626  0.5028  0.2847 -0.1793
52495SOL    HW275096  13.549   1.471  11.704 -0.4444 -0.5955  1.8108
52496SOL     OW75097  11.607   0.952   3.752  0.3808 -1.2464 -0.0708
52496SOL    HW175098  11.604   0.968   3.846  1.2413  0.0069 -0.2335
52496SOL    HW275099  11.688   0.994   3.723  0.6153 -2.4300 -1.2300
52497SOL     OW75100   1.254   5.171   1.578 -0.2074  0.0320  0.1346
52497SOL    HW175101   1.170   5.192   1.538  0.9172 -0.0853 -2.5070
52497SOL    HW275102   1.250   5.076   1.593  0.1641 -0.3886 -2.0277
52498SOL     OW75103   4.367  13.845   1.554 -0.2234  0.3319  0.9738
52498SOL    HW175104   4.444  13.798   1.586 -1.4790 -0.3342  3.2400
52498SOL    HW275105   4.398  13.934   1.538  1.8176 -0.7282 -1.7754
52499SOL     OW75106   9.808   6.190   7.163 -0.2506  0.0874 -0.1179
52499SOL    HW175107   9.842   6.105   7.134 -1.4477 -0.4607  0.0262
52499SOL    HW275108   9.877   6.224   7.220  0.7233 -0.2765 -1.0328
52500SOL     OW75109   4.678   8.207   0.655  0.2609 -0.3561  0.2100
52500SOL    HW175110   4.633   8.195   0.738 -0.1260  0.7162  0.1794
52500SOL    HW275111   4.692   8.119   0.622  0.0894 -0.7847  1.2342
52501SOL     OW75112   4.816   6.294   6.469  0.1305 -0.4345  0.0812
52501SOL    HW175113   4.890   6.320   6.524  0.0386 -0.8948  0.4313
52501SOL    HW275114   4.754   6.255   6.531 -1.3514  1.8688  0.1571
52502SOL     OW75115   0.500  11.280   4.979  0.0948  0.0120  0.1857
52502SOL    HW175116   0.554  11.243   5.049 -1.2126 -1.4123  0.5173
52502SOL    HW275117   0.438  11.337   5.025 -0.2616 -0.3070  0.1039
52503SOL     OW75118   9.733   8.246   9.556 -0.6803  0.0413  0.3553
52503SOL    HW175119   9.828   8.238   9.561 -0.3078  2.5697 -1.0584
52503SOL    HW275120   9.702   8.157   9.537  1.6411 -0.3718 -1.9767
52504SOL     OW75121   1.054   3.792   9.715  0.2386 -0.2338 -0.5147
52504SOL    HW175122   1.047   3.880   9.677  0.7493  0.0095 -0.0581
52504SOL    HW275123   1.019   3.734   9.647 -1.6087  0.4539 -0.2112
52505SOL     OW75124   7.727  13.621   6.402  0.2790 -0.0758 -0.1546
52505SOL    HW175125   7.699  13.708   6.431 -0.2253 -0.1495 -0.4119
52505SOL    HW275126   7.821  13.620   6.419  0.5518  1.0195 -1.4181
52506SOL     OW75127  13.577   7.014   5.028  0.4846  0.2533 -0.0286
52506SOL    HW175128  13.569   7.002   5.123  0.4620 -1.3128 -0.2098
52506SOL    HW275129  13.652   7.073   5.017  0.7905  0.0592  0.9340
52507SOL     OW75130   6.812   4.678   5.942  0.0776 -0.1312 -0.1573
52507SOL    HW175131   6.769   4.594   5.924 -1.2018  0.8883 -2.2126
52507SOL    HW275132   6.871   4.659   6.015 -0.1013 -2.8333 -0.5994
52508SOL     OW75133  11.855   7.723   4.256  0.3657  1.3833 -0.4457
52508SOL    HW175134  11.770   7.750   4.221  1.0972  1.9725 -1.8284
52508SOL    HW275135  11.891   7.665   4.190  0.6267  0.2991  0.6072
52509SOL     OW75136   3.253   5.658   4.424 -0.2390 -0.5285  0.4317
52509SOL    HW175137   3.237   5.648   4.330  0.2924  1.7183  0.0411
52509SOL    HW275138   3.167   5.677   4.461 -0.4617 -1.4892  0.4345
52510SOL     OW75139   4.436   2.370   8.444 -0.6426 -0.4838  0.0917
52510SOL    HW175140   4.507   2.328   8.493 -0.0702 -0.5101 -0.7332
52510SOL    HW275141   4.440   2.462   8.472  1.8706  0.2661 -2.2583
52511SOL     OW75142   0.356   6.679   5.086  0.1829 -0.7249  0.2807
52511SOL    HW175143   0.334   6.608   5.146 -2.5250 -0.7695 -0.6146
52511SOL    HW275144   0.411   6.738   5.137 -0.9048 -1.4394  2.3809
52512SOL     OW75145   6.284   2.504   6.999 -0.1876 -0.3233  0.0829
52512SOL    HW175146   6.339   2.462   7.065  0.2716 -1.4090 -0.9485
52512SOL    HW275147   6.342   2.567   6.956 -0.5261  0.4847  0.8066
52513SOL     OW75148   1.903   8.667   3.936 -0.1860  0.2357 -1.3199
52513SOL    HW175149   1.942   8.748   3.967  2.1352 -1.3554  0.2529
52513SOL    HW275150   1.969   8.629   3.878 -1.5035 -0.2611 -2.5556
52514SOL     OW75151  10.716   2.494   2.799 -0.3102  0.7477  0.4513
52514SOL    HW175152  10.646   2.466   2.740 -0.7896 -0.5390  1.5798
52514SOL    HW275153  10.672   2.548   2.864 -0.6232 -1.4549  2.1559
52515SOL     OW75154  13.429  13.878   6.636 -0.2592 -0.2305 -0.2358
52515SOL    HW175155  13.524  13.865   6.641 -0.0701  1.4298  1.1659
52515SOL    HW275156  13.406  13.850   6.547  1.3731 -1.5094 -0.3115
52516SOL     OW75157  12.514   9.924   4.664  0.1810 -0.5970  0.2528
52516SOL    HW175158  12.552  10.004   4.701 -0.4529 -0.7735  1.3315
52516SOL    HW275159  12.433   9.912   4.712  0.2051 -1.8246  0.0117
52517SOL     OW75160   5.342   9.140  12.809 -0.4507  0.1501  0.7028
52517SOL    HW175161   5.395   9.084  12.753 -0.3365 -0.9878  1.8979
52517SOL    HW275162   5.274   9.175  12.752  1.1277  1.0848 -0.7093
52518SOL     OW75163   8.717   1.957  12.891  0.2936  0.3181  0.0219
52518SOL    HW175164   8.736   1.956  12.797  0.2151 -0.1014  0.0067
52518SOL    HW275165   8.624   1.934  12.897  0.7416 -1.5972  0.2854
52519SOL     OW75166   1.181   1.800   6.520  0.1947 -0.0726  0.0688
52519SOL    HW175167   1.141   1.720   6.554 -1.2766  0.2935 -0.6775
52519SOL    HW275168   1.171   1.794   6.425  0.8076  0.6211 -0.0551
52520SOL     OW75169  10.456   5.272   0.794 -0.2283  0.8289 -0.3092
52520SOL    HW175170  10.517   5.274   0.720  0.9069 -0.1364  0.5575
52520SOL    HW275171  10.395   5.344   0.777  1.3902  2.1003 -1.0122
52521SOL     OW75172   5.171   2.955   7.040 -0.1106  0.2723  0.2380
52521SOL    HW175173   5.134   2.970   6.953  0.6202  1.1258  0.0638
52521SOL    HW275174   5.205   3.040   7.067  1.7052 -0.4698  0.3885
52522SOL     OW75175   0.580   4.528   4.989  0.4129 -0.2008 -0.1835
52522SOL    HW175176   0.587   4.477   4.908  0.0117 -1.8385  0.7742
52522SOL    HW275177   0.664   4.515   5.033 -0.3625 -1.6755  0.9579
52523SOL     OW75178   9.586   3.189   0.998  0.3652  0.1028  0.3869
52523SOL    HW175179   9.562   3.130   1.070  0.6377 -1.2252 -0.5834
52523SOL    HW275180   9.617   3.131   0.928  1.9148  1.4761 -0.1271
52524SOL     OW75181  10.057  13.304  11.711  0.2985  0.3813  0.7094
52524SOL    HW175182  10.071  13.211  11.692  3.1434  1.0174 -0.7505
52524SOL    HW275183   9.988  13.304  11.778 -0.5211 -2.6911  0.0357
52525SOL     OW75184  13.002   6.736   5.761  0.1378 -0.0617  0.3514
52525SOL    HW175185  13.077   6.684   5.791  0.8414  0.7177 -0.0024
52525SOL    HW275186  12.941   6.672   5.725  0.3608 -0.7679  1.2120
52526SOL     OW75187  13.084   3.185  13.560  0.6303 -0.4764 -0.1173
52526SOL    HW175188  13.127   3.203  13.476  1.7742 -0.5714  0.4269
52526SOL    HW275189  13.031   3.107  13.543  0.8148 -0.4709 -0.7617
52527SOL     OW75190   8.990  12.410   3.270  0.4476  0.4650  0.3851
52527SOL    HW175191   8.948  12.399   3.355 -0.4440  1.9641  0.1622
52527SOL    HW275192   8.933  12.363   3.209 -0.9646  2.4357  0.0934
52528SOL     OW75193   3.925   2.520   0.856  0.1736  0.3206  0.1484
52528SOL    HW175194   3.990   2.456   0.826 -1.5748 -2.6269  2.1612
52528SOL    HW275195   3.938   2.596   0.799  2.7319 -1.6025 -2.0765
52529SOL     OW75196  12.109  13.496  11.012 -0.0068 -0.1399  0.1668
52529SOL    HW175197  12.073  13.408  11.005 -0.5282  0.1099 -0.4153
52529SOL    HW275198  12.200  13.483  11.038 -0.7509 -0.7592  2.7445
52530SOL     OW75199  13.891  11.561   7.655  0.3229 -0.2682 -0.3773
52530SOL    HW175200  13.905  11.469   7.631  1.7201 -0.2422  0.2625
52530SOL    HW275201  13.929  11.569   7.742  0.8725  1.0912 -0.7248
52531SOL     OW75202   6.571   1.803  13.184  0.0085  0.2796  0.1344
52531SOL    HW175203   6.525   1.814  13.267 -0.3422 -0.3229  0.0296
52531SOL    HW275204   6.661   1.780  13.208 -0.7074 -2.5940  0.4188
52532SOL     OW75205   7.158   8.450   0.589 -0.6034 -0.0005 -0.1732
52532SOL    HW175206   7.113   8.426   0.670  0.2797  0.5107  0.4786
52532SOL    HW275207   7.234   8.392   0.586  1.4964  2.4958  1.3543
52533SOL     OW75208  11.928   0.992  13.113 -0.4255 -0.3465 -0.1017
52533SOL    HW175209  11.897   0.998  13.203 -0.1600 -0.7031  0.0159
52533SOL    HW275210  11.948   0.899  13.101  1.6195  0.0121  0.1704
52534SOL     OW75211   0.963   9.179   1.116  0.1481 -0.0869  0.0835
52534SOL    HW175212   0.991   9.113   1.054  0.6286  1.2166 -1.1489
52534SOL    HW275213   0.911   9.241   1.064 -0.5593  0.3450  1.2541
52535SOL     OW75214   5.840  11.954   9.240  0.0325 -0.4313 -0.2297
52535SOL    HW175215   5.827  11.929   9.331  1.0402  0.2877  0.1225
52535SOL    HW275216   5.897  12.031   9.243 -0.2245 -0.1602 -1.4465
52536SOL     OW75217   0.239  10.687   6.114  0.3183  0.1431  0.1976
52536SOL    HW175218   0.327  10.706   6.082 -0.7468  2.1887 -1.8088
52536SOL    HW275219   0.212  10.766   6.159 -0.0688 -0.9307  1.9380
52537SOL     OW75220   2.570   2.489   0.434 -0.2837 -0.1955  0.8198
52537SOL    HW175221   2.546   2.527   0.518  1.4680 -2.1818  2.3222
52537SOL    HW275222   2.520   2.408   0.429 -1.4156  0.5429 -0.7638
52538SOL     OW75223  13.985   7.234   2.149 -0.2332  0.2586  0.2348
52538SOL    HW175224  14.052   7.288   2.191 -0.7116  1.0537 -0.0057
52538SOL    HW275225  13.994   7.254   2.056  0.6042 -1.2421 -0.0395
52539SOL     OW75226   2.601   0.768   0.488  0.4382  0.2965  0.5893
52539SOL    HW175227   2.562   0.834   0.545 -0.0402 -0.7315  1.4992
52539SOL    HW275228   2.602   0.688   0.541  3.2437  0.0965  0.4201
52540SOL     OW75229   4.129   4.915   1.858  0.2218  0.0427  0.9228
52540SOL    HW175230   4.189   4.973   1.810 -0.2776 -0.5871 -0.5096
52540SOL    HW275231   4.187   4.851   1.900  0.6312  0.1108  0.4780
52541SOL     OW75232  11.784   9.196   5.798 -0.1994  0.0053  0.4196
52541SOL    HW175233  11.777   9.288   5.770  0.4915 -0.2537 -0.6755
52541SOL    HW275234  11.694   9.164   5.797 -0.2634  0.1286 -1.2275
52542SOL     OW75235   9.184   3.570  12.365 -0.2555  0.3378 -0.3468
52542SOL    HW175236   9.239   3.622  12.424  1.1704 -0.2358 -1.1128
52542SOL    HW275237   9.158   3.494  12.417  2.7518 -1.2722 -0.9431
52543SOL     OW75238  11.160   9.626   6.308  0.7206 -0.3616  0.1194
52543SOL    HW175239  11.253   9.642   6.288  0.8811 -0.6652  0.6135
52543SOL    HW275240  11.161   9.557   6.374  0.1477 -0.1705  0.3354
52544SOL     OW75241   5.396   6.920  12.589 -0.3038 -0.3666  0.8811
52544SOL    HW175242   5.315   6.880  12.620  0.2366 -0.5593  2.1177
52544SOL    HW275243   5.454   6.920  12.665  0.1014  1.8314  0.6476
52545SOL     OW75244   4.870   8.111   4.691  0.4931  0.3022 -0.3537
52545SOL    HW175245   4.855   8.119   4.785  1.4559  0.3602 -0.2009
52545SOL    HW275246   4.962   8.135   4.679  0.6696 -0.7376 -1.1743
52546SOL     OW75247   9.114  12.519   1.920 -0.3446 -0.6908  0.0893
52546SOL    HW175248   9.030  12.563   1.903 -0.1876 -0.8242 -1.0945
52546SOL    HW275249   9.172  12.551   1.851  0.5832 -0.6306  0.8772
52547SOL     OW75250   9.447   3.321   5.171  0.1733  0.2306  0.5882
52547SOL    HW175251   9.413   3.254   5.229  0.8815  0.1043  0.8678
52547SOL    HW275252   9.441   3.402   5.222 -0.1206  0.2827  0.4726
52548SOL     OW75253  12.560   1.561  13.337  0.3712  0.4280  0.1103
52548SOL    HW175254  12.642   1.512  13.343 -0.1934 -0.6322 -0.4554
52548SOL    HW275255  12.496   1.506  13.383 -0.3927  0.3609 -1.0015
52549SOL     OW75256   4.810   4.016   9.903 -0.4075  0.0379 -0.6194
52549SOL    HW175257   4.822   3.922   9.908 -1.0178 -0.1401 -1.9426
52549SOL    HW275258   4.764   4.030   9.820  1.0624  1.6384 -1.2403
52550SOL     OW75259   2.102   3.590  10.422 -0.5235 -0.2742 -0.7453
52550SOL    HW175260   2.061   3.673  10.446  1.6086  0.7619 -0.3983
52550SOL    HW275261   2.135   3.605  10.333  0.9863 -0.2498 -0.2042
52551SOL     OW75262   5.208   0.967  10.365  0.3209 -0.2636 -0.5253
52551SOL    HW175263   5.256   0.891  10.398  1.7421  0.7510 -0.1477
52551SOL    HW275264   5.226   0.968  10.271 -0.0052 -0.5928 -0.5934
52552SOL     OW75265   4.073   7.275   9.209 -0.3599 -0.4541  0.5386
52552SOL    HW175266   4.094   7.346   9.269  2.4850  0.6680 -1.5322
52552SOL    HW275267   4.003   7.310   9.154 -0.0600  0.1705  0.5393
52553SOL     OW75268   6.462   0.644   6.461 -0.1382  0.3174 -0.2149
52553SOL    HW175269   6.476   0.565   6.409  0.4333  1.1651 -1.4008
52553SOL    HW275270   6.550   0.671   6.488 -0.4063  0.0377  0.9935
52554SOL     OW75271  12.004  10.245   0.685 -0.1471  0.4401  0.4152
52554SOL    HW175272  12.070  10.312   0.665  0.5185  0.7720  3.2841
52554SOL    HW275273  12.038  10.165   0.645  0.9842  1.0346  0.1507
52555SOL     OW75274   4.675   3.169  13.109 -0.2357 -0.1879  0.2403
52555SOL    HW175275   4.760   3.141  13.143 -0.6295 -1.0354  0.5696
52555SOL    HW275276   4.622   3.089  13.109 -1.1101  0.3798  0.2866
52556SOL     OW75277   1.600   9.248   2.834 -0.1443  0.2378  1.1374
52556SOL    HW175278   1.663   9.190   2.876 -0.7351 -0.3055  1.2819
52556SOL    HW275279   1.516   9.203   2.842 -0.3385  0.3058 -0.2626
52557SOL     OW75280   9.936  10.982   4.285  0.0294 -0.3918 -0.3200
52557SOL    HW175281   9.904  10.921   4.352 -0.0799 -3.3388 -2.8583
52557SOL    HW275282   9.857  11.021   4.249 -0.0692 -0.6470 -0.3789
52558SOL     OW75283   5.322  12.361   3.492 -0.0825  0.1405  0.1448
52558SOL    HW175284   5.364  12.282   3.526  1.6020 -0.2548 -2.5640
52558SOL    HW275285   5.391  12.427   3.494 -0.7554  0.8549  0.0908
52559SOL     OW75286  10.780   2.937  12.322 -0.7474 -0.0563 -0.0657
52559SOL    HW175287  10.836   2.869  12.358 -1.1297  0.3860  1.4410
52559SOL    HW275288  10.840   3.004  12.290 -0.3700  0.5934  1.8915
52560SOL     OW75289   5.112   9.166   1.846  0.1491 -0.1704  0.1893
52560SOL    HW175290   5.194   9.120   1.867  0.7440 -0.3963 -2.2889
52560SOL    HW275291   5.136   9.258   1.843  0.2091 -0.1967 -0.1217
52561SOL     OW75292  12.316   7.003  10.328 -0.1092 -0.0678  0.3510
52561SOL    HW175293  12.396   7.044  10.297  0.0907  2.0049  3.1932
52561SOL    HW275294  12.249   7.071  10.319 -0.5783 -0.2914  1.8220
52562SOL     OW75295  11.279  13.796  13.695 -0.4741  0.1969 -0.2927
52562SOL    HW175296  11.279  13.721  13.755 -1.6023 -0.5358 -1.1776
52562SOL    HW275297  11.212  13.854  13.730 -0.1408  0.4376 -0.0475
52563SOL     OW75298   5.387   9.714   2.804  0.1928  0.0086 -0.0648
52563SOL    HW175299   5.464   9.711   2.861 -0.8190 -1.4684  1.3080
52563SOL    HW275300   5.422   9.727   2.717  1.9936 -0.4003  0.5607
52564SOL     OW75301   1.890  13.584  12.037  0.5974  0.3191  0.1937
52564SOL    HW175302   1.845  13.512  12.082 -1.3414  1.2905 -0.0808
52564SOL    HW275303   1.982  13.572  12.059  0.3761 -2.3540 -0.0133
52565SOL     OW75304   0.294   9.391   4.157  0.0116 -0.0654  0.3640
52565SOL    HW175305   0.250   9.428   4.081 -0.0742 -0.6019  0.1478
52565SOL    HW275306   0.227   9.337   4.200  0.0105  0.3638  0.9132
52566SOL     OW75307  12.668   0.165   8.259 -0.4026  0.0083  0.0083
52566SOL    HW175308  12.615   0.240   8.287 -3.1890 -0.6275 -2.9568
52566SOL    HW275309  12.624   0.089   8.296  0.4968 -0.3852  0.3098
52567SOL     OW75310   2.446  11.091   5.147 -0.4204  0.2355 -0.2942
52567SOL    HW175311   2.484  11.177   5.166  0.2946 -0.1892  0.2239
52567SOL    HW275312   2.436  11.090   5.051  1.8580 -0.0093 -0.5945
52568SOL     OW75313  11.239  11.715   4.322  0.8667 -0.0863  0.3268
52568SOL    HW175314  11.233  11.725   4.227  0.6259  0.4379  0.3958
52568SOL    HW275315  11.324  11.753   4.345  0.9106 -0.1840  0.3295
52569SOL     OW75316   4.250  12.452   6.825  0.7542 -0.4596  0.0163
52569SOL    HW175317   4.342  12.478   6.813  0.5883  0.4767  0.6131
52569SOL    HW275318   4.236  12.461   6.919 -0.1397  0.0913 -0.1637
52570SOL     OW75319  13.546  12.239  13.304  0.6919  0.3444 -0.1365
52570SOL    HW175320  13.496  12.178  13.251  1.0301 -0.7561  0.7629
52570SOL    HW275321  13.622  12.188  13.334  2.1977  1.8608 -1.1943
52571SOL     OW75322   7.088   8.210   4.049 -0.3681  0.3084  0.8157
52571SOL    HW175323   7.149   8.271   4.007 -0.1641 -1.0418 -1.0211
52571SOL    HW275324   7.142   8.162   4.111 -0.6268  2.2118  2.6081
52572SOL     OW75325   3.418   0.264  10.744  0.4580  0.3889  0.3703
52572SOL    HW175326   3.368   0.329  10.793  1.3245  1.7473 -0.4960
52572SOL    HW275327   3.433   0.193  10.808  1.7223  2.1656  2.1576
52573SOL     OW75328  11.566   8.862   0.396 -0.3713 -0.0152  0.1467
52573SOL    HW175329  11.595   8.913   0.320  0.8033  0.3118  0.7770
52573SOL    HW275330  11.624   8.891   0.467  0.1943 -2.0605  0.5871
52574SOL     OW75331  11.461   3.150  12.437 -0.0490 -0.2748  0.2096
52574SOL    HW175332  11.378   3.125  12.477  0.8008 -1.6023  1.2227
52574SOL    HW275333  11.526   3.099  12.484  1.1571 -0.7068 -1.8443
52575SOL     OW75334   1.949   7.800   7.749 -0.3515 -0.7033 -0.3521
52575SOL    HW175335   1.982   7.849   7.674 -2.3367 -1.1029 -1.5777
52575SOL    HW275336   1.884   7.858   7.788 -1.8410 -1.7985 -1.0891
52576SOL     OW75337   2.385   2.510  10.416 -0.7852 -0.0463  0.2520
52576SOL    HW175338   2.390   2.478  10.326 -0.9687  1.5629 -0.3695
52576SOL    HW275339   2.343   2.596  10.409 -1.0930 -0.0154  1.9155
52577SOL     OW75340  12.632   0.816   2.080  0.1702 -0.5080 -0.3941
52577SOL    HW175341  12.623   0.737   2.132  1.0825 -0.0994  0.4159
52577SOL    HW275342  12.583   0.798   2.000 -1.4864 -1.0486  0.7058
52578SOL     OW75343   4.294  11.964   9.755 -0.2214 -0.2125 -0.3078
52578SOL    HW175344   4.307  11.942   9.663  1.1503 -0.8652  0.0279
52578SOL    HW275345   4.211  12.012   9.756  0.3778  0.9580 -2.0533
52579SOL     OW75346   8.750   3.571  12.794  0.0875  0.1094  0.2757
52579SOL    HW175347   8.683   3.632  12.824  0.0747  0.2975 -0.1273
52579SOL    HW275348   8.713   3.485  12.810 -0.0219  0.2066  0.5647
52580SOL     OW75349   1.283   0.540   4.244 -0.3705 -0.1737  0.3306
52580SOL    HW175350   1.268   0.493   4.163 -1.9591 -1.5300  1.3526
52580SOL    HW275351   1.309   0.473   4.307  0.1285  0.7330  1.1322
52581SOL     OW75352   9.183   0.793   1.235 -0.3705  0.2972 -0.3351
52581SOL    HW175353   9.157   0.885   1.232 -0.5053  0.2585 -0.3648
52581SOL    HW275354   9.119   0.751   1.292  0.2860  0.4094  0.4941
52582SOL     OW75355  11.855   1.108   2.114 -0.3944  0.1052 -0.3046
52582SOL    HW175356  11.947   1.119   2.090 -0.1447 -0.0960  0.5074
52582SOL    HW275357  11.823   1.198   2.127 -0.1047  0.1460  0.1391
52583SOL     OW75358   7.455  11.918   9.106 -0.4313  0.7450 -0.3024
52583SOL    HW175359   7.538  11.899   9.063 -1.4974  1.4523 -2.8905
52583SOL    HW275360   7.412  11.982   9.049 -2.6512  0.6000  1.0571
52584SOL     OW75361   9.672   5.950   4.225 -0.7129 -0.1391 -0.3663
52584SOL    HW175362   9.611   5.876   4.222  1.2768 -1.9939  1.2026
52584SOL    HW275363   9.731   5.929   4.298  2.5589  0.8652 -2.4901
52585SOL     OW75364   5.364   7.298  10.009  0.2542 -0.2642  0.7464
52585SOL    HW175365   5.291   7.252   9.967 -0.2137  0.5811  0.6279
52585SOL    HW275366   5.414   7.334   9.936 -0.7772  1.5416  0.8846
52586SOL     OW75367   0.298   2.725  11.016 -0.3573 -0.3548  0.3846
52586SOL    HW175368   0.295   2.733  10.921  0.7805  1.2673  0.4585
52586SOL    HW275369   0.385   2.756  11.041 -1.5144  1.7695  2.1563
52587SOL     OW75370   7.480   2.863   1.756 -0.0103  0.5852 -0.7111
52587SOL    HW175371   7.400   2.880   1.806  1.8030  0.8650  2.3451
52587SOL    HW275372   7.492   2.768   1.762  0.1333  0.6022 -0.7385
52588SOL     OW75373   7.411   5.555  11.978  0.3842  0.3096 -0.8270
52588SOL    HW175374   7.488   5.511  12.014 -0.6179  1.1348  2.7460
52588SOL    HW275375   7.349   5.484  11.960  0.7049 -0.1265 -0.2627
52589SOL     OW75376  10.735  11.654   4.368 -0.3097 -0.0624 -0.5560
52589SOL    HW175377  10.762  11.611   4.287  0.0764 -0.7061 -0.0996
52589SOL    HW275378  10.739  11.585   4.434 -0.9294  0.3772 -0.0477
52590SOL     OW75379   2.859  10.595   4.654 -0.5318 -0.6269  1.0165
52590SOL    HW175380   2.862  10.500   4.659 -0.3859 -0.7603 -0.7348
52590SOL    HW275381   2.824  10.623   4.738  1.8157 -2.0454  2.5698
52591SOL     OW75382   7.034   1.796   7.020 -0.6220  0.4409  0.3220
52591SOL    HW175383   7.016   1.720   6.965  1.5670 -1.6633  2.2256
52591SOL    HW275384   7.021   1.764   7.110  1.2585  1.9949  1.2392
52592SOL     OW75385  11.605  13.805  12.814 -0.0150 -0.4983 -0.0628
52592SOL    HW175386  11.515  13.835  12.802 -1.6072 -3.5735  2.7048
52592SOL    HW275387  11.642  13.805  12.725 -1.9356  2.7811 -1.0450
52593SOL     OW75388   8.473  11.879   9.375  0.1404 -0.4302 -0.0083
52593SOL    HW175389   8.465  11.784   9.365  0.6345 -0.3516 -1.4569
52593SOL    HW275390   8.400  11.914   9.324  0.4796 -0.0265 -0.2213
52594SOL     OW75391  12.923   7.731   9.330  0.1907 -0.0096  0.1271
52594SOL    HW175392  12.995   7.773   9.283  0.5061 -0.4631  0.1972
52594SOL    HW275393  12.944   7.638   9.328 -0.6323 -0.1970 -0.2573
52595SOL     OW75394   5.492   9.588   6.094 -0.3424  0.0272 -0.0912
52595SOL    HW175395   5.577   9.577   6.051 -0.6964 -0.1026 -0.7713
52595SOL    HW275396   5.484   9.682   6.108 -1.2975  0.3723 -2.5767
52596SOL     OW75397   0.960   6.868   3.695  0.3942 -0.4213  0.0772
52596SOL    HW175398   1.020   6.935   3.662  0.3172 -0.9698 -1.2249
52596SOL    HW275399   1.002   6.835   3.774  1.6002 -0.4784 -0.5614
52597SOL     OW75400  10.014   1.615   6.620  0.0792 -0.7628 -0.1289
52597SOL    HW175401  10.010   1.693   6.675 -0.6420  0.2982 -1.5987
52597SOL    HW275402  10.105   1.610   6.592  0.0468 -0.1749 -0.3603
52598SOL     OW75403   6.742  13.758  11.605  0.2372 -0.6043 -0.4891
52598SOL    HW175404   6.826  13.748  11.649 -0.8838 -0.1658  1.9351
52598SOL    HW275405   6.717  13.669  11.580  0.0044 -1.1949  1.6748
52599SOL     OW75406  12.153   0.780   7.728  0.0617 -0.0301  0.0039
52599SOL    HW175407  12.179   0.807   7.640 -0.9841 -0.3846 -0.4340
52599SOL    HW275408  12.231   0.742   7.767  0.8755  1.2592 -0.3084
52600SOL     OW75409   0.070  13.194  10.250  0.6988 -0.4914  0.2541
52600SOL    HW175410   0.116  13.278  10.246  0.7096 -0.5483 -1.4312
52600SOL    HW275411  -0.009  13.206  10.198 -1.1260 -0.5121  2.7985
52601SOL     OW75412   8.065   8.673   9.779 -0.0985  0.0868  0.6397
52601SOL    HW175413   7.995   8.734   9.803  0.4750  0.1651  2.2560
52601SOL    HW275414   8.020   8.600   9.737 -0.7474  1.8660 -1.9813
52602SOL     OW75415   9.759   7.107   2.197 -0.4344 -0.0669  0.4674
52602SOL    HW175416   9.668   7.092   2.171 -0.4694  0.8773  0.0239
52602SOL    HW275417   9.772   7.049   2.272 -0.8346 -1.6097 -0.6109
52603SOL     OW75418  12.522   7.936  10.675 -0.1922  0.4958 -0.4240
52603SOL    HW175419  12.507   8.031  10.672 -2.6623  0.1478 -2.5870
52603SOL    HW275420  12.441   7.901  10.712 -0.7651 -0.9410 -2.8355
52604SOL     OW75421  10.335   1.425   9.338  0.5058 -0.3735  0.1281
52604SOL    HW175422  10.351   1.331   9.332 -0.8913 -0.5655 -1.1170
52604SOL    HW275423  10.275   1.444   9.266  0.7162  1.4703  0.3896
52605SOL     OW75424   1.273   8.771  13.284 -0.4152  0.1988  0.1905
52605SOL    HW175425   1.208   8.751  13.216  0.2299 -1.4594  0.0121
52605SOL    HW275426   1.345   8.812  13.236  0.4935 -1.9299 -0.3642
52606SOL     OW75427   4.518   3.969  13.069 -0.8559 -0.3190 -0.0043
52606SOL    HW175428   4.486   4.059  13.073 -3.2571 -0.8187 -3.3840
52606SOL    HW275429   4.452   3.918  13.116 -0.3657 -0.4993  0.4970
52607SOL     OW75430   3.805   0.645   2.012 -0.0975 -0.1071 -0.4913
52607SOL    HW175431   3.734   0.625   1.952  0.3216  0.7270 -1.2977
52607SOL    HW275432   3.791   0.587   2.087 -2.5167  1.0924  0.0743
52608SOL     OW75433   3.260   6.878   2.776  0.3220  0.5551  0.7267
52608SOL    HW175434   3.264   6.891   2.681  0.4912 -0.4507  0.5877
52608SOL    HW275435   3.341   6.832   2.797 -0.0237  0.1786  1.2558
52609SOL     OW75436   9.818  10.671   2.363  0.5743 -0.2097  0.0451
52609SOL    HW175437   9.725  10.678   2.385  0.9309  1.8682  1.2009
52609SOL    HW275438   9.832  10.578   2.348 -1.8917 -0.4546 -1.2148
52610SOL     OW75439  13.068  12.827  12.339  0.5817  0.1322 -0.9706
52610SOL    HW175440  13.076  12.758  12.274  2.9880 -0.2621 -0.3472
52610SOL    HW275441  13.139  12.888  12.319  0.2575  0.9341  0.1989
52611SOL     OW75442  13.923   3.228   7.887  0.5683  0.4819 -0.5597
52611SOL    HW175443  13.935   3.135   7.867  2.2128  0.9328 -1.9529
52611SOL    HW275444  13.898   3.266   7.803 -1.5202  1.1420  0.2865
52612SOL     OW75445   3.372   5.772   2.155  0.1511  0.4574  0.1951
52612SOL    HW175446   3.462   5.740   2.142  0.3691  1.0740  0.1483
52612SOL    HW275447   3.316   5.699   2.128  0.6233  0.5065 -0.9643
52613SOL     OW75448   2.444   1.375  10.743  0.2917 -0.0551 -0.2975
52613SOL    HW175449   2.454   1.288  10.705  0.4799 -0.4027  0.5079
52613SOL    HW275450   2.408   1.429  10.673 -2.4298 -1.4099 -0.0623
52614SOL     OW75451   6.241   7.405   4.442  0.2428  0.6017  0.1230
52614SOL    HW175452   6.234   7.309   4.447  2.5009  0.3399 -0.4460
52614SOL    HW275453   6.192   7.436   4.518  1.3062 -1.1582  1.6367
52615SOL     OW75454   6.321   3.471   0.355 -0.4459  0.6202  0.3832
52615SOL    HW175455   6.298   3.556   0.318 -2.2400 -0.1006 -0.2444
52615SOL    HW275456   6.299   3.478   0.448  0.9289  1.3372  0.6817
52616SOL     OW75457   1.325  10.298   8.367  0.1240 -0.1316  0.0002
52616SOL    HW175458   1.300  10.235   8.300 -1.3876 -0.7425  1.1010
52616SOL    HW275459   1.271  10.375   8.349  0.5452  0.1362 -0.1492
52617SOL     OW75460  13.482   9.146   2.588  0.7182  0.2805  0.3891
52617SOL    HW175461  13.540   9.169   2.661 -0.5537 -1.4363  2.0460
52617SOL    HW275462  13.399   9.188   2.610 -0.2300 -1.7837  0.9986
52618SOL     OW75463   6.872   3.343  14.042  0.1296  0.5915 -0.8772
52618SOL    HW175464   6.871   3.253  14.074 -0.6120  1.2060  0.9455
52618SOL    HW275465   6.965   3.364  14.034  0.3144 -0.2205 -0.9972
52619SOL     OW75466  11.752   1.304  11.717  0.0198 -0.4419  0.0638
52619SOL    HW175467  11.833   1.293  11.767 -0.8859 -0.6918  1.5502
52619SOL    HW275468  11.702   1.369  11.766 -0.9470 -0.7588 -0.4664
52620SOL     OW75469   6.224  12.634   2.299 -0.0272  0.2863 -0.0668
52620SOL    HW175470   6.159  12.565   2.286 -0.6575  0.6489  1.0337
52620SOL    HW275471   6.286  12.597   2.362  1.7189 -0.6035 -2.1499
52621SOL     OW75472   3.949   7.708   1.182 -0.3666  0.2970 -0.0323
52621SOL    HW175473   3.887   7.639   1.204  0.0801 -0.5068 -1.2296
52621SOL    HW275474   3.915   7.746   1.101 -1.2554  2.3106  1.2034
52622SOL     OW75475   7.659   9.122  12.100  0.3603  0.2229 -0.5023
52622SOL    HW175476   7.660   9.202  12.152 -3.6182  2.6222 -3.4611
52622SOL    HW275477   7.714   9.141  12.024 -0.3140  0.0546 -1.0492
52623SOL     OW75478   7.288   7.246   0.870  0.0641 -0.3562 -0.4692
52623SOL    HW175479   7.242   7.313   0.920  0.9571  0.2375 -0.4106
52623SOL    HW275480   7.375   7.241   0.911  0.1689 -1.2074 -0.7760
52624SOL     OW75481   0.031   0.796   7.590  0.1672  0.0341  0.0365
52624SOL    HW175482   0.089   0.783   7.515  0.0914 -0.9309  0.1295
52624SOL    HW275483   0.089   0.788   7.666  0.0858  0.0544  0.1003
52625SOL     OW75484   2.944   0.357   1.923  0.0899 -0.0961 -0.2906
52625SOL    HW175485   2.977   0.426   1.864 -0.1260  0.0060 -0.2924
52625SOL    HW275486   2.856   0.340   1.891  0.0444 -0.1795 -0.1159
52626SOL     OW75487   0.380  10.396  11.289  0.6904  0.0697  0.0922
52626SOL    HW175488   0.307  10.458  11.283  0.4455 -0.1817  0.4571
52626SOL    HW275489   0.431  10.412  11.209  0.6936  0.8230  0.2384
52627SOL     OW75490  12.261   5.907   7.346  0.3950 -0.0872 -0.5756
52627SOL    HW175491  12.329   5.974   7.345  0.8210 -0.5177 -0.6520
52627SOL    HW275492  12.240   5.892   7.254  1.5674 -1.3246 -0.6650
52628SOL     OW75493  12.686  12.398   3.460 -0.0977 -0.0850  0.5601
52628SOL    HW175494  12.729  12.416   3.544 -1.5065  1.8320  0.9549
52628SOL    HW275495  12.627  12.473   3.447 -2.1256 -1.7690 -0.6819
52629SOL     OW75496  13.107   9.810   8.725  0.2770  0.2151 -0.3139
52629SOL    HW175497  13.022   9.797   8.683 -0.0884 -1.9155  0.9153
52629SOL    HW275498  13.159   9.857   8.660 -2.2029  2.8377 -0.5734
52630SOL     OW75499   7.367   8.604   6.007  0.0102  0.7209  0.1327
52630SOL    HW175500   7.349   8.511   5.996  1.4709  0.1068  2.1687
52630SOL    HW275501   7.389   8.635   5.920  2.0923 -1.5055 -0.2444
52631SOL     OW75502   1.264   0.751   0.073 -0.3378 -0.3053 -0.0819
52631SOL    HW175503   1.292   0.739   0.163  1.4808 -0.3194 -0.6114
52631SOL    HW275504   1.345   0.753   0.022 -1.3071 -0.2076 -1.7122
52632SOL     OW75505   8.415   2.685   2.448 -0.4196 -0.3041 -0.0083
52632SOL    HW175506   8.439   2.644   2.365  0.6669  0.2096  0.0302
52632SOL    HW275507   8.330   2.725   2.431 -0.0616  0.0852 -0.9982
52633SOL     OW75508  11.572   5.096   4.585 -0.3148  0.3621 -0.5344
52633SOL    HW175509  11.555   5.027   4.648  0.8879 -1.4961 -2.1344
52633SOL    HW275510  11.497   5.095   4.526 -0.1300  0.1728 -0.7680
52634SOL     OW75511   8.037   0.381  13.276  0.7065  0.5560 -0.3246
52634SOL    HW175512   7.999   0.467  13.294 -0.7062  0.3319 -2.0787
52634SOL    HW275513   7.985   0.345  13.205  0.6126 -2.2039  0.9966
52635SOL     OW75514   9.620   5.548  10.835 -0.1560  1.0982  0.4378
52635SOL    HW175515   9.650   5.468  10.793 -0.1478  0.7870  1.0289
52635SOL    HW275516   9.697   5.605  10.834  0.5543  0.2412  2.1018
52636SOL     OW75517   6.293  10.657  12.192  0.3126 -0.2392  0.0710
52636SOL    HW175518   6.275  10.565  12.173 -2.3563  0.0670  0.7786
52636SOL    HW275519   6.279  10.702  12.109 -0.0656 -0.2708  0.1173
52637SOL     OW75520  11.440   2.054   8.960 -0.2498  0.5079  0.3197
52637SOL    HW175521  11.478   2.096   9.037  0.6355  1.2316 -0.4805
52637SOL    HW275522  11.455   2.117   8.889 -1.7299  0.1972 -0.3093
52638SOL     OW75523   5.270   8.745   7.684 -0.5165 -0.1234  0.1250
52638SOL    HW175524   5.286   8.733   7.590 -3.2588  1.3078 -0.6420
52638SOL    HW275525   5.268   8.656   7.719  1.2139 -0.6590 -1.0128
52639SOL     OW75526  14.088  13.308   6.499  0.5863 -0.2015  0.6468
52639SOL    HW175527  14.155  13.328   6.564  0.1277 -0.0929  1.0936
52639SOL    HW275528  14.091  13.381   6.438  0.6682 -0.0449  0.8382
52640SOL     OW75529   7.479  11.896   9.534  0.3968  0.2195  0.1428
52640SOL    HW175530   7.503  11.837   9.462 -0.7563  1.1532 -1.0579
52640SOL    HW275531   7.550  11.961   9.535 -0.5195  1.3261 -1.5013
52641SOL     OW75532   8.811   3.104  11.750 -0.3213 -0.6587  0.5809
52641SOL    HW175533   8.881   3.150  11.797  0.0362 -0.0326 -0.5159
52641SOL    HW275534   8.842   3.100  11.659 -2.2116  0.7157 -0.1859
52642SOL     OW75535   1.770   3.649   6.289 -0.4903  0.0837  0.0910
52642SOL    HW175536   1.772   3.588   6.215  1.4812 -1.3772  1.2605
52642SOL    HW275537   1.783   3.736   6.249 -1.0402 -0.4813 -1.3913
52643SOL     OW75538   3.031   4.349   3.418 -0.4507  0.2407  0.5792
52643SOL    HW175539   3.119   4.312   3.421 -0.8193 -0.6432  1.1244
52643SOL    HW275540   3.034   4.414   3.347  0.1947 -0.9536 -0.5375
52644SOL     OW75541  10.829   9.179   7.410  0.5472  0.2854  0.2884
52644SOL    HW175542  10.738   9.152   7.400 -0.0997  2.0900  0.9543
52644SOL    HW275543  10.842   9.185   7.505  0.9171  1.3814  0.1835
52645SOL     OW75544  11.459   3.111   7.165  0.7427 -0.5550  0.1526
52645SOL    HW175545  11.455   3.023   7.128 -0.2026 -0.8258  0.8518
52645SOL    HW275546  11.447   3.169   7.091 -0.9107 -1.0777 -0.0280
52646SOL     OW75547   3.579   1.708   7.924 -0.0404  0.2123 -0.2943
52646SOL    HW175548   3.566   1.669   8.011  0.0966  1.8876  0.5170
52646SOL    HW275549   3.555   1.800   7.935 -1.4413  0.1716 -2.4120
52647SOL     OW75550   8.074   6.051  13.622 -0.1633  0.3670  0.4259
52647SOL    HW175551   8.054   6.020  13.534 -1.2528 -0.8504  1.0465
52647SOL    HW275552   8.093   5.971  13.671  1.8301  1.1452  0.9847
52648SOL     OW75553  11.257   3.151   7.686  0.2233  0.4616 -0.4048
52648SOL    HW175554  11.289   3.235   7.654 -1.0544  0.7973 -0.8669
52648SOL    HW275555  11.281   3.088   7.618 -0.9401  0.8827 -1.2442
52649SOL     OW75556  13.173   1.572  14.068 -0.6884  0.0071 -0.5401
52649SOL    HW175557  13.259   1.560  14.027  0.4208 -1.1219  1.8880
52649SOL    HW275558  13.156   1.666  14.061  0.2256  0.0994 -2.0008
52650SOL     OW75559  11.978   5.730   1.609  0.0764  0.6674 -0.0982
52650SOL    HW175560  12.048   5.680   1.649 -2.0390 -2.8360 -0.3500
52650SOL    HW275561  11.992   5.719   1.515 -0.7139 -0.0129 -0.1496
52651SOL     OW75562   6.135   7.958   0.459  0.0743  0.4416 -0.2144
52651SOL    HW175563   6.053   7.953   0.409 -0.1892 -0.2165  0.2652
52651SOL    HW275564   6.203   7.937   0.395 -0.2505 -0.2792 -0.3369
52652SOL     OW75565   1.074   6.870   4.561 -0.2323 -0.4263 -0.1638
52652SOL    HW175566   1.079   6.962   4.534  1.6494 -0.8007 -1.2322
52652SOL    HW275567   1.028   6.826   4.490 -0.0721 -0.5146 -0.2124
52653SOL     OW75568   3.641  13.817   7.939  0.1802 -0.4995  0.5027
52653SOL    HW175569   3.566  13.761   7.919  0.1538 -0.8673  1.5457
52653SOL    HW275570   3.666  13.855   7.855  0.5604 -2.5133 -0.3522
52654SOL     OW75571   3.468  10.576   7.945  0.3256 -0.3002  0.0544
52654SOL    HW175572   3.417  10.649   7.910  1.7625 -0.1429 -1.8601
52654SOL    HW275573   3.409  10.501   7.939 -1.1226  0.5864  1.9068
52655SOL     OW75574  10.251  11.596   9.119  0.3130 -0.3134  0.1477
52655SOL    HW175575  10.188  11.643   9.065 -0.2208 -1.8856 -0.6795
52655SOL    HW275576  10.337  11.622   9.085  0.0169 -0.1799 -0.5109
52656SOL     OW75577   2.197  11.691   1.528 -0.3947 -0.5351  0.3075
52656SOL    HW175578   2.281  11.730   1.548  0.4937 -1.4386 -1.4378
52656SOL    HW275579   2.166  11.655   1.611  0.7043  0.2440  1.0641
52657SOL     OW75580  10.838  12.280   8.999 -0.3481 -0.2806  0.1077
52657SOL    HW175581  10.776  12.242   8.937 -1.1257  0.2622  0.5457
52657SOL    HW275582  10.799  12.264   9.085 -0.5451  1.2315  0.3164
52658SOL     OW75583   6.891   0.387   2.698 -0.1449 -0.0113  0.0579
52658SOL    HW175584   6.903   0.468   2.747  0.5528  0.8952 -1.5664
52658SOL    HW275585   6.814   0.346   2.739  0.0152  1.0143  1.4593
52659SOL     OW75586   8.973   0.699  10.935 -0.1550 -0.1605 -0.2795
52659SOL    HW175587   9.029   0.776  10.942  1.0312 -0.8661 -1.5173
52659SOL    HW275588   8.891   0.725  10.976  0.2865  1.6826 -0.4939
52660SOL     OW75589   5.156   3.678   5.287 -0.4515  0.6016 -0.4398
52660SOL    HW175590   5.084   3.626   5.324 -1.0331  1.2592 -0.6300
52660SOL    HW275591   5.180   3.739   5.356  1.2850 -0.8899  0.3702
52661SOL     OW75592  12.928   2.866   7.493 -0.0981  0.2758  0.1920
52661SOL    HW175593  13.016   2.836   7.473 -0.1384 -0.0467  0.5056
52661SOL    HW275594  12.900   2.814   7.568  0.2567  1.8398  1.4642
52662SOL     OW75595  10.314   6.159   2.000 -0.0684  0.4973  0.1420
52662SOL    HW175596  10.334   6.101   2.074 -0.9162  0.6473  0.4942
52662SOL    HW275597  10.319   6.102   1.923 -1.2759 -0.1523  0.5206
52663SOL     OW75598   2.903  11.723   9.680 -0.3075  0.1087  0.2501
52663SOL    HW175599   2.909  11.818   9.691 -3.1265  0.3484  0.2941
52663SOL    HW275600   2.932  11.707   9.590 -0.4952  1.0959  0.0054
52664SOL     OW75601   0.418  13.718   2.156  0.2911  0.0277 -0.0017
52664SOL    HW175602   0.388  13.627   2.164  1.3937 -0.3906 -0.3868
52664SOL    HW275603   0.356  13.768   2.208 -0.4779 -0.9175  0.0281
52665SOL     OW75604   1.838   4.571  13.083 -0.5375 -0.3269 -0.3903
52665SOL    HW175605   1.838   4.496  13.024 -0.1765 -0.4896 -0.1867
52665SOL    HW275606   1.928   4.578  13.113 -0.8515 -0.7357  0.7419
52666SOL     OW75607   8.903   0.983  10.098  0.2573 -0.1615  0.1609
52666SOL    HW175608   8.846   0.913  10.067  1.7028 -0.6940 -1.3652
52666SOL    HW275609   8.965   0.940  10.157 -0.1298  0.2166  0.8649
52667SOL     OW75610   2.085   7.751  11.773 -0.2456 -0.3041 -0.2030
52667SOL    HW175611   2.158   7.804  11.805 -1.2011 -0.0965  1.7939
52667SOL    HW275612   2.073   7.684  11.841 -1.1931 -1.0033 -1.0428
52668SOL     OW75613   8.796   1.486  10.060  0.3079  0.5622 -0.4756
52668SOL    HW175614   8.720   1.476  10.116  1.5498 -1.1041  1.0024
52668SOL    HW275615   8.849   1.553  10.103  0.2269  0.8967 -0.8876
52669SOL     OW75616   4.999   8.118   9.204 -0.2303 -0.3068  0.2811
52669SOL    HW175617   5.010   8.211   9.221  0.6704 -0.1403 -1.0407
52669SOL    HW275618   4.948   8.085   9.278 -0.8949  1.3029  0.5712
52670SOL     OW75619   6.918  12.811   2.706 -0.1369  0.1177  0.1659
52670SOL    HW175620   6.989  12.757   2.741  1.1354  0.8301 -1.1775
52670SOL    HW275621   6.942  12.826   2.615 -2.3936 -0.1723 -0.5364
52671SOL     OW75622  10.058   1.533  11.660  0.6687 -0.2886  0.1477
52671SOL    HW175623  10.107   1.544  11.579  0.5700 -0.5735  0.0477
52671SOL    HW275624  10.093   1.453  11.699  0.4653 -0.3499  0.2063
52672SOL     OW75625   2.811   5.632   3.331 -0.2089  0.0395 -0.2869
52672SOL    HW175626   2.811   5.542   3.364  2.6912  0.0413  0.0278
52672SOL    HW275627   2.811   5.623   3.236  1.6739 -0.4246 -0.2791
52673SOL     OW75628   8.259   2.265   6.912 -0.6202 -0.3352 -0.1229
52673SOL    HW175629   8.309   2.191   6.945 -0.7311 -0.4084 -0.1174
52673SOL    HW275630   8.259   2.328   6.984 -2.3976 -1.2312  0.7296
52674SOL     OW75631   0.350   0.064  13.396 -0.2800 -0.1505 -0.1993
52674SOL    HW175632   0.314   0.091  13.480 -3.9664 -0.2242 -1.5698
52674SOL    HW275633   0.372  -0.028  13.408  0.7364  0.2318  1.0859
52675SOL     OW75634   5.381  10.310   2.786  0.3881  0.1126 -0.0510
52675SOL    HW175635   5.380  10.221   2.750  2.0852  0.0611 -0.0475
52675SOL    HW275636   5.315  10.358   2.735  0.6526 -0.7157 -1.2048
52676SOL     OW75637  12.940  13.821   8.878  0.2127  0.1093 -0.5591
52676SOL    HW175638  12.957  13.726   8.875 -0.2177 -0.0579  1.0430
52676SOL    HW275639  12.927  13.846   8.787  1.7554 -1.0964 -1.1669
52677SOL     OW75640  10.933  13.775   8.980  0.0910 -0.2864 -0.1183
52677SOL    HW175641  10.916  13.864   9.013  2.2263  0.9726 -2.1561
52677SOL    HW275642  11.028  13.769   8.975 -0.0044 -2.7394 -0.0248
52678SOL     OW75643   7.267   5.874  11.548  0.4957 -0.1790  0.2428
52678SOL    HW175644   7.208   5.873  11.472 -0.9571  0.3362  1.3231
52678SOL    HW275645   7.278   5.782  11.570  1.1167 -0.3517 -0.6975
52679SOL     OW75646  10.694  12.995   7.506  0.0597 -0.2083 -0.7714
52679SOL    HW175647  10.711  13.082   7.542 -0.7911  0.9728 -3.0152
52679SOL    HW275648  10.653  12.946   7.577  0.3669  1.2835  0.4703
52680SOL     OW75649  13.516   6.021   4.810 -0.4280  0.5309  0.4111
52680SOL    HW175650  13.541   6.013   4.902 -0.2354  1.6793  0.4701
52680SOL    HW275651  13.526   5.932   4.775 -3.1747 -0.5608  2.1352
52681SOL     OW75652   6.966   3.681   0.400 -0.0618 -0.0677 -0.1573
52681SOL    HW175653   6.987   3.601   0.447 -2.6555 -0.7159  0.0092
52681SOL    HW275654   6.888   3.716   0.444  0.8313  2.4450 -0.3810
52682SOL     OW75655   2.257   8.736   8.005 -0.0666 -0.1644 -0.2766
52682SOL    HW175656   2.297   8.818   7.978  0.0091 -0.4805 -1.1450
52682SOL    HW275657   2.283   8.725   8.097 -2.2445  2.1095  0.7287
52683SOL     OW75658   6.671   4.998   2.974  0.5818 -0.1502 -0.2544
52683SOL    HW175659   6.677   5.089   3.002  1.7955 -0.3250  0.0846
52683SOL    HW275660   6.754   4.959   3.000  1.7752 -0.3990 -3.8779
52684SOL     OW75661  11.128   3.030  10.187 -0.4947 -0.0086 -0.0323
52684SOL    HW175662  11.088   3.095  10.245  0.8278  1.0845 -0.2985
52684SOL    HW275663  11.139   2.952  10.242 -1.6247  0.1345  0.4371
52685SOL     OW75664  12.127   7.050   3.841  0.2426 -0.0643 -0.1475
52685SOL    HW175665  12.050   7.094   3.876  0.9412  0.4336  0.8130
52685SOL    HW275666  12.108   6.957   3.851 -0.3322  0.0497 -0.1476
52686SOL     OW75667   6.249  12.346   8.433  0.1126 -0.7016 -0.3321
52686SOL    HW175668   6.258  12.251   8.423 -0.2293 -0.6711 -0.9581
52686SOL    HW275669   6.338  12.377   8.450  0.3531 -1.0338 -0.9911
52687SOL     OW75670  12.090   1.405   6.792 -0.1175  0.0203  0.2078
52687SOL    HW175671  11.996   1.392   6.805  0.0763 -0.1273  1.6496
52687SOL    HW275672  12.131   1.334   6.841  0.7520 -1.0583 -1.9519
52688SOL     OW75673   4.406  12.657   1.796 -0.1972 -0.0529  0.5718
52688SOL    HW175674   4.487  12.639   1.748 -1.1026  0.8270 -1.3946
52688SOL    HW275675   4.338  12.655   1.729 -1.3941  2.3239  1.5984
52689SOL     OW75676  12.548  13.906   2.787 -0.7551 -0.0282  0.2810
52689SOL    HW175677  12.556  14.000   2.801 -0.6874  0.0718 -0.3898
52689SOL    HW275678  12.585  13.892   2.700  1.9417 -1.1007  1.5059
52690SOL     OW75679   2.534   9.634   4.514 -0.7180  0.3076  0.5190
52690SOL    HW175680   2.514   9.601   4.601 -2.7722  0.8870  0.3229
52690SOL    HW275681   2.555   9.556   4.463 -0.9561 -0.2041  1.1789
52691SOL     OW75682  13.050  10.476   4.260  0.1440  0.5289  0.0788
52691SOL    HW175683  13.057  10.570   4.240 -0.9357  0.6667  0.2546
52691SOL    HW275684  13.076  10.469   4.352 -2.4435  1.1317  0.9523
52692SOL     OW75685   7.756   0.420  10.753 -0.0423 -0.1571 -0.3114
52692SOL    HW175686   7.730   0.431  10.661  1.1919  1.1376 -0.5460
52692SOL    HW275687   7.719   0.336  10.779 -1.8279  0.2000 -1.4896
52693SOL     OW75688  11.743   6.622   0.809  0.2645  0.3913  0.0259
52693SOL    HW175689  11.768   6.700   0.761  3.3334  0.4289  1.4024
52693SOL    HW275690  11.712   6.654   0.893 -0.0932  0.1829 -0.0255
52694SOL     OW75691   2.012   7.356   7.477  0.7121  0.1831 -0.4382
52694SOL    HW175692   2.028   7.277   7.528 -3.4853  0.6851  2.0688
52694SOL    HW275693   1.954   7.328   7.407  1.5280  0.6184 -1.3201
52695SOL     OW75694   7.528  10.596   0.259  0.0377 -0.2838 -0.0951
52695SOL    HW175695   7.524  10.657   0.185 -0.4026 -0.4313 -0.1968
52695SOL    HW275696   7.519  10.510   0.220 -0.0896 -0.3688  0.1174
52696SOL     OW75697   5.762  13.773   4.138  0.2641 -0.2406 -0.3665
52696SOL    HW175698   5.812  13.706   4.092  1.1471  0.9097 -1.1478
52696SOL    HW275699   5.685  13.787   4.082  1.0130  0.6948 -1.1979
52697SOL     OW75700  10.257   1.235   8.031 -0.1511  0.3904 -0.1405
52697SOL    HW175701  10.236   1.318   8.075  0.4711  0.6733 -0.3701
52697SOL    HW275702  10.176   1.211   7.986 -0.5103  0.5752  0.4071
52698SOL     OW75703   2.615   7.683   0.413  0.0323  0.2288 -0.2842
52698SOL    HW175704   2.676   7.684   0.339 -0.5894  0.1873 -0.8130
52698SOL    HW275705   2.592   7.590   0.423  0.9186  0.0916  0.6554
52699SOL     OW75706   8.749  13.475  11.005 -0.4847  0.2815  0.3417
52699SOL    HW175707   8.744  13.441  10.916 -0.5285  0.6557  0.1988
52699SOL    HW275708   8.730  13.399  11.061 -0.6451  0.0878  0.0301
52700SOL     OW75709   5.656  13.152   1.479  0.1622 -0.3650  0.1101
52700SOL    HW175710   5.666  13.114   1.392  0.6132 -2.1888  0.9041
52700SOL    HW275711   5.733  13.121   1.528 -0.1300  0.5379  1.1783
52701SOL     OW75712   0.409   9.760   6.322 -0.1945  0.4864  0.3830
52701SOL    HW175713   0.318   9.749   6.297 -0.3095  1.8004  0.1812
52701SOL    HW275714   0.448   9.812   6.251  0.2858  1.3970  1.2840
52702SOL     OW75715   5.005   9.230   5.385  0.0251  0.3510  0.2079
52702SOL    HW175716   5.092   9.190   5.381  0.0769  0.5938 -1.7969
52702SOL    HW275717   5.019   9.313   5.430  1.1207  1.0411 -1.3402
52703SOL     OW75718   4.148   9.209  12.300  0.1100 -0.6461 -0.2338
52703SOL    HW175719   4.077   9.182  12.359  0.0258  0.1065  0.0203
52703SOL    HW275720   4.191   9.127  12.275 -0.4602 -1.0574  0.1034
52704SOL     OW75721  12.937   1.973   6.105 -0.4309 -0.0605 -0.1179
52704SOL    HW175722  12.897   1.912   6.167 -0.0589  0.3577  0.5440
52704SOL    HW275723  13.027   1.943   6.095 -0.0446  0.7547  0.7359
52705SOL     OW75724   4.208   3.375   6.911 -0.2927  0.3833  0.2059
52705SOL    HW175725   4.148   3.413   6.976 -0.7857  0.6844 -0.4167
52705SOL    HW275726   4.155   3.311   6.864  0.0902  0.0957  0.1637
52706SOL     OW75727   8.698   2.456  10.860 -0.5831  0.5945 -0.1596
52706SOL    HW175728   8.656   2.528  10.908 -1.5953 -0.1637  0.1274
52706SOL    HW275729   8.789   2.459  10.888 -0.9163  0.8692  0.9839
52707SOL     OW75730   6.358   2.027  13.674 -0.1422  0.2929 -0.0723
52707SOL    HW175731   6.269   1.993  13.675 -0.4124  0.9939  0.5572
52707SOL    HW275732   6.349   2.121  13.657  0.5164  0.2726 -0.6016
52708SOL     OW75733   1.325  11.843   0.385  0.4339 -0.2620  0.4745
52708SOL    HW175734   1.229  11.837   0.386  0.4280 -0.5913 -0.6069
52708SOL    HW275735   1.355  11.752   0.379  0.7958 -0.1386  0.3974
52709SOL     OW75736   6.468  11.762   2.324 -0.3940  0.4709  0.2780
52709SOL    HW175737   6.386  11.795   2.288 -0.7870  0.7268  1.3873
52709SOL    HW275738   6.450  11.669   2.341 -0.5772  0.6103  0.8593
52710SOL     OW75739  13.144   0.268   0.301 -0.9275 -0.2890 -0.0668
52710SOL    HW175740  13.229   0.272   0.257 -1.3054 -1.0619 -0.8926
52710SOL    HW275741  13.100   0.349   0.276 -1.5890 -1.2159 -2.1035
52711SOL     OW75742   2.234  11.373   4.719  0.4952 -0.3010  0.2034
52711SOL    HW175743   2.178  11.304   4.754  1.1824 -1.6103 -1.1458
52711SOL    HW275744   2.265  11.421   4.795 -0.4439 -1.1347  1.1375
52712SOL     OW75745   0.569   0.023   8.395  0.1103 -0.2164  0.2970
52712SOL    HW175746   0.613   0.055   8.316  0.3140  0.4594  0.6745
52712SOL    HW275747   0.557  -0.071   8.379  0.2194 -0.1053 -0.4986
52713SOL     OW75748   0.060   0.081   3.312  0.4613 -0.2109  0.0519
52713SOL    HW175749  -0.008   0.072   3.245 -0.3478 -2.8619  1.1253
52713SOL    HW275750   0.033   0.023   3.382  1.5616  2.0576  2.5238
52714SOL     OW75751  12.953  13.858   5.639  0.2340  0.0159 -0.1627
52714SOL    HW175752  12.927  13.911   5.714 -1.1055  1.0672 -1.3199
52714SOL    HW275753  13.019  13.910   5.595  0.5119 -0.2883 -0.1113
52715SOL     OW75754  10.372  11.832  10.186 -0.2682  0.0609  0.2534
52715SOL    HW175755  10.281  11.807  10.203 -0.4736  0.9985  0.5956
52715SOL    HW275756  10.423  11.757  10.216 -0.9687 -0.9545 -0.9776
52716SOL     OW75757   1.116   7.192   3.397 -0.2401  0.2895  0.1386
52716SOL    HW175758   1.183   7.254   3.371  1.6424 -2.2744 -1.6256
52716SOL    HW275759   1.148   7.155   3.479 -0.4876  0.4238  0.2975
52717SOL     OW75760   3.822   8.711   5.526  0.4024  0.1122  0.3553
52717SOL    HW175761   3.824   8.779   5.593  0.5911 -0.8852  1.3963
52717SOL    HW275762   3.729   8.700   5.507  0.3931  0.9054 -0.0880
52718SOL     OW75763   6.038  10.155   5.899  0.2254  1.0658 -0.3810
52718SOL    HW175764   6.117  10.184   5.944  0.7388 -0.6716 -0.1169
52718SOL    HW275765   6.002  10.086   5.954  0.1526 -0.2058 -1.9456
52719SOL     OW75766   3.792   0.429   5.040  0.0199  0.6436 -0.3375
52719SOL    HW175767   3.823   0.368   5.108 -0.4114  1.4676  0.6158
52719SOL    HW275768   3.837   0.511   5.060 -1.7588  1.5077  0.2970
52720SOL     OW75769   6.950  10.890  12.921 -0.3305 -0.2881 -0.3808
52720SOL    HW175770   6.943  10.882  12.826 -1.4801  0.9638 -0.4344
52720SOL    HW275771   7.040  10.918  12.937 -0.7290  1.6230 -1.2865
52721SOL     OW75772   4.504  12.422   6.612  0.5346 -0.2128  0.0206
52721SOL    HW175773   4.586  12.373   6.612  0.4386 -0.4706  2.1051
52721SOL    HW275774   4.476  12.422   6.521  2.5162 -0.6706 -0.6379
52722SOL     OW75775   3.930   0.268   8.684  0.3091  0.5835 -0.5650
52722SOL    HW175776   3.986   0.270   8.762 -1.6199 -0.3576  0.9310
52722SOL    HW275777   3.844   0.292   8.717 -0.3496  1.2656 -2.6626
52723SOL     OW75778  11.006   1.488   2.993  0.2592 -0.6939  0.3838
52723SOL    HW175779  10.999   1.582   3.010 -0.0670 -0.8258  0.9954
52723SOL    HW275780  11.032   1.483   2.901 -0.0189 -0.0151  0.2591
52724SOL     OW75781   7.352   5.390   7.015 -0.1388 -0.1973  0.0288
52724SOL    HW175782   7.341   5.300   7.047 -1.4520 -0.5787 -1.3849
52724SOL    HW275783   7.385   5.380   6.926  1.8998  0.8109  0.6058
52725SOL     OW75784   2.950  12.082   0.221 -0.2255 -0.2359 -0.5982
52725SOL    HW175785   2.937  12.119   0.309 -1.5730 -0.4159 -0.6965
52725SOL    HW275786   3.037  12.111   0.196  0.2210 -0.2625  0.8422
52726SOL     OW75787   8.472   0.328  10.151 -0.1636 -0.0520 -0.8426
52726SOL    HW175788   8.392   0.353  10.196 -0.9170 -0.7152 -1.7899
52726SOL    HW275789   8.517   0.269  10.212 -0.7716 -0.3000 -0.6268
52727SOL     OW75790   3.930   0.144   8.187 -0.0731 -0.1444  0.6750
52727SOL    HW175791   3.891   0.132   8.100 -0.9237  1.4494  0.7993
52727SOL    HW275792   3.938   0.239   8.196 -0.1219 -0.2857  2.3893
52728SOL     OW75793   7.470  10.031  12.144  0.3693  0.0333  0.3852
52728SOL    HW175794   7.529   9.957  12.154  0.2283 -0.1649 -0.2048
52728SOL    HW275795   7.408  10.023  12.216 -0.7312 -1.4385 -0.6674
52729SOL     OW75796   3.758   9.995   2.493  0.3919  0.0896 -0.4297
52729SOL    HW175797   3.671   9.998   2.455 -0.0884 -0.4277  0.5871
52729SOL    HW275798   3.818  10.001   2.418 -0.5122 -0.0056 -1.1695
52730SOL     OW75799  10.870   5.416   6.343 -0.0581  0.0846 -0.0688
52730SOL    HW175800  10.914   5.340   6.382 -0.0431 -1.4372 -2.8085
52730SOL    HW275801  10.788   5.380   6.308 -0.4062  1.5079 -0.7886
52731SOL     OW75802   1.152  10.931   5.820  0.2959 -0.2524 -0.5339
52731SOL    HW175803   1.104  10.963   5.896 -0.0955 -0.0186 -0.8741
52731SOL    HW275804   1.177  10.842   5.843 -1.7399 -0.9998 -0.9668
52732SOL     OW75805  11.969   7.610   9.902 -0.4018 -0.7853  0.3942
52732SOL    HW175806  11.971   7.689   9.956  0.9949 -0.5978  0.1160
52732SOL    HW275807  11.876   7.587   9.896 -1.5230  3.3114 -3.1706
52733SOL     OW75808  12.201   8.650  14.068 -0.5385  0.1482  0.1340
52733SOL    HW175809  12.165   8.634  14.155 -0.2656  0.6453  0.3464
52733SOL    HW275810  12.266   8.581  14.055 -0.5243  0.1187  0.3600
52734SOL     OW75811  13.848   6.114  13.146 -0.0229  0.0689  0.0034
52734SOL    HW175812  13.850   6.111  13.242 -0.3070  1.1275  0.0518
52734SOL    HW275813  13.940   6.117  13.120  0.0560 -0.2675  0.2343
52735SOL     OW75814   5.667   8.761   3.062  0.7708  0.3312  0.1440
52735SOL    HW175815   5.646   8.854   3.058  1.2483  0.4209 -0.4504
52735SOL    HW275816   5.749   8.756   3.112  1.8469  0.4440 -1.5229
52736SOL     OW75817  12.263   1.131   7.392 -0.4452  0.0391  0.0118
52736SOL    HW175818  12.218   1.214   7.372  1.5702  1.1927 -0.0122
52736SOL    HW275819  12.240   1.113   7.483 -1.6656  0.1059 -0.2680
52737SOL     OW75820   4.022  13.595  11.450 -0.4371 -0.0371 -0.1139
52737SOL    HW175821   4.005  13.557  11.363  0.5229  0.1829 -0.4007
52737SOL    HW275822   3.945  13.650  11.467 -0.3892  0.3342 -1.0545
52738SOL     OW75823   4.040   1.626   8.416 -0.5851  0.4436  0.2083
52738SOL    HW175824   4.109   1.560   8.407 -0.8347  0.0452  1.1548
52738SOL    HW275825   4.003   1.611   8.503 -1.1241  1.3731  0.1533
52739SOL     OW75826   2.554   6.082   0.071 -0.0555 -0.4207  0.2263
52739SOL    HW175827   2.499   6.132   0.132  2.0554 -0.0274  1.9396
52739SOL    HW275828   2.569   6.142  -0.002  0.8849  0.7828  1.3595
52740SOL     OW75829   9.446   6.131   7.031  0.4253  0.0630 -0.5467
52740SOL    HW175830   9.510   6.076   7.075  0.0774  0.2065  0.1581
52740SOL    HW275831   9.456   6.217   7.073  0.4323  0.3350 -1.0979
52741SOL     OW75832   5.487  11.597   9.374  0.6100  0.1493 -0.3181
52741SOL    HW175833   5.507  11.685   9.341  0.7955  0.2430  0.0363
52741SOL    HW275834   5.533  11.592   9.458 -0.0829  0.0141  0.0628
52742SOL     OW75835   4.459   5.441   5.955 -0.0496  0.2865 -0.2503
52742SOL    HW175836   4.388   5.448   6.018 -0.3435  1.2127 -0.6620
52742SOL    HW275837   4.507   5.524   5.963  0.7589 -0.1640 -0.2510
52743SOL     OW75838   7.106   9.248   5.143 -0.4294 -0.2067 -0.3042
52743SOL    HW175839   7.107   9.334   5.184  1.6052 -0.7617  1.0038
52743SOL    HW275840   7.199   9.223   5.138 -0.9246 -2.1013 -1.1358
52744SOL     OW75841   6.291   5.746  13.567 -1.3072 -0.1721 -0.1199
52744SOL    HW175842   6.254   5.657  13.566 -0.4421 -0.5500 -0.0972
52744SOL    HW275843   6.253   5.787  13.644 -2.9517  0.0347 -1.0087
52745SOL     OW75844   9.656   4.077  12.200 -0.3126  0.4015 -0.2248
52745SOL    HW175845   9.621   4.057  12.286  1.1524  1.1486  0.5872
52745SOL    HW275846   9.748   4.098  12.216 -0.5348  2.8140 -1.6322
52746SOL     OW75847   8.272  10.568   6.701 -0.1182 -0.1324 -0.0240
52746SOL    HW175848   8.227  10.539   6.780 -0.0235 -0.7745 -0.2019
52746SOL    HW275849   8.329  10.495   6.677  0.7908  0.5465  0.0215
52747SOL     OW75850   5.948   8.567   4.523  0.4684 -0.7409 -0.1823
52747SOL    HW175851   5.925   8.545   4.614  0.6932 -1.5036 -0.3037
52747SOL    HW275852   5.864   8.591   4.483  0.4019 -0.1494  0.2876
52748SOL     OW75853   0.131   7.076   2.448 -0.4441  0.7620  0.1806
52748SOL    HW175854   0.052   7.125   2.426 -1.8784 -1.3451  0.3655
52748SOL    HW275855   0.105   7.020   2.521  0.0763 -2.6156 -2.0128
52749SOL     OW75856   6.884   3.788   6.984 -0.3060 -0.4882  0.0194
52749SOL    HW175857   6.924   3.873   7.001 -2.3909  0.3635  0.9902
52749SOL    HW275858   6.950   3.725   7.013  0.4456  0.8482  1.3681
52750SOL     OW75859   6.905   3.050   5.880 -0.5269  0.0642 -0.0632
52750SOL    HW175860   6.913   3.115   5.810 -0.7115 -0.3348 -0.4566
52750SOL    HW275861   6.958   2.976   5.850 -1.3468 -0.4732 -0.2045
52751SOL     OW75862   5.515   4.626  11.891 -0.0740  0.1539 -0.5699
52751SOL    HW175863   5.449   4.629  11.821 -2.4383 -0.0859  1.5079
52751SOL    HW275864   5.507   4.711  11.934 -0.2179 -0.4960  0.7212
52752SOL     OW75865   8.063  12.547   1.218  0.1872 -0.1413 -0.0061
52752SOL    HW175866   8.024  12.492   1.287 -0.8891 -0.8228 -1.1239
52752SOL    HW275867   8.111  12.485   1.163 -2.1501 -0.2634 -2.0621
52753SOL     OW75868  12.540   9.261  11.494 -0.1797  0.1040  0.0312
52753SOL    HW175869  12.584   9.291  11.414 -1.8523  0.9451 -0.6371
52753SOL    HW275870  12.456   9.306  11.493  0.0080  0.7013  2.6539
52754SOL     OW75871   3.231  10.754   5.707 -0.2424 -0.0009 -0.3583
52754SOL    HW175872   3.179  10.731   5.630  0.6934 -0.1017 -0.9783
52754SOL    HW275873   3.249  10.848   5.697  0.2712 -0.1107 -0.5166
52755SOL     OW75874  11.844   3.418  13.929  0.2694  0.2743 -0.2761
52755SOL    HW175875  11.858   3.328  13.958  0.5053  1.0335  2.1578
52755SOL    HW275876  11.906   3.430  13.857  0.7566 -1.2696 -0.1502
52756SOL     OW75877   0.086   0.217   7.525 -0.1415  0.4729  0.0718
52756SOL    HW175878   0.099   0.308   7.549  1.8908  0.2421 -0.0217
52756SOL    HW275879   0.163   0.194   7.473 -1.0764 -1.0317 -0.7227
52757SOL     OW75880   4.069  11.272   5.921 -0.3008  0.0895 -0.0544
52757SOL    HW175881   4.146  11.269   5.978 -0.3290  3.3635  0.3447
52757SOL    HW275882   4.000  11.231   5.973  0.4729 -0.1522  0.8112
52758SOL     OW75883   0.872   4.822  12.260  0.0201  0.5515 -0.4808
52758SOL    HW175884   0.898   4.737  12.226  2.9796  0.1527  2.2427
52758SOL    HW275885   0.945   4.880  12.237 -0.5994  1.6422  0.2139
52759SOL     OW75886   7.949   9.493   3.423  0.6665 -0.0100 -0.1973
52759SOL    HW175887   7.989   9.479   3.337  0.0982  0.6041 -0.5764
52759SOL    HW275888   7.902   9.412   3.441 -0.3748  0.3569 -1.1246
52760SOL     OW75889   6.725   6.291   3.723  0.2734 -0.0077 -0.5827
52760SOL    HW175890   6.728   6.296   3.628 -2.7926  2.4193 -0.7232
52760SOL    HW275891   6.777   6.365   3.753 -0.8691  0.8085 -0.5375
52761SOL     OW75892   5.528   0.487   0.501 -0.1621 -0.2864 -0.0615
52761SOL    HW175893   5.513   0.581   0.486  0.4966 -0.5159 -2.5701
52761SOL    HW275894   5.620   0.474   0.480 -0.2109 -1.4850  0.4155
52762SOL     OW75895   9.492   2.861  13.351 -0.3342 -0.8219 -0.0525
52762SOL    HW175896   9.558   2.799  13.320  0.5648  0.3607 -0.5837
52762SOL    HW275897   9.511   2.872  13.444  0.0840 -0.6695 -0.1519
52763SOL     OW75898  11.554   9.738  10.829  0.2364 -0.6484  0.1909
52763SOL    HW175899  11.551   9.715  10.737  1.8766 -0.5412  0.0765
52763SOL    HW275900  11.549   9.833  10.831  0.1783 -0.6521  0.2066
52764SOL     OW75901   2.601   2.853   5.605 -0.2823  0.3610  0.2770
52764SOL    HW175902   2.574   2.797   5.532  0.7580  0.8602 -0.5156
52764SOL    HW275903   2.543   2.828   5.677 -0.4148 -1.1319 -0.3103
52765SOL     OW75904   5.429   9.507   9.577 -0.4643  0.2488 -0.0241
52765SOL    HW175905   5.406   9.586   9.625 -1.4505 -0.3987  0.6119
52765SOL    HW275906   5.456   9.445   9.644  3.7001  1.0192 -0.7157
52766SOL     OW75907  13.228   7.521  13.340  0.3408 -0.3831 -0.2249
52766SOL    HW175908  13.201   7.521  13.248 -0.9842 -0.5960  0.1402
52766SOL    HW275909  13.149   7.497  13.388  0.3203  2.0614  1.1514
52767SOL     OW75910  10.951   4.680   8.487 -0.0786 -0.4629 -0.1755
52767SOL    HW175911  11.024   4.716   8.436  0.2705  1.1249  1.3315
52767SOL    HW275912  10.905   4.757   8.521 -0.4429 -1.4077  1.6319
52768SOL     OW75913  11.666   6.065  11.341  0.0436  0.0878 -0.5904
52768SOL    HW175914  11.728   6.076  11.412  1.0827 -0.4881 -1.3832
52768SOL    HW275915  11.720   6.061  11.262 -0.7161 -3.0025 -1.0943
52769SOL     OW75916   0.008   8.869   7.305  0.1893  0.0552 -0.7215
52769SOL    HW175917   0.069   8.844   7.235  1.2112  0.8491 -0.1257
52769SOL    HW275918   0.039   8.954   7.336  0.6799 -0.9265  1.7190
52770SOL     OW75919   1.553  13.477   7.431 -0.3021  0.3430 -0.1364
52770SOL    HW175920   1.462  13.451   7.413 -0.8169  0.2216  2.3098
52770SOL    HW275921   1.561  13.564   7.392 -1.0884 -0.1135 -1.3902
52771SOL     OW75922   2.797   3.852   6.676  0.3342 -0.0672 -0.2606
52771SOL    HW175923   2.866   3.788   6.692 -0.6925 -1.3707 -0.8886
52771SOL    HW275924   2.768   3.835   6.586 -1.6612 -0.4117  0.3972
52772SOL     OW75925   7.333   9.943  12.661 -0.2015  0.1025 -0.1586
52772SOL    HW175926   7.344   9.945  12.566 -0.8303  0.3146 -0.2346
52772SOL    HW275927   7.238   9.936  12.674 -0.0646 -0.8745  0.4485
52773SOL     OW75928   4.479   7.392  12.226 -0.1258  0.1620  0.2394
52773SOL    HW175929   4.414   7.460  12.209  1.3911  1.3587 -0.9374
52773SOL    HW275930   4.562   7.430  12.200  0.7343 -2.2914 -0.9380
52774SOL     OW75931   4.909  12.069  10.422  0.1415 -0.3156  0.8654
52774SOL    HW175932   4.868  12.153  10.398  0.9962 -0.1937 -0.2600
52774SOL    HW275933   4.978  12.093  10.484 -1.0782 -0.4590  2.3187
52775SOL     OW75934   7.789   1.797   2.322  0.0785  0.2290 -0.2145
52775SOL    HW175935   7.817   1.885   2.298  1.8428  0.3724  2.0030
52775SOL    HW275936   7.865   1.742   2.304 -0.1341 -0.3950  0.6914
52776SOL     OW75937   3.924  12.782  11.500  0.4879  0.6579  0.0623
52776SOL    HW175938   3.919  12.725  11.423  1.1243  1.5987 -0.7175
52776SOL    HW275939   3.878  12.861  11.474 -0.5090  0.4713  1.1804
52777SOL     OW75940   9.983  12.405  11.464  0.0933 -0.5872  0.5144
52777SOL    HW175941  10.055  12.406  11.401  2.4926 -1.4564  3.0573
52777SOL    HW275942   9.941  12.491  11.453  0.5069 -0.6425 -2.0682
52778SOL     OW75943   1.213   6.247  12.872  0.4918 -0.7635 -0.0703
52778SOL    HW175944   1.298   6.207  12.854  1.3286  1.5650 -1.9305
52778SOL    HW275945   1.149   6.187  12.834  1.5356 -1.2317 -1.1421
52779SOL     OW75946   3.315   0.393   8.916  0.8804  0.2074  0.0825
52779SOL    HW175947   3.306   0.434   9.002  0.7572 -0.4051  0.3668
52779SOL    HW275948   3.378   0.322   8.930  2.1129  1.1062 -0.6975
52780SOL     OW75949   0.279   0.237   6.253 -0.0280 -0.0283  0.1336
52780SOL    HW175950   0.315   0.199   6.333 -0.3382  0.3601  0.4651
52780SOL    HW275951   0.305   0.177   6.183 -0.1458 -0.6128  0.5885
52781SOL     OW75952   6.600   8.259   9.123 -0.3472 -0.3149 -0.2645
52781SOL    HW175953   6.641   8.174   9.133  2.5159  0.9559 -0.1369
52781SOL    HW275954   6.517   8.241   9.080  0.4686 -3.0902 -0.8745
52782SOL     OW75955   3.253   0.695   8.216 -0.0024 -0.2202 -0.0799
52782SOL    HW175956   3.201   0.619   8.243  1.3276 -1.0125  0.3207
52782SOL    HW275957   3.343   0.663   8.211  0.7596  1.5770  1.1263
52783SOL     OW75958  13.888   8.045   3.040  0.1928  0.3930 -0.7175
52783SOL    HW175959  13.888   7.953   3.012 -1.3540 -0.2219  1.0881
52783SOL    HW275960  13.961   8.051   3.102 -0.9931 -0.2274  0.8044
52784SOL     OW75961   1.841  12.429   2.855 -0.1173  0.1546 -0.0283
52784SOL    HW175962   1.818  12.400   2.767 -0.2555  1.4208 -0.4329
52784SOL    HW275963   1.873  12.518   2.844 -0.1050  0.3291  1.2047
52785SOL     OW75964   3.431  12.201   3.190  0.2902 -0.0733  0.4108
52785SOL    HW175965   3.390  12.238   3.268 -2.0694 -0.2058 -0.6900
52785SOL    HW275966   3.518  12.174   3.219 -0.0566  1.0262  2.6597
52786SOL     OW75967   4.969   9.038   6.791 -0.2080  0.1857  0.6069
52786SOL    HW175968   5.005   9.125   6.809  0.3735  0.6828 -2.4530
52786SOL    HW275969   4.875   9.050   6.793 -0.1689  0.4802  1.7400
52787SOL     OW75970  10.231   5.485   6.983 -0.0482 -0.2472 -0.0216
52787SOL    HW175971  10.171   5.415   6.959 -1.0647  0.7581 -0.5427
52787SOL    HW275972  10.213   5.554   6.919  1.9926 -0.0763 -0.4661
52788SOL     OW75973  12.852   2.483   8.649 -0.0555  0.3768 -0.4003
52788SOL    HW175974  12.846   2.523   8.562 -1.4615 -0.7012 -0.8288
52788SOL    HW275975  12.943   2.499   8.676  0.3280  0.9824 -1.9359
52789SOL     OW75976   0.647   4.855   8.468  0.4313  0.3445  0.2884
52789SOL    HW175977   0.674   4.768   8.436 -0.1208  0.3703 -0.2655
52789SOL    HW275978   0.551   4.855   8.460  0.4443  1.1019  0.0168
52790SOL     OW75979  12.682   0.468   2.597 -0.0326 -0.5541 -0.1987
52790SOL    HW175980  12.738   0.503   2.529 -0.3258  0.0471 -0.1375
52790SOL    HW275981  12.717   0.380   2.615 -0.6163 -1.1828 -1.8961
52791SOL     OW75982   0.417   6.373   4.589  0.0605  0.6366  0.0962
52791SOL    HW175983   0.338   6.426   4.596 -0.2389  0.2384 -0.2163
52791SOL    HW275984   0.415   6.316   4.666  0.0293  0.6063  0.0723
52792SOL     OW75985   2.061   7.667   6.978 -0.2158 -0.4681  0.3789
52792SOL    HW175986   2.001   7.644   6.907  1.0014  0.7120 -1.0932
52792SOL    HW275987   2.008   7.720   7.038 -1.1115 -1.0262  0.1059
52793SOL     OW75988   6.676   4.207   7.080  0.1822 -0.2426 -0.3917
52793SOL    HW175989   6.706   4.204   6.989  1.5336  1.0867 -0.0272
52793SOL    HW275990   6.582   4.190   7.074  0.4016 -1.1083 -1.9335
52794SOL     OW75991  12.331   7.414  10.897 -0.0897 -0.7613  0.1559
52794SOL    HW175992  12.369   7.460  10.822  2.3929 -1.5109  0.8433
52794SOL    HW275993  12.247   7.457  10.911  0.5381  1.1771 -1.4202
52795SOL     OW75994  11.110   1.247   7.513  0.3131 -0.4188  0.4534
52795SOL    HW175995  11.078   1.161   7.541  1.2431 -1.1177 -0.5519
52795SOL    HW275996  11.045   1.278   7.450 -0.0591 -0.3568  0.8685
52796SOL     OW75997   0.180   1.844  12.035 -0.8115  0.0570 -0.2774
52796SOL    HW175998   0.184   1.935  12.006 -1.5147 -0.3532 -1.7871
52796SOL    HW275999   0.268   1.825  12.067 -0.4409  1.0419 -0.6687
52797SOL     OW76000   4.006   2.177   0.915 -0.1927 -0.6443 -0.4560
52797SOL    HW176001   3.915   2.183   0.944 -0.0147 -0.6384  0.1019
52797SOL    HW276002   4.042   2.264   0.930  0.3768 -1.0944  0.9308
52798SOL     OW76003  11.109   5.059   1.364  0.1854  0.1126 -0.3590
52798SOL    HW176004  11.078   5.146   1.387 -0.3984 -0.2325  0.2011
52798SOL    HW276005  11.165   5.072   1.288 -0.4530  0.8909 -0.7015
52799SOL     OW76006  13.891   1.414   9.110  0.5361 -0.2792  0.2640
52799SOL    HW176007  13.868   1.481   9.046  0.5221  1.0699  1.6192
52799SOL    HW276008  13.987   1.418   9.116  0.7263 -1.8169 -1.1040
52800SOL     OW76009  12.325   7.438  11.828  0.3142 -0.3229  0.4905
52800SOL    HW176010  12.261   7.508  11.838  0.1910 -0.5118  1.0269
52800SOL    HW276011  12.406   7.474  11.863  0.4063 -0.2305  0.1887
52801SOL     OW76012   0.513   9.091   1.533  0.0987  0.2001 -0.0502
52801SOL    HW176013   0.570   9.024   1.493 -0.4777 -0.3581  0.0414
52801SOL    HW276014   0.573   9.159   1.562  0.7645 -0.5745  0.4302
52802SOL     OW76015   0.664  12.300   7.479  0.7571 -0.2255  0.5509
52802SOL    HW176016   0.664  12.226   7.541  0.5259  0.0537  0.8884
52802SOL    HW276017   0.672  12.377   7.534  1.1314 -0.0029  0.1859
52803SOL     OW76018   7.598   2.697   6.539 -0.0793  0.1988  0.3165
52803SOL    HW176019   7.552   2.751   6.474 -0.6030 -0.8202 -0.1859
52803SOL    HW276020   7.690   2.701   6.513 -0.2918 -0.2514 -0.5355
52804SOL     OW76021   9.781  10.737   8.150 -0.5423 -0.0417 -0.0429
52804SOL    HW176022   9.746  10.742   8.239 -1.3968 -0.3152 -0.3536
52804SOL    HW276023   9.845  10.808   8.146 -1.9521  1.3127  0.1633
52805SOL     OW76024  13.083  14.044   2.221 -0.0148  0.2241 -0.3198
52805SOL    HW176025  13.162  14.098   2.227  0.6706 -0.8609  0.7182
52805SOL    HW276026  13.037  14.078   2.144  1.4531  0.8692 -0.9448
52806SOL     OW76027   2.050   6.669   7.200  0.8400 -0.0741 -0.2860
52806SOL    HW176028   2.134   6.638   7.166  0.4474 -0.4571 -0.9277
52806SOL    HW276029   2.057   6.660   7.295  0.7749 -2.0279 -0.4394
52807SOL     OW76030   9.671   0.419   2.403 -0.4264  0.0969  0.3337
52807SOL    HW176031   9.601   0.365   2.441 -0.1980 -0.2236  0.3047
52807SOL    HW276032   9.659   0.505   2.442 -0.9369  0.0839  0.2074
52808SOL     OW76033   9.627   3.640   5.882 -0.1152  1.2526  1.0214
52808SOL    HW176034   9.575   3.643   5.962  1.4794 -1.2066  2.2519
52808SOL    HW276035   9.718   3.637   5.912  0.5259  0.0046 -0.8434
52809SOL     OW76036  12.954  11.098   0.778 -0.8580  0.1629  0.1229
52809SOL    HW176037  13.001  11.098   0.861 -0.8997 -1.4554  0.1794
52809SOL    HW276038  13.001  11.034   0.724 -1.8766 -0.1054 -0.4661
52810SOL     OW76039  13.959   6.265   4.803  0.5479  0.0023  0.1062
52810SOL    HW176040  13.910   6.307   4.733  1.8588  3.1353  0.9181
52810SOL    HW276041  13.945   6.321   4.880  1.1352 -1.9578  1.7333
52811SOL     OW76042   9.870  13.278   2.882 -0.1408 -0.0514  0.3243
52811SOL    HW176043   9.928  13.216   2.926  0.0607 -0.2093 -0.1585
52811SOL    HW276044   9.902  13.364   2.909  0.5895 -0.1294 -0.2698
52812SOL     OW76045  13.320   4.261   5.590 -0.1390 -0.3571  0.5684
52812SOL    HW176046  13.258   4.332   5.574  0.9042  0.3805 -0.3714
52812SOL    HW276047  13.273   4.199   5.646 -1.5041  0.4573  0.3461
52813SOL     OW76048   8.910   9.312   2.730  0.0733  0.1376 -0.4172
52813SOL    HW176049   8.959   9.367   2.670 -0.8767  0.7277 -0.6826
52813SOL    HW276050   8.901   9.364   2.810  0.0195 -0.0288 -0.3120
52814SOL     OW76051  10.057  13.492   9.575 -0.1013 -0.2582 -0.3711
52814SOL    HW176052  10.136  13.466   9.528  0.5800  1.0725 -0.0150
52814SOL    HW276053  10.062  13.443   9.658  0.8872  0.5676  0.0759
52815SOL     OW76054   1.044   2.483  10.126 -0.3065 -0.3326  0.4333
52815SOL    HW176055   1.079   2.427  10.057  2.2008  0.8922  0.6113
52815SOL    HW276056   0.958   2.446  10.145  0.2676 -2.6583 -1.0751
52816SOL     OW76057  10.192   6.518   5.059 -0.4809  0.1248 -0.6318
52816SOL    HW176058  10.144   6.501   5.140 -0.6215  0.4861 -0.6367
52816SOL    HW276059  10.136   6.484   4.989 -0.0137 -0.8837 -0.5280
52817SOL     OW76060   7.841  13.713  11.115 -0.2445  0.0273  0.0901
52817SOL    HW176061   7.748  13.692  11.105  0.1799 -1.7679 -0.3641
52817SOL    HW276062   7.871  13.732  11.026 -0.1590  0.6143  0.2381
52818SOL     OW76063  10.176  13.044   7.403  0.0460  0.2626 -0.7109
52818SOL    HW176064  10.230  13.054   7.325 -0.2051  0.6442 -0.8381
52818SOL    HW276065  10.166  13.134   7.437 -0.6449  0.2166 -0.7813
52819SOL     OW76066   6.301   3.214   8.325 -0.6635 -0.1543 -0.1522
52819SOL    HW176067   6.349   3.142   8.283  0.4567  0.9599 -0.8293
52819SOL    HW276068   6.320   3.290   8.271 -3.1291  0.3675 -0.3798
52820SOL     OW76069   8.283   6.414   6.302 -0.2783  0.0188  0.2099
52820SOL    HW176070   8.221   6.480   6.333 -0.6640 -0.5677  0.7250
52820SOL    HW276071   8.305   6.441   6.213 -1.3029  0.2282  0.0035
52821SOL     OW76072  12.296   3.618   6.012 -0.4610 -0.1486  0.2714
52821SOL    HW176073  12.311   3.566   5.934  2.1100 -0.1400  0.6780
52821SOL    HW276074  12.206   3.650   6.003 -0.9369 -1.8472 -1.6184
52822SOL     OW76075   1.049  12.884  12.885  0.9266 -0.2820 -0.0810
52822SOL    HW176076   1.127  12.939  12.890  1.6787 -1.2633 -0.5773
52822SOL    HW276077   1.035  12.855  12.975 -0.5592  2.1096  0.5322
52823SOL     OW76078  13.331  13.099  11.053  0.0594 -0.1860 -0.3744
52823SOL    HW176079  13.342  13.165  10.985  2.9609  0.6509  0.7309
52823SOL    HW276080  13.317  13.149  11.134 -0.7970 -1.0631  0.0430
52824SOL     OW76081   9.290   3.503  12.106  0.5971 -0.4263  0.1173
52824SOL    HW176082   9.385   3.512  12.110  0.5648  0.5013 -0.6783
52824SOL    HW276083   9.258   3.545  12.186  0.7852  0.8355 -0.4529
52825SOL     OW76084   9.975   9.101   0.355 -0.2044  0.1891 -0.5715
52825SOL    HW176085   9.890   9.145   0.343 -0.3606  0.1279  0.2348
52825SOL    HW276086   9.952   9.010   0.373  0.0539  0.0780 -0.8115
52826SOL     OW76087   9.543   0.795  13.732  0.0951  0.4711  0.4969
52826SOL    HW176088   9.515   0.886  13.732 -0.8080  0.1992  0.1642
52826SOL    HW276089   9.639   0.800  13.728  0.0395  1.3982 -0.0424
52827SOL     OW76090   2.057   7.173  12.580 -0.3505 -0.2428 -0.3442
52827SOL    HW176091   1.963   7.168  12.597 -0.4933  2.6333  0.3025
52827SOL    HW276092   2.098   7.153  12.664 -0.3482 -1.7457 -0.6888
52828SOL     OW76093  11.723   9.402   2.608 -0.0116  0.4689 -0.2437
52828SOL    HW176094  11.719   9.394   2.513  0.3899  1.7183 -0.3959
52828SOL    HW276095  11.658   9.469   2.629 -0.8921 -0.5891  0.5009
52829SOL     OW76096   5.584   1.329   7.666  0.1608  0.2025 -0.1557
52829SOL    HW176097   5.609   1.408   7.618 -1.8082  1.7189  1.1549
52829SOL    HW276098   5.584   1.356   7.758 -1.3628 -1.0736  0.2612
52830SOL     OW76099   1.663   4.338   1.894 -0.1846 -0.4880  0.1090
52830SOL    HW176100   1.578   4.303   1.918 -0.6499  0.6332  0.1431
52830SOL    HW276101   1.698   4.275   1.830 -1.1021 -0.8624 -0.0327
52831SOL     OW76102   9.617   1.730  12.037  0.3745  0.4684  0.2534
52831SOL    HW176103   9.624   1.651  12.090  1.0992  0.5839  0.3331
52831SOL    HW276104   9.706   1.763  12.030  0.3210  0.3734 -1.1620
52832SOL     OW76105  10.688  12.217   9.733 -0.0446  0.2365 -0.0595
52832SOL    HW176106  10.634  12.282   9.688  0.9660  0.0869 -1.5779
52832SOL    HW276107  10.757  12.268   9.775 -1.1810  0.4095  1.7140
52833SOL     OW76108  13.228   0.841   2.068  0.2551 -0.0517 -0.5210
52833SOL    HW176109  13.242   0.785   2.144 -0.0021 -1.3875 -1.4170
52833SOL    HW276110  13.143   0.882   2.083  1.2205  1.5165  0.9685
52834SOL     OW76111   0.916   4.269   8.896 -0.0096  0.0388  0.0676
52834SOL    HW176112   1.005   4.294   8.871 -0.3511  1.5679  0.2274
52834SOL    HW276113   0.917   4.269   8.992  0.4105 -2.3574  0.1042
52835SOL     OW76114  13.199  13.743   7.055  0.3389  0.0621 -0.0116
52835SOL    HW176115  13.263  13.748   6.984  1.5666  0.0221  1.0340
52835SOL    HW276116  13.116  13.766   7.015  1.2378  1.5233 -1.1415
52836SOL     OW76117   4.205   0.359   0.698  0.2273 -0.2334  0.0468
52836SOL    HW176118   4.201   0.421   0.771  0.1702 -0.4306  0.2122
52836SOL    HW276119   4.137   0.389   0.638 -1.5349 -1.5869  1.2748
52837SOL     OW76120   7.089  11.644  13.413  0.1671 -0.1305 -0.1638
52837SOL    HW176121   7.048  11.609  13.334  2.1505 -0.4708 -1.0845
52837SOL    HW276122   7.027  11.711  13.444 -0.2346  0.7017 -2.5388
52838SOL     OW76123   0.546   4.833  10.686 -0.4268  0.9609 -0.2035
52838SOL    HW176124   0.453   4.826  10.708  0.0158 -0.6637  1.4444
52838SOL    HW276125   0.567   4.748  10.646  0.2087  1.5826 -1.2308
52839SOL     OW76126  10.495   7.279  13.490  0.0259  0.2079 -0.2517
52839SOL    HW176127  10.553   7.271  13.566  0.8068  0.9743 -0.7288
52839SOL    HW276128  10.461   7.191  13.476 -0.9198  0.2382  1.5656
52840SOL     OW76129  13.898   4.463   3.733  0.1594  0.3265  0.0968
52840SOL    HW176130  13.962   4.405   3.776  0.3583  1.2189  1.0428
52840SOL    HW276131  13.931   4.471   3.643  0.4787 -0.5100  0.1243
52841SOL     OW76132   7.998   5.257   4.032 -0.4736  0.0932  0.2216
52841SOL    HW176133   7.912   5.299   4.024 -0.8099 -0.5685  0.3344
52841SOL    HW276134   8.050   5.297   3.963 -0.7515  0.7893  0.4054
52842SOL     OW76135   4.577   7.170  10.771  0.1365  0.2107 -0.1915
52842SOL    HW176136   4.510   7.238  10.781 -1.0807 -0.9885  0.0975
52842SOL    HW276137   4.530   7.088  10.785  2.0157 -0.6208  1.9658
52843SOL     OW76138   5.597  13.510  11.232 -0.0553 -0.4907  0.4189
52843SOL    HW176139   5.672  13.485  11.286 -0.3838  1.1035  1.6765
52843SOL    HW276140   5.637  13.552  11.155  0.4567  2.8373  2.3039
52844SOL     OW76141   4.195   7.765   2.759 -0.3454  0.3095 -0.2444
52844SOL    HW176142   4.236   7.822   2.823  0.6650 -0.5266 -0.1259
52844SOL    HW276143   4.268   7.731   2.707 -1.1729  1.5075 -2.3305
52845SOL     OW76144   1.799   8.705  11.935 -0.5472 -0.5917  0.7441
52845SOL    HW176145   1.883   8.679  11.973 -1.1306 -1.8971  1.2016
52845SOL    HW276146   1.811   8.695  11.841  0.9666  2.8181  0.4148
52846SOL     OW76147  12.530   3.311  10.136 -0.0928 -0.2764 -0.5182
52846SOL    HW176148  12.460   3.329  10.073  0.3696  0.1594 -0.9222
52846SOL    HW276149  12.596   3.264  10.085  0.3066  0.1177 -0.3759
52847SOL     OW76150   2.310   8.691  11.459 -0.0324  0.0218 -0.1735
52847SOL    HW176151   2.346   8.675  11.546 -0.0093  3.3412  0.5624
52847SOL    HW276152   2.261   8.773  11.468 -0.6188  0.1104 -3.1348
52848SOL     OW76153  10.815   1.239   3.049 -0.5372 -0.1747 -0.4540
52848SOL    HW176154  10.887   1.295   3.076  1.0008 -1.6228 -1.3378
52848SOL    HW276155  10.779   1.282   2.971 -0.0300  0.1062 -0.5373
52849SOL     OW76156   8.111  11.493   6.885  0.2832 -0.3382 -0.5715
52849SOL    HW176157   8.088  11.578   6.920  0.0085  0.2967 -2.1973
52849SOL    HW276158   8.195  11.507   6.841  0.5413 -1.0672 -0.3393
52850SOL     OW76159   5.639   1.520   8.985  0.7016  0.8045  0.2254
52850SOL    HW176160   5.692   1.531   9.064 -0.4938 -0.7460  1.3029
52850SOL    HW276161   5.596   1.435   8.997  0.8453  0.3059 -2.3180
52851SOL     OW76162   0.902  12.257   0.526 -0.5425 -0.1966  0.4030
52851SOL    HW176163   0.946  12.267   0.610 -0.8929 -1.3475  0.7397
52851SOL    HW276164   0.840  12.330   0.522  0.5884  0.7834  0.4184
52852SOL     OW76165  11.843   3.474   1.241  0.3970 -0.1770  0.4024
52852SOL    HW176166  11.802   3.513   1.318  1.1903  0.7376  0.3703
52852SOL    HW276167  11.855   3.382   1.264 -0.7459 -0.2449  0.7913
52853SOL     OW76168   7.507  11.664  11.615 -0.0479  0.3219 -0.1317
52853SOL    HW176169   7.559  11.617  11.680 -0.4883 -0.3350 -0.2465
52853SOL    HW276170   7.528  11.621  11.532  0.4577  1.1116 -0.4240
52854SOL     OW76171   3.533  10.338  11.134 -0.0414 -0.3926  0.1384
52854SOL    HW176172   3.460  10.385  11.173  0.1599 -0.0514  0.1101
52854SOL    HW276173   3.586  10.406  11.093  0.9866 -0.4834  1.2716
52855SOL     OW76174   0.609  13.994   3.802  0.2005  0.1260  0.9894
52855SOL    HW176175   0.597  13.960   3.713 -1.2592 -2.9099  2.2147
52855SOL    HW276176   0.528  14.040   3.821 -0.3123 -0.9335  1.4124
52856SOL     OW76177   8.317   5.028   9.805  0.4279  0.1433  0.1707
52856SOL    HW176178   8.275   5.115   9.809 -0.3306 -0.2113  0.0686
52856SOL    HW276179   8.411   5.047   9.805  0.2747  1.0165 -1.0524
52857SOL     OW76180  12.619   8.236  11.119  0.2854 -0.2234 -0.3464
52857SOL    HW176181  12.603   8.149  11.083  0.7666 -0.6868  0.5281
52857SOL    HW276182  12.713   8.238  11.136  0.3578  0.6458 -0.8113
52858SOL     OW76183   7.488   3.180   4.988  0.0091 -0.1456  0.1837
52858SOL    HW176184   7.410   3.235   4.997  0.2950  0.0913  1.3327
52858SOL    HW276185   7.460   3.108   4.932 -0.8196  0.3350 -0.0355
52859SOL     OW76186   5.557   8.402   3.916 -0.4273  0.2207 -0.0097
52859SOL    HW176187   5.624   8.470   3.924  0.6020 -0.7585 -0.0076
52859SOL    HW276188   5.595   8.338   3.856 -2.5803  1.0259 -2.3986
52860SOL     OW76189  13.122   0.081  11.462  0.1861 -0.0092  0.0515
52860SOL    HW176190  13.212   0.078  11.430  0.1758  1.1742 -0.1208
52860SOL    HW276191  13.074   0.129  11.394 -0.4228  0.0027  0.4837
52861SOL     OW76192   0.703   5.032  10.606  0.0048  0.4688 -0.3003
52861SOL    HW176193   0.744   5.065  10.686  2.4591 -1.2792 -0.7069
52861SOL    HW276194   0.649   4.958  10.636  1.5688 -0.7148 -0.2605
52862SOL     OW76195   3.446  12.508   7.927 -0.2240  0.4405  0.5119
52862SOL    HW176196   3.404  12.549   7.851  0.8770 -0.4507 -0.6293
52862SOL    HW276197   3.395  12.538   8.002 -2.5478 -0.1119 -0.7291
52863SOL     OW76198  12.452   4.006   4.332  0.3687 -0.1571 -0.0412
52863SOL    HW176199  12.363   3.970   4.330  0.4376 -0.5868  2.0483
52863SOL    HW276200  12.501   3.950   4.271 -1.1052  1.2623 -2.7346
52864SOL     OW76201  12.352   8.913   3.008  0.0785  0.3624 -0.3743
52864SOL    HW176202  12.375   8.821   2.990 -0.6724  0.4419 -1.8134
52864SOL    HW276203  12.274   8.929   2.955 -3.0012  0.3530  3.6051
52865SOL     OW76204   7.116   3.634   2.067  0.2164 -0.3219 -0.3539
52865SOL    HW176205   7.042   3.640   2.128  2.5280  1.6106  2.5408
52865SOL    HW276206   7.155   3.548   2.084  0.9760  0.2839  1.2283
52866SOL     OW76207   9.271   6.764   1.540  0.6063 -0.5336  0.4932
52866SOL    HW176208   9.337   6.771   1.471  1.0273 -0.5946  0.8823
52866SOL    HW276209   9.315   6.797   1.619 -0.3481  0.9614  0.4381
52867SOL     OW76210   9.184   6.460   1.487 -0.2294 -0.0274 -0.2598
52867SOL    HW176211   9.179   6.554   1.501 -2.0313 -0.2229  0.6303
52867SOL    HW276212   9.273   6.436   1.514  0.1499  1.3569 -0.2367
52868SOL     OW76213   2.720   6.430   9.291 -0.3143 -0.4124  0.0026
52868SOL    HW176214   2.703   6.345   9.332  0.0025 -1.0764 -1.2044
52868SOL    HW276215   2.670   6.492   9.344  0.4167 -1.1722  1.6424
52869SOL     OW76216  10.178   2.340  11.134 -0.4358  0.0270 -0.1431
52869SOL    HW176217  10.204   2.282  11.206  0.3911 -0.8152 -1.0886
52869SOL    HW276218  10.184   2.428  11.172  1.4244 -0.2959  0.4434
52870SOL     OW76219   3.831   3.573   7.076  0.0741  0.1114  0.7515
52870SOL    HW176220   3.753   3.522   7.057 -0.1016 -0.8722  3.7330
52870SOL    HW276221   3.897   3.509   7.102  0.2550  1.2088  3.2839
52871SOL     OW76222   8.203  13.625   9.861  0.1608 -0.6203  0.2595
52871SOL    HW176223   8.260  13.597   9.790  0.4350  3.5563 -1.4676
52871SOL    HW276224   8.122  13.652   9.817 -0.9461 -0.9675  1.9852
52872SOL     OW76225   2.581   9.409   9.106  0.3016  0.4300  0.3774
52872SOL    HW176226   2.595   9.415   9.200 -1.3298 -2.0992  0.8883
52872SOL    HW276227   2.488   9.431   9.094  0.1263 -0.6571 -0.4128
52873SOL     OW76228  10.482   7.183   2.171 -0.2402 -0.4223  0.0029
52873SOL    HW176229  10.451   7.243   2.102 -1.6514 -0.8807  0.2065
52873SOL    HW276230  10.526   7.113   2.123 -0.5094 -0.3292 -0.3893
52874SOL     OW76231   4.508  11.194   7.104  0.5168 -0.0697  0.0317
52874SOL    HW176232   4.472  11.280   7.082  0.2344 -0.7758 -2.6417
52874SOL    HW276233   4.478  11.177   7.193 -2.3468  1.1422 -0.6067
52875SOL     OW76234   8.860  11.769  10.013 -0.3845  0.1070  0.1475
52875SOL    HW176235   8.828  11.809   9.932 -0.7206  0.5636  0.4964
52875SOL    HW276236   8.940  11.817  10.034 -1.3663  1.3895  1.1518
52876SOL     OW76237  11.823   0.316   6.902  0.2288 -0.0489 -0.0593
52876SOL    HW176238  11.772   0.396   6.898  0.1195 -0.1555 -0.9517
52876SOL    HW276239  11.914   0.345   6.904  0.2391  0.0941 -1.5463
52877SOL     OW76240   2.030   2.505   8.578  0.1505 -0.4887  0.1138
52877SOL    HW176241   1.992   2.592   8.591 -1.1933 -0.4881 -3.0717
52877SOL    HW276242   1.955   2.447   8.570  0.9148 -1.2836 -1.6304
52878SOL     OW76243  11.796  13.545   0.923 -0.8522  0.0087 -0.7318
52878SOL    HW176244  11.709  13.513   0.899 -1.5861  0.1441  1.5192
52878SOL    HW276245  11.822  13.601   0.850 -2.2108 -0.8285 -1.9057
52879SOL     OW76246   3.939   7.665   2.679  0.0958  0.2762  0.3685
52879SOL    HW176247   4.029   7.699   2.674  1.4890 -2.9909  0.7623
52879SOL    HW276248   3.931   7.608   2.602 -1.0336 -0.7842  1.2438
52880SOL     OW76249   9.044   7.445   5.778 -0.3797  0.3808 -0.2994
52880SOL    HW176250   9.075   7.473   5.691 -0.1031 -0.5153 -0.5044
52880SOL    HW276251   8.952   7.472   5.781 -0.0476  1.5472 -0.3649
52881SOL     OW76252   7.972  11.542  10.780  0.5033  0.5568 -0.1828
52881SOL    HW176253   7.915  11.588  10.842 -2.7455 -0.6544 -2.0536
52881SOL    HW276254   8.017  11.613  10.733 -0.4497  1.6224  0.4561
52882SOL     OW76255   8.520   8.578  10.631  0.2218 -0.6253  0.8463
52882SOL    HW176256   8.581   8.507  10.647 -0.0787 -1.2656 -0.6535
52882SOL    HW276257   8.531   8.599  10.538  2.0975  3.0335  1.7027
52883SOL     OW76258   5.503   7.993  13.904 -0.4117  0.5178 -0.3630
52883SOL    HW176259   5.408   7.995  13.895 -0.5584 -0.6482  0.5278
52883SOL    HW276260   5.526   8.074  13.949 -0.9909  0.7848 -0.5540
52884SOL     OW76261   1.367   2.833   0.959 -0.2962 -0.3524 -0.1507
52884SOL    HW176262   1.329   2.921   0.966  0.4828  0.1172 -1.4806
52884SOL    HW276263   1.396   2.827   0.868  1.4688 -1.2197  0.4322
52885SOL     OW76264   7.034   4.543  13.429 -0.4345 -0.3006  0.3012
52885SOL    HW176265   7.028   4.616  13.367  3.1499  0.2973  0.4671
52885SOL    HW276266   7.041   4.585  13.515 -1.3067 -0.9848  0.7150
52886SOL     OW76267   6.336   7.917   1.337 -0.4420 -0.0201 -0.6539
52886SOL    HW176268   6.354   7.829   1.369 -1.4128 -0.2211 -0.6259
52886SOL    HW276269   6.341   7.972   1.415  0.2612 -0.0326 -0.6883
52887SOL     OW76270   3.404   8.717   6.931  0.8667  0.0339 -0.4480
52887SOL    HW176271   3.412   8.640   6.874  0.9570 -0.1943 -0.1317
52887SOL    HW276272   3.333   8.695   6.992  1.4265 -0.1342  0.1580
52888SOL     OW76273   9.470   6.304   2.051 -0.3604 -0.1773  0.1382
52888SOL    HW176274   9.397   6.290   2.111 -0.5689 -1.0285 -0.2986
52888SOL    HW276275   9.459   6.237   1.983 -0.5728  1.2775 -1.3011
52889SOL     OW76276   8.050   7.173   4.686 -0.2565  0.3544  0.0763
52889SOL    HW176277   8.017   7.087   4.713  1.4546 -0.4566 -0.2853
52889SOL    HW276278   8.107   7.154   4.612 -0.0035  1.8407 -0.1230
52890SOL     OW76279   6.840   9.396   6.016  0.5042  0.0435  0.1448
52890SOL    HW176280   6.755   9.366   6.047  0.1863  0.3206 -0.4489
52890SOL    HW276281   6.902   9.333   6.052 -0.0960 -1.0507 -0.6654
52891SOL     OW76282   6.849   5.832   2.503  0.0559 -0.5496 -0.1202
52891SOL    HW176283   6.805   5.747   2.500 -0.9595 -0.1056  1.2429
52891SOL    HW276284   6.836   5.863   2.593 -0.5119  1.5259 -0.8505
52892SOL     OW76285  12.246  10.079  13.443 -0.6643 -0.0891 -0.4223
52892SOL    HW176286  12.191  10.157  13.453 -1.1884 -0.5377  0.2652
52892SOL    HW276287  12.222  10.023  13.517 -1.9266 -1.9046 -2.0854
52893SOL     OW76288   7.000  13.572  10.116  0.0005  0.0786  0.4737
52893SOL    HW176289   6.975  13.491  10.071 -1.3935  0.4577  0.5473
52893SOL    HW276290   6.941  13.639  10.081  1.4117  1.1830  0.0899
52894SOL     OW76291   2.473   6.201   1.956  0.5846  0.6229 -0.6476
52894SOL    HW176292   2.565   6.184   1.979  0.3413 -3.6449 -1.8599
52894SOL    HW276293   2.477   6.260   1.882  2.3361  0.8021 -0.4576
52895SOL     OW76294   1.720   8.702  13.030  0.4127  0.0072  0.4197
52895SOL    HW176295   1.741   8.739  13.116 -0.4892  0.5229  0.4328
52895SOL    HW276296   1.802   8.662  13.001  2.0296  3.4630 -0.3386
52896SOL     OW76297   7.236  12.187   6.308 -0.3663  0.2800  0.5589
52896SOL    HW176298   7.260  12.140   6.387  0.8307 -1.0420 -0.5342
52896SOL    HW276299   7.234  12.120   6.240  2.1091  1.8186 -1.2187
52897SOL     OW76300  11.872  12.441   6.379  0.0433 -0.7834  0.4190
52897SOL    HW176301  11.893  12.394   6.299 -0.3654 -0.1795 -0.0501
52897SOL    HW276302  11.918  12.524   6.372  0.3346 -0.8869  1.0010
52898SOL     OW76303   9.784   7.803   0.812 -0.1564 -0.0147 -0.5291
52898SOL    HW176304   9.771   7.827   0.904  0.0234 -3.2951  0.4555
52898SOL    HW276305   9.696   7.809   0.773 -0.2089  1.5340 -0.2596
52899SOL     OW76306   2.800  11.592   1.015 -0.1453  1.0375 -0.7107
52899SOL    HW176307   2.724  11.587   1.074 -0.5100  0.4365 -1.2092
52899SOL    HW276308   2.781  11.665   0.956  0.0054  1.3453 -0.3826
52900SOL     OW76309   2.752  10.502   6.177  0.1293 -0.4787 -0.0361
52900SOL    HW176310   2.844  10.514   6.157  0.2787 -0.2984  0.7383
52900SOL    HW276311   2.751  10.442   6.252 -0.3830 -0.5230 -0.0722
52901SOL     OW76312  13.743  10.474  10.823 -0.1498  0.3597 -0.4603
52901SOL    HW176313  13.818  10.461  10.881  0.1146 -0.5065 -0.9931
52901SOL    HW276314  13.712  10.562  10.844  3.1729  2.2747 -2.6369
52902SOL     OW76315  12.233   3.899   2.180 -0.3238  0.1232 -0.4705
52902SOL    HW176316  12.154   3.952   2.167 -1.8819 -2.1684 -1.1411
52902SOL    HW276317  12.261   3.875   2.091 -0.0137 -0.6053 -0.1881
52903SOL     OW76318   9.094   5.018  13.389  0.1098  0.2860 -0.4057
52903SOL    HW176319   9.166   4.960  13.364 -1.6214 -1.3698 -1.8757
52903SOL    HW276320   9.031   4.962  13.434 -0.3053  1.6903  0.8710
52904SOL     OW76321  13.027  12.063  12.667 -0.6627  0.3338 -0.2347
52904SOL    HW176322  13.091  12.116  12.714  2.6272 -3.9538  0.7464
52904SOL    HW276323  13.041  12.084  12.575  0.7460  0.9508  0.0993
52905SOL     OW76324  10.553  11.796   7.387  0.2206 -0.1175 -0.0258
52905SOL    HW176325  10.476  11.852   7.400  1.1110  1.8326 -2.4252
52905SOL    HW276326  10.519  11.721   7.337 -0.0957  1.0709 -1.6914
52906SOL     OW76327   8.101   6.067   7.412 -0.0774  0.2678  0.0187
52906SOL    HW176328   8.076   5.979   7.438  0.8223 -0.2874 -0.9280
52906SOL    HW276329   8.032   6.095   7.352  0.3323 -0.3371 -0.7493
52907SOL     OW76330   5.757   0.636  13.806 -0.1623 -0.2548  0.0951
52907SOL    HW176331   5.839   0.590  13.788  1.5303  1.9798  1.5585
52907SOL    HW276332   5.735   0.611  13.895  0.2316  0.9185  0.5384
52908SOL     OW76333   7.920  13.748   4.967 -0.1628 -1.2322 -0.3427
52908SOL    HW176334   7.831  13.713   4.960 -0.6372 -0.2636  0.6332
52908SOL    HW276335   7.909  13.842   4.958  0.7899 -1.1101 -0.3159
52909SOL     OW76336   6.001   9.348  13.127 -0.1376 -0.1942 -0.0248
52909SOL    HW176337   5.928   9.407  13.148  0.5239  1.0756 -1.1324
52909SOL    HW276338   6.046   9.334  13.210 -0.1757  1.0639  0.2207
52910SOL     OW76339   9.284  13.311   3.119 -0.6234 -0.5035  0.8432
52910SOL    HW176340   9.353  13.374   3.099 -0.1797 -1.4371 -0.8377
52910SOL    HW276341   9.292  13.295   3.213  0.6159  0.3795  0.9082
52911SOL     OW76342   7.305   8.811   1.286  0.2297  0.7909 -0.2643
52911SOL    HW176343   7.210   8.809   1.272  0.1371  2.3926 -0.1335
52911SOL    HW276344   7.330   8.720   1.297 -1.2942  0.3318 -0.3631
52912SOL     OW76345   9.138  11.970   9.247  0.7525 -0.5177 -0.4048
52912SOL    HW176346   9.073  12.038   9.260  1.0748 -0.1636 -0.6373
52912SOL    HW276347   9.222  12.016   9.250  0.9423 -0.7917 -1.2643
52913SOL     OW76348  13.162  13.956   6.701  0.4214  0.2241 -0.0270
52913SOL    HW176349  13.184  14.045   6.728  2.7043  0.0287 -1.0022
52913SOL    HW276350  13.242  13.923   6.660 -1.0116 -1.5353 -1.6208
52914SOL     OW76351   9.612   9.024   0.852  0.4422  0.0805  0.2801
52914SOL    HW176352   9.577   8.980   0.774 -0.0293 -0.3211  0.7094
52914SOL    HW276353   9.534   9.047   0.903  0.7520  0.3106  0.6528
52915SOL     OW76354  13.008  13.697  13.606  0.2261  0.3450  0.0546
52915SOL    HW176355  13.048  13.612  13.588 -1.1577 -0.9871  2.6505
52915SOL    HW276356  13.000  13.739  13.520  2.7704 -1.2544 -1.0766
52916SOL     OW76357   4.804   9.223  12.081 -0.0844 -0.0235  0.4127
52916SOL    HW176358   4.826   9.313  12.058  1.8054 -0.5128  0.1023
52916SOL    HW276359   4.710   9.216  12.065  0.0197  1.4262 -1.1470
52917SOL     OW76360  13.376   0.978   7.303  1.1498 -0.1591 -0.3128
52917SOL    HW176361  13.288   0.941   7.307  1.1060  0.0302  2.9644
52917SOL    HW276362  13.434   0.907   7.332  1.7795  0.4461 -0.0432
52918SOL     OW76363  12.797  12.382  11.141  0.3813  0.1023 -0.1524
52918SOL    HW176364  12.879  12.343  11.112 -0.2319 -0.6663 -0.8916
52918SOL    HW276365  12.754  12.413  11.061  0.4463  1.5235  0.3318
52919SOL     OW76366   3.922   2.985   7.879 -0.4107 -0.2601 -0.3443
52919SOL    HW176367   3.846   2.930   7.899 -0.5225 -0.0935 -0.3034
52919SOL    HW276368   3.884   3.070   7.857 -0.1723  0.1632  0.8290
52920SOL     OW76369  13.230  13.725   6.446  0.3681 -0.5008 -0.3064
52920SOL    HW176370  13.201  13.691   6.361  0.0656 -0.5604 -0.1791
52920SOL    HW276371  13.200  13.661   6.510 -1.3628  0.6079  0.0682
52921SOL     OW76372  13.987  13.344   0.461  0.1110  0.4002  0.5964
52921SOL    HW176373  14.010  13.252   0.448 -0.5039  0.1714  1.0810
52921SOL    HW276374  13.986  13.381   0.373 -2.6095 -0.7832  0.0094
52922SOL     OW76375   0.290   9.010   0.771  0.2304  0.4297 -0.7360
52922SOL    HW176376   0.214   9.064   0.793  0.6338  2.0033 -2.9222
52922SOL    HW276377   0.338   9.001   0.853  0.2171  3.5573 -0.2841
52923SOL     OW76378  13.690   6.140   4.040 -0.3399  0.4715 -0.1928
52923SOL    HW176379  13.772   6.113   4.080 -1.2488 -0.2125  1.2698
52923SOL    HW276380  13.689   6.236   4.049  0.8641  0.6436 -1.4335
52924SOL     OW76381   3.668   4.206   8.092  0.0652 -0.9822  0.0216
52924SOL    HW176382   3.614   4.157   8.153  0.1192 -0.7166  0.2814
52924SOL    HW276383   3.715   4.269   8.146 -0.3406 -0.3374 -0.3625
52925SOL     OW76384  10.137  10.979   2.427 -0.0238  0.0819  0.4358
52925SOL    HW176385  10.197  10.921   2.379  1.2528  1.5332  0.1882
52925SOL    HW276386  10.192  11.053   2.453 -1.9286  2.0271 -0.7593
52926SOL     OW76387   0.655  13.980   1.464 -0.2464  0.2531  0.1440
52926SOL    HW176388   0.732  13.987   1.521  0.1929  0.3862 -0.4579
52926SOL    HW276389   0.684  14.016   1.381 -0.6292 -0.7119 -0.4154
52927SOL     OW76390   1.745   0.963  11.942  0.0299 -0.4996 -0.5713
52927SOL    HW176391   1.682   0.902  11.904  0.9937 -1.6652 -0.3812
52927SOL    HW276392   1.768   0.923  12.027  1.4037 -0.3977 -0.8730
52928SOL     OW76393  10.482   3.232   9.022 -0.6144  0.0263 -0.3411
52928SOL    HW176394  10.455   3.245   8.931 -0.9148 -0.6555 -0.3524
52928SOL    HW276395  10.400   3.226   9.071 -0.4674 -0.3982 -0.1408
52929SOL     OW76396   8.934   0.818   6.765  0.4667 -0.0407 -0.2362
52929SOL    HW176397   8.850   0.864   6.773  0.5609  0.4154 -1.6315
52929SOL    HW276398   8.939   0.763   6.843 -1.0778  0.0152 -0.0787
52930SOL     OW76399   3.582  10.619   7.683 -0.2362  0.5223 -0.0641
52930SOL    HW176400   3.635  10.543   7.707 -0.3110  0.5615  0.2316
52930SOL    HW276401   3.553  10.656   7.767  0.9657  1.7162 -0.1368
52931SOL     OW76402   1.081   8.755  10.855  1.0409  0.3722 -0.9290
52931SOL    HW176403   1.160   8.805  10.873  1.1429 -0.3506  0.7596
52931SOL    HW276404   1.009   8.818  10.868  1.1095 -0.0753  2.1383
52932SOL     OW76405   1.813   3.563   5.334  0.1343 -0.0212  0.0959
52932SOL    HW176406   1.830   3.639   5.390  1.0670  0.7903 -1.2456
52932SOL    HW276407   1.836   3.488   5.389 -0.7572  0.6405  1.4311
52933SOL     OW76408   2.645  13.532  10.876 -0.1905  0.1405 -0.3087
52933SOL    HW176409   2.676  13.470  10.811  0.0977 -0.5801  0.4882
52933SOL    HW276410   2.704  13.520  10.951 -2.0639 -0.9571  1.0897
52934SOL     OW76411   6.766   4.855   5.199  0.2263  0.1434  0.5027
52934SOL    HW176412   6.767   4.763   5.226  0.7638 -0.4428 -1.4192
52934SOL    HW276413   6.856   4.885   5.211 -0.0013  0.5216  1.3678
52935SOL     OW76414  13.071  12.927   9.933  0.0907  0.1766  0.4074
52935SOL    HW176415  13.150  12.948   9.883  0.3978  1.2093  1.2855
52935SOL    HW276416  13.100  12.863   9.997 -0.3157 -1.1896 -0.7297
52936SOL     OW76417   7.226   0.863  13.007  0.3492 -0.1927 -0.7103
52936SOL    HW176418   7.274   0.914  13.072  0.4780  1.8315 -2.2975
52936SOL    HW276419   7.165   0.810  13.058 -0.9196  2.6999  1.0317
52937SOL     OW76420  10.099  11.140   1.597 -0.4512 -0.4580 -0.2887
52937SOL    HW176421  10.048  11.105   1.524 -2.0423 -0.9790  1.0229
52937SOL    HW276422  10.166  11.074   1.613  0.4162  0.0340 -1.7574
52938SOL     OW76423   0.230   1.040  10.022  0.3029  0.2244 -0.6532
52938SOL    HW176424   0.301   1.104  10.018  0.9709 -0.5411 -1.4099
52938SOL    HW276425   0.186   1.057  10.106  2.8044 -0.7805  0.9795
52939SOL     OW76426   9.538  11.024   5.998  0.2266 -0.0098  0.0410
52939SOL    HW176427   9.617  11.070   6.026  0.5504 -1.0496  0.8809
52939SOL    HW276428   9.507  10.979   6.077 -1.1395  0.2795 -0.2981
52940SOL     OW76429   2.895  13.416   7.589 -0.0881  0.1920  0.3112
52940SOL    HW176430   2.976  13.367   7.575 -0.4179  0.3302 -2.5785
52940SOL    HW276431   2.825  13.351   7.580 -0.4590  0.8399 -2.1031
52941SOL     OW76432   4.202   4.466   3.919  0.1964 -0.5608 -0.1208
52941SOL    HW176433   4.194   4.518   3.839  1.4943  2.0647  1.3211
52941SOL    HW276434   4.112   4.458   3.951 -0.0358  1.1052 -0.2560
52942SOL     OW76435   3.549   3.345  13.688  0.2560 -0.2227  0.4400
52942SOL    HW176436   3.479   3.384  13.741  1.3947  1.2198  0.9419
52942SOL    HW276437   3.587   3.278  13.744  0.4086  0.1887  0.8272
52943SOL     OW76438  12.015   9.650  10.217 -0.5378  0.3592  0.1295
52943SOL    HW176439  12.032   9.563  10.252  0.4849  1.0059  1.3092
52943SOL    HW276440  12.077   9.659  10.144  0.2380  0.5644  0.8077
52944SOL     OW76441   3.233   4.670  13.494  0.0050 -0.3470  0.3887
52944SOL    HW176442   3.284   4.663  13.414  1.7223  0.2171  1.4006
52944SOL    HW276443   3.295   4.650  13.565 -0.9388  1.1462  1.7185
52945SOL     OW76444  13.246  11.612   7.102  0.4785  0.5307  0.4462
52945SOL    HW176445  13.258  11.517   7.094  0.9613  0.4560  1.7759
52945SOL    HW276446  13.249  11.644   7.012 -2.0904 -0.9627 -0.2676
52946SOL     OW76447   1.033  10.865   9.860 -0.3830 -0.3757  0.0360
52946SOL    HW176448   0.939  10.878   9.875 -0.5121  0.6456 -1.4393
52946SOL    HW276449   1.066  10.830   9.943 -2.3082 -2.1802  0.1338
52947SOL     OW76450   5.375   7.144   0.673  0.1616  0.4414 -0.5011
52947SOL    HW176451   5.327   7.227   0.678 -0.4302  0.0675  0.5348
52947SOL    HW276452   5.467   7.169   0.671 -0.0379  1.1616 -1.8972
52948SOL     OW76453   0.732   5.681   2.995 -0.0242  0.0808 -0.4990
52948SOL    HW176454   0.766   5.713   2.911  2.0078  0.4955  0.4143
52948SOL    HW276455   0.804   5.632   3.033 -1.1368 -0.6640  0.7363
52949SOL     OW76456   7.656   2.019  11.171  0.2661 -0.1870  0.2782
52949SOL    HW176457   7.586   2.016  11.106 -0.9783 -1.2349  1.6002
52949SOL    HW276458   7.721   1.956  11.139 -0.2104 -0.4933 -0.0968
52950SOL     OW76459   1.840  10.550   7.274  0.1741  0.1568 -0.2607
52950SOL    HW176460   1.744  10.548   7.280  0.1448  2.6126  1.2326
52950SOL    HW276461   1.860  10.495   7.198 -2.2858 -1.6379  0.2775
52951SOL     OW76462   0.575   6.184   4.870 -0.1878  0.3131  0.5082
52951SOL    HW176463   0.623   6.193   4.787 -1.1909  1.9740  0.0689
52951SOL    HW276464   0.495   6.235   4.857 -0.1661  0.9830  2.6604
52952SOL     OW76465   4.323   3.724   3.973  0.8619  0.4515  0.2110
52952SOL    HW176466   4.379   3.764   3.906  0.6386 -1.6179 -1.3288
52952SOL    HW276467   4.234   3.732   3.936  0.4314  1.3230  1.3782
52953SOL     OW76468  13.801   5.219   8.562 -0.0688  0.5120  0.1389
52953SOL    HW176469  13.721   5.167   8.572  0.3775  0.0768  1.8854
52953SOL    HW276470  13.805   5.240   8.469 -2.0989  0.3764 -0.0213
52954SOL     OW76471   4.036   5.557   2.138  0.2591 -0.1698  0.0154
52954SOL    HW176472   4.006   5.648   2.134  0.7551  0.0209  0.5003
52954SOL    HW276473   3.956   5.506   2.148  0.0307  0.2699  0.4734
52955SOL     OW76474   5.197  11.880  13.065 -0.2000 -0.4732  1.1595
52955SOL    HW176475   5.241  11.879  13.150 -0.2556 -2.2812  1.2181
52955SOL    HW276476   5.263  11.846  13.004  0.1272  1.5921  0.2827
52956SOL     OW76477   7.547   2.044   8.958 -0.2418  0.3509  0.6403
52956SOL    HW176478   7.594   2.004   8.885 -0.3378  1.4587 -0.0536
52956SOL    HW276479   7.474   2.090   8.917 -0.6833  0.4431  1.5038
52957SOL     OW76480   1.209  11.940   3.944 -0.9392  0.0371 -0.1219
52957SOL    HW176481   1.264  11.878   3.992 -2.4857 -2.7034 -1.5906
52957SOL    HW276482   1.124  11.897   3.940 -2.4578  2.8739 -0.2682
52958SOL     OW76483   8.292   1.796   5.890  0.1546  0.1826 -0.0860
52958SOL    HW176484   8.366   1.846   5.856 -0.5508  0.0683 -1.9112
52958SOL    HW276485   8.215   1.846   5.864 -0.4694 -0.1971  0.9443
52959SOL     OW76486   2.728   1.323   1.201  0.2223  0.4879 -0.6126
52959SOL    HW176487   2.666   1.277   1.145  0.4895  0.9016 -1.2563
52959SOL    HW276488   2.673   1.366   1.267 -0.0642 -0.3200 -0.3119
52960SOL     OW76489  12.950   2.344  13.871 -0.1435  0.6270 -0.9153
52960SOL    HW176490  12.894   2.295  13.811 -0.2784  1.4077 -1.4384
52960SOL    HW276491  12.983   2.418  13.819  1.3845  0.1896 -0.6310
52961SOL     OW76492   4.078  10.217   4.517 -0.2599 -0.0143 -0.0603
52961SOL    HW176493   4.109  10.172   4.439 -0.0095 -0.8693  0.5184
52961SOL    HW276494   4.123  10.301   4.516  0.2301 -0.2774 -0.5061
52962SOL     OW76495   7.572   2.498   6.842  0.3108 -0.3375 -0.3938
52962SOL    HW176496   7.497   2.473   6.789  0.2310  0.7835 -0.8394
52962SOL    HW276497   7.613   2.570   6.793 -0.5856  1.7454  1.6920
52963SOL     OW76498   5.412   3.127   6.856 -0.4890  0.1680 -0.0513
52963SOL    HW176499   5.360   3.206   6.872  1.4757  1.7197 -0.9121
52963SOL    HW276500   5.454   3.108   6.940 -2.3509 -1.1348  0.6702
52964SOL     OW76501   4.250   5.447   6.159 -0.4970 -0.1047  0.1654
52964SOL    HW176502   4.259   5.403   6.243  2.8299  1.6755  0.9088
52964SOL    HW276503   4.223   5.536   6.180  1.2830  0.6372 -0.4821
52965SOL     OW76504   6.359   5.230   2.776 -0.1549 -0.2366  0.5106
52965SOL    HW176505   6.412   5.270   2.707 -0.7489  1.8694  1.1843
52965SOL    HW276506   6.269   5.256   2.757 -0.6519 -1.6560  0.7737
52966SOL     OW76507  12.194   9.193  13.117 -0.1998  0.1679 -0.0547
52966SOL    HW176508  12.161   9.281  13.131 -0.0163  0.3425 -0.6725
52966SOL    HW276509  12.245   9.174  13.195 -0.1916  0.6329  0.0561
52967SOL     OW76510   0.724   5.708  10.816 -0.4048  0.0273  0.1524
52967SOL    HW176511   0.695   5.726  10.727 -1.0016 -1.5244 -0.0018
52967SOL    HW276512   0.740   5.613  10.818 -2.3188 -0.3471  2.2052
52968SOL     OW76513  11.303   2.782   2.677 -0.1898  0.6376  0.0363
52968SOL    HW176514  11.238   2.781   2.607  0.0215  0.0087 -0.1584
52968SOL    HW276515  11.285   2.862   2.726 -2.4930 -0.5669  1.2868
52969SOL     OW76516  14.036   7.865   7.350 -0.3886  0.0266  0.1533
52969SOL    HW176517  14.066   7.866   7.441 -1.4427  1.7143  0.5250
52969SOL    HW276518  14.105   7.819   7.303  0.5149 -0.2784  1.6939
52970SOL     OW76519   9.551  10.817   5.811  0.2983  0.2937  0.1498
52970SOL    HW176520   9.503  10.784   5.886 -0.4460  0.8282 -0.0790
52970SOL    HW276521   9.557  10.912   5.826 -0.9513  0.5957 -1.0572
52971SOL     OW76522   2.104  11.313   7.167 -0.0739  0.3847  0.7988
52971SOL    HW176523   2.184  11.277   7.130 -1.4917 -2.0034 -0.2024
52971SOL    HW276524   2.099  11.275   7.255  0.6361  1.8041  1.4812
52972SOL     OW76525  11.255   6.278  12.419  0.0599  0.1584 -0.2736
52972SOL    HW176526  11.205   6.204  12.454  0.2056  0.7481  1.2656
52972SOL    HW276527  11.341   6.242  12.398 -0.1368 -0.2799 -0.3283
52973SOL     OW76528   6.507  11.278  10.587  0.0599  0.4082 -0.1559
52973SOL    HW176529   6.501  11.228  10.669  0.6254 -2.7307 -1.8571
52973SOL    HW276530   6.417  11.304  10.568 -0.4870 -1.0814  0.2346
52974SOL     OW76531  12.355   3.861  11.527  0.0140  0.1076  0.3345
52974SOL    HW176532  12.418   3.926  11.559 -0.1956  0.0609  0.8615
52974SOL    HW276533  12.282   3.914  11.495  0.5325  0.1775 -0.7542
52975SOL     OW76534   0.892  10.976  11.128  0.1921 -0.4440  0.6339
52975SOL    HW176535   0.800  10.982  11.154  0.0868  0.7138  0.0767
52975SOL    HW276536   0.941  10.992  11.209 -0.0859 -1.2801  0.9745
52976SOL     OW76537  12.742  11.087   3.516  0.3037  0.3060 -0.1556
52976SOL    HW176538  12.743  11.164   3.573 -0.9086 -0.1756  0.5677
52976SOL    HW276539  12.713  11.120   3.431  0.8352  0.8246 -0.1359
52977SOL     OW76540   0.041   1.405   8.720 -0.3265  0.5700  0.3397
52977SOL    HW176541   0.078   1.402   8.808  1.2632  0.6976 -0.2888
52977SOL    HW276542   0.069   1.489   8.684  1.2423 -0.5261 -1.1594
52978SOL     OW76543   6.158   6.760  13.267  0.2813 -0.0165 -0.2136
52978SOL    HW176544   6.219   6.781  13.195  1.2592 -1.3560  0.1846
52978SOL    HW276545   6.165   6.665  13.277 -0.9928 -0.0373  0.6554
52979SOL     OW76546   3.081  10.052   3.722  0.5676  0.3453 -0.3882
52979SOL    HW176547   3.010  10.109   3.753 -0.2546 -0.3079 -1.0405
52979SOL    HW276548   3.039   9.993   3.659  1.8643  0.4994 -1.4298
52980SOL     OW76549   4.166   6.041   7.724 -0.1813  0.9112 -0.3992
52980SOL    HW176550   4.198   6.065   7.637 -0.2608 -1.9112 -1.3039
52980SOL    HW276551   4.234   6.074   7.783  1.5030  0.1338 -1.7978
52981SOL     OW76552   2.589   4.601   9.490 -0.2272 -0.2253 -0.0686
52981SOL    HW176553   2.511   4.569   9.535 -0.7659 -0.1788 -0.9570
52981SOL    HW276554   2.647   4.524   9.484 -0.4473 -0.4032  0.0776
52982SOL     OW76555   4.240   2.077   5.313  0.2912  0.8329 -0.2752
52982SOL    HW176556   4.206   2.164   5.292 -1.1363  0.3039 -0.3077
52982SOL    HW276557   4.216   2.063   5.404  1.7569  1.0080  0.1625
52983SOL     OW76558   1.049   9.537   2.187 -0.5695 -0.2626 -0.1229
52983SOL    HW176559   1.110   9.572   2.252 -0.3426 -2.4009  0.8938
52983SOL    HW276560   1.097   9.542   2.104 -0.5256  1.6522 -0.0344
52984SOL     OW76561   7.412  12.417   5.111 -0.2845  0.5610 -0.5504
52984SOL    HW176562   7.357  12.436   5.035  0.5377 -0.4291 -1.4339
52984SOL    HW276563   7.417  12.321   5.113 -1.0440  0.5308  1.3324
52985SOL     OW76564   1.021   8.802   8.330 -0.3963 -0.4165 -0.3852
52985SOL    HW176565   0.938   8.813   8.376 -0.4724 -1.5318 -0.2398
52985SOL    HW276566   1.080   8.864   8.373 -0.8424 -0.4348  0.2704
52986SOL     OW76567  10.382  11.058   4.451 -0.2852 -0.1614 -0.0111
52986SOL    HW176568  10.322  10.993   4.415 -0.8702  0.8605 -0.9418
52986SOL    HW276569  10.427  11.093   4.375 -0.6090  1.1340  0.3766
52987SOL     OW76570  10.335   5.817   8.562  0.0983  0.0442 -0.0864
52987SOL    HW176571  10.337   5.873   8.484 -1.7613  1.2124  0.6644
52987SOL    HW276572  10.282   5.741   8.536 -1.7614  1.1186  0.4256
52988SOL     OW76573   4.718   5.288   2.681 -0.3804 -0.2550 -0.4470
52988SOL    HW176574   4.810   5.267   2.700 -0.5170 -1.0452 -0.6454
52988SOL    HW276575   4.668   5.225   2.733 -0.8006 -0.2606 -0.8597
52989SOL     OW76576  11.135  13.570   8.649 -0.0055  0.0195 -0.3147
52989SOL    HW176577  11.082  13.526   8.716 -0.5527  1.0165 -0.0843
52989SOL    HW276578  11.109  13.662   8.653 -0.1816  0.0768 -2.0222
52990SOL     OW76579  12.677  13.877   2.544  0.3681 -0.3544  0.6225
52990SOL    HW176580  12.766  13.861   2.511  0.2324  0.6103 -0.2428
52990SOL    HW276581  12.639  13.939   2.482 -0.6351 -0.1237  1.4441
52991SOL     OW76582  10.444   9.327   0.303 -0.0175 -0.1188 -0.3524
52991SOL    HW176583  10.519   9.382   0.283 -1.7471  2.2674 -0.6713
52991SOL    HW276584  10.444   9.321   0.398 -0.1890  1.0695 -0.2610
52992SOL     OW76585   0.814   4.373   0.236  0.0729  0.5526 -0.1568
52992SOL    HW176586   0.757   4.382   0.313 -0.5963 -0.9533 -0.4424
52992SOL    HW276587   0.753   4.370   0.162  0.5976  0.1211 -0.5759
52993SOL     OW76588  10.012   2.752  12.177  0.0454  0.3760  0.1925
52993SOL    HW176589   9.960   2.701  12.116  1.8138 -0.8491 -0.3886
52993SOL    HW276590   9.987   2.720  12.263  1.0363 -1.4828 -0.1560
52994SOL     OW76591   5.048   8.538   6.276 -0.4240  0.4993 -0.1463
52994SOL    HW176592   5.029   8.542   6.370 -1.2014 -1.8149 -0.1452
52994SOL    HW276593   4.964   8.517   6.236  0.2980 -0.5984 -1.1342
52995SOL     OW76594   3.419   1.413   8.393 -0.2698  0.5340 -0.8118
52995SOL    HW176595   3.500   1.451   8.428 -0.8297 -0.7507  2.1996
52995SOL    HW276596   3.354   1.483   8.399 -0.6054  0.0894  1.9751
52996SOL     OW76597   4.219   7.129  13.838  0.2036  0.0520 -0.5725
52996SOL    HW176598   4.279   7.077  13.785 -1.2347 -1.8304 -0.4640
52996SOL    HW276599   4.139   7.076  13.843 -1.1299  2.0008  0.1076
52997SOL     OW76600   0.513   2.186   0.543 -0.3784  0.4795 -0.8479
52997SOL    HW176601   0.547   2.205   0.456 -1.2894  1.2056 -1.0632
52997SOL    HW276602   0.591   2.175   0.598  0.2768  3.4607 -1.0027
52998SOL     OW76603   1.752   1.436  10.316 -0.1465 -0.2663  0.2229
52998SOL    HW176604   1.730   1.492  10.242 -1.9322 -0.1354  0.7849
52998SOL    HW276605   1.701   1.356  10.300 -0.9074 -0.0634  1.4946
52999SOL     OW76606   9.664   0.240   6.644 -0.0709 -0.4029  0.4684
52999SOL    HW176607   9.615   0.209   6.568  0.4748 -1.0512  0.3812
52999SOL    HW276608   9.627   0.327   6.662  0.2366  0.0467 -0.9425
53000SOL     OW76609  10.825   8.403   0.855  0.5426 -0.2431 -0.5193
53000SOL    HW176610  10.773   8.483   0.865  1.2590  0.5565 -2.6286
53000SOL    HW276611  10.897   8.414   0.917 -0.4807 -0.2643  0.7117
53001SOL     OW76612   3.461   5.606   4.583 -0.0397  0.1949 -0.3319
53001SOL    HW176613   3.385   5.655   4.550  0.3609  1.7065  0.9008
53001SOL    HW276614   3.497   5.563   4.506 -2.4532 -1.0457 -0.8829
53002SOL     OW76615   9.462  10.963   1.846 -0.1125  0.3500 -0.8049
53002SOL    HW176616   9.399  10.912   1.795  0.7795 -0.9374 -0.6649
53002SOL    HW276617   9.548  10.939   1.811  0.5504 -0.6760  1.3326
53003SOL     OW76618  11.965   2.125   0.672  0.2956  0.2357  0.1069
53003SOL    HW176619  12.012   2.078   0.741  1.6193  1.3446 -0.0134
53003SOL    HW276620  11.910   2.188   0.718  1.6555  1.4145  0.1599
53004SOL     OW76621   7.727  10.784  12.430  0.1890 -0.7089  0.1287
53004SOL    HW176622   7.659  10.727  12.466  0.8725 -0.5612  1.7750
53004SOL    HW276623   7.809  10.739  12.451  0.6779  0.2435  0.3149
53005SOL     OW76624   2.744   2.299   9.220 -0.3987 -1.0600  0.4777
53005SOL    HW176625   2.693   2.238   9.274 -0.2138 -2.3120 -0.7015
53005SOL    HW276626   2.835   2.278   9.239 -0.2674  0.4696  1.7930
53006SOL     OW76627   0.027   8.019  12.117 -0.0096  0.3082 -0.7827
53006SOL    HW176628  -0.044   8.014  12.182  0.7047  0.5334  0.0251
53006SOL    HW276629   0.019   7.937  12.068  2.2189 -2.2307  2.5572
53007SOL     OW76630   7.549   3.043   9.078 -0.6616 -0.1552  0.1338
53007SOL    HW176631   7.548   2.949   9.098  1.1219 -0.0053  1.1730
53007SOL    HW276632   7.474   3.057   9.021 -1.1566 -2.1556  0.2451
53008SOL     OW76633   6.935   0.026   9.932 -0.0570  0.4879 -0.6098
53008SOL    HW176634   6.947   0.014  10.026 -0.8339  0.9237 -0.4515
53008SOL    HW276635   6.841   0.040   9.921 -0.0422 -0.0246 -1.5061
53009SOL     OW76636   3.184   8.934  13.646  0.0696 -0.9427 -0.0648
53009SOL    HW176637   3.096   8.969  13.633 -0.0534 -1.0808  0.3735
53009SOL    HW276638   3.218   8.919  13.557  1.1093  2.6205 -0.4341
53010SOL     OW76639  13.067  12.601   0.600 -0.6192  0.0126  0.6318
53010SOL    HW176640  13.013  12.668   0.643  1.2516  1.6870  0.5270
53010SOL    HW276641  13.056  12.616   0.507 -0.0232  0.3513  0.6090
53011SOL     OW76642  12.837   0.217   8.932 -0.0578 -0.6314  0.2046
53011SOL    HW176643  12.833   0.215   8.836 -0.4197 -0.1326  0.2076
53011SOL    HW276644  12.922   0.178   8.953  0.7745  0.8098 -0.3954
53012SOL     OW76645   2.910   6.907   6.305 -0.1097 -0.1455 -0.1902
53012SOL    HW176646   2.906   6.888   6.399 -1.6742 -0.3013 -0.2544
53012SOL    HW276647   2.830   6.956   6.288  1.9908  3.3904 -0.7431
53013SOL     OW76648   2.005   2.374   7.368  0.0977 -0.2975 -0.0190
53013SOL    HW176649   1.998   2.362   7.463 -0.8329  2.2808  0.2951
53013SOL    HW276650   2.069   2.308   7.341 -0.1384 -1.5831  2.2623
53014SOL     OW76651   2.503   8.795   6.003 -0.3342  0.1539 -0.3738
53014SOL    HW176652   2.573   8.823   5.944  0.0090  0.7927  0.3219
53014SOL    HW276653   2.468   8.876   6.039  1.0489 -0.2501  2.1142
53015SOL     OW76654   3.845   4.602   5.377  0.2585 -0.9346 -0.1422
53015SOL    HW176655   3.775   4.593   5.441  1.0068  0.4835  0.9281
53015SOL    HW276656   3.921   4.563   5.419  0.7764  0.0829 -0.1175
53016SOL     OW76657   0.577   5.540  11.376  0.2691 -0.1311  0.1147
53016SOL    HW176658   0.509   5.484  11.338  0.1541  0.4534 -0.5513
53016SOL    HW276659   0.529   5.607  11.424  0.2823  1.2567 -1.6971
53017SOL     OW76660   0.472   4.440   9.287  0.2959 -0.5622  0.2975
53017SOL    HW176661   0.465   4.355   9.331 -0.4124 -0.6852 -0.0256
53017SOL    HW276662   0.560   4.441   9.250  0.7633 -0.6181  1.3630
53018SOL     OW76663   1.110  10.959   0.903  0.4659 -0.4738 -0.1501
53018SOL    HW176664   1.065  10.879   0.879 -1.5547  0.9639 -1.4750
53018SOL    HW276665   1.081  10.979   0.992 -1.4670  0.3315 -0.9162
53019SOL     OW76666  12.786   8.431  11.442 -0.2777 -0.4872 -0.2952
53019SOL    HW176667  12.847   8.487  11.490 -2.4819  2.4218 -0.6255
53019SOL    HW276668  12.817   8.434  11.352  0.1029 -0.4977 -0.1662
53020SOL     OW76669  11.724  12.228   2.747 -0.1540 -0.5602 -0.1480
53020SOL    HW176670  11.664  12.156   2.765 -0.0878 -0.9440 -1.4054
53020SOL    HW276671  11.808  12.186   2.729  1.0190  0.0268  3.2317
53021SOL     OW76672  10.363   7.967   4.413  0.1044 -0.7654 -0.1705
53021SOL    HW176673  10.318   7.896   4.459  0.8572 -0.5885  0.8747
53021SOL    HW276674  10.452   7.936   4.402  0.5438  0.1540  0.6421
53022SOL     OW76675   2.189  12.234  11.676  0.1317 -0.3398 -0.0276
53022SOL    HW176676   2.229  12.305  11.727  0.4034 -1.2320  1.0614
53022SOL    HW276677   2.259  12.169  11.669 -0.2318 -0.6631 -0.6773
53023SOL     OW76678   9.310  10.730   3.697  0.3169 -0.1098 -0.3445
53023SOL    HW176679   9.227  10.681   3.705  0.5326 -0.3180  0.8447
53023SOL    HW276680   9.374  10.663   3.674  1.0135 -0.9000  3.2644
53024SOL     OW76681   8.759   3.686  10.984 -0.2032  0.2617 -0.2678
53024SOL    HW176682   8.852   3.709  10.989 -0.6583  2.1153  0.2991
53024SOL    HW276683   8.732   3.671  11.074 -0.1294 -1.8106 -0.5528
53025SOL     OW76684   3.269   3.205   8.855 -0.0593 -0.0764 -0.0878
53025SOL    HW176685   3.298   3.207   8.764 -1.5043  1.2711 -0.5661
53025SOL    HW276686   3.182   3.164   8.851  0.1478 -0.6313  0.7931
53026SOL     OW76687  10.155  13.973   1.993 -0.1775 -0.1026  0.3061
53026SOL    HW176688  10.148  14.044   1.930 -0.2734  0.7916  1.2997
53026SOL    HW276689  10.181  14.015   2.075  1.6905 -1.4389  0.4857
53027SOL     OW76690   5.733   9.988  11.338 -0.0337 -0.0549 -0.0982
53027SOL    HW176691   5.751   9.971  11.431 -0.0086  0.4416 -0.0115
53027SOL    HW276692   5.773  10.073  11.321  1.5027 -0.9219 -1.0238
53028SOL     OW76693  13.451  10.093  10.082 -0.6529  0.1010 -0.1507
53028SOL    HW176694  13.496  10.139  10.012  1.7204 -1.9287 -0.0940
53028SOL    HW276695  13.403  10.023  10.038 -0.0574 -0.4947  0.1306
53029SOL     OW76696   4.100   7.037  12.351  0.2218  0.4358  0.0819
53029SOL    HW176697   4.095   7.116  12.406 -0.4739  1.0678 -0.8663
53029SOL    HW276698   4.030   6.980  12.384 -1.3001  1.4995 -1.1640
53030SOL     OW76699   5.041  13.093  11.060  0.1161 -0.1783  0.2131
53030SOL    HW176700   5.029  13.005  11.096  1.2275  0.0666  1.2259
53030SOL    HW276701   5.014  13.085  10.968  0.7936 -1.7346  0.1137
53031SOL     OW76702   1.094  10.088   8.644  0.5279  0.1709 -0.2925
53031SOL    HW176703   1.026  10.127   8.588  0.2311 -0.8913 -0.6925
53031SOL    HW276704   1.051  10.012   8.684  1.1415  0.1593  0.3579
53032SOL     OW76705   1.327   9.077  11.558 -0.0093 -0.1180  0.1111
53032SOL    HW176706   1.245   9.057  11.602  0.0938 -0.7497  0.0242
53032SOL    HW276707   1.342   9.003  11.500 -0.3333  0.8592 -1.2725
53033SOL     OW76708  13.462   4.919  11.904 -0.0740 -0.5029 -0.1079
53033SOL    HW176709  13.463   4.823  11.908  1.1791 -0.4502  1.6204
53033SOL    HW276710  13.552   4.943  11.884 -0.2157  0.3368  0.2443
53034SOL     OW76711  13.487   6.535   7.466 -0.2161  0.4897  0.1745
53034SOL    HW176712  13.477   6.488   7.549 -1.5042  0.4583  0.0155
53034SOL    HW276713  13.420   6.499   7.409  1.3015 -0.2024 -1.2533
53035SOL     OW76714  13.294  12.953   1.423  0.4560 -0.6642  0.2379
53035SOL    HW176715  13.388  12.940   1.439  0.1124 -1.6504  1.7608
53035SOL    HW276716  13.253  12.930   1.507 -1.0474  1.2503  0.1039
53036SOL     OW76717   7.254   2.545   0.347 -0.3241  0.9203 -0.4487
53036SOL    HW176718   7.161   2.557   0.327 -1.0470 -1.7185  0.9100
53036SOL    HW276719   7.297   2.540   0.262 -1.7546  0.0531 -1.1524
53037SOL     OW76720   2.157   2.658   7.624 -0.6614 -0.6514 -0.1330
53037SOL    HW176721   2.157   2.708   7.542 -1.8782 -0.1925  0.1257
53037SOL    HW276722   2.128   2.570   7.599 -0.4973 -0.6683 -0.2684
53038SOL     OW76723   4.442   5.080   4.759 -0.1544  0.6121  0.3938
53038SOL    HW176724   4.360   5.051   4.720  0.8257 -2.9863  0.6461
53038SOL    HW276725   4.438   5.050   4.849  1.9480 -1.0083  0.0236
53039SOL     OW76726   5.503   3.337   8.518  0.3257  0.3450 -0.0390
53039SOL    HW176727   5.421   3.323   8.566 -0.3346  0.7589 -1.0136
53039SOL    HW276728   5.568   3.288   8.567 -0.1837  1.3108  1.6648
53040SOL     OW76729   0.057  11.388   0.809  0.3874 -0.0748  0.0052
53040SOL    HW176730  -0.022  11.417   0.854  0.3579  1.2953 -0.8581
53040SOL    HW276731   0.090  11.467   0.766  2.7972 -0.3907  1.1555
53041SOL     OW76732  12.271   7.869   7.599 -0.0291  0.4210 -0.3586
53041SOL    HW176733  12.279   7.837   7.509  0.1705 -1.8009  0.3837
53041SOL    HW276734  12.333   7.816   7.648 -1.8488 -0.1256  1.4765
53042SOL     OW76735   4.216   5.378  11.336  0.2107 -0.9036 -0.0408
53042SOL    HW176736   4.180   5.420  11.257  0.5620 -0.3877  0.0664
53042SOL    HW276737   4.162   5.301  11.349  0.6649 -1.4613 -1.2735
53043SOL     OW76738  12.899  12.891   5.664 -0.2080 -0.2002 -0.2260
53043SOL    HW176739  12.848  12.917   5.741 -0.1865  0.0026 -0.2788
53043SOL    HW276740  12.860  12.808   5.636 -1.4440  0.6436 -1.1006
53044SOL     OW76741  12.634   8.562   9.002  0.0373  1.1796  0.3734
53044SOL    HW176742  12.637   8.617   8.924 -2.9949  0.7865 -0.1122
53044SOL    HW276743  12.570   8.494   8.983  1.7658 -1.0795  1.9387
53045SOL     OW76744   1.617   4.184   9.979  0.5054 -0.5452  0.5589
53045SOL    HW176745   1.525   4.189  10.007  0.7316  0.2008  1.2131
53045SOL    HW276746   1.619   4.231   9.896  0.5014  0.4943  1.1257
53046SOL     OW76747   3.475   5.067   2.408 -0.4305 -0.5974 -0.2293
53046SOL    HW176748   3.473   5.001   2.477  1.3588 -1.0346 -0.5420
53046SOL    HW276749   3.543   5.129   2.436 -1.6360  0.7865 -0.2504
53047SOL     OW76750   5.721   3.000   2.183 -0.4417  0.4325  0.5085
53047SOL    HW176751   5.690   2.961   2.264 -2.7780  1.8337  0.3781
53047SOL    HW276752   5.751   2.926   2.130 -0.2719 -0.6421  2.0547
53048SOL     OW76753   9.383  10.592   4.979  0.2286 -0.1786  0.3175
53048SOL    HW176754   9.316  10.589   4.911  0.4625  0.9025  0.0135
53048SOL    HW276755   9.407  10.501   4.994 -0.8514 -0.5357 -0.0207
53049SOL     OW76756  10.730   8.698   5.334  0.3827  0.1275  0.5890
53049SOL    HW176757  10.705   8.639   5.263 -1.5253 -1.0320  2.1184
53049SOL    HW276758  10.815   8.732   5.308  1.3780 -2.9449 -0.5976
53050SOL     OW76759   3.846   9.003   6.846 -0.1143 -0.3734  0.1249
53050SOL    HW176760   3.774   8.953   6.883  0.2366 -0.5648  0.5602
53050SOL    HW276761   3.809   9.044   6.767 -1.1544  0.8001  1.1816
53051SOL     OW76762   8.597   2.599   1.420 -0.3628 -0.2948 -0.0753
53051SOL    HW176763   8.616   2.505   1.426 -1.4449 -0.4373  1.9465
53051SOL    HW276764   8.507   2.603   1.389 -0.4196  0.0762  0.1393
53052SOL     OW76765  12.622  12.744  10.356 -0.4642 -0.0123 -0.0445
53052SOL    HW176766  12.591  12.661  10.391 -1.6888 -0.1441 -1.4016
53052SOL    HW276767  12.648  12.725  10.266  0.4907  0.8119  0.0314
53053SOL     OW76768   8.337   9.397  13.690 -0.0690 -0.4466 -0.0453
53053SOL    HW176769   8.303   9.309  13.705 -0.0051 -0.6921 -1.2836
53053SOL    HW276770   8.286   9.453  13.748  0.1827 -1.3476  1.0787
53054SOL     OW76771   0.937   3.787   1.642 -0.2407 -0.4651  0.3391
53054SOL    HW176772   0.940   3.692   1.635 -0.7663 -0.5508  1.2688
53054SOL    HW276773   0.983   3.807   1.723 -0.1009  0.0801  0.1297
53055SOL     OW76774   7.895   1.509  13.785 -0.3871 -0.0835 -0.0887
53055SOL    HW176775   7.864   1.592  13.750 -0.6067  0.1457  0.6261
53055SOL    HW276776   7.840   1.443  13.742  0.4180  0.0444 -1.3762
53056SOL     OW76777  12.475  14.062   3.875  0.1133  0.1229 -0.1279
53056SOL    HW176778  12.484  14.099   3.787 -0.0966 -0.0134 -0.2090
53056SOL    HW276779  12.424  13.982   3.862 -0.1129  0.2200  0.1447
53057SOL     OW76780   2.220   2.437   2.399 -0.0688 -0.4633  0.3051
53057SOL    HW176781   2.234   2.494   2.323 -0.7046 -0.0629  0.4876
53057SOL    HW276782   2.136   2.395   2.382  0.6136 -1.7406 -0.0665
53058SOL     OW76783   8.938  13.530  14.058 -0.1176  0.3054  0.1604
53058SOL    HW176784   8.998  13.539  14.132  1.0042  0.5829 -0.7577
53058SOL    HW276785   8.990  13.488  13.989 -1.3328 -0.5672 -0.2671
53059SOL     OW76786   6.546   2.311   2.930 -0.2587 -0.0601  0.0048
53059SOL    HW176787   6.620   2.370   2.941 -0.6506  0.7140 -1.2268
53059SOL    HW276788   6.470   2.364   2.952 -0.6451  0.0561 -1.4900
53060SOL     OW76789  13.283   0.135  13.870 -0.3028 -0.1907 -0.3141
53060SOL    HW176790  13.189   0.123  13.882 -0.0201 -2.3429  0.1511
53060SOL    HW276791  13.307   0.074  13.800  0.7252  0.3913 -0.4876
53061SOL     OW76792   7.196   8.079   3.413  0.3285  0.3755  0.6059
53061SOL    HW176793   7.142   8.033   3.477 -1.7315 -0.3503 -1.4900
53061SOL    HW276794   7.275   8.025   3.405 -0.2990 -0.6540  1.0697
53062SOL     OW76795   6.246  11.957   2.534 -0.6557  0.0101  0.4037
53062SOL    HW176796   6.316  11.989   2.591 -0.7794  0.2080  0.4453
53062SOL    HW276797   6.282  11.965   2.445 -0.7504  0.4341  0.4013
53063SOL     OW76798   1.758  13.020   0.299  0.3771 -0.2307  0.8333
53063SOL    HW176799   1.712  13.000   0.218  0.7103 -0.1194  0.6183
53063SOL    HW276800   1.823  12.950   0.308 -0.9034 -1.3344  1.9831
53064SOL     OW76801   5.935   5.629   5.632 -0.0509 -0.0152  0.0714
53064SOL    HW176802   5.930   5.595   5.721 -0.6245 -1.4663 -0.4805
53064SOL    HW276803   5.903   5.719   5.639  0.9580  0.2693  1.4931
53065SOL     OW76804   3.269  10.625   8.222 -0.1363  0.0399  0.1289
53065SOL    HW176805   3.357  10.603   8.191 -0.6734  1.0098 -2.3236
53065SOL    HW276806   3.237  10.545   8.263  1.0156 -1.0626 -1.0432
53066SOL     OW76807   1.836   3.089   5.101  0.2922  0.2027  0.5391
53066SOL    HW176808   1.755   3.141   5.103 -0.8622 -1.4465 -0.0762
53066SOL    HW276809   1.860   3.078   5.193  0.3449  1.4385  0.6971
53067SOL     OW76810  12.224   5.403   1.926  0.3103 -0.0965  0.2685
53067SOL    HW176811  12.301   5.448   1.961  1.4638 -2.0205  0.3586
53067SOL    HW276812  12.261   5.336   1.867 -1.3044 -1.0004  0.2429
53068SOL     OW76813   3.022   7.442   6.283  0.1466 -0.4336  0.5501
53068SOL    HW176814   2.970   7.386   6.225 -0.4406  0.5450  0.1012
53068SOL    HW276815   3.065   7.381   6.343 -0.4434 -1.3616  0.0575
53069SOL     OW76816   8.587   6.212   9.812 -0.5513  0.4242  0.1887
53069SOL    HW176817   8.646   6.288   9.816  0.6836 -0.3338 -1.8520
53069SOL    HW276818   8.644   6.137   9.830 -1.1941 -0.2059 -0.3577
53070SOL     OW76819  12.593  11.685  11.317 -0.3246  0.3887 -0.4260
53070SOL    HW176820  12.567  11.624  11.386 -0.7674 -0.8713 -1.6548
53070SOL    HW276821  12.526  11.754  11.319 -0.8276 -0.1000 -0.1590
53071SOL     OW76822   5.685   6.757   6.777  0.1143  0.2188  0.4002
53071SOL    HW176823   5.673   6.772   6.683 -1.4212  0.3478  0.5939
53071SOL    HW276824   5.779   6.768   6.791  0.4691 -0.4640 -1.2311
53072SOL     OW76825   5.617   9.139  11.325  0.3982 -0.1254 -0.2586
53072SOL    HW176826   5.613   9.052  11.286  1.3620 -0.1960 -0.2163
53072SOL    HW276827   5.538   9.145  11.380  1.1331 -1.5790  1.0025
53073SOL     OW76828   6.392  10.898   6.304 -0.3774 -0.2046 -0.5374
53073SOL    HW176829   6.300  10.904   6.278 -0.3708  0.4793 -0.4278
53073SOL    HW276830   6.426  10.987   6.291 -0.2377  0.0344  1.2566
53074SOL     OW76831   7.165  13.984   8.031 -0.5540 -0.0957  0.1569
53074SOL    HW176832   7.104  14.034   7.976 -0.1088  1.3033  0.9010
53074SOL    HW276833   7.110  13.947   8.100 -0.9523 -1.0225 -0.6237
53075SOL     OW76834   1.925   7.479  11.634  0.2677 -0.1829 -0.1472
53075SOL    HW176835   2.012   7.495  11.597  0.6235 -0.3607  0.5975
53075SOL    HW276836   1.865   7.494  11.561  0.7648  1.8733 -0.2040
53076SOL     OW76837  14.024  12.932   0.118 -0.2239  0.2006 -0.8828
53076SOL    HW176838  14.086  12.870   0.157  0.4708  1.0340 -0.6388
53076SOL    HW276839  13.973  12.965   0.193  0.4115  1.0244 -0.8035
53077SOL     OW76840   4.765  13.826  10.718 -0.4255 -0.1420  0.3140
53077SOL    HW176841   4.670  13.833  10.714 -0.4364 -0.9000 -2.4167
53077SOL    HW276842   4.783  13.733  10.702  0.7709 -0.4963  3.0996
53078SOL     OW76843   7.339  11.502   1.821 -0.0867 -0.0190  0.4315
53078SOL    HW176844   7.420  11.453   1.837  0.1465 -0.2005 -1.1717
53078SOL    HW276845   7.311  11.529   1.909  1.2977 -0.5872  1.0973
53079SOL     OW76846  11.233   8.132   1.894 -0.7199  0.2145  0.3038
53079SOL    HW176847  11.241   8.145   1.988  0.8971 -0.0584  0.2411
53079SOL    HW276848  11.313   8.086   1.869 -0.6140  1.2040 -1.3740
53080SOL     OW76849  13.681   6.749   7.587 -0.0395  0.2299 -0.1171
53080SOL    HW176850  13.609   6.695   7.555 -0.7619  1.0263  0.1450
53080SOL    HW276851  13.639   6.822   7.633  0.9378  0.3895  0.5638
53081SOL     OW76852   6.711   6.961  13.615  0.1553 -0.4625  0.1448
53081SOL    HW176853   6.750   6.984  13.699  0.2240  1.4519 -0.3609
53081SOL    HW276854   6.732   6.868  13.603  2.6342 -0.0972  0.9372
53082SOL     OW76855   0.220   6.723   7.678 -0.0773  0.0611 -0.2247
53082SOL    HW176856   0.209   6.695   7.769  1.8891  1.8965  0.6564
53082SOL    HW276857   0.133   6.755   7.652 -0.1019  2.1111  1.9928
53083SOL     OW76858   0.254   6.848   6.033 -0.6082  0.3941  0.5453
53083SOL    HW176859   0.230   6.938   6.056 -0.5325  0.6044 -0.1612
53083SOL    HW276860   0.349   6.847   6.034 -0.5646 -0.4505  3.3724
53084SOL     OW76861   7.734   5.775   3.095 -0.4524  0.2288 -0.4548
53084SOL    HW176862   7.649   5.796   3.058 -0.6460  0.3117  0.0345
53084SOL    HW276863   7.747   5.840   3.164  0.2802  0.5996 -0.9265
53085SOL     OW76864   0.285   9.874   2.071  0.1245  0.2179 -0.1500
53085SOL    HW176865   0.301   9.790   2.028 -0.3905 -0.2957  0.6296
53085SOL    HW276866   0.193   9.870   2.097  0.1486  0.9433  0.0542
53086SOL     OW76867  10.919   1.428   6.068 -0.2002  0.1452 -0.3793
53086SOL    HW176868  10.826   1.418   6.047 -0.0057  0.2290 -1.3089
53086SOL    HW276869  10.963   1.431   5.983  0.5753  0.9199  0.0331
53087SOL     OW76870   5.005   5.972   0.861 -0.5624 -0.2969 -0.5034
53087SOL    HW176871   5.024   6.025   0.784  1.7353 -0.8242 -0.3725
53087SOL    HW276872   5.022   5.882   0.833 -0.4466 -0.5741  0.4129
53088SOL     OW76873  10.661   1.493   7.129  0.0211  1.0029 -0.0289
53088SOL    HW176874  10.698   1.416   7.172  1.1664 -0.3790 -3.1321
53088SOL    HW276875  10.737   1.547   7.107 -0.5928  2.0586  0.4052
53089SOL     OW76876   1.973   4.736  13.755  0.1454  0.3813  0.1028
53089SOL    HW176877   1.950   4.797  13.685 -0.9187  0.2326  0.3008
53089SOL    HW276878   1.998   4.655  13.709 -3.0103 -0.5995 -0.1810
53090SOL     OW76879  13.595   9.472   9.531  0.1237 -0.1591  0.6489
53090SOL    HW176880  13.631   9.388   9.502 -1.0915 -0.4530 -0.0949
53090SOL    HW276881  13.576   9.460   9.624  0.9950 -0.3200  0.8137
53091SOL     OW76882   3.470   6.501   4.199  0.0165 -0.1299  0.1714
53091SOL    HW176883   3.411   6.522   4.271 -1.0931 -0.5751 -0.5863
53091SOL    HW276884   3.454   6.408   4.181  0.6602 -0.1558 -0.3074
53092SOL     OW76885  13.434   4.290  11.491  0.8975  0.3783  0.7710
53092SOL    HW176886  13.432   4.251  11.578 -0.9550 -0.2696  0.4687
53092SOL    HW276887  13.400   4.378  11.503 -0.2087 -0.0122  0.5810
53093SOL     OW76888   4.066  13.674   8.384 -0.1956  0.3022  0.2159
53093SOL    HW176889   4.070  13.763   8.349  1.1800  0.6081  1.0643
53093SOL    HW276890   3.991  13.674   8.443 -0.5558  0.7209 -0.2359
53094SOL     OW76891  10.767   9.208   0.411  0.5853 -0.1737  0.5355
53094SOL    HW176892  10.684   9.161   0.404  0.3525  0.3018 -0.0689
53094SOL    HW276893  10.810   9.171   0.488  0.5842 -1.6293 -0.1326
53095SOL     OW76894   0.796   9.065  11.873 -0.1287 -0.5411 -0.0885
53095SOL    HW176895   0.724   9.020  11.916 -0.9197  1.5344  0.9125
53095SOL    HW276896   0.875   9.026  11.912 -0.7949  1.0235  3.2304
53096SOL     OW76897  11.577   8.915  12.164  0.0091 -0.2641  0.3024
53096SOL    HW176898  11.531   8.982  12.215  2.0111  0.5357  1.1390
53096SOL    HW276899  11.593   8.955  12.079 -0.7129 -0.5089  0.0429
53097SOL     OW76900   1.090   0.243   9.820  0.5293 -0.7880  0.1760
53097SOL    HW176901   1.085   0.148   9.816  1.6568 -0.8754  0.6801
53097SOL    HW276902   1.153   0.267   9.753  1.9255 -0.5724  1.5208
53098SOL     OW76903   3.349  10.001   8.469  0.9019  0.6768 -0.1969
53098SOL    HW176904   3.344  10.067   8.400  2.5906  0.1610 -0.8650
53098SOL    HW276905   3.443   9.990   8.484  0.6424 -1.2131  0.2432
53099SOL     OW76906   3.610   2.543   7.399 -0.3712 -0.2490  0.0348
53099SOL    HW176907   3.515   2.552   7.390 -0.5917 -0.1710  1.9833
53099SOL    HW276908   3.644   2.631   7.385 -0.7988  0.1299  1.2329
53100SOL     OW76909   4.438  11.974   1.716  0.0980 -0.5984  0.0719
53100SOL    HW176910   4.518  11.922   1.717  0.4941 -0.0058 -0.2382
53100SOL    HW276911   4.423  11.995   1.808  0.2800 -0.7361  0.1356
53101SOL     OW76912  13.932   6.290   2.337  0.4257  0.6590 -0.0556
53101SOL    HW176913  13.969   6.344   2.406 -2.1015  0.9936  1.1624
53101SOL    HW276914  13.896   6.352   2.274 -0.4942  0.4105  0.2061
53102SOL     OW76915   2.533  10.862  11.294 -0.0863 -0.4107 -0.1588
53102SOL    HW176916   2.477  10.791  11.325  0.9696 -0.8172  0.9067
53102SOL    HW276917   2.612  10.856  11.348  0.3454  1.1090 -0.5561
53103SOL     OW76918   1.760   1.995   0.270 -0.2561  0.2125  0.2745
53103SOL    HW176919   1.765   1.973   0.176 -0.4370 -0.5310  0.4294
53103SOL    HW276920   1.799   1.919   0.314  1.7893  1.4345  0.7311
53104SOL     OW76921  11.101   9.341   7.844  0.1226 -0.3054 -0.1774
53104SOL    HW176922  11.053   9.325   7.926  1.1540  0.7148  0.6663
53104SOL    HW276923  11.191   9.314   7.863  0.6652  1.1670 -0.5149
53105SOL     OW76924   2.366  12.756  11.361  0.0316  0.1706 -0.5007
53105SOL    HW176925   2.291  12.728  11.414 -1.0788  0.4317 -1.8844
53105SOL    HW276926   2.442  12.741  11.418 -1.1581  1.2873  1.5046
53106SOL     OW76927   0.948   7.600   2.642 -0.7479 -0.4029 -0.1244
53106SOL    HW176928   0.859   7.619   2.671 -0.3814 -0.0371  0.7694
53106SOL    HW276929   0.959   7.506   2.658 -0.9212 -0.4236 -0.1222
53107SOL     OW76930   7.208   0.987   8.179  0.1450 -0.0390  0.9339
53107SOL    HW176931   7.177   0.916   8.123  2.3534 -1.5988  1.5168
53107SOL    HW276932   7.157   1.063   8.153 -1.9615 -1.7140 -0.0975
53108SOL     OW76933   2.602  13.413   7.366  0.2771  0.2643  0.0073
53108SOL    HW176934   2.632  13.324   7.385 -0.7917 -0.4593 -1.5169
53108SOL    HW276935   2.681  13.467   7.376  0.8626 -0.7546  1.3453
53109SOL     OW76936   2.416  10.011   3.956  0.2805  0.1860  0.2687
53109SOL    HW176937   2.382   9.970   3.876 -2.1102  2.2868  0.0633
53109SOL    HW276938   2.397   9.948   4.025 -0.3864 -0.4092 -0.4336
53110SOL     OW76939   5.272  13.221   2.604 -0.0810  0.4141 -0.2496
53110SOL    HW176940   5.221  13.231   2.685 -0.5547 -0.7854 -0.3766
53110SOL    HW276941   5.268  13.307   2.562 -1.8105  0.4215 -0.1281
53111SOL     OW76942   1.693  12.636  12.946 -0.6989 -0.2439 -0.2619
53111SOL    HW176943   1.757  12.704  12.927 -1.0731  0.2547  0.2276
53111SOL    HW276944   1.676  12.644  13.040 -0.4973 -1.2355 -0.1341
53112SOL     OW76945  12.541  12.655   8.893  0.5207 -0.0300 -0.2387
53112SOL    HW176946  12.452  12.648   8.928  0.8543  0.3613  0.7398
53112SOL    HW276947  12.584  12.574   8.921  0.4887 -0.1902 -0.6530
53113SOL     OW76948  11.039  11.527   5.888 -0.3548 -0.1575  0.0287
53113SOL    HW176949  11.047  11.432   5.890 -1.1705 -0.2489 -0.5606
53113SOL    HW276950  11.101  11.555   5.821  0.7277 -0.1595  0.9967
53114SOL     OW76951   6.118  11.077   3.033  0.6395 -0.2069  0.7508
53114SOL    HW176952   6.075  11.014   3.091 -1.1603  0.5673  0.3181
53114SOL    HW276953   6.154  11.023   2.963 -2.7071 -0.7132 -0.7715
53115SOL     OW76954   5.765   8.159   4.043  0.3921  0.6758  0.6542
53115SOL    HW176955   5.711   8.153   3.964  0.7489  1.5118  0.3387
53115SOL    HW276956   5.819   8.080   4.041 -0.8960 -0.2420  1.0441
53116SOL     OW76957   1.849   5.080   6.804  0.2886 -0.2630 -0.0668
53116SOL    HW176958   1.758   5.053   6.815  0.1438  0.4526  0.5327
53116SOL    HW276959   1.889   5.008   6.755 -0.6865 -0.4098 -0.6810
53117SOL     OW76960   5.005  13.499   3.281 -0.6627  0.1025  0.4834
53117SOL    HW176961   4.987  13.587   3.246  2.2309  0.3741 -0.6256
53117SOL    HW276962   5.026  13.514   3.373 -2.8719  0.1414  1.0270
53118SOL     OW76963  11.730  11.880   4.831  0.1815  0.0800 -0.3276
53118SOL    HW176964  11.727  11.785   4.844 -1.3053  0.3347  1.8780
53118SOL    HW276965  11.813  11.906   4.869  0.7674 -0.3541 -1.2770
53119SOL     OW76966   3.462   2.474   5.373 -0.5975  0.2359  0.1675
53119SOL    HW176967   3.452   2.406   5.306 -1.6169 -0.2783  0.8222
53119SOL    HW276968   3.528   2.439   5.433 -0.0602  0.4705 -0.2823
53120SOL     OW76969   6.285   4.039  11.167 -0.4792  0.0724 -0.2637
53120SOL    HW176970   6.202   4.000  11.191 -0.4486  0.1100 -0.0996
53120SOL    HW276971   6.342   4.026  11.243 -0.1995 -0.3404 -0.5376
53121SOL     OW76972   7.045   4.353   5.091 -0.1784  0.0837 -0.3717
53121SOL    HW176973   7.079   4.434   5.052 -0.1278 -0.3539 -1.2794
53121SOL    HW276974   7.094   4.284   5.047 -1.7979 -0.5437 -1.2828
53122SOL     OW76975   2.921   0.499  13.492 -0.0712  0.0952 -0.4810
53122SOL    HW176976   2.883   0.485  13.578 -0.1189 -0.7394 -0.6303
53122SOL    HW276977   3.011   0.467  13.499  0.1082  0.5595 -0.5851
53123SOL     OW76978  11.610   8.377  12.461 -0.6285  0.0241 -0.2559
53123SOL    HW176979  11.627   8.454  12.517  3.5285 -0.5443 -0.4541
53123SOL    HW276980  11.586   8.414  12.377 -1.0492  1.0454  0.2924
53124SOL     OW76981   6.461   8.498   9.165 -0.2068  0.0279  0.4659
53124SOL    HW176982   6.544   8.451   9.164 -0.1795 -0.0644  2.5033
53124SOL    HW276983   6.400   8.441   9.118  0.4847 -0.6819  0.4124
53125SOL     OW76984   6.655   0.727  13.149  0.1538  0.3266 -0.0702
53125SOL    HW176985   6.578   0.783  13.140  0.5970  0.8625 -0.5854
53125SOL    HW276986   6.687   0.715  13.060  0.2015 -0.5646  0.0533
53126SOL     OW76987  10.881  11.674  10.007  0.0929 -0.0951 -0.1032
53126SOL    HW176988  10.870  11.714  10.093 -0.8196 -0.1008 -0.2158
53126SOL    HW276989  10.872  11.747   9.945 -0.3365 -0.2701 -0.2475
53127SOL     OW76990   3.909  11.013  13.685  0.6426  0.1411 -0.0053
53127SOL    HW176991   3.884  11.102  13.660  1.0762  0.5036  0.7818
53127SOL    HW276992   3.974  10.986  13.620 -0.9495 -0.3927 -1.4297
53128SOL     OW76993   1.569   6.932  11.423 -0.0416 -0.3607 -0.1148
53128SOL    HW176994   1.542   6.984  11.347 -3.2986 -1.2801  0.2753
53128SOL    HW276995   1.493   6.878  11.443  1.3399 -1.4121  2.7683
53129SOL     OW76996   8.068  12.233  12.019 -0.1117  0.1088  0.1284
53129SOL    HW176997   8.053  12.185  12.101  1.9065  0.7427  0.9261
53129SOL    HW276998   7.983  12.234  11.976 -0.8405 -1.7153  1.4171
53130SOL     OW76999   8.918   8.709  10.510 -1.0081 -0.6624 -0.0546
53130SOL    HW177000   8.904   8.615  10.504 -0.6638 -0.7092 -0.1609
53130SOL    HW277001   8.893   8.743  10.424  1.2994 -0.9860 -0.9188
53131SOL     OW77002  13.311   2.345  13.271 -0.1808  0.1198  0.8862
53131SOL    HW177003  13.383   2.406  13.256 -0.4473  0.1118 -0.6096
53131SOL    HW277004  13.299   2.301  13.187  0.2424 -2.3129  2.0018
53132SOL     OW77005   5.706  12.183  11.700  0.6382  0.3144  0.5016
53132SOL    HW177006   5.636  12.229  11.655  0.5146 -1.6029 -1.4881
53132SOL    HW277007   5.774  12.172  11.633  0.7351 -2.1025  0.8830
53133SOL     OW77008   2.423  10.522   7.428  0.5360  0.4682  0.2223
53133SOL    HW177009   2.475  10.452   7.389 -0.3928  0.3085 -0.7714
53133SOL    HW277010   2.427  10.593   7.363  1.6144  1.4265  1.2897
53134SOL     OW77011   2.893   1.283   0.972  0.0908 -0.2706  0.1736
53134SOL    HW177012   2.825   1.218   0.960  0.1248 -0.0545 -1.4422
53134SOL    HW277013   2.869   1.329   1.052 -0.8171 -1.1961  0.4443
53135SOL     OW77014   2.977   0.793  11.806  0.1775 -0.2664  0.0703
53135SOL    HW177015   2.926   0.776  11.727  1.7678  0.0172 -1.0559
53135SOL    HW277016   2.966   0.714  11.859 -1.9090  0.0305  0.1647
53136SOL     OW77017   0.810  12.005   4.380 -0.0738 -0.4989  0.0541
53136SOL    HW177018   0.847  12.082   4.337  0.9614 -1.0451 -0.0553
53136SOL    HW277019   0.844  11.930   4.331  1.4703 -1.1768  1.9871
53137SOL     OW77020   6.738   7.906   6.563  0.2720 -0.6715  0.2386
53137SOL    HW177021   6.693   7.823   6.578 -0.7674 -0.2915 -0.6734
53137SOL    HW277022   6.755   7.908   6.469  0.9722 -0.1772  0.3617
53138SOL     OW77023  11.972   6.159   4.264  0.4993  0.3710 -1.0160
53138SOL    HW177024  12.047   6.195   4.311  0.1368  0.1133 -0.2301
53138SOL    HW277025  11.956   6.074   4.305 -1.2609  1.1299 -0.0292
53139SOL     OW77026  11.576  13.259  12.579  0.0224 -0.0926  0.4052
53139SOL    HW177027  11.524  13.275  12.658 -1.8212  0.5968 -0.8845
53139SOL    HW277028  11.612  13.344  12.556  0.0083 -0.1616  0.1265
53140SOL     OW77029   4.706   9.190   3.967 -0.9492  0.5540 -0.2337
53140SOL    HW177030   4.700   9.259   4.032  1.8968  1.5559 -0.8944
53140SOL    HW277031   4.673   9.229   3.886 -0.0639  0.9009 -0.4330
53141SOL     OW77032   3.656  12.371  10.477  0.3135  0.0655  0.2616
53141SOL    HW177033   3.667  12.357  10.383  2.6645  4.0525 -0.2741
53141SOL    HW277034   3.568  12.407  10.486 -0.8542 -2.4819  0.0683
53142SOL     OW77035   3.720   1.740   0.464  0.1674 -0.1917 -0.0281
53142SOL    HW177036   3.705   1.817   0.410  0.5489 -0.3218 -0.3225
53142SOL    HW277037   3.670   1.757   0.544 -0.8772 -0.2568 -0.6484
53143SOL     OW77038   8.461  13.961   7.429 -0.3188  0.1599  0.3324
53143SOL    HW177039   8.378  13.989   7.468 -1.5434 -0.4625 -1.6743
53143SOL    HW277040   8.440  13.879   7.385  1.3805  0.0016 -0.2571
53144SOL     OW77041   7.484  11.028   9.081  0.0735  0.5182 -0.5440
53144SOL    HW177042   7.505  11.054   8.991 -0.3592 -0.8812 -1.0831
53144SOL    HW277043   7.561  11.053   9.132 -0.4334  3.1049 -0.8981
53145SOL     OW77044  11.819  12.868   8.757 -0.3561 -0.2681  0.2064
53145SOL    HW177045  11.752  12.935   8.767 -0.3284  0.2279 -2.2274
53145SOL    HW277046  11.901  12.912   8.779 -0.4807  0.1311 -0.1117
53146SOL     OW77047   7.310  11.183  11.259 -0.0465 -0.0496 -0.2362
53146SOL    HW177048   7.349  11.097  11.270  0.8874  0.3154 -0.5633
53146SOL    HW277049   7.347  11.236  11.330 -1.6645 -0.2520  0.7993
53147SOL     OW77050   5.923   2.988   5.257  0.7885  0.1859  0.3850
53147SOL    HW177051   5.982   2.914   5.269  1.0366  0.5331  1.3592
53147SOL    HW277052   5.857   2.956   5.196  0.8154 -0.8867  0.9049
53148SOL     OW77053  12.111   9.852   7.083 -0.6748 -0.3714 -0.1598
53148SOL    HW177054  12.037   9.859   7.142  0.0475 -1.1298  0.8794
53148SOL    HW277055  12.100   9.924   7.021 -3.2059 -1.5007 -1.1274
53149SOL     OW77056   9.154  10.716   0.474 -0.0079  0.4428  0.0490
53149SOL    HW177057   9.133  10.808   0.458  0.6413  0.4291 -0.9395
53149SOL    HW277058   9.245  10.707   0.445  0.4853 -0.1369  1.6708
53150SOL     OW77059   0.907   1.813   3.285 -0.0459  0.0351 -0.5328
53150SOL    HW177060   0.982   1.767   3.324  0.4823  1.0677 -0.2959
53150SOL    HW277061   0.897   1.892   3.338 -0.6850  0.3971 -1.1763
53151SOL     OW77062  12.744   0.553   5.375 -0.2104 -0.2149 -0.3500
53151SOL    HW177063  12.760   0.511   5.459 -1.9104  1.8219  1.1205
53151SOL    HW277064  12.672   0.503   5.337 -2.5603  1.4324  1.6117
53152SOL     OW77065   7.708  11.266   6.949  0.4973  0.2594 -0.5276
53152SOL    HW177066   7.790  11.278   6.902  0.9925 -0.5819  0.0899
53152SOL    HW277067   7.727  11.294   7.038 -0.2724  1.3101 -0.6781
53153SOL     OW77068   7.722   4.299  12.364 -0.3476  0.5637 -0.2574
53153SOL    HW177069   7.720   4.348  12.282 -0.5302  1.6400  0.3683
53153SOL    HW277070   7.811   4.313  12.398 -0.7996  1.6109  0.5709
53154SOL     OW77071   2.809   4.785   9.975 -0.0474  0.1753  0.0213
53154SOL    HW177072   2.715   4.779   9.992 -0.9608 -0.1385 -4.1137
53154SOL    HW277073   2.836   4.695   9.957  0.9224  0.3504  0.5568
53155SOL     OW77074   6.555  12.215   4.861  0.3061  0.5499 -0.1246
53155SOL    HW177075   6.644  12.180   4.858  0.5985  1.1248  1.2435
53155SOL    HW277076   6.564  12.302   4.900 -0.8515  0.6517 -0.0466
53156SOL     OW77077   2.044   0.918   9.883 -0.2752 -0.1997  0.4095
53156SOL    HW177078   1.998   0.914   9.800  1.4387 -0.1265 -0.5787
53156SOL    HW277079   2.010   0.997   9.925 -1.9594 -0.8297  0.3157
53157SOL     OW77080   0.275   2.910   9.885 -0.0058 -0.8334  0.3282
53157SOL    HW177081   0.225   2.942   9.811 -0.2449 -1.0618  0.3861
53157SOL    HW277082   0.211   2.862   9.938 -0.4754  1.5691  2.1058
53158SOL     OW77083   9.701  13.391   3.455  0.1317  0.0165 -0.3949
53158SOL    HW177084   9.707  13.470   3.401 -0.8224 -0.4820 -1.2742
53158SOL    HW277085   9.760  13.329   3.413 -0.0485 -0.1285 -0.4373
53159SOL     OW77086   1.364   9.349   0.424 -0.1520  0.1027  0.0196
53159SOL    HW177087   1.366   9.435   0.466  0.8287 -0.5422  1.3530
53159SOL    HW277088   1.431   9.354   0.355 -0.0089  0.3542  0.1773
53160SOL     OW77089   8.718  10.820  10.601 -0.2133 -0.4586 -0.0755
53160SOL    HW177090   8.776  10.896  10.608 -0.6703 -0.0943 -0.2023
53160SOL    HW277091   8.777  10.745  10.601  0.2528 -0.0968 -0.1107
53161SOL     OW77092   9.478   2.223   4.645  0.4808  0.5355  0.6486
53161SOL    HW177093   9.573   2.215   4.651  0.4314  0.9301  2.8574
53161SOL    HW277094   9.455   2.174   4.566  2.6296  1.7178 -0.8193
53162SOL     OW77095   4.668  13.362   9.615 -0.0543 -0.1796 -0.0790
53162SOL    HW177096   4.593  13.317   9.655  0.8486 -1.8317 -0.1478
53162SOL    HW277097   4.727  13.380   9.688  0.7625 -1.5203 -0.3827
53163SOL     OW77098  12.489   2.069   1.600  0.2303 -1.0268 -0.1985
53163SOL    HW177099  12.580   2.043   1.613  0.1133 -1.8232 -0.9101
53163SOL    HW277100  12.490   2.165   1.605  1.5607 -0.8203 -2.9186
53164SOL     OW77101  11.543  14.008  10.825  0.1257  0.1405  0.0192
53164SOL    HW177102  11.458  13.982  10.790  0.2105 -0.4613  0.2616
53164SOL    HW277103  11.588  14.049  10.751 -0.0224 -0.3683 -0.3558
53165SOL     OW77104   3.546   7.173   3.238 -0.1815 -0.1606 -0.2206
53165SOL    HW177105   3.637   7.202   3.237 -0.1981 -0.0935 -1.5330
53165SOL    HW277106   3.550   7.081   3.261  0.0644  0.2553  1.5088
53166SOL     OW77107   9.177  13.094   2.477  0.1087  0.1554  0.1008
53166SOL    HW177108   9.249  13.153   2.456 -0.9195  0.6792 -2.2943
53166SOL    HW277109   9.183  13.024   2.412  0.2207 -1.4846  1.7737
53167SOL     OW77110   1.286  13.795   1.794  0.0357  0.4425  0.1846
53167SOL    HW177111   1.222  13.782   1.863 -0.4479  1.2724 -0.0916
53167SOL    HW277112   1.254  13.871   1.745 -0.1475 -0.6585 -1.5196
53168SOL     OW77113  12.237   4.283   3.935 -0.4142  0.1203  0.4920
53168SOL    HW177114  12.183   4.205   3.932 -1.0103  0.5381 -1.5643
53168SOL    HW277115  12.327   4.250   3.934 -0.6363 -0.5429  1.4309
53169SOL     OW77116   2.363   9.001   6.113 -0.0839 -0.0527 -0.0797
53169SOL    HW177117   2.274   8.967   6.099 -1.2599  2.4411  0.8336
53169SOL    HW277118   2.376   9.065   6.043  1.0951 -0.5036 -0.3010
53170SOL     OW77119   8.645   0.772   6.656 -0.4482  0.0697  0.2010
53170SOL    HW177120   8.675   0.810   6.573 -0.7133  1.7885  0.8554
53170SOL    HW277121   8.724   0.734   6.695 -0.4921 -1.6292 -1.2392
53171SOL     OW77122   6.786  11.067   3.981 -0.0884 -0.2126  0.2428
53171SOL    HW177123   6.761  11.082   4.072  0.8329  0.8684  0.3273
53171SOL    HW277124   6.855  11.001   3.986  0.1338  0.0292  0.3406
53172SOL     OW77125  10.442   8.917   5.755 -0.2076  0.0682  0.7897
53172SOL    HW177126  10.504   8.896   5.685 -1.0821  0.9640 -0.3008
53172SOL    HW277127  10.488   8.980   5.810  0.5608 -0.7918  1.1517
53173SOL     OW77128   3.100   2.692   9.768 -0.1293  0.3842 -0.4375
53173SOL    HW177129   3.056   2.691   9.853 -0.4013 -0.8533 -0.5644
53173SOL    HW277130   3.112   2.784   9.748 -0.2832  0.6950  0.8297
53174SOL     OW77131   3.609   6.684   4.072  0.2961 -0.4651 -0.6183
53174SOL    HW177132   3.568   6.615   4.124  1.6881 -1.2708 -0.5250
53174SOL    HW277133   3.538   6.744   4.051 -0.9637 -1.9174 -0.6961
53175SOL     OW77134   3.016  11.943   5.412  0.0741  0.3607  0.5272
53175SOL    HW177135   2.968  11.864   5.434 -0.2182  0.3378 -0.1553
53175SOL    HW277136   2.969  11.979   5.336  1.1744  0.3016 -0.2011
53176SOL     OW77137   3.106   3.218  11.040 -0.1050  0.0953  0.1022
53176SOL    HW177138   3.043   3.146  11.049 -0.5275  0.3205 -0.8442
53176SOL    HW277139   3.182   3.190  11.091 -0.5005 -0.7418  0.2602
53177SOL     OW77140   8.710  11.217   0.545  0.3553 -0.2411 -0.3177
53177SOL    HW177141   8.765  11.238   0.470 -0.6604  1.0191 -0.7365
53177SOL    HW277142   8.732  11.284   0.610  0.2794 -0.5455  0.0267
53178SOL     OW77143  14.066   5.380   5.919 -0.3284  0.3381 -0.1832
53178SOL    HW177144  14.078   5.292   5.882 -1.6143  0.0568  0.0476
53178SOL    HW277145  14.073   5.369   6.013  0.0424  0.5800 -0.1784
53179SOL     OW77146   1.408   3.186   0.420  0.0153 -0.3316  0.1103
53179SOL    HW177147   1.397   3.189   0.324 -0.8155 -0.1476  0.2023
53179SOL    HW277148   1.320   3.198   0.454  0.5414  1.3407  0.9529
53180SOL     OW77149   5.957   6.991   5.925 -0.2656  0.4004 -0.0852
53180SOL    HW177150   5.947   6.927   5.854  1.0354 -0.5777  0.5706
53180SOL    HW277151   6.013   7.059   5.888  0.0061  0.1424 -0.1478
53181SOL     OW77152   7.214   3.417   4.897  0.7200  0.4915 -0.3147
53181SOL    HW177153   7.185   3.338   4.853  2.3907 -0.8036  0.7917
53181SOL    HW277154   7.152   3.485   4.869  0.2105 -0.8219 -2.5652
53182SOL     OW77155   1.596  12.075  10.651  0.2954  0.2790  0.2585
53182SOL    HW177156   1.650  12.150  10.677  0.6890  0.1110 -0.0487
53182SOL    HW277157   1.600  12.076  10.555  2.1268 -1.4132  0.2644
53183SOL     OW77158   1.247  12.012   8.954  0.1458 -0.0210 -0.3488
53183SOL    HW177159   1.310  12.071   8.997 -1.2943  0.8070  0.7087
53183SOL    HW277160   1.245  11.934   9.010 -0.9045  0.6031  0.5245
53184SOL     OW77161   7.603  10.102   6.092  0.0928  0.0622 -0.1029
53184SOL    HW177162   7.574  10.186   6.129 -0.4392 -1.1468  2.4396
53184SOL    HW277163   7.523  10.050   6.085  0.7120 -1.0616  0.7537
53185SOL     OW77164  10.248  12.142  13.818  0.3563  0.8241  0.4462
53185SOL    HW177165  10.245  12.234  13.790  0.8715  0.7487  0.1193
53185SOL    HW277166  10.231  12.145  13.912 -0.4804  1.1716  0.2874
53186SOL     OW77167  12.039   9.599   5.807  0.1461 -0.6085 -0.2415
53186SOL    HW177168  12.018   9.539   5.735 -1.1505  0.1190 -0.5143
53186SOL    HW277169  12.109   9.654   5.773 -1.7007  0.9640 -1.7145
53187SOL     OW77170   6.522   1.337   9.679  0.0619  0.2808 -0.2346
53187SOL    HW177171   6.447   1.326   9.738 -0.0207  0.6243 -0.2720
53187SOL    HW277172   6.503   1.279   9.605 -0.4102  0.7367 -0.4775
53188SOL     OW77173  11.880  12.488   3.617 -0.3984  0.0558 -0.7516
53188SOL    HW177174  11.896  12.556   3.551 -1.8960 -0.2935 -1.5160
53188SOL    HW277175  11.958  12.490   3.673  0.6273  0.8136 -2.1429
53189SOL     OW77176   1.380   8.957   2.636  1.0925 -0.2471  0.1565
53189SOL    HW177177   1.447   8.975   2.570  2.7313 -1.8403  1.2870
53189SOL    HW277178   1.366   9.041   2.679  2.3239  0.1350 -0.1442
53190SOL     OW77179  11.721   2.303   8.279  0.1457 -0.0889  0.0142
53190SOL    HW177180  11.763   2.355   8.347 -0.4939 -0.0401  0.3778
53190SOL    HW277181  11.718   2.361   8.203  1.0733 -0.2238 -0.1408
53191SOL     OW77182   8.815   0.387   7.943 -0.3615  0.7074  0.2246
53191SOL    HW177183   8.771   0.394   8.027 -3.1183 -3.7412 -0.5067
53191SOL    HW277184   8.760   0.328   7.891  3.2336 -0.0669 -3.2657
53192SOL     OW77185  11.616  13.828   4.206 -0.1346  0.0483  0.0833
53192SOL    HW177186  11.536  13.859   4.248 -0.0496  0.4330 -0.0309
53192SOL    HW277187  11.587  13.792   4.122 -0.1133  0.8539 -0.2820
53193SOL     OW77188   6.769   3.923  10.702 -0.2247  0.0522  0.1386
53193SOL    HW177189   6.798   3.877  10.623  0.6245 -1.0279  1.0533
53193SOL    HW277190   6.673   3.913  10.700 -0.1189 -1.1257 -0.0741
53194SOL     OW77191  13.029  13.932  10.330  0.4636 -0.1234  0.0788
53194SOL    HW177192  12.972  14.004  10.355 -0.8321 -0.7813 -0.8374
53194SOL    HW277193  13.001  13.908  10.241  2.4395 -0.2293 -0.5738
53195SOL     OW77194   9.985   7.794   9.622  0.5844  0.0662  0.1154
53195SOL    HW177195  10.018   7.871   9.575  0.7750  0.7504  1.3159
53195SOL    HW277196   9.979   7.726   9.556  0.8017  1.0047 -0.9029
53196SOL     OW77197   6.023   8.996   3.650 -0.3202  0.0781  0.7000
53196SOL    HW177198   6.098   8.978   3.593 -1.0737  0.5356 -0.4882
53196SOL    HW277199   6.047   8.959   3.734  0.4128 -1.5715 -0.1903
53197SOL     OW77200   8.119   3.011  12.904  0.4013  0.1222  0.2475
53197SOL    HW177201   8.148   2.980  12.989  0.3704 -0.4385  0.0596
53197SOL    HW277202   8.063   3.086  12.923  0.0989 -0.2203  0.7429
53198SOL     OW77203   2.643   6.716  13.202  0.5367  0.0474  0.0811
53198SOL    HW177204   2.654   6.727  13.107  1.5766  0.5515  0.2558
53198SOL    HW277205   2.711   6.654  13.227  1.4392  1.2947  0.7817
53199SOL     OW77206   9.808  12.608   6.707  0.1705  0.1576  0.0076
53199SOL    HW177207   9.776  12.583   6.620  1.8310  2.7898 -1.5025
53199SOL    HW277208   9.838  12.526   6.746 -0.4461 -1.0835 -1.9782
53200SOL     OW77209   7.361   5.708   9.608 -0.5090 -0.4669  0.5988
53200SOL    HW177210   7.307   5.633   9.580 -0.6538  0.1726 -0.9297
53200SOL    HW277211   7.431   5.712   9.543  0.0214  0.1968  1.1940
53201SOL     OW77212  13.806  12.046   9.118 -0.0842 -0.4312 -0.0839
53201SOL    HW177213  13.747  11.974   9.140 -0.2403 -0.4488 -0.5407
53201SOL    HW277214  13.783  12.116   9.179  0.7560 -1.1073  1.0379
53202SOL     OW77215   4.750   2.057   9.087 -0.7598 -0.3192 -0.0688
53202SOL    HW177216   4.825   2.050   9.027 -0.3102  3.2932 -0.1247
53202SOL    HW277217   4.788   2.049   9.174 -0.4126  0.5127 -0.1310
53203SOL     OW77218  10.612   0.384   0.088 -0.1172 -0.1938 -0.0712
53203SOL    HW177219  10.697   0.342   0.072  1.5358  1.2008  3.7351
53203SOL    HW277220  10.554   0.312   0.111  1.3641 -0.8982  1.7595
53204SOL     OW77221   1.019  13.422   3.396  0.0375  0.2824 -0.0102
53204SOL    HW177222   1.058  13.396   3.312 -1.9159 -2.4438 -0.2244
53204SOL    HW277223   1.085  13.399   3.461  0.9155  0.8441 -0.6874
53205SOL     OW77224   8.108   1.994   5.849 -0.1842  0.2208  0.1380
53205SOL    HW177225   8.134   2.013   5.759  1.6012 -1.2147  0.3117
53205SOL    HW277226   8.021   2.033   5.856  0.3812  2.0064 -1.6172
53206SOL     OW77227  13.474   0.321   4.586 -0.0560 -0.4328 -0.1203
53206SOL    HW177228  13.415   0.357   4.651  0.6378 -0.7708  0.7180
53206SOL    HW277229  13.495   0.394   4.528  1.8983  0.7771  1.9617
53207SOL     OW77230  10.463   6.860   4.229 -0.7191  0.6890  1.1190
53207SOL    HW177231  10.378   6.857   4.186 -1.0667  1.5183  1.7205
53207SOL    HW277232  10.504   6.776   4.208 -1.7293  0.2361  0.9270
53208SOL     OW77233   3.648  11.717   8.569  0.0788  0.4133  0.1258
53208SOL    HW177234   3.743  11.707   8.565  0.2190  1.3682  0.7131
53208SOL    HW277235   3.634  11.811   8.583 -0.9169  0.1475  1.0553
53209SOL     OW77236   3.369  11.792   2.893 -0.0987  0.3148 -0.1670
53209SOL    HW177237   3.437  11.754   2.948  0.4043  1.7201  0.2183
53209SOL    HW277238   3.380  11.751   2.808  1.8371  1.1729 -0.3661
53210SOL     OW77239  10.704  10.126   0.511  0.0992  0.5821 -0.9497
53210SOL    HW177240  10.636  10.164   0.455  0.8999  2.5719 -0.6256
53210SOL    HW277241  10.737  10.199   0.562  0.5281 -0.8813  0.9861
53211SOL     OW77242   1.079   4.392   6.131  0.1832 -0.4721 -0.0064
53211SOL    HW177243   1.035   4.351   6.205  1.5923  0.9446  1.7178
53211SOL    HW277244   1.071   4.486   6.147  1.4374 -0.1449 -1.0717
53212SOL     OW77245  13.335   9.435   2.180  0.3311  0.0439  0.6182
53212SOL    HW177246  13.253   9.403   2.217 -0.5625  0.5343 -0.8964
53212SOL    HW277247  13.364   9.502   2.242  0.0216 -0.6657  1.5710
53213SOL     OW77248   2.142   9.895  14.068  0.1180  0.3319 -0.2815
53213SOL    HW177249   2.087   9.841  14.010 -0.8724  1.0324 -0.0137
53213SOL    HW277250   2.154   9.841  14.146  2.6107 -1.2146 -1.5691
53214SOL     OW77251  10.532   3.745   5.682  0.6478  0.1865  0.1087
53214SOL    HW177252  10.526   3.800   5.604  1.8918 -0.4789 -0.4887
53214SOL    HW277253  10.505   3.658   5.651 -0.6627  0.3099  0.8803
53215SOL     OW77254  11.790   4.691  13.689  0.4965 -0.4808  0.3713
53215SOL    HW177255  11.720   4.691  13.624  2.3162 -1.6271 -1.7249
53215SOL    HW277256  11.747   4.713  13.772 -2.0241  0.4113 -1.0876
53216SOL     OW77257  10.067   1.095  11.892 -0.2186 -0.3891 -0.1189
53216SOL    HW177258  10.142   1.040  11.915  0.6539  0.6224 -0.4662
53216SOL    HW277259  10.014   1.097  11.972 -1.7765 -3.9681 -0.9064
53217SOL     OW77260  12.888   9.957   7.025 -0.0705 -0.9586  0.4806
53217SOL    HW177261  12.935   9.969   7.108 -0.8113  1.7087  0.6296
53217SOL    HW277262  12.809   9.908   7.048 -1.4435  1.7030  1.9389
53218SOL     OW77263  10.438  13.636  11.355 -0.1788 -0.5853  0.5502
53218SOL    HW177264  10.508  13.686  11.396 -1.1752  0.6203  0.8325
53218SOL    HW277265  10.438  13.552  11.401  0.1787 -0.0808  1.4978
53219SOL     OW77266   6.356   5.659   4.254  0.3120  0.6846  0.2470
53219SOL    HW177267   6.376   5.658   4.348 -1.0275  0.2669  0.5472
53219SOL    HW277268   6.282   5.599   4.245 -0.4164  1.7106 -0.8662
53220SOL     OW77269  12.940   2.380  10.669  0.2099  0.1958 -0.2601
53220SOL    HW177270  13.010   2.332  10.714  1.3322  2.4610  0.5896
53220SOL    HW277271  12.862   2.366  10.724 -0.2001 -2.6488 -1.4107
53221SOL     OW77272   9.905   0.101   4.634  0.2010 -0.0502 -0.2706
53221SOL    HW177273   9.864   0.118   4.719  2.4002  1.4916  0.5926
53221SOL    HW277274   9.835   0.111   4.570 -1.2082  0.1986  1.2573
53222SOL     OW77275   2.587  13.445  12.796 -0.0506 -0.1182  0.2184
53222SOL    HW177276   2.529  13.521  12.793 -0.0882 -0.1804 -1.2188
53222SOL    HW277277   2.574  13.401  12.712 -0.2163 -1.8662  1.1088
53223SOL     OW77278  14.075  12.174   5.384 -0.0935  0.3264 -0.2827
53223SOL    HW177279  14.090  12.127   5.465  0.4130  2.5253  0.9893
53223SOL    HW277280  14.158  12.169   5.337  1.1233  2.6525  1.4033
53224SOL     OW77281   3.320   9.105  10.306  0.2418  0.1864 -0.3602
53224SOL    HW177282   3.379   9.112  10.381  0.2040  0.4767 -0.3566
53224SOL    HW277283   3.355   9.033  10.254  1.4436  1.2805 -1.1085
53225SOL     OW77284   4.093   4.584   5.855  0.4303 -0.2076  0.1456
53225SOL    HW177285   4.179   4.552   5.830 -0.3810 -1.8055 -0.7947
53225SOL    HW277286   4.110   4.662   5.907  2.4925 -1.4727  1.4982
53226SOL     OW77287   3.148   6.790   1.248  0.3547  0.0338 -0.0355
53226SOL    HW177288   3.184   6.731   1.182  0.1051  0.3718 -0.4832
53226SOL    HW277289   3.216   6.795   1.315  1.4660  1.1821 -1.1703
53227SOL     OW77290   0.747   9.263   9.045  0.2242 -0.3720 -0.0468
53227SOL    HW177291   0.703   9.244   9.128  3.5940  2.9392  2.8624
53227SOL    HW277292   0.830   9.216   9.052 -0.3838 -2.1113 -2.8966
53228SOL     OW77293   2.042   8.984  11.012 -0.1982  0.7982 -0.8700
53228SOL    HW177294   2.129   8.981  10.971  0.5057  0.8292  0.5464
53228SOL    HW277295   1.988   8.928  10.958  1.2536 -0.9461 -0.6229
53229SOL     OW77296   5.219   4.078   8.224  0.3522 -0.1877 -0.3246
53229SOL    HW177297   5.150   4.114   8.280 -1.9268 -1.3024 -2.2280
53229SOL    HW277298   5.205   4.120   8.139  1.5632 -1.0397 -0.9747
53230SOL     OW77299  13.336   8.095   6.520 -0.3860  0.9856  0.8154
53230SOL    HW177300  13.297   8.122   6.437  0.0101  0.7365  0.5409
53230SOL    HW277301  13.294   8.012   6.541  1.9846 -0.8341 -0.9832
53231SOL     OW77302   9.495  13.462   3.023  0.4241 -0.4407  0.0606
53231SOL    HW177303   9.474  13.552   3.048  2.2810 -0.2103  0.9597
53231SOL    HW277304   9.567  13.471   2.960 -1.0635 -1.2268 -1.8335
53232SOL     OW77305   8.454  10.285   6.009  0.3879  0.2714 -0.2408
53232SOL    HW177306   8.434  10.247   6.095  0.7151 -1.7803 -0.9922
53232SOL    HW277307   8.372  10.280   5.961  0.3339  0.9250 -0.2169
53233SOL     OW77308  12.053   6.767  11.568  0.6546  0.4774  0.7688
53233SOL    HW177309  12.141   6.769  11.531  0.6026  0.5685  0.6475
53233SOL    HW277310  12.000   6.819  11.507  0.2204 -0.7387  0.0923
53234SOL     OW77311   7.812   0.528   8.352  0.0516  0.0590  0.2931
53234SOL    HW177312   7.890   0.475   8.339  0.2722  0.4771 -0.1337
53234SOL    HW277313   7.755   0.474   8.407  1.3659  0.4639  2.1370
53235SOL     OW77314   9.287   8.297   9.727  0.0141  0.6445 -0.5295
53235SOL    HW177315   9.246   8.365   9.780 -0.6782 -0.1535 -0.0012
53235SOL    HW277316   9.234   8.293   9.647  0.6244  1.3540 -0.9819
53236SOL     OW77317   6.107   7.338   1.383  0.2402 -0.2574  0.2848
53236SOL    HW177318   6.195   7.357   1.350 -0.8460  3.2983 -1.0029
53236SOL    HW277319   6.115   7.345   1.478  0.7894  3.8937  0.1059
53237SOL     OW77320   2.225   2.872   6.174 -0.4441 -0.0105 -0.0802
53237SOL    HW177321   2.169   2.899   6.102 -1.0981 -1.9062 -0.3397
53237SOL    HW277322   2.268   2.793   6.143 -1.0480 -1.1065  1.7079
53238SOL     OW77323   9.338   1.851  13.691 -0.1589 -0.1878 -0.3849
53238SOL    HW177324   9.422   1.821  13.726 -0.2341  1.6344  1.5127
53238SOL    HW277325   9.355   1.940  13.660 -1.7782  1.0089  1.9018
53239SOL     OW77326   1.347   1.490   1.790  0.3881  0.2784  0.2656
53239SOL    HW177327   1.374   1.581   1.774  1.7841 -0.0328  0.7027
53239SOL    HW277328   1.392   1.439   1.723 -0.8356 -0.0460 -0.3261
53240SOL     OW77329  11.366   4.442   2.741 -0.7531 -0.4791 -0.2294
53240SOL    HW177330  11.369   4.424   2.647 -1.5168 -2.3332  0.0577
53240SOL    HW277331  11.424   4.377   2.780  0.0643  0.6840  0.5663
53241SOL     OW77332   2.394   3.970  10.268  0.0001  0.2493  0.3657
53241SOL    HW177333   2.303   3.982  10.242  0.0929 -0.2914 -0.2697
53241SOL    HW277334   2.412   3.878  10.248  0.8055  0.4596  0.0771
53242SOL     OW77335   2.796   9.289   7.388 -0.0255 -0.0129 -0.1561
53242SOL    HW177336   2.741   9.211   7.398 -1.3924  0.6903 -1.8129
53242SOL    HW277337   2.745   9.348   7.333  0.6952  2.3511  1.5526
53243SOL     OW77338   5.100  11.885   5.995  0.3085 -0.3746  0.0410
53243SOL    HW177339   5.170  11.831   6.031  1.8540 -0.3376 -2.6197
53243SOL    HW277340   5.071  11.838   5.916 -0.7848  0.9356 -0.3890
53244SOL     OW77341   4.437  10.366  10.117 -0.0817  0.4387  0.4135
53244SOL    HW177342   4.421  10.445  10.064 -0.2291  0.5495  0.6202
53244SOL    HW277343   4.511  10.323  10.074 -0.1718  0.5500  0.1428
53245SOL     OW77344  11.375   5.800   7.676 -0.2049 -0.4076 -0.6982
53245SOL    HW177345  11.435   5.867   7.710  0.4995 -1.1487 -0.4337
53245SOL    HW277346  11.336   5.760   7.754  1.2634 -1.9740 -0.6964
53246SOL     OW77347   7.305  13.351   3.629 -0.2916  0.4844  0.1146
53246SOL    HW177348   7.350  13.426   3.590 -0.6363  1.3100  1.2549
53246SOL    HW277349   7.213  13.364   3.606 -0.4552  0.8229  0.9453
53247SOL     OW77350  10.621   7.203   2.541  0.0874 -0.2682 -0.5181
53247SOL    HW177351  10.544   7.256   2.522  0.9557  0.1550 -3.4856
53247SOL    HW277352  10.662   7.245   2.616 -0.9872  1.3152 -0.7831
53248SOL     OW77353   4.133   3.045   5.174  0.2970  0.5045  0.4156
53248SOL    HW177354   4.062   2.982   5.158 -0.0849  1.1477 -0.5303
53248SOL    HW277355   4.144   3.089   5.090  0.1072  2.1638  1.2312
53249SOL     OW77356   2.154  13.678   7.757  0.4747  0.7391  0.6999
53249SOL    HW177357   2.194  13.606   7.708  0.8916  0.6367  1.1811
53249SOL    HW277358   2.119  13.736   7.690  1.7861  1.0386  0.2456
53250SOL     OW77359   6.656   3.686   5.745 -0.4700  0.0721 -0.6015
53250SOL    HW177360   6.744   3.676   5.779  0.0756  1.0676 -1.6779
53250SOL    HW277361   6.629   3.597   5.722  0.0363 -0.3041  0.2487
53251SOL     OW77362  12.103   6.224  10.550  0.1445  0.3918  0.5839
53251SOL    HW177363  12.138   6.160  10.612  1.9460  0.2724 -0.4930
53251SOL    HW277364  12.022   6.185  10.518  1.3454 -1.5571 -0.2730
53252SOL     OW77365   2.452   0.325  10.041 -0.1141  0.1967  0.0233
53252SOL    HW177366   2.372   0.298  10.087 -0.8070  1.0187 -0.6346
53252SOL    HW277367   2.420   0.385   9.972  0.9727 -0.2426 -0.8960
53253SOL     OW77368  11.078   4.455   2.540 -0.3308 -0.2735 -0.6480
53253SOL    HW177369  11.170   4.445   2.517  0.0412 -1.5122  1.1848
53253SOL    HW277370  11.075   4.535   2.592  0.0768 -1.2002  0.8573
53254SOL     OW77371   7.619   3.973   4.900  0.3513  0.0533 -0.4793
53254SOL    HW177372   7.562   3.899   4.882  1.8239 -0.6552 -2.7867
53254SOL    HW277373   7.663   3.951   4.982  0.2678 -1.3199 -0.7849
53255SOL     OW77374   0.407   6.770   1.137 -0.6337  0.3020 -0.4259
53255SOL    HW177375   0.338   6.729   1.189 -0.1425 -0.4311 -0.3314
53255SOL    HW277376   0.420   6.856   1.178  0.1007 -0.4501  1.0327
53256SOL     OW77377   4.172  12.562   0.250 -0.2500 -0.2298 -0.2099
53256SOL    HW177378   4.187  12.627   0.320 -0.0015 -1.1533  0.6188
53256SOL    HW277379   4.238  12.495   0.265 -0.6244 -0.7761 -0.9421
53257SOL     OW77380   4.764   1.876   2.595 -0.4834 -0.3964 -0.0651
53257SOL    HW177381   4.733   1.940   2.531 -1.7472  0.3445  1.2030
53257SOL    HW277382   4.697   1.808   2.594 -1.3115  0.3337  1.4324
53258SOL     OW77383  11.159   6.612   3.875  0.2241 -0.4170  0.8415
53258SOL    HW177384  11.239   6.567   3.901  0.9221 -0.2945 -0.9918
53258SOL    HW277385  11.187   6.700   3.849 -0.1565 -0.9989 -1.7513
53259SOL     OW77386   6.867   6.048   3.066  0.7413 -0.3416  0.3912
53259SOL    HW177387   6.820   5.994   3.130 -0.3082  0.1041  0.0160
53259SOL    HW277388   6.945   5.996   3.043 -0.4024 -1.8593 -0.2151
53260SOL     OW77389   1.942  13.179   0.750 -0.6428 -0.0300 -0.4206
53260SOL    HW177390   1.920  13.267   0.778  0.9163 -0.4653  2.6171
53260SOL    HW277391   1.880  13.159   0.681 -0.7957  3.5504 -1.4883
53261SOL     OW77392   0.396   6.117   6.547  0.1185  0.2171  0.3185
53261SOL    HW177393   0.395   6.197   6.599 -1.1316 -0.8021  1.9661
53261SOL    HW277394   0.424   6.049   6.608 -1.0407 -0.9650 -0.4129
53262SOL     OW77395   4.973   6.208   1.809 -0.2592 -0.1254  0.4503
53262SOL    HW177396   5.041   6.143   1.824  0.4998  0.7427  0.8506
53262SOL    HW277397   4.897   6.157   1.781  0.4552 -1.1341  0.3055
53263SOL     OW77398  12.300   9.929   9.646 -0.0812  0.4257 -0.6801
53263SOL    HW177399  12.233   9.998   9.654 -0.3932 -0.0290  0.9553
53263SOL    HW277400  12.356   9.959   9.574 -1.1094  1.6174 -1.0266
53264SOL     OW77401   7.207  11.343   0.445 -0.3425  0.4794  0.3565
53264SOL    HW177402   7.212  11.264   0.391 -0.7365 -0.5030  1.7003
53264SOL    HW277403   7.188  11.311   0.533 -1.4857  2.1459  0.7628
53265SOL     OW77404  13.536  13.888  11.967  0.4503  0.2374 -0.1666
53265SOL    HW177405  13.584  13.936  12.035  1.2779 -0.7178 -0.0488
53265SOL    HW277406  13.505  13.809  12.011  0.5996 -0.1679 -0.7873
53266SOL     OW77407   7.337   2.475  11.439  0.0466 -0.0075 -0.4043
53266SOL    HW177408   7.252   2.513  11.418  0.6503  0.5305 -2.0375
53266SOL    HW277409   7.316   2.399  11.493 -1.4767  0.0208 -0.8975
53267SOL     OW77410   3.477   1.261  10.785  0.5872 -0.5971 -0.1350
53267SOL    HW177411   3.571   1.247  10.781  0.9451  1.2136  0.7161
53267SOL    HW277412   3.455   1.246  10.877  0.2323 -0.0262 -0.1258
53268SOL     OW77413   5.434   9.074   0.181 -0.3265 -0.4106  0.0551
53268SOL    HW177414   5.499   9.039   0.120 -0.2425 -0.0572 -0.0577
53268SOL    HW277415   5.374   9.125   0.127 -1.2696 -1.5198  0.0120
53269SOL     OW77416   3.608  10.148  11.360  0.2697  0.3760 -0.4381
53269SOL    HW177417   3.597  10.057  11.332 -1.9123  0.0875  1.1453
53269SOL    HW277418   3.618  10.197  11.278 -0.5422 -1.0429 -1.4335
53270SOL     OW77419  12.756   2.777   1.708 -0.2541  0.2992 -0.2540
53270SOL    HW177420  12.835   2.826   1.685 -0.1556 -0.1946 -0.9731
53270SOL    HW277421  12.764   2.763   1.803  0.5722  0.1638 -0.3365
53271SOL     OW77422  12.758   1.315   6.410 -0.3587  0.1496 -0.6868
53271SOL    HW177423  12.784   1.404   6.387  0.9905  0.1527  0.7090
53271SOL    HW277424  12.828   1.283   6.467 -2.2448 -0.7355  1.2655
53272SOL     OW77425  14.013   1.142   1.861 -0.4559  0.4805  0.8405
53272SOL    HW177426  14.078   1.199   1.903  1.4832 -0.2070 -1.0545
53272SOL    HW277427  13.995   1.184   1.777  1.1078 -1.6181 -0.6483
53273SOL     OW77428   0.242   0.021  12.729  0.7957 -0.1707  0.0892
53273SOL    HW177429   0.184  -0.030  12.785 -1.8565  0.1737 -2.1556
53273SOL    HW277430   0.227   0.112  12.755 -0.0894 -0.0441 -0.8297
53274SOL     OW77431   7.840   9.252   8.552 -0.5184  0.5917 -0.4918
53274SOL    HW177432   7.825   9.160   8.576  1.6651  0.2799 -0.1031
53274SOL    HW277433   7.811   9.257   8.460 -1.7066 -0.1742 -0.1840
53275SOL     OW77434   2.472   9.121   1.073 -0.4696  0.4282 -0.0930
53275SOL    HW177435   2.468   9.119   0.978  1.4706  0.0375 -0.2128
53275SOL    HW277436   2.466   9.029   1.099  1.7578  0.2402 -0.0577
53276SOL     OW77437   0.909  10.088   7.748  0.5828 -0.1916 -0.6374
53276SOL    HW177438   0.823  10.129   7.756  0.4356 -0.3008 -1.5371
53276SOL    HW277439   0.919  10.071   7.654  0.7861 -1.9069 -0.3295
53277SOL     OW77440  13.354   4.001  11.579 -0.2792 -0.0661 -0.2563
53277SOL    HW177441  13.434   4.022  11.627 -0.1572  0.1883 -0.5707
53277SOL    HW277442  13.381   3.998  11.487 -0.5516 -0.3569 -0.3289
53278SOL     OW77443   6.125  10.885   2.411 -0.2945 -0.0225  0.2420
53278SOL    HW177444   6.171  10.968   2.423  1.2185 -0.6799 -0.7540
53278SOL    HW277445   6.164  10.826   2.475 -0.2778 -0.3877 -0.0967
53279SOL     OW77446  11.246  11.068   5.317  0.7246 -0.0157  0.3314
53279SOL    HW177447  11.238  11.096   5.408  0.0515  0.7477  0.0508
53279SOL    HW277448  11.223  11.146   5.266 -1.5709 -1.1375 -0.4792
53280SOL     OW77449   5.634   6.787   6.039  0.0976 -0.5054  0.3706
53280SOL    HW177450   5.683   6.869   6.044 -1.2346  0.2745  1.1881
53280SOL    HW277451   5.544   6.815   6.024 -0.2125 -1.8848 -0.4989
53281SOL     OW77452   5.705   0.163   2.884  0.3069 -0.2285 -0.3052
53281SOL    HW177453   5.659   0.079   2.883  1.5132 -0.8946 -1.2349
53281SOL    HW277454   5.671   0.210   2.808  0.7142 -0.4704 -0.6360
53282SOL     OW77455   7.588  12.116   4.128 -0.5718 -0.0177 -0.0554
53282SOL    HW177456   7.629  12.201   4.142 -1.2326  0.1422  1.0417
53282SOL    HW277457   7.655  12.063   4.085  0.9131  0.1206  1.9466
53283SOL     OW77458  13.240   7.922   8.013 -0.3053  0.1685 -0.5680
53283SOL    HW177459  13.296   7.997   7.994  0.4396  0.2560  1.6909
53283SOL    HW277460  13.252   7.864   7.938 -0.5908  2.0762 -2.1666
53284SOL     OW77461   6.029  12.163   8.144 -0.7523 -0.2643  0.5193
53284SOL    HW177462   5.950  12.116   8.169 -0.6580 -0.6090  0.1706
53284SOL    HW277463   6.029  12.240   8.201 -0.6245 -0.9508  1.4764
53285SOL     OW77464   9.670  11.174   1.721  0.3544 -0.1068 -0.3328
53285SOL    HW177465   9.722  11.237   1.672  2.6441  0.4381  2.4947
53285SOL    HW277466   9.588  11.220   1.741  1.0041  1.0841 -0.3355
53286SOL     OW77467   8.536  10.372   9.083  0.8235 -0.3338 -0.1172
53286SOL    HW177468   8.631  10.368   9.092  0.8656  2.4173  2.1426
53286SOL    HW277469   8.519  10.343   8.993  3.8749 -0.0362 -0.9053
53287SOL     OW77470  13.670  11.546   5.218 -0.5754 -0.4698 -0.5245
53287SOL    HW177471  13.661  11.542   5.123 -1.5321 -1.3874 -0.4188
53287SOL    HW277472  13.724  11.470   5.240  1.8616  1.1813 -0.5309
53288SOL     OW77473  10.276  11.043  10.007 -0.3936  0.2705  0.5643
53288SOL    HW177474  10.229  10.970   9.967 -0.3372 -0.0651  1.1046
53288SOL    HW277475  10.288  11.017  10.098 -1.2266  1.3733  1.0127
53289SOL     OW77476   3.792  12.742   9.603 -0.6343 -0.2070 -0.3450
53289SOL    HW177477   3.720  12.695   9.563 -1.2268  0.5011 -0.1480
53289SOL    HW277478   3.794  12.826   9.557 -0.0335 -0.1644 -0.2453
53290SOL     OW77479   1.411  13.025   2.349  0.0509  0.0089  0.4181
53290SOL    HW177480   1.368  13.003   2.266  0.8670  2.4234 -0.7154
53290SOL    HW277481   1.361  13.099   2.383  1.2346  0.6528  0.8039
53291SOL     OW77482   6.587   1.693   5.496 -0.4567  0.7116  0.6105
53291SOL    HW177483   6.638   1.632   5.442 -2.9310 -0.1516 -0.9773
53291SOL    HW277484   6.511   1.715   5.441 -2.2131  1.2371  3.0777
53292SOL     OW77485   7.454  13.597   0.673 -0.2959  0.2045  0.8162
53292SOL    HW177486   7.428  13.521   0.724  0.8603 -0.2369  0.7755
53292SOL    HW277487   7.518  13.642   0.729  1.8266 -0.8741 -0.6327
53293SOL     OW77488   9.642   6.136   5.844  0.6571 -0.4523 -0.0104
53293SOL    HW177489   9.661   6.077   5.772  2.9200  0.3813 -0.1645
53293SOL    HW277490   9.711   6.119   5.908 -0.0365  0.3686  0.9927
53294SOL     OW77491  10.344   8.770   1.718  0.4740  0.5749 -0.0644
53294SOL    HW177492  10.281   8.703   1.696  2.7895 -1.6167 -0.4915
53294SOL    HW277493  10.322   8.796   1.808  0.2586 -1.7005  0.5871
53295SOL     OW77494   7.738  10.626   4.516 -0.6831  0.6821 -0.4467
53295SOL    HW177495   7.700  10.573   4.446 -0.6485 -1.0914  0.8086
53295SOL    HW277496   7.818  10.581   4.541 -1.7622 -0.0288  2.1598
53296SOL     OW77497  11.119  11.703   0.172  0.4970  0.4371  0.2845
53296SOL    HW177498  11.060  11.662   0.235  0.1560  0.1494 -0.2148
53296SOL    HW277499  11.164  11.629   0.130 -0.2119  0.5596 -0.7132
53297SOL     OW77500  13.081   5.212  10.512 -0.1178 -0.0997  0.2366
53297SOL    HW177501  13.032   5.206  10.594 -1.4227 -0.2090 -0.5163
53297SOL    HW277502  13.025   5.167  10.448  1.6019 -1.4428 -0.3936
53298SOL     OW77503   3.708   1.836   4.485 -0.0728  0.3851 -0.1353
53298SOL    HW177504   3.719   1.758   4.432  1.1946  0.0142  0.6480
53298SOL    HW277505   3.729   1.909   4.427  1.3827 -0.0214 -0.1400
53299SOL     OW77506   5.596   2.159   6.723 -0.2970  0.3639 -0.5365
53299SOL    HW177507   5.623   2.195   6.808 -0.9361 -0.5366  0.0626
53299SOL    HW277508   5.606   2.065   6.733 -1.7614  0.1479 -0.9578
53300SOL     OW77509   8.604  13.891  11.004  0.0560  0.3558  0.1477
53300SOL    HW177510   8.626  13.812  11.053  2.1782  0.3606 -0.6868
53300SOL    HW277511   8.578  13.954  11.072 -1.4905 -0.9724  0.8323
53301SOL     OW77512   4.091   8.741   3.788 -0.1966 -0.6350 -0.4292
53301SOL    HW177513   4.081   8.807   3.720 -1.9873 -1.4900 -1.0532
53301SOL    HW277514   4.119   8.662   3.742  0.6185 -0.6927  0.1313
53302SOL     OW77515   4.367  10.203   6.913  0.3993  0.2938 -0.4578
53302SOL    HW177516   4.312  10.274   6.947 -2.3275 -1.2564 -1.3526
53302SOL    HW277517   4.428  10.246   6.853  0.0573  2.0676  0.4069
53303SOL     OW77518   6.614   2.948   2.140 -0.0689  0.6051  0.0750
53303SOL    HW177519   6.643   2.893   2.212 -1.6248  0.7768  0.8640
53303SOL    HW277520   6.690   3.004   2.120 -0.0877  1.6546  2.6380
53304SOL     OW77521   3.208  12.505  11.065 -0.0590 -0.0664 -0.1426
53304SOL    HW177522   3.301  12.490  11.050 -0.0823  0.5155 -0.9567
53304SOL    HW277523   3.169  12.504  10.978 -0.5755  1.2061  0.0489
53305SOL     OW77524   1.231   5.682   2.017 -0.2451  0.0394 -0.2232
53305SOL    HW177525   1.203   5.692   1.926 -0.0212 -0.2252 -0.3243
53305SOL    HW277526   1.326   5.692   2.014 -0.2459  0.1148 -0.0068
53306SOL     OW77527   5.822   6.247   2.312  0.6924  0.8060 -0.4813
53306SOL    HW177528   5.808   6.188   2.386 -0.4831  0.7402 -0.7364
53306SOL    HW277529   5.866   6.323   2.350 -2.5958  2.1742  0.9920
53307SOL     OW77530  13.639   0.150   7.601 -0.0748  0.5008  0.5446
53307SOL    HW177531  13.733   0.142   7.589 -0.0089  0.2526  1.1774
53307SOL    HW277532  13.601   0.124   7.517  0.3701 -0.6926  0.6940
53308SOL     OW77533   6.846   4.985  11.244  0.3227  0.7474 -0.4970
53308SOL    HW177534   6.861   4.894  11.270 -1.6083  0.4637 -0.2253
53308SOL    HW277535   6.793   5.021  11.315 -1.6110  1.1504 -2.0947
53309SOL     OW77536   7.520   4.755   4.391  0.5447 -0.4512 -0.1166
53309SOL    HW177537   7.438   4.713   4.419 -0.4370  1.6167  0.3556
53309SOL    HW277538   7.497   4.800   4.310  0.6740  1.5508  0.8903
53310SOL     OW77539   1.993   1.131   0.448 -0.2967 -0.1460  0.0442
53310SOL    HW177540   2.057   1.097   0.511 -0.3690 -0.4472 -0.0458
53310SOL    HW277541   2.005   1.078   0.370 -0.0552  0.3736 -0.2769
53311SOL     OW77542  12.841   3.447   8.852  0.0335  0.0928  0.0140
53311SOL    HW177543  12.780   3.373   8.849  0.4416 -0.2478 -0.1293
53311SOL    HW277544  12.841   3.481   8.763 -0.8259  0.8317  0.2880
53312SOL     OW77545   2.964   4.194   8.014 -0.0047  0.5226  0.2053
53312SOL    HW177546   3.025   4.125   8.042  0.5672  0.1366 -1.8018
53312SOL    HW277547   3.017   4.274   8.014  0.2107  0.3883 -0.4378
53313SOL     OW77548   0.808   5.560   0.688  0.1477  0.0852  1.2903
53313SOL    HW177549   0.899   5.572   0.661 -0.0073 -0.2979  0.5557
53313SOL    HW277550   0.780   5.646   0.717  0.3891  0.4754  0.3961
53314SOL     OW77551  14.006   4.183  10.061  0.3278  1.3226 -0.0025
53314SOL    HW177552  14.044   4.204  10.146 -0.5108  2.3985  0.1268
53314SOL    HW277553  14.066   4.222   9.998  0.5747  1.1448  0.1205
53315SOL     OW77554   7.654  10.442   0.471 -0.2026  0.4470  0.0901
53315SOL    HW177555   7.698  10.499   0.535  0.1580 -1.0025  1.1715
53315SOL    HW277556   7.561  10.461   0.484 -0.0616  1.2578 -0.0214
53316SOL     OW77557   4.385  10.164   0.869 -0.1077  0.3386  0.6661
53316SOL    HW177558   4.455  10.189   0.929 -0.2637  0.5321  0.7711
53316SOL    HW277559   4.424  10.100   0.810  0.1491  0.4280  0.7401
53317SOL     OW77560  10.972   7.747   0.072 -0.1206  0.0311  0.2687
53317SOL    HW177561  10.942   7.836   0.053  1.0382  0.3444 -0.2145
53317SOL    HW277562  10.979   7.744   0.167 -0.3352  0.4059  0.2980
53318SOL     OW77563   3.684   1.258   0.918  0.2566  0.2315  0.0206
53318SOL    HW177564   3.724   1.272   0.833 -3.0659 -2.2391 -2.2131
53318SOL    HW277565   3.648   1.343   0.943  2.1873  1.2275 -0.4385
53319SOL     OW77566   3.231  10.493   9.827 -0.0255  0.2099  0.7033
53319SOL    HW177567   3.184  10.418   9.792 -0.8442  1.3797 -0.8092
53319SOL    HW277568   3.181  10.569   9.798  0.6351  1.3624  2.4045
53320SOL     OW77569  12.261   8.896  13.976  0.3157  0.1094  0.0250
53320SOL    HW177570  12.249   8.804  13.998  0.8504 -0.1340 -0.6658
53320SOL    HW277571  12.299   8.935  14.055  2.1458 -0.7356 -0.3745
53321SOL     OW77572   0.882   1.369   7.030  0.8616  0.2571 -0.2074
53321SOL    HW177573   0.795   1.394   7.000 -0.0957 -1.5943  0.8754
53321SOL    HW277574   0.887   1.399   7.121  1.5226  0.7066 -0.3816
53322SOL     OW77575   6.383   9.992   4.340 -0.5595 -0.2106 -0.0351
53322SOL    HW177576   6.321   9.936   4.293 -0.9245 -0.3842  0.6404
53322SOL    HW277577   6.468   9.970   4.303 -0.8500 -0.2906 -0.6662
53323SOL     OW77578  12.766  12.610   3.983  0.0765 -0.3416 -0.2306
53323SOL    HW177579  12.836  12.668   4.013 -2.2881  2.4995  0.1388
53323SOL    HW277580  12.787  12.593   3.891  2.3898 -1.4950  0.4078
53324SOL     OW77581   0.603  12.718   4.124 -0.0346  0.1228  0.1370
53324SOL    HW177582   0.689  12.721   4.166  0.0674 -1.2667  0.0742
53324SOL    HW277583   0.547  12.771   4.180  0.3704 -0.7524  1.4134
53325SOL     OW77584   7.637   8.346   1.841 -0.3516 -0.1443  0.3216
53325SOL    HW177585   7.615   8.337   1.748 -0.0539 -1.1637  0.3416
53325SOL    HW277586   7.729   8.321   1.847 -0.3573 -0.0439  0.8794
53326SOL     OW77587  13.348   4.404   6.857 -0.0259 -0.0271  0.1892
53326SOL    HW177588  13.288   4.348   6.807 -0.5473 -0.0448  0.8217
53326SOL    HW277589  13.290   4.461   6.908  0.4402 -1.1498  2.0874
53327SOL     OW77590  10.301   9.571   2.073  0.0589 -0.1713  0.0770
53327SOL    HW177591  10.319   9.570   1.979 -0.6253  2.2549 -0.1616
53327SOL    HW277592  10.210   9.600   2.080 -0.1164 -0.9798  1.4818
53328SOL     OW77593   4.866  12.726   9.976 -0.4294 -0.1078 -0.6857
53328SOL    HW177594   4.855  12.821   9.973 -2.8079 -0.2761  0.0509
53328SOL    HW277595   4.897  12.702   9.889  1.0081  1.4035 -0.6235
53329SOL     OW77596   8.736   1.224   0.203  0.0019  0.1686  0.4643
53329SOL    HW177597   8.678   1.177   0.263  0.4856 -0.7673  0.2183
53329SOL    HW277598   8.817   1.236   0.252 -0.6134  2.1603  1.0879
53330SOL     OW77599  11.554  13.665   7.797  0.0530  0.3447  0.3199
53330SOL    HW177600  11.528  13.594   7.739 -1.2968  1.0675 -0.0073
53330SOL    HW277601  11.638  13.637   7.834 -0.4797 -1.4433  0.2660
53331SOL     OW77602   8.362   0.876   9.918 -0.0112  0.4069  0.3180
53331SOL    HW177603   8.289   0.841   9.867 -1.1440 -0.1717  2.2165
53331SOL    HW277604   8.436   0.818   9.897 -0.5609 -0.0860 -0.2935
53332SOL     OW77605   9.729   0.091   8.047 -0.8792 -0.0135 -0.2315
53332SOL    HW177606   9.784   0.087   7.968 -0.7642  0.8548 -0.2123
53332SOL    HW277607   9.661   0.026   8.033 -0.4209 -0.3926 -0.7136
53333SOL     OW77608   9.847  13.421  12.514 -0.0115 -0.5979 -0.3663
53333SOL    HW177609   9.795  13.444  12.438  2.8582  0.1622 -2.2554
53333SOL    HW277610   9.798  13.350  12.557 -2.6489  0.2498 -1.7699
53334SOL     OW77611   4.859  11.986   2.727 -0.6713  0.3804 -0.2497
53334SOL    HW177612   4.811  12.063   2.694 -0.2551  0.8526  0.2443
53334SOL    HW277613   4.846  11.989   2.822 -3.2627 -1.8876 -0.3935
53335SOL     OW77614   5.124  11.881   2.693 -0.3876 -0.1718 -0.5964
53335SOL    HW177615   5.159  11.890   2.604  0.1302 -2.7638 -0.7201
53335SOL    HW277616   5.049  11.942   2.696 -0.2353  0.1746 -2.6876
53336SOL     OW77617   5.519  13.615   9.403 -0.8852 -0.0207  0.2465
53336SOL    HW177618   5.532  13.671   9.479 -0.1133 -1.8120  1.5260
53336SOL    HW277619   5.550  13.667   9.329  1.4185  0.6732  1.5817
53337SOL     OW77620   0.348   7.740  12.179  0.2416  0.3163 -0.2755
53337SOL    HW177621   0.307   7.743  12.092  0.3814  0.2507 -0.3432
53337SOL    HW277622   0.391   7.655  12.183  2.5330  1.3607 -1.1956
53338SOL     OW77623   1.010  11.760   0.496 -0.0599  0.3607  0.2132
53338SOL    HW177624   0.955  11.785   0.422 -0.3733  1.5586  0.8313
53338SOL    HW277625   1.079  11.706   0.457 -0.7647  0.1635 -0.8006
53339SOL     OW77626   1.501  10.616   6.305  0.4225 -0.5952  0.3079
53339SOL    HW177627   1.433  10.627   6.371  0.2146  0.2411 -0.0438
53339SOL    HW277628   1.583  10.619   6.354  0.3525  1.6725  0.3596
53340SOL     OW77629   6.146   4.897  13.360 -0.5395 -0.4858  0.0575
53340SOL    HW177630   6.093   4.935  13.290 -0.0564 -1.1629 -0.6918
53340SOL    HW277631   6.235   4.895  13.325  0.1426  1.1914  1.5181
53341SOL     OW77632  13.998   6.748  10.883 -0.3297  0.5277 -0.0391
53341SOL    HW177633  14.050   6.756  10.963 -1.6702 -1.2712  1.0963
53341SOL    HW277634  13.917   6.795  10.901 -0.3959  0.6368 -0.5841
53342SOL     OW77635   9.505  12.069   8.912 -0.2419 -0.0041  0.4405
53342SOL    HW177636   9.476  12.034   8.828  1.1338 -0.8976  0.2991
53342SOL    HW277637   9.504  12.164   8.900 -2.2146 -0.0293  0.1901
53343SOL     OW77638   1.719  11.310   1.685 -0.6792 -0.1772 -0.1373
53343SOL    HW177639   1.650  11.260   1.641 -0.0884 -0.1906 -1.0821
53343SOL    HW277640   1.685  11.399   1.690 -0.0606  0.2263 -2.2699
53344SOL     OW77641   9.469   6.341   4.156  0.2896 -0.4129  0.2655
53344SOL    HW177642   9.534   6.302   4.214 -1.7619  0.0061  3.1096
53344SOL    HW277643   9.401   6.274   4.149 -0.1933  0.1336 -0.4207
53345SOL     OW77644  11.483   3.994   5.867  0.1986  0.4996  0.1124
53345SOL    HW177645  11.566   3.962   5.832  0.4394  0.1617  0.9816
53345SOL    HW277646  11.474   3.952   5.952 -0.3120  1.4203  0.5330
53346SOL     OW77647   1.840   5.657  10.743 -0.0272 -0.2629 -0.2849
53346SOL    HW177648   1.886   5.584  10.783 -0.2903 -0.8911 -1.0918
53346SOL    HW277649   1.748   5.629  10.739 -0.9412  1.7377  3.0773
53347SOL     OW77650   4.421  13.425   3.219 -0.3276 -0.9201 -0.4735
53347SOL    HW177651   4.484  13.392   3.156  0.7634 -1.4445  0.8345
53347SOL    HW277652   4.474  13.453   3.294 -1.6217 -1.2107  0.5935
53348SOL     OW77653   1.936   3.322  11.997 -0.5899  0.3002  0.5346
53348SOL    HW177654   2.015   3.349  12.042 -1.0474  1.9324  0.4345
53348SOL    HW277655   1.890   3.266  12.059  0.7902 -0.9788  0.4485
53349SOL     OW77656   4.842   1.245   8.447  0.0835 -0.0826 -0.0154
53349SOL    HW177657   4.841   1.161   8.492  2.0897  0.7385  1.7357
53349SOL    HW277658   4.804   1.306   8.510  1.2229  0.7783 -0.1279
53350SOL     OW77659   1.413   8.464   4.959  0.2458  0.6179  0.0991
53350SOL    HW177660   1.442   8.499   4.874 -0.7908  1.7885  0.1958
53350SOL    HW277661   1.383   8.375   4.939  1.8524  0.1547 -0.3786
53351SOL     OW77662  12.119  13.454   0.175  0.7478  0.1767 -0.4037
53351SOL    HW177663  12.077  13.368   0.181  1.3342 -0.1241 -0.5689
53351SOL    HW277664  12.213  13.435   0.169  0.8813  0.8270 -0.4719
53352SOL     OW77665  12.442   9.624   3.583  0.1767  0.1021  0.6244
53352SOL    HW177666  12.470   9.644   3.494 -2.2420  0.9669 -0.0145
53352SOL    HW277667  12.361   9.575   3.573 -0.9541  1.4768  2.3232
53353SOL     OW77668   6.733   3.487  13.663  0.0665  0.0340  0.0757
53353SOL    HW177669   6.731   3.466  13.569  0.2634  2.6984 -0.6169
53353SOL    HW277670   6.825   3.477  13.687 -0.1196 -1.5008  0.2496
53354SOL     OW77671   4.312   2.658  13.888  0.6674  0.0319 -0.1355
53354SOL    HW177672   4.296   2.748  13.861 -1.5474 -0.1318  0.4445
53354SOL    HW277673   4.325   2.662  13.982  0.0176 -0.2960 -0.0239
53355SOL     OW77674  12.024   2.574   6.752  0.1745  0.2342  0.6187
53355SOL    HW177675  11.967   2.628   6.807  1.0749  0.5542  1.2692
53355SOL    HW277676  12.108   2.621   6.750  0.1959  0.1858 -0.9868
53356SOL     OW77677   4.555   2.795   1.004 -0.3096 -0.1702 -0.5416
53356SOL    HW177678   4.504   2.724   1.045  2.5975 -1.4443  1.2280
53356SOL    HW277679   4.646   2.773   1.024  1.2108  0.8417 -5.2235
53357SOL     OW77680   8.575  13.234   3.962 -0.0150 -0.1353 -0.6672
53357SOL    HW177681   8.662  13.202   3.988  0.7874  0.8843 -1.9637
53357SOL    HW277682   8.593  13.317   3.917 -1.7615  0.5912 -0.0780
53358SOL     OW77683  10.837  13.385  11.289  0.6555 -0.3696  0.0324
53358SOL    HW177684  10.806  13.298  11.266  0.0363  0.2159 -1.4036
53358SOL    HW277685  10.766  13.423  11.341  1.2224 -0.9424  1.2948
53359SOL     OW77686  10.164   2.066   4.270 -0.0148 -0.4126 -0.4857
53359SOL    HW177687  10.092   2.062   4.207 -1.5506  1.8603  0.9702
53359SOL    HW277688  10.206   2.151   4.253  0.0297 -0.1092  1.0071
53360SOL     OW77689   0.619   9.073  10.493 -0.0640 -0.0094  0.2597
53360SOL    HW177690   0.686   9.021  10.448 -1.4830 -2.1424  0.4176
53360SOL    HW277691   0.615   9.035  10.581 -1.3415  0.1492  0.2903
53361SOL     OW77692  11.460  11.128   7.011  0.3800 -0.1982  0.6185
53361SOL    HW177693  11.498  11.107   6.925  0.2509  0.4401  0.3997
53361SOL    HW277694  11.501  11.211   7.035 -0.7291  0.4132  0.4652
53362SOL     OW77695   4.809   0.268   9.037 -0.2737 -0.4084 -0.4320
53362SOL    HW177696   4.821   0.202   8.969  0.0528 -0.0282 -0.7515
53362SOL    HW277697   4.875   0.249   9.103 -0.0261 -0.2628 -0.6366
53363SOL     OW77698   5.390   6.913  13.916  0.4040  0.1704 -0.2954
53363SOL    HW177699   5.418   6.903  14.007  0.8008 -1.2623 -0.5662
53363SOL    HW277700   5.383   6.824  13.882  0.1219  0.6779 -1.6356
53364SOL     OW77701   2.119  10.644   6.436  0.5022 -0.6180  0.4510
53364SOL    HW177702   2.062  10.707   6.393 -1.3869 -0.9880  2.2642
53364SOL    HW277703   2.185  10.623   6.370 -1.2737  0.0499 -1.6651
53365SOL     OW77704   8.799   0.019   6.221  0.4264 -0.3899 -0.6946
53365SOL    HW177705   8.705   0.016   6.204  0.5125 -0.2440 -1.2078
53365SOL    HW277706   8.805   0.031   6.316 -0.0671 -0.7185 -0.6152
53366SOL     OW77707   9.482  13.835   8.522 -0.0881  0.2529 -0.6441
53366SOL    HW177708   9.493  13.792   8.437  0.2980 -0.8869 -0.0337
53366SOL    HW277709   9.426  13.776   8.572  1.2668 -0.0806  0.5561
53367SOL     OW77710   5.771  10.991   8.369 -0.2190  0.0472 -0.0628
53367SOL    HW177711   5.718  10.968   8.292 -1.9192 -0.1126  1.0889
53367SOL    HW277712   5.800  11.081   8.352  1.5712 -0.8005 -1.9740
53368SOL     OW77713  10.961   0.473  10.491 -0.1744  0.3675  0.2033
53368SOL    HW177714  10.898   0.467  10.420  0.6769 -0.0890 -0.5339
53368SOL    HW277715  10.995   0.384  10.502  1.3488  0.8422 -0.3768
53369SOL     OW77716  13.517   9.757  10.573 -0.3954 -0.4993 -0.2033
53369SOL    HW177717  13.429   9.771  10.537 -0.4560  0.3305  0.2567
53369SOL    HW277718  13.509   9.676  10.623 -1.6430  0.9606  2.1051
53370SOL     OW77719  13.060  11.414   7.295 -0.0185  0.3123  0.5460
53370SOL    HW177720  13.067  11.409   7.390  0.4493  0.7304  0.5416
53370SOL    HW277721  13.056  11.508   7.276  1.2937  0.3001  0.0805
53371SOL     OW77722   2.849   5.250  10.424 -0.1282 -0.1409 -0.6482
53371SOL    HW177723   2.836   5.156  10.408 -2.2128  0.0679 -0.3330
53371SOL    HW277724   2.786   5.293  10.367 -2.7130  0.8593  2.7142
53372SOL     OW77725   1.490   0.707   4.736  0.7894 -1.0285 -0.5318
53372SOL    HW177726   1.539   0.662   4.804 -1.2797 -1.9632  0.4357
53372SOL    HW277727   1.438   0.772   4.783 -0.8640 -1.8580 -1.1225
53373SOL     OW77728   3.738  13.549  11.650  0.1979  0.2161 -0.6526
53373SOL    HW177729   3.750  13.498  11.570  0.4910  2.1979 -1.9382
53373SOL    HW277730   3.651  13.587  11.642  0.7616  1.5542 -0.7473
53374SOL     OW77731   0.435   3.417   1.028 -0.1701 -0.2510  0.5135
53374SOL    HW177732   0.457   3.506   1.057  1.0805 -0.6179  0.7936
53374SOL    HW277733   0.507   3.363   1.063 -0.0758 -1.1323 -0.9769
53375SOL     OW77734   9.253   1.510   7.748 -0.1259  0.4808  0.2008
53375SOL    HW177735   9.348   1.499   7.741 -0.3854 -1.5845 -0.9684
53375SOL    HW277736   9.228   1.551   7.666 -0.0884  2.9638  1.3378
53376SOL     OW77737   1.032   1.538   3.666 -0.2802  0.2279 -0.0067
53376SOL    HW177738   1.116   1.541   3.714  1.8331  0.8617 -3.4092
53376SOL    HW277739   0.967   1.562   3.732  2.2956  0.6634  2.6293
53377SOL     OW77740   5.608   2.691   6.364  0.4211  0.5870  0.6559
53377SOL    HW177741   5.685   2.709   6.418  0.2055  1.3935  0.7026
53377SOL    HW277742   5.635   2.618   6.308  0.8426  0.1238  1.4470
53378SOL     OW77743   5.223   3.091  13.911 -0.6753 -0.2027 -0.0116
53378SOL    HW177744   5.177   3.126  13.987 -2.5608  0.6397 -1.4547
53378SOL    HW277745   5.181   3.133  13.836  2.0522  0.0965 -1.5134
53379SOL     OW77746  12.969   6.933  11.676  0.5423  0.1398  0.3221
53379SOL    HW177747  12.877   6.918  11.655  0.6904  1.0180 -1.0613
53379SOL    HW277748  12.983   7.025  11.657  2.0690 -0.3147 -0.9599
53380SOL     OW77749   1.778  13.245   8.818 -1.4236  0.1967  0.2636
53380SOL    HW177750   1.802  13.214   8.905 -0.5532  1.0565  0.3517
53380SOL    HW277751   1.827  13.189   8.758 -0.6898  0.6973  0.3868
53381SOL     OW77752   3.620  13.948  11.712  0.0903 -0.2374  0.2341
53381SOL    HW177753   3.635  14.025  11.657 -0.4459  0.0889  0.5389
53381SOL    HW277754   3.659  13.972  11.796  2.3624 -1.3433 -0.4234
53382SOL     OW77755   1.665  12.856   9.580  0.4017  0.6431  0.8236
53382SOL    HW177756   1.708  12.941   9.593  3.3827 -0.6518  0.1777
53382SOL    HW277757   1.620  12.839   9.663  2.3229  1.5103  2.1183
53383SOL     OW77758   3.629  12.004   8.546  0.4119 -0.2139  0.3923
53383SOL    HW177759   3.718  12.038   8.540  0.1459  0.4668  0.1656
53383SOL    HW277760   3.609  12.005   8.639  0.7007 -0.5450  0.4624
53384SOL     OW77761  12.083   3.276   0.907 -1.0102 -0.3019 -0.3997
53384SOL    HW177762  12.028   3.259   0.984 -1.1309 -0.3092 -0.4876
53384SOL    HW277763  12.087   3.193   0.861 -1.7977 -0.0438 -0.9577
53385SOL     OW77764  10.095   2.365   4.664  0.4066  0.3943  0.2276
53385SOL    HW177765  10.056   2.314   4.593 -0.0311  1.5410 -0.3933
53385SOL    HW277766  10.145   2.301   4.715  2.5970 -0.1700 -2.3550
53386SOL     OW77767  13.571   3.801   8.523 -0.1572 -0.1583  0.6393
53386SOL    HW177768  13.564   3.855   8.602 -1.4075  2.1846 -0.9520
53386SOL    HW277769  13.611   3.858   8.458 -1.7217 -1.0374 -1.2014
53387SOL     OW77770  13.258   1.385  12.961 -0.1680  0.2500 -0.3748
53387SOL    HW177771  13.274   1.413  13.051 -0.7132 -0.5381 -0.0305
53387SOL    HW277772  13.325   1.319  12.944  0.0431  0.5201 -0.6130
53388SOL     OW77773   0.090   1.755  13.850 -0.0883  0.0720  0.1270
53388SOL    HW177774   0.107   1.676  13.900  0.2474 -0.1213 -0.2832
53388SOL    HW277775  -0.005   1.759  13.842 -0.0697 -0.9923 -0.9400
53389SOL     OW77776  11.305  13.626   6.566 -0.1944  0.1384 -0.0710
53389SOL    HW177777  11.282  13.546   6.518  0.3447 -0.7169  1.0386
53389SOL    HW277778  11.307  13.598   6.658 -2.9042  2.0985  0.7042
53390SOL     OW77779   2.788   6.066  12.563  0.1666 -0.2665  0.0699
53390SOL    HW177780   2.871   6.073  12.518  0.4793  1.1540  0.8255
53390SOL    HW277781   2.794   6.128  12.636 -1.5143 -0.1865  0.1861
53391SOL     OW77782   7.170  13.976   9.339  0.5734  0.0427 -0.1244
53391SOL    HW177783   7.224  13.897   9.339  1.9098  0.8938  1.4920
53391SOL    HW277784   7.107  13.963   9.410  0.4960  0.2366 -0.1581
53392SOL     OW77785   0.225   0.470   4.752 -0.2633  0.3850 -0.2837
53392SOL    HW177786   0.148   0.420   4.726 -0.4436  0.9522 -0.8654
53392SOL    HW277787   0.219   0.476   4.847 -0.6748  0.0088 -0.2848
53393SOL     OW77788   9.562   9.357   2.380  0.5101 -0.1448 -0.9978
53393SOL    HW177789   9.579   9.435   2.433  0.3447 -0.8178  0.0720
53393SOL    HW277790   9.467   9.359   2.365  0.5062 -0.1385 -0.9752
53394SOL     OW77791   2.984   3.978   0.245 -0.4402  1.1061  0.0588
53394SOL    HW177792   3.060   3.966   0.189 -1.6262  0.3375 -1.4517
53394SOL    HW277793   2.973   4.073   0.250 -0.8409  1.1968 -1.8121
53395SOL     OW77794   7.470   3.267  10.665 -0.1220 -0.4560 -0.0249
53395SOL    HW177795   7.457   3.312  10.748  0.2462  0.3749 -0.4101
53395SOL    HW277796   7.528   3.194  10.687 -0.0486 -0.2607  0.4556
53396SOL     OW77797  11.901  11.088   8.179  0.0166 -0.0525  0.0609
53396SOL    HW177798  11.966  11.029   8.218 -0.9163 -0.7556  0.5946
53396SOL    HW277799  11.916  11.080   8.084  0.1339 -0.8996  0.1356
53397SOL     OW77800  10.713   3.672   4.331  0.2643  0.3926  0.3439
53397SOL    HW177801  10.623   3.683   4.300  0.3741 -0.5732 -0.3747
53397SOL    HW277802  10.705   3.616   4.408  0.2398  0.3597  0.3180
53398SOL     OW77803   6.599   9.776   4.227 -0.1300 -0.5217 -0.1784
53398SOL    HW177804   6.560   9.764   4.313  1.3737  1.3239  0.8381
53398SOL    HW277805   6.656   9.699   4.215  2.7286  1.0154  2.3283
53399SOL     OW77806   9.088  11.929  10.058 -0.0255  0.0907 -0.5280
53399SOL    HW177807   9.153  11.974  10.004  0.4144  0.0306 -0.0568
53399SOL    HW277808   9.140  11.876  10.118 -0.5330 -0.9960 -1.0182
53400SOL     OW77809  10.135   4.260   9.488  0.0363  0.7124 -0.3435
53400SOL    HW177810  10.168   4.203   9.418  2.9613 -0.6909  1.9103
53400SOL    HW277811  10.199   4.331   9.493 -0.4654  1.1126  0.5046
53401SOL     OW77812   3.830   3.231   7.792 -0.0999 -0.4999 -0.4517
53401SOL    HW177813   3.860   3.306   7.740 -2.1497  0.2343 -0.6570
53401SOL    HW277814   3.775   3.181   7.732 -3.8083  1.1881  1.2309
53402SOL     OW77815  10.338   4.906  13.814  0.4599  0.1927  0.4240
53402SOL    HW177816  10.372   4.912  13.725  0.8505 -0.2638  0.5325
53402SOL    HW277817  10.416   4.916  13.870  0.2386  0.3485  0.7064
53403SOL     OW77818   9.395  13.696   6.941 -0.3185 -0.4857 -0.5647
53403SOL    HW177819   9.434  13.625   6.992 -1.5889 -0.5463  0.3501
53403SOL    HW277820   9.351  13.652   6.868 -1.7369 -0.7281  0.4088
53404SOL     OW77821   2.099   1.484   2.988 -0.3361  0.3742 -0.1217
53404SOL    HW177822   2.191   1.466   2.972 -0.3097  2.3463 -2.8588
53404SOL    HW277823   2.097   1.521   3.077  1.4274  0.0042  0.1076
53405SOL     OW77824   2.193   4.450  12.024  0.5607 -0.3557 -0.2908
53405SOL    HW177825   2.250   4.482  11.954  0.5592 -0.7685 -0.4866
53405SOL    HW277826   2.197   4.355  12.016 -1.7227 -0.4313 -1.6296
53406SOL     OW77827   3.029   7.014  12.974  0.1318  0.2530 -0.3367
53406SOL    HW177828   2.956   6.988  12.918 -0.1766 -0.7981  0.4942
53406SOL    HW277829   3.017   7.108  12.988 -0.3003  0.3480 -1.2753
53407SOL     OW77830   7.960   9.482   1.052  0.5936  0.0034 -0.1822
53407SOL    HW177831   8.053   9.485   1.073  0.4743 -3.1089  1.4057
53407SOL    HW277832   7.915   9.483   1.137 -0.6739 -0.8770 -0.8030
53408SOL     OW77833   0.553  10.302   3.782  1.1801 -0.1240 -1.1344
53408SOL    HW177834   0.609  10.250   3.840 -0.1416 -0.0644  0.2576
53408SOL    HW277835   0.580  10.276   3.694  2.6044 -0.9186 -0.5050
53409SOL     OW77836  11.964  12.485   1.324  0.8991 -0.2227  0.1531
53409SOL    HW177837  12.059  12.497   1.330  0.9016 -0.5645  0.9246
53409SOL    HW277838  11.938  12.454   1.411  0.2214 -1.0985 -0.3406
53410SOL     OW77839   9.337  11.707   4.192 -0.1803 -0.0370 -0.3182
53410SOL    HW177840   9.276  11.648   4.148 -0.3624  0.7356 -1.1471
53410SOL    HW277841   9.306  11.795   4.170  0.9705  0.3768 -0.4121
53411SOL     OW77842  10.668   1.068  11.322  0.0284 -0.5582  0.4044
53411SOL    HW177843  10.739   1.052  11.385  0.7654 -1.2206 -0.5676
53411SOL    HW277844  10.656   0.985  11.278 -1.7491 -0.5976  0.9073
53412SOL     OW77845  14.067  11.032  11.014 -0.1911  0.0697 -0.1220
53412SOL    HW177846  14.096  11.116  11.048  1.3077 -0.1778 -0.6852
53412SOL    HW277847  13.973  11.030  11.030 -0.1910  1.6856  0.2361
53413SOL     OW77848  13.517   4.494  10.268 -0.0104  0.1922 -0.0344
53413SOL    HW177849  13.491   4.510  10.177 -0.5348 -1.9414 -0.3132
53413SOL    HW277850  13.441   4.521  10.320 -0.2528  0.0887 -0.3351
53414SOL     OW77851  13.923  13.827  13.522  0.2310  0.0378 -0.2161
53414SOL    HW177852  13.990  13.873  13.572  0.8777 -0.1325 -0.9196
53414SOL    HW277853  13.937  13.734  13.541  2.1972 -0.2780 -2.7095
53415SOL     OW77854   1.590   8.777   5.531 -0.2282 -0.5401 -0.6017
53415SOL    HW177855   1.504   8.802   5.565  0.3858 -0.2921  0.8285
53415SOL    HW277856   1.583   8.682   5.518 -0.8009 -0.4810 -0.7842
53416SOL     OW77857  11.958   9.147   2.489  0.1567  0.1818  0.2323
53416SOL    HW177858  11.932   9.191   2.570 -0.7376 -2.5153  1.5686
53416SOL    HW277859  12.052   9.163   2.481  0.5467 -0.5540  2.6091
53417SOL     OW77860  10.490   7.586   9.449 -0.6610 -0.0095  0.1799
53417SOL    HW177861  10.426   7.518   9.427 -2.0299  1.2384  0.1394
53417SOL    HW277862  10.458   7.624   9.531 -1.3468  2.1807 -1.0077
53418SOL     OW77863   3.707   6.954   8.178 -0.5078 -0.1350 -0.5887
53418SOL    HW177864   3.724   6.968   8.085  0.3172 -1.9377 -0.7550
53418SOL    HW277865   3.672   6.865   8.183 -1.3307  0.2337  0.7573
53419SOL     OW77866   8.836   4.625   4.353 -0.1694 -0.4009  0.6293
53419SOL    HW177867   8.904   4.641   4.287  0.9643 -0.8934  1.6441
53419SOL    HW277868   8.814   4.533   4.343  0.4941 -0.6482  1.3677
53420SOL     OW77869   2.920   3.774   8.077  0.3818 -0.5706  0.0001
53420SOL    HW177870   2.840   3.726   8.097 -0.4076  0.5651 -0.3423
53420SOL    HW277871   2.926   3.840   8.147 -3.1147  4.3360 -3.6514
53421SOL     OW77872   1.295   9.336   4.704  0.3691  0.0132 -0.2151
53421SOL    HW177873   1.308   9.252   4.748  1.0564  0.8823  1.3286
53421SOL    HW277874   1.227   9.379   4.755  0.2676  0.5381 -0.7887
53422SOL     OW77875   6.860  12.093  10.672  0.1052 -0.4187 -0.2197
53422SOL    HW177876   6.798  12.088  10.744 -0.4236  1.8801 -0.4225
53422SOL    HW277877   6.935  12.041  10.700 -0.2469  0.0998  1.8208
53423SOL     OW77878   3.021  13.608  10.180  0.3353  0.0189 -0.1769
53423SOL    HW177879   3.082  13.659  10.127 -1.1408  1.1054 -0.9079
53423SOL    HW277880   2.938  13.654  10.171 -1.2997 -2.9378 -1.5328
53424SOL     OW77881   9.417   1.226   4.136  0.1374 -0.1432  0.0841
53424SOL    HW177882   9.409   1.254   4.044  0.6120 -0.8530 -0.1858
53424SOL    HW277883   9.511   1.233   4.155  0.1635 -0.7971  0.2398
53425SOL     OW77884  11.166   6.262   6.715  0.0864 -0.2757  0.5390
53425SOL    HW177885  11.173   6.174   6.677 -0.0624  0.0766 -0.3316
53425SOL    HW277886  11.103   6.253   6.785  0.4029 -0.9607  0.7445
53426SOL     OW77887   7.813   6.752  12.981 -0.2022  0.2208  0.1249
53426SOL    HW177888   7.799   6.831  13.034 -1.2918  1.1679 -1.4845
53426SOL    HW277889   7.754   6.687  13.018 -1.5980  1.1405 -0.4259
53427SOL     OW77890  13.527   7.471   6.538 -0.1662 -0.3755 -0.1384
53427SOL    HW177891  13.616   7.505   6.532 -0.7860  1.0991 -1.7527
53427SOL    HW277892  13.522   7.404   6.470 -0.6215  0.4167 -0.9057
53428SOL     OW77893   7.175   0.519   4.791  0.1617  0.3586  0.6170
53428SOL    HW177894   7.211   0.544   4.706  1.8838  0.9961  1.4803
53428SOL    HW277895   7.250   0.521   4.850 -1.3508  2.1347  2.6385
53429SOL     OW77896   0.045   9.115   6.413  0.5099 -0.1400 -0.0173
53429SOL    HW177897   0.016   9.102   6.503  1.3526 -1.1021  0.1425
53429SOL    HW277898   0.110   9.046   6.400  0.1818 -0.1939 -1.4618
53430SOL     OW77899   6.719   3.797   3.786  0.5972  0.4872 -0.5958
53430SOL    HW177900   6.658   3.864   3.817  1.2579  0.3292  1.1156
53430SOL    HW277901   6.788   3.847   3.741  0.3024  0.8190 -0.6830
53431SOL     OW77902   4.050  13.011  13.220 -0.1580  0.0211  0.0546
53431SOL    HW177903   4.030  13.093  13.175 -0.1513  0.0565  0.1165
53431SOL    HW277904   3.972  12.992  13.271  0.2461  0.5590  0.9072
53432SOL     OW77905  10.972   8.618   0.213  0.5187  0.0489  0.0760
53432SOL    HW177906  10.884   8.616   0.175  0.2945 -1.0078  0.6136
53432SOL    HW277907  11.029   8.644   0.141 -0.1850  0.3312 -0.3844
53433SOL     OW77908   3.851   4.787  13.235  0.8034 -0.3591  0.8684
53433SOL    HW177909   3.860   4.795  13.140  0.3843  0.3811  0.8828
53433SOL    HW277910   3.876   4.697  13.254  0.5763 -0.6105  0.0143
53434SOL     OW77911   9.170   9.975  12.987  0.5585  0.0401  0.6955
53434SOL    HW177912   9.202  10.055  12.945  0.4526  1.0571  2.4579
53434SOL    HW277913   9.240   9.951  13.048  0.4017 -0.9808  0.4808
53435SOL     OW77914  13.605  12.738   0.557  0.1182 -0.0035  0.1327
53435SOL    HW177915  13.638  12.652   0.582  1.8729  0.2338 -1.1662
53435SOL    HW277916  13.509  12.728   0.557  0.2370 -1.4731  1.5262
53436SOL     OW77917   9.606   3.416   4.172  0.0593  0.4296  0.5218
53436SOL    HW177918   9.650   3.396   4.254  0.8462  1.0496  0.2605
53436SOL    HW277919   9.597   3.332   4.128  1.1033  0.3123  0.5224
53437SOL     OW77920  13.509   0.493   8.453 -0.1704  0.1291  0.6447
53437SOL    HW177921  13.599   0.494   8.421 -0.1211  0.0072  0.7813
53437SOL    HW277922  13.515   0.459   8.542 -0.4810 -1.0229  0.2413
53438SOL     OW77923   1.486   7.306   2.445 -0.3590 -0.0797  0.0938
53438SOL    HW177924   1.444   7.366   2.383 -2.7821 -0.9177  0.8152
53438SOL    HW277925   1.498   7.225   2.395  0.6693  0.2279 -0.1766
53439SOL     OW77926  12.780  11.579   2.029 -0.3774 -0.3283 -0.2432
53439SOL    HW177927  12.797  11.571   1.935 -1.0432  1.2707 -0.5284
53439SOL    HW277928  12.730  11.500   2.051 -1.3175 -0.1125 -1.5198
53440SOL     OW77929   1.744   2.441   3.573 -0.5015  0.0687  0.4856
53440SOL    HW177930   1.779   2.464   3.487 -0.1169  0.0240  0.6305
53440SOL    HW277931   1.659   2.486   3.576 -1.4704 -1.5461 -0.7225
53441SOL     OW77932  12.892  13.640   0.606 -0.2979 -0.1623 -0.0514
53441SOL    HW177933  12.803  13.615   0.582 -0.3192  1.7143 -2.2622
53441SOL    HW277934  12.884  13.729   0.638  0.6198 -0.5136  1.2053
53442SOL     OW77935  12.448   8.011   5.240  0.1912 -0.1390 -0.0051
53442SOL    HW177936  12.485   7.957   5.310 -0.5055  0.7101  1.0374
53442SOL    HW277937  12.364   7.970   5.220  0.4042 -0.3990 -0.3732
53443SOL     OW77938   3.108   1.448  12.681 -0.0725  0.6477  0.2421
53443SOL    HW177939   3.118   1.441  12.776 -1.9045 -0.9434  0.3734
53443SOL    HW277940   3.056   1.527  12.668 -0.3928  0.5046  0.6283
53444SOL     OW77941   6.777  13.619   0.613 -0.0430 -0.4629 -0.3030
53444SOL    HW177942   6.691  13.660   0.605  0.6031  0.8062 -1.0483
53444SOL    HW277943   6.827  13.679   0.669  0.6944 -0.6097 -0.7924
53445SOL     OW77944   1.172  11.908  12.735  0.4347  0.0758 -0.1473
53445SOL    HW177945   1.185  11.950  12.650  0.3608  0.5729  0.0845
53445SOL    HW277946   1.095  11.951  12.771  2.3873  2.3285  1.6546
53446SOL     OW77947  10.145   4.910   6.824 -0.1324 -0.0829  0.4766
53446SOL    HW177948  10.156   4.983   6.763 -0.1341  0.7961  1.4983
53446SOL    HW277949  10.051   4.894   6.826 -0.1537  0.0406  0.4434
53447SOL     OW77950   8.405   9.861   6.821 -0.1292  0.2413 -0.5936
53447SOL    HW177951   8.317   9.825   6.803 -0.6866  1.3333 -0.1085
53447SOL    HW277952   8.458   9.784   6.842 -0.9177 -0.4576 -1.0988
53448SOL     OW77953   3.580  10.606  12.290  0.0602 -0.6002 -0.6628
53448SOL    HW177954   3.668  10.636  12.311 -0.1777  0.2981 -0.9154
53448SOL    HW277955   3.589  10.564  12.204  0.7867 -3.1639  0.5433
53449SOL     OW77956  13.534  10.949   7.543  0.4718 -0.2223  0.1005
53449SOL    HW177957  13.514  10.882   7.608  3.2965 -0.5808  0.7356
53449SOL    HW277958  13.553  10.900   7.463  0.4157 -0.0242 -0.0353
53450SOL     OW77959  11.176   7.274   5.425  0.1355  0.4635 -0.5146
53450SOL    HW177960  11.094   7.295   5.469  0.2401  0.6499 -0.4074
53450SOL    HW277961  11.204   7.357   5.385  2.2867  1.4913  2.6872
53451SOL     OW77962  12.564  12.981   5.387 -0.0777  0.1165 -0.3242
53451SOL    HW177963  12.574  12.887   5.381 -2.2713 -0.0678 -2.8501
53451SOL    HW277964  12.563  13.012   5.296 -2.2739  2.1396  0.2538
53452SOL     OW77965   3.350   6.634   3.180 -0.2929  0.4611 -0.9736
53452SOL    HW177966   3.433   6.662   3.218 -0.6999  2.1412 -1.2483
53452SOL    HW277967   3.331   6.551   3.223  1.5685 -0.0163 -0.9914
53453SOL     OW77968   5.098  13.340   9.553 -0.2676 -0.2467 -0.1095
53453SOL    HW177969   5.120  13.247   9.549  0.9414  0.0175 -0.0395
53453SOL    HW277970   5.057  13.351   9.639 -2.5209 -1.1083 -1.0062
53454SOL     OW77971  12.911   2.563   9.372  0.1915 -0.0864 -0.0913
53454SOL    HW177972  12.879   2.653   9.387  0.3044 -0.0084 -0.3109
53454SOL    HW277973  12.854   2.508   9.426 -1.2867 -0.0902 -1.5751
53455SOL     OW77974  13.929   8.273  12.109  0.6784 -0.3382  0.4287
53455SOL    HW177975  14.000   8.286  12.046  0.3930  3.6606  0.6680
53455SOL    HW277976  13.849   8.281  12.056  0.4164 -1.0096  0.7204
53456SOL     OW77977  11.092  11.990   4.284  0.1441  0.3907 -0.1590
53456SOL    HW177978  11.187  11.988   4.269  0.2828 -1.2190  0.6768
53456SOL    HW277979  11.058  11.926   4.221 -0.2945  0.3771  0.0960
53457SOL     OW77980   3.892  11.796   6.344 -0.9528  0.1040 -0.0580
53457SOL    HW177981   3.798  11.816   6.345 -0.3964  3.1137  0.5313
53457SOL    HW277982   3.919  11.803   6.436 -0.0720 -0.4031 -0.2676
53458SOL     OW77983   1.736   5.564   7.731  0.0855 -0.1252  0.4288
53458SOL    HW177984   1.657   5.512   7.745  1.5554 -2.2780  1.2842
53458SOL    HW277985   1.752   5.558   7.636 -0.7668  0.3590  0.2460
53459SOL     OW77986  12.769   1.339  14.045 -0.0323 -0.5294  0.3622
53459SOL    HW177987  12.863   1.328  14.031 -0.1707 -1.8559  0.3670
53459SOL    HW277988  12.750   1.285  14.122 -0.5121  1.1018  1.4447
53460SOL     OW77989   3.370   9.105   6.845  0.1668  0.4675  0.3737
53460SOL    HW177990   3.418   9.188   6.836 -0.3769  0.5203 -2.8926
53460SOL    HW277991   3.424   9.041   6.799 -0.7694 -0.4073  0.4608
53461SOL     OW77992  12.222   5.752   6.354  0.0185  0.2059 -0.2661
53461SOL    HW177993  12.266   5.794   6.281  1.9377 -0.7031  0.3226
53461SOL    HW277994  12.192   5.668   6.320  1.3354 -0.4238  0.0941
53462SOL     OW77995   3.123  10.083  10.177  0.0347  0.5394  1.0773
53462SOL    HW177996   3.041  10.046  10.210  0.9558 -1.8259  0.9206
53462SOL    HW277997   3.181  10.082  10.253  0.1589  1.4842  0.9998
53463SOL     OW77998   8.434   9.723  12.759 -0.3687  0.0536  0.0116
53463SOL    HW177999   8.446   9.726  12.854 -0.9063  0.3015  0.0774
53463SOL    HW278000   8.457   9.811  12.729 -0.8802  0.1852  0.0003
53464SOL     OW78001   3.534   5.110   2.745  0.5905  0.5835 -0.0095
53464SOL    HW178002   3.514   5.167   2.820  1.9251 -0.1672  0.9566
53464SOL    HW278003   3.618   5.070   2.767  0.6169 -0.2820 -1.5566
53465SOL     OW78004  12.874   1.483  11.715 -0.1328 -0.2930 -0.2072
53465SOL    HW178005  12.955   1.450  11.678  1.0022  0.2612  1.6380
53465SOL    HW278006  12.878   1.578  11.702  0.0092 -0.1559  0.7730
53466SOL     OW78007   1.201   7.349   0.617  0.1045 -0.1264  0.2022
53466SOL    HW178008   1.288   7.311   0.632 -0.3975 -0.8155  1.5856
53466SOL    HW278009   1.149   7.320   0.693 -1.7755 -1.0633 -1.3417
53467SOL     OW78010   2.094  11.117   8.492 -0.0596 -0.6472 -0.2764
53467SOL    HW178011   2.179  11.073   8.496  0.3495  0.2036  0.7268
53467SOL    HW278012   2.036  11.053   8.451  1.3155 -0.8162 -2.0586
53468SOL     OW78013   2.430  10.523   5.184 -0.0529 -0.1467 -0.2326
53468SOL    HW178014   2.422  10.493   5.274  0.1028 -0.4193 -0.3080
53468SOL    HW278015   2.523  10.539   5.171 -0.1998  0.9622 -0.0112
53469SOL     OW78016   1.632   4.545   4.904  0.0508 -0.3129 -0.4505
53469SOL    HW178017   1.636   4.484   4.830 -0.3562  0.5628 -1.2242
53469SOL    HW278018   1.622   4.631   4.863 -0.1167  0.2025  0.6315
53470SOL     OW78019   7.878   1.289   1.871 -0.4324  0.3851 -0.1516
53470SOL    HW178020   7.939   1.273   1.944  0.0163  1.2228 -0.3228
53470SOL    HW278021   7.901   1.223   1.806  0.2643  0.6397 -0.1811
53471SOL     OW78022   4.740   4.450   1.032 -0.2795 -0.0545  0.3491
53471SOL    HW178023   4.745   4.421   0.941 -1.7936 -0.6840  0.4397
53471SOL    HW278024   4.663   4.506   1.035  0.0268  0.3351  1.1466
53472SOL     OW78025   4.153   4.456   4.808  0.5203  0.0542 -0.5244
53472SOL    HW178026   4.094   4.477   4.880 -0.4010 -0.1528 -1.1842
53472SOL    HW278027   4.217   4.527   4.807  2.4467 -1.4475  2.3695
53473SOL     OW78028   2.395   2.940  12.435 -0.8129 -0.0875  0.2069
53473SOL    HW178029   2.324   2.981  12.385 -0.5937 -0.1671 -0.1732
53473SOL    HW278030   2.405   2.854  12.395  0.4668  0.4549 -0.6955
53474SOL     OW78031   5.843  12.226   9.817 -0.0292  0.3848 -0.3290
53474SOL    HW178032   5.907  12.161   9.787 -1.7191 -0.4659 -2.2974
53474SOL    HW278033   5.877  12.309   9.783  0.9524  0.2188  0.2123
53475SOL     OW78034  13.849   6.310  13.859  0.4212  0.0967  0.0774
53475SOL    HW178035  13.824   6.402  13.872  0.4169  0.0926  0.0975
53475SOL    HW278036  13.928   6.315  13.804 -0.6028  0.0587 -1.4652
53476SOL     OW78037   6.917  11.930   0.399 -0.2322  0.0427  0.2901
53476SOL    HW178038   6.912  11.867   0.327  1.8189 -0.4552  0.5087
53476SOL    HW278039   6.839  11.913   0.452 -0.4112 -1.3967 -0.3831
53477SOL     OW78040   8.060   1.195   4.691  1.1125 -0.6777 -0.1312
53477SOL    HW178041   8.102   1.184   4.777  2.5342  0.2715 -0.6575
53477SOL    HW278042   8.000   1.121   4.684 -0.3565  0.1272  2.4018
53478SOL     OW78043  11.490   1.337   0.889  0.6375 -0.0519 -0.6030
53478SOL    HW178044  11.499   1.433   0.885 -1.2567  0.1824 -0.1612
53478SOL    HW278045  11.401   1.323   0.921  1.8537 -1.9565  2.4319
53479SOL     OW78046   4.100   4.581  11.174  0.5897  0.1739  0.1780
53479SOL    HW178047   4.193   4.576  11.150  0.6884 -1.4809  0.7839
53479SOL    HW278048   4.093   4.525  11.252 -0.7914  0.8520  0.5657
53480SOL     OW78049   5.749   6.716  11.046 -0.1441  0.4171  0.4391
53480SOL    HW178050   5.712   6.778  11.109  0.2624  1.6621 -0.5229
53480SOL    HW278051   5.832   6.755  11.019 -0.4264  0.0544 -1.0683
53481SOL     OW78052  13.993   4.696  12.099 -0.0942  0.0527  0.1575
53481SOL    HW178053  14.075   4.672  12.143 -0.3019  0.5259  0.8268
53481SOL    HW278054  13.936   4.726  12.170  0.5812  3.8143 -0.6877
53482SOL     OW78055  12.924  12.629  10.608  0.0810 -0.9212  0.1850
53482SOL    HW178056  12.967  12.619  10.693 -0.1668  2.3404  0.8056
53482SOL    HW278057  12.996  12.638  10.546  0.3339  0.4130  0.6374
53483SOL     OW78058   0.633  13.278  10.223  0.1488  0.2273  0.7881
53483SOL    HW178059   0.548  13.272  10.266 -0.4967  0.5036 -0.4032
53483SOL    HW278060   0.624  13.349  10.160  1.0068 -0.2416  0.1037
53484SOL     OW78061  12.515   9.601   8.481  0.2872 -0.6086  0.3129
53484SOL    HW178062  12.580   9.670   8.494  0.5088 -0.9856  1.3006
53484SOL    HW278063  12.523   9.546   8.559 -2.1615  0.1038  1.1811
53485SOL     OW78064  12.363   1.247   1.991 -0.0728  0.0782 -0.2116
53485SOL    HW178065  12.456   1.266   1.997 -0.0295 -0.1111 -0.2787
53485SOL    HW278066  12.351   1.209   1.904 -0.5832  2.1440 -1.1013
53486SOL     OW78067  13.307   1.444  13.234  0.3089 -0.0474 -0.2510
53486SOL    HW178068  13.292   1.376  13.300 -1.7340  0.1956 -0.3973
53486SOL    HW278069  13.400   1.435  13.211  0.0918 -2.8321 -0.3209
53487SOL     OW78070   6.428  13.632   7.692 -0.1649 -0.2592 -0.3866
53487SOL    HW178071   6.510  13.643   7.739 -0.4783  0.7566 -0.0607
53487SOL    HW278072   6.360  13.660   7.754 -0.6942 -0.3449 -0.9176
53488SOL     OW78073  12.593   2.878   0.347  0.0770  0.5457 -0.0110
53488SOL    HW178074  12.642   2.850   0.424 -0.2581  0.7345  0.2694
53488SOL    HW278075  12.593   2.974   0.352  0.7774  0.5947 -0.6928
53489SOL     OW78076   5.478   3.036   6.618  0.0821 -0.0832 -0.7278
53489SOL    HW178077   5.455   3.057   6.709  0.1399  0.6483 -0.8737
53489SOL    HW278078   5.573   3.050   6.615  0.1410 -0.5018 -0.7993
53490SOL     OW78079   0.915  10.741   8.009 -0.2012 -0.0041  0.7427
53490SOL    HW178080   0.952  10.689   7.938 -1.8551 -1.5961  0.9760
53490SOL    HW278081   0.835  10.779   7.973 -0.2329  0.4815  1.2970
53491SOL     OW78082   2.689   2.166  12.497 -0.4036 -0.0434  0.1889
53491SOL    HW178083   2.757   2.202  12.555 -1.1490 -0.0085  1.0521
53491SOL    HW278084   2.631   2.240  12.480 -0.7467 -0.3083  0.2111
53492SOL     OW78085   1.352   9.151   1.398  0.3286 -0.4761  0.3219
53492SOL    HW178086   1.296   9.142   1.475 -0.7211  0.9823 -0.2228
53492SOL    HW278087   1.436   9.113   1.425  0.7999  2.0639  3.0541
53493SOL     OW78088   0.116   3.304   4.470  0.2756  0.0953 -0.1507
53493SOL    HW178089   0.189   3.244   4.488  0.7202  0.5216 -0.5124
53493SOL    HW278090   0.151   3.366   4.406 -0.2880  0.5355 -0.0386
53494SOL     OW78091   4.151   8.432   4.180 -0.3516  0.1410  0.1424
53494SOL    HW178092   4.124   8.524   4.189 -0.4320  0.1186  0.1280
53494SOL    HW278093   4.210   8.417   4.254  0.7046  0.5858 -0.5773
53495SOL     OW78094   4.984   7.198   0.479  0.6453 -0.3818  0.2135
53495SOL    HW178095   5.057   7.137   0.476 -0.5362 -1.8847  0.6807
53495SOL    HW278096   4.940   7.186   0.394 -0.1450 -0.9097  0.6882
53496SOL     OW78097   9.371  13.877  12.097 -0.0120  0.0212 -0.3670
53496SOL    HW178098   9.328  13.895  12.013  1.6329 -2.1539 -1.7900
53496SOL    HW278099   9.362  13.782  12.107  1.7667 -0.0474  0.8068
53497SOL     OW78100   3.198   3.754  10.473  0.2022  0.0750  0.0977
53497SOL    HW178101   3.157   3.827  10.521  2.9929  1.3647  0.7308
53497SOL    HW278102   3.179   3.677  10.526 -2.1987  0.4012 -0.1839
53498SOL     OW78103   0.184   9.369   2.843  0.3996 -0.2433 -0.7091
53498SOL    HW178104   0.209   9.385   2.752 -0.6638  3.1236 -0.5545
53498SOL    HW278105   0.262   9.392   2.893  0.0701  0.8905 -0.6815
53499SOL     OW78106   5.058  10.872  12.469 -0.2639 -0.5637  0.3168
53499SOL    HW178107   5.028  10.793  12.425  0.7290 -1.0220  0.4498
53499SOL    HW278108   5.109  10.841  12.544  0.9746  0.1753 -0.1890
53500SOL     OW78109   2.929   4.004   4.112  0.5255  0.1655  0.3852
53500SOL    HW178110   2.865   4.073   4.096  0.2649 -0.2824 -0.6313
53500SOL    HW278111   2.997   4.020   4.046  0.6759 -0.2935  0.4265
53501SOL     OW78112   9.790   4.842  12.062 -0.0744  0.3037  0.0511
53501SOL    HW178113   9.764   4.755  12.032 -1.2225  0.1181  1.4489
53501SOL    HW278114   9.752   4.902  11.998  1.1622 -0.2177 -1.2099
53502SOL     OW78115   6.104   1.551   0.430 -0.2120 -0.5477 -0.3301
53502SOL    HW178116   6.089   1.564   0.524  0.4272  1.1956 -0.4194
53502SOL    HW278117   6.196   1.525   0.424  0.5345  1.8540 -0.5648
53503SOL     OW78118  10.204   1.942   6.099 -0.1572  0.5218  0.4540
53503SOL    HW178119  10.238   1.892   6.174 -2.4734  1.3784  2.1710
53503SOL    HW278120  10.130   1.991   6.134 -0.3703  2.1802 -2.0799
53504SOL     OW78121   1.466  11.097   3.025  0.3274  0.5867  0.2015
53504SOL    HW178122   1.428  11.116   2.939 -0.2621 -2.0680 -0.2372
53504SOL    HW278123   1.393  11.109   3.086 -0.4788 -1.4190 -0.2545
53505SOL     OW78124   1.738  13.323   3.322 -0.1822  0.5707 -0.3936
53505SOL    HW178125   1.823  13.317   3.365 -0.9892  1.0526  1.3743
53505SOL    HW278126   1.677  13.280   3.383 -1.3951  1.3868 -0.9839
53506SOL     OW78127  13.447   0.544  11.247  0.2072 -0.2889  0.6734
53506SOL    HW178128  13.438   0.587  11.332  2.8545 -0.1222  0.9559
53506SOL    HW278129  13.531   0.575  11.213 -0.5982 -0.6559 -1.8564
53507SOL     OW78130   0.174   5.779   3.513  0.3471  0.4688 -0.1345
53507SOL    HW178131   0.147   5.741   3.429 -1.2072  0.5091  0.3103
53507SOL    HW278132   0.269   5.783   3.508  0.3585 -0.6131 -1.4284
53508SOL     OW78133   0.363  13.074  10.102 -0.6741  0.1812  0.1537
53508SOL    HW178134   0.326  13.025  10.175 -2.9082  0.7489 -0.5015
53508SOL    HW278135   0.374  13.163  10.136  1.8799 -0.3182  0.8629
53509SOL     OW78136   4.299  13.515   2.838  0.7200  0.8969  0.1780
53509SOL    HW178137   4.376  13.524   2.781 -0.4512  2.0016 -1.3083
53509SOL    HW278138   4.315  13.576   2.910  1.4342  0.7865  0.1172
53510SOL     OW78139   7.799  12.825  11.981  0.2857  0.2204  0.3445
53510SOL    HW178140   7.706  12.808  11.992  0.1368 -0.1709 -1.2190
53510SOL    HW278141   7.837  12.738  11.967  0.8040  0.4307  0.4407
53511SOL     OW78142   3.362   1.415   5.426 -0.3797  0.4547 -0.2842
53511SOL    HW178143   3.455   1.437   5.419 -0.5378  1.0306 -0.6792
53511SOL    HW278144   3.356   1.326   5.393 -0.2086  1.0237 -1.9339
53512SOL     OW78145   0.149  11.647  10.147 -0.7894 -0.3996 -0.5527
53512SOL    HW178146   0.163  11.685  10.234 -0.8652 -2.0286  0.2267
53512SOL    HW278147   0.181  11.713  10.086  0.0547  0.4458  0.7499
53513SOL     OW78148   4.518   1.614   8.453 -0.0939 -0.1535 -0.6629
53513SOL    HW178149   4.520   1.709   8.442 -2.1440  0.0090 -0.0113
53513SOL    HW278150   4.504   1.580   8.364  2.3595 -0.0042 -1.1711
53514SOL     OW78151   1.419   0.535  12.718  0.1712  0.1038 -0.5678
53514SOL    HW178152   1.333   0.519  12.680  0.1550  1.6770 -1.2254
53514SOL    HW278153   1.415   0.492  12.804 -1.2626  0.1597 -0.5864
53515SOL     OW78154   8.143   5.835   8.874 -0.3539  0.2121  1.1303
53515SOL    HW178155   8.095   5.918   8.876 -1.1324 -0.2276  0.9640
53515SOL    HW278156   8.225   5.854   8.919  0.6522  1.7959 -1.1730
53516SOL     OW78157   3.053  12.503   6.725 -0.0488 -0.5941 -0.5764
53516SOL    HW178158   3.014  12.513   6.812  2.8816 -2.8682  1.1728
53516SOL    HW278159   3.133  12.555   6.729  0.5407 -1.3869 -1.6387
53517SOL     OW78160   0.162   6.304   1.794 -0.3527  0.4698 -0.3172
53517SOL    HW178161   0.162   6.319   1.889  0.3531 -0.6635 -0.1064
53517SOL    HW278162   0.076   6.266   1.776 -0.1312 -0.2421  0.0593
53518SOL     OW78163   5.527   3.543   9.619  0.4016  0.2537 -0.5618
53518SOL    HW178164   5.546   3.539   9.525  0.6924 -0.3415 -0.4808
53518SOL    HW278165   5.578   3.618   9.650 -0.5832  1.1711 -1.0722
53519SOL     OW78166   7.080   8.741   6.069 -0.1478  0.3039 -0.0997
53519SOL    HW178167   7.151   8.680   6.053  0.2180  0.6311  0.2629
53519SOL    HW278168   7.003   8.700   6.028  0.4828  0.5166 -1.5617
53520SOL     OW78169   1.186   6.348   0.012 -0.1802  0.4016 -0.6902
53520SOL    HW178170   1.128   6.416   0.047 -2.6514 -0.9852 -1.8485
53520SOL    HW278171   1.261   6.397  -0.023 -0.8940  2.3303  0.3018
53521SOL     OW78172   1.487  12.503   4.111  0.8582  0.5609  0.0846
53521SOL    HW178173   1.455  12.591   4.092 -0.0972  0.0098 -0.9350
53521SOL    HW278174   1.454  12.484   4.200  0.0552  0.7859 -0.1574
53522SOL     OW78175   1.339   7.874   6.569  0.1488 -0.1906 -0.3220
53522SOL    HW178176   1.340   7.892   6.663 -1.1469  0.2329 -0.3628
53522SOL    HW278177   1.339   7.779   6.562 -1.9618 -0.2853  0.2110
53523SOL     OW78178  12.779  13.614   0.215 -0.1350  0.2309  0.1102
53523SOL    HW178179  12.761  13.691   0.161 -1.8741  0.6663  1.2526
53523SOL    HW278180  12.860  13.635   0.260 -0.6043  1.4236  0.4306
53524SOL     OW78181   0.849   3.171   4.982 -0.0167 -0.3866  0.4973
53524SOL    HW178182   0.874   3.143   5.070  2.2330  1.1293  0.4318
53524SOL    HW278183   0.847   3.266   4.987  1.2252 -0.2214 -1.3205
53525SOL     OW78184   6.214   2.941   4.511 -0.2717  0.2483  0.4129
53525SOL    HW178185   6.289   3.000   4.521 -0.8784  0.9785  0.7491
53525SOL    HW278186   6.244   2.857   4.545  1.5367 -0.4499 -2.5261
53526SOL     OW78187  13.539   2.140   6.248  0.8237  0.1246  0.4683
53526SOL    HW178188  13.563   2.048   6.254 -0.7922 -0.2292  2.0876
53526SOL    HW278189  13.474   2.153   6.316 -0.5534  1.9765 -1.0957
53527SOL     OW78190  11.209   8.174  13.118 -0.2508 -0.4618  0.5116
53527SOL    HW178191  11.237   8.103  13.060  0.2092  1.0133 -1.1455
53527SOL    HW278192  11.188   8.130  13.200  2.2839 -2.2456  0.3220
53528SOL     OW78193   0.972   8.074   1.381  0.3349  0.0082 -0.2510
53528SOL    HW178194   0.965   8.169   1.380  1.6481  0.1305 -0.5020
53528SOL    HW278195   1.047   8.056   1.438 -0.7771 -0.9742  0.9681
53529SOL     OW78196  11.823   9.039  13.101  0.1942 -0.6892 -0.0267
53529SOL    HW178197  11.757   9.039  13.171  1.1717 -1.0931  0.9272
53529SOL    HW278198  11.864   8.953  13.106  0.7379 -0.4771 -0.6674
53530SOL     OW78199   0.624   0.925   9.844 -0.0603 -0.1976 -0.3441
53530SOL    HW178200   0.562   0.892   9.910  0.2520 -0.8826 -0.3823
53530SOL    HW278201   0.680   0.986   9.892  0.9635 -1.6221  0.3442
53531SOL     OW78202  12.555   6.434   3.602  0.7111 -0.0610  0.2928
53531SOL    HW178203  12.618   6.405   3.668  0.7949 -0.6369 -0.0320
53531SOL    HW278204  12.608   6.455   3.525  0.5012 -0.6729 -0.0258
53532SOL     OW78205  13.034   0.978   6.565  0.3051  0.3003 -0.1102
53532SOL    HW178206  13.032   1.010   6.474  2.4752  1.4372  0.1643
53532SOL    HW278207  12.976   0.902   6.565 -0.7480  1.0193 -2.1411
53533SOL     OW78208   0.636   0.769   3.610 -0.0767 -0.2374  0.1795
53533SOL    HW178209   0.564   0.784   3.670  0.8773 -0.1340  1.3400
53533SOL    HW278210   0.663   0.678   3.627 -1.4895 -1.1461 -2.0174
53534SOL     OW78211   3.516   3.499   5.296  0.5033 -0.2789 -0.6078
53534SOL    HW178212   3.516   3.407   5.321 -2.4339 -0.1538  0.1663
53534SOL    HW278213   3.516   3.498   5.200 -1.5810 -1.2089 -0.6496
53535SOL     OW78214   1.176   5.085   7.124  0.2513 -0.1690 -0.4851
53535SOL    HW178215   1.232   5.063   7.050  0.7418  0.8810 -0.4422
53535SOL    HW278216   1.141   5.172   7.103  1.4366  0.7353  1.0947
53536SOL     OW78217   6.245   0.247   3.799  0.1599 -0.2736 -0.3088
53536SOL    HW178218   6.176   0.184   3.777 -0.1102  0.4685 -1.6452
53536SOL    HW278219   6.327   0.198   3.788 -0.1046 -0.8192  0.1362
53537SOL     OW78220   6.994   0.769   5.430  0.0877  0.5138  0.5481
53537SOL    HW178221   6.914   0.822   5.435  0.3944  1.4666 -2.2922
53537SOL    HW278222   7.062   0.825   5.468  0.0214  1.3219 -0.4588
53538SOL     OW78223   1.868   3.184   3.291 -0.0153  0.0729  0.7233
53538SOL    HW178224   1.804   3.255   3.289  0.8195  0.8706 -1.9423
53538SOL    HW278225   1.938   3.217   3.348 -0.2658  0.8207  0.6109
53539SOL     OW78226   0.921   8.138   7.366 -0.2586  0.2313 -0.0230
53539SOL    HW178227   0.826   8.142   7.376 -0.1936 -0.1424  0.8343
53539SOL    HW278228   0.953   8.215   7.412 -0.1381  0.3026 -0.2262
53540SOL     OW78229   8.524   2.305   3.973 -0.1776  0.2293 -0.1639
53540SOL    HW178230   8.489   2.370   3.912  0.8744 -0.8460 -2.0109
53540SOL    HW278231   8.447   2.269   4.017 -0.9371  1.2267 -0.6332
53541SOL     OW78232   2.313   2.741  10.719  0.3452 -0.0613 -0.5777
53541SOL    HW178233   2.263   2.802  10.773  1.0478 -0.1658  0.2242
53541SOL    HW278234   2.250   2.673  10.695  0.0349 -0.0672  0.2117
53542SOL     OW78235   2.152   7.140   6.251  0.6438 -0.2526 -0.3126
53542SOL    HW178236   2.059   7.158   6.236  0.3391 -1.6809 -0.2714
53542SOL    HW278237   2.197   7.208   6.201 -0.4160  0.6203 -0.1330
53543SOL     OW78238  12.933   2.584  12.981  0.2418 -0.0045 -0.1513
53543SOL    HW178239  12.940   2.561  13.074 -0.5474  1.4572  0.3152
53543SOL    HW278240  12.849   2.547  12.954 -0.1429  0.6685  0.0910
53544SOL     OW78241   3.547   2.724   2.298 -0.1659 -0.4125 -0.3755
53544SOL    HW178242   3.513   2.657   2.356 -1.8414 -0.6235 -1.5217
53544SOL    HW278243   3.482   2.730   2.227  1.3405  0.4327 -1.7647
53545SOL     OW78244   7.149   2.730   6.336  0.9441 -0.0007 -0.4141
53545SOL    HW178245   7.190   2.703   6.254  0.8919  0.1849 -0.5007
53545SOL    HW278246   7.158   2.825   6.338  0.1096  0.0900 -0.6552
53546SOL     OW78247   7.975   8.899  13.326 -0.5859 -0.1345  0.6844
53546SOL    HW178248   7.913   8.916  13.397 -1.0046  1.6171 -0.0510
53546SOL    HW278249   7.925   8.847  13.263 -1.4686  1.4929 -0.0317
53547SOL     OW78250  12.342   6.086   9.091 -1.0136 -0.1935  0.4507
53547SOL    HW178251  12.409   6.149   9.063 -1.9523  1.5301  1.8608
53547SOL    HW278252  12.293   6.133   9.158 -4.3360 -0.9897 -1.2510
53548SOL     OW78253  13.770  13.742   0.903 -0.4399 -0.3136  0.2137
53548SOL    HW178254  13.783  13.834   0.882 -0.3914 -0.6513 -1.3625
53548SOL    HW278255  13.852  13.714   0.943 -0.5337  0.3559  0.9127
53549SOL     OW78256  12.389  13.412   1.437  0.5185 -0.0417 -0.4414
53549SOL    HW178257  12.337  13.396   1.516 -0.1468 -0.2776 -0.9191
53549SOL    HW278258  12.458  13.472   1.466  1.8521 -2.1154  0.9136
53550SOL     OW78259   5.801   0.923   3.451 -0.3033  0.2893  0.1324
53550SOL    HW178260   5.759   0.908   3.535 -1.4956  0.4679 -0.4073
53550SOL    HW278261   5.859   0.848   3.439 -0.4228  0.0633  0.9311
53551SOL     OW78262   1.277   0.772   1.573 -0.1984  0.5346  0.1527
53551SOL    HW178263   1.289   0.722   1.654 -1.8541  1.0450  0.7556
53551SOL    HW278264   1.278   0.863   1.601 -1.1417  0.7079 -0.3298
53552SOL     OW78265   9.648   0.487   1.084 -0.0833  0.4489  0.4819
53552SOL    HW178266   9.654   0.453   0.995 -0.1752 -2.4885  1.4970
53552SOL    HW278267   9.735   0.474   1.120  0.5771  3.6187  0.2539
53553SOL     OW78268   4.148  10.038   8.469  0.5152  0.3240 -0.2229
53553SOL    HW178269   4.197  10.096   8.411 -0.2251 -0.9838 -2.2928
53553SOL    HW278270   4.204   9.961   8.479 -0.8111 -0.9852 -2.2300
53554SOL     OW78271  13.722   8.430   6.819  0.2180 -0.3064 -0.2543
53554SOL    HW178272  13.683   8.517   6.814 -0.7674 -0.7715 -0.7956
53554SOL    HW278273  13.696   8.397   6.905  1.5099  0.3322  0.4261
53555SOL     OW78274   8.615   4.238   5.736 -0.2238 -0.1565 -0.6247
53555SOL    HW178275   8.583   4.213   5.649 -0.0021 -3.4371  0.0880
53555SOL    HW278276   8.546   4.208   5.796  0.6546 -0.0942  0.4493
53556SOL     OW78277   9.962   0.740  13.401  1.0163 -0.2040  0.3159
53556SOL    HW178278  10.053   0.755  13.427  1.1597 -0.4974 -0.0059
53556SOL    HW278279   9.966   0.729  13.306  0.8110 -1.4503  0.4423
53557SOL     OW78280   8.094  12.674   0.451  0.2748  0.3865  0.1033
53557SOL    HW178281   8.090  12.580   0.433 -0.0236  0.4105  0.0285
53557SOL    HW278282   8.186  12.697   0.441  0.2379  0.2464 -0.6045
53558SOL     OW78283   6.939  12.716  13.471  0.0141  0.0112  0.3234
53558SOL    HW178284   7.016  12.756  13.512  0.1738 -0.3618  0.3966
53558SOL    HW278285   6.971  12.686  13.386  0.0268 -0.3984  0.4674
53559SOL     OW78286   1.573  10.078   7.489 -0.0281  0.6935 -0.2648
53559SOL    HW178287   1.659  10.120   7.497 -0.3097  0.9556  4.4276
53559SOL    HW278288   1.515  10.148   7.459  0.6063  2.1197  1.5988
53560SOL     OW78289   2.669   2.315   4.369 -0.0097 -0.1146  0.1332
53560SOL    HW178290   2.725   2.387   4.394 -0.2946  1.1275 -2.4400
53560SOL    HW278291   2.729   2.241   4.357  0.8227  0.6495 -0.6014
53561SOL     OW78292   1.073   1.976   4.362  0.0128 -0.5779  0.9767
53561SOL    HW178293   1.121   2.027   4.297  0.3426 -0.3129  1.4164
53561SOL    HW278294   1.028   2.042   4.416  0.4422 -0.7417  1.5500
53562SOL     OW78295   8.790  11.657  12.132  0.4144 -0.3499 -0.7842
53562SOL    HW178296   8.733  11.580  12.126  0.4394 -0.5916  1.3877
53562SOL    HW278297   8.878  11.624  12.114  0.1234 -0.2843 -2.5024
53563SOL     OW78298  10.898   8.453   1.852 -0.5063  0.3286 -0.1451
53563SOL    HW178299  10.850   8.448   1.935 -1.8493  1.5183 -0.8124
53563SOL    HW278300  10.831   8.462   1.785  0.5628 -0.4699 -1.3805
53564SOL     OW78301   2.830  12.039   3.666 -0.2583  0.7540  0.4927
53564SOL    HW178302   2.779  12.016   3.744 -1.1737  0.7780 -0.0779
53564SOL    HW278303   2.916  12.000   3.681 -0.8419 -0.4412  0.9114
53565SOL     OW78304  11.308   6.537  11.570 -0.0368  0.1209 -0.0691
53565SOL    HW178305  11.214   6.529  11.555 -0.1812  3.0578 -1.4885
53565SOL    HW278306  11.316   6.566  11.661 -0.3854 -1.2345  0.4149
53566SOL     OW78307   5.306   0.759   0.278  0.3499 -0.4928  0.0893
53566SOL    HW178308   5.281   0.792   0.364 -0.8784 -0.6301 -0.2014
53566SOL    HW278309   5.366   0.825   0.243 -1.8638  1.3947 -0.3888
53567SOL     OW78310  11.843  12.733   5.552 -0.0899  0.4617  0.4810
53567SOL    HW178311  11.791  12.685   5.617  0.3333  0.5932  0.9259
53567SOL    HW278312  11.934  12.715   5.576  0.0816  1.6599  0.7976
53568SOL     OW78313  13.805  13.100   3.028 -0.5059 -0.1329  0.4124
53568SOL    HW178314  13.734  13.036   3.033 -1.3255  0.6506 -0.7586
53568SOL    HW278315  13.762  13.185   3.029  0.5611  0.4523  1.8168
53569SOL     OW78316  11.325   0.406  12.927 -0.8986 -0.2966 -0.4664
53569SOL    HW178317  11.279   0.461  12.991 -0.2336 -1.8433  1.4250
53569SOL    HW278318  11.413   0.443  12.923 -0.3745 -1.3175  0.9996
53570SOL     OW78319   8.045  11.133  13.884  0.3287  0.5788 -0.2227
53570SOL    HW178320   8.003  11.139  13.798  1.3806 -0.3723 -0.8402
53570SOL    HW278321   8.122  11.189  13.876 -0.2292  1.4771  0.5398
53571SOL     OW78322   1.003   5.608   2.114 -0.2433 -0.1214 -0.5023
53571SOL    HW178323   0.969   5.538   2.057  0.7007 -1.8412  0.9336
53571SOL    HW278324   1.085   5.634   2.073  0.0060 -0.7356 -0.4058
53572SOL     OW78325  12.898  11.041   8.361  0.1360  0.1606 -0.8831
53572SOL    HW178326  12.960  11.032   8.289  0.4787  0.9797 -0.6950
53572SOL    HW278327  12.846  11.118   8.338  0.8618  0.9937  0.1796
53573SOL     OW78328   0.890  13.485   8.626  0.4062 -0.4171  0.6527
53573SOL    HW178329   0.853  13.497   8.713 -2.1026  1.3741 -0.5007
53573SOL    HW278330   0.853  13.402   8.595  0.2829 -0.4400  0.8629
53574SOL     OW78331   3.617  13.927   2.133  0.0794 -0.0661  0.3175
53574SOL    HW178332   3.532  13.905   2.096 -0.1575  0.1792  0.7174
53574SOL    HW278333   3.619  14.022   2.136  1.4876  0.0868 -2.3117
53575SOL     OW78334   4.399   3.889   1.175  0.4924  0.5081 -0.2316
53575SOL    HW178335   4.402   3.798   1.202  0.9819  1.0289  1.6012
53575SOL    HW278336   4.465   3.896   1.105 -1.3791 -1.0526 -2.2727
53576SOL     OW78337  12.822  12.899  10.793 -0.2391  0.5243 -0.0092
53576SOL    HW178338  12.897  12.841  10.790 -0.1211  0.6925 -0.2817
53576SOL    HW278339  12.774  12.871  10.871 -0.3021 -0.0810 -0.2608
53577SOL     OW78340   2.428   7.910  12.116  0.0270 -0.1857  0.0341
53577SOL    HW178341   2.386   7.927  12.201 -0.4955  0.2373 -0.3015
53577SOL    HW278342   2.509   7.961  12.118 -0.7416  1.1018 -0.3252
53578SOL     OW78343   5.982   5.362  12.731  0.0483  0.0534 -0.3975
53578SOL    HW178344   5.978   5.429  12.662 -0.8253 -0.9505 -1.3434
53578SOL    HW278345   5.979   5.412  12.812  1.8279  1.3180 -1.0418
53579SOL     OW78346  10.779   6.609   3.543 -0.3801 -0.4584  0.1463
53579SOL    HW178347  10.753   6.683   3.488 -1.0110 -1.5801 -1.1445
53579SOL    HW278348  10.856   6.573   3.500  0.1278 -0.3589  0.9536
53580SOL     OW78349  13.060   4.708  13.758 -0.3272 -0.1761  0.0578
53580SOL    HW178350  13.143   4.714  13.806 -0.1040  0.4439 -0.3917
53580SOL    HW278351  12.993   4.734  13.822  0.0856  1.8955 -0.2855
53581SOL     OW78352   4.892   1.497   1.907  0.5506  0.0503 -0.1339
53581SOL    HW178353   4.913   1.405   1.891  1.0705  0.0837  0.3047
53581SOL    HW278354   4.958   1.545   1.856  1.1325  0.1662  0.7135
53582SOL     OW78355   0.537   1.835  11.479 -0.4042  0.4423 -0.2466
53582SOL    HW178356   0.501   1.830  11.567  0.0865 -0.4631 -0.0820
53582SOL    HW278357   0.463   1.864  11.424 -0.5654  1.5562  0.5256
53583SOL     OW78358   9.421   2.311   3.685  0.5737 -0.1535 -0.0236
53583SOL    HW178359   9.449   2.281   3.599  0.8811  0.8918 -0.2988
53583SOL    HW278360   9.333   2.277   3.695 -0.0265  0.9039 -1.3788
53584SOL     OW78361  12.343   1.113  14.002  1.0252 -0.4766  0.1470
53584SOL    HW178362  12.413   1.065  13.957  0.9265 -0.9140  0.4568
53584SOL    HW278363  12.275   1.122  13.936  0.3175 -2.3040  0.5571
53585SOL     OW78364  13.791   0.752   8.533  0.2116 -0.1740  0.1407
53585SOL    HW178365  13.789   0.778   8.625 -1.0796  0.0848  0.0687
53585SOL    HW278366  13.708   0.784   8.497  0.9435  0.2624 -1.2666
53586SOL     OW78367  11.340   2.911   9.814 -1.0034  0.0162 -0.1396
53586SOL    HW178368  11.253   2.897   9.853 -0.0310 -1.2705  1.6965
53586SOL    HW278369  11.401   2.869   9.875  0.9842  1.3364 -1.1127
53587SOL     OW78370  12.984   5.729   5.364 -0.2067 -0.1692 -0.6313
53587SOL    HW178371  12.936   5.646   5.354 -0.1611 -0.1876 -0.7034
53587SOL    HW278372  13.019   5.746   5.276  1.6741 -1.2296 -0.1481
53588SOL     OW78373   4.062   2.998  11.385 -0.6172  0.3026 -0.2606
53588SOL    HW178374   4.031   2.974  11.472  0.3365  0.8740  0.2552
53588SOL    HW278375   4.098   3.086  11.396 -1.3712  0.7855 -1.4515
53589SOL     OW78376   1.019   6.337   4.774  0.0814 -0.0018 -0.2430
53589SOL    HW178377   1.033   6.245   4.796  1.0248  0.0793 -0.4536
53589SOL    HW278378   0.960   6.334   4.699 -0.6048 -0.3958  0.3029
53590SOL     OW78379   5.016   0.242   9.723 -0.6906 -0.4940 -0.5796
53590SOL    HW178380   5.009   0.325   9.677  0.3304 -0.2576 -0.3271
53590SOL    HW278381   5.057   0.183   9.660  0.7400 -0.1610  0.0004
53591SOL     OW78382   0.849  10.352   6.000 -0.0474 -0.3053 -0.4213
53591SOL    HW178383   0.873  10.286   5.935 -2.2669 -0.2599 -1.3653
53591SOL    HW278384   0.847  10.305   6.083 -0.7697 -1.2347 -0.9541
53592SOL     OW78385   4.175   7.786   0.502  0.2659  0.2620  0.0415
53592SOL    HW178386   4.230   7.785   0.580  0.4653  1.7856 -0.0396
53592SOL    HW278387   4.236   7.778   0.429  0.2349  0.4090 -0.0016
53593SOL     OW78388   8.604  13.478   6.496  1.0962 -0.3379 -0.3503
53593SOL    HW178389   8.650  13.510   6.419 -0.4266  3.0115 -0.0123
53593SOL    HW278390   8.511  13.488   6.474  0.6317 -0.0709  1.6132
53594SOL     OW78391   3.313   3.073   5.710  0.0944  0.4608 -0.1985
53594SOL    HW178392   3.237   3.021   5.684 -0.8033  1.6377 -0.0170
53594SOL    HW278393   3.280   3.129   5.781  0.5191  2.5139 -1.5282
53595SOL     OW78394   3.423   4.514   6.477 -0.3185 -0.4213 -0.4835
53595SOL    HW178395   3.381   4.598   6.498 -2.1774 -1.0613 -1.3775
53595SOL    HW278396   3.440   4.519   6.383  1.2119 -0.3758 -0.2183
53596SOL     OW78397  11.795  10.695  11.825  0.3599  0.1138 -0.1811
53596SOL    HW178398  11.743  10.774  11.807 -0.6020 -0.4408  0.0549
53596SOL    HW278399  11.879  10.728  11.857 -0.3062  1.0546  0.6660
53597SOL     OW78400   7.922   2.997  10.070 -0.4011 -0.4351  0.1341
53597SOL    HW178401   7.834   2.991  10.108 -0.7251  1.4401 -0.2467
53597SOL    HW278402   7.960   3.075  10.110  1.1550 -1.2814  0.3760
53598SOL     OW78403   5.003   2.989   4.434 -0.5040  0.1222 -0.1384
53598SOL    HW178404   5.017   3.045   4.358 -1.3899 -0.0894 -0.4696
53598SOL    HW278405   4.971   3.049   4.502 -2.2602 -0.0787 -0.7434
53599SOL     OW78406   4.663   7.048   8.719 -0.0851  0.0696 -0.5925
53599SOL    HW178407   4.727   6.977   8.720  0.8758  0.8927 -1.7258
53599SOL    HW278408   4.586   7.011   8.762  0.7283 -1.3332 -0.2835
53600SOL     OW78409   5.456   9.060   0.659  0.3618 -0.6230  0.1832
53600SOL    HW178410   5.471   9.154   0.662 -1.5607 -0.2664  0.0348
53600SOL    HW278411   5.427   9.038   0.747 -2.3038 -0.4192 -0.5458
53601SOL     OW78412   9.842   4.590   3.393 -0.4114  0.0600 -0.3155
53601SOL    HW178413   9.848   4.657   3.324 -2.2930  0.1216 -0.4669
53601SOL    HW278414   9.783   4.524   3.357 -0.9874 -0.1727  1.0152
53602SOL     OW78415   5.081  10.315   2.988  0.5700  0.5064  0.7950
53602SOL    HW178416   5.165  10.284   3.020  0.1888 -1.6295 -0.1075
53602SOL    HW278417   5.031  10.235   2.971 -0.1281  1.5175 -2.7236
53603SOL     OW78418   1.691   7.516  12.852 -0.5867 -0.4754  0.6232
53603SOL    HW178419   1.774   7.524  12.899 -0.7384 -0.4712  0.8953
53603SOL    HW278420   1.640   7.593  12.881 -0.5092 -0.2268  0.1034
53604SOL     OW78421  12.128   6.640   3.336 -0.1848  0.5957 -0.0971
53604SOL    HW178422  12.150   6.733   3.324 -2.9800  1.4329  0.4662
53604SOL    HW278423  12.167   6.617   3.420  0.6078  1.2280 -0.2785
53605SOL     OW78424  11.143   1.063   3.509 -0.0296  0.2139 -0.0206
53605SOL    HW178425  11.211   1.057   3.442 -1.0677  0.4664 -1.1294
53605SOL    HW278426  11.090   1.139   3.484 -1.0823 -0.3306  0.4773
53606SOL     OW78427   4.426   5.069  11.860  0.0349 -0.0083 -0.0161
53606SOL    HW178428   4.370   5.052  11.936  2.8986 -0.9166  2.0635
53606SOL    HW278429   4.440   5.164  11.861 -0.4726  0.0656  0.1908
53607SOL     OW78430   9.602   6.280   2.888 -0.1890 -0.1477 -0.2129
53607SOL    HW178431   9.655   6.328   2.824 -1.1892  0.4549 -0.6109
53607SOL    HW278432   9.582   6.344   2.956 -0.3982 -0.3625 -0.0702
53608SOL     OW78433   3.320   9.483  10.947 -0.5681 -0.2261 -0.3238
53608SOL    HW178434   3.286   9.566  10.981  0.6891  0.8169 -1.5169
53608SOL    HW278435   3.253   9.419  10.971 -0.8984  0.8581  1.8938
53609SOL     OW78436   9.857   0.124   6.801  0.0406 -0.1965 -0.6460
53609SOL    HW178437   9.794   0.164   6.742 -0.6561  1.9782  1.4170
53609SOL    HW278438   9.942   0.156   6.770 -0.2440  0.2602 -0.9768
53610SOL     OW78439   9.778   8.006   1.908  0.0621 -0.1063  0.4433
53610SOL    HW178440   9.848   7.983   1.847 -0.6306 -1.3072  0.0765
53610SOL    HW278441   9.697   7.991   1.859 -0.5307  3.3725  0.0695
53611SOL     OW78442   1.832  10.795   8.863  0.5112  0.7759 -0.0518
53611SOL    HW178443   1.819  10.889   8.849 -1.9540  0.4086 -0.6723
53611SOL    HW278444   1.775  10.773   8.937  0.7661 -0.2993 -0.1555
53612SOL     OW78445   1.334  10.482   0.298  0.3967 -0.0537  0.0685
53612SOL    HW178446   1.354  10.395   0.332 -1.4021 -0.6512 -0.2445
53612SOL    HW278447   1.271  10.465   0.228  0.0149  1.5030  0.0115
53613SOL     OW78448  13.742   2.588  12.098 -0.0627 -0.1631 -0.4940
53613SOL    HW178449  13.683   2.596  12.023 -0.6434 -2.1394 -0.3085
53613SOL    HW278450  13.781   2.501  12.089 -2.0797 -1.6146  2.7755
53614SOL     OW78451  10.111   5.061   6.571 -0.0276 -0.2083  0.4374
53614SOL    HW178452  10.187   5.112   6.601  1.3610 -1.6075 -0.5360
53614SOL    HW278453  10.054   5.126   6.529  0.9748  0.7664  0.5284
53615SOL     OW78454  10.825   5.725   9.523  0.5480  0.3056 -0.4334
53615SOL    HW178455  10.810   5.815   9.553  1.9610  1.0894 -1.9115
53615SOL    HW278456  10.752   5.707   9.464 -0.9957 -0.4206  1.5670
53616SOL     OW78457   7.593  11.844   8.405 -0.5716  0.5909 -0.2190
53616SOL    HW178458   7.634  11.761   8.428 -1.8257  0.2265  0.8561
53616SOL    HW278459   7.499  11.824   8.401 -1.0055  2.1376  1.0261
53617SOL     OW78460  10.504   7.013   0.071 -0.6197  0.2865 -0.1268
53617SOL    HW178461  10.449   6.971   0.137 -0.5915  0.5806  0.0845
53617SOL    HW278462  10.451   7.012  -0.009 -0.3453 -0.8031 -0.3137
53618SOL     OW78463  12.853  12.732  11.864  0.3672 -0.9952  0.0962
53618SOL    HW178464  12.775  12.782  11.841  0.4601 -1.0684 -0.3923
53618SOL    HW278465  12.858  12.664  11.796  0.4442 -1.4396  0.5425
53619SOL     OW78466  11.608   3.463  14.007  0.0754 -0.5346  0.4147
53619SOL    HW178467  11.704   3.463  14.002  0.1866  0.6310  1.9213
53619SOL    HW278468  11.581   3.397  13.943  1.9167 -1.6942  0.7504
53620SOL     OW78469  11.693   6.330  13.566 -0.5976  0.3526  0.1940
53620SOL    HW178470  11.759   6.343  13.498  1.0209  0.3991  1.7062
53620SOL    HW278471  11.662   6.240  13.553  0.5957 -0.0651  0.1536
53621SOL     OW78472   2.699   4.338  13.836 -0.1632 -0.3454  0.0129
53621SOL    HW178473   2.791   4.345  13.860  0.0241  0.3829 -0.8397
53621SOL    HW278474   2.700   4.334  13.740 -1.1217  2.1254 -0.1797
53622SOL     OW78475  10.999   2.708   3.670 -0.9390  0.6833 -0.0888
53622SOL    HW178476  11.071   2.658   3.633 -1.4239  0.4649 -0.7397
53622SOL    HW278477  11.031   2.798   3.672 -0.1062  0.3827  0.9859
53623SOL     OW78478   3.855  13.449   1.199 -0.2067 -0.1603 -0.0572
53623SOL    HW178479   3.830  13.525   1.252  0.2703 -0.8860  1.2638
53623SOL    HW278480   3.879  13.485   1.114  1.2168  1.3080  0.9187
53624SOL     OW78481   9.282  12.442  14.078 -0.5078 -0.6276  0.0050
53624SOL    HW178482   9.296  12.534  14.101 -0.1053 -0.7662  0.3188
53624SOL    HW278483   9.364  12.414  14.039 -1.1883 -0.3906 -1.6899
53625SOL     OW78484   6.231  11.966   6.725  0.7097 -0.6723 -0.3632
53625SOL    HW178485   6.293  11.894   6.723  1.3736 -0.1079 -2.2027
53625SOL    HW278486   6.147  11.926   6.703  0.7155 -1.1687  0.4818
53626SOL     OW78487  13.249  12.387  11.602 -0.4545  0.2655 -0.1099
53626SOL    HW178488  13.330  12.431  11.576  1.3388 -2.8464 -0.2980
53626SOL    HW278489  13.181  12.433  11.554  1.4244  1.7393 -1.5455
53627SOL     OW78490   5.097   1.350   2.148  0.1768  0.0321 -0.2714
53627SOL    HW178491   5.124   1.335   2.239  1.3615  2.0248 -0.2244
53627SOL    HW278492   5.044   1.429   2.151 -1.1880 -0.8126 -1.1313
53628SOL     OW78493   7.055   4.098  12.178  0.7664  0.2255  0.7074
53628SOL    HW178494   7.106   4.030  12.134 -0.2380 -0.1009  0.0010
53628SOL    HW278495   7.028   4.058  12.261 -0.4612 -0.5641 -0.0293
53629SOL     OW78496   8.708   9.742   0.220 -0.1189 -0.0573  0.1741
53629SOL    HW178497   8.663   9.702   0.146 -1.1283 -0.3756  0.9232
53629SOL    HW278498   8.647   9.730   0.293  1.3058 -0.6990  1.2882
53630SOL     OW78499   1.956  12.247   9.624  0.6083  0.1870  0.4031
53630SOL    HW178500   1.874  12.247   9.674 -0.9720  0.4643 -2.0137
53630SOL    HW278501   1.965  12.337   9.594  1.9188  0.1867  0.7585
53631SOL     OW78502   8.388   1.116   2.535  0.3063  0.7414  0.4340
53631SOL    HW178503   8.443   1.070   2.599  0.9003  1.4088  0.4236
53631SOL    HW278504   8.426   1.204   2.531  0.3325  0.6855 -0.9106
53632SOL     OW78505   7.042   7.143  10.103 -0.3688  0.1790  0.2992
53632SOL    HW178506   6.948   7.164  10.097 -0.1899  1.6555  1.9600
53632SOL    HW278507   7.052   7.101  10.188  0.4253 -0.3604 -0.0537
53633SOL     OW78508   4.516   9.953  11.929  0.4898 -0.0296  0.1751
53633SOL    HW178509   4.516   9.861  11.903  0.2487  0.2485 -0.8605
53633SOL    HW278510   4.494   9.952  12.022 -1.4853 -0.9288 -0.2435
53634SOL     OW78511   8.653  13.640   2.832 -0.6564  0.0118 -0.6953
53634SOL    HW178512   8.690  13.672   2.915  0.6094 -0.5568 -1.0238
53634SOL    HW278513   8.645  13.546   2.844 -2.2831  0.1472 -0.5412
53635SOL     OW78514   2.615   2.613   7.424  0.0920 -0.5713  0.7733
53635SOL    HW178515   2.614   2.638   7.516  0.6153  0.4083  0.5299
53635SOL    HW278516   2.535   2.563   7.411  0.0399 -0.7585  1.7688
53636SOL     OW78517   1.727   3.369   1.333  0.0990  0.5996  0.1922
53636SOL    HW178518   1.812   3.329   1.314  0.5407  1.5539  0.0701
53636SOL    HW278519   1.736   3.459   1.302 -0.1679  1.3728  2.1979
53637SOL     OW78520  13.632  12.862   8.429  0.0434  0.5236  0.7886
53637SOL    HW178521  13.556  12.839   8.482  0.5297  1.0734  1.7693
53637SOL    HW278522  13.702  12.804   8.462  0.0780  0.1017 -0.0192
53638SOL     OW78523  10.404   5.261   1.876 -0.2154 -0.7405  0.0147
53638SOL    HW178524  10.399   5.356   1.863 -0.3073 -0.8367 -0.6578
53638SOL    HW278525  10.369   5.248   1.964  1.1870  0.0052  0.7274
53639SOL     OW78526  11.278  10.859   3.298 -0.0389 -0.5434  0.1401
53639SOL    HW178527  11.316  10.910   3.227  0.8266 -0.6182  0.5473
53639SOL    HW278528  11.200  10.818   3.259 -1.0061  1.3904 -0.0835
53640SOL     OW78529   0.259  11.136   5.988 -0.0998 -0.1941  0.4836
53640SOL    HW178530   0.344  11.113   6.026 -0.6051  0.2374  1.9120
53640SOL    HW278531   0.245  11.070   5.920  1.6949  0.1416 -0.2846
53641SOL     OW78532   9.490   0.185   7.546 -0.5559  0.5536  0.7173
53641SOL    HW178533   9.508   0.181   7.640 -3.4108 -0.6179  1.3204
53641SOL    HW278534   9.405   0.230   7.541  0.5678  2.6219 -1.5226
53642SOL     OW78535   5.034  13.132   8.396  0.1199  0.0858 -0.1581
53642SOL    HW178536   4.961  13.185   8.427 -0.0775 -0.3872  0.2016
53642SOL    HW278537   5.105  13.151   8.457  0.3939  0.7662 -0.6783
53643SOL     OW78538  12.506  12.387   5.504  0.0677 -0.1899  0.4911
53643SOL    HW178539  12.591  12.404   5.464  0.5879 -1.3678  1.0450
53643SOL    HW278540  12.448  12.371   5.429  0.2657  0.8544  0.1034
53644SOL     OW78541   3.919   8.665   2.910  0.0354 -0.2571 -0.1695
53644SOL    HW178542   3.977   8.697   2.841 -0.4183 -1.1052 -0.9716
53644SOL    HW278543   3.883   8.744   2.950 -0.4655  0.2680 -1.5772
53645SOL     OW78544   3.274  11.697  13.886  0.3442 -0.4232  0.6414
53645SOL    HW178545   3.295  11.790  13.875 -0.5197 -0.3151 -0.2623
53645SOL    HW278546   3.180  11.696  13.903 -0.1108 -1.2387 -1.6154
53646SOL     OW78547  11.005   2.798   7.242  0.6419  0.0013 -0.5916
53646SOL    HW178548  10.930   2.748   7.274  1.5058 -1.0202 -0.1280
53646SOL    HW278549  11.081   2.745   7.263  1.6217  1.5711  0.0248
53647SOL     OW78550  10.734  11.969   3.952 -0.0858 -0.2611  0.0214
53647SOL    HW178551  10.728  11.875   3.970  0.8456  0.0241  2.1194
53647SOL    HW278552  10.804  11.977   3.888 -1.0012 -1.0512 -1.1363
53648SOL     OW78553  12.439   3.130   1.834  0.2439 -0.6713 -0.1133
53648SOL    HW178554  12.495   3.098   1.904 -0.4800  1.1870  1.3791
53648SOL    HW278555  12.492   3.195   1.788 -0.3740  0.4990  0.7934
53649SOL     OW78556   6.497  13.429  10.913  0.1816  0.2979  0.0606
53649SOL    HW178557   6.587  13.441  10.943  0.3627 -0.3266 -0.2257
53649SOL    HW278558   6.456  13.376  10.981  0.4643 -0.7283 -0.5607
53650SOL     OW78559   8.379   9.258   0.544  0.0315  0.0051 -0.4461
53650SOL    HW178560   8.290   9.292   0.551  0.4003  0.7565  1.2987
53650SOL    HW278561   8.390   9.203   0.622  0.8531 -0.7133 -1.0412
53651SOL     OW78562   9.002   3.817   2.747  0.5145  0.0602 -0.2357
53651SOL    HW178563   8.979   3.907   2.724  1.8821  0.4601 -0.1609
53651SOL    HW278564   9.000   3.769   2.664 -2.4087 -0.4230  0.0081
53652SOL     OW78565   6.536  11.877   7.677  0.1555  0.4723  0.2543
53652SOL    HW178566   6.599  11.941   7.644  0.7076  0.3699  1.0853
53652SOL    HW278567   6.475  11.928   7.729  0.4704  0.3593  0.7395
53653SOL     OW78568   8.005   8.171   0.043 -0.1426  0.6511 -0.3311
53653SOL    HW178569   8.088   8.215   0.025  0.3597  0.6936  1.7912
53653SOL    HW278570   8.006   8.156   0.138 -1.5670 -1.3783 -0.5762
53654SOL     OW78571  11.758  13.788   5.425 -0.0579 -0.2869  0.6690
53654SOL    HW178572  11.685  13.834   5.383  0.0470  1.1886  1.9724
53654SOL    HW278573  11.718  13.713   5.468 -0.6840  0.0449  0.6771
53655SOL     OW78574   5.787   2.641   7.616 -0.1743 -0.6951 -0.3078
53655SOL    HW178575   5.720   2.593   7.568  0.5256 -0.6992 -1.3261
53655SOL    HW278576   5.758   2.640   7.707 -2.3955  0.7550 -0.9482
53656SOL     OW78577   3.241   7.756   6.418  0.1171  0.5967  0.1857
53656SOL    HW178578   3.167   7.760   6.479  0.0044  0.0735  0.0865
53656SOL    HW278579   3.317   7.744   6.475  0.2935  2.3624  0.3850
53657SOL     OW78580   9.660   4.728   1.039 -0.2297  0.0029  0.2757
53657SOL    HW178581   9.708   4.802   1.001  0.0877  0.1944  1.0340
53657SOL    HW278582   9.569   4.758   1.043 -0.2967 -0.0742 -0.4502
53658SOL     OW78583  12.636   8.301   6.864 -0.0806 -0.3979  0.4054
53658SOL    HW178584  12.636   8.373   6.926  0.5494 -0.1049  0.0719
53658SOL    HW278585  12.639   8.222   6.919 -0.4955 -0.1695  0.7633
53659SOL     OW78586  11.400   2.571   4.234  0.0926 -0.6773  0.1236
53659SOL    HW178587  11.406   2.479   4.209 -0.1888 -0.2050 -1.8819
53659SOL    HW278588  11.461   2.580   4.307  1.2908 -2.1358 -0.6323
53660SOL     OW78589   8.015   7.344   5.924 -0.1163 -0.3115  0.0798
53660SOL    HW178590   8.065   7.318   5.847 -0.5834 -0.3713 -0.2092
53660SOL    HW278591   8.075   7.399   5.975 -0.0578  0.3646 -0.7073
53661SOL     OW78592  11.456   6.058   1.360 -0.2044 -0.4756 -0.0976
53661SOL    HW178593  11.423   6.125   1.300  0.9416 -0.3513 -0.6053
53661SOL    HW278594  11.430   6.090   1.447 -0.4589  0.1633 -0.3986
53662SOL     OW78595   1.936   3.305   1.892 -0.3661  0.6035 -0.0877
53662SOL    HW178596   2.008   3.243   1.878 -0.9646  0.1490 -1.4144
53662SOL    HW278597   1.978   3.391   1.894  0.5063  0.1767  2.0092
53663SOL     OW78598   9.281   4.106   1.278  0.1516  0.3167  0.2585
53663SOL    HW178599   9.286   4.014   1.301 -1.7795  0.1766  0.2836
53663SOL    HW278600   9.187   4.126   1.279  0.2800  1.5390 -2.6445
53664SOL     OW78601  12.864   6.830   8.713  0.1179  0.1797  0.1385
53664SOL    HW178602  12.825   6.823   8.800 -0.8312  0.0285 -0.2873
53664SOL    HW278603  12.831   6.753   8.666  1.8925 -0.6105  0.1255
53665SOL     OW78604   3.772  11.628  13.869  0.1636 -0.0670 -0.4204
53665SOL    HW178605   3.825  11.682  13.810  0.5205 -1.1625 -1.1474
53665SOL    HW278606   3.812  11.541  13.863  0.3626 -0.1528  1.6733
53666SOL     OW78607   9.718   6.512  11.793  0.1541 -0.6324  0.0930
53666SOL    HW178608   9.648   6.521  11.857  0.5489  0.9984  0.3393
53666SOL    HW278609   9.795   6.549  11.836  0.7126 -0.6189 -0.8709
53667SOL     OW78610   9.427   3.265  13.746 -0.2472 -0.3545  0.0429
53667SOL    HW178611   9.344   3.240  13.787  0.1212 -0.6888  0.6072
53667SOL    HW278612   9.402   3.304  13.663 -1.1822  2.2896  1.4407
53668SOL     OW78613   3.024   0.557   2.431  0.2201  0.3311  0.5566
53668SOL    HW178614   3.032   0.652   2.445 -1.0917  0.3006  1.7380
53668SOL    HW278615   2.956   0.548   2.365 -0.4388  0.1880  1.2491
53669SOL     OW78616   5.985   8.082   0.885  0.2055 -0.7749  0.3647
53669SOL    HW178617   5.918   8.149   0.876  0.3472 -0.6888 -0.0977
53669SOL    HW278618   6.016   8.090   0.975  0.9001  0.4287  0.0389
53670SOL     OW78619   7.295   3.858   2.336  0.4663  0.2256 -0.0233
53670SOL    HW178620   7.292   3.953   2.330  1.5463  0.1705 -2.3250
53670SOL    HW278621   7.374   3.833   2.288 -0.4375 -1.8950 -0.5031
53671SOL     OW78622   6.010   0.163   9.559  0.1367 -0.1626 -0.5751
53671SOL    HW178623   5.936   0.117   9.519  0.2228 -1.1021  0.2830
53671SOL    HW278624   6.010   0.250   9.519 -1.7183  0.0202 -0.2494
53672SOL     OW78625   6.688   5.756   9.289 -0.5184 -0.0693  0.1390
53672SOL    HW178626   6.694   5.733   9.382  1.2302 -1.0341 -0.1714
53672SOL    HW278627   6.778   5.774   9.263 -1.0419  0.6701 -1.2771
53673SOL     OW78628  11.684   0.338   7.644  0.7013  0.0656  0.1377
53673SOL    HW178629  11.637   0.421   7.646  1.0630  0.2698  0.3050
53673SOL    HW278630  11.723   0.334   7.556  3.7164  1.8111  1.2390
53674SOL     OW78631  13.545   0.861   0.460  0.0357 -0.3427 -0.4421
53674SOL    HW178632  13.579   0.771   0.463  1.2626  0.1143 -0.1629
53674SOL    HW278633  13.477   0.863   0.528 -0.4850 -1.2428 -0.9197
53675SOL     OW78634   2.600   1.259   0.386  0.1174 -0.0170 -0.0170
53675SOL    HW178635   2.547   1.189   0.350  0.0465 -0.3348  0.7058
53675SOL    HW278636   2.574   1.337   0.336  2.4579 -1.0093 -3.1194
53676SOL     OW78637  12.115  13.512   6.667  0.4898  0.4435  0.1753
53676SOL    HW178638  12.042  13.560   6.628 -0.4920 -0.3002  1.0040
53676SOL    HW278639  12.115  13.427   6.622  0.8225  0.4261  0.2050
53677SOL     OW78640   7.783   2.725   7.587  0.3007 -0.1114 -0.3100
53677SOL    HW178641   7.710   2.765   7.541 -0.0644  0.2840  0.5910
53677SOL    HW278642   7.764   2.631   7.586 -0.8671  0.0830  0.9709
53678SOL     OW78643   6.985   7.097  10.351 -0.5600  0.8325 -0.2132
53678SOL    HW178644   6.943   7.027  10.401 -0.8520  0.9055 -0.3555
53678SOL    HW278645   6.970   7.176  10.403 -0.7626  0.8890 -0.3552
53679SOL     OW78646  11.219   1.816   3.667  0.7409  0.3852  0.5186
53679SOL    HW178647  11.259   1.902   3.675  1.3034  0.1912 -0.1070
53679SOL    HW278648  11.293   1.756   3.659  0.3489 -0.1413  0.8014
53680SOL     OW78649   4.007   8.917  12.996  0.1689 -0.4524 -0.6984
53680SOL    HW178650   4.083   8.858  12.995 -1.3060 -2.4981 -0.2406
53680SOL    HW278651   3.933   8.858  13.011 -1.8114  1.1224 -3.4456
53681SOL     OW78652  13.880   9.142   1.329 -0.3168  0.6855 -0.6718
53681SOL    HW178653  13.923   9.087   1.264  0.8390  0.9501 -0.1606
53681SOL    HW278654  13.906   9.231   1.305 -0.3807  0.8316 -0.2009
53682SOL     OW78655  11.793   4.685   8.278 -0.0685  0.2406 -0.1379
53682SOL    HW178656  11.761   4.704   8.367  0.1373 -0.6872  0.1518
53682SOL    HW278657  11.861   4.619   8.291 -1.1282 -1.1133 -1.0932
53683SOL     OW78658   1.977  13.724   0.890  0.3252 -0.0942  0.0848
53683SOL    HW178659   2.023  13.805   0.912  0.4901 -0.0823 -0.2843
53683SOL    HW278660   2.031  13.655   0.927  0.7572 -0.0907 -0.5087
53684SOL     OW78661   6.008   4.890   4.655  0.2745 -0.4321  0.0736
53684SOL    HW178662   5.983   4.889   4.747 -0.9735  0.7808 -0.2157
53684SOL    HW278663   6.033   4.799   4.636 -2.0089 -1.3274  0.9432
53685SOL     OW78664   9.995   3.102   0.467  0.4687  0.0402 -0.3725
53685SOL    HW178665  10.075   3.064   0.504 -0.6771 -0.3187  1.9312
53685SOL    HW278666   9.996   3.075   0.375  1.6835 -2.2104  0.2278
53686SOL     OW78667  11.871  12.424   2.260 -0.2986  0.0056 -0.0597
53686SOL    HW178668  11.899  12.334   2.247  1.3913  0.4491  0.3128
53686SOL    HW278669  11.776  12.418   2.272 -0.4925 -1.5183 -1.8434
53687SOL     OW78670   0.867   4.022   0.709 -0.4870  0.1223 -0.3560
53687SOL    HW178671   0.818   4.100   0.684 -0.0928  0.4832 -0.0085
53687SOL    HW278672   0.915   4.047   0.788  0.6279 -0.0771 -0.9515
53688SOL     OW78673   4.253  12.713  13.911 -0.1612 -0.2833  0.4170
53688SOL    HW178674   4.195  12.639  13.929 -0.9606  0.8079  2.8718
53688SOL    HW278675   4.234  12.775  13.982  0.1276  2.4971 -1.7596
53689SOL     OW78676   3.925   4.637   3.761 -0.6955 -0.1767 -0.1522
53689SOL    HW178677   3.935   4.569   3.828 -1.4201  0.6297  0.8118
53689SOL    HW278678   3.984   4.707   3.788  0.3061 -0.5331 -1.3314
53690SOL     OW78679   1.951  10.190   5.331  0.1619 -0.1295  0.2234
53690SOL    HW178680   2.041  10.163   5.315  0.4977  0.3800  1.2043
53690SOL    HW278681   1.957  10.260   5.396 -0.9819 -0.5020  0.7631
53691SOL     OW78682   9.146   6.940   2.810  0.3247 -0.1973 -0.0119
53691SOL    HW178683   9.114   6.906   2.727  2.5381 -1.9630 -0.2404
53691SOL    HW278684   9.071   6.936   2.869 -0.4366 -2.1909 -1.0286
53692SOL     OW78685   7.620   8.361   3.461 -0.4673 -0.0586 -0.1339
53692SOL    HW178686   7.686   8.406   3.408  0.3781 -0.7730  0.2799
53692SOL    HW278687   7.590   8.428   3.523 -2.2280  1.0860 -2.1173
53693SOL     OW78688   1.759   6.887  11.059  0.3209  0.0572 -0.1520
53693SOL    HW178689   1.762   6.861  11.151 -0.1198  1.1070  0.1804
53693SOL    HW278690   1.851   6.902  11.035  0.3989  0.2953  0.2817
53694SOL     OW78691   3.832   9.574  13.751  0.4723 -0.0019  0.1980
53694SOL    HW178692   3.790   9.634  13.813  1.3170 -0.8256  1.6017
53694SOL    HW278693   3.898   9.528  13.802 -0.2202 -2.2409 -0.7949
53695SOL     OW78694  11.722  13.036  10.074  0.1709  0.8544 -0.1495
53695SOL    HW178695  11.773  12.958  10.054  0.0967  0.6587  0.4075
53695SOL    HW278696  11.785  13.108  10.069  0.5154  0.6139  0.5495
53696SOL     OW78697  12.354   7.211  10.666  0.1962 -0.2404  0.0852
53696SOL    HW178698  12.432   7.220  10.612 -0.2636 -1.9280 -0.9274
53696SOL    HW278699  12.367   7.275  10.737  1.3950  1.1397 -1.2972
53697SOL     OW78700   2.701   6.157   9.035 -0.6281  0.5198  0.0162
53697SOL    HW178701   2.683   6.239   8.989  0.2564  0.0263 -1.2779
53697SOL    HW278702   2.797   6.153   9.041 -0.6165 -0.7384 -0.5974
53698SOL     OW78703   4.542   7.855  12.999  0.3269  0.0116 -0.0902
53698SOL    HW178704   4.469   7.832  13.057  0.5676 -0.4838  0.0136
53698SOL    HW278705   4.542   7.788  12.931 -0.7542  1.2762 -1.4243
53699SOL     OW78706   7.521   2.710   1.507 -0.0381  0.0113 -0.3691
53699SOL    HW178707   7.527   2.672   1.419  0.1818 -0.0043 -0.3481
53699SOL    HW278708   7.529   2.635   1.565  0.5206  0.1021 -0.3254
53700SOL     OW78709  10.762   2.794   4.534  0.9681  0.1667  0.7441
53700SOL    HW178710  10.843   2.812   4.580  2.0807  0.6647 -1.2782
53700SOL    HW278711  10.789   2.744   4.457 -0.8053 -0.7270  0.6410
53701SOL     OW78712   5.581   1.663  14.063 -0.6159  0.3791 -0.5205
53701SOL    HW178713   5.610   1.577  14.033  1.6804  0.8450  0.1658
53701SOL    HW278714   5.584   1.718  13.984 -0.1051  0.2904 -0.5663
53702SOL     OW78715   2.918   2.374   2.729  0.2574  0.1167  0.5764
53702SOL    HW178716   2.914   2.293   2.679  2.7461  0.8736 -1.0313
53702SOL    HW278717   2.933   2.442   2.663  2.3627  1.3294  2.1834
53703SOL     OW78718   7.564  13.231   0.213 -0.1553 -0.3676 -0.4707
53703SOL    HW178719   7.504  13.305   0.206 -0.7890 -0.8111  0.1633
53703SOL    HW278720   7.543  13.175   0.138 -1.5840 -1.2631  0.5631
53704SOL     OW78721   2.158   0.488   4.930 -0.4644 -0.8229  0.4532
53704SOL    HW178722   2.144   0.575   4.892 -0.0042 -0.7553  0.4360
53704SOL    HW278723   2.107   0.489   5.011 -2.0456 -1.2157 -0.4870
53705SOL     OW78724  11.228   8.904   0.597  0.5128 -0.1319  0.1527
53705SOL    HW178725  11.212   8.910   0.691  0.4100 -0.8184  0.1896
53705SOL    HW278726  11.323   8.895   0.589  0.6653  1.3956  0.0941
53706SOL     OW78727   7.836  12.080   8.926 -0.2711 -0.3131 -0.1977
53706SOL    HW178728   7.782  12.003   8.944 -1.1804 -0.0502 -1.6441
53706SOL    HW278729   7.818  12.139   8.999 -1.6774 -0.3887 -0.4616
53707SOL     OW78730  13.446   5.247   8.337  0.1089  0.0121 -0.8764
53707SOL    HW178731  13.436   5.190   8.413 -2.0338  1.0381 -0.3168
53707SOL    HW278732  13.385   5.319   8.353  1.2183  1.3845 -2.5495
53708SOL     OW78733   3.721   9.268  10.322  0.0043  0.1559 -0.2216
53708SOL    HW178734   3.692   9.360  10.320 -1.1091 -0.1669  0.3124
53708SOL    HW278735   3.668   9.228  10.390  2.1920 -0.3459  1.2764
53709SOL     OW78736   5.279   9.573  10.151 -0.6053  0.0855 -0.0126
53709SOL    HW178737   5.255   9.481  10.141  0.0056 -0.1241  0.3264
53709SOL    HW278738   5.318   9.577  10.239 -1.3317  0.8249  0.2778
53710SOL     OW78739  12.164  12.989  10.998  0.0562  0.4039 -0.0344
53710SOL    HW178740  12.154  12.989  10.902  0.5826 -1.1881 -0.1255
53710SOL    HW278741  12.117  12.911  11.027 -1.0398  1.4635  1.1537
53711SOL     OW78742   2.187   7.339  10.205 -0.4374 -0.4584 -0.4041
53711SOL    HW178743   2.207   7.317  10.296 -0.8504 -1.2417 -0.4937
53711SOL    HW278744   2.152   7.428  10.208 -0.8690 -0.6456  0.2639
53712SOL     OW78745   0.605   9.817   9.594 -0.5410  0.0456 -0.3495
53712SOL    HW178746   0.673   9.840   9.530 -0.8130 -1.3988 -1.2206
53712SOL    HW278747   0.650   9.760   9.656 -0.6338  0.2255 -0.1161
53713SOL     OW78748   2.147  13.498   9.498  0.0969 -0.2625  0.0577
53713SOL    HW178749   2.100  13.533   9.574  0.7943  0.9424 -0.0271
53713SOL    HW278750   2.080  13.455   9.445 -1.0241  1.6759 -0.2141
53714SOL     OW78751   2.747   5.629   3.057 -0.0222 -0.6343 -0.2413
53714SOL    HW178752   2.805   5.638   2.982  1.1477 -2.2769  0.3985
53714SOL    HW278753   2.660   5.613   3.019  0.0963  0.8471 -1.2071
53715SOL     OW78754  11.537   2.632   8.863 -0.6353 -0.0747 -0.5789
53715SOL    HW178755  11.463   2.648   8.920 -0.5129 -2.7276  0.4960
53715SOL    HW278756  11.499   2.616   8.777 -1.0550  1.1073 -0.6263
53716SOL     OW78757   2.643   6.889   8.071 -0.0527  0.5831  0.3910
53716SOL    HW178758   2.574   6.845   8.021 -1.5361  0.9961  1.9412
53716SOL    HW278759   2.681   6.820   8.124  0.4084  0.4433 -0.1167
53717SOL     OW78760   7.123   2.953   2.288  0.1033 -0.1926 -0.4357
53717SOL    HW178761   7.151   2.992   2.370  0.9079 -0.8130 -0.3988
53717SOL    HW278762   7.062   3.016   2.250 -0.2879  0.0886  0.6340
53718SOL     OW78763   5.378  10.123   8.338 -0.1569 -0.6174  0.3661
53718SOL    HW178764   5.371  10.131   8.242  0.5685  3.4560  0.4725
53718SOL    HW278765   5.290  10.145   8.370 -0.0371 -0.5446  0.6462
53719SOL     OW78766  10.694   5.668   5.188 -0.2816  0.3667  0.0906
53719SOL    HW178767  10.602   5.692   5.179 -0.4555  0.1424  1.0789
53719SOL    HW278768  10.698   5.577   5.159 -0.5420  0.1150  0.8115
53720SOL     OW78769   5.720  11.991   6.303 -0.9282 -0.3272  0.5906
53720SOL    HW178770   5.637  11.977   6.257 -0.0113  0.5458 -1.4542
53720SOL    HW278771   5.782  11.933   6.259 -0.5817 -1.6944  2.7275
53721SOL     OW78772  12.115  11.561  13.447  0.1641 -0.2527  0.2826
53721SOL    HW178773  12.072  11.634  13.492  1.6898  1.5119 -0.9705
53721SOL    HW278774  12.155  11.510  13.517  0.0480  0.7795  1.1414
53722SOL     OW78775   8.942   6.218   2.787  0.3526 -0.0450 -0.5993
53722SOL    HW178776   8.998   6.285   2.824  0.4688  0.7828 -2.1816
53722SOL    HW278777   8.994   6.138   2.789  0.9455  0.3433 -0.5007
53723SOL     OW78778   3.395   1.845   4.008 -0.3553 -0.7279  0.3006
53723SOL    HW178779   3.323   1.888   4.054  0.0009 -2.4397  2.6561
53723SOL    HW278780   3.355   1.810   3.928 -1.3805  1.0025  0.0172
53724SOL     OW78781  12.903   2.464   8.362  0.2868 -0.0120 -0.0818
53724SOL    HW178782  12.906   2.391   8.300  2.0046  0.4182 -0.5637
53724SOL    HW278783  12.932   2.540   8.311 -3.1903  1.5020 -0.1359
53725SOL     OW78784   5.302  12.305   3.180 -0.3634  0.2042 -0.3945
53725SOL    HW178785   5.370  12.238   3.194  1.3110  2.0124  0.7365
53725SOL    HW278786   5.322  12.372   3.245 -4.2188  0.1839  1.0416
53726SOL     OW78787   4.133   6.282   4.376  0.0533  0.0984 -0.3584
53726SOL    HW178788   4.127   6.258   4.284  0.0481  2.0266 -0.8909
53726SOL    HW278789   4.193   6.356   4.378  3.6142 -2.5065  1.7257
53727SOL     OW78790   1.360  13.363   7.811 -0.0513 -0.6221  0.1280
53727SOL    HW178791   1.374  13.274   7.778  1.3540 -0.9241  1.4024
53727SOL    HW278792   1.326  13.351   7.900  1.0889  0.0537  0.6900
53728SOL     OW78793  11.900   6.575  10.849  0.1192  0.4770 -0.7347
53728SOL    HW178794  11.870   6.504  10.793  2.3514  1.0584 -2.7971
53728SOL    HW278795  11.971   6.616  10.801  1.5591  1.6362  2.1354
53729SOL     OW78796  10.717   9.739   5.011 -0.1288 -0.3695 -0.3262
53729SOL    HW178797  10.653   9.808   5.029 -1.0430 -0.8502 -1.5542
53729SOL    HW278798  10.746   9.757   4.921  1.5429 -0.1271  0.2269
53730SOL     OW78799   3.204   5.082   4.501  0.3720  0.2445 -0.0395
53730SOL    HW178800   3.114   5.082   4.531  0.5607 -2.5686  0.8415
53730SOL    HW278801   3.256   5.069   4.581  1.2038 -2.4895 -0.9040
53731SOL     OW78802  12.889   2.845   8.329 -0.3662  0.2053 -0.2177
53731SOL    HW178803  12.937   2.779   8.280 -1.0138 -1.6191  1.4579
53731SOL    HW278804  12.943   2.862   8.406 -1.6683 -0.8514  0.9963
53732SOL     OW78805   4.487  11.293   4.347  0.1712  0.3898  0.1440
53732SOL    HW178806   4.472  11.384   4.376 -2.4026  0.2219 -0.4708
53732SOL    HW278807   4.550  11.301   4.276  0.6616  1.5911  0.6790
53733SOL     OW78808   8.128   0.969  11.161  0.2480 -0.3432  0.1467
53733SOL    HW178809   8.200   0.910  11.142  0.3303  0.0318 -0.7646
53733SOL    HW278810   8.150   1.008  11.246  0.4114 -1.2616  0.5371
53734SOL     OW78811  13.106  12.025  11.936 -0.2193 -0.3417  0.0790
53734SOL    HW178812  13.011  12.017  11.925 -0.2188  0.7231 -0.8457
53734SOL    HW278813  13.142  11.963  11.873 -0.3023  1.3012 -1.6806
53735SOL     OW78814   6.218   2.130   0.233 -0.0912 -0.2533  0.1599
53735SOL    HW178815   6.243   2.218   0.204  0.9399 -0.0182  1.6647
53735SOL    HW278816   6.123   2.134   0.242  0.0496  1.1340  1.4614
53736SOL     OW78817   2.464   5.759   1.965  0.1572 -0.1787  0.5298
53736SOL    HW178818   2.444   5.813   1.888 -0.6049 -0.5724  0.4346
53736SOL    HW278819   2.436   5.813   2.039 -0.5684 -0.4181  0.4375
53737SOL     OW78820  12.933  10.428  13.372  0.2334  0.1624  0.1612
53737SOL    HW178821  12.990  10.378  13.430  1.0464  0.7180 -0.1342
53737SOL    HW278822  12.949  10.520  13.396 -0.2720  0.3375 -0.1626
53738SOL     OW78823   7.920   5.546   1.137  0.4290 -0.4623 -0.3586
53738SOL    HW178824   7.850   5.497   1.094 -0.5724  0.9875 -0.4509
53738SOL    HW278825   7.944   5.493   1.213  1.7680 -2.7572 -2.2403
53739SOL     OW78826   1.094   9.783   2.631  0.2557 -0.1624 -0.3190
53739SOL    HW178827   1.015   9.730   2.619  0.8327 -1.1189  0.0553
53739SOL    HW278828   1.063   9.874   2.626 -0.8043 -0.5280 -0.5551
53740SOL     OW78829   2.889   0.168   2.189 -0.0461  0.0031 -0.3000
53740SOL    HW178830   2.857   0.121   2.112 -1.2273 -1.0411  0.7753
53740SOL    HW278831   2.810   0.183   2.242  0.5797  1.6094  0.2528
53741SOL     OW78832  12.867  10.572   8.119 -0.0016 -0.5746 -0.3949
53741SOL    HW178833  12.790  10.515   8.116  0.7344 -1.5370 -1.4000
53741SOL    HW278834  12.853  10.625   8.198 -0.6919 -2.1624  0.6058
53742SOL     OW78835   3.265   4.484  11.947 -0.0143 -0.1189  0.1171
53742SOL    HW178836   3.279   4.402  11.993  1.0567  0.1477  0.2940
53742SOL    HW278837   3.311   4.474  11.864 -0.8835 -0.1309 -0.3812
53743SOL     OW78838   6.456   6.842   0.440 -0.5453  0.0168 -0.0296
53743SOL    HW178839   6.429   6.828   0.531 -0.0122 -1.9045 -0.1219
53743SOL    HW278840   6.547   6.815   0.437  0.3611  2.8581 -0.5493
53744SOL     OW78841  11.544   0.105   5.187  0.0071 -0.3954  0.2243
53744SOL    HW178842  11.468   0.156   5.158  1.3038  1.6487  0.2370
53744SOL    HW278843  11.522   0.078   5.277 -0.5946  0.4122  0.3304
53745SOL     OW78844   7.309  13.326  10.730  0.0687  0.7017  0.8247
53745SOL    HW178845   7.356  13.257  10.683 -0.5007  1.1338 -0.4036
53745SOL    HW278846   7.329  13.309  10.822  0.1328 -0.9509  0.5347
53746SOL     OW78847   3.025   1.114  12.075 -0.2346 -0.2447  0.9400
53746SOL    HW178848   3.040   1.039  12.132  1.5326  0.0644  0.9319
53746SOL    HW278849   2.945   1.092  12.027  0.7462 -2.5544  0.2365
53747SOL     OW78850   5.869   2.468   2.955 -0.0397  0.3740 -0.2849
53747SOL    HW178851   5.786   2.515   2.960 -0.1529  0.2137 -0.6819
53747SOL    HW278852   5.884   2.455   2.862  1.0487  1.4969 -0.3020
53748SOL     OW78853   9.561   5.432   5.731  0.0717  0.1064  0.7450
53748SOL    HW178854   9.571   5.468   5.819 -1.0973  0.1380  0.8827
53748SOL    HW278855   9.566   5.508   5.673 -0.5599  0.2695  0.8976
53749SOL     OW78856  13.294   4.011   6.868  0.0975  0.2663 -0.1792
53749SOL    HW178857  13.275   4.062   6.947 -0.4704 -1.5470  0.9004
53749SOL    HW278858  13.370   3.958   6.892  0.2641  0.0952 -1.0646
53750SOL     OW78859  13.427  13.460   8.038  0.4465 -0.3623 -0.1794
53750SOL    HW178860  13.339  13.469   8.001 -0.2719  1.1816  1.6772
53750SOL    HW278861  13.484  13.505   7.976 -0.7586  2.4330  0.5487
53751SOL     OW78862   2.426  11.513   7.224 -0.1179  0.2219  0.3760
53751SOL    HW178863   2.502  11.572   7.219  1.0408 -1.1220  1.2803
53751SOL    HW278864   2.404  11.496   7.132  0.4741  0.8826  0.0980
53752SOL     OW78865   0.801   9.834   4.082 -0.1197  0.1562 -0.2005
53752SOL    HW178866   0.823   9.786   4.162  1.3155  0.5714 -0.3261
53752SOL    HW278867   0.797   9.926   4.110 -1.4211  0.1439 -0.2602
53753SOL     OW78868   1.861  10.395  11.585  0.0508  0.2453 -0.8158
53753SOL    HW178869   1.953  10.373  11.575  0.5148  0.7226  1.7849
53753SOL    HW278870   1.818  10.353  11.510  2.0473 -1.9800 -0.8329
53754SOL     OW78871   7.189   9.388   0.459 -0.2068 -0.0269  0.0933
53754SOL    HW178872   7.115   9.347   0.414  0.0856 -0.6054  0.1270
53754SOL    HW278873   7.255   9.400   0.391  0.1396 -0.6700  0.3102
53755SOL     OW78874   7.300   1.373   3.819  0.3227  0.1667  0.2065
53755SOL    HW178875   7.259   1.347   3.737 -1.0510 -0.4702  1.0692
53755SOL    HW278876   7.301   1.469   3.816 -0.9544  0.1894  0.0186
53756SOL     OW78877  12.898   0.476   4.991  0.2215  0.1358 -0.2247
53756SOL    HW178878  12.942   0.551   5.031  0.3108 -0.1427  0.2104
53756SOL    HW278879  12.916   0.484   4.898 -0.3095  1.0064 -0.2603
53757SOL     OW78880  13.379   5.907   9.377  0.6202 -0.7318 -0.1896
53757SOL    HW178881  13.374   5.947   9.290 -0.6865  0.4679  0.4083
53757SOL    HW278882  13.448   5.955   9.422 -0.0769  0.0213  0.0970
53758SOL     OW78883   2.114   4.428   6.300  0.3182  0.1120 -0.2431
53758SOL    HW178884   2.152   4.353   6.344 -0.0050  0.7579  1.2113
53758SOL    HW278885   2.023   4.403   6.284  0.5320 -0.2653 -0.9173
53759SOL     OW78886   5.296   1.218   1.082  0.1663 -0.6940  0.3726
53759SOL    HW178887   5.319   1.292   1.139  1.7272 -1.0903  0.3147
53759SOL    HW278888   5.381   1.184   1.053 -0.5739 -1.1901 -1.3128
53760SOL     OW78889  11.452  13.649  10.777  0.1885 -0.4334  0.1029
53760SOL    HW178890  11.497  13.721  10.731 -0.0955  0.4770  1.1921
53760SOL    HW278891  11.522  13.601  10.821  0.5091 -1.5572 -1.5405
53761SOL     OW78892  14.092   9.361   6.688  0.0750 -0.1940  0.1263
53761SOL    HW178893  14.031   9.381   6.759 -1.9041  1.6054 -1.9386
53761SOL    HW278894  14.073   9.269   6.666  0.3015 -0.5889  1.4978
53762SOL     OW78895  13.987   2.509   4.794  0.6679  0.8861  0.6000
53762SOL    HW178896  13.960   2.546   4.878  1.8830  2.0090  0.5347
53762SOL    HW278897  13.928   2.549   4.730 -0.1121  0.2036  0.8870
53763SOL     OW78898   2.902   8.789   4.170  0.9200  0.1964 -0.3832
53763SOL    HW178899   2.809   8.764   4.173  0.6849  0.5445 -2.7139
53763SOL    HW278900   2.906   8.857   4.102  2.8952  0.1149 -0.3940
53764SOL     OW78901   8.432   8.079   2.928 -0.3406 -0.0490 -0.2283
53764SOL    HW178902   8.397   8.114   3.009 -0.3816 -0.4405 -0.0753
53764SOL    HW278903   8.466   7.993   2.951 -1.0045 -0.4685 -0.7709
53765SOL     OW78904  12.596   4.563   6.732 -0.1192 -0.4150  0.1444
53765SOL    HW178905  12.587   4.523   6.818  2.7600  0.2761  0.8724
53765SOL    HW278906  12.506   4.587   6.707 -1.3249 -2.8365  1.7902
53766SOL     OW78907  10.044   3.716   9.831 -0.1270  0.3056  0.1970
53766SOL    HW178908  10.062   3.755   9.746  1.2326  1.3418  0.9267
53766SOL    HW278909  10.028   3.790   9.889  2.7470 -0.0755  1.6740
53767SOL     OW78910   3.618  14.061   8.866 -0.0189 -0.6193 -0.3300
53767SOL    HW178911   3.626  13.970   8.894  1.7552  0.2070  2.2354
53767SOL    HW278912   3.654  14.062   8.777  0.5062 -2.3126 -0.1723
53768SOL     OW78913   3.477  13.440   9.533 -0.3608  0.1025  0.1825
53768SOL    HW178914   3.479  13.427   9.628  1.7121 -2.8523 -0.1420
53768SOL    HW278915   3.541  13.509   9.517 -0.2066  0.1316  0.8750
53769SOL     OW78916   6.973   1.610   0.669 -0.3694 -0.3491  0.2659
53769SOL    HW178917   6.936   1.527   0.638 -1.1969  0.3495 -0.6663
53769SOL    HW278918   7.042   1.630   0.606 -1.5000  0.6533 -0.7065
53770SOL     OW78919   6.221   0.135   0.365 -1.0688 -0.8284  0.0771
53770SOL    HW178920   6.266   0.074   0.424 -1.3963 -0.5427  0.6315
53770SOL    HW278921   6.184   0.202   0.423  2.3832  2.0420 -0.7358
53771SOL     OW78922   2.559  12.120  11.395  0.1249 -0.5847 -0.0124
53771SOL    HW178923   2.469  12.088  11.392 -0.0872 -0.0082 -2.5676
53771SOL    HW278924   2.550  12.213  11.414  0.4020 -0.9801  2.2751
53772SOL     OW78925  12.285   2.894   0.167  0.0034 -0.5266  0.2751
53772SOL    HW178926  12.348   2.822   0.179  1.5241  0.8488  0.9700
53772SOL    HW278927  12.250   2.910   0.254 -1.5454 -1.4323 -0.1498
53773SOL     OW78928  13.170  12.680  10.474  0.2019  0.0546  0.4465
53773SOL    HW178929  13.249  12.694  10.526  0.4886 -2.7831  0.9777
53773SOL    HW278930  13.158  12.761  10.425  1.9204  1.5313  2.3133
53774SOL     OW78931  11.916   0.301   8.558 -0.0665  0.2469  0.1423
53774SOL    HW178932  11.957   0.217   8.581  0.7077  0.7644  0.6576
53774SOL    HW278933  11.901   0.295   8.464 -0.9310 -0.8702  0.3280
53775SOL     OW78934   6.074   3.211   3.344 -0.1421  0.0965 -0.1716
53775SOL    HW178935   6.097   3.185   3.433 -0.9466  0.6106  0.2022
53775SOL    HW278936   5.994   3.163   3.324 -0.3303  0.4850 -0.3651
53776SOL     OW78937   1.617   6.815   0.089  0.1457 -0.0117 -0.0442
53776SOL    HW178938   1.539   6.851   0.046  0.5233 -0.1334 -0.8499
53776SOL    HW278939   1.645   6.744   0.031  1.9361  1.2227 -0.7674
53777SOL     OW78940  12.867   4.822  13.940  0.9246 -0.4238  0.1735
53777SOL    HW178941  12.901   4.810  14.029 -1.7613  0.5105  1.4530
53777SOL    HW278942  12.783   4.776  13.941  0.0484  1.0479 -1.3147
53778SOL     OW78943   6.697   8.919   4.089 -0.4834  0.1963 -0.9697
53778SOL    HW178944   6.697   8.922   3.993  0.0193 -0.2955 -0.9887
53778SOL    HW278945   6.684   9.010   4.116  0.5822  0.5111 -1.4967
53779SOL     OW78946   4.940   9.655   2.038  0.5988  0.1674  0.3790
53779SOL    HW178947   5.021   9.693   2.004  0.3249 -0.3678 -0.9184
53779SOL    HW278948   4.943   9.563   2.013 -1.3175  0.5496 -1.5331
53780SOL     OW78949   5.191  13.480   0.167 -0.3030  0.3622  0.6880
53780SOL    HW178950   5.202  13.573   0.148 -1.1776  0.7698  1.9941
53780SOL    HW278951   5.128  13.478   0.240  1.0602 -1.1498  1.8916
53781SOL     OW78952   8.427  11.423   2.947 -0.9636 -0.1340  1.1675
53781SOL    HW178953   8.386  11.439   3.032 -0.4354 -0.9128  1.5828
53781SOL    HW278954   8.433  11.328   2.941  2.7163 -0.1125  2.1356
53782SOL     OW78955   5.119   9.325   6.211  0.0675  0.2428 -0.1658
53782SOL    HW178956   5.208   9.344   6.181  0.0794 -0.1047 -0.3644
53782SOL    HW278957   5.106   9.233   6.188  0.2606 -0.1972  1.3649
53783SOL     OW78958   9.917   4.701   8.516  0.2915 -0.2053  0.3425
53783SOL    HW178959   9.887   4.618   8.480  1.1171 -0.2935 -0.1596
53783SOL    HW278960   9.982   4.732   8.454  0.5067  0.4717  0.8951
53784SOL     OW78961   5.895   2.695  10.599  0.4842  0.0379 -0.5960
53784SOL    HW178962   5.878   2.737  10.515 -1.9117  0.3371 -0.0352
53784SOL    HW278963   5.931   2.766  10.653  1.1087  0.0908 -1.0711
53785SOL     OW78964   8.294  12.997   9.979 -0.8362 -0.0877 -0.0772
53785SOL    HW178965   8.335  13.081   9.956  0.5130 -0.4314  0.9188
53785SOL    HW278966   8.333  12.974  10.063 -1.7260 -1.3748  0.0119
53786SOL     OW78967   1.379   3.285   5.004 -0.1161 -0.9920  0.4453
53786SOL    HW178968   1.334   3.205   4.976  0.3117 -0.9492 -0.4064
53786SOL    HW278969   1.310   3.342   5.036 -0.6115 -1.1316 -0.3469
53787SOL     OW78970   8.392  10.348   2.567 -0.7646 -0.0768 -0.4529
53787SOL    HW178971   8.391  10.360   2.472 -1.5423  0.7460 -0.3557
53787SOL    HW278972   8.460  10.283   2.583 -0.2485  0.1899 -1.5283
53788SOL     OW78973   7.654   4.358   3.706 -0.1325 -0.1264  0.4355
53788SOL    HW178974   7.570   4.333   3.667  0.5430 -0.9679 -0.5158
53788SOL    HW278975   7.695   4.275   3.729  1.0301  0.1939 -0.3859
53789SOL     OW78976  12.483   5.849   8.891 -0.8672 -0.5558  0.4891
53789SOL    HW178977  12.416   5.825   8.827 -0.4516  1.5887 -0.8106
53789SOL    HW278978  12.436   5.898   8.958 -0.7567  0.1410  0.0595
53790SOL     OW78979  10.373  11.512   9.555 -0.4752 -0.6905 -0.8693
53790SOL    HW178980  10.314  11.454   9.506 -1.0170 -0.9961  0.1105
53790SOL    HW278981  10.420  11.453   9.614 -0.9211 -0.1645  0.0321
53791SOL     OW78982   5.917  10.006   3.262 -0.1334  0.4650 -0.2934
53791SOL    HW178983   5.993  10.055   3.293  0.0254  0.9650 -1.4359
53791SOL    HW278984   5.911   9.931   3.322  1.9209 -0.1816 -0.8246
53792SOL     OW78985   3.222   4.949   2.344 -0.4138 -0.5664  0.2371
53792SOL    HW178986   3.199   5.008   2.272  0.6289  0.5113  0.7573
53792SOL    HW278987   3.295   4.992   2.388  0.5897 -2.4192  0.4497
53793SOL     OW78988   4.833   4.607   6.713 -0.2104  0.6399  0.7131
53793SOL    HW178989   4.833   4.599   6.617 -2.3243 -0.5864  0.7589
53793SOL    HW278990   4.824   4.517   6.744 -0.9832  1.1421  2.0188
53794SOL     OW78991  12.804   0.175   4.634  0.4407  0.3565  0.3016
53794SOL    HW178992  12.889   0.218   4.641 -0.0470  1.8607 -1.8132
53794SOL    HW278993  12.807   0.128   4.551 -0.7547  0.3481  0.2412
53795SOL     OW78994   8.066  12.322   2.271  0.0386  0.0791  0.0886
53795SOL    HW178995   8.047  12.237   2.231 -0.2554 -0.5832  1.5493
53795SOL    HW278996   7.992  12.377   2.247  0.0892 -0.1682 -0.6428
53796SOL     OW78997   6.975   2.464  10.156 -0.3515  0.2890 -0.2473
53796SOL    HW178998   7.059   2.423  10.174  0.0865  1.2326 -0.0670
53796SOL    HW278999   6.912   2.412  10.206  0.2525  0.1276  0.3743
53797SOL     OW79000   1.672   8.739  12.766  0.3028 -0.4005  0.2993
53797SOL    HW179001   1.682   8.739  12.861  1.2258 -0.9211  0.2177
53797SOL    HW279002   1.692   8.650  12.740 -0.0333 -0.2835 -0.3783
53798SOL     OW79003  12.766  12.097   8.798  0.6239 -0.1899  0.0922
53798SOL    HW179004  12.771  12.188   8.768  1.8666 -0.8059 -1.7538
53798SOL    HW279005  12.850  12.081   8.839  0.7830 -0.7730 -0.4536
53799SOL     OW79006  12.948  14.077   6.220 -0.4897  0.0646 -0.2008
53799SOL    HW179007  12.923  13.989   6.191  2.6304 -0.4343 -1.8742
53799SOL    HW279008  13.043  14.070   6.236 -0.5403  2.6005  1.8709
53800SOL     OW79009  13.994   1.805   4.864  0.1529 -0.1859  0.0043
53800SOL    HW179010  13.987   1.858   4.943  0.6938 -1.0825  0.6747
53800SOL    HW279011  13.919   1.831   4.811 -0.9300 -0.4366  1.3567
53801SOL     OW79012  11.819   6.565   4.593 -0.2045  0.0460  0.6321
53801SOL    HW179013  11.736   6.579   4.547 -0.3804 -0.5859  0.7530
53801SOL    HW279014  11.884   6.561   4.524 -0.5825 -1.8524  0.3277
53802SOL     OW79015  11.120  13.438   0.491 -0.0434  0.2987  0.1794
53802SOL    HW179016  11.042  13.399   0.450  0.4893  0.2004 -0.7565
53802SOL    HW279017  11.097  13.530   0.505 -1.5462 -0.3654  2.9596
53803SOL     OW79018   5.610   1.409   4.778 -0.1093  0.1726 -0.0610
53803SOL    HW179019   5.520   1.437   4.789  0.4372  2.0341 -0.0718
53803SOL    HW279020   5.635   1.441   4.691  1.2941  1.8878  0.9130
53804SOL     OW79021   5.116  12.240  13.830 -0.3032 -0.2301  0.3231
53804SOL    HW179022   5.170  12.234  13.752 -0.7897 -2.8641  0.1150
53804SOL    HW279023   5.140  12.324  13.869  1.3495  0.2668 -1.6049
53805SOL     OW79024  10.132   3.544   7.764 -0.3502  0.1616 -0.4139
53805SOL    HW179025  10.134   3.624   7.816 -0.8484 -0.6952  1.0123
53805SOL    HW279026  10.177   3.479   7.819  0.2888 -0.4824 -1.6476
53806SOL     OW79027  11.433  12.936   4.139  0.2436 -0.3231  0.0522
53806SOL    HW179028  11.354  12.945   4.085  0.3492 -0.8788 -0.2056
53806SOL    HW279029  11.439  13.019   4.187 -0.7526 -0.4572  0.4262
53807SOL     OW79030   3.579  13.563   5.920 -0.8023 -0.2495 -0.1741
53807SOL    HW179031   3.595  13.577   5.826  0.1441 -0.5525 -0.0650
53807SOL    HW279032   3.623  13.480   5.939 -0.1219  0.3133  0.7576
53808SOL     OW79033  12.819   7.831   9.558  0.6522  0.3120  0.2127
53808SOL    HW179034  12.875   7.774   9.609  1.0060 -0.0942 -0.6135
53808SOL    HW279035  12.833   7.804   9.467 -4.4279 -3.2058  0.0547
53809SOL     OW79036   4.134   3.184  12.084 -0.2809 -0.4257  0.1233
53809SOL    HW179037   4.121   3.097  12.123 -0.1998  0.0755  1.3134
53809SOL    HW279038   4.060   3.235  12.115  0.0991  0.1519  0.0875
53810SOL     OW79039   6.340  10.908   1.791 -0.9430  0.4870 -0.1390
53810SOL    HW179040   6.395  10.831   1.809 -1.7662 -0.6287 -2.0127
53810SOL    HW279041   6.251  10.874   1.791 -1.5131  1.8920  0.9825
53811SOL     OW79042  14.037   7.266   1.649  0.3361 -0.1235  0.5401
53811SOL    HW179043  14.124   7.264   1.608  1.1803 -1.0993  2.2591
53811SOL    HW279044  14.024   7.358   1.672  2.0276 -0.2815  2.4149
53812SOL     OW79045   1.699   0.540   7.899  0.2685  0.8444  0.1833
53812SOL    HW179046   1.741   0.556   7.815  0.4867 -0.0070  0.1208
53812SOL    HW279047   1.666   0.626   7.926 -0.7368  0.9511 -1.2649
53813SOL     OW79048  13.633   2.365   6.108 -0.3089  0.9770 -0.1366
53813SOL    HW179049  13.724   2.353   6.082 -0.1063  2.1248  0.0046
53813SOL    HW279050  13.615   2.291   6.166 -0.0609 -0.3326 -1.6480
53814SOL     OW79051   3.320   3.882  10.162 -0.1918  0.3134 -0.0426
53814SOL    HW179052   3.363   3.903  10.079 -1.9124  1.4977 -0.6804
53814SOL    HW279053   3.311   3.786  10.161 -1.0560  0.3848 -1.6904
53815SOL     OW79054   5.067   6.060   9.746 -0.1276 -0.1659  0.5278
53815SOL    HW179055   5.103   6.048   9.658  0.2794  0.1519  0.6452
53815SOL    HW279056   5.105   5.989   9.798 -0.4677 -0.4280  0.4162
53816SOL     OW79057   6.210   6.883   5.478 -0.6576  0.3985  0.3740
53816SOL    HW179058   6.292   6.925   5.455  0.0242 -1.0877 -0.0355
53816SOL    HW279059   6.143   6.948   5.459  0.1534  0.5609 -2.3541
53817SOL     OW79060   9.090  13.468   1.276 -0.1925 -0.2065  0.7738
53817SOL    HW179061   9.159  13.518   1.232 -1.4065  1.4656  0.6883
53817SOL    HW279062   9.009  13.494   1.232 -1.0951 -0.7840  2.0188
53818SOL     OW79063   3.882   3.875   6.276 -0.7117 -0.3559 -0.0182
53818SOL    HW179064   3.794   3.839   6.290 -0.9573  0.0053 -0.5973
53818SOL    HW279065   3.932   3.803   6.238 -1.2178 -0.0776 -1.2334
53819SOL     OW79066   4.454   8.329   1.822  0.1180  0.1838 -0.2143
53819SOL    HW179067   4.444   8.298   1.732  0.3075 -1.7602  0.3682
53819SOL    HW279068   4.369   8.309   1.863  0.3395  0.2025  0.2591
53820SOL     OW79069   7.884   9.328   6.700 -0.1874  0.1698  0.3070
53820SOL    HW179070   7.929   9.302   6.780 -1.7900 -1.3077  0.7806
53820SOL    HW279071   7.943   9.301   6.629  0.2518 -0.5597  0.9360
53821SOL     OW79072   3.801  10.292   9.287  0.5325  0.0795  0.0432
53821SOL    HW179073   3.773  10.328   9.371  0.2081 -0.0870  0.0095
53821SOL    HW279074   3.770  10.201   9.288 -0.4410  0.3894 -0.6988
53822SOL     OW79075   4.124  13.357   3.068 -0.1409 -0.6319 -0.5605
53822SOL    HW179076   4.064  13.418   3.112  0.8774  0.1274 -0.1972
53822SOL    HW279077   4.150  13.402   2.988 -0.7908 -1.3690 -1.2006
53823SOL     OW79078  12.977   9.423   4.675 -0.3607 -0.1503 -0.1426
53823SOL    HW179079  12.956   9.515   4.686  1.2152  0.1218  0.9031
53823SOL    HW279080  12.905   9.376   4.717 -1.7773  0.5321 -1.6994
53824SOL     OW79081   5.907   3.007   4.224  0.1041 -0.0937  0.4161
53824SOL    HW179082   5.817   2.985   4.198 -0.0644  1.0250  0.0137
53824SOL    HW279083   5.898   3.050   4.309  0.3302 -0.5873  0.6926
53825SOL     OW79084  13.646  11.757   1.983 -0.2491 -0.5163  0.6611
53825SOL    HW179085  13.632  11.817   1.910  0.6222 -0.5378  0.4653
53825SOL    HW279086  13.588  11.683   1.963  1.2693 -1.3409 -0.9849
53826SOL     OW79087  13.086  10.105  13.885  0.1265 -0.9473 -0.6431
53826SOL    HW179088  13.059  10.170  13.820 -0.4173  0.4214  0.9079
53826SOL    HW279089  13.112  10.029  13.832 -1.0600 -0.1855 -2.4325
53827SOL     OW79090   4.523   8.092   6.997 -0.1117 -0.2049 -0.5975
53827SOL    HW179091   4.460   8.031   7.037 -0.7689  0.2425 -0.9299
53827SOL    HW279092   4.541   8.156   7.066 -0.7164  0.1754 -0.7865
53828SOL     OW79093   0.269  12.676   5.767  0.4563 -0.7762  0.3505
53828SOL    HW179094   0.237  12.765   5.753  1.4189 -0.3005  1.0783
53828SOL    HW279095   0.210  12.621   5.716  0.4708  0.3698 -0.9714
53829SOL     OW79096  13.165   7.601   8.838  0.6277  0.2633  0.1147
53829SOL    HW179097  13.129   7.536   8.778 -0.1138  1.2541 -0.5428
53829SOL    HW279098  13.255   7.614   8.810  0.6595 -0.1925  0.0068
53830SOL     OW79099   2.674   4.838   9.639  0.0124  0.3515 -0.1489
53830SOL    HW179100   2.697   4.751   9.672 -0.5373  0.5437  0.7728
53830SOL    HW279101   2.612   4.821   9.568 -2.0395  0.0349  1.6359
53831SOL     OW79102   8.082   3.024   2.671 -0.4342  0.4714  0.0063
53831SOL    HW179103   8.176   3.013   2.657 -0.5555 -1.4368  0.4025
53831SOL    HW279104   8.075   3.068   2.755  0.0979  1.4827 -0.4606
53832SOL     OW79105   8.518   4.610  13.188 -0.4810  0.2032  0.0613
53832SOL    HW179106   8.529   4.644  13.099  0.4781 -0.6479 -0.1674
53832SOL    HW279107   8.429   4.636  13.213 -0.8135  0.3487 -1.1967
53833SOL     OW79108   0.803  12.724  13.894 -0.4267 -0.0807 -0.6320
53833SOL    HW179109   0.804  12.692  13.984  1.9482  0.1178 -0.5279
53833SOL    HW279110   0.724  12.779  13.889 -0.5973 -0.0766  1.3184
53834SOL     OW79111   1.731   1.254  13.841 -0.1663  0.1193 -0.2467
53834SOL    HW179112   1.638   1.255  13.819 -0.1298  0.0318 -0.4068
53834SOL    HW279113   1.735   1.215  13.928 -0.3529  0.8806  0.1105
53835SOL     OW79114   8.267   2.680   4.039  0.1592 -0.2548 -0.2330
53835SOL    HW179115   8.315   2.762   4.053  1.0417 -0.9360  0.9534
53835SOL    HW279116   8.335   2.616   4.018 -0.0022 -1.4892  2.5246
53836SOL     OW79117  10.440  13.438   8.006  0.1242 -0.1336 -0.2203
53836SOL    HW179118  10.382  13.386   8.061  0.2415 -0.6400 -0.5742
53836SOL    HW279119  10.510  13.378   7.980  0.9471  0.5260  0.3985
53837SOL     OW79120   8.743  13.371   1.435  0.2391 -0.3989  0.0980
53837SOL    HW179121   8.778  13.404   1.352  1.9355 -1.8083  0.1964
53837SOL    HW279122   8.812  13.315   1.469 -1.4737 -1.9469  1.1890
53838SOL     OW79123  10.877   3.061  11.654  0.3190 -0.2018 -0.0056
53838SOL    HW179124  10.970   3.048  11.635  0.2242  0.5460 -1.0638
53838SOL    HW279125  10.860   3.004  11.728  1.5227 -0.6813 -0.0702
53839SOL     OW79126   9.966   5.652  12.584 -0.5103 -0.0722  0.0217
53839SOL    HW179127   9.988   5.667  12.492  1.0992 -1.3007  0.1564
53839SOL    HW279128   9.985   5.559  12.598 -0.4265  0.1654  1.6607
53840SOL     OW79129  11.812  11.913  12.327  0.0977 -0.1635  0.3705
53840SOL    HW179130  11.831  11.881  12.239  0.0798  0.6032  0.0841
53840SOL    HW279131  11.748  11.982  12.314 -0.7716 -0.8112  1.0943
53841SOL     OW79132   9.427   2.646   5.002  0.3273  0.2785  0.5787
53841SOL    HW179133   9.365   2.582   4.966 -0.7427  0.4166  2.1005
53841SOL    HW279134   9.375   2.726   5.012  1.1720  0.8568  0.4509
53842SOL     OW79135   3.929   8.570   0.315  0.6894 -0.1109 -0.3932
53842SOL    HW179136   4.022   8.582   0.295  0.6263 -0.2844 -0.8050
53842SOL    HW279137   3.884   8.632   0.258  0.6524  1.5069  1.3037
53843SOL     OW79138  11.482   5.240   7.514 -0.2156  0.1108 -0.3166
53843SOL    HW179139  11.524   5.232   7.428  0.4903  1.6519 -0.1467
53843SOL    HW279140  11.393   5.268   7.495 -0.2092 -0.0339 -0.5676
53844SOL     OW79141  13.108   9.934   0.124  0.4894  0.3008  0.2371
53844SOL    HW179142  13.182   9.981   0.085  0.3228  0.4910  0.1524
53844SOL    HW279143  13.113   9.846   0.086 -0.0552  0.6662 -0.7137
53845SOL     OW79144   4.189   7.394  13.865  0.1550  0.0914  0.2282
53845SOL    HW179145   4.107   7.438  13.843  0.1494 -0.4198 -0.8666
53845SOL    HW279146   4.177   7.304  13.834  1.7602  0.4319 -1.6323
53846SOL     OW79147  12.604   3.112  11.554 -0.2711 -0.0859 -1.0031
53846SOL    HW179148  12.564   3.031  11.586 -0.6121  0.3745 -0.2419
53846SOL    HW279149  12.536   3.179  11.566  1.2055  1.0480  1.8287
53847SOL     OW79150   7.320   0.994   7.429 -0.2514  0.0905  0.1680
53847SOL    HW179151   7.286   0.983   7.518 -2.7873  0.0553 -0.7078
53847SOL    HW279152   7.247   0.969   7.373  0.7578  1.5461 -1.9268
53848SOL     OW79153   4.101   8.927   1.303 -0.0930 -0.4355 -0.0971
53848SOL    HW179154   4.013   8.962   1.316  0.2738 -0.0507  1.4964
53848SOL    HW279155   4.158   8.985   1.353  0.9094 -1.4597 -0.0152
53849SOL     OW79156   1.755   5.946  13.964  0.2700 -0.1003 -0.1542
53849SOL    HW179157   1.823   6.003  13.927  0.0155 -0.3128 -0.9652
53849SOL    HW279158   1.774   5.859  13.928 -1.0068  0.0196 -1.2151
53850SOL     OW79159   5.658   3.956   3.824  0.3847 -0.4379  0.0529
53850SOL    HW179160   5.565   3.934   3.827  0.2383 -0.0780 -1.3135
53850SOL    HW279161   5.670   3.997   3.739  1.4303  1.2311  0.9696
53851SOL     OW79162   9.875   6.097   2.766  0.2689 -0.1006 -0.1304
53851SOL    HW179163   9.814   6.050   2.823 -0.1521 -0.6631 -1.0189
53851SOL    HW279164   9.827   6.109   2.684  0.5021  1.6081 -0.0396
53852SOL     OW79165   1.051   9.346  12.040  0.2398 -0.3864 -0.4231
53852SOL    HW179166   1.093   9.281  12.097  0.3185  0.2930  0.3083
53852SOL    HW279167   0.974   9.375  12.089  0.4929  0.4493 -0.5038
53853SOL     OW79168   1.637  11.025  10.910 -0.6669  0.3608  0.1182
53853SOL    HW179169   1.637  10.930  10.904  0.0774  0.3713 -0.1974
53853SOL    HW279170   1.552  11.052  10.875 -0.3483 -0.1254 -1.1100
53854SOL     OW79171   2.572   8.160   6.879 -0.2607  0.2976  0.0418
53854SOL    HW179172   2.655   8.120   6.904 -0.1299  0.9018  0.6007
53854SOL    HW279173   2.545   8.113   6.800  1.4475  1.1710 -1.1157
53855SOL     OW79174   5.144  11.129   4.137 -0.4306 -0.5367  0.6531
53855SOL    HW179175   5.204  11.133   4.212  0.3746 -0.2830  0.0075
53855SOL    HW279176   5.193  11.083   4.069  0.3880  2.6253 -1.0754
53856SOL     OW79177   3.821  13.912   6.541 -0.2788 -0.4265  0.1891
53856SOL    HW179178   3.753  13.969   6.578  1.8625  1.0738  2.1038
53856SOL    HW279179   3.815  13.831   6.592  0.0656  0.1395  1.1608
53857SOL     OW79180   5.862  13.492   0.353  0.4947 -0.0043 -0.3321
53857SOL    HW179181   5.819  13.535   0.279 -2.1119 -1.3067  0.3195
53857SOL    HW279182   5.886  13.563   0.412 -3.1231  0.7718  0.4342
53858SOL     OW79183   4.778  11.864   3.287 -0.1046 -0.7765 -0.1099
53858SOL    HW179184   4.761  11.915   3.208  0.1724  0.7785  0.7987
53858SOL    HW279185   4.695  11.819   3.304 -0.4603 -0.3781 -0.7364
53859SOL     OW79186   4.299  13.665   2.357  0.0118  0.5934 -0.2314
53859SOL    HW179187   4.303  13.725   2.283  0.1131  0.1562 -0.5868
53859SOL    HW279188   4.362  13.596   2.336  0.4208  0.7306  0.5042
53860SOL     OW79189   1.108   3.699   1.370  0.5816 -0.3777 -0.0406
53860SOL    HW179190   1.159   3.716   1.449 -0.1797  0.3334  0.3113
53860SOL    HW279191   1.068   3.613   1.384  2.1694 -1.2392 -0.5970
53861SOL     OW79192   6.377   5.603   0.334 -0.0884 -0.1774 -0.1912
53861SOL    HW179193   6.468   5.620   0.306 -0.0400  1.2135  0.7245
53861SOL    HW279194   6.345   5.688   0.364 -1.0167 -1.0687  1.4506
53862SOL     OW79195   3.994   5.598   1.507  0.1953  0.6118  0.6975
53862SOL    HW179196   4.027   5.631   1.591 -2.2259  0.6257  1.7106
53862SOL    HW279197   3.975   5.676   1.456 -3.5576  0.9498  2.3132
53863SOL     OW79198   6.648   0.511   9.215 -0.1310 -0.5599  0.2215
53863SOL    HW179199   6.556   0.526   9.196 -0.7988  0.8280  3.8784
53863SOL    HW279200   6.682   0.598   9.239  2.2626 -0.9764 -1.2921
53864SOL     OW79201  12.778   9.680   6.588 -0.7146  0.4511  0.0414
53864SOL    HW179202  12.687   9.695   6.611 -0.6900  1.8858 -0.6939
53864SOL    HW279203  12.828   9.721   6.658 -0.5704 -1.6973  1.2925
53865SOL     OW79204   7.168   5.158  11.729  0.5280 -0.1511 -0.3590
53865SOL    HW179205   7.147   5.169  11.637  1.5546 -1.6794 -0.8079
53865SOL    HW279206   7.192   5.066  11.738  0.6029  0.0072  1.4002
53866SOL     OW79207   2.439  13.052   5.280 -0.2520 -0.0691  0.2894
53866SOL    HW179208   2.496  12.987   5.321  1.8458  0.0085 -2.2398
53866SOL    HW279209   2.494  13.130   5.272 -0.5037 -0.0952 -2.5382
53867SOL     OW79210   9.010   0.005   7.844 -0.0522 -0.1320 -0.2840
53867SOL    HW179211   9.069  -0.049   7.792 -0.3923 -1.3035  0.4990
53867SOL    HW279212   9.026   0.095   7.814  2.8893 -0.2402  0.5830
53868SOL     OW79213   3.134   4.497  10.567 -0.3036  0.0998  0.2403
53868SOL    HW179214   3.119   4.404  10.586 -0.0787  0.4368  2.3365
53868SOL    HW279215   3.116   4.541  10.650  0.0726  1.8936 -0.5855
53869SOL     OW79216   9.871   7.814  11.182  0.3584  0.5803  0.1134
53869SOL    HW179217   9.797   7.835  11.240  0.3457  0.7544  0.0337
53869SOL    HW279218   9.933   7.769  11.239  0.1153  0.2724  0.1428
53870SOL     OW79219   3.602   5.830  13.096 -0.1382 -0.1692  0.3695
53870SOL    HW179220   3.562   5.779  13.166  0.0580  0.5817  1.0479
53870SOL    HW279221   3.690   5.850  13.128  0.3905 -0.8222 -0.6120
53871SOL     OW79222  13.839   9.179  12.007 -0.0057 -0.1967  0.4578
53871SOL    HW179223  13.780   9.122  12.056 -0.6387 -0.0686 -0.1218
53871SOL    HW279224  13.804   9.267  12.021 -0.9099 -0.2579 -1.1099
53872SOL     OW79225  10.877   3.902   0.160 -0.0985 -0.6660  0.1485
53872SOL    HW179226  10.901   3.810   0.149 -0.7346 -0.7320 -0.9342
53872SOL    HW279227  10.925   3.948   0.091  1.7539  0.1412  1.8891
53873SOL     OW79228   7.241   3.761   9.512  0.3736 -0.3510  0.4574
53873SOL    HW179229   7.279   3.673   9.518  0.7077 -0.4767 -2.3113
53873SOL    HW279230   7.238   3.792   9.603  1.3621 -2.7334  1.3836
53874SOL     OW79231   8.149   0.008   1.114  0.0794  0.0647  0.1683
53874SOL    HW179232   8.100   0.082   1.078 -2.7271 -1.3098  0.8353
53874SOL    HW279233   8.210  -0.016   1.045  1.1011  2.9560 -0.0473
53875SOL     OW79234  12.600   3.980   7.354 -0.1204  0.0670 -0.0539
53875SOL    HW179235  12.508   3.952   7.354  0.1943 -1.0063  0.5142
53875SOL    HW279236  12.631   3.963   7.443  0.5082  0.8863 -0.0961
53876SOL     OW79237  10.718   7.304   6.108  0.1599  0.1396  0.3256
53876SOL    HW179238  10.743   7.265   6.193 -0.8175  0.9082  0.9841
53876SOL    HW279239  10.730   7.398   6.121 -1.1632  0.3635  0.0203
53877SOL     OW79240  11.759   0.283   7.399 -0.4339  0.4605  0.3874
53877SOL    HW179241  11.709   0.204   7.381 -0.1258  0.6420 -1.4680
53877SOL    HW279242  11.732   0.345   7.331  0.9773  1.1689  0.4273
53878SOL     OW79243   0.441  13.520   0.073 -0.0371 -0.2982  0.5135
53878SOL    HW179244   0.435  13.615   0.081  0.9088  0.0196 -1.8057
53878SOL    HW279245   0.475  13.490   0.157  0.3244  1.4935  1.0262
53879SOL     OW79246   3.912  13.705  12.774 -0.4370 -0.3517  0.6582
53879SOL    HW179247   3.847  13.644  12.738 -0.9646  0.9817 -0.7139
53879SOL    HW279248   3.860  13.767  12.826 -0.6699  2.0269 -2.1682
53880SOL     OW79249   7.871   3.282  13.690  0.2198 -0.2150 -0.6356
53880SOL    HW179250   7.865   3.305  13.783 -2.2631 -1.5838 -0.3781
53880SOL    HW279251   7.855   3.188  13.688  0.3620 -0.2221 -2.4446
53881SOL     OW79252   5.496   7.277   6.845 -0.3180  0.0616 -0.6684
53881SOL    HW179253   5.513   7.273   6.939 -1.5380 -1.5605 -0.4881
53881SOL    HW279254   5.523   7.191   6.811  0.9507  0.9171 -1.9903
53882SOL     OW79255  13.010   6.067   6.733 -0.3452 -0.3076  0.3781
53882SOL    HW179256  13.058   6.115   6.665  0.9725 -1.5181  0.4048
53882SOL    HW279257  13.016   5.976   6.706 -2.3080 -0.5397  0.6318
53883SOL     OW79258   1.101  13.108   7.430 -0.3752 -0.3127 -0.2306
53883SOL    HW179259   1.059  13.026   7.401 -0.4138  0.5761 -2.9594
53883SOL    HW279260   1.188  13.081   7.459 -1.1464 -1.5685  1.0597
53884SOL     OW79261   3.022   5.518   5.805 -0.1668  0.1115 -0.2158
53884SOL    HW179262   2.991   5.481   5.723  0.3738 -0.4915 -0.1600
53884SOL    HW279263   3.097   5.463   5.829 -0.5227  0.0654  0.8444
53885SOL     OW79264  11.062  10.729   6.290 -0.1131 -0.3339  0.6532
53885SOL    HW179265  11.111  10.803   6.255  2.3278 -2.5226 -0.8808
53885SOL    HW279266  11.007  10.699   6.217  0.3054 -1.1214  0.6451
53886SOL     OW79267  11.731  12.033  10.480 -0.3876 -0.0986  0.1670
53886SOL    HW179268  11.635  12.033  10.477 -0.3920 -0.1725  0.2989
53886SOL    HW279269  11.756  11.947  10.447 -0.3668 -0.0872  0.1512
53887SOL     OW79270   2.448   9.076  11.061  0.4345  0.0311  0.3807
53887SOL    HW179271   2.387   9.035  11.123  0.4463 -0.2040  0.2367
53887SOL    HW279272   2.410   9.059  10.975  0.4407  0.3233  0.3199
53888SOL     OW79273   1.671   0.184  12.582  0.3048 -0.0119 -1.0702
53888SOL    HW179274   1.712   0.098  12.585  0.4777  0.0435  2.0028
53888SOL    HW279275   1.581   0.169  12.613  0.1562  0.8167 -1.0679
53889SOL     OW79276  10.263   3.046   5.579  0.0158 -0.2658  0.4273
53889SOL    HW179277  10.213   3.025   5.658  1.2956 -2.2234  0.7691
53889SOL    HW279278  10.217   3.001   5.509  0.4005 -0.7665  0.4934
53890SOL     OW79279   6.375   3.519   8.440  0.0935  0.1991 -0.0567
53890SOL    HW179280   6.318   3.586   8.478 -0.6070 -1.7141  2.5512
53890SOL    HW279281   6.453   3.566   8.411 -0.8608  2.2577  0.5842
53891SOL     OW79282   7.473   9.220   5.857 -0.6117 -0.0862 -0.3780
53891SOL    HW179283   7.458   9.274   5.934  0.2994  0.1046 -0.3193
53891SOL    HW279284   7.449   9.276   5.783 -0.8530 -0.0404 -0.2665
53892SOL     OW79285   9.749   2.197   8.758 -0.2493 -0.5746  0.1619
53892SOL    HW179286   9.663   2.177   8.722  0.5315 -0.6342 -1.7377
53892SOL    HW279287   9.732   2.217   8.850 -2.3272 -0.2682 -0.2485
53893SOL     OW79288   2.292   0.107  12.396  0.0931 -0.0979  0.6002
53893SOL    HW179289   2.310   0.190  12.352  1.5311 -1.1109 -0.8894
53893SOL    HW279290   2.221   0.068  12.345  0.2245 -0.2840  0.5582
53894SOL     OW79291   4.719   5.453  11.259 -0.6121  0.6425  0.0659
53894SOL    HW179292   4.649   5.427  11.318 -0.9172  0.1237 -0.5101
53894SOL    HW279293   4.798   5.412  11.295 -0.9560 -0.4555 -0.3972
53895SOL     OW79294   6.469   9.778  12.990  0.5115 -0.4222 -0.1955
53895SOL    HW179295   6.474   9.696  12.942  0.2171 -0.9224  0.6090
53895SOL    HW279296   6.558   9.814  12.986  0.4568 -0.3768 -1.2236
53896SOL     OW79297   1.235   4.869  12.458  0.0050 -0.3655 -0.2233
53896SOL    HW179298   1.314   4.909  12.422  0.4185 -0.8194  0.1637
53896SOL    HW279299   1.169   4.938  12.453  0.6965  0.3658  0.4203
53897SOL     OW79300   7.582   0.260   9.057  0.2364 -0.4601  0.2153
53897SOL    HW179301   7.567   0.289   8.967 -0.9135 -3.2745 -0.6183
53897SOL    HW279302   7.677   0.263   9.068  0.5932 -1.7710 -1.8061
53898SOL     OW79303  10.669  12.965   8.546  0.0826  0.2338 -0.8598
53898SOL    HW179304  10.665  12.870   8.540  0.1020 -0.0157  1.7754
53898SOL    HW279305  10.592  12.989   8.598  1.1650  1.3977  0.2960
53899SOL     OW79306   5.533   1.559   9.939  0.2996 -0.1139  0.3211
53899SOL    HW179307   5.581   1.516  10.009 -0.4303 -0.2577  0.7415
53899SOL    HW279308   5.441   1.548   9.962  0.0890  1.9320  0.5904
53900SOL     OW79309   5.699  13.448   4.428  0.1450  0.3454 -0.3080
53900SOL    HW179310   5.730  13.538   4.441 -2.2393  0.9877  1.4819
53900SOL    HW279311   5.696  13.410   4.515  0.1873 -1.1982 -0.9407
53901SOL     OW79312  13.599   3.762   1.351  0.1984  0.1031 -0.0163
53901SOL    HW179313  13.659   3.788   1.421  0.2900 -0.0829 -0.0257
53901SOL    HW279314  13.596   3.838   1.293  1.4076 -0.3294 -0.6880
53902SOL     OW79315   4.965   9.981   8.811  0.2010  0.6004 -0.3521
53902SOL    HW179316   4.924   9.924   8.745  1.9185 -0.2643 -0.7446
53902SOL    HW279317   4.948   9.937   8.894  0.3177  0.2464 -0.5113
53903SOL     OW79318   8.421   0.131   0.096 -0.4584  0.1511  0.2248
53903SOL    HW179319   8.330   0.106   0.110 -0.0235 -1.6258  0.1860
53903SOL    HW279320   8.417   0.209   0.041 -1.9489  0.2446  0.4234
53904SOL     OW79321  14.050  14.029   3.550 -0.2139  0.0703 -0.1482
53904SOL    HW179322  14.014  13.951   3.592  1.9109 -1.7465 -1.4549
53904SOL    HW279323  14.074  14.087   3.622 -1.0124 -0.8605  0.9017
53905SOL     OW79324   9.771   9.000  11.986  0.6238 -0.3525  0.4638
53905SOL    HW179325   9.691   9.007  12.038  1.0468 -1.2002  1.2488
53905SOL    HW279326   9.786   8.906  11.978  0.9959 -0.2223 -0.5434
53906SOL     OW79327   4.797  13.152   1.995 -0.6587 -0.2187 -0.0763
53906SOL    HW179328   4.821  13.176   1.906 -3.2072 -0.4401 -0.9305
53906SOL    HW279329   4.762  13.063   1.987 -1.7535  0.0856  0.9459
53907SOL     OW79330  11.502   0.928   6.955  0.6114  0.1202 -0.4247
53907SOL    HW179331  11.440   0.938   6.883  1.1527 -0.7928 -1.0203
53907SOL    HW279332  11.468   0.855   7.007  0.5030  0.4439 -0.0293
53908SOL     OW79333   7.887   7.688  13.413  1.1295  0.3509  0.3003
53908SOL    HW179334   7.812   7.669  13.357  2.4563 -1.0099 -1.1449
53908SOL    HW279335   7.922   7.771  13.379  1.2868  0.0866 -0.2020
53909SOL     OW79336  13.710   7.478  11.355  0.0050  0.2179 -0.3252
53909SOL    HW179337  13.734   7.390  11.383  0.7235  0.7655  0.8138
53909SOL    HW279338  13.793   7.522  11.336 -0.3936  0.2915 -2.0931
53910SOL     OW79339  13.689   4.796   6.577  0.5039  0.6999  0.7535
53910SOL    HW179340  13.752   4.750   6.633  0.8225  1.9972  1.5116
53910SOL    HW279341  13.734   4.878   6.555  0.4505  0.1656 -1.5576
53911SOL     OW79342   2.418  12.365   5.541  0.2653  0.1674  0.2499
53911SOL    HW179343   2.440  12.273   5.554  0.7731  0.3565  0.7779
53911SOL    HW279344   2.364  12.366   5.462 -0.0076 -0.6150  0.4218
53912SOL     OW79345   4.727   5.911   6.379 -0.2273  0.3103  0.2176
53912SOL    HW179346   4.701   5.949   6.295 -0.6828 -1.2976 -0.3895
53912SOL    HW279347   4.650   5.923   6.435 -0.6945 -0.4708 -0.2402
53913SOL     OW79348   0.062  11.029  13.686 -0.6046  0.5437 -0.2641
53913SOL    HW179349   0.032  10.997  13.601  0.3316  1.0271 -0.7974
53913SOL    HW279350   0.119  11.103  13.665  2.3467 -1.3288  0.5245
53914SOL     OW79351   1.616  10.648   9.310  0.5376  0.0549  0.0444
53914SOL    HW179352   1.544  10.665   9.370  1.4509  1.9929  0.6933
53914SOL    HW279353   1.667  10.580   9.352 -0.2553 -0.4725  0.1605
53915SOL     OW79354  11.225   9.140  12.561  0.1809 -0.7228 -0.1850
53915SOL    HW179355  11.237   9.202  12.632  1.1048 -2.2926  1.1096
53915SOL    HW279356  11.206   9.057  12.604 -0.2583 -1.5202 -1.8202
53916SOL     OW79357   2.287   0.019   9.408 -0.2345  0.3380 -0.7787
53916SOL    HW179358   2.319  -0.009   9.322  1.5827  0.6830 -0.2560
53916SOL    HW279359   2.337  -0.034   9.470  1.6366  3.0379  0.1778
53917SOL     OW79360   3.609   7.120   0.953  0.1989  0.4192  0.3340
53917SOL    HW179361   3.681   7.130   0.890 -1.0148  0.1542 -1.1423
53917SOL    HW279362   3.556   7.199   0.941 -0.8202 -0.3031 -0.0148
53918SOL     OW79363   2.145   7.626  12.032  0.0019 -0.0142  0.2495
53918SOL    HW179364   2.198   7.568  11.979 -1.7612  0.1156 -1.8329
53918SOL    HW279365   2.155   7.594  12.122  1.4383 -1.5993 -0.4260
53919SOL     OW79366   2.619   0.291  11.649 -0.0115  0.1546 -0.3867
53919SOL    HW179367   2.605   0.295  11.744 -1.4593 -0.1126 -0.5685
53919SOL    HW279368   2.532   0.304  11.611  0.5063  0.0103 -1.6823
53920SOL     OW79369   1.028   8.553   7.143 -0.0312 -0.4260  0.2592
53920SOL    HW179370   1.122   8.541   7.132  0.2813 -0.3538  2.3554
53920SOL    HW279371   1.017   8.564   7.237 -2.0627  0.3693 -0.0309
53921SOL     OW79372   4.667   1.604  12.350 -0.2304  0.4357  0.1461
53921SOL    HW179373   4.666   1.559  12.434 -0.2718  1.5547  0.7581
53921SOL    HW279374   4.585   1.653  12.347  0.0843  0.9555 -0.2406
53922SOL     OW79375  13.208   3.407  14.090 -0.3598 -0.6497 -0.0580
53922SOL    HW179376  13.259   3.333  14.057  0.3704 -1.3394  2.4399
53922SOL    HW279377  13.117   3.380  14.080 -0.3201 -0.1121 -2.9468
53923SOL     OW79378   1.250  11.298   2.690  0.3380  0.6606 -0.0039
53923SOL    HW179379   1.224  11.380   2.732 -1.7431  0.2112 -0.3223
53923SOL    HW279380   1.227  11.230   2.753 -1.1831  0.1085 -1.1060
53924SOL     OW79381   9.610   9.109  12.502 -0.0613 -0.3933 -0.0774
53924SOL    HW179382   9.587   9.053  12.429 -1.8471  1.4169 -1.0253
53924SOL    HW279383   9.659   9.181  12.463 -0.1656  0.0937  0.6586
53925SOL     OW79384   7.518  11.055   0.930 -0.1615 -0.0204  0.0709
53925SOL    HW179385   7.521  11.148   0.951 -0.0936 -0.1547  0.6788
53925SOL    HW279386   7.496  11.012   1.013  1.9903 -0.7205  0.3366
53926SOL     OW79387  12.829  11.490   9.899  0.1923 -0.1486 -0.2510
53926SOL    HW179388  12.907  11.547   9.899  0.0459  0.0796  1.0237
53926SOL    HW279389  12.864  11.402   9.884  0.8589 -0.2117  1.5025
53927SOL     OW79390   8.990  10.156   5.870  0.0849 -0.4727 -0.3123
53927SOL    HW179391   9.080  10.144   5.840  0.0150  1.4718 -1.4510
53927SOL    HW279392   8.987  10.247   5.901 -1.6164 -0.3402 -0.7865
53928SOL     OW79393   6.585   1.247  10.047  0.0161  0.1510 -0.1127
53928SOL    HW179394   6.524   1.316  10.023 -0.1582  0.3231  0.7906
53928SOL    HW279395   6.610   1.207   9.964  0.5058  1.6124 -0.6870
53929SOL     OW79396   2.480   2.337   6.772  0.4399  0.4164  1.2100
53929SOL    HW179397   2.444   2.298   6.853  2.4053 -1.7759  1.1500
53929SOL    HW279398   2.550   2.395   6.803  0.4041  0.4987  1.1351
53930SOL     OW79399   5.023  12.351   8.457 -0.0114 -0.4059 -0.3422
53930SOL    HW179400   5.060  12.428   8.501 -1.9999  0.8216 -0.6652
53930SOL    HW279401   5.029  12.281   8.522 -1.2351  0.9099  1.2816
53931SOL     OW79402   1.243  12.820   8.541  0.0093 -0.2172  0.4598
53931SOL    HW179403   1.260  12.731   8.508  0.7463 -0.9280  2.5876
53931SOL    HW279404   1.189  12.806   8.619 -0.7552  1.2985  0.2213
53932SOL     OW79405   8.555   4.726  14.011  0.0233 -0.3025  0.0410
53932SOL    HW179406   8.605   4.800  13.976 -1.7336  0.0509 -1.8613
53932SOL    HW279407   8.471   4.764  14.038  0.1686 -1.1354  1.8231
53933SOL     OW79408   0.018  11.176  13.191 -0.0207  0.3589  0.0178
53933SOL    HW179409   0.020  11.271  13.199  2.0934  0.6551 -2.7408
53933SOL    HW279410   0.104  11.147  13.221 -0.7936 -0.7965  1.2695
53934SOL     OW79411   0.127  12.782   6.402 -0.6212 -0.7816  0.0021
53934SOL    HW179412   0.211  12.820   6.376 -0.9893  0.9185  1.1613
53934SOL    HW279413   0.062  12.835   6.357 -1.1705 -3.5433 -2.8491
53935SOL     OW79414   1.900   4.621   7.899  0.0021  0.2160  0.1080
53935SOL    HW179415   1.908   4.598   7.807 -1.6220 -0.4633  0.1081
53935SOL    HW279416   1.933   4.711   7.904 -1.7036  1.0191 -1.5397
53936SOL     OW79417   9.365   8.298   7.868  0.3783 -0.5540  0.2303
53936SOL    HW179418   9.277   8.287   7.831  1.3480 -1.7736 -1.9001
53936SOL    HW279419   9.396   8.209   7.885  1.7826 -0.2442 -0.5584
53937SOL     OW79420  12.053   4.764   7.173 -0.4410  0.2938  0.2634
53937SOL    HW179421  12.002   4.787   7.251 -0.7182 -0.0135  0.1735
53937SOL    HW279422  12.133   4.816   7.181 -1.3120  1.7676 -0.2415
53938SOL     OW79423   9.492   3.424   1.347  0.5824 -0.6550 -0.1792
53938SOL    HW179424   9.569   3.380   1.382  1.2512 -0.5940 -1.5001
53938SOL    HW279425   9.441   3.355   1.305  1.3926 -0.3007 -1.8346
53939SOL     OW79426   1.131   1.070  13.768 -0.4850  0.0881  0.5276
53939SOL    HW179427   1.115   1.152  13.720 -3.1564 -0.1094  0.9470
53939SOL    HW279428   1.213   1.086  13.815  0.0216  1.8325 -0.8344
53940SOL     OW79429   7.307   5.159   8.794  0.1939 -0.0447 -0.1172
53940SOL    HW179430   7.378   5.141   8.732 -1.4350 -3.4755 -1.2340
53940SOL    HW279431   7.228   5.129   8.749 -1.4798  0.1489  2.4903
53941SOL     OW79432  11.467  10.829   6.170 -0.1688 -0.4359 -0.7552
53941SOL    HW179433  11.525  10.869   6.105 -0.4192 -1.1926 -1.4682
53941SOL    HW279434  11.380  10.832   6.130 -0.3455 -0.7979 -0.4084
53942SOL     OW79435   7.268   1.782   8.006 -0.2087  0.5342  0.3263
53942SOL    HW179436   7.185   1.743   7.979 -0.8459  1.2287  1.1891
53942SOL    HW279437   7.334   1.718   7.982 -0.9652  0.0950 -0.6490
53943SOL     OW79438   3.413   3.777  13.733  0.1222  0.0078  0.4348
53943SOL    HW179439   3.418   3.873  13.733 -0.0479  0.0366  1.8139
53943SOL    HW279440   3.337   3.757  13.679  0.4015  0.6299 -0.2055
53944SOL     OW79441   9.182   3.701   4.567 -0.2633  0.1965  0.2801
53944SOL    HW179442   9.218   3.669   4.650  0.4978  1.5218  0.4872
53944SOL    HW279443   9.120   3.770   4.592 -1.0785 -0.3479 -0.1981
53945SOL     OW79444   8.570   1.817  10.118  0.1196  0.3568  0.1345
53945SOL    HW179445   8.513   1.892  10.134 -0.6647 -0.0495 -0.6435
53945SOL    HW279446   8.510   1.744  10.101  0.8693 -0.1295 -0.5272
53946SOL     OW79447   1.744  10.831  14.072  0.4006  0.2960 -0.5031
53946SOL    HW179448   1.727  10.781  13.992  0.0400  0.2684 -0.4119
53946SOL    HW279449   1.702  10.780  14.141  1.6651 -0.2591 -0.1272
53947SOL     OW79450   9.338  10.937   6.253  0.1280  0.0346 -0.0926
53947SOL    HW179451   9.289  10.919   6.333 -0.2987  0.8602 -0.1581
53947SOL    HW279452   9.405  11.000   6.280  2.0176 -2.0295  0.2797
53948SOL     OW79453   3.373  13.791  13.234 -0.6023 -0.1586 -0.7665
53948SOL    HW179454   3.362  13.813  13.142  0.6882 -0.2276 -0.9537
53948SOL    HW279455   3.466  13.808  13.252 -0.7300 -0.5906  0.3988
53949SOL     OW79456  11.343  12.844   6.245  0.5802  0.3861 -0.3465
53949SOL    HW179457  11.413  12.907   6.256  0.6210  0.1229  1.0175
53949SOL    HW279458  11.310  12.860   6.156  0.8736  2.0098 -0.1831
53950SOL     OW79459   8.783   7.278   2.524  0.6478  0.4398 -0.0761
53950SOL    HW179460   8.804   7.341   2.593 -0.1677  1.6737 -0.9107
53950SOL    HW279461   8.868   7.246   2.494  1.0351 -2.1972  3.2525
53951SOL     OW79462  12.894   4.946   0.818 -0.0519 -0.2782 -0.7285
53951SOL    HW179463  12.851   4.876   0.867 -0.6038  0.2160 -0.4915
53951SOL    HW279464  12.828   4.975   0.755  0.2444 -0.1085 -0.9630
53952SOL     OW79465   7.444  13.034   1.244  0.0389  0.1634  0.2432
53952SOL    HW179466   7.388  13.059   1.317 -0.2167  0.0453  0.0911
53952SOL    HW279467   7.508  12.973   1.282  0.2781  0.5662  0.4856
53953SOL     OW79468   8.136   9.751   2.821 -0.1677 -0.0789  0.6218
53953SOL    HW179469   8.170   9.805   2.892 -0.8740  0.5433  0.4972
53953SOL    HW279470   8.214   9.724   2.773  0.2091  0.7508  0.7384
53954SOL     OW79471   8.842   0.201  10.106  0.3190 -0.6663  0.6641
53954SOL    HW179472   8.934   0.211  10.084  0.0618  1.1916  0.2599
53954SOL    HW279473   8.839   0.213  10.201  0.4089  0.0134  0.5818
53955SOL     OW79474  12.348  13.122  11.952  0.1843 -0.3568  0.3128
53955SOL    HW179475  12.441  13.126  11.975  0.6636  0.6426 -1.6046
53955SOL    HW279476  12.317  13.212  11.962  0.1827 -0.0653 -1.7293
53956SOL     OW79477   1.413   5.451   3.933  0.1626  0.4930  0.1848
53956SOL    HW179478   1.461   5.396   3.995 -0.5047 -0.6953 -0.3300
53956SOL    HW279479   1.478   5.472   3.866  0.4866  0.5562  0.5103
53957SOL     OW79480   0.239  14.089   4.976  0.0704  0.6284  0.5390
53957SOL    HW179481   0.313  14.029   4.988 -1.6840 -1.8087 -0.0337
53957SOL    HW279482   0.184  14.076   5.054 -0.7001  0.9642  0.0646
53958SOL     OW79483   1.141   6.597   0.657 -0.7102  0.2682  0.7399
53958SOL    HW179484   1.092   6.571   0.735 -0.6759 -1.4936  0.2143
53958SOL    HW279485   1.084   6.572   0.584 -0.1246  0.5607  0.1767
53959SOL     OW79486  10.235   6.042  13.565  0.0129 -0.3911 -0.3871
53959SOL    HW179487  10.284   5.999  13.496 -0.4377  0.1855 -1.0803
53959SOL    HW279488  10.257   5.993  13.645 -0.5407 -1.9277 -1.1501
53960SOL     OW79489   1.105  11.613   5.037  0.1472  0.1916  0.2467
53960SOL    HW179490   1.064  11.542   5.088 -0.2318  0.0448 -0.2444
53960SOL    HW279491   1.098  11.690   5.093  0.1673 -0.0707  0.6121
53961SOL     OW79492   0.093   7.154   1.903 -0.2075 -0.6050 -0.1956
53961SOL    HW179493   0.172   7.207   1.913  1.1859 -2.5936 -0.3046
53961SOL    HW279494   0.057   7.182   1.818 -0.2963  1.1050  0.3563
53962SOL     OW79495   0.245   3.871  10.230 -0.2954 -0.1974 -0.3490
53962SOL    HW179496   0.226   3.844  10.140 -0.5840  1.6339 -0.8746
53962SOL    HW279497   0.306   3.805  10.263  1.3950  0.1624 -2.5782
53963SOL     OW79498  13.581   5.505   4.234  0.0209 -0.0081  0.0969
53963SOL    HW179499  13.530   5.427   4.214 -1.3813  0.7715  0.5440
53963SOL    HW279500  13.630   5.523   4.153 -0.5491 -0.6537 -0.4051
53964SOL     OW79501   7.998   2.445   4.327  0.0059 -0.0535 -0.7140
53964SOL    HW179502   7.945   2.447   4.407 -0.1477 -0.1700 -0.8108
53964SOL    HW279503   7.992   2.355   4.296  1.6406 -0.4924  0.1738
53965SOL     OW79504   7.718  13.084   7.165  0.3585  0.1245  0.4939
53965SOL    HW179505   7.655  13.155   7.174 -1.8985 -1.9127  1.7977
53965SOL    HW279506   7.700  13.045   7.080  0.3769 -0.0068  0.5492
53966SOL     OW79507   6.659   9.935   0.113 -0.2826  0.0701  0.1317
53966SOL    HW179508   6.727   9.997   0.140  0.8140 -0.2153 -1.8341
53966SOL    HW279509   6.648   9.878   0.189  2.0862 -0.2172  0.3416
53967SOL     OW79510  13.540  12.775   8.720 -0.5678  0.3721  0.9256
53967SOL    HW179511  13.577  12.688   8.735  0.1131  0.3708 -0.5664
53967SOL    HW279512  13.457  12.774   8.767  0.1290 -0.5387  2.1997
53968SOL     OW79513  13.907  13.989  12.623  0.3787  0.2501  0.6989
53968SOL    HW179514  13.896  14.078  12.657  0.0360  0.5298 -0.1307
53968SOL    HW279515  13.955  13.999  12.542 -0.7592 -0.1898 -0.0619
53969SOL     OW79516   9.087  12.276  12.477  0.2475 -0.1936 -0.2830
53969SOL    HW179517   9.001  12.233  12.470  0.8649 -1.8186  1.3088
53969SOL    HW279518   9.106  12.306  12.388 -0.9385 -1.9020 -1.1681
53970SOL     OW79519   3.690   3.139  13.780 -0.5629  0.0669 -0.0506
53970SOL    HW179520   3.613   3.082  13.778 -0.7817  0.3685 -0.9715
53970SOL    HW279521   3.755   3.090  13.830 -0.7948 -0.9416 -0.6979
53971SOL     OW79522   1.413   1.294  12.030 -0.1986  0.1906 -0.2998
53971SOL    HW179523   1.407   1.390  12.023 -0.7275  0.4329  2.4660
53971SOL    HW279524   1.324   1.266  12.048  0.3184 -0.5188  1.3721
53972SOL     OW79525   3.232  13.481   9.445  0.6214  0.3051  0.6086
53972SOL    HW179526   3.219  13.572   9.472  0.5641  0.0586  1.4351
53972SOL    HW279527   3.322  13.461   9.470  0.7403  0.2234  0.1363
53973SOL     OW79528   4.714   0.992   0.100  0.5195 -0.2842 -0.3911
53973SOL    HW179529   4.696   1.078   0.063 -1.2378 -1.4091 -2.4475
53973SOL    HW279530   4.738   0.938   0.024  3.4830 -1.2291  1.0517
53974SOL     OW79531  10.701   2.458  11.744 -0.1749 -0.4894 -0.1819
53974SOL    HW179532  10.788   2.430  11.713 -0.3119 -0.5885 -0.4778
53974SOL    HW279533  10.663   2.379  11.781 -0.5160 -0.6745 -0.9120
53975SOL     OW79534  13.921   1.570  11.098 -0.1789 -0.5020 -0.1378
53975SOL    HW179535  13.994   1.568  11.160  1.0886 -1.0530 -1.5637
53975SOL    HW279536  13.879   1.485  11.107 -0.2553 -0.4254  0.2427
53976SOL     OW79537   3.423   8.008   9.406 -0.1213 -0.0404  0.1015
53976SOL    HW179538   3.332   8.037   9.401  0.2640  1.5747  1.6157
53976SOL    HW279539   3.424   7.943   9.476 -0.4778 -1.7994 -1.4524
53977SOL     OW79540   4.278   8.711   1.189  0.2265  0.6670 -0.2990
53977SOL    HW179541   4.236   8.626   1.199  1.9659 -0.1841  0.1972
53977SOL    HW279542   4.209   8.774   1.209 -0.5173 -0.6729  1.6986
53978SOL     OW79543  12.054   3.486  11.767 -0.1776  0.2490 -0.0304
53978SOL    HW179544  11.964   3.483  11.735 -0.0206 -0.1527 -0.4501
53978SOL    HW279545  12.049   3.534  11.850 -0.7656  0.2746 -0.0783
53979SOL     OW79546   6.753   9.339   6.362 -0.1979 -0.2019  0.2713
53979SOL    HW179547   6.680   9.324   6.422 -2.2094 -0.3475 -2.0578
53979SOL    HW279548   6.768   9.254   6.321 -0.6156  0.4070 -1.2311
53980SOL     OW79549   1.504   8.923   8.359 -0.0317 -0.0263 -0.1809
53980SOL    HW179550   1.568   8.907   8.289  1.1261  2.1149  0.3100
53980SOL    HW279551   1.552   8.905   8.440 -0.8061 -0.6991  0.1468
53981SOL     OW79552  12.560   6.634   8.927 -0.2640  0.1916  0.2668
53981SOL    HW179553  12.593   6.706   8.980 -0.3212  1.5339 -1.4627
53981SOL    HW279554  12.632   6.613   8.867 -0.5504 -0.6364  0.2003
53982SOL     OW79555  13.930   9.526   6.548 -0.0597  0.5389 -0.6403
53982SOL    HW179556  13.994   9.472   6.593  0.9109  1.7847 -0.4875
53982SOL    HW279557  13.912   9.479   6.466 -0.7568 -1.0098  0.3539
53983SOL     OW79558   9.351   8.724   5.462  0.5590 -0.0321  0.0303
53983SOL    HW179559   9.347   8.805   5.412 -0.1449 -0.0587  0.0348
53983SOL    HW279560   9.415   8.742   5.531  1.1684  0.1648 -0.5761
53984SOL     OW79561   0.515   5.191   3.979  0.1440  0.0335 -0.1739
53984SOL    HW179562   0.434   5.232   3.952  0.6750  1.8288  0.7715
53984SOL    HW279563   0.511   5.102   3.943 -2.4416 -0.1087  0.2902
53985SOL     OW79564   1.574   5.863   4.965 -0.3932 -0.4559 -0.2585
53985SOL    HW179565   1.521   5.803   5.017  0.2034 -1.0570 -0.3270
53985SOL    HW279566   1.657   5.816   4.952  0.4140  0.7104  0.4195
53986SOL     OW79567   4.537  14.016   7.070 -0.7138 -0.0010 -0.0058
53986SOL    HW179568   4.615  13.979   7.112 -0.3833  0.5790 -0.0886
53986SOL    HW279569   4.571  14.059   6.991 -0.5306  3.2858  1.6673
53987SOL     OW79570   7.486  11.640   9.897  0.3387 -0.2345 -0.1395
53987SOL    HW179571   7.488  11.602   9.985 -0.1599 -2.6604 -1.0965
53987SOL    HW279572   7.447  11.572   9.842  0.7207  1.1693 -2.2858
53988SOL     OW79573  13.486   9.149  12.671 -0.2611 -0.2102  0.0963
53988SOL    HW179574  13.512   9.235  12.638  0.2475 -0.4959 -0.2596
53988SOL    HW279575  13.413   9.123  12.615  1.1261 -1.0560 -1.3934
53989SOL     OW79576  13.761  10.513   1.299 -0.2154  0.2967  0.3903
53989SOL    HW179577  13.814  10.592   1.313  0.8594 -0.7139  2.3835
53989SOL    HW279578  13.735  10.519   1.207  1.0164  2.2493  0.0901
53990SOL     OW79579   7.461   1.142   6.263  0.4017 -0.5220  0.1333
53990SOL    HW179580   7.508   1.143   6.179  0.6342 -1.0957  0.2568
53990SOL    HW279581   7.504   1.073   6.314 -0.9484 -1.4684  0.0378
53991SOL     OW79582  10.588   2.699  11.783 -0.0688 -0.5818 -0.2419
53991SOL    HW179583  10.617   2.609  11.774  0.4084 -0.6283  1.4447
53991SOL    HW279584  10.497   2.693  11.813  0.9568 -0.6786  3.3701
53992SOL     OW79585   6.637   3.955  10.385  0.0339 -0.1566  0.0236
53992SOL    HW179586   6.565   4.018  10.373 -1.3630 -1.5187  0.8971
53992SOL    HW279587   6.594   3.869  10.386  1.6875 -1.0198  0.5923
53993SOL     OW79588   8.683   0.060   8.112  0.0972 -0.1487 -0.5614
53993SOL    HW179589   8.762   0.006   8.115  0.2363  0.0650 -0.3991
53993SOL    HW279590   8.616   0.007   8.155  0.2543 -0.1587 -0.3276
53994SOL     OW79591  11.877   9.490   7.841  0.2973 -0.6246  0.0022
53994SOL    HW179592  11.923   9.442   7.910  1.3808  1.7721  1.0645
53994SOL    HW279593  11.946   9.520   7.782 -0.2010  0.4737 -0.0507
53995SOL     OW79594   1.457   1.974   3.900  0.0747 -0.7676  0.3699
53995SOL    HW179595   1.403   1.942   3.827  0.5410 -0.7798  0.0257
53995SOL    HW279596   1.404   1.957   3.978  0.3007 -2.3712  0.2031
53996SOL     OW79597  11.752  13.802  12.601  0.0992  0.0557 -0.6310
53996SOL    HW179598  11.705  13.855  12.536 -0.3646 -1.0214 -1.1922
53996SOL    HW279599  11.826  13.765  12.552  0.6027  0.4206 -0.1607
53997SOL     OW79600  10.443   1.733  10.153  0.9422  0.1169  0.2311
53997SOL    HW179601  10.537   1.737  10.171  0.9828  0.7491 -0.0919
53997SOL    HW279602  10.433   1.774  10.067  0.2317  1.1946  0.8021
53998SOL     OW79603   1.680   8.390   3.010 -0.1108  0.4335 -0.1504
53998SOL    HW179604   1.646   8.438   3.086  1.5989  0.8816  0.3767
53998SOL    HW279605   1.724   8.314   3.048  0.6959  0.6264 -0.6777
53999SOL     OW79606   4.184  12.685   3.098 -0.0271 -0.0007  0.1611
53999SOL    HW179607   4.175  12.611   3.038 -0.6486  2.1141 -2.5496
53999SOL    HW279608   4.097  12.694   3.138  0.1683 -0.9233  0.8391
54000SOL     OW79609   2.069  11.887   8.489 -0.5049 -0.6726  0.1754
54000SOL    HW179610   2.158  11.859   8.511 -0.2887 -1.2729 -1.3449
54000SOL    HW279611   2.044  11.830   8.417 -1.9852 -0.2405  0.3291
54001SOL     OW79612   0.768  13.380   4.798  0.1468  0.6108 -0.2367
54001SOL    HW179613   0.798  13.353   4.711  0.2291  1.8571 -0.6181
54001SOL    HW279614   0.673  13.368   4.795  0.0681  1.2836 -0.7500
54002SOL     OW79615  10.086   7.167   0.738  0.7390  0.0598 -0.3676
54002SOL    HW179616  10.155   7.207   0.790  0.1538 -1.2531  1.5360
54002SOL    HW279617  10.034   7.117   0.801 -1.2713  0.0603 -1.9083
54003SOL     OW79618   0.050  13.462   1.933 -0.1379 -0.2850  0.1927
54003SOL    HW179619   0.063  13.384   1.987  0.5948  0.5360  1.2443
54003SOL    HW279620   0.131  13.470   1.883 -0.1813 -0.1587  0.1413
54004SOL     OW79621   9.445   0.336   7.956  0.1020 -0.0052  0.0921
54004SOL    HW179622   9.351   0.326   7.943 -0.1205  1.4235  0.4590
54004SOL    HW279623   9.485   0.277   7.892 -1.0306  0.9374 -1.5428
54005SOL     OW79624  13.949   9.375  13.664  0.0336  0.0006 -0.2898
54005SOL    HW179625  14.040   9.370  13.633  0.7322 -0.8637  1.7211
54005SOL    HW279626  13.911   9.447  13.615  1.5144 -0.2437 -1.9000
54006SOL     OW79627   6.971   9.970   4.385  0.0860 -0.1137 -0.1697
54006SOL    HW179628   6.953   9.895   4.442  0.3116  0.4831  0.6956
54006SOL    HW279629   7.065   9.982   4.390 -0.0642  0.8471  0.4851
54007SOL     OW79630   7.195   4.625   0.310  0.0206 -0.3216 -0.4322
54007SOL    HW179631   7.287   4.636   0.333  0.0166  1.2294 -1.0720
54007SOL    HW279632   7.183   4.679   0.232 -1.0031 -1.9673 -1.4840
54008SOL     OW79633   0.430  10.744   1.377  0.6216  0.3495  0.2491
54008SOL    HW179634   0.424  10.769   1.285  0.0805 -1.1140 -0.1434
54008SOL    HW279635   0.408  10.823   1.425  0.4446  1.0131 -0.8928
54009SOL     OW79636   2.640  13.201   4.381 -0.0172 -0.2336 -0.0366
54009SOL    HW179637   2.720  13.225   4.428  0.2968 -1.7060  0.2287
54009SOL    HW279638   2.668  13.189   4.291 -0.0541 -0.1741 -0.0560
54010SOL     OW79639   6.395  12.906  13.749  0.3696  0.0124 -0.1892
54010SOL    HW179640   6.343  12.847  13.803  0.8557 -0.6424 -0.4252
54010SOL    HW279641   6.363  12.893  13.660  2.8925 -2.6997 -0.8647
54011SOL     OW79642  11.281   9.079   5.063 -0.2228  0.2064 -0.2922
54011SOL    HW179643  11.311   9.012   5.125 -1.0803  0.4867  0.4308
54011SOL    HW279644  11.230   9.030   4.998  0.2101 -0.0111 -0.4724
54012SOL     OW79645   0.766   0.994  13.989  0.4627 -0.4805 -0.2109
54012SOL    HW179646   0.782   1.088  13.975 -1.4399 -0.4525 -2.9325
54012SOL    HW279647   0.685   0.990  14.040  0.1647 -0.6543 -0.6990
54013SOL     OW79648   1.369   7.574   6.478  0.3037  0.0925 -0.4430
54013SOL    HW179649   1.401   7.491   6.514  0.0954  0.2605  0.1515
54013SOL    HW279650   1.436   7.602   6.417 -0.6111 -1.6247 -2.3704
54014SOL     OW79651   3.330   4.690  11.141 -0.2745  0.1231  0.0810
54014SOL    HW179652   3.315   4.598  11.122  2.0663 -0.9147  2.5950
54014SOL    HW279653   3.425   4.697  11.150 -0.4343  2.6740  0.4640
54015SOL     OW79654   0.384   7.105  11.861 -0.1091 -0.0712 -0.4735
54015SOL    HW179655   0.315   7.041  11.843 -0.2683 -0.6812  1.9922
54015SOL    HW279656   0.342   7.190  11.845 -1.2499 -0.4672  0.2962
54016SOL     OW79657   4.090   6.555   2.480  0.5965 -0.4817 -0.1334
54016SOL    HW179658   4.049   6.480   2.438  0.4963 -0.1850 -0.5781
54016SOL    HW279659   4.106   6.617   2.409  1.5909 -0.4847  0.0647
54017SOL     OW79660   7.010  13.396   5.066  0.5016 -0.2025 -0.0915
54017SOL    HW179661   7.053  13.479   5.086 -0.3417  0.0012  0.9858
54017SOL    HW279662   6.976  13.407   4.977 -2.8066  2.0950  1.2494
54018SOL     OW79663   6.099  10.969   3.927  0.3676  0.0223 -0.2893
54018SOL    HW179664   6.138  11.021   3.857  0.0429  0.9943  0.2466
54018SOL    HW279665   6.040  11.029   3.973  0.0893 -0.7723  0.4259
54019SOL     OW79666   2.997   3.605  10.728  0.3717 -0.7143  0.1005
54019SOL    HW179667   3.042   3.688  10.746 -0.9732  0.4167 -1.4565
54019SOL    HW279668   2.985   3.566  10.815  0.5842  0.9795  0.9445
54020SOL     OW79669   0.398  11.929   4.679 -0.0537 -0.6235 -0.2385
54020SOL    HW179670   0.348  11.908   4.600  0.6507 -1.1407 -0.5638
54020SOL    HW279671   0.490  11.919   4.653  0.2352  0.3871  0.3194
54021SOL     OW79672  13.592  12.759   5.966 -0.7089  0.3814 -0.2722
54021SOL    HW179673  13.681  12.753   5.933 -0.1721 -0.3670  1.1986
54021SOL    HW279674  13.540  12.706   5.905  0.3644 -1.5416  0.3860
54022SOL     OW79675   8.561   2.548  11.736 -0.2016 -0.0812 -0.3673
54022SOL    HW179676   8.526   2.490  11.669  1.9372 -0.6537 -1.0693
54022SOL    HW279677   8.595   2.623  11.687  1.8360 -0.7344 -0.0373
54023SOL     OW79678   3.064  11.966  10.625  0.0851  0.9542 -0.4904
54023SOL    HW179679   3.141  12.008  10.587  0.6849  0.9327  0.6931
54023SOL    HW279680   3.013  12.038  10.663  0.0127  0.8541 -0.3979
54024SOL     OW79681  11.855   4.865   2.218 -0.2863 -0.0498  0.5466
54024SOL    HW179682  11.827   4.795   2.276  0.6638 -0.3452  0.6572
54024SOL    HW279683  11.774   4.896   2.177 -0.6171 -1.9568 -0.3703
54025SOL     OW79684   0.034  10.770   0.751  0.3906 -0.1118  0.0585
54025SOL    HW179685  -0.052  10.798   0.783  0.2089 -4.0924  3.9828
54025SOL    HW279686   0.096  10.812   0.810  0.7595 -0.7830  0.1540
54026SOL     OW79687   1.854   6.644   0.115  0.2274  0.5157  0.4345
54026SOL    HW179688   1.949   6.650   0.106  0.2419  1.9605  1.2814
54026SOL    HW279689   1.827   6.732   0.141 -1.7127  0.9834 -2.7237
54027SOL     OW79690   4.706  12.381  10.835 -0.0985 -0.2158  0.1997
54027SOL    HW179691   4.777  12.319  10.851  0.3796  0.0948 -0.6535
54027SOL    HW279692   4.648  12.371  10.911  0.9279 -0.3630  0.9957
54028SOL     OW79693   3.518   4.012   8.254 -0.0494 -0.3475  0.0725
54028SOL    HW179694   3.535   3.922   8.223  2.8668  0.8520 -2.3699
54028SOL    HW279695   3.531   4.008   8.348 -0.6827 -2.5861  0.1236
54029SOL     OW79696   0.463   6.223   1.740 -0.0148  0.0917  0.2106
54029SOL    HW179697   0.385   6.254   1.694 -0.3065 -0.9283 -0.0189
54029SOL    HW279698   0.533   6.228   1.674 -0.2417 -0.5190 -0.0867
54030SOL     OW79699  11.509   9.879   6.330 -0.0155 -0.5297  0.3639
54030SOL    HW179700  11.530   9.970   6.306 -0.2595 -0.9695 -1.7101
54030SOL    HW279701  11.538   9.871   6.421  0.7645  1.3850  0.3321
54031SOL     OW79702   8.196   6.454   3.953 -0.0438  0.2765 -0.0925
54031SOL    HW179703   8.210   6.368   3.992  1.8575 -0.5737 -2.3996
54031SOL    HW279704   8.281   6.498   3.960 -1.2130  2.4271  1.9027
54032SOL     OW79705  13.719   1.656   1.547  0.5770 -0.2848  0.3910
54032SOL    HW179706  13.648   1.720   1.542 -0.5608 -1.5638 -0.7634
54032SOL    HW279707  13.789   1.700   1.595 -0.5988  1.3933  0.6200
54033SOL     OW79708   2.282   1.757  10.724 -0.4668 -0.3819  0.6732
54033SOL    HW179709   2.296   1.747  10.630 -0.9189  0.4596  0.5073
54033SOL    HW279710   2.368   1.741  10.763 -0.1027  0.0381  0.0556
54034SOL     OW79711   1.115   8.628   3.663  0.2826  0.6616 -0.0514
54034SOL    HW179712   1.082   8.654   3.749  0.0578  0.7485 -0.1633
54034SOL    HW279713   1.083   8.696   3.604 -0.3424  0.1118 -0.3549
54035SOL     OW79714   9.311   6.336   4.528  0.7013  0.6491 -0.6740
54035SOL    HW179715   9.332   6.422   4.490  0.4710  1.4543  0.9278
54035SOL    HW279716   9.390   6.284   4.516  0.6136  0.8391 -2.2826
54036SOL     OW79717   5.847   5.193   1.232  0.2925  0.6237  0.5320
54036SOL    HW179718   5.896   5.124   1.188  1.6402  1.0918  1.2580
54036SOL    HW279719   5.873   5.274   1.188 -1.0210  0.7352 -0.0909
54037SOL     OW79720   1.292  13.710  10.574 -0.8286  0.4965  1.2788
54037SOL    HW179721   1.244  13.790  10.557  0.4171  0.8548 -0.9372
54037SOL    HW279722   1.271  13.653  10.500  2.5649  0.9495 -0.2064
54038SOL     OW79723  10.002   5.244   1.884  0.4954 -0.2852 -0.3989
54038SOL    HW179724   9.984   5.213   1.796  1.4920 -0.5706 -0.5189
54038SOL    HW279725   9.991   5.167   1.940 -2.7741  0.4245  0.1669
54039SOL     OW79726   9.378  10.723  13.861 -0.0438  0.3493 -0.2301
54039SOL    HW179727   9.449  10.749  13.802 -0.5840  0.3788 -0.8837
54039SOL    HW279728   9.298  10.752  13.817 -0.4523  0.5514  0.6206
54040SOL     OW79729   6.375   0.417  13.064  0.2932 -0.2665  0.0781
54040SOL    HW179730   6.283   0.405  13.039  0.0770 -1.6448  1.3896
54040SOL    HW279731   6.374   0.492  13.123  0.2414  0.6102 -1.0108
54041SOL     OW79732   1.838  10.116   1.865 -0.3476  0.0714  0.1804
54041SOL    HW179733   1.930  10.141   1.854 -0.1634 -0.4879  0.4397
54041SOL    HW279734   1.810  10.162   1.944 -1.0412  2.3081 -1.2382
54042SOL     OW79735  12.206  13.088   3.456  0.3382 -0.1229  0.3438
54042SOL    HW179736  12.220  13.181   3.471  2.1778 -0.1333 -0.9259
54042SOL    HW279737  12.122  13.069   3.498  0.2301  1.9440  1.1910
54043SOL     OW79738  10.160   3.071   6.161 -0.3596 -0.1330 -0.4724
54043SOL    HW179739  10.141   3.033   6.076 -2.3300 -1.0168  0.2972
54043SOL    HW279740  10.154   3.165   6.147 -0.9601 -0.2733 -1.2664
54044SOL     OW79741  13.569   1.450  13.180  0.0092  0.5735  0.0173
54044SOL    HW179742  13.644   1.510  13.170  1.3163 -0.3865  2.8694
54044SOL    HW279743  13.596   1.370  13.135  0.3183  0.5381  0.2625
54045SOL     OW79744   4.115   3.641   2.545 -0.0198  0.0290 -0.4701
54045SOL    HW179745   4.025   3.631   2.514  0.0444 -2.2978 -0.1053
54045SOL    HW279746   4.145   3.551   2.560  2.7849  0.6272 -1.7537
54046SOL     OW79747  13.607  13.490   3.541 -0.1245 -0.2123 -0.0174
54046SOL    HW179748  13.702  13.506   3.538  0.0290 -1.1500 -2.7822
54046SOL    HW279749  13.599  13.398   3.563 -0.3822 -0.2175 -0.1305
54047SOL     OW79750  11.609  12.109  13.478 -0.5022 -0.0087 -0.6262
54047SOL    HW179751  11.535  12.049  13.485 -0.4381 -0.0631 -0.4330
54047SOL    HW279752  11.685  12.053  13.465 -0.5108  0.0529 -0.9689
54048SOL     OW79753   9.566   8.607   0.796  0.7907 -0.3218 -0.1840
54048SOL    HW179754   9.644   8.659   0.776  0.8009 -0.7833 -1.4997
54048SOL    HW279755   9.600   8.525   0.830  0.8095  0.0751  0.7911
54049SOL     OW79756   4.567   0.207   8.379 -0.0387  0.2789 -0.1863
54049SOL    HW179757   4.628   0.202   8.306  0.4430  1.0413  0.1499
54049SOL    HW279758   4.499   0.143   8.358  0.5847 -0.1887 -0.8322
54050SOL     OW79759   2.548   9.649   0.664  0.3432  0.1249  0.4692
54050SOL    HW179760   2.557   9.645   0.760 -1.3206  2.5771  0.8251
54050SOL    HW279761   2.580   9.736   0.641  2.0098 -0.9209 -1.4630
54051SOL     OW79762  10.518  12.400  11.944 -0.4520  0.1827 -0.0615
54051SOL    HW179763  10.600  12.448  11.953 -1.2836  1.4805  0.9818
54051SOL    HW279764  10.468  12.424  12.022 -0.8375 -2.6024  0.6504
54052SOL     OW79765  10.981  10.580   6.489  0.5943 -0.0587  0.2655
54052SOL    HW179766  11.045  10.628   6.436  0.8211 -0.2484  0.3653
54052SOL    HW279767  11.033  10.540   6.559  0.4440 -0.6348  0.0562
54053SOL     OW79768  10.184   0.705   9.484 -0.6272  0.6476 -0.3454
54053SOL    HW179769  10.256   0.742   9.434  0.6537  1.3865  1.8901
54053SOL    HW279770  10.157   0.776   9.542 -0.0450 -0.9818  2.0671
54054SOL     OW79771  10.149   3.093   9.452 -0.4957  0.0802 -0.0906
54054SOL    HW179772  10.081   3.153   9.419 -0.3017 -0.1829 -1.0016
54054SOL    HW279773  10.187   3.055   9.373  1.6292  1.2011  0.3284
54055SOL     OW79774  10.016  11.064   6.305  0.1247  0.0154 -0.8972
54055SOL    HW179775   9.967  10.998   6.255  0.2217 -1.0585  0.3647
54055SOL    HW279776  10.105  11.030   6.309  0.0753 -0.0210  0.1555
54056SOL     OW79777   9.711  12.055   5.118 -0.6414 -0.2535  0.3046
54056SOL    HW179778   9.664  12.021   5.194 -1.4589  1.3132  0.5310
54056SOL    HW279779   9.727  12.147   5.138 -2.0179  0.5612 -1.9298
54057SOL     OW79780  11.209   5.132   0.541  0.5249  1.2649 -0.0248
54057SOL    HW179781  11.125   5.134   0.494  0.3275  1.9916  0.3537
54057SOL    HW279782  11.221   5.221   0.574 -0.0694  0.4719  2.5696
54058SOL     OW79783  12.742   8.241  10.794  0.3975 -0.2046 -0.7227
54058SOL    HW179784  12.679   8.263  10.863  2.0118 -0.9408  1.0872
54058SOL    HW279785  12.816   8.300  10.809  0.1687  0.7015 -2.8608
54059SOL     OW79786   3.840   4.980  14.015 -0.1460 -0.0251 -0.3718
54059SOL    HW179787   3.907   5.045  14.037  1.5326 -1.3648 -1.3249
54059SOL    HW279788   3.846   4.971  13.920 -1.0600 -0.8557 -0.3670
54060SOL     OW79789  12.160  14.063  11.863  0.6666  0.1145 -0.1137
54060SOL    HW179790  12.248  14.052  11.901  0.7320 -1.1929 -0.6140
54060SOL    HW279791  12.163  14.014  11.781 -0.3874  0.4706 -0.3729
54061SOL     OW79792  13.137  13.218   0.024  0.4119 -0.5750 -0.2232
54061SOL    HW179793  13.071  13.255   0.082  0.5370 -0.1598 -0.3406
54061SOL    HW279794  13.182  13.295  -0.013  0.6863 -0.8447 -0.4552
54062SOL     OW79795   9.641   7.076  14.053 -0.3508  0.0329 -0.8065
54062SOL    HW179796   9.700   7.005  14.075 -0.9093 -0.2744 -0.2664
54062SOL    HW279797   9.697   7.154  14.052  0.1428 -0.3158 -0.7517
54063SOL     OW79798   0.381   5.745   8.382 -0.2720  0.2324  0.3910
54063SOL    HW179799   0.292   5.777   8.393 -2.6330 -4.2930 -2.7899
54063SOL    HW279800   0.406   5.774   8.294  0.4999 -0.3787  0.3964
54064SOL     OW79801  13.702  13.471  13.713 -0.2203  0.5157  0.1381
54064SOL    HW179802  13.759  13.490  13.638  0.2966  0.6025  0.5501
54064SOL    HW279803  13.754  13.495  13.790 -0.8296  0.6384  0.5200
54065SOL     OW79804  12.337   9.903  14.031 -0.4015 -0.2825  0.2684
54065SOL    HW179805  12.373   9.815  14.020 -0.0340 -0.1017 -0.0015
54065SOL    HW279806  12.413   9.961  14.024 -0.6820  0.0752  0.1295
54066SOL     OW79807  13.265   0.145   1.630 -0.4127  0.3927  0.1035
54066SOL    HW179808  13.251   0.090   1.553  1.1727  1.1599 -0.7718
54066SOL    HW279809  13.259   0.235   1.597  0.8099  0.7337  0.7648
54067SOL     OW79810  13.381  13.713   1.452 -0.1949  0.0122  0.5510
54067SOL    HW179811  13.302  13.763   1.430  0.8290  1.3022 -0.3609
54067SOL    HW279812  13.370  13.690   1.544 -1.1299  1.1594  0.7518
54068SOL     OW79813   5.161  10.196  11.720 -0.3331  0.0143 -0.1179
54068SOL    HW179814   5.209  10.148  11.653 -0.1840  0.0876 -0.0636
54068SOL    HW279815   5.072  10.160  11.717  0.4033 -2.2186  1.7565
54069SOL     OW79816   4.393  13.835  13.713  0.5884 -0.4428 -0.0946
54069SOL    HW179817   4.414  13.746  13.743 -1.3717 -1.2998 -1.0752
54069SOL    HW279818   4.298  13.835  13.703  0.6614  1.3986 -1.2985
54070SOL     OW79819   7.132   9.022   5.979 -0.0084  0.5932 -0.3024
54070SOL    HW179820   7.147   8.962   6.051  0.5859  0.8316 -0.2206
54070SOL    HW279821   7.200   9.002   5.916  0.9039  1.9162  0.2167
54071SOL     OW79822  10.656  11.852   2.985  0.1959  0.0726  1.0029
54071SOL    HW179823  10.591  11.857   3.056 -0.6720  0.6821  0.1890
54071SOL    HW279824  10.723  11.792   3.019  0.8618  1.8824  3.1828
54072SOL     OW79825   5.304   4.301  11.352  0.4163 -0.0029 -0.2037
54072SOL    HW179826   5.369   4.304  11.282  1.0850  1.5363  0.4361
54072SOL    HW279827   5.356   4.302  11.433 -0.3749 -0.4801  0.3214
54073SOL     OW79828   9.763   6.067   2.126 -0.1053 -0.2634 -0.3896
54073SOL    HW179829   9.809   6.151   2.120  1.8122 -1.1915  0.3448
54073SOL    HW279830   9.833   6.001   2.119 -1.3917 -1.7683  0.3406
54074SOL     OW79831   4.149   9.507   4.560 -0.0390 -0.2232  0.3450
54074SOL    HW179832   4.106   9.431   4.601 -2.6920  0.4828 -0.8662
54074SOL    HW279833   4.186   9.472   4.479 -1.0630 -0.3304 -0.1029
54075SOL     OW79834   3.146   6.148   0.333  0.3686  0.0599 -0.0845
54075SOL    HW179835   3.158   6.137   0.427 -0.0948 -1.5719 -0.1709
54075SOL    HW279836   3.118   6.061   0.303 -0.1148  0.7191 -1.6259
54076SOL     OW79837   3.363   1.036  14.064 -0.2547  0.6092 -0.3730
54076SOL    HW179838   3.410   0.956  14.086 -0.5832  0.3040 -0.7488
54076SOL    HW279839   3.270   1.010  14.063 -0.2683  0.6013 -2.0014
54077SOL     OW79840  12.621   5.370  10.240 -0.5334  0.0071 -0.1149
54077SOL    HW179841  12.686   5.438  10.257 -1.6322  1.1092 -0.1981
54077SOL    HW279842  12.615   5.366  10.145 -0.1072 -0.5940 -0.1277
54078SOL     OW79843  14.028   5.028   0.928 -0.5120  0.2896 -0.4622
54078SOL    HW179844  14.100   5.006   0.869 -0.8458 -1.8575 -0.1710
54078SOL    HW279845  14.056   5.108   0.972  1.2804  0.0279 -1.0489
54079SOL     OW79846   0.820  13.177   9.996  0.0559  0.1269 -0.3422
54079SOL    HW179847   0.783  13.213   9.915 -0.0071  1.9100  0.4193
54079SOL    HW279848   0.831  13.254  10.053  3.2048 -0.5304  0.1533
54080SOL     OW79849  13.005  10.241  10.464 -0.2771  0.4292 -0.5022
54080SOL    HW179850  13.084  10.192  10.442 -0.3196 -0.2597  0.8106
54080SOL    HW279851  13.035  10.330  10.478  0.3941  0.0556  0.5846
54081SOL     OW79852   7.809   8.663  13.704 -0.3134  0.0921 -0.5792
54081SOL    HW179853   7.744   8.601  13.735 -0.2388  0.2161 -0.1724
54081SOL    HW279854   7.818   8.726  13.775 -0.3438  0.5352 -0.9618
54082SOL     OW79855  11.538   4.950   7.402 -0.3918 -0.2859 -0.1805
54082SOL    HW179856  11.586   4.868   7.407 -1.2264 -0.7628  0.1776
54082SOL    HW279857  11.449   4.925   7.377 -0.7298  0.4760  0.2161
54083SOL     OW79858   5.905  13.447   4.217  0.5054 -0.4609 -0.2288
54083SOL    HW179859   5.995  13.420   4.238  0.7936  0.7529  0.1482
54083SOL    HW279860   5.910  13.479   4.127  0.3891 -0.6399 -0.2999
54084SOL     OW79861  13.048   0.825  13.556 -0.2348 -0.0703  0.7552
54084SOL    HW179862  13.107   0.779  13.497 -0.0312  1.5312 -0.3666
54084SOL    HW279863  12.990   0.757  13.590 -0.1634 -1.1167 -1.0639
54085SOL     OW79864  13.184   2.590   7.133 -0.0241  0.7094 -0.3955
54085SOL    HW179865  13.168   2.555   7.045 -0.1102  0.6293 -0.3481
54085SOL    HW279866  13.115   2.653   7.147 -1.0572 -0.5292  0.2968
54086SOL     OW79867   7.971   3.677  13.935 -0.5875  0.8901 -0.2096
54086SOL    HW179868   7.998   3.757  13.981  0.0404  0.5321  0.0544
54086SOL    HW279869   7.879   3.666  13.958  0.4368 -1.1110  3.8365
54087SOL     OW79870   9.054   2.323   6.020 -0.6721 -0.0817 -0.0860
54087SOL    HW179871   9.116   2.384   6.060  1.6877 -1.1696 -1.8349
54087SOL    HW279872   9.003   2.289   6.093  1.8341 -0.2786  1.7145
54088SOL     OW79873   9.077   3.957   6.002 -0.0911  0.4219  0.0989
54088SOL    HW179874   9.063   3.871   6.042 -0.8906 -0.0592 -1.1398
54088SOL    HW279875   9.044   4.019   6.067 -1.6138 -0.3427  0.1157
54089SOL     OW79876   4.698   4.391  11.399  0.5987 -0.1300 -0.1668
54089SOL    HW179877   4.724   4.399  11.307  1.3818 -1.6903 -0.1068
54089SOL    HW279878   4.612   4.350  11.397  0.5309  0.0151 -0.2128
54090SOL     OW79879   2.133   1.515   0.140 -0.2587 -0.0728  0.0554
54090SOL    HW179880   2.047   1.500   0.100 -0.1468 -0.4153 -0.0579
54090SOL    HW279881   2.167   1.428   0.159  0.9009 -0.0652 -1.7042
54091SOL     OW79882  10.683   5.178  12.954  0.3445 -0.5020  0.8728
54091SOL    HW179883  10.713   5.088  12.945 -1.2013 -0.8550 -1.9792
54091SOL    HW279884  10.608   5.173  13.013 -0.8114 -1.4508 -0.6010
54092SOL     OW79885   8.103  13.468   9.373 -0.3265  0.6442 -0.2840
54092SOL    HW179886   8.188  13.508   9.358  1.3590 -2.7623 -0.8086
54092SOL    HW279887   8.095  13.402   9.303 -2.7255 -0.1389  0.6192
54093SOL     OW79888  12.198   9.412   2.644 -0.8249 -0.4896 -0.1996
54093SOL    HW179889  12.241   9.455   2.718 -0.8758 -0.4196 -0.2110
54093SOL    HW279890  12.130   9.473   2.617  0.1998  0.2161 -1.3132
54094SOL     OW79891  11.510   1.466  13.710  0.1742 -0.0066 -0.1857
54094SOL    HW179892  11.422   1.503  13.718  0.8734  1.6032  0.4037
54094SOL    HW279893  11.503   1.380  13.751 -0.7144  0.8099  1.4595
54095SOL     OW79894  11.796   7.037  13.690 -0.4447  0.1149  0.0691
54095SOL    HW179895  11.860   7.094  13.731 -2.3718 -0.0948  3.8989
54095SOL    HW279896  11.821   6.949  13.717 -0.7175 -0.2812 -0.9114
54096SOL     OW79897  12.206   7.749  13.905  0.4366 -0.1425  0.2086
54096SOL    HW179898  12.221   7.655  13.902  1.6172  0.0347 -0.1315
54096SOL    HW279899  12.225   7.774  13.995  1.6355 -0.0300 -0.0498
54097SOL     OW79900   9.684   1.922  12.866 -0.2726 -0.7207 -0.1906
54097SOL    HW179901   9.775   1.923  12.838 -0.3189 -0.9923 -0.3561
54097SOL    HW279902   9.658   2.014  12.869  0.6443 -0.4682  1.9699
54098SOL     OW79903   7.619   7.889  13.558 -0.5108 -0.4890 -0.6748
54098SOL    HW179904   7.592   7.847  13.476 -1.6660 -2.2885  0.5525
54098SOL    HW279905   7.537   7.909  13.603  0.1017 -0.8736  0.6672
54099SOL     OW79906   0.118   1.946   0.813 -0.1487 -0.1115  0.4641
54099SOL    HW179907   0.192   1.943   0.753 -0.2714 -2.1247  0.3681
54099SOL    HW279908   0.138   2.020   0.871 -0.0085  1.9053 -1.9345
54100SOL     OW79909   3.415   3.369   9.645 -0.4752 -0.1828  0.6185
54100SOL    HW179910   3.322   3.376   9.668 -0.4629 -1.4482  1.1552
54100SOL    HW279911   3.422   3.408   9.558 -1.3622  0.6336  0.9028
54101SOL     OW79912   5.447   0.884   4.006 -0.0746 -0.2033  0.1104
54101SOL    HW179913   5.354   0.870   3.987  0.0519  0.2737 -0.9288
54101SOL    HW279914   5.477   0.943   3.937 -0.3298  4.5101  3.5446
54102SOL     OW79915  11.135   1.509   8.811  0.1395 -0.2705  0.0519
54102SOL    HW179916  11.169   1.553   8.888 -0.0627 -0.0171 -0.0020
54102SOL    HW279917  11.177   1.553   8.737  0.8767 -0.9742  0.0361
54103SOL     OW79918   2.019   2.755   4.696  0.1893 -0.3792 -0.0924
54103SOL    HW179919   2.014   2.661   4.713  1.2821 -0.6962 -1.4244
54103SOL    HW279920   2.109   2.779   4.720  0.8579 -0.2779 -2.4746
54104SOL     OW79921   0.712   3.700   7.942  0.4930  0.6442 -0.3877
54104SOL    HW179922   0.633   3.646   7.943  0.8780  0.0660  0.7777
54104SOL    HW279923   0.701   3.758   7.867 -1.1505  0.7295 -0.1129
54105SOL     OW79924   1.809  11.381  10.169 -0.3204 -0.2925 -0.4691
54105SOL    HW179925   1.792  11.469  10.136 -0.8091 -0.0929  0.2988
54105SOL    HW279926   1.827  11.329  10.091  2.1627  0.9419 -0.8061
54106SOL     OW79927   5.966   7.097   6.837  0.3117  0.0950 -0.2529
54106SOL    HW179928   5.898   7.082   6.902 -0.2687  0.3830 -0.7865
54106SOL    HW279929   6.015   7.172   6.871 -0.0715  0.3285 -0.2095
54107SOL     OW79930   4.433   3.233   1.965 -0.0859 -0.7023 -0.0509
54107SOL    HW179931   4.511   3.242   2.020 -0.0677  0.7713 -0.2776
54107SOL    HW279932   4.362   3.268   2.020 -0.1739  0.1956 -0.7311
54108SOL     OW79933   1.429   8.907   6.920  0.0344 -0.4706  0.0483
54108SOL    HW179934   1.492   8.850   6.965  0.4113 -1.5944 -1.7865
54108SOL    HW279935   1.479   8.943   6.847 -0.8447  0.4460 -0.1054
54109SOL     OW79936  12.859  10.917  12.715 -0.0008  0.1481  0.2754
54109SOL    HW179937  12.882  10.908  12.807 -0.4593 -0.6981  0.3168
54109SOL    HW279938  12.935  10.882  12.668  0.7698  1.7117  0.2721
54110SOL     OW79939   1.997  12.480   2.148  0.1805 -0.2529  0.9806
54110SOL    HW179940   2.005  12.575   2.146  1.0647 -0.3276  0.1768
54110SOL    HW279941   1.974  12.455   2.058  0.4101 -0.8237  1.0716
54111SOL     OW79942   5.724   5.751   3.664 -0.8584  0.2392  0.1851
54111SOL    HW179943   5.667   5.817   3.626 -1.7681 -0.2342  0.6960
54111SOL    HW279944   5.714   5.762   3.759  1.7140  1.7113  0.3962
54112SOL     OW79945   1.065  11.257  12.084  0.2893 -0.3988 -0.0773
54112SOL    HW179946   1.115  11.330  12.047  0.1368 -0.7071 -0.9096
54112SOL    HW279947   1.040  11.204  12.009  1.8177 -2.2476  0.6293
54113SOL     OW79948   0.675   1.672   8.501  0.4069 -0.2342 -0.0215
54113SOL    HW179949   0.743   1.674   8.568  0.3498 -0.2883  0.0383
54113SOL    HW279950   0.613   1.741   8.528  0.0926 -0.6321  0.2913
54114SOL     OW79951  11.201   8.723   6.295  0.2545  0.1214 -0.1190
54114SOL    HW179952  11.285   8.679   6.286  0.3821  0.0150  1.3153
54114SOL    HW279953  11.215   8.786   6.366 -1.1491 -0.6017  0.8342
54115SOL     OW79954   0.966   3.571   9.567 -0.3321 -0.1585  0.2392
54115SOL    HW179955   0.911   3.606   9.497  0.6803 -1.0574 -1.0652
54115SOL    HW279956   1.021   3.506   9.523 -0.1486 -1.2625  2.0194
54116SOL     OW79957  10.906   6.242  13.496  0.6876  0.1230 -0.1316
54116SOL    HW179958  10.949   6.288  13.568 -0.1435  0.9151 -0.1076
54116SOL    HW279959  10.891   6.311  13.430  1.0158 -0.4940 -0.8612
54117SOL     OW79960   7.759   1.935   9.981 -0.0085  0.2863  0.0540
54117SOL    HW179961   7.794   1.954   9.894  0.1003  1.2921  0.2959
54117SOL    HW279962   7.809   1.992  10.040 -0.0990 -0.3612  0.7711
54118SOL     OW79963   6.790   8.202   0.497 -0.4198  0.2584  0.0220
54118SOL    HW179964   6.759   8.128   0.550 -0.2654  0.6834  0.7161
54118SOL    HW279965   6.884   8.206   0.514 -0.3353  0.2869 -0.4326
54119SOL     OW79966  13.970   8.151  12.937 -0.1679  0.1409  0.6472
54119SOL    HW179967  13.901   8.105  12.986 -0.8846  0.7336  0.2023
54119SOL    HW279968  13.964   8.117  12.848 -0.1399  0.4808  0.5145
54120SOL     OW79969   5.500  13.744   4.824 -0.1003  0.1928 -0.0703
54120SOL    HW179970   5.463  13.679   4.884  2.0917 -0.4045  0.7474
54120SOL    HW279971   5.489  13.827   4.870  0.4659 -0.1086  0.6402
54121SOL     OW79972   7.752   1.011   3.783 -0.0155  0.0696  0.1508
54121SOL    HW179973   7.668   0.979   3.750  0.2027  1.3701 -1.7842
54121SOL    HW279974   7.768   0.957   3.861 -1.7281 -1.4902 -0.4852
54122SOL     OW79975   3.864   2.188   6.693  0.1290  0.2014 -0.5368
54122SOL    HW179976   3.950   2.224   6.670  0.0262 -0.0377 -1.3257
54122SOL    HW279977   3.881   2.096   6.714  0.0142  0.0553 -1.0714
54123SOL     OW79978   8.892   9.050   2.178 -0.3967  0.1120  0.4293
54123SOL    HW179979   8.858   8.980   2.234  0.1734  0.3619  1.0920
54123SOL    HW279980   8.816   9.105   2.159 -0.2927  1.0158  2.4105
54124SOL     OW79981  12.275   5.445   8.316  0.0834  0.4727  0.2313
54124SOL    HW179982  12.316   5.529   8.336  0.3793  0.1415  1.0511
54124SOL    HW279983  12.206   5.435   8.382 -0.1362  0.2000 -0.0377
54125SOL     OW79984   4.573  10.929   6.781  0.3403 -0.0618 -0.2290
54125SOL    HW179985   4.535  11.016   6.781  0.1283 -0.1010  1.6032
54125SOL    HW279986   4.557  10.894   6.693 -2.3413  0.5581 -0.0612
54126SOL     OW79987   3.288   6.530  13.335  0.2905 -0.1335  0.0957
54126SOL    HW179988   3.316   6.468  13.402 -0.8499 -1.4906 -0.6316
54126SOL    HW279989   3.298   6.616  13.376  1.7914 -0.7852  1.1765
54127SOL     OW79990   4.472   8.888   1.181 -0.3946  0.1215  0.4066
54127SOL    HW179991   4.530   8.860   1.252  0.2184  0.9396  0.2418
54127SOL    HW279992   4.396   8.830   1.188  0.2577 -0.6945  0.8824
54128SOL     OW79993   9.399  11.161   0.415  0.5046 -0.1323  0.0189
54128SOL    HW179994   9.352  11.090   0.371 -0.3941 -0.7217  1.8348
54128SOL    HW279995   9.480  11.170   0.365 -0.5950 -0.5136 -1.9302
54129SOL     OW79996   2.730   7.887   8.690 -0.0535  0.7460  0.9105
54129SOL    HW179997   2.744   7.793   8.676 -1.1255  0.6972  0.0329
54129SOL    HW279998   2.774   7.928   8.615 -0.9167  0.8339  0.4377
54130SOL     OW79999   0.921  12.448  11.040  0.1578  0.3243  0.2095
54130SOL    HW180000   0.827  12.430  11.048  0.0401  1.3543  1.5203
54130SOL    HW280001   0.963  12.371  11.079 -0.1868  0.5761  1.0875
54131SOL     OW80002   1.123   9.248  12.517  0.0780 -0.2946 -0.4198
54131SOL    HW180003   1.071   9.172  12.490 -0.6576  0.2099 -0.4537
54131SOL    HW280004   1.214   9.218  12.511 -0.1973 -1.1511 -0.4886
54132SOL     OW80005  11.596   2.979   9.083  0.0827  0.2783 -0.4130
54132SOL    HW180006  11.535   2.978   9.156 -1.3612 -4.1468 -1.4271
54132SOL    HW280007  11.557   3.040   9.020 -0.9384  0.8006  0.6854
54133SOL     OW80008  12.364  12.555   7.409  0.5117 -0.1802  0.3139
54133SOL    HW180009  12.270  12.537   7.400  0.5854 -0.2207 -0.4156
54133SOL    HW280010  12.404  12.516   7.331  1.1560 -0.2778  0.6828
54134SOL     OW80011   9.559   3.943   9.009  0.1263 -0.2648  0.0378
54134SOL    HW180012   9.544   3.855   8.972 -0.8875  0.2722 -0.8827
54134SOL    HW280013   9.511   4.002   8.951  1.2700  0.9777  0.3080
54135SOL     OW80014   5.426   3.660   7.351  0.0143 -0.0177  0.0280
54135SOL    HW180015   5.346   3.645   7.301 -0.2746 -0.9601  0.7318
54135SOL    HW280016   5.457   3.746   7.323 -1.2943  0.4048 -0.1943
54136SOL     OW80017   0.841   0.493  10.575  0.4416  0.3351  0.2578
54136SOL    HW180018   0.905   0.487  10.504  1.2651  1.9688  0.8210
54136SOL    HW280019   0.782   0.564  10.549 -1.0360 -0.9707 -0.1242
54137SOL     OW80020   4.488  10.601   1.386  0.0080 -0.4297 -0.2012
54137SOL    HW180021   4.482  10.506   1.375  2.6935 -0.6583 -0.3226
54137SOL    HW280022   4.410  10.635   1.342 -0.8231 -2.5283 -0.4890
54138SOL     OW80023  12.950   0.319  12.360 -0.4919  0.3085  0.1987
54138SOL    HW180024  12.924   0.382  12.292 -1.0849 -1.6227 -1.4705
54138SOL    HW280025  12.991   0.247  12.311  0.6867 -0.3684  2.0839
54139SOL     OW80026   2.753  12.062   8.306  0.1601  0.3572 -0.0422
54139SOL    HW180027   2.726  12.000   8.239  1.2995  0.9965 -1.1386
54139SOL    HW280028   2.767  12.009   8.385 -1.1188 -0.4159 -0.3155
54140SOL     OW80029   5.375   0.843   8.411  0.2044 -0.2961 -0.0413
54140SOL    HW180030   5.447   0.867   8.352 -0.1143 -0.2223 -0.4034
54140SOL    HW280031   5.347   0.757   8.380  0.3373 -0.4579  0.2913
54141SOL     OW80032   9.925   4.374   0.959  0.1920 -0.5882 -0.0513
54141SOL    HW180033   9.908   4.429   1.035 -0.0871  0.0296 -0.5474
54141SOL    HW280034   9.995   4.315   0.987  0.5228  0.0416  0.4854
54142SOL     OW80035   2.210   3.098   3.545 -0.2233  0.2437  0.6346
54142SOL    HW180036   2.173   3.056   3.622  0.6086  0.9827  1.4557
54142SOL    HW280037   2.162   3.060   3.472 -0.6259 -0.8959  1.4669
54143SOL     OW80038   0.933   0.184   6.252  0.8837  0.2919 -0.1301
54143SOL    HW180039   1.015   0.138   6.236  0.1478 -0.3593 -2.3065
54143SOL    HW280040   0.867   0.132   6.207 -0.6533  1.1482  1.0501
54144SOL     OW80041   1.962   3.362   2.553  0.4821 -0.0094  0.7083
54144SOL    HW180042   2.013   3.403   2.483  0.7386 -0.6592  0.5049
54144SOL    HW280043   1.969   3.269   2.536 -1.1134 -0.1014  0.4539
54145SOL     OW80044   4.350  12.246   4.897  0.1126 -0.3348 -0.2191
54145SOL    HW180045   4.286  12.306   4.858  0.5172  1.5801  1.8286
54145SOL    HW280046   4.423  12.246   4.836  0.1958  1.5181 -0.1808
54146SOL     OW80047   8.353  10.810   0.989  0.2001 -0.5462 -0.0907
54146SOL    HW180048   8.393  10.875   0.932 -0.4130  1.8343  1.9963
54146SOL    HW280049   8.408  10.811   1.068 -0.4331 -1.8070  0.3905
54147SOL     OW80050  10.350  13.879   3.175 -0.6620  0.2176  0.0308
54147SOL    HW180051  10.437  13.910   3.201 -0.0319 -1.5056  0.1439
54147SOL    HW280052  10.295  13.957   3.176  0.6882  1.2058  0.8110
54148SOL     OW80053   1.358   7.198  13.939 -0.4580  0.3141  0.4031
54148SOL    HW180054   1.436   7.230  13.892 -0.5206  1.3855  1.0130
54148SOL    HW280055   1.284   7.233  13.889 -0.5814 -0.8557 -0.2829
54149SOL     OW80056   0.701  13.814   2.884 -0.9026 -0.1426  0.2344
54149SOL    HW180057   0.695  13.718   2.887 -0.7270 -0.1906 -0.6933
54149SOL    HW280058   0.713  13.834   2.791  0.3457  0.7016  0.5576
54150SOL     OW80059   0.434   6.659   4.373  0.3685  0.0992  0.3694
54150SOL    HW180060   0.520   6.700   4.375  0.7934 -0.7452 -0.1756
54150SOL    HW280061   0.450   6.567   4.393 -0.3108 -0.2158 -0.4503
54151SOL     OW80062   7.187   5.057  13.167 -0.4196  0.3142 -0.1671
54151SOL    HW180063   7.094   5.036  13.163 -0.5257  0.8082 -0.4243
54151SOL    HW280064   7.219   5.043  13.077 -0.8884  2.9167 -0.8238
54152SOL     OW80065  11.430   6.537   3.236 -0.0958 -0.3064 -0.0448
54152SOL    HW180066  11.383   6.616   3.262  0.4603 -0.4688  1.5384
54152SOL    HW280067  11.446   6.490   3.318  1.2682 -1.1252 -0.7448
54153SOL     OW80068   2.316   8.707  11.954 -0.5144 -0.0467  0.2010
54153SOL    HW180069   2.366   8.746  11.883  1.9445 -0.3940  1.6241
54153SOL    HW280070   2.280   8.627  11.918  0.2924  0.0241 -0.7971
54154SOL     OW80071  13.579   6.056   8.022  0.0996  0.4482  0.7209
54154SOL    HW180072  13.606   6.148   8.028 -3.4208  1.5322  2.1449
54154SOL    HW280073  13.635   6.011   8.086  0.2972  2.0526  1.7457
54155SOL     OW80074  12.871   1.862  10.082 -0.3648 -0.2059 -0.1004
54155SOL    HW180075  12.868   1.811  10.002  1.1784  0.5105 -0.6547
54155SOL    HW280076  12.924   1.939  10.060 -0.7866  0.5402  1.3115
54156SOL     OW80077  12.124  11.620   6.278 -0.4124  0.3951  0.2984
54156SOL    HW180078  12.056  11.642   6.214 -0.1934  0.2308  0.0040
54156SOL    HW280079  12.083  11.555   6.336 -0.5022  0.2877  0.1136
54157SOL     OW80080  12.464   3.525  12.492  0.6907 -0.4561  0.2060
54157SOL    HW180081  12.400   3.460  12.461 -0.7962  0.3884  1.3997
54157SOL    HW280082  12.492   3.491  12.577  1.0420 -0.2710  0.1644
54158SOL     OW80083   4.051   9.322   5.964 -0.3735  0.3203 -0.6631
54158SOL    HW180084   4.111   9.281   5.900  1.6074  0.0502  1.2646
54158SOL    HW280085   4.086   9.410   5.976 -0.2028  0.0809  0.6554
54159SOL     OW80086   8.565   2.063   5.447 -0.3026  0.0008  0.0194
54159SOL    HW180087   8.474   2.033   5.440 -0.2853 -0.9915  2.8580
54159SOL    HW280088   8.558   2.155   5.474 -0.3795  0.6607 -2.0603
54160SOL     OW80089   2.083  12.666   3.183 -0.4029  0.1790  0.1171
54160SOL    HW180090   2.040  12.734   3.234 -2.0140 -0.2692 -0.5651
54160SOL    HW280091   2.083  12.589   3.240  1.0644  0.6254  0.7439
54161SOL     OW80092  13.534  13.681   3.355  0.0139  0.2921 -0.0370
54161SOL    HW180093  13.582  13.761   3.336 -3.0264  2.0002 -1.2299
54161SOL    HW280094  13.568  13.653   3.440  4.6649 -0.0941 -1.7376
54162SOL     OW80095  14.072   8.492  11.491 -0.1223 -0.1221 -0.0629
54162SOL    HW180096  14.150   8.437  11.479 -0.1992 -0.0981 -0.7011
54162SOL    HW280097  14.010   8.437  11.537  0.4576  0.0245  0.9148
54163SOL     OW80098   9.003   3.299  11.800 -0.0573  0.4145 -0.2380
54163SOL    HW180099   9.023   3.347  11.881  0.1413 -0.5690  0.3183
54163SOL    HW280100   9.019   3.362  11.730  2.6413  0.4670  0.3060
54164SOL     OW80101  12.374   8.055   7.928 -0.1206  0.0472  0.1308
54164SOL    HW180102  12.467   8.075   7.920 -0.3145  2.1295  2.2420
54164SOL    HW280103  12.333   8.103   7.856  0.2401  0.7342  0.3789
54165SOL     OW80104  10.825   8.256   4.154 -0.2462 -0.2366 -0.3002
54165SOL    HW180105  10.737   8.289   4.134 -0.6001 -1.4479 -0.8440
54165SOL    HW280106  10.884   8.318   4.111 -0.8414  0.2633 -0.4244
54166SOL     OW80107  11.076   4.367  12.505  0.3135 -0.2001 -0.1338
54166SOL    HW180108  11.054   4.432  12.572 -0.9805 -0.4431 -0.2826
54166SOL    HW280109  11.065   4.283  12.550 -1.7648 -0.4102 -0.9172
54167SOL     OW80110   4.903   2.435   7.611 -0.0197  0.6004 -0.1297
54167SOL    HW180111   4.995   2.425   7.585 -0.2034 -0.8664 -0.2766
54167SOL    HW280112   4.905   2.500   7.682  1.0492  1.0332 -0.5347
54168SOL     OW80113   3.499   0.874  12.985  0.1416 -0.3735  0.6670
54168SOL    HW180114   3.584   0.892  13.026  0.5846 -0.7250 -0.0742
54168SOL    HW280115   3.459   0.960  12.973  0.2912 -0.2241  1.2317
54169SOL     OW80116   9.188  13.024   9.589  0.4405  0.1353 -0.0099
54169SOL    HW180117   9.271  13.043   9.544  2.4135  0.8546  3.5215
54169SOL    HW280118   9.172  13.101   9.643 -1.3298 -0.9190  1.0644
54170SOL     OW80119   0.188  10.518   1.254  0.3447  0.3239 -0.1275
54170SOL    HW180120   0.138  10.593   1.222 -0.2207  0.2823  0.6235
54170SOL    HW280121   0.203  10.537   1.346  0.2061 -0.4802  0.0694
54171SOL     OW80122  11.655  10.536   2.172 -0.3080 -0.6185 -0.7141
54171SOL    HW180123  11.582  10.489   2.132  0.0913 -0.7215 -1.3346
54171SOL    HW280124  11.644  10.522   2.266  0.3518 -2.7634 -0.9053
54172SOL     OW80125  11.460   1.105   0.028 -0.1427 -0.5734  0.1487
54172SOL    HW180126  11.384   1.070   0.074 -0.5031 -0.1397 -0.1015
54172SOL    HW280127  11.454   1.200   0.040 -0.6267 -0.3880 -1.3293
54173SOL     OW80128   8.706   0.024  10.883  0.4906  0.4667  0.9324
54173SOL    HW180129   8.800   0.013  10.894  0.7598 -1.6690 -2.0294
54173SOL    HW280130   8.668  -0.052  10.927  0.3146  0.5202  0.8735
54174SOL     OW80131   6.175  11.057   9.810 -0.3616  0.1432 -0.5056
54174SOL    HW180132   6.201  11.099   9.892  0.9670  2.7222 -2.1375
54174SOL    HW280133   6.160  10.965   9.834 -1.7867  1.1267  2.9386
54175SOL     OW80134   3.042   7.495   1.114 -0.0896 -0.8248  0.2838
54175SOL    HW180135   3.107   7.550   1.071  0.4269 -0.6908  1.2066
54175SOL    HW280136   3.060   7.406   1.082  1.1971 -0.9479  1.2411
54176SOL     OW80137   7.558  12.067   1.158  0.4915  0.2090  0.5855
54176SOL    HW180138   7.638  12.098   1.200  1.4803  1.1915 -1.8317
54176SOL    HW280139   7.554  11.974   1.180  2.4447  0.0903  0.6032
54177SOL     OW80140   4.884   9.072   3.575  0.2256 -0.1934 -0.1384
54177SOL    HW180141   4.840   9.030   3.648 -1.3180 -0.9817 -1.4406
54177SOL    HW280142   4.900   9.161   3.605 -0.2718 -0.5263  1.1944
54178SOL     OW80143   9.766   0.619   6.474  0.0855 -0.1442  0.2187
54178SOL    HW180144   9.736   0.641   6.386 -0.0881  0.3423  0.3932
54178SOL    HW280145   9.833   0.552   6.461 -0.3942 -0.5478 -0.2423
54179SOL     OW80146  12.820   3.350   7.307  0.0888  0.3004 -0.0333
54179SOL    HW180147  12.881   3.321   7.240  1.8951  2.5572  0.5214
54179SOL    HW280148  12.865   3.333   7.390 -0.0002  2.0065  0.3905
54180SOL     OW80149  12.917  14.070   3.851 -0.1006 -0.1498  0.6831
54180SOL    HW180150  12.948  14.159   3.833 -0.1952  0.1107  1.7839
54180SOL    HW280151  12.857  14.051   3.779 -2.3550  1.7822  1.9138
54181SOL     OW80152   0.551  13.421  11.747  0.3108  0.1845 -0.0985
54181SOL    HW180153   0.568  13.451  11.837 -0.7683 -1.3442  0.6659
54181SOL    HW280154   0.506  13.337  11.758 -1.7250  0.9237 -2.0509
54182SOL     OW80155  12.384   5.044  12.998  0.1269 -0.0831  0.3250
54182SOL    HW180156  12.385   5.107  13.071 -0.4290 -0.4446  0.6566
54182SOL    HW280157  12.372   5.098  12.920 -1.2531  0.1821  0.6814
54183SOL     OW80158   1.339   6.773   0.423  0.4186  0.4985  0.2761
54183SOL    HW180159   1.433   6.768   0.405  0.5134  0.6352  0.7223
54183SOL    HW280160   1.332   6.755   0.517  0.0660  1.2579  0.3984
54184SOL     OW80161   5.702   5.549   1.807  0.6014 -0.3254 -0.3204
54184SOL    HW180162   5.750   5.468   1.821  1.6926  0.1773 -1.0136
54184SOL    HW280163   5.714   5.598   1.889  1.2322 -0.2314 -0.4638
54185SOL     OW80164  12.459  12.149   3.977 -0.3315 -0.0344  0.1633
54185SOL    HW180165  12.529  12.099   4.020 -0.3601 -0.8388 -0.6856
54185SOL    HW280166  12.466  12.124   3.884 -0.8443  0.9650 -0.1546
54186SOL     OW80167   4.331   3.329   0.420  0.6607 -0.4346 -0.1442
54186SOL    HW180168   4.322   3.365   0.332 -0.0150  0.0285  0.1018
54186SOL    HW280169   4.248   3.286   0.437  0.5505  0.0098  0.4914
54187SOL     OW80170  11.661   9.384   3.970 -0.5232 -0.5326 -0.2093
54187SOL    HW180171  11.744   9.343   3.946 -0.8051 -1.4497  0.3386
54187SOL    HW280172  11.609   9.313   4.009 -1.1354  0.2828  0.5019
54188SOL     OW80173   9.299  11.162   8.888 -0.1403 -0.2037 -0.6005
54188SOL    HW180174   9.302  11.103   8.813  0.0261  1.3589 -1.8831
54188SOL    HW280175   9.274  11.106   8.961  0.2769 -1.9000 -1.6845
54189SOL     OW80176  11.825   8.774   5.833 -0.1549  0.6984  0.3469
54189SOL    HW180177  11.879   8.696   5.821  0.3555  0.8540  1.5580
54189SOL    HW280178  11.801   8.773   5.926 -1.8910  0.8651 -0.0517
54190SOL     OW80179   2.066   9.026   7.365  0.1608 -0.0263  0.0621
54190SOL    HW180180   2.029   9.019   7.278  1.3920  0.0620 -0.4885
54190SOL    HW280181   1.993   9.055   7.420 -0.3593  1.1247 -1.1682
54191SOL     OW80182   3.612  14.080   7.286 -0.3797 -0.6140  0.2650
54191SOL    HW180183   3.591  14.047   7.199  0.8243 -2.3803  0.5736
54191SOL    HW280184   3.548  14.037   7.344 -0.2317 -0.6330  0.4165
54192SOL     OW80185  10.091   4.295  13.839 -0.1435  0.2773 -0.3064
54192SOL    HW180186  10.160   4.334  13.785  1.3988 -2.2081 -0.3074
54192SOL    HW280187  10.073   4.211  13.797  0.3865 -1.3198  2.4027
54193SOL     OW80188  12.920   6.139  10.446 -0.1606 -0.3931 -0.5744
54193SOL    HW180189  13.009   6.114  10.420 -0.0253 -1.6722  0.9955
54193SOL    HW280190  12.932   6.193  10.524 -0.7510 -0.3150 -0.5337
54194SOL     OW80191   5.183   4.318  12.259 -0.0330  0.5966  0.3170
54194SOL    HW180192   5.269   4.284  12.281  0.2156  0.2630 -1.0922
54194SOL    HW280193   5.200   4.394  12.203 -0.6382 -0.5217 -1.4553
54195SOL     OW80194  12.001  11.723   8.143 -0.2060  0.0120 -0.1680
54195SOL    HW180195  12.083  11.772   8.135 -0.5011  0.6965  0.8536
54195SOL    HW280196  11.951  11.770   8.210 -1.3117 -0.5755 -0.5514
54196SOL     OW80197   0.651   6.519   3.315  0.2612 -0.6407 -0.4026
54196SOL    HW180198   0.688   6.580   3.250 -1.3615 -0.0019 -0.7762
54196SOL    HW280199   0.717   6.516   3.385  0.1670  2.0242 -0.0951
54197SOL     OW80200   0.022  11.615   7.821 -0.4058 -0.1340 -0.0142
54197SOL    HW180201   0.065  11.543   7.867  0.7697  0.6327  0.1489
54197SOL    HW280202   0.065  11.618   7.736 -0.6404  0.1989 -0.1240
54198SOL     OW80203   1.877  10.436  12.051 -0.6158 -0.1223 -0.3206
54198SOL    HW180204   1.782  10.436  12.064 -0.7097  1.0894 -0.8486
54198SOL    HW280205   1.913  10.402  12.133 -1.4963 -0.5858 -0.1110
54199SOL     OW80206   1.567  11.819  11.855  0.1993 -0.3749 -0.1919
54199SOL    HW180207   1.543  11.743  11.803  0.4466 -0.6403  0.0804
54199SOL    HW280208   1.662  11.814  11.862  0.2316  0.0337 -0.2839
54200SOL     OW80209   2.859   3.344   2.520  0.4006  0.5946  0.3957
54200SOL    HW180210   2.952   3.323   2.513  0.4165  0.9665 -0.7083
54200SOL    HW280211   2.836   3.321   2.610  1.0352 -1.5785  0.0516
54201SOL     OW80212   3.775   0.105   7.955  0.2568  0.0099 -0.3879
54201SOL    HW180213   3.757   0.179   7.896  1.2521  1.0633  0.5926
54201SOL    HW280214   3.789   0.031   7.896  1.9566  1.1856 -1.5490
54202SOL     OW80215   9.115   5.368   1.001 -0.3971 -0.6279  0.2666
54202SOL    HW180216   9.118   5.429   1.075 -0.9279 -0.8456  0.4688
54202SOL    HW280217   9.096   5.423   0.925  1.6098 -0.1741  0.0271
54203SOL     OW80218   1.846  13.299   7.948 -0.1727 -0.1484  0.0512
54203SOL    HW180219   1.884  13.279   8.034 -1.0275 -1.0816  0.2270
54203SOL    HW280220   1.775  13.360   7.967 -2.0262 -2.2773  0.3655
54204SOL     OW80221  11.290   3.641   2.274 -0.1980 -0.5438 -0.0882
54204SOL    HW180222  11.313   3.550   2.292 -0.9169 -0.5258  1.0314
54204SOL    HW280223  11.320   3.689   2.351  2.9678  0.7069 -1.9281
54205SOL     OW80224  14.031   4.049  13.896  0.0275  0.7368 -0.7067
54205SOL    HW180225  14.122   4.036  13.924  0.2739 -0.0473 -1.7591
54205SOL    HW280226  14.033   4.130  13.845 -0.3749  2.0319  1.2305
54206SOL     OW80227   2.150   9.130   4.522  0.4087 -0.0789 -0.6482
54206SOL    HW180228   2.102   9.130   4.605  0.7867  1.7506 -0.3856
54206SOL    HW280229   2.220   9.066   4.536  0.0976 -0.2445  0.2306
54207SOL     OW80230   4.812   7.519   0.224 -0.4489 -0.2503  0.4462
54207SOL    HW180231   4.898   7.556   0.203 -0.9371  0.3952 -0.5101
54207SOL    HW280232   4.793   7.458   0.152 -1.1942  0.3312  0.1318
54208SOL     OW80233   0.066   0.325   1.974  0.2494 -0.7937  1.2811
54208SOL    HW180234   0.041   0.408   2.016 -1.5743 -0.1655 -0.8055
54208SOL    HW280235   0.155   0.340   1.943  0.2207  0.1036  1.5975
54209SOL     OW80236   2.992   6.284   1.781  0.3491  0.2609 -0.0317
54209SOL    HW180237   2.921   6.314   1.724 -1.8470 -0.6430  2.0486
54209SOL    HW280238   3.013   6.196   1.750 -0.6299 -0.1146  0.3358
54210SOL     OW80239  11.394   7.775   0.700  0.0497 -0.0088  0.0508
54210SOL    HW180240  11.420   7.686   0.673 -1.7075 -0.1870 -1.3157
54210SOL    HW280241  11.435   7.832   0.636  0.2687  0.0624  0.2550
54211SOL     OW80242   3.463  12.317   6.645  0.0631  0.8102 -0.2684
54211SOL    HW180243   3.407  12.362   6.708  0.7449  1.2747  0.0180
54211SOL    HW280244   3.413  12.240   6.619 -0.0457  0.3704  1.1881
54212SOL     OW80245   6.087   4.928  13.626  0.1149  0.1467 -0.4257
54212SOL    HW180246   6.132   4.933  13.542  1.3797  0.7351  0.2497
54212SOL    HW280247   6.151   4.887  13.684 -1.1566 -1.3211 -0.0004
54213SOL     OW80248   4.917   1.325   3.359 -0.0634 -0.4022 -0.4180
54213SOL    HW180249   4.900   1.239   3.322  0.9720 -0.9502  0.3238
54213SOL    HW280250   4.865   1.385   3.306 -1.8368 -1.6113 -0.1315
54214SOL     OW80251   3.487   0.395  14.026  0.2129 -0.1921  0.5958
54214SOL    HW180252   3.485   0.410  13.931 -1.1063  0.9250  0.7684
54214SOL    HW280253   3.574   0.425  14.053 -0.3718  2.2087  0.0998
54215SOL     OW80254   2.482  13.404   3.353 -0.6276  0.2701  0.2825
54215SOL    HW180255   2.538  13.383   3.278  2.7793 -0.0990  2.7260
54215SOL    HW280256   2.472  13.499   3.348  0.6044  0.4038 -0.0023
54216SOL     OW80257  11.524  13.567   7.058 -0.4129 -0.1136  0.0433
54216SOL    HW180258  11.549  13.552   7.149  0.6671  2.3081  0.2297
54216SOL    HW280259  11.462  13.640   7.061 -0.5135 -0.1211 -1.1516
54217SOL     OW80260   9.525   1.394   5.050 -0.4727 -0.4291  0.7330
54217SOL    HW180261   9.602   1.337   5.047 -0.4852 -0.5004  1.6837
54217SOL    HW280262   9.554   1.471   5.098 -1.1969 -0.7854  1.7737
54218SOL     OW80263  10.199   7.176  13.590  0.0152 -0.3004 -0.1739
54218SOL    HW180264  10.232   7.160  13.678  0.7427  0.7389 -0.2396
54218SOL    HW280265  10.104   7.176  13.599  0.0888  0.0983  0.6672
54219SOL     OW80266  11.938   1.860   9.910 -0.6536  0.3516  0.2713
54219SOL    HW180267  11.988   1.796   9.961  1.0084  1.1945 -0.2345
54219SOL    HW280268  11.925   1.818   9.825 -0.3451  0.3471  0.2277
54220SOL     OW80269   5.042   3.249   6.675 -0.3820 -0.0593  0.1399
54220SOL    HW180270   5.054   3.166   6.722  0.8232  0.4470  0.7741
54220SOL    HW280271   5.124   3.262   6.627 -0.4420  0.9007  0.2690
54221SOL     OW80272   7.149  12.670   7.890 -0.3018 -0.0673  0.1038
54221SOL    HW180273   7.232  12.679   7.844 -0.3156 -0.7694 -0.0807
54221SOL    HW280274   7.106  12.596   7.847 -0.2497 -0.8484  1.3418
54222SOL     OW80275   5.783  12.262   6.099 -0.3591  0.4392  0.2867
54222SOL    HW180276   5.755  12.243   6.188 -2.4703 -1.3124 -0.6782
54222SOL    HW280277   5.876  12.236   6.097 -0.4649 -0.1220  1.7797
54223SOL     OW80278   1.720  11.741   9.152  0.5997  0.2160  0.2419
54223SOL    HW180279   1.674  11.659   9.135  0.1828  0.7122 -1.0936
54223SOL    HW280280   1.674  11.807   9.100  0.9028  1.3178  1.3187
54224SOL     OW80281   2.891  12.642  13.794  0.1171  0.3476  0.1448
54224SOL    HW180282   2.797  12.646  13.812 -0.1715 -1.1921 -0.8797
54224SOL    HW280283   2.913  12.730  13.764 -1.1497  0.5345 -0.3107
54225SOL     OW80284   2.618  11.467  13.855 -0.5637 -0.4629 -0.0645
54225SOL    HW180285   2.698  11.460  13.802 -1.5482 -1.0422 -1.5310
54225SOL    HW280286   2.559  11.403  13.818 -1.9105  0.2958  0.6874
54226SOL     OW80287   9.271   9.063   0.852  0.6638  0.3667 -0.0936
54226SOL    HW180288   9.178   9.085   0.865  0.3186  0.0852 -1.8506
54226SOL    HW280289   9.300   9.031   0.938 -0.8238  0.6005  0.5295
54227SOL     OW80290   9.758   9.365  13.761  0.2162 -0.3871 -0.1480
54227SOL    HW180291   9.816   9.312  13.706  0.0949 -1.1550  0.4433
54227SOL    HW280292   9.701   9.410  13.699  1.3398  0.2669 -0.7367
54228SOL     OW80293   3.316   8.748   4.999 -0.0389 -0.3182 -0.3907
54228SOL    HW180294   3.397   8.724   4.954  0.8759  1.3593  0.2820
54228SOL    HW280295   3.334   8.834   5.037 -1.9822 -0.1203  0.1887
54229SOL     OW80296   5.339   3.431  13.719  0.1135 -0.2122 -0.1616
54229SOL    HW180297   5.326   3.405  13.627  0.6387  1.7587 -0.8328
54229SOL    HW280298   5.257   3.474  13.743  0.7159  1.0967 -0.3852
54230SOL     OW80299  11.641   0.023  13.948 -0.5644  0.3973 -0.3466
54230SOL    HW180300  11.733  -0.000  13.964 -0.7302 -0.9738 -1.2156
54230SOL    HW280301  11.627   0.001  13.856 -1.4029  1.9043 -0.6020
54231SOL     OW80302   1.905   0.944  12.206  0.0920 -0.0715 -0.5904
54231SOL    HW180303   1.945   1.018  12.161 -1.3916  0.8855 -0.3729
54231SOL    HW280304   1.975   0.910  12.262  0.3836  2.1523  0.5075
54232SOL     OW80305   2.205  12.812   8.763  0.3427  0.2931 -0.0581
54232SOL    HW180306   2.153  12.731   8.768  0.1632  0.4007 -0.1980
54232SOL    HW280307   2.289  12.788   8.801  0.1800  0.1250  0.1997
54233SOL     OW80308   2.544   6.523  13.560 -0.3670 -0.1969 -0.0625
54233SOL    HW180309   2.545   6.448  13.501 -0.3119  1.1966 -1.9208
54233SOL    HW280310   2.457   6.562  13.548 -1.1013 -0.9771  2.2860
54234SOL     OW80311   7.355   2.125  12.049 -0.5498 -1.2304 -0.0110
54234SOL    HW180312   7.329   2.039  12.081 -0.2279 -1.0944  0.6308
54234SOL    HW280313   7.444   2.114  12.015  1.2230 -0.3419  3.8346
54235SOL     OW80314   1.312  10.638   3.230  0.6271  0.7426  0.3419
54235SOL    HW180315   1.227  10.612   3.264 -0.5289  2.5400 -0.9825
54235SOL    HW280316   1.371  10.568   3.256 -1.3463 -0.8018  0.8751
54236SOL     OW80317  11.007  13.301   4.835  0.1426  0.3498  0.4473
54236SOL    HW180318  10.917  13.277   4.856  0.0799 -0.4187 -0.6184
54236SOL    HW280319  11.000  13.352   4.754  0.7349 -0.6368 -0.2472
54237SOL     OW80320   4.564   2.493   5.954 -0.3896 -0.1683  0.0702
54237SOL    HW180321   4.572   2.403   5.923  0.3148 -0.3708  0.8148
54237SOL    HW280322   4.530   2.484   6.043 -0.7429  0.3305 -0.0109
54238SOL     OW80323   8.156   8.732  11.635  0.3847  0.1354  0.1309
54238SOL    HW180324   8.194   8.726  11.547  0.1053  0.4443 -0.0142
54238SOL    HW280325   8.201   8.807  11.675  1.2307 -0.6065  0.6160
54239SOL     OW80326   6.926  13.592  13.593 -0.2041  0.0211  0.5554
54239SOL    HW180327   6.896  13.524  13.534  0.4278 -1.5632  1.9735
54239SOL    HW280328   6.891  13.566  13.679  1.6120  0.4302  1.4634
54240SOL     OW80329   5.637   0.023   8.506  0.1450  0.2148 -0.1556
54240SOL    HW180330   5.567   0.063   8.558  1.6715  1.4700  1.0570
54240SOL    HW280331   5.611   0.037   8.415 -1.8824 -0.7201  0.2389
54241SOL     OW80332  12.457   7.634  12.946  0.7744  0.0565  0.5481
54241SOL    HW180333  12.477   7.592  13.030 -0.7900 -0.4569  0.7096
54241SOL    HW280334  12.371   7.598  12.922  1.4224 -0.2101 -1.5505
54242SOL     OW80335  14.069   4.773   0.749 -0.0435  0.3527 -0.1116
54242SOL    HW180336  14.067   4.731   0.664 -0.6899  0.7773 -0.3164
54242SOL    HW280337  14.154   4.818   0.752 -1.0322  2.5187 -1.6373
54243SOL     OW80338   0.244   4.146  11.703 -0.2030 -0.0924 -0.2943
54243SOL    HW180339   0.317   4.179  11.756  1.1136 -1.7281 -0.9896
54243SOL    HW280340   0.174   4.210  11.715  0.0344 -0.3040  3.3596
54244SOL     OW80341   6.354  11.480   2.748 -0.0193 -0.3784 -0.2531
54244SOL    HW180342   6.344  11.565   2.790 -0.2306 -0.0140 -1.0165
54244SOL    HW280343   6.415  11.432   2.804 -0.6975 -0.1000  0.7342
54245SOL     OW80344   1.676  12.128   1.537 -0.5032  0.1930 -0.1997
54245SOL    HW180345   1.666  12.117   1.442 -0.7313  2.9322 -0.5665
54245SOL    HW280346   1.587  12.137   1.570 -0.5054 -1.8961  0.5119
54246SOL     OW80347   7.246   4.615   2.394  0.1193  0.5642  0.0748
54246SOL    HW180348   7.222   4.597   2.485  0.9890  1.5277  0.5111
54246SOL    HW280349   7.262   4.709   2.391  0.6596  0.4524 -0.9398
54247SOL     OW80350  11.389   0.318   8.368 -0.7171  0.3520  0.2263
54247SOL    HW180351  11.330   0.246   8.393 -3.3254  1.1858 -2.8257
54247SOL    HW280352  11.465   0.275   8.330 -0.7741 -0.7735  1.3238
54248SOL     OW80353   9.461   1.715   1.276  0.2466  0.3096 -0.3274
54248SOL    HW180354   9.432   1.667   1.198  0.3253  0.8566 -0.7006
54248SOL    HW280355   9.384   1.718   1.333  0.6537 -1.6176  0.4157
54249SOL     OW80356  10.988   4.127   7.178 -0.9725 -0.4696  0.9100
54249SOL    HW180357  10.976   4.032   7.178  0.7435 -0.7207  0.0982
54249SOL    HW280358  11.025   4.146   7.092 -5.1544  1.5499 -0.7284
54250SOL     OW80359   9.157  12.433   1.380 -0.1950 -0.4242  0.1632
54250SOL    HW180360   9.117  12.411   1.296  0.9041  0.7097 -0.6785
54250SOL    HW280361   9.093  12.403   1.445 -2.0262  0.5484 -1.1108
54251SOL     OW80362  11.566   3.736   6.709 -0.6773 -0.4746  0.2372
54251SOL    HW180363  11.606   3.710   6.626 -1.1634  1.3802 -0.6154
54251SOL    HW280364  11.585   3.663   6.768  0.7310 -1.2964 -1.1501
54252SOL     OW80365  10.518  12.450   8.074 -0.4039  0.1701  0.4195
54252SOL    HW180366  10.443  12.392   8.076 -2.4445  2.6147  0.1793
54252SOL    HW280367  10.505  12.510   8.148  1.7022  0.2707  0.7955
54253SOL     OW80368  13.533   6.637   0.015  0.0398 -0.3818  0.2013
54253SOL    HW180369  13.456   6.607   0.062 -0.1914 -0.4331 -0.2112
54253SOL    HW280370  13.597   6.566   0.024  0.2951 -0.0435  1.1444
54254SOL     OW80371   4.747  10.894  11.051 -0.1196  0.3785  0.5607
54254SOL    HW180372   4.762  10.933  10.965  0.9536 -0.7957  0.1804
54254SOL    HW280373   4.655  10.869  11.050  0.2542 -1.1446 -0.9409
54255SOL     OW80374   2.738  12.767   1.800 -0.6050 -0.0385  0.5780
54255SOL    HW180375   2.821  12.814   1.798 -0.5632 -0.0632  1.4014
54255SOL    HW280376   2.745  12.710   1.877 -1.0369 -0.6885  0.1465
54256SOL     OW80377  12.111   1.775   4.556  0.1329 -0.3060  0.9000
54256SOL    HW180378  12.113   1.749   4.465  0.2333 -0.8931  1.0685
54256SOL    HW280379  12.076   1.864   4.555  2.6722  0.7695  0.0623
54257SOL     OW80380   7.256   0.112   9.132 -0.1553  0.0089 -0.3065
54257SOL    HW180381   7.238   0.062   9.053  0.6519  0.5241 -0.8330
54257SOL    HW280382   7.307   0.052   9.187  1.1051  0.3240 -1.0764
54258SOL     OW80383  13.561   4.171   9.946  0.8194  0.0530 -0.0550
54258SOL    HW180384  13.642   4.222   9.934  0.1226  1.9512  2.4879
54258SOL    HW280385  13.534   4.189  10.036 -2.1801 -0.9568 -0.6327
54259SOL     OW80386  13.595   4.609   0.510  0.1143 -0.2771  0.2783
54259SOL    HW180387  13.626   4.699   0.522 -1.0493  0.0434  1.1054
54259SOL    HW280388  13.665   4.554   0.544  0.6807  0.3231  0.1136
54260SOL     OW80389  10.445   3.105   7.643  0.2459 -0.2328  0.2248
54260SOL    HW180390  10.418   3.156   7.720  0.1738 -1.0952  0.7781
54260SOL    HW280391  10.536   3.130   7.627  0.1565  0.1939  0.3846
54261SOL     OW80392  11.875   2.421   5.348  0.1766 -0.7111  0.4883
54261SOL    HW180393  11.913   2.339   5.317 -0.4029 -0.7674 -0.1140
54261SOL    HW280394  11.924   2.443   5.427  0.3712 -1.6100  0.6256
54262SOL     OW80395  10.873  11.859   4.889  0.3882  0.1305 -0.3521
54262SOL    HW180396  10.870  11.835   4.982  1.4758  1.1945 -0.0034
54262SOL    HW280397  10.789  11.900   4.872 -0.4222 -1.4109 -0.2621
54263SOL     OW80398   0.152   0.147  10.426  0.4513 -0.5150 -0.2540
54263SOL    HW180399   0.241   0.142  10.460  0.6673  3.4587  0.2497
54263SOL    HW280400   0.161   0.194  10.342 -1.1845  1.0235  0.3705
54264SOL     OW80401   6.724   9.884   4.757  0.3943  0.1731  0.1501
54264SOL    HW180402   6.781   9.827   4.705 -1.4530  0.3082 -2.1929
54264SOL    HW280403   6.751   9.973   4.732 -1.7081  0.2656 -2.2460
54265SOL     OW80404  12.435   6.770   3.017 -0.1400 -0.6400  0.2526
54265SOL    HW180405  12.360   6.809   2.973 -1.1222 -2.3349  0.3116
54265SOL    HW280406  12.503   6.769   2.950 -0.7710 -0.7659 -0.4092
54266SOL     OW80407   0.926   2.845  12.939  0.5526 -0.3392  0.2895
54266SOL    HW180408   0.916   2.884  12.852 -1.5492 -2.6779 -0.6449
54266SOL    HW280409   0.932   2.920  12.998  0.7104  1.3296 -1.7198
54267SOL     OW80410   8.142   3.493   4.247 -0.0082  0.3907  0.0232
54267SOL    HW180411   8.205   3.542   4.300  0.7822  0.4493 -0.9245
54267SOL    HW280412   8.119   3.417   4.300 -1.2069  1.7113  1.5069
54268SOL     OW80413   0.366   2.340   9.331  0.0228 -0.4473  0.0913
54268SOL    HW180414   0.277   2.356   9.360 -0.1442 -0.2252 -0.5300
54268SOL    HW280415   0.358   2.323   9.237  0.9393  2.5163 -0.6120
54269SOL     OW80416  13.395   6.651   8.484  0.2889 -0.0929 -0.2292
54269SOL    HW180417  13.454   6.642   8.559  0.3849  1.5822 -0.0503
54269SOL    HW280418  13.441   6.609   8.411 -0.0167 -2.1623  0.7175
54270SOL     OW80419   7.009   6.928   3.722 -0.1288 -0.2317  0.0536
54270SOL    HW180420   6.995   6.909   3.815  0.2348 -2.0042 -0.2327
54270SOL    HW280421   7.104   6.935   3.713 -0.2317  2.3409  0.2148
54271SOL     OW80422  11.838   5.286  10.593 -0.0916 -0.2222  0.1260
54271SOL    HW180423  11.926   5.264  10.622 -0.7481  1.0286  3.4991
54271SOL    HW280424  11.851   5.334  10.511  2.2996 -0.5409  0.2724
54272SOL     OW80425   2.116   6.948  13.706  0.4438  0.1390  0.0084
54272SOL    HW180426   2.139   6.859  13.678  0.6371  0.6688 -1.6278
54272SOL    HW280427   2.023   6.957  13.683  0.3649  0.2966  0.3744
54273SOL     OW80428  11.257   7.737   2.778  0.3004 -0.1253 -0.0305
54273SOL    HW180429  11.270   7.772   2.690 -0.1321  0.0494 -0.0271
54273SOL    HW280430  11.166   7.757   2.799  0.9275  1.6564  1.2666
54274SOL     OW80431   9.680  10.567   7.025  0.0861 -0.6115  0.6943
54274SOL    HW180432   9.682  10.499   7.092 -0.8041 -2.1683 -0.7770
54274SOL    HW280433   9.761  10.557   6.977  0.3627 -0.0108  1.0144
54275SOL     OW80434   4.947   8.560   5.479  0.0052  0.2067  0.1713
54275SOL    HW180435   4.901   8.540   5.561 -0.1570  0.2780  0.0968
54275SOL    HW280436   5.040   8.560   5.504  0.1551 -2.2400 -0.1228
54276SOL     OW80437  10.462  14.038   0.001  0.0140  0.7336 -0.0290
54276SOL    HW180438  10.492  14.124  -0.027 -0.1864  0.7562 -0.1738
54276SOL    HW280439  10.383  14.022  -0.051  0.2856  0.2814 -0.3064
54277SOL     OW80440   9.826   1.086   9.264 -0.2172  0.0287 -0.3955
54277SOL    HW180441   9.767   1.017   9.296 -0.4928  0.7386  0.6677
54277SOL    HW280442   9.914   1.055   9.286 -0.4214  0.7504  1.6526
54278SOL     OW80443   9.403   8.682   2.704 -0.2842 -0.1951 -0.0225
54278SOL    HW180444   9.377   8.616   2.768 -1.0051 -2.4706 -2.4895
54278SOL    HW280445   9.327   8.692   2.647 -0.5364  3.5374  0.7176
54279SOL     OW80446   6.239   8.373  13.759 -0.5628  0.0671  0.1861
54279SOL    HW180447   6.226   8.394  13.666  2.2183  3.3810  0.3581
54279SOL    HW280448   6.303   8.301  13.759 -1.7832 -1.0633 -0.3963
54280SOL     OW80449   8.894   1.856  11.302  0.1678 -0.0825 -0.2952
54280SOL    HW180450   8.973   1.898  11.337  1.2343 -0.5837 -1.9707
54280SOL    HW280451   8.885   1.891  11.214 -1.5389 -0.0082 -0.1247
54281SOL     OW80452   9.383  11.768   2.422 -0.2214  0.1939 -0.5015
54281SOL    HW180453   9.450  11.700   2.421  0.1936  0.6000 -0.4455
54281SOL    HW280454   9.301  11.721   2.403 -0.3797 -0.7830  2.1490
54282SOL     OW80455  11.662   4.157   4.156  0.2002 -0.6701 -0.3228
54282SOL    HW180456  11.584   4.213   4.157  1.4488  1.1497  0.7267
54282SOL    HW280457  11.632   4.075   4.117 -2.6165 -0.6121  1.4220
54283SOL     OW80458  10.928   5.453  10.675 -0.3024 -0.1914  0.6348
54283SOL    HW180459  10.903   5.525  10.733 -0.7917  0.2299 -0.0823
54283SOL    HW280460  10.985   5.494  10.610 -1.9133 -0.0703 -0.7735
54284SOL     OW80461   0.353   2.415   9.934 -0.2089 -0.1022 -0.0100
54284SOL    HW180462   0.427   2.425   9.994 -1.8986  0.0897  2.1628
54284SOL    HW280463   0.277   2.443   9.984 -2.1109 -2.4147 -1.3637
54285SOL     OW80464  11.703   6.578  10.414 -0.5989 -0.1831  0.0005
54285SOL    HW180465  11.691   6.597  10.507  0.1033 -1.8896  0.4797
54285SOL    HW280466  11.786   6.530  10.410 -1.0385 -0.8747 -1.4022
54286SOL     OW80467  10.737   8.955  13.122  0.0977 -0.1376 -0.8057
54286SOL    HW180468  10.650   8.968  13.160  0.0736 -1.8220 -0.1746
54286SOL    HW280469  10.749   8.860  13.122  0.4080 -0.2419 -4.4082
54287SOL     OW80470  10.844   7.693  13.567 -0.0113  0.0585 -0.3717
54287SOL    HW180471  10.806   7.701  13.654  1.6853 -2.9787  0.8068
54287SOL    HW280472  10.776   7.652  13.514  0.1409 -1.5050  0.5878
54288SOL     OW80473   0.134  10.618   6.890 -0.1600 -0.3655 -0.0346
54288SOL    HW180474   0.196  10.582   6.826 -0.0093  0.8706 -0.6311
54288SOL    HW280475   0.071  10.548   6.905  0.3530 -1.0158 -0.8134
54289SOL     OW80476   1.874  11.762   6.914  0.3783 -0.4880  0.4108
54289SOL    HW180477   1.957  11.801   6.888  0.5041 -0.0242  1.4630
54289SOL    HW280478   1.848  11.709   6.838  0.1934  1.5959 -1.0743
54290SOL     OW80479   5.482   8.542   3.390  0.1409 -0.6081  0.0779
54290SOL    HW180480   5.398   8.575   3.361  0.3917 -0.1784 -0.1707
54290SOL    HW280481   5.479   8.549   3.486  0.4999  0.9455  0.0051
54291SOL     OW80482  13.548  10.868   8.859  0.6222 -0.1426 -0.2467
54291SOL    HW180483  13.641  10.846   8.862  0.6502  0.0196  0.1023
54291SOL    HW280484  13.544  10.962   8.874  0.3182 -0.3571  1.1227
54292SOL     OW80485   3.306  12.095   3.547  0.0158 -0.0404 -0.0381
54292SOL    HW180486   3.222  12.064   3.580 -0.3452 -0.6530 -1.4437
54292SOL    HW280487   3.368  12.078   3.618 -1.0041  0.2840  0.9615
54293SOL     OW80488   4.221   0.101   1.951 -0.0680 -0.3367  0.0089
54293SOL    HW180489   4.278   0.026   1.966  0.2192 -0.4587 -1.5165
54293SOL    HW280490   4.133   0.068   1.963  0.0147 -1.1426 -1.3760
54294SOL     OW80491   5.820   8.017  13.198  0.5931  0.1469  0.0751
54294SOL    HW180492   5.837   7.951  13.265 -2.1524  0.2555  1.0087
54294SOL    HW280493   5.810   8.099  13.247  1.2178  0.7423 -0.7683
54295SOL     OW80494   7.780   0.543   1.413 -0.1172 -0.2929  0.3919
54295SOL    HW180495   7.787   0.448   1.416  3.1104 -0.1158  1.9614
54295SOL    HW280496   7.833   0.574   1.486 -2.8654  2.7205  1.3532
54296SOL     OW80497  12.741   4.016   0.855  0.2176 -0.0049  0.0745
54296SOL    HW180498  12.755   3.949   0.789 -0.6939  0.7437 -0.9169
54296SOL    HW280499  12.657   4.056   0.832  0.5989  1.2870  0.7994
54297SOL     OW80500   9.103  13.097   8.447 -0.1902 -0.1120  0.3322
54297SOL    HW180501   9.020  13.049   8.456  0.1534 -0.3323  3.3786
54297SOL    HW280502   9.171  13.031   8.462  0.4133  0.6321  0.9198
54298SOL     OW80503   3.944  11.485   5.864  0.4799  0.2447 -0.2466
54298SOL    HW180504   3.855  11.450   5.869  0.6404 -0.2102 -0.5241
54298SOL    HW280505   4.000  11.412   5.888  0.9058 -0.1808 -2.3567
54299SOL     OW80506   8.145   1.620  10.588 -0.6912 -0.1504 -0.3603
54299SOL    HW180507   8.165   1.714  10.589 -0.9141 -0.0615  1.9158
54299SOL    HW280508   8.062   1.613  10.635 -0.7829 -1.4854 -0.6856
54300SOL     OW80509   2.524  10.059   6.595  0.3150 -0.6968 -0.4281
54300SOL    HW180510   2.455  10.108   6.550  0.9073 -0.5339 -1.1923
54300SOL    HW280511   2.574  10.127   6.642  0.1492 -0.7755 -0.1371
54301SOL     OW80512   1.513   5.854  10.219  0.4840  0.3292 -0.4681
54301SOL    HW180513   1.445   5.912  10.184 -1.1662 -1.1566  0.1431
54301SOL    HW280514   1.571   5.913  10.268  0.3511  1.8030 -2.0035
54302SOL     OW80515   8.496   1.942  11.887  0.6686  0.7603  0.3420
54302SOL    HW180516   8.582   1.928  11.927  0.8274 -0.2392 -0.3307
54302SOL    HW280517   8.511   1.935  11.793 -0.5876 -2.2373  0.2560
54303SOL     OW80518   8.637   2.685   8.454 -0.3889 -0.2192 -0.3614
54303SOL    HW180519   8.567   2.702   8.391 -0.5993 -1.0639 -0.3626
54303SOL    HW280520   8.712   2.733   8.420 -0.9018  0.5114 -0.4813
54304SOL     OW80521  13.667  12.539   8.787 -0.1464 -0.5428 -0.5363
54304SOL    HW180522  13.631  12.489   8.714 -1.2839  0.6377 -0.8184
54304SOL    HW280523  13.639  12.491   8.865 -1.9630  0.0425 -0.7654
54305SOL     OW80524  10.915   1.417   1.441 -0.4737  0.3181 -0.1786
54305SOL    HW180525  10.898   1.324   1.452  0.4928  0.1601  0.1035
54305SOL    HW280526  10.828   1.457   1.435 -0.8968 -0.5987 -0.3619
54306SOL     OW80527   1.144   9.478   8.690  0.0762 -0.2899  0.9167
54306SOL    HW180528   1.107   9.558   8.653 -0.8243 -0.4498  1.4429
54306SOL    HW280529   1.218   9.508   8.743  0.2657  0.1007  0.4455
54307SOL     OW80530   4.237  13.660  10.368  0.5642  0.3452 -0.5786
54307SOL    HW180531   4.164  13.661  10.431 -0.6032  0.2550 -1.8775
54307SOL    HW280532   4.288  13.583  10.393 -2.1787 -2.1940 -2.1605
54308SOL     OW80533   6.183  13.434   0.718  0.2690  0.3887  0.4884
54308SOL    HW180534   6.246  13.493   0.759  0.7048  0.4317 -0.2318
54308SOL    HW280535   6.112  13.426   0.783  1.1394  0.1055  1.4318
54309SOL     OW80536  11.800   8.662  12.172  0.0786 -0.2338 -0.4930
54309SOL    HW180537  11.800   8.688  12.080 -0.4575  0.0754 -0.4073
54309SOL    HW280538  11.794   8.745  12.220  1.7976 -0.2745 -0.1407
54310SOL     OW80539  13.770   7.467  12.620  0.4708  0.2757 -0.0512
54310SOL    HW180540  13.790   7.374  12.627 -4.2075 -1.0036 -0.7959
54310SOL    HW280541  13.755   7.495  12.711 -0.3015 -0.2916 -0.0018
54311SOL     OW80542   3.483   1.095  12.659 -0.1934 -0.6539 -0.3091
54311SOL    HW180543   3.429   1.068  12.585  0.6953 -0.2621 -1.1262
54311SOL    HW280544   3.560   1.039  12.654 -1.0358 -2.0763  1.5878
54312SOL     OW80545  11.419  13.739   7.524  0.0510  0.1146 -0.1048
54312SOL    HW180546  11.466  13.668   7.567  1.5929  0.8121 -0.5547
54312SOL    HW280547  11.331  13.705   7.510  1.0491 -2.1789 -1.3800
54313SOL     OW80548  10.239   8.442  11.262 -0.5218 -0.4146  0.8938
54313SOL    HW180549  10.324   8.480  11.286  0.0349 -1.6912  1.0207
54313SOL    HW280550  10.224   8.472  11.172  0.3744 -0.6885  0.6422
54314SOL     OW80551   1.515   1.962   9.525 -0.0119  0.6319  0.0106
54314SOL    HW180552   1.569   2.008   9.590 -0.6186  0.2874  0.7700
54314SOL    HW280553   1.571   1.957   9.447  1.0919  0.2134  0.7975
54315SOL     OW80554  10.305   3.643  10.108 -0.1163  0.3067 -0.2321
54315SOL    HW180555  10.254   3.567  10.080 -0.6147  0.0578  1.2467
54315SOL    HW280556  10.395   3.622  10.082  0.0441 -1.5890  1.5353
54316SOL     OW80557   9.022   5.944  10.774 -0.7675 -0.0235 -0.3120
54316SOL    HW180558   9.087   6.015  10.776  0.2486 -0.9419  1.5468
54316SOL    HW280559   8.968   5.958  10.851 -1.2683 -0.6434 -0.5393
54317SOL     OW80560  13.370   7.170   8.214 -0.1010  0.7594  0.3486
54317SOL    HW180561  13.391   7.252   8.258  1.6132  0.1526  0.7850
54317SOL    HW280562  13.321   7.195   8.136 -1.8375  1.9836  1.7650
54318SOL     OW80563  10.052   7.548  14.062  0.6294  0.1945  0.5695
54318SOL    HW180564  10.008   7.468  14.033 -1.6339  2.0846 -1.6659
54318SOL    HW280565  10.014   7.567  14.147  0.1014 -0.3352  0.4599
54319SOL     OW80566  10.827   2.448   7.544  0.2973  0.2144 -0.6702
54319SOL    HW180567  10.891   2.457   7.614 -0.6159 -2.2546  0.5812
54319SOL    HW280568  10.746   2.485   7.580 -0.3011 -1.4997 -0.1573
54320SOL     OW80569  13.057   1.906  11.261 -0.0477  0.0994 -0.2580
54320SOL    HW180570  13.048   1.976  11.197  0.8431 -0.1451 -0.6681
54320SOL    HW280571  13.150   1.883  11.258 -0.3674 -1.2551 -0.2914
54321SOL     OW80572   5.821   0.032   4.339 -0.4904 -0.1039  0.3362
54321SOL    HW180573   5.830   0.115   4.293  0.0261  0.4509  1.3938
54321SOL    HW280574   5.830  -0.035   4.271 -0.3909  0.6951 -0.4475
54322SOL     OW80575   9.040  11.595   9.212 -0.3336 -0.3668 -0.2478
54322SOL    HW180576   9.087  11.675   9.189  0.7397 -1.0561 -0.5246
54322SOL    HW280577   9.101  11.524   9.191  0.2209 -1.1580  3.2672
54323SOL     OW80578   2.256  10.240   4.047  0.0361  0.3629 -0.3678
54323SOL    HW180579   2.303  10.174   3.997  0.1331  1.0037 -1.1462
54323SOL    HW280580   2.294  10.324   4.020  0.3928  0.7093  1.1134
54324SOL     OW80581   6.543   5.698  11.415  0.1311 -0.5905 -0.4040
54324SOL    HW180582   6.449   5.707  11.433  0.1727  0.7419 -0.7225
54324SOL    HW280583   6.549   5.626  11.353 -0.6084 -1.1710  0.1772
54325SOL     OW80584   0.453   7.648   3.440 -0.1487 -0.5368 -0.2534
54325SOL    HW180585   0.383   7.645   3.375 -0.6425 -0.2388  0.2576
54325SOL    HW280586   0.480   7.557   3.451  0.6772 -0.4850 -1.6556
54326SOL     OW80587   1.962  12.985  10.509  0.2037 -0.0737  0.1306
54326SOL    HW180588   2.013  12.919  10.556  1.0460 -0.0560 -0.7158
54326SOL    HW280589   2.004  12.991  10.423 -0.7127  0.5688 -0.2925
54327SOL     OW80590   8.866  12.027   5.589  0.1038  0.2130 -0.3345
54327SOL    HW180591   8.845  12.090   5.520  0.2822  0.6983  0.0561
54327SOL    HW280592   8.924  12.074   5.648 -2.4489  0.8349  1.8454
54328SOL     OW80593   7.965   6.655   4.756 -0.2564 -0.5736 -0.0332
54328SOL    HW180594   8.012   6.609   4.687 -0.0892 -1.8417  0.8921
54328SOL    HW280595   7.905   6.589   4.792 -0.6961  0.2079  0.6913
54329SOL     OW80596  13.447   2.761   2.027 -0.4165 -0.2862 -0.0879
54329SOL    HW180597  13.519   2.698   2.032 -0.4564 -0.5517 -1.9836
54329SOL    HW280598  13.393   2.743   2.104 -0.3311 -2.4543 -0.4773
54330SOL     OW80599   7.737  13.089   7.565 -0.4231  0.1676 -0.2720
54330SOL    HW180600   7.752  13.035   7.643  1.0581  0.9814  0.0458
54330SOL    HW280601   7.653  13.132   7.581  1.0605  2.4547  2.2170
54331SOL     OW80602   1.329  13.698   5.252  0.3091  0.0444 -0.4891
54331SOL    HW180603   1.308  13.664   5.339 -0.3219  0.0140 -0.6442
54331SOL    HW280604   1.420  13.673   5.237 -0.1869 -1.7902 -0.6810
54332SOL     OW80605   2.923   9.627   5.036  0.1953  0.1184 -0.1937
54332SOL    HW180606   2.830   9.611   5.049  0.5628 -1.3841  0.8414
54332SOL    HW280607   2.941   9.708   5.085 -0.6532  0.7524 -0.8961
54333SOL     OW80608   0.954   7.987  13.633  0.1923  0.1587  0.7859
54333SOL    HW180609   0.894   7.926  13.675  0.1378 -0.4894 -0.1934
54333SOL    HW280610   0.901   8.065  13.615  0.6568  1.2307  3.5352
54334SOL     OW80611   5.417  10.488   5.736 -0.0349 -0.0303 -0.0729
54334SOL    HW180612   5.461  10.548   5.796 -0.7593  0.8097 -0.3692
54334SOL    HW280613   5.336  10.532   5.712  1.0756  0.5878 -3.1691
54335SOL     OW80614   1.434  11.064  12.389  0.1575 -0.0299  0.3866
54335SOL    HW180615   1.356  11.009  12.385  0.5188 -0.6503  1.4202
54335SOL    HW280616   1.463  11.057  12.480  0.7264  1.1586  0.3158
54336SOL     OW80617  13.513   3.287  14.059  0.2138  0.6691 -0.1256
54336SOL    HW180618  13.504   3.383  14.056  0.9025  0.7110 -1.3831
54336SOL    HW280619  13.506   3.259  13.968 -1.4345 -0.6480  0.3532
54337SOL     OW80620   6.100   0.207  10.899  0.3547  0.3275  0.0285
54337SOL    HW180621   6.117   0.300  10.908  2.0714  0.0865 -0.2665
54337SOL    HW280622   6.131   0.168  10.981  0.8850 -0.1006 -0.3606
54338SOL     OW80623   7.034   1.566   5.163 -0.3349  0.1650 -0.2187
54338SOL    HW180624   7.098   1.518   5.215  0.0676  0.6584 -0.2538
54338SOL    HW280625   6.954   1.512   5.167 -0.4501  0.4115  1.2666
54339SOL     OW80626   2.923   1.455   1.379  0.0685 -0.6073  0.2989
54339SOL    HW180627   3.003   1.419   1.340  0.4625 -1.3883  1.7197
54339SOL    HW280628   2.853   1.401   1.343  0.2743 -0.4845 -0.2952
54340SOL     OW80629   7.996  13.208   4.630  0.4356 -0.1662 -0.2913
54340SOL    HW180630   8.014  13.196   4.537 -0.2963  0.6567 -0.5591
54340SOL    HW280631   7.933  13.280   4.632  0.4854 -0.1465  0.8466
54341SOL     OW80632   0.071   5.750  12.939 -0.0397 -0.4897 -0.6521
54341SOL    HW180633   0.080   5.696  12.860 -0.9224 -0.4579 -0.7932
54341SOL    HW280634   0.071   5.686  13.011 -0.9656 -0.6914 -0.8105
54342SOL     OW80635   6.597  12.782   7.385 -0.1505  0.1683 -0.1923
54342SOL    HW180636   6.521  12.729   7.363 -0.4266  0.5818 -0.2587
54342SOL    HW280637   6.581  12.811   7.475 -0.3501  0.7109 -0.3949
54343SOL     OW80638   9.243   1.064   4.607 -0.2861 -0.0071  0.0101
54343SOL    HW180639   9.188   1.064   4.685  1.3991  0.1821  1.2584
54343SOL    HW280640   9.196   1.118   4.544 -0.4913  2.0697  1.8079
54344SOL     OW80641   2.473   0.087   6.164 -0.0682  0.4783  0.5466
54344SOL    HW180642   2.432   0.074   6.250 -1.9606 -4.2363 -0.7305
54344SOL    HW280643   2.405   0.127   6.110 -0.3839 -0.3841  0.2861
54345SOL     OW80644   4.287   0.023   7.048  0.6384  0.0789  0.3505
54345SOL    HW180645   4.279   0.076   6.970  0.4811 -0.0725  0.2629
54345SOL    HW280646   4.372  -0.019   7.040  0.5886  0.0029  0.2230
54346SOL     OW80647   7.368   5.125   7.091  0.3348  0.3092  0.0520
54346SOL    HW180648   7.430   5.089   7.155 -1.0587 -0.4842  1.0214
54346SOL    HW280649   7.346   5.051   7.034 -0.4397  0.3251  0.3176
54347SOL     OW80650  13.060  11.213   0.301  0.4206  0.2827  0.1032
54347SOL    HW180651  13.049  11.280   0.233  0.5816 -0.2269 -0.4280
54347SOL    HW280652  13.092  11.262   0.377 -1.7076  1.1958  0.4863
54348SOL     OW80653   1.766  11.405   6.673 -1.5331  0.1330  0.0683
54348SOL    HW180654   1.744  11.326   6.623 -0.5004 -0.1581  0.0480
54348SOL    HW280655   1.687  11.424   6.723 -1.0346 -2.4202  2.0450
54349SOL     OW80656  10.045  13.195   3.789  0.1859 -0.0740  0.0713
54349SOL    HW180657   9.986  13.268   3.769  1.3184  0.7754 -0.2364
54349SOL    HW280658  10.078  13.167   3.703 -0.2228 -0.9526  0.1869
54350SOL     OW80659  10.281   8.182  12.303  0.7280 -0.7087  0.3172
54350SOL    HW180660  10.199   8.174  12.351 -0.1068  0.4490 -0.8392
54350SOL    HW280661  10.277   8.114  12.236  0.2928 -0.0955 -0.2917
54351SOL     OW80662   8.002   3.189   2.436 -0.0708 -0.0976  0.3393
54351SOL    HW180663   8.013   3.147   2.521  0.4694 -0.4361  0.1167
54351SOL    HW280664   7.944   3.129   2.388 -0.5755  0.2201  0.5512
54352SOL     OW80665   9.770   8.640   4.357  0.5349  0.2622 -0.2845
54352SOL    HW180666   9.733   8.672   4.275  0.1246 -0.3398 -0.3323
54352SOL    HW280667   9.834   8.707   4.381 -0.2033  1.0540 -0.4690
54353SOL     OW80668  13.485  10.739   1.060  0.0078  0.0269 -0.6454
54353SOL    HW180669  13.505  10.816   1.113  3.4928 -1.5287  0.6572
54353SOL    HW280670  13.407  10.701   1.099  0.3893  0.9378  1.0793
54354SOL     OW80671   2.638   5.797  11.002  0.0628  0.1052  0.0132
54354SOL    HW180672   2.621   5.890  11.016  0.3540  0.1586  0.0316
54354SOL    HW280673   2.728   5.784  11.033 -0.4187 -0.4509  1.2323
54355SOL     OW80674   8.463   7.235   3.273 -1.0721  0.6850 -0.8799
54355SOL    HW180675   8.421   7.164   3.224 -0.4541 -1.1078  1.0742
54355SOL    HW280676   8.415   7.240   3.355  1.1125  0.0256  0.5240
54356SOL     OW80677   4.323   0.719   7.235 -0.4452 -0.5651 -0.1295
54356SOL    HW180678   4.415   0.705   7.254 -0.6098 -1.5031 -0.0070
54356SOL    HW280679   4.323   0.773   7.156  0.2056 -1.4169 -0.7318
54357SOL     OW80680   8.897  10.185  13.494 -0.4784 -0.5000  0.2419
54357SOL    HW180681   8.941  10.118  13.440 -0.3277 -1.1197  1.1161
54357SOL    HW280682   8.945  10.265  13.475  0.2941 -0.9363  0.2848
54358SOL     OW80683  13.840   0.722   2.199  0.2529 -0.0126  0.5173
54358SOL    HW180684  13.871   0.723   2.109  0.5568 -1.1353  0.5877
54358SOL    HW280685  13.816   0.631   2.215 -1.5367  0.5113  0.9969
54359SOL     OW80686   2.321   6.412   5.434 -0.2693  0.1751  0.1226
54359SOL    HW180687   2.330   6.455   5.349 -0.1234 -0.7124 -0.3231
54359SOL    HW280688   2.232   6.432   5.462 -0.5626 -0.1272 -0.5782
54360SOL     OW80689   3.742   1.170   4.118  0.1129  0.2991 -0.1882
54360SOL    HW180690   3.832   1.196   4.098 -0.3390  1.1733 -1.2314
54360SOL    HW280691   3.745   1.074   4.123  1.5745  0.3806  2.4287
54361SOL     OW80692  10.086   3.894  11.406 -0.2049  0.6497 -0.3226
54361SOL    HW180693  10.069   3.985  11.427  0.3042  0.6679  0.0265
54361SOL    HW280694  10.154   3.867  11.468 -2.0502 -0.6733  1.2497
54362SOL     OW80695  13.482   3.554  14.024  0.0407 -0.0826  0.0557
54362SOL    HW180696  13.515   3.605  14.098  0.7883 -0.5713  0.0807
54362SOL    HW280697  13.387   3.564  14.027  0.0205 -0.5078  1.4007
54363SOL     OW80698   2.676   2.961   3.044 -0.5677 -0.7781 -0.4112
54363SOL    HW180699   2.632   3.043   3.067 -1.1470 -1.5528  1.4300
54363SOL    HW280700   2.768   2.985   3.035 -0.4749 -0.1502  1.6657
54364SOL     OW80701  10.024  13.433  12.208 -0.4009  0.2493  0.2161
54364SOL    HW180702  10.029  13.348  12.165  0.4125 -0.1232  1.0046
54364SOL    HW280703   9.932  13.460  12.198 -0.5072 -0.3996 -0.6290
54365SOL     OW80704   2.827   3.007   0.090  0.2314  0.2146 -0.0071
54365SOL    HW180705   2.899   2.944   0.087  0.1259  0.0918  0.0040
54365SOL    HW280706   2.784   2.991   0.174 -0.6128 -0.6244 -0.5764
54366SOL     OW80707   8.966  10.700   1.145  0.0345  0.2652  0.2848
54366SOL    HW180708   9.003  10.652   1.071 -0.2312 -1.7847  1.4172
54366SOL    HW280709   9.003  10.788   1.137  2.1345 -0.6419 -0.7861
54367SOL     OW80710   9.984   1.035   1.456  0.2709  0.0732  0.4785
54367SOL    HW180711   9.947   1.041   1.368  0.6311 -1.1372  0.2308
54367SOL    HW280712   9.909   1.049   1.514 -0.6326 -2.2766 -0.0188
54368SOL     OW80713   4.622  12.262  12.818 -0.1461  0.3406 -0.1997
54368SOL    HW180714   4.568  12.311  12.880 -0.2230  1.1434 -0.8817
54368SOL    HW280715   4.658  12.329  12.760 -1.4880 -0.5178 -2.1233
54369SOL     OW80716  14.068   3.671   1.099 -0.6986  0.2416 -0.1168
54369SOL    HW180717  14.136   3.737   1.087 -0.8026  0.8153  2.0346
54369SOL    HW280718  13.989   3.710   1.064 -0.4103  0.5424 -0.4374
54370SOL     OW80719   3.806   5.090   3.100 -0.2542  0.5813 -0.3680
54370SOL    HW180720   3.838   5.053   3.182 -1.3662 -0.3739 -0.3437
54370SOL    HW280721   3.809   5.184   3.114  1.6248  0.5065 -0.0353
54371SOL     OW80722  11.390   4.931  11.928  0.0452 -0.1652  0.5837
54371SOL    HW180723  11.476   4.965  11.903 -0.1115  1.0658  1.6193
54371SOL    HW280724  11.333   5.008  11.929 -1.0434 -0.9391  0.0744
54372SOL     OW80725   5.254   7.236  10.238  0.0882  0.5654  0.0442
54372SOL    HW180726   5.174   7.281  10.212 -0.1097 -0.3683 -1.0371
54372SOL    HW280727   5.311   7.241  10.161 -0.0302 -1.1799 -0.2099
54373SOL     OW80728  12.255   6.316  10.129 -0.5271  0.0211  1.1538
54373SOL    HW180729  12.333   6.352  10.085 -1.4622  0.7222  0.0170
54373SOL    HW280730  12.275   6.323  10.222  0.8888 -0.0893  0.8954
54374SOL     OW80731   9.891   7.435   8.465  0.5422  0.5045 -0.2220
54374SOL    HW180732   9.959   7.379   8.427 -0.8488 -0.7074 -0.9946
54374SOL    HW280733   9.855   7.483   8.391  0.0496  0.5889  0.0713
54375SOL     OW80734  11.310   2.126   5.712 -0.0859  0.0489  0.1117
54375SOL    HW180735  11.267   2.194   5.764  2.8888  2.0126  0.2202
54375SOL    HW280736  11.383   2.171   5.670  0.8849 -2.7177 -1.3586
54376SOL     OW80737   6.465   5.861  13.351  0.4640 -0.2291  0.1357
54376SOL    HW180738   6.514   5.782  13.328 -0.6310 -0.7145 -0.6571
54376SOL    HW280739   6.401   5.831  13.416  0.0260 -0.0151 -0.1878
54377SOL     OW80740   0.854   5.965  13.356 -0.1309  0.0145  0.5769
54377SOL    HW180741   0.921   6.027  13.326  0.0523  0.5817  2.0484
54377SOL    HW280742   0.899   5.913  13.423 -0.1168 -2.1360 -0.9688
54378SOL     OW80743  13.624   0.309   8.628  0.2618  0.1558  0.5533
54378SOL    HW180744  13.639   0.342   8.716  2.1152 -2.4491  1.3341
54378SOL    HW280745  13.711   0.293   8.592 -0.4597 -2.1537 -0.3632
54379SOL     OW80746   0.574   9.798  12.994  0.1098  0.2780  0.3794
54379SOL    HW180747   0.632   9.741  13.044  0.3816 -0.6896 -0.9832
54379SOL    HW280748   0.486   9.773  13.021  0.0975 -2.3709 -1.6904
54380SOL     OW80749  12.893   4.175   4.592  0.6451 -0.3281 -0.0806
54380SOL    HW180750  12.951   4.203   4.663 -0.5746  0.3371  0.6828
54380SOL    HW280751  12.923   4.087   4.571  1.4497 -0.2931  0.8150
54381SOL     OW80752   5.327   7.747   0.328 -0.1404 -0.1474 -0.3037
54381SOL    HW180753   5.352   7.809   0.259 -1.2777  0.3800 -0.2776
54381SOL    HW280754   5.372   7.665   0.304  0.6592  0.4340 -0.8430
54382SOL     OW80755   3.271   8.082  13.811  0.2919 -0.6358  0.1529
54382SOL    HW180756   3.193   8.047  13.855 -0.0478 -0.4141 -0.2718
54382SOL    HW280757   3.271   8.175  13.834  1.6104 -1.0184  1.9106
54383SOL     OW80758   4.849   3.010   1.341  0.0514 -0.1039 -0.2276
54383SOL    HW180759   4.782   3.072   1.315  0.1169  0.4569  0.8973
54383SOL    HW280760   4.807   2.955   1.407  0.4401 -0.2928 -0.1320
54384SOL     OW80761   7.973   2.891   8.184  0.0693 -0.1138 -0.2530
54384SOL    HW180762   7.996   2.962   8.245 -0.5402 -0.0182 -0.1328
54384SOL    HW280763   7.879   2.880   8.194 -0.3657  1.0317 -2.3410
54385SOL     OW80764   4.554   4.075   4.821 -0.4217 -0.0582  0.0692
54385SOL    HW180765   4.630   4.060   4.765 -0.2773 -0.8036  0.4501
54385SOL    HW280766   4.519   4.159   4.792  0.0791 -0.0865 -0.6435
54386SOL     OW80767  12.064   8.949   8.176  0.0022  0.3363 -0.2701
54386SOL    HW180768  12.120   8.962   8.100  0.4824  1.1595  0.2169
54386SOL    HW280769  12.048   9.037   8.211  0.9473 -0.1054  1.3979
54387SOL     OW80770   9.479   8.933   3.941 -0.3206 -0.2035  0.2335
54387SOL    HW180771   9.534   8.858   3.965 -0.3224  0.2625  1.8052
54387SOL    HW280772   9.459   8.919   3.848  0.9597 -1.3191  0.0907
54388SOL     OW80773  14.031   8.082   4.460 -0.1917  0.2559  0.1334
54388SOL    HW180774  14.066   8.060   4.374  1.1840  1.7226  0.2507
54388SOL    HW280775  14.058   8.009   4.516  0.4423  0.1160 -0.3360
54389SOL     OW80776   1.218  13.889   6.785 -0.6128 -0.3546 -0.1398
54389SOL    HW180777   1.172  13.967   6.817 -1.3064 -0.8170  0.0347
54389SOL    HW280778   1.150  13.821   6.783  0.3071 -1.3855  1.2716
54390SOL     OW80779   5.924   3.649   2.804 -0.1198  0.2735  0.0420
54390SOL    HW180780   5.908   3.579   2.868 -0.3060 -0.2622 -0.5845
54390SOL    HW280781   6.019   3.662   2.806 -0.0861  0.0186  0.1749
54391SOL     OW80782   5.593   0.396   8.353 -0.1622  0.0315 -0.6884
54391SOL    HW180783   5.506   0.427   8.329 -0.0621  0.4519 -0.5282
54391SOL    HW280784   5.596   0.306   8.322 -0.0869  0.5036 -2.1107
54392SOL     OW80785   3.709   3.787   8.180 -0.6342  0.5007 -0.1850
54392SOL    HW180786   3.685   3.714   8.123  0.2747  1.8163 -2.3593
54392SOL    HW280787   3.735   3.857   8.120  2.1643  1.3792  1.8401
54393SOL     OW80788   2.892  10.995  13.173  0.3463  0.0135  0.8260
54393SOL    HW180789   2.867  10.968  13.261 -0.3925 -1.1538  0.2765
54393SOL    HW280790   2.917  10.914  13.129 -0.4100  0.4020 -0.3840
54394SOL     OW80791   3.273   9.356  10.542  0.3561 -0.8895 -0.3063
54394SOL    HW180792   3.337   9.405  10.594 -1.4304  0.1040  1.0752
54394SOL    HW280793   3.283   9.390  10.453 -0.1183  1.3257  0.4149
54395SOL     OW80794  10.619   2.616  11.473  0.6832 -0.5307  0.0586
54395SOL    HW180795  10.546   2.558  11.453 -0.1758  1.0814 -1.7974
54395SOL    HW280796  10.593   2.659  11.555  0.5541 -1.5246  0.5452
54396SOL     OW80797   5.532  10.060   4.843  0.4499  0.4583 -0.4702
54396SOL    HW180798   5.621  10.083   4.872  0.6262 -0.4368 -0.2633
54396SOL    HW280799   5.543   9.977   4.796 -0.2984  0.2569 -0.3021
54397SOL     OW80800   3.327   2.653  10.704  0.1731  0.4287 -0.0119
54397SOL    HW180801   3.400   2.636  10.763 -0.3695 -0.2762  0.4813
54397SOL    HW280802   3.326   2.748  10.694  0.8852  0.4820  0.3194
54398SOL     OW80803  12.627  12.098   5.531  0.0980 -0.0363 -0.4104
54398SOL    HW180804  12.623  12.190   5.559 -1.2700 -0.5971  1.4250
54398SOL    HW280805  12.585  12.097   5.445 -1.7689  0.7774  0.4490
54399SOL     OW80806   4.502   3.421   2.869  0.0456 -0.1621  0.1451
54399SOL    HW180807   4.507   3.498   2.812 -0.1134 -0.0235  0.3169
54399SOL    HW280808   4.593   3.392   2.878  0.1581  0.2889  0.4634
54400SOL     OW80809  11.037   6.702   2.796  0.4511 -0.8955  0.5906
54400SOL    HW180810  10.980   6.731   2.868 -0.3434 -2.1876  0.5101
54400SOL    HW280811  11.044   6.778   2.739  0.3356 -0.1362  1.5532
54401SOL     OW80812  11.050   9.566   1.264  0.0019 -0.1540 -0.2925
54401SOL    HW180813  11.135   9.531   1.290 -0.0955  2.3110  4.4573
54401SOL    HW280814  11.070   9.651   1.225 -0.2268  0.4723  0.9228
54402SOL     OW80815   8.210   4.519  12.108 -0.0431  0.2835  0.5581
54402SOL    HW180816   8.244   4.430  12.115 -0.1276  0.1404 -0.6177
54402SOL    HW280817   8.221   4.556  12.196  0.8124 -0.5839  0.8362
54403SOL     OW80818  14.041   2.954   7.796  0.0548  0.0612  0.0596
54403SOL    HW180819  14.115   2.915   7.843 -1.1610 -1.1925  1.0208
54403SOL    HW280820  14.020   2.891   7.727  0.7869  1.1263 -1.1852
54404SOL     OW80821   0.428  12.115   0.125  0.2195 -0.6616 -0.7587
54404SOL    HW180822   0.344  12.137   0.082  0.2949  0.2716 -0.4442
54404SOL    HW280823   0.405  12.048   0.189 -0.0694 -1.3313 -1.5445
54405SOL     OW80824  12.677   7.760   3.897 -0.4322  0.1677  0.6369
54405SOL    HW180825  12.766   7.755   3.860 -0.7164  0.2677 -0.0757
54405SOL    HW280826  12.665   7.852   3.919 -0.9586  0.4677 -0.8106
54406SOL     OW80827  10.747  13.042   5.878  0.3855  0.1641 -0.2457
54406SOL    HW180828  10.729  13.116   5.936  0.0074 -1.2961  1.5783
54406SOL    HW280829  10.796  13.081   5.805  1.1540  2.0225  1.1729
54407SOL     OW80830  11.699   4.592   9.394 -0.0510  0.0121  0.5541
54407SOL    HW180831  11.758   4.586   9.319  0.0979  0.9793  0.5904
54407SOL    HW280832  11.694   4.685   9.415  0.5198 -0.3018  2.2453
54408SOL     OW80833   2.409   2.733   5.789 -0.3328 -0.0675 -0.1166
54408SOL    HW180834   2.446   2.780   5.864  1.3570 -0.0671 -0.8843
54408SOL    HW280835   2.419   2.641   5.811 -1.1839 -0.0710  0.2657
54409SOL     OW80836   5.983   0.175   5.347 -0.1223 -0.3606 -0.4198
54409SOL    HW180837   5.952   0.162   5.437  1.8446 -1.3643  0.1635
54409SOL    HW280838   5.908   0.151   5.293 -1.1765 -0.2803  0.9338
54410SOL     OW80839   4.737  12.671   8.390 -0.1557 -0.3825  0.1859
54410SOL    HW180840   4.754  12.675   8.484  1.8765 -0.0470 -0.1478
54410SOL    HW280841   4.725  12.577   8.372 -0.2877 -0.4736  0.7347
54411SOL     OW80842  13.724   6.074  13.442 -0.4936 -0.0494 -0.3511
54411SOL    HW180843  13.784   6.149  13.437 -0.4731 -0.0791 -0.5482
54411SOL    HW280844  13.708   6.063  13.536 -0.7012  0.3647 -0.3376
54412SOL     OW80845   9.470   1.365   2.644  0.1795 -0.2053 -0.1977
54412SOL    HW180846   9.375   1.375   2.639  0.1107 -0.4350  0.5909
54412SOL    HW280847   9.497   1.356   2.552 -0.4422  0.8569 -0.5060
54413SOL     OW80848   1.294   6.356   4.273  0.1164 -0.8044 -0.6876
54413SOL    HW180849   1.264   6.348   4.364 -2.9291 -0.8206 -1.5812
54413SOL    HW280850   1.386   6.329   4.276 -0.4671 -2.9798  2.0131
54414SOL     OW80851   9.399   4.510   2.095  0.3220 -0.1906 -0.0458
54414SOL    HW180852   9.385   4.470   2.009 -0.7694  0.5433 -0.2298
54414SOL    HW280853   9.429   4.438   2.150 -3.6650 -1.9289  0.2272
54415SOL     OW80854   5.026   7.683   8.669 -0.4293 -0.8252  0.0128
54415SOL    HW180855   4.946   7.730   8.692 -0.5104 -0.6917 -0.5362
54415SOL    HW280856   5.001   7.627   8.596 -0.3521 -1.7964  0.7160
54416SOL     OW80857  11.622   9.185   0.574 -0.4026  0.3418 -0.1242
54416SOL    HW180858  11.605   9.090   0.575  1.6953 -0.1975 -2.7137
54416SOL    HW280859  11.569   9.218   0.502  1.3713  0.4390 -1.4685
54417SOL     OW80860  12.153   7.261  11.405  0.1678  0.5310 -0.4843
54417SOL    HW180861  12.176   7.259  11.498 -1.1841 -0.3370 -0.1469
54417SOL    HW280862  12.212   7.327  11.368  1.7542 -0.1470  0.6880
54418SOL     OW80863   7.360   5.280   4.987 -0.3189  0.1666  0.9811
54418SOL    HW180864   7.380   5.267   4.895 -0.9857 -1.0405  0.9812
54418SOL    HW280865   7.355   5.191   5.023  0.3844  0.6335  2.2844
54419SOL     OW80866  13.858   2.385   7.480  0.0618  0.0230  0.0968
54419SOL    HW180867  13.817   2.428   7.405 -1.3591 -1.0512  0.2095
54419SOL    HW280868  13.796   2.396   7.551  1.6600  1.5493  1.3411
54420SOL     OW80869   7.877   3.040   3.323 -0.6268 -0.2071  0.5330
54420SOL    HW180870   7.785   3.061   3.306 -0.1364  0.9812 -0.9861
54420SOL    HW280871   7.896   2.967   3.265  0.3629  2.1615 -2.3997
54421SOL     OW80872   5.399   3.802   1.093 -0.6604 -1.0664 -0.2449
54421SOL    HW180873   5.474   3.769   1.143  0.1185 -0.0274 -0.6826
54421SOL    HW280874   5.337   3.832   1.160 -0.0699 -0.6282  0.1207
54422SOL     OW80875   4.017  11.587  11.275 -0.5112 -0.3211  0.5069
54422SOL    HW180876   3.928  11.555  11.292  0.3226 -1.7788  2.4568
54422SOL    HW280877   4.015  11.679  11.303 -2.1689  0.6833 -2.4639
54423SOL     OW80878  13.232   2.319   6.695  1.0555  0.0004 -0.1043
54423SOL    HW180879  13.301   2.301   6.759  0.6976  0.8226  0.5211
54423SOL    HW280880  13.275   2.371   6.628  1.0123  0.6539  0.3672
54424SOL     OW80881   5.571   2.590  14.006  0.5760  0.3509  0.8018
54424SOL    HW180882   5.657   2.550  14.011  0.8764  1.0685  1.5147
54424SOL    HW280883   5.543   2.576  13.916  0.5940 -1.6021  1.0481
54425SOL     OW80884   9.974   6.187   1.062 -0.1286 -0.0591  0.2781
54425SOL    HW180885   9.966   6.146   0.976 -0.6569  0.6380 -0.0167
54425SOL    HW280886   9.995   6.279   1.044 -0.1370  0.0715  0.8908
54426SOL     OW80887   0.531  12.110   4.845  0.4140 -0.0373  0.1911
54426SOL    HW180888   0.483  12.049   4.789  1.7493 -1.3235  0.3753
54426SOL    HW280889   0.583  12.054   4.902  0.9011  1.2807  1.0970
54427SOL     OW80890   1.240   5.153  10.744 -0.7214  0.1482 -0.0151
54427SOL    HW180891   1.245   5.185  10.654  0.1906  1.8095  0.5774
54427SOL    HW280892   1.215   5.061  10.736  3.5300 -1.0926 -2.2340
54428SOL     OW80893   5.612   8.521   7.439 -0.8692  0.6282 -0.1346
54428SOL    HW180894   5.692   8.539   7.487 -0.8752  1.7240 -0.5092
54428SOL    HW280895   5.617   8.428   7.418  0.3830  0.7086 -0.2806
54429SOL     OW80896   3.459   3.083   5.055 -0.4005 -0.2160 -0.1344
54429SOL    HW180897   3.519   3.145   5.095 -0.3776 -0.5179  0.3089
54429SOL    HW280898   3.511   3.038   4.988  0.3913 -1.6733  1.3718
54430SOL     OW80899   1.866  12.010   9.000  0.3215  0.2074 -0.0253
54430SOL    HW180900   1.906  11.924   8.989  0.4240 -0.0126  1.6725
54430SOL    HW280901   1.776  11.999   8.967  0.7653 -0.1133 -1.1748
54431SOL     OW80902  11.322  10.972   7.184  0.4629  0.0545  0.0611
54431SOL    HW180903  11.356  11.044   7.129  1.9998 -0.4168  0.3456
54431SOL    HW280904  11.351  10.893   7.139  0.1413 -0.3604  0.5808
54432SOL     OW80905   1.305   7.449  12.753 -0.0799 -0.4963 -0.1630
54432SOL    HW180906   1.229   7.391  12.747 -0.0010 -0.5957 -0.2109
54432SOL    HW280907   1.325   7.452  12.847  1.5496 -2.7000 -0.3548
54433SOL     OW80908   4.739  12.296  10.504  0.3783  0.0574  0.1594
54433SOL    HW180909   4.701  12.289  10.591  0.6681  3.6156  0.6967
54433SOL    HW280910   4.665  12.301  10.445  0.0791  1.5748  0.6418
54434SOL     OW80911   9.375  13.599   7.726  0.2207 -0.3987 -0.0947
54434SOL    HW180912   9.444  13.626   7.666 -1.5963  0.7151 -1.8255
54434SOL    HW280913   9.358  13.507   7.704  0.9441 -0.5968  0.1569
54435SOL     OW80914   3.540  12.859  13.820 -0.5863 -0.1106  0.1092
54435SOL    HW180915   3.560  12.798  13.891  1.3967  0.6568  0.2738
54435SOL    HW280916   3.451  12.888  13.838 -0.7403 -1.2309  1.3059
54436SOL     OW80917  11.300  10.662   9.835  0.3498  0.1545  0.3460
54436SOL    HW180918  11.299  10.756   9.816  1.3909  0.1782  0.3393
54436SOL    HW280919  11.296  10.620   9.749  1.7519  0.2313  0.2113
54437SOL     OW80920   1.674   7.338   0.481  0.5062 -0.6198  0.3547
54437SOL    HW180921   1.583   7.363   0.467  0.7201 -0.1627 -0.2224
54437SOL    HW280922   1.694   7.368   0.570  1.1091  2.3639 -0.7018
54438SOL     OW80923  13.600   6.990   8.326 -0.4154  0.0984  0.1704
54438SOL    HW180924  13.533   7.020   8.265 -1.0068  0.3070  0.9097
54438SOL    HW280925  13.586   6.896   8.333  1.2524 -0.3930 -1.9213
54439SOL     OW80926   7.103   0.036   3.771  0.5461 -0.5120 -0.3477
54439SOL    HW180927   7.142   0.079   3.695  1.1504 -0.0330  0.2168
54439SOL    HW280928   7.061   0.107   3.820  0.2845 -0.7930 -0.1591
54440SOL     OW80929   9.745   9.658   8.030  0.0608 -0.4169  1.0657
54440SOL    HW180930   9.717   9.570   8.057  0.5610 -0.8009  0.3628
54440SOL    HW280931   9.688   9.717   8.079 -0.5057 -1.1384  1.3015
54441SOL     OW80932   3.998  10.920   7.585  0.1244 -0.7081  0.1196
54441SOL    HW180933   3.909  10.947   7.560  0.5567  1.1910  0.5200
54441SOL    HW280934   4.004  10.938   7.678  0.3567 -2.6202  0.5317
54442SOL     OW80935   6.334   0.367  10.411 -0.9960  0.1388 -0.3226
54442SOL    HW180936   6.396   0.371  10.338 -3.4051 -2.5187 -2.7692
54442SOL    HW280937   6.274   0.440  10.397 -0.5797  0.5248 -0.1019
54443SOL     OW80938  13.681   0.657  10.070 -0.1356  0.2069 -0.8450
54443SOL    HW180939  13.701   0.607  10.150 -0.1635  0.6141 -0.5791
54443SOL    HW280940  13.761   0.653  10.019 -0.1099 -0.0396 -0.7856
54444SOL     OW80941  13.269  13.507  10.472  0.5175 -0.3271 -0.2381
54444SOL    HW180942  13.293  13.531  10.383 -0.6670  0.1827 -0.4342
54444SOL    HW280943  13.231  13.587  10.509  1.3761 -0.4069  0.8700
54445SOL     OW80944  12.684   0.352   5.152  0.3824  0.1077  0.5250
54445SOL    HW180945  12.720   0.413   5.087 -1.3594 -0.6923 -1.3171
54445SOL    HW280946  12.596   0.385   5.169  0.1040 -0.8294  0.9448
54446SOL     OW80947  12.934   9.606   8.976  0.3088 -0.0373  0.1310
54446SOL    HW180948  12.903   9.688   9.014 -1.4498  0.3343 -1.8977
54446SOL    HW280949  13.023   9.625   8.948 -0.4888  1.6433 -1.4573
54447SOL     OW80950  10.035  12.114   0.279 -0.2851 -0.6979  0.1420
54447SOL    HW180951  10.075  12.198   0.253 -2.7364  0.9402  1.2646
54447SOL    HW280952   9.970  12.097   0.211  0.9582 -2.3518 -0.6856
54448SOL     OW80953   7.176   0.841   7.837 -0.1135 -0.0096 -0.7205
54448SOL    HW180954   7.159   0.779   7.907  1.6810  2.3856  2.1140
54448SOL    HW280955   7.090   0.862   7.801 -0.9119 -2.6851 -0.5505
54449SOL     OW80956   4.838   1.395   8.100 -0.2484 -0.0560  0.8883
54449SOL    HW180957   4.778   1.321   8.090  0.0756 -0.0801 -1.3392
54449SOL    HW280958   4.801   1.464   8.045  1.1916  0.2950  0.3204
54450SOL     OW80959  10.056   1.868  13.438  0.0704  0.1397  0.1108
54450SOL    HW180960  10.122   1.902  13.498  0.7102  0.2254 -0.6186
54450SOL    HW280961  10.094   1.786  13.405 -1.2040 -1.0222  1.4317
54451SOL     OW80962   5.097   7.106   1.629  0.0350  0.2681 -0.4436
54451SOL    HW180963   5.120   7.027   1.581  0.4248  0.2658 -0.2605
54451SOL    HW280964   5.143   7.177   1.583  0.6900  0.2197  0.1221
54452SOL     OW80965   9.315   7.350   0.256  0.1596 -0.2406  0.1106
54452SOL    HW180966   9.245   7.310   0.309  1.1456 -0.0040  1.6404
54452SOL    HW280967   9.393   7.298   0.276  1.2797  1.8304  1.4747
54453SOL     OW80968   5.299  11.711   6.089 -0.1103  0.2336  0.0705
54453SOL    HW180969   5.345  11.713   6.005  0.4811  0.8905  0.3955
54453SOL    HW280970   5.255  11.627   6.090  2.5753 -1.2833  0.5293
54454SOL     OW80971  10.287  13.705   0.912 -0.1807  0.4358 -0.4289
54454SOL    HW180972  10.223  13.767   0.878  0.0022  0.6809 -0.3287
54454SOL    HW280973  10.265  13.696   1.004  0.2965  0.9823 -0.2542
54455SOL     OW80974   4.333   4.378   6.166 -0.0584 -0.1246  0.0010
54455SOL    HW180975   4.317   4.472   6.154 -0.9663 -0.3515 -0.7086
54455SOL    HW280976   4.410   4.360   6.113 -1.2716 -0.2020 -1.8396
54456SOL     OW80977   1.041   5.294   4.109  0.1289  0.3328  0.6251
54456SOL    HW180978   1.031   5.373   4.056  0.1340  0.5408  0.9263
54456SOL    HW280979   1.128   5.302   4.147 -0.6867  1.3088  2.4302
54457SOL     OW80980   6.635   0.090   7.774  0.2280 -0.1975 -0.0582
54457SOL    HW180981   6.688   0.155   7.819 -1.3275  1.4968 -0.5904
54457SOL    HW280982   6.605   0.133   7.694 -0.7485 -1.6121 -0.5064
54458SOL     OW80983   9.769   5.277   2.821 -0.3894  0.0958  0.1903
54458SOL    HW180984   9.678   5.308   2.820  0.3606  2.4988  0.1007
54458SOL    HW280985   9.807   5.314   2.741  1.4270  1.6818  1.7287
54459SOL     OW80986  11.371   6.704   6.937 -0.4815  0.2068 -0.1649
54459SOL    HW180987  11.403   6.794   6.928  0.4642 -0.1600 -0.6185
54459SOL    HW280988  11.411   6.657   6.863 -1.5105 -0.4391 -0.3405
54460SOL     OW80989   3.910   5.657  12.007  0.1962 -0.4336  0.0912
54460SOL    HW180990   3.842   5.605  12.049 -0.0229 -0.6028 -0.4655
54460SOL    HW280991   3.963   5.593  11.960  1.0221 -0.3601  0.8878
54461SOL     OW80992   6.668   6.491  13.265  0.0292 -0.0830 -0.1545
54461SOL    HW180993   6.763   6.481  13.265 -0.1245 -2.2908  1.0538
54461SOL    HW280994   6.645   6.511  13.175  1.6046  0.1363 -0.5280
54462SOL     OW80995  12.299  13.117   3.780 -0.6524  0.2312 -0.5016
54462SOL    HW180996  12.391  13.130   3.755 -0.3664  0.2233  0.5079
54462SOL    HW280997  12.298  13.034   3.827 -1.1939  0.1955 -0.5681
54463SOL     OW80998  10.641   7.353  12.229 -0.1384  0.2439  0.9602
54463SOL    HW180999  10.618   7.321  12.141  1.6287 -0.7972  0.8171
54463SOL    HW281000  10.591   7.434  12.239 -0.8182  0.0922 -0.7799
54464SOL     OW81001   1.871   8.588  11.686  0.2625 -0.1207  0.5371
54464SOL    HW181002   1.867   8.671  11.638 -2.0166 -0.7321 -0.4959
54464SOL    HW281003   1.929   8.533  11.633 -0.4959 -0.0770 -0.3719
54465SOL     OW81004  14.058   8.249   6.507  0.1505 -0.1337 -0.0131
54465SOL    HW181005  14.105   8.167   6.508  0.4103  0.0126 -0.2732
54465SOL    HW281006  14.042   8.269   6.600  3.1877  1.2969  0.3307
54466SOL     OW81007   6.961   1.487   6.995 -0.0875 -0.4447 -0.6360
54466SOL    HW181008   7.052   1.466   6.975  0.6248  2.4723 -0.8314
54466SOL    HW281009   6.956   1.484   7.091 -0.6790 -3.6101 -0.6532
54467SOL     OW81010  11.105   2.880   9.943 -0.2481  0.3735  0.1585
54467SOL    HW181011  11.091   2.793   9.980 -0.3789  0.5290  0.4820
54467SOL    HW281012  11.117   2.936  10.019 -0.4492  0.6885 -0.0407
54468SOL     OW81013  11.728  12.445  10.667  0.2483 -0.4378  0.3247
54468SOL    HW181014  11.771  12.515  10.617 -0.7411 -1.0522 -1.5105
54468SOL    HW281015  11.787  12.370  10.659  1.0323 -0.0071  1.8031
54469SOL     OW81016   2.128   0.370  11.279  0.3651  0.4383  0.6703
54469SOL    HW181017   2.111   0.277  11.261  0.9781  0.3613  0.4537
54469SOL    HW281018   2.214   0.371  11.320  1.3967  1.0899 -1.3603
54470SOL     OW81019   1.777   8.871   4.898 -0.0457  0.6542  0.9886
54470SOL    HW181020   1.800   8.953   4.942  0.1561  0.9193  0.3938
54470SOL    HW281021   1.684   8.881   4.876 -0.7859 -0.3867  3.3276
54471SOL     OW81022  10.529   5.693   4.188  0.1354 -0.0619 -0.0099
54471SOL    HW181023  10.497   5.781   4.170 -1.1451 -0.6402 -0.6608
54471SOL    HW281024  10.539   5.653   4.102  2.2706 -0.0619  0.1733
54472SOL     OW81025  11.288   0.725   4.233 -0.6967 -0.4975 -0.2233
54472SOL    HW181026  11.215   0.767   4.188 -0.4813  0.1629  0.0383
54472SOL    HW281027  11.304   0.779   4.310  0.3826 -0.3398 -0.5341
54473SOL     OW81028   6.948   7.128   6.478  0.2960 -0.5330 -0.3661
54473SOL    HW181029   6.999   7.205   6.504  0.2867 -0.8809  0.7405
54473SOL    HW281030   6.957   7.068   6.552  1.0500 -1.9771 -1.5652
54474SOL     OW81031   9.818  14.074   4.339  0.2619 -0.0739 -0.0648
54474SOL    HW181032   9.899  14.104   4.299  0.8385 -0.7631  0.5576
54474SOL    HW281033   9.784  14.009   4.277  0.4235 -0.1205 -0.1056
54475SOL     OW81034  10.777   3.698  10.776 -0.3382  0.4670 -0.0054
54475SOL    HW181035  10.740   3.658  10.855  1.0009 -1.6154 -0.3317
54475SOL    HW281036  10.813   3.781  10.805 -1.2577  0.4681  1.2154
54476SOL     OW81037  12.748   6.714   7.052  0.1326 -0.0225 -0.2700
54476SOL    HW181038  12.749   6.807   7.028  0.3581 -0.3591 -1.6457
54476SOL    HW281039  12.688   6.673   6.990 -0.0944 -0.7780  0.4282
54477SOL     OW81040   3.507   1.835   0.926 -0.5519  0.1911  0.1368
54477SOL    HW181041   3.581   1.866   0.977 -1.2041 -0.3193  1.4219
54477SOL    HW281042   3.440   1.902   0.936 -1.0190 -0.3544  0.7565
54478SOL     OW81043  13.148   9.306   3.284 -0.4441 -0.2766  0.1013
54478SOL    HW181044  13.067   9.265   3.253 -0.0910 -0.5099 -0.5264
54478SOL    HW281045  13.134   9.400   3.271 -1.3084 -0.1446  1.6708
54479SOL     OW81046  14.069   7.899   9.971 -0.0672 -0.0778  0.2215
54479SOL    HW181047  14.163   7.888   9.964 -0.0542  0.9119 -1.7276
54479SOL    HW281048  14.057   7.986  10.010 -0.2175 -0.7317  1.7278
54480SOL     OW81049   4.354   2.061   8.555  0.1800 -0.6085  0.0212
54480SOL    HW181050   4.283   2.120   8.530  0.2119 -1.4077 -2.1986
54480SOL    HW281051   4.387   2.097   8.637 -1.3466  1.0492 -0.0180
54481SOL     OW81052   3.040   9.986   6.114  0.1612  0.2735 -0.0927
54481SOL    HW181053   3.133   9.993   6.092 -0.3001  1.0851 -1.9803
54481SOL    HW281054   3.030   9.896   6.147  1.4930 -0.0429 -0.4937
54482SOL     OW81055  11.427  11.989   2.943 -0.1141  0.2533  0.0392
54482SOL    HW181056  11.429  12.037   3.026 -0.6623  1.2385 -0.4951
54482SOL    HW281057  11.519  11.977   2.919  0.0659 -0.4154  0.9765
54483SOL     OW81058   8.471  12.520   6.587 -0.1538 -0.1241  0.6659
54483SOL    HW181059   8.433  12.547   6.670 -1.3917  0.3396 -0.0382
54483SOL    HW281060   8.560  12.557   6.588 -0.9888  2.0242  0.7505
54484SOL     OW81061  13.485   0.827   3.230 -0.2800  0.2797 -0.2960
54484SOL    HW181062  13.433   0.886   3.175  0.1015  1.6598  0.7860
54484SOL    HW281063  13.512   0.880   3.305  0.7970 -1.0390  0.3022
54485SOL     OW81064   2.419   0.334   7.311 -0.2703  0.2839  0.0463
54485SOL    HW181065   2.443   0.259   7.365  0.8590  1.0735  0.7046
54485SOL    HW281066   2.468   0.320   7.229 -1.2395 -0.4358 -0.4246
54486SOL     OW81067   3.319   1.698  10.630  0.0374  0.5548  0.6770
54486SOL    HW181068   3.227   1.673  10.627  0.2355 -0.1276 -0.7428
54486SOL    HW281069   3.365   1.622  10.593  0.9892  1.6641 -0.4909
54487SOL     OW81070   2.372   3.775   9.639  0.0916  0.7774  0.2633
54487SOL    HW181071   2.455   3.733   9.658  0.4559  1.7017  0.7625
54487SOL    HW281072   2.363   3.843   9.705 -0.6444  1.2711 -0.3247
54488SOL     OW81073   1.755  13.025   2.396  0.1359  0.4336  0.0837
54488SOL    HW181074   1.737  12.951   2.454  0.3689 -0.5299 -1.0150
54488SOL    HW281075   1.801  13.088   2.451 -0.1497 -0.1940  1.0774
54489SOL     OW81076   6.564   5.127   0.880  0.0793  0.3263 -0.1505
54489SOL    HW181077   6.557   5.081   0.796  0.3735 -0.0986  0.0575
54489SOL    HW281078   6.473   5.144   0.905  0.0018  1.2938 -1.0076
54490SOL     OW81079   6.499   2.129   0.208  0.8356 -1.0024  0.2432
54490SOL    HW181080   6.405   2.125   0.222  0.9054  0.1267  1.2180
54490SOL    HW281081   6.529   2.039   0.216 -0.3273 -1.6129 -1.5752
54491SOL     OW81082   5.695   7.031   7.658  0.1484  0.1429  0.0514
54491SOL    HW181083   5.639   7.005   7.731  0.0680 -0.2184 -0.1332
54491SOL    HW281084   5.747   7.104   7.692 -0.0598  0.1365  0.3907
54492SOL     OW81085   4.369  13.760   9.605  0.7053  0.2963  0.3212
54492SOL    HW181086   4.464  13.772   9.602  0.6063  0.9101 -1.6710
54492SOL    HW281087   4.355  13.669   9.577  0.7143  0.0136  1.2012
54493SOL     OW81088   4.201   7.755   3.495 -0.0980  0.1948 -0.3718
54493SOL    HW181089   4.171   7.838   3.458  0.9491 -0.3381 -2.5419
54493SOL    HW281090   4.123   7.718   3.536 -1.1699  1.1458 -1.4787
54494SOL     OW81091   9.390  10.528  11.830 -0.0597 -0.0287 -0.5498
54494SOL    HW181092   9.332  10.541  11.755  1.0745  0.4890 -1.3789
54494SOL    HW281093   9.352  10.456  11.878 -1.7078  0.6775 -0.7343
54495SOL     OW81094  10.970   3.692   0.912 -0.4735  0.1082  0.1633
54495SOL    HW181095  11.030   3.757   0.948 -0.5732 -0.1030  0.7222
54495SOL    HW281096  11.008   3.668   0.828 -0.7657  1.3353 -0.3267
54496SOL     OW81097   6.258  10.297   3.965  0.0673 -0.4200 -0.2945
54496SOL    HW181098   6.244  10.341   4.049 -0.0049 -1.2056  0.1171
54496SOL    HW281099   6.251  10.203   3.985  2.4179 -0.7489 -0.7099
54497SOL     OW81100   8.870   7.091   0.460 -0.2447 -0.6169  0.6163
54497SOL    HW181101   8.860   7.150   0.534  2.6359 -1.6207  1.9576
54497SOL    HW281102   8.878   7.004   0.499 -2.2924 -1.7083 -1.1764
54498SOL     OW81103   3.140  10.223  12.889  0.1541  0.5377  0.7418
54498SOL    HW181104   3.097  10.213  12.805 -1.1123  1.3178  1.2776
54498SOL    HW281105   3.128  10.315  12.912  0.0809  0.2412  1.9770
54499SOL     OW81106  12.946  11.544  11.035 -0.1872  0.3280 -0.1978
54499SOL    HW181107  13.023  11.578  11.081  0.0724 -0.2656 -0.1949
54499SOL    HW281108  12.928  11.610  10.967  0.8754  0.0414 -0.7859
54500SOL     OW81109   8.830   5.391   0.269  0.1613  0.1720  0.6435
54500SOL    HW181110   8.818   5.485   0.254  1.9315  0.5726  1.3909
54500SOL    HW281111   8.818   5.379   0.363  2.1572  0.1130  0.9469
54501SOL     OW81112   8.911  10.631   4.718 -0.3339 -0.0068  0.2883
54501SOL    HW181113   8.911  10.721   4.752 -0.7738  0.2586 -0.3965
54501SOL    HW281114   8.867  10.581   4.787  0.2919  0.2169  0.8678
54502SOL     OW81115   2.423   4.156   3.151  0.2598  0.1019  0.3200
54502SOL    HW181116   2.348   4.173   3.208  0.0376 -1.7346  0.6449
54502SOL    HW281117   2.397   4.194   3.067 -1.4587 -1.2034  0.1861
54503SOL     OW81118   1.441  12.388  10.228 -0.5650 -0.0619  0.3510
54503SOL    HW181119   1.476  12.468  10.189 -1.4794  0.9528  1.5167
54503SOL    HW281120   1.425  12.330  10.153  1.5381  0.2160 -0.3910
54504SOL     OW81121   8.218  12.557  10.943 -0.7865  0.5990  0.0655
54504SOL    HW181122   8.238  12.611  10.867  2.2555 -0.3588  0.0743
54504SOL    HW281123   8.212  12.468  10.908 -1.0659  0.3542  0.7170
54505SOL     OW81124   6.232  10.348   0.316  0.3769  0.0041  0.2240
54505SOL    HW181125   6.307  10.310   0.361 -1.1883 -2.0209  1.2723
54505SOL    HW281126   6.156  10.315   0.363 -1.2750  0.3137 -2.0296
54506SOL     OW81127   5.246  11.910   9.325 -0.1926  0.4131  0.6704
54506SOL    HW181128   5.202  11.870   9.250  0.8540  0.4850 -0.0001
54506SOL    HW281129   5.205  11.869   9.401 -2.3266  1.4273  0.1455
54507SOL     OW81130   5.593  13.869   0.641 -0.6770  0.3233  0.2452
54507SOL    HW181131   5.563  13.890   0.729 -0.6690  1.6664 -0.0561
54507SOL    HW281132   5.589  13.952   0.594 -2.1090 -0.6713 -1.4574
54508SOL     OW81133   8.280   2.022   1.367  0.2848 -0.1043  0.4367
54508SOL    HW181134   8.261   2.066   1.284  2.0220  0.4080  0.2661
54508SOL    HW281135   8.280   1.929   1.345  1.9288  0.0718 -0.4456
54509SOL     OW81136  10.497  12.472   3.220  0.4603  0.0243  0.4861
54509SOL    HW181137  10.492  12.495   3.127 -1.1150 -0.0184  0.5329
54509SOL    HW281138  10.581  12.428   3.229  0.8526  0.4520 -0.8237
54510SOL     OW81139   4.593  14.011   4.734 -0.1947  0.2773  0.4675
54510SOL    HW181140   4.589  14.037   4.826  0.2153 -1.7495  1.1122
54510SOL    HW281141   4.505  14.027   4.701 -0.3067  1.1710  1.1582
54511SOL     OW81142   5.531  10.249   3.026  0.2530 -0.2076  0.7924
54511SOL    HW181143   5.552  10.191   2.952  0.4236 -1.1287  1.5415
54511SOL    HW281144   5.439  10.228   3.046 -0.2409  1.0465 -0.0251
54512SOL     OW81145   9.880   8.425   2.254 -0.0088 -0.7094  0.2634
54512SOL    HW181146   9.862   8.507   2.207 -0.2928 -1.4002 -0.8657
54512SOL    HW281147   9.956   8.387   2.210  1.2104 -0.2512  1.8705
54513SOL     OW81148  11.421   5.412  10.472 -0.2686  0.0470  0.7309
54513SOL    HW181149  11.462   5.482  10.423 -2.7531  1.2706  0.2223
54513SOL    HW281150  11.445   5.428  10.563 -1.1306  1.8823  0.6780
54514SOL     OW81151   0.290   8.887   6.554 -0.1689 -0.1174 -0.0367
54514SOL    HW181152   0.352   8.948   6.515 -0.4569 -0.1548 -0.5661
54514SOL    HW281153   0.315   8.882   6.646  0.0749  0.5260 -0.0676
54515SOL     OW81154   8.486   3.927   7.622  0.0652 -0.1646  0.3618
54515SOL    HW181155   8.526   3.911   7.708  0.7536  0.2936  0.1339
54515SOL    HW281156   8.523   3.860   7.565  0.7174  0.4213  0.0890
54516SOL     OW81157  12.090  13.678  13.599  0.1549 -0.5498 -0.0498
54516SOL    HW181158  12.124  13.759  13.560 -0.4550 -0.1569  0.2259
54516SOL    HW281159  12.145  13.609  13.561  0.5990 -0.0251 -0.3880
54517SOL     OW81160   6.129  10.144  12.316  0.2808 -0.0589 -0.1520
54517SOL    HW181161   6.075  10.126  12.392 -1.2305 -1.8311 -1.5286
54517SOL    HW281162   6.083  10.101  12.243  2.7832 -0.3973 -1.6670
54518SOL     OW81163   0.847   8.347   6.348  0.2748  0.3773 -0.0429
54518SOL    HW181164   0.814   8.363   6.260 -0.7614  0.5174  0.3517
54518SOL    HW281165   0.940   8.366   6.343  0.3326 -0.1299 -1.2348
54519SOL     OW81166   6.651   7.090   9.012 -0.1678 -0.7479  0.3935
54519SOL    HW181167   6.738   7.053   9.007 -0.8181 -2.3975  0.7382
54519SOL    HW281168   6.649   7.137   9.096  1.2344  1.6981 -0.8479
54520SOL     OW81169   3.946   9.256  13.739 -0.0561  0.4021  0.2593
54520SOL    HW181170   3.873   9.231  13.682 -1.4694  4.6591 -0.1194
54520SOL    HW281171   4.000   9.314  13.687  2.1529 -0.4800  1.4278
54521SOL     OW81172   1.862  13.991   7.773 -0.3724  0.2438 -0.1611
54521SOL    HW181173   1.925  14.054   7.808 -0.7205  0.7826 -0.4796
54521SOL    HW281174   1.810  14.042   7.711  0.0042 -0.6035 -1.1978
54522SOL     OW81175   9.078   1.850   7.678 -0.1235 -0.3598 -0.0406
54522SOL    HW181176   9.145   1.842   7.609 -0.0047 -2.1609  0.2328
54522SOL    HW281177   9.024   1.772   7.667 -0.1969 -0.5990  1.7908
54523SOL     OW81178  11.316   7.963  11.056  0.0928 -0.0847 -0.0798
54523SOL    HW181179  11.280   7.947  10.968  0.1756 -1.8512  0.1547
54523SOL    HW281180  11.253   7.922  11.115  1.2459 -1.1312  0.4920
54524SOL     OW81181  11.166   5.387   2.095 -0.0168  0.3714  0.2333
54524SOL    HW181182  11.155   5.307   2.043 -2.8051  0.9959 -0.2785
54524SOL    HW281183  11.209   5.448   2.036  1.0752 -0.3435  0.2491
54525SOL     OW81184   9.328  12.139  12.852  0.3359  0.0656 -0.5911
54525SOL    HW181185   9.387  12.089  12.796  2.5927  0.6294  1.1265
54525SOL    HW281186   9.314  12.084  12.929 -1.3733 -0.0165 -0.9192
54526SOL     OW81187   5.271   5.637  12.953  0.0008  0.4749  0.0280
54526SOL    HW181188   5.326   5.608  12.880 -1.1844  0.1895 -0.7817
54526SOL    HW281189   5.224   5.558  12.980 -0.3214  0.7987  0.4314
54527SOL     OW81190   8.057   7.527   0.794 -0.8780 -0.4038  0.3374
54527SOL    HW181191   8.145   7.563   0.805 -0.1244 -0.6863 -3.3219
54527SOL    HW281192   8.070   7.432   0.791 -1.6997 -0.6045  1.9985
54528SOL     OW81193  11.806   7.895   0.292  0.1220  0.0514 -0.1828
54528SOL    HW181194  11.805   7.975   0.239  0.2731 -0.8868 -1.6518
54528SOL    HW281195  11.715   7.866   0.292  0.1063  0.0962  0.1678
54529SOL     OW81196   3.105   5.690   0.750 -0.1959  0.6110  0.0184
54529SOL    HW181197   3.076   5.684   0.841  1.0767  1.7580  0.5264
54529SOL    HW281198   3.200   5.695   0.755 -0.1538  1.8155 -1.2911
54530SOL     OW81199  11.364   1.121   3.320  0.0412 -0.2988 -0.0580
54530SOL    HW181200  11.327   1.088   3.238  0.5708 -0.9027 -0.0583
54530SOL    HW281201  11.338   1.214   3.323  0.0496 -0.2684 -0.9150
54531SOL     OW81202   9.309   5.965   3.414  0.2010  0.1137 -0.2259
54531SOL    HW181203   9.272   6.052   3.431  2.0155  0.9692 -0.3444
54531SOL    HW281204   9.324   5.928   3.501 -0.0912  0.1435 -0.1628
54532SOL     OW81205   0.071  12.528   2.761 -0.3840  0.5065 -0.3491
54532SOL    HW181206  -0.014  12.569   2.750 -0.2450  0.4260 -1.9891
54532SOL    HW281207   0.113  12.576   2.832 -2.1818 -0.1551  1.2379
54533SOL     OW81208   0.691  11.739  13.704 -0.0965 -0.2566  0.3347
54533SOL    HW181209   0.762  11.677  13.688  3.3635  3.2917  0.3553
54533SOL    HW281210   0.663  11.722  13.794  2.6969 -0.0923  1.3060
54534SOL     OW81211   4.625   0.052   3.604 -0.9760 -0.0818 -0.1303
54534SOL    HW181212   4.666  -0.022   3.559  0.6861 -0.2031  1.4437
54534SOL    HW281213   4.538   0.022   3.627  0.1534 -2.1728  1.7743
54535SOL     OW81214  11.303  13.850   4.978  0.2255 -0.2958  0.5836
54535SOL    HW181215  11.231  13.893   4.933  0.3055 -0.3180  0.4336
54535SOL    HW281216  11.306  13.890   5.065  2.2097  2.1877 -0.5024
54536SOL     OW81217   8.241  10.024  11.899 -0.8987  0.4666  0.3751
54536SOL    HW181218   8.250   9.963  11.826  1.4667 -0.6971  1.4856
54536SOL    HW281219   8.261  10.110  11.862 -1.9569  0.2313 -0.7666
54537SOL     OW81220   7.672   8.793  12.763  0.1266  0.1796 -0.0385
54537SOL    HW181221   7.686   8.703  12.793  0.0538  0.5300  1.0806
54537SOL    HW281222   7.749   8.811  12.708  0.6872 -0.2000  0.6035
54538SOL     OW81223  12.744   3.392   5.639 -0.1516  0.4220  0.1830
54538SOL    HW181224  12.794   3.431   5.568  1.1878  2.4690  2.0995
54538SOL    HW281225  12.794   3.314   5.664 -1.2975 -1.0392 -1.8175
54539SOL     OW81226  10.775   4.917   3.655 -0.3289  0.9258 -0.4414
54539SOL    HW181227  10.870   4.920   3.660 -0.3705  1.3644  0.1464
54539SOL    HW281228  10.746   5.001   3.689 -0.9273  0.8413 -0.7212
54540SOL     OW81229   7.482  12.630   0.914  0.5131 -0.2477  0.0832
54540SOL    HW181230   7.570  12.594   0.902  1.2659  1.1513  1.0591
54540SOL    HW281231   7.490  12.685   0.992 -1.1223  0.2698 -0.0916
54541SOL     OW81232   3.008   7.993  10.926 -0.4255  0.2372  0.5405
54541SOL    HW181233   2.921   7.968  10.896 -0.1851  0.9390 -0.8192
54541SOL    HW281234   3.030   7.928  10.993 -1.9720  0.0396  0.8839
54542SOL     OW81235   4.710   6.188   3.149 -0.1687 -0.1543  0.3277
54542SOL    HW181236   4.695   6.134   3.072 -0.7259  0.1272  0.2285
54542SOL    HW281237   4.785   6.148   3.193 -0.4524 -0.8881  0.1567
54543SOL     OW81238   3.479   6.469   6.101  0.0000  0.0895  0.0072
54543SOL    HW181239   3.383   6.469   6.107 -0.0092 -0.6180 -0.0996
54543SOL    HW281240   3.505   6.550   6.146 -0.6330  0.1988  0.1978
54544SOL     OW81241   5.070   1.315   0.039  0.0220  0.0468  0.2834
54544SOL    HW181242   5.070   1.251  -0.033  0.7209 -2.0014  2.0183
54544SOL    HW281243   5.156   1.357   0.033 -0.8269  1.7081 -1.5114
54545SOL     OW81244   2.831   8.044   8.489  0.1099  0.4631 -0.6178
54545SOL    HW181245   2.885   8.103   8.437 -1.6911  0.4876 -2.6097
54545SOL    HW281246   2.765   8.100   8.528  0.7189  0.2622  0.7480
54546SOL     OW81247   8.691   4.570   0.371 -0.0283 -0.5287  0.1085
54546SOL    HW181248   8.707   4.615   0.288  0.5685 -0.9633 -0.0163
54546SOL    HW281249   8.624   4.505   0.351 -0.0347 -0.4925  0.0138
54547SOL     OW81250   1.466  11.469   5.889 -0.0252 -0.5315  0.1322
54547SOL    HW181251   1.456  11.430   5.977  0.1167  0.1792  0.4707
54547SOL    HW281252   1.505  11.400   5.836  3.6747  0.2066  1.6000
54548SOL     OW81253  10.997   1.604  10.831  0.0453 -0.1389 -0.4072
54548SOL    HW181254  10.967   1.514  10.841  0.9033 -0.3609  0.3731
54548SOL    HW281255  11.010   1.615  10.737  0.6704 -1.0950 -0.4520
54549SOL     OW81256   5.410  11.596  12.629 -0.0380 -0.0052  0.2248
54549SOL    HW181257   5.430  11.532  12.560  0.5870 -0.7360  1.0704
54549SOL    HW281258   5.410  11.680  12.583 -0.9231 -0.5931 -0.9176
54550SOL     OW81259   7.245   2.005   2.512 -0.8122  0.0507  0.4453
54550SOL    HW181260   7.275   1.950   2.439  0.9579  1.0049  0.3797
54550SOL    HW281261   7.249   1.948   2.588 -0.2000 -0.2633  0.1866
54551SOL     OW81262   6.471   0.319  13.687  0.0668  0.1381 -0.1843
54551SOL    HW181263   6.541   0.272  13.642  0.8095 -0.5945  1.6412
54551SOL    HW281264   6.430   0.372  13.619  1.6795 -0.2620 -1.5255
54552SOL     OW81265  10.957   2.022  13.954  0.6991  0.3437  0.0829
54552SOL    HW181266  10.917   2.084  14.014 -1.2384  1.0289 -1.8001
54552SOL    HW281267  11.039   1.996  13.997 -0.3054  1.2010  2.6950
54553SOL     OW81268   8.222   6.302   1.165  0.8532  0.0730 -0.0748
54553SOL    HW181269   8.210   6.209   1.183  1.8220  0.3836  2.4922
54553SOL    HW281270   8.150   6.345   1.212  1.4925  0.7268  0.3284
54554SOL     OW81271  13.290   9.959   8.583  0.5140  0.0703 -0.0440
54554SOL    HW181272  13.352   9.990   8.649 -0.7224 -0.4615  1.4167
54554SOL    HW281273  13.250  10.039   8.548  1.7055  0.3940 -0.7297
54555SOL     OW81274   0.891   9.138   9.250  0.0180 -0.5874  0.8598
54555SOL    HW181275   0.847   9.068   9.200 -1.4228  0.3448  0.7482
54555SOL    HW281276   0.832   9.154   9.324 -0.1967  1.1651  0.3510
54556SOL     OW81277   9.172  10.536  12.914 -0.1880 -0.6634 -0.7975
54556SOL    HW181278   9.248  10.592  12.901  0.2798 -1.1354 -0.1196
54556SOL    HW281279   9.131  10.568  12.994  1.9357 -3.2616  1.5303
54557SOL     OW81280   7.726   8.607   4.619  0.0509  0.0532  0.1843
54557SOL    HW181281   7.710   8.633   4.710  0.3258 -0.1341  0.2873
54557SOL    HW281282   7.821   8.596   4.613  0.0482  0.1828 -0.1594
54558SOL     OW81283   9.403   8.975   2.344 -0.2850  0.0763 -0.3770
54558SOL    HW181284   9.333   9.029   2.308 -1.1058 -0.0088  0.9948
54558SOL    HW281285   9.375   8.885   2.328  0.2369  0.0374 -1.1171
54559SOL     OW81286  10.883   0.557  12.664 -0.6170 -0.3567 -0.4012
54559SOL    HW181287  10.901   0.463  12.657  0.0198 -0.2952  0.2538
54559SOL    HW281288  10.956   0.591  12.716 -0.1849  0.7125 -1.6576
54560SOL     OW81289   8.134   2.359   3.029  0.6714  0.1547 -0.1972
54560SOL    HW181290   8.071   2.287   3.020  0.4213  0.5342 -1.9485
54560SOL    HW281291   8.194   2.347   2.956  4.1925 -1.5682  2.6820
54561SOL     OW81292   7.134   9.961   0.761 -0.9370 -0.6837  0.1423
54561SOL    HW181293   7.204   9.924   0.816  1.2469  0.1085 -1.9300
54561SOL    HW281294   7.125  10.051   0.791  1.0199  0.0844 -1.3456
54562SOL     OW81295   1.680  12.374   0.792 -0.0580 -0.1960 -0.0536
54562SOL    HW181296   1.681  12.448   0.731  0.1280 -0.0155  0.1681
54562SOL    HW281297   1.729  12.404   0.868 -2.2133  0.4309  1.1718
54563SOL     OW81298   0.617   8.879   1.746  0.1328 -0.2489 -0.3260
54563SOL    HW181299   0.577   8.951   1.697  0.6410  1.3727  1.5112
54563SOL    HW281300   0.567   8.875   1.827  1.8746 -0.0520  0.8066
54564SOL     OW81301  10.312  12.837  10.981 -0.3473 -0.2981  0.0439
54564SOL    HW181302  10.368  12.763  10.961  0.1252 -0.0935  0.5806
54564SOL    HW281303  10.223  12.802  10.979 -0.2229 -0.5885 -0.9839
54565SOL     OW81304  11.431   5.384   7.046 -0.3917  0.5144  0.0203
54565SOL    HW181305  11.403   5.370   7.137  1.0488 -1.9092  0.1839
54565SOL    HW281306  11.357   5.427   7.005 -1.4905  0.7564  2.1022
54566SOL     OW81307   8.494   1.256   3.525 -0.4787 -0.1327  0.0749
54566SOL    HW181308   8.460   1.235   3.438  0.8029 -0.3641 -0.3983
54566SOL    HW281309   8.508   1.170   3.566  0.6634 -0.1081 -0.2173
54567SOL     OW81310   4.353   4.724  11.642 -0.0824 -0.3508  0.0832
54567SOL    HW181311   4.286   4.657  11.656 -0.9072  0.8623  2.3911
54567SOL    HW281312   4.304   4.807  11.639  1.2225  0.4986  1.0724
54568SOL     OW81313   5.507   7.261  12.653  0.2119  0.0566  0.0797
54568SOL    HW181314   5.546   7.274  12.740 -0.1034  1.4985  0.0178
54568SOL    HW281315   5.478   7.169  12.654  0.2125  0.0495  1.4904
54569SOL     OW81316   6.914   2.773  11.082  0.1233  0.4455  0.7783
54569SOL    HW181317   6.849   2.836  11.052  0.0034  0.1274  0.3669
54569SOL    HW281318   6.863   2.696  11.108  0.1686  0.9222  2.3688
54570SOL     OW81319  10.727   6.349  12.620 -1.0104  0.3465  0.3034
54570SOL    HW181320  10.775   6.317  12.697 -1.7751  0.4844  0.8441
54570SOL    HW281321  10.660   6.407  12.656 -0.2182  1.8755 -0.5920
54571SOL     OW81322   4.977   1.807   4.631 -0.1808 -0.2037  0.6481
54571SOL    HW181323   4.896   1.845   4.665  1.3907  2.1935  2.0341
54571SOL    HW281324   5.030   1.882   4.607  1.5153 -1.7215 -0.6273
54572SOL     OW81325  13.131  11.081   6.678 -0.0237 -0.1778 -0.2092
54572SOL    HW181326  13.226  11.078   6.662  0.1184 -0.3752  0.6148
54572SOL    HW281327  13.123  11.083   6.773 -0.8478  0.0984 -0.2785
54573SOL     OW81328  10.198  10.732   3.043 -0.2865 -0.5692  0.2122
54573SOL    HW181329  10.104  10.726   3.063 -0.5712 -0.0668 -0.8784
54573SOL    HW281330  10.202  10.726   2.948  0.8015 -0.6434  0.2583
54574SOL     OW81331   3.675   7.300   2.367  0.6082  0.4512 -0.4188
54574SOL    HW181332   3.721   7.226   2.328 -0.6959 -0.8743  0.4279
54574SOL    HW281333   3.653   7.357   2.294 -0.4483 -1.2124 -1.4654
54575SOL     OW81334   8.793  12.354   7.626 -0.0501  0.1053 -0.3238
54575SOL    HW181335   8.861  12.315   7.571 -0.2337 -0.1489 -0.3756
54575SOL    HW281336   8.721  12.290   7.624 -0.3646  0.4567 -0.4320
54576SOL     OW81337   6.925  10.865   7.488  0.5570 -0.4842 -0.3951
54576SOL    HW181338   6.942  10.912   7.406 -1.9911  0.1413 -0.6600
54576SOL    HW281339   6.853  10.914   7.529  0.1839 -2.1443  1.0528
54577SOL     OW81340   1.503   1.364   1.976  0.1644  0.3612 -0.1515
54577SOL    HW181341   1.448   1.390   1.902  0.4270 -1.2714 -0.9571
54577SOL    HW281342   1.482   1.272   1.991  2.6795 -0.3566 -0.5338
54578SOL     OW81343   4.206  13.662   0.852  0.1648 -0.0497  0.3267
54578SOL    HW181344   4.162  13.696   0.774  0.9917  1.5816  0.5353
54578SOL    HW281345   4.290  13.708   0.854 -0.3532  0.9383  2.8678
54579SOL     OW81346   0.191   9.479   7.491 -0.3226 -0.2449 -0.3078
54579SOL    HW181347   0.102   9.455   7.463 -1.7434  3.9578 -0.0351
54579SOL    HW281348   0.202   9.569   7.462  3.0220  0.1477  1.6964
54580SOL     OW81349   5.781  11.676   9.866 -0.1779  0.2598 -0.3630
54580SOL    HW181350   5.743  11.659   9.780 -2.8208  0.7094  0.6257
54580SOL    HW281351   5.801  11.590   9.902 -2.3313 -0.1762 -0.1017
54581SOL     OW81352   9.341  11.844  12.794 -0.1958  0.1888  0.6421
54581SOL    HW181353   9.367  11.755  12.768 -0.2331  0.3318  0.0910
54581SOL    HW281354   9.360  11.849  12.887  1.0873  0.0438  0.4074
54582SOL     OW81355  12.057   1.351   9.712  0.1742  0.1365 -0.4854
54582SOL    HW181356  12.126   1.288   9.691  0.1337 -0.5914  1.3403
54582SOL    HW281357  12.090   1.399   9.787 -0.7346  0.7397 -0.4530
54583SOL     OW81358   7.876  10.301   7.818  0.1750  0.0802 -0.1114
54583SOL    HW181359   7.901  10.226   7.764  2.7770  0.2995  0.6393
54583SOL    HW281360   7.865  10.373   7.756 -0.4666 -0.4658 -0.6530
54584SOL     OW81361   5.524  11.753   8.545 -0.2384 -0.0583  0.5074
54584SOL    HW181362   5.501  11.754   8.452 -0.4253  2.2711  0.5124
54584SOL    HW281363   5.471  11.823   8.583 -0.2870 -1.0850  2.4168
54585SOL     OW81364   8.986  12.874   5.948  0.5120 -0.2101 -0.2503
54585SOL    HW181365   8.953  12.827   5.871  1.9386 -2.3163  0.3293
54585SOL    HW281366   8.928  12.949   5.957 -1.2646 -1.2938 -1.8728
54586SOL     OW81367  10.807   3.751  11.785  0.3745  0.5336  0.7977
54586SOL    HW181368  10.726   3.711  11.817  0.4658  0.7486  1.3062
54586SOL    HW281369  10.877   3.705  11.831  0.6403 -0.6805 -0.7375
54587SOL     OW81370   2.644   9.140   3.645 -0.1165  0.5044 -0.6172
54587SOL    HW181371   2.734   9.171   3.644 -0.1632  0.6225 -1.7451
54587SOL    HW281372   2.649   9.054   3.689  0.1867  1.4777  1.3855
54588SOL     OW81373  11.335   8.684  13.610  0.6056 -0.2464  0.4227
54588SOL    HW181374  11.415   8.642  13.640  1.9679  0.0199 -2.5558
54588SOL    HW281375  11.271   8.613  13.607  1.7260 -1.2552 -0.5299
54589SOL     OW81376   3.809   4.666   7.831 -0.4774 -0.0503  0.0411
54589SOL    HW181377   3.770   4.601   7.890  3.1403 -0.3471  2.4497
54589SOL    HW281378   3.785   4.637   7.743 -0.6374 -3.5227  1.0849
54590SOL     OW81379   2.826  13.776   0.399 -0.6479  0.0877  0.1951
54590SOL    HW181380   2.816  13.718   0.475  0.1253  1.3147  1.2663
54590SOL    HW281381   2.762  13.846   0.414 -0.0677  0.6554  0.0308
54591SOL     OW81382  10.689   3.170  13.745 -0.0727 -0.4312 -0.0673
54591SOL    HW181383  10.745   3.099  13.716  1.1976  0.5175 -0.0146
54591SOL    HW281384  10.678   3.155  13.839  0.7093 -0.2157  0.0617
54592SOL     OW81385  11.833   3.789   6.993 -0.1490  0.1888  0.5361
54592SOL    HW181386  11.911   3.835   6.962 -0.6136  0.3211 -0.4963
54592SOL    HW281387  11.815   3.828   7.079  0.1210  1.1422  0.1753
54593SOL     OW81388  11.991   4.551   7.762  0.0910 -0.1288  0.6085
54593SOL    HW181389  11.989   4.512   7.850  2.3240  0.9644  1.2303
54593SOL    HW281390  11.909   4.599   7.755  0.0563  0.1030  2.2820
54594SOL     OW81391   0.545   4.108   4.067  0.0106 -0.3911  0.0604
54594SOL    HW181392   0.630   4.149   4.085 -0.7233  1.6295 -0.7819
54594SOL    HW281393   0.481   4.176   4.087 -1.3541 -1.5336 -0.3081
54595SOL     OW81394   2.679   1.031   1.551 -0.2670 -0.4571  0.2791
54595SOL    HW181395   2.599   0.983   1.574 -0.3312  0.3187  1.7453
54595SOL    HW281396   2.666   1.119   1.585  0.8540 -0.0612 -0.2519
54596SOL     OW81397   9.298  11.884   5.401 -0.4435 -0.3559  0.4442
54596SOL    HW181398   9.228  11.869   5.464  0.2892 -1.2123  1.0884
54596SOL    HW281399   9.286  11.816   5.335  0.8589 -1.7325  1.5548
54597SOL     OW81400   1.222   1.690   7.453 -0.0754  0.0300  0.5690
54597SOL    HW181401   1.301   1.700   7.506 -0.1171  1.4901  0.4077
54597SOL    HW281402   1.247   1.723   7.366 -0.5667 -0.4625  0.2367
54598SOL     OW81403  13.833   2.885  12.718  0.2969  0.3347 -0.0801
54598SOL    HW181404  13.833   2.868  12.812  0.9370 -2.4035 -0.4814
54598SOL    HW281405  13.919   2.923  12.700  0.5298  0.0177  0.3376
54599SOL     OW81406   0.341   0.597  13.605  0.0381  0.0474  0.2891
54599SOL    HW181407   0.320   0.586  13.512 -1.0402  0.7136  0.4459
54599SOL    HW281408   0.431   0.565  13.613 -0.2598 -1.1252 -0.7579
54600SOL     OW81409  11.824   8.413   2.221 -0.2592  0.2782  0.0434
54600SOL    HW181410  11.818   8.497   2.267 -1.6585 -0.7733  1.8720
54600SOL    HW281411  11.767   8.424   2.145 -0.2817  1.0350  0.1536
54601SOL     OW81412   0.591  11.808   5.947 -0.0982 -0.2450 -0.4632
54601SOL    HW181413   0.674  11.769   5.922 -0.9563 -2.0685 -0.6452
54601SOL    HW281414   0.570  11.770   6.032 -1.0075 -0.2626 -0.6822
54602SOL     OW81415   2.622   9.530  11.732  0.2933  0.1596  0.5460
54602SOL    HW181416   2.647   9.506  11.822  0.6896  1.2955  0.7620
54602SOL    HW281417   2.705   9.538  11.685  0.4930  3.6669  1.1919
54603SOL     OW81418   8.144   0.990  12.115 -0.2396  0.3838  0.1278
54603SOL    HW181419   8.146   1.085  12.127 -2.5893  0.4170  0.7603
54603SOL    HW281420   8.176   0.955  12.198 -0.0201  0.6075  0.1412
54604SOL     OW81421   9.453   2.295   7.479  0.1639  0.7359 -0.1093
54604SOL    HW181422   9.415   2.216   7.517 -0.5088  0.7931 -0.6498
54604SOL    HW281423   9.493   2.265   7.397 -0.5088  1.0395 -0.5506
54605SOL     OW81424  13.688   7.504   1.528 -0.1143 -0.0371  0.4546
54605SOL    HW181425  13.664   7.595   1.509  1.1590  0.1390 -0.4028
54605SOL    HW281426  13.646   7.453   1.459 -0.1001 -0.0002  0.4183
54606SOL     OW81427   8.732   6.626   2.765  0.1661  0.2155  0.0797
54606SOL    HW181428   8.712   6.617   2.672 -2.8529  1.1166  0.5174
54606SOL    HW281429   8.711   6.540   2.802  0.5683  0.1017  0.0437
54607SOL     OW81430   0.104   2.860   6.047  0.4819 -0.0194  0.2168
54607SOL    HW181431   0.175   2.908   6.003  1.0911 -0.8343  0.2716
54607SOL    HW281432   0.069   2.802   5.979 -1.9228  2.1599 -0.5791
54608SOL     OW81433   0.471   0.450   9.965  0.1798  0.6608 -0.0252
54608SOL    HW181434   0.402   0.514   9.983  0.3116  0.6770  0.4417
54608SOL    HW281435   0.515   0.483   9.887 -0.7861  0.2785 -0.7461
54609SOL     OW81436  11.215   4.456   5.914 -0.1466 -0.1405 -0.0196
54609SOL    HW181437  11.261   4.390   5.967 -1.9263 -1.4073  0.0258
54609SOL    HW281438  11.182   4.519   5.977 -1.8510 -1.3941  0.4253
54610SOL     OW81439   9.405  11.228   4.794  1.0308  0.4171  0.0218
54610SOL    HW181440   9.399  11.167   4.721  0.4512 -0.4010  0.7240
54610SOL    HW281441   9.430  11.174   4.869  4.3051  1.6203 -0.0371
54611SOL     OW81442   1.708   3.593   2.744 -0.2172 -0.0234 -0.4741
54611SOL    HW181443   1.646   3.525   2.768 -0.3022 -0.2185 -1.2288
54611SOL    HW281444   1.670   3.635   2.667 -1.0625  2.0809  0.9618
54612SOL     OW81445   6.346   9.816  11.950 -0.0560 -0.0286  0.3007
54612SOL    HW181446   6.285   9.889  11.962 -1.3395 -0.9442 -0.3911
54612SOL    HW281447   6.304   9.742  11.993  0.7092 -0.6305  0.0392
54613SOL     OW81448  10.413  11.847   3.656  0.2630 -0.2770 -0.3347
54613SOL    HW181449  10.432  11.939   3.677 -0.8243  0.1902 -1.3207
54613SOL    HW281450  10.459  11.832   3.574 -0.2298 -0.3797 -0.5893
54614SOL     OW81451   8.568   3.948   6.521  0.9727  0.2251  0.1901
54614SOL    HW181452   8.540   3.871   6.472  1.0361 -0.1760  0.7725
54614SOL    HW281453   8.660   3.932   6.541  0.4979 -0.5052  2.0288
54615SOL     OW81454   9.886   5.532   5.572  0.0388  0.2823 -0.3944
54615SOL    HW181455   9.954   5.595   5.595  0.0485 -0.2231  1.0778
54615SOL    HW281456   9.927   5.472   5.511  0.5796  0.6338 -0.3785
54616SOL     OW81457   5.012   8.110   2.563  0.2225 -0.6433 -0.4357
54616SOL    HW181458   4.980   8.193   2.527  0.4612 -0.4344 -0.1828
54616SOL    HW281459   5.086   8.136   2.618  0.0202 -0.9821 -0.0009
54617SOL     OW81460   8.127  10.650   8.319  0.1822  0.0731 -0.1770
54617SOL    HW181461   8.182  10.716   8.361 -1.8947  1.1702  0.9805
54617SOL    HW281462   8.070  10.701   8.261 -1.6659 -0.6112  0.9699
54618SOL     OW81463   4.265   5.352   0.169  0.3416 -0.1585 -0.7358
54618SOL    HW181464   4.200   5.294   0.208 -0.7273  2.2058  1.3118
54618SOL    HW281465   4.347   5.331   0.214  0.3493 -1.1201 -1.1751
54619SOL     OW81466  13.457   2.329   1.764  0.7920 -0.2066 -0.0211
54619SOL    HW181467  13.552   2.339   1.762  1.0144 -2.0482  0.0612
54619SOL    HW281468  13.429   2.371   1.845  1.6868 -0.7072  0.5588
54620SOL     OW81469   5.699   6.538   5.935 -0.2172 -0.2002  0.0340
54620SOL    HW181470   5.666   6.617   5.976 -0.1577  0.5970 -1.4057
54620SOL    HW281471   5.625   6.477   5.936 -0.7531  0.4446 -0.2996
54621SOL     OW81472  11.064   5.338   7.257  0.3986  0.1104  0.5259
54621SOL    HW181473  11.075   5.307   7.167 -1.1640  0.5507  0.1659
54621SOL    HW281474  10.993   5.284   7.292 -1.1842  2.0368  0.4499
54622SOL     OW81475  10.043   1.391   1.881  0.5173  0.0327  0.1997
54622SOL    HW181476  10.002   1.410   1.797  0.5334  3.3239  0.7975
54622SOL    HW281477  10.082   1.304   1.870  0.3358  0.2400 -3.0910
54623SOL     OW81478   4.484   5.038   2.243 -0.1531  0.1055  0.0267
54623SOL    HW181479   4.532   5.023   2.162 -0.1372  0.7985 -0.0975
54623SOL    HW281480   4.542   5.093   2.296  0.5442 -1.6774  1.2038
54624SOL     OW81481   4.683   4.369   5.679 -0.2092 -0.4149  0.5890
54624SOL    HW181482   4.754   4.341   5.737  1.6209 -0.9297 -1.7324
54624SOL    HW281483   4.669   4.461   5.702 -0.4304 -0.9007  2.6229
54625SOL     OW81484   9.533   1.716   4.258 -0.0368 -0.2556 -0.3227
54625SOL    HW181485   9.574   1.726   4.344 -0.2710  0.3711 -0.2778
54625SOL    HW281486   9.455   1.770   4.262 -1.0524 -1.6566 -0.3012
54626SOL     OW81487  11.098   7.248  13.710 -0.7024 -0.6754 -0.2568
54626SOL    HW181488  11.113   7.154  13.718  0.2403 -0.8057 -2.6879
54626SOL    HW281489  11.181   7.288  13.737 -1.3710 -0.4324  1.5928
54627SOL     OW81490   9.964   0.161   4.167 -0.3261  0.1330  0.1663
54627SOL    HW181491   9.972   0.215   4.246 -0.8635  0.9448 -0.3210
54627SOL    HW281492   9.882   0.190   4.126 -1.5912 -2.2872  0.8008
54628SOL     OW81493   3.274  12.016   7.318 -0.2202 -0.0434 -0.2429
54628SOL    HW181494   3.211  11.943   7.320  0.4731 -0.6838 -1.1317
54628SOL    HW281495   3.239  12.079   7.382 -1.7939 -0.3526 -0.7398
54629SOL     OW81496   2.364  10.996   4.577 -0.2490 -0.0183 -0.2655
54629SOL    HW181497   2.433  10.947   4.532 -0.7626 -2.2013  1.1388
54629SOL    HW281498   2.293  10.933   4.588 -0.7684  0.8530  2.0930
54630SOL     OW81499   1.810  10.078   9.082  0.2751 -0.3226  0.4506
54630SOL    HW181500   1.886  10.037   9.040  0.3633  0.7423 -0.4919
54630SOL    HW281501   1.735  10.031   9.047  0.4787 -1.3706  1.3723
54631SOL     OW81502   2.830   0.452   2.662  0.0858 -0.1690  0.5049
54631SOL    HW181503   2.811   0.538   2.700 -0.8773  0.4483 -1.2726
54631SOL    HW281504   2.899   0.469   2.598 -0.3429 -0.6416 -0.0922
54632SOL     OW81505   2.997  10.408   0.535  0.2003  0.5102  0.1153
54632SOL    HW181506   2.993  10.485   0.478 -0.0921 -0.5920 -1.4354
54632SOL    HW281507   2.905  10.387   0.553  0.2978  1.0689  1.3405
54633SOL     OW81508   0.854   2.546   2.603  0.4458 -0.4258  0.8016
54633SOL    HW181509   0.789   2.477   2.595  0.6344 -0.4984 -0.2337
54633SOL    HW281510   0.894   2.533   2.689 -0.2128 -0.9854  1.0232
54634SOL     OW81511  13.597  12.164   9.305 -0.6215  0.5096  0.1739
54634SOL    HW181512  13.553  12.135   9.386 -0.4147 -1.0342 -0.2228
54634SOL    HW281513  13.527  12.171   9.241 -0.4099 -1.7464 -0.4033
54635SOL     OW81514   1.031  11.118   4.240 -0.3029  0.4305 -0.3316
54635SOL    HW181515   1.031  11.098   4.334  0.3490 -0.7862 -0.5668
54635SOL    HW281516   0.977  11.196   4.232 -2.8602 -1.1001  0.7097
54636SOL     OW81517   1.048   9.140   9.476 -0.6936 -0.2698 -0.1894
54636SOL    HW181518   1.016   9.167   9.390  2.6279 -0.0769 -1.5040
54636SOL    HW281519   1.081   9.052   9.463  2.1199  0.6458  0.1499
54637SOL     OW81520  11.732   7.444  13.655  0.0512 -0.3060  0.2202
54637SOL    HW181521  11.792   7.370  13.650 -0.7968 -0.9141 -2.1311
54637SOL    HW281522  11.658   7.419  13.599 -0.4352  2.1733 -0.3672
54638SOL     OW81523   9.993  10.843   9.815  0.0122 -0.4738  0.0767
54638SOL    HW181524   9.942  10.804   9.744 -0.0666 -0.3090  0.0427
54638SOL    HW281525  10.051  10.906   9.771  0.6438 -1.0655  0.0536
54639SOL     OW81526   3.761  10.043   3.409 -0.6402  0.6200  0.2537
54639SOL    HW181527   3.835  10.008   3.360 -1.3535 -0.4358 -0.0833
54639SOL    HW281528   3.769  10.138   3.399 -1.3284  0.4623 -2.7927
54640SOL     OW81529   9.584   3.894   0.762 -0.1030  0.2167 -0.4624
54640SOL    HW181530   9.607   3.803   0.778  0.6918  0.2030 -1.5605
54640SOL    HW281531   9.492   3.890   0.735  0.3140 -0.4556 -1.9050
54641SOL     OW81532   3.894   0.417  10.461 -0.1356  0.3347  0.3134
54641SOL    HW181533   3.873   0.362  10.386 -0.6178  1.9408 -0.8014
54641SOL    HW281534   3.812   0.422  10.511 -0.7032  1.6086 -0.6799
54642SOL     OW81535   7.769   6.205  13.565  0.5460 -0.6669  0.0975
54642SOL    HW181536   7.738   6.244  13.483 -0.6719 -1.5581  0.0992
54642SOL    HW281537   7.829   6.270  13.602 -0.9523  0.9506 -0.1669
54643SOL     OW81538   6.763   2.520   2.987  0.5161 -0.1728  0.2588
54643SOL    HW181539   6.710   2.579   3.041  2.3354  1.6913  0.1110
54643SOL    HW281540   6.756   2.556   2.899 -0.4763 -1.7866 -0.3719
54644SOL     OW81541  13.026   5.559  12.595  0.2165 -0.6280 -0.7553
54644SOL    HW181542  12.986   5.472  12.602 -0.4675 -0.2309  0.8416
54644SOL    HW281543  12.955   5.615  12.563  0.0015 -0.2619  0.3304
54645SOL     OW81544  10.583   1.267   0.997  0.5095 -0.1464 -0.2779
54645SOL    HW181545  10.582   1.323   1.075  1.7395 -0.2889 -0.1460
54645SOL    HW281546  10.499   1.285   0.955  0.4960  1.1306  0.2342
54646SOL     OW81547   5.166   4.505   0.622 -0.0671  0.3452 -0.2496
54646SOL    HW181548   5.131   4.565   0.688  2.3255  1.3872  0.1558
54646SOL    HW281549   5.140   4.418   0.653 -0.2400  0.9181  1.2837
54647SOL     OW81550   9.759  13.061   0.266  0.1144  0.2686  0.2374
54647SOL    HW181551   9.771  13.024   0.353  0.9882  1.5176  0.6714
54647SOL    HW281552   9.847  13.087   0.238 -0.1107 -0.3307 -1.1296
54648SOL     OW81553   3.936   0.335   4.191 -0.4052 -0.1122 -0.3759
54648SOL    HW181554   3.998   0.346   4.264 -0.2240 -0.7602 -0.4280
54648SOL    HW281555   3.874   0.270   4.223 -0.6744  0.0390 -0.5847
54649SOL     OW81556   6.544  11.005  13.568  0.2856 -0.1508 -0.5896
54649SOL    HW181557   6.485  11.042  13.633 -0.9318 -2.5568 -0.2247
54649SOL    HW281558   6.499  11.016  13.484 -0.3048 -1.2071 -0.4197
54650SOL     OW81559   4.850   9.992  12.048 -0.1002  0.0405 -0.6872
54650SOL    HW181560   4.795  10.010  11.971 -1.1027 -0.5149 -0.1163
54650SOL    HW281561   4.837   9.899  12.066 -0.7744  0.3938  0.8192
54651SOL     OW81562   7.764   9.747  11.851  0.3467  0.1048  0.0695
54651SOL    HW181563   7.740   9.658  11.877 -0.8346  0.7968  1.4980
54651SOL    HW281564   7.842   9.767  11.904 -0.3582  0.4785  0.9989
54652SOL     OW81565  12.320   0.414  12.366  0.5588 -0.2129  0.0875
54652SOL    HW181566  12.295   0.434  12.276 -0.2227  0.4105  0.4234
54652SOL    HW281567  12.351   0.497  12.402  0.0279 -0.2450  0.6467
54653SOL     OW81568   3.852   5.476  11.561  0.1168  0.6011 -0.1657
54653SOL    HW181569   3.796   5.552  11.577 -2.3798 -0.8719 -1.3388
54653SOL    HW281570   3.849   5.464  11.466  1.7930 -0.0527 -0.1673
54654SOL     OW81571   2.672   5.873   4.583  0.1139 -0.8123 -0.0032
54654SOL    HW181572   2.679   5.868   4.678  1.6726 -0.5757 -0.0779
54654SOL    HW281573   2.665   5.967   4.564  2.4938 -0.6104 -0.2148
54655SOL     OW81574   0.482   8.101   1.105 -0.2111  0.3026  0.0711
54655SOL    HW181575   0.572   8.076   1.129 -0.7708 -0.8818  1.0910
54655SOL    HW281576   0.473   8.191   1.137  0.0816 -0.1747  1.6208
54656SOL     OW81577   6.952  10.176   0.884  0.1144  0.2623  0.0244
54656SOL    HW181578   6.954  10.136   0.971  1.5182 -0.5153 -0.3394
54656SOL    HW281579   6.871  10.227   0.883 -0.4503 -0.5538  1.4099
54657SOL     OW81580   8.079   6.500   2.669 -0.3019 -0.1807  0.3620
54657SOL    HW181581   8.059   6.423   2.723 -0.1029  0.3684  1.2435
54657SOL    HW281582   8.167   6.526   2.696 -0.1577  0.0464 -0.3081
54658SOL     OW81583   4.160  12.983   5.440  0.3159 -0.0804 -0.0711
54658SOL    HW181584   4.081  12.940   5.474  0.0621  2.3653  2.7635
54658SOL    HW281585   4.127  13.047   5.377  0.2670 -0.5867 -0.5695
54659SOL     OW81586   4.100  13.965   6.721  0.0482 -0.2124  0.7100
54659SOL    HW181587   4.055  13.986   6.639 -0.7090 -1.4568  0.7910
54659SOL    HW281588   4.136  14.049   6.750 -0.6420  0.4628 -0.3130
54660SOL     OW81589   4.644   1.393  11.445 -0.3105  0.1554  0.1720
54660SOL    HW181590   4.711   1.374  11.510  1.5333  1.5252 -1.2083
54660SOL    HW281591   4.647   1.488  11.435  0.4241 -0.0891 -2.8134
54661SOL     OW81592   8.603  12.549   3.978 -0.0282 -0.2143  0.3621
54661SOL    HW181593   8.550  12.488   4.031  1.0031 -0.1172  1.5401
54661SOL    HW281594   8.640  12.494   3.909 -0.0872 -0.6778  0.6933
54662SOL     OW81595  10.100  12.645   4.200  0.9836  0.2896  0.0719
54662SOL    HW181596  10.084  12.731   4.162  0.1908 -0.8132 -2.2515
54662SOL    HW281597  10.060  12.649   4.287 -0.9798  1.5892 -0.8319
54663SOL     OW81598   9.548  11.230   8.443  0.1508 -0.4192  0.2298
54663SOL    HW181599   9.463  11.195   8.470 -0.7332  1.9616  0.7978
54663SOL    HW281600   9.553  11.315   8.485  2.2709  0.0686 -0.8665
54664SOL     OW81601  13.127   0.546  13.511 -0.1200  0.8607  0.2508
54664SOL    HW181602  13.056   0.552  13.575  0.1476  1.0635  0.5334
54664SOL    HW281603  13.095   0.485  13.444  0.2744 -0.7832  1.4865
54665SOL     OW81604  13.289   6.140   8.001 -0.9672  0.3560  1.2519
54665SOL    HW181605  13.272   6.234   7.998 -2.0448  0.1651 -1.8959
54665SOL    HW281606  13.384   6.134   8.013 -0.9426  1.7981  2.0638
54666SOL     OW81607   8.086   0.805   1.659 -0.3271  0.3837  0.1401
54666SOL    HW181608   8.005   0.754   1.667  0.2652 -0.3761  1.6012
54666SOL    HW281609   8.151   0.755   1.708  0.8553  1.3647 -0.3846
54667SOL     OW81610   1.827  11.354   5.840  0.0959  0.1454 -0.1415
54667SOL    HW181611   1.772  11.287   5.880 -0.2457  0.1199 -0.6416
54667SOL    HW281612   1.893  11.305   5.792  1.3546  0.1698  1.5007
54668SOL     OW81613   8.901   4.421   7.188  0.4602  0.7644 -0.2856
54668SOL    HW181614   8.908   4.500   7.135  0.0795  0.3270 -1.0103
54668SOL    HW281615   8.809   4.395   7.180  0.9474 -0.7544 -1.5710
54669SOL     OW81616   9.392  12.560  10.621  0.7801 -0.3802 -0.2306
54669SOL    HW181617   9.366  12.652  10.626  1.2333 -0.2834  0.5176
54669SOL    HW281618   9.452  12.556  10.546  0.4980 -0.1315 -0.4716
54670SOL     OW81619  10.364  11.571   0.454  0.3118  0.1837  0.2181
54670SOL    HW181620  10.448  11.597   0.416 -0.4117  2.9434  0.2816
54670SOL    HW281621  10.349  11.483   0.420  1.7742  0.7891 -2.2855
54671SOL     OW81622  13.909  12.524   7.121 -0.2223 -0.1752  0.0428
54671SOL    HW181623  13.984  12.480   7.081  0.3862  0.4590  0.4560
54671SOL    HW281624  13.837  12.462   7.113  0.4277 -0.9246 -0.0727
54672SOL     OW81625   7.120  12.729  12.026 -0.6076  0.2570  0.2017
54672SOL    HW181626   7.072  12.647  12.041 -0.8943  0.1652 -1.1281
54672SOL    HW281627   7.212  12.704  12.031 -0.6685 -0.4760 -1.6541
54673SOL     OW81628   7.370  13.005   9.411 -0.1718  0.0821 -1.0164
54673SOL    HW181629   7.335  12.933   9.358  2.1858 -2.2018  0.3089
54673SOL    HW281630   7.320  13.002   9.492  0.2231 -0.3493 -0.7893
54674SOL     OW81631  10.233   0.808   9.127 -0.0593  0.3443 -0.1998
54674SOL    HW181632  10.303   0.769   9.075  0.4607  0.3077  0.5125
54674SOL    HW281633  10.274   0.826   9.212 -1.1908 -0.6214  0.5757
54675SOL     OW81634   9.717   2.399   0.420 -0.3979 -0.1714  0.0413
54675SOL    HW181635   9.763   2.404   0.337 -1.6408  0.5473 -0.6401
54675SOL    HW281636   9.759   2.328   0.467  1.5245  0.5925 -0.4474
54676SOL     OW81637   3.026   7.093   0.185  0.6560 -0.4250 -0.3133
54676SOL    HW181638   3.017   7.186   0.166  2.5889  0.0688  0.8880
54676SOL    HW281639   2.948   7.072   0.238  1.7709  1.4118  2.2976
54677SOL     OW81640   1.137   9.723   5.743  0.0880  0.4285 -0.0707
54677SOL    HW181641   1.228   9.755   5.742 -0.3121  1.6017 -0.5294
54677SOL    HW281642   1.132   9.670   5.823  1.0458  0.7288  0.2093
54678SOL     OW81643   6.720   1.553  11.106  0.6002  0.0074  0.1676
54678SOL    HW181644   6.659   1.591  11.170 -0.0544  0.8423 -0.9076
54678SOL    HW281645   6.794   1.524  11.158  0.4167  1.3220  1.2438
54679SOL     OW81646   4.729   0.445   6.997  0.5777  0.2565  0.0278
54679SOL    HW181647   4.786   0.378   6.959 -0.0497 -0.9423  1.1476
54679SOL    HW281648   4.770   0.528   6.971  2.3857 -0.5557  0.1397
54680SOL     OW81649   0.840   9.852   5.330  0.3753  0.1519  0.0486
54680SOL    HW181650   0.797   9.844   5.415  1.3759  1.6587  0.7372
54680SOL    HW281651   0.907   9.920   5.342  3.4308 -2.4498 -0.7582
54681SOL     OW81652  10.324  11.685  13.532  0.1061 -0.0006 -0.1334
54681SOL    HW181653  10.318  11.667  13.438 -1.0785 -2.3809  0.3114
54681SOL    HW281654  10.418  11.684  13.550  0.3183 -0.2979 -1.1774
54682SOL     OW81655   5.093   4.649  12.595  0.4225  0.3753  0.2644
54682SOL    HW181656   5.064   4.601  12.517 -1.6394  0.0196  1.1854
54682SOL    HW281657   5.150   4.587  12.640  0.6673  0.1350 -0.3575
54683SOL     OW81658   8.620   4.214   6.519 -0.1434  0.0126  0.2016
54683SOL    HW181659   8.588   4.129   6.489 -1.0432  0.3648  0.1455
54683SOL    HW281660   8.630   4.266   6.439 -1.4404  0.5762  0.3809
54684SOL     OW81661   8.734  10.018   0.972  0.6585  0.4396 -0.3198
54684SOL    HW181662   8.683  10.096   0.949  0.8423  0.2163 -1.5240
54684SOL    HW281663   8.710  10.001   1.063  1.0044  2.2081  0.1543
54685SOL     OW81664  10.225   8.528   1.616 -0.5477 -0.0583 -0.0857
54685SOL    HW181665  10.141   8.487   1.595 -0.6919  0.7712 -1.1899
54685SOL    HW281666  10.290   8.475   1.570 -0.6700  0.5197 -0.9407
54686SOL     OW81667   2.625   7.631   5.007 -0.2010 -0.2040 -0.4427
54686SOL    HW181668   2.548   7.575   5.019  0.1006 -0.5392 -0.0378
54686SOL    HW281669   2.632   7.643   4.912 -0.4890 -0.5437 -0.5073
54687SOL     OW81670   9.823   1.982   1.773 -0.4594 -0.1687 -0.3866
54687SOL    HW181671   9.729   1.988   1.790 -0.4195  0.0282 -0.2359
54687SOL    HW281672   9.837   1.891   1.747 -0.7670 -0.0861 -0.8698
54688SOL     OW81673   7.641   5.459   1.096  0.0596 -0.1138  0.2252
54688SOL    HW181674   7.607   5.378   1.134 -0.5520 -1.3335 -2.6338
54688SOL    HW281675   7.563   5.508   1.070  0.4452  0.8501  0.8390
54689SOL     OW81676  11.524   2.096  12.987 -0.4696 -0.7144  0.3106
54689SOL    HW181677  11.565   2.174  13.023  1.0677 -0.4060 -1.8719
54689SOL    HW281678  11.441   2.088  13.033 -0.6588  2.1796  0.6324
54690SOL     OW81679  13.836   7.853   6.087  0.8136  0.2740  0.0832
54690SOL    HW181680  13.880   7.803   6.156 -0.3922 -1.4663 -0.3544
54690SOL    HW281681  13.771   7.905   6.133 -0.0121 -0.9082  0.3091
54691SOL     OW81682   1.603   9.396   5.412 -0.0644  0.5088 -0.1845
54691SOL    HW181683   1.537   9.376   5.345  0.9583  0.3700 -1.1790
54691SOL    HW281684   1.586   9.332   5.481 -2.4036  1.9039  0.6478
54692SOL     OW81685   1.656   4.260   1.311  0.2055  0.3816 -0.4739
54692SOL    HW181686   1.737   4.255   1.260  0.5156 -0.3990  0.0800
54692SOL    HW281687   1.667   4.338   1.365  1.7620 -1.1097  1.5185
54693SOL     OW81688  12.386   0.461   6.782  0.1103  0.0748 -0.0118
54693SOL    HW181689  12.314   0.523   6.768 -2.0122 -2.2445 -0.0267
54693SOL    HW281690  12.384   0.404   6.705  2.0679 -0.0221 -0.0504
54694SOL     OW81691   7.971   0.665   2.852 -0.3060 -0.0538  0.1706
54694SOL    HW181692   7.927   0.718   2.785 -2.0762 -1.0657  0.4824
54694SOL    HW281693   7.957   0.714   2.933  1.4702  0.9511 -0.0668
54695SOL     OW81694  10.843   1.105   2.250 -0.3219  0.5309 -0.7268
54695SOL    HW181695  10.793   1.034   2.289 -1.5378  0.7237 -1.8392
54695SOL    HW281696  10.777   1.163   2.213  0.7145  0.2564 -3.2069
54696SOL     OW81697   5.242   2.581  12.539  0.8144 -0.1314  0.2065
54696SOL    HW181698   5.331   2.574  12.503  0.8763 -0.2853  0.3800
54696SOL    HW281699   5.256   2.588  12.634  0.6176 -1.0968  0.3248
54697SOL     OW81700   4.401   6.117   0.269  0.2190 -0.2091  0.2081
54697SOL    HW181701   4.420   6.097   0.178 -1.3761  0.5342 -0.3179
54697SOL    HW281702   4.312   6.152   0.269  0.6079  0.9389  1.8954
54698SOL     OW81703   3.610  11.879   0.490 -0.8457  0.5212 -0.3983
54698SOL    HW181704   3.545  11.949   0.494 -2.0291 -0.5918  1.1292
54698SOL    HW281705   3.690  11.919   0.525 -1.3065  1.3157 -0.2346
54699SOL     OW81706  10.280   3.067   3.727  0.0628  0.6191  0.4040
54699SOL    HW181707  10.206   3.075   3.668  1.2542  1.0761 -1.0922
54699SOL    HW281708  10.261   3.128   3.799 -0.7393  1.1235 -0.2266
54700SOL     OW81709   1.543   0.409   2.816  0.1324  0.5564  0.0768
54700SOL    HW181710   1.548   0.386   2.909  3.0497 -1.2328 -0.4033
54700SOL    HW281711   1.508   0.330   2.774 -1.3492  1.4182 -0.3939
54701SOL     OW81712   5.216   4.683  12.036 -0.1496 -0.0494  0.2160
54701SOL    HW181713   5.271   4.606  12.052 -0.0575 -0.2045 -0.7564
54701SOL    HW281714   5.266   4.756  12.073  1.0820 -0.0922 -1.2410
54702SOL     OW81715   0.185   7.477   6.631  0.2391 -0.0531  0.8910
54702SOL    HW181716   0.262   7.534   6.636 -0.0156  0.2150  1.9804
54702SOL    HW281717   0.221   7.388   6.633  0.5410  0.0705  1.1368
54703SOL     OW81718  12.062   5.355   8.482 -0.1140 -0.1679  0.5496
54703SOL    HW181719  11.971   5.326   8.485 -0.0921 -0.4574 -0.8817
54703SOL    HW281720  12.110   5.292   8.535 -0.6290 -0.4498  0.6850
54704SOL     OW81721   1.046   1.763   4.938 -0.5135  0.1941 -0.1171
54704SOL    HW181722   1.070   1.855   4.944 -1.7599  0.6309 -1.4646
54704SOL    HW281723   1.113   1.724   4.882  0.1222  0.2025  0.6067
54705SOL     OW81724   8.331   1.897  12.663  0.6870  0.5624 -0.7992
54705SOL    HW181725   8.370   1.871  12.746  0.1563  1.7069 -0.1662
54705SOL    HW281726   8.392   1.961  12.626 -0.7104  2.7182  0.4213
54706SOL     OW81727   8.829   1.047   4.136 -0.6648  0.0539  0.5271
54706SOL    HW181728   8.760   1.047   4.203 -0.5995 -2.0926  0.6771
54706SOL    HW281729   8.785   1.021   4.056 -0.3287  0.3824  0.2316
54707SOL     OW81730   5.928  10.191   2.714 -0.0059  0.1781  0.7126
54707SOL    HW181731   5.899  10.263   2.658  0.8360 -0.1549 -0.1841
54707SOL    HW281732   6.008  10.160   2.673 -1.5099 -2.7620 -0.2395
54708SOL     OW81733   1.757  10.007   0.063  0.5502 -0.1026 -0.3320
54708SOL    HW181734   1.733  10.000   0.155  0.9280 -1.1381 -0.2957
54708SOL    HW281735   1.824  10.075   0.061 -0.4345  0.9025 -0.0571
54709SOL     OW81736   0.328   3.734  12.956 -0.0821  0.5046  0.0857
54709SOL    HW181737   0.373   3.798  12.901 -2.8344  3.2181  0.7269
54709SOL    HW281738   0.255   3.703  12.902  1.9336 -3.4264 -0.7547
54710SOL     OW81739   3.097   4.552   3.276  0.2603 -0.6207  0.1975
54710SOL    HW181740   3.027   4.597   3.230 -0.2114 -0.3849  1.1191
54710SOL    HW281741   3.162   4.533   3.208  0.2053  0.9111 -0.3213
54711SOL     OW81742  13.310   2.342   8.347 -0.5152 -0.4779 -0.1050
54711SOL    HW181743  13.322   2.257   8.306  2.9358 -0.7944  1.2230
54711SOL    HW281744  13.276   2.398   8.277 -0.5905 -2.3751 -1.6660
54712SOL     OW81745   0.969   1.217  12.476  0.0410 -0.4272  0.3275
54712SOL    HW181746   0.881   1.256  12.479 -0.1200 -0.6584 -0.8640
54712SOL    HW281747   1.028   1.292  12.463  0.1478 -0.1569  2.0624
54713SOL     OW81748  12.085   1.345   3.633 -0.1057  0.1900  0.3615
54713SOL    HW181749  12.148   1.358   3.705  1.8058 -0.5953 -1.0725
54713SOL    HW281750  12.103   1.418   3.573  0.4250 -0.7822 -0.7022
54714SOL     OW81751  13.698  10.363   3.208  0.8476  0.2483  0.7132
54714SOL    HW181752  13.674  10.341   3.298  0.0657 -1.2137  0.1848
54714SOL    HW281753  13.771  10.304   3.188 -0.7490 -1.4168 -0.4671
54715SOL     OW81754   9.368   7.923   1.583  0.3186  0.3966 -0.7090
54715SOL    HW181755   9.333   7.948   1.668  2.3326  1.5775 -0.1551
54715SOL    HW281756   9.344   7.995   1.524  0.9604  0.7441 -0.5540
54716SOL     OW81757  14.030   7.601  13.595  0.4460  0.4621  0.3801
54716SOL    HW181758  13.962   7.542  13.562  0.9198  0.5073 -0.7401
54716SOL    HW281759  14.020   7.599  13.690 -0.5880 -0.1623  0.2733
54717SOL     OW81760   5.331   5.965   1.904  0.2982 -0.0962 -1.1452
54717SOL    HW181761   5.379   5.892   1.945 -0.7557 -0.5846 -0.7393
54717SOL    HW281762   5.385   6.042   1.921 -0.3664 -0.1647  1.7663
54718SOL     OW81763   2.991   2.122  12.713  0.3012 -0.2655 -0.6102
54718SOL    HW181764   3.011   2.145  12.804 -1.5091  0.8507 -0.4545
54718SOL    HW281765   3.000   2.203  12.664 -1.1266 -0.2979 -0.9743
54719SOL     OW81766   8.460   2.336   9.175 -0.5149  0.4559 -0.6753
54719SOL    HW181767   8.371   2.301   9.165 -1.3073  2.5125 -1.2312
54719SOL    HW281768   8.489   2.302   9.260 -1.5837 -0.7529 -0.7582
54720SOL     OW81769   0.447   8.662   0.707 -0.0390  0.1997 -0.1534
54720SOL    HW181770   0.519   8.722   0.727 -1.3825  1.7988  0.1074
54720SOL    HW281771   0.409   8.695   0.626 -1.3989  0.3032  0.4921
54721SOL     OW81772   3.952   7.988  11.279  0.1684  0.0578 -0.2927
54721SOL    HW181773   3.859   8.007  11.270  0.6208  1.6244 -2.4227
54721SOL    HW281774   3.990   8.071  11.309  1.0449 -0.1428 -0.8113
54722SOL     OW81775   6.127  10.512   1.118  0.0698 -0.5690 -0.3923
54722SOL    HW181776   6.075  10.493   1.196 -0.5144 -0.1673 -0.6789
54722SOL    HW281777   6.191  10.577   1.148 -2.4087  2.4026 -0.9971
54723SOL     OW81778  13.362   6.532   2.785  0.5594  0.5460 -0.5266
54723SOL    HW181779  13.330   6.443   2.770  1.1677  0.5178 -1.7115
54723SOL    HW281780  13.284   6.581   2.812  0.2667 -0.3830  0.3706
54724SOL     OW81781   4.839   9.283   2.697 -0.3462 -0.0872  0.3972
54724SOL    HW181782   4.934   9.272   2.696 -0.4375 -0.9290  0.4685
54724SOL    HW281783   4.805   9.196   2.678 -1.0871  0.6032 -1.7724
54725SOL     OW81784   6.563   1.173   4.045  0.2453 -0.1442 -0.1616
54725SOL    HW181785   6.478   1.175   4.089  0.1858  0.8051 -0.3107
54725SOL    HW281786   6.559   1.094   3.990 -0.7176  0.1470 -0.5268
54726SOL     OW81787   5.868   3.099   3.183  0.1828 -0.0512  0.6288
54726SOL    HW181788   5.822   3.098   3.267  0.3106  1.0651  0.7230
54726SOL    HW281789   5.811   3.150   3.125  1.0288  0.8736  0.5926
54727SOL     OW81790   7.960   9.540   5.439  0.5613 -0.7129 -0.1506
54727SOL    HW181791   7.894   9.481   5.474  2.1135 -1.8631  0.9500
54727SOL    HW281792   7.943   9.624   5.482 -0.5138 -0.8197 -0.3345
54728SOL     OW81793   3.817   9.974   5.383  0.4535  0.2833 -0.5472
54728SOL    HW181794   3.824   9.881   5.401 -0.6889  0.4761  1.1309
54728SOL    HW281795   3.902  10.010   5.408 -0.1514  0.1148  2.0653
54729SOL     OW81796   1.635  10.526   1.860  0.0187 -0.2322  0.3365
54729SOL    HW181797   1.552  10.534   1.906  1.1783  1.1995  2.3424
54729SOL    HW281798   1.682  10.607   1.881  2.1742 -1.2648 -0.2065
54730SOL     OW81799   3.878   7.212   3.682 -0.0139  0.1520  0.0678
54730SOL    HW181800   3.823   7.139   3.652 -0.9854  0.2835  1.4565
54730SOL    HW281801   3.940   7.226   3.610 -0.8364 -0.9873 -0.9038
54731SOL     OW81802   3.470   4.724   8.475 -0.0764  0.3902 -0.4114
54731SOL    HW181803   3.388   4.678   8.455  0.0296  0.3625 -0.7982
54731SOL    HW281804   3.444   4.792   8.537  0.2870 -2.1713  2.8044
54732SOL     OW81805   4.439   0.671  11.174  0.7137  0.5524 -0.2771
54732SOL    HW181806   4.491   0.673  11.254  0.0084  0.9391  0.1908
54732SOL    HW281807   4.349   0.689  11.204  0.5648  1.5221 -1.2496
54733SOL     OW81808   5.909   0.423  13.768  0.1681  0.1589 -0.0877
54733SOL    HW181809   5.919   0.363  13.695 -1.3826  1.4654 -1.4358
54733SOL    HW281810   5.839   0.384  13.821 -0.2766  0.3549 -0.5250
54734SOL     OW81811  11.105  13.331   5.843 -0.5095 -0.3076 -0.3845
54734SOL    HW181812  11.091  13.261   5.907 -1.1654  2.1538  2.3819
54734SOL    HW281813  11.187  13.307   5.800  1.7377 -0.6815  3.5934
54735SOL     OW81814   1.779  11.499  11.707 -0.2462 -0.1393 -0.2073
54735SOL    HW181815   1.869  11.529  11.720  0.1697 -0.5746 -1.9474
54735SOL    HW281816   1.784  11.435  11.636 -1.9265 -0.1613 -0.3461
54736SOL     OW81817  10.334  13.219   1.011  0.4252 -0.3274  0.2132
54736SOL    HW181818  10.333  13.188   1.102  0.9911  1.6690  0.9639
54736SOL    HW281819  10.243  13.240   0.992  0.6081  1.7806  1.3297
54737SOL     OW81820   6.774   6.878  11.510  0.9863  0.2290 -0.4553
54737SOL    HW181821   6.692   6.928  11.511  0.3245 -0.8146 -0.6632
54737SOL    HW281822   6.757   6.804  11.568  1.8454  0.0905 -0.3796
54738SOL     OW81823   9.530  10.735   7.724 -0.3349 -0.0346 -0.2681
54738SOL    HW181824   9.559  10.799   7.660  0.8317 -1.1052 -0.8614
54738SOL    HW281825   9.477  10.673   7.673 -0.2185 -0.3535 -0.0066
54739SOL     OW81826   0.274   9.705  10.809 -0.3520 -0.8262 -0.0260
54739SOL    HW181827   0.263   9.781  10.866 -0.2380 -0.0872 -0.9574
54739SOL    HW281828   0.336   9.648  10.855  1.5907  0.8329 -0.4502
54740SOL     OW81829   7.881   5.931   4.309  0.1312 -0.3721 -0.0910
54740SOL    HW181830   7.813   5.929   4.376  0.9368  0.5104  0.8040
54740SOL    HW281831   7.835   5.949   4.227 -0.7621 -0.3607  0.4078
54741SOL     OW81832  11.305   1.584   3.254  0.3292  0.2718  0.3710
54741SOL    HW181833  11.247   1.599   3.329  1.1070  0.0232  1.0442
54741SOL    HW281834  11.382   1.638   3.272 -0.1099  1.4469 -1.0422
54742SOL     OW81835  10.356   4.712  11.558  0.0160  0.0442  0.5758
54742SOL    HW181836  10.360   4.689  11.651 -0.0560 -1.0447  0.3181
54742SOL    HW281837  10.421   4.655  11.517 -0.0117  0.4644 -0.0596
54743SOL     OW81838   1.796   4.176   8.749  0.5241  0.2008 -0.1796
54743SOL    HW181839   1.727   4.241   8.766 -1.1437 -1.6988  0.8007
54743SOL    HW281840   1.856   4.184   8.823 -0.2674 -0.0482  0.5130
54744SOL     OW81841   9.984   7.946   4.479  0.0600 -0.6075 -0.1333
54744SOL    HW181842  10.017   7.980   4.396 -0.0134  0.3357  0.2087
54744SOL    HW281843   9.966   7.854   4.462  1.2323 -0.7320 -0.8146
54745SOL     OW81844   5.312   0.330  12.621 -0.3648 -0.5493 -0.3212
54745SOL    HW181845   5.353   0.256  12.666 -1.7372 -1.7176 -0.9329
54745SOL    HW281846   5.344   0.324  12.531 -2.0179 -1.6363 -0.8735
54746SOL     OW81847  13.726  12.824  13.682 -0.1671 -0.3894 -0.4328
54746SOL    HW181848  13.793  12.888  13.705 -0.0680 -0.4880 -0.4502
54746SOL    HW281849  13.746  12.799  13.592  1.4923 -2.5311  0.4323
54747SOL     OW81850   5.103   7.835   5.488  0.4804  0.3210 -0.1888
54747SOL    HW181851   5.128   7.781   5.562  1.1126  2.4989  1.2818
54747SOL    HW281852   5.176   7.897   5.477 -1.2058  2.4369 -0.1791
54748SOL     OW81853   0.978  11.624   1.128 -0.0967  0.4537 -0.1311
54748SOL    HW181854   0.964  11.719   1.137 -0.7953  0.2222  1.8418
54748SOL    HW281855   1.047  11.605   1.192  2.0954 -0.0074 -2.4825
54749SOL     OW81856  12.111  13.891   9.796 -0.3736  0.3595 -0.3734
54749SOL    HW181857  12.169  13.856   9.729  0.4699  0.3598  0.3326
54749SOL    HW281858  12.170  13.926   9.863 -1.0010 -3.2165  2.3534
54750SOL     OW81859   1.915   7.274   6.180  0.0370  0.0311 -0.4300
54750SOL    HW181860   1.836   7.263   6.233  0.5858  1.0032  0.6176
54750SOL    HW281861   1.884   7.268   6.089 -1.1774  0.0493 -0.0303
54751SOL     OW81862   9.446   5.500   4.522  0.2562 -0.8027  0.8972
54751SOL    HW181863   9.460   5.552   4.602 -1.1366  1.1901 -0.0465
54751SOL    HW281864   9.373   5.442   4.543 -0.4517  0.0808  0.9777
54752SOL     OW81865   6.170   3.805  13.172  0.2640  0.0039 -0.1405
54752SOL    HW181866   6.249   3.775  13.128 -0.9904 -1.3715 -1.6081
54752SOL    HW281867   6.201   3.858  13.245  2.6414 -2.7438  1.0311
54753SOL     OW81868   2.747  12.085   0.041 -0.1596  0.2442 -0.1544
54753SOL    HW181869   2.744  12.013  -0.021 -0.2594  0.0514  0.0753
54753SOL    HW281870   2.838  12.087   0.072 -0.7418 -1.4801  1.8325
54754SOL     OW81871   4.885   4.849  11.693  0.0095 -0.2086 -0.0337
54754SOL    HW181872   4.887   4.899  11.774  2.3468 -0.9770  0.4491
54754SOL    HW281873   4.792   4.829  11.679 -0.7644  2.4133  0.8483
54755SOL     OW81874  11.159   7.042   1.840  0.2421 -0.4179  0.3820
54755SOL    HW181875  11.121   7.059   1.926 -0.0207 -0.1419  0.2134
54755SOL    HW281876  11.120   6.959   1.812 -0.7562  0.1853 -0.0754
54756SOL     OW81877   8.114  12.305  12.379  0.1811 -0.4889 -0.0389
54756SOL    HW181878   8.173  12.364  12.426 -0.4980  0.2852 -0.1359
54756SOL    HW281879   8.160  12.221  12.378  0.9969 -0.0614  0.4346
54757SOL     OW81880  12.065   3.236   1.423  0.0449 -0.0734  0.0710
54757SOL    HW181881  12.064   3.204   1.333  0.8440  0.7512 -0.2386
54757SOL    HW281882  12.105   3.165   1.473 -0.3393 -0.5054 -0.2208
54758SOL     OW81883   5.929   1.668  11.914  0.5892 -0.1207 -0.4850
54758SOL    HW181884   5.964   1.755  11.902  1.0942 -0.5305 -2.2851
54758SOL    HW281885   6.002   1.616  11.949  0.2465  0.1754  0.7314
54759SOL     OW81886   0.720   1.181   8.799  0.2307  0.2784  0.3992
54759SOL    HW181887   0.702   1.208   8.710  1.5793 -1.2234 -0.3893
54759SOL    HW281888   0.815   1.167   8.801  0.0811 -0.7738  1.7326
54760SOL     OW81889   6.405   1.781  13.466  0.1198  0.0156 -0.0144
54760SOL    HW181890   6.379   1.847  13.530 -1.0350 -0.9231  0.5296
54760SOL    HW281891   6.336   1.715  13.470  1.5225 -1.5291 -0.1185
54761SOL     OW81892  11.021   5.468  11.474  0.1512 -0.3511 -0.3856
54761SOL    HW181893  10.992   5.559  11.479 -0.0216 -0.3369 -1.4405
54761SOL    HW281894  11.060   5.450  11.559 -0.1496  0.5969 -0.0426
54762SOL     OW81895   1.635   3.729   1.619  0.6927 -0.4225 -0.2692
54762SOL    HW181896   1.678   3.646   1.600 -0.9060 -0.9943 -1.7120
54762SOL    HW281897   1.541   3.710   1.611  0.2692  1.4417 -0.3431
54763SOL     OW81898   3.464   1.706   3.339 -0.0503  0.2529  0.4511
54763SOL    HW181899   3.533   1.728   3.276 -0.3295 -0.4179 -0.1032
54763SOL    HW281900   3.484   1.616   3.366 -0.3552  0.2766  0.7714
54764SOL     OW81901   7.313   3.561   6.957 -0.1328 -0.4604  0.4284
54764SOL    HW181902   7.229   3.566   6.911 -0.7189  0.2586  1.5095
54764SOL    HW281903   7.343   3.652   6.963  0.6982 -0.7059  0.1072
54765SOL     OW81904   3.954   5.865   9.633 -0.2282 -0.0118 -0.2032
54765SOL    HW181905   3.874   5.813   9.628 -0.9192  1.0464 -0.5513
54765SOL    HW281906   3.976   5.884   9.542 -0.4864  1.0305 -0.0574
54766SOL     OW81907   7.619   3.722  12.584 -0.2152 -0.1865 -0.3144
54766SOL    HW181908   7.559   3.679  12.645  0.5489 -1.5756 -0.5011
54766SOL    HW281909   7.659   3.650  12.535  1.3908  0.7096 -0.3871
54767SOL     OW81910   0.682   2.000   6.219  0.0444  0.2784  0.0927
54767SOL    HW181911   0.623   2.021   6.147  1.1883 -0.0632 -0.9813
54767SOL    HW281912   0.636   1.933   6.270 -0.7747  0.5240 -0.3260
54768SOL     OW81913   3.104   6.464   9.822  0.4401  0.5996  0.4260
54768SOL    HW181914   3.119   6.458   9.728  0.9588 -0.1768  0.5483
54768SOL    HW281915   3.023   6.414   9.836  0.9224 -0.1734  0.5179
54769SOL     OW81916   2.547  11.622   7.701  0.2008  0.1732 -0.0355
54769SOL    HW181917   2.554  11.652   7.610  1.7667  1.9081  0.5743
54769SOL    HW281918   2.453  11.625   7.720  0.0161  1.9877 -0.9526
54770SOL     OW81919   4.660   0.132   0.169  0.4974  0.4458  0.4252
54770SOL    HW181920   4.683   0.088   0.251 -1.0519  0.0230  0.6593
54770SOL    HW281921   4.631   0.219   0.195  0.8929  0.6361  0.2323
54771SOL     OW81922   3.258   9.136   1.479 -0.4477  0.2875 -0.7270
54771SOL    HW181923   3.168   9.148   1.448 -0.6048  1.7105  0.1962
54771SOL    HW281924   3.248   9.094   1.565 -0.3194  1.5477 -0.0742
54772SOL     OW81925   3.134   6.741   0.737 -0.1370  0.0983 -0.0291
54772SOL    HW181926   3.119   6.825   0.780  0.0634  1.3267 -2.1784
54772SOL    HW281927   3.229   6.730   0.736 -0.1474  0.0050 -0.0042
54773SOL     OW81928   4.025   5.256  11.570 -0.0743  0.7325 -0.0540
54773SOL    HW181929   3.961   5.185  11.576 -0.5327  1.2133  1.0399
54773SOL    HW281930   3.972   5.334  11.552  0.3968  0.8537 -0.9828
54774SOL     OW81931   8.752  13.332  12.779  0.0905 -0.4663  0.0758
54774SOL    HW181932   8.840  13.297  12.765  0.0257 -0.6307  0.0728
54774SOL    HW281933   8.750  13.413  12.729  0.0195 -0.8045 -0.4815
54775SOL     OW81934   5.658  12.451  12.994 -0.0509 -0.0558  0.0718
54775SOL    HW181935   5.688  12.526  12.943 -1.0491  0.6764  0.5332
54775SOL    HW281936   5.712  12.378  12.963  0.9972  0.8552 -0.3255
54776SOL     OW81937   3.370   7.787   0.280  0.3887  0.6501  0.3569
54776SOL    HW181938   3.450   7.797   0.331 -0.2246  2.0816  1.1008
54776SOL    HW281939   3.311   7.737   0.336  0.4161  0.4543  0.2129
54777SOL     OW81940  12.463   2.000  10.384 -0.2377  0.0101  0.6581
54777SOL    HW181941  12.433   2.068  10.444 -1.2779 -0.6188  0.8878
54777SOL    HW281942  12.390   1.937  10.381  0.6764 -1.0781  0.4425
54778SOL     OW81943  10.646   8.801   5.635 -0.4264 -0.3499 -0.2249
54778SOL    HW181944  10.629   8.764   5.548 -2.2782 -1.1185  0.4000
54778SOL    HW281945  10.652   8.725   5.693 -1.8005  0.1923  0.6983
54779SOL     OW81946  10.182   4.475  12.698 -0.3857 -0.1658 -0.1111
54779SOL    HW181947  10.130   4.494  12.620 -0.7138  0.9248  0.3478
54779SOL    HW281948  10.128   4.415  12.750  0.2305 -1.6503 -1.1254
54780SOL     OW81949   7.703  13.595  11.400  0.2648  0.1111  0.4097
54780SOL    HW181950   7.708  13.583  11.495  0.4602  2.5087  0.7801
54780SOL    HW281951   7.768  13.664  11.382  1.3683 -1.3823 -1.7129
54781SOL     OW81952   3.439  11.441   5.389  0.1430  0.2330 -0.3136
54781SOL    HW181953   3.413  11.490   5.311  1.8634  0.5803 -0.7129
54781SOL    HW281954   3.399  11.355   5.377 -0.4582  0.6048 -1.0800
54782SOL     OW81955  13.721   6.599   4.839 -0.0601  0.0298 -0.1218
54782SOL    HW181956  13.640   6.643   4.863 -0.9866 -1.5148 -0.3070
54782SOL    HW281957  13.739   6.629   4.750 -0.1750  0.7212  0.0816
54783SOL     OW81958  10.631  12.788   1.560  0.3327  0.0803 -0.4103
54783SOL    HW181959  10.679  12.719   1.607 -0.8639  0.1103  0.9045
54783SOL    HW281960  10.539  12.773   1.582  0.0537  2.1565 -0.0144
54784SOL     OW81961   1.951   4.853   2.153  0.3133 -0.4408 -0.0724
54784SOL    HW181962   1.960   4.795   2.229  0.3087 -1.7171 -1.0221
54784SOL    HW281963   2.009   4.816   2.087 -0.1667  0.2837 -0.9224
54785SOL     OW81964   1.651   8.797   0.891 -0.3699  0.2474  0.3115
54785SOL    HW181965   1.716   8.742   0.846 -0.7539 -0.2566  0.3628
54785SOL    HW281966   1.577   8.738   0.907 -0.6667  0.7047  0.6433
54786SOL     OW81967  10.376   4.044   7.898  0.8781 -0.5053  0.0034
54786SOL    HW181968  10.292   4.088   7.911  1.4025  0.6825 -0.4941
54786SOL    HW281969  10.352   3.955   7.874 -0.2323 -0.3221  0.3500
54787SOL     OW81970   6.184   4.628  12.105  0.3835 -0.0150  0.4270
54787SOL    HW181971   6.173   4.692  12.035  1.3082 -0.7698 -0.4255
54787SOL    HW281972   6.243   4.670  12.168 -1.6380  1.2795  1.5828
54788SOL     OW81973   2.844   1.001  11.909  0.1233 -0.1536 -0.1959
54788SOL    HW181974   2.775   1.002  11.842 -0.6041  0.3536  0.5323
54788SOL    HW281975   2.902   0.929  11.884  0.3147  0.5217 -1.8111
54789SOL     OW81976   0.045   6.833   5.225  0.2163  0.4639  0.2210
54789SOL    HW181977   0.022   6.914   5.272 -0.1612 -0.0808  0.9863
54789SOL    HW281978   0.034   6.856   5.132  0.4464  1.3915  0.4086
54790SOL     OW81979   4.517   5.054   0.431  0.7145 -0.5157  0.1170
54790SOL    HW181980   4.455   5.088   0.495 -1.2603 -0.1362 -1.8833
54790SOL    HW281981   4.593   5.027   0.483 -0.6968 -0.0551  2.5538
54791SOL     OW81982   3.495   4.973  10.952 -0.2966  0.1276  0.1108
54791SOL    HW181983   3.519   4.967  11.044  0.2247  0.2473 -0.0185
54791SOL    HW281984   3.486   4.882  10.923 -0.2934  0.0880  0.2355
54792SOL     OW81985   1.116  12.557   0.889  0.7757 -0.3669  0.2222
54792SOL    HW181986   1.082  12.566   0.978  0.2860 -1.0047  0.1080
54792SOL    HW281987   1.133  12.463   0.880 -2.1984 -0.8745 -1.4137
54793SOL     OW81988   1.069   9.125   4.268  0.3683  0.4819  0.5193
54793SOL    HW181989   1.014   9.122   4.190 -2.7193  0.5254  2.5421
54793SOL    HW281990   1.116   9.042   4.267 -0.8127 -0.2099 -0.5514
54794SOL     OW81991  13.365  12.808   5.584 -0.7157 -0.3760 -0.3130
54794SOL    HW181992  13.426  12.747   5.625  0.3058  0.4106 -0.6051
54794SOL    HW281993  13.390  12.809   5.491 -0.5090  0.6644 -0.2701
54795SOL     OW81994   9.174  11.882   1.750 -0.0698  0.1548  0.4638
54795SOL    HW181995   9.225  11.948   1.701  0.4817 -0.0781  0.7100
54795SOL    HW281996   9.152  11.925   1.832 -1.3667  0.6993 -0.1354
54796SOL     OW81997   0.598  10.057   3.091  0.1670 -0.1845  0.2466
54796SOL    HW181998   0.594  10.144   3.131  2.5760 -0.0820  0.4342
54796SOL    HW281999   0.679  10.019   3.125 -0.4760 -2.2525 -0.3786
54797SOL     OW82000   3.620   6.258   8.136 -0.0006 -0.9182 -0.1822
54797SOL    HW182001   3.541   6.280   8.087  0.0194 -2.0834 -0.7591
54797SOL    HW282002   3.668   6.198   8.079  0.5799 -1.3859  0.7807
54798SOL     OW82003   0.616   6.341   0.275 -0.3315 -0.3438 -0.1484
54798SOL    HW182004   0.539   6.334   0.219  0.7514 -2.0722 -1.5052
54798SOL    HW282005   0.684   6.376   0.218  0.6114 -1.4682  0.2481
54799SOL     OW82006   4.739   8.409   5.023  0.7073 -0.3043 -0.6469
54799SOL    HW182007   4.679   8.475   4.990  1.4487  0.5821 -0.2813
54799SOL    HW282008   4.825   8.450   5.019  1.2669 -1.4409 -0.8949
54800SOL     OW82009   6.501   5.640   4.716  0.0478 -0.2783 -0.4797
54800SOL    HW182010   6.502   5.709   4.782  0.6713 -0.9133  0.1945
54800SOL    HW282011   6.590   5.641   4.680 -0.0035 -0.5954 -0.6126
54801SOL     OW82012  12.884  13.831   8.628 -0.0348 -0.2195  0.1624
54801SOL    HW182013  12.857  13.913   8.587 -1.9744 -1.7929 -1.9658
54801SOL    HW282014  12.966  13.808   8.583  1.6553  1.4105  2.1711
54802SOL     OW82015  10.313   9.399  13.298  0.2909 -0.1111 -0.1696
54802SOL    HW182016  10.372   9.458  13.251 -0.3330  1.9191  1.4185
54802SOL    HW282017  10.363   9.369  13.373  0.1016 -0.3858 -0.1502
54803SOL     OW82018   3.149  10.139  13.841  0.6077  0.3412 -0.0505
54803SOL    HW182019   3.067  10.183  13.864 -1.3004 -1.7608 -2.1136
54803SOL    HW282020   3.160  10.072  13.909  0.8560  0.8883  0.4551
54804SOL     OW82021   9.528  11.223   6.374 -0.1417  0.0315  0.5417
54804SOL    HW182022   9.515  11.229   6.469 -2.6558 -0.2461  0.3043
54804SOL    HW282023   9.588  11.150   6.363  0.5060  0.3057  1.9154
54805SOL     OW82024   1.467  10.379   3.614 -0.8361  0.1129  0.4658
54805SOL    HW182025   1.408  10.335   3.675 -1.1369 -1.2972 -0.7955
54805SOL    HW282026   1.547  10.327   3.615 -0.5606  0.5211  0.2380
54806SOL     OW82027   4.775   1.720   5.412 -0.0549 -0.1629 -0.1140
54806SOL    HW182028   4.706   1.751   5.353 -2.0445 -0.0581  2.0920
54806SOL    HW282029   4.728   1.669   5.479  2.3494 -2.2508  0.1282
54807SOL     OW82030  12.066   5.834  12.243 -0.2995 -0.0760  0.2171
54807SOL    HW182031  11.973   5.816  12.261 -0.6406  2.2603  1.1044
54807SOL    HW282032  12.076   5.815  12.150 -1.3619 -1.4044  0.3237
54808SOL     OW82033  11.820   5.123   0.821  0.3522  0.1066  0.0668
54808SOL    HW182034  11.789   5.208   0.790  1.8476  1.6047  2.3881
54808SOL    HW282035  11.742   5.080   0.855 -0.2084  1.1260  0.1200
54809SOL     OW82036   4.059   8.660   6.702  0.1835 -0.4586 -0.1612
54809SOL    HW182037   4.097   8.710   6.630 -0.1797 -1.6240 -1.2056
54809SOL    HW282038   3.971   8.639   6.673 -0.3422 -0.0589  1.0933
54810SOL     OW82039   8.742   0.581  12.773 -0.2303  0.1695  0.3551
54810SOL    HW182040   8.686   0.607  12.699  0.2888 -0.9406 -0.4548
54810SOL    HW282041   8.720   0.489  12.788  1.6463 -0.4041 -0.2443
54811SOL     OW82042   5.144   4.365   4.811  0.2159  0.1215  0.2450
54811SOL    HW182043   5.092   4.290   4.840 -0.4383 -0.2480 -1.7375
54811SOL    HW282044   5.181   4.338   4.727  1.3458  1.4293  0.2694
54812SOL     OW82045   8.789   0.446  10.557 -0.0568  0.2639 -0.2307
54812SOL    HW182046   8.833   0.496  10.625  1.4889  1.7327 -2.1899
54812SOL    HW282047   8.704   0.490  10.545  0.3939  1.0870 -0.4479
54813SOL     OW82048  11.109   6.746   1.803  0.4466  0.0200  0.0849
54813SOL    HW182049  11.024   6.702   1.797 -0.2578  1.3316  0.1438
54813SOL    HW282050  11.128   6.749   1.897  0.7898 -0.6537  0.0494
54814SOL     OW82051  10.780  11.261   0.539  0.4187 -0.0906  0.0969
54814SOL    HW182052  10.781  11.167   0.519  0.7783 -0.4179  1.5176
54814SOL    HW282053  10.873  11.283   0.551  0.2672  0.2574  0.6175
54815SOL     OW82054   3.045  10.623   8.765 -0.3511 -0.0566  0.8088
54815SOL    HW182055   2.958  10.597   8.735  0.3888 -0.4924 -1.0529
54815SOL    HW282056   3.106  10.581   8.705  1.2070 -0.2420  2.4078
54816SOL     OW82057   6.940   4.044  10.038 -0.5659  0.1010  0.6003
54816SOL    HW182058   7.017   3.989  10.029 -0.4091  0.4438 -0.2787
54816SOL    HW282059   6.928   4.054  10.133 -1.4489 -2.5772  0.8300
54817SOL     OW82060  13.251  10.918  13.839  0.2611 -0.1692  0.6135
54817SOL    HW182061  13.283  10.951  13.923  0.5763 -0.3218  0.5540
54817SOL    HW282062  13.330  10.907  13.786  0.4958 -3.2884  1.4195
54818SOL     OW82063   1.336  13.982   6.172  0.1736 -0.6773  0.0553
54818SOL    HW182064   1.322  13.999   6.078  0.7072  2.0707  0.3913
54818SOL    HW282065   1.419  14.026   6.191  0.0125 -1.1091  1.8566
54819SOL     OW82066   6.057   0.238  12.774  0.3146 -0.6635 -0.2042
54819SOL    HW182067   6.129   0.181  12.797  0.6876  0.9122  3.0011
54819SOL    HW282068   6.096   0.305  12.718  0.9616 -0.7600  0.1292
54820SOL     OW82069   8.727   4.716  13.340 -0.8600  0.4427  0.4142
54820SOL    HW182070   8.658   4.688  13.279 -0.9058  1.8033 -0.1828
54820SOL    HW282071   8.758   4.798  13.304  1.8079 -0.6160  0.1015
54821SOL     OW82072  12.163   6.300   7.983 -0.5156 -0.2557  0.6344
54821SOL    HW182073  12.146   6.316   7.890 -0.9684  0.3278  0.8104
54821SOL    HW282074  12.244   6.249   7.985 -0.2441  0.1445 -0.0583
54822SOL     OW82075   6.963   1.257   9.875  0.4359  0.6589  0.9231
54822SOL    HW182076   6.968   1.165   9.846 -1.1747  0.4514  1.2042
54822SOL    HW282077   6.996   1.256   9.965  0.8188  0.4366  0.7836
54823SOL     OW82078   1.240  12.229  11.603  0.3504  0.4395  0.2235
54823SOL    HW182079   1.312  12.271  11.650  0.8265 -0.2386  0.1188
54823SOL    HW282080   1.279  12.151  11.563 -0.6433 -0.5001  1.0022
54824SOL     OW82081   4.603  12.665  13.178  0.7431 -0.7096  0.0911
54824SOL    HW182082   4.510  12.670  13.156  0.6970  1.3288  0.5530
54824SOL    HW282083   4.604  12.623  13.264  0.4326 -2.4324 -0.6941
54825SOL     OW82084   2.249   6.813   1.085  0.0386 -0.3747 -0.1119
54825SOL    HW182085   2.292   6.729   1.067  0.2048 -0.0795 -1.2143
54825SOL    HW282086   2.277   6.869   1.012 -2.9687 -0.4448 -1.4621
54826SOL     OW82087  13.186  10.784   7.523  0.1953 -0.7165 -0.1113
54826SOL    HW182088  13.182  10.874   7.554  0.5134 -0.8685  0.3804
54826SOL    HW282089  13.187  10.731   7.602  1.4113 -1.0945 -0.3559
54827SOL     OW82090   7.983  11.437   6.175 -0.2064  0.1746  0.1149
54827SOL    HW182091   7.979  11.420   6.081  0.1338  1.1212 -0.0845
54827SOL    HW282092   8.066  11.401   6.203  0.2879  1.0224 -0.2091
54828SOL     OW82093   2.947   4.203   4.635 -0.1467  0.0407 -0.7129
54828SOL    HW182094   2.878   4.225   4.573 -1.1114  1.1744  0.6920
54828SOL    HW282095   2.943   4.107   4.642  0.5250 -0.2137 -2.9201
54829SOL     OW82096   6.196  12.259  11.296  0.4654  0.0576 -0.1059
54829SOL    HW182097   6.282  12.231  11.263  0.1761 -0.2609 -0.6034
54829SOL    HW282098   6.148  12.178  11.310  0.7664  0.1429  1.6749
54830SOL     OW82099  12.978   2.750   2.971 -0.6807  0.4169 -0.8353
54830SOL    HW182100  13.050   2.696   2.941  0.6561  1.9790 -0.5706
54830SOL    HW282101  12.904   2.689   2.980  0.9530 -1.5017  0.3028
54831SOL     OW82102   3.673   5.773   3.109 -0.0919 -0.1073  0.6064
54831SOL    HW182103   3.696   5.864   3.124  0.4119 -0.5002  2.5858
54831SOL    HW282104   3.673   5.763   3.014  0.2180  1.8429  0.3627
54832SOL     OW82105   0.884   9.307   1.929 -0.0492  0.6564 -0.0588
54832SOL    HW182106   0.955   9.268   1.979 -0.2349 -0.5603 -0.6840
54832SOL    HW282107   0.844   9.371   1.988  1.9175  1.8075  0.0785
54833SOL     OW82108   1.500  10.848   8.093 -0.0192  0.0866  0.2623
54833SOL    HW182109   1.449  10.900   8.155  1.7181 -0.4381  2.2508
54833SOL    HW282110   1.490  10.758   8.123  0.6252 -0.2105 -0.3831
54834SOL     OW82111   7.209   6.665   7.687  0.3560  0.2458  0.0576
54834SOL    HW182112   7.168   6.603   7.748 -0.6267  1.9801  1.2439
54834SOL    HW282113   7.163   6.747   7.702  1.4397  1.2204 -1.6629
54835SOL     OW82114   9.890   3.081   0.725 -0.8814  0.7079  0.2614
54835SOL    HW182115   9.938   3.106   0.646 -0.2377  2.5925  1.1853
54835SOL    HW282116   9.831   3.011   0.696  0.4343  0.2524 -1.5179
54836SOL     OW82117   4.625  12.395   5.842 -0.3085 -0.1588  0.3003
54836SOL    HW182118   4.698  12.429   5.893  1.7214 -1.6061 -1.4654
54836SOL    HW282119   4.558  12.463   5.847  0.8416  0.8938  2.5971
54837SOL     OW82120   0.244   9.443  13.849 -0.5716 -0.1925  0.7322
54837SOL    HW182121   0.195   9.524  13.831 -1.9579 -0.4473  2.9571
54837SOL    HW282122   0.323   9.473  13.893 -0.9927 -0.0016  1.3810
54838SOL     OW82123   3.611   9.702   1.888  0.5037 -0.3036 -0.3690
54838SOL    HW182124   3.596   9.656   1.970  1.2748 -0.2015 -0.1654
54838SOL    HW282125   3.613   9.634   1.822  2.5041 -0.6981  0.0330
54839SOL     OW82126   4.647   9.522   3.640  0.3011 -0.0158 -0.0389
54839SOL    HW182127   4.689   9.543   3.723  1.4793 -0.2183 -0.5691
54839SOL    HW282128   4.594   9.445   3.658  0.1697  0.2255  0.6323
54840SOL     OW82129  12.414   5.219   5.899 -0.1267 -0.5001 -0.0755
54840SOL    HW182130  12.326   5.183   5.893 -0.6416  0.7756 -0.5002
54840SOL    HW282131  12.403   5.302   5.945  0.8883 -0.3968  0.0111
54841SOL     OW82132   0.847  11.361  13.166 -0.0184  0.4462  0.4670
54841SOL    HW182133   0.888  11.422  13.229  2.2062 -1.4067  0.9478
54841SOL    HW282134   0.806  11.295  13.221 -1.1253  0.6683 -0.0676
54842SOL     OW82135   9.079  13.672  13.360  0.1519 -0.0476  0.2094
54842SOL    HW182136   8.985  13.678  13.375 -0.2328 -0.0289 -1.8777
54842SOL    HW282137   9.119  13.702  13.442 -1.6410  0.8085  0.8168
54843SOL     OW82138   8.391   7.474   3.166  0.3586  0.3699  0.1383
54843SOL    HW182139   8.432   7.402   3.215  0.7903  0.8309  0.4684
54843SOL    HW282140   8.368   7.538   3.233  0.7420  0.9082 -0.2364
54844SOL     OW82141   2.518   6.474   3.488  0.1462 -0.1898 -0.8729
54844SOL    HW182142   2.580   6.534   3.528  0.6988  0.3197 -2.4155
54844SOL    HW282143   2.439   6.480   3.542  1.0278  0.0543  0.4182
54845SOL     OW82144   4.196   6.233   1.100 -1.0914  0.6756  0.2648
54845SOL    HW182145   4.229   6.283   1.026 -1.0832  1.7791  0.9858
54845SOL    HW282146   4.101   6.230   1.087 -0.9590 -0.3494 -0.5129
54846SOL     OW82147   3.818   3.195   0.055  0.3785  0.0864  0.1802
54846SOL    HW182148   3.872   3.204   0.134  0.0632 -3.8252  1.0055
54846SOL    HW282149   3.874   3.152  -0.009 -0.2422  0.6350 -0.7670
54847SOL     OW82150  13.270   8.786   6.692 -0.3010  0.0670 -0.6523
54847SOL    HW182151  13.346   8.744   6.651 -0.0602 -1.4559  1.1541
54847SOL    HW282152  13.199   8.722   6.682 -0.9276  0.8023 -0.9664
54848SOL     OW82153   4.406  13.578   3.863  0.3596 -0.3005  0.7358
54848SOL    HW182154   4.406  13.496   3.814 -1.7410 -0.4282  0.8639
54848SOL    HW282155   4.339  13.566   3.931 -0.1470  1.5659  0.6230
54849SOL     OW82156   3.008   3.138   8.873  0.7510  0.0588 -0.1291
54849SOL    HW182157   2.987   3.101   8.959 -0.0436  0.4748 -0.1348
54849SOL    HW282158   2.933   3.194   8.852  0.6341 -0.5306 -1.3769
54850SOL     OW82159  10.032   2.547   5.036 -0.4133  0.5314  0.5688
54850SOL    HW182160  10.120   2.562   5.071 -0.7425  1.7966  0.8845
54850SOL    HW282161  10.024   2.608   4.963 -0.9192  0.2057  0.3482
54851SOL     OW82162   6.899  13.905  13.402  0.1918 -0.4838  0.4967
54851SOL    HW182163   6.858  13.847  13.465 -1.5548  1.2714  1.0663
54851SOL    HW282164   6.827  13.952  13.360  1.3921 -0.4310 -1.6778
54852SOL     OW82165   8.705   4.045   7.447  0.0095 -0.5164 -0.0837
54852SOL    HW182166   8.650   4.085   7.514  0.1749 -1.1264  0.4338
54852SOL    HW282167   8.656   4.055   7.366 -0.6353 -0.6058  0.2867
54853SOL     OW82168  11.149   0.608   5.825  0.0546  0.2869  0.1482
54853SOL    HW182169  11.152   0.658   5.907 -1.2145  0.0829  0.3372
54853SOL    HW282170  11.196   0.662   5.762 -0.6283  1.3703  0.5466
54854SOL     OW82171   4.017   4.968   0.321  0.4553  0.6364  0.0229
54854SOL    HW182172   3.995   4.881   0.290  0.3237  1.4029 -2.2879
54854SOL    HW282173   3.935   5.017   0.316  0.5594  0.9411  1.1374
54855SOL     OW82174   0.732   0.488  11.485 -0.3095  0.5954  0.6587
54855SOL    HW182175   0.786   0.418  11.449 -1.9109 -0.2068 -0.3246
54855SOL    HW282176   0.785   0.526  11.555  1.0833 -0.8207  0.4300
54856SOL     OW82177   9.610   3.870   7.553  0.2196 -0.0215  0.1924
54856SOL    HW182178   9.692   3.885   7.600 -0.0579 -0.8418  0.9756
54856SOL    HW282179   9.624   3.789   7.504 -0.6098 -1.0674  1.5822
54857SOL     OW82180  12.563   5.610   9.784 -0.7213  0.1135  0.6721
54857SOL    HW182181  12.565   5.706   9.788  0.2459  0.1410 -0.1748
54857SOL    HW282182  12.616   5.588   9.708 -1.0376 -1.1002  0.7862
54858SOL     OW82183   4.491   1.112   3.469 -0.2425  0.0655 -0.7987
54858SOL    HW182184   4.583   1.094   3.489 -0.0055  0.9727 -1.0047
54858SOL    HW282185   4.490   1.205   3.446 -1.5081  0.5597  0.9977
54859SOL     OW82186   4.222   1.319   3.966 -0.5279  0.4885  0.4173
54859SOL    HW182187   4.257   1.300   3.879 -0.4771  1.2929  0.2544
54859SOL    HW282188   4.299   1.331   4.021 -0.5518 -0.6303  0.7333
54860SOL     OW82189   4.098   7.105   5.205  0.1708  0.0822  0.4000
54860SOL    HW182190   4.164   7.101   5.274 -1.4261 -0.0580  1.9719
54860SOL    HW282191   4.094   7.197   5.180  0.2026  0.2634  1.0592
54861SOL     OW82192   1.455   6.962   6.009 -0.0659 -0.2131 -0.1670
54861SOL    HW182193   1.503   6.900   6.062 -1.4890 -0.8026  0.4854
54861SOL    HW282194   1.365   6.928   6.006 -0.2931  0.3842 -2.0335
54862SOL     OW82195   9.726   9.938   1.535  0.8951  0.2880  0.1732
54862SOL    HW182196   9.807   9.899   1.502  0.5377 -0.0464 -0.3239
54862SOL    HW282197   9.679   9.865   1.576  0.0679  0.1047 -1.0665
54863SOL     OW82198   4.177   3.801   1.688 -0.0605 -0.3495  0.6494
54863SOL    HW182199   4.085   3.779   1.704 -0.2779 -2.4041 -2.5088
54863SOL    HW282200   4.179   3.896   1.687 -2.5192 -0.2458 -0.7532
54864SOL     OW82201   2.681   5.201  13.755  0.3575 -0.4187 -0.2243
54864SOL    HW182202   2.666   5.140  13.827  1.7450 -1.1423 -0.5077
54864SOL    HW282203   2.776   5.213  13.753  0.3624 -0.4850 -1.9822
54865SOL     OW82204   4.064  13.794   0.644  0.4228 -0.5858  0.2926
54865SOL    HW182205   4.014  13.726   0.599  0.6867 -1.7394  1.6879
54865SOL    HW282206   4.131  13.819   0.580  0.6865 -2.0586 -0.0652
54866SOL     OW82207   4.091   9.804   3.663 -0.8106  0.4730  0.1147
54866SOL    HW182208   4.101   9.727   3.606 -1.1970  1.9947 -2.1604
54866SOL    HW282209   4.009   9.789   3.709 -0.9693 -0.3932 -0.4227
54867SOL     OW82210  10.620  10.381  11.538 -0.3034  0.0641 -0.1171
54867SOL    HW182211  10.645  10.289  11.525  1.8715  0.8354 -2.0521
54867SOL    HW282212  10.687  10.416  11.597  0.3806  0.9627 -1.3798
54868SOL     OW82213   8.528   3.695  12.548  0.0438 -0.1892  0.1454
54868SOL    HW182214   8.548   3.785  12.522 -0.0707 -0.1286  0.2694
54868SOL    HW282215   8.515   3.649  12.465 -0.8504  0.1233  0.1048
54869SOL     OW82216   5.883   2.506   9.112 -0.3056  0.2341  1.2745
54869SOL    HW182217   5.845   2.518   9.025  0.3109 -0.3438  0.9114
54869SOL    HW282218   5.939   2.582   9.125 -0.3422  0.2854  1.1320
54870SOL     OW82219   4.021   6.268   8.707  0.1855 -0.1895  0.4727
54870SOL    HW182220   4.046   6.276   8.614 -1.4585  0.7613  0.0697
54870SOL    HW282221   4.097   6.301   8.755  1.3555 -1.3758 -0.4781
54871SOL     OW82222   6.466   2.775   6.085 -0.0826 -0.2131 -0.1250
54871SOL    HW182223   6.438   2.808   6.000  1.3457  1.7956  0.0877
54871SOL    HW282224   6.494   2.854   6.133  3.1030 -1.6245  0.6541
54872SOL     OW82225   3.583   0.275   8.082 -0.3307 -0.2073 -0.0600
54872SOL    HW182226   3.549   0.202   8.031  1.2520 -0.9206 -0.1569
54872SOL    HW282227   3.633   0.327   8.019 -0.5221  0.3542  0.2408
54873SOL     OW82228   1.818   3.122   7.879  0.2907  0.2045  0.3497
54873SOL    HW182229   1.735   3.094   7.842  0.3108  1.0413 -0.3751
54873SOL    HW282230   1.884   3.096   7.814  0.6015 -0.4475  0.9136
54874SOL     OW82231  13.161   0.089   0.773  0.3668 -0.0532  0.0352
54874SOL    HW182232  13.194   0.128   0.692  1.7216 -0.1172  0.5347
54874SOL    HW282233  13.160   0.161   0.836  1.2321 -0.4278  0.4925
54875SOL     OW82234   2.868  14.001   7.821  0.1728  0.2755  0.3734
54875SOL    HW182235   2.839  13.937   7.887  1.1876 -0.5704  0.0200
54875SOL    HW282236   2.791  14.013   7.765 -0.4838  0.4788  1.2958
54876SOL     OW82237   1.337   5.234   2.681  0.0601  0.0812  0.6010
54876SOL    HW182238   1.253   5.233   2.636 -0.0065 -0.9146  0.7232
54876SOL    HW282239   1.338   5.317   2.729 -0.7043  0.2519  0.3332
54877SOL     OW82240  10.733   4.452   3.220  0.5014  0.2353  0.4884
54877SOL    HW182241  10.808   4.457   3.279 -0.6529  2.2336  1.9053
54877SOL    HW282242  10.722   4.358   3.203  2.9544 -0.1409  0.6391
54878SOL     OW82243  12.853  12.578   1.866  0.3741 -0.0407  0.1053
54878SOL    HW182244  12.881  12.502   1.815  0.2594  1.3144 -2.1240
54878SOL    HW282245  12.925  12.641   1.856  0.0689  0.5085  1.1583
54879SOL     OW82246  11.404  12.798   6.713 -0.1031 -0.1357  0.4757
54879SOL    HW182247  11.348  12.780   6.638  0.9679  0.8187 -0.5938
54879SOL    HW282248  11.344  12.795   6.788 -1.6192  0.8571 -0.6138
54880SOL     OW82249  11.769   5.964   0.743 -0.1696 -0.5990 -0.3846
54880SOL    HW182250  11.835   6.010   0.691  0.3068  0.1580  0.8376
54880SOL    HW282251  11.695   6.024   0.748  0.9611  0.7105  2.3360
54881SOL     OW82252  12.504   8.823   6.122  0.8322  0.6442  0.0007
54881SOL    HW182253  12.533   8.773   6.046 -0.7770  0.0494 -0.2668
54881SOL    HW282254  12.579   8.823   6.181  1.0809 -1.6535 -0.2251
54882SOL     OW82255   6.891   0.669   4.821 -0.0651  0.1072 -0.1102
54882SOL    HW182256   6.878   0.655   4.915 -1.4870  1.4024 -0.0689
54882SOL    HW282257   6.976   0.630   4.802 -1.0792 -3.0213  1.0902
54883SOL     OW82258   4.341   9.990   3.651  0.0804  0.0791 -0.5821
54883SOL    HW182259   4.329  10.016   3.742  0.5382 -1.6431  0.0004
54883SOL    HW282260   4.255  10.004   3.611 -0.4782 -0.3300  0.4316
54884SOL     OW82261   2.976   3.321   9.515 -0.6879 -0.0171 -0.1911
54884SOL    HW182262   2.955   3.384   9.585 -0.6127 -0.7314  0.4902
54884SOL    HW282263   2.920   3.346   9.442 -1.1041  0.4621  0.2832
54885SOL     OW82264   3.493   2.576   2.760  0.3358  0.0427 -0.0989
54885SOL    HW182265   3.398   2.590   2.768  0.2147 -0.6321 -0.2731
54885SOL    HW282266   3.529   2.608   2.843 -0.1044 -0.1465  0.1727
54886SOL     OW82267  13.105   6.892   7.021  0.2000 -0.6829 -0.5019
54886SOL    HW182268  13.098   6.902   7.116  1.3597 -1.7666 -0.2617
54886SOL    HW282269  13.016   6.904   6.988 -0.1307  0.2146  0.6638
54887SOL     OW82270   0.357   4.972  10.899  0.1547 -0.4709  0.8359
54887SOL    HW182271   0.271   4.999  10.866  0.5286 -0.9391 -0.5472
54887SOL    HW282272   0.338   4.898  10.958 -0.3122 -1.2483 -0.2655
54888SOL     OW82273   5.844   7.467  12.764 -0.3997 -0.3847  0.0369
54888SOL    HW182274   5.835   7.384  12.718  0.0624 -0.7127  0.5192
54888SOL    HW282275   5.880   7.443  12.850  0.5059  0.3916 -0.1118
54889SOL     OW82276   4.303   6.612   2.807  0.6775  0.0915 -0.1922
54889SOL    HW182277   4.372   6.638   2.746  0.5359 -0.5181 -0.6157
54889SOL    HW282278   4.266   6.532   2.770 -4.1965  3.1694 -3.3192
54890SOL     OW82279   3.105   3.107   5.896 -0.2101 -0.3509 -0.2730
54890SOL    HW182280   3.071   3.024   5.864 -1.5317  0.5619 -1.3558
54890SOL    HW282281   3.030   3.151   5.936  1.1426 -1.0017  3.3884
54891SOL     OW82282  11.872  11.202   5.946  0.1724 -0.1226  0.1466
54891SOL    HW182283  11.925  11.277   5.973 -0.2916  0.1274  0.3774
54891SOL    HW282284  11.935  11.136   5.918  0.7681 -0.8819  2.9855
54892SOL     OW82285   2.229   0.882  13.645 -0.0224  0.2672  0.0848
54892SOL    HW182286   2.275   0.801  13.620  0.0955  0.4233 -0.2114
54892SOL    HW282287   2.298   0.940  13.677 -0.2635 -0.2025  1.5291
54893SOL     OW82288   5.172  13.672   6.241 -0.3529 -0.6768 -0.3635
54893SOL    HW182289   5.194  13.633   6.325  0.7972 -0.6503 -0.6355
54893SOL    HW282290   5.153  13.598   6.183 -0.7131 -0.7113 -0.2045
54894SOL     OW82291   3.701   3.656   7.947 -0.0519 -0.0506 -0.0636
54894SOL    HW182292   3.686   3.574   7.901 -0.6212 -1.0039  1.7227
54894SOL    HW282293   3.792   3.678   7.928 -0.4963  0.0531 -2.2600
54895SOL     OW82294  12.916   5.201   0.570  0.2884 -0.0342  0.1756
54895SOL    HW182295  12.843   5.144   0.596 -0.3032 -0.5412 -2.2801
54895SOL    HW282296  12.904   5.281   0.621 -2.1017 -0.0611 -0.2343
54896SOL     OW82297   1.410  11.849  10.536 -0.4788 -0.3139 -0.4065
54896SOL    HW182298   1.467  11.913  10.578 -0.1176 -0.9347  0.0472
54896SOL    HW282299   1.468  11.797  10.481 -0.8555  0.0842 -1.1981
54897SOL     OW82300   8.998  11.626   5.716 -0.0029  0.9200  0.1173
54897SOL    HW182301   8.941  11.648   5.789 -0.9240  0.4524 -0.4425
54897SOL    HW282302   9.072  11.580   5.755  0.0691  1.6407  0.8630
54898SOL     OW82303  10.660   6.603   2.893 -0.1046 -0.0319 -0.4370
54898SOL    HW182304  10.720   6.563   2.956 -0.4001  0.2900  0.0636
54898SOL    HW282305  10.591   6.537   2.881  0.0166 -0.1435 -0.5215
54899SOL     OW82306  12.606   3.685  11.901 -0.1939  0.2538  0.5773
54899SOL    HW182307  12.511   3.696  11.897 -0.4353 -1.2268  1.2858
54899SOL    HW282308  12.627   3.699  11.993  0.2647  0.5537  0.4242
54900SOL     OW82309   3.487   2.369   3.151  0.0805 -0.6825 -0.1925
54900SOL    HW182310   3.430   2.299   3.185  0.7515 -1.3005 -0.3116
54900SOL    HW282311   3.525   2.332   3.071 -0.0164  0.0504 -0.5870
54901SOL     OW82312   7.507   9.716   7.603 -0.0298 -0.2083  0.0499
54901SOL    HW182313   7.506   9.800   7.557 -3.1658  0.0523  0.3883
54901SOL    HW282314   7.503   9.650   7.534  0.0628  0.0037 -0.1581
54902SOL     OW82315   0.904   6.882   3.045  0.4909  0.2699  0.3840
54902SOL    HW182316   0.903   6.964   3.094  0.9847  0.1259  0.6436
54902SOL    HW282317   0.947   6.820   3.104  1.5887  0.2233 -0.4300
54903SOL     OW82318   4.948   7.554   2.551  0.2196 -0.6699 -0.6175
54903SOL    HW182319   4.922   7.574   2.641  3.2316 -0.5620  0.3367
54903SOL    HW282320   4.870   7.573   2.498 -1.5117 -0.3684  1.9003
54904SOL     OW82321   2.135   8.248  10.166 -0.1391 -0.4367  0.0261
54904SOL    HW182322   2.041   8.250  10.182 -0.5714 -0.6719 -2.1208
54904SOL    HW282323   2.156   8.155  10.156  1.0586 -0.7226  3.8691
54905SOL     OW82324  12.579   7.463  11.925 -0.1752 -0.2345 -0.4710
54905SOL    HW182325  12.618   7.466  12.012 -0.5129 -0.4050 -0.3153
54905SOL    HW282326  12.649   7.427  11.869 -0.0299 -0.3230 -0.2352
54906SOL     OW82327   0.714   7.726   4.853 -0.1363  0.4017  0.1874
54906SOL    HW182328   0.697   7.781   4.777 -2.3983  2.5368  2.0651
54906SOL    HW282329   0.631   7.682   4.870  0.5344 -0.6049  1.0148
54907SOL     OW82330   8.758   7.054  10.149  0.0583  0.4619 -0.0948
54907SOL    HW182331   8.723   7.109  10.078 -1.4280  0.2315  0.4264
54907SOL    HW282332   8.687   7.048  10.212  1.6852  1.4996  1.9509
54908SOL     OW82333  11.688  13.382  12.938  0.4605  0.0485 -0.0971
54908SOL    HW182334  11.765  13.426  12.900  0.8527 -1.8595 -1.7355
54908SOL    HW282335  11.615  13.412  12.884  0.7331 -1.2215 -1.2385
54909SOL     OW82336   3.925   4.605   2.693  0.6004 -0.3639 -0.6022
54909SOL    HW182337   3.947   4.562   2.610  0.9211  1.9257 -1.7791
54909SOL    HW282338   3.830   4.607   2.694  0.5961  0.9810 -1.7097
54910SOL     OW82339   9.351  10.398   4.424  0.1517 -0.5814 -0.2063
54910SOL    HW182340   9.338  10.377   4.516  0.6856  0.4254  0.1106
54910SOL    HW282341   9.329  10.490   4.417 -1.3584 -0.9895 -1.4133
54911SOL     OW82342   8.450   3.008  12.936 -0.6228 -0.0544 -0.4533
54911SOL    HW182343   8.380   3.006  12.871 -1.9139  0.2969  0.8704
54911SOL    HW282344   8.407   3.037  13.016  0.3779 -2.7883  1.2052
54912SOL     OW82345  14.043   9.853   5.362  0.0053 -0.1107 -0.3972
54912SOL    HW182346  14.038   9.891   5.274 -1.8297 -0.4383 -0.4553
54912SOL    HW282347  13.986   9.777   5.359 -1.5483  0.8914  1.5771
54913SOL     OW82348   2.154   2.235   2.696 -0.2488  0.3636 -0.0839
54913SOL    HW182349   2.219   2.201   2.758  0.2157  0.4152 -0.5404
54913SOL    HW282350   2.206   2.274   2.626 -0.7746  0.4295 -0.4396
54914SOL     OW82351  10.174   1.020   8.434 -0.0794 -0.1960 -0.4390
54914SOL    HW182352  10.251   1.032   8.378  0.4337 -0.6292  0.1503
54914SOL    HW282353  10.115   1.091   8.411  0.9867  0.8304 -0.1111
54915SOL     OW82354   2.614  13.371   3.848  0.2455 -0.3649  0.3350
54915SOL    HW182355   2.537  13.338   3.896  2.2021 -1.6470  2.8542
54915SOL    HW282356   2.609  13.328   3.763  0.5624 -4.3570  2.0785
54916SOL     OW82357   5.851  13.116   5.185 -0.2077 -0.2349 -0.1263
54916SOL    HW182358   5.837  13.111   5.280  0.6589 -0.3244  0.0066
54916SOL    HW282359   5.924  13.056   5.169 -0.6942 -0.6206 -0.9295
54917SOL     OW82360   3.032   8.350  10.254 -0.4574 -0.0819 -0.0280
54917SOL    HW182361   2.966   8.292  10.293  0.8554 -2.4941 -1.1923
54917SOL    HW282362   3.060   8.305  10.174  1.1569  1.8511 -0.6371
54918SOL     OW82363   9.086  13.261  12.582  0.0714 -0.2220  0.4078
54918SOL    HW182364   9.044  13.202  12.644  1.6739 -0.9843  0.8170
54918SOL    HW282365   9.023  13.332  12.571 -0.7979 -0.7049  1.9011
54919SOL     OW82366   7.670   0.465  10.040 -0.1646 -0.0934 -0.4296
54919SOL    HW182367   7.732   0.492   9.972 -1.2500  0.5015 -1.2021
54919SOL    HW282368   7.634   0.382  10.009 -0.9326  0.3617 -0.7710
54920SOL     OW82369   3.945   6.165   1.071 -0.5127  0.6294  0.2929
54920SOL    HW182370   3.903   6.117   1.141 -0.0140 -0.9797 -0.4715
54920SOL    HW282371   3.945   6.105   0.996 -0.3512  2.0068 -0.8679
54921SOL     OW82372  12.402   1.184   4.539  0.5470 -0.2203  0.2238
54921SOL    HW182373  12.463   1.150   4.606  0.5900  0.3327  0.4661
54921SOL    HW282374  12.440   1.267   4.512  1.9216 -1.5573 -2.3388
54922SOL     OW82375   6.602   4.768   2.691  0.0008  0.0637 -0.1378
54922SOL    HW182376   6.621   4.843   2.635 -0.2810  0.0186 -0.2952
54922SOL    HW282377   6.522   4.793   2.739  0.0515 -0.0308 -0.0027
54923SOL     OW82378   7.827  13.946   8.112  0.3719 -0.3046  0.0007
54923SOL    HW182379   7.831  13.891   8.190 -0.7969  0.2273  0.4642
54923SOL    HW282380   7.865  13.892   8.042 -0.8565 -1.7715  0.4068
54924SOL     OW82381   5.966  13.258   0.379  0.1895  0.3216  0.0246
54924SOL    HW182382   5.976  13.216   0.294 -0.5385 -1.0824  0.6011
54924SOL    HW282383   5.905  13.331   0.363  0.9887  0.8182 -0.8628
54925SOL     OW82384   0.794   5.206   7.009 -0.4836 -0.3738  0.1812
54925SOL    HW182385   0.803   5.298   6.987 -1.3824 -0.4263 -0.4437
54925SOL    HW282386   0.856   5.161   6.951 -0.1064 -0.1815  0.4279
54926SOL     OW82387   8.131  12.195   2.504  0.4461 -0.3946 -0.0124
54926SOL    HW182388   8.225  12.177   2.509  0.5577  0.1793  0.0433
54926SOL    HW282389   8.125  12.274   2.450 -0.0543 -0.8357 -0.6162
54927SOL     OW82390  10.057  13.603  10.272 -0.4229 -0.2801  0.6311
54927SOL    HW182391   9.965  13.615  10.296 -0.3689  0.3790  0.5302
54927SOL    HW282392  10.094  13.554  10.346 -0.3612  1.3472  1.7301
54928SOL     OW82393   0.795   5.825   2.180  0.4390 -0.0927  0.3119
54928SOL    HW182394   0.878   5.784   2.158  1.4742  0.6184  2.5782
54928SOL    HW282395   0.771   5.788   2.265 -2.1835 -1.1062 -0.7585
54929SOL     OW82396  11.650   1.336  13.236  0.4210  0.8660  0.2199
54929SOL    HW182397  11.674   1.407  13.296  2.0867 -0.9356  1.8369
54929SOL    HW282398  11.734   1.304  13.201 -0.4373  1.1197 -2.2617
54930SOL     OW82399   2.554  13.634   4.999 -0.0955  0.2359  0.6073
54930SOL    HW182400   2.636  13.600   5.033  0.9727  2.2405  0.1815
54930SOL    HW282401   2.580  13.703   4.938 -2.0808  1.0405  0.5919
54931SOL     OW82402  13.880  11.941   3.913  0.4910 -0.2034 -0.2690
54931SOL    HW182403  13.894  12.014   3.853  2.5889  0.0941  0.4857
54931SOL    HW282404  13.850  11.981   3.995  1.3526 -0.1873  0.0518
54932SOL     OW82405   1.713  13.769   2.635 -0.5580 -0.0407  0.2500
54932SOL    HW182406   1.623  13.742   2.613 -0.4525 -0.0547 -0.1627
54932SOL    HW282407   1.729  13.728   2.720 -0.9567 -0.0095  0.3430
54933SOL     OW82408   5.762  11.375  10.308 -0.1238 -0.1386  0.0036
54933SOL    HW182409   5.682  11.427  10.300 -2.1412 -2.5736  2.5793
54933SOL    HW282410   5.780  11.345  10.219 -1.8498  0.7800 -0.7034
54934SOL     OW82411   5.940  12.741   9.660  0.8065  0.1612  0.2594
54934SOL    HW182412   6.007  12.720   9.595  2.3068 -1.8165  2.2822
54934SOL    HW282413   5.866  12.686   9.636  0.3876  1.2644 -1.1333
54935SOL     OW82414   4.198  11.617   3.419  0.7063  0.0140  0.2646
54935SOL    HW182415   4.233  11.541   3.373  0.2366 -0.4585  0.6713
54935SOL    HW282416   4.114  11.635   3.377  0.9744  0.5271 -0.0579
54936SOL     OW82417   4.142   2.256   2.768  0.1197  0.0815  0.0674
54936SOL    HW182418   4.068   2.218   2.817 -0.5520 -0.3998 -1.2836
54936SOL    HW282419   4.107   2.336   2.730  1.0005  1.1156  1.3545
54937SOL     OW82420  14.067   2.137  10.694 -0.0572  0.3825  0.0288
54937SOL    HW182421  14.030   2.073  10.634 -0.5813  1.8451 -1.2953
54937SOL    HW282422  14.150   2.162  10.654  1.0461 -0.7763  1.4969
54938SOL     OW82423   8.211  12.507   9.006 -0.3026 -0.1733  0.2030
54938SOL    HW182424   8.125  12.495   8.966 -0.4700  0.1458  0.4520
54938SOL    HW282425   8.192  12.534   9.096  0.0644 -1.1628  0.5926
54939SOL     OW82426   5.056  10.934   4.382 -0.5331 -0.4321  0.1037
54939SOL    HW182427   4.972  10.971   4.354  0.2325  1.2030 -0.1268
54939SOL    HW282428   5.111  11.010   4.401  0.7753 -1.4760  0.6701
54940SOL     OW82429   1.200   7.478   1.831 -0.1957 -0.1362  0.2229
54940SOL    HW182430   1.266   7.461   1.899 -0.4382 -1.8344  0.0685
54940SOL    HW282431   1.251   7.495   1.752  0.0673 -0.1470  0.3879
54941SOL     OW82432   9.794   5.038  13.759 -0.1205 -0.3498  0.2394
54941SOL    HW182433   9.714   5.060  13.713 -1.0226  0.7001  2.1820
54941SOL    HW282434   9.794   4.942  13.763 -0.9720 -0.3798 -0.2788
54942SOL     OW82435   2.131   4.626  11.707 -0.1859  0.2411  0.0537
54942SOL    HW182436   2.112   4.534  11.725  0.6835  0.1196  0.3904
54942SOL    HW282437   2.206   4.646  11.761 -0.0290  1.0025 -0.4323
54943SOL     OW82438   5.834   3.593   4.605 -0.4344  0.2502  0.3392
54943SOL    HW182439   5.803   3.651   4.535 -1.5867 -1.1220 -0.3274
54943SOL    HW282440   5.755   3.550   4.637  0.3557 -0.7307  1.0240
54944SOL     OW82441   6.862   9.422   0.634  0.0797  0.1229 -0.1012
54944SOL    HW182442   6.783   9.406   0.582  0.3217 -0.5021 -0.2786
54944SOL    HW282443   6.901   9.500   0.594 -1.2740  1.4158  0.9717
54945SOL     OW82444  12.523   4.026   9.672  0.4859  0.0499 -0.2840
54945SOL    HW182445  12.515   3.963   9.744 -2.0351  1.4418  0.7615
54945SOL    HW282446  12.494   3.978   9.594 -3.0902  0.2006  0.7683
54946SOL     OW82447   4.506   5.231  14.045  1.0896 -0.5290 -0.0218
54946SOL    HW182448   4.521   5.147  14.003 -1.0056  0.0125 -2.0408
54946SOL    HW282449   4.416   5.228  14.075  0.5708  1.3646 -1.2048
54947SOL     OW82450  11.674   7.019   5.163  0.5355 -0.6318 -0.0863
54947SOL    HW182451  11.614   7.093   5.178  2.5474  1.0962 -0.0829
54947SOL    HW282452  11.669   7.004   5.068  0.2118 -0.4086 -0.1071
54948SOL     OW82453  12.489   1.847   7.587  0.1606  0.5352  0.5053
54948SOL    HW182454  12.489   1.934   7.627  2.3297  0.2534  1.2325
54948SOL    HW282455  12.539   1.793   7.648  2.0242 -0.3331 -1.6619
54949SOL     OW82456  11.791   5.558  13.117 -0.3455 -0.1968  0.0597
54949SOL    HW182457  11.736   5.606  13.056  0.5733 -0.3568 -0.9270
54949SOL    HW282458  11.836   5.493  13.063 -0.2354 -0.9954  1.0720
54950SOL     OW82459   5.602  10.695   4.003  0.2423 -0.4427  0.0403
54950SOL    HW182460   5.531  10.743   3.960 -0.4801 -1.1150  0.4436
54950SOL    HW282461   5.672  10.759   4.013 -1.2546  1.0161  1.9959
54951SOL     OW82462  12.775   0.844   6.259 -0.2141 -0.7361 -0.0004
54951SOL    HW182463  12.766   0.936   6.235 -1.3092 -0.8903 -0.2576
54951SOL    HW282464  12.773   0.843   6.354 -0.8473 -0.5389 -0.0056
54952SOL     OW82465  12.605   4.188   1.854  0.1195 -0.3754 -0.3648
54952SOL    HW182466  12.601   4.231   1.940  0.8696 -1.9442  0.5254
54952SOL    HW282467  12.516   4.156   1.839 -0.1425  0.3756 -0.4363
54953SOL     OW82468  12.885   4.383   1.633 -1.0041 -0.8854 -0.6542
54953SOL    HW182469  12.860   4.294   1.609 -1.6171 -0.1936 -2.7793
54953SOL    HW282470  12.895   4.428   1.550 -1.6111  1.2941  0.3969
54954SOL     OW82471   0.610   4.357   7.703  0.2447 -0.3001 -0.5732
54954SOL    HW182472   0.658   4.278   7.679 -0.7401 -1.2518  0.4909
54954SOL    HW282473   0.677   4.424   7.711  1.3634 -1.4858  0.4224
54955SOL     OW82474   2.793   7.825   2.088  0.7420  0.2986  0.4831
54955SOL    HW182475   2.768   7.741   2.127  1.3902 -0.1494 -0.0502
54955SOL    HW282476   2.886   7.834   2.109  0.9115  0.4121 -0.3020
54956SOL     OW82477   0.966   1.236   6.231  0.2833 -0.6021 -0.2751
54956SOL    HW182478   0.976   1.217   6.324 -0.1907 -1.2475 -0.3453
54956SOL    HW282479   0.882   1.282   6.224  0.0334 -1.0757 -0.4461
54957SOL     OW82480   1.238   0.713   9.656  0.1273  0.1864 -0.4245
54957SOL    HW182481   1.326   0.685   9.680 -0.4796  0.8579  3.1044
54957SOL    HW282482   1.250   0.798   9.614  1.1404  1.1726  1.7142
54958SOL     OW82483   9.051   8.663   3.696  0.0542  0.1338 -0.4840
54958SOL    HW182484   9.052   8.587   3.638 -1.1872  0.0438 -0.4142
54958SOL    HW282485   9.066   8.628   3.783  0.2364  0.0598 -0.5457
54959SOL     OW82486   1.004   7.263  10.921 -0.0670 -0.2419 -0.1579
54959SOL    HW182487   0.971   7.341  10.967 -0.3850  0.3159 -1.2883
54959SOL    HW282488   0.927   7.207  10.910  0.2470 -0.9448  1.0496
54960SOL     OW82489   3.775  12.023   9.865 -0.8615 -0.1024  0.2926
54960SOL    HW182490   3.725  12.043   9.786 -2.0099  0.3959  1.1179
54960SOL    HW282491   3.828  11.947   9.841  0.2427  1.1453 -1.5300
54961SOL     OW82492   6.629  12.954  13.462 -0.0642 -0.2725 -0.1869
54961SOL    HW182493   6.573  12.876  13.463 -0.8835  0.2896 -0.9735
54961SOL    HW282494   6.578  13.020  13.415  0.5644  0.7917  0.5807
54962SOL     OW82495   9.874   4.599   1.148 -1.3643  0.2975 -0.2444
54962SOL    HW182496   9.939   4.665   1.174  1.0726 -1.6672 -0.9751
54962SOL    HW282497   9.808   4.649   1.101  0.2388  2.2823 -0.5580
54963SOL     OW82498  12.088   1.495   4.941  0.2609  0.0639  0.6112
54963SOL    HW182499  12.027   1.516   4.871  0.6893  0.3624  0.3220
54963SOL    HW282500  12.168   1.545   4.919  0.8951 -0.9534  0.5339
54964SOL     OW82501   8.823   3.100   8.556 -0.1325  0.2566 -0.8580
54964SOL    HW182502   8.865   3.134   8.636  0.7853 -3.1986  0.2923
54964SOL    HW282503   8.734   3.078   8.583 -0.3495  0.6139 -1.2687
54965SOL     OW82504  13.377   1.027   3.084  0.4467  0.2848 -0.6848
54965SOL    HW182505  13.320   0.996   3.013 -0.2351  0.7079 -0.3264
54965SOL    HW282506  13.319   1.075   3.142  1.0128 -0.0374  0.1554
54966SOL     OW82507   5.866  11.267   5.471 -0.3497  0.2812  0.3371
54966SOL    HW182508   5.849  11.361   5.461 -2.8668 -0.2324 -1.2513
54966SOL    HW282509   5.850  11.231   5.383  0.4111 -1.6488  0.9490
54967SOL     OW82510   3.950   5.389  12.687  0.1141  0.2009 -0.3221
54967SOL    HW182511   4.030   5.406  12.638  0.6288 -1.7490 -0.2364
54967SOL    HW282512   3.912   5.475  12.701  3.6375  1.6205  2.1181
54968SOL     OW82513   1.115   1.119   5.395  0.8265  0.3689  0.3739
54968SOL    HW182514   1.144   1.029   5.405 -2.5337 -0.9673 -0.6257
54968SOL    HW282515   1.119   1.135   5.300 -0.7832  0.3772  0.2760
54969SOL     OW82516   3.215  10.083   7.768  0.2088  0.0515 -0.6867
54969SOL    HW182517   3.182  10.102   7.680 -0.7466 -2.0254 -0.8475
54969SOL    HW282518   3.303  10.050   7.754 -0.2012 -0.9641 -0.9732
54970SOL     OW82519  10.654   0.161   5.396  0.7471  0.1857 -0.1875
54970SOL    HW182520  10.618   0.140   5.482 -0.0066  1.3949 -0.1750
54970SOL    HW282521  10.672   0.076   5.356  0.3652 -0.4089  0.8539
54971SOL     OW82522   3.256  11.329   6.233 -0.1160  0.1003 -0.0668
54971SOL    HW182523   3.225  11.321   6.143 -0.6264 -1.1666  0.1932
54971SOL    HW282524   3.198  11.272   6.283 -0.4183  1.4642  1.2218
54972SOL     OW82525  13.151   7.912   0.746 -0.5615 -0.1197 -0.5746
54972SOL    HW182526  13.094   7.883   0.818  1.2556 -2.0921  0.1914
54972SOL    HW282527  13.173   7.831   0.700  0.4125  0.7964 -1.7775
54973SOL     OW82528   6.851   4.204   2.733 -0.0797  0.0866  0.7434
54973SOL    HW182529   6.835   4.266   2.804 -0.6521  1.5731 -0.6082
54973SOL    HW282530   6.765   4.187   2.695  0.2856 -0.1209 -0.0290
54974SOL     OW82531   2.633   7.788   1.848 -0.0211  0.6048  0.4009
54974SOL    HW182532   2.561   7.836   1.888  0.9111  2.3244  0.1234
54974SOL    HW282533   2.695   7.774   1.920  0.5243  1.4901  0.1325
54975SOL     OW82534  10.164   3.559   7.070  0.1959  0.3900  0.1099
54975SOL    HW182535  10.099   3.493   7.092  0.5449  0.1539  0.4520
54975SOL    HW282536  10.114   3.640   7.060 -0.2638  0.0337 -0.5348
54976SOL     OW82537   8.798   2.866   0.168 -0.3156 -0.3934  0.3993
54976SOL    HW182538   8.810   2.850   0.075 -3.1681 -0.4233 -0.0422
54976SOL    HW282539   8.852   2.800   0.211  0.2996 -1.0015 -1.2321
54977SOL     OW82540   1.191   7.160   2.124  0.1644 -0.3434 -0.1974
54977SOL    HW182541   1.262   7.166   2.188  0.9103 -1.5950 -0.8881
54977SOL    HW282542   1.175   7.251   2.099  1.8495 -0.0646 -0.3768
54978SOL     OW82543  10.236  11.564   0.728 -0.0383 -0.5669  0.1957
54978SOL    HW182544  10.304  11.498   0.740  0.4570  0.0216  0.7259
54978SOL    HW282545  10.179  11.554   0.804  0.7417  0.4127  0.9404
54979SOL     OW82546  11.736   8.820  10.329  0.2155 -0.4090 -0.0937
54979SOL    HW182547  11.749   8.768  10.409 -1.3914 -4.3210 -2.1003
54979SOL    HW282548  11.824   8.828  10.291  0.5397 -1.8817  0.2554
54980SOL     OW82549   9.111   2.133   3.266 -0.2227 -0.2203 -0.5894
54980SOL    HW182550   9.155   2.076   3.328 -1.7848 -0.2005  0.5829
54980SOL    HW282551   9.158   2.216   3.271  0.0923 -0.4403  0.0553
54981SOL     OW82552   4.496   3.158   5.485 -0.0684  0.1192  0.0690
54981SOL    HW182553   4.411   3.185   5.451  0.3462  0.9911 -0.3294
54981SOL    HW282554   4.506   3.068   5.456 -0.9450 -0.0638  0.3109
54982SOL     OW82555   0.906   8.325   0.472 -0.5292  0.0132  0.1496
54982SOL    HW182556   0.929   8.236   0.498 -0.3982 -0.3891 -1.2897
54982SOL    HW282557   0.973   8.351   0.409 -0.4978  1.1890  0.6291
54983SOL     OW82558   8.592   1.777  12.144 -0.2443 -0.8110  0.2677
54983SOL    HW182559   8.640   1.859  12.133 -0.7142 -0.2532  2.0623
54983SOL    HW282560   8.651   1.710  12.111  0.4976  0.1721 -0.4363
54984SOL     OW82561  10.610   6.952   0.979 -0.4224  0.8359 -0.1124
54984SOL    HW182562  10.681   6.995   0.931 -0.2918  0.5168 -0.2130
54984SOL    HW282563  10.614   6.861   0.950  0.6273  0.2899  1.6238
54985SOL     OW82564  12.161  12.248   1.975  0.1258  0.4505 -0.3712
54985SOL    HW182565  12.189  12.233   1.885  0.4550  0.0236 -0.2029
54985SOL    HW282566  12.215  12.321   2.005 -0.7426  1.3012 -0.8622
54986SOL     OW82567   1.492  11.691   1.119 -0.3151 -0.7325 -0.3362
54986SOL    HW182568   1.515  11.599   1.108 -0.4192 -0.5815 -1.9267
54986SOL    HW282569   1.468  11.721   1.032  0.0994  0.9174  0.0854
54987SOL     OW82570   9.983  12.661   1.399  0.0494 -0.3199 -0.3540
54987SOL    HW182571   9.937  12.596   1.346 -1.5928 -0.0577  0.6745
54987SOL    HW282572   9.993  12.737   1.341 -0.2901 -0.6041 -0.7931
54988SOL     OW82573  13.671   5.749  13.519  0.2893  0.1473  0.3197
54988SOL    HW182574  13.762   5.729  13.540  0.0119  1.4559  3.2633
54988SOL    HW282575  13.630   5.664  13.504  1.5698 -0.5912  0.9025
54989SOL     OW82576   9.007   0.897  10.697 -0.4415  0.0820  0.6460
54989SOL    HW182577   8.934   0.882  10.637 -0.0702  2.1704 -0.4223
54989SOL    HW282578   9.070   0.829  10.675 -0.5312  0.4898 -1.0135
54990SOL     OW82579  13.765  10.861   6.786  0.0491  0.5210 -0.3387
54990SOL    HW182580  13.794  10.819   6.867  0.7374  0.0089 -0.8277
54990SOL    HW282581  13.823  10.825   6.719 -1.4454 -0.1899 -1.3054
54991SOL     OW82582   6.825   6.017   5.725  0.0016 -0.4098  0.5165
54991SOL    HW182583   6.752   6.079   5.717 -0.7429 -1.2031  1.0681
54991SOL    HW282584   6.900   6.065   5.690 -1.1076 -0.2197 -1.8083
54992SOL     OW82585   0.951  12.592   1.105  0.0853  0.2062  0.5620
54992SOL    HW182586   0.932  12.526   1.171  0.8290 -2.8193 -2.0051
54992SOL    HW282587   0.868  12.637   1.091 -1.5036 -2.6853 -0.0971
54993SOL     OW82588  13.995   6.303   6.766 -0.3394  0.0423  0.1576
54993SOL    HW182589  13.903   6.294   6.790 -0.1099  0.1200  1.0873
54993SOL    HW282590  13.994   6.308   6.670 -1.4345  1.5633  0.2121
54994SOL     OW82591  12.870  13.896   7.696 -0.3785 -0.5581  0.2653
54994SOL    HW182592  12.796  13.836   7.700 -2.1051  1.3947 -0.3899
54994SOL    HW282593  12.833  13.981   7.720  1.9616  0.2797  1.1862
54995SOL     OW82594   3.718   3.443   1.007 -0.2253 -0.1226  0.3322
54995SOL    HW182595   3.679   3.357   0.993 -0.2139 -0.0032 -0.4537
54995SOL    HW282596   3.652   3.492   1.055 -0.3497 -0.4748  0.5224
54996SOL     OW82597   5.303   5.421   4.806  0.2473  0.4980  0.0621
54996SOL    HW182598   5.222   5.411   4.856 -0.3209 -1.7945 -1.1850
54996SOL    HW282599   5.274   5.448   4.719  0.5396 -2.1431 -0.9551
54997SOL     OW82600   8.579   8.044   7.646 -0.2106 -0.6270  0.1694
54997SOL    HW182601   8.523   8.017   7.718 -0.3276 -1.4663 -0.2329
54997SOL    HW282602   8.586   7.967   7.590 -0.4570  0.1250 -0.9369
54998SOL     OW82603   3.598   8.877   9.480 -0.1171  0.4647 -0.7364
54998SOL    HW182604   3.680   8.920   9.505  1.3027  0.9554 -5.4087
54998SOL    HW282605   3.615   8.784   9.492 -0.1553  0.6850  1.4046
54999SOL     OW82606  10.427   2.535  12.560 -0.3277  0.1640 -0.6422
54999SOL    HW182607  10.515   2.558  12.532  0.5412 -1.6261  0.4668
54999SOL    HW282608  10.385   2.500  12.481  1.3122 -2.6395 -0.4117
55000SOL     OW82609  13.213   5.565  12.011 -0.3879  0.4598 -0.6583
55000SOL    HW182610  13.255   5.650  12.018  2.4205 -0.9581  2.1148
55000SOL    HW282611  13.255   5.523  11.936  1.1256  0.1449  0.3298
55001SOL     OW82612   7.342   1.029  13.184  0.1130  0.9176 -0.8813
55001SOL    HW182613   7.264   1.081  13.205 -1.5170 -1.7353  0.1276
55001SOL    HW282614   7.403   1.048  13.255 -1.0454  0.3814  0.2950
55002SOL     OW82615   6.732   3.128   4.755 -0.1979  0.2812 -0.0316
55002SOL    HW182616   6.720   3.214   4.795 -0.5088 -0.4749  1.5855
55002SOL    HW282617   6.650   3.113   4.707 -0.3399  0.6721  0.0815
55003SOL     OW82618  10.211   0.425  13.172  0.2200 -0.2692 -0.3267
55003SOL    HW182619  10.197   0.386  13.259  0.6571 -0.1923 -0.2205
55003SOL    HW282620  10.183   0.357  13.111  0.0685 -0.3863 -0.1285
55004SOL     OW82621  12.963  10.375  12.324  0.4175  0.7173 -0.5778
55004SOL    HW182622  12.958  10.287  12.360  1.8814  0.3998 -1.0812
55004SOL    HW282623  12.874  10.409  12.331  0.2717  0.0404  1.6908
55005SOL     OW82624  12.560  11.747   1.738  0.2112  0.3545  0.5227
55005SOL    HW182625  12.473  11.757   1.697  0.0698 -1.6852  0.2446
55005SOL    HW282626  12.546  11.773   1.829 -0.3426  1.3711  0.1750
55006SOL     OW82627  11.237   0.647   2.238 -0.2855  0.1679  0.3752
55006SOL    HW182628  11.327   0.616   2.225 -1.0402 -2.3689  0.8025
55006SOL    HW282629  11.236   0.680   2.328  0.1067 -0.2068  0.5205
55007SOL     OW82630   3.322   0.509   0.109 -0.2110  0.4626 -0.4815
55007SOL    HW182631   3.381   0.470   0.044 -1.0739  0.4078 -1.2727
55007SOL    HW282632   3.298   0.436   0.166  2.2377  0.9255  1.3091
55008SOL     OW82633  14.041   6.103  12.371 -0.3670 -0.6384 -0.2406
55008SOL    HW182634  14.124   6.145  12.350 -0.7060 -0.1323 -0.5978
55008SOL    HW282635  14.041   6.024  12.317  1.3436 -2.4403  2.1998
55009SOL     OW82636  10.651   0.770   9.495 -0.5103  0.2877  0.5288
55009SOL    HW182637  10.570   0.768   9.546  0.5943  0.7819  2.4266
55009SOL    HW282638  10.683   0.859   9.506  0.0078  0.2676 -0.7028
55010SOL     OW82639   5.217   0.848  12.606 -0.6145  0.0562 -0.5705
55010SOL    HW182640   5.243   0.758  12.625 -1.2507 -0.1916 -0.8475
55010SOL    HW282641   5.230   0.858  12.512 -0.5865  0.2441 -0.5478
55011SOL     OW82642  10.052   1.729   7.052  0.4757 -0.3218  0.3453
55011SOL    HW182643  10.036   1.818   7.019  1.4465 -0.6006 -0.9643
55011SOL    HW282644  10.125   1.739   7.113  0.7721 -0.2476 -0.0162
55012SOL     OW82645   0.338   6.826   4.830  0.8452  0.0939  0.1889
55012SOL    HW182646   0.338   6.758   4.898  0.0735 -1.5325 -1.3278
55012SOL    HW282647   0.424   6.817   4.788 -0.0048 -1.4678 -1.3539
55013SOL     OW82648   7.989   3.658   9.658 -0.0424  0.8802 -0.2617
55013SOL    HW182649   8.035   3.617   9.731  0.3795  2.3441  0.3467
55013SOL    HW282650   7.989   3.752   9.680 -1.6685  1.1322 -1.1643
55014SOL     OW82651   9.349   5.233   5.740 -0.5128 -0.0543  0.0784
55014SOL    HW182652   9.437   5.228   5.778 -1.3640  1.2283  2.4719
55014SOL    HW282653   9.338   5.326   5.718 -0.5345 -0.5608 -2.2184
55015SOL     OW82654   8.356   5.613   3.600 -0.0165 -0.3489 -0.3263
55015SOL    HW182655   8.388   5.684   3.655  0.0172 -0.2388 -0.4874
55015SOL    HW282656   8.427   5.596   3.538 -0.1924 -0.2367 -0.5582
55016SOL     OW82657  10.201   7.880   6.969 -0.2366 -0.3236  0.3514
55016SOL    HW182658  10.130   7.865   7.031 -1.6690 -2.0795 -1.5733
55016SOL    HW282659  10.263   7.809   6.985 -0.7741 -0.9784 -0.4066
55017SOL     OW82660  12.520  12.105   8.923 -0.0040 -0.0100  0.4572
55017SOL    HW182661  12.613  12.103   8.900 -0.3556  1.8001 -1.4116
55017SOL    HW282662  12.480  12.040   8.866 -0.0638  0.2682  0.1758
55018SOL     OW82663   8.879   4.102   2.769  0.0500  0.2305 -0.3185
55018SOL    HW182664   8.891   4.096   2.864 -1.1039 -0.2414 -0.1881
55018SOL    HW282665   8.928   4.180   2.743  2.5052 -1.0232  0.2714
55019SOL     OW82666  10.213  12.830   9.409  0.7239  0.1926  0.4094
55019SOL    HW182667  10.290  12.886   9.414 -1.3184  3.2068  1.4653
55019SOL    HW282668  10.159  12.870   9.341 -0.0751 -1.6551 -0.0999
55020SOL     OW82669   2.678   1.613   9.490  0.1109 -0.1405 -0.0548
55020SOL    HW182670   2.584   1.600   9.485  0.0432  0.1706  0.3569
55020SOL    HW282671   2.714   1.524   9.501 -0.4455 -0.0257  4.2333
55021SOL     OW82672   3.978  12.655  10.497  0.1035 -0.4525  0.5933
55021SOL    HW182673   4.026  12.578  10.528  0.5182  0.0092  1.1160
55021SOL    HW282674   3.941  12.628  10.413  1.3152 -0.8120  0.1519
55022SOL     OW82675   7.263   1.039   2.192 -0.4351  0.2624 -0.4598
55022SOL    HW182676   7.301   1.011   2.108 -0.2727  3.1366 -1.4384
55022SOL    HW282677   7.174   1.067   2.169 -0.2490  1.4629  0.2308
55023SOL     OW82678   9.517   1.457   8.959  0.2937  0.3243 -0.0267
55023SOL    HW182679   9.563   1.529   8.916  0.1054  0.1735 -0.4903
55023SOL    HW282680   9.558   1.450   9.045  3.6935 -2.1652 -1.6100
55024SOL     OW82681  12.881  10.539   6.977  0.1918 -0.1988  0.5463
55024SOL    HW182682  12.894  10.567   6.886  0.0003  1.0234  0.8754
55024SOL    HW282683  12.896  10.445   6.975  1.1657 -0.0530 -0.5720
55025SOL     OW82684  10.218  11.566  10.001  0.2754 -0.0136 -0.2332
55025SOL    HW182685  10.264  11.487  10.027  3.1050  1.4381 -0.4572
55025SOL    HW282686  10.154  11.581  10.072 -0.5974 -2.6029 -0.3827
55026SOL     OW82687  11.525  11.149   0.185  0.2250  0.1711  0.2134
55026SOL    HW182688  11.514  11.062   0.223  0.8352  0.4622  1.0740
55026SOL    HW282689  11.450  11.158   0.125  0.4687 -1.1682 -0.3394
55027SOL     OW82690   5.015   1.971  12.037 -0.1752 -0.6154  0.1879
55027SOL    HW182691   5.012   2.006  12.126  0.1947  0.5963 -0.2555
55027SOL    HW282692   4.933   2.002  11.997 -0.7117 -1.8079  0.3252
55028SOL     OW82693  11.382   3.843   0.214  0.4709 -0.2171  0.2310
55028SOL    HW182694  11.409   3.796   0.135  0.6534  0.6410 -0.2346
55028SOL    HW282695  11.463   3.882   0.247  0.4052 -0.6107  0.8837
55029SOL     OW82696   9.507  10.136   0.663 -0.1459 -0.3311  0.0471
55029SOL    HW182697   9.492  10.230   0.673  0.5668 -0.3046  0.9198
55029SOL    HW282698   9.419  10.100   0.648 -0.7243  0.2222  1.8210
55030SOL     OW82699  12.166   3.155   3.065 -0.3923  0.2571  0.1807
55030SOL    HW182700  12.095   3.104   3.026  0.2153 -0.9368  0.5887
55030SOL    HW282701  12.224   3.090   3.104  1.8273  1.0331 -1.5838
55031SOL     OW82702   2.531   5.772   5.048 -0.6565  0.1919 -0.1084
55031SOL    HW182703   2.477   5.808   5.119 -1.6119  2.4341 -1.8426
55031SOL    HW282704   2.596   5.840   5.031 -0.1112 -0.5478 -1.0394
55032SOL     OW82705   4.109   7.452   9.409 -0.1851  0.1146  0.6605
55032SOL    HW182706   4.143   7.539   9.429 -1.3864  0.5251  0.9457
55032SOL    HW282707   4.175   7.392   9.446  0.8975  0.8756  0.0131
55033SOL     OW82708  13.055  11.653   5.203 -0.0392  0.4373  0.2096
55033SOL    HW182709  13.083  11.709   5.131 -0.7959 -2.0639 -2.1867
55033SOL    HW282710  13.056  11.565   5.167  0.4750 -1.1061  3.5856
55034SOL     OW82711   7.328  12.585   4.225 -0.5364  0.3028 -0.1367
55034SOL    HW182712   7.394  12.605   4.292 -1.9272  1.5006  0.9473
55034SOL    HW282713   7.369  12.610   4.143  0.5596  0.5143  0.4549
55035SOL     OW82714   5.308   2.901  11.345 -0.4769  0.2309 -0.6883
55035SOL    HW182715   5.291   2.896  11.439  0.1903  1.1301 -0.5014
55035SOL    HW282716   5.294   2.993  11.323  2.0290  0.6465 -0.8995
55036SOL     OW82717   6.537   0.738   6.126  0.9214 -0.4734  0.3279
55036SOL    HW182718   6.597   0.776   6.190 -0.6508  0.1849  1.4697
55036SOL    HW282719   6.572   0.651   6.108  3.0494  0.4330 -0.2283
55037SOL     OW82720   4.744   2.923  10.180 -0.0548 -0.3559  0.3659
55037SOL    HW182721   4.754   2.973  10.098 -1.1351  0.8906  0.9583
55037SOL    HW282722   4.671   2.864  10.164 -0.4144  0.0478  0.4874
55038SOL     OW82723  10.757   9.281   2.999 -0.3411 -0.2184  0.2619
55038SOL    HW182724  10.766   9.298   2.906 -0.7808  0.9429  0.4182
55038SOL    HW282725  10.703   9.201   3.004  1.6911 -1.7200 -0.4850
55039SOL     OW82726   4.160  14.009   2.713  0.2340  0.2018  0.4473
55039SOL    HW182727   4.188  13.919   2.697  1.3584  0.4387  0.9573
55039SOL    HW282728   4.232  14.063   2.680 -1.0844  1.0029 -1.2512
55040SOL     OW82729   7.442   7.789   3.766  0.1293 -0.4776 -0.1477
55040SOL    HW182730   7.347   7.796   3.770  0.1130 -0.6324 -0.2471
55040SOL    HW282731   7.465   7.730   3.837  0.3862  1.5829  1.5700
55041SOL     OW82732  13.158   1.740  10.969  0.1234 -0.1755  0.5463
55041SOL    HW182733  13.103   1.715  10.894 -1.4105  0.3606  1.4488
55041SOL    HW282734  13.194   1.657  11.000  1.6930 -0.3143 -1.4119
55042SOL     OW82735  12.403   9.325  14.081  0.5360 -0.0491 -0.2992
55042SOL    HW182736  12.347   9.278  14.143  0.9534  0.4420  0.4587
55042SOL    HW282737  12.370   9.300  13.995 -1.8007  1.3728  0.1203
55043SOL     OW82738   5.677   3.141   2.997 -0.3029 -0.2980 -0.0896
55043SOL    HW182739   5.620   3.163   3.070 -1.1604 -0.3059 -0.7401
55043SOL    HW282740   5.631   3.072   2.949  0.3647 -0.4837 -0.4919
55044SOL     OW82741  11.719   8.751   7.681 -0.0100  0.0780 -0.0795
55044SOL    HW182742  11.775   8.706   7.617 -0.3178 -0.8603  0.2994
55044SOL    HW282743  11.749   8.718   7.765 -1.7631 -1.1965  0.0895
55045SOL     OW82744   4.207   9.455   6.829 -0.5539 -0.2417  0.0158
55045SOL    HW182745   4.160   9.471   6.748 -0.0298  0.5486 -0.1515
55045SOL    HW282746   4.194   9.362   6.847  1.3738 -1.0982 -2.3243
55046SOL     OW82747   0.612   0.655   0.969 -0.2315 -0.0407 -0.0626
55046SOL    HW182748   0.690   0.599   0.968 -0.4074 -0.2729 -0.9405
55046SOL    HW282749   0.572   0.638   1.055  1.4282  1.1434  1.0172
55047SOL     OW82750   7.527  12.782  13.563 -0.1184 -0.1778 -0.5201
55047SOL    HW182751   7.563  12.864  13.530 -1.6373  0.1578 -1.4945
55047SOL    HW282752   7.571  12.714  13.513  1.1213  0.0278  0.2644
55048SOL     OW82753   3.986   2.392   5.980 -0.5843 -0.2988 -0.0550
55048SOL    HW182754   4.019   2.303   5.972 -0.4816 -0.7390  3.4446
55048SOL    HW282755   4.065   2.447   5.980 -0.2615 -0.6850  1.6313
55049SOL     OW82756  12.930   8.451   8.258 -1.0282 -0.4458 -0.0156
55049SOL    HW182757  13.008   8.407   8.225  0.5432  1.2805  1.2442
55049SOL    HW282758  12.874   8.380   8.289  2.0456 -1.6673  3.3548
55050SOL     OW82759   9.968  13.637   0.098 -0.2387  0.0866  0.3279
55050SOL    HW182760   9.899  13.637   0.031 -1.2262 -0.9144  1.2954
55050SOL    HW282761   9.920  13.633   0.181  0.9990 -0.9320  1.0221
55051SOL     OW82762   6.183   0.272  11.896 -0.4410 -0.0589 -0.2891
55051SOL    HW182763   6.170   0.331  11.822  1.9557  0.6374 -0.2428
55051SOL    HW282764   6.145   0.189  11.868 -0.0570  0.3316 -2.1046
55052SOL     OW82765   1.130   1.456  12.586  0.2266 -0.1072  0.1211
55052SOL    HW182766   1.170   1.375  12.618  1.2179 -0.5169 -1.9787
55052SOL    HW282767   1.187   1.484  12.515 -1.2573  1.3014 -0.5717
55053SOL     OW82768   2.325  12.419  11.858 -0.4808  0.1346  0.3251
55053SOL    HW182769   2.373  12.357  11.913 -0.7174  0.7231  1.2291
55053SOL    HW282770   2.386  12.442  11.789 -0.5663 -1.4834 -0.3314
55054SOL     OW82771  10.457  11.078  10.334 -0.6762  0.4497 -0.3813
55054SOL    HW182772  10.403  11.006  10.300 -1.5042  1.8332 -2.1448
55054SOL    HW282773  10.529  11.084  10.272 -0.2971  0.7687  0.0902
55055SOL     OW82774   9.090   8.850   0.405  0.1136  0.1162 -0.3854
55055SOL    HW182775   9.119   8.853   0.497 -1.3150  2.2130  0.0657
55055SOL    HW282776   9.170   8.865   0.354  0.7184  0.2278  0.5711
55056SOL     OW82777   2.574  13.899   2.705 -0.4433  0.4976 -0.6503
55056SOL    HW182778   2.514  13.875   2.634  0.7784  0.0971 -1.5860
55056SOL    HW282779   2.581  13.820   2.758  0.4025  0.0419 -1.4060
55057SOL     OW82780   7.821   3.438  13.053 -0.0401  0.0416 -0.2215
55057SOL    HW182781   7.786   3.470  13.136 -0.2590  0.2568 -0.3967
55057SOL    HW282782   7.775   3.489  12.987  1.9871  1.6951 -0.4216
55058SOL     OW82783   8.509   9.335   7.815  0.1141 -0.3284 -0.0774
55058SOL    HW182784   8.430   9.383   7.791  0.1259 -0.2070  0.1292
55058SOL    HW282785   8.478   9.261   7.868  0.1574 -0.1715  0.1666
55059SOL     OW82786   8.613  12.401   4.486 -1.1935 -0.1486 -0.0736
55059SOL    HW182787   8.547  12.366   4.545  0.8064 -2.1222  1.1531
55059SOL    HW282788   8.664  12.324   4.459  0.4389  1.2415 -1.1588
55060SOL     OW82789   5.911  13.789   0.359  0.1553 -0.1830 -0.0827
55060SOL    HW182790   5.967  13.777   0.283 -0.7793 -2.7473 -0.4640
55060SOL    HW282791   5.826  13.755   0.332 -0.5225 -0.0499  1.7364
55061SOL     OW82792   4.640   2.792   6.208  0.4845  0.5752  0.5480
55061SOL    HW182793   4.599   2.707   6.222  0.0969  0.8231  0.9326
55061SOL    HW282794   4.734   2.773   6.207  0.3956 -0.4242 -2.9991
55062SOL     OW82795   8.390   3.383   4.479  0.4653  0.1449 -0.6789
55062SOL    HW182796   8.350   3.356   4.562  0.6036  0.7311 -0.4137
55062SOL    HW282797   8.345   3.465   4.457  1.1787  0.5585 -0.6212
55063SOL     OW82798   7.383   6.438   2.989  0.1263 -0.2432 -0.2297
55063SOL    HW182799   7.464   6.488   2.981  0.1169 -0.1509  0.2733
55063SOL    HW282800   7.314   6.500   2.968  0.1666 -0.2710 -0.4554
55064SOL     OW82801   4.153   6.026  12.389  0.1483 -0.0245  0.0541
55064SOL    HW182802   4.186   6.062  12.307 -0.2915  0.7157  0.1953
55064SOL    HW282803   4.177   6.091  12.455  1.1247 -0.9384  0.6379
55065SOL     OW82804  13.318   5.421   0.469  0.2921  0.6535  0.7800
55065SOL    HW182805  13.343   5.500   0.517  1.9496  1.2191 -0.8991
55065SOL    HW282806  13.265   5.453   0.396 -0.0125  0.0786  0.7391
55066SOL     OW82807   4.390   2.333   0.346  0.3427  0.5358  0.3216
55066SOL    HW182808   4.441   2.339   0.265 -1.6746 -1.0224 -1.1849
55066SOL    HW282809   4.310   2.382   0.327 -0.9253 -1.2914  0.6558
55067SOL     OW82810  13.203   9.003   0.189  0.8519 -0.3557  0.0618
55067SOL    HW182811  13.260   8.980   0.262  2.4349  0.5987 -0.8242
55067SOL    HW282812  13.190   9.098   0.198  2.7485  0.1880 -1.9597
55068SOL     OW82813  12.196   8.420   5.904 -0.5267  0.2858  0.0217
55068SOL    HW182814  12.138   8.489   5.874  2.8451  2.6795 -1.7260
55068SOL    HW282815  12.217   8.444   5.995 -1.7988 -0.3421  0.5069
55069SOL     OW82816   8.589  10.513   4.318  0.0235 -0.8932  0.1183
55069SOL    HW182817   8.588  10.524   4.222 -0.3114 -0.5262  0.1603
55069SOL    HW282818   8.678  10.536   4.343 -0.5046  1.3789  0.1436
55070SOL     OW82819  13.773   1.288  12.476 -0.4285 -0.3797 -0.1133
55070SOL    HW182820  13.730   1.359  12.427 -1.0467 -0.4681  0.2976
55070SOL    HW282821  13.805   1.228  12.409  0.3139  0.3980 -0.4830
55071SOL     OW82822   8.144  12.157   0.993 -0.4055 -0.2960 -0.2134
55071SOL    HW182823   8.171  12.246   1.015  0.9949 -0.2011 -2.1089
55071SOL    HW282824   8.188  12.102   1.057  0.3504  0.2365 -0.2644
55072SOL     OW82825   3.321  12.219   4.001 -0.1029  0.7961 -0.2870
55072SOL    HW182826   3.354  12.133   3.974 -2.2827 -0.6686  1.3854
55072SOL    HW282827   3.297  12.262   3.920  1.2445 -0.0536 -1.1857
55073SOL     OW82828   8.741  11.182   9.141  0.6303 -0.4622 -0.2962
55073SOL    HW182829   8.836  11.190   9.152  0.8033  1.4630 -2.4505
55073SOL    HW282830   8.705  11.216   9.223  1.8176  0.8466 -0.2699
55074SOL     OW82831  11.806   3.198   4.622  0.1443  0.1761 -0.2885
55074SOL    HW182832  11.743   3.162   4.559 -0.0952 -0.8314  0.5085
55074SOL    HW282833  11.871   3.129   4.632 -0.8954 -0.5566  2.0977
55075SOL     OW82834   0.448   3.594  11.025  0.0148 -0.4299 -0.0204
55075SOL    HW182835   0.464   3.532  11.097  2.9131  0.6121  0.3694
55075SOL    HW282836   0.502   3.562  10.953 -0.3197  0.3145 -0.6180
55076SOL     OW82837   5.870  13.478   7.013  0.0496  0.1500  0.3713
55076SOL    HW182838   5.818  13.542   7.061  1.2577  1.1773  0.3830
55076SOL    HW282839   5.921  13.530   6.951 -0.5632 -1.0358 -1.1990
55077SOL     OW82840  10.215  12.274   8.075  0.1928 -0.6955  0.1106
55077SOL    HW182841  10.187  12.293   7.985  0.4900 -0.6031  0.0343
55077SOL    HW282842  10.188  12.184   8.090  0.4485 -0.8253 -0.1974
55078SOL     OW82843   9.840   9.959  11.906 -0.1626 -0.0025 -0.2352
55078SOL    HW182844   9.919  10.011  11.896 -0.3549  0.3970  0.2723
55078SOL    HW282845   9.785   9.985  11.831 -0.8410  1.6031  0.7666
55079SOL     OW82846   0.176   4.521  10.119  0.5760  1.1042 -0.5653
55079SOL    HW182847   0.098   4.489  10.164  1.3533  0.2241  0.1980
55079SOL    HW282848   0.154   4.610  10.092 -0.2067  1.3580  0.8433
55080SOL     OW82849   8.290   3.800  13.251  0.3817 -0.0184 -0.2439
55080SOL    HW182850   8.244   3.872  13.294 -2.2662 -0.2477 -2.4179
55080SOL    HW282851   8.356   3.843  13.196 -1.1644  0.8659 -1.5201
55081SOL     OW82852   0.042   2.546   0.802  0.2172  0.6054 -0.6201
55081SOL    HW182853  -0.039   2.549   0.751  0.5892 -1.8048 -1.4901
55081SOL    HW282854   0.058   2.637   0.827 -1.9981  1.3347 -1.6039
55082SOL     OW82855   2.752   0.025  10.780  0.0252  0.3143 -0.1564
55082SOL    HW182856   2.697  -0.050  10.800  1.5958 -0.6992  0.6111
55082SOL    HW282857   2.754   0.029  10.684 -0.5315 -0.2785 -0.1954
55083SOL     OW82858   5.767   3.373   5.472 -0.1771  0.2537 -0.2960
55083SOL    HW182859   5.739   3.353   5.382  1.5081  0.8411 -0.9913
55083SOL    HW282860   5.755   3.291   5.519  1.6856 -0.9665 -1.8127
55084SOL     OW82861   3.109   1.973   1.842  0.4481 -0.3095 -0.2900
55084SOL    HW182862   3.128   1.882   1.866 -0.2033 -0.6851 -1.1876
55084SOL    HW282863   3.116   1.975   1.747 -0.4580  0.3673 -0.3534
55085SOL     OW82864   0.494   5.082   3.582 -0.4973  0.1901 -0.0811
55085SOL    HW182865   0.537   5.135   3.516 -1.4844  0.5154 -0.4863
55085SOL    HW282866   0.409   5.125   3.597 -0.4225 -0.0416  1.1804
55086SOL     OW82867   1.668   0.829   1.255  0.0984 -0.5598 -0.0318
55086SOL    HW182868   1.603   0.900   1.255 -1.6637 -2.0258 -2.4570
55086SOL    HW282869   1.624   0.756   1.299  0.3800 -1.3422 -1.0233
55087SOL     OW82870   4.603   0.658   7.929 -0.1207 -0.4145 -0.6343
55087SOL    HW182871   4.592   0.638   7.836 -0.1632 -0.1653 -0.6817
55087SOL    HW282872   4.597   0.573   7.972 -0.5503 -0.4794 -0.8170
55088SOL     OW82873  11.943  12.234  13.386 -0.0434 -0.1065 -0.1954
55088SOL    HW182874  11.896  12.179  13.324 -0.5502 -1.2553  1.1709
55088SOL    HW282875  12.011  12.276  13.333 -0.6314 -0.8203 -1.5760
55089SOL     OW82876   7.659   2.379  12.030 -0.0147 -0.0851 -0.3482
55089SOL    HW182877   7.710   2.457  12.009 -1.3880  1.1167  0.6114
55089SOL    HW282878   7.689   2.355  12.118 -0.6921  0.3135  0.0008
55090SOL     OW82879   0.867   3.808   8.596  0.3233  0.3153  0.2187
55090SOL    HW182880   0.782   3.778   8.627  0.5750  0.1470  0.7614
55090SOL    HW282881   0.866   3.903   8.612  0.2896  0.2931  0.3483
55091SOL     OW82882   0.439  11.764   2.005  0.4296 -0.5907  0.6455
55091SOL    HW182883   0.414  11.759   2.097 -1.0501 -0.3649  0.2908
55091SOL    HW282884   0.535  11.764   2.005  0.5446  2.1934  2.3815
55092SOL     OW82885  12.805   6.599  12.602 -0.3140  1.0434  0.0647
55092SOL    HW182886  12.876   6.575  12.543 -0.4720  2.1714 -0.6127
55092SOL    HW282887  12.728   6.605  12.545 -1.2899 -1.5119  0.9946
55093SOL     OW82888   9.587  12.054   5.583  0.0406 -0.4369  0.0998
55093SOL    HW182889   9.590  11.959   5.591 -0.4836 -0.6583 -1.9137
55093SOL    HW282890   9.567  12.071   5.491 -0.3667  1.6199  0.4960
55094SOL     OW82891   1.449   8.423   2.158  0.4045  0.2249  0.1114
55094SOL    HW182892   1.448   8.329   2.177  2.4443 -0.1168 -1.1845
55094SOL    HW282893   1.542   8.446   2.156  0.0326  1.8011 -1.7652
55095SOL     OW82894   7.214  14.082  14.071 -0.9947 -0.2237 -0.5524
55095SOL    HW182895   7.255  14.078  13.984 -0.4453 -1.6502 -0.2447
55095SOL    HW282896   7.224  13.994  14.107  0.9585  0.8783  1.9434
55096SOL     OW82897   1.086  10.799   6.241 -0.2097 -0.6219 -0.3020
55096SOL    HW182898   1.095  10.861   6.168  0.9218  0.4717  0.7346
55096SOL    HW282899   1.153  10.733   6.225  1.9087  1.0623  1.0900
55097SOL     OW82900  14.008  11.608  12.306 -0.0990  0.3676 -0.8378
55097SOL    HW182901  14.056  11.683  12.340  1.6099 -1.3967  0.9057
55097SOL    HW282902  13.941  11.590  12.372 -0.1796  0.0713 -0.9993
55098SOL     OW82903   5.310   1.871  13.341  0.0804  0.1494 -0.4293
55098SOL    HW182904   5.341   1.829  13.421 -0.6731 -0.2872 -0.3589
55098SOL    HW282905   5.385   1.922  13.311  0.9222 -0.9807 -0.3345
55099SOL     OW82906  12.402   5.207  10.563  0.2569 -0.1561 -0.0250
55099SOL    HW182907  12.354   5.144  10.618  1.1012 -0.0894  0.7949
55099SOL    HW282908  12.458   5.152  10.508 -0.4255 -0.2102 -0.6905
55100SOL     OW82909   6.076  10.188   3.402  0.2908 -0.7526 -0.1213
55100SOL    HW182910   6.152  10.130   3.411 -0.4080 -1.6449  0.2334
55100SOL    HW282911   6.038  10.191   3.490 -0.2617 -0.5743 -0.3633
55101SOL     OW82912   0.312  11.886   0.258 -0.7891 -0.4219  0.1048
55101SOL    HW182913   0.267  11.955   0.306  0.3300  0.1518  0.3642
55101SOL    HW282914   0.247  11.853   0.196 -1.4845  0.5250  0.3115
55102SOL     OW82915   3.685   6.814   0.627 -0.1291 -0.1912 -0.6182
55102SOL    HW182916   3.696   6.766   0.545 -1.7045 -2.3334  0.3377
55102SOL    HW282917   3.592   6.804   0.649  0.3746 -0.2631  1.7623
55103SOL     OW82918  12.165  11.249  12.554  0.3602 -0.4177 -0.2978
55103SOL    HW182919  12.088  11.256  12.611  1.5616 -3.0248  1.8596
55103SOL    HW282920  12.196  11.339  12.545 -1.7695  0.4536  0.4027
55104SOL     OW82921   6.565  12.632   6.897 -0.1933 -0.4224 -0.2504
55104SOL    HW182922   6.651  12.641   6.855  0.5282 -1.0803  1.0285
55104SOL    HW282923   6.540  12.721   6.919  1.1602 -0.3495  1.2312
55105SOL     OW82924   4.515  10.145   9.353 -0.3713  0.0185 -0.0038
55105SOL    HW182925   4.545  10.179   9.437 -0.4161  0.7343 -0.2712
55105SOL    HW282926   4.492  10.053   9.371 -2.0060  0.5982  1.1726
55106SOL     OW82927   9.656  12.141   3.593  0.6299  0.1670 -0.3528
55106SOL    HW182928   9.629  12.079   3.525 -1.2098  2.1082 -1.5305
55106SOL    HW282929   9.747  12.120   3.610  0.5101 -1.8182 -1.8208
55107SOL     OW82930  12.707   0.048  13.681  0.6788 -0.1000  0.4147
55107SOL    HW182931  12.710   0.034  13.586  1.7880  4.0548 -0.3377
55107SOL    HW282932  12.619   0.081  13.699  0.7107 -0.1696  0.7128
55108SOL     OW82933   6.305  10.895   0.704  0.2717 -0.2430  0.2177
55108SOL    HW182934   6.305  10.832   0.631 -0.1814 -0.0791  0.0736
55108SOL    HW282935   6.335  10.844   0.779  2.3740 -0.0212 -0.4179
55109SOL     OW82936   6.830  12.951   2.369  0.2963  0.7978 -0.2829
55109SOL    HW182937   6.759  12.887   2.357  0.7495 -0.2359  1.9807
55109SOL    HW282938   6.797  13.031   2.327 -2.3860  0.4530  0.9331
55110SOL     OW82939  11.886  10.961   1.401  0.3269 -0.4004  0.2635
55110SOL    HW182940  11.804  10.955   1.449  0.7651  0.6320  1.1901
55110SOL    HW282941  11.870  10.915   1.319 -1.0128 -0.6360  0.6427
55111SOL     OW82942   3.711   6.166   1.287 -0.8329  0.1921  0.7437
55111SOL    HW182943   3.621   6.137   1.300 -1.0813  0.1580 -0.8546
55111SOL    HW282944   3.705   6.260   1.274 -1.1488 -0.1803 -2.8430
55112SOL     OW82945   1.216   5.273   6.185  1.0783 -0.1248  0.0409
55112SOL    HW182946   1.273   5.335   6.139  0.4429  0.3938 -0.0539
55112SOL    HW282947   1.160   5.328   6.240 -0.9839 -0.4399 -1.6600
55113SOL     OW82948   9.350   0.562   1.939 -0.4717 -0.1842 -0.1834
55113SOL    HW182949   9.270   0.521   1.971 -0.3465 -0.1437  0.1895
55113SOL    HW282950   9.420   0.503   1.968 -0.4378 -0.7645 -1.3984
55114SOL     OW82951  10.919   8.643   6.032 -0.5001  0.2496 -0.3248
55114SOL    HW182952  11.011   8.614   6.032 -0.6149 -0.1268 -0.1191
55114SOL    HW282953  10.896   8.648   5.940 -0.2154  0.5384 -0.3847
55115SOL     OW82954  13.398  10.311   2.144  0.1334 -0.3263 -0.1456
55115SOL    HW182955  13.415  10.397   2.105 -0.7848 -0.2507 -0.4022
55115SOL    HW282956  13.479  10.263   2.132  0.4310  0.2799 -0.6154
55116SOL     OW82957  13.950  10.574   9.004  0.7808  0.2734 -0.0056
55116SOL    HW182958  13.974  10.582   8.912  1.8009  1.1940  0.3279
55116SOL    HW282959  13.882  10.640   9.017 -0.5759 -0.9749 -0.4654
55117SOL     OW82960   1.438   5.352   3.415  0.0260 -0.7494  0.4894
55117SOL    HW182961   1.384   5.311   3.348 -0.3640  1.2570 -0.5016
55117SOL    HW282962   1.378   5.375   3.485  0.3909 -2.6000  1.4721
55118SOL     OW82963   0.391   8.118   3.846 -0.3287  0.0323  0.4965
55118SOL    HW182964   0.429   8.057   3.783 -0.1699  0.5115  0.1186
55118SOL    HW282965   0.297   8.102   3.842 -0.1806 -1.2344  1.5095
55119SOL     OW82966   2.048   9.582  11.793  0.2214  0.5685 -0.0960
55119SOL    HW182967   1.988   9.548  11.726  0.7444  0.6360 -0.6052
55119SOL    HW282968   2.040   9.677  11.787 -0.1129  0.5663  0.2911
55120SOL     OW82969  10.595   0.948   8.361  0.0627 -0.1842  0.1919
55120SOL    HW182970  10.517   0.993   8.328  1.8390  2.1194 -1.1527
55120SOL    HW282971  10.627   1.003   8.432  1.9908  0.4727 -1.1279
55121SOL     OW82972  13.639  11.844  10.983 -0.0113 -0.3282 -1.1251
55121SOL    HW182973  13.640  11.800  11.068  0.9774  1.5499 -0.0883
55121SOL    HW282974  13.732  11.856  10.962 -0.2404  0.9711 -1.4801
55122SOL     OW82975   2.480   2.528   3.424 -0.1608 -0.0106 -0.7892
55122SOL    HW182976   2.385   2.539   3.418 -0.2837  0.0136  0.9243
55122SOL    HW282977   2.499   2.534   3.517  1.3216 -1.7274 -0.9404
55123SOL     OW82978  11.779  12.473  12.816  0.1784 -0.3004 -0.0106
55123SOL    HW182979  11.739  12.386  12.810 -0.0425 -0.3536  1.8142
55123SOL    HW282980  11.833  12.469  12.895  0.5708  1.0702 -0.1886
55124SOL     OW82981   9.651   1.236   7.413 -0.3555 -0.0352  0.3199
55124SOL    HW182982   9.566   1.241   7.370  1.1276 -2.3230 -3.4433
55124SOL    HW282983   9.656   1.147   7.448  0.2906  0.2527  0.9982
55125SOL     OW82984  10.718   0.875  10.251 -0.5883 -0.0485  0.8474
55125SOL    HW182985  10.622   0.867  10.255 -0.3972 -2.4937  2.1457
55125SOL    HW282986  10.738   0.862  10.158 -1.4655  0.0595  0.6245
55126SOL     OW82987   4.375   6.890   6.651  0.7952 -0.0680  1.0314
55126SOL    HW182988   4.327   6.955   6.599  1.7555  0.9195  1.3358
55126SOL    HW282989   4.335   6.807   6.628  2.1477  0.1156 -2.4315
55127SOL     OW82990   4.487  10.695   8.282 -0.0209  0.3899 -0.4870
55127SOL    HW182991   4.525  10.607   8.288 -3.1586 -1.0427  0.5762
55127SOL    HW282992   4.520  10.740   8.360 -0.5613 -0.8659  0.5220
55128SOL     OW82993   0.390   1.426   7.797  0.2086  1.0750  0.3986
55128SOL    HW182994   0.432   1.506   7.766 -0.3433  1.0650 -0.4017
55128SOL    HW282995   0.400   1.364   7.724  0.4944  0.4589  0.9451
55129SOL     OW82996   0.878   8.487  11.266 -0.2656 -0.0870  0.2977
55129SOL    HW182997   0.937   8.482  11.341  1.7380  0.6017 -1.1233
55129SOL    HW282998   0.828   8.406  11.269 -0.9110  0.3311  2.8571
55130SOL     OW82999  11.224  10.590   7.952  0.0386 -0.3275 -0.5063
55130SOL    HW183000  11.217  10.496   7.970 -1.0711  0.2354  2.5278
55130SOL    HW283001  11.138  10.625   7.975  1.1874  1.7494  0.9303
55131SOL     OW83002   3.216   9.270   7.532 -0.4095 -0.5991 -0.0024
55131SOL    HW183003   3.234   9.179   7.510  1.0719 -0.3434  0.1012
55131SOL    HW283004   3.254   9.320   7.460  0.2252  0.0169  0.7493
55132SOL     OW83005  10.790   1.024  10.014 -0.0187  0.5427  0.6241
55132SOL    HW183006  10.862   1.088  10.012  1.4729 -1.0694  0.2441
55132SOL    HW283007  10.797   0.978   9.930 -1.3475  0.1449  0.7064
55133SOL     OW83008   9.625   8.384   4.344  0.0141 -0.0237 -0.0477
55133SOL    HW183009   9.612   8.404   4.437 -1.2201  0.7189 -0.3611
55133SOL    HW283010   9.656   8.466   4.306  1.8386 -0.6768 -0.0817
55134SOL     OW83011  12.858   4.314   6.077 -0.2893  0.0350 -0.7108
55134SOL    HW183012  12.912   4.391   6.057  0.9900 -0.7064 -0.2068
55134SOL    HW283013  12.807   4.299   5.997 -1.0586  1.7847 -0.5981
55135SOL     OW83014   9.130  12.309  12.753 -0.2605 -0.3420 -0.3495
55135SOL    HW183015   9.101  12.288  12.664 -3.1779 -3.0689  1.0593
55135SOL    HW283016   9.208  12.256  12.766 -1.0583 -1.6345 -0.6443
55136SOL     OW83017   7.811  12.840  11.292 -0.1808 -0.1080 -0.0987
55136SOL    HW183018   7.852  12.809  11.212 -0.3778 -1.5311  0.3126
55136SOL    HW283019   7.859  12.919  11.315  0.6631 -0.3439 -0.9755
55137SOL     OW83020   3.445  13.320   0.814 -0.2136 -0.3889 -0.5221
55137SOL    HW183021   3.461  13.340   0.722  0.6604 -0.0217 -0.2959
55137SOL    HW283022   3.461  13.226   0.822  0.5030 -0.2772 -0.5861
55138SOL     OW83023  11.432  10.980  13.117  0.1944  0.7143  0.4955
55138SOL    HW183024  11.452  11.046  13.051 -2.0217  0.7581 -0.2187
55138SOL    HW283025  11.440  10.897  13.071 -0.3255  0.6872  0.4493
55139SOL     OW83026   6.993   8.438   2.918  0.2426 -0.3638  0.0050
55139SOL    HW183027   6.927   8.423   2.986  0.1681 -0.6943 -0.1363
55139SOL    HW283028   6.959   8.391   2.842  1.2082 -1.5092  0.2616
55140SOL     OW83029  12.263   6.798   8.352 -0.0479  0.1304 -0.4323
55140SOL    HW183030  12.212   6.833   8.425  1.8523  0.3212  0.8791
55140SOL    HW283031  12.331   6.745   8.394  0.6308 -0.3859 -2.1122
55141SOL     OW83032  10.891  13.528   1.167  0.6701 -0.6472  0.4666
55141SOL    HW183033  10.942  13.473   1.107 -0.7546 -2.0315  0.4533
55141SOL    HW283034  10.951  13.547   1.239  1.6322 -1.0644 -0.2061
55142SOL     OW83035   4.326   5.293   9.267 -0.5768  0.1570  0.4092
55142SOL    HW183036   4.350   5.386   9.272 -2.3172  0.6504  0.2120
55142SOL    HW283037   4.332   5.271   9.174  0.5975 -0.1673  0.5462
55143SOL     OW83038   3.842  10.319   9.800  0.2183 -0.6126  0.0470
55143SOL    HW183039   3.904  10.302   9.871 -0.7888 -0.7902  0.9015
55143SOL    HW283040   3.778  10.380   9.837  0.1791  0.0074 -0.9938
55144SOL     OW83041   8.165   1.016   1.157  0.1207 -0.0843  0.1666
55144SOL    HW183042   8.183   0.924   1.138 -1.4878 -0.0905 -1.5393
55144SOL    HW283043   8.076   1.017   1.193  0.2460  0.7666  0.4881
55145SOL     OW83044   1.730   0.819   3.095 -0.0804 -0.4283 -0.4623
55145SOL    HW183045   1.735   0.904   3.138 -2.5034 -0.9479  1.0307
55145SOL    HW283046   1.783   0.761   3.150  1.0573 -0.0826 -1.1398
55146SOL     OW83047  10.970  12.457   5.493 -0.1315  0.2415 -0.0229
55146SOL    HW183048  10.944  12.538   5.539  0.6271  1.0627 -0.9930
55146SOL    HW283049  10.916  12.456   5.414  0.4333  0.2384 -0.4158
55147SOL     OW83050   7.554   6.642  10.827 -0.3642  0.4174  0.1036
55147SOL    HW183051   7.459   6.633  10.822 -0.5747  2.5117 -0.6361
55147SOL    HW283052   7.582   6.655  10.736  0.7504 -0.9001  0.2224
55148SOL     OW83053  13.405   7.579   9.791 -0.3416 -0.2757  0.0745
55148SOL    HW183054  13.409   7.672   9.766 -0.4040 -0.4807 -0.7477
55148SOL    HW283055  13.381   7.534   9.710 -1.1602 -0.9281  0.6565
55149SOL     OW83056   6.140  11.293   3.266  0.0512  0.2647  0.3870
55149SOL    HW183057   6.184  11.288   3.181 -1.7410 -1.2982 -0.5097
55149SOL    HW283058   6.172  11.375   3.304  1.9088  0.3562 -1.1976
55150SOL     OW83059  10.794  13.848  11.004  0.1306 -0.4990  0.5021
55150SOL    HW183060  10.861  13.784  10.980  1.1779  0.6197  0.3513
55150SOL    HW283061  10.788  13.905  10.927 -0.2815  0.0019  0.9070
55151SOL     OW83062   0.116   4.229   2.364 -0.5799  0.1238  0.0749
55151SOL    HW183063   0.121   4.271   2.278 -2.3394 -1.5591 -0.9245
55151SOL    HW283064   0.186   4.164   2.362 -0.3728  0.3469  0.0589
55152SOL     OW83065   1.933   0.887   1.199 -0.3048  0.0440  0.1534
55152SOL    HW183066   1.845   0.895   1.162  0.0238  0.9997 -0.4775
55152SOL    HW283067   1.919   0.859   1.289 -1.3152  1.1804  0.3719
55153SOL     OW83068   6.470   2.586  11.770 -0.3121  0.4106 -0.2706
55153SOL    HW183069   6.498   2.676  11.786  0.9688  0.1198 -0.7059
55153SOL    HW283070   6.419   2.562  11.847 -2.1985  2.0652 -0.9250
55154SOL     OW83071  13.295   8.408   1.199  0.2208  0.2245 -0.0800
55154SOL    HW183072  13.284   8.499   1.226 -1.4256 -0.0976  0.4049
55154SOL    HW283073  13.207   8.371   1.200 -0.0556 -0.0375 -5.1782
55155SOL     OW83074   0.052  11.432  10.807 -0.6444  0.0498  0.5199
55155SOL    HW183075   0.077  11.348  10.767  0.3144  0.4459  0.2607
55155SOL    HW283076   0.125  11.454  10.865 -0.9102  0.6839  0.6210
55156SOL     OW83077   2.408   9.371   5.769 -0.4115  0.3837  0.1689
55156SOL    HW183078   2.439   9.335   5.686 -0.8484  1.3390 -0.4266
55156SOL    HW283079   2.426   9.465   5.764 -0.0278  0.3933  1.3526
55157SOL     OW83080  13.462   0.556   3.340 -0.2030  0.4032 -0.0836
55157SOL    HW183081  13.384   0.525   3.292  0.1614  0.5838 -0.8012
55157SOL    HW283082  13.458   0.651   3.332 -0.7032  0.4985  1.1510
55158SOL     OW83083  11.703   6.488   7.064  0.0119  0.5838  0.2155
55158SOL    HW183084  11.781   6.446   7.027 -0.0161  0.8043 -0.0988
55158SOL    HW283085  11.630   6.450   7.015  0.0608  1.8363 -0.8923
55159SOL     OW83086   8.509   3.976   4.323 -0.1606 -0.7767 -0.4672
55159SOL    HW183087   8.528   4.005   4.412  1.0102 -2.5536 -0.0778
55159SOL    HW283088   8.523   4.053   4.269  0.5712 -0.0428  0.7200
55160SOL     OW83089   8.660  12.974  11.594  0.6244 -0.5616 -0.0672
55160SOL    HW183090   8.642  12.923  11.673 -0.7923 -1.3366 -0.8614
55160SOL    HW283091   8.749  12.948  11.569  0.2149 -2.1147 -0.0334
55161SOL     OW83092  11.682   5.348   4.551 -0.6068 -0.0783 -0.0867
55161SOL    HW183093  11.641   5.385   4.628 -0.9768  0.2591 -0.4403
55161SOL    HW283094  11.674   5.253   4.562  0.3198 -0.0726  0.8099
55162SOL     OW83095   6.764   9.014  13.427  0.4399  0.2024  0.4502
55162SOL    HW183096   6.857   9.017  13.405  0.2805 -1.3939 -0.6088
55162SOL    HW283097   6.760   8.959  13.506  0.2483 -1.6779 -0.8013
55163SOL     OW83098   8.847   4.787   7.242 -0.3206 -0.2798 -0.6029
55163SOL    HW183099   8.884   4.745   7.164 -1.5900  0.1099 -1.4459
55163SOL    HW283100   8.878   4.877   7.239  0.4437 -0.5112 -0.0910
55164SOL     OW83101  14.071   6.764   1.127 -0.1310  0.5298 -0.1503
55164SOL    HW183102  14.042   6.709   1.054 -1.1646 -2.3551  2.2292
55164SOL    HW283103  14.163   6.741   1.140 -0.3049  0.0449  0.2502
55165SOL     OW83104   0.744  10.261  11.674 -0.0877 -0.2600  0.5912
55165SOL    HW183105   0.811  10.327  11.656 -0.9491  0.5023  0.0805
55165SOL    HW283106   0.754  10.198  11.602 -1.8445  1.4418 -1.2893
55166SOL     OW83107   1.716   4.546   5.428 -0.8903  0.5700 -0.4121
55166SOL    HW183108   1.744   4.602   5.355  2.6796 -0.0341  0.3426
55166SOL    HW283109   1.761   4.583   5.505 -3.0887  0.0725  1.2174
55167SOL     OW83110   3.227   7.215   2.772  0.5097  0.2250 -0.3249
55167SOL    HW183111   3.209   7.307   2.791  1.5040  0.0976  1.4961
55167SOL    HW283112   3.153   7.167   2.811 -0.2263  0.2451 -1.6436
55168SOL     OW83113   9.266   3.141   9.177  0.0725  0.0450  0.1179
55168SOL    HW183114   9.290   3.078   9.109  2.7637  1.2852 -0.2347
55168SOL    HW283115   9.289   3.098   9.259  0.0665 -0.1833 -0.0013
55169SOL     OW83116   6.030  13.934   8.112 -0.3194 -0.3223 -0.0788
55169SOL    HW183117   5.998  13.972   8.193  0.0442  0.2138 -0.1837
55169SOL    HW283118   6.088  13.863   8.140  0.4843  0.4172  0.1448
55170SOL     OW83119  10.395   9.247  13.677 -0.1340  0.2817 -0.4148
55170SOL    HW183120  10.348   9.170  13.645 -0.6258  0.9602 -1.3889
55170SOL    HW283121  10.327   9.312  13.694  0.2789  0.5183  0.3709
55171SOL     OW83122  13.669   0.579   0.864  0.0795  0.0663 -0.2128
55171SOL    HW183123  13.617   0.501   0.883  0.3990 -0.1006 -0.0238
55171SOL    HW283124  13.606   0.641   0.827 -0.8401  0.8062  2.3704
55172SOL     OW83125   0.350   5.931   3.108 -0.1900 -0.2587  0.1179
55172SOL    HW183126   0.328   5.990   3.180  0.4068  0.5969 -0.3886
55172SOL    HW283127   0.444   5.941   3.097  0.0498 -1.8234  0.4562
55173SOL     OW83128   5.717   9.871   6.878  0.3286  0.6473 -0.2853
55173SOL    HW183129   5.769   9.951   6.870  0.3983  0.9949  2.7124
55173SOL    HW283130   5.627   9.899   6.863  0.1252  1.7519  2.4586
55174SOL     OW83131   7.940   1.633   3.277 -0.1609 -0.5538  0.5192
55174SOL    HW183132   7.896   1.647   3.193  0.0852  1.0039  0.6176
55174SOL    HW283133   7.868   1.616   3.339 -0.5557  0.6937  0.4326
55175SOL     OW83134   1.083   9.089   9.828  0.8439  0.1808  0.1677
55175SOL    HW183135   1.072   9.184   9.818  0.1771 -0.0578 -1.6892
55175SOL    HW283136   1.039   9.069   9.911 -2.5181  1.0008 -1.2505
55176SOL     OW83137   1.183  10.297   3.197 -0.1926  0.6700  0.5107
55176SOL    HW183138   1.193  10.259   3.284  0.2014 -1.0479 -0.2329
55176SOL    HW283139   1.253  10.257   3.145  0.4936  2.7520 -0.2727
55177SOL     OW83140  10.390  12.606  12.877  0.3453  0.4309  0.0000
55177SOL    HW183141  10.300  12.634  12.858 -0.5433 -1.2190  1.5403
55177SOL    HW283142  10.424  12.674  12.935 -0.8753 -0.2681  1.6053
55178SOL     OW83143   9.122  13.197   1.216 -0.0302 -0.0274  0.0774
55178SOL    HW183144   9.103  13.287   1.240 -2.6926 -0.3204 -0.6162
55178SOL    HW283145   9.213  13.199   1.185  0.7345  1.9249  2.1161
55179SOL     OW83146   4.754   7.603   9.356 -0.0448 -0.1443  0.1095
55179SOL    HW183147   4.843   7.630   9.335 -0.1866 -0.2127 -0.5982
55179SOL    HW283148   4.745   7.517   9.314 -1.1960  0.8512 -1.8338
55180SOL     OW83149   2.999   7.855  10.648 -0.0201 -0.0413  0.0477
55180SOL    HW183150   2.931   7.891  10.705 -0.2966 -0.1538 -0.2082
55180SOL    HW283151   3.081   7.888  10.684 -0.2756  1.0436 -0.3185
55181SOL     OW83152  12.636   1.283   5.458 -0.1837  0.2109 -0.1946
55181SOL    HW183153  12.705   1.323   5.406  0.9571 -0.7755  0.4999
55181SOL    HW283154  12.556   1.331   5.435  0.9786  2.3661  0.0603
55182SOL     OW83155   8.735   3.058   1.500 -0.0135 -0.3101  0.4888
55182SOL    HW183156   8.690   2.987   1.544  1.5550 -1.4525  0.3021
55182SOL    HW283157   8.671   3.089   1.435 -0.6566 -1.6634  0.4361
55183SOL     OW83158   5.687   9.604  12.897 -0.2218 -0.2440 -0.0259
55183SOL    HW183159   5.632   9.678  12.871  0.5782  0.2703 -0.3005
55183SOL    HW283160   5.627   9.530  12.903 -1.3051  0.7226  1.6963
55184SOL     OW83161   9.547  13.148  12.014  0.3909 -0.0349 -0.1887
55184SOL    HW183162   9.631  13.103  12.004  1.1229  0.8727  1.4206
55184SOL    HW283163   9.483  13.078  12.023  1.6229 -0.9506  3.4014
55185SOL     OW83164   2.597   9.618   0.358 -0.2565 -0.2538  0.0601
55185SOL    HW183165   2.671   9.678   0.357  0.1147 -0.7231 -0.6544
55185SOL    HW283166   2.578   9.606   0.452 -0.2544  0.8602  0.2180
55186SOL     OW83167   3.193   6.557   1.510 -0.6510 -0.2919  0.0648
55186SOL    HW183168   3.268   6.615   1.495  0.4497 -1.3483  1.1651
55186SOL    HW283169   3.197   6.493   1.439  0.2569 -1.0453  0.7472
55187SOL     OW83170   3.248   0.070   7.707 -0.3781 -0.1375 -0.3991
55187SOL    HW183171   3.299  -0.005   7.737  0.5917  0.5669 -0.2226
55187SOL    HW283172   3.273   0.141   7.767 -0.8900  0.4638 -0.8797
55188SOL     OW83173  11.462  12.957  10.123 -0.4848  0.0061 -0.0774
55188SOL    HW183174  11.547  12.989  10.093 -1.3127  0.5628 -1.9972
55188SOL    HW283175  11.470  12.862  10.121  0.3145  0.0482  0.5094
55189SOL     OW83176   1.643  10.878  12.026  0.1798 -0.4834 -0.0959
55189SOL    HW183177   1.665  10.880  12.119  0.5474 -1.0470 -0.1709
55189SOL    HW283178   1.563  10.930  12.020  0.2356 -0.3142  0.5112
55190SOL     OW83179  11.105  10.843   5.039 -0.1738  0.4061 -0.2030
55190SOL    HW183180  11.190  10.834   5.082 -0.5875 -1.9838  0.2389
55190SOL    HW283181  11.127  10.866   4.949  0.9543  0.1340 -0.0165
55191SOL     OW83182  12.987  11.008   2.386  0.1975  0.0147 -0.0791
55191SOL    HW183183  12.925  10.960   2.440 -1.8128  0.3966 -1.8983
55191SOL    HW283184  13.024  11.073   2.444 -0.8881 -0.4234  1.1594
55192SOL     OW83185   4.841   9.699   7.119 -0.7286  0.1858  0.1723
55192SOL    HW183186   4.915   9.707   7.059  0.3478 -0.3044  1.3856
55192SOL    HW283187   4.771   9.750   7.078  0.4514  1.1339 -0.7325
55193SOL     OW83188   0.152   6.566   8.353  0.0158  0.1266 -0.3173
55193SOL    HW183189   0.153   6.525   8.439  2.1845 -1.4486 -1.0089
55193SOL    HW283190   0.210   6.642   8.361 -0.7993  0.7333 -0.0797
55194SOL     OW83191   2.626  12.160   1.132  0.2748  0.1285  0.1161
55194SOL    HW183192   2.613  12.251   1.162 -1.4232  0.2296 -0.8256
55194SOL    HW283193   2.656  12.169   1.042 -2.4557 -0.1771 -0.9362
55195SOL     OW83194  12.510  10.386   6.888  0.0722 -0.0149 -0.5162
55195SOL    HW183195  12.420  10.408   6.915  0.4378  0.2767  0.5076
55195SOL    HW283196  12.548  10.469   6.860 -0.8546 -0.5542 -3.8095
55196SOL     OW83197   5.668   3.576   0.989 -0.4803  0.2110 -0.2531
55196SOL    HW183198   5.744   3.599   1.042 -0.0015 -1.8988  0.0419
55196SOL    HW283199   5.607   3.649   1.002  0.8572  1.2031  0.7188
55197SOL     OW83200  14.042  13.776  10.818 -0.0908 -0.3196 -0.0740
55197SOL    HW183201  14.035  13.785  10.723  0.0387 -2.1786 -0.2880
55197SOL    HW283202  13.967  13.823  10.852 -0.6379 -0.3901 -1.1470
55198SOL     OW83203  11.870   2.886  12.240  0.8261 -0.2135  0.6112
55198SOL    HW183204  11.780   2.855  12.254  0.1794  0.6966 -1.1813
55198SOL    HW283205  11.880   2.958  12.303 -0.5413  1.1429 -0.6399
55199SOL     OW83206   9.966  12.094  11.927  0.2715  0.1481  0.2308
55199SOL    HW183207   9.989  12.051  11.845  0.7407  0.4433  0.2050
55199SOL    HW283208   9.928  12.178  11.900 -0.5575 -0.1995  0.2841
55200SOL     OW83209  12.781  10.753   4.708  0.0406  0.3195 -0.2168
55200SOL    HW183210  12.734  10.709   4.779  0.5674  0.4411  0.2125
55200SOL    HW283211  12.811  10.836   4.745  0.5129  0.2863 -0.5049
55201SOL     OW83212   1.078  10.095   0.196  0.3207 -0.0650 -0.0117
55201SOL    HW183213   1.018  10.044   0.250 -0.8848 -0.1368 -1.3546
55201SOL    HW283214   1.165  10.066   0.222  0.0005  1.5651  3.5684
55202SOL     OW83215   8.175   2.412   0.625 -0.1862  0.3237  0.3474
55202SOL    HW183216   8.158   2.393   0.533 -0.8327 -0.0180  0.5288
55202SOL    HW283217   8.206   2.503   0.625  0.9271 -0.0479 -0.3127
55203SOL     OW83218   5.145   2.963   4.132  0.6773 -0.3815  0.1894
55203SOL    HW183219   5.063   2.934   4.092 -1.1003  0.4911  2.9471
55203SOL    HW283220   5.129   3.053   4.159  1.9580 -0.6910  2.1997
55204SOL     OW83221   2.558   9.343   5.558 -0.3081  0.7192 -0.1821
55204SOL    HW183222   2.630   9.364   5.617 -0.7552 -0.4854  0.8367
55204SOL    HW283223   2.537   9.426   5.515 -0.2798  1.7565  1.7229
55205SOL     OW83224   5.928   5.503   3.823 -0.0806 -0.3834 -0.0982
55205SOL    HW183225   5.964   5.531   3.739  1.1649  0.8970  0.8074
55205SOL    HW283226   5.847   5.456   3.801  0.7705 -1.0071 -2.0461
55206SOL     OW83227   9.339  11.603   1.379  0.0790 -0.0783 -0.2030
55206SOL    HW183228   9.309  11.524   1.335  2.1330 -1.7639  1.1902
55206SOL    HW283229   9.284  11.609   1.458 -0.3448  0.1247 -0.5114
55207SOL     OW83230   9.121   2.526   7.123  0.3116  0.2734 -0.3005
55207SOL    HW183231   9.141   2.451   7.178 -0.1354  0.4921  0.1696
55207SOL    HW283232   9.202   2.577   7.121  0.6946 -0.3384 -0.8282
55208SOL     OW83233   0.610   9.848   3.320 -0.6185 -0.1976  0.0604
55208SOL    HW183234   0.639   9.781   3.381 -1.0528  1.0398  1.7076
55208SOL    HW283235   0.610   9.805   3.234  1.7032 -1.4960  0.6301
55209SOL     OW83236  10.973   4.379   4.740 -0.1710  0.0227  0.4311
55209SOL    HW183237  10.967   4.368   4.645  0.9474 -0.9377  0.4604
55209SOL    HW283238  11.031   4.454   4.752  0.9853 -0.8352  0.3551
55210SOL     OW83239   6.424   3.840   6.811 -0.1583 -0.5928  0.0670
55210SOL    HW183240   6.477   3.843   6.890 -0.4786 -1.1256  0.3096
55210SOL    HW283241   6.443   3.922   6.765 -0.0325 -0.2479  0.7326
55211SOL     OW83242   0.125   8.800   0.771  0.8681  0.2907 -0.1389
55211SOL    HW183243   0.184   8.875   0.771  0.7542  0.3806 -0.0354
55211SOL    HW283244   0.105   8.784   0.863  0.1221  0.7490 -0.2053
55212SOL     OW83245   5.768   1.739  13.364 -0.3633  0.1349 -0.4888
55212SOL    HW183246   5.802   1.809  13.420  1.1273 -0.6464 -0.3638
55212SOL    HW283247   5.827   1.665  13.379 -1.3805 -0.8789 -1.2718
55213SOL     OW83248  13.544   9.730   9.785 -0.8571 -0.1075  0.1267
55213SOL    HW183249  13.635   9.758   9.791 -1.1549  0.7704  0.8262
55213SOL    HW283250  13.545   9.639   9.813 -0.0487 -0.4422 -0.9252
55214SOL     OW83251   1.425   9.447   8.401 -0.4413  0.2981 -0.0674
55214SOL    HW183252   1.476   9.510   8.452  1.8447 -0.3040 -1.4682
55214SOL    HW283253   1.369   9.501   8.346  2.4632  1.3085 -2.2570
55215SOL     OW83254   1.738   6.525   8.371  0.3799  0.4258  0.7079
55215SOL    HW183255   1.784   6.530   8.287  0.7793  1.2039  0.9705
55215SOL    HW283256   1.792   6.575   8.431  0.3493 -0.5326  1.5587
55216SOL     OW83257   1.125  11.314  13.439  0.3365  0.5582 -0.4840
55216SOL    HW183258   1.170  11.252  13.497 -0.4388 -1.3352 -1.8097
55216SOL    HW283259   1.035  11.315  13.470  0.0634  0.0324 -1.2399
55217SOL     OW83260   0.737  10.203  10.139  0.0386  0.1147  0.1153
55217SOL    HW183261   0.685  10.139  10.092 -0.4161  0.1532  0.5601
55217SOL    HW283262   0.827  10.189  10.108  0.0685 -1.2310  0.7518
55218SOL     OW83263   0.161   9.477  13.067 -0.0069  0.0770 -0.5523
55218SOL    HW183264   0.191   9.387  13.072  1.3282  0.5075 -0.3307
55218SOL    HW283265   0.097   9.486  13.137  2.2661  0.1458  1.6869
55219SOL     OW83266   7.433   2.989   1.351 -0.1769  0.0208  0.2128
55219SOL    HW183267   7.364   2.931   1.318  0.3627 -0.9414  0.7457
55219SOL    HW283268   7.481   3.015   1.273 -0.4626 -0.2056 -0.0434
55220SOL     OW83269   1.999   7.327   3.663 -0.5706 -0.6189 -0.8056
55220SOL    HW183270   2.067   7.357   3.723 -2.2162 -0.6069  1.1692
55220SOL    HW283271   2.040   7.257   3.613  0.4887 -1.6651  1.4020
55221SOL     OW83272   8.237  13.196   4.152  0.1261  0.8415 -0.3769
55221SOL    HW183273   8.330  13.201   4.177  0.4419  0.7558 -1.4973
55221SOL    HW283274   8.229  13.110   4.110 -0.6363  0.5341  0.3811
55222SOL     OW83275   2.372   0.257   0.244  0.1983  0.0185  0.2044
55222SOL    HW183276   2.311   0.189   0.273  0.5655 -0.5176 -0.2587
55222SOL    HW283277   2.326   0.339   0.262 -0.0427 -0.3328  1.2377
55223SOL     OW83278  11.031  12.107   5.899  0.0080 -0.3839 -0.6809
55223SOL    HW183279  11.091  12.034   5.912 -0.8653 -0.8069  1.3553
55223SOL    HW283280  10.945  12.067   5.892 -0.9481  0.3887  3.5719
55224SOL     OW83281   1.679  11.941   4.416 -0.0501 -0.3537 -0.1972
55224SOL    HW183282   1.657  11.896   4.498 -3.0378 -2.2474 -1.8631
55224SOL    HW283283   1.719  11.874   4.362  1.6553  0.8176 -0.4495
55225SOL     OW83284   1.825   1.279   9.391  0.0596  0.4590  0.3253
55225SOL    HW183285   1.898   1.272   9.453  1.2714 -0.6548 -1.1376
55225SOL    HW283286   1.815   1.191   9.355 -1.0329  0.9290 -0.5987
55226SOL     OW83287  10.902   0.922  12.413  0.2506  0.0009 -0.3624
55226SOL    HW183288  10.851   0.895  12.489 -0.3223  0.8750 -0.4229
55226SOL    HW283289  10.851   0.891  12.338 -0.5400  1.3724 -0.4403
55227SOL     OW83290   0.335  12.598   7.518  0.2206 -0.4786 -0.2372
55227SOL    HW183291   0.356  12.605   7.425  1.9268  1.7105  0.2110
55227SOL    HW283292   0.378  12.517   7.546 -0.7408 -1.4258 -1.4149
55228SOL     OW83293   8.390   7.784   5.577 -0.0145 -0.2986  0.3195
55228SOL    HW183294   8.345   7.803   5.494  0.1366 -0.8344  0.1120
55228SOL    HW283295   8.322   7.744   5.632 -0.2495  0.5319  0.6448
55229SOL     OW83296  10.324   2.065   0.462  0.1861  0.1882 -0.1621
55229SOL    HW183297  10.324   2.121   0.384  1.4925 -0.9150 -0.9887
55229SOL    HW283298  10.232   2.042   0.475 -0.1384  1.0079 -0.9153
55230SOL     OW83299  13.212   2.910   9.803 -0.0147  0.0391 -0.0633
55230SOL    HW183300  13.272   2.972   9.844 -1.8085  1.7709  0.0764
55230SOL    HW283301  13.130   2.921   9.850 -0.7373 -1.6119 -0.8419
55231SOL     OW83302   5.547  10.917   4.249 -0.0984 -0.0661 -0.3457
55231SOL    HW183303   5.477  10.883   4.304 -0.5755 -0.7920 -1.3694
55231SOL    HW283304   5.612  10.846   4.246  1.7314  1.3347  2.2689
55232SOL     OW83305   1.648   5.327   2.987  0.1115  0.1065  0.1877
55232SOL    HW183306   1.679   5.340   2.897  0.4118  0.5252  0.3472
55232SOL    HW283307   1.579   5.261   2.979  0.3895 -0.1344 -0.3017
55233SOL     OW83308   4.840   4.496   5.406 -0.1379  0.1962  0.1807
55233SOL    HW183309   4.883   4.415   5.434  0.2934  0.3145 -0.1169
55233SOL    HW283310   4.875   4.563   5.464 -0.8845  0.0899  0.7625
55234SOL     OW83311   2.987   5.774   3.488  0.6169  0.1775 -0.4192
55234SOL    HW183312   2.917   5.727   3.443  0.7748  0.3850 -0.8822
55234SOL    HW283313   2.944   5.814   3.564  0.3944 -0.3478 -0.2654
55235SOL     OW83314  13.886   8.659   9.613 -0.0877 -0.1491 -0.1814
55235SOL    HW183315  13.851   8.596   9.549 -2.0153 -0.9573  1.5484
55235SOL    HW283316  13.822   8.730   9.614  1.1145  0.9823 -0.7492
55236SOL     OW83317   5.527   5.869   3.140  0.1371 -0.4259 -0.3826
55236SOL    HW183318   5.446   5.828   3.169 -0.9925  1.3561 -0.8639
55236SOL    HW283319   5.502   5.959   3.118  2.6604  0.9001  1.6405
55237SOL     OW83320   2.103  11.903   7.415 -0.3569  0.0019  0.5079
55237SOL    HW183321   2.132  11.816   7.388 -1.3147  0.1673 -1.1476
55237SOL    HW283322   2.102  11.954   7.335  1.6205  2.0040  1.6420
55238SOL     OW83323   3.794   1.717  12.420 -0.3736 -0.6593  0.5289
55238SOL    HW183324   3.745   1.796  12.443  0.6814  0.2184 -0.1664
55238SOL    HW283325   3.873   1.720  12.474  0.9615  0.1818 -1.3490
55239SOL     OW83326   5.112   2.221   7.624  0.6993  0.1618  0.1487
55239SOL    HW183327   5.026   2.194   7.591  0.7698  0.6551 -0.4641
55239SOL    HW283328   5.156   2.139   7.648  0.3991 -0.1635 -0.3883
55240SOL     OW83329  10.960  11.986   1.049  0.1198 -0.4292 -0.3920
55240SOL    HW183330  10.915  11.922   0.993 -0.7895 -0.3147  0.1755
55240SOL    HW283331  10.928  11.966   1.137  1.9091 -0.9367  0.1744
55241SOL     OW83332   7.190   8.959   0.864  0.3168  0.3476 -0.3899
55241SOL    HW183333   7.195   8.974   0.959  0.1087  0.1681 -0.3488
55241SOL    HW283334   7.108   9.001   0.838  0.6449  0.8731 -0.5850
55242SOL     OW83335  12.638   3.322  13.488  0.1001 -0.2987 -0.2358
55242SOL    HW183336  12.587   3.328  13.407 -2.8718  0.9368  1.5657
55242SOL    HW283337  12.719   3.369  13.469  0.4545 -1.8491 -3.0684
55243SOL     OW83338  13.473  10.066  11.987 -0.0462 -0.9888 -0.3549
55243SOL    HW183339  13.421  10.008  12.041  0.6892 -1.7404 -0.4278
55243SOL    HW283340  13.466  10.152  12.029  0.7410 -1.6117  1.1241
55244SOL     OW83341   2.231   3.453   3.172  0.4614  0.0745 -0.5809
55244SOL    HW183342   2.251   3.431   3.263 -1.3433 -1.9641 -0.6089
55244SOL    HW283343   2.137   3.470   3.171  0.7501  1.8600 -1.7760
55245SOL     OW83344  12.235   5.813   3.528  0.2592  0.3996 -0.0388
55245SOL    HW183345  12.148   5.794   3.495  0.1084 -0.2860  0.7143
55245SOL    HW283346  12.263   5.892   3.481 -0.0894 -0.3115 -1.4870
55246SOL     OW83347   2.559  12.028  12.740 -0.1277  0.4954 -0.4397
55246SOL    HW183348   2.633  12.042  12.681 -0.9784  2.7067 -1.0727
55246SOL    HW283349   2.587  12.066  12.823 -0.0053 -0.0065 -0.2503
55247SOL     OW83350   0.601   5.973   5.442 -0.3877  0.0748 -0.5383
55247SOL    HW183351   0.577   5.935   5.527 -0.9990 -0.9042 -1.1220
55247SOL    HW283352   0.536   6.041   5.428  0.0752  0.6474  0.0407
55248SOL     OW83353   2.298   5.578   3.452 -0.1166 -0.1452 -0.0626
55248SOL    HW183354   2.375   5.559   3.399 -0.4287  0.7673 -0.8757
55248SOL    HW283355   2.334   5.606   3.537  0.3915 -1.1675  0.0768
55249SOL     OW83356   8.796  12.597   8.585 -0.3268 -0.7246 -0.0095
55249SOL    HW183357   8.781  12.635   8.672  0.8853  1.6129 -0.7337
55249SOL    HW283358   8.709  12.573   8.554 -1.0882  0.7695  0.8616
55250SOL     OW83359   9.926   2.254   3.185  0.0703  0.4300  0.0719
55250SOL    HW183360   9.987   2.328   3.185 -0.4982  0.9176  0.7432
55250SOL    HW283361   9.841   2.293   3.206 -0.1102 -0.5109  1.2214
55251SOL     OW83362   1.920   1.261   4.603 -0.3188 -0.6770 -0.1467
55251SOL    HW183363   1.829   1.278   4.626  0.5630  1.6646  2.1299
55251SOL    HW283364   1.962   1.347   4.609  2.3413 -1.9322  0.5006
55252SOL     OW83365  10.973   6.531   7.241  0.2811  0.0767 -0.1746
55252SOL    HW183366  10.996   6.599   7.178  1.0503  1.2074  1.2658
55252SOL    HW283367  11.048   6.526   7.300  0.0227 -1.6870  0.0734
55253SOL     OW83368   6.435   1.448   8.361  0.2588 -1.2883 -0.0559
55253SOL    HW183369   6.510   1.438   8.302  0.4416 -0.2049 -0.0320
55253SOL    HW283370   6.474   1.465   8.447  0.1732  3.4174 -0.6857
55254SOL     OW83371  11.061   8.626   3.295  0.1646 -0.8945  0.2689
55254SOL    HW183372  11.148   8.657   3.270  0.3019 -1.9893 -0.7039
55254SOL    HW283373  11.039   8.675   3.374  0.6513  1.1420 -0.7905
55255SOL     OW83374  13.052   2.055   7.366  0.1175 -0.4358 -0.2612
55255SOL    HW183375  13.126   2.019   7.414  1.7284  1.9215 -0.8354
55255SOL    HW283376  13.010   2.115   7.427 -0.2345 -0.4074 -0.5277
55256SOL     OW83377  11.469   6.030   6.582  0.0410 -0.1866  0.1402
55256SOL    HW183378  11.451   5.940   6.554 -1.0057  0.1914 -0.4792
55256SOL    HW283379  11.437   6.033   6.673  1.8328 -0.9327  0.8487
55257SOL     OW83380   1.030   0.104  11.954  0.5382 -0.1621  0.0093
55257SOL    HW183381   1.040   0.170  11.886 -2.4970  2.9998  2.2481
55257SOL    HW283382   1.079   0.138  12.029 -0.7327 -0.5708  1.0845
55258SOL     OW83383   7.538   5.618   5.323 -0.0807 -0.2613 -0.2035
55258SOL    HW183384   7.587   5.541   5.352 -1.6753 -0.6230  1.7803
55258SOL    HW283385   7.495   5.590   5.242 -0.1090 -1.2620  0.1367
55259SOL     OW83386   4.693   6.702  12.340 -0.0097  0.2241  0.2116
55259SOL    HW183387   4.689   6.795  12.364  2.8602  0.3098  0.7147
55259SOL    HW283388   4.684   6.701  12.245  3.3567  1.4656 -0.2453
55260SOL     OW83389   3.933   0.602   7.100 -0.6387  0.4161  0.4022
55260SOL    HW183390   3.941   0.692   7.069 -0.7799  0.6151  0.9248
55260SOL    HW283391   3.839   0.589   7.114 -0.5244  0.5529  1.3623
55261SOL     OW83392  11.863  11.182  12.145  0.3067 -0.1733 -0.5656
55261SOL    HW183393  11.778  11.205  12.183 -0.2921 -0.5907 -1.6020
55261SOL    HW283394  11.853  11.090  12.118  2.1521 -1.2975  2.1676
55262SOL     OW83395  12.695   9.756   8.177  0.4148  0.4744  0.3628
55262SOL    HW183396  12.602   9.746   8.157  0.9314 -1.1859 -1.4924
55262SOL    HW283397  12.697   9.779   8.270 -1.7805 -1.3068  0.9440
55263SOL     OW83398  11.535   2.383   1.684  0.1209 -0.3393  0.2492
55263SOL    HW183399  11.555   2.411   1.595 -0.5695 -0.5952  0.0019
55263SOL    HW283400  11.440   2.369   1.684 -0.2769  1.9052  1.6632
55264SOL     OW83401   2.681  11.493   5.900  0.0568 -0.3315 -0.0265
55264SOL    HW183402   2.697  11.534   5.985 -0.6104  0.9664 -0.5064
55264SOL    HW283403   2.671  11.566   5.839  0.4529 -1.2318 -1.2269
55265SOL     OW83404  12.879   0.405   2.892  0.7959 -0.1010 -0.0174
55265SOL    HW183405  12.851   0.490   2.859  2.5277  0.8723  0.9081
55265SOL    HW283406  12.851   0.343   2.825 -0.9192  1.1111 -0.4943
55266SOL     OW83407  12.492  12.274  12.072 -0.2567 -0.8356 -0.2222
55266SOL    HW183408  12.432  12.322  12.015 -0.2436 -0.6610 -0.0901
55266SOL    HW283409  12.503  12.330  12.149  0.1371 -0.8333 -0.2773
55267SOL     OW83410   7.961  14.020   4.949 -0.3302  0.0125 -0.7194
55267SOL    HW183411   8.056  14.026   4.935 -0.0735  1.5873  1.2840
55267SOL    HW283412   7.948  14.050   5.039 -2.6976 -0.7006 -0.7597
55268SOL     OW83413  13.112   1.851   0.592 -0.1066 -0.3928  0.1706
55268SOL    HW183414  13.061   1.872   0.514 -0.4533 -2.5960 -0.2667
55268SOL    HW283415  13.172   1.925   0.603 -2.8029  1.9562  0.2721
55269SOL     OW83416  10.316   3.352  12.894  0.5528 -0.3101 -0.1472
55269SOL    HW183417  10.349   3.301  12.820  0.5153 -1.2641  0.4780
55269SOL    HW283418  10.243   3.402  12.858  1.3868  0.2989 -1.0734
55270SOL     OW83419  12.719  10.275   1.705 -0.5015  0.4775 -0.3393
55270SOL    HW183420  12.664  10.289   1.628 -1.2468 -0.9376 -0.0810
55270SOL    HW283421  12.807  10.263   1.670 -0.9779 -1.0680 -1.0715
55271SOL     OW83422   2.981   3.216   5.568  0.2099 -0.2164  0.2871
55271SOL    HW183423   3.056   3.194   5.513 -0.5759 -0.1888 -0.8199
55271SOL    HW283424   2.950   3.132   5.602 -0.1959 -0.3905 -0.5023
55272SOL     OW83425  10.598   3.345   6.015 -0.2405  0.4810  0.0951
55272SOL    HW183426  10.527   3.342   6.079  0.5901 -0.1776  1.0182
55272SOL    HW283427  10.623   3.254   6.002  1.6412  0.7804  1.1949
55273SOL     OW83428   0.804   0.510   3.644 -0.4370  0.4101 -0.5437
55273SOL    HW183429   0.882   0.457   3.628  0.3712  0.9650  1.2949
55273SOL    HW283430   0.815   0.542   3.734 -1.7661  2.2388 -0.9866
55274SOL     OW83431   5.144   5.178  13.656  0.0388  0.3239  0.5135
55274SOL    HW183432   5.095   5.126  13.719 -1.0935 -0.3630 -0.8811
55274SOL    HW283433   5.191   5.242  13.709 -0.3892 -0.6136  2.0853
55275SOL     OW83434   6.135  10.133   5.129  0.3342  0.1390  0.3059
55275SOL    HW183435   6.098  10.045   5.135 -0.9470  0.7293  1.7413
55275SOL    HW283436   6.214  10.122   5.077  0.2639 -1.8820  0.5420
55276SOL     OW83437   3.805   3.464  10.267 -0.6523 -0.6299 -0.4578
55276SOL    HW183438   3.884   3.471  10.212 -0.5961 -0.0178 -0.2978
55276SOL    HW283439   3.799   3.370  10.286 -0.7949 -0.8951 -1.6848
55277SOL     OW83440   8.177   0.384   5.931 -0.2882 -0.3951 -0.0974
55277SOL    HW183441   8.196   0.476   5.949  0.2094 -0.3168 -0.9600
55277SOL    HW283442   8.112   0.360   5.997 -0.4307  0.5747  0.1401
55278SOL     OW83443   0.288   1.807   4.461 -0.2076 -0.0871 -0.2977
55278SOL    HW183444   0.337   1.887   4.441 -0.5867 -0.0527 -1.1083
55278SOL    HW283445   0.341   1.763   4.528  0.0255  0.8179  0.1364
55279SOL     OW83446   6.907   9.520   3.314 -0.3192  0.0230  0.0955
55279SOL    HW183447   6.902   9.601   3.365 -0.3573 -0.5739  1.0582
55279SOL    HW283448   6.970   9.540   3.245 -0.2955  0.8600  0.3443
55280SOL     OW83449  11.143   4.851  10.331  0.3124 -0.1797  0.5698
55280SOL    HW183450  11.082   4.820  10.264  0.5232  0.0669  0.2600
55280SOL    HW283451  11.130   4.792  10.405  0.8467 -1.1330 -0.0782
55281SOL     OW83452   2.191  12.702   9.866  0.0177 -0.5856 -0.2239
55281SOL    HW183453   2.161  12.648   9.793  1.8226 -1.4391 -0.3824
55281SOL    HW283454   2.286  12.708   9.855  0.3851 -0.9371  2.1537
55282SOL     OW83455   0.730   8.094   9.930  0.3473  0.3035 -0.0308
55282SOL    HW183456   0.735   8.182   9.892  0.8139  0.3073  0.0233
55282SOL    HW283457   0.652   8.095   9.985  2.2391  1.8820  2.9136
55283SOL     OW83458   8.805  10.939   1.797  0.4274  0.3148  0.4179
55283SOL    HW183459   8.771  10.974   1.715  0.6593  0.3404  0.3341
55283SOL    HW283460   8.793  10.844   1.790  1.3125  0.2319 -0.0359
55284SOL     OW83461   0.103  12.606   4.841  0.3159 -0.3723 -0.2433
55284SOL    HW183462   0.036  12.647   4.895 -1.8901 -0.9241 -2.4015
55284SOL    HW283463   0.168  12.574   4.904 -0.4200  1.8574  1.8202
55285SOL     OW83464   1.113   7.821   2.873 -0.3080  0.2666  0.3688
55285SOL    HW183465   1.078   7.909   2.857  0.1619  0.1552 -1.6681
55285SOL    HW283466   1.045   7.776   2.922 -1.2147  1.3223  0.1186
55286SOL     OW83467   3.379  10.795   6.985 -0.4969  0.2069  0.2967
55286SOL    HW183468   3.397  10.838   7.069 -1.4151 -1.3161  1.3492
55286SOL    HW283469   3.300  10.744   7.002 -0.9028  0.1361 -1.6343
55287SOL     OW83470   3.553   4.151   4.997 -0.6199 -0.1346  0.2600
55287SOL    HW183471   3.599   4.078   4.956 -0.5632 -0.3408  0.6860
55287SOL    HW283472   3.469   4.114   5.024 -0.8815  0.1394 -0.1551
55288SOL     OW83473   6.052  11.543   6.471 -0.1347 -0.1565  0.2974
55288SOL    HW183474   6.032  11.636   6.484  0.7505  0.2475 -1.0122
55288SOL    HW283475   6.115  11.522   6.540  0.3923  0.4965  0.0333
55289SOL     OW83476   7.096  11.976   2.569  0.9730  0.9889  0.1252
55289SOL    HW183477   7.150  11.932   2.635  0.7540  1.3202  0.5286
55289SOL    HW283478   7.035  12.029   2.620 -1.2622 -1.0859 -0.2144
55290SOL     OW83479   9.829   0.528   2.763 -0.4737  0.3881  0.3618
55290SOL    HW183480   9.763   0.592   2.740  0.6784  1.6520  0.4313
55290SOL    HW283481   9.780   0.449   2.786 -1.9027  1.1307 -0.0656
55291SOL     OW83482   7.402   3.897  11.817 -0.0500  0.0052 -0.3308
55291SOL    HW183483   7.400   3.865  11.727  2.0641  0.6385 -0.6463
55291SOL    HW283484   7.492   3.883  11.845 -0.3601  1.0120  1.2530
55292SOL     OW83485   5.213   2.814  13.487  0.0026 -0.6652  0.2020
55292SOL    HW183486   5.214   2.720  13.470  1.5327 -0.6310  0.0132
55292SOL    HW283487   5.286   2.829  13.546 -0.7325  0.3002  0.9048
55293SOL     OW83488   8.205   8.416   1.583  0.2277  0.5349 -0.7789
55293SOL    HW183489   8.151   8.463   1.521  1.2296  0.8411 -1.4496
55293SOL    HW283490   8.166   8.433   1.669 -0.4235  1.1527 -1.1991
55294SOL     OW83491   6.744  12.687   7.130 -0.1775  0.3412  0.3196
55294SOL    HW183492   6.779  12.722   7.048  1.2727  1.4268  1.3547
55294SOL    HW283493   6.712  12.763   7.178 -0.0217 -0.1427  1.2176
55295SOL     OW83494  10.055   0.202   2.189 -0.5009  0.6019  0.0276
55295SOL    HW183495  10.134   0.149   2.185 -1.1790 -0.3851 -0.8796
55295SOL    HW283496  10.034   0.206   2.283 -0.4695 -0.8116  0.1254
55296SOL     OW83497   6.673   0.901   5.931  0.4002  0.0136 -0.4321
55296SOL    HW183498   6.758   0.863   5.908  1.2788  1.2359  0.6613
55296SOL    HW283499   6.643   0.848   6.005  0.3030 -0.2963 -0.6921
55297SOL     OW83500   2.840   2.985   5.662  0.2909  0.7430  0.0633
55297SOL    HW183501   2.748   2.962   5.646  0.3811 -1.0023  1.7274
55297SOL    HW283502   2.888   2.904   5.646  1.0770  0.5983  2.7688
55298SOL     OW83503   4.848   3.857  10.504  0.3102 -0.4052 -0.4074
55298SOL    HW183504   4.831   3.940  10.460 -2.5519 -0.0595  1.0590
55298SOL    HW283505   4.883   3.883  10.590  0.0389 -0.7399 -0.1951
55299SOL     OW83506   1.376  10.045   8.577 -0.0926 -0.5689  0.7368
55299SOL    HW183507   1.283  10.068   8.582  0.2527  1.1299  0.0485
55299SOL    HW283508   1.378   9.950   8.588 -1.9851 -0.7410 -0.0442
55300SOL     OW83509  13.277   7.002  11.418 -0.0207 -0.1361 -0.0773
55300SOL    HW183510  13.319   7.083  11.390 -0.4969  0.3658  0.6315
55300SOL    HW283511  13.199   6.996  11.363  1.1772 -1.3365 -1.7598
55301SOL     OW83512   4.449   9.824   9.211  0.1298  0.1002  0.0558
55301SOL    HW183513   4.445   9.839   9.305  1.0595  0.8962 -0.0180
55301SOL    HW283514   4.437   9.912   9.173  0.0380 -0.1759 -0.5603
55302SOL     OW83515  13.215  12.135   9.430  0.2290 -0.3632 -0.2140
55302SOL    HW183516  13.253  12.050   9.451 -0.5417 -0.5662  0.4203
55302SOL    HW283517  13.194  12.130   9.337  0.8646 -0.5873 -0.3510
55303SOL     OW83518   4.925   7.888   5.265 -0.7135  0.2798 -0.2032
55303SOL    HW183519   4.975   7.887   5.347 -0.4587  0.2288 -0.3595
55303SOL    HW283520   4.907   7.795   5.247  0.0980  0.2173 -0.7335
55304SOL     OW83521   6.219  13.469   3.265  0.6986  0.2513 -0.5321
55304SOL    HW183522   6.185  13.557   3.248 -0.7308 -0.0975  0.3342
55304SOL    HW283523   6.306  13.468   3.225  0.4201  1.7995 -1.2241
55305SOL     OW83524   9.365  11.810   0.845  1.0258 -0.1387  0.5740
55305SOL    HW183525   9.410  11.894   0.857  2.8933 -1.0366  0.2618
55305SOL    HW283526   9.367  11.769   0.931  2.1222 -0.7595  0.2849
55306SOL     OW83527   7.893  12.380   5.490  0.3875  0.0836  0.0517
55306SOL    HW183528   7.843  12.349   5.415  0.1972 -0.9231  0.5722
55306SOL    HW283529   7.838  12.448   5.529  0.5062  0.6379 -0.7353
55307SOL     OW83530  12.321   0.048  10.296 -0.2171  0.1867  1.0274
55307SOL    HW183531  12.269   0.035  10.375 -0.0674  0.2498  1.1349
55307SOL    HW283532  12.398  -0.007  10.308 -0.0541  0.4205  1.0511
55308SOL     OW83533   9.488  12.623   3.401 -0.2686 -0.1398  0.2421
55308SOL    HW183534   9.398  12.617   3.369 -0.3144 -0.7227  0.4693
55308SOL    HW283535   9.512  12.533   3.423  1.1460 -0.3446 -1.8617
55309SOL     OW83536   5.541   3.904   7.894 -0.0319  0.2088  0.3055
55309SOL    HW183537   5.606   3.861   7.838  0.6950  0.0559  1.2489
55309SOL    HW283538   5.551   3.997   7.876  0.9701  0.2458  0.9687
55310SOL     OW83539   4.449  11.358   0.143 -0.2859  0.3321  0.0059
55310SOL    HW183540   4.405  11.340   0.060 -0.3313 -0.3766  0.1696
55310SOL    HW283541   4.475  11.271   0.175 -0.1032  0.6125  0.6408
55311SOL     OW83542  13.637  11.512  11.678 -0.2641 -0.0517  0.0274
55311SOL    HW183543  13.699  11.550  11.616  0.5939 -1.1732  0.1536
55311SOL    HW283544  13.681  11.518  11.763 -1.0733  0.7090  0.4070
55312SOL     OW83545   5.828   9.871   1.064  0.1843 -0.4746 -0.0253
55312SOL    HW183546   5.829   9.818   0.985  1.4963 -1.5657  0.6737
55312SOL    HW283547   5.773   9.822   1.126 -1.4760  0.7488 -0.4557
55313SOL     OW83548   3.672   2.181   9.448 -0.0128  0.0505  0.0589
55313SOL    HW183549   3.700   2.272   9.452 -0.4153  0.1379  1.0372
55313SOL    HW283550   3.752   2.132   9.427  0.0605  0.6854 -1.1978
55314SOL     OW83551   9.230  10.080   1.533  0.3077 -0.2734 -0.2560
55314SOL    HW183552   9.257  10.139   1.462 -0.2991  0.0408 -0.2287
55314SOL    HW283553   9.273  10.116   1.611 -0.1160  0.1835 -0.2258
55315SOL     OW83554   5.267   0.619   0.970 -0.0587  0.5185 -0.2222
55315SOL    HW183555   5.226   0.566   1.039 -0.0965  0.0018 -0.6386
55315SOL    HW283556   5.354   0.581   0.960 -0.8679 -1.0291 -2.1511
55316SOL     OW83557   7.812   2.400   2.301 -0.0050 -0.4896 -0.2449
55316SOL    HW183558   7.767   2.346   2.236  1.6042 -1.0995 -0.9039
55316SOL    HW283559   7.775   2.487   2.289 -0.6820 -0.8700 -1.0769
55317SOL     OW83560   7.088  13.626   9.529 -0.6307  0.2334  0.1711
55317SOL    HW183561   7.119  13.576   9.453  1.9067 -0.0742  1.3167
55317SOL    HW283562   7.017  13.680   9.494 -1.5992 -2.0606 -1.7322
55318SOL     OW83563  10.998  13.321   6.189  0.4350  0.0187 -0.3850
55318SOL    HW183564  11.078  13.271   6.204  0.6855 -0.0830 -1.9331
55318SOL    HW283565  11.028  13.410   6.169  0.0954  0.2533  0.1193
55319SOL     OW83566   4.430  11.335   5.866  0.1035  0.4160 -0.3574
55319SOL    HW183567   4.521  11.346   5.896  0.1845  1.9337 -1.0638
55319SOL    HW283568   4.429  11.373   5.778 -0.6680 -1.8393 -1.4084
55320SOL     OW83569   1.515  13.107   0.787  0.2653 -0.0127  0.0008
55320SOL    HW183570   1.479  13.179   0.839 -0.6005 -0.5632  0.1854
55320SOL    HW283571   1.454  13.034   0.802  1.2165 -0.8336 -0.0531
55321SOL     OW83572   2.096  13.542  10.039 -0.0558  0.4925 -0.3481
55321SOL    HW183573   2.166  13.607  10.037 -0.1162  0.5469 -1.1464
55321SOL    HW283574   2.102  13.502  10.126  0.4919  1.0068 -0.1445
55322SOL     OW83575   8.349   1.808   4.630 -0.6919 -0.0641  0.5310
55322SOL    HW183576   8.412   1.777   4.695 -0.3666 -0.2217  0.1436
55322SOL    HW283577   8.334   1.732   4.573  1.6415  0.9318 -1.6530
55323SOL     OW83578   6.988   8.799  12.492  0.0500 -0.1128 -0.6829
55323SOL    HW183579   6.972   8.774  12.582 -1.2152 -1.0323 -1.1385
55323SOL    HW283580   7.079   8.774  12.475  0.4584  0.5345  0.4630
55324SOL     OW83581   6.156  10.310   4.242 -0.3919  0.9119  0.2296
55324SOL    HW183582   6.174  10.216   4.237  0.4350  1.0260  0.9202
55324SOL    HW283583   6.071  10.320   4.199  0.5556  0.1813 -1.9373
55325SOL     OW83584  12.996  13.350   0.406 -0.1636 -0.0266 -0.1639
55325SOL    HW183585  13.042  13.363   0.489  2.3488  1.6052 -1.6642
55325SOL    HW283586  12.959  13.436   0.386  0.4566 -0.0156 -1.3544
55326SOL     OW83587  11.870   4.039   7.555  0.3003 -0.4324 -0.7248
55326SOL    HW183588  11.935   4.043   7.625 -0.7101  0.2686  0.1876
55326SOL    HW283589  11.837   3.949   7.559 -1.0059  0.0741  0.8889
55327SOL     OW83590   8.652  12.893   3.695  0.1475  0.7350  0.4728
55327SOL    HW183591   8.738  12.885   3.736  0.2901 -0.8048 -0.0812
55327SOL    HW283592   8.666  12.950   3.619  1.1555 -1.1254 -0.8013
55328SOL     OW83593  11.533   7.545   0.055  0.3344  0.1974  0.1266
55328SOL    HW183594  11.585   7.469   0.082 -0.8023 -0.9116 -0.6423
55328SOL    HW283595  11.551   7.554  -0.039 -0.8766 -0.2685 -0.1784
55329SOL     OW83596   7.120   2.600   3.246  0.5082 -0.9228 -0.4965
55329SOL    HW183597   7.077   2.677   3.207 -0.8458 -1.8305 -0.8780
55329SOL    HW283598   7.174   2.565   3.176  0.8395 -0.5386 -0.4375
55330SOL     OW83599   1.845   4.303   4.370  0.0461  0.0107 -0.5168
55330SOL    HW183600   1.817   4.225   4.417  1.3088 -0.4534 -0.5041
55330SOL    HW283601   1.785   4.372   4.399  0.4094 -0.4067  1.2918
55331SOL     OW83602  13.039   5.344   4.508  0.1243  0.1897  0.4217
55331SOL    HW183603  13.127   5.353   4.544  0.4230  1.2335 -0.5037
55331SOL    HW283604  13.046   5.379   4.419 -1.4801  1.4539  0.7334
55332SOL     OW83605  10.909   5.074   0.502 -0.0169  0.5853  0.5796
55332SOL    HW183606  10.839   5.069   0.436 -0.1639  0.4677  0.7441
55332SOL    HW283607  10.874   5.027   0.577  0.2651  0.4759  0.6409
55333SOL     OW83608   7.105  11.820  12.933 -0.0622 -0.1104 -0.1603
55333SOL    HW183609   7.178  11.853  12.985 -0.5581 -0.3120  0.6834
55333SOL    HW283610   7.106  11.874  12.854  0.8682  0.0240 -0.0660
55334SOL     OW83611   8.871  11.345   3.374 -0.1443 -0.0237  0.3723
55334SOL    HW183612   8.908  11.433   3.382  0.9455 -0.4115 -0.1997
55334SOL    HW283613   8.946  11.286   3.383 -0.8297 -0.8931  0.5585
55335SOL     OW83614   3.452   1.527   0.651  0.0024  0.7446 -0.3114
55335SOL    HW183615   3.502   1.538   0.732 -1.0475  1.8825  0.2095
55335SOL    HW283616   3.417   1.438   0.657 -0.3561  0.9297  0.6853
55336SOL     OW83617   1.659   2.741   0.635 -0.1690  0.0938  0.1024
55336SOL    HW183618   1.572   2.701   0.645 -0.5739  0.9368  0.0636
55336SOL    HW283619   1.643   2.817   0.579  0.2774  1.2845  1.5492
55337SOL     OW83620  10.998   5.863   5.887 -0.4739  0.5097 -0.4043
55337SOL    HW183621  11.004   5.883   5.794 -0.8580  1.0793 -0.3125
55337SOL    HW283622  11.027   5.772   5.894 -1.7742 -0.0089 -1.2756
55338SOL     OW83623   9.504   1.775   4.885 -0.3738 -0.1370 -0.4544
55338SOL    HW183624   9.497   1.862   4.846 -0.3444 -0.0843 -0.3408
55338SOL    HW283625   9.433   1.772   4.949  0.0271  0.0425  0.0090
55339SOL     OW83626   8.329   0.409   4.202  0.4860  0.2785 -0.0580
55339SOL    HW183627   8.289   0.478   4.149 -0.0799 -1.0852 -1.5055
55339SOL    HW283628   8.371   0.351   4.138  2.7188  0.3313  1.2475
55340SOL     OW83629  12.462   6.922  13.708 -0.1834 -0.1764 -0.3060
55340SOL    HW183630  12.436   6.920  13.616 -0.5095  0.7863 -0.2453
55340SOL    HW283631  12.509   7.005  13.718  3.0087 -1.8212 -0.4222
55341SOL     OW83632   8.205   6.398  11.496 -0.1214 -0.6667  0.5683
55341SOL    HW183633   8.256   6.478  11.512 -0.9918  0.5109 -1.9523
55341SOL    HW283634   8.140   6.397  11.567  0.0207  0.7871  0.7592
55342SOL     OW83635  11.954  11.317   5.159 -0.1088  0.1661 -0.4330
55342SOL    HW183636  12.039  11.274   5.153 -0.7660 -1.5641  1.5298
55342SOL    HW283637  11.967  11.386   5.224  0.2704  1.3066 -1.6661
55343SOL     OW83638   7.224   3.300  11.593 -0.0691  0.3801 -0.4365
55343SOL    HW183639   7.237   3.389  11.562  1.4101  0.4034  0.1813
55343SOL    HW283640   7.301   3.281  11.646 -0.4299 -1.2144 -0.4191
55344SOL     OW83641   9.433  11.216   1.570  0.0815  0.8670 -0.4807
55344SOL    HW183642   9.374  11.142   1.561 -1.8524  2.3291 -0.5482
55344SOL    HW283643   9.499  11.203   1.502 -0.4703 -0.5223 -0.7869
55345SOL     OW83644   5.456   2.494   4.784  0.3385  0.2101  0.1420
55345SOL    HW183645   5.386   2.535   4.835  0.3386  0.8358 -0.3514
55345SOL    HW283646   5.416   2.472   4.700  1.0310  1.7580 -0.6377
55346SOL     OW83647  13.270  11.430   0.902  0.5013  0.0611 -0.1383
55346SOL    HW183648  13.241  11.427   0.994  2.6749 -0.3354  0.5808
55346SOL    HW283649  13.256  11.341   0.870 -0.8607  0.3521 -0.4324
55347SOL     OW83650   0.579   9.148   0.030 -0.5303  0.0414  0.1649
55347SOL    HW183651   0.650   9.186  -0.022  0.7890 -1.1749  1.0034
55347SOL    HW283652   0.598   9.174   0.120 -1.0222 -0.4869  0.4277
55348SOL     OW83653   5.966   7.433   9.749 -0.5533  0.2256  0.1919
55348SOL    HW183654   6.053   7.394   9.740 -1.0377 -0.7636 -0.3881
55348SOL    HW283655   5.938   7.411   9.838 -0.6942 -0.4997 -0.0273
55349SOL     OW83656   0.781   2.892   8.469  0.3869 -0.2243  0.3901
55349SOL    HW183657   0.733   2.966   8.507  1.2515  0.9691 -0.7468
55349SOL    HW283658   0.803   2.921   8.381  1.5780 -1.4721  0.2527
55350SOL     OW83659   3.667   0.106  13.603 -0.2267  0.0024  0.1187
55350SOL    HW183660   3.734   0.040  13.587  0.2741  0.5675 -0.1464
55350SOL    HW283661   3.616   0.108  13.522 -0.9165 -0.8120  0.5140
55351SOL     OW83662  12.383   8.452   1.580 -0.2069 -0.0634 -0.5014
55351SOL    HW183663  12.476   8.442   1.561  0.0657  3.0632 -1.3319
55351SOL    HW283664  12.371   8.545   1.596 -2.6104 -0.7706  3.1917
55352SOL     OW83665  13.454   1.650   9.891 -0.1187 -0.2259  0.0314
55352SOL    HW183666  13.436   1.556   9.893  0.7758 -0.3887  0.4788
55352SOL    HW283667  13.369   1.689   9.871 -0.9841 -0.9783  2.0332
55353SOL     OW83668   3.189   1.796   0.562 -0.0887  0.1990  0.2413
55353SOL    HW183669   3.142   1.713   0.561  0.9922 -0.4441  0.8329
55353SOL    HW283670   3.277   1.774   0.531  0.2161  1.1291  0.4001
55354SOL     OW83671   8.420  11.085   7.340 -0.1691 -0.2445  0.5307
55354SOL    HW183672   8.499  11.136   7.356 -0.9138  0.4957  2.0269
55354SOL    HW283673   8.348  11.147   7.353 -1.0175 -0.6568 -1.7357
55355SOL     OW83674   6.359   1.349   4.479  0.3865 -0.9525 -0.4320
55355SOL    HW183675   6.450   1.364   4.505  0.2318 -0.6977 -0.0124
55355SOL    HW283676   6.335   1.267   4.523  0.9147 -1.9241 -1.8858
55356SOL     OW83677   3.298  12.089   0.607 -0.3753 -0.2429  0.1521
55356SOL    HW183678   3.338  12.049   0.530  0.8260  0.0953  0.5752
55356SOL    HW283679   3.287  12.016   0.669  2.2110  0.0491  1.0896
55357SOL     OW83680   8.557  13.610   4.487  0.4462  0.0153  0.6917
55357SOL    HW183681   8.508  13.545   4.536 -0.7936 -0.9304 -1.6246
55357SOL    HW283682   8.626  13.561   4.442 -0.1035  0.3577 -0.5794
55358SOL     OW83683   9.747   2.473   8.691  0.0121  0.1706 -0.3476
55358SOL    HW183684   9.833   2.471   8.650 -0.0501 -0.9171 -0.4525
55358SOL    HW283685   9.735   2.384   8.726 -0.5061  0.6827  0.8382
55359SOL     OW83686   6.322   3.161   2.013  0.0448  0.0132  0.2219
55359SOL    HW183687   6.354   3.172   1.923  1.7004  0.4025  0.8165
55359SOL    HW283688   6.264   3.235   2.027  0.9979  0.8334 -0.0330
55360SOL     OW83689   9.865  10.773   7.478  0.1986 -0.2778  0.9722
55360SOL    HW183690   9.802  10.715   7.436  0.3272 -0.1414  0.5836
55360SOL    HW283691   9.906  10.820   7.405 -3.3757  4.0477  1.2798
55361SOL     OW83692   1.005   7.494   9.302  0.1426  0.2068  0.2185
55361SOL    HW183693   1.099   7.504   9.289  0.1673  0.7042  0.7608
55361SOL    HW283694   0.965   7.536   9.225  0.3511  0.5369  0.2901
55362SOL     OW83695   4.572  11.004  11.479  0.4990 -0.3304 -0.2919
55362SOL    HW183696   4.510  10.948  11.527 -0.2218  1.7009  1.2835
55362SOL    HW283697   4.622  10.943  11.425  0.5713 -2.6305  2.1864
55363SOL     OW83698   3.621   8.358   5.703  0.1580 -0.0985  0.2279
55363SOL    HW183699   3.678   8.311   5.764  0.5159  0.5644  0.4107
55363SOL    HW283700   3.608   8.444   5.743  1.2330  0.7190 -1.0966
55364SOL     OW83701   0.113   8.007   5.583 -0.5159  0.5898 -0.3006
55364SOL    HW183702   0.086   8.019   5.492  0.5390  1.4675 -0.5206
55364SOL    HW283703   0.205   7.979   5.577 -0.4977  0.4395  0.4935
55365SOL     OW83704   7.893  11.153   2.142  0.2729  0.2108 -0.0033
55365SOL    HW183705   7.875  11.097   2.066 -0.7898 -2.2063  1.8814
55365SOL    HW283706   7.840  11.232   2.126 -0.4957 -0.5374 -1.4241
55366SOL     OW83707   5.991   8.968   2.635 -0.3436  0.3208 -0.0469
55366SOL    HW183708   5.921   8.960   2.700  0.2145  0.5757  0.5957
55366SOL    HW283709   5.948   9.004   2.557 -0.8970  0.6206  0.3939
55367SOL     OW83710   1.872   1.837   6.990 -0.3809  0.5138 -0.1091
55367SOL    HW183711   1.848   1.822   6.899 -0.4658 -1.4069  0.1817
55367SOL    HW283712   1.871   1.750   7.029  1.0839  1.1164  1.3774
55368SOL     OW83713   8.855  11.318   6.627  0.2966 -0.0738  0.7102
55368SOL    HW183714   8.886  11.403   6.595  0.7676 -0.6185 -0.3228
55368SOL    HW283715   8.833  11.334   6.718 -0.4768  1.3817  0.3005
55369SOL     OW83716   2.648   8.018   9.516  0.1937  0.0087  0.2912
55369SOL    HW183717   2.677   8.073   9.443 -0.2658 -0.2280 -0.0771
55369SOL    HW283718   2.552   8.018   9.510  0.1532 -0.0779  0.8472
55370SOL     OW83719   7.716  13.878   0.627  0.3962 -0.0285 -0.0893
55370SOL    HW183720   7.680  13.963   0.655  2.8165  1.0197  0.0439
55370SOL    HW283721   7.710  13.880   0.532  1.0511  0.6064 -0.1277
55371SOL     OW83722   1.134  10.043   5.929  0.0151 -0.0013 -0.1047
55371SOL    HW183723   1.186  10.022   5.852 -0.9409 -0.0894 -0.7280
55371SOL    HW283724   1.138   9.964   5.983  1.3554  0.3375  0.3448
55372SOL     OW83725   7.312  10.025   3.010 -0.0277 -0.2305 -0.3010
55372SOL    HW183726   7.313  10.072   2.926 -0.3657 -0.7792 -0.6185
55372SOL    HW283727   7.346  10.089   3.073 -0.8525  0.5759 -0.6505
55373SOL     OW83728   6.944   6.932   4.345 -0.5604 -0.2101  0.1866
55373SOL    HW183729   6.985   6.864   4.292  0.9514 -0.7413  1.9598
55373SOL    HW283730   6.889   6.980   4.283  2.0327 -0.0089 -2.1450
55374SOL     OW83731  12.930   8.492   4.272  0.1188  0.2666 -0.1219
55374SOL    HW183732  12.966   8.417   4.319 -1.3435 -0.7530 -0.5913
55374SOL    HW283733  13.003   8.554   4.267  1.3953 -1.1667  0.1466
55375SOL     OW83734   7.523   7.782   2.595 -0.0267  0.2309 -0.1021
55375SOL    HW183735   7.551   7.854   2.652  0.8715  0.5687 -0.9377
55375SOL    HW283736   7.581   7.710   2.618 -2.5822 -1.1951  2.6104
55376SOL     OW83737  12.347   6.782   4.998 -0.0975  0.4514 -0.1477
55376SOL    HW183738  12.331   6.687   4.992  1.9911  0.0952 -0.7490
55376SOL    HW283739  12.394   6.793   5.080  2.9792  0.3858 -1.7771
55377SOL     OW83740   1.928  12.586   6.512  0.3948  0.4680  0.3646
55377SOL    HW183741   1.857  12.626   6.562  0.5210  0.6758  0.3796
55377SOL    HW283742   1.910  12.608   6.421  0.4288  0.5009  0.3659
55378SOL     OW83743   2.368  11.846   6.258  0.1445  0.1580 -0.6255
55378SOL    HW183744   2.294  11.868   6.201  2.2546  0.5948 -3.4248
55378SOL    HW283745   2.331  11.787   6.324 -2.3803 -0.9403 -2.8225
55379SOL     OW83746   5.449   4.404   4.869 -0.2651 -0.4645  0.0093
55379SOL    HW183747   5.353   4.405   4.862 -0.2505 -0.0544 -0.2174
55379SOL    HW283748   5.467   4.436   4.957 -0.3013  1.8948 -0.7494
55380SOL     OW83749  11.693   8.627  13.961 -0.8845  0.6708  0.1586
55380SOL    HW183750  11.682   8.555  13.899 -1.6712  0.4957  0.4891
55380SOL    HW283751  11.707   8.584  14.046 -1.6942  0.8932  0.4160
55381SOL     OW83752   1.633  10.839   5.398 -0.6312 -0.4771  0.6517
55381SOL    HW183753   1.625  10.743   5.405 -1.0803 -0.4180  0.9705
55381SOL    HW283754   1.701  10.852   5.332 -0.3770 -1.0194  0.8012
55382SOL     OW83755  11.061  10.269  13.742  0.0307 -0.3198  0.1758
55382SOL    HW183756  11.022  10.189  13.708  0.3222  0.7028 -2.8537
55382SOL    HW283757  10.988  10.331  13.748 -0.0583 -0.5319  1.7767
55383SOL     OW83758  10.572   9.425  10.727 -0.2614  0.2827  0.1829
55383SOL    HW183759  10.617   9.452  10.807 -1.5426  1.1730  0.6539
55383SOL    HW283760  10.570   9.503  10.673  0.3587 -0.2443 -0.6166
55384SOL     OW83761   5.008  13.874  11.541 -0.2638 -0.0165  0.8582
55384SOL    HW183762   4.969  13.922  11.468  2.8191 -0.7396 -1.4666
55384SOL    HW283763   5.031  13.942  11.604  0.2944  1.1256 -0.5155
55385SOL     OW83764   8.669  10.086   2.784 -0.3947 -0.1463  0.1577
55385SOL    HW183765   8.581  10.124   2.776 -0.8635 -1.2642 -0.2392
55385SOL    HW283766   8.679  10.070   2.878 -0.0824  1.1688  0.3641
55386SOL     OW83767   8.207   7.024   6.995 -0.3155  0.3815 -0.4695
55386SOL    HW183768   8.301   7.030   6.976 -0.1642 -0.4138 -0.0126
55386SOL    HW283769   8.165   7.073   6.925  0.3039 -1.3047 -2.0865
55387SOL     OW83770   6.293  12.899   7.104 -0.2331  0.0229 -0.3005
55387SOL    HW183771   6.310  12.820   7.155  0.1830  0.0892 -0.3279
55387SOL    HW283772   6.364  12.901   7.039 -1.4038 -0.6828 -1.6422
55388SOL     OW83773   3.256   2.372   9.433  0.4529  0.8788 -0.0093
55388SOL    HW183774   3.241   2.280   9.411 -2.2020  1.6867 -2.0779
55388SOL    HW283775   3.181   2.397   9.487  1.4016  1.7481  0.9641
55389SOL     OW83776  11.168   7.689  12.943  0.4608 -0.4029 -0.1572
55389SOL    HW183777  11.081   7.665  12.975  0.5691 -1.0360 -0.3280
55389SOL    HW283778  11.159   7.780  12.915  0.4846  0.3721  2.1535
55390SOL     OW83779  12.950  13.437   0.077 -0.0004 -0.1112 -0.5927
55390SOL    HW183780  12.877  13.488   0.113 -0.6012 -0.9539 -0.5782
55390SOL    HW283781  13.026  13.495   0.084  0.2044 -0.5903  3.1767
55391SOL     OW83782  10.703   9.304   2.201  0.6570 -0.1917 -0.3784
55391SOL    HW183783  10.704   9.386   2.152 -0.8200 -0.2878 -0.6084
55391SOL    HW283784  10.795   9.279   2.208  0.9371 -0.2803 -3.2661
55392SOL     OW83785   1.918   7.465   2.486 -0.1914  0.2271 -0.4105
55392SOL    HW183786   1.860   7.457   2.410 -0.5364 -1.3060 -0.0131
55392SOL    HW283787   1.971   7.543   2.467 -0.5189  0.0856 -2.0510
55393SOL     OW83788   9.798   4.958   1.271 -0.7513  0.2244 -0.2777
55393SOL    HW183789   9.868   5.020   1.249  1.4467 -1.7295  0.6897
55393SOL    HW283790   9.845   4.879   1.301 -3.3250 -2.2098 -2.1119
55394SOL     OW83791   3.957   5.157   8.208  0.7518  0.0008  0.3097
55394SOL    HW183792   3.874   5.110   8.217  0.3243 -0.2665 -3.4983
55394SOL    HW283793   3.942   5.240   8.253 -1.5261 -0.1453 -0.0314
55395SOL     OW83794   8.174  10.480   0.241 -0.7849 -0.4047 -0.5275
55395SOL    HW183795   8.145  10.504   0.153 -0.5234  1.1668 -0.2103
55395SOL    HW283796   8.104  10.510   0.299 -0.0757  0.3691 -0.0443
55396SOL     OW83797   1.523   1.801   5.497 -0.2747  0.4503  0.4772
55396SOL    HW183798   1.540   1.808   5.591  0.1015 -0.5942  0.4994
55396SOL    HW283799   1.440   1.847   5.485  0.7472  2.5520  0.9380
55397SOL     OW83800  12.342  10.591   0.406 -0.9139 -0.4454  0.0724
55397SOL    HW183801  12.292  10.511   0.421 -0.8124 -0.1549  2.4206
55397SOL    HW283802  12.402  10.595   0.481  0.4938  0.7941 -1.0686
55398SOL     OW83803   7.355  12.576   6.603 -0.9496  0.5601 -0.0761
55398SOL    HW183804   7.371  12.559   6.696  1.8386 -1.0684 -0.7282
55398SOL    HW283805   7.416  12.647   6.581 -0.2360 -0.3136 -1.0077
55399SOL     OW83806  10.808   9.153  11.123 -0.1501 -0.1021  0.2433
55399SOL    HW183807  10.867   9.208  11.174 -0.0292 -0.1381  0.1439
55399SOL    HW283808  10.721   9.187  11.141 -0.0782  0.1034  0.2072
55400SOL     OW83809   0.364  13.789   7.531  0.0629 -0.0956 -0.4235
55400SOL    HW183810   0.271  13.775   7.510 -0.0663 -0.1782  0.1803
55400SOL    HW283811   0.405  13.704   7.514 -0.0913 -0.2411 -0.0755
55401SOL     OW83812   3.843   9.513   9.262  0.0663  0.2244  0.3767
55401SOL    HW183813   3.764   9.481   9.220 -1.2439  2.7401  0.6929
55401SOL    HW283814   3.905   9.529   9.191  0.7346 -2.6275  0.2048
55402SOL     OW83815   5.733  12.374   1.979 -0.1403 -0.1864  0.3550
55402SOL    HW183816   5.697  12.458   2.008 -1.6447 -0.6000 -0.2192
55402SOL    HW283817   5.709  12.368   1.887  0.7725 -0.8429  0.1441
55403SOL     OW83818  14.026   1.792   5.141  0.0146 -0.6615 -0.8091
55403SOL    HW183819  13.958   1.727   5.123 -1.1079  0.3234 -0.3195
55403SOL    HW283820  14.024   1.802   5.236 -0.5950  0.8174 -0.9379
55404SOL     OW83821   5.913   2.999   1.845  0.0774  0.2170 -0.0932
55404SOL    HW183822   5.850   3.069   1.826 -0.9994 -1.0020 -1.2610
55404SOL    HW283823   5.993   3.026   1.800 -0.7701  0.0364 -1.7980
55405SOL     OW83824  12.129   3.864  13.252  0.4852  0.2715 -0.0053
55405SOL    HW183825  12.110   3.775  13.222  1.1616  0.2057 -0.2555
55405SOL    HW283826  12.065   3.880  13.322  0.6019 -0.5541  0.3014
55406SOL     OW83827   6.007   2.059   6.887  0.3067  0.2424 -0.2977
55406SOL    HW183828   6.053   2.110   6.952  0.5192  0.0881 -0.3246
55406SOL    HW283829   5.980   2.122   6.820 -0.2048  0.4511  0.1018
55407SOL     OW83830   4.488  13.542   8.111 -0.7583 -0.2445  0.2579
55407SOL    HW183831   4.503  13.454   8.144 -0.9425 -0.2240  0.4019
55407SOL    HW283832   4.574  13.574   8.085 -0.4845  0.0495  1.4933
55408SOL     OW83833  13.883   6.541   5.250  0.2277 -0.2117  0.3012
55408SOL    HW183834  13.830   6.621   5.254  1.2693  0.5437 -0.4194
55408SOL    HW283835  13.967   6.566   5.288  0.0690 -1.4209  1.5191
55409SOL     OW83836  13.177   2.182   9.572  0.0917 -0.3267 -0.2494
55409SOL    HW183837  13.154   2.094   9.542  0.9620 -0.3672 -0.8535
55409SOL    HW283838  13.273   2.183   9.571  0.1660 -0.2145  2.2906
55410SOL     OW83839   3.872   6.868   4.726  0.6933 -0.1812 -0.6335
55410SOL    HW183840   3.884   6.869   4.821 -1.5665 -3.8809 -0.0962
55410SOL    HW283841   3.928   6.797   4.695 -0.5710 -0.8046 -1.6239
55411SOL     OW83842  14.025   4.759   3.251  0.2980  0.1252 -0.1724
55411SOL    HW183843  14.094   4.701   3.284 -0.4827 -0.9681 -0.3953
55411SOL    HW283844  14.014   4.733   3.160  0.8882  1.6022 -0.6931
55412SOL     OW83845   3.574   1.482   3.784  0.0757  0.0427  0.1711
55412SOL    HW183846   3.590   1.494   3.691 -1.1001  0.8953  0.0698
55412SOL    HW283847   3.482   1.457   3.790 -0.4129  1.9162  1.2247
55413SOL     OW83848   1.297   7.620  13.815 -0.4111 -0.1621 -0.3617
55413SOL    HW183849   1.364   7.680  13.849  0.2717 -1.0045 -0.1780
55413SOL    HW283850   1.322   7.606  13.724 -0.5457 -0.1988 -0.3929
55414SOL     OW83851   0.762  10.491   5.781  0.3671 -0.0826 -0.0337
55414SOL    HW183852   0.793  10.424   5.842 -0.2416 -0.4676 -0.1405
55414SOL    HW283853   0.732  10.442   5.705  2.5900  0.4680 -1.3431
55415SOL     OW83854   5.935   1.447   4.841 -0.0590  0.5019  0.1144
55415SOL    HW183855   5.996   1.427   4.770 -0.5628  1.2285 -0.5399
55415SOL    HW283856   5.873   1.374   4.841  0.1457  0.3266  0.0360
55416SOL     OW83857   2.070   2.335   0.192  0.0434 -0.1441 -0.0250
55416SOL    HW183858   2.122   2.405   0.232  0.5082 -0.3039 -0.3311
55416SOL    HW283859   1.980   2.366   0.196  0.5061  2.3197 -3.6828
55417SOL     OW83860  12.487  12.780  13.149  0.4568  0.2702 -0.4127
55417SOL    HW183861  12.416  12.764  13.087 -0.9360  1.3058  0.8534
55417SOL    HW283862  12.536  12.697  13.152 -0.3747 -0.2930 -1.6810
55418SOL     OW83863  13.662  13.078   1.841  0.3957  0.4607  0.0501
55418SOL    HW183864  13.750  13.103   1.871  0.2128  1.2482 -0.0421
55418SOL    HW283865  13.604  13.107   1.912  0.1921  0.0927  0.0360
55419SOL     OW83866   0.576   6.508  13.938 -0.5116 -0.2546 -0.0470
55419SOL    HW183867   0.500   6.492  13.995  0.6338 -0.1274  1.5706
55419SOL    HW283868   0.608   6.420  13.916 -1.1988 -0.3145 -0.8894
55420SOL     OW83869   1.555   0.694   2.892  0.4394  0.3680  0.0873
55420SOL    HW183870   1.574   0.685   2.986  2.3240  1.2714 -0.1646
55420SOL    HW283871   1.510   0.613   2.869 -1.4094  0.7596  2.0615
55421SOL     OW83872   5.218   7.455  13.913 -0.3545  0.0199 -0.2713
55421SOL    HW183873   5.243   7.511  13.840 -0.1213  0.3081  0.0248
55421SOL    HW283874   5.263   7.493  13.989  0.2330 -0.8696 -0.1520
55422SOL     OW83875   9.257   5.078  12.087 -0.0911  0.1814  0.1870
55422SOL    HW183876   9.348   5.103  12.102 -0.2643  0.6245  0.5293
55422SOL    HW283877   9.230   5.127  12.009  0.5428 -1.4502 -1.1317
55423SOL     OW83878   5.098   9.260   0.655  0.0736 -0.2454 -0.2368
55423SOL    HW183879   5.042   9.187   0.629  1.7839 -1.8921  0.4739
55423SOL    HW283880   5.105   9.314   0.575 -2.0302 -0.2313 -0.4793
55424SOL     OW83881   3.215   8.097   1.250  0.4293 -0.2211 -0.0037
55424SOL    HW183882   3.210   8.140   1.164  1.5408 -1.7189 -0.8685
55424SOL    HW283883   3.234   8.169   1.311  0.9675  0.7025 -1.2049
55425SOL     OW83884   3.720   9.585  11.795 -0.1823  0.3829 -0.4168
55425SOL    HW183885   3.800   9.615  11.838  0.8452  1.1023 -2.7115
55425SOL    HW283886   3.732   9.490  11.786 -0.5958  0.1466  1.1291
55426SOL     OW83887  12.656   0.179   0.113  0.1325 -0.0529  0.5315
55426SOL    HW183888  12.678   0.102   0.167 -1.8246 -0.8250  0.3142
55426SOL    HW283889  12.725   0.182   0.047  1.0380 -0.7585  1.4066
55427SOL     OW83890   5.254   8.592   9.049 -0.1269 -0.5937 -0.4915
55427SOL    HW183891   5.263   8.682   9.082  2.0267 -0.2675 -1.7999
55427SOL    HW283892   5.326   8.545   9.090  1.9610 -0.4379 -3.6901
55428SOL     OW83893   3.254   0.513  12.467 -0.4021  0.1696  0.4685
55428SOL    HW183894   3.335   0.562  12.474  0.2032 -0.8720  0.9720
55428SOL    HW283895   3.209   0.529  12.550 -0.8078  0.8679  0.1308
55429SOL     OW83896   7.614   6.869   8.990 -0.0933  0.2770  0.1122
55429SOL    HW183897   7.579   6.780   9.001 -0.2823  0.1725 -1.1892
55429SOL    HW283898   7.556   6.924   9.042  0.5915 -0.4485  1.7324
55430SOL     OW83899   1.969   0.846  13.604 -0.1329 -0.2521  0.3119
55430SOL    HW183900   1.950   0.874  13.514  0.1983 -1.4872 -0.1643
55430SOL    HW283901   2.061   0.869  13.617  0.4441 -1.9611 -0.4504
55431SOL     OW83902   4.656   7.577   1.881  0.3072  0.2891  0.2863
55431SOL    HW183903   4.662   7.502   1.941 -0.6135  0.6598  0.8523
55431SOL    HW283904   4.681   7.652   1.935  2.0832  0.3277 -0.4963
55432SOL     OW83905   6.323  11.682  10.313 -0.2880  0.1504  0.3615
55432SOL    HW183906   6.253  11.747  10.321 -0.3229  0.4653 -1.7853
55432SOL    HW283907   6.326  11.640  10.398 -2.8819  0.3437  0.6479
55433SOL     OW83908   0.512   7.615   8.530  0.2223 -0.1041 -0.1130
55433SOL    HW183909   0.451   7.666   8.585  0.3030 -1.3663  1.2082
55433SOL    HW283910   0.531   7.673   8.457 -1.1309  1.0488  0.3823
55434SOL     OW83911   2.369   2.049   6.401  0.7815 -0.3405  0.3944
55434SOL    HW183912   2.399   2.139   6.394  3.4661 -1.1423  0.3018
55434SOL    HW283913   2.367   2.017   6.311 -1.2052 -0.1133  0.3281
55435SOL     OW83914  11.330  12.239   7.368 -0.0368 -0.3794 -0.0497
55435SOL    HW183915  11.325  12.143   7.370  0.1044 -0.3924 -0.2843
55435SOL    HW283916  11.279  12.264   7.291  0.0243 -0.2721 -0.0554
55436SOL     OW83917   3.887   1.075   7.947  0.4121 -0.4531 -0.3937
55436SOL    HW183918   3.849   1.051   8.032  0.9963  0.6420  0.2056
55436SOL    HW283919   3.860   1.166   7.934  2.0799  0.0738 -0.3540
55437SOL     OW83920   3.432   2.021   4.396 -0.3907 -0.3667  0.2649
55437SOL    HW183921   3.345   2.038   4.360 -1.3427 -1.3829  1.9735
55437SOL    HW283922   3.433   1.927   4.413  1.2444 -0.4568 -0.2015
55438SOL     OW83923   1.645  13.745   1.005 -0.3039  0.3223 -0.5609
55438SOL    HW183924   1.569  13.738   1.064  0.4338  0.9777  0.4870
55438SOL    HW283925   1.681  13.656   1.003  0.7813  0.6683  1.5300
55439SOL     OW83926   9.077  12.671   1.149  0.3282  0.2207  0.2427
55439SOL    HW183927   9.004  12.611   1.129  0.6478  0.2936 -1.2291
55439SOL    HW283928   9.038  12.758   1.142  0.5043  0.2547 -0.3628
55440SOL     OW83929   0.224   5.667   2.578  0.0568 -0.4138  0.2631
55440SOL    HW183930   0.313   5.633   2.579 -0.3925 -1.7745 -1.2867
55440SOL    HW283931   0.232   5.757   2.611  2.2724  0.1065 -1.4682
55441SOL     OW83932  11.167  11.848   3.337  0.1908 -0.1062 -0.2523
55441SOL    HW183933  11.169  11.917   3.270  0.9926 -0.7872 -0.9529
55441SOL    HW283934  11.209  11.888   3.413 -0.7519  0.6848 -0.1296
55442SOL     OW83935  14.052  10.178   3.323  0.4241 -0.3080  0.3737
55442SOL    HW183936  14.089  10.261   3.352 -1.0718  0.2455  0.7656
55442SOL    HW283937  14.109  10.111   3.363  2.2797  0.4811 -0.8005
55443SOL     OW83938   2.232   8.288  12.014  0.2776 -0.1733 -0.4498
55443SOL    HW183939   2.269   8.212  11.968 -0.8933 -0.3089 -1.2046
55443SOL    HW283940   2.150   8.256  12.052  1.0376  0.0347  1.4712
55444SOL     OW83941   9.861   5.238   6.673 -0.0904  0.4393  0.1235
55444SOL    HW183942   9.874   5.149   6.705  0.4286  0.0933 -1.0178
55444SOL    HW283943   9.801   5.278   6.737  1.5257  0.0548  1.9826
55445SOL     OW83944   0.519  13.132   8.068 -0.0018  0.9350  0.3984
55445SOL    HW183945   0.584  13.191   8.106  2.6500 -0.4304 -1.6340
55445SOL    HW283946   0.510  13.162   7.977 -1.0646  0.1737  0.2341
55446SOL     OW83947   4.666  10.228  13.072  0.2092  0.3282 -0.3710
55446SOL    HW183948   4.597  10.178  13.116 -1.1367  1.0948 -1.5084
55446SOL    HW283949   4.727  10.252  13.142 -0.5706 -0.5481  0.6431
55447SOL     OW83950  12.785   8.044   2.844  0.2552  0.2588 -0.5243
55447SOL    HW183951  12.822   8.004   2.923 -0.1844 -0.2845 -0.5852
55447SOL    HW283952  12.739   7.972   2.801 -1.4190  1.0378 -0.1284
55448SOL     OW83953   1.553   9.025   0.774 -0.0111 -0.2098 -0.2530
55448SOL    HW183954   1.590   8.948   0.817  0.2957  0.2522  0.3258
55448SOL    HW283955   1.517   8.991   0.692  1.2506 -0.7557 -0.6108
55449SOL     OW83956  12.718   9.329  11.275  0.4061 -0.3157  0.2476
55449SOL    HW183957  12.711   9.324  11.179 -2.2855 -3.2882  0.4296
55449SOL    HW283958  12.662   9.403  11.299  1.9024  1.1052 -0.4437
55450SOL     OW83959   3.513   2.057   8.078 -0.0998  0.1393 -0.2267
55450SOL    HW183960   3.542   2.061   7.987 -0.8252  1.4736 -0.4291
55450SOL    HW283961   3.583   2.100   8.127 -0.3179  0.6082 -0.3245
55451SOL     OW83962  12.088   6.725   2.835 -0.2642  0.3469  0.1690
55451SOL    HW183963  12.112   6.805   2.883 -0.6693  0.3394  0.3995
55451SOL    HW283964  12.106   6.654   2.897 -2.2444  0.4334  0.9568
55452SOL     OW83965   4.945   4.156   4.354 -0.5568  0.2303 -0.1969
55452SOL    HW183966   4.994   4.154   4.436 -1.4006 -2.2656  0.3468
55452SOL    HW283967   5.004   4.196   4.291  0.7697  0.6094  1.2272
55453SOL     OW83968  12.723   3.969   7.598 -0.0295  0.2190 -0.1433
55453SOL    HW183969  12.689   4.030   7.663  0.9527  1.8648 -1.1001
55453SOL    HW283970  12.817   3.965   7.616 -0.0822 -1.1400 -0.0322
55454SOL     OW83971   0.890   7.863   4.132  0.0646  0.3639 -0.1649
55454SOL    HW183972   0.968   7.818   4.098 -0.7438 -0.5127 -0.9280
55454SOL    HW283973   0.823   7.847   4.066 -0.6460  1.4852  0.2681
55455SOL     OW83974   2.123   1.678   6.287 -0.3516  0.0780  0.1043
55455SOL    HW183975   2.066   1.753   6.272 -0.2835 -0.1959 -1.6218
55455SOL    HW283976   2.063   1.605   6.305 -0.5400 -0.0768 -1.1062
55456SOL     OW83977   4.823   3.980   6.784 -0.7410  0.7274 -0.1485
55456SOL    HW183978   4.856   3.963   6.696  0.2325 -0.2437  0.3733
55456SOL    HW283979   4.769   3.903   6.805 -2.0612  1.5560 -0.3701
55457SOL     OW83980   3.789   8.527   8.699  0.3670  0.2590 -0.0037
55457SOL    HW183981   3.831   8.449   8.736  0.1466  0.4380  0.6401
55457SOL    HW283982   3.861   8.590   8.689  0.7563 -0.4090 -1.6203
55458SOL     OW83983   8.327  11.657  13.228  0.3154  0.0096  0.1819
55458SOL    HW183984   8.298  11.685  13.315 -0.5986 -1.5428  0.4204
55458SOL    HW283985   8.359  11.567  13.241  1.0247  0.0765 -0.9303
55459SOL     OW83986   6.407   4.239   1.289 -0.3444  0.1108  0.2102
55459SOL    HW183987   6.322   4.265   1.325 -0.6061  0.5357 -0.6764
55459SOL    HW283988   6.446   4.184   1.357 -2.3436 -2.1296 -0.3176
55460SOL     OW83989   9.166   8.236   5.465 -0.7617 -0.4107  0.2328
55460SOL    HW183990   9.163   8.313   5.522  2.0937 -1.2479  1.7392
55460SOL    HW283991   9.075   8.221   5.439 -1.5793  2.5954  1.0236
55461SOL     OW83992   3.192  13.995   8.960 -0.1520 -0.1919  0.0206
55461SOL    HW183993   3.215  13.942   9.036 -1.2041  1.5512  1.6279
55461SOL    HW283994   3.117  13.950   8.921 -3.8403  2.0077  3.8067
55462SOL     OW83995   8.955   0.122  11.434  0.2352  0.8120 -0.1245
55462SOL    HW183996   8.944   0.156  11.523  3.2142  2.3109 -0.2073
55462SOL    HW283997   9.041   0.080  11.436 -1.0464 -2.1703 -1.4845
55463SOL     OW83998  10.081   2.494  11.788  0.3697 -0.3726 -0.1332
55463SOL    HW183999  10.001   2.546  11.789  1.9670  2.3096  0.9564
55463SOL    HW284000  10.071   2.435  11.714 -3.2460 -1.3374  0.9142
55464SOL     OW84001   6.898   0.244  10.642  0.1562  0.4794  0.6414
55464SOL    HW184002   6.972   0.272  10.696  0.6924  0.1314  0.1024
55464SOL    HW284003   6.869   0.162  10.683  0.7477  0.0618  0.2540
55465SOL     OW84004  10.556   4.086   8.672  0.1006  0.1238  0.0755
55465SOL    HW184005  10.571   4.099   8.578  0.3795 -1.8228 -0.1925
55465SOL    HW284006  10.641   4.105   8.712  0.1068  0.5045 -0.1107
55466SOL     OW84007  12.392   7.639   0.972  0.2233 -0.5262 -0.4897
55466SOL    HW184008  12.395   7.606   0.882  0.8132  0.1095 -0.7102
55466SOL    HW284009  12.418   7.731   0.965  0.0625 -0.4121  0.3061
55467SOL     OW84010   6.735  13.561   0.259  0.4964  0.3889 -0.9602
55467SOL    HW184011   6.664  13.567   0.322  0.6764 -1.2348 -0.5584
55467SOL    HW284012   6.693  13.578   0.174  0.0105  1.2770 -0.5631
55468SOL     OW84013   4.145   2.734  13.130 -0.4065  0.2236 -0.2110
55468SOL    HW184014   4.153   2.640  13.115  1.3561  0.2522  0.2771
55468SOL    HW284015   4.218   2.755  13.189  0.6396  2.2592 -2.0759
55469SOL     OW84016   0.611  10.878  10.914  0.0318  0.1475 -0.0705
55469SOL    HW184017   0.661  10.814  10.965  0.7942  0.3812 -0.5133
55469SOL    HW284018   0.524  10.840  10.907  0.4510 -0.8004 -0.2486
55470SOL     OW84019   3.768  12.805   9.985  0.6531  0.1871  0.2027
55470SOL    HW184020   3.730  12.821  10.071  0.1870  0.3618 -0.0325
55470SOL    HW284021   3.746  12.883   9.934 -1.6687 -1.1200 -0.9680
55471SOL     OW84022   5.972   8.303  10.502  0.1308  0.2247 -0.3575
55471SOL    HW184023   5.973   8.209  10.486  0.1553  0.3100 -0.8559
55471SOL    HW284024   6.051   8.336  10.459 -0.2434  0.5706 -0.7932
55472SOL     OW84025  12.056   0.971   6.493  0.5824 -0.0378 -0.2706
55472SOL    HW184026  11.970   1.009   6.475  0.4212  0.3672  1.2312
55472SOL    HW284027  12.111   1.045   6.516  0.3344 -0.5894  2.4406
55473SOL     OW84028  13.318  10.199   4.970  0.2818 -0.2484  0.5814
55473SOL    HW184029  13.278  10.114   4.951  0.2849 -0.1439  0.0946
55473SOL    HW284030  13.247  10.250   5.010  0.0691 -0.2364  0.1946
55474SOL     OW84031   7.382  10.304  12.918 -0.2608  0.7201  0.0337
55474SOL    HW184032   7.299  10.350  12.906 -0.0677  1.4673  1.4000
55474SOL    HW284033   7.362  10.230  12.974  0.0748  1.2223  0.8389
55475SOL     OW84034   2.848  13.030   1.338 -0.1749  0.3434 -0.2520
55475SOL    HW184035   2.856  13.125   1.346 -0.5214  0.4507 -0.9895
55475SOL    HW284036   2.928  12.995   1.375 -0.4231  0.8794  0.8232
55476SOL     OW84037  12.056  11.061   7.265  0.1628  0.1252 -0.1929
55476SOL    HW184038  12.115  11.133   7.242  0.2041  0.9944  2.2808
55476SOL    HW284039  12.065  10.999   7.194  0.0117  2.6008 -2.5249
55477SOL     OW84040   3.614  11.434  13.360 -0.2091  0.3121 -0.2245
55477SOL    HW184041   3.557  11.357  13.355  1.0627 -0.7491  0.9885
55477SOL    HW284042   3.697  11.405  13.324  0.8015  0.5963  1.7635
55478SOL     OW84043  11.408   9.714   7.221 -0.0943  0.0502 -0.2499
55478SOL    HW184044  11.374   9.765   7.148 -2.6176 -0.9041  0.1391
55478SOL    HW284045  11.401   9.623   7.192 -0.2042 -0.2919  0.7959
55479SOL     OW84046   7.924   5.694  13.293 -0.1700  0.7787  0.0126
55479SOL    HW184047   7.880   5.701  13.208  1.7135  0.1023 -1.0756
55479SOL    HW284048   7.952   5.784  13.313  0.5449  0.7331 -0.7516
55480SOL     OW84049   6.288   3.208   3.179 -0.2780  0.4394  0.2207
55480SOL    HW184050   6.206   3.190   3.224 -1.3084 -1.9459 -2.3070
55480SOL    HW284051   6.349   3.143   3.214  0.5557  2.0262  1.8874
55481SOL     OW84052   6.316  12.995   1.961 -0.3260 -0.6292 -0.2207
55481SOL    HW184053   6.296  13.088   1.960  0.3233 -0.4907 -0.3040
55481SOL    HW284054   6.281  12.961   1.879 -1.4719 -0.6592  0.2537
55482SOL     OW84055  12.300  12.000  12.164 -0.0513  0.5855 -0.1542
55482SOL    HW184056  12.210  12.025  12.143 -1.2824 -3.3464 -0.5120
55482SOL    HW284057  12.290  11.929  12.228  2.7124 -0.7184 -1.0108
55483SOL     OW84058  10.514  12.395   1.074  0.2193  0.3209 -0.2567
55483SOL    HW184059  10.457  12.318   1.073 -0.1270  0.5567 -1.6706
55483SOL    HW284060  10.574  12.381   1.147 -1.5316 -0.0182  1.1592
55484SOL     OW84061   3.483   6.617   6.851  0.1658 -0.0529 -0.1832
55484SOL    HW184062   3.533   6.622   6.770  0.3766 -1.3321 -0.1592
55484SOL    HW284063   3.534   6.668   6.914  1.3113 -1.0520 -0.2464
55485SOL     OW84064   6.078   4.884   4.120 -0.5515 -0.4604 -0.2391
55485SOL    HW184065   6.058   4.919   4.206 -0.1097  0.0700 -0.3467
55485SOL    HW284066   6.092   4.791   4.135  0.8767 -0.1611  0.5085
55486SOL     OW84067   3.098   1.877   7.808  0.2681  0.4427  0.3291
55486SOL    HW184068   3.190   1.853   7.793 -0.3404 -2.1485  0.3071
55486SOL    HW284069   3.061   1.885   7.720 -0.2637 -1.9931  0.2411
55487SOL     OW84070   5.087   2.343   9.760 -0.2929 -0.2702  0.5430
55487SOL    HW184071   5.033   2.265   9.749  0.1380 -0.5484  0.4093
55487SOL    HW284072   5.161   2.315   9.813  0.2267 -0.1188 -0.1006
55488SOL     OW84073   7.885  10.464   4.729  0.2838 -0.2336  0.0038
55488SOL    HW184074   7.974  10.468   4.765  1.2868 -1.3757 -2.1658
55488SOL    HW284075   7.852  10.378   4.756 -0.0067  0.0073  0.4275
55489SOL     OW84076   9.548   6.453   0.119  0.2334 -0.6457  0.2228
55489SOL    HW184077   9.508   6.529   0.077 -0.7907 -0.8582  0.7922
55489SOL    HW284078   9.487   6.382   0.103  1.1191 -1.3418 -0.1854
55490SOL     OW84079   8.679   0.299  10.822 -0.7142  0.4650 -0.3119
55490SOL    HW184080   8.693   0.206  10.838 -0.3319  0.3422 -1.2362
55490SOL    HW284081   8.724   0.315  10.738 -1.7258  1.2361 -0.7298
55491SOL     OW84082   4.395   4.978   0.906 -0.1271 -0.4101 -0.5822
55491SOL    HW184083   4.404   5.069   0.877 -0.7991 -0.0161  0.3805
55491SOL    HW284084   4.328   4.941   0.849  1.4816 -0.9004 -2.2497
55492SOL     OW84085  12.096   9.257  13.739 -0.7487  0.6823 -0.1253
55492SOL    HW184086  12.104   9.207  13.821  1.9219  0.9613 -0.1303
55492SOL    HW284087  12.063   9.194  13.676 -0.8913 -0.0917  0.6942
55493SOL     OW84088   8.889  13.330  11.330 -0.2140  0.6796 -0.6919
55493SOL    HW184089   8.965  13.334  11.273 -0.9274  1.9849 -1.6202
55493SOL    HW284090   8.885  13.239  11.359  1.3416  0.4567 -1.0919
55494SOL     OW84091   8.088   9.014   6.135 -0.6954 -0.2883 -0.0407
55494SOL    HW184092   8.107   9.107   6.119 -2.3721  0.0894  0.0439
55494SOL    HW284093   7.994   9.011   6.152  0.0002 -1.2248  5.2673
55495SOL     OW84094  10.110   5.640  12.270 -0.4341 -0.2149 -0.1653
55495SOL    HW184095  10.112   5.719  12.217 -0.3199 -0.0195  0.1304
55495SOL    HW284096  10.060   5.577  12.217 -0.5277  0.0522 -0.3973
55496SOL     OW84097   6.815  12.080  12.205 -0.3565 -0.2737 -0.5539
55496SOL    HW184098   6.724  12.065  12.179 -0.6965  1.9228 -0.7677
55496SOL    HW284099   6.810  12.110  12.295  0.2211 -0.7165 -0.3682
55497SOL     OW84100  13.860   4.886   9.589 -0.3280 -0.1944  0.1762
55497SOL    HW184101  13.852   4.957   9.652  0.5206  0.2583 -0.2139
55497SOL    HW284102  13.932   4.832   9.621  1.4343  1.0940 -1.3501
55498SOL     OW84103  10.219  11.775   0.328  0.4658  0.3485  0.3560
55498SOL    HW184104  10.268  11.703   0.368  2.1138  1.2528  0.0680
55498SOL    HW284105  10.169  11.734   0.258  0.0805 -0.7512  1.2467
55499SOL     OW84106   4.841  11.094   6.170 -0.3781 -0.2082  0.2182
55499SOL    HW184107   4.833  11.184   6.204 -0.4347  0.1201 -0.6294
55499SOL    HW284108   4.934  11.076   6.173  0.1348  1.2618 -2.9299
55500SOL     OW84109   8.863  13.482  12.551 -0.1155  0.0891 -0.4421
55500SOL    HW184110   8.908  13.553  12.505 -2.5924  1.6189 -0.6332
55500SOL    HW284111   8.816  13.435  12.483  0.0178 -0.6089 -0.0633
55501SOL     OW84112   1.634  10.677  13.429  0.5335 -0.1668  0.8808
55501SOL    HW184113   1.623  10.647  13.339 -1.3097 -0.7363  1.2548
55501SOL    HW284114   1.593  10.764  13.430 -1.0403 -0.8815  1.5280
55502SOL     OW84115   7.047   6.019  13.530 -0.2494  0.0100 -0.2055
55502SOL    HW184116   7.078   6.067  13.607  0.6990 -0.9086 -0.0080
55502SOL    HW284117   7.097   6.056  13.457 -1.6829  1.4129 -0.5393
55503SOL     OW84118   5.985   8.029  10.490  0.2618  0.2930 -0.3113
55503SOL    HW184119   6.067   8.039  10.442  0.7962  0.4483  0.6116
55503SOL    HW284120   5.989   7.942  10.528  0.2862  0.5363  0.2560
55504SOL     OW84121  10.039   0.451  10.473 -0.1636  0.3324  0.6917
55504SOL    HW184122   9.978   0.448  10.547  0.7328  0.2082  1.4508
55504SOL    HW284123  10.119   0.488  10.510 -0.0686  1.3964 -0.5086
55505SOL     OW84124   8.386  11.297  10.862  0.1687  0.5991 -0.4194
55505SOL    HW184125   8.365  11.302  10.769  0.1018  1.1797 -0.3797
55505SOL    HW284126   8.306  11.268  10.904 -0.0060  0.9977 -0.4714
55506SOL     OW84127   6.145  12.908   9.317 -0.0226  0.4526  0.4200
55506SOL    HW184128   6.212  12.850   9.280  0.1560  0.3772  0.8518
55506SOL    HW284129   6.192  12.990   9.334 -1.0446  2.1601 -3.7073
55507SOL     OW84130   0.704  11.105   0.751 -0.0646 -0.2755 -0.3861
55507SOL    HW184131   0.645  11.175   0.779  0.2007  0.7112 -2.1391
55507SOL    HW284132   0.792  11.142   0.761  0.2087 -1.2184  0.8657
55508SOL     OW84133  10.366   4.509   5.097  0.1252  0.3710  0.3800
55508SOL    HW184134  10.405   4.487   5.013  1.1868 -1.2368  1.2340
55508SOL    HW284135  10.276   4.535   5.077  0.3554  0.0133 -1.2225
55509SOL     OW84136   7.655  13.448   2.370 -0.6800 -0.5032  0.1240
55509SOL    HW184137   7.563  13.464   2.348 -0.3588 -0.2500 -1.0895
55509SOL    HW284138   7.694  13.414   2.290  1.0304  2.4414 -0.4313
55510SOL     OW84139   1.046  11.195   2.513  0.3270  0.2688 -0.3963
55510SOL    HW184140   1.002  11.275   2.484  0.6694  0.5905 -0.0312
55510SOL    HW284141   1.092  11.220   2.593 -0.9649 -0.7258  0.7051
55511SOL     OW84142   0.606   8.708   6.301  0.0779  0.8346  0.1952
55511SOL    HW184143   0.518   8.670   6.298 -0.6581  2.4771 -2.6318
55511SOL    HW284144   0.613   8.744   6.389 -1.7890  0.0856  0.7160
55512SOL     OW84145  10.397   7.051  12.692 -0.3402  0.2593 -0.8486
55512SOL    HW184146  10.391   7.034  12.786  0.7235  0.2854 -0.7650
55512SOL    HW284147  10.363   6.971  12.651  1.8749 -0.9752 -0.4397
55513SOL     OW84148   7.692  11.300   2.341 -0.5706 -0.8918 -0.3395
55513SOL    HW184149   7.609  11.260   2.316 -0.7581  0.1691 -1.5175
55513SOL    HW284150   7.759  11.244   2.302 -0.7353 -1.5077  0.2472
55514SOL     OW84151   4.649   0.762   0.246  0.7812  0.0707  0.5450
55514SOL    HW184152   4.670   0.852   0.224  1.0077  0.1910  1.2307
55514SOL    HW284153   4.720   0.710   0.208 -0.1826  0.0038 -1.2615
55515SOL     OW84154   5.144   2.995   3.521 -0.1143 -0.2712 -0.0240
55515SOL    HW184155   5.053   2.979   3.542  0.2019 -0.1231  1.5291
55515SOL    HW284156   5.160   2.943   3.442 -1.9311  0.9433 -1.2701
55516SOL     OW84157   3.663   7.811  13.076  0.2572 -0.4829 -0.2433
55516SOL    HW184158   3.593   7.875  13.063  0.7281  0.1662  0.3363
55516SOL    HW284159   3.742   7.856  13.048  0.3261 -1.6664 -2.1866
55517SOL     OW84160  13.930   2.809   6.827 -0.3510 -0.1546  0.0397
55517SOL    HW184161  13.981   2.889   6.840 -1.3208  0.1411  2.4925
55517SOL    HW284162  13.996   2.742   6.809  0.6893  0.7154  0.4736
55518SOL     OW84163  13.043  11.190  13.135 -0.1386 -0.6047  0.4241
55518SOL    HW184164  13.106  11.225  13.072 -0.9008 -0.8745 -0.5227
55518SOL    HW284165  13.037  11.257  13.203  0.5614 -0.2155  0.1126
55519SOL     OW84166   4.896  11.466   8.292 -0.0235  0.5134 -0.2833
55519SOL    HW184167   4.830  11.482   8.359 -0.4427 -0.5207 -0.4417
55519SOL    HW284168   4.934  11.553   8.275 -1.1067  1.0638  0.0357
55520SOL     OW84169   1.818  11.531   4.716  0.4140  0.3338  0.5494
55520SOL    HW184170   1.898  11.545   4.767  1.1116 -1.0028 -0.1301
55520SOL    HW284171   1.773  11.459   4.760 -0.5133  1.1624  1.0043
55521SOL     OW84172   5.211   7.845   9.304  0.4465 -0.6694 -0.0591
55521SOL    HW184173   5.305   7.849   9.318  0.5237  1.4187 -0.7916
55521SOL    HW284174   5.196   7.899   9.226 -1.3268 -1.2186 -0.1453
55522SOL     OW84175   1.338   0.704   9.948  0.7763  0.3256  0.3676
55522SOL    HW184176   1.259   0.757   9.954  1.2230  0.9565  1.0130
55522SOL    HW284177   1.309   0.619   9.917 -0.2642  0.3172  1.3248
55523SOL     OW84178   7.186  13.184   4.086 -0.3387  0.1042  0.2563
55523SOL    HW184179   7.224  13.164   4.000  0.8980  0.0413  0.7955
55523SOL    HW284180   7.092  13.180   4.072 -0.1590  0.1108 -1.1064
55524SOL     OW84181   6.521   7.796  12.903 -0.3861 -0.2886  0.0867
55524SOL    HW184182   6.458   7.776  12.971  1.8185 -2.1746  1.7359
55524SOL    HW284183   6.501   7.736  12.832 -2.7123  1.7052 -1.0831
55525SOL     OW84184   4.516   6.842   4.510 -0.1196  0.3180 -0.0522
55525SOL    HW184185   4.555   6.774   4.453  0.1411  0.9715 -0.6661
55525SOL    HW284186   4.582   6.911   4.512 -0.1436  0.3265  1.0295
55526SOL     OW84187   1.768   6.445   4.818  0.0753 -0.1859  0.3505
55526SOL    HW184188   1.683   6.455   4.861  0.8949 -1.0263  2.2946
55526SOL    HW284189   1.806   6.367   4.858  0.7601 -1.2681 -2.2657
55527SOL     OW84190   5.651   5.353   3.864 -0.2373 -0.6380 -0.1939
55527SOL    HW184191   5.700   5.377   3.943 -0.3268 -3.6683  0.9262
55527SOL    HW284192   5.567   5.397   3.874 -0.1848 -0.8308  1.3614
55528SOL     OW84193  11.988   0.911   2.948 -0.1808  0.0009 -0.2234
55528SOL    HW184194  12.050   0.874   3.011  0.5921  1.0145 -0.3674
55528SOL    HW284195  11.931   0.967   3.000  0.6052  1.0235 -0.4362
55529SOL     OW84196   5.330  13.590  12.315 -0.0241 -0.2209  0.0786
55529SOL    HW184197   5.381  13.520  12.275  1.1349  0.8802 -0.4359
55529SOL    HW284198   5.252  13.599  12.260  1.0549  0.5836 -1.4054
55530SOL     OW84199   8.046  10.882   2.603 -0.0175 -0.1536 -0.9152
55530SOL    HW184200   7.998  10.937   2.541 -0.3535  0.3557 -0.2142
55530SOL    HW284201   8.013  10.794   2.588 -0.0440 -0.0458 -1.5049
55531SOL     OW84202  10.163   2.124   1.194 -0.2496 -0.5151  0.0987
55531SOL    HW184203  10.173   2.216   1.218 -0.1246 -0.8830  1.5487
55531SOL    HW284204  10.179   2.122   1.100 -2.8956  1.3416 -0.5046
55532SOL     OW84205   7.407   4.680   5.065  0.3143 -0.2248 -0.0183
55532SOL    HW184206   7.352   4.713   4.994 -0.0823 -0.4511  0.1859
55532SOL    HW284207   7.393   4.742   5.137  0.4263 -0.2109 -0.0074
55533SOL     OW84208   9.330  11.948   0.418 -0.7974 -0.0402  0.4908
55533SOL    HW184209   9.405  11.959   0.476 -0.3524  1.7786 -0.3286
55533SOL    HW284210   9.324  11.854   0.401 -1.3935 -0.7468  3.9889
55534SOL     OW84211  12.007   5.060  12.242 -0.4403 -0.2648 -0.3420
55534SOL    HW184212  12.024   4.971  12.210  0.8313 -0.6998  1.4436
55534SOL    HW284213  12.072   5.114  12.198  1.2201 -0.8419  1.2800
55535SOL     OW84214  11.949   6.849   4.092 -0.1272 -0.0192 -0.2502
55535SOL    HW184215  11.971   6.814   4.006 -1.9577 -1.6709 -0.1101
55535SOL    HW284216  11.948   6.773   4.150 -0.6033  0.7981  0.8537
55536SOL     OW84217   6.911   6.796   5.426  0.3383  0.2248 -0.0236
55536SOL    HW184218   6.980   6.779   5.361 -1.1978 -0.8192 -1.4704
55536SOL    HW284219   6.842   6.838   5.375 -0.9022 -0.6040  0.9500
55537SOL     OW84220   3.767  10.589   6.641 -0.0548 -0.4145  0.4994
55537SOL    HW184221   3.772  10.592   6.737 -0.3330  1.2217  0.4914
55537SOL    HW284222   3.674  10.577   6.623 -0.2120  0.8065  0.4389
55538SOL     OW84223   2.873   8.439  12.107  0.2811 -0.0990 -0.0640
55538SOL    HW184224   2.947   8.431  12.168 -0.1079 -1.2483  0.2856
55538SOL    HW284225   2.799   8.403  12.155 -0.1941 -0.3255 -0.9505
55539SOL     OW84226  13.465  12.898  13.754 -0.3445  0.2993  0.4896
55539SOL    HW184227  13.546  12.914  13.707 -0.1644 -1.5612  0.1106
55539SOL    HW284228  13.492  12.862  13.838 -0.7598  0.3244  0.6384
55540SOL     OW84229  10.925   5.734  11.585  0.3591 -0.7321 -0.3215
55540SOL    HW184230  10.846   5.784  11.602 -0.1473 -1.6025 -0.0756
55540SOL    HW284231  10.992   5.800  11.566 -0.1746  0.0465  0.4725
55541SOL     OW84232   5.039   3.446  12.720  0.3461 -0.3229  0.0334
55541SOL    HW184233   4.981   3.384  12.763  0.1081  1.7475  3.0176
55541SOL    HW284234   4.980   3.515  12.689  0.9154  0.2322  0.1784
55542SOL     OW84235   2.579   6.611   4.779  0.2789 -0.3789  0.8545
55542SOL    HW184236   2.538   6.692   4.808 -0.3378 -0.3734 -0.0107
55542SOL    HW284237   2.672   6.632   4.773  0.0356  0.4829 -0.0421
55543SOL     OW84238   1.534   5.724  13.239  0.5333 -0.1408 -0.5890
55543SOL    HW184239   1.537   5.748  13.332 -0.8835 -0.2837 -0.4883
55543SOL    HW284240   1.517   5.630  13.239 -2.2090  0.2937 -0.9527
55544SOL     OW84241  10.703   3.934  11.437  0.2196 -0.0238  0.1868
55544SOL    HW184242  10.783   3.932  11.490 -0.1429  2.5111  0.9509
55544SOL    HW284243  10.636   3.899  11.495  0.0312  1.7429  1.0987
55545SOL     OW84244   2.750   7.305   6.403  0.0439  0.6276 -0.0597
55545SOL    HW184245   2.812   7.285   6.334 -0.1461  0.4717 -0.1839
55545SOL    HW284246   2.716   7.392   6.381 -0.5836  0.2604 -0.5800
55546SOL     OW84247   8.232   7.624   5.697 -0.1722  0.2944 -0.4259
55546SOL    HW184248   8.200   7.536   5.677  1.6606 -0.0155 -2.3246
55546SOL    HW284249   8.297   7.610   5.766 -1.1582  0.4528  0.5865
55547SOL     OW84250  13.929   1.317   7.621 -0.2050 -0.0629  0.6818
55547SOL    HW184251  13.921   1.337   7.714  1.5220 -0.5293  0.9679
55547SOL    HW284252  13.869   1.244   7.606 -1.6407  0.9924  1.0589
55548SOL     OW84253   3.887   5.045   1.943  0.2552 -0.4363  0.3029
55548SOL    HW184254   3.848   5.056   1.856  0.4688 -0.8133  0.1559
55548SOL    HW284255   3.982   5.043   1.927  0.2884 -0.6967  0.5200
55549SOL     OW84256   9.963   5.813   2.153  0.6024  0.2176  0.1431
55549SOL    HW184257  10.037   5.806   2.093 -0.2205 -0.6689 -0.8120
55549SOL    HW284258   9.914   5.731   2.140 -0.0382  0.3727  1.4299
55550SOL     OW84259   0.509   7.303   6.035  0.0609  0.0195  0.0159
55550SOL    HW184260   0.555   7.320   6.117 -0.9566 -2.3597  1.1847
55550SOL    HW284261   0.567   7.243   5.988 -0.1753 -0.0776 -0.1535
55551SOL     OW84262   9.561  10.456  13.580  0.0579  0.7086  0.2023
55551SOL    HW184263   9.488  10.417  13.629 -0.4360  0.8028 -0.4392
55551SOL    HW284264   9.630  10.468  13.644  0.2527 -1.2936  0.4177
55552SOL     OW84265   3.467   8.657   0.453  0.4499 -0.5255  0.0189
55552SOL    HW184266   3.557   8.682   0.474  0.2245 -0.3168  0.7541
55552SOL    HW284267   3.461   8.564   0.475  0.5515 -0.6039 -0.2736
55553SOL     OW84268   4.766   3.340   2.977 -0.2175 -0.1979  0.0373
55553SOL    HW184269   4.791   3.427   2.948 -1.1917  0.2001  0.3227
55553SOL    HW284270   4.754   3.349   3.072  0.3774 -0.8252  0.1792
55554SOL     OW84271   3.939   4.784   4.986 -0.2299  0.1546  0.0713
55554SOL    HW184272   3.980   4.698   4.971 -0.2166 -0.0297  1.1412
55554SOL    HW284273   3.847   4.770   4.966  0.0274  0.3443 -1.4492
55555SOL     OW84274   8.215  12.699   5.581  0.2180 -0.2819 -0.2802
55555SOL    HW184275   8.271  12.708   5.504 -0.3188 -0.5820 -0.7162
55555SOL    HW284276   8.275  12.689   5.654  0.7343 -0.1745 -0.6863
55556SOL     OW84277   0.009   4.982   4.605 -0.5711 -0.5216  0.4937
55556SOL    HW184278   0.081   5.035   4.570 -1.4605  1.1194  1.0542
55556SOL    HW284279   0.022   4.983   4.700  0.4128 -2.8762  0.4508
55557SOL     OW84280  11.043   4.661   9.084  0.2185  0.1744 -0.2277
55557SOL    HW184281  11.089   4.599   9.026  0.9654  0.4379  0.0842
55557SOL    HW284282  10.962   4.615   9.106 -0.4060  0.3259 -2.0107
55558SOL     OW84283  12.051   4.263   4.858 -0.4253  0.1974 -0.0299
55558SOL    HW184284  12.092   4.281   4.773 -0.5433  1.5699  0.1706
55558SOL    HW284285  12.110   4.304   4.921 -0.9545  0.2244  0.4488
55559SOL     OW84286   1.290   2.945   9.331  0.1986  0.2779 -0.6038
55559SOL    HW184287   1.224   2.938   9.400  0.7021 -1.8231 -0.2324
55559SOL    HW284288   1.313   3.037   9.328  0.4848  0.4107  2.4016
55560SOL     OW84289  13.364   6.584  11.551 -0.1361  0.8013  0.4163
55560SOL    HW184290  13.278   6.543  11.543  0.3862  0.0452 -2.9675
55560SOL    HW284291  13.426   6.510  11.544  0.7848  1.5696  0.2591
55561SOL     OW84292  13.600   0.242   9.614 -0.0572  0.2602 -0.5401
55561SOL    HW184293  13.529   0.306   9.613 -1.6577 -1.4493 -0.7995
55561SOL    HW284294  13.637   0.249   9.703 -0.0522  1.6465 -0.6268
55562SOL     OW84295   9.448   0.577   8.064 -0.1804 -0.0394  0.3048
55562SOL    HW184296   9.462   0.495   8.018 -0.7516  0.4120 -0.6945
55562SOL    HW284297   9.504   0.640   8.019 -2.3710  0.9053 -1.2609
55563SOL     OW84298   1.904   6.666   2.605 -0.3691  0.7001 -0.0129
55563SOL    HW184299   1.874   6.673   2.695  0.5187 -0.0579  0.3648
55563SOL    HW284300   1.979   6.726   2.600 -1.7224  2.4018 -0.8773
55564SOL     OW84301  10.630  13.345  11.801  0.2595  0.2355 -0.0822
55564SOL    HW184302  10.666  13.419  11.850 -2.7056  1.7790 -0.0456
55564SOL    HW284303  10.628  13.375  11.710  1.4175 -0.8414 -0.4935
55565SOL     OW84304  10.530  12.629   4.621  0.2560  0.4010 -0.0429
55565SOL    HW184305  10.463  12.589   4.565  0.6839  0.4841 -0.6275
55565SOL    HW284306  10.516  12.723   4.610  1.9090  0.4753 -1.9935
55566SOL     OW84307   6.027  13.723   2.425  0.0573 -0.1838 -0.0154
55566SOL    HW184308   5.979  13.679   2.355 -1.7414 -0.0685  1.0877
55566SOL    HW284309   6.002  13.815   2.418 -0.7382 -0.2847  1.2052
55567SOL     OW84310   9.789   1.764   6.171  0.8603  0.0683 -0.0447
55567SOL    HW184311   9.850   1.772   6.245  1.1124  1.1222 -0.3477
55567SOL    HW284312   9.817   1.832   6.110  0.0704 -0.1796 -0.6978
55568SOL     OW84313  12.393   9.999   7.540 -0.7505  0.4301 -0.2814
55568SOL    HW184314  12.300  10.023   7.538 -1.1098 -0.8913 -1.6067
55568SOL    HW284315  12.427  10.032   7.457  0.3732  2.2400  0.8415
55569SOL     OW84316  10.131  12.414  13.056 -0.0818 -0.1181 -0.1124
55569SOL    HW184317  10.077  12.466  12.997  1.5710  1.3101 -0.4415
55569SOL    HW284318  10.068  12.373  13.116 -1.5769  0.7417 -1.0284
55570SOL     OW84319  13.614   0.317   3.243  0.2220 -0.4384  0.3631
55570SOL    HW184320  13.583   0.243   3.295  0.3915 -1.4867 -0.9541
55570SOL    HW284321  13.607   0.393   3.301  0.7510 -1.5908  2.0125
55571SOL     OW84322   4.058   3.549  13.845  0.2843 -0.3956  0.2570
55571SOL    HW184323   3.985   3.522  13.789  0.5323 -1.4704  0.4379
55571SOL    HW284324   4.134   3.502  13.810  0.4541 -1.0546  1.4573
55572SOL     OW84325  12.760   1.231   8.741 -0.2601 -0.2392  0.5234
55572SOL    HW184326  12.715   1.196   8.664 -0.6595 -0.4682  0.8555
55572SOL    HW284327  12.692   1.281   8.787  0.5119  1.8220 -0.4448
55573SOL     OW84328  10.919   8.104   3.860  0.5837 -0.4137 -0.2881
55573SOL    HW184329  10.953   8.148   3.782  1.6933 -1.4027 -0.3861
55573SOL    HW284330  10.909   8.174   3.925 -2.1966  0.7778 -1.8412
55574SOL     OW84331  11.957   3.081   6.111  0.8686 -0.3528 -0.0540
55574SOL    HW184332  12.007   3.162   6.106 -0.6993  0.7742  1.2778
55574SOL    HW284333  11.877   3.099   6.062  0.0572 -0.6852  1.0900
55575SOL     OW84334  10.260   4.970  10.116 -0.2170  0.2762 -0.2323
55575SOL    HW184335  10.345   4.965  10.160 -0.3195 -1.2828 -0.1435
55575SOL    HW284336  10.281   4.998  10.027  0.3337  0.4580 -0.0485
55576SOL     OW84337  11.334   3.403   4.995  0.1538  0.3255  0.2039
55576SOL    HW184338  11.266   3.438   4.938  0.3504  1.8205  0.8249
55576SOL    HW284339  11.396   3.360   4.936 -0.0703  1.1131 -0.6267
55577SOL     OW84340  12.840  14.068   0.201  0.5006  0.0898 -0.0402
55577SOL    HW184341  12.846  14.134   0.132 -1.7155  0.6250  0.2085
55577SOL    HW284342  12.807  13.990   0.156 -0.1746  0.1962  0.2684
55578SOL     OW84343   1.588   4.768   6.905 -0.2456  0.0125 -0.0377
55578SOL    HW184344   1.567   4.675   6.894 -1.4194  0.2798 -0.1864
55578SOL    HW284345   1.547   4.810   6.830 -1.3718  0.8861  1.0450
55579SOL     OW84346  10.324  12.826   6.359  0.2165  0.0200 -0.2751
55579SOL    HW184347  10.392  12.887   6.388  0.1130  0.0880 -0.1725
55579SOL    HW284348  10.242  12.874   6.371  0.2584  0.5929 -2.0394
55580SOL     OW84349   9.365   3.453   4.380  0.2014  0.0783 -0.8720
55580SOL    HW184350   9.411   3.497   4.451  0.3755 -0.7341 -0.4668
55580SOL    HW284351   9.435   3.426   4.320  0.0662  0.6550 -1.3028
55581SOL     OW84352   9.266  11.948   7.342 -0.2405 -0.6143 -0.5593
55581SOL    HW184353   9.272  11.953   7.246  0.4636 -0.0576 -0.4904
55581SOL    HW284354   9.211  11.870   7.358  0.5429 -1.3591 -1.3857
55582SOL     OW84355   8.222  10.147   4.022  0.2118 -0.0174 -0.7075
55582SOL    HW184356   8.178  10.200   4.090  0.5779 -1.1416  0.4464
55582SOL    HW284357   8.273  10.083   4.072  1.1286 -0.3689 -2.0621
55583SOL     OW84358  10.237  12.276   8.520 -0.1407 -0.3508  0.2993
55583SOL    HW184359  10.259  12.285   8.613  0.2629  1.9171  0.0256
55583SOL    HW284360  10.265  12.187   8.498  0.9661 -0.4845  2.0258
55584SOL     OW84361  10.541  13.938  12.735 -0.3723 -0.2989  0.0076
55584SOL    HW184362  10.614  13.962  12.678  0.2106  1.5743  1.4209
55584SOL    HW284363  10.507  13.856  12.698  0.4047  0.4318 -2.5628
55585SOL     OW84364   6.276   3.733   5.925  0.1376  0.8229 -0.3467
55585SOL    HW184365   6.266   3.682   6.005 -2.8918 -1.4380 -1.9748
55585SOL    HW284366   6.344   3.687   5.875  0.8154  1.2530  0.1529
55586SOL     OW84367   5.850   0.960  12.861  0.2621  0.2644 -0.5728
55586SOL    HW184368   5.814   0.881  12.823  0.2290  0.2303 -0.4706
55586SOL    HW284369   5.945   0.950  12.852  0.4084 -0.8463  1.4855
55587SOL     OW84370   6.627  14.070   1.765  0.1560  0.4069  0.4969
55587SOL    HW184371   6.708  14.043   1.807  0.9291  1.7482 -0.0640
55587SOL    HW284372   6.593  14.140   1.821 -0.8967 -0.4784  0.9998
55588SOL     OW84373   5.202  11.667   0.233  0.3939  0.0960  0.1189
55588SOL    HW184374   5.199  11.611   0.156 -1.3732 -1.6385  1.3573
55588SOL    HW284375   5.110  11.677   0.259  0.6383  3.2245  0.2711
55589SOL     OW84376   9.634   0.161  12.955  0.2804 -0.0919  0.0970
55589SOL    HW184377   9.634   0.174  12.860 -0.8753 -0.1520  0.0755
55589SOL    HW284378   9.662   0.245  12.991 -0.6615  0.3831 -0.2564
55590SOL     OW84379  12.760   6.973   3.424  0.2534 -0.4889 -0.3413
55590SOL    HW184380  12.690   7.035   3.407 -0.6232 -1.4366 -0.2603
55590SOL    HW284381  12.722   6.910   3.485  2.3538  1.1386  2.9384
55591SOL     OW84382  12.665   4.125   6.256  0.4929 -0.0198  0.1638
55591SOL    HW184383  12.664   4.220   6.247 -0.1644 -0.0905 -0.5850
55591SOL    HW284384  12.593   4.105   6.316  1.1761  0.0050  1.0176
55592SOL     OW84385   2.966   6.162   9.097 -0.0859 -0.0111 -0.1262
55592SOL    HW184386   3.003   6.159   9.185  1.3788 -0.7253 -0.7383
55592SOL    HW284387   3.006   6.239   9.057  2.5169 -1.8953 -1.4771
55593SOL     OW84388   6.728  10.316   6.876 -0.1348 -0.2649  0.2979
55593SOL    HW184389   6.667  10.303   6.948 -1.2648  0.9054 -0.4001
55593SOL    HW284390   6.738  10.411   6.869  1.4334 -0.4188  0.1009
55594SOL     OW84391   2.257  10.722   5.485  0.1262  0.5969 -0.3147
55594SOL    HW184392   2.273  10.816   5.498 -0.6748  0.6181  0.7248
55594SOL    HW284393   2.163  10.712   5.499  0.1460 -0.3109 -0.7658
55595SOL     OW84394   0.720   6.870   8.729 -0.1453  0.6307 -0.0961
55595SOL    HW184395   0.655   6.845   8.795 -1.0807 -0.0827 -1.2636
55595SOL    HW284396   0.690   6.828   8.649  2.0902 -0.2498 -0.5388
55596SOL     OW84397  13.561  11.862   5.099 -0.0698 -0.4555 -0.5224
55596SOL    HW184398  13.475  11.830   5.126  1.5253 -3.2577  1.7934
55596SOL    HW284399  13.582  11.930   5.163 -0.6521  0.4924 -1.3097
55597SOL     OW84400   4.889  12.546   1.397 -0.8287 -0.1188  0.1347
55597SOL    HW184401   4.891  12.492   1.318 -0.3266  0.7974 -0.4890
55597SOL    HW284402   4.804  12.590   1.394 -1.4806 -1.2661  0.9345
55598SOL     OW84403   6.166   5.298   4.657 -0.5416  0.0945 -0.6021
55598SOL    HW184404   6.240   5.352   4.684 -1.8147  2.0981 -0.9103
55598SOL    HW284405   6.165   5.226   4.720  2.1459 -0.4871 -1.1222
55599SOL     OW84406   7.061  11.473   6.253  0.1725 -0.0011  0.4579
55599SOL    HW184407   7.143  11.464   6.203  0.4344 -0.2060  0.9245
55599SOL    HW284408   7.072  11.417   6.329  0.2516  1.1973  1.3715
55600SOL     OW84409   5.144  13.184   8.651  0.0030  0.3672  0.3249
55600SOL    HW184410   5.108  13.234   8.724  0.3499  1.6070 -0.3256
55600SOL    HW284411   5.222  13.234   8.624  0.8359 -0.9712  0.1791
55601SOL     OW84412  11.309  10.670   4.279 -0.0638  0.8673 -0.3463
55601SOL    HW184413  11.231  10.615   4.279 -0.8871  1.9842 -0.1442
55601SOL    HW284414  11.291  10.736   4.346  1.3704  0.7327  0.2027
55602SOL     OW84415   8.110   7.074   1.148 -0.0531  0.4018 -0.5219
55602SOL    HW184416   8.142   7.162   1.163  0.3105  0.4094 -1.3165
55602SOL    HW284417   8.149   7.022   1.218  1.5502  0.4489 -1.3454
55603SOL     OW84418   8.024   1.455  11.036  0.1590  0.6294 -0.0281
55603SOL    HW184419   8.048   1.385  11.097  0.0431 -0.6514 -1.4007
55603SOL    HW284420   7.945   1.423  10.992  0.0138  1.6986 -0.5823
55604SOL     OW84421  11.928   0.506   0.981  0.5340  0.0520  0.5567
55604SOL    HW184422  11.915   0.469   1.068  0.5506  0.4256  0.7181
55604SOL    HW284423  12.001   0.567   0.991 -0.7092  1.5639  0.7287
55605SOL     OW84424  13.945  12.256   9.416  0.8313 -0.6570 -0.3942
55605SOL    HW184425  13.912  12.256   9.506 -0.4993 -2.7216 -0.8001
55605SOL    HW284426  13.877  12.301   9.366  0.2112 -1.8878 -0.7173
55606SOL     OW84427   1.439   0.406   4.725 -0.3485 -0.5938  0.6115
55606SOL    HW184428   1.415   0.499   4.721 -0.9817 -0.8053 -1.0435
55606SOL    HW284429   1.528   0.403   4.688 -1.9286 -1.1030 -3.6906
55607SOL     OW84430   3.572   1.299   0.046 -0.4705 -0.3660  0.7527
55607SOL    HW184431   3.492   1.327   0.092  0.8434  2.3608  1.6247
55607SOL    HW284432   3.540   1.252  -0.031 -2.8990 -0.1134  1.5134
55608SOL     OW84433   7.406   4.008   3.679  0.5398 -0.6417  0.1684
55608SOL    HW184434   7.324   3.986   3.722  0.2212 -2.0998 -1.1172
55608SOL    HW284435   7.474   3.976   3.739  0.1065 -2.0535 -0.0488
55609SOL     OW84436   2.628  13.842   7.803  0.2772 -0.1244 -0.3929
55609SOL    HW184437   2.573  13.852   7.725 -0.4026  1.5698  0.2647
55609SOL    HW284438   2.662  13.753   7.796  0.3102 -0.0113 -2.6758
55610SOL     OW84439   3.126  11.619   1.279 -0.0311  0.5650  0.1412
55610SOL    HW184440   3.068  11.662   1.341  0.2024  1.2966 -0.1416
55610SOL    HW284441   3.212  11.619   1.321 -0.1267 -0.0519  0.3407
55611SOL     OW84442  12.908   9.609   8.570 -0.1541  0.2402 -0.5344
55611SOL    HW184443  12.909   9.519   8.602  0.2603  0.5576  0.3774
55611SOL    HW284444  12.988   9.618   8.518  0.5431  0.4866  0.5589
55612SOL     OW84445  11.224  13.176   4.646  0.0255  0.1942 -0.0412
55612SOL    HW184446  11.154  13.233   4.615 -1.5354 -0.5363  1.8905
55612SOL    HW284447  11.232  13.197   4.739 -0.1578 -2.2105  0.5893
55613SOL     OW84448   9.686  10.830   0.920 -0.0347 -0.2795 -0.0335
55613SOL    HW184449   9.723  10.887   0.853 -1.0275 -0.2073 -0.5430
55613SOL    HW284450   9.746  10.837   0.994  0.5156  0.4565 -0.5414
55614SOL     OW84451   1.750  12.119   2.386  0.3826 -0.1733  0.6287
55614SOL    HW184452   1.802  12.065   2.444  1.6367 -2.4489 -2.3658
55614SOL    HW284453   1.662  12.118   2.424  1.4073 -0.3801  3.1385
55615SOL     OW84454  11.188   4.708   5.777  0.3401  0.4712 -0.1298
55615SOL    HW184455  11.158   4.700   5.687 -1.0403  1.1684  0.2426
55615SOL    HW284456  11.165   4.624   5.817  0.9359  0.1690 -0.4108
55616SOL     OW84457  11.944   6.242  13.665  0.2972  0.0633  0.5586
55616SOL    HW184458  11.975   6.220  13.577  1.0987  1.8354  0.3673
55616SOL    HW284459  11.879   6.174  13.684  1.5154 -1.5074 -0.5851
55617SOL     OW84460   6.543  11.358   1.626 -0.1321  0.4406 -0.6349
55617SOL    HW184461   6.554  11.269   1.660  0.6977  0.2590 -1.3313
55617SOL    HW284462   6.615  11.408   1.664  0.5629  0.3317 -1.7435
55618SOL     OW84463   5.380  10.265   8.931 -0.0107  0.3986  0.1480
55618SOL    HW184464   5.407  10.269   9.022  0.5266  0.9103 -0.0267
55618SOL    HW284465   5.287  10.286   8.932  0.5124  3.0001  0.3432
55619SOL     OW84466   2.510   3.357  12.376  0.0996 -0.2043  0.1221
55619SOL    HW184467   2.481   3.421  12.311 -1.9203  0.3845  1.5081
55619SOL    HW284468   2.430   3.322  12.414  1.1904 -1.1597  1.6929
55620SOL     OW84469   3.141   4.903   5.959  0.3482 -0.1711 -0.1589
55620SOL    HW184470   3.226   4.929   5.994 -0.0106  0.1600  0.4786
55620SOL    HW284471   3.139   4.940   5.871  0.6473  0.2755  0.0171
55621SOL     OW84472   3.024  11.842   1.502 -0.0987 -0.5906  0.3222
55621SOL    HW184473   2.961  11.790   1.450 -1.2970  1.3776 -0.2990
55621SOL    HW284474   2.986  11.930   1.504  3.4825  1.2358 -1.6581
55622SOL     OW84475   8.450  11.267   7.046 -0.8060  0.6595 -0.2987
55622SOL    HW184476   8.403  11.339   7.088 -0.4681  0.4657  0.4192
55622SOL    HW284477   8.382  11.205   7.022 -1.0098  0.8178 -0.1331
55623SOL     OW84478   9.856   5.032  10.600 -0.2357  0.0385  0.0239
55623SOL    HW184479   9.857   5.014  10.694 -2.5790  1.4210  0.3971
55623SOL    HW284480   9.797   5.107  10.591  1.1778  0.9761 -2.4033
55624SOL     OW84481   6.105   3.502   4.305  0.1490  0.2346  0.0543
55624SOL    HW184482   6.161   3.555   4.249 -0.0953 -1.0012 -1.4252
55624SOL    HW284483   6.143   3.414   4.303 -1.9904 -0.7648 -1.3765
55625SOL     OW84484   3.355   2.279   2.272 -0.0359  0.4212 -0.1352
55625SOL    HW184485   3.336   2.204   2.328  1.1287 -0.0024 -0.2784
55625SOL    HW284486   3.369   2.352   2.334 -1.1229  0.5318  0.0034
55626SOL     OW84487  12.037   7.018  13.305  0.2110  0.0384 -0.1544
55626SOL    HW184488  11.968   7.015  13.372  0.7330  1.0993  0.4525
55626SOL    HW284489  11.994   7.057  13.228 -0.6113 -1.9265 -0.7531
55627SOL     OW84490  12.658   0.261  12.180  0.6315  0.4113 -0.3924
55627SOL    HW184491  12.695   0.213  12.106  0.1875 -0.3369 -0.1426
55627SOL    HW284492  12.623   0.192  12.237  1.2513  0.9595  0.6722
55628SOL     OW84493  11.526   9.373   8.717  0.2468 -0.1677  0.2691
55628SOL    HW184494  11.620   9.353   8.712 -0.0756 -1.4734 -1.2633
55628SOL    HW284495  11.521   9.467   8.695  1.3341  0.4470  2.3901
55629SOL     OW84496   2.682   8.897   6.758  0.0698  0.0315 -0.2257
55629SOL    HW184497   2.734   8.973   6.783 -0.8043  0.6040 -0.1420
55629SOL    HW284498   2.744   8.824   6.764  0.3021  0.3479  2.1233
55630SOL     OW84499   6.332   0.462   0.466 -0.0219 -0.3798 -0.6663
55630SOL    HW184500   6.365   0.505   0.545  0.8936 -2.5385  0.2086
55630SOL    HW284501   6.251   0.420   0.494 -0.6434  0.3126 -1.3752
55631SOL     OW84502   7.197   6.655   2.872  0.1591 -0.1270  0.0727
55631SOL    HW184503   7.107   6.655   2.840  0.1817 -1.4566 -0.0326
55631SOL    HW284504   7.246   6.609   2.804  0.9526  0.6804  0.0732
55632SOL     OW84505   0.839   4.744  10.623  0.3233 -0.3095 -0.3474
55632SOL    HW184506   0.767   4.681  10.618  1.4916 -1.6591 -0.8108
55632SOL    HW284507   0.821   4.795  10.703 -1.1020 -0.6388 -0.4411
55633SOL     OW84508   0.996   3.207   6.835 -0.0953 -0.1799  0.4363
55633SOL    HW184509   0.928   3.257   6.789 -0.8176 -1.6234 -0.1481
55633SOL    HW284510   1.035   3.270   6.895 -0.9734  1.0704 -0.2364
55634SOL     OW84511  13.903   9.069   9.575  0.3613  0.4208 -0.1926
55634SOL    HW184512  13.892   9.162   9.595  1.2630  0.3338  0.7929
55634SOL    HW284513  13.814   9.034   9.573  0.1132  0.9039  1.4777
55635SOL     OW84514  12.955  13.485   6.988 -0.2746 -0.4367 -0.2642
55635SOL    HW184515  12.940  13.476   7.083 -2.1754  0.3695 -0.4499
55635SOL    HW284516  12.971  13.396   6.958  2.5282 -0.5012  1.0931
55636SOL     OW84517   0.573   5.579   0.880 -0.1087  0.3190 -0.2146
55636SOL    HW184518   0.654   5.530   0.870  0.0575  0.5206  0.1133
55636SOL    HW284519   0.590   5.662   0.835 -0.8893 -0.4549 -2.0398
55637SOL     OW84520   1.370   6.350  13.493  0.1073  0.3809 -0.0255
55637SOL    HW184521   1.332   6.262  13.497  0.1401  0.3917  0.7856
55637SOL    HW284522   1.339   6.386  13.410 -1.0080  0.0922  0.2432
55638SOL     OW84523  13.052   0.974  10.541  0.0941  0.0704 -0.3842
55638SOL    HW184524  13.001   0.908  10.494  0.9809  0.3394 -1.7839
55638SOL    HW284525  13.064   1.045  10.478 -1.0856  1.7309  1.1789
55639SOL     OW84526   3.929  10.649   7.946  0.0517 -0.2735  0.0781
55639SOL    HW184527   3.855  10.589   7.943  0.0920 -0.4575  1.8096
55639SOL    HW284528   3.895  10.728   7.989  1.1001 -0.7850  1.9495
55640SOL     OW84529  11.948   6.684   6.910 -0.0290 -0.0436 -0.3793
55640SOL    HW184530  12.017   6.711   6.971 -0.5026 -3.5076  1.9884
55640SOL    HW284531  11.982   6.604   6.870 -2.2931 -1.4850  0.3729
55641SOL     OW84532   1.220  10.557   8.334  0.4143 -0.4006  0.3540
55641SOL    HW184533   1.128  10.538   8.317  0.3660  0.5732 -0.5456
55641SOL    HW284534   1.220  10.598   8.421 -0.1416  0.6038 -0.1099
55642SOL     OW84535   5.404  11.137   3.674  0.0777 -0.0721  0.6202
55642SOL    HW184536   5.326  11.118   3.727 -0.2898  1.3785  0.6383
55642SOL    HW284537   5.384  11.099   3.589  0.0101 -1.0401  1.0509
55643SOL     OW84538   4.138   5.437   8.132  1.2516  0.3886 -0.5994
55643SOL    HW184539   4.136   5.368   8.065  1.0615  0.7234 -0.9386
55643SOL    HW284540   4.072   5.499   8.104 -0.3866 -0.5243  1.0350
55644SOL     OW84541  12.681   6.049   4.427  0.7518  0.1270  0.3800
55644SOL    HW184542  12.709   6.004   4.506 -1.6295 -1.0877  0.6391
55644SOL    HW284543  12.659   5.978   4.365 -1.1536  0.9138  0.0741
55645SOL     OW84544   0.133  12.919   6.010  0.7313  0.2986  0.0325
55645SOL    HW184545   0.067  12.922   6.080 -1.4684  0.7128 -1.9637
55645SOL    HW284546   0.108  12.844   5.956  3.6340 -1.3282  0.7323
55646SOL     OW84547  10.070   6.033   6.363 -0.4312 -0.0620 -0.5175
55646SOL    HW184548  10.099   6.116   6.402  0.7081 -0.5310 -0.3316
55646SOL    HW284549   9.996   6.058   6.307 -0.3399  1.0232 -0.1791
55647SOL     OW84550   4.134   4.645  10.788 -0.0911 -0.1003  0.1239
55647SOL    HW184551   4.227   4.626  10.779 -0.0179  0.4832 -0.3899
55647SOL    HW284552   4.091   4.560  10.775  0.3030 -0.1599 -0.8929
55648SOL     OW84553   5.962  12.510   9.809  0.6103 -0.5331 -0.5282
55648SOL    HW184554   5.944  12.533   9.900  0.2394  0.3950 -0.8198
55648SOL    HW284555   5.981  12.594   9.766  1.0852 -0.9858 -1.2438
55649SOL     OW84556  12.198   6.705  10.286 -0.2098  0.1868 -0.3520
55649SOL    HW184557  12.294   6.706  10.285 -0.2029  0.8036  0.3900
55649SOL    HW284558  12.174   6.750  10.367 -1.1570  2.2075 -1.6612
55650SOL     OW84559   0.607   3.305   7.760 -0.1971 -0.2467 -0.4896
55650SOL    HW184560   0.667   3.248   7.712  0.2060 -1.4701  1.3698
55650SOL    HW284561   0.525   3.257   7.763 -1.6037  1.6366 -3.4598
55651SOL     OW84562   1.217   6.822   6.565 -0.3311  0.4599 -0.3492
55651SOL    HW184563   1.138   6.876   6.573  1.1454  2.5974  0.8708
55651SOL    HW284564   1.283   6.882   6.532  1.5905 -0.3496  1.7769
55652SOL     OW84565   6.135   1.982   2.957  0.4214  0.1413  0.2624
55652SOL    HW184566   6.143   2.064   3.005 -0.2223  0.1130  0.4386
55652SOL    HW284567   6.156   1.914   3.022  0.6960  0.1565  0.1884
55653SOL     OW84568  14.011   3.752   3.637  0.9287  0.0073  0.3964
55653SOL    HW184569  13.951   3.707   3.577  1.3538 -0.9546  0.6710
55653SOL    HW284570  13.995   3.710   3.722  1.5364  0.1825  0.6036
55654SOL     OW84571  13.512   5.259   2.335 -0.5494  0.1177  0.1110
55654SOL    HW184572  13.608   5.258   2.336 -0.5524 -0.0037  0.2370
55654SOL    HW284573  13.489   5.352   2.339 -0.4402  0.1330  0.3892
55655SOL     OW84574   6.408   9.412   8.409  0.0070 -0.2352  0.4561
55655SOL    HW184575   6.330   9.428   8.355  0.2436 -0.3756  0.0690
55655SOL    HW284576   6.475   9.468   8.370 -0.0740  0.4150  1.2126
55656SOL     OW84577   3.281   2.617  11.025 -0.7465 -0.0984  0.0522
55656SOL    HW184578   3.346   2.665  11.077  1.6789 -3.5457  0.5176
55656SOL    HW284579   3.205   2.676  11.022  1.4843  3.1899  1.4939
55657SOL     OW84580   5.173   0.184   5.664 -0.8384 -0.5281 -0.0401
55657SOL    HW184581   5.222   0.229   5.734  0.3405 -2.2584  0.2978
55657SOL    HW284582   5.171   0.248   5.592 -1.5614  1.0624  1.3213
55658SOL     OW84583  12.897   8.201  11.121 -0.5939  0.0289 -0.0365
55658SOL    HW184584  12.943   8.285  11.117 -1.2099  0.4161  0.6480
55658SOL    HW284585  12.965   8.137  11.143 -0.2699  0.4826  0.2919
55659SOL     OW84586   4.863   7.781  13.879  0.0969 -0.3012 -0.3588
55659SOL    HW184587   4.866   7.816  13.790  1.3365 -1.3733 -0.7651
55659SOL    HW284588   4.874   7.687  13.868 -0.3045 -0.5159  0.9100
55660SOL     OW84589   9.336   6.979   2.650 -0.5309  0.0851 -0.2023
55660SOL    HW184590   9.280   6.974   2.728 -0.5797 -1.5525 -0.3143
55660SOL    HW284591   9.417   6.936   2.676 -0.0253  0.7462 -0.6486
55661SOL     OW84592   9.060  10.072   9.630 -0.0576  0.0552 -0.2878
55661SOL    HW184593   9.103  10.022   9.561 -1.3848  0.6344 -1.5647
55661SOL    HW284594   8.994  10.012   9.665  0.5915 -0.2270  0.5018
55662SOL     OW84595   9.582  12.313   0.678  0.0040  0.2443  0.3345
55662SOL    HW184596   9.658  12.316   0.736  0.1507  0.6881  0.1304
55662SOL    HW284597   9.510  12.347   0.731  0.0024  0.0558  0.4519
55663SOL     OW84598   6.388   9.786   9.941 -0.7841  0.4552  0.1417
55663SOL    HW184599   6.347   9.707   9.976 -1.4532  1.1573  0.9799
55663SOL    HW284600   6.353   9.794   9.852 -0.5536 -0.2829 -0.0298
55664SOL     OW84601   0.613   0.648   1.617  0.3966  0.2053  0.2848
55664SOL    HW184602   0.524   0.677   1.594  0.0492 -0.0367  1.2955
55664SOL    HW284603   0.616   0.653   1.712  1.5921  0.5508  0.2413
55665SOL     OW84604   3.979   1.874  11.735  0.6684  0.4194 -0.2740
55665SOL    HW184605   3.903   1.825  11.765 -0.0359  1.4323 -0.3355
55665SOL    HW284606   4.028   1.812  11.682 -0.8873  0.1273 -1.4653
55666SOL     OW84607   7.116   4.068  12.599 -0.2074  0.0742 -0.2114
55666SOL    HW184608   7.202   4.029  12.583  0.8735  2.3163 -0.3194
55666SOL    HW284609   7.117   4.093  12.691  0.0087  1.6610 -0.6006
55667SOL     OW84610   7.993   9.745   3.582  0.4935 -0.1183 -0.4890
55667SOL    HW184611   7.975   9.658   3.546  1.1048 -0.1590 -0.7107
55667SOL    HW284612   7.986   9.734   3.677 -1.3253  0.0311 -0.5735
55668SOL     OW84613   1.330   9.597   2.277  0.2440 -0.2852 -0.1608
55668SOL    HW184614   1.422   9.616   2.259  1.1231 -1.5207  2.4890
55668SOL    HW284615   1.324   9.596   2.372 -2.5808 -0.1031 -0.2508
55669SOL     OW84616   7.669   1.351   9.599 -0.1763  0.1638 -0.0744
55669SOL    HW184617   7.657   1.358   9.504 -2.0178 -2.7318 -0.1813
55669SOL    HW284618   7.609   1.416   9.635  0.3606  1.1306 -0.8849
55670SOL     OW84619   5.489  11.608   8.852 -0.1219 -0.3986 -0.1456
55670SOL    HW184620   5.421  11.599   8.785 -1.6300 -0.4587  1.3136
55670SOL    HW284621   5.456  11.678   8.910  1.1997 -0.2395  0.4633
55671SOL     OW84622   7.505  13.909   1.911 -0.1982 -0.3118  0.2340
55671SOL    HW184623   7.468  13.978   1.967 -0.8496 -0.6975  0.2803
55671SOL    HW284624   7.441  13.898   1.841  0.8765  0.5703 -0.9419
55672SOL     OW84625  10.478   5.157  11.381  0.2300  0.9228 -0.2678
55672SOL    HW184626  10.423   5.081  11.367 -0.8508  2.0250 -2.5256
55672SOL    HW284627  10.567   5.126  11.366 -0.1102 -0.0563 -0.3141
55673SOL     OW84628   1.787   2.005   9.010  0.2576  0.1381  0.3158
55673SOL    HW184629   1.789   2.010   9.106 -0.4813  1.1327  0.2983
55673SOL    HW284630   1.719   2.067   8.985  0.5506 -0.0056 -0.8687
55674SOL     OW84631   0.805  10.348   6.455  0.5035 -0.4250  0.2707
55674SOL    HW184632   0.853  10.321   6.533  0.3861 -0.3436  0.3732
55674SOL    HW284633   0.837  10.436   6.436 -2.2972  1.2721  2.6132
55675SOL     OW84634  14.044  10.203   7.616 -0.1527 -0.0364  0.0180
55675SOL    HW184635  13.991  10.253   7.678 -0.9352  2.0664 -2.1865
55675SOL    HW284636  14.011  10.113   7.624 -0.7698  0.3161  2.0098
55676SOL     OW84637   0.066   3.349  11.803 -0.1428 -0.1147  0.1541
55676SOL    HW184638   0.083   3.265  11.846 -0.1717 -0.9226 -1.3408
55676SOL    HW284639  -0.028   3.350  11.788 -0.0734 -0.0630 -0.2970
55677SOL     OW84640   9.779  12.553   7.374  0.7117  0.5450 -0.0027
55677SOL    HW184641   9.702  12.522   7.422  1.9406 -0.3532  1.4858
55677SOL    HW284642   9.800  12.637   7.415  0.6638  0.6643 -0.2274
55678SOL     OW84643   5.698  10.120  10.580  0.1246  0.1205  0.7004
55678SOL    HW184644   5.642  10.196  10.562 -0.1726 -0.0710  0.8068
55678SOL    HW284645   5.636  10.049  10.599  0.4082  0.0486  1.3954
55679SOL     OW84646   8.167  12.180   5.761  0.7647 -0.0904  0.0566
55679SOL    HW184647   8.184  12.218   5.675  0.2461 -0.7426 -0.3526
55679SOL    HW284648   8.110  12.243   5.805  0.7229  0.0711 -0.2312
55680SOL     OW84649  13.917  13.808   9.956 -0.0771 -0.3047 -0.0175
55680SOL    HW184650  13.828  13.823   9.986  0.3857  1.1975  0.7005
55680SOL    HW284651  13.957  13.895   9.955  1.2696 -0.8973 -0.6923
55681SOL     OW84652  12.451   6.537   4.191  0.2744  0.5200 -0.2409
55681SOL    HW184653  12.502   6.500   4.119 -0.5231 -0.2457 -0.4270
55681SOL    HW284654  12.459   6.472   4.261 -0.0427  0.6230 -0.1086
55682SOL     OW84655   3.599  10.879  11.209  0.2286  0.1451  0.2187
55682SOL    HW184656   3.524  10.931  11.181  0.0999 -0.1684 -0.0296
55682SOL    HW284657   3.578  10.790  11.180  1.1010  0.2116 -0.6530
55683SOL     OW84658   9.463   1.593   9.361 -0.6522  0.0288 -0.3634
55683SOL    HW184659   9.435   1.503   9.380 -0.8882  0.2985  0.6155
55683SOL    HW284660   9.556   1.584   9.338 -0.7170 -0.4852 -0.4423
55684SOL     OW84661   9.066  10.549   0.951  0.1408 -0.0177 -0.0918
55684SOL    HW184662   8.988  10.543   0.895  1.6479 -0.0203 -2.2972
55684SOL    HW284663   9.139  10.551   0.890  1.9957 -1.5258  1.9443
55685SOL     OW84664   0.025  12.729   9.869 -0.0002  0.1194  0.6099
55685SOL    HW184665   0.001  12.665   9.936 -0.1416  0.0662  0.5068
55685SOL    HW284666   0.047  12.677   9.792  0.6411  0.1549  0.7606
55686SOL     OW84667   7.018  13.800   7.813  0.2963  0.3671 -0.1404
55686SOL    HW184668   7.075  13.868   7.851 -0.9967  0.8672  0.9973
55686SOL    HW284669   6.981  13.840   7.735 -1.3414  1.4417  1.1391
55687SOL     OW84670  13.837   4.829  10.834  0.3081  0.0366  0.3671
55687SOL    HW184671  13.750   4.825  10.795  0.4412  1.9171 -0.1990
55687SOL    HW284672  13.831   4.772  10.911 -1.7125  0.8349  0.8771
55688SOL     OW84673   8.971   4.155   6.928  0.0817  0.8621  0.4952
55688SOL    HW184674   9.011   4.154   6.841 -0.3301  0.1726  0.3034
55688SOL    HW284675   8.920   4.236   6.931 -1.4587  0.0004 -0.6540
55689SOL     OW84676   2.031   9.862   3.824  0.5106 -0.1888 -0.2995
55689SOL    HW184677   2.035   9.932   3.760  0.9383 -0.1873 -0.2738
55689SOL    HW284678   2.093   9.796   3.792  3.1785  1.1596  1.7115
55690SOL     OW84679   1.810  10.014   7.958  0.0925 -0.3955  0.4649
55690SOL    HW184680   1.790  10.044   8.047 -0.7763 -1.2113  0.5615
55690SOL    HW284681   1.725   9.997   7.919  0.3331  1.9004 -1.2693
55691SOL     OW84682  14.017  13.398   4.992 -0.2075 -0.5142  0.3739
55691SOL    HW184683  14.100  13.430   4.958  0.5741 -1.9389  0.8648
55691SOL    HW284684  13.987  13.466   5.052 -1.2910  1.7641 -2.5212
55692SOL     OW84685   1.095  10.442  12.950 -0.6650 -0.1367  0.0982
55692SOL    HW184686   1.092  10.517  12.890 -0.4797  1.3645  1.8639
55692SOL    HW284687   1.007  10.405  12.946 -1.1230  0.9051  0.0382
55693SOL     OW84688  11.857   6.542  10.152  0.5591  0.2689 -0.2017
55693SOL    HW184689  11.934   6.519  10.204  0.0230 -1.8454 -0.2323
55693SOL    HW284690  11.888   6.541  10.061  0.2280 -2.3039 -0.3677
55694SOL     OW84691   9.421   3.873   3.762  0.0701  0.2280  0.0721
55694SOL    HW184692   9.412   3.786   3.724  0.0810  0.5137 -0.5930
55694SOL    HW284693   9.331   3.897   3.785 -0.0626  0.4434 -0.6554
55695SOL     OW84694  13.473   7.280  12.834 -0.7050 -0.1343 -0.2224
55695SOL    HW184695  13.452   7.322  12.917 -0.9392 -0.4930 -0.0950
55695SOL    HW284696  13.529   7.206  12.859  0.8844  0.8944 -0.5689
55696SOL     OW84697  12.464  12.783   9.713 -0.0867 -0.4860  0.2963
55696SOL    HW184698  12.509  12.717   9.765  0.1093  0.7941  1.8198
55696SOL    HW284699  12.387  12.737   9.679 -0.3645 -1.3210  1.9338
55697SOL     OW84700   9.391   9.817   2.862  0.3783  0.9337 -0.5933
55697SOL    HW184701   9.472   9.781   2.825  1.4286  0.8416  1.6450
55697SOL    HW284702   9.341   9.740   2.888  0.5168  1.0117 -0.0854
55698SOL     OW84703   8.124   9.751   0.644  0.3157  0.1903  0.2967
55698SOL    HW184704   8.194   9.797   0.691  1.6345 -0.7827 -0.6211
55698SOL    HW284705   8.071   9.711   0.713  0.2955  1.4405  1.0333
55699SOL     OW84706  11.118   7.609   0.816  0.6101  0.1422 -0.3551
55699SOL    HW184707  11.205   7.576   0.794  0.6419  0.7832 -1.2284
55699SOL    HW284708  11.103   7.681   0.755 -0.8750 -0.4839 -0.7749
55700SOL     OW84709  13.193   1.734   8.306 -0.1011  0.0841  0.0479
55700SOL    HW184710  13.229   1.702   8.389 -2.4452 -1.7384  0.4779
55700SOL    HW284711  13.143   1.812   8.331  0.0893  0.1795  0.1420
55701SOL     OW84712   7.509   1.637   6.429  0.4042  0.0358 -0.0810
55701SOL    HW184713   7.577   1.651   6.363  0.1391 -0.4347 -0.4566
55701SOL    HW284714   7.448   1.575   6.388  0.0164  0.0668  0.4446
55702SOL     OW84715   0.507  11.495   7.689  0.0707 -0.2465  0.0735
55702SOL    HW184716   0.557  11.483   7.770 -0.1094 -0.1163  0.2069
55702SOL    HW284717   0.563  11.459   7.620  0.2861 -0.2290  0.2375
55703SOL     OW84718  10.967   0.866  10.977 -0.3338 -0.4548  0.7910
55703SOL    HW184719  10.993   0.781  10.942 -0.0287 -0.7085  1.5936
55703SOL    HW284720  11.050   0.909  10.998 -0.4780  0.1543  0.1511
55704SOL     OW84721   0.572   9.486   2.267  0.3963  0.3194 -0.6742
55704SOL    HW184722   0.619   9.505   2.186  2.3581 -1.0732  0.0656
55704SOL    HW284723   0.636   9.441   2.323 -1.6522 -1.2207  0.6151
55705SOL     OW84724   5.755  10.070   6.032 -0.2742 -0.8312 -0.1061
55705SOL    HW184725   5.752  10.100   5.941  1.1384 -0.7396 -0.1390
55705SOL    HW284726   5.811   9.993   6.031 -1.5001 -1.7678  0.4617
55706SOL     OW84727  11.629  10.202   2.790  0.2810  0.3279 -0.1911
55706SOL    HW184728  11.715  10.186   2.751  0.4991  0.5551  0.1947
55706SOL    HW284729  11.609  10.293   2.765 -0.8840 -0.4138 -2.2460
55707SOL     OW84730   1.274   2.318  11.627  0.6702  0.7873  0.4049
55707SOL    HW184731   1.267   2.345  11.536 -0.2093 -0.2470  0.1461
55707SOL    HW284732   1.218   2.379  11.675 -0.3070  0.2357 -0.0072
55708SOL     OW84733   8.555   4.312   2.402 -0.2649  0.3722 -0.5584
55708SOL    HW184734   8.568   4.219   2.421  1.6710  0.7380  0.1804
55708SOL    HW284735   8.600   4.325   2.318  1.8772  1.1017  0.6147
55709SOL     OW84736   8.415   8.618  13.925  0.6761  0.1388 -0.1148
55709SOL    HW184737   8.441   8.616  13.833  0.8366 -1.7712 -0.0634
55709SOL    HW284738   8.452   8.537  13.962 -3.4251 -1.6792  0.4921
55710SOL     OW84739   6.506  14.088   5.342  0.4535 -0.6512 -0.9444
55710SOL    HW184740   6.413  14.105   5.356  0.8295  0.9822 -0.1520
55710SOL    HW284741   6.538  14.059   5.428  0.7596 -0.8073 -1.1099
55711SOL     OW84742  11.583  11.423  12.958 -0.3006 -0.3371 -0.0754
55711SOL    HW184743  11.623  11.457  13.038  0.8761 -1.1844 -0.2856
55711SOL    HW284744  11.653  11.375  12.914 -1.1557 -0.5970 -1.2031
55712SOL     OW84745  13.963   7.372   1.318  0.2689  0.1504  0.0626
55712SOL    HW184746  13.951   7.466   1.302  0.9661 -0.0187 -1.7008
55712SOL    HW284747  14.057   7.363   1.332  0.2471 -0.3232 -0.0917
55713SOL     OW84748   9.600  12.598  14.015 -0.1652 -0.1250 -0.2837
55713SOL    HW184749   9.550  12.679  14.024  1.7506  0.9425  1.9617
55713SOL    HW284750   9.691  12.626  14.005  0.3203 -2.0201 -1.8804
55714SOL     OW84751   7.603   0.504  13.747 -0.8215 -0.3750 -0.1337
55714SOL    HW184752   7.579   0.442  13.815 -1.2394  0.6600  0.6904
55714SOL    HW284753   7.520   0.527  13.705 -0.8015  0.3320  0.1989
55715SOL     OW84754  11.235  10.168   5.452  0.5079  0.0786 -0.1313
55715SOL    HW184755  11.234  10.256   5.489 -0.2027  0.0520 -0.0857
55715SOL    HW284756  11.143  10.143   5.446  0.5810  0.1034 -1.9749
55716SOL     OW84757   3.459   2.611   1.866  0.2442 -0.3330 -0.5598
55716SOL    HW184758   3.431   2.563   1.944  0.4509  0.3050 -0.0777
55716SOL    HW284759   3.378   2.647   1.830  0.2511  0.2058 -0.0578
55717SOL     OW84760   8.727   4.640  11.267 -0.6591  0.9413 -0.6005
55717SOL    HW184761   8.765   4.698  11.333  0.2519 -1.5219  1.1920
55717SOL    HW284762   8.632   4.647  11.281 -0.4855  0.2142  1.3084
55718SOL     OW84763   5.547  10.517   4.918 -0.1062 -0.0642 -0.5076
55718SOL    HW184764   5.476  10.522   4.855 -0.7902 -1.2081  0.1444
55718SOL    HW284765   5.504  10.523   5.003  0.7596  1.0124 -0.1232
55719SOL     OW84766   5.460   2.985  11.803 -0.6205  0.3211  0.6028
55719SOL    HW184767   5.375   3.011  11.768 -0.2971  1.3412  0.5472
55719SOL    HW284768   5.477   3.048  11.873  1.1401  1.6461 -0.9127
55720SOL     OW84769   0.918  12.072   5.740  0.1462  0.0724  0.0578
55720SOL    HW184770   0.965  12.155   5.738  0.5661 -0.1757 -0.4639
55720SOL    HW284771   0.904  12.055   5.834  1.8671 -0.2690  0.2821
55721SOL     OW84772   1.251   8.321   4.388 -0.0871  0.4482 -0.0235
55721SOL    HW184773   1.326   8.365   4.428 -0.6423  1.4458 -0.0554
55721SOL    HW284774   1.277   8.309   4.296  1.0962 -1.6467  0.5157
55722SOL     OW84775   4.432  10.211   8.685  0.3365 -0.3346  0.1183
55722SOL    HW184776   4.513  10.160   8.685 -0.8274 -2.3053  0.0179
55722SOL    HW284777   4.420  10.237   8.594  0.7755 -0.1902  0.1031
55723SOL     OW84778   3.939   2.274  13.453 -0.0345  0.0554 -0.0780
55723SOL    HW184779   3.900   2.353  13.491 -0.6820 -0.0637 -0.4779
55723SOL    HW284780   3.872   2.240  13.394 -0.2779 -1.5256  1.0574
55724SOL     OW84781   9.822   3.613   4.690  0.4821  0.2356 -0.2379
55724SOL    HW184782   9.888   3.586   4.627 -0.0334  0.7403 -1.0103
55724SOL    HW284783   9.742   3.570   4.660  0.4408 -0.3534  0.6766
55725SOL     OW84784   2.509  10.832   8.622 -0.1091 -0.3816  0.1806
55725SOL    HW184785   2.436  10.893   8.611  0.2305  0.1987  1.0999
55725SOL    HW284786   2.511  10.782   8.540  0.5474  1.8497 -1.2411
55726SOL     OW84787  10.895  11.992   7.398 -0.0953  0.5725 -0.0406
55726SOL    HW184788  10.858  11.942   7.326 -0.5762  2.6101 -1.2932
55726SOL    HW284789  10.988  11.998   7.378 -0.2561  1.2820 -0.6092
55727SOL     OW84790   9.794  12.564  12.247  0.8845  0.2394  0.4413
55727SOL    HW184791   9.788  12.656  12.222 -2.3288 -0.3899 -1.6888
55727SOL    HW284792   9.728  12.553  12.315  0.1598 -0.7548 -0.4033
55728SOL     OW84793   8.733  10.546   2.480  0.1628  0.2782  0.4883
55728SOL    HW184794   8.771  10.627   2.444 -1.0830  0.3248 -0.7749
55728SOL    HW284795   8.798  10.479   2.461 -0.0578  0.4752 -1.0461
55729SOL     OW84796   0.449  12.299   9.601  0.2099 -0.6120  0.2222
55729SOL    HW184797   0.369  12.349   9.588  0.3257 -0.6947 -0.9401
55729SOL    HW284798   0.422  12.208   9.595  0.6150 -0.6434 -1.9654
55730SOL     OW84799   8.241   8.803   6.225 -0.2632  0.3700  0.3198
55730SOL    HW184800   8.185   8.880   6.217 -1.3977 -0.4139  0.3438
55730SOL    HW284801   8.328   8.832   6.199 -0.7253  1.5855  0.0993
55731SOL     OW84802  11.440   6.131   3.173  0.0066 -0.8064  0.7469
55731SOL    HW184803  11.526   6.129   3.214  1.5471  1.9512 -1.8836
55731SOL    HW284804  11.434   6.049   3.125 -0.1395 -2.2811  3.1400
55732SOL     OW84805   8.726   2.513  13.864 -0.2163  0.2168 -0.9645
55732SOL    HW184806   8.766   2.600  13.867 -0.6537  0.4025 -0.4150
55732SOL    HW284807   8.731   2.487  13.772 -0.5302  1.0278 -1.2170
55733SOL     OW84808   9.603   7.594   2.566  0.6917  0.2447 -0.7105
55733SOL    HW184809   9.631   7.686   2.571  1.4425 -0.0460  1.5792
55733SOL    HW284810   9.657   7.550   2.631  0.3191 -1.8491 -1.7542
55734SOL     OW84811   2.587  13.772   9.503  0.3398  0.7347 -0.1307
55734SOL    HW184812   2.647  13.710   9.461 -0.5052  1.0994 -1.9883
55734SOL    HW284813   2.533  13.719   9.561  0.0212 -0.2055 -1.2448
55735SOL     OW84814  12.872  10.292   4.637 -0.5032 -0.2575 -0.0482
55735SOL    HW184815  12.895  10.205   4.668 -0.4294 -1.0791 -2.2149
55735SOL    HW284816  12.893  10.351   4.710 -0.5864 -2.0317  1.4674
55736SOL     OW84817   6.621  10.458   1.738  0.2725  0.9011  0.3853
55736SOL    HW184818   6.677  10.512   1.683  2.3060  0.7572  2.1909
55736SOL    HW284819   6.549  10.516   1.763 -1.2982  0.6666 -3.1208
55737SOL     OW84820   8.436   8.574   4.618 -0.0751  0.0445 -0.7080
55737SOL    HW184821   8.503   8.535   4.674 -2.0430 -0.5710  1.4301
55737SOL    HW284822   8.430   8.665   4.647  0.5716  0.4139 -1.6861
55738SOL     OW84823  10.409  11.622   1.259  0.2945 -0.1154  0.1270
55738SOL    HW184824  10.377  11.654   1.344  0.2064 -0.8374  0.3739
55738SOL    HW284825  10.359  11.671   1.194 -1.2689 -1.1548  0.5033
55739SOL     OW84826   0.213   7.362   3.376 -0.1046 -0.1322  0.1324
55739SOL    HW184827   0.226   7.268   3.368 -0.8380 -0.2690  0.5037
55739SOL    HW284828   0.257   7.399   3.299 -0.4163 -0.8303 -0.3889
55740SOL     OW84829   6.737   3.885   4.576 -0.4505  0.4015  0.0933
55740SOL    HW184830   6.761   3.957   4.518 -0.2337  0.4343  0.2232
55740SOL    HW284831   6.796   3.813   4.550 -0.7565  0.2292 -0.1262
55741SOL     OW84832   5.534  13.781   3.976  0.1279  0.3345 -0.3043
55741SOL    HW184833   5.447  13.777   4.016  0.3587  1.0614  0.3030
55741SOL    HW284834   5.554  13.690   3.954 -0.9310  0.1996 -0.7851
55742SOL     OW84835  10.654   2.387  13.329  0.4622 -0.3905 -0.2609
55742SOL    HW184836  10.744   2.399  13.360 -0.0183  1.3766  0.5845
55742SOL    HW284837  10.663   2.344  13.244  2.2271  1.3176 -1.0223
55743SOL     OW84838  12.129   4.556   7.014  0.5766  0.0069  0.2624
55743SOL    HW184839  12.072   4.507   6.955  0.1521  0.6872  0.0922
55743SOL    HW284840  12.081   4.638   7.031  0.9548  0.0621  1.0912
55744SOL     OW84841   7.686   2.067  12.595  0.2896  0.2427 -0.2680
55744SOL    HW184842   7.693   2.031  12.683 -1.8834 -0.3591 -0.2697
55744SOL    HW284843   7.668   1.991  12.539 -3.8655  1.0493 -0.3435
55745SOL     OW84844   5.621   3.047   7.140  0.2684  0.6745 -0.2353
55745SOL    HW184845   5.622   3.002   7.056 -1.2801 -1.4411  0.7806
55745SOL    HW284846   5.545   3.012   7.186 -0.8557  4.1129  0.8810
55746SOL     OW84847   0.456  11.619   0.019 -0.0457 -0.3257 -0.1911
55746SOL    HW184848   0.440  11.710  -0.005  2.2422  0.3173  0.4138
55746SOL    HW284849   0.486  11.624   0.110 -2.4353 -2.0136  0.7863
55747SOL     OW84850   3.565   3.619  12.990 -0.0791 -0.2752 -0.0343
55747SOL    HW184851   3.635   3.626  13.055 -0.3199 -1.6599  0.4019
55747SOL    HW284852   3.506   3.552  13.025 -1.4972  0.6633 -0.5248
55748SOL     OW84853  10.013  13.713   7.147 -0.2520 -0.0386  0.1978
55748SOL    HW184854  10.021  13.628   7.105 -1.0815  0.4195 -0.9691
55748SOL    HW284855   9.918  13.726   7.156 -0.1452  0.8444  0.1420
55749SOL     OW84856   9.211   5.612   5.271  0.4345 -0.1230  0.2627
55749SOL    HW184857   9.187   5.602   5.179  0.0318  1.0826  0.2173
55749SOL    HW284858   9.284   5.675   5.269  3.2192 -3.0588  0.4529
55750SOL     OW84859  13.194   7.281   6.149  0.3560 -0.0090 -0.3735
55750SOL    HW184860  13.121   7.340   6.168  0.3317 -0.0306 -0.4006
55750SOL    HW284861  13.259   7.303   6.215  0.8150  0.8480 -1.0987
55751SOL     OW84862   8.393   2.258  10.571  0.5615  0.2039  0.6149
55751SOL    HW184863   8.384   2.348  10.540 -0.2374 -0.2054 -0.4159
55751SOL    HW284864   8.305   2.234  10.599  0.0235 -1.2153 -1.9692
55752SOL     OW84865   3.060   8.181   7.305  0.1025  0.5219 -0.0114
55752SOL    HW184866   3.017   8.098   7.323  0.4801  0.5410  1.0553
55752SOL    HW284867   3.055   8.229   7.388 -0.6821  1.8304 -0.7821
55753SOL     OW84868  12.355  11.959   1.450  0.5642  0.1087  0.0803
55753SOL    HW184869  12.283  12.022   1.443 -0.8214 -1.5153 -1.5472
55753SOL    HW284870  12.314  11.882   1.490  2.0135 -0.0760  1.2787
55754SOL     OW84871   2.624   6.998  11.504 -0.1117 -0.4001  0.2170
55754SOL    HW184872   2.668   7.033  11.427 -1.2668  1.2006  0.2401
55754SOL    HW284873   2.638   6.903  11.499  1.8258 -0.1123 -0.6715
55755SOL     OW84874   8.938   1.071  13.364  0.2586 -0.1342  0.1584
55755SOL    HW184875   8.922   1.052  13.456 -0.8056  0.4633  0.1127
55755SOL    HW284876   9.033   1.080  13.358  0.3710 -0.5116  1.1238
55756SOL     OW84877   0.125   9.410   9.170  0.3476 -0.2251 -0.2613
55756SOL    HW184878   0.077   9.490   9.194  0.5335  0.3367 -1.6661
55756SOL    HW284879   0.217   9.435   9.178  0.5089 -1.3708  2.6641
55757SOL     OW84880   4.874   3.922   5.875  0.5597  0.0794 -0.2964
55757SOL    HW184881   4.798   3.977   5.859  0.2135 -0.6943 -1.4282
55757SOL    HW284882   4.868   3.898   5.968  1.1098  2.4786  0.4169
55758SOL     OW84883   7.537   2.303   9.390  0.0002 -0.6233  0.1066
55758SOL    HW184884   7.576   2.255   9.464  0.2062 -0.0874  0.3514
55758SOL    HW284885   7.443   2.306   9.411  0.1759  0.3997  0.8789
55759SOL     OW84886   3.503   5.654  12.135 -0.2353  0.0229  0.3314
55759SOL    HW184887   3.516   5.740  12.095  0.8464 -0.5843 -0.7093
55759SOL    HW284888   3.506   5.592  12.061 -0.8583 -0.9245  1.0679
55760SOL     OW84889   3.672   7.486  11.648  0.0022 -0.4255 -0.1639
55760SOL    HW184890   3.656   7.511  11.557 -0.3722 -0.1327 -0.0213
55760SOL    HW284891   3.647   7.563  11.699  0.5057 -0.4809  0.1687
55761SOL     OW84892  12.885   5.564   8.428 -0.4169 -0.2737  0.4410
55761SOL    HW184893  12.939   5.497   8.470 -0.4192  0.2629  1.3216
55761SOL    HW284894  12.795   5.537   8.446 -0.4209 -0.2402  0.4691
55762SOL     OW84895  12.338   4.933   1.193 -0.4534  0.0162 -0.2319
55762SOL    HW184896  12.385   4.875   1.134 -0.4669  0.3943 -0.6207
55762SOL    HW284897  12.363   4.904   1.280 -2.9527 -2.6637 -0.2923
55763SOL     OW84898   4.382  10.534   2.798  0.0823 -0.2499  0.7756
55763SOL    HW184899   4.291  10.548   2.824 -0.1568 -1.2400  0.5077
55763SOL    HW284900   4.417  10.475   2.865  1.0463  1.5018  1.8611
55764SOL     OW84901   2.933   7.128  13.807 -0.0296 -1.2335  0.3979
55764SOL    HW184902   2.851   7.141  13.761 -0.4980 -1.4439  1.1491
55764SOL    HW284903   2.910   7.076  13.884  0.0566  1.9004  2.7732
55765SOL     OW84904  13.624   9.985   4.061 -0.1426 -0.0612  0.0477
55765SOL    HW184905  13.659  10.062   4.017 -1.7088  1.4053  1.2136
55765SOL    HW284906  13.569   9.943   3.996 -0.8536  0.9523 -0.0233
55766SOL     OW84907   4.530   3.311   0.618 -0.3973  0.0426  0.1041
55766SOL    HW184908   4.481   3.390   0.639 -2.2930 -1.2901  1.0593
55766SOL    HW284909   4.485   3.275   0.541  1.0701  0.3717 -0.9463
55767SOL     OW84910   8.468   8.183   3.721 -0.2695 -0.1109 -0.2490
55767SOL    HW184911   8.466   8.235   3.640 -4.1510  0.5470  0.1021
55767SOL    HW284912   8.417   8.105   3.702  1.1239 -1.3612  0.8230
55768SOL     OW84913   1.736  12.814  10.268  0.3942  0.6043 -0.0715
55768SOL    HW184914   1.829  12.833  10.256  1.0171 -0.8030  2.0178
55768SOL    HW284915   1.703  12.889  10.317 -0.3371  2.5073 -3.2033
55769SOL     OW84916   7.697  11.575   9.572  0.1146 -0.1996  0.0841
55769SOL    HW184917   7.610  11.614   9.558  0.7775  1.8043  1.1566
55769SOL    HW284918   7.752  11.617   9.506  0.7589  0.3930  0.9830
55770SOL     OW84919   9.400   3.382  13.499 -0.0639 -0.7569 -0.1085
55770SOL    HW184920   9.361   3.408  13.416  0.8351  1.8805  0.2106
55770SOL    HW284921   9.493   3.370  13.480  0.1364 -0.2115  0.4704
55771SOL     OW84922   2.872   6.284   9.842  0.0822 -0.5210 -0.0762
55771SOL    HW184923   2.799   6.288   9.781  0.2586  0.3439 -0.2448
55771SOL    HW284924   2.838   6.322   9.923  0.1396 -0.7667  0.0656
55772SOL     OW84925  13.835   0.347   4.941  0.9473 -0.2226 -0.0960
55772SOL    HW184926  13.910   0.406   4.935  0.2725  0.5776 -0.8398
55772SOL    HW284927  13.822   0.315   4.852 -0.0091  0.1805 -0.1135
55773SOL     OW84928  12.465   7.012   7.209 -0.6282  0.3839 -0.7316
55773SOL    HW184929  12.452   7.006   7.114 -0.2058 -1.0571 -0.7101
55773SOL    HW284930  12.548   7.058   7.219  0.6491 -1.7005 -1.1522
55774SOL     OW84931  13.822  13.694   0.177  0.4488  0.0095  0.0245
55774SOL    HW184932  13.808  13.759   0.246  0.3209 -1.9944  2.0166
55774SOL    HW284933  13.775  13.729   0.102 -0.0329  1.9699  1.1545
55775SOL     OW84934   7.421   3.189   9.309  0.0448  0.2506 -0.6028
55775SOL    HW184935   7.461   3.275   9.297 -0.3693  0.3506 -1.2918
55775SOL    HW284936   7.477   3.129   9.260 -1.5365  0.6309 -2.9875
55776SOL     OW84937   5.881  14.012   4.114 -0.1814 -0.1973 -0.1192
55776SOL    HW184938   5.840  13.926   4.127  0.6918 -0.4355  1.3282
55776SOL    HW284939   5.972  13.999   4.142 -0.1670  1.3269  0.6056
55777SOL     OW84940  10.776  13.485  10.118 -0.4211 -0.1358  0.4229
55777SOL    HW184941  10.771  13.414  10.182 -2.3302 -1.5700 -1.1636
55777SOL    HW284942  10.838  13.452  10.052 -1.7651 -0.7025 -0.6266
55778SOL     OW84943   9.274   2.074   6.122 -0.1377 -0.1714  0.3613
55778SOL    HW184944   9.292   2.098   6.031  0.7962 -0.4510  0.4619
55778SOL    HW284945   9.182   2.047   6.122 -0.4860  0.9417 -0.2563
55779SOL     OW84946   4.689  10.019   1.793  0.0577  0.6514 -0.2335
55779SOL    HW184947   4.627  10.057   1.855 -0.4822  1.4384 -1.2116
55779SOL    HW284948   4.681   9.924   1.805 -0.6555  0.7751  0.3020
55780SOL     OW84949   7.879   4.020   1.666 -1.0154  0.1266  0.3281
55780SOL    HW184950   7.841   4.061   1.743 -0.4459  0.1575  0.5973
55780SOL    HW284951   7.836   3.935   1.660 -1.6527  0.4551  0.2028
55781SOL     OW84952   3.219   4.783   6.317 -0.1075 -0.5599 -0.1396
55781SOL    HW184953   3.227   4.874   6.286  2.0898 -0.4180  0.6586
55781SOL    HW284954   3.168   4.790   6.398  0.5710  0.0629  0.2459
55782SOL     OW84955  10.722  12.525   2.618 -0.5973  0.2870  0.0661
55782SOL    HW184956  10.633  12.558   2.629 -0.6847  1.4003 -2.9958
55782SOL    HW284957  10.759  12.580   2.549  2.1696 -0.7736  0.5892
55783SOL     OW84958  12.121   3.541   1.123  0.2047 -0.0839  0.5514
55783SOL    HW184959  12.157   3.521   1.209 -1.6638 -1.6902  1.0044
55783SOL    HW284960  12.053   3.476   1.108  0.3837  0.2068 -2.1157
55784SOL     OW84961  14.019  12.613  14.010  0.4844  0.0876 -0.8536
55784SOL    HW184962  14.050  12.536  14.058 -1.0153 -1.3435 -2.0540
55784SOL    HW284963  13.944  12.644  14.061 -0.4180 -0.7621 -1.6148
55785SOL     OW84964   0.963   7.835   8.954 -0.1062  0.0459 -0.5082
55785SOL    HW184965   0.953   7.878   9.039  0.9671 -3.0493  1.3247
55785SOL    HW284966   1.055   7.850   8.931 -0.5386  1.4013 -1.5351
55786SOL     OW84967  11.674   5.496   2.729 -0.1786  0.3475  0.0512
55786SOL    HW184968  11.659   5.502   2.635  0.7251  0.6666 -0.0778
55786SOL    HW284969  11.736   5.424   2.739  3.1330  2.9469 -0.0296
55787SOL     OW84970   6.399   6.618  13.687 -0.5047  0.5603 -0.3318
55787SOL    HW184971   6.355   6.685  13.635 -0.1591  1.3201  0.3412
55787SOL    HW284972   6.467   6.583  13.629 -1.6073 -0.2310 -1.1849
55788SOL     OW84973   1.679  10.414   0.263 -0.0024 -0.0608  0.6274
55788SOL    HW184974   1.609  10.467   0.301 -0.1468 -0.4951  0.9760
55788SOL    HW284975   1.662  10.415   0.169  1.0827  2.0752  0.3953
55789SOL     OW84976   3.978   5.445   4.114  0.2122  0.4891 -0.4017
55789SOL    HW184977   3.939   5.360   4.135  1.4347 -0.6700 -2.5322
55789SOL    HW284978   4.069   5.438   4.143  0.4397  0.9191 -0.9993
55790SOL     OW84979   3.808   3.723  12.497 -0.3074 -0.4172 -0.0021
55790SOL    HW184980   3.879   3.757  12.443  0.1653 -1.0928  0.1863
55790SOL    HW284981   3.752   3.675  12.435 -0.5320  0.0027 -0.1282
55791SOL     OW84982  11.229  11.805   3.781 -0.0571  0.1972 -0.2349
55791SOL    HW184983  11.288  11.786   3.708 -0.6650 -1.1388 -0.4048
55791SOL    HW284984  11.198  11.719   3.809 -0.0280  0.6993  1.4411
55792SOL     OW84985   4.261   6.862   4.609 -0.8562  0.2156 -0.3052
55792SOL    HW184986   4.341   6.853   4.557 -0.3637  2.5223 -0.0859
55792SOL    HW284987   4.230   6.773   4.622  0.0510 -0.5778 -2.9036
55793SOL     OW84988   9.227   7.073   1.058 -0.2795  0.1770 -0.0306
55793SOL    HW184989   9.224   6.984   1.095 -0.4918 -0.1997 -0.9293
55793SOL    HW284990   9.239   7.130   1.134  0.9896 -0.7024  0.4642
55794SOL     OW84991   0.931   4.948   3.594 -0.0918  0.0809 -0.5411
55794SOL    HW184992   0.930   5.040   3.569 -0.5062  0.3247  0.3183
55794SOL    HW284993   0.858   4.940   3.655  0.4484 -0.6357  0.0231
55795SOL     OW84994   4.963   4.781  10.829 -0.0656  0.4620  0.2040
55795SOL    HW184995   4.952   4.829  10.911 -2.0251 -1.1641  0.9703
55795SOL    HW284996   4.897   4.711  10.832 -0.7988  0.8313 -3.1390
55796SOL     OW84997   3.829   8.334   0.033 -0.2628 -0.3854  0.0201
55796SOL    HW184998   3.773   8.338   0.111 -1.2578 -1.2373 -0.6149
55796SOL    HW284999   3.883   8.256   0.047 -0.0424 -0.2181  0.1078
55797SOL     OW85000   0.832  10.045   1.152  0.2723  0.7038 -0.3386
55797SOL    HW185001   0.796   9.957   1.165  2.0169 -0.2065 -1.2568
55797SOL    HW285002   0.871  10.067   1.237  0.1038  0.4625 -0.1968
55798SOL     OW85003  10.833  10.404  13.760  0.1896  0.2549  0.4761
55798SOL    HW185004  10.758  10.368  13.807 -0.1594  1.2546  0.7045
55798SOL    HW285005  10.797  10.434  13.677  0.1586  1.4553  0.9011
55799SOL     OW85006   4.097   0.704   7.617  0.2293 -0.0790 -0.6780
55799SOL    HW185007   4.144   0.776   7.575  1.9775  0.1031  1.4029
55799SOL    HW285008   4.007   0.712   7.586  0.2601  3.2677 -0.2114
55800SOL     OW85009   6.193   8.544   1.682 -0.1753 -0.7357 -0.2600
55800SOL    HW185010   6.150   8.617   1.725 -0.5213 -1.5055  0.7485
55800SOL    HW285011   6.188   8.564   1.589 -0.6941  0.2763 -0.0268
55801SOL     OW85012   8.545  12.212   9.546  0.0581  0.3238 -1.1825
55801SOL    HW185013   8.508  12.126   9.526 -1.7207  0.8875 -0.4855
55801SOL    HW285014   8.625  12.192   9.596  0.0915 -0.9147 -1.6778
55802SOL     OW85015  11.383  11.903   4.005 -0.5990  0.0659 -0.0579
55802SOL    HW185016  11.459  11.920   3.949 -2.1429  0.2287 -2.2123
55802SOL    HW285017  11.318  11.865   3.946 -2.7077  1.2215  1.4224
55803SOL     OW85018   1.532   6.314   8.373 -0.6857  0.2508 -0.4952
55803SOL    HW185019   1.563   6.241   8.427 -2.1572 -0.2730 -0.3281
55803SOL    HW285020   1.608   6.372   8.366  0.0766 -0.5752  0.5788
55804SOL     OW85021   9.918   5.228  13.542  0.5103 -0.3068  0.0183
55804SOL    HW185022   9.951   5.187  13.621 -1.9910 -0.1118  1.2654
55804SOL    HW285023   9.881   5.311  13.571  1.4829  0.8087 -1.7406
55805SOL     OW85024   3.442   9.957  12.233 -0.5176 -0.1174  0.5717
55805SOL    HW185025   3.401   9.889  12.179  2.0241  0.9238 -2.9639
55805SOL    HW285026   3.395  10.037  12.211 -0.6757  0.0300  1.4066
55806SOL     OW85027  13.815   4.469   4.862 -0.4142  0.2801  0.5729
55806SOL    HW185028  13.861   4.418   4.795 -0.1702  0.0530  0.9153
55806SOL    HW285029  13.788   4.548   4.816 -1.5358 -0.5153 -0.1852
55807SOL     OW85030   0.888   3.556  10.934 -0.1747  0.0436 -0.5465
55807SOL    HW185031   0.845   3.639  10.911  0.5757  0.6556  0.1970
55807SOL    HW285032   0.855   3.536  11.022  0.2648 -0.0090 -0.3891
55808SOL     OW85033   5.379   4.189   3.048  0.1687  0.1899  0.5538
55808SOL    HW185034   5.347   4.276   3.074  0.8535 -0.0773  2.4080
55808SOL    HW285035   5.352   4.181   2.956  0.6745  2.6443  0.1006
55809SOL     OW85036   5.441   3.080   9.794 -0.5354 -0.1100  0.6862
55809SOL    HW185037   5.400   3.159   9.758 -1.9197 -0.1569  2.0517
55809SOL    HW285038   5.379   3.050   9.861 -0.9188 -3.3123 -0.9131
55810SOL     OW85039   4.176  10.648   8.734 -0.1576  0.0871  0.1054
55810SOL    HW185040   4.138  10.591   8.800 -0.5076  0.2276  0.0272
55810SOL    HW285041   4.210  10.723   8.783  0.4895 -0.2776  0.2315
55811SOL     OW85042  10.103  11.236   4.513 -0.1239  0.4789 -0.2711
55811SOL    HW185043  10.111  11.207   4.422  0.9254 -0.0405 -0.0182
55811SOL    HW285044  10.008  11.233   4.530 -0.2567 -0.3120 -1.0591
55812SOL     OW85045   6.637   2.571   6.010  0.2020  0.5030  0.1225
55812SOL    HW185046   6.589   2.646   6.046  1.5831  0.8905  1.2905
55812SOL    HW285047   6.723   2.607   5.987  0.6445 -0.5838  0.0174
55813SOL     OW85048   3.966   2.683   1.408 -0.1354  0.6571  0.2003
55813SOL    HW185049   3.984   2.650   1.320  1.2572  2.4004 -0.2197
55813SOL    HW285050   4.003   2.616   1.467 -0.7744 -0.3528 -0.5063
55814SOL     OW85051   3.319   0.504   5.322 -0.0352  0.1876 -0.1344
55814SOL    HW185052   3.389   0.566   5.344 -1.1118  1.7067 -0.8123
55814SOL    HW285053   3.273   0.488   5.404 -0.8226  1.6951 -0.2587
55815SOL     OW85054   0.322  13.020   1.365 -0.2459 -0.0225 -0.1901
55815SOL    HW185055   0.311  12.966   1.443  1.4331 -0.2625 -0.0828
55815SOL    HW285056   0.380  13.091   1.392 -0.0715  0.1846 -1.0830
55816SOL     OW85057   1.021  13.671  11.403  0.4824 -0.2352 -0.0108
55816SOL    HW185058   0.988  13.605  11.342  1.9210 -1.0957  0.1078
55816SOL    HW285059   1.057  13.621  11.476 -1.4374  0.7706  1.7426
55817SOL     OW85060   1.848  13.003  13.083 -0.2856 -0.9950 -0.5215
55817SOL    HW185061   1.876  12.994  12.991 -0.2448  1.5754 -0.8236
55817SOL    HW285062   1.927  12.987  13.134  0.8874  1.9965 -1.1993
55818SOL     OW85063   3.734   4.048   9.760 -0.0652 -0.1095 -0.2033
55818SOL    HW185064   3.647   4.055   9.721 -0.5696  0.1412  0.9020
55818SOL    HW285065   3.762   3.958   9.742 -0.1482  0.0947 -1.3686
55819SOL     OW85066  14.037   6.377   1.562 -0.0118  0.1246 -0.0021
55819SOL    HW185067  13.956   6.335   1.588 -0.0641 -0.1766 -0.6215
55819SOL    HW285068  14.072   6.416   1.642 -0.4600 -0.2613  0.3809
55820SOL     OW85069   6.760   9.620   2.576 -0.2642 -0.3246 -0.6226
55820SOL    HW185070   6.822   9.681   2.617  1.1721 -1.4268 -1.0483
55820SOL    HW285071   6.696   9.677   2.532 -1.0534  0.8700  1.8876
55821SOL     OW85072   0.058  12.557   9.211  0.2753 -0.0086 -0.1471
55821SOL    HW185073   0.026  12.472   9.180 -2.3345  0.0359  2.0504
55821SOL    HW285074   0.151  12.544   9.226  0.3225 -1.8660 -1.7022
55822SOL     OW85075   3.137   3.239   9.833  0.1638 -0.2894  0.7136
55822SOL    HW185076   3.107   3.322   9.794  2.3223  0.5122  0.6325
55822SOL    HW285077   3.160   3.184   9.758 -1.4379 -1.0755  0.7628
55823SOL     OW85078   9.328   2.709   7.764  0.2928  0.4592 -0.0106
55823SOL    HW185079   9.323   2.628   7.814  1.1641 -0.3126 -1.1072
55823SOL    HW285080   9.291   2.776   7.822 -2.1066 -0.9896  0.2617
55824SOL     OW85081  13.587   3.479   3.633 -0.2940 -0.1760 -0.3887
55824SOL    HW185082  13.624   3.394   3.657 -2.7436 -0.3869  3.4357
55824SOL    HW285083  13.498   3.460   3.604 -1.6082  1.0716  2.4419
55825SOL     OW85084   5.585   6.230   2.197  0.1030  0.6592 -0.2207
55825SOL    HW185085   5.675   6.213   2.223  0.2353  1.1559 -0.3476
55825SOL    HW285086   5.541   6.259   2.277  0.0880  0.5632 -0.1930
55826SOL     OW85087  13.141   8.643   4.234 -0.1178  0.2195  0.1481
55826SOL    HW185088  13.145   8.651   4.138  1.6952  0.0122  0.1727
55826SOL    HW285089  13.232   8.631   4.261 -0.6510 -0.2287  1.8716
55827SOL     OW85090   5.614   0.935   8.287 -0.0820  0.1257  0.0238
55827SOL    HW185091   5.655   0.911   8.205  0.9445 -2.1484  1.1260
55827SOL    HW285092   5.661   1.013   8.316  1.1131 -0.4157 -0.4284
55828SOL     OW85093  14.007  10.672   7.759  0.2901  0.4199  0.4000
55828SOL    HW185094  13.939  10.685   7.693  0.8371  1.5903  0.0363
55828SOL    HW285095  13.971  10.712   7.838  0.5344  1.0225  0.2125
55829SOL     OW85096   2.548   7.181   1.249 -0.4412  0.7671  0.4409
55829SOL    HW185097   2.485   7.195   1.178 -0.3751  0.7798  0.3853
55829SOL    HW285098   2.520   7.099   1.290  0.1085  0.2420 -0.2256
55830SOL     OW85099  11.716   1.567  12.980 -0.3941 -0.7525  0.0732
55830SOL    HW185100  11.809   1.581  12.997 -0.5620  0.3996  0.0882
55830SOL    HW285101  11.680   1.654  12.966 -1.3334 -1.2348 -0.6894
55831SOL     OW85102  11.925   5.215   9.803 -0.0020  0.0008 -0.5199
55831SOL    HW185103  11.843   5.199   9.756 -0.1047 -0.9055 -0.0567
55831SOL    HW285104  11.982   5.143   9.775  0.1748 -0.1379  0.1990
55832SOL     OW85105  13.495  10.479   2.777  0.0795  0.1965 -0.7598
55832SOL    HW185106  13.496  10.567   2.813 -0.7740 -0.6173  1.4232
55832SOL    HW285107  13.565  10.433   2.823 -2.4106 -1.4620  1.7042
55833SOL     OW85108  11.001   9.872   5.657  0.1247  0.3104  0.6745
55833SOL    HW185109  11.082   9.821   5.647 -1.1103 -1.5072 -0.7915
55833SOL    HW285110  10.932   9.806   5.661 -1.3592  1.8345  1.3721
55834SOL     OW85111  12.439   4.722   7.884 -0.6667 -0.1313  0.0209
55834SOL    HW185112  12.344   4.712   7.877 -0.3757 -3.2040 -1.0473
55834SOL    HW285113  12.466   4.761   7.801 -0.8932 -0.1404 -0.0560
55835SOL     OW85114   4.875   8.156   4.955  0.8146  0.3252 -0.7063
55835SOL    HW185115   4.836   8.226   5.007 -0.1837 -0.1936 -0.7267
55835SOL    HW285116   4.949   8.125   5.007  0.2052  0.2297  0.1245
55836SOL     OW85117   8.685  14.066  13.333 -0.7969  0.1844 -0.1286
55836SOL    HW185118   8.759  14.042  13.278 -0.7319  0.0716  0.0084
55836SOL    HW285119   8.611  14.017  13.296 -0.9082  0.6771 -0.5681
55837SOL     OW85120  12.735   2.293   5.330 -0.0596  0.3176  0.6533
55837SOL    HW185121  12.751   2.200   5.313 -0.1674  0.3591  0.3035
55837SOL    HW285122  12.641   2.297   5.349 -0.4147  0.5824 -1.0397
55838SOL     OW85123  13.567  13.538   5.694  0.2290  0.0601 -0.6840
55838SOL    HW185124  13.590  13.538   5.786  0.1844  0.3049 -0.6729
55838SOL    HW285125  13.471  13.537   5.693  0.2309 -0.8604 -0.7304
55839SOL     OW85126   9.902   7.259   2.038 -0.8709 -0.4297  0.0670
55839SOL    HW185127   9.871   7.206   1.964 -1.8239  0.9837 -0.5985
55839SOL    HW285128   9.873   7.212   2.116 -0.2444 -1.7146 -0.4521
55840SOL     OW85129   5.552  12.411   6.504 -0.0265  0.4319  0.7353
55840SOL    HW185130   5.621  12.467   6.467 -1.8003  2.5851  0.4516
55840SOL    HW285131   5.495  12.392   6.429  0.9984 -2.6437  0.6232
55841SOL     OW85132  11.561   1.795   6.836 -0.0695  0.1061  0.1725
55841SOL    HW185133  11.607   1.847   6.770  0.4320 -0.8032 -0.2176
55841SOL    HW285134  11.535   1.858   6.903 -0.4880  1.0266 -0.8417
55842SOL     OW85135  12.164  14.084   0.019 -0.8604  0.2245  0.4351
55842SOL    HW185136  12.181  14.032  -0.060 -0.3704  1.5622 -0.3808
55842SOL    HW285137  12.248  14.090   0.063 -1.1871 -0.7242  1.2024
55843SOL     OW85138   2.910   8.088   3.201  0.1185 -0.0847 -0.9927
55843SOL    HW185139   2.886   8.174   3.235 -1.4266 -0.4895 -1.0171
55843SOL    HW285140   2.907   8.097   3.106  0.5573 -0.0171 -1.0046
55844SOL     OW85141   7.073   5.124  11.454  0.0854 -0.1201 -0.5430
55844SOL    HW185142   6.996   5.071  11.472 -0.6856  1.1662  0.0485
55844SOL    HW285143   7.046   5.181  11.381  0.3487  0.5763 -0.1034
55845SOL     OW85144   8.504  11.724   9.858  0.6833  0.2673 -0.0914
55845SOL    HW185145   8.416  11.708   9.891  1.1572 -1.5392  0.4078
55845SOL    HW285146   8.561  11.683   9.923  1.8843  0.9516 -0.6780
55846SOL     OW85147  11.896   7.845  12.994  0.4690 -0.0758 -0.0324
55846SOL    HW185148  11.820   7.904  12.998  0.9888  0.9134 -2.5890
55846SOL    HW285149  11.906   7.825  12.901  1.1706 -3.1762  0.6040
55847SOL     OW85150   2.286   9.884  12.074 -0.7224  0.6423  0.0585
55847SOL    HW185151   2.279   9.826  11.998 -0.6616 -0.5297  0.9112
55847SOL    HW285152   2.347   9.952  12.046 -0.8576  0.3462 -1.0138
55848SOL     OW85153   1.097   9.222   2.049 -0.0070  0.5865  0.3823
55848SOL    HW185154   1.165   9.264   2.101  0.1508  0.0940  0.5829
55848SOL    HW285155   1.044   9.175   2.113  0.2166 -0.0627  0.0982
55849SOL     OW85156  10.519   6.758   3.128 -0.8954 -0.0203 -0.3620
55849SOL    HW185157  10.516   6.712   3.044  0.2138 -0.1392 -0.3533
55849SOL    HW285158  10.445   6.723   3.178 -1.3726 -0.1805 -1.1677
55850SOL     OW85159   9.978   0.057   0.240 -0.2017 -0.4036 -0.7862
55850SOL    HW185160   9.973  -0.037   0.259 -1.2959 -0.2574 -0.2616
55850SOL    HW285161   9.897   0.093   0.276  0.0445  0.6957 -1.2870
55851SOL     OW85162  12.099  12.115   6.505 -0.4152 -0.3892  0.4180
55851SOL    HW185163  12.135  12.028   6.486 -1.4240 -0.7585  0.1281
55851SOL    HW285164  12.118  12.128   6.598 -2.8089 -2.2244  1.2622
55852SOL     OW85165  10.153   7.220   7.736  0.5908 -0.1525  0.0071
55852SOL    HW185166  10.094   7.151   7.767  2.1303 -0.6044  2.2035
55852SOL    HW285167  10.223   7.172   7.690  0.8469  0.0763  0.1547
55853SOL     OW85168   6.181   2.446   5.443 -0.2940 -0.2007 -0.0752
55853SOL    HW185169   6.101   2.394   5.435  0.4800 -1.3433 -0.5526
55853SOL    HW285170   6.174   2.487   5.529 -0.7878 -1.3263  0.4430
55854SOL     OW85171   0.774   1.997   9.750  0.2741  0.1516 -0.2662
55854SOL    HW185172   0.839   1.941   9.708  0.6566  0.5193 -0.1683
55854SOL    HW285173   0.698   1.941   9.761  0.6987 -0.3838 -0.0523
55855SOL     OW85174  10.909   5.817   5.163 -0.4437 -0.2621 -0.3088
55855SOL    HW185175  10.950   5.775   5.088  0.5050 -1.2068  0.6950
55855SOL    HW285176  10.832   5.763   5.182 -0.3514 -0.3748 -0.2522
55856SOL     OW85177   2.932  10.244   8.550 -0.1984  0.0568 -0.1495
55856SOL    HW185178   2.926  10.230   8.644 -3.1015 -1.8823 -0.4702
55856SOL    HW285179   2.989  10.174   8.518 -0.5348 -0.3066  0.0359
55857SOL     OW85180   3.464   7.776   3.718  0.3316 -0.2380  0.1062
55857SOL    HW185181   3.494   7.741   3.634  0.7353 -0.3367  0.2889
55857SOL    HW285182   3.527   7.743   3.781 -0.6307 -1.1239  0.6291
55858SOL     OW85183  10.067   3.948   4.259 -0.3894 -0.5849  0.0818
55858SOL    HW185184  10.073   3.854   4.242  0.5382 -0.3920 -0.7393
55858SOL    HW285185  10.158   3.978   4.259 -0.6405  0.2379  0.8359
55859SOL     OW85186  11.753  11.093   8.805 -0.7147 -0.1995 -0.6264
55859SOL    HW185187  11.811  11.130   8.738  0.6191  0.2932  0.7359
55859SOL    HW285188  11.674  11.147   8.801  0.0405  0.9520 -0.6500
55860SOL     OW85189   0.999   2.975  12.405  0.5488 -0.4683  0.4417
55860SOL    HW185190   1.016   2.889  12.368 -1.8522 -0.2856 -1.2967
55860SOL    HW285191   0.998   3.034  12.330 -0.1520  0.6855  1.3139
55861SOL     OW85192   1.162   8.949   4.506 -0.1107 -0.0381  0.2419
55861SOL    HW185193   1.125   9.017   4.561 -0.0506  0.2423 -0.0626
55861SOL    HW285194   1.087   8.893   4.483 -0.1245 -0.1902  0.6535
55862SOL     OW85195   2.640   5.413   7.220  0.2937 -0.3199 -0.8448
55862SOL    HW185196   2.585   5.476   7.174  1.1651  0.9217 -0.2199
55862SOL    HW285197   2.604   5.327   7.194 -1.5990  0.4185 -0.8512
55863SOL     OW85198   8.668  11.063  13.016 -0.3421 -0.4007  0.1549
55863SOL    HW185199   8.680  11.126  13.088 -0.7763  0.4626 -0.5078
55863SOL    HW285200   8.617  10.992  13.055 -0.1443 -0.1776  0.8335
55864SOL     OW85201  12.717   5.014   1.288  0.5149  0.5027 -0.2218
55864SOL    HW185202  12.686   5.038   1.375 -0.7461  0.4610 -0.6257
55864SOL    HW285203  12.775   4.939   1.303  0.2241  0.4253  0.5772
55865SOL     OW85204  13.180  12.643  13.315  0.0545  0.7107  0.0155
55865SOL    HW185205  13.103  12.592  13.291 -0.6611  0.9236  1.6506
55865SOL    HW285206  13.147  12.733  13.321  0.1126  0.6646  1.7507
55866SOL     OW85207  11.129   9.735   4.321  0.4656 -0.3825  0.3859
55866SOL    HW185208  11.125   9.648   4.282 -1.1914  0.1347 -0.7418
55866SOL    HW285209  11.148   9.720   4.414  1.5403 -1.8348 -0.0380
55867SOL     OW85210  10.424  11.159   4.187 -0.6712  0.1431  0.7443
55867SOL    HW185211  10.461  11.235   4.232 -1.3729  1.1820 -0.3923
55867SOL    HW285212  10.329  11.167   4.199 -0.7796 -0.3171  0.2362
55868SOL     OW85213   3.720  10.612   9.686  0.6397 -0.2867 -0.0672
55868SOL    HW185214   3.758  10.571   9.764 -2.2295  1.2534  2.3871
55868SOL    HW285215   3.793  10.657   9.644  2.0747  0.1890  2.7187
55869SOL     OW85216  10.106  13.354   7.399  0.1889  0.6803 -0.4696
55869SOL    HW185217  10.198  13.373   7.381  0.1969  1.9732  0.7504
55869SOL    HW285218  10.076  13.427   7.454 -1.5747  0.2940 -0.8345
55870SOL     OW85219  12.036   8.730   9.040 -0.0807  0.4243  0.3939
55870SOL    HW185220  12.131   8.742   9.035 -0.1909  1.9293  1.3917
55870SOL    HW285221  12.007   8.734   8.949  0.7407  0.5142  0.1257
55871SOL     OW85222   8.833   0.279  12.922 -0.5303 -0.4678 -0.3139
55871SOL    HW185223   8.771   0.206  12.923 -2.6192  1.2293  0.5145
55871SOL    HW285224   8.873   0.277  13.009 -1.1538 -0.1798 -0.0168
55872SOL     OW85225   3.261   7.588  11.791  1.0305  0.2524  0.3092
55872SOL    HW185226   3.168   7.568  11.799 -0.1924  4.2407 -1.5289
55872SOL    HW285227   3.285   7.626  11.876  1.0771 -0.8000  0.7904
55873SOL     OW85228   8.145   6.157  11.799 -0.4899  0.1153  0.8981
55873SOL    HW185229   8.112   6.233  11.846 -0.3848  2.3501 -2.2851
55873SOL    HW285230   8.067   6.106  11.777 -0.6470 -0.2985  2.3223
55874SOL     OW85231   9.096   3.307   6.160  0.4324  0.6126 -0.3733
55874SOL    HW185232   9.035   3.284   6.230  0.5980  0.4475 -0.2822
55874SOL    HW285233   9.115   3.224   6.115  1.3936  0.4774  0.2515
55875SOL     OW85234   9.852   4.507  10.293 -0.5282  0.2209 -0.3261
55875SOL    HW185235   9.920   4.458  10.339  0.5140 -0.4496 -2.4842
55875SOL    HW285236   9.782   4.517  10.358  0.2636 -1.9106  0.9403
55876SOL     OW85237   3.805  11.278   5.197 -0.2261 -1.0161  0.1709
55876SOL    HW185238   3.779  11.309   5.283 -0.6619  2.0619 -0.9544
55876SOL    HW285239   3.892  11.315   5.184  0.2779 -2.3262 -0.3282
55877SOL     OW85240   9.351   4.963   5.657 -0.7507 -0.5185  0.5020
55877SOL    HW185241   9.335   5.056   5.674  0.0974 -0.5597  1.6226
55877SOL    HW285242   9.278   4.936   5.602 -0.8622  0.8758 -0.0673
55878SOL     OW85243   1.374   8.871  11.409 -0.2868  0.4355 -0.3399
55878SOL    HW185244   1.444   8.808  11.391  0.2436  0.6169  0.9783
55878SOL    HW285245   1.362   8.918  11.326 -0.5054 -1.1760 -1.2815
55879SOL     OW85246  10.572  11.367   6.772 -0.3212 -0.6611 -0.1378
55879SOL    HW185247  10.615  11.443   6.812 -0.3999  0.0879 -1.4411
55879SOL    HW285248  10.610  11.292   6.818  1.8999  0.0120 -0.7385
55880SOL     OW85249   2.145   9.162  13.490 -0.1985  0.2922 -0.2364
55880SOL    HW185250   2.140   9.209  13.407 -0.8046  0.1405 -0.2932
55880SOL    HW285251   2.140   9.070  13.466  0.1382  0.2292 -0.0676
55881SOL     OW85252   7.345   3.541  13.697 -0.0965  0.3757 -0.6944
55881SOL    HW185253   7.279   3.609  13.704  0.0546  0.4157  0.6077
55881SOL    HW285254   7.414   3.580  13.642  0.2432  1.5003  0.4825
55882SOL     OW85255   4.889   1.786  10.679 -0.5655 -0.0036  0.7789
55882SOL    HW185256   4.950   1.832  10.737  0.3478  0.4591 -0.4865
55882SOL    HW285257   4.836   1.732  10.737 -0.5677  1.4116  2.1646
55883SOL     OW85258   3.056   2.943   9.699 -0.1448 -0.2247  0.0147
55883SOL    HW185259   3.015   2.922   9.615 -1.4569 -0.2808  0.6419
55883SOL    HW285260   3.118   3.012   9.678 -0.0209 -0.6442 -1.0978
55884SOL     OW85261  11.992   4.207  13.642 -0.4981 -0.1050 -0.6371
55884SOL    HW185262  11.932   4.133  13.644  1.2791 -1.6980 -2.3094
55884SOL    HW285263  12.023   4.215  13.732 -2.2286 -0.0588 -0.0223
55885SOL     OW85264   6.415   5.117   3.236  0.0140 -0.2721 -0.1947
55885SOL    HW185265   6.490   5.162   3.277 -0.0627  0.4743 -0.8447
55885SOL    HW285266   6.419   5.028   3.271  1.4199 -0.3509 -0.4882
55886SOL     OW85267   4.638  10.583   9.943 -0.1852  0.1753 -0.2862
55886SOL    HW185268   4.641  10.644  10.017 -1.5515 -0.0255 -0.0378
55886SOL    HW285269   4.729  10.572   9.918  0.1117  2.2159 -0.2551
55887SOL     OW85270   5.594  10.822   8.577 -0.7549  0.3205  0.1810
55887SOL    HW185271   5.519  10.809   8.519  0.1395  0.5489 -1.0739
55887SOL    HW285272   5.632  10.905   8.548  0.1244  0.0874  0.6371
55888SOL     OW85273   3.731   0.586   2.432 -0.9349 -0.3264 -0.4591
55888SOL    HW185274   3.727   0.676   2.466 -1.1138 -1.3519  2.4642
55888SOL    HW285275   3.772   0.536   2.502  0.3343 -2.3745 -2.5213
55889SOL     OW85276   1.694   6.581   3.097  0.0366  0.0354  0.6538
55889SOL    HW185277   1.694   6.674   3.074 -0.7330 -0.1179 -0.0163
55889SOL    HW285278   1.689   6.580   3.193 -0.7445  0.6951  0.6302
55890SOL     OW85279   6.833   5.083   0.877  0.1120  0.2277  0.4665
55890SOL    HW185280   6.866   5.067   0.965  0.5325  2.4083  0.7606
55890SOL    HW285281   6.742   5.109   0.890  0.0093  0.0139  0.1955
55891SOL     OW85282   9.220   0.825  11.994 -0.4777  0.1296  0.3280
55891SOL    HW185283   9.186   0.912  12.016  1.5350  0.8071  1.0015
55891SOL    HW285284   9.226   0.826  11.899  2.0511  1.8760  0.3763
55892SOL     OW85285   2.737   9.027  10.007  0.1290  0.1003  0.1609
55892SOL    HW185286   2.718   8.952   9.951 -1.7172  0.0555  0.7547
55892SOL    HW285287   2.815   9.002  10.057 -0.2082 -1.2610  0.0416
55893SOL     OW85288   4.691   2.014   3.911 -0.1547 -0.0467  0.6268
55893SOL    HW185289   4.688   2.009   3.815  1.8317  1.5755  0.4047
55893SOL    HW285290   4.632   1.944   3.941 -0.7158 -0.6863 -1.7513
55894SOL     OW85291   9.226   8.335   3.302 -0.4014  0.1701 -0.6399
55894SOL    HW185292   9.294   8.339   3.235 -1.6582 -0.3011 -2.0050
55894SOL    HW285293   9.154   8.388   3.265 -0.8895  0.4073  0.6144
55895SOL     OW85294  12.497  11.455   9.014 -0.3492 -0.1208  0.0427
55895SOL    HW185295  12.489  11.546   9.041  0.7239 -0.0174  0.0127
55895SOL    HW285296  12.577  11.423   9.055 -0.6716 -1.0378  0.0013
55896SOL     OW85297  11.992  13.437   1.543 -0.1713  0.2402  0.3547
55896SOL    HW185298  11.938  13.359   1.538 -2.3523  1.6110  1.1119
55896SOL    HW285299  12.004  13.464   1.452 -1.0119  0.0513  0.1824
55897SOL     OW85300   3.268   0.831   5.333 -0.2383  0.1626 -0.3109
55897SOL    HW185301   3.192   0.779   5.361 -0.5212  0.3926 -0.6342
55897SOL    HW285302   3.344   0.783   5.366 -0.5603  1.8179  3.3435
55898SOL     OW85303   4.881  12.382  12.154  0.3070 -0.2500  0.4817
55898SOL    HW185304   4.789  12.400  12.173  0.5302  0.6061  0.7866
55898SOL    HW285305   4.880  12.342  12.066 -0.1359  2.4407 -0.8348
55899SOL     OW85306   3.191   3.385   5.633  0.0892 -0.0026  0.1002
55899SOL    HW185307   3.160   3.417   5.717 -0.3357  0.9924 -0.4149
55899SOL    HW285308   3.134   3.310   5.613  1.0753 -1.1052  1.3078
55900SOL     OW85309   3.452  10.905  10.614 -0.2444  0.1277  0.2516
55900SOL    HW185310   3.515  10.839  10.641 -1.6261 -2.1148 -1.6670
55900SOL    HW285311   3.378  10.894  10.674  0.1436  1.0990  0.9449
55901SOL     OW85312   0.547   3.001   7.583 -0.3908  0.2745  0.5204
55901SOL    HW185313   0.474   2.955   7.543 -0.2341  0.8554 -0.4642
55901SOL    HW285314   0.589   3.049   7.511  1.4376 -0.6448  0.8971
55902SOL     OW85315   8.369   5.030   2.054  0.8950  0.5824  0.2254
55902SOL    HW185316   8.311   5.003   2.126  1.0163 -0.5336 -0.0688
55902SOL    HW285317   8.429   4.956   2.044  1.2245  0.9689 -0.6560
55903SOL     OW85318   2.964   8.614  13.165 -0.4087  1.0371 -0.0152
55903SOL    HW185319   2.878   8.638  13.131 -0.0311  0.7508 -1.2307
55903SOL    HW285320   2.951   8.606  13.259 -1.9508  0.0522 -0.2616
55904SOL     OW85321   6.527   3.566   2.561 -0.3713 -0.1364 -0.0321
55904SOL    HW185322   6.611   3.610   2.573 -0.0786 -0.5107 -0.6308
55904SOL    HW285323   6.528   3.536   2.469 -0.9151 -0.6377  0.1132
55905SOL     OW85324  13.446   4.019   9.769  0.1032 -0.2288  0.5640
55905SOL    HW185325  13.501   4.019   9.691  0.7829 -1.6582  0.9967
55905SOL    HW285326  13.477   4.093   9.822  0.0284  0.3860 -0.2422
55906SOL     OW85327   1.413   9.792   8.341 -0.1922 -0.0686  0.3230
55906SOL    HW185328   1.491   9.842   8.319 -1.0866  0.7288 -1.1979
55906SOL    HW285329   1.391   9.819   8.430  2.0478 -1.4010  1.3583
55907SOL     OW85330   2.193  11.985   9.153  0.6049 -0.1140 -0.2069
55907SOL    HW185331   2.226  11.984   9.243  0.5341  2.4654 -0.0684
55907SOL    HW285332   2.138  12.063   9.149  0.4596 -0.2739 -2.4434
55908SOL     OW85333   3.500   5.091   3.661  0.1303 -0.3858  0.3392
55908SOL    HW185334   3.568   5.061   3.601 -1.2669  0.9577 -2.0176
55908SOL    HW285335   3.541   5.163   3.709  0.9061 -0.7328  0.2207
55909SOL     OW85336   1.836  13.134   9.403  0.2753 -0.2074 -0.1017
55909SOL    HW185337   1.816  13.139   9.496 -1.3301 -1.5360 -0.3218
55909SOL    HW285338   1.889  13.055   9.394 -0.8895 -0.9886 -0.4602
55910SOL     OW85339   6.711  10.264  13.933 -0.0622 -0.2521 -0.6734
55910SOL    HW185340   6.730  10.171  13.932  0.6095 -0.1127 -1.2375
55910SOL    HW285341   6.796  10.307  13.927 -0.4563  0.3812 -2.1288
55911SOL     OW85342  13.550   2.656   0.807 -0.0360 -0.2884 -0.3595
55911SOL    HW185343  13.483   2.710   0.849  0.5698  0.7753 -0.7073
55911SOL    HW285344  13.604   2.624   0.879  1.4875  2.1974 -0.2935
55912SOL     OW85345   2.501   2.368  12.491  0.0831 -0.4009 -0.3438
55912SOL    HW185346   2.415   2.333  12.467  0.4456 -0.7276 -1.1816
55912SOL    HW285347   2.502   2.457  12.455  0.5031 -0.7784 -1.2997
55913SOL     OW85348   6.910   3.847   7.862 -0.0651 -0.0618 -0.6185
55913SOL    HW185349   6.826   3.887   7.884  0.4389  1.2176 -0.9270
55913SOL    HW285350   6.932   3.883   7.776  1.9240  1.5589  0.4898
55914SOL     OW85351  10.400   2.036   4.812 -0.1446 -0.2763 -0.2692
55914SOL    HW185352  10.455   2.035   4.890  1.3030 -0.3464 -1.2416
55914SOL    HW285353  10.434   2.109   4.760 -1.8906  0.5561 -0.2980
55915SOL     OW85354   4.856  11.710   1.359 -0.1344  0.1275 -0.1087
55915SOL    HW185355   4.766  11.721   1.388 -0.9508  0.4189 -2.5845
55915SOL    HW285356   4.851  11.699   1.264  2.0952 -3.7281 -0.0155
55916SOL     OW85357   7.236   3.263  11.075 -0.6302 -0.1464 -0.6978
55916SOL    HW185358   7.206   3.349  11.104  0.5581  0.7702 -2.0239
55916SOL    HW285359   7.201   3.202  11.139 -1.8429  1.2812  0.0515
55917SOL     OW85360   7.250  13.308  13.707  0.0831 -0.3886 -0.2581
55917SOL    HW185361   7.208  13.334  13.790  0.4262 -0.8931  0.0796
55917SOL    HW285362   7.200  13.232  13.679 -0.2244 -0.0371 -0.6783
55918SOL     OW85363   0.315   6.146   7.461  0.1463  0.4159 -0.0827
55918SOL    HW185364   0.348   6.057   7.473 -2.1643 -0.3465  1.3522
55918SOL    HW285365   0.288   6.150   7.369  0.2843 -0.3683 -0.1645
55919SOL     OW85366   4.376   4.828  11.391  0.4968  0.8442 -0.2385
55919SOL    HW185367   4.383   4.816  11.486 -0.8961  1.1494 -0.0747
55919SOL    HW285368   4.454   4.879  11.367  0.0362  2.1858  1.0046
55920SOL     OW85369   1.891   9.025   1.520 -0.3870  0.1067  0.5088
55920SOL    HW185370   1.853   8.938   1.517  2.5595 -1.3384  0.9097
55920SOL    HW285371   1.908   9.042   1.613  1.5711 -0.1825  0.2523
55921SOL     OW85372   1.376  10.785   6.131 -0.4603 -0.2333  0.4086
55921SOL    HW185373   1.419  10.729   6.196 -1.9323 -0.4174  1.2728
55921SOL    HW285374   1.388  10.874   6.163 -2.1581 -0.3888  1.6073
55922SOL     OW85375   3.823  13.571   7.384 -0.5873  0.4351 -0.2006
55922SOL    HW185376   3.860  13.483   7.387 -0.2601  0.5394 -0.9859
55922SOL    HW285377   3.894  13.626   7.351 -1.0916  0.8281 -0.6450
55923SOL     OW85378  10.145  14.078   3.144 -0.1937  0.3027  0.5923
55923SOL    HW185379  10.115  14.163   3.111 -0.9988  0.8959  2.7424
55923SOL    HW285380  10.079  14.016   3.114 -0.1466  0.5852 -0.1180
55924SOL     OW85381   9.080   3.439   5.854 -0.1715  0.0640 -0.6112
55924SOL    HW185382   8.999   3.393   5.834 -0.2703  0.6276 -1.6129
55924SOL    HW285383   9.096   3.422   5.947 -1.1421 -0.4968 -0.5358
55925SOL     OW85384   2.119   5.862  10.355 -0.1356  0.5973  0.5017
55925SOL    HW185385   2.144   5.770  10.362 -1.7269 -0.0634 -1.4414
55925SOL    HW285386   2.095   5.887  10.444 -0.8407 -1.2582  0.8851
55926SOL     OW85387   0.841   4.495   7.677  0.1639  0.0506  0.0322
55926SOL    HW185388   0.866   4.562   7.741  0.1069 -1.5806  1.8400
55926SOL    HW285389   0.923   4.468   7.637  0.0806  1.9273 -1.5369
55927SOL     OW85390  13.324   7.472   1.711  0.7128 -0.1483 -0.5342
55927SOL    HW185391  13.388   7.443   1.776  1.9194 -0.7055 -1.9228
55927SOL    HW285392  13.335   7.412   1.637 -2.6356 -1.3721 -0.2040
55928SOL     OW85393   0.222   8.015   5.075  0.1015  0.8054 -0.8588
55928SOL    HW185394   0.250   7.979   5.159 -2.0796 -1.0596 -0.8520
55928SOL    HW285395   0.205   8.108   5.093  1.0167  0.7512  0.3828
55929SOL     OW85396   5.423   8.901   5.001  0.0431  0.1366  0.4749
55929SOL    HW185397   5.392   8.987   5.031 -0.3614 -0.2690  1.2217
55929SOL    HW285398   5.515   8.916   4.979 -0.4918  1.2368 -1.3034
55930SOL     OW85399  13.054  11.997   3.194 -0.2062  0.4083 -0.0308
55930SOL    HW185400  13.113  11.940   3.145  0.8472 -0.5728  2.2521
55930SOL    HW285401  12.966  11.970   3.167  0.3236  0.1722 -1.6120
55931SOL     OW85402   3.130  12.189   9.595 -0.2750  0.9743  0.1502
55931SOL    HW185403   3.091  12.275   9.575  0.3257  0.6450 -2.9498
55931SOL    HW285404   3.196  12.177   9.528  1.5324 -0.8215  2.1167
55932SOL     OW85405   7.930   9.103   8.084 -0.3087  0.0894  0.7020
55932SOL    HW185406   7.942   9.197   8.081  0.9697 -0.0764 -0.5168
55932SOL    HW285407   7.922   9.077   7.992  1.9916 -1.2583  0.8039
55933SOL     OW85408   5.316  11.638   7.623  0.0765 -0.0227 -0.7218
55933SOL    HW185409   5.386  11.692   7.587  1.8234 -0.1900  2.0493
55933SOL    HW285410   5.354  11.550   7.626  0.5927  0.1836  2.4441
55934SOL     OW85411   2.656   9.967   1.684  0.3271 -0.4191 -0.9346
55934SOL    HW185412   2.602   9.895   1.652 -0.5217 -0.1041 -0.2571
55934SOL    HW285413   2.718   9.926   1.745 -0.7800 -0.4633  0.1878
55935SOL     OW85414   2.614  10.904   2.868  0.0724 -0.2597  0.0471
55935SOL    HW185415   2.647  10.993   2.861  1.6465 -0.7863  0.4129
55935SOL    HW285416   2.682  10.850   2.828  0.2267 -1.4867  1.8429
55936SOL     OW85417  13.218   2.147   6.303  0.0576  0.3936 -0.1081
55936SOL    HW185418  13.193   2.077   6.242 -0.6843  0.6543 -0.1238
55936SOL    HW285419  13.241   2.220   6.247  1.7036 -0.0857 -0.1151
55937SOL     OW85420   0.030   7.908   2.530  0.1167 -0.0303 -0.5693
55937SOL    HW185421  -0.051   7.888   2.481  0.0844 -0.3169 -0.3980
55937SOL    HW285422   0.012   7.878   2.619  0.7286 -0.9022 -0.7253
55938SOL     OW85423   9.810   2.770   6.437  0.5406 -0.3302 -0.2581
55938SOL    HW185424   9.824   2.857   6.398  0.2749 -0.4147 -0.5462
55938SOL    HW285425   9.898   2.740   6.459  0.8908 -0.9695 -2.3154
55939SOL     OW85426  11.882   2.771   6.872 -0.2421 -0.2027 -0.3873
55939SOL    HW185427  11.814   2.781   6.938 -0.4671 -0.1483 -0.6255
55939SOL    HW285428  11.947   2.839   6.894  0.9354 -1.7696  1.2779
55940SOL     OW85429   3.489  12.555  12.833  0.2939  0.1637  0.2243
55940SOL    HW185430   3.488  12.628  12.895 -1.7970 -1.5723  2.4016
55940SOL    HW285431   3.577  12.517  12.842  0.9799  1.5934 -0.0485
55941SOL     OW85432   7.143   1.044  12.531  0.2767 -0.0294  0.2263
55941SOL    HW185433   7.057   1.001  12.527  0.2139 -0.0666  1.6733
55941SOL    HW285434   7.205   0.974  12.511  0.0673 -0.3991  0.8326
55942SOL     OW85435  12.127   5.871  10.850  0.1728  0.1781 -0.0200
55942SOL    HW185436  12.045   5.888  10.896 -0.1502  1.0636 -0.8789
55942SOL    HW285437  12.182   5.825  10.914 -0.3879  1.0372  1.1057
55943SOL     OW85438  10.106  13.454   1.601 -0.5077 -0.1011 -0.8097
55943SOL    HW185439  10.094  13.521   1.668  0.1687  0.3364 -1.1067
55943SOL    HW285440  10.130  13.375   1.649  1.1936  0.5129 -0.5845
55944SOL     OW85441   1.904  11.484   3.749  0.0127  0.1111 -0.2496
55944SOL    HW185442   1.994  11.497   3.718  0.4247 -1.7823  0.0516
55944SOL    HW285443   1.910  11.491   3.845  0.2291 -1.8585 -0.0804
55945SOL     OW85444  10.736  10.455   6.473 -0.1489  0.1230  0.4528
55945SOL    HW185445  10.758  10.376   6.424  0.2947 -0.4872  1.5885
55945SOL    HW285446  10.817  10.506   6.475 -0.3119  0.3980  0.1016
55946SOL     OW85447   0.395   7.794   8.715  0.0453 -0.0397 -0.3497
55946SOL    HW185448   0.318   7.835   8.676 -1.1329 -0.7164  1.1404
55946SOL    HW285449   0.378   7.796   8.809  1.8725 -0.2016  0.0222
55947SOL     OW85450   4.193   3.393  10.995  0.3172  0.2504 -0.0964
55947SOL    HW185451   4.120   3.419  10.940 -0.2566 -0.0346  0.5134
55947SOL    HW285452   4.172   3.428  11.082 -0.4967 -2.1714  0.7661
55948SOL     OW85453   4.938   6.030  10.288 -0.3704  0.0404  0.2125
55948SOL    HW185454   4.966   5.965  10.353 -2.2928  0.2099  1.2766
55948SOL    HW285455   4.937   5.982  10.205 -0.4897 -0.9442  0.7656
55949SOL     OW85456  12.983  12.087   2.301  0.3219  0.3014  0.0363
55949SOL    HW185457  13.012  12.086   2.392 -0.4428 -0.6312  0.2911
55949SOL    HW285458  13.019  12.006   2.264  1.7453  1.2984 -0.8845
55950SOL     OW85459   5.029   4.612   7.846 -0.2547 -0.0846 -0.4888
55950SOL    HW185460   4.971   4.668   7.794 -0.3127  0.3109 -0.0017
55950SOL    HW285461   4.996   4.524   7.832  1.5193 -0.4277 -3.5700
55951SOL     OW85462  13.974   8.596  13.742 -0.0249 -0.0991  0.3444
55951SOL    HW185463  14.018   8.527  13.793 -1.4741 -1.0697  0.3262
55951SOL    HW285464  13.913   8.636  13.804 -0.2087  0.2159 -0.0353
55952SOL     OW85465   5.302  13.360   5.243 -0.0910  0.1286  0.1310
55952SOL    HW185466   5.258  13.441   5.269  1.5057  1.2973 -0.6745
55952SOL    HW285467   5.337  13.325   5.325 -0.4285  0.4594  0.4233
55953SOL     OW85468   5.591   8.251   0.995  0.1258 -0.2600 -0.1487
55953SOL    HW185469   5.519   8.257   0.932  0.5913 -0.0221 -0.6652
55953SOL    HW285470   5.551   8.213   1.073 -0.7649  0.6916 -0.1111
55954SOL     OW85471   5.443  13.798   1.323  0.3354 -0.1104 -0.0785
55954SOL    HW185472   5.525  13.830   1.286  0.3131  0.7680  0.6064
55954SOL    HW285473   5.455  13.703   1.330  1.9646  0.1585  1.5629
55955SOL     OW85474   7.032  13.200   4.710 -0.4912  0.0621  0.2714
55955SOL    HW185475   7.120  13.233   4.693 -0.0587 -1.0269  0.3337
55955SOL    HW285476   6.983  13.277   4.740  0.4367  0.6742  0.2467
55956SOL     OW85477   1.149  10.683  12.321 -0.6457  0.3332  0.2065
55956SOL    HW185478   1.169  10.611  12.381  0.0944  0.1329 -0.2624
55956SOL    HW285479   1.136  10.759  12.379  1.0083  0.3627  0.6059
55957SOL     OW85480   8.439   7.485   6.706  1.0415 -0.1718  0.0280
55957SOL    HW185481   8.359   7.522   6.744  0.6197 -0.7535 -0.2779
55957SOL    HW285482   8.495   7.467   6.781  1.0490  0.6184  0.2168
55958SOL     OW85483   2.856  11.705   7.477  0.0016  0.3728  0.2848
55958SOL    HW185484   2.822  11.752   7.400 -0.0918  0.9130  0.6495
55958SOL    HW285485   2.837  11.613   7.459 -1.1925  0.6075  0.2450
55959SOL     OW85486   8.462   1.852   1.895 -0.1245 -0.0443 -0.0215
55959SOL    HW185487   8.436   1.778   1.951 -1.5591 -0.1231 -0.7506
55959SOL    HW285488   8.445   1.821   1.806 -1.5977  1.4511 -0.3037
55960SOL     OW85489   3.531   2.810   4.512 -0.3755 -0.4395 -0.0318
55960SOL    HW185490   3.473   2.885   4.508  0.1175  0.0320  1.2206
55960SOL    HW285491   3.556   2.794   4.420 -2.5149 -0.7397 -0.6134
55961SOL     OW85492   0.353   6.095  12.507 -0.1605  0.0639  0.3847
55961SOL    HW185493   0.310   6.012  12.486 -0.5766  0.2010  0.6777
55961SOL    HW285494   0.446   6.075  12.505 -0.2639 -0.4617  0.6579
55962SOL     OW85495   6.684  13.890   0.867 -0.2934  0.0098 -0.3774
55962SOL    HW185496   6.595  13.884   0.900  0.1373  1.7629  1.2939
55962SOL    HW285497   6.687  13.974   0.820  0.3968 -0.1578 -0.6523
55963SOL     OW85498   5.674   4.300   6.388 -0.2129  0.5600 -0.4400
55963SOL    HW185499   5.718   4.380   6.359 -0.3362  0.5939 -0.5373
55963SOL    HW285500   5.643   4.260   6.307 -3.0255  2.0661 -0.2233
55964SOL     OW85501  12.352   7.605   8.946  0.3136  0.9787 -0.3754
55964SOL    HW185502  12.416   7.546   8.985 -0.6393  0.5749  0.5805
55964SOL    HW285503  12.377   7.692   8.978  1.9847  1.2255 -2.1305
55965SOL     OW85504   9.714  13.762   5.964 -0.0015  0.1450 -0.0003
55965SOL    HW185505   9.646  13.811   5.918 -0.0690  0.7510  0.7279
55965SOL    HW285506   9.685  13.670   5.959 -0.1371  0.2297 -0.9215
55966SOL     OW85507   6.096  11.794   4.450 -0.0351  0.2022 -0.2248
55966SOL    HW185508   6.122  11.704   4.470  0.3974  0.5147  0.7461
55966SOL    HW285509   6.149  11.847   4.511  1.7811  1.3127 -2.6077
55967SOL     OW85510   5.069   8.880  12.975 -0.2364 -0.4919  0.1378
55967SOL    HW185511   5.073   8.787  12.952 -1.0216 -0.0416 -2.2059
55967SOL    HW285512   5.135   8.892  13.042 -1.4492 -3.1001  1.9630
55968SOL     OW85513   1.423   8.302   0.762 -0.3407  0.4009  0.1602
55968SOL    HW185514   1.341   8.322   0.716 -0.8550 -1.5730  0.0873
55968SOL    HW285515   1.453   8.386   0.796 -2.7548  1.1203  0.7580
55969SOL     OW85516   8.210  12.601   4.597  0.0777 -0.0876  0.8308
55969SOL    HW185517   8.204  12.513   4.559  0.2104 -0.3181  1.3250
55969SOL    HW285518   8.262  12.651   4.534 -0.8353 -0.0789  0.0623
55970SOL     OW85519   8.886  13.634   6.042 -0.4535  0.0514  0.0781
55970SOL    HW185520   8.792  13.643   6.028 -0.8739 -1.3038  1.7537
55970SOL    HW285521   8.894  13.573   6.115  1.7518 -0.6718 -0.6794
55971SOL     OW85522   1.864  11.400   2.717 -0.7714  0.4426 -0.4031
55971SOL    HW185523   1.777  11.423   2.683 -1.3002 -0.9940 -0.0962
55971SOL    HW285524   1.922  11.466   2.680 -1.7807  0.6590 -1.6965
55972SOL     OW85525   9.553   0.109   8.278 -0.8636  0.3075  0.0669
55972SOL    HW185526   9.639   0.076   8.254 -1.2335  0.3694 -1.4075
55972SOL    HW285527   9.549   0.197   8.241 -0.2183  1.7837  3.2242
55973SOL     OW85528   2.932   5.451   1.661  0.2065  0.3906 -0.1464
55973SOL    HW185529   2.945   5.546   1.649  0.8122  0.3683  0.2869
55973SOL    HW285530   2.962   5.413   1.579  0.1014  0.5633 -0.2666
55974SOL     OW85531   1.634  10.554   5.398 -0.2464 -0.2780 -0.1883
55974SOL    HW185532   1.602  10.467   5.422 -0.6057  0.2345  1.3028
55974SOL    HW285533   1.728  10.550   5.414  0.2573 -1.2328 -2.8703
55975SOL     OW85534   3.251   8.895   0.712 -0.5766  0.4367  0.5523
55975SOL    HW185535   3.319   8.837   0.744 -1.7111  0.2821  2.9063
55975SOL    HW285536   3.173   8.870   0.761 -1.4253  3.0984  0.7378
55976SOL     OW85537   8.391   3.564   0.649  0.3670  0.4773  0.1691
55976SOL    HW185538   8.431   3.491   0.696  1.3550  0.0735 -1.2054
55976SOL    HW285539   8.454   3.636   0.657 -0.0755  0.8253  0.5725
55977SOL     OW85540   0.687   5.308  10.800  0.1623  0.0421 -0.2913
55977SOL    HW185541   0.765   5.259  10.827 -1.0621 -1.4927  0.6101
55977SOL    HW285542   0.715   5.358  10.723  2.2812  0.2814  0.5570
55978SOL     OW85543   4.029   9.759  13.338  0.3850 -0.1989 -0.7975
55978SOL    HW185544   4.108   9.711  13.362 -0.0618 -1.2999 -1.4943
55978SOL    HW285545   3.957   9.705  13.369 -0.1404 -0.3256 -2.1695
55979SOL     OW85546   1.249  12.220   8.765  0.0513  0.4369 -0.2681
55979SOL    HW185547   1.154  12.230   8.760 -0.0574 -0.2667  0.2178
55979SOL    HW285548   1.262  12.140   8.815  0.9118  0.9583  0.3776
55980SOL     OW85549   4.204  10.147   5.675 -0.2798  0.4962  0.4277
55980SOL    HW185550   4.155  10.226   5.698 -0.7195  0.6704 -0.9765
55980SOL    HW285551   4.165  10.118   5.592  1.8679  0.5640 -0.6924
55981SOL     OW85552  10.027  14.047   7.213  0.1996  0.3857 -0.3088
55981SOL    HW185553   9.977  14.029   7.134  0.7535 -0.3916 -0.4946
55981SOL    HW285554  10.086  14.119   7.189 -0.2287  0.7343 -0.3354
55982SOL     OW85555   4.282  11.521   4.199  0.6144 -0.2321 -0.3275
55982SOL    HW185556   4.320  11.565   4.123  2.5017 -2.6552 -0.9351
55982SOL    HW285557   4.282  11.428   4.175  0.5889 -1.0027  2.3468
55983SOL     OW85558   4.619   3.130  12.519  0.1844  0.0547 -0.4080
55983SOL    HW185559   4.593   3.038  12.532 -1.4500  0.7115  1.4385
55983SOL    HW285560   4.536   3.177  12.510  0.8589  1.6842  1.2667
55984SOL     OW85561   1.929   2.047   1.587 -0.3747  0.0512  0.1981
55984SOL    HW185562   1.859   2.001   1.634 -0.0560 -0.0645  0.5600
55984SOL    HW285563   1.998   2.060   1.652  0.6714 -1.3867 -0.5747
55985SOL     OW85564  12.302  13.749   9.254  0.6368  0.1802  0.0992
55985SOL    HW185565  12.394  13.756   9.230  0.6422 -0.2172 -0.0068
55985SOL    HW285566  12.255  13.789   9.180  0.7188  0.2950  0.1084
55986SOL     OW85567  12.256   1.974   9.679 -0.0487  0.6681 -0.3641
55986SOL    HW185568  12.305   1.960   9.760 -0.9454  0.3516  0.1434
55986SOL    HW285569  12.198   1.898   9.673  0.0749  0.6426 -1.3552
55987SOL     OW85570  12.935   7.229  12.169  0.4827 -0.1327 -0.1368
55987SOL    HW185571  12.988   7.230  12.089  1.7895 -1.3074  0.6671
55987SOL    HW285572  12.940   7.318  12.203  1.0926  0.0250 -0.6154
55988SOL     OW85573   8.153   5.286  12.310  0.8163 -0.0404 -0.3032
55988SOL    HW185574   8.224   5.222  12.303  0.4450 -0.4462 -0.3513
55988SOL    HW285575   8.159   5.336  12.228  3.3677  2.3785  1.1684
55989SOL     OW85576   0.880   0.000   8.508  0.2488  1.0029  0.3545
55989SOL    HW185577   0.953  -0.061   8.498  0.3105  1.3842 -2.0529
55989SOL    HW285578   0.802  -0.052   8.490  0.0486  0.9939  1.2046
55990SOL     OW85579   1.936  12.922  13.692 -0.0195 -0.0832  0.0707
55990SOL    HW185580   1.969  12.923  13.603 -0.4058  1.4646 -0.0699
55990SOL    HW285581   1.961  13.006  13.729 -1.3513  0.0013  0.8626
55991SOL     OW85582   8.098  10.085   9.596  0.0973 -0.2634 -0.0907
55991SOL    HW185583   8.114  10.000   9.636 -1.3951 -0.0109  1.1499
55991SOL    HW285584   8.098  10.146   9.669 -1.1233  0.4605 -0.6568
55992SOL     OW85585   2.823   7.326   4.135 -0.1394  0.1466  0.4041
55992SOL    HW185586   2.839   7.301   4.226 -1.7742 -1.1244  0.3923
55992SOL    HW285587   2.728   7.323   4.126 -0.0908  1.5038 -1.0296
55993SOL     OW85588  13.172   3.127   7.643  0.3172 -0.1551 -0.3666
55993SOL    HW185589  13.110   3.126   7.716  0.7335  1.1928  0.0280
55993SOL    HW285590  13.258   3.137   7.685  0.7992 -1.6383 -0.9255
55994SOL     OW85591   5.588   5.761   5.460 -0.4690 -0.2107  0.4701
55994SOL    HW185592   5.519   5.798   5.515 -1.6009 -0.0493 -0.9884
55994SOL    HW285593   5.664   5.817   5.476 -0.6780 -0.3176  2.0186
55995SOL     OW85594   5.558   3.143   5.654  0.0640  0.3424  0.1119
55995SOL    HW185595   5.556   3.146   5.750 -0.1326 -0.2774  0.1301
55995SOL    HW285596   5.477   3.100   5.629 -1.0041  2.5320 -0.4441
55996SOL     OW85597   9.058  13.950   9.480 -0.1508  0.1553  0.4186
55996SOL    HW185598   9.016  14.036   9.489  0.4691  0.4408  0.6874
55996SOL    HW285599   9.103  13.954   9.396 -0.7676 -0.1992  0.0683
55997SOL     OW85600   8.132   8.262   4.155  0.1697  0.3596  0.4003
55997SOL    HW185601   8.092   8.346   4.132  1.1580  0.6476 -0.3660
55997SOL    HW285602   8.193   8.245   4.084  0.4143 -0.7296  0.8518
55998SOL     OW85603   0.248   9.661   8.749 -0.0935  0.1030 -0.6672
55998SOL    HW185604   0.254   9.585   8.807 -1.4189 -1.4392 -2.4238
55998SOL    HW285605   0.177   9.714   8.787  0.7802  0.4722  0.5196
55999SOL     OW85606  11.779   2.617   1.719 -0.9086 -0.3073 -0.3382
55999SOL    HW185607  11.710   2.610   1.785 -0.5643  0.5574  0.1327
55999SOL    HW285608  11.829   2.536   1.727 -0.5052  0.0398  0.8913
56000SOL     OW85609   1.068  13.004   6.456 -0.0063 -0.2065  0.1999
56000SOL    HW185610   1.031  12.958   6.380  0.2015 -0.2031  0.0958
56000SOL    HW285611   1.066  12.939   6.526  0.8512 -0.5695 -0.1077
56001SOL     OW85612   0.647   5.817  13.908 -0.5487  0.2636 -0.5485
56001SOL    HW185613   0.713   5.801  13.975  0.2055  1.5441 -0.9393
56001SOL    HW285614   0.563   5.810  13.954 -0.0980 -0.1243  0.2324
56002SOL     OW85615  10.635  10.024   7.843 -0.3863 -0.1685  0.0210
56002SOL    HW185616  10.676  10.079   7.911 -0.8487 -0.3485  0.4535
56002SOL    HW285617  10.542  10.041   7.852 -0.7063 -2.2596  1.2914
56003SOL     OW85618  13.101   1.932   3.055  0.3215 -0.4663 -0.2334
56003SOL    HW185619  13.148   1.987   2.993 -0.3443 -0.8231 -1.0737
56003SOL    HW285620  13.084   1.850   3.007  0.6830 -1.1403  0.7514
56004SOL     OW85621  13.043   1.897  10.421  0.1316 -0.1946 -0.1383
56004SOL    HW185622  12.994   1.821  10.453  0.0766 -0.3198 -0.5166
56004SOL    HW285623  12.980   1.969  10.423  0.0404 -0.2714 -0.2627
56005SOL     OW85624  10.054   5.735   4.706  0.1806  0.2629  0.0421
56005SOL    HW185625  10.025   5.792   4.778 -0.2405 -0.4961  0.4833
56005SOL    HW285626  10.077   5.652   4.749  0.1641 -0.1173 -0.6746
56006SOL     OW85627   5.123   5.050   0.448  0.3762 -0.6243 -0.1762
56006SOL    HW185628   5.190   5.105   0.405 -0.6086 -0.3922 -1.4665
56006SOL    HW285629   5.171   4.971   0.474  1.0871 -0.6599 -1.4692
56007SOL     OW85630   6.269   8.221   1.300 -0.1122  0.9616 -0.7541
56007SOL    HW185631   6.318   8.233   1.218 -0.7078  1.7710 -1.0123
56007SOL    HW285632   6.331   8.178   1.359  0.1885 -0.0368 -1.7623
56008SOL     OW85633   7.524   0.393   7.769 -1.0974  0.2207 -0.4628
56008SOL    HW185634   7.536   0.459   7.700 -1.0637  1.4051  0.6366
56008SOL    HW285635   7.595   0.331   7.755 -1.1430  0.3868 -1.5437
56009SOL     OW85636   4.444  10.343   3.012  0.5200 -0.7422  0.2711
56009SOL    HW185637   4.376  10.289   3.052  0.6887 -1.4391 -0.3499
56009SOL    HW285638   4.524  10.290   3.018  1.1715  0.3563  1.6130
56010SOL     OW85639   5.497   0.728   7.436  0.5204 -0.1588  0.1956
56010SOL    HW185640   5.419   0.685   7.401 -1.1576 -0.9706  4.3222
56010SOL    HW285641   5.473   0.821   7.440  1.7959  0.4491 -2.9658
56011SOL     OW85642  10.867  10.534   0.475  0.3831  0.0773  0.1519
56011SOL    HW185643  10.853  10.475   0.549 -1.6602  0.5093  0.1711
56011SOL    HW285644  10.836  10.484   0.399 -1.7535  1.1889  0.2185
56012SOL     OW85645  11.061  10.409   5.943  0.3006 -0.0267  0.1269
56012SOL    HW185646  11.090  10.387   5.855  0.8060  1.1163 -0.0003
56012SOL    HW285647  10.967  10.390   5.942 -0.0810  1.6691 -1.2450
56013SOL     OW85648   4.900   6.561   0.549 -0.1554 -0.4253  0.0235
56013SOL    HW185649   4.889   6.538   0.457 -1.5101 -1.8801  0.5028
56013SOL    HW285650   4.881   6.655   0.552  0.9391 -0.1263 -1.3063
56014SOL     OW85651   9.147   5.532   4.357  0.0455 -0.4281 -0.4062
56014SOL    HW185652   9.067   5.584   4.350 -0.0339 -0.1783  1.7829
56014SOL    HW285653   9.177   5.545   4.447  1.1217 -2.5800 -0.3725
56015SOL     OW85654  12.870   0.533  12.524 -0.4961 -0.4374  0.2586
56015SOL    HW185655  12.906   0.470  12.462 -0.0331  1.0496 -1.0388
56015SOL    HW285656  12.800   0.577  12.476  1.7405  2.8164 -0.4375
56016SOL     OW85657   7.901   0.658  13.287 -0.1452 -0.6485 -0.6094
56016SOL    HW185658   7.842   0.594  13.248 -0.6564 -0.3598 -0.3233
56016SOL    HW285659   7.882   0.739  13.240 -0.6379 -0.3403  0.1163
56017SOL     OW85660   1.435   7.947   7.730  0.3696 -0.0089  0.1157
56017SOL    HW185661   1.495   7.987   7.667  0.5386  0.8738  0.8165
56017SOL    HW285662   1.393   8.021   7.773  1.9982 -0.4639  2.7322
56018SOL     OW85663   9.273  13.109   0.136  0.0540 -0.2665 -0.1250
56018SOL    HW185664   9.367  13.123   0.148  0.1105 -1.4982  1.2304
56018SOL    HW285665   9.233  13.195   0.148  0.8773 -0.0395  1.1647
56019SOL     OW85666   8.145  11.130   3.706  0.0183 -0.1168  0.2691
56019SOL    HW185667   8.070  11.151   3.763  1.6714 -0.0920  2.5521
56019SOL    HW285668   8.220  11.168   3.750  1.6962 -1.8915 -0.8942
56020SOL     OW85669   9.141  11.633   6.332  0.1503  0.3493  0.0301
56020SOL    HW185670   9.120  11.663   6.243  2.4519 -1.1343 -1.1009
56020SOL    HW285671   9.235  11.651   6.342 -0.2310  1.3874  2.5921
56021SOL     OW85672   9.075   0.214   8.171  0.5851  0.1963 -0.2459
56021SOL    HW185673   9.037   0.131   8.142 -0.3429  0.0652  1.2246
56021SOL    HW285674   9.160   0.218   8.128  0.1172 -0.9167 -1.3256
56022SOL     OW85675   2.408   3.864   7.129 -0.2827  0.0593  0.0730
56022SOL    HW185676   2.378   3.929   7.193 -0.2648 -0.0307  0.1744
56022SOL    HW285677   2.333   3.850   7.072  0.4928  2.0997 -1.5715
56023SOL     OW85678  12.494   2.614   8.631 -0.2772  0.8603 -0.0114
56023SOL    HW185679  12.563   2.651   8.576 -1.1491  2.2201 -0.2240
56023SOL    HW285680  12.427   2.585   8.570 -0.2722  0.2997  0.2406
56024SOL     OW85681   6.828   6.077  11.026 -0.2097  0.0052 -0.1635
56024SOL    HW185682   6.737   6.061  10.999 -0.9355  0.9115  1.5572
56024SOL    HW285683   6.820   6.120  11.111  1.8626 -1.3630  0.8161
56025SOL     OW85684  11.086   1.318  13.238 -0.4569  0.3064 -0.2867
56025SOL    HW185685  11.073   1.265  13.317 -0.3643  1.6068  0.6245
56025SOL    HW285686  11.177   1.346  13.242  0.2530 -1.4638 -2.0720
56026SOL     OW85687   2.095   9.959   1.614  0.1429 -0.2123  0.1069
56026SOL    HW185688   2.035  10.007   1.557  0.1257  0.1718  0.4457
56026SOL    HW285689   2.176   9.951   1.564  0.1104  0.0778  0.0090
56027SOL     OW85690   8.224   5.700  10.574  0.0784  0.1696 -0.5238
56027SOL    HW185691   8.245   5.618  10.618 -0.5020 -0.4098 -1.3093
56027SOL    HW285692   8.212   5.763  10.645  0.8672 -0.3293  0.0761
56028SOL     OW85693  11.482   4.728   2.821  0.1891 -0.1254 -0.1906
56028SOL    HW185694  11.548   4.741   2.754  1.5466 -2.3670  0.5825
56028SOL    HW285695  11.436   4.648   2.794 -1.1273  0.4784  0.1532
56029SOL     OW85696   6.779   6.752   3.380 -0.2945 -0.5995  0.2678
56029SOL    HW185697   6.766   6.834   3.332  0.8851  0.4116  1.5960
56029SOL    HW285698   6.748   6.772   3.468 -0.2146 -1.6832  0.5487
56030SOL     OW85699   7.756   3.695   0.736  0.5096  0.5603  0.1032
56030SOL    HW185700   7.793   3.742   0.660  0.3568  1.3060  0.4817
56030SOL    HW285701   7.661   3.710   0.729  0.4980  0.6546  0.4519
56031SOL     OW85702   2.359   9.402   1.785  0.0508  0.5540  0.2008
56031SOL    HW185703   2.314   9.484   1.804 -0.6026  0.9120 -2.4537
56031SOL    HW285704   2.416   9.388   1.860 -1.7071  2.0602  1.9304
56032SOL     OW85705   8.036  12.727  10.192  0.1191  0.3217  0.2052
56032SOL    HW185706   8.089  12.782  10.249 -0.7330  1.1304  0.2367
56032SOL    HW285707   8.097  12.660  10.160  0.8585  0.4877  1.2072
56033SOL     OW85708   6.309  12.458   2.083 -0.2252  0.4337 -0.3042
56033SOL    HW185709   6.343  12.462   2.172 -2.2898  1.5826  0.5122
56033SOL    HW285710   6.293  12.366   2.066  2.1544 -0.0276 -0.3367
56034SOL     OW85711  12.236   6.965   0.987 -0.0530 -0.3428  0.8076
56034SOL    HW185712  12.153   6.938   1.027 -0.7577  2.7308  1.6967
56034SOL    HW285713  12.211   7.006   0.904  0.9062 -1.8012 -0.2499
56035SOL     OW85714   8.503   4.780   2.081  0.1057  0.8161  0.3799
56035SOL    HW185715   8.520   4.686   2.086 -1.7898  0.2471 -1.9935
56035SOL    HW285716   8.580   4.821   2.120  2.1339 -1.6672 -0.7571
56036SOL     OW85717   2.085   1.139   1.142 -0.0372 -0.6741 -0.3076
56036SOL    HW185718   2.024   1.074   1.175 -2.8457  0.7386 -2.3014
56036SOL    HW285719   2.034   1.191   1.079  2.9080  1.4113 -1.2251
56037SOL     OW85720   6.105   5.061   1.365  0.0677  0.0739  0.0812
56037SOL    HW185721   6.074   5.109   1.442 -1.2930  0.4179 -0.6484
56037SOL    HW285722   6.034   5.069   1.301 -0.9595 -4.2277  0.4007
56038SOL     OW85723  10.725   4.367  12.920  0.2460 -0.1211 -0.3021
56038SOL    HW185724  10.650   4.389  12.865 -0.3407 -0.1456  0.4597
56038SOL    HW285725  10.716   4.273  12.936 -0.5681  0.1648  1.1900
56039SOL     OW85726  13.248   1.333   6.790  0.2378  0.0465  0.8623
56039SOL    HW185727  13.156   1.322   6.813  0.7059  0.0313  2.9429
56039SOL    HW285728  13.292   1.347   6.874  2.2536 -0.7883  0.0017
56040SOL     OW85729   3.178  10.607   4.125  0.5945  1.0126  0.3385
56040SOL    HW185730   3.090  10.646   4.118  0.4323  0.5840 -0.0465
56040SOL    HW285731   3.224  10.639   4.047  0.0829 -0.5107 -0.6127
56041SOL     OW85732  11.859   3.178   1.622  0.0571 -0.2885 -0.3897
56041SOL    HW185733  11.812   3.147   1.544 -1.7862 -0.3235  0.6760
56041SOL    HW285734  11.916   3.247   1.589  2.4244 -2.9411 -2.4347
56042SOL     OW85735   0.331  10.974  11.554  0.2814  0.0532  0.6713
56042SOL    HW185736   0.266  11.020  11.502  2.3353  1.4291 -0.8204
56042SOL    HW285737   0.301  10.985  11.645 -1.6838  0.3564  0.0292
56043SOL     OW85738   8.544  10.410   1.898 -0.2916  0.4684  0.3198
56043SOL    HW185739   8.620  10.405   1.839  0.3263  2.6718  0.8136
56043SOL    HW285740   8.565  10.349   1.969  1.7447  1.9822  1.1358
56044SOL     OW85741   9.691   7.426   0.106 -0.0577 -0.1181  0.4800
56044SOL    HW185742   9.768   7.407   0.052  0.2299 -0.2911  0.9442
56044SOL    HW285743   9.679   7.521   0.098 -1.1325 -0.3633 -1.3589
56045SOL     OW85744   9.465   1.592   1.018  0.0841 -0.0676 -0.0445
56045SOL    HW185745   9.472   1.525   0.950  1.4447  0.5032 -0.5082
56045SOL    HW285746   9.415   1.663   0.978 -1.2110 -0.7125  0.3901
56046SOL     OW85747  13.713   1.070   4.378  0.3858 -0.5917 -0.4580
56046SOL    HW185748  13.801   1.033   4.388 -0.2188 -2.4755 -1.6257
56046SOL    HW285749  13.675   1.066   4.466  0.9943 -1.0293 -0.2087
56047SOL     OW85750   1.452   9.189   5.946  0.5572 -0.2779 -0.0619
56047SOL    HW185751   1.458   9.095   5.928 -2.0768 -0.5276  0.0349
56047SOL    HW285752   1.418   9.195   6.035  0.4288  0.7611 -0.1675
56048SOL     OW85753  13.622   5.865   6.927 -0.2374 -0.2121  0.2439
56048SOL    HW185754  13.578   5.944   6.897 -0.0713 -0.5946 -1.0426
56048SOL    HW285755  13.623   5.807   6.851  2.3331 -0.2874  0.2454
56049SOL     OW85756  13.735   1.516   0.321  0.4048  0.1870 -0.1339
56049SOL    HW185757  13.716   1.567   0.400 -1.1289  0.9160 -0.9364
56049SOL    HW285758  13.831   1.514   0.316  0.5739 -0.8030  2.3119
56050SOL     OW85759   2.488  13.023  12.298 -0.3463 -0.2188 -0.3680
56050SOL    HW185760   2.443  13.107  12.298  0.2200  0.0926 -0.3458
56050SOL    HW285761   2.506  13.006  12.391 -3.3056 -1.9535  0.0220
56051SOL     OW85762   4.785   6.940  11.655 -0.0161 -0.3978 -0.2306
56051SOL    HW185763   4.695   6.913  11.669  0.4197 -1.7244  0.1683
56051SOL    HW285764   4.787   6.973  11.565 -0.9378 -0.1244 -0.1619
56052SOL     OW85765   6.532   9.137  10.411  0.1095  0.2801 -0.4049
56052SOL    HW185766   6.466   9.185  10.460  0.0241  0.3306 -0.5666
56052SOL    HW285767   6.557   9.195  10.339  1.1657  0.7208  0.2999
56053SOL     OW85768  13.152   3.376   2.761  0.1023  0.3929 -0.2511
56053SOL    HW185769  13.235   3.413   2.730  0.0250  0.8152  0.0421
56053SOL    HW285770  13.114   3.445   2.816 -0.1783 -0.0138  0.0688
56054SOL     OW85771   4.530   5.583  13.808  0.0691 -0.3091  0.0505
56054SOL    HW185772   4.517   5.674  13.782 -3.1957 -0.8091 -0.4821
56054SOL    HW285773   4.625   5.571  13.809  0.6034  1.8708 -4.2765
56055SOL     OW85774  13.120  10.271   8.061  0.1574 -0.2705  0.0564
56055SOL    HW185775  13.058  10.288   7.990  1.0754 -0.1818 -0.7387
56055SOL    HW285776  13.113  10.177   8.077 -1.8088  0.0550  1.5382
56056SOL     OW85777   5.073   7.139   2.843 -0.4287 -0.4386  0.3874
56056SOL    HW185778   5.108   7.227   2.853 -0.4862 -0.4794  0.9952
56056SOL    HW285779   5.007   7.147   2.774 -0.9905  0.1692  0.9680
56057SOL     OW85780  13.606   2.581  12.423  0.2927 -0.2729  0.7586
56057SOL    HW185781  13.696   2.596  12.453  0.3667 -1.1741  1.0133
56057SOL    HW285782  13.607   2.608  12.331  1.1612 -1.4455  0.4015
56058SOL     OW85783   0.872  10.910   7.177 -0.0549 -0.1118 -0.1430
56058SOL    HW185784   0.943  10.886   7.118 -0.7625  1.7867 -1.8964
56058SOL    HW285785   0.916  10.935   7.259  1.2454  0.3271 -0.9502
56059SOL     OW85786   2.117   6.412   9.852  0.7224  0.0045 -0.0992
56059SOL    HW185787   2.070   6.346   9.903 -1.2024  0.5943 -1.0255
56059SOL    HW285788   2.080   6.405   9.764 -0.3612  3.0056  0.0176
56060SOL     OW85789   2.252   3.940  13.382  0.6223 -0.5755  0.4039
56060SOL    HW185790   2.255   3.884  13.459  1.3575 -0.6323  0.3422
56060SOL    HW285791   2.341   3.976  13.375 -0.0266  1.2416  0.9116
56061SOL     OW85792   4.613   6.125   4.915 -0.2293 -0.1174 -0.2599
56061SOL    HW185793   4.604   6.217   4.938 -1.6237  0.3529 -2.4562
56061SOL    HW285794   4.530   6.085   4.942  0.5513 -0.8667  1.1239
56062SOL     OW85795  11.189   8.440   6.964  0.1143 -0.3562  0.0222
56062SOL    HW185796  11.176   8.535   6.963 -1.5545 -0.5751 -0.2543
56062SOL    HW285797  11.285   8.430   6.962  0.3155  1.3028 -0.2991
56063SOL     OW85798   2.677   9.880   0.697 -0.0028 -0.3461 -0.0430
56063SOL    HW185799   2.629   9.922   0.769  0.1749 -2.2725  1.2892
56063SOL    HW285800   2.768   9.910   0.709 -0.0155 -0.4778  0.4136
56064SOL     OW85801   3.479   2.423   8.251  0.5559  0.4308  0.8292
56064SOL    HW185802   3.565   2.442   8.212 -0.2684  0.9961 -0.7867
56064SOL    HW285803   3.429   2.503   8.241 -0.4012 -0.1102  1.1266
56065SOL     OW85804   6.103   6.811   2.572  0.2062  0.3751 -0.8459
56065SOL    HW185805   6.033   6.791   2.634  0.1768  0.3308 -0.8931
56065SOL    HW285806   6.058   6.835   2.491  0.2395 -1.2961 -1.4003
56066SOL     OW85807   1.345  12.788   7.693 -0.0832  0.1022  0.1334
56066SOL    HW185808   1.410  12.776   7.625 -1.4832  0.0734 -1.2642
56066SOL    HW285809   1.278  12.722   7.674 -0.1892 -0.3795  1.9683
56067SOL     OW85810   6.713  10.983   2.650 -0.2350  0.2650 -0.3198
56067SOL    HW185811   6.732  10.894   2.681 -0.2960  0.3732  0.0419
56067SOL    HW285812   6.626  10.978   2.613 -0.3996  0.2565  0.0615
56068SOL     OW85813   1.331  12.603  12.154 -0.5370  0.1280 -0.5761
56068SOL    HW185814   1.245  12.637  12.127 -0.8122  0.1077  0.2498
56068SOL    HW285815   1.320  12.580  12.246  0.3597  0.1237 -0.4607
56069SOL     OW85816   0.742  13.632   6.773 -0.5483 -0.2931  0.1634
56069SOL    HW185817   0.661  13.630   6.824  0.4394 -1.3876  1.7726
56069SOL    HW285818   0.761  13.540   6.755 -0.0472 -0.0004 -0.8493
56070SOL     OW85819  10.123   8.256   3.643  0.1147 -0.0151  0.2728
56070SOL    HW185820  10.185   8.262   3.571  0.0826  1.7756  0.3441
56070SOL    HW285821  10.081   8.342   3.646 -1.2270 -0.6577  1.2436
56071SOL     OW85822   7.532  10.149   9.006  0.5445  0.3873  0.2391
56071SOL    HW185823   7.473  10.073   8.999  0.2002  0.7542 -1.1048
56071SOL    HW285824   7.541  10.163   9.100  0.4471 -1.1984  0.5133
56072SOL     OW85825  13.445   1.144  10.930 -0.0714 -0.7715  0.0691
56072SOL    HW185826  13.420   1.106  10.845  1.2640 -0.6928 -0.3828
56072SOL    HW285827  13.541   1.147  10.927 -0.0622  0.6286  0.9804
56073SOL     OW85828   8.833  11.214  10.015 -0.3097  0.2508  0.2394
56073SOL    HW185829   8.891  11.149   9.978 -1.7273 -0.8772 -0.1012
56073SOL    HW285830   8.799  11.174  10.095 -1.3860  0.4401 -0.0928
56074SOL     OW85831  12.620  13.000  13.257  0.1279  0.2124 -0.0453
56074SOL    HW185832  12.639  13.040  13.172 -0.9771  2.5688  0.7343
56074SOL    HW285833  12.584  12.914  13.235 -0.2274  0.7996 -1.9795
56075SOL     OW85834   9.014  10.351  11.448 -0.2600 -0.0156  0.0413
56075SOL    HW185835   8.939  10.377  11.394 -1.0380 -0.5995  0.8079
56075SOL    HW285836   8.978  10.286  11.508  1.4295 -2.3579 -1.3198
56076SOL     OW85837   2.563  14.059   9.209  0.2963 -0.0496 -0.1268
56076SOL    HW185838   2.536  14.078   9.119  0.9492 -1.3358 -0.6218
56076SOL    HW285839   2.512  13.982   9.234  1.6313 -0.9952 -0.1858
56077SOL     OW85840  10.529   3.679   0.068 -0.0584 -0.1132 -0.5216
56077SOL    HW185841  10.582   3.676  -0.012  1.8074  1.6452  0.5540
56077SOL    HW285842  10.588   3.654   0.138 -1.7482 -1.9328  0.3670
56078SOL     OW85843  13.492   3.794  13.209 -0.2345  0.4123 -0.0507
56078SOL    HW185844  13.492   3.890  13.200 -1.3585  0.4576  0.1922
56078SOL    HW285845  13.543   3.762  13.135  1.4136  1.2497  0.6714
56079SOL     OW85846  13.927   2.250  10.068 -0.1679 -0.1578  0.2152
56079SOL    HW185847  14.004   2.271  10.122  0.1803 -0.9929  0.0622
56079SOL    HW285848  13.956   2.176  10.014 -1.0181 -0.3414  0.0049
56080SOL     OW85849   0.502   2.534  10.725  0.1717 -0.0649 -0.0500
56080SOL    HW185850   0.434   2.582  10.772 -1.3700 -1.8621 -0.3224
56080SOL    HW285851   0.522   2.589  10.649  0.6848  1.5405  1.1978
56081SOL     OW85852   1.178   6.029   2.733  0.2281  0.3836 -0.1806
56081SOL    HW185853   1.244   6.095   2.711  0.1916  0.0801 -1.2623
56081SOL    HW285854   1.165   5.980   2.652 -1.5865  0.6609 -0.1123
56082SOL     OW85855   5.164   5.831   1.657 -0.2553  0.6121  0.0213
56082SOL    HW185856   5.144   5.756   1.712 -0.7923 -0.7617 -1.9511
56082SOL    HW285857   5.239   5.874   1.700  0.7877 -1.6807  0.6184
56083SOL     OW85858  13.286   9.040   1.478 -0.0830  0.0448  0.4345
56083SOL    HW185859  13.293   9.133   1.456  0.0703 -0.2838 -1.0271
56083SOL    HW285860  13.298   9.037   1.573 -1.5496  1.6495  0.7213
56084SOL     OW85861   0.973  11.882   4.167 -0.3499 -0.2337  0.2199
56084SOL    HW185862   0.947  11.802   4.122  0.3605 -1.4762  1.9272
56084SOL    HW285863   0.969  11.950   4.099  0.2583 -1.9157 -1.5992
56085SOL     OW85864  13.517   9.359   8.917 -0.1237  0.3944 -0.0387
56085SOL    HW185865  13.484   9.431   8.971  0.0924  1.3390 -1.1345
56085SOL    HW285866  13.594   9.395   8.873  1.0507 -1.0646  0.7217
56086SOL     OW85867   6.524  13.620  12.645  0.2946  0.0584  0.3656
56086SOL    HW185868   6.490  13.538  12.611  1.2114 -0.5829  0.9746
56086SOL    HW285869   6.600  13.639  12.590  0.8569 -0.1802  1.0445
56087SOL     OW85870  10.749   3.344   4.190  0.6984 -0.2044 -0.1978
56087SOL    HW185871  10.783   3.255   4.180 -2.4339 -1.5588  0.0416
56087SOL    HW285872  10.763   3.365   4.283  0.9993 -0.6664 -0.1379
56088SOL     OW85873   6.984  11.031  13.374 -0.0181  0.1162  0.0731
56088SOL    HW185874   6.971  11.079  13.292  2.8537  0.7422 -0.1263
56088SOL    HW285875   7.013  11.098  13.436 -1.1121 -0.5349  1.3554
56089SOL     OW85876  13.397  12.548   0.456  0.0628  0.2837  0.0243
56089SOL    HW185877  13.337  12.475   0.442  1.0860 -0.8540  1.2670
56089SOL    HW285878  13.359  12.621   0.407 -0.5515 -1.2867 -1.9555
56090SOL     OW85879   9.184   4.627   4.431 -0.0037  0.4468  0.2673
56090SOL    HW185880   9.093   4.644   4.456 -1.5077 -0.3614 -3.7962
56090SOL    HW285881   9.222   4.714   4.419 -0.0285  0.7985  2.2903
56091SOL     OW85882  10.867  11.588   5.569 -0.0501  0.3593  0.1653
56091SOL    HW185883  10.873  11.621   5.480  0.4617 -0.5265 -0.1427
56091SOL    HW285884  10.920  11.648   5.621  0.5141  0.2736 -0.3077
56092SOL     OW85885   9.226   4.900   1.393 -0.7464  0.2469 -0.1399
56092SOL    HW185886   9.224   4.804   1.392 -0.7266  0.2473 -0.9512
56092SOL    HW285887   9.320   4.921   1.394 -0.7505  0.2650  0.3848
56093SOL     OW85888   5.223   1.172   3.866  0.2023 -0.2469 -0.2685
56093SOL    HW185889   5.216   1.077   3.870  0.4918 -0.2508  0.2199
56093SOL    HW285890   5.133   1.203   3.875 -0.0147 -0.4973 -1.4437
56094SOL     OW85891  11.556   9.426   3.222  0.2108  0.0545  0.2984
56094SOL    HW185892  11.492   9.493   3.199  0.5735  0.3447  0.1155
56094SOL    HW285893  11.622   9.472   3.273 -0.5047 -0.5593  1.8311
56095SOL     OW85894   4.609  14.019   9.583  0.2411  0.0901 -0.2318
56095SOL    HW185895   4.630  14.098   9.534 -0.2148 -0.0248 -0.6168
56095SOL    HW285896   4.576  13.957   9.517 -0.9325  0.1334  0.2925
56096SOL     OW85897   1.615   5.565   3.738 -0.0918 -0.3405  0.3379
56096SOL    HW185898   1.669   5.521   3.673 -0.6133 -0.3707 -0.0816
56096SOL    HW285899   1.558   5.622   3.687  0.2553  0.4808  0.8451
56097SOL     OW85900   1.500   3.388   2.756  0.8855  0.2709  0.0053
56097SOL    HW185901   1.435   3.373   2.687  0.9296  3.1342 -0.7947
56097SOL    HW285902   1.491   3.313   2.814 -0.1882 -1.5288 -2.3242
56098SOL     OW85903   6.180   2.474   1.928 -0.4505  0.3057  0.0263
56098SOL    HW185904   6.193   2.480   2.023 -1.3953 -0.4910  0.2182
56098SOL    HW285905   6.158   2.382   1.913  3.0317 -0.4436 -1.4028
56099SOL     OW85906   1.395   0.365   0.962  0.0424 -0.0599 -0.1069
56099SOL    HW185907   1.478   0.405   0.935 -0.5388  1.0185 -0.3232
56099SOL    HW285908   1.363   0.319   0.884  0.7880 -1.1363  0.1876
56100SOL     OW85909   3.105   1.900   0.309  0.1998  0.8998 -0.5264
56100SOL    HW185910   3.166   1.970   0.287  0.5457  0.3758 -1.2679
56100SOL    HW285911   3.103   1.899   0.405  0.0812  2.0108 -0.4967
56101SOL     OW85912  13.832  12.149  10.707 -0.3638 -0.1647 -0.0975
56101SOL    HW185913  13.838  12.130  10.613 -1.1832 -0.9353 -0.0056
56101SOL    HW285914  13.872  12.235  10.717 -0.2580 -0.0824 -1.1523
56102SOL     OW85915   6.945   3.429   2.571  0.6060 -0.3272 -0.5108
56102SOL    HW185916   6.887   3.494   2.611 -2.0082 -0.7423 -3.2369
56102SOL    HW285917   7.011   3.480   2.525  3.0900  0.1570  3.1595
56103SOL     OW85918   2.010   7.869  13.041  0.0872  0.3829 -0.1577
56103SOL    HW185919   1.993   7.778  13.020  1.6051  0.0188  0.0522
56103SOL    HW285920   1.925   7.913  13.034 -0.8357 -1.2098  0.6179
56104SOL     OW85921  13.161   0.604  10.609 -0.1661 -0.6951  0.1962
56104SOL    HW185922  13.208   0.553  10.675  0.9674 -0.4664 -0.4101
56104SOL    HW285923  13.142   0.540  10.540  2.7575 -0.0705 -1.3592
56105SOL     OW85924   8.648   1.783  13.561  0.3648 -0.1695  0.0573
56105SOL    HW185925   8.635   1.692  13.532  0.7467 -0.4550  0.7422
56105SOL    HW285926   8.742   1.797  13.553  0.3538  0.0430  0.2993
56106SOL     OW85927  13.334  10.960  13.388 -0.0025  0.3152  0.7059
56106SOL    HW185928  13.250  10.961  13.434  0.7783  1.1988  2.1852
56106SOL    HW285929  13.367  11.050  13.396  0.9546  0.0558 -0.1162
56107SOL     OW85930   1.866   7.342   7.237  0.7077 -0.1469  0.2792
56107SOL    HW185931   1.831   7.410   7.294 -0.8889 -1.1262  0.5121
56107SOL    HW285932   1.881   7.386   7.154 -2.3057  0.1047 -0.2420
56108SOL     OW85933   6.465   3.866  10.718  0.1207 -0.4451 -0.4465
56108SOL    HW185934   6.483   3.775  10.741 -0.5189 -1.2415 -2.7778
56108SOL    HW285935   6.402   3.896  10.784  0.3210 -1.7063  0.3359
56109SOL     OW85936   6.659   0.029   2.969  0.6146  1.0480  0.0298
56109SOL    HW185937   6.646   0.117   2.932  1.7226  0.6236 -1.4498
56109SOL    HW285938   6.743   0.034   3.013  0.0465  1.0878  1.1407
56110SOL     OW85939   9.937   2.691   1.769  0.2819 -0.2256 -0.5394
56110SOL    HW185940   9.918   2.598   1.758  3.2845 -0.7102 -3.3259
56110SOL    HW285941   9.874   2.735   1.712 -1.0915 -0.4569  0.7204
56111SOL     OW85942   7.078   7.984  13.900  0.3882  0.4840 -0.0277
56111SOL    HW185943   7.091   8.077  13.883 -0.3086  0.7428  0.7671
56111SOL    HW285944   6.983   7.971  13.896  0.4984 -0.2712 -0.4850
56112SOL     OW85945   7.224   7.471   3.047  0.2684  0.7475  1.0621
56112SOL    HW185946   7.297   7.433   3.096  1.9370 -0.2370 -1.9059
56112SOL    HW285947   7.186   7.397   3.000  0.3223  1.9149 -0.9398
56113SOL     OW85948   8.214   5.035   1.676 -0.7993 -0.1273 -0.1617
56113SOL    HW185949   8.140   5.039   1.615 -0.9179  0.3037  0.0129
56113SOL    HW285950   8.212   4.945   1.709 -1.8738  0.1622  0.6182
56114SOL     OW85951   8.357   0.764  10.473 -0.0178  0.2608 -0.2378
56114SOL    HW185952   8.282   0.787  10.418 -0.6486 -1.8598 -0.3269
56114SOL    HW285953   8.340   0.806  10.557 -0.8028  0.6121 -0.5684
56115SOL     OW85954  13.058   7.258   1.103  0.2092 -0.4381 -0.6675
56115SOL    HW185955  13.009   7.184   1.140  1.9559 -1.1931  0.2701
56115SOL    HW285956  13.002   7.334   1.118 -0.6786 -1.2598  0.3575
56116SOL     OW85957  11.979   6.092   0.573 -0.5963  0.3960  1.3719
56116SOL    HW185958  12.032   6.148   0.516 -0.3480 -0.4508  0.7367
56116SOL    HW285959  12.006   6.115   0.662  0.3181  0.4965  1.0806
56117SOL     OW85960   7.022   8.416   9.209  0.3334  0.1918 -0.1010
56117SOL    HW185961   6.989   8.458   9.130  3.1312  1.4309 -0.7207
56117SOL    HW285962   7.079   8.482   9.250 -0.7854 -0.4957  2.8433
56118SOL     OW85963  11.247   0.546   3.510 -0.4294  0.0871  0.2884
56118SOL    HW185964  11.181   0.480   3.489 -0.0046 -0.9708  2.1116
56118SOL    HW285965  11.329   0.497   3.519 -0.2394  0.6928  2.3802
56119SOL     OW85966   9.735   4.058   4.954  0.2748 -0.3717  0.6430
56119SOL    HW185967   9.647   4.096   4.954  0.2759 -0.3462  1.5276
56119SOL    HW285968   9.723   3.970   4.920  0.1575  0.1449 -0.7177
56120SOL     OW85969   0.046   1.310   0.250 -0.2204 -0.1568  0.7149
56120SOL    HW185970  -0.009   1.249   0.298  0.4677 -1.9652 -0.6624
56120SOL    HW285971   0.044   1.278   0.160  3.0260 -0.3113  0.5854
56121SOL     OW85972   6.646  12.410   8.097 -0.4115 -0.4430  0.0577
56121SOL    HW185973   6.623  12.500   8.122  1.6428  0.0314  0.4396
56121SOL    HW285974   6.705  12.381   8.167  0.2338 -1.4891 -0.8931
56122SOL     OW85975   1.938  12.197  11.781 -0.2005 -0.4816 -0.1659
56122SOL    HW185976   2.025  12.235  11.764  0.8275 -2.9769 -0.9441
56122SOL    HW285977   1.953  12.134  11.851 -1.3599 -1.0805 -0.4317
56123SOL     OW85978   9.513  11.107   1.196 -0.4544  0.0366  0.2267
56123SOL    HW185979   9.527  11.131   1.104 -0.3066 -0.2623  0.1724
56123SOL    HW285980   9.421  11.081   1.200 -0.2960 -0.5571  0.0308
56124SOL     OW85981  11.325   0.986  13.416 -0.2231  0.0819  0.3350
56124SOL    HW185982  11.310   1.065  13.469  0.2688 -0.2233  0.9395
56124SOL    HW285983  11.410   0.954  13.444 -0.1129 -0.2897 -0.3983
56125SOL     OW85984   9.783   8.556   0.197 -0.3092  0.1616 -0.0932
56125SOL    HW185985   9.823   8.590   0.117  0.3150 -0.5204 -0.0808
56125SOL    HW285986   9.760   8.466   0.176  1.3796 -0.5646  0.9928
56126SOL     OW85987   8.547   0.186   6.196  0.0423 -0.3585 -0.2437
56126SOL    HW185988   8.514   0.139   6.273  0.1828  1.2005  0.7985
56126SOL    HW285989   8.546   0.120   6.126 -0.1652 -1.7913  1.0563
56127SOL     OW85990   3.286   0.529   6.485  0.4521  0.1168  0.0749
56127SOL    HW185991   3.218   0.594   6.469  0.6549  0.5060  0.7359
56127SOL    HW285992   3.368   0.576   6.471  0.5884 -0.3957 -0.8789
56128SOL     OW85993   9.630  11.222  11.209  0.6133  0.5224 -0.1488
56128SOL    HW185994   9.656  11.217  11.117 -1.5988 -0.2871 -0.7986
56128SOL    HW285995   9.673  11.147  11.251 -0.5257 -0.7458 -1.1645
56129SOL     OW85996  11.955   6.515   9.886 -0.1513  0.3368 -0.5141
56129SOL    HW185997  11.887   6.487   9.824 -1.0139 -0.1382  0.6151
56129SOL    HW285998  12.012   6.438   9.893 -0.9153 -0.1766  0.4082
56130SOL     OW85999   3.858   3.189   9.393 -0.6266  0.3713 -0.1051
56130SOL    HW186000   3.830   3.139   9.316  0.3581  0.2996 -0.4302
56130SOL    HW286001   3.926   3.248   9.360 -1.3460  1.5101  0.3951
56131SOL     OW86002   6.330   3.639   5.320 -0.3937  0.1623 -0.0234
56131SOL    HW186003   6.373   3.689   5.250 -0.5370  0.2224 -0.0689
56131SOL    HW286004   6.313   3.553   5.281 -0.5183  0.2119 -0.0787
56132SOL     OW86005   9.737  11.615   4.128 -0.1450  0.4344  0.1001
56132SOL    HW186006   9.782  11.558   4.191 -1.3175 -1.8453 -0.9777
56132SOL    HW286007   9.784  11.698   4.133  3.0572 -1.2224  0.2957
56133SOL     OW86008  13.747   0.114  12.347 -0.0325  0.1284  0.0822
56133SOL    HW186009  13.713   0.129  12.435 -1.2242  0.4141 -0.4172
56133SOL    HW286010  13.836   0.080  12.362 -0.5608 -0.7700  1.4170
56134SOL     OW86011  10.357  10.972   8.054  0.3488  0.1657 -0.2299
56134SOL    HW186012  10.351  10.937   8.143 -0.8643 -2.3505 -1.1994
56134SOL    HW286013  10.286  10.928   8.007 -0.3148  2.9261 -1.9966
56135SOL     OW86014  11.633   0.616   2.398  0.3218 -0.7878  0.3472
56135SOL    HW186015  11.656   0.609   2.491 -0.7260  0.0357  0.6943
56135SOL    HW286016  11.710   0.655   2.357  1.1474 -2.0231  0.6957
56136SOL     OW86017  11.305   0.277   1.165 -0.2829  0.0868 -0.5755
56136SOL    HW186018  11.278   0.342   1.230 -2.3395  0.7689 -2.0172
56136SOL    HW286019  11.223   0.239   1.133  0.7472 -1.2568 -1.7583
56137SOL     OW86020  12.500   8.915   0.829 -0.3343 -0.5335  0.0900
56137SOL    HW186021  12.583   8.896   0.872 -0.7224 -0.0311  1.0764
56137SOL    HW286022  12.434   8.902   0.896 -0.9958 -0.2194 -0.4851
56138SOL     OW86023   1.128  12.854  10.979 -0.0075  0.6112 -0.0611
56138SOL    HW186024   1.205  12.829  11.030 -0.1719  0.0945 -0.0563
56138SOL    HW286025   1.059  12.869  11.044 -0.0996  0.3805 -0.1042
56139SOL     OW86026  10.074   9.889  12.119 -0.2781 -0.3551  0.1899
56139SOL    HW186027  10.059   9.978  12.089  2.0800 -0.4214 -1.4452
56139SOL    HW286028  10.137   9.899  12.191 -0.8722 -0.6614  0.7684
56140SOL     OW86029   1.362   6.305  13.193  0.2546  0.2205  0.1402
56140SOL    HW186030   1.422   6.232  13.210  0.5800  0.9032  2.1271
56140SOL    HW286031   1.275   6.264  13.188  0.4247 -0.3232  1.2991
56141SOL     OW86032   6.430   6.135  12.887  0.0037 -0.0174  0.2375
56141SOL    HW186033   6.390   6.063  12.839 -0.7777 -0.3447  1.3501
56141SOL    HW286034   6.455   6.097  12.972  1.3220  0.5562  0.1407
56142SOL     OW86035  13.710   2.466   6.498 -0.0473  0.0277  0.4113
56142SOL    HW186036  13.679   2.549   6.534 -1.7365 -0.2319 -0.3710
56142SOL    HW286037  13.754   2.492   6.416 -0.3154  0.1778  0.3131
56143SOL     OW86038   0.086   8.092   2.079  0.3163 -0.4533 -0.1248
56143SOL    HW186039   0.038   8.174   2.090 -2.4503 -1.8097 -1.0466
56143SOL    HW286040   0.147   8.088   2.153 -1.6600  0.9889  1.6754
56144SOL     OW86041   2.837  10.103   7.756  0.2788 -0.0336  0.2381
56144SOL    HW186042   2.870  10.095   7.666  2.5848 -0.4836  1.0498
56144SOL    HW286043   2.742  10.107   7.746  0.4034 -0.9963 -2.1659
56145SOL     OW86044   7.210   2.759  11.584  0.4203 -0.0975  0.2952
56145SOL    HW186045   7.172   2.845  11.604 -0.7976 -0.7369  0.8001
56145SOL    HW286046   7.136   2.707  11.552  0.8012 -1.4797  1.5809
56146SOL     OW86047  11.282   7.879   1.553 -0.0544 -0.0406 -0.0560
56146SOL    HW186048  11.307   7.923   1.634 -1.0896  0.8545 -0.1954
56146SOL    HW286049  11.190   7.855   1.567 -0.6653  1.3509 -1.4622
56147SOL     OW86050   5.719   5.781   5.162  0.0246 -0.0473 -0.4800
56147SOL    HW186051   5.770   5.832   5.225  0.8143  0.6650 -1.6515
56147SOL    HW286052   5.700   5.699   5.207 -0.8678  1.0486  1.2992
56148SOL     OW86053   2.905   2.151   4.362 -0.2127 -0.4914  0.2666
56148SOL    HW186054   2.957   2.146   4.443 -1.1117 -0.0826  0.8973
56148SOL    HW286055   2.860   2.067   4.357  0.4724 -0.8277 -0.2538
56149SOL     OW86056  11.603   8.768   4.118  0.1913 -0.9864 -0.2415
56149SOL    HW186057  11.666   8.783   4.189  1.1234  1.7329 -1.5022
56149SOL    HW286058  11.532   8.829   4.136  1.2571  1.0731 -2.4456
56150SOL     OW86059  10.031   2.460   8.644 -0.1200  0.3018 -0.9003
56150SOL    HW186060  10.073   2.403   8.580 -0.6326 -1.7706  0.5145
56150SOL    HW286061  10.093   2.465   8.716 -1.0159 -0.3974 -0.0451
56151SOL     OW86062   2.960   7.652  13.667 -0.4206  0.4963  0.3598
56151SOL    HW186063   2.874   7.609  13.664 -0.6534  0.9880 -0.7345
56151SOL    HW286064   2.970   7.679  13.758 -0.2935 -1.7680  1.0826
56152SOL     OW86065   8.239   1.982   0.617 -0.2502 -0.2758  0.0376
56152SOL    HW186066   8.160   1.930   0.604 -0.7788  0.2799  0.9574
56152SOL    HW286067   8.305   1.917   0.643 -0.9271 -0.5105  1.2691
56153SOL     OW86068   8.633   6.230  13.221 -0.3596  0.1871 -0.3381
56153SOL    HW186069   8.637   6.166  13.151 -2.7623  0.4470 -0.8027
56153SOL    HW286070   8.627   6.178  13.301  1.1438 -0.1105 -0.3889
56154SOL     OW86071   7.547   0.248  12.523 -0.3598 -0.6832 -0.0741
56154SOL    HW186072   7.489   0.233  12.449  1.7093  1.5082 -2.3324
56154SOL    HW286073   7.632   0.214  12.495  0.8378  1.5374  0.5693
56155SOL     OW86074   5.296   1.131  11.402  0.2384  0.3271 -0.1584
56155SOL    HW186075   5.382   1.092  11.386 -0.5126 -1.1473 -0.8088
56155SOL    HW286076   5.277   1.181  11.322  0.7179  1.1235  0.2156
56156SOL     OW86077   9.126   1.055  10.876 -0.6519  0.4082  0.4236
56156SOL    HW186078   9.081   1.004  10.809 -2.3202  2.5196 -0.1647
56156SOL    HW286079   9.057   1.082  10.936  0.1588  2.0331  0.6640
56157SOL     OW86080  13.991   8.777   8.070  0.2753  0.4217 -0.1279
56157SOL    HW186081  14.077   8.746   8.043 -0.3673 -0.2437 -1.4949
56157SOL    HW286082  13.952   8.703   8.116 -0.0020  0.3113 -0.5336
56158SOL     OW86083   3.414  11.772   6.798  0.3435  0.0501 -0.5912
56158SOL    HW186084   3.468  11.849   6.778 -0.4567  0.3393 -1.7032
56158SOL    HW286085   3.372  11.794   6.881  2.3878 -0.4501  0.6667
56159SOL     OW86086   9.255   1.832   4.454  0.2381  0.0153 -0.3492
56159SOL    HW186087   9.184   1.874   4.405 -0.3452 -0.1732  0.3165
56159SOL    HW286088   9.231   1.844   4.546  2.0038  1.5767 -0.0289
56160SOL     OW86089   4.285   3.406  13.719  0.7890 -0.1044  0.5149
56160SOL    HW186090   4.381   3.400  13.720  0.8192  0.2930  1.9866
56160SOL    HW286091   4.263   3.426  13.628  1.9258 -2.5774 -0.3879
56161SOL     OW86092   5.279   0.057   0.757  0.0067 -0.1786 -0.0311
56161SOL    HW186093   5.338  -0.000   0.806  0.7799  0.1263 -0.6005
56161SOL    HW286094   5.276   0.020   0.669 -0.1666  0.1664 -0.1724
56162SOL     OW86095   2.133   8.134   1.953  0.0997 -0.2124  0.6872
56162SOL    HW186096   2.041   8.161   1.943  1.1397  2.7832 -2.1376
56162SOL    HW286097   2.130   8.039   1.946 -2.6887 -0.1402 -0.5444
56163SOL     OW86098  13.247  10.472   8.977 -0.1157  0.2157 -0.1255
56163SOL    HW186099  13.210  10.556   9.004  1.5142  1.2570 -0.9453
56163SOL    HW286100  13.221  10.462   8.885 -0.9703 -0.5945  0.1878
56164SOL     OW86101   8.996  12.881  13.887 -0.6091 -0.3012 -0.5430
56164SOL    HW186102   9.059  12.888  13.959 -2.9753 -0.8951  1.6985
56164SOL    HW286103   9.006  12.963  13.839  1.2279 -0.0116  0.2309
56165SOL     OW86104   1.804   0.590   8.632 -0.8385 -0.6286 -0.6119
56165SOL    HW186105   1.820   0.675   8.589 -0.2987 -0.9560 -1.0835
56165SOL    HW286106   1.876   0.534   8.601 -0.3434 -0.8442  0.8312
56166SOL     OW86107   8.104   5.592   5.884 -0.0408 -0.1378 -0.0868
56166SOL    HW186108   8.141   5.546   5.809  0.2990  0.4507 -0.2858
56166SOL    HW286109   8.010   5.599   5.864  0.1921  0.8715 -0.9362
56167SOL     OW86110  13.980  13.518   9.684  0.0367  1.1797 -0.2945
56167SOL    HW186111  14.029  13.458   9.626  0.0602  1.5260 -0.6359
56167SOL    HW286112  14.021  13.603   9.669 -0.8996  1.5469 -0.8522
56168SOL     OW86113   1.567   7.185  10.668  0.2171 -0.1610  0.0692
56168SOL    HW186114   1.615   7.112  10.707  0.2778  0.3421  0.9647
56168SOL    HW286115   1.619   7.210  10.592  0.2093 -1.0285 -0.2243
56169SOL     OW86116  13.035   4.926   1.724 -0.0469 -0.3345  0.2872
56169SOL    HW186117  13.111   4.947   1.778 -0.3158  1.4609  0.0040
56169SOL    HW286118  13.073   4.889   1.644  0.4106 -1.4327  0.9772
56170SOL     OW86119   5.345   8.999   1.991 -0.4196 -0.3971  0.0607
56170SOL    HW186120   5.430   8.976   2.029 -0.4097 -0.9107 -0.2525
56170SOL    HW286121   5.329   8.930   1.926 -1.9251 -1.3822  1.4014
56171SOL     OW86122  11.359  12.258   8.642 -0.1411 -0.1567 -0.0132
56171SOL    HW186123  11.425  12.286   8.578 -0.3427  1.3983  0.4270
56171SOL    HW286124  11.296  12.208   8.591 -0.0560  0.6676 -0.9501
56172SOL     OW86125  13.414   9.167   9.448 -0.2187  0.9461 -0.2216
56172SOL    HW186126  13.452   9.086   9.413  1.0195  1.4176 -0.0173
56172SOL    HW286127  13.458   9.237   9.398 -1.3237  1.4944 -0.4423
56173SOL     OW86128   4.099   8.510   4.808  0.0053  1.2611 -0.2698
56173SOL    HW186129   4.074   8.427   4.848  0.0484  1.1591 -0.4478
56173SOL    HW286130   4.106   8.490   4.714  2.2785  0.8730 -0.0864
56174SOL     OW86131   9.245   9.644   3.415  0.0234  0.2272 -0.1553
56174SOL    HW186132   9.319   9.656   3.474  1.3774  0.0618 -1.7589
56174SOL    HW286133   9.235   9.549   3.406 -0.1178  0.2507 -0.2657
56175SOL     OW86134   2.720   8.845   2.862  0.1161  0.3275 -0.3312
56175SOL    HW186135   2.746   8.817   2.950  1.7941 -2.4278 -1.5364
56175SOL    HW286136   2.625   8.846   2.864  0.0398 -1.9157  0.9845
56176SOL     OW86137   2.954  10.727   4.087 -0.4669  0.4720  0.0058
56176SOL    HW186138   2.950  10.820   4.065 -0.5551  0.4461 -0.0864
56176SOL    HW286139   2.863  10.700   4.097 -0.3992  0.8181  1.8154
56177SOL     OW86140   2.985  12.641   0.587 -0.3314  0.5163 -0.2093
56177SOL    HW186141   3.003  12.621   0.679  1.1710  1.0549 -0.3561
56177SOL    HW286142   3.025  12.569   0.538  1.6787  1.7887 -0.5501
56178SOL     OW86143   5.373  13.328   8.598 -0.3270 -0.1125 -0.8659
56178SOL    HW186144   5.450  13.377   8.572 -0.5291 -0.3055 -1.8964
56178SOL    HW286145   5.368  13.338   8.693  2.1688 -1.8599 -0.4485
56179SOL     OW86146  11.400  12.092  13.132  0.1802  0.3594 -0.0845
56179SOL    HW186147  11.314  12.119  13.100  0.2265  0.4248 -0.1557
56179SOL    HW286148  11.439  12.045  13.058  0.1306  0.1636  0.0153
56180SOL     OW86149   5.879  12.264  12.935 -0.3907  0.2729 -0.8086
56180SOL    HW186150   5.926  12.181  12.928  0.2154  0.4600  0.6068
56180SOL    HW286151   5.932  12.327  12.886  0.3526  0.2747 -0.0325
56181SOL     OW86152   5.662   3.110   2.553 -0.1936  0.2368  0.1866
56181SOL    HW186153   5.596   3.044   2.534 -0.0988 -0.0808  0.9490
56181SOL    HW286154   5.746   3.064   2.545 -0.0231  0.7089 -1.0852
56182SOL     OW86155   5.542   4.534   6.901  0.4900  0.3560 -0.0995
56182SOL    HW186156   5.469   4.596   6.892  0.3848  0.0687 -1.5501
56182SOL    HW286157   5.620   4.589   6.891  0.4761  0.6085  1.0842
56183SOL     OW86158   5.467   9.514  12.146  0.0504  0.0026  0.4024
56183SOL    HW186159   5.536   9.494  12.083 -0.8799 -0.3989 -0.5152
56183SOL    HW286160   5.455   9.434  12.196 -0.4055 -0.2560 -0.1005
56184SOL     OW86161  13.039   7.762   5.959 -0.2741 -0.0484 -0.0783
56184SOL    HW186162  13.009   7.711   5.884  0.3160  1.0126 -1.0790
56184SOL    HW286163  13.110   7.816   5.924 -1.3602  2.0272  0.7097
56185SOL     OW86164   0.711  13.177  12.863  0.4253 -0.2321  0.1743
56185SOL    HW186165   0.778  13.244  12.853  0.1124  0.0738  0.1238
56185SOL    HW286166   0.632  13.224  12.891  0.1648 -0.5572  0.0061
56186SOL     OW86167   1.903   3.070   7.336  0.4865 -0.2259 -0.1254
56186SOL    HW186168   1.975   3.029   7.384 -1.0391 -1.9422  0.8385
56186SOL    HW286169   1.883   3.009   7.265  0.9474  0.9955 -1.3647
56187SOL     OW86170   7.647   5.917  11.522 -0.1991 -0.2865 -0.0427
56187SOL    HW186171   7.670   5.838  11.473 -0.9240  0.4391 -1.6204
56187SOL    HW286172   7.630   5.983  11.455  0.5929  1.2899  1.2342
56188SOL     OW86173  12.812   8.937   0.610  0.0710  0.0533 -0.1874
56188SOL    HW186174  12.775   9.002   0.669 -0.8504 -1.1398  0.6041
56188SOL    HW286175  12.803   8.854   0.657  0.3582 -0.7858 -1.5402
56189SOL     OW86176   5.829   5.385   8.759 -0.4875  0.0908  0.9857
56189SOL    HW186177   5.906   5.414   8.808 -0.0068 -1.2888  1.0905
56189SOL    HW286178   5.861   5.373   8.670 -0.7453  0.1721  0.8817
56190SOL     OW86179   4.165   8.772  10.269 -0.3701  0.7954 -0.2291
56190SOL    HW186180   4.077   8.777  10.307 -0.1713 -1.2871  0.6471
56190SOL    HW286181   4.221   8.814  10.334 -0.5925  1.2436 -0.3251
56191SOL     OW86182   1.634   9.945   1.816  0.2420  0.1970 -0.4468
56191SOL    HW186183   1.698  10.016   1.806  0.0712  0.1826 -1.8976
56191SOL    HW286184   1.576   9.974   1.886  0.3612  1.3446 -0.8091
56192SOL     OW86185  13.935  10.747   8.042 -0.3240  0.1079 -0.4145
56192SOL    HW186186  13.866  10.794   7.994  0.3121  0.3562 -1.1080
56192SOL    HW286187  13.979  10.815   8.094 -1.5327 -0.2899  1.2089
56193SOL     OW86188   1.561  10.273   6.309 -0.0858  0.2712 -0.0313
56193SOL    HW186189   1.502  10.277   6.384  0.7470  2.6344  0.5738
56193SOL    HW286190   1.637  10.325   6.335  1.3960 -0.9983 -1.5556
56194SOL     OW86191   4.025   0.770   9.863 -0.1149  0.4866 -0.2514
56194SOL    HW186192   4.095   0.749   9.925  0.0694  1.3306 -0.1558
56194SOL    HW286193   4.058   0.846   9.814 -0.8814  0.7795 -0.3348
56195SOL     OW86194   6.208  13.356  12.231 -0.2216  0.3510  0.2876
56195SOL    HW186195   6.264  13.430  12.256  0.5150 -0.9005  2.7790
56195SOL    HW286196   6.252  13.280  12.269 -1.6711 -1.2022 -0.9849
56196SOL     OW86197   1.061   4.831  11.163  0.3602  0.2124  0.2902
56196SOL    HW186198   1.028   4.742  11.178 -0.0481  0.8998  4.9039
56196SOL    HW286199   0.982   4.884  11.156  0.6160  0.4768 -0.7805
56197SOL     OW86200  13.936   4.317   7.144  0.1369  0.0622 -0.1341
56197SOL    HW186201  13.878   4.241   7.151 -0.9282  0.8296 -0.3176
56197SOL    HW286202  13.955   4.324   7.050  0.3608 -0.0710 -0.0984
56198SOL     OW86203   0.246   2.651   2.418  0.0096  0.1639  0.4236
56198SOL    HW186204   0.272   2.643   2.327 -1.2968 -0.8036  0.0952
56198SOL    HW286205   0.183   2.722   2.420 -1.9663 -1.4756  0.0313
56199SOL     OW86206  13.918   3.586   9.873  0.6765  0.1319 -0.2668
56199SOL    HW186207  13.824   3.597   9.859  0.4286  0.2990  1.3230
56199SOL    HW286208  13.950   3.673   9.897  1.3717  0.2077 -1.3721
56200SOL     OW86209   3.224   4.724   7.061 -0.3581 -0.3807 -0.5803
56200SOL    HW186210   3.209   4.662   7.132  1.0510 -1.2731 -1.0231
56200SOL    HW286211   3.208   4.674   6.981  2.6867 -0.8673 -1.0274
56201SOL     OW86212   7.341   9.804   2.086 -0.5989  0.0166 -0.2202
56201SOL    HW186213   7.401   9.765   2.022  0.3069  1.3664 -0.2265
56201SOL    HW286214   7.295   9.872   2.038 -0.9404  0.0980  0.2140
56202SOL     OW86215   8.778   3.601  10.262 -0.5569  0.6306  0.0636
56202SOL    HW186216   8.700   3.546  10.255 -1.8212  2.3057  0.3534
56202SOL    HW286217   8.771   3.662  10.188  1.2139 -0.0393 -0.7136
56203SOL     OW86218   6.364  12.539  13.404 -0.3956  0.2680 -0.1109
56203SOL    HW186219   6.438  12.538  13.344 -0.1414 -0.1763  0.2112
56203SOL    HW286220   6.291  12.571  13.350 -0.3896 -1.0026 -0.9242
56204SOL     OW86221   9.149   2.641   8.626 -0.5226  0.3137 -0.0880
56204SOL    HW186222   9.130   2.562   8.576  0.6721  0.1147 -0.2566
56204SOL    HW286223   9.086   2.706   8.594  0.4059  0.2741 -2.0771
56205SOL     OW86224  10.798   2.678   2.452  0.5017 -0.3865 -0.2910
56205SOL    HW186225  10.854   2.749   2.484 -2.2423  1.9068 -0.0813
56205SOL    HW286226  10.775   2.628   2.530  0.7047 -0.1161 -0.0574
56206SOL     OW86227   7.622   1.070  10.372 -0.3150 -0.3764 -0.2998
56206SOL    HW186228   7.556   1.134  10.397 -1.2200 -1.4246  0.0471
56206SOL    HW286229   7.696   1.123  10.341 -0.6443  0.8572  0.9251
56207SOL     OW86230   8.263  10.269  11.786 -0.1249 -0.6342 -0.2011
56207SOL    HW186231   8.296  10.288  11.698 -0.1702 -1.9333 -0.5261
56207SOL    HW286232   8.314  10.325  11.844 -0.3730  0.5345 -1.0841
56208SOL     OW86233   7.059  11.954  10.839  0.2345  0.7864  0.3652
56208SOL    HW186234   7.105  11.936  10.757 -1.8701 -1.1267 -0.4902
56208SOL    HW286235   7.129  11.965  10.904  1.9093  0.7546 -1.3569
56209SOL     OW86236  11.864  13.712   3.475  0.0382  0.2921 -0.1811
56209SOL    HW186237  11.952  13.742   3.457  0.7350 -1.3349  0.2741
56209SOL    HW286238  11.862  13.699   3.570 -0.8842  0.8654 -0.1105
56210SOL     OW86239   3.553   4.239   0.884 -0.0722  0.4148  0.0453
56210SOL    HW186240   3.626   4.286   0.925  0.3052  0.8902 -1.1258
56210SOL    HW286241   3.586   4.150   0.873 -0.2264  0.2431  0.8571
56211SOL     OW86242  11.434   9.015   7.359  0.7903  0.3990 -0.4072
56211SOL    HW186243  11.457   8.952   7.427  0.5601 -0.8943 -1.4700
56211SOL    HW286244  11.474   9.097   7.387  1.2500 -0.2572  0.9412
56212SOL     OW86245   1.013  11.955   9.535 -0.0499  0.0744 -0.4680
56212SOL    HW186246   1.067  12.005   9.596 -2.0896 -0.0183  1.5549
56212SOL    HW286247   1.051  11.868   9.533 -0.0863  0.0149  0.8973
56213SOL     OW86248   4.039  12.713   1.270 -0.5378 -0.0808  0.6094
56213SOL    HW186249   3.981  12.768   1.218 -1.0070  0.3392  1.5404
56213SOL    HW286250   4.036  12.627   1.228 -1.8286 -0.0658  0.6144
56214SOL     OW86251   9.529   1.055   8.706  0.2825 -0.1265 -0.1814
56214SOL    HW186252   9.623   1.038   8.709  0.8429  1.8426 -2.6595
56214SOL    HW286253   9.493   0.979   8.660  0.3837 -1.5544  1.9862
56215SOL     OW86254   3.064   2.195   5.371 -0.1623 -0.1752 -0.5350
56215SOL    HW186255   3.102   2.281   5.390  0.3272 -0.5514  0.2463
56215SOL    HW286256   3.068   2.188   5.275 -0.1151  0.6224 -0.6017
56216SOL     OW86257   1.954   0.638   5.895  0.2426  0.0921  0.3674
56216SOL    HW186258   1.869   0.615   5.858  0.1966  0.7966  0.0205
56216SOL    HW286259   1.932   0.682   5.978  0.2416  0.7763  0.0082
56217SOL     OW86260   1.996   4.836   6.771 -0.0383 -0.0104 -0.1471
56217SOL    HW186261   2.018   4.877   6.855 -0.9205  1.7738 -0.7360
56217SOL    HW286262   1.983   4.744   6.792  0.6385  0.2358  1.5080
56218SOL     OW86263   6.107   2.761   6.421 -0.1142  0.0698  0.1307
56218SOL    HW186264   6.195   2.782   6.450  0.1244 -0.5778 -0.1040
56218SOL    HW286265   6.118   2.727   6.332 -0.8736  2.4235 -0.9389
56219SOL     OW86266  13.906   9.298   4.918  0.7919  0.5573 -0.0761
56219SOL    HW186267  13.829   9.244   4.898  1.1998 -0.1161  0.1196
56219SOL    HW286268  13.892   9.379   4.870  0.6383 -0.1206 -1.1980
56220SOL     OW86269  11.377   8.533   7.758  0.4796 -0.2843  0.4455
56220SOL    HW186270  11.345   8.529   7.848 -0.5755  1.2949  0.1976
56220SOL    HW286271  11.417   8.448   7.743 -0.9225 -1.2641  1.8212
56221SOL     OW86272   3.888   6.348  12.418  0.8257  0.0305  0.5441
56221SOL    HW186273   3.794   6.361  12.434  0.6789  0.9722 -0.8251
56221SOL    HW286274   3.892   6.272  12.360  0.5969  1.7169 -1.8406
56222SOL     OW86275  13.020   1.358  13.985  0.4862  0.3376  0.5480
56222SOL    HW186276  13.055   1.443  14.012  0.2728  0.3630  0.7482
56222SOL    HW286277  13.064   1.295  14.042  1.7028  0.1677 -0.5413
56223SOL     OW86278   4.506  12.907   9.255  0.6758  0.1026  0.3918
56223SOL    HW186279   4.426  12.917   9.308 -0.6135 -1.3577 -1.1742
56223SOL    HW286280   4.551  12.832   9.294  0.0261 -0.5980 -0.1721
56224SOL     OW86281   6.027   0.048   7.544  0.2674  0.7001 -0.1345
56224SOL    HW186282   6.049  -0.045   7.556  1.0521  0.8601 -0.2945
56224SOL    HW286283   6.003   0.078   7.631  1.3987  0.6930  0.1983
56225SOL     OW86284   2.023   4.863  11.143 -0.4937 -1.1597 -0.9848
56225SOL    HW186285   1.980   4.812  11.212  0.7929 -2.7542 -1.2897
56225SOL    HW286286   2.101   4.812  11.121  0.3583  0.4948 -2.0031
56226SOL     OW86287  10.860   3.714   7.838  0.2850  0.1951 -0.4905
56226SOL    HW186288  10.794   3.671   7.893  1.7323 -0.9656  0.4218
56226SOL    HW286289  10.935   3.655   7.840  0.9390  0.8698 -2.5144
56227SOL     OW86290   3.916  10.315   5.982 -0.3564  0.2781  0.2369
56227SOL    HW186291   3.839  10.258   5.994  1.6704 -2.4861  1.1139
56227SOL    HW286292   3.907  10.381   6.050 -1.9947  0.1139  0.2379
56228SOL     OW86293   9.290   2.050   0.485  0.0725  0.4783  0.0083
56228SOL    HW186294   9.323   1.963   0.505  1.0805  0.4198 -1.7068
56228SOL    HW286295   9.198   2.047   0.511  0.0707 -1.1158 -0.0656
56229SOL     OW86296  13.426  10.928   3.893  0.1529 -0.2082  0.7402
56229SOL    HW186297  13.421  11.021   3.916 -1.0829  0.0521 -0.4602
56229SOL    HW286298  13.339  10.907   3.859  0.5681 -1.6760  0.5290
56230SOL     OW86299   5.453   4.018  13.595 -0.0026  0.5402  0.0931
56230SOL    HW186300   5.369   4.058  13.574 -1.5047 -2.7729 -0.9945
56230SOL    HW286301   5.475   4.053  13.681 -2.1991  2.0128  0.1410
56231SOL     OW86302   1.940   9.120   9.247 -0.0241  0.2119  0.2049
56231SOL    HW186303   1.971   9.029   9.237 -0.3884  0.0474  0.5378
56231SOL    HW286304   1.860   9.112   9.299  0.3195  0.7884  0.8377
56232SOL     OW86305  12.895   9.503   6.917  0.0230 -0.0241 -0.6041
56232SOL    HW186306  12.842   9.575   6.884  1.3950  1.4468  0.2881
56232SOL    HW286307  12.868   9.493   7.008 -0.9353 -1.4121 -1.0106
56233SOL     OW86308   6.174  12.447   3.639 -0.5780 -0.0340  0.1618
56233SOL    HW186309   6.216  12.436   3.724  1.1742  1.6056 -0.4205
56233SOL    HW286310   6.081  12.455   3.659 -0.3715 -1.1215  1.7560
56234SOL     OW86311  10.979   1.529   0.353 -0.6609 -0.0271  0.1769
56234SOL    HW186312  10.921   1.604   0.368  1.1800  1.3581  0.8253
56234SOL    HW286313  10.976   1.480   0.435 -1.6187 -0.5169 -0.1333
56235SOL     OW86314   2.775  12.363   0.564 -0.4751  0.1790 -0.0228
56235SOL    HW186315   2.702  12.418   0.591  0.6512  0.8047  1.9509
56235SOL    HW286316   2.808  12.324   0.645  0.6806 -0.9870 -1.0012
56236SOL     OW86317   6.360   4.720   5.678  0.2969 -0.8306  0.3212
56236SOL    HW186318   6.446   4.761   5.684  0.0981 -0.3596  0.0478
56236SOL    HW286319   6.375   4.637   5.634  0.3640  0.0715 -1.4573
56237SOL     OW86320   8.920   5.125  12.251 -0.5262  0.2248  0.1063
56237SOL    HW186321   9.004   5.104  12.291 -1.0055 -1.1576  0.4128
56237SOL    HW286322   8.902   5.052  12.192  0.9068  2.8397 -4.0078
56238SOL     OW86323   8.182   1.334   7.081 -0.2891 -0.5608  0.4137
56238SOL    HW186324   8.241   1.310   7.009  0.3836  0.4332  0.6153
56238SOL    HW286325   8.206   1.275   7.152 -0.0405 -0.6527  0.2537
56239SOL     OW86326   6.739  11.212   5.425 -0.1178 -0.3289 -0.2598
56239SOL    HW186327   6.807  11.264   5.467 -1.0851  1.2356 -0.5616
56239SOL    HW286328   6.661  11.228   5.477 -0.6490 -0.7587 -0.9099
56240SOL     OW86329   9.462   1.469  10.331 -0.3242  0.4460 -0.5762
56240SOL    HW186330   9.510   1.387  10.323 -0.7645  0.1693 -0.3957
56240SOL    HW286331   9.517   1.533  10.286 -0.3768 -0.1029 -1.4480
56241SOL     OW86332  10.676   7.581   5.256 -0.6217 -0.0136 -0.1211
56241SOL    HW186333  10.677   7.535   5.340  1.6967 -1.1060 -0.6701
56241SOL    HW286334  10.586   7.613   5.248 -1.1313 -0.5695  2.3755
56242SOL     OW86335  13.815   3.668   9.580  0.0792 -0.2346  0.0704
56242SOL    HW186336  13.800   3.742   9.521  0.9115  1.0067  1.3791
56242SOL    HW286337  13.808   3.704   9.668  0.9123 -1.6193  0.7501
56243SOL     OW86338   2.588  10.069  13.835 -0.7780 -0.4068  0.0912
56243SOL    HW186339   2.663  10.084  13.778 -1.4066  2.4633 -0.1467
56243SOL    HW286340   2.513  10.068  13.775 -1.0972 -1.6121  0.4889
56244SOL     OW86341   0.043   0.797  13.189  0.2323 -0.2627  0.0283
56244SOL    HW186342   0.018   0.840  13.108  2.2602 -0.1246 -0.5545
56244SOL    HW286343   0.013   0.706  13.178 -0.4109  0.0022 -0.4339
56245SOL     OW86344  12.156  14.018  10.527  0.0930  0.3835  0.1320
56245SOL    HW186345  12.102  14.081  10.478  1.3112  1.3154 -0.0791
56245SOL    HW286346  12.105  13.999  10.606 -1.4799 -0.4079 -1.0078
56246SOL     OW86347   4.988  11.676   6.345 -0.3084 -0.1475 -0.1335
56246SOL    HW186348   5.057  11.631   6.393  0.2466  0.2558 -0.5416
56246SOL    HW286349   4.917  11.685   6.408  0.4672  0.5238  0.6590
56247SOL     OW86350   1.186  12.885   6.727 -0.1398 -0.4544 -0.5627
56247SOL    HW186351   1.109  12.829   6.723 -0.3655 -0.2407  0.4247
56247SOL    HW286352   1.261  12.826   6.716 -0.1825 -1.5412  3.4331
56248SOL     OW86353   3.263   7.322   4.520  0.2980  0.0322 -0.5704
56248SOL    HW186354   3.357   7.311   4.539 -0.2526  0.2163  2.9660
56248SOL    HW286355   3.256   7.411   4.485  1.2509  0.9500  1.4042
56249SOL     OW86356   8.664   9.726   1.161 -0.0883  0.5825  0.1127
56249SOL    HW186357   8.725   9.664   1.121  0.7075  0.7913  0.9566
56249SOL    HW286358   8.605   9.672   1.214  1.0982  0.5523  1.4907
56250SOL     OW86359  13.988   8.468   0.391 -0.2774  0.0049  0.3941
56250SOL    HW186360  13.995   8.550   0.341 -2.1988  0.8524  1.4311
56250SOL    HW286361  13.979   8.400   0.324  2.5525  0.3960 -0.5398
56251SOL     OW86362  11.545   0.716  10.619  0.1591  0.0191 -0.0192
56251SOL    HW186363  11.527   0.746  10.529  0.4962 -1.7551 -0.7237
56251SOL    HW286364  11.585   0.630  10.607  1.6384  0.4142  1.8081
56252SOL     OW86365   0.148   5.630   7.697 -0.2144  0.3337 -0.2831
56252SOL    HW186366   0.068   5.650   7.745 -0.0940 -1.2968  0.6797
56252SOL    HW286367   0.191   5.563   7.750  1.0313  0.0756 -1.5736
56253SOL     OW86368   7.434   2.964   7.662 -0.0010  0.2758  0.3159
56253SOL    HW186369   7.385   3.031   7.709  1.9303 -0.9112  4.4303
56253SOL    HW286370   7.521   3.002   7.649  0.3265 -0.4720  0.2892
56254SOL     OW86371   2.585   4.649   2.746  0.3780  0.4760 -0.3430
56254SOL    HW186372   2.668   4.688   2.771  1.1220 -0.9818 -0.4463
56254SOL    HW286373   2.571   4.679   2.655 -0.7001  3.0715  0.5657
56255SOL     OW86374   2.315  10.985   8.343  0.1783  0.2586 -0.3743
56255SOL    HW186375   2.278  11.024   8.264  0.1519 -0.4319 -0.7015
56255SOL    HW286376   2.350  10.901   8.315  1.3739  0.5910  0.0739
56256SOL     OW86377   4.072   3.914   3.274 -0.4242 -0.2430 -0.4044
56256SOL    HW186378   4.041   3.924   3.184  0.0310  0.2467 -0.5149
56256SOL    HW286379   4.049   3.997   3.317 -0.5863 -0.4512 -0.0866
56257SOL     OW86380   4.223  11.475  13.069 -0.3728  0.1650 -0.2779
56257SOL    HW186381   4.148  11.418  13.053 -0.3210  0.2809 -1.0026
56257SOL    HW286382   4.237  11.519  12.985  0.8402 -0.2605 -0.3085
56258SOL     OW86383  12.334  10.135   0.852  0.3406  0.6223  0.4012
56258SOL    HW186384  12.388  10.067   0.893  0.5778  0.9220  0.5847
56258SOL    HW286385  12.340  10.115   0.758  1.4263  1.1219  0.3438
56259SOL     OW86386  11.663  11.616   7.985 -0.0104 -0.3338 -0.1089
56259SOL    HW186387  11.660  11.598   8.078  0.9770  2.6708  0.6397
56259SOL    HW286388  11.574  11.647   7.963  0.1770  0.4849  0.2467
56260SOL     OW86389  11.304  12.923   4.458 -0.1845  0.1517  0.2800
56260SOL    HW186390  11.221  12.944   4.416 -0.5220 -1.0646  0.2869
56260SOL    HW286391  11.282  12.904   4.549  0.1985  0.4789  0.4436
56261SOL     OW86392   4.410   8.754  11.530 -0.1190 -0.1927  0.0410
56261SOL    HW186393   4.431   8.678  11.474  1.0182 -0.4873  0.8165
56261SOL    HW286394   4.457   8.736  11.611  1.6283  2.1609 -0.3464
56262SOL     OW86395  13.933  11.188   0.131  0.2070 -0.0612 -0.7330
56262SOL    HW186396  13.963  11.242   0.204 -2.4121  2.2101 -1.2010
56262SOL    HW286397  13.946  11.098   0.161  0.5589  0.7921  1.9348
56263SOL     OW86398   6.762   5.423  12.362 -0.1047  0.1703  0.5337
56263SOL    HW186399   6.691   5.475  12.324  1.4159  1.0941 -1.2376
56263SOL    HW286400   6.811   5.391  12.286  1.9075  0.3715  1.6702
56264SOL     OW86401   1.644  12.676   6.569 -0.4082  0.2985 -0.2498
56264SOL    HW186402   1.665  12.583   6.578  0.9306  0.6051 -0.0192
56264SOL    HW286403   1.650  12.694   6.475 -2.2856 -0.1741 -0.5141
56265SOL     OW86404   1.017   0.370   8.648  0.1785  0.1972 -0.2543
56265SOL    HW186405   0.958   0.308   8.606  0.4672  0.2595 -0.7552
56265SOL    HW286406   0.984   0.456   8.623 -0.1520  0.2488  0.3439
56266SOL     OW86407   6.837  10.008   3.852  0.1514  0.0488 -0.1148
56266SOL    HW186408   6.820   9.924   3.894  1.7705  1.0814  2.9082
56266SOL    HW286409   6.766  10.065   3.881  0.7825  0.5370  0.4984
56267SOL     OW86410  12.162  12.672   1.152 -0.3680  0.3043  0.3084
56267SOL    HW186411  12.198  12.743   1.205  1.0408  0.8075 -1.2234
56267SOL    HW286412  12.087  12.712   1.106 -1.1350  0.0665  1.3099
56268SOL     OW86413  11.975   5.427   4.193  0.0922  0.0503  0.1414
56268SOL    HW186414  11.908   5.430   4.261  0.3768 -0.3827  0.4447
56268SOL    HW286415  12.056   5.406   4.239  0.4140  0.4281 -0.2424
56269SOL     OW86416   8.112   4.430   0.742 -0.6306 -0.2839  0.4013
56269SOL    HW186417   8.083   4.521   0.748  0.1996  0.0555 -0.5110
56269SOL    HW286418   8.136   4.407   0.832  0.6621  0.9261  0.4137
56270SOL     OW86419   5.467   9.448   1.994 -0.2230  0.3531 -0.5317
56270SOL    HW186420   5.434   9.515   2.055 -1.5437 -0.1372 -0.6691
56270SOL    HW286421   5.562   9.450   2.005 -0.2057  2.3505 -0.6291
56271SOL     OW86422  13.806   2.820   3.638 -0.1679 -0.1673  0.4071
56271SOL    HW186423  13.884   2.791   3.686 -0.5296 -0.6962  0.6927
56271SOL    HW286424  13.772   2.893   3.690 -0.2332 -0.3639  0.6429
56272SOL     OW86425  13.224  12.592   9.821 -0.1515 -0.1926 -0.4753
56272SOL    HW186426  13.171  12.518   9.853 -2.3638 -0.1772 -3.5791
56272SOL    HW286427  13.208  12.662   9.884  1.0746 -1.9368  1.9112
56273SOL     OW86428  13.072   1.878   2.609 -0.0045 -0.1117 -0.0794
56273SOL    HW186429  13.054   1.882   2.515  0.4445 -0.8812 -0.2033
56273SOL    HW286430  12.987   1.858   2.648  0.2522 -2.4234 -0.5587
56274SOL     OW86431  13.092   2.990   3.671  0.0283  0.5594  0.3220
56274SOL    HW186432  13.137   3.056   3.723  0.6111  0.8449 -0.5217
56274SOL    HW286433  13.100   3.021   3.581  1.7927 -1.4960 -0.3003
56275SOL     OW86434   1.047  10.619  10.286 -0.0869 -0.0324 -0.2212
56275SOL    HW186435   0.970  10.575  10.250  0.0664  0.0891 -0.6963
56275SOL    HW286436   1.023  10.637  10.377 -0.8369  0.4981 -0.5077
56276SOL     OW86437  11.850   1.024   3.657 -0.0165 -0.2029 -0.2890
56276SOL    HW186438  11.914   1.010   3.588  2.6003  1.3231  1.6413
56276SOL    HW286439  11.900   1.017   3.738 -2.3507  0.9568  1.3692
56277SOL     OW86440  12.465   5.713   1.414  0.4386  0.1758  0.4256
56277SOL    HW186441  12.543   5.673   1.375 -1.2787 -0.4805 -2.6940
56277SOL    HW286442  12.433   5.772   1.346 -1.7525  0.4830  1.6395
56278SOL     OW86443   7.436   0.458  10.779  0.4919  0.2705  0.0844
56278SOL    HW186444   7.382   0.528  10.742 -0.4890 -0.4207  0.1524
56278SOL    HW286445   7.520   0.499  10.796 -0.2885  1.6350  0.8417
56279SOL     OW86446   3.609   4.032  12.632  0.4265 -0.2921  0.2033
56279SOL    HW186447   3.677   3.976  12.670  0.6081 -0.9149 -0.9789
56279SOL    HW286448   3.527   3.991  12.659  0.5572 -1.0107 -0.4315
56280SOL     OW86449   2.255   4.255  11.149  0.5392 -0.1126  0.0671
56280SOL    HW186450   2.234   4.304  11.070 -0.0854 -1.1876 -0.4593
56280SOL    HW286451   2.349   4.268  11.161  0.3699  1.2725  0.0065
56281SOL     OW86452  12.831   0.189  12.616  0.0196 -0.2245 -0.5935
56281SOL    HW186453  12.921   0.221  12.624 -0.2889  0.6927 -0.5712
56281SOL    HW286454  12.794   0.241  12.544 -1.3695  1.5797  1.3173
56282SOL     OW86455  11.724   0.832   4.411 -0.0818  0.2251 -0.0960
56282SOL    HW186456  11.684   0.906   4.456 -0.4378 -0.1137  0.1529
56282SOL    HW286457  11.807   0.866   4.377 -0.0895  0.6479  0.3028
56283SOL     OW86458   0.355   2.082   4.696  0.1991 -0.2626 -0.4875
56283SOL    HW186459   0.313   2.027   4.762  1.1932 -1.5218 -0.8672
56283SOL    HW286460   0.361   2.026   4.618 -0.3478  0.9754 -1.4600
56284SOL     OW86461   3.607  12.279   7.994  0.0373 -0.5849 -0.6679
56284SOL    HW186462   3.552  12.357   7.991 -0.9527 -1.2906 -1.4575
56284SOL    HW286463   3.697  12.314   7.994 -0.3591  0.5885  0.8869
56285SOL     OW86464   8.268   6.242   8.712  0.1272 -0.1380 -0.0833
56285SOL    HW186465   8.280   6.258   8.806 -0.0699 -0.1757 -0.0505
56285SOL    HW286466   8.338   6.291   8.670  0.4755 -0.4670  0.1104
56286SOL     OW86467  13.767   7.081   8.502 -0.4123 -0.4556  0.5422
56286SOL    HW186468  13.701   7.052   8.438  2.0542  0.0743 -2.4748
56286SOL    HW286469  13.821   7.004   8.516  0.8525  0.2050 -0.4827
56287SOL     OW86470   6.162  10.391   0.693 -0.0418 -0.5566  0.0238
56287SOL    HW186471   6.096  10.422   0.755 -0.3470 -0.9942 -0.0801
56287SOL    HW286472   6.183  10.302   0.722 -0.9943 -1.1899 -1.1371
56288SOL     OW86473   9.863  13.097   6.308  0.4076 -0.2173 -0.2277
56288SOL    HW186474   9.781  13.060   6.276 -0.0035 -0.8667  1.4447
56288SOL    HW286475   9.876  13.177   6.256 -1.5638  0.1808 -0.1656
56289SOL     OW86476   9.613   5.293  13.883  0.1935  0.2603  0.0310
56289SOL    HW186477   9.528   5.311  13.924 -1.4682 -0.1996 -2.8991
56289SOL    HW286478   9.646   5.215  13.927 -1.4525 -0.1895  0.5238
56290SOL     OW86479   7.533  13.306   7.569 -0.0544 -0.3183 -0.1621
56290SOL    HW186480   7.473  13.273   7.503 -0.0785 -0.8170  0.1042
56290SOL    HW286481   7.485  13.301   7.651 -0.9457  2.6377 -0.3841
56291SOL     OW86482  10.278   7.730   3.099 -0.2938  0.0081  0.2889
56291SOL    HW186483  10.205   7.746   3.039 -0.6420 -1.1473  0.3727
56291SOL    HW286484  10.237   7.731   3.186  0.1253  1.2053  0.4886
56292SOL     OW86485   1.526   7.722   6.956 -0.2253  0.3006 -0.2506
56292SOL    HW186486   1.441   7.704   6.996  0.1880  1.6540  1.3172
56292SOL    HW286487   1.569   7.637   6.952 -0.3539  0.0619  2.0810
56293SOL     OW86488   1.625   1.771   1.360 -0.3500  0.1573 -0.3153
56293SOL    HW186489   1.661   1.684   1.345 -0.1212  0.0001  1.0412
56293SOL    HW286490   1.545   1.773   1.309 -1.6588 -1.7550  1.4927
56294SOL     OW86491  13.803   7.224   5.291 -0.2200  0.1812 -0.1456
56294SOL    HW186492  13.760   7.305   5.319  1.9441  0.4508  3.0322
56294SOL    HW286493  13.738   7.155   5.307 -1.4778  1.0653 -1.2396
56295SOL     OW86494   5.369  13.054   7.738 -0.0674 -0.0434 -0.5023
56295SOL    HW186495   5.355  12.961   7.722 -0.4367  0.3113 -2.5144
56295SOL    HW286496   5.457  13.059   7.775  0.0678 -1.1739 -0.6385
56296SOL     OW86497   0.213  10.950   6.356 -0.0279  0.0123 -0.2817
56296SOL    HW186498   0.308  10.949   6.340  0.2558  0.4936  1.1958
56296SOL    HW286499   0.195  11.038   6.389 -0.8611 -0.2998  0.1224
56297SOL     OW86500   8.948   2.034   8.212  0.1701  0.5670 -0.3503
56297SOL    HW186501   9.035   2.006   8.239  0.1018 -0.3836 -1.0771
56297SOL    HW286502   8.952   2.037   8.116 -0.6816  0.2355 -0.4089
56298SOL     OW86503  10.634  12.088   1.864  0.1710  0.1671  0.0287
56298SOL    HW186504  10.632  12.099   1.769  1.3535  0.3756  0.0167
56298SOL    HW286505  10.668  12.171   1.897 -0.3364  0.1356  0.6473
56299SOL     OW86506   7.316   0.179   8.644  0.3351 -0.8780  0.3939
56299SOL    HW186507   7.298   0.112   8.579 -1.8472  0.5949 -0.6207
56299SOL    HW286508   7.314   0.262   8.596 -0.4467  0.1978  2.1580
56300SOL     OW86509  12.149   4.309  10.891 -0.1145  0.2711 -0.0482
56300SOL    HW186510  12.070   4.280  10.938 -0.2824 -1.3608 -1.2579
56300SOL    HW286511  12.191   4.370  10.951 -0.2724 -1.7618  2.3112
56301SOL     OW86512   4.790   5.193   0.340 -0.4754  0.2298  0.2178
56301SOL    HW186513   4.782   5.186   0.245  1.5102  0.0612  0.0297
56301SOL    HW286514   4.843   5.271   0.354 -0.6265  0.1757  1.2009
56302SOL     OW86515   4.314   3.298   1.437 -0.6669  0.4800  0.0841
56302SOL    HW186516   4.257   3.329   1.508 -1.5336 -0.6635 -0.0819
56302SOL    HW286517   4.291   3.354   1.362 -0.4404  1.0532  0.4392
56303SOL     OW86518  13.336   0.727   6.423  0.8574  0.0569 -0.0036
56303SOL    HW186519  13.295   0.717   6.509  0.0163  2.7517 -0.0154
56303SOL    HW286520  13.430   0.734   6.442  0.6279  1.2393  0.7805
56304SOL     OW86521   0.230   7.673   3.264 -0.6128  0.1839  0.1687
56304SOL    HW186522   0.238   7.761   3.227 -1.0444  0.0608 -0.2280
56304SOL    HW286523   0.190   7.621   3.195 -0.7092 -0.2378  0.5323
56305SOL     OW86524   8.892   7.046   2.849 -0.2918 -0.5494 -0.4606
56305SOL    HW186525   8.819   6.987   2.869  0.2541 -1.2553 -0.5184
56305SOL    HW286526   8.903   7.038   2.754  0.3592 -1.0443 -0.3477
56306SOL     OW86527   2.374   3.395   9.559  0.3510 -0.4103  0.4920
56306SOL    HW186528   2.335   3.466   9.610 -0.7880  0.0287 -0.9393
56306SOL    HW286529   2.302   3.335   9.541  0.3587  0.2182 -1.8709
56307SOL     OW86530   0.182  13.458   4.914  0.1331  0.5461 -0.0719
56307SOL    HW186531   0.254  13.401   4.888  0.7250  1.2015  0.0923
56307SOL    HW286532   0.225  13.540   4.939 -0.7157  1.1553 -0.5831
56308SOL     OW86533   2.988   4.745  13.441  0.1725 -0.1323 -0.2125
56308SOL    HW186534   3.072   4.712  13.471 -0.0722 -1.4326 -0.8805
56308SOL    HW286535   2.965   4.813  13.504  1.8550  0.4754 -0.2049
56309SOL     OW86536   3.224   7.834   3.533  0.8664 -0.6776  0.0837
56309SOL    HW186537   3.131   7.844   3.511  1.3306  0.8737 -1.3465
56309SOL    HW286538   3.227   7.845   3.628 -0.4546 -1.2019  0.2047
56310SOL     OW86539   8.683  12.427   7.324  0.0937  0.6326 -0.0073
56310SOL    HW186540   8.668  12.373   7.402  1.5184  0.4744  0.1925
56310SOL    HW286541   8.600  12.425   7.277 -0.5003 -0.0639  1.0237
56311SOL     OW86542  13.099  11.211   2.539  0.4762 -0.4056 -0.1091
56311SOL    HW186543  13.167  11.221   2.472  0.4211 -1.6733 -0.3794
56311SOL    HW286544  13.042  11.287   2.526  0.7182 -0.3907 -1.2233
56312SOL     OW86545  11.598   6.708   1.064  0.3253 -0.0380 -0.0728
56312SOL    HW186546  11.602   6.698   1.159  0.3716  0.6848  0.0072
56312SOL    HW286547  11.521   6.657   1.038 -0.7525  1.1942  0.5804
56313SOL     OW86548   4.582   0.198  10.530  0.1433  0.0762 -0.4925
56313SOL    HW186549   4.652   0.184  10.594  1.4778 -1.6777 -2.2346
56313SOL    HW286550   4.604   0.282  10.490 -0.7348  1.2219  1.2792
56314SOL     OW86551   1.705   5.304   1.422  0.4221 -0.3550 -0.8677
56314SOL    HW186552   1.741   5.221   1.392  0.5985 -0.2666 -0.8981
56314SOL    HW286553   1.691   5.355   1.342  2.1578  0.4079 -0.7302
56315SOL     OW86554  14.064   6.873   8.871 -0.4133  0.4527  0.2688
56315SOL    HW186555  14.086   6.966   8.870  2.2924 -0.0821 -0.1462
56315SOL    HW286556  14.148   6.830   8.886 -1.6177 -1.9270  0.5656
56316SOL     OW86557   2.887   6.798   5.488  0.0623  0.2035  0.2373
56316SOL    HW186558   2.947   6.750   5.430  0.0753 -0.5622  0.8654
56316SOL    HW286559   2.801   6.788   5.446 -0.0562 -1.0018  0.7232
56317SOL     OW86560   2.512   7.938   2.976  0.3147  0.1310  0.7210
56317SOL    HW186561   2.472   7.941   3.063  0.2919 -1.7687  0.8046
56317SOL    HW286562   2.476   8.015   2.931  0.5550  1.3090  2.4586
56318SOL     OW86563   8.113   5.241   3.732  0.8631  0.0282 -1.2298
56318SOL    HW186564   8.023   5.243   3.699  0.7158  1.5596 -0.8134
56318SOL    HW286565   8.148   5.156   3.703 -0.4679 -0.2682 -2.0297
56319SOL     OW86566   5.446  14.014   4.985 -0.1667 -0.1463 -0.1155
56319SOL    HW186567   5.390  14.077   4.938 -2.1464 -0.5025  1.5909
56319SOL    HW286568   5.455  14.051   5.073  0.5285 -1.1614  0.2602
56320SOL     OW86569   9.399  13.126   1.587  0.4237  0.0755 -0.1487
56320SOL    HW186570   9.475  13.166   1.630 -0.3086 -0.2736  1.5767
56320SOL    HW286571   9.324  13.156   1.639 -0.4438 -0.9448 -0.7718
56321SOL     OW86572  12.307   9.883  11.310 -0.0702 -0.7794 -0.1460
56321SOL    HW186573  12.282   9.842  11.393  1.5725 -2.5781 -0.4595
56321SOL    HW286574  12.387   9.932  11.331 -0.5880  0.1495 -0.3246
56322SOL     OW86575   8.580   1.457   2.973 -0.0370 -0.2903  0.3686
56322SOL    HW186576   8.514   1.416   2.917  0.6115 -2.1520  0.9080
56322SOL    HW286577   8.640   1.500   2.912  0.2271 -1.6245 -0.3341
56323SOL     OW86578   4.913  11.398   5.643 -0.1816 -0.2912 -0.3435
56323SOL    HW186579   4.977  11.382   5.574  0.6573  0.3175  0.2701
56323SOL    HW286580   4.964  11.394   5.724 -1.1958 -1.2557  0.2671
56324SOL     OW86581   5.110  11.327   1.614  0.0611 -0.1455  0.2409
56324SOL    HW186582   5.129  11.414   1.580 -0.0249 -0.3497 -0.3372
56324SOL    HW286583   5.034  11.340   1.671 -1.6996 -0.2469 -1.9428
56325SOL     OW86584  12.655   6.002   8.440  0.5852  0.4696  0.2945
56325SOL    HW186585  12.702   6.033   8.517  1.9570  2.6127 -1.2766
56325SOL    HW286586  12.725   5.977   8.379 -0.4791 -2.2192  0.0842
56326SOL     OW86587   4.709   5.605  11.030  0.2081 -0.0501  0.0418
56326SOL    HW186588   4.692   5.555  11.110 -0.3227  0.3574  0.1874
56326SOL    HW286589   4.627   5.601  10.982  0.1877  0.6216  0.0175
56327SOL     OW86590   2.963   1.044   9.977  0.3936 -0.1180 -0.7975
56327SOL    HW186591   2.945   1.138   9.990 -1.7225 -0.3832 -1.3405
56327SOL    HW286592   2.945   1.004  10.062  4.0847  0.2179  0.2930
56328SOL     OW86593   7.057  11.277   4.648  0.0612  0.1431  0.4597
56328SOL    HW186594   7.046  11.344   4.580  3.9486  1.8768  1.2430
56328SOL    HW286595   6.976  11.280   4.698 -0.3263  3.7394 -0.0880
56329SOL     OW86596   0.976   3.840  13.652 -0.4139  0.0126 -0.4782
56329SOL    HW186597   0.905   3.898  13.624  0.7313  0.7040 -2.1021
56329SOL    HW286598   0.943   3.752  13.635 -0.6199  0.3511 -1.9482
56330SOL     OW86599   6.487  13.241  10.000  0.1449  0.3713  0.1080
56330SOL    HW186600   6.451  13.174   9.942 -1.1387  1.1607 -0.0684
56330SOL    HW286601   6.522  13.192  10.075 -1.6457 -0.4698  0.4546
56331SOL     OW86602  12.458  10.547  10.538  0.0909 -0.1223  0.1314
56331SOL    HW186603  12.541  10.592  10.554  0.2294 -0.0341 -0.7900
56331SOL    HW286604  12.481  10.475  10.480 -0.3474 -0.6062  0.5461
56332SOL     OW86605   1.821  12.525  10.545 -0.1401 -0.3058  0.0237
56332SOL    HW186606   1.816  12.522  10.450 -0.2061  0.3696  0.0034
56332SOL    HW286607   1.905  12.567  10.563  1.1143 -2.7225  0.2950
56333SOL     OW86608   6.219   1.782   7.687 -0.4192 -0.4155  0.3673
56333SOL    HW186609   6.157   1.712   7.665 -1.1690  0.8512 -1.9829
56333SOL    HW286610   6.288   1.773   7.621  0.2055  0.1880  0.9331
56334SOL     OW86611   1.309  10.045   4.789  0.0013 -0.5638 -0.8949
56334SOL    HW186612   1.219  10.069   4.810 -0.0046 -0.4590 -1.0370
56334SOL    HW286613   1.343  10.004   4.869 -0.1557 -0.5561 -0.8254
56335SOL     OW86614   9.594   6.932   1.155 -0.1037  0.4779  0.3841
56335SOL    HW186615   9.521   6.872   1.141 -0.2364  0.8938 -0.8766
56335SOL    HW286616   9.667   6.876   1.180 -0.5307 -0.0842  0.3930
56336SOL     OW86617   1.681   9.880   3.303 -0.0602 -0.5563 -0.2257
56336SOL    HW186618   1.752   9.944   3.304  0.9010 -1.4505  3.3720
56336SOL    HW286619   1.607   9.925   3.343 -0.0841 -0.9473  0.1877
56337SOL     OW86620   1.059   2.891   2.206  0.1276 -0.0437 -0.8306
56337SOL    HW186621   1.023   2.979   2.197  0.7878  0.2854 -0.3848
56337SOL    HW286622   1.121   2.882   2.134  1.3482  0.5295  0.1055
56338SOL     OW86623   0.316   6.774   8.244  0.0372  0.1315  0.6068
56338SOL    HW186624   0.409   6.790   8.256 -0.0775  0.2839  1.3628
56338SOL    HW286625   0.273   6.843   8.294 -0.4848  0.3030 -0.0640
56339SOL     OW86626   3.053   5.899   0.265 -0.0605  0.2445 -0.3071
56339SOL    HW186627   3.036   5.843   0.340 -0.0646  1.2550  0.4719
56339SOL    HW286628   2.973   5.895   0.213 -1.2374  1.7709  1.2393
56340SOL     OW86629   0.253   0.725   7.421  0.6941 -0.9245  0.5514
56340SOL    HW186630   0.338   0.694   7.453  1.1710 -0.7010 -0.4581
56340SOL    HW286631   0.273   0.806   7.374  0.1540 -1.6498 -1.0013
56341SOL     OW86632   9.872  13.792   6.189  0.3634  0.0854  0.0760
56341SOL    HW186633   9.805  13.830   6.246 -0.3532 -2.1448  0.8441
56341SOL    HW286634   9.827  13.776   6.106  0.2617 -0.3081  0.2028
56342SOL     OW86635  11.886   6.814  10.354 -0.0773 -0.1074  0.1221
56342SOL    HW186636  11.954   6.879  10.337  0.9314 -1.5797 -2.1182
56342SOL    HW286637  11.877   6.812  10.449  2.7270  0.4572  0.4895
56343SOL     OW86638   7.890  12.956   7.354  0.0772 -0.7817 -0.1634
56343SOL    HW186639   7.862  13.028   7.410  1.7560 -0.5393  0.4229
56343SOL    HW286640   7.848  12.972   7.270 -2.4035 -1.0829  0.9468
56344SOL     OW86641   4.722  10.296  12.817 -0.3342  0.5920  0.0434
56344SOL    HW186642   4.715  10.246  12.899  1.2914 -0.1149 -0.1917
56344SOL    HW286643   4.813  10.327  12.816 -1.1497  3.1678 -0.0832
56345SOL     OW86644   6.819  12.613   7.937  0.3171 -0.5634  0.1450
56345SOL    HW186645   6.818  12.592   7.843 -0.3242 -1.0992  0.2653
56345SOL    HW286646   6.728  12.637   7.956  0.2167 -1.4565  0.8489
56346SOL     OW86647   9.044  10.452   0.590  0.1306 -0.1374  0.2434
56346SOL    HW186648   9.101  10.513   0.541  0.9795 -1.3007 -0.2572
56346SOL    HW286649   8.996  10.509   0.650  0.1553  1.1646 -0.8966
56347SOL     OW86650   0.925   4.199   6.274  0.5805  0.2082  0.2532
56347SOL    HW186651   0.951   4.144   6.200 -0.1464 -0.7984  0.7211
56347SOL    HW286652   0.849   4.154   6.311  0.3004  1.2556  0.9846
56348SOL     OW86653  11.500   3.675   8.598 -0.1195 -0.0024 -0.5796
56348SOL    HW186654  11.531   3.742   8.537 -1.4980  0.8595 -0.3724
56348SOL    HW286655  11.405   3.679   8.592 -0.2528 -1.0678  0.4006
56349SOL     OW86656  11.862  14.027  12.228 -0.7288 -0.0616 -0.6215
56349SOL    HW186657  11.925  14.098  12.242 -1.8650  1.1289 -1.3420
56349SOL    HW286658  11.848  14.027  12.134 -2.4174  0.2568 -0.3898
56350SOL     OW86659  12.129   6.529   1.131  0.4188  0.1263 -0.0078
56350SOL    HW186660  12.068   6.493   1.066  1.3958 -1.6026 -0.0325
56350SOL    HW286661  12.105   6.486   1.213  0.8613  0.3260  0.2265
56351SOL     OW86662   6.113   1.588  12.888  0.3307  0.0667  0.0711
56351SOL    HW186663   6.020   1.572  12.875  0.8653 -2.8879 -0.7037
56351SOL    HW286664   6.144   1.513  12.939  2.5027  0.3201 -0.7440
56352SOL     OW86665   9.193  12.856  14.069 -0.0008 -0.6385 -0.4808
56352SOL    HW186666   9.281  12.819  14.058 -0.0055  0.0179 -3.4697
56352SOL    HW286667   9.209  12.942  14.109  0.9735  0.2715 -2.6687
56353SOL     OW86668  12.964   6.380   9.659 -0.1205 -0.1478  0.0435
56353SOL    HW186669  12.988   6.467   9.627 -0.2847 -0.3535 -0.6513
56353SOL    HW286670  13.044   6.346   9.698  0.2037 -0.0479 -0.5153
56354SOL     OW86671  11.640   5.812  11.898 -0.3853 -0.6987  0.1728
56354SOL    HW186672  11.681   5.806  11.812 -0.3934 -3.9201  0.2795
56354SOL    HW286673  11.646   5.904  11.921  2.5489 -0.2537 -1.8401
56355SOL     OW86674  10.408   3.918   5.905 -0.8948  0.4742 -0.4246
56355SOL    HW186675  10.377   3.991   5.959 -1.3269  0.4622 -0.6492
56355SOL    HW286676  10.338   3.905   5.840 -0.3133  0.5940 -1.0867
56356SOL     OW86677   1.638   5.741  12.977  0.1852  0.3402  0.2614
56356SOL    HW186678   1.721   5.695  12.959 -0.1432 -0.0041 -0.4103
56356SOL    HW286679   1.599   5.691  13.049  0.6542  0.6280  0.7232
56357SOL     OW86680  11.870   2.419  13.404  0.1747 -0.2179  0.0962
56357SOL    HW186681  11.830   2.440  13.489 -1.0163  0.4652 -0.5942
56357SOL    HW286682  11.909   2.502  13.375  0.0828 -0.3040 -0.2740
56358SOL     OW86683  13.440  13.424  14.070  0.2997  0.1048  0.6795
56358SOL    HW186684  13.450  13.395  14.161 -0.1931 -0.2047  0.6400
56358SOL    HW286685  13.441  13.342  14.019  3.2078  0.3765  0.1223
56359SOL     OW86686   9.482   3.971   6.489 -0.4622 -0.8290 -0.2477
56359SOL    HW186687   9.469   3.895   6.545  2.7727 -0.8222  0.7310
56359SOL    HW286688   9.539   3.939   6.418 -1.5164  0.0176 -1.5256
56360SOL     OW86689  13.501   3.163   0.216  0.0233 -0.4705  0.3149
56360SOL    HW186690  13.487   3.207   0.132 -0.9651 -0.2311  0.6027
56360SOL    HW286691  13.445   3.085   0.212 -0.3923 -0.2073  0.9434
56361SOL     OW86692   8.166  11.113   1.101  0.4734 -0.2647 -0.4431
56361SOL    HW186693   8.233  11.179   1.082 -0.7383  1.1424  0.0838
56361SOL    HW286694   8.112  11.111   1.022  2.3144 -3.0310 -1.8405
56362SOL     OW86695  13.343   9.207  11.795  0.3673 -0.3635 -0.7828
56362SOL    HW186696  13.368   9.235  11.883  0.8956 -2.7569 -0.0952
56362SOL    HW286697  13.248   9.212  11.795  0.4156  0.9687 -0.5769
56363SOL     OW86698  12.109   1.533   5.742 -0.1485  0.6853 -0.1189
56363SOL    HW186699  12.098   1.561   5.833 -3.2447  0.0683 -0.1712
56363SOL    HW286700  12.173   1.462   5.746  0.1038  0.9635  1.5034
56364SOL     OW86701   0.018   3.911  12.583  0.0146 -0.0323  0.2876
56364SOL    HW186702   0.029   3.946  12.671  2.0206  1.1070 -0.3525
56364SOL    HW286703  -0.061   3.954  12.549  0.2601  0.9028  0.8916
56365SOL     OW86704  12.762   9.245   9.330 -0.0511 -0.3557 -0.4206
56365SOL    HW186705  12.677   9.281   9.306 -0.4141 -0.1687  1.0310
56365SOL    HW286706  12.779   9.281   9.417 -0.5629 -3.8231  1.2852
56366SOL     OW86707   3.082   9.579  13.176 -0.6462 -0.2443  0.5676
56366SOL    HW186708   3.044   9.491  13.181 -1.5928  0.1305  0.0229
56366SOL    HW286709   3.077   9.603  13.084  0.6539 -0.0565  0.5225
56367SOL     OW86710  13.475   2.221   4.553  0.2369 -0.2496  0.0209
56367SOL    HW186711  13.556   2.263   4.581  0.0837  0.1911 -0.1929
56367SOL    HW286712  13.426   2.206   4.633  0.4767 -0.4090  0.1391
56368SOL     OW86713  12.402   2.131   0.620 -0.6085  0.0081  0.2844
56368SOL    HW186714  12.348   2.062   0.581  0.9950 -0.8893 -0.4492
56368SOL    HW286715  12.451   2.085   0.689  0.6287  0.3397 -0.3500
56369SOL     OW86716  10.122  10.855   7.985  0.0605  0.1160 -0.0485
56369SOL    HW186717  10.105  10.862   7.891  0.9256 -0.0864 -0.2253
56369SOL    HW286718  10.151  10.764   7.998  1.5789  0.6009  0.1338
56370SOL     OW86719   3.271   6.188   7.683  0.2472  0.2651  0.0337
56370SOL    HW186720   3.357   6.179   7.724 -0.4409 -2.1536  1.1359
56370SOL    HW286721   3.218   6.234   7.749  0.1495 -0.1480  0.2441
56371SOL     OW86722  13.008   5.544   9.852  0.2655  0.2465  0.2899
56371SOL    HW186723  13.091   5.572   9.890  0.0582  0.8299  0.3227
56371SOL    HW286724  12.972   5.623   9.812 -0.4967  0.1122  0.6954
56372SOL     OW86725  12.194   8.079   8.437 -0.2118  0.0578  0.2615
56372SOL    HW186726  12.195   8.136   8.361 -0.1285  0.3780  0.4990
56372SOL    HW286727  12.131   8.120   8.497 -1.8736 -1.3008 -0.4762
56373SOL     OW86728   4.086   4.050  13.066  0.2668 -0.1512  0.2030
56373SOL    HW186729   4.009   4.008  13.027 -0.9896  3.6207 -1.8537
56373SOL    HW286730   4.159   3.993  13.041 -1.3511 -1.6213 -1.5244
56374SOL     OW86731   8.891   7.922   2.963 -0.1078  0.7488  0.2946
56374SOL    HW186732   8.853   7.881   2.886 -0.5963 -0.7398  1.2893
56374SOL    HW286733   8.968   7.868   2.984  0.2078  1.3296  0.6707
56375SOL     OW86734  12.521  10.802   3.955  0.1022  0.0323 -0.3912
56375SOL    HW186735  12.542  10.894   3.941  0.0068 -0.1504 -1.9049
56375SOL    HW286736  12.602  10.764   3.989 -0.5852  1.1418  2.9226
56376SOL     OW86737  10.796  11.104   8.279 -0.7602 -0.2957  0.6675
56376SOL    HW186738  10.836  11.127   8.363 -2.0726  0.6142  1.0802
56376SOL    HW286739  10.871  11.087   8.221  0.1683 -1.4231  2.1176
56377SOL     OW86740   3.032   8.919  10.848  0.5665  0.2070 -0.1530
56377SOL    HW186741   3.056   9.001  10.806 -0.3980 -0.0222 -1.1785
56377SOL    HW286742   3.068   8.926  10.937  3.5268  0.2961 -1.2434
56378SOL     OW86743   3.425  13.961   4.332  0.2748 -0.4365  0.1432
56378SOL    HW186744   3.495  13.970   4.267 -0.0439 -0.5744 -0.2239
56378SOL    HW286745   3.403  14.052   4.355 -0.5063 -0.3352 -0.9243
56379SOL     OW86746   3.289  13.722  11.825  0.0763  0.4339 -0.4129
56379SOL    HW186747   3.310  13.806  11.867 -0.0785  1.2386 -1.8842
56379SOL    HW286748   3.215  13.742  11.767 -0.8835 -1.0425  0.2455
56380SOL     OW86749   4.400  13.029   8.720 -0.1637  0.0909 -0.1631
56380SOL    HW186750   4.483  13.072   8.697  0.5110 -0.9002  0.3587
56380SOL    HW286751   4.339  13.059   8.652  0.2830  1.8070  0.1321
56381SOL     OW86752   1.705   9.977   8.563 -0.2275  0.0552 -0.2447
56381SOL    HW186753   1.801   9.976   8.564 -0.2226  0.6285 -0.2014
56381SOL    HW286754   1.680   9.981   8.655 -0.3420 -2.9436 -0.0441
56382SOL     OW86755   6.187   1.913  13.146 -0.2054 -0.1483 -0.0652
56382SOL    HW186756   6.151   1.968  13.215  0.8333  0.0788  0.3041
56382SOL    HW286757   6.154   1.826  13.165 -0.9170  0.1291  0.0067
56383SOL     OW86758   3.026  10.099  13.210  0.3896  0.4297 -0.0819
56383SOL    HW186759   2.960  10.130  13.148  0.5288  0.4222 -0.2328
56383SOL    HW286760   3.032  10.168  13.275  0.1907  0.4054 -0.0357
56384SOL     OW86761  12.801  11.309   3.635 -0.2858 -0.2381  0.5559
56384SOL    HW186762  12.714  11.332   3.600 -0.6940  0.2355  1.8496
56384SOL    HW286763  12.861  11.332   3.565 -1.1651 -0.2072 -0.2175
56385SOL     OW86764   0.124   8.243   2.829  0.2350 -0.2562 -0.1772
56385SOL    HW186765   0.180   8.190   2.772  0.0511 -0.2309 -0.3787
56385SOL    HW286766   0.035   8.214   2.809  0.2886 -2.4238  2.1920
56386SOL     OW86767   4.342  13.882  10.208 -0.0440  0.3720 -0.4258
56386SOL    HW186768   4.332  13.808  10.269 -2.7523 -1.9711 -3.3665
56386SOL    HW286769   4.431  13.912  10.221  0.9250 -2.8988  1.5663
56387SOL     OW86770   5.942  11.378  13.811 -0.4923 -0.2968  0.0110
56387SOL    HW186771   5.856  11.384  13.852 -1.2426 -3.4110 -0.7997
56387SOL    HW286772   5.926  11.401  13.719  0.0120  1.1081  0.2513
56388SOL     OW86773  11.656   1.557  12.543 -0.0015  0.0329  0.2298
56388SOL    HW186774  11.663   1.479  12.488  0.6900  0.2050  0.0625
56388SOL    HW286775  11.583   1.538  12.602 -0.1541 -0.5376 -0.1315
56389SOL     OW86776   8.370   6.150  11.653 -0.5584 -0.2219 -0.0361
56389SOL    HW186777   8.296   6.145  11.713 -0.1355  0.2656  0.5354
56389SOL    HW286778   8.359   6.234  11.608  1.1015  1.2250  2.0342
56390SOL     OW86779   2.856   8.608  11.186  0.2319 -0.3784  0.0400
56390SOL    HW186780   2.875   8.515  11.172  1.6049 -0.2049  0.5398
56390SOL    HW286781   2.807   8.635  11.109 -0.0762 -1.4815 -0.1717
56391SOL     OW86782  12.912   8.595   2.922 -0.6149  0.2333 -0.0202
56391SOL    HW186783  12.913   8.584   3.017 -0.0251 -0.4325 -0.0949
56391SOL    HW286784  12.928   8.688   2.908 -1.3896  0.4651  0.5420
56392SOL     OW86785   3.237  11.920   2.024  0.2034 -0.8755  0.0301
56392SOL    HW186786   3.195  11.893   1.942 -2.6167  0.3521  0.9713
56392SOL    HW286787   3.245  11.839   2.074 -0.4449 -1.2366 -0.4342
56393SOL     OW86788  14.005   0.821  12.031 -0.1728  0.0884  0.2026
56393SOL    HW186789  14.071   0.755  12.009  0.6223  1.1123 -0.5778
56393SOL    HW286790  13.947   0.777  12.093 -0.1051 -1.6010 -0.8645
56394SOL     OW86791   5.042  11.489   6.771 -0.5496  0.0742 -0.3208
56394SOL    HW186792   4.960  11.532   6.792  0.4061  1.9365 -0.1440
56394SOL    HW286793   5.072  11.532   6.691  0.5799 -0.0676  0.0038
56395SOL     OW86794   7.755   3.759   0.130  0.4382 -0.1045  0.1745
56395SOL    HW186795   7.848   3.742   0.143  0.6083 -0.2542 -1.1591
56395SOL    HW286796   7.736   3.727   0.042 -0.9154 -0.2220  0.4879
56396SOL     OW86797  11.104   5.406  11.697  0.1296  0.1808 -0.3247
56396SOL    HW186798  11.186   5.356  11.696  0.6821  1.0331 -2.3897
56396SOL    HW286799  11.098   5.439  11.787  1.9722 -0.0264 -0.0783
56397SOL     OW86800  13.301   2.071   0.557 -0.1097 -0.6303 -0.1432
56397SOL    HW186801  13.372   2.065   0.493  0.4823 -0.0287  0.4401
56397SOL    HW286802  13.270   2.161   0.550  0.1869 -0.4627  0.6567
56398SOL     OW86803   2.025   7.502   1.629 -0.3261 -0.0827  0.0432
56398SOL    HW186804   1.987   7.417   1.649 -0.7090 -0.0794 -0.6398
56398SOL    HW286805   2.111   7.481   1.592 -0.3277 -0.1584  0.0822
56399SOL     OW86806   7.076   1.877  13.602  0.4301  0.3616 -0.1535
56399SOL    HW186807   7.128   1.920  13.535  0.5344 -1.3400 -1.2253
56399SOL    HW286808   7.037   1.949  13.652  1.0618  1.6743 -1.4692
56400SOL     OW86809   2.816   4.754   7.950 -0.4360 -0.0131 -0.0060
56400SOL    HW186810   2.850   4.829   7.901  0.4519  0.4178  1.1987
56400SOL    HW286811   2.875   4.747   8.026 -1.3270 -1.0911  0.6150
56401SOL     OW86812  13.033   6.507   7.188 -0.7058 -0.6149  0.0739
56401SOL    HW186813  13.055   6.526   7.097 -0.2123  0.4541  0.4016
56401SOL    HW286814  13.117   6.504   7.233 -1.0259  0.6732  0.8170
56402SOL     OW86815   5.801  12.355   6.792  0.5420 -0.0766  0.1238
56402SOL    HW186816   5.824  12.262   6.787 -1.6015 -0.6196 -0.2676
56402SOL    HW286817   5.871  12.399   6.743  1.6079 -1.4552  0.3498
56403SOL     OW86818   1.531  10.648   6.931 -0.0186  0.1306 -0.6966
56403SOL    HW186819   1.518  10.576   6.992  0.9962 -0.4911 -1.1877
56403SOL    HW286820   1.625  10.648   6.912  0.1175  2.0081 -0.2099
56404SOL     OW86821  13.268   5.556  11.415  0.0090 -0.6710  0.0922
56404SOL    HW186822  13.301   5.639  11.450  0.2283 -0.2555 -1.0672
56404SOL    HW286823  13.323   5.539  11.338  0.0958 -1.9961  0.4250
56405SOL     OW86824   8.603   1.633   0.279  0.0980 -0.1252 -0.0283
56405SOL    HW186825   8.528   1.684   0.310  1.9505  1.4161  2.2881
56405SOL    HW286826   8.611   1.562   0.343 -0.0039 -0.9620 -0.9128
56406SOL     OW86827   7.353   2.005   1.941  0.3575  0.3165 -0.3726
56406SOL    HW186828   7.333   1.934   2.001  0.4832  0.1024 -0.5846
56406SOL    HW286829   7.268   2.036   1.910 -0.0759  3.1933  3.0526
56407SOL     OW86830   4.952   3.317  11.388 -0.0165  0.4120  0.7432
56407SOL    HW186831   4.989   3.387  11.335  1.9817 -0.2769  1.1364
56407SOL    HW286832   4.939   3.244  11.327  0.1522  0.3561  0.7731
56408SOL     OW86833   0.082  10.261  13.323  0.4081 -0.6521  0.1102
56408SOL    HW186834   0.178  10.269  13.319  0.6380 -0.8121  3.1282
56408SOL    HW286835   0.067  10.168  13.341 -0.1382 -0.2492  1.9158
56409SOL     OW86836   7.369   2.227  11.177 -0.0922 -0.1529 -0.0260
56409SOL    HW186837   7.404   2.296  11.233  1.6965 -0.9263 -0.1026
56409SOL    HW286838   7.373   2.148  11.232 -1.5530 -0.3107 -0.1238
56410SOL     OW86839  10.071   8.382   7.834  0.1250 -0.0144  0.3744
56410SOL    HW186840  10.034   8.354   7.751 -0.3367 -0.6706  0.7922
56410SOL    HW286841  10.082   8.477   7.824 -2.0133  0.2977  0.3383
56411SOL     OW86842   2.471   8.808   9.492 -0.1766 -0.1312  0.2511
56411SOL    HW186843   2.563   8.834   9.487  0.2913 -1.6131  0.6438
56411SOL    HW286844   2.424   8.887   9.517  0.7612  1.0740 -1.6067
56412SOL     OW86845   6.939   2.338   2.687  0.7878 -0.3259  0.0860
56412SOL    HW186846   6.943   2.246   2.659  0.3553 -0.7285  1.2910
56412SOL    HW286847   6.958   2.336   2.781 -2.2378  0.4363  0.8180
56413SOL     OW86848   1.791   5.483   4.022  0.1305  0.7363  0.0834
56413SOL    HW186849   1.729   5.416   4.050 -0.8123  1.4540 -0.2578
56413SOL    HW286850   1.837   5.443   3.948 -1.3210  0.9175 -0.9526
56414SOL     OW86851  10.863  11.209   2.970 -0.2360  0.1651 -0.2770
56414SOL    HW186852  10.803  11.282   2.958 -1.5646 -0.7043  0.7899
56414SOL    HW286853  10.917  11.234   3.046 -1.5396 -0.4630  0.8920
56415SOL     OW86854   2.879  10.413   7.483 -0.2149 -0.2877  0.7156
56415SOL    HW186855   2.972  10.394   7.474 -0.4611 -1.0068 -0.5066
56415SOL    HW286856   2.873  10.509   7.482  0.2827 -0.1934 -2.3999
56416SOL     OW86857  13.171   7.100  10.927 -0.2680 -0.0316 -0.4491
56416SOL    HW186858  13.226   7.034  10.968  0.5212  1.3624  0.8509
56416SOL    HW286859  13.233   7.163  10.891 -1.0052  0.3170 -1.1299
56417SOL     OW86860   5.731   3.034   3.711  0.1994  0.1268 -0.6139
56417SOL    HW186861   5.811   2.984   3.721  0.3353  0.5335  0.4099
56417SOL    HW286862   5.739   3.106   3.774 -1.8807 -1.0281  1.1113
56418SOL     OW86863   5.558  13.467  10.784 -0.1001 -0.6552  0.2923
56418SOL    HW186864   5.628  13.410  10.753 -1.2373 -2.0628  0.1991
56418SOL    HW286865   5.550  13.446  10.877  0.5354  0.5359  0.6279
56419SOL     OW86866  10.049  11.937   4.931  0.1883  0.3260 -0.7634
56419SOL    HW186867   9.993  11.865   4.903 -1.5562  0.5575  1.8547
56419SOL    HW286868  10.089  11.906   5.012  1.7086  1.2549 -1.1209
56420SOL     OW86869   8.820  11.125  10.997 -0.2415  0.1325  0.1337
56420SOL    HW186870   8.850  11.140  11.087 -1.7039 -2.4532  1.1616
56420SOL    HW286871   8.749  11.187  10.984 -1.0466 -0.4873  1.3847
56421SOL     OW86872  11.998   4.921   6.496  0.3316 -0.3277  0.0415
56421SOL    HW186873  11.999   4.859   6.570 -2.4000 -1.1339 -0.4723
56421SOL    HW286874  11.984   5.006   6.537  0.3027 -0.5685  0.5448
56422SOL     OW86875   2.814   8.380  13.035  0.0219 -0.1690  0.5483
56422SOL    HW186876   2.799   8.356  12.944 -0.7742 -0.0541  0.6453
56422SOL    HW286877   2.728   8.405  13.069  0.5253  1.1961  0.9212
56423SOL     OW86878  11.495  10.908   5.483  0.3441  0.3186  0.1183
56423SOL    HW186879  11.449  10.825   5.489  0.6216  0.0791 -0.8584
56423SOL    HW286880  11.444  10.960   5.421  2.2531 -0.6020 -2.4116
56424SOL     OW86881  10.849  10.699   1.691 -0.1580  0.1051  0.3575
56424SOL    HW186882  10.895  10.632   1.640  2.8947  0.6593  2.1451
56424SOL    HW286883  10.799  10.649   1.755  0.5860 -0.5155  0.4740
56425SOL     OW86884  11.612   3.916   9.080 -0.0220  0.0007  0.0433
56425SOL    HW186885  11.553   3.892   9.153 -0.0705 -0.9461 -0.2870
56425SOL    HW286886  11.555   3.918   9.003 -0.1610  1.9676  0.1525
56426SOL     OW86887   7.412   7.253   4.768  0.2048  0.1239 -0.1034
56426SOL    HW186888   7.495   7.289   4.801 -0.2558  1.1355 -0.0171
56426SOL    HW286889   7.346   7.318   4.792 -0.7933 -1.1566  0.7776
56427SOL     OW86890   9.946   6.003   7.028  0.1631 -0.0930  0.4221
56427SOL    HW186891   9.983   6.006   6.940 -0.6272  0.2238  0.0993
56427SOL    HW286892  10.023   5.991   7.085  0.7435  0.3449 -0.2487
56428SOL     OW86893   9.873  11.819  12.244  0.5152  0.1384 -0.6315
56428SOL    HW186894   9.858  11.732  12.209 -0.7156  1.0606 -2.5366
56428SOL    HW286895   9.790  11.843  12.285  0.5984  0.6916 -0.7747
56429SOL     OW86896   6.756  13.178   7.100 -0.2484  0.1272 -0.4395
56429SOL    HW186897   6.663  13.178   7.079 -0.3136  0.2191 -0.1602
56429SOL    HW286898   6.760  13.211   7.190  0.2006  1.8705 -1.0661
56430SOL     OW86899   5.967   6.866   1.070 -0.0004 -0.1093 -0.5077
56430SOL    HW186900   6.040   6.814   1.036 -0.1451 -0.5898 -0.0933
56430SOL    HW286901   5.979   6.865   1.165 -0.0310  0.5808 -0.4931
56431SOL     OW86902   5.272   6.835   8.712  0.0131  0.3562 -0.1037
56431SOL    HW186903   5.247   6.869   8.626 -0.0374  0.2942 -0.1135
56431SOL    HW286904   5.336   6.898   8.746  0.0935  0.3379 -0.2210
56432SOL     OW86905   8.095   1.412   8.662 -0.7084  0.5729  0.2065
56432SOL    HW186906   8.044   1.381   8.737  0.2930 -1.6581  0.0441
56432SOL    HW286907   8.063   1.501   8.647 -1.8944  0.5949  2.4060
56433SOL     OW86908   9.658  11.238   7.802 -0.2390 -0.9608  0.0681
56433SOL    HW186909   9.590  11.183   7.762  0.0572 -1.2324 -0.0640
56433SOL    HW286910   9.677  11.304   7.735  0.0684 -1.2583 -0.1445
56434SOL     OW86911  11.345  12.214   6.390  0.7782 -0.5587 -0.1999
56434SOL    HW186912  11.439  12.210   6.405  0.7077 -0.5180  0.2786
56434SOL    HW286913  11.306  12.181   6.471  0.3684  0.3231 -0.0130
56435SOL     OW86914  12.985   2.620   8.167 -0.5449 -0.1681  0.1075
56435SOL    HW186915  13.074   2.594   8.142 -0.5592 -2.6093  2.1453
56435SOL    HW286916  12.938   2.625   8.084  1.0616 -0.5900 -0.8888
56436SOL     OW86917   7.493   2.015   2.800 -0.0656  0.1477  0.1295
56436SOL    HW186918   7.583   1.990   2.821  0.3896  2.5528  1.3049
56436SOL    HW286919   7.446   1.931   2.794  1.6124 -1.0560  2.4127
56437SOL     OW86920   6.588   4.719  12.116 -0.1641 -0.4172 -0.1380
56437SOL    HW186921   6.552   4.630  12.120 -2.4542  0.2714 -2.6132
56437SOL    HW286922   6.613   4.738  12.206 -0.8817 -3.0482  0.7280
56438SOL     OW86923   3.322   0.421  12.131 -0.0077  0.0376  0.1936
56438SOL    HW186924   3.397   0.480  12.136 -0.3216  0.3436  2.2072
56438SOL    HW286925   3.349   0.352  12.071  1.3918  0.8078 -0.1018
56439SOL     OW86926  12.448   5.697  12.686  0.8617 -0.5175 -0.3204
56439SOL    HW186927  12.514   5.735  12.744 -0.5628  0.8332  0.4878
56439SOL    HW286928  12.404   5.772  12.647 -1.2053 -1.3047  0.3535
56440SOL     OW86929   0.600   6.962  11.312  0.2262 -0.4122 -0.1079
56440SOL    HW186930   0.689   6.987  11.286  1.3465 -1.6471  2.1667
56440SOL    HW286931   0.594   6.869  11.289 -0.2502 -0.4768  0.2609
56441SOL     OW86932  11.913   5.501   6.030  0.2481  0.4333  0.5660
56441SOL    HW186933  11.858   5.459   6.097 -0.5703 -0.2317 -0.4746
56441SOL    HW286934  11.856   5.506   5.953  0.8423  2.0832  0.1923
56442SOL     OW86935   3.153  12.475   7.186  0.3159 -0.1563 -0.6581
56442SOL    HW186936   3.223  12.540   7.198 -0.0798  0.3102 -0.8402
56442SOL    HW286937   3.199  12.391   7.185  0.7421  0.0397  0.5599
56443SOL     OW86938   3.111   3.469   6.332 -0.5316 -0.3945 -0.3567
56443SOL    HW186939   3.174   3.499   6.268 -1.5121  1.5260 -0.4798
56443SOL    HW286940   3.114   3.373   6.326  1.5705 -0.3280 -1.0737
56444SOL     OW86941  12.547   9.908   3.055 -0.4928 -0.2443 -0.5182
56444SOL    HW186942  12.471   9.966   3.044 -1.3449 -1.0053  1.0047
56444SOL    HW286943  12.589   9.940   3.135  0.6646 -0.0108 -1.1942
56445SOL     OW86944  11.249   0.894   7.589  1.1919 -0.0845 -0.4975
56445SOL    HW186945  11.326   0.929   7.633  0.5849  0.9035 -0.1870
56445SOL    HW286946  11.175   0.934   7.634  0.5413  0.6951 -2.1525
56446SOL     OW86947   7.608   7.368  12.293  0.0971 -0.2537 -0.1517
56446SOL    HW186948   7.580   7.449  12.249 -2.8526 -1.5851 -0.9880
56446SOL    HW286949   7.630   7.396  12.382 -2.4188  1.3516  0.0943
56447SOL     OW86950  10.043   6.180  12.147  0.3093  0.3461 -0.2923
56447SOL    HW186951   9.995   6.235  12.084  0.4114  1.0077  0.1901
56447SOL    HW286952  10.130   6.221  12.153  0.4944 -0.0593 -0.1655
56448SOL     OW86953   0.049   5.481   0.869 -1.0873 -0.2744  0.1364
56448SOL    HW186954   0.032   5.507   0.959 -1.0254 -0.4569  0.2013
56448SOL    HW286955   0.133   5.520   0.847 -1.3630  0.2322 -0.0264
56449SOL     OW86956   2.643   9.507  13.734  0.2114  0.3268 -0.1663
56449SOL    HW186957   2.682   9.493  13.648  0.0360  2.0976 -0.5804
56449SOL    HW286958   2.554   9.537  13.715  0.4303  1.5211  0.5807
56450SOL     OW86959   9.668   2.656   3.418 -0.0281  0.2921 -0.4319
56450SOL    HW186960   9.623   2.697   3.492 -0.9429  0.2294 -0.9326
56450SOL    HW286961   9.686   2.728   3.358  1.4601  0.4769  0.1915
56451SOL     OW86962   0.560  10.327   6.289  0.4318 -0.0112 -0.1472
56451SOL    HW186963   0.638  10.307   6.340 -0.4798 -1.0487  0.9146
56451SOL    HW286964   0.540  10.418   6.311  0.3969 -0.2588  0.9156
56452SOL     OW86965  12.414  14.074   1.993  0.1153 -0.1019  0.0358
56452SOL    HW186966  12.394  14.150   2.047  0.0230  0.1579 -0.3594
56452SOL    HW286967  12.331  14.026   1.988  0.0041  0.1136 -0.2458
56453SOL     OW86968   2.349   6.456  10.544  0.1100 -0.2235  0.5734
56453SOL    HW186969   2.438   6.475  10.515  0.2828 -0.0034  1.2268
56453SOL    HW286970   2.295   6.519  10.497  0.3268 -0.1970  0.3576
56454SOL     OW86971  10.143   3.758   2.188 -0.3437 -0.3927  0.3627
56454SOL    HW186972  10.076   3.779   2.123  0.0153 -1.1825 -0.2888
56454SOL    HW286973  10.161   3.841   2.232 -0.8264  0.0917 -0.3320
56455SOL     OW86974   3.551   0.313   1.469 -0.3991 -0.2922  0.4638
56455SOL    HW186975   3.500   0.271   1.400 -0.0906  2.3565 -1.5352
56455SOL    HW286976   3.641   0.281   1.454 -0.9089 -3.0885  2.5012
56456SOL     OW86977   6.698   5.896  11.496  0.4480  0.1928 -0.1396
56456SOL    HW186978   6.631   5.834  11.468  1.0592 -0.3101 -0.5157
56456SOL    HW286979   6.664   5.933  11.577 -0.6027  0.4676 -0.6838
56457SOL     OW86980   8.440   6.816  13.054 -0.5422 -0.0609 -0.0885
56457SOL    HW186981   8.379   6.877  13.012 -0.1916  0.5033  0.2026
56457SOL    HW286982   8.476   6.765  12.981  0.1131  0.9617 -0.5117
56458SOL     OW86983  13.418  12.306   4.325  0.2876 -0.0391 -0.1367
56458SOL    HW186984  13.451  12.288   4.237 -0.6431  0.7891 -0.6804
56458SOL    HW286985  13.369  12.388   4.316 -1.5668 -0.9775  0.6882
56459SOL     OW86986   8.849   2.881   2.483  0.3737  0.4625  0.1041
56459SOL    HW186987   8.803   2.930   2.552 -0.0748  1.6484 -0.9979
56459SOL    HW286988   8.942   2.897   2.501  0.2335  2.8439 -0.9573
56460SOL     OW86989  13.504   8.419   8.150 -0.1514  0.1310  0.5426
56460SOL    HW186990  13.560   8.494   8.133  2.3394 -1.8118 -0.4557
56460SOL    HW286991  13.428   8.433   8.094  1.6444  0.5431 -1.9717
56461SOL     OW86992  10.404   1.356   3.407 -0.1650  0.5747 -0.0105
56461SOL    HW186993  10.341   1.428   3.415 -1.0289 -0.0498 -0.8317
56461SOL    HW286994  10.432   1.359   3.316 -0.1705 -0.0872 -0.0396
56462SOL     OW86995   4.679   3.567  11.017 -0.5414  0.5000 -0.0855
56462SOL    HW186996   4.689   3.653  11.057 -1.0080  0.4416  0.1643
56462SOL    HW286997   4.752   3.516  11.052  0.5052  1.1638 -1.2518
56463SOL     OW86998   9.910   2.487   2.624  0.1921  0.3957  0.9393
56463SOL    HW186999   9.859   2.517   2.699  2.7043  2.5240  1.9681
56463SOL    HW287000   9.972   2.558   2.606  1.7424 -1.3153 -1.1970
56464SOL     OW87001   4.348   0.144   0.035  0.3776 -0.1541  0.1745
56464SOL    HW187002   4.363   0.236   0.010  1.7542 -0.1217  1.0006
56464SOL    HW287003   4.409   0.094  -0.019 -1.1973 -0.7506 -1.1409
56465SOL     OW87004   2.481   1.039   5.052  0.5362  0.3039 -0.3298
56465SOL    HW187005   2.513   0.971   5.111  1.0982  1.2264  0.4691
56465SOL    HW287006   2.476   1.117   5.107 -2.9964  0.3011 -0.3921
56466SOL     OW87007   7.814   6.048   3.260 -0.2221  0.0810  0.0062
56466SOL    HW187008   7.872   6.121   3.241  0.7195 -1.1131 -2.0801
56466SOL    HW287009   7.860   5.998   3.328  0.0231  0.4128  0.0832
56467SOL     OW87010   0.110   7.101  12.151 -0.1621  0.2979  0.6577
56467SOL    HW187011   0.134   7.031  12.211 -1.1629 -0.0770  0.6343
56467SOL    HW287012   0.139   7.071  12.065 -0.0742  0.1662  0.7346
56468SOL     OW87013   6.395  13.343  12.704  0.2090  0.0820  0.3430
56468SOL    HW187014   6.384  13.339  12.799  0.4704 -2.3046  0.3436
56468SOL    HW287015   6.486  13.318  12.690  0.2247  0.6094 -0.5318
56469SOL     OW87016   5.544  12.009   5.530 -0.1911  0.2685 -0.1143
56469SOL    HW187017   5.472  12.016   5.467  0.8478  2.1199 -1.2054
56469SOL    HW287018   5.504  12.026   5.615 -1.3093 -0.4096 -0.4835
56470SOL     OW87019  11.425   4.505   7.372 -0.2594 -0.2343 -0.0057
56470SOL    HW187020  11.514   4.525   7.341 -0.5076  1.5732  0.3429
56470SOL    HW287021  11.374   4.583   7.351 -1.0476  0.0496  2.5820
56471SOL     OW87022   6.794  13.458  11.958  0.0121  0.2476  0.4830
56471SOL    HW187023   6.701  13.464  11.977 -0.4002  2.8139 -1.6999
56471SOL    HW287024   6.828  13.397  12.024 -3.4016 -2.0445  0.4181
56472SOL     OW87025  12.130  13.863   3.627 -1.1118 -0.2462  0.5846
56472SOL    HW187026  12.078  13.943   3.620 -0.2549  0.2569 -0.4015
56472SOL    HW287027  12.106  13.826   3.712 -1.7764  0.8761  0.9124
56473SOL     OW87028   6.237   5.115  13.007 -0.0369  0.3129 -0.4145
56473SOL    HW187029   6.247   5.021  13.017 -2.5396 -0.1704 -1.7046
56473SOL    HW287030   6.257   5.151  13.093 -1.3521 -1.6326  0.7710
56474SOL     OW87031   1.491  11.082   4.822 -0.2337  0.0946 -0.3264
56474SOL    HW187032   1.502  11.151   4.888  1.4457 -0.2665 -0.1955
56474SOL    HW287033   1.465  11.129   4.743  1.1163  0.9379 -0.3001
56475SOL     OW87034  11.683   3.240   1.259  0.1668 -0.7205 -0.4898
56475SOL    HW187035  11.715   3.192   1.336 -1.0632  0.3603  0.7386
56475SOL    HW287036  11.750   3.224   1.192  0.7643 -2.5248  0.4611
56476SOL     OW87037   1.881  11.370  11.198 -0.3990 -0.4399 -0.5284
56476SOL    HW187038   1.831  11.302  11.154  1.8624 -1.5380 -1.5709
56476SOL    HW287039   1.953  11.323  11.240  0.0898  1.1081  0.4440
56477SOL     OW87040  10.924   8.490  11.846 -0.0661 -1.3140  0.6934
56477SOL    HW187041  10.836   8.473  11.882 -0.1007 -0.1679  1.1741
56477SOL    HW287042  10.921   8.581  11.817  0.8057 -1.4291  0.2288
56478SOL     OW87043   7.606  13.902   3.321  0.0450  0.2674  0.4320
56478SOL    HW187044   7.620  13.842   3.394  0.9945 -0.1772 -0.0944
56478SOL    HW287045   7.694  13.927   3.293 -0.1164 -1.5765 -2.1749
56479SOL     OW87046   1.076   4.655   0.409 -0.1570 -0.5239 -0.4134
56479SOL    HW187047   1.054   4.634   0.318 -0.4191 -1.3167 -0.1788
56479SOL    HW287048   1.092   4.570   0.450  0.4952 -0.1369  0.1486
56480SOL     OW87049  11.340  11.976   1.940  0.1737  0.3502  0.1106
56480SOL    HW187050  11.347  12.017   1.854 -0.8628  0.9155  0.2775
56480SOL    HW287051  11.245  11.970   1.956  0.2932 -1.3980  0.4336
56481SOL     OW87052  10.546   7.514   3.866  0.1595 -0.0015  0.1790
56481SOL    HW187053  10.629   7.541   3.826  1.1364 -1.9648  0.7444
56481SOL    HW287054  10.500   7.468   3.797  0.1063  0.0021  0.2119
56482SOL     OW87055   7.208   7.220   1.374  0.4346 -0.1430 -0.4175
56482SOL    HW187056   7.234   7.266   1.454  0.9279 -0.7855 -0.1993
56482SOL    HW287057   7.143   7.278   1.333 -0.1294  0.0130  0.6476
56483SOL     OW87058  11.123   3.049   5.077 -0.0089 -0.3679  0.1471
56483SOL    HW187059  11.214   3.054   5.107  0.3619 -0.7647 -0.8843
56483SOL    HW287060  11.079   3.121   5.122  0.7429 -0.3625  0.8926
56484SOL     OW87061  13.259   3.886   7.203 -0.1954  0.1903 -0.6671
56484SOL    HW187062  13.339   3.834   7.205 -0.9950 -1.0985 -1.2733
56484SOL    HW287063  13.222   3.875   7.291 -0.4807 -0.4515 -0.8682
56485SOL     OW87064   5.770   2.626   3.706 -0.3748 -0.0468  0.2683
56485SOL    HW187065   5.825   2.590   3.636  0.3622  1.1200  0.2205
56485SOL    HW287066   5.828   2.684   3.755 -1.0291 -0.4227  1.5321
56486SOL     OW87067   1.550   5.472   6.613  0.3164 -0.5356  0.3344
56486SOL    HW187068   1.591   5.553   6.642 -0.9281  0.1803  0.1563
56486SOL    HW287069   1.599   5.403   6.657  0.1264  0.4037  2.0781
56487SOL     OW87070   7.730   1.807   1.996  0.2475 -0.0209 -0.0215
56487SOL    HW187071   7.780   1.772   1.923 -0.8479 -0.4680 -0.5783
56487SOL    HW287072   7.794   1.857   2.047  1.1962 -0.3702 -0.8354
56488SOL     OW87073   6.688   0.283   2.842  0.1238 -0.1651 -0.0343
56488SOL    HW187074   6.631   0.237   2.781 -0.0650 -0.0180  0.0302
56488SOL    HW287075   6.631   0.304   2.916  0.4783 -0.8208  0.4309
56489SOL     OW87076  10.035  13.108   7.008  0.3612  0.3239  0.1303
56489SOL    HW187077  10.075  13.031   7.048 -1.0862 -0.1463  0.7389
56489SOL    HW287078  10.011  13.163   7.083  0.6248  0.9877 -0.2646
56490SOL     OW87079   5.746   8.262   3.036 -0.7338 -0.4473 -0.0922
56490SOL    HW187080   5.793   8.341   3.062  0.4989 -0.6412 -1.5353
56490SOL    HW287081   5.659   8.292   3.010 -0.0782  0.5522 -1.2292
56491SOL     OW87082  11.875  12.015   8.172 -0.5723  0.5709  0.3179
56491SOL    HW187083  11.952  11.991   8.120 -0.8845 -0.9495  0.4982
56491SOL    HW287084  11.863  12.108   8.157  0.3691  0.5024 -0.9674
56492SOL     OW87085   4.486   1.360   7.748  0.5087  0.1801  0.0764
56492SOL    HW187086   4.411   1.308   7.777 -0.5005  2.0487  0.9752
56492SOL    HW287087   4.563   1.311   7.779 -0.4288 -0.2403  1.8723
56493SOL     OW87088   5.513   7.293  10.575  0.1627  0.3771  0.1635
56493SOL    HW187089   5.548   7.379  10.550  0.4626  0.1274 -0.2892
56493SOL    HW287090   5.582   7.231  10.551 -0.0834 -0.0009  0.4220
56494SOL     OW87091   3.324  12.905  11.674  0.0308 -0.1880 -0.0716
56494SOL    HW187092   3.368  12.949  11.746 -0.0550  0.9460 -0.7012
56494SOL    HW287093   3.237  12.943  11.671 -0.9955 -2.2527  1.0162
56495SOL     OW87094  10.301  11.074  12.850  0.2820  0.9661 -0.1876
56495SOL    HW187095  10.214  11.064  12.888  0.3530 -0.5529 -0.3471
56495SOL    HW287096  10.348  11.131  12.910  0.2988 -1.1035  1.8853
56496SOL     OW87097   6.150   8.458   0.105  0.5584 -0.0755  0.3482
56496SOL    HW187098   6.114   8.370   0.119  0.3520  0.2786  2.3327
56496SOL    HW287099   6.239   8.454   0.141  0.3298  0.6778  1.0195
56497SOL     OW87100   0.709   5.227  13.998  0.1032 -0.4037 -0.0142
56497SOL    HW187101   0.803   5.211  14.005 -0.0821 -0.7852  1.9696
56497SOL    HW287102   0.669   5.152  14.041 -1.0552  0.7619  0.9924
56498SOL     OW87103  11.500  12.885  12.832 -0.8828 -1.0778 -0.3526
56498SOL    HW187104  11.518  12.791  12.827  2.0143 -0.5573 -1.5950
56498SOL    HW287105  11.458  12.905  12.748  1.0170 -0.8754 -1.3089
56499SOL     OW87106   9.338   1.542  11.384  0.5818  0.2189 -0.1933
56499SOL    HW187107   9.246   1.566  11.391  0.9973  2.0806 -0.4104
56499SOL    HW287108   9.355   1.488  11.461 -0.9812 -1.3131 -0.8588
56500SOL     OW87109  12.806   6.758  12.150 -0.2318  0.1471 -0.1388
56500SOL    HW187110  12.839   6.695  12.214 -0.8003  0.7014  0.7113
56500SOL    HW287111  12.770   6.704  12.080  2.1125 -0.4889 -0.9423
56501SOL     OW87112  13.446  11.399   2.430  0.1165  0.0979 -0.1177
56501SOL    HW187113  13.441  11.483   2.475  0.8574 -1.3296  2.8785
56501SOL    HW287114  13.539  11.386   2.413 -0.1003  0.3433 -1.6114
56502SOL     OW87115   7.162  12.446   6.194  0.6092 -0.2630 -0.1064
56502SOL    HW187116   7.193  12.358   6.211  2.8617  0.7405  1.5036
56502SOL    HW287117   7.171  12.492   6.278 -2.7496  0.9534 -0.2259
56503SOL     OW87118   3.493  13.379   7.771 -0.3427  0.3424 -0.1104
56503SOL    HW187119   3.586  13.373   7.749  0.0483  1.5720  1.0402
56503SOL    HW287120   3.454  13.426   7.697 -0.6562 -2.5581 -1.9618
56504SOL     OW87121   6.790   1.490   9.323  0.5773 -0.2208 -0.2708
56504SOL    HW187122   6.865   1.539   9.357  2.9822 -1.2537 -3.4938
56504SOL    HW287123   6.769   1.533   9.240  0.5724 -2.5342 -1.5624
56505SOL     OW87124   5.248  13.059  13.724  0.1450  0.4513 -0.6257
56505SOL    HW187125   5.308  13.118  13.768  0.6193 -0.3173 -0.2263
56505SOL    HW287126   5.229  12.991  13.788  1.1328 -0.8916 -1.6881
56506SOL     OW87127   3.025   9.501  13.908  0.1447  0.3383  0.1905
56506SOL    HW187128   2.987   9.414  13.899 -0.9984  0.7982  0.2820
56506SOL    HW287129   3.004   9.545  13.825  0.8671  0.4706  0.0742
56507SOL     OW87130  13.865  12.202  12.845  0.1094 -0.0260  0.3492
56507SOL    HW187131  13.889  12.216  12.753 -2.0403  1.2439 -0.0810
56507SOL    HW287132  13.917  12.266  12.893  1.7101 -1.1113  0.1366
56508SOL     OW87133  13.853   7.435  13.486  0.1179  0.0405 -0.4173
56508SOL    HW187134  13.825   7.484  13.409 -0.4865  0.0431 -0.1981
56508SOL    HW287135  13.775   7.386  13.513  0.1614  0.4710  0.5269
56509SOL     OW87136   3.668   4.166   9.465 -0.6408  0.2486  0.1682
56509SOL    HW187137   3.648   4.259   9.456 -0.7979  0.1910 -0.0763
56509SOL    HW287138   3.756   4.164   9.504  0.2828  0.5134 -1.7856
56510SOL     OW87139  10.854   1.372  13.503 -0.2729 -0.0895  0.0879
56510SOL    HW187140  10.903   1.292  13.484 -1.2388 -0.7660  0.3587
56510SOL    HW287141  10.916   1.427  13.552  0.8502 -0.0796 -1.2696
56511SOL     OW87142   5.354  13.270  11.613 -0.3462  1.1327 -0.2167
56511SOL    HW187143   5.372  13.189  11.564  0.1289  0.5148  0.9583
56511SOL    HW287144   5.265  13.294  11.587 -0.4695  0.2677 -0.6337
56512SOL     OW87145   1.930   6.174  13.945 -0.1608 -0.2123  0.3458
56512SOL    HW187146   1.980   6.252  13.921 -0.2175 -0.1719  0.3598
56512SOL    HW287147   1.851   6.208  13.987 -0.1144 -0.2804  0.4894
56513SOL     OW87148   2.188   8.936  11.536  0.2790 -0.1275  0.0197
56513SOL    HW187149   2.143   8.888  11.604  0.0740  0.4187  0.2753
56513SOL    HW287150   2.259   8.982  11.581 -0.4106  0.9632  0.0360
56514SOL     OW87151   1.322   3.977   9.060 -0.2044  0.9649  0.4616
56514SOL    HW187152   1.256   4.032   9.019 -0.7816 -0.8359 -1.1679
56514SOL    HW287153   1.279   3.892   9.071  1.3335  0.1976  0.8558
56515SOL     OW87154   5.432   6.363   7.163 -0.5636  0.1912  0.4641
56515SOL    HW187155   5.420   6.315   7.081 -0.5128  0.1877  0.4589
56515SOL    HW287156   5.504   6.424   7.145 -0.0752 -0.3087  0.7303
56516SOL     OW87157   0.692   6.533   7.413  0.2027 -0.1038  0.0011
56516SOL    HW187158   0.681   6.489   7.329  3.0756  0.5182 -0.8148
56516SOL    HW287159   0.653   6.473   7.476  0.6513 -2.0687 -1.4578
56517SOL     OW87160  12.915  11.800   3.591  0.1012  0.0031 -0.1637
56517SOL    HW187161  12.928  11.707   3.573 -0.6907 -0.1631  0.0758
56517SOL    HW287162  13.000  11.841   3.573  0.7266 -0.9075  0.6166
56518SOL     OW87163  11.882   9.485  11.695 -0.1257  0.3866 -0.4898
56518SOL    HW187164  11.915   9.398  11.670  2.0138  1.0567 -0.2028
56518SOL    HW287165  11.904   9.492  11.788  0.1231  1.3954 -0.6169
56519SOL     OW87166   4.375   0.579   3.328 -0.5863  0.5844 -0.1440
56519SOL    HW187167   4.409   0.563   3.416  0.6167  1.1030 -0.4861
56519SOL    HW287168   4.331   0.664   3.335 -1.3661  0.1667  0.1729
56520SOL     OW87169   5.494  10.822  13.570 -0.1321 -0.1414  0.1017
56520SOL    HW187170   5.497  10.827  13.474 -1.8370  1.9063  0.0912
56520SOL    HW287171   5.532  10.905  13.599 -0.9973 -0.1017  1.1537
56521SOL     OW87172  10.496  10.890   3.689  0.6984  0.2184  0.0460
56521SOL    HW187173  10.427  10.895   3.623  0.6775 -0.8999 -0.0405
56521SOL    HW287174  10.574  10.865   3.640  0.1491 -3.2354  0.6995
56522SOL     OW87175   4.567   5.893   2.101  0.3901 -0.0104 -0.2804
56522SOL    HW187176   4.655   5.865   2.077  0.2600  0.0904 -0.8766
56522SOL    HW287177   4.517   5.889   2.020  0.6868  3.2506 -0.7539
56523SOL     OW87178  11.849  10.628   2.537 -0.3809  0.3364 -0.1000
56523SOL    HW187179  11.894  10.687   2.476 -3.1452  2.7980  0.0630
56523SOL    HW287180  11.810  10.561   2.480 -0.0577  0.6175 -0.6622
56524SOL     OW87181   9.572  13.226   3.867 -0.4125  0.2519  0.1531
56524SOL    HW187182   9.529  13.243   3.783  2.5783 -0.0479 -1.6083
56524SOL    HW287183   9.630  13.301   3.880 -1.0877  0.4808  2.2130
56525SOL     OW87184   0.839   0.173   2.866 -0.0001  0.5321 -0.2939
56525SOL    HW187185   0.829   0.267   2.849  0.6829  0.9270  1.3291
56525SOL    HW287186   0.882   0.168   2.951 -0.8557 -1.2862  0.0779
56526SOL     OW87187   1.462   6.017   6.830  0.3380  0.0528  0.3876
56526SOL    HW187188   1.468   5.965   6.910  0.0483 -1.2659 -0.4190
56526SOL    HW287189   1.535   5.987   6.777  0.1026  0.3996 -0.1382
56527SOL     OW87190  10.223  13.108   7.707  0.2871 -0.2142 -0.2237
56527SOL    HW187191  10.160  13.180   7.713  0.3169 -0.3389  2.3333
56527SOL    HW287192  10.270  13.126   7.626 -1.4732  1.1543 -1.0338
56528SOL     OW87193  13.446  13.762   2.143 -0.2580  0.0851  0.3156
56528SOL    HW187194  13.393  13.726   2.073  2.9646 -1.7094 -1.4424
56528SOL    HW287195  13.484  13.842   2.107 -1.2277  1.0443  1.3369
56529SOL     OW87196  10.579  13.218   7.899 -0.2115  0.1986  0.2240
56529SOL    HW187197  10.565  13.234   7.805 -1.0221 -0.7882  0.1704
56529SOL    HW287198  10.560  13.125   7.911  0.2798  0.2239  1.3039
56530SOL     OW87199   0.111   0.971   8.282 -0.6183  0.0443  0.7539
56530SOL    HW187200   0.141   1.023   8.356  2.0496 -0.3050  0.0418
56530SOL    HW287201   0.058   0.902   8.321 -1.5788  1.4298  2.0138
56531SOL     OW87202  12.499   8.230   0.391 -0.6277  0.2108  0.0267
56531SOL    HW187203  12.549   8.306   0.423  0.9470 -0.7030 -0.1697
56531SOL    HW287204  12.561   8.157   0.394 -1.5742 -0.7107 -1.4865
56532SOL     OW87205   0.121   4.323   7.229 -0.4327 -0.4945  0.4182
56532SOL    HW187206   0.145   4.271   7.152 -0.5201  2.0318 -1.4461
56532SOL    HW287207   0.025   4.330   7.223 -0.3906  0.1348  0.4529
56533SOL     OW87208   8.709   8.949   5.754  0.2139 -0.3622 -0.3593
56533SOL    HW187209   8.654   8.900   5.693  0.4035 -2.7260  1.2399
56533SOL    HW287210   8.799   8.927   5.729  0.3684  0.5347 -0.6468
56534SOL     OW87211   2.848  11.646   8.703 -0.5261 -0.6091  0.2507
56534SOL    HW187212   2.849  11.562   8.748  0.2067 -1.2419 -0.8939
56534SOL    HW287213   2.936  11.655   8.667  0.0065  1.5327  1.8864
56535SOL     OW87214   8.444   1.382  12.677  0.5805  0.1980  0.0155
56535SOL    HW187215   8.476   1.338  12.598 -1.2394 -1.8159  0.3025
56535SOL    HW287216   8.364   1.426  12.650 -0.0383 -0.4809  0.6997
56536SOL     OW87217  12.929   9.544   2.152 -0.1978 -0.2559 -0.6305
56536SOL    HW187218  12.840   9.512   2.141  0.1336 -0.7595 -2.0090
56536SOL    HW287219  12.981   9.465   2.169  0.0576 -0.0185 -0.2945
56537SOL     OW87220   7.817   8.913  13.534  0.5528 -0.0523 -0.2339
56537SOL    HW187221   7.817   8.995  13.584 -0.5819 -0.1095 -0.1051
56537SOL    HW287222   7.768   8.852  13.590 -1.1021 -0.0089 -1.5415
56538SOL     OW87223  13.328   7.613  12.949  0.0214 -0.6031  0.8742
56538SOL    HW187224  13.308   7.564  12.869 -0.3661  0.2237  0.4478
56538SOL    HW287225  13.256   7.593  13.008 -1.2942  1.0956 -0.0732
56539SOL     OW87226   8.057  11.168  12.918  0.2497  0.2634 -0.5113
56539SOL    HW187227   7.964  11.150  12.933  0.7394 -1.5985  0.5809
56539SOL    HW287228   8.079  11.235  12.982  0.0033 -0.4446  0.3383
56540SOL     OW87229   7.643   0.948   8.627 -0.6433 -0.3268 -0.2799
56540SOL    HW187230   7.697   0.868   8.620 -0.7396 -0.2898 -1.7275
56540SOL    HW287231   7.707   1.019   8.634 -0.5240 -0.4115 -0.4808
56541SOL     OW87232   1.389   3.074   1.224 -0.0948 -0.2881  0.1304
56541SOL    HW187233   1.450   3.096   1.294 -0.3521 -0.6172  0.4629
56541SOL    HW287234   1.411   2.983   1.201  0.4470  0.0357 -0.6971
56542SOL     OW87235  12.584   8.863   3.332 -0.2551  0.0435  0.3409
56542SOL    HW187236  12.551   8.776   3.352  1.4641 -0.4472  1.2401
56542SOL    HW287237  12.617   8.896   3.416  0.3037  1.0253 -0.2391
56543SOL     OW87238   6.401   5.193   1.311  0.2278 -0.6157  0.2094
56543SOL    HW187239   6.401   5.268   1.253  1.0872 -0.3509  0.5496
56543SOL    HW287240   6.393   5.117   1.253 -0.8156 -0.2743 -0.1225
56544SOL     OW87241   3.997  11.271   7.667 -0.4146  0.1739 -0.4297
56544SOL    HW187242   4.042  11.330   7.727 -0.6762  1.1727 -1.1747
56544SOL    HW287243   4.045  11.280   7.584 -1.8117  1.0972 -1.1837
56545SOL     OW87244   6.810  12.891   3.926 -0.2082 -0.4476 -0.5760
56545SOL    HW187245   6.854  12.845   3.856 -0.7906 -0.6298 -0.8282
56545SOL    HW287246   6.732  12.839   3.944  0.4115 -0.9416  0.8717
56546SOL     OW87247   2.005   6.537  10.192 -0.0743 -0.7560 -0.8583
56546SOL    HW187248   2.101   6.528  10.188 -0.0320 -1.0282  0.3147
56546SOL    HW287249   1.973   6.448  10.182 -0.4309 -0.3552 -4.8345
56547SOL     OW87250   5.558   3.390   1.615  0.0343 -0.0130 -0.0587
56547SOL    HW187251   5.464   3.381   1.602 -0.0888  0.5978  0.3513
56547SOL    HW287252   5.578   3.478   1.583  0.1393  0.5766  1.5435
56548SOL     OW87253  11.517  13.446  13.870  0.1811 -0.4900  0.1113
56548SOL    HW187254  11.445  13.433  13.808  0.5178 -0.9029 -0.2038
56548SOL    HW287255  11.502  13.380  13.938 -0.7637  0.6391  1.0270
56549SOL     OW87256   8.617   8.847   5.178  0.4051  0.8632 -0.4162
56549SOL    HW187257   8.664   8.791   5.116  0.8528  0.0906  0.5867
56549SOL    HW287258   8.674   8.924   5.188  0.2559  1.0653 -1.0605
56550SOL     OW87259   1.157   8.004   9.387  0.2559  0.1275  0.0073
56550SOL    HW187260   1.227   7.973   9.445  1.1819  1.7682 -0.1643
56550SOL    HW287261   1.103   8.060   9.442  0.2302  0.4404 -0.3319
56551SOL     OW87262   4.151   0.274  10.106  0.1494  0.4618  0.1533
56551SOL    HW187263   4.196   0.319  10.034  3.2826 -0.7395  1.1890
56551SOL    HW287264   4.123   0.345  10.164  0.3857  1.2727 -0.6823
56552SOL     OW87265   5.829  12.937  12.313  0.2659  0.2394  0.7235
56552SOL    HW187266   5.823  13.029  12.286 -0.1573  0.3412  1.1346
56552SOL    HW287267   5.738  12.906  12.311  0.5313 -0.5122 -0.5587
56553SOL     OW87268  12.169   3.766   9.595  0.8076 -0.1564  0.2127
56553SOL    HW187269  12.263   3.782   9.604  0.9149  0.0481 -1.0569
56553SOL    HW287270  12.158   3.742   9.503 -0.3257 -0.6260  0.4590
56554SOL     OW87271   9.387   0.692   6.702 -0.2967  0.0320  0.5594
56554SOL    HW187272   9.408   0.781   6.730 -1.3466  0.5674 -0.2571
56554SOL    HW287273   9.293   0.683   6.718 -1.2549  0.7364 -3.4035
56555SOL     OW87274   2.841  10.081  10.795 -0.0022 -0.2799  0.1453
56555SOL    HW187275   2.794  10.004  10.827  0.9875 -1.1902 -0.5147
56555SOL    HW287276   2.934  10.057  10.801  0.3348  0.9742  0.1921
56556SOL     OW87277   9.728  12.990   3.005 -0.0402  0.2867  0.5430
56556SOL    HW187278   9.783  12.932   2.953 -4.1309 -2.5753 -1.2056
56556SOL    HW287279   9.676  13.038   2.940 -1.2924  0.9529  1.9730
56557SOL     OW87280   1.513   8.655   3.595 -0.2065  0.1175  0.3759
56557SOL    HW187281   1.506   8.735   3.646  0.4394 -0.2365  1.0374
56557SOL    HW287282   1.432   8.608   3.614  0.0351 -0.0180  1.1037
56558SOL     OW87283   5.163   5.386   0.790 -0.1553  0.2258  0.4730
56558SOL    HW187284   5.187   5.363   0.700 -1.1686 -2.1549  0.7612
56558SOL    HW287285   5.247   5.392   0.836  0.2908 -0.1881 -0.2647
56559SOL     OW87286   8.042  12.386   9.807  0.4346 -0.0478 -0.0995
56559SOL    HW187287   7.990  12.438   9.746  2.5913  1.5611 -0.7197
56559SOL    HW287288   8.068  12.308   9.758  0.0596  0.0030 -0.3767
56560SOL     OW87289  10.318  12.944   2.008  0.3034  0.0107  0.1662
56560SOL    HW187290  10.380  12.905   2.069  0.0257  0.8019  0.9824
56560SOL    HW287291  10.339  13.037   2.008  0.3142  0.0297 -0.9857
56561SOL     OW87292   9.187   0.141   4.223 -0.2276 -0.0974  0.1288
56561SOL    HW187293   9.186   0.232   4.253 -0.2693  0.0836 -0.4125
56561SOL    HW287294   9.096   0.123   4.199 -0.3881 -0.5584  1.0293
56562SOL     OW87295  11.615   3.308  12.263 -0.2095 -0.3534 -0.2629
56562SOL    HW187296  11.588   3.235  12.318  1.3897 -0.2979  0.6778
56562SOL    HW287297  11.534   3.354  12.242 -0.9307 -0.6799  1.6119
56563SOL     OW87298   2.979   2.763   0.809 -0.1367  0.2027  0.0995
56563SOL    HW187299   2.927   2.717   0.743 -1.3824  1.6377  0.0079
56563SOL    HW287300   3.005   2.696   0.871  0.1291 -0.9996 -1.2621
56564SOL     OW87301   3.467   2.015   9.504  0.2685 -0.1311 -0.1014
56564SOL    HW187302   3.530   2.084   9.485  0.0503 -0.1698 -0.9836
56564SOL    HW287303   3.512   1.934   9.480  0.2472 -0.2381  0.2156
56565SOL     OW87304   4.765  13.523   9.862  0.3611  0.0926 -0.3060
56565SOL    HW187305   4.729  13.450   9.912  0.8002 -0.1940 -0.3999
56565SOL    HW287306   4.777  13.593   9.926  1.6358 -0.5188  0.1755
56566SOL     OW87307   6.370   6.908  13.892  0.2244  0.2091  0.1879
56566SOL    HW187308   6.408   6.943  13.973  3.0056 -1.0999 -0.4403
56566SOL    HW287309   6.402   6.966  13.823 -0.5035  0.1497 -0.2133
56567SOL     OW87310   4.489   1.367   0.646  0.3933  0.6941  0.3632
56567SOL    HW187311   4.478   1.385   0.553  2.0185 -2.3347 -0.5820
56567SOL    HW287312   4.426   1.298   0.664  1.6231 -0.3532  0.8454
56568SOL     OW87313   5.577   5.155   5.155  0.1318  0.1946 -0.0316
56568SOL    HW187314   5.505   5.168   5.218  0.6918 -0.7128  0.8313
56568SOL    HW287315   5.537   5.172   5.070 -0.6721  1.3953  0.5453
56569SOL     OW87316  11.678   1.764  11.746  0.0395  0.1084 -0.5117
56569SOL    HW187317  11.763   1.721  11.746  0.1481  0.2704 -2.1067
56569SOL    HW287318  11.623   1.709  11.691 -0.4140  0.8711 -0.8409
56570SOL     OW87319   9.001  10.935  13.930  0.3123  0.1878  0.2500
56570SOL    HW187320   9.050  11.017  13.941 -0.3440  0.5519  0.4966
56570SOL    HW287321   8.916  10.952  13.969  0.6066 -1.0629  1.4943
56571SOL     OW87322   3.535   3.092   4.716  0.2258 -0.2507 -0.1562
56571SOL    HW187323   3.465   3.136   4.763 -0.0051 -0.7726 -0.0033
56571SOL    HW287324   3.502   3.003   4.701  0.6298 -0.3355 -0.5678
56572SOL     OW87325  12.656  10.372   8.113 -0.1939 -0.3101 -0.4355
56572SOL    HW187326  12.586  10.395   8.052 -0.6467 -1.1988 -0.2618
56572SOL    HW287327  12.610  10.342   8.192  0.3614 -1.8458 -0.6658
56573SOL     OW87328   1.595   9.101   4.169 -0.5764 -0.1352 -0.3874
56573SOL    HW187329   1.644   9.129   4.092 -2.7561 -0.1072 -1.8644
56573SOL    HW287330   1.562   9.182   4.207  0.1284 -0.1817  0.3485
56574SOL     OW87331   0.080   2.651  12.129  0.1862  0.3555 -0.0109
56574SOL    HW187332   0.010   2.684  12.186 -0.2990 -0.7332  0.0483
56574SOL    HW287333   0.121   2.581  12.180  0.3822  0.0263 -0.6118
56575SOL     OW87334   1.677   3.728   2.195 -0.4316  0.8305 -0.0366
56575SOL    HW187335   1.696   3.638   2.221  0.0000  0.3940 -1.7020
56575SOL    HW287336   1.601   3.720   2.136 -0.5598  1.5832  0.0212
56576SOL     OW87337   9.949  10.463   7.945 -0.0117  0.5910  0.6786
56576SOL    HW187338   9.921  10.436   8.033 -0.8904  0.9886  0.5308
56576SOL    HW287339   9.868  10.470   7.895  0.5565 -0.6351 -0.4701
56577SOL     OW87340   6.068   9.245  11.753  0.2162 -0.5247  0.1191
56577SOL    HW187341   6.131   9.310  11.783 -1.0135  0.9913 -0.4017
56577SOL    HW287342   6.103   9.215  11.669 -0.4889  1.5427 -0.9972
56578SOL     OW87343  11.368   2.207  12.734  0.4038  0.0465 -0.4334
56578SOL    HW187344  11.397   2.117  12.750  1.1917  0.1695 -1.1242
56578SOL    HW287345  11.447   2.260  12.745  0.1103  0.5698 -0.7979
56579SOL     OW87346   1.364  12.646   0.492  0.3690  0.6810  0.3264
56579SOL    HW187347   1.306  12.595   0.548  1.9125 -1.1801  0.3783
56579SOL    HW287348   1.313  12.665   0.414 -0.4014 -0.6946  0.4669
56580SOL     OW87349   0.501   2.767  12.261  0.0933 -0.0738 -0.2613
56580SOL    HW187350   0.538   2.715  12.190 -2.8091 -0.8581 -1.3363
56580SOL    HW287351   0.523   2.857  12.239 -0.5307 -0.3229 -2.0708
56581SOL     OW87352   8.671   8.563   4.151 -0.3893  0.1517  0.0266
56581SOL    HW187353   8.649   8.641   4.201 -0.3127  0.3909 -0.3085
56581SOL    HW287354   8.697   8.498   4.217  1.0779  0.8951  0.2353
56582SOL     OW87355   0.682   6.333   0.552 -0.1805 -0.1769 -0.5035
56582SOL    HW187356   0.612   6.383   0.592  0.5403 -0.4806  1.1941
56582SOL    HW287357   0.667   6.343   0.457 -0.6816  2.3286 -0.2277
56583SOL     OW87358   8.511   8.816  12.221  0.2290  0.2296 -0.5993
56583SOL    HW187359   8.564   8.827  12.300 -0.3608  0.4818 -0.2311
56583SOL    HW287360   8.446   8.887  12.225 -0.1406 -0.0739 -1.0380
56584SOL     OW87361  13.633   9.588   7.554 -0.0288  0.7415  0.1498
56584SOL    HW187362  13.700   9.648   7.584  0.5375 -0.3913  1.2555
56584SOL    HW287363  13.595   9.551   7.634  0.9076 -1.7239 -0.4404
56585SOL     OW87364  11.398  13.111   0.480 -0.1120  0.7455  0.1396
56585SOL    HW187365  11.489  13.101   0.452 -0.8852 -3.8726 -1.6695
56585SOL    HW287366  11.354  13.153   0.406  0.0478  0.1649 -0.2892
56586SOL     OW87367  11.097   8.787   5.844  0.2173 -0.1226 -0.5647
56586SOL    HW187368  11.151   8.865   5.837 -1.4034  1.0624 -0.6383
56586SOL    HW287369  11.140   8.733   5.910  0.7098  1.4351  0.4347
56587SOL     OW87370  13.247  12.695   8.782  0.1694  0.1479 -0.1060
56587SOL    HW187371  13.234  12.608   8.743 -0.7751 -0.0459  0.5978
56587SOL    HW287372  13.158  12.728   8.795  0.2669 -0.6224  3.6675
56588SOL     OW87373  11.032  10.541   4.020  0.1197 -0.0730 -0.2067
56588SOL    HW187374  10.976  10.464   4.033  2.5600 -1.8587  0.4724
56588SOL    HW287375  11.041  10.579   4.107 -0.2754  0.3900 -0.3678
56589SOL     OW87376   2.143   0.775   4.930 -0.6066  0.0812 -0.5201
56589SOL    HW187377   2.126   0.798   5.022 -2.4228  0.1416 -0.8485
56589SOL    HW287378   2.211   0.837   4.902  0.8308 -0.6765  1.0752
56590SOL     OW87379  12.725   6.215   7.370  0.1210 -0.0206 -0.1331
56590SOL    HW187380  12.766   6.267   7.302  1.3498  1.8922  1.9438
56590SOL    HW287381  12.798   6.185   7.425 -0.9790  0.9308  1.9544
56591SOL     OW87382   4.517   9.637   4.529  0.5349 -0.1008  0.0308
56591SOL    HW187383   4.523   9.732   4.538 -0.4703 -0.0005 -0.2391
56591SOL    HW287384   4.424   9.620   4.512  0.4803 -1.2427  1.3136
56592SOL     OW87385   2.013   4.440   9.766 -0.2004 -0.0298  1.1276
56592SOL    HW187386   1.993   4.498   9.840  0.0146 -1.3204  2.2358
56592SOL    HW287387   2.048   4.361   9.807 -0.1455 -0.8041 -0.3689
56593SOL     OW87388   4.255   1.847   8.200  0.6476  0.5210 -0.0344
56593SOL    HW187389   4.283   1.912   8.136 -1.0226 -0.1368 -1.5118
56593SOL    HW287390   4.161   1.859   8.207  0.3072 -1.6109 -0.2676
56594SOL     OW87391  10.862  11.937  11.854  0.2852  0.0020 -0.8778
56594SOL    HW187392  10.899  11.963  11.770 -0.1290  0.0858 -1.0405
56594SOL    HW287393  10.790  11.998  11.868 -1.4977 -1.7466 -1.8482
56595SOL     OW87394   2.744  10.542   8.150  0.3298  0.6007 -0.1680
56595SOL    HW187395   2.688  10.538   8.072 -0.1080 -3.9381  0.1250
56595SOL    HW287396   2.833  10.536   8.116  0.1857 -0.2678 -0.4308
56596SOL     OW87397   6.341   7.900   4.534  0.1684  0.1932 -0.0284
56596SOL    HW187398   6.246   7.906   4.545  0.0796  1.9955 -1.4695
56596SOL    HW287399   6.353   7.833   4.467 -0.1531  0.6819 -0.5804
56597SOL     OW87400  10.017   7.636   4.317  0.4470  0.3964 -0.3469
56597SOL    HW187401   9.966   7.687   4.254 -1.2007  0.7564  1.2201
56597SOL    HW287402  10.013   7.546   4.283 -2.2367  0.1927  0.2571
56598SOL     OW87403  11.898   6.170   4.800 -0.1597  0.1270 -0.0604
56598SOL    HW187404  11.829   6.223   4.840 -1.3752 -1.2423 -0.2244
56598SOL    HW287405  11.863   6.080   4.802  1.6514 -0.6280 -0.1054
56599SOL     OW87406   1.680  13.203   6.494 -0.8368  0.0953  0.0663
56599SOL    HW187407   1.678  13.193   6.589 -2.4257  1.3592  0.2083
56599SOL    HW287408   1.755  13.261   6.478 -0.4292 -0.2950  0.5094
56600SOL     OW87409   4.673   9.810  12.341  0.7010  0.5628 -0.4498
56600SOL    HW187410   4.707   9.784  12.427  0.7814  0.5447 -0.4873
56600SOL    HW287411   4.616   9.884  12.360 -0.4398 -0.3508 -0.1970
56601SOL     OW87412  10.353   1.285   9.902 -0.0580 -0.0865  0.3433
56601SOL    HW187413  10.285   1.265   9.837 -0.3480 -0.6146  0.7927
56601SOL    HW287414  10.334   1.375   9.930 -0.4190 -0.1381  0.2713
56602SOL     OW87415  12.343   2.032  11.080 -0.2639 -0.0077 -0.0896
56602SOL    HW187416  12.307   1.952  11.042  1.7338 -0.8353 -0.3450
56602SOL    HW287417  12.391   2.073  11.009  0.4005  0.3724  0.5717
56603SOL     OW87418  10.324  11.967   8.371  0.2970 -0.2081 -0.2443
56603SOL    HW187419  10.299  11.881   8.406  1.7015 -0.2591  0.7044
56603SOL    HW287420  10.391  11.947   8.306 -0.5275  0.0816 -1.2120
56604SOL     OW87421   0.454   9.576   7.442  0.1580 -0.2192  0.2218
56604SOL    HW187422   0.392   9.516   7.482  0.7632 -0.2690  1.1097
56604SOL    HW287423   0.530   9.576   7.501  0.5488  0.6881 -0.2546
56605SOL     OW87424   4.966   5.741   3.270 -0.2271 -0.6272  0.3872
56605SOL    HW187425   4.930   5.825   3.298  1.0360  0.5540 -1.3007
56605SOL    HW287426   4.935   5.678   3.335 -2.1569  0.9327  1.0706
56606SOL     OW87427   0.312   3.834   2.329  0.1974  0.0394 -0.0518
56606SOL    HW187428   0.235   3.841   2.272 -0.3114 -1.3024  0.4377
56606SOL    HW287429   0.280   3.861   2.415  0.1458 -0.9305  0.2454
56607SOL     OW87430   7.962   4.922   0.452 -0.1717  0.0949 -0.4457
56607SOL    HW187431   8.031   4.867   0.489 -1.9766 -1.4783  0.7103
56607SOL    HW287432   7.944   4.987   0.520 -0.2318  0.1576 -0.5219
56608SOL     OW87433   5.954  10.819   4.199  0.1847  0.6540  0.0097
56608SOL    HW187434   5.916  10.825   4.111  0.2181  1.4151  0.0463
56608SOL    HW287435   6.046  10.843   4.187  0.1044  1.1202  0.3131
56609SOL     OW87436   4.700  13.521   5.010  0.4851  0.3147 -0.1650
56609SOL    HW187437   4.688  13.592   4.947  0.3449 -0.1143 -0.6268
56609SOL    HW287438   4.621  13.468   5.002  1.1213 -0.5858 -0.7283
56610SOL     OW87439  12.067  13.074  11.253 -0.6169  0.9279 -0.1186
56610SOL    HW187440  12.072  12.981  11.276 -0.3214  1.1886  0.9074
56610SOL    HW287441  12.075  13.075  11.158  1.9092  0.0542  0.0151
56611SOL     OW87442   1.213   7.449  11.147  0.0992  0.1069 -0.5100
56611SOL    HW187443   1.260   7.530  11.169  1.2423 -0.6319 -0.1391
56611SOL    HW287444   1.131   7.479  11.109  0.0084  1.4420  0.6552
56612SOL     OW87445   8.426  12.256   4.616 -0.0517  0.4567  0.2286
56612SOL    HW187446   8.441  12.163   4.636 -0.7227  0.4919  0.9399
56612SOL    HW287447   8.333  12.270   4.635  0.2256  1.4680  0.9445
56613SOL     OW87448   8.139   0.941   3.841  0.5943  0.4021  0.2609
56613SOL    HW187449   8.147   0.961   3.935 -0.6293  0.8342  0.2911
56613SOL    HW287450   8.090   1.015   3.805 -1.4774 -1.0867 -0.1868
56614SOL     OW87451  10.808   1.137   4.742  0.4987 -0.7953 -0.4676
56614SOL    HW187452  10.805   1.044   4.767 -1.0513 -0.7843 -0.5387
56614SOL    HW287453  10.809   1.136   4.646  1.7383 -0.7433 -0.4703
56615SOL     OW87454   5.525  10.799   5.159  0.0106  0.0643 -0.0887
56615SOL    HW187455   5.481  10.717   5.182  1.0200 -1.0161 -1.7187
56615SOL    HW287456   5.565  10.829   5.241 -1.8902 -0.0552  0.9372
56616SOL     OW87457   2.812   4.231  13.365 -0.0464  0.2474  0.1103
56616SOL    HW187458   2.777   4.214  13.453  1.0358  1.4031  0.7993
56616SOL    HW287459   2.902   4.259  13.381  1.4586 -3.0320 -1.5928
56617SOL     OW87460  13.344   8.413   2.536  0.3854 -0.5191  0.3408
56617SOL    HW187461  13.287   8.385   2.464  2.0026 -1.3987 -0.6558
56617SOL    HW287462  13.356   8.333   2.588  2.3738 -0.9235 -0.6610
56618SOL     OW87463   7.552   3.799   2.231  0.8558 -0.1215 -0.0354
56618SOL    HW187464   7.620   3.863   2.252 -0.7478  1.8004 -0.3574
56618SOL    HW287465   7.582   3.759   2.149  1.2897  1.2215 -0.5729
56619SOL     OW87466   1.670  11.114   0.303  0.2849  0.1106 -0.0082
56619SOL    HW187467   1.744  11.068   0.262 -0.0751  0.8055 -1.5142
56619SOL    HW287468   1.595  11.057   0.287  0.3926 -0.3676  1.1065
56620SOL     OW87469  10.614  12.904   2.772  0.5904 -0.0683 -0.0850
56620SOL    HW187470  10.587  12.980   2.720  0.3130 -0.5233 -0.6067
56620SOL    HW287471  10.574  12.829   2.729  0.5768 -0.4827  0.6335
56621SOL     OW87472   0.444  10.042  13.069  0.0628 -0.1390  0.2030
56621SOL    HW187473   0.514   9.977  13.076  0.4601  0.4514  3.4773
56621SOL    HW287474   0.367   9.999  13.107 -0.6123  0.1646 -0.7945
56622SOL     OW87475  10.063   4.100  10.673  0.5143 -0.7933 -0.2135
56622SOL    HW187476  10.012   4.034  10.625 -0.3863  0.6079 -1.2507
56622SOL    HW287477  10.143   4.110  10.622 -0.1139  0.1542 -1.0334
56623SOL     OW87478  10.057   2.997   1.418  0.0864 -0.2122 -0.0765
56623SOL    HW187479  10.090   3.043   1.495  2.5897 -0.5940 -0.8407
56623SOL    HW287480  10.006   3.063   1.370 -1.8892 -0.0840  2.0233
56624SOL     OW87481   2.097  11.344   8.307  0.3976  0.2700 -0.3274
56624SOL    HW187482   2.124  11.292   8.382 -0.5131 -0.0264 -0.1875
56624SOL    HW287483   2.029  11.402   8.341  0.5856  0.7393 -0.7375
56625SOL     OW87484   3.567   9.520   4.956  0.2697 -0.1511 -0.4214
56625SOL    HW187485   3.625   9.580   5.003 -0.2660 -0.5974  0.8764
56625SOL    HW287486   3.602   9.433   4.975 -1.4028 -0.5101  1.3209
56626SOL     OW87487   8.441   9.113   2.714  0.4289 -0.1839 -0.4207
56626SOL    HW187488   8.413   9.195   2.755  0.0441 -0.7159  0.3970
56626SOL    HW287489   8.413   9.122   2.623  0.1624  0.4835 -0.2835
56627SOL     OW87490  13.577   2.657   6.624 -0.0865 -0.0683  0.1831
56627SOL    HW187491  13.615   2.744   6.633 -0.4510  0.2784 -1.3743
56627SOL    HW287492  13.523   2.646   6.702  0.9300  0.5759  1.0094
56628SOL     OW87493   5.464  13.720   8.409  0.5283 -0.1063 -0.2591
56628SOL    HW187494   5.556  13.712   8.382  0.7324 -2.3266  0.7952
56628SOL    HW287495   5.463  13.793   8.470  0.9076  2.0633 -2.7046
56629SOL     OW87496  12.074   5.381  13.161  0.2557  0.1149  0.3952
56629SOL    HW187497  12.052   5.429  13.081 -0.7883 -2.5699 -1.0574
56629SOL    HW287498  12.168   5.364  13.153  0.8560  2.5750  1.4013
56630SOL     OW87499   4.563   8.427   1.472  0.1283 -0.5473  0.9336
56630SOL    HW187500   4.579   8.485   1.546 -1.4493 -0.3411  1.1630
56630SOL    HW287501   4.532   8.346   1.512  0.6814 -0.9504  0.5491
56631SOL     OW87502   4.851  11.206   0.194  0.4324  0.0089 -0.2521
56631SOL    HW187503   4.759  11.183   0.204 -0.0087  1.5388 -0.4623
56631SOL    HW287504   4.854  11.257   0.113  1.6421 -0.8727 -0.7838
56632SOL     OW87505   8.864   1.816   2.174  0.3958 -0.6112 -0.1633
56632SOL    HW187506   8.880   1.833   2.082 -0.7914 -0.2558 -0.3204
56632SOL    HW287507   8.835   1.901   2.209 -3.2590 -1.5727 -0.4235
56633SOL     OW87508   3.090  14.072   8.634 -0.9295  0.2437  0.3899
56633SOL    HW187509   3.030  14.019   8.580 -3.6845  4.0036 -0.6538
56633SOL    HW287510   3.146  14.117   8.571 -0.8257  0.9778  0.9926
56634SOL     OW87511   3.632   7.146  13.022 -0.4863  0.1651 -0.0899
56634SOL    HW187512   3.628   7.208  12.949  0.4702  0.1688 -0.1533
56634SOL    HW287513   3.597   7.065  12.986  1.2150 -0.2183 -0.9851
56635SOL     OW87514   1.315  13.300   3.373 -0.1576 -0.1003 -0.1815
56635SOL    HW187515   1.312  13.266   3.284  0.8047  3.3964 -1.7363
56635SOL    HW287516   1.402  13.277   3.405  1.8466  3.3928 -2.5021
56636SOL     OW87517  12.834  11.732   2.634 -0.2160 -0.1254 -0.7165
56636SOL    HW187518  12.902  11.765   2.576  0.7188 -0.4375  0.1723
56636SOL    HW287519  12.820  11.642   2.607  0.2274 -0.2742 -0.4642
56637SOL     OW87520   8.355   9.084   6.354 -0.1704  0.1762  0.3521
56637SOL    HW187521   8.386   9.131   6.432 -1.4577 -0.4245  1.2715
56637SOL    HW287522   8.328   9.153   6.294  0.8924  0.6557  0.4021
56638SOL     OW87523   1.935  11.457   8.920  0.4059 -0.7301  0.0215
56638SOL    HW187524   1.958  11.541   8.882  2.1775 -0.5658  1.3184
56638SOL    HW287525   1.948  11.393   8.849  0.0344 -0.0431 -0.6733
56639SOL     OW87526  13.674  10.998   7.163 -0.0150  0.0966 -0.5828
56639SOL    HW187527  13.686  10.936   7.091  0.3991  2.1564 -2.4155
56639SOL    HW287528  13.744  10.977   7.225 -0.2416 -1.5968 -0.8457
56640SOL     OW87529  12.349   0.469  12.828  0.1933  0.5917  0.1542
56640SOL    HW187530  12.330   0.517  12.909  0.2676  1.2018 -0.1861
56640SOL    HW287531  12.444   0.460  12.827  0.1588  0.1906  0.3537
56641SOL     OW87532   5.493   5.517  13.943  0.2743  0.4590  0.0256
56641SOL    HW187533   5.506   5.611  13.952  2.6147  0.1393  0.9343
56641SOL    HW287534   5.524   5.497  13.854  0.7453  0.4253  0.1953
56642SOL     OW87535  13.150  10.809   2.599  0.6242 -0.3287  0.2607
56642SOL    HW187536  13.244  10.794   2.609  1.2890  1.2713 -2.4477
56642SOL    HW287537  13.115  10.726   2.568  1.1177 -0.9205  1.2360
56643SOL     OW87538   7.387  12.694  10.622 -0.3230  0.1071 -0.1741
56643SOL    HW187539   7.353  12.753  10.555  0.1362 -1.3381 -1.7365
56643SOL    HW287540   7.317  12.631  10.636  0.2350 -0.6063 -0.5633
56644SOL     OW87541  12.011   1.382  10.301  0.5936 -0.0393 -0.5762
56644SOL    HW187542  12.088   1.423  10.341  0.4557  1.3609 -1.6668
56644SOL    HW287543  11.936   1.425  10.343  0.3841 -1.0005  0.0784
56645SOL     OW87544   0.684   3.142   2.690 -0.6761  0.2461 -0.7486
56645SOL    HW187545   0.720   3.078   2.628 -2.4417 -0.8046 -0.7496
56645SOL    HW287546   0.737   3.221   2.676  1.2696 -1.0440 -1.0606
56646SOL     OW87547   0.876   6.966  14.023  0.7421 -0.3006  0.0774
56646SOL    HW187548   0.871   6.879  13.983 -0.7273 -0.0280 -0.4150
56646SOL    HW287549   0.836   7.024  13.958  2.0376  0.8170  0.2444
56647SOL     OW87550   2.191   8.810   5.689  0.3356  0.4587 -0.2102
56647SOL    HW187551   2.217   8.902   5.683 -0.7522  0.9976  2.2072
56647SOL    HW287552   2.185   8.793   5.783  1.0576 -2.2808 -0.5648
56648SOL     OW87553  13.832  13.646   4.876 -0.3178  0.4978  0.0832
56648SOL    HW187554  13.753  13.698   4.857  0.1071  1.6592  1.3176
56648SOL    HW287555  13.870  13.628   4.790 -0.8192  1.7267 -0.4245
56649SOL     OW87556  10.098   3.868   9.613  0.2229 -0.0333 -0.1676
56649SOL    HW187557  10.088   3.812   9.536 -1.8005  1.3324 -1.0059
56649SOL    HW287558  10.065   3.953   9.584  0.2457  0.7503  1.9558
56650SOL     OW87559  12.741  10.356  11.566 -0.1373  0.4008 -0.2860
56650SOL    HW187560  12.661  10.391  11.606 -0.1411 -1.1248  1.1415
56650SOL    HW287561  12.710  10.312  11.487 -0.5294  0.8990 -0.4222
56651SOL     OW87562  13.035  10.569   2.439 -0.0380  0.5937 -0.1791
56651SOL    HW187563  13.124  10.534   2.445 -0.9568 -1.7148  1.9840
56651SOL    HW287564  13.011  10.559   2.347  1.4646  0.0298 -0.5425
56652SOL     OW87565   5.748   2.836   8.366 -0.0387 -0.5353  0.2971
56652SOL    HW187566   5.686   2.874   8.428  0.3956 -1.1896  1.1449
56652SOL    HW287567   5.729   2.743   8.367 -0.5831 -0.4696 -1.2046
56653SOL     OW87568   0.074  11.909   3.844  0.6418 -0.0654  0.2686
56653SOL    HW187569   0.006  11.951   3.896  0.2996 -1.8264  1.3139
56653SOL    HW287570   0.137  11.877   3.908  2.2292  1.0488 -0.6521
56654SOL     OW87571   1.757  11.754  13.914 -0.3901  0.0254  0.2722
56654SOL    HW187572   1.838  11.802  13.930 -1.4309  1.5575  1.2375
56654SOL    HW287573   1.709  11.808  13.850 -0.5044 -1.0476 -0.5702
56655SOL     OW87574   1.608  11.236   3.575 -0.0687 -0.1951  0.8275
56655SOL    HW187575   1.685  11.185   3.601  0.1677 -0.0823  0.3580
56655SOL    HW287576   1.587  11.288   3.652  1.8505  1.6631  0.1988
56656SOL     OW87577   1.481   2.152  13.293 -0.5460 -0.0538 -0.1669
56656SOL    HW187578   1.420   2.098  13.242 -0.5204 -0.2632  0.0238
56656SOL    HW287579   1.567   2.128  13.260 -0.3134 -2.1178  1.7424
56657SOL     OW87580  13.538   3.089  10.381 -0.0242  0.3486 -0.0917
56657SOL    HW187581  13.471   3.134  10.330  0.0321 -0.1199 -0.5837
56657SOL    HW287582  13.564   3.153  10.448 -0.9759  0.5295  0.1250
56658SOL     OW87583   5.914  13.958   9.705  0.2289 -0.4104 -0.2264
56658SOL    HW187584   5.840  13.991   9.654  0.4767 -1.4065 -1.2770
56658SOL    HW287585   5.891  13.978   9.795 -1.1435 -0.3298 -0.5615
56659SOL     OW87586   8.130   8.214   3.594 -0.5189  0.4853 -0.9705
56659SOL    HW187587   8.045   8.187   3.557 -0.1215 -0.4117 -1.2649
56659SOL    HW287588   8.184   8.135   3.589 -1.2890 -0.7413  4.2316
56660SOL     OW87589   8.644  11.040  13.487 -0.3626  0.0867 -0.2176
56660SOL    HW187590   8.573  11.097  13.458 -1.9360 -1.0088  1.2838
56660SOL    HW287591   8.684  11.086  13.561 -1.1682 -0.4019  0.5374
56661SOL     OW87592   3.110  12.366  10.017  0.0029 -0.0112  0.1125
56661SOL    HW187593   3.156  12.425   9.957 -1.0973 -1.2479 -2.0866
56661SOL    HW287594   3.139  12.278   9.990  0.7408 -0.5912  2.5504
56662SOL     OW87595   5.236   2.467  10.870  0.3475  1.0326  0.0158
56662SOL    HW187596   5.300   2.411  10.914 -0.1096  0.6246  0.1718
56662SOL    HW287597   5.156   2.457  10.922  0.2187  1.7130 -0.0448
56663SOL     OW87598   8.042   0.321  11.840 -0.2494  0.2898 -0.5568
56663SOL    HW187599   8.098   0.262  11.891  0.3131  0.3248 -1.1114
56663SOL    HW287600   8.104   0.371  11.787 -0.8399 -0.1093 -1.6482
56664SOL     OW87601  10.593   8.853  10.825 -0.4482  0.1849 -0.5191
56664SOL    HW187602  10.648   8.799  10.881  1.4485  1.0387 -1.4886
56664SOL    HW287603  10.547   8.791  10.769 -0.5770 -0.5418  0.3635
56665SOL     OW87604   3.491  12.913   1.617  0.1539  0.4496  0.0317
56665SOL    HW187605   3.547  12.965   1.559 -1.5983  0.7417 -1.5228
56665SOL    HW287606   3.430  12.869   1.557  0.4527 -2.0146  1.4494
56666SOL     OW87607   3.066   2.499   5.972  0.2942  0.1946 -0.0408
56666SOL    HW187608   3.142   2.533   5.924  1.6157 -0.2501  1.6237
56666SOL    HW287609   3.097   2.490   6.062 -1.8556  0.2846  0.7656
56667SOL     OW87610   8.869   2.693   9.182  0.2215  0.7104 -0.0170
56667SOL    HW187611   8.854   2.762   9.247 -0.6482  2.2587 -1.7526
56667SOL    HW287612   8.957   2.710   9.148 -0.2649  1.4868 -0.9610
56668SOL     OW87613   3.402   5.492   3.662  0.4045  0.2594 -0.4773
56668SOL    HW187614   3.387   5.574   3.616 -0.5400  0.4612  0.1724
56668SOL    HW287615   3.351   5.427   3.614 -1.7885  0.7362  1.0664
56669SOL     OW87616   7.644   8.029   4.861 -0.2801  0.4080  0.5700
56669SOL    HW187617   7.622   7.953   4.807 -2.4670 -0.2343  2.2072
56669SOL    HW287618   7.736   8.015   4.885 -0.5206 -1.5475  0.5370
56670SOL     OW87619   3.480   1.484   4.312  0.3488 -0.2131 -0.3969
56670SOL    HW187620   3.554   1.459   4.367 -0.5081  0.0263  0.9052
56670SOL    HW287621   3.410   1.422   4.336  0.0902 -0.3789 -1.5326
56671SOL     OW87622   3.467   5.581  13.518 -0.6881 -0.3418  0.1165
56671SOL    HW187623   3.419   5.663  13.524 -0.8470 -0.4179 -0.1015
56671SOL    HW287624   3.492   5.574  13.426 -0.5128 -0.4481  0.1692
56672SOL     OW87625   2.975   9.475   9.028  0.0437  0.7079  0.1547
56672SOL    HW187626   2.978   9.386   8.993  0.2138 -0.3114  2.5582
56672SOL    HW287627   3.056   9.516   8.998  0.1007 -0.0350 -0.7360
56673SOL     OW87628   2.935   5.817   1.937 -0.0123 -0.6500 -0.0479
56673SOL    HW187629   2.931   5.906   1.971 -0.1611 -0.1409 -1.3223
56673SOL    HW287630   2.845   5.798   1.909  0.0891 -1.0587 -0.1043
56674SOL     OW87631   6.029  10.564   0.529  0.2261 -0.0776 -0.1241
56674SOL    HW187632   5.941  10.528   0.532  0.4193 -0.6639 -1.1852
56674SOL    HW287633   6.081  10.504   0.583  0.3325 -0.7963 -1.0066
56675SOL     OW87634   7.589   8.903  13.005 -0.1749  0.2167 -0.5029
56675SOL    HW187635   7.547   8.836  13.059 -0.5714 -0.3004 -1.4344
56675SOL    HW287636   7.596   8.864  12.918 -0.1758  1.2896 -1.0080
56676SOL     OW87637  11.734   9.777   2.747  0.2889 -0.1477  0.0658
56676SOL    HW187638  11.657   9.803   2.798  0.2016 -0.8775  0.3236
56676SOL    HW287639  11.698   9.727   2.674  0.3747  1.3565 -1.0354
56677SOL     OW87640  12.932   5.499   7.844 -0.2089 -0.4751 -0.2727
56677SOL    HW187641  12.951   5.455   7.761  0.2173  1.0061 -1.0057
56677SOL    HW287642  13.000   5.468   7.904 -0.1988 -1.1513 -0.6264
56678SOL     OW87643  13.191   2.493  12.894  0.4417  0.0518  0.5785
56678SOL    HW187644  13.098   2.516  12.902  0.7553  1.2736  0.8590
56678SOL    HW287645  13.207   2.492  12.799 -0.0104 -0.8505  0.4998
56679SOL     OW87646   2.494   5.029   8.281  0.4140  0.0315 -0.3688
56679SOL    HW187647   2.471   4.937   8.297 -1.4281  0.1667 -1.9364
56679SOL    HW287648   2.436   5.079   8.338  1.5987  0.2651  0.6857
56680SOL     OW87649   1.411  13.438   8.365  0.4926 -0.7100  0.3242
56680SOL    HW187650   1.465  13.516   8.379 -0.5766 -0.0592  1.0053
56680SOL    HW287651   1.321  13.471   8.370  0.0240 -1.8195 -0.4337
56681SOL     OW87652  11.059   7.995  13.813 -0.1899  0.2540 -0.4780
56681SOL    HW187653  11.132   7.966  13.867 -1.6654  1.8375  2.5814
56681SOL    HW287654  10.990   7.930  13.829 -1.1462  1.5420  0.8433
56682SOL     OW87655   4.978  12.564   1.134 -0.3475 -0.0405 -0.0969
56682SOL    HW187656   5.060  12.595   1.172 -0.1699 -1.0820  0.3919
56682SOL    HW287657   4.982  12.590   1.042 -0.1186  1.1794  0.2383
56683SOL     OW87658  11.656   5.052   7.954  0.1599  0.0966  0.6717
56683SOL    HW187659  11.653   5.023   7.863 -0.1307 -0.2231  0.7831
56683SOL    HW287660  11.713   4.988   7.998  1.8109  1.2673  0.3509
56684SOL     OW87661   9.689   3.265   0.320 -0.1336 -0.6750 -0.6747
56684SOL    HW187662   9.697   3.180   0.364  0.5639  0.0903  0.7385
56684SOL    HW287663   9.756   3.263   0.251  0.2449 -1.0576 -0.2996
56685SOL     OW87664   4.941   0.191   9.309 -0.3966  1.1132  0.2885
56685SOL    HW187665   4.960   0.262   9.370  1.8692  1.0114 -0.2118
56685SOL    HW287666   4.968   0.111   9.356 -0.7713  0.8010 -0.0189
56686SOL     OW87667   9.545   2.903   9.351 -0.6207 -0.3707  0.0729
56686SOL    HW187668   9.561   2.850   9.429 -0.5433 -0.9224 -0.3118
56686SOL    HW287669   9.459   2.943   9.367 -1.0406 -1.2262  0.0354
56687SOL     OW87670   6.214   7.560  12.757  0.2035 -0.4391  0.8227
56687SOL    HW187671   6.142   7.528  12.812 -0.2653 -0.2402  0.3315
56687SOL    HW287672   6.208   7.655  12.764 -1.0147 -0.3464 -1.0148
56688SOL     OW87673   9.897   9.153   0.693  0.0256 -0.7563 -0.1928
56688SOL    HW187674   9.883   9.226   0.633 -0.4359  1.0881  1.9985
56688SOL    HW287675   9.817   9.149   0.746  2.2547  1.3575  3.8456
56689SOL     OW87676  13.796   4.339   4.443 -0.3555 -0.4217  0.1101
56689SOL    HW187677  13.760   4.342   4.354  0.5884 -0.2081 -0.2716
56689SOL    HW287678  13.760   4.417   4.485  0.1121  0.1119 -0.4522
56690SOL     OW87679   7.509   0.942   2.684 -0.3437  0.3035  0.2495
56690SOL    HW187680   7.517   0.855   2.644 -3.0728 -0.7303  1.6878
56690SOL    HW287681   7.490   1.000   2.610 -3.2543 -1.2029 -0.3475
56691SOL     OW87682   6.939  11.175   0.748 -0.3575 -1.0413  0.1356
56691SOL    HW187683   6.845  11.167   0.733 -0.1433  0.2188 -2.3278
56691SOL    HW287684   6.957  11.268   0.733  1.3264 -1.3076  0.3436
56692SOL     OW87685   2.869   6.577   8.047  0.2392  0.1527 -0.0451
56692SOL    HW187686   2.929   6.642   8.085  1.4152  0.0763 -1.6825
56692SOL    HW287687   2.878   6.500   8.103  1.0309  0.4318  0.2195
56693SOL     OW87688   3.941   1.551  11.782 -0.2572  0.0660  0.5429
56693SOL    HW187689   3.949   1.457  11.768 -0.4488 -0.1019  1.4958
56693SOL    HW287690   3.886   1.560  11.861 -2.3215  1.0171 -0.9037
56694SOL     OW87691   7.259   0.842   0.582  0.8386 -0.2342  0.2704
56694SOL    HW187692   7.319   0.890   0.640  1.9795 -1.0895 -0.1679
56694SOL    HW287693   7.187   0.817   0.639 -0.1675  2.5371  0.3871
56695SOL     OW87694   7.007   5.895  11.814 -0.1341  0.0112 -0.2147
56695SOL    HW187695   7.102   5.882  11.816 -0.1078  0.1908  1.8250
56695SOL    HW287696   6.975   5.827  11.755  1.2752  0.1178 -1.1545
56696SOL     OW87697   7.590   6.710   4.841 -0.0333  0.3226 -0.2382
56696SOL    HW187698   7.596   6.624   4.882 -1.0445  0.2569 -0.2125
56696SOL    HW287699   7.553   6.692   4.754  1.0028  0.5932 -0.7600
56697SOL     OW87700   7.749   4.655   3.815 -0.1348 -0.0812 -0.3165
56697SOL    HW187701   7.729   4.562   3.807  0.6573 -0.1626 -1.5613
56697SOL    HW287702   7.665   4.699   3.803 -0.2057 -0.5668 -1.7979
56698SOL     OW87703   7.384   6.786   0.352  0.2516  0.5957  0.1197
56698SOL    HW187704   7.459   6.803   0.408  0.7192 -1.7395  0.3067
56698SOL    HW287705   7.323   6.738   0.408  0.1693 -0.6326 -0.9834
56699SOL     OW87706   4.550  13.070   0.906 -0.3235  0.1162 -0.1545
56699SOL    HW187707   4.547  13.043   0.998  1.8714  0.5018  0.0729
56699SOL    HW287708   4.594  13.155   0.908  1.5276 -0.7480 -1.7136
56700SOL     OW87709   8.328   1.278   5.841 -0.3032  0.1993  0.6598
56700SOL    HW187710   8.419   1.289   5.814 -0.7545  0.3516 -0.9350
56700SOL    HW287711   8.295   1.367   5.851 -0.1051  0.1485  1.9739
56701SOL     OW87712   9.105  13.621   4.000 -0.1233  0.3633  0.3433
56701SOL    HW187713   9.165  13.669   4.058  2.2942 -0.5119 -1.2716
56701SOL    HW287714   9.019  13.632   4.040  0.7149  3.6334  1.5838
56702SOL     OW87715   9.971   4.962   9.904 -0.4550 -0.1539 -0.0604
56702SOL    HW187716  10.049   4.918   9.868  0.3012 -0.4245  1.8099
56702SOL    HW287717   9.986   4.964   9.998 -2.7138 -0.1481  0.3537
56703SOL     OW87718   3.943  13.649   9.942 -0.6075  0.1136 -0.3853
56703SOL    HW187719   3.885  13.686  10.009 -0.8035 -0.9422  0.0464
56703SOL    HW287720   4.028  13.643   9.986 -0.6598 -0.2734 -0.3341
56704SOL     OW87721  13.030  11.381   0.074  0.2638 -0.1078 -0.3412
56704SOL    HW187722  12.946  11.420   0.047 -0.4295 -2.2568 -1.5702
56704SOL    HW287723  13.096  11.446   0.049 -0.8260  0.3563 -2.2590
56705SOL     OW87724   8.639   9.901   4.190  0.7624  0.1903 -0.6792
56705SOL    HW187725   8.698   9.941   4.253 -0.1849 -0.8240  0.9267
56705SOL    HW287726   8.676   9.814   4.174 -0.8990 -1.0341  1.4483
56706SOL     OW87727   7.916   8.044   2.102  0.1972 -0.4635  0.0251
56706SOL    HW187728   7.903   8.038   2.008  1.7241 -0.5962 -0.1982
56706SOL    HW287729   7.888   8.133   2.124 -2.1422 -1.0980 -0.1744
56707SOL     OW87730   3.406   0.164   6.137 -0.0951 -0.2555  0.0107
56707SOL    HW187731   3.311   0.159   6.135 -0.0797 -2.0378  1.2039
56707SOL    HW287732   3.426   0.219   6.213 -0.1375  1.7326 -1.3508
56708SOL     OW87733   1.348   6.791   3.684 -0.4545 -0.1108 -0.3814
56708SOL    HW187734   1.293   6.836   3.748 -0.8781  0.1435 -0.9168
56708SOL    HW287735   1.309   6.812   3.599  0.2036 -0.2972 -0.7413
56709SOL     OW87736   0.720  10.037   5.978  0.2043 -0.0626  0.1349
56709SOL    HW187737   0.807  10.049   5.940 -0.0760  0.2854 -0.4168
56709SOL    HW287738   0.660  10.064   5.909 -0.3186  1.4353  1.1212
56710SOL     OW87739   9.884   3.263  13.535 -0.3758  0.5592  0.3788
56710SOL    HW187740   9.949   3.276  13.466  0.2265  0.6547  0.9500
56710SOL    HW287741   9.921   3.307  13.611 -0.8012  0.0290  0.9015
56711SOL     OW87742  10.582   0.991  13.812  0.7068  0.0957 -0.5972
56711SOL    HW187743  10.629   1.054  13.866  2.3678 -0.9772 -0.6967
56711SOL    HW287744  10.597   0.907  13.856  0.5708 -0.5466 -1.7493
56712SOL     OW87745   0.745   4.684  10.293 -0.0492  0.4177  0.1767
56712SOL    HW187746   0.719   4.776  10.288  0.7553  0.5885 -0.9910
56712SOL    HW287747   0.663   4.637  10.311 -0.8501  1.1497 -1.4009
56713SOL     OW87748   8.368  11.235   4.591  0.3447  0.5457 -0.5657
56713SOL    HW187749   8.318  11.277   4.521 -1.0464 -1.3433 -0.7863
56713SOL    HW287750   8.411  11.307   4.637  1.6344  1.8416 -3.5415
56714SOL     OW87751   2.162   8.675  12.951 -0.1194  0.8634  0.5105
56714SOL    HW187752   2.148   8.767  12.930 -1.1141  0.4686 -0.6367
56714SOL    HW287753   2.081   8.631  12.924 -0.2451 -0.1552  2.3360
56715SOL     OW87754   7.445  12.475   3.758  0.2134 -0.3130  0.0931
56715SOL    HW187755   7.519  12.489   3.816  1.4318 -1.5232 -1.0913
56715SOL    HW287756   7.425  12.562   3.723 -0.6586  0.4664  2.3664
56716SOL     OW87757   4.065   8.965   3.621 -0.3230 -0.3279  0.3131
56716SOL    HW187758   4.143   8.989   3.572 -1.6558  1.7075 -0.9736
56716SOL    HW287759   3.994   9.013   3.578 -2.0720 -0.9944  2.2850
56717SOL     OW87760  13.593   7.604  12.873 -0.0086  0.1880 -0.2746
56717SOL    HW187761  13.517   7.662  12.867 -0.7299 -0.2634  2.7943
56717SOL    HW287762  13.558   7.516  12.858  0.6833  0.2603 -2.6941
56718SOL     OW87763   1.454   2.796   2.322 -0.3212  1.0271 -0.1370
56718SOL    HW187764   1.519   2.866   2.325  0.4918  0.2538  0.6671
56718SOL    HW287765   1.411   2.799   2.408 -1.0906  1.2675 -0.5144
56719SOL     OW87766  11.503   5.891  10.468  0.7702  0.5731  0.4256
56719SOL    HW187767  11.520   5.978  10.431 -0.7460  0.8223  0.2524
56719SOL    HW287768  11.412   5.873  10.446  1.1118 -1.1660  0.2826
56720SOL     OW87769   4.093  13.395   4.362  0.1115  1.0175  0.0365
56720SOL    HW187770   4.026  13.327   4.361  1.1583 -0.0463 -1.1379
56720SOL    HW287771   4.047  13.475   4.338 -0.8961  0.4853  0.1632
56721SOL     OW87772   5.907  11.848   7.517  0.9196 -0.0889  0.0453
56721SOL    HW187773   5.904  11.835   7.611  0.2496 -0.5233 -0.0343
56721SOL    HW287774   5.890  11.761   7.480  2.3729 -0.1787 -0.4780
56722SOL     OW87775   3.001   3.189   5.009  0.1171 -0.1918  0.1090
56722SOL    HW187776   3.030   3.129   4.939  0.9402 -0.7019  0.8623
56722SOL    HW287777   2.998   3.275   4.967  0.3302 -0.5332 -0.6308
56723SOL     OW87778  13.727  12.331   7.919 -0.6698  0.4115  0.4685
56723SOL    HW187779  13.792  12.293   7.860 -0.5295  0.7960  0.3727
56723SOL    HW287780  13.643  12.310   7.879 -0.5980  0.1230  0.4653
56724SOL     OW87781   1.980   5.436  12.987  0.0241 -0.6367  0.0289
56724SOL    HW187782   2.025   5.477  13.061  0.9274  0.4972 -1.1032
56724SOL    HW287783   2.050   5.391  12.938 -0.6017 -1.5869 -0.0209
56725SOL     OW87784   3.173   7.574   2.516  0.4336  0.2044  0.0536
56725SOL    HW187785   3.186   7.495   2.463 -2.0792 -0.8423  0.8239
56725SOL    HW287786   3.242   7.570   2.582  0.8806 -0.8893 -0.4541
56726SOL     OW87787   5.727   7.014   2.355  0.1257  0.1726 -0.2510
56726SOL    HW187788   5.710   7.026   2.449  1.6775 -0.8762  0.1927
56726SOL    HW287789   5.640   6.997   2.318 -0.4653  0.1581  1.0637
56727SOL     OW87790   2.505  11.206   8.204  0.2045 -0.0933  0.2722
56727SOL    HW187791   2.502  11.115   8.235  2.6987 -0.5809 -0.6943
56727SOL    HW287792   2.461  11.204   8.119 -2.5296  0.3280  1.5507
56728SOL     OW87793   6.664  12.354   0.417 -0.1583 -0.0967  0.5978
56728SOL    HW187794   6.672  12.302   0.337 -1.1558  1.2063 -0.3974
56728SOL    HW287795   6.691  12.294   0.487  2.9436 -0.6312 -0.8516
56729SOL     OW87796  12.697  12.339   8.065 -0.6081  0.4335  0.3543
56729SOL    HW187797  12.711  12.310   7.975 -0.2323  0.8250  0.2820
56729SOL    HW287798  12.649  12.422   8.056 -1.0156  0.2229  0.5332
56730SOL     OW87799  14.064  11.030   0.887 -0.3883  0.5176 -0.2774
56730SOL    HW187800  14.146  10.982   0.896 -0.6295 -0.0168 -0.8631
56730SOL    HW287801  14.090  11.122   0.895  0.5369  0.4615 -2.1024
56731SOL     OW87802  10.524   5.351   7.785  0.1581  0.5591 -0.5560
56731SOL    HW187803  10.568   5.319   7.864  0.4254 -2.4998 -1.7861
56731SOL    HW287804  10.434   5.319   7.794 -0.2541  1.6473 -0.7496
56732SOL     OW87805  12.433   9.810   5.049 -1.0162 -0.1067 -0.3338
56732SOL    HW187806  12.371   9.740   5.030 -0.2064 -0.7770 -0.5551
56732SOL    HW287807  12.461   9.794   5.139  0.0988 -0.8233 -0.7821
56733SOL     OW87808   9.628   1.955  12.457 -0.3870  0.8933 -0.1351
56733SOL    HW187809   9.580   1.920  12.532 -1.8604  0.3977 -1.2676
56733SOL    HW287810   9.720   1.943  12.479 -0.8077  0.0954  1.2708
56734SOL     OW87811  11.094   7.871  12.714 -0.0502  0.1262 -0.1055
56734SOL    HW187812  11.018   7.895  12.661  0.7188  1.1685 -0.7600
56734SOL    HW287813  11.166   7.864  12.651  0.6788  0.4458  0.6811
56735SOL     OW87814   5.638   0.558   7.132  0.1432 -0.2808 -0.7388
56735SOL    HW187815   5.618   0.593   7.045  2.4248 -0.4033 -1.3825
56735SOL    HW287816   5.715   0.608   7.160  2.4016 -3.3813 -0.8956
56736SOL     OW87817   2.443   0.586   0.069  0.5438  0.1739  0.1699
56736SOL    HW187818   2.388   0.601  -0.008  0.9384 -0.3248 -0.2188
56736SOL    HW287819   2.528   0.624   0.045  0.7040 -0.0929  0.3150
56737SOL     OW87820  12.009  11.183   2.234 -0.7739 -0.0812 -0.0924
56737SOL    HW187821  11.991  11.273   2.261 -1.0300 -0.0363 -0.4110
56737SOL    HW287822  12.075  11.190   2.165 -2.0280 -0.0099 -1.3255
56738SOL     OW87823  13.410   1.396   8.053 -0.0335  0.3009 -0.2162
56738SOL    HW187824  13.449   1.388   7.966  1.1956  1.6252  0.1711
56738SOL    HW287825  13.478   1.438   8.106 -0.4542 -1.1443  1.6019
56739SOL     OW87826  12.620  11.854  10.147 -0.1182 -0.8921 -0.1258
56739SOL    HW187827  12.569  11.853  10.228  0.8997  0.0698  0.5573
56739SOL    HW287828  12.703  11.814  10.171  1.2490  1.8649  0.0793
56740SOL     OW87829   2.821  10.250   2.174  0.3046  0.1778 -0.0902
56740SOL    HW187830   2.830  10.165   2.131  0.3733  0.2794 -0.2751
56740SOL    HW287831   2.808  10.312   2.103  0.0675  0.2976  0.0570
56741SOL     OW87832   0.428   2.506  11.296  0.1900  0.4051  0.5461
56741SOL    HW187833   0.335   2.484  11.296 -0.2398  2.0304 -0.7063
56741SOL    HW287834   0.453   2.509  11.204  1.6068 -0.3847  0.8669
56742SOL     OW87835   6.498   9.283   1.864 -0.1682  0.0354  0.7997
56742SOL    HW187836   6.576   9.285   1.809  0.8980  2.5754  2.2500
56742SOL    HW287837   6.519   9.222   1.934 -0.0619 -0.3780  0.4118
56743SOL     OW87838   4.318   1.131   7.069  0.3253 -0.3505  0.2254
56743SOL    HW187839   4.407   1.127   7.104  1.2796  0.5627 -1.9047
56743SOL    HW287840   4.285   1.216   7.097  0.4363 -0.3448  0.3398
56744SOL     OW87841   3.152   7.471   3.336 -0.0849  0.5739  0.3570
56744SOL    HW187842   3.208   7.545   3.361  4.0192 -2.7479  2.1787
56744SOL    HW287843   3.203   7.424   3.270 -1.7682 -1.5247  0.4564
56745SOL     OW87844  10.103   2.388  13.849 -0.4591  0.2638 -0.6359
56745SOL    HW187845  10.010   2.373  13.833 -0.6593 -0.5946  1.1016
56745SOL    HW287846  10.148   2.323  13.794 -1.0007 -0.8846  0.2330
56746SOL     OW87847   4.446  13.863   5.339  0.3840  0.0816  0.1537
56746SOL    HW187848   4.389  13.899   5.407  0.0617 -0.9869  0.4621
56746SOL    HW287849   4.533  13.863   5.379  0.4135  0.6059  0.1054
56747SOL     OW87850   9.958   0.336  10.237 -0.5029 -0.2191 -0.1384
56747SOL    HW187851   9.958   0.312  10.330  1.3956 -2.1769 -0.5709
56747SOL    HW287852  10.034   0.393  10.227 -0.7793  0.0961 -0.4828
56748SOL     OW87853   9.604   9.614  11.321 -0.0566  0.5795  0.3584
56748SOL    HW187854   9.603   9.709  11.336  2.1843  0.6520  0.3406
56748SOL    HW287855   9.696   9.592  11.313 -0.5380 -1.6244  0.3013
56749SOL     OW87856   5.388  13.024   4.182 -0.2104  0.3642 -0.1745
56749SOL    HW187857   5.300  13.058   4.196 -0.5726 -0.4911 -0.3255
56749SOL    HW287858   5.402  12.963   4.255 -0.8186 -1.5665 -1.5924
56750SOL     OW87859   6.082   3.328  13.453 -0.3133  0.1022 -0.2044
56750SOL    HW187860   6.138   3.300  13.526  0.0616 -1.5511 -1.0791
56750SOL    HW287861   6.008   3.372  13.496  1.3132  1.7923  1.0000
56751SOL     OW87862  13.462   1.525  13.607  0.3204  0.2961 -0.4036
56751SOL    HW187863  13.532   1.475  13.566  0.9030 -0.6724  1.6600
56751SOL    HW287864  13.399   1.459  13.637 -0.0950  0.9591  0.2311
56752SOL     OW87865   1.816   1.772   2.083  0.0109  0.0398 -0.0741
56752SOL    HW187866   1.889   1.720   2.117 -0.5385 -0.5177  0.2740
56752SOL    HW287867   1.761   1.788   2.160 -0.6082 -0.1627 -0.4744
56753SOL     OW87868   1.565  12.143  11.063  0.3599 -0.5478  0.2441
56753SOL    HW187869   1.486  12.178  11.023  0.4863 -0.0996  0.3794
56753SOL    HW287870   1.634  12.157  10.998  0.3505 -0.8427  0.1677
56754SOL     OW87871  12.642   7.447   0.470  0.4997 -0.3155  0.2309
56754SOL    HW187872  12.586   7.464   0.395 -0.2246  0.4478  0.9182
56754SOL    HW287873  12.730   7.473   0.442 -0.0003  1.2902  0.0950
56755SOL     OW87874   7.894  10.237   1.362  0.5962 -0.8275  0.2494
56755SOL    HW187875   7.826  10.255   1.298 -0.8522 -0.8039  1.7080
56755SOL    HW287876   7.962  10.302   1.344  0.1656 -0.7243 -1.1274
56756SOL     OW87877   2.094  10.732  13.168  0.5073 -0.2329 -0.3385
56756SOL    HW187878   2.003  10.761  13.167  0.5505  0.0626  1.4513
56756SOL    HW287879   2.121  10.735  13.076 -0.7954  1.2034 -0.7153
56757SOL     OW87880   9.603   7.382   2.387  0.0445  0.4463  0.4317
56757SOL    HW187881   9.585   7.457   2.445 -2.8460  0.9295 -0.9278
56757SOL    HW287882   9.524   7.373   2.335  0.9418 -2.6174 -0.5677
56758SOL     OW87883  10.551   8.035   0.011  0.1442  0.3352  0.6909
56758SOL    HW187884  10.524   8.106  -0.048  2.9307 -0.2701 -1.5012
56758SOL    HW287885  10.606   8.079   0.077  0.8999  0.4157  0.0239
56759SOL     OW87886   1.385   2.000   2.374  0.1642 -0.1132  0.0457
56759SOL    HW187887   1.312   2.008   2.313 -0.6080  1.8645  1.1407
56759SOL    HW287888   1.427   1.917   2.350 -1.3682 -0.4469 -1.7468
56760SOL     OW87889   9.677   1.761   7.516  0.4004  0.1720 -0.6044
56760SOL    HW187890   9.606   1.781   7.577  0.0168 -0.4974 -0.8209
56760SOL    HW287891   9.635   1.709   7.447  0.8806  0.6762 -1.2969
56761SOL     OW87892  12.547   7.215   8.487 -0.2273 -0.1016  0.5698
56761SOL    HW187893  12.466   7.226   8.537  0.7161  1.1232  1.9211
56761SOL    HW287894  12.577   7.127   8.508 -2.0202 -1.2545 -1.2951
56762SOL     OW87895   7.928  12.444  13.104  0.2071  0.1463  0.3945
56762SOL    HW187896   7.858  12.486  13.054  1.1853 -0.3004 -1.4502
56762SOL    HW287897   7.910  12.350  13.097 -0.0931  0.1035  1.6047
56763SOL     OW87898   0.179   1.690   4.994 -0.2418 -0.7060  0.2930
56763SOL    HW187899   0.136   1.649   4.919  0.5029  0.1136 -0.6078
56763SOL    HW287900   0.119   1.759   5.021  0.4821  0.5061 -1.0296
56764SOL     OW87901   5.742  13.470   9.983 -0.2719 -0.1036  0.1934
56764SOL    HW187902   5.678  13.505  10.045  0.8073  0.8412  0.8248
56764SOL    HW287903   5.766  13.546   9.929  0.6040 -0.3389  0.2375
56765SOL     OW87904   3.581   9.822  10.957 -0.0729 -0.3941 -0.3341
56765SOL    HW187905   3.632   9.826  10.876  1.1332  0.8831  0.4668
56765SOL    HW287906   3.603   9.737  10.995 -2.1726 -1.9411 -2.2453
56766SOL     OW87907  10.091   1.196   5.288  0.0851  0.2675  0.3308
56766SOL    HW187908  10.003   1.183   5.252  0.4349 -0.1779 -0.3786
56766SOL    HW287909  10.089   1.146   5.370 -0.2558  0.0716  0.2094
56767SOL     OW87910   4.403  10.567  11.020 -0.3144 -0.8574  0.8941
56767SOL    HW187911   4.314  10.596  11.000 -0.0048 -0.3025  0.2909
56767SOL    HW287912   4.410  10.480  10.979 -0.4760 -0.7698  0.6809
56768SOL     OW87913   9.740   1.034   7.826  0.3739  0.3601  0.0513
56768SOL    HW187914   9.771   0.976   7.757  1.1358  3.1842 -2.1911
56768SOL    HW287915   9.656   1.067   7.795 -0.4280 -0.0910  1.6330
56769SOL     OW87916   2.928   3.406  10.943  0.0757 -0.6383 -0.0518
56769SOL    HW187917   3.006   3.364  10.981  0.5203 -1.9482 -2.1848
56769SOL    HW287918   2.878   3.333  10.907 -0.7309  0.4320 -1.1650
56770SOL     OW87919   6.557   1.838   8.387  0.0781 -0.2705  0.3483
56770SOL    HW187920   6.605   1.777   8.443 -0.2184  0.0585  0.9731
56770SOL    HW287921   6.480   1.863   8.440  0.5934  1.2463  0.4329
56771SOL     OW87922   8.641   3.434   9.534 -0.2433 -0.2373 -0.5747
56771SOL    HW187923   8.689   3.516   9.525 -1.7582  0.5848 -1.7428
56771SOL    HW287924   8.584   3.431   9.457  1.4458 -3.5879 -1.8689
56772SOL     OW87925   5.851  13.666  13.708 -0.1467 -0.5518  0.2917
56772SOL    HW187926   5.807  13.630  13.784 -3.7360  3.8552  0.7197
56772SOL    HW287927   5.908  13.735  13.743  1.9276 -1.5696 -0.8420
56773SOL     OW87928   7.623   9.350   0.977  0.0788  0.3405 -0.7155
56773SOL    HW187929   7.532   9.342   0.948  0.0901  0.2565 -0.7284
56773SOL    HW287930   7.619   9.337   1.072  0.2499 -1.0870 -0.8737
56774SOL     OW87931   6.927   2.584   6.051  0.4542  0.1600  0.6906
56774SOL    HW187932   6.872   2.510   6.077 -0.5562  0.1927 -1.2124
56774SOL    HW287933   6.906   2.653   6.113 -0.4786 -0.3447  0.9473
56775SOL     OW87934   0.251   8.143   8.797  0.1260 -0.1387  0.0879
56775SOL    HW187935   0.222   8.234   8.810  0.8624  0.0471  0.4625
56775SOL    HW287936   0.335   8.138   8.843 -0.2146 -1.1837  0.6215
56776SOL     OW87937   6.444   8.045   6.352 -0.0939 -0.1634 -0.3261
56776SOL    HW187938   6.390   8.118   6.323  1.4274  0.7211 -1.0369
56776SOL    HW287939   6.519   8.044   6.293  1.0726 -0.8552  1.0739
56777SOL     OW87940   0.962   7.126   2.758  0.1324  0.1390 -0.2015
56777SOL    HW187941   0.906   7.051   2.740 -0.6015  0.1805  1.6929
56777SOL    HW287942   1.048   7.088   2.777 -0.3215 -0.2944  1.1146
56778SOL     OW87943   6.647  12.546   2.577  0.3346 -0.3976  1.0231
56778SOL    HW187944   6.698  12.477   2.619  0.0934 -0.7292  0.7783
56778SOL    HW287945   6.654  12.620   2.637  2.4977  0.1371  0.2005
56779SOL     OW87946  13.152   2.235   9.280 -0.5095 -0.7922 -0.1694
56779SOL    HW187947  13.069   2.272   9.251 -1.6338 -0.9997  2.4927
56779SOL    HW287948  13.128   2.155   9.325  1.2290 -1.2385  0.0352
56780SOL     OW87949   1.528   8.670   1.849  0.0426  0.2821  0.1304
56780SOL    HW187950   1.575   8.750   1.874  0.8607  0.8213 -2.8147
56780SOL    HW287951   1.447   8.701   1.809 -1.1425 -0.5430  1.7855
56781SOL     OW87952  13.019   6.025  12.182 -0.6530 -0.4346 -0.1728
56781SOL    HW187953  13.079   6.025  12.107 -1.2039  1.5965 -0.6800
56781SOL    HW287954  12.944   6.078  12.153 -0.4935  1.2021  2.0856
56782SOL     OW87955   5.670   6.893   1.342 -0.2429 -0.5463  0.2697
56782SOL    HW187956   5.760   6.908   1.313 -0.2947  0.0542  0.4064
56782SOL    HW287957   5.659   6.952   1.417 -1.2307  0.5393 -0.6920
56783SOL     OW87958   4.904  13.156   0.801  0.5087 -0.3358  0.1050
56783SOL    HW187959   4.986  13.171   0.849  1.4234  2.7356 -2.0645
56783SOL    HW287960   4.836  13.178   0.864  1.5353  0.4546  0.9880
56784SOL     OW87961   9.240   0.167   9.211  0.3608  0.3763  0.0780
56784SOL    HW187962   9.229   0.209   9.126  0.7217 -1.0025 -0.6721
56784SOL    HW287963   9.209   0.233   9.274 -2.5064  0.4873 -1.2527
56785SOL     OW87964   0.478   4.973   3.112  0.2988 -0.1532 -0.5284
56785SOL    HW187965   0.472   5.052   3.060  1.5522  0.4549  0.2233
56785SOL    HW287966   0.571   4.951   3.115  0.4472  0.4229  2.2474
56786SOL     OW87967  11.057   5.479   6.728 -0.5254  0.4254  0.8389
56786SOL    HW187968  11.130   5.489   6.667 -2.2369  0.5221 -1.3513
56786SOL    HW287969  11.036   5.386   6.726 -0.8106  0.4838  1.0300
56787SOL     OW87970   3.671  13.235   3.119  0.7403 -0.7890 -0.2423
56787SOL    HW187971   3.730  13.177   3.070  1.1072  0.5371 -1.4587
56787SOL    HW287972   3.728  13.305   3.151  0.2358 -0.8475  0.8202
56788SOL     OW87973  14.034   0.781   8.347 -0.6523  0.2489  0.0801
56788SOL    HW187974  14.080   0.751   8.426 -0.3449  0.4400 -0.0248
56788SOL    HW287975  13.946   0.802   8.377 -0.1302  1.7039  0.6743
56789SOL     OW87976   3.997   4.022   0.298 -0.0085 -0.6763 -0.2678
56789SOL    HW187977   4.030   4.103   0.339  0.9751 -1.2290  0.0637
56789SOL    HW287978   4.063   4.000   0.232  0.6872 -2.1742  0.8689
56790SOL     OW87979  11.102  13.241   6.901 -0.1323 -0.1897 -0.1580
56790SOL    HW187980  11.076  13.300   6.831 -1.2263 -1.1284 -0.5748
56790SOL    HW287981  11.020  13.213   6.941  0.4543  0.1812  1.4042
56791SOL     OW87982   2.241   1.854   0.215  0.2942  0.3754 -0.0679
56791SOL    HW187983   2.311   1.813   0.266 -1.2029 -0.2171  1.6054
56791SOL    HW287984   2.237   1.802   0.134  0.7251 -0.6135  0.5236
56792SOL     OW87985   4.879   5.120   6.471  0.2384 -0.2131  0.0651
56792SOL    HW187986   4.822   5.130   6.548  2.9345 -0.2022  2.1886
56792SOL    HW287987   4.883   5.208   6.434  1.6886  0.6554  2.0890
56793SOL     OW87988   8.978  11.567  12.747  0.3317 -0.0958  0.9024
56793SOL    HW187989   9.036  11.495  12.722 -2.6750 -2.5947  0.4954
56793SOL    HW287990   8.930  11.534  12.824 -2.9911  0.2484 -0.8292
56794SOL     OW87991   9.635   1.196  13.002  0.1728  0.0924  0.0449
56794SOL    HW187992   9.655   1.236  12.917 -0.5773  1.6258  0.5643
56794SOL    HW287993   9.569   1.129  12.981  0.0014  0.4463 -0.5983
56795SOL     OW87994   8.901   5.808   3.282 -0.1687  0.0874 -0.2210
56795SOL    HW187995   8.859   5.889   3.254  1.3456  1.2248  0.5971
56795SOL    HW287996   8.842   5.771   3.347 -0.8180  0.5925 -0.5153
56796SOL     OW87997   8.162  12.270   4.645 -0.1484  0.3604  0.1916
56796SOL    HW187998   8.132  12.184   4.617  0.3612  0.3488 -0.3186
56796SOL    HW287999   8.081  12.318   4.664 -0.4660  0.0920 -0.4731
56797SOL     OW88000   1.008   9.379   2.733 -0.7294  0.6378 -0.4419
56797SOL    HW188001   1.063   9.419   2.800  0.1913 -1.6718  0.2750
56797SOL    HW288002   1.066   9.373   2.656  0.3201 -2.1442  0.4246
56798SOL     OW88003  12.781  12.246   9.561 -0.1809 -0.2876  0.3152
56798SOL    HW188004  12.799  12.326   9.610 -0.0871  0.3140 -0.6869
56798SOL    HW288005  12.864  12.200   9.557  0.4990  0.9947 -1.6278
56799SOL     OW88006   8.430  13.027   6.055  0.0701  0.1037  0.1191
56799SOL    HW188007   8.344  13.006   6.018  0.0727  2.6035 -1.4725
56799SOL    HW288008   8.411  13.093   6.122  0.5473 -1.2106  1.6212
56800SOL     OW88009  11.777   4.557   8.035  0.0328 -0.1791  0.2614
56800SOL    HW188010  11.802   4.597   8.119  0.9497  0.5745 -0.3583
56800SOL    HW288011  11.838   4.485   8.024 -1.4670 -1.6824  1.2622
56801SOL     OW88012   3.354   1.808   9.821  0.5203  0.1259  0.3102
56801SOL    HW188013   3.447   1.825   9.837  1.1294 -2.2403 -0.3738
56801SOL    HW288014   3.308   1.862   9.885  2.4023  0.3574  1.5350
56802SOL     OW88015   3.606   2.075  10.479  0.3044  0.0975 -0.3561
56802SOL    HW188016   3.610   1.984  10.446  0.6079 -0.3845  0.9655
56802SOL    HW288017   3.594   2.128  10.400  2.3075 -0.9067 -1.4040
56803SOL     OW88018  13.210   1.142   0.532  0.0844  0.6711  0.2290
56803SOL    HW188019  13.137   1.203   0.519  0.3437  0.4828 -2.9154
56803SOL    HW288020  13.210   1.088   0.453  1.5129 -1.6664  1.7288
56804SOL     OW88021  10.658  10.351   8.983 -0.5355  0.6765  0.1211
56804SOL    HW188022  10.648  10.266   9.026 -2.0521  1.2062  0.8756
56804SOL    HW288023  10.606  10.344   8.903  0.7866  0.3231 -0.7430
56805SOL     OW88024   0.773   4.912   5.357  0.2718 -0.0223  0.1069
56805SOL    HW188025   0.823   4.944   5.282  2.7996 -1.8049  0.9132
56805SOL    HW288026   0.830   4.925   5.432 -1.9735  1.1794  1.7258
56806SOL     OW88027  13.442  10.673   9.444 -0.0592 -0.2448 -0.0953
56806SOL    HW188028  13.513  10.621   9.405 -0.4924  0.3104 -1.7381
56806SOL    HW288029  13.368  10.661   9.384 -1.4299 -0.9247  1.6462
56807SOL     OW88030   4.984   3.701   0.912 -0.4559  0.9096  0.2789
56807SOL    HW188031   5.030   3.624   0.879  1.0522  0.1535  3.7423
56807SOL    HW288032   4.998   3.768   0.844  1.7555 -0.6728 -0.9481
56808SOL     OW88033   1.800   9.331   6.716  0.0404 -0.3149 -0.1292
56808SOL    HW188034   1.896   9.331   6.715  0.0419 -0.8228 -0.5447
56808SOL    HW288035   1.776   9.296   6.630 -0.5101 -1.1571  0.3564
56809SOL     OW88036   9.080  11.464   7.294 -1.0412 -0.2026 -0.0434
56809SOL    HW188037   9.041  11.502   7.373  1.4585  1.4954  0.4813
56809SOL    HW288038   9.024  11.495   7.223 -1.4720  1.0211  0.7895
56810SOL     OW88039   7.476   1.803   2.078  0.0535  0.8865  0.0655
56810SOL    HW188040   7.462   1.888   2.118  2.0514  1.5739 -0.6005
56810SOL    HW288041   7.569   1.800   2.057 -0.0142 -1.3424 -0.2224
56811SOL     OW88042   0.573  10.418   7.228 -0.4665 -0.0854  0.0057
56811SOL    HW188043   0.508  10.466   7.177 -0.2224 -0.4541 -0.6735
56811SOL    HW288044   0.533  10.408   7.315 -1.4723 -0.6136 -0.5001
56812SOL     OW88045  11.195   1.990   9.299 -0.2768 -0.1038  0.2199
56812SOL    HW188046  11.249   1.933   9.353 -2.4470  0.1396  2.8478
56812SOL    HW288047  11.190   2.072   9.347 -0.0001  1.1912 -1.8128
56813SOL     OW88048   1.556   4.190   0.404 -0.1896  0.0967 -1.1564
56813SOL    HW188049   1.604   4.202   0.486  1.0078 -0.8717 -1.6820
56813SOL    HW288050   1.475   4.146   0.430 -0.2442  0.6381 -0.3913
56814SOL     OW88051   4.104   2.687  12.035 -0.4743  0.3532 -0.0276
56814SOL    HW188052   4.099   2.783  12.031  0.9528  0.4030 -1.6671
56814SOL    HW288053   4.172   2.664  11.972 -0.1147 -1.6930  1.0371
56815SOL     OW88054   8.701   3.506   1.588  0.0283  0.1897 -0.3617
56815SOL    HW188055   8.695   3.596   1.620  0.5019 -0.0912  0.5614
56815SOL    HW288056   8.693   3.513   1.493  0.0330  1.2048 -0.2926
56816SOL     OW88057   9.797   5.617   4.212  0.3189  0.1144 -0.7387
56816SOL    HW188058   9.861   5.666   4.265  1.3603 -2.6743  0.7662
56816SOL    HW288059   9.720   5.610   4.268  0.3447 -0.3335 -0.7572
56817SOL     OW88060   8.710  11.001  11.405  0.5736 -0.0101  0.1433
56817SOL    HW188061   8.798  10.980  11.436  0.2953 -1.2143  0.1750
56817SOL    HW288062   8.654  10.936  11.447 -0.3995  0.9590  0.4157
56818SOL     OW88063  12.298   6.408   8.437  0.2702 -0.0259 -0.0157
56818SOL    HW188064  12.361   6.451   8.495 -0.5026 -0.2409  1.0048
56818SOL    HW288065  12.352   6.357   8.377  1.1410  1.2611 -0.3536
56819SOL     OW88066   4.094  13.040   0.184 -0.0051 -0.4566  0.7905
56819SOL    HW188067   4.028  13.005   0.123 -0.6622  2.5545 -0.3986
56819SOL    HW288068   4.176  12.999   0.155 -0.7775 -1.4572 -0.0993
56820SOL     OW88069  13.145   3.126   6.080 -0.3417  0.5720  0.2294
56820SOL    HW188070  13.150   3.103   6.173  0.9906 -1.4127 -0.2660
56820SOL    HW288071  13.131   3.043   6.036  0.3589  1.2983 -1.4459
56821SOL     OW88072   6.295   6.498   0.412 -0.2676  0.3306  0.3285
56821SOL    HW188073   6.291   6.465   0.502 -0.2707 -1.5374 -0.3162
56821SOL    HW288074   6.234   6.442   0.363  0.8495  0.3188 -1.1267
56822SOL     OW88075   5.807  13.939   1.583  0.4771  0.2537 -0.6751
56822SOL    HW188076   5.757  13.856   1.583  1.5618 -0.4469 -1.9644
56822SOL    HW288077   5.837  13.949   1.673 -1.6675  0.5187  0.0679
56823SOL     OW88078   2.475   6.703  10.011 -0.3770 -0.0398 -0.4225
56823SOL    HW188079   2.472   6.788  10.055  2.3402  0.8646 -1.7652
56823SOL    HW288080   2.384   6.684   9.989 -1.4847  0.8448  2.8429
56824SOL     OW88081   0.440   0.830  10.003  0.7213  0.1406  0.4358
56824SOL    HW188082   0.427   0.831  10.098  1.3765  2.0896  0.5473
56824SOL    HW288083   0.365   0.878   9.968  1.7503  1.6658  0.2115
56825SOL     OW88084   1.450  13.474   1.183  0.0700  0.2571  0.8881
56825SOL    HW188085   1.387  13.436   1.245 -1.5134  1.6281  0.2079
56825SOL    HW288086   1.396  13.502   1.109  1.6233  0.7637 -0.0919
56826SOL     OW88087  13.662  13.789  13.449 -0.1857  0.3244  0.0547
56826SOL    HW188088  13.671  13.695  13.465  0.6947  0.3470 -0.2446
56826SOL    HW288089  13.751  13.823  13.457 -0.5133  1.1558  0.2751
56827SOL     OW88090   5.860   2.989   9.123 -0.5248  0.1919  0.3392
56827SOL    HW188091   5.784   3.039   9.095 -0.2479  0.1969 -0.4313
56827SOL    HW288092   5.825   2.922   9.181 -0.9336  1.1178  1.1852
56828SOL     OW88093   4.531  10.044   7.772 -0.1064  0.0784 -0.3381
56828SOL    HW188094   4.541  10.131   7.811  0.9996 -0.2910  0.2411
56828SOL    HW288095   4.538  10.059   7.677  0.9682  0.5284 -0.2049
56829SOL     OW88096  10.071   9.696   6.097 -0.1174  0.0465 -0.4621
56829SOL    HW188097  10.080   9.726   6.007  0.3685 -0.8347 -0.7127
56829SOL    HW288098  10.149   9.729   6.142 -1.6914  3.0167  0.4099
56830SOL     OW88099   2.184   8.373   9.929  0.1900 -0.3790 -0.3188
56830SOL    HW188100   2.131   8.451   9.915 -0.1544 -0.5269  0.1281
56830SOL    HW288101   2.168   8.348  10.020 -0.5307 -1.5596 -0.7390
56831SOL     OW88102   3.576   3.934   1.542  0.9185  0.0438  0.5775
56831SOL    HW188103   3.660   3.977   1.557 -0.4960  3.5813 -0.4714
56831SOL    HW288104   3.582   3.899   1.453  1.3034  0.2791  0.5104
56832SOL     OW88105  11.198   1.464   2.478 -0.0601 -0.0918 -0.6442
56832SOL    HW188106  11.203   1.475   2.573  2.4040 -0.7411 -0.6296
56832SOL    HW288107  11.160   1.376   2.467 -0.3363 -0.0235 -0.2560
56833SOL     OW88108   8.111   2.839  11.103 -0.5837 -0.0971 -0.1400
56833SOL    HW188109   8.147   2.760  11.142  0.1267  0.3025  0.0189
56833SOL    HW288110   8.048   2.871  11.167  0.4129  0.4327  0.6031
56834SOL     OW88111   1.052   6.227   7.744  0.3459 -0.8215  0.1834
56834SOL    HW188112   1.030   6.318   7.723  0.0314 -0.8370  0.4388
56834SOL    HW288113   1.129   6.232   7.799  0.5897 -0.7320 -0.1606
56835SOL     OW88114   5.310   6.426   2.178  0.0240  0.4359  0.0296
56835SOL    HW188115   5.234   6.460   2.130 -0.4090 -1.5350 -0.7826
56835SOL    HW288116   5.304   6.331   2.169  2.4222  0.2002  0.2378
56836SOL     OW88117  13.818   5.333  10.582 -0.2410  0.0409  0.2169
56836SOL    HW188118  13.779   5.246  10.576 -0.6664  0.0869  1.7520
56836SOL    HW288119  13.757   5.382  10.639  0.4780  1.0437  0.1410
56837SOL     OW88120   1.952  10.375   0.243 -0.3397 -0.4512  0.3284
56837SOL    HW188121   1.989  10.439   0.304  0.1231 -2.9142  2.8486
56837SOL    HW288122   1.858  10.394   0.243 -0.2649 -0.0199  1.3926
56838SOL     OW88123   1.676   4.674   6.604 -0.1206  0.4878 -0.7345
56838SOL    HW188124   1.656   4.764   6.628 -1.9913 -0.0383 -0.1034
56838SOL    HW288125   1.637   4.663   6.517 -0.6409  0.0751 -0.4567
56839SOL     OW88126   8.352   0.629   9.557  0.0796 -0.5100 -0.2185
56839SOL    HW188127   8.354   0.723   9.574 -1.7721 -0.2380 -1.1892
56839SOL    HW288128   8.391   0.619   9.470  2.0580 -0.9138  0.6690
56840SOL     OW88129   3.991  12.871   3.487  0.1624  0.7348 -0.5887
56840SOL    HW188130   4.006  12.839   3.576 -0.0398 -3.0413 -1.7252
56840SOL    HW288131   4.079  12.893   3.454  0.6551 -0.7837 -0.3757
56841SOL     OW88132  11.173   0.775   8.872 -0.0539  0.1254 -0.3821
56841SOL    HW188133  11.206   0.703   8.925  1.2871  1.5196  0.7946
56841SOL    HW288134  11.126   0.733   8.800 -0.2183 -1.8681  0.8222
56842SOL     OW88135   9.248   4.507   5.939  0.0022  0.3542  0.4566
56842SOL    HW188136   9.162   4.467   5.930  0.4942 -0.5853 -0.1726
56842SOL    HW288137   9.233   4.600   5.920 -0.6939  0.0213 -0.7026
56843SOL     OW88138   0.405  13.806   1.548 -0.4852  0.1369 -0.0583
56843SOL    HW188139   0.458  13.850   1.481 -0.0624 -1.4303 -0.8163
56843SOL    HW288140   0.432  13.847   1.631  1.1238  0.1434 -0.5498
56844SOL     OW88141   4.878   0.873   6.520  0.1674  0.1328 -0.8246
56844SOL    HW188142   4.964   0.907   6.545 -0.5061 -0.2577  2.4179
56844SOL    HW288143   4.896   0.805   6.455  2.3757 -0.4168  0.2841
56845SOL     OW88144  13.909   7.251   7.689 -0.6957  0.0588  0.1277
56845SOL    HW188145  13.934   7.180   7.748 -1.4839 -1.8659 -1.7064
56845SOL    HW288146  13.814   7.245   7.683 -0.8362  1.6653  0.3580
56846SOL     OW88147   1.719   9.007   5.449  0.0671  0.5462 -0.6122
56846SOL    HW188148   1.654   9.068   5.482 -1.0135  1.1099 -3.5071
56846SOL    HW288149   1.683   8.920   5.467 -0.2565  0.8166  0.0572
56847SOL     OW88150  13.485  11.068   8.363  0.4727 -0.5571 -0.6354
56847SOL    HW188151  13.398  11.055   8.400  0.6551  1.1264  0.4539
56847SOL    HW288152  13.470  11.091   8.272 -0.1777 -0.7982 -0.5900
56848SOL     OW88153  13.515   2.411   3.429 -0.1878 -0.2851  0.4371
56848SOL    HW188154  13.558   2.357   3.495  0.2444  0.0306  0.4209
56848SOL    HW288155  13.511   2.498   3.469 -1.6534 -0.4913  0.8138
56849SOL     OW88156  13.435   5.865  13.033 -0.1843 -0.1387  0.2615
56849SOL    HW188157  13.458   5.896  13.121 -0.1595 -0.7625  0.4796
56849SOL    HW288158  13.513   5.885  12.980  0.1472 -0.5561  0.5818
56850SOL     OW88159   0.922  11.288   7.647 -0.3546 -0.1217  0.4502
56850SOL    HW188160   0.939  11.196   7.627  0.5687  0.2231 -0.4263
56850SOL    HW288161   1.004  11.333   7.627 -1.1071  1.0462 -0.1365
56851SOL     OW88162  11.482   4.174   0.691 -0.8151  0.3453 -0.3854
56851SOL    HW188163  11.430   4.239   0.644  2.4864  2.7231 -1.1188
56851SOL    HW288164  11.550   4.148   0.629  1.4549  0.7629  1.7441
56852SOL     OW88165   9.358   5.320  13.558 -0.3431 -1.0195  0.1544
56852SOL    HW188166   9.375   5.396  13.614  0.0192 -2.7850  2.6359
56852SOL    HW288167   9.395   5.343  13.473  0.6784  1.1406  1.1202
56853SOL     OW88168   2.157   6.905  11.939 -0.5723  0.9750  0.2202
56853SOL    HW188169   2.104   6.831  11.909  1.1917 -0.2916  0.0243
56853SOL    HW288170   2.139   6.912  12.033 -2.6880  2.0136 -0.2076
56854SOL     OW88171   0.748   9.716   2.994  0.4755 -0.1063  0.1087
56854SOL    HW188172   0.726   9.639   2.941 -1.4492  0.6051 -0.1751
56854SOL    HW288173   0.804   9.681   3.063  0.6208 -1.5555 -0.6965
56855SOL     OW88174   3.719   5.861   5.748  0.2149 -0.0130 -0.6431
56855SOL    HW188175   3.798   5.908   5.774  0.1113 -0.5754  0.7759
56855SOL    HW288176   3.708   5.882   5.655  0.5151  2.2394 -0.2361
56856SOL     OW88177   1.907   7.027   5.772 -0.6213  0.5700 -0.1868
56856SOL    HW188178   1.913   7.118   5.800 -2.2118  0.7281 -0.2832
56856SOL    HW288179   1.839   7.027   5.705 -3.9434 -1.3314  2.8420
56857SOL     OW88180   7.538   7.041   9.774 -0.0432  0.6997  0.0845
56857SOL    HW188181   7.619   6.991   9.760  0.9363  1.4744  2.4766
56857SOL    HW288182   7.489   6.990   9.838 -1.0179  0.7365 -0.6186
56858SOL     OW88183  13.978  11.911   5.338 -0.2543  0.0617  0.3085
56858SOL    HW188184  14.017  11.996   5.315 -0.7483  0.1751 -0.1664
56858SOL    HW288185  14.045  11.866   5.389 -0.3862  1.1697  1.5014
56859SOL     OW88186   0.686  10.822   0.503 -0.0871 -0.1681  0.3962
56859SOL    HW188187   0.692  10.727   0.496  0.0086 -0.1099 -0.4618
56859SOL    HW288188   0.766  10.849   0.548  1.9919 -0.1728 -2.9538
56860SOL     OW88189  11.017  11.249   5.942  1.1336 -0.1169 -0.0860
56860SOL    HW188190  11.095  11.205   5.976  0.1009 -2.2869 -0.3393
56860SOL    HW288191  11.003  11.210   5.856 -1.2246 -1.1786  0.7019
56861SOL     OW88192   6.943  13.828   9.778 -0.3620  0.0801 -0.0757
56861SOL    HW188193   6.998  13.864   9.708 -2.5770  0.7092 -1.6238
56861SOL    HW288194   6.925  13.903   9.834  0.8432 -0.2724  0.8179
56862SOL     OW88195  11.812  10.570   0.204 -0.1047  0.1493  0.0927
56862SOL    HW188196  11.826  10.537   0.293  0.9717  2.3074  0.7907
56862SOL    HW288197  11.717  10.573   0.194 -0.2455  0.3452  1.3484
56863SOL     OW88198   0.303  12.935   5.307  0.3340 -0.2442  0.1305
56863SOL    HW188199   0.306  12.994   5.233  0.8157  0.6976  0.8792
56863SOL    HW288200   0.230  12.876   5.288 -0.3231  0.7478 -0.5058
56864SOL     OW88201  10.170  12.586   6.477 -0.0119 -0.1347 -0.0300
56864SOL    HW188202  10.119  12.633   6.411 -0.5187 -0.0867  0.3908
56864SOL    HW288203  10.261  12.608   6.456 -0.0263 -1.4284 -1.7360
56865SOL     OW88204   9.546  11.491   2.987 -0.2062 -0.0522  0.0246
56865SOL    HW188205   9.497  11.443   2.919 -0.2082 -0.4859  0.3281
56865SOL    HW288206   9.590  11.423   3.037  2.4312  0.4096 -1.4965
56866SOL     OW88207   6.404  12.911   8.167 -0.3581 -0.4442 -0.5370
56866SOL    HW188208   6.328  12.920   8.110 -1.2089 -2.5886  0.1474
56866SOL    HW288209   6.368  12.895   8.254  0.9229  1.6780  0.4672
56867SOL     OW88210   6.774   0.637   5.060 -0.0252  0.1831 -0.1660
56867SOL    HW188211   6.795   0.599   5.145  2.0405 -0.1916 -0.7877
56867SOL    HW288212   6.813   0.724   5.061  0.3043  0.0493 -0.8483
56868SOL     OW88213   5.577  11.830  10.000  0.4383 -0.1224 -0.2364
56868SOL    HW188214   5.594  11.794  10.087  2.0070  0.5604 -0.2282
56868SOL    HW288215   5.644  11.791   9.944  0.9773  1.2738 -0.6182
56869SOL     OW88216   4.293   6.891   0.851  0.3475 -0.0289  0.3605
56869SOL    HW188217   4.250   6.809   0.828 -0.3695  0.2404  0.7145
56869SOL    HW288218   4.317   6.881   0.943  2.7556 -0.9026 -0.2798
56870SOL     OW88219   0.356   4.111  10.308 -0.8965  0.0093 -0.1288
56870SOL    HW188220   0.394   4.144  10.226 -1.0308  0.9363  0.1707
56870SOL    HW288221   0.348   4.017  10.295 -0.9287  0.1519 -1.1874
56871SOL     OW88222   4.099   6.242   5.949 -0.8125 -0.2457  0.0543
56871SOL    HW188223   4.088   6.316   5.889  0.3845  1.2602  1.5949
56871SOL    HW288224   4.165   6.187   5.907  0.9869  1.4517  0.5068
56872SOL     OW88225   7.235  10.249   9.205  0.0934  0.0309  0.1810
56872SOL    HW188226   7.267  10.336   9.180 -0.8782 -0.0796 -1.5876
56872SOL    HW288227   7.188  10.217   9.128  0.4813 -2.1109  0.7600
56873SOL     OW88228   4.402   2.040  11.471  0.7199  0.1660 -0.0715
56873SOL    HW188229   4.430   1.984  11.543  2.8884 -0.3196 -1.2163
56873SOL    HW288230   4.348   1.983  11.415 -0.0295  0.2326  0.5771
56874SOL     OW88231   8.709   6.855   2.581  0.0219  0.2241 -0.0184
56874SOL    HW188232   8.701   6.849   2.676 -3.0048 -0.3977 -0.2173
56874SOL    HW288233   8.743   6.770   2.554 -1.4339 -0.5071  0.3734
56875SOL     OW88234   8.400   1.355   8.887 -0.4069 -0.2662  0.3509
56875SOL    HW188235   8.406   1.261   8.869  0.1428 -0.6147  2.1507
56875SOL    HW288236   8.399   1.396   8.801  0.6910 -1.8513 -0.4668
56876SOL     OW88237   5.014   1.667  12.923 -0.5115 -0.5914  0.5782
56876SOL    HW188238   4.986   1.723  12.996 -1.3723 -0.3882  0.1044
56876SOL    HW288239   4.934   1.623  12.894 -0.3643  0.0152 -0.8197
56877SOL     OW88240   3.557   7.693   2.896  0.3944  0.1225  0.0947
56877SOL    HW188241   3.651   7.687   2.880  0.5754 -1.1862  1.3970
56877SOL    HW288242   3.544   7.781   2.933  0.8167  0.9212 -1.5439
56878SOL     OW88243  13.458   9.358  10.462 -0.3584  0.4459 -0.1230
56878SOL    HW188244  13.433   9.329  10.374 -0.1338 -0.7775  0.2018
56878SOL    HW288245  13.380   9.403  10.495 -1.5286 -1.6587  0.1480
56879SOL     OW88246  11.810   9.627   5.416 -0.5094  0.0926  0.2027
56879SOL    HW188247  11.793   9.711   5.374  0.1035  1.1587  1.9506
56879SOL    HW288248  11.905   9.615   5.408 -0.3341  0.4554  1.4181
56880SOL     OW88249   6.532   6.615  10.807  0.0614 -0.2754  0.3938
56880SOL    HW188250   6.532   6.620  10.902 -1.5579  1.5652  0.3397
56880SOL    HW288251   6.471   6.544  10.787  1.6224 -1.7700  0.7015
56881SOL     OW88252  10.849   4.513   0.734  0.0762  0.4037  0.3008
56881SOL    HW188253  10.793   4.440   0.763 -0.8885  1.1873  0.4485
56881SOL    HW288254  10.794   4.561   0.672  1.3007  0.0674 -1.0853
56882SOL     OW88255   5.797  10.076  12.463 -0.8576  1.3432 -0.3056
56882SOL    HW188256   5.754  10.159  12.441 -1.8497  0.5236 -1.6118
56882SOL    HW288257   5.783  10.020  12.387 -0.0052  0.0367  0.4453
56883SOL     OW88258   0.684  13.510  11.105 -0.0333  0.2532 -0.6504
56883SOL    HW188259   0.639  13.426  11.113  0.2714  0.1421  0.0100
56883SOL    HW288260   0.649  13.562  11.177  1.2570 -0.0151  0.2070
56884SOL     OW88261   0.097   6.147   7.594  0.1141 -0.2919 -0.1081
56884SOL    HW188262   0.161   6.129   7.525  0.6350 -0.3384  0.3809
56884SOL    HW288263   0.053   6.063   7.609  0.7433 -0.5450  0.3574
56885SOL     OW88264   9.651  11.279   3.115  0.0755 -0.1136 -0.5006
56885SOL    HW188265   9.609  11.201   3.079  2.5739 -1.5876 -0.4805
56885SOL    HW288266   9.652  11.263   3.210  1.8449 -0.8099 -0.5982
56886SOL     OW88267  10.915  12.233   1.337 -0.7245 -0.3066  0.3590
56886SOL    HW188268  10.952  12.153   1.300 -1.6085 -0.3153 -0.5541
56886SOL    HW288269  10.975  12.257   1.408  0.5283 -0.7866 -0.5094
56887SOL     OW88270   7.043   7.815   2.923  0.2696 -0.1104  0.5001
56887SOL    HW188271   7.079   7.838   2.838 -1.2189 -1.1053 -0.4578
56887SOL    HW288272   6.957   7.856   2.925  0.5132  0.3740  1.7796
56888SOL     OW88273   7.657  13.850  10.258  0.4035 -0.1879 -1.0337
56888SOL    HW188274   7.725  13.807  10.309  0.1791 -2.1478 -2.2770
56888SOL    HW288275   7.610  13.778  10.216 -2.2499  1.0894 -0.4857
56889SOL     OW88276   8.817   2.246   2.067 -0.0605 -0.5492  0.4176
56889SOL    HW188277   8.853   2.190   1.998  0.0426  2.0802 -1.8303
56889SOL    HW288278   8.726   2.260   2.042 -0.0967  0.2252  0.9464
56890SOL     OW88279   4.177   2.379   0.843 -0.2403  0.0231  0.2632
56890SOL    HW188280   4.197   2.473   0.845 -0.6177  0.1152 -0.0623
56890SOL    HW288281   4.156   2.361   0.751 -0.2232 -0.3695  0.3352
56891SOL     OW88282  10.571   4.454   4.652  0.5843 -0.1012 -0.1403
56891SOL    HW188283  10.494   4.408   4.617  1.1069 -0.7634 -0.4260
56891SOL    HW288284  10.639   4.388   4.655  0.9634  0.3141  0.7577
56892SOL     OW88285  13.668  13.735  11.784 -0.2516  0.0672  0.0894
56892SOL    HW188286  13.715  13.687  11.852  1.7456  2.1065  0.2704
56892SOL    HW288287  13.603  13.786  11.833  0.3458  0.5852  0.3594
56893SOL     OW88288   6.647   5.590   3.879 -0.8893 -0.7962 -0.4020
56893SOL    HW188289   6.683   5.620   3.963 -0.8713  0.8038 -0.9617
56893SOL    HW288290   6.574   5.533   3.903 -1.2454  0.1006  0.6971
56894SOL     OW88291   7.422   1.056   2.412  0.4965 -0.0615  0.5193
56894SOL    HW188292   7.419   1.152   2.418  0.3943 -0.0308 -0.0044
56894SOL    HW288293   7.365   1.034   2.339 -3.7404 -0.8734  3.6851
56895SOL     OW88294  10.807   1.362  12.448 -0.3281  0.2256 -0.3811
56895SOL    HW188295  10.743   1.348  12.379 -0.8202  0.2971  0.0592
56895SOL    HW288296  10.883   1.399  12.403  0.2890 -1.9432 -1.2816
56896SOL     OW88297   0.742  11.695  11.919  0.3880 -0.4893  0.1405
56896SOL    HW188298   0.767  11.609  11.887  1.0745 -0.7173  1.2773
56896SOL    HW288299   0.655  11.682  11.957  1.8887 -1.5395  3.5493
56897SOL     OW88300  13.886   8.005   1.902  0.2411 -0.0989  0.3145
56897SOL    HW188301  13.935   8.071   1.854 -0.8444  0.3539 -0.1987
56897SOL    HW288302  13.843   8.053   1.973 -0.7327 -0.1891 -0.1945
56898SOL     OW88303  10.901   4.585  13.064 -0.2911  0.2500 -0.0505
56898SOL    HW188304  10.862   4.497  13.068  0.0888  0.0737 -0.1500
56898SOL    HW288305  10.859   4.633  13.135  1.2302 -0.7267  1.6208
56899SOL     OW88306   4.210   3.629   6.013 -0.5381  0.0764  0.4577
56899SOL    HW188307   4.302   3.651   6.002 -0.7819  0.7643 -0.3047
56899SOL    HW288308   4.197   3.627   6.107  0.8012 -2.4117  0.6806
56900SOL     OW88309  13.126  13.418   7.673  0.0275 -0.0588 -0.1565
56900SOL    HW188310  13.036  13.450   7.665 -0.7857 -2.5459 -2.4919
56900SOL    HW288311  13.179  13.483   7.627 -0.9036  0.2642 -0.8015
56901SOL     OW88312  11.267  11.359   7.431  0.8903  0.4489  0.0681
56901SOL    HW188313  11.176  11.334   7.448  0.5385  1.9347  0.5557
56901SOL    HW288314  11.318  11.280   7.448 -0.4033 -0.7511 -1.3224
56902SOL     OW88315   1.861   6.001   9.919 -0.3654 -0.3814 -0.4897
56902SOL    HW188316   1.917   6.023   9.993  0.8373 -0.3341 -1.3807
56902SOL    HW288317   1.788   6.063   9.924 -1.5776 -1.8571  1.9712
56903SOL     OW88318   4.140   4.619  12.058 -0.2724  0.0589 -0.3092
56903SOL    HW188319   4.112   4.707  12.084 -3.4847 -0.8593 -0.2356
56903SOL    HW288320   4.124   4.565  12.136  0.8255 -0.7857 -0.6409
56904SOL     OW88321  10.118   4.220   0.751 -0.0567 -0.4289  0.0012
56904SOL    HW188322  10.059   4.263   0.812  1.2540 -1.0510  1.8063
56904SOL    HW288323  10.185   4.286   0.732  1.0630 -1.0718  1.4987
56905SOL     OW88324   8.783  13.372   6.889  0.0847 -0.1225 -0.3876
56905SOL    HW188325   8.872  13.401   6.869 -0.6976  1.5830 -1.6966
56905SOL    HW288326   8.782  13.362   6.984  1.1961  1.7358 -0.1144
56906SOL     OW88327  13.781   5.913   3.745  0.2651  0.2668 -0.5550
56906SOL    HW188328  13.830   5.979   3.695  1.7796 -1.6778 -1.7923
56906SOL    HW288329  13.847   5.870   3.799 -0.5415 -0.7406 -0.3438
56907SOL     OW88330  12.835  10.240   6.913  0.0206  0.7565  0.0096
56907SOL    HW188331  12.884  10.217   6.992 -0.5108  2.5168  0.9213
56907SOL    HW288332  12.777  10.165   6.898  1.7871 -0.6458 -0.1461
56908SOL     OW88333   6.593   3.637  11.580  0.8907 -0.1723  0.3395
56908SOL    HW188334   6.638   3.626  11.663  1.3335  2.5462  0.5749
56908SOL    HW288335   6.661   3.671  11.521 -0.2641  1.9361  0.1034
56909SOL     OW88336   3.318   5.915  11.083 -0.7415  0.7820  0.2558
56909SOL    HW188337   3.278   5.940  11.166  1.8525  0.5663  1.6669
56909SOL    HW288338   3.336   5.821  11.092  0.1669  0.8938 -0.2589
56910SOL     OW88339   9.730   6.719   3.158  0.3308 -0.0937 -0.1894
56910SOL    HW188340   9.763   6.808   3.146 -1.2682  0.4954 -0.4753
56910SOL    HW288341   9.762   6.671   3.082  0.9530  0.3127 -0.1903
56911SOL     OW88342   7.120   9.649   9.469  0.2373 -0.5027 -0.0817
56911SOL    HW188343   7.089   9.740   9.468 -2.1214 -1.2400 -1.4087
56911SOL    HW288344   7.160   9.638   9.555 -2.1924  0.9317  1.3332
56912SOL     OW88345  10.712   2.864   5.346  0.2435 -0.4025 -0.2132
56912SOL    HW188346  10.688   2.772   5.336 -1.3628 -0.3757  2.3725
56912SOL    HW288347  10.640   2.902   5.397  2.4617  1.4369  1.8026
56913SOL     OW88348   3.234  11.216   1.185 -0.2350 -0.2875 -0.2525
56913SOL    HW188349   3.189  11.146   1.138 -1.1633 -0.0837  0.3078
56913SOL    HW288350   3.164  11.276   1.211  0.5357  0.8748 -0.7545
56914SOL     OW88351   1.431   1.328   8.245  0.5054  0.1618 -0.3716
56914SOL    HW188352   1.416   1.233   8.237  0.4093 -0.0173  1.4430
56914SOL    HW288353   1.524   1.339   8.226  0.7311 -0.4463  0.3278
56915SOL     OW88354   5.354  11.111   0.750 -0.1574 -0.2246 -0.3502
56915SOL    HW188355   5.278  11.169   0.745 -0.2643 -0.2764  0.4761
56915SOL    HW288356   5.317  11.023   0.742  0.0552 -0.1768 -2.0741
56916SOL     OW88357   5.377   4.204   8.855 -0.1097  0.5006  0.2374
56916SOL    HW188358   5.371   4.174   8.764  0.7100 -2.3632  1.0062
56916SOL    HW288359   5.468   4.186   8.880 -0.6380 -0.0043  1.9526
56917SOL     OW88360   7.103   9.835   2.985 -0.2980  0.4087 -0.6495
56917SOL    HW188361   7.033   9.900   2.987 -1.4085 -0.7643  0.0374
56917SOL    HW288362   7.183   9.887   2.982 -1.1796  1.8032 -3.0331
56918SOL     OW88363   1.576  12.805   0.463 -0.4688 -0.1844 -0.4665
56918SOL    HW188364   1.557  12.881   0.408  1.7739  1.5434  0.9604
56918SOL    HW288365   1.502  12.800   0.523 -0.4870  1.1449 -0.3407
56919SOL     OW88366  10.272   2.833   8.844  0.0881 -0.1688  0.1245
56919SOL    HW188367  10.225   2.750   8.836  1.1887 -0.8783  0.6059
56919SOL    HW288368  10.209   2.893   8.882 -0.9191 -0.6137 -0.8150
56920SOL     OW88369   4.928   6.442  11.134 -0.4290  0.0198  0.1024
56920SOL    HW188370   5.006   6.492  11.111 -0.7064  0.6228  0.4216
56920SOL    HW288371   4.944   6.354  11.102  0.6282 -0.0061  0.6714
56921SOL     OW88372  11.917   8.214   7.355  0.0416  0.1261 -0.3959
56921SOL    HW188373  11.916   8.119   7.342  1.0962  0.1282 -0.5612
56921SOL    HW288374  11.994   8.231   7.409 -0.8863  0.7673  0.7861
56922SOL     OW88375  11.691   4.672   6.676 -0.1400  0.3032 -0.1777
56922SOL    HW188376  11.714   4.604   6.613  0.8322  1.3865 -1.0450
56922SOL    HW288377  11.611   4.711   6.641 -0.2636  0.1183 -0.0990
56923SOL     OW88378  12.505  10.436   1.161  0.0003 -0.0008 -0.4434
56923SOL    HW188379  12.455  10.477   1.232  1.6055  0.4284  0.4955
56923SOL    HW288380  12.484  10.343   1.167 -1.5676  0.2917 -0.8492
56924SOL     OW88381   8.739   0.175  11.274 -0.0242  0.0685  0.5992
56924SOL    HW188382   8.763   0.238  11.206 -2.5884 -0.4896 -0.9617
56924SOL    HW288383   8.821   0.157  11.320  2.0212  0.1013 -2.6757
56925SOL     OW88384  11.596  13.651   3.487  0.1196 -0.5239  0.4446
56925SOL    HW188385  11.686  13.684   3.480  0.3540 -1.1445  0.5084
56925SOL    HW288386  11.543  13.730   3.502  0.5146 -0.0107 -0.7140
56926SOL     OW88387   9.778  11.244   8.792 -0.3293 -0.0758 -0.1291
56926SOL    HW188388   9.807  11.292   8.869 -1.2752  1.1529 -0.5131
56926SOL    HW288389   9.851  11.186   8.771  0.1536 -0.0326  1.3532
56927SOL     OW88390   9.607   2.344   8.452  0.1074  0.4603 -0.2931
56927SOL    HW188391   9.551   2.281   8.497 -0.7467  0.4693 -1.3142
56927SOL    HW288392   9.608   2.421   8.509 -1.4071  0.6847 -0.5267
56928SOL     OW88393   8.980   9.436   1.875  0.2233  0.1036  0.4796
56928SOL    HW188394   8.996   9.385   1.955 -0.7614 -0.3933  0.3760
56928SOL    HW288395   9.062   9.429   1.826  0.8331  0.3905  1.4185
56929SOL     OW88396   1.913   6.034  11.323 -0.0873  0.2128 -0.1869
56929SOL    HW188397   1.869   6.080  11.252  1.4258 -1.6081 -2.4403
56929SOL    HW288398   1.994   6.083  11.338  0.7699 -0.7553 -1.4895
56930SOL     OW88399   2.504  10.372   7.061 -0.0640 -0.6553 -0.0996
56930SOL    HW188400   2.543  10.459   7.055 -0.5047 -0.4121  0.5409
56930SOL    HW288401   2.564  10.316   7.010  2.3871 -0.7296  2.5791
56931SOL     OW88402   3.322  13.863  10.056  0.7338 -0.0746  0.0043
56931SOL    HW188403   3.341  13.939  10.000  0.0328 -0.9678 -1.4995
56931SOL    HW288404   3.340  13.787  10.001 -3.2262 -1.0204 -0.2651
56932SOL     OW88405  12.477   9.593   6.041 -0.1217 -0.0220 -0.4236
56932SOL    HW188406  12.436   9.542   5.971  1.6300 -1.1945 -0.6623
56932SOL    HW288407  12.416   9.585   6.115 -1.5495  0.4648 -1.4913
56933SOL     OW88408   1.173   3.618   3.617  0.4925  0.4278 -0.3095
56933SOL    HW188409   1.254   3.615   3.566  1.2684 -2.1047  0.9078
56933SOL    HW288410   1.105   3.592   3.555  0.8946  0.6024 -0.8392
56934SOL     OW88411   3.874   9.121   5.254 -0.4381 -0.1381 -0.3861
56934SOL    HW188412   3.958   9.136   5.298  0.1155  0.8413 -1.7352
56934SOL    HW288413   3.808   9.147   5.319  0.3692  1.6313 -0.2249
56935SOL     OW88414  10.898   1.169  11.065  0.0465  0.7553  0.1980
56935SOL    HW188415  10.811   1.131  11.076 -0.6018  1.3042 -2.3221
56935SOL    HW288416  10.948   1.102  11.019  0.5270  0.9442  0.4437
56936SOL     OW88417  10.353  12.925   5.275  0.4257  0.3293  0.2763
56936SOL    HW188418  10.353  12.853   5.338 -0.3298  0.3552  0.3237
56936SOL    HW288419  10.295  12.894   5.204  2.7432 -0.5140 -1.3928
56937SOL     OW88420   2.152  13.151  12.179 -0.1187 -0.1207 -0.3753
56937SOL    HW188421   2.154  13.056  12.178 -2.0241 -0.2114  0.1507
56937SOL    HW288422   2.112  13.174  12.263  0.9160  1.1920 -0.1918
56938SOL     OW88423   5.563   0.338   4.439 -0.2910 -0.1172 -0.0305
56938SOL    HW188424   5.520   0.381   4.512 -0.7289 -1.6445  0.6357
56938SOL    HW288425   5.504   0.267   4.414  0.7508 -0.8029 -0.6230
56939SOL     OW88426   3.038  11.063   4.399  0.0544 -0.1233 -0.8197
56939SOL    HW188427   3.122  11.025   4.373 -0.8291 -1.4116 -1.9915
56939SOL    HW288428   3.061  11.143   4.446  1.9353 -0.6617 -0.7253
56940SOL     OW88429   8.894  10.910   9.950  0.6035  0.3429 -0.0286
56940SOL    HW188430   8.894  10.898  10.045  0.4100  2.8666  0.3778
56940SOL    HW288431   8.858  10.829   9.915 -2.0877  0.4082  2.2633
56941SOL     OW88432  13.627   8.772   5.739 -0.1983 -0.0035  0.0562
56941SOL    HW188433  13.660   8.731   5.659  0.6669 -0.1066  0.4563
56941SOL    HW288434  13.622   8.865   5.717 -1.2774 -0.1874 -0.5500
56942SOL     OW88435  13.777   1.390   7.877  0.4491 -0.4835 -0.2055
56942SOL    HW188436  13.848   1.326   7.876  0.0444 -0.9442  0.1336
56942SOL    HW288437  13.809   1.460   7.934  0.7775 -0.5202 -0.3467
56943SOL     OW88438   2.355   9.313  12.889 -0.6566 -0.0908 -0.7372
56943SOL    HW188439   2.426   9.263  12.931 -1.7000 -0.7217  0.3580
56943SOL    HW288440   2.399   9.366  12.822  0.7506 -0.9793 -0.5645
56944SOL     OW88441  12.806  11.290  12.639 -0.5852  0.3233  0.2780
56944SOL    HW188442  12.829  11.382  12.654 -0.0376  0.1032  0.8155
56944SOL    HW288443  12.721  11.294  12.596  0.1098  1.1470 -1.1136
56945SOL     OW88444   1.917  12.712   0.513  0.3545  0.3632 -0.5528
56945SOL    HW188445   1.927  12.758   0.430 -1.3630  3.4750  0.7784
56945SOL    HW288446   1.973  12.761   0.574 -1.1443  0.4452  0.8299
56946SOL     OW88447   9.579  12.062   8.127  0.2283  0.6763  0.3071
56946SOL    HW188448   9.501  12.117   8.128  0.2296  0.8449 -2.1226
56946SOL    HW288449   9.557  11.992   8.064  2.4252  1.4041 -1.3652
56947SOL     OW88450   1.130  10.741   3.579  0.3426 -0.3050 -0.0160
56947SOL    HW188451   1.104  10.830   3.558 -2.1392 -1.0638 -0.4734
56947SOL    HW288452   1.100  10.727   3.669  2.1922 -0.2101  0.6690
56948SOL     OW88453   0.459   7.981   1.495 -0.4261  0.2105 -0.2890
56948SOL    HW188454   0.554   7.987   1.489 -0.4873  1.3006 -0.4330
56948SOL    HW288455   0.434   7.923   1.423  0.0221  1.1627 -1.2436
56949SOL     OW88456  13.845   8.864   7.224  0.1712  0.3995 -0.3081
56949SOL    HW188457  13.933   8.850   7.260 -0.8769 -1.6040  1.7377
56949SOL    HW288458  13.788   8.869   7.301 -1.5933  1.1572 -1.5972
56950SOL     OW88459   8.278  10.270   4.883  0.4920  0.3196 -0.4283
56950SOL    HW188460   8.350  10.278   4.820 -1.4450  0.7601 -2.7388
56950SOL    HW288461   8.243  10.182   4.868  0.2570  0.2704  0.3605
56951SOL     OW88462  10.908   1.711  11.290 -0.2371  0.0006 -0.1797
56951SOL    HW188463  10.864   1.657  11.356 -0.7775 -0.8219 -1.1979
56951SOL    HW288464  10.955   1.649  11.235  1.7909  0.8323  0.5484
56952SOL     OW88465  12.267   4.214   3.407 -0.2583  0.2312  0.5427
56952SOL    HW188466  12.302   4.291   3.452 -0.4952 -0.2265  1.5398
56952SOL    HW288467  12.184   4.196   3.451  0.1756 -1.0689  0.8687
56953SOL     OW88468   6.881  10.306   3.503 -1.3705 -0.3264  0.5344
56953SOL    HW188469   6.868  10.397   3.531 -1.6337 -0.0119 -0.5527
56953SOL    HW288470   6.973  10.289   3.521 -0.6995  0.9402 -1.2911
56954SOL     OW88471   8.725   1.920   9.927  0.1322  0.6296 -0.2008
56954SOL    HW188472   8.664   1.881   9.989 -1.2385  0.4185 -1.6306
56954SOL    HW288473   8.762   1.846   9.879 -0.7411  0.9068 -1.3487
56955SOL     OW88474   3.860   4.367  13.058  0.3017 -0.2811  0.2554
56955SOL    HW188475   3.774   4.364  13.100  0.1727  0.6298  0.0794
56955SOL    HW288476   3.902   4.285  13.083 -1.1980 -1.4586 -0.9135
56956SOL     OW88477  13.903  10.000   8.904  0.1790  0.1017  0.1535
56956SOL    HW188478  13.932   9.947   8.978  1.5814 -0.1069 -0.5191
56956SOL    HW288479  13.928  10.089   8.926 -0.6732  0.2561  0.5392
56957SOL     OW88480   4.294   9.584   1.114  0.0756 -0.5233 -0.1279
56957SOL    HW188481   4.354   9.581   1.039 -0.7319  0.6515 -0.8576
56957SOL    HW288482   4.220   9.529   1.088 -0.9065  1.0824 -0.8744
56958SOL     OW88483   4.045   2.690   6.216 -0.1255 -0.6753 -0.8698
56958SOL    HW188484   4.118   2.734   6.260  0.2601 -0.7759 -1.3886
56958SOL    HW288485   3.982   2.672   6.285 -0.6036  1.3021 -0.7248
56959SOL     OW88486   9.559  10.247   4.283 -0.4630  0.0728 -0.0616
56959SOL    HW188487   9.509  10.224   4.361  2.7680  0.0199  2.1976
56959SOL    HW288488   9.590  10.163   4.249  0.1114  0.2348  0.0481
56960SOL     OW88489   4.782   9.999  11.498  0.4823  0.2107 -0.1330
56960SOL    HW188490   4.867   9.970  11.532  2.0413  1.4298 -2.7033
56960SOL    HW288491   4.788  10.095  11.500 -1.4975  0.3582  1.0661
56961SOL     OW88492   3.693   2.795   6.577  0.6070 -0.2700 -0.2835
56961SOL    HW188493   3.649   2.868   6.620 -1.7837 -1.7847  0.0829
56961SOL    HW288494   3.709   2.732   6.647 -0.4736 -1.4549 -1.0477
56962SOL     OW88495   6.370  10.471   3.434  0.4427 -0.9553 -0.2770
56962SOL    HW188496   6.403  10.384   3.454  0.2001 -0.9979 -0.0509
56962SOL    HW288497   6.290  10.456   3.383  0.7673 -0.8536 -0.8215
56963SOL     OW88498  12.002   8.876   2.262 -0.5989 -0.1640 -0.0966
56963SOL    HW188499  11.949   8.946   2.300  1.5556  2.6666 -1.8554
56963SOL    HW288500  12.037   8.829   2.338 -2.7721  0.0935  1.1339
56964SOL     OW88501   4.135  11.379  12.442  0.0871  0.4755 -0.7856
56964SOL    HW188502   4.159  11.466  12.411 -0.3411 -0.0055 -2.5418
56964SOL    HW288503   4.047  11.364  12.407  0.0745 -0.5799 -0.3354
56965SOL     OW88504   3.451   6.321   0.058  0.0348 -0.1753  0.3382
56965SOL    HW188505   3.392   6.345  -0.013  0.1540 -1.4324 -0.2284
56965SOL    HW288506   3.539   6.332   0.020  0.1804  1.3744  1.0685
56966SOL     OW88507   6.605   0.908   1.747 -0.0043 -0.2795 -0.4580
56966SOL    HW188508   6.688   0.952   1.766 -0.2525 -0.3869  1.0471
56966SOL    HW288509   6.630   0.818   1.727  0.2124 -0.5845  1.0332
56967SOL     OW88510   6.702   1.178   6.081 -0.1922 -0.6077  0.7237
56967SOL    HW188511   6.748   1.095   6.068 -0.6286 -0.5799 -1.3151
56967SOL    HW288512   6.697   1.217   5.993 -0.1099  1.5291  1.6031
56968SOL     OW88513   9.372  11.637   3.240  0.0300 -0.0806  0.1510
56968SOL    HW188514   9.416  11.679   3.166 -0.6850  0.1677 -0.1404
56968SOL    HW288515   9.435  11.643   3.312  0.3249  0.6103 -0.1542
56969SOL     OW88516   6.566   2.378  13.767  0.4511  0.3978 -0.2821
56969SOL    HW188517   6.660   2.385  13.756  0.5295 -0.7649 -0.4565
56969SOL    HW288518   6.537   2.325  13.692 -0.2191 -0.0035  0.2502
56970SOL     OW88519   9.795   1.640   9.808 -0.4298 -0.7789  0.1499
56970SOL    HW188520   9.805   1.545   9.812 -0.6161 -0.8281 -0.4400
56970SOL    HW288521   9.858   1.668   9.741 -0.5883 -0.5220  0.1086
56971SOL     OW88522   8.886   7.196   4.756  0.2198  0.6200  0.0685
56971SOL    HW188523   8.850   7.204   4.844 -0.4104  1.3857 -0.2514
56971SOL    HW288524   8.980   7.206   4.767  0.3818 -1.3108  0.9074
56972SOL     OW88525   2.253   6.631   4.136 -0.1933 -0.1059  0.0381
56972SOL    HW188526   2.242   6.570   4.064 -0.2848  0.7396 -0.6807
56972SOL    HW288527   2.170   6.680   4.139  0.3031  0.7628 -0.1479
56973SOL     OW88528   8.788   1.743  11.755  0.1970  0.0443  0.3858
56973SOL    HW188529   8.773   1.799  11.831 -0.3960 -0.3227  0.5498
56973SOL    HW288530   8.824   1.801  11.688 -0.4638  0.6296  0.5333
56974SOL     OW88531  11.854  11.119  12.476  0.2193 -0.1994 -0.2805
56974SOL    HW188532  11.780  11.141  12.420 -0.7864 -0.7898  0.7762
56974SOL    HW288533  11.914  11.193  12.466  0.1046 -0.3286 -2.1702
56975SOL     OW88534   2.812   7.751   0.039  0.0248 -0.1387  0.0588
56975SOL    HW188535   2.765   7.742   0.122  0.4158 -0.5953  0.2385
56975SOL    HW288536   2.744   7.773  -0.024 -0.3850 -0.4647  0.3759
56976SOL     OW88537  12.987   9.736  12.046 -0.2068 -0.0152  0.2630
56976SOL    HW188538  12.920   9.761  11.982  1.6962  0.4574 -1.6736
56976SOL    HW288539  12.985   9.641  12.047  0.0348 -0.0454 -0.8938
56977SOL     OW88540   1.605   7.283  10.917 -0.1688  0.2022  0.5886
56977SOL    HW188541   1.574   7.265  10.828  1.4029  2.0903 -0.4382
56977SOL    HW288542   1.526   7.285  10.970 -1.1892 -0.6947 -0.8148
56978SOL     OW88543   7.675   3.244   6.796  0.3293  0.0949 -0.7565
56978SOL    HW188544   7.757   3.289   6.774  1.3860 -0.5256  1.6027
56978SOL    HW288545   7.701   3.154   6.813 -0.9130 -0.1907 -0.2974
56979SOL     OW88546  10.652   8.341   3.441  0.2383  0.1494  0.2902
56979SOL    HW188547  10.638   8.261   3.492 -1.5752  0.9830  1.2041
56979SOL    HW288548  10.563   8.371   3.420  0.8995  0.5013 -2.3550
56980SOL     OW88549   4.376   0.748   2.417  0.5223  0.3369 -0.6158
56980SOL    HW188550   4.308   0.698   2.373  1.8231 -2.6192  0.4825
56980SOL    HW288551   4.366   0.837   2.383 -2.7655 -0.3135 -1.7069
56981SOL     OW88552  10.804   0.211   5.165 -0.4046  0.4870  0.2462
56981SOL    HW188553  10.744   0.187   5.236  0.4092  0.6585  1.0084
56981SOL    HW288554  10.794   0.306   5.157 -0.3589  0.4923  0.2541
56982SOL     OW88555   7.916  10.531   5.190 -0.3472  0.3027 -0.1635
56982SOL    HW188556   7.953  10.617   5.170  0.4110  0.6620  2.4291
56982SOL    HW288557   7.825  10.550   5.213 -0.2584  0.3796  0.1288
56983SOL     OW88558   8.888   3.240   9.219  0.0387  0.1593  0.2899
56983SOL    HW188559   8.959   3.300   9.243 -0.8530  2.3205 -2.0665
56983SOL    HW288560   8.861   3.201   9.303  2.3329  1.1222  1.5726
56984SOL     OW88561   8.119  11.339   3.033 -0.7199  0.5150 -0.1678
56984SOL    HW188562   8.180  11.276   2.994 -1.3508  0.1435 -0.5736
56984SOL    HW288563   8.098  11.398   2.961 -1.0625  0.4669 -0.1056
56985SOL     OW88564   0.077   2.762  10.044 -0.0929  0.0689  0.3661
56985SOL    HW188565  -0.006   2.739  10.086 -0.3868  1.4858  0.6083
56985SOL    HW288566   0.127   2.807  10.112 -0.1368  1.4188 -0.4505
56986SOL     OW88567   4.355   1.999  12.399 -0.5906  0.0337 -0.6455
56986SOL    HW188568   4.374   2.093  12.401 -0.1500 -0.0621  0.0138
56986SOL    HW288569   4.433   1.958  12.436 -0.7845 -0.5968 -0.9184
56987SOL     OW88570   4.015   8.234   3.405 -0.0549 -0.1567  0.1720
56987SOL    HW188571   4.000   8.241   3.310  1.8239  1.9082 -0.0580
56987SOL    HW288572   3.985   8.318   3.440  2.2195  0.4058  0.9048
56988SOL     OW88573   8.220   0.284  12.193 -0.3180 -0.3400 -0.0749
56988SOL    HW188574   8.155   0.354  12.194  0.3453  0.4218 -2.7640
56988SOL    HW288575   8.185   0.218  12.134  1.0261 -0.1747 -1.1166
56989SOL     OW88576   2.190  11.598   1.225  0.3576 -0.1338 -0.4397
56989SOL    HW188577   2.174  11.692   1.225 -0.8094 -0.2454  2.3330
56989SOL    HW288578   2.105  11.559   1.201  0.4940 -0.5028 -0.3382
56990SOL     OW88579   8.593  10.749   6.188  0.0700 -0.5548  0.5886
56990SOL    HW188580   8.607  10.843   6.191 -0.3422 -0.5078  1.4310
56990SOL    HW288581   8.672  10.711   6.227 -0.5180 -0.4507  1.9762
56991SOL     OW88582   6.985   9.430   3.855  0.5217  0.2065 -0.0868
56991SOL    HW188583   6.970   9.335   3.857 -1.1020  0.3832 -1.5919
56991SOL    HW288584   6.972   9.458   3.945  2.5517 -1.1631  0.7170
56992SOL     OW88585   3.855   6.640  12.678 -0.3333 -0.6340 -0.0781
56992SOL    HW188586   3.876   6.710  12.740 -0.1886  1.2147 -2.1075
56992SOL    HW288587   3.767   6.612  12.702 -1.1382  1.5227 -0.3027
56993SOL     OW88588   5.926   1.999   9.820 -0.3108 -0.0990 -1.0655
56993SOL    HW188589   5.858   2.035   9.763  0.9868  0.4456 -2.2881
56993SOL    HW288590   5.946   2.069   9.882 -1.9842 -0.8136  0.3956
56994SOL     OW88591   5.499   3.755  11.265 -0.2155 -0.7522  0.1241
56994SOL    HW188592   5.572   3.788  11.319  0.0110  0.3399 -0.7932
56994SOL    HW288593   5.424   3.808  11.292  0.2368  0.9007 -1.6337
56995SOL     OW88594   4.805  13.284   3.292 -0.4149 -0.4724  0.5643
56995SOL    HW188595   4.764  13.288   3.206  0.5202  0.7878  0.1574
56995SOL    HW288596   4.853  13.366   3.300 -1.1389 -0.1863  2.6409
56996SOL     OW88597   9.307  10.971  12.033  0.3396  0.0676 -0.6979
56996SOL    HW188598   9.335  10.927  11.952  0.9211 -1.4106  0.2453
56996SOL    HW288599   9.345  11.058  12.028  0.3618 -0.0054 -2.0216
56997SOL     OW88600   0.639   4.473  13.505  0.1333  0.0001 -0.5559
56997SOL    HW188601   0.686   4.499  13.585  0.2658 -0.5192 -0.4599
56997SOL    HW288602   0.569   4.537  13.497  0.4996  0.4341 -0.3690
56998SOL     OW88603  13.867  11.337  12.522 -0.0282  0.1339  0.5939
56998SOL    HW188604  13.820  11.256  12.506 -1.3703  0.7027  1.4410
56998SOL    HW288605  13.899  11.329  12.612  0.1124  0.4165  0.5723
56999SOL     OW88606   2.074   7.833  12.353  0.1037  0.5924  0.1134
56999SOL    HW188607   2.014   7.860  12.284  1.5562  0.8264 -1.1103
56999SOL    HW288608   2.051   7.889  12.428 -0.4799  1.4343 -0.6795
57000SOL     OW88609   6.980   5.372   4.946  0.0291  0.2074 -0.0286
57000SOL    HW188610   7.029   5.354   4.865  1.1579 -0.7250  0.8229
57000SOL    HW288611   6.999   5.297   5.003 -0.7187  0.8521  1.1147
57001SOL     OW88612   2.135  13.584   0.189 -0.2070 -0.0498 -0.4868
57001SOL    HW188613   2.224  13.589   0.156 -0.5301  0.2814 -1.3287
57001SOL    HW288614   2.080  13.591   0.112 -0.9621 -2.1545 -0.1981
57002SOL     OW88615   7.223   6.172   1.844  0.0588  0.4499  0.4159
57002SOL    HW188616   7.276   6.224   1.784  0.9180 -0.8445  0.0034
57002SOL    HW288617   7.203   6.092   1.795 -0.5051  0.0197  1.3240
57003SOL     OW88618  11.506   7.734   4.288  0.4101 -0.3661 -0.1162
57003SOL    HW188619  11.456   7.810   4.318  1.2664 -0.1917  0.9362
57003SOL    HW288620  11.588   7.739   4.337  1.1428 -1.0756 -1.2299
57004SOL     OW88621   7.791   9.058   1.109 -0.0861  0.1599  0.3448
57004SOL    HW188622   7.698   9.061   1.088  0.0908  1.6441 -0.3366
57004SOL    HW288623   7.820   8.972   1.077 -1.0031  0.0998 -0.3714
57005SOL     OW88624  12.242   4.671  10.206  0.4931  0.3029 -0.2063
57005SOL    HW188625  12.267   4.579  10.215 -1.3997 -0.2505 -0.1187
57005SOL    HW288626  12.294   4.717  10.271  2.3227 -0.4945 -1.0167
57006SOL     OW88627   6.620  12.249  10.765  0.1246 -0.4336 -0.3167
57006SOL    HW188628   6.539  12.239  10.715 -1.0561  0.9533  1.2189
57006SOL    HW288629   6.645  12.341  10.754  1.8710 -0.9580 -1.2382
57007SOL     OW88630  10.524   3.599   1.987 -0.0281  0.1670  0.1044
57007SOL    HW188631  10.546   3.682   2.030  0.1532  1.0505 -1.5925
57007SOL    HW288632  10.580   3.597   1.909 -0.2937 -1.3911 -0.0714
57008SOL     OW88633  12.701   4.553   7.678 -0.2749 -0.5932  0.1445
57008SOL    HW188634  12.786   4.511   7.695  0.1175  0.7937  1.9159
57008SOL    HW288635  12.665   4.570   7.765 -0.4825  2.5593 -0.4466
57009SOL     OW88636  13.596  13.326  10.963 -0.1202  0.1650 -0.1880
57009SOL    HW188637  13.643  13.244  10.948 -0.1414  0.3528 -1.4080
57009SOL    HW288638  13.613  13.347  11.054 -0.4319 -1.3991  0.2684
57010SOL     OW88639  10.440   0.337   5.413 -0.5576 -0.0056 -0.1449
57010SOL    HW188640  10.492   0.261   5.387 -0.1298 -0.1426  1.0475
57010SOL    HW288641  10.395   0.364   5.333  1.0183 -0.1483 -1.1129
57011SOL     OW88642  11.410   6.525   0.512 -0.0217  0.1197  0.1607
57011SOL    HW188643  11.492   6.502   0.554  0.2006  3.1981  1.7429
57011SOL    HW288644  11.345   6.523   0.583 -1.1003 -1.1028 -0.8119
57012SOL     OW88645   2.366   9.993   0.687  0.0413  0.1636 -0.1346
57012SOL    HW188646   2.409   9.981   0.603  1.5618 -1.0580  0.7610
57012SOL    HW288647   2.395  10.079   0.718  1.8984 -0.6418  0.4506
57013SOL     OW88648   8.240  12.982   0.297  0.6880 -0.4035  0.1728
57013SOL    HW188649   8.145  12.972   0.298  0.8467 -2.4719 -0.6924
57013SOL    HW288650   8.272  12.913   0.355  1.7230 -0.6900 -0.7153
57014SOL     OW88651   4.847   0.701  11.257  0.1444  0.1546 -0.1263
57014SOL    HW188652   4.906   0.774  11.274 -1.2000  1.0789  0.7614
57014SOL    HW288653   4.814   0.676  11.344 -0.9097 -0.2220 -0.6158
57015SOL     OW88654   8.557   0.995  11.225 -0.4097 -0.1981  0.3000
57015SOL    HW188655   8.557   1.084  11.190  1.4394 -0.4751 -0.5075
57015SOL    HW288656   8.482   0.953  11.183 -1.2548  0.9360  0.6289
57016SOL     OW88657  12.823   5.717  11.533 -0.1192  0.1086  0.3002
57016SOL    HW188658  12.742   5.696  11.487  0.9109 -1.8174 -0.7494
57016SOL    HW288659  12.819   5.812  11.547 -2.3639  0.0986 -0.0391
57017SOL     OW88660   4.477   2.179   8.817  0.4905 -0.1358 -0.5129
57017SOL    HW188661   4.513   2.268   8.809 -2.0240  1.0303  0.1270
57017SOL    HW288662   4.450   2.172   8.908 -1.6600 -0.5466 -1.1263
57018SOL     OW88663  10.166   9.282  13.065 -0.8276  0.3339 -0.0573
57018SOL    HW188664  10.249   9.300  13.108 -1.0538  1.3909 -0.0505
57018SOL    HW288665  10.157   9.186  13.069 -0.6896  0.3754  1.9359
57019SOL     OW88666   5.021   8.900  13.368  0.2823  0.4148  0.0347
57019SOL    HW188667   4.931   8.922  13.344 -0.1759 -1.1432  0.1910
57019SOL    HW288668   5.069   8.899  13.285  0.2617  1.6138 -0.0096
57020SOL     OW88669   3.522   2.041  11.131 -0.6767 -0.2400  0.1390
57020SOL    HW188670   3.565   1.955  11.132 -0.3484 -0.1153  2.1273
57020SOL    HW288671   3.561   2.086  11.057 -0.2219 -1.5032 -0.4261
57021SOL     OW88672  11.224   5.770  11.955  0.2327 -0.3995 -0.6645
57021SOL    HW188673  11.212   5.681  11.923 -0.4270 -1.1254  1.3859
57021SOL    HW288674  11.138   5.794  11.990  0.6745  0.6332 -0.2385
57022SOL     OW88675   9.254   5.745   5.584 -0.2932 -0.0227 -0.5610
57022SOL    HW188676   9.305   5.826   5.594 -1.5725  0.6762  0.6610
57022SOL    HW288677   9.173   5.772   5.543 -0.8817 -0.6191  0.1779
57023SOL     OW88678   3.803   9.773  12.852 -0.0601  0.5875  0.1287
57023SOL    HW188679   3.890   9.792  12.817  0.1814  0.3178  0.5777
57023SOL    HW288680   3.775   9.853  12.895 -0.4130  0.9675 -0.7693
57024SOL     OW88681   1.279   9.302   4.380  0.2593  0.0859 -0.2040
57024SOL    HW188682   1.205   9.252   4.346 -1.1364  1.8463  0.0883
57024SOL    HW288683   1.261   9.310   4.474 -0.0077  1.7764 -0.3630
57025SOL     OW88684   8.126   3.647   9.068  0.2895 -0.5112  0.3843
57025SOL    HW188685   8.150   3.564   9.110 -0.9178 -0.7238  0.6962
57025SOL    HW288686   8.033   3.658   9.089  0.1903  0.4275 -0.4941
57026SOL     OW88687   1.201   9.350  13.928  0.0635  0.1967  0.4660
57026SOL    HW188688   1.108   9.348  13.952 -0.4529 -1.0839 -1.4346
57026SOL    HW288689   1.238   9.272  13.970 -0.4846 -1.1191 -1.3570
57027SOL     OW88690  11.036   5.126  12.023 -0.0345  0.3993  0.2073
57027SOL    HW188691  10.956   5.131  12.075 -0.0999 -0.0871  0.1613
57027SOL    HW288692  11.102   5.169  12.077 -0.2071  0.3251  0.4842
57028SOL     OW88693  10.893   0.330   8.303  0.3704 -0.4302  0.2712
57028SOL    HW188694  10.966   0.373   8.347 -0.7863  0.3702  1.4543
57028SOL    HW288695  10.926   0.243   8.282  1.6872 -0.0589  0.7152
57029SOL     OW88696   8.010   2.257   4.573 -0.2165 -0.2593  0.0822
57029SOL    HW188697   8.060   2.212   4.505 -1.5030  1.4983 -2.1603
57029SOL    HW288698   8.001   2.192   4.643  2.3940 -1.6755 -0.7423
57030SOL     OW88699   2.327  13.556   2.253  0.2410  0.6715  0.3366
57030SOL    HW188700   2.238  13.555   2.219 -0.1946 -1.3558  1.3889
57030SOL    HW288701   2.319  13.524   2.343  1.8679  1.8866  0.9796
57031SOL     OW88702   5.190   3.543  11.237 -0.0698  0.2646 -0.1492
57031SOL    HW188703   5.229   3.467  11.194 -2.3246 -0.2682 -1.4357
57031SOL    HW288704   5.191   3.612  11.170 -1.8051  0.0383 -0.4641
57032SOL     OW88705   7.338   4.674   0.693 -0.1915 -0.7574  0.2229
57032SOL    HW188706   7.340   4.742   0.760 -0.0938 -0.0853 -0.4466
57032SOL    HW288707   7.245   4.661   0.673 -0.3141 -1.9171  1.4214
57033SOL     OW88708  10.430   9.823  10.873 -0.3703 -0.0606 -0.2510
57033SOL    HW188709  10.405   9.905  10.915  1.0520  0.0785  0.3644
57033SOL    HW288710  10.383   9.755  10.923 -1.0137  0.3146 -0.3352
57034SOL     OW88711   8.830   8.988  13.678  0.5807 -0.2517 -0.9490
57034SOL    HW188712   8.924   8.975  13.692  0.5243  1.2185  1.2081
57034SOL    HW288713   8.791   8.978  13.765 -1.4669 -1.9225 -1.9625
57035SOL     OW88714   4.972   5.913   4.436  0.1721 -0.1838 -0.0951
57035SOL    HW188715   5.021   5.990   4.464 -1.6609  0.8696  0.3956
57035SOL    HW288716   5.014   5.840   4.481  1.9153  0.5057 -0.5357
57036SOL     OW88717   4.253  11.363   5.489 -0.1246  0.6620  0.4557
57036SOL    HW188718   4.216  11.296   5.546  0.1063 -0.6135 -0.8612
57036SOL    HW288719   4.313  11.412   5.546 -0.4718 -0.0895  1.4879
57037SOL     OW88720   8.465   8.737   0.212  0.3851 -0.1425 -0.4039
57037SOL    HW188721   8.479   8.643   0.204  2.0346  0.0925 -0.4783
57037SOL    HW288722   8.476   8.771   0.123 -0.2535  0.1264 -0.3864
57038SOL     OW88723   2.822  11.558   4.027 -0.6294  0.0447 -0.0052
57038SOL    HW188724   2.731  11.548   3.997 -0.8311 -3.0128  1.2155
57038SOL    HW288725   2.818  11.539   4.121  1.3429 -0.8805 -0.0620
57039SOL     OW88726   1.206  13.068   9.772  0.0002 -0.0646  0.0880
57039SOL    HW188727   1.171  12.998   9.717  0.7875  0.1873 -0.7603
57039SOL    HW288728   1.183  13.148   9.725  0.3564  0.1728  0.3188
57040SOL     OW88729  11.614   1.568   9.196  0.3447  0.1843 -0.1809
57040SOL    HW188730  11.579   1.535   9.279  1.5657 -0.8395 -0.0381
57040SOL    HW288731  11.703   1.597   9.218 -0.1844  2.3482 -0.6174
57041SOL     OW88732   4.407   8.602   9.391  0.3768  0.0516 -0.3514
57041SOL    HW188733   4.441   8.664   9.326 -0.2344 -0.8860 -1.6192
57041SOL    HW288734   4.314   8.595   9.369  0.5086 -1.5682 -0.4612
57042SOL     OW88735   0.684  11.853  10.040 -0.1074  0.9649  0.0111
57042SOL    HW188736   0.694  11.926   9.980 -1.1067  1.1398  0.0470
57042SOL    HW288737   0.723  11.778   9.994 -0.7457  1.1273 -0.8010
57043SOL     OW88738  12.821   5.813  12.398  0.1510  0.1498  0.5245
57043SOL    HW188739  12.886   5.850  12.456  0.5958 -0.9554  0.7417
57043SOL    HW288740  12.871   5.767  12.331 -0.3875  0.0746  0.1628
57044SOL     OW88741   4.386   4.207   3.144 -0.2295 -0.0802 -0.2636
57044SOL    HW188742   4.380   4.198   3.240  1.3145 -1.0901 -0.2155
57044SOL    HW288743   4.296   4.215   3.115 -0.7386  0.1832  1.2785
57045SOL     OW88744   3.388   5.702   0.732 -0.4048 -0.2751  0.3826
57045SOL    HW188745   3.406   5.618   0.773 -2.8973 -1.2163 -0.2097
57045SOL    HW288746   3.414   5.767   0.796 -0.4681 -1.5783  1.7832
57046SOL     OW88747   4.167  13.978   1.275 -0.1998 -0.6390 -0.1341
57046SOL    HW188748   4.093  13.952   1.329  0.4348 -1.1140  0.5220
57046SOL    HW288749   4.187  13.901   1.222  0.0844 -0.6486 -0.0125
57047SOL     OW88750   5.016   7.741  12.632  0.1185  0.1343  0.7605
57047SOL    HW188751   5.039   7.670  12.693  0.1176  1.6147  2.5980
57047SOL    HW288752   5.088   7.803  12.639  0.0189  0.4427 -0.6466
57048SOL     OW88753   4.035   1.949  13.256  0.0465  0.1559  0.0718
57048SOL    HW188754   4.062   1.929  13.167 -0.5157  2.0189 -0.5645
57048SOL    HW288755   4.035   1.865  13.301  1.0981 -0.7057 -1.4661
57049SOL     OW88756   2.389   1.004   6.633 -0.0789  0.2715  0.4913
57049SOL    HW188757   2.466   1.000   6.690  0.2507 -2.2575 -0.0027
57049SOL    HW288758   2.425   1.002   6.544 -0.6836 -0.2260  0.2480
57050SOL     OW88759   6.365   1.475   0.464 -0.3524  0.1439  0.6502
57050SOL    HW188760   6.440   1.467   0.404  0.6670  0.2809  1.8517
57050SOL    HW288761   6.379   1.406   0.528 -0.2870  1.2621  1.8908
57051SOL     OW88762  12.945  12.286   9.341  0.0555  0.2445  0.5926
57051SOL    HW188763  12.992  12.214   9.382  0.9983  0.3402 -0.2774
57051SOL    HW288764  12.970  12.363   9.392  2.2396  0.5723 -0.8334
57052SOL     OW88765   8.893   1.855   4.262  0.5900  0.3757  0.4890
57052SOL    HW188766   8.943   1.928   4.227  0.3875  1.1552  1.7856
57052SOL    HW288767   8.958   1.787   4.278  0.7836  0.2752 -0.6831
57053SOL     OW88768   0.177   2.444   4.155  0.0071 -0.7007 -0.3015
57053SOL    HW188769   0.223   2.520   4.189 -1.7814  0.4936 -0.4382
57053SOL    HW288770   0.198   2.374   4.216 -1.0376  0.7409  1.8216
57054SOL     OW88771  11.177   7.973   6.312 -0.6697  0.3847 -0.4574
57054SOL    HW188772  11.246   7.910   6.328 -1.4924 -0.1794  1.1115
57054SOL    HW288773  11.213   8.057   6.341 -0.1440  0.3562 -1.0232
57055SOL     OW88774   6.453   6.238   3.679 -0.0182  0.0705 -0.3423
57055SOL    HW188775   6.435   6.326   3.714  1.9613  0.1727  0.6009
57055SOL    HW288776   6.547   6.227   3.691 -0.2106 -2.1814 -0.5033
57056SOL     OW88777   5.377   8.718   4.400  0.3881  0.7478  0.4920
57056SOL    HW188778   5.289   8.722   4.437  0.7155 -0.1668  1.3987
57056SOL    HW288779   5.403   8.810   4.393 -1.5870  1.2240 -2.2256
57057SOL     OW88780   9.674   1.024  11.247  0.3366 -0.0378  0.0809
57057SOL    HW188781   9.656   1.073  11.327 -0.9294 -0.4181  0.0466
57057SOL    HW288782   9.637   0.937  11.263  0.6995 -0.3383 -0.6503
57058SOL     OW88783   0.416   8.093   9.912  0.2159 -0.4134  1.0425
57058SOL    HW188784   0.350   8.144   9.959  0.0491 -0.1204  0.5039
57058SOL    HW288785   0.372   8.010   9.892 -0.3742  0.1933 -0.2634
57059SOL     OW88786   3.107   6.105   4.952  0.3564 -0.1431  0.6382
57059SOL    HW188787   3.147   6.050   5.019  0.1139 -0.8258  0.2335
57059SOL    HW288788   3.179   6.126   4.892  0.1734 -1.2410 -0.0041
57060SOL     OW88789   0.722   2.295   6.761 -0.4499  0.5672  0.0642
57060SOL    HW188790   0.813   2.304   6.732  0.2061 -0.1422  1.8046
57060SOL    HW288791   0.686   2.225   6.706  1.3012 -2.0291  1.9807
57061SOL     OW88792   9.280   8.994   7.850  0.6453  0.0216  0.0786
57061SOL    HW188793   9.246   9.081   7.832  1.2942  0.1356 -0.6363
57061SOL    HW288794   9.311   8.962   7.765  0.5576 -0.8389  0.3591
57062SOL     OW88795   2.589   6.540  12.109 -0.3740 -0.3341  0.2194
57062SOL    HW188796   2.631   6.477  12.168 -0.1376 -1.1419 -0.7917
57062SOL    HW288797   2.548   6.604  12.168  1.8979  0.2623  1.2654
57063SOL     OW88798  11.016   1.938   8.191 -0.1167  0.4040 -0.8219
57063SOL    HW188799  10.962   1.860   8.182  0.6630  0.0377 -2.7276
57063SOL    HW288800  10.971   2.005   8.140 -1.2562  1.5356  1.5163
57064SOL     OW88801   7.137   1.829   8.274 -0.3427 -0.5094  0.0031
57064SOL    HW188802   7.182   1.839   8.190 -0.6333  0.6327 -0.0303
57064SOL    HW288803   7.058   1.779   8.253 -1.1604  1.0189 -0.6861
57065SOL     OW88804   2.615   3.518   5.371  0.0240  0.1383  0.1532
57065SOL    HW188805   2.635   3.430   5.403 -2.2098 -0.2984  0.4911
57065SOL    HW288806   2.597   3.507   5.278  0.1802  0.3035  0.1038
57066SOL     OW88807   5.456   6.486  12.124  0.4702 -0.1720  0.5068
57066SOL    HW188808   5.507   6.430  12.183  0.6309 -1.0671 -0.4574
57066SOL    HW288809   5.379   6.510  12.176  0.7168 -0.7495  1.1656
57067SOL     OW88810   6.601   0.465  13.866 -0.3074  0.1139  0.3729
57067SOL    HW188811   6.561   0.396  13.814 -1.0878  0.9963 -0.2495
57067SOL    HW288812   6.554   0.463  13.949 -2.4441  1.7652 -0.6856
57068SOL     OW88813   7.782   1.644   0.283  0.2587  0.0782 -0.0721
57068SOL    HW188814   7.796   1.608   0.195  0.0772  0.9741 -0.4698
57068SOL    HW288815   7.863   1.622   0.330  1.3087  1.5053 -1.1161
57069SOL     OW88816   4.916  13.412   6.854 -0.8665 -0.3290 -0.1614
57069SOL    HW188817   4.996  13.400   6.803 -0.3281  0.1277  0.5450
57069SOL    HW288818   4.911  13.334   6.909 -1.0862 -0.5100 -0.4361
57070SOL     OW88819   2.282   8.545  10.605  0.2656 -0.0943  0.3994
57070SOL    HW188820   2.319   8.581  10.524  0.4904 -0.9556  0.1166
57070SOL    HW288821   2.234   8.619  10.643 -0.9737 -0.0334 -1.1860
57071SOL     OW88822   0.238  12.462  11.675  0.9793  0.0135  0.0654
57071SOL    HW188823   0.294  12.465  11.752  0.4363  1.1915  0.4449
57071SOL    HW288824   0.266  12.384  11.628  0.2772 -1.6666  2.2533
57072SOL     OW88825   2.314   2.626   6.080 -0.0044 -0.0383  0.0532
57072SOL    HW188826   2.307   2.601   5.988 -1.1518 -1.2690  0.4321
57072SOL    HW288827   2.408   2.624   6.099  0.1711 -0.7380 -0.8365
57073SOL     OW88828   6.765   7.303   0.090 -0.3515  0.3206  0.1645
57073SOL    HW188829   6.765   7.344   0.177 -2.9286  0.0926  0.3326
57073SOL    HW288830   6.673   7.296   0.066  0.1881 -1.6888 -1.6449
57074SOL     OW88831  12.131   7.782  10.355 -0.1586  0.2759 -0.1129
57074SOL    HW188832  12.157   7.713  10.294  2.0191 -1.5177  2.6017
57074SOL    HW288833  12.198   7.850  10.346  0.5858 -0.3280  0.7459
57075SOL     OW88834   2.184   6.669   9.914  0.5801 -0.0883  0.2029
57075SOL    HW188835   2.180   6.577   9.888  2.0301  0.2804 -1.5843
57075SOL    HW288836   2.147   6.716   9.839 -1.3702  0.7758  1.6246
57076SOL     OW88837   2.228   1.131   5.123 -0.0289 -0.3636 -0.2092
57076SOL    HW188838   2.300   1.079   5.090  0.0705  0.3236 -1.1126
57076SOL    HW288839   2.182   1.162   5.045 -0.8716 -0.1873  0.3339
57077SOL     OW88840   1.036   7.172  12.133 -0.1767  0.2976  0.7403
57077SOL    HW188841   1.076   7.254  12.105 -0.0156  0.0214  0.1410
57077SOL    HW288842   0.944   7.193  12.147 -0.3837  0.3258 -0.5656
57078SOL     OW88843   0.730   5.837   5.218  0.2046  0.1482 -0.1692
57078SOL    HW188844   0.685   5.850   5.134 -1.1491 -0.8467  0.3544
57078SOL    HW288845   0.664   5.861   5.284 -0.2062 -2.8387  0.6555
57079SOL     OW88846  11.934  11.298   8.349 -0.1713  0.1961 -0.3625
57079SOL    HW188847  11.908  11.207   8.335  0.6357 -0.1453  0.2919
57079SOL    HW288848  11.976  11.324   8.266 -0.9920  0.1961 -0.7869
57080SOL     OW88849   9.754  13.754  10.232 -0.0017  0.7355  0.6198
57080SOL    HW188850   9.754  13.663  10.262  0.3745  1.0773  1.7278
57080SOL    HW288851   9.794  13.751  10.145  0.5581 -0.0840  0.8929
57081SOL     OW88852   9.539   7.404   0.976  0.6425  0.1026 -0.0022
57081SOL    HW188853   9.579   7.354   0.905 -0.7558 -1.7850  0.4572
57081SOL    HW288854   9.601   7.399   1.048  0.4630 -1.1569  0.0854
57082SOL     OW88855  12.078  12.489  11.035  0.1380 -0.3258 -0.6628
57082SOL    HW188856  12.100  12.552  10.967  1.6442  0.3806  0.4165
57082SOL    HW288857  12.008  12.436  10.997 -0.8950  1.6995 -1.7794
57083SOL     OW88858   7.921  12.417   5.142  0.3462  0.1164 -0.2012
57083SOL    HW188859   7.848  12.479   5.140  1.7821  1.9221  0.7581
57083SOL    HW288860   7.901  12.359   5.216  0.3280  1.1924  0.6524
57084SOL     OW88861   4.930   8.845   6.595  1.0032  0.6684 -0.1690
57084SOL    HW188862   4.886   8.866   6.512 -0.1210  0.4590  0.3631
57084SOL    HW288863   4.956   8.930   6.630  0.3161  0.8648 -0.1181
57085SOL     OW88864   1.512   0.733  10.982 -0.4359  0.1689 -0.4948
57085SOL    HW188865   1.528   0.827  10.977 -0.9548  0.1802 -3.8012
57085SOL    HW288866   1.425   0.725  11.021 -1.1408  1.1980 -1.7909
57086SOL     OW88867  12.416   0.331   1.790 -0.0701 -0.6626  0.2273
57086SOL    HW188868  12.329   0.342   1.828 -0.3516 -0.8351 -0.3694
57086SOL    HW288869  12.453   0.419   1.789 -1.0927 -0.2192 -1.5727
57087SOL     OW88870   2.020   5.224   0.953  0.3378  0.4124 -0.5292
57087SOL    HW188871   1.978   5.148   0.992 -1.4841  0.8756 -1.4764
57087SOL    HW288872   2.069   5.264   1.025 -2.1049  0.6936  1.0915
57088SOL     OW88873   8.069   7.344   8.984  0.0958 -0.2769  0.2413
57088SOL    HW188874   7.993   7.310   9.032  0.5923 -2.4632 -0.4235
57088SOL    HW288875   8.051   7.324   8.893  1.8708 -1.7092  0.1661
57089SOL     OW88876   0.200  12.198  10.108  0.1324  0.0272 -0.8564
57089SOL    HW188877   0.256  12.233  10.039  0.6533 -0.4552 -0.6800
57089SOL    HW288878   0.151  12.127  10.065 -0.4393  0.5300 -1.0434
57090SOL     OW88879   4.575   3.218   5.788 -0.2455 -1.2593  0.1643
57090SOL    HW188880   4.551   3.126   5.782  0.0615 -1.2641 -1.7393
57090SOL    HW288881   4.528   3.260   5.715  0.6076 -0.1647  0.2078
57091SOL     OW88882   2.687   7.469  12.210  0.1326  0.0423 -0.1648
57091SOL    HW188883   2.740   7.541  12.245  0.6346  1.9850 -4.2937
57091SOL    HW288884   2.613   7.512  12.168 -0.1132 -1.9058 -1.8732
57092SOL     OW88885   5.776   1.458  12.487 -0.0124  1.1079  0.6975
57092SOL    HW188886   5.806   1.369  12.470 -0.9614  0.9197 -0.1313
57092SOL    HW288887   5.809   1.479  12.574 -0.0718 -0.1855  1.0441
57093SOL     OW88888   3.511   9.000   2.178 -0.2671 -0.1718  0.0125
57093SOL    HW188889   3.599   8.976   2.208 -0.5125 -1.5534 -0.3016
57093SOL    HW288890   3.459   8.921   2.189 -1.3934  0.5181 -0.1551
57094SOL     OW88891   9.616  13.256  10.106  0.4479  0.1816  0.0266
57094SOL    HW188892   9.615  13.168  10.143 -1.6910  0.5892  1.1800
57094SOL    HW288893   9.627  13.313  10.182 -0.6817  0.9446 -0.3488
57095SOL     OW88894   7.416  10.002   8.589 -0.6116  0.1365 -0.2476
57095SOL    HW188895   7.471   9.984   8.513 -0.5145 -0.5558 -0.0141
57095SOL    HW288896   7.332  10.030   8.552 -0.1555  1.0757 -0.6070
57096SOL     OW88897  13.951   4.668   8.556 -0.0601 -0.1266 -0.5552
57096SOL    HW188898  14.022   4.604   8.553 -1.8200 -2.2121 -0.6206
57096SOL    HW288899  13.958   4.716   8.474  1.4554 -0.0464 -0.4032
57097SOL     OW88900   0.864   3.301   9.657 -0.5980  0.1940 -0.2992
57097SOL    HW188901   0.819   3.324   9.739  0.0966  1.3927 -0.2282
57097SOL    HW288902   0.798   3.314   9.589 -1.1787 -0.7982  0.0489
57098SOL     OW88903  13.895   1.822   2.465  0.1792 -0.0981 -0.2658
57098SOL    HW188904  13.936   1.786   2.543 -3.2207 -0.9390  1.3068
57098SOL    HW288905  13.913   1.757   2.397  0.8088 -0.7623  0.5115
57099SOL     OW88906  10.048  10.827  12.625  0.4823 -0.0373  0.7184
57099SOL    HW188907  10.033  10.732  12.628  0.5483 -0.0558  0.4602
57099SOL    HW288908  10.079  10.849  12.713 -1.3923  0.0486  1.4109
57100SOL     OW88909   5.482   2.431   7.089 -0.4683 -0.4435  0.8327
57100SOL    HW188910   5.421   2.358   7.099 -1.3131  0.0366 -0.4419
57100SOL    HW288911   5.465   2.463   7.000  3.3261 -1.8149 -0.5797
57101SOL     OW88912   6.750   1.185   2.584 -0.8485 -0.0244 -0.0782
57101SOL    HW188913   6.735   1.132   2.662  1.7009  1.5990  1.7097
57101SOL    HW288914   6.727   1.274   2.611  0.5565  0.6469 -0.9749
57102SOL     OW88915   2.412   6.991  13.729 -0.1761  0.7652 -0.4485
57102SOL    HW188916   2.417   7.085  13.746 -0.5321  0.4927  1.4802
57102SOL    HW288917   2.327   6.980  13.686 -0.6222  1.2365  0.2707
57103SOL     OW88918   5.685  11.381   2.498 -0.2053  0.5176  0.0023
57103SOL    HW188919   5.770  11.338   2.513 -0.5197  0.0256  0.3952
57103SOL    HW288920   5.697  11.428   2.416 -0.1580 -1.1380 -0.9999
57104SOL     OW88921  10.962  13.656   4.941 -0.3603  0.4165 -0.2565
57104SOL    HW188922  10.975  13.684   4.850 -1.9718 -0.6955 -0.8665
57104SOL    HW288923  11.016  13.578   4.950 -0.8933  0.0195 -0.5236
57105SOL     OW88924   2.179   8.057   5.931  0.1205 -0.1284 -0.3162
57105SOL    HW188925   2.158   8.014   5.848 -2.1098  0.0311  0.0902
57105SOL    HW288926   2.229   7.992   5.980 -2.1956 -1.9490 -0.1548
57106SOL     OW88927  13.975   9.738  12.045  0.2732 -1.0954 -0.2725
57106SOL    HW188928  13.952   9.686  12.122  0.5129 -0.9265 -0.0850
57106SOL    HW288929  13.918   9.814  12.048 -1.2750 -2.1398 -1.4550
57107SOL     OW88930  12.186  13.654   7.156  0.4432  0.4595  0.7170
57107SOL    HW188931  12.100  13.645   7.197  0.2672  0.9062  0.4590
57107SOL    HW288932  12.167  13.665   7.063  0.8661 -1.2840  0.3933
57108SOL     OW88933   5.285  13.692  11.526 -0.5260 -0.5916 -0.0081
57108SOL    HW188934   5.379  13.690  11.505 -0.8413 -2.0755 -1.5588
57108SOL    HW288935   5.244  13.730  11.448 -1.2302 -0.0076  0.6349
57109SOL     OW88936   4.015   3.025  12.776  0.4255 -0.3278  0.0226
57109SOL    HW188937   3.977   3.072  12.850  1.5635  1.3047 -0.3799
57109SOL    HW288938   3.995   2.933  12.794 -2.5866  0.3138  0.4203
57110SOL     OW88939   6.421  12.008  12.913 -0.1377 -0.2761  0.3693
57110SOL    HW188940   6.417  12.103  12.901  0.0663 -0.3104  0.0564
57110SOL    HW288941   6.366  11.992  12.990 -0.6363  0.0351  0.0844
57111SOL     OW88942   4.957   4.416  11.552 -0.1187 -0.1193  0.4638
57111SOL    HW188943   4.865   4.418  11.525 -0.0794 -0.3135  0.3130
57111SOL    HW288944   4.988   4.330  11.523  0.5688  0.5905 -0.9984
57112SOL     OW88945   2.225  11.368   1.798  0.5295 -0.8859  0.6475
57112SOL    HW188946   2.215  11.282   1.838 -2.1468 -0.3073  1.4199
57112SOL    HW288947   2.147  11.378   1.743  1.8193  0.2354 -1.0944
57113SOL     OW88948   9.349   0.876   0.531 -0.2728 -0.3622 -0.9688
57113SOL    HW188949   9.335   0.798   0.478  0.0194  0.2148 -1.9076
57113SOL    HW288950   9.420   0.923   0.488 -0.8721  0.7456 -0.7914
57114SOL     OW88951   4.759   0.720   1.756  0.1163 -0.5555  0.1884
57114SOL    HW188952   4.702   0.721   1.833 -0.1761  0.3859 -0.0310
57114SOL    HW288953   4.847   0.721   1.791 -0.0117  1.0223  0.5309
57115SOL     OW88954   6.149   1.635  10.155 -0.0260  0.0933 -0.2146
57115SOL    HW188955   6.101   1.688  10.092 -1.0325 -1.4117 -0.7508
57115SOL    HW288956   6.110   1.548  10.150  0.3275 -0.2686  1.9858
57116SOL     OW88957   9.605   0.167  10.382  0.0980 -0.2419  0.7167
57116SOL    HW188958   9.635   0.239  10.437  2.3406 -0.9894  0.5643
57116SOL    HW288959   9.598   0.204  10.294 -0.3156  0.1509  0.9104
57117SOL     OW88960   2.866   6.952   5.115  0.3296  0.3340  0.3950
57117SOL    HW188961   2.876   7.039   5.078 -1.1808 -0.1517 -1.3299
57117SOL    HW288962   2.923   6.897   5.062 -0.5192 -0.0837 -0.1150
57118SOL     OW88963   8.336   6.133   9.316 -0.4628  0.2103  0.3951
57118SOL    HW188964   8.390   6.127   9.395 -0.4109  1.1766  0.4478
57118SOL    HW288965   8.274   6.061   9.324  0.5902 -0.7185  0.4982
57119SOL     OW88966  13.956   8.151   7.619 -0.0557 -0.0185  0.0765
57119SOL    HW188967  14.003   8.227   7.583  0.2275 -0.4810 -0.5542
57119SOL    HW288968  13.899   8.188   7.686 -0.4489  0.8451 -0.7101
57120SOL     OW88969   4.045   1.721   5.466 -0.3031  0.1020 -0.4974
57120SOL    HW188970   4.034   1.762   5.551 -2.4489 -0.1816 -0.5908
57120SOL    HW288971   4.029   1.792   5.403  1.3259  0.3245 -0.7156
57121SOL     OW88972   2.675  12.190   0.843  0.6691 -0.2712  0.2347
57121SOL    HW188973   2.644  12.280   0.837  2.6377  0.3850 -1.1587
57121SOL    HW288974   2.659  12.153   0.756 -0.0394 -1.2663  0.7660
57122SOL     OW88975   2.333   7.800   9.909 -0.1339  0.2684  0.1660
57122SOL    HW188976   2.367   7.749   9.983 -0.9698 -1.8937 -0.8687
57122SOL    HW288977   2.408   7.852   9.880  0.5988  0.0892  1.6182
57123SOL     OW88978   4.420   8.143   1.288  1.1249 -0.4801  0.1184
57123SOL    HW188979   4.380   8.225   1.260 -1.1466 -1.4272  0.3588
57123SOL    HW288980   4.354   8.102   1.344  3.1107 -1.4323  1.8973
57124SOL     OW88981  13.689   3.550  11.377 -0.3235 -0.3058  0.2679
57124SOL    HW188982  13.612   3.503  11.344  0.0003 -0.4906 -0.2234
57124SOL    HW288983  13.755   3.539  11.309  0.1207 -0.0932  0.6629
57125SOL     OW88984  11.605  11.747   5.097 -0.3496 -0.0274  0.2114
57125SOL    HW188985  11.660  11.676   5.065 -1.2333 -1.2541  1.3054
57125SOL    HW288986  11.563  11.712   5.176  0.8791  2.4521  2.1375
57126SOL     OW88987   2.420   3.872  11.457 -0.2651  0.2789 -0.1431
57126SOL    HW188988   2.478   3.798  11.441  1.4103  1.5019 -0.0305
57126SOL    HW288989   2.457   3.943  11.404 -1.5972  1.1419  0.0428
57127SOL     OW88990   2.143   2.598   7.229 -0.5849  0.0615 -0.4013
57127SOL    HW188991   2.236   2.583   7.246 -0.4034 -2.6700 -2.9484
57127SOL    HW288992   2.098   2.527   7.276 -1.2199  0.2602 -0.6983
57128SOL     OW88993   7.385  12.414   8.761 -0.5169  0.2835 -0.0720
57128SOL    HW188994   7.404  12.342   8.701  0.4922 -0.5192  1.1715
57128SOL    HW288995   7.365  12.372   8.844 -0.2409  1.4248  0.5912
57129SOL     OW88996   1.203  14.021  13.815 -0.2167  0.0546 -0.1726
57129SOL    HW188997   1.155  13.993  13.737 -2.1762 -2.4073  1.7650
57129SOL    HW288998   1.288  13.978  13.808 -0.2591  0.1048 -1.0702
57130SOL     OW88999   9.917   2.999   8.436 -0.1540 -0.3770  0.0037
57130SOL    HW189000   9.958   3.046   8.508  2.8931  0.5798 -2.1356
57130SOL    HW289001   9.848   3.058   8.406  2.6726  2.3939 -1.7227
57131SOL     OW89002  13.714   4.044   4.499 -0.3529  0.1715  0.0223
57131SOL    HW189003  13.724   4.126   4.548 -1.5123  0.0382  0.5266
57131SOL    HW289004  13.646   4.063   4.434  0.9941  0.2664 -1.4057
57132SOL     OW89005   1.602  11.210   5.654  0.1396  0.5787 -0.0052
57132SOL    HW189006   1.570  11.149   5.587 -0.2619 -1.0982  1.6368
57132SOL    HW289007   1.675  11.255   5.612  0.6699 -1.2724 -1.2162
57133SOL     OW89008  13.304   6.280   2.726 -0.1045 -0.4033  0.3720
57133SOL    HW189009  13.349   6.197   2.715 -0.7007 -0.4216 -2.7824
57133SOL    HW289010  13.225   6.258   2.776 -0.9639 -2.0731 -1.5828
57134SOL     OW89011  10.130   8.395   3.909  0.2408 -0.0513  0.0747
57134SOL    HW189012  10.125   8.384   4.004 -0.5640 -1.6332 -0.1109
57134SOL    HW289013  10.223   8.381   3.889  0.1202 -1.6209  0.4631
57135SOL     OW89014   2.079   8.738   5.459  0.5350  0.1249  0.1234
57135SOL    HW189015   2.122   8.764   5.540 -2.3051  1.5862  1.3124
57135SOL    HW289016   2.040   8.653   5.479 -0.7164  0.7786  0.5862
57136SOL     OW89017   3.591   5.308   5.029 -0.4870 -0.0539  0.1007
57136SOL    HW189018   3.550   5.379   5.078 -1.5756 -1.9330  2.0681
57136SOL    HW289019   3.671   5.289   5.077  0.1762  0.2928 -0.8411
57137SOL     OW89020   2.209   4.884   6.599  0.1153 -0.7671 -0.4468
57137SOL    HW189021   2.218   4.791   6.579 -0.6982 -0.9751  0.0779
57137SOL    HW289022   2.127   4.890   6.648  0.9480  0.0065  0.9112
57138SOL     OW89023   5.870   5.101   6.009  0.2933  0.3588  0.1196
57138SOL    HW189024   5.963   5.080   5.997  0.6579  1.8672  0.0929
57138SOL    HW289025   5.868   5.150   6.091 -0.7057 -0.8754  0.8713
57139SOL     OW89026   4.804  10.466   1.983 -0.4251  0.4838  0.7342
57139SOL    HW189027   4.732  10.423   2.030  0.0296 -1.9240 -0.5856
57139SOL    HW289028   4.760  10.526   1.922 -1.3738 -0.8891 -0.0027
57140SOL     OW89029  13.702   6.988  13.670 -0.0299  0.0218  0.2815
57140SOL    HW189030  13.759   6.957  13.740  0.3386 -0.7346 -0.3410
57140SOL    HW289031  13.705   6.919  13.604  0.0291  0.9408 -0.7067
57141SOL     OW89032   5.532   3.174   0.531  0.1891 -0.2228  0.5977
57141SOL    HW189033   5.555   3.259   0.495 -1.2060  0.0100  0.2172
57141SOL    HW289034   5.448   3.188   0.575  0.0107 -1.3652  0.6512
57142SOL     OW89035   1.373  13.820   7.019 -0.4390  0.8007  0.1390
57142SOL    HW189036   1.335  13.838   6.933 -2.9610  2.3707  1.4340
57142SOL    HW289037   1.410  13.904   7.047 -1.0838  0.7602  1.1906
57143SOL     OW89038   4.358   0.125   4.518 -0.0919  0.0839  0.1378
57143SOL    HW189039   4.346   0.052   4.579  0.4117 -0.1343 -0.0168
57143SOL    HW289040   4.307   0.102   4.441 -0.5925  0.2799  0.4079
57144SOL     OW89041   2.965   2.663   4.880  0.6092 -0.4689  0.4357
57144SOL    HW189042   2.923   2.594   4.828 -0.5429  0.2762  0.3593
57144SOL    HW289043   2.993   2.619   4.960 -0.0499 -1.0417  0.3573
57145SOL     OW89044   2.593   2.817   1.806 -0.0566  0.1365 -0.4591
57145SOL    HW189045   2.516   2.762   1.817 -0.9125  0.7492 -2.6732
57145SOL    HW289046   2.657   2.783   1.868 -2.1585 -0.2564  1.6255
57146SOL     OW89047   3.402  13.291   9.295 -0.0746  0.2821  0.0754
57146SOL    HW189048   3.454  13.342   9.357 -0.3406 -0.4958  0.9740
57146SOL    HW289049   3.350  13.232   9.351 -2.1948  1.2756 -0.7645
57147SOL     OW89050  12.249  11.654   8.596  0.0601  0.4791  0.1035
57147SOL    HW189051  12.335  11.618   8.577 -0.2444 -1.1602  1.6154
57147SOL    HW289052  12.189  11.581   8.584 -0.8411  1.0073  1.2603
57148SOL     OW89053   1.779  13.659   6.843  0.1281  0.4772  0.3986
57148SOL    HW189054   1.735  13.592   6.791 -1.1327 -0.0015  2.0168
57148SOL    HW289055   1.730  13.662   6.925  1.1142  2.2939  0.9695
57149SOL     OW89056   8.201   6.397   3.098 -0.5181  0.2794  0.1961
57149SOL    HW189057   8.153   6.375   3.177 -3.0801  0.4158 -1.1995
57149SOL    HW289058   8.146   6.463   3.055  2.3153  2.5724 -0.2341
57150SOL     OW89059  13.330   3.196   9.960  0.1179 -0.0673  0.6305
57150SOL    HW189060  13.419   3.162   9.956  0.5293  0.8015  1.8623
57150SOL    HW289061  13.315   3.216  10.052 -0.3739  2.2465  0.1292
57151SOL     OW89062   1.495   7.713  12.486 -0.2253 -0.2386  0.1612
57151SOL    HW189063   1.515   7.622  12.511 -0.4337 -0.5209 -0.6683
57151SOL    HW289064   1.431   7.704  12.415  0.4600  0.5379 -0.5591
57152SOL     OW89065   9.416   4.832   2.539  0.1670 -0.6078  0.2701
57152SOL    HW189066   9.399   4.807   2.448  0.5773 -0.0337  0.0349
57152SOL    HW289067   9.483   4.899   2.534 -1.1102  0.7692  0.8747
57153SOL     OW89068   6.215  12.904   7.980 -0.4068 -0.1971  0.1703
57153SOL    HW189069   6.190  12.821   7.939  0.4342 -0.5480  0.3463
57153SOL    HW289070   6.212  12.968   7.909 -0.0238 -0.5931 -0.2116
57154SOL     OW89071  13.368   8.096  11.658 -0.2242  0.3592  0.1718
57154SOL    HW189072  13.451   8.143  11.668 -1.6793  3.6122 -1.4793
57154SOL    HW289073  13.371   8.061  11.569  0.0357 -1.1414  0.7320
57155SOL     OW89074   2.108   3.708  12.154 -0.4990 -0.1811  0.1647
57155SOL    HW189075   2.175   3.690  12.088 -0.1299  1.8230 -0.0709
57155SOL    HW289076   2.145   3.676  12.236 -0.9764 -2.7373 -0.5290
57156SOL     OW89077   7.124   5.542   2.861 -0.3110 -0.3292  0.4107
57156SOL    HW189078   7.087   5.620   2.903 -1.1762  0.4353 -1.6530
57156SOL    HW289079   7.126   5.563   2.768  0.7211 -2.2811 -0.0691
57157SOL     OW89080   0.229   9.474   3.407 -0.3269  0.1514  0.0557
57157SOL    HW189081   0.158   9.446   3.349  0.3773 -0.6999 -0.4177
57157SOL    HW289082   0.227   9.411   3.479  1.9032 -1.8782 -1.5068
57158SOL     OW89083   9.352   4.407   1.823 -0.5622 -0.3794 -0.0441
57158SOL    HW189084   9.357   4.327   1.771 -1.7888 -0.8950  0.5821
57158SOL    HW289085   9.349   4.478   1.758  0.6716 -0.8091 -0.6027
57159SOL     OW89086   7.829   5.556   5.872  0.7286  0.4772  0.0707
57159SOL    HW189087   7.853   5.469   5.841  0.6353  0.0672  1.1369
57159SOL    HW289088   7.759   5.541   5.935  2.9771  0.9817  2.8781
57160SOL     OW89089   0.969   9.444  12.329  0.1778  0.1718 -0.3096
57160SOL    HW189090   1.016   9.528  12.327 -0.2435  0.5085  1.7062
57160SOL    HW289091   1.020   9.390  12.389 -0.8078 -0.2120  0.2019
57161SOL     OW89092   2.907   0.256   6.972 -0.4584 -0.0084 -0.3298
57161SOL    HW189093   2.908   0.278   6.879  1.6446  0.8401 -0.1782
57161SOL    HW289094   2.858   0.174   6.977 -2.3579  0.9423 -1.8817
57162SOL     OW89095   5.133   8.108   8.160  0.4183  0.2453 -0.5627
57162SOL    HW189096   5.172   8.195   8.156 -1.1462  1.0371  0.1391
57162SOL    HW289097   5.073   8.112   8.235 -0.0786 -1.2699 -0.8264
57163SOL     OW89098   4.346   6.653   5.659  0.2463 -0.3902 -0.3953
57163SOL    HW189099   4.415   6.637   5.594  0.2778 -0.4886 -0.3371
57163SOL    HW289100   4.337   6.570   5.706 -0.2366 -0.5187 -0.7113
57164SOL     OW89101  10.274  11.221   2.418 -0.1858 -0.3864 -0.0576
57164SOL    HW189102  10.215  11.228   2.343  0.4693 -0.1093 -0.5543
57164SOL    HW289103  10.361  11.236   2.381  0.4271 -2.6235  0.3238
57165SOL     OW89104   3.861   8.565  10.160 -0.2357  0.1455  0.5152
57165SOL    HW189105   3.859   8.641  10.218 -0.4728  0.0035  0.6955
57165SOL    HW289106   3.871   8.490  10.219  1.7047  0.1383  0.2494
57166SOL     OW89107   2.589   2.409   2.077 -0.9076 -0.7839  0.2318
57166SOL    HW189108   2.645   2.483   2.054  0.5286 -1.8312  0.2095
57166SOL    HW289109   2.555   2.431   2.164 -2.5507  1.0214 -0.7987
57167SOL     OW89110   2.928   1.266  13.036  0.5171 -0.0232 -0.6631
57167SOL    HW189111   2.924   1.185  13.088 -1.6945  0.9094  0.7560
57167SOL    HW289112   2.952   1.236  12.948  0.8432 -2.0832  0.0598
57168SOL     OW89113   8.407   0.527  12.144 -0.0213  0.0299  0.0433
57168SOL    HW189114   8.358   0.444  12.145  0.4431 -0.2499 -0.1311
57168SOL    HW289115   8.385   0.567  12.060 -0.5054  0.2452  0.2685
57169SOL     OW89116  13.171  12.640   7.525  0.3108  0.1110  0.5925
57169SOL    HW189117  13.226  12.605   7.596  0.1560 -0.6883  0.3252
57169SOL    HW289118  13.209  12.604   7.445  0.8916  1.5395  0.1830
57170SOL     OW89119   1.121  13.955  11.830 -0.4946  0.2080 -0.4577
57170SOL    HW189120   1.091  14.030  11.880 -0.2115  0.6309 -0.9127
57170SOL    HW289121   1.186  13.991  11.770  0.1819 -0.5163 -0.1812
57171SOL     OW89122  13.123   5.455   9.286 -0.3989  0.2104  0.1152
57171SOL    HW189123  13.132   5.459   9.191 -0.4999 -4.1744 -0.2818
57171SOL    HW289124  13.209   5.481   9.319  0.1197  0.3133 -1.2384
57172SOL     OW89125   5.903   1.064   4.181 -0.0858 -0.3494  0.3434
57172SOL    HW189126   5.990   1.046   4.219  0.1495 -0.2531 -0.1503
57172SOL    HW289127   5.846   0.997   4.220  0.5414 -1.4663 -0.5842
57173SOL     OW89128   3.014  12.692   9.554 -0.0261  0.3071 -0.0301
57173SOL    HW189129   2.979  12.617   9.506 -0.5147  1.6482 -1.8909
57173SOL    HW289130   2.957  12.699   9.631  0.6661 -1.7905  0.7421
57174SOL     OW89131   7.785  10.455  12.409 -0.3352  0.3375  0.4881
57174SOL    HW189132   7.695  10.488  12.412 -0.5936 -0.3950  1.9965
57174SOL    HW289133   7.837  10.527  12.446 -0.1923  0.9952 -0.9313
57175SOL     OW89134   9.822  14.008   7.396  0.5456 -0.5040  0.3090
57175SOL    HW189135   9.780  13.951   7.331 -0.5402  0.7780 -0.1535
57175SOL    HW289136   9.908  14.028   7.358  0.1059 -0.1487 -0.5379
57176SOL     OW89137  13.057  11.750  12.015 -0.2926 -0.1191 -0.4980
57176SOL    HW189138  13.047  11.710  11.929  0.0420 -2.1796  0.3619
57176SOL    HW289139  13.150  11.740  12.035 -0.6553 -1.1468  0.7646
57177SOL     OW89140   9.705   9.289   3.125  0.2187 -0.4877 -0.4326
57177SOL    HW189141   9.652   9.364   3.151 -0.6106 -0.7142 -1.4155
57177SOL    HW289142   9.726   9.305   3.034  2.2686 -0.1811  0.0503
57178SOL     OW89143   2.260   0.349   1.210 -0.1925 -0.1412  0.1338
57178SOL    HW189144   2.188   0.411   1.215  0.8955  1.2330 -0.7936
57178SOL    HW289145   2.330   0.389   1.262  0.4649 -0.6724 -0.3279
57179SOL     OW89146  10.207   9.330  12.756  0.1162  0.6457  0.6311
57179SOL    HW189147  10.282   9.272  12.746 -0.0968  0.4454  0.1465
57179SOL    HW289148  10.181   9.321  12.848 -0.6071 -0.9019  0.3112
57180SOL     OW89149   1.645   4.060  13.769  0.1712  0.0815 -0.3297
57180SOL    HW189150   1.721   4.093  13.816  0.7918  0.0225 -1.2513
57180SOL    HW289151   1.589   4.021  13.836 -0.0789  2.0359  0.6478
57181SOL     OW89152   0.157  10.769   1.174  0.2326 -0.0757 -0.1032
57181SOL    HW189153   0.204  10.828   1.115  1.3486 -1.1375 -0.3196
57181SOL    HW289154   0.096  10.723   1.117  0.0724  0.1395 -0.1087
57182SOL     OW89155  11.263  11.382   4.339 -0.3010 -0.1852 -0.0676
57182SOL    HW189156  11.181  11.431   4.328  1.3986  2.8219 -0.4944
57182SOL    HW289157  11.280  11.384   4.433 -1.4368 -2.2046  0.2214
57183SOL     OW89158   2.438   8.876   5.208 -1.1657  0.3368 -0.0501
57183SOL    HW189159   2.394   8.808   5.259  0.0651 -1.6907 -1.5114
57183SOL    HW289160   2.507   8.908   5.265 -0.6583 -0.9308  0.0909
57184SOL     OW89161   6.886  11.710  13.038 -0.2439  0.2193 -0.1006
57184SOL    HW189162   6.963  11.744  12.994  1.2509 -1.2370  1.2316
57184SOL    HW289163   6.846  11.786  13.080  1.9360  0.6997  1.2749
57185SOL     OW89164   5.063   1.580   4.250 -0.1507  0.1206  0.0145
57185SOL    HW189165   5.141   1.524   4.244 -1.1642 -1.3011 -0.3745
57185SOL    HW289166   5.015   1.545   4.325  0.0821  1.6874  0.9381
57186SOL     OW89167   5.142   6.421   1.696  0.3162  0.1245  0.1011
57186SOL    HW189168   5.079   6.361   1.738  0.8643 -0.4802  0.0717
57186SOL    HW289169   5.120   6.418   1.603 -1.0705  1.6655  0.3304
57187SOL     OW89170   5.247   0.699   4.998  0.5970 -0.4735  0.1667
57187SOL    HW189171   5.292   0.623   5.034  2.0833 -0.4567 -1.5213
57187SOL    HW289172   5.262   0.694   4.904  0.3421  1.6630 -0.0384
57188SOL     OW89173  13.605   6.854   2.291  0.4582 -0.4824 -0.6151
57188SOL    HW189174  13.593   6.916   2.219  1.7708 -0.9535 -1.2687
57188SOL    HW289175  13.696   6.867   2.319 -0.0426 -0.2615  1.0225
57189SOL     OW89176   1.035   5.948   8.692 -0.1700 -0.6711  0.0529
57189SOL    HW189177   0.971   6.002   8.738  0.7766  0.0685  0.5526
57189SOL    HW289178   1.064   5.883   8.757  2.8515  1.7631  1.4337
57190SOL     OW89179   2.596   9.773   5.926 -0.2934 -0.6172 -0.4304
57190SOL    HW189180   2.616   9.866   5.936  0.1751 -0.6710 -0.8345
57190SOL    HW289181   2.542   9.752   6.002  2.0169 -0.6766  1.3097
57191SOL     OW89182  11.870   4.965  12.812  0.3948 -0.3100  0.4047
57191SOL    HW189183  11.827   4.899  12.866 -0.8585 -0.9089 -1.2400
57191SOL    HW289184  11.926   4.915  12.753 -0.6609  0.0378 -0.9443
57192SOL     OW89185   7.923   2.134  10.081 -0.0837  0.2541  0.4934
57192SOL    HW189186   7.863   2.209  10.080  0.2311  0.5313 -1.3596
57192SOL    HW289187   7.986   2.154  10.012 -0.5965 -2.1840 -0.7753
57193SOL     OW89188   3.798   1.442   6.828  0.0331  0.0319  0.4241
57193SOL    HW189189   3.876   1.386   6.833 -0.4264 -0.6256  0.4391
57193SOL    HW289190   3.772   1.437   6.736 -0.2629 -0.1255  0.5184
57194SOL     OW89191   1.626   6.716   7.941 -0.6863 -0.0095 -0.2699
57194SOL    HW189192   1.583   6.631   7.952  0.1351 -0.4795 -0.7076
57194SOL    HW289193   1.702   6.699   7.887 -0.3144  0.9499 -0.0721
57195SOL     OW89194   9.119  11.142   3.649 -0.4409  0.1800 -0.1580
57195SOL    HW189195   9.079  11.197   3.582  0.6813  2.2307  0.7744
57195SOL    HW289196   9.200  11.109   3.609 -0.2901  0.5637 -0.1728
57196SOL     OW89197   5.951  11.461   8.151  0.7368 -0.2174 -0.3110
57196SOL    HW189198   5.933  11.539   8.100  0.0356  0.1515  0.4723
57196SOL    HW289199   5.936  11.487   8.242  0.3582 -1.2817 -0.0429
57197SOL     OW89200  10.413  13.281   5.775  0.5269 -0.3114 -0.1008
57197SOL    HW189201  10.422  13.236   5.859 -3.4891 -2.2282 -0.4544
57197SOL    HW289202  10.350  13.351   5.792  0.5895  0.0574 -1.2619
57198SOL     OW89203   3.929   7.768  10.772  0.3086 -0.1881  0.3743
57198SOL    HW189204   3.852   7.803  10.817  0.7124  0.5563  0.4961
57198SOL    HW289205   3.939   7.679  10.807  0.4378  0.2634  1.5487
57199SOL     OW89206   1.596  12.175  13.072  0.1992 -0.4828 -0.6334
57199SOL    HW189207   1.655  12.132  13.010 -2.1328 -0.3268 -3.1512
57199SOL    HW289208   1.510  12.171  13.030 -0.9375  2.7182  1.0430
57200SOL     OW89209   8.276   3.954   0.243 -0.1180 -0.3336 -0.1608
57200SOL    HW189210   8.225   3.875   0.261 -1.2731  0.4771  0.2527
57200SOL    HW289211   8.285   3.955   0.148  1.4780 -1.8789 -0.0845
57201SOL     OW89212   6.787   3.712   9.937 -0.1553  0.2758 -0.5090
57201SOL    HW189213   6.779   3.644   9.870 -0.9804 -1.0317  0.8680
57201SOL    HW289214   6.699   3.748   9.945  0.1933  1.2700 -0.9485
57202SOL     OW89215  13.689   4.083   5.526  0.0824 -0.1187  0.2453
57202SOL    HW189216  13.617   4.128   5.483 -0.3993 -1.6531 -0.6093
57202SOL    HW289217  13.764   4.098   5.469 -0.0901 -0.4500 -0.0678
57203SOL     OW89218   2.860   2.591   3.888  0.4065  0.3261  0.2221
57203SOL    HW189219   2.770   2.568   3.862  0.5169 -0.1964  0.3071
57203SOL    HW289220   2.911   2.513   3.869  0.6332  0.1987  1.3034
57204SOL     OW89221   2.262   9.890  10.383 -0.4534 -0.2787  0.1800
57204SOL    HW189222   2.229   9.965  10.333  0.8896 -0.4846 -1.0909
57204SOL    HW289223   2.183   9.845  10.414 -1.2990  1.9029  1.4248
57205SOL     OW89224   6.930   0.083   4.145 -0.5566  0.2591  0.2569
57205SOL    HW189225   6.871   0.148   4.183 -0.8096 -0.1002  0.4833
57205SOL    HW289226   7.016   0.104   4.182 -0.5644  0.6950  0.0359
57206SOL     OW89227   3.555  10.101   5.536  0.3136  0.6424 -0.0276
57206SOL    HW189228   3.611  10.172   5.568  0.1711  1.1221 -0.8195
57206SOL    HW289229   3.610  10.053   5.475  0.3893  0.0950  0.4591
57207SOL     OW89230  13.024  11.304   2.002 -0.2889 -0.3693  0.1618
57207SOL    HW189231  12.984  11.217   2.008 -0.1567 -0.3960  0.7105
57207SOL    HW289232  13.003  11.334   1.913 -0.7254 -0.7714  0.1232
57208SOL     OW89233   9.408  12.876  11.736 -0.6910 -0.1049 -0.4027
57208SOL    HW189234   9.369  12.817  11.672 -0.1710  0.1031 -0.9205
57208SOL    HW289235   9.493  12.899  11.699 -0.2446 -0.2315  0.5083
57209SOL     OW89236   3.480   2.386   8.699  0.5113  0.2689  0.2604
57209SOL    HW189237   3.535   2.458   8.731  1.0522 -0.0364  0.0411
57209SOL    HW289238   3.460   2.334   8.777  1.4650 -0.2308  0.1951
57210SOL     OW89239   5.721   8.093  10.397  0.1436 -0.1318 -0.1732
57210SOL    HW189240   5.813   8.070  10.381 -0.1125 -0.7187 -0.8706
57210SOL    HW289241   5.725   8.170  10.454  1.0448 -1.5007  1.6995
57211SOL     OW89242   2.837   1.740   4.173 -0.2863 -0.4511  0.5667
57211SOL    HW189243   2.746   1.715   4.156 -0.3885 -1.0828  1.9343
57211SOL    HW289244   2.887   1.662   4.147 -0.0589  0.1069 -0.7450
57212SOL     OW89245   0.244   1.060   8.955  0.1096  0.1982 -0.1540
57212SOL    HW189246   0.202   1.096   9.033  0.5509 -0.5160  0.4271
57212SOL    HW289247   0.334   1.090   8.960  0.2229 -0.1274 -0.2074
57213SOL     OW89248   8.525   8.404   4.904  1.1702  0.6893  0.3173
57213SOL    HW189249   8.476   8.434   4.980  0.9488  0.2534  0.3522
57213SOL    HW289250   8.616   8.424   4.924  0.9877  1.7923  0.1168
57214SOL     OW89251   1.008  11.676  11.628 -0.0651  0.3924 -0.1343
57214SOL    HW189252   1.024  11.582  11.638 -0.1404  0.2061 -1.5152
57214SOL    HW289253   1.095  11.715  11.626 -0.0339  0.6933  2.8184
57215SOL     OW89254   3.724   8.372   6.711 -0.2114  0.2113 -0.3059
57215SOL    HW189255   3.701   8.379   6.804 -0.3508  2.4205 -0.4462
57215SOL    HW289256   3.655   8.317   6.673 -1.1439  0.7090  0.6081
57216SOL     OW89257  13.126   0.864   7.185 -0.1007 -0.1998 -0.3023
57216SOL    HW189258  13.083   0.812   7.252  0.0248 -0.6372 -0.5576
57216SOL    HW289259  13.125   0.808   7.107 -0.9959  0.6172 -0.8997
57217SOL     OW89260  13.847   8.469   9.409 -0.0570  0.0171 -0.1794
57217SOL    HW189261  13.775   8.409   9.391 -0.4260  1.0510 -2.5496
57217SOL    HW289262  13.923   8.413   9.424 -0.9155 -1.0533  0.2480
57218SOL     OW89263   5.028  13.126   1.428 -0.4797  0.4159  0.0550
57218SOL    HW189264   5.043  13.032   1.426 -0.7822  0.2724 -4.1431
57218SOL    HW289265   4.963  13.139   1.497  0.0320 -2.2944  1.1669
57219SOL     OW89266   5.934   3.269  12.966 -0.3507  0.1914 -0.5781
57219SOL    HW189267   5.959   3.251  13.057 -0.6054  0.1591 -0.5132
57219SOL    HW289268   5.842   3.243  12.961 -0.0499 -0.8316 -1.1237
57220SOL     OW89269   8.100   8.668   1.487 -0.3244  0.0035  0.4318
57220SOL    HW189270   8.131   8.723   1.559  1.6577 -0.0006 -0.3736
57220SOL    HW289271   8.115   8.720   1.408  1.1621 -1.4561 -0.3105
57221SOL     OW89272   1.534   5.676  11.278  0.3548  0.1173 -0.0582
57221SOL    HW189273   1.565   5.589  11.251 -0.6581 -0.9706  2.0309
57221SOL    HW289274   1.605   5.711  11.332  0.0678 -0.1673  0.5110
57222SOL     OW89275   8.825   3.603   9.461  0.0788 -0.1129 -0.1076
57222SOL    HW189276   8.888   3.592   9.391  0.1874  1.2094 -0.2297
57222SOL    HW289277   8.828   3.696   9.483 -0.5260 -0.3564  1.1070
57223SOL     OW89278   7.444   5.977  11.955  0.3968  0.0622 -0.4699
57223SOL    HW189279   7.376   6.035  11.921 -0.5785 -0.5565  0.3854
57223SOL    HW289280   7.518   5.990  11.895 -1.3371 -1.2470 -3.0605
57224SOL     OW89281   7.591   0.955   4.492 -0.0098 -0.5498 -0.0634
57224SOL    HW189282   7.595   0.879   4.551 -0.8540  0.4313  1.3039
57224SOL    HW289283   7.520   0.934   4.432 -0.7644 -0.5363  0.7978
57225SOL     OW89284   4.256   2.711   8.901 -0.0897  0.3107 -0.0526
57225SOL    HW189285   4.237   2.695   8.808  1.2245  0.8793 -0.4350
57225SOL    HW289286   4.310   2.637   8.928  2.1877  1.6676 -0.6223
57226SOL     OW89287  12.675   0.543   6.555  0.5835 -0.3249 -0.8162
57226SOL    HW189288  12.722   0.501   6.482  0.2609  0.9766 -1.8113
57226SOL    HW289289  12.583   0.543   6.526  0.5872  1.1128 -0.8788
57227SOL     OW89290  11.921  11.058   9.007 -1.1751  0.2205  0.9972
57227SOL    HW189291  11.878  10.995   9.065 -2.0763 -0.3414 -0.2334
57227SOL    HW289292  11.856  11.077   8.940  0.9945 -2.1286 -2.0800
57228SOL     OW89293   2.892  12.755  11.848  0.3453 -0.4008 -0.0106
57228SOL    HW189294   2.897  12.679  11.790  2.3094 -1.3834  1.3602
57228SOL    HW289295   2.810  12.744  11.895  0.8932 -2.0350  0.6091
57229SOL     OW89296   6.199   1.939   3.401 -0.1761 -0.6499 -0.7791
57229SOL    HW189297   6.180   1.920   3.493 -1.9473  1.1556 -0.7072
57229SOL    HW289298   6.114   1.936   3.358  0.5200 -0.6367 -2.2104
57230SOL     OW89299   7.004   9.208   6.125 -0.4577  0.0193 -0.0495
57230SOL    HW189300   7.062   9.164   6.064 -0.3142  0.6149 -0.3510
57230SOL    HW289301   6.962   9.137   6.174  0.8104 -0.4217  0.4560
57231SOL     OW89302   6.495   7.062   5.158 -0.2730 -0.6062  0.0499
57231SOL    HW189303   6.503   7.157   5.155  0.2779 -0.6185  1.0270
57231SOL    HW289304   6.429   7.042   5.091  0.9899  0.2933 -1.5312
57232SOL     OW89305   2.907   8.339  11.552  0.1438 -0.2463  0.1183
57232SOL    HW189306   2.976   8.342  11.619  0.7662 -0.5320 -0.5019
57232SOL    HW289307   2.934   8.270  11.492  0.3538  0.9626 -1.2392
57233SOL     OW89308  10.375   4.754   6.904  0.2892 -0.0858 -0.2316
57233SOL    HW189309  10.294   4.803   6.889 -0.7097 -1.5173  0.2614
57233SOL    HW289310  10.366   4.676   6.849  3.2523  1.6172 -3.5371
57234SOL     OW89311   8.023   0.704   7.229 -0.2136  0.2804 -0.2197
57234SOL    HW189312   8.033   0.799   7.224  0.0477  0.2333 -0.6246
57234SOL    HW289313   7.954   0.690   7.294 -1.8455  0.8089 -1.7852
57235SOL     OW89314  13.254   0.387  11.526 -0.5336  0.1582 -0.1649
57235SOL    HW189315  13.320   0.456  11.541 -0.1462 -0.3971  0.7510
57235SOL    HW289316  13.288   0.339  11.451  0.3660 -0.3978  0.5693
57236SOL     OW89317  11.347   2.593  11.835  0.6899 -0.4706 -0.2501
57236SOL    HW189318  11.288   2.559  11.902 -1.6821 -0.7549 -2.3550
57236SOL    HW289319  11.410   2.522  11.821 -1.7468 -2.5312 -1.7020
57237SOL     OW89320   6.072   4.439   9.461  0.3160 -0.4550  0.2691
57237SOL    HW189321   5.993   4.485   9.489  1.4405  0.4149  2.2628
57237SOL    HW289322   6.113   4.497   9.398 -0.4345 -0.7439 -0.4975
57238SOL     OW89323  12.535  13.571   9.098 -0.2403  0.2745 -0.0809
57238SOL    HW189324  12.510  13.621   9.020  1.2117  0.9043 -0.1813
57238SOL    HW289325  12.541  13.637   9.167  0.3232  0.0153  0.1144
57239SOL     OW89326   9.493  11.336   6.804  0.1309  0.2381  0.0706
57239SOL    HW189327   9.502  11.265   6.741  1.9403  0.1756  0.3598
57239SOL    HW289328   9.495  11.416   6.752 -1.5412  0.1413 -0.2175
57240SOL     OW89329  13.698  10.428   3.741 -0.0670 -0.0162  0.5963
57240SOL    HW189330  13.789  10.436   3.712 -0.1226 -0.3338  0.3282
57240SOL    HW289331  13.691  10.488   3.815  0.0658  0.8421 -0.0728
57241SOL     OW89332   8.557   5.889   5.199 -0.6099 -0.2021 -0.0901
57241SOL    HW189333   8.650   5.914   5.195 -0.2944 -1.2908  0.1180
57241SOL    HW289334   8.544   5.832   5.124 -1.0687 -0.1880 -0.0233
57242SOL     OW89335   0.845  12.512  12.116  0.1492 -0.6383 -0.5346
57242SOL    HW189336   0.781  12.557  12.170  2.1232  1.7390 -0.0068
57242SOL    HW289337   0.844  12.422  12.149 -0.6786  0.0856  1.6025
57243SOL     OW89338   1.711  12.212   0.565 -0.1361  0.1873 -0.2049
57243SOL    HW189339   1.658  12.256   0.631  1.7051  0.4222  1.2184
57243SOL    HW289340   1.759  12.282   0.521  2.6651 -0.1895  1.9468
57244SOL     OW89341   0.682   5.530   9.037  0.0078 -0.0432  0.0085
57244SOL    HW189342   0.598   5.485   9.044  0.8424 -2.0660 -1.9240
57244SOL    HW289343   0.688   5.557   8.946  1.6227 -0.3358 -0.0097
57245SOL     OW89344   8.583   0.717   8.121 -0.1333  0.0934  0.5714
57245SOL    HW189345   8.531   0.680   8.049 -1.3218 -0.1843  1.5506
57245SOL    HW289346   8.545   0.803   8.137  0.1188  0.1505  0.8835
57246SOL     OW89347  11.522   6.544   3.826  0.0698 -0.3421 -0.2296
57246SOL    HW189348  11.495   6.635   3.816 -1.7885 -0.9621 -1.4625
57246SOL    HW289349  11.495   6.502   3.744 -0.1801 -2.2417  0.7753
57247SOL     OW89350   1.250   2.256   4.026 -0.4729 -0.2391 -0.1009
57247SOL    HW189351   1.305   2.287   3.953  0.5569 -0.9117  0.3601
57247SOL    HW289352   1.228   2.166   4.002 -0.5860 -0.2805  0.1612
57248SOL     OW89353   9.939  13.475   8.354 -0.5929 -0.4666 -0.0701
57248SOL    HW189354   9.926  13.546   8.291 -2.5592 -0.4330  0.2836
57248SOL    HW289355   9.946  13.519   8.439 -1.8623 -0.6570  0.1547
57249SOL     OW89356   8.664  13.186  13.963 -0.5609 -0.0513  1.5910
57249SOL    HW189357   8.602  13.113  13.956  0.2528 -0.7102  1.1043
57249SOL    HW289358   8.657  13.232  13.879  0.7722 -1.0939  0.8780
57250SOL     OW89359   1.548   2.728   3.269  0.2757 -0.0914 -0.0740
57250SOL    HW189360   1.546   2.666   3.342 -0.5341 -0.7694 -0.6475
57250SOL    HW289361   1.638   2.760   3.267  0.2377  0.1747  1.4044
57251SOL     OW89362  13.941  12.898  13.946 -0.0301  0.2141  0.1655
57251SOL    HW189363  13.970  12.807  13.932  1.6259  0.5111  1.3512
57251SOL    HW289364  13.947  12.910  14.041 -1.2490  1.2674  0.1310
57252SOL     OW89365   3.293   4.116   9.732 -0.0009 -0.2285  0.0635
57252SOL    HW189366   3.241   4.195   9.717 -0.8862 -0.8436 -0.2092
57252SOL    HW289367   3.229   4.050   9.760  0.3315 -1.5074 -1.9974
57253SOL     OW89368   2.611   7.849   7.215 -0.0393  0.0207 -0.2788
57253SOL    HW189369   2.666   7.863   7.292 -1.5774  1.1322  0.6800
57253SOL    HW289370   2.555   7.775   7.239  0.4488 -0.5748 -0.9275
57254SOL     OW89371   9.863   5.759  11.776 -0.3803  0.4175  0.1247
57254SOL    HW189372   9.839   5.777  11.867  0.4683  0.9483  0.2560
57254SOL    HW289373   9.785   5.781  11.726 -0.8832  0.0445  0.7326
57255SOL     OW89374   8.118  11.426   3.961  0.1200  0.1921  0.4398
57255SOL    HW189375   8.082  11.350   3.917  0.2900  0.8477 -0.8821
57255SOL    HW289376   8.188  11.392   4.017 -1.2709 -0.8687  1.6245
57256SOL     OW89377   0.191  12.657   6.840  0.1616  0.0570 -0.6358
57256SOL    HW189378   0.122  12.654   6.773 -1.9810 -0.8029  1.4700
57256SOL    HW289379   0.167  12.729   6.897  1.6515  0.4364 -0.4486
57257SOL     OW89380   4.444   0.572   6.071  0.0150 -0.4301  0.1300
57257SOL    HW189381   4.472   0.640   6.132 -1.3457  0.4325 -0.1573
57257SOL    HW289382   4.450   0.613   5.984 -1.8200 -0.2541  0.0324
57258SOL     OW89383   4.619  12.614   2.510  0.0663 -0.5776  0.4224
57258SOL    HW189384   4.526  12.628   2.531 -0.3002 -0.4147 -1.1724
57258SOL    HW289385   4.655  12.573   2.589 -0.9377  0.9315  1.7462
57259SOL     OW89386   2.569   2.420   4.145  0.3407  0.2513  0.2601
57259SOL    HW189387   2.599   2.504   4.181  0.1638 -0.1059  1.2721
57259SOL    HW289388   2.593   2.355   4.211 -0.8689 -0.3010  0.1991
57260SOL     OW89389  10.015   9.148   8.367  0.0581 -0.2476 -0.1929
57260SOL    HW189390  10.070   9.074   8.391  0.6758  0.4769  0.7005
57260SOL    HW289391  10.040   9.168   8.277  1.1166 -0.0775  0.1230
57261SOL     OW89392   9.103   2.541  11.569  0.0208 -0.1502 -0.0213
57261SOL    HW189393   9.023   2.562  11.616  0.1662 -1.4169  0.8546
57261SOL    HW289394   9.128   2.623  11.526 -1.0198  0.6069  0.7596
57262SOL     OW89395   5.008   2.775   9.562 -0.2516 -0.4516 -0.0182
57262SOL    HW189396   5.086   2.743   9.517  0.4402  1.6429 -0.4036
57262SOL    HW289397   4.935   2.740   9.510  0.4304 -1.6349 -0.2068
57263SOL     OW89398   9.876  13.615  11.632  0.6629 -0.1079 -0.0503
57263SOL    HW189399   9.788  13.654  11.632  1.2730  1.3010 -0.6925
57263SOL    HW289400   9.884  13.576  11.720  0.1588  1.5379  0.7649
57264SOL     OW89401  10.198   9.664  13.632  0.4624  0.1016 -0.1229
57264SOL    HW189402  10.150   9.731  13.680  1.3075  0.7568 -0.1683
57264SOL    HW289403  10.187   9.688  13.540 -0.2563 -0.5374 -0.2138
57265SOL     OW89404   1.273  13.493   7.399 -0.2019 -0.1692 -0.0657
57265SOL    HW189405   1.225  13.575   7.395 -1.7371 -0.8859  1.9476
57265SOL    HW289406   1.215  13.433   7.445  1.0936 -2.2480 -0.9763
57266SOL     OW89407   6.194   2.858  11.577  0.1789 -0.2277  0.0876
57266SOL    HW189408   6.195   2.789  11.510 -0.4588  0.3225 -0.4923
57266SOL    HW289409   6.132   2.922  11.545  0.8564  0.6899  0.5741
57267SOL     OW89410  10.971   9.096  12.195  0.0525  0.2911  0.0040
57267SOL    HW189411  10.905   9.142  12.142  0.2726  1.0188  0.3361
57267SOL    HW289412  10.927   9.017  12.225 -1.0326  1.2409  1.0273
57268SOL     OW89413   3.019  12.343   4.693  1.0077  0.2425  0.6892
57268SOL    HW189414   3.028  12.340   4.597 -0.4005 -0.5879  0.5661
57268SOL    HW289415   3.074  12.271   4.724 -0.6017 -1.1920  0.3118
57269SOL     OW89416   9.822   0.022   3.312 -0.1487  0.0934  0.6491
57269SOL    HW189417   9.869  -0.038   3.371  0.1033 -0.8177 -0.4390
57269SOL    HW289418   9.837  -0.014   3.225  0.0222  1.7585 -0.0582
57270SOL     OW89419   9.838   2.179   7.348 -0.3454 -0.1988 -0.1950
57270SOL    HW189420   9.844   2.174   7.443  0.2083 -2.1293 -0.2980
57270SOL    HW289421   9.925   2.153   7.317 -0.5540  0.2919 -1.2463
57271SOL     OW89422   4.902  10.971   3.293  0.1823  0.1056  0.3161
57271SOL    HW189423   4.823  11.025   3.289 -1.2643 -1.9818 -1.3703
57271SOL    HW289424   4.922  10.950   3.202  3.8182  1.9297  0.4791
57272SOL     OW89425  11.712   1.441   8.652  0.4951 -0.0057  0.1720
57272SOL    HW189426  11.632   1.457   8.703  0.7365  1.1203  0.2350
57272SOL    HW289427  11.760   1.524   8.658  2.0460 -0.9229  0.8097
57273SOL     OW89428   0.109   6.219   0.276  0.0071  0.0790  0.2010
57273SOL    HW189429   0.128   6.125   0.275 -1.1966 -0.2128  1.8120
57273SOL    HW289430   0.017   6.225   0.252 -0.2930  0.7158  1.4311
57274SOL     OW89431  11.359  11.373   1.144  0.2708 -0.4291 -0.2078
57274SOL    HW189432  11.451  11.397   1.148  0.1588 -0.0523  2.9688
57274SOL    HW289433  11.312  11.452   1.171 -0.9142 -0.9843 -0.5625
57275SOL     OW89434  12.918   0.035   0.682 -0.1246  0.4810  0.1295
57275SOL    HW189435  12.990   0.029   0.744 -1.1857 -1.7623  1.2547
57275SOL    HW289436  12.949  -0.011   0.604  0.2800  1.0758 -0.0673
57276SOL     OW89437   7.627  12.696   4.582 -0.2282 -0.3795  0.2588
57276SOL    HW189438   7.613  12.695   4.677 -0.6270 -0.6682  0.2005
57276SOL    HW289439   7.721  12.689   4.571 -0.2925 -2.5661  0.6064
57277SOL     OW89440   9.433   8.790   2.988  0.4284  0.3229 -0.8613
57277SOL    HW189441   9.416   8.884   2.997  1.8715  0.5757 -0.5846
57277SOL    HW289442   9.414   8.771   2.896 -1.3330  0.5437 -0.5853
57278SOL     OW89443   2.435  10.634   9.406 -0.0448 -0.0730 -0.1216
57278SOL    HW189444   2.460  10.725   9.426 -0.7569 -0.0023  0.4715
57278SOL    HW289445   2.505  10.603   9.349  0.2715  0.8144 -0.2431
57279SOL     OW89446   3.592   8.193  13.115  0.5066  0.2581  0.2219
57279SOL    HW189447   3.615   8.277  13.077 -0.5728 -0.0618 -1.2269
57279SOL    HW289448   3.508   8.171  13.075  1.1929 -1.9418 -0.1495
57280SOL     OW89449   8.867   1.489  11.641  0.3864 -0.6783  0.4084
57280SOL    HW189450   8.852   1.573  11.683  0.1616 -0.2426 -0.5307
57280SOL    HW289451   8.791   1.476  11.584  1.0008 -0.9363 -0.3761
57281SOL     OW89452  10.612   1.274   8.380 -0.0082  0.3125 -0.4463
57281SOL    HW189453  10.610   1.206   8.448  0.3330 -0.8734 -1.5682
57281SOL    HW289454  10.554   1.343   8.412  1.7746  0.7665  2.0234
57282SOL     OW89455  11.863  13.685   4.774 -0.4633  0.7290 -0.7245
57282SOL    HW189456  11.821  13.680   4.860  2.4275  1.8036  0.9224
57282SOL    HW289457  11.890  13.595   4.755 -0.6192  0.5691 -0.2033
57283SOL     OW89458   2.495   3.244  13.387 -0.2185  0.1458  0.0445
57283SOL    HW189459   2.478   3.274  13.475 -1.0661  0.3882 -0.1998
57283SOL    HW289460   2.427   3.179  13.369 -1.3209  1.5565 -1.1489
57284SOL     OW89461   6.140  10.319   8.009 -0.4311 -0.3066  0.1174
57284SOL    HW189462   6.147  10.406   8.048  0.1733 -0.6960  0.9023
57284SOL    HW289463   6.083  10.270   8.068 -0.9712 -0.3868 -0.4500
57285SOL     OW89464   4.578  10.778   9.761  0.0875  0.3352  0.3957
57285SOL    HW189465   4.601  10.703   9.816 -0.8660  0.2201  0.6570
57285SOL    HW289466   4.624  10.852   9.801 -1.2951  0.4205  1.9114
57286SOL     OW89467   0.138   1.839   6.535  0.2413  0.4778  0.0413
57286SOL    HW189468   0.137   1.797   6.449 -1.0774  1.3311 -0.3938
57286SOL    HW289469   0.060   1.806   6.579 -0.5867  2.0915 -0.1502
57287SOL     OW89470   7.401   0.247  12.024  0.4163 -0.2642  0.2502
57287SOL    HW189471   7.332   0.210  11.969 -1.0185  0.5433  1.4277
57287SOL    HW289472   7.381   0.214  12.112  1.3354  0.2575  0.6592
57288SOL     OW89473   7.343   0.117   1.094 -0.7284 -0.0384  0.5145
57288SOL    HW189474   7.333   0.179   1.022 -0.6597 -0.5393  0.0717
57288SOL    HW289475   7.344   0.172   1.172  0.9011  0.6762  0.0358
57289SOL     OW89476   7.216   3.191   1.065  0.4512 -0.3817 -0.3316
57289SOL    HW189477   7.281   3.224   1.003 -1.1142  3.0032 -0.3519
57289SOL    HW289478   7.148   3.153   1.011 -0.1861  1.1770 -0.6632
57290SOL     OW89479   9.794   5.821  12.026  0.4337 -0.4808 -0.1555
57290SOL    HW189480   9.777   5.756  12.094 -1.0099  0.8057  0.7513
57290SOL    HW289481   9.805   5.904  12.073 -2.0329  0.7091 -1.5116
57291SOL     OW89482  13.001   0.032   6.913 -0.0299 -0.0521  0.6390
57291SOL    HW189483  12.990   0.068   7.001 -1.0126  0.9531  0.1335
57291SOL    HW289484  13.017   0.109   6.858 -0.9058 -0.5180 -0.2867
57292SOL     OW89485   0.875   7.574   8.324  0.0661  0.2732  0.0620
57292SOL    HW189486   0.864   7.549   8.416  0.9265 -0.4438 -0.0160
57292SOL    HW289487   0.796   7.624   8.303 -0.2966  0.1578  1.0924
57293SOL     OW89488   3.460   9.680  13.158  0.2238 -0.1760  0.4781
57293SOL    HW189489   3.456   9.759  13.104 -0.4147 -0.5247  0.0025
57293SOL    HW289490   3.395   9.621  13.120 -0.8196 -0.1453  2.0990
57294SOL     OW89491   4.258  12.499   6.189 -0.4406 -0.0684 -0.8117
57294SOL    HW189492   4.235  12.430   6.126  1.1742  0.0736 -1.5771
57294SOL    HW289493   4.308  12.453   6.257 -1.7828 -0.1363  0.1783
57295SOL     OW89494  10.192   3.969   5.651  0.0862  0.0177  0.1607
57295SOL    HW189495  10.244   4.046   5.628 -0.4933  0.3903  0.0950
57295SOL    HW289496  10.142   3.949   5.572 -0.3525  0.0497  0.4262
57296SOL     OW89497  10.101  12.453   4.610  0.5765 -0.4233  0.4023
57296SOL    HW189498  10.115  12.361   4.590  0.0619 -0.5393  0.5541
57296SOL    HW289499  10.180  12.497   4.579  0.8317 -0.9163  0.3495
57297SOL     OW89500  13.344  13.598   0.550 -0.2356 -0.6010 -0.0711
57297SOL    HW189501  13.291  13.631   0.478 -0.1490 -0.8157 -0.2359
57297SOL    HW289502  13.407  13.668   0.567 -1.3939  0.2103  1.0018
57298SOL     OW89503   4.164   0.183   3.645 -0.3111  0.4980 -0.3835
57298SOL    HW189504   4.164   0.107   3.586 -0.3230  0.2144 -0.0233
57298SOL    HW289505   4.137   0.256   3.590  2.0829  0.7413 -1.3710
57299SOL     OW89506   5.401  11.807  11.692 -0.4518  0.2626  0.3555
57299SOL    HW189507   5.371  11.722  11.661 -2.4752  0.7069  0.9440
57299SOL    HW289508   5.453  11.842  11.619 -2.1592 -0.1981 -1.1701
57300SOL     OW89509   4.560   0.923  11.679 -0.2011 -0.2418 -0.3058
57300SOL    HW189510   4.636   0.980  11.693  0.4772 -1.0316 -0.6266
57300SOL    HW289511   4.550   0.875  11.761 -1.2423  0.8580  0.2296
57301SOL     OW89512   3.336   0.158   2.331 -0.0209  0.1744 -0.6813
57301SOL    HW189513   3.298   0.180   2.417  1.0371 -0.9175  0.1081
57301SOL    HW289514   3.364   0.242   2.295  0.0518  0.6045  0.3221
57302SOL     OW89515   3.317   1.338  13.666  0.0656  0.5334 -0.4483
57302SOL    HW189516   3.302   1.247  13.690  1.5353  0.4315  0.1763
57302SOL    HW289517   3.398   1.336  13.615 -0.8504  1.2795 -2.0405
57303SOL     OW89518   1.955  12.191  13.962  0.2328  0.0359  0.0964
57303SOL    HW189519   1.936  12.098  13.973  1.6957 -0.4390 -0.9923
57303SOL    HW289520   2.027  12.209  14.022 -0.5964  0.6933  0.9194
57304SOL     OW89521  13.865   7.410   6.305  0.1929  0.1357  0.0771
57304SOL    HW189522  13.955   7.379   6.294  0.1546  0.2960 -0.7893
57304SOL    HW289523  13.811   7.334   6.283  0.1132  0.2256 -0.0431
57305SOL     OW89524   9.969  12.489  12.812  0.8317 -0.3715 -0.1701
57305SOL    HW189525   9.894  12.444  12.851  0.9334 -0.2972  0.1159
57305SOL    HW289526   9.937  12.577  12.793  1.1746  0.0283  1.0352
57306SOL     OW89527   6.301   8.505   4.036 -0.1572  0.1740 -0.0570
57306SOL    HW189528   6.236   8.512   3.966 -0.1647 -1.1825 -0.2203
57306SOL    HW289529   6.381   8.543   4.000  0.0196 -1.0785 -1.0735
57307SOL     OW89530   3.386  10.983  11.120  0.0782 -0.5643 -0.4486
57307SOL    HW189531   3.298  10.978  11.084 -0.4279 -0.6512  0.7586
57307SOL    HW289532   3.395  11.074  11.150  0.1703 -0.7107 -0.0249
57308SOL     OW89533  12.817   5.517   5.339  0.4121 -0.5402 -0.4658
57308SOL    HW189534  12.726   5.496   5.357 -0.4823  3.3387  0.6009
57308SOL    HW289535  12.815   5.562   5.255  1.2129  0.1271 -0.1438
57309SOL     OW89536   3.755   9.319  11.792  0.3210  0.4877  0.0350
57309SOL    HW189537   3.694   9.318  11.866 -0.0878  0.7938 -0.2887
57309SOL    HW289538   3.837   9.287  11.828  0.9843  3.4037  1.3678
57310SOL     OW89539   1.783   2.203  13.582 -0.0752  0.0838 -0.0124
57310SOL    HW189540   1.694   2.169  13.594  0.2747 -1.4480 -1.4235
57310SOL    HW289541   1.790   2.274  13.646 -1.6202 -1.0868  1.5525
57311SOL     OW89542   7.708   8.571   7.052  0.6019 -0.0073 -0.2791
57311SOL    HW189543   7.761   8.528   7.118  0.5363 -0.4538 -0.5126
57311SOL    HW289544   7.657   8.500   7.011  0.5561  0.2748 -0.7254
57312SOL     OW89545  10.201   9.006   2.442  0.2630 -0.0491 -0.2476
57312SOL    HW189546  10.279   8.973   2.486  1.0911  0.3492 -1.3693
57312SOL    HW289547  10.138   9.021   2.512  0.2880 -2.7445  0.4421
57313SOL     OW89548   1.825   8.066  11.751  0.5106 -0.1178 -0.1139
57313SOL    HW189549   1.764   8.136  11.773  0.8071  0.4653 -1.0844
57313SOL    HW289550   1.770   7.996  11.717  0.3424  0.3399 -0.8254
57314SOL     OW89551  10.749  11.849   7.162 -0.1024 -0.5029  0.2187
57314SOL    HW189552  10.688  11.898   7.107  1.1406 -1.1562 -1.8206
57314SOL    HW289553  10.705  11.765   7.177 -0.3092 -0.4420 -0.0362
57315SOL     OW89554   2.975   8.579  12.668  0.4252 -0.1273  0.1103
57315SOL    HW189555   2.908   8.549  12.607 -0.5026 -1.6640  1.7997
57315SOL    HW289556   2.933   8.651  12.716  0.6503  0.1391 -0.0890
57316SOL     OW89557  12.563  13.453  13.637  0.8749 -0.0345 -0.0562
57316SOL    HW189558  12.592  13.395  13.566  1.0110 -0.9157  0.7062
57316SOL    HW289559  12.545  13.394  13.710 -0.9984  0.6800  0.0942
57317SOL     OW89560   4.593   5.516   2.608 -0.0623 -0.1223  0.4745
57317SOL    HW189561   4.636   5.438   2.642 -1.3755 -0.2216  2.0336
57317SOL    HW289562   4.592   5.577   2.681  0.6363  1.2592 -0.6221
57318SOL     OW89563   6.886   3.013   5.329 -0.3439  0.7083  0.1556
57318SOL    HW189564   6.808   3.065   5.346  0.1352  1.2166  0.8243
57318SOL    HW289565   6.904   3.026   5.236  0.4938  2.7795  0.5463
57319SOL     OW89566  11.285  10.925   1.246  0.8926  0.1826 -0.3631
57319SOL    HW189567  11.292  10.878   1.329 -0.6341 -1.2041 -0.9547
57319SOL    HW289568  11.298  11.017   1.269  0.4201 -0.1602  1.4246
57320SOL     OW89569  13.388   9.185  13.866 -0.0255 -0.3793  0.3462
57320SOL    HW189570  13.353   9.157  13.782  0.0824 -1.1056  0.5360
57320SOL    HW289571  13.418   9.105  13.908  0.7934  0.0887  0.6813
57321SOL     OW89572   6.442   0.210   4.544 -0.5335  0.1677 -0.0235
57321SOL    HW189573   6.481   0.242   4.625 -0.2177 -2.0212  0.7729
57321SOL    HW289574   6.391   0.133   4.571 -0.2122 -0.7756 -1.9295
57322SOL     OW89575   5.255   9.804   4.918 -0.3570  0.6228  0.4049
57322SOL    HW189576   5.288   9.855   4.844  1.1998 -0.8269  0.0218
57322SOL    HW289577   5.208   9.731   4.877 -1.7325  1.1892  0.9223
57323SOL     OW89578   9.219   1.337  10.224  0.3681  0.6637  0.5000
57323SOL    HW189579   9.172   1.333  10.307 -1.4854 -0.0367 -0.5214
57323SOL    HW289580   9.297   1.390  10.242  0.2250  0.1797  2.7604
57324SOL     OW89581   4.325   5.060   3.617 -0.3842  0.0484 -0.2041
57324SOL    HW189582   4.302   5.077   3.708 -1.6804  0.5107 -0.6033
57324SOL    HW289583   4.293   5.136   3.569  0.9071  0.1407 -0.9752
57325SOL     OW89584  13.367  11.691   4.424 -0.2386  0.3921  0.9153
57325SOL    HW189585  13.387  11.764   4.482  0.7195  0.0205  1.0646
57325SOL    HW289586  13.306  11.727   4.360 -0.6887  1.0160  1.6774
57326SOL     OW89587  10.097   7.357   8.980  0.2004 -0.1323  0.3839
57326SOL    HW189588  10.056   7.305   8.911  1.0947 -1.3254  0.7064
57326SOL    HW289589  10.157   7.296   9.023  0.1514  0.7644  1.7939
57327SOL     OW89590   6.623   8.895   0.407 -0.1903  0.0372 -0.4529
57327SOL    HW189591   6.539   8.850   0.419  0.8206 -1.4591  1.5801
57327SOL    HW289592   6.625   8.962   0.476  0.3481 -0.0473 -0.3789
57328SOL     OW89593   0.478   3.315  12.060 -0.1267 -0.7173 -0.2790
57328SOL    HW189594   0.420   3.378  12.016  1.7101  0.8564 -0.5866
57328SOL    HW289595   0.420   3.243  12.086 -1.6504 -0.7949 -3.4524
57329SOL     OW89596   8.066  10.175  13.220  0.2193  0.1994  0.3079
57329SOL    HW189597   7.975  10.169  13.192 -0.3081 -0.6355  2.0459
57329SOL    HW289598   8.110  10.222  13.149 -1.3666 -0.1789 -0.9825
57330SOL     OW89599   0.086   3.002   2.718 -0.4639 -0.3476 -0.7214
57330SOL    HW189600   0.001   2.986   2.759 -0.5275 -2.6022 -1.6137
57330SOL    HW289601   0.064   3.043   2.634 -0.4864  1.3202  0.0479
57331SOL     OW89602   1.244   1.955   9.090 -0.2191 -0.3417  0.6087
57331SOL    HW189603   1.169   2.003   9.054 -1.6087 -2.1871  0.9379
57331SOL    HW289604   1.266   2.003   9.170 -1.8358 -0.4168  1.1477
57332SOL     OW89605   2.845   3.310   9.113 -0.0894 -0.4024 -0.4145
57332SOL    HW189606   2.752   3.328   9.126  0.3064  0.0511  2.5278
57332SOL    HW289607   2.850   3.215   9.106 -0.6922 -0.5640  0.9371
57333SOL     OW89608   1.744   1.444  12.266  0.5930 -0.2514  0.1231
57333SOL    HW189609   1.732   1.512  12.333 -2.0946 -0.4765  0.0085
57333SOL    HW289610   1.752   1.363  12.315 -0.0270 -0.2603  0.2220
57334SOL     OW89611  13.786  10.820  10.103  0.4290 -0.0160 -0.0532
57334SOL    HW189612  13.753  10.732  10.118  2.3851 -1.0873 -1.4996
57334SOL    HW289613  13.727  10.857  10.037 -0.9724  0.1697  1.2549
57335SOL     OW89614   1.763   1.815  11.551 -0.2518  0.2458  0.0959
57335SOL    HW189615   1.788   1.750  11.617 -1.2920 -1.7504 -1.3545
57335SOL    HW289616   1.834   1.813  11.487  0.0556  1.1122  0.3922
57336SOL     OW89617   4.486   9.345   1.708 -0.4108  0.5941 -0.7153
57336SOL    HW189618   4.581   9.334   1.713 -0.5253 -0.2244 -0.1863
57336SOL    HW289619   4.473   9.415   1.643  0.4754 -1.1986 -2.9844
57337SOL     OW89620  11.515   0.142   0.879  0.3869 -0.0665  0.5297
57337SOL    HW189621  11.450   0.154   0.809  1.0551  1.2267  0.1041
57337SOL    HW289622  11.508   0.049   0.901 -1.0735 -0.1270 -0.0244
57338SOL     OW89623  12.600   3.085   0.537 -0.3055  0.0929 -0.2666
57338SOL    HW189624  12.604   3.004   0.587 -0.2005  0.9656  1.2077
57338SOL    HW289625  12.689   3.120   0.542 -0.2624  0.1310 -1.1950
57339SOL     OW89626   2.602   2.735  10.330  0.1319  0.0429 -0.0639
57339SOL    HW189627   2.533   2.745  10.395  1.3253  2.2975  0.9603
57339SOL    HW289628   2.675   2.694  10.378  0.1523 -0.6277 -0.6546
57340SOL     OW89629   7.311  11.712  12.691  0.3056 -0.1401  0.0580
57340SOL    HW189630   7.313  11.791  12.638  0.3736 -0.5904 -0.6255
57340SOL    HW289631   7.314  11.640  12.628  0.7784 -0.6906  0.6871
57341SOL     OW89632   4.237  12.027   5.262 -0.1374 -0.1084  0.3012
57341SOL    HW189633   4.236  12.005   5.169 -0.4546 -1.1813  0.5403
57341SOL    HW289634   4.278  12.113   5.266 -0.6404  0.2141 -0.8793
57342SOL     OW89635  13.917   5.633  13.620  0.7783  0.0999  0.2956
57342SOL    HW189636  13.871   5.647  13.703  0.3875  0.8571 -0.0478
57342SOL    HW289637  13.994   5.581  13.645 -0.2834 -1.2723  0.8614
57343SOL     OW89638   3.159   7.712   8.981 -0.4131 -0.2741 -0.6395
57343SOL    HW189639   3.152   7.666   9.065  2.4744 -1.2471 -0.8132
57343SOL    HW289640   3.252   7.736   8.975 -1.3142  3.7390 -1.5722
57344SOL     OW89641   8.445   9.219  13.242 -0.6298  0.5649 -0.1316
57344SOL    HW189642   8.457   9.140  13.295  1.8582  0.6010 -0.4879
57344SOL    HW289643   8.436   9.186  13.152 -0.8644  0.6335 -0.1327
57345SOL     OW89644   7.809  11.594  13.200 -0.0451  0.3248 -0.5312
57345SOL    HW189645   7.720  11.571  13.171 -0.4242 -0.6646  1.2582
57345SOL    HW289646   7.796  11.649  13.277  0.9355  2.3036 -1.6840
57346SOL     OW89647  11.003   8.984   2.088  0.0411  0.3241  0.8197
57346SOL    HW189648  10.957   8.907   2.055 -0.5764  0.3545  1.5915
57346SOL    HW289649  11.003   8.974   2.183 -1.3857  1.9843  1.0520
57347SOL     OW89650   5.738   0.873   4.303 -0.4029  0.1921 -0.4842
57347SOL    HW189651   5.672   0.941   4.317  0.0186  0.0484  2.8972
57347SOL    HW289652   5.701   0.795   4.344  0.4958 -0.8108 -1.5049
57348SOL     OW89653   0.931  13.853   3.105  0.5937 -0.1174  0.1505
57348SOL    HW189654   0.938  13.876   3.013  0.5117  1.7983  0.5899
57348SOL    HW289655   1.015  13.812   3.127  1.6823  1.8552 -0.1526
57349SOL     OW89656   3.313   4.967  13.694 -0.3215 -0.5028  0.3318
57349SOL    HW189657   3.281   4.904  13.759  0.8090 -1.1880  0.2391
57349SOL    HW289658   3.402   4.940  13.676  0.1556  1.0538  0.1827
57350SOL     OW89659  12.198   3.093  10.161 -0.3251  0.4664 -0.3757
57350SOL    HW189660  12.106   3.108  10.137 -0.5403 -1.1729 -0.6529
57350SOL    HW289661  12.197   3.091  10.256 -1.0463 -1.9987 -0.3765
57351SOL     OW89662   3.829   1.901  11.284 -0.7619  0.0166 -0.5856
57351SOL    HW189663   3.785   1.926  11.202 -0.5201  0.9359 -0.4502
57351SOL    HW289664   3.824   1.980  11.338  0.5288 -0.0443 -0.3412
57352SOL     OW89665   2.337   0.459   5.362 -0.2622 -0.2664 -0.1217
57352SOL    HW189666   2.368   0.534   5.311 -1.0842 -0.2150 -0.5620
57352SOL    HW289667   2.243   0.455   5.344 -0.0785 -1.9919 -0.8921
57353SOL     OW89668   5.355  11.790   5.789 -0.4956  0.1714 -0.0615
57353SOL    HW189669   5.311  11.755   5.712 -0.4754 -0.7528  0.3306
57353SOL    HW289670   5.408  11.717   5.822 -1.6980  0.0142  1.7060
57354SOL     OW89671   0.033   3.847   3.187 -0.2040 -0.2481 -0.3324
57354SOL    HW189672   0.114   3.805   3.215  0.4319  1.8889  1.3207
57354SOL    HW289673   0.047   3.868   3.095  0.8639 -0.4705 -0.2302
57355SOL     OW89674  11.703   3.446   5.509 -0.0759 -0.6079 -0.3824
57355SOL    HW189675  11.781   3.472   5.460 -0.7502  2.5865  0.0062
57355SOL    HW289676  11.737   3.399   5.585  1.5522  1.0095 -0.0394
57356SOL     OW89677  13.286   6.962   5.067  0.3907 -0.1929  1.2489
57356SOL    HW189678  13.212   6.910   5.037  0.9400 -1.7187  2.3755
57356SOL    HW289679  13.358   6.938   5.009  0.3121  0.3396  0.9306
57357SOL     OW89680   0.874  13.881   5.183  0.3111  0.2841  0.4789
57357SOL    HW189681   0.908  13.911   5.098  0.6906 -1.9910 -0.2456
57357SOL    HW289682   0.921  13.934   5.247  1.4979  0.7198 -0.6825
57358SOL     OW89683   7.124   8.748   5.616  0.4927 -0.3914 -0.0616
57358SOL    HW189684   7.069   8.711   5.685  0.3997 -3.3930 -1.5474
57358SOL    HW289685   7.077   8.825   5.586 -1.6521 -1.4280  0.4228
57359SOL     OW89686   0.370   9.044   0.516 -0.2390 -0.1284 -0.5730
57359SOL    HW189687   0.377   9.140   0.511  1.8874 -0.2853 -1.6993
57359SOL    HW289688   0.341   9.027   0.606  0.1424  1.5510 -0.0889
57360SOL     OW89689   1.381   4.444  10.880  0.5209 -0.1155 -0.2492
57360SOL    HW189690   1.421   4.364  10.847  1.0557 -0.5872  1.4512
57360SOL    HW289691   1.453   4.492  10.921  0.3832  1.6457 -1.8872
57361SOL     OW89692   8.091   9.193  13.134 -0.2492 -0.0338  0.2861
57361SOL    HW189693   8.151   9.234  13.196  0.0088  0.4056 -0.2376
57361SOL    HW289694   8.105   9.099  13.145  0.8936  0.0668 -0.1524
57362SOL     OW89695   5.448   8.640   0.791 -0.1345  0.2549  0.2783
57362SOL    HW189696   5.373   8.613   0.738  0.4228 -0.7425 -0.0229
57362SOL    HW289697   5.507   8.682   0.728  0.1523 -0.1788  0.2511
57363SOL     OW89698  13.057   9.899   5.967 -0.2031 -0.2279  0.2411
57363SOL    HW189699  13.070   9.908   6.061 -1.8380  1.0477  0.4063
57363SOL    HW289700  12.970   9.860   5.958 -0.7904  1.2035 -0.7156
57364SOL     OW89701  11.256   6.242  10.090 -0.0176  0.2674 -0.2691
57364SOL    HW189702  11.310   6.274  10.162  0.3753  1.0378 -0.8963
57364SOL    HW289703  11.172   6.288  10.100 -0.6077 -0.9568  0.7269
57365SOL     OW89704  12.467  13.158   1.866  0.1602 -0.0698  0.3198
57365SOL    HW189705  12.532  13.162   1.796  0.7161 -1.0271  0.7546
57365SOL    HW289706  12.394  13.108   1.829  0.7187 -1.1253  0.6029
57366SOL     OW89707   0.173   8.966   2.687 -0.2240  0.0917 -0.4990
57366SOL    HW189708   0.187   8.975   2.593 -1.1006  0.5413 -0.5987
57366SOL    HW289709   0.168   8.872   2.702  0.5589 -0.0023 -0.7966
57367SOL     OW89710   0.753   5.635   8.263 -0.1807  0.2718  0.6123
57367SOL    HW189711   0.742   5.596   8.177  1.8021 -1.0656  0.8821
57367SOL    HW289712   0.784   5.724   8.246  1.3438 -0.3621 -0.1007
57368SOL     OW89713   3.918   4.625   3.462  0.4856  0.0989 -0.4634
57368SOL    HW189714   3.980   4.686   3.423  0.2273 -0.3628 -1.6439
57368SOL    HW289715   3.922   4.643   3.556  1.5881  0.8168 -0.6323
57369SOL     OW89716  12.171   4.356  12.063 -0.6864  0.5739 -0.4528
57369SOL    HW189717  12.120   4.429  12.030 -1.4611  0.3417  0.1943
57369SOL    HW289718  12.233   4.335  11.993 -0.7927  1.5195 -0.8309
57370SOL     OW89719  11.979   9.861  13.847  0.2016 -0.2039  0.0304
57370SOL    HW189720  12.008   9.935  13.794 -0.6150 -0.2218 -0.4498
57370SOL    HW289721  11.915   9.816  13.793 -1.0352  0.0599  1.2249
57371SOL     OW89722  10.984   5.570   7.400  0.6604 -0.1011 -0.4329
57371SOL    HW189723  11.000   5.494   7.344 -0.4379 -0.9172  0.3413
57371SOL    HW289724  11.070   5.590   7.439  0.6710 -1.8845  0.5313
57372SOL     OW89725  12.180   7.151   9.473  0.1795 -0.4772 -0.2365
57372SOL    HW189726  12.160   7.113   9.387  2.1586 -1.0553 -0.4939
57372SOL    HW289727  12.095   7.181   9.506 -1.2531 -3.4508 -0.8136
57373SOL     OW89728   0.049   7.407  13.920 -0.4731  0.0502  0.3235
57373SOL    HW189729   0.025   7.314  13.916 -0.1538 -0.0910  1.4488
57373SOL    HW289730   0.138   7.410  13.884 -0.5988 -0.0242 -0.0014
57374SOL     OW89731   3.284   4.761   1.255  0.4778 -0.3679 -0.2670
57374SOL    HW189732   3.300   4.739   1.164 -1.3363  0.1325 -0.7537
57374SOL    HW289733   3.341   4.703   1.305  0.9437 -1.1681 -1.6963
57375SOL     OW89734  10.138   3.491   2.846 -0.1602  0.0572 -0.1149
57375SOL    HW189735  10.207   3.538   2.893  1.9304 -2.8037 -0.0807
57375SOL    HW289736  10.057   3.523   2.885  1.2285  1.7807  1.5832
57376SOL     OW89737  10.664   8.865  13.793 -0.1958  0.4681  0.2379
57376SOL    HW189738  10.685   8.776  13.766 -0.5650  1.2527 -3.0320
57376SOL    HW289739  10.734   8.919  13.756 -0.4839  1.6836  1.3526
57377SOL     OW89740  10.042  12.830  11.048 -0.5112  0.3279 -0.5899
57377SOL    HW189741   9.949  12.842  11.030 -0.4107 -1.0478 -2.3102
57377SOL    HW289742  10.048  12.746  11.092  0.1677 -2.1830 -4.8361
57378SOL     OW89743  13.942  10.186  11.112  0.1390  0.1034 -0.7178
57378SOL    HW189744  13.885  10.108  11.115 -1.3988  1.1650  2.8354
57378SOL    HW289745  14.030  10.151  11.119 -0.5812 -1.5319  3.7468
57379SOL     OW89746  13.408   7.270   7.680  0.4701  0.3533 -0.0250
57379SOL    HW189747  13.432   7.337   7.744 -1.2876  0.6971  0.3443
57379SOL    HW289748  13.395   7.191   7.732 -1.6532  0.7982  0.2297
57380SOL     OW89749   1.587  11.191   5.078 -0.3630  0.3280  0.3219
57380SOL    HW189750   1.506  11.156   5.115 -0.4139  0.0075 -0.0895
57380SOL    HW289751   1.643  11.206   5.154 -0.4443 -0.3914  0.5267
57381SOL     OW89752   3.365   7.859   7.788  0.3595  0.2088  0.2760
57381SOL    HW189753   3.431   7.835   7.723  0.5960  0.5584  0.3830
57381SOL    HW289754   3.400   7.825   7.871  0.4294  0.4272  0.3385
57382SOL     OW89755  11.222   8.217  10.525  0.2128  0.1826  0.2045
57382SOL    HW189756  11.303   8.221  10.577  1.9290 -0.7705 -2.2467
57382SOL    HW289757  11.200   8.124  10.521 -2.0353  0.5099  2.1397
57383SOL     OW89758   9.160   7.968   1.283 -0.1170 -0.4256 -0.7552
57383SOL    HW189759   9.148   7.940   1.374  1.3414 -0.1172 -0.4510
57383SOL    HW289760   9.171   8.063   1.288 -2.3604 -0.0500 -1.5239
57384SOL     OW89761   2.760   4.104  13.649 -0.4581  0.1649 -0.2681
57384SOL    HW189762   2.687   4.045  13.630 -1.2324  0.0330  2.6040
57384SOL    HW289763   2.821   4.050  13.701  0.4143  0.9859 -0.4183
57385SOL     OW89764   0.127  12.907   8.204  0.2927  0.4392  0.1049
57385SOL    HW189765   0.050  12.906   8.147 -0.5818 -0.6552  1.2331
57385SOL    HW289766   0.091  12.894   8.292  1.4837  3.2202  1.1057
57386SOL     OW89767  11.962  14.069  10.754 -0.1263 -0.2835  0.1314
57386SOL    HW189768  11.882  14.080  10.703  0.3189 -1.6247 -0.8941
57386SOL    HW289769  11.932  14.066  10.845 -1.2413 -0.8546 -0.2383
57387SOL     OW89770  12.741  11.583   1.357  0.0950  0.3282 -0.0675
57387SOL    HW189771  12.655  11.550   1.329 -0.1367  1.5213 -0.8170
57387SOL    HW289772  12.725  11.674   1.380  0.3712 -0.3784  3.5506
57388SOL     OW89773   4.953   0.506   6.125  0.0115 -0.0643  0.5057
57388SOL    HW189774   4.997   0.437   6.076 -0.9362  0.1241 -0.6595
57388SOL    HW289775   4.860   0.481   6.123 -0.3084  1.1027  0.2940
57389SOL     OW89776   0.958   2.359   8.731 -0.3066  0.1723 -0.0269
57389SOL    HW189777   0.990   2.444   8.762  0.8326 -0.1033 -0.3900
57389SOL    HW289778   0.866   2.374   8.710 -0.2193  1.2178  0.2804
57390SOL     OW89779  13.562  11.501   9.133 -0.7192 -0.2740 -0.4470
57390SOL    HW189780  13.549  11.453   9.215  0.2478 -0.1927 -0.2330
57390SOL    HW289781  13.618  11.444   9.081  0.4950  0.6398 -0.1646
57391SOL     OW89782   3.069  13.210   3.751  0.5122 -0.3058  0.0345
57391SOL    HW189783   3.132  13.279   3.773  1.9268 -1.0087 -1.5444
57391SOL    HW289784   2.987  13.239   3.790  1.6748  0.9281  1.7049
57392SOL     OW89785   4.510   5.372   3.670 -0.9233 -0.0161 -0.1263
57392SOL    HW189786   4.441   5.349   3.607 -0.4290 -0.4022 -0.5402
57392SOL    HW289787   4.467   5.368   3.755 -1.2290 -1.0521 -0.3107
57393SOL     OW89788   0.227   6.405  10.950  0.0281  0.1129  0.1152
57393SOL    HW189789   0.266   6.332  10.901 -2.7346 -0.6555 -1.1591
57393SOL    HW289790   0.161   6.441  10.891 -0.7226  1.7584  1.8523
57394SOL     OW89791  13.657   9.317   5.373 -0.1997  0.4405  0.5216
57394SOL    HW189792  13.668   9.253   5.303 -0.5745  0.5161  0.3925
57394SOL    HW289793  13.715   9.286   5.443  0.8353  0.8341 -0.1432
57395SOL     OW89794   7.165   6.120  13.751 -0.0994 -0.4945 -0.0663
57395SOL    HW189795   7.173   6.213  13.772  0.8933 -0.2125 -1.5719
57395SOL    HW289796   7.196   6.075  13.830 -1.8271  0.3863  1.1831
57396SOL     OW89797   2.876   6.853   7.155 -0.2238  0.2434 -0.8646
57396SOL    HW189798   2.802   6.851   7.216  0.1370  0.3343 -0.4200
57396SOL    HW289799   2.838   6.827   7.071 -0.3373 -1.8998 -0.2060
57397SOL     OW89800   7.917  12.849   5.746  0.0444 -0.3411 -0.1152
57397SOL    HW189801   7.843  12.881   5.695  0.5322  0.8715 -0.0961
57397SOL    HW289802   7.990  12.849   5.684  0.3606 -0.0439  0.2493
57398SOL     OW89803  12.061   0.398   3.271  0.3590 -0.3505 -0.2698
57398SOL    HW189804  12.092   0.462   3.207  0.2740 -1.6450 -1.6759
57398SOL    HW289805  11.970   0.424   3.288  0.4226  0.0879 -0.5710
57399SOL     OW89806   1.300   6.328   4.585  0.1750 -0.0896 -0.0518
57399SOL    HW189807   1.297   6.239   4.621  0.7879  0.8742  2.6228
57399SOL    HW289808   1.224   6.372   4.622 -0.9151  0.2386 -2.4381
57400SOL     OW89809   2.090  13.173   3.629  0.7443  0.2945  0.0201
57400SOL    HW189810   2.184  13.162   3.623  0.6387 -0.2602 -0.7282
57400SOL    HW289811   2.076  13.218   3.713  1.7270  1.1944 -0.2802
57401SOL     OW89812   5.398   7.973  10.703 -0.3174 -0.2837 -0.2246
57401SOL    HW189813   5.328   7.909  10.711  0.7002 -1.5236 -0.8323
57401SOL    HW289814   5.410   7.984  10.609 -0.4825  0.8251 -0.1283
57402SOL     OW89815   0.419   4.833  11.217  0.0649  0.3074 -0.1617
57402SOL    HW189816   0.442   4.822  11.309 -0.1575  0.7381 -0.0522
57402SOL    HW289817   0.344   4.775  11.204  0.8536 -0.6973 -0.3881
57403SOL     OW89818   3.760   6.656  13.294  0.5190  0.1744  0.5714
57403SOL    HW189819   3.696   6.695  13.354  0.8742  1.3542  0.2213
57403SOL    HW289820   3.799   6.731  13.249 -0.1653 -0.6697 -1.6022
57404SOL     OW89821   3.505   3.697   9.024 -0.0469 -0.0679  0.1447
57404SOL    HW189822   3.582   3.650   8.992 -0.3276 -0.1658 -0.3839
57404SOL    HW289823   3.445   3.628   9.052 -0.2041 -0.0048 -0.0417
57405SOL     OW89824   3.171   0.545   3.570 -0.3331 -0.2910 -0.6180
57405SOL    HW189825   3.251   0.596   3.581  0.3299 -0.8266 -2.5125
57405SOL    HW289826   3.200   0.454   3.576 -0.7486 -0.4923 -1.4735
57406SOL     OW89827   8.840   2.017   0.077 -0.8656  0.2497 -0.2246
57406SOL    HW189828   8.869   2.024  -0.014  1.4632  0.5124  0.4654
57406SOL    HW289829   8.801   1.930   0.083  1.3035 -0.8461 -0.9193
57407SOL     OW89830  12.568  12.194   4.817  0.1227  0.2406  0.0276
57407SOL    HW189831  12.585  12.100   4.817  0.7847  0.3526  0.2282
57407SOL    HW289832  12.548  12.215   4.726  1.9954  0.2335 -0.4223
57408SOL     OW89833   6.875   5.957   0.361 -0.3809  0.4043  1.0619
57408SOL    HW189834   6.849   5.870   0.330 -1.3577  1.1386 -0.2648
57408SOL    HW289835   6.965   5.945   0.391 -0.1006 -0.8409 -0.1440
57409SOL     OW89836   6.855   9.760   1.463 -0.1693 -0.2488  0.1038
57409SOL    HW189837   6.822   9.715   1.384  1.1556 -1.9045  0.4310
57409SOL    HW289838   6.818   9.710   1.536  2.0914 -1.5270  0.4778
57410SOL     OW89839   7.795   4.090   7.774  0.0584  0.7095  0.3757
57410SOL    HW189840   7.765   4.101   7.865  0.9527  0.5553  0.7092
57410SOL    HW289841   7.730   4.033   7.734 -0.3061  0.7068  0.9531
57411SOL     OW89842   0.953  12.456   0.168  0.0789  0.4218  0.0591
57411SOL    HW189843   1.041  12.449   0.131 -0.6656  1.3092 -2.0587
57411SOL    HW289844   0.953  12.396   0.243  1.6142 -1.8522 -1.6256
57412SOL     OW89845   1.350   8.758   3.177 -0.1088  0.1756 -0.5357
57412SOL    HW189846   1.351   8.670   3.215  1.0593  0.2929 -0.2586
57412SOL    HW289847   1.436   8.767   3.135 -0.5829  0.8314 -1.3857
57413SOL     OW89848  12.956   3.243   7.040 -0.1548 -0.3457  0.0995
57413SOL    HW189849  12.947   3.314   6.976  0.9000 -2.0026 -1.9978
57413SOL    HW289850  13.041   3.204   7.020 -1.0737 -2.7237  0.6230
57414SOL     OW89851   4.797   2.844   9.164 -0.2386 -0.4804 -0.1484
57414SOL    HW189852   4.835   2.931   9.167  0.7054 -0.7985 -1.7224
57414SOL    HW289853   4.861   2.788   9.206 -0.1027 -0.6390 -0.5572
57415SOL     OW89854   1.185  10.262   1.383 -0.2389  0.1330 -0.1883
57415SOL    HW189855   1.246  10.236   1.451 -1.2775  0.0534  0.7437
57415SOL    HW289856   1.125  10.188   1.373 -0.6967  0.5267 -0.4704
57416SOL     OW89857   0.630  13.880  11.040  0.0147  0.1856 -0.2210
57416SOL    HW189858   0.586  13.812  10.989 -0.8368  0.5929 -0.0407
57416SOL    HW289859   0.712  13.840  11.067 -0.2963 -0.6314 -0.4569
57417SOL     OW89860   1.174   2.475   4.999 -0.1819  0.1117  0.4688
57417SOL    HW189861   1.115   2.445   5.068  0.5583  1.0791  1.5635
57417SOL    HW289862   1.261   2.474   5.039  0.7375 -2.0512 -1.3437
57418SOL     OW89863  13.216   6.407   8.212 -0.0750 -0.3419 -0.0076
57418SOL    HW189864  13.253   6.334   8.262  0.5836  0.4234  0.6567
57418SOL    HW289865  13.154   6.448   8.271  1.6648  1.3613  0.7141
57419SOL     OW89866   2.908   9.021  12.936  0.7539 -0.4242  0.0667
57419SOL    HW189867   2.864   9.082  12.876  0.0441  0.2445  1.2129
57419SOL    HW289868   2.883   8.934  12.904  0.9532 -0.1050 -1.0004
57420SOL     OW89869   1.239   2.578   1.028 -0.2635 -0.1619  0.2641
57420SOL    HW189870   1.200   2.599   1.113 -1.5700 -0.4308 -0.2419
57420SOL    HW289871   1.286   2.658   1.004  0.5005 -0.2364  1.4253
57421SOL     OW89872  11.468   1.736   2.738  0.5421  0.6919  0.8635
57421SOL    HW189873  11.548   1.788   2.729  0.7955  0.1738 -0.1042
57421SOL    HW289874  11.397   1.797   2.721  0.8462  0.6955 -0.5425
57422SOL     OW89875  13.044   2.171   5.764  0.2636  0.2983 -0.6898
57422SOL    HW189876  13.125   2.162   5.815  0.0819  0.4653 -0.3690
57422SOL    HW289877  13.074   2.178   5.674  0.5118 -2.1080 -0.8664
57423SOL     OW89878  13.601   0.781  11.998 -0.0495  0.0026  0.1321
57423SOL    HW189879  13.611   0.719  12.070 -0.4616 -0.1168  0.0858
57423SOL    HW289880  13.532   0.840  12.026  1.4120  1.4569  0.8885
57424SOL     OW89881   2.179  11.525  10.556 -0.3892 -0.5614  0.2684
57424SOL    HW189882   2.137  11.468  10.621  0.8108 -1.2892  0.4304
57424SOL    HW289883   2.145  11.494  10.472 -3.8018  1.8914  0.5387
57425SOL     OW89884   8.944   8.292   0.803 -0.0652  0.0577 -0.2045
57425SOL    HW189885   8.853   8.289   0.833 -0.0592  0.9735 -0.0566
57425SOL    HW289886   8.951   8.221   0.740 -0.9857  0.2021 -0.4847
57426SOL     OW89887   1.254   1.460   2.704  0.2826  0.1500 -0.2857
57426SOL    HW189888   1.325   1.517   2.734  1.2883 -1.3979  0.4064
57426SOL    HW289889   1.179   1.486   2.757  0.7474  0.7458  0.0959
57427SOL     OW89890  12.401  13.008  11.151 -0.1352  0.2390 -0.1231
57427SOL    HW189891  12.389  13.103  11.160 -0.1306  0.1155  1.2534
57427SOL    HW289892  12.330  12.981  11.093 -0.6735  0.9554  0.1875
57428SOL     OW89893  10.632  11.757   2.493 -0.1664 -0.4135  0.0349
57428SOL    HW189894  10.664  11.754   2.403  1.5411 -0.2623  0.6125
57428SOL    HW289895  10.582  11.839   2.497  1.7544  0.8215 -0.1568
57429SOL     OW89896   3.906  10.149   9.061 -0.3811  0.0798  0.6386
57429SOL    HW189897   3.980  10.175   9.006 -1.2169  2.0756  0.3712
57429SOL    HW289898   3.913  10.203   9.139 -0.9791 -0.4789  1.0920
57430SOL     OW89899   6.859   6.091  12.442  0.6623  0.0376 -0.7114
57430SOL    HW189900   6.905   6.041  12.510 -0.3813 -0.9500 -0.7005
57430SOL    HW289901   6.783   6.128  12.487 -0.8566 -1.8451 -1.6030
57431SOL     OW89902   7.093   5.203   2.526 -0.5858  0.8813  0.7083
57431SOL    HW189903   7.127   5.222   2.613  0.1196  0.6269  0.4980
57431SOL    HW289904   7.116   5.111   2.511  1.0053  1.4374 -0.5016
57432SOL     OW89905   4.019   3.544   4.015  0.3269 -0.6903 -0.1723
57432SOL    HW189906   3.944   3.582   3.970 -1.5839 -3.0325  0.7743
57432SOL    HW289907   4.044   3.610   4.079 -0.8210  0.2250 -0.6147
57433SOL     OW89908  12.093   8.949  11.941 -0.1755 -0.4407  0.0293
57433SOL    HW189909  12.078   8.958  12.035 -0.8780 -1.1603 -0.0056
57433SOL    HW289910  12.173   8.999  11.925  0.9908 -1.8232  1.3214
57434SOL     OW89911  10.714  10.742   7.971  0.2530  0.2139  0.2063
57434SOL    HW189912  10.700  10.825   8.017 -0.3628 -0.0109  0.4220
57434SOL    HW289913  10.626  10.708   7.954  0.4975 -1.2463  1.6501
57435SOL     OW89914   4.363   2.674   7.669 -0.2264  0.8496 -0.2062
57435SOL    HW189915   4.370   2.597   7.725  0.7567  2.3506  1.8940
57435SOL    HW289916   4.346   2.639   7.582 -0.1329 -1.6981  0.7046
57436SOL     OW89917   3.196   8.215   8.495 -0.0233  0.0458 -0.4096
57436SOL    HW189918   3.284   8.185   8.475 -0.0340 -0.0899 -0.2553
57436SOL    HW289919   3.139   8.162   8.440  0.1185  1.7170 -2.2814
57437SOL     OW89920  12.554   0.001   4.335 -0.1006  0.3469 -0.6369
57437SOL    HW189921  12.640   0.033   4.362 -0.2733  0.6397 -0.4295
57437SOL    HW289922  12.568  -0.033   4.246 -0.2213  2.3561 -1.4694
57438SOL     OW89923   2.801   3.849   3.017 -0.3177 -0.0286 -0.4229
57438SOL    HW189924   2.790   3.784   2.947 -1.4766 -1.3613  0.9262
57438SOL    HW289925   2.746   3.922   2.990  0.5966  0.2077 -1.7192
57439SOL     OW89926   2.217   0.628   1.272  0.5722  0.5656 -0.2417
57439SOL    HW189927   2.155   0.622   1.345  1.3823 -0.2505  0.3989
57439SOL    HW289928   2.280   0.695   1.300  1.2530 -0.2014  0.1193
57440SOL     OW89929   7.978   2.847   3.128 -0.4082  0.4423 -0.4624
57440SOL    HW189930   7.926   2.767   3.116 -1.7081  1.1279  0.2855
57440SOL    HW289931   8.069   2.819   3.118 -0.8111 -1.2239  0.2155
57441SOL     OW89932   4.896  11.218   1.843  0.6522 -0.7634 -0.4224
57441SOL    HW189933   4.807  11.188   1.823  0.2703 -0.6838  1.0899
57441SOL    HW289934   4.950  11.140   1.833  0.2640 -1.0401 -0.3886
57442SOL     OW89935   8.798   1.441   2.760  0.6500  0.0812 -0.3469
57442SOL    HW189936   8.802   1.347   2.742 -0.0071 -0.0374  0.0819
57442SOL    HW289937   8.878   1.459   2.811 -0.3809 -0.7412  1.6765
57443SOL     OW89938   7.064   4.106   3.008  0.2267 -0.1497 -0.2150
57443SOL    HW189939   7.046   4.012   3.014  1.6312 -0.5251 -1.3183
57443SOL    HW289940   7.084   4.121   2.916  1.2610  0.9782  0.1533
57444SOL     OW89941   0.647   0.314  10.455  0.0354  0.4054 -0.0936
57444SOL    HW189942   0.695   0.373  10.512  2.1419 -2.9853  1.9803
57444SOL    HW289943   0.702   0.307  10.376  1.4157 -1.0179  0.9417
57445SOL     OW89944   7.939   5.155  11.169 -0.0749  0.3422 -0.0577
57445SOL    HW189945   8.003   5.225  11.182 -0.2104  0.8998 -2.1270
57445SOL    HW289946   7.865   5.197  11.125 -0.8122 -0.7965  0.0384
57446SOL     OW89947   3.015  12.935   3.188  0.0130 -0.0538 -0.3703
57446SOL    HW189948   3.013  13.029   3.172 -3.3326  0.0655  0.1068
57446SOL    HW289949   3.035  12.896   3.102 -0.0813  1.0401 -0.9017
57447SOL     OW89950   9.069   9.551   5.992  0.0324  0.1887 -0.6985
57447SOL    HW189951   9.020   9.506   5.923 -1.9771 -0.2231  0.9220
57447SOL    HW289952   9.055   9.498   6.070  1.7418  0.9902  0.2152
57448SOL     OW89953  10.425   1.115   6.106  0.5327 -0.5652  0.3811
57448SOL    HW189954  10.495   1.061   6.141 -0.1984 -2.0175 -0.2894
57448SOL    HW289955  10.469   1.192   6.069  1.7945 -1.5500 -0.2393
57449SOL     OW89956  11.824   2.227   1.476 -0.2980 -0.1560  0.1300
57449SOL    HW189957  11.752   2.285   1.501  0.8913  0.7876  1.4971
57449SOL    HW289958  11.845   2.178   1.555  0.6332 -0.3528 -0.2196
57450SOL     OW89959  10.869   8.656   4.293  0.5215  0.7264  0.5897
57450SOL    HW189960  10.844   8.735   4.245 -1.0429  0.1493  0.3799
57450SOL    HW289961  10.883   8.590   4.224  0.1598  0.3997  0.8228
57451SOL     OW89962  13.081   1.200  11.723 -0.0487 -0.7771  0.6871
57451SOL    HW189963  13.126   1.117  11.710 -1.1346 -1.6781  2.2421
57451SOL    HW289964  12.988   1.176  11.724 -0.3938  0.5138  0.7781
57452SOL     OW89965   0.999  10.679   5.693 -0.8726  0.5683 -0.1040
57452SOL    HW189966   0.938  10.650   5.761  0.0481 -1.2064  0.0146
57452SOL    HW289967   1.082  10.690   5.739  0.1288 -2.0787 -1.1224
57453SOL     OW89968   6.599   2.938   4.442 -0.0843 -0.0536 -0.5496
57453SOL    HW189969   6.536   2.874   4.407  0.7630 -1.0993 -0.2047
57453SOL    HW289970   6.674   2.885   4.469  0.2470  0.9907  0.6543
57454SOL     OW89971   5.788   3.970  12.275  0.1191 -0.4689 -0.8008
57454SOL    HW189972   5.804   4.042  12.215  1.5552 -2.4736 -3.0205
57454SOL    HW289973   5.699   3.941  12.256 -0.3225  0.4344 -0.1680
57455SOL     OW89974   8.704   5.460   4.929 -0.1793 -0.0547  0.7641
57455SOL    HW189975   8.625   5.465   4.875  0.2694  1.1274  0.1873
57455SOL    HW289976   8.694   5.378   4.977 -0.8321 -0.9127 -0.7531
57456SOL     OW89977  12.598  12.114   0.429  0.0377 -0.1187 -0.3808
57456SOL    HW189978  12.514  12.076   0.454  0.3824  0.0333  1.1275
57456SOL    HW289979  12.648  12.041   0.393 -0.4653 -0.3662 -0.5864
57457SOL     OW89980   0.623   4.772   8.914  0.2476 -0.4278 -0.2028
57457SOL    HW189981   0.660   4.801   8.831 -0.2564 -1.5066 -0.8283
57457SOL    HW289982   0.528   4.774   8.900  0.1684 -1.1266  0.1558
57458SOL     OW89983   3.874   0.459   1.180  0.0221  0.0868 -0.2490
57458SOL    HW189984   3.841   0.397   1.245 -1.2444 -0.6196 -1.5090
57458SOL    HW289985   3.954   0.419   1.146  1.0600  0.7694  1.2801
57459SOL     OW89986  10.094   0.387   0.416 -0.5230 -0.0786  0.0928
57459SOL    HW189987  10.153   0.321   0.449  0.3278  0.7267  0.2134
57459SOL    HW289988  10.093   0.455   0.483 -1.2433  0.1238 -0.1077
57460SOL     OW89989   5.731   9.073   2.592 -0.7557 -0.0952 -0.2930
57460SOL    HW189990   5.659   9.089   2.652 -0.5933  0.0317 -0.1330
57460SOL    HW289991   5.760   9.160   2.565  1.0035 -0.0071  1.6076
57461SOL     OW89992   1.911   2.592  11.400  0.0886  0.0369 -0.6827
57461SOL    HW189993   1.862   2.518  11.437 -0.3937 -0.1493 -1.6674
57461SOL    HW289994   1.869   2.670  11.438 -1.0172 -0.1180 -1.5446
57462SOL     OW89995   8.684   5.957   2.626 -0.6187 -0.3874 -0.0203
57462SOL    HW189996   8.684   5.886   2.561  0.9130 -0.7232  0.2856
57462SOL    HW289997   8.759   6.011   2.601 -0.5428 -0.0319  0.9485
57463SOL     OW89998  10.904  10.648   2.835  0.9898  0.5285  0.1448
57463SOL    HW189999  10.881  10.724   2.889  1.5288  1.8320 -1.3907
57463SOL    HW290000  10.882  10.573   2.890 -1.0036  1.7415  1.1499
57464SOL     OW90001   7.971   9.524   2.823  0.0967 -0.4679  0.1412
57464SOL    HW190002   7.918   9.521   2.902  1.8893  0.2636  1.4420
57464SOL    HW290003   8.025   9.603   2.833 -0.0098 -0.0421 -2.0850
57465SOL     OW90004   2.332  12.702   3.053 -0.0070 -0.6307 -0.1004
57465SOL    HW190005   2.365  12.752   3.128  0.3752 -0.5411 -0.3269
57465SOL    HW290006   2.240  12.688   3.073 -0.2108  0.5028 -0.2230
57466SOL     OW90007   3.762   6.538   2.594 -0.9338 -0.1150 -0.3832
57466SOL    HW190008   3.706   6.605   2.557 -0.0320  0.0279 -1.5604
57466SOL    HW290009   3.799   6.492   2.518  1.1444  0.3260  0.2878
57467SOL     OW90010   3.354   9.834   6.765  0.5339 -0.1444 -0.0924
57467SOL    HW190011   3.367   9.925   6.793  0.3067 -0.3090  0.5556
57467SOL    HW290012   3.402   9.828   6.683 -1.3711  1.2257 -1.4110
57468SOL     OW90013  12.216  11.398   3.872 -0.6523  0.9006 -0.4468
57468SOL    HW190014  12.198  11.363   3.785  0.1177  2.1257 -1.1376
57468SOL    HW290015  12.132  11.395   3.917 -0.5513 -2.2264 -0.2516
57469SOL     OW90016   1.946  11.607  11.073  0.4709  0.1167  0.2433
57469SOL    HW190017   1.902  11.539  11.124 -0.9919  2.1563  1.8773
57469SOL    HW290018   1.913  11.594  10.984 -3.3863  1.2885  1.3124
57470SOL     OW90019  10.231  10.796   1.950 -0.2967  0.3179  0.2883
57470SOL    HW190020  10.196  10.758   1.869  0.7740 -0.3086  0.0889
57470SOL    HW290021  10.155  10.830   1.996 -1.1069 -0.6909 -0.2700
57471SOL     OW90022   6.541  13.426   8.486 -0.1922 -0.1644  0.0666
57471SOL    HW190023   6.576  13.338   8.475  0.0668  0.0902 -1.3201
57471SOL    HW290024   6.580  13.457   8.568  1.3841 -0.5761 -0.4846
57472SOL     OW90025   2.067  13.195  13.654  0.0185  0.3364 -0.6922
57472SOL    HW190026   2.121  13.117  13.664 -2.4292 -1.2316  1.9774
57472SOL    HW290027   2.106  13.260  13.712  0.2443 -0.0409 -0.4193
57473SOL     OW90028  13.775   3.077   0.230  0.3062  0.7880  0.4280
57473SOL    HW190029  13.783   3.006   0.294  0.0060  0.1011 -0.2718
57473SOL    HW290030  13.682   3.100   0.230  0.1256  0.1312 -0.4171
57474SOL     OW90031  11.318   2.989  11.121  0.3354 -0.0951  0.8343
57474SOL    HW190032  11.247   2.926  11.128 -0.0440 -0.2943 -2.8816
57474SOL    HW290033  11.395   2.943  11.156 -0.4673 -1.5572  0.7339
57475SOL     OW90034   0.489  10.363   6.594 -0.1477 -0.0937 -0.2586
57475SOL    HW190035   0.519  10.307   6.665  1.6211  0.2766 -0.6662
57475SOL    HW290036   0.514  10.316   6.514 -1.2941 -0.0770 -0.6487
57476SOL     OW90037   5.457   0.217  12.378  0.4710 -0.1302  0.1613
57476SOL    HW190038   5.506   0.202  12.459  0.8810  0.3741  0.0129
57476SOL    HW290039   5.518   0.264  12.322 -0.1014  0.2925 -0.1176
57477SOL     OW90040   8.009   1.820   9.182  0.5602 -0.2445  0.1784
57477SOL    HW190041   7.952   1.897   9.192 -1.4266 -1.6890  0.7703
57477SOL    HW290042   8.020   1.810   9.088  1.5020  1.1949  0.1137
57478SOL     OW90043   2.666   9.766   9.237 -0.1242  0.1224 -0.3208
57478SOL    HW190044   2.591   9.713   9.265  0.1182 -0.4535 -0.7434
57478SOL    HW290045   2.742   9.713   9.259  0.1384  0.4545 -0.4266
57479SOL     OW90046   3.286   3.133   0.045  0.1016 -0.1190  0.9824
57479SOL    HW190047   3.204   3.095   0.016  0.8882  0.0881 -1.8370
57479SOL    HW290048   3.342   3.058   0.066  0.4518 -0.4844 -1.0293
57480SOL     OW90049   0.871   2.743   5.287 -0.4587 -0.2927 -0.3266
57480SOL    HW190050   0.903   2.724   5.199 -1.7383  0.9651 -1.1058
57480SOL    HW290051   0.918   2.822   5.314  0.9583 -1.4413  0.7380
57481SOL     OW90052   0.592   7.547  11.938  0.1890  0.6624 -0.2476
57481SOL    HW190053   0.662   7.611  11.952  1.2316 -0.4865 -0.0071
57481SOL    HW290054   0.638   7.465  11.923 -1.1244 -0.2720  0.6552
57482SOL     OW90055  12.673   8.433   3.068 -0.5358  0.2527  0.2427
57482SOL    HW190056  12.714   8.461   2.986 -0.2863 -0.4818  0.1141
57482SOL    HW290057  12.745   8.428   3.131 -0.6720  0.4522  0.4191
57483SOL     OW90058   0.914   4.309   9.757 -0.0340  0.1521 -0.0132
57483SOL    HW190059   0.957   4.388   9.790 -1.3715  0.6921  0.4871
57483SOL    HW290060   0.931   4.242   9.823  1.7220 -0.2175 -0.7832
57484SOL     OW90061   0.232   5.139   4.563 -0.0275 -0.6167 -0.1273
57484SOL    HW190062   0.163   5.202   4.584 -1.4644 -2.6718  1.8279
57484SOL    HW290063   0.276   5.123   4.646  1.2763 -1.0824 -0.8920
57485SOL     OW90064   9.090   5.227  13.550 -0.3010 -0.3289 -0.0202
57485SOL    HW190065   9.180   5.233  13.583 -0.5614  0.8058  0.5588
57485SOL    HW290066   9.094   5.160  13.482  1.0611 -0.0640 -0.2456
57486SOL     OW90067  11.400   3.155   6.034  0.0499  0.0611  0.0283
57486SOL    HW190068  11.468   3.183   5.972 -0.1828 -0.4136 -0.4487
57486SOL    HW290069  11.358   3.081   5.991 -0.5897  0.1791  0.4460
57487SOL     OW90070   9.329  12.682  13.894  0.2680 -0.4920 -0.3332
57487SOL    HW190071   9.242  12.644  13.882 -0.2347  0.7166 -0.5646
57487SOL    HW290072   9.361  12.697  13.806 -0.9744  2.8029 -0.3434
57488SOL     OW90073  10.574   3.776   8.037 -0.8188  0.5983  0.2855
57488SOL    HW190074  10.579   3.869   8.060 -1.4003  0.5237  0.7485
57488SOL    HW290075  10.523   3.774   7.956  0.8095  0.8225 -0.7846
57489SOL     OW90076   7.314   8.130   3.777  0.5585  0.0709  0.7521
57489SOL    HW190077   7.222   8.146   3.758  0.0905 -1.4454  1.5563
57489SOL    HW290078   7.352   8.103   3.693 -0.0537 -0.6448  0.7013
57490SOL     OW90079  11.648   4.562  13.130 -0.1028 -0.0089 -0.3055
57490SOL    HW190080  11.585   4.527  13.194  0.0726  0.1608 -0.0365
57490SOL    HW290081  11.594   4.591  13.057 -0.2209 -1.2534 -0.7305
57491SOL     OW90082   5.956   1.265   3.594  0.0318  0.4787 -0.4022
57491SOL    HW190083   6.027   1.229   3.540  0.4376 -0.0075  0.4438
57491SOL    HW290084   5.938   1.351   3.556  1.1904  0.6759 -0.5161
57492SOL     OW90085   0.887  13.453   6.601 -0.0708  0.2377  0.1654
57492SOL    HW190086   0.923  13.389   6.539  3.6899  0.6559  1.6596
57492SOL    HW290087   0.863  13.528   6.547 -1.1586 -1.0393 -1.2036
57493SOL     OW90088   8.098   0.285   6.398 -0.0619  0.0289  0.5418
57493SOL    HW190089   8.078   0.303   6.306  0.5238 -1.3450  0.1211
57493SOL    HW290090   8.135   0.367   6.431  0.9601  0.1505 -0.8189
57494SOL     OW90091  13.395   0.490   9.182  0.8117  0.3758  0.2876
57494SOL    HW190092  13.310   0.485   9.226  0.2377  0.8829 -0.7275
57494SOL    HW290093  13.448   0.423   9.225 -0.4607 -0.7319  0.1769
57495SOL     OW90094  10.095   4.653   4.099  0.3824  0.4703  0.3694
57495SOL    HW190095  10.001   4.664   4.090  0.4743  1.8534  0.7554
57495SOL    HW290096  10.120   4.719   4.164  1.7882  1.0093 -0.6769
57496SOL     OW90097   2.723   3.403   4.018  0.5596  0.1573 -0.0818
57496SOL    HW190098   2.708   3.380   4.110 -1.8542  0.8863 -0.2311
57496SOL    HW290099   2.702   3.496   4.012 -0.4551 -0.1359 -1.5749
57497SOL     OW90100   3.932   5.223   2.158  0.0965 -0.0047  0.1230
57497SOL    HW190101   3.931   5.160   2.086 -0.5031  0.0090  0.1118
57497SOL    HW290102   4.025   5.239   2.175  0.2581 -1.0089  0.2366
57498SOL     OW90103  13.222  11.348   5.182  0.2587 -0.3482  0.3258
57498SOL    HW190104  13.263  11.432   5.201 -0.4266  0.3065 -0.9200
57498SOL    HW290105  13.247  11.330   5.091  0.4840 -1.5526  0.6117
57499SOL     OW90106  13.169   6.610   4.378 -0.4911  0.4124  0.1684
57499SOL    HW190107  13.163   6.597   4.284 -0.1491 -0.2549  0.2331
57499SOL    HW290108  13.123   6.693   4.394  0.0098  0.8550 -0.6551
57500SOL     OW90109  12.169   0.162   8.854 -0.4337 -0.8404 -0.5982
57500SOL    HW190110  12.122   0.084   8.883 -0.6376 -0.6799 -0.4976
57500SOL    HW290111  12.100   0.224   8.829 -0.2677 -0.8794 -1.1726
57501SOL     OW90112   5.235   4.958  10.573  0.0795 -0.1638  0.3037
57501SOL    HW190113   5.152   4.976  10.618 -0.2432 -1.3934  0.2465
57501SOL    HW290114   5.236   5.020  10.500 -0.5979  0.1420  0.5432
57502SOL     OW90115  13.940   0.370   1.333 -0.5536  0.3725 -0.4562
57502SOL    HW190116  13.905   0.408   1.252  0.3859  0.5208 -0.8146
57502SOL    HW290117  13.971   0.446   1.383  0.9634  0.1420 -0.9925
57503SOL     OW90118   0.653   2.184   0.069  0.3778  0.5845 -0.5344
57503SOL    HW190119   0.569   2.156   0.103  1.7945 -3.1160  0.4372
57503SOL    HW290120   0.633   2.260   0.013 -3.5363 -0.2133 -0.4862
57504SOL     OW90121   6.215   0.078   8.829  0.0263  0.1857  0.3125
57504SOL    HW190122   6.194   0.150   8.769 -0.6369 -0.8114 -0.7050
57504SOL    HW290123   6.257   0.120   8.903 -0.2341  1.6092 -0.3076
57505SOL     OW90124  10.465   5.772   1.696 -0.1444  0.2999 -0.0879
57505SOL    HW190125  10.459   5.762   1.791  0.5519  1.1733  0.0575
57505SOL    HW290126  10.469   5.682   1.663  1.5674  0.0014  0.8450
57506SOL     OW90127   2.049   7.351   9.416  0.0244  0.1399  0.2666
57506SOL    HW190128   1.966   7.307   9.395 -0.1212  0.6394 -0.2253
57506SOL    HW290129   2.098   7.286   9.467 -0.7562 -0.0790  0.7585
57507SOL     OW90130   7.604   5.548   2.228 -0.2971 -0.0432  0.3256
57507SOL    HW190131   7.551   5.497   2.290  0.4890  0.6383  1.6203
57507SOL    HW290132   7.541   5.606   2.185 -0.6809  0.6651  1.7497
57508SOL     OW90133   4.465   8.436   4.627  0.3118  0.2754  0.2480
57508SOL    HW190134   4.502   8.451   4.540  1.2483 -1.2139  0.3687
57508SOL    HW290135   4.536   8.398   4.678 -0.3029  0.8794  1.6022
57509SOL     OW90136   5.409   4.376   4.503  0.0072 -0.3948 -0.0041
57509SOL    HW190137   5.431   4.374   4.410 -0.2227 -1.7805 -0.0446
57509SOL    HW290138   5.483   4.421   4.545  0.0741  0.3011 -0.8526
57510SOL     OW90139  10.484   6.107   4.436  0.5427  0.3503  0.4618
57510SOL    HW190140  10.563   6.075   4.394 -1.4916 -0.6848 -3.0700
57510SOL    HW290141  10.470   6.193   4.397 -1.2319 -0.4819 -0.8950
57511SOL     OW90142  13.819   3.117   8.947 -0.3429 -0.5286  0.1751
57511SOL    HW190143  13.867   3.166   9.013 -2.2628  0.0616  1.2136
57511SOL    HW290144  13.748   3.176   8.920 -0.8624 -1.5689 -0.8616
57512SOL     OW90145   0.516   1.430   6.005  0.4736  0.2134  0.2304
57512SOL    HW190146   0.572   1.452   5.930 -0.6690  1.0727 -0.3958
57512SOL    HW290147   0.512   1.511   6.056 -2.1005  0.9855 -1.0056
57513SOL     OW90148   2.157   3.296  10.727  0.1325  0.2239 -0.0145
57513SOL    HW190149   2.152   3.367  10.792  2.4332  0.5107 -0.0498
57513SOL    HW290150   2.145   3.216  10.778 -1.4390  0.5484  0.1900
57514SOL     OW90151  11.189  13.642   3.219 -0.6080 -0.4767 -0.2493
57514SOL    HW190152  11.170  13.668   3.129  0.0325  0.5473 -0.0910
57514SOL    HW290153  11.269  13.591   3.213 -1.6488 -2.1759 -0.5044
57515SOL     OW90154   9.228   5.389   0.089  0.1120  0.4537 -0.1585
57515SOL    HW190155   9.190   5.302   0.097  0.5766  0.2273 -0.3940
57515SOL    HW290156   9.200   5.435   0.168  0.9722 -0.3283  0.6200
57516SOL     OW90157   5.405   3.320  11.595 -1.2076 -0.0538  0.3175
57516SOL    HW190158   5.420   3.397  11.650 -3.1127 -0.7948  2.0161
57516SOL    HW290159   5.492   3.280  11.586 -0.5133  1.2220  1.0309
57517SOL     OW90160  13.909   4.141   7.772  0.7034  0.6368 -0.2280
57517SOL    HW190161  13.888   4.216   7.828  1.0418 -0.1372  0.9742
57517SOL    HW290162  13.942   4.180   7.691  0.7917  1.7889  0.3417
57518SOL     OW90163   1.593   6.299   8.795 -0.0222  0.1749  0.1837
57518SOL    HW190164   1.525   6.235   8.774 -0.6357  0.8805 -0.0187
57518SOL    HW290165   1.559   6.346   8.871  0.1006  0.7424 -0.1083
57519SOL     OW90166   8.658   6.505   1.042 -0.1916  0.3165 -0.1751
57519SOL    HW190167   8.578   6.478   1.087  0.4304 -0.4373  0.5047
57519SOL    HW290168   8.727   6.450   1.079  0.8176  1.6051 -0.0354
57520SOL     OW90169  10.862   6.390   1.135  0.0681  0.0640  0.3045
57520SOL    HW190170  10.883   6.367   1.044 -0.6701  2.8934 -0.6939
57520SOL    HW290171  10.933   6.353   1.187  0.6890 -1.3362 -1.4372
57521SOL     OW90172  13.763   4.257   9.297 -0.3276 -0.0243 -0.0391
57521SOL    HW190173  13.682   4.206   9.301  0.2548 -1.3015 -2.4574
57521SOL    HW290174  13.820   4.217   9.364 -0.8635 -0.7012  0.0211
57522SOL     OW90175  13.724   2.357   4.613  0.0432  0.4794 -0.0026
57522SOL    HW190176  13.788   2.310   4.666 -0.1644 -0.4117 -0.5206
57522SOL    HW290177  13.748   2.450   4.622  2.3890  0.1077 -1.4243
57523SOL     OW90178   6.441   3.762   5.120  0.2044 -0.3690  0.1283
57523SOL    HW190179   6.375   3.826   5.094 -1.0524 -2.1649 -1.3758
57523SOL    HW290180   6.521   3.789   5.075 -0.4070 -0.0553 -0.7773
57524SOL     OW90181   5.740   0.403   4.681 -0.1503 -0.3980 -0.0737
57524SOL    HW190182   5.681   0.359   4.742 -0.0636 -0.7207 -0.2195
57524SOL    HW290183   5.770   0.333   4.623 -0.6247 -0.0076 -0.8050
57525SOL     OW90184   6.779   0.374   8.746 -0.2679  0.3951 -0.5332
57525SOL    HW190185   6.795   0.285   8.777 -4.3090  0.0497  1.1245
57525SOL    HW290186   6.832   0.429   8.803 -2.3378 -0.6892  2.6596
57526SOL     OW90187  13.661   2.804   7.590 -0.1496 -0.0043  0.1824
57526SOL    HW190188  13.574   2.796   7.550 -0.0890  0.7201 -0.1079
57526SOL    HW290189  13.651   2.764   7.676 -0.3309 -1.4194 -0.4547
57527SOL     OW90190  12.035  11.062  11.705  0.0365  0.7771  0.2999
57527SOL    HW190191  12.097  11.134  11.718  0.1769  0.3950  2.0235
57527SOL    HW290192  12.091  10.986  11.688  0.2082  0.1611  3.1425
57528SOL     OW90193   0.880   8.958   0.026  0.2104  0.4309 -0.6001
57528SOL    HW190194   0.909   8.868   0.029 -2.5718 -0.5582  0.2782
57528SOL    HW290195   0.925   9.001   0.098  1.9632 -0.0558 -1.3530
57529SOL     OW90196   4.302   9.365   3.740  0.3175  0.5836  0.5670
57529SOL    HW190197   4.270   9.282   3.776  0.6010  0.5667  0.7794
57529SOL    HW290198   4.223   9.411   3.712  0.1398  0.3502  0.6826
57530SOL     OW90199   5.504   0.228  13.180  0.2987 -0.1108 -0.0357
57530SOL    HW190200   5.516   0.198  13.090 -0.1779 -0.5921  0.0579
57530SOL    HW290201   5.455   0.157  13.223 -1.5214  1.0889 -0.0047
57531SOL     OW90202   0.992   7.042   0.640  0.0414 -0.0581  0.7781
57531SOL    HW190203   0.930   7.098   0.686  0.4536 -0.4574  1.8567
57531SOL    HW290204   0.954   7.029   0.553 -0.7722  0.6839  1.0128
57532SOL     OW90205   1.711   0.072   9.044  0.2148  0.7815 -0.1103
57532SOL    HW190206   1.761   0.039   8.970  0.5555 -0.4093  0.6124
57532SOL    HW290207   1.695   0.164   9.024 -0.0439  0.3844 -1.8281
57533SOL     OW90208   8.324   1.130   8.029 -0.0613 -0.3008 -0.4635
57533SOL    HW190209   8.378   1.209   8.031 -0.6997  0.1316  1.2917
57533SOL    HW290210   8.242   1.156   8.070 -0.4036 -1.7815 -0.1470
57534SOL     OW90211  12.534   2.411   7.630 -0.0555  0.1191 -0.4746
57534SOL    HW190212  12.465   2.474   7.652  2.5491  2.5159  1.4271
57534SOL    HW290213  12.521   2.339   7.693 -1.8359 -0.3765 -1.3387
57535SOL     OW90214   7.914   4.436   0.335  0.3826 -0.1652  0.1041
57535SOL    HW190215   7.867   4.464   0.414 -1.1118  2.2587 -1.5197
57535SOL    HW290216   7.867   4.477   0.263  2.2718 -1.4863 -2.0189
57536SOL     OW90217   2.151   8.925   3.717  0.2121  0.1677  0.1796
57536SOL    HW190218   2.116   8.873   3.789  1.5106 -0.0534  0.6852
57536SOL    HW290219   2.134   8.873   3.639  0.7185 -0.6103  0.5836
57537SOL     OW90220  12.725   7.522   7.726  0.0803 -0.2495 -0.4462
57537SOL    HW190221  12.781   7.485   7.658  0.0907  0.8120 -1.0271
57537SOL    HW290222  12.666   7.450   7.750 -0.1360 -0.5502 -1.7979
57538SOL     OW90223   8.919   4.053   1.560  0.8771  0.1975  0.1227
57538SOL    HW190224   8.867   4.000   1.621  1.9827  0.2789  1.1676
57538SOL    HW290225   8.898   4.143   1.583  1.7847  0.2393  0.8573
57539SOL     OW90226   8.938  13.676  11.850 -0.5262  0.0661  0.2213
57539SOL    HW190227   8.903  13.664  11.762 -1.0670 -2.4418  0.7054
57539SOL    HW290228   8.974  13.765  11.850  0.4929 -0.2388 -2.8633
57540SOL     OW90229   9.407  10.398   0.424  0.2265  0.2381 -0.3392
57540SOL    HW190230   9.404  10.366   0.513  1.1528  0.0382 -0.3701
57540SOL    HW290231   9.317  10.394   0.393  0.1850 -1.4821 -0.0510
57541SOL     OW90232   1.922   1.023   5.700 -0.0548  0.3254  0.4975
57541SOL    HW190233   2.011   1.059   5.710 -0.1778  2.3695 -3.6434
57541SOL    HW290234   1.865   1.099   5.701 -1.3397 -0.5849 -0.5648
57542SOL     OW90235   0.198   6.609   3.272  0.5456  0.0470  0.4496
57542SOL    HW190236   0.172   6.693   3.234 -1.4094 -0.2469  0.9988
57542SOL    HW290237   0.141   6.545   3.229  2.0200 -1.0280  0.0239
57543SOL     OW90238   9.533   3.060   5.640 -0.1541 -0.0276 -0.1087
57543SOL    HW190239   9.455   3.015   5.670 -0.6634  1.0563  0.2554
57543SOL    HW290240   9.605   3.022   5.691 -0.3494 -1.4043 -0.8331
57544SOL     OW90241   2.420  12.176   5.829  0.0556  0.4457  0.8506
57544SOL    HW190242   2.475  12.249   5.856  1.2553 -0.4891  1.0095
57544SOL    HW290243   2.380  12.144   5.910 -0.6900  1.0634  0.7471
57545SOL     OW90244   5.120   2.946   7.315 -0.0572  0.0898 -0.2926
57545SOL    HW190245   5.028   2.919   7.321  0.0724 -0.4067 -0.5016
57545SOL    HW290246   5.124   3.000   7.236 -0.3739  0.9683  0.2819
57546SOL     OW90247   2.960  13.733   1.431  0.2986 -0.0969 -0.1526
57546SOL    HW190248   2.981  13.694   1.347 -0.6095 -0.8082 -0.0631
57546SOL    HW290249   2.930  13.821   1.410  2.3314  0.5988 -0.3563
57547SOL     OW90250   0.400  13.889   6.617 -0.2259 -0.8392  0.2485
57547SOL    HW190251   0.496  13.886   6.612 -0.2316  0.5758 -2.0360
57547SOL    HW290252   0.371  13.882   6.526 -2.2150  0.2960  0.7427
57548SOL     OW90253   1.337   7.456   2.263 -0.0791  0.3404  0.4869
57548SOL    HW190254   1.413   7.481   2.209  0.4685 -1.0301  0.5703
57548SOL    HW290255   1.261   7.472   2.207  0.4434 -0.4528 -0.4790
57549SOL     OW90256   7.869   6.739   2.013 -0.5537 -0.4332 -0.1622
57549SOL    HW190257   7.897   6.692   1.934 -2.9359 -0.7444 -0.9208
57549SOL    HW290258   7.930   6.812   2.021  1.6586 -2.1656 -0.4538
57550SOL     OW90259   9.701  13.829   1.340  0.5128  0.1554  0.0504
57550SOL    HW190260   9.680  13.839   1.247  1.7731  0.8164 -0.1801
57550SOL    HW290261   9.628  13.872   1.386  0.5673  1.0458 -0.6732
57551SOL     OW90262   3.356   8.869   5.975  0.5030 -0.1054  0.5375
57551SOL    HW190263   3.350   8.957   6.013  1.3064 -0.0410  0.5332
57551SOL    HW290264   3.435   8.872   5.921 -0.5481 -0.2177 -1.1007
57552SOL     OW90265   3.899  13.520  13.032  0.1384  0.3715  0.2263
57552SOL    HW190266   3.816  13.543  13.074 -1.0392 -2.8155 -0.0816
57552SOL    HW290267   3.886  13.539  12.939 -0.9765 -1.6575 -0.0930
57553SOL     OW90268  13.518   7.470   2.726  0.7384 -0.2763 -0.0342
57553SOL    HW190269  13.445   7.523   2.695  1.1825  0.6435  0.4505
57553SOL    HW290270  13.595   7.524   2.712  0.8829  0.7576  3.6939
57554SOL     OW90271  12.929  10.484   3.151 -0.0123  0.1886  0.1692
57554SOL    HW190272  12.869  10.433   3.206 -0.1254  0.1829  0.0388
57554SOL    HW290273  12.879  10.503   3.072  0.5429 -0.8043 -0.4410
57555SOL     OW90274   6.241   5.257  12.465 -0.4385  0.1239  0.2408
57555SOL    HW190275   6.212   5.306  12.541  1.8754  2.8470 -0.4843
57555SOL    HW290276   6.162   5.246  12.411 -1.2361  2.2023  0.9182
57556SOL     OW90277   1.617   9.259   8.434  0.0616 -0.1097  0.1813
57556SOL    HW190278   1.535   9.307   8.420  1.0015  1.7847  0.7520
57556SOL    HW290279   1.635   9.270   8.527  0.5319 -1.2687  0.2394
57557SOL     OW90280  12.204  11.477   4.621 -0.3354 -0.2983 -0.0966
57557SOL    HW190281  12.115  11.507   4.641 -1.1030 -1.7948 -1.0849
57557SOL    HW290282  12.228  11.525   4.542  0.1105  0.7503  0.6490
57558SOL     OW90283  12.734  13.177   9.842 -0.0277  0.4057 -0.3090
57558SOL    HW190284  12.641  13.185   9.821  0.0127 -1.5829 -1.4394
57558SOL    HW290285  12.749  13.083   9.850  2.2070  0.5875 -1.6595
57559SOL     OW90286  13.415   0.031   7.209 -0.7156  0.2006 -0.9128
57559SOL    HW190287  13.488   0.093   7.214  1.0557 -1.5876 -2.4966
57559SOL    HW290288  13.349   0.075   7.155 -0.8963  1.8764  0.5829
57560SOL     OW90289   1.289  11.385   5.259 -0.2415 -0.2724  0.0787
57560SOL    HW190290   1.267  11.420   5.173  0.7914  1.3127  0.4189
57560SOL    HW290291   1.211  11.400   5.312 -0.2544  0.4441 -0.1246
57561SOL     OW90292   6.214   7.554   1.659  0.4240 -0.0200 -0.3977
57561SOL    HW190293   6.177   7.466   1.653  0.6103 -0.1760  0.5807
57561SOL    HW290294   6.225   7.569   1.752  1.5317  0.5699 -0.6057
57562SOL     OW90295   3.771   7.624  10.114  0.1162  0.1602 -0.3923
57562SOL    HW190296   3.775   7.530  10.101 -1.0452  0.1188 -0.5559
57562SOL    HW290297   3.683   7.649  10.085  0.4268  1.3000 -0.4065
57563SOL     OW90298  10.443   3.253   6.200  0.3783  0.3423 -0.6690
57563SOL    HW190299  10.438   3.259   6.296 -0.2514  3.0460 -0.8006
57563SOL    HW290300  10.424   3.161   6.181  0.0954 -0.1780  1.7656
57564SOL     OW90301  11.158  11.280   8.920  0.0355  0.6771  0.0555
57564SOL    HW190302  11.172  11.191   8.888 -0.3403  0.4361  0.5431
57564SOL    HW290303  11.225  11.332   8.876  0.6416  0.0492  0.2111
57565SOL     OW90304   6.139   8.358   2.837  0.1951  0.5523  0.5700
57565SOL    HW190305   6.086   8.356   2.757 -0.9979  0.8403  1.3302
57565SOL    HW290306   6.138   8.450   2.863  1.8628  0.7437  0.1193
57566SOL     OW90307   2.800   3.845   0.982 -0.4736 -0.3370  0.7100
57566SOL    HW190308   2.737   3.781   0.949  0.1077 -0.4586 -0.2239
57566SOL    HW290309   2.762   3.877   1.064 -1.6446 -0.5476  0.2692
57567SOL     OW90310   3.569   5.656   9.774 -0.0620  0.7219  0.0235
57567SOL    HW190311   3.637   5.608   9.822 -1.2211 -0.0884  0.8945
57567SOL    HW290312   3.506   5.590   9.747 -1.0133  1.5742  0.0895
57568SOL     OW90313   0.669   3.919   1.470  0.4122 -0.0387  0.5353
57568SOL    HW190314   0.741   3.882   1.520  0.1603 -0.6126  0.4764
57568SOL    HW290315   0.711   3.960   1.394  0.6767 -0.3327  0.5215
57569SOL     OW90316   1.720   0.779   7.158 -0.6150 -0.0001 -0.1097
57569SOL    HW190317   1.754   0.697   7.124 -1.9766 -0.1236 -1.2708
57569SOL    HW290318   1.771   0.795   7.237 -0.6821 -2.2459  0.4595
57570SOL     OW90319   4.869  10.396   1.639  0.6666  0.3195  0.0174
57570SOL    HW190320   4.921  10.466   1.600  0.3461 -0.3957 -1.7999
57570SOL    HW290321   4.778  10.423   1.624  0.5417 -0.4806 -0.7581
57571SOL     OW90322  13.179   8.647  13.272  0.0518 -0.2536 -0.0894
57571SOL    HW190323  13.144   8.731  13.302 -0.8827 -0.5687 -0.2693
57571SOL    HW290324  13.109   8.584  13.291 -1.6167 -0.1919 -4.8497
57572SOL     OW90325   6.688  13.774   1.207  0.5848  0.7230  0.4315
57572SOL    HW190326   6.714  13.709   1.143 -0.2629 -0.1806  0.9739
57572SOL    HW290327   6.644  13.724   1.276 -0.3989  1.9007  0.6998
57573SOL     OW90328   9.002   1.845   1.934  0.5115 -0.2115  0.1555
57573SOL    HW190329   9.096   1.858   1.947  0.4653  0.7774 -0.4431
57573SOL    HW290330   8.997   1.768   1.877  0.9645 -0.1517  0.0299
57574SOL     OW90331  10.182  10.444   3.093 -0.1831 -0.4271 -0.2288
57574SOL    HW190332  10.160  10.537   3.084  1.1053  0.0351  1.0066
57574SOL    HW290333  10.104  10.406   3.135 -1.1296 -0.1383 -1.6680
57575SOL     OW90334   2.626   6.352  12.321 -0.1305  0.0176  0.3869
57575SOL    HW190335   2.606   6.274  12.270 -0.4298  0.3118  0.0502
57575SOL    HW290336   2.718   6.341  12.347  0.1734  0.0938 -0.6322
57576SOL     OW90337  11.834   7.472   1.029 -0.3558  0.1433  0.3746
57576SOL    HW190338  11.918   7.476   1.076 -1.0910  0.9109  1.6911
57576SOL    HW290339  11.778   7.417   1.085 -0.1492 -2.1376 -1.5292
57577SOL     OW90340   2.034  13.971  11.084  0.2138  0.2429 -0.4816
57577SOL    HW190341   2.059  14.018  11.005 -1.6301  2.4711  0.1452
57577SOL    HW290342   1.940  13.988  11.093 -0.0931 -1.8107  1.0138
57578SOL     OW90343   9.851   5.263  12.975 -0.4057  0.1047 -0.3283
57578SOL    HW190344   9.839   5.329  12.907  1.4869  0.2558 -0.5899
57578SOL    HW290345   9.842   5.179  12.930 -1.3802  0.1731 -0.2844
57579SOL     OW90346   3.503  11.959   4.469 -0.1985 -0.2782 -0.0318
57579SOL    HW190347   3.409  11.945   4.471 -0.1796 -0.3624  0.2940
57579SOL    HW290348   3.540  11.874   4.493  0.0098 -0.8484 -2.1781
57580SOL     OW90349   5.855   1.508   6.524  0.3396 -0.0866 -0.4894
57580SOL    HW190350   5.834   1.422   6.560  0.1034  0.4135  0.6225
57580SOL    HW290351   5.934   1.534   6.571  0.4026  0.3141 -0.8113
57581SOL     OW90352   7.123  10.629   3.637  0.0832 -0.7538  0.0282
57581SOL    HW190353   7.101  10.626   3.544  1.0876 -1.6443 -0.1998
57581SOL    HW290354   7.110  10.720   3.662  1.0762 -0.2109 -1.3100
57582SOL     OW90355   8.817   0.535   1.948  0.7497  0.3758  0.7504
57582SOL    HW190356   8.789   0.444   1.939 -2.3453  1.4086 -2.4649
57582SOL    HW290357   8.759   0.572   2.014  0.2689  0.5432  0.2457
57583SOL     OW90358   2.078   5.818  14.018  0.2977 -0.3942  0.1401
57583SOL    HW190359   2.038   5.801  14.103  1.7467  1.6033  1.2993
57583SOL    HW290360   2.158   5.765  14.019  0.0705 -0.7555 -0.2205
57584SOL     OW90361  12.901   8.343   1.479 -0.1480  0.2179  0.6058
57584SOL    HW190362  12.875   8.272   1.421  2.2161  0.6549 -1.1403
57584SOL    HW290363  12.993   8.327   1.497  0.0826  2.0906  1.3030
57585SOL     OW90364   6.933  11.347   9.274  0.1084  0.0473  0.0042
57585SOL    HW190365   6.993  11.397   9.219  0.7362 -2.1055 -1.3855
57585SOL    HW290366   6.937  11.258   9.239 -0.9920 -0.9913  2.3231
57586SOL     OW90367   9.103   5.872   9.865 -0.5470  0.2353 -0.3810
57586SOL    HW190368   9.029   5.814   9.845 -0.6023  0.7672 -1.8521
57586SOL    HW290369   9.176   5.836   9.814 -0.4525  1.1580 -0.9109
57587SOL     OW90370   8.950   0.708   9.012 -0.1802  0.3503  0.2087
57587SOL    HW190371   8.978   0.626   9.051 -0.9891  0.9955  2.2533
57587SOL    HW290372   8.940   0.688   8.919 -1.6785 -2.2299  0.8397
57588SOL     OW90373  13.806  12.883  10.698 -0.4939  0.1826 -0.1168
57588SOL    HW190374  13.795  12.872  10.604  0.6998 -0.9234 -0.1499
57588SOL    HW290375  13.881  12.828  10.721  1.1674  2.7128  1.0174
57589SOL     OW90376  12.955   8.215   0.925  0.2487  0.0055 -0.3220
57589SOL    HW190377  12.998   8.300   0.919  2.4542 -1.1059 -1.4638
57589SOL    HW290378  12.949   8.185   0.834  0.6405 -1.5751  0.1492
57590SOL     OW90379   7.724   3.546   6.441 -0.6191 -0.1741 -0.1045
57590SOL    HW190380   7.731   3.623   6.384  1.9050 -0.2801 -0.0684
57590SOL    HW290381   7.742   3.580   6.529  0.4486 -0.7701 -0.0838
57591SOL     OW90382   8.180   8.224   2.131  0.1064  0.2106  0.0431
57591SOL    HW190383   8.135   8.164   2.191  0.1746  1.9044  1.8739
57591SOL    HW290384   8.153   8.194   2.044 -4.2822  0.7631  0.9553
57592SOL     OW90385  10.885   5.777   9.890  0.5262 -0.0518  0.1109
57592SOL    HW190386  10.796   5.772   9.857  0.6070  0.9818 -0.2926
57592SOL    HW290387  10.906   5.688   9.917 -0.4587 -0.3919 -0.2316
57593SOL     OW90388   0.328   4.770   0.918  1.0024 -0.1854 -0.2067
57593SOL    HW190389   0.278   4.848   0.894 -0.2627 -0.4245  1.4846
57593SOL    HW290390   0.409   4.778   0.868 -0.1804  0.8600 -2.0857
57594SOL     OW90391  11.088   1.755   3.901  0.1686 -0.2183  0.3903
57594SOL    HW190392  11.142   1.782   3.826  2.8254 -1.9515  1.5438
57594SOL    HW290393  11.014   1.709   3.862  2.0302 -2.0363 -1.2407
57595SOL     OW90394   2.915  10.536   1.160  0.0400 -0.5993 -0.2008
57595SOL    HW190395   2.842  10.540   1.098  0.2799 -0.0374 -0.4564
57595SOL    HW290396   2.925  10.443   1.179 -0.2792 -0.7447 -0.7183
57596SOL     OW90397   6.128   2.399   6.192 -0.5222 -0.0431  0.4004
57596SOL    HW190398   6.164   2.331   6.135 -2.2416 -1.0579  0.4331
57596SOL    HW290399   6.187   2.402   6.268  0.5801 -0.1951 -0.4363
57597SOL     OW90400   5.684   0.157  13.590 -0.3995  0.3074  0.0582
57597SOL    HW190401   5.608   0.143  13.532 -0.7865  0.2882  0.5656
57597SOL    HW290402   5.681   0.084  13.651 -0.2564  0.5766  0.3872
57598SOL     OW90403   9.881  11.819   1.119 -0.1127  0.7039 -0.4741
57598SOL    HW190404   9.836  11.839   1.201 -1.7393 -2.7538 -0.3283
57598SOL    HW290405   9.813  11.820   1.052 -0.0961 -2.1350 -0.6870
57599SOL     OW90406   6.538   3.137  12.878  0.3563  0.2157  0.3292
57599SOL    HW190407   6.632   3.128  12.897  0.8893  0.9087 -1.6895
57599SOL    HW290408   6.509   3.208  12.936  1.1964  0.3390  0.6244
57600SOL     OW90409  13.451  12.616  10.539  0.4094 -0.0064  0.0995
57600SOL    HW190410  13.543  12.643  10.532  0.6275 -1.0154 -1.6214
57600SOL    HW290411  13.431  12.622  10.632  1.9027  1.2160  0.3907
57601SOL     OW90412   9.512  13.010  13.541 -0.2859  0.0419  0.0077
57601SOL    HW190413   9.608  13.001  13.536 -0.3828 -0.9442 -0.1543
57601SOL    HW290414   9.491  12.991  13.632 -0.5756 -2.4881 -0.5086
57602SOL     OW90415  13.707   6.673  13.212 -0.1614 -0.1282  0.3270
57602SOL    HW190416  13.685   6.695  13.121 -0.3836 -1.3903  0.0461
57602SOL    HW290417  13.782   6.613  13.205 -0.3274 -0.4233  0.9496
57603SOL     OW90418  13.855  13.157   2.405 -0.2148  0.1317 -0.2180
57603SOL    HW190419  13.773  13.173   2.358 -0.4362 -1.2155 -0.3540
57603SOL    HW290420  13.850  13.064   2.429  1.1006  0.1275  0.1078
57604SOL     OW90421   9.816   7.710   2.747 -0.0301  0.4669 -0.3239
57604SOL    HW190422   9.790   7.618   2.755  0.7361  0.3789  1.4379
57604SOL    HW290423   9.737   7.759   2.769 -0.4495  0.2489 -1.2976
57605SOL     OW90424  12.489  10.205  12.541  0.2086  0.4375  0.1274
57605SOL    HW190425  12.479  10.125  12.593 -0.3784  0.3420 -0.1203
57605SOL    HW290426  12.428  10.267  12.581 -0.6106  0.2105 -0.7260
57606SOL     OW90427  13.231  13.776   0.283 -0.2316 -0.4943 -0.2829
57606SOL    HW190428  13.254  13.856   0.330  1.2951 -1.2124  0.2480
57606SOL    HW290429  13.253  13.795   0.192  1.4441 -0.7573  0.0436
57607SOL     OW90430   4.805   4.015   7.076  0.0160  0.1078  0.2956
57607SOL    HW190431   4.810   4.022   6.981 -0.8393 -2.4136 -0.0212
57607SOL    HW290432   4.712   4.016   7.096  0.1831  0.5771  1.1076
57608SOL     OW90433   4.228   5.719  11.919  0.1378 -0.1405 -0.8464
57608SOL    HW190434   4.224   5.805  11.877 -1.9019  1.0785  1.5212
57608SOL    HW290435   4.150   5.673  11.888 -0.3964  0.0643  0.1653
57609SOL     OW90436  12.456   3.418   8.790 -0.5489  0.4499  0.2483
57609SOL    HW190437  12.461   3.381   8.878 -0.9688  0.3154  0.2141
57609SOL    HW290438  12.385   3.370   8.747  1.1256 -1.1355 -0.9473
57610SOL     OW90439   4.268   0.097   0.668 -0.7820  0.3826  0.4375
57610SOL    HW190440   4.245   0.188   0.685  0.2579  0.6764  0.3345
57610SOL    HW290441   4.291   0.095   0.575 -0.2154  0.1496  0.5768
57611SOL     OW90442   0.291   7.347   1.925 -0.0680  0.2522  0.1831
57611SOL    HW190443   0.237   7.426   1.926 -2.2722 -1.1742  0.8727
57611SOL    HW290444   0.370   7.372   1.972  0.1891  2.5830 -1.3136
57612SOL     OW90445   2.716  13.870   2.433 -0.0432 -0.2089 -0.6191
57612SOL    HW190446   2.795  13.925   2.435 -0.6388  0.6615 -0.5082
57612SOL    HW290447   2.676  13.883   2.519 -0.1675 -0.8704 -0.5704
57613SOL     OW90448   9.782   9.351   0.391  0.1252 -0.0967 -0.4089
57613SOL    HW190449   9.864   9.389   0.359 -0.1655 -0.6386 -1.8667
57613SOL    HW290450   9.729   9.426   0.417  0.4811  0.3572 -0.9752
57614SOL     OW90451   9.419   9.530   1.473  0.0857 -0.6732 -0.0126
57614SOL    HW190452   9.329   9.557   1.490 -0.1816 -0.0835 -2.0827
57614SOL    HW290453   9.465   9.544   1.556 -1.4328  0.2385  0.7100
57615SOL     OW90454  10.504   3.252   3.590 -0.2649  0.4381  0.0968
57615SOL    HW190455  10.418   3.245   3.631 -0.0611  0.1113  0.4721
57615SOL    HW290456  10.533   3.341   3.609  0.4127 -0.1172  1.8329
57616SOL     OW90457   2.799   0.011  12.525 -0.1925  0.0238 -0.1689
57616SOL    HW190458   2.850  -0.068  12.508 -0.2074  0.1320 -0.7166
57616SOL    HW290459   2.862   0.082  12.515  0.1338  0.0304  1.5525
57617SOL     OW90460   5.595   1.752  12.439  0.0690 -0.7168 -0.0891
57617SOL    HW190461   5.511   1.714  12.464  0.0670 -1.1583 -0.7492
57617SOL    HW290462   5.574   1.842  12.415 -0.0121 -0.4419  0.9553
57618SOL     OW90463   6.114  13.520  13.036 -0.2994 -0.2614  0.2288
57618SOL    HW190464   6.134  13.580  12.964  1.4544  0.6246  1.3875
57618SOL    HW290465   6.195  13.514  13.086 -1.3485 -1.1794  1.9185
57619SOL     OW90466   3.227   4.930  11.810 -0.6174  0.8249  0.3689
57619SOL    HW190467   3.162   4.970  11.753 -0.9571  0.2009  0.3129
57619SOL    HW290468   3.264   4.858  11.759 -0.9059  0.2772  0.9210
57620SOL     OW90469   5.914   0.084  11.816 -0.9771 -0.6052 -0.0626
57620SOL    HW190470   5.896   0.161  11.762 -0.5814 -0.4300  0.0534
57620SOL    HW290471   5.831   0.067  11.862 -0.2378  1.5916  2.2448
57621SOL     OW90472   0.066  11.262  11.138  0.4395 -0.3529  0.7343
57621SOL    HW190473  -0.015  11.293  11.180 -1.4824 -0.8638 -2.2395
57621SOL    HW290474   0.078  11.321  11.063  2.2702 -0.9366  0.5244
57622SOL     OW90475   1.599   9.922   7.751  0.4516  0.6354 -0.3907
57622SOL    HW190476   1.549   9.936   7.671 -2.8826  2.6739  1.7877
57622SOL    HW290477   1.542   9.866   7.805  0.7683  2.4220  1.9357
57623SOL     OW90478   8.281   8.825  12.748  0.0588  0.2131  0.1418
57623SOL    HW190479   8.275   8.857  12.658 -0.9599  0.7967  0.3973
57623SOL    HW290480   8.247   8.735  12.743  2.4291 -0.7332 -0.4807
57624SOL     OW90481  13.726   3.800   5.501  0.1269 -0.4372 -0.2174
57624SOL    HW190482  13.669   3.876   5.492 -1.3391 -1.6928 -2.5001
57624SOL    HW290483  13.785   3.823   5.573 -1.5285  2.0065  0.4998
57625SOL     OW90484  12.726   8.621  10.781  0.0577  0.6351 -0.2838
57625SOL    HW190485  12.775   8.610  10.863  0.1547 -0.3656 -0.4625
57625SOL    HW290486  12.784   8.586  10.714 -0.6518  0.0041 -0.5810
57626SOL     OW90487   9.055  10.299   4.776  0.0924 -0.2122  0.0071
57626SOL    HW190488   8.983  10.237   4.772  0.1285 -0.2230 -0.7479
57626SOL    HW290489   9.060  10.325   4.868 -0.6948 -0.4188  0.1163
57627SOL     OW90490   7.925  10.646   2.595  0.4040 -0.1961 -0.7319
57627SOL    HW190491   7.833  10.665   2.574  0.2501 -0.7038 -0.5376
57627SOL    HW290492   7.925  10.554   2.620  0.7686  0.1204  0.4798
57628SOL     OW90493   2.241  10.964   1.219  0.0142 -0.0435 -0.1388
57628SOL    HW190494   2.270  10.920   1.140  0.0113  0.7411 -0.5854
57628SOL    HW290495   2.197  11.043   1.188 -1.6204 -0.6410  0.5693
57629SOL     OW90496  10.814   5.184  11.845  0.0023 -0.2977  0.4827
57629SOL    HW190497  10.805   5.279  11.845  0.8064 -0.2000 -0.5239
57629SOL    HW290498  10.890   5.167  11.901 -0.5155 -0.4010  1.1636
57630SOL     OW90499   1.750   6.756   2.813 -0.3492 -0.2269 -0.1855
57630SOL    HW190500   1.750   6.836   2.760  0.3267  0.1031  0.3060
57630SOL    HW290501   1.659   6.727   2.812 -0.3835 -0.1446 -1.4044
57631SOL     OW90502   0.244   1.849   6.056  0.2139 -0.1297  0.4581
57631SOL    HW190503   0.267   1.907   6.128 -0.6360  0.7395  0.0648
57631SOL    HW290504   0.267   1.898   5.977 -1.1766 -0.0043  0.1032
57632SOL     OW90505  12.406   4.544   2.238  0.7968 -0.0451 -0.3141
57632SOL    HW190506  12.484   4.558   2.291 -0.0375  0.6045  0.7765
57632SOL    HW290507  12.345   4.612   2.266  0.1570  0.0258 -1.7881
57633SOL     OW90508   2.270   2.412  13.804  0.4449  0.2719 -0.3522
57633SOL    HW190509   2.232   2.328  13.780 -0.9652  0.9583 -0.6250
57633SOL    HW290510   2.220   2.476  13.754 -1.4056  1.6461  2.8864
57634SOL     OW90511  14.031  11.542   3.630 -0.1183 -0.3802 -0.2784
57634SOL    HW190512  13.974  11.514   3.559 -0.8259  1.2852 -0.4148
57634SOL    HW290513  13.977  11.600   3.683  0.5548 -1.1802  1.3582
57635SOL     OW90514  10.282   6.262   1.100 -0.6206 -0.1510  0.2085
57635SOL    HW190515  10.195   6.229   1.122  0.0161 -1.8259  0.3676
57635SOL    HW290516  10.319   6.288   1.184 -0.2004 -1.4377  0.4371
57636SOL     OW90517   2.763   3.249   6.449  0.0435 -0.4273  0.0285
57636SOL    HW190518   2.730   3.245   6.538  1.3728  0.2977  0.5707
57636SOL    HW290519   2.799   3.338   6.440 -1.0842 -0.0933 -1.5985
57637SOL     OW90520   9.738   2.774   5.426  0.4271  0.3006  0.6488
57637SOL    HW190521   9.647   2.787   5.399  0.0777 -1.1730  1.0309
57637SOL    HW290522   9.768   2.699   5.375  1.3388  0.5724  0.7546
57638SOL     OW90523  13.788   2.325   9.482  0.2569  0.2798  0.5028
57638SOL    HW190524  13.794   2.256   9.549  0.1204 -0.0537  0.1746
57638SOL    HW290525  13.875   2.364   9.481  0.3245  0.1433  0.7240
57639SOL     OW90526   6.232   4.440   0.379  0.3546 -0.2230 -0.6280
57639SOL    HW190527   6.327   4.440   0.383  0.4573 -2.9097 -1.2225
57639SOL    HW290528   6.210   4.516   0.326  2.2288 -0.3059 -1.6031
57640SOL     OW90529   4.207  10.266   3.413  0.1595 -0.2253  0.2395
57640SOL    HW190530   4.185  10.347   3.458 -1.2545 -0.6398  0.3353
57640SOL    HW290531   4.181  10.197   3.473  1.1005 -0.7709  0.0480
57641SOL     OW90532   0.471   3.129  11.089  0.0378  0.5704 -0.4166
57641SOL    HW190533   0.487   3.203  11.147 -0.2260 -1.0254  1.8409
57641SOL    HW290534   0.485   3.163  11.001  2.3130  2.6849  0.6527
57642SOL     OW90535  10.650   9.513   2.037  0.1351  0.8991 -0.0738
57642SOL    HW190536  10.612   9.591   2.079 -0.3102  0.6629 -0.0326
57642SOL    HW290537  10.585   9.486   1.972 -1.3056 -1.3771  2.1291
57643SOL     OW90538   2.514   6.215   3.392 -0.4053 -0.5049 -0.6116
57643SOL    HW190539   2.507   6.300   3.435 -1.0285 -0.9080  0.1102
57643SOL    HW290540   2.577   6.167   3.445  0.3636 -0.3127 -1.3370
57644SOL     OW90541  12.944  13.231   6.897  0.3022  0.0083  0.0719
57644SOL    HW190542  12.891  13.196   6.968 -0.4720  0.3529 -0.3266
57644SOL    HW290543  12.906  13.193   6.817 -0.5679  1.7092 -0.3751
57645SOL     OW90544   9.117   8.250   7.763  0.4855 -0.3660  0.2469
57645SOL    HW190545   9.037   8.213   7.799  0.1101  0.1759 -0.0264
57645SOL    HW290546   9.094   8.340   7.740  0.8869 -0.5204 -0.7816
57646SOL     OW90547  12.607   0.096   9.461  0.0080 -0.4538 -0.8904
57646SOL    HW190548  12.695   0.129   9.444 -0.3979  0.1983 -1.8462
57646SOL    HW290549  12.593   0.110   9.554  0.2685  1.0945 -1.0534
57647SOL     OW90550   8.914   3.113   8.304 -0.1744 -0.0380  0.4307
57647SOL    HW190551   8.886   3.096   8.394 -0.7666 -0.7257  0.1251
57647SOL    HW290552   8.875   3.042   8.252  0.6343  0.0243 -0.2843
57648SOL     OW90553   3.844  11.237   2.193  0.3357  0.2902 -0.1419
57648SOL    HW190554   3.940  11.234   2.184  0.5633  0.1430  1.7441
57648SOL    HW290555   3.814  11.293   2.121  1.8614  0.4991 -0.6519
57649SOL     OW90556  10.923   9.752  10.720  0.2960 -0.4131 -0.1766
57649SOL    HW190557  10.902   9.843  10.740  0.2822 -0.0117 -1.8803
57649SOL    HW290558  10.839   9.707  10.727  0.6360 -0.7987  2.8458
57650SOL     OW90559   8.842   1.184   1.999 -0.0777 -0.1816  0.3891
57650SOL    HW190560   8.859   1.202   1.906  0.1715 -0.4720  0.3784
57650SOL    HW290561   8.860   1.267   2.043  0.5482 -0.2531  0.2723
57651SOL     OW90562  13.264   0.151  10.772  0.2191  0.0860 -0.2758
57651SOL    HW190563  13.352   0.112  10.776 -0.1204 -0.5838  1.2736
57651SOL    HW290564  13.209   0.081  10.737  0.3195  0.5972 -1.5172
57652SOL     OW90565  12.007   7.145   6.857 -0.2410  0.2186 -0.1123
57652SOL    HW190566  11.996   7.137   6.762  0.7069 -3.8240 -0.0629
57652SOL    HW290567  12.101   7.160   6.870 -0.5896  2.4445  0.2393
57653SOL     OW90568  12.607   5.466  12.266 -0.0148  0.8670 -0.4543
57653SOL    HW190569  12.598   5.521  12.343  1.0463 -2.6592  2.4546
57653SOL    HW290570  12.701   5.453  12.255 -0.2236 -0.9172 -0.5188
57654SOL     OW90571   6.303   4.236   4.505 -0.1500  0.9310  0.1958
57654SOL    HW190572   6.356   4.186   4.444  0.5594  1.6197  0.2257
57654SOL    HW290573   6.365   4.295   4.548 -0.6242  0.3927  1.6565
57655SOL     OW90574   6.371   5.424   0.870 -0.0980  0.2057  0.3207
57655SOL    HW190575   6.358   5.329   0.882 -0.1382  0.2282  0.4646
57655SOL    HW290576   6.411   5.432   0.784  4.0395 -0.2964  1.9890
57656SOL     OW90577  10.722   4.071   6.786 -0.6131  0.1595 -0.0512
57656SOL    HW190578  10.760   4.045   6.702  1.4112 -0.5742  1.0282
57656SOL    HW290579  10.757   4.159   6.802  0.5575 -0.4485  0.8682
57657SOL     OW90580  11.913   5.600  12.192  0.5378  0.1379  0.1069
57657SOL    HW190581  12.002   5.632  12.179  0.5124  1.0020  1.7589
57657SOL    HW290582  11.900   5.536  12.122  2.8467 -0.8140  0.4508
57658SOL     OW90583   5.177   7.765   8.409 -0.0394  0.4977 -0.2408
57658SOL    HW190584   5.111   7.824   8.444 -0.4645  0.3699 -0.8263
57658SOL    HW290585   5.225   7.818   8.345  1.1180  0.9091  0.9180
57659SOL     OW90586  14.089   0.494  13.905  0.0223 -0.3445  0.1131
57659SOL    HW190587  14.143   0.460  13.834  1.2415  2.1840 -0.2953
57659SOL    HW290588  14.008   0.523  13.863  1.1767  2.1876 -0.6019
57660SOL     OW90589   7.137   0.546   6.170 -0.1856  0.1481  0.3966
57660SOL    HW190590   7.041   0.541   6.173 -0.2841  1.8395  0.5584
57660SOL    HW290591   7.159   0.628   6.213  1.5799 -1.6682  3.2897
57661SOL     OW90592  12.533   4.854  10.835  0.8239 -0.1441  0.0351
57661SOL    HW190593  12.600   4.896  10.890  1.2612  0.5196 -0.9844
57661SOL    HW290594  12.571   4.769  10.812  0.0755 -1.0247  1.8288
57662SOL     OW90595   3.710   4.286   1.237 -0.2599 -0.2287 -0.0170
57662SOL    HW190596   3.749   4.201   1.259 -0.4864 -0.4814 -0.5796
57662SOL    HW290597   3.633   4.292   1.294  0.5664  0.2728  1.0999
57663SOL     OW90598   6.493  13.768  13.767  0.1403  0.1035 -0.2996
57663SOL    HW190599   6.502  13.843  13.826 -0.0846  1.0579 -1.4366
57663SOL    HW290600   6.545  13.699  13.808  0.1573  0.8035  0.8954
57664SOL     OW90601   8.602   9.135   5.469  0.4043  0.1305  0.7822
57664SOL    HW190602   8.606   9.041   5.450 -2.5841 -0.0274  0.3850
57664SOL    HW290603   8.532   9.143   5.534 -3.3986  2.3757 -3.0309
57665SOL     OW90604  11.961   1.671   7.843 -0.2495 -0.0905  0.1975
57665SOL    HW190605  11.921   1.625   7.917 -0.2969  1.1377  0.9458
57665SOL    HW290606  11.987   1.600   7.783 -0.2550 -1.0930  1.3422
57666SOL     OW90607   4.482  13.272   1.450 -0.0626  0.0945  0.9386
57666SOL    HW190608   4.575  13.258   1.466  0.6577  2.6172 -0.5880
57666SOL    HW290609   4.465  13.360   1.484 -1.1304  0.9206 -1.5560
57667SOL     OW90610   0.832   0.560   3.927  0.1167 -0.2455  0.2872
57667SOL    HW190611   0.753   0.599   3.964 -0.4727  1.0106 -2.1122
57667SOL    HW290612   0.904   0.607   3.971 -0.5714  2.9241 -1.6453
57668SOL     OW90613   5.866   7.503   1.836  0.1996 -0.2196  0.5736
57668SOL    HW190614   5.783   7.521   1.881 -0.1612  0.6251 -0.3687
57668SOL    HW290615   5.868   7.566   1.764  0.6344 -1.6493 -0.7351
57669SOL     OW90616   9.479   0.759   2.329 -0.5555  0.1966  0.1722
57669SOL    HW190617   9.529   0.813   2.267  0.1791 -2.0676 -1.3120
57669SOL    HW290618   9.388   0.789   2.318 -0.4830 -0.2374 -2.2057
57670SOL     OW90619   8.720   3.739   0.996  0.0745 -0.0362  0.1526
57670SOL    HW190620   8.762   3.729   0.911 -2.1413 -1.5759 -0.8823
57670SOL    HW290621   8.680   3.654   1.013 -0.6903  0.6491  2.1016
57671SOL     OW90622   1.152   5.344   7.035  0.1105  0.7553  0.1571
57671SOL    HW190623   1.099   5.417   7.003 -1.6204  0.5486  2.2728
57671SOL    HW290624   1.226   5.386   7.079 -0.0563  1.1846  0.0378
57672SOL     OW90625  13.122   6.749   8.271  0.1686  0.7032 -0.2911
57672SOL    HW190626  13.125   6.823   8.331  0.0963 -0.5574  1.3460
57672SOL    HW290627  13.183   6.685   8.309 -2.6253 -1.6361  0.5864
57673SOL     OW90628   5.593   0.658   6.304 -0.3536 -0.4447  0.1821
57673SOL    HW190629   5.507   0.683   6.338 -0.8196 -0.1626 -1.1236
57673SOL    HW290630   5.650   0.732   6.325 -0.7055 -0.1358  0.0474
57674SOL     OW90631   1.774   6.829   0.931 -0.1505 -0.1821  0.2168
57674SOL    HW190632   1.701   6.803   0.987 -1.0132  1.5876  0.0031
57674SOL    HW290633   1.849   6.837   0.990 -1.0303  1.6006  1.1885
57675SOL     OW90634   1.675  11.491  13.288  0.0622 -0.3116  0.2908
57675SOL    HW190635   1.589  11.476  13.247  0.2100 -0.9696  0.2026
57675SOL    HW290636   1.728  11.531  13.220 -0.5117  1.2126  0.7000
57676SOL     OW90637   7.127  11.478   4.951 -0.0100 -0.1043  0.5505
57676SOL    HW190638   7.189  11.482   4.878 -1.8810 -1.3867 -1.2125
57676SOL    HW290639   7.069  11.405   4.930 -1.3652  0.2420  2.7475
57677SOL     OW90640  13.092   5.361   8.557 -0.0860 -0.1574  0.2294
57677SOL    HW190641  13.160   5.331   8.616  1.6045  0.9496 -1.0625
57677SOL    HW290642  13.073   5.286   8.501  0.2916 -0.3949  0.4196
57678SOL     OW90643  13.679   7.580  14.036 -0.1807 -0.1776 -0.1702
57678SOL    HW190644  13.721   7.624  14.110  0.4887  2.0455 -1.7402
57678SOL    HW290645  13.752   7.551  13.981 -0.6434  0.1612 -0.9888
57679SOL     OW90646  13.591   5.946  12.823 -0.2595 -0.3388 -0.5105
57679SOL    HW190647  13.635   5.879  12.771 -1.7375 -1.8869  0.1368
57679SOL    HW290648  13.515   5.972  12.770 -0.4402 -0.1653 -0.1743
57680SOL     OW90649   5.577   1.494   6.915 -0.0864  0.3537  0.3798
57680SOL    HW190650   5.650   1.523   6.970 -0.2608  0.6435  0.4597
57680SOL    HW290651   5.501   1.542   6.947 -0.2884  0.1526  0.2095
57681SOL     OW90652   6.744  14.074   0.028  0.1597  0.7990  0.1544
57681SOL    HW190653   6.759  14.128   0.105 -0.5380  1.7362 -0.3421
57681SOL    HW290654   6.812  14.101  -0.034  0.8623 -0.1144  0.5066
57682SOL     OW90655  12.876   4.503   9.815 -0.0818 -0.1058  0.3556
57682SOL    HW190656  12.864   4.581   9.760  0.1999  0.1785  0.6948
57682SOL    HW290657  12.965   4.510   9.848 -0.2790 -0.2213  0.9283
57683SOL     OW90658   1.921  13.387   9.438 -0.1467  0.2785  0.1635
57683SOL    HW190659   1.920  13.296   9.406 -2.1125  0.0476  0.7536
57683SOL    HW290660   1.905  13.440   9.360  0.2755  0.0753 -0.0651
57684SOL     OW90661   0.304  13.221  13.740 -0.0791 -0.5614 -0.6605
57684SOL    HW190662   0.279  13.130  13.726 -0.5261 -0.2629 -1.9163
57684SOL    HW290663   0.234  13.258  13.793 -0.4906 -0.6611 -1.1279
57685SOL     OW90664   0.883   6.010   3.331  0.1942 -0.0118 -0.5252
57685SOL    HW190665   0.928   5.969   3.257 -0.4728  1.1243 -1.5988
57685SOL    HW290666   0.946   6.007   3.402  0.1797 -2.9134 -0.5060
57686SOL     OW90667   0.791   1.762   9.100 -0.3330  0.3742  0.1012
57686SOL    HW190668   0.722   1.827   9.089 -0.5418 -0.0676 -1.3194
57686SOL    HW290669   0.868   1.802   9.058  0.3007  0.8210  1.5788
57687SOL     OW90670   0.725  14.075   7.880 -0.5670 -0.4242 -0.2540
57687SOL    HW190671   0.762  14.059   7.794 -0.2481 -1.7864  0.1112
57687SOL    HW290672   0.729  14.170   7.892 -3.5312  0.2328 -3.0302
57688SOL     OW90673  13.875  13.930   9.187  0.1992 -0.4716 -0.7063
57688SOL    HW190674  13.817  13.989   9.235  0.4812  0.0935 -1.0417
57688SOL    HW290675  13.915  13.876   9.254 -1.0349 -1.1709 -0.5030
57689SOL     OW90676   6.672   4.694  13.365 -0.3521 -0.0150 -0.2132
57689SOL    HW190677   6.577   4.697  13.366 -0.6391 -3.8923 -1.5756
57689SOL    HW290678   6.696   4.653  13.448  0.1570  0.6452 -0.0186
57690SOL     OW90679  12.980   0.748   2.776 -0.0601 -0.0133 -0.4227
57690SOL    HW190680  12.987   0.749   2.872 -0.7406  1.0563 -0.3588
57690SOL    HW290681  12.894   0.787   2.758  0.7717  1.4330 -1.5021
57691SOL     OW90682  11.957   5.074   1.065  0.0215 -0.0439 -0.1940
57691SOL    HW190683  11.893   5.075   0.994  0.7192 -0.1350 -0.8293
57691SOL    HW290684  11.928   5.143   1.124 -0.8218 -0.2653 -0.3335
57692SOL     OW90685   6.887   1.242   8.076  0.4444  0.2825  0.0291
57692SOL    HW190686   6.885   1.154   8.114  1.9077 -0.7813 -2.1541
57692SOL    HW290687   6.973   1.276   8.098 -0.0576  1.1290  0.7226
57693SOL     OW90688  13.660   5.649   2.996  0.2660 -0.3985  0.3266
57693SOL    HW190689  13.661   5.591   3.072 -1.4071  0.3183  0.9338
57693SOL    HW290690  13.747   5.690   2.996  1.0781 -2.0222  0.5310
57694SOL     OW90691  13.174   7.021   8.358 -0.0886  0.9283  0.0287
57694SOL    HW190692  13.256   6.979   8.385 -0.5229 -0.5706 -0.8385
57694SOL    HW290693  13.202   7.092   8.300  0.6184  0.5438 -0.1220
57695SOL     OW90694  10.634   4.818  11.306 -0.2929  0.2132 -0.7620
57695SOL    HW190695  10.604   4.767  11.231 -0.6070  1.5009 -1.5416
57695SOL    HW290696  10.663   4.901  11.268 -0.2147  0.7857  0.5137
57696SOL     OW90697   8.601  14.082   0.877 -0.0406  0.3749  0.3424
57696SOL    HW190698   8.655  14.048   0.948  1.5580 -0.1495 -1.0417
57696SOL    HW290699   8.630  14.033   0.800 -1.1090  1.5081 -0.8255
57697SOL     OW90700  10.111  13.562   9.157 -0.0187 -0.0064 -0.1055
57697SOL    HW190701  10.045  13.552   9.088  0.3987  0.0914 -0.5227
57697SOL    HW290702  10.147  13.475   9.168 -0.5706 -0.1698  0.4900
57698SOL     OW90703   2.258   7.175   9.517 -0.3066 -0.4001  0.2290
57698SOL    HW190704   2.214   7.103   9.471  1.9802 -1.5108 -0.3548
57698SOL    HW290705   2.287   7.137   9.599  1.1461 -0.2678 -0.1899
57699SOL     OW90706   6.469   5.431   2.954 -0.2054  0.7054  0.1577
57699SOL    HW190707   6.425   5.360   2.908  2.1913 -0.7423 -0.0527
57699SOL    HW290708   6.497   5.491   2.885  0.7069  0.1073 -0.0018
57700SOL     OW90709   8.076  13.796   4.362  0.0312  0.2786 -0.1748
57700SOL    HW190710   8.170  13.806   4.342 -0.2830  0.5912 -1.6022
57700SOL    HW290711   8.066  13.704   4.385  0.7728  0.3559  0.5085
57701SOL     OW90712  13.437   7.613   8.853 -0.3924 -0.2195  0.4792
57701SOL    HW190713  13.493   7.600   8.929  1.7523  0.5959 -0.8594
57701SOL    HW290714  13.488   7.578   8.779 -1.4268  0.9684 -0.8705
57702SOL     OW90715   4.386  13.760   9.887 -0.1682 -0.1623  0.1826
57702SOL    HW190716   4.387  13.758   9.791  0.7012 -0.5068  0.1866
57702SOL    HW290717   4.439  13.836   9.909 -0.1319 -0.2477  0.3892
57703SOL     OW90718   8.700   0.726   3.634  0.3801 -0.4030 -0.5374
57703SOL    HW190719   8.640   0.670   3.684 -0.0973 -0.4347 -1.1325
57703SOL    HW290720   8.786   0.710   3.673 -0.0548 -0.0231  0.6271
57704SOL     OW90721  13.405   0.812  12.293  0.4854 -0.2437 -0.2835
57704SOL    HW190722  13.419   0.733  12.346 -1.1360  0.2849  0.9738
57704SOL    HW290723  13.325   0.794  12.244  0.3196  0.4908 -0.2819
57705SOL     OW90724   5.814   5.328  11.590  0.5109  0.2543 -0.3664
57705SOL    HW190725   5.790   5.411  11.547  0.0359 -0.5552 -1.7224
57705SOL    HW290726   5.730   5.288  11.613  0.7476  0.2607  0.5457
57706SOL     OW90727  10.145  13.669   3.281  0.0669  0.0736 -0.8307
57706SOL    HW190728  10.206  13.644   3.351 -1.5966 -0.7663  0.3708
57706SOL    HW290729  10.202  13.703   3.212  1.7281  1.6952  1.2004
57707SOL     OW90730  12.719   8.663   4.678  0.2092  0.0495  0.8233
57707SOL    HW190731  12.758   8.626   4.599  1.6059 -0.1016  1.5525
57707SOL    HW290732  12.696   8.587   4.732  1.1561  0.1688  1.4226
57708SOL     OW90733   2.391   2.901  13.116 -0.1420 -0.3927 -0.1443
57708SOL    HW190734   2.484   2.918  13.131 -0.3710 -0.2970  1.2819
57708SOL    HW290735   2.386   2.806  13.102 -0.0355 -0.6973  1.6828
57709SOL     OW90736  12.370  13.317   3.151  0.8538 -0.5943 -0.0257
57709SOL    HW190737  12.378  13.384   3.083  0.3959  0.4874  0.9582
57709SOL    HW290738  12.460  13.292   3.171  1.0564  0.1107 -0.0337
57710SOL     OW90739   8.862   7.511  11.597 -0.4073  0.8515 -0.3623
57710SOL    HW190740   8.888   7.560  11.675 -0.8010  1.0461 -0.3522
57710SOL    HW290741   8.915   7.549  11.526 -0.4742  1.0684 -0.2970
57711SOL     OW90742   1.293  12.804   1.451 -0.5510 -0.4436  0.1494
57711SOL    HW190743   1.224  12.861   1.485 -0.1396  1.2231 -1.6676
57711SOL    HW290744   1.359  12.864   1.417  0.3824 -2.0224 -0.9305
57712SOL     OW90745   1.280  13.629  10.320 -0.2866 -0.1514 -0.6786
57712SOL    HW190746   1.202  13.651  10.269  0.7110 -0.1905 -2.2588
57712SOL    HW290747   1.342  13.699  10.300 -0.2166  0.4241  1.3381
57713SOL     OW90748   8.925   9.350   5.866  0.4256 -0.1679  0.2815
57713SOL    HW190749   8.918   9.322   5.958 -0.2443  1.3025  0.7111
57713SOL    HW290750   8.842   9.322   5.827  0.9785 -1.3778 -0.0677
57714SOL     OW90751  13.011  12.767  11.617  0.6351 -0.1139 -0.1925
57714SOL    HW190752  12.999  12.687  11.668  0.3071  0.3856  0.5320
57714SOL    HW290753  12.962  12.752  11.537  1.1416 -0.9075 -0.3643
57715SOL     OW90754  13.469   2.021  13.681  0.5616 -0.1773 -0.1089
57715SOL    HW190755  13.459   2.041  13.774 -1.8253  0.4229 -0.4184
57715SOL    HW290756  13.398   2.069  13.639  0.8938 -1.3356 -2.1195
57716SOL     OW90757   7.646  11.686  12.004  0.8302 -0.4591 -0.0943
57716SOL    HW190758   7.721  11.653  12.053  1.7433 -0.3463 -1.4006
57716SOL    HW290759   7.649  11.641  11.920 -0.1957  0.0300 -0.4114
57717SOL     OW90760   1.220  10.669  13.968 -0.0657 -0.5756  0.0580
57717SOL    HW190761   1.148  10.712  14.014  0.1854  0.0661 -0.1484
57717SOL    HW290762   1.195  10.672  13.876  0.3413 -0.1310 -0.0384
57718SOL     OW90763   2.881  11.078  13.552 -0.1469 -0.3580 -0.2646
57718SOL    HW190764   2.894  11.134  13.475  0.5143 -1.1023 -0.7164
57718SOL    HW290765   2.835  11.001  13.518 -0.9693 -0.1365  0.3324
57719SOL     OW90766   7.418   1.261   8.041 -0.0556 -0.1380 -0.2934
57719SOL    HW190767   7.441   1.213   8.121  1.2137 -0.0534 -0.5892
57719SOL    HW290768   7.500   1.266   7.991 -0.8850 -0.4828 -1.7671
57720SOL     OW90769   6.484   4.456  12.130 -0.1247  0.1178  0.3752
57720SOL    HW190770   6.550   4.393  12.101  0.7368  0.9368  0.5259
57720SOL    HW290771   6.411   4.445  12.069  0.4433 -0.2926 -0.2329
57721SOL     OW90772   4.648   4.783   6.043 -0.3467 -0.1702  0.3685
57721SOL    HW190773   4.691   4.866   6.027  1.6918 -1.1745  0.3125
57721SOL    HW290774   4.591   4.799   6.118 -0.8297  1.5200 -0.3145
57722SOL     OW90775  13.400  12.635   1.128 -0.1439 -0.6255 -0.3122
57722SOL    HW190776  13.471  12.680   1.173  0.8409 -2.3713 -0.0290
57722SOL    HW290777  13.328  12.633   1.191 -0.2318  0.5506 -0.3531
57723SOL     OW90778   7.550  13.602  10.150  0.3218 -0.2414 -0.3546
57723SOL    HW190779   7.550  13.559  10.235  2.3746  0.9649  0.3210
57723SOL    HW290780   7.457  13.612  10.128 -0.2740 -0.0998  1.9966
57724SOL     OW90781   5.945   0.199  13.236  0.0119  0.0034  0.3462
57724SOL    HW190782   5.899   0.269  13.188  0.9325  1.9324  2.1346
57724SOL    HW290783   5.908   0.118  13.201 -1.0322  1.3550 -1.9077
57725SOL     OW90784  11.120   3.276   7.906 -0.0750 -0.4197 -0.5237
57725SOL    HW190785  11.173   3.266   7.985 -1.3035  1.0068  0.5368
57725SOL    HW290786  11.163   3.221   7.841  2.9515  0.9808  0.1213
57726SOL     OW90787   4.242  12.026   2.616  0.2168 -0.7099 -0.0241
57726SOL    HW190788   4.305  12.033   2.544 -0.4217 -1.1392 -0.6369
57726SOL    HW290789   4.232  12.116   2.647  0.6745 -0.5545 -0.3076
57727SOL     OW90790  12.202   6.845   8.087 -0.0566 -0.2552  0.0443
57727SOL    HW190791  12.176   6.820   8.176 -3.4735  0.3297 -0.6318
57727SOL    HW290792  12.235   6.934   8.096  0.9473 -0.6921  0.8715
57728SOL     OW90793   7.615  12.888   2.632 -0.5843  0.2692 -0.3038
57728SOL    HW190794   7.709  12.909   2.634 -0.4464 -0.3131  1.2575
57728SOL    HW290795   7.594  12.881   2.539  1.0774 -0.2406 -0.6860
57729SOL     OW90796  13.972   2.733   5.381  0.1659 -0.6156 -0.9289
57729SOL    HW190797  14.057   2.714   5.342  0.5877 -0.5274 -0.0812
57729SOL    HW290798  13.937   2.805   5.329  1.7609  1.1162  0.2441
57730SOL     OW90799   3.580   9.679   5.510  0.0267  0.2659 -0.6944
57730SOL    HW190800   3.563   9.607   5.571  0.8736  0.7992  0.1961
57730SOL    HW290801   3.504   9.736   5.519  0.2091  0.4074 -0.0405
57731SOL     OW90802   7.689   1.630   2.966 -0.2006  0.3123 -0.4406
57731SOL    HW190803   7.633   1.651   3.040  0.7526  1.0175  0.1018
57731SOL    HW290804   7.646   1.557   2.923 -0.5926 -0.3346  1.0036
57732SOL     OW90805   8.628   0.234   3.099  0.2394 -0.0635  0.3594
57732SOL    HW190806   8.707   0.219   3.151  1.3806 -1.4516 -1.6403
57732SOL    HW290807   8.561   0.180   3.141  0.5196  0.5299  1.6247
57733SOL     OW90808   1.117  13.768  10.094  0.7029  0.0136 -0.8756
57733SOL    HW190809   1.118  13.814  10.010 -0.0485  4.0181  1.0759
57733SOL    HW290810   1.025  13.766  10.119  0.9196 -1.1191 -0.1121
57734SOL     OW90811   3.398   1.786   2.323 -0.1645  0.3405 -0.4594
57734SOL    HW190812   3.493   1.771   2.319  0.0205  0.4831  1.9255
57734SOL    HW290813   3.364   1.712   2.374 -1.0542  1.2515  0.3074
57735SOL     OW90814  10.067   0.627   4.400  0.4373 -0.1508  0.3176
57735SOL    HW190815  10.048   0.712   4.439 -0.1998  0.0268 -0.3525
57735SOL    HW290816  10.057   0.565   4.472  1.4834  0.3825  0.9561
57736SOL     OW90817   5.495   9.366  12.848  0.5574 -0.0732 -0.6461
57736SOL    HW190818   5.438   9.293  12.825  0.1240  0.1021 -0.1391
57736SOL    HW290819   5.445   9.418  12.910  0.9365  0.5509 -0.8426
57737SOL     OW90820   3.669  10.794  10.765  0.1658 -0.3392  0.0604
57737SOL    HW190821   3.671  10.868  10.826  0.3172  0.3174 -0.7371
57737SOL    HW290822   3.643  10.720  10.820 -0.6612  0.4243  0.7483
57738SOL     OW90823   4.526   2.307  13.293 -0.2586  0.9698  0.3887
57738SOL    HW190824   4.486   2.315  13.380 -0.0156 -0.5121  0.6531
57738SOL    HW290825   4.616   2.279  13.311 -0.5701 -0.5866 -0.3801
57739SOL     OW90826   5.411   7.761   2.991 -0.2725 -0.1091 -0.3535
57739SOL    HW190827   5.347   7.711   3.043  0.4921 -0.5849  0.1488
57739SOL    HW290828   5.419   7.711   2.910  1.4252 -1.5653  0.6389
57740SOL     OW90829   6.757   5.570   4.926  0.1135  0.1913  0.1737
57740SOL    HW190830   6.731   5.504   4.990  0.4929  2.3982  2.8040
57740SOL    HW290831   6.801   5.521   4.857  0.1670 -2.3096  1.8503
57741SOL     OW90832  12.543   3.503   3.087 -0.2039  0.3422 -0.3782
57741SOL    HW190833  12.511   3.592   3.074  0.3100  0.5380 -0.2955
57741SOL    HW290834  12.491   3.450   3.026 -0.7107  0.6509 -0.2218
57742SOL     OW90835   5.837   4.886  12.975 -0.0760 -0.1044  0.1942
57742SOL    HW190836   5.787   4.887  13.056 -0.5315 -1.7232 -0.0355
57742SOL    HW290837   5.793   4.949  12.919 -0.4800  0.1513  0.7839
57743SOL     OW90838  12.409   7.595  12.469 -0.4732 -0.6394  0.2200
57743SOL    HW190839  12.442   7.511  12.501 -1.4618 -1.0647  0.1484
57743SOL    HW290840  12.426   7.656  12.541 -1.2194 -1.2519  0.9407
57744SOL     OW90841   1.718   8.627   4.317 -0.2783 -0.1533 -0.0883
57744SOL    HW190842   1.650   8.692   4.300 -1.5762 -1.4520 -0.0328
57744SOL    HW290843   1.730   8.582   4.233  0.9205  0.4207 -0.2411
57745SOL     OW90844   0.816   6.131  13.066 -0.4654 -0.0234  0.0343
57745SOL    HW190845   0.750   6.193  13.098  0.8888  1.1288  0.7055
57745SOL    HW290846   0.891   6.143  13.125  0.3475 -1.3224 -0.6766
57746SOL     OW90847   7.268   0.526   9.738  0.5481  0.2502  0.3636
57746SOL    HW190848   7.179   0.557   9.757 -0.1327 -1.2908 -0.1433
57746SOL    HW290849   7.298   0.486   9.820 -0.2269 -1.4490 -0.1437
57747SOL     OW90850   8.947   0.639   0.956  0.1684  0.1796  0.3470
57747SOL    HW190851   9.038   0.636   0.987  0.2776  1.4516  0.2115
57747SOL    HW290852   8.947   0.707   0.889 -0.8795  0.1693  0.3219
57748SOL     OW90853   3.423   7.394  13.061 -0.7434  0.4955  0.1388
57748SOL    HW190854   3.383   7.402  12.974 -3.7023  1.5622  1.4601
57748SOL    HW290855   3.481   7.470  13.068 -0.6228  0.5075 -0.7999
57749SOL     OW90856   5.735  10.045   0.113  0.2044 -0.0667  0.2170
57749SOL    HW190857   5.778  10.130   0.117 -0.4382  0.6149 -3.4289
57749SOL    HW290858   5.805   9.981   0.124  0.6808  0.8110  3.1483
57750SOL     OW90859  11.858   4.223  10.262 -0.4266 -0.7794  0.0823
57750SOL    HW190860  11.818   4.166  10.196 -0.2515 -1.5508  0.6244
57750SOL    HW290861  11.793   4.226  10.333 -0.7875  0.3667 -0.2716
57751SOL     OW90862   7.689   0.634   5.063 -0.2213 -0.5385 -0.6791
57751SOL    HW190863   7.727   0.547   5.081 -1.0397 -0.9270 -0.7829
57751SOL    HW290864   7.695   0.680   5.147  1.4531 -0.1908 -0.9536
57752SOL     OW90865   0.717   7.847  10.512  0.4628  0.0429  0.0091
57752SOL    HW190866   0.664   7.799  10.576  1.7729 -0.3971  0.8096
57752SOL    HW290867   0.731   7.933  10.553  0.0812  0.2904 -0.3686
57753SOL     OW90868   2.333   3.440   3.951  0.1824  0.0345 -0.4121
57753SOL    HW190869   2.280   3.371   3.991  1.5829 -0.4244  0.7400
57753SOL    HW290870   2.354   3.406   3.864  0.7032 -0.9311  0.0771
57754SOL     OW90871   7.451   9.724   2.744  0.0174  0.4265 -0.1230
57754SOL    HW190872   7.510   9.721   2.668  0.8860 -1.3627  0.5703
57754SOL    HW290873   7.364   9.726   2.706  0.4226 -0.9498 -1.2132
57755SOL     OW90874   2.063   8.571  10.108  0.2620 -0.0036  0.3893
57755SOL    HW190875   2.091   8.617  10.029 -0.1972 -0.6887 -0.1927
57755SOL    HW290876   2.144   8.551  10.155  0.6451 -0.5950 -0.4906
57756SOL     OW90877  13.225  10.828  12.873 -0.5138 -0.4473  0.0216
57756SOL    HW190878  13.301  10.820  12.931 -0.2329 -0.7916 -0.3824
57756SOL    HW290879  13.190  10.916  12.891 -1.1632 -0.9821  1.5800
57757SOL     OW90880  12.486   6.071   7.294  0.2672  0.2671 -0.1674
57757SOL    HW190881  12.563   6.115   7.328  0.5541  0.1334 -0.6392
57757SOL    HW290882  12.500   6.067   7.199 -1.7998  3.1789 -0.7336
57758SOL     OW90883  10.897   7.066  11.643 -0.1871  0.2899  0.0916
57758SOL    HW190884  10.811   7.028  11.629 -0.2130  0.5887 -0.6432
57758SOL    HW290885  10.955   6.990  11.657 -0.9825  0.1615  3.4553
57759SOL     OW90886  11.724   6.226   1.752  0.2057  0.1226  0.0255
57759SOL    HW190887  11.697   6.318   1.760 -1.6919 -0.4181  0.2214
57759SOL    HW290888  11.767   6.206   1.835 -1.7692  0.1156  1.1111
57760SOL     OW90889  10.768   6.915   5.380  0.0861  0.5227  0.1931
57760SOL    HW190890  10.831   6.987   5.384  1.4525 -0.5894 -0.4345
57760SOL    HW290891  10.696   6.950   5.327  0.9447  1.2743 -0.5145
57761SOL     OW90892   0.497   2.818  13.229  0.3900  0.3058  0.5118
57761SOL    HW190893   0.543   2.862  13.158  1.7954 -0.8835  0.6524
57761SOL    HW290894   0.488   2.886  13.297  2.6858  0.3901  0.7985
57762SOL     OW90895   9.178  13.896  12.632  0.6664 -0.5799  0.3293
57762SOL    HW190896   9.120  13.969  12.656 -0.6726 -1.8255  1.0472
57762SOL    HW290897   9.213  13.864  12.715  1.6338 -0.4696 -0.0205
57763SOL     OW90898   3.886   5.803   0.991  0.3695  0.3718 -0.0400
57763SOL    HW190899   3.948   5.824   0.921  1.6882  1.7256  1.4633
57763SOL    HW290900   3.803   5.839   0.961  1.1890  2.0599 -0.3891
57764SOL     OW90901   9.486   6.186  10.361  0.4610 -0.0075 -0.0182
57764SOL    HW190902   9.398   6.151  10.376  0.6140 -0.6190 -0.4967
57764SOL    HW290903   9.478   6.240  10.283  0.8524 -1.4789 -1.1263
57765SOL     OW90904   3.404   4.952   0.524 -0.3649 -0.5270 -0.3429
57765SOL    HW190905   3.385   5.003   0.445 -0.7205 -1.6919 -1.0188
57765SOL    HW290906   3.494   4.921   0.511 -0.3572 -0.5643 -0.2010
57766SOL     OW90907   7.622   5.015   1.128  0.0019 -0.6466 -0.3949
57766SOL    HW190908   7.555   4.947   1.141 -0.5900 -0.1415 -0.7517
57766SOL    HW290909   7.626   5.027   1.033 -0.5503  0.4603 -0.2882
57767SOL     OW90910  12.339   7.118   6.145 -0.1621 -0.3736  0.0772
57767SOL    HW190911  12.275   7.051   6.122 -0.4507 -0.0100 -0.1874
57767SOL    HW290912  12.376   7.146   6.062 -0.7242  0.4653  0.1032
57768SOL     OW90913   9.720   0.092   3.576  0.2721 -0.0322 -0.1945
57768SOL    HW190914   9.803   0.072   3.619 -0.4283 -0.1631  1.1654
57768SOL    HW290915   9.731   0.063   3.486  1.6870 -0.0671 -0.0251
57769SOL     OW90916  11.486   9.522   6.058  0.4211 -0.3715  0.2553
57769SOL    HW190917  11.480   9.554   6.148  0.7253  0.8539 -0.1427
57769SOL    HW290918  11.503   9.600   6.006 -0.5365 -0.9368 -0.9660
57770SOL     OW90919  13.115   6.137  12.404 -0.5915 -0.2384 -0.0374
57770SOL    HW190920  13.062   6.163  12.479  0.1502 -1.6535  1.0117
57770SOL    HW290921  13.052   6.097  12.343 -1.3899  1.9178 -0.7472
57771SOL     OW90922   5.898  11.671   1.106 -0.5815 -0.3727 -0.4242
57771SOL    HW190923   5.819  11.692   1.057 -1.1465 -1.2631  0.0723
57771SOL    HW290924   5.868  11.615   1.178  0.3916 -0.0669  0.2414
57772SOL     OW90925   1.175  13.701   3.107 -0.4722  0.0599  0.2667
57772SOL    HW190926   1.191  13.700   3.202 -1.6821  0.6604  0.5053
57772SOL    HW290927   1.198  13.791   3.080 -1.5718  0.3597  0.2850
57773SOL     OW90928   5.074   3.746  12.400 -0.6490 -0.2083  0.3627
57773SOL    HW190929   5.140   3.758  12.468  0.7042 -0.2541 -0.8940
57773SOL    HW290930   4.995   3.787  12.436  0.3349  0.7966  1.4846
57774SOL     OW90931   5.151   8.905   2.182  0.6335  0.0272 -0.4486
57774SOL    HW190932   5.076   8.890   2.124  0.4478 -1.9773  0.2194
57774SOL    HW290933   5.228   8.893   2.126  0.4767  1.2505 -0.9472
57775SOL     OW90934   0.132  10.181  12.975 -0.3222  0.2340  0.2368
57775SOL    HW190935   0.077  10.161  13.052 -0.5411 -0.5729 -0.1114
57775SOL    HW290936   0.140  10.276  12.975 -2.3353  0.4587 -0.0965
57776SOL     OW90937   3.522   3.680   4.706 -0.0644 -0.0367 -0.3162
57776SOL    HW190938   3.463   3.636   4.767 -0.9295 -1.1527 -1.8843
57776SOL    HW290939   3.602   3.627   4.708 -1.2765 -2.1817 -2.5804
57777SOL     OW90940   1.583   9.295   8.044 -0.1379  0.2823  0.0734
57777SOL    HW190941   1.540   9.261   8.122 -0.7765  1.6244  0.3380
57777SOL    HW290942   1.521   9.358   8.008 -0.4657 -1.2866 -2.3156
57778SOL     OW90943   4.043  13.700   9.659  0.0233  0.2506 -0.1265
57778SOL    HW190944   4.081  13.615   9.639 -1.7747 -0.4787 -0.5781
57778SOL    HW290945   4.011  13.692   9.749  0.6723  0.7798  0.1642
57779SOL     OW90946   5.671   7.646  13.452 -0.2747  0.5380  0.2940
57779SOL    HW190947   5.645   7.566  13.407  0.3423  0.1442  0.6272
57779SOL    HW290948   5.595   7.704  13.445 -0.2829  0.3912 -1.0343
57780SOL     OW90949  11.319   0.012   7.157  0.4484  0.2959 -0.4745
57780SOL    HW190950  11.363   0.093   7.184  1.8616  0.1250 -2.0661
57780SOL    HW290951  11.346  -0.000   7.065  0.7085 -2.2221 -0.1363
57781SOL     OW90952   3.590   7.570  13.186  0.2251 -0.1564  0.2147
57781SOL    HW190953   3.621   7.652  13.149  0.0072 -0.3379 -0.3738
57781SOL    HW290954   3.662   7.539  13.241 -0.9378  2.2270  3.4622
57782SOL     OW90955   4.507   5.450  10.852 -0.1653  0.0198  1.1457
57782SOL    HW190956   4.532   5.432  10.761 -1.6150 -0.9711  0.9245
57782SOL    HW290957   4.569   5.399  10.904  0.1829 -0.0282  0.6939
57783SOL     OW90958   2.223   8.503  10.304  0.4034  0.2546  0.5828
57783SOL    HW190959   2.313   8.517  10.334  0.2925 -0.3776  1.2146
57783SOL    HW290960   2.212   8.408  10.303  0.1022  0.2781 -0.5904
57784SOL     OW90961   9.807   0.796  10.606  0.1941  0.0427  0.0169
57784SOL    HW190962   9.838   0.860  10.541  0.8465 -0.7187 -0.4406
57784SOL    HW290963   9.829   0.835  10.690 -0.9499  1.1938 -0.1813
57785SOL     OW90964   4.140   8.976   9.954 -0.2672 -0.7250  0.2672
57785SOL    HW190965   4.124   8.999  10.046  2.1860 -2.1783  1.1623
57785SOL    HW290966   4.060   9.000   9.909 -1.0230  1.4315  2.5150
57786SOL     OW90967   6.943  12.346   2.263  0.0998 -0.5144 -0.0653
57786SOL    HW190968   6.867  12.396   2.293 -0.5570 -1.1432 -0.6382
57786SOL    HW290969   6.930  12.337   2.168  1.1155 -0.2621 -0.2405
57787SOL     OW90970  13.293   2.981   0.236  0.1204 -0.1457 -0.0760
57787SOL    HW190971  13.300   2.954   0.327  0.3394 -1.3129 -0.4246
57787SOL    HW290972  13.203   2.958   0.210  0.2136 -0.2850 -0.2875
57788SOL     OW90973   8.871  12.327   6.612  0.2371 -0.1615  0.3767
57788SOL    HW190974   8.821  12.257   6.653 -0.7472  0.6053  0.5121
57788SOL    HW290975   8.960  12.315   6.644 -0.2124 -0.4820  1.5463
57789SOL     OW90976   3.377   5.101   7.711  0.3559  0.0414  0.8752
57789SOL    HW190977   3.371   5.028   7.649  0.2116  0.5886  0.2403
57789SOL    HW290978   3.295   5.148   7.701  1.3571  1.6282 -0.4029
57790SOL     OW90979   2.757   9.182   6.909 -0.1358  0.0627 -0.1615
57790SOL    HW190980   2.760   9.252   6.844 -0.4368  0.1496 -0.0810
57790SOL    HW290981   2.831   9.126   6.887  1.2015  1.3464  0.8388
57791SOL     OW90982  11.084   1.824   7.871  0.2616 -0.3042 -0.1568
57791SOL    HW190983  11.047   1.752   7.923  1.0572 -1.0395 -0.5923
57791SOL    HW290984  11.067   1.902   7.924 -2.5436 -0.4876 -0.6563
57792SOL     OW90985   7.554   0.835  13.554 -0.3668 -0.4394  0.3509
57792SOL    HW190986   7.461   0.848  13.573 -0.9477 -0.9376 -1.8263
57792SOL    HW290987   7.581   0.916  13.510 -0.0961 -0.7484 -0.0644
57793SOL     OW90988   8.805  10.322   7.563 -0.2355 -0.1306 -0.0518
57793SOL    HW190989   8.767  10.367   7.639  0.2369 -0.4544  0.3828
57793SOL    HW290990   8.736  10.262   7.534  0.2695 -1.4859  1.3797
57794SOL     OW90991  12.342   6.230  12.545 -0.6753 -0.2241 -0.4341
57794SOL    HW190992  12.287   6.178  12.604 -0.9337 -0.3460 -0.7711
57794SOL    HW290993  12.283   6.251  12.472 -1.0700  1.9531  0.4567
57795SOL     OW90994  12.419   7.323   9.924  0.4105 -0.4763 -0.9016
57795SOL    HW190995  12.434   7.400   9.871  0.1535 -0.6144 -1.1789
57795SOL    HW290996  12.418   7.355  10.014 -0.3489 -0.0557 -1.0581
57796SOL     OW90997   9.744   4.539  12.393 -0.1345 -0.1605  0.0764
57796SOL    HW190998   9.690   4.523  12.315  0.0672 -0.6657  0.0336
57796SOL    HW290999   9.688   4.590  12.451 -0.4155 -0.0899 -0.2538
57797SOL     OW91000   2.039  13.748   1.833  0.0363  0.2836  0.1418
57797SOL    HW191001   1.990  13.734   1.752  0.7361  1.1012 -0.4519
57797SOL    HW291002   2.080  13.663   1.851  0.9749  0.4282 -1.1462
57798SOL     OW91003   2.322   2.648   7.850  0.0350 -0.1097  0.2783
57798SOL    HW191004   2.261   2.649   7.776  1.1947 -0.6186 -0.7079
57798SOL    HW291005   2.272   2.688   7.921 -1.0604  0.5454 -0.8039
57799SOL     OW91006   1.318   3.057   4.045 -0.1712 -0.2689  0.2414
57799SOL    HW191007   1.238   3.037   3.996  0.5245 -1.2026 -0.5508
57799SOL    HW291008   1.350   3.138   4.005 -0.5575 -0.0629  0.3490
57800SOL     OW91009   7.758   4.699   3.109  0.1229 -0.2123  0.4228
57800SOL    HW191010   7.821   4.719   3.179 -0.0385  2.0673 -0.0039
57800SOL    HW291011   7.809   4.706   3.029 -0.2816 -0.0689  0.1769
57801SOL     OW91012   1.864   1.839   1.274  0.2298  0.2691 -0.9866
57801SOL    HW191013   1.777   1.853   1.312  0.3357 -1.9920  0.2359
57801SOL    HW291014   1.907   1.924   1.282 -1.2265  0.9545  0.0975
57802SOL     OW91015   9.947   9.787  13.993 -0.2293  1.0610  0.0456
57802SOL    HW191016   9.970   9.782  14.086 -1.4738  0.9020  0.3646
57802SOL    HW291017   9.892   9.710  13.978 -2.3937  2.5381 -0.0974
57803SOL     OW91018   4.403   2.254  13.927 -0.0367  0.1451 -0.2253
57803SOL    HW191019   4.434   2.318  13.991 -0.3525  0.2215 -0.1485
57803SOL    HW291020   4.347   2.195  13.978  0.3784 -0.2874 -0.2597
57804SOL     OW91021  10.839  13.634   5.860 -0.0332  0.0809  0.0051
57804SOL    HW191022  10.767  13.692   5.885  0.6299  0.1147  2.0541
57804SOL    HW291023  10.809  13.547   5.887 -0.1596 -0.2301 -1.1067
57805SOL     OW91024   4.641   6.809  14.042  0.6910  0.0211  0.1361
57805SOL    HW191025   4.646   6.848  13.955  2.4275 -0.6487 -0.1171
57805SOL    HW291026   4.562   6.846  14.081 -0.8053 -0.5958 -2.1561
57806SOL     OW91027   0.817   3.647   0.255  0.4049  0.1761  0.5722
57806SOL    HW191028   0.878   3.587   0.212 -0.5028  0.3692 -1.0501
57806SOL    HW291029   0.864   3.677   0.333  1.3582 -1.6664  0.7622
57807SOL     OW91030   2.345   8.418  11.558 -0.5841 -0.2345 -0.6553
57807SOL    HW191031   2.386   8.340  11.594 -0.4647  1.0593  2.2998
57807SOL    HW291032   2.416   8.483  11.556 -0.7749 -0.0325 -2.6815
57808SOL     OW91033   4.484   6.926   3.818  0.5545 -0.0793  0.5484
57808SOL    HW191034   4.516   6.905   3.730 -0.5317  0.9524 -0.1255
57808SOL    HW291035   4.424   6.854   3.839  1.0227 -0.4699  0.5611
57809SOL     OW91036   7.828   0.358   3.833  0.3160 -0.0173  0.2281
57809SOL    HW191037   7.874   0.363   3.916  2.3761  2.4690 -0.9345
57809SOL    HW291038   7.845   0.269   3.802 -0.0055 -0.7921  2.1350
57810SOL     OW91039   8.085   3.053   8.373  0.3786 -0.2702 -0.4647
57810SOL    HW191040   8.040   3.076   8.455  3.2328 -0.8625  1.4230
57810SOL    HW291041   8.137   3.130   8.352  0.1490 -0.3597 -1.3745
57811SOL     OW91042  11.941   7.559   6.664 -0.4826 -0.3304 -0.2291
57811SOL    HW191043  11.991   7.511   6.597 -1.1547  1.4522 -2.1131
57811SOL    HW291044  11.850   7.546   6.639 -0.7261  0.6606  0.1261
57812SOL     OW91045   5.655   4.830   5.167 -0.0917 -0.0844 -0.6098
57812SOL    HW191046   5.606   4.911   5.155  0.7162  0.4930 -0.1344
57812SOL    HW291047   5.714   4.849   5.240 -1.7004 -1.9514  1.2940
57813SOL     OW91048  10.251   4.390   8.303  0.0325  0.1401 -0.1764
57813SOL    HW191049  10.343   4.363   8.311  0.1773  0.7578  0.3232
57813SOL    HW291050  10.254   4.470   8.251 -0.1429  0.5628  0.4480
57814SOL     OW91051   2.068   7.025   4.584  0.5813 -0.7006  0.3945
57814SOL    HW191052   2.047   7.117   4.599 -0.2173 -0.8377  0.1923
57814SOL    HW291053   1.990   6.990   4.540  1.5119 -1.0999 -1.0061
57815SOL     OW91054   1.647   4.691   4.261 -0.4410 -0.3648  0.8934
57815SOL    HW191055   1.578   4.747   4.296 -1.8094  0.6922 -2.9846
57815SOL    HW291056   1.601   4.615   4.226  0.6267 -0.7121  0.2048
57816SOL     OW91057   1.537  10.902   1.422  0.0156  0.2854  0.6783
57816SOL    HW191058   1.460  10.847   1.429  0.4117 -0.5161 -0.9010
57816SOL    HW291059   1.540  10.929   1.330 -0.4160  3.3787  1.4529
57817SOL     OW91060  13.576   7.282   0.984  0.9562 -0.3750  0.4510
57817SOL    HW191061  13.663   7.282   0.944  0.8472 -0.1353  0.2126
57817SOL    HW291062  13.533   7.205   0.947 -0.3047  1.5411 -2.4670
57818SOL     OW91063   8.785   1.658   7.105 -0.6402  0.1312  0.2350
57818SOL    HW191064   8.756   1.567   7.096  2.2612 -0.8634 -0.2167
57818SOL    HW291065   8.776   1.694   7.017 -0.1379 -0.2941  0.0012
57819SOL     OW91066  11.977  12.764   7.121  0.6684  0.5065 -0.1793
57819SOL    HW191067  11.901  12.718   7.155  1.3800 -0.3421  0.3046
57819SOL    HW291068  11.944  12.812   7.045 -0.0048 -1.2147 -1.0347
57820SOL     OW91069  11.409   7.375   4.796  0.0275  0.6469  0.1033
57820SOL    HW191070  11.484   7.324   4.825  1.5278  2.3382 -0.6028
57820SOL    HW291071  11.430   7.400   4.706 -2.2053 -0.2696 -0.7671
57821SOL     OW91072  12.731  12.968   5.091 -0.5964  1.0547 -0.1878
57821SOL    HW191073  12.745  12.875   5.107  2.0598  1.4465  0.3077
57821SOL    HW291074  12.768  12.983   5.003 -0.7757  1.6746 -0.1606
57822SOL     OW91075   0.829  10.260  10.917  0.4068 -0.0581 -0.6507
57822SOL    HW191076   0.901  10.200  10.941 -0.6966 -0.7529  1.1067
57822SOL    HW291077   0.751  10.205  10.918 -0.4074  1.0659 -0.6946
57823SOL     OW91078   3.931   0.019   1.926  0.1800  0.4001  0.3436
57823SOL    HW191079   3.901   0.101   1.887 -1.1198 -0.0525  0.3397
57823SOL    HW291080   3.861  -0.007   1.985  0.7665 -0.4970  0.6721
57824SOL     OW91081  11.571   2.047   7.650 -0.3007 -0.4280 -0.6795
57824SOL    HW191082  11.546   1.964   7.690  3.2559 -1.9728 -1.2882
57824SOL    HW291083  11.581   2.027   7.557 -0.1627  0.9180 -0.9714
57825SOL     OW91084   1.049   3.208  10.052 -0.0162  0.6806 -0.1400
57825SOL    HW191085   1.099   3.220   9.971  0.3219  2.2830  0.2602
57825SOL    HW291086   0.961   3.241  10.030  0.0642  1.0782  0.1191
57826SOL     OW91087  10.449   1.241  12.091 -0.2894 -0.6090  0.0726
57826SOL    HW191088  10.367   1.201  12.122  0.2381  0.0670  2.5935
57826SOL    HW291089  10.434   1.335  12.100 -0.9566 -0.1113 -4.3100
57827SOL     OW91090  13.059  11.701   0.237 -0.2565 -0.1881 -0.3061
57827SOL    HW191091  13.022  11.789   0.234 -0.5135 -0.2813  0.1790
57827SOL    HW291092  13.150  11.715   0.263 -0.6425 -0.1634  1.0729
57828SOL     OW91093   7.815   8.082   2.621 -0.1947 -0.5333  0.3354
57828SOL    HW191094   7.800   8.158   2.678 -1.0788  1.0648 -1.8578
57828SOL    HW291095   7.907   8.089   2.596 -0.6576  0.9020 -1.1813
57829SOL     OW91096   5.740   5.589  11.457 -0.8995 -0.5948  0.6263
57829SOL    HW191097   5.813   5.637  11.496  0.8763 -2.6589  0.0654
57829SOL    HW291098   5.729   5.627  11.370  1.4350 -1.9424 -0.3793
57830SOL     OW91099   6.298   0.030   2.848 -0.1588  0.6337 -0.1681
57830SOL    HW191100   6.388   0.006   2.871 -0.1242  1.0522  0.1525
57830SOL    HW291101   6.287  -0.002   2.759  0.4714  1.0003 -0.3909
57831SOL     OW91102  12.111  11.348   9.549  0.1422  0.5447 -0.0898
57831SOL    HW191103  12.136  11.304   9.467  0.3426  0.7966 -0.1668
57831SOL    HW291104  12.162  11.429   9.548  0.4387  0.3672  0.4734
57832SOL     OW91105   5.730   7.463   6.805  0.5958 -0.0324  0.3797
57832SOL    HW191106   5.676   7.405   6.859 -1.3038  1.9154  0.7305
57832SOL    HW291107   5.732   7.546   6.853  2.9928  0.3281 -0.2185
57833SOL     OW91108   2.686   8.137   5.557 -0.0500  0.1497 -0.0456
57833SOL    HW191109   2.716   8.215   5.511 -0.0621  0.1789 -0.0034
57833SOL    HW291110   2.734   8.065   5.516  1.4919  0.3804  1.2784
57834SOL     OW91111   6.380   4.888   2.841  0.3853 -0.2553 -0.4204
57834SOL    HW191112   6.436   4.959   2.872  0.3984 -0.1140 -0.7684
57834SOL    HW291113   6.295   4.905   2.882  0.6230 -0.5419  0.2102
57835SOL     OW91114  12.384   6.311   6.375  0.2911  0.0919 -0.0153
57835SOL    HW191115  12.294   6.341   6.387 -0.6852 -2.0337 -1.3797
57835SOL    HW291116  12.421   6.309   6.463 -1.1581  0.5552  0.6253
57836SOL     OW91117   0.703   2.742   2.443  0.0256  0.6766 -0.3525
57836SOL    HW191118   0.751   2.691   2.508 -1.2621  0.8354  0.7674
57836SOL    HW291119   0.735   2.832   2.455 -0.4072  0.7521  0.2675
57837SOL     OW91120  10.879   1.306   3.974  0.4311 -0.7234 -0.0150
57837SOL    HW191121  10.879   1.390   4.020  1.7495 -0.8915  0.3291
57837SOL    HW291122  10.786   1.282   3.967 -0.1008  1.4896 -1.5102
57838SOL     OW91123   8.798   2.698  12.856  0.1344  0.4102 -0.3267
57838SOL    HW191124   8.836   2.771  12.904 -0.1333  1.3034 -1.4160
57838SOL    HW291125   8.873   2.653  12.817  0.3424 -0.2507  0.7973
57839SOL     OW91126   6.773   1.179   0.289 -0.4089 -0.6908 -0.3816
57839SOL    HW191127   6.728   1.255   0.327  0.4242  0.7699 -2.1605
57839SOL    HW291128   6.708   1.140   0.230 -0.1166  0.0865 -1.2504
57840SOL     OW91129  12.456   9.907  10.826  0.0669  0.4433 -0.0134
57840SOL    HW191130  12.542   9.937  10.853 -0.4287  0.7219  1.3254
57840SOL    HW291131  12.467   9.882  10.734  1.3694  1.2216 -0.0924
57841SOL     OW91132  12.153   6.116   5.345  0.4183  0.0334  0.7242
57841SOL    HW191133  12.076   6.153   5.388  0.7369  0.8120  0.6430
57841SOL    HW291134  12.127   6.027   5.322 -0.7207  0.5154  0.0410
57842SOL     OW91135   5.114   5.645   5.291  0.1913 -0.1547 -0.1767
57842SOL    HW191136   5.052   5.592   5.242 -0.7117  0.9905 -0.3233
57842SOL    HW291137   5.067   5.669   5.371  0.8565 -0.2139  0.2390
57843SOL     OW91138   7.349   7.774   3.180 -0.8185 -0.7011 -0.1686
57843SOL    HW191139   7.363   7.804   3.270 -2.3481 -1.3541  0.3171
57843SOL    HW291140   7.339   7.679   3.188  1.5320 -1.1301 -1.3766
57844SOL     OW91141   7.848  10.029  14.092  0.0911 -0.0601  0.2299
57844SOL    HW191142   7.851  10.028  13.996 -0.8726  0.2159  0.1848
57844SOL    HW291143   7.939  10.016  14.119  0.7057  1.9262 -0.7280
57845SOL     OW91144  10.447   1.825  13.567 -0.2789 -0.3489  0.5210
57845SOL    HW191145  10.533   1.856  13.537 -0.1391 -0.3524  0.9122
57845SOL    HW291146  10.452   1.729  13.558 -0.4135 -0.3201  0.1007
57846SOL     OW91147  12.537   6.085   1.215  0.2894  0.5269 -0.4462
57846SOL    HW191148  12.567   6.070   1.305 -1.2532  0.5988  0.1131
57846SOL    HW291149  12.591   6.157   1.183 -0.9454  2.4248  1.4362
57847SOL     OW91150   6.018   3.852   2.393 -0.1793  0.1425 -0.1811
57847SOL    HW191151   5.947   3.841   2.456 -0.7484  0.8737 -0.6723
57847SOL    HW291152   6.050   3.763   2.377 -0.3432 -0.1024  0.7602
57848SOL     OW91153   1.441  11.304  13.727  0.1519  0.2615 -0.1882
57848SOL    HW191154   1.461  11.347  13.810  0.1905  1.3124 -0.7179
57848SOL    HW291155   1.480  11.362  13.661 -0.9230  0.0750 -1.0031
57849SOL     OW91156   3.085   5.257   2.197  0.2283  0.0522  0.5970
57849SOL    HW191157   2.992   5.249   2.177  0.1420  2.2890 -0.1652
57849SOL    HW291158   3.088   5.305   2.280  0.7148 -0.3367  0.8127
57850SOL     OW91159   6.707  13.726   1.916  0.2117 -0.3597 -0.0573
57850SOL    HW191160   6.742  13.707   1.829  0.6385  0.2480 -0.0252
57850SOL    HW291161   6.707  13.642   1.961  0.6038 -0.5646 -0.4306
57851SOL     OW91162   1.088   7.288   2.401  0.2788 -0.4642  0.6156
57851SOL    HW191163   1.003   7.312   2.437  0.3887 -0.1298  0.6578
57851SOL    HW291164   1.127   7.371   2.375  0.0872 -0.7027 -0.5294
57852SOL     OW91165  10.230   7.317   4.089 -0.2118  0.0103 -0.2843
57852SOL    HW191166  10.321   7.302   4.115 -0.0855  0.3694 -0.5128
57852SOL    HW291167  10.224   7.412   4.077 -0.5020 -0.0584 -0.6859
57853SOL     OW91168   0.991   8.653   1.962  0.2212 -0.1624  0.2666
57853SOL    HW191169   1.070   8.602   1.980  1.7136  1.6877 -0.5352
57853SOL    HW291170   0.976   8.703   2.042 -1.8707 -2.4783  1.4522
57854SOL     OW91171   6.932   8.267   4.746 -0.2364 -0.0126  0.0580
57854SOL    HW191172   6.951   8.177   4.720  2.4095  0.3079  0.6133
57854SOL    HW291173   7.006   8.318   4.711 -0.2538  1.5160  2.0846
57855SOL     OW91174   9.513  13.220   6.406  0.0572 -0.0976  0.0109
57855SOL    HW191175   9.595  13.246   6.448 -0.0540 -0.6435  0.5775
57855SOL    HW291176   9.476  13.302   6.374  0.9235  0.1321 -0.4393
57856SOL     OW91177   8.946   0.417  11.388  0.1235  0.0453 -0.2000
57856SOL    HW191178   8.951   0.339  11.333  0.4342  0.1183 -0.2785
57856SOL    HW291179   8.852   0.433  11.400  0.0491 -0.7416  0.3863
57857SOL     OW91180   3.113   0.928   8.171  0.1978 -0.4726 -0.2239
57857SOL    HW191181   3.159   0.853   8.208  1.7036  0.7932  0.5970
57857SOL    HW291182   3.114   0.994   8.241 -0.0811  0.7118 -1.2844
57858SOL     OW91183  13.190   8.507   9.971 -0.2211 -0.1769 -0.5244
57858SOL    HW191184  13.254   8.539   9.908  0.3152  0.8623  0.4986
57858SOL    HW291185  13.232   8.433  10.014  0.6088  0.9197  0.6174
57859SOL     OW91186   6.608  12.466   4.261  0.5435  0.1735  0.3821
57859SOL    HW191187   6.674  12.491   4.196  0.7162 -1.1177  0.0489
57859SOL    HW291188   6.647  12.490   4.345 -0.5720  3.9867  0.0232
57860SOL     OW91189  12.422   6.539  11.306  0.1977  0.8023 -0.3438
57860SOL    HW191190  12.473   6.584  11.238  0.4801 -0.0058 -0.6836
57860SOL    HW291191  12.331   6.549  11.278  0.3481 -0.1576 -1.2764
57861SOL     OW91192  13.230   2.547   3.672  0.1498 -0.1703  0.5831
57861SOL    HW191193  13.285   2.625   3.671  1.4612 -1.0740 -1.1776
57861SOL    HW291194  13.149   2.576   3.714  1.4766  1.5042  2.1405
57862SOL     OW91195  10.965   5.201   7.768 -0.8314 -0.1644 -0.8617
57862SOL    HW191196  10.898   5.192   7.700 -1.2612 -1.9194 -0.2495
57862SOL    HW291197  10.922   5.173   7.848  1.0474 -3.1670 -0.7256
57863SOL     OW91198  11.209   2.026   3.856 -0.4869  0.5847 -0.0611
57863SOL    HW191199  11.159   2.080   3.795 -1.5752 -0.9199 -0.5547
57863SOL    HW291200  11.191   2.063   3.942 -1.8016  0.5615 -0.3168
57864SOL     OW91201   8.124  12.757   7.270 -0.4673  0.3374  0.3408
57864SOL    HW191202   8.205  12.732   7.316 -0.4510 -0.9120 -0.3239
57864SOL    HW291203   8.074  12.806   7.335  0.5322  0.5493  0.9729
57865SOL     OW91204   5.392   4.091   6.778 -1.1837  0.6125  0.1238
57865SOL    HW191205   5.446   4.138   6.714 -0.0074 -0.8122  0.0110
57865SOL    HW291206   5.442   4.012   6.798 -2.8681 -0.3671  0.6687
57866SOL     OW91207   5.121   7.805   1.011  0.3811 -0.4806 -0.7707
57866SOL    HW191208   5.032   7.772   1.022 -0.4331  2.1767  1.8324
57866SOL    HW291209   5.110   7.897   0.989  2.5042 -0.1130 -0.4913
57867SOL     OW91210   2.431  11.307  13.701 -0.4506 -0.1482  0.2698
57867SOL    HW191211   2.420  11.277  13.611  0.3188 -0.1685  0.1681
57867SOL    HW291212   2.399  11.397  13.701 -3.5238 -1.1548  0.7604
57868SOL     OW91213  10.175   1.831   8.634  0.0528 -0.5458  0.2800
57868SOL    HW191214  10.242   1.870   8.578  0.4482  1.4656  2.0518
57868SOL    HW291215  10.092   1.858   8.595  0.2914 -0.8565 -0.4540
57869SOL     OW91216   8.593   4.673  13.561 -0.7840 -0.5044 -0.5297
57869SOL    HW191217   8.645   4.702  13.485  0.5177 -0.4821  0.3333
57869SOL    HW291218   8.539   4.749  13.583  1.2320  0.7087  0.5524
57870SOL     OW91219   5.192   5.485  11.544  0.1753  0.8890 -0.0758
57870SOL    HW191220   5.202   5.510  11.636  1.1728 -0.2585  0.1669
57870SOL    HW291221   5.229   5.558  11.495  1.6234  0.6047  0.5382
57871SOL     OW91222   2.136   3.104   8.054 -0.4060 -0.0507 -0.4675
57871SOL    HW191223   2.089   3.082   7.974 -1.5085 -0.5839  0.3097
57871SOL    HW291224   2.068   3.126   8.118  0.4604  0.7152  0.2416
57872SOL     OW91225  13.394  13.268   9.566 -0.3474  0.2250  0.5255
57872SOL    HW191226  13.472  13.324   9.563  0.3604 -0.5920  2.3768
57872SOL    HW291227  13.429  13.179   9.571 -1.3785 -0.8423 -4.7663
57873SOL     OW91228   9.820   1.232   1.615 -0.2642 -0.3224  0.2991
57873SOL    HW191229   9.872   1.310   1.598 -0.2222  0.3257  2.9254
57873SOL    HW291230   9.757   1.229   1.543 -0.6219  2.4808  0.3760
57874SOL     OW91231   5.049   0.495  10.420  0.2481 -0.1844 -0.0701
57874SOL    HW191232   5.070   0.507  10.513  2.3200  0.6274 -0.6110
57874SOL    HW291233   4.989   0.567  10.400  1.1693  0.6852  0.2333
57875SOL     OW91234   6.738   7.144   0.436 -0.0362  0.2152  0.4120
57875SOL    HW191235   6.830   7.155   0.412  0.9042  0.3744  3.6215
57875SOL    HW291236   6.722   7.050   0.425  0.2736  0.2828 -0.7908
57876SOL     OW91237   2.513   2.182   0.645 -0.2315  0.2591  0.2413
57876SOL    HW191238   2.602   2.170   0.613 -0.1479  1.3572 -0.0051
57876SOL    HW291239   2.492   2.100   0.689  1.2120  0.2796  1.0492
57877SOL     OW91240   3.061  14.069   1.664  0.1780 -0.5234  0.2788
57877SOL    HW191241   2.971  14.092   1.638  0.8355  3.7601  1.0246
57877SOL    HW291242   3.050  14.011   1.739 -2.2614  2.6904  2.6979
57878SOL     OW91243  11.172  13.793  12.790 -0.3708 -0.0677  0.5782
57878SOL    HW191244  11.169  13.698  12.779  0.5806 -0.2537  1.6327
57878SOL    HW291245  11.105  13.826  12.731  0.2411 -1.2963 -0.8921
57879SOL     OW91246   6.443   5.560   1.743 -0.2287  0.0338 -0.3380
57879SOL    HW191247   6.435   5.541   1.649 -1.4999 -0.0391 -0.2306
57879SOL    HW291248   6.387   5.495   1.785  1.9973 -1.3555  0.6740
57880SOL     OW91249   8.278   3.855   9.952  0.1986 -0.3850  0.6336
57880SOL    HW191250   8.313   3.944   9.948 -0.2465 -0.2297  0.0708
57880SOL    HW291251   8.337   3.803   9.897 -0.8401  0.0178 -0.9122
57881SOL     OW91252  13.711  12.484   4.774  0.6668 -0.3019  0.7084
57881SOL    HW191253  13.629  12.516   4.811 -0.1850 -0.4235 -0.9687
57881SOL    HW291254  13.726  12.539   4.697  0.6823 -1.9953 -0.5802
57882SOL     OW91255  13.280  13.780   1.911 -0.0862  0.1701  0.0457
57882SOL    HW191256  13.256  13.856   1.859 -1.4364 -0.3721 -0.1634
57882SOL    HW291257  13.200  13.758   1.960  0.1500 -1.3472 -0.2022
57883SOL     OW91258   7.408   8.040   1.936  0.5013 -0.0203  0.5118
57883SOL    HW191259   7.344   7.975   1.966 -0.8310 -0.2017 -2.3515
57883SOL    HW291260   7.397   8.113   1.996 -0.2004 -1.2390  1.9454
57884SOL     OW91261   2.571  13.939   8.708  0.0696  0.1766  0.0805
57884SOL    HW191262   2.548  13.959   8.617 -0.9481 -1.0024  0.0506
57884SOL    HW291263   2.658  13.898   8.703 -1.6284 -3.7695 -0.9375
57885SOL     OW91264   3.587   7.047  10.364 -0.1316  0.3588 -0.3419
57885SOL    HW191265   3.545   6.961  10.356  0.9069 -0.0474 -1.9779
57885SOL    HW291266   3.538   7.091  10.434 -1.0340 -1.3459  0.1707
57886SOL     OW91267   2.276   6.894   6.271  0.3112  0.3613 -0.0387
57886SOL    HW191268   2.245   6.985   6.273  0.4852  0.4321 -0.4674
57886SOL    HW291269   2.338   6.891   6.199 -0.5592 -0.3793 -0.7929
57887SOL     OW91270  13.345   4.412   5.325  0.3868 -0.0767  0.3975
57887SOL    HW191271  13.251   4.407   5.345  0.2005 -1.4472 -0.6621
57887SOL    HW291272  13.370   4.501   5.350 -1.4552  0.7286 -0.4094
57888SOL     OW91273   0.440   5.752   4.390  0.4263 -0.4332  0.1307
57888SOL    HW191274   0.439   5.657   4.381  1.9492 -0.4159 -0.6346
57888SOL    HW291275   0.462   5.768   4.482 -1.9422 -0.7605  0.8157
57889SOL     OW91276   5.081   0.924   2.065 -0.0687  0.4937 -0.0985
57889SOL    HW191277   5.165   0.966   2.083 -0.9711  2.4683 -0.1817
57889SOL    HW291278   5.088   0.837   2.104  2.0088  0.5941 -0.1543
57890SOL     OW91279  11.822   9.982  14.063 -0.2199  0.8093 -0.3065
57890SOL    HW191280  11.893   9.960  14.002 -0.0613  1.5723 -0.4122
57890SOL    HW291281  11.745   9.990  14.008 -0.6101 -0.9441 -0.0745
57891SOL     OW91282   9.957  12.318   8.843 -0.5186  0.3747  0.3000
57891SOL    HW191283   9.979  12.229   8.815 -0.1022  0.9585 -1.3981
57891SOL    HW291284  10.040  12.355   8.874 -0.7578  0.0735  1.3053
57892SOL     OW91285  14.057   2.033   9.928 -1.0872 -0.1001  0.7657
57892SOL    HW191286  14.053   1.973   9.853 -0.5096  0.4758  0.2501
57892SOL    HW291287  14.090   1.980  10.000 -0.4798 -0.3816  0.2896
57893SOL     OW91288  13.296   1.662   8.067 -0.1069  0.6137  0.1161
57893SOL    HW191289  13.281   1.699   8.154 -2.6273 -1.6209  0.7350
57893SOL    HW291290  13.317   1.570   8.083 -1.6919 -0.1126 -1.6548
57894SOL     OW91291   4.296  10.744  10.677 -0.1975  0.4156 -0.0478
57894SOL    HW191292   4.305  10.804  10.752 -0.4615  0.8041 -0.3210
57894SOL    HW291293   4.204  10.750  10.651 -0.0111  0.6501 -0.6943
57895SOL     OW91294   8.532   2.603   3.869  0.1362  0.0865  0.1823
57895SOL    HW191295   8.618   2.598   3.910  0.3546 -1.3134 -0.3810
57895SOL    HW291296   8.547   2.647   3.785  0.4104 -0.6521 -0.1609
57896SOL     OW91297  12.317  13.041   1.651  0.1347  0.1358 -0.1718
57896SOL    HW191298  12.265  12.978   1.701  1.8789 -1.3100 -0.0408
57896SOL    HW291299  12.256  13.076   1.585 -0.7099 -2.4847 -0.9191
57897SOL     OW91300   1.113   8.089   0.211 -0.1591 -0.2338 -0.4932
57897SOL    HW191301   1.039   8.038   0.177 -0.0198 -1.2555  0.6699
57897SOL    HW291302   1.187   8.063   0.156 -0.5365  0.3708 -1.3032
57898SOL     OW91303  11.339   7.086  11.955  0.3736 -0.2280  0.5440
57898SOL    HW191304  11.429   7.093  11.985  0.4523  0.0104  0.2601
57898SOL    HW291305  11.336   7.139  11.875  0.0981 -0.6084  0.2957
57899SOL     OW91306   7.426  12.748   7.750 -0.1613  0.2405 -0.7137
57899SOL    HW191307   7.379  12.831   7.753 -0.1770  0.2248 -0.4950
57899SOL    HW291308   7.442  12.733   7.657  0.7577  1.0051 -0.6984
57900SOL     OW91309   8.755   6.516   1.913  0.4848 -0.3200  0.0883
57900SOL    HW191310   8.771   6.610   1.908 -0.1012 -0.2028  0.3097
57900SOL    HW291311   8.702   6.505   1.992 -0.1488 -0.7320 -0.3849
57901SOL     OW91312   2.386  10.105   8.870  0.7983  0.2932  0.2109
57901SOL    HW191313   2.437  10.062   8.801  1.1939  2.2419 -0.7995
57901SOL    HW291314   2.432  10.082   8.951 -0.5275 -3.2820  0.1334
57902SOL     OW91315  13.477   7.845   7.121 -0.2310  0.2577 -0.5618
57902SOL    HW191316  13.454   7.753   7.112 -2.5187  0.5931  1.1342
57902SOL    HW291317  13.519   7.852   7.207 -0.8428  0.9315 -0.3075
57903SOL     OW91318  13.102   1.974   9.369  0.3629  0.2003 -0.4251
57903SOL    HW191319  13.041   1.926   9.424  0.7788  0.5647  0.3713
57903SOL    HW291320  13.174   1.912   9.353  0.6868  0.4027  0.2280
57904SOL     OW91321   6.215  11.957  11.982 -0.0567  0.2811 -0.0859
57904SOL    HW191322   6.146  11.957  11.915 -0.4488  0.0765  0.3111
57904SOL    HW291323   6.234  11.864  11.996  0.0244  0.3246  0.0879
57905SOL     OW91324   8.412   2.212   3.314 -0.1948  0.1151 -0.1076
57905SOL    HW191325   8.436   2.121   3.298  0.5321  0.2268  0.3105
57905SOL    HW291326   8.495   2.258   3.324 -0.5213  1.0357 -1.3765
57906SOL     OW91327   1.001   9.718   9.642  0.3955  0.1506  0.7806
57906SOL    HW191328   1.008   9.813   9.643 -1.4754  0.3211 -0.0033
57906SOL    HW291329   0.933   9.699   9.578  0.1389 -1.6811  1.5402
57907SOL     OW91330  11.166   4.050   0.425  0.4238 -0.5339 -0.1637
57907SOL    HW191331  11.233   3.982   0.433  0.3015 -0.6293  0.0555
57907SOL    HW291332  11.168   4.075   0.332 -1.3381 -2.7212 -0.8940
57908SOL     OW91333   8.623   0.789  10.786  0.5060  0.2469 -0.5070
57908SOL    HW191334   8.529   0.772  10.792  0.5833 -0.2982 -0.7824
57908SOL    HW291335   8.656   0.775  10.875  0.3027  0.5816 -0.3801
57909SOL     OW91336  12.920  10.570   1.757 -0.1270 -0.0565 -0.3374
57909SOL    HW191337  12.952  10.531   1.676  1.0497  2.4631 -1.1953
57909SOL    HW291338  12.996  10.570   1.815 -0.7990 -1.2840  0.5785
57910SOL     OW91339  10.186   2.814   1.771 -0.5338 -0.4234 -0.6772
57910SOL    HW191340  10.099   2.778   1.790  0.0494 -0.8639  1.4151
57910SOL    HW291341  10.231   2.814   1.855  1.2019  0.6509 -1.5472
57911SOL     OW91342   1.904  12.063   6.433  0.3091  0.1165 -0.4982
57911SOL    HW191343   1.969  12.046   6.502  0.9470  0.6850 -0.9430
57911SOL    HW291344   1.827  12.013   6.460 -0.1326  1.8249  1.6073
57912SOL     OW91345   0.209   1.710   3.179 -0.1688  0.3796 -0.0303
57912SOL    HW191346   0.273   1.640   3.163 -0.4416  0.3856 -1.3071
57912SOL    HW291347   0.131   1.664   3.211  0.3914  0.3501  1.3313
57913SOL     OW91348  13.769  11.223   2.632 -0.2087  0.0798 -0.3125
57913SOL    HW191349  13.710  11.147   2.629  0.7950 -0.6922 -1.4874
57913SOL    HW291350  13.809  11.226   2.545 -1.0131  2.6378 -0.6568
57914SOL     OW91351   7.500  12.866  12.419  0.4018 -0.1834 -0.2123
57914SOL    HW191352   7.525  12.916  12.497  1.5207  0.4091 -0.9177
57914SOL    HW291353   7.583  12.848  12.374 -0.2783  0.4273 -1.8138
57915SOL     OW91354   6.818  12.106   2.282  0.2300  0.2927 -0.5550
57915SOL    HW191355   6.867  12.188   2.277 -1.3993  1.3029 -0.6350
57915SOL    HW291356   6.856  12.059   2.357  2.2001  0.3857 -1.4347
57916SOL     OW91357   6.260   3.293   6.808  0.0898  0.0431  0.2644
57916SOL    HW191358   6.172   3.304   6.845  0.6858 -1.0968  2.1720
57916SOL    HW291359   6.316   3.347   6.864  0.4932  1.6521 -1.6204
57917SOL     OW91360  11.730  10.252   2.133 -0.3151  0.3371  0.6702
57917SOL    HW191361  11.717  10.263   2.038 -1.4592  0.3997  0.8223
57917SOL    HW291362  11.686  10.327   2.172  1.1608  0.9436  1.2234
57918SOL     OW91363   2.652   9.028   2.307 -0.1209  0.0097 -0.6602
57918SOL    HW191364   2.575   9.082   2.289  0.1998  0.7714  0.2006
57918SOL    HW291365   2.723   9.070   2.259  0.4324  1.2171  1.1409
57919SOL     OW91366   7.170  12.183   2.137 -0.3273 -0.3231 -0.0692
57919SOL    HW191367   7.158  12.268   2.094  1.6765 -0.1246 -0.3352
57919SOL    HW291368   7.145  12.119   2.070  1.3936  0.0199 -1.1021
57920SOL     OW91369   7.576  11.044  12.946 -0.1917  0.1433  0.2229
57920SOL    HW191370   7.573  10.980  13.016 -1.0076  0.9530  0.9504
57920SOL    HW291371   7.484  11.066  12.929  0.0305  0.5129 -0.5753
57921SOL     OW91372   0.947  13.218   2.209 -0.0114  0.0394  0.6473
57921SOL    HW191373   0.910  13.304   2.192  0.5731  0.3175  0.7699
57921SOL    HW291374   0.875  13.168   2.248 -1.3617 -0.5251 -2.2263
57922SOL     OW91375   0.047   7.110  11.656  0.2610  0.4656 -0.3501
57922SOL    HW191376   0.111   7.106  11.727  0.4483  0.2791 -0.5276
57922SOL    HW291377  -0.037   7.124  11.699 -0.1555 -2.9946  0.1782
57923SOL     OW91378   2.328   8.994   9.874 -0.0554  0.4727 -0.2483
57923SOL    HW191379   2.387   9.004   9.799 -0.0754  1.6265 -0.1243
57923SOL    HW291380   2.276   9.074   9.874 -1.7984 -0.6238 -0.4743
57924SOL     OW91381  13.600   0.701   6.184 -0.0775  0.4823 -0.3350
57924SOL    HW191382  13.666   0.656   6.237  0.4494  0.3692 -1.0541
57924SOL    HW291383  13.560   0.765   6.243 -1.2498 -1.2915  0.8720
57925SOL     OW91384  10.023   2.879   4.876 -0.1397  0.7455  0.7879
57925SOL    HW191385  10.032   2.819   4.803 -1.6265  1.0741  0.2980
57925SOL    HW291386  10.113   2.904   4.898  0.4219 -0.6127  0.1546
57926SOL     OW91387   2.320  10.623   4.413  0.3315  0.5509 -0.1794
57926SOL    HW191388   2.366  10.607   4.496  0.2590  0.8283 -0.0828
57926SOL    HW291389   2.275  10.541   4.395 -1.4003  1.1443  1.1735
57927SOL     OW91390   2.805   4.811   7.014 -0.3615 -0.0049 -0.4646
57927SOL    HW191391   2.794   4.776   6.925 -2.2259  0.3202 -0.4160
57927SOL    HW291392   2.716   4.813   7.049  0.4724 -1.2397  1.8642
57928SOL     OW91393  11.439   0.150   9.346 -0.0375 -0.5245  0.2962
57928SOL    HW191394  11.449   0.081   9.411 -1.7188 -0.4759  0.6674
57928SOL    HW291395  11.506   0.132   9.281 -0.5005 -2.5827  0.3229
57929SOL     OW91396   7.472   0.139   2.087  0.5921  0.1130 -0.1317
57929SOL    HW191397   7.525   0.130   2.166  1.0275 -0.0886 -0.4442
57929SOL    HW291398   7.529   0.184   2.025 -0.9822  3.8498  0.8478
57930SOL     OW91399   3.262   2.578  11.862 -0.3351  0.2417 -0.4520
57930SOL    HW191400   3.205   2.654  11.846  0.0513  1.0261  1.6261
57930SOL    HW291401   3.243   2.553  11.952  2.4955  0.4633  0.2965
57931SOL     OW91402  12.835   8.893   7.514 -0.0254  0.2476 -0.5203
57931SOL    HW191403  12.912   8.849   7.551 -0.2165  0.1293 -0.2600
57931SOL    HW291404  12.761   8.850   7.555 -0.3552 -1.4941 -2.7185
57932SOL     OW91405  12.021  10.352  10.302  0.0358  0.9224 -0.0941
57932SOL    HW191406  12.078  10.415  10.346  0.9576 -0.5154  0.8458
57932SOL    HW291407  11.981  10.402  10.230  0.0342  2.8008  1.1360
57933SOL     OW91408   6.922   5.989  13.138 -0.4242 -0.4816 -0.1344
57933SOL    HW191409   6.930   6.071  13.090 -0.9356 -1.3054 -1.6859
57933SOL    HW291410   6.896   6.016  13.226  1.1935  1.0988 -0.0820
57934SOL     OW91411   6.693   2.933  12.544  0.3816 -0.0080  0.5415
57934SOL    HW191412   6.747   3.008  12.570  0.6900 -0.3470  0.8978
57934SOL    HW291413   6.685   2.880  12.623 -0.7089  0.1645  0.5664
57935SOL     OW91414   8.856  12.666  12.980  0.2803 -0.7327 -0.4992
57935SOL    HW191415   8.908  12.610  12.922 -0.0095 -0.4146 -1.0779
57935SOL    HW291416   8.785  12.610  13.010  1.5356 -1.5028  1.1741
57936SOL     OW91417   7.284  10.204  11.791 -0.4036 -0.3177 -0.3090
57936SOL    HW191418   7.193  10.172  11.786 -0.0987 -1.6952  1.9356
57936SOL    HW291419   7.327  10.146  11.854  2.1730  0.0694 -1.5734
57937SOL     OW91420   0.921  12.701   3.802  0.5634  0.8031  0.4761
57937SOL    HW191421   0.942  12.764   3.871  0.5793  1.0093  0.2825
57937SOL    HW291422   0.962  12.619   3.831  0.1630  0.7666  0.9494
57938SOL     OW91423  13.328   9.809   2.690 -0.2079  0.5008 -0.2161
57938SOL    HW191424  13.288   9.893   2.711  1.1729  0.6332  2.2067
57938SOL    HW291425  13.420   9.819   2.714 -0.4199 -2.3486  2.4504
57939SOL     OW91426  10.385   3.614   2.972 -0.1159 -0.2517 -0.1933
57939SOL    HW191427  10.374   3.684   3.037 -1.5022 -1.7301  1.2616
57939SOL    HW291428  10.399   3.535   3.024 -1.0311 -1.4467 -1.6844
57940SOL     OW91429  13.187  11.651  10.448 -0.0747 -0.5882 -0.1234
57940SOL    HW191430  13.187  11.556  10.445 -0.1664 -0.6661  1.4495
57940SOL    HW291431  13.122  11.673  10.515 -2.5990  0.7197 -2.7415
57941SOL     OW91432   9.434   6.218   5.607  0.4519 -0.2149  0.6382
57941SOL    HW191433   9.491   6.219   5.684  2.3544 -0.5980 -0.6894
57941SOL    HW291434   9.434   6.309   5.575 -0.3552 -0.0506  1.0917
57942SOL     OW91435  13.984   5.914   1.619 -0.0703  0.6984 -0.1635
57942SOL    HW191436  13.991   5.953   1.532  0.0853  0.2014 -0.3731
57942SOL    HW291437  13.935   5.979   1.670 -0.6475  0.7414 -0.7649
57943SOL     OW91438  12.454   9.151   3.682 -0.3315  0.7969  0.5499
57943SOL    HW191439  12.446   9.173   3.775 -0.2191 -0.0454  0.7698
57943SOL    HW291440  12.526   9.087   3.678 -2.0397 -1.2238  0.2710
57944SOL     OW91441   4.635  10.496   1.584 -0.1603  0.0184 -0.1039
57944SOL    HW191442   4.591  10.531   1.506  0.3175 -0.4478 -0.5920
57944SOL    HW291443   4.573  10.511   1.655 -0.7159  0.2113 -0.6204
57945SOL     OW91444   1.192   1.222  12.240 -0.1901  0.0107  0.3928
57945SOL    HW191445   1.270   1.179  12.276  0.4947  0.2219 -0.7976
57945SOL    HW291446   1.133   1.151  12.216  0.4730 -0.2438 -0.5274
57946SOL     OW91447   6.809   8.485   2.696  0.1464  0.1893 -0.0393
57946SOL    HW191448   6.739   8.523   2.642 -0.0788  1.7917  1.3037
57946SOL    HW291449   6.841   8.411   2.644 -0.6223  1.1258 -1.9815
57947SOL     OW91450   2.736  12.611   1.313 -0.5710  0.7760  0.3263
57947SOL    HW191451   2.692  12.688   1.349  0.1446  1.0403  0.6515
57947SOL    HW291452   2.787  12.575   1.386 -2.0374 -0.8831  0.5963
57948SOL     OW91453  10.997   4.758  11.953  0.3543 -0.4671 -0.4195
57948SOL    HW191454  10.914   4.714  11.930  0.2048 -0.5111  0.1887
57948SOL    HW291455  10.989   4.776  12.047  1.0204 -0.4294 -0.3702
57949SOL     OW91456   0.282   9.280   8.928 -0.2280 -0.1186 -0.5005
57949SOL    HW191457   0.263   9.360   8.880  1.8448  0.6052 -0.1995
57949SOL    HW291458   0.246   9.295   9.015 -1.0159 -0.0759 -0.8224
57950SOL     OW91459  11.549   4.343  12.802 -0.1514 -0.7410  0.2878
57950SOL    HW191460  11.594   4.294  12.733  0.5110 -2.1985  1.6720
57950SOL    HW291461  11.589   4.310  12.883 -1.5339  0.2505  1.4072
57951SOL     OW91462   5.310  12.144   0.005 -0.1700  0.5700 -0.1235
57951SOL    HW191463   5.342  12.212   0.064 -1.7112 -0.5091  2.1204
57951SOL    HW291464   5.215  12.153   0.007 -0.3148 -0.3486 -1.4416
57952SOL     OW91465  10.134  14.060  10.619 -0.3804  0.6425  0.2797
57952SOL    HW191466  10.205  14.041  10.558  1.4357  0.8449  2.2080
57952SOL    HW291467  10.116  13.977  10.662 -0.6047  0.8164  0.5228
57953SOL     OW91468  10.746  13.482   4.146 -0.3311  0.2626  0.2965
57953SOL    HW191469  10.670  13.432   4.178  0.2172 -1.4279 -0.8863
57953SOL    HW291470  10.739  13.478   4.051  1.6651 -0.6708  0.1415
57954SOL     OW91471   3.933  12.998  12.341  0.0674 -0.0952  0.0282
57954SOL    HW191472   3.880  13.064  12.296 -1.7311  0.6091  2.8745
57954SOL    HW291473   3.890  12.915  12.322 -1.5391  0.3528  1.4258
57955SOL     OW91474   7.925   2.842   1.821 -0.2712 -0.2464  0.2574
57955SOL    HW191475   7.888   2.889   1.746 -1.4775 -2.1098 -0.3721
57955SOL    HW291476   8.000   2.795   1.785  0.1096  0.1164  0.5766
57956SOL     OW91477   0.017   4.781   9.624  0.6999  0.2722  0.3240
57956SOL    HW191478   0.109   4.786   9.650  0.4283 -1.3048  1.8231
57956SOL    HW291479   0.018   4.729   9.543  1.0923 -0.1291  0.5822
57957SOL     OW91480   8.088  13.507   6.337 -0.0036 -0.4061  0.1514
57957SOL    HW191481   8.051  13.464   6.261  1.0503  0.7147 -1.0357
57957SOL    HW291482   8.032  13.479   6.410 -3.2529  1.1917 -1.5181
57958SOL     OW91483   8.626  13.646   0.177 -0.1604 -0.1844  0.5242
57958SOL    HW191484   8.674  13.702   0.237  0.9603 -0.8377  0.2551
57958SOL    HW291485   8.599  13.571   0.230 -0.5590 -0.0052  0.5807
57959SOL     OW91486   8.330   2.550   7.563 -0.5434 -0.0294 -0.6463
57959SOL    HW191487   8.368   2.633   7.532  0.8521  0.2078  1.4549
57959SOL    HW291488   8.242   2.548   7.526  0.5189  0.7514 -3.4860
57960SOL     OW91489   8.899   3.973   0.263  0.1411  0.0257 -0.1991
57960SOL    HW191490   8.864   4.056   0.297  1.1863  0.6087 -0.5023
57960SOL    HW291491   8.898   3.984   0.168  1.0873  0.0363 -0.2146
57961SOL     OW91492   4.313  10.073   1.820 -0.0024  0.1085  0.2204
57961SOL    HW191493   4.248  10.007   1.844 -0.9809  0.3955 -1.4700
57961SOL    HW291494   4.270  10.157   1.838 -0.1807  0.3050 -1.0800
57962SOL     OW91495  11.463  12.378   3.837 -0.3819 -0.1777 -0.4985
57962SOL    HW191496  11.527  12.443   3.808  1.3729 -1.2211  0.8211
57962SOL    HW291497  11.423  12.418   3.914  0.2340 -0.3537 -0.0724
57963SOL     OW91498   2.392  11.569   8.373  0.0675  0.1655 -0.0517
57963SOL    HW191499   2.358  11.486   8.407  0.1767 -0.8039 -2.1549
57963SOL    HW291500   2.486  11.553   8.362 -0.2038 -0.2161 -2.3677
57964SOL     OW91501   9.425   4.172   7.198  0.0877  0.1173  0.3184
57964SOL    HW191502   9.379   4.109   7.253 -0.4176  2.4666  2.8057
57964SOL    HW291503   9.391   4.157   7.110 -2.4918 -0.8428  1.3943
57965SOL     OW91504  13.070   3.663   9.043 -0.2721 -0.0543  0.1372
57965SOL    HW191505  12.974   3.661   9.043 -0.3057 -2.2597  1.4524
57965SOL    HW291506  13.095   3.580   9.084  2.2035  0.8080  0.5170
57966SOL     OW91507   3.007  12.832   1.782  0.0568  0.9128 -0.5166
57966SOL    HW191508   3.031  12.920   1.811 -1.1467  0.7867  0.9899
57966SOL    HW291509   3.023  12.777   1.858 -0.5274  0.0564 -1.0036
57967SOL     OW91510   4.335  11.278   1.302  0.1966 -0.2614  0.2156
57967SOL    HW191511   4.347  11.185   1.280 -0.2909  0.0459 -1.4957
57967SOL    HW291512   4.380  11.325   1.232 -0.8015  0.8042  0.2652
57968SOL     OW91513  10.253   3.563   3.782  0.8290 -0.1996 -0.0728
57968SOL    HW191514  10.177   3.513   3.753 -0.1867  0.0270  1.9999
57968SOL    HW291515  10.288   3.603   3.702 -1.5720  0.1646 -1.0125
57969SOL     OW91516   2.397   8.463   6.106  0.2889 -0.5402  0.2117
57969SOL    HW191517   2.313   8.436   6.143  0.2105 -0.0735  0.3868
57969SOL    HW291518   2.441   8.381   6.085 -0.5759 -0.7863 -0.7289
57970SOL     OW91519   2.334  12.166  10.702  0.0044  0.0553  0.2098
57970SOL    HW191520   2.281  12.187  10.625  0.0878 -1.9893 -0.4648
57970SOL    HW291521   2.289  12.210  10.774 -1.1414  0.4870 -0.7282
57971SOL     OW91522   1.788   6.452  13.160 -0.1321  0.2481  0.0726
57971SOL    HW191523   1.850   6.504  13.109  0.3213 -0.0994  0.2595
57971SOL    HW291524   1.770   6.376  13.105  0.5642 -0.2598  0.5256
57972SOL     OW91525   0.264   1.899  14.055 -0.4984  0.6869 -0.0405
57972SOL    HW191526   0.353   1.877  14.029 -0.8736  1.6253 -2.3918
57972SOL    HW291527   0.214   1.900  13.973 -2.4704  1.1256  1.0859
57973SOL     OW91528   1.178   1.117   3.500  0.6055  0.0138  0.1288
57973SOL    HW191529   1.211   1.127   3.410 -2.0342  0.4234 -0.8936
57973SOL    HW291530   1.106   1.179   3.505  0.4613 -0.2677  2.4689
57974SOL     OW91531  10.569  11.202  10.008  0.0438 -0.0693 -0.1659
57974SOL    HW191532  10.579  11.246   9.923 -0.0853 -0.7966 -0.5709
57974SOL    HW291533  10.656  11.166  10.026  0.0920  0.1583  0.0512
57975SOL     OW91534   0.919  12.690  10.878 -0.1494  0.4756  0.1659
57975SOL    HW191535   0.935  12.603  10.914 -0.7067 -0.2299 -1.2314
57975SOL    HW291536   1.005  12.734  10.883 -0.0666  0.2061  1.7208
57976SOL     OW91537   3.262   1.629  10.194 -0.0970 -0.2152 -0.0901
57976SOL    HW191538   3.237   1.609  10.104 -1.2059 -0.9646  0.3586
57976SOL    HW291539   3.354   1.604  10.200 -0.0519 -0.2997 -0.9680
57977SOL     OW91540   9.878  11.730   5.204  0.4562  0.1704  0.2493
57977SOL    HW191541   9.968  11.746   5.233  0.2024  2.5634 -0.0418
57977SOL    HW291542   9.886  11.698   5.114  1.0452 -1.4403  0.8530
57978SOL     OW91543   8.189  12.181   9.687 -0.1858  0.1895  0.1110
57978SOL    HW191544   8.173  12.190   9.593 -0.1997  1.2104  0.1977
57978SOL    HW291545   8.222  12.092   9.697  2.9436  1.0255 -1.3529
57979SOL     OW91546   9.776   2.844   1.194 -0.2673  0.1057 -0.3410
57979SOL    HW191547   9.812   2.876   1.276  1.8679  0.1570 -1.2348
57979SOL    HW291548   9.827   2.888   1.126 -0.6159 -1.4191 -1.6650
57980SOL     OW91549   8.683   5.240   4.146 -0.0877 -0.6232 -0.3474
57980SOL    HW191550   8.625   5.240   4.069 -0.1821  1.4800 -0.3466
57980SOL    HW291551   8.654   5.165   4.198 -1.4296 -0.8530 -1.3654
57981SOL     OW91552   0.336   5.514   9.818  0.7755  0.3502 -0.1759
57981SOL    HW191553   0.271   5.445   9.801  1.8148 -0.5722 -0.4964
57981SOL    HW291554   0.363   5.500   9.909 -0.4217  1.5737  0.4064
57982SOL     OW91555   6.026   9.138   0.146  0.3623 -0.5039 -0.1220
57982SOL    HW191556   6.036   9.216   0.200  0.5497 -0.7525  0.2133
57982SOL    HW291557   6.113   9.122   0.110 -0.2504  1.0061 -2.4300
57983SOL     OW91558   1.690   1.790   0.636  0.1775  0.2954 -0.4888
57983SOL    HW191559   1.753   1.723   0.610  1.0098  1.1206 -0.6644
57983SOL    HW291560   1.744   1.861   0.671 -0.7710  0.1053  1.5255
57984SOL     OW91561   5.853  11.481  12.849  0.7315  0.4876 -0.2196
57984SOL    HW191562   5.873  11.507  12.939  0.9096  1.5624 -0.5596
57984SOL    HW291563   5.777  11.533  12.825  0.7926  0.3395 -0.7542
57985SOL     OW91564  10.700   8.266  12.402  0.2792  0.4131  0.1276
57985SOL    HW191565  10.676   8.315  12.481  2.4093 -2.4974  2.8228
57985SOL    HW291566  10.641   8.191  12.402  2.9094 -1.8385  1.5287
57986SOL     OW91567   1.116   5.881  12.013 -0.4161 -0.2397 -0.5052
57986SOL    HW191568   1.184   5.839  12.067  0.3147  1.0777 -0.3679
57986SOL    HW291569   1.049   5.907  12.076 -0.3663 -0.2271 -0.4569
57987SOL     OW91570   1.552   7.547   2.663  0.0168  0.1966 -0.2985
57987SOL    HW191571   1.593   7.632   2.649  0.4233  0.1138  0.3649
57987SOL    HW291572   1.612   7.500   2.721 -0.2819 -0.4841 -0.5266
57988SOL     OW91573  10.432   1.316  10.842  0.2164 -0.7345  0.4207
57988SOL    HW191574  10.354   1.260  10.844 -0.1259 -0.2321  1.9493
57988SOL    HW291575  10.500   1.263  10.884  0.5931 -0.9736 -0.4575
57989SOL     OW91576  11.134   0.261  12.800  0.3525 -0.2449 -0.2448
57989SOL    HW191577  11.208   0.300  12.847  2.3195 -1.7972 -1.8204
57989SOL    HW291578  11.174   0.192  12.746 -2.3062 -1.3114 -1.0281
57990SOL     OW91579   6.054  13.685   1.033  0.2517  0.5326  0.1864
57990SOL    HW191580   6.069  13.591   1.018  0.2989  0.0529  2.7090
57990SOL    HW291581   6.074  13.726   0.949  0.4096 -1.6846 -0.9562
57991SOL     OW91582   8.599   2.676   7.701  0.3066 -0.2909 -0.2570
57991SOL    HW191583   8.593   2.702   7.609  1.3975 -0.6933 -0.4532
57991SOL    HW291584   8.620   2.583   7.698 -0.8844 -0.5927  0.4193
57992SOL     OW91585   0.541  10.667   2.258 -0.0944  0.0598  0.2129
57992SOL    HW191586   0.510  10.602   2.194 -1.0412  1.0108 -0.3354
57992SOL    HW291587   0.474  10.668   2.326 -0.2650  0.6975  0.0448
57993SOL     OW91588   5.552   1.068   5.260  0.1853 -0.3141 -0.3962
57993SOL    HW191589   5.631   1.045   5.308  0.2259  1.7225  0.6547
57993SOL    HW291590   5.527   0.989   5.213  1.5726 -1.6561  1.0353
57994SOL     OW91591   4.155   6.617   7.139 -0.3181  0.0328  0.1720
57994SOL    HW191592   4.192   6.693   7.185 -0.4545  0.4487 -0.4052
57994SOL    HW291593   4.061   6.623   7.154 -0.1197 -1.9596  3.0977
57995SOL     OW91594   8.173   0.694   5.998  0.2049 -0.3886 -0.4307
57995SOL    HW191595   8.160   0.673   5.906  0.5559  1.5604 -0.9744
57995SOL    HW291596   8.086   0.717   6.030  0.3181  0.5049 -0.7323
57996SOL     OW91597  10.126  11.248   6.698  0.1092  0.0772  0.0484
57996SOL    HW191598  10.157  11.217   6.783 -0.5745 -0.2144  0.2016
57996SOL    HW291599  10.068  11.321   6.718 -0.5234 -0.3729 -0.1219
57997SOL     OW91600   7.140   2.932  10.328  0.0653  0.3004  0.2137
57997SOL    HW191601   7.222   2.919  10.375  0.7355  2.1975 -0.3307
57997SOL    HW291602   7.099   2.846  10.327  1.5037 -0.4494  1.4935
57998SOL     OW91603   8.380   2.006   6.999  0.0856 -0.1446  0.4862
57998SOL    HW191604   8.421   2.042   7.078 -2.0488 -0.2862  1.7526
57998SOL    HW291605   8.443   2.021   6.929  0.5384  3.4150  1.4919
57999SOL     OW91606   2.887   9.888   0.988 -0.0419 -0.1213 -0.6703
57999SOL    HW191607   2.806   9.839   0.972 -1.0835  1.0444  0.7649
57999SOL    HW291608   2.956   9.824   0.974 -1.3047 -1.7748  0.2663
58000SOL     OW91609   1.540   4.371  13.239  0.0706  0.7901 -0.1617
58000SOL    HW191610   1.615   4.333  13.284 -0.8965  1.0594  1.7791
58000SOL    HW291611   1.501   4.297  13.191 -0.0572 -0.0075  1.1349
58001SOL     OW91612   2.781   0.107   5.722 -0.2531  0.1514 -0.3274
58001SOL    HW191613   2.689   0.135   5.721 -0.3936 -0.2871 -0.2872
58001SOL    HW291614   2.777   0.016   5.752  0.2090  0.1714 -0.2028
58002SOL     OW91615   0.520   1.532   0.960 -0.3355 -0.5024  0.0988
58002SOL    HW191616   0.474   1.587   1.023 -1.0082 -2.0336  0.9832
58002SOL    HW291617   0.454   1.512   0.893  0.2617  0.7778 -0.9257
58003SOL     OW91618   5.846  11.659   4.271  0.0680  0.1673 -0.7330
58003SOL    HW191619   5.841  11.692   4.361  1.1402  1.4717 -1.1211
58003SOL    HW291620   5.932  11.687   4.240  0.7442 -2.3908 -1.3767
58004SOL     OW91621   1.423  13.027   4.135  0.3617  0.4321 -0.2972
58004SOL    HW191622   1.495  12.984   4.181 -1.3529  1.1310  3.4249
58004SOL    HW291623   1.464  13.097   4.086  2.5255 -1.4708 -1.3909
58005SOL     OW91624  12.444   8.921   8.285  0.2864 -0.0253 -0.0050
58005SOL    HW191625  12.378   8.984   8.256  1.3500  1.3749  0.4449
58005SOL    HW291626  12.469   8.874   8.205 -1.3232 -0.7077 -0.1527
58006SOL     OW91627   3.571   7.236  11.569 -0.2770 -0.1457  0.0632
58006SOL    HW191628   3.592   7.317  11.617  2.1532 -0.4359 -0.3617
58006SOL    HW291629   3.657   7.201  11.543 -1.3300 -2.1995 -0.8747
58007SOL     OW91630   2.117   7.269   8.077 -0.0017  0.1563 -0.1863
58007SOL    HW191631   2.050   7.284   8.143  1.1105  1.1905  0.7627
58007SOL    HW291632   2.082   7.307   7.997 -0.7220  0.2953  0.1904
58008SOL     OW91633  13.753   3.050   0.851 -0.1217  0.2767  0.1330
58008SOL    HW191634  13.687   3.119   0.856  1.2580  1.7472 -0.8909
58008SOL    HW291635  13.837   3.096   0.853  0.8562 -1.3543 -0.6796
58009SOL     OW91636  12.443   7.551   1.785  0.3037 -0.1500 -0.5693
58009SOL    HW191637  12.395   7.628   1.753  1.3330  0.9633  0.4632
58009SOL    HW291638  12.535   7.572   1.768  0.5985 -1.1322 -0.2119
58010SOL     OW91639   5.839   1.387  12.058  0.0593  0.2832  0.3504
58010SOL    HW191640   5.813   1.448  11.989 -1.6932 -0.9894 -0.1983
58010SOL    HW291641   5.782   1.408  12.132 -0.1151 -0.2452  0.3742
58011SOL     OW91642   2.920   3.229   7.690  0.1649  0.0497 -0.2286
58011SOL    HW191643   2.884   3.170   7.757 -0.1692 -2.5104 -2.4625
58011SOL    HW291644   2.849   3.241   7.628  0.7154  1.6622 -0.5842
58012SOL     OW91645  10.217  11.197   0.152  0.4454  0.4954  0.1884
58012SOL    HW191646  10.134  11.233   0.121  1.2456  0.9192 -1.5268
58012SOL    HW291647  10.218  11.107   0.119  0.4482  0.3202  0.6536
58013SOL     OW91648  11.693   5.742  10.873 -0.3104 -0.0555 -0.0040
58013SOL    HW191649  11.722   5.653  10.855 -0.2610 -0.2183  0.8225
58013SOL    HW291650  11.725   5.760  10.962 -0.6621  0.6401 -0.0072
58014SOL     OW91651   2.135  10.733   2.577  0.8149 -0.3171 -0.0624
58014SOL    HW191652   2.058  10.675   2.582 -0.2789  1.0758  0.0207
58014SOL    HW291653   2.137  10.777   2.662  0.3522  1.2556 -0.8238
58015SOL     OW91654  10.568  13.020  12.602 -0.4476 -0.0710 -0.1151
58015SOL    HW191655  10.625  13.039  12.677 -1.9359 -0.2754  1.1123
58015SOL    HW291656  10.627  12.981  12.537  1.0965  1.1367  0.4891
58016SOL     OW91657   4.664   6.287   9.861 -0.1212 -0.1911 -0.3138
58016SOL    HW191658   4.663   6.306   9.768  0.0417  0.8401 -0.1206
58016SOL    HW291659   4.646   6.372   9.903 -1.4820 -0.8588  0.5568
58017SOL     OW91660   2.874   7.971   5.290  0.2019  0.3783 -0.4372
58017SOL    HW191661   2.848   7.885   5.258  0.4737 -0.1378  0.6591
58017SOL    HW291662   2.797   8.026   5.276 -0.5089 -0.4282  0.1932
58018SOL     OW91663  12.669   9.339   3.297 -0.6805 -0.1514 -0.1679
58018SOL    HW191664  12.610   9.278   3.252  1.5900 -1.4695 -1.5640
58018SOL    HW291665  12.642   9.425   3.266 -2.8177 -0.5190  0.4546
58019SOL     OW91666   2.352   6.477  12.000 -0.4363  0.4071  0.4364
58019SOL    HW191667   2.446   6.477  12.019 -0.7004  2.2597  2.0424
58019SOL    HW291668   2.331   6.385  11.984  1.1491 -0.4637  2.8195
58020SOL     OW91669   0.788   1.149   7.273  0.0535 -0.2969  0.5511
58020SOL    HW191670   0.876   1.151   7.237 -0.7380 -1.1091 -1.5868
58020SOL    HW291671   0.744   1.225   7.234 -0.7599 -1.0632 -0.0903
58021SOL     OW91672   5.281   1.428   1.905  0.4845 -0.0722  0.5414
58021SOL    HW191673   5.239   1.433   1.991  0.8116  0.3837  0.6787
58021SOL    HW291674   5.351   1.364   1.916 -1.8863 -3.0655 -0.4389
58022SOL     OW91675   1.090   4.097  12.071  0.7255  0.0938 -0.4305
58022SOL    HW191676   1.153   4.047  12.019 -0.3192 -1.8999  0.1359
58022SOL    HW291677   1.063   4.037  12.141 -1.9324  0.7624 -0.7721
58023SOL     OW91678   6.355   4.096  13.079  0.0891  0.3119 -0.2004
58023SOL    HW191679   6.336   4.176  13.031  1.8571  0.4648 -0.7078
58023SOL    HW291680   6.408   4.124  13.153  1.3573 -0.4356 -0.7889
58024SOL     OW91681  14.028   1.528   7.243  0.1143  0.0031 -0.8269
58024SOL    HW191682  14.022   1.594   7.313  0.5176  0.7338 -1.4682
58024SOL    HW291683  13.963   1.462   7.267  0.6444 -0.0515  0.5487
58025SOL     OW91684  13.695   2.907   1.680 -0.5042  0.5871  0.1200
58025SOL    HW191685  13.709   2.822   1.639  0.1081  1.0693 -0.6944
58025SOL    HW291686  13.715   2.971   1.611 -1.0045  1.3944  0.6982
58026SOL     OW91687   0.352   9.356   1.343  0.0089  0.1420  0.1958
58026SOL    HW191688   0.354   9.267   1.307  0.6568 -0.3657  1.4327
58026SOL    HW291689   0.411   9.353   1.418 -1.7760  0.9642  1.7195
58027SOL     OW91690  11.638   3.158   5.288 -0.1899  0.4084  0.8775
58027SOL    HW191691  11.715   3.134   5.341  0.1888  1.4798  0.8294
58027SOL    HW291692  11.613   3.076   5.245  1.7961  0.3079 -0.2047
58028SOL     OW91693   5.204   5.656   4.181 -0.0243  0.2997  0.3088
58028SOL    HW191694   5.239   5.628   4.096  1.5001 -0.8155  1.2401
58028SOL    HW291695   5.116   5.619   4.184 -0.3975  1.0198 -1.0962
58029SOL     OW91696   0.963   7.009  13.284 -0.0902 -0.8841 -0.1421
58029SOL    HW191697   1.044   6.970  13.320 -0.5427 -2.0918 -0.3812
58029SOL    HW291698   0.994   7.082  13.230  0.6191  1.3287  2.9483
58030SOL     OW91699   6.464   7.031   0.044 -0.0314 -0.0106 -0.6279
58030SOL    HW191700   6.412   6.990   0.113  1.2839  0.8426  0.9576
58030SOL    HW291701   6.477   7.121   0.074  0.3696  0.4619 -2.1333
58031SOL     OW91702   9.421  10.367  12.831 -0.0441  0.1857  0.5141
58031SOL    HW191703   9.502  10.409  12.800 -0.5546  0.6686 -0.2107
58031SOL    HW291704   9.351  10.411  12.782 -0.7143 -0.5147  0.8196
58032SOL     OW91705   1.244  10.653   8.867  0.0300 -0.3871 -0.0474
58032SOL    HW191706   1.324  10.632   8.818  0.7042 -0.7808  1.1834
58032SOL    HW291707   1.183  10.584   8.841  0.3244 -0.5011 -0.4612
58033SOL     OW91708  13.203  13.922   8.814  0.2902 -0.1855  0.0352
58033SOL    HW191709  13.111  13.901   8.829 -0.0317  0.5469 -0.8382
58033SOL    HW291710  13.251  13.868   8.878 -0.6904 -1.1513 -0.0170
58034SOL     OW91711  12.300   9.037   8.863  0.1304 -0.2827  0.5967
58034SOL    HW191712  12.218   9.087   8.868  0.0816 -0.3450  0.4247
58034SOL    HW291713  12.354   9.086   8.801  0.4418  0.0717  1.1432
58035SOL     OW91714   8.138   9.412  12.938  0.6073  0.3152  0.1216
58035SOL    HW191715   8.159   9.424  13.031  1.4057 -1.4170  0.2080
58035SOL    HW291716   8.222   9.391  12.897  0.1441  0.3317 -0.8622
58036SOL     OW91717  12.396   5.702   3.229  0.2828 -0.4180 -0.1873
58036SOL    HW191718  12.311   5.713   3.185  0.2607 -1.3043 -0.3806
58036SOL    HW291719  12.438   5.787   3.221  0.2166 -0.5045 -1.8051
58037SOL     OW91720  12.418   3.553   9.241  0.7935  0.2921  0.1670
58037SOL    HW191721  12.375   3.557   9.326  0.6740 -1.5812  0.2344
58037SOL    HW291722  12.507   3.522   9.261 -0.1487 -3.2662 -0.5767
58038SOL     OW91723   6.569   7.232   3.737  0.4753  0.3932  0.2064
58038SOL    HW191724   6.650   7.182   3.749 -0.4261 -1.1727  0.0295
58038SOL    HW291725   6.598   7.323   3.726  2.2445 -0.2246 -0.5550
58039SOL     OW91726   7.072  10.445  10.472 -0.3007 -0.3138  0.1502
58039SOL    HW191727   6.987  10.404  10.455  0.1609 -1.5297  0.6579
58039SOL    HW291728   7.074  10.522  10.416 -0.7474 -1.5953 -1.6997
58040SOL     OW91729  11.070  10.686   5.762 -0.2772  0.1657  0.3531
58040SOL    HW191730  11.086  10.720   5.674 -1.9588  0.5203  0.1420
58040SOL    HW291731  11.055  10.593   5.749  0.7216 -0.0216  0.4521
58041SOL     OW91732   2.515  12.737   4.735 -0.1425 -0.1176  0.0136
58041SOL    HW191733   2.609  12.733   4.752  0.1068 -0.9961 -1.4165
58041SOL    HW291734   2.480  12.658   4.778 -0.0206 -0.5166 -0.6160
58042SOL     OW91735   4.249   6.333   7.653 -0.0726  0.5413  0.0860
58042SOL    HW191736   4.293   6.279   7.588  0.2861  1.5526 -0.5454
58042SOL    HW291737   4.320   6.377   7.700 -0.3593  1.5321 -0.3692
58043SOL     OW91738  12.729  10.934   4.142 -0.6477 -0.3103  0.2944
58043SOL    HW191739  12.748  10.883   4.063 -0.7157 -0.7562  0.5671
58043SOL    HW291740  12.664  10.882   4.189 -1.9402  0.7766 -0.2154
58044SOL     OW91741   0.560   8.386   2.708 -0.7599  0.4239 -0.9036
58044SOL    HW191742   0.602   8.471   2.693  0.4863  0.1291  0.6525
58044SOL    HW291743   0.616   8.342   2.771 -2.4847 -0.7385 -0.0838
58045SOL     OW91744   8.901  11.253  10.336 -0.2245  0.0285  0.5139
58045SOL    HW191745   8.984  11.297  10.321  0.5830 -1.2976  0.8868
58045SOL    HW291746   8.836  11.309  10.295  0.9231  0.7703 -0.3462
58046SOL     OW91747   7.913  11.783   3.081 -0.1271 -0.3976  0.6691
58046SOL    HW191748   7.884  11.783   2.990  0.1121 -0.0764  0.5886
58046SOL    HW291749   8.008  11.775   3.075 -0.1225 -0.5106  0.8956
58047SOL     OW91750   0.172  13.395   8.078 -0.4806  0.5581 -0.1853
58047SOL    HW191751   0.143  13.379   7.988  1.8338 -0.1621 -0.8714
58047SOL    HW291752   0.176  13.308   8.117  0.4335  0.6539 -0.0450
58048SOL     OW91753  12.334   1.747  10.200 -0.1222  0.2470  0.1190
58048SOL    HW191754  12.286   1.824  10.228  0.0915  0.6353 -0.5576
58048SOL    HW291755  12.426   1.773  10.205 -0.0443  0.0063 -0.0238
58049SOL     OW91756   5.072   0.870  11.287  0.4052 -0.4974 -0.5711
58049SOL    HW191757   5.069   0.860  11.382 -0.6252 -0.9002 -0.6262
58049SOL    HW291758   5.050   0.963  11.272 -2.7457 -1.1104 -0.4913
58050SOL     OW91759   2.326  13.286   9.468 -0.0337  0.2285  0.2452
58050SOL    HW191760   2.277  13.369   9.475  0.0257  0.5187 -2.0785
58050SOL    HW291761   2.416  13.310   9.489  0.1351  0.9687 -1.2239
58051SOL     OW91762  11.234   2.067   3.381  0.1744  0.0027 -0.5600
58051SOL    HW191763  11.143   2.072   3.408 -0.1454  1.5355 -1.7463
58051SOL    HW291764  11.234   2.004   3.309 -0.1159  0.6035 -1.0965
58052SOL     OW91765   5.247  11.407   1.903  0.2403  0.3473  0.3931
58052SOL    HW191766   5.227  11.321   1.940  0.0671  0.1927 -0.0544
58052SOL    HW291767   5.164  11.438   1.868  0.5258  0.2190 -0.4197
58053SOL     OW91768  11.853   1.412  12.295 -0.0271  0.1259 -0.2278
58053SOL    HW191769  11.867   1.358  12.373  0.6174 -0.3259 -0.6473
58053SOL    HW291770  11.941   1.430  12.263 -0.3238 -1.2552 -1.9263
58054SOL     OW91771  13.291   2.289  13.013 -0.2235 -0.4721 -0.2298
58054SOL    HW191772  13.381   2.283  12.982  0.7939  1.0835  2.0831
58054SOL    HW291773  13.258   2.371  12.975  0.2868  0.3113  0.9422
58055SOL     OW91774   7.139   9.980   0.108 -0.0945 -0.2692 -0.4352
58055SOL    HW191775   7.071  10.047   0.112  0.5808  0.4486 -0.8687
58055SOL    HW291776   7.128   9.940   0.022  0.5625  0.4263 -0.8538
58056SOL     OW91777  13.358   9.241   1.017  0.2173  0.0417 -0.2038
58056SOL    HW191778  13.316   9.308   0.963  1.0418  0.1443 -0.7440
58056SOL    HW291779  13.392   9.290   1.092 -0.1662  0.0425 -0.0292
58057SOL     OW91780   4.891   0.455  13.507 -0.6211  0.2770 -0.3451
58057SOL    HW191781   4.981   0.487  13.499 -0.9547  0.9365 -1.9079
58057SOL    HW291782   4.889   0.411  13.592  0.8958  1.1178  0.1783
58058SOL     OW91783   3.260   4.479   2.067  0.6527 -0.4605  0.2183
58058SOL    HW191784   3.346   4.445   2.092  0.7746 -0.4828 -0.2312
58058SOL    HW291785   3.249   4.558   2.121  1.0776 -0.2997  0.0789
58059SOL     OW91786   4.498  12.988   2.439 -0.0834 -0.4711  0.2391
58059SOL    HW191787   4.445  13.052   2.391 -0.7511  0.6262  2.3089
58059SOL    HW291788   4.545  12.940   2.371 -0.1769  1.6696 -1.4539
58060SOL     OW91789   6.101   2.702   9.340 -0.9298  0.5018  0.3546
58060SOL    HW191790   6.107   2.763   9.265 -1.5172  0.8976  0.6223
58060SOL    HW291791   6.013   2.717   9.375 -1.4251 -1.1587 -0.1221
58061SOL     OW91792   5.893  11.109   9.812 -0.3902 -0.3427 -0.4030
58061SOL    HW191793   5.980  11.078   9.788 -0.7331 -0.1119 -2.0451
58061SOL    HW291794   5.856  11.039   9.866  0.4279 -0.8818 -0.5281
58062SOL     OW91795   2.176   1.555   7.042  0.6781  0.0585 -0.4982
58062SOL    HW191796   2.093   1.601   7.028  0.3367 -0.0412  0.9926
58062SOL    HW291797   2.243   1.615   7.007  0.1191  1.0174  0.0298
58063SOL     OW91798   5.494   4.918   3.761 -0.4125  0.4304 -0.3993
58063SOL    HW191799   5.579   4.879   3.778  0.4417  2.2421 -0.2705
58063SOL    HW291800   5.454   4.928   3.848  0.1882  1.5396 -0.2273
58064SOL     OW91801   8.863  13.352   0.927 -0.4869 -0.0390 -0.0130
58064SOL    HW191802   8.894  13.266   0.953 -0.1702  0.2992  0.7628
58064SOL    HW291803   8.935  13.389   0.875 -0.9818 -0.5790 -1.1227
58065SOL     OW91804  10.995   4.974   0.046  0.4109 -0.0056  0.4393
58065SOL    HW191805  11.080   5.019   0.045  0.4074  0.1242  2.1284
58065SOL    HW291806  10.940   5.024  -0.014  0.7105  1.6866  1.5136
58066SOL     OW91807   7.636   1.371  13.191 -0.3348 -0.1014 -0.3007
58066SOL    HW191808   7.711   1.388  13.134 -0.9529  1.3564 -0.7255
58066SOL    HW291809   7.566   1.347  13.130 -1.2980  2.5103 -0.3385
58067SOL     OW91810  13.054   0.431   5.515  0.2401 -0.2038 -0.0178
58067SOL    HW191811  13.140   0.405   5.548  0.5705  2.5335  1.5271
58067SOL    HW291812  13.010   0.472   5.590 -0.9131  1.8852 -1.7084
58068SOL     OW91813   9.541  11.606  11.829 -0.0213 -0.3948 -0.0518
58068SOL    HW191814   9.475  11.622  11.896  1.9767 -1.3701  2.3118
58068SOL    HW291815   9.551  11.690  11.784 -0.5675  0.6656  1.7168
58069SOL     OW91816   5.909  10.090   6.825  0.0556  0.9553  0.4121
58069SOL    HW191817   5.981  10.095   6.763  1.1349 -1.6992  1.3054
58069SOL    HW291818   5.833  10.122   6.777  1.4458  1.9097 -1.2169
58070SOL     OW91819   3.293   1.094  11.856 -0.4257  0.0214 -0.2917
58070SOL    HW191820   3.342   1.172  11.881  2.1648 -1.5234 -0.1943
58070SOL    HW291821   3.226   1.085  11.923  1.0864  0.5856  1.3737
58071SOL     OW91822  13.598   0.883  11.410 -0.1013 -0.2908  0.0250
58071SOL    HW191823  13.579   0.943  11.483  0.1175 -0.1545 -0.0273
58071SOL    HW291824  13.694   0.884  11.403 -0.1385  0.0894 -0.5845
58072SOL     OW91825  10.182   1.318   0.572  0.0804  0.7860  0.2836
58072SOL    HW191826  10.095   1.290   0.599  0.7094 -0.2513  1.3261
58072SOL    HW291827  10.197   1.399   0.619  0.2289  0.2136  1.2489
58073SOL     OW91828   1.200   3.203   9.808  0.2881  0.1008  0.1583
58073SOL    HW191829   1.137   3.207   9.736  0.2267 -0.9323  0.1452
58073SOL    HW291830   1.272   3.260   9.779  0.1286 -0.0611 -0.5850
58074SOL     OW91831  10.904   3.456   7.529  0.0468  0.0565  0.2297
58074SOL    HW191832  10.932   3.482   7.617  2.3122 -1.0252 -0.0905
58074SOL    HW291833  10.912   3.361   7.528 -0.5404 -0.0037 -0.9664
58075SOL     OW91834  12.361   1.561   9.475 -0.5992 -0.4777 -0.2060
58075SOL    HW191835  12.371   1.582   9.382  1.2153 -1.2484 -0.2293
58075SOL    HW291836  12.351   1.465   9.477 -3.8385 -0.2293  0.2238
58076SOL     OW91837  14.045   8.207   5.441 -0.4299  0.1655  0.2321
58076SOL    HW191838  13.961   8.190   5.399 -0.1223 -0.1821 -0.2672
58076SOL    HW291839  14.036   8.171   5.529 -0.5570 -0.5563 -0.0669
58077SOL     OW91840  10.626   2.530  12.211 -0.1197 -0.2208  0.1760
58077SOL    HW191841  10.610   2.437  12.227  0.6825 -0.3285  0.4299
58077SOL    HW291842  10.683   2.530  12.133  1.5756 -0.0789  1.3549
58078SOL     OW91843  11.256   7.037   5.193 -0.1538 -0.6715  0.1527
58078SOL    HW191844  11.225   6.999   5.276  1.0791  0.7268  1.3024
58078SOL    HW291845  11.308   7.113   5.219 -0.2519  0.1824 -1.9517
58079SOL     OW91846   9.887  11.647  11.648 -0.1581 -0.1937 -0.0251
58079SOL    HW191847   9.928  11.595  11.718  1.4392  0.2734 -0.5679
58079SOL    HW291848   9.961  11.681  11.597 -1.2431  0.7867 -1.0026
58080SOL     OW91849  13.972  10.373   9.619 -0.0757 -0.9875  0.1560
58080SOL    HW191850  14.044  10.317   9.649  2.2864  2.5579  1.8568
58080SOL    HW291851  14.014  10.436   9.560 -2.2809 -0.1748 -0.6434
58081SOL     OW91852   6.689   5.116  12.758 -0.2107 -0.1117 -0.0939
58081SOL    HW191853   6.726   5.159  12.681  0.1635  0.2562  0.2893
58081SOL    HW291854   6.708   5.023  12.745 -0.1539 -0.0521 -0.4467
58082SOL     OW91855   8.324   4.937  13.317 -0.7735  0.2163  0.4349
58082SOL    HW191856   8.383   4.886  13.372  0.0733  2.6017  1.9364
58082SOL    HW291857   8.250   4.958  13.375 -1.5826 -0.1396 -0.4500
58083SOL     OW91858   2.325   4.873   0.047 -0.3501 -0.3328  0.1020
58083SOL    HW191859   2.356   4.944  -0.008  1.1544 -0.8048  0.2988
58083SOL    HW291860   2.244   4.844   0.005 -0.9346  1.3946 -0.0440
58084SOL     OW91861   8.520   5.699  12.733 -0.5178 -0.2432 -0.7597
58084SOL    HW191862   8.573   5.638  12.785 -1.0860 -0.3793 -0.3307
58084SOL    HW291863   8.580   5.732  12.666 -0.2315 -1.3899 -1.0904
58085SOL     OW91864  14.078   4.177  13.326 -0.0739 -0.4450  0.1127
58085SOL    HW191865  14.171   4.186  13.347  0.7014  0.4619 -3.1673
58085SOL    HW291866  14.039   4.259  13.357  0.4227 -0.3644  0.5443
58086SOL     OW91867   7.809   4.804  11.617 -0.2552 -0.6806  0.4824
58086SOL    HW191868   7.849   4.888  11.637 -0.9430 -0.0566 -0.6595
58086SOL    HW291869   7.877   4.754  11.573 -0.1268 -0.3615  0.3156
58087SOL     OW91870   8.849   7.393   1.280  0.6294 -0.4648  0.0284
58087SOL    HW191871   8.847   7.488   1.271 -1.1580 -0.5252 -0.5165
58087SOL    HW291872   8.783   7.374   1.346 -1.1087 -1.4796 -1.8978
58088SOL     OW91873   4.457  11.624   5.278  0.7082 -0.4461  0.4721
58088SOL    HW191874   4.486  11.538   5.308 -0.0884 -1.3090 -1.1019
58088SOL    HW291875   4.406  11.606   5.199 -0.6715  1.3673  0.8878
58089SOL     OW91876   0.214   8.199   3.618  0.1118 -0.1107  0.5802
58089SOL    HW191877   0.159   8.156   3.684  0.1510 -0.2635  0.5138
58089SOL    HW291878   0.244   8.279   3.660  0.4866 -0.4175  0.9021
58090SOL     OW91879   2.695   1.700   3.444 -0.0057 -0.3459  0.3998
58090SOL    HW191880   2.616   1.754   3.441 -0.2724 -0.7182 -2.5543
58090SOL    HW291881   2.766   1.764   3.453 -0.4508  0.3959 -0.9250
58091SOL     OW91882   6.674   2.821   1.297  0.3693 -0.2487  0.0016
58091SOL    HW191883   6.612   2.783   1.360 -0.6255  1.4586  0.1343
58091SOL    HW291884   6.623   2.828   1.215  0.8272 -0.0911 -0.2734
58092SOL     OW91885  12.518   4.927   1.799 -0.4241  0.5126 -0.2988
58092SOL    HW191886  12.474   4.848   1.833 -1.0718  0.9192 -0.1879
58092SOL    HW291887  12.599   4.893   1.760 -0.0711 -0.0744  0.8727
58093SOL     OW91888   4.718  14.076   3.311  0.3474  0.3619 -0.0538
58093SOL    HW191889   4.640  14.109   3.356 -1.0399 -1.0331 -1.3122
58093SOL    HW291890   4.707  14.104   3.220  2.0454  1.3458  0.0042
58094SOL     OW91891   3.566   3.136   2.102  0.2222  0.0427  0.2458
58094SOL    HW191892   3.573   3.231   2.104  0.7450  0.0400 -0.6909
58094SOL    HW291893   3.531   3.117   2.015  1.4888 -0.6909 -0.1254
58095SOL     OW91894   4.567  14.021   6.798  0.4963  0.1542  0.1269
58095SOL    HW191895   4.637  13.961   6.773 -0.7295 -0.4751 -2.0464
58095SOL    HW291896   4.595  14.106   6.764  0.0106 -0.2084 -1.2613
58096SOL     OW91897  13.869   4.945  13.639 -0.0353  0.0866 -0.4594
58096SOL    HW191898  13.887   5.025  13.688 -0.4618 -0.5503  0.7705
58096SOL    HW291899  13.956   4.911  13.616  0.5393 -1.9558  3.7795
58097SOL     OW91900   0.061   9.294  10.766 -0.1835 -0.3522 -0.2259
58097SOL    HW191901  -0.023   9.251  10.777 -0.7679  1.0352  1.1778
58097SOL    HW291902   0.126   9.230  10.794 -0.9676 -0.5752  1.1108
58098SOL     OW91903  13.083  12.950   7.584 -0.5821 -0.1652 -0.1296
58098SOL    HW191904  13.032  12.910   7.514 -1.4770  0.4503  0.1418
58098SOL    HW291905  13.151  12.887   7.604  0.3655  0.0674 -2.2690
58099SOL     OW91906   2.597   1.940   2.481 -0.3488 -0.7449 -0.4455
58099SOL    HW191907   2.543   1.980   2.413  0.2144 -0.4235 -0.7118
58099SOL    HW291908   2.644   2.013   2.521 -0.6324 -0.9382  0.2568
58100SOL     OW91909   1.974  12.219   1.083  0.1058 -0.1079 -0.1421
58100SOL    HW191910   2.002  12.218   1.175  0.2999  0.3026 -0.1936
58100SOL    HW291911   2.045  12.175   1.037  0.2010  0.0480 -0.1455
58101SOL     OW91912  11.984   8.815   5.093 -0.0318 -0.4539  0.1619
58101SOL    HW191913  11.910   8.757   5.110  0.3512 -1.0572 -0.1705
58101SOL    HW291914  11.981   8.831   4.999  0.9417 -1.4463 -0.0532
58102SOL     OW91915   4.356  10.969   8.417  0.1318 -0.8352 -0.2523
58102SOL    HW191916   4.333  10.877   8.426  1.6743 -1.0831  2.0849
58102SOL    HW291917   4.447  10.974   8.444  0.4617  1.2376 -1.4739
58103SOL     OW91918   2.796   0.094   0.890  0.2405  0.2632 -0.2259
58103SOL    HW191919   2.774   0.085   0.983 -0.0937  0.5359 -0.2770
58103SOL    HW291920   2.717   0.068   0.844  0.7590 -0.9201 -0.4657
58104SOL     OW91921  11.766   0.052   2.526  0.1680  1.0799  0.0215
58104SOL    HW191922  11.745   0.138   2.489 -0.3646 -0.1389 -2.7144
58104SOL    HW291923  11.687   0.000   2.515  0.6475  0.0392  1.1622
58105SOL     OW91924   9.592  13.705   2.364 -0.3080 -0.1921 -0.0556
58105SOL    HW191925   9.637  13.767   2.422 -2.0437  1.1823 -0.0772
58105SOL    HW291926   9.651  13.630   2.358  1.0819  0.7193  1.4034
58106SOL     OW91927   0.391  12.479   4.131  0.2013 -0.4591  0.3586
58106SOL    HW191928   0.485  12.465   4.141  0.4491  0.8530  0.1788
58106SOL    HW291929   0.371  12.547   4.195  0.1139  1.8257 -1.9240
58107SOL     OW91930   5.976   3.801  10.742  0.2775 -0.1595 -0.1199
58107SOL    HW191931   5.991   3.805  10.837  0.7578 -0.9245 -0.1569
58107SOL    HW291932   5.880   3.804  10.734  0.1964 -0.8806  0.4435
58108SOL     OW91933   9.802   5.760  10.296 -0.2178 -0.1908 -0.3060
58108SOL    HW191934   9.779   5.678  10.339 -0.6968  0.3663  0.5125
58108SOL    HW291935   9.726   5.817  10.310  0.6277  0.8300  0.2683
58109SOL     OW91936   6.958   9.561  13.581  0.6006 -0.3689  0.4143
58109SOL    HW191937   7.042   9.555  13.627 -0.2503 -0.6364  2.0309
58109SOL    HW291938   6.950   9.479  13.533  1.6465  0.0334 -0.4713
58110SOL     OW91939   9.527  13.289   8.595 -0.1665  0.4576 -0.3864
58110SOL    HW191940   9.550  13.345   8.669 -0.9701 -2.5915  2.4297
58110SOL    HW291941   9.437  13.311   8.575 -0.0624  1.0708 -0.2034
58111SOL     OW91942   3.249  11.309   6.951  0.5605  0.2695 -0.2409
58111SOL    HW191943   3.167  11.344   6.917  0.8252  1.4600  0.3098
58111SOL    HW291944   3.317  11.354   6.901  0.9131  0.8517  0.7468
58112SOL     OW91945   7.816  13.047   1.635 -0.1929 -0.1103  0.4303
58112SOL    HW191946   7.750  13.115   1.647 -1.6506 -1.4078  0.0180
58112SOL    HW291947   7.845  13.026   1.724 -0.4195  0.3701  0.6212
58113SOL     OW91948   0.382   5.096   8.250 -0.4759 -0.1789  0.4233
58113SOL    HW191949   0.466   5.103   8.204  0.1924 -2.3580  1.1862
58113SOL    HW291950   0.406   5.098   8.343 -1.3469 -0.0925  0.6507
58114SOL     OW91951   6.676   0.800   1.339 -0.5411  0.4217  0.3209
58114SOL    HW191952   6.768   0.775   1.330 -0.1285  2.3741 -1.8976
58114SOL    HW291953   6.647   0.755   1.419  1.6246 -2.1769 -0.1992
58115SOL     OW91954   7.848   7.487   0.223  0.5891  0.0614  0.1697
58115SOL    HW191955   7.769   7.524   0.262  1.8549  2.2924  0.7904
58115SOL    HW291956   7.856   7.399   0.261 -1.7031 -0.3240 -0.1371
58116SOL     OW91957   3.467   5.150   8.600 -0.6113  0.0794  0.6643
58116SOL    HW191958   3.442   5.060   8.620 -0.8927  0.0752  0.2924
58116SOL    HW291959   3.385   5.193   8.575 -0.4584  0.4074  0.7233
58117SOL     OW91960   2.320  13.805  12.125 -0.6007  0.6742  0.0484
58117SOL    HW191961   2.394  13.860  12.154 -2.4015  2.9268  0.6454
58117SOL    HW291962   2.311  13.826  12.032 -0.5421  0.4429 -0.0097
58118SOL     OW91963  11.701   1.970   4.151  0.2407  0.3725 -0.5816
58118SOL    HW191964  11.749   1.895   4.187 -1.2192 -0.3033  0.0697
58118SOL    HW291965  11.755   2.046   4.171 -0.6622  0.1394  3.6386
58119SOL     OW91966   0.856   6.930   6.393 -0.3801  0.4500 -0.3047
58119SOL    HW191967   0.904   6.872   6.335 -0.5175  0.0996 -0.0667
58119SOL    HW291968   0.782   6.961   6.341 -0.4865  0.1589 -0.3268
58120SOL     OW91969  12.972   4.780   3.091 -0.6141 -0.1188 -0.2454
58120SOL    HW191970  13.057   4.737   3.096  0.7890  2.2359 -1.5363
58120SOL    HW291971  12.949   4.777   2.998  0.0536  2.6010 -0.5917
58121SOL     OW91972   7.414   5.563   0.114 -0.2291 -0.4992  0.7681
58121SOL    HW191973   7.471   5.510   0.169 -0.5623 -0.6256  0.9929
58121SOL    HW291974   7.423   5.525   0.027  1.4024  0.5786  0.4232
58122SOL     OW91975   1.937  13.135   4.793 -0.2559 -0.5239  0.0276
58122SOL    HW191976   1.955  13.056   4.742 -0.1070 -0.9852  0.7646
58122SOL    HW291977   1.975  13.206   4.743  2.0339 -1.2460  0.6240
58123SOL     OW91978   7.397  13.057  11.757 -0.0764 -0.1796  0.3394
58123SOL    HW191979   7.422  12.992  11.691 -1.0347 -1.0099  0.7649
58123SOL    HW291980   7.304  13.072  11.743  0.0702  0.9115  0.4339
58124SOL     OW91981   8.922   7.921   6.545 -0.3603  0.2986  0.0736
58124SOL    HW191982   8.840   7.944   6.588 -1.1034 -1.1273 -0.4970
58124SOL    HW291983   8.984   7.988   6.573 -1.3442  0.5847  1.6853
58125SOL     OW91984   4.864   2.211  10.931 -0.1690  0.3373  0.3826
58125SOL    HW191985   4.921   2.141  10.964 -0.6442  0.6203  1.8863
58125SOL    HW291986   4.795   2.164  10.884  0.1068 -0.1350  0.4347
58126SOL     OW91987   9.882   0.868   6.349  0.1040 -0.2658  0.1761
58126SOL    HW191988   9.926   0.909   6.275  0.8611 -0.4287  0.5199
58126SOL    HW291989   9.844   0.788   6.314 -0.3834  0.1506 -0.2463
58127SOL     OW91990  12.232   9.389   4.454  0.2349 -0.2900  0.3517
58127SOL    HW191991  12.210   9.441   4.376 -0.5335  0.7297  1.2177
58127SOL    HW291992  12.325   9.405   4.469  0.2593 -0.0586 -0.0355
58128SOL     OW91993   5.533  13.760  11.944  0.5567  0.1618 -0.4320
58128SOL    HW191994   5.472  13.686  11.950  1.4806 -0.5325  0.8431
58128SOL    HW291995   5.610  13.725  11.901  0.2553  0.9312 -1.6487
58129SOL     OW91996  13.749   5.031  11.606 -0.1100 -0.0207 -0.0333
58129SOL    HW191997  13.750   5.022  11.702  0.2322 -0.9583 -0.1139
58129SOL    HW291998  13.818   5.095  11.588  1.5362 -1.6166  0.2173
58130SOL     OW91999  13.242   0.941   9.448 -0.7064 -0.0960  0.1325
58130SOL    HW192000  13.209   0.853   9.429 -0.1649 -1.0838  3.1551
58130SOL    HW292001  13.163   0.992   9.467 -0.9442 -0.2890 -0.3135
58131SOL     OW92002   9.101  12.883   2.736 -0.0298  0.0499 -0.6966
58131SOL    HW192003   9.092  12.976   2.714  1.8091 -0.0150 -1.9994
58131SOL    HW292004   9.073  12.877   2.827 -1.0009  1.7150 -0.8462
58132SOL     OW92005  10.484  12.932   0.167  0.3929  0.2051  0.5575
58132SOL    HW192006  10.464  12.881   0.245  1.0586 -0.8977  0.0285
58132SOL    HW292007  10.421  12.902   0.101 -1.4965  2.5278  1.1570
58133SOL     OW92008   5.514   0.112   2.125  0.1886 -0.3676  0.0036
58133SOL    HW192009   5.537   0.112   2.032 -1.7090  0.0320 -0.5219
58133SOL    HW292010   5.433   0.060   2.129 -1.2629  1.8203  0.9701
58134SOL     OW92011   3.375   5.614   6.904  0.0354  0.4417 -0.1514
58134SOL    HW192012   3.297   5.561   6.922 -0.0939  0.4748 -0.5915
58134SOL    HW292013   3.373   5.682   6.971 -0.4399  0.5712 -0.2931
58135SOL     OW92014  14.081   1.391   1.492  0.1983 -0.1845 -1.0201
58135SOL    HW192015  14.062   1.441   1.572  0.1944  0.9268 -1.6864
58135SOL    HW292016  14.018   1.424   1.428 -2.0142 -3.3559 -0.6809
58136SOL     OW92017  11.053   9.999  13.015  0.0300 -0.3365 -0.4885
58136SOL    HW192018  11.072   9.952  13.096 -1.2528 -0.2605 -0.1268
58136SOL    HW292019  10.969  10.043  13.032 -1.0237 -1.5191 -2.3532
58137SOL     OW92020  12.893  10.582   3.627  0.2006  0.2624  0.1272
58137SOL    HW192021  12.832  10.541   3.688 -0.2814  1.2825  0.3515
58137SOL    HW292022  12.933  10.509   3.580 -2.4774 -0.4264 -1.3144
58138SOL     OW92023  13.790   2.963   6.299 -0.0242  0.2000  0.3537
58138SOL    HW192024  13.704   2.922   6.302 -0.2274  0.6770  1.1199
58138SOL    HW292025  13.824   2.955   6.388  0.9755 -0.5063 -0.0738
58139SOL     OW92026   4.998   6.495   3.345  0.3293  0.4640  0.0721
58139SOL    HW192027   4.921   6.481   3.400 -0.2219 -3.3026 -1.3739
58139SOL    HW292028   4.963   6.533   3.265  0.3508  1.0544  0.3407
58140SOL     OW92029  11.581   6.561   9.919  0.3264 -0.7495  0.2197
58140SOL    HW192030  11.488   6.544   9.905  0.0927 -0.7431  1.6183
58140SOL    HW292031  11.609   6.491   9.979  1.3375 -1.0253 -0.5469
58141SOL     OW92032   3.374   7.078   5.876  0.2897 -0.0711 -0.1510
58141SOL    HW192033   3.294   7.100   5.925  0.5456 -0.8949  0.6809
58141SOL    HW292034   3.445   7.114   5.929  0.5543 -0.7220 -0.0548
58142SOL     OW92035  12.340  12.332   5.707 -0.4017 -0.9174 -0.0836
58142SOL    HW192036  12.404  12.342   5.636  0.1248  1.6378  0.6302
58142SOL    HW292037  12.256  12.354   5.667 -0.1765  0.0298 -0.0676
58143SOL     OW92038   5.748   3.954  12.881  0.1384 -0.0954 -0.2887
58143SOL    HW192039   5.755   3.978  12.973 -1.6747  0.7065 -0.3164
58143SOL    HW292040   5.686   4.017  12.844  0.9888 -0.2691 -2.1172
58144SOL     OW92041   9.158   8.067   8.659 -0.1677  0.0310 -0.1483
58144SOL    HW192042   9.064   8.050   8.656 -0.1274 -0.0437 -1.4091
58144SOL    HW292043   9.168   8.154   8.621  0.4954 -1.0200 -2.5446
58145SOL     OW92044   8.553   9.956   5.570 -0.9362  0.1492  0.2746
58145SOL    HW192045   8.624  10.005   5.612 -0.3318 -1.0998  0.7869
58145SOL    HW292046   8.528   9.890   5.635 -2.4744  0.4521  0.0332
58146SOL     OW92047   9.487  12.586   4.671  0.3480 -0.3431  0.0779
58146SOL    HW192048   9.429  12.658   4.696  0.5770  0.2425 -1.0076
58146SOL    HW292049   9.575  12.624   4.674  0.7391 -1.2666  1.8906
58147SOL     OW92050   2.299   4.320   4.396  0.4022 -0.1153  0.3430
58147SOL    HW192051   2.325   4.344   4.485  0.2283 -0.9655  0.6256
58147SOL    HW292052   2.245   4.242   4.407 -0.0840  0.0975 -0.4647
58148SOL     OW92053   0.425  10.265  10.123 -0.2007  0.1737 -0.2606
58148SOL    HW192054   0.472  10.265  10.206 -0.6523 -0.1760 -0.0016
58148SOL    HW292055   0.401  10.174  10.109 -1.4787  0.4506  0.0050
58149SOL     OW92056   0.083   6.665   0.054 -0.1810  0.7893  0.6604
58149SOL    HW192057   0.074   6.645   0.148  0.0800  1.9025  0.9427
58149SOL    HW292058   0.043   6.752   0.045  2.5024  2.0712  0.3454
58150SOL     OW92059   0.920   4.661   3.823  0.4723 -0.1056 -0.0505
58150SOL    HW192060   0.908   4.650   3.729  2.1113 -0.6820 -0.2277
58150SOL    HW292061   0.988   4.597   3.846  0.9396  0.8328  1.3042
58151SOL     OW92062   3.138   4.454   8.032  0.4956 -0.4682 -0.2496
58151SOL    HW192063   3.228   4.426   8.015  0.2985 -1.1224 -0.2357
58151SOL    HW292064   3.129   4.537   7.984  0.5509 -1.3006 -1.7413
58152SOL     OW92065   3.455   9.476   4.204  0.0085 -0.1120  0.0602
58152SOL    HW192066   3.402   9.554   4.219 -0.1238 -0.2488  0.3051
58152SOL    HW292067   3.482   9.449   4.291 -1.4309 -1.3833  0.1386
58153SOL     OW92068   4.274   4.563   3.660 -0.0113 -0.1513  0.5223
58153SOL    HW192069   4.229   4.595   3.581  1.0649  0.1419 -0.0041
58153SOL    HW292070   4.288   4.470   3.644 -0.5087 -0.2611  0.7267
58154SOL     OW92071   5.361   3.364   7.306  0.5372  0.5432 -0.6244
58154SOL    HW192072   5.310   3.306   7.362 -0.6193  0.7862 -1.3771
58154SOL    HW292073   5.374   3.443   7.358 -1.3933  1.1601 -1.0076
58155SOL     OW92074   9.449   8.729   4.280  0.1073 -0.1636 -0.4874
58155SOL    HW192075   9.516   8.713   4.346  0.1166 -0.5834 -0.5929
58155SOL    HW292076   9.494   8.720   4.197  0.1890  0.7830 -0.5586
58156SOL     OW92077  12.794  13.836  13.426 -0.0455 -0.1895 -0.4246
58156SOL    HW192078  12.874  13.883  13.402  1.4032 -1.6844  1.2054
58156SOL    HW292079  12.727  13.904  13.432  1.4709  1.3546 -0.2482
58157SOL     OW92080  10.295   7.954   9.671 -0.0849  0.1714 -0.1239
58157SOL    HW192081  10.254   7.881   9.718  1.1767 -0.9911 -0.7382
58157SOL    HW292082  10.253   8.032   9.706 -0.3424 -0.7432  1.7515
58158SOL     OW92083   8.171   8.525   4.618 -0.1437 -0.5957 -0.5465
58158SOL    HW192084   8.148   8.443   4.573  0.1496 -1.5976  1.0540
58158SOL    HW292085   8.260   8.544   4.589 -0.7867  0.0941 -2.2014
58159SOL     OW92086   4.639   2.345   2.397  0.7044  0.2904 -0.4479
58159SOL    HW192087   4.549   2.376   2.397  0.1685 -1.1970  0.1943
58159SOL    HW292088   4.687   2.410   2.448 -0.6337 -0.5595  2.0142
58160SOL     OW92089   7.143   3.909   5.122 -0.0013 -0.1970 -0.6038
58160SOL    HW192090   7.079   3.961   5.170 -0.1402 -0.7214 -0.2068
58160SOL    HW292091   7.198   3.869   5.190  2.1891  1.9824 -0.9685
58161SOL     OW92092  11.532   3.902   2.069 -0.4678 -0.1655 -0.2149
58161SOL    HW192093  11.609   3.910   2.012 -1.0642 -1.8686 -1.3204
58161SOL    HW292094  11.568   3.895   2.157  0.5301  1.1928 -0.4806
58162SOL     OW92095  14.042   0.360  13.361  0.3283 -0.2334 -0.3785
58162SOL    HW192096  14.055   0.283  13.305 -1.0462 -0.7231 -0.0680
58162SOL    HW292097  14.059   0.328  13.449 -0.7290 -0.3170 -0.1993
58163SOL     OW92098   4.389   5.041   3.171  0.0878  0.1056  0.0136
58163SOL    HW192099   4.458   4.988   3.212 -1.2723 -0.1613  2.1202
58163SOL    HW292100   4.418   5.131   3.183  0.2712 -0.0171  0.5212
58164SOL     OW92101   4.229   8.012   1.499 -0.6352 -0.0653  0.4947
58164SOL    HW192102   4.145   8.003   1.454 -0.7179 -1.9225  0.9390
58164SOL    HW292103   4.250   7.923   1.529  0.3984  0.7462  2.3476
58165SOL     OW92104   7.208   0.926  10.184  0.2662  0.1536  0.5441
58165SOL    HW192105   7.234   0.960  10.098 -1.6319  0.4089  0.0250
58165SOL    HW292106   7.191   0.833  10.169  2.3427 -0.4000  1.2539
58166SOL     OW92107   7.146  11.122   0.310 -0.1481 -0.4854 -0.1471
58166SOL    HW192108   7.077  11.099   0.247  0.1202 -0.7413 -0.3538
58166SOL    HW292109   7.131  11.063   0.384  0.5432 -1.3561 -0.6802
58167SOL     OW92110  12.228  12.517  12.563  0.1908 -0.3658 -0.1115
58167SOL    HW192111  12.239  12.609  12.540  1.3255 -0.8054 -1.4922
58167SOL    HW292112  12.223  12.517  12.659 -2.6216  1.3460 -0.1515
58168SOL     OW92113  12.212  13.814   3.118  0.1137 -0.0217 -0.2534
58168SOL    HW192114  12.280  13.760   3.157  1.2111  1.5128  0.0746
58168SOL    HW292115  12.219  13.798   3.024  0.7729 -0.0711 -0.1998
58169SOL     OW92116  13.266   6.461  10.471 -0.3371 -0.4441  0.1006
58169SOL    HW192117  13.211   6.458  10.549  1.6441  0.9636  1.6560
58169SOL    HW292118  13.238   6.541  10.426 -0.8184 -0.7390 -0.1346
58170SOL     OW92119  10.559   4.749   0.178  0.2333  0.7549 -0.1010
58170SOL    HW192120  10.615   4.757   0.101  0.2615  1.7509  0.0063
58170SOL    HW292121  10.559   4.656   0.199 -1.0641  0.1987 -2.2512
58171SOL     OW92122  12.124   8.423   8.031 -0.4517 -0.8252  0.3173
58171SOL    HW192123  12.215   8.399   8.050 -0.2193 -0.6370 -0.5042
58171SOL    HW292124  12.131   8.505   7.982 -1.0398 -1.0217 -0.1005
58172SOL     OW92125   0.201  13.698  13.007  0.1787 -0.1423 -0.3484
58172SOL    HW192126   0.141  13.700  13.081 -0.0131  0.1811 -0.5102
58172SOL    HW292127   0.166  13.763  12.945  2.0124  1.9243  0.5994
58173SOL     OW92128   3.352   9.816   8.135 -0.2177 -0.1512  0.2883
58173SOL    HW192129   3.361   9.755   8.062  1.6272  1.1862 -0.6661
58173SOL    HW292130   3.422   9.791   8.195  0.2796  0.7460  0.0907
58174SOL     OW92131  10.492   1.162   0.416 -0.2441 -0.0791  0.6483
58174SOL    HW192132  10.425   1.184   0.352 -0.1224  0.6885  0.7755
58174SOL    HW292133  10.536   1.245   0.435  0.5390 -0.5117  0.7957
58175SOL     OW92134   1.270  10.303  13.689  0.3639  0.2077 -0.1949
58175SOL    HW192135   1.189  10.257  13.709 -0.3003  1.6889  0.6528
58175SOL    HW292136   1.268  10.315  13.594 -0.8834  1.0560 -0.0767
58176SOL     OW92137   4.565   2.257   4.398  0.0376  0.5386  0.5420
58176SOL    HW192138   4.616   2.205   4.461  0.2986  0.4219  0.2367
58176SOL    HW292139   4.533   2.192   4.335  3.8032  1.0817 -2.3100
58177SOL     OW92140   1.841   0.028   1.549  0.1970  0.1351 -0.0647
58177SOL    HW192141   1.929  -0.003   1.566  0.7984  2.0218  0.5458
58177SOL    HW292142   1.853   0.104   1.491 -1.1918 -0.7653 -1.6228
58178SOL     OW92143   2.048   7.950   8.064 -1.0958  0.4841  0.1757
58178SOL    HW192144   1.959   7.966   8.032 -0.7751 -0.5121 -1.3027
58178SOL    HW292145   2.060   7.856   8.055  0.7955  0.8127 -1.6080
58179SOL     OW92146   1.962   3.124   6.273  0.3951  0.3213  0.0510
58179SOL    HW192147   1.874   3.147   6.305 -0.4021  0.4950 -2.0750
58179SOL    HW292148   1.994   3.059   6.335  0.0763  2.4633  2.6194
58180SOL     OW92149   7.800   2.505   3.524  0.1610  0.4136  0.2463
58180SOL    HW192150   7.772   2.583   3.572  0.8191  1.0597 -0.3829
58180SOL    HW292151   7.877   2.473   3.572 -0.4916 -0.2320  0.8725
58181SOL     OW92152   5.749   3.927   9.379 -0.4889 -0.4007 -0.1753
58181SOL    HW192153   5.822   3.988   9.387 -0.3015 -0.7662  1.0344
58181SOL    HW292154   5.716   3.941   9.290 -0.1415  1.0940 -0.0875
58182SOL     OW92155   6.533   6.566   9.627  0.0642 -0.3687  0.5636
58182SOL    HW192156   6.464   6.501   9.621 -1.7771  1.4426  0.9337
58182SOL    HW292157   6.578   6.545   9.709 -0.6860 -0.9890  0.8316
58183SOL     OW92158  12.525   0.404   1.123 -0.0378  0.5166  0.1240
58183SOL    HW192159  12.607   0.417   1.170  1.1782 -1.1611 -1.3979
58183SOL    HW292160  12.546   0.430   1.033 -1.2117  0.1171 -0.2761
58184SOL     OW92161   0.878  11.596   9.978 -0.1417  0.2216  0.2813
58184SOL    HW192162   0.963  11.598   9.935 -0.7754 -1.0276 -1.1135
58184SOL    HW292163   0.877  11.514  10.027  0.1691  1.1431  1.9086
58185SOL     OW92164  10.427   7.599   2.885 -0.1690  0.4818  0.5698
58185SOL    HW192165  10.405   7.613   2.978 -0.5411  1.9452  0.2886
58185SOL    HW292166  10.381   7.669   2.839  0.0354 -0.2073 -0.7353
58186SOL     OW92167   3.647   9.990   7.474 -0.0801 -0.6018 -1.2311
58186SOL    HW192168   3.709   9.955   7.410  0.4515  1.8937 -2.1923
58186SOL    HW292169   3.563   9.990   7.428  0.0121 -0.2473 -1.4105
58187SOL     OW92170  13.441   7.990   3.762  0.0681 -0.2170  0.1110
58187SOL    HW192171  13.471   8.081   3.765 -2.2045  0.6468 -0.9013
58187SOL    HW292172  13.425   7.967   3.854  1.5635  0.0286  0.4645
58188SOL     OW92173  11.815   7.638  12.225 -0.2192 -0.0025 -0.4285
58188SOL    HW192174  11.824   7.714  12.282  1.8179 -0.4979  0.0000
58188SOL    HW292175  11.806   7.564  12.285  0.5963 -0.3787 -0.7467
58189SOL     OW92176   0.407   4.269   6.703  0.1705 -0.2694  0.0810
58189SOL    HW192177   0.432   4.295   6.791  0.9122 -2.6172  0.6255
58189SOL    HW292178   0.477   4.303   6.647 -0.5004  1.5619  0.2994
58190SOL     OW92179   8.545   8.940   4.578 -0.1380  0.1807  0.1884
58190SOL    HW192180   8.494   8.862   4.599  0.9434 -0.8360 -0.7788
58190SOL    HW292181   8.610   8.946   4.649  0.7110 -0.6855 -0.4866
58191SOL     OW92182   7.898   1.725   4.370 -0.4727 -0.3551 -1.0954
58191SOL    HW192183   7.805   1.716   4.392  0.1068  0.5564  2.3595
58191SOL    HW292184   7.931   1.635   4.372 -0.8282 -0.4955  0.5033
58192SOL     OW92185   7.358  12.888  10.169  1.0062  0.1283 -0.4000
58192SOL    HW192186   7.291  12.837  10.124  0.9761 -0.2388  0.0596
58192SOL    HW292187   7.383  12.956  10.106 -0.2038  0.6271 -0.3539
58193SOL     OW92188   4.310   8.343   9.759 -0.4560  0.1682 -0.9223
58193SOL    HW192189   4.372   8.278   9.725 -1.1470 -0.6247 -0.7059
58193SOL    HW292190   4.247   8.354   9.688 -1.0687 -0.3835 -0.4805
58194SOL     OW92191  13.329  13.162   1.851  0.0450  0.2109  0.5406
58194SOL    HW192192  13.412  13.179   1.806  0.0239 -1.5378 -0.2573
58194SOL    HW292193  13.347  13.181   1.943  0.8901  1.2623  0.1771
58195SOL     OW92194   0.686   2.694   3.700 -0.0322 -0.4896  0.3869
58195SOL    HW192195   0.668   2.785   3.678 -2.0129 -0.9989 -0.3060
58195SOL    HW292196   0.625   2.644   3.646  2.0481 -2.3352 -0.3796
58196SOL     OW92197   0.718   1.283   4.329 -0.0841 -0.0272  0.1863
58196SOL    HW192198   0.629   1.268   4.361 -0.3386 -0.1962 -0.5776
58196SOL    HW292199   0.761   1.199   4.338  0.5784  0.4771  2.2612
58197SOL     OW92200   0.396   3.640  10.251 -0.1040  0.0040  0.2226
58197SOL    HW192201   0.355   3.583  10.186 -0.9217  1.2241 -0.3578
58197SOL    HW292202   0.490   3.628  10.238 -0.1546 -2.9692  1.6836
58198SOL     OW92203   7.144   8.281   3.231 -0.1034 -0.0855  0.3605
58198SOL    HW192204   7.149   8.213   3.298 -0.4292  0.0623  0.5369
58198SOL    HW292205   7.113   8.235   3.153 -0.7741 -0.0541  0.6050
58199SOL     OW92206   9.042   0.754   9.647 -0.0462 -0.0398 -0.3911
58199SOL    HW192207   9.046   0.836   9.697  2.0468  0.7901 -1.7973
58199SOL    HW292208   8.961   0.761   9.596  0.3472  1.4210 -0.8580
58200SOL     OW92209  11.978  12.481   9.735  0.2309 -0.2481 -0.6995
58200SOL    HW192210  11.931  12.443   9.660 -2.5483 -0.0838  0.8246
58200SOL    HW292211  12.007  12.567   9.703  1.1778 -1.0950 -2.2672
58201SOL     OW92212   4.619   3.326   9.013  0.7262  0.2239 -0.3962
58201SOL    HW192213   4.598   3.238   8.980  1.2359  0.1204 -0.4518
58201SOL    HW292214   4.619   3.381   8.934 -1.5491  0.6798 -0.1401
58202SOL     OW92215   4.487  12.645   9.079 -0.5755 -0.2526 -0.4518
58202SOL    HW192216   4.499  12.672   9.170 -0.3393 -1.5837 -0.0609
58202SOL    HW292217   4.538  12.564   9.071 -0.2514  0.0553 -1.8860
58203SOL     OW92218   2.584   0.332   9.642  0.3045 -0.0616  0.3797
58203SOL    HW192219   2.494   0.307   9.623  0.0450  0.1214  1.3105
58203SOL    HW292220   2.583   0.428   9.642  0.1314 -0.0417  1.9442
58204SOL     OW92221   9.069  13.737  10.633  0.2355  0.3352  0.0455
58204SOL    HW192222   8.997  13.689  10.591  0.2464  0.8034 -0.5208
58204SOL    HW292223   9.148  13.701  10.593  0.2027  1.5653 -1.2017
58205SOL     OW92224   4.223   1.526   7.658  0.4648 -0.3125  0.2551
58205SOL    HW192225   4.136   1.504   7.624  0.3785 -0.8661  0.7953
58205SOL    HW292226   4.280   1.529   7.582 -0.2857  1.4288 -0.2789
58206SOL     OW92227  13.953  12.967  10.413 -0.1561 -0.3334  0.0882
58206SOL    HW192228  13.916  13.046  10.374  0.7996  0.2750  0.3925
58206SOL    HW292229  13.920  12.896  10.358  0.2765  0.4055 -1.1601
58207SOL     OW92230  12.141   6.515   6.345  0.0406 -0.0454 -0.0456
58207SOL    HW192231  12.145   6.466   6.427  0.4877  1.6813  1.0231
58207SOL    HW292232  12.169   6.603   6.369 -0.0400  0.5608 -2.0282
58208SOL     OW92233   1.260   8.746   2.207 -0.5392  0.4911  0.7437
58208SOL    HW192234   1.236   8.663   2.167 -0.0608 -0.3002  2.0299
58208SOL    HW292235   1.188   8.766   2.266 -1.1788  1.5807 -0.3625
58209SOL     OW92236  12.653   9.397   7.266 -0.2092  0.0751  0.9723
58209SOL    HW192237  12.695   9.407   7.180  0.2336 -2.4091  0.8323
58209SOL    HW292238  12.685   9.313   7.299 -2.7092 -0.4653  2.2339
58210SOL     OW92239   7.368   5.150   5.387 -0.0281  0.1185  0.2981
58210SOL    HW192240   7.316   5.087   5.337  1.6747 -1.7224  0.7434
58210SOL    HW292241   7.313   5.172   5.463 -1.2260  0.3079 -0.5989
58211SOL     OW92242   3.712   9.632  14.004  0.1974 -0.7062  0.2650
58211SOL    HW192243   3.738   9.540  14.004 -2.0323 -1.4046  1.6155
58211SOL    HW292244   3.619   9.630  13.979 -0.4475  0.9406  2.2725
58212SOL     OW92245   6.420   3.567   1.621  0.6600 -0.1355  0.3000
58212SOL    HW192246   6.359   3.629   1.660  0.2135  0.4250 -1.2180
58212SOL    HW292247   6.500   3.618   1.608  1.1124 -0.5758  1.3139
58213SOL     OW92248   3.488  13.999   6.225  0.4220  0.2106  0.4005
58213SOL    HW192249   3.413  13.943   6.207  0.3900  0.4212 -0.1399
58213SOL    HW292250   3.456  14.088   6.210  1.0689  0.2420 -0.9070
58214SOL     OW92251   0.970   1.369   0.269 -0.0004  0.0422  0.0753
58214SOL    HW192252   0.956   1.379   0.363  1.8357 -2.2944  0.7038
58214SOL    HW292253   0.926   1.287   0.248 -0.2280  0.4497 -1.0851
58215SOL     OW92254   0.646  10.750  13.053 -0.4090  0.2336  0.5458
58215SOL    HW192255   0.578  10.731  13.117 -0.8890  0.2427  0.0468
58215SOL    HW292256   0.628  10.690  12.981  0.3787 -0.0720  0.5896
58216SOL     OW92257   4.789   4.541  10.857  0.4595  0.7783 -0.5395
58216SOL    HW192258   4.864   4.501  10.813  0.6763 -0.6708  1.0349
58216SOL    HW292259   4.798   4.514  10.948 -2.3707 -0.1345 -0.4288
58217SOL     OW92260   5.805   3.230   7.346 -0.2168 -0.3991 -0.0065
58217SOL    HW192261   5.715   3.206   7.324  0.0369  0.3996 -2.1769
58217SOL    HW292262   5.857   3.197   7.273  1.1066  0.1205  0.6744
58218SOL     OW92263   2.630   6.321   5.222 -0.1826 -0.6725 -0.0337
58218SOL    HW192264   2.654   6.400   5.269 -1.7502 -0.7888  1.0362
58218SOL    HW292265   2.605   6.352   5.134  0.0998 -0.1065  0.0820
58219SOL     OW92266   0.117   2.901   3.922  0.1619 -0.9034 -0.2266
58219SOL    HW192267   0.120   2.951   3.841 -1.3285 -0.9228 -0.3166
58219SOL    HW292268   0.181   2.944   3.979 -0.1248  0.2652 -0.7650
58220SOL     OW92269  12.879   5.935   8.302  0.2772 -0.2155  0.5084
58220SOL    HW192270  12.949   5.982   8.347 -0.3084 -0.8392  2.1566
58220SOL    HW292271  12.924   5.871   8.248  1.0276 -1.3779  2.4012
58221SOL     OW92272  11.800   8.685  10.536 -0.0572  0.1036 -0.1644
58221SOL    HW192273  11.892   8.711  10.538  0.0503  0.2590 -3.2828
58221SOL    HW292274  11.763   8.725  10.615  2.7966 -1.2698  2.0595
58222SOL     OW92275   1.332   1.052   6.287 -0.1381 -0.0168  0.3328
58222SOL    HW192276   1.243   1.019   6.279  0.2633 -0.7800 -1.5621
58222SOL    HW292277   1.330   1.109   6.365 -2.2254 -0.0922  0.3887
58223SOL     OW92278   0.759   2.317   7.959  0.0305  0.0459  1.0598
58223SOL    HW192279   0.725   2.283   7.876  0.1684  4.0305 -0.8709
58223SOL    HW292280   0.685   2.362   7.998  0.4739 -0.1544  2.1556
58224SOL     OW92281  12.446  13.588  12.808 -0.1612  0.0119  0.2349
58224SOL    HW192282  12.351  13.597  12.802 -0.0296  0.4793 -1.5800
58224SOL    HW292283  12.480  13.675  12.786  0.6971  0.2766  2.3058
58225SOL     OW92284   4.248   7.540   3.312  0.3581  0.1732  0.4795
58225SOL    HW192285   4.241   7.625   3.355 -0.2924 -0.3819  1.5181
58225SOL    HW292286   4.158   7.506   3.313  0.2947  0.1921 -1.4511
58226SOL     OW92287  13.085  13.406   9.962 -1.0843  0.3054  0.3355
58226SOL    HW192288  13.092  13.401  10.058 -3.8062  1.0810  0.6511
58226SOL    HW292289  13.062  13.317   9.935 -1.5388  0.3567  0.5492
58227SOL     OW92290   4.892  10.299   7.953  0.1019 -0.1343 -0.0233
58227SOL    HW192291   4.937  10.378   7.982  1.3596 -0.9623  0.3667
58227SOL    HW292292   4.891  10.305   7.858  2.5221 -0.8224 -0.1640
58228SOL     OW92293   5.149   9.311   0.131  0.0338 -0.4421 -0.0524
58228SOL    HW192294   5.239   9.343   0.138 -0.2092  0.1391  0.5061
58228SOL    HW292295   5.112   9.359   0.057 -1.0654  2.4675  2.2223
58229SOL     OW92296   8.617   2.684  10.965 -0.5104  0.1099 -0.1866
58229SOL    HW192297   8.608   2.725  10.879 -0.8162  1.0196  0.2721
58229SOL    HW292298   8.529   2.689  11.003 -0.5749 -1.0260 -0.1304
58230SOL     OW92299   6.545   2.806   9.291  0.3935 -0.1988  0.3719
58230SOL    HW192300   6.613   2.825   9.226 -0.3557  2.1513  0.1729
58230SOL    HW292301   6.501   2.727   9.258  0.7508  0.2974 -1.3889
58231SOL     OW92302   4.984  13.609   1.146  0.1381  0.8952  0.3403
58231SOL    HW192303   4.987  13.701   1.171  0.7786  0.6962  1.0399
58231SOL    HW292304   5.065  13.572   1.181  0.2456  0.2191 -0.5726
58232SOL     OW92305   7.379   0.057   7.944  0.1435  0.4549 -0.4180
58232SOL    HW192306   7.305   0.007   7.976  0.3745 -0.5958 -1.4566
58232SOL    HW292307   7.454   0.022   7.992  0.4116 -0.7581 -1.6314
58233SOL     OW92308   2.180   9.821  12.842  0.0941 -0.9065  0.0466
58233SOL    HW192309   2.255   9.774  12.807 -0.1935 -1.2409 -0.1292
58233SOL    HW292310   2.134   9.756  12.896 -1.0356 -1.2345 -1.2491
58234SOL     OW92311  12.869   5.486  12.159 -0.1201 -0.1413  0.1280
58234SOL    HW192312  12.937   5.546  12.188 -1.9763  1.5175  1.2890
58234SOL    HW292313  12.860   5.503  12.065  1.5889 -1.0107 -0.2403
58235SOL     OW92314   7.799  13.422   0.118  0.7624  0.0629 -0.4372
58235SOL    HW192315   7.852  13.344   0.104  1.1023 -0.1612  1.8237
58235SOL    HW292316   7.742  13.426   0.041  1.1627 -2.0488 -0.8987
58236SOL     OW92317   0.946   0.324   6.711  0.4070 -0.6545  0.4293
58236SOL    HW192318   0.892   0.307   6.788 -0.5458  2.1935  0.4862
58236SOL    HW292319   0.908   0.269   6.643 -0.4867 -1.1541  1.2990
58237SOL     OW92320   1.345   1.760  12.599  0.2135  0.0144  0.1140
58237SOL    HW192321   1.409   1.763  12.671 -0.3042  0.9208  0.5558
58237SOL    HW292322   1.331   1.666  12.584  0.9503 -0.1931  0.6305
58238SOL     OW92323   6.995  10.448   3.130 -0.0168 -0.7943  0.8747
58238SOL    HW192324   6.984  10.401   3.047 -2.3508  1.8062 -0.4679
58238SOL    HW292325   6.987  10.380   3.197 -0.8456 -2.6306 -0.9641
58239SOL     OW92326  13.856  12.527   1.937  0.0551  0.0325 -0.1388
58239SOL    HW192327  13.832  12.593   1.873  0.7192  0.6147  0.1900
58239SOL    HW292328  13.776  12.477   1.952 -0.7747  1.4389  0.3881
58240SOL     OW92329   0.752  11.950   2.553 -0.1701  0.3245  0.0471
58240SOL    HW192330   0.809  11.921   2.483 -0.7127  1.4892 -0.9151
58240SOL    HW292331   0.746  12.045   2.542 -3.1885  0.1601 -0.6390
58241SOL     OW92332  12.033   7.663  13.127 -0.5297 -0.0528 -0.0507
58241SOL    HW192333  11.945   7.683  13.095 -0.2082 -2.8675 -3.3640
58241SOL    HW292334  12.083   7.644  13.047  2.4875 -0.7063  1.8495
58242SOL     OW92335   2.647  10.191  11.330 -0.3548 -0.8593 -0.1534
58242SOL    HW192336   2.585  10.175  11.401  0.3406 -0.3644  0.5892
58242SOL    HW292337   2.659  10.105  11.289  1.0701 -1.7178  1.8762
58243SOL     OW92338  11.279  10.415  12.241  0.2723  0.3418 -0.1856
58243SOL    HW192339  11.297  10.470  12.165  0.5923 -0.5035 -0.7369
58243SOL    HW292340  11.366  10.386  12.270  0.1526  0.6691  0.5212
58244SOL     OW92341   2.107  12.667   9.562  0.0280  0.1908  0.4235
58244SOL    HW192342   2.153  12.749   9.540  0.7643  0.4527  2.6311
58244SOL    HW292343   2.174  12.599   9.551 -1.0044 -0.4441 -2.9639
58245SOL     OW92344   5.987   4.790   2.473  0.6194  0.4204 -0.6442
58245SOL    HW192345   6.077   4.801   2.503  0.5597  0.2931 -0.4151
58245SOL    HW292346   5.934   4.799   2.552  0.4421  0.3395 -0.7529
58246SOL     OW92347  13.861  11.733   3.727  0.4806  0.3570 -0.3752
58246SOL    HW192348  13.894  11.818   3.757 -0.7243  0.6306  0.2029
58246SOL    HW292349  13.769  11.732   3.752  0.2046 -0.6839 -1.3549
58247SOL     OW92350   9.134   2.758   3.107 -0.6404  0.5038 -0.8943
58247SOL    HW192351   9.191   2.681   3.117 -1.7436 -0.2582 -0.2102
58247SOL    HW292352   9.187   2.831   3.139  0.0484 -0.1450 -0.5149
58248SOL     OW92353   8.813   5.982  13.896 -0.0189 -0.1976 -0.3702
58248SOL    HW192354   8.794   5.986  13.990  0.3227 -3.4226 -0.0487
58248SOL    HW292355   8.906   6.006  13.890  0.2279 -0.9430  0.2690
58249SOL     OW92356   3.206  10.952  12.875 -0.0299  0.0925  0.0151
58249SOL    HW192357   3.241  10.956  12.964 -0.6205  0.5831  0.2344
58249SOL    HW292358   3.219  10.861  12.848  1.4929  0.2757  0.0418
58250SOL     OW92359   1.371   6.496  11.579  0.3354 -0.5535  0.4792
58250SOL    HW192360   1.278   6.516  11.564  0.0018 -1.3384  1.3517
58250SOL    HW292361   1.418   6.556  11.522 -0.7331 -0.8202 -0.7264
58251SOL     OW92362   3.434   6.340   2.211  0.3506 -0.8061 -0.2066
58251SOL    HW192363   3.469   6.285   2.140  0.5867  0.5797 -1.2018
58251SOL    HW292364   3.364   6.390   2.170  0.8419  0.4089  0.3944
58252SOL     OW92365  11.629  13.507  12.477  0.2054  0.0535  0.2770
58252SOL    HW192366  11.647  13.563  12.553 -0.4769  0.5551  0.0694
58252SOL    HW292367  11.600  13.566  12.409  0.3204 -0.4581 -0.2247
58253SOL     OW92368   2.357  11.169   7.196  0.4868 -0.3160  1.0007
58253SOL    HW192369   2.444  11.205   7.216  0.9153 -0.7982  0.0377
58253SOL    HW292370   2.344  11.101   7.262  0.8926 -0.3243  1.0763
58254SOL     OW92371   8.308   7.493   4.805 -0.1380 -0.0838 -0.2844
58254SOL    HW192372   8.366   7.509   4.730 -1.1580 -0.5110 -1.1979
58254SOL    HW292373   8.308   7.576   4.853 -0.5280  0.6722 -1.5276
58255SOL     OW92374   8.277   6.468   7.924 -0.4939 -0.1068 -0.2182
58255SOL    HW192375   8.313   6.473   7.835 -0.4373 -0.4136 -0.2128
58255SOL    HW292376   8.347   6.502   7.980 -1.0271  1.3879 -0.4104
58256SOL     OW92377  11.114   9.687   5.482 -0.4431 -0.0505  0.1785
58256SOL    HW192378  11.147   9.733   5.406 -1.0755  1.3388  0.7175
58256SOL    HW292379  11.033   9.645   5.452 -0.0193 -0.5773 -0.2364
58257SOL     OW92380   6.633  11.070  12.668 -0.4603 -0.0432  0.6232
58257SOL    HW192381   6.616  11.124  12.592 -2.4833  1.6835  2.1712
58257SOL    HW292382   6.636  10.981  12.634  0.1680  0.7639 -1.6262
58258SOL     OW92383   5.633  12.341   9.285  0.2758  0.2111  0.5442
58258SOL    HW192384   5.645  12.253   9.322  0.0629 -0.5001 -1.0004
58258SOL    HW292385   5.539  12.348   9.270  0.1077  1.2745  1.9520
58259SOL     OW92386   9.515   3.738  13.786 -0.0619  0.3465  0.0599
58259SOL    HW192387   9.611   3.736  13.792  0.0051 -1.6744 -0.8955
58259SOL    HW292388   9.486   3.665  13.840 -0.8485 -0.9453 -1.9755
58260SOL     OW92389   0.997  12.922   0.611 -0.1872  0.1315  0.6633
58260SOL    HW192390   0.976  12.829   0.613  1.7121 -0.3225  1.7190
58260SOL    HW292391   1.024  12.938   0.521  0.0288 -0.4804  0.6121
58261SOL     OW92392   0.383   3.671  10.563 -0.0329  0.2778  0.5102
58261SOL    HW192393   0.448   3.620  10.515 -1.0049  1.2912 -2.0739
58261SOL    HW292394   0.301   3.624  10.549 -0.5551  1.3181  0.0362
58262SOL     OW92395   1.719  12.648   8.301 -0.0618  0.3527  0.0839
58262SOL    HW192396   1.642  12.590   8.299 -0.6597  1.0661  1.4256
58262SOL    HW292397   1.727  12.679   8.211  1.5162 -3.3268 -1.2789
58263SOL     OW92398   1.458   1.154   3.073  0.1629  0.2855  0.0259
58263SOL    HW192399   1.411   1.228   3.035  1.4718  1.2174  0.1528
58263SOL    HW292400   1.432   1.079   3.020 -1.0386  0.8583 -0.2302
58264SOL     OW92401   3.997   9.665  10.485  0.0907 -0.4696 -0.5890
58264SOL    HW192402   4.018   9.758  10.476 -0.7855  0.0385  1.9095
58264SOL    HW292403   3.917   9.663  10.538  0.5569 -2.6740  0.1489
58265SOL     OW92404   5.464   6.985   6.272 -0.0420  0.1317  0.1516
58265SOL    HW192405   5.481   7.062   6.326  1.4858  0.4181 -0.6816
58265SOL    HW292406   5.545   6.934   6.276 -0.5269 -0.7185 -0.4506
58266SOL     OW92407  12.773   4.831   2.566 -0.4335  0.3007 -0.2255
58266SOL    HW192408  12.762   4.894   2.494  1.4042  1.9902  0.8553
58266SOL    HW292409  12.724   4.870   2.638 -0.7656 -0.4543 -0.0409
58267SOL     OW92410  13.662   8.110   8.787 -0.1785  0.3314 -0.0287
58267SOL    HW192411  13.622   8.117   8.874 -2.6471 -0.3106 -1.0211
58267SOL    HW292412  13.641   8.192   8.743  1.2455  0.7428  0.0190
58268SOL     OW92413   7.345  11.871   5.084  0.5534 -0.5181  0.3011
58268SOL    HW192414   7.324  11.778   5.095  0.8788 -0.4408  1.7524
58268SOL    HW292415   7.276  11.904   5.026 -0.1115 -1.4522  0.5274
58269SOL     OW92416   6.267   9.117   9.125 -0.0563  0.0890  0.6135
58269SOL    HW192417   6.252   9.108   9.219 -0.3717  0.4189  0.5969
58269SOL    HW292418   6.344   9.063   9.107  0.2062  0.2951  1.1143
58270SOL     OW92419   0.172   8.618  12.930 -0.5858  0.6003  0.3663
58270SOL    HW192420   0.225   8.540  12.942  0.5859  1.2187 -0.5714
58270SOL    HW292421   0.227   8.690  12.961 -2.1137  0.9928  2.4283
58271SOL     OW92422   4.830   2.195   7.973 -0.2606 -0.4909  0.1171
58271SOL    HW192423   4.755   2.242   8.009 -1.3096 -3.0617  1.6212
58271SOL    HW292424   4.808   2.180   7.881 -0.3144  1.0737 -0.1412
58272SOL     OW92425   0.153   7.845   6.717  0.0164  0.3167 -0.0737
58272SOL    HW192426   0.173   7.804   6.633  1.1810 -0.3286  0.4927
58272SOL    HW292427   0.118   7.774   6.771 -1.9606  0.9924 -0.3755
58273SOL     OW92428   5.137   3.997   2.511  0.3424 -0.5510  0.2026
58273SOL    HW192429   5.046   3.982   2.539  0.4587 -0.1792  0.8037
58273SOL    HW292430   5.156   3.923   2.453 -0.4072 -0.5299 -0.0905
58274SOL     OW92431  10.712   2.228   1.884 -0.5107  0.0279 -0.2947
58274SOL    HW192432  10.631   2.277   1.903 -0.0122  0.0078  2.2033
58274SOL    HW292433  10.780   2.275   1.932  0.8639 -0.4485 -1.6843
58275SOL     OW92434   0.332  11.163  11.174 -0.7298  0.1051 -0.7785
58275SOL    HW192435   0.247  11.197  11.147  0.1172  2.0776 -1.1670
58275SOL    HW292436   0.387  11.173  11.096 -0.2887 -1.8176 -0.7590
58276SOL     OW92437  12.200  13.171  13.469 -0.1527  0.2445 -0.2605
58276SOL    HW192438  12.224  13.124  13.549 -1.3643 -0.2423 -0.1533
58276SOL    HW292439  12.235  13.117  13.398 -2.6549 -1.6459 -0.2061
58277SOL     OW92440   2.275   2.808  11.073 -0.5358 -0.3214 -0.1902
58277SOL    HW192441   2.228   2.727  11.057  0.1020 -0.3398 -2.4770
58277SOL    HW292442   2.260   2.860  10.993  0.9491  0.8244  0.2262
58278SOL     OW92443   0.231   0.040  12.131  0.0309  0.4158 -0.1123
58278SOL    HW192444   0.270   0.124  12.105  0.5845 -0.4375 -2.3213
58278SOL    HW292445   0.152   0.033  12.078 -1.3235  0.5660  1.8105
58279SOL     OW92446   6.022  10.957   9.315 -0.6047  0.1241  0.3599
58279SOL    HW192447   6.108  10.997   9.302 -1.0272  1.0724  0.3828
58279SOL    HW292448   5.966  10.995   9.247 -1.2618  0.3404  0.9963
58280SOL     OW92449   5.399  11.709   3.327 -0.6707  0.2496 -0.0957
58280SOL    HW192450   5.347  11.781   3.291 -2.4174 -0.6334  0.5148
58280SOL    HW292451   5.355  11.687   3.409 -1.0128 -2.3424 -0.8878
58281SOL     OW92452  12.818   7.284  13.003 -0.7258  0.0163  0.0685
58281SOL    HW192453  12.779   7.315  12.922 -0.6360  2.3286  0.8384
58281SOL    HW292454  12.778   7.338  13.071  0.0950 -1.0419  1.4554
58282SOL     OW92455   0.588   4.027   3.511  0.7846  0.2918  0.1416
58282SOL    HW192456   0.576   4.063   3.599 -0.7622  0.0205  0.0615
58282SOL    HW292457   0.508   4.051   3.464  0.5992 -1.5139 -0.5112
58283SOL     OW92458   2.599   3.723  11.748  0.0242 -0.1848  0.0247
58283SOL    HW192459   2.630   3.699  11.661  0.3776  0.8504 -0.1488
58283SOL    HW292460   2.628   3.813  11.760 -1.6214  0.3301  0.4602
58284SOL     OW92461   3.640  10.706   0.945 -0.4021  0.3927  0.0579
58284SOL    HW192462   3.688  10.785   0.966 -0.4315  0.3321  0.3558
58284SOL    HW292463   3.562  10.709   1.001 -1.6927  1.3944 -1.6614
58285SOL     OW92464   3.969  11.319   6.366 -0.3350  0.0361 -0.2244
58285SOL    HW192465   4.062  11.341   6.373 -0.4407  0.2517  0.6474
58285SOL    HW292466   3.939  11.364   6.288  0.5379 -0.9334 -1.1432
58286SOL     OW92467  12.574   5.834  12.879 -0.5122  0.2134 -0.0109
58286SOL    HW192468  12.578   5.807  12.971  0.8591 -1.2705 -0.4654
58286SOL    HW292469  12.644   5.899  12.870  0.4768 -0.8534 -0.3352
58287SOL     OW92470  13.948   8.446  13.018 -0.6150 -1.0832  0.4103
58287SOL    HW192471  13.855   8.460  12.999  0.1742  1.5928 -2.3434
58287SOL    HW292472  13.969   8.363  12.976 -1.5326 -1.1173 -0.0033
58288SOL     OW92473   2.952   3.609  11.548 -0.2892 -0.5211 -0.3896
58288SOL    HW192474   2.902   3.637  11.625 -0.6551 -0.7150 -0.5522
58288SOL    HW292475   2.985   3.691  11.511  1.6672 -0.5652  1.1413
58289SOL     OW92476   1.520   6.578   3.618  0.3801 -0.1596 -0.0908
58289SOL    HW192477   1.613   6.575   3.638  0.6170  0.7530 -0.9341
58289SOL    HW292478   1.491   6.662   3.654 -0.0086 -0.2290 -0.2434
58290SOL     OW92479   9.754  10.053   1.784 -0.3584  0.3562  0.1565
58290SOL    HW192480   9.770   9.974   1.731  0.1290 -0.9756  2.1615
58290SOL    HW292481   9.840  10.075   1.819 -0.6717  1.1809  0.4164
58291SOL     OW92482   1.272   6.304   9.616  0.0997  0.0748 -0.1580
58291SOL    HW192483   1.217   6.369   9.573 -0.4073 -0.1507  0.1388
58291SOL    HW292484   1.361   6.333   9.600 -0.1208  0.7365 -0.1999
58292SOL     OW92485   4.769  12.571   7.687 -0.6931  0.3962  0.2470
58292SOL    HW192486   4.802  12.526   7.610 -0.2429 -0.5419  0.9749
58292SOL    HW292487   4.798  12.518   7.761  0.2490  2.1207  1.1668
58293SOL     OW92488   3.597   1.314   4.624 -0.0266  0.1524 -0.4431
58293SOL    HW192489   3.665   1.259   4.664  0.1017  0.4609 -0.2318
58293SOL    HW292490   3.622   1.321   4.532  0.2762  0.3376 -0.3475
58294SOL     OW92491   6.861   3.785  10.459 -0.0361  0.1067  0.2806
58294SOL    HW192492   6.780   3.735  10.461  0.7660 -1.2896 -0.7202
58294SOL    HW292493   6.897   3.770  10.371  0.8686  1.4303  0.3866
58295SOL     OW92494  11.620   9.315   8.012  0.2650 -0.4999 -0.0538
58295SOL    HW192495  11.612   9.328   8.107  0.6108 -0.5074 -0.0210
58295SOL    HW292496  11.711   9.339   7.993  0.1146 -0.2332 -0.4278
58296SOL     OW92497   4.563   4.577   2.211  0.3325 -0.4901  0.2503
58296SOL    HW192498   4.629   4.510   2.226  0.5560 -0.7218 -1.5067
58296SOL    HW292499   4.600   4.632   2.142 -0.2986  0.8142  0.9241
58297SOL     OW92500   5.004  11.233   6.847 -0.0603  0.3650 -0.3713
58297SOL    HW192501   5.024  11.326   6.838 -1.4053  0.7777  0.5438
58297SOL    HW292502   4.913  11.231   6.878  0.5295 -1.1874  1.4386
58298SOL     OW92503  12.362  10.692  13.961  0.3675  0.0034  0.1997
58298SOL    HW192504  12.385  10.671  14.052  0.3642  1.1672  0.4966
58298SOL    HW292505  12.271  10.719  13.965  0.9003  1.9680  0.2290
58299SOL     OW92506  11.239  12.322  13.601  0.0923 -0.4540  0.3903
58299SOL    HW192507  11.289  12.348  13.678  0.0754  1.6940 -0.2564
58299SOL    HW292508  11.284  12.244  13.569  0.7180 -0.7788  1.9671
58300SOL     OW92509   0.986   3.456   6.587  0.0862 -0.1444 -0.8693
58300SOL    HW192510   0.909   3.422   6.633  0.5140 -0.2564 -0.2361
58300SOL    HW292511   1.050   3.474   6.655  0.7759 -0.4338 -1.4230
58301SOL     OW92512   9.997   5.644   7.016 -0.0987 -0.0788  0.4631
58301SOL    HW192513   9.987   5.561   6.968  2.4231  0.7505 -1.7315
58301SOL    HW292514  10.073   5.630   7.072  0.6367  0.8482 -0.2700
58302SOL     OW92515  12.696   6.502   2.531 -0.5493  0.2949 -0.0747
58302SOL    HW192516  12.665   6.556   2.604 -1.3552  2.6147 -2.0043
58302SOL    HW292517  12.764   6.555   2.489 -1.0062 -0.3844 -1.7622
58303SOL     OW92518   6.001   4.958   8.679 -0.0967 -0.1043 -0.0839
58303SOL    HW192519   5.974   4.928   8.766  2.0561  0.5438  0.8705
58303SOL    HW292520   5.935   4.921   8.619 -1.8566 -0.2344  1.8276
58304SOL     OW92521   3.794   1.944  11.014 -0.0003  0.3164 -0.2118
58304SOL    HW192522   3.799   1.861  10.967  1.1587  0.2756 -0.0551
58304SOL    HW292523   3.784   2.010  10.944 -0.3428  0.0923 -0.3748
58305SOL     OW92524  12.454   1.654   1.063  0.4868  0.6209 -0.0966
58305SOL    HW192525  12.451   1.637   1.158  1.9887  0.7117 -0.0066
58305SOL    HW292526  12.414   1.740   1.053  0.0875  0.5049  0.4220
58306SOL     OW92527  12.935   2.332  11.460  0.4929 -0.4483  0.0634
58306SOL    HW192528  12.859   2.364  11.508  0.1991 -0.6586 -0.2506
58306SOL    HW292529  12.970   2.262  11.515  0.0745 -0.7832 -0.0897
58307SOL     OW92530   0.038  11.051   7.602 -0.4652 -0.5086  0.2276
58307SOL    HW192531   0.003  11.014   7.682  2.5069 -1.9686  1.0164
58307SOL    HW292532   0.100  11.118   7.631 -0.4025 -0.0312 -0.9248
58308SOL     OW92533   1.599   6.900   1.292  1.0753 -0.2012  0.5125
58308SOL    HW192534   1.652   6.825   1.264  1.6810  0.1377  0.7428
58308SOL    HW292535   1.613   6.905   1.386 -0.9910 -1.3659  0.9519
58309SOL     OW92536   3.473   3.839   7.956 -0.0993  0.2532 -0.2685
58309SOL    HW192537   3.536   3.908   7.937  0.9914 -0.3894  0.8533
58309SOL    HW292538   3.518   3.758   7.930 -0.8037 -0.1381 -0.2817
58310SOL     OW92539  10.657   0.587   6.138  0.1342 -0.0242  0.6767
58310SOL    HW192540  10.750   0.568   6.148 -0.1268 -0.5887  2.1672
58310SOL    HW292541  10.613   0.530   6.200 -1.0243  2.0837  1.9346
58311SOL     OW92542   2.811   2.060   5.958  0.1095 -0.3221 -0.4123
58311SOL    HW192543   2.770   2.097   6.036  1.1252  2.0583 -0.9513
58311SOL    HW292544   2.741   2.007   5.918 -0.6091 -1.1129  1.7447
58312SOL     OW92545  10.453   3.069   5.041  0.3371  0.6128 -0.0060
58312SOL    HW192546  10.393   3.100   5.109  1.2103  1.8931  0.2318
58312SOL    HW292547  10.403   3.004   4.992 -0.1746 -0.7095  2.1251
58313SOL     OW92548   1.145  11.710   9.428  0.2880 -0.1362 -0.2824
58313SOL    HW192549   1.184  11.658   9.358  1.5368 -0.3608  0.5539
58313SOL    HW292550   1.199  11.692   9.504 -1.5679 -0.5909  0.9845
58314SOL     OW92551   3.119  13.407  13.767  0.2346 -0.6071 -0.5525
58314SOL    HW192552   3.166  13.431  13.847  1.0452 -0.3174 -1.0933
58314SOL    HW292553   3.070  13.329  13.791 -1.0949  0.5558  0.7702
58315SOL     OW92554   0.084  10.794   9.468 -0.1517 -0.1596 -0.2118
58315SOL    HW192555   0.038  10.835   9.541  1.0217  0.2873  0.2926
58315SOL    HW292556   0.176  10.815   9.482  0.2053 -0.9103 -1.2822
58316SOL     OW92557   6.683   0.315   9.835 -0.2817 -0.1319  0.0300
58316SOL    HW192558   6.617   0.287   9.772 -0.2521  0.2633 -0.1768
58316SOL    HW292559   6.671   0.256   9.910 -0.7416 -0.1806 -0.0803
58317SOL     OW92560   0.616   7.395   8.887 -0.0919  0.3986  0.2028
58317SOL    HW192561   0.687   7.354   8.936  0.2672 -1.3109 -1.6065
58317SOL    HW292562   0.659   7.461   8.832 -0.0127  0.0044 -0.2165
58318SOL     OW92563   0.906  12.970  13.256 -0.4205 -0.3858 -0.1338
58318SOL    HW192564   0.908  12.984  13.351  0.3836 -1.2376 -0.0213
58318SOL    HW292565   0.969  12.901  13.240  0.3058  0.5365 -1.4422
58319SOL     OW92566   4.411   7.244   2.927  0.2419 -0.3540 -0.5676
58319SOL    HW192567   4.395   7.298   2.850 -1.7282 -2.7027 -1.9779
58319SOL    HW292568   4.327   7.244   2.974 -0.0602 -2.6284 -0.9902
58320SOL     OW92569   9.284   3.449   2.934  0.1210  0.2621  0.0253
58320SOL    HW192570   9.208   3.470   2.881 -0.4655  0.6843  1.0118
58320SOL    HW292571   9.358   3.454   2.873 -0.6083 -0.0092 -0.9059
58321SOL     OW92572   7.408   3.984   2.580  0.3973 -0.3770  0.1796
58321SOL    HW192573   7.412   4.076   2.555 -2.2476 -0.5907 -1.4148
58321SOL    HW292574   7.438   3.937   2.503  0.6254 -0.8811  0.5720
58322SOL     OW92575   1.841  13.098   8.607  0.2541  0.1145 -0.3136
58322SOL    HW192576   1.852  13.075   8.514 -0.2704  1.8904 -0.8589
58322SOL    HW292577   1.834  13.014   8.652 -2.9080 -0.8466 -2.3187
58323SOL     OW92578  13.257   6.195   7.454 -0.2455 -0.2954 -0.2966
58323SOL    HW192579  13.217   6.200   7.540  1.9468  1.3389  0.7204
58323SOL    HW292580  13.236   6.106   7.423 -2.0256 -0.5375  1.3758
58324SOL     OW92581   3.011   0.879   6.533 -0.1102 -0.3051 -0.1184
58324SOL    HW192582   2.938   0.896   6.593  0.6114  1.1368  0.3975
58324SOL    HW292583   2.970   0.849   6.452 -1.3286  1.1434 -0.0656
58325SOL     OW92584   7.904   5.636   0.135 -0.4640  0.2132  0.7729
58325SOL    HW192585   7.977   5.581   0.105 -0.9116  0.7130 -1.3933
58325SOL    HW292586   7.938   5.680   0.212  1.9908  1.2664 -0.7748
58326SOL     OW92587   6.024   0.030   6.645  0.7523  0.3200  0.3892
58326SOL    HW192588   6.111   0.068   6.659  1.4292 -1.7623  2.3490
58326SOL    HW292589   5.985   0.026   6.732  0.0039 -1.6878  0.0183
58327SOL     OW92590   3.132   5.851   3.111 -0.0853 -0.0048 -0.1985
58327SOL    HW192591   3.096   5.771   3.151 -0.8663  0.7620  0.6753
58327SOL    HW292592   3.205   5.820   3.057 -0.4363 -1.3199  0.0467
58328SOL     OW92593   5.279   5.037  11.301  0.1451  0.2922  0.1991
58328SOL    HW192594   5.256   4.956  11.348 -1.1144 -0.4811 -1.6325
58328SOL    HW292595   5.340   5.008  11.233 -0.2103  0.9037 -0.3817
58329SOL     OW92596   3.964   4.836   9.503  0.5061 -0.0593  0.0293
58329SOL    HW192597   4.020   4.781   9.448  2.6829  1.4062  0.6412
58329SOL    HW292598   4.023   4.871   9.569 -1.4438  0.5791  1.5280
58330SOL     OW92599   0.728   9.311  10.418 -0.1117 -0.2419 -0.7785
58330SOL    HW192600   0.805   9.256  10.430 -0.6480 -0.5758  1.5567
58330SOL    HW292601   0.654   9.252  10.434 -0.8287  0.3591 -1.7639
58331SOL     OW92602  13.458   7.533   4.141  0.4408  0.0378 -0.1438
58331SOL    HW192603  13.443   7.492   4.055 -0.6617  1.6318 -0.7555
58331SOL    HW292604  13.371   7.539   4.180  0.8632 -0.0983  0.8482
58332SOL     OW92605   8.314  13.194  12.665 -0.0806  0.0575 -0.0098
58332SOL    HW192606   8.378  13.140  12.619  0.4134 -0.7179  1.4897
58332SOL    HW292607   8.277  13.135  12.731 -0.2734  1.2816  1.0118
58333SOL     OW92608   2.179   1.512   9.360  0.5468  0.2289 -0.2024
58333SOL    HW192609   2.179   1.570   9.284 -0.5917 -0.9787 -1.1522
58333SOL    HW292610   2.270   1.485   9.370  0.5027 -0.6982 -2.0132
58334SOL     OW92611   3.314  12.776  10.280  0.1406  0.1401  0.1912
58334SOL    HW192612   3.365  12.843  10.326 -0.2472 -0.0341  0.8834
58334SOL    HW292613   3.251  12.745  10.344 -0.2046 -0.3376 -0.3660
58335SOL     OW92614  12.059   2.605  13.882  0.1853  0.1451  0.3526
58335SOL    HW192615  12.110   2.684  13.904 -1.9353  1.7424 -0.1092
58335SOL    HW292616  11.990   2.603  13.948 -0.6366 -0.4888 -0.5083
58336SOL     OW92617  10.309   7.866   2.129 -0.6322 -0.3296 -0.8096
58336SOL    HW192618  10.262   7.865   2.046  0.5794  0.7491 -1.5348
58336SOL    HW292619  10.347   7.779   2.137 -1.4333 -0.6997 -0.9727
58337SOL     OW92620   8.568   0.633   0.901 -0.2010  0.2134  0.0375
58337SOL    HW192621   8.639   0.569   0.904  0.0715  0.4753 -0.5724
58337SOL    HW292622   8.536   0.638   0.991 -1.4632 -2.1464 -0.1885
58338SOL     OW92623   8.880   8.663   3.463 -0.0187  0.4759  0.2983
58338SOL    HW192624   8.834   8.725   3.519 -1.1475  1.3226 -1.4942
58338SOL    HW292625   8.815   8.597   3.440  0.4417  0.1226 -0.0299
58339SOL     OW92626   7.073  11.358   6.992  0.5486 -0.4163 -0.3877
58339SOL    HW192627   6.988  11.385   6.958  0.8918  0.1962 -0.7870
58339SOL    HW292628   7.097  11.427   7.054  1.2322 -0.0010 -1.0846
58340SOL     OW92629  10.311   5.637   0.193 -0.1161 -0.4764  0.1028
58340SOL    HW192630  10.316   5.542   0.192 -0.4501 -0.5126 -1.8992
58340SOL    HW292631  10.230   5.658   0.145  0.2608  0.8196 -0.0171
58341SOL     OW92632   3.868   7.952  13.419  0.3246 -0.2026 -0.5222
58341SOL    HW192633   3.778   7.979  13.401  0.7666  0.5564 -1.6795
58341SOL    HW292634   3.915   8.034  13.431  0.6341 -0.6068  1.4400
58342SOL     OW92635   6.856  11.667   6.514  0.4330  0.0729  0.3233
58342SOL    HW192636   6.936  11.672   6.567  0.8616 -0.1609 -0.2936
58342SOL    HW292637   6.807  11.594   6.552  0.2822  0.5308  1.0156
58343SOL     OW92638   5.334  10.563   9.972 -0.0612  0.0482  0.2202
58343SOL    HW192639   5.265  10.589   9.911  0.6402  4.0439  0.7999
58343SOL    HW292640   5.413  10.556   9.918 -0.1177 -0.1187  0.1590
58344SOL     OW92641   8.169   9.957   8.635  0.0211 -0.0362 -0.2403
58344SOL    HW192642   8.222   9.877   8.631 -0.7964 -0.5928 -0.1260
58344SOL    HW292643   8.161   9.986   8.544  0.4396  0.0013 -0.2661
58345SOL     OW92644  13.834   8.195   9.661 -0.4443 -0.2436  0.2055
58345SOL    HW192645  13.742   8.194   9.685 -0.5994  2.1683 -0.0048
58345SOL    HW292646  13.867   8.277   9.698  1.1017 -0.0333 -1.5041
58346SOL     OW92647  10.772   5.837   6.722 -0.3034 -0.2200  0.0934
58346SOL    HW192648  10.864   5.819   6.738 -0.0342  0.8993 -0.1016
58346SOL    HW292649  10.772   5.913   6.664 -1.3210 -1.2146 -1.3161
58347SOL     OW92650   9.214   6.101   0.749 -0.2799 -0.2688  0.1862
58347SOL    HW192651   9.268   6.101   0.670 -1.7447  0.8431 -0.8665
58347SOL    HW292652   9.140   6.045   0.728  0.1818 -1.4059  1.4477
58348SOL     OW92653   2.197  14.017  11.587  0.3238 -0.1349  0.1845
58348SOL    HW192654   2.265  14.039  11.523  0.9535 -2.3141  0.0091
58348SOL    HW292655   2.236  14.036  11.672 -0.0969  1.7107 -0.0053
58349SOL     OW92656   1.240  13.678   8.094  0.4582 -0.5405 -0.6099
58349SOL    HW192657   1.294  13.730   8.154 -0.8351  0.2884 -0.1005
58349SOL    HW292658   1.235  13.731   8.014  0.1762 -0.4769 -0.5520
58350SOL     OW92659  11.314   6.118  13.102 -0.4893  0.1061  0.3744
58350SOL    HW192660  11.402   6.102  13.068  0.3139  0.5405  2.1395
58350SOL    HW292661  11.261   6.133  13.023  1.1031  0.3148 -0.7200
58351SOL     OW92662   4.449   4.123  10.948  0.0975 -0.4003  0.1370
58351SOL    HW192663   4.411   4.048  10.902 -0.1074 -0.9585  1.1577
58351SOL    HW292664   4.415   4.199  10.903 -3.1164 -0.8408  1.5514
58352SOL     OW92665  11.603   7.144   0.503  0.4242 -0.1102  0.0240
58352SOL    HW192666  11.582   7.063   0.457 -1.4876  0.7385 -0.7207
58352SOL    HW292667  11.569   7.130   0.592 -0.9203  0.2309 -0.4081
58353SOL     OW92668   8.974  12.197   6.999 -0.2868  0.2542 -0.0457
58353SOL    HW192669   8.907  12.213   7.065 -1.3992 -2.6343 -0.3290
58353SOL    HW292670   8.926  12.185   6.917  0.7968  0.5720 -0.7551
58354SOL     OW92671   2.531   6.961  12.124 -0.1337  0.2118 -0.2059
58354SOL    HW192672   2.511   7.034  12.183  0.1641 -0.4249  0.7028
58354SOL    HW292673   2.619   6.979  12.091 -0.2486  0.4996 -0.3580
58355SOL     OW92674   6.995   2.175   6.634  0.0530 -0.1846 -0.0940
58355SOL    HW192675   7.082   2.169   6.595  0.1316 -2.7205  0.3138
58355SOL    HW292676   7.004   2.242   6.702  1.1036  1.0546 -1.4067
58356SOL     OW92677  13.126  10.563   6.554  0.1837 -0.0688  0.0582
58356SOL    HW192678  13.200  10.532   6.502 -1.0969 -1.6452 -0.9196
58356SOL    HW292679  13.055  10.573   6.491 -0.2418  2.3376  0.8091
58357SOL     OW92680   0.140  10.614  12.237  0.1880  0.1499 -0.0214
58357SOL    HW192681   0.076  10.548  12.263 -0.2051  1.2826  2.1157
58357SOL    HW292682   0.114  10.693  12.285  0.9518  1.7495 -2.0660
58358SOL     OW92683   7.250   9.207   0.652  0.6095 -0.1249 -0.1857
58358SOL    HW192684   7.239   9.124   0.605 -0.5023 -0.1596  0.1050
58358SOL    HW292685   7.216   9.273   0.591 -0.3993 -0.1188  0.3677
58359SOL     OW92686   9.181  11.720   0.656  0.2110  0.1665  0.8814
58359SOL    HW192687   9.181  11.624   0.655  0.9668  0.1631  0.8467
58359SOL    HW292688   9.259  11.744   0.706 -0.1359  0.7686  1.1529
58360SOL     OW92689   1.064   8.205   5.294  0.1673 -0.1793 -0.1947
58360SOL    HW192690   0.974   8.177   5.313 -0.1500  0.3703 -0.8470
58360SOL    HW292691   1.065   8.220   5.200  0.2665  2.0769  0.0955
58361SOL     OW92692   1.790   8.217   8.822 -0.1158 -0.1813  0.1776
58361SOL    HW192693   1.700   8.205   8.853  0.3448 -2.2904  0.8457
58361SOL    HW292694   1.787   8.299   8.773 -2.3075  0.0174  0.5242
58362SOL     OW92695   7.969  12.899  12.209 -0.3722 -0.1971  0.3360
58362SOL    HW192696   8.049  12.847  12.215 -0.2778  0.0256  1.2661
58362SOL    HW292697   7.934  12.881  12.122  0.7157 -0.2614 -0.0982
58363SOL     OW92698   0.869   2.368  12.827  0.4845 -0.1603  0.2202
58363SOL    HW192699   0.938   2.357  12.892  1.6524  1.5657 -0.6656
58363SOL    HW292700   0.837   2.457  12.840 -0.1227 -0.2199 -0.7694
58364SOL     OW92701   7.264   0.455   7.415 -0.4243  0.0175 -0.4426
58364SOL    HW192702   7.303   0.370   7.395 -0.4971 -0.3491  0.8655
58364SOL    HW292703   7.185   0.434   7.465 -2.2272  0.7573 -2.8030
58365SOL     OW92704   4.335   4.819  13.321 -0.0625  0.9115  0.2232
58365SOL    HW192705   4.269   4.803  13.253  2.3284 -2.6398 -1.5900
58365SOL    HW292706   4.324   4.747  13.383  2.0070  0.1594 -0.1792
58366SOL     OW92707  13.975   5.322  10.948  0.1984 -0.1170  0.3842
58366SOL    HW192708  13.924   5.249  10.912 -0.0639  0.4176 -0.3448
58366SOL    HW292709  14.018   5.285  11.025  0.0461 -1.0353  0.0400
58367SOL     OW92710   6.200   1.824  12.780  0.4525  0.5337  0.1037
58367SOL    HW192711   6.154   1.747  12.812 -0.5929  1.3001  0.4689
58367SOL    HW292712   6.270   1.838  12.844 -0.3032  0.7909  0.8887
58368SOL     OW92713   9.679   0.301   2.812  0.4379 -0.0954  0.5091
58368SOL    HW192714   9.626   0.360   2.866 -0.6696  1.0658 -1.7053
58368SOL    HW292715   9.615   0.249   2.763  1.2860  0.5111 -1.3550
58369SOL     OW92716   1.609   8.642  13.535  0.2773  0.2178  0.0930
58369SOL    HW192717   1.542   8.600  13.481  0.4078  0.6670 -0.4201
58369SOL    HW292718   1.605   8.595  13.619 -0.9749  0.5168  0.2194
58370SOL     OW92719   9.402   0.242   4.461 -0.2394  0.6974  0.3559
58370SOL    HW192720   9.361   0.324   4.434 -0.2591  0.8146  0.7387
58370SOL    HW292721   9.423   0.255   4.554  0.7980  0.6952  0.1361
58371SOL     OW92722   5.578   3.844   0.140  0.0826 -0.1789  0.4420
58371SOL    HW192723   5.540   3.825   0.226  1.0081  0.1804  0.9545
58371SOL    HW292724   5.544   3.930   0.117  1.7095  0.8415  1.6101
58372SOL     OW92725   3.441   6.387   5.813 -0.4048 -0.5484  0.0983
58372SOL    HW192726   3.466   6.356   5.899 -1.3947 -1.2944  0.1274
58372SOL    HW292727   3.356   6.349   5.797 -0.5218  0.1018 -0.9496
58373SOL     OW92728   5.695   4.993   8.635  0.3507  0.9130  0.7280
58373SOL    HW192729   5.728   4.913   8.595  1.9812  1.4681  0.8751
58373SOL    HW292730   5.637   5.031   8.569 -1.3850 -0.9406  1.1120
58374SOL     OW92731  13.958  12.761  11.287  0.2216 -0.2523 -0.3195
58374SOL    HW192732  13.881  12.816  11.303 -0.2595 -0.4904 -1.7366
58374SOL    HW292733  14.025  12.796  11.347 -0.8848  0.1349  0.7211
58375SOL     OW92734   5.158  10.812   5.074 -0.1848 -0.3349 -0.1228
58375SOL    HW192735   5.184  10.728   5.113  0.0694 -1.0684 -1.7750
58375SOL    HW292736   5.108  10.788   4.996  1.4088  0.9874 -1.6555
58376SOL     OW92737   6.090   7.382   4.712 -0.2339 -0.2610  0.1046
58376SOL    HW192738   6.060   7.385   4.803 -0.4994  0.5233 -0.0057
58376SOL    HW292739   6.011   7.364   4.661 -0.6555  2.2811 -0.2300
58377SOL     OW92740   4.540   6.859   2.096  0.3737  0.1864  0.3066
58377SOL    HW192741   4.479   6.904   2.154  0.0926  0.9167 -0.5419
58377SOL    HW292742   4.561   6.923   2.028  2.1744  0.0042  0.6271
58378SOL     OW92743   1.336   9.766   2.861  0.3108 -0.2948  0.4912
58378SOL    HW192744   1.385   9.719   2.793 -0.6939  1.9913 -1.9654
58378SOL    HW292745   1.260   9.711   2.878  0.6339 -0.9506 -0.1427
58379SOL     OW92746   6.219   8.537  12.932 -0.1697  0.4491  0.4247
58379SOL    HW192747   6.153   8.480  12.895 -0.2569  0.3473  0.7327
58379SOL    HW292748   6.169   8.605  12.978 -0.0776  1.0843 -0.3886
58380SOL     OW92749  10.188   4.153   2.588 -0.0116 -0.4955 -0.1481
58380SOL    HW192750  10.149   4.098   2.656 -1.9863  0.0686 -0.7580
58380SOL    HW292751  10.217   4.231   2.634 -1.2240 -0.1706  0.0946
58381SOL     OW92752  10.385   7.178   9.572  0.8651  0.2707 -0.3534
58381SOL    HW192753  10.379   7.082   9.569 -1.6641  0.2621  1.6091
58381SOL    HW292754  10.320   7.208   9.509  0.9758  0.7014 -0.2676
58382SOL     OW92755   4.459   4.561   5.125 -0.3765  0.4533 -0.1941
58382SOL    HW192756   4.387   4.502   5.101  1.7107 -2.4029 -0.0236
58382SOL    HW292757   4.533   4.502   5.142  1.3180  3.0112  2.2466
58383SOL     OW92758  11.390   6.966   0.703 -0.3373  0.4475  0.5319
58383SOL    HW192759  11.469   6.921   0.733 -0.9687 -1.2077 -0.1523
58383SOL    HW292760  11.383   6.943   0.610 -0.4165  2.4389  0.0011
58384SOL     OW92761  10.384  11.832   7.685 -0.2023 -0.1451 -0.5108
58384SOL    HW192762  10.349  11.882   7.758 -0.4731  0.8606 -1.2930
58384SOL    HW292763  10.459  11.883   7.654 -0.6120 -0.0834 -1.4630
58385SOL     OW92764  11.176   7.059   0.876  0.5676 -0.0281 -0.1174
58385SOL    HW192765  11.234   7.033   0.804  0.6280  1.6258 -0.7056
58385SOL    HW292766  11.235   7.071   0.950  0.8360  0.5338 -0.4138
58386SOL     OW92767   1.884  12.045   0.726  0.5102  0.1446 -0.1560
58386SOL    HW192768   1.939  11.967   0.718  0.8034  0.2434  0.7340
58386SOL    HW292769   1.862  12.069   0.636 -0.5074 -1.6181 -0.4042
58387SOL     OW92770  13.209   1.057   6.188 -0.7279  0.0010  0.0503
58387SOL    HW192771  13.216   0.963   6.174  0.9245  0.3329 -1.8706
58387SOL    HW292772  13.139   1.067   6.253 -1.0306 -2.5119  0.2021
58388SOL     OW92773   6.837  11.509   6.891 -0.3381  0.3174 -0.1679
58388SOL    HW192774   6.772  11.529   6.958 -0.9854 -2.4648  0.1952
58388SOL    HW292775   6.889  11.588   6.882 -2.3524  1.8813  1.1766
58389SOL     OW92776   6.595  12.714  12.133  0.0877 -0.1028 -0.0914
58389SOL    HW192777   6.522  12.765  12.098 -0.6765 -0.8201  0.4164
58389SOL    HW292778   6.584  12.627  12.095  1.2074 -0.0018 -0.7094
58390SOL     OW92779   7.658  11.623   6.705  0.6626  0.2320 -0.1461
58390SOL    HW192780   7.683  11.620   6.798 -0.4181  0.2113  0.1687
58390SOL    HW292781   7.665  11.532   6.676 -1.1311 -0.1859  0.5579
58391SOL     OW92782   2.897   4.767   1.040 -0.3067 -0.2012 -0.0749
58391SOL    HW192783   2.939   4.712   0.974 -0.4704  0.0372 -0.3816
58391SOL    HW292784   2.806   4.737   1.041 -0.0539 -0.9686  0.8536
58392SOL     OW92785   1.987   9.422   4.288 -0.2148 -0.0660 -0.6621
58392SOL    HW192786   1.902   9.408   4.329 -0.6444 -0.2563 -1.5926
58392SOL    HW292787   1.997   9.348   4.227  0.8539 -0.3357 -0.1836
58393SOL     OW92788   5.352   5.160   5.330  0.4672 -0.6434  0.4506
58393SOL    HW192789   5.310   5.111   5.401  1.9300 -0.2323  1.6620
58393SOL    HW292790   5.340   5.252   5.354 -1.4502 -0.3621 -1.3292
58394SOL     OW92791  10.639   0.687   8.508 -0.3123 -0.1511 -0.2696
58394SOL    HW192792  10.577   0.615   8.518 -0.5368 -0.4565 -3.1943
58394SOL    HW292793  10.604   0.740   8.437  1.5926  0.9853 -0.4325
58395SOL     OW92794   4.558   3.529   8.536 -0.1849 -0.0631 -0.6812
58395SOL    HW192795   4.467   3.550   8.517 -1.0440 -1.2153  1.7454
58395SOL    HW292796   4.604   3.613   8.534 -1.1704  0.4710 -2.3825
58396SOL     OW92797  11.317   2.604   9.924  0.0116 -0.0816 -0.2601
58396SOL    HW192798  11.372   2.604   9.846  1.0681 -0.6170  0.4629
58396SOL    HW292799  11.257   2.530   9.913  0.5121 -0.4757 -0.3232
58397SOL     OW92800   2.763   6.154   2.855  0.2327  0.3784 -0.0324
58397SOL    HW192801   2.790   6.097   2.784  1.3955  0.3320  0.4224
58397SOL    HW292802   2.838   6.212   2.869 -0.3238  0.9718  0.5593
58398SOL     OW92803  13.766   8.081  14.083  0.0402 -0.5017  0.1656
58398SOL    HW192804  13.814   8.006  14.049  1.5677  0.4200  0.1526
58398SOL    HW292805  13.743   8.056  14.173  2.3814 -0.2687  0.9144
58399SOL     OW92806   3.765   7.097  12.189 -0.0330 -0.3890  0.5833
58399SOL    HW192807   3.756   7.159  12.262 -0.8695 -0.3282  0.4347
58399SOL    HW292808   3.780   7.013  12.232  1.3921 -0.0555  0.7808
58400SOL     OW92809  12.208  11.146   8.258 -0.4810 -0.2056 -0.5224
58400SOL    HW192810  12.145  11.075   8.266 -2.1240  1.0943 -1.2054
58400SOL    HW292811  12.184  11.189   8.176 -1.0231  2.4590  0.9189
58401SOL     OW92812   9.400   6.672   0.014 -0.3177  0.1509 -0.3534
58401SOL    HW192813   9.399   6.722   0.096  1.6232 -1.7466  0.9429
58401SOL    HW292814   9.311   6.636   0.007 -0.5673  0.4773  0.8345
58402SOL     OW92815   8.728  14.027   7.440 -0.7514 -0.0777  0.2262
58402SOL    HW192816   8.736  14.122   7.432  0.5625 -0.1165  0.7635
58402SOL    HW292817   8.636  14.012   7.458 -1.0874  1.0525 -0.4297
58403SOL     OW92818   3.000  12.784  10.170 -0.3250  0.3420  0.3572
58403SOL    HW192819   3.042  12.773  10.255  0.1310 -0.9087 -0.0140
58403SOL    HW292820   2.922  12.730  10.174 -0.2339  0.1720 -0.0543
58404SOL     OW92821   1.564   1.317   3.321  0.0434 -0.6458 -0.0724
58404SOL    HW192822   1.611   1.235   3.338 -0.9197 -1.4567 -1.2256
58404SOL    HW292823   1.529   1.308   3.233  0.5244  1.3240 -0.5316
58405SOL     OW92824   4.725   0.268   3.892 -0.4787  0.1810 -0.0453
58405SOL    HW192825   4.813   0.305   3.886 -0.3426 -0.1343 -0.0152
58405SOL    HW292826   4.666   0.342   3.877 -0.2032  0.3029 -0.5503
58406SOL     OW92827   0.768  10.736   6.257  0.2015  0.1708 -0.2144
58406SOL    HW192828   0.794  10.725   6.166  1.2568 -2.1379  0.2938
58406SOL    HW292829   0.850  10.729   6.307 -0.6063 -0.9262  1.0330
58407SOL     OW92830  14.070   8.840   4.761  0.0030  0.2214 -0.6273
58407SOL    HW192831  14.030   8.773   4.705 -0.3987 -0.0707  0.0045
58407SOL    HW292832  14.020   8.919   4.741 -0.4128  0.0238 -0.3821
58408SOL     OW92833   4.913  13.680   2.909 -0.1927  0.5002 -0.3097
58408SOL    HW192834   4.918  13.589   2.880  0.7486  0.4631 -0.0613
58408SOL    HW292835   4.821  13.704   2.898 -0.2519 -0.1640 -1.3185
58409SOL     OW92836  12.364   2.047   9.071  0.5548  0.2393  0.2814
58409SOL    HW192837  12.402   2.135   9.072  1.3042 -0.0528 -0.6683
58409SOL    HW292838  12.270   2.062   9.059  0.6510  0.9186  0.3284
58410SOL     OW92839  13.880  11.506   6.095  0.1816 -0.0255 -0.4168
58410SOL    HW192840  13.808  11.514   6.158  0.1654  0.7065 -0.5260
58410SOL    HW292841  13.957  11.535   6.144  0.5530 -1.5622 -0.0511
58411SOL     OW92842   3.749   8.000   3.262 -0.1342  0.4227  0.1711
58411SOL    HW192843   3.802   7.932   3.303  0.3774 -0.2095 -1.4782
58411SOL    HW292844   3.689   8.029   3.331  0.6695 -0.6167  1.3328
58412SOL     OW92845  12.480  11.171   6.589  0.0992  0.4340  0.2671
58412SOL    HW192846  12.495  11.238   6.655  0.7711 -1.3139  1.9988
58412SOL    HW292847  12.549  11.186   6.524  0.2006  1.4342  0.5875
58413SOL     OW92848   9.366  10.481   6.563 -0.4594 -0.2070  0.1409
58413SOL    HW192849   9.300  10.478   6.631  0.4711 -3.7491  1.1111
58413SOL    HW292850   9.422  10.404   6.580  2.2641  1.0455 -2.2141
58414SOL     OW92851   9.722   5.885   0.368  0.5652  0.1509 -0.5009
58414SOL    HW192852   9.634   5.874   0.332  0.9865 -1.3190 -1.1649
58414SOL    HW292853   9.767   5.803   0.346  1.5448  0.1258  1.4131
58415SOL     OW92854  11.244  10.926   1.905  0.1138 -0.1691 -0.2343
58415SOL    HW192855  11.149  10.935   1.896 -0.1107  0.3144  2.0202
58415SOL    HW292856  11.256  10.839   1.944  0.7680 -0.9415 -2.0277
58416SOL     OW92857   7.497   9.206  10.409 -0.7153  0.1670 -0.2190
58416SOL    HW192858   7.469   9.129  10.461  2.2338 -0.2936  0.8731
58416SOL    HW292859   7.546   9.169  10.336 -1.2798  0.9999 -1.0493
58417SOL     OW92860   3.960   3.959   7.027  0.3331 -0.2079 -0.2534
58417SOL    HW192861   3.868   3.958   6.999  0.5145  2.8184 -1.3139
58417SOL    HW292862   3.998   4.033   6.980  2.8298 -0.1162  1.7244
58418SOL     OW92863   6.129  13.862   6.051 -0.3748  0.4861  0.1664
58418SOL    HW192864   6.097  13.952   6.052  2.2635  1.5421 -0.5569
58418SOL    HW292865   6.139  13.841   5.958 -0.2005 -0.2621  0.3458
58419SOL     OW92866   6.402   3.372   5.598  0.7909  0.1583 -0.1909
58419SOL    HW192867   6.389   3.451   5.650  0.5880  1.1750 -1.7370
58419SOL    HW292868   6.314   3.347   5.569  0.9664 -0.0750 -0.5302
58420SOL     OW92869   8.656   4.098   6.196  0.0726  0.8589  0.0616
58420SOL    HW192870   8.699   4.013   6.206 -0.6218  0.5872  0.8777
58420SOL    HW292871   8.723   4.155   6.159  0.1564 -0.3810 -1.7950
58421SOL     OW92872  13.980   8.661  10.262 -0.2617  0.2995 -0.5688
58421SOL    HW192873  14.019   8.594  10.317  0.0541  1.6646  0.9378
58421SOL    HW292874  14.054   8.704  10.220 -0.4429 -0.0414 -1.2577
58422SOL     OW92875  12.597   7.978  13.755  0.0894 -0.3006 -0.5540
58422SOL    HW192876  12.631   8.043  13.818 -1.8980 -0.5386  0.8506
58422SOL    HW292877  12.502   7.984  13.764 -0.1926 -1.7127 -2.2011
58423SOL     OW92878   5.692   1.803   5.402 -0.5258  0.1025  0.4847
58423SOL    HW192879   5.750   1.789   5.477  0.6545 -0.7291 -0.5395
58423SOL    HW292880   5.701   1.724   5.349 -1.5941  0.5271 -0.3642
58424SOL     OW92881  10.612   2.415   2.107 -0.2828 -1.0131 -0.2475
58424SOL    HW192882  10.653   2.376   2.184 -0.6195 -0.1079  0.4037
58424SOL    HW292883  10.518   2.407   2.123 -0.3801  0.9962  0.4205
58425SOL     OW92884  11.309  13.311   1.619  0.0742 -0.4225 -0.5783
58425SOL    HW192885  11.259  13.236   1.651  1.1423 -0.3726  1.3178
58425SOL    HW292886  11.400  13.287   1.633  0.6163 -0.0601 -2.9759
58426SOL     OW92887  13.474   1.579   9.156  0.3255  0.3336  0.2059
58426SOL    HW192888  13.510   1.520   9.223 -2.2511  0.0681  1.4668
58426SOL    HW292889  13.472   1.527   9.076  0.9190 -0.2435  0.5558
58427SOL     OW92890   9.823   4.798   2.416 -0.0917 -0.2103  0.0488
58427SOL    HW192891   9.902   4.852   2.421  0.1203 -0.2958 -1.6584
58427SOL    HW292892   9.788   4.798   2.505  1.7266 -0.0250  0.8093
58428SOL     OW92893   5.522   0.548   0.886  0.4032 -0.0947  0.0221
58428SOL    HW192894   5.598   0.533   0.831  1.0233  0.3903  0.7261
58428SOL    HW292895   5.557   0.554   0.975 -0.2398  1.7142  0.1960
58429SOL     OW92896  12.756   6.775   9.268  0.7679  0.3656  0.0540
58429SOL    HW192897  12.746   6.826   9.187 -2.0519 -0.0408  0.0362
58429SOL    HW292898  12.726   6.688   9.244  0.1680  0.1692  1.4657
58430SOL     OW92899   4.280   1.221  12.468  0.3154  0.3871 -0.6055
58430SOL    HW192900   4.204   1.196  12.416  0.5444 -1.5085 -0.1135
58430SOL    HW292901   4.247   1.288  12.529 -1.1719 -0.8871  0.0711
58431SOL     OW92902  13.828  11.136  12.847 -0.2089  0.0750  0.0510
58431SOL    HW192903  13.822  11.107  12.756 -0.0273 -0.2608  0.1454
58431SOL    HW292904  13.891  11.077  12.887  0.8551  1.1449  0.0209
58432SOL     OW92905   3.521   1.808  12.096  0.0150  0.1478  0.0668
58432SOL    HW192906   3.599   1.863  12.100  1.0233 -0.9633 -2.5002
58432SOL    HW292907   3.448   1.869  12.090  0.9238  1.2101 -0.3824
58433SOL     OW92908   5.508   4.615   2.474  0.3572 -0.4938  0.0262
58433SOL    HW192909   5.417   4.636   2.495  0.4256 -1.1305  1.0242
58433SOL    HW292910   5.519   4.525   2.504  1.3544 -0.3763  0.0265
58434SOL     OW92911   9.220  13.213   1.775  0.4185  0.6384 -0.3519
58434SOL    HW192912   9.211  13.282   1.709  0.2343  2.0041  1.0646
58434SOL    HW292913   9.133  13.205   1.814  1.0509  1.4516  1.2741
58435SOL     OW92914   9.188   5.474   4.649 -0.1459  0.1029  0.5215
58435SOL    HW192915   9.118   5.411   4.633  0.7418 -1.0118  0.9124
58435SOL    HW292916   9.160   5.522   4.726 -2.3572  2.4821 -1.5698
58436SOL     OW92917   4.474   3.155   2.736  0.3155 -0.0167 -1.0405
58436SOL    HW192918   4.569   3.164   2.741  0.1312  1.8767  0.4185
58436SOL    HW292919   4.441   3.244   2.751 -1.6979 -0.6855 -1.2034
58437SOL     OW92920   2.978   6.789   1.887 -0.1308  0.1536  0.3143
58437SOL    HW192921   3.024   6.708   1.864 -2.0567 -0.8568 -0.2171
58437SOL    HW292922   3.043   6.858   1.872  1.1159 -1.1556 -0.6914
58438SOL     OW92923   1.029   7.013   5.011  0.0587  0.7228  0.4498
58438SOL    HW192924   0.962   7.011   5.079  0.5184  1.9510  0.9612
58438SOL    HW292925   1.005   7.088   4.955  0.3182  0.4183 -0.0812
58439SOL     OW92926  12.659  10.951  14.074  1.1704 -0.0300  0.3591
58439SOL    HW192927  12.584  10.896  14.050  0.9830 -0.3713  1.6410
58439SOL    HW292928  12.729  10.923  14.015  0.1664  0.6820 -1.2467
58440SOL     OW92929   0.601   5.288   5.318 -0.1808  0.2652  0.3730
58440SOL    HW192930   0.541   5.261   5.248 -0.0627 -0.0512  0.3905
58440SOL    HW292931   0.584   5.225   5.389  0.6971 -0.2991  0.1029
58441SOL     OW92932   2.122   9.304  13.280  0.0218 -0.4263 -0.2511
58441SOL    HW192933   2.186   9.354  13.229 -0.1748  1.8978  1.5899
58441SOL    HW292934   2.053   9.283  13.218  0.5850  0.8156 -1.3502
58442SOL     OW92935   1.111   6.512  11.470  0.0591 -0.6604 -0.6266
58442SOL    HW192936   1.109   6.597  11.425  1.4075 -0.3683 -0.1776
58442SOL    HW292937   1.056   6.455  11.416 -0.2040  0.2808 -1.3799
58443SOL     OW92938  11.781   4.977   1.388 -0.3246 -0.3024 -0.6197
58443SOL    HW192939  11.775   4.937   1.475  1.3370 -1.4008 -0.9663
58443SOL    HW292940  11.736   4.916   1.330 -0.7240  0.0269 -0.6607
58444SOL     OW92941   9.590   3.507   5.384 -0.0121  0.0981 -0.1597
58444SOL    HW192942   9.544   3.526   5.466  1.0493 -1.2841  0.7945
58444SOL    HW292943   9.596   3.592   5.340 -3.4765  0.3671 -0.3854
58445SOL     OW92944   6.931  11.746  10.385 -0.1151 -0.8709  0.3189
58445SOL    HW192945   6.939  11.833  10.345 -0.0445 -1.4472 -0.9704
58445SOL    HW292946   6.840  11.721  10.371  0.0744 -1.3576 -0.0860
58446SOL     OW92947  10.554   3.127   4.226  0.4528  0.1044  0.0437
58446SOL    HW192948  10.524   3.168   4.307  0.6537  0.6448 -0.1485
58446SOL    HW292949  10.636   3.172   4.206 -0.1630  0.7803 -1.0647
58447SOL     OW92950   0.112   2.966   8.511  0.5707  0.3273  0.0920
58447SOL    HW192951   0.162   3.035   8.554  1.2954 -0.1848  0.1045
58447SOL    HW292952   0.126   2.981   8.417  1.5727 -0.3645  0.1009
58448SOL     OW92953   7.968   6.418   0.229  0.3737  0.7317  0.1736
58448SOL    HW192954   7.910   6.363   0.281  0.5004  1.8570  1.5649
58448SOL    HW292955   7.965   6.504   0.272  2.7783  0.9240  0.0962
58449SOL     OW92956   3.024   9.703   0.865 -0.0158 -0.0377 -0.1396
58449SOL    HW192957   3.098   9.646   0.886 -1.1528 -0.6150  2.5844
58449SOL    HW292958   2.960   9.645   0.823 -0.5842 -0.4857  1.3110
58450SOL     OW92959   2.590   1.335   7.686  0.3085 -0.2694  0.2490
58450SOL    HW192960   2.539   1.255   7.696 -2.0135  1.1226  0.1950
58450SOL    HW292961   2.598   1.370   7.775  1.4989 -0.6154  0.3014
58451SOL     OW92962   4.044  11.082   9.303  0.5376 -0.4018  0.0498
58451SOL    HW192963   3.973  11.109   9.244  1.5423 -2.4080 -2.2829
58451SOL    HW292964   4.119  11.072   9.245  2.0484 -0.8984  2.0070
58452SOL     OW92965  13.875   3.363  12.162 -0.2188  0.0046  0.0945
58452SOL    HW192966  13.911   3.362  12.250 -0.6377 -1.0215  0.2605
58452SOL    HW292967  13.924   3.432  12.117  0.5545 -0.0149  0.8888
58453SOL     OW92968   2.751  11.255   2.026 -0.0063 -0.4490 -0.0429
58453SOL    HW192969   2.710  11.328   1.979  2.2381  0.3054 -0.9778
58453SOL    HW292970   2.788  11.200   1.957 -0.0694 -1.5016  0.7349
58454SOL     OW92971   2.028  11.267   8.714 -0.1030 -0.1610 -0.2443
58454SOL    HW192972   2.044  11.180   8.750 -0.9948 -0.0603  0.4391
58454SOL    HW292973   2.074  11.268   8.630  0.8912 -0.8834  0.2684
58455SOL     OW92974   1.785  11.033   4.766  0.1233 -0.6809  0.4247
58455SOL    HW192975   1.809  11.035   4.673  0.2106  1.2011  0.4348
58455SOL    HW292976   1.690  11.019   4.766  0.1184 -0.6743  0.0504
58456SOL     OW92977  10.379   2.274   5.073 -0.8179  0.4596 -1.0090
58456SOL    HW192978  10.366   2.216   5.148  1.8489  0.0185 -0.7974
58456SOL    HW292979  10.331   2.232   5.002  0.0144 -1.3902 -0.5363
58457SOL     OW92980  14.020  13.432   7.088  0.2731 -0.5428 -0.2785
58457SOL    HW192981  14.062  13.493   7.027 -1.3691 -0.8263 -1.7592
58457SOL    HW292982  14.002  13.485   7.165 -1.4202  1.0008 -1.6565
58458SOL     OW92983   3.400   0.550   1.486  0.1769  0.0750 -0.1892
58458SOL    HW192984   3.331   0.510   1.432 -1.0606 -0.6023  1.8111
58458SOL    HW292985   3.466   0.481   1.495 -0.7390 -0.6864  1.0859
58459SOL     OW92986   5.070  12.602   4.881  0.1573  0.1112  0.4581
58459SOL    HW192987   5.076  12.643   4.967  0.7192  0.2990  0.3320
58459SOL    HW292988   5.040  12.512   4.899 -0.7384  0.4571  0.7607
58460SOL     OW92989  12.866  14.024  10.961 -0.0293  0.2708  0.0096
58460SOL    HW192990  12.855  13.980  11.045 -1.9207  0.0966 -0.2795
58460SOL    HW292991  12.960  14.041  10.954  0.8945 -3.9215  0.0124
58461SOL     OW92992   2.918   6.900   2.146 -0.5846 -0.2249 -0.4265
58461SOL    HW192993   2.911   6.837   2.217 -3.1438  0.6205  0.1744
58461SOL    HW292994   2.887   6.854   2.069 -2.1578  0.1589 -0.0488
58462SOL     OW92995   3.253  11.567   9.390  0.3091 -0.5418  0.3628
58462SOL    HW192996   3.304  11.648   9.380  0.5096 -0.9985 -4.4159
58462SOL    HW292997   3.309  11.499   9.353 -1.4256 -2.1347  0.5328
58463SOL     OW92998  10.516   1.798  10.964 -0.2844  0.4770  0.3277
58463SOL    HW192999  10.600   1.805  11.010 -0.3495  0.7014  0.4143
58463SOL    HW293000  10.509   1.879  10.914 -0.5455  0.5488  0.4798
58464SOL     OW93001   2.289  13.138  10.511  0.1061  0.1004  0.0178
58464SOL    HW193002   2.290  13.194  10.433 -0.8994  1.6270  1.0243
58464SOL    HW293003   2.206  13.159  10.554  0.4290 -1.0291  1.2705
58465SOL     OW93004   8.935  11.906   6.525  0.6973 -0.6067  0.1407
58465SOL    HW193005   9.009  11.848   6.543  1.5884  0.2829 -0.5459
58465SOL    HW293006   8.969  11.970   6.462 -0.4257  0.2933  0.4093
58466SOL     OW93007   2.562   0.636   5.674 -0.0524 -0.0123  0.5783
58466SOL    HW193008   2.600   0.553   5.644 -0.1401 -0.0523  0.5786
58466SOL    HW293009   2.472   0.634   5.643 -0.0097  0.1556  0.4380
58467SOL     OW93010   8.983   5.315  12.024  0.2564  0.2017  0.3701
58467SOL    HW193011   8.916   5.271  11.972 -1.1384  0.7688  1.5945
58467SOL    HW293012   8.981   5.269  12.109 -0.4447  1.8529  1.2924
58468SOL     OW93013   7.382   9.749  12.851  0.0104 -0.2637 -0.3430
58468SOL    HW193014   7.293   9.745  12.885 -0.2243 -1.6238 -1.0197
58468SOL    HW293015   7.379   9.815  12.782 -0.5535 -0.4744 -0.5289
58469SOL     OW93016   3.079   7.120   4.428  0.2353  0.2879 -0.1672
58469SOL    HW193017   2.998   7.170   4.413 -0.4817 -0.0192  2.2336
58469SOL    HW293018   3.135   7.179   4.477  0.6189 -0.2259  0.0253
58470SOL     OW93019  10.262   2.213  13.697  0.3483 -0.0479  0.3075
58470SOL    HW193020  10.315   2.163  13.759  1.8586  0.1689 -0.7564
58470SOL    HW293021  10.264   2.163  13.616  0.9693  1.1539 -0.4545
58471SOL     OW93022   6.238   7.092   8.959  0.9806 -0.1989 -0.4457
58471SOL    HW193023   6.312   7.036   8.983 -0.6252 -1.1063  2.9262
58471SOL    HW293024   6.264   7.179   8.990  1.1410 -0.2438 -0.4517
58472SOL     OW93025   9.786   2.287  11.874 -0.5170  0.1617  0.0950
58472SOL    HW193026   9.849   2.216  11.858  0.0454  0.2092  1.8972
58472SOL    HW293027   9.708   2.242  11.906 -1.3341  0.1378 -1.7775
58473SOL     OW93028   0.269   3.601   0.250 -0.7363  0.2825  0.2355
58473SOL    HW193029   0.239   3.691   0.236 -0.3735  0.2097 -1.2151
58473SOL    HW293030   0.354   3.610   0.294 -1.0142  0.6192  0.7082
58474SOL     OW93031   9.127  11.301   4.086  0.8441  0.1408 -0.1516
58474SOL    HW193032   9.155  11.325   3.998  1.1623  0.3995  0.0167
58474SOL    HW293033   9.128  11.206   4.088 -1.7581 -0.0094 -1.2783
58475SOL     OW93034   8.910   7.257   9.364  0.7826 -0.1139 -0.4343
58475SOL    HW193035   8.901   7.351   9.346  0.4774 -0.3201 -1.3592
58475SOL    HW293036   9.004   7.244   9.376  1.0055  0.0454 -1.8455
58476SOL     OW93037   8.385   2.843   9.389  0.0799  0.2480  0.7947
58476SOL    HW193038   8.330   2.832   9.312  0.5393  0.1084  0.4822
58476SOL    HW293039   8.375   2.934   9.414  0.1082  0.3510  0.4314
58477SOL     OW93040   2.066   9.348   8.149 -0.2066 -0.6165 -0.5291
58477SOL    HW193041   1.973   9.327   8.163 -0.3410 -0.1035 -0.6372
58477SOL    HW293042   2.101   9.270   8.106 -1.0012 -0.1470 -2.1329
58478SOL     OW93043   2.009  10.015   0.255  0.0294 -0.2892  0.0707
58478SOL    HW193044   2.011  10.024   0.351 -0.1213  1.5563 -0.0665
58478SOL    HW293045   2.028   9.922   0.240  0.3958 -0.5581  1.8727
58479SOL     OW93046   7.801   9.515   4.493  0.1788 -0.4834 -0.3021
58479SOL    HW193047   7.862   9.588   4.482  1.3060 -1.1869  0.9954
58479SOL    HW293048   7.785   9.512   4.588 -0.6427 -1.2957 -0.4557
58480SOL     OW93049  13.324   0.320   6.862 -1.2279  0.3823  0.4595
58480SOL    HW193050  13.391   0.368   6.911  0.2489 -1.3841  0.3045
58480SOL    HW293051  13.245   0.372   6.872  0.3507  3.1409 -0.1753
58481SOL     OW93052   7.602   8.486   4.292  0.6101 -0.2038  0.1785
58481SOL    HW193053   7.555   8.420   4.344  0.7387 -0.2249  0.2693
58481SOL    HW293054   7.675   8.512   4.348  0.8197 -0.3137 -0.0406
58482SOL     OW93055  12.585  10.595   6.050 -0.1823 -0.2253  0.0312
58482SOL    HW193056  12.494  10.563   6.052  0.1199 -1.1457 -0.5222
58482SOL    HW293057  12.578  10.685   6.018 -0.8795 -0.3703 -0.2374
58483SOL     OW93058  13.944   3.936   7.985  0.1349  0.0688 -0.3668
58483SOL    HW193059  13.973   4.003   7.923 -1.3745 -0.2103 -1.4296
58483SOL    HW293060  13.906   3.868   7.930 -0.0930 -0.7801  0.8133
58484SOL     OW93061   4.655   2.058   1.699 -0.1262  0.3523  0.1451
58484SOL    HW193062   4.749   2.049   1.684 -0.2606  0.6504 -1.0318
58484SOL    HW293063   4.615   1.997   1.637 -0.6930 -0.8277  1.6224
58485SOL     OW93064   4.537   2.428  11.500  0.0488  0.5314  0.4327
58485SOL    HW193065   4.553   2.404  11.591 -0.5969 -0.5113  0.2897
58485SOL    HW293066   4.443   2.415  11.488  0.0725  0.9839 -0.2923
58486SOL     OW93067   4.356   1.745  11.459  0.0487 -0.5693  0.5622
58486SOL    HW193068   4.423   1.727  11.525 -0.2979  3.5397  2.3068
58486SOL    HW293069   4.273   1.725  11.502 -0.1016  0.6146  0.8540
58487SOL     OW93070   8.664   2.463  13.588  0.0125 -0.1877  0.1874
58487SOL    HW193071   8.601   2.391  13.587  1.3285 -1.3960  0.5658
58487SOL    HW293072   8.625   2.530  13.533 -1.6725 -0.8264  0.5543
58488SOL     OW93073  11.892   2.509  10.536 -0.1574  0.0230  0.1165
58488SOL    HW193074  11.834   2.567  10.586 -0.0002 -0.1914  0.5577
58488SOL    HW293075  11.980   2.532  10.565 -0.0772 -0.2361  0.0838
58489SOL     OW93076  10.996   4.265  11.436 -0.4082 -0.1488 -0.0688
58489SOL    HW193077  11.014   4.176  11.467 -1.6772 -0.1680  0.6730
58489SOL    HW293078  10.901   4.275  11.444 -0.2097  1.5873  0.7540
58490SOL     OW93079   7.745   8.111  12.675 -0.0959 -0.5402 -0.4196
58490SOL    HW193080   7.767   8.083  12.763  0.9105 -0.0074 -0.4846
58490SOL    HW293081   7.667   8.061  12.652  0.3215 -1.5548  0.3154
58491SOL     OW93082   7.525   8.342   2.818  0.0016  0.0871 -0.4289
58491SOL    HW193083   7.437   8.340   2.780  0.0695  2.3766 -0.8554
58491SOL    HW293084   7.516   8.395   2.897  0.9697  0.2436 -0.4089
58492SOL     OW93085   9.135   0.538   5.003  0.0788  0.8750  0.0888
58492SOL    HW193086   9.142   0.623   5.047  1.0894  1.1781 -0.6194
58492SOL    HW293087   9.087   0.557   4.922 -1.0819  0.4613  0.6484
58493SOL     OW93088   6.077   9.286   6.780 -0.2449  0.3699 -0.0187
58493SOL    HW193089   5.992   9.280   6.735 -0.1240 -0.3254 -0.1618
58493SOL    HW293090   6.061   9.247   6.866 -0.0898  0.2874 -0.0264
58494SOL     OW93091   3.369   8.577   6.028  0.0829 -0.6204 -0.3035
58494SOL    HW193092   3.365   8.670   6.007  1.3843 -0.6262 -0.6700
58494SOL    HW293093   3.366   8.574   6.123  0.5039 -0.1662 -0.2702
58495SOL     OW93094   4.469   2.164  11.976  0.2366  0.7689 -0.4817
58495SOL    HW193095   4.383   2.124  11.964  0.1488  1.0624 -0.8581
58495SOL    HW293096   4.456   2.232  12.042 -0.0067  1.3714 -1.1405
58496SOL     OW93097   1.747   1.502   7.952  0.0817 -0.4199  0.2728
58496SOL    HW193098   1.709   1.423   7.990 -0.1897  0.1443  1.2230
58496SOL    HW293099   1.673   1.562   7.944  0.1551 -0.4705 -1.0654
58497SOL     OW93100   4.320  11.732   5.720  0.3748 -0.5614 -0.3489
58497SOL    HW193101   4.360  11.789   5.786  0.7210  0.5283 -1.4641
58497SOL    HW293102   4.311  11.787   5.642 -0.9017 -1.5370 -0.9440
58498SOL     OW93103  10.927   4.790   1.985  0.2207  0.6295  0.2774
58498SOL    HW193104  10.936   4.698   2.013 -0.0341  0.2648 -0.8070
58498SOL    HW293105  10.992   4.836   2.037  0.5296 -0.2081  0.6634
58499SOL     OW93106  12.149   8.883   8.461 -0.1356 -0.5563  0.5112
58499SOL    HW193107  12.228   8.844   8.499 -1.1140 -2.4801  0.6925
58499SOL    HW293108  12.178   8.916   8.376  0.7861 -1.6292  0.3724
58500SOL     OW93109   2.148  13.948   0.853  0.2372 -0.2708 -0.3694
58500SOL    HW193110   2.207  13.899   0.795  0.5010 -0.4367  0.0354
58500SOL    HW293111   2.205  13.988   0.917  0.0162  0.5419 -0.6632
58501SOL     OW93112   3.295  10.886   9.872 -0.4259  0.3037  0.0352
58501SOL    HW193113   3.379  10.852   9.842 -0.6166 -0.5232  0.4247
58501SOL    HW293114   3.276  10.837   9.952 -0.4743  1.6706  0.8888
58502SOL     OW93115   3.495   7.929   3.045 -0.4017  0.3780  0.3912
58502SOL    HW193116   3.458   7.872   3.113 -0.1356 -0.0106  0.2109
58502SOL    HW293117   3.427   7.995   3.030 -0.6412  0.2128  0.7228
58503SOL     OW93118   6.998  13.677   6.910  0.1635  0.0175 -0.3919
58503SOL    HW193119   6.975  13.599   6.961 -2.2959  0.9214  0.0062
58503SOL    HW293120   7.031  13.642   6.827  0.6056 -1.4324  0.3464
58504SOL     OW93121   6.273   9.282   3.829  0.1101 -0.2162 -0.0498
58504SOL    HW193122   6.235   9.347   3.770  1.4263  2.1664  1.5330
58504SOL    HW293123   6.198   9.235   3.865 -0.8887  0.3054 -1.3919
58505SOL     OW93124  12.744   7.970  12.642 -0.5039 -0.1066  0.1338
58505SOL    HW193125  12.717   8.060  12.660 -0.2747 -0.3148  1.6571
58505SOL    HW293126  12.773   7.936  12.727  1.8713 -0.8057 -0.8783
58506SOL     OW93127   0.044   1.609   9.192  0.0348 -0.3008  0.0862
58506SOL    HW193128   0.024   1.696   9.158  2.4170  0.5445  0.5952
58506SOL    HW293129  -0.000   1.604   9.276  0.7384  0.8835  0.5429
58507SOL     OW93130   7.514   9.170   8.478 -0.3080  0.3876  0.4068
58507SOL    HW193131   7.548   9.101   8.535 -0.1077  1.1536  1.2239
58507SOL    HW293132   7.582   9.181   8.411 -1.3547 -1.8316 -1.1786
58508SOL     OW93133  13.435   1.477   6.575 -0.6106 -0.1150 -0.0472
58508SOL    HW193134  13.370   1.410   6.598 -1.3117  0.3586 -0.5844
58508SOL    HW293135  13.423   1.545   6.641 -0.8488  0.0889 -0.2962
58509SOL     OW93136  12.353   2.576   4.301 -0.1792 -0.4353  0.2485
58509SOL    HW193137  12.285   2.620   4.250 -1.6052  1.3529  3.4528
58509SOL    HW293138  12.320   2.487   4.313 -0.0143 -0.7625 -1.4786
58510SOL     OW93139   9.454  11.060  13.673 -0.2801  0.0874 -0.0703
58510SOL    HW193140   9.402  11.059  13.753 -1.5183 -0.5314 -0.8547
58510SOL    HW293141   9.499  10.975  13.673 -0.6131 -0.0898 -0.2378
58511SOL     OW93142   0.598   8.351   7.300 -0.4497 -0.4990 -0.0273
58511SOL    HW193143   0.545   8.302   7.238  0.4928  1.5454 -2.6371
58511SOL    HW293144   0.578   8.443   7.283 -0.4722  0.1967  3.0912
58512SOL     OW93145  11.889   1.362   3.841 -0.0527 -0.1930  0.1314
58512SOL    HW193146  11.961   1.330   3.787  0.0296 -0.1440  0.2125
58512SOL    HW293147  11.811   1.349   3.787 -0.2128 -1.8890  0.6977
58513SOL     OW93148   8.217  13.985   9.573  0.8900 -0.0573  0.5205
58513SOL    HW193149   8.278  14.048   9.535  0.0745  1.2725  1.3167
58513SOL    HW293150   8.212  14.010   9.666  2.3325 -2.7880  1.4281
58514SOL     OW93151   7.512  11.615   0.874 -0.5336 -0.4010  0.2225
58514SOL    HW193152   7.462  11.561   0.812  0.1375 -2.1895  1.1602
58514SOL    HW293153   7.604  11.602   0.848 -0.3703  0.7463  0.1527
58515SOL     OW93154   1.161   6.790   8.172  0.2174 -0.0672 -0.0250
58515SOL    HW193155   1.240   6.826   8.212 -0.0170  0.0587  0.3278
58515SOL    HW293156   1.146   6.845   8.095  0.7635 -0.4134 -0.3897
58516SOL     OW93157   7.017   4.661  13.693 -0.6785  0.1012 -0.5079
58516SOL    HW193158   7.092   4.649  13.753 -0.9989  0.7874  0.0454
58516SOL    HW293159   7.032   4.747  13.653 -0.5314 -0.3026 -1.3347
58517SOL     OW93160   3.402   6.373   6.740 -0.1321  0.0144 -0.3490
58517SOL    HW193161   3.371   6.463   6.746  1.9989  0.8365 -0.9597
58517SOL    HW293162   3.445   6.356   6.824  2.5407  0.8541 -1.4433
58518SOL     OW93163  10.388   8.514  12.440 -0.4520  0.3515  0.5144
58518SOL    HW193164  10.430   8.494  12.357  1.0641 -0.1092  1.3502
58518SOL    HW293165  10.294   8.507  12.422 -0.1522  0.0851 -1.0928
58519SOL     OW93166   5.075   4.357   2.294  0.2350 -0.0586 -0.4904
58519SOL    HW193167   5.049   4.426   2.233 -1.4225  0.9909  1.2897
58519SOL    HW293168   5.019   4.282   2.271  0.3277 -0.0184 -0.8630
58520SOL     OW93169   1.715   4.362   3.120  0.2299  0.1290 -0.6592
58520SOL    HW193170   1.659   4.387   3.193 -0.0574  1.4199 -1.2951
58520SOL    HW293171   1.804   4.386   3.149  0.4547 -1.6483  0.2307
58521SOL     OW93172  13.676  11.209  13.813  0.2192 -0.5237 -0.3044
58521SOL    HW193173  13.663  11.280  13.876  1.4322 -0.5971  0.0755
58521SOL    HW293174  13.588  11.177  13.794 -0.4161  1.5028 -1.0135
58522SOL     OW93175  13.318   8.194  11.265 -0.4066  0.1274  0.0873
58522SOL    HW193176  13.322   8.158  11.176  0.6814  0.9596 -0.2266
58522SOL    HW293177  13.383   8.143  11.314 -0.0452  0.5463  0.0545
58523SOL     OW93178   8.339   0.032   2.322 -0.0284  0.1427 -0.0265
58523SOL    HW193179   8.283   0.064   2.251  1.5296  1.0756 -0.8782
58523SOL    HW293180   8.279   0.018   2.396 -1.5587 -0.1108 -1.2801
58524SOL     OW93181   9.746   8.706   4.965  0.0979 -0.4945 -0.7517
58524SOL    HW193182   9.833   8.745   4.976 -0.3202  0.0677  0.7684
58524SOL    HW293183   9.700   8.724   5.047 -2.1898  1.0559 -2.2331
58525SOL     OW93184   9.319  12.694   7.544 -0.3696 -0.4559 -0.1517
58525SOL    HW193185   9.286  12.610   7.512  1.6102 -1.0508 -0.7672
58525SOL    HW293186   9.412  12.679   7.562 -0.2548  1.2659  0.9970
58526SOL     OW93187   9.101  10.588   7.440  0.7169 -0.2043 -0.3922
58526SOL    HW193188   9.119  10.630   7.356 -1.3135  0.4054 -0.5807
58526SOL    HW293189   9.097  10.495   7.420 -0.0542 -0.0440 -1.0607
58527SOL     OW93190  10.669   3.967  10.715 -0.1544 -0.3498  0.0725
58527SOL    HW193191  10.756   3.942  10.743  0.0919 -1.2702 -1.4247
58527SOL    HW293192  10.678   3.990  10.622 -1.5209 -0.6780 -0.1777
58528SOL     OW93193   6.222   1.335  11.702  0.2863  0.0953 -0.4978
58528SOL    HW193194   6.253   1.248  11.676  0.3697 -0.3122  0.9187
58528SOL    HW293195   6.132   1.338  11.670 -0.5409 -1.4682  1.4527
58529SOL     OW93196  14.042  11.722   0.229 -0.1724  0.2423 -0.2854
58529SOL    HW193197  14.101  11.739   0.156 -2.1481  0.0444 -2.0195
58529SOL    HW293198  14.020  11.809   0.262  0.4147  0.3521 -0.1698
58530SOL     OW93199   2.622   3.509  10.218 -0.0222 -0.3935 -0.3416
58530SOL    HW193200   2.658   3.574  10.279 -1.1856  0.8954 -0.9512
58530SOL    HW293201   2.699   3.464  10.183  1.0782  2.1119 -1.4596
58531SOL     OW93202   4.683   4.439   7.894  0.3454  0.1625 -0.1560
58531SOL    HW193203   4.607   4.497   7.901  0.1271  0.2979 -2.6843
58531SOL    HW293204   4.677   4.383   7.972  0.5846  3.3968  2.4283
58532SOL     OW93205  10.564   8.146   0.261 -0.0523  0.2954  1.0305
58532SOL    HW193206  10.496   8.213   0.264  1.1895  1.5939  1.4689
58532SOL    HW293207  10.619   8.164   0.337  0.9882 -0.4908  0.4920
58533SOL     OW93208   9.624  12.505   3.021  0.2278 -0.1947  0.3203
58533SOL    HW193209   9.651  12.515   2.930 -0.0371  3.4619  0.4932
58533SOL    HW293210   9.528  12.509   3.018  0.1618 -1.0931  0.7248
58534SOL     OW93211   9.562   1.408  10.015  0.3203 -0.4031 -0.3441
58534SOL    HW193212   9.530   1.471  10.080 -0.8263 -0.3452 -0.9424
58534SOL    HW293213   9.504   1.332  10.023  1.8923 -1.5542  0.5961
58535SOL     OW93214   9.708   5.353  13.175  0.2192 -0.3639 -0.8835
58535SOL    HW193215   9.776   5.319  13.117  2.3465  0.0215  1.2328
58535SOL    HW293216   9.712   5.297  13.252 -0.3986  0.9699  0.1605
58536SOL     OW93217   3.703   0.195  10.679 -0.1878 -0.3484 -0.5173
58536SOL    HW193218   3.785   0.148  10.662  0.7969  0.8032  0.7810
58536SOL    HW293219   3.675   0.164  10.765 -0.3178  0.3300 -0.3081
58537SOL     OW93220  10.292  13.120   9.025 -0.3142  0.1203  0.5897
58537SOL    HW193221  10.297  13.030   9.060 -2.2981 -0.1190  0.3355
58537SOL    HW293222  10.384  13.148   9.021  0.2869 -1.4776  1.7362
58538SOL     OW93223  11.577   3.883  12.651  0.1968 -0.1284 -0.4102
58538SOL    HW193224  11.606   3.924  12.733  0.1731 -1.7598  0.4512
58538SOL    HW293225  11.500   3.934  12.625  0.4539  0.6748  0.3468
58539SOL     OW93226   0.845   5.358   6.150  0.8330 -0.2588 -0.1329
58539SOL    HW193227   0.899   5.429   6.185 -0.8069  0.8780  0.2253
58539SOL    HW293228   0.835   5.380   6.057 -1.0793  1.0292  0.3017
58540SOL     OW93229   3.416   6.077  12.480  0.0396 -0.0032 -0.2570
58540SOL    HW193230   3.451   6.009  12.537 -1.0859 -2.1311 -1.9565
58540SOL    HW293231   3.332   6.101  12.519  0.2739  0.1737  0.1458
58541SOL     OW93232   1.448   0.146  10.016  0.6008 -0.3606  0.0891
58541SOL    HW193233   1.518   0.208  10.035  0.1461  0.2871 -0.3065
58541SOL    HW293234   1.372   0.181  10.063  0.3357 -0.6093 -0.1553
58542SOL     OW93235  13.244   6.713   0.759  0.0493  0.4231  0.1282
58542SOL    HW193236  13.329   6.669   0.759  0.4250  1.1024  1.2064
58542SOL    HW293237  13.225   6.728   0.852  0.0722  2.7626 -0.1897
58543SOL     OW93238   9.964  12.097   6.864  0.0071 -0.2357  0.1953
58543SOL    HW193239   9.880  12.099   6.908 -0.2817  1.0548 -0.3729
58543SOL    HW293240   9.993  12.006   6.872 -1.2889 -0.6298  0.6576
58544SOL     OW93241  12.602   4.717   8.520  0.4668 -0.0318  0.2795
58544SOL    HW193242  12.627   4.654   8.587  0.9026 -0.0167  0.1329
58544SOL    HW293243  12.684   4.757   8.492  0.3432 -0.3352 -0.5648
58545SOL     OW93244   1.982   1.359   2.150 -0.2202 -0.0822  0.2122
58545SOL    HW193245   2.015   1.433   2.199  0.0194  1.4767 -2.1530
58545SOL    HW293246   1.912   1.395   2.096  0.1591 -1.4729 -1.2936
58546SOL     OW93247  13.943  10.286   8.939 -0.7416 -0.1203 -1.1989
58546SOL    HW193248  13.978  10.334   9.014 -0.8123 -0.1181 -1.1672
58546SOL    HW293249  13.974  10.334   8.862  0.9319 -1.1911 -1.2428
58547SOL     OW93250   4.084  10.400   5.739 -0.5628  0.3937  0.6282
58547SOL    HW193251   4.135  10.476   5.767  0.4983 -0.3164  0.6517
58547SOL    HW293252   4.043  10.368   5.820 -1.3260  1.1532  0.5558
58548SOL     OW93253   9.515  10.900   9.925  0.5632  0.0668  0.0361
58548SOL    HW193254   9.513  10.808   9.899 -1.9129  0.0277  0.0991
58548SOL    HW293255   9.438  10.910   9.981 -0.5777  2.6982 -1.8383
58549SOL     OW93256   4.263   8.463   7.430  0.0577  0.0443 -0.5726
58549SOL    HW193257   4.261   8.509   7.515 -1.7280 -0.2210 -0.4416
58549SOL    HW293258   4.346   8.492   7.390  1.0125  0.0730  1.2995
58550SOL     OW93259  12.009   4.406   7.992 -0.0848 -0.2096  0.0614
58550SOL    HW193260  12.097   4.444   7.993  0.4579 -1.4109 -0.3782
58550SOL    HW293261  12.002   4.357   8.074 -1.1264  1.5279  1.0709
58551SOL     OW93262  13.284   1.878  10.570  0.1148 -0.2154 -0.3924
58551SOL    HW193263  13.339   1.956  10.557 -0.2695  0.0706 -0.3058
58551SOL    HW293264  13.204   1.897  10.522 -0.0989 -0.4356 -0.1262
58552SOL     OW93265   5.263   4.847   0.583 -0.2399 -0.0606  0.5143
58552SOL    HW193266   5.284   4.924   0.636  0.9649 -0.3617  0.5016
58552SOL    HW293267   5.216   4.789   0.643  0.7381 -0.2191  1.1358
58553SOL     OW93268   9.504   3.620   9.527 -0.2099  0.2355  0.6806
58553SOL    HW193269   9.451   3.662   9.595 -0.1644  1.1683  0.1532
58553SOL    HW293270   9.442   3.562   9.482 -0.0056 -1.2308  2.1562
58554SOL     OW93271   0.545  12.052   5.848 -0.7056 -0.5267 -0.5369
58554SOL    HW193272   0.558  11.971   5.898  3.8258  0.6738  0.7583
58554SOL    HW293273   0.562  12.027   5.757  0.4955 -1.1266 -0.1701
58555SOL     OW93274   0.018   4.813  10.404  0.3654 -0.4321 -0.1181
58555SOL    HW193275  -0.021   4.764  10.332 -1.5078  0.7486  0.0315
58555SOL    HW293276   0.058   4.747  10.460  0.9306 -1.4567 -1.6667
58556SOL     OW93277   6.572   3.769   2.169  0.5510 -0.2264 -0.1822
58556SOL    HW193278   6.547   3.861   2.182 -0.4812 -0.6702  1.3549
58556SOL    HW293279   6.508   3.735   2.106 -0.3671 -0.3603  0.7796
58557SOL     OW93280  11.422   8.742   9.642  0.0371 -0.1501 -0.6754
58557SOL    HW193281  11.328   8.755   9.633  0.2625  0.8629 -1.8483
58557SOL    HW293282  11.432   8.648   9.653 -1.2631 -0.0565  1.9397
58558SOL     OW93283  13.221   0.047   0.092  0.7506  0.1002 -0.1796
58558SOL    HW193284  13.291   0.086   0.039  0.7808 -0.6541 -0.7070
58558SOL    HW293285  13.202   0.114   0.158  1.5398  0.5683 -0.4037
58559SOL     OW93286   3.173   4.124  11.103 -0.7369  0.0598 -0.2765
58559SOL    HW193287   3.225   4.074  11.040 -1.7830  0.0602 -1.1608
58559SOL    HW293288   3.215   4.106  11.187 -0.3845 -1.3893 -0.7307
58560SOL     OW93289   0.493  11.655  12.018 -0.5771 -0.4224 -0.3419
58560SOL    HW193290   0.419  11.715  12.034 -0.6127 -0.4263 -0.4819
58560SOL    HW293291   0.459  11.569  12.041 -0.2575 -0.2900  0.6657
58561SOL     OW93292   9.693  13.696   7.837  0.1280 -0.1743 -0.6993
58561SOL    HW193293   9.704  13.604   7.863 -0.9705 -0.2170 -0.3364
58561SOL    HW293294   9.735  13.702   7.752  0.6750 -0.8877 -0.4929
58562SOL     OW93295  13.047   9.827   4.768 -0.2577  0.1517 -0.2552
58562SOL    HW193296  13.074   9.901   4.823 -0.5872  0.1367 -0.0649
58562SOL    HW293297  13.099   9.836   4.688  1.4863 -0.7726  0.7105
58563SOL     OW93298   5.401   2.465  12.039  0.3479  0.2246  0.1424
58563SOL    HW193299   5.475   2.522  12.017 -0.6045  1.4271 -0.0494
58563SOL    HW293300   5.332   2.491  11.979 -0.2060 -0.9794  0.2230
58564SOL     OW93301   3.435   2.392  10.108 -0.4934 -0.0739  0.6255
58564SOL    HW193302   3.454   2.381  10.015 -0.1629  0.5500  0.6189
58564SOL    HW293303   3.373   2.466  10.111 -1.8194 -1.1418  0.7664
58565SOL     OW93304   3.363   0.905  12.464 -0.2782  0.0883 -0.2256
58565SOL    HW193305   3.275   0.916  12.501 -0.0384  1.0757  0.0980
58565SOL    HW293306   3.389   0.816  12.489 -1.2772 -0.3074 -0.5501
58566SOL     OW93307   2.808   8.876  12.388 -0.3639 -0.1229  0.0882
58566SOL    HW193308   2.777   8.875  12.297 -0.6279 -2.1769  0.1616
58566SOL    HW293309   2.760   8.805  12.431  1.4274 -0.7049  1.2436
58567SOL     OW93310  11.706   5.274   1.966 -0.4089 -0.0610  0.0459
58567SOL    HW193311  11.677   5.208   1.903  1.0601 -0.0296 -0.7125
58567SOL    HW293312  11.782   5.314   1.925 -0.0581  0.7108  1.3908
58568SOL     OW93313   4.072   8.264   4.902  0.3789 -0.0300 -0.5432
58568SOL    HW193314   4.159   8.276   4.941 -0.5949  0.3535  1.6668
58568SOL    HW293315   4.076   8.178   4.860  1.3154 -0.8193  1.0665
58569SOL     OW93316   0.527  12.169   1.719 -0.1613  0.1109 -0.6107
58569SOL    HW193317   0.463  12.131   1.779  0.2978 -0.5011 -0.5001
58569SOL    HW293318   0.607  12.177   1.771  1.0253 -2.8410 -1.7765
58570SOL     OW93319   4.452  13.304   9.767  0.3732  0.0328  0.2683
58570SOL    HW193320   4.373  13.345   9.733 -0.3873 -0.6634  1.1712
58570SOL    HW293321   4.445  13.311   9.862  0.7174 -1.2525  0.4129
58571SOL     OW93322  12.421   2.612   8.000  0.4589 -0.0848 -0.3670
58571SOL    HW193323  12.428   2.523   7.967 -2.4121 -0.9285  0.9588
58571SOL    HW293324  12.344   2.648   7.956  1.6173  1.8527 -0.9564
58572SOL     OW93325   7.840   4.566   4.114  0.1518 -0.0184  0.2375
58572SOL    HW193326   7.922   4.567   4.163 -0.9282 -0.5022  2.1829
58572SOL    HW293327   7.816   4.658   4.105  0.0372  0.0722  1.2803
58573SOL     OW93328  10.772   7.816   5.154 -0.1599  0.2859 -0.0446
58573SOL    HW193329  10.857   7.818   5.111 -0.3899  2.0813 -0.5042
58573SOL    HW293330  10.772   7.735   5.205  1.7546  0.1903 -0.1499
58574SOL     OW93331   9.202  11.494   0.793  0.1358 -0.4654 -0.4169
58574SOL    HW193332   9.243  11.494   0.879  0.6006  1.2360 -0.5918
58574SOL    HW293333   9.236  11.417   0.749  2.4564  0.3659 -0.1938
58575SOL     OW93334   3.795   0.982  12.379  0.5237 -0.0232 -0.1500
58575SOL    HW193335   3.781   1.054  12.317 -0.7179 -0.2525 -0.1735
58575SOL    HW293336   3.747   0.909  12.341  1.5581 -0.7982  0.0076
58576SOL     OW93337   9.098  10.543   4.209 -0.3857  0.1811 -0.8868
58576SOL    HW193338   9.112  10.477   4.141 -0.9845 -0.3361 -0.5226
58576SOL    HW293339   9.080  10.492   4.288  2.8142  0.6936  0.3015
58577SOL     OW93340  13.598  10.052  11.757 -0.3562  0.7638 -0.1825
58577SOL    HW193341  13.637  10.139  11.748  0.6027  0.4135  0.4201
58577SOL    HW293342  13.537  10.061  11.831 -1.0136  1.1640 -0.7577
58578SOL     OW93343  12.943   8.246   3.333  0.3003  0.1643  0.0003
58578SOL    HW193344  12.877   8.307   3.367 -0.7811 -0.3831 -1.0292
58578SOL    HW293345  12.966   8.192   3.409 -2.1571 -1.1224 -0.0431
58579SOL     OW93346  13.788  10.723   3.574 -0.1039 -0.3745  0.1286
58579SOL    HW193347  13.884  10.719   3.578 -0.0961  0.5999  1.5098
58579SOL    HW293348  13.762  10.761   3.658 -1.7193 -0.7467 -0.1749
58580SOL     OW93349  11.088   0.620  11.946 -0.3486  0.1474  0.3263
58580SOL    HW193350  11.078   0.576  11.862 -1.8198 -1.2205  1.1679
58580SOL    HW293351  11.166   0.579  11.985 -0.1250  0.2240 -0.0371
58581SOL     OW93352   5.866   1.059  10.220  0.0902 -0.1088 -0.2317
58581SOL    HW193353   5.811   1.090  10.292 -0.8703 -0.0308 -0.9704
58581SOL    HW293354   5.911   0.983  10.256  0.3864  0.5040  0.7511
58582SOL     OW93355   0.558   0.796   4.689  0.0241  0.2154  0.5301
58582SOL    HW193356   0.648   0.770   4.707  0.1819 -0.0242 -0.5513
58582SOL    HW293357   0.509   0.768   4.767  0.8102  0.0191  0.9669
58583SOL     OW93358   4.963   8.357   2.449  0.1380  0.0272  0.3828
58583SOL    HW193359   4.954   8.448   2.479  0.1343  1.3728 -3.1922
58583SOL    HW293360   5.028   8.362   2.378  1.0819 -3.0404  0.8901
58584SOL     OW93361   1.838   0.047  11.185 -0.3864  0.3738 -0.3148
58584SOL    HW193362   1.860   0.121  11.129  2.4566  0.4653  0.7661
58584SOL    HW293363   1.743   0.053  11.196 -0.3969  3.2357 -1.0915
58585SOL     OW93364   1.064  13.666  10.822 -0.3069  1.2454  0.3785
58585SOL    HW193365   1.062  13.691  10.730 -0.2950  1.0882  0.3340
58585SOL    HW293366   0.974  13.675  10.852 -0.4709  0.5171  0.1346
58586SOL     OW93367   6.170   2.376  12.838  0.5987  0.8010  0.4233
58586SOL    HW193368   6.190   2.440  12.769 -0.4107 -0.7368 -1.3999
58586SOL    HW293369   6.236   2.307  12.827 -0.2359  0.0103  0.2260
58587SOL     OW93370   7.470   2.885  12.798  0.2119  0.3478 -0.6443
58587SOL    HW193371   7.473   2.919  12.887 -1.6127  0.0207 -0.4125
58587SOL    HW293372   7.482   2.962  12.742 -0.6309  0.8845 -0.1056
58588SOL     OW93373  11.536   2.388  11.745  0.2235  0.0310  0.2390
58588SOL    HW193374  11.591   2.309  11.752  1.4006  0.9538  2.1550
58588SOL    HW293375  11.546   2.416  11.654 -0.7117 -2.3291 -0.6672
58589SOL     OW93376   9.370  13.286  11.721 -0.1078  0.1275  0.1909
58589SOL    HW193377   9.364  13.297  11.626  1.2529 -0.7676 -0.0245
58589SOL    HW293378   9.291  13.238  11.745 -0.8971  1.1180 -0.3360
58590SOL     OW93379   2.826   5.021   4.984  0.0494 -0.2065  0.6062
58590SOL    HW193380   2.856   4.937   4.950 -1.6876 -0.6218 -0.0635
58590SOL    HW293381   2.904   5.063   5.019  1.0738 -1.8101  0.3470
58591SOL     OW93382   8.240   3.770  11.076 -0.6875  0.4840  0.2474
58591SOL    HW193383   8.293   3.789  10.998 -0.7558  1.8323  0.5206
58591SOL    HW293384   8.281   3.821  11.146 -0.8675 -0.4111  1.0250
58592SOL     OW93385   0.479   6.129  13.923  0.1801 -0.5578  0.5205
58592SOL    HW193386   0.394   6.171  13.928 -1.0442 -2.8486  0.2243
58592SOL    HW293387   0.469   6.049  13.974  2.5168 -0.3915  1.3953
58593SOL     OW93388   9.708  10.891   1.695 -0.5923  0.2769  0.1459
58593SOL    HW193389   9.731  10.983   1.703  0.0645  0.0608  0.8936
58593SOL    HW293390   9.636  10.889   1.632  0.6578  1.1079 -1.3875
58594SOL     OW93391   6.171  10.493   6.999 -1.2479  0.1617 -0.4214
58594SOL    HW193392   6.134  10.523   7.082 -0.6063 -0.1856  0.0010
58594SOL    HW293393   6.147  10.560   6.935 -0.9139  0.9351  0.2486
58595SOL     OW93394   4.818  11.580  13.541  0.5912 -0.7613  0.3768
58595SOL    HW193395   4.732  11.559  13.578  0.7112 -0.7293  0.6743
58595SOL    HW293396   4.807  11.567  13.447 -0.4397  1.5489  0.0994
58596SOL     OW93397  10.837   9.493  12.521  0.3103 -0.3513  0.3573
58596SOL    HW193398  10.876   9.409  12.498 -0.4382 -1.1778  1.9709
58596SOL    HW293399  10.744   9.482  12.500  0.3132  0.3283 -0.0497
58597SOL     OW93400   2.757   1.142   3.871 -0.5104  0.3071 -0.1937
58597SOL    HW193401   2.701   1.198   3.817 -1.2386 -0.9759 -0.8127
58597SOL    HW293402   2.822   1.106   3.811  0.0443  0.5718  0.2286
58598SOL     OW93403   7.721   3.423   9.456  0.0734 -0.8884  0.5536
58598SOL    HW193404   7.756   3.378   9.533  2.6018 -0.8269 -0.4619
58598SOL    HW293405   7.781   3.496   9.441 -0.8894 -0.3579 -0.9417
58599SOL     OW93406   0.419   1.977   8.048 -0.1616 -0.1352  1.0971
58599SOL    HW193407   0.356   1.955   7.979  1.0373  0.7075 -0.3385
58599SOL    HW293408   0.499   1.931   8.022  0.3661  0.3412  1.8373
58600SOL     OW93409   3.733   4.100   0.181 -0.1094 -0.1281  0.3809
58600SOL    HW193410   3.824   4.087   0.206 -0.3162 -0.3695  1.0323
58600SOL    HW293411   3.701   4.013   0.158 -0.8753 -0.5113  2.6172
58601SOL     OW93412  11.233   0.446   6.865 -0.1184  0.8193 -0.1565
58601SOL    HW193413  11.172   0.410   6.800 -1.4524 -3.2385  2.9215
58601SOL    HW293414  11.317   0.404   6.845 -0.6833 -0.9499  0.9735
58602SOL     OW93415   9.627   0.456   4.632  0.7580  0.2073  0.1431
58602SOL    HW193416   9.703   0.512   4.616 -0.3077  1.0697 -2.4117
58602SOL    HW293417   9.661   0.367   4.620  1.3374  0.5907 -1.3333
58603SOL     OW93418   1.400  11.245   0.939 -0.4851 -0.5697  0.1304
58603SOL    HW193419   1.309  11.256   0.964 -0.5931  1.7274 -0.9853
58603SOL    HW293420   1.400  11.172   0.877 -1.4359 -0.9821  0.6047
58604SOL     OW93421   5.818  11.900  12.875  0.0722 -0.2453 -0.1737
58604SOL    HW193422   5.796  11.840  12.803  1.1607 -1.5096  0.4939
58604SOL    HW293423   5.737  11.906  12.926 -0.3046 -0.4606 -0.7287
58605SOL     OW93424   7.599   0.062   4.410  0.1843  0.0391  0.6832
58605SOL    HW193425   7.541   0.000   4.366 -0.0661 -0.0308  1.1100
58605SOL    HW293426   7.656   0.095   4.340  0.5576 -0.9369  0.5111
58606SOL     OW93427   9.799  10.488   4.781  0.3736  0.0492 -0.1078
58606SOL    HW193428   9.705  10.473   4.796  0.6336 -0.4152  1.2196
58606SOL    HW293429   9.829  10.530   4.862  1.4275 -0.3848 -0.2655
58607SOL     OW93430   2.998  14.058  11.492  0.3143 -0.2889  0.0063
58607SOL    HW193431   2.928  14.043  11.429 -1.2070  0.1779  1.5337
58607SOL    HW293432   3.023  14.149  11.479 -0.4049 -0.0246  0.4805
58608SOL     OW93433  10.139  12.693   2.852  0.1292 -0.0331 -0.3558
58608SOL    HW193434  10.184  12.609   2.859  1.1314  0.5811  1.0578
58608SOL    HW293435  10.150  12.720   2.761 -1.3790 -2.0229 -1.2109
58609SOL     OW93436   3.526  11.373  13.640  0.0511 -0.7136 -0.2407
58609SOL    HW193437   3.498  11.368  13.548 -1.2251  0.7446  0.0102
58609SOL    HW293438   3.479  11.449  13.674  0.4113 -1.3022  1.6646
58610SOL     OW93439  13.719  13.715   2.873 -0.1851  0.4579 -0.4527
58610SOL    HW193440  13.773  13.638   2.851 -0.5006  0.4611 -1.2895
58610SOL    HW293441  13.663  13.686   2.944  2.9252  1.3082  2.6151
58611SOL     OW93442  11.280  13.862   5.521  0.6755 -0.2956 -0.6058
58611SOL    HW193443  11.196  13.901   5.499  0.7128 -0.4960 -1.1071
58611SOL    HW293444  11.316  13.832   5.438  0.5728 -1.5499 -0.2245
58612SOL     OW93445   2.734  10.332   0.540  0.5024 -0.0040 -0.3407
58612SOL    HW193446   2.684  10.409   0.566 -0.5588 -0.4946 -0.8698
58612SOL    HW293447   2.713  10.266   0.606  1.4874  0.1727  0.1686
58613SOL     OW93448  13.990   3.739   8.949 -0.0527 -0.4235  0.2990
58613SOL    HW193449  13.995   3.744   9.044  2.3578 -0.4522  0.2438
58613SOL    HW293450  14.075   3.771   8.919 -0.4820 -1.0938 -1.8100
58614SOL     OW93451   7.797  11.889  11.340  0.2921 -0.5049 -0.4636
58614SOL    HW193452   7.862  11.874  11.272  3.5406 -0.6715  2.4261
58614SOL    HW293453   7.807  11.981  11.364 -0.0504 -0.7019  0.4959
58615SOL     OW93454   1.574   9.752   2.274 -0.6051  0.4908  0.4206
58615SOL    HW193455   1.633   9.823   2.250 -0.3167  0.1045 -0.0399
58615SOL    HW293456   1.515   9.790   2.339 -1.7998  1.7198 -1.3163
58616SOL     OW93457   3.606   1.808   6.865 -0.2895 -0.0835 -0.1422
58616SOL    HW193458   3.598   1.753   6.787 -0.6309  0.2352 -0.3406
58616SOL    HW293459   3.620   1.896   6.830  0.4946 -0.0735  0.1704
58617SOL     OW93460  12.542  11.858  10.683 -0.4216  0.0889 -0.2030
58617SOL    HW193461  12.602  11.910  10.737 -2.0191  0.4867  1.2535
58617SOL    HW293462  12.570  11.767  10.697  0.2183  0.3052 -0.0444
58618SOL     OW93463   9.778  12.259   2.632 -0.0909  0.6125  0.1170
58618SOL    HW193464   9.872  12.239   2.636 -0.3874 -0.8253  0.5680
58618SOL    HW293465   9.762  12.277   2.540 -0.4913 -5.7924 -1.5579
58619SOL     OW93466   7.418  13.457   8.212  0.0982 -0.6698  0.2800
58619SOL    HW193467   7.367  13.468   8.292  0.5936  1.4607  0.3450
58619SOL    HW293468   7.363  13.493   8.143  2.1338  3.6393  0.6209
58620SOL     OW93469  10.794  12.900   6.592  0.3264  0.1276 -0.0168
58620SOL    HW193470  10.764  12.924   6.679 -1.7962  0.8190 -0.8723
58620SOL    HW293471  10.866  12.839   6.607  0.4651  0.7629  2.1951
58621SOL     OW93472   8.754  10.041   6.840 -0.7231  0.4278 -0.5234
58621SOL    HW193473   8.846  10.043   6.815 -0.8042  1.3943 -0.7852
58621SOL    HW293474   8.746   9.964   6.897  0.6498  1.3786  1.0369
58622SOL     OW93475   7.676   0.454  12.906 -0.0064 -0.2199  0.4867
58622SOL    HW193476   7.646   0.473  12.995 -1.8586  0.2359 -0.1922
58622SOL    HW293477   7.681   0.540  12.864  1.0469 -0.4112  0.1838
58623SOL     OW93478   9.364  10.398  10.095 -0.4455  0.1020  0.2070
58623SOL    HW193479   9.305  10.414  10.169 -1.2932  0.2546 -0.4847
58623SOL    HW293480   9.305  10.382  10.021  0.3848  0.4738 -0.5490
58624SOL     OW93481   7.357   5.043  10.000 -0.0177 -0.4842 -0.2495
58624SOL    HW193482   7.288   5.078   9.944  0.5644  0.4823 -0.3804
58624SOL    HW293483   7.438   5.064   9.953  0.3571 -2.2268 -0.4550
58625SOL     OW93484   5.392   0.553   6.003 -0.2207  0.4270  0.1086
58625SOL    HW193485   5.338   0.539   6.080  0.3932 -2.1170  0.1567
58625SOL    HW293486   5.482   0.551   6.036  0.0037  1.2645 -0.4265
58626SOL     OW93487   4.909   2.798  11.678  0.1413  0.1357  0.2266
58626SOL    HW193488   4.913   2.794  11.582  0.7765 -0.9298  0.2882
58626SOL    HW293489   4.870   2.884  11.696  3.3739  2.0092 -0.9016
58627SOL     OW93490   8.988   9.034   1.104 -0.1316 -0.5351 -0.2483
58627SOL    HW193491   9.009   9.067   1.191  0.4600 -0.8038 -0.2799
58627SOL    HW293492   8.894   9.021   1.104 -0.4419  1.4316 -0.3326
58628SOL     OW93493   9.140   1.315   0.538  0.0885  0.1330 -0.0229
58628SOL    HW193494   9.155   1.253   0.609  0.8275  1.8328  1.4125
58628SOL    HW293495   9.221   1.314   0.487  0.2742  0.2347  0.2669
58629SOL     OW93496  10.542   5.083  12.612  0.2851  0.0145  0.1801
58629SOL    HW193497  10.533   5.126  12.527  2.1963  0.6515  0.2567
58629SOL    HW293498  10.524   5.152  12.676  2.9759  0.7136  0.2976
58630SOL     OW93499  13.322  12.289   1.111  0.0658  0.2766 -0.5379
58630SOL    HW193500  13.342  12.211   1.163 -1.1410  0.5169  0.3307
58630SOL    HW293501  13.259  12.338   1.164  1.3621  2.2391 -0.7265
58631SOL     OW93502   6.516   6.519   1.966  0.1247 -0.0872 -0.0623
58631SOL    HW193503   6.530   6.582   2.036 -1.0020 -0.0219  0.1315
58631SOL    HW293504   6.585   6.454   1.976  2.1532  1.7994 -1.1032
58632SOL     OW93505  10.084   2.366  10.207 -0.0111 -0.2724  0.4479
58632SOL    HW193506  10.179   2.360  10.197 -0.1622 -0.0294 -1.6591
58632SOL    HW293507  10.050   2.308  10.138 -1.3866 -0.2810  1.1142
58633SOL     OW93508   4.650  12.775  10.501 -0.8058 -0.0638 -0.2069
58633SOL    HW193509   4.590  12.701  10.492 -1.3734  0.2825  0.6783
58633SOL    HW293510   4.665  12.804  10.411 -0.7690 -1.0946 -0.5443
58634SOL     OW93511   1.780  12.280   6.334 -0.0684 -0.2327 -0.3931
58634SOL    HW193512   1.824  12.200   6.363 -0.4119 -0.5146 -0.6402
58634SOL    HW293513   1.846  12.327   6.283  1.4483  1.5248  2.8262
58635SOL     OW93514  12.475   1.713  12.481 -0.2671  0.1689  0.5846
58635SOL    HW193515  12.386   1.678  12.486  0.1130 -1.4888 -1.9764
58635SOL    HW293516  12.531   1.635  12.477  0.9973  1.0944 -1.1064
58636SOL     OW93517   1.194  11.153  11.560  0.2355  0.2171  0.4345
58636SOL    HW193518   1.164  11.086  11.620  0.0361  0.8230  1.0160
58636SOL    HW293519   1.281  11.123  11.532  0.9219  0.5745  2.0563
58637SOL     OW93520   1.320   1.616  11.014  0.0331 -0.0887  0.1686
58637SOL    HW193521   1.287   1.539  10.968 -0.7171 -0.4630  1.2910
58637SOL    HW293522   1.281   1.690  10.969  0.4169 -0.3720 -0.6539
58638SOL     OW93523   8.239   3.248   8.288  0.4541 -0.6507 -0.2891
58638SOL    HW193524   8.174   3.313   8.315 -1.2683 -2.3351 -0.1474
58638SOL    HW293525   8.302   3.297   8.235  0.0906  1.3918  1.0678
58639SOL     OW93526   3.030   7.919  12.576 -0.1837  0.1280  0.6462
58639SOL    HW193527   3.117   7.910  12.536 -0.0419  0.8476  0.7848
58639SOL    HW293528   2.994   7.830  12.573 -0.0121  0.0801 -0.6862
58640SOL     OW93529  10.916   4.764   1.716  0.1265  0.1960  0.2340
58640SOL    HW193530  10.878   4.848   1.690 -1.1322 -0.0693  1.0824
58640SOL    HW293531  10.926   4.771   1.811  0.5271 -0.4197  0.2436
58641SOL     OW93532   9.678  13.233   7.385  0.6456  0.4150  0.4544
58641SOL    HW193533   9.737  13.215   7.312 -0.8609 -1.3679 -0.4125
58641SOL    HW293534   9.729  13.212   7.463  1.5972  0.2954 -0.1803
58642SOL     OW93535   2.271   4.638  10.206  0.1487 -0.3116  0.4093
58642SOL    HW193536   2.217   4.717  10.211 -0.5528 -0.8461  2.8140
58642SOL    HW293537   2.360   4.670  10.196 -0.0649  0.8600  1.8525
58643SOL     OW93538   4.690  14.070  10.876 -0.1525 -0.1262 -0.2834
58643SOL    HW193539   4.722  14.019  10.802 -0.9452  0.8069 -1.2952
58643SOL    HW293540   4.612  14.023  10.905  0.5768 -0.9166  0.4860
58644SOL     OW93541   8.323   2.079   9.694  0.3898 -0.5551 -0.2132
58644SOL    HW193542   8.383   2.017   9.654  2.3764  0.7691  0.5598
58644SOL    HW293543   8.277   2.029   9.761 -0.0372 -1.7855 -1.3670
58645SOL     OW93544   0.325  13.889   9.427 -0.4601  0.0762  0.0145
58645SOL    HW193545   0.408  13.917   9.467  0.6871  0.0961 -2.2174
58645SOL    HW293546   0.258  13.922   9.486  1.1104  0.2469  1.8034
58646SOL     OW93547   8.402   8.678   5.739 -0.1174  0.2423 -0.0355
58646SOL    HW193548   8.377   8.732   5.813 -0.1131  0.3636 -0.1231
58646SOL    HW293549   8.463   8.614   5.776  0.5988  0.8721 -0.1012
58647SOL     OW93550   4.763   0.161   2.562  0.5180  0.4868  0.3321
58647SOL    HW193551   4.751   0.212   2.482 -1.2325 -0.4708 -0.0675
58647SOL    HW293552   4.726   0.216   2.632  1.3917  1.0139  0.3960
58648SOL     OW93553   9.562   1.724  13.795 -0.4514 -0.3591  0.0433
58648SOL    HW193554   9.546   1.678  13.877 -0.6308 -0.4862 -0.0638
58648SOL    HW293555   9.607   1.660  13.740 -1.9396 -0.8760 -0.6140
58649SOL     OW93556   1.526   2.039   8.120  0.1244  0.4292 -0.4219
58649SOL    HW193557   1.470   2.031   8.043  1.1531 -0.4335 -1.1173
58649SOL    HW293558   1.604   2.086   8.088 -0.2882  1.8479  0.5838
58650SOL     OW93559   8.797   6.611   3.427 -0.5032 -0.1244 -0.6959
58650SOL    HW193560   8.821   6.595   3.519 -0.2552  2.1317 -0.3105
58650SOL    HW293561   8.881   6.613   3.381 -0.6996 -2.6232 -1.2796
58651SOL     OW93562   9.097   7.212   5.952 -0.0912  0.2984  0.5492
58651SOL    HW193563   9.092   7.284   5.888 -3.2129  0.6136  1.0092
58651SOL    HW293564   9.087   7.254   6.037  3.0903 -0.2373  1.3344
58652SOL     OW93565   1.502   9.292  10.452  0.2026 -0.0933 -0.1136
58652SOL    HW193566   1.531   9.294  10.543 -1.1475 -1.6484  0.4108
58652SOL    HW293567   1.580   9.272  10.401  0.5445 -1.7162  0.9854
58653SOL     OW93568  12.250  10.562   6.052 -0.6066 -0.1971 -0.0517
58653SOL    HW193569  12.253  10.546   6.146 -2.6441 -2.0961 -0.2392
58653SOL    HW293570  12.178  10.623   6.040 -0.9648 -0.6825 -0.4305
58654SOL     OW93571   5.006   7.119   5.359  0.3941 -0.2367  0.1069
58654SOL    HW193572   4.911   7.107   5.351  0.3028 -1.4642  2.2939
58654SOL    HW293573   5.042   7.031   5.358  1.4319  0.1634  0.2820
58655SOL     OW93574   4.573   0.106  11.323  0.4367  0.3924 -0.0020
58655SOL    HW193575   4.549   0.107  11.416  1.4206 -0.0888  0.2670
58655SOL    HW293576   4.543   0.191  11.290  2.6174  1.8148  1.4346
58656SOL     OW93577   3.010   7.988   8.081  0.1927  0.3412 -0.4449
58656SOL    HW193578   3.010   8.040   8.001 -0.0459  1.2952  0.1578
58656SOL    HW293579   2.921   7.955   8.088 -0.2152  1.5233  0.2080
58657SOL     OW93580   2.458   3.958   1.082  0.3247  0.1386  0.4242
58657SOL    HW193581   2.534   3.981   1.135 -0.5660  1.4111  1.2150
58657SOL    HW293582   2.383   3.980   1.137 -0.6275  0.7423 -1.0571
58658SOL     OW93583   0.870   0.155   9.610 -0.3170  0.0554  0.1981
58658SOL    HW193584   0.928   0.227   9.636 -0.2598  0.6641 -1.5105
58658SOL    HW293585   0.792   0.168   9.663  0.4732  0.1589  1.3849
58659SOL     OW93586  10.797  12.498  10.318  1.0789 -0.3491 -0.0500
58659SOL    HW193587  10.740  12.551  10.373  0.7744 -1.9328  1.2185
58659SOL    HW293588  10.756  12.412  10.316  2.2177 -0.9004 -1.0192
58660SOL     OW93589   5.384   2.261  14.025  0.0241 -0.2488  0.0021
58660SOL    HW193590   5.355   2.338  14.074  0.2980  0.0127 -0.2417
58660SOL    HW293591   5.304   2.211  14.009 -0.7003  1.5630 -2.6169
58661SOL     OW93592   6.040   5.975   4.970 -0.0031  0.3903  0.1463
58661SOL    HW193593   5.960   5.997   4.922  0.2656  0.4499 -0.2906
58661SOL    HW293594   6.018   5.987   5.062 -1.3149 -2.2289  0.2427
58662SOL     OW93595   2.848   4.703   0.377 -0.2354  0.1001 -0.0514
58662SOL    HW193596   2.943   4.694   0.378 -0.2705 -0.4331 -0.6566
58662SOL    HW293597   2.819   4.648   0.304 -0.7938  2.1906 -1.5137
58663SOL     OW93598   1.146  13.706  13.357 -0.2442  0.3736 -0.4532
58663SOL    HW193599   1.081  13.636  13.360 -1.3617  1.4254  1.0598
58663SOL    HW293600   1.095  13.785  13.339  0.4545  1.3654  1.6689
58664SOL     OW93601  11.340  10.614  12.037  0.2750 -0.0589 -0.5166
58664SOL    HW193602  11.330  10.531  11.991 -0.5661 -1.1008  1.4535
58664SOL    HW293603  11.337  10.680  11.968  0.8701 -1.6339 -2.1211
58665SOL     OW93604   5.755   0.738  12.754  0.0852 -0.4798 -0.5793
58665SOL    HW193605   5.676   0.720  12.704  0.2349  0.0399 -1.0082
58665SOL    HW293606   5.826   0.706  12.699  0.2237 -0.2499 -0.5367
58666SOL     OW93607   8.146   6.268   1.523 -0.0036 -0.0859 -0.6062
58666SOL    HW193608   8.058   6.297   1.501 -0.1195 -0.5401 -0.7446
58666SOL    HW293609   8.141   6.242   1.615  0.0350  0.0742 -0.5584
58667SOL     OW93610   4.207   4.026   6.745  0.0626 -0.3629 -0.4045
58667SOL    HW193611   4.257   3.970   6.806 -1.1805 -0.4415  0.5779
58667SOL    HW293612   4.265   4.100   6.729  0.9102 -0.9274 -0.0911
58668SOL     OW93613   3.858   6.614   2.072 -0.3705  0.1842  0.2310
58668SOL    HW193614   3.812   6.610   1.989  0.2320 -0.1349 -0.0984
58668SOL    HW293615   3.795   6.582   2.137 -0.4971 -0.6003 -0.2643
58669SOL     OW93616   6.775   0.072   0.505  0.2815 -0.3018 -0.2091
58669SOL    HW193617   6.821  -0.011   0.516 -1.1200 -1.1298 -0.2525
58669SOL    HW293618   6.839   0.139   0.527  1.0459 -1.4471  1.2192
58670SOL     OW93619   0.162   8.291   0.978  0.2121  0.5017  0.1098
58670SOL    HW193620   0.114   8.288   1.061  0.5162 -0.2334  0.2694
58670SOL    HW293621   0.108   8.239   0.918  1.4263 -1.4858  0.6460
58671SOL     OW93622  13.016   5.189   1.360 -0.2262 -0.0319  0.2201
58671SOL    HW193623  12.954   5.172   1.289  0.8960  0.5276 -0.9182
58671SOL    HW293624  12.982   5.267   1.404 -0.0338  0.6337 -0.7750
58672SOL     OW93625   8.433   4.932  12.973  0.2301 -0.0697  0.5688
58672SOL    HW193626   8.503   4.995  12.986 -0.3563  1.2544 -2.0747
58672SOL    HW293627   8.353   4.979  12.998 -0.0854 -0.2464 -0.1048
58673SOL     OW93628   0.737   9.156  12.667 -0.2036 -0.0072  0.0423
58673SOL    HW193629   0.760   9.248  12.680  2.8622 -0.3177 -2.1360
58673SOL    HW293630   0.776   9.111  12.743 -0.6286  0.3386  0.4709
58674SOL     OW93631   0.688   3.092   0.989  0.1775 -0.0259 -0.1683
58674SOL    HW193632   0.636   3.049   0.920 -0.3884 -0.3145  0.4274
58674SOL    HW293633   0.758   3.137   0.941 -1.4693  1.6516 -1.1361
58675SOL     OW93634   6.865  13.264   8.467  0.6264  0.2904  0.2388
58675SOL    HW193635   6.910  13.348   8.472 -2.0889  1.8452  0.4274
58675SOL    HW293636   6.869  13.241   8.374  0.9603  0.8616  0.1059
58676SOL     OW93637   6.686   4.683  11.515  0.0025  0.0014  0.2788
58676SOL    HW193638   6.627   4.676  11.590  0.6351 -1.9448  0.6602
58676SOL    HW293639   6.628   4.677  11.438 -0.3906 -1.1408  0.6416
58677SOL     OW93640   1.764  13.711   1.980  0.5944 -0.0199  0.0625
58677SOL    HW193641   1.797  13.760   2.055  0.0116 -0.0860  0.3730
58677SOL    HW293642   1.762  13.774   1.908 -0.8967  0.6654  0.6529
58678SOL     OW93643   1.186   0.369   6.824 -0.3603  0.4563 -0.4862
58678SOL    HW193644   1.102   0.357   6.780 -1.5998 -1.2418  2.0595
58678SOL    HW293645   1.164   0.369   6.917  2.6313 -1.9691  0.3854
58679SOL     OW93646   0.088   7.014   7.333 -0.1685 -0.2932  0.5045
58679SOL    HW193647   0.122   7.047   7.416  1.4033  0.0095 -0.2254
58679SOL    HW293648   0.013   7.071   7.314  0.9270  1.2363  0.5360
58680SOL     OW93649   6.156  10.951  12.544  0.1678  0.0532  0.2405
58680SOL    HW193650   6.074  10.903  12.543  0.5090 -0.5288 -0.4289
58680SOL    HW293651   6.134  11.036  12.583 -1.0236  0.3902 -1.0871
58681SOL     OW93652   4.483   3.837   1.624  0.1943 -0.0697 -0.0486
58681SOL    HW193653   4.390   3.814   1.631  0.2681 -0.1238  0.7707
58681SOL    HW293654   4.487   3.930   1.643  0.2945 -0.0360 -0.2275
58682SOL     OW93655   6.571  12.663   1.634 -0.1313 -0.0952 -0.6859
58682SOL    HW193656   6.664  12.661   1.654 -0.5388  0.6013  1.6530
58682SOL    HW293657   6.528  12.646   1.718 -2.1286 -0.9521 -1.7976
58683SOL     OW93658  13.502   5.534   8.822 -0.5930 -0.3372  0.1213
58683SOL    HW193659  13.442   5.514   8.894 -0.5580  1.2934  0.6685
58683SOL    HW293660  13.551   5.454   8.808 -2.8804 -1.7409 -0.3593
58684SOL     OW93661   3.238   2.511  10.389  0.0370 -0.5445 -0.0157
58684SOL    HW193662   3.266   2.570  10.319 -0.2426  0.8582  0.9843
58684SOL    HW293663   3.153   2.478  10.361 -0.3767  0.5206 -0.0674
58685SOL     OW93664   3.776   9.920  11.899 -0.2630 -0.1661  0.3175
58685SOL    HW193665   3.692   9.883  11.872  0.0044 -0.0521 -0.6788
58685SOL    HW293666   3.753   9.981  11.970 -0.8404 -1.2551  1.0925
58686SOL     OW93667  13.750   5.435   7.015 -0.2923 -0.3484  0.0828
58686SOL    HW193668  13.717   5.362   6.962  0.1626  0.0367 -0.7418
58686SOL    HW293669  13.731   5.409   7.105 -2.0806 -0.5216 -0.3044
58687SOL     OW93670   6.493   3.279  11.129  0.1229 -0.0295 -0.1662
58687SOL    HW193671   6.515   3.205  11.072  1.1751  0.4693 -0.4317
58687SOL    HW293672   6.500   3.243  11.218  2.8154  0.2409 -0.1853
58688SOL     OW93673   0.918   7.306  12.419 -0.2384  0.2861  0.3000
58688SOL    HW193674   1.008   7.308  12.385 -0.0406 -1.2787  0.6464
58688SOL    HW293675   0.896   7.397  12.434  1.3657  0.6927  0.3711
58689SOL     OW93676   6.260   5.763   9.268 -0.3629  0.6231  0.0818
58689SOL    HW193677   6.260   5.791   9.359  0.7700 -0.0721  0.3116
58689SOL    HW293678   6.322   5.691   9.265 -0.5935  0.4553 -1.1929
58690SOL     OW93679  12.449  13.414  13.912  0.7510  0.2501 -0.5318
58690SOL    HW193680  12.437  13.503  13.944  0.6814  0.0043  0.1417
58690SOL    HW293681  12.361  13.376  13.911  1.0055 -0.5202  1.3477
58691SOL     OW93682  11.395   4.039   9.291 -0.1309  0.6236  0.7654
58691SOL    HW193683  11.466   4.091   9.330  0.9472 -1.5361  1.8904
58691SOL    HW293684  11.347   4.004   9.366 -1.0087  0.2489  0.0468
58692SOL     OW93685   1.472   3.690   2.938 -0.1907  0.0085  0.7747
58692SOL    HW193686   1.380   3.696   2.962 -0.1180 -0.4714  1.2083
58692SOL    HW293687   1.476   3.620   2.873 -0.3253  1.0137 -0.3570
58693SOL     OW93688   5.018   9.463   5.537  0.0177  0.3008 -0.4346
58693SOL    HW193689   4.957   9.445   5.609 -1.0053 -2.8213 -1.8745
58693SOL    HW293690   5.003   9.555   5.515 -1.6496  0.5722  1.4990
58694SOL     OW93691   7.117   0.420   1.451  0.4422 -0.1546 -0.7704
58694SOL    HW193692   7.034   0.442   1.492  0.5344 -0.1316 -0.5949
58694SOL    HW293693   7.109   0.451   1.361  0.0096 -0.7462 -0.9449
58695SOL     OW93694   1.469   1.429   3.569  0.5397  0.1054  0.8721
58695SOL    HW193695   1.557   1.461   3.549 -0.1345  0.4447 -1.9571
58695SOL    HW293696   1.450   1.366   3.500 -1.0042 -0.8979  2.1443
58696SOL     OW93697   8.137   7.862   0.001 -0.3779 -0.8044  0.3205
58696SOL    HW193698   8.212   7.886   0.055  0.3400 -1.0484 -0.5355
58696SOL    HW293699   8.144   7.920  -0.075 -2.7059  1.2029  1.5209
58697SOL     OW93700   2.860   7.819   4.661 -0.6006  0.7176  0.3571
58697SOL    HW193701   2.893   7.731   4.679 -0.3557  0.4612 -1.1695
58697SOL    HW293702   2.936   7.876   4.669 -0.2490  0.4537 -0.8230
58698SOL     OW93703  10.502   5.447   4.846  0.1636  0.3857  0.0141
58698SOL    HW193704  10.574   5.384   4.840  0.3484  0.2621  2.4526
58698SOL    HW293705  10.432   5.398   4.888 -0.6883  1.0611 -0.5916
58699SOL     OW93706   4.837   1.099   6.703  0.9869  0.3221 -0.2398
58699SOL    HW193707   4.817   1.050   6.782  4.9908 -0.0688  0.7297
58699SOL    HW293708   4.824   1.037   6.631 -0.3783 -0.0409  0.2964
58700SOL     OW93709   1.424   4.291   6.733 -0.2498  0.1071 -0.0402
58700SOL    HW193710   1.401   4.384   6.731 -0.9602 -0.0466  0.4271
58700SOL    HW293711   1.413   4.261   6.643 -1.6825  0.0996  0.1185
58701SOL     OW93712   5.534   0.987  10.508  0.6690  0.4449 -0.0729
58701SOL    HW193713   5.459   0.929  10.491  0.3245  0.8374  0.1044
58701SOL    HW293714   5.610   0.930  10.497  0.3679  0.1446 -0.7107
58702SOL     OW93715   6.765  10.498   4.829  0.2503  0.0344  0.4934
58702SOL    HW193716   6.848  10.481   4.785  0.8127  1.8263  0.7937
58702SOL    HW293717   6.764  10.438   4.903  0.3019 -1.4573 -0.6502
58703SOL     OW93718   3.352   5.528  12.979 -0.4313 -0.0978  0.2373
58703SOL    HW193719   3.324   5.596  13.040 -0.5075 -0.7269  0.9283
58703SOL    HW293720   3.270   5.485  12.952 -0.2455 -1.7164  1.9928
58704SOL     OW93721   9.195   8.654  13.892  0.5946 -0.0791 -0.1306
58704SOL    HW193722   9.149   8.579  13.854 -0.1258  0.9887 -1.4420
58704SOL    HW293723   9.287   8.639  13.871  0.1802  0.8329 -3.1418
58705SOL     OW93724  11.275   2.618  11.256 -0.0876 -0.3835 -0.3582
58705SOL    HW193725  11.369   2.632  11.245 -0.2141 -0.1626 -1.2682
58705SOL    HW293726  11.258   2.637  11.348  0.8191 -0.7978 -0.0993
58706SOL     OW93727  11.122   4.655   5.071 -0.5422  0.4863 -0.1557
58706SOL    HW193728  11.093   4.676   5.160  1.0829 -0.9780  0.7979
58706SOL    HW293729  11.046   4.616   5.029 -1.1755  0.6560  0.7950
58707SOL     OW93730   8.598   4.563   4.939  0.0555 -0.4621  0.0653
58707SOL    HW193731   8.510   4.537   4.914 -0.2358 -0.1609  0.7208
58707SOL    HW293732   8.653   4.543   4.864 -0.8462  0.8319 -0.9803
58708SOL     OW93733   4.346   4.005   9.855 -0.8816 -0.4449  0.6421
58708SOL    HW193734   4.294   4.085   9.863 -1.0443 -0.4123 -0.6096
58708SOL    HW293735   4.286   3.934   9.873 -1.2659 -0.3809 -0.3230
58709SOL     OW93736  12.788   0.653   3.453 -1.0818 -0.1147 -0.0577
58709SOL    HW193737  12.826   0.705   3.524 -0.2998  0.7907 -1.0916
58709SOL    HW293738  12.856   0.589   3.432 -1.2127 -0.2208 -0.1544
58710SOL     OW93739  12.584   1.207   0.250 -0.7311  0.0249 -0.6196
58710SOL    HW193740  12.597   1.121   0.209  1.2779  0.1259 -0.2969
58710SOL    HW293741  12.672   1.240   0.265 -1.4466  2.5508 -1.5123
58711SOL     OW93742   6.565   7.700   6.606 -0.2206 -0.5501  0.0064
58711SOL    HW193743   6.612   7.631   6.559  0.2786  0.8636 -1.6969
58711SOL    HW293744   6.495   7.726   6.547  0.4231  1.2922 -0.0045
58712SOL     OW93745   6.680   4.876  13.700 -0.1858 -0.0921  0.3747
58712SOL    HW193746   6.611   4.810  13.693  0.4357 -0.7705  0.4405
58712SOL    HW293747   6.715   4.884  13.611  0.2009 -0.3657  0.5007
58713SOL     OW93748  12.691   4.207   8.170  0.1318  0.2390 -0.2555
58713SOL    HW193749  12.728   4.204   8.259  2.0017  0.3242 -0.9980
58713SOL    HW293750  12.676   4.115   8.148 -1.7663  0.2724  0.6670
58714SOL     OW93751   8.046   7.058   3.304 -0.2890 -0.1257  0.4527
58714SOL    HW193752   7.996   7.026   3.378  1.4681 -0.6060  1.4884
58714SOL    HW293753   8.004   7.017   3.228 -1.7058 -0.1599  1.2181
58715SOL     OW93754   3.421   7.837  13.737 -0.4171  0.0713 -0.1827
58715SOL    HW193755   3.375   7.917  13.762 -0.5252 -0.1817  0.4395
58715SOL    HW293756   3.428   7.842  13.642 -0.7359  0.6500 -0.1780
58716SOL     OW93757  10.806  10.432   8.684 -0.4511 -0.8036 -0.2529
58716SOL    HW193758  10.829  10.377   8.759 -1.7444  0.2738  0.9704
58716SOL    HW293759  10.891  10.456   8.645  0.1749 -3.3240 -0.6346
58717SOL     OW93760   3.237   7.084   3.415  0.0350  0.1152  0.3948
58717SOL    HW193761   3.235   7.088   3.320 -0.3335  0.6005  0.4176
58717SOL    HW293762   3.228   6.991   3.436  1.7735 -0.1815 -0.0661
58718SOL     OW93763   5.087   2.335  12.465 -0.5042 -0.1462  0.4261
58718SOL    HW193764   5.100   2.402  12.532 -1.0352  1.1110 -0.6981
58718SOL    HW293765   5.170   2.333  12.417 -0.3309 -0.6264  0.7368
58719SOL     OW93766   3.626   6.297   7.491  0.1855 -0.2939 -0.4380
58719SOL    HW193767   3.552   6.355   7.476  1.0375  0.6943 -1.0007
58719SOL    HW293768   3.615   6.226   7.428  0.6285  0.7767 -1.7715
58720SOL     OW93769   7.039   0.209   2.081  0.0731  0.2243  0.1756
58720SOL    HW193770   7.036   0.259   2.162  0.3249  1.1342 -0.3589
58720SOL    HW293771   7.052   0.118   2.109  0.1922  0.5261  1.1445
58721SOL     OW93772   3.009   1.909   7.549 -0.3478 -0.7001  0.4737
58721SOL    HW193773   3.043   1.959   7.475 -0.1563 -1.2363  0.1980
58721SOL    HW293774   2.930   1.957   7.576  0.2245  0.1545  0.6754
58722SOL     OW93775   3.587   3.802   4.020  0.0521 -0.3015 -0.6250
58722SOL    HW193776   3.538   3.848   3.952 -0.8562 -0.1056  0.1409
58722SOL    HW293777   3.660   3.861   4.041 -0.7645  0.5497 -0.0790
58723SOL     OW93778   9.134   0.584   3.967  0.2365  0.3425 -0.1210
58723SOL    HW193779   9.158   0.620   4.052 -1.6023 -0.3355  0.7320
58723SOL    HW293780   9.104   0.660   3.917 -0.1467  0.5204  0.3730
58724SOL     OW93781   3.624   7.198   8.281  0.1924  0.2243 -0.1745
58724SOL    HW193782   3.635   7.122   8.224  0.5356 -0.5980  0.9405
58724SOL    HW293783   3.600   7.161   8.366  1.2401  1.2980  0.6357
58725SOL     OW93784   7.529   5.333   7.345 -0.3041 -0.4119  0.0484
58725SOL    HW193785   7.512   5.295   7.259  0.3869 -1.3427  0.3141
58725SOL    HW293786   7.624   5.343   7.349 -0.2688 -0.9901  0.9519
58726SOL     OW93787  12.452   3.128   7.244  0.2377  0.0957  0.2611
58726SOL    HW193788  12.539   3.121   7.285 -0.2098  0.0059  1.2143
58726SOL    HW293789  12.447   3.219   7.214  1.5983 -0.4907 -1.9899
58727SOL     OW93790   4.237   9.949   9.840  0.0560 -0.4354  0.1629
58727SOL    HW193791   4.143   9.951   9.819 -0.0780  0.8877  0.7939
58727SOL    HW293792   4.265   9.862   9.813 -1.3895 -0.9154  0.0915
58728SOL     OW93793  13.837   0.814  11.664 -0.1790 -0.5060 -0.2353
58728SOL    HW193794  13.893   0.738  11.648 -1.2812 -1.0549 -1.7562
58728SOL    HW293795  13.752   0.776  11.689 -0.2332  0.2867  0.8476
58729SOL     OW93796  10.855   2.250   3.426  0.1764  0.4589  0.2676
58729SOL    HW193797  10.824   2.231   3.514 -3.0781  0.7414 -0.6776
58729SOL    HW293798  10.830   2.342   3.411 -2.1493 -0.4055 -1.8914
58730SOL     OW93799  13.178   8.850   5.203  0.0068 -0.0155 -0.0764
58730SOL    HW193800  13.144   8.852   5.293 -1.5181 -0.2333 -0.6293
58730SOL    HW293801  13.110   8.891   5.150  0.9370  0.2197 -1.1415
58731SOL     OW93802   8.136   4.747  13.673  0.2161  0.4439  0.7885
58731SOL    HW193803   8.163   4.656  13.661  2.7984  1.3007 -0.5487
58731SOL    HW293804   8.042   4.746  13.655 -0.1414 -2.1388  2.1781
58732SOL     OW93805   3.368   8.922   9.634  0.2738  0.0431  0.6436
58732SOL    HW193806   3.453   8.915   9.592  1.4715 -0.4821  2.9989
58732SOL    HW293807   3.341   8.832   9.649 -0.1114  0.2140  1.0032
58733SOL     OW93808  12.491   8.271   1.846  0.5350  0.1123 -0.4987
58733SOL    HW193809  12.424   8.334   1.817  1.0557  1.0575  0.2602
58733SOL    HW293810  12.447   8.219   1.914  0.5106  0.6446 -0.0947
58734SOL     OW93811   6.979  12.383   7.598 -0.5167  0.4875  0.1586
58734SOL    HW193812   6.923  12.353   7.669 -0.0061  0.3136  0.4911
58734SOL    HW293813   6.942  12.343   7.519  1.5193 -3.1890  0.7910
58735SOL     OW93814   4.206  10.836   4.692 -0.0028 -0.1312  0.1936
58735SOL    HW193815   4.170  10.765   4.745 -0.5219  0.1585  0.2309
58735SOL    HW293816   4.272  10.876   4.748 -0.9302  0.5208  0.8427
58736SOL     OW93817   9.738   8.454   7.789  0.0407 -0.0314 -0.0009
58736SOL    HW193818   9.829   8.483   7.782 -0.5430  2.1761  0.6494
58736SOL    HW293819   9.718   8.415   7.704  1.0434  1.1454 -0.8047
58737SOL     OW93820   2.722  12.258   9.654  0.7659 -0.0998  0.4919
58737SOL    HW193821   2.685  12.323   9.714 -0.1124 -0.8185  0.7402
58737SOL    HW293822   2.756  12.189   9.712  0.4165 -0.5313  0.1848
58738SOL     OW93823   4.790   7.933   0.857  0.4926  0.7642  0.6824
58738SOL    HW193824   4.743   8.007   0.896  1.0911  0.9264  1.1098
58738SOL    HW293825   4.875   7.969   0.833  0.4382  0.4512 -0.0097
58739SOL     OW93826   1.457   4.796  13.551  0.4461 -0.3753  0.1925
58739SOL    HW193827   1.493   4.708  13.564  1.9076  0.2453  0.5935
58739SOL    HW293828   1.505   4.850  13.613  0.0547  0.8224 -0.5207
58740SOL     OW93829  12.471   6.740   7.157  0.0541  0.2104 -0.1728
58740SOL    HW193830  12.463   6.737   7.062 -0.2417  1.1719 -0.1935
58740SOL    HW293831  12.456   6.832   7.179  2.2938  0.4368  0.6107
58741SOL     OW93832   6.109   1.410   8.686 -0.3013 -0.1226 -0.0549
58741SOL    HW193833   6.156   1.494   8.688  3.2720 -1.8498 -2.0481
58741SOL    HW293834   6.054   1.417   8.608 -0.3819  0.5160  0.0487
58742SOL     OW93835   4.450  12.708   9.932 -0.4479  0.0586  0.8958
58742SOL    HW193836   4.433  12.615   9.945 -0.2075 -0.1178 -0.0069
58742SOL    HW293837   4.364  12.750   9.946 -1.1879 -0.5859 -1.3175
58743SOL     OW93838  11.519   1.703   4.783  0.1681 -0.6685 -0.1987
58743SOL    HW193839  11.465   1.628   4.759 -1.1694  0.1504  0.1346
58743SOL    HW293840  11.500   1.718   4.876  0.0130  0.3768 -0.3839
58744SOL     OW93841   8.049   0.432   7.291  0.1515  0.3790  0.5780
58744SOL    HW193842   8.047   0.360   7.227 -0.8886  0.3944  0.5754
58744SOL    HW293843   8.048   0.511   7.238  3.0173  0.4577  0.5230
58745SOL     OW93844  10.679   3.177   0.873 -0.1820 -0.5513  0.6434
58745SOL    HW193845  10.591   3.143   0.893 -0.2850 -1.3321 -1.0308
58745SOL    HW293846  10.709   3.213   0.957 -2.0952 -0.2401  1.2607
58746SOL     OW93847  13.199   4.599   7.291 -0.0132  0.4699  0.0941
58746SOL    HW193848  13.192   4.542   7.367  0.6336  0.4968  0.1796
58746SOL    HW293849  13.136   4.669   7.307 -0.1532  0.2674  0.4212
58747SOL     OW93850   4.420   5.385  13.348  0.0266  0.0507 -0.1387
58747SOL    HW193851   4.412   5.334  13.429 -0.2270 -1.8600 -1.3038
58747SOL    HW293852   4.493   5.344  13.301 -0.0184  0.9431 -1.0101
58748SOL     OW93853  11.762   9.096   4.897  0.9588  0.2159 -0.3317
58748SOL    HW193854  11.849   9.063   4.875  1.0676  0.3476 -0.1102
58748SOL    HW293855  11.725   9.028   4.954  0.1822 -0.7364 -1.8998
58749SOL     OW93856  12.270   2.508  14.080  0.4099  0.0389  0.5550
58749SOL    HW193857  12.299   2.516  14.171 -0.0877  0.2232  0.6990
58749SOL    HW293858  12.211   2.432  14.080  0.0281  0.3330  0.4863
58750SOL     OW93859   9.810   8.167   2.107  0.4725 -0.1008 -0.3641
58750SOL    HW193860   9.893   8.211   2.088  2.0938 -1.7647  2.1731
58750SOL    HW293861   9.795   8.110   2.032  2.1735 -0.4890 -0.4457
58751SOL     OW93862  11.387   4.304   3.303 -0.3293 -0.1027  0.6442
58751SOL    HW193863  11.323   4.318   3.234 -1.8897  1.4274  2.2802
58751SOL    HW293864  11.424   4.391   3.321  3.7404 -1.1447 -1.4821
58752SOL     OW93865   1.840   5.645   1.298  0.1125  0.0616  0.0114
58752SOL    HW193866   1.824   5.729   1.343 -1.2180 -0.0104 -0.2895
58752SOL    HW293867   1.871   5.587   1.367  0.5867  0.6651  0.3211
58753SOL     OW93868  12.092   1.041   7.178  0.1380 -0.2608  0.6347
58753SOL    HW193869  12.070   1.134   7.169  1.1744 -0.0166  0.4642
58753SOL    HW293870  12.146   1.037   7.257 -1.0862 -0.9516  1.4693
58754SOL     OW93871   9.266   9.140  12.686 -0.8373 -0.1085  0.2370
58754SOL    HW193872   9.245   9.083  12.760  0.4967 -2.3490 -1.0085
58754SOL    HW293873   9.271   9.082  12.611  0.3978  1.6930 -1.1750
58755SOL     OW93874  10.401   7.035  13.455 -0.6274 -0.2461 -0.1188
58755SOL    HW193875  10.329   7.073  13.506 -0.0602  1.7519 -0.7354
58755SOL    HW293876  10.453   6.988  13.520 -1.2409  0.2067  0.7269
58756SOL     OW93877   9.933  10.578   1.119  0.0994  0.2155  0.0958
58756SOL    HW193878   9.856  10.553   1.067 -2.9681  2.4462  3.0739
58756SOL    HW293879   9.932  10.674   1.117  1.0275  0.3400  2.4948
58757SOL     OW93880   0.638   3.746   5.970  0.0714  0.0269  0.6506
58757SOL    HW193881   0.658   3.839   5.956  1.3744 -0.2465  0.4863
58757SOL    HW293882   0.568   3.745   6.035  1.0306  1.1139  1.7628
58758SOL     OW93883   5.276   5.621   7.811  0.1372 -0.2627  0.0776
58758SOL    HW193884   5.261   5.707   7.771 -1.8295 -0.1077  1.0209
58758SOL    HW293885   5.360   5.631   7.857  0.7014  0.6450 -1.0939
58759SOL     OW93886   7.443   6.843   2.839 -0.0430 -0.2615 -0.3827
58759SOL    HW193887   7.416   6.891   2.760  1.2999  1.8463  0.3549
58759SOL    HW293888   7.372   6.858   2.901  1.2483  2.7668  0.5620
58760SOL     OW93889   9.862   1.310   0.529 -0.0156 -0.2643 -0.3347
58760SOL    HW193890   9.815   1.371   0.471  1.2074  0.4646 -0.5918
58760SOL    HW293891   9.821   1.322   0.615  0.9209  1.7899 -0.1113
58761SOL     OW93892   8.463  12.932   0.110 -0.5747  0.4005 -0.5375
58761SOL    HW193893   8.490  13.020   0.083  2.1177 -0.3782 -0.6528
58761SOL    HW293894   8.422  12.944   0.195  0.4767  1.7005 -0.1860
58762SOL     OW93895   6.511  12.302   9.017  0.2579 -0.4061 -0.0700
58762SOL    HW193896   6.539  12.215   9.045 -1.1131 -0.6299  0.7089
58762SOL    HW293897   6.499  12.351   9.099  0.5817  0.3872 -0.4847
58763SOL     OW93898   5.064   6.721  13.804 -0.4701 -0.4253 -0.2577
58763SOL    HW193899   5.023   6.796  13.846  1.4677  0.5628  0.0050
58763SOL    HW293900   5.087   6.662  13.876  1.3137  0.4849 -0.0135
58764SOL     OW93901  11.224   8.576   3.874  0.0148  0.0949 -0.0053
58764SOL    HW193902  11.266   8.560   3.790  0.8164  1.5210  0.0995
58764SOL    HW293903  11.133   8.595   3.852  0.2271  0.4899 -0.5524
58765SOL     OW93904  10.760   2.497   1.595  0.5902  0.4501  0.3944
58765SOL    HW193905  10.796   2.478   1.508  0.3838  3.2087 -0.3705
58765SOL    HW293906  10.823   2.458   1.656  0.3938 -2.1466 -0.9276
58766SOL     OW93907   9.819   6.140   8.162 -0.4035 -0.0179  0.1282
58766SOL    HW193908   9.740   6.118   8.210  0.1427 -1.4164  0.4378
58766SOL    HW293909   9.817   6.084   8.085 -0.7038  1.3952 -0.9496
58767SOL     OW93910   5.225  10.174   1.929 -0.5185 -0.8748  0.2537
58767SOL    HW193911   5.143  10.206   1.891 -0.1459 -1.0971 -0.7651
58767SOL    HW293912   5.275  10.254   1.948 -0.6156 -0.7654  0.0578
58768SOL     OW93913   7.745   2.737  10.197  0.1792 -0.4263 -0.5746
58768SOL    HW193914   7.694   2.716  10.276  0.1664  0.6052 -0.2868
58768SOL    HW293915   7.720   2.827  10.176  2.4175  0.4068  0.0219
58769SOL     OW93916   6.032   4.657   4.523 -0.0741  0.3561  0.0709
58769SOL    HW193917   6.004   4.569   4.498 -0.3944  0.5434 -0.2313
58769SOL    HW293918   5.969   4.715   4.482  0.3945  0.7502 -0.1077
58770SOL     OW93919  11.781  11.156   5.679  0.0953  0.2773  0.4736
58770SOL    HW193920  11.808  11.197   5.761  0.2317  0.5535  0.2896
58770SOL    HW293921  11.778  11.062   5.699  2.3484  0.0922  0.1919
58771SOL     OW93922   7.643  13.669   8.046 -0.1284 -0.0437  0.2271
58771SOL    HW193923   7.571  13.730   8.062  1.1942  1.8308 -0.6227
58771SOL    HW293924   7.609  13.609   7.979 -0.8137  1.0099 -0.4007
58772SOL     OW93925  12.605   0.647  13.910  0.1952  0.1104  0.2961
58772SOL    HW193926  12.683   0.692  13.877  0.8684 -2.3525 -1.7957
58772SOL    HW293927  12.532   0.693  13.867  0.6089  1.1372  0.6562
58773SOL     OW93928   8.796  10.086   3.821  0.2928  0.0916  0.3173
58773SOL    HW193929   8.715  10.136   3.829  0.6257  0.5116  1.2101
58773SOL    HW293930   8.865  10.151   3.834  0.8503  0.0166 -1.7916
58774SOL     OW93931  14.074   0.693   3.801 -0.2079 -0.4552 -0.0951
58774SOL    HW193932  14.094   0.599   3.795 -0.7352 -0.6147  0.5071
58774SOL    HW293933  14.038   0.716   3.716 -0.8213 -0.9834  0.0167
58775SOL     OW93934  10.634  10.793  10.144 -0.1774 -0.1672 -0.4420
58775SOL    HW193935  10.600  10.716  10.189 -1.7458  1.3334  1.1348
58775SOL    HW293936  10.584  10.797  10.062 -1.5188  0.2007  0.3611
58776SOL     OW93937   6.643   1.105   0.062 -0.5308  0.3627  0.3001
58776SOL    HW193938   6.648   1.109  -0.033 -0.4884 -0.1780  0.2753
58776SOL    HW293939   6.560   1.146   0.084 -1.0530 -0.4796 -0.0499
58777SOL     OW93940   6.138  13.321   4.264 -0.3321 -0.6377 -0.0517
58777SOL    HW193941   6.134  13.286   4.353 -2.2257 -0.3951 -0.0050
58777SOL    HW293942   6.219  13.372   4.262 -1.1508  0.8643  2.1155
58778SOL     OW93943  12.483   3.750  10.194 -0.1455 -0.4757 -0.0448
58778SOL    HW193944  12.573   3.734  10.165 -0.9882 -0.3186 -3.1189
58778SOL    HW293945  12.487   3.834  10.240  1.2673 -0.4305 -0.2079
58779SOL     OW93946   3.607   5.979   0.362  0.0779 -0.2074 -0.3178
58779SOL    HW193947   3.578   5.906   0.417 -0.0673 -0.4136 -0.6617
58779SOL    HW293948   3.537   5.990   0.298  0.0802  0.2660 -0.2408
58780SOL     OW93949   8.354   3.156  13.137 -0.2351 -0.2933  0.0612
58780SOL    HW193950   8.300   3.084  13.170  0.1581 -0.5476  0.1522
58780SOL    HW293951   8.296   3.233  13.141 -0.4122 -0.4528  0.6801
58781SOL     OW93952  13.193   2.875   7.518  0.8862  0.2448  0.3350
58781SOL    HW193953  13.164   2.936   7.586 -2.5274  0.2734 -0.9189
58781SOL    HW293954  13.225   2.930   7.447 -0.0941  0.5008  0.0777
58782SOL     OW93955  11.121   7.379   4.285  0.0957  0.4304 -0.2738
58782SOL    HW193956  11.046   7.424   4.247 -2.3061 -3.3055 -0.4042
58782SOL    HW293957  11.115   7.398   4.379  0.1269  1.5626 -0.4762
58783SOL     OW93958  12.062   0.819   3.370 -0.5976  0.1721  0.1302
58783SOL    HW193959  12.118   0.767   3.312 -1.0681 -0.9089  0.6178
58783SOL    HW293960  11.980   0.771   3.373 -1.1987  1.1707  0.2821
58784SOL     OW93961   5.528   3.930  12.102 -0.6646 -0.1847 -0.8875
58784SOL    HW193962   5.509   4.020  12.126 -1.8559 -0.2894 -1.3951
58784SOL    HW293963   5.474   3.913  12.025 -0.0670 -1.1752 -1.1157
58785SOL     OW93964   8.502  11.941   2.263 -0.2028 -0.2018 -0.3181
58785SOL    HW193965   8.516  11.976   2.351  1.5743 -1.1280 -0.1932
58785SOL    HW293966   8.589  11.938   2.224 -1.0192  0.7170 -2.3484
58786SOL     OW93967   8.437   9.115  12.989  0.0775 -0.3142  0.3663
58786SOL    HW193968   8.532   9.110  12.976  0.0158  0.2201 -0.3324
58786SOL    HW293969   8.413   9.202  12.957 -0.5009 -0.0319  1.4962
58787SOL     OW93970   1.222   5.948   9.415 -0.4567 -0.6312  0.3476
58787SOL    HW193971   1.166   6.022   9.390 -0.2419 -0.5685  0.0381
58787SOL    HW293972   1.169   5.871   9.396  0.0262 -0.6257 -1.2306
58788SOL     OW93973   1.564   3.243   8.384 -0.6928 -0.1905 -0.5356
58788SOL    HW193974   1.542   3.319   8.330  2.3037 -0.2171 -2.0055
58788SOL    HW293975   1.581   3.279   8.471  0.1124  0.7621 -1.0705
58789SOL     OW93976   2.778   6.854   8.450  0.1700  0.1842  0.1143
58789SOL    HW193977   2.716   6.808   8.394 -0.0991  2.4425 -1.5762
58789SOL    HW293978   2.723   6.915   8.501  0.5335 -1.0991  2.1706
58790SOL     OW93979  13.883   2.502   6.267 -0.3068 -0.4134 -0.0708
58790SOL    HW193980  13.974   2.529   6.267 -0.5217  0.3476  1.2174
58790SOL    HW293981  13.876   2.442   6.192  1.1977 -0.3672 -0.2689
58791SOL     OW93982  13.810   3.365   2.029 -0.2279 -0.0399  0.3135
58791SOL    HW193983  13.833   3.299   2.094  1.2495 -0.1763 -0.3081
58791SOL    HW293984  13.776   3.314   1.955 -0.0089 -0.0460  0.2145
58792SOL     OW93985   9.336  13.594   5.420  0.7152  0.4065 -0.2132
58792SOL    HW193986   9.342  13.684   5.388 -1.4553  0.6972  0.0909
58792SOL    HW293987   9.335  13.601   5.515 -2.8298  0.4512 -0.1242
58793SOL     OW93988   0.996   9.444  12.667 -0.0906  0.0825  0.1444
58793SOL    HW193989   1.061   9.511  12.687  0.7896 -1.3140  2.4392
58793SOL    HW293990   1.046   9.371  12.632 -0.9049  0.2126 -1.3516
58794SOL     OW93991   7.269   3.889   7.653  0.3990 -0.5786 -0.3940
58794SOL    HW193992   7.229   3.804   7.671  1.2724 -0.6662  1.3298
58794SOL    HW293993   7.362   3.876   7.674  0.2629  1.2325  1.5829
58795SOL     OW93994  11.711  12.236  10.157 -0.7559  0.1909  0.1100
58795SOL    HW193995  11.802  12.227  10.187 -0.4614  1.1957 -0.4358
58795SOL    HW293996  11.689  12.149  10.122  0.1793  0.0696 -0.2182
58796SOL     OW93997   9.933   3.752   7.971 -0.5590  0.5291 -0.5539
58796SOL    HW193998   9.905   3.833   7.928 -0.2959  0.7745 -0.2666
58796SOL    HW293999  10.027   3.764   7.987 -0.7402  0.6310  0.4921
58797SOL     OW94000   3.724   2.127  12.298 -0.6299  0.2389 -0.1401
58797SOL    HW194001   3.726   2.071  12.375  0.1512  1.1974  0.5668
58797SOL    HW294002   3.638   2.168  12.300 -1.4355 -1.3526 -0.9972
58798SOL     OW94003   0.815   3.210  10.547  0.3899 -0.2396 -0.5209
58798SOL    HW194004   0.844   3.300  10.561 -0.8989  0.4105 -1.7831
58798SOL    HW294005   0.893   3.164  10.517  0.8303  0.7168 -0.8765
58799SOL     OW94006   4.083   8.629   5.571 -0.2054  0.4144  0.1111
58799SOL    HW194007   4.053   8.543   5.598  0.0712 -0.0245 -0.9141
58799SOL    HW294008   4.019   8.690   5.609 -0.6035 -0.2619  0.5493
58800SOL     OW94009  12.145   9.544   0.582  0.0702  0.0372 -0.0721
58800SOL    HW194010  12.146   9.565   0.488 -2.6980 -0.6841 -0.3750
58800SOL    HW294011  12.166   9.626   0.626  0.0304  0.7386 -1.3156
58801SOL     OW94012   7.352   1.051  11.561  0.3658  0.6827  0.0069
58801SOL    HW194013   7.443   1.048  11.591 -0.2605 -0.2819  2.0723
58801SOL    HW294014   7.347   1.128  11.506  2.6373  0.2423 -0.9397
58802SOL     OW94015  10.290  12.646   0.877  0.0046 -0.1740 -0.1561
58802SOL    HW194016  10.298  12.733   0.916  1.0531  0.2909 -1.3438
58802SOL    HW294017  10.359  12.595   0.919 -1.7711 -1.0199  1.9071
58803SOL     OW94018   5.769   3.775   4.401 -0.2078 -0.2953 -0.2785
58803SOL    HW194019   5.684   3.795   4.361 -0.3227  0.7573  0.4378
58803SOL    HW294020   5.828   3.841   4.363  0.3365 -1.1092 -0.8792
58804SOL     OW94021   2.270  10.955  13.932 -0.2248  0.0953  0.3515
58804SOL    HW194022   2.208  10.965  14.004  0.6063  0.9142  0.9746
58804SOL    HW294023   2.223  10.987  13.855 -0.4718  1.0159  0.8736
58805SOL     OW94024   4.156  13.586   3.645  0.2370  0.4800 -0.6528
58805SOL    HW194025   4.241  13.623   3.624  0.5814 -0.0637 -0.2390
58805SOL    HW294026   4.171  13.534   3.725 -0.1647 -0.7660 -1.3594
58806SOL     OW94027   9.556  12.552   1.226 -0.2877  0.2843  0.1786
58806SOL    HW194028   9.470  12.592   1.235 -0.0001  0.8971  0.2720
58806SOL    HW294029   9.569  12.505   1.309 -0.4858  0.2823  0.2086
58807SOL     OW94030  13.701  13.146  12.211 -0.1966  0.0439 -0.5014
58807SOL    HW194031  13.732  13.212  12.149  2.0113 -0.1875  0.3034
58807SOL    HW294032  13.780  13.103  12.243 -1.3151 -0.3448  1.9530
58808SOL     OW94033  12.968   4.735   8.076 -0.2516 -0.0586 -0.4133
58808SOL    HW194034  12.877   4.738   8.047 -0.9522  0.9405  1.7451
58808SOL    HW294035  12.998   4.825   8.072  0.0790 -0.1184  0.5734
58809SOL     OW94036   7.157   2.662   4.981 -0.1323 -0.2454 -0.5101
58809SOL    HW194037   7.106   2.658   4.901  1.1513 -2.0672 -1.2959
58809SOL    HW294038   7.236   2.611   4.963  0.8989  0.5155  1.4223
58810SOL     OW94039   6.469   2.174  10.414 -0.4158 -0.2160 -0.6824
58810SOL    HW194040   6.556   2.208  10.392  0.9223 -2.0454  1.3551
58810SOL    HW294041   6.414   2.252  10.418  1.3167  1.1095 -1.2073
58811SOL     OW94042  11.609   3.540  10.485 -0.4372  0.6274 -0.3971
58811SOL    HW194043  11.620   3.452  10.519  0.0764 -0.2432 -2.6557
58811SOL    HW294044  11.655   3.596  10.547 -0.4244 -0.7174  0.8441
58812SOL     OW94045   3.930   9.156  13.266  0.4659 -0.9569 -0.0897
58812SOL    HW194046   3.886   9.214  13.204  0.8672 -0.7628 -0.2017
58812SOL    HW294047   3.867   9.143  13.336 -0.5319 -2.3014 -1.1956
58813SOL     OW94048   4.193   0.918   7.435  0.4863 -0.6902 -0.0386
58813SOL    HW194049   4.222   0.889   7.348 -1.3266  1.0003 -1.2864
58813SOL    HW294050   4.104   0.951   7.421 -0.4865 -1.8279  2.7924
58814SOL     OW94051  13.308   6.224  11.772 -0.1439 -0.3166 -0.0434
58814SOL    HW194052  13.309   6.300  11.829 -0.9189  1.1987 -1.9567
58814SOL    HW294053  13.217   6.216  11.743  0.0105 -1.7143 -0.2363
58815SOL     OW94054   4.491  11.518  12.221 -0.8252  0.3004 -0.0856
58815SOL    HW194055   4.497  11.607  12.257 -1.0974  0.2786  0.0154
58815SOL    HW294056   4.397  11.502  12.212 -0.7731  0.0800 -0.2500
58816SOL     OW94057   6.514   2.740  12.405 -0.1292 -0.3078  0.8142
58816SOL    HW194058   6.569   2.816  12.425  0.4735 -0.3409 -0.6000
58816SOL    HW294059   6.426   2.775  12.399  0.0220  0.1212  1.0404
58817SOL     OW94060   1.582   2.081   1.979  0.0478 -0.4385  1.0213
58817SOL    HW194061   1.504   2.041   1.940 -2.4541  2.0765  3.0600
58817SOL    HW294062   1.620   2.132   1.908 -1.6946  0.3363  0.5906
58818SOL     OW94063   7.399   3.211   8.454  0.0042  0.1191  0.1084
58818SOL    HW194064   7.315   3.248   8.481  0.0397  0.4813 -0.2559
58818SOL    HW294065   7.449   3.200   8.535 -1.4668 -2.9065  0.7198
58819SOL     OW94066  11.273   4.545   9.325 -0.1007 -0.1774 -0.2327
58819SOL    HW194067  11.205   4.604   9.293  0.1100 -0.2456 -0.8286
58819SOL    HW294068  11.255   4.535   9.418 -1.9819 -1.5619 -0.6785
58820SOL     OW94069   2.143   9.663  10.978 -0.5731  0.2593 -0.2266
58820SOL    HW194070   2.119   9.706  10.896  0.6062  1.1508 -0.1259
58820SOL    HW294071   2.202   9.725  11.021  0.9315 -1.3211  0.0836
58821SOL     OW94072  12.989   4.514   0.316  0.0510 -0.3767  0.1221
58821SOL    HW194073  12.941   4.584   0.270 -1.0202 -0.2208  1.4279
58821SOL    HW294074  13.059   4.559   0.362 -0.3042 -0.2213  0.5179
58822SOL     OW94075   2.475   8.205  11.670  0.1740  1.0535  0.3485
58822SOL    HW194076   2.527   8.125  11.668  0.5538  1.2769 -2.0235
58822SOL    HW294077   2.399   8.183  11.723 -0.2332 -1.2489 -1.0371
58823SOL     OW94078  13.190  11.665  12.875  0.3285 -0.4701 -0.1464
58823SOL    HW194079  13.160  11.607  12.945  2.6477  0.5180  1.8159
58823SOL    HW294080  13.241  11.609  12.817 -0.9979 -1.1551 -0.6873
58824SOL     OW94081   1.483  12.016   3.788 -0.6911  0.3030 -0.4305
58824SOL    HW194082   1.503  11.923   3.794  0.3983  0.5961  0.9205
58824SOL    HW294083   1.455  12.041   3.876 -1.3911  1.1840 -0.8732
58825SOL     OW94084   3.493   3.393   1.855  0.4423  0.4928 -0.9124
58825SOL    HW194085   3.570   3.443   1.880  0.9519  0.2065 -1.8501
58825SOL    HW294086   3.419   3.449   1.879  0.9076  0.4641  0.6539
58826SOL     OW94087   5.561   6.625   0.776  0.2141  0.2301 -0.2592
58826SOL    HW194088   5.484   6.678   0.755  1.0161  1.0303 -1.2154
58826SOL    HW294089   5.587   6.655   0.863 -0.9875 -0.5912  0.4212
58827SOL     OW94090   9.310   0.407   2.682 -0.1833  0.1224  0.4216
58827SOL    HW194091   9.368   0.358   2.624  1.8236  0.5141  1.9941
58827SOL    HW294092   9.223   0.394   2.645  0.7727 -1.2369 -1.5235
58828SOL     OW94093  10.838   3.691  13.752 -0.1442  0.0168  0.2680
58828SOL    HW194094  10.900   3.736  13.810 -0.1781  0.7960 -0.2852
58828SOL    HW294095  10.885   3.683  13.669 -0.9279  1.0129 -0.2945
58829SOL     OW94096   2.906  13.878  12.955 -0.0221 -0.3384 -0.7266
58829SOL    HW194097   2.829  13.834  12.919  0.0528 -1.6724  0.6663
58829SOL    HW294098   2.962  13.808  12.987  1.5716  0.6341 -1.2654
58830SOL     OW94099   3.010   9.414   3.368 -0.3114 -0.4194  0.3092
58830SOL    HW194100   3.037   9.505   3.358  0.6976 -0.8861 -1.5042
58830SOL    HW294101   3.072   9.364   3.316 -0.8023 -2.1765  1.3318
58831SOL     OW94102   6.623  11.913   4.629 -0.2118 -0.3909 -0.0369
58831SOL    HW194103   6.697  11.903   4.569 -0.0269  0.6915 -0.0055
58831SOL    HW294104   6.562  11.971   4.583  0.7618  2.0022  1.5168
58832SOL     OW94105   3.292  10.764   7.840  0.3656  0.4642  0.6977
58832SOL    HW194106   3.224  10.768   7.772 -1.1244  0.8414  2.1378
58832SOL    HW294107   3.335  10.849   7.835  0.3100  0.4706  0.1966
58833SOL     OW94108   5.807  12.945   4.598 -0.3196 -0.2676 -0.3291
58833SOL    HW194109   5.770  12.995   4.671 -0.5247 -0.4350 -0.3172
58833SOL    HW294110   5.765  12.860   4.604  1.0631 -0.9322  0.4999
58834SOL     OW94111  13.391   9.924   7.940 -0.1950  0.7607 -0.4134
58834SOL    HW194112  13.324   9.967   7.887  0.7009 -1.2298 -3.3640
58834SOL    HW294113  13.470   9.929   7.887  0.4393 -2.5122  0.0290
58835SOL     OW94114   7.201  13.568   2.085  0.7873 -0.3072  0.0906
58835SOL    HW194115   7.121  13.519   2.063  0.8959 -0.6177  0.3705
58835SOL    HW294116   7.219  13.621   2.008  0.2727 -0.1861  0.0486
58836SOL     OW94117  12.093   2.655  13.583  0.8077 -0.3530  0.1025
58836SOL    HW194118  12.131   2.568  13.567  0.9118 -0.5590  1.3712
58836SOL    HW294119  12.011   2.637  13.629  1.8262  0.2549  2.2801
58837SOL     OW94120   1.413   3.269  10.355 -0.5349  0.3188 -0.3955
58837SOL    HW194121   1.451   3.199  10.406 -1.3681 -0.0046 -0.2043
58837SOL    HW294122   1.408   3.234  10.266 -0.0766  0.4861 -0.4876
58838SOL     OW94123   7.856   4.122   0.463 -0.0150  0.3029 -0.3434
58838SOL    HW194124   7.796   4.140   0.535  0.3147  0.6479 -0.1522
58838SOL    HW294125   7.943   4.138   0.500  0.1234  1.0798 -0.9933
58839SOL     OW94126   2.080   9.773   3.377 -0.2794  0.1105  0.0425
58839SOL    HW194127   2.148   9.706   3.380 -1.0497 -0.6713  0.3724
58839SOL    HW294128   1.998   9.725   3.377 -0.8625  1.0617  0.8370
58840SOL     OW94129  10.541   1.285   1.331 -0.2267  0.5738  0.4290
58840SOL    HW194130  10.465   1.265   1.276 -0.1615  1.1405  0.1293
58840SOL    HW294131  10.572   1.199   1.360 -0.8891  0.3317  0.4313
58841SOL     OW94132   2.601   6.417   8.491 -0.3753  0.3001 -0.6925
58841SOL    HW194133   2.592   6.489   8.554  2.4963 -0.9082  1.3191
58841SOL    HW294134   2.566   6.341   8.538 -1.1638 -0.0921 -1.8790
58842SOL     OW94135   3.955  12.867   1.468 -0.4525  0.1982 -0.2812
58842SOL    HW194136   3.885  12.904   1.415  1.0855  0.4128 -2.2764
58842SOL    HW294137   4.005  12.812   1.407  0.6222 -0.6310  1.2778
58843SOL     OW94138   3.411   8.503   6.783 -0.5352 -0.2916 -0.2611
58843SOL    HW194139   3.396   8.467   6.696 -0.8517 -0.0191 -0.3212
58843SOL    HW294140   3.364   8.444   6.842 -2.5638  0.9506 -0.5078
58844SOL     OW94141   8.183   4.011  11.323  0.0998  0.3720 -0.3741
58844SOL    HW194142   8.263   3.963  11.344 -0.0803  0.1562 -0.1786
58844SOL    HW294143   8.132   4.009  11.404  0.0927  0.8992 -0.3592
58845SOL     OW94144   4.350   3.029   9.794  0.2298  0.0321 -0.2016
58845SOL    HW194145   4.322   2.940   9.818 -0.4298  0.3761  0.3664
58845SOL    HW294146   4.420   3.049   9.856  0.2903 -0.0453 -0.2440
58846SOL     OW94147   0.918  10.923   0.601 -0.2543 -0.2384  0.2025
58846SOL    HW194148   0.989  10.926   0.537  0.5807 -2.1224  0.9623
58846SOL    HW294149   0.930  11.003   0.654 -1.2099  1.5739 -2.1230
58847SOL     OW94150   4.406   7.140  12.839  0.4986 -0.0649 -0.3622
58847SOL    HW194151   4.311   7.143  12.835  0.3785 -1.9317  0.0581
58847SOL    HW294152   4.434   7.232  12.834 -1.4613  0.9099  3.1990
58848SOL     OW94153   9.862   0.569   5.568 -0.6200  0.6897 -0.0434
58848SOL    HW194154   9.785   0.522   5.535  0.0603  1.9925 -4.1079
58848SOL    HW294155   9.826   0.643   5.618 -1.9212  0.1534 -0.1479
58849SOL     OW94156   8.556   4.450   3.823  0.1855  0.1234 -0.4660
58849SOL    HW194157   8.514   4.419   3.903  0.6872 -0.4949 -0.4426
58849SOL    HW294158   8.500   4.418   3.752 -1.0565  1.8755 -0.3316
58850SOL     OW94159  13.204   6.686  13.514 -0.1026  0.1336  0.2988
58850SOL    HW194160  13.284   6.637  13.533 -0.1868  0.2567  0.9953
58850SOL    HW294161  13.169   6.710  13.600 -0.1964  1.1910 -0.0191
58851SOL     OW94162   6.069   3.566   7.100 -0.5613 -0.1344 -0.0225
58851SOL    HW194163   6.123   3.553   7.178  0.0650 -1.0086 -0.5736
58851SOL    HW294164   6.119   3.628   7.047 -0.5379 -0.2488 -0.1341
58852SOL     OW94165   0.009   2.690  11.463 -0.4855 -0.5439 -0.4479
58852SOL    HW194166   0.038   2.781  11.461 -0.9602 -0.3245  1.0726
58852SOL    HW294167  -0.035   2.681  11.548  1.7840 -2.8554  0.6102
58853SOL     OW94168   0.232   8.005   8.568 -0.3045  0.2119  0.8289
58853SOL    HW194169   0.142   8.022   8.542  0.4468  1.7556 -1.0108
58853SOL    HW294170   0.242   8.052   8.651 -1.1638  0.0705  1.0213
58854SOL     OW94171   1.181   4.602   4.848 -0.7092  0.5404  0.3054
58854SOL    HW194172   1.135   4.534   4.898 -0.1472  0.3588  0.5827
58854SOL    HW294173   1.237   4.553   4.787 -0.7722  0.7614  0.0652
58855SOL     OW94174  12.293   1.420  13.842 -1.2073  0.0850 -0.3195
58855SOL    HW194175  12.234   1.491  13.818  1.5832  2.1820 -1.6071
58855SOL    HW294176  12.274   1.402  13.934 -3.1959  1.2329 -0.4548
58856SOL     OW94177   3.153   0.647   9.503 -0.2372  0.2544 -0.1102
58856SOL    HW194178   3.100   0.568   9.516 -1.3199  1.1529  1.2312
58856SOL    HW294179   3.099   0.718   9.537  0.8923  1.5331 -0.8808
58857SOL     OW94180   9.036   0.081   3.068  0.6424 -0.0233 -0.4378
58857SOL    HW194181   9.001   0.055   2.983 -0.8371  0.5366 -0.0227
58857SOL    HW294182   9.131   0.076   3.057  0.4771 -2.2791 -1.3828
58858SOL     OW94183   3.809   0.163   7.510 -0.1238 -0.1233 -0.9170
58858SOL    HW194184   3.739   0.189   7.570 -0.7797  1.3230 -2.2506
58858SOL    HW294185   3.770   0.095   7.455  0.0994 -0.5760 -0.5292
58859SOL     OW94186   3.596  10.617   0.369  0.1949  0.4567  0.8590
58859SOL    HW194187   3.644  10.635   0.450 -0.3881  0.5359  1.1942
58859SOL    HW294188   3.536  10.692   0.360  1.6663  1.5196 -0.7402
58860SOL     OW94189   2.696   7.268   0.732 -0.0854 -0.1844 -0.0487
58860SOL    HW194190   2.609   7.281   0.694 -1.0435 -1.5729  1.5608
58860SOL    HW294191   2.702   7.334   0.802  0.8280  0.9429 -1.1301
58861SOL     OW94192  12.531   3.890   2.945  0.0242 -0.7189 -0.3017
58861SOL    HW194193  12.497   3.864   3.030  0.9437  0.6179  0.5125
58861SOL    HW294194  12.546   3.808   2.898  2.0649 -1.6594  1.8370
58862SOL     OW94195   8.166   3.511   6.657 -0.2449 -0.4002 -0.5582
58862SOL    HW194196   8.132   3.436   6.607 -1.5338 -0.7395  0.7545
58862SOL    HW294197   8.186   3.475   6.744  2.0776  0.1503 -0.7968
58863SOL     OW94198  12.433   2.087   8.133  0.5705 -0.2415 -0.0278
58863SOL    HW194199  12.493   2.087   8.208 -1.7742  0.6011  1.9732
58863SOL    HW294200  12.360   2.032   8.161 -0.7162  0.6859 -1.4079
58864SOL     OW94201  13.417  13.362   6.834 -0.3559 -0.0942  0.5370
58864SOL    HW194202  13.345  13.300   6.847  0.0640 -0.4190  1.3983
58864SOL    HW294203  13.463  13.363   6.918 -0.0372  0.9833  0.3671
58865SOL     OW94204  11.228   0.139  13.144 -0.4609 -0.5630  0.0465
58865SOL    HW194205  11.165   0.149  13.073 -1.0850 -0.3837  0.6069
58865SOL    HW294206  11.290   0.074  13.113  0.8321  1.3991 -1.7394
58866SOL     OW94207   3.484   4.540   8.108 -0.8400  0.1005 -0.0718
58866SOL    HW194208   3.532   4.509   8.031 -2.5792 -0.5884 -0.9523
58866SOL    HW294209   3.404   4.580   8.072 -1.3806  0.3685  1.3442
58867SOL     OW94210   1.165   9.687   7.388 -0.8087  0.2283 -0.3562
58867SOL    HW194211   1.134   9.605   7.426 -1.1718 -0.1684 -1.4817
58867SOL    HW294212   1.212   9.661   7.309  1.5996  0.8945  0.7635
58868SOL     OW94213   7.159   2.621   5.634 -0.0623 -0.4941 -0.7312
58868SOL    HW194214   7.150   2.525   5.631 -1.8962 -0.4058  0.5276
58868SOL    HW294215   7.201   2.643   5.550  0.6674 -2.4009 -0.9279
58869SOL     OW94216   5.511   4.285  11.522 -0.1459 -0.0744  0.3937
58869SOL    HW194217   5.558   4.201  11.527  0.0549  0.1207  2.5991
58869SOL    HW294218   5.576   4.346  11.488  0.2115 -0.4577  0.3738
58870SOL     OW94219   4.762   3.557  12.521  0.5721  0.1071  0.2392
58870SOL    HW194220   4.783   3.589  12.609  1.0541  1.1465 -0.2358
58870SOL    HW294221   4.693   3.616  12.491 -1.0152 -1.4604  0.6513
58871SOL     OW94222   4.913   5.320   9.678  0.1629  0.4214  0.2416
58871SOL    HW194223   4.869   5.297   9.597  0.7376 -2.0506  0.5551
58871SOL    HW294224   4.842   5.328   9.742 -0.1898  1.3318 -0.2328
58872SOL     OW94225   7.460   6.407   3.436 -0.5426 -0.6578  0.3479
58872SOL    HW194226   7.467   6.502   3.446 -1.2670 -0.4600 -0.7947
58872SOL    HW294227   7.485   6.391   3.345 -2.1874 -1.3305 -0.0341
58873SOL     OW94228   2.006   8.915   4.005 -0.1898  0.4341 -0.0253
58873SOL    HW194229   2.083   8.893   4.058 -0.6100 -1.7398 -0.2369
58873SOL    HW294230   2.000   9.010   4.011  1.6139  0.5276  1.2457
58874SOL     OW94231  13.831  13.600   0.540 -0.0377  0.2382 -0.6038
58874SOL    HW194232  13.859  13.668   0.602  0.7895 -0.4468 -0.1946
58874SOL    HW294233  13.911  13.549   0.524 -0.0920  0.7471 -2.7058
58875SOL     OW94234   3.055   6.134   8.529  0.5030 -0.4498 -0.0182
58875SOL    HW194235   2.965   6.142   8.497  0.6516  1.5154 -0.0638
58875SOL    HW294236   3.047   6.088   8.612 -0.3532 -1.7597 -0.7966
58876SOL     OW94237  10.007   4.268  12.997  0.1789  0.1770 -0.0297
58876SOL    HW194238   9.965   4.344  13.037  2.2635  0.8692  0.9482
58876SOL    HW294239   9.943   4.238  12.932 -2.0503  0.8195  1.7170
58877SOL     OW94240   8.194  10.603   6.024 -0.2735  0.5622  0.2530
58877SOL    HW194241   8.127  10.543   6.057 -0.1221  0.0491 -0.3517
58877SOL    HW294242   8.245  10.627   6.102  1.3975 -2.2658  0.2090
58878SOL     OW94243   8.962   9.885   5.726 -0.5066 -0.3036  0.9833
58878SOL    HW194244   8.966   9.980   5.733 -0.8844 -0.2284  0.3017
58878SOL    HW294245   9.053   9.856   5.738  0.0910  0.3511 -1.3852
58879SOL     OW94246   7.850   4.982   2.273 -0.6089  0.2196  0.3309
58879SOL    HW194247   7.827   5.062   2.224 -0.9697 -0.0185  0.1048
58879SOL    HW294248   7.768   4.933   2.277 -0.5215  0.1192  0.9609
58880SOL     OW94249  10.795   4.109   2.369 -0.5452 -0.0668  0.2355
58880SOL    HW194250  10.834   4.072   2.448  0.5729  0.6194  0.0276
58880SOL    HW294251  10.822   4.201   2.369 -1.7112  0.2997 -0.2251
58881SOL     OW94252  11.573   7.268  11.303 -0.2885 -0.1436 -0.3489
58881SOL    HW194253  11.524   7.330  11.358  0.2440 -0.0567  0.0394
58881SOL    HW294254  11.636   7.323  11.256 -0.5672 -0.2517 -0.8616
58882SOL     OW94255   8.598   3.717  12.100 -0.1313  0.9226 -0.0414
58882SOL    HW194256   8.540   3.751  12.168  0.3589 -1.2893  1.6001
58882SOL    HW294257   8.540   3.669  12.041 -0.4108  1.8918 -0.5783
58883SOL     OW94258   9.217   2.826  13.313  0.9321 -0.4463 -0.3522
58883SOL    HW194259   9.303   2.841  13.351  0.7201  1.4379 -0.5044
58883SOL    HW294260   9.231   2.832  13.218  0.9183 -1.9424 -0.4681
58884SOL     OW94261   4.063  12.084   9.647  0.0958  0.5672 -0.3427
58884SOL    HW194262   4.088  12.155   9.588  1.1653 -0.6916 -1.4761
58884SOL    HW294263   4.031  12.014   9.588 -2.3728  0.6011  0.8114
58885SOL     OW94264   6.359  10.454   4.393  0.0127  0.4197 -0.0253
58885SOL    HW194265   6.441  10.445   4.344 -0.4979  0.8014 -0.9736
58885SOL    HW294266   6.299  10.393   4.351  0.2268 -1.0423  1.6629
58886SOL     OW94267  13.901   1.691  12.811  0.5562  0.5068  0.6375
58886SOL    HW194268  13.945   1.712  12.893  2.5107  4.1160 -1.0713
58886SOL    HW294269  13.812   1.722  12.823  0.9561  1.4629  1.2695
58887SOL     OW94270   2.783   9.525   4.122  0.2087  0.1224  1.0431
58887SOL    HW194271   2.858   9.568   4.081 -0.1430 -0.1152  0.1296
58887SOL    HW294272   2.819   9.482   4.199  0.9975  0.0852  0.6589
58888SOL     OW94273   8.136  10.850   3.289 -0.3495  0.1113 -0.4862
58888SOL    HW194274   8.052  10.814   3.262 -2.0673  1.7043  2.2775
58888SOL    HW294275   8.114  10.931   3.334  2.6162  0.1919  1.0687
58889SOL     OW94276   5.705   4.401   5.610  0.3472 -0.4876 -0.6821
58889SOL    HW194277   5.699   4.374   5.702 -1.4019 -1.5095 -1.0659
58889SOL    HW294278   5.759   4.481   5.613  1.4607 -1.2356  1.0510
58890SOL     OW94279  11.777   8.973   1.941 -0.3680  0.1839 -0.6932
58890SOL    HW194280  11.701   9.019   1.976 -0.3987 -0.0802 -0.4068
58890SOL    HW294281  11.793   9.014   1.856  0.9766  2.2886  0.4678
58891SOL     OW94282  13.730   6.176   2.055  0.1506 -0.0464  0.8557
58891SOL    HW194283  13.738   6.176   2.150 -1.7865 -0.0660  1.0702
58891SOL    HW294284  13.772   6.257   2.027 -0.6823  0.7718  1.9050
58892SOL     OW94285  11.279   6.451   7.033 -0.3098  0.5830  0.7506
58892SOL    HW194286  11.293   6.463   7.127 -1.2473  0.7401  0.8772
58892SOL    HW294287  11.336   6.516   6.992  1.1773 -0.4249  1.1424
58893SOL     OW94288   5.651   6.412   1.378  0.2487  0.0617  0.3472
58893SOL    HW194289   5.629   6.505   1.383 -1.6945 -0.3240 -0.2539
58893SOL    HW294290   5.620   6.376   1.461 -0.8731 -0.3785 -0.2417
58894SOL     OW94291   1.683   1.560   5.070  0.2679 -0.1009  0.5999
58894SOL    HW194292   1.727   1.568   4.986  0.3229 -2.5406  0.3262
58894SOL    HW294293   1.665   1.651   5.096 -1.0999  0.7193 -2.7057
58895SOL     OW94294   4.624  13.469   6.506  0.0818  0.1129  0.3443
58895SOL    HW194295   4.571  13.438   6.579 -1.5410 -0.2022 -0.8978
58895SOL    HW294296   4.587  13.426   6.429 -0.0706  2.4682 -1.0161
58896SOL     OW94297  11.181   0.550   9.058  0.2185  0.1301 -0.0225
58896SOL    HW194298  11.244   0.545   9.130  1.5080  0.1069 -1.1155
58896SOL    HW294299  11.096   0.542   9.100  0.9939 -1.3072  1.3608
58897SOL     OW94300   8.726   5.718   4.709  0.6754 -0.2553  0.2350
58897SOL    HW194301   8.764   5.786   4.765  0.1059  0.5098 -0.2724
58897SOL    HW294302   8.733   5.754   4.621 -0.9254 -0.2082  0.0966
58898SOL     OW94303   5.294   7.572   0.970  0.1923  0.1736 -0.0441
58898SOL    HW194304   5.380   7.605   0.944  0.4189  0.1599  0.6654
58898SOL    HW294305   5.235   7.648   0.962 -0.0114 -0.1335 -1.7832
58899SOL     OW94306   4.546  10.390   4.641 -0.2224 -0.1832 -0.0502
58899SOL    HW194307   4.549  10.316   4.581 -2.2351 -1.8944  1.7639
58899SOL    HW294308   4.587  10.358   4.721 -1.3922  0.5006  0.8681
58900SOL     OW94309   3.755   8.959   4.204 -0.5603  0.3160 -0.4426
58900SOL    HW194310   3.758   8.895   4.133 -0.2209  0.0189 -0.1682
58900SOL    HW294311   3.736   8.907   4.282  2.5232  0.0659  0.2752
58901SOL     OW94312   6.551   2.901   8.619 -0.3381  0.4228 -0.3593
58901SOL    HW194313   6.468   2.890   8.574 -1.7464  0.6657  2.0058
58901SOL    HW294314   6.548   2.838   8.691  1.1225  1.0655  0.3136
58902SOL     OW94315   6.304  11.415   1.751 -0.1895 -0.5810 -0.1166
58902SOL    HW194316   6.382  11.390   1.702  0.4215 -1.2024  1.1334
58902SOL    HW294317   6.332  11.418   1.842 -1.8066 -1.7011  0.4776
58903SOL     OW94318  13.833  10.577   8.600 -0.4139  0.7168 -0.4983
58903SOL    HW194319  13.754  10.626   8.624 -0.7176  0.1264 -0.2449
58903SOL    HW294320  13.816  10.489   8.634  1.4282  1.1767  1.9013
58904SOL     OW94321   3.226   8.865   1.679 -0.2871 -0.3360 -0.2492
58904SOL    HW194322   3.268   8.830   1.758 -0.1443 -1.5311 -0.8315
58904SOL    HW294323   3.229   8.793   1.617  0.0321  0.7512 -1.5285
58905SOL     OW94324   1.176   5.623   6.700  0.2193 -0.1305  0.0902
58905SOL    HW194325   1.108   5.620   6.633 -0.9368 -0.1907  1.2393
58905SOL    HW294326   1.167   5.540   6.748  1.3073 -0.2784  0.0775
58906SOL     OW94327  12.390   9.178  13.329  0.6356  0.3112 -0.0789
58906SOL    HW194328  12.442   9.239  13.276  0.9614 -0.2842 -0.4538
58906SOL    HW294329  12.447   9.157  13.403  0.5662  0.3752 -0.0067
58907SOL     OW94330   8.267  10.425   8.232  0.5410 -0.0275  0.2609
58907SOL    HW194331   8.211  10.491   8.273  1.1998 -1.1887  3.3119
58907SOL    HW294332   8.207  10.372   8.179 -1.2303 -0.7507  2.7942
58908SOL     OW94333   4.172   2.866   7.553 -0.3075  0.2700 -0.5566
58908SOL    HW194334   4.228   2.822   7.616  0.9640 -1.2868 -2.6686
58908SOL    HW294335   4.226   2.937   7.518 -0.4140  0.1250 -1.0263
58909SOL     OW94336   9.753  12.381   2.407 -0.0365 -0.6295 -0.2025
58909SOL    HW194337   9.692  12.453   2.392  0.7847  0.1019 -0.1349
58909SOL    HW294338   9.780  12.354   2.320  1.7636  1.0230 -0.2190
58910SOL     OW94339   7.828   3.838  10.300 -0.0178 -0.4893 -0.4535
58910SOL    HW194340   7.863   3.820  10.213 -0.2017 -0.2269 -0.5843
58910SOL    HW294341   7.745   3.790  10.303  0.4519 -1.3021 -0.0560
58911SOL     OW94342  12.113   6.125   3.991 -0.3197  0.0115  0.0079
58911SOL    HW194343  12.116   6.045   3.939  0.3907 -0.4064  0.6689
58911SOL    HW294344  12.033   6.117   4.043 -0.6994  0.1427 -0.5362
58912SOL     OW94345   5.081  12.074  10.199  0.3652  0.0583 -0.1658
58912SOL    HW194346   5.046  12.038  10.280 -0.2692 -0.1651 -0.5333
58912SOL    HW294347   5.056  12.166  10.201 -0.5888 -0.1830 -0.6035
58913SOL     OW94348   2.695  12.416   2.417 -0.6081  0.3870  0.0923
58913SOL    HW194349   2.790  12.413   2.432 -0.4635  2.5819 -0.0883
58913SOL    HW294350   2.676  12.332   2.375  1.2826 -0.0410 -0.0327
58914SOL     OW94351  14.058   3.807   0.051 -0.3029  0.5803  0.0597
58914SOL    HW194352  14.021   3.895   0.052  0.1863  0.7960 -0.5032
58914SOL    HW294353  14.148   3.818   0.082 -0.3346  0.2306  0.2873
58915SOL     OW94354   2.779  10.878   0.485 -0.3371  0.0007 -0.0661
58915SOL    HW194355   2.750  10.791   0.458 -0.5278  0.4535 -1.4123
58915SOL    HW294356   2.751  10.936   0.414 -1.6432  1.4376  1.5400
58916SOL     OW94357  12.133  13.761   1.512 -0.0406 -0.0350  0.0716
58916SOL    HW194358  12.129  13.839   1.456  0.2809 -0.0129  0.0770
58916SOL    HW294359  12.098  13.691   1.458 -0.6471  0.1813  0.1838
58917SOL     OW94360   3.617   0.082   5.781 -0.3773  0.2671 -0.0201
58917SOL    HW194361   3.551   0.094   5.849 -0.7962  0.3722 -0.4439
58917SOL    HW294362   3.700   0.099   5.826 -0.7029  1.1541  0.2769
58918SOL     OW94363   6.566   7.153   4.695  0.2749 -0.4090 -0.3419
58918SOL    HW194364   6.618   7.231   4.675  0.1300  0.0303  0.9224
58918SOL    HW294365   6.475   7.179   4.678  0.3494 -0.8335 -1.4914
58919SOL     OW94366   7.757   1.074   6.338  0.2247 -0.0183 -0.4979
58919SOL    HW194367   7.720   1.150   6.383  2.3614 -0.0632  1.5303
58919SOL    HW294368   7.804   1.111   6.263  1.4840  0.7499  0.6281
58920SOL     OW94369   9.389  11.143  10.553  0.4604 -0.6917 -0.3306
58920SOL    HW194370   9.405  11.051  10.531  1.0467 -1.0244  1.3602
58920SOL    HW294371   9.296  11.156  10.532  0.7250 -1.2189 -1.9995
58921SOL     OW94372   1.465  12.506   8.283 -0.0857 -0.0783  0.0565
58921SOL    HW194373   1.437  12.428   8.331 -1.8620 -0.5085 -1.5280
58921SOL    HW294374   1.383  12.546   8.252  0.9057 -0.3062 -3.2406
58922SOL     OW94375  12.377   6.040  12.172 -0.1772 -0.2780 -0.7925
58922SOL    HW194376  12.334   5.985  12.106 -0.4359  1.9936 -2.6392
58922SOL    HW294377  12.457   5.993  12.194 -0.3959 -1.4208 -2.2683
58923SOL     OW94378  12.316   5.382   9.577 -0.3963 -0.2225  0.9321
58923SOL    HW194379  12.342   5.298   9.616  1.5009 -0.4532 -0.6648
58923SOL    HW294380  12.227   5.397   9.609 -1.3473 -3.5328  0.2421
58924SOL     OW94381   6.766  12.231   0.636 -0.4447  0.1156  0.3643
58924SOL    HW194382   6.812  12.314   0.647  1.2714 -1.0156  2.3938
58924SOL    HW294383   6.712  12.223   0.715 -0.7526 -0.6062  0.0891
58925SOL     OW94384  12.383   6.833   3.812  0.0570  0.0332  0.0601
58925SOL    HW194385  12.352   6.877   3.733  3.1844  0.2942 -1.1665
58925SOL    HW294386  12.389   6.903   3.877 -0.6883  0.2086 -0.0519
58926SOL     OW94387   1.804   5.698  13.903 -0.1353 -0.4009 -0.5246
58926SOL    HW194388   1.736   5.683  13.838 -1.3294 -2.2494  1.0566
58926SOL    HW294389   1.819   5.613  13.944  1.5738  0.4021  0.6810
58927SOL     OW94390   4.752   9.298   6.955  0.2439 -0.3842  0.4653
58927SOL    HW194391   4.837   9.334   6.929 -0.1370 -0.0128 -0.2777
58927SOL    HW294392   4.739   9.332   7.044  0.5269  0.1806  0.2951
58928SOL     OW94393   7.596   9.080  14.008 -0.6597  0.4920 -0.2082
58928SOL    HW194394   7.576   9.169  14.036 -0.6888  0.7163 -0.9223
58928SOL    HW294395   7.643   9.041  14.082  0.9958  1.7022 -0.5618
58929SOL     OW94396   4.066   1.405  12.368  0.5829  1.1594 -0.0227
58929SOL    HW194397   3.977   1.376  12.391  0.9385  0.3374  0.3407
58929SOL    HW294398   4.101   1.441  12.450  1.0593  0.2522  0.1826
58930SOL     OW94399   1.869   2.648   2.932  0.1859  0.2184 -0.3325
58930SOL    HW194400   1.793   2.684   2.979  1.0458  2.0350 -0.2489
58930SOL    HW294401   1.835   2.625   2.846 -0.1858  2.4983 -0.8626
58931SOL     OW94402  12.405  13.698   6.265 -0.2860 -0.1245  0.2584
58931SOL    HW194403  12.331  13.705   6.205 -1.9817  0.0657  2.2457
58931SOL    HW294404  12.399  13.610   6.301 -1.2086  0.7292  2.3685
58932SOL     OW94405  11.723  10.665   2.910  0.1341  0.0859 -1.1655
58932SOL    HW194406  11.803  10.626   2.875 -0.2083 -1.1238 -0.6414
58932SOL    HW294407  11.726  10.647   3.003 -2.5547 -3.5239 -1.5550
58933SOL     OW94408   6.515  11.057   7.782  0.5475 -0.1607  0.4211
58933SOL    HW194409   6.486  11.125   7.843  0.1308 -0.7093  0.8412
58933SOL    HW294410   6.456  11.066   7.707  0.5035 -0.0470  0.4694
58934SOL     OW94411   4.795   3.203   4.846 -0.3635  0.1026 -0.1452
58934SOL    HW194412   4.749   3.190   4.929 -0.6558 -0.1568 -0.3444
58934SOL    HW294413   4.781   3.296   4.826  0.5639  0.4210  0.5896
58935SOL     OW94414   8.509   2.769   7.025  0.3272  0.1460 -0.1100
58935SOL    HW194415   8.595   2.727   7.033  0.6636  0.7215 -0.5331
58935SOL    HW294416   8.500   2.785   6.931 -0.5467 -0.5128 -0.1449
58936SOL     OW94417   0.707  13.069   6.355 -0.5152 -0.5438 -0.0635
58936SOL    HW194418   0.703  13.026   6.440 -0.5165 -0.2259  0.0975
58936SOL    HW294419   0.742  13.002   6.296  0.9197 -0.2972  0.4909
58937SOL     OW94420   6.243  13.701   9.151  0.6545  0.0077  0.3376
58937SOL    HW194421   6.281  13.787   9.166  0.6765 -0.1360  1.1305
58937SOL    HW294422   6.178  13.690   9.220 -1.6153  0.6601 -1.5593
58938SOL     OW94423   9.773   4.621   9.353 -0.6351  0.1557 -0.2235
58938SOL    HW194424   9.766   4.551   9.288 -0.3243  0.3717 -0.4902
58938SOL    HW294425   9.834   4.684   9.315 -2.6575  1.7414 -1.0490
58939SOL     OW94426   0.806   2.650   8.148  0.1382 -0.3434 -0.3207
58939SOL    HW194427   0.773   2.723   8.201  0.1228  0.0396 -0.8493
58939SOL    HW294428   0.898   2.643   8.173  0.4387  0.6153 -1.1012
58940SOL     OW94429   4.123   4.025   6.224 -0.1981  0.0955  0.0487
58940SOL    HW194430   4.035   3.995   6.248 -0.2697  0.0233 -0.2981
58940SOL    HW294431   4.114   4.056   6.134  0.3720 -0.9719 -0.3974
58941SOL     OW94432   6.921  13.615   5.252  0.3976 -0.1830  0.2692
58941SOL    HW194433   6.967  13.661   5.182  0.5799  1.7738  1.6137
58941SOL    HW294434   6.837  13.590   5.212 -0.3828  2.7068 -0.1795
58942SOL     OW94435   6.640  11.666  10.299  0.2043  0.3427  0.1034
58942SOL    HW194436   6.595  11.728  10.357  1.6272  0.4756  1.1370
58942SOL    HW294437   6.645  11.585  10.350  0.5646  0.1401 -0.2518
58943SOL     OW94438   5.578   8.395   1.713 -0.1546  0.4568 -0.2862
58943SOL    HW194439   5.651   8.408   1.652  0.5635  2.0206  0.8412
58943SOL    HW294440   5.509   8.357   1.659  1.0139  0.2332 -1.6987
58944SOL     OW94441  12.124  12.984   4.174  0.7666  0.2703 -0.0922
58944SOL    HW194442  12.072  12.906   4.153  2.8445 -0.6700 -2.2002
58944SOL    HW294443  12.147  12.973   4.266  0.7084 -1.4641 -0.2358
58945SOL     OW94444  10.221   2.590   3.624  0.0183  0.0359 -0.3080
58945SOL    HW194445  10.199   2.681   3.608  1.1763  0.7424  1.7122
58945SOL    HW294446  10.281   2.567   3.552 -1.1412  0.4794 -1.4500
58946SOL     OW94447   0.806   3.404   9.225  0.0114  0.0851 -0.3573
58946SOL    HW194448   0.783   3.459   9.150  0.8761 -1.7806 -2.0675
58946SOL    HW294449   0.887   3.444   9.259  0.2502  0.2800 -1.1378
58947SOL     OW94450   7.871   2.930   6.669 -0.0392 -0.1691  0.3504
58947SOL    HW194451   7.793   2.962   6.623  0.2072 -0.3890 -0.2389
58947SOL    HW294452   7.862   2.962   6.758 -1.8777 -1.9610  0.8827
58948SOL     OW94453   9.056   3.595   1.685 -0.0543 -0.2141 -0.2558
58948SOL    HW194454   9.130   3.609   1.626 -1.6136  0.9134 -2.0546
58948SOL    HW294455   9.023   3.508   1.663  0.1071 -0.2936 -0.1832
58949SOL     OW94456   5.102  11.513   4.348  0.2957  0.6200 -0.3825
58949SOL    HW194457   5.064  11.428   4.326 -1.3247  1.6173 -1.6985
58949SOL    HW294458   5.149  11.498   4.430  0.5357 -1.6548 -0.8741
58950SOL     OW94459   3.703  12.971  11.141  0.1885 -0.2803  0.1580
58950SOL    HW194460   3.615  13.002  11.162 -0.0393 -0.4722 -0.4952
58950SOL    HW294461   3.715  12.992  11.048  0.3193 -1.4265 -0.1024
58951SOL     OW94462   7.725   6.840  13.683  0.4103  0.0985 -0.7649
58951SOL    HW194463   7.632   6.840  13.663  0.0002  1.2110  0.9603
58951SOL    HW294464   7.751   6.748  13.674 -1.0330 -0.3667 -0.4452
58952SOL     OW94465   9.928   8.840   1.856 -0.5741 -0.4460 -0.0856
58952SOL    HW194466   9.999   8.895   1.823  0.5983 -2.0137 -0.2445
58952SOL    HW294467   9.933   8.760   1.804 -2.5255 -0.5681 -0.1507
58953SOL     OW94468   0.563   5.013   2.301 -0.2078 -0.7936 -0.1591
58953SOL    HW194469   0.584   5.041   2.390  1.7385 -0.0914 -0.7906
58953SOL    HW294470   0.468   5.005   2.300 -0.1976 -1.8814  2.2763
58954SOL     OW94471  11.770  12.624   7.235 -0.1365  0.0268 -0.1309
58954SOL    HW194472  11.724  12.540   7.226 -0.2876  0.1042 -0.0972
58954SOL    HW294473  11.741  12.658   7.320  0.6045 -0.2942  0.2532
58955SOL     OW94474   2.818   7.407  12.701 -0.2981 -0.2626  0.4410
58955SOL    HW194475   2.745   7.416  12.641 -0.6805 -0.4841  0.8685
58955SOL    HW294476   2.869   7.334  12.665 -0.1479  0.0518  0.0072
58956SOL     OW94477   3.149   2.845   5.783 -0.2822 -0.0467 -0.3959
58956SOL    HW194478   3.199   2.842   5.865 -1.4190 -1.9794  0.2845
58956SOL    HW294479   3.185   2.774   5.731 -1.9986 -1.2387 -0.0422
58957SOL     OW94480  11.307  12.774   2.490 -0.1370  0.4968  0.0179
58957SOL    HW194481  11.290  12.851   2.543 -0.1429  0.8352 -0.4700
58957SOL    HW294482  11.300  12.805   2.399 -0.3640 -0.1237 -0.1803
58958SOL     OW94483   8.159   8.708   5.592 -0.4264  0.0901  0.1398
58958SOL    HW194484   8.232   8.680   5.648 -0.4145  1.3497  0.7935
58958SOL    HW294485   8.101   8.757   5.650  0.4310  2.9250 -1.1979
58959SOL     OW94486   0.768   2.277   4.826  0.9532 -0.6163  0.6242
58959SOL    HW194487   0.743   2.223   4.901 -1.6665 -2.1006 -1.1234
58959SOL    HW294488   0.724   2.360   4.840 -0.7828 -1.3982  0.1187
58960SOL     OW94489   6.965   5.796   0.017 -0.1431 -0.5620  0.1670
58960SOL    HW194490   6.987   5.870   0.073  0.1009 -2.2164  2.3932
58960SOL    HW294491   6.952   5.834  -0.070  1.7036  1.8226  0.8457
58961SOL     OW94492   0.666  11.766   1.853  0.6395 -0.3685  0.4636
58961SOL    HW194493   0.641  11.816   1.775  1.9240 -1.1380 -0.4948
58961SOL    HW294494   0.762  11.770   1.854  0.7973 -2.7809  0.3281
58962SOL     OW94495   7.209   2.318   1.712  0.4544  0.4945  0.0598
58962SOL    HW194496   7.270   2.275   1.652  1.1264  0.7030  0.5766
58962SOL    HW294497   7.255   2.397   1.740 -0.2602  0.9082  0.0737
58963SOL     OW94498  13.099   9.785  11.425  0.0399 -0.7048 -0.1790
58963SOL    HW194499  13.067   9.800  11.336 -0.2326  1.2302  0.1859
58963SOL    HW294500  13.020   9.784  11.478  0.2632 -0.9118  0.1487
58964SOL     OW94501  10.523   9.226   8.570 -0.1547 -0.5952  0.4116
58964SOL    HW194502  10.439   9.185   8.555  0.9235 -2.4355 -1.0770
58964SOL    HW294503  10.571   9.214   8.487  1.1917  1.3380  0.8303
58965SOL     OW94504  11.928  13.959   9.110 -0.2995  0.2079 -0.0627
58965SOL    HW194505  11.956  14.032   9.165  0.9376 -1.3157  1.4586
58965SOL    HW294506  11.938  13.882   9.166 -0.5166 -1.2662 -1.9457
58966SOL     OW94507  12.160   1.458   7.110 -0.0559 -0.6173  0.0116
58966SOL    HW194508  12.228   1.419   7.054  0.3604 -0.7048  0.5671
58966SOL    HW294509  12.189   1.548   7.124 -1.0027 -0.0896 -1.2444
58967SOL     OW94510  11.635   8.335   6.718 -0.2206 -0.2502  0.2658
58967SOL    HW194511  11.592   8.255   6.747 -1.6766 -0.1919 -1.6127
58967SOL    HW294512  11.623   8.337   6.624  0.2624  1.9178  0.1942
58968SOL     OW94513  12.175   6.176   2.031 -0.0672 -0.0835 -0.0433
58968SOL    HW194514  12.198   6.097   1.983 -2.0169 -1.0889  0.5774
58968SOL    HW294515  12.229   6.173   2.110 -0.4223 -1.0278  0.1744
58969SOL     OW94516   2.433  12.515   2.050 -0.1303 -0.2200  0.2692
58969SOL    HW194517   2.398  12.531   2.137 -0.6958 -1.6633  0.3323
58969SOL    HW294518   2.395  12.431   2.023  2.2140 -1.2200 -0.1990
58970SOL     OW94519   3.646   8.298   8.552 -0.6355 -0.3009  0.3664
58970SOL    HW194520   3.740   8.309   8.564 -0.7902  1.9188 -0.0303
58970SOL    HW294521   3.634   8.291   8.457 -0.8720 -0.5289  0.4106
58971SOL     OW94522   5.444  12.790   8.891 -0.3864  0.1002 -0.2765
58971SOL    HW194523   5.394  12.871   8.896 -1.1234 -0.4011  0.7131
58971SOL    HW294524   5.510  12.797   8.960  0.8527  0.6968 -1.4831
58972SOL     OW94525   0.242  12.642  10.766  0.0066 -0.1671  0.1050
58972SOL    HW194526   0.317  12.591  10.797 -0.5403 -0.5002  0.9166
58972SOL    HW294527   0.225  12.704  10.837 -0.4332 -0.0443 -0.1029
58973SOL     OW94528   8.545   6.626   3.569 -0.9038 -0.3633  0.7174
58973SOL    HW194529   8.513   6.536   3.580 -1.4830 -0.5654 -1.9309
58973SOL    HW294530   8.632   6.615   3.530 -1.3316  0.1950 -0.4332
58974SOL     OW94531   2.109  10.210   1.829  0.0958  0.3780  0.0012
58974SOL    HW194532   2.199  10.179   1.842 -0.4238 -0.8653  0.8016
58974SOL    HW294533   2.101  10.220   1.734  0.6872 -0.8078 -0.1993
58975SOL     OW94534   6.009   2.392   7.827 -0.0855 -0.0345  0.3214
58975SOL    HW194535   6.056   2.471   7.857 -0.0112 -0.0733  0.3069
58975SOL    HW294536   5.976   2.353   7.908  1.4165 -0.9785  0.5204
58976SOL     OW94537  11.876  13.438   3.651  0.0841 -0.5693 -0.2293
58976SOL    HW194538  11.912  13.351   3.668  0.3782 -0.4255 -0.1117
58976SOL    HW294539  11.863  13.441   3.556 -0.1503 -0.8278 -0.2044
58977SOL     OW94540   0.383   7.105  13.725  0.0318  0.1697  0.4579
58977SOL    HW194541   0.297   7.066  13.709 -0.1585  0.6165  0.3717
58977SOL    HW294542   0.401   7.156  13.646 -0.2355  1.1701  1.0207
58978SOL     OW94543  11.806   2.169  13.831 -0.1517  0.3374  0.2424
58978SOL    HW194544  11.852   2.085  13.834 -0.7030 -0.0562 -1.2404
58978SOL    HW294545  11.871   2.232  13.801  0.1517  0.3739  0.9503
58979SOL     OW94546   6.544   6.241   0.747 -0.5640  0.0089 -0.2676
58979SOL    HW194547   6.498   6.165   0.784 -0.3923  0.0242 -0.0174
58979SOL    HW294548   6.519   6.314   0.804  0.1781 -0.0817  0.1850
58980SOL     OW94549   1.464   5.624   4.646  0.6545 -0.3354  0.0536
58980SOL    HW194550   1.457   5.529   4.639  1.5915 -0.4645  0.7117
58980SOL    HW294551   1.445   5.656   4.558 -0.8366 -1.0444  0.0743
58981SOL     OW94552   1.124  13.907   9.250 -0.2739  0.7441 -0.4047
58981SOL    HW194553   1.203  13.951   9.282  0.5216 -1.0832  0.2650
58981SOL    HW294554   1.058  13.926   9.316  0.4206 -0.1127  0.5704
58982SOL     OW94555   2.888   3.817   7.787  0.0286  0.1203  0.0072
58982SOL    HW194556   2.983   3.827   7.788  0.1518 -0.7164 -1.2933
58982SOL    HW294557   2.865   3.797   7.878  1.1477 -0.1436  0.2492
58983SOL     OW94558  12.555  13.373   0.130 -0.5001  0.2337 -0.3864
58983SOL    HW194559  12.594  13.425   0.060  2.3386  0.3950  1.1476
58983SOL    HW294560  12.602  13.400   0.209 -1.2774 -2.2228  1.0402
58984SOL     OW94561   6.209   5.800   2.018  0.5908  0.6884  0.0864
58984SOL    HW194562   6.228   5.870   2.080  1.6206 -0.9677  1.7461
58984SOL    HW294563   6.289   5.793   1.965  0.0474  1.5051 -0.8728
58985SOL     OW94564   2.901   1.867   7.178 -0.1364 -0.2119  0.0599
58985SOL    HW194565   2.864   1.841   7.093  0.7255 -1.7708  0.1218
58985SOL    HW294566   2.992   1.840   7.174  0.4275  1.4424  0.7954
58986SOL     OW94567   9.814   0.091  12.126 -0.2016 -0.1052 -0.4159
58986SOL    HW194568   9.889   0.092  12.066 -1.5159 -0.1183 -2.1647
58986SOL    HW294569   9.803   0.183  12.151  0.6080 -0.1556  0.1341
58987SOL     OW94570   5.173   7.238  14.060  0.5878 -0.3010 -0.6907
58987SOL    HW194571   5.170   7.162  14.002 -0.8262  0.2215 -1.3315
58987SOL    HW294572   5.177   7.313  14.002 -1.2852  0.2514 -0.1699
58988SOL     OW94573   3.468  13.156   6.304 -0.5733 -0.3497  0.7892
58988SOL    HW194574   3.548  13.130   6.348 -0.1171 -0.6531 -0.1865
58988SOL    HW294575   3.497  13.182   6.216 -1.7019 -1.7959 -0.0500
58989SOL     OW94576  11.687   6.703  10.677 -0.1176 -0.1051 -0.4480
58989SOL    HW194577  11.752   6.772  10.687 -0.4153 -0.0251  1.0900
58989SOL    HW294578  11.712   6.635  10.740 -1.7502  0.1269  0.5218
58990SOL     OW94579   2.855   7.765   6.127  0.1129  0.5012  0.3266
58990SOL    HW194580   2.885   7.826   6.060 -0.5913  0.4232 -0.0712
58990SOL    HW294581   2.935   7.729   6.164  0.5203  0.4560 -0.5642
58991SOL     OW94582  13.122   2.535   9.215 -0.1846  0.3341  0.0793
58991SOL    HW194583  13.151   2.475   9.284 -0.3089  0.2857  0.0909
58991SOL    HW294584  13.028   2.546   9.232 -0.2125  0.3323 -0.0744
58992SOL     OW94585   6.086  10.920  13.716 -1.1377  0.0186  0.0286
58992SOL    HW194586   6.099  11.011  13.743 -1.1927 -0.2678  1.0589
58992SOL    HW294587   6.173  10.889  13.690 -0.3410 -0.7061  3.1435
58993SOL     OW94588   9.451  11.765   6.138  0.0223 -0.4411  0.0929
58993SOL    HW194589   9.493  11.848   6.162  0.8031 -1.2777  1.8506
58993SOL    HW294590   9.438  11.720   6.221 -3.5770 -0.6869 -0.4415
58994SOL     OW94591  13.378   6.015   5.934 -0.2381  0.5122  0.0535
58994SOL    HW194592  13.350   6.105   5.953  2.4221  1.6863 -1.0733
58994SOL    HW294593  13.336   5.993   5.852 -2.3903 -0.0644  1.2400
58995SOL     OW94594   1.706   6.495   9.580 -0.0214 -0.1039  0.0017
58995SOL    HW194595   1.673   6.509   9.669 -1.5980  0.6186 -0.6623
58995SOL    HW294596   1.633   6.519   9.523  0.2787 -2.3383 -1.4791
58996SOL     OW94597   7.070   0.661   8.399 -0.1001  0.6597  0.0020
58996SOL    HW194598   7.050   0.754   8.402 -0.4060  0.7846 -2.9024
58996SOL    HW294599   7.012   0.626   8.331  2.4029 -0.9153 -1.4980
58997SOL     OW94600   5.867   0.649   6.509 -0.0018  0.3863  0.1546
58997SOL    HW194601   5.879   0.580   6.575 -1.0881 -0.3462 -0.3736
58997SOL    HW294602   5.948   0.649   6.459  0.4523  0.2815  0.8813
58998SOL     OW94603   7.846  10.103  13.076  0.2942  0.1263  0.1121
58998SOL    HW194604   7.890  10.037  13.023 -0.1640 -0.0118 -0.1075
58998SOL    HW294605   7.808  10.163  13.013 -1.6168 -0.9084  0.1744
58999SOL     OW94606  12.555   6.321   5.332  0.2647  0.4142  0.1038
58999SOL    HW194607  12.470   6.325   5.289 -0.0844  1.3805  0.8398
58999SOL    HW294608  12.549   6.385   5.404  0.9761 -0.8105  1.3105
59000SOL     OW94609  10.496   8.439   2.239 -0.6442 -0.3244 -0.0487
59000SOL    HW194610  10.436   8.418   2.168 -0.6176 -0.4430 -0.0356
59000SOL    HW294611  10.579   8.400   2.213 -0.8710 -1.1886  0.4869
59001SOL     OW94612  10.958  12.822  10.173 -0.1217 -0.3868 -0.2554
59001SOL    HW194613  10.898  12.856  10.107 -1.4727 -1.8862  0.1434
59001SOL    HW294614  10.927  12.860  10.255  0.0414 -0.4512 -0.1648
59002SOL     OW94615  10.288   2.157   8.302  0.1387 -0.2982 -0.0548
59002SOL    HW194616  10.299   2.117   8.216 -0.4297 -0.5044 -0.0351
59002SOL    HW294617  10.368   2.134   8.350  0.1065 -0.8533 -0.2605
59003SOL     OW94618   4.974   3.050   5.094  0.2892  0.4672  0.2946
59003SOL    HW194619   4.979   3.039   5.189  0.6533  0.2959  0.2576
59003SOL    HW294620   4.979   3.145   5.081 -1.0633  0.5921  0.5138
59004SOL     OW94621   4.198   1.686   9.572 -0.3172 -0.5046 -0.2668
59004SOL    HW194622   4.121   1.630   9.574 -2.6253  2.2479 -2.6543
59004SOL    HW294623   4.164   1.774   9.589  2.6963  0.5967  0.7328
59005SOL     OW94624   5.884  12.385   6.472 -0.3662 -0.2461 -0.4021
59005SOL    HW194625   5.838  12.469   6.462 -0.2449  0.0130  0.9720
59005SOL    HW294626   5.935  12.395   6.552  0.4004 -1.3102 -0.7300
59006SOL     OW94627   3.988   5.912   6.587 -0.0671  0.4271 -0.1604
59006SOL    HW194628   4.059   5.864   6.630 -0.6889  0.0022  0.3960
59006SOL    HW294629   3.945   5.846   6.532  0.8983  1.0161 -1.7151
59007SOL     OW94630   3.129  12.793   4.682 -0.1138  0.3864 -0.0054
59007SOL    HW194631   3.122  12.748   4.598 -0.4326 -0.3386  0.3955
59007SOL    HW294632   3.134  12.886   4.660 -1.9285  0.3349 -0.7541
59008SOL     OW94633   0.490  10.551   9.503 -0.1741 -0.2452  0.0246
59008SOL    HW194634   0.450  10.483   9.557 -2.8076 -0.5924 -2.1421
59008SOL    HW294635   0.545  10.502   9.440  0.9191 -0.0227  0.7725
59009SOL     OW94636   2.284  11.018   3.606  0.2345  0.1979 -0.5753
59009SOL    HW194637   2.339  10.946   3.639  2.4487  1.3274 -1.5633
59009SOL    HW294638   2.280  11.080   3.678 -0.2925 -0.1597 -0.2900
59010SOL     OW94639   3.460  10.062   1.451  0.2062 -0.4670 -0.3780
59010SOL    HW194640   3.497  10.108   1.526 -0.4377 -0.6312  0.0451
59010SOL    HW294641   3.382  10.019   1.485 -2.1219  2.2682 -1.8451
59011SOL     OW94642   2.583   4.888  10.637 -0.0584  0.0414 -0.2037
59011SOL    HW194643   2.554   4.957  10.577 -1.1025 -0.5481 -0.3909
59011SOL    HW294644   2.510   4.876  10.697  0.2298 -0.7032  0.0072
59012SOL     OW94645   5.274   8.842  12.231 -0.2309 -0.2905 -0.2972
59012SOL    HW194646   5.330   8.919  12.224  1.5476 -1.5513 -0.7659
59012SOL    HW294647   5.296   8.804  12.316 -1.2845 -0.1595  0.0431
59013SOL     OW94648   9.258   2.148   8.520 -0.2957  0.0029 -0.2674
59013SOL    HW194649   9.253   2.120   8.429 -1.4933  0.9239 -0.5136
59013SOL    HW294650   9.167   2.164   8.545  0.1590  2.0207  0.3409
59014SOL     OW94651   3.279   7.975  10.691 -0.0063 -0.2903 -0.4983
59014SOL    HW194652   3.321   7.891  10.710  1.2735  0.4697  0.2469
59014SOL    HW294653   3.294   7.989  10.598 -2.3423 -1.9623 -1.2066
59015SOL     OW94654  13.216   0.522   4.430 -0.0316  0.2425  0.3774
59015SOL    HW194655  13.122   0.527   4.416  0.1532  0.5840 -0.8177
59015SOL    HW294656  13.252   0.597   4.383  1.0585 -1.3423 -1.5051
59016SOL     OW94657  13.856   1.251  11.757  0.0146  0.1122  0.1383
59016SOL    HW194658  13.878   1.313  11.688  0.6765 -1.1270 -0.8169
59016SOL    HW294659  13.817   1.176  11.711  0.1554 -0.6029  1.1345
59017SOL     OW94660   5.099   8.595   3.978  0.0196  0.2389 -0.4710
59017SOL    HW194661   5.111   8.501   3.992  0.2935  0.3434 -0.0118
59017SOL    HW294662   5.184   8.625   3.947  0.0678  0.4274 -0.1486
59018SOL     OW94663   5.447   2.197   8.794 -0.2087 -0.0083  0.6183
59018SOL    HW194664   5.499   2.157   8.864 -0.1396  0.2657  0.7243
59018SOL    HW294665   5.396   2.124   8.758  0.8207 -0.4429 -0.0077
59019SOL     OW94666   2.459   0.088   4.089  0.2357  0.7683 -0.4905
59019SOL    HW194667   2.438   0.054   4.176  2.7282  1.3175  0.3826
59019SOL    HW294668   2.451   0.011   4.032 -0.1460  0.1048  0.4177
59020SOL     OW94669  10.351   5.960   8.047 -0.1715 -0.1288 -0.3311
59020SOL    HW194670  10.284   5.981   7.983  0.4286  0.6684 -0.7061
59020SOL    HW294671  10.432   5.995   8.011 -0.2818  3.4019  2.3056
59021SOL     OW94672   5.035   3.359   9.517  0.1166 -0.2046  0.1781
59021SOL    HW194673   5.032   3.417   9.594 -2.3937 -0.4106  0.3236
59021SOL    HW294674   4.961   3.299   9.530 -0.7914  0.1630 -2.7054
59022SOL     OW94675   8.648   7.050   8.686 -0.2945 -0.0729  0.1046
59022SOL    HW194676   8.594   7.128   8.702 -0.0091  0.3938 -1.1225
59022SOL    HW294677   8.588   6.987   8.647  0.0813  0.5661 -1.5787
59023SOL     OW94678  10.750   3.575  13.999  0.2588  0.1883  0.1077
59023SOL    HW194679  10.765   3.617  13.914  0.3513  0.6457  0.3439
59023SOL    HW294680  10.836   3.540  14.024  0.3044  0.3382  0.1622
59024SOL     OW94681   1.706   4.817   4.806 -0.7342  0.2743  0.9450
59024SOL    HW194682   1.770   4.855   4.867  1.0054 -1.2926  0.1950
59024SOL    HW294683   1.759   4.789   4.731 -2.1502 -1.9714  0.7097
59025SOL     OW94684   0.606  11.050   8.305 -0.2020  0.0164  0.0014
59025SOL    HW194685   0.653  11.052   8.221  0.9133 -0.1671  0.6025
59025SOL    HW294686   0.624  11.135   8.344 -0.0835 -0.1898  0.3967
59026SOL     OW94687   3.100   9.618   3.635  0.0147 -0.1439  0.0391
59026SOL    HW194688   3.084   9.530   3.599 -0.3076 -0.4380  0.8763
59026SOL    HW294689   3.183   9.609   3.683 -0.1840 -0.0749  0.3944
59027SOL     OW94690   1.051   3.627   5.623  0.0870 -0.2134 -0.2509
59027SOL    HW194691   1.059   3.532   5.617  1.9135 -0.1405  0.2215
59027SOL    HW294692   0.991   3.642   5.696  1.6318 -1.0655  1.2877
59028SOL     OW94693   0.712   2.244  11.961 -0.2012 -0.0234  0.1467
59028SOL    HW194694   0.806   2.245  11.943 -0.0193 -1.3254  0.8562
59028SOL    HW294695   0.697   2.321  12.015  0.6548 -0.3225  0.8333
59029SOL     OW94696   8.396   1.988   2.986  0.8916  0.5241 -0.0924
59029SOL    HW194697   8.302   1.972   3.001  0.7695  2.1324  1.1077
59029SOL    HW294698   8.440   1.929   3.046  0.6589 -0.0214 -0.4444
59030SOL     OW94699   2.343   1.513  10.546 -0.3889 -0.5319 -0.2498
59030SOL    HW194700   2.358   1.440  10.486 -0.6254 -1.6272  0.9923
59030SOL    HW294701   2.353   1.591  10.491 -2.6742 -1.5044 -2.2215
59031SOL     OW94702  13.266  13.516   7.437  0.2922  0.5272 -0.1310
59031SOL    HW194703  13.242  13.513   7.344  1.1943 -0.7715 -0.3469
59031SOL    HW294704  13.299  13.605   7.450  2.2272  0.0944 -1.6211
59032SOL     OW94705   9.824   3.367   7.204 -0.6953 -0.3462  0.2855
59032SOL    HW194706   9.907   3.391   7.245 -0.0628  0.4116 -1.3284
59032SOL    HW294707   9.777   3.317   7.270  0.6372  0.0572  1.5755
59033SOL     OW94708  10.225  13.873  14.003 -0.3215 -0.0753  0.0793
59033SOL    HW194709  10.134  13.883  13.973  0.1614  0.6055 -1.2361
59033SOL    HW294710  10.239  13.779  14.005 -0.7449 -0.1750 -0.7759
59034SOL     OW94711   2.315   0.048   4.323 -0.5897 -0.1054  0.5190
59034SOL    HW194712   2.293   0.141   4.323  0.0753  0.0576  0.4876
59034SOL    HW294713   2.353   0.033   4.410 -2.0476 -0.6875  1.0953
59035SOL     OW94714   3.059  13.335  12.232  0.0548  0.1397  0.1606
59035SOL    HW194715   3.046  13.398  12.162 -2.0972 -0.7946 -0.3543
59035SOL    HW294716   3.071  13.251  12.187 -0.0500 -0.2734  0.8870
59036SOL     OW94717   6.250   9.015   0.948 -0.2030 -0.4869  0.1340
59036SOL    HW194718   6.243   8.935   0.896 -1.3354 -0.5831  0.4163
59036SOL    HW294719   6.167   9.021   0.994 -0.6919  1.5705 -0.9059
59037SOL     OW94720  10.820   0.986   2.658  0.4831 -0.0370  0.1672
59037SOL    HW194721  10.822   1.075   2.693 -0.1292  1.1002 -2.4290
59037SOL    HW294722  10.767   0.937   2.721 -1.6164  2.1515  0.2729
59038SOL     OW94723   0.720   8.631   4.475 -0.0735  0.0363 -0.5146
59038SOL    HW194724   0.723   8.561   4.411 -1.9248  0.3606 -0.9920
59038SOL    HW294725   0.631   8.666   4.470  0.2606  1.2370  0.9802
59039SOL     OW94726   2.512   2.496   9.221  0.1030 -0.0579 -0.3956
59039SOL    HW194727   2.456   2.436   9.171  0.8953 -2.3081  1.2241
59039SOL    HW294728   2.596   2.494   9.176  0.7190 -1.8232  0.7413
59040SOL     OW94729   3.856   6.125  11.765  0.2941 -0.5091 -0.6702
59040SOL    HW194730   3.943   6.158  11.790  0.4385 -1.1658 -0.2804
59040SOL    HW294731   3.803   6.135  11.844 -0.2802  0.8322 -1.1989
59041SOL     OW94732   2.535  10.351  11.684 -0.0035  0.1614 -0.2142
59041SOL    HW194733   2.491  10.285  11.631  1.7449  1.1604 -3.1058
59041SOL    HW294734   2.567  10.415  11.622  2.2030  1.4648  2.0758
59042SOL     OW94735  12.156   7.845   5.929  0.1904 -0.0300 -0.1415
59042SOL    HW194736  12.086   7.885   5.878  1.3700  0.5948 -1.3726
59042SOL    HW294737  12.207   7.919   5.962  0.8768 -0.4599 -0.1919
59043SOL     OW94738   7.210   4.231   6.658  0.3580  0.0118  0.0522
59043SOL    HW194739   7.154   4.254   6.584  0.1208 -0.9973 -0.0943
59043SOL    HW294740   7.298   4.223   6.620  0.0906 -1.4056 -0.3190
59044SOL     OW94741   8.333  10.700   6.241  0.5452 -0.1488  0.0413
59044SOL    HW194742   8.300  10.782   6.276  1.5301  1.0327 -1.6391
59044SOL    HW294743   8.428  10.714   6.231  0.7267 -1.4677 -0.3302
59045SOL     OW94744   5.237   4.986   0.082 -0.3276  0.2000  0.1330
59045SOL    HW194745   5.150   4.976   0.121 -0.0709 -0.6556  0.5224
59045SOL    HW294746   5.291   4.923   0.129  0.0968 -0.5607 -1.3166
59046SOL     OW94747   7.346   6.913   7.674 -0.2805 -0.4710 -0.4061
59046SOL    HW194748   7.292   6.834   7.681  0.5960 -1.3181 -2.3340
59046SOL    HW294749   7.410   6.905   7.745 -0.9500 -0.8731  0.1628
59047SOL     OW94750   7.988  10.898  11.237  0.2236 -0.2627  0.1537
59047SOL    HW194751   7.957  10.911  11.148 -0.4215  2.0610  0.6445
59047SOL    HW294752   8.034  10.979  11.258 -0.9598 -0.1141  2.4524
59048SOL     OW94753   9.330  10.821   1.194  0.0924  0.2132  0.1814
59048SOL    HW194754   9.356  10.802   1.104  2.9044  1.0454  0.7350
59048SOL    HW294755   9.296  10.910   1.190 -0.5113 -0.0260 -0.1648
59049SOL     OW94756   0.305   4.784  13.043  0.0811  0.0849 -0.0222
59049SOL    HW194757   0.315   4.835  13.124 -0.1391 -0.6083  0.4585
59049SOL    HW294758   0.260   4.843  12.983  0.3625  0.6575  0.3139
59050SOL     OW94759   6.688   4.877   2.344 -0.0451  0.2955  0.6456
59050SOL    HW194760   6.648   4.843   2.263 -0.6898  1.8363  0.2736
59050SOL    HW294761   6.614   4.902   2.398  0.3910  1.5564  0.6842
59051SOL     OW94762  11.670  12.204   4.418  0.1558 -0.2723 -0.0032
59051SOL    HW194763  11.704  12.150   4.490 -2.0358 -0.2299  1.1262
59051SOL    HW294764  11.736  12.272   4.407  0.3063  0.0659  2.3854
59052SOL     OW94765   3.910  13.175   1.527  0.0631  0.0437  0.2696
59052SOL    HW194766   3.954  13.188   1.612  1.1488  0.7003 -0.3609
59052SOL    HW294767   3.832  13.125   1.548  0.5632 -0.2339  1.6022
59053SOL     OW94768   0.562   6.693   2.758  0.0167 -0.9863  0.0307
59053SOL    HW194769   0.649   6.662   2.784  0.5063  0.4038  0.1316
59053SOL    HW294770   0.577   6.783   2.730 -0.9316 -1.5178 -2.4993
59054SOL     OW94771  10.900   0.486   6.262 -0.1858 -0.3924 -1.1387
59054SOL    HW194772  10.959   0.412   6.279 -1.6353 -1.1873  0.7978
59054SOL    HW294773  10.928   0.554   6.323  0.9242  0.6041 -2.6817
59055SOL     OW94774   1.208   6.025   9.682 -0.1857 -0.3518  0.1347
59055SOL    HW194775   1.189   5.995   9.594 -0.3875  1.1376 -0.3577
59055SOL    HW294776   1.203   6.120   9.677  2.7646 -0.0479  1.0475
59056SOL     OW94777   3.319   3.293  11.607 -0.3113  0.2498  0.2822
59056SOL    HW194778   3.278   3.262  11.687  0.0283 -2.4635 -0.4884
59056SOL    HW294779   3.411   3.269  11.616 -0.0013  1.1385 -0.3601
59057SOL     OW94780  10.591   9.124   4.837 -0.7024  0.3263 -0.1341
59057SOL    HW194781  10.685   9.140   4.839 -0.6613  0.0051  1.5045
59057SOL    HW294782  10.578   9.069   4.759  0.8164 -1.6598  0.9219
59058SOL     OW94783   5.956   2.576   3.186 -0.1762  0.1423  0.6250
59058SOL    HW194784   5.861   2.574   3.199 -0.2568 -0.3583 -0.0008
59058SOL    HW294785   5.968   2.571   3.091  0.4463  1.7515  0.5926
59059SOL     OW94786   8.390  11.021   9.264 -0.0407  0.6855  0.3809
59059SOL    HW194787   8.445  11.024   9.342  0.8335  1.9919 -0.2670
59059SOL    HW294788   8.389  10.928   9.239  0.0333  0.3253  1.6680
59060SOL     OW94789  12.405   8.801   3.967 -0.0628  0.6131  0.3048
59060SOL    HW194790  12.442   8.714   3.979 -0.4748  0.3633 -0.2226
59060SOL    HW294791  12.369   8.801   3.879  0.1709  1.4112  0.1987
59061SOL     OW94792   5.804   6.135   2.561  0.5817  0.0900  0.1753
59061SOL    HW194793   5.881   6.106   2.609  1.6931 -0.5392 -1.8697
59061SOL    HW294794   5.769   6.055   2.522 -0.9845  0.4124  0.8401
59062SOL     OW94795  10.973   6.631  12.361 -0.3218 -0.2984  0.3345
59062SOL    HW194796  10.906   6.651  12.426 -2.2228  1.5681 -1.9638
59062SOL    HW294797  11.052   6.613  12.411 -2.0796 -0.7823  3.1409
59063SOL     OW94798   5.909   5.137  10.956  0.7219 -0.0372  0.0721
59063SOL    HW194799   5.969   5.067  10.933 -0.1349 -0.3851 -1.2744
59063SOL    HW294800   5.949   5.216  10.920  1.9665  0.2958  2.0880
59064SOL     OW94801   6.049  13.805   8.541 -0.4782 -0.4858  0.7553
59064SOL    HW194802   6.053  13.840   8.630 -2.5260 -0.7127  0.9791
59064SOL    HW294803   5.980  13.855   8.498  0.1075 -0.7625 -0.5457
59065SOL     OW94804   3.436  10.754  13.597  0.2717 -0.4219  0.5576
59065SOL    HW194805   3.348  10.729  13.624  0.3376 -2.0013 -0.5269
59065SOL    HW294806   3.431  10.757  13.501  0.8329  1.8018  0.5351
59066SOL     OW94807   1.515   9.068   9.139  0.2905  0.4793  0.1087
59066SOL    HW194808   1.497   9.145   9.195 -0.7757  0.0752  0.3404
59066SOL    HW294809   1.503   8.993   9.198  2.6977  0.1394  0.2620
59067SOL     OW94810   1.057   1.959  10.232  1.1362  0.3852 -0.4772
59067SOL    HW194811   1.146   1.925  10.232  0.5839 -1.2393  1.6004
59067SOL    HW294812   1.067   2.051  10.255  2.3365  0.5413 -1.5055
59068SOL     OW94813  10.382   4.380   5.434 -0.3355  0.2419 -0.9111
59068SOL    HW194814  10.400   4.298   5.480  0.2486  0.8840  0.0436
59068SOL    HW294815  10.311   4.359   5.373 -0.7064 -0.7798 -0.1484
59069SOL     OW94816   2.898   1.899   5.145  0.3300  0.3638 -0.1626
59069SOL    HW194817   2.946   1.982   5.138 -0.2179  0.9049  1.7843
59069SOL    HW294818   2.831   1.916   5.211  1.7528 -2.3109  2.1767
59070SOL     OW94819  11.623  13.388   8.782 -0.4000 -0.1613 -0.3626
59070SOL    HW194820  11.532  13.414   8.795 -0.1562  0.6126 -0.1168
59070SOL    HW294821  11.642  13.330   8.856 -0.4131  0.4621  0.1400
59071SOL     OW94822  11.615   9.109   7.060 -0.0722  0.0213 -0.4190
59071SOL    HW194823  11.640   9.067   6.978 -0.2188  0.7919 -0.8713
59071SOL    HW294824  11.652   9.054   7.128  1.0486  0.0020 -1.0267
59072SOL     OW94825   0.205   2.632  10.374 -0.4577  0.1938 -0.0603
59072SOL    HW194826   0.193   2.677  10.458 -2.1949 -0.3129 -0.0061
59072SOL    HW294827   0.264   2.559  10.394  0.0754  0.7532  0.4600
59073SOL     OW94828  11.415   2.060   4.182  0.2786 -0.3189 -0.1220
59073SOL    HW194829  11.414   2.076   4.276  1.9960 -2.3584  0.3289
59073SOL    HW294830  11.485   1.996   4.169 -1.3138 -1.7443 -2.5161
59074SOL     OW94831  10.335   8.943  12.102 -0.7307  0.4635  0.2324
59074SOL    HW194832  10.256   8.895  12.126 -0.6648  0.4975  0.5243
59074SOL    HW294833  10.348   8.923  12.009 -0.5911 -0.2463  0.3962
59075SOL     OW94834   1.223  12.140   6.695 -0.7442  0.2157 -0.1537
59075SOL    HW194835   1.291  12.206   6.696  0.6484 -1.1564  0.1022
59075SOL    HW294836   1.245  12.084   6.620 -0.2967 -1.4770  1.1737
59076SOL     OW94837   4.099   9.288   5.465  0.0564 -0.3258 -0.5722
59076SOL    HW194838   4.047   9.361   5.432 -0.0758 -0.5446 -0.8573
59076SOL    HW294839   4.123   9.239   5.386  0.2924 -0.4911 -0.3984
59077SOL     OW94840   8.649   0.944  12.528  0.1520 -0.3100 -0.0342
59077SOL    HW194841   8.615   0.858  12.549  0.8570 -0.8209 -0.9484
59077SOL    HW294842   8.743   0.931  12.515  0.3657  0.6902  0.3260
59078SOL     OW94843   5.510  10.303   0.831 -0.2364 -0.2617  0.5589
59078SOL    HW194844   5.537  10.243   0.900 -0.5161 -0.1708  0.7466
59078SOL    HW294845   5.443  10.358   0.871  0.0967  0.2494  0.4253
59079SOL     OW94846   2.800   2.048   6.371 -0.1848  0.4174 -0.4266
59079SOL    HW194847   2.770   2.102   6.444 -0.1703 -0.8615  0.5763
59079SOL    HW294848   2.888   2.020   6.396 -0.1036  0.1208 -1.0241
59080SOL     OW94849  11.019  13.735  12.420  0.5012  0.1172 -0.0895
59080SOL    HW194850  11.055  13.713  12.334 -0.4590 -0.1991 -0.4196
59080SOL    HW294851  10.933  13.694  12.422 -0.0619  1.2697  0.4951
59081SOL     OW94852   1.430   1.805   0.550 -0.1282 -0.0344  0.0749
59081SOL    HW194853   1.519   1.793   0.584  1.2847 -0.6794 -3.4676
59081SOL    HW294854   1.400   1.716   0.530 -0.6534  0.3326 -0.8445
59082SOL     OW94855   1.489   7.976   1.083  0.2148 -0.2187  0.1212
59082SOL    HW194856   1.398   7.990   1.057  0.8511  0.0052 -2.2599
59082SOL    HW294857   1.507   7.884   1.060  0.6955 -0.1407  0.1676
59083SOL     OW94858   1.942   5.761   8.828 -0.3399 -0.1128  0.0748
59083SOL    HW194859   2.029   5.767   8.790  0.0014  2.9074  1.0854
59083SOL    HW294860   1.884   5.749   8.753  0.8491 -1.8862 -0.6352
59084SOL     OW94861  13.415  11.376   9.767  0.3643  0.5141 -0.2829
59084SOL    HW194862  13.356  11.415   9.703  0.5459 -0.4547 -1.0690
59084SOL    HW294863  13.503  11.395   9.734  0.4619  0.3235 -0.1403
59085SOL     OW94864   4.382   6.486  10.724 -0.1433  0.0737 -0.3343
59085SOL    HW194865   4.288   6.508  10.730 -0.7425 -2.2074 -0.5434
59085SOL    HW294866   4.396   6.424  10.795  0.6876 -1.2697 -1.6358
59086SOL     OW94867   7.828  12.032   3.707  0.4443 -0.0348  0.6317
59086SOL    HW194868   7.848  12.058   3.617 -1.9694  0.9513  0.3019
59086SOL    HW294869   7.844  12.111   3.758 -0.0752  0.0114  0.7326
59087SOL     OW94870   6.801  13.886   4.256  0.4199  0.4192 -0.2824
59087SOL    HW194871   6.765  13.947   4.321  0.3678  0.5847 -0.4649
59087SOL    HW294872   6.760  13.912   4.174  1.6845  1.2313 -0.6805
59088SOL     OW94873  13.548   6.078  10.164 -0.1003  0.0885 -0.1616
59088SOL    HW194874  13.621   6.017  10.164 -0.4395 -0.3415  0.9673
59088SOL    HW294875  13.472   6.025  10.190 -0.0661  1.3222  2.7981
59089SOL     OW94876  10.995   8.745  11.275 -0.3728 -0.6773  0.0053
59089SOL    HW194877  10.930   8.771  11.340 -0.2916  0.0166 -0.1844
59089SOL    HW294878  11.055   8.688  11.323 -0.5973 -0.5753  0.4128
59090SOL     OW94879  12.019  13.775   5.875  0.6923 -0.1526 -0.3761
59090SOL    HW194880  12.023  13.681   5.861  1.9496 -0.0427 -0.9216
59090SOL    HW294881  11.966  13.808   5.802 -1.6503 -0.6277  1.0339
59091SOL     OW94882   3.388   9.007   5.108 -0.4213 -0.1566 -0.1506
59091SOL    HW194883   3.410   9.046   5.023  1.0551  1.7928  1.0420
59091SOL    HW294884   3.473   8.993   5.150 -1.1169 -1.3895  0.9177
59092SOL     OW94885   6.179   9.902   2.393  0.3426 -0.4215  0.5026
59092SOL    HW194886   6.116   9.957   2.347 -0.6945  0.7720  3.1333
59092SOL    HW294887   6.156   9.812   2.367  0.2503  0.1907 -1.7063
59093SOL     OW94888   9.595   0.469   8.382  0.1991 -0.2832  0.3657
59093SOL    HW194889   9.673   0.469   8.326 -0.0933 -2.0493 -0.1133
59093SOL    HW294890   9.623   0.424   8.461 -0.4498 -1.3814 -0.0145
59094SOL     OW94891   5.653   5.787   0.099 -0.2813 -0.4790 -0.5726
59094SOL    HW194892   5.632   5.876   0.126 -1.6224 -0.3551 -1.8597
59094SOL    HW294893   5.583   5.734   0.139 -0.0150 -0.8262 -0.5668
59095SOL     OW94894  13.386   8.163   7.966  0.3557  0.7005 -0.0742
59095SOL    HW194895  13.345   8.169   8.052 -0.9066  0.0307 -0.5934
59095SOL    HW294896  13.479   8.181   7.981  0.0795  1.0185  1.3442
59096SOL     OW94897  11.385  10.189   9.434 -0.3330  0.4932 -0.7065
59096SOL    HW194898  11.437  10.185   9.514 -0.7076 -0.5931 -0.5096
59096SOL    HW294899  11.439  10.148   9.367  0.2083  1.8841 -1.1650
59097SOL     OW94900   1.969   8.349   6.958 -0.2315  0.1983 -0.1469
59097SOL    HW194901   2.039   8.412   6.973  1.0856 -1.3459  0.5361
59097SOL    HW294902   2.011   8.264   6.969 -1.3782 -0.9149 -3.2627
59098SOL     OW94903  10.148   9.126   3.461 -0.2510  0.6468 -0.2375
59098SOL    HW194904  10.130   9.209   3.416  0.3822  0.7138 -0.3682
59098SOL    HW294905  10.114   9.059   3.401 -0.3586  0.7892 -0.3368
59099SOL     OW94906   0.992  10.154   9.770  0.5309  0.7314  0.1446
59099SOL    HW194907   1.067  10.214   9.767  0.6223  0.7216  1.6097
59099SOL    HW294908   1.008  10.100   9.847 -1.7906  1.8249  1.4823
59100SOL     OW94909   8.517   2.023  10.456 -0.1223  0.1504 -0.1068
59100SOL    HW194910   8.487   2.107  10.493 -0.4587  0.4101 -0.9590
59100SOL    HW294911   8.548   1.974  10.532 -0.2890  0.8950  0.4563
59101SOL     OW94912   8.495   9.514   6.205  0.1927 -0.5164 -0.3846
59101SOL    HW194913   8.551   9.546   6.135 -0.0037  0.0980 -0.2637
59101SOL    HW294914   8.442   9.446   6.163  1.0557 -1.1496 -0.4862
59102SOL     OW94915  10.377   4.182  12.355 -0.3805 -0.0177  0.0837
59102SOL    HW194916  10.332   4.173  12.270 -0.4356 -1.3145  0.2210
59102SOL    HW294917  10.310   4.161  12.420 -0.2236  0.5349  0.4262
59103SOL     OW94918   6.328  12.808  12.512 -0.0946  0.5679 -0.1533
59103SOL    HW194919   6.356  12.866  12.582  0.1314  0.9985 -0.5945
59103SOL    HW294920   6.263  12.859  12.463 -1.6823 -0.4117  0.8542
59104SOL     OW94921   9.056  11.647   0.202 -0.0960  0.4395  0.4346
59104SOL    HW194922   8.968  11.642   0.167  0.0707  2.8316 -0.4771
59104SOL    HW294923   9.050  11.710   0.274  0.9679  1.1611 -0.0767
59105SOL     OW94924   0.994   5.980   3.993  0.6310 -0.1837  0.4701
59105SOL    HW194925   1.042   5.917   4.046  1.2045 -0.1997 -0.0664
59105SOL    HW294926   1.042   6.062   4.002  1.7822 -0.5840 -1.4093
59106SOL     OW94927  13.124   0.811   4.367 -0.7202 -0.6902 -0.1178
59106SOL    HW194928  13.108   0.753   4.293 -0.8367 -0.7169 -0.0718
59106SOL    HW294929  13.037   0.828   4.404 -0.7805  0.1932 -0.6381
59107SOL     OW94930   3.534   5.260   8.047  0.1820  0.2719  0.0967
59107SOL    HW194931   3.570   5.172   8.054 -0.6355 -0.0195  0.7663
59107SOL    HW294932   3.607   5.318   8.069  0.3600 -0.2887  1.0034
59108SOL     OW94933  13.945  11.624   4.745 -0.1197 -0.1045  0.1800
59108SOL    HW194934  13.936  11.719   4.744  0.7719 -0.0127 -0.6877
59108SOL    HW294935  14.039  11.609   4.750 -0.2324 -0.9417 -0.0111
59109SOL     OW94936   0.304   6.780  10.791 -0.5749  0.1321 -0.1351
59109SOL    HW194937   0.284   6.809  10.881 -0.9681 -1.8442  0.4470
59109SOL    HW294938   0.230   6.813  10.739 -0.5974  0.8654  0.3357
59110SOL     OW94939  10.687   8.629   0.897  0.1022  0.0333 -0.2031
59110SOL    HW194940  10.732   8.713   0.905  0.1500 -0.0404  0.3787
59110SOL    HW294941  10.626   8.640   0.824  2.1158 -0.3420 -2.0447
59111SOL     OW94942   2.433  12.514  13.350 -0.1069  0.0932  0.6951
59111SOL    HW194943   2.359  12.559  13.310  0.4052 -1.6541 -2.4866
59111SOL    HW294944   2.509  12.542  13.299  0.5439 -2.4569  0.1070
59112SOL     OW94945  12.246  10.969   7.928  0.2328  0.3412 -0.0555
59112SOL    HW194946  12.270  10.974   7.835 -0.6472  0.8179 -0.2656
59112SOL    HW294947  12.152  10.985   7.930  0.1236 -0.2807  0.8687
59113SOL     OW94948   6.508   1.151   9.480  0.8527 -0.0303 -0.2766
59113SOL    HW194949   6.426   1.114   9.510  0.3356  0.8649 -0.5417
59113SOL    HW294950   6.516   1.122   9.389  0.0155  1.1878 -0.7596
59114SOL     OW94951   1.892  12.551  12.751  0.0194 -0.3006 -0.1501
59114SOL    HW194952   1.807  12.532  12.791 -0.9077 -0.8923 -2.2808
59114SOL    HW294953   1.909  12.477  12.693  1.1500  0.6527 -1.0959
59115SOL     OW94954   1.682   1.275   0.690  0.0579  0.0824  0.3040
59115SOL    HW194955   1.721   1.324   0.763 -1.1258  0.4612  0.7084
59115SOL    HW294956   1.599   1.320   0.673 -0.4549 -1.0172 -0.1759
59116SOL     OW94957  10.164  12.846   5.108 -0.2811  0.3502 -0.3995
59116SOL    HW194958  10.220  12.808   5.041  0.9328  0.7892  0.3275
59116SOL    HW294959  10.099  12.778   5.126 -0.8049  0.3362 -2.1797
59117SOL     OW94960  12.488   5.315   0.060  0.1462  0.1628  0.2129
59117SOL    HW194961  12.578   5.313   0.095  0.0711  1.9659  0.5977
59117SOL    HW294962  12.447   5.237   0.097  1.0936  0.1582  1.3244
59118SOL     OW94963   0.267   4.125   3.208 -0.3623 -0.7999 -0.2441
59118SOL    HW194964   0.290   4.218   3.214 -0.2041 -0.8754  0.3543
59118SOL    HW294965   0.181   4.125   3.166  0.1658 -0.4494 -1.3932
59119SOL     OW94966   2.078   4.698  11.988 -0.1166  0.0483  0.3498
59119SOL    HW194967   2.145   4.742  12.039 -1.1940  1.1217  0.8807
59119SOL    HW294968   2.102   4.605  11.992  0.8781  0.3293  1.1943
59120SOL     OW94969   3.156   6.042   2.566  0.2840  0.0732 -0.9917
59120SOL    HW194970   3.219   6.109   2.593  2.6378 -1.2214 -2.9496
59120SOL    HW294971   3.208   5.975   2.522 -2.0979 -2.6098 -0.0478
59121SOL     OW94972   7.978   2.174   5.215  0.1943  0.2788 -0.4157
59121SOL    HW194973   7.934   2.090   5.233  1.4347  0.2388  3.0583
59121SOL    HW294974   8.008   2.165   5.124 -1.0840 -2.3608 -0.7033
59122SOL     OW94975  10.464  10.641   7.371  0.2255  0.2492 -0.0239
59122SOL    HW194976  10.498  10.662   7.284 -0.8304 -1.0825 -0.7890
59122SOL    HW294977  10.532  10.672   7.431  1.5801  0.0015 -1.3691
59123SOL     OW94978   1.597   9.008   9.837  0.2438 -0.3432 -0.2796
59123SOL    HW194979   1.660   9.070   9.874 -0.2847 -0.6466  1.1934
59123SOL    HW294980   1.648   8.929   9.822  0.7918  0.2317 -1.6308
59124SOL     OW94981   9.631   4.195   1.147  0.0123 -0.3682 -0.0580
59124SOL    HW194982   9.590   4.268   1.101  0.0935 -0.1889  0.1506
59124SOL    HW294983   9.634   4.124   1.083 -0.3047 -0.2715 -0.1803
59125SOL     OW94984   4.611   0.353   9.921 -0.1943  0.2022  0.2243
59125SOL    HW194985   4.647   0.276   9.878  0.6817  0.5896  0.2409
59125SOL    HW294986   4.519   0.331   9.937  0.0269 -0.8084  0.1723
59126SOL     OW94987   4.966   0.375  12.396  0.1596  0.2681 -0.5023
59126SOL    HW194988   5.056   0.381  12.366  0.6685 -1.4126  0.5212
59126SOL    HW294989   4.924   0.312  12.337  0.6628 -1.6264  1.0606
59127SOL     OW94990   6.029  13.694  10.164 -0.1822  0.2038  0.3429
59127SOL    HW194991   6.086  13.646  10.224  0.5940 -0.2212 -0.7074
59127SOL    HW294992   5.946  13.702  10.210  0.1687 -0.7888  1.1560
59128SOL     OW94993   8.347  13.562  11.780  0.2499 -0.3641 -0.0851
59128SOL    HW194994   8.365  13.654  11.761  0.6996 -0.0327  1.7667
59128SOL    HW294995   8.429  13.528  11.813 -0.0935 -1.2709 -0.1563
59129SOL     OW94996  13.042   6.919  12.102  0.3247 -0.3924  0.0632
59129SOL    HW194997  13.069   6.871  12.181  0.4884  0.4784  0.5517
59129SOL    HW294998  12.947   6.930  12.112  0.6242  1.5106  1.1863
59130SOL     OW94999   0.322   5.470   1.421  0.0685 -0.0252 -0.0328
59130SOL    HW195000   0.387   5.472   1.351 -1.7237 -2.1761 -1.9198
59130SOL    HW295001   0.353   5.403   1.481 -0.8258 -1.8608 -1.5133
59131SOL     OW95002   5.297  14.029   3.014  0.0943  0.0013 -0.7953
59131SOL    HW195003   5.246  14.103   2.980 -0.2855 -0.7686 -1.9744
59131SOL    HW295004   5.232  13.962   3.034  0.3993  0.1118  0.6782
59132SOL     OW95005  10.678   6.776   1.695  0.1962  0.7828  0.1423
59132SOL    HW195006  10.587   6.805   1.701 -0.3096 -0.0283 -2.2964
59132SOL    HW295007  10.698   6.781   1.601  2.0949 -0.7571  0.4064
59133SOL     OW95008   7.344   4.815   3.019 -0.0922 -0.1630 -0.2843
59133SOL    HW195009   7.368   4.906   3.001  2.6418 -0.4090  1.4932
59133SOL    HW295010   7.339   4.810   3.114 -4.3364 -1.0622 -0.3378
59134SOL     OW95011  13.166   7.511   8.551  0.2721  0.1421  0.3644
59134SOL    HW195012  13.235   7.449   8.529 -0.1788 -0.3003  0.1670
59134SOL    HW295013  13.210   7.596   8.558  1.0314 -0.3276  1.4391
59135SOL     OW95014   5.757  10.438   2.916  0.0024  0.2812  0.0228
59135SOL    HW195015   5.721  10.381   2.984  0.2028  0.4231  0.2520
59135SOL    HW295016   5.852  10.423   2.921  0.1275  1.1918  0.5993
59136SOL     OW95017   0.335   1.451   9.919  0.6507  0.0019 -0.8171
59136SOL    HW195018   0.317   1.543   9.942  1.3331  0.2192 -1.1476
59136SOL    HW295019   0.395   1.456   9.844  1.0057 -0.7157 -0.5853
59137SOL     OW95020   5.596  13.226   5.323  0.4614 -0.3188  0.4227
59137SOL    HW195021   5.511  13.214   5.366  0.8972 -2.2345  0.8637
59137SOL    HW295022   5.646  13.278   5.386  0.1480 -0.5942  0.9141
59138SOL     OW95023   0.971   0.691   1.130  0.4620 -0.0590 -0.1455
59138SOL    HW195024   1.013   0.728   1.053 -0.5413  0.6612 -0.3694
59138SOL    HW295025   1.034   0.705   1.201  1.3711 -0.6883 -0.8040
59139SOL     OW95026   2.064   3.981  12.497  0.2022  0.1362  0.3600
59139SOL    HW195027   1.985   3.927  12.504 -0.0968  0.3383 -1.0656
59139SOL    HW295028   2.134   3.918  12.478  0.4435 -0.0613  1.7838
59140SOL     OW95029   4.974   3.638   7.547  0.4021 -0.3027  0.5697
59140SOL    HW195030   5.052   3.691   7.533  0.0351 -0.0824 -0.8327
59140SOL    HW295031   4.975   3.574   7.476 -1.9351  1.2610 -1.0360
59141SOL     OW95032  12.203   9.955  10.557 -0.7245 -0.0998  0.1551
59141SOL    HW195033  12.189   9.861  10.544  0.3651 -0.1146 -1.0726
59141SOL    HW295034  12.138   9.997  10.501 -1.2118 -0.0950  0.7035
59142SOL     OW95035   6.874  11.015  12.421 -0.2719 -0.2800  0.0798
59142SOL    HW195036   6.822  11.043  12.346 -2.6500  1.2219  2.1052
59142SOL    HW295037   6.820  10.948  12.464  1.4660 -1.8111  0.0004
59143SOL     OW95038   7.011   7.816  12.155 -0.0534  1.0968  0.2604
59143SOL    HW195039   7.090   7.840  12.204 -1.0308  0.9772  1.9987
59143SOL    HW295040   6.986   7.896  12.108  1.1742  1.0825 -0.4673
59144SOL     OW95041   3.987   4.876  11.779  0.4370  0.1228 -0.1825
59144SOL    HW195042   4.022   4.846  11.695  0.9879  0.3924 -0.0552
59144SOL    HW295043   4.012   4.806  11.841 -0.9523 -0.6320 -0.4318
59145SOL     OW95044   9.842   0.396   1.483 -0.2672  0.1015  0.4744
59145SOL    HW195045   9.847   0.484   1.521  0.5450  0.7749 -1.1156
59145SOL    HW295046   9.748   0.374   1.486 -0.4336  0.8593  1.2091
59146SOL     OW95047   1.558  13.864   9.138 -0.2417  0.1793  0.0210
59146SOL    HW195048   1.580  13.887   9.048 -0.5336  0.4493  0.0161
59146SOL    HW295049   1.464  13.881   9.145 -0.2157  0.1823  0.3840
59147SOL     OW95050   8.042  13.077   9.627  0.8797  0.4662  0.1821
59147SOL    HW195051   8.016  13.168   9.617 -0.6644 -0.1081 -1.7914
59147SOL    HW295052   7.984  13.043   9.695  1.6531  1.0077  1.1245
59148SOL     OW95053   1.001   4.028   3.946  0.2130  0.0250  0.5226
59148SOL    HW195054   0.908   4.011   3.931  0.2930  1.7385 -2.6859
59148SOL    HW295055   1.047   3.969   3.886  1.1878 -0.1060  1.3636
59149SOL     OW95056   9.992  10.402   0.501  0.2367 -0.0273  0.3663
59149SOL    HW195057   9.978  10.406   0.595  0.8816  0.7159  0.4398
59149SOL    HW295058   9.904  10.405   0.463  0.0263  1.3473  0.8998
59150SOL     OW95059  11.498   2.011   8.601 -0.1345 -0.4805 -0.2825
59150SOL    HW195060  11.510   2.106   8.604  0.9248 -0.6311  0.8882
59150SOL    HW295061  11.403   1.998   8.611 -0.1090  0.4038  1.3978
59151SOL     OW95062   8.360  13.249   6.197 -0.6211 -0.1854 -0.1334
59151SOL    HW195063   8.368  13.266   6.291  0.2682  1.3704 -0.4521
59151SOL    HW295064   8.280  13.296   6.172  1.6751  3.8154 -0.9561
59152SOL     OW95065  12.195  11.363  13.649 -0.1508 -0.5668  0.0342
59152SOL    HW195066  12.176  11.379  13.742  1.7569 -1.6564  0.6704
59152SOL    HW295067  12.151  11.281  13.629 -0.6321 -0.2900 -0.0638
59153SOL     OW95068   1.616   9.926   5.505 -0.2180 -0.1681  0.0050
59153SOL    HW195069   1.645   9.998   5.449  1.6421  0.3671  1.5243
59153SOL    HW295070   1.650   9.847   5.462  0.4203  0.1496 -0.0820
59154SOL     OW95071  11.861   1.950   9.236  0.2779 -0.0597 -0.6476
59154SOL    HW195072  11.887   1.981   9.150 -0.4108  1.7668 -0.2491
59154SOL    HW295073  11.943   1.924   9.278  1.0186  1.8030 -0.8443
59155SOL     OW95074   1.789   1.182   7.102 -0.0573 -0.0055 -0.1434
59155SOL    HW195075   1.726   1.223   7.043 -0.4971 -1.1579 -0.5154
59155SOL    HW295076   1.871   1.181   7.053  0.3848  1.8567  0.4936
59156SOL     OW95077  12.880   9.871  11.592  0.0629 -0.1923  0.0259
59156SOL    HW195078  12.864   9.814  11.667 -1.8722 -1.5015 -1.2844
59156SOL    HW295079  12.800   9.922  11.582  0.2055 -0.1718 -1.2503
59157SOL     OW95080  10.465   8.183   6.834  0.2049  0.0201  0.1252
59157SOL    HW195081  10.558   8.202   6.825 -0.0446  1.3904  0.1603
59157SOL    HW295082  10.442   8.216   6.921 -0.7733  1.8841 -0.7785
59158SOL     OW95083   1.032  13.076  12.306 -0.1096 -0.7078  0.5114
59158SOL    HW195084   1.028  12.982  12.291 -1.0085 -0.8988  1.8473
59158SOL    HW295085   0.942  13.107  12.294 -0.2877 -0.4085  2.3578
59159SOL     OW95086   1.432   0.707   1.019 -0.3676  0.3154 -0.0459
59159SOL    HW195087   1.505   0.650   0.997  0.2718  0.4899  1.5332
59159SOL    HW295088   1.358   0.672   0.968  0.0799 -1.7388  0.6432
59160SOL     OW95089   2.539   7.432   0.214 -0.5852  0.1101 -0.7904
59160SOL    HW195090   2.505   7.513   0.176 -1.4682  0.7278  1.1922
59160SOL    HW295091   2.476   7.365   0.187 -0.9115  0.4417 -0.8631
59161SOL     OW95092  13.764   1.187  10.487  0.0487 -0.3270 -0.4002
59161SOL    HW195093  13.749   1.105  10.534  0.7703 -0.8513 -1.0575
59161SOL    HW295094  13.738   1.168  10.397  0.2234  0.1686 -0.5594
59162SOL     OW95095   3.271  12.928   7.668 -0.1408  0.2210 -0.0409
59162SOL    HW195096   3.290  13.021   7.670 -0.9923  0.4164  1.9573
59162SOL    HW295097   3.254  12.905   7.760  1.3882 -2.1915 -0.2745
59163SOL     OW95098   7.132   0.782   2.389  0.5182  0.6117  0.1622
59163SOL    HW195099   7.218   0.769   2.348 -0.4006 -2.0872 -1.1549
59163SOL    HW295100   7.090   0.849   2.334  1.4672  1.3583  0.3270
59164SOL     OW95101  12.053   8.847   7.220 -0.4917  0.1520  0.0515
59164SOL    HW195102  12.074   8.918   7.281  0.8108  1.3130 -1.6436
59164SOL    HW295103  12.079   8.881   7.134 -3.7080 -0.7595 -1.4501
59165SOL     OW95104   7.759   1.280   9.354  0.0121  0.4740 -0.0402
59165SOL    HW195105   7.844   1.300   9.392  0.3732  3.1808 -1.9633
59165SOL    HW295106   7.769   1.192   9.318  2.3920  1.1027 -1.1142
59166SOL     OW95107   6.964  13.940   6.550  0.1197  0.4900 -0.0560
59166SOL    HW195108   7.011  13.859   6.568 -3.0743 -1.3367  0.8160
59166SOL    HW295109   6.976  13.954   6.456 -0.1485 -1.6335 -0.4500
59167SOL     OW95110  13.848   7.890   3.377 -0.7100 -0.4568  0.0731
59167SOL    HW195111  13.932   7.920   3.412  0.5655  0.5114 -3.4010
59167SOL    HW295112  13.862   7.797   3.359 -0.7494 -0.5291  0.4037
59168SOL     OW95113  13.028   2.876   0.411  0.2569  0.1254  0.2185
59168SOL    HW195114  13.004   2.794   0.455 -0.4121  0.6491  0.8456
59168SOL    HW295115  12.978   2.875   0.329  0.0240  0.0435  0.3611
59169SOL     OW95116   2.652   6.000  13.276 -0.1149  0.8183  0.2029
59169SOL    HW195117   2.586   5.976  13.342 -0.0377 -0.7216 -0.2529
59169SOL    HW295118   2.723   6.039  13.327 -0.7956  1.2464  0.8425
59170SOL     OW95119  11.428   9.393   1.354  0.1450 -0.0595 -0.4400
59170SOL    HW195120  11.453   9.325   1.291 -1.0170 -0.7610 -0.1733
59170SOL    HW295121  11.376   9.347   1.420  0.2107  0.9110  0.3175
59171SOL     OW95122   3.336   9.112   6.128 -0.4276  0.3151 -0.2253
59171SOL    HW195123   3.342   9.207   6.123 -0.8836  0.3939  0.4162
59171SOL    HW295124   3.361   9.091   6.218  1.2040 -0.3290 -0.7911
59172SOL     OW95125  11.419  12.034  10.427  0.5970 -0.5445 -0.1618
59172SOL    HW195126  11.399  12.127  10.421 -1.0010 -0.8912 -1.0467
59172SOL    HW295127  11.390  11.998  10.343  2.5451 -1.6275 -0.4221
59173SOL     OW95128  12.372   3.813   9.091 -0.4030 -0.5387  0.4888
59173SOL    HW195129  12.298   3.840   9.036 -0.6570  0.2005  1.1787
59173SOL    HW295130  12.354   3.721   9.112 -1.4901 -0.1820  1.1981
59174SOL     OW95131   1.230   6.627   4.141  0.0906  0.3211 -0.3737
59174SOL    HW195132   1.259   6.577   4.218  1.1300  2.6972  0.8914
59174SOL    HW295133   1.267   6.580   4.067  1.4544 -0.5157  0.7805
59175SOL     OW95134   1.999   3.016  11.136  0.1313 -0.5420  0.4650
59175SOL    HW195135   2.032   2.968  11.212  0.6350 -0.3492  0.3693
59175SOL    HW295136   2.060   2.994  11.065  0.5737  0.4926  0.5034
59176SOL     OW95137  10.606   2.895   5.707  0.6379 -0.1321 -0.3339
59176SOL    HW195138  10.597   2.966   5.644  0.7362 -0.0184 -0.2204
59176SOL    HW295139  10.691   2.911   5.749 -0.4301  1.1376  1.4800
59177SOL     OW95140  11.300   6.535   1.725  0.0328  0.0905 -0.1128
59177SOL    HW195141  11.236   6.601   1.750 -0.3810 -0.0683 -0.7175
59177SOL    HW295142  11.251   6.474   1.670  0.0559 -1.4880  1.5156
59178SOL     OW95143  10.198  10.024   5.994 -0.3119 -0.0034  0.1205
59178SOL    HW195144  10.121  10.077   5.975  0.8732  1.2337 -1.5172
59178SOL    HW295145  10.164   9.936   6.007 -1.8958  0.1725 -2.1853
59179SOL     OW95146  11.527   1.855  13.573 -0.0605  0.0532 -0.4051
59179SOL    HW195147  11.586   1.911  13.523 -2.0974  0.6317 -2.3797
59179SOL    HW295148  11.500   1.908  13.648 -0.4190  0.9957 -1.1789
59180SOL     OW95149   9.114  13.582   6.326  0.0108 -0.2598  0.0965
59180SOL    HW195150   9.086  13.504   6.373 -0.9593  1.2032  2.0985
59180SOL    HW295151   9.195  13.556   6.282  0.5906 -1.9435  2.0027
59181SOL     OW95152   6.721  13.769  13.565 -0.4424  0.3232 -0.5263
59181SOL    HW195153   6.643  13.715  13.574 -0.2029  0.0377 -0.1130
59181SOL    HW295154   6.794  13.708  13.575 -0.1648  0.8771  1.0886
59182SOL     OW95155  10.416   1.328  11.349 -0.4269  0.2699 -0.0478
59182SOL    HW195156  10.373   1.249  11.316 -0.3399  0.5833 -0.9269
59182SOL    HW295157  10.509   1.307  11.350 -0.4545  0.1568  0.2959
59183SOL     OW95158   9.385   4.449   9.408  0.6536  0.7813  0.0134
59183SOL    HW195159   9.322   4.516   9.381  1.2594  1.4826  0.2948
59183SOL    HW295160   9.335   4.388   9.461 -0.7701 -1.0298 -3.1491
59184SOL     OW95161  14.016   4.208   5.735  0.1504  0.2014  0.3155
59184SOL    HW195162  14.107   4.178   5.735  0.2391  0.4593 -0.5798
59184SOL    HW295163  14.018   4.293   5.691 -0.9439 -1.1816 -2.6936
59185SOL     OW95164  11.125  10.817   2.767  0.1773  0.1553  0.0094
59185SOL    HW195165  11.063  10.889   2.768  1.1880  1.0782  2.0063
59185SOL    HW295166  11.211  10.860   2.761  0.7828 -0.8555  1.0017
59186SOL     OW95167   2.994   0.062   7.554 -0.4316  0.4264 -0.4711
59186SOL    HW195168   3.032   0.148   7.573  1.1824 -0.1426 -0.9915
59186SOL    HW295169   3.064  -0.000   7.571 -1.7679 -0.8756  0.4778
59187SOL     OW95170   2.887   9.536   1.502 -0.0400 -0.5651  0.3033
59187SOL    HW195171   2.896   9.623   1.464  0.3905 -1.7621 -2.6017
59187SOL    HW295172   2.805   9.503   1.467  0.7518 -2.0356 -0.2363
59188SOL     OW95173   0.696  11.881   1.117 -0.5077  0.1535  0.5628
59188SOL    HW195174   0.641  11.960   1.115 -1.2730 -0.3777 -0.0634
59188SOL    HW295175   0.780  11.911   1.151 -0.3359  1.5456 -0.9635
59189SOL     OW95176   9.049  12.857   6.648 -0.1140  0.3838  0.0119
59189SOL    HW195177   9.071  12.764   6.638  3.1515  1.1188 -0.5732
59189SOL    HW295178   9.021  12.885   6.561  0.6762  0.3573 -0.2522
59190SOL     OW95179   5.957  12.655  10.548  0.0273 -0.5567 -0.4440
59190SOL    HW195180   5.977  12.566  10.519  0.2317 -0.4404 -0.6647
59190SOL    HW295181   5.966  12.708  10.469  0.2611 -0.2851 -0.2357
59191SOL     OW95182   7.044   9.645   5.734  0.1349  0.3446 -0.0356
59191SOL    HW195183   7.035   9.708   5.805  0.3603  1.7679 -1.2141
59191SOL    HW295184   7.065   9.698   5.657  0.8953 -1.2228 -0.9749
59192SOL     OW95185   8.525  12.433   2.330  0.1810 -0.8919  0.1746
59192SOL    HW195186   8.474  12.376   2.272 -1.8825 -0.1843  1.1956
59192SOL    HW295187   8.552  12.506   2.274 -1.0679 -0.6319 -0.1130
59193SOL     OW95188   1.936  12.925   7.386  0.3500  0.0516 -0.0946
59193SOL    HW195189   1.943  12.898   7.477 -1.6164  2.0776  0.7619
59193SOL    HW295190   2.023  12.910   7.350  0.5255 -3.2108  1.3378
59194SOL     OW95191   6.407  11.364  13.253  0.2638 -0.1392  0.0370
59194SOL    HW195192   6.465  11.288  13.258  0.7543  0.2171 -0.1437
59194SOL    HW295193   6.456  11.434  13.297 -0.2860  0.0094  0.4162
59195SOL     OW95194  11.965  10.834  13.051  0.3292 -0.6338 -0.2507
59195SOL    HW195195  12.022  10.800  12.981  0.6908 -0.3822 -0.0806
59195SOL    HW295196  11.879  10.798  13.031  0.2948 -0.0805 -1.1791
59196SOL     OW95197  10.606   3.307   9.292 -0.1345  0.0547 -0.8839
59196SOL    HW195198  10.666   3.233   9.293 -0.8126 -0.6472  3.0271
59196SOL    HW295199  10.552   3.293   9.214 -1.0916 -4.3839  0.2877
59197SOL     OW95200  10.099   3.933  10.419  0.2519  0.7136 -0.6110
59197SOL    HW195201  10.111   3.890  10.334 -0.7047 -2.6443  0.7926
59197SOL    HW295202  10.137   3.872  10.482 -0.9696  2.0816  1.5606
59198SOL     OW95203   8.673   4.562  10.190 -0.2854 -0.1065  0.1651
59198SOL    HW195204   8.762   4.550  10.156 -0.1609 -0.2068  0.5189
59198SOL    HW295205   8.649   4.651  10.165  0.0821  0.0754  0.4459
59199SOL     OW95206   4.835   4.095   8.704 -0.0106 -0.2838  0.4971
59199SOL    HW195207   4.912   4.081   8.649 -0.4166 -1.1126  0.1217
59199SOL    HW295208   4.803   4.007   8.722 -0.4650  0.0307  1.2317
59200SOL     OW95209   2.686   6.833   4.547  0.4489  0.1965  0.1553
59200SOL    HW195210   2.744   6.808   4.475  1.2134  0.8976  0.5213
59200SOL    HW295211   2.744   6.864   4.616 -0.3386  4.8728 -0.9245
59201SOL     OW95212   2.011  11.172   0.990 -0.2245 -0.3303 -0.6504
59201SOL    HW195213   1.933  11.182   1.046 -1.5071  1.2154 -2.5688
59201SOL    HW295214   2.081  11.217   1.038 -0.8134 -0.6239  0.5210
59202SOL     OW95215   7.766   8.329   0.624 -0.1565  0.4946  0.3060
59202SOL    HW195216   7.855   8.365   0.632 -0.4419  0.8134  3.3815
59202SOL    HW295217   7.779   8.235   0.612  0.5991  0.5768  0.4475
59203SOL     OW95218   9.428  13.247   7.504 -0.4666 -0.4648 -0.4806
59203SOL    HW195219   9.479  13.183   7.553  0.7644  0.4408 -0.5207
59203SOL    HW295220   9.494  13.297   7.455 -1.2238  1.7543  0.6637
59204SOL     OW95221   0.939  13.685   9.727 -0.4315 -0.0690 -0.6183
59204SOL    HW195222   0.973  13.775   9.732  0.2099 -0.3754  1.0844
59204SOL    HW295223   0.849  13.692   9.758 -0.3516 -0.0231 -0.3949
59205SOL     OW95224   4.173   2.118   7.331  0.4128  0.3310 -0.2368
59205SOL    HW195225   4.083   2.137   7.356 -0.2506 -1.6254 -0.9308
59205SOL    HW295226   4.166   2.078   7.244  1.7344 -1.5337  0.4466
59206SOL     OW95227   5.879   2.975  11.905  0.0856  0.2026 -0.1535
59206SOL    HW195228   5.910   3.003  11.819 -0.2480  1.0006 -0.0158
59206SOL    HW295229   5.860   3.056  11.952 -0.7540 -0.2416  0.2984
59207SOL     OW95230   9.114   5.324   3.840  0.0078  0.0681 -0.1467
59207SOL    HW195231   9.146   5.244   3.882 -0.0767  0.9769  1.7996
59207SOL    HW295232   9.041   5.352   3.895 -1.3344  0.3971 -1.9932
59208SOL     OW95233   2.546   8.323  10.539 -0.0795 -0.3220  0.4933
59208SOL    HW195234   2.571   8.232  10.525  0.2894 -0.1160 -0.2584
59208SOL    HW295235   2.626   8.366  10.571 -0.1524 -0.1836  0.4934
59209SOL     OW95236   4.374  10.323  13.914  0.0655  0.1541  0.5638
59209SOL    HW195237   4.455  10.309  13.864 -0.2345  3.5421 -1.1437
59209SOL    HW295238   4.317  10.251  13.887  1.0895  0.0421 -1.5189
59210SOL     OW95239   4.334  12.596   3.507  0.2314  0.1934  0.3693
59210SOL    HW195240   4.390  12.557   3.575  1.0631  0.8512  0.0800
59210SOL    HW295241   4.271  12.528   3.485 -1.0489  0.4376  2.8720
59211SOL     OW95242   5.362  10.212   5.087 -0.0474  0.2530 -0.1290
59211SOL    HW195243   5.390  10.138   5.033 -1.5501 -0.8955  0.5806
59211SOL    HW295244   5.318  10.270   5.025 -0.2910 -0.2437 -0.4382
59212SOL     OW95245   8.462  10.583   0.693 -0.8725  0.0297  0.4174
59212SOL    HW195246   8.467  10.552   0.603 -2.2956 -2.3396  1.0664
59212SOL    HW295247   8.463  10.503   0.746  1.3788  1.3635  2.6509
59213SOL     OW95248  10.871   6.095  14.016  0.6032  0.1819 -0.3991
59213SOL    HW195249  10.931   6.067  14.086  0.8313  0.3850 -0.5118
59213SOL    HW295250  10.898   6.044  13.940  1.6445  1.3651 -0.8632
59214SOL     OW95251   8.935  13.531  12.094 -0.3493  0.0660 -0.1961
59214SOL    HW195252   8.953  13.551  12.002  1.7775 -2.0152 -0.3680
59214SOL    HW295253   8.942  13.614  12.140 -0.6636  1.0138 -1.8204
59215SOL     OW95254   0.466   3.759   6.185  0.2225  0.1026 -0.0193
59215SOL    HW195255   0.533   3.768   6.252  0.1634  0.3225  0.0103
59215SOL    HW295256   0.396   3.710   6.228  0.3710 -0.1417 -0.0558
59216SOL     OW95257   8.708   0.653   5.151 -0.1421  0.1130  0.2057
59216SOL    HW195258   8.650   0.680   5.223  1.1753  0.8409  1.0447
59216SOL    HW295259   8.750   0.574   5.184 -0.9052 -0.6421 -0.5625
59217SOL     OW95260   8.682  13.572  13.191  0.2111  0.3344  0.5002
59217SOL    HW195261   8.695  13.484  13.155 -0.8668  0.3796 -0.0392
59217SOL    HW295262   8.602  13.603  13.148  0.9867  1.8698  0.1178
59218SOL     OW95263  13.208   6.953   0.966  0.5916 -0.2875 -0.1493
59218SOL    HW195264  13.122   6.943   0.926  1.0181 -1.0692 -0.9286
59218SOL    HW295265  13.194   6.937   1.059  0.1905 -2.4005 -0.5142
59219SOL     OW95266   3.986  11.824   9.982 -0.2680 -0.3834  0.2895
59219SOL    HW195267   4.058  11.839  10.044 -1.3464 -2.3019  2.1276
59219SOL    HW295268   4.006  11.881   9.908  1.5696  1.3544  2.0032
59220SOL     OW95269   9.211  11.960  12.568 -0.2377 -0.1230  0.0279
59220SOL    HW195270   9.266  11.919  12.635 -0.3235  1.5406  1.1850
59220SOL    HW295271   9.125  11.921  12.580 -0.0677 -0.3905  0.3835
59221SOL     OW95272   0.212  11.506   5.584 -0.0776  0.0212  0.1329
59221SOL    HW195273   0.140  11.456   5.623 -0.4950 -0.6846 -1.4439
59221SOL    HW295274   0.200  11.595   5.617 -0.8496 -0.3850  0.9882
59222SOL     OW95275   2.915   0.690   1.067  0.7912  0.4118  0.2218
59222SOL    HW195276   2.929   0.759   1.131 -0.1100  0.7359  0.0877
59222SOL    HW295277   2.902   0.611   1.119  1.1369  0.4765  0.4043
59223SOL     OW95278   2.457   0.565   6.609  0.5263  0.1764  0.5829
59223SOL    HW195279   2.414   0.649   6.627 -0.3675 -0.1135 -0.1421
59223SOL    HW295280   2.550   0.585   6.613  0.3331  1.4672 -0.6871
59224SOL     OW95281  11.029   3.105  12.405  0.0024  0.5751 -0.7975
59224SOL    HW195282  11.012   3.199  12.404 -0.4181  0.5102 -0.0587
59224SOL    HW295283  11.054   3.085  12.315 -0.7605  1.2396 -1.1755
59225SOL     OW95284  13.476   8.843  11.822  0.1048  0.5009  1.0209
59225SOL    HW195285  13.490   8.879  11.734 -1.3927 -2.8869 -0.8315
59225SOL    HW295286  13.397   8.886  11.853 -0.0611  0.8828  0.1194
59226SOL     OW95287   0.264  13.529   8.333  0.3267  0.5789 -0.3764
59226SOL    HW195288   0.246  13.574   8.251 -0.8501  2.0373  0.6236
59226SOL    HW295289   0.215  13.447   8.328 -2.3282  2.0247  0.0443
59227SOL     OW95290  12.232   2.900  10.962  0.2809  0.2886  1.0181
59227SOL    HW195291  12.210   2.860  11.046  1.7914  0.3775  1.4858
59227SOL    HW295292  12.237   2.993  10.980 -0.8615  0.4785  0.4660
59228SOL     OW95293   5.446  12.311   1.611  0.2276 -0.4049  0.4532
59228SOL    HW195294   5.441  12.298   1.517 -0.6298  1.5384  0.1970
59228SOL    HW295295   5.523  12.367   1.624 -0.5215  0.5846  0.7359
59229SOL     OW95296   0.036  12.720   0.836 -0.5080 -0.2454 -0.4883
59229SOL    HW195297  -0.002  12.741   0.922 -1.6385 -1.5174 -0.6448
59229SOL    HW295298   0.023  12.799   0.784  0.9405  0.8480  0.7299
59230SOL     OW95299   6.568   8.695   0.662 -0.2383  0.2599  0.0081
59230SOL    HW195300   6.534   8.657   0.580 -1.2201  0.8089  0.1421
59230SOL    HW295301   6.620   8.625   0.701  0.5042  0.0857 -1.2271
59231SOL     OW95302   3.836  12.164  10.526  0.4532  0.4343 -0.0969
59231SOL    HW195303   3.766  12.224  10.551 -0.0885  0.1457 -0.9002
59231SOL    HW295304   3.798  12.109  10.457  0.9916 -0.7189  0.4950
59232SOL     OW95305  12.844   9.978   8.569 -0.2437  0.2486  0.4038
59232SOL    HW195306  12.892  10.015   8.644  0.2878 -1.1208  0.7758
59232SOL    HW295307  12.900   9.995   8.494 -0.1595  0.4868  0.5190
59233SOL     OW95308  10.973   0.600   7.583  0.7559 -0.4719 -0.4944
59233SOL    HW195309  10.906   0.535   7.605  1.9179 -1.4651  0.1833
59233SOL    HW295310  11.033   0.599   7.657  1.3250  0.6855 -0.9159
59234SOL     OW95311   0.795   8.177   2.961 -0.0503  0.0172  0.3536
59234SOL    HW195312   0.870   8.183   3.021  0.5353  0.5058 -0.4038
59234SOL    HW295313   0.733   8.120   3.006  0.9073 -0.6516  0.8692
59235SOL     OW95314   0.550   5.980  10.542  0.6135  0.1416  0.4288
59235SOL    HW195315   0.603   5.901  10.534 -0.1004 -0.4781  1.5470
59235SOL    HW295316   0.474   5.953  10.593  0.1595  1.4652  0.5010
59236SOL     OW95317   1.970   6.867   1.165  0.5148  0.1081 -0.3448
59236SOL    HW195318   2.055   6.833   1.137  0.4089 -1.5644  1.1836
59236SOL    HW295319   1.985   6.902   1.252 -0.0702  1.2124 -0.6644
59237SOL     OW95320   6.550   7.416   5.472 -0.1096 -0.0909 -0.0998
59237SOL    HW195321   6.462   7.384   5.452 -0.7818  1.0360  0.8977
59237SOL    HW295322   6.539   7.466   5.553  1.2256  1.0995 -0.6215
59238SOL     OW95323  13.119  11.957  11.658  0.0495 -0.2774 -0.4939
59238SOL    HW195324  13.030  11.931  11.632  0.1143  0.2507 -1.2946
59238SOL    HW295325  13.122  12.051  11.640  0.3343 -0.0141  0.8332
59239SOL     OW95326   4.366   4.383   0.014  0.5519 -0.1425  0.2851
59239SOL    HW195327   4.455   4.377  -0.022  0.5188 -0.0350  0.1846
59239SOL    HW295328   4.379   4.410   0.105  0.6159  0.0173  0.2295
59240SOL     OW95329   7.164   3.558   6.176  0.2413 -0.1435  0.0679
59240SOL    HW195330   7.163   3.642   6.222 -0.5358 -0.3478  0.4258
59240SOL    HW295331   7.188   3.580   6.086  0.5258  0.3988  0.2733
59241SOL     OW95332   1.021  10.105  11.011 -0.2672 -0.6203 -0.3541
59241SOL    HW195333   1.085  10.061  10.954 -1.2117 -1.1640 -1.0323
59241SOL    HW295334   1.029  10.060  11.095  3.0734  1.9311  0.9414
59242SOL     OW95335   8.790   4.349   4.480  0.0152 -0.2382 -0.5797
59242SOL    HW195336   8.711   4.316   4.437 -0.7312  0.2803  0.3618
59242SOL    HW295337   8.837   4.271   4.507  1.2237 -0.6655 -3.5081
59243SOL     OW95338   5.266  10.504  13.131  0.0849 -0.4457  0.7267
59243SOL    HW195339   5.185  10.555  13.123  0.7593  0.7325  1.2832
59243SOL    HW295340   5.241  10.427  13.181 -0.8995 -0.5602  0.0822
59244SOL     OW95341   5.114   6.368  12.859 -0.2021 -0.0863 -0.3801
59244SOL    HW195342   5.141   6.277  12.848  0.2930  0.0656 -0.4474
59244SOL    HW295343   5.068   6.389  12.778  2.4011  0.6608 -1.7854
59245SOL     OW95344   8.798   7.270   5.020 -0.2811  0.4758  0.1815
59245SOL    HW195345   8.746   7.324   5.079 -0.5711 -0.1061  0.4658
59245SOL    HW295346   8.883   7.263   5.063 -0.1885  0.8395  0.0621
59246SOL     OW95347   6.211   7.159   3.517  0.0714  0.7100 -0.3742
59246SOL    HW195348   6.153   7.209   3.576 -0.2332  0.0799 -0.1285
59246SOL    HW295349   6.172   7.171   3.430  1.3064  2.7975 -0.7001
59247SOL     OW95350   8.816   9.711  12.462 -0.0295 -0.5644  0.1510
59247SOL    HW195351   8.847   9.785  12.515  2.4949  0.4913 -2.5510
59247SOL    HW295352   8.876   9.640  12.484  0.8763 -0.1920 -1.0372
59248SOL     OW95353   4.423   8.436   3.337  0.0578  0.4632 -0.0921
59248SOL    HW195354   4.369   8.407   3.410 -0.5688  1.5159 -0.1205
59248SOL    HW295355   4.449   8.525   3.359  1.9794 -0.0652  0.0126
59249SOL     OW95356   7.192  11.730   4.498  0.6490 -0.6588  0.6495
59249SOL    HW195357   7.222  11.769   4.416  0.3389  0.3557  0.9928
59249SOL    HW295358   7.140  11.654   4.471 -0.4423  0.3279 -0.1704
59250SOL     OW95359   2.854   8.328  13.725  0.1446  0.0286  0.6384
59250SOL    HW195360   2.923   8.385  13.689 -1.9523  1.8962 -0.6677
59250SOL    HW295361   2.775   8.382  13.723 -1.3361 -1.9432  2.3417
59251SOL     OW95362   7.819   9.354  11.262 -0.0632  0.1721  0.0720
59251SOL    HW195363   7.796   9.406  11.185  1.9451 -0.7989 -1.2647
59251SOL    HW295364   7.782   9.403  11.336  0.2605  2.5666 -1.2618
59252SOL     OW95365   8.614   3.048   4.585 -0.3775 -0.3120  0.1961
59252SOL    HW195366   8.639   2.959   4.560 -0.4778 -0.8562  1.9274
59252SOL    HW295367   8.568   3.081   4.508  1.0928 -1.1372 -1.1079
59253SOL     OW95368   6.862  12.625   1.693 -0.5106 -0.1020  0.0485
59253SOL    HW195369   6.920  12.555   1.662 -1.6190 -0.7083 -0.7265
59253SOL    HW295370   6.878  12.630   1.787  1.8644  0.7618 -0.3167
59254SOL     OW95371   4.980   5.645   1.376 -0.1503  0.4932 -0.5005
59254SOL    HW195372   5.010   5.603   1.456  1.4331 -0.3563 -1.5039
59254SOL    HW295373   4.885   5.636   1.378  0.0146 -1.3411  0.2929
59255SOL     OW95374  13.016  11.796   7.635  0.0083  0.4740  0.2647
59255SOL    HW195375  12.990  11.754   7.717 -0.0247 -0.5706 -0.2700
59255SOL    HW295376  13.106  11.767   7.620 -0.9993 -2.0354 -1.6921
59256SOL     OW95377   2.390  12.216   0.798  0.1749 -0.0984  0.3599
59256SOL    HW195378   2.433  12.269   0.864  0.1525 -0.6667  0.8363
59256SOL    HW295379   2.300  12.207   0.829  0.5005 -1.5110  0.9809
59257SOL     OW95380  12.072   9.697   2.986  0.0027  0.5366 -0.2574
59257SOL    HW195381  12.031   9.753   2.921 -0.6387  0.3999  0.0147
59257SOL    HW295382  12.023   9.715   3.067 -1.3806 -1.6287 -0.5262
59258SOL     OW95383  13.999   0.613   8.884 -0.0291 -0.1900 -0.0710
59258SOL    HW195384  14.046   0.569   8.814  2.0391  0.7348  0.6362
59258SOL    HW295385  14.005   0.553   8.959  1.4963  0.5610  0.4657
59259SOL     OW95386   6.490  10.113  12.294 -0.4796  0.5659 -0.0235
59259SOL    HW195387   6.531  10.055  12.231 -0.3269 -0.1571  0.7208
59259SOL    HW295388   6.422  10.160  12.244  0.2904  0.7359 -0.9300
59260SOL     OW95389  11.948  13.449   4.691 -0.1106 -0.2771  0.3890
59260SOL    HW195390  12.038  13.481   4.690  0.3699 -1.5417  0.7902
59260SOL    HW295391  11.940  13.396   4.611 -0.2677 -0.7548  0.7155
59261SOL     OW95392   6.626   3.462  12.966 -0.0269  0.0740 -0.2880
59261SOL    HW195393   6.615   3.539  13.021 -0.5624  1.4249 -2.2007
59261SOL    HW295394   6.550   3.407  12.985 -0.2768  0.5919  0.2098
59262SOL     OW95395  12.850   5.998   5.174 -0.0109  0.1538 -0.7704
59262SOL    HW195396  12.829   6.078   5.125 -0.1519  0.5141 -0.1305
59262SOL    HW295397  12.765   5.954   5.186 -0.5761  1.7730  2.1030
59263SOL     OW95398   0.180   9.035  13.792  0.5864 -0.0834  0.2026
59263SOL    HW195399   0.124   9.082  13.854  0.3551 -0.7195  0.4933
59263SOL    HW295400   0.175   8.943  13.821  0.4886 -0.3875 -0.7487
59264SOL     OW95401   4.365   2.772   9.926  0.3404  0.1992  0.1657
59264SOL    HW195402   4.367   2.720   9.845  0.8576 -0.8715  0.8402
59264SOL    HW295403   4.291   2.736   9.975  1.0871 -0.3343  0.9139
59265SOL     OW95404   6.897  12.821   5.561  0.6754 -0.3005 -0.0500
59265SOL    HW195405   6.869  12.852   5.475  1.9489 -0.9977 -0.7511
59265SOL    HW295406   6.886  12.726   5.556 -0.0270 -0.2728  0.8638
59266SOL     OW95407   2.126  11.625   6.706 -0.1714 -0.1158  0.1725
59266SOL    HW195408   2.159  11.660   6.623 -0.2352 -0.7765 -0.1418
59266SOL    HW295409   2.085  11.700   6.749  0.5449  0.4088 -0.0408
59267SOL     OW95410   9.679   2.274   1.815  0.1630  0.1187  0.5435
59267SOL    HW195411   9.621   2.322   1.756 -0.5126 -0.4148  0.7500
59267SOL    HW295412   9.627   2.199   1.843  1.0613 -0.5121  0.5420
59268SOL     OW95413   1.657  13.893  12.377  0.0516  0.5740 -0.2249
59268SOL    HW195414   1.577  13.847  12.353  0.6314 -0.4126 -0.3133
59268SOL    HW295415   1.726  13.828  12.369  1.0260  1.6690 -1.1698
59269SOL     OW95416   8.913   2.578  12.408 -0.1611  0.0417 -0.0635
59269SOL    HW195417   8.994   2.540  12.374 -0.7729 -1.8083  0.4316
59269SOL    HW295418   8.935   2.605  12.497  0.5233  1.7639 -0.7204
59270SOL     OW95419  11.653   7.763  11.763 -0.2346 -0.1849 -0.1438
59270SOL    HW195420  11.697   7.741  11.680  0.0201 -0.5971  0.1012
59270SOL    HW295421  11.698   7.710  11.829 -0.9091 -0.3856  0.1548
59271SOL     OW95422   2.258   3.280  11.117  0.1844  0.1547 -0.1316
59271SOL    HW195423   2.210   3.232  11.050  0.4114  1.3311 -1.1621
59271SOL    HW295424   2.350   3.258  11.102  0.2898  0.9009 -0.6087
59272SOL     OW95425   2.387   0.618   8.594 -0.0888 -0.7228 -0.5646
59272SOL    HW195426   2.430   0.554   8.537  0.6169 -0.6906 -0.0783
59272SOL    HW295427   2.445   0.626   8.669  0.0327  0.8164 -0.8079
59273SOL     OW95428  10.011   2.215   9.762 -0.5762  0.3886 -0.1347
59273SOL    HW195429   9.971   2.152   9.702 -0.9709  0.6914 -0.1927
59273SOL    HW295430   9.958   2.209   9.842 -0.9250  0.9939 -0.3116
59274SOL     OW95431   2.379   0.302   4.638 -0.1465  0.4958  0.1235
59274SOL    HW195432   2.438   0.368   4.602 -0.5048  0.2083 -1.0460
59274SOL    HW295433   2.438   0.234   4.672  0.2063  0.9985  0.5484
59275SOL     OW95434   3.287   5.396  11.832 -0.0950 -0.2392  0.0096
59275SOL    HW195435   3.194   5.381  11.812  0.6836 -3.7712 -1.7129
59275SOL    HW295436   3.309   5.330  11.898  1.3245  0.1242 -0.0684
59276SOL     OW95437   1.466  12.154   9.081  0.4634 -0.7021  0.0556
59276SOL    HW195438   1.458  12.176   9.174 -1.1685 -1.4603  0.1285
59276SOL    HW295439   1.521  12.224   9.045 -0.5256  0.7388  1.2039
59277SOL     OW95440   8.445  12.786   4.205 -0.1492 -0.4702  0.0054
59277SOL    HW195441   8.434  12.692   4.191  0.0837 -1.0306  2.9509
59277SOL    HW295442   8.500  12.793   4.284  1.2884  2.1644 -1.0834
59278SOL     OW95443   6.310   8.815   3.148  0.0336 -0.3981 -0.4560
59278SOL    HW195444   6.247   8.787   3.214  1.3508 -1.3129  0.4504
59278SOL    HW295445   6.311   8.911   3.155  0.8584 -0.5158  1.5472
59279SOL     OW95446   5.599   5.459   0.598 -0.2444  0.0066  0.0811
59279SOL    HW195447   5.640   5.405   0.530 -1.1849 -0.5711 -0.0365
59279SOL    HW295448   5.617   5.549   0.571 -2.1445 -0.1344 -1.9697
59280SOL     OW95449   2.343   2.322   6.018  0.7293  0.2075 -0.2693
59280SOL    HW195450   2.257   2.312   5.978  1.2207 -1.7229 -0.9350
59280SOL    HW295451   2.325   2.345   6.109 -0.4942 -0.3622 -0.3586
59281SOL     OW95452   1.677   2.880   6.646  0.3018 -0.6692 -0.5132
59281SOL    HW195453   1.750   2.841   6.598  0.7576  0.1161 -0.4859
59281SOL    HW295454   1.619   2.807   6.667  1.7020 -1.5256  0.5712
59282SOL     OW95455  12.280  10.468  11.047 -0.0342  0.1184  0.1308
59282SOL    HW195456  12.272  10.385  11.095 -0.5047  1.5463  2.7108
59282SOL    HW295457  12.306  10.442  10.959 -1.1311 -2.8184  0.5539
59283SOL     OW95458  12.347  10.886   3.277  0.0340 -0.6107  0.6703
59283SOL    HW195459  12.414  10.953   3.287 -0.7915  0.9037 -2.6781
59283SOL    HW295460  12.272  10.920   3.327 -0.1558  0.6961 -0.4562
59284SOL     OW95461  13.316   3.681   1.502  0.3871 -0.2472  0.6419
59284SOL    HW195462  13.263   3.607   1.474  0.6217 -0.6833  1.3100
59284SOL    HW295463  13.335   3.729   1.421 -2.4140  0.8949  0.5757
59285SOL     OW95464  11.916   3.073   5.732 -0.3956 -0.3843 -0.6175
59285SOL    HW195465  11.877   3.000   5.683  1.3045 -1.9307  0.2185
59285SOL    HW295466  11.997   3.093   5.685  0.2714 -0.5781  0.4060
59286SOL     OW95467  11.902  12.540   9.031  0.2395 -0.5756  0.1411
59286SOL    HW195468  11.876  12.468   9.089  2.5777 -1.3083  0.4063
59286SOL    HW295469  11.979  12.578   9.074  2.4741 -1.5508 -2.7127
59287SOL     OW95470   5.241  10.479   4.523  0.2995 -0.0632  0.3852
59287SOL    HW195471   5.254  10.538   4.596  4.9840  0.7219 -0.7754
59287SOL    HW295472   5.197  10.533   4.456  0.6761  0.8218  0.8346
59288SOL     OW95473  12.895   8.736   8.753 -0.1144  0.3726  1.0423
59288SOL    HW195474  12.961   8.675   8.786  0.1855  0.8151  1.2772
59288SOL    HW295475  12.812   8.689   8.761  0.3221 -0.7981 -0.7356
59289SOL     OW95476   2.249   0.245   0.728  0.0965 -0.2129 -0.4132
59289SOL    HW195477   2.155   0.242   0.744 -0.2389 -1.1830 -2.2515
59289SOL    HW295478   2.265   0.335   0.699  0.3101  0.8368  2.6094
59290SOL     OW95479   1.513   3.360   3.683  0.0991 -0.4180 -0.1429
59290SOL    HW195480   1.566   3.296   3.637  0.0224 -0.7498  0.2240
59290SOL    HW295481   1.549   3.361   3.772 -1.3580 -1.6410  0.4995
59291SOL     OW95482  12.398   0.440   6.478  0.4041 -0.0726  0.4506
59291SOL    HW195483  12.373   0.504   6.412 -0.9735 -1.1809 -0.1803
59291SOL    HW295484  12.440   0.369   6.428  0.4840 -0.3608  0.9184
59292SOL     OW95485   9.874   1.900  12.580 -0.0650  0.5183  0.5713
59292SOL    HW195486   9.959   1.882  12.540 -0.1500  1.0483  0.1353
59292SOL    HW295487   9.893   1.969  12.644  0.4127 -1.5584  2.8071
59293SOL     OW95488   6.109   0.239   0.825 -0.0419  0.3927 -0.7926
59293SOL    HW195489   6.096   0.278   0.738  0.4559  0.2105 -0.9486
59293SOL    HW295490   6.083   0.308   0.886  1.6514  1.3066 -1.0493
59294SOL     OW95491   0.374  12.282   9.915 -0.0991 -0.4131 -0.1299
59294SOL    HW195492   0.352  12.375   9.913 -1.5634 -0.6507  1.6973
59294SOL    HW295493   0.469  12.280   9.931  0.1302  0.7291 -1.1962
59295SOL     OW95494  10.790   0.767   0.285 -0.9026 -0.0518 -0.5975
59295SOL    HW195495  10.812   0.777   0.377 -2.1371 -1.0117 -0.1703
59295SOL    HW295496  10.771   0.855   0.255  0.4220  0.3967 -0.1998
59296SOL     OW95497   9.628   2.680  13.717 -0.5926  0.4576 -0.6516
59296SOL    HW195498   9.578   2.665  13.797 -0.4343 -1.1530 -0.8249
59296SOL    HW295499   9.618   2.599  13.667  3.2734 -0.5840 -0.0627
59297SOL     OW95500  12.180   9.408   6.492  0.1439 -0.6623 -0.0973
59297SOL    HW195501  12.090   9.429   6.518  0.4091  0.5474 -0.1011
59297SOL    HW295502  12.233   9.435   6.566  0.4957 -1.7518  0.0743
59298SOL     OW95503  12.139  13.580   0.787 -0.4767 -0.2498  0.2116
59298SOL    HW195504  12.108  13.498   0.749 -0.4691 -0.5863  0.9008
59298SOL    HW295505  12.063  13.638   0.785 -0.2687 -0.0036 -0.9960
59299SOL     OW95506   1.996   4.387   8.020 -0.0422 -0.3115 -0.3500
59299SOL    HW195507   1.959   4.468   7.985  0.3692 -0.6728 -1.6796
59299SOL    HW295508   2.082   4.412   8.054  0.4955 -0.3337 -1.6269
59300SOL     OW95509   8.476  12.525   3.690  0.3644  0.0097 -0.0577
59300SOL    HW195510   8.547  12.469   3.722  0.1485 -0.4015 -0.2852
59300SOL    HW295511   8.486  12.606   3.739  1.9243  0.5307 -1.1529
59301SOL     OW95512  10.000   1.437   1.612 -0.4766 -0.3883 -0.0177
59301SOL    HW195513  10.082   1.389   1.612 -0.6516 -0.9705 -3.4261
59301SOL    HW295514  10.014   1.509   1.550 -2.6177 -0.8179 -1.1078
59302SOL     OW95515   6.461   0.805   4.887 -0.7636  0.0705 -0.0793
59302SOL    HW195516   6.385   0.850   4.924 -0.5747 -0.7180  1.3644
59302SOL    HW295517   6.466   0.723   4.936  1.2934  0.3158  0.2313
59303SOL     OW95518   8.440  13.743  13.567  0.1187 -0.2953  0.6186
59303SOL    HW195519   8.485  13.746  13.651 -0.6683  0.9784  1.0227
59303SOL    HW295520   8.441  13.651  13.542  1.5072 -0.5186  1.3819
59304SOL     OW95521   1.675   1.505   9.118 -0.0145 -0.3504 -0.1796
59304SOL    HW195522   1.678   1.562   9.194 -0.2949 -0.5191 -0.0425
59304SOL    HW295523   1.614   1.549   9.058  1.8041  0.8957 -1.2138
59305SOL     OW95524   3.351   6.754  12.248  0.7177 -0.1151 -0.0262
59305SOL    HW195525   3.349   6.658  12.253  0.1009 -0.1424 -0.5730
59305SOL    HW295526   3.331   6.773  12.156  0.4906  0.5452  0.1544
59306SOL     OW95527   3.180   2.547  13.059 -0.6436  0.1041  0.2446
59306SOL    HW195528   3.246   2.607  13.095  0.0662 -0.7026  0.3071
59306SOL    HW295529   3.103   2.603  13.044  0.0446  1.0591  0.1701
59307SOL     OW95530   9.009  13.660   3.742  0.2543 -1.0451  0.1846
59307SOL    HW195531   9.052  13.646   3.826  0.5021  0.0348  0.2464
59307SOL    HW295532   9.026  13.579   3.693  0.0021 -1.7254  1.2063
59308SOL     OW95533   8.959   3.877   3.234 -0.2242 -0.3112  0.2013
59308SOL    HW195534   9.036   3.830   3.267  0.2330 -0.0125 -0.4115
59308SOL    HW295535   8.928   3.822   3.162  0.8926  0.7780 -1.1603
59309SOL     OW95536   9.414   4.086  12.567  0.3831 -0.2372 -0.0753
59309SOL    HW195537   9.356   4.055  12.498  0.8644  0.5767 -0.8668
59309SOL    HW295538   9.457   4.163  12.530  1.7428 -0.6348  0.5999
59310SOL     OW95539   2.410   2.812   8.236  0.0244 -0.3176  0.1481
59310SOL    HW195540   2.505   2.803   8.231  0.1420  0.3624  0.8236
59310SOL    HW295541   2.389   2.790   8.327 -0.3682  0.2515  0.2009
59311SOL     OW95542  10.502   0.548   2.219  0.3219 -0.0990  0.2608
59311SOL    HW195543  10.436   0.562   2.151  0.3789 -0.3254  0.1572
59311SOL    HW295544  10.486   0.618   2.283 -1.8361 -1.7193  1.6495
59312SOL     OW95545   8.059  12.504   5.688 -0.0360  0.7115 -0.1223
59312SOL    HW195546   8.017  12.470   5.609  1.5457 -0.0039 -0.7091
59312SOL    HW295547   8.100  12.586   5.661 -1.3785  1.6340  0.5550
59313SOL     OW95548   2.396   2.105   8.146 -0.0506 -0.2681  0.2932
59313SOL    HW195549   2.453   2.158   8.201 -1.3708  0.2454  1.1940
59313SOL    HW295550   2.387   2.022   8.193 -0.7131 -0.0420  0.5713
59314SOL     OW95551   6.498   0.693   8.885  0.1064 -0.1695  0.3631
59314SOL    HW195552   6.532   0.707   8.973 -0.7953 -0.8269  0.8280
59314SOL    HW295553   6.433   0.761   8.873  0.5680  0.2208  0.0048
59315SOL     OW95554  11.558   9.736   6.911  0.5359 -0.0907 -0.1518
59315SOL    HW195555  11.564   9.660   6.969 -2.9659 -0.4807 -0.0790
59315SOL    HW295556  11.582   9.702   6.825  0.2559 -0.9774  0.1055
59316SOL     OW95557   3.679  10.722   1.677 -0.2414  0.8292  0.1925
59316SOL    HW195558   3.594  10.679   1.688  0.0838 -0.2688 -1.2820
59316SOL    HW295559   3.737  10.677   1.738 -0.3243  0.3833 -0.0517
59317SOL     OW95560   7.872   1.630   5.902 -0.1264  0.6515  0.4634
59317SOL    HW195561   7.960   1.617   5.937  0.5340 -0.3962 -1.4020
59317SOL    HW295562   7.828   1.547   5.919 -0.6602  1.0666  1.1186
59318SOL     OW95563   1.193   9.188  13.174  0.2633  0.3718 -0.0228
59318SOL    HW195564   1.157   9.277  13.179 -0.2833  0.2432 -1.3861
59318SOL    HW295565   1.122   9.135  13.139  1.0266 -0.3461 -0.5139
59319SOL     OW95566   5.156   5.881  12.153 -0.4688 -0.1867 -0.4523
59319SOL    HW195567   5.118   5.945  12.093 -0.9370 -0.1702 -0.1400
59319SOL    HW295568   5.112   5.799  12.130 -0.3276 -0.2703 -0.4246
59320SOL     OW95569  11.041   1.213   2.428 -0.7946  0.1333 -0.3167
59320SOL    HW195570  10.984   1.220   2.352 -0.0634 -0.3483 -0.9159
59320SOL    HW295571  11.031   1.122   2.458 -1.5895  0.4899  0.5904
59321SOL     OW95572   2.939  13.315   9.899  0.3708  0.2015  0.5027
59321SOL    HW195573   2.989  13.385   9.857  0.2086 -0.4076 -0.7491
59321SOL    HW295574   2.980  13.234   9.869  0.2612 -0.2662  1.5581
59322SOL     OW95575   9.445   6.264  12.606 -0.0820 -0.1581 -0.2129
59322SOL    HW195576   9.373   6.232  12.552 -0.1063 -0.3372 -0.0768
59322SOL    HW295577   9.523   6.251  12.553 -0.0830 -0.5175 -0.1281
59323SOL     OW95578  11.905   3.577  10.417  0.2184 -0.6951  0.1277
59323SOL    HW195579  11.877   3.604  10.504 -0.2776  0.0150 -0.2382
59323SOL    HW295580  11.943   3.656  10.378  1.9434 -1.4218  0.2859
59324SOL     OW95581   6.866   6.749  13.548 -0.1121 -0.4491 -0.2589
59324SOL    HW195582   6.911   6.817  13.597 -1.5609 -0.0741  0.6092
59324SOL    HW295583   6.906   6.752  13.461  0.8470  0.5120  0.1923
59325SOL     OW95584   4.480   8.242   2.150 -0.5250 -0.4876 -0.2780
59325SOL    HW195585   4.437   8.305   2.091  0.7888 -0.1985 -0.9678
59325SOL    HW295586   4.557   8.289   2.183  0.3045 -1.6135 -0.5611
59326SOL     OW95587   9.242   1.443  13.795  0.0652 -0.0334 -0.0865
59326SOL    HW195588   9.335   1.422  13.783  0.4280 -0.5683  2.9131
59326SOL    HW295589   9.211   1.378  13.857 -2.0054  0.9252 -0.0504
59327SOL     OW95590   7.500   5.497   5.081 -0.0176  0.4142  0.1391
59327SOL    HW195591   7.577   5.499   5.024 -0.2264 -1.3042 -0.2655
59327SOL    HW295592   7.453   5.418   5.055 -1.2687  0.7557  1.2389
59328SOL     OW95593  12.856   7.391  12.662  0.8821  0.0736  0.1534
59328SOL    HW195594  12.877   7.299  12.646 -0.6646  0.0852 -2.5633
59328SOL    HW295595  12.935   7.438  12.635  2.0014 -0.4314  2.3719
59329SOL     OW95596   3.314   9.352   2.292 -0.8673  0.2848  0.6924
59329SOL    HW195597   3.373   9.359   2.367 -1.0849  0.4806  0.8459
59329SOL    HW295598   3.277   9.264   2.299 -0.0628 -0.0958  0.2003
59330SOL     OW95599  11.415  11.720  12.552  0.3506  0.3633  0.0311
59330SOL    HW195600  11.411  11.657  12.624 -0.8098  0.1373 -0.2158
59330SOL    HW295601  11.493  11.772  12.570  1.7277 -1.5529 -0.1108
59331SOL     OW95602  12.355   5.956   6.814  0.1416  0.0681  0.3187
59331SOL    HW195603  12.292   5.968   6.886  2.8277  0.7189  2.7854
59331SOL    HW295604  12.438   5.939   6.858  2.0262  0.7305 -2.6728
59332SOL     OW95605   0.718   4.624   4.047 -0.2680 -0.2384 -0.0379
59332SOL    HW195606   0.643   4.631   3.987 -1.3635 -1.1492  1.1706
59332SOL    HW295607   0.784   4.575   3.998 -0.8421 -0.2899 -0.7716
59333SOL     OW95608  13.547   0.952   6.351  0.2941 -0.5954  0.1272
59333SOL    HW195609  13.538   1.015   6.423  1.7514 -0.5673  0.3162
59333SOL    HW295610  13.555   1.006   6.273  0.2125 -0.5875  0.1237
59334SOL     OW95611   8.124   0.989   5.345  0.2890  0.4333  0.1121
59334SOL    HW195612   8.198   1.036   5.385  0.3297 -0.1417  0.7315
59334SOL    HW295613   8.105   0.919   5.406  0.6429 -0.7607 -1.1045
59335SOL     OW95614   7.697   0.750   2.194 -0.4005  0.1160 -0.5292
59335SOL    HW195615   7.656   0.685   2.252 -2.6043  1.4271 -0.5149
59335SOL    HW295616   7.698   0.831   2.246 -0.5288  0.8170 -1.6007
59336SOL     OW95617   4.458  10.998   0.571 -0.1995 -0.0072  0.3599
59336SOL    HW195618   4.432  10.991   0.663  0.8424 -1.9396  0.5758
59336SOL    HW295619   4.394  11.056   0.532 -0.6601  0.8729  2.3100
59337SOL     OW95620   6.169   7.126   4.456 -0.7499 -0.1203  0.1616
59337SOL    HW195621   6.074   7.119   4.452 -0.8637  0.9876  0.4677
59337SOL    HW295622   6.199   7.037   4.471 -1.7657 -0.4249  0.4988
59338SOL     OW95623  12.667   6.762  13.836  0.0354 -0.0284 -0.3206
59338SOL    HW195624  12.611   6.832  13.802 -0.0886  0.2433  0.4225
59338SOL    HW295625  12.750   6.773  13.790 -0.4836 -0.3703 -1.3614
59339SOL     OW95626  13.535  11.608   7.209  0.7496  0.3197 -0.4989
59339SOL    HW195627  13.578  11.575   7.287  1.6339  0.7792 -0.7813
59339SOL    HW295628  13.468  11.543   7.188  0.1427  0.4436  0.9334
59340SOL     OW95629  12.968   1.295   4.315 -0.2504  0.1329 -0.0562
59340SOL    HW195630  13.012   1.281   4.232 -1.1571  2.7234 -1.0862
59340SOL    HW295631  13.001   1.226   4.372  1.7951 -0.6161 -2.0090
59341SOL     OW95632   9.255   8.483  12.691  0.0101 -0.2468  0.3721
59341SOL    HW195633   9.248   8.432  12.772 -0.9484  0.1998  0.5844
59341SOL    HW295634   9.195   8.556  12.704  1.3919  0.9858  0.0964
59342SOL     OW95635  13.848   5.637   8.509 -0.0551  0.1848  0.4813
59342SOL    HW195636  13.888   5.557   8.543 -2.9760 -1.0356  1.3920
59342SOL    HW295637  13.755   5.628   8.529 -0.7262  3.2163 -0.6414
59343SOL     OW95638  11.533  10.652   1.263 -0.4218 -0.0901 -0.0772
59343SOL    HW195639  11.463  10.714   1.286 -0.1689  0.0021  0.4544
59343SOL    HW295640  11.504  10.613   1.181 -2.0047 -1.3843  1.0366
59344SOL     OW95641  13.831   8.075  11.511 -0.1021  0.4210  0.0950
59344SOL    HW195642  13.779   8.036  11.581  0.8850 -0.7124  0.2258
59344SOL    HW295643  13.920   8.042  11.526  0.2991  0.8768 -1.1788
59345SOL     OW95644   6.880  13.563  10.380 -0.1534 -0.4673  0.0925
59345SOL    HW195645   6.857  13.470  10.376  0.1648 -0.6003  1.1179
59345SOL    HW295646   6.937  13.577  10.305  3.1987 -2.0979  2.0860
59346SOL     OW95647   5.224   9.631  12.080  0.2547 -0.1295 -0.4223
59346SOL    HW195648   5.301   9.594  12.122  1.6860  1.3441 -1.6308
59346SOL    HW295649   5.163   9.648  12.152  0.8816 -1.6680  0.5102
59347SOL     OW95650  11.440  12.783   3.336 -0.2055 -0.8065  0.0179
59347SOL    HW195651  11.484  12.766   3.419  1.2559  1.6475 -0.1609
59347SOL    HW295652  11.472  12.714   3.278  1.2027 -0.7431  0.6772
59348SOL     OW95653  13.447  10.758   2.657 -0.1360 -0.2014 -0.2442
59348SOL    HW195654  13.418  10.727   2.742  0.1350 -0.3488 -0.2053
59348SOL    HW295655  13.466  10.851   2.670 -0.8761 -0.0314 -0.3437
59349SOL     OW95656   3.947  13.586   4.700 -0.6311 -0.1133 -0.5423
59349SOL    HW195657   3.933  13.506   4.751  0.3659 -0.1931 -0.3764
59349SOL    HW295658   3.926  13.657   4.760  2.1077 -0.1465  0.5864
59350SOL     OW95659   8.355   2.184   6.076  0.0377 -0.0191 -0.4661
59350SOL    HW195660   8.374   2.185   5.982  1.3820 -0.8574 -0.2300
59350SOL    HW295661   8.433   2.145   6.115 -1.7381 -2.6585  0.6873
59351SOL     OW95662   5.010   9.848   3.919  0.1043  0.1576 -0.5245
59351SOL    HW195663   5.045   9.937   3.922 -1.4859  0.8154  1.5249
59351SOL    HW295664   5.082   9.793   3.952  0.0776  1.1677  1.4048
59352SOL     OW95665  11.707  11.553  14.014 -0.3604  0.0795 -0.4875
59352SOL    HW195666  11.663  11.504  14.084  1.7482 -2.0251 -0.5284
59352SOL    HW295667  11.780  11.597  14.057  0.2808 -0.3097 -1.1452
59353SOL     OW95668   9.841  10.765   0.340 -0.0072 -0.1826 -0.2117
59353SOL    HW195669   9.926  10.760   0.384 -0.7836 -2.0453  1.2150
59353SOL    HW295670   9.850  10.838   0.278  1.6320  1.5936  1.9693
59354SOL     OW95671   5.024  13.244   4.627 -0.2676  0.0173 -0.2702
59354SOL    HW195672   4.976  13.172   4.668 -0.2832  0.7665  1.0723
59354SOL    HW295673   4.977  13.323   4.654  0.0957  0.5712 -1.2345
59355SOL     OW95674   3.470  13.602  11.606  0.3376 -0.0423  0.4130
59355SOL    HW195675   3.442  13.635  11.691  0.9535 -0.0007  0.6018
59355SOL    HW295676   3.408  13.532  11.585 -0.7809  0.9958  0.1625
59356SOL     OW95677   5.808  11.589   3.884 -0.1653 -0.7055 -0.5386
59356SOL    HW195678   5.795  11.642   3.805  0.0670 -0.7122 -0.5816
59356SOL    HW295679   5.902  11.598   3.903 -0.2995 -0.3640 -0.0252
59357SOL     OW95680  12.248  13.821   4.222  0.1948 -0.0955  0.4195
59357SOL    HW195681  12.267  13.810   4.129  1.8348  2.1975  0.3861
59357SOL    HW295682  12.200  13.904   4.226  1.5506  0.6707  1.7198
59358SOL     OW95683  10.232   6.430  12.138  0.0133 -0.4969  0.9050
59358SOL    HW195684  10.280   6.394  12.212  1.2135  1.5929  1.2013
59358SOL    HW295685  10.149   6.460  12.175 -0.0151 -0.8070  1.0958
59359SOL     OW95686   1.809   8.843   1.157  0.3733 -0.0186  0.9381
59359SOL    HW195687   1.804   8.934   1.185 -0.9903 -0.2968  1.7128
59359SOL    HW295688   1.778   8.843   1.067 -0.5585  0.1568  1.2558
59360SOL     OW95689   1.183   4.733   5.134  1.2335  0.4987 -0.2647
59360SOL    HW195690   1.172   4.828   5.132  0.4652  0.4311 -2.5283
59360SOL    HW295691   1.254   4.717   5.072 -1.2667 -0.5689 -3.1343
59361SOL     OW95692  11.600  10.509   9.358 -0.3763  0.0153 -0.2363
59361SOL    HW195693  11.582  10.603   9.349  1.4818  0.3217 -1.2379
59361SOL    HW295694  11.515  10.468   9.348 -1.1742  1.5614 -0.1950
59362SOL     OW95695  11.422   7.322   3.326  0.2715  0.1325 -0.3362
59362SOL    HW195696  11.452   7.278   3.406  0.0791 -0.2502 -0.4687
59362SOL    HW295697  11.393   7.408   3.355  3.8503  1.5580 -0.5457
59363SOL     OW95698  12.314   4.300  11.824 -0.0353 -0.0352  0.3909
59363SOL    HW195699  12.231   4.266  11.791  0.6279 -0.0445 -1.3910
59363SOL    HW295700  12.310   4.394  11.806 -1.2140  0.7366  3.8770
59364SOL     OW95701  13.288  12.134   4.881 -0.1934  0.3390  0.3042
59364SOL    HW195702  13.367  12.182   4.905 -1.4509  1.8939  1.6178
59364SOL    HW295703  13.318  12.064   4.824  1.8074  2.4281 -1.3599
59365SOL     OW95704   8.586   3.995   2.517 -0.1722  0.0638 -0.3378
59365SOL    HW195705   8.613   3.909   2.550 -0.4134 -0.2555 -0.9628
59365SOL    HW295706   8.668   4.045   2.512 -0.1818  0.2807  1.1605
59366SOL     OW95707   3.533  11.136   7.005  0.4560  0.5658  0.0292
59366SOL    HW195708   3.438  11.137   7.011  0.4226  3.3240  0.3895
59366SOL    HW295709   3.552  11.178   6.920  1.3328  0.8778  0.3638
59367SOL     OW95710  13.502   2.354   2.265 -0.3514  0.1345 -0.1641
59367SOL    HW195711  13.449   2.317   2.335 -1.7810 -0.5272 -1.5476
59367SOL    HW295712  13.553   2.423   2.308 -0.8059 -0.5737  1.6090
59368SOL     OW95713   3.795   9.283   5.918 -0.3662  0.3111 -0.4426
59368SOL    HW195714   3.748   9.235   5.987  2.0103  1.8615  2.5062
59368SOL    HW295715   3.887   9.280   5.945  0.5566  1.9936 -3.0048
59369SOL     OW95716  11.901   7.570   4.481  0.1655  0.2016 -0.5905
59369SOL    HW195717  11.996   7.577   4.494  0.4183 -0.9141 -1.6861
59369SOL    HW295718  11.890   7.574   4.386 -1.0017  1.4293 -0.4355
59370SOL     OW95719   3.944   5.183   6.017 -0.6736  0.1806 -0.5426
59370SOL    HW195720   4.034   5.152   6.005 -0.3378  1.0982 -0.4592
59370SOL    HW295721   3.910   5.195   5.928 -0.3404  0.8635 -0.5860
59371SOL     OW95722   3.893   9.853  10.285 -0.5209 -0.1313 -0.0295
59371SOL    HW195723   3.871   9.820  10.372  2.7272  0.2491  1.0695
59371SOL    HW295724   3.953   9.926  10.300 -0.3619  0.3875 -2.5906
59372SOL     OW95725   4.687   7.798   2.011  0.1762  0.0948  0.4975
59372SOL    HW195726   4.780   7.810   2.029  0.1955 -0.1783  0.5768
59372SOL    HW295727   4.654   7.887   1.996  0.7246  0.0909 -0.9165
59373SOL     OW95728   8.238   3.109   1.630  0.3440  0.3815 -0.4630
59373SOL    HW195729   8.321   3.101   1.679  0.0460 -0.1687 -0.0257
59373SOL    HW295730   8.263   3.152   1.548  1.2102 -0.4677 -0.6752
59374SOL     OW95731   6.813   4.903   4.123  0.2807 -0.1559 -0.1863
59374SOL    HW195732   6.743   4.843   4.148 -1.1455  1.0695 -1.1170
59374SOL    HW295733   6.837   4.947   4.205 -0.8539  0.2351 -0.0505
59375SOL     OW95734   1.539   5.827   7.635 -0.2148 -0.4446  0.8187
59375SOL    HW195735   1.550   5.922   7.640  0.8805 -0.4326 -0.9625
59375SOL    HW295736   1.523   5.810   7.542 -1.1821 -1.9548  1.2276
59376SOL     OW95737   2.631   0.977  12.121  0.5213  0.3603  0.2936
59376SOL    HW195738   2.579   1.055  12.141  1.0650  0.9342 -0.4762
59376SOL    HW295739   2.658   0.988  12.030  2.2857  0.2555  0.7589
59377SOL     OW95740   1.066   5.893   1.633  0.7314 -0.3647  0.1332
59377SOL    HW195741   0.981   5.859   1.661  0.4154 -0.2621 -0.6914
59377SOL    HW295742   1.129   5.849   1.691  0.0997 -0.1493  1.0048
59378SOL     OW95743  13.885   4.417   0.412 -0.0847  0.3725 -0.3518
59378SOL    HW195744  13.813   4.368   0.451  0.9311 -1.3705 -0.5341
59378SOL    HW295745  13.869   4.413   0.318 -0.9806  2.0533 -0.3027
59379SOL     OW95746  10.759   9.567  11.993  0.1905 -0.0402  0.2939
59379SOL    HW195747  10.754   9.568  11.897 -0.4517 -2.9737  0.2046
59379SOL    HW295748  10.776   9.658  12.017  0.7964  0.7141 -2.6161
59380SOL     OW95749   8.170  10.695  12.100  0.7597  0.3190  0.3300
59380SOL    HW195750   8.107  10.675  12.031  0.7080 -5.3845  1.5180
59380SOL    HW295751   8.118  10.736  12.169 -0.8342 -0.6919 -0.2247
59381SOL     OW95752   3.280  10.457  12.029 -0.4259 -0.3243 -0.2197
59381SOL    HW195753   3.248  10.451  11.939 -1.3282 -0.7632  0.1190
59381SOL    HW295754   3.371  10.488  12.020 -0.7454  0.3792 -1.2302
59382SOL     OW95755   8.543  12.065  11.689  0.2411 -0.7175  0.8107
59382SOL    HW195756   8.632  12.052  11.657 -0.2236 -2.4259  0.0673
59382SOL    HW295757   8.529  11.992  11.750 -0.2913  0.1606  1.7711
59383SOL     OW95758   2.212   3.108   8.777 -0.0326 -0.0685 -0.1005
59383SOL    HW195759   2.225   3.203   8.782 -0.7968  0.0413 -0.1135
59383SOL    HW295760   2.299   3.073   8.755 -0.3002  0.8969 -3.1973
59384SOL     OW95761  13.195  14.088   1.848  0.2039  0.2731  0.4875
59384SOL    HW195762  13.269  14.097   1.908 -0.6311  2.5009  1.2843
59384SOL    HW295763  13.227  14.124   1.766  1.5764 -3.3973 -0.7931
59385SOL     OW95764  14.034   3.056  13.873 -0.5021  0.3883  0.1250
59385SOL    HW195765  13.956   3.106  13.849 -1.7617 -0.7032  1.7714
59385SOL    HW295766  14.100   3.122  13.892 -1.9483  1.4744  1.6761
59386SOL     OW95767   4.568   8.791   6.561  0.4189  0.0407 -0.6996
59386SOL    HW195768   4.542   8.883   6.568  0.6380  0.1300 -1.0652
59386SOL    HW295769   4.544   8.753   6.646 -1.3675 -0.0088 -1.1907
59387SOL     OW95770   2.922  13.510   2.150  0.2406  0.5205 -0.2349
59387SOL    HW195771   2.895  13.601   2.160 -0.7880  0.1392  0.5981
59387SOL    HW295772   2.925  13.475   2.239  0.4085 -0.3238 -0.5542
59388SOL     OW95773   8.101  10.367   1.040  0.3505  0.1435  0.4124
59388SOL    HW195774   8.112  10.381   0.946  0.0216  0.8192  0.4696
59388SOL    HW295775   8.047  10.289   1.046  1.6329 -0.8168  0.0726
59389SOL     OW95776   0.874   0.815   8.629 -0.4095  0.3111  0.1442
59389SOL    HW195777   0.896   0.825   8.536 -1.3821 -2.4394 -0.4732
59389SOL    HW295778   0.790   0.859   8.639 -1.0483 -0.6952 -0.6680
59390SOL     OW95779   7.017   5.393   3.999  0.4536 -0.3363  0.6802
59390SOL    HW195780   7.030   5.433   4.085 -0.1793 -0.6078  0.9059
59390SOL    HW295781   6.967   5.457   3.949 -0.3800 -0.7370  0.9742
59391SOL     OW95782   1.547  12.643  12.382  0.0101 -0.1973 -0.3612
59391SOL    HW195783   1.519  12.714  12.440  1.9015 -0.6700  1.2754
59391SOL    HW295784   1.485  12.572  12.399  0.8635 -0.5436  1.6583
59392SOL     OW95785   5.704   3.281   4.450  0.2754 -0.8273 -0.3021
59392SOL    HW195786   5.692   3.290   4.356  0.9668 -3.1472 -0.6924
59392SOL    HW295787   5.796   3.303   4.465 -0.2214  1.1233  0.1324
59393SOL     OW95788   8.791  11.639   8.258 -0.0464 -0.0512 -0.0873
59393SOL    HW195789   8.830  11.553   8.243 -0.1002 -0.2001  0.5863
59393SOL    HW295790   8.842  11.698   8.204  0.5105 -0.3878  0.0633
59394SOL     OW95791  12.735   4.571   1.197  0.1302 -0.7641  0.4318
59394SOL    HW195792  12.751   4.538   1.109 -2.9371  0.1662 -0.5952
59394SOL    HW295793  12.698   4.497   1.245 -0.1792 -0.7228  0.2628
59395SOL     OW95794  12.299  10.225   1.338 -0.5544  0.2268 -0.0776
59395SOL    HW195795  12.263  10.254   1.421  0.5869 -1.1753  0.9615
59395SOL    HW295796  12.239  10.260   1.272 -1.5754  1.2273  1.3301
59396SOL     OW95797   8.975   1.209   5.064 -0.2754  0.2905  0.0404
59396SOL    HW195798   8.950   1.214   5.156  0.0666  1.9485  0.0803
59396SOL    HW295799   9.067   1.235   5.063 -0.2473  0.1760 -0.7554
59397SOL     OW95800  13.736  13.535  13.447  0.6771 -0.0431 -0.5745
59397SOL    HW195801  13.822  13.539  13.404  1.1101 -3.2765 -0.2890
59397SOL    HW295802  13.701  13.449  13.422 -1.1370 -0.0708  1.7085
59398SOL     OW95803  12.372   2.487  10.960  0.8481 -0.2111 -0.4336
59398SOL    HW195804  12.284   2.450  10.966  1.0310 -0.6377 -0.3066
59398SOL    HW295805  12.407   2.453  10.877  0.2590  1.3870 -1.3713
59399SOL     OW95806  11.934   3.916  13.445 -0.1113 -0.4525 -0.3826
59399SOL    HW195807  11.885   3.834  13.439  1.9162 -2.0860  2.9369
59399SOL    HW295808  11.885   3.968  13.509 -0.5672  0.3758 -1.3682
59400SOL     OW95809   1.317  13.404  11.577 -0.0607 -0.6578 -0.3004
59400SOL    HW195810   1.292  13.473  11.639  0.5599 -0.8965  0.2307
59400SOL    HW295811   1.243  13.343  11.578 -0.4853 -0.1532 -0.5505
59401SOL     OW95812   8.790   0.496   7.675  0.0784 -0.3877  0.0745
59401SOL    HW195813   8.750   0.583   7.676 -1.2221 -0.9427 -0.8089
59401SOL    HW295814   8.816   0.480   7.765  0.9421  1.1795  0.1269
59402SOL     OW95815   6.926   0.546  11.607  0.3910 -0.5874 -0.0986
59402SOL    HW195816   6.911   0.552  11.512  1.8555  0.3173 -0.3004
59402SOL    HW295817   6.842   0.571  11.645  0.4371  1.4635 -1.1731
59403SOL     OW95818   8.404   0.083   9.505 -0.3875 -0.0865 -0.3512
59403SOL    HW195819   8.421   0.137   9.582 -0.6142 -2.0726  1.1968
59403SOL    HW295820   8.474   0.018   9.505 -0.7020 -0.4514 -1.5287
59404SOL     OW95821   8.855   8.709  11.303 -0.1194  0.2881 -0.4733
59404SOL    HW195822   8.856   8.664  11.387 -3.1498 -0.9554 -0.9624
59404SOL    HW295823   8.945   8.703  11.271  0.9551  0.1324  2.2765
59405SOL     OW95824   5.746   1.213   2.067 -0.4036  0.3283 -0.0737
59405SOL    HW195825   5.799   1.146   2.023 -0.1957  0.8495 -0.6263
59405SOL    HW295826   5.756   1.193   2.160  0.6468  0.3238 -0.1750
59406SOL     OW95827   1.146  11.575   7.493 -0.0365 -0.0857 -0.0269
59406SOL    HW195828   1.224  11.621   7.461  0.5783 -0.2190  1.2101
59406SOL    HW295829   1.181  11.501   7.542 -0.9828 -0.8267 -0.4548
59407SOL     OW95830  10.065  12.914   9.218 -0.1772 -0.5772  0.1624
59407SOL    HW195831   9.991  12.974   9.225 -0.1442 -0.7133  2.2421
59407SOL    HW295832  10.045  12.859   9.143 -1.0561  0.8680 -0.7050
59408SOL     OW95833  11.353   5.358   8.230  0.3860 -0.0574  0.2831
59408SOL    HW195834  11.413   5.325   8.162  0.1543 -0.8614  0.4587
59408SOL    HW295835  11.353   5.290   8.297 -1.9088 -0.8509 -0.4135
59409SOL     OW95836   1.395   0.046  10.679  0.3167 -0.2297 -0.1773
59409SOL    HW195837   1.340   0.119  10.705  1.5626  0.3045  1.0718
59409SOL    HW295838   1.464   0.086  10.625  1.4258 -0.3048  1.1116
59410SOL     OW95839  13.784   4.083   5.782  0.3024  0.2505 -0.0969
59410SOL    HW195840  13.871   4.105   5.750  0.5467 -0.3309  0.1713
59410SOL    HW295841  13.727   4.090   5.705  0.7376 -0.2900 -0.4664
59411SOL     OW95842   7.153   6.685   0.494 -0.4094  0.0350 -0.3096
59411SOL    HW195843   7.184   6.759   0.548  1.2738 -0.1757 -0.9202
59411SOL    HW295844   7.139   6.614   0.556 -1.9728  0.8208  0.2770
59412SOL     OW95845   0.260  11.966   4.431 -0.0397  0.0589 -0.3475
59412SOL    HW195846   0.224  12.002   4.350 -1.5568 -1.8055 -0.5648
59412SOL    HW295847   0.253  12.038   4.494 -0.4437  0.9937 -1.4216
59413SOL     OW95848   8.320   1.816   2.323  0.4981 -0.0160 -0.4311
59413SOL    HW195849   8.284   1.791   2.238 -0.3404  0.1362 -0.1364
59413SOL    HW295850   8.384   1.748   2.343 -0.4782 -0.9746 -0.4413
59414SOL     OW95851   6.625   1.106   1.061  0.3167  0.1611 -0.0575
59414SOL    HW195852   6.555   1.045   1.084  0.1355  0.5174  0.3480
59414SOL    HW295853   6.680   1.058   1.000 -0.2486 -0.1461 -0.3271
59415SOL     OW95854   7.237   1.287  11.740 -0.0330  0.3114  0.5294
59415SOL    HW195855   7.241   1.192  11.755 -0.7631  0.0673 -0.6545
59415SOL    HW295856   7.260   1.326  11.824 -2.1860 -0.9276  1.7827
59416SOL     OW95857  13.668  13.370   0.442 -0.3058  0.1451  0.2379
59416SOL    HW195858  13.759  13.393   0.423  0.0089 -1.1810  0.0221
59416SOL    HW295859  13.617  13.415   0.375  0.2961  0.0502 -0.2928
59417SOL     OW95860   6.288   8.198  13.037  0.1341 -0.0502 -0.2072
59417SOL    HW195861   6.362   8.139  13.019  0.3563  0.5578 -1.3673
59417SOL    HW295862   6.285   8.257  12.961 -0.5463  0.9633  0.5816
59418SOL     OW95863   1.814   7.513   6.127 -0.5398 -0.1115 -0.0384
59418SOL    HW195864   1.878   7.580   6.105 -1.4670  0.8939  0.2742
59418SOL    HW295865   1.867   7.435   6.147  0.5434  0.5235 -0.3575
59419SOL     OW95866   0.691   2.063   9.490  0.5986 -0.1581 -0.1413
59419SOL    HW195867   0.706   1.969   9.489  0.5716 -0.1834  0.8077
59419SOL    HW295868   0.736   2.094   9.569 -2.1281  0.1470  1.3967
59420SOL     OW95869   4.598   4.831   3.854  0.4014 -0.0221 -0.3037
59420SOL    HW195870   4.570   4.796   3.769  0.6025  2.3138 -1.4113
59420SOL    HW295871   4.675   4.779   3.877  0.5169 -0.5031 -1.6915
59421SOL     OW95872  12.962  13.815   6.888 -0.6869  0.1903  0.1744
59421SOL    HW195873  12.910  13.860   6.955 -1.1471  0.5989 -0.4526
59421SOL    HW295874  13.011  13.885   6.845  0.0231 -0.1367  0.4420
59422SOL     OW95875   0.936   2.206   6.630  0.4603 -0.4179  0.0236
59422SOL    HW195876   1.024   2.179   6.658  0.6157 -0.0494 -0.0971
59422SOL    HW295877   0.946   2.225   6.536  0.5666  0.8806  0.2700
59423SOL     OW95878   4.289   5.445   3.883  0.2553  0.2556 -0.1690
59423SOL    HW195879   4.328   5.456   3.797  0.5274  2.5280  0.1703
59423SOL    HW295880   4.219   5.510   3.886 -0.6689 -0.7388  0.8376
59424SOL     OW95881  11.545  12.135  10.711  0.2921  0.4109  0.2227
59424SOL    HW195882  11.539  12.226  10.681  1.5278 -0.0802 -1.6793
59424SOL    HW295883  11.480  12.088  10.659 -0.2601  0.1665  1.1192
59425SOL     OW95884   0.450   3.149  10.816 -0.4720  0.2725  0.5487
59425SOL    HW195885   0.387   3.177  10.749 -2.0183 -0.1453  1.7808
59425SOL    HW295886   0.514   3.095  10.768 -0.7265  1.1566 -0.8186
59426SOL     OW95887   3.690  12.717   2.097  0.1913  0.2673  0.0922
59426SOL    HW195888   3.668  12.658   2.025  0.2037  1.3798 -0.8560
59426SOL    HW295889   3.785  12.713   2.103  0.0578 -2.1500  2.1177
59427SOL     OW95890   5.015  10.890  13.404  0.2885  0.1510  0.1779
59427SOL    HW195891   4.988  10.977  13.375  1.0860 -0.3161 -2.2519
59427SOL    HW295892   4.937  10.835  13.392  0.4519  0.0795 -0.6390
59428SOL     OW95893  12.864   1.009   7.206 -0.3438 -0.1917 -0.1052
59428SOL    HW195894  12.901   1.094   7.230  0.3363 -0.3030 -0.7541
59428SOL    HW295895  12.921   0.944   7.247 -0.4902 -0.3511 -0.1480
59429SOL     OW95896  13.338   0.602  13.634  0.0977 -0.0176 -0.1043
59429SOL    HW195897  13.391   0.528  13.661 -0.5192 -0.3159  0.2991
59429SOL    HW295898  13.256   0.563  13.604 -0.1143  0.4801 -0.1802
59430SOL     OW95899   1.738  12.534  11.812 -0.3528 -0.3394 -0.1839
59430SOL    HW195900   1.749  12.454  11.760  0.3662  1.2033 -2.5585
59430SOL    HW295901   1.677  12.587  11.761  0.5001  1.3308  0.4844
59431SOL     OW95902   6.199   0.913   4.879  0.3609  0.3750 -0.6959
59431SOL    HW195903   6.163   0.951   4.798 -0.6167  0.4201 -0.2522
59431SOL    HW295904   6.162   0.825   4.882 -0.2555  0.6516  0.1070
59432SOL     OW95905   9.919   4.858   4.451  0.4404  0.0995 -0.4859
59432SOL    HW195906   9.933   4.948   4.422 -0.6176 -0.0197 -1.4318
59432SOL    HW295907   9.825   4.845   4.441  0.1699 -0.3195  1.9832
59433SOL     OW95908   4.330   4.255   4.691 -0.0071 -0.4686 -0.4558
59433SOL    HW195909   4.235   4.250   4.692  0.0232 -1.7206 -1.4152
59433SOL    HW295910   4.351   4.283   4.602  0.4558  3.0725  0.6013
59434SOL     OW95911   0.369  12.485  14.090  0.1062  0.1401  0.2046
59434SOL    HW195912   0.300  12.459  14.150  0.1024  0.9084  0.5311
59434SOL    HW295913   0.351  12.434  14.010  0.3209 -1.1535  0.9426
59435SOL     OW95914  12.584  10.638   4.871 -0.5772  0.2492 -0.1360
59435SOL    HW195915  12.614  10.551   4.844 -1.3257  0.3207 -1.2519
59435SOL    HW295916  12.522  10.621   4.942 -0.9711 -0.1581 -0.5691
59436SOL     OW95917   6.823  11.344   2.958 -0.1939  0.6035 -0.1772
59436SOL    HW195918   6.853  11.361   3.047 -0.2025  1.3780 -0.3194
59436SOL    HW295919   6.833  11.249   2.947  3.5257  0.8937 -0.6825
59437SOL     OW95920   3.938   4.810   7.235 -0.0124 -0.3745 -0.0444
59437SOL    HW195921   3.994   4.741   7.201  0.9715 -1.3994  3.2391
59437SOL    HW295922   3.996   4.865   7.288 -1.1955  1.7145 -0.8044
59438SOL     OW95923   3.759   0.457  10.766 -0.4497  0.4888  0.6503
59438SOL    HW195924   3.775   0.395  10.837  1.4208 -0.5600 -0.6073
59438SOL    HW295925   3.708   0.408  10.701  0.2813  0.5133  0.0376
59439SOL     OW95926   9.470  10.097  11.340  0.1530 -0.5618 -0.1058
59439SOL    HW195927   9.451  10.011  11.378 -0.7323 -0.4596 -0.2761
59439SOL    HW295928   9.394  10.114  11.284  0.6323  0.0475 -0.5697
59440SOL     OW95929   0.706   3.612  12.773  0.3208  0.5143 -0.2125
59440SOL    HW195930   0.713   3.659  12.690  1.8913  0.8926  0.1014
59440SOL    HW295931   0.778   3.647  12.826 -0.4814  0.0667  1.1987
59441SOL     OW95932   3.819   7.526   5.684  0.4989  0.1836  0.3167
59441SOL    HW195933   3.765   7.540   5.606 -1.0917  0.7052  1.4556
59441SOL    HW295934   3.865   7.444   5.667  0.4560  0.4613 -1.3030
59442SOL     OW95935  12.802  12.689   8.609 -0.2099 -0.1461 -0.6399
59442SOL    HW195936  12.873  12.671   8.548 -1.3206  2.0671 -2.7830
59442SOL    HW295937  12.746  12.611   8.606  0.5404 -0.6704 -1.3210
59443SOL     OW95938   0.477   9.798   0.195  0.0989 -0.0935  0.0838
59443SOL    HW195939   0.515   9.776   0.280 -1.3997 -1.0127  0.5568
59443SOL    HW295940   0.530   9.751   0.131  0.5859 -0.2545  0.6083
59444SOL     OW95941  12.284   4.041   0.861  0.4456  0.3410 -0.0698
59444SOL    HW195942  12.378   4.057   0.868  0.4296  0.8226 -0.7659
59444SOL    HW295943  12.250   4.053   0.949  1.1818 -0.8463  0.3885
59445SOL     OW95944   3.431   6.121   1.318  0.1747  0.7321  0.1050
59445SOL    HW195945   3.398   6.106   1.406  0.5482 -0.3615  0.0827
59445SOL    HW295946   3.388   6.053   1.265  0.6331  0.8030 -0.3693
59446SOL     OW95947  11.815  14.021   6.817 -0.5424  0.5508  0.5395
59446SOL    HW195948  11.779  13.933   6.801  0.7410 -0.1867  1.4710
59446SOL    HW295949  11.888  14.028   6.755 -0.2676  0.7131  0.8780
59447SOL     OW95950  11.148   1.599   0.085  0.1395 -0.1416  0.3241
59447SOL    HW195951  11.113   1.649   0.012  3.0620  0.1590 -0.9977
59447SOL    HW295952  11.071   1.562   0.128 -1.7800  1.1780 -1.7897
59448SOL     OW95953   0.319   1.243   1.873 -0.0484  0.5188  0.0571
59448SOL    HW195954   0.405   1.212   1.903  0.3694  1.1150 -0.5006
59448SOL    HW295955   0.316   1.220   1.781 -1.3834 -1.4168  0.5216
59449SOL     OW95956  11.874  11.809   7.911 -0.1153 -0.4280  0.3200
59449SOL    HW195957  11.937  11.781   7.978  1.5859 -0.7090 -1.3189
59449SOL    HW295958  11.793  11.764   7.935  0.2577 -0.0729  2.4904
59450SOL     OW95959   1.902   1.817   6.195  0.3963  0.4983  0.3222
59450SOL    HW195960   1.847   1.891   6.169  1.7596  0.9944 -1.3127
59450SOL    HW295961   1.850   1.771   6.261 -0.2063  3.3264  2.0000
59451SOL     OW95962   7.361  11.341  13.948  0.3204  0.4635  0.3405
59451SOL    HW195963   7.362  11.246  13.959 -0.4220  0.5798  1.6112
59451SOL    HW295964   7.417  11.357  13.872  0.1234 -1.0157 -0.1518
59452SOL     OW95965   0.625   3.486   5.720 -0.7731 -0.7590  0.6810
59452SOL    HW195966   0.616   3.548   5.648 -1.1716 -2.0922 -0.4783
59452SOL    HW295967   0.558   3.420   5.703  0.2770 -2.0334  1.2803
59453SOL     OW95968   3.089  14.045   5.323 -0.6595 -0.4994 -0.0171
59453SOL    HW195969   3.142  14.028   5.401 -0.3612 -2.0611 -0.5141
59453SOL    HW295970   3.031  13.969   5.317 -1.9053  0.4500 -0.3499
59454SOL     OW95971  12.818   7.793  11.998 -0.5264 -0.2621  0.4788
59454SOL    HW195972  12.727   7.773  12.019 -1.3696  2.0876 -0.5412
59454SOL    HW295973  12.837   7.872  12.049  0.8853 -0.5677  0.4684
59455SOL     OW95974   7.265   4.903   5.488 -0.5125 -0.3979 -0.0568
59455SOL    HW195975   7.236   4.936   5.574  0.4404 -0.8854  0.4647
59455SOL    HW295976   7.351   4.865   5.505 -1.1559 -2.2917 -0.8400
59456SOL     OW95977  10.409   2.050  10.276 -0.1981  0.5206 -0.3933
59456SOL    HW195978  10.480   2.007  10.229  0.2074 -0.0172  0.6802
59456SOL    HW295979  10.333   2.042  10.217 -0.1535 -1.7076 -0.2635
59457SOL     OW95980   3.213   5.853   4.664  0.1886 -0.0917  0.7378
59457SOL    HW195981   3.289   5.911   4.659 -0.2139  0.5987  2.1857
59457SOL    HW295982   3.152   5.886   4.598  1.6866 -1.5872 -1.5674
59458SOL     OW95983  12.307   7.623   6.296 -0.2168 -0.6203 -0.5662
59458SOL    HW195984  12.319   7.689   6.365 -0.2958 -1.4241  0.2403
59458SOL    HW295985  12.396   7.604   6.266 -0.0826 -1.0133  0.0505
59459SOL     OW95986   0.471  13.008   5.496 -0.4323  0.2263  0.2024
59459SOL    HW195987   0.512  13.089   5.466 -0.2598 -0.1256 -0.5195
59459SOL    HW295988   0.406  12.988   5.430 -1.3257  0.4238  1.0064
59460SOL     OW95989   0.354  11.823  13.195  0.3967  0.2747 -0.0973
59460SOL    HW195990   0.336  11.793  13.106  0.4693 -1.5619  0.4509
59460SOL    HW295991   0.405  11.903  13.184  0.4681  0.0476 -1.6975
59461SOL     OW95992   6.197   6.128   0.762  0.1125 -0.3823 -0.4731
59461SOL    HW195993   6.266   6.088   0.815 -0.2633 -0.0025  0.3182
59461SOL    HW295994   6.226   6.219   0.749 -0.4996 -0.0582  0.3529
59462SOL     OW95995   4.140   2.838   9.614 -0.4070 -0.7788 -0.1031
59462SOL    HW195996   4.048   2.816   9.630 -0.7499 -0.4214 -1.4229
59462SOL    HW295997   4.156   2.809   9.524  0.8736 -1.1358  0.2232
59463SOL     OW95998   9.371  12.180  12.486  0.5113  0.3319 -0.5696
59463SOL    HW195999   9.282  12.212  12.503 -0.1406 -2.7257  2.7366
59463SOL    HW296000   9.372  12.090  12.518  4.9629  0.3363 -0.0363
59464SOL     OW96001   1.718  11.736   5.032 -0.0402 -0.0302 -0.8292
59464SOL    HW196002   1.657  11.672   4.995  0.0938  0.6258 -2.2471
59464SOL    HW296003   1.801  11.719   4.988  0.8037 -0.7978  0.9559
59465SOL     OW96004   1.913   1.525  13.550 -0.1671  0.1602  0.7016
59465SOL    HW196005   1.872   1.478  13.623  0.2871  4.0865  3.8911
59465SOL    HW296006   1.840   1.545  13.491 -0.9916 -1.1767  1.2196
59466SOL     OW96007   2.987   5.171   3.657 -0.0757 -0.3179  0.4934
59466SOL    HW196008   3.005   5.253   3.611  0.7461 -1.2862 -1.0085
59466SOL    HW296009   3.070   5.123   3.651 -1.0254 -1.9391 -0.1567
59467SOL     OW96010   0.677   3.069   3.330  0.1205 -0.4079 -0.0425
59467SOL    HW196011   0.747   3.099   3.387  0.1802 -1.6092  0.5316
59467SOL    HW296012   0.615   3.026   3.389 -0.4190 -0.5764 -0.7242
59468SOL     OW96013   4.527   4.457   7.596  0.4574  0.2443  0.6021
59468SOL    HW196014   4.501   4.384   7.652  0.5304 -0.2101  0.0535
59468SOL    HW296015   4.593   4.420   7.538 -1.5531 -0.0603 -1.6357
59469SOL     OW96016   0.359   6.583   6.769  0.1291 -0.3175 -0.1157
59469SOL    HW196017   0.398   6.646   6.829  1.3011 -1.5286  0.4635
59469SOL    HW296018   0.267   6.609   6.763  0.3560  0.8146  0.9025
59470SOL     OW96019   9.914  11.586  13.646 -0.2005  0.2530 -0.1016
59470SOL    HW196020   9.850  11.519  13.667  1.5481 -1.1494  0.9925
59470SOL    HW296021   9.894  11.659  13.705 -1.9705  0.6793 -1.1511
59471SOL     OW96022  10.495   4.483  12.807 -0.5200 -0.0989  0.2400
59471SOL    HW196023  10.472   4.529  12.727  1.7314 -1.3438 -1.2284
59471SOL    HW296024  10.435   4.408  12.810 -0.1798 -0.4127 -0.6542
59472SOL     OW96025   4.295   5.023  12.122  0.5839 -0.4411  0.4762
59472SOL    HW196026   4.377   4.986  12.155  2.2989  2.4059 -0.2004
59472SOL    HW296027   4.294   5.113  12.155 -2.0621 -0.2302  0.0497
59473SOL     OW96028   1.668   2.667  11.203 -0.1658  0.3072 -0.1245
59473SOL    HW196029   1.712   2.691  11.284 -0.6597  0.5707  0.0706
59473SOL    HW296030   1.630   2.749  11.172 -0.0945  0.1800 -0.5529
59474SOL     OW96031   2.486   3.445   1.384 -0.1635 -0.0910  0.4065
59474SOL    HW196032   2.416   3.492   1.338 -0.5512  0.5416  1.6059
59474SOL    HW296033   2.508   3.501   1.458  1.0307 -0.6943  0.5304
59475SOL     OW96034   7.309   2.006   7.296 -0.4954 -0.5370 -0.4194
59475SOL    HW196035   7.313   1.958   7.213 -1.5435 -1.1168 -0.1526
59475SOL    HW296036   7.325   2.097   7.271 -2.0313 -0.5035 -1.4677
59476SOL     OW96037   0.080  12.026  13.425 -0.5482  0.5100 -0.4463
59476SOL    HW196038   0.162  12.032  13.474 -0.5272  1.3009 -0.5702
59476SOL    HW296039   0.078  11.935  13.394  0.0680  0.3613 -0.0791
59477SOL     OW96040  11.041  13.726   4.686  0.7352 -0.0831 -0.5462
59477SOL    HW196041  10.972  13.756   4.626 -0.0439 -1.2637 -0.2819
59477SOL    HW296042  11.121  13.731   4.635  0.3087  0.3874 -1.1922
59478SOL     OW96043   0.618   9.516   7.809  0.2797 -0.1673 -0.1139
59478SOL    HW196044   0.658   9.539   7.725 -2.6395  1.4529 -1.2092
59478SOL    HW296045   0.569   9.594   7.834 -0.6770 -1.3707  2.0126
59479SOL     OW96046  13.846   5.530   9.847 -1.0624 -0.1451  0.1324
59479SOL    HW196047  13.908   5.546   9.776  1.4480 -0.3174  2.1317
59479SOL    HW296048  13.778   5.475   9.808 -0.4102  0.6649 -2.3569
59480SOL     OW96049   8.801  10.464   1.431 -0.1517  0.0718  0.1514
59480SOL    HW196050   8.891  10.446   1.403  0.4073 -0.1207  1.9637
59480SOL    HW296051   8.792  10.419   1.514 -1.7364  0.6138  0.3088
59481SOL     OW96052   7.929   0.617   0.862  0.4535  0.3807 -0.1652
59481SOL    HW196053   7.868   0.567   0.808  1.6525 -0.0275 -1.1935
59481SOL    HW296054   7.884   0.700   0.880 -0.3166  0.1641 -1.0545
59482SOL     OW96055   1.148   5.897   2.521 -0.0750 -0.3644 -0.1778
59482SOL    HW196056   1.175   5.897   2.429 -0.4108 -1.1408 -0.2844
59482SOL    HW296057   1.147   5.804   2.546 -0.0405 -0.1661  0.5948
59483SOL     OW96058   3.706   3.469   8.396 -0.1136  0.5205  0.2289
59483SOL    HW196059   3.691   3.557   8.430  1.0086 -0.3085  3.0850
59483SOL    HW296060   3.787   3.476   8.346  0.4021  0.9586  1.1116
59484SOL     OW96061   2.659   5.679   2.486 -0.0302 -0.0215 -0.3523
59484SOL    HW196062   2.630   5.769   2.497 -1.2053 -0.2065 -1.6055
59484SOL    HW296063   2.578   5.629   2.472  0.6345 -1.1901 -0.1894
59485SOL     OW96064   0.349   2.594  11.901  0.0865 -0.0015 -0.2870
59485SOL    HW196065   0.258   2.565  11.903 -0.2744  1.0886  1.1891
59485SOL    HW296066   0.353   2.658  11.830 -0.1811 -0.3650 -0.6352
59486SOL     OW96067   6.135  13.100  10.965  0.1484  0.4325 -0.6583
59486SOL    HW196068   6.204  13.079  11.028  0.7326  0.8933 -1.1310
59486SOL    HW296069   6.154  13.190  10.937  0.1157  0.1100 -1.7642
59487SOL     OW96070   9.615   0.038   0.910  0.3130 -0.5040  0.0233
59487SOL    HW196071   9.596   0.056   0.818  0.2749  0.0156  0.1319
59487SOL    HW296072   9.560   0.100   0.958  0.2945 -0.8115  0.3967
59488SOL     OW96073   6.059  12.939   8.182  0.5527  0.1221  0.4132
59488SOL    HW196074   6.123  12.942   8.111  1.0130  0.6310  0.8339
59488SOL    HW296075   5.981  12.981   8.146  1.2721  1.7753  0.6529
59489SOL     OW96076   6.443   5.764   0.891  0.4402  0.3230  0.1992
59489SOL    HW196077   6.356   5.743   0.857  1.4256 -1.9494 -1.2169
59489SOL    HW296078   6.445   5.726   0.978  0.0926  0.1503  0.1331
59490SOL     OW96079   4.352   8.102   6.703 -0.1682  0.0701 -0.2427
59490SOL    HW196080   4.359   8.169   6.635 -0.2071  0.7256  0.3883
59490SOL    HW296081   4.442   8.074   6.718 -0.3412 -1.7750 -2.1944
59491SOL     OW96082   9.427  12.854   6.726  0.4897 -0.1062  0.1028
59491SOL    HW196083   9.439  12.782   6.665 -0.0433 -0.6018  0.5691
59491SOL    HW296084   9.511  12.900   6.726  0.7861 -0.6368 -0.3162
59492SOL     OW96085   1.062  10.897   1.340  0.0681  0.0549 -0.2632
59492SOL    HW196086   1.127  10.837   1.304 -0.1678 -0.0342 -0.5451
59492SOL    HW296087   1.037  10.857   1.424 -1.4971 -1.2846 -1.2985
59493SOL     OW96088  13.048   8.607   5.977 -0.6838 -0.2294  0.1773
59493SOL    HW196089  12.970   8.659   5.996 -0.0525  0.6459  0.4258
59493SOL    HW296090  13.112   8.637   6.041 -0.1003 -0.8402 -0.1202
59494SOL     OW96091  11.509  10.151  13.655  0.5737 -0.3425  0.2370
59494SOL    HW196092  11.544  10.186  13.572 -0.4014 -0.9616 -0.4532
59494SOL    HW296093  11.444  10.216  13.682  2.4665  1.0276  1.7456
59495SOL     OW96094   6.927  10.404   6.208  0.1242  0.1765  0.3983
59495SOL    HW196095   6.859  10.366   6.263  0.2021  1.1150  1.1626
59495SOL    HW296096   6.881  10.434   6.129  0.0276 -1.2426 -0.1067
59496SOL     OW96097   2.545   5.930   3.609  0.0165  1.1346  0.2504
59496SOL    HW196098   2.478   5.961   3.548 -0.6412  1.7461  1.2642
59496SOL    HW296099   2.619   5.990   3.594  0.0508  0.9635 -0.2979
59497SOL     OW96100   3.349   3.279   7.799  0.4835  0.7665 -0.1498
59497SOL    HW196101   3.299   3.322   7.869  1.9130 -0.3296  1.6593
59497SOL    HW296102   3.384   3.200   7.841  0.6106 -0.4592 -2.4243
59498SOL     OW96103   3.819   5.879   8.778  0.1776  0.7971  0.5228
59498SOL    HW196104   3.788   5.852   8.864  2.5236 -1.6043  0.7404
59498SOL    HW296105   3.756   5.841   8.716  0.6315 -0.9510  1.0753
59499SOL     OW96106  12.867   6.025   2.846  0.1849  0.4139 -0.0748
59499SOL    HW196107  12.886   6.013   2.753 -0.2615 -0.2807 -0.0864
59499SOL    HW296108  12.949   6.006   2.891  0.0495 -0.6656 -0.2445
59500SOL     OW96109  10.345   2.409  13.978 -0.4717  0.0706  0.3959
59500SOL    HW196110  10.255   2.395  13.949  0.0964 -1.2096 -0.8846
59500SOL    HW296111  10.391   2.328  13.955  1.2940  1.1607 -0.1723
59501SOL     OW96112   4.354   1.045  10.640  0.0038 -0.4239 -0.6428
59501SOL    HW196113   4.273   0.994  10.630  0.0799 -0.6955  0.0974
59501SOL    HW296114   4.417   0.982  10.675 -0.3476  0.5385  1.9200
59502SOL     OW96115   4.847   5.064   4.921  0.0061  0.3241  0.4381
59502SOL    HW196116   4.890   5.065   4.836  1.3260  0.8535  1.0826
59502SOL    HW296117   4.896   5.001   4.973 -0.1523  0.7378  1.1163
59503SOL     OW96118   3.850   3.675   0.215 -0.1108  0.1579  0.4281
59503SOL    HW196119   3.898   3.608   0.166  1.1033  0.5562  1.0212
59503SOL    HW296120   3.852   3.752   0.158  0.9736  0.5085  0.9048
59504SOL     OW96121   4.411   5.520  10.392  0.0040  0.0031  0.4847
59504SOL    HW196122   4.357   5.593  10.421  1.2570  0.6609  1.2643
59504SOL    HW296123   4.349   5.455  10.359 -1.3705  0.0915  2.7197
59505SOL     OW96124   8.009   9.708   4.603 -0.0658 -0.0329 -0.6451
59505SOL    HW196125   7.919   9.731   4.623  0.0178 -0.3765  0.1495
59505SOL    HW296126   8.057   9.724   4.684  0.8409  1.3961 -1.4265
59506SOL     OW96127   1.614   1.033   9.109  0.0388 -0.5900 -0.0205
59506SOL    HW196128   1.683   1.099   9.116  0.0176 -0.7006  1.6748
59506SOL    HW296129   1.632   0.989   9.026  1.1425  0.3266 -0.3053
59507SOL     OW96130   6.428   3.427  10.507 -0.0736  0.2090  0.4962
59507SOL    HW196131   6.360   3.403  10.570 -1.0216  0.3420 -0.4512
59507SOL    HW296132   6.507   3.382  10.538 -0.9933 -1.3567  0.6736
59508SOL     OW96133  10.420  10.840   5.118  0.2909 -0.6282  0.2509
59508SOL    HW196134  10.450  10.924   5.083 -1.4982  0.0961  0.3790
59508SOL    HW296135  10.403  10.858   5.211 -0.0007 -1.1674  0.3057
59509SOL     OW96136   8.710   7.253  13.476 -0.3356  0.3468  0.3455
59509SOL    HW196137   8.747   7.314  13.540 -0.0845 -0.8909  1.3999
59509SOL    HW296138   8.615   7.262  13.487 -0.2944  0.1321  0.8997
59510SOL     OW96139   6.281   4.733  11.828 -0.6844 -0.2204  0.4004
59510SOL    HW196140   6.200   4.749  11.779  0.3936 -1.1097 -1.7975
59510SOL    HW296141   6.329   4.816  11.822 -0.2572 -0.5233 -0.7335
59511SOL     OW96142   0.105   9.653  13.710 -0.5484  0.5759 -0.2043
59511SOL    HW196143   0.088   9.583  13.646 -0.5163  0.9224 -0.5941
59511SOL    HW296144   0.039   9.720  13.691 -2.8004 -0.7025  2.2793
59512SOL     OW96145   3.721   1.431   6.545  0.1639  0.4443  0.2393
59512SOL    HW196146   3.754   1.451   6.457 -1.0320  0.8433 -0.1374
59512SOL    HW296147   3.724   1.336   6.550  3.0609  0.4628  0.9206
59513SOL     OW96148  11.435   4.802   0.044 -0.3132 -0.0166  0.6610
59513SOL    HW196149  11.467   4.892   0.053  0.4503 -0.0421 -1.3450
59513SOL    HW296150  11.380   4.804  -0.034  0.4611 -1.4648  0.0419
59514SOL     OW96151   9.217   9.779   6.077  0.1011  0.3372 -0.8246
59514SOL    HW196152   9.154   9.783   6.148  0.1380 -2.3394 -0.5388
59514SOL    HW296153   9.172   9.731   6.007  1.8611 -2.0754 -0.4328
59515SOL     OW96154   9.574   8.587  10.282  0.0558  0.2475 -0.0023
59515SOL    HW196155   9.515   8.612  10.354 -0.0804 -0.2925  0.0774
59515SOL    HW296156   9.627   8.665  10.266 -0.5522  0.6713  0.0554
59516SOL     OW96157   6.595   6.994   7.471  0.4213  0.0247 -0.4055
59516SOL    HW196158   6.500   6.991   7.477  0.2855 -1.7872 -2.4017
59516SOL    HW296159   6.614   7.082   7.441 -0.7516 -0.0339 -1.3892
59517SOL     OW96160   8.449  11.996   5.654  0.0803 -0.7194 -0.4460
59517SOL    HW196161   8.516  11.937   5.620  0.1574 -0.6301 -0.4498
59517SOL    HW296162   8.400  11.944   5.717  0.4906 -0.6311 -0.0450
59518SOL     OW96163   2.535   1.655  12.213  0.4163  0.8183 -0.0413
59518SOL    HW196164   2.460   1.614  12.256  0.5204 -0.7928 -1.3081
59518SOL    HW296165   2.507   1.745  12.197 -0.4141  0.8507  1.4108
59519SOL     OW96166   4.003   1.416   9.315  0.2082  0.6588 -0.3227
59519SOL    HW196167   3.973   1.466   9.239  0.9310  0.1470 -0.9665
59519SOL    HW296168   3.945   1.339   9.318  0.5546  0.3753 -0.7286
59520SOL     OW96169   8.840  11.523  13.330 -0.3281  0.9094 -0.2534
59520SOL    HW196170   8.871  11.609  13.300 -0.8945  0.1214 -3.4707
59520SOL    HW296171   8.784  11.492  13.259  0.2587 -2.3609  0.5675
59521SOL     OW96172   5.564  13.699  12.477 -0.2323  0.2650 -0.3016
59521SOL    HW196173   5.589  13.607  12.470 -1.1803  0.0573 -1.0946
59521SOL    HW296174   5.628  13.745  12.423  0.4509  0.1183  0.3697
59522SOL     OW96175  12.824  10.107  12.479  0.9994  0.0226  0.3094
59522SOL    HW196176  12.804  10.016  12.458 -1.3071  0.8647 -1.5723
59522SOL    HW296177  12.917  10.116  12.459  1.5806 -2.1425  1.6477
59523SOL     OW96178   3.186   3.995   6.746 -0.0803 -0.2496 -0.5398
59523SOL    HW196179   3.208   3.904   6.767 -1.7304 -0.7221 -0.7288
59523SOL    HW296180   3.140   3.990   6.663 -0.9169  0.6506 -0.1562
59524SOL     OW96181  11.141   0.451   8.412 -0.6031  0.1848  0.5000
59524SOL    HW196182  11.218   0.396   8.396 -1.1037 -0.4324  0.1574
59524SOL    HW296183  11.147   0.520   8.346 -0.8166 -0.3786 -0.1187
59525SOL     OW96184  11.438   7.621  10.709 -0.0866 -0.6491  0.0235
59525SOL    HW196185  11.473   7.709  10.702  1.1198 -1.1786 -0.9763
59525SOL    HW296186  11.423   7.608  10.803 -2.3900  1.3590  0.0436
59526SOL     OW96187   3.838  12.151   3.367 -0.0927  0.2403 -0.1426
59526SOL    HW196188   3.763  12.207   3.388  0.0232  0.6092 -0.6892
59526SOL    HW296189   3.846  12.156   3.271 -0.1491 -0.7985 -0.2164
59527SOL     OW96190   0.649   1.164   3.979  0.4401  0.6152  0.5195
59527SOL    HW196191   0.569   1.137   4.025  0.1846  0.3671 -0.0698
59527SOL    HW296192   0.627   1.251   3.945  0.5408  0.6872  0.6357
59528SOL     OW96193   0.291   6.210   7.770  0.1910 -0.0076 -0.0597
59528SOL    HW196194   0.202   6.178   7.756  0.2904 -0.6919  0.7739
59528SOL    HW296195   0.316   6.249   7.686 -0.9725  0.4121 -0.2321
59529SOL     OW96196  12.858   0.909   3.615 -0.1147 -0.1274  0.0968
59529SOL    HW196197  12.890   0.999   3.619 -1.0056  0.2011  0.0190
59529SOL    HW296198  12.774   0.912   3.659  0.3638 -1.1765  1.1292
59530SOL     OW96199   8.407  13.733  14.070 -0.1443  0.7511 -0.1760
59530SOL    HW196200   8.459  13.669  14.118  0.1431  0.7562 -0.4732
59530SOL    HW296201   8.472  13.789  14.027 -0.3822  0.4158 -1.0046
59531SOL     OW96202  10.777   5.037   1.328  0.1522 -0.3892 -0.3309
59531SOL    HW196203  10.700   4.995   1.289 -0.2130  1.4206 -1.7202
59531SOL    HW296204  10.765   5.130   1.309  0.8426  0.4303  2.7188
59532SOL     OW96205   3.830   3.522   3.773 -0.2960  0.6552 -0.1094
59532SOL    HW196206   3.835   3.445   3.829 -1.8699  0.8630  0.3657
59532SOL    HW296207   3.919   3.534   3.740  1.2731  1.6520  3.8334
59533SOL     OW96208  11.368   3.136   5.115  0.1488 -0.5234  0.0508
59533SOL    HW196209  11.408   3.155   5.200  0.0170  0.5119 -0.1010
59533SOL    HW296210  11.345   3.222   5.080 -1.3501 -1.0342 -0.2842
59534SOL     OW96211  12.919   3.183   9.365 -0.0416  0.3695 -0.7181
59534SOL    HW196212  12.950   3.093   9.355  0.3802  0.2437  1.2858
59534SOL    HW296213  12.926   3.220   9.277  0.7088 -1.2581 -1.3979
59535SOL     OW96214   5.115  13.456  10.472  0.0436 -0.1071 -0.4002
59535SOL    HW196215   5.198  13.502  10.466 -0.5604  1.0099 -0.3263
59535SOL    HW296216   5.058  13.499  10.409 -0.4182 -1.0325 -0.6392
59536SOL     OW96217   7.377   1.474  11.202 -0.1974 -0.4238  0.2734
59536SOL    HW196218   7.447   1.412  11.221 -0.7749 -1.2567 -0.2242
59536SOL    HW296219   7.419   1.541  11.148  0.9652  0.8878  2.6418
59537SOL     OW96220  11.813  13.430  13.978  0.6198  0.3758  0.0097
59537SOL    HW196221  11.873  13.440  13.904 -0.3670  0.6863 -0.7729
59537SOL    HW296222  11.774  13.343  13.965  2.0063 -0.5269  1.3923
59538SOL     OW96223  11.092   8.271  11.803 -0.3131 -0.2534 -0.4838
59538SOL    HW196224  11.034   8.345  11.821  0.2426 -0.1119  0.8443
59538SOL    HW296225  11.180   8.302  11.825 -0.2626 -1.8253  1.8971
59539SOL     OW96226  11.362  11.648   6.755  0.1420 -0.3213  0.3864
59539SOL    HW196227  11.455  11.640   6.775 -0.2056  0.7796  2.8072
59539SOL    HW296228  11.346  11.583   6.686  2.1873 -2.2957  1.6446
59540SOL     OW96229   2.381  13.266   4.299 -0.0035  0.0054 -0.4671
59540SOL    HW196230   2.467  13.241   4.330 -0.1123 -0.6222 -0.6479
59540SOL    HW296231   2.324  13.194   4.326 -0.2285 -0.2077 -1.4645
59541SOL     OW96232   7.397   2.006   2.225 -0.2870  0.1045  0.7617
59541SOL    HW196233   7.308   2.038   2.209 -0.2473 -0.5333 -0.8958
59541SOL    HW296234   7.386   1.931   2.283 -0.8869 -0.3316  0.0894
59542SOL     OW96235   2.789  13.807   8.648  0.1316  0.0134  0.5510
59542SOL    HW196236   2.795  13.712   8.632  0.0768 -0.1915  1.6808
59542SOL    HW296237   2.830  13.846   8.571  1.3076 -0.9651  0.6360
59543SOL     OW96238   2.162  13.569   8.875  0.1022 -0.0443 -0.6544
59543SOL    HW196239   2.200  13.526   8.951  1.0656  1.2708 -0.3589
59543SOL    HW296240   2.074  13.531   8.867  0.6437 -1.4801  0.0181
59544SOL     OW96241   4.370  12.540   5.862 -0.0771 -0.7660  0.8367
59544SOL    HW196242   4.331  12.594   5.793  0.8820 -1.5130 -0.3183
59544SOL    HW296243   4.323  12.457   5.858  1.1066 -1.4172 -0.0828
59545SOL     OW96244   8.137   9.134   4.626 -0.0231 -0.7068  0.1230
59545SOL    HW196245   8.091   9.210   4.591 -1.0225 -2.0320 -1.6694
59545SOL    HW296246   8.217   9.128   4.574  0.4745 -0.4075  0.8439
59546SOL     OW96247   4.746   6.299  12.094  0.0905  0.4128  0.2250
59546SOL    HW196248   4.830   6.325  12.055 -0.4623  1.6709 -0.1767
59546SOL    HW296249   4.745   6.341  12.179 -0.0683  0.2525  0.3037
59547SOL     OW96250   9.595  12.327  13.944  0.6983 -0.3547  0.2087
59547SOL    HW196251   9.579  12.415  13.977 -0.1041 -0.9141  1.3629
59547SOL    HW296252   9.606  12.273  14.022 -3.8133 -2.2245 -0.1009
59548SOL     OW96253   1.526   3.281   8.071 -0.0306  0.7287 -0.6095
59548SOL    HW196254   1.608   3.282   8.120 -0.7304  1.9635  0.6013
59548SOL    HW296255   1.540   3.340   7.997 -0.2261  1.9899  0.3326
59549SOL     OW96256   1.945   5.908  13.758 -0.7613 -0.0874 -0.5520
59549SOL    HW196257   1.903   5.827  13.786  0.4279 -0.3547  0.5897
59549SOL    HW296258   1.911   5.923  13.670 -2.3340 -0.8716 -0.1222
59550SOL     OW96259   6.992   7.070   6.217 -0.6320 -0.4289  0.2376
59550SOL    HW196260   6.957   7.077   6.306 -1.9090 -0.8903 -0.1970
59550SOL    HW296261   6.915   7.054   6.162 -0.7179  4.7578 -1.7058
59551SOL     OW96262  14.004   8.069   0.981 -0.1951  0.0740 -0.0576
59551SOL    HW196263  13.981   8.148   1.030 -0.2550 -0.4065  0.7095
59551SOL    HW296264  13.947   8.071   0.904  0.9227  1.5857 -0.8793
59552SOL     OW96265  12.060   2.192   2.426 -0.1508 -0.2634 -1.2156
59552SOL    HW196266  12.118   2.150   2.362 -0.6893 -0.1778 -1.7802
59552SOL    HW296267  11.973   2.158   2.405 -0.6605  1.3500 -1.9149
59553SOL     OW96268   1.185   4.167  10.171  0.1936 -0.3020 -0.7896
59553SOL    HW196269   1.261   4.151  10.227 -0.1861  1.0752  0.1839
59553SOL    HW296270   1.119   4.203  10.231 -1.7641 -2.7133 -1.2977
59554SOL     OW96271  10.229   4.864   9.827  0.4187  0.4673  0.2103
59554SOL    HW196272  10.233   4.927   9.755 -2.2864  2.0280  1.3088
59554SOL    HW296273  10.310   4.813   9.818 -0.3925 -0.4589 -4.7899
59555SOL     OW96274  13.518   4.837   2.083 -0.5588 -0.4238 -0.1729
59555SOL    HW196275  13.541   4.765   2.141  0.8818 -0.5120 -0.8293
59555SOL    HW296276  13.498   4.910   2.143  0.3521 -0.6741  0.4460
59556SOL     OW96277  11.455   4.739   7.664  0.4305  0.2947  0.1015
59556SOL    HW196278  11.454   4.665   7.604  0.1431 -0.1761  0.6813
59556SOL    HW296279  11.495   4.706   7.744 -0.6676  0.4532  0.7440
59557SOL     OW96280   5.877  10.941  13.928  0.1341  0.0109  0.0361
59557SOL    HW196281   5.971  10.958  13.938  0.0644  0.8835 -0.6014
59557SOL    HW296282   5.872  10.883  13.852  0.2833 -1.8571  1.4014
59558SOL     OW96283   2.713   1.648  11.770 -0.1437  0.0878 -0.2033
59558SOL    HW196284   2.704   1.660  11.864  1.6473  2.7653 -0.2773
59558SOL    HW296285   2.796   1.602  11.759  0.4722  1.2262 -0.4880
59559SOL     OW96286   2.302   4.635  13.320  0.5478  0.3322  0.1578
59559SOL    HW196287   2.303   4.707  13.384 -1.8774 -0.4447  1.1441
59559SOL    HW296288   2.288   4.556  13.372  2.8904 -0.9238 -0.9429
59560SOL     OW96289  10.142   7.784   9.853 -0.1733  0.1664 -0.0583
59560SOL    HW196290  10.058   7.784   9.807 -0.1118  1.0201 -0.1935
59560SOL    HW296291  10.124   7.832   9.935  0.2982  0.8222 -0.3305
59561SOL     OW96292   0.524   2.797   1.021  0.1256 -0.4059  0.1709
59561SOL    HW196293   0.615   2.829   1.022 -0.4270  1.2749  0.9084
59561SOL    HW296294   0.483   2.846   0.950 -0.0463 -1.7166 -0.6575
59562SOL     OW96295   2.367   3.450   7.845  0.2938  0.0262 -0.1572
59562SOL    HW196296   2.288   3.403   7.818  0.8413 -0.3691 -1.1233
59562SOL    HW296297   2.395   3.496   7.766  0.9243  0.3164  0.2331
59563SOL     OW96298   7.213   3.353   2.046  0.2006 -0.3346  0.0194
59563SOL    HW196299   7.307   3.336   2.058  0.6344  0.7805 -1.4852
59563SOL    HW296300   7.207   3.391   1.958 -1.6403 -0.1702  0.1876
59564SOL     OW96301  11.941  12.251   9.846  0.2473  0.0688 -0.3527
59564SOL    HW196302  11.864  12.219   9.798 -0.4840  0.3105  0.6268
59564SOL    HW296303  11.961  12.336   9.806 -0.4542  0.3454 -0.1243
59565SOL     OW96304  12.631   9.604   6.849 -0.3187  0.0649 -0.3105
59565SOL    HW196305  12.595   9.672   6.792  0.9243  0.3405 -0.7936
59565SOL    HW296306  12.645   9.528   6.792  1.6725  0.5956 -0.6188
59566SOL     OW96307  12.980   0.351  10.706 -0.6619  0.2644  0.4215
59566SOL    HW196308  12.962   0.262  10.675 -0.8196  0.2836  0.4543
59566SOL    HW296309  12.972   0.345  10.801  0.0365  0.1587  0.4758
59567SOL     OW96310   1.290   6.905  11.112 -0.3530 -0.4409  0.2380
59567SOL    HW196311   1.227   6.891  11.042 -0.3536 -0.2292  0.1942
59567SOL    HW296312   1.354   6.835  11.102  1.3804  1.2878 -1.8811
59568SOL     OW96313   6.053   7.999   2.628  0.6321 -0.1603  0.9304
59568SOL    HW196314   6.017   7.910   2.626  0.6242 -0.1401 -0.2523
59568SOL    HW296315   5.995   8.047   2.688 -0.8481 -0.3379 -0.2960
59569SOL     OW96316   1.744  10.414  11.198 -0.1711  0.2653  0.1310
59569SOL    HW196317   1.805  10.487  11.211  0.4839 -0.2263 -0.1178
59569SOL    HW296318   1.754  10.391  11.106  0.5607 -0.9371  0.4846
59570SOL     OW96319   8.484   5.844  10.831  0.7400  0.5322 -0.0145
59570SOL    HW196320   8.484   5.755  10.867  1.7709  0.3547 -0.4129
59570SOL    HW296321   8.520   5.898  10.901 -0.7990  0.8318  0.6028
59571SOL     OW96322  13.284   5.391   4.613 -0.5113  0.7784  0.1908
59571SOL    HW196323  13.289   5.469   4.667  0.7851  0.6131  0.3400
59571SOL    HW296324  13.361   5.340   4.637 -1.5284 -0.7482  0.3875
59572SOL     OW96325   2.483   3.174  10.829 -0.1840  0.5858 -0.0168
59572SOL    HW196326   2.468   3.254  10.778 -1.2437  1.2302  1.2388
59572SOL    HW296327   2.396   3.134  10.837  0.2873 -0.5875 -0.4115
59573SOL     OW96328   2.380  13.955   5.985 -0.0465 -0.0739  0.0565
59573SOL    HW196329   2.457  13.897   5.979 -1.1144 -1.5081 -0.3905
59573SOL    HW296330   2.347  13.942   6.073 -0.2130 -0.0472 -0.0022
59574SOL     OW96331   9.562   0.069   7.815  0.7805 -0.0843  0.4794
59574SOL    HW196332   9.535   0.013   7.888 -1.0272 -0.3540 -0.3473
59574SOL    HW296333   9.607   0.009   7.755  0.6499 -0.2380  0.5345
59575SOL     OW96334   2.575  10.388   9.098  0.5272  0.3287  0.1933
59575SOL    HW196335   2.611  10.397   9.187  1.6211 -1.9667  0.0473
59575SOL    HW296336   2.596  10.298   9.073 -1.3544  0.3604 -1.7238
59576SOL     OW96337   5.012   4.527   0.391  0.2170  0.3245 -0.7060
59576SOL    HW196338   5.022   4.435   0.365  0.0432 -0.3720  1.5177
59576SOL    HW296339   5.059   4.534   0.474  1.0469  2.5091 -1.2846
59577SOL     OW96340   3.505   7.972   8.712  0.1312 -0.5125 -0.1123
59577SOL    HW196341   3.436   7.921   8.669 -0.6318  0.7878 -0.4578
59577SOL    HW296342   3.560   8.003   8.640 -1.3206  1.9224 -0.2511
59578SOL     OW96343   7.824   5.321  10.977 -0.1581  0.3742 -0.0398
59578SOL    HW196344   7.831   5.312  10.882  0.7421 -0.1784  0.0651
59578SOL    HW296345   7.735   5.294  10.998 -0.4603  0.7975 -0.7567
59579SOL     OW96346  12.118  12.210   2.423 -0.3341  0.9890 -0.0733
59579SOL    HW196347  12.123  12.217   2.518 -0.0583 -1.0059  0.0981
59579SOL    HW296348  12.207  12.227   2.392  0.4185 -1.7439  0.3504
59580SOL     OW96349  13.243   0.268  10.195 -0.5930 -0.2335 -0.9055
59580SOL    HW196350  13.296   0.193  10.170  1.9612  1.4552 -0.9083
59580SOL    HW296351  13.225   0.254  10.288 -0.3493 -0.9664 -0.9614
59581SOL     OW96352   9.932   9.431   6.404 -0.0169  0.4139  0.4332
59581SOL    HW196353   9.969   9.519   6.409 -1.6010  1.3701 -2.4424
59581SOL    HW296354  10.007   9.373   6.405  1.1315  1.8362  1.3450
59582SOL     OW96355   3.840   5.262   4.535 -0.1384  0.1270  0.6149
59582SOL    HW196356   3.787   5.263   4.455  0.1866 -3.1348  0.2458
59582SOL    HW296357   3.776   5.265   4.606 -0.7705 -1.8385  0.1760
59583SOL     OW96358  10.546   2.678   7.131 -0.4146  0.3752  0.3548
59583SOL    HW196359  10.551   2.687   7.036  2.7078  0.2483  0.4096
59583SOL    HW296360  10.611   2.740   7.164  0.1553 -1.1610  2.2720
59584SOL     OW96361   5.700  12.340   0.069  0.0341 -0.1298 -0.5964
59584SOL    HW196362   5.719  12.258   0.023 -0.6808 -0.2119 -0.7528
59584SOL    HW296363   5.776  12.354   0.125  0.1740 -0.8844 -0.5858
59585SOL     OW96364   5.536   8.199   2.125  0.2036  0.5763  0.4645
59585SOL    HW196365   5.573   8.269   2.071  0.7843  1.3852  1.8549
59585SOL    HW296366   5.590   8.122   2.105  1.8820  1.4196  1.5079
59586SOL     OW96367  12.564  13.008   9.587 -0.0470  0.2291 -0.0690
59586SOL    HW196368  12.528  12.928   9.626  2.0289 -1.2161 -0.9448
59586SOL    HW296369  12.528  13.010   9.499  0.1571  0.1060 -0.1532
59587SOL     OW96370  12.630   3.152  14.068 -0.3320  0.7850  0.4005
59587SOL    HW196371  12.580   3.171  14.147  0.4645 -0.3194  1.2116
59587SOL    HW296372  12.575   3.182  13.996 -0.4434  3.1594  1.4155
59588SOL     OW96373  11.391  11.563   4.772 -0.1684 -0.3200 -0.1111
59588SOL    HW196374  11.445  11.507   4.716 -0.8860 -0.4843 -0.6490
59588SOL    HW296375  11.360  11.632   4.714 -1.1215 -0.6277  0.0219
59589SOL     OW96376   2.645   3.113   9.333  0.0336  0.5637  0.4368
59589SOL    HW196377   2.682   3.102   9.245  0.7370 -0.7848  0.8717
59589SOL    HW296378   2.556   3.145   9.318  0.4384  1.2059 -0.7275
59590SOL     OW96379  13.120  12.014   5.461  0.2540  0.1682 -0.1889
59590SOL    HW196380  13.082  12.088   5.413  2.4934  0.2206 -2.1048
59590SOL    HW296381  13.207  12.045   5.487  0.6648 -1.2956  0.2759
59591SOL     OW96382  13.967   0.603   2.747  0.6761 -0.0009 -0.0171
59591SOL    HW196383  13.885   0.626   2.791 -0.1405 -1.1402 -0.8667
59591SOL    HW296384  14.034   0.617   2.813 -0.4082 -0.7914  1.3162
59592SOL     OW96385   6.957   3.896   3.768  0.2860 -0.4574 -0.0597
59592SOL    HW196386   6.989   3.807   3.781  0.2447 -0.5872 -0.8136
59592SOL    HW296387   7.034   3.951   3.778  0.4139 -0.6231 -0.1230
59593SOL     OW96388  12.924   8.835   6.547  0.7521 -0.0704  0.6703
59593SOL    HW196389  12.996   8.773   6.561  2.1727  1.5533  0.9134
59593SOL    HW296390  12.914   8.878   6.632 -1.1532 -0.8569  0.8998
59594SOL     OW96391  12.357   9.945  13.100 -0.1216  0.1715  0.2590
59594SOL    HW196392  12.421   9.978  13.163 -1.6954  0.7268  1.6418
59594SOL    HW296393  12.273   9.952  13.145 -1.3899  0.9585 -2.0575
59595SOL     OW96394   7.772   1.914   0.056  0.2639 -0.3492  0.2163
59595SOL    HW196395   7.865   1.894   0.062  0.0316 -1.3495  0.7623
59595SOL    HW296396   7.756   1.930  -0.037  0.6702 -1.8048 -0.1268
59596SOL     OW96397   2.779   8.851  11.875  0.3235  0.0967  0.0029
59596SOL    HW196398   2.764   8.855  11.780  1.3808 -2.4626 -0.3566
59596SOL    HW296399   2.774   8.758  11.896 -0.1143  0.6203  2.5439
59597SOL     OW96400   3.749  12.020  10.305  0.1136 -0.1052  0.4731
59597SOL    HW196401   3.674  12.019  10.365  1.3030 -1.6889  2.0217
59597SOL    HW296402   3.779  11.929  10.302  1.0165  0.2140 -1.3720
59598SOL     OW96403   5.610   7.690   2.630  0.2228  0.4119  0.0498
59598SOL    HW196404   5.528   7.664   2.670 -0.3278  0.3068 -1.1045
59598SOL    HW296405   5.669   7.616   2.647  0.5740  1.1151  2.1797
59599SOL     OW96406   0.565  11.304   0.892 -0.2438  0.3221  0.3021
59599SOL    HW196407   0.614  11.380   0.923 -0.6269  0.6561  0.1013
59599SOL    HW296408   0.491  11.341   0.845  1.6316 -0.1089 -3.2921
59600SOL     OW96409  13.938  11.212  12.089 -0.3785 -0.0138  0.0362
59600SOL    HW196410  13.875  11.259  12.144 -2.3569 -0.7141 -1.5039
59600SOL    HW296411  13.960  11.134  12.140 -0.2089  0.5677  0.8830
59601SOL     OW96412  10.071   0.565   1.665  0.3457  0.3238 -0.3825
59601SOL    HW196413  10.042   0.553   1.575 -1.3398 -0.8579  0.2562
59601SOL    HW296414  10.011   0.510   1.717  1.0528  1.2226  1.4848
59602SOL     OW96415  10.850   1.853   8.581 -0.6241  0.5920  0.0065
59602SOL    HW196416  10.768   1.809   8.557 -1.2264  1.3754  0.5629
59602SOL    HW296417  10.883   1.803   8.655 -0.3058 -0.0451 -0.5491
59603SOL     OW96418   2.874  11.582   0.708 -0.0990 -0.0447  0.3233
59603SOL    HW196419   2.906  11.521   0.642 -0.7763  0.8768 -0.8866
59603SOL    HW296420   2.947  11.591   0.769  0.8673 -0.2429 -0.7631
59604SOL     OW96421  12.256   2.412   2.847 -0.5535 -0.7040  0.0578
59604SOL    HW196422  12.330   2.368   2.806 -0.0050  0.8211 -0.6659
59604SOL    HW296423  12.197   2.431   2.773 -0.2127  0.8234  0.1637
59605SOL     OW96424  11.913  12.188   8.528  0.0515 -0.2542  0.1331
59605SOL    HW196425  11.983  12.124   8.539 -0.9427 -1.2267  1.0766
59605SOL    HW296426  11.836  12.136   8.504 -0.3381  0.8019 -1.0361
59606SOL     OW96427   4.149   8.411   3.018  0.4246  0.5084  0.1634
59606SOL    HW196428   4.127   8.501   3.038  0.3278  0.2366  1.3182
59606SOL    HW296429   4.220   8.389   3.079  0.6015 -0.1238 -0.2590
59607SOL     OW96430   5.863  12.146   3.851  0.2906 -0.2215  0.0881
59607SOL    HW196431   5.957  12.154   3.864  0.3705 -0.3745 -0.4061
59607SOL    HW296432   5.831  12.236   3.855  0.1215 -0.3140  2.6898
59608SOL     OW96433   6.679   2.742  10.538  0.0291  0.4648  0.1111
59608SOL    HW196434   6.704   2.742  10.445 -0.4103 -0.2289 -0.0181
59608SOL    HW296435   6.620   2.666  10.546 -0.1358  0.6759  0.9020
59609SOL     OW96436   9.403  14.052  11.172  0.0101  0.3245  0.3199
59609SOL    HW196437   9.356  14.119  11.123 -0.6186 -0.3475 -0.0169
59609SOL    HW296438   9.485  14.040  11.125  0.0112  0.6707  0.2334
59610SOL     OW96439  12.822   6.030   1.080 -0.3498  0.1402 -0.2390
59610SOL    HW196440  12.916   6.041   1.095 -0.3486  0.2648 -0.3319
59610SOL    HW296441  12.812   6.039   0.985 -0.4443  0.0363 -0.2395
59611SOL     OW96442   6.610  11.770   1.688  0.1215  0.7093 -0.0553
59611SOL    HW196443   6.576  11.855   1.715  1.0798  1.7327 -1.8108
59611SOL    HW296444   6.623  11.722   1.769 -0.2247  2.3385  1.0177
59612SOL     OW96445   0.415   8.546  13.808  0.1477 -0.3943 -0.4007
59612SOL    HW196446   0.357   8.520  13.879  0.0358 -0.2112 -0.4252
59612SOL    HW296447   0.487   8.592  13.851  0.3461 -0.7420 -0.3565
59613SOL     OW96448   7.429   4.182   9.868  0.1268 -0.0877 -0.7129
59613SOL    HW196449   7.479   4.143   9.940  0.7965  0.6372 -0.7713
59613SOL    HW296450   7.383   4.256   9.907 -0.7759 -0.6440 -0.6990
59614SOL     OW96451   9.284   2.024   2.087 -0.3026 -0.0285 -0.0854
59614SOL    HW196452   9.287   1.936   2.049 -0.2846  0.3278 -0.9210
59614SOL    HW296453   9.201   2.026   2.135  0.1213 -0.8037  0.6984
59615SOL     OW96454   5.179   0.357   1.476 -0.5705 -0.7632 -0.1409
59615SOL    HW196455   5.087   0.332   1.475 -0.5474 -0.9160 -1.7548
59615SOL    HW296456   5.225   0.279   1.507 -0.9412 -0.9002  0.0632
59616SOL     OW96457  12.722   1.056  12.050 -0.1355 -0.2984 -0.3986
59616SOL    HW196458  12.651   1.003  12.085 -0.4820 -0.6602 -1.5982
59616SOL    HW296459  12.770   1.085  12.127 -0.5911 -1.4383  0.3502
59617SOL     OW96460  11.961   2.482   4.550  0.5811 -0.2290 -0.2368
59617SOL    HW196461  11.962   2.487   4.455  0.1752  0.5059 -0.2169
59617SOL    HW296462  12.015   2.406   4.572  2.0605  0.5596 -0.9931
59618SOL     OW96463   5.435  13.034   0.222  0.0581 -0.4021  0.0322
59618SOL    HW196464   5.405  12.994   0.304  0.2952 -1.0348 -0.1807
59618SOL    HW296465   5.511  13.087   0.247 -0.7518  0.5989  0.4508
59619SOL     OW96466   6.962   2.654  12.842  0.0192 -0.1985  0.1838
59619SOL    HW196467   7.056   2.662  12.828 -0.1651  0.8295 -0.6068
59619SOL    HW296468   6.930   2.607  12.765  0.1117 -2.2816  1.3575
59620SOL     OW96469  11.054   0.594  11.216  0.3126 -0.1786  0.0881
59620SOL    HW196470  11.117   0.620  11.283  0.1915 -2.1101  1.0426
59620SOL    HW296471  10.983   0.657  11.223 -0.2494 -0.9717  2.6560
59621SOL     OW96472   1.244   5.258   8.330  0.2531  0.1613 -0.0237
59621SOL    HW196473   1.231   5.167   8.356  0.9784  0.4811  1.5986
59621SOL    HW296474   1.160   5.284   8.291 -0.9942 -0.3838  2.1072
59622SOL     OW96475   8.593   4.497   1.323  0.0115  0.0180 -0.1964
59622SOL    HW196476   8.531   4.545   1.378 -0.8376  2.0754 -2.7546
59622SOL    HW296477   8.679   4.534   1.345 -0.3746  1.1609 -0.5594
59623SOL     OW96478  11.244  13.000  11.430 -0.4904 -0.5498  0.1062
59623SOL    HW196479  11.220  12.933  11.494 -1.8505 -1.1618 -0.9803
59623SOL    HW296480  11.241  12.954  11.345  0.5047  0.4199 -0.4810
59624SOL     OW96481   9.549  12.238   2.050 -0.9764  0.2353  0.9744
59624SOL    HW196482   9.640  12.212   2.059 -0.9079  0.8417  2.3371
59624SOL    HW296483   9.517  12.189   1.975  1.4906  2.8295 -2.0909
59625SOL     OW96484   6.411  11.370   7.661  0.6143  0.5555 -0.6422
59625SOL    HW196485   6.328  11.404   7.695  0.6859 -0.2010  0.3445
59625SOL    HW296486   6.476  11.437   7.684  0.5054  0.4873 -0.1251
59626SOL     OW96487   8.625  11.769  11.413  0.1309 -0.0094 -0.5949
59626SOL    HW196488   8.541  11.779  11.457 -0.2708  1.7213 -1.6696
59626SOL    HW296489   8.605  11.724  11.331  0.4352 -0.6046 -0.3480
59627SOL     OW96490  10.429   8.446   7.926 -0.8065  0.6448  0.3476
59627SOL    HW196491  10.512   8.452   7.974 -0.6676 -1.2490  0.4172
59627SOL    HW296492  10.387   8.531   7.940  0.1169  0.8481  2.2030
59628SOL     OW96493  10.242  11.379   5.613 -0.5815  0.1332 -0.0879
59628SOL    HW196494  10.298  11.331   5.674 -1.0188 -1.9015 -1.1915
59628SOL    HW296495  10.160  11.329   5.612 -0.7478  0.3704 -1.9528
59629SOL     OW96496  10.997   8.637  13.481 -0.1592 -0.0378  0.3660
59629SOL    HW196497  11.060   8.599  13.419 -0.4611 -1.1202  0.7021
59629SOL    HW296498  11.018   8.731  13.481  0.3416 -0.1254 -0.7943
59630SOL     OW96499   2.556   7.485   6.928  0.5011  0.0715 -0.2465
59630SOL    HW196500   2.464   7.511   6.915  0.6402  0.8572  0.2195
59630SOL    HW296501   2.605   7.567   6.920  0.8808  0.1682  2.1778
59631SOL     OW96502  12.500   3.067  10.934  0.0819  0.3721 -0.1854
59631SOL    HW196503  12.571   3.130  10.930 -1.0002  1.6471  0.1802
59631SOL    HW296504  12.539   2.990  10.976  1.1848  1.1301  0.2218
59632SOL     OW96505   0.717  11.463   6.846  0.2580  0.3184  0.2491
59632SOL    HW196506   0.780  11.527   6.879 -1.1697  1.5603  0.7080
59632SOL    HW296507   0.685  11.418   6.925 -0.5871  0.8416  0.2263
59633SOL     OW96508  13.086   4.734   7.683  0.4428  0.3361 -0.4337
59633SOL    HW196509  13.169   4.735   7.730  1.6566  3.0049 -2.3644
59633SOL    HW296510  13.110   4.718   7.592 -1.3975 -0.7099 -0.7860
59634SOL     OW96511   4.849  12.549   6.852 -0.2039  0.0139 -0.3847
59634SOL    HW196512   4.801  12.494   6.790  1.1171 -1.6050 -0.0652
59634SOL    HW296513   4.915  12.593   6.798 -0.3227  0.1512 -0.4187
59635SOL     OW96514   3.445   5.003   3.046  0.7956 -0.6379  0.2683
59635SOL    HW196515   3.494   4.948   3.106 -0.2643  1.1929  2.9847
59635SOL    HW296516   3.497   5.083   3.038 -0.1171  0.0034  0.5458
59636SOL     OW96517   9.046  12.316   9.416 -0.4219  0.3177 -0.2049
59636SOL    HW196518   9.136  12.318   9.448 -0.3467 -0.1855 -0.3766
59636SOL    HW296519   9.011  12.232   9.447 -0.0238 -0.6927 -2.3069
59637SOL     OW96520   0.860  10.944  11.682  0.1946 -0.3614  0.1105
59637SOL    HW196521   0.909  10.870  11.646 -0.9184 -0.7517 -0.6604
59637SOL    HW296522   0.805  10.974  11.610 -1.7864 -0.9073  1.3133
59638SOL     OW96523   6.571  14.077   8.030 -0.0037  0.3306 -0.0147
59638SOL    HW196524   6.597  14.076   7.938 -1.9957 -0.0403 -0.6106
59638SOL    HW296525   6.629  14.013   8.072  0.3585 -0.1299 -1.1668
59639SOL     OW96526   0.999  10.596   5.008 -0.5112 -0.1280  0.0418
59639SOL    HW196527   0.957  10.518   5.044 -2.5151  1.1421  0.6077
59639SOL    HW296528   1.074  10.610   5.065 -0.7758 -0.9868  0.6277
59640SOL     OW96529   0.419   2.000   2.159 -0.3639 -0.0529  0.3397
59640SOL    HW196530   0.467   2.026   2.237 -1.5577  0.5374  0.9005
59640SOL    HW296531   0.475   1.933   2.118  0.3069 -0.3402  1.6526
59641SOL     OW96532  13.357   5.948  12.581 -0.3394 -0.4749  0.0765
59641SOL    HW196533  13.334   6.037  12.557 -0.8477 -0.6355 -0.0578
59641SOL    HW296534  13.363   5.900  12.498  0.7522 -0.3865  0.0923
59642SOL     OW96535   9.246   1.432   9.253  0.0374  0.4765 -0.6822
59642SOL    HW196536   9.200   1.370   9.310  0.4277  0.4775 -0.3603
59642SOL    HW296537   9.196   1.514   9.262 -0.0432  0.4124 -0.5293
59643SOL     OW96538   3.263  12.545  10.742  0.1712  0.2032 -0.6188
59643SOL    HW196539   3.203  12.617  10.725 -1.5359 -1.0863 -0.2252
59643SOL    HW296540   3.326  12.581  10.805 -0.4929  1.4170 -0.6111
59644SOL     OW96541  13.376   0.962  11.980 -0.4515 -0.4672  0.4609
59644SOL    HW196542  13.294   0.942  11.934  0.4724 -0.4655 -1.3016
59644SOL    HW296543  13.437   0.984  11.910  0.7720  0.6030  1.8147
59645SOL     OW96544   3.313   7.236  12.854 -0.4891 -0.2267 -0.3621
59645SOL    HW196545   3.337   7.148  12.881 -2.2252 -1.5049 -2.6122
59645SOL    HW296546   3.252   7.267  12.921  1.8596  0.3001  1.6758
59646SOL     OW96547   2.413  13.241   2.322 -0.4812  0.1879 -0.3439
59646SOL    HW196548   2.376  13.264   2.408  1.2337  0.1398  0.4352
59646SOL    HW296549   2.476  13.311   2.304  2.3529 -1.9619  0.5012
59647SOL     OW96550   1.488   5.500   8.105  0.3237 -0.2426  0.0354
59647SOL    HW196551   1.500   5.426   8.045 -0.1094 -1.3147  1.2177
59647SOL    HW296552   1.482   5.460   8.192  0.1517  1.2001  0.7234
59648SOL     OW96553  12.855   0.610   2.394  0.1230 -0.2925 -0.0334
59648SOL    HW196554  12.839   0.606   2.300  1.0503 -1.0385 -0.1714
59648SOL    HW296555  12.917   0.682   2.404  0.7423 -0.8036 -0.1121
59649SOL     OW96556   9.615  11.134  10.029 -0.4710 -0.0360 -0.5802
59649SOL    HW196557   9.628  11.099  10.117 -0.9505  0.0403 -0.4751
59649SOL    HW296558   9.573  11.063   9.981  1.6785 -0.8589 -1.3659
59650SOL     OW96559   8.816   1.706   1.187 -0.1033 -0.4105  0.2617
59650SOL    HW196560   8.903   1.745   1.189 -0.3364  0.1287  2.4579
59650SOL    HW296561   8.825   1.629   1.132  1.9370 -0.7344  0.9764
59651SOL     OW96562  11.177   3.338  12.463 -0.1219  0.1593  0.4746
59651SOL    HW196563  11.213   3.276  12.526 -0.9379 -0.5064  0.3094
59651SOL    HW296564  11.179   3.423  12.508 -0.0024 -0.1788  1.1092
59652SOL     OW96565   1.610   9.001  13.370  0.5973  0.7144  0.0981
59652SOL    HW196566   1.557   9.002  13.291 -0.3103 -0.7613  0.6455
59652SOL    HW296567   1.688   8.951  13.347  0.4900  0.5728  0.0459
59653SOL     OW96568   8.506   3.724   3.510 -0.0632 -0.4887  0.5547
59653SOL    HW196569   8.441   3.755   3.573 -0.7553  1.1279 -0.8794
59653SOL    HW296570   8.546   3.804   3.475 -0.0983 -1.2805 -1.4330
59654SOL     OW96571  12.568   5.424  12.928 -0.7739 -0.1411 -0.0624
59654SOL    HW196572  12.645   5.413  12.984 -1.3812 -0.8280  0.6549
59654SOL    HW296573  12.592   5.494  12.867 -0.1962  0.8472  1.2546
59655SOL     OW96574   3.617  11.203  10.341  0.1692  0.0994 -0.5376
59655SOL    HW196575   3.582  11.123  10.302 -0.2398  0.9436 -1.9720
59655SOL    HW296576   3.707  11.208  10.309  0.8810 -0.7696  1.1532
59656SOL     OW96577  13.396   2.942   6.084  0.4210  1.0343 -0.4557
59656SOL    HW196578  13.379   3.028   6.045 -0.7995  0.3245 -1.5292
59656SOL    HW296579  13.424   2.963   6.174  0.0433  2.5493 -0.6554
59657SOL     OW96580   3.836   8.533   6.261 -0.3144 -0.1139 -0.4085
59657SOL    HW196581   3.845   8.587   6.183  1.0269  0.3010 -0.0095
59657SOL    HW296582   3.753   8.487   6.250 -0.5492  0.5684 -1.6693
59658SOL     OW96583   2.154   7.866  11.090 -0.2109  0.6131  0.3920
59658SOL    HW196584   2.146   7.949  11.137 -0.8969  0.8683 -0.1664
59658SOL    HW296585   2.227   7.879  11.030 -0.9778  1.1884 -0.4403
59659SOL     OW96586  11.680   8.696   4.880  0.3295  0.5716 -0.3779
59659SOL    HW196587  11.667   8.712   4.973  0.8502 -0.4006 -0.1228
59659SOL    HW296588  11.604   8.737   4.837 -0.2578  0.4437  0.5241
59660SOL     OW96589   0.499  11.352  13.620 -0.2738 -0.0821 -0.5598
59660SOL    HW196590   0.467  11.386  13.704 -0.5262 -0.6542 -0.4126
59660SOL    HW296591   0.594  11.366  13.623  0.0986 -2.3532  0.9440
59661SOL     OW96592   2.896   8.895   3.318  0.1194  0.0539 -0.1766
59661SOL    HW196593   2.947   8.842   3.379  0.6954  0.4508 -0.2986
59661SOL    HW296594   2.892   8.982   3.359 -0.3444  0.0638 -0.2355
59662SOL     OW96595   9.698   3.021   5.943 -0.5203 -0.1615 -0.6733
59662SOL    HW196596   9.693   3.113   5.970 -0.6854 -0.6155  0.9222
59662SOL    HW296597   9.614   2.984   5.969  0.7599 -1.5380  1.8204
59663SOL     OW96598  11.153   4.783   8.319  0.4693  0.1839 -0.3583
59663SOL    HW196599  11.241   4.814   8.339  0.9041 -0.1198 -1.6625
59663SOL    HW296600  11.119   4.846   8.255  0.2323 -0.3896 -0.8099
59664SOL     OW96601   5.703   2.304   8.261  0.3200  0.2265  0.0429
59664SOL    HW196602   5.710   2.242   8.333  2.8072  1.3364  0.8680
59664SOL    HW296603   5.613   2.296   8.231 -0.3144 -1.4751  2.1723
59665SOL     OW96604   5.694   0.062   0.380  0.1271  0.1274  0.4023
59665SOL    HW196605   5.741  -0.007   0.427  2.6145  1.0647 -0.5870
59665SOL    HW296606   5.735   0.065   0.294 -1.1476  1.6590 -0.2070
59666SOL     OW96607   0.873   6.785   9.186 -0.2969 -0.5753 -0.1394
59666SOL    HW196608   0.881   6.706   9.134 -0.1372  0.0476 -1.0885
59666SOL    HW296609   0.780   6.789   9.210 -0.0934 -1.6343  0.8909
59667SOL     OW96610  13.823   9.016   9.270  0.5713 -0.0481  0.0238
59667SOL    HW196611  13.841   9.039   9.179 -0.4733 -0.4831 -0.3108
59667SOL    HW296612  13.890   8.952   9.293  1.1612  0.4542 -0.2624
59668SOL     OW96613   7.363   3.353   0.840  0.3583  0.0007  0.1519
59668SOL    HW196614   7.400   3.395   0.763 -0.5850 -0.5439 -0.6200
59668SOL    HW296615   7.270   3.373   0.836  0.0869 -1.1233  0.4230
59669SOL     OW96616   8.520   4.475  12.127 -0.8311  0.4185  0.2885
59669SOL    HW196617   8.565   4.485  12.043  2.8973 -2.5318  1.6473
59669SOL    HW296618   8.457   4.405  12.112 -2.4445  1.9869 -0.6829
59670SOL     OW96619   1.629   2.462   6.042 -0.0539  0.1987  0.8001
59670SOL    HW196620   1.565   2.530   6.061 -0.5057  0.8166 -2.3371
59670SOL    HW296621   1.708   2.491   6.087 -1.2415  0.7442  2.6631
59671SOL     OW96622  12.968   5.454   2.596  0.4719  0.6940 -0.1204
59671SOL    HW196623  12.916   5.499   2.529  0.5566  0.6884 -0.1908
59671SOL    HW296624  12.949   5.361   2.583 -2.2495  0.7934  2.0718
59672SOL     OW96625   1.394  11.923   5.450 -0.5388 -0.2464  0.0613
59672SOL    HW196626   1.456  11.895   5.383 -1.4037 -1.9283 -0.0964
59672SOL    HW296627   1.448  11.946   5.525  0.4231  1.2322 -1.0163
59673SOL     OW96628   3.269  12.634  11.453  0.1710 -0.3881 -0.5429
59673SOL    HW196629   3.245  12.663  11.541  1.1389 -0.9412 -0.0774
59673SOL    HW296630   3.256  12.539  11.455  2.5068 -0.7599 -0.1801
59674SOL     OW96631  10.213   7.181   0.203 -0.6693  0.1344  0.3970
59674SOL    HW196632  10.122   7.205   0.217 -0.8998 -0.4688 -0.0288
59674SOL    HW296633  10.213   7.133   0.120  0.1892  0.9983 -0.1160
59675SOL     OW96634   7.030   7.904   3.568 -0.2209  0.1882 -0.2765
59675SOL    HW196635   6.946   7.949   3.561  0.3831  1.9383  2.2651
59675SOL    HW296636   7.007   7.811   3.574 -1.7607  0.3977 -2.0098
59676SOL     OW96637  12.041  12.603   9.459 -0.6758  0.0467 -0.0326
59676SOL    HW196638  12.090  12.609   9.378 -0.0147  0.8139  0.4103
59676SOL    HW296639  11.975  12.535   9.443 -0.8027  0.4639 -1.3273
59677SOL     OW96640   6.481  12.465  10.009 -0.0879 -0.0745  0.2361
59677SOL    HW196641   6.426  12.460   9.931  0.2753  0.6838 -0.0712
59677SOL    HW296642   6.474  12.378  10.049 -0.4552 -0.3936 -0.5137
59678SOL     OW96643   4.211   2.060   8.898  0.0647  0.3589  0.0323
59678SOL    HW196644   4.143   1.993   8.908 -0.5895  0.8697 -0.8365
59678SOL    HW296645   4.285   2.013   8.861  0.1400 -0.1758  0.8328
59679SOL     OW96646   1.340   9.717  13.207 -0.4409 -0.2033  0.0786
59679SOL    HW196647   1.305   9.639  13.249 -1.7201  0.6102  0.5859
59679SOL    HW296648   1.323   9.788  13.269  0.0334  0.6050 -0.6786
59680SOL     OW96649   6.323   8.560   1.103  0.5402  0.6546  0.9307
59680SOL    HW196650   6.410   8.589   1.132  1.6388  1.7926 -2.9612
59680SOL    HW296651   6.320   8.467   1.126  4.0992 -0.2146 -1.3043
59681SOL     OW96652  10.959   8.889   3.954  0.2839  0.0916 -0.3697
59681SOL    HW196653  11.006   8.961   3.910  0.4150  1.0750  1.2944
59681SOL    HW296654  11.023   8.853   4.015 -0.9009  1.1525  1.6080
59682SOL     OW96655  11.555   5.209   3.970 -0.3815 -0.0354  0.2585
59682SOL    HW196656  11.567   5.304   3.971 -0.7253  0.0165  1.3741
59682SOL    HW296657  11.460   5.197   3.966 -0.3037 -0.3544 -0.9642
59683SOL     OW96658  13.012   9.087   6.481  0.1945  0.0626 -0.4336
59683SOL    HW196659  13.104   9.091   6.509 -0.3959 -1.0512  1.9314
59683SOL    HW296660  12.980   9.004   6.516 -1.7085  0.4068 -1.2570
59684SOL     OW96661   6.897  11.924   3.892 -0.2227  0.4837 -0.3394
59684SOL    HW196662   6.874  11.831   3.890  0.0956  0.3951  0.0727
59684SOL    HW296663   6.867  11.958   3.808 -1.6590  0.3234  0.0849
59685SOL     OW96664   5.571   9.702   3.045 -0.0948  0.1051 -0.4795
59685SOL    HW196665   5.627   9.627   3.064  0.4497  0.2190 -1.5268
59685SOL    HW296666   5.633   9.771   3.019 -0.7148  0.0569 -2.2485
59686SOL     OW96667   1.715   7.484  10.681  0.0659 -0.2144  0.7077
59686SOL    HW196668   1.671   7.442  10.755 -0.7957  1.5053  1.2085
59686SOL    HW296669   1.746   7.567  10.715  0.4167  0.2309 -0.6389
59687SOL     OW96670   1.104   3.043   7.957  0.4809  0.2385 -0.5260
59687SOL    HW196671   1.032   2.981   7.947  1.1117 -0.3898 -1.2564
59687SOL    HW296672   1.094   3.076   8.046 -0.9057  0.4225 -0.7278
59688SOL     OW96673   8.526  13.557   2.551 -0.2529  0.3235 -0.3934
59688SOL    HW196674   8.583  13.630   2.527 -1.2624  0.7429 -1.6191
59688SOL    HW296675   8.578  13.506   2.613  1.0897  1.1909 -0.7503
59689SOL     OW96676   2.108   6.835  13.391  0.1002 -0.4276 -0.3074
59689SOL    HW196677   2.023   6.862  13.427  0.7004 -0.1437  0.9499
59689SOL    HW296678   2.092   6.828  13.297 -1.5084 -1.1196 -0.0225
59690SOL     OW96679   6.703   1.119   2.908  0.1703  0.2893 -0.6056
59690SOL    HW196680   6.631   1.062   2.935  0.6343  0.8938  2.1590
59690SOL    HW296681   6.667   1.207   2.913  0.7316  0.5125 -0.4023
59691SOL     OW96682   8.219   2.891   8.618 -0.4900  0.1927  0.0757
59691SOL    HW196683   8.134   2.922   8.651 -1.5171 -1.0926 -1.2098
59691SOL    HW296684   8.252   2.963   8.565 -1.0838  0.4963  0.1115
59692SOL     OW96685   9.310  12.078   1.617 -0.4725 -0.5589  0.1657
59692SOL    HW196686   9.381  12.124   1.662 -1.3398  0.3729  0.6172
59692SOL    HW296687   9.353  12.030   1.546  0.3586  1.8005 -1.0123
59693SOL     OW96688   3.162   7.442   1.505 -0.7284  0.4540 -0.0464
59693SOL    HW196689   3.165   7.537   1.498  0.3621  0.3375 -2.1603
59693SOL    HW296690   3.247   7.413   1.471  0.4847 -1.2064  3.7829
59694SOL     OW96691  14.043   0.779  12.433  0.0642  0.0259 -0.0134
59694SOL    HW196692  13.999   0.739  12.358  0.8658  0.8934 -0.9852
59694SOL    HW296693  14.069   0.705  12.488  0.3413 -0.7075 -1.0915
59695SOL     OW96694   8.293   2.647   8.466 -0.1240  0.1683  0.5215
59695SOL    HW196695   8.281   2.722   8.524 -2.2719  0.5391 -0.3025
59695SOL    HW296696   8.291   2.684   8.378  2.8304 -0.4129  0.1181
59696SOL     OW96697   8.957   3.206   7.617 -0.0582  0.0812  0.0607
59696SOL    HW196698   8.916   3.122   7.637 -0.1471  0.6683  2.7328
59696SOL    HW296699   8.884   3.261   7.587 -0.6163  0.0494  1.2673
59697SOL     OW96700   1.063   7.523   7.506 -0.6055 -0.5021  0.1790
59697SOL    HW196701   1.002   7.517   7.580  1.8651 -0.1850  2.4085
59697SOL    HW296702   1.055   7.438   7.462 -0.2191 -1.8222  2.4987
59698SOL     OW96703   2.247  10.079   4.279 -0.3846 -0.4260  0.0930
59698SOL    HW196704   2.213  10.003   4.231 -2.5230  0.4577  0.1134
59698SOL    HW296705   2.263  10.145   4.212 -2.0633  0.3402  0.4109
59699SOL     OW96706  12.448   5.433   5.147 -0.4736 -0.1250  0.1477
59699SOL    HW196707  12.519   5.448   5.209 -0.9498 -1.3211  1.0188
59699SOL    HW296708  12.369   5.435   5.200 -1.2730  2.3514 -0.9728
59700SOL     OW96709   7.898   1.555  10.715  0.4811 -0.2513  0.4514
59700SOL    HW196710   7.822   1.549  10.657  1.1286 -0.5423 -0.3897
59700SOL    HW296711   7.868   1.611  10.787  0.0482  1.2422 -0.8141
59701SOL     OW96712   3.289  11.947   7.983  0.2166  0.1108 -0.4596
59701SOL    HW196713   3.338  12.006   7.925  1.9687  1.2046  1.9388
59701SOL    HW296714   3.306  11.860   7.949 -0.0239  0.7537 -2.3899
59702SOL     OW96715   2.585   2.744   1.381  0.1031 -0.4508  0.3888
59702SOL    HW196716   2.605   2.690   1.456 -1.6486 -3.7764 -1.2908
59702SOL    HW296717   2.563   2.682   1.311  0.3008  2.4193 -2.5053
59703SOL     OW96718  12.030  13.886   7.969 -0.3417 -0.4931  0.0082
59703SOL    HW196719  12.112  13.838   7.960 -0.8453 -1.1319 -1.6605
59703SOL    HW296720  11.996  13.861   8.055 -0.4235 -2.9221 -0.6691
59704SOL     OW96721  10.384   5.259  11.621  0.7846  0.9116  0.2347
59704SOL    HW196722  10.441   5.331  11.646  0.7214  1.6336 -1.5386
59704SOL    HW296723  10.420   5.228  11.538  0.4746 -0.7516  0.6812
59705SOL     OW96724  13.282   1.047  12.578 -0.4122 -0.1398 -0.0584
59705SOL    HW196725  13.375   1.024  12.566 -0.2444  0.0423  0.8524
59705SOL    HW296726  13.271   1.054  12.672 -1.7610 -1.7523 -0.0645
59706SOL     OW96727   3.662   0.347   0.340  1.0180 -0.0856 -0.9222
59706SOL    HW196728   3.726   0.276   0.341  2.3269  1.0730 -0.1189
59706SOL    HW296729   3.666   0.381   0.250  0.9469 -0.5092 -1.0912
59707SOL     OW96730   4.245   7.719   3.847  0.1919 -0.2214  0.3675
59707SOL    HW196731   4.161   7.765   3.842  0.0779 -0.4798 -0.2026
59707SOL    HW296732   4.303   7.782   3.890 -0.2680 -0.0068  0.6939
59708SOL     OW96733   4.138   4.383  11.830 -0.4094 -0.3114 -0.1704
59708SOL    HW196734   4.108   4.430  11.908 -1.9268 -1.4229 -0.0382
59708SOL    HW296735   4.114   4.292  11.847 -2.3179 -0.3505 -2.6121
59709SOL     OW96736   2.632  12.386   9.245  0.4371  0.1040  0.4109
59709SOL    HW196737   2.685  12.321   9.200  1.8399  2.0681 -0.9530
59709SOL    HW296738   2.689  12.420   9.314 -0.3785 -0.2969  1.2996
59710SOL     OW96739  11.412   0.569  11.057 -0.0065 -0.1544 -0.1389
59710SOL    HW196740  11.451   0.571  11.145  0.4332 -1.6176 -0.2840
59710SOL    HW296741  11.421   0.659  11.026 -2.3742  1.0586  2.2334
59711SOL     OW96742   0.901   6.287  10.415  0.2482  0.1738  0.6199
59711SOL    HW196743   0.955   6.208  10.427  0.0587 -0.0590 -0.0271
59711SOL    HW296744   0.817   6.264  10.456 -1.0742 -1.3462 -2.5880
59712SOL     OW96745   9.710   2.747  10.217 -0.1678  0.1388  0.6436
59712SOL    HW196746   9.676   2.820  10.165  1.4934 -0.4001 -1.3387
59712SOL    HW296747   9.650   2.674  10.199  0.9988 -0.3631 -1.5532
59713SOL     OW96748   8.003   2.787   9.430 -0.3723 -0.1049 -0.4742
59713SOL    HW196749   8.047   2.723   9.374 -0.1848 -1.7714  1.4657
59713SOL    HW296750   7.919   2.803   9.387  0.7877  0.7762 -2.5981
59714SOL     OW96751   0.794   5.228  13.542 -0.0788 -0.5498 -0.4127
59714SOL    HW196752   0.830   5.176  13.615 -0.0600  0.7260  0.5101
59714SOL    HW296753   0.871   5.256  13.493  0.0323  0.0836  0.1163
59715SOL     OW96754  11.104   2.218   6.231  0.0532  0.0339 -0.4949
59715SOL    HW196755  11.065   2.301   6.257 -0.0826  0.5679 -2.2213
59715SOL    HW296756  11.184   2.211   6.282 -1.4628 -0.3338  1.9774
59716SOL     OW96757   9.475  12.720   0.679  0.2177 -0.2230  0.0261
59716SOL    HW196758   9.494  12.670   0.599  0.9802  0.0874  0.0011
59716SOL    HW296759   9.382  12.742   0.672 -0.3976 -2.3760  0.4672
59717SOL     OW96760  13.656   5.388   7.911 -0.2379  0.5117 -0.2301
59717SOL    HW196761  13.609   5.318   7.866  0.6338 -0.3392  0.1448
59717SOL    HW296762  13.695   5.346   7.988  1.9450  0.9082 -1.0349
59718SOL     OW96763   1.882   3.243  12.804 -0.0055  0.2187 -0.6767
59718SOL    HW196764   1.822   3.177  12.769 -2.3337  1.1743  1.2151
59718SOL    HW296765   1.968   3.201  12.804 -0.5566 -1.1775 -3.6453
59719SOL     OW96766   4.497   0.817   1.290  0.0346  0.6530  0.4723
59719SOL    HW196767   4.469   0.902   1.326 -0.6285  0.5165  0.3032
59719SOL    HW296768   4.592   0.821   1.290  0.0105  1.4813  0.2872
59720SOL     OW96769   9.192  10.788   9.806 -0.2268  0.2075 -0.0340
59720SOL    HW196770   9.157  10.829   9.727 -1.8225  0.4371  0.7587
59720SOL    HW296771   9.115  10.769   9.860  0.6122 -2.1231  0.4582
59721SOL     OW96772   7.656   1.878   6.047 -0.2779 -0.2151  0.8760
59721SOL    HW196773   7.646   1.876   6.142 -0.2001 -0.0128  0.8900
59721SOL    HW296774   7.703   1.797   6.026  1.8460  0.8326  1.2834
59722SOL     OW96775  13.562   3.184  11.697  0.0622 -0.1200  0.5211
59722SOL    HW196776  13.522   3.214  11.615  0.4884 -1.7796 -0.3546
59722SOL    HW296777  13.569   3.089  11.686 -1.2450 -0.5913  3.1251
59723SOL     OW96778   6.947   6.325   0.476 -0.2182  0.1938  0.2736
59723SOL    HW196779   6.963   6.359   0.565  1.0864  0.4156 -0.0224
59723SOL    HW296780   6.904   6.397   0.431  0.2374  0.5447  0.3841
59724SOL     OW96781   5.835   7.858  13.433  0.3122  0.0606 -0.1030
59724SOL    HW196782   5.795   7.771  13.440 -1.1778  0.6303 -1.2590
59724SOL    HW296783   5.819   7.898  13.518 -0.6898 -0.0965 -0.2068
59725SOL     OW96784  11.904   6.176   6.346 -0.1888  0.1905 -0.0617
59725SOL    HW196785  11.963   6.109   6.381 -1.2363 -0.4820  0.4806
59725SOL    HW296786  11.881   6.144   6.259 -1.9637 -1.0698  0.7888
59726SOL     OW96787   0.199  13.687  10.918  0.3897  0.1615  0.3877
59726SOL    HW196788   0.218  13.778  10.895  0.9400  0.3612  1.5745
59726SOL    HW296789   0.104  13.679  10.907  0.0845  1.3568  1.8744
59727SOL     OW96790   6.366  10.184   2.753  0.7384  0.0612  0.5435
59727SOL    HW196791   6.336  10.266   2.793 -1.6986 -0.5560  0.1702
59727SOL    HW296792   6.369  10.122   2.826  0.0321 -0.1192  0.4328
59728SOL     OW96793   0.913  10.652  12.513 -0.0999  0.1468  0.6079
59728SOL    HW196794   0.888  10.572  12.468 -1.2573  0.1836  1.1387
59728SOL    HW296795   0.840  10.712  12.496  0.5739  0.9598  0.5298
59729SOL     OW96796   5.997   5.335  13.022  0.2399  0.0752  0.4710
59729SOL    HW196797   5.920   5.339  13.079  1.1278  0.6395  1.6816
59729SOL    HW296798   6.029   5.245  13.032 -0.6767 -0.4073 -0.6531
59730SOL     OW96799   4.446   5.421   1.960 -0.1496 -0.1235 -0.5006
59730SOL    HW196800   4.446   5.502   2.011 -1.5101 -0.1256 -0.4667
59730SOL    HW296801   4.538   5.409   1.935  0.3469  0.5408  0.8798
59731SOL     OW96802   9.401   3.886   2.701 -0.0120  0.7838  0.4715
59731SOL    HW196803   9.323   3.924   2.660 -0.7983 -0.2873  0.9362
59731SOL    HW296804   9.438   3.958   2.752 -0.8797  1.2281  0.4994
59732SOL     OW96805   9.375   5.931   2.779 -0.2388  0.2786 -0.4045
59732SOL    HW196806   9.414   5.993   2.717 -2.0552  1.4902 -0.4158
59732SOL    HW296807   9.346   5.985   2.852 -1.3712 -0.6146 -0.1593
59733SOL     OW96808   5.055  12.842   6.243  0.4848 -0.1628 -0.1793
59733SOL    HW196809   5.120  12.901   6.280  0.4397  0.6091 -1.3016
59733SOL    HW296810   4.991  12.829   6.313  1.3857 -0.2597  0.6461
59734SOL     OW96811  12.118  13.532   2.611 -0.2819  0.2059  0.0471
59734SOL    HW196812  12.119  13.441   2.641  2.7449 -0.4195 -1.5833
59734SOL    HW296813  12.205  13.566   2.632 -0.1654  1.6350 -2.3447
59735SOL     OW96814   8.508   0.575   0.588 -0.2449  0.2470 -0.4433
59735SOL    HW196815   8.475   0.511   0.651  0.2473 -1.2619 -1.6339
59735SOL    HW296816   8.585   0.613   0.630 -2.1816  2.2562  1.4791
59736SOL     OW96817   5.622   8.288  10.565  0.4340 -0.3639 -0.0522
59736SOL    HW196818   5.544   8.330  10.528  0.4235  0.4278  0.8271
59736SOL    HW296819   5.641   8.338  10.645  1.5533 -0.8493  0.0117
59737SOL     OW96820  12.683  11.230   6.375  0.5997 -0.0686 -0.0827
59737SOL    HW196821  12.764  11.243   6.424  0.1197  0.0991  0.6888
59737SOL    HW296822  12.672  11.312   6.326  1.0237 -0.1933 -0.3947
59738SOL     OW96823   4.264   4.550   2.911  0.3486  0.9320  0.1673
59738SOL    HW196824   4.207   4.589   2.977  0.6955 -0.4682  1.3491
59738SOL    HW296825   4.339   4.516   2.960  0.8891  0.3311 -1.0173
59739SOL     OW96826  12.464   7.015   2.777  0.1263  0.3090  0.1693
59739SOL    HW196827  12.419   7.089   2.818  0.5484 -0.1527  1.5067
59739SOL    HW296828  12.440   7.020   2.685 -1.6794  0.7870  0.6415
59740SOL     OW96829   1.750   9.157   6.457  0.8611  0.0622  0.6552
59740SOL    HW196830   1.770   9.070   6.423  0.2409  0.1833 -0.0348
59740SOL    HW296831   1.727   9.209   6.380  1.0608  0.7949  1.0755
59741SOL     OW96832   1.728   6.797   0.624  0.2316 -0.5175 -0.5775
59741SOL    HW196833   1.808   6.800   0.572 -0.3220  0.5999 -1.4127
59741SOL    HW296834   1.659   6.822   0.563 -0.4253  0.9532  0.7068
59742SOL     OW96835  12.875   4.965  10.852  0.3429 -0.2689 -0.0231
59742SOL    HW196836  12.819   4.968  10.774  0.5103  0.1583 -0.1278
59742SOL    HW296837  12.930   5.044  10.846  0.3505 -0.2248  0.5273
59743SOL     OW96838   4.257   6.351   9.211  0.1381  0.0717 -0.2695
59743SOL    HW196839   4.299   6.332   9.295 -0.4586 -0.6999 -0.1284
59743SOL    HW296840   4.231   6.265   9.178 -1.7349  0.5364 -0.1202
59744SOL     OW96841   5.388   1.009   9.987  0.2565  0.3191 -0.7026
59744SOL    HW196842   5.296   1.022  10.010  0.0981 -0.9592 -0.4889
59744SOL    HW296843   5.429   1.094  10.002 -0.6620  0.6063  0.3689
59745SOL     OW96844   5.580   3.486  10.425 -0.4966 -0.5157 -0.7385
59745SOL    HW196845   5.619   3.464  10.340 -0.0993 -0.1012 -0.6712
59745SOL    HW296846   5.486   3.480  10.410 -0.4172 -1.4976 -0.9154
59746SOL     OW96847   0.653  12.160  12.317 -0.2240  0.0457  0.7544
59746SOL    HW196848   0.664  12.110  12.398  0.5289 -0.2675  0.4782
59746SOL    HW296849   0.567  12.136  12.284  0.2258 -1.3057  0.4934
59747SOL     OW96850   5.061   6.682  12.491 -0.1708 -0.0014 -0.7003
59747SOL    HW196851   4.992   6.627  12.529 -0.2374  0.1459 -0.6039
59747SOL    HW296852   5.110   6.714  12.567  0.1876 -0.3432 -0.7856
59748SOL     OW96853   9.385  12.090   0.881 -0.7939 -0.3282  0.2969
59748SOL    HW196854   9.325  12.163   0.896 -0.1919  0.3986 -0.6707
59748SOL    HW296855   9.387  12.080   0.785  0.7135 -0.2158  0.2791
59749SOL     OW96856  13.425   8.560   6.169  0.1409 -1.0818  0.0637
59749SOL    HW196857  13.349   8.504   6.152 -0.0610 -0.8902  0.3161
59749SOL    HW296858  13.479   8.509   6.230  0.0082 -1.0452  0.2133
59750SOL     OW96859  10.170   3.863  10.184 -0.2324 -0.0458  0.0157
59750SOL    HW196860  10.228   3.790  10.160 -0.6450 -0.2278 -0.4378
59750SOL    HW296861  10.082   3.828  10.171 -0.4275  0.6717 -0.6190
59751SOL     OW96862   8.950   4.589  10.094  0.5458  0.1591  0.2113
59751SOL    HW196863   8.970   4.532  10.020 -0.7606  0.4536 -0.3931
59751SOL    HW296864   8.984   4.543  10.170 -0.2012 -1.2822 -0.3063
59752SOL     OW96865   1.502   9.388  11.168 -0.1372  0.0718 -0.0788
59752SOL    HW196866   1.508   9.334  11.247  1.8620  0.4436  0.0887
59752SOL    HW296867   1.580   9.364  11.117  0.6531  2.5166 -0.1400
59753SOL     OW96868   8.627  12.038   4.048  0.1347 -0.0634  0.1108
59753SOL    HW196869   8.576  12.074   3.975  0.4120  1.2409  0.5347
59753SOL    HW296870   8.562  12.019   4.115 -0.2386 -2.1107 -0.7478
59754SOL     OW96871  10.091   3.332   6.169  0.3978  0.0833 -0.0152
59754SOL    HW196872  10.123   3.400   6.110 -0.4066  1.6064  1.2453
59754SOL    HW296873  10.123   3.357   6.255 -0.3215 -0.8763  0.5575
59755SOL     OW96874   3.990   2.565   1.132 -0.1401  0.0011  0.3923
59755SOL    HW196875   3.948   2.479   1.127 -3.5713  1.5335 -0.4099
59755SOL    HW296876   3.981   2.601   1.043 -0.3370  1.8115  1.1059
59756SOL     OW96877  12.943   4.225   1.958  0.6773 -0.0949  0.0220
59756SOL    HW196878  12.935   4.320   1.947  1.8379  0.1333  0.9601
59756SOL    HW296879  12.928   4.210   2.051 -0.2494 -0.9420 -0.2445
59757SOL     OW96880   4.461  12.163   6.881  0.0506 -0.6480  0.4850
59757SOL    HW196881   4.530  12.131   6.822 -1.1897 -1.9197 -0.3547
59757SOL    HW296882   4.380  12.138   6.837 -0.9886  1.7015  0.9473
59758SOL     OW96883  10.169  13.360   6.107 -0.6161  0.2827  0.4192
59758SOL    HW196884  10.205  13.335   6.192  0.0614  0.3528  0.1596
59758SOL    HW296885  10.153  13.277   6.062 -0.7868  0.2516  0.5355
59759SOL     OW96886   9.063   9.399   3.706  0.5781 -0.3026  0.0177
59759SOL    HW196887   9.017   9.326   3.746 -0.5118  0.6629  0.5708
59759SOL    HW296888   9.148   9.362   3.680  0.3122 -1.5887  0.8785
59760SOL     OW96889  13.672   3.071   2.505 -0.5529  0.5710  0.5402
59760SOL    HW196890  13.655   3.144   2.445 -1.1319  1.7497  2.0699
59760SOL    HW296891  13.588   3.025   2.510 -0.2311 -0.1474 -0.2974
59761SOL     OW96892   5.504   5.833  11.675  0.7331 -0.2226 -0.1765
59761SOL    HW196893   5.560   5.860  11.748  0.9611 -0.1634 -0.3754
59761SOL    HW296894   5.415   5.839  11.710  0.7483  1.1580 -0.3326
59762SOL     OW96895   9.700   2.084  10.983  0.9020  0.1659  0.0675
59762SOL    HW196896   9.735   2.136  10.910  0.7630  0.8825  0.5002
59762SOL    HW296897   9.706   2.142  11.059  0.2597 -0.2736  0.4652
59763SOL     OW96898   5.631   1.021  10.821  0.8560 -0.3290  0.0673
59763SOL    HW196899   5.677   1.086  10.874  1.3363 -1.4586  1.0777
59763SOL    HW296900   5.699   0.982  10.767  0.5737 -0.0241 -0.5133
59764SOL     OW96901   0.725   3.909   7.310 -0.4162 -0.0681  0.1179
59764SOL    HW196902   0.709   3.843   7.377 -0.1971 -0.8677 -0.6090
59764SOL    HW296903   0.648   3.965   7.313 -1.2551 -1.1724 -0.1996
59765SOL     OW96904  11.978  11.168   0.709  0.2593 -0.0185 -0.0945
59765SOL    HW196905  12.057  11.125   0.741  1.2988  1.8120 -0.1012
59765SOL    HW296906  12.008  11.227   0.640 -1.0802  0.8410  0.0146
59766SOL     OW96907   8.169   1.325   2.610  0.2804  0.0075 -0.0824
59766SOL    HW196908   8.242   1.376   2.646  0.5309  0.8171 -1.6282
59766SOL    HW296909   8.196   1.234   2.619  1.2867  0.2843 -0.2085
59767SOL     OW96910  12.172   4.335   6.396  0.5176  0.0089 -0.3751
59767SOL    HW196911  12.208   4.422   6.378  0.2828 -0.3850 -3.3012
59767SOL    HW296912  12.129   4.344   6.481  0.9688  2.5861 -0.3269
59768SOL     OW96913   2.176  13.365  12.590  0.0689 -0.0573 -0.1650
59768SOL    HW196914   2.172  13.398  12.680 -1.8502  0.2484 -0.3256
59768SOL    HW296915   2.173  13.270  12.599  0.2258 -0.0382  0.1016
59769SOL     OW96916   7.733  11.879  11.715  0.4563  0.1896 -0.0206
59769SOL    HW196917   7.650  11.884  11.763  0.8685  0.0723  0.7087
59769SOL    HW296918   7.780  11.959  11.739  0.4973  0.3320 -0.5527
59770SOL     OW96919   7.882   2.377  11.665 -0.0117  0.3806  0.0437
59770SOL    HW196920   7.802   2.424  11.684 -0.2307  0.3060 -0.6584
59770SOL    HW296921   7.949   2.419  11.720 -0.5385  0.3951  0.6806
59771SOL     OW96922  13.438   2.104   9.578 -0.2761  0.0781  0.0992
59771SOL    HW196923  13.473   2.017   9.560  0.2678 -0.0084  1.4189
59771SOL    HW296924  13.440   2.149   9.494 -0.9113 -1.2991 -0.6765
59772SOL     OW96925   3.625   5.569   3.397 -0.4635 -0.3073  0.2347
59772SOL    HW196926   3.567   5.499   3.427  0.0323 -0.1946  1.5228
59772SOL    HW296927   3.673   5.595   3.476 -1.0363  1.8700 -0.0802
59773SOL     OW96928   3.961   8.232   6.569 -0.3648 -0.0696 -0.0057
59773SOL    HW196929   4.029   8.296   6.594 -0.6352  0.2451 -0.0646
59773SOL    HW296930   3.887   8.253   6.625 -0.4508 -0.3481 -0.0135
59774SOL     OW96931   3.442   3.158   3.278 -0.2556 -0.2146 -0.2995
59774SOL    HW196932   3.456   3.251   3.297 -1.3944  0.5035 -2.5577
59774SOL    HW296933   3.513   3.135   3.217 -0.9435 -0.3277 -1.0768
59775SOL     OW96934  11.529   8.515  13.302  0.1069  0.1522 -0.7041
59775SOL    HW196935  11.454   8.493  13.358  0.4569  0.0063 -0.2826
59775SOL    HW296936  11.518   8.462  13.224  0.9788 -1.6602  0.3238
59776SOL     OW96937  12.237   2.514   3.543 -0.2835  0.2348 -0.1215
59776SOL    HW196938  12.315   2.502   3.488 -0.5861  1.1288 -0.7644
59776SOL    HW296939  12.167   2.534   3.481 -0.8324  0.3241  0.5239
59777SOL     OW96940   6.293   5.997   9.884  0.1623  0.4706  0.3866
59777SOL    HW196941   6.230   5.999   9.813 -0.4662 -1.0269  0.8541
59777SOL    HW296942   6.322   6.088   9.894 -1.2781  1.0416 -0.3910
59778SOL     OW96943   2.704  10.497  14.064  0.3488  0.0160 -0.1474
59778SOL    HW196944   2.775  10.562  14.071  1.1146 -0.6316 -1.5937
59778SOL    HW296945   2.669  10.510  13.976 -0.7493 -0.2915  0.2342
59779SOL     OW96946   0.635   6.031   7.148 -0.0910  0.1038  0.3310
59779SOL    HW196947   0.550   6.048   7.108  0.1194  0.7492  0.1498
59779SOL    HW296948   0.696   6.088   7.101  0.4812 -0.4998  0.3220
59780SOL     OW96949   2.744   7.028   5.611  0.0001  0.3585  0.3489
59780SOL    HW196950   2.795   6.947   5.615 -0.6895 -0.2543 -1.9743
59780SOL    HW296951   2.782   7.083   5.680  2.5225 -0.7831 -0.0132
59781SOL     OW96952   7.312  13.289   4.609 -0.7195  0.3534  0.1414
59781SOL    HW196953   7.404  13.263   4.615 -1.1108 -1.0395  0.4985
59781SOL    HW296954   7.290  13.280   4.516 -0.8192 -0.5450  0.2439
59782SOL     OW96955   7.070  12.823   3.341 -0.0866  0.1414  0.4012
59782SOL    HW196956   7.051  12.731   3.323  1.3965 -0.0936 -0.0475
59782SOL    HW296957   7.055  12.868   3.258 -0.5525  0.2816  0.5540
59783SOL     OW96958   2.196   2.799  10.016 -0.2373  0.1815  0.1286
59783SOL    HW196959   2.142   2.808  10.094 -0.0373  1.8918  0.1097
59783SOL    HW296960   2.265   2.865  10.026 -0.2232  0.4729 -1.4905
59784SOL     OW96961   2.049   7.437  12.530 -0.4027  0.0774 -0.1600
59784SOL    HW196962   1.956   7.432  12.511 -0.4967  0.4499  0.1899
59784SOL    HW296963   2.071   7.351  12.564 -0.9854  0.4877  1.3438
59785SOL     OW96964   2.328   1.099   1.375 -0.0220  0.5660  0.2956
59785SOL    HW196965   2.311   1.184   1.414 -2.8571  0.6822 -0.9567
59785SOL    HW296966   2.328   1.038   1.449  1.0400  1.4912  1.0849
59786SOL     OW96967   6.847  11.669   9.364 -0.6484 -0.3957 -0.0301
59786SOL    HW196968   6.810  11.757   9.364 -1.6927 -0.7540  2.4105
59786SOL    HW296969   6.941  11.682   9.373 -0.7357  0.4587 -0.2816
59787SOL     OW96970  12.212   1.752   8.356  0.3425  0.0806 -0.0295
59787SOL    HW196971  12.170   1.668   8.340  2.2855 -0.8130 -0.8761
59787SOL    HW296972  12.203   1.767   8.450  0.0236 -1.1275  0.1462
59788SOL     OW96973   4.732  13.590   1.005  0.3366 -0.3167 -0.5663
59788SOL    HW196974   4.768  13.651   1.069 -0.1326 -0.0106 -0.5912
59788SOL    HW296975   4.701  13.516   1.057 -1.3902  0.5639 -0.2600
59789SOL     OW96976   6.267   8.673  13.662 -0.3168  0.4605  0.4673
59789SOL    HW196977   6.228   8.592  13.628 -1.7508  1.2567  0.0973
59789SOL    HW296978   6.352   8.646  13.697 -1.2672 -1.4353  1.5024
59790SOL     OW96979   3.798   6.214   5.308  0.0869 -0.0121  0.2899
59790SOL    HW196980   3.812   6.281   5.374  0.6809  0.0886  0.0727
59790SOL    HW296981   3.768   6.262   5.231  0.0380 -0.0513  0.2848
59791SOL     OW96982   3.350   7.187   2.535  0.6564  0.1928 -0.3161
59791SOL    HW196983   3.434   7.220   2.568  0.9743 -0.4969 -0.3953
59791SOL    HW296984   3.292   7.190   2.611  1.0279 -0.2106 -0.0103
59792SOL     OW96985   6.961   2.191   1.648 -0.1130 -0.3329  0.1932
59792SOL    HW196986   6.957   2.200   1.553  1.1242 -1.6949 -0.0110
59792SOL    HW296987   7.032   2.250   1.675  0.7848 -1.3304  0.0500
59793SOL     OW96988  13.144   4.534   3.473 -0.1705  0.1757  0.4330
59793SOL    HW196989  13.096   4.500   3.548 -0.0094  0.0149  0.4619
59793SOL    HW296990  13.158   4.626   3.494 -1.6668  0.5847 -0.1734
59794SOL     OW96991   9.249   5.914   0.030 -0.4324 -0.1744 -0.2251
59794SOL    HW196992   9.282   5.824   0.031 -0.2372 -0.1036 -0.3039
59794SOL    HW296993   9.327   5.968   0.024 -0.5676 -0.0098 -0.5195
59795SOL     OW96994   5.177  13.344   6.449 -0.4125  0.0633 -0.1041
59795SOL    HW196995   5.108  13.332   6.514 -1.0981 -0.1563 -0.8596
59795SOL    HW296996   5.218  13.427   6.474 -0.6931  0.0033  0.5828
59796SOL     OW96997  12.205   8.351   5.122  0.5555  0.2425  0.7055
59796SOL    HW196998  12.183   8.293   5.195  0.7368 -1.0959 -0.2709
59796SOL    HW296999  12.121   8.376   5.085  0.4868  0.2867  0.8879
59797SOL     OW97000   3.192   4.343   1.265  0.0758 -0.0990  0.2284
59797SOL    HW197001   3.254   4.296   1.210 -2.0370 -0.0097 -2.4444
59797SOL    HW297002   3.167   4.420   1.213 -1.3012  0.5351  1.7392
59798SOL     OW97003   3.093   2.332  12.542 -0.3170 -0.7717 -0.0684
59798SOL    HW197004   3.046   2.397  12.594 -1.4976  1.2920 -3.3709
59798SOL    HW297005   3.185   2.350  12.558 -0.6428  0.2678  0.7612
59799SOL     OW97006   7.957   5.098   0.683 -0.1284  0.5734 -0.2568
59799SOL    HW197007   7.940   5.188   0.711 -0.2173  0.1926  0.9710
59799SOL    HW297008   7.914   5.044   0.750  1.2020 -0.3898 -0.1491
59800SOL     OW97009  11.232   2.867   0.181 -0.1936 -0.2090 -0.0167
59800SOL    HW197010  11.148   2.848   0.223  0.0695  1.6387  1.4554
59800SOL    HW297011  11.298   2.834   0.242  0.1708 -0.6191 -0.6254
59801SOL     OW97012   3.796  13.490  11.940  0.0592 -0.3827  0.4931
59801SOL    HW197013   3.757  13.514  11.855 -0.2523 -1.6255  0.2690
59801SOL    HW297014   3.889  13.479  11.921 -0.1509 -1.6004  0.0775
59802SOL     OW97015   2.294   8.553  12.536  0.2589  0.1355 -0.0048
59802SOL    HW197016   2.259   8.553  12.626 -0.4867 -1.9046 -0.2288
59802SOL    HW297017   2.228   8.506  12.485  1.5312 -0.3811 -1.2439
59803SOL     OW97018  10.018   5.188   1.062 -0.4181 -0.0366 -0.0835
59803SOL    HW197019  10.099   5.154   1.024  0.4084  1.4671  0.2449
59803SOL    HW297020  10.003   5.271   1.016 -1.7175 -0.2318 -0.0507
59804SOL     OW97021  10.415   4.233   4.244 -0.0882 -0.0714  0.2707
59804SOL    HW197022  10.396   4.144   4.272 -2.1017 -0.0381 -0.8524
59804SOL    HW297023  10.496   4.255   4.290 -0.4098 -1.8768  1.8353
59805SOL     OW97024  12.646   5.303   1.774  0.2803  0.4634  0.1701
59805SOL    HW197025  12.717   5.244   1.749  0.5282  0.8242  0.0132
59805SOL    HW297026  12.593   5.253   1.836 -1.0588 -0.9439 -1.9722
59806SOL     OW97027   4.672   0.936  11.332 -0.5022 -0.0647 -0.6239
59806SOL    HW197028   4.678   0.971  11.420  1.5031 -0.1266 -0.6905
59806SOL    HW297029   4.664   0.841  11.344 -3.4375  0.1174 -0.4991
59807SOL     OW97030  12.906  13.633  12.274 -0.4021  0.2967 -0.2625
59807SOL    HW197031  12.876  13.631  12.183  0.4016 -1.5442 -0.5562
59807SOL    HW297032  12.849  13.695  12.318 -1.8581  0.0310 -1.6888
59808SOL     OW97033   5.592   8.347   4.201 -0.0471  0.3650 -0.1237
59808SOL    HW197034   5.577   8.331   4.108  0.8692  4.2100 -1.1141
59808SOL    HW297035   5.687   8.355   4.209 -0.0601 -0.6243  1.3287
59809SOL     OW97036   9.011   4.950  12.748  0.4688 -0.7005  0.3954
59809SOL    HW197037   9.102   4.922  12.759  1.1041  1.0275 -0.1381
59809SOL    HW297038   9.005   5.032  12.797 -0.4346 -0.1261 -0.6404
59810SOL     OW97039  11.735   3.528   0.963  0.4209 -0.0613  0.1549
59810SOL    HW197040  11.685   3.610   0.961 -0.8592 -0.8360 -1.1369
59810SOL    HW297041  11.764   3.520   1.054  1.9423  2.5918  0.0391
59811SOL     OW97042   4.231   3.073  10.779 -0.2937 -0.5851  0.2849
59811SOL    HW197043   4.255   3.054  10.870  2.2165 -0.3692 -0.2570
59811SOL    HW297044   4.279   3.007  10.728 -0.2050  0.4322 -0.9877
59812SOL     OW97045   7.395  12.141  10.195 -0.1948 -0.1612  0.1735
59812SOL    HW197046   7.434  12.172  10.113 -1.0511 -0.8369 -0.5074
59812SOL    HW297047   7.426  12.051  10.202  2.2644  0.7223  2.1245
59813SOL     OW97048   6.838  13.195  10.621 -0.5264  0.0616 -0.3486
59813SOL    HW197049   6.902  13.159  10.560 -0.8626  0.3053 -0.8510
59813SOL    HW297050   6.888  13.260  10.671 -0.1631 -0.3904 -0.1150
59814SOL     OW97051   2.638   0.511   0.252  0.0621 -0.5437  0.3859
59814SOL    HW197052   2.591   0.516   0.169 -0.3316  0.7232  0.6664
59814SOL    HW297053   2.587   0.565   0.312  0.9073 -0.5960  1.1689
59815SOL     OW97054   5.299  13.117  11.850 -0.1983  0.3363 -0.4933
59815SOL    HW197055   5.348  13.173  11.790 -0.2568  0.9029 -0.0189
59815SOL    HW297056   5.304  13.030  11.810 -1.0623  0.8651 -1.8308
59816SOL     OW97057   4.830   0.246  12.975 -0.2439 -0.6268  0.4225
59816SOL    HW197058   4.855   0.326  13.021  0.8472  0.6104 -2.1646
59816SOL    HW297059   4.899   0.184  12.997  0.2278 -0.0856  0.4850
59817SOL     OW97060   5.270   3.237   6.212  0.4707  0.5591 -0.5129
59817SOL    HW197061   5.285   3.150   6.177 -0.3996  0.7050 -1.2919
59817SOL    HW297062   5.257   3.224   6.306  2.0504  0.0658 -0.3418
59818SOL     OW97063   1.931  12.059  12.416 -0.3315 -0.3505 -0.0809
59818SOL    HW197064   1.895  12.049  12.328 -0.4271 -1.2179  0.0508
59818SOL    HW297065   1.856  12.052  12.475 -0.3337  0.6710  0.0615
59819SOL     OW97066   2.935   0.585   5.051 -0.4202  0.1520 -0.0722
59819SOL    HW197067   2.910   0.558   4.962 -1.3766 -2.1870  0.8291
59819SOL    HW297068   3.020   0.545   5.065 -1.4025 -1.7121  0.9197
59820SOL     OW97069  12.613  11.773   8.007 -0.2542 -0.6822 -0.0111
59820SOL    HW197070  12.660  11.793   7.926 -1.3313 -0.4666 -0.5954
59820SOL    HW297071  12.564  11.693   7.988 -0.1040 -0.9243  0.6053
59821SOL     OW97072   0.528   6.299   9.418  0.1343 -0.3209 -0.1428
59821SOL    HW197073   0.444   6.300   9.372 -0.3059  2.8906  0.5044
59821SOL    HW297074   0.506   6.314   9.510  1.3664  2.7403 -0.2015
59822SOL     OW97075  12.616   1.455  13.084  0.6732 -0.2791 -0.2430
59822SOL    HW197076  12.650   1.493  13.003 -1.3471  0.2647 -0.8771
59822SOL    HW297077  12.608   1.529  13.144 -1.3165 -0.0002 -0.8007
59823SOL     OW97078   2.473   1.522  12.532 -0.1527 -0.2293  0.9037
59823SOL    HW197079   2.426   1.438  12.527  0.6896 -0.6606 -0.4167
59823SOL    HW297080   2.405   1.587  12.542 -0.7984 -1.1062  2.6044
59824SOL     OW97081  13.630   9.177   7.938  0.4169 -0.0069 -0.3072
59824SOL    HW197082  13.673   9.107   7.986 -1.0527 -0.4492  0.3994
59824SOL    HW297083  13.571   9.133   7.877  0.1771  0.5926 -0.5221
59825SOL     OW97084   6.434   5.615  13.832  0.5192  0.3477 -0.1960
59825SOL    HW197085   6.503   5.659  13.781  0.8673 -0.4004 -0.3834
59825SOL    HW297086   6.395   5.685  13.884  2.1200  0.6255  0.7081
59826SOL     OW97087   2.461   1.585   7.111 -0.4502  0.3636 -0.0907
59826SOL    HW197088   2.546   1.553   7.142 -2.2134 -1.4301  3.5743
59826SOL    HW297089   2.447   1.666   7.160 -1.5324 -0.2683  0.6825
59827SOL     OW97090   7.649   6.485   5.748  0.4103 -0.3638  1.0147
59827SOL    HW197091   7.720   6.456   5.806  1.0705 -0.3215  0.2555
59827SOL    HW297092   7.683   6.468   5.660 -1.1331 -1.8107  0.6349
59828SOL     OW97093   2.890   1.589   5.048 -0.1992  0.1705 -0.1538
59828SOL    HW197094   2.916   1.637   5.127  3.2200 -1.2810 -0.2333
59828SOL    HW297095   2.879   1.499   5.078  1.0462 -0.3791 -1.2680
59829SOL     OW97096   5.821   8.690   0.926  0.3433  0.0901 -0.2055
59829SOL    HW197097   5.819   8.714   0.834  1.1682  0.9087 -0.0236
59829SOL    HW297098   5.892   8.626   0.934 -0.0261 -0.3278 -0.2070
59830SOL     OW97099   0.015  13.712   2.133  0.3090 -0.7404 -0.0105
59830SOL    HW197100   0.041  13.623   2.158  1.5850 -0.4083 -0.1113
59830SOL    HW297101   0.015  13.710   2.037  1.7846 -0.2525 -0.0445
59831SOL     OW97102   1.961   0.684   5.386 -0.1557 -0.3611  0.5568
59831SOL    HW197103   1.956   0.687   5.481 -1.5874  0.6000  0.4920
59831SOL    HW297104   1.899   0.752   5.357 -0.1137 -0.9688 -1.0530
59832SOL     OW97105   5.881   4.223  13.248 -0.8302 -0.3257  0.0320
59832SOL    HW197106   5.901   4.310  13.281 -1.1476 -0.7510  1.4138
59832SOL    HW297107   5.848   4.237  13.160  1.4191  0.7447 -0.7147
59833SOL     OW97108   8.337   9.134   2.459 -0.5240 -0.9768  0.1830
59833SOL    HW197109   8.374   9.094   2.381  2.5417  0.4240  0.7453
59833SOL    HW297110   8.369   9.224   2.457 -1.5349 -0.4911  2.3515
59834SOL     OW97111   5.883   1.000   3.917  0.1187  0.3953 -0.1807
59834SOL    HW197112   5.850   0.911   3.920  0.5649  0.2548  1.6024
59834SOL    HW297113   5.884   1.029   4.009  0.0736  2.1968 -0.7020
59835SOL     OW97114  10.236   0.249   1.341  0.0867  0.8356 -0.0945
59835SOL    HW197115  10.184   0.217   1.415 -1.2731  3.7486  0.3342
59835SOL    HW297116  10.324   0.214   1.356 -0.7239 -0.6176  1.5548
59836SOL     OW97117  12.062  12.005   1.994  0.5006 -0.3138  0.6339
59836SOL    HW197118  12.072  12.100   1.988 -1.8129 -0.0971 -2.0211
59836SOL    HW297119  12.147  11.974   2.024  1.3353  2.5708  1.5800
59837SOL     OW97120  12.233   4.346   5.059  0.2805  0.7033 -0.1112
59837SOL    HW197121  12.237   4.321   5.151  1.5482 -2.0296 -0.8196
59837SOL    HW297122  12.320   4.326   5.024  0.3394  3.1268 -1.6276
59838SOL     OW97123   7.362   6.572   8.716  0.0223  0.1387 -0.4419
59838SOL    HW197124   7.389   6.661   8.734 -1.5725  0.6037 -0.1757
59838SOL    HW297125   7.382   6.559   8.623 -2.1378  1.7617 -1.2383
59839SOL     OW97126   7.006  12.744   8.135 -0.3788 -0.0071 -0.1803
59839SOL    HW197127   6.916  12.719   8.115 -0.7901  0.7762  0.6224
59839SOL    HW297128   7.058  12.705   8.065 -1.2905 -0.8191 -0.4210
59840SOL     OW97129   6.052   7.115   0.576 -0.5960  0.1626  0.9328
59840SOL    HW197130   6.116   7.101   0.646 -0.7576 -2.1981  0.7029
59840SOL    HW297131   5.975   7.067   0.605 -1.1294  0.2798 -0.2461
59841SOL     OW97132   5.764   4.861   6.518 -0.1103  0.1968 -0.2296
59841SOL    HW197133   5.727   4.777   6.544  0.9570  0.0548  0.9120
59841SOL    HW297134   5.692   4.923   6.527 -0.8138 -0.5103 -0.7511
59842SOL     OW97135   7.540   9.160  12.978  0.5056  0.4300  0.1414
59842SOL    HW197136   7.582   9.075  12.990  1.0071  0.8524  1.6398
59842SOL    HW297137   7.490   9.174  13.059 -1.5768  0.5010 -1.0735
59843SOL     OW97138  10.210  12.618   8.075 -0.7490 -0.0627  0.0578
59843SOL    HW197139  10.234  12.597   7.985 -0.4428 -5.3665  1.0344
59843SOL    HW297140  10.293  12.642   8.116 -0.7617  1.6447 -0.8442
59844SOL     OW97141  10.230   3.568   1.951  0.5593  0.0710  0.0223
59844SOL    HW197142  10.314   3.599   1.985  1.2540 -0.3245 -1.2700
59844SOL    HW297143  10.171   3.643   1.961  1.3412  0.7043 -0.0191
59845SOL     OW97144   3.668  12.583   3.676  0.1930 -0.5376 -0.0772
59845SOL    HW197145   3.684  12.603   3.768 -0.4169  0.4650 -0.1720
59845SOL    HW297146   3.623  12.499   3.677 -0.3250 -0.2661  0.5974
59846SOL     OW97147  13.016   2.442   6.826 -0.5768  0.4047  0.4438
59846SOL    HW197148  13.086   2.405   6.772 -1.2747  1.1971 -1.0599
59846SOL    HW297149  12.949   2.373   6.829 -0.2929  0.1426  0.7842
59847SOL     OW97150   2.622   3.296   5.655 -0.3200 -0.4463 -0.1562
59847SOL    HW197151   2.564   3.257   5.721 -1.1711  0.4139 -0.3745
59847SOL    HW297152   2.611   3.241   5.578  0.4989 -1.3171  0.3138
59848SOL     OW97153   7.963  12.797   2.293  0.1905  0.0391  0.2183
59848SOL    HW197154   8.027  12.726   2.287  0.1304 -0.0168  0.2340
59848SOL    HW297155   7.944  12.804   2.386  2.0193  1.7247  0.5126
59849SOL     OW97156   8.315   9.992   5.151 -0.0144 -0.1271  0.4337
59849SOL    HW197157   8.321   9.919   5.214  1.7209 -1.0127 -0.6635
59849SOL    HW297158   8.227   9.986   5.115 -0.6787 -0.2521  1.9891
59850SOL     OW97159  11.339   7.629   1.135 -0.5559  0.1158 -0.3312
59850SOL    HW197160  11.410   7.614   1.072 -1.3580  0.0590 -1.2510
59850SOL    HW297161  11.380   7.674   1.208  0.3120  0.6448 -1.1283
59851SOL     OW97162  10.672   9.301   4.017 -0.6776  0.3439  0.2291
59851SOL    HW197163  10.675   9.394   3.993  2.1460  0.4084  0.4989
59851SOL    HW297164  10.742   9.291   4.082 -0.7582 -2.0342  0.0317
59852SOL     OW97165   4.039   2.635   6.763  0.4503 -0.0374  0.0502
59852SOL    HW197166   4.107   2.611   6.826 -0.1339 -2.0793 -0.0184
59852SOL    HW297167   4.083   2.630   6.677  0.2578 -1.2975  0.0097
59853SOL     OW97168   2.607  11.507   1.208  0.6559  0.2203  0.4930
59853SOL    HW197169   2.632  11.417   1.191  0.8384 -0.4170  3.6398
59853SOL    HW297170   2.548  11.503   1.283  0.0655  2.6765  0.2662
59854SOL     OW97171   3.652  13.554   7.142 -0.1075 -0.0635 -0.2576
59854SOL    HW197172   3.725  13.548   7.203 -1.7491 -0.5952  1.7412
59854SOL    HW297173   3.672  13.488   7.075  0.0760 -2.0206  1.6009
59855SOL     OW97174   6.042  10.376   5.448 -0.6038 -0.0205  0.2063
59855SOL    HW197175   6.114  10.377   5.511 -1.9859  0.0000  1.8595
59855SOL    HW297176   5.989  10.453   5.470 -1.9243 -0.8369  0.0438
59856SOL     OW97177   5.272   4.638   2.314 -0.4892  0.0808  0.0309
59856SOL    HW197178   5.196   4.586   2.341 -1.2044  0.7564 -0.6253
59856SOL    HW297179   5.238   4.727   2.304  0.3241  0.3441 -0.5444
59857SOL     OW97180  10.104   5.014  12.813  0.0113  0.0232  0.3247
59857SOL    HW197181  10.093   4.954  12.739  1.5488 -2.2158  1.7482
59857SOL    HW297182  10.022   5.007  12.862  0.4859 -1.7848  0.9691
59858SOL     OW97183   8.030  11.378   5.915 -0.4058 -0.1308  0.2564
59858SOL    HW197184   8.047  11.287   5.889  0.1549 -0.7317  2.4628
59858SOL    HW297185   8.079  11.431   5.853  0.0341 -1.3790 -0.4981
59859SOL     OW97186  10.957   6.751  11.364  0.2393  0.8609 -0.3489
59859SOL    HW197187  10.909   6.834  11.365  0.3464  0.9216  0.3024
59859SOL    HW297188  11.002   6.750  11.280  0.6847  1.7322 -0.1372
59860SOL     OW97189  12.822   5.227   8.343  0.4800 -0.0730 -0.6005
59860SOL    HW197190  12.793   5.140   8.315  0.9339 -0.4953  0.1840
59860SOL    HW297191  12.863   5.266   8.266  1.4130 -1.0636 -0.6250
59861SOL     OW97192   9.344   5.540  10.847 -0.4839 -0.4593  0.3248
59861SOL    HW197193   9.437   5.554  10.833 -0.8561  1.2643 -0.8307
59861SOL    HW297194   9.333   5.445  10.845  1.1626 -0.6739 -0.0898
59862SOL     OW97195  13.381   1.404   1.714  0.3892 -0.5484 -0.2019
59862SOL    HW197196  13.340   1.441   1.636 -0.9955 -1.8446 -0.1470
59862SOL    HW297197  13.439   1.335   1.680  0.6606 -0.3562 -0.1353
59863SOL     OW97198  11.202   7.905   7.056 -0.0390  0.2606 -0.1442
59863SOL    HW197199  11.253   7.828   7.082 -2.0419 -1.1881 -0.2314
59863SOL    HW297200  11.238   7.930   6.971  1.4337  0.1931  0.4301
59864SOL     OW97201  12.382   7.875  11.658 -0.3419  0.2867  0.1164
59864SOL    HW197202  12.339   7.941  11.713  0.4676 -0.6779  2.0152
59864SOL    HW297203  12.409   7.807  11.720  1.0564 -0.6447 -1.4493
59865SOL     OW97204   1.173   8.660   0.528 -0.3661 -0.2103 -0.0483
59865SOL    HW197205   1.143   8.662   0.437  0.0980 -1.2618 -0.2467
59865SOL    HW297206   1.194   8.568   0.544 -0.1032  0.0190  1.0156
59866SOL     OW97207   1.365   3.313   3.978  0.1828 -0.4236 -0.0403
59866SOL    HW197208   1.321   3.383   3.930 -0.8764 -1.0081  0.0432
59866SOL    HW297209   1.443   3.355   4.015  0.5822  0.2296 -1.5571
59867SOL     OW97210   3.121   3.351   9.120 -0.5024  0.0033 -0.1373
59867SOL    HW197211   3.032   3.334   9.088  0.0968  1.1754 -2.7125
59867SOL    HW297212   3.112   3.430   9.173 -0.9173  0.5117 -0.9402
59868SOL     OW97213   3.929   6.098   4.055 -0.7042 -0.3289  0.2092
59868SOL    HW197214   3.855   6.130   4.106 -1.1233  1.1373 -1.2526
59868SOL    HW297215   3.961   6.023   4.105 -1.2978  0.8085  2.4157
59869SOL     OW97216   4.552   7.153   6.268 -0.4123 -0.3272 -0.0570
59869SOL    HW197217   4.494   7.078   6.262  1.0154 -1.4542 -0.4664
59869SOL    HW297218   4.495   7.227   6.287 -1.7298 -1.7125  1.6973
59870SOL     OW97219   6.601  11.605   7.670  0.7977 -0.1584  0.6086
59870SOL    HW197220   6.563  11.689   7.643  0.4568 -0.4067  0.2873
59870SOL    HW297221   6.594  11.604   7.765 -2.3157 -1.2063  0.5045
59871SOL     OW97222   0.715   1.456   8.091  0.0650 -0.3106 -0.0513
59871SOL    HW197223   0.648   1.402   8.048 -0.3665 -0.0792  0.3241
59871SOL    HW297224   0.717   1.424   8.181 -0.0094  0.1275  0.1067
59872SOL     OW97225   4.857   5.230  13.902  0.4615  0.1262  0.1755
59872SOL    HW197226   4.786   5.181  13.943  1.1673 -0.6598  0.4894
59872SOL    HW297227   4.904   5.269  13.975  0.1363  0.9584 -0.0525
59873SOL     OW97228  13.075   6.389   3.399 -0.0772  0.0531 -0.1284
59873SOL    HW197229  13.143   6.385   3.332 -0.2342 -0.9567 -0.2420
59873SOL    HW297230  12.998   6.350   3.357 -1.3890  2.9784 -0.7266
59874SOL     OW97231  11.739  10.434  13.128  0.5557  0.0420  0.0670
59874SOL    HW197232  11.792  10.392  13.196  1.9731  0.9522 -0.4399
59874SOL    HW297233  11.802  10.461  13.061 -0.8455 -1.3928 -1.9564
59875SOL     OW97234   8.870   2.751   7.998 -0.4087  0.5738 -0.7528
59875SOL    HW197235   8.946   2.766   8.054 -0.6915 -0.8304  0.0747
59875SOL    HW297236   8.902   2.695   7.928 -1.1302 -2.3462  1.0592
59876SOL     OW97237   2.298   9.651   3.470  0.1538  0.5125  0.3022
59876SOL    HW197238   2.257   9.691   3.547  1.1258  1.0901  0.5435
59876SOL    HW297239   2.374   9.604   3.505  1.6198  2.2027 -0.4407
59877SOL     OW97240   3.355  11.272   9.950 -0.0503 -0.6185  0.3262
59877SOL    HW197241   3.413  11.202   9.979 -0.5330 -1.1725 -0.0347
59877SOL    HW297242   3.372  11.344  10.012  2.3398 -0.0871 -0.8576
59878SOL     OW97243   4.002   0.926  13.790 -0.1019 -0.2569 -0.3224
59878SOL    HW197244   4.051   0.969  13.720  1.5105 -2.0558 -0.3953
59878SOL    HW297245   3.976   0.842  13.752  0.2256 -0.9879  1.0116
59879SOL     OW97246   6.397   2.281   9.093 -0.6707  0.3267 -0.7743
59879SOL    HW197247   6.399   2.320   9.006 -2.4560  0.2829 -0.8798
59879SOL    HW297248   6.321   2.223   9.091  0.2831 -1.0061  0.2799
59880SOL     OW97249  10.599  11.800  10.471  0.6798 -0.2080 -0.3704
59880SOL    HW197250  10.671  11.740  10.489  0.4765 -0.3030  0.1348
59880SOL    HW297251  10.629  11.885  10.504  0.2597 -0.4076  0.5749
59881SOL     OW97252  10.039   4.433   4.240  0.2216 -0.8390 -0.0968
59881SOL    HW197253  10.052   4.487   4.318 -0.8144  1.4358 -1.3990
59881SOL    HW297254  10.106   4.462   4.179 -0.4955 -0.8485 -0.9067
59882SOL     OW97255  11.812  12.017   0.098  0.6608  0.4069 -0.1896
59882SOL    HW197256  11.861  12.061   0.168  0.1370 -1.4180  1.4351
59882SOL    HW297257  11.786  12.087   0.039 -2.7966  2.9323  3.7941
59883SOL     OW97258   3.851   0.979   6.289 -0.1386 -0.6363 -0.1706
59883SOL    HW197259   3.927   1.037   6.298  0.9012 -2.0490  0.3925
59883SOL    HW297260   3.875   0.900   6.337 -1.8339 -1.2618 -0.2920
59884SOL     OW97261   0.059  12.158   3.391 -0.7851  0.2136 -0.2220
59884SOL    HW197262   0.043  12.065   3.374 -0.7584  0.3031 -0.7314
59884SOL    HW297263   0.151  12.172   3.370 -0.6838  0.2747  0.2337
59885SOL     OW97264   8.985   2.492   5.142 -0.4118 -0.0106  0.2034
59885SOL    HW197265   8.936   2.568   5.109 -1.9173 -0.0512  2.1416
59885SOL    HW297266   8.921   2.444   5.195  1.6346 -0.2453  2.6470
59886SOL     OW97267   5.974  12.214  12.031  0.1395  0.4340 -0.4548
59886SOL    HW197268   5.912  12.255  11.971  0.6354  0.9168 -0.6524
59886SOL    HW297269   6.024  12.154  11.976  0.7008  0.9932 -0.5648
59887SOL     OW97270   9.889  13.694   9.276  0.1099  0.1757 -0.0322
59887SOL    HW197271   9.981  13.684   9.252 -0.0084 -0.8298 -0.1385
59887SOL    HW297272   9.887  13.681   9.371  0.1432  0.6842  0.0364
59888SOL     OW97273  13.520  13.703   6.406 -0.4578  0.0845 -0.6478
59888SOL    HW197274  13.544  13.620   6.447  0.5896  0.5789 -0.2472
59888SOL    HW297275  13.424  13.704   6.410 -0.4582 -0.8286 -0.1150
59889SOL     OW97276   1.678   1.047  10.079 -0.1652 -0.1512 -0.1205
59889SOL    HW197277   1.744   0.982  10.057  0.3127  0.2108  0.2138
59889SOL    HW297278   1.597   1.014  10.039  0.2441 -0.5269 -0.6544
59890SOL     OW97279   1.784  12.648   2.388  0.1726  0.4267 -0.0073
59890SOL    HW197280   1.872  12.614   2.400  0.1717  0.2089 -0.6115
59890SOL    HW297281   1.752  12.663   2.477  0.5503 -0.1739  0.2341
59891SOL     OW97282   5.787   0.186   6.058  0.5535  0.2893  0.1281
59891SOL    HW197283   5.761   0.213   5.971 -0.6191  1.2363  0.7427
59891SOL    HW297284   5.784   0.267   6.110  1.5782 -0.1865  0.9757
59892SOL     OW97285   1.544   5.902   9.398  0.3181 -0.3311 -0.3314
59892SOL    HW197286   1.584   5.961   9.335 -0.1861  0.7498  0.3255
59892SOL    HW297287   1.456   5.937   9.411  0.6842 -0.0293  1.5832
59893SOL     OW97288  10.502  12.534  12.252  0.5755 -0.2884 -0.7990
59893SOL    HW197289  10.492  12.450  12.298  2.1652 -0.4372 -0.6891
59893SOL    HW297290  10.511  12.598  12.323 -2.2195  0.2622 -0.8315
59894SOL     OW97291   6.826   8.917   0.988  0.2065 -0.2008 -0.4188
59894SOL    HW197292   6.752   8.952   0.938 -0.6128 -4.0751 -2.3348
59894SOL    HW297293   6.881   8.993   1.006 -3.5283  2.7186  0.0042
59895SOL     OW97294  13.359   3.016  11.928 -0.4525 -0.3593  0.2323
59895SOL    HW197295  13.383   2.943  11.870  1.3106  0.0879  0.3620
59895SOL    HW297296  13.390   2.989  12.014 -0.6840  0.1234  0.4689
59896SOL     OW97297   7.147   1.192   3.447  0.0656  0.0914  0.3252
59896SOL    HW197298   7.230   1.237   3.462  1.4051 -1.4115 -1.9023
59896SOL    HW297299   7.129   1.206   3.354 -1.8517 -0.1900  0.6064
59897SOL     OW97300   3.507   1.765  11.122  0.0142  0.2297 -0.6146
59897SOL    HW197301   3.508   1.678  11.164 -4.1518  0.3632  0.2133
59897SOL    HW297302   3.509   1.747  11.028 -1.2173 -0.8774 -0.4615
59898SOL     OW97303   8.671  13.678  11.178 -0.5293  0.4020  0.2049
59898SOL    HW197304   8.688  13.607  11.116  0.4524  1.9862 -1.4216
59898SOL    HW297305   8.655  13.634  11.261  0.1139 -1.7091 -0.7337
59899SOL     OW97306  12.463   2.864  11.668 -0.2629  0.2279 -0.5349
59899SOL    HW197307  12.486   2.793  11.609 -1.0287 -0.5421  0.0685
59899SOL    HW297308  12.374   2.889  11.643  0.6476  2.2963 -1.9968
59900SOL     OW97309   4.761  11.656   7.187  0.9529  0.7392  0.0633
59900SOL    HW197310   4.814  11.585   7.151 -1.0553  0.0033 -1.6076
59900SOL    HW297311   4.730  11.622   7.271  0.6958 -0.0084 -0.3294
59901SOL     OW97312   5.804   0.181   5.124  0.1236 -0.1926  0.2362
59901SOL    HW197313   5.852   0.226   5.054  2.0783  1.1235  2.2822
59901SOL    HW297314   5.821   0.088   5.108  1.9296  0.1636 -0.1114
59902SOL     OW97315   0.300   6.614  11.098  0.0022  0.2921 -0.2942
59902SOL    HW197316   0.376   6.653  11.055 -0.7998  1.1633 -0.9932
59902SOL    HW297317   0.298   6.524  11.066  0.6467  0.3052 -0.3887
59903SOL     OW97318   3.031   7.697   3.804 -0.2955 -0.1749 -0.2163
59903SOL    HW197319   2.978   7.671   3.879  0.2742 -0.8733 -0.0449
59903SOL    HW297320   3.087   7.767   3.838 -1.0451  0.5248 -0.3841
59904SOL     OW97321   4.865   8.755   3.946 -0.4640  0.5872  0.2787
59904SOL    HW197322   4.787   8.765   4.000 -0.4592 -0.2233  0.4418
59904SOL    HW297323   4.919   8.691   3.993  0.2489  1.0486  0.1123
59905SOL     OW97324   3.900  13.264  13.170 -0.4342  0.2648  0.7067
59905SOL    HW197325   3.806  13.265  13.152 -0.1294 -0.2244 -1.1782
59905SOL    HW297326   3.933  13.345  13.130  0.2233 -0.6358 -0.6661
59906SOL     OW97327   5.714  12.971   9.982  0.6344  0.0674  0.1574
59906SOL    HW197328   5.633  13.022   9.968  0.2750 -0.1006  1.5112
59906SOL    HW297329   5.772  13.000   9.912  0.0999  1.6537  0.3289
59907SOL     OW97330   2.504   7.203   6.008  0.3862 -0.1721  0.0037
59907SOL    HW197331   2.478   7.209   5.916  0.1269 -2.7876 -0.1728
59907SOL    HW297332   2.451   7.269   6.053 -1.7861 -0.9267 -1.2989
59908SOL     OW97333   5.939   2.304   8.075 -0.5305  0.2165 -0.2673
59908SOL    HW197334   5.993   2.345   8.143 -1.1530 -1.7762  1.5203
59908SOL    HW297335   5.851   2.302   8.111 -0.5615 -2.5202 -0.2585
59909SOL     OW97336   2.206  10.891  11.660 -0.1063  0.3336 -0.6640
59909SOL    HW197337   2.211  10.927  11.748  0.5626 -3.0496  0.8164
59909SOL    HW297338   2.271  10.941  11.610  1.1987  0.7958  1.3757
59910SOL     OW97339  12.132   3.929  13.731  0.5502 -0.1240 -0.5049
59910SOL    HW197340  12.061   3.943  13.668  0.5294  0.8086 -0.2925
59910SOL    HW297341  12.212   3.940  13.679  0.5336  0.8131 -0.3504
59911SOL     OW97342  12.799  10.542   5.774  0.2476 -0.6039 -0.1786
59911SOL    HW197343  12.889  10.512   5.768  1.1322  1.5626  1.1780
59911SOL    HW297344  12.792  10.610   5.706  0.0396  0.0765  0.5032
59912SOL     OW97345   5.417   9.560   4.121 -0.0921  0.8577 -0.1201
59912SOL    HW197346   5.424   9.580   4.215  0.8170  0.8095 -0.1685
59912SOL    HW297347   5.323   9.558   4.104 -0.3521 -1.1467  1.2209
59913SOL     OW97348  12.085   6.683   6.058  0.3760 -0.1410  0.0036
59913SOL    HW197349  12.024   6.674   6.130  0.8632 -1.1535  0.3066
59913SOL    HW297350  12.030   6.697   5.981 -0.2187 -0.7269  0.3200
59914SOL     OW97351   5.741   7.934   2.722 -0.0373  0.1832 -0.1085
59914SOL    HW197352   5.808   7.878   2.762  0.1564  0.0411 -0.6257
59914SOL    HW297353   5.695   7.877   2.661 -0.6778  0.2627  0.2786
59915SOL     OW97354   5.846   3.342   8.210  0.3880 -0.4485  0.1502
59915SOL    HW197355   5.872   3.428   8.175  2.5712 -0.2898  1.9262
59915SOL    HW297356   5.883   3.279   8.148  0.4271 -0.1303 -0.1584
59916SOL     OW97357   9.728   1.893   5.268 -0.2385  0.3050 -0.3389
59916SOL    HW197358   9.807   1.869   5.317 -1.5188  0.7933  2.1826
59916SOL    HW297359   9.728   1.836   5.192  1.1066 -1.7049  1.0641
59917SOL     OW97360  12.095  11.456   3.358 -0.6936  0.1847  0.1269
59917SOL    HW197361  12.191  11.467   3.355 -0.3694 -2.1282  0.3057
59917SOL    HW297362  12.063  11.502   3.280  0.5461  0.9551  0.0372
59918SOL     OW97363  11.127   0.237   2.170 -0.0973 -0.1121 -0.5154
59918SOL    HW197364  11.063   0.308   2.167  0.6264  0.5259 -1.1161
59918SOL    HW297365  11.153   0.224   2.079  2.5420  1.4137 -0.0761
59919SOL     OW97366  10.723  12.299  13.854  0.1692  0.0542 -0.1327
59919SOL    HW197367  10.764  12.213  13.848  0.0072 -0.0105 -0.2820
59919SOL    HW297368  10.714  12.314  13.948 -1.7839 -1.0289 -0.1136
59920SOL     OW97369  13.252  13.490   7.150 -0.5391 -0.1099  0.0929
59920SOL    HW197370  13.332  13.458   7.107 -2.2586 -1.3241 -2.4143
59920SOL    HW297371  13.230  13.570   7.102 -0.5219  0.6067  1.2307
59921SOL     OW97372   2.408  12.566  10.775 -0.2994  0.1299 -0.5013
59921SOL    HW197373   2.365  12.486  10.805 -0.6696 -0.1242 -1.6918
59921SOL    HW297374   2.502  12.545  10.777 -0.4616 -1.5284 -3.9194
59922SOL     OW97375   2.888   2.409   2.311  0.1739  0.6672  0.5259
59922SOL    HW197376   2.858   2.463   2.238  2.5638  3.1185  1.1655
59922SOL    HW297377   2.943   2.342   2.270 -0.7924  0.2517 -0.1101
59923SOL     OW97378   0.638   5.796  12.101  0.1541  0.3414 -0.1470
59923SOL    HW197379   0.566   5.785  12.163  0.6788  0.3433  0.4743
59923SOL    HW297380   0.597   5.835  12.024 -0.4937  0.4295  0.2313
59924SOL     OW97381   6.527   2.546   2.384 -0.3006 -0.0074  0.3934
59924SOL    HW197382   6.524   2.568   2.477 -0.2287  0.6285  0.2468
59924SOL    HW297383   6.437   2.560   2.353 -0.0986  0.7850  0.1454
59925SOL     OW97384  12.518   6.378   9.024  0.0609 -0.2665 -0.7106
59925SOL    HW197385  12.555   6.384   9.112 -1.8445 -0.7262  0.1752
59925SOL    HW297386  12.518   6.468   8.991 -0.2980  0.0970  0.2559
59926SOL     OW97387   0.242  10.656   7.640  0.3050  0.0512  0.3342
59926SOL    HW197388   0.313  10.719   7.626 -0.2509  0.7417  0.5751
59926SOL    HW297389   0.207  10.678   7.726 -0.1138 -0.3718  0.2741
59927SOL     OW97390  12.420   6.375   3.959  0.3022  0.2953  0.1432
59927SOL    HW197391  12.478   6.429   3.905 -0.7211  1.9389  0.5876
59927SOL    HW297392  12.347   6.434   3.981 -1.1417 -1.4528  0.2420
59928SOL     OW97393   5.524   9.703   1.523  0.2544  0.1089 -0.0813
59928SOL    HW197394   5.445   9.727   1.571  0.3676  1.0881 -0.3676
59928SOL    HW297395   5.593   9.703   1.589 -0.1928 -2.1589  0.4626
59929SOL     OW97396   6.632   4.410   5.714  0.4108 -0.2123  0.4261
59929SOL    HW197397   6.703   4.357   5.679  1.1535  0.1861  1.3098
59929SOL    HW297398   6.569   4.415   5.642  1.1018 -0.8694 -0.2440
59930SOL     OW97399   1.518  12.645  11.721 -0.2665  0.7028  0.4075
59930SOL    HW197400   1.448  12.696  11.762 -0.4675  0.1668  0.7383
59930SOL    HW297401   1.480  12.558  11.709 -0.3504  0.9457 -1.2797
59931SOL     OW97402   8.001   0.100   2.307  0.0033 -0.1400  0.2078
59931SOL    HW197403   8.053   0.099   2.227 -0.3545  1.6789 -0.0847
59931SOL    HW297404   7.927   0.042   2.287  1.0245 -1.4447  0.0451
59932SOL     OW97405   6.664   2.019   9.819  0.6383 -0.0703 -0.1780
59932SOL    HW197406   6.595   1.982   9.763 -2.4650  1.3136  2.4016
59932SOL    HW297407   6.681   1.952   9.884  0.7447  0.0896 -0.0393
59933SOL     OW97408  11.425   5.601   7.488 -0.0844 -0.5380 -0.6679
59933SOL    HW197409  11.517   5.609   7.461  0.3539 -0.6898  0.6984
59933SOL    HW297410  11.416   5.665   7.559 -0.7330 -1.2993 -0.0501
59934SOL     OW97411  10.266   9.054   9.420  0.5649 -0.3797  0.6620
59934SOL    HW197412  10.361   9.064   9.410  0.7230 -0.8895  1.5385
59934SOL    HW297413  10.249   9.082   9.510 -0.1301 -0.2199  0.4816
59935SOL     OW97414   4.736   0.363   5.975 -0.2730  0.0370 -0.1307
59935SOL    HW197415   4.668   0.384   6.040  0.3726 -1.8248  1.2570
59935SOL    HW297416   4.718   0.272   5.952  1.8491 -0.5653  0.4456
59936SOL     OW97417   2.701  10.411  13.223  0.0284 -0.5143 -0.5888
59936SOL    HW197418   2.675  10.378  13.309 -0.6732 -1.0181 -0.9824
59936SOL    HW297419   2.792  10.440  13.235 -0.3920  0.4103  0.5907
59937SOL     OW97420   1.829   2.253   3.753  0.4669 -0.0759 -0.6354
59937SOL    HW197421   1.787   2.315   3.693  0.4656 -0.1817 -0.7445
59937SOL    HW297422   1.788   2.270   3.838  0.3921  0.0007 -0.6868
59938SOL     OW97423   6.156   3.810   9.492 -0.1169 -0.0352 -0.1868
59938SOL    HW197424   6.223   3.803   9.560 -2.2897 -0.5496  2.0521
59938SOL    HW297425   6.105   3.887   9.517 -2.5408 -1.7054  0.3740
59939SOL     OW97426   0.707   5.195  11.407  0.3969 -0.2027 -0.3263
59939SOL    HW197427   0.793   5.233  11.392  0.1386  0.0524 -1.2290
59939SOL    HW297428   0.676   5.172  11.319 -0.0186 -1.2428  0.0855
59940SOL     OW97429  12.552  11.614   4.718  0.0360 -0.2383  0.4077
59940SOL    HW197430  12.529  11.537   4.667 -1.3296 -0.1882  0.8882
59940SOL    HW297431  12.641  11.598   4.748  0.1351 -1.1604 -0.3375
59941SOL     OW97432   1.133  12.055  11.764  0.1602 -0.0423  0.1132
59941SOL    HW197433   1.146  12.131  11.707 -2.0904 -0.6453 -1.3453
59941SOL    HW297434   1.038  12.052  11.778  0.4105 -1.3905  1.8883
59942SOL     OW97435   7.840  12.326  12.733  0.2628  0.4660 -0.1389
59942SOL    HW197436   7.762  12.376  12.709 -1.2846 -1.3893  0.7619
59942SOL    HW297437   7.862  12.276  12.655 -0.0701  0.2423 -0.0909
59943SOL     OW97438   8.179   6.391  12.832 -1.0546  0.3916  0.2820
59943SOL    HW197439   8.134   6.323  12.782 -0.0292 -1.0510  1.2510
59943SOL    HW297440   8.251   6.418  12.776 -0.4489 -0.5636  0.5948
59944SOL     OW97441   7.047   3.382   5.209  0.1771 -0.2887 -0.4031
59944SOL    HW197442   6.962   3.391   5.250  1.1624  0.6938  1.5505
59944SOL    HW297443   7.057   3.288   5.194 -0.8580 -0.5012  0.1898
59945SOL     OW97444   7.460   2.335   6.662  0.4265  0.3014  0.1911
59945SOL    HW197445   7.461   2.368   6.572  1.1985  1.4233  0.5895
59945SOL    HW297446   7.527   2.267   6.663 -0.5702 -0.7156 -0.4244
59946SOL     OW97447   4.585   7.117   1.916  0.3588  0.6273 -0.5367
59946SOL    HW197448   4.493   7.106   1.892  0.5903 -0.6288 -0.9397
59946SOL    HW297449   4.632   7.105   1.833  0.9686 -0.4095 -0.0639
59947SOL     OW97450   4.335   5.340  12.112  1.1972  0.4538 -0.0729
59947SOL    HW197451   4.379   5.350  12.027 -1.7960  2.1372 -1.5775
59947SOL    HW297452   4.361   5.418  12.161  0.8245  0.8556 -0.5049
59948SOL     OW97453   4.819  11.424  10.888  0.2165  0.0275 -0.3308
59948SOL    HW197454   4.762  11.399  10.960  0.1281 -0.6669 -0.6360
59948SOL    HW297455   4.863  11.503  10.919  0.9363 -0.8131  0.9010
59949SOL     OW97456   8.774   2.188  11.174 -0.2591  0.1732  0.2740
59949SOL    HW197457   8.832   2.186  11.098 -1.7190  0.0921 -0.9014
59949SOL    HW297458   8.820   2.242  11.238  1.2769 -0.2410 -0.4404
59950SOL     OW97459  13.952   4.313   2.149  0.0333 -0.6855  0.1673
59950SOL    HW197460  13.928   4.388   2.203  0.9347  0.5920 -1.1172
59950SOL    HW297461  14.047   4.308   2.155  0.4193  0.7810 -2.7746
59951SOL     OW97462  12.750  10.615  10.213  0.7093 -0.0632  0.2033
59951SOL    HW197463  12.701  10.582  10.138 -1.1021 -0.7537  1.6137
59951SOL    HW297464  12.837  10.577  10.202 -0.6272 -3.6291  0.5336
59952SOL     OW97465   7.967   9.445   5.721 -0.7450 -0.1608 -0.2723
59952SOL    HW197466   7.923   9.525   5.750 -0.0955  0.3245 -0.5726
59952SOL    HW297467   7.907   9.375   5.743 -1.6245  0.4726 -0.6041
59953SOL     OW97468  13.868  13.568   2.524  0.1713  0.3900 -0.1729
59953SOL    HW197469  13.927  13.644   2.526 -2.3252  2.4425  0.3276
59953SOL    HW297470  13.787  13.599   2.564 -0.6084 -2.9350  1.1548
59954SOL     OW97471   4.162   2.284  13.626 -0.4283  0.0630  0.3590
59954SOL    HW197472   4.160   2.373  13.661 -0.9568  0.6353 -1.0414
59954SOL    HW297473   4.086   2.279  13.567  0.1640 -0.9712 -0.3686
59955SOL     OW97474   6.103   5.665   5.909  0.1659  0.2932  0.1167
59955SOL    HW197475   6.018   5.678   5.952 -0.8520  1.8758 -2.1644
59955SOL    HW297476   6.101   5.574   5.879 -1.3786  0.6643 -1.0785
59956SOL     OW97477   2.629   7.796   1.168  0.4616 -0.7881 -0.3959
59956SOL    HW197478   2.596   7.707   1.166 -0.2057 -0.5442 -0.4749
59956SOL    HW297479   2.681   7.804   1.088 -0.2726 -0.8110 -0.8846
59957SOL     OW97480   3.883   7.085   2.342 -0.1171 -0.2202 -0.2014
59957SOL    HW197481   3.882   7.140   2.263 -3.3516  0.7752  0.3962
59957SOL    HW297482   3.839   7.004   2.316  1.0464 -0.9333 -0.0173
59958SOL     OW97483  12.876   9.440  10.824 -0.1128 -0.1755 -0.1784
59958SOL    HW197484  12.933   9.415  10.897 -1.6691  0.0266  1.1498
59958SOL    HW297485  12.907   9.386  10.751  1.0846 -0.8402  0.7706
59959SOL     OW97486   4.325  11.937   0.682  0.0070 -0.0104 -0.1218
59959SOL    HW197487   4.257  11.880   0.717  0.6282 -1.4651 -1.1784
59959SOL    HW297488   4.308  11.940   0.588  1.8948 -1.1480 -0.5523
59960SOL     OW97489   3.291   6.889   8.337  0.4369  0.2968  0.1865
59960SOL    HW197490   3.345   6.817   8.368  1.4760  1.7289  1.8974
59960SOL    HW297491   3.307   6.960   8.399 -0.7050  1.9505 -1.2945
59961SOL     OW97492   3.600  11.410   8.181  0.0699  0.2058  0.1670
59961SOL    HW197493   3.541  11.352   8.229  1.2618 -1.1144  0.1444
59961SOL    HW297494   3.590  11.495   8.222 -3.5377  0.6951 -1.3289
59962SOL     OW97495  10.696   9.412   3.640  0.4079 -0.0536  0.0341
59962SOL    HW197496  10.761   9.479   3.661  1.4895 -1.3481  1.0278
59962SOL    HW297497  10.615   9.443   3.679  0.7267  0.9827 -0.0990
59963SOL     OW97498  13.077   3.689   5.768  0.1085  0.1222 -0.0224
59963SOL    HW197499  13.127   3.616   5.730 -0.1322 -0.8442  1.4394
59963SOL    HW297500  13.143   3.756   5.786  0.5356 -0.2506 -0.1744
59964SOL     OW97501  13.869   2.639  10.745  0.5845 -0.1154 -1.1730
59964SOL    HW197502  13.943   2.691  10.777  1.2350 -1.2125 -0.8549
59964SOL    HW297503  13.817   2.701  10.694  0.4861  1.2490  0.4802
59965SOL     OW97504  12.950   9.353  13.104  0.1687 -0.2345  0.0381
59965SOL    HW197505  12.943   9.368  13.010 -2.4056  0.3359  0.2337
59965SOL    HW297506  12.921   9.435  13.144 -1.4836 -1.3310  1.2648
59966SOL     OW97507   0.148   5.713   9.554  0.2037 -0.9062  0.5326
59966SOL    HW197508   0.091   5.781   9.517 -1.1865 -1.9443  0.6893
59966SOL    HW297509   0.168   5.743   9.643  1.2474  0.2293 -0.0540
59967SOL     OW97510   0.754   7.956   3.706 -0.7843  0.8274 -0.3615
59967SOL    HW197511   0.738   7.911   3.623  2.0076 -0.0199 -0.5619
59967SOL    HW297512   0.714   8.042   3.695  0.1084  1.0073 -2.9208
59968SOL     OW97513  13.590  12.219   4.657  0.2442 -0.4131 -0.5233
59968SOL    HW197514  13.632  12.302   4.680  0.3408 -0.5973 -0.0234
59968SOL    HW297515  13.503  12.244   4.627  0.7404 -0.0095 -1.7152
59969SOL     OW97516  13.631   8.687   6.816 -0.1113  0.3392  0.1488
59969SOL    HW197517  13.557   8.675   6.756  0.7736 -1.4450 -0.6413
59969SOL    HW297518  13.675   8.765   6.784 -1.2527  1.0470  0.2296
59970SOL     OW97519   1.044   0.431   1.366  0.3750 -0.3861 -0.2514
59970SOL    HW197520   1.131   0.449   1.401  0.2346 -1.1095  0.4975
59970SOL    HW297521   0.985   0.488   1.415  0.5596  1.1253 -1.7076
59971SOL     OW97522   5.766   8.017   4.608  0.3057  0.0205  0.0067
59971SOL    HW197523   5.771   8.106   4.643 -2.9145 -0.4475  2.1479
59971SOL    HW297524   5.704   8.023   4.535 -0.1473 -0.4803  0.3410
59972SOL     OW97525   3.014  11.341   4.786 -0.5596 -0.7478  0.2728
59972SOL    HW197526   3.043  11.431   4.799 -1.8109 -0.2889  0.0776
59972SOL    HW297527   3.018  11.301   4.874 -2.7161  0.3759  0.9528
59973SOL     OW97528   3.887   2.278   5.206  0.4233  0.0389 -0.4416
59973SOL    HW197529   3.873   2.289   5.112  1.0141  1.6837 -0.3693
59973SOL    HW297530   3.884   2.367   5.242  0.4519 -0.5312  1.0658
59974SOL     OW97531   1.580   3.331  12.814 -0.3961 -0.1985  0.1772
59974SOL    HW197532   1.616   3.354  12.899 -0.6617  1.7992 -0.1927
59974SOL    HW297533   1.649   3.282  12.770  0.1568 -0.2885  1.1358
59975SOL     OW97534   5.354   1.841   6.895  0.1397  0.4106  0.4836
59975SOL    HW197535   5.300   1.825   6.972 -0.5869  0.7272  0.0454
59975SOL    HW297536   5.318   1.785   6.827  0.3999  0.5797  0.2007
59976SOL     OW97537   6.941  13.066   2.029  0.0617 -0.3101 -0.0680
59976SOL    HW197538   6.910  13.099   2.114  0.6013 -1.7787  0.7451
59976SOL    HW297539   6.921  13.136   1.967 -1.1861  0.4250  1.1082
59977SOL     OW97540  12.465   2.096   2.016 -0.1227 -0.3302 -0.0683
59977SOL    HW197541  12.452   2.160   1.946  0.4744 -0.4985 -0.3354
59977SOL    HW297542  12.402   2.026   1.997 -1.8215  0.8053  1.0218
59978SOL     OW97543  10.696   7.502  13.100 -0.4238  0.7617  0.2012
59978SOL    HW197544  10.759   7.452  13.152 -0.7693 -1.0720 -1.0344
59978SOL    HW297545  10.748   7.569  13.056  0.5717 -0.2690 -0.2475
59979SOL     OW97546  13.569   6.983  12.083 -0.1536 -0.2150  0.8796
59979SOL    HW197547  13.499   6.958  12.022 -0.0180  0.3336  0.4963
59979SOL    HW297548  13.647   6.939  12.048 -0.1174 -0.0656  0.7709
59980SOL     OW97549   3.771   1.029   2.242  0.0585 -0.4685  0.4151
59980SOL    HW197550   3.737   1.119   2.240 -2.0270 -1.1967  0.5107
59980SOL    HW297551   3.705   0.978   2.195  0.4883 -2.1727  1.5842
59981SOL     OW97552   3.351   6.781   6.329 -0.2858  0.3168  0.1573
59981SOL    HW197553   3.302   6.858   6.357 -0.9403 -0.5764  1.5736
59981SOL    HW297554   3.362   6.729   6.409  0.0215 -1.1310 -0.7889
59982SOL     OW97555   8.469  11.615   9.475 -0.2400 -0.3543 -0.0855
59982SOL    HW197556   8.542  11.574   9.521 -0.3508  0.5766  0.9652
59982SOL    HW297557   8.412  11.648   9.545 -1.2736 -0.3942 -0.8953
59983SOL     OW97558  11.352   9.507   2.329  0.2269 -0.5998 -0.3061
59983SOL    HW197559  11.287   9.495   2.260  2.5592 -3.5689 -2.2406
59983SOL    HW297560  11.383   9.597   2.316 -3.0152  0.7872  0.4465
59984SOL     OW97561  10.806   2.510   3.391 -0.1327 -0.1899 -0.7131
59984SOL    HW197562  10.742   2.539   3.456  0.1887 -1.8710  0.4085
59984SOL    HW297563  10.756   2.503   3.310 -1.1625 -0.5541 -0.0654
59985SOL     OW97564   2.141   2.056   2.378  0.5611  0.4993  0.9002
59985SOL    HW197565   2.066   2.114   2.375 -0.8871 -1.2947  0.4945
59985SOL    HW297566   2.207   2.099   2.324 -0.7837  1.3076 -0.1658
59986SOL     OW97567   3.651   7.386  10.446  0.0156 -0.1596 -0.1528
59986SOL    HW197568   3.696   7.387  10.361  2.0335  0.2227  0.8460
59986SOL    HW297569   3.669   7.300  10.482 -0.1314 -0.0306  0.2356
59987SOL     OW97570   4.613   9.849  12.811 -0.9079  0.3755  0.1235
59987SOL    HW197571   4.546   9.848  12.742 -0.2282 -1.6419 -0.5587
59987SOL    HW297572   4.692   9.816  12.768 -0.3290 -0.3883  1.7198
59988SOL     OW97573   5.324   6.687   1.319 -0.0690 -0.3866  0.2404
59988SOL    HW197574   5.379   6.744   1.265  0.7948  0.6081  2.0543
59988SOL    HW297575   5.380   6.665   1.394 -0.7704 -2.7609  0.1298
59989SOL     OW97576   9.534  12.517  10.372 -0.5497  0.0613 -0.7805
59989SOL    HW197577   9.528  12.447  10.307  0.2328  0.9102 -1.8098
59989SOL    HW297578   9.491  12.592  10.330 -0.1156  0.5928 -0.2968
59990SOL     OW97579   6.773  10.381   5.810  0.4855 -0.8678 -0.0394
59990SOL    HW197580   6.689  10.335   5.820 -0.0764 -0.4333 -2.1581
59990SOL    HW297581   6.772  10.447   5.879 -1.4330 -0.2042 -0.6161
59991SOL     OW97582  13.914   8.129   6.012 -0.2007  0.1603  0.1476
59991SOL    HW197583  13.889   8.038   6.025  3.0073 -0.8974 -0.0602
59991SOL    HW297584  13.941   8.159   6.099 -0.0963  0.5215 -0.0082
59992SOL     OW97585  13.893  11.467   0.858  0.2673 -0.4503 -0.0816
59992SOL    HW197586  13.876  11.542   0.915 -0.5294 -0.6211 -0.0866
59992SOL    HW297587  13.877  11.390   0.913 -0.6622 -0.6181 -0.5639
59993SOL     OW97588   3.727   2.519  11.109  0.4406 -0.0636  0.0510
59993SOL    HW197589   3.794   2.458  11.080  0.7637  0.7221 -0.9351
59993SOL    HW297590   3.649   2.465  11.122  0.4634 -0.5683 -1.7058
59994SOL     OW97591  13.487   1.446   0.952  0.0932  0.2261 -0.2479
59994SOL    HW197592  13.552   1.402   0.897 -1.7221  0.6544 -2.9328
59994SOL    HW297593  13.444   1.376   1.000  0.2889 -0.4466 -1.0382
59995SOL     OW97594  12.416  12.815   1.521  0.4303  0.2322 -0.3048
59995SOL    HW197595  12.510  12.810   1.534  0.2805  0.9123  1.3225
59995SOL    HW297596  12.390  12.894   1.568 -1.0913 -0.5786  0.2953
59996SOL     OW97597   0.016   6.761   8.195  0.0403 -0.6486 -0.1067
59996SOL    HW197598  -0.042   6.688   8.174 -0.5817 -0.4913  1.0293
59996SOL    HW297599   0.097   6.719   8.225 -0.4814 -0.8840  1.0003
59997SOL     OW97600   1.335   4.675  12.605 -0.2591 -0.0262 -0.5495
59997SOL    HW197601   1.400   4.653  12.538 -1.8184 -1.8282 -1.5557
59997SOL    HW297602   1.284   4.746  12.567 -0.4114 -0.2636 -0.7900
59998SOL     OW97603   7.984  11.999   7.502 -0.0568  0.0827  0.1523
59998SOL    HW197604   7.892  12.022   7.511  0.1099  0.3118  1.4372
59998SOL    HW297605   8.028  12.083   7.485  0.0561  0.1507  0.7627
59999SOL     OW97606   6.437   9.516   0.547  0.2359 -0.0949 -0.2220
59999SOL    HW197607   6.374   9.446   0.565  0.7958 -0.5495 -0.0359
59999SOL    HW297608   6.474   9.537   0.633 -0.1845  0.6822 -0.2175
60000SOL     OW97609   3.489   3.894   1.066 -0.3864  0.2693  0.4408
60000SOL    HW197610   3.493   3.809   1.109  1.0883  0.1087  0.0406
60000SOL    HW297611   3.396   3.909   1.050 -0.5965 -1.8637 -0.6882
60001SOL     OW97612   4.913  12.752  13.437 -0.0120  0.3223  0.1083
60001SOL    HW197613   4.919  12.677  13.497 -1.9711  0.2273  0.2295
60001SOL    HW297614   4.989  12.806  13.460 -0.2754 -0.0740  2.1898
60002SOL     OW97615   5.785  11.573   9.233  0.4642  0.8195  0.0252
60002SOL    HW197616   5.748  11.616   9.311 -1.0857  0.3335 -0.4028
60002SOL    HW297617   5.782  11.641   9.165  0.9521  0.9639  0.1443
60003SOL     OW97618  11.152  13.507   1.743  0.0739  0.0535 -0.1802
60003SOL    HW197619  11.179  13.598   1.742  0.1243  0.0628  0.7433
60003SOL    HW297620  11.224  13.459   1.703  0.0364  0.4163 -0.6861
60004SOL     OW97621  10.820  11.402   5.024  0.4047 -0.7461  0.1555
60004SOL    HW197622  10.844  11.429   5.113 -1.4949 -0.3849  0.6087
60004SOL    HW297623  10.726  11.422   5.018 -0.0774 -3.1135 -1.0736
60005SOL     OW97624   4.209   7.948   5.451  1.0626  0.2853 -0.1856
60005SOL    HW197625   4.188   7.865   5.407  1.3814 -0.0732  0.3269
60005SOL    HW297626   4.252   7.922   5.532  2.7904  0.9655 -0.8312
60006SOL     OW97627   9.366   6.312   3.196 -0.0588 -0.2124 -0.1746
60006SOL    HW197628   9.397   6.402   3.202 -1.2606  0.1491  2.0613
60006SOL    HW297629   9.330   6.294   3.283 -2.8420 -1.7235 -1.4969
60007SOL     OW97630   0.573  13.126   5.977  0.2356 -0.5687 -0.2386
60007SOL    HW197631   0.489  13.125   5.931  0.5076  0.6030 -0.7798
60007SOL    HW297632   0.564  13.196   6.042  1.1606  0.3388 -1.0455
60008SOL     OW97633   5.880  10.370   6.337  0.0450 -0.4991 -0.1889
60008SOL    HW197634   5.802  10.413   6.302 -0.7803 -2.4707 -0.9124
60008SOL    HW297635   5.942  10.370   6.264 -0.2797 -1.2739 -0.4742
60009SOL     OW97636  12.827  13.272   2.100 -0.7042 -0.1334  0.4045
60009SOL    HW197637  12.903  13.215   2.094 -0.2137  0.6231 -0.7749
60009SOL    HW297638  12.804  13.272   2.193  0.8436 -0.2286  0.8010
60010SOL     OW97639   6.578   3.862   9.427  0.7065  0.2320 -0.1571
60010SOL    HW197640   6.637   3.929   9.392  1.3105  0.4673  1.2433
60010SOL    HW297641   6.537   3.823   9.350 -1.3202  3.6481 -1.0054
60011SOL     OW97642  10.395   8.846  11.251  0.8821  0.2876 -0.0061
60011SOL    HW197643  10.480   8.828  11.291  0.5619 -2.6813 -0.4585
60011SOL    HW297644  10.331   8.821  11.317  0.3710 -0.1009 -0.6314
60012SOL     OW97645   1.062   5.729   1.036  0.5280 -0.6652  0.0977
60012SOL    HW197646   1.123   5.657   1.049  1.5591 -0.0684 -1.1758
60012SOL    HW297647   1.109   5.807   1.067  0.7934 -0.0871 -1.6011
60013SOL     OW97648  10.658  10.724  13.047 -0.1499 -0.4099  0.4238
60013SOL    HW197649  10.699  10.772  13.118  0.7144 -0.4555 -0.0171
60013SOL    HW297650  10.566  10.749  13.050  0.1973  0.9625  0.4528
60014SOL     OW97651   1.513  11.456  13.523  0.5751  0.0447 -0.0949
60014SOL    HW197652   1.487  11.526  13.463  2.2017  0.3226 -0.5225
60014SOL    HW297653   1.563  11.396  13.468 -0.5680 -1.3501  0.3237
60015SOL     OW97654   1.458   9.437  10.801  0.2222 -0.3282  0.4246
60015SOL    HW197655   1.478   9.516  10.750 -0.3495  0.2703  1.1186
60015SOL    HW297656   1.505   9.367  10.755  2.6582  0.7497  1.0651
60016SOL     OW97657   2.721  10.499  10.026 -0.5262  0.0279  0.3698
60016SOL    HW197658   2.712  10.533  10.115 -0.6879  0.8602  0.0405
60016SOL    HW297659   2.766  10.415  10.037  0.3507  0.5839  1.1501
60017SOL     OW97660  12.724   2.963   9.624 -0.2712 -0.2899 -0.1125
60017SOL    HW197661  12.725   2.897   9.693  0.8193  1.9120  2.1492
60017SOL    HW297662  12.791   2.934   9.561 -1.0159 -2.1481 -0.0899
60018SOL     OW97663  12.926   3.882   8.044  0.2745 -0.1355  0.1082
60018SOL    HW197664  12.986   3.827   8.094 -0.5017 -1.9784 -0.9060
60018SOL    HW297665  12.957   3.972   8.061  3.3227 -0.9631 -0.3650
60019SOL     OW97666   5.727  13.412   5.478 -0.5447  0.4664 -0.0158
60019SOL    HW197667   5.657  13.477   5.489 -0.8374  0.0362  0.7017
60019SOL    HW297668   5.774  13.413   5.560 -1.2999 -1.0866  0.4812
60020SOL     OW97669   9.955   1.364  13.219  0.0276  0.4378  0.0489
60020SOL    HW197670   9.872   1.348  13.175  1.3577 -0.9815 -2.1250
60020SOL    HW297671   9.933   1.364  13.312 -2.2697 -0.9101 -0.4162
60021SOL     OW97672   6.621   6.779   9.499 -0.2254  0.1225 -0.2906
60021SOL    HW197673   6.587   6.697   9.534 -1.8394  0.5046 -0.8566
60021SOL    HW297674   6.692   6.803   9.558 -1.3653 -0.4116  1.3624
60022SOL     OW97675   4.095   1.265   3.517  0.2936 -0.1653  0.0035
60022SOL    HW197676   4.005   1.260   3.484  0.3579  1.2583 -0.4473
60022SOL    HW297677   4.142   1.318   3.452  1.4547 -0.8393  0.2606
60023SOL     OW97678   3.460  13.056   5.637  0.0400  0.2175 -0.6199
60023SOL    HW197679   3.368  13.054   5.663 -0.4342  0.5775 -2.2008
60023SOL    HW297680   3.470  12.984   5.576  0.5584  0.7967 -1.2272
60024SOL     OW97681   3.689   6.903   2.254  0.1297 -0.6898 -0.0542
60024SOL    HW197682   3.597   6.924   2.237  0.3814 -0.1687 -0.8292
60024SOL    HW297683   3.724   6.879   2.168  0.5950 -1.3959  0.3241
60025SOL     OW97684   7.907   5.724  13.658  0.2216  0.4626 -0.1270
60025SOL    HW197685   7.855   5.801  13.681  0.2605  0.6059 -0.5152
60025SOL    HW297686   7.983   5.759  13.612 -0.9968  0.0607 -2.6140
60026SOL     OW97687   0.996   5.729   8.856 -0.2562  0.2353 -0.1553
60026SOL    HW197688   1.010   5.735   8.950 -1.8967 -1.6412  0.2754
60026SOL    HW297689   1.057   5.661   8.827 -1.8012 -1.3522  0.1365
60027SOL     OW97690  13.397   0.451  13.139 -0.4715 -0.3857 -0.2476
60027SOL    HW197691  13.489   0.473  13.150 -0.8389  0.6196  1.0657
60027SOL    HW297692  13.387   0.366  13.183 -0.6497  0.6842  1.8746
60028SOL     OW97693  11.484   9.478   5.617  0.2368  0.3336 -0.6576
60028SOL    HW197694  11.556   9.429   5.655  1.9619  2.1411 -1.3827
60028SOL    HW297695  11.497   9.471   5.522 -0.9317  0.1629 -0.8249
60029SOL     OW97696   2.379  12.570   3.437 -0.1753 -0.0719 -0.2611
60029SOL    HW197697   2.395  12.595   3.528 -2.0212  0.7238 -0.1198
60029SOL    HW297698   2.418  12.640   3.385 -0.1438  0.0603 -0.0572
60030SOL     OW97699   5.525   6.765   2.388  0.1358  0.0967  0.1649
60030SOL    HW197700   5.487   6.731   2.308  0.0064 -0.1875  0.3478
60030SOL    HW297701   5.450   6.782   2.445  0.1552  1.1566 -0.1038
60031SOL     OW97702   2.314   9.220  10.813 -0.0431  0.2264 -0.0713
60031SOL    HW197703   2.244   9.261  10.762  0.5603  1.4635  0.0655
60031SOL    HW297704   2.308   9.261  10.899 -0.4878 -1.2024  0.5978
60032SOL     OW97705   1.306   1.423   5.205 -0.0628 -0.0563  0.4070
60032SOL    HW197706   1.352   1.454   5.283  1.1966 -1.3814  0.2376
60032SOL    HW297707   1.213   1.435   5.226  0.2915  2.1499  0.9921
60033SOL     OW97708   5.201  11.522  11.370 -0.2344  0.5557 -0.1170
60033SOL    HW197709   5.122  11.498  11.321  0.3043  0.7505 -1.1063
60033SOL    HW297710   5.227  11.441  11.413 -1.0724  0.5313  0.3682
60034SOL     OW97711   2.675   8.845  10.564  0.1533  0.3520 -0.1724
60034SOL    HW197712   2.739   8.916  10.559 -0.3603  0.8535  0.1939
60034SOL    HW297713   2.713   8.782  10.624  0.1327  0.8376  0.3622
60035SOL     OW97714   2.272  13.824   9.044  0.3836 -0.2021 -0.1320
60035SOL    HW197715   2.272  13.761   9.116  0.7235 -0.2856 -0.2050
60035SOL    HW297716   2.244  13.906   9.084 -1.8115 -0.7768 -0.3705
60036SOL     OW97717   5.779  11.952   2.514  0.3781  0.1162 -0.2204
60036SOL    HW197718   5.835  11.990   2.582 -0.2013  1.0629 -0.2459
60036SOL    HW297719   5.697  11.931   2.559 -0.0613  0.8816 -0.6370
60037SOL     OW97720  13.168  13.626  12.354  0.1058  0.6581 -0.3180
60037SOL    HW197721  13.074  13.620  12.335 -0.0803 -0.0881  0.7442
60037SOL    HW297722  13.172  13.671  12.439  0.6636 -0.0687  0.0488
60038SOL     OW97723   3.246  13.123   9.459 -0.4211  0.0838  0.5613
60038SOL    HW197724   3.311  13.157   9.522 -0.5047  0.6130  0.3645
60038SOL    HW297725   3.202  13.053   9.507 -0.3006  0.3028  1.0030
60039SOL     OW97726   2.407   9.646  12.991 -0.2541 -0.0946  0.5429
60039SOL    HW197727   2.397   9.609  12.903 -0.6308  0.7520  0.2171
60039SOL    HW297728   2.454   9.728  12.977  0.3430 -0.3132  1.2261
60040SOL     OW97729   4.629   8.599   1.254 -0.8328  0.1364  0.2721
60040SOL    HW197730   4.613   8.545   1.332 -0.1956 -1.2824 -0.5390
60040SOL    HW297731   4.639   8.688   1.288  1.5868 -0.7286  2.0834
60041SOL     OW97732   1.311   0.936   4.602 -0.3525  0.3155 -0.6450
60041SOL    HW197733   1.383   0.963   4.545  0.9072 -0.3416  0.5787
60041SOL    HW297734   1.288   0.849   4.571 -0.2372  0.2938 -0.6708
60042SOL     OW97735  12.558  12.133   5.277  0.9543 -0.3955 -0.5200
60042SOL    HW197736  12.569  12.073   5.203 -2.0338 -1.4657 -0.2552
60042SOL    HW297737  12.487  12.191   5.249  1.3816  0.7095  0.6320
60043SOL     OW97738   9.936   2.674   3.275 -0.3617 -0.5432  0.9605
60043SOL    HW197739   9.907   2.634   3.357  1.0004 -0.7706  1.3672
60043SOL    HW297740  10.031   2.684   3.286 -0.2000 -0.2870 -0.4695
60044SOL     OW97741  13.751  12.980   8.681  0.3322  0.0875 -0.8197
60044SOL    HW197742  13.665  12.948   8.654  0.8908  0.0689 -2.7667
60044SOL    HW297743  13.767  12.939   8.766 -0.0335 -2.9743 -2.0964
60045SOL     OW97744   8.011   0.394   1.148 -0.5300 -0.2677  0.5473
60045SOL    HW197745   8.030   0.399   1.241 -1.6351 -1.1824  0.8360
60045SOL    HW297746   7.916   0.405   1.142 -0.3441  1.1812 -0.5980
60046SOL     OW97747  13.897   9.887   9.533 -0.0949 -0.1238 -0.0037
60046SOL    HW197748  13.978   9.858   9.574 -1.4068 -1.6357  1.7002
60046SOL    HW297749  13.849   9.932   9.603 -1.1757 -0.2092 -0.6601
60047SOL     OW97750  14.059  10.719  11.270  0.1726  0.2661 -0.5181
60047SOL    HW197751  14.130  10.773  11.235  1.4888 -0.0162  1.5196
60047SOL    HW297752  14.068  10.727  11.365 -0.8938 -1.9043 -0.1861
60048SOL     OW97753   3.537   2.398   6.968 -0.0697  0.3353 -0.9017
60048SOL    HW197754   3.486   2.417   7.047 -1.0658 -0.0629 -1.4312
60048SOL    HW297755   3.615   2.454   6.975 -0.4930  0.8201  0.0147
60049SOL     OW97756   6.638  12.958  12.643  0.5320 -0.3441 -0.3121
60049SOL    HW197757   6.614  12.912  12.563  0.8297  1.1851 -1.3202
60049SOL    HW297758   6.724  12.995  12.624  1.1904 -0.9787  1.1888
60050SOL     OW97759   7.883  12.479   2.178  0.3588 -0.2664 -0.6946
60050SOL    HW197760   7.804  12.533   2.173  0.2822 -0.4731 -2.3041
60050SOL    HW297761   7.884  12.429   2.096  1.8841 -0.6624 -0.4817
60051SOL     OW97762  10.959   7.698   5.692 -0.0150  0.3204 -0.4256
60051SOL    HW197763  10.952   7.688   5.786  0.8538 -1.6373 -0.5186
60051SOL    HW297764  10.886   7.648   5.656 -1.4373  2.5350 -0.8149
60052SOL     OW97765  13.306   6.861   4.142 -0.0818 -0.1741 -0.1489
60052SOL    HW197766  13.383   6.835   4.091  0.6686  0.8146  0.4540
60052SOL    HW297767  13.241   6.792   4.124 -0.0181  0.3633 -2.7952
60053SOL     OW97768   2.786   2.763   2.799 -0.4525 -0.1301 -0.4071
60053SOL    HW197769   2.783   2.844   2.748  0.5695 -0.0739 -0.3930
60053SOL    HW297770   2.866   2.771   2.851 -1.0647 -0.5445  0.6101
60054SOL     OW97771   0.713   8.701   0.255  0.2694  0.2236  0.0312
60054SOL    HW197772   0.620   8.681   0.266 -0.1831  2.1032  0.0399
60054SOL    HW297773   0.737   8.744   0.337  0.7965  0.8820 -0.4577
60055SOL     OW97774  11.309   7.403   3.834  0.4034 -0.0911  0.6364
60055SOL    HW197775  11.401   7.407   3.808  0.1111  1.5336 -0.2868
60055SOL    HW297776  11.280   7.494   3.837 -1.0620 -0.5367  1.3845
60056SOL     OW97777   9.139   8.667  10.652 -0.3856 -0.2706 -0.1216
60056SOL    HW197778   9.162   8.575  10.664 -1.3980 -0.5524 -0.2513
60056SOL    HW297779   9.074   8.667  10.581  0.0978  0.6128 -0.5819
60057SOL     OW97780   5.034  10.937   8.815  0.1119  0.2600 -0.2658
60057SOL    HW197781   5.028  10.997   8.890  1.4311 -0.3238  0.3321
60057SOL    HW297782   5.049  10.851   8.855 -0.7088 -0.3173 -1.1564
60058SOL     OW97783  13.312   2.357   5.679  0.3434  0.0136  0.0276
60058SOL    HW197784  13.347   2.427   5.733  1.3147  0.7227 -1.4433
60058SOL    HW297785  13.227   2.390   5.648  0.5553  0.3252 -0.2276
60059SOL     OW97786   9.959  14.023  13.491  0.0793 -0.4826 -0.2446
60059SOL    HW197787   9.912  13.940  13.483 -0.3238 -0.2536 -0.2790
60059SOL    HW297788   9.890  14.090  13.490  0.3974 -0.1516 -0.1667
60060SOL     OW97789   0.520   4.409  11.477 -0.2425 -0.4428 -0.4943
60060SOL    HW197790   0.520   4.315  11.499  0.2932 -0.5060 -0.7416
60060SOL    HW297791   0.611   4.436  11.491 -0.2925 -0.0657 -0.8937
60061SOL     OW97792   7.207   3.752   0.329  0.5403 -0.4504 -0.2567
60061SOL    HW197793   7.225   3.694   0.256 -0.5891 -0.9541 -0.1513
60061SOL    HW297794   7.119   3.728   0.359 -0.3847  1.9170 -0.8195
60062SOL     OW97795  10.731   2.741   3.724 -0.2587  0.7252 -0.0462
60062SOL    HW197796  10.682   2.688   3.661  0.2817  0.1205  0.0236
60062SOL    HW297797  10.823   2.732   3.697 -0.0526  0.7195  0.6260
60063SOL     OW97798   6.856   1.043   7.044  0.0341  0.2869  0.3784
60063SOL    HW197799   6.793   0.973   7.059  0.0395  0.4963  1.4643
60063SOL    HW297800   6.937   0.998   7.021 -0.3640  0.0002 -0.5148
60064SOL     OW97801  11.878   9.315  13.225 -0.0226 -0.4835  0.3401
60064SOL    HW197802  11.961   9.293  13.267 -0.3835 -0.4177  1.0932
60064SOL    HW297803  11.834   9.231  13.213  0.3194 -0.5661 -0.4468
60065SOL     OW97804  12.982   1.029   1.208 -0.5722  0.4558 -0.2261
60065SOL    HW197805  12.939   1.062   1.287 -0.9768 -0.3656 -0.0930
60065SOL    HW297806  13.054   0.976   1.241 -0.4100  0.5533 -0.4241
60066SOL     OW97807  12.178   9.134   4.593 -0.4352 -0.4496 -0.4421
60066SOL    HW197808  12.235   9.087   4.532  1.0081 -1.4499  1.5390
60066SOL    HW297809  12.200   9.226   4.580  2.4765 -0.8359  0.8600
60067SOL     OW97810  13.051  12.470   5.009 -0.2808  0.4612 -0.4990
60067SOL    HW197811  12.966  12.428   5.016  0.4028 -1.0561 -1.0419
60067SOL    HW297812  13.084  12.447   4.923  1.4159 -0.4411  0.3294
60068SOL     OW97813   1.258  12.226   4.247 -0.3022  0.0940 -0.5884
60068SOL    HW197814   1.190  12.159   4.250  0.2537 -0.4460  0.6211
60068SOL    HW297815   1.318  12.197   4.179 -0.5309 -0.1672 -0.6796
60069SOL     OW97816   5.819   2.159   4.551 -0.2254  0.4615  0.2398
60069SOL    HW197817   5.905   2.159   4.508 -0.3660  0.9276 -0.0487
60069SOL    HW297818   5.780   2.243   4.526 -0.9968  0.0071 -0.0877
60070SOL     OW97819   3.545  11.898   5.319 -0.0922  0.1340  0.1567
60070SOL    HW197820   3.492  11.872   5.395 -1.8624 -1.6759 -1.5869
60070SOL    HW297821   3.512  11.844   5.247  3.2810 -0.0935 -1.3761
60071SOL     OW97822   1.558   1.422   1.540  0.0291  0.0442 -0.3361
60071SOL    HW197823   1.645   1.447   1.568  0.8442 -1.9850 -0.8506
60071SOL    HW297824   1.553   1.448   1.448  0.0526  0.2532 -0.2774
60072SOL     OW97825   4.334   2.205   0.595 -0.2757 -0.1997  0.2560
60072SOL    HW197826   4.241   2.181   0.603 -0.2511 -0.6776 -0.7253
60072SOL    HW297827   4.339   2.248   0.510  0.4391 -0.3458  0.2237
60073SOL     OW97828   5.349  12.714  13.782  0.3037  0.2917 -0.3574
60073SOL    HW197829   5.286  12.760  13.837 -1.6364 -0.0099 -2.1861
60073SOL    HW297830   5.344  12.623  13.811  0.4670  0.3955  0.0007
60074SOL     OW97831   5.890   6.963   3.237 -0.0407  0.3584 -0.0676
60074SOL    HW197832   5.901   7.051   3.272  0.3927 -0.0422  0.8234
60074SOL    HW297833   5.944   6.908   3.293  0.9708 -0.2548 -1.5798
60075SOL     OW97834   8.253  10.404   8.850 -0.1093 -0.1314  0.0716
60075SOL    HW197835   8.178  10.396   8.790 -0.9423  0.2728  1.0250
60075SOL    HW297836   8.281  10.314   8.865  1.8322 -0.1625 -2.9695
60076SOL     OW97837  13.999   1.110   3.035  0.7253  0.0478  0.0546
60076SOL    HW197838  13.958   1.192   3.007 -0.3562 -0.5088 -0.0484
60076SOL    HW297839  14.073   1.099   2.976  1.4786  1.4369  0.6979
60077SOL     OW97840  14.026   3.413  13.293 -0.0847  0.4221  0.5357
60077SOL    HW197841  14.065   3.468  13.225  0.7917 -0.5678  0.2167
60077SOL    HW297842  13.934   3.407  13.268 -0.2110  1.7611  0.5991
60078SOL     OW97843   9.578   5.942   3.330  0.3509 -0.1218 -0.8788
60078SOL    HW197844   9.486   5.959   3.352 -0.2881  0.2868 -3.5557
60078SOL    HW297845   9.619   6.028   3.330  0.8738 -0.3338  0.6226
60079SOL     OW97846   7.245   3.729   3.368  0.5316  0.3002  0.2112
60079SOL    HW197847   7.314   3.791   3.342  0.3298  1.2709  1.8966
60079SOL    HW297848   7.189   3.778   3.427 -1.0565 -0.7920 -0.3145
60080SOL     OW97849  13.257   1.542   5.476  0.0824  0.3459 -1.0127
60080SOL    HW197850  13.352   1.531   5.480  0.1043  0.8222  0.7599
60080SOL    HW297851  13.222   1.455   5.493  0.2641  0.7541  2.0657
60081SOL     OW97852   7.318  10.215   2.419 -0.0031  0.1758 -0.0973
60081SOL    HW197853   7.301  10.123   2.435  0.0336 -0.6448 -3.8522
60081SOL    HW297854   7.255  10.262   2.474 -0.7504 -2.0739  1.0655
60082SOL     OW97855   6.739  10.995   7.643  0.2525  0.2633 -0.0477
60082SOL    HW197856   6.667  11.005   7.705  0.4613 -0.7007  0.3576
60082SOL    HW297857   6.814  11.033   7.688  0.2836  0.0720  0.0625
60083SOL     OW97858   5.781   4.396   3.975  0.3837 -0.1590 -0.3390
60083SOL    HW197859   5.815   4.458   3.911 -1.1807  1.2910  0.1563
60083SOL    HW297860   5.698   4.366   3.937 -0.9604  1.3003  1.2409
60084SOL     OW97861   5.744  10.805   3.741  0.3585  0.6134  0.3349
60084SOL    HW197862   5.771  10.821   3.651 -0.0391  2.1436  0.4601
60084SOL    HW297863   5.693  10.723   3.737  1.1131  0.1828 -0.6549
60085SOL     OW97864   0.760   7.569   2.110 -0.1743 -0.1029 -0.1015
60085SOL    HW197865   0.797   7.607   2.189 -2.5079 -1.2966  1.6734
60085SOL    HW297866   0.739   7.644   2.054  3.3208  0.6802 -0.5782
60086SOL     OW97867   7.385   9.681   9.270  0.5140 -0.0470  0.2724
60086SOL    HW197868   7.382   9.586   9.265  1.2525 -0.0269 -2.2556
60086SOL    HW297869   7.327   9.704   9.342 -0.8762 -2.3487 -0.0326
60087SOL     OW97870   5.531  11.167   1.939 -0.7096  0.3272  0.5845
60087SOL    HW197871   5.597  11.232   1.913 -0.1373  0.3841  2.0699
60087SOL    HW297872   5.450  11.197   1.899  0.2052  0.0819 -1.5614
60088SOL     OW97873   0.568  10.465  11.008 -0.0406  0.3123 -0.5028
60088SOL    HW197874   0.605  10.377  11.014 -0.5217 -0.0269 -1.9676
60088SOL    HW297875   0.541  10.473  10.916 -0.1069  1.9493 -0.3695
60089SOL     OW97876   8.219  11.638   9.664 -0.2142  0.1447  0.0853
60089SOL    HW197877   8.156  11.613   9.596 -2.4906  0.0671  2.0955
60089SOL    HW297878   8.248  11.554   9.701 -1.8104  0.2109  1.5895
60090SOL     OW97879   2.199   2.786   6.420  0.2981  0.3661  0.2531
60090SOL    HW197880   2.209   2.872   6.462  1.0807  0.3255  0.1631
60090SOL    HW297881   2.209   2.803   6.327  0.6871  0.1397  0.2541
60091SOL     OW97882   7.303   8.930  12.850 -0.5052 -0.1658 -0.1623
60091SOL    HW197883   7.270   9.020  12.848 -0.7485 -0.2597 -0.4935
60091SOL    HW297884   7.381   8.931  12.796  1.0371  0.4299  1.9251
60092SOL     OW97885  12.936   9.390   3.660  0.2786  0.1330 -0.2404
60092SOL    HW197886  12.855   9.414   3.615  1.2878 -0.5723 -2.6357
60092SOL    HW297887  12.939   9.448   3.736 -2.8597 -0.4370  0.4487
60093SOL     OW97888   8.254   3.054  11.438  0.0463  0.0973 -0.1841
60093SOL    HW197889   8.277   2.971  11.397  0.1804 -0.7702  1.5619
60093SOL    HW297890   8.168   3.076  11.402 -0.1632 -1.0055 -0.3671
60094SOL     OW97891   0.937   0.195   0.073 -0.5162 -0.4166  1.0140
60094SOL    HW197892   1.006   0.179   0.138 -0.0085 -0.8418  0.3806
60094SOL    HW297893   0.890   0.271   0.107 -0.2934 -0.6634  1.9114
60095SOL     OW97894   9.307   1.702   6.153  0.5839 -0.4298 -0.3530
60095SOL    HW197895   9.368   1.770   6.182 -1.2072  0.2110  2.2187
60095SOL    HW297896   9.362   1.623   6.144  1.9673  0.3630  0.7961
60096SOL     OW97897  11.485   3.166  12.787 -0.0580  0.1784 -0.4437
60096SOL    HW197898  11.392   3.156  12.767  0.4481 -0.9253 -2.6508
60096SOL    HW297899  11.514   3.238  12.731  0.8161 -0.9987 -1.5880
60097SOL     OW97900  12.966   4.225  10.041 -0.2500 -0.4193 -0.3558
60097SOL    HW197901  12.885   4.269  10.012 -1.2921 -0.8475  1.7162
60097SOL    HW297902  12.955   4.135  10.012  0.5701 -0.0067 -2.0683
60098SOL     OW97903  13.691   3.065  13.759  0.0609  0.4127 -0.0222
60098SOL    HW197904  13.748   3.047  13.684  0.2268  2.0671 -0.3256
60098SOL    HW297905  13.613   3.103  13.720  0.1996  1.4015  0.6511
60099SOL     OW97906   1.305   4.988   7.794 -0.6046 -0.7475 -0.3294
60099SOL    HW197907   1.323   4.937   7.716  0.5617 -0.8693  0.0057
60099SOL    HW297908   1.218   5.025   7.779 -1.2294 -2.3446 -0.8223
60100SOL     OW97909  13.733  13.649  11.125  0.2260  0.1131  0.1871
60100SOL    HW197910  13.731  13.612  11.037 -0.5056  1.0965 -0.2233
60100SOL    HW297911  13.821  13.685  11.134  0.9672 -1.6885  0.6048
60101SOL     OW97912   0.482   9.777   1.118  0.2658  0.4324 -0.8504
60101SOL    HW197913   0.460   9.789   1.211  1.2092 -2.2473 -0.1702
60101SOL    HW297914   0.397   9.775   1.074 -0.3953 -0.9000  0.3813
60102SOL     OW97915  10.889   3.677   5.613  0.8603 -0.0038 -0.2056
60102SOL    HW197916  10.862   3.768   5.603 -0.6342 -0.5125 -1.0554
60102SOL    HW297917  10.831   3.628   5.554  1.7515 -1.4881  0.1032
60103SOL     OW97918   7.553   9.306   1.255 -0.0482 -0.2386 -0.4140
60103SOL    HW197919   7.490   9.289   1.324  0.9720  0.4086  0.7154
60103SOL    HW297920   7.630   9.255   1.279  0.0676 -0.5943 -1.4835
60104SOL     OW97921   8.654   1.952   7.436 -0.3272  0.1039 -0.0319
60104SOL    HW197922   8.719   1.929   7.370 -2.2885 -0.8744 -1.7131
60104SOL    HW297923   8.684   1.908   7.515  1.4344  0.3197 -0.5374
60105SOL     OW97924  10.586  12.063  12.272 -0.3252 -0.1809  0.3210
60105SOL    HW197925  10.601  11.988  12.215 -2.0900  0.4823 -1.0996
60105SOL    HW297926  10.492  12.062  12.288 -0.2770  1.3634  0.8183
60106SOL     OW97927   1.583  13.735  13.222 -0.2840 -0.1825  0.6456
60106SOL    HW197928   1.502  13.780  13.199 -0.3024 -0.5835 -0.1108
60106SOL    HW297929   1.645  13.763  13.155 -0.2901 -1.2482  0.1856
60107SOL     OW97930   8.269  11.581   6.049  0.0451  0.3136 -0.7567
60107SOL    HW197931   8.236  11.515   5.988  0.2586 -2.3219  1.7571
60107SOL    HW297932   8.192  11.631   6.074 -0.6276 -0.6700 -0.7951
60108SOL     OW97933   9.055   3.022  10.140  0.2124  0.6732  0.6831
60108SOL    HW197934   9.087   3.033  10.230 -0.4610 -1.2307  1.2217
60108SOL    HW297935   9.099   2.943  10.109 -1.7748 -0.4227  0.4525
60109SOL     OW97936   2.204  12.417   4.571 -0.1332 -0.0076 -0.2560
60109SOL    HW197937   2.266  12.477   4.529  2.2735 -0.9884  1.6524
60109SOL    HW297938   2.118  12.454   4.551  1.0728  2.0705 -2.0967
60110SOL     OW97939   8.270   6.062   3.185  0.1646  0.3555 -0.2452
60110SOL    HW197940   8.343   6.072   3.124  0.0091 -2.3261 -0.9859
60110SOL    HW297941   8.192   6.062   3.129 -0.0938 -0.5523  0.0928
60111SOL     OW97942  13.209  13.584   5.299 -0.2481 -0.4618 -0.5480
60111SOL    HW197943  13.123  13.593   5.340 -0.2169  0.0736 -0.6000
60111SOL    HW297944  13.217  13.661   5.243  1.5707  1.1736  1.8133
60112SOL     OW97945  10.833   4.544  10.963 -0.4092  0.3780 -0.6177
60112SOL    HW197946  10.758   4.511  10.913 -1.2996 -0.2230  1.0496
60112SOL    HW297947  10.798   4.561  11.050  1.2440  0.7758 -0.0044
60113SOL     OW97948   7.722   3.232   0.802 -0.2104  0.0463 -0.0923
60113SOL    HW197949   7.787   3.172   0.766 -1.6806  0.1671 -3.2098
60113SOL    HW297950   7.658   3.174   0.845 -0.6456 -0.5379 -1.4592
60114SOL     OW97951   6.817  12.202  12.460  0.5767 -0.0997  0.2344
60114SOL    HW197952   6.769  12.264  12.514 -0.3767 -0.6522  0.0460
60114SOL    HW297953   6.790  12.116  12.492  0.0930 -0.4403 -1.0102
60115SOL     OW97954  12.879   7.073  10.883 -0.2492  0.4634 -0.5716
60115SOL    HW197955  12.951   7.114  10.932 -0.0094 -0.4573 -0.1388
60115SOL    HW297956  12.886   6.980  10.902 -0.3853  0.1127 -2.0737
60116SOL     OW97957  10.594   3.513   2.505  0.6048 -0.1081  0.0820
60116SOL    HW197958  10.658   3.442   2.494  0.7082  0.2339 -1.9914
60116SOL    HW297959  10.562   3.504   2.595  2.7277 -0.9959  0.8074
60117SOL     OW97960  12.938   4.006   1.270  0.1062 -0.2077  0.2720
60117SOL    HW197961  13.015   3.950   1.260  0.2369 -0.1396  0.8361
60117SOL    HW297962  12.927   4.014   1.365 -0.1734  0.3591  0.1932
60118SOL     OW97963   2.106   8.692   9.860  0.1510  0.1694  0.2087
60118SOL    HW197964   2.050   8.661   9.789  0.4428  0.1210 -0.0029
60118SOL    HW297965   2.187   8.719   9.816  0.0668  0.8029  0.4431
60119SOL     OW97966   5.862  10.329   3.259  0.0773  0.4765  0.3162
60119SOL    HW197967   5.775  10.291   3.277 -0.1790  0.6752 -0.4492
60119SOL    HW297968   5.922  10.276   3.311 -0.7337  1.9396  2.8883
60120SOL     OW97969  12.992   4.691   5.636 -0.6437 -0.6973 -0.4166
60120SOL    HW197970  12.974   4.783   5.653 -0.3498 -0.3606 -1.7793
60120SOL    HW297971  13.086   4.686   5.622 -0.8092 -0.9478 -1.6129
60121SOL     OW97972  11.496   4.485   4.739  0.4784 -0.0418 -0.1166
60121SOL    HW197973  11.412   4.530   4.749 -0.1392 -0.8856 -1.2413
60121SOL    HW297974  11.496   4.418   4.808  0.0395 -0.2959 -0.3570
60122SOL     OW97975  11.937  10.579   6.247 -0.3034  0.3815 -0.6817
60122SOL    HW197976  12.028  10.608   6.254  0.0035 -0.6749 -0.0560
60122SOL    HW297977  11.940  10.486   6.268 -2.1162  1.1260  4.0590
60123SOL     OW97978   4.201   2.061  10.854  0.1525  0.0384  0.5185
60123SOL    HW197979   4.237   2.039  10.940  0.9416 -1.1349 -0.0962
60123SOL    HW297980   4.119   2.107  10.874  0.3190 -0.2272  1.8989
60124SOL     OW97981   9.062   7.079  12.479  0.1216 -0.2203  0.8648
60124SOL    HW197982   8.999   7.041  12.540 -0.6923  1.8760  1.4202
60124SOL    HW297983   9.120   7.006  12.456  1.0701 -0.9820  4.8889
60125SOL     OW97984   9.978   0.264   4.429  0.3238  0.1998  0.1322
60125SOL    HW197985   9.967   0.193   4.492  0.3896 -0.2378 -0.3379
60125SOL    HW297986   9.978   0.344   4.482 -3.2738  0.1836  0.4486
60126SOL     OW97987   8.333   0.229  13.617 -0.3999 -0.2354 -0.0639
60126SOL    HW197988   8.308   0.306  13.668 -0.7272 -0.8528  0.7269
60126SOL    HW297989   8.415   0.254  13.574 -0.3475  0.4461  0.4139
60127SOL     OW97990  10.846   1.110   4.200  0.0207 -0.4417  0.2343
60127SOL    HW197991  10.866   1.042   4.136  0.5664 -0.1885  0.1306
60127SOL    HW297992  10.875   1.191   4.159  0.4853 -0.2904  0.8438
60128SOL     OW97993   0.742   9.216   5.107 -0.6203  0.5745 -0.0135
60128SOL    HW197994   0.797   9.139   5.100  1.2376  1.8289  0.1507
60128SOL    HW297995   0.735   9.250   5.018  0.7414  1.6266  0.2490
60129SOL     OW97996   9.651  13.299   1.011  0.5012  0.4031  0.1317
60129SOL    HW197997   9.651  13.393   1.030  1.6424  0.7439 -1.3581
60129SOL    HW297998   9.674  13.293   0.918 -0.5221 -1.3189 -0.0579
60130SOL     OW97999   2.317   3.888  13.626 -0.5411 -0.1975 -0.0165
60130SOL    HW198000   2.302   3.804  13.670 -1.9237 -0.8243 -1.5763
60130SOL    HW298001   2.412   3.898  13.626 -0.3262 -1.9298 -0.0577
60131SOL     OW98002   4.993   0.788  11.978  0.3517 -0.8647 -0.3193
60131SOL    HW198003   4.992   0.883  11.964 -1.1619 -0.6158  1.1608
60131SOL    HW298004   5.074   0.772  12.027  0.7871 -0.3927 -0.8772
60132SOL     OW98005  13.507   4.464   1.602 -0.1693 -0.0497  0.0273
60132SOL    HW198006  13.558   4.400   1.553  1.0299 -0.1641  1.3472
60132SOL    HW298007  13.530   4.548   1.563  0.1538 -0.2075 -0.1308
60133SOL     OW98008   5.246  12.153  12.120  0.0586  0.4182  0.1675
60133SOL    HW198009   5.336  12.143  12.089 -0.1929 -1.6383 -0.0304
60133SOL    HW298010   5.201  12.073  12.091 -1.7790  1.2827  0.4749
60134SOL     OW98011  11.870   9.509   8.445  0.4348  1.0625 -0.0426
60134SOL    HW198012  11.880   9.521   8.540 -2.8799 -2.0890  0.9229
60134SOL    HW298013  11.956   9.477   8.416  0.4931 -1.8769  2.7842
60135SOL     OW98014   3.958   2.024   6.138  0.2580  0.6587 -0.2594
60135SOL    HW198015   4.027   2.059   6.082 -0.4705  2.9757  0.1713
60135SOL    HW298016   3.876   2.057   6.100 -0.2938  1.7754  1.7341
60136SOL     OW98017   6.328  13.639   6.802 -0.6314  0.1779  0.7452
60136SOL    HW198018   6.282  13.714   6.763  0.8640  0.5783 -0.3397
60136SOL    HW298019   6.414  13.674   6.825  0.4319 -1.4040 -0.6232
60137SOL     OW98020  13.014   0.202  11.217  0.0441  0.6691 -0.0825
60137SOL    HW198021  13.077   0.210  11.144  0.6397 -0.4209  0.2874
60137SOL    HW298022  12.999   0.292  11.245  1.0131  0.9973 -0.5497
60138SOL     OW98023   8.299  11.817   7.533  0.2661  0.8732  0.0758
60138SOL    HW198024   8.240  11.840   7.606  0.3962  0.9817  0.1488
60138SOL    HW298025   8.370  11.882   7.539 -0.5545  1.9317 -1.1491
60139SOL     OW98026  10.719   4.701  10.532  0.2184 -0.1217 -0.0323
60139SOL    HW198027  10.775   4.711  10.608  0.7175 -0.0789 -0.4017
60139SOL    HW298028  10.645   4.648  10.562  0.3012  0.0822  0.5334
60140SOL     OW98029   3.231  13.218   7.159  0.1003  0.1319  0.8031
60140SOL    HW198030   3.287  13.148   7.193 -0.3370 -0.1145  1.0253
60140SOL    HW298031   3.160  13.172   7.114  2.0197  0.3645 -2.9016
60141SOL     OW98032  12.342   1.548   2.360  0.2930  0.1360  0.2460
60141SOL    HW198033  12.313   1.566   2.270 -0.2107 -0.5245  0.2706
60141SOL    HW298034  12.323   1.628   2.408  0.2310  0.3648 -0.1512
60142SOL     OW98035   5.737   1.884   3.127 -0.2695  0.0186 -0.1488
60142SOL    HW198036   5.670   1.938   3.084  0.7985  1.5028 -0.0592
60142SOL    HW298037   5.796   1.859   3.056  1.5834  2.6007  0.3048
60143SOL     OW98038   3.776   5.662   9.548 -0.0208  0.1638  0.0355
60143SOL    HW198039   3.730   5.680   9.466  0.7731  1.7593 -0.1057
60143SOL    HW298040   3.737   5.581   9.581 -0.2083 -0.6156 -2.0086
60144SOL     OW98041  11.139   4.537   7.234  0.0066 -0.1171  0.0498
60144SOL    HW198042  11.195   4.508   7.162 -0.8315  0.4344 -0.8489
60144SOL    HW298043  11.126   4.630   7.219 -1.0399 -0.2038  0.3026
60145SOL     OW98044  12.805   7.550   9.070 -0.3132  0.1419  0.5009
60145SOL    HW198045  12.882   7.493   9.067 -0.3969  0.0729 -1.3271
60145SOL    HW298046  12.837   7.637   9.048 -0.7448  0.0889 -0.4132
60146SOL     OW98047   0.838  10.805   3.443 -0.1793  0.1215 -0.2000
60146SOL    HW198048   0.768  10.776   3.384 -1.2577  2.4157 -0.1529
60146SOL    HW298049   0.802  10.792   3.531 -0.4511  1.0472 -0.1692
60147SOL     OW98050   8.688  11.627   5.389 -0.2075 -0.0006  0.4646
60147SOL    HW198051   8.654  11.677   5.463  0.6290  1.3645 -0.0514
60147SOL    HW298052   8.757  11.682   5.352  0.1690 -1.1720 -0.6334
60148SOL     OW98053  12.287   3.113   1.144 -0.1557 -0.2016 -0.5724
60148SOL    HW198054  12.369   3.065   1.155 -0.2532 -0.0705  1.0121
60148SOL    HW298055  12.306   3.202   1.173 -0.8050 -0.1305 -0.3316
60149SOL     OW98056   2.209   2.662  13.493 -0.7970 -0.3672  0.0376
60149SOL    HW198057   2.160   2.714  13.429  0.8201  1.0126 -0.1549
60149SOL    HW298058   2.144   2.637  13.559 -2.0310  0.1537 -0.9467
60150SOL     OW98059   0.370   0.094   5.366 -0.1619  0.0683  0.5466
60150SOL    HW198060   0.282   0.120   5.395 -0.4781  2.1086 -1.9130
60150SOL    HW298061   0.357   0.009   5.325 -0.2401 -1.3866  3.3193
60151SOL     OW98062  11.977  11.180   9.315 -0.0319 -0.1860  0.6035
60151SOL    HW198063  11.911  11.143   9.374 -1.1715 -1.8885 -1.6230
60151SOL    HW298064  11.929  11.242   9.261  0.4265 -0.5560 -0.2423
60152SOL     OW98065   8.445  10.533   0.182 -0.0831 -0.4161  0.0756
60152SOL    HW198066   8.454  10.626   0.162  0.8758  0.0608  2.4717
60152SOL    HW298067   8.351  10.516   0.172 -0.0477  0.3090 -2.1179
60153SOL     OW98068   9.494  12.331  11.009  0.5485 -0.0418  0.0256
60153SOL    HW198069   9.547  12.254  11.030  1.2680  0.1717 -0.9862
60153SOL    HW298070   9.548  12.405  11.036  0.3860  0.1538 -0.1935
60154SOL     OW98071  11.901   5.893   8.692 -0.0750  0.0405  0.2584
60154SOL    HW198072  11.987   5.900   8.735 -0.7279 -0.9261  1.8086
60154SOL    HW298073  11.843   5.947   8.746  0.0665  3.2908 -2.5207
60155SOL     OW98074   6.213   1.510   8.137 -0.4480  0.2778  0.4259
60155SOL    HW198075   6.290   1.566   8.150  0.0064 -0.3354  0.3830
60155SOL    HW298076   6.208   1.458   8.217  0.9500 -1.8042 -0.7494
60156SOL     OW98077   9.512   0.217   9.606  0.1765  0.8109  0.3446
60156SOL    HW198078   9.424   0.202   9.638 -0.7242  1.1193 -1.8233
60156SOL    HW298079   9.508   0.196   9.513  2.5730  0.1607  0.3050
60157SOL     OW98080   1.342   0.587  10.626  0.0119  0.4933 -0.2218
60157SOL    HW198081   1.387   0.510  10.594  0.1477  1.0592 -1.4510
60157SOL    HW298082   1.249   0.566  10.618 -0.0881 -1.0145  3.1308
60158SOL     OW98083   5.711   2.658   7.889 -0.1571 -0.0109  0.2305
60158SOL    HW198084   5.624   2.626   7.913 -0.1602 -0.3542 -0.2423
60158SOL    HW298085   5.705   2.753   7.899 -0.2466 -0.1142  1.3027
60159SOL     OW98086   7.515  12.638   9.625 -0.7304 -0.1288 -0.1417
60159SOL    HW198087   7.597  12.636   9.576 -1.4064  0.0231 -1.3306
60159SOL    HW298088   7.475  12.552   9.607 -0.0747 -0.9023  1.8291
60160SOL     OW98089  13.808   7.417   5.941  0.8057  0.1460 -0.1013
60160SOL    HW198090  13.753   7.414   5.862 -0.6422 -2.2833  0.8653
60160SOL    HW298091  13.765   7.480   5.998  0.3125 -0.0831 -0.2173
60161SOL     OW98092   7.025  10.904   6.643 -0.0780  0.1005 -0.2358
60161SOL    HW198093   7.101  10.852   6.618  0.9724 -0.0427  2.7845
60161SOL    HW298094   7.056  10.994   6.642 -0.2549  0.1619 -0.2446
60162SOL     OW98095   0.608   6.061   6.175 -0.2409 -0.6662  0.1912
60162SOL    HW198096   0.671   6.043   6.245  0.1643  0.2800  0.0802
60162SOL    HW298097   0.654   6.037   6.095 -0.1894 -0.4184  0.1458
60163SOL     OW98098   5.653   4.513   2.936  0.0916  0.3547 -0.5689
60163SOL    HW198099   5.648   4.485   3.027 -0.1275 -0.3738 -0.7960
60163SOL    HW298100   5.684   4.435   2.889  0.4371  0.7907 -1.0848
60164SOL     OW98101   4.531   2.119   5.979  0.3265 -0.2140  0.1340
60164SOL    HW198102   4.477   2.130   6.057 -1.0229 -1.6620 -0.5142
60164SOL    HW298103   4.612   2.079   6.010 -0.1693 -0.7089  0.8173
60165SOL     OW98104  13.906   9.728   2.975 -0.6108  0.9781 -0.0180
60165SOL    HW198105  13.852   9.748   3.052 -2.0311  0.5522 -0.8607
60165SOL    HW298106  13.977   9.793   2.978 -1.6422  2.1186  0.6822
60166SOL     OW98107   4.154   6.997   4.075  0.2308 -0.6532 -0.3356
60166SOL    HW198108   4.239   7.036   4.095 -0.8879  0.5636  2.3779
60166SOL    HW298109   4.128   7.037   3.992  2.5959 -1.6880 -1.6936
60167SOL     OW98110   6.207   5.240   4.395  0.0935 -0.2580  0.3759
60167SOL    HW198111   6.175   5.260   4.483 -1.3026 -0.2003 -0.1128
60167SOL    HW298112   6.162   5.159   4.371  1.7723 -1.2267  0.3439
60168SOL     OW98113   5.366   7.411   0.698  0.5701  0.1942  0.0002
60168SOL    HW198114   5.372   7.463   0.778  1.3673  1.9268 -1.1308
60168SOL    HW298115   5.303   7.458   0.643  1.7693  0.3507 -1.2957
60169SOL     OW98116   8.133   3.791  10.426 -0.1031 -0.3233 -0.5718
60169SOL    HW198117   8.040   3.791  10.449  0.4303  1.4779  2.1963
60169SOL    HW298118   8.173   3.733  10.491  0.9700  1.2293  0.2448
60170SOL     OW98119   7.489   8.268   5.384  0.3964  0.1117 -0.3551
60170SOL    HW198120   7.527   8.245   5.299  0.6101  1.4760 -0.6516
60170SOL    HW298121   7.550   8.232   5.448  0.5283 -0.4430 -0.7844
60171SOL     OW98122  13.586   6.378  13.144  0.0675  0.9963 -0.8299
60171SOL    HW198123  13.589   6.294  13.098 -0.7925  0.4924 -0.0063
60171SOL    HW298124  13.674   6.415  13.134  0.5527 -0.1636 -0.9139
60172SOL     OW98125   2.074   0.713   6.893  1.3497  0.1573  0.2052
60172SOL    HW198126   2.114   0.753   6.970  1.6022  1.1483 -0.4152
60172SOL    HW298127   2.118   0.628   6.884 -0.1761 -0.9549  2.3539
60173SOL     OW98128   3.657   7.903   4.803  0.2396 -0.4034 -0.3154
60173SOL    HW198129   3.648   7.824   4.855 -0.6612  0.8646  1.5536
60173SOL    HW298130   3.647   7.975   4.865 -0.2932  1.2025 -2.1375
60174SOL     OW98131  13.246   2.377  11.583  0.0184 -0.5784  0.2152
60174SOL    HW198132  13.188   2.448  11.610 -0.3826 -0.8457  0.0735
60174SOL    HW298133  13.295   2.413  11.509  1.9238  0.5418  1.9035
60175SOL     OW98134   0.090   5.629  12.395  0.2582 -0.4952 -0.0221
60175SOL    HW198135   0.145   5.679  12.455  0.1060 -1.4825  0.9775
60175SOL    HW298136   0.002   5.667  12.405  0.1857 -0.8024  0.5774
60176SOL     OW98137   1.493  11.273   7.647 -0.0934 -0.2732 -0.0803
60176SOL    HW198138   1.556  11.344   7.655  1.5840 -1.5492 -1.3807
60176SOL    HW298139   1.520  11.209   7.712 -0.5539 -0.4988 -0.1066
60177SOL     OW98140   1.931   2.397   2.698  0.3160 -0.1444  0.2288
60177SOL    HW198141   1.871   2.359   2.763  0.3408  2.1879  1.7137
60177SOL    HW298142   2.012   2.346   2.708 -0.3220 -1.1234  0.5908
60178SOL     OW98143  13.419   2.440   2.017  0.2837 -0.3970 -0.4690
60178SOL    HW198144  13.335   2.485   2.030  0.2167 -0.5783 -0.2599
60178SOL    HW298145  13.447   2.417   2.106 -0.1070 -1.5431 -0.6350
60179SOL     OW98146   0.719  10.566   0.507  0.4658  0.2093  0.3891
60179SOL    HW198147   0.734  10.541   0.598 -1.5264  0.6901  0.9005
60179SOL    HW298148   0.691  10.485   0.464  2.2395 -0.2102 -0.0428
60180SOL     OW98149   0.811   2.628  11.564  0.1269  0.0493  0.4890
60180SOL    HW198150   0.902   2.632  11.535  0.0420  0.4552  0.2814
60180SOL    HW298151   0.765   2.690  11.509  0.0929  1.3690  1.9374
60181SOL     OW98152   3.265   0.620   1.097 -0.3077  0.2401  0.1784
60181SOL    HW198153   3.228   0.640   1.010 -0.3173 -1.1164 -0.1553
60181SOL    HW298154   3.321   0.543   1.082  1.1376  1.0902  1.0457
60182SOL     OW98155   2.954  10.369   4.276  0.3029  0.5377  0.2733
60182SOL    HW198156   2.927  10.451   4.319  1.3114  0.7979  0.4391
60182SOL    HW298157   2.879  10.345   4.222 -0.5754  0.8024  1.3186
60183SOL     OW98158   8.246  13.851  10.010  0.7875  0.5559 -0.7102
60183SOL    HW198159   8.257  13.767   9.964  0.0582 -0.9329  1.6221
60183SOL    HW298160   8.152  13.854  10.030  1.4326 -0.4623  3.2622
60184SOL     OW98161  11.965  12.195  12.712  0.3828 -0.0858 -0.1164
60184SOL    HW198162  11.950  12.255  12.638 -1.6688  0.2568  0.5158
60184SOL    HW298163  12.016  12.247  12.775 -2.3413  1.5361  0.9298
60185SOL     OW98164   4.412   3.479   6.772 -0.2347  0.0254  0.2457
60185SOL    HW198165   4.331   3.435   6.797 -1.4273  1.1544 -1.3889
60185SOL    HW298166   4.427   3.544   6.841 -1.5377  0.7500 -0.1103
60186SOL     OW98167   0.790   0.584   8.249 -0.4121  0.5554 -0.2555
60186SOL    HW198168   0.761   0.656   8.193  0.4877 -0.1577 -1.7007
60186SOL    HW298169   0.879   0.608   8.275  0.2852 -0.4425 -1.5762
60187SOL     OW98170  12.717   1.718  10.771 -0.2021 -0.7785 -0.4272
60187SOL    HW198171  12.811   1.714  10.790 -0.4071 -1.6585  0.4704
60187SOL    HW298172  12.677   1.657  10.833 -1.5540  0.8080  0.3272
60188SOL     OW98173   9.217   1.348   5.094 -0.0567 -0.2172  0.1642
60188SOL    HW198174   9.184   1.414   5.155  0.6778 -2.2075  2.9088
60188SOL    HW298175   9.275   1.396   5.036 -2.3038  2.1394 -0.3606
60189SOL     OW98176  13.002   2.832  10.322  0.1540 -0.4176 -0.0703
60189SOL    HW198177  13.040   2.782  10.250  1.0096 -0.6082  0.5005
60189SOL    HW298178  12.967   2.765  10.381  0.6461 -0.3262  0.3353
60190SOL     OW98179   3.604  12.031   2.524 -0.2917  0.1122  0.4513
60190SOL    HW198180   3.568  12.077   2.448  0.9063  1.6520  0.7711
60190SOL    HW298181   3.672  11.975   2.487 -1.5714 -1.2560  0.0928
60191SOL     OW98182  12.513   7.152  10.253 -0.1992  0.0572 -0.3309
60191SOL    HW198183  12.552   7.128  10.169 -0.3976 -1.4873 -0.0121
60191SOL    HW298184  12.486   7.243  10.242 -0.8084 -0.3057 -2.1606
60192SOL     OW98185   4.120   7.082  12.822 -0.2733 -0.7739 -0.1616
60192SOL    HW198186   4.093   7.079  12.731 -1.7745  2.9311 -0.0523
60192SOL    HW298187   4.038   7.080  12.871  0.4776 -2.1481  1.1279
60193SOL     OW98188   8.818   1.371   6.397 -0.2401  0.6303  1.0145
60193SOL    HW198189   8.828   1.276   6.395 -1.9050  0.4151 -2.1399
60193SOL    HW298190   8.905   1.404   6.422  1.4319 -1.6304 -1.3621
60194SOL     OW98191   2.754   5.714   6.302  0.1284  0.7665 -0.4462
60194SOL    HW198192   2.676   5.769   6.309 -0.2959  0.3324 -1.4174
60194SOL    HW298193   2.721   5.631   6.266  0.5951 -0.4826  1.8336
60195SOL     OW98194  11.955   0.247  12.950 -0.1868 -0.4693 -0.1296
60195SOL    HW198195  12.040   0.210  12.973 -0.2352 -0.4978  0.0026
60195SOL    HW298196  11.912   0.264  13.034  0.2261  0.8266 -0.1514
60196SOL     OW98197   3.201   8.502   3.255 -0.5256  0.1461  0.1019
60196SOL    HW198198   3.189   8.407   3.258  0.3357  0.0456  1.5454
60196SOL    HW298199   3.237   8.519   3.169 -1.4924 -0.7250 -0.5005
60197SOL     OW98200   2.278   9.393   7.879 -0.0604 -0.3889 -0.0705
60197SOL    HW198201   2.305   9.424   7.966  0.8707  0.6313 -0.6859
60197SOL    HW298202   2.341   9.325   7.857 -0.6859 -1.0968  0.3128
60198SOL     OW98203  11.785   4.447   1.591 -0.0807 -0.2897  0.2923
60198SOL    HW198204  11.825   4.361   1.581 -0.1997 -0.4098  0.8013
60198SOL    HW298205  11.857   4.509   1.577 -0.0192 -0.4673 -0.1850
60199SOL     OW98206   3.475   5.150   1.716  0.2910 -0.2041  0.3484
60199SOL    HW198207   3.544   5.215   1.708  1.1899 -1.3180 -2.2948
60199SOL    HW298208   3.395   5.196   1.692  0.9767 -0.0640 -1.9102
60200SOL     OW98209  11.311  12.152   4.604  0.1571 -0.3893  0.4821
60200SOL    HW198210  11.247  12.088   4.571 -0.8226  0.5589  0.4630
60200SOL    HW298211  11.293  12.231   4.554  2.7914 -0.6511 -1.0447
60201SOL     OW98212  12.696   7.451   4.578 -0.9452 -0.5432 -0.0309
60201SOL    HW198213  12.690   7.444   4.482 -2.9756 -1.1892  0.0898
60201SOL    HW298214  12.712   7.361   4.607  0.3963 -0.2394  0.2294
60202SOL     OW98215  10.615  10.804   2.110 -0.2485  0.0589 -0.1582
60202SOL    HW198216  10.588  10.841   2.194  0.3248 -0.6081  0.3270
60202SOL    HW298217  10.671  10.872   2.071 -1.1978  0.7185 -0.3896
60203SOL     OW98218   2.768   1.414   3.314 -0.5341  0.1719  0.2813
60203SOL    HW198219   2.862   1.400   3.329 -0.4712  0.8743  0.5912
60203SOL    HW298220   2.753   1.504   3.343 -1.1792  0.2787 -0.3841
60204SOL     OW98221  12.051   0.296  13.634  0.1073 -0.1590 -0.1044
60204SOL    HW198222  12.006   0.369  13.678  1.2964 -0.4630  1.7154
60204SOL    HW298223  11.980   0.238  13.606 -0.9308  1.9912 -2.3094
60205SOL     OW98224   6.267   9.844  10.775  0.2684 -0.2790 -0.3760
60205SOL    HW198225   6.210   9.919  10.792  1.1150  1.0140 -2.7621
60205SOL    HW298226   6.207   9.770  10.766 -0.7362  0.4236  0.2532
60206SOL     OW98227   3.221   7.710   0.984  0.4244  0.6151  0.4668
60206SOL    HW198228   3.315   7.714   0.966  0.4684 -0.5964  0.3700
60206SOL    HW298229   3.192   7.802   0.981  1.5306  0.9674  0.1597
60207SOL     OW98230   1.470   6.741  10.310 -0.1770 -0.7003  0.0190
60207SOL    HW198231   1.469   6.654  10.269 -1.7507 -0.2787 -0.9099
60207SOL    HW298232   1.403   6.735  10.378  0.7020 -0.6233  0.9158
60208SOL     OW98233   1.796   2.631   5.619  0.4052 -0.3119 -0.0244
60208SOL    HW198234   1.708   2.594   5.618  0.5575 -0.8643 -3.1217
60208SOL    HW298235   1.849   2.569   5.569  1.6097  1.9548 -1.7767
60209SOL     OW98236   0.380  14.048   4.261  0.3214  0.3499 -0.3696
60209SOL    HW198237   0.459  14.038   4.207  0.4419  0.1774 -0.1624
60209SOL    HW298238   0.310  14.069   4.198  0.3997 -0.1574 -0.6259
60210SOL     OW98239  11.768   9.121  10.455  0.4596 -0.0399 -0.5486
60210SOL    HW198240  11.857   9.090  10.468  0.7742  1.4375  1.1360
60210SOL    HW298241  11.777   9.215  10.440 -0.9142  0.6246  2.1792
60211SOL     OW98242   7.687   7.030  10.958 -0.0128 -0.2850  0.3952
60211SOL    HW198243   7.665   7.072  10.875  0.9505  1.2531  0.8746
60211SOL    HW298244   7.607   6.982  10.982 -0.0745 -1.3358 -1.7225
60212SOL     OW98245   2.159   8.829   4.234 -0.1241  0.2591 -0.0696
60212SOL    HW198246   2.095   8.850   4.302  1.1279  0.2987  1.1686
60212SOL    HW298247   2.166   8.734   4.236  0.7427  0.3195  0.7071
60213SOL     OW98248  10.363   2.077   5.920 -0.0117 -0.0156  0.5874
60213SOL    HW198249  10.321   2.046   6.000  0.1093  1.6518  1.3381
60213SOL    HW298250  10.421   2.148   5.949 -0.5092  1.1263 -1.0488
60214SOL     OW98251   1.047   2.411   7.829 -0.4964  0.0845  0.4388
60214SOL    HW198252   1.026   2.319   7.810 -0.0185 -0.0296  0.4461
60214SOL    HW298253   1.125   2.429   7.776  0.2435  0.0663  1.4958
60215SOL     OW98254  11.540  11.889  11.632  0.2145  0.1047 -0.0389
60215SOL    HW198255  11.612  11.904  11.693  1.4265 -0.7711 -1.1948
60215SOL    HW298256  11.531  11.794  11.629 -2.3815  0.2130  1.5953
60216SOL     OW98257  11.108   8.002  11.749  0.2105 -0.2367 -0.2523
60216SOL    HW198258  11.095   8.095  11.771 -0.4163 -0.0528 -1.3419
60216SOL    HW298259  11.135   8.003  11.657  0.9229 -1.1049 -0.0679
60217SOL     OW98260   0.374   4.945   4.360 -0.3499 -0.3492  0.9228
60217SOL    HW198261   0.412   5.031   4.376 -1.3532  0.6033 -1.4246
60217SOL    HW298262   0.436   4.903   4.300 -1.1632 -0.1879 -0.0563
60218SOL     OW98263   0.465  10.918  10.295  0.3130  0.2176  0.4991
60218SOL    HW198264   0.387  10.921  10.239  0.2382  0.1602  0.5996
60218SOL    HW298265   0.452  10.990  10.357 -0.4190 -0.7483  1.5148
60219SOL     OW98266   1.942   3.795   4.330 -0.1642 -0.2995  0.4064
60219SOL    HW198267   1.918   3.703   4.320 -1.1904  0.0923 -0.9166
60219SOL    HW298268   1.993   3.816   4.252  0.0496  0.2736  0.6927
60220SOL     OW98269   2.367   7.218   1.052  0.4007 -0.1164  0.0244
60220SOL    HW198270   2.407   7.152   0.995 -1.4048 -1.1514 -0.1514
60220SOL    HW298271   2.357   7.295   0.996 -0.5821 -0.8462 -0.8546
60221SOL     OW98272   7.676   4.150   2.355 -0.1346 -0.0223 -1.0233
60221SOL    HW198273   7.733   4.075   2.337 -0.3685 -0.0496 -1.6642
60221SOL    HW298274   7.722   4.199   2.423  0.6975  0.0116 -1.6013
60222SOL     OW98275   1.135   8.709   3.950 -0.6590 -0.0937 -0.5182
60222SOL    HW198276   1.045   8.682   3.933 -0.4194 -0.7121 -0.8315
60222SOL    HW298277   1.172   8.640   4.004 -0.0894 -0.3194 -1.1803
60223SOL     OW98278  13.128   2.263  11.028  0.1518 -0.6685 -0.1862
60223SOL    HW198279  13.156   2.175  11.054 -0.2711 -0.6406  0.3920
60223SOL    HW298280  13.101   2.304  11.111 -2.9009 -1.1530 -0.8215
60224SOL     OW98281   8.523   2.286   2.133 -0.7890  0.3896 -0.1738
60224SOL    HW198282   8.512   2.280   2.228 -0.9573 -0.1060 -0.2261
60224SOL    HW298283   8.442   2.251   2.097 -0.2674 -0.5033 -0.5163
60225SOL     OW98284  11.092  13.296  10.174  0.6223 -0.5462  0.0530
60225SOL    HW198285  11.127  13.209  10.153  0.4895 -0.4834 -0.4439
60225SOL    HW298286  11.067  13.290  10.266  0.6634 -1.0168  0.0367
60226SOL     OW98287   3.348   2.280   6.803 -0.2304  0.2303 -0.1405
60226SOL    HW198288   3.423   2.327   6.839 -0.6916  1.3193 -0.5666
60226SOL    HW298289   3.320   2.333   6.728 -1.7780  0.1641  0.3614
60227SOL     OW98290   8.588   5.474  12.482  0.1370  0.2717 -0.3299
60227SOL    HW198291   8.521   5.522  12.434  0.9110  0.9030 -0.8064
60227SOL    HW298292   8.541   5.434  12.556 -0.4176  2.3418  0.5007
60228SOL     OW98293   5.672   1.523   7.917 -0.5227 -0.1683 -0.0769
60228SOL    HW198294   5.667   1.586   7.989 -0.3815 -0.6469  0.3645
60228SOL    HW298295   5.716   1.447   7.956 -1.3045 -0.7946 -0.4087
60229SOL     OW98296   9.193   6.161  12.410 -0.3211 -0.5381  0.1391
60229SOL    HW198297   9.138   6.175  12.334  0.3773 -0.8382 -0.4337
60229SOL    HW298298   9.133   6.166  12.485 -1.3838 -2.3566 -0.5466
60230SOL     OW98299   8.297   1.405   1.442  0.0445  0.1296  0.1350
60230SOL    HW198300   8.300   1.366   1.354 -3.4994  0.3316 -0.2232
60230SOL    HW298301   8.261   1.336   1.498 -1.1320  1.1074  0.6320
60231SOL     OW98302   8.528  11.002   0.301  0.0478  0.7481  0.0896
60231SOL    HW198303   8.483  11.086   0.308 -1.8624  0.0582 -2.5303
60231SOL    HW298304   8.465  10.937   0.331 -0.1497 -0.0783 -1.9466
60232SOL     OW98305   8.748   1.707   9.283 -0.0966 -0.2821 -0.7088
60232SOL    HW198306   8.739   1.612   9.281 -1.4153 -0.1725 -1.2570
60232SOL    HW298307   8.690   1.736   9.353  1.7973  0.0239  0.8215
60233SOL     OW98308  13.476   7.412  12.216 -0.0999 -0.5593  0.1459
60233SOL    HW198309  13.492   7.390  12.308  2.0656 -1.3703 -0.3728
60233SOL    HW298310  13.430   7.336  12.181  0.5207 -0.9623  0.1894
60234SOL     OW98311   1.443  11.227   1.884 -0.4669  0.3364 -0.2451
60234SOL    HW198312   1.422  11.275   1.964 -0.4523 -1.6257  1.0240
60234SOL    HW298313   1.538  11.234   1.876 -0.4013  0.0907  0.2455
60235SOL     OW98314   7.334  11.550   3.995 -0.5141  0.3577 -0.8244
60235SOL    HW198315   7.409  11.527   4.050 -0.3429 -0.2263 -1.2826
60235SOL    HW298316   7.263  11.495   4.027 -0.7982  1.0465 -0.2690
60236SOL     OW98317  11.991  13.306   9.471 -0.7299  0.4643 -0.5516
60236SOL    HW198318  11.983  13.400   9.453  0.7553  0.6576 -0.3392
60236SOL    HW298319  11.946  13.294   9.554 -0.1568  1.1648 -0.1264
60237SOL     OW98320   2.728   7.123   3.439 -0.5464  0.6146 -0.0231
60237SOL    HW198321   2.754   7.122   3.531  0.0139 -1.4128 -0.1493
60237SOL    HW298322   2.717   7.031   3.416  1.7802  0.8303 -2.6262
60238SOL     OW98323   0.620   6.454   4.448 -0.0489  0.3854 -0.0910
60238SOL    HW198324   0.558   6.410   4.506  0.8606  0.6886  1.1764
60238SOL    HW298325   0.694   6.475   4.505  2.3135 -2.0914 -1.9753
60239SOL     OW98326   0.083  10.347  11.941  0.0776 -0.5145  0.2160
60239SOL    HW198327   0.021  10.277  11.960  0.9566 -0.9100  1.8123
60239SOL    HW298328   0.113  10.328  11.852 -0.5720 -1.4912  0.1818
60240SOL     OW98329  13.157   8.257   9.627 -0.3959 -0.2630 -0.1848
60240SOL    HW198330  13.207   8.201   9.568  0.3768  0.0019  0.2064
60240SOL    HW298331  13.082   8.203   9.652  0.4063 -1.1958  0.2964
60241SOL     OW98332  10.069   5.833  13.446  0.0980 -0.0286  0.5130
60241SOL    HW198333  10.138   5.882  13.401  0.3649 -0.5353  0.3694
60241SOL    HW298334  10.102   5.825  13.536  0.1376 -0.1136  0.4897
60242SOL     OW98335  13.782   0.694  13.027 -0.5356  0.3466  0.1143
60242SOL    HW198336  13.765   0.779  13.068  2.3879  2.4211 -2.5148
60242SOL    HW298337  13.733   0.697  12.945  1.8452  0.8280 -1.3576
60243SOL     OW98338   5.137   0.642  12.915  0.0841 -0.0308 -0.5304
60243SOL    HW198339   5.183   0.571  12.959  0.2419  0.1930 -0.3243
60243SOL    HW298340   5.045   0.626  12.933  0.1919  0.6203  0.7935
60244SOL     OW98341   5.491   1.375   0.262  0.7993 -0.7899 -0.2841
60244SOL    HW198342   5.582   1.346   0.258  1.0672  0.0276 -0.4807
60244SOL    HW298343   5.482   1.415   0.349  0.6223 -0.8985 -0.2522
60245SOL     OW98344   0.682   2.112   8.770  0.5673 -0.0412 -0.2514
60245SOL    HW198345   0.696   2.109   8.865 -1.0026 -0.3395 -0.0047
60245SOL    HW298346   0.739   2.044   8.735 -0.2468 -1.2474  0.6886
60246SOL     OW98347   9.253   0.759   5.382 -0.0397  0.7929  0.1104
60246SOL    HW198348   9.165   0.722   5.391  0.3209  0.0375  0.6486
60246SOL    HW298349   9.308   0.703   5.437  0.5342  2.1113  0.9361
60247SOL     OW98350   3.686   4.904   0.453 -0.6720  0.0386  0.0685
60247SOL    HW198351   3.692   4.968   0.382  0.4407 -0.0462  0.0736
60247SOL    HW298352   3.691   4.819   0.408 -3.0665 -0.1167 -0.0360
60248SOL     OW98353  13.897   3.322   1.478  0.6564 -0.0242  0.4925
60248SOL    HW198354  13.989   3.297   1.476  0.5077 -0.8719  2.3024
60248SOL    HW298355  13.898   3.418   1.481  1.4507 -0.0141  0.1112
60249SOL     OW98356   0.586   5.943   5.012  0.0381  0.0836  0.2179
60249SOL    HW198357   0.596   6.013   4.948 -0.5902  0.4462  0.5101
60249SOL    HW298358   0.503   5.962   5.056  0.0095 -0.6734  0.5070
60250SOL     OW98359  12.807   1.132  10.977 -0.1232 -0.1662  0.0941
60250SOL    HW198360  12.753   1.075  11.032  0.4117 -0.4155  0.3674
60250SOL    HW298361  12.781   1.110  10.887  0.4337 -1.2142  0.1761
60251SOL     OW98362   1.886   4.834   4.248 -0.1377  0.4394  0.1980
60251SOL    HW198363   1.957   4.780   4.214 -0.4451 -0.5896  1.1471
60251SOL    HW298364   1.817   4.772   4.270  0.2483  0.9295  3.2219
60252SOL     OW98365   3.977   0.671  13.673 -0.7105 -0.3325 -0.0825
60252SOL    HW198366   4.013   0.661  13.585 -0.2904  0.0326  0.0426
60252SOL    HW298367   4.007   0.594  13.721 -0.4997 -0.2708 -0.1145
60253SOL     OW98368   3.182   7.017   8.117 -1.0068 -0.3696  0.3651
60253SOL    HW198369   3.182   6.992   8.209 -1.1171 -1.5604  0.0679
60253SOL    HW298370   3.093   6.995   8.087 -1.4041  1.2544  0.2805
60254SOL     OW98371   0.823  11.975   9.809 -0.2604  0.0222  0.2360
60254SOL    HW198372   0.903  11.963   9.861 -0.0824  0.0536 -0.0292
60254SOL    HW298373   0.831  11.911   9.737  2.0427  3.3812 -2.8404
60255SOL     OW98374   7.277  11.281   4.182  0.2143  0.0132 -0.6891
60255SOL    HW198375   7.199  11.316   4.139 -0.1122  1.4637  0.9498
60255SOL    HW298376   7.278  11.188   4.160 -1.0824  0.2936 -2.0339
60256SOL     OW98377  14.038   7.503   7.643  0.3189  0.1052  0.3280
60256SOL    HW198378  13.976   7.567   7.678 -1.6242 -0.9530 -1.0236
60256SOL    HW298379  13.994   7.419   7.654  0.5803 -0.4862 -2.4966
60257SOL     OW98380   3.772  12.451  14.051 -0.2826 -0.2843 -0.6637
60257SOL    HW198381   3.815  12.370  14.079  1.8086  0.7069 -0.7503
60257SOL    HW298382   3.742  12.433  13.962 -0.9369 -1.3367 -0.2415
60258SOL     OW98383  12.061  11.365  12.182  0.1794 -0.9554 -0.1935
60258SOL    HW198384  11.986  11.309  12.164 -1.0661  0.4441  0.4404
60258SOL    HW298385  12.050  11.393  12.273  0.5553  0.5839 -0.5911
60259SOL     OW98386  10.230  13.692   2.872 -0.4262 -0.0455  0.0907
60259SOL    HW198387  10.307  13.679   2.927 -0.4155  0.8869  0.3121
60259SOL    HW298388  10.245  13.775   2.827 -1.0692 -0.1044 -0.2576
60260SOL     OW98389   8.493   8.020   5.712  0.0018 -0.1996  0.3421
60260SOL    HW198390   8.478   8.078   5.637 -0.1197 -0.2806  0.3029
60260SOL    HW298391   8.451   7.938   5.687 -0.0160 -0.2352  0.4896
60261SOL     OW98392   1.039  10.470   9.959 -0.2407  0.1226  0.6448
60261SOL    HW198393   0.965  10.465   9.899 -0.7993  2.3668  1.0421
60261SOL    HW298394   1.002  10.446  10.044 -0.4128  0.7203  0.7469
60262SOL     OW98395   8.088   5.088   7.108 -0.1322  0.3004  0.5370
60262SOL    HW198396   8.038   5.166   7.086 -1.8350 -0.8804 -0.0061
60262SOL    HW298397   8.176   5.120   7.128 -0.6039  2.2633 -0.3345
60263SOL     OW98398   6.043  11.457   0.450  0.5756 -0.3187 -0.1214
60263SOL    HW198399   5.968  11.507   0.481  0.6583 -0.7872  0.8896
60263SOL    HW298400   6.030  11.370   0.488  2.0019 -0.2051  0.6871
60264SOL     OW98401   4.829   3.677  13.537  0.1267  0.2943 -0.2260
60264SOL    HW198402   4.840   3.724  13.455 -0.2880  2.0068  0.6504
60264SOL    HW298403   4.770   3.604  13.515  0.3626  0.4704 -1.5133
60265SOL     OW98404  13.454  10.064   8.217  0.4105  0.1620 -0.7511
60265SOL    HW198405  13.420  10.007   8.147  1.2102 -0.3860 -0.6947
60265SOL    HW298406  13.508  10.007   8.271 -0.7993  0.3910  0.7927
60266SOL     OW98407   8.343   0.903   0.835  0.2444 -0.4504  0.0113
60266SOL    HW198408   8.365   0.875   0.746 -0.9158 -0.1429 -0.4001
60266SOL    HW298409   8.392   0.985   0.847 -1.2435  0.6827 -1.2031
60267SOL     OW98410   4.992   4.491  12.966 -0.2877  0.4163 -0.3291
60267SOL    HW198411   5.019   4.410  12.925  0.0330 -0.4123  1.4139
60267SOL    HW298412   4.918   4.467  13.022  0.9576  0.8660  1.6454
60268SOL     OW98413   7.859   8.893   5.438  0.3159  0.2637  0.5976
60268SOL    HW198414   7.810   8.863   5.362  1.2931 -0.0496  0.0785
60268SOL    HW298415   7.867   8.816   5.494  1.6078 -0.1186 -0.0808
60269SOL     OW98416   7.687  12.428  11.805 -0.3209  0.3745  0.0998
60269SOL    HW198417   7.774  12.452  11.773 -1.2994  0.5546 -2.7107
60269SOL    HW298418   7.699  12.342  11.846  1.3779  0.9807  0.9519
60270SOL     OW98419   3.081   8.522   7.428 -0.2299  0.2279 -0.2528
60270SOL    HW198420   3.010   8.460   7.413  0.9906 -1.0392 -1.1018
60270SOL    HW298421   3.041   8.608   7.417 -1.7489 -0.4266 -0.0928
60271SOL     OW98422   5.867   5.561   3.016  0.1620 -0.0075 -0.5772
60271SOL    HW198423   5.795   5.586   3.074  0.5612  0.4754 -0.2796
60271SOL    HW298424   5.946   5.579   3.067  0.5837  1.8079 -1.7752
60272SOL     OW98425   0.413  13.171   4.131 -0.0841 -0.0512 -0.3761
60272SOL    HW198426   0.394  13.265   4.125 -1.0267 -0.2827 -1.2487
60272SOL    HW298427   0.368  13.133   4.056 -0.7062 -1.3689  0.6404
60273SOL     OW98428  11.339   3.091   6.539  0.3458 -0.9161 -0.2022
60273SOL    HW198429  11.332   3.123   6.450  4.1016  1.9655  0.3250
60273SOL    HW298430  11.272   3.140   6.587  1.1650  0.7880 -0.7371
60274SOL     OW98431   0.385  13.164   5.169  0.1214 -0.6877 -0.0298
60274SOL    HW198432   0.378  13.166   5.074 -0.9742  1.2697  0.0419
60274SOL    HW298433   0.471  13.125   5.186  1.0984  0.5356 -1.8748
60275SOL     OW98434   6.757   2.688  13.011  0.4473 -0.7852 -0.0110
60275SOL    HW198435   6.829   2.716  12.955  0.9248 -0.8290  0.5783
60275SOL    HW298436   6.748   2.594  12.995  2.0600 -1.2616  1.6240
60276SOL     OW98437  11.652  13.556   9.913  0.2615  0.4737 -0.4386
60276SOL    HW198438  11.718  13.507   9.865 -1.9397 -2.2911 -0.9172
60276SOL    HW298439  11.625  13.496   9.983 -0.2312  2.3862  1.0904
60277SOL     OW98440   2.261   5.983   2.397 -0.6103 -0.0341  0.6550
60277SOL    HW198441   2.309   5.909   2.362  0.6128  1.1510 -0.2602
60277SOL    HW298442   2.250   5.963   2.490 -0.1926 -1.2855  0.4500
60278SOL     OW98443  11.666   8.345   3.430  0.2109  0.4732  0.1536
60278SOL    HW198444  11.652   8.254   3.456  0.6158  0.5941  0.8100
60278SOL    HW298445  11.648   8.346   3.335  0.6824 -0.3839  0.0492
60279SOL     OW98446   7.436  12.069  14.016  0.5826 -0.6494 -0.1563
60279SOL    HW198447   7.384  12.018  14.077  0.7117 -1.4614 -0.6976
60279SOL    HW298448   7.380  12.143  13.991  1.4318  1.1686  2.8330
60280SOL     OW98449   5.208   2.846   3.310 -0.9136 -0.5698 -0.4475
60280SOL    HW198450   5.233   2.755   3.323  0.0441 -0.2588  0.0501
60280SOL    HW298451   5.183   2.851   3.218 -2.2665 -1.6000 -0.1649
60281SOL     OW98452   4.263   2.157   9.651 -0.2199  0.3105  0.2084
60281SOL    HW198453   4.253   2.252   9.662 -2.5984 -0.0249  1.6530
60281SOL    HW298454   4.181   2.121   9.683 -0.5075 -2.1154 -2.8117
60282SOL     OW98455   1.224   3.360   4.480  0.0734 -0.0357  0.0552
60282SOL    HW198456   1.170   3.288   4.448  1.7030 -1.0535 -0.4978
60282SOL    HW298457   1.292   3.370   4.414  2.2538 -0.7258  2.0852
60283SOL     OW98458   0.580   0.924   0.065 -0.1722 -0.4368 -0.1555
60283SOL    HW198459   0.569   0.986   0.137  0.5041  0.6755 -0.9817
60283SOL    HW298460   0.518   0.853   0.084 -0.3329  0.0618  1.2610
60284SOL     OW98461  11.933   5.336   3.789 -0.2012 -0.0868  0.1424
60284SOL    HW198462  11.942   5.412   3.846  0.0239  0.5623 -0.7363
60284SOL    HW298463  11.875   5.365   3.719  0.9786 -0.2632 -0.9465
60285SOL     OW98464   0.259   7.101   7.544  0.2002  0.3397  0.0510
60285SOL    HW198465   0.327   7.036   7.530  0.1826  0.3877 -0.2745
60285SOL    HW298466   0.298   7.184   7.515 -0.4349  0.1630 -1.4391
60286SOL     OW98467   6.663   2.865  11.308 -0.1603  1.0481 -0.5867
60286SOL    HW198468   6.592   2.875  11.371 -2.3761 -0.6102 -2.6358
60286SOL    HW298469   6.619   2.854  11.224  2.5864  0.8795 -2.1175
60287SOL     OW98470   4.327   4.332   5.052  1.0971  0.1823  0.4399
60287SOL    HW198471   4.263   4.272   5.016 -1.5241  2.4922  0.8845
60287SOL    HW298472   4.359   4.289   5.131 -2.5958  0.2613  2.1811
60288SOL     OW98473  10.612  10.229   8.298 -0.3056  0.2393 -0.2239
60288SOL    HW198474  10.632  10.276   8.379  1.7166  0.4149 -0.7777
60288SOL    HW298475  10.640  10.289   8.229 -3.5648  0.8441 -1.1957
60289SOL     OW98476   0.224  12.967  11.632 -0.5599 -0.0204  0.1315
60289SOL    HW198477   0.306  12.919  11.637 -0.1354  0.5458 -1.1080
60289SOL    HW298478   0.240  13.049  11.680 -0.3555  0.1497 -0.2280
60290SOL     OW98479  11.711   3.918   1.677  0.4290 -0.2993 -0.1579
60290SOL    HW198480  11.755   3.843   1.639  0.2269 -0.0420 -0.9027
60290SOL    HW298481  11.618   3.896   1.672  0.2704  0.5847 -1.6835
60291SOL     OW98482  11.706   7.337  12.172 -0.0587  0.2119  0.1092
60291SOL    HW198483  11.801   7.337  12.182 -0.0277  0.5382 -0.1550
60291SOL    HW298484  11.673   7.363  12.258  0.2300  3.7271 -0.6762
60292SOL     OW98485  12.862   9.974   4.601  0.1567 -0.2397  0.6939
60292SOL    HW198486  12.865   9.994   4.507  0.0173 -1.8504  0.3148
60292SOL    HW298487  12.950   9.943   4.621  0.0658 -0.2998  1.0015
60293SOL     OW98488  11.679   7.539  13.896 -0.6804 -0.1929  0.2905
60293SOL    HW198489  11.672   7.630  13.868  0.8430 -0.1384  0.0259
60293SOL    HW298490  11.719   7.494  13.822 -1.7281 -1.1553  0.2872
60294SOL     OW98491   9.709   3.138   8.061  0.4479  0.2181  0.7741
60294SOL    HW198492   9.738   3.211   8.115  1.2757  0.8382 -0.4546
60294SOL    HW298493   9.685   3.070   8.123  1.7986  0.7334  1.9184
60295SOL     OW98494   2.262   1.762   6.869 -0.3936 -0.5929  0.0301
60295SOL    HW198495   2.282   1.844   6.914 -1.1924 -2.5552  4.5420
60295SOL    HW298496   2.228   1.789   6.784 -0.0443  3.6793  1.0082
60296SOL     OW98497   5.431   2.883   7.263  0.2358 -0.1914 -0.0060
60296SOL    HW198498   5.350   2.928   7.290  0.3455 -0.0297  0.0531
60296SOL    HW298499   5.432   2.803   7.316  2.6948  2.1420  3.8836
60297SOL     OW98500   1.117  11.942   7.979 -0.3176  0.4957 -0.8908
60297SOL    HW198501   1.023  11.945   7.992 -0.1948  0.1943  0.1453
60297SOL    HW298502   1.128  11.903   7.892 -1.1141 -2.7504  0.3218
60298SOL     OW98503   1.233  10.972   2.436 -0.1934 -0.2398  0.2885
60298SOL    HW198504   1.161  11.022   2.475 -0.1060 -0.1282  0.3088
60298SOL    HW298505   1.246  10.899   2.496  0.3328  0.2545  0.7942
60299SOL     OW98506   1.009   2.945  10.623 -0.0120 -0.4924 -0.6731
60299SOL    HW198507   1.020   2.850  10.624 -2.7874 -0.9537 -2.2223
60299SOL    HW298508   0.973   2.966  10.709  1.2111 -0.6938 -0.0849
60300SOL     OW98509  12.032   7.371   2.295 -0.6634 -0.2567  0.2267
60300SOL    HW198510  12.094   7.390   2.365  0.3942 -0.6268 -0.5946
60300SOL    HW298511  12.075   7.402   2.215 -0.9762 -1.6664 -0.5191
60301SOL     OW98512   4.461   6.782  13.230 -0.2849  1.2555 -0.0760
60301SOL    HW198513   4.416   6.827  13.302  0.4388  1.0521  0.5103
60301SOL    HW298514   4.531   6.734  13.272 -2.8851 -3.1490 -0.1951
60302SOL     OW98515   6.692   2.145  10.631  0.0072 -0.5976 -0.7612
60302SOL    HW198516   6.754   2.087  10.588 -0.1997 -1.0527 -0.4474
60302SOL    HW298517   6.737   2.229  10.637  0.4843 -0.8533 -0.7822
60303SOL     OW98518  14.091  11.737   4.125  0.0243  0.1578 -0.2713
60303SOL    HW198519  14.101  11.832   4.128  0.8644  0.0967 -0.7400
60303SOL    HW298520  14.180  11.704   4.110  0.0170 -0.7850  1.4620
60304SOL     OW98521   6.337   0.613   1.452  0.4905  0.0635  0.1492
60304SOL    HW198522   6.264   0.552   1.443  0.8654 -0.2881 -0.5539
60304SOL    HW298523   6.406   0.576   1.398  1.0166  0.6685  0.3961
60305SOL     OW98524  11.845   1.001  13.351  0.6505 -0.1726 -0.0126
60305SOL    HW198525  11.770   1.040  13.395 -1.1221 -1.6088 -1.5733
60305SOL    HW298526  11.880   0.938  13.415 -0.8737 -1.0703 -0.0090
60306SOL     OW98527   5.005  11.764   4.450 -0.3714 -0.1845 -0.5873
60306SOL    HW198528   5.009  11.680   4.404 -0.7581 -0.0056 -0.9598
60306SOL    HW298529   5.095  11.797   4.448 -0.1468 -0.7615 -0.1058
60307SOL     OW98530   6.042   6.545   4.593  0.5894 -0.6047 -0.1997
60307SOL    HW198531   6.050   6.641   4.598 -0.6155 -0.5076  0.3942
60307SOL    HW298532   6.003   6.529   4.507  2.7122 -0.7425 -1.1804
60308SOL     OW98533   1.952   9.891   6.112 -0.3126 -0.2635 -0.3535
60308SOL    HW198534   1.892   9.965   6.115 -0.0937 -0.1083  0.3410
60308SOL    HW298535   2.039   9.930   6.103 -0.0442 -0.3419  1.5181
60309SOL     OW98536  11.506   2.083   1.346  0.2090 -0.5110 -0.4008
60309SOL    HW198537  11.413   2.086   1.327  0.1816  0.8906 -0.1388
60309SOL    HW298538  11.522   1.993   1.375 -1.0539 -0.7538 -0.4234
60310SOL     OW98539   5.809  13.853   6.838  0.3733 -0.0289  0.0719
60310SOL    HW198540   5.845  13.777   6.884  1.0327  0.6910  0.7708
60310SOL    HW298541   5.837  13.840   6.747 -0.2965 -1.0705 -0.0064
60311SOL     OW98542  11.081   6.405   4.462  0.2913 -0.0930  0.0535
60311SOL    HW198543  11.121   6.381   4.545  3.1958  0.1293 -1.1513
60311SOL    HW298544  11.024   6.332   4.440  0.7485 -0.9085  1.4724
60312SOL     OW98545   2.272  11.031  11.903  0.3540  0.1222  0.3350
60312SOL    HW198546   2.235  10.976  11.972  0.4982 -0.1336  0.2094
60312SOL    HW298547   2.235  11.118  11.920 -1.5678 -0.4310 -0.7053
60313SOL     OW98548   1.746  10.723  13.819 -0.0056 -0.0036  1.0401
60313SOL    HW198549   1.721  10.633  13.798  0.3080  0.0232  0.5335
60313SOL    HW298550   1.782  10.758  13.737 -1.7745  1.1569  0.6900
60314SOL     OW98551  13.312   6.312   6.423  0.3084 -0.1480  0.1055
60314SOL    HW198552  13.382   6.323   6.359  2.4746 -2.8387  1.7539
60314SOL    HW298553  13.305   6.397   6.466  0.4825  0.9987 -2.0396
60315SOL     OW98554   4.223  10.771   7.624 -0.2477 -0.5153 -0.2351
60315SOL    HW198555   4.203  10.686   7.662 -0.0178 -0.7085 -0.5466
60315SOL    HW298556   4.137  10.807   7.600 -0.3953 -0.3844  0.4763
60316SOL     OW98557   7.208   1.148   3.985  0.3557 -0.1947 -0.4060
60316SOL    HW198558   7.193   1.070   3.931  1.5342 -1.1895  0.6342
60316SOL    HW298559   7.263   1.204   3.931  1.3551 -1.0869 -0.3372
60317SOL     OW98560   3.718  12.260   7.684 -0.0490  0.0065  0.2339
60317SOL    HW198561   3.797  12.300   7.647  0.3548 -0.5403  0.4865
60317SOL    HW298562   3.654  12.331   7.685  0.6519  0.6564  0.6829
60318SOL     OW98563   2.880   0.201   8.371  0.4017 -0.2469  0.3731
60318SOL    HW198564   2.881   0.195   8.275 -0.0857 -0.3139  0.3698
60318SOL    HW298565   2.815   0.268   8.390  0.8521  0.1193  0.6467
60319SOL     OW98566   3.845  13.596   9.399 -0.6884  0.3513  0.1775
60319SOL    HW198567   3.914  13.550   9.352 -0.8365  0.9277 -0.6254
60319SOL    HW298568   3.869  13.689   9.392 -0.3230  0.4217  1.8660
60320SOL     OW98569   1.856   3.965   8.232 -0.2976  0.0459  0.2398
60320SOL    HW198570   1.947   3.936   8.238 -1.1569 -3.7826 -1.9617
60320SOL    HW298571   1.856   4.032   8.163  1.0984  2.1424  2.1332
60321SOL     OW98572  13.941   2.444   6.902  0.0391  0.4797 -0.0655
60321SOL    HW198573  13.906   2.393   6.829  0.7063 -0.0553 -0.0309
60321SOL    HW298574  13.939   2.384   6.977 -0.9217  1.1184  0.4418
60322SOL     OW98575   1.304  13.583   7.132 -0.5675  0.5906  0.0051
60322SOL    HW198576   1.343  13.572   7.218  1.8986 -1.8388 -1.2798
60322SOL    HW298577   1.330  13.671   7.105  0.0118  0.7678  1.0981
60323SOL     OW98578  13.261   4.605   7.020 -0.7672 -0.2855  0.2597
60323SOL    HW198579  13.254   4.594   7.115 -1.4043 -0.3718  0.2052
60323SOL    HW298580  13.172   4.627   6.992 -0.2818  1.3122 -0.1166
60324SOL     OW98581   1.460   7.317  11.435  0.5720 -0.0695  0.0076
60324SOL    HW198582   1.427   7.243  11.383  3.3661  0.3011 -2.5674
60324SOL    HW298583   1.502   7.374  11.371 -0.3620  3.1958  2.0889
60325SOL     OW98584   2.788   2.456   0.220 -0.0588 -0.3156  0.0382
60325SOL    HW198585   2.815   2.371   0.252 -0.2685 -0.3952  0.0041
60325SOL    HW298586   2.708   2.477   0.269 -0.6788 -0.6752 -0.7899
60326SOL     OW98587   1.326  12.685  10.722  0.4077 -0.3569 -0.2147
60326SOL    HW198588   1.383  12.692  10.645 -0.3342 -0.3908 -0.7773
60326SOL    HW298589   1.312  12.775  10.751 -0.9728 -0.1675 -1.3731
60327SOL     OW98590   1.570   3.303   7.173  0.1527 -0.0211  0.1892
60327SOL    HW198591   1.570   3.230   7.111  2.5022  1.5564 -1.8817
60327SOL    HW298592   1.654   3.346   7.158 -2.0704  4.6866 -0.6916
60328SOL     OW98593   0.285  11.785   3.981  0.2447 -0.3641 -0.1320
60328SOL    HW198594   0.377  11.784   4.007  0.6877  0.0867 -1.6056
60328SOL    HW298595   0.272  11.702   3.935  0.4415  0.3926 -1.5929
60329SOL     OW98596   8.994  11.204  13.309 -0.1702 -0.0867  0.0775
60329SOL    HW198597   9.059  11.140  13.280 -0.3289 -0.3947  0.3843
60329SOL    HW298598   9.042  11.286  13.314 -0.0374 -0.1171 -0.6174
60330SOL     OW98599  13.469   6.393  10.312 -0.2209  0.0716  0.0727
60330SOL    HW198600  13.396   6.431  10.361 -0.3723  1.0344 -0.8840
60330SOL    HW298601  13.430   6.357  10.233  0.3632  0.8022 -0.5593
60331SOL     OW98602  11.888   2.929   0.375  0.0028  0.3232 -0.1363
60331SOL    HW198603  11.856   2.980   0.300 -0.2751  0.7750  0.2872
60331SOL    HW298604  11.892   2.839   0.342  2.0544  0.8084 -1.4276
60332SOL     OW98605   4.582  13.868   0.318  0.6514 -0.3734  0.6156
60332SOL    HW198606   4.643  13.942   0.326 -0.3129  0.5701 -0.2634
60332SOL    HW298607   4.501  13.908   0.285  0.1739 -1.8627 -0.1217
60333SOL     OW98608  12.189   8.313   6.522  0.5739  0.4760 -0.2254
60333SOL    HW198609  12.274   8.291   6.560  0.3319 -1.3346 -0.6540
60333SOL    HW298610  12.206   8.324   6.429  0.3640  0.3351 -0.2794
60334SOL     OW98611  11.709  10.845  11.158  0.3324  0.0702 -0.0050
60334SOL    HW198612  11.769  10.797  11.102 -0.3744 -0.2014 -0.5438
60334SOL    HW298613  11.686  10.783  11.227 -1.2617 -0.7095 -1.1809
60335SOL     OW98614   9.224   3.251   4.190  0.7619 -0.1670 -0.4502
60335SOL    HW198615   9.265   3.177   4.145  1.5260 -0.0593  0.0347
60335SOL    HW298616   9.227   3.227   4.282  0.5272  0.2363 -0.3359
60336SOL     OW98617  12.063   3.271  12.663  0.4197 -0.3518  0.3415
60336SOL    HW198618  12.102   3.256  12.749 -0.9683 -2.3896  0.6916
60336SOL    HW298619  12.040   3.364  12.662 -0.3366 -0.4729  2.5354
60337SOL     OW98620   0.651   5.723   4.835 -0.3006  0.6372 -0.2410
60337SOL    HW198621   0.647   5.631   4.862 -1.5133  0.8473  0.3277
60337SOL    HW298622   0.608   5.771   4.905  2.1074  1.9088  0.4940
60338SOL     OW98623  10.790   6.716   6.825 -0.2221  0.4543  0.5598
60338SOL    HW198624  10.847   6.715   6.902  1.0671 -0.1086 -0.3662
60338SOL    HW298625  10.780   6.624   6.801 -2.4298  0.4305  1.2952
60339SOL     OW98626   6.690  11.330  13.155  0.0802 -0.0540 -0.1530
60339SOL    HW198627   6.631  11.279  13.099  0.2974  0.7320 -1.1214
60339SOL    HW298628   6.641  11.411  13.173 -0.6055 -0.8847  2.0507
60340SOL     OW98629   8.519  12.487   1.352  0.0840  0.3011  0.5156
60340SOL    HW198630   8.538  12.399   1.320 -0.0984  0.2947  0.4213
60340SOL    HW298631   8.516  12.541   1.273  1.4155  0.6296  0.6627
60341SOL     OW98632   2.665   6.196   9.407 -0.2157 -0.2283  0.2667
60341SOL    HW198633   2.622   6.119   9.371  0.4704 -1.0903  1.2226
60341SOL    HW298634   2.657   6.186   9.502  0.5124  0.5094  0.4212
60342SOL     OW98635   7.070   3.669   3.830 -0.2396 -0.3806  0.3078
60342SOL    HW198636   7.110   3.636   3.910  0.9336  2.3622  0.9759
60342SOL    HW298637   6.997   3.609   3.812  0.1589 -1.7119  2.7715
60343SOL     OW98638   0.071  10.351   2.594 -0.3087  0.0546 -0.3130
60343SOL    HW198639   0.147  10.388   2.639  0.5742 -1.1946 -0.7178
60343SOL    HW298640   0.106  10.320   2.510 -1.6859  1.2787 -1.3991
60344SOL     OW98641   5.783   6.581  12.088 -0.0020 -0.1228  0.0113
60344SOL    HW198642   5.794   6.652  12.025  0.7541  0.3181  0.6226
60344SOL    HW298643   5.864   6.581  12.139 -0.9415  0.1277  1.5725
60345SOL     OW98644   0.743  12.207   9.690 -0.1069  0.8886 -0.1657
60345SOL    HW198645   0.822  12.249   9.725 -0.0354  1.0545 -0.5233
60345SOL    HW298646   0.748  12.117   9.722  0.1137  0.9579 -0.0020
60346SOL     OW98647   3.000   7.696  13.950 -0.0780  0.1223  0.2241
60346SOL    HW198648   3.031   7.606  13.959 -1.0832 -0.1404  1.1993
60346SOL    HW298649   2.944   7.710  14.026 -1.2057  1.0546 -0.7403
60347SOL     OW98650   2.690   3.615   2.163 -0.7632  0.1592  0.0267
60347SOL    HW198651   2.595   3.621   2.153 -0.6331  1.1392 -0.8613
60347SOL    HW298652   2.705   3.531   2.206 -1.9766 -0.4106 -0.6161
60348SOL     OW98653   4.047   7.325   7.027  0.0422  0.2932  0.6059
60348SOL    HW198654   4.014   7.389   6.964 -0.2056  0.6834  1.1273
60348SOL    HW298655   4.132   7.360   7.054  0.1957  0.0729  0.4185
60349SOL     OW98656  10.963   9.199  10.886  0.1919 -0.3922  0.4252
60349SOL    HW198657  10.910   9.150  10.822 -0.0500 -0.2732  0.5316
60349SOL    HW298658  10.907   9.203  10.964  0.3122 -0.1613  0.4983
60350SOL     OW98659   6.346   8.266   4.840 -0.6880 -0.2447  0.1753
60350SOL    HW198660   6.372   8.217   4.918  2.0422 -1.3567 -1.2629
60350SOL    HW298661   6.425   8.312   4.813 -0.6771 -1.9017 -3.2591
60351SOL     OW98662   5.151  11.851  10.520  0.3558  0.1994 -0.3779
60351SOL    HW198663   5.219  11.919  10.518  0.1046  0.4876  0.3908
60351SOL    HW298664   5.129  11.837  10.428  0.6993  0.8710 -0.5721
60352SOL     OW98665   7.820   9.240   7.467  0.2444  0.2353  0.0685
60352SOL    HW198666   7.769   9.176   7.416 -1.2926  0.6028  1.0805
60352SOL    HW298667   7.875   9.283   7.402 -0.4419 -0.4639 -1.0139
60353SOL     OW98668  13.288   1.024   0.052  0.0320  0.3103 -0.2654
60353SOL    HW198669  13.346   1.020   0.129 -0.9266 -1.6668  0.4151
60353SOL    HW298670  13.348   1.031  -0.022  1.2594 -2.2958  0.3773
60354SOL     OW98671   5.693   7.271   0.739  0.7089 -0.0364  0.5799
60354SOL    HW198672   5.657   7.342   0.685 -1.7669 -0.5098  1.4840
60354SOL    HW298673   5.702   7.197   0.678 -2.0408 -0.5656  0.6517
60355SOL     OW98674   1.887   9.933  13.322  0.1875 -0.2735 -0.3746
60355SOL    HW198675   1.848  10.020  13.315 -1.8429 -0.9742  1.2287
60355SOL    HW298676   1.817   9.873  13.295  1.0848 -1.4796 -0.1060
60356SOL     OW98677   2.745   1.648  14.019  0.2859 -0.2827  0.4515
60356SOL    HW198678   2.692   1.569  14.032  1.5098 -0.8508  2.3290
60356SOL    HW298679   2.811   1.645  14.088  2.8073  0.3789 -1.7304
60357SOL     OW98680   6.996  12.560  11.743 -0.5285 -0.6792  0.3370
60357SOL    HW198681   7.067  12.623  11.732  0.4174 -1.6932  0.4626
60357SOL    HW298682   7.019  12.488  11.684 -1.2752 -1.1719  0.6354
60358SOL     OW98683   5.365   2.664  10.658  0.1660  0.6138  0.5327
60358SOL    HW198684   5.359   2.620  10.573 -2.7330  1.5926  0.1272
60358SOL    HW298685   5.358   2.594  10.722 -3.4665  0.1937 -0.0993
60359SOL     OW98686   4.317   6.388  12.110 -0.4747  0.4922  0.0368
60359SOL    HW198687   4.284   6.450  12.176  0.2494  0.1213  0.7705
60359SOL    HW298688   4.397   6.429  12.076 -1.2516  1.0434 -1.2000
60360SOL     OW98689   1.929   8.424   9.428  0.1559 -0.5300  0.2538
60360SOL    HW198690   1.835   8.416   9.446  0.2578 -1.3301  0.4847
60360SOL    HW298691   1.964   8.338   9.449  0.3810 -1.4674 -3.3603
60361SOL     OW98692   9.072   4.087   3.651  0.0865  0.8804  0.7215
60361SOL    HW198693   9.129   4.020   3.612 -0.2703  0.7275  0.4536
60361SOL    HW298694   9.043   4.049   3.734 -1.5324 -0.0818 -0.2173
60362SOL     OW98695   3.851   3.194  10.057 -0.3645  0.0981 -0.3355
60362SOL    HW198696   3.933   3.242  10.062 -1.8495  2.7092  0.7462
60362SOL    HW298697   3.843   3.152  10.143 -0.7557  0.9564  0.0607
60363SOL     OW98698  13.961   7.284   4.987 -0.2872 -0.3705 -0.3757
60363SOL    HW198699  14.019   7.252   5.056 -2.3868  0.1219  1.7229
60363SOL    HW298700  13.926   7.366   5.021 -0.9182  0.2130 -2.3178
60364SOL     OW98701   5.579   8.934   1.784  0.0800  0.1811  0.0163
60364SOL    HW198702   5.582   8.889   1.868 -0.5166  1.9708  1.0729
60364SOL    HW298703   5.667   8.925   1.747  0.2737 -0.8368  0.7026
60365SOL     OW98704  13.929   9.004  11.809  0.0902  0.4283 -0.0399
60365SOL    HW198705  13.932   9.076  11.872  1.8565  1.2174 -0.9465
60365SOL    HW298706  13.877   8.936  11.852  1.5877  0.7492  2.4764
60366SOL     OW98707   7.171  11.242   7.444  0.3316 -0.7653  0.0701
60366SOL    HW198708   7.180  11.232   7.350  1.6656  0.2788  0.0524
60366SOL    HW298709   7.156  11.336   7.457  0.6380 -0.8197  0.9172
60367SOL     OW98710  10.325   3.489   6.843  0.1593  0.3837  0.6093
60367SOL    HW198711  10.386   3.454   6.908 -0.3348  0.0567  0.9069
60367SOL    HW298712  10.253   3.524   6.894 -0.0798  0.4260  0.2478
60368SOL     OW98713   3.992   7.024  11.216 -0.6023 -0.1669  0.0137
60368SOL    HW198714   3.925   7.082  11.250 -0.7673  0.2415 -0.9909
60368SOL    HW298715   3.954   6.936  11.224 -1.3260  0.0747 -0.7121
60369SOL     OW98716  14.005   7.669   3.339  0.1966 -0.2167  0.1694
60369SOL    HW198717  13.986   7.587   3.385 -0.3245  0.3796  1.0612
60369SOL    HW298718  14.100   7.672   3.333  0.2173 -0.9460  0.0045
60370SOL     OW98719   0.888  10.381   5.161  0.0561  1.0704 -0.5919
60370SOL    HW198720   0.872  10.307   5.220  1.3699  2.2903  1.3625
60370SOL    HW298721   0.885  10.341   5.074 -1.8079 -0.8212  0.2209
60371SOL     OW98722   2.840   6.628   1.685  0.5175  0.7397 -0.3622
60371SOL    HW198723   2.922   6.633   1.733  0.0712  1.0629  0.3861
60371SOL    HW298724   2.863   6.589   1.600  0.8223 -2.7977  1.1907
60372SOL     OW98725  12.761  10.805   8.244  0.4139 -0.4177 -0.0071
60372SOL    HW198726  12.710  10.761   8.312 -0.2103  0.5394  0.1567
60372SOL    HW298727  12.805  10.877   8.290  1.6662 -1.0206 -0.2118
60373SOL     OW98728   4.784   1.516   0.922  0.1159 -0.2358  0.2910
60373SOL    HW198729   4.824   1.429   0.922  1.3048  0.2827 -0.6703
60373SOL    HW298730   4.789   1.545   0.831  0.4900  1.1603  0.7220
60374SOL     OW98731  13.271   4.380   0.289  0.6194  0.4058  0.1625
60374SOL    HW198732  13.233   4.297   0.258 -2.1036  0.9074  1.8290
60374SOL    HW298733  13.243   4.445   0.225  1.0591  0.3422 -0.0935
60375SOL     OW98734   3.191   7.286  12.003  0.1397 -0.5285  0.2723
60375SOL    HW198735   3.232   7.242  12.077  1.0805  1.1652  0.8097
60375SOL    HW298736   3.109   7.321  12.039  0.2391 -0.3508  0.3306
60376SOL     OW98737   0.893   3.424   5.950  0.1812 -0.4997  0.3628
60376SOL    HW198738   0.880   3.333   5.926 -0.0336 -0.3393 -0.1324
60376SOL    HW298739   0.986   3.430   5.973  0.3888 -0.6538 -0.4244
60377SOL     OW98740   0.497   5.755  11.795  0.2456  0.4357 -0.2444
60377SOL    HW198741   0.578   5.800  11.770  0.7708  0.2676  1.0542
60377SOL    HW298742   0.522   5.663  11.804 -0.7398 -0.1245 -2.5198
60378SOL     OW98743   9.088   0.500   1.940  0.3958  0.6882 -0.2959
60378SOL    HW198744   9.096   0.488   1.846 -2.5309  0.6269 -0.6198
60378SOL    HW298745   9.001   0.537   1.952  0.5709  0.4119  2.4221
60379SOL     OW98746  12.296   7.520   7.376 -0.3801 -0.1829 -0.6648
60379SOL    HW198747  12.391   7.512   7.367 -0.0427 -0.1846  2.0382
60379SOL    HW298748  12.266   7.551   7.291  2.2915  1.8842 -0.9866
60380SOL     OW98749   9.652  13.604   3.652 -0.0982 -0.0692 -0.4723
60380SOL    HW198750   9.626  13.522   3.610  0.1381 -0.4757  0.1579
60380SOL    HW298751   9.627  13.593   3.744 -1.6102  1.2171 -0.6638
60381SOL     OW98752   3.195   7.183   9.950  0.0911 -0.2515 -0.1660
60381SOL    HW198753   3.151   7.114   9.901 -0.3723  0.9019 -1.4487
60381SOL    HW298754   3.258   7.137  10.005  0.8147 -1.6362 -2.0231
60382SOL     OW98755   8.901  13.942  13.815 -0.3568  0.7382  0.6179
60382SOL    HW198756   8.859  13.941  13.728  1.9938  0.3924 -0.5755
60382SOL    HW298757   8.847  13.882  13.867  0.1468 -1.8975 -1.6239
60383SOL     OW98758  10.691   9.324   2.712  0.2295  0.3119 -0.1763
60383SOL    HW198759  10.602   9.318   2.747 -0.9257  0.6281 -2.7972
60383SOL    HW298760  10.687   9.396   2.648  1.9654 -0.6167 -1.4238
60384SOL     OW98761   8.613  11.358  10.277  0.2797 -0.4405 -0.3353
60384SOL    HW198762   8.622  11.430  10.339 -0.6220 -1.4885  1.0666
60384SOL    HW298763   8.536  11.309  10.307 -0.3856 -0.8244 -2.4580
60385SOL     OW98764   9.580   5.703   6.757  0.7901  0.0056 -0.0307
60385SOL    HW198765   9.658   5.719   6.810  1.1060 -0.9616 -0.1874
60385SOL    HW298766   9.536   5.788   6.753  2.1453  0.7134 -0.4678
60386SOL     OW98767   0.110  11.346   7.878  0.1581 -0.2706  0.0300
60386SOL    HW198768   0.163  11.312   7.805 -0.1463 -1.5508  0.3759
60386SOL    HW298769   0.048  11.276   7.897 -0.8780  0.7270  0.4294
60387SOL     OW98770  10.729  10.661  11.873 -0.3995  0.4745  0.3079
60387SOL    HW198771  10.663  10.669  11.942 -1.3288 -1.7626 -0.2606
60387SOL    HW298772  10.703  10.726  11.807 -0.6483  1.2204  1.1155
60388SOL     OW98773   6.614   6.415   0.148 -0.2110 -0.5369 -0.2654
60388SOL    HW198774   6.523   6.442   0.160 -0.0718 -0.9000  2.1139
60388SOL    HW298775   6.665   6.485   0.187  0.5425 -0.4056 -1.4569
60389SOL     OW98776   5.606   4.194  13.374 -0.1291 -0.0205  0.1229
60389SOL    HW198777   5.697   4.225  13.368 -0.1211 -0.0449  0.1147
60389SOL    HW298778   5.614   4.104  13.407 -0.0242 -0.6598 -1.5034
60390SOL     OW98779   4.629  11.378   2.391  0.4182 -0.3626  0.5209
60390SOL    HW198780   4.679  11.383   2.473 -2.5624 -0.6501  2.4760
60390SOL    HW298781   4.585  11.463   2.385 -1.0336 -1.1086  0.3755
60391SOL     OW98782  12.859   9.194   7.982 -0.1499 -0.5848 -0.4660
60391SOL    HW198783  12.953   9.180   7.978  0.3130  2.2868 -1.5959
60391SOL    HW298784  12.843   9.223   8.072  0.3296  0.3959 -0.6815
60392SOL     OW98785   5.867   2.737  12.383  0.3621  0.5125 -0.4835
60392SOL    HW198786   5.877   2.745  12.288  1.8909  1.5707 -0.2653
60392SOL    HW298787   5.787   2.787  12.402 -0.7329 -0.8336 -1.3299
60393SOL     OW98788   3.159  10.869   9.107 -0.1696  0.2733  0.2299
60393SOL    HW198789   3.188  10.783   9.078  0.7762  0.3883  0.7689
60393SOL    HW298790   3.073  10.854   9.146 -0.0863 -0.3928  0.1582
60394SOL     OW98791   8.660  12.508  13.099 -0.2021  0.2277  0.4522
60394SOL    HW198792   8.617  12.544  13.176 -0.3873 -0.6204  0.7552
60394SOL    HW298793   8.630  12.417  13.095 -0.7793  0.4563 -1.0414
60395SOL     OW98794  12.080   3.653   3.397  0.1392  0.1044 -0.0906
60395SOL    HW198795  12.014   3.605   3.347 -0.9369  2.1541 -0.7904
60395SOL    HW298796  12.056   3.638   3.489  0.3509 -1.3388 -0.2593
60396SOL     OW98797   4.561   1.601   8.018 -0.2180 -0.0866 -0.1155
60396SOL    HW198798   4.548   1.594   8.113  1.9125  1.4978  0.3813
60396SOL    HW298799   4.473   1.597   7.981 -1.0165 -1.9111  1.8124
60397SOL     OW98800  11.701   9.059   3.005  0.2058  0.3170 -0.5493
60397SOL    HW198801  11.686   9.062   3.100  0.4078  0.1639 -0.5111
60397SOL    HW298802  11.720   9.150   2.981 -0.8726  0.5322 -0.6176
60398SOL     OW98803  10.076  11.563   0.182  0.7743 -0.3491  0.2708
60398SOL    HW198804  10.011  11.493   0.188  0.1245  0.0001 -1.6717
60398SOL    HW298805  10.160  11.518   0.176  0.6119 -0.8532  1.5815
60399SOL     OW98806  12.239  13.759   5.490 -0.5252  0.2589 -0.3318
60399SOL    HW198807  12.219  13.852   5.480  1.2590  0.6377 -0.7539
60399SOL    HW298808  12.283  13.752   5.574 -0.2411 -0.1254 -0.5082
60400SOL     OW98809   6.099   3.974  10.098  0.3408 -0.6745  0.4515
60400SOL    HW198810   6.190   3.976  10.127  0.0031 -0.7713  1.5371
60400SOL    HW298811   6.100   4.024  10.015  1.3300 -0.4753  0.5683
60401SOL     OW98812  10.663  13.511   4.591  0.3412 -0.3144 -0.1557
60401SOL    HW198813  10.584  13.503   4.645  0.2976 -0.3150 -0.2195
60401SOL    HW298814  10.632  13.497   4.501  0.3741 -0.0734 -0.2048
60402SOL     OW98815   9.833  10.994   0.718  0.3349  0.4971 -0.0233
60402SOL    HW198816   9.917  11.020   0.755 -0.0563  0.3302  1.0272
60402SOL    HW298817   9.793  11.075   0.687 -0.0732  0.9191  1.5304
60403SOL     OW98818   8.546   2.917   2.326  0.4686  0.0057  0.0503
60403SOL    HW198819   8.603   2.897   2.400 -0.8033  0.7272  1.2647
60403SOL    HW298820   8.554   2.841   2.269  0.1757 -1.3484  1.7366
60404SOL     OW98821  10.959   4.907   6.017  0.4333 -0.2275  0.1547
60404SOL    HW198822  10.957   4.988   6.068  2.4136  1.0204 -1.5599
60404SOL    HW298823  10.899   4.923   5.944 -0.2801 -0.8987  0.5868
60405SOL     OW98824   8.402  11.054   6.707  0.4721  0.0362  0.4597
60405SOL    HW198825   8.454  10.986   6.748  2.3444  0.3479 -1.2726
60405SOL    HW298826   8.339  11.080   6.775  0.9234 -2.0824  1.7729
60406SOL     OW98827   1.536   5.211   5.034  0.8358  0.2928  0.1600
60406SOL    HW198828   1.498   5.239   5.117  0.3347 -0.7707  0.3123
60406SOL    HW298829   1.561   5.120   5.049  0.0049 -0.1776 -1.0837
60407SOL     OW98830   3.802   4.352   4.853 -0.2304 -0.1503 -0.2052
60407SOL    HW198831   3.783   4.341   4.760 -2.0446 -0.3972  0.1601
60407SOL    HW298832   3.718   4.373   4.893  0.2579 -1.3086  1.5679
60408SOL     OW98833   7.931   4.074   3.330 -0.0276 -0.1297  0.2460
60408SOL    HW198834   7.992   4.001   3.320  0.9680  0.7403 -0.2570
60408SOL    HW298835   7.851   4.045   3.285  0.6104 -0.6122 -0.5933
60409SOL     OW98836   2.206   6.232  13.476  0.4054 -0.6381 -1.0488
60409SOL    HW198837   2.272   6.228  13.407  0.9051  0.4420 -0.6554
60409SOL    HW298838   2.127   6.263  13.432  1.0631  1.3325 -0.9484
60410SOL     OW98839   2.193   7.682  12.985 -0.0641  0.3121  0.6036
60410SOL    HW198840   2.163   7.677  12.894 -0.6939  0.8621  0.7726
60410SOL    HW298841   2.155   7.763  13.018 -0.8666 -0.4824  1.7242
60411SOL     OW98842   0.425   8.125   7.518  0.0270 -0.2202  0.0492
60411SOL    HW198843   0.362   8.168   7.576  0.3079  2.2907 -1.3186
60411SOL    HW298844   0.370   8.081   7.453 -0.2974 -0.4727  0.4856
60412SOL     OW98845   4.535   7.619  13.513 -0.6734 -0.4034 -0.0552
60412SOL    HW198846   4.562   7.610  13.604  0.2435  0.5469 -0.2045
60412SOL    HW298847   4.480   7.697  13.513  0.2674  0.2878 -0.4765
60413SOL     OW98848   2.741  10.370   3.537  0.0850  0.1153  0.3485
60413SOL    HW198849   2.796  10.440   3.571  1.2537 -0.8422  0.4984
60413SOL    HW298850   2.732  10.390   3.444 -0.9271  1.3043  0.6728
60414SOL     OW98851   2.192   0.743   8.797 -0.1512 -0.2291  0.3029
60414SOL    HW198852   2.141   0.785   8.727 -1.2104 -0.1829  1.0776
60414SOL    HW298853   2.226   0.663   8.757  1.6349  1.1398 -1.1088
60415SOL     OW98854   4.745   0.136   9.832 -0.1084 -0.4637  0.2933
60415SOL    HW198855   4.750   0.135   9.928  0.7125  2.4107  0.3808
60415SOL    HW298856   4.831   0.168   9.804 -0.0644 -1.9796 -1.4944
60416SOL     OW98857   9.693  13.551   7.512  0.1283  0.0006  0.2302
60416SOL    HW198858   9.693  13.521   7.421 -2.7371  1.1930 -0.2712
60416SOL    HW298859   9.650  13.636   7.509  0.0555  0.1228  2.7096
60417SOL     OW98860   5.717   1.427   2.720 -0.3163 -0.0306 -0.2486
60417SOL    HW198861   5.674   1.413   2.636  2.0231  1.4776 -1.8103
60417SOL    HW298862   5.724   1.340   2.758 -3.4476 -0.4920 -0.4685
60418SOL     OW98863  13.106  10.792   3.478  0.2782 -0.7032  0.6033
60418SOL    HW198864  13.081  10.714   3.528  0.4831 -0.7532  0.6309
60418SOL    HW298865  13.202  10.791   3.480  0.4462 -2.2610 -2.1521
60419SOL     OW98866   1.720  12.633   3.845  0.3522 -0.2636  0.8584
60419SOL    HW198867   1.659  12.702   3.817  0.7289  0.0382  0.7778
60419SOL    HW298868   1.767  12.671   3.919  0.6807 -0.3660  0.7061
60420SOL     OW98869  11.913   1.846  10.483  0.0028 -0.1652  0.1526
60420SOL    HW198870  11.986   1.856  10.544 -1.3191  1.6802  1.5495
60420SOL    HW298871  11.844   1.900  10.520 -2.0128 -1.6338 -1.2593
60421SOL     OW98872   1.163   7.525   6.251  0.3281 -0.3771  0.3448
60421SOL    HW198873   1.209   7.548   6.332  0.5833 -0.1735  0.1442
60421SOL    HW298874   1.202   7.442   6.224 -0.4111 -0.9283  0.9287
60422SOL     OW98875  11.593  11.660  12.024 -0.4607  0.0298 -0.1935
60422SOL    HW198876  11.553  11.600  12.085  0.2745 -1.2381 -0.9040
60422SOL    HW298877  11.613  11.606  11.947  1.5893  0.8037 -0.2795
60423SOL     OW98878   6.321   4.602   2.788 -0.7145 -0.1137  0.5059
60423SOL    HW198879   6.258   4.643   2.846 -0.0129  1.1586  0.3973
60423SOL    HW298880   6.368   4.675   2.747  1.7131 -0.9771  1.5618
60424SOL     OW98881  13.908   7.989  12.314  0.4194 -0.1452 -0.6224
60424SOL    HW198882  13.825   8.032  12.337  0.7176  0.1073 -0.0110
60424SOL    HW298883  13.897   7.899  12.344  0.5171 -0.0109 -0.1827
60425SOL     OW98884   2.267   9.315   1.093  0.7530 -0.3869  0.0901
60425SOL    HW198885   2.177   9.292   1.070  0.8474  0.7466 -1.5822
60425SOL    HW298886   2.320   9.243   1.060  0.5957 -0.3481 -0.2437
60426SOL     OW98887   5.137  13.820   2.959 -0.4584 -0.0073  0.0892
60426SOL    HW198888   5.199  13.769   2.908 -0.8878  0.2777 -0.7256
60426SOL    HW298889   5.051  13.783   2.939 -0.5806 -0.3299  1.1272
60427SOL     OW98890   8.332   0.113  10.807 -0.2511  0.2072  0.6727
60427SOL    HW198891   8.329   0.058  10.728 -0.7944  0.9682  0.1542
60427SOL    HW298892   8.398   0.071  10.862  0.9757  0.2898 -0.6685
60428SOL     OW98893   6.357   0.713   4.650 -0.6930  0.5470 -0.4432
60428SOL    HW198894   6.408   0.754   4.719  0.6162  0.2892 -1.2260
60428SOL    HW298895   6.350   0.621   4.675 -2.5615  0.9436  0.6819
60429SOL     OW98896   8.098   8.109   5.229 -0.0212  0.2026 -0.2042
60429SOL    HW198897   8.106   8.114   5.134  0.6526  0.3115 -0.1420
60429SOL    HW298898   8.157   8.176   5.263 -0.2046  0.1189  0.2955
60430SOL     OW98899   2.478   1.819  11.817  0.0114  0.2978 -0.3944
60430SOL    HW198900   2.432   1.786  11.895 -1.7269 -0.3629 -1.6238
60430SOL    HW298901   2.471   1.915  11.824 -1.3826  0.2287 -0.3814
60431SOL     OW98902   1.020  14.062   5.920  0.6652  0.2715  0.1662
60431SOL    HW198903   1.106  14.096   5.896 -0.0726  2.5304  0.4956
60431SOL    HW298904   1.037  14.001   5.992  2.0791 -0.3031 -0.6204
60432SOL     OW98905   9.402   2.542   8.789 -0.4564  0.7410  0.4770
60432SOL    HW198906   9.358   2.594   8.722 -3.0808 -0.4854  1.1093
60432SOL    HW298907   9.377   2.451   8.769  1.9984 -0.0767  0.8163
60433SOL     OW98908   4.492  11.013   1.947 -0.5886  0.3512  0.1616
60433SOL    HW198909   4.433  11.061   2.004 -0.0208 -0.0568  1.1195
60433SOL    HW298910   4.452  10.926   1.939 -0.5863  0.3587  0.0703
60434SOL     OW98911   7.975   2.254   7.544 -0.2612 -0.5141 -0.4584
60434SOL    HW198912   8.024   2.234   7.624  1.8819  0.4032 -1.4691
60434SOL    HW298913   8.028   2.216   7.474 -1.7037 -0.6164 -1.5330
60435SOL     OW98914   3.500   4.190   1.893 -0.0380 -0.0882 -0.1723
60435SOL    HW198915   3.410   4.202   1.862 -0.3794 -2.2897 -0.1639
60435SOL    HW298916   3.555   4.227   1.823 -0.8989  2.4508  0.3843
60436SOL     OW98917   6.741   1.445   4.306  0.8605  0.0101  0.2010
60436SOL    HW198918   6.771   1.453   4.396  0.7931 -0.4410  0.2648
60436SOL    HW298919   6.757   1.353   4.283 -0.9891 -0.4051  0.4205
60437SOL     OW98920  12.598   5.824   5.208  0.3714 -0.5331  0.3065
60437SOL    HW198921  12.506   5.804   5.189  0.0238  0.3965  0.9408
60437SOL    HW298922  12.647   5.751   5.169 -0.5145 -0.2375 -1.4736
60438SOL     OW98923   0.118   1.199  13.291 -0.1940 -0.1985 -0.1430
60438SOL    HW198924   0.194   1.154  13.329 -1.6997 -0.9859  2.1616
60438SOL    HW298925   0.077   1.133  13.235  0.2634 -0.0928 -0.6080
60439SOL     OW98926   9.366   8.771   0.886 -0.1142  0.6196 -0.2564
60439SOL    HW198927   9.426   8.705   0.850 -0.9981 -0.6581  0.5342
60439SOL    HW298928   9.307   8.791   0.813  0.5107  0.9805 -0.6725
60440SOL     OW98929  13.670   5.121  10.632 -0.0234 -0.2212  0.9674
60440SOL    HW198930  13.696   5.045  10.580 -0.2897 -0.1651  0.7514
60440SOL    HW298931  13.574   5.121  10.628 -0.0149  0.3799  0.5967
60441SOL     OW98932  12.824   3.863   2.568  0.1821  0.3906 -0.6211
60441SOL    HW198933  12.863   3.950   2.572 -1.2240  1.0016  1.3714
60441SOL    HW298934  12.730   3.879   2.578 -0.3239 -1.2387 -2.2483
60442SOL     OW98935  13.512  13.058  11.345  0.4143 -0.5856  0.8867
60442SOL    HW198936  13.441  12.998  11.322 -0.1287  0.6622 -0.9409
60442SOL    HW298937  13.492  13.085  11.435 -0.8968 -0.9757  0.7337
60443SOL     OW98938   7.286   9.026  13.303  0.1979 -0.2166  0.7126
60443SOL    HW198939   7.333   8.980  13.372  2.6381 -2.8296 -2.3623
60443SOL    HW298940   7.348   9.091  13.271  0.5266 -1.3738 -1.1573
60444SOL     OW98941   3.568   6.385   7.076 -0.5036 -0.0741 -0.6014
60444SOL    HW198942   3.652   6.419   7.046 -1.0026  1.2748 -0.5358
60444SOL    HW298943   3.542   6.443   7.147 -0.5229 -1.7257  0.8064
60445SOL     OW98944   4.595  12.894  10.093 -0.9135 -0.3091 -0.0623
60445SOL    HW198945   4.564  12.900  10.183 -1.1355 -1.3233 -0.0619
60445SOL    HW298946   4.537  12.830  10.052 -1.4351  0.8617 -1.2042
60446SOL     OW98947   5.410   9.394   3.446 -0.1706 -0.4186 -0.7355
60446SOL    HW198948   5.322   9.400   3.409 -0.2614 -2.7593 -1.0572
60446SOL    HW298949   5.467   9.375   3.371  0.5124  0.3428 -0.4260
60447SOL     OW98950   4.539   8.897   3.758  0.5501  0.1530  0.3513
60447SOL    HW198951   4.627   8.923   3.785  1.2050 -1.8596  0.3161
60447SOL    HW298952   4.485   8.909   3.836  1.5600 -1.6771  1.3880
60448SOL     OW98953   0.548   0.313   6.088 -0.2344 -0.3361  0.2917
60448SOL    HW198954   0.604   0.321   6.011 -0.1826 -1.2196  0.2283
60448SOL    HW298955   0.517   0.222   6.086 -1.6994  0.1479  0.3077
60449SOL     OW98956   0.904   5.184   7.334  0.1421 -0.7474 -0.0773
60449SOL    HW198957   0.904   5.165   7.428  2.5362 -1.8288 -0.2213
60449SOL    HW298958   0.825   5.142   7.301 -0.1452 -1.3370  1.2945
60450SOL     OW98959   6.929  10.983   8.701 -0.0456  0.0128 -0.5995
60450SOL    HW198960   6.879  11.016   8.626 -0.6936  1.2230  0.3196
60450SOL    HW298961   6.907  10.890   8.705  0.7550 -0.3043 -2.4556
60451SOL     OW98962  12.314  12.118   4.740  0.4853 -0.3982 -0.0894
60451SOL    HW198963  12.369  12.180   4.691 -1.8406 -0.1086 -2.5277
60451SOL    HW298964  12.241  12.171   4.772 -0.3122 -1.4214 -0.1659
60452SOL     OW98965  10.945   5.617   0.181  0.3447 -0.2878  0.3456
60452SOL    HW198966  10.945   5.551   0.112 -0.5898 -0.4747  0.5112
60452SOL    HW298967  11.035   5.648   0.184  1.3793 -3.0536  1.7191
60453SOL     OW98968   0.541   0.001   8.728  0.0898 -0.1261 -0.1576
60453SOL    HW198969   0.495   0.028   8.649 -1.9694 -0.9606  0.6597
60453SOL    HW298970   0.577   0.081   8.765 -1.7888  0.8076 -0.2489
60454SOL     OW98971  10.581  13.962   0.518  0.6220  0.1362  0.1523
60454SOL    HW198972  10.579  13.949   0.423  1.2134 -0.9481  0.2711
60454SOL    HW298973  10.490  13.948   0.546  0.4073  0.6637 -0.2767
60455SOL     OW98974  13.360   8.517   5.292  0.6977 -0.1794  0.7021
60455SOL    HW198975  13.400   8.506   5.206  0.6707  0.1367  0.6468
60455SOL    HW298976  13.345   8.428   5.324 -1.0431 -0.3265 -0.4315
60456SOL     OW98977   7.814   3.434   1.552 -0.0150  0.1364  0.2002
60456SOL    HW198978   7.878   3.498   1.520  1.4064 -1.5931 -0.6298
60456SOL    HW298979   7.866   3.370   1.601 -1.5874  0.3501  2.2665
60457SOL     OW98980  12.758   8.812   7.196  0.3973  0.5719 -0.0760
60457SOL    HW198981  12.663   8.825   7.198  0.3594  0.8088 -1.6950
60457SOL    HW298982  12.794   8.900   7.184  0.6486  0.2586 -1.9900
60458SOL     OW98983   8.569   1.520   3.546  0.2868  0.2128  0.2700
60458SOL    HW198984   8.664   1.523   3.560  0.0130 -0.0969  2.7812
60458SOL    HW298985   8.548   1.426   3.549 -0.2214  0.3427  1.0628
60459SOL     OW98986   7.088   0.968  11.541  0.0145 -0.0157  0.1597
60459SOL    HW198987   7.179   0.995  11.558  0.7096 -1.7474 -0.4975
60459SOL    HW298988   7.077   0.888  11.593 -1.2715  0.3539  0.4923
60460SOL     OW98989   4.339   8.409  12.369  0.0821 -0.0955 -0.9332
60460SOL    HW198990   4.270   8.475  12.367  0.6011  0.5207  0.4227
60460SOL    HW298991   4.361   8.396  12.276 -0.1845  1.4808 -1.2573
60461SOL     OW98992   4.658  12.316  11.109 -0.0276 -0.1862  0.3587
60461SOL    HW198993   4.751  12.293  11.117 -0.1703 -0.5567  0.9820
60461SOL    HW298994   4.611  12.236  11.133 -0.5209 -0.8625 -2.5496
60462SOL     OW98995   1.703  12.784   2.662 -0.0384  0.1242 -0.6153
60462SOL    HW198996   1.772  12.793   2.728  0.8014 -1.4509 -1.2231
60462SOL    HW298997   1.660  12.869   2.661  1.5482  0.9874  0.1767
60463SOL     OW98998   9.955   3.195   2.746  0.1181  0.3110  0.9145
60463SOL    HW198999  10.041   3.198   2.788  0.9634 -3.0800 -0.3215
60463SOL    HW299000   9.935   3.102   2.736 -1.2843  0.8363 -3.5343
60464SOL     OW99001   3.762   0.740   1.461  0.0276 -0.8151  0.2984
60464SOL    HW199002   3.799   0.702   1.382 -0.2219 -0.9884  0.2650
60464SOL    HW299003   3.837   0.782   1.505 -0.2996  2.1445 -1.6285
60465SOL     OW99004   5.597  11.377   5.343  0.0364 -0.0620  0.3444
60465SOL    HW199005   5.552  11.390   5.259 -0.7062 -0.2119  0.7098
60465SOL    HW299006   5.586  11.461   5.389  3.3141  1.2788 -0.9754
60466SOL     OW99007   1.944  10.929  13.918 -0.2670 -0.6893 -0.3055
60466SOL    HW199008   1.912  10.885  13.840  0.5335 -2.4821  0.3076
60466SOL    HW299009   1.886  10.898  13.988  1.4460 -2.3585  0.4591
60467SOL     OW99010  12.040   5.554   3.953 -0.2697 -0.3711 -0.0534
60467SOL    HW199011  12.026   5.511   4.038 -1.5093 -1.0511 -0.5815
60467SOL    HW299012  12.114   5.612   3.969 -0.5478 -0.3863  1.5355
60468SOL     OW99013   3.638   0.769  12.320  0.0306 -0.1531  0.1414
60468SOL    HW199014   3.646   0.676  12.343  0.1770 -0.5755 -1.5057
60468SOL    HW299015   3.557   0.797  12.363  0.0538 -0.9928  0.7755
60469SOL     OW99016   4.292   2.518  10.602  0.0350 -0.3949  0.0636
60469SOL    HW199017   4.371   2.495  10.652  0.7477 -0.0582 -0.8851
60469SOL    HW299018   4.232   2.445  10.617  1.0571 -1.3427 -0.3246
60470SOL     OW99019   9.653   4.978  11.457 -0.4419 -0.3736  0.2904
60470SOL    HW199020   9.681   4.956  11.368  0.1317  1.4694 -0.0296
60470SOL    HW299021   9.729   4.959  11.512  0.3080  1.3655 -0.0871
60471SOL     OW99022   1.680  13.279   4.734 -0.0529  0.3354 -0.6164
60471SOL    HW199023   1.733  13.308   4.808 -0.1991 -2.9691  0.9460
60471SOL    HW299024   1.738  13.290   4.658  1.8550 -0.4786  0.6475
60472SOL     OW99025   6.638   8.034   8.912  0.1886  0.4523 -0.4541
60472SOL    HW199026   6.707   8.033   8.979 -0.1091 -0.2374 -0.1473
60472SOL    HW299027   6.559   8.005   8.958 -0.3372  1.3319 -0.7831
60473SOL     OW99028   6.990   1.616   1.143  0.2604  0.4163 -0.3276
60473SOL    HW199029   6.978   1.673   1.067 -2.5995 -0.3985 -0.6171
60473SOL    HW299030   7.079   1.633   1.173  2.0017 -0.0887 -4.5692
60474SOL     OW99031   2.400   3.580   2.773  0.4230 -0.0726  0.2205
60474SOL    HW199032   2.333   3.517   2.746  2.5135 -2.2345 -0.2257
60474SOL    HW299033   2.483   3.535   2.759  2.1890  3.4172 -1.7675
60475SOL     OW99034   4.215   4.052   9.318  0.1282 -0.2148 -0.2449
60475SOL    HW199035   4.261   4.128   9.353 -0.1225  0.2978 -1.0070
60475SOL    HW299036   4.259   3.977   9.358  1.8084  0.2402 -1.1493
60476SOL     OW99037   7.991  10.471   1.564  0.2024  0.4380 -0.1309
60476SOL    HW199038   8.017  10.483   1.472 -0.7366  0.9954 -0.3387
60476SOL    HW299039   7.898  10.450   1.560 -0.0291  1.2125  0.7286
60477SOL     OW99040   8.637   1.979  12.580 -0.6426 -0.4385  0.1262
60477SOL    HW199041   8.719   2.027  12.593 -0.8037  0.2326 -1.1601
60477SOL    HW299042   8.665   1.890  12.557 -0.1981  0.0720 -1.4588
60478SOL     OW99043   9.566  13.073   2.392  0.0063  0.1390  0.1963
60478SOL    HW199044   9.582  13.043   2.481 -0.9429 -0.9004  0.0461
60478SOL    HW299045   9.494  13.136   2.401  0.9302  1.2019  0.3251
60479SOL     OW99046  13.811   0.447   6.049 -0.2173 -0.4677 -0.2757
60479SOL    HW199047  13.801   0.485   6.136 -1.3736  0.9331 -0.9737
60479SOL    HW299048  13.722   0.445   6.013 -0.1347 -3.3239 -0.5381
60480SOL     OW99049   9.926  13.240   7.224 -0.7576 -0.1582 -0.1396
60480SOL    HW199050   9.920  13.300   7.149  1.9336 -0.6514 -0.8536
60480SOL    HW299051   9.982  13.286   7.287 -0.0409 -1.2036  0.0100
60481SOL     OW99052   7.859   2.873   3.595 -0.6024 -0.0445 -0.0992
60481SOL    HW199053   7.779   2.822   3.579  0.3145 -1.4705 -0.3139
60481SOL    HW299054   7.856   2.943   3.530 -1.5547 -0.2308 -0.2751
60482SOL     OW99055   4.340   0.344  12.026 -0.0461 -0.1785 -0.2772
60482SOL    HW199056   4.399   0.319  11.955 -0.0232 -0.3773 -0.1902
60482SOL    HW299057   4.335   0.439  12.021 -1.0555 -0.2600 -1.3696
60483SOL     OW99058   4.429   4.522   5.860 -0.3984  0.5041  0.0697
60483SOL    HW199059   4.489   4.478   5.920 -2.0957 -1.2433  0.5922
60483SOL    HW299060   4.378   4.581   5.916 -1.6258 -0.7421  0.3259
60484SOL     OW99061   9.082   5.557  13.408 -0.3527 -0.1127 -0.1335
60484SOL    HW199062   9.175   5.534  13.409 -0.0337  1.0777  0.0338
60484SOL    HW299063   9.060   5.573  13.500 -0.4077  0.7086 -0.2758
60485SOL     OW99064  10.357  13.443   7.355  0.0884  0.0446 -0.2197
60485SOL    HW199065  10.355  13.470   7.447 -0.5508 -0.1959 -0.1495
60485SOL    HW299066  10.364  13.524   7.305  1.1668  0.1288  0.0565
60486SOL     OW99067   4.420   0.004   6.100 -0.0504  0.4338  0.5167
60486SOL    HW199068   4.414  -0.013   6.006  1.2728  2.0031  0.0877
60486SOL    HW299069   4.332   0.030   6.126 -1.0139 -2.2377  0.2677
60487SOL     OW99070  11.042   9.843   3.349  0.3740  0.0733  1.2216
60487SOL    HW199071  11.123   9.819   3.304  0.0607 -0.5578  0.9700
60487SOL    HW299072  11.063   9.836   3.442  0.1030 -2.0636  1.1903
60488SOL     OW99073  13.842   1.691   9.314  0.3271  0.2036 -0.2379
60488SOL    HW199074  13.794   1.702   9.232 -1.2827  0.3017  0.6719
60488SOL    HW299075  13.878   1.778   9.333 -1.0032  0.6924  0.1558
60489SOL     OW99076   7.402  10.947   0.650  0.4377  0.2949 -0.5344
60489SOL    HW199077   7.423  10.961   0.557  1.5623 -2.4453 -0.7810
60489SOL    HW299078   7.478  10.983   0.696  0.9096 -0.2835 -0.8364
60490SOL     OW99079   5.290   2.347  11.646  0.8640  0.3966 -0.0921
60490SOL    HW199080   5.230   2.342  11.572  1.0572 -0.4243 -0.2034
60490SOL    HW299081   5.250   2.292  11.713  1.6784 -0.4991 -0.3174
60491SOL     OW99082   5.898  11.965   4.688 -0.4176 -0.4183  0.3038
60491SOL    HW199083   5.895  11.993   4.779 -0.6129  2.6182 -0.5218
60491SOL    HW299084   5.991  11.963   4.666 -0.4295  0.9848  0.0373
60492SOL     OW99085  11.471  11.778  10.650  0.0915  1.0697  0.3147
60492SOL    HW199086  11.485  11.715  10.722  2.7039  0.2148 -0.8261
60492SOL    HW299087  11.510  11.859  10.681  1.0201  0.7616 -0.0142
60493SOL     OW99088  11.750   6.980   2.265 -0.0936  0.6405 -0.3221
60493SOL    HW199089  11.766   7.040   2.193  0.1672  1.0726  0.0887
60493SOL    HW299090  11.815   7.004   2.332  0.8613 -0.9230 -0.6323
60494SOL     OW99091   4.011   0.517  12.456  0.1160  0.3162 -0.1912
60494SOL    HW199092   3.992   0.448  12.393  0.0276  0.0266  0.1457
60494SOL    HW299093   4.002   0.599  12.407 -1.5033  0.1709 -0.1725
60495SOL     OW99094   8.289   0.704   7.384 -0.6463  0.0828 -0.1622
60495SOL    HW199095   8.265   0.612   7.393 -3.5520  0.8466  1.2779
60495SOL    HW299096   8.233   0.737   7.313  1.4412  0.4725 -1.6993
60496SOL     OW99097   6.409   8.602   8.829 -0.0700  0.4474 -0.0850
60496SOL    HW199098   6.329   8.638   8.867 -0.8088  0.7178 -1.8164
60496SOL    HW299099   6.394   8.602   8.735  1.3914 -0.9149 -0.3755
60497SOL     OW99100   3.956   3.903   5.256  0.4005 -0.4233 -0.1147
60497SOL    HW199101   3.874   3.872   5.296  0.9549 -2.0032 -0.1349
60497SOL    HW299102   3.944   3.888   5.162  0.7635 -0.8253 -0.1009
60498SOL     OW99103   5.989  11.301   0.876  0.3900 -0.5030 -0.2253
60498SOL    HW199104   6.026  11.213   0.884 -0.3036 -0.8548 -0.7837
60498SOL    HW299105   5.895  11.288   0.882  0.3416  0.5973  3.0837
60499SOL     OW99106   0.269   9.308   8.300  0.0186 -0.0140  0.1532
60499SOL    HW199107   0.284   9.235   8.360 -1.0120  0.5001  1.0552
60499SOL    HW299108   0.181   9.292   8.265 -0.1993  0.7802  0.3329
60500SOL     OW99109  10.776   4.945  10.375 -0.2152  0.3570 -0.0061
60500SOL    HW199110  10.770   4.881  10.445 -0.4049  0.4693  0.0790
60500SOL    HW299111  10.804   5.026  10.418  1.4217 -0.0101 -0.3059
60501SOL     OW99112   2.319   4.262   6.750 -0.3025  0.2698  0.2022
60501SOL    HW199113   2.268   4.182   6.738  0.9638 -0.7957  1.5575
60501SOL    HW299114   2.316   4.305   6.664 -0.5795 -1.4940 -0.7248
60502SOL     OW99115  12.669   5.778   1.791  0.3124  0.3405  0.4992
60502SOL    HW199116  12.710   5.713   1.849  0.0939  0.7651  1.1382
60502SOL    HW299117  12.699   5.862   1.825 -0.6505  0.6317  0.6398
60503SOL     OW99118   7.565  10.499  11.836 -0.1336  0.1685 -0.1247
60503SOL    HW199119   7.570  10.484  11.742 -1.4444  0.0477 -0.1959
60503SOL    HW299120   7.635  10.561  11.854  0.5730 -0.3226 -1.0547
60504SOL     OW99121  13.950   9.827   8.704  0.7199 -0.3153 -0.2490
60504SOL    HW199122  13.906   9.896   8.753  2.2639  1.2288 -0.9105
60504SOL    HW299123  13.879   9.777   8.663 -0.4736  2.0560 -1.2847
60505SOL     OW99124  10.474   1.951   3.255 -0.3377  0.4316  0.2441
60505SOL    HW199125  10.407   1.904   3.303 -1.0240  0.4534 -0.6769
60505SOL    HW299126  10.551   1.893   3.258 -0.1485  0.7104  1.8827
60506SOL     OW99127   4.259   5.073  11.337  0.0156 -0.1864  0.0486
60506SOL    HW199128   4.330   5.117  11.291  0.2743  0.0084  0.6168
60506SOL    HW299129   4.303   5.011  11.396 -0.2569  0.2417  0.7200
60507SOL     OW99130   0.606   3.733   6.421  0.1153  0.2806  0.0468
60507SOL    HW199131   0.695   3.726   6.454  0.9236  0.0896 -2.0393
60507SOL    HW299132   0.560   3.659   6.460  0.6346  0.7737  1.7027
60508SOL     OW99133   9.838   5.986   4.430  0.2113  0.5903 -0.0571
60508SOL    HW199134   9.924   5.989   4.388  0.4546 -0.9575  0.2703
60508SOL    HW299135   9.837   5.903   4.477 -1.1411  0.9856  0.6752
60509SOL     OW99136   8.607   8.587  11.601  0.4218 -0.1785 -0.2715
60509SOL    HW199137   8.579   8.656  11.540 -0.6913 -2.0726 -2.0365
60509SOL    HW299138   8.532   8.576  11.659  1.0189  0.7996  0.7111
60510SOL     OW99139   8.132   6.370   2.073 -0.5482  0.2996 -0.2092
60510SOL    HW199140   8.126   6.444   2.133 -0.4558  1.4298 -1.5547
60510SOL    HW299141   8.226   6.355   2.063 -0.5638 -0.9630  1.1594
60511SOL     OW99142  11.323   2.085   7.163 -0.2949  0.7946 -0.4315
60511SOL    HW199143  11.358   2.057   7.079 -0.7645 -1.8345  0.1773
60511SOL    HW299144  11.380   2.043   7.228 -1.5101  0.6383  0.5651
60512SOL     OW99145   4.548   5.821   1.642  0.2435 -0.3742 -0.5928
60512SOL    HW199146   4.501   5.898   1.611 -0.2937 -0.1108  0.7846
60512SOL    HW299147   4.512   5.749   1.591 -1.3916 -0.1134  0.1429
60513SOL     OW99148   4.003  12.080   4.893  0.1883  0.2264 -0.0619
60513SOL    HW199149   3.986  12.157   4.947  1.1169  1.6892 -1.7383
60513SOL    HW299150   4.093  12.055   4.912 -0.6568 -1.7448  1.8985
60514SOL     OW99151   5.241  11.249  12.679 -0.8326  0.2510 -0.5434
60514SOL    HW199152   5.294  11.305  12.735 -0.6451 -0.3661 -0.0891
60514SOL    HW299153   5.303  11.188  12.640 -1.3950 -1.8494  1.6184
60515SOL     OW99154  11.036  11.189   7.260 -0.6771 -0.6918 -0.0201
60515SOL    HW199155  11.117  11.145   7.285 -0.9304 -1.2795 -0.2062
60515SOL    HW299156  10.988  11.199   7.342  0.2273  1.0332  0.3285
60516SOL     OW99157   2.258   7.483   1.536  0.7256 -0.1201 -0.1408
60516SOL    HW199158   2.296   7.525   1.613 -0.6368 -0.5603  0.8071
60516SOL    HW299159   2.328   7.484   1.471  2.2053 -0.5264  1.3880
60517SOL     OW99160   3.145   8.853   6.810 -0.5433 -0.2440 -0.0620
60517SOL    HW199161   3.209   8.905   6.859 -1.0597 -0.8045  1.2843
60517SOL    HW299162   3.132   8.775   6.864 -2.1126 -0.2936 -0.4613
60518SOL     OW99163   4.600   8.010   6.737 -0.1889  0.0286 -0.0113
60518SOL    HW199164   4.694   8.029   6.738  0.6111 -3.2139 -1.5675
60518SOL    HW299165   4.580   7.984   6.827  0.2691  1.1409  0.4291
60519SOL     OW99166   7.114   6.350   1.461 -0.0360  0.4159  0.4021
60519SOL    HW199167   7.177   6.422   1.453  0.6784 -0.3640 -1.3449
60519SOL    HW299168   7.147   6.282   1.403 -2.6953  0.1282 -0.9586
60520SOL     OW99169   9.893   4.998   7.055 -0.2672  0.0357 -0.1721
60520SOL    HW199170   9.814   4.945   7.062  0.4020 -1.4109 -2.4036
60520SOL    HW299171   9.962   4.943   7.093 -0.4935  2.0162  3.4808
60521SOL     OW99172   0.854  11.410   1.312 -0.1512 -0.0474  0.3509
60521SOL    HW199173   0.937  11.446   1.343  0.5531 -1.1658 -0.1550
60521SOL    HW299174   0.843  11.329   1.362  1.0196 -1.9129 -2.1260
60522SOL     OW99175   6.104   0.491  12.955  0.1281  0.5319 -0.0725
60522SOL    HW199176   6.087   0.413  12.902  1.2590  1.7579 -2.4382
60522SOL    HW299177   6.019   0.534  12.962 -0.2214 -0.1452 -0.0897
60523SOL     OW99178   8.186   3.303   3.694  0.3124  0.2864  0.2618
60523SOL    HW199179   8.097   3.294   3.728 -0.1978  0.0403 -1.0798
60523SOL    HW299180   8.211   3.214   3.670 -0.4149  0.7377 -2.5236
60524SOL     OW99181  10.531   0.834   6.145  0.0642  0.1231 -0.1657
60524SOL    HW199182  10.442   0.824   6.180 -0.3232 -0.0486 -1.1798
60524SOL    HW299183  10.558   0.745   6.122  0.9137  0.0293  1.0952
60525SOL     OW99184  11.799  11.655  12.388  0.3566  0.5309  0.4219
60525SOL    HW199185  11.798  11.750  12.380 -0.1750  0.3867 -1.9378
60525SOL    HW299186  11.709  11.628  12.369  0.5453 -0.4730  0.8578
60526SOL     OW99187  12.191   3.911   4.313 -0.1567  0.4987 -0.7886
60526SOL    HW199188  12.166   3.937   4.402  0.7846  1.7010 -0.8487
60526SOL    HW299189  12.111   3.923   4.262  0.0713  2.9480 -0.7141
60527SOL     OW99190   4.550   3.616   2.682  0.3588  0.0262 -0.0062
60527SOL    HW199191   4.493   3.692   2.696 -0.7303 -0.7790  0.0336
60527SOL    HW299192   4.637   3.654   2.673 -0.2446  1.3388 -0.6350
60528SOL     OW99193   4.241  12.190  13.249 -0.0122 -0.2370  0.7659
60528SOL    HW199194   4.245  12.230  13.335  0.1287 -0.0151  0.6582
60528SOL    HW299195   4.203  12.257  13.192 -0.1646 -0.4053  0.6693
60529SOL     OW99196  12.697  11.438  13.023 -0.3035  0.1661  0.0126
60529SOL    HW199197  12.727  11.513  13.075 -1.6346  0.5219  0.3177
60529SOL    HW299198  12.601  11.442  13.029 -0.4719 -0.3813 -1.6264
60530SOL     OW99199  13.427  12.956  12.091 -0.5111  0.4148 -0.0175
60530SOL    HW199200  13.446  12.862  12.096 -0.0594  0.4679 -0.6701
60530SOL    HW299201  13.502  12.993  12.045 -0.7888  1.0711  0.0496
60531SOL     OW99202  11.500   0.384   9.523  0.3545 -0.7410 -0.2233
60531SOL    HW199203  11.437   0.447   9.558  1.1518  0.4481 -0.8614
60531SOL    HW299204  11.451   0.302   9.517 -0.0227 -0.9051  3.0397
60532SOL     OW99205   4.903  11.142   0.853  0.3834 -0.2723  0.0288
60532SOL    HW199206   4.818  11.097   0.849  1.1340 -1.7342 -0.2200
60532SOL    HW299207   4.943  11.126   0.768  1.4862 -0.8254  0.6206
60533SOL     OW99208  11.341  11.310   5.797 -0.2398 -0.1121 -0.1736
60533SOL    HW199209  11.428  11.344   5.817 -0.6164 -0.2745  1.9886
60533SOL    HW299210  11.319  11.253   5.871 -0.8287 -2.8357 -2.2634
60534SOL     OW99211  11.270   2.041   1.024 -0.0704 -0.8153  0.3905
60534SOL    HW199212  11.272   1.955   0.983  0.8704 -1.1288  1.0355
60534SOL    HW299213  11.325   2.095   0.968 -0.1428 -0.8060  0.3288
60535SOL     OW99214  12.790  12.980   3.884 -0.4964 -0.4125 -0.1987
60535SOL    HW199215  12.849  13.039   3.837  1.8448  0.4087  3.3499
60535SOL    HW299216  12.829  12.893   3.873  0.0981 -0.2099  0.2250
60536SOL     OW99217  10.903   5.510   4.321 -0.1353  0.5402 -0.0006
60536SOL    HW199218  10.978   5.479   4.371 -1.1032  0.2681  1.3559
60536SOL    HW299219  10.833   5.448   4.341 -1.0167  1.3806 -0.3742
60537SOL     OW99220   4.745   6.040  12.199 -0.4767  0.2677  0.2248
60537SOL    HW199221   4.769   6.128  12.170  1.8930 -0.2012  0.5215
60537SOL    HW299222   4.818   6.014  12.256 -1.0726 -1.9203  0.0451
60538SOL     OW99223   8.308  11.371   9.752  0.1856 -0.7551 -1.0792
60538SOL    HW199224   8.319  11.388   9.846 -0.5803  0.4833 -1.1922
60538SOL    HW299225   8.234  11.311   9.747 -1.1273  0.7782 -0.9578
60539SOL     OW99226   9.803   3.312  12.395 -0.6214  0.0894  0.1096
60539SOL    HW199227   9.708   3.317  12.385 -0.5599  1.0241 -0.1040
60539SOL    HW299228   9.832   3.403  12.401  0.0761 -0.2114  2.0331
60540SOL     OW99229  12.992   8.479  10.874  0.0479 -0.0471 -0.1778
60540SOL    HW199230  12.999   8.575  10.881 -3.4240  0.2988  0.9587
60540SOL    HW299231  13.062   8.446  10.929  0.1913  1.9382  0.9550
60541SOL     OW99232   4.771  12.996   8.434  0.0738 -0.0214  0.2046
60541SOL    HW199233   4.761  13.031   8.345 -0.6700 -0.4512  0.1102
60541SOL    HW299234   4.702  12.930   8.441 -1.6176  1.7773  1.9830
60542SOL     OW99235   9.778   3.306   5.501  0.0438  0.0137 -0.4552
60542SOL    HW199236   9.779   3.290   5.595 -1.0378 -2.0670 -0.7260
60542SOL    HW299237   9.704   3.366   5.488  0.5882  0.8200  0.0518
60543SOL     OW99238   3.310  12.158  10.637  0.0757  0.4279  0.1041
60543SOL    HW199239   3.390  12.204  10.611  0.2119 -0.3007 -0.8346
60543SOL    HW299240   3.246  12.227  10.652  0.4185  0.9611 -0.8039
60544SOL     OW99241   2.255   5.778   9.193  0.1403  0.0745  0.1244
60544SOL    HW199242   2.252   5.684   9.177 -2.4686 -0.1295  1.2790
60544SOL    HW299243   2.269   5.817   9.107  1.6114 -1.3360 -0.3148
60545SOL     OW99244   3.625  10.355   5.206  0.7561 -0.1414 -0.0063
60545SOL    HW199245   3.580  10.342   5.289 -0.3996 -1.4516 -0.7854
60545SOL    HW299246   3.625  10.268   5.165 -0.5515  0.8098 -2.2324
60546SOL     OW99247  12.589  12.698   6.771  0.3234  0.1640 -0.6049
60546SOL    HW199248  12.660  12.637   6.791 -0.1846 -0.0038  0.7931
60546SOL    HW299249  12.552  12.665   6.689 -0.1662 -1.6596  0.2938
60547SOL     OW99250   1.698   2.527  10.397 -0.0047  0.0281 -0.1804
60547SOL    HW199251   1.777   2.477  10.413  1.0149  1.5355 -0.3081
60547SOL    HW299252   1.637   2.464  10.359  1.6048 -0.8589 -1.4216
60548SOL     OW99253  10.719   0.867   6.899  0.4434 -0.1786  0.2315
60548SOL    HW199254  10.688   0.793   6.953  2.8063  0.1408  2.2492
60548SOL    HW299255  10.776   0.826   6.834  1.9288 -0.2282  1.4857
60549SOL     OW99256  13.811  13.651   5.162  0.2271  0.5520  0.3759
60549SOL    HW199257  13.813  13.744   5.184 -1.9809  0.6550  0.3383
60549SOL    HW299258  13.784  13.649   5.071  0.8495 -0.1203  0.2021
60550SOL     OW99259   0.867   2.323   9.363  0.1709 -0.7218  0.3380
60550SOL    HW199260   0.934   2.254   9.370  0.6174 -0.5335 -1.4742
60550SOL    HW299261   0.801   2.286   9.305 -0.9089 -0.5728  1.4378
60551SOL     OW99262  11.844  13.417   3.377 -0.2597  0.0244 -0.6401
60551SOL    HW199263  11.895  13.341   3.347  2.4012  1.2248  0.5515
60551SOL    HW299264  11.883  13.491   3.331 -1.1543  0.9774  0.1112
60552SOL     OW99265   2.137  12.831   1.604  0.5209  0.5084  0.5161
60552SOL    HW199266   2.067  12.774   1.572  1.0623  1.3850 -2.6188
60552SOL    HW299267   2.093  12.913   1.626  0.3531  0.5617  0.0010
60553SOL     OW99268   8.807  11.813   9.429  0.0265  0.0777 -0.7291
60553SOL    HW199269   8.739  11.846   9.488 -0.4330 -0.1271 -1.1402
60553SOL    HW299270   8.786  11.720   9.418  0.0931  0.1213 -1.2360
60554SOL     OW99271   1.132   9.405   9.788  0.0437  0.2412  0.0715
60554SOL    HW199272   1.069   9.475   9.808  0.6993  1.0268 -0.5535
60554SOL    HW299273   1.185   9.398   9.867 -0.4716 -0.0459  0.3983
60555SOL     OW99274   3.194  11.566   0.519 -0.1288  0.1759  0.4406
60555SOL    HW199275   3.185  11.609   0.435  0.7497 -0.6934 -0.1294
60555SOL    HW299276   3.191  11.637   0.583 -0.7703  0.8485 -0.3150
60556SOL     OW99277   5.682  11.408  13.902 -0.0697  0.2446 -0.2213
60556SOL    HW199278   5.687  11.314  13.914 -2.6148  0.0783  0.0262
60556SOL    HW299279   5.629  11.420  13.823  0.7621  1.4846 -0.6280
60557SOL     OW99280   9.891   8.473   0.713  0.2581  0.7780 -0.1443
60557SOL    HW199281   9.870   8.384   0.685 -0.2249  1.0047 -0.5253
60557SOL    HW299282   9.837   8.488   0.790  0.6877  0.5787  0.1981
60558SOL     OW99283   2.512   1.514  13.994  0.1618 -0.5675  0.1000
60558SOL    HW199284   2.512   1.555  13.907 -1.9162  1.4036  0.9374
60558SOL    HW299285   2.431   1.462  13.996  0.0001 -0.2922  0.9814
60559SOL     OW99286   3.347  11.702   7.872 -0.0470  0.0579  0.2453
60559SOL    HW199287   3.373  11.646   7.945  0.1894  1.8418  1.5915
60559SOL    HW299288   3.422  11.701   7.812 -0.0027 -0.9303  0.2985
60560SOL     OW99289   9.157   9.804  12.375 -0.3546 -0.0760 -0.5090
60560SOL    HW199290   9.145   9.879  12.434 -0.4882 -0.6028  0.1477
60560SOL    HW299291   9.122   9.730  12.424 -0.0229 -0.6060 -1.0641
60561SOL     OW99292   1.273   9.988   5.370  0.0823  0.5364 -0.3897
60561SOL    HW199293   1.298  10.078   5.392  0.5333 -0.1634  2.2666
60561SOL    HW299294   1.183   9.980   5.402 -0.9999  0.7646 -3.0822
60562SOL     OW99295  10.254   9.836   5.488 -0.0068  0.3658 -0.0526
60562SOL    HW199296  10.215   9.855   5.403 -0.2234  1.0937  0.2026
60562SOL    HW299297  10.295   9.750   5.477 -0.8311  0.0321 -0.6174
60563SOL     OW99298   1.506   1.779   8.527  0.5058 -0.3345 -0.5300
60563SOL    HW199299   1.434   1.842   8.535  0.9051 -0.1651  3.3528
60563SOL    HW299300   1.465   1.701   8.488 -1.3362  0.3895 -0.1649
60564SOL     OW99301   9.496   0.524   1.308  0.0454 -0.1673 -0.3323
60564SOL    HW199302   9.472   0.439   1.345 -2.4836 -0.3919 -2.2212
60564SOL    HW299303   9.540   0.503   1.226 -0.4647  0.3074 -0.7368
60565SOL     OW99304  11.925   0.590  11.802 -0.3891 -0.1921 -0.0360
60565SOL    HW199305  11.899   0.605  11.711 -0.3748 -0.2506 -0.0500
60565SOL    HW299306  12.013   0.554  11.796 -0.4390 -0.3207 -0.0056
60566SOL     OW99307  11.731  12.184  13.710  0.3006  0.0154 -0.3856
60566SOL    HW199308  11.696  12.186  13.622  0.2664  2.2863 -0.3676
60566SOL    HW299309  11.671  12.127  13.759 -0.7046  0.1723 -1.4039
60567SOL     OW99310  11.863   8.292   4.531 -0.2515  0.3777 -0.1158
60567SOL    HW199311  11.931   8.226   4.542 -0.9524 -0.6618 -1.5812
60567SOL    HW299312  11.910   8.375   4.526  0.8237 -0.2083 -0.0741
60568SOL     OW99313   5.462   2.446   8.912  0.0231 -0.1212 -0.5501
60568SOL    HW199314   5.512   2.451   8.993 -1.9164  0.4808  0.6887
60568SOL    HW299315   5.462   2.353   8.890 -0.2506 -0.4421  0.7168
60569SOL     OW99316  11.090   0.305   6.642 -0.1445  0.2320  0.1021
60569SOL    HW199317  11.078   0.228   6.698 -1.3084  0.4042  0.1080
60569SOL    HW299318  11.132   0.270   6.563  1.3057 -0.0499  0.9512
60570SOL     OW99319   6.265   3.394   2.171  0.4221 -0.5718  0.1908
60570SOL    HW199320   6.260   3.336   2.246  1.3912 -0.5619  0.2644
60570SOL    HW299321   6.353   3.431   2.174 -1.1196  3.4959  2.0655
60571SOL     OW99322  13.993   5.878   8.869  0.3704 -0.5452 -0.1577
60571SOL    HW199323  13.925   5.907   8.808 -0.6277 -0.1496  1.1181
60571SOL    HW299324  13.992   5.782   8.861  0.4993 -0.4908 -1.0025
60572SOL     OW99325   2.336   1.362   2.953  0.2889  0.3858 -0.0627
60572SOL    HW199326   2.426   1.340   2.979  0.3299  0.9822  0.3213
60572SOL    HW299327   2.347   1.433   2.889  0.0363  2.3382  1.9224
60573SOL     OW99328   4.172   5.706   4.692 -0.1966  0.2132 -0.1879
60573SOL    HW199329   4.257   5.669   4.713  0.4267  1.5275 -0.2648
60573SOL    HW299330   4.109   5.649   4.736  0.6625 -1.1950 -0.7175
60574SOL     OW99331   8.946   4.516   6.207 -0.0852 -0.0328 -0.1315
60574SOL    HW199332   8.936   4.547   6.297 -1.8190 -1.0047  0.0372
60574SOL    HW299333   9.002   4.582   6.165  0.1254  0.8237  1.4474
60575SOL     OW99334   2.772   4.618   3.926  0.0093 -0.5107 -0.1779
60575SOL    HW199335   2.826   4.622   3.847 -0.9047 -3.1481 -1.0175
60575SOL    HW299336   2.705   4.686   3.912  1.6905  1.2400 -0.1439
60576SOL     OW99337  12.520   6.549   0.952 -0.1665 -0.2574  0.3117
60576SOL    HW199338  12.466   6.570   0.876 -0.1179 -1.1114  0.0340
60576SOL    HW299339  12.469   6.579   1.027 -0.8930 -0.7861  0.0391
60577SOL     OW99340  13.824   1.236   8.255  0.2568  0.0676 -0.2926
60577SOL    HW199341  13.872   1.258   8.335  1.8971 -0.7626 -0.9901
60577SOL    HW299342  13.732   1.242   8.279  0.6951  1.3388  1.2313
60578SOL     OW99343   9.308  11.684   2.759 -0.1893  0.2183  0.3835
60578SOL    HW199344   9.277  11.740   2.687 -0.1085  0.9174  0.8822
60578SOL    HW299345   9.228  11.643   2.793 -0.0705 -1.2328 -1.0056
60579SOL     OW99346   4.557   4.962  12.235  0.1546  0.7687  0.1041
60579SOL    HW199347   4.591   4.923  12.316  0.0523 -0.9479 -0.6427
60579SOL    HW299348   4.597   4.911  12.165 -1.3579  0.8682 -0.8804
60580SOL     OW99349   2.810   2.212   5.478  0.2200  0.3307 -0.1720
60580SOL    HW199350   2.889   2.196   5.426  1.1085  0.3002  1.1429
60580SOL    HW299351   2.788   2.304   5.461  1.9763  1.0792  1.2777
60581SOL     OW99352   7.751  12.971   7.804 -0.6343  0.7423 -0.0720
60581SOL    HW199353   7.675  13.010   7.848 -0.3388  1.3372 -0.0842
60581SOL    HW299354   7.758  12.884   7.841 -1.5658  0.5321 -0.3486
60582SOL     OW99355  10.499   4.334   3.359 -0.1740 -0.0092  0.2887
60582SOL    HW199356  10.443   4.276   3.410  0.0183 -1.6355 -1.2600
60582SOL    HW299357  10.437   4.389   3.310 -0.3871 -0.2378  0.2970
60583SOL     OW99358   5.337   8.840   3.800 -0.0539  0.7245  0.3974
60583SOL    HW199359   5.251   8.853   3.838  0.3330 -2.3000  2.6953
60583SOL    HW299360   5.329   8.760   3.747  0.9629  1.3514 -0.7755
60584SOL     OW99361  11.740  11.091  12.960  0.6289 -0.0545  0.1794
60584SOL    HW199362  11.782  11.007  12.938 -0.6847 -0.6482 -0.1340
60584SOL    HW299363  11.731  11.088  13.056  2.0768  0.4795  0.3662
60585SOL     OW99364   6.172   5.998   2.293 -0.0933  0.4424  0.3601
60585SOL    HW199365   6.158   6.045   2.375  0.7212  1.0488  0.1659
60585SOL    HW299366   6.127   6.051   2.227  1.7710  1.6322 -0.0422
60586SOL     OW99367   2.248   5.900   6.502 -0.6847 -0.0089  0.1492
60586SOL    HW199368   2.312   5.861   6.562  0.4456  0.9233 -0.4140
60586SOL    HW299369   2.206   5.969   6.553 -0.6063 -0.0303  0.2433
60587SOL     OW99370   7.881  13.321   7.642 -0.1631  0.4789  0.4345
60587SOL    HW199371   7.916  13.362   7.563  1.7514  0.4533  1.2074
60587SOL    HW299372   7.793  13.291   7.617  0.5709  0.0141 -1.8225
60588SOL     OW99373  12.359   1.773  13.082 -0.9362 -0.5489  0.5000
60588SOL    HW199374  12.313   1.856  13.072  1.3662  1.1588  2.8078
60588SOL    HW299375  12.319   1.732  13.159 -0.5262 -0.4035  0.7983
60589SOL     OW99376   4.035   6.220  13.603 -1.1405 -0.3140 -0.3282
60589SOL    HW199377   3.958   6.266  13.570 -1.4346 -1.2584 -0.9952
60589SOL    HW299378   4.109   6.263  13.560 -1.4947 -1.3072 -2.0096
60590SOL     OW99379   1.937   6.506   9.424 -0.3259  0.3774  0.0550
60590SOL    HW199380   1.908   6.509   9.333 -0.7891  1.0001  0.2192
60590SOL    HW299381   1.856   6.495   9.474 -0.0832  0.1655  0.4048
60591SOL     OW99382   5.742   4.438   2.474  0.4425  0.0124  0.0225
60591SOL    HW199383   5.677   4.385   2.519  0.7277  0.0483  0.4807
60591SOL    HW299384   5.704   4.455   2.388  0.8156 -1.8658 -0.5603
60592SOL     OW99385  10.165   6.056  12.671 -0.5679  0.7309  0.0949
60592SOL    HW199386  10.109   5.986  12.704  0.2664 -0.1362 -0.2847
60592SOL    HW299387  10.236   6.063  12.735 -1.1668  1.9362  0.6634
60593SOL     OW99388   3.449  13.167   2.075  0.1216  0.2222  0.3817
60593SOL    HW199389   3.512  13.101   2.103 -0.9312 -0.8406  0.3048
60593SOL    HW299390   3.436  13.221   2.153  0.2561 -0.2639  0.7481
60594SOL     OW99391   6.360   2.930   9.033  0.2498 -0.1649 -0.5214
60594SOL    HW199392   6.435   2.989   9.035  0.0531  0.0723 -0.0704
60594SOL    HW299393   6.295   2.971   9.090  0.7904 -1.7173  1.3033
60595SOL     OW99394   2.370   6.270   7.001  0.4438 -0.3579  0.1930
60595SOL    HW199395   2.367   6.191   7.055  0.0629  0.5195  1.5132
60595SOL    HW299396   2.456   6.267   6.959  0.2788 -1.6574 -0.0898
60596SOL     OW99397  12.332  10.126   7.049  0.0748  0.7433  0.0279
60596SOL    HW199398  12.382  10.045   7.037 -1.5939 -0.3865  0.3330
60596SOL    HW299399  12.355  10.179   6.973  2.6088  0.8140  0.7220
60597SOL     OW99400  13.212   5.275  13.659  0.5684 -0.4420  0.6379
60597SOL    HW199401  13.246   5.254  13.746 -2.6907  1.5901  2.6252
60597SOL    HW299402  13.125   5.234  13.657  1.0077 -1.4928 -2.2779
60598SOL     OW99403  13.290   5.369  10.034 -0.0670 -0.1095  0.0459
60598SOL    HW199404  13.206   5.324  10.027  0.1230 -0.3683 -0.7467
60598SOL    HW299405  13.307   5.374  10.128 -1.8457  1.6547  0.3350
60599SOL     OW99406   3.295  12.767   1.480 -0.0425  0.8533  0.0044
60599SOL    HW199407   3.296  12.762   1.384 -1.1756 -0.4051  0.0175
60599SOL    HW299408   3.202  12.762   1.503  0.2996 -0.8845  1.2127
60600SOL     OW99409  13.345  12.462   3.992 -0.2214 -0.4870  0.1501
60600SOL    HW199410  13.394  12.379   3.986  0.0383 -0.3117 -0.1969
60600SOL    HW299411  13.381  12.516   3.922  0.4294  0.3466  1.0900
60601SOL     OW99412   0.363   2.318   3.095  0.4192  0.0002  0.4843
60601SOL    HW199413   0.359   2.392   3.036 -1.4084 -0.7723 -0.4328
60601SOL    HW299414   0.432   2.341   3.158  0.3546  2.1444 -0.1601
60602SOL     OW99415  10.345   8.467  13.004 -0.3620 -0.4495 -0.1749
60602SOL    HW199416  10.330   8.553  12.964 -0.7635 -0.6868 -0.5463
60602SOL    HW299417  10.298   8.471  13.087  0.2213 -0.0589  0.1443
60603SOL     OW99418   6.307   0.121   6.557 -0.1052  0.0766 -0.2189
60603SOL    HW199419   6.328   0.208   6.591  0.1609  0.2267 -0.7484
60603SOL    HW299420   6.340   0.060   6.623  2.4187  0.2875 -1.1827
60604SOL     OW99421   9.308  12.948   4.202  0.7584  0.2620 -0.4945
60604SOL    HW199422   9.235  12.983   4.252 -0.7108 -1.5294 -1.2928
60604SOL    HW299423   9.328  13.016   4.137  0.3059  1.0701  0.1962
60605SOL     OW99424   0.458   2.391   5.677 -0.0479  0.9973  0.5484
60605SOL    HW199425   0.462   2.474   5.628 -0.8798  0.6954 -0.0588
60605SOL    HW299426   0.402   2.410   5.752 -1.4400  0.6309 -0.3622
60606SOL     OW99427   6.584   4.804   2.104 -0.8150  0.0641  0.3317
60606SOL    HW199428   6.559   4.712   2.093  1.3721 -0.5478 -0.0996
60606SOL    HW299429   6.528   4.852   2.043 -2.2209 -0.9280  0.7981
60607SOL     OW99430   3.064   9.655   4.807  0.0714  0.0210 -0.2799
60607SOL    HW199431   3.022   9.630   4.890  1.6051 -0.2840  0.4509
60607SOL    HW299432   3.121   9.728   4.830 -0.1762  0.5369 -1.2733
60608SOL     OW99433   6.596   7.962   1.794  0.1210  0.2141 -0.4758
60608SOL    HW199434   6.584   7.958   1.889  0.0380  0.5981 -0.4705
60608SOL    HW299435   6.552   7.883   1.761 -0.6289  0.5337 -0.2678
60609SOL     OW99436   9.516   2.310   5.748  0.3995 -0.3330  0.4782
60609SOL    HW199437   9.532   2.341   5.659  0.1833  0.6437  0.7679
60609SOL    HW299438   9.575   2.363   5.803 -0.4193  0.0072  1.0508
60610SOL     OW99439   2.803   8.556   4.322 -0.2743  0.8920  0.5568
60610SOL    HW199440   2.709   8.536   4.329  0.1461 -0.9860  1.7518
60610SOL    HW299441   2.818   8.624   4.387 -0.3329 -1.0040  2.6958
60611SOL     OW99442  13.892   6.281   7.633 -0.7996  0.5214 -0.1308
60611SOL    HW199443  13.850   6.246   7.555 -0.5163 -0.4875  0.1555
60611SOL    HW299444  13.820   6.308   7.690 -1.0410 -0.0804 -0.1465
60612SOL     OW99445   8.328   7.988   1.807 -0.3188 -0.5800 -0.2407
60612SOL    HW199446   8.394   8.041   1.852  0.7910 -2.2624  0.1941
60612SOL    HW299447   8.333   8.015   1.716  1.0233 -0.6941 -0.2181
60613SOL     OW99448   9.322  13.806  10.349  0.0573 -0.5688  0.3822
60613SOL    HW199449   9.282  13.882  10.391  0.6614  0.0943 -0.2054
60613SOL    HW299450   9.410  13.835  10.325  0.5334 -1.6663  0.7238
60614SOL     OW99451   3.087   7.748   1.779  0.4730 -0.4419  0.0573
60614SOL    HW199452   3.140   7.820   1.812  1.5777 -1.0599 -0.3002
60614SOL    HW299453   3.039   7.716   1.855  0.0812  0.5647  0.2464
60615SOL     OW99454   0.092  13.080   1.904  0.0547  0.2596  0.0812
60615SOL    HW199455   0.026  13.022   1.865 -3.5124  3.3708  0.9229
60615SOL    HW299456   0.135  13.121   1.829  0.0033 -0.7565 -0.5223
60616SOL     OW99457   5.360  12.370   2.418 -0.0004  0.1351  0.3432
60616SOL    HW199458   5.398  12.430   2.482  0.6185 -0.0296  0.1373
60616SOL    HW299459   5.348  12.288   2.467  1.9436 -0.4753 -0.1370
60617SOL     OW99460   9.796   2.575   3.631 -0.0325 -0.2293 -0.3296
60617SOL    HW199461   9.817   2.662   3.666  2.4911 -1.2356  0.8619
60617SOL    HW299462   9.776   2.591   3.539 -0.7316  1.7296  0.1071
60618SOL     OW99463  11.036  13.817   5.907 -0.2312 -0.5417  0.6022
60618SOL    HW199464  10.971  13.747   5.895 -0.0411 -0.7927  1.0191
60618SOL    HW299465  11.114  13.783   5.864 -0.2144 -0.4760  0.5816
60619SOL     OW99466   6.156   4.138   1.552 -0.4269  0.1304  0.2099
60619SOL    HW199467   6.114   4.170   1.472  0.5929  0.5257 -0.1812
60619SOL    HW299468   6.185   4.050   1.529 -2.3836 -0.7658  0.9813
60620SOL     OW99469   3.270  11.207   4.990 -0.0780 -0.0223  0.7742
60620SOL    HW199470   3.185  11.237   5.021 -1.2805 -1.0899 -1.2586
60620SOL    HW299471   3.270  11.113   5.006  1.0164  0.0465  1.3234
60621SOL     OW99472  12.784  11.906   9.774  0.2588 -0.5078  0.1105
60621SOL    HW199473  12.779  11.989   9.821 -0.4658 -0.8948  0.7399
60621SOL    HW299474  12.864  11.865   9.807  0.2225 -0.3869  0.3516
60622SOL     OW99475   0.866   2.561  10.462  0.2899 -0.3689 -0.5452
60622SOL    HW199476   0.906   2.627  10.405  1.6378 -2.3638 -2.0166
60622SOL    HW299477   0.784   2.537  10.418  0.7746 -1.0862 -1.0749
60623SOL     OW99478   7.031   8.776   1.166  0.1218 -0.1559  0.3971
60623SOL    HW199479   7.010   8.845   1.228  0.7187  0.8976 -0.5385
60623SOL    HW299480   6.953   8.769   1.111 -0.3186 -0.9335  1.0894
60624SOL     OW99481   4.151   2.153  14.019  0.1816 -0.0175 -0.2211
60624SOL    HW199482   4.075   2.209  14.001 -0.9709 -1.5472 -0.3072
60624SOL    HW299483   4.143   2.133  14.113  0.7900  0.2360 -0.1110
60625SOL     OW99484  11.000  13.052  10.863  0.1061  0.2845  0.3016
60625SOL    HW199485  11.061  12.999  10.915  2.1214  3.6642  1.6711
60625SOL    HW299486  11.048  13.073  10.783 -0.2320  0.9579  0.2721
60626SOL     OW99487  10.605   9.090   2.005 -0.0981 -0.5042  0.2492
60626SOL    HW199488  10.533   9.130   1.956 -0.1302  0.9422  1.3938
60626SOL    HW299489  10.645   9.163   2.052  1.8756 -1.3436 -0.0317
60627SOL     OW99490  10.549  12.316   4.473 -0.0785 -0.6233 -0.0527
60627SOL    HW199491  10.642  12.333   4.484 -0.0761 -1.1554  0.8836
60627SOL    HW299492  10.542  12.220   4.469 -0.8663 -0.8546  3.4459
60628SOL     OW99493   7.975   3.657   1.455  0.2755 -0.1760 -0.5832
60628SOL    HW199494   7.977   3.676   1.361  0.5076 -1.7219 -0.9068
60628SOL    HW299495   8.066   3.635   1.477  0.4653  1.2933  0.2741
60629SOL     OW99496  11.172  10.939   8.547  0.3364 -0.5484 -0.0320
60629SOL    HW199497  11.209  10.851   8.539  0.9995 -0.2549 -0.2339
60629SOL    HW299498  11.204  10.986   8.470 -1.1635 -0.5254 -0.6751
60630SOL     OW99499   7.364   3.074  12.073 -0.6012  0.3257 -0.3429
60630SOL    HW199500   7.335   3.148  12.019 -1.8601  0.4021  0.3949
60630SOL    HW299501   7.418   3.021  12.014 -0.4890  1.3183 -1.1613
60631SOL     OW99502   5.012   2.900   0.679 -0.3076 -0.1047  0.2425
60631SOL    HW199503   5.091   2.889   0.731 -1.1061 -0.3097  1.4582
60631SOL    HW299504   4.955   2.827   0.707  0.2901 -2.0025 -3.0008
60632SOL     OW99505   6.260  12.858   0.468  0.6133 -0.1099  0.5287
60632SOL    HW199506   6.329  12.918   0.496  0.1091 -0.0836  1.7751
60632SOL    HW299507   6.183  12.914   0.459  0.8356 -0.0462 -1.3513
60633SOL     OW99508   0.370   8.487   0.922 -0.1069 -1.1150 -0.2230
60633SOL    HW199509   0.282   8.450   0.928 -0.5403 -0.0058  0.6648
60633SOL    HW299510   0.365   8.550   0.851  0.0394 -1.2333 -0.3382
60634SOL     OW99511  13.643   1.709   5.999 -0.1966  0.4158  0.0273
60634SOL    HW199512  13.602   1.624   6.017 -0.1928  0.6922  1.4377
60634SOL    HW299513  13.685   1.698   5.913 -1.7515 -0.4117 -0.6568
60635SOL     OW99514   3.448   3.584  13.479  0.0544 -0.0902 -0.4310
60635SOL    HW199515   3.512   3.542  13.538 -0.0499 -1.3821 -1.1838
60635SOL    HW299516   3.364   3.546  13.504 -0.5681  2.0220  0.9329
60636SOL     OW99517   5.832   1.548  10.523 -0.3535 -0.0734 -0.4998
60636SOL    HW199518   5.912   1.506  10.492 -0.0733  0.3359 -0.3388
60636SOL    HW299519   5.790   1.482  10.579  0.7962  0.3410  0.9045
60637SOL     OW99520  10.152   5.102  12.134 -0.3904 -0.4241  0.1424
60637SOL    HW199521  10.183   5.012  12.122  2.7804  0.3884  1.3968
60637SOL    HW299522  10.101   5.098  12.215 -0.1263 -1.0515  0.2886
60638SOL     OW99523   7.728  10.824   1.179  0.0319  0.0904  0.7465
60638SOL    HW199524   7.641  10.796   1.208 -0.9194  0.4810 -1.5055
60638SOL    HW299525   7.715  10.914   1.150  1.8856  1.1953  2.9738
60639SOL     OW99526   8.072  10.368   8.036 -0.3540  0.0427  0.1466
60639SOL    HW199527   8.022  10.316   7.973  2.1308 -2.3499 -0.0375
60639SOL    HW299528   8.143  10.406   7.985  0.9366 -0.8535  1.1817
60640SOL     OW99529   0.346   1.459   6.368  0.4440  0.1689 -0.8954
60640SOL    HW199530   0.269   1.436   6.317  0.9037 -0.7264 -1.2142
60640SOL    HW299531   0.380   1.538   6.327 -1.8630  2.2930  0.9619
60641SOL     OW99532   8.498  13.555   2.180  0.0091  0.4909 -0.0381
60641SOL    HW199533   8.468  13.489   2.117  2.4545 -0.0341 -0.7387
60641SOL    HW299534   8.521  13.505   2.258  0.6029  0.6644 -0.0972
60642SOL     OW99535   5.045   7.949  13.288  0.3184  0.1889  0.4042
60642SOL    HW199536   4.955   7.939  13.320 -0.0251  1.2705 -0.1906
60642SOL    HW299537   5.066   8.041  13.302  1.3381 -0.0455  0.5191
60643SOL     OW99538   5.596   6.420   2.745 -0.4517  0.0166 -0.0000
60643SOL    HW199539   5.619   6.445   2.656 -1.7488  1.6359  0.0731
60643SOL    HW299540   5.602   6.324   2.745  1.2133  0.0831 -1.3223
60644SOL     OW99541   6.865   3.135  11.121  0.0584 -0.7070 -0.7480
60644SOL    HW199542   6.834   3.126  11.211  2.6117 -1.0423  0.1694
60644SOL    HW299543   6.827   3.061  11.075  0.1992 -1.6035  0.5284
60645SOL     OW99544   9.855   4.835   6.778 -0.0786  0.7407 -0.1180
60645SOL    HW199545   9.833   4.751   6.819 -1.0513  0.9681 -0.1652
60645SOL    HW299546   9.774   4.864   6.738 -0.3471  2.7813  1.7546
60646SOL     OW99547   0.480   1.687  13.766 -0.5124  0.2533 -0.3967
60646SOL    HW199548   0.394   1.728  13.751 -0.3174  0.5688 -0.6617
60646SOL    HW299549   0.512   1.667  13.678  0.0790  0.9501 -0.3448
60647SOL     OW99550  10.308   3.650   8.294  0.4031 -0.0486  0.1238
60647SOL    HW199551  10.356   3.697   8.362  0.7778  2.6385 -1.8250
60647SOL    HW299552  10.219   3.640   8.329  0.6960  0.8904  1.1668
60648SOL     OW99553  13.939  10.287  12.685 -0.0042 -0.5020  0.4157
60648SOL    HW199554  14.015  10.231  12.665  0.0674 -0.6947  1.2201
60648SOL    HW299555  13.947  10.359  12.622  0.7094 -0.6459  0.3221
60649SOL     OW99556   8.427  10.994  11.781 -0.5708  0.5442  0.0145
60649SOL    HW199557   8.416  10.967  11.690 -0.0128 -0.1264  0.1342
60649SOL    HW299558   8.428  10.912  11.830  1.1883  0.7485  0.3965
60650SOL     OW99559  10.823   8.443  14.074 -0.0040 -0.3246 -0.0648
60650SOL    HW199560  10.835   8.363  14.124  0.2981 -0.2899 -0.0836
60650SOL    HW299561  10.758   8.493  14.124  0.4315 -0.2074  0.3833
60651SOL     OW99562   2.246   3.372  12.622  0.5443 -0.3628  0.4294
60651SOL    HW199563   2.168   3.421  12.648  1.3940  0.3274  1.8303
60651SOL    HW299564   2.316   3.437  12.616  1.1014 -1.0099 -0.4483
60652SOL     OW99565   2.322   0.604  13.022  0.0011 -0.0389 -0.2679
60652SOL    HW199566   2.290   0.605  12.932 -1.0178 -0.1883  0.0845
60652SOL    HW299567   2.254   0.649  13.072  0.5455  0.0169  0.4332
60653SOL     OW99568   0.707   6.543  11.032  0.2441 -0.1303  0.1631
60653SOL    HW199569   0.650   6.537  10.955 -0.6229  0.0234  0.7844
60653SOL    HW299570   0.717   6.452  11.061  0.7065 -0.2040 -0.2310
60654SOL     OW99571   6.163   7.877  10.744 -0.8152 -0.2617 -0.2148
60654SOL    HW199572   6.218   7.944  10.784 -0.3131 -0.5296 -0.4519
60654SOL    HW299573   6.075   7.895  10.778 -0.5441  0.0226  0.3534
60655SOL     OW99574   6.731   4.139   2.326  0.6047 -0.1159 -0.5633
60655SOL    HW199575   6.808   4.088   2.351  0.3243  0.1062  0.8543
60655SOL    HW299576   6.685   4.154   2.408  0.4306  2.0272 -0.9839
60656SOL     OW99577  11.549   0.120  12.141 -0.5690 -0.1420  0.4453
60656SOL    HW199578  11.556   0.029  12.111 -0.6087  0.0590 -0.2045
60656SOL    HW299579  11.613   0.167  12.088 -1.3675  0.4047 -0.0581
60657SOL     OW99580  11.238   4.782  13.072  0.1331  0.0541 -0.6042
60657SOL    HW199581  11.160   4.769  13.017 -0.3411 -1.4706  0.3494
60657SOL    HW299582  11.310   4.751  13.017  0.2914  2.4566 -1.9025
60658SOL     OW99583   9.153   5.836   4.040  0.4341 -0.1979 -0.0095
60658SOL    HW199584   9.115   5.896   4.103 -1.3615 -1.5715  0.3021
60658SOL    HW299585   9.081   5.812   3.982  1.1050 -1.8787 -0.2321
60659SOL     OW99586   6.720   0.109   7.218  0.1100 -0.8796  0.3461
60659SOL    HW199587   6.737   0.196   7.181 -0.1001 -0.3823  1.3640
60659SOL    HW299588   6.747   0.048   7.150 -0.4631 -0.0068 -0.7097
60660SOL     OW99589   2.180   6.272   5.098 -0.1497 -0.1469 -0.5578
60660SOL    HW199590   2.210   6.350   5.145 -0.9772 -1.7172  2.9846
60660SOL    HW299591   2.258   6.217   5.091 -0.0256  0.0883 -1.0771
60661SOL     OW99592   8.435   9.206   6.918  0.4948 -0.1103 -0.2317
60661SOL    HW199593   8.365   9.143   6.900 -0.3551  0.8401 -0.3848
60661SOL    HW299594   8.439   9.260   6.839  0.4458  0.7079  0.3127
60662SOL     OW99595   1.187   7.169   7.734 -0.1092  0.2045 -0.2204
60662SOL    HW199596   1.094   7.157   7.718 -0.0159  0.3230 -0.8709
60662SOL    HW299597   1.216   7.085   7.771 -0.6359  0.4542  0.8192
60663SOL     OW99598   0.480   6.830   3.433 -0.1935  0.0088 -0.1825
60663SOL    HW199599   0.422   6.793   3.500  0.7830 -1.4195 -0.0945
60663SOL    HW299600   0.472   6.925   3.444 -0.3073 -0.1978  1.7312
60664SOL     OW99601   8.160  13.703   0.580 -0.2659 -0.7244 -0.0329
60664SOL    HW199602   8.185  13.784   0.535 -1.1521 -0.5107 -0.1503
60664SOL    HW299603   8.232  13.643   0.561 -0.1866 -0.3518 -0.9923
60665SOL     OW99604   3.038   4.687   8.352  0.1780  0.0497  0.3676
60665SOL    HW199605   3.039   4.752   8.422 -0.6945  0.8565 -0.3490
60665SOL    HW299606   3.024   4.737   8.272 -0.9572 -1.0401 -0.1529
60666SOL     OW99607   3.266   0.630   2.050 -0.4544 -0.3149 -0.2332
60666SOL    HW199608   3.335   0.588   1.998 -0.5083  0.5657 -1.0582
60666SOL    HW299609   3.209   0.558   2.077  0.5958 -1.0135  0.1717
60667SOL     OW99610   7.492  10.582   2.371  0.0573 -0.1001 -0.2335
60667SOL    HW199611   7.564  10.636   2.404 -0.3981  0.4767 -0.1715
60667SOL    HW299612   7.432  10.573   2.444  0.5872 -1.5087  0.0461
60668SOL     OW99613   7.551   5.760  12.850 -0.2024  0.1848 -0.2469
60668SOL    HW199614   7.578   5.778  12.760  1.2529 -1.1926 -0.1368
60668SOL    HW299615   7.456   5.755  12.846 -0.2635  1.5989 -1.4011
60669SOL     OW99616  12.189  10.634   2.562 -0.3405 -0.5651 -0.4894
60669SOL    HW199617  12.154  10.549   2.589 -0.0169 -0.9778 -1.3212
60669SOL    HW299618  12.254  10.655   2.629 -1.0461 -0.5447  0.2052
60670SOL     OW99619   7.361   0.755   1.952  0.6174 -0.5482 -0.2191
60670SOL    HW199620   7.412   0.794   1.881  0.2430 -0.3608 -0.3876
60670SOL    HW299621   7.278   0.731   1.911 -0.5781  1.7829  0.6620
60671SOL     OW99622   2.025   0.761   5.661 -0.2110  0.1259  0.0338
60671SOL    HW199623   2.029   0.718   5.747  0.0361  0.9047  0.4186
60671SOL    HW299624   1.979   0.843   5.677  0.8262  0.8034 -0.3434
60672SOL     OW99625   7.415   2.799   5.097 -0.7552  0.3991  0.6279
60672SOL    HW199626   7.438   2.708   5.111  0.5514 -0.0150 -3.0833
60672SOL    HW299627   7.322   2.805   5.122 -0.4683 -1.5157  2.3508
60673SOL     OW99628   9.653  10.602   0.235  0.3851 -0.5716  0.0616
60673SOL    HW199629   9.705  10.657   0.294 -0.6750 -1.9293  2.4184
60673SOL    HW299630   9.656  10.647   0.151 -0.1047  2.8916  1.7278
60674SOL     OW99631  11.192   6.282   3.359 -0.1418  0.1770 -0.7656
60674SOL    HW199632  11.239   6.324   3.287  1.4945 -0.3789 -0.0901
60674SOL    HW299633  11.243   6.203   3.378 -0.0390  0.7161  1.5076
60675SOL     OW99634   6.906  14.059   5.157 -0.1045 -0.3831  0.2448
60675SOL    HW199635   6.999  14.079   5.155 -0.5865  2.0360 -0.9066
60675SOL    HW299636   6.866  14.134   5.199 -1.6079 -1.1288  0.2106
60676SOL     OW99637  10.219   1.924  13.654 -0.0911  0.3333 -0.4118
60676SOL    HW199638  10.298   1.895  13.609 -0.6131  1.3467 -2.0293
60676SOL    HW299639  10.217   1.871  13.734  2.2125  0.3048 -0.3205
60677SOL     OW99640   1.229   3.459   0.706 -0.0417 -0.5360 -0.5359
60677SOL    HW199641   1.193   3.374   0.729 -0.2536 -0.1672  0.5483
60677SOL    HW299642   1.279   3.486   0.783 -0.2111  0.4529 -0.7535
60678SOL     OW99643  13.807   1.513   6.344 -0.1625 -0.4393 -0.1517
60678SOL    HW199644  13.815   1.571   6.419 -2.2790 -0.7969  0.4341
60678SOL    HW299645  13.871   1.545   6.281  2.0873 -0.4624  1.9654
60679SOL     OW99646   4.663   8.656  13.696  0.1996 -0.2076 -0.4125
60679SOL    HW199647   4.670   8.725  13.762  2.7630  1.2025 -1.9709
60679SOL    HW299648   4.628   8.700  13.619 -0.4177 -1.2360 -0.7340
60680SOL     OW99649   7.494   0.997  12.929 -0.7312 -0.2745 -0.0970
60680SOL    HW199650   7.421   1.015  12.870 -0.3616  0.7307 -0.2823
60680SOL    HW299651   7.481   1.059  13.002  0.1713  0.2528 -0.3606
60681SOL     OW99652  13.095   1.106   4.128 -0.0726 -0.5875  0.5905
60681SOL    HW199653  13.170   1.046   4.124 -0.4640 -1.0493  0.0885
60681SOL    HW299654  13.081   1.133   4.037 -1.8499 -2.1878  0.3151
60682SOL     OW99655  11.751  13.165  10.414 -0.1966  0.1415  0.6017
60682SOL    HW199656  11.666  13.164  10.458 -1.3239 -1.3784 -1.4394
60682SOL    HW299657  11.758  13.254  10.379 -1.7439 -0.1275 -0.5330
60683SOL     OW99658   8.336  13.329   5.901  0.5487 -0.2784  0.2761
60683SOL    HW199659   8.261  13.313   5.959 -0.5091  0.1909 -0.9178
60683SOL    HW299660   8.298  13.330   5.813  1.6922  1.5654 -0.2457
60684SOL     OW99661   2.012   3.846  13.707 -0.3089  0.3417  0.2312
60684SOL    HW199662   2.009   3.933  13.748  1.8275  0.6356 -0.1378
60684SOL    HW299663   2.077   3.854  13.638 -1.4701 -1.0654 -1.1081
60685SOL     OW99664   1.982   8.287  13.823 -0.0569  0.1860  0.0117
60685SOL    HW199665   1.987   8.193  13.811  0.4759  0.0741  1.0155
60685SOL    HW299666   1.912   8.300  13.888  0.4117  0.4132  0.4834
60686SOL     OW99667   6.802   3.487  10.369  0.4075  0.0375 -0.0091
60686SOL    HW199668   6.761   3.435  10.300 -1.5709 -1.0395  1.8699
60686SOL    HW299669   6.779   3.577  10.347 -1.8361 -0.4200  0.1579
60687SOL     OW99670  14.039   4.604   6.017 -0.1898  0.7910  0.1075
60687SOL    HW199671  14.132   4.605   5.997 -0.4659  0.2059 -1.3364
60687SOL    HW299672  14.034   4.622   6.111  1.1674  5.1327 -0.4278
60688SOL     OW99673   0.308  12.537   5.020  1.0094  0.2257  0.0670
60688SOL    HW199674   0.315  12.443   5.040  1.2056  0.5477  1.6353
60688SOL    HW299675   0.388  12.557   4.972  1.1916 -0.3282  0.1254
60689SOL     OW99676   9.809   1.493   2.412  0.5995  0.1949 -0.1194
60689SOL    HW199677   9.766   1.424   2.361 -1.0597  0.3956  0.9420
60689SOL    HW299678   9.875   1.447   2.464 -1.2158 -0.8067  1.3903
60690SOL     OW99679   9.999   3.027  10.849 -0.4945  0.2667  0.5607
60690SOL    HW199680  10.076   3.022  10.792  0.2469  1.9870  1.3517
60690SOL    HW299681   9.926   3.042  10.789 -0.1557 -0.7652 -0.1467
60691SOL     OW99682   3.063   3.598   9.259  0.6689  0.5186  0.0442
60691SOL    HW199683   3.019   3.620   9.342  0.3984  0.2849 -0.0345
60691SOL    HW299684   3.144   3.649   9.261  0.3543  1.0201  0.1523
60692SOL     OW99685  10.005   4.268   0.009  0.1864  0.2856  0.1908
60692SOL    HW199686  10.008   4.172   0.003  4.3201  0.0006  2.9179
60692SOL    HW299687  10.045   4.298  -0.073 -1.1583 -0.2353 -0.6935
60693SOL     OW99688   6.492   9.691   1.541 -0.6236  0.3210 -0.0491
60693SOL    HW199689   6.464   9.764   1.486 -0.6415  0.9864  0.8386
60693SOL    HW299690   6.509   9.729   1.627 -1.0400 -0.7837  0.5463
60694SOL     OW99691   0.157  10.482   9.779  0.1533 -0.0114  0.0657
60694SOL    HW199692   0.202  10.563   9.807  1.4667  0.0293 -1.9211
60694SOL    HW299693   0.183  10.417   9.845  0.0778  0.8852  1.0179
60695SOL     OW99694  11.962   9.386   1.386 -0.0278  0.0435  0.0325
60695SOL    HW199695  11.875   9.402   1.349 -1.6430 -2.3922  2.3917
60695SOL    HW299696  11.969   9.449   1.459 -0.6609 -0.9326  0.9711
60696SOL     OW99697   4.567   2.542   9.855 -0.0978 -0.0567 -0.6304
60696SOL    HW199698   4.654   2.562   9.889  0.0337  0.5916 -1.3097
60696SOL    HW299699   4.549   2.612   9.792 -0.4931 -1.0006 -1.5894
60697SOL     OW99700  12.414   0.041   8.553  0.3001  0.2005  0.3851
60697SOL    HW199701  12.405   0.126   8.510  1.4802 -0.0244 -0.3305
60697SOL    HW299702  12.340  -0.011   8.520  1.1929  0.0201 -1.4508
60698SOL     OW99703   3.848   4.354   5.850 -0.4736 -0.2550 -0.4963
60698SOL    HW199704   3.873   4.295   5.922  2.0399 -2.1986 -2.7594
60698SOL    HW299705   3.901   4.432   5.864  0.6446 -0.9638 -0.6478
60699SOL     OW99706   2.590   4.489   4.775  0.2638  0.1390  0.5478
60699SOL    HW199707   2.511   4.443   4.746 -0.7151  2.6324 -0.9969
60699SOL    HW299708   2.558   4.571   4.811  2.0935  0.6396  1.1100
60700SOL     OW99709  13.450   0.092   8.580  0.5202 -0.6163  0.3900
60700SOL    HW199710  13.430   0.110   8.488  0.6480  1.0527  0.6566
60700SOL    HW299711  13.485   0.175   8.614  0.7698 -1.2870  1.8688
60701SOL     OW99712   2.312   7.269  12.521 -0.1206 -0.2607 -0.0125
60701SOL    HW199713   2.237   7.219  12.553 -0.3606 -0.0392 -0.2286
60701SOL    HW299714   2.378   7.202  12.502 -0.3439 -0.4751 -0.0441
60702SOL     OW99715  13.504   3.970   2.693  0.2750  0.0735 -0.6354
60702SOL    HW199716  13.576   4.021   2.657 -0.7667  1.6491 -0.5804
60702SOL    HW299717  13.526   3.959   2.786  2.5683 -3.3048 -1.4179
60703SOL     OW99718   0.274  11.680   4.472  0.3944 -0.3581 -0.0295
60703SOL    HW199719   0.224  11.624   4.413 -2.1335 -0.2224  1.8196
60703SOL    HW299720   0.230  11.765   4.467  0.5229 -0.1768  1.5365
60704SOL     OW99721   0.005   9.567   4.161  0.4567  0.5949 -0.4851
60704SOL    HW199722   0.056   9.524   4.093 -0.7213 -0.3753 -0.7932
60704SOL    HW299723  -0.067   9.609   4.114  1.3705  2.6588 -0.1528
60705SOL     OW99724  10.411   7.893   0.271  0.6443  0.2929  0.0226
60705SOL    HW199725  10.468   7.967   0.252 -0.3840  1.3038  0.7090
60705SOL    HW299726  10.322   7.928   0.263  0.1175 -1.0303 -0.2529
60706SOL     OW99727   0.782  13.417   6.959 -0.5991 -0.0757  0.0528
60706SOL    HW199728   0.738  13.401   7.043 -1.2701  1.7032  0.0817
60706SOL    HW299729   0.782  13.332   6.916  0.8762 -1.3462  2.3343
60707SOL     OW99730   2.368   4.845  13.074  0.4719 -0.1536  0.6635
60707SOL    HW199731   2.282   4.831  13.033  1.3073 -1.1754 -0.8426
60707SOL    HW299732   2.382   4.765  13.125  0.4990  0.0442  0.9631
60708SOL     OW99733   8.231  10.975   1.567  0.4105  0.0130 -0.2712
60708SOL    HW199734   8.213  10.969   1.473 -1.0744 -0.2766  0.0042
60708SOL    HW299735   8.158  10.928   1.608  0.7058  0.6774  1.0543
60709SOL     OW99736  11.404   5.732   3.226 -0.2505 -1.4613  0.3291
60709SOL    HW199737  11.385   5.691   3.311 -0.4803  0.6922  1.3917
60709SOL    HW299738  11.391   5.826   3.242 -1.2234 -1.0627 -2.3416
60710SOL     OW99739   9.593   1.241  13.904 -0.2810 -0.3275 -0.7098
60710SOL    HW199740   9.540   1.274  13.832 -1.6949 -4.3030 -1.7675
60710SOL    HW299741   9.543   1.261  13.983 -0.2211  1.3913 -1.0775
60711SOL     OW99742   2.849   1.018   3.268  0.6145 -0.2676 -0.3644
60711SOL    HW199743   2.909   0.951   3.301  0.9723  0.1226 -0.2098
60711SOL    HW299744   2.829   1.071   3.345 -1.9975 -1.9063  0.1926
60712SOL     OW99745   0.542   2.906   9.976  0.3078 -0.0099 -0.2326
60712SOL    HW199746   0.565   2.926  10.067  0.7849 -0.3428 -0.2769
60712SOL    HW299747   0.447   2.904   9.975  0.2729  0.8352  0.0788
60713SOL     OW99748   2.002   1.166  10.584  0.2748 -0.1527  0.6557
60713SOL    HW199749   2.052   1.133  10.659  1.5229  2.9504  1.3659
60713SOL    HW299750   1.911   1.152  10.608  0.6845 -1.5479  1.5423
60714SOL     OW99751  11.528   2.549   5.633 -0.0182 -0.4112 -0.4474
60714SOL    HW199752  11.479   2.562   5.715  0.6664 -0.5703 -0.0024
60714SOL    HW299753  11.472   2.491   5.581 -1.0861  0.7697 -0.6610
60715SOL     OW99754   6.954  14.016  13.071 -0.2593 -0.0604  0.5247
60715SOL    HW199755   6.891  14.024  13.143  0.3285  2.0230  0.8647
60715SOL    HW299756   7.017  14.086  13.087  0.0699  0.2553 -1.8476
60716SOL     OW99757  11.373   2.934   2.372  0.0909  0.3469  0.6937
60716SOL    HW199758  11.357   2.842   2.395 -0.6504  0.3836  0.3387
60716SOL    HW299759  11.449   2.958   2.425  0.5673 -0.5973  0.4663
60717SOL     OW99760  11.185  13.090   1.734 -0.5028 -0.4404  0.3274
60717SOL    HW199761  11.122  13.073   1.664  0.7785  0.0983 -0.9963
60717SOL    HW299762  11.243  13.014   1.734  0.0968  0.0054  0.1101
60718SOL     OW99763   1.873   8.476   4.513 -0.3514 -0.4494  0.9473
60718SOL    HW199764   1.825   8.526   4.447 -1.0279 -1.4757  0.6329
60718SOL    HW299765   1.845   8.385   4.499  1.0083 -0.9503  1.3569
60719SOL     OW99766   9.932   4.368  11.708  0.1410  0.7785  0.6290
60719SOL    HW199767  10.008   4.346  11.763 -0.3341  1.1385  1.4493
60719SOL    HW299768   9.858   4.365  11.768 -0.5400  0.1498 -0.2320
60720SOL     OW99769   2.227   4.588   9.369  0.0949  0.2427  0.1495
60720SOL    HW199770   2.309   4.547   9.341  0.0767  1.0013 -1.1151
60720SOL    HW299771   2.196   4.532   9.440  1.6697 -0.0906  0.6259
60721SOL     OW99772   8.253   8.776  12.432  0.0922 -0.5066  0.6279
60721SOL    HW199773   8.325   8.837  12.415 -1.1874  1.1840  1.0071
60721SOL    HW299774   8.280   8.694  12.391  1.3424  0.6575 -0.9798
60722SOL     OW99775   8.876  12.007  10.439 -0.1700  0.6405  0.1481
60722SOL    HW199776   8.875  11.956  10.520  0.2063  1.4715  0.6949
60722SOL    HW299777   8.883  11.942  10.369 -0.1160 -0.0708  0.8041
60723SOL     OW99778   3.617   2.065   6.807  0.3641 -0.4955 -0.3545
60723SOL    HW199779   3.675   2.138   6.829 -0.8297 -0.0996  1.6963
60723SOL    HW299780   3.592   2.081   6.716  0.4674  1.4387 -0.0828
60724SOL     OW99781   2.927   5.228   9.945 -0.1501  0.0990 -0.6140
60724SOL    HW199782   2.966   5.161   9.889  2.3981  1.1865 -0.2948
60724SOL    HW299783   2.973   5.219  10.028 -3.4639 -1.1206  1.2821
60725SOL     OW99784   4.432   2.606   4.746 -0.2290  0.0118  0.2538
60725SOL    HW199785   4.519   2.600   4.707  0.3462 -4.3191  1.5890
60725SOL    HW299786   4.447   2.637   4.835 -0.5816  2.4114 -0.4538
60726SOL     OW99787   4.983   0.029   2.483 -0.0109 -0.0584 -0.0762
60726SOL    HW199788   4.904   0.076   2.510  0.6240 -0.0384  1.9469
60726SOL    HW299789   5.047   0.099   2.468  0.7812 -0.1473  2.4211
60727SOL     OW99790  11.517   0.150  10.981 -0.4449 -0.4721 -0.4735
60727SOL    HW199791  11.560   0.075  10.940 -1.1844 -1.7652  1.0058
60727SOL    HW299792  11.429   0.151  10.944 -0.6203 -0.6951 -0.0672
60728SOL     OW99793  14.057   6.510   6.961 -0.5097 -0.0186  0.1142
60728SOL    HW199794  14.075   6.524   7.054 -1.6432 -0.9704  0.4990
60728SOL    HW299795  14.068   6.416   6.949 -1.8380 -0.1239 -0.3741
60729SOL     OW99796   0.881   5.827   9.335  0.3535 -0.2897 -0.4343
60729SOL    HW199797   0.901   5.893   9.402  1.3359 -1.6292  0.6456
60729SOL    HW299798   0.790   5.805   9.350 -0.4070  1.7175 -1.6598
60730SOL     OW99799   5.561   3.263   2.314 -0.4958 -0.2074 -0.0655
60730SOL    HW199800   5.647   3.233   2.286 -0.9816 -0.8052 -0.9942
60730SOL    HW299801   5.540   3.210   2.391  1.0886  1.8202  1.8943
60731SOL     OW99802   1.676   3.565  10.577  0.0559 -0.0701  0.6642
60731SOL    HW199803   1.667   3.567  10.482  1.6947 -1.0656  0.4651
60731SOL    HW299804   1.628   3.486  10.604  0.4762 -0.3727  0.5405
60732SOL     OW99805   7.359   4.591  13.573  0.1744  0.0267  0.1216
60732SOL    HW199806   7.360   4.588  13.478  0.8697 -2.5564  0.1403
60732SOL    HW299807   7.431   4.649  13.596  0.1020  0.5459 -0.8982
60733SOL     OW99808   8.488  12.477   9.526  0.5561 -0.0588  0.7936
60733SOL    HW199809   8.502  12.383   9.539 -0.1966 -0.2870  0.0650
60733SOL    HW299810   8.553  12.519   9.582  1.7809 -1.0198  0.1358
60734SOL     OW99811   8.449   2.457   3.010 -0.0232 -0.2400  0.0633
60734SOL    HW199812   8.391   2.476   2.937  1.8997 -0.2705 -1.5707
60734SOL    HW299813   8.463   2.362   3.006  0.7852 -0.1242 -0.1099
60735SOL     OW99814   3.671  11.022   0.330 -0.4821  0.0350  0.0972
60735SOL    HW199815   3.703  10.999   0.243 -1.5786 -0.9633 -0.0636
60735SOL    HW299816   3.720  10.965   0.390  0.1484  0.6006  0.1267
60736SOL     OW99817   5.273   9.101   1.526 -0.3053  0.4824  0.8468
60736SOL    HW199818   5.250   9.076   1.436  2.3843 -0.1727  0.2540
60736SOL    HW299819   5.214   9.049   1.580 -1.9514  0.8414 -0.4928
60737SOL     OW99820   2.806   7.007  12.036 -0.4767 -0.0673  0.5262
60737SOL    HW199821   2.786   7.071  11.967 -0.3132 -0.0874  0.4607
60737SOL    HW299822   2.895   7.027  12.063 -1.1720  1.1480  2.0554
60738SOL     OW99823  12.004   0.917   1.484 -0.4398 -0.0978  0.1883
60738SOL    HW199824  12.040   0.930   1.396  0.2379  0.2636  0.5135
60738SOL    HW299825  11.909   0.922   1.472 -0.3393  0.4141 -0.4477
60739SOL     OW99826   5.397  12.299   5.337  0.7494  0.2193 -0.7678
60739SOL    HW199827   5.431  12.304   5.427 -1.0480  1.2428 -0.0814
60739SOL    HW299828   5.408  12.208   5.312  2.2923  0.1461  0.0584
60740SOL     OW99829   6.897  11.038   3.525 -0.1445 -0.0869  0.2997
60740SOL    HW199830   6.929  11.126   3.547  0.5578 -0.3108  0.1954
60740SOL    HW299831   6.869  11.045   3.434  0.2074 -0.0457  0.1917
60741SOL     OW99832   2.829   4.723   0.684  0.0467 -0.3654 -0.1841
60741SOL    HW199833   2.856   4.814   0.687 -0.5317 -0.1184 -1.7622
60741SOL    HW299834   2.819   4.703   0.591 -2.3952 -1.2669  0.1892
60742SOL     OW99835  10.767  11.171  10.792 -0.0575 -0.3615 -0.7407
60742SOL    HW199836  10.809  11.085  10.789 -0.6999 -0.6767 -0.8819
60742SOL    HW299837  10.736  11.185  10.702 -0.1522 -0.0827 -0.6645
60743SOL     OW99838   2.531   1.287   9.967 -0.4029  0.6078 -0.5749
60743SOL    HW199839   2.461   1.307  10.030 -0.9447 -0.2925 -0.8778
60743SOL    HW299840   2.515   1.196   9.941  1.3942  0.0794  0.0068
60744SOL     OW99841  14.082   1.911   9.246 -0.0014  0.2374 -0.5406
60744SOL    HW199842  14.123   1.924   9.332 -1.4363  0.3535  0.1662
60744SOL    HW299843  14.109   1.988   9.195 -0.2141  0.8589  0.2576
60745SOL     OW99844   4.627  13.438   8.556  0.3256 -0.4937 -0.1979
60745SOL    HW199845   4.612  13.525   8.520 -0.6850 -0.9868 -1.0595
60745SOL    HW299846   4.683  13.452   8.631  0.2073  0.8968 -0.3404
60746SOL     OW99847   3.838   4.883   0.702 -0.3875  0.0272 -0.1256
60746SOL    HW199848   3.789   4.829   0.764  0.3447  0.0240  0.4644
60746SOL    HW299849   3.777   4.898   0.630 -0.2928 -2.4487 -0.7968
60747SOL     OW99850  10.378   9.250   3.815  0.1164  0.0486  0.7040
60747SOL    HW199851  10.433   9.201   3.876  1.7593 -0.4988 -1.1016
60747SOL    HW299852  10.377   9.196   3.735 -1.3948  1.0457  0.0076
60748SOL     OW99853  12.913   8.940   4.107  0.3668  0.1773 -0.6242
60748SOL    HW199854  12.956   8.906   4.028  3.0123 -1.5988  1.4114
60748SOL    HW299855  12.885   9.028   4.082  3.3359  0.6608 -2.8748
60749SOL     OW99856  11.618   1.202  10.502  0.5222  0.5800  0.2437
60749SOL    HW199857  11.616   1.196  10.597 -0.1791 -1.3686  0.1436
60749SOL    HW299858  11.526   1.204  10.476  0.6898  0.0898 -0.4230
60750SOL     OW99859   4.526   6.177   3.770  0.2329 -0.1956 -0.4304
60750SOL    HW199860   4.525   6.132   3.686  0.4791  1.0951 -1.1385
60750SOL    HW299861   4.491   6.264   3.752 -0.3982 -0.1344  0.9445
60751SOL     OW99862   4.692   6.469  13.635  0.0864  0.9432 -0.1372
60751SOL    HW199863   4.615   6.480  13.578  0.0206  0.8196 -0.0726
60751SOL    HW299864   4.702   6.554  13.677  0.2827  1.1128 -0.5180
60752SOL     OW99865  10.484   2.261  11.314 -0.3711 -0.1310 -0.3536
60752SOL    HW199866  10.478   2.169  11.340 -0.9238 -0.0851 -0.3099
60752SOL    HW299867  10.411   2.303  11.359 -0.0887  0.3403 -0.3315
60753SOL     OW99868  11.929   5.619   8.320  0.1038 -0.4287  0.4131
60753SOL    HW199869  11.927   5.524   8.318  0.2518 -0.4333  0.4354
60753SOL    HW299870  11.986   5.644   8.247 -2.0352 -0.2620 -1.2937
60754SOL     OW99871   8.806   0.481   1.127  0.0231 -0.2346  0.2388
60754SOL    HW199872   8.860   0.403   1.115  0.2177  0.1384 -1.5190
60754SOL    HW299873   8.837   0.543   1.061  1.1304  2.1034  2.7434
60755SOL     OW99874   8.650   4.153  11.136  0.5112  0.1839  0.2119
60755SOL    HW199875   8.706   4.173  11.211  0.0186 -0.0663  0.6525
60755SOL    HW299876   8.618   4.239  11.107  1.8837  0.4424 -0.6730
60756SOL     OW99877   1.569   1.823   3.408 -0.1581  0.8879 -0.4557
60756SOL    HW199878   1.610   1.901   3.371  2.0249 -0.7668 -1.7520
60756SOL    HW299879   1.526   1.781   3.333 -1.3683  0.8422  0.2400
60757SOL     OW99880  10.102  10.116  13.392  0.5585  0.0039 -0.0916
60757SOL    HW199881  10.191  10.085  13.382  0.9238  0.8293  0.5231
60757SOL    HW299882  10.098  10.195  13.337 -0.1050 -0.6154 -0.9582
60758SOL     OW99883  12.496   3.384  12.095  0.3060  0.0397 -0.0501
60758SOL    HW199884  12.589   3.400  12.108  0.0512  1.5863  0.0488
60758SOL    HW299885  12.452   3.453  12.145 -0.8789 -0.2583 -0.6391
60759SOL     OW99886  10.041   9.955   4.215  0.0345 -0.4265 -0.7698
60759SOL    HW199887   9.991  10.017   4.163 -1.0873 -0.0140  0.7274
60759SOL    HW299888   9.978   9.885   4.234  1.0145 -1.5896 -1.6489
60760SOL     OW99889   8.570   9.194  13.867  0.1665 -0.1059 -0.2061
60760SOL    HW199890   8.598   9.190  13.775 -3.0030  1.0847 -1.3642
60760SOL    HW299891   8.523   9.112  13.881 -0.7763  0.4387 -0.1716
60761SOL     OW99892   9.612   3.705   1.875  0.4403 -0.2873 -0.7433
60761SOL    HW199893   9.688   3.693   1.818  2.0240 -0.0704  1.2263
60761SOL    HW299894   9.649   3.726   1.961 -1.7726 -1.9282  0.7352
60762SOL     OW99895   7.026  12.834   3.051  0.3791 -0.1957  0.1893
60762SOL    HW199896   7.092  12.901   3.036  0.3043  0.1084  1.1690
60762SOL    HW299897   7.019  12.788   2.968  2.4862 -0.8284  0.3215
60763SOL     OW99898  12.943  11.329  10.293  0.3817  0.2256 -0.3861
60763SOL    HW199899  12.923  11.292  10.207  1.1973 -1.5643  0.1583
60763SOL    HW299900  12.857  11.352  10.329 -0.0053  0.5390 -1.4668
60764SOL     OW99901   4.670  13.825   5.957  0.1130 -0.2279  0.0640
60764SOL    HW199902   4.600  13.825   5.892 -1.3218 -0.3996  1.5542
60764SOL    HW299903   4.721  13.904   5.937  1.6308 -1.8637 -3.1712
60765SOL     OW99904  11.430   1.966   4.452 -0.5313 -0.3260 -0.4013
60765SOL    HW199905  11.424   1.871   4.452 -2.3940 -0.2501  0.1556
60765SOL    HW299906  11.519   1.985   4.483  0.3597 -1.8595 -1.9113
60766SOL     OW99907   1.814  12.543   1.256  0.8648  0.0723  0.5180
60766SOL    HW199908   1.883  12.584   1.309 -0.0304  0.0016  1.7916
60766SOL    HW299909   1.746  12.520   1.320  0.2651 -1.1203 -0.5204
60767SOL     OW99910   2.895   5.311   7.134  0.0783 -0.1289  0.0784
60767SOL    HW199911   2.857   5.239   7.185  0.7454 -0.5621 -0.0113
60767SOL    HW299912   2.834   5.384   7.145 -0.3827 -0.5750  0.5392
60768SOL     OW99913  11.828   0.996  10.180 -0.1968  0.0618 -0.2671
60768SOL    HW199914  11.770   0.920  10.182 -1.1910  0.8110  0.3378
60768SOL    HW299915  11.853   1.010  10.271 -0.8064  1.0210 -0.2285
60769SOL     OW99916   6.936  11.064  10.401 -0.3779 -0.3462 -0.6221
60769SOL    HW199917   6.842  11.049  10.415 -0.4827  0.4670 -0.4028
60769SOL    HW299918   6.951  11.038  10.310 -0.4095 -2.3347 -0.1139
60770SOL     OW99919   2.844  13.022   5.331  0.0105 -0.7786 -0.3073
60770SOL    HW199920   2.842  13.102   5.279 -1.6753 -1.1962 -0.9610
60770SOL    HW299921   2.935  12.994   5.329  0.3844  0.4154 -1.1550
60771SOL     OW99922   6.558   6.819  13.333 -0.4773  0.2741  0.4016
60771SOL    HW199923   6.494   6.795  13.401  0.2290 -1.3126  0.5494
60771SOL    HW299924   6.643   6.806  13.375 -0.0071 -1.6444 -1.0416
60772SOL     OW99925   4.480  12.139   6.108  0.1913  0.1529 -0.3275
60772SOL    HW199926   4.420  12.153   6.035  0.3419  2.1779 -0.0951
60772SOL    HW299927   4.438  12.069   6.160  0.0146 -1.2187 -2.2065
60773SOL     OW99928   0.217  10.884   0.923 -0.1931 -0.3463  0.5587
60773SOL    HW199929   0.241  10.975   0.940 -0.2278 -0.6064  2.2057
60773SOL    HW299930   0.289  10.849   0.870  0.7636  0.1522  1.4946
60774SOL     OW99931   5.568   4.280   3.812  0.4743  0.3585 -0.4047
60774SOL    HW199932   5.593   4.209   3.753 -0.9468 -0.8747  0.4181
60774SOL    HW299933   5.473   4.276   3.817  0.4509  1.4970  0.6895
60775SOL     OW99934  11.256   3.137   0.169  0.4246  0.1446 -0.4231
60775SOL    HW199935  11.276   3.155   0.077 -0.4388 -1.5567 -0.9782
60775SOL    HW299936  11.234   3.044   0.171 -1.5819  0.5859  1.1444
60776SOL     OW99937   6.480   4.495   0.085  0.0542 -0.3056 -0.3194
60776SOL    HW199938   6.420   4.498   0.010  0.7298 -1.6394 -0.9517
60776SOL    HW299939   6.530   4.414   0.073  2.2089  0.9014  0.0286
60777SOL     OW99940   1.843  12.913   9.948 -0.2231  0.3268 -0.3382
60777SOL    HW199941   1.868  12.910  10.040  0.4052 -2.5983 -0.4909
60777SOL    HW299942   1.747  12.920   9.950 -0.2737 -0.3856  0.5778
60778SOL     OW99943  12.149   4.360  12.334  0.3707 -0.3897 -0.0567
60778SOL    HW199944  12.132   4.380  12.241  0.4733 -0.8317 -0.1717
60778SOL    HW299945  12.241   4.337  12.337  0.4885  0.1190  0.2456
60779SOL     OW99946   2.130   5.247   0.701  0.2326  0.1542  0.1876
60779SOL    HW199947   2.081   5.239   0.783 -1.1979  0.1773 -0.6322
60779SOL    HW299948   2.116   5.337   0.673  0.7421  0.1556 -0.0782
60780SOL     OW99949   7.923  12.740  13.743 -0.1778 -0.3838 -0.3492
60780SOL    HW199950   8.011  12.776  13.732 -0.7595  0.5402 -2.4665
60780SOL    HW299951   7.865  12.813  13.724 -1.4230 -1.1509  0.3723
60781SOL     OW99952   9.049   6.237  13.650  0.1013 -0.2450  0.0457
60781SOL    HW199953   9.075   6.178  13.721 -0.3660 -0.6858 -0.1404
60781SOL    HW299954   8.954   6.243  13.657  0.0947  0.0695 -0.2673
60782SOL     OW99955  11.574  10.745   4.871  0.5680 -0.5431 -0.2428
60782SOL    HW199956  11.653  10.797   4.881  0.2332 -0.1897  0.6287
60782SOL    HW299957  11.523  10.791   4.805  0.4668 -0.0005  0.2112
60783SOL     OW99958  10.300  11.443   0.200 -0.3330  0.0903  0.4594
60783SOL    HW199959  10.298  11.355   0.162 -0.0267 -0.4626  1.6745
60783SOL    HW299960  10.362  11.491   0.145  0.7573 -0.9368  0.7488
60784SOL     OW99961   0.685  13.732   0.384  0.0546  0.7901  0.5694
60784SOL    HW199962   0.696  13.664   0.317  2.4055 -0.0193  1.6659
60784SOL    HW299963   0.591  13.737   0.398 -0.2132 -2.7273  0.8764
60785SOL     OW99964   0.228   8.147   4.285  0.7105  0.3767  0.9234
60785SOL    HW199965   0.231   8.061   4.244 -2.5228 -0.1673  1.5560
60785SOL    HW299966   0.315   8.184   4.270  1.3639 -1.8905 -1.7096
60786SOL     OW99967  10.631  13.737   0.088 -0.4131  0.0352 -0.4306
60786SOL    HW199968  10.627  13.779   0.002 -1.7096  1.2357  0.1665
60786SOL    HW299969  10.574  13.660   0.079 -2.3343  1.3449 -0.0876
60787SOL     OW99970   0.436   7.489  12.154 -0.2774  0.0116  0.0527
60787SOL    HW199971   0.486   7.415  12.189 -0.3936 -0.1052 -0.0254
60787SOL    HW299972   0.499   7.537  12.099 -0.1760  0.0255  0.1817
60788SOL     OW99973  10.517   0.210   8.176  0.3249  0.5646  0.2289
60788SOL    HW199974  10.472   0.206   8.260 -0.7412  2.0612 -0.2263
60788SOL    HW299975  10.575   0.134   8.176  0.3710  0.5425  2.3164
60789SOL     OW99976  12.542  12.171   9.654 -0.5636 -0.4027 -0.6693
60789SOL    HW199977  12.634  12.183   9.629 -0.7692  0.2840 -1.1242
60789SOL    HW299978  12.511  12.099   9.598 -0.3335 -0.5597 -0.5950
60790SOL     OW99979   9.001  12.220   1.269 -0.1090  0.1808  0.8419
60790SOL    HW199980   8.925  12.161   1.271  0.0447 -0.0140  0.9271
60790SOL    HW299981   9.071  12.171   1.312 -0.2634  0.8222  1.8756
60791SOL     OW99982  11.370   1.251   8.249 -0.3111  0.4179 -0.4867
60791SOL    HW199983  11.452   1.247   8.298  0.1760 -0.3381 -1.3210
60791SOL    HW299984  11.385   1.196   8.172 -1.8206 -0.2518 -0.3482
60792SOL     OW99985  11.338   2.928   8.015 -0.2722 -0.3574 -0.3753
60792SOL    HW199986  11.353   3.017   8.047  0.4190 -0.2001 -1.0940
60792SOL    HW299987  11.284   2.940   7.937 -1.1342 -0.6652  0.1585
60793SOL     OW99988  12.295   6.330   5.258 -0.1848 -0.5170  0.4717
60793SOL    HW199989  12.248   6.404   5.299  0.3751  0.3210 -0.3541
60793SOL    HW299990  12.234   6.257   5.264 -1.1016  0.2293  0.5543
60794SOL     OW99991   2.766   3.100  12.971 -0.2483 -0.1685 -0.1307
60794SOL    HW199992   2.752   3.179  12.918 -2.3231  0.1583  0.8000
60794SOL    HW299993   2.780   3.134  13.060  0.5912 -0.8080 -0.0095
60795SOL     OW99994   1.022   3.543   4.563  0.1375 -0.4026 -0.4591
60795SOL    HW199995   0.969   3.578   4.491 -1.7868 -2.6828 -0.2982
60795SOL    HW299996   1.091   3.493   4.519  0.0184 -0.3319 -0.7310
60796SOL     OW99997   3.713   4.743   9.800 -0.6061 -0.3172 -0.0336
60796SOL    HW199998   3.735   4.692   9.878 -0.4740 -2.0127 -1.1510
60796SOL    HW299999   3.734   4.686   9.726 -0.2765  1.4288 -1.3545
60797SOL     OW    0   3.558   1.681  13.668 -0.0521  0.0185 -0.2072
60797SOL    HW1    1   3.641   1.670  13.715  0.9516  0.7618 -1.7313
60797SOL    HW2    2   3.498   1.715  13.734  1.2184  0.7082  0.6525
60798SOL     OW    3   2.546   8.652  14.045  0.0470 -0.0422  0.1417
60798SOL    HW1    4   2.579   8.584  14.104 -0.2800  0.9288  1.4954
60798SOL    HW2    5   2.600   8.643  13.966 -2.6575 -4.6220 -1.6200
60799SOL     OW    6   7.806   4.122   0.194  0.8247 -0.1290  0.2929
60799SOL    HW1    7   7.795   4.209   0.155  0.2493 -0.5894 -0.5892
60799SOL    HW2    8   7.813   4.140   0.288 -2.1486  0.7097  0.4750
60800SOL     OW    9  13.754   9.826   7.292 -0.0474 -0.1608  0.5212
60800SOL    HW1   10  13.770   9.833   7.198  1.2493  0.5126  0.7634
60800SOL    HW2   11  13.746   9.732   7.309  0.1506 -0.3081 -0.1909
60801SOL     OW   12   1.721   6.083   6.118 -0.3295 -0.2743  0.0482
60801SOL    HW1   13   1.763   5.997   6.125 -0.8216 -0.4414  1.3165
60801SOL    HW2   14   1.709   6.111   6.209  0.5679  1.5345 -0.3475
60802SOL     OW   15   5.696   2.624   4.789  0.1792 -0.0626  0.4254
60802SOL    HW1   16   5.625   2.574   4.829  0.8063 -1.2618  0.0786
60802SOL    HW2   17   5.746   2.658   4.863 -1.0282  1.2785  0.6922
60803SOL     OW   18   4.079   1.887   2.317 -0.2901  0.4518  0.4855
60803SOL    HW1   19   4.049   1.917   2.403 -1.7483 -1.2431  0.6193
60803SOL    HW2   20   4.027   1.937   2.255 -1.1316 -0.1851  0.6611
60804SOL     OW   21   6.805   5.506   0.816  0.2617 -0.1388 -0.8690
60804SOL    HW1   22   6.861   5.447   0.868  2.0271  0.5398 -1.9239
60804SOL    HW2   23   6.797   5.462   0.731  0.1881  0.3579 -1.1185
60805SOL     OW   24  11.483   6.629   6.703 -0.3115 -0.4709  0.3957
60805SOL    HW1   25  11.516   6.565   6.641  0.0849  1.0494 -1.0237
60805SOL    HW2   26  11.534   6.708   6.686 -1.0559  0.3559  1.8095
60806SOL     OW   27   3.230   0.819   4.803 -0.2367  0.0738 -0.5359
60806SOL    HW1   28   3.297   0.887   4.803  0.2161 -0.3439  0.6620
60806SOL    HW2   29   3.276   0.739   4.830 -1.0305 -0.4112 -0.5787
60807SOL     OW   30   7.429   4.127   5.219 -0.2358 -0.0036  0.1479
60807SOL    HW1   31   7.431   4.171   5.134  0.8591  0.7890  0.5635
60807SOL    HW2   32   7.457   4.194   5.281  0.3625 -0.9755  0.9490
60808SOL     OW   33  11.395   9.817   1.721 -0.1184 -0.2509 -0.4378
60808SOL    HW1   34  11.449   9.748   1.760  0.7772  1.4440  1.5359
60808SOL    HW2   35  11.309   9.777   1.711 -0.1468 -1.1728  2.4568
60809SOL     OW   36   9.356  10.563  10.650 -0.2757  0.3941  0.0075
60809SOL    HW1   37   9.414  10.515  10.710 -0.9009  0.4237  0.6618
60809SOL    HW2   38   9.297  10.611  10.709 -1.4072 -0.1782 -0.6235
60810SOL     OW   39   0.517   2.171   5.481  0.1403  0.5416  0.0565
60810SOL    HW1   40   0.485   2.197   5.568  0.2817  0.6366  0.0805
60810SOL    HW2   41   0.468   2.226   5.420 -0.4393  0.0151  0.0351
60811SOL     OW   42   9.005  10.897  11.030 -0.2392  0.1728 -0.0293
60811SOL    HW1   43   9.085  10.950  11.030 -0.1738  0.0784 -0.2756
60811SOL    HW2   44   8.936  10.957  11.003 -0.5753  0.7031  1.8499
60812SOL     OW   45  11.578  11.456   0.162 -0.4247 -0.1388 -0.4605
60812SOL    HW1   46  11.594  11.364   0.183 -0.4413  0.0898  0.6453
60812SOL    HW2   47  11.485  11.469   0.182  0.1868  0.7919  2.3193
60813SOL     OW   48  13.744  10.856   1.419 -0.0833  0.3492 -0.2166
60813SOL    HW1   49  13.707  10.804   1.490  0.6778 -1.7798 -1.3033
60813SOL    HW2   50  13.829  10.816   1.401  0.4651  1.8794 -1.2306
60814SOL     OW   51   4.467   7.852  11.186  0.3661  0.0800 -0.4581
60814SOL    HW1   52   4.473   7.843  11.091  0.0221  1.4027 -0.6308
60814SOL    HW2   53   4.485   7.765  11.220  0.9545 -0.3104 -1.7164
60815SOL     OW   54   0.425   2.766   5.770  0.4901 -0.0172 -0.0240
60815SOL    HW1   55   0.419   2.725   5.684  0.3609  0.8811 -0.4637
60815SOL    HW2   56   0.489   2.836   5.758  0.2871  0.2707  0.5471
60816SOL     OW   57   8.161   2.086  10.249 -0.6645 -0.8533 -0.8472
60816SOL    HW1   58   8.077   2.089  10.204 -1.0055  1.2407 -0.1810
60816SOL    HW2   59   8.139   2.097  10.341  0.3485  0.1469 -0.7036
60817SOL     OW   60   2.017   5.905   9.446  0.1824  0.4372 -0.2535
60817SOL    HW1   61   1.976   5.913   9.532  1.0176  0.8028  0.1227
60817SOL    HW2   62   2.111   5.914   9.463  0.3228  1.0752 -1.2719
60818SOL     OW   63  12.310   1.952   0.077 -0.3159 -0.2645  0.0522
60818SOL    HW1   64  12.371   1.970   0.006  0.3512 -0.3268  0.5934
60818SOL    HW2   65  12.327   2.021   0.141 -1.8817  0.6085 -0.4420
60819SOL     OW   66   0.508   3.819  13.438  0.5237 -0.6001 -0.4882
60819SOL    HW1   67   0.439   3.833  13.373  1.2206  1.9046 -0.7962
60819SOL    HW2   68   0.474   3.861  13.517  0.5025 -1.9195  0.2275
60820SOL     OW   69   3.191  13.360   8.116 -0.2826 -0.7090  0.9441
60820SOL    HW1   70   3.103  13.395   8.129 -0.0766  1.5299 -2.3199
60820SOL    HW2   71   3.249  13.426   8.155 -0.0102 -0.7762  0.6567
60821SOL     OW   72   7.981  12.594   9.266 -0.1057 -0.0728  0.2692
60821SOL    HW1   73   8.050  12.660   9.279 -1.2004  1.0712  0.4267
60821SOL    HW2   74   7.936  12.623   9.187 -2.4681  1.1184  1.9261
60822SOL     OW   75   5.988   4.679   3.581 -0.1803  0.4752  0.8909
60822SOL    HW1   76   6.071   4.632   3.588  1.3364  2.8547 -0.1125
60822SOL    HW2   77   5.937   4.628   3.518  0.8291 -0.5593  0.8763
60823SOL     OW   78   0.812   3.143   7.658 -0.0267  0.6046 -0.4368
60823SOL    HW1   79   0.891   3.089   7.659 -0.3386  0.1492  0.0424
60823SOL    HW2   80   0.742   3.083   7.629 -0.7177  0.2303  1.8024
60824SOL     OW   81   0.953  10.916   2.767  0.1471 -0.4140  0.0368
60824SOL    HW1   82   1.044  10.895   2.787  0.4025  0.1843 -0.4544
60824SOL    HW2   83   0.948  11.012   2.773 -0.0755 -0.3118 -1.4085
60825SOL     OW   84   4.971  13.654   2.012  0.0169 -0.0886  0.0637
60825SOL    HW1   85   4.934  13.680   1.927  1.2006  0.3356 -0.3420
60825SOL    HW2   86   4.916  13.582   2.041 -1.2624  0.6541 -0.4113
60826SOL     OW   87   9.442   4.827  11.702 -0.2931 -0.4036 -0.2078
60826SOL    HW1   88   9.475   4.913  11.675  1.1289 -1.3066 -1.5597
60826SOL    HW2   89   9.381   4.802  11.632 -1.4489 -0.1142  0.6681
60827SOL     OW   90   5.479   5.232   2.370  0.3713  0.3285  0.2331
60827SOL    HW1   91   5.486   5.167   2.300 -0.8811 -0.0663  0.4486
60827SOL    HW2   92   5.569   5.249   2.396  0.7486 -1.0458 -0.0891
60828SOL     OW   93   1.037   4.289   5.335  0.0988  0.6656 -0.0932
60828SOL    HW1   94   1.107   4.302   5.400 -0.4863  1.0381  0.4804
60828SOL    HW2   95   1.063   4.342   5.260  0.6756  0.4100 -0.0742
60829SOL     OW   96   4.917   0.539   6.644 -0.1543 -0.2054 -0.7696
60829SOL    HW1   97   4.972   0.463   6.663  0.6919  0.4047 -0.7420
60829SOL    HW2   98   4.955   0.611   6.694 -2.6372 -0.3458  1.5201
60830SOL     OW   99  11.943  10.090  10.380 -0.1041 -0.1731  0.0072
60830SOL    HW1  100  11.960  10.181  10.358 -0.1801 -0.1872 -0.1119
60830SOL    HW2  101  12.006  10.041  10.327  1.1714 -0.1104  1.3782
60831SOL     OW  102   5.352   2.743  10.132  0.6089  0.5622  0.4993
60831SOL    HW1  103   5.300   2.764  10.210  1.2497  4.1302  0.1530
60831SOL    HW2  104   5.437   2.716  10.167  0.8493  2.0148  1.1171
60832SOL     OW  105   3.501   8.474   0.867  0.5269 -0.1946 -0.4272
60832SOL    HW1  106   3.570   8.417   0.834 -0.2228 -1.2723 -0.2023
60832SOL    HW2  107   3.504   8.462   0.962 -0.9254 -1.4351 -0.5036
60833SOL     OW  108  11.350   8.725   9.096  0.2974  0.2943 -0.2093
60833SOL    HW1  109  11.312   8.641   9.122 -1.1982  0.2396 -2.2884
60833SOL    HW2  110  11.442   8.705   9.078 -0.2146 -1.1310 -1.4750
60834SOL     OW  111  12.737   1.340   7.519 -0.0124  0.2782 -0.5280
60834SOL    HW1  112  12.683   1.263   7.502 -0.1164  0.2966 -0.2732
60834SOL    HW2  113  12.674   1.411   7.534  0.0636  0.0360  1.0586
60835SOL     OW  114   2.512  13.609   6.557 -0.5862 -0.1455  0.3872
60835SOL    HW1  115   2.604  13.618   6.581 -0.9155  1.4743  1.2371
60835SOL    HW2  116   2.497  13.515   6.549  0.3115 -0.6675  3.6884
60836SOL     OW  117  12.619   5.157   4.928 -0.7352  0.2077  0.1757
60836SOL    HW1  118  12.707   5.119   4.924 -0.6291  0.4736 -0.0443
60836SOL    HW2  119  12.598   5.159   5.022 -1.1252 -1.2410  0.1420
60837SOL     OW  120   4.947  13.414   2.465  0.0304 -0.4201 -0.2124
60837SOL    HW1  121   4.949  13.378   2.376  0.1603 -0.6038 -0.1355
60837SOL    HW2  122   5.034  13.397   2.500 -0.2331 -0.9648  0.1904
60838SOL     OW  123  13.364   7.592   7.143  0.5512 -0.2974  0.3410
60838SOL    HW1  124  13.275   7.614   7.173  0.0091 -1.0460 -0.6923
60838SOL    HW2  125  13.386   7.512   7.191 -0.0949 -1.1749 -0.7737
60839SOL     OW  126   6.313  11.733   5.167  0.1302  0.1010  0.1946
60839SOL    HW1  127   6.222  11.763   5.155 -0.6148 -2.2681 -0.5074
60839SOL    HW2  128   6.351  11.738   5.079  0.6825  0.9779  0.4684
60840SOL     OW  129  13.684   5.391   1.992 -0.7607  0.2177  0.2355
60840SOL    HW1  130  13.760   5.384   1.934 -0.3886  0.1303  0.7299
60840SOL    HW2  131  13.711   5.454   2.059 -0.5264 -0.9884  1.3138
60841SOL     OW  132   7.491   6.617   4.608 -0.6343  0.1742  0.4704
60841SOL    HW1  133   7.408   6.579   4.638 -0.9330 -0.9084 -1.5755
60841SOL    HW2  134   7.472   6.650   4.520  0.8445  0.9107  0.3969
60842SOL     OW  135   8.756   0.043   1.438 -0.4380 -0.0594 -0.0583
60842SOL    HW1  136   8.738   0.060   1.531 -2.8378  2.2783 -0.8308
60842SOL    HW2  137   8.678  -0.004   1.407 -1.5336  2.6140 -1.6572
60843SOL     OW  138   5.482   3.005  13.382 -0.2450 -0.0231 -0.2824
60843SOL    HW1  139   5.450   2.974  13.467 -2.4222  0.6238 -0.8050
60843SOL    HW2  140   5.514   2.926  13.339 -1.3670 -0.7698  0.2123
60844SOL     OW  141  13.615   9.266  10.993 -0.2980  0.3597 -0.4165
60844SOL    HW1  142  13.669   9.253  10.915 -0.8622 -1.9409 -0.4808
60844SOL    HW2  143  13.619   9.361  11.009 -0.4254  0.9580 -3.3835
60845SOL     OW  144   2.022   6.195   1.934 -0.6277  0.3852  0.0243
60845SOL    HW1  145   1.966   6.240   1.997 -0.8422  0.4501 -0.2116
60845SOL    HW2  146   2.102   6.249   1.929  0.4690 -0.9387  2.1252
60846SOL     OW  147   7.344   1.404   5.688  0.3217 -0.0443  0.2834
60846SOL    HW1  148   7.357   1.313   5.715  0.2810 -0.2486 -0.3765
60846SOL    HW2  149   7.385   1.456   5.757  1.0022 -0.5845  0.2841
60847SOL     OW  150  11.501   5.622   0.648  0.3980 -0.3345  0.3689
60847SOL    HW1  151  11.496   5.670   0.731  1.0099 -1.2583  0.9519
60847SOL    HW2  152  11.431   5.556   0.654  1.0402 -1.0064  0.5514
60848SOL     OW  153  11.272   1.356  13.859  0.5266  0.0890 -0.2202
60848SOL    HW1  154  11.317   1.425  13.907  2.2656  0.1682 -1.8528
60848SOL    HW2  155  11.238   1.298  13.927  1.0213  1.3116  1.1286
60849SOL     OW  156   2.548   6.847   3.823  0.4117 -0.0818 -0.0498
60849SOL    HW1  157   2.474   6.905   3.805  1.8922  2.3828  1.2586
60849SOL    HW2  158   2.594   6.840   3.740  0.0678  0.4265 -0.2909
60850SOL     OW  159   1.722   8.893   3.591 -0.4429  0.0510 -0.4373
60850SOL    HW1  160   1.730   8.879   3.686  0.1568 -0.0034 -0.4942
60850SOL    HW2  161   1.641   8.944   3.581  0.3965  1.5873  0.2541
60851SOL     OW  162   9.703   3.812   6.333 -0.0976 -0.5172 -0.2254
60851SOL    HW1  163   9.783   3.775   6.294  1.2272  2.9800 -1.2058
60851SOL    HW2  164   9.726   3.827   6.424 -0.3655 -1.2983 -0.0199
60852SOL     OW  165  11.283   8.644   8.814 -0.2519  0.1559  0.7895
60852SOL    HW1  166  11.278   8.686   8.900 -1.6891  1.2482  0.2099
60852SOL    HW2  167  11.192   8.640   8.784  0.0936 -1.3437 -0.1646
60853SOL     OW  168   3.930  10.346   6.628  0.4908  0.7201 -0.2830
60853SOL    HW1  169   3.882  10.423   6.599  1.3804  0.6184 -2.2621
60853SOL    HW2  170   3.876  10.272   6.598  0.9339  0.6079 -0.8295
60854SOL     OW  171   3.589   8.727  10.518 -0.1691 -0.6023 -0.5275
60854SOL    HW1  172   3.670   8.724  10.568 -0.1303 -0.0093 -0.5514
60854SOL    HW2  173   3.604   8.794  10.451 -0.0777 -1.6563 -1.5989
60855SOL     OW  174   6.638  11.945  12.437  0.8396  0.2455 -0.0811
60855SOL    HW1  175   6.667  11.866  12.392  1.3884 -0.3410  1.2517
60855SOL    HW2  176   6.543  11.933  12.448  1.0399 -0.6377  0.8374
60856SOL     OW  177   9.219  10.983   0.231  0.4184 -0.0904  0.5527
60856SOL    HW1  178   9.213  10.907   0.174  1.4125  0.0175  0.2966
60856SOL    HW2  179   9.237  11.056   0.172  1.0162  0.0942  0.9609
60857SOL     OW  180   9.023   7.798  13.741  0.7746  0.2233 -0.2837
60857SOL    HW1  181   8.971   7.866  13.783  0.8801 -0.1032  0.3843
60857SOL    HW2  182   9.112   7.833  13.740  0.6260  0.6069 -1.0550
60858SOL     OW  183  11.115   5.935   8.705  0.3295  0.0238 -0.1890
60858SOL    HW1  184  11.171   5.858   8.697  1.2827  0.6811 -0.0885
60858SOL    HW2  185  11.082   5.932   8.794  1.6296  0.5416  0.3379
60859SOL     OW  186  13.330   1.213   2.831  0.0336  0.3375 -0.0230
60859SOL    HW1  187  13.260   1.173   2.780 -2.0693 -1.1330  3.6525
60859SOL    HW2  188  13.404   1.154   2.819 -0.4559 -0.0910 -1.1146
60860SOL     OW  189   7.539   3.699  13.082  0.0676 -0.8371  0.1969
60860SOL    HW1  190   7.622   3.720  13.125  0.1053 -1.9785  0.7353
60860SOL    HW2  191   7.474   3.704  13.152 -0.2857 -0.1608 -0.1785
60861SOL     OW  192   7.764   7.825   3.649  0.0199 -0.1920 -0.2734
60861SOL    HW1  193   7.732   7.905   3.692  1.3486  0.4458 -0.4366
60861SOL    HW2  194   7.778   7.850   3.558 -1.0872 -1.0645 -0.7078
60862SOL     OW  195   6.059   4.414   9.789  0.1711 -0.3862 -0.0318
60862SOL    HW1  196   6.126   4.439   9.725  1.4982 -0.0853  1.4158
60862SOL    HW2  197   6.093   4.445   9.873 -0.5884 -2.4492  1.1196
60863SOL     OW  198   9.942   4.284   0.327 -0.1326 -0.5168  0.7909
60863SOL    HW1  199   9.952   4.270   0.232 -1.3137 -1.3256  0.7671
60863SOL    HW2  200  10.015   4.342   0.350 -0.1727  0.1920 -0.7242
60864SOL     OW  201  13.515   9.832   5.925  0.1076  0.3322 -0.3110
60864SOL    HW1  202  13.582   9.900   5.931  0.2016  0.1471  1.0390
60864SOL    HW2  203  13.432   9.881   5.923  0.0973  0.5225  1.9466
60865SOL     OW  204   8.315   9.883  11.667  0.8445  0.2666 -0.2012
60865SOL    HW1  205   8.275   9.918  11.587 -0.4018 -0.4570  0.0755
60865SOL    HW2  206   8.401   9.850  11.638  0.9934  1.2639 -0.9488
60866SOL     OW  207   5.766   5.266   1.530 -0.2082 -0.4958  0.2712
60866SOL    HW1  208   5.724   5.349   1.552  1.0424 -0.0994  1.3117
60866SOL    HW2  209   5.789   5.274   1.438 -1.6177 -0.3986 -0.0923
60867SOL     OW  210   2.392   1.541   2.783 -0.1297 -0.2024  0.2267
60867SOL    HW1  211   2.453   1.545   2.709  0.9670  1.6549  1.1459
60867SOL    HW2  212   2.369   1.632   2.800 -0.2013 -0.5540  2.2716
60868SOL     OW  213   9.395  13.759   1.708  0.4256 -0.6191  0.1094
60868SOL    HW1  214   9.387  13.842   1.661  0.8462 -0.1449  0.8526
60868SOL    HW2  215   9.369  13.693   1.645 -0.0497  0.0926 -0.4552
60869SOL     OW  216   1.495   3.333   6.149 -0.1960  0.1126 -0.2652
60869SOL    HW1  217   1.423   3.345   6.087 -1.2183 -0.5068  0.7431
60869SOL    HW2  218   1.493   3.239   6.169  1.2797 -0.0218 -0.6498
60870SOL     OW  219  13.154  12.138   3.761  0.2411 -0.5596 -0.7131
60870SOL    HW1  220  13.182  12.072   3.825 -0.8060 -0.9640 -0.6534
60870SOL    HW2  221  13.061  12.119   3.746  0.0940  0.4839 -1.2103
60871SOL     OW  222   4.843   6.223   5.120 -0.4825  0.5777 -0.1837
60871SOL    HW1  223   4.881   6.135   5.109 -1.5434  0.0832 -0.0200
60871SOL    HW2  224   4.783   6.232   5.046 -0.3162  1.2019 -0.2423
60872SOL     OW  225  11.544  12.657   6.094  0.5455  0.3605 -0.2572
60872SOL    HW1  226  11.546  12.626   6.184 -1.1826 -1.0268 -0.6336
60872SOL    HW2  227  11.494  12.739   6.098 -0.4799 -0.2585 -0.0719
60873SOL     OW  228   8.899  11.935   4.053 -0.1068  0.2351  0.2166
60873SOL    HW1  229   8.955  11.983   3.993 -0.0067 -0.6840 -0.4435
60873SOL    HW2  230   8.815  11.979   4.048 -0.5361 -0.6817 -1.7457
60874SOL     OW  231   9.974  10.650  12.006  0.1480  0.9032 -0.0734
60874SOL    HW1  232   9.996  10.665  12.098 -0.3099  0.7070  0.0693
60874SOL    HW2  233  10.020  10.720  11.959  1.0878  0.4828  0.2105
60875SOL     OW  234   3.002   4.711   1.296 -0.3630 -0.7708 -0.4515
60875SOL    HW1  235   2.979   4.738   1.208 -0.4680  0.7086 -0.0006
60875SOL    HW2  236   3.098   4.716   1.299 -0.4213  0.2391 -0.1672
60876SOL     OW  237   0.092   8.762  10.143 -0.2310  0.1583  0.6180
60876SOL    HW1  238   0.140   8.816  10.080 -0.0316 -1.1690 -0.4230
60876SOL    HW2  239   0.156   8.740  10.210  0.1000 -0.0495  0.2346
60877SOL     OW  240   8.513   3.482  12.280 -0.1030  0.7317 -0.3565
60877SOL    HW1  241   8.473   3.437  12.355  0.1490 -0.5305 -0.9687
60877SOL    HW2  242   8.590   3.430  12.258  0.7686  2.0254 -0.4670
60878SOL     OW  243  13.132   0.965   4.910  0.8018 -0.0514  0.2232
60878SOL    HW1  244  13.219   0.926   4.921  0.7101 -0.0155  1.1454
60878SOL    HW2  245  13.108   0.995   4.998 -1.2616 -2.3816  0.5593
60879SOL     OW  246  11.046   0.442   1.506  0.1053 -0.2392  0.6743
60879SOL    HW1  247  10.978   0.374   1.500  1.0730 -1.0949 -1.7906
60879SOL    HW2  248  11.007   0.509   1.563 -2.1769 -1.3757  0.5824
60880SOL     OW  249  13.294   3.683  11.736 -0.0152 -0.9060  0.4043
60880SOL    HW1  250  13.229   3.746  11.705 -0.4599 -1.0392  1.0297
60880SOL    HW2  251  13.378   3.725  11.720 -0.2287 -0.9236 -0.8345
60881SOL     OW  252   4.022  13.243   1.762  0.3765 -0.2458  0.0627
60881SOL    HW1  253   4.011  13.323   1.815 -0.0713 -0.3837  0.1783
60881SOL    HW2  254   3.988  13.173   1.817 -1.5026 -0.2080 -0.9630
60882SOL     OW  255  11.097   6.853  11.686 -0.0823  0.5421  0.3324
60882SOL    HW1  256  11.120   6.866  11.778  2.3112 -1.7451  0.1851
60882SOL    HW2  257  11.041   6.775  11.686  0.8013 -0.1097 -0.1984
60883SOL     OW  258  10.176  10.059   2.577  0.3450  0.8700  0.2436
60883SOL    HW1  259  10.246  10.124   2.571  0.3454  0.9282  0.7778
60883SOL    HW2  260  10.189  10.017   2.663 -0.6980  1.3887  0.6847
60884SOL     OW  261  10.012   3.645  13.850  0.1991  0.5534 -0.2836
60884SOL    HW1  262  10.001   3.703  13.926  2.1511  1.4054 -0.5936
60884SOL    HW2  263  10.004   3.557  13.887 -2.1983  0.9388  0.2981
60885SOL     OW  264   8.344   2.471   0.411 -0.1137 -0.0087  0.0150
60885SOL    HW1  265   8.358   2.482   0.317 -0.8595  0.8324 -0.0222
60885SOL    HW2  266   8.307   2.384   0.420  0.5510 -0.3392 -0.4002
60886SOL     OW  267   2.218   9.519  13.902  0.0972 -0.0947  0.0537
60886SOL    HW1  268   2.207   9.424  13.909 -3.7524  0.1926  0.3429
60886SOL    HW2  269   2.225   9.535  13.808  2.7940 -0.6775  0.0624
60887SOL     OW  270  10.113   0.149   5.016 -0.2461  0.2924 -0.2034
60887SOL    HW1  271  10.022   0.174   5.028 -0.7018 -1.3466  0.0644
60887SOL    HW2  272  10.121   0.066   5.063  1.0029 -0.3300 -1.4450
60888SOL     OW  273  11.108  13.575  10.142 -0.0236 -0.2151  0.1052
60888SOL    HW1  274  11.174  13.612  10.201  0.2429 -0.0022 -0.3283
60888SOL    HW2  275  11.097  13.485  10.174  0.8230 -0.4074 -0.1008
60889SOL     OW  276   4.136  12.357   5.870 -0.2748 -0.4193  0.0110
60889SOL    HW1  277   4.043  12.361   5.890 -0.2248 -0.9213  0.3778
60889SOL    HW2  278   4.141  12.358   5.774 -0.5636  1.2201 -0.0135
60890SOL     OW  279   1.126   3.559  11.929 -0.0679  0.4227  0.1516
60890SOL    HW1  280   1.094   3.535  12.016  0.7576  1.5559  0.7801
60890SOL    HW2  281   1.172   3.642  11.941  3.0110 -1.0059 -0.7066
60891SOL     OW  282  11.668   2.650   3.303  0.7975  0.2398  0.1602
60891SOL    HW1  283  11.574   2.649   3.321  0.8307 -1.0360  0.3542
60891SOL    HW2  284  11.709   2.640   3.389  1.0417 -1.7245 -0.1482
60892SOL     OW  285   1.329   7.722  12.768 -0.1741 -0.2209 -0.2963
60892SOL    HW1  286   1.351   7.733  12.676 -1.8662 -1.0839 -0.8408
60892SOL    HW2  287   1.317   7.628  12.779  2.2105 -0.4320  1.3883
60893SOL     OW  288  13.813   9.882   4.218  0.0955 -0.2697  0.2487
60893SOL    HW1  289  13.891   9.892   4.162 -1.3888  0.6602 -1.7849
60893SOL    HW2  290  13.743   9.925   4.169 -1.2659  0.9597  3.0421
60894SOL     OW  291  12.755   9.069   7.091 -0.7407 -0.3106  0.0406
60894SOL    HW1  292  12.740   9.103   7.179 -0.7915 -1.2070  0.3936
60894SOL    HW2  293  12.787   9.144   7.041  1.1797 -0.2215  1.3086
60895SOL     OW  294  13.883  12.070   6.387  0.5955 -0.2660  0.6585
60895SOL    HW1  295  13.896  12.152   6.435  0.8063  0.4477 -0.5654
60895SOL    HW2  296  13.962  12.061   6.334 -1.1506  1.0275 -2.4524
60896SOL     OW  297   2.636   8.224   8.592  0.4167 -0.0862 -0.1287
60896SOL    HW1  298   2.602   8.313   8.586  2.6530  0.8357 -0.0216
60896SOL    HW2  299   2.669   8.216   8.681  0.6091 -0.8808 -0.2614
60897SOL     OW  300   1.443  11.390   3.311  0.7107  0.3494  0.0571
60897SOL    HW1  301   1.472  11.447   3.241  1.5820  0.6020  0.6032
60897SOL    HW2  302   1.356  11.422   3.335 -0.0136 -0.3394 -1.5280
60898SOL     OW  303  11.702   7.438   7.254 -0.0469  0.3830  0.2299
60898SOL    HW1  304  11.664   7.359   7.214 -0.4470  0.0647  1.1951
60898SOL    HW2  305  11.785   7.451   7.208 -0.5444  0.1140 -0.7776
60899SOL     OW  306  11.478   7.863  12.261 -0.1608  0.0697  0.1756
60899SOL    HW1  307  11.507   7.822  12.343 -1.6595  0.5185  0.9589
60899SOL    HW2  308  11.510   7.804  12.193 -0.3526 -1.2275  1.1693
60900SOL     OW  309   7.895   0.760   6.947 -0.4882  0.3704  0.0686
60900SOL    HW1  310   7.837   0.807   6.887  0.9787  3.1831  0.6828
60900SOL    HW2  311   7.972   0.739   6.894 -0.2031  0.6987  0.3484
60901SOL     OW  312  11.494   3.678  13.484  0.3426 -0.2526 -0.0296
60901SOL    HW1  313  11.485   3.582  13.478 -0.2700 -0.1248 -1.3329
60901SOL    HW2  314  11.489   3.695  13.578  1.0878 -1.5536  0.2807
60902SOL     OW  315   0.663  10.287  13.280 -0.6550 -0.5543 -0.8696
60902SOL    HW1  316   0.631  10.314  13.194 -2.8039 -0.9975 -0.2799
60902SOL    HW2  317   0.594  10.316  13.341  1.6097  1.3543  0.9673
60903SOL     OW  318  13.132   4.156   8.924  0.0186 -0.2824  0.0495
60903SOL    HW1  319  13.150   4.229   8.983 -0.5738  0.1187 -0.2487
60903SOL    HW2  320  13.152   4.077   8.975 -2.0132 -0.0191  1.3768
60904SOL     OW  321  10.628  12.044   4.674  0.3780 -0.2195  0.1670
60904SOL    HW1  322  10.620  12.042   4.769 -0.4452 -0.2383  0.1015
60904SOL    HW2  323  10.548  12.003   4.642  0.3031  0.4579 -0.5462
60905SOL     OW  324   0.440   9.429   7.204  0.0409  0.0515 -0.4514
60905SOL    HW1  325   0.449   9.496   7.271  1.3840 -0.1337 -0.4219
60905SOL    HW2  326   0.529   9.400   7.186 -0.3602 -0.5018 -1.7112
60906SOL     OW  327   5.392   7.050   1.916 -0.1477  0.2967  0.2465
60906SOL    HW1  328   5.297   7.048   1.928 -0.1525 -0.5548  0.1155
60906SOL    HW2  329   5.405   7.110   1.842 -0.5944  0.2186  0.1022
60907SOL     OW  330  11.650   0.198   4.636  0.3233 -0.3168 -0.0334
60907SOL    HW1  331  11.685   0.149   4.710  0.3554  0.2042  0.3027
60907SOL    HW2  332  11.628   0.284   4.672 -0.3194 -0.2917 -0.4779
60908SOL     OW  333   2.088   7.125   7.603  0.5255  0.0402  0.2810
60908SOL    HW1  334   2.168   7.075   7.588  0.3327 -0.4114  0.7283
60908SOL    HW2  335   2.023   7.059   7.626  0.2533  0.4893  0.8115
60909SOL     OW  336   3.952   4.263   9.541  0.5034 -0.5767 -0.6465
60909SOL    HW1  337   3.953   4.236   9.449 -0.1737 -0.1632 -0.7842
60909SOL    HW2  338   4.016   4.334   9.547  0.1017 -0.1910 -0.9322
60910SOL     OW  339   9.181   3.037  12.887  0.4436  0.0350  0.2385
60910SOL    HW1  340   9.185   3.111  12.949  1.7462 -0.4738  0.7997
60910SOL    HW2  341   9.216   3.072  12.805  1.9905 -0.1738  0.7717
60911SOL     OW  342   3.673  10.256   5.898 -0.2280 -0.0056  0.0656
60911SOL    HW1  343   3.659  10.341   5.855  1.2342  0.6720  0.8505
60911SOL    HW2  344   3.590  10.238   5.944 -0.2173  1.5224  0.7462
60912SOL     OW  345   2.076   4.659  13.174  0.3063  0.1517  0.2585
60912SOL    HW1  346   2.050   4.751  13.164  0.6897  0.5544  2.3780
60912SOL    HW2  347   2.171   4.661  13.175  0.3180 -0.2829  0.2151
60913SOL     OW  348   9.012   0.282   0.987 -0.7920 -0.8119 -0.1295
60913SOL    HW1  349   8.999   0.349   0.920 -0.4162  0.2843  0.8415
60913SOL    HW2  350   8.924   0.249   1.006 -1.2760  0.8324  0.7404
60914SOL     OW  351  13.276   4.181  10.992  0.2048 -0.1283  0.4978
60914SOL    HW1  352  13.191   4.175  10.949 -0.9113  1.7453  2.2552
60914SOL    HW2  353  13.255   4.189  11.085  2.2581  1.1744  0.9145
60915SOL     OW  354  13.664  13.632   6.982 -0.4498 -0.0845  0.5063
60915SOL    HW1  355  13.569  13.633   6.969 -0.6895 -2.1856  1.6158
60915SOL    HW2  356  13.697  13.697   6.921 -2.4603 -0.5907 -1.2501
60916SOL     OW  357  10.637  11.567  13.524  0.2226 -0.4444 -0.9460
60916SOL    HW1  358  10.714  11.573  13.468  1.6349  1.2249  1.0421
60916SOL    HW2  359  10.625  11.656  13.559 -1.3761 -1.1210  0.3770
60917SOL     OW  360   4.694   4.580   8.536 -0.5024  0.4508  0.0877
60917SOL    HW1  361   4.609   4.571   8.579 -0.9795  2.9765 -0.1865
60917SOL    HW2  362   4.675   4.625   8.453  1.1612  2.0643  0.5065
60918SOL     OW  363  13.869  11.686   5.887 -0.6057 -0.5790  0.0838
60918SOL    HW1  364  13.795  11.656   5.834 -0.3618 -1.2456  0.1052
60918SOL    HW2  365  13.879  11.619   5.955 -0.7294  0.1232  0.8014
60919SOL     OW  366   0.161  13.396   4.402 -0.1417  0.1485 -0.2676
60919SOL    HW1  367   0.144  13.440   4.485 -1.2029  2.0423 -1.4042
60919SOL    HW2  368   0.242  13.348   4.416 -1.5935 -1.7285  2.6120
60920SOL     OW  369   1.732  12.307  13.844 -0.4186  0.1291  0.7286
60920SOL    HW1  370   1.746  12.400  13.830  0.2311 -0.2980 -2.0374
60920SOL    HW2  371   1.803  12.280  13.902 -0.6617  1.3041  1.6259
60921SOL     OW  372   8.315  11.956   6.798 -0.1291 -0.0854 -0.2534
60921SOL    HW1  373   8.244  12.020   6.802 -0.3157 -0.2990 -0.1381
60921SOL    HW2  374   8.308  11.907   6.879  0.0621 -0.2014 -0.3057
60922SOL     OW  375   1.848   2.075   7.465 -0.2558 -0.4231  0.0158
60922SOL    HW1  376   1.922   2.074   7.404 -0.4564  0.0096 -0.2431
60922SOL    HW2  377   1.847   1.987   7.503 -0.4992 -0.9187 -1.0726
60923SOL     OW  378   7.944  10.051   3.978 -0.1390 -0.2011  0.5057
60923SOL    HW1  379   7.976   9.966   3.949 -0.9485 -1.0449  1.9226
60923SOL    HW2  380   8.020  10.109   3.972  0.8948 -1.4355  1.0585
60924SOL     OW  381   5.837   2.197  13.072 -0.2581  0.0920  0.5243
60924SOL    HW1  382   5.859   2.104  13.080 -0.3624  0.1156  1.0892
60924SOL    HW2  383   5.872   2.222  12.986  1.1756 -0.0853  1.0314
60925SOL     OW  384  12.370  13.942   3.384  0.2298  0.3556  0.1788
60925SOL    HW1  385  12.447  13.956   3.328 -0.3047 -0.2885 -0.7520
60925SOL    HW2  386  12.304  14.001   3.349  0.2001  0.6795  0.7771
60926SOL     OW  387   4.854  10.646  11.887 -0.3937  0.4777 -0.6321
60926SOL    HW1  388   4.946  10.621  11.896 -0.8309 -0.9165  0.4219
60926SOL    HW2  389   4.832  10.624  11.796 -0.5791 -2.6834  0.0384
60927SOL     OW  390   1.155  10.455   6.412 -0.0649  0.3206 -0.6837
60927SOL    HW1  391   1.175  10.454   6.506 -4.0552  1.7533  0.3896
60927SOL    HW2  392   1.143  10.363   6.389  0.9215 -0.0483  0.1806
60928SOL     OW  393   7.135   5.074   7.748 -0.0409  0.0241  0.3613
60928SOL    HW1  394   7.170   5.032   7.669  1.3701 -0.1141  1.0300
60928SOL    HW2  395   7.189   5.153   7.758 -0.6669  0.3968  0.8113
60929SOL     OW  396   2.925   9.982  11.260  0.1181 -0.0782  0.3852
60929SOL    HW1  397   2.989   9.994  11.330 -0.0122 -0.2201  0.5282
60929SOL    HW2  398   2.963  10.029  11.185  0.6442 -0.6092  0.3162
60930SOL     OW  399   2.083   6.193   7.964  0.2120  0.1668  0.1974
60930SOL    HW1  400   2.177   6.180   7.976  0.2397 -0.5555 -0.6669
60930SOL    HW2  401   2.042   6.121   8.012  0.0997  0.4235  0.4902
60931SOL     OW  402   4.056   3.680   1.380 -0.0074 -0.0190  0.0917
60931SOL    HW1  403   3.991   3.653   1.445  0.5918 -1.0973  0.2720
60931SOL    HW2  404   4.081   3.599   1.336  1.1759  0.3781 -0.0104
60932SOL     OW  405   0.172  12.035  14.066  0.5192  0.1072 -0.1588
60932SOL    HW1  406   0.165  12.041  13.971  0.3281 -2.4342 -0.3812
60932SOL    HW2  407   0.084  12.009  14.095  0.7201  0.3134  0.6584
60933SOL     OW  408   9.781   0.561  12.481 -0.3121 -0.6915  0.3096
60933SOL    HW1  409   9.868   0.600  12.473 -0.2747 -1.1041 -1.9153
60933SOL    HW2  410   9.724   0.619  12.431 -1.3914 -0.3489  1.8651
60934SOL     OW  411   9.779   6.177   3.626 -1.0594  0.0191 -0.4373
60934SOL    HW1  412   9.720   6.177   3.701 -0.9953  0.8497 -0.3749
60934SOL    HW2  413   9.852   6.232   3.654 -0.3955 -0.7448 -0.6244
60935SOL     OW  414   5.131  10.471  12.227 -0.1121  0.0184 -0.1111
60935SOL    HW1  415   5.063  10.464  12.161 -0.6189 -1.3726  0.5124
60935SOL    HW2  416   5.211  10.491  12.178 -0.4550 -1.0587 -1.1580
60936SOL     OW  417  13.917   5.368   3.729  0.9602  0.1064 -0.0626
60936SOL    HW1  418  13.949   5.278   3.733 -0.5177 -0.4126  1.7434
60936SOL    HW2  419  13.987   5.420   3.769  1.5662 -0.2882 -0.5755
60937SOL     OW  420   2.652   0.288   2.775  0.5133  0.0963  0.3908
60937SOL    HW1  421   2.670   0.197   2.753  0.1385 -0.2693  1.5427
60937SOL    HW2  422   2.730   0.336   2.746  0.6126 -0.5375 -0.4351
60938SOL     OW  423  12.103   2.965   1.515 -0.1016 -0.2925  0.4379
60938SOL    HW1  424  12.166   2.950   1.585  1.3405 -1.5453 -1.0241
60938SOL    HW2  425  12.049   2.886   1.514 -0.6452  0.0746  0.6558
60939SOL     OW  426  11.791   6.769   5.147  0.4295 -0.2187  0.3997
60939SOL    HW1  427  11.752   6.857   5.142  1.3063  0.2897  2.0766
60939SOL    HW2  428  11.828   6.755   5.060 -1.2241  0.3402 -0.4340
60940SOL     OW  429   2.565  13.086  10.538  0.2072 -0.1507  0.0437
60940SOL    HW1  430   2.596  13.001  10.507 -1.1905  0.2483 -2.7198
60940SOL    HW2  431   2.470  13.075  10.546  0.3354  0.1382  3.3423
60941SOL     OW  432   1.560   9.429   7.223  0.3402  0.2087  0.3605
60941SOL    HW1  433   1.467   9.422   7.243  0.0065  0.9292 -0.8745
60941SOL    HW2  434   1.573   9.375   7.146  1.0222 -0.1517  0.7129
60942SOL     OW  435   2.675  11.323   0.845 -0.1538 -0.1421 -0.0963
60942SOL    HW1  436   2.689  11.414   0.872 -0.6700  1.3772 -4.1366
60942SOL    HW2  437   2.580  11.312   0.849 -0.4015  0.6219 -2.2559
60943SOL     OW  438   0.313   5.978   8.681 -0.2792  0.9297 -0.2082
60943SOL    HW1  439   0.252   6.052   8.681 -0.4692  0.7783  0.3904
60943SOL    HW2  440   0.285   5.924   8.755 -0.0877  0.3020 -0.5924
60944SOL     OW  441  12.111  12.854   4.903 -0.3602 -0.7824 -0.0757
60944SOL    HW1  442  12.051  12.879   4.974 -0.5403  0.4441 -0.6241
60944SOL    HW2  443  12.055  12.851   4.825  0.4153  1.5126 -0.8077
60945SOL     OW  444   6.486  13.142   1.447 -0.1705  0.0242  0.0604
60945SOL    HW1  445   6.569  13.124   1.491 -0.2940  0.5041  0.5115
60945SOL    HW2  446   6.473  13.236   1.459 -1.6472 -0.3158  1.5806
60946SOL     OW  447   8.686   1.006   7.993  0.0774  0.1663 -0.2960
60946SOL    HW1  448   8.731   0.945   8.052  0.5992 -0.4358 -1.2758
60946SOL    HW2  449   8.599   1.017   8.032  0.3786 -0.2712  0.5381
60947SOL     OW  450   3.544  10.082   3.795  0.0721 -0.2232  0.0585
60947SOL    HW1  451   3.545  10.122   3.882  0.2391  1.5062 -0.6954
60947SOL    HW2  452   3.454  10.092   3.765  0.4228  0.8721 -0.6785
60948SOL     OW  453   6.528  12.536   3.668 -0.0720 -0.1758 -0.2405
60948SOL    HW1  454   6.612  12.538   3.624 -0.6068 -1.2347 -1.3390
60948SOL    HW2  455   6.535  12.604   3.736  1.4913  0.0407 -0.5919
60949SOL     OW  456   6.863   2.906   1.551 -0.0684  0.5221 -0.1104
60949SOL    HW1  457   6.905   2.944   1.473 -0.6192 -2.0321 -1.7897
60949SOL    HW2  458   6.769   2.911   1.533 -0.2475  0.8100  0.8679
60950SOL     OW  459   4.376  13.316   2.505 -0.2558 -0.4455 -0.3448
60950SOL    HW1  460   4.409  13.252   2.568  1.4287 -0.3017 -1.0378
60950SOL    HW2  461   4.284  13.292   2.492 -0.8105 -0.1760  2.5263
60951SOL     OW  462  13.198   2.491   9.645 -0.2690 -0.1440 -0.4729
60951SOL    HW1  463  13.161   2.413   9.603  0.3734  0.4526 -2.2446
60951SOL    HW2  464  13.124   2.552   9.652 -0.2807 -0.0600 -1.2467
60952SOL     OW  465  10.908   5.251   6.773 -0.0940  0.3403  0.3816
60952SOL    HW1  466  10.824   5.295   6.785 -0.9558 -1.0208 -0.4209
60952SOL    HW2  467  10.887   5.157   6.781  1.3523 -0.0189  0.1779
60953SOL     OW  468   5.474   1.167   1.943  0.3391 -0.1946  0.0495
60953SOL    HW1  469   5.465   1.180   2.037  0.7792  0.1911  0.0422
60953SOL    HW2  470   5.564   1.193   1.923  0.8537 -2.0103 -0.1906
60954SOL     OW  471   6.105   2.419   4.158 -0.5560 -0.1343 -0.3189
60954SOL    HW1  472   6.146   2.336   4.135 -0.8139 -0.4942  0.4788
60954SOL    HW2  473   6.131   2.479   4.088  0.4500 -0.6211 -0.3799
60955SOL     OW  474  12.918   8.502  11.184 -0.4752 -0.2348  0.6644
60955SOL    HW1  475  13.012   8.511  11.201  0.1398  1.2431 -2.7389
60955SOL    HW2  476  12.886   8.592  11.176 -1.7090 -0.7349 -0.3272
60956SOL     OW  477  13.048   9.192   7.185 -0.6749 -0.0842  0.4817
60956SOL    HW1  478  13.023   9.104   7.213  0.8238 -0.4250  0.8601
60956SOL    HW2  479  13.006   9.202   7.099 -0.7733 -1.2200  0.3751
60957SOL     OW  480   2.611  11.769  10.799 -0.1735 -0.0282 -0.0323
60957SOL    HW1  481   2.544  11.830  10.770  0.3385  0.2102 -0.7479
60957SOL    HW2  482   2.563  11.700  10.845 -0.7006  1.2385  1.3995
60958SOL     OW  483   9.590   5.659   7.220  0.0564  0.2673  0.2650
60958SOL    HW1  484   9.509   5.709   7.230  0.0760  0.4500 -0.4257
60958SOL    HW2  485   9.574   5.602   7.144  1.4447  2.1047 -1.5167
60959SOL     OW  486  12.424   9.897   1.065 -0.0705 -0.0096 -0.4754
60959SOL    HW1  487  12.400   9.834   0.998 -2.1974 -0.3696  0.5298
60959SOL    HW2  488  12.346   9.904   1.121  0.5121  2.5491  0.1880
60960SOL     OW  489   1.463   8.391   6.896 -0.3133 -0.1098  0.3475
60960SOL    HW1  490   1.472   8.297   6.880 -0.7566 -0.4173  1.7465
60960SOL    HW2  491   1.553   8.424   6.898 -0.1603 -0.4657 -0.2701
60961SOL     OW  492   5.350   3.548   3.677 -0.5974 -0.2177  0.3224
60961SOL    HW1  493   5.308   3.634   3.689 -0.1092  0.0216  0.3650
60961SOL    HW2  494   5.286   3.496   3.629 -0.7968  0.2556  0.0685
60962SOL     OW  495  10.743   8.678  13.157 -0.0648  0.2053  0.3320
60962SOL    HW1  496  10.731   8.653  13.248 -0.0829  0.2464  0.3403
60962SOL    HW2  497  10.716   8.601  13.107  2.1034 -0.6838  0.4154
60963SOL     OW  498   8.151   0.032   0.315  0.0262 -0.0061  0.3528
60963SOL    HW1  499   8.100   0.023   0.235 -0.7793 -0.8645  0.9422
60963SOL    HW2  500   8.185   0.121   0.311  0.7973 -0.3345 -1.3864
60964SOL     OW  501   5.920  10.839  12.981  0.1434  0.0436  0.6563
60964SOL    HW1  502   5.925  10.768  13.044 -0.8481  1.3142  2.2386
60964SOL    HW2  503   5.828  10.843  12.955 -0.0816  1.4717  1.5303
60965SOL     OW  504   5.636   9.195   2.022 -0.5938  0.2175 -0.2126
60965SOL    HW1  505   5.645   9.241   1.939 -2.4755  2.5974  0.7999
60965SOL    HW2  506   5.544   9.208   2.047 -0.3448 -1.3447  1.7337
60966SOL     OW  507  10.980   9.572   9.490  0.0976  0.2216 -0.2107
60966SOL    HW1  508  10.941   9.501   9.440 -0.4679  0.3200  0.0736
60966SOL    HW2  509  11.068   9.581   9.455 -0.1307 -0.0181 -0.8667
60967SOL     OW  510   4.792   7.792  11.055 -0.4695 -0.2836  0.5389
60967SOL    HW1  511   4.819   7.718  11.109 -0.5868 -0.1250  0.8171
60967SOL    HW2  512   4.713   7.762  11.010 -1.0265 -0.0207  1.3343
60968SOL     OW  513   8.276  13.283   2.568  0.4048 -0.4352  0.6582
60968SOL    HW1  514   8.315  13.321   2.647 -0.1224  1.5779  0.0107
60968SOL    HW2  515   8.211  13.221   2.601 -1.0994  1.6714  1.8999
60969SOL     OW  516   7.925  11.852   3.370  0.0571 -0.2767 -0.1966
60969SOL    HW1  517   7.942  11.824   3.280 -2.2105 -2.4212 -0.0576
60969SOL    HW2  518   8.009  11.841   3.414  0.9475 -0.2297 -1.7996
60970SOL     OW  519   7.477   9.622   1.899  0.0938  0.3548 -0.2095
60970SOL    HW1  520   7.451   9.538   1.936  1.8758  0.2017  0.7981
60970SOL    HW2  521   7.424   9.631   1.819 -0.2598 -1.6200 -0.2390
60971SOL     OW  522   8.969   9.410  12.183 -0.3011 -0.1210  0.0614
60971SOL    HW1  523   9.040   9.416  12.246 -0.5434  1.7453  0.1952
60971SOL    HW2  524   9.012   9.388  12.100 -0.0659 -3.4717  0.9455
60972SOL     OW  525   7.714  10.255   1.758  0.2285 -0.1193  0.4198
60972SOL    HW1  526   7.705  10.338   1.711 -0.6296  0.8455  2.1727
60972SOL    HW2  527   7.763  10.199   1.699  1.6280  1.9378 -0.4843
60973SOL     OW  528  12.827   4.624   0.777 -0.5028  0.0913 -0.4480
60973SOL    HW1  529  12.756   4.564   0.754  0.9963 -1.9599  0.0566
60973SOL    HW2  530  12.799   4.665   0.859 -0.8018 -1.2382  0.1323
60974SOL     OW  531   8.359   0.731   2.893  0.2211 -0.1590  0.0877
60974SOL    HW1  532   8.304   0.653   2.894 -0.2073  0.1353 -0.1349
60974SOL    HW2  533   8.372   0.752   2.986  0.3053 -0.4648  0.1479
60975SOL     OW  534  10.779  13.271   6.017 -0.1436 -0.2244  0.2548
60975SOL    HW1  535  10.732  13.302   6.094 -1.1119 -0.5333 -0.1961
60975SOL    HW2  536  10.870  13.293   6.034 -0.6203  1.6540  0.5437
60976SOL     OW  537   8.215   5.438  12.826 -0.0535 -0.2433  0.1123
60976SOL    HW1  538   8.161   5.406  12.753 -0.4008 -0.4916  0.4702
60976SOL    HW2  539   8.152   5.456  12.896  0.3089 -0.3683  0.4761
60977SOL     OW  540  10.304   2.881   4.869  0.5176 -0.7953  0.6275
60977SOL    HW1  541  10.351   2.802   4.844  0.0720 -0.7449 -0.4245
60977SOL    HW2  542  10.287   2.926   4.786 -0.1454 -0.1188  1.1147
60978SOL     OW  543   2.224   4.832   8.073  0.6083  0.0598 -0.0653
60978SOL    HW1  544   2.189   4.914   8.036  1.9798  0.9556  0.5143
60978SOL    HW2  545   2.150   4.792   8.118 -0.2109  0.7364 -0.7619
60979SOL     OW  546  10.016   0.391   8.554 -0.3093 -0.4148 -0.0026
60979SOL    HW1  547  10.048   0.306   8.524 -0.0385 -0.1594 -0.4439
60979SOL    HW2  548  10.051   0.400   8.643  0.7706 -0.1875 -0.4335
60980SOL     OW  549  11.671  13.855   2.195  0.0811  0.0299 -0.0094
60980SOL    HW1  550  11.695  13.850   2.102 -0.3363 -1.5927 -0.0609
60980SOL    HW2  551  11.627  13.939   2.203  0.0808  0.1833 -1.2998
60981SOL     OW  552  11.146   1.996  12.604 -0.2486 -0.3566  0.1250
60981SOL    HW1  553  11.154   1.988  12.699  0.4923  2.7328  0.4090
60981SOL    HW2  554  11.219   1.944  12.570 -0.3270 -1.2376  1.2192
60982SOL     OW  555  13.677   8.152   2.666  0.4634  0.4494 -0.7688
60982SOL    HW1  556  13.621   8.183   2.737  0.6596 -0.7943 -0.0386
60982SOL    HW2  557  13.618   8.104   2.608  0.4623  0.6607 -0.9417
60983SOL     OW  558  11.607   8.100   7.270  0.2247  0.1384  0.9826
60983SOL    HW1  559  11.537   8.093   7.205  0.0853 -0.1620  1.1631
60983SOL    HW2  560  11.682   8.056   7.230  0.4764  0.9175  0.5692
60984SOL     OW  561   3.658   3.772   6.406  0.9244  0.6254 -0.3435
60984SOL    HW1  562   3.684   3.689   6.447 -0.6975  1.0196  1.6417
60984SOL    HW2  563   3.573   3.752   6.366  1.3787  0.8877 -1.4680
60985SOL     OW  564   0.945  13.017   7.083 -0.4920 -0.1684 -0.6125
60985SOL    HW1  565   0.857  13.023   7.048 -0.5159  0.1765 -0.4888
60985SOL    HW2  566   0.963  13.103   7.120 -1.1141 -0.9987  1.7940
60986SOL     OW  567  12.518   5.575   6.829  0.2326 -0.0738  0.2180
60986SOL    HW1  568  12.541   5.564   6.921  1.5982  1.0780  0.0684
60986SOL    HW2  569  12.519   5.487   6.793  2.1406 -0.3485  0.8127
60987SOL     OW  570   9.927  12.529   5.986  0.0810 -0.2152 -0.4885
60987SOL    HW1  571   9.856  12.480   5.945  1.1060 -2.2440  0.0348
60987SOL    HW2  572   9.954  12.475   6.061  2.5994  0.1268 -1.0472
60988SOL     OW  573   0.136   1.292   3.892 -0.0225 -0.3095 -0.2464
60988SOL    HW1  574   0.065   1.249   3.938 -1.2666 -1.7425 -3.2165
60988SOL    HW2  575   0.127   1.385   3.915 -1.5709 -0.7314  0.9837
60989SOL     OW  576   1.112   0.024   0.604 -0.0112  0.1505 -0.2296
60989SOL    HW1  577   1.197   0.019   0.560 -0.1453  1.9283 -0.7692
60989SOL    HW2  578   1.063   0.089   0.555 -1.4028 -0.2380  0.5758
60990SOL     OW  579   1.507   3.189  10.932 -0.0634  0.1968  0.0411
60990SOL    HW1  580   1.547   3.207  10.846  1.2843  0.1791  0.6285
60990SOL    HW2  581   1.492   3.275  10.970 -1.3312  0.2219 -0.4904
60991SOL     OW  582   3.033   9.166   1.304  0.9379  0.6327 -0.6979
60991SOL    HW1  583   2.972   9.234   1.275  0.3929 -0.3984 -2.0697
60991SOL    HW2  584   2.985   9.084   1.295  1.7251 -0.0046  0.5356
60992SOL     OW  585  11.319   7.520   6.829  0.2009  0.2806  0.3950
60992SOL    HW1  586  11.248   7.518   6.894  0.5148 -1.0875  0.7383
60992SOL    HW2  587  11.398   7.533   6.880  0.5005 -1.2495  0.3842
60993SOL     OW  588   0.870   9.232  13.085 -0.2339 -0.0912  0.4246
60993SOL    HW1  589   0.840   9.285  13.011  1.0349 -2.0058 -1.5849
60993SOL    HW2  590   0.795   9.178  13.108 -0.4538  0.0984  0.1525
60994SOL     OW  591   2.458  10.908   1.396 -0.2571  0.0067 -0.0623
60994SOL    HW1  592   2.390  10.916   1.329 -0.7467  0.3783  0.4742
60994SOL    HW2  593   2.523  10.974   1.372  0.5376 -1.1801 -1.2867
60995SOL     OW  594  10.552   6.849   2.167  0.1594 -0.7884 -0.0577
60995SOL    HW1  595  10.621   6.883   2.225 -0.4928  1.1906 -0.3719
60995SOL    HW2  596  10.594   6.845   2.081 -0.0290  0.2689 -0.2192
60996SOL     OW  597  12.481   7.585   9.801 -0.0408 -0.2942  0.8357
60996SOL    HW1  598  12.553   7.613   9.857  0.1640 -1.5025  1.2062
60996SOL    HW2  599  12.449   7.666   9.761  2.2001  0.1531 -0.1809
60997SOL     OW  600  10.622  13.608   9.928  0.0577  0.1443  0.2966
60997SOL    HW1  601  10.675  13.566   9.996 -0.5213 -1.2837 -0.0902
60997SOL    HW2  602  10.668  13.591   9.847 -1.2287 -1.6347 -0.1193
60998SOL     OW  603  10.318   1.283   0.874  0.2195 -0.3469  0.0168
60998SOL    HW1  604  10.260   1.349   0.913  0.4183 -0.4981  0.5798
60998SOL    HW2  605  10.259   1.224   0.827 -0.0172 -0.1058  0.0084
60999SOL     OW  606  10.789   1.592   6.729  0.2612 -0.0662  0.2475
60999SOL    HW1  607  10.799   1.597   6.824  1.0681  0.5393  0.1416
60999SOL    HW2  608  10.843   1.517   6.702 -2.0353 -1.9164  0.5175
61000SOL     OW  609  10.880   2.785   7.534 -0.3084  0.7732 -0.1344
61000SOL    HW1  610  10.798   2.746   7.563 -1.5983  2.2103 -1.6395
61000SOL    HW2  611  10.945   2.752   7.596 -1.8020 -1.2496  0.4893
61001SOL     OW  612  12.566   3.663  11.541 -0.0923  0.0905  0.2989
61001SOL    HW1  613  12.488   3.712  11.517  0.4435 -0.6255 -3.5652
61001SOL    HW2  614  12.533   3.578  11.570 -0.9272 -0.7352 -2.6439
61002SOL     OW  615   2.909   5.924   4.169 -0.3611  0.0215 -0.2088
61002SOL    HW1  616   2.969   5.852   4.149  0.5491  1.3253 -2.4568
61002SOL    HW2  617   2.822   5.885   4.159  0.1143 -0.8228 -1.2763
61003SOL     OW  618   8.945   3.378  11.508  0.1330 -1.3129 -0.0389
61003SOL    HW1  619   8.855   3.392  11.537  0.1065 -0.7580 -0.3890
61003SOL    HW2  620   8.954   3.283  11.503 -0.6252 -1.3590 -0.6132
61004SOL     OW  621  12.228   8.663  12.296  0.0075  0.0719 -0.0004
61004SOL    HW1  622  12.294   8.681  12.363  0.3630  1.4166 -0.6667
61004SOL    HW2  623  12.145   8.691  12.336 -0.1127 -1.1984  0.6705
61005SOL     OW  624  12.999   0.586  12.233  0.2013  0.0388 -0.7349
61005SOL    HW1  625  13.091   0.611  12.227  0.3816 -0.4184 -0.0493
61005SOL    HW2  626  12.950   0.666  12.214  0.7500  0.6776  0.4342
61006SOL     OW  627  13.407  11.751  10.881 -0.0456 -0.1084  0.5217
61006SOL    HW1  628  13.495  11.787  10.892  1.1475 -3.0774  1.7290
61006SOL    HW2  629  13.381  11.778  10.793  1.5907  1.7454  0.5398
61007SOL     OW  630   9.106  10.589   1.568  0.0862 -0.2438  0.1461
61007SOL    HW1  631   9.168  10.549   1.629 -0.1217 -1.5397 -0.4671
61007SOL    HW2  632   9.156  10.601   1.487  0.0005  0.2753  0.1647
61008SOL     OW  633   1.589   3.353   0.469 -0.3246 -0.4215  0.2118
61008SOL    HW1  634   1.510   3.299   0.467 -0.0360 -0.9139  1.4036
61008SOL    HW2  635   1.653   3.305   0.417 -0.9217  0.1920 -1.1271
61009SOL     OW  636   7.109  11.764   7.018  0.5264 -0.1881 -0.3872
61009SOL    HW1  637   7.188  11.806   6.983  0.6359 -0.9621 -1.1217
61009SOL    HW2  638   7.052  11.755   6.942 -0.6074  1.0740  0.2890
61010SOL     OW  639   6.205   6.017   1.264 -0.3268  0.1022  0.0744
61010SOL    HW1  640   6.120   5.999   1.224 -1.1881  1.4753  1.2146
61010SOL    HW2  641   6.201   5.971   1.348  0.0007  0.2825  0.1877
61011SOL     OW  642   9.723   4.590   5.136  0.0525 -0.0894  0.2985
61011SOL    HW1  643   9.727   4.610   5.042  2.3365 -1.7833 -0.0500
61011SOL    HW2  644   9.754   4.669   5.179  0.1693  0.2786 -0.4394
61012SOL     OW  645  11.227  11.661   5.053 -0.7230 -0.5525 -0.1229
61012SOL    HW1  646  11.234  11.745   5.008  0.6207 -0.7177 -0.2576
61012SOL    HW2  647  11.251  11.679   5.144 -0.5961 -0.7694 -0.1129
61013SOL     OW  648   6.402  12.268   6.480  0.4183  0.4520  0.0328
61013SOL    HW1  649   6.370  12.314   6.558 -1.1950  0.5151 -0.6220
61013SOL    HW2  650   6.362  12.316   6.407 -1.3826 -1.9403 -0.6860
61014SOL     OW  651   0.493  13.050   6.630  0.1623  0.0015 -0.7848
61014SOL    HW1  652   0.448  13.049   6.546 -0.0050  0.5562 -0.7075
61014SOL    HW2  653   0.445  13.114   6.683  0.4290 -0.1416 -0.3585
61015SOL     OW  654   1.154   4.354   4.360 -0.1684 -0.0220 -0.3672
61015SOL    HW1  655   1.141   4.261   4.342  0.7160 -0.3294  0.5367
61015SOL    HW2  656   1.081   4.397   4.315 -1.6519 -1.3032  0.7167
61016SOL     OW  657  12.885  11.508  11.462 -0.1397 -0.1620  0.2946
61016SOL    HW1  658  12.804  11.476  11.502 -0.7046  1.1461  0.2423
61016SOL    HW2  659  12.882  11.475  11.372  0.1027 -1.3171  0.6861
61017SOL     OW  660   2.548  10.271   2.909  0.5650  0.1367  0.3328
61017SOL    HW1  661   2.607  10.338   2.873 -0.7145 -0.0916 -2.4288
61017SOL    HW2  662   2.462  10.314   2.912  0.2341 -0.5583  1.1202
61018SOL     OW  663   8.866   6.297   1.808 -0.1318 -0.3565 -0.3132
61018SOL    HW1  664   8.787   6.252   1.778 -0.3824  0.1573 -0.4236
61018SOL    HW2  665   8.834   6.372   1.858  0.2825 -0.8918  0.7914
61019SOL     OW  666   5.006   9.040   0.148  0.0191  0.1040 -0.3523
61019SOL    HW1  667   4.922   9.055   0.105  0.7944 -0.4192 -2.1594
61019SOL    HW2  668   5.059   9.117   0.127  0.4121 -0.1641 -0.3746
61020SOL     OW  669   9.981   6.318  12.791 -0.7031  0.6531  0.6499
61020SOL    HW1  670   9.943   6.245  12.840 -0.2692  1.6714  2.5962
61020SOL    HW2  671   9.907   6.374  12.768 -1.0642 -0.4310 -1.0242
61021SOL     OW  672   4.421   8.322  10.047  0.1440 -0.1587 -0.3352
61021SOL    HW1  673   4.399   8.370   9.968  0.2185  0.8946  0.2610
61021SOL    HW2  674   4.513   8.297  10.036  0.7959  1.7990  0.2772
61022SOL     OW  675   9.318  13.779   0.942  0.0441  0.4722 -0.3591
61022SOL    HW1  676   9.278  13.825   0.868  1.5488  0.3934 -1.2482
61022SOL    HW2  677   9.317  13.843   1.014  1.9027  1.9009 -1.5067
61023SOL     OW  678  12.924   5.728  10.641 -0.7762 -0.9038 -0.3904
61023SOL    HW1  679  13.019   5.731  10.649 -0.9724  0.9214  2.8658
61023SOL    HW2  680  12.905   5.637  10.620  1.6664 -1.1458 -2.0174
61024SOL     OW  681  10.963   1.619  12.152 -0.0798  0.2632 -0.2994
61024SOL    HW1  682  10.915   1.588  12.228  2.0939 -1.0829  0.6007
61024SOL    HW2  683  10.977   1.712  12.168 -1.2267  0.3828  0.0404
61025SOL     OW  684  12.379  12.235   0.962 -0.3191 -0.2886 -0.5536
61025SOL    HW1  685  12.421  12.280   1.036 -1.7569 -0.5152  0.4454
61025SOL    HW2  686  12.298  12.285   0.947 -0.6286 -0.9611 -1.1761
61026SOL     OW  687  12.032  11.946   3.497  0.3498 -0.5805  0.8890
61026SOL    HW1  688  12.080  11.995   3.564  0.1331 -0.2049  0.7750
61026SOL    HW2  689  12.091  11.876   3.470  1.9084  1.3702 -1.0795
61027SOL     OW  690   3.407   4.625  10.303 -0.0026 -0.0184 -0.0131
61027SOL    HW1  691   3.394   4.662  10.390 -2.9701  1.4114 -0.9153
61027SOL    HW2  692   3.424   4.702  10.248 -0.9206 -0.5501 -1.0827
61028SOL     OW  693   2.886  13.981   8.453 -0.2029 -0.5032  0.3313
61028SOL    HW1  694   2.833  14.023   8.385  1.4409  1.5222  0.2244
61028SOL    HW2  695   2.958  13.941   8.405  1.2286  1.3386  0.8355
61029SOL     OW  696   4.335   4.705  11.132 -0.1261 -0.5525 -0.3573
61029SOL    HW1  697   4.341   4.713  11.227 -1.0894 -1.3466 -0.2134
61029SOL    HW2  698   4.310   4.792  11.101  2.7201  0.4410 -0.1663
61030SOL     OW  699   3.358   8.245   7.841  0.2802  0.1440  0.1297
61030SOL    HW1  700   3.365   8.273   7.932  1.5266  0.5211 -0.0610
61030SOL    HW2  701   3.420   8.301   7.794  0.3637 -0.6900 -0.7875
61031SOL     OW  702   8.419   3.053   3.623  0.2407 -0.2333 -0.3725
61031SOL    HW1  703   8.431   2.958   3.618  0.5436 -0.3352  1.6183
61031SOL    HW2  704   8.329   3.067   3.593  0.1928 -1.1506 -0.6789
61032SOL     OW  705   2.530   7.390   5.722  0.6639  0.6608  0.5024
61032SOL    HW1  706   2.546   7.473   5.768  1.1054  0.7221  0.2438
61032SOL    HW2  707   2.546   7.411   5.630  0.8823  0.2580  0.4495
61033SOL     OW  708   1.366  12.187  10.892 -0.0020  0.3945  0.1523
61033SOL    HW1  709   1.394  12.127  10.824 -1.5866 -1.0329  0.7043
61033SOL    HW2  710   1.348  12.269  10.846 -0.8523 -0.4873 -1.1343
61034SOL     OW  711   7.775   5.916   5.162 -0.4909  0.2554 -0.0693
61034SOL    HW1  712   7.769   5.867   5.080 -0.1087  0.8614 -0.4669
61034SOL    HW2  713   7.811   5.853   5.225  0.0615  0.0437 -0.5864
61035SOL     OW  714   5.426   2.815   1.273  0.1656 -0.0010 -0.5069
61035SOL    HW1  715   5.521   2.823   1.269  0.0188  3.3882  0.0954
61035SOL    HW2  716   5.408   2.779   1.360  0.8524 -2.0322 -1.1420
61036SOL     OW  717   5.007   8.610  13.727  0.5832  0.4138 -0.4030
61036SOL    HW1  718   5.034   8.539  13.669  0.7018 -0.4631  0.7055
61036SOL    HW2  719   5.026   8.578  13.815 -0.6771  1.2529  0.2034
61037SOL     OW  720  12.182   8.612   5.578  0.1326  0.5040  0.0480
61037SOL    HW1  721  12.116   8.589   5.512 -1.5966  1.1563  1.4694
61037SOL    HW2  722  12.186   8.708   5.575 -0.0046  0.5426  0.9116
61038SOL     OW  723   1.553   5.774   8.986 -0.8101  0.0884 -0.5974
61038SOL    HW1  724   1.627   5.834   8.975 -1.1583  0.6550  0.0933
61038SOL    HW2  725   1.492   5.821   9.043 -1.9750 -0.1327 -1.6200
61039SOL     OW  726   1.868   5.268   8.846 -0.5554  0.5416  0.3575
61039SOL    HW1  727   1.813   5.305   8.777 -0.7707  2.0182  1.2697
61039SOL    HW2  728   1.953   5.309   8.834  0.0597 -0.8815 -0.3554
61040SOL     OW  729   6.906   3.002   4.569  0.0755  0.1918  0.5964
61040SOL    HW1  730   6.840   3.050   4.618 -0.4968  2.4863 -2.1181
61040SOL    HW2  731   6.872   2.912   4.565 -1.2407  0.5898  1.9712
61041SOL     OW  732   9.012  11.859   5.399 -0.0364  0.0537  0.4459
61041SOL    HW1  733   8.967  11.919   5.459 -1.8241 -1.8600  1.1298
61041SOL    HW2  734   8.968  11.873   5.315  1.0085  1.1800  0.0544
61042SOL     OW  735  11.474  13.308   6.915 -0.5166  0.1904 -0.1868
61042SOL    HW1  736  11.456  13.252   6.990 -0.6284  0.9085  0.3316
61042SOL    HW2  737  11.529  13.379   6.950  1.9177 -0.9768 -1.3520
61043SOL     OW  738   1.863   0.143  11.990  0.2656  0.6227  0.2594
61043SOL    HW1  739   1.937   0.142  11.928  0.2537 -0.8059  0.2440
61043SOL    HW2  740   1.786   0.133  11.935  0.0944  1.3762  0.3468
61044SOL     OW  741  11.180   9.831   6.563  0.4430  0.1690  0.4184
61044SOL    HW1  742  11.179   9.837   6.467  1.8011 -0.4330  0.3463
61044SOL    HW2  743  11.143   9.914   6.593  1.1985  0.9076 -0.6222
61045SOL     OW  744   8.920   7.420   4.333  0.0644  0.2470 -0.0016
61045SOL    HW1  745   8.936   7.412   4.239  0.6526 -0.0354  0.1180
61045SOL    HW2  746   8.886   7.334   4.359  1.1882 -0.1240  0.2860
61046SOL     OW  747  13.769  11.555   0.091 -0.1429 -0.2248  0.3733
61046SOL    HW1  748  13.820  11.551   0.172 -0.1796  0.3709  0.4273
61046SOL    HW2  749  13.833  11.577   0.023  0.0890 -1.7714  0.0474
61047SOL     OW  750  11.554   9.853   2.980  0.3414  0.3363 -0.3109
61047SOL    HW1  751  11.619   9.875   3.047  1.4651 -2.5579 -0.3068
61047SOL    HW2  752  11.517   9.937   2.954  0.6050  1.6995  3.1555
61048SOL     OW  753   0.020  12.248  10.477  0.5184 -0.0163 -0.4238
61048SOL    HW1  754   0.108  12.229  10.444  0.3995  1.8455 -2.0186
61048SOL    HW2  755   0.004  12.339  10.450 -1.1884  0.2942  1.4218
61049SOL     OW  756  11.986  12.151   2.781  0.3276  0.5979 -0.1511
61049SOL    HW1  757  12.061  12.203   2.810  0.8330 -0.1752 -0.0412
61049SOL    HW2  758  11.944  12.122   2.862  0.7168 -0.1030 -0.1896
61050SOL     OW  759   4.288  12.263   8.499  0.1803  0.0766 -0.2681
61050SOL    HW1  760   4.268  12.227   8.585  1.8769 -1.6651 -0.5263
61050SOL    HW2  761   4.212  12.317   8.477 -1.6197 -1.7702  1.0607
61051SOL     OW  762  12.264  11.810   3.156 -0.5172 -0.5660  0.0398
61051SOL    HW1  763  12.334  11.756   3.121  1.9168  2.3917 -0.1221
61051SOL    HW2  764  12.221  11.848   3.078  0.3258  0.6132  0.1159
61052SOL     OW  765   9.554   9.861   0.031 -0.6363  0.5285 -0.0706
61052SOL    HW1  766   9.503   9.803  -0.025 -0.9056 -0.3459  1.0572
61052SOL    HW2  767   9.581   9.807   0.105  2.8809  0.5982 -1.0836
61053SOL     OW  768   0.217   6.061   1.117 -0.3759 -0.6762  0.4242
61053SOL    HW1  769   0.288   6.074   1.054  1.3056 -2.7425  1.7655
61053SOL    HW2  770   0.229   6.131   1.181 -0.4809 -0.1392 -0.1294
61054SOL     OW  771   7.572   7.610   1.075 -0.0690  0.0182  0.3989
61054SOL    HW1  772   7.517   7.621   1.152 -0.6641  1.0795 -0.1513
61054SOL    HW2  773   7.512   7.623   1.001  1.1622  2.7959 -0.2392
61055SOL     OW  774   1.294  11.057  13.225 -0.0705  0.1868  0.4746
61055SOL    HW1  775   1.357  11.103  13.281  1.7832 -0.6304 -0.8347
61055SOL    HW2  776   1.334  11.058  13.138 -2.4270  0.6030 -0.6806
61056SOL     OW  777   2.158   9.788   0.516 -0.3007  0.2579  0.4147
61056SOL    HW1  778   2.209   9.757   0.591 -0.6223  1.2532  1.0639
61056SOL    HW2  779   2.220   9.841   0.465  0.0111 -0.6979 -0.2248
61057SOL     OW  780   7.892   3.760   2.941  0.2095 -0.5076 -0.7842
61057SOL    HW1  781   7.871   3.781   2.850  0.7048  3.0989 -0.2177
61057SOL    HW2  782   7.812   3.718   2.975 -0.9488  0.4304 -2.2109
61058SOL     OW  783   6.458  11.828   9.780 -0.3925 -0.0058  0.3126
61058SOL    HW1  784   6.464  11.841   9.875  0.2688 -1.0937  0.4317
61058SOL    HW2  785   6.364  11.830   9.761 -0.4674  1.9900  0.7152
61059SOL     OW  786   2.549  10.767   9.852  0.2220 -0.9026 -0.3574
61059SOL    HW1  787   2.590  10.722   9.778 -1.7904  0.3292 -2.3281
61059SOL    HW2  788   2.457  10.743   9.846 -0.5761  1.8478 -0.3163
61060SOL     OW  789  10.084   7.567   4.689  0.0689  0.2225  0.2286
61060SOL    HW1  790  10.130   7.620   4.625 -0.9081  0.1138 -0.5833
61060SOL    HW2  791  10.122   7.593   4.773  1.1637  0.5722 -0.3498
61061SOL     OW  792   4.761   5.315   6.632  0.5718  0.0640  0.0690
61061SOL    HW1  793   4.747   5.327   6.726 -0.6354 -3.1447  0.4206
61061SOL    HW2  794   4.726   5.395   6.592 -0.3023  0.8465  2.2513
61062SOL     OW  795   2.780  11.313  12.947 -0.2384 -0.4389  0.1893
61062SOL    HW1  796   2.779  11.234  12.893 -0.7306 -0.3679  0.0934
61062SOL    HW2  797   2.693  11.350  12.937 -0.2795 -0.3305  0.8897
61063SOL     OW  798  13.358   1.476   2.699  0.4946 -0.0388 -1.1396
61063SOL    HW1  799  13.340   1.397   2.648 -0.3550 -1.7887  1.6803
61063SOL    HW2  800  13.429   1.452   2.757  0.2629  1.3106 -0.2423
61064SOL     OW  801   2.979   7.837  11.740  0.2756 -0.4330  0.1298
61064SOL    HW1  802   2.902   7.805  11.693  0.9595  0.1499 -1.4863
61064SOL    HW2  803   2.998   7.769  11.805 -2.5472  0.1919  1.7422
61065SOL     OW  804   8.009  10.244   0.591 -0.4397  0.3551 -0.0686
61065SOL    HW1  805   7.981  10.201   0.672 -1.6165  2.4237  0.6857
61065SOL    HW2  806   7.930  10.249   0.537 -0.1503  0.9111 -0.4560
61066SOL     OW  807  10.513   8.618   1.513 -0.0487  0.1627  0.0473
61066SOL    HW1  808  10.435   8.656   1.555 -0.3633  1.7854 -1.8527
61066SOL    HW2  809  10.487   8.529   1.491 -1.7317  0.9332 -1.3076
61067SOL     OW  810   0.731   9.691   7.281  0.3611 -0.1185 -0.0132
61067SOL    HW1  811   0.725   9.784   7.258 -0.1182  0.3801  1.8808
61067SOL    HW2  812   0.681   9.645   7.213 -0.0102  1.0949 -0.5818
61068SOL     OW  813   7.402   0.318  13.354  0.5367  0.3329 -0.2577
61068SOL    HW1  814   7.485   0.283  13.385 -0.0562 -0.7103  0.1932
61068SOL    HW2  815   7.375   0.258  13.284  0.6262  1.2212 -1.0791
61069SOL     OW  816   4.251  12.011   2.207 -0.2607  0.3601 -0.0089
61069SOL    HW1  817   4.168  12.040   2.170 -1.9035 -3.2376  0.5032
61069SOL    HW2  818   4.305  11.989   2.132 -0.6278  0.4810 -0.3113
61070SOL     OW  819  12.665   8.728   6.604  0.2808 -0.1917  0.2916
61070SOL    HW1  820  12.667   8.693   6.693 -2.1292  0.8358  0.8091
61070SOL    HW2  821  12.753   8.762   6.589  1.1911 -1.8200  1.6500
61071SOL     OW  822  13.075   8.356  13.520  0.0618 -0.0916  0.2464
61071SOL    HW1  823  13.011   8.285  13.510  1.3004 -0.9630 -2.2114
61071SOL    HW2  824  13.153   8.325  13.475  1.0979  2.3168  0.2386
61072SOL     OW  825   8.536   5.803  12.164  0.4820 -0.3098  0.1785
61072SOL    HW1  826   8.463   5.861  12.185  1.4142  1.2033 -0.6069
61072SOL    HW2  827   8.496   5.717  12.152 -1.4097  0.7334 -1.6476
61073SOL     OW  828   8.587   4.441  11.821  0.1672 -0.2352 -0.7269
61073SOL    HW1  829   8.604   4.448  11.727 -0.3108  1.8472 -0.7100
61073SOL    HW2  830   8.672   4.416  11.859  0.6738  0.1208 -1.5954
61074SOL     OW  831   9.251  12.156  13.145  0.8932  0.0697 -0.2033
61074SOL    HW1  832   9.281  12.074  13.185  2.2745  1.1518  1.0751
61074SOL    HW2  833   9.213  12.205  13.217 -2.0765 -0.3097 -1.3680
61075SOL     OW  834  11.272  10.722   1.059 -0.1087 -0.3144  0.3479
61075SOL    HW1  835  11.197  10.666   1.080 -1.4819  0.8325 -1.1965
61075SOL    HW2  836  11.276  10.785   1.131 -0.3247 -0.6799  0.6813
61076SOL     OW  837  13.642  13.583   1.812 -0.1214  0.1833  0.0271
61076SOL    HW1  838  13.610  13.513   1.869  1.1820  0.5338  1.2310
61076SOL    HW2  839  13.563  13.615   1.767 -1.1200 -0.4052  1.2952
61077SOL     OW  840   7.484   8.632   5.060 -0.1623  0.5491 -0.1763
61077SOL    HW1  841   7.515   8.605   5.147  0.9265 -0.5581 -0.8895
61077SOL    HW2  842   7.391   8.611   5.061  0.0470 -0.4172  0.3655
61078SOL     OW  843   2.159   2.270  11.314 -0.1633 -0.2803 -0.3285
61078SOL    HW1  844   2.094   2.258  11.245 -2.1991  1.5407  1.1646
61078SOL    HW2  845   2.108   2.274  11.395  1.9345  0.0265  1.0523
61079SOL     OW  846   1.271   2.639   4.286 -0.5982  0.1232  0.1783
61079SOL    HW1  847   1.224   2.626   4.368 -1.4677  0.2420 -0.2865
61079SOL    HW2  848   1.262   2.733   4.268  1.0098  0.4161  0.7779
61080SOL     OW  849   1.981   7.158  11.144 -0.2814  0.5568  0.0603
61080SOL    HW1  850   1.897   7.141  11.100 -0.3183  0.4729  0.1622
61080SOL    HW2  851   1.963   7.139  11.236  0.5021 -1.8669 -0.2304
61081SOL     OW  852   1.127   1.797   0.933  0.0686 -1.1530 -0.3848
61081SOL    HW1  853   1.116   1.867   0.997  1.5486 -1.2126 -0.0397
61081SOL    HW2  854   1.150   1.841   0.852 -1.9125 -1.0701 -0.9577
61082SOL     OW  855   5.936   0.142   8.228 -0.1281  0.2782 -0.0830
61082SOL    HW1  856   6.026   0.167   8.249 -0.3675  1.4595 -0.3717
61082SOL    HW2  857   5.911   0.203   8.158 -0.7553 -0.8163 -0.8410
61083SOL     OW  858   4.874  13.142  13.649  0.0964 -0.0067 -0.4862
61083SOL    HW1  859   4.845  13.051  13.658 -3.7901  1.0321 -0.4049
61083SOL    HW2  860   4.854  13.164  13.558  1.4536  0.6690 -0.6359
61084SOL     OW  861  12.976  12.617   9.070  0.3124  0.5579  0.6323
61084SOL    HW1  862  12.945  12.642   8.983  1.1189  0.2803  0.2566
61084SOL    HW2  863  12.897  12.589   9.116 -0.1285  0.7344  0.0010
61085SOL     OW  864   7.821  13.994  11.008  0.1238  0.1915  0.1716
61085SOL    HW1  865   7.904  13.954  11.036  0.8572  1.0543 -0.6889
61085SOL    HW2  866   7.843  14.086  10.993 -0.4322  0.0133 -2.1890
61086SOL     OW  867   2.498   6.606  11.739 -0.0341 -0.1015 -0.6490
61086SOL    HW1  868   2.591   6.595  11.759 -0.0751  0.1249 -0.3361
61086SOL    HW2  869   2.463   6.655  11.813 -0.8404 -2.0241  0.3062
61087SOL     OW  870   5.089   8.238  13.811 -0.1280 -0.2460 -0.4274
61087SOL    HW1  871   5.069   8.264  13.721 -0.5542 -0.1107 -0.2947
61087SOL    HW2  872   5.142   8.159  13.802 -2.2956 -1.7445 -0.7689
61088SOL     OW  873  12.068  13.020   8.455  0.0934 -0.2214 -0.4733
61088SOL    HW1  874  12.118  13.098   8.434  2.0900 -1.7836 -1.9825
61088SOL    HW2  875  12.049  12.980   8.370 -2.5755 -0.4349  0.1405
61089SOL     OW  876  13.816  13.276  10.608  0.6268 -0.3777  0.2061
61089SOL    HW1  877  13.887  13.218  10.637 -1.0294 -2.4255  0.4526
61089SOL    HW2  878  13.787  13.239  10.525 -0.4729  0.0952  0.3565
61090SOL     OW  879   2.579  11.468   3.896  0.0863  0.1182 -0.1532
61090SOL    HW1  880   2.515  11.434   3.833  0.7690  1.2239 -1.4868
61090SOL    HW2  881   2.611  11.549   3.857  1.3116  0.2963  1.1354
61091SOL     OW  882   1.934  11.341  10.859  0.1902 -0.2025  0.2275
61091SOL    HW1  883   1.940  11.306  10.770 -0.7684 -0.1665  0.1394
61091SOL    HW2  884   2.023  11.370  10.880  0.7237 -1.4434 -0.2079
61092SOL     OW  885   3.041   4.579  11.298  0.4122 -0.1183 -0.0357
61092SOL    HW1  886   3.045   4.659  11.246  0.4543 -1.3583 -2.0435
61092SOL    HW2  887   2.969   4.594  11.359 -0.2209  1.0689 -1.0255
61093SOL     OW  888   9.642   7.826  11.315  0.0694 -0.1059  0.6973
61093SOL    HW1  889   9.560   7.778  11.307 -0.1406 -0.1137  2.4922
61093SOL    HW2  890   9.654   7.837  11.409  1.3415  1.2550  0.4107
61094SOL     OW  891  13.954   1.282   0.678  0.1980 -0.4764 -0.1143
61094SOL    HW1  892  13.953   1.222   0.603  0.1390 -0.5128 -0.0838
61094SOL    HW2  893  13.992   1.363   0.643  0.8387 -0.7272 -0.0109
61095SOL     OW  894   3.342  13.114   8.195  0.1822 -0.1535  0.4645
61095SOL    HW1  895   3.298  13.190   8.157  1.4378  1.6854  2.4580
61095SOL    HW2  896   3.426  13.110   8.150 -0.2308 -0.9324 -0.2539
61096SOL     OW  897   6.243  10.403   5.161 -0.6183 -0.1129 -0.2954
61096SOL    HW1  898   6.269  10.495   5.162 -0.1561 -0.2398  1.0699
61096SOL    HW2  899   6.254  10.376   5.070  1.7323  0.4979 -0.2401
61097SOL     OW  900   0.870   3.353   2.632 -0.8324  0.2128  0.0508
61097SOL    HW1  901   0.940   3.402   2.676 -0.1590 -1.4991  0.9931
61097SOL    HW2  902   0.840   3.412   2.563 -0.4636  2.1670  1.4456
61098SOL     OW  903   3.988   2.543   9.961 -0.3641 -0.4247 -0.8955
61098SOL    HW1  904   3.928   2.509  10.028  0.9104 -1.7432 -0.3668
61098SOL    HW2  905   4.059   2.583  10.011  0.4827 -1.2100 -1.4438
61099SOL     OW  906  14.074   5.661   9.292 -0.4405 -0.1780 -0.2632
61099SOL    HW1  907  14.080   5.726   9.363  1.3111 -0.0922 -0.4418
61099SOL    HW2  908  14.111   5.706   9.216  0.3266 -1.2187 -0.5155
61100SOL     OW  909  11.685   2.024   4.556  0.1123  0.3892 -0.1755
61100SOL    HW1  910  11.693   1.962   4.628  0.9314  0.3301 -0.3053
61100SOL    HW2  911  11.776   2.040   4.528 -0.2517 -0.5720 -2.0282
61101SOL     OW  912   6.358   3.168  11.611  0.1979  0.5700  0.3061
61101SOL    HW1  913   6.353   3.141  11.703  0.1858 -0.3331  0.0472
61101SOL    HW2  914   6.359   3.264  11.615 -0.5235  0.5590  1.2127
61102SOL     OW  915  13.505  13.349   9.841 -0.1850  0.0504  0.0241
61102SOL    HW1  916  13.567  13.400   9.893 -0.4940  0.9997 -0.5183
61102SOL    HW2  917  13.542  13.351   9.752  0.0551 -1.0949  0.0803
61103SOL     OW  918   2.183   4.296  13.911 -0.1927  0.3242  0.0606
61103SOL    HW1  919   2.180   4.392  13.914  1.1197  0.4363 -1.1811
61103SOL    HW2  920   2.276   4.275  13.902 -0.3929 -1.1099  1.0037
61104SOL     OW  921  13.895   2.998  11.061  0.0064 -0.1664 -0.0930
61104SOL    HW1  922  13.830   2.942  11.105  1.6355 -1.5366  0.6763
61104SOL    HW2  923  13.977   2.950  11.069  0.9862  1.1222 -1.7958
61105SOL     OW  924   7.241   5.096  12.403 -0.5084 -0.2523 -0.2406
61105SOL    HW1  925   7.224   5.133  12.316 -1.5119  0.8298  0.3874
61105SOL    HW2  926   7.324   5.135  12.430 -0.6955  0.1949 -0.3041
61106SOL     OW  927   5.970   6.715   3.402  0.7815 -0.1230  0.0710
61106SOL    HW1  928   6.042   6.687   3.458 -0.2233 -3.5116 -0.1443
61106SOL    HW2  929   5.892   6.709   3.458  0.3509  1.2573 -0.3372
61107SOL     OW  930   0.056  11.960  12.101 -0.4345  0.4879 -0.1074
61107SOL    HW1  931   0.098  11.883  12.140  1.2342  1.9699  1.2485
61107SOL    HW2  932  -0.036  11.951  12.123 -0.1760 -0.8231  0.5511
61108SOL     OW  933   7.537   8.741   7.189 -0.4894  0.1099  0.5875
61108SOL    HW1  934   7.579   8.682   7.126  0.3841  2.2063 -0.8740
61108SOL    HW2  935   7.443   8.724   7.179 -0.4153  0.7112 -1.6604
61109SOL     OW  936   9.378   8.964   5.328  0.3247 -0.2779 -0.4679
61109SOL    HW1  937   9.310   8.999   5.270 -0.6082 -0.3901  0.5223
61109SOL    HW2  938   9.400   9.037   5.386  2.1277  0.2126 -1.6890
61110SOL     OW  939  11.583   2.293   2.300  0.8010  0.1663 -0.5594
61110SOL    HW1  940  11.653   2.296   2.234 -0.3958  1.3061 -1.8504
61110SOL    HW2  941  11.505   2.271   2.251  0.0321  0.1188  0.6537
61111SOL     OW  942   7.962  11.922   0.386 -0.0212  0.4948  0.3809
61111SOL    HW1  943   7.935  11.948   0.297 -1.4500 -1.6125  0.1274
61111SOL    HW2  944   8.037  11.977   0.405  0.8469  0.4639 -2.4791
61112SOL     OW  945  13.011   6.063   7.883 -0.0493  0.1337  0.5708
61112SOL    HW1  946  12.990   6.027   7.797 -1.1688  1.3162  0.3232
61112SOL    HW2  947  13.106   6.066   7.885 -0.0195  0.5755 -0.8361
61113SOL     OW  948   6.439   2.113   6.561  0.1000 -0.2486  0.4586
61113SOL    HW1  949   6.473   2.187   6.511 -1.4781  1.1072  1.3023
61113SOL    HW2  950   6.489   2.114   6.643 -1.0900  1.0314  1.2136
61114SOL     OW  951   2.265   2.545  11.875  0.0358  0.6115  0.0966
61114SOL    HW1  952   2.338   2.501  11.918  0.7580  1.1521 -0.5704
61114SOL    HW2  953   2.215   2.584  11.947  0.2601  0.0516  0.5702
61115SOL     OW  954   7.587   7.391  10.076  0.4870 -0.2231 -0.3075
61115SOL    HW1  955   7.530   7.341  10.019 -0.7838  0.5113  0.2639
61115SOL    HW2  956   7.648   7.327  10.113 -0.3765 -1.1403 -0.4512
61116SOL     OW  957   5.377   4.734   0.110  0.2294  0.6988 -0.0294
61116SOL    HW1  958   5.294   4.691   0.131  0.2356  0.7860  0.1841
61116SOL    HW2  959   5.392   4.715   0.018 -1.7707  3.5244 -1.0925
61117SOL     OW  960   5.026   3.604   1.910 -0.2052  0.1305 -0.1857
61117SOL    HW1  961   5.047   3.577   1.999 -1.0438 -0.7088 -0.2308
61117SOL    HW2  962   4.938   3.571   1.895 -0.7370  1.7104 -0.7469
61118SOL     OW  963  13.718   2.826  11.118  0.2652  0.3902  0.5333
61118SOL    HW1  964  13.759   2.767  11.182  0.2151 -1.1720 -0.8225
61118SOL    HW2  965  13.693   2.770  11.045 -2.5141  1.6051  0.4187
61119SOL     OW  966   5.999   1.291   2.418 -0.4809 -0.5880  0.0268
61119SOL    HW1  967   6.043   1.365   2.376  0.1343 -0.7770  0.3117
61119SOL    HW2  968   5.906   1.312   2.413 -0.4942 -0.9608 -2.0844
61120SOL     OW  969   7.515   0.773   5.603  0.4381  0.0059 -0.4997
61120SOL    HW1  970   7.508   0.677   5.598 -3.5525  0.0793  0.3261
61120SOL    HW2  971   7.577   0.796   5.534 -0.3896 -3.0533 -2.4602
61121SOL     OW  972  12.910  10.757  10.870 -0.0142  0.9891  0.2146
61121SOL    HW1  973  12.996  10.727  10.840  0.1817  0.4406  1.2753
61121SOL    HW2  974  12.927  10.843  10.907  0.0011  1.0559  0.0551
61122SOL     OW  975   3.111   6.977  12.043 -0.0341  0.4143  0.0350
61122SOL    HW1  976   3.159   6.909  11.996  0.3656  0.3803  0.4868
61122SOL    HW2  977   3.173   7.048  12.054 -0.4249  0.8294 -0.3533
61123SOL     OW  978   6.441  11.517   6.426  0.4296  0.5776 -0.5097
61123SOL    HW1  979   6.508  11.516   6.494  1.7290 -1.4149 -1.6999
61123SOL    HW2  980   6.491  11.523   6.344 -1.0626  2.4758 -1.3708
61124SOL     OW  981  13.836   7.691  12.018 -0.8108 -0.3680 -0.1424
61124SOL    HW1  982  13.759   7.742  12.041 -0.5224  0.1738 -0.3540
61124SOL    HW2  983  13.873   7.736  11.943 -0.4564 -0.7977 -0.2303
61125SOL     OW  984   6.954   7.927   0.380  0.4902  0.3451  0.4443
61125SOL    HW1  985   6.964   7.934   0.285 -0.9441  1.5122  0.3405
61125SOL    HW2  986   6.996   8.006   0.414  0.5979  0.1582  0.7461
61126SOL     OW  987  11.431  12.211   6.907 -0.1737 -0.6347 -0.7064
61126SOL    HW1  988  11.361  12.249   6.961 -1.2579 -2.4121 -0.7516
61126SOL    HW2  989  11.494  12.281   6.897 -1.6568  0.8661 -0.1255
61127SOL     OW  990   0.169   3.864   1.839 -0.4296  0.4955  0.3369
61127SOL    HW1  991   0.196   3.799   1.905  0.6592  0.4843 -0.1012
61127SOL    HW2  992   0.228   3.937   1.852 -2.7133  2.2089  1.9738
61128SOL     OW  993   6.184   3.180   7.773 -0.8869 -0.1454  0.4720
61128SOL    HW1  994   6.257   3.178   7.711 -0.4004  0.0072  1.0335
61128SOL    HW2  995   6.179   3.271   7.802  0.5669 -0.6664  2.5930
61129SOL     OW  996   8.531  12.185   1.292  0.4288  0.5141  0.0943
61129SOL    HW1  997   8.606  12.164   1.237 -0.2537 -1.3392 -0.2032
61129SOL    HW2  998   8.568  12.204   1.378  1.3142  0.8392 -0.3540
61130SOL     OW  999   0.352  10.743   0.269 -0.0695  0.1739 -0.2603
61130SOL    HW1 1000   0.314  10.672   0.321  0.9127 -0.9516 -1.0418
61130SOL    HW2 1001   0.377  10.702   0.186  0.7886  1.3679 -0.6156
61131SOL     OW 1002   2.496  10.693   3.860 -0.3510 -0.0595 -0.1700
61131SOL    HW1 1003   2.560  10.728   3.922  1.8187  0.3867 -2.5006
61131SOL    HW2 1004   2.491  10.758   3.790 -2.0221 -0.9429 -0.9563
61132SOL     OW 1005  10.997   3.483   3.573  0.4006 -0.2146  0.1621
61132SOL    HW1 1006  10.977   3.437   3.654 -0.7666 -0.3693 -0.2033
61132SOL    HW2 1007  10.950   3.435   3.505 -0.1834  1.0183 -0.3456
61133SOL     OW 1008  10.726  13.111  12.815  0.0179 -0.2993 -0.1548
61133SOL    HW1 1009  10.681  13.194  12.798 -0.0433 -0.4247 -0.6219
61133SOL    HW2 1010  10.706  13.092  12.907  1.1323  0.8640  0.3561
61134SOL     OW 1011   2.496   6.112  13.692  0.3696 -0.2979  0.1655
61134SOL    HW1 1012   2.527   6.066  13.771  1.1269 -0.1256 -0.0209
61134SOL    HW2 1013   2.491   6.204  13.719 -1.1961 -0.4762  0.5537
61135SOL     OW 1014   3.380  10.852   8.743  0.1510 -0.1323  0.6337
61135SOL    HW1 1015   3.415  10.867   8.830  0.4254 -0.4443  0.5797
61135SOL    HW2 1016   3.450  10.880   8.684 -0.0299  0.0700  0.5128
61136SOL     OW 1017   3.554   2.495   1.045 -0.2661 -0.5582  0.5748
61136SOL    HW1 1018   3.461   2.515   1.045 -0.5473 -1.7069 -0.8117
61136SOL    HW2 1019   3.591   2.555   0.980 -0.1556 -0.6238  0.5775
61137SOL     OW 1020  10.584  12.213   2.327 -0.4649  0.6671  0.1021
61137SOL    HW1 1021  10.547  12.205   2.415  0.8128 -1.8172  0.5095
61137SOL    HW2 1022  10.509  12.203   2.269 -0.9254 -1.1131  0.9254
61138SOL     OW 1023   7.353   2.213   2.897  0.4339  0.2175  0.0629
61138SOL    HW1 1024   7.382   2.129   2.862  2.3638  1.3418 -1.2132
61138SOL    HW2 1025   7.422   2.240   2.957 -1.4414 -0.2782  2.6211
61139SOL     OW 1026   5.106   9.204   2.768 -0.1377 -0.5424  0.6259
61139SOL    HW1 1027   5.145   9.276   2.717 -0.7707 -0.4129  0.3216
61139SOL    HW2 1028   5.103   9.237   2.858  0.1682 -0.4370  0.6003
61140SOL     OW 1029  12.825   0.807   5.323 -0.2658 -0.1657  1.0017
61140SOL    HW1 1030  12.761   0.865   5.364 -2.5842  0.0278 -2.5206
61140SOL    HW2 1031  12.785   0.720   5.326  1.5527 -1.0290  2.9567
61141SOL     OW 1032   2.651  11.126   1.351  0.0128  0.2452 -0.4150
61141SOL    HW1 1033   2.565  11.169   1.342 -0.7263 -1.3999 -1.7927
61141SOL    HW2 1034   2.707  11.173   1.290 -0.6446 -0.3832 -1.5225
61142SOL     OW 1035   2.834   3.871   0.599  0.4631 -0.5340 -0.2442
61142SOL    HW1 1036   2.796   3.826   0.523  0.6039 -1.7212  0.3667
61142SOL    HW2 1037   2.927   3.881   0.576  0.2703  0.2044 -0.7287
61143SOL     OW 1038   6.450   9.389  13.781  0.6233  0.0268 -0.0132
61143SOL    HW1 1039   6.505   9.445  13.836 -1.0792  1.1830  0.5754
61143SOL    HW2 1040   6.511   9.350  13.718  1.8520  2.7673 -0.6425
61144SOL     OW 1041   5.703  13.019  13.209 -1.0093  0.3679  0.2240
61144SOL    HW1 1042   5.758  12.997  13.134  0.1035  2.8254  0.2172
61144SOL    HW2 1043   5.760  13.005  13.285 -1.4824 -0.2228  0.4754
61145SOL     OW 1044   3.419   7.874   2.169  0.1164  0.3817  0.1549
61145SOL    HW1 1045   3.353   7.836   2.228  2.0009 -1.1783  1.3682
61145SOL    HW2 1046   3.450   7.952   2.215  0.2744  0.2089  0.3393
61146SOL     OW 1047   3.836   9.809   6.962  0.2683  0.9094  0.2526
61146SOL    HW1 1048   3.843   9.888   7.015 -0.0819  1.4078 -0.4301
61146SOL    HW2 1049   3.926   9.780   6.948  0.3602  0.6801  1.2410
61147SOL     OW 1050  10.560   6.264   7.737 -0.2544  0.3562  0.4308
61147SOL    HW1 1051  10.584   6.194   7.797  0.5413 -0.6795 -1.0170
61147SOL    HW2 1052  10.643   6.309   7.718 -0.1573 -0.3966 -1.1275
61148SOL     OW 1053  10.987   2.750  12.365 -0.2523  0.3358  0.1529
61148SOL    HW1 1054  11.022   2.665  12.341  1.8587  0.2211  3.0638
61148SOL    HW2 1055  10.993   2.753  12.461 -2.5589  2.8297  0.3700
61149SOL     OW 1056   5.599   9.396   4.640 -0.1330 -0.2299 -0.0136
61149SOL    HW1 1057   5.597   9.482   4.684 -1.2602  0.2256 -0.8864
61149SOL    HW2 1058   5.523   9.350   4.677  0.8376 -1.1208  0.9240
61150SOL     OW 1059   9.363   1.784   9.176 -0.8856  0.1110  0.8484
61150SOL    HW1 1060   9.388   1.722   9.245 -1.7201  0.0254  1.0878
61150SOL    HW2 1061   9.281   1.823   9.207 -1.4547 -0.1740 -0.2546
61151SOL     OW 1062   0.030   7.909   5.319 -0.2614 -0.1072  0.6662
61151SOL    HW1 1063   0.064   7.875   5.236 -0.8862  1.2654 -0.1720
61151SOL    HW2 1064  -0.049   7.857   5.335 -0.0624 -0.4714  0.4984
61152SOL     OW 1065   6.330   9.267  10.548  0.3682 -0.5651 -0.4132
61152SOL    HW1 1066   6.257   9.206  10.558  0.7789 -1.3505 -1.8910
61152SOL    HW2 1067   6.289   9.353  10.543 -0.4222 -0.9543 -0.7404
61153SOL     OW 1068  13.118  10.490   8.523 -0.2528 -0.5611  0.5691
61153SOL    HW1 1069  13.038  10.542   8.517 -0.5885 -1.1518 -0.3476
61153SOL    HW2 1070  13.127  10.449   8.436  1.5481  0.2146  0.3402
61154SOL     OW 1071   7.332   9.351  12.663  0.2980 -0.0999  0.3603
61154SOL    HW1 1072   7.422   9.330  12.637 -0.0003 -0.5177 -0.3620
61154SOL    HW2 1073   7.340   9.430  12.716  1.0400  0.1463 -0.1119
61155SOL     OW 1074   8.115   4.528  12.927  0.8304  0.3224 -0.4029
61155SOL    HW1 1075   8.183   4.576  12.975  3.1165 -0.5264 -2.5605
61155SOL    HW2 1076   8.105   4.446  12.976  0.7607  0.7769  0.3639
61156SOL     OW 1077   4.204   8.471  11.583  0.3481 -0.5125 -0.0597
61156SOL    HW1 1078   4.150   8.397  11.611  0.3924  0.3440  2.5895
61156SOL    HW2 1079   4.287   8.460  11.630  0.3539  1.1647  0.4115
61157SOL     OW 1080  12.791  13.393  11.835  0.0145  0.0737  0.1406
61157SOL    HW1 1081  12.713  13.406  11.780  0.1415 -1.9686 -0.5876
61157SOL    HW2 1082  12.864  13.409  11.776  0.1446 -0.6670  0.0940
61158SOL     OW 1083   3.927  11.854  11.442  0.4469  0.1454 -0.6016
61158SOL    HW1 1084   3.905  11.782  11.501 -0.4703  1.1867  0.3847
61158SOL    HW2 1085   3.863  11.923  11.464  1.9336  1.6387 -0.7916
61159SOL     OW 1086   0.587  10.517   6.893 -0.4085  0.1058 -0.2324
61159SOL    HW1 1087   0.620  10.572   6.822  2.2484  0.2275  0.9675
61159SOL    HW2 1088   0.561  10.436   6.850 -2.8589  1.6294 -1.8138
61160SOL     OW 1089  12.668   9.393   6.708  0.3590 -0.6944 -0.2124
61160SOL    HW1 1090  12.759   9.378   6.682  0.0969 -1.1732 -0.8973
61160SOL    HW2 1091  12.617   9.340   6.647 -0.5578  1.6503 -1.6156
61161SOL     OW 1092   5.903   2.662   1.076 -0.1846  0.4774 -0.2333
61161SOL    HW1 1093   5.835   2.688   1.139 -0.1710  1.7695 -0.7339
61161SOL    HW2 1094   5.865   2.586   1.031 -0.5402  0.0638  0.7213
61162SOL     OW 1095   1.330  11.364  11.904 -0.3410  0.6619 -0.2509
61162SOL    HW1 1096   1.342  11.397  11.993  1.5408  0.6483 -0.4536
61162SOL    HW2 1097   1.376  11.280  11.903 -1.6283 -0.0739 -0.8500
61163SOL     OW 1098  13.222  10.321   4.052  0.1684  0.2633 -0.0333
61163SOL    HW1 1099  13.171  10.365   3.985  0.1490 -0.3239 -0.4142
61163SOL    HW2 1100  13.296  10.380   4.069  0.9067 -0.1862 -1.5467
61164SOL     OW 1101  11.814   4.823   4.194 -0.8581  0.3583  0.2227
61164SOL    HW1 1102  11.863   4.849   4.271 -1.2883 -0.1093  0.6592
61164SOL    HW2 1103  11.758   4.898   4.174 -1.4552  0.1212  0.9536
61165SOL     OW 1104  13.475   6.698  10.210  0.3401  0.0492  0.1089
61165SOL    HW1 1105  13.415   6.635  10.170  1.3986 -0.6215 -0.4654
61165SOL    HW2 1106  13.461   6.779  10.160  2.3197 -1.0245 -2.4165
61166SOL     OW 1107   0.962   3.005   4.162 -0.2177 -1.0382 -0.0540
61166SOL    HW1 1108   0.904   3.012   4.238  0.1386 -0.2313  0.1576
61166SOL    HW2 1109   0.963   2.912   4.141 -3.0198 -0.9226 -1.2083
61167SOL     OW 1110   6.510   0.912  10.123  0.0521 -0.2336  0.7445
61167SOL    HW1 1111   6.450   0.952  10.059  1.0570 -0.3190 -0.2817
61167SOL    HW2 1112   6.538   0.984  10.179  0.4234  0.1591  0.0605
61168SOL     OW 1113  11.665   7.032  11.400 -0.0295 -0.5248  0.6526
61168SOL    HW1 1114  11.617   7.111  11.375  1.4663  1.0023  2.3073
61168SOL    HW2 1115  11.752   7.042  11.362 -0.5175 -2.6619 -1.2605
61169SOL     OW 1116   1.325  13.830   8.634 -0.0019 -0.0843 -0.1293
61169SOL    HW1 1117   1.292  13.841   8.723 -0.1361 -0.8876 -0.0747
61169SOL    HW2 1118   1.380  13.751   8.638  1.2767  0.7611 -0.3992
61170SOL     OW 1119   1.906   8.577   4.885 -0.2727  0.3858  0.3181
61170SOL    HW1 1120   1.861   8.655   4.854  1.4491  1.6151  0.7713
61170SOL    HW2 1121   1.923   8.595   4.978 -0.6654 -0.9341  0.6622
61171SOL     OW 1122   5.759   4.031   5.370 -0.6986 -0.1543 -0.9210
61171SOL    HW1 1123   5.774   4.125   5.360  0.0102  0.0700  1.6160
61171SOL    HW2 1124   5.682   4.024   5.427  1.0941 -0.9450  1.6047
61172SOL     OW 1125  11.327   1.015   5.530  0.1084  0.0745 -0.0440
61172SOL    HW1 1126  11.296   1.084   5.589 -1.7047 -0.3371 -0.4422
61172SOL    HW2 1127  11.399   1.055   5.482 -2.3795  2.6139 -2.0031
61173SOL     OW 1128  10.244  10.442  10.189 -0.3049  0.5876 -0.4957
61173SOL    HW1 1129  10.160  10.471  10.225  0.6193  0.7447  1.6439
61173SOL    HW2 1130  10.286  10.522  10.158 -0.3157  0.6970 -0.2241
61174SOL     OW 1131   3.426  13.215   4.632 -0.0087 -0.2803  0.1348
61174SOL    HW1 1132   3.386  13.200   4.546 -1.5694  2.7908  0.2169
61174SOL    HW2 1133   3.509  13.259   4.612  0.9516 -1.9536  0.1911
61175SOL     OW 1134  11.964  11.174  13.573 -0.2146 -0.0835  0.6636
61175SOL    HW1 1135  11.911  11.106  13.614 -1.8003  1.1080  0.6960
61175SOL    HW2 1136  11.922  11.190  13.488  0.5692  0.3538  0.3416
61176SOL     OW 1137   0.625   4.805   9.201 -0.4263 -0.1539 -0.0976
61176SOL    HW1 1138   0.558   4.743   9.230 -0.8712  0.4373  0.1595
61176SOL    HW2 1139   0.617   4.807   9.105 -0.5882 -0.2937 -0.0853
61177SOL     OW 1140   1.392   5.419   6.046 -0.0992  0.1829  0.2143
61177SOL    HW1 1141   1.417   5.388   5.959 -0.7036 -1.7281  0.6747
61177SOL    HW2 1142   1.400   5.515   6.041  0.9515  0.0351 -1.5791
61178SOL     OW 1143   9.236   1.251   5.980  0.0786  0.4320 -0.6077
61178SOL    HW1 1144   9.273   1.205   5.904 -1.6846  2.3529 -2.7608
61178SOL    HW2 1145   9.157   1.292   5.947 -0.4766  1.8214  2.1909
61179SOL     OW 1146   4.444  10.076   4.984  0.2231  0.8885  0.0722
61179SOL    HW1 1147   4.466  10.021   4.909  1.3625  1.5561 -0.1104
61179SOL    HW2 1148   4.348  10.083   4.982 -0.3259 -3.3738  1.7691
61180SOL     OW 1149   9.585   8.770   1.156  0.1262 -0.1167 -0.0193
61180SOL    HW1 1150   9.636   8.709   1.209  0.1781 -0.6645 -0.6876
61180SOL    HW2 1151   9.517   8.716   1.116 -0.4445  0.4476  0.1632
61181SOL     OW 1152   4.453  13.300   5.705  0.4476 -0.6343 -0.4300
61181SOL    HW1 1153   4.380  13.243   5.682 -0.1543  0.6306 -1.8826
61181SOL    HW2 1154   4.513  13.244   5.754 -0.8742 -2.0501 -0.3425
61182SOL     OW 1155  12.569  10.598  12.776  0.1666 -0.9397  0.0983
61182SOL    HW1 1156  12.573  10.652  12.697 -2.3782 -1.8757 -0.7914
61182SOL    HW2 1157  12.588  10.658  12.848  2.0946  0.0409 -1.1409
61183SOL     OW 1158   0.859  13.387  13.887 -0.1508 -0.4553 -0.4712
61183SOL    HW1 1159   0.875  13.478  13.910 -0.5921  0.2121 -2.5646
61183SOL    HW2 1160   0.806  13.353  13.959 -1.4918  1.4646 -0.4617
61184SOL     OW 1161  10.555   4.734   3.062 -0.6853  0.3832  0.0492
61184SOL    HW1 1162  10.543   4.707   3.152 -2.2651  1.0927  0.0916
61184SOL    HW2 1163  10.553   4.830   3.065 -0.1934  0.4292 -0.6787
61185SOL     OW 1164   6.715   1.330   1.725  0.2083  0.0263  0.1223
61185SOL    HW1 1165   6.643   1.390   1.704  0.1076 -0.1928 -0.1631
61185SOL    HW2 1166   6.792   1.371   1.685  0.5101  0.9810  1.6129
61186SOL     OW 1167  11.651   4.809   1.201  0.3566 -0.2065 -0.7293
61186SOL    HW1 1168  11.714   4.754   1.155  0.5713 -1.7292  1.2465
61186SOL    HW2 1169  11.569   4.795   1.155  0.7771 -0.8439 -1.3011
61187SOL     OW 1170   7.900   5.601   2.960  0.4479 -0.0686 -0.4104
61187SOL    HW1 1171   7.839   5.653   3.012 -1.5830 -1.8253 -0.9207
61187SOL    HW2 1172   7.970   5.662   2.937 -0.7176  1.8263  0.8220
61188SOL     OW 1173   3.643   4.659   2.663  0.1268 -0.4310 -0.1817
61188SOL    HW1 1174   3.621   4.751   2.652 -0.5034 -0.6016 -0.3588
61188SOL    HW2 1175   3.655   4.626   2.574  3.1156  0.1173 -0.0880
61189SOL     OW 1176   1.091   9.969  13.651 -0.0969 -0.2077 -0.4387
61189SOL    HW1 1177   1.019   9.969  13.588 -0.0317  2.3850 -0.6429
61189SOL    HW2 1178   1.163   9.927  13.606 -0.1915  1.1967 -1.9825
61190SOL     OW 1179   1.268  12.223   9.462 -0.6476 -0.1138  0.0435
61190SOL    HW1 1180   1.284  12.139   9.419 -0.6527 -0.6031  0.9709
61190SOL    HW2 1181   1.239  12.281   9.391 -0.3239 -0.7972 -0.6656
61191SOL     OW 1182   3.640   8.898  11.967  0.2247 -0.0718 -0.5184
61191SOL    HW1 1183   3.549   8.896  11.937 -0.6036 -0.7637  1.8459
61191SOL    HW2 1184   3.658   8.990  11.983 -0.2233  0.0253 -0.5567
61192SOL     OW 1185   3.405   5.074   9.396 -0.5709  0.6509 -0.3023
61192SOL    HW1 1186   3.421   5.017   9.320  0.5140 -0.0317  0.4173
61192SOL    HW2 1187   3.487   5.122   9.407 -0.5430  0.3778  0.7289
61193SOL     OW 1188   7.179  10.888   3.347 -0.4330  0.1635 -0.0215
61193SOL    HW1 1189   7.274  10.877   3.335 -0.3186  1.2489 -0.2291
61193SOL    HW2 1190   7.171  10.939   3.427 -0.8232  0.5155 -0.2852
61194SOL     OW 1191   4.310   6.463   3.952 -0.3286  0.2044 -0.4820
61194SOL    HW1 1192   4.363   6.432   4.025  0.0610  0.1756 -0.7749
61194SOL    HW2 1193   4.226   6.418   3.962  0.0551 -0.5621 -0.6170
61195SOL     OW 1194   5.340  10.063   2.458 -0.7379  0.3229 -0.0558
61195SOL    HW1 1195   5.252  10.037   2.432 -0.9192  0.3980  0.4684
61195SOL    HW2 1196   5.363  10.135   2.399 -1.3989  0.9280  0.4012
61196SOL     OW 1197   9.701   5.226  10.471 -0.2661 -0.3764  0.0457
61196SOL    HW1 1198   9.780   5.237  10.419  0.4036 -0.5159  1.0158
61196SOL    HW2 1199   9.650   5.159  10.424  0.1352 -0.2111 -0.6341
61197SOL     OW 1200  13.447  11.539  13.800  0.0086  0.8290 -0.3018
61197SOL    HW1 1201  13.427  11.446  13.788 -0.1114  0.9652 -1.2263
61197SOL    HW2 1202  13.422  11.557  13.891  2.1024 -0.5548  0.6104
61198SOL     OW 1203   9.634   9.851   2.222  0.1948 -0.2573 -0.6647
61198SOL    HW1 1204   9.721   9.887   2.202  0.0947 -0.0318 -0.6923
61198SOL    HW2 1205   9.631   9.850   2.318  0.0563  0.1497 -0.6641
61199SOL     OW 1206  10.632  13.898   6.128  0.5053  0.2065 -0.4229
61199SOL    HW1 1207  10.698  13.963   6.152  0.9223 -0.1414 -0.6094
61199SOL    HW2 1208  10.584  13.881   6.210 -1.3812  2.6875 -0.9066
61200SOL     OW 1209   7.662  10.238  11.558 -0.0513  0.3624  0.0635
61200SOL    HW1 1210   7.754  10.212  11.570 -0.3198 -1.6802 -1.6394
61200SOL    HW2 1211   7.665  10.332  11.543  1.8297  0.2738 -0.3954
61201SOL     OW 1212   8.828   5.457   9.038  0.6094  0.1917  0.6025
61201SOL    HW1 1213   8.831   5.534   8.982  0.0974  0.5040  1.0041
61201SOL    HW2 1214   8.787   5.389   8.983  0.5598  0.3550  0.4381
61202SOL     OW 1215   0.150   0.968  13.833 -0.4007  0.1259  0.4405
61202SOL    HW1 1216   0.168   0.887  13.786 -0.5808 -0.8977  2.0634
61202SOL    HW2 1217   0.231   1.018  13.826 -0.7284  0.4627 -1.7370
61203SOL     OW 1218   8.263   9.614   6.017  0.3713  0.1277  0.4939
61203SOL    HW1 1219   8.321   9.689   6.028  1.1140 -0.5202  1.1311
61203SOL    HW2 1220   8.184   9.637   6.067  0.1284  0.9462 -0.2443
61204SOL     OW 1221   6.254  10.974   6.630  0.1350  0.3155  0.0393
61204SOL    HW1 1222   6.159  10.977   6.645 -0.2019 -1.0927 -1.6070
61204SOL    HW2 1223   6.276  11.062   6.602 -1.5345 -0.3373 -3.9116
61205SOL     OW 1224  11.644   6.127   2.435 -0.5103  0.5084 -0.3478
61205SOL    HW1 1225  11.645   6.091   2.346 -1.5062 -0.5099  0.0314
61205SOL    HW2 1226  11.675   6.056   2.490 -1.0438  0.7376  0.2573
61206SOL     OW 1227  10.560   1.864   6.018  0.3973  0.6175  0.4412
61206SOL    HW1 1228  10.487   1.901   5.968 -0.8701 -1.3768  0.6997
61206SOL    HW2 1229  10.611   1.816   5.953  1.6706  2.1820  0.2215
61207SOL     OW 1230  10.099  10.150   1.240 -0.4804  0.0094 -0.1095
61207SOL    HW1 1231  10.074  10.059   1.258  1.8927 -1.3140 -2.6332
61207SOL    HW2 1232  10.022  10.188   1.197 -1.3644 -0.9079  0.6041
61208SOL     OW 1233   4.992   2.325  11.499 -0.3504 -0.2471  0.1089
61208SOL    HW1 1234   4.937   2.396  11.466  0.7079 -0.4381 -2.3598
61208SOL    HW2 1235   4.988   2.258  11.430  3.6933  0.2035 -0.8307
61209SOL     OW 1236  12.482  10.934   4.933 -0.4536  0.1979  0.7068
61209SOL    HW1 1237  12.487  10.878   4.856 -0.4245  4.0410 -2.4489
61209SOL    HW2 1238  12.388  10.949   4.946 -0.4296  0.3749  0.6900
61210SOL     OW 1239   7.457   3.821   6.911  0.1318  0.5255 -0.0070
61210SOL    HW1 1240   7.541   3.866   6.905  0.6671 -0.4017  0.4456
61210SOL    HW2 1241   7.424   3.821   6.821  0.5386  1.0188 -0.1644
61211SOL     OW 1242  10.240   5.942  12.969 -0.0296  0.4935  0.7265
61211SOL    HW1 1243  10.220   6.031  12.997  1.6266  0.5105  2.0467
61211SOL    HW2 1244  10.158   5.894  12.978 -1.0228  1.9126 -0.2599
61212SOL     OW 1245   9.874   5.888   0.963 -0.0039  0.3980 -0.1297
61212SOL    HW1 1246   9.821   5.864   0.887  0.4776  0.1174 -0.3837
61212SOL    HW2 1247   9.812   5.926   1.025 -0.7552 -1.2435  0.1756
61213SOL     OW 1248  11.223   1.958  10.088 -0.2635 -0.6138 -0.3234
61213SOL    HW1 1249  11.187   1.921  10.007 -1.8703 -1.3722  0.6821
61213SOL    HW2 1250  11.300   1.905  10.107 -0.7552 -1.4348 -0.5638
61214SOL     OW 1251   9.908   3.230   2.243  0.1458 -0.3026  0.1252
61214SOL    HW1 1252   9.950   3.231   2.329 -0.8166 -0.6347  0.6040
61214SOL    HW2 1253   9.980   3.211   2.182  0.5679 -1.6505  1.0051
61215SOL     OW 1254  10.728   9.849   1.616 -0.1360  0.2080 -0.0401
61215SOL    HW1 1255  10.820   9.835   1.590  0.1746  0.7912  0.7144
61215SOL    HW2 1256  10.723   9.942   1.637 -0.6955  0.0046  0.7529
61216SOL     OW 1257   5.814   0.982   5.379 -0.3255  0.2752  0.2594
61216SOL    HW1 1258   5.874   0.908   5.394  0.2200  1.1707  3.2497
61216SOL    HW2 1259   5.871   1.054   5.353 -0.3039  0.6327  1.2488
61217SOL     OW 1260   0.310   2.055   5.840 -0.4654  0.0677 -0.2911
61217SOL    HW1 1261   0.263   2.129   5.877 -0.7118  0.5243 -1.4796
61217SOL    HW2 1262   0.329   2.081   5.750  0.5970 -0.7859 -0.3379
61218SOL     OW 1263  10.774   1.863   3.074 -0.1076 -0.4072  0.2586
61218SOL    HW1 1264  10.744   1.809   3.147  1.3973  0.5071  1.6271
61218SOL    HW2 1265  10.860   1.894   3.101  0.6367 -0.2573 -2.0545
61219SOL     OW 1266   1.740   7.974  12.977  0.1384 -0.3822 -0.0138
61219SOL    HW1 1267   1.652   8.003  12.953  1.0866  0.2395 -3.3253
61219SOL    HW2 1268   1.789   8.055  12.990  0.4832 -0.7146  0.8453
61220SOL     OW 1269   2.801   8.804   9.799 -0.0906 -0.4147  0.0738
61220SOL    HW1 1270   2.780   8.742   9.728  1.0400  0.0048 -0.6722
61220SOL    HW2 1271   2.896   8.815   9.792 -0.4362  3.1563 -1.3387
61221SOL     OW 1272   0.362   4.898   6.663 -0.4884  0.1996 -0.1929
61221SOL    HW1 1273   0.280   4.948   6.663 -0.2604  0.5779  0.5084
61221SOL    HW2 1274   0.406   4.925   6.582  0.1113  1.9454  0.6709
61222SOL     OW 1275  10.696   9.129  13.558 -0.4864 -0.5497  0.4187
61222SOL    HW1 1276  10.771   9.102  13.611 -0.5710  0.8822  1.3169
61222SOL    HW2 1277  10.689   9.061  13.490  2.1587 -0.2641 -0.2551
61223SOL     OW 1278   7.287  13.827   4.777  0.6145  0.1703  0.1475
61223SOL    HW1 1279   7.334  13.838   4.694 -0.0927 -1.0927 -0.4522
61223SOL    HW2 1280   7.265  13.734   4.780 -0.1847  0.3700  1.3220
61224SOL     OW 1281   7.200   2.872   8.739  0.0712 -0.2510  0.6198
61224SOL    HW1 1282   7.156   2.845   8.658  1.5930 -1.2638  0.0843
61224SOL    HW2 1283   7.159   2.819   8.807 -1.6748  1.0738  0.6700
61225SOL     OW 1284  10.360   3.636   4.005  0.1797 -0.0281 -0.0404
61225SOL    HW1 1285  10.313   3.615   3.925 -0.3043  0.3110  0.1446
61225SOL    HW2 1286  10.449   3.658   3.977  0.2558 -0.7593 -0.3865
61226SOL     OW 1287  13.709  12.808  12.300  0.1554  0.2429  0.1082
61226SOL    HW1 1288  13.800  12.832  12.316  0.6252 -0.5507 -1.1551
61226SOL    HW2 1289  13.707  12.788  12.206 -1.7470  2.0364 -0.2917
61227SOL     OW 1290  13.911   2.365   5.170  0.2703  0.0005  0.2087
61227SOL    HW1 1291  13.911   2.279   5.211 -0.3106  0.2765  0.8041
61227SOL    HW2 1292  13.973   2.416   5.222  2.1278 -0.5852 -1.3272
61228SOL     OW 1293   1.330  10.677  11.958  0.5393  0.0437  0.2590
61228SOL    HW1 1294   1.415  10.655  11.920  1.1000  0.5574  1.1658
61228SOL    HW2 1295   1.310  10.605  12.018  0.4684  0.0532  0.2471
61229SOL     OW 1296   3.973   9.495   5.336 -0.7428 -0.7233  0.6639
61229SOL    HW1 1297   4.018   9.493   5.252 -0.9241 -0.8764  0.5697
61229SOL    HW2 1298   3.948   9.587   5.349 -2.2297 -0.9589 -0.2584
61230SOL     OW 1299   9.000   8.025  13.883  0.1508 -0.7374  0.3845
61230SOL    HW1 1300   8.972   8.057  13.968  0.5911  0.2268  0.1770
61230SOL    HW2 1301   8.955   8.081  13.820  0.5431 -0.8455 -0.0013
61231SOL     OW 1302  13.999   1.378   2.295 -0.0451  0.2986 -0.1492
61231SOL    HW1 1303  14.029   1.323   2.367  0.3649 -1.1898 -1.4122
61231SOL    HW2 1304  13.995   1.319   2.219  2.5769  2.4197 -2.1276
61232SOL     OW 1305   3.943  13.608  12.424 -0.1439 -0.4767  0.3900
61232SOL    HW1 1306   3.889  13.565  12.357 -1.0845  0.2987  0.6287
61232SOL    HW2 1307   3.902  13.693  12.437  1.4688  0.3511  0.2137
61233SOL     OW 1308   4.177   1.625   8.988 -0.2865 -0.5737  0.4455
61233SOL    HW1 1309   4.097   1.576   9.010 -0.0810 -0.2534  2.0455
61233SOL    HW2 1310   4.226   1.628   9.070  0.9289  0.0692 -0.2814
61234SOL     OW 1311  11.577  13.274   6.634  0.4837 -0.0756 -0.3123
61234SOL    HW1 1312  11.668  13.244   6.626  0.0787 -1.9306  1.1511
61234SOL    HW2 1313  11.581  13.348   6.695  1.1336  0.6827 -1.2544
61235SOL     OW 1314  13.596   0.287  11.072 -0.1670  0.2043  0.0138
61235SOL    HW1 1315  13.594   0.381  11.054  1.9959  0.4073  0.5679
61235SOL    HW2 1316  13.688   0.267  11.086 -0.5190 -2.0930 -0.4683
61236SOL     OW 1317   6.671   9.488   4.126 -0.4172  0.2261 -0.1554
61236SOL    HW1 1318   6.614   9.503   4.050 -0.4565 -2.5199 -0.7874
61236SOL    HW2 1319   6.759   9.478   4.089 -0.6258 -2.4481 -0.0979
61237SOL     OW 1320   5.405  12.297   6.306 -0.4331 -0.0432 -0.1653
61237SOL    HW1 1321   5.318  12.334   6.324 -0.9626 -2.1753  2.3870
61237SOL    HW2 1322   5.390  12.237   6.232 -0.9804  0.1530 -0.2210
61238SOL     OW 1323   8.964   9.973  11.775 -0.5851  0.6465 -0.6743
61238SOL    HW1 1324   8.992   9.918  11.848  1.0381  1.7774 -0.3931
61238SOL    HW2 1325   8.878   9.939  11.751  0.0984 -1.6175 -0.1396
61239SOL     OW 1326   4.510   5.659   9.756 -0.3509 -0.1096 -0.0610
61239SOL    HW1 1327   4.492   5.632   9.846 -1.4770  0.1056 -0.2090
61239SOL    HW2 1328   4.457   5.601   9.702 -1.2727  1.0680 -0.4711
61240SOL     OW 1329  13.409  11.143   5.301  0.7495  0.4661 -0.0969
61240SOL    HW1 1330  13.478  11.157   5.236 -1.2862  1.3732 -2.2213
61240SOL    HW2 1331  13.381  11.231   5.325  0.3876  0.1122  0.8076
61241SOL     OW 1332   9.358  12.284   1.270 -0.3708 -0.1905  0.3440
61241SOL    HW1 1333   9.443  12.294   1.314 -0.6631  0.7923  0.7159
61241SOL    HW2 1334   9.294  12.318   1.333 -0.9315  0.0948 -0.3575
61242SOL     OW 1335   4.532  10.066  13.255  0.0477  0.0257  0.1078
61242SOL    HW1 1336   4.612  10.022  13.283  0.0276  0.4063  0.7900
61242SOL    HW2 1337   4.500  10.014  13.182  0.7326 -0.3263  0.0503
61243SOL     OW 1338  12.201   8.574   8.437 -0.0892  0.1265 -0.3097
61243SOL    HW1 1339  12.182   8.554   8.529  0.3304  0.4400 -0.1521
61243SOL    HW2 1340  12.261   8.648   8.440 -1.6389  1.4780 -0.8920
61244SOL     OW 1341   5.795  12.243   9.017  0.2368 -0.5257  0.1488
61244SOL    HW1 1342   5.857  12.308   8.982 -0.3763 -0.0088  0.0026
61244SOL    HW2 1343   5.760  12.285   9.096  0.0522 -0.8042  0.2137
61245SOL     OW 1344  12.383  11.790   8.790 -0.2460  0.0723 -0.2130
61245SOL    HW1 1345  12.327  11.752   8.723  0.0551  0.2343 -0.5630
61245SOL    HW2 1346  12.447  11.842   8.741  1.0742 -1.1986  0.0555
61246SOL     OW 1347   9.623   7.800   2.337  0.7086  0.0250 -0.2297
61246SOL    HW1 1348   9.674   7.880   2.324  0.0153  0.7581  1.3210
61246SOL    HW2 1349   9.534   7.824   2.313  0.7581 -0.7701 -1.2902
61247SOL     OW 1350   9.455   2.763   7.278  0.0777  0.3817  0.6493
61247SOL    HW1 1351   9.412   2.789   7.359  0.6558  0.4703  0.9266
61247SOL    HW2 1352   9.414   2.679   7.256 -0.8582  0.8805  0.4414
61248SOL     OW 1353   5.667   0.618   4.499  0.0271  0.4175  0.0648
61248SOL    HW1 1354   5.614   0.672   4.558  0.2812  0.4473  0.2721
61248SOL    HW2 1355   5.688   0.540   4.550 -1.0830 -0.2922 -0.5465
61249SOL     OW 1356   4.895   0.376   1.716  0.1767 -0.2052  0.3629
61249SOL    HW1 1357   4.813   0.327   1.706 -0.0179  0.5678 -2.5290
61249SOL    HW2 1358   4.963   0.309   1.711 -0.1932 -0.5490 -0.1692
61250SOL     OW 1359   7.839   4.614   5.830  0.0602 -0.2190  0.1708
61250SOL    HW1 1360   7.920   4.571   5.803 -0.7246 -1.5875 -0.1364
61250SOL    HW2 1361   7.866   4.678   5.896  1.7017  1.3273 -1.8729
61251SOL     OW 1362   9.306  13.018  10.001  0.2458 -0.0478 -0.1204
61251SOL    HW1 1363   9.351  12.988   9.922 -0.1277 -1.0011  0.0143
61251SOL    HW2 1364   9.215  12.991   9.990  0.0927  0.2102  0.4346
61252SOL     OW 1365   7.735   0.155  10.918  0.1899  0.1283 -0.3500
61252SOL    HW1 1366   7.670   0.096  10.881  0.9364 -1.2125  0.3721
61252SOL    HW2 1367   7.692   0.192  10.995  0.3500 -1.0379  0.3420
61253SOL     OW 1368   2.636  12.462   9.811 -0.1716  0.0172 -0.1014
61253SOL    HW1 1369   2.542  12.468   9.830 -0.1142 -1.4734  0.8099
61253SOL    HW2 1370   2.667  12.553   9.813 -1.4914  0.4859  0.0682
61254SOL     OW 1371   4.298   6.043   2.598 -0.3386  0.4134  0.4794
61254SOL    HW1 1372   4.390   6.056   2.623 -0.2454  1.5667 -0.3868
61254SOL    HW2 1373   4.302   5.993   2.517 -0.4931  0.2236  0.5884
61255SOL     OW 1374  11.232  10.973  11.343  0.1602  0.0083 -0.4660
61255SOL    HW1 1375  11.265  10.936  11.424 -0.6490 -0.6791 -0.4285
61255SOL    HW2 1376  11.289  11.048  11.325  1.1289 -0.5847  0.0603
61256SOL     OW 1377   1.567  10.582   3.788 -0.0919 -0.3783  0.2643
61256SOL    HW1 1378   1.653  10.599   3.827  0.3777 -0.5470 -0.6653
61256SOL    HW2 1379   1.585  10.519   3.717 -0.8460  0.2583 -0.5149
61257SOL     OW 1380   5.645   3.113   1.742  0.3333  0.4432 -0.8850
61257SOL    HW1 1381   5.641   3.183   1.676  1.5112 -0.4951 -2.0005
61257SOL    HW2 1382   5.656   3.160   1.825  2.2998  1.6077 -1.7194
61258SOL     OW 1383  13.480   5.057   4.489  0.5377  0.3015  0.6006
61258SOL    HW1 1384  13.492   5.121   4.559  0.3767 -0.5367  1.4206
61258SOL    HW2 1385  13.385   5.053   4.476  0.2795 -1.6467  2.4252
61259SOL     OW 1386   7.088  13.266   7.596  0.4297 -0.5843 -0.0857
61259SOL    HW1 1387   7.002  13.292   7.629  0.4267 -0.9245  0.1820
61259SOL    HW2 1388   7.087  13.171   7.599  0.2362 -0.6562 -1.5785
61260SOL     OW 1389   6.045  10.220   0.470  0.2697 -0.0506 -0.1758
61260SOL    HW1 1390   6.082  10.233   0.558  1.1127  0.1905 -0.5557
61260SOL    HW2 1391   5.972  10.281   0.466 -1.8426 -2.2630  1.4956
61261SOL     OW 1392   0.981  12.787   8.292 -0.8199  0.0465 -0.2997
61261SOL    HW1 1393   0.974  12.747   8.379  0.1403 -1.2205 -0.7724
61261SOL    HW2 1394   0.926  12.733   8.236 -0.3072 -0.0208 -0.7516
61262SOL     OW 1395  11.409   7.794  11.512 -0.3012  0.0387 -0.5235
61262SOL    HW1 1396  11.374   7.706  11.523  2.7842 -1.5274 -2.0955
61262SOL    HW2 1397  11.449   7.815  11.596  1.6815 -1.4547 -1.0386
61263SOL     OW 1398   0.245   9.560   7.909  0.2965 -0.4904  0.3129
61263SOL    HW1 1399   0.204   9.485   7.866  0.1728  0.5525 -1.5109
61263SOL    HW2 1400   0.233   9.632   7.847  0.0569  1.1411  2.1735
61264SOL     OW 1401   8.045   4.792  13.998 -0.8820 -0.1366  0.2551
61264SOL    HW1 1402   8.129   4.784  13.955 -1.7548 -0.4165 -1.4875
61264SOL    HW2 1403   8.025   4.886  13.994 -0.1880  0.1116  1.6976
61265SOL     OW 1404   4.439   4.173   8.055 -0.0344 -0.1225  0.2301
61265SOL    HW1 1405   4.392   4.231   7.995  1.7392  0.6262 -0.4964
61265SOL    HW2 1406   4.500   4.231   8.101 -0.9543 -0.7691  2.4021
61266SOL     OW 1407   0.733   2.702   1.920 -0.1075  0.0075 -0.3866
61266SOL    HW1 1408   0.742   2.770   1.987  0.3678  0.5397 -0.9758
61266SOL    HW2 1409   0.821   2.691   1.885 -0.6044  0.8689 -2.0009
61267SOL     OW 1410  13.755   6.537   2.985 -0.0724 -0.5566 -0.2569
61267SOL    HW1 1411  13.833   6.581   2.952  0.8868 -0.4179  2.0403
61267SOL    HW2 1412  13.772   6.444   2.971  1.1382 -0.6168  1.4444
61268SOL     OW 1413   9.851   5.670   0.256 -0.3769  0.4201 -0.1273
61268SOL    HW1 1414   9.930   5.721   0.275 -0.1084  0.6226 -1.6134
61268SOL    HW2 1415   9.875   5.579   0.273  0.1703  0.4866 -0.5349
61269SOL     OW 1416  13.325   5.927   2.519 -0.5577 -0.1725 -0.0194
61269SOL    HW1 1417  13.243   5.953   2.477 -0.6538  0.1448  0.3548
61269SOL    HW2 1418  13.390   5.931   2.449 -0.7461  0.1850 -0.1784
61270SOL     OW 1419   1.749   0.331  11.526  0.2952 -0.1117  0.2339
61270SOL    HW1 1420   1.825   0.274  11.524  1.2965  1.1767  0.0269
61270SOL    HW2 1421   1.762   0.391  11.453 -0.4062  0.7652  0.8032
61271SOL     OW 1422   1.662  11.594   3.657 -0.1498 -0.5911 -0.6401
61271SOL    HW1 1423   1.750  11.560   3.672  0.1620  1.1217  2.1244
61271SOL    HW2 1424   1.604  11.531   3.700  0.1046  0.2397  0.9927
61272SOL     OW 1425   9.077   3.554   2.754  0.0063  0.3902  0.0802
61272SOL    HW1 1426   8.986   3.567   2.727 -0.6433  0.7203  2.2345
61272SOL    HW2 1427   9.114   3.642   2.754 -0.1035  0.4431  0.5105
61273SOL     OW 1428   6.925   7.364   0.944  0.1469 -0.8440 -0.2001
61273SOL    HW1 1429   6.905   7.352   1.037  0.7286 -1.7795 -0.1800
61273SOL    HW2 1430   6.845   7.401   0.907 -0.3938 -1.2637  0.5164
61274SOL     OW 1431  10.309   6.722   5.520  0.2540 -0.9744 -0.1211
61274SOL    HW1 1432  10.255   6.765   5.587  1.0181  0.1067 -0.1575
61274SOL    HW2 1433  10.256   6.723   5.441  0.0252 -0.6302  0.0366
61275SOL     OW 1434   4.953   3.056   5.381 -0.1891  0.8697  0.3200
61275SOL    HW1 1435   4.978   3.043   5.472 -0.2758  0.2369  0.2619
61275SOL    HW2 1436   4.869   3.010   5.372  0.4936 -0.3002 -0.4091
61276SOL     OW 1437   2.981   1.205   8.160  0.2886  0.2299  0.0013
61276SOL    HW1 1438   2.983   1.223   8.254  2.7985  0.9387 -0.1170
61276SOL    HW2 1439   2.968   1.290   8.119 -0.3242 -0.0128 -0.3251
61277SOL     OW 1440  13.278   9.095   5.640 -0.0575  0.2151 -0.1073
61277SOL    HW1 1441  13.318   9.055   5.563  0.4454 -0.3165  0.4270
61277SOL    HW2 1442  13.277   9.026   5.706 -3.3807 -0.3602 -0.5642
61278SOL     OW 1443   0.303  11.146   0.939  0.1274  0.0307 -0.1046
61278SOL    HW1 1444   0.367  11.205   0.900  0.3754  0.7154  1.2750
61278SOL    HW2 1445   0.316  11.156   1.034 -1.7333 -0.1226  0.1978
61279SOL     OW 1446   9.922  10.709   3.092 -0.1740 -0.1854 -0.2036
61279SOL    HW1 1447   9.870  10.632   3.069  0.5846 -1.2680  1.5203
61279SOL    HW2 1448   9.866  10.760   3.150 -0.4550  0.2696 -0.8681
61280SOL     OW 1449   0.101   7.653  11.027 -0.0979  0.4824  0.4798
61280SOL    HW1 1450   0.031   7.702  11.071  0.9365 -0.3290  3.1689
61280SOL    HW2 1451   0.060   7.569  11.004 -0.6631  0.9343 -0.2024
61281SOL     OW 1452   2.005   2.208  14.006 -0.1083  0.3471 -0.0162
61281SOL    HW1 1453   2.003   2.253  14.090 -0.5880  0.4443 -0.0781
61281SOL    HW2 1454   2.028   2.118  14.027  1.9343  0.8312  0.0087
61282SOL     OW 1455   1.853   6.180   6.860  0.5161  0.5034 -0.2956
61282SOL    HW1 1456   1.908   6.212   6.931 -0.7821 -1.0417  1.4727
61282SOL    HW2 1457   1.820   6.096   6.890 -0.9260  0.2834 -2.2915
61283SOL     OW 1458  13.944   2.611   7.899  0.2216  0.2695  0.3532
61283SOL    HW1 1459  14.017   2.619   7.961 -0.2796 -0.3480  1.0463
61283SOL    HW2 1460  13.953   2.523   7.861  0.1557  0.3985  0.0349
61284SOL     OW 1461   0.707  11.153   7.076  0.3583  0.2975  0.5475
61284SOL    HW1 1462   0.760  11.225   7.042  0.7934  0.7027  2.0304
61284SOL    HW2 1463   0.768  11.079   7.082  0.3664  0.3194  0.7456
61285SOL     OW 1464   7.606   2.327  10.561 -0.2370 -0.0192  0.2647
61285SOL    HW1 1465   7.535   2.273  10.595 -0.8388  1.7355  1.9686
61285SOL    HW2 1466   7.642   2.371  10.638  1.2588  0.8246 -0.8488
61286SOL     OW 1467   0.602   2.494   4.825 -0.0294 -0.2903 -0.6019
61286SOL    HW1 1468   0.567   2.510   4.913  0.0814  0.4317 -0.6856
61286SOL    HW2 1469   0.532   2.447   4.780 -0.2252 -0.3542 -0.2370
61287SOL     OW 1470   7.860  12.789   3.021 -0.6684 -0.7243 -0.5919
61287SOL    HW1 1471   7.874  12.707   2.973  1.0646 -0.2911 -0.8977
61287SOL    HW2 1472   7.943  12.836   3.013 -1.4441  0.8287  0.0479
61288SOL     OW 1473   9.435   6.804   4.113  0.3629 -0.0266  0.6437
61288SOL    HW1 1474   9.480   6.831   4.193 -1.7959  1.9531  1.3214
61288SOL    HW2 1475   9.357   6.757   4.145  1.3179 -2.5044 -0.4484
61289SOL     OW 1476   0.018   4.325   6.325  0.0148  0.3815  0.1801
61289SOL    HW1 1477  -0.046   4.322   6.395 -1.0015  0.4107 -0.7304
61289SOL    HW2 1478   0.100   4.296   6.366 -0.7576 -0.5007  1.1509
61290SOL     OW 1479   3.028   4.172   2.226  0.1161 -0.3217 -0.1004
61290SOL    HW1 1480   3.003   4.211   2.142 -1.4393  0.4665  0.6800
61290SOL    HW2 1481   3.115   4.206   2.244 -1.1932  3.0251  0.5869
61291SOL     OW 1482   3.065   8.199   2.743  0.1735 -0.1050  0.0843
61291SOL    HW1 1483   3.098   8.289   2.741  0.0375 -0.0568 -0.1515
61291SOL    HW2 1484   2.971   8.209   2.758  0.1828 -0.2147  0.2144
61292SOL     OW 1485   1.202   0.047   0.859 -0.4687  0.0629  0.0937
61292SOL    HW1 1486   1.111   0.027   0.835 -0.2588  0.9963 -1.7084
61292SOL    HW2 1487   1.247  -0.037   0.855 -1.3531 -0.5469  1.7369
61293SOL     OW 1488   7.962   6.581   9.475  0.7343 -0.1057 -0.0386
61293SOL    HW1 1489   7.973   6.676   9.486  1.1708 -0.0886 -0.5586
61293SOL    HW2 1490   7.905   6.573   9.398  0.2578 -0.2597  0.3288
61294SOL     OW 1491  12.375   5.534   4.186  0.0134 -0.4320 -0.1700
61294SOL    HW1 1492  12.436   5.465   4.159  1.5563 -0.7773  3.5052
61294SOL    HW2 1493  12.313   5.489   4.244 -0.3119  0.8536  0.5218
61295SOL     OW 1494  13.766  11.829  13.905  0.6025  0.1191  0.4324
61295SOL    HW1 1495  13.704  11.878  13.851  1.6147  2.3915  1.2424
61295SOL    HW2 1496  13.750  11.737  13.881 -1.1197  0.8152 -1.3987
61296SOL     OW 1497   3.094   1.376   0.372 -0.3218 -0.3117 -0.1389
61296SOL    HW1 1498   3.120   1.288   0.346 -0.7789 -0.3092 -0.6267
61296SOL    HW2 1499   3.166   1.433   0.346 -0.6700 -0.3407 -1.2170
61297SOL     OW 1500   8.257   3.681  10.193 -0.0038 -0.7055  0.0794
61297SOL    HW1 1501   8.266   3.723  10.108  0.1227 -0.5353  0.1770
61297SOL    HW2 1502   8.196   3.737  10.242  1.8736  0.6143  1.0080
61298SOL     OW 1503   6.307   2.057  11.411  0.2452 -0.0488 -0.2202
61298SOL    HW1 1504   6.292   2.120  11.341 -2.3062 -1.0074 -0.6682
61298SOL    HW2 1505   6.357   2.105  11.477 -0.4364  2.0065 -1.1174
61299SOL     OW 1506   8.568  14.064   4.545  0.3818  0.0582  0.8672
61299SOL    HW1 1507   8.568  14.025   4.458  0.4368 -0.8933  1.2792
61299SOL    HW2 1508   8.660  14.068   4.571  0.2928 -0.8062  1.3628
61300SOL     OW 1509  10.927   7.627   5.944 -0.4267 -0.8493 -0.3618
61300SOL    HW1 1510  10.868   7.699   5.969  0.5365  0.3999 -1.5289
61300SOL    HW2 1511  10.992   7.624   6.015  0.2168  0.2645 -0.8698
61301SOL     OW 1512   1.774   5.030   0.306  0.1976  0.7718 -0.4741
61301SOL    HW1 1513   1.711   4.971   0.264  0.9718  0.3512 -1.0677
61301SOL    HW2 1514   1.733   5.116   0.303  0.2401  0.7531 -2.1207
61302SOL     OW 1515   6.598   9.403   2.289 -0.4175 -0.3662  0.1408
61302SOL    HW1 1516   6.646   9.397   2.372  0.8434 -0.0559 -0.5507
61302SOL    HW2 1517   6.547   9.321   2.285 -1.5224  0.1751  1.8089
61303SOL     OW 1518   7.406   8.028   2.332 -0.4050 -0.1900  0.6307
61303SOL    HW1 1519   7.494   8.010   2.301 -0.5877 -1.2167  0.6756
61303SOL    HW2 1520   7.349   7.976   2.275 -0.7288 -2.4677  2.8334
61304SOL     OW 1521  13.294  10.049   3.924 -0.1595 -0.5071 -0.0373
61304SOL    HW1 1522  13.324  10.095   3.845 -0.9230 -3.4979 -2.2620
61304SOL    HW2 1523  13.243  10.114   3.972  0.5184  1.5002 -1.8931
61305SOL     OW 1524  13.907  11.559   8.688  0.1987  0.0204 -0.2719
61305SOL    HW1 1525  13.830  11.561   8.631 -1.4065  0.7925  1.7796
61305SOL    HW2 1526  13.946  11.473   8.673 -2.7302 -1.5921  0.6215
61306SOL     OW 1527   0.699  10.035   9.913 -0.3164  0.4156 -0.1373
61306SOL    HW1 1528   0.644   9.970   9.869  1.7816 -1.4377 -0.1422
61306SOL    HW2 1529   0.666  10.119   9.880 -2.1260 -0.6680 -1.2995
61307SOL     OW 1530   9.693   1.187   1.851  0.4105 -0.1146 -0.0819
61307SOL    HW1 1531   9.750   1.126   1.896  0.8344 -1.9042 -2.7938
61307SOL    HW2 1532   9.724   1.187   1.760 -2.9951 -0.1526 -1.4152
61308SOL     OW 1533   2.768   7.818   3.005 -0.6598  0.0110 -0.9281
61308SOL    HW1 1534   2.685   7.864   2.998  0.5392  2.6455  0.5826
61308SOL    HW2 1535   2.780   7.804   3.099  1.3956  1.4041 -0.9092
61309SOL     OW 1536   2.276   3.834   1.954  0.0626  0.0484  0.6002
61309SOL    HW1 1537   2.258   3.923   1.985  0.4378  0.3388 -0.0009
61309SOL    HW2 1538   2.218   3.779   2.006  0.4981  0.5423  1.6414
61310SOL     OW 1539  11.234   9.567   9.393  0.0528  0.3622  0.0608
61310SOL    HW1 1540  11.212   9.660   9.384  0.3675  0.4865  0.5565
61310SOL    HW2 1541  11.252   9.538   9.304 -2.9149  0.0431 -0.5550
61311SOL     OW 1542   9.284  12.992   1.356 -0.6338  0.0565  0.1509
61311SOL    HW1 1543   9.237  13.052   1.297  0.6949 -0.9657 -2.0532
61311SOL    HW2 1544   9.321  13.049   1.423 -1.4956  1.3897 -0.4610
61312SOL     OW 1545   0.249   7.326  11.730 -0.2518  0.3059 -0.3217
61312SOL    HW1 1546   0.240   7.372  11.813 -0.9841  0.1812 -0.3216
61312SOL    HW2 1547   0.192   7.374  11.670 -1.2667 -0.7634 -0.2430
61313SOL     OW 1548  10.750  10.138   4.469  0.3686 -0.1692 -0.0468
61313SOL    HW1 1549  10.831  10.183   4.492 -0.0894 -0.8533  3.5640
61313SOL    HW2 1550  10.758  10.052   4.510 -0.3185 -2.1391 -3.6491
61314SOL     OW 1551   7.608  12.017  10.856 -0.1170 -0.1229  0.8583
61314SOL    HW1 1552   7.604  11.936  10.805  0.0741  0.0547  0.5547
61314SOL    HW2 1553   7.574  11.993  10.942  1.3822 -0.8922  1.2624
61315SOL     OW 1554  12.828   3.694   7.501  0.1247  0.4616  0.1936
61315SOL    HW1 1555  12.811   3.788   7.512 -2.8112  0.1466 -0.7703
61315SOL    HW2 1556  12.829   3.659   7.589  2.0826  1.4537  0.6269
61316SOL     OW 1557  12.588  11.240   7.812  0.1158 -0.1840  0.3204
61316SOL    HW1 1558  12.500  11.253   7.776  0.4976  0.0488 -0.5634
61316SOL    HW2 1559  12.588  11.150   7.843 -0.0095 -0.6450 -0.9585
61317SOL     OW 1560   7.850  13.202   1.040  0.3205  0.5932 -0.4548
61317SOL    HW1 1561   7.797  13.135   0.995 -1.5870  1.1823  0.7899
61317SOL    HW2 1562   7.829  13.283   0.993  0.5451  0.7438 -0.2925
61318SOL     OW 1563   2.144  13.059   4.402 -0.0315  0.4870 -0.2018
61318SOL    HW1 1564   2.049  13.054   4.399 -0.0611  0.3055  0.7964
61318SOL    HW2 1565   2.166  13.059   4.495  0.9419  0.6046 -0.4147
61319SOL     OW 1566   3.698   1.238  13.407 -0.2198  0.1726 -0.0003
61319SOL    HW1 1567   3.690   1.325  13.370  2.1919  0.9220  1.0564
61319SOL    HW2 1568   3.675   1.249  13.499 -1.6974 -0.7209 -0.2333
61320SOL     OW 1569   3.022   5.818  11.982  0.4880 -0.0768  0.0372
61320SOL    HW1 1570   3.016   5.750  12.049  0.2872 -1.6543 -1.5155
61320SOL    HW2 1571   2.947   5.875  11.998 -0.4602 -1.3396  0.1910
61321SOL     OW 1572   8.949   3.208   8.794  0.2581 -0.0522  0.1345
61321SOL    HW1 1573   8.956   3.116   8.819  0.5157 -1.4506 -4.1660
61321SOL    HW2 1574   9.039   3.238   8.787  0.3161 -0.4586 -1.2245
61322SOL     OW 1575  10.405  11.706   1.842 -0.3225 -0.1666  0.1092
61322SOL    HW1 1576  10.477  11.644   1.838  0.9514  1.2218  0.4113
61322SOL    HW2 1577  10.327  11.653   1.857  0.9226 -1.5554  2.0136
61323SOL     OW 1578  11.112   0.168   0.107  0.3876  0.0720 -0.3046
61323SOL    HW1 1579  11.082   0.126   0.188  0.8726  0.0635 -0.1223
61323SOL    HW2 1580  11.162   0.244   0.137  0.8124 -0.0959 -0.5855
61324SOL     OW 1581   0.607   5.816  13.622 -0.4024 -0.4129  0.0745
61324SOL    HW1 1582   0.586   5.822  13.715  0.9537 -0.5083  0.4055
61324SOL    HW2 1583   0.532   5.857  13.578 -1.7803 -1.7399  1.0980
61325SOL     OW 1584   1.773   6.109   7.341 -0.3520  0.7880 -0.1549
61325SOL    HW1 1585   1.739   6.104   7.431 -0.1345 -0.8708 -0.1224
61325SOL    HW2 1586   1.854   6.159   7.349  1.8601 -2.6130  1.4066
61326SOL     OW 1587   1.078  13.821  12.049 -0.5252  0.5900 -0.1024
61326SOL    HW1 1588   1.103  13.867  11.969  0.1942 -0.6260 -0.6009
61326SOL    HW2 1589   1.144  13.752  12.059 -1.1066  0.1716  1.0596
61327SOL     OW 1590  12.891  12.502   5.832 -0.4929  0.1190 -0.3581
61327SOL    HW1 1591  12.942  12.583   5.829 -0.2604  0.1456  2.0835
61327SOL    HW2 1592  12.925  12.450   5.760 -0.4967  2.0864 -1.8539
61328SOL     OW 1593  12.944   7.046   7.988  0.1885  0.5943 -0.5049
61328SOL    HW1 1594  12.888   7.039   8.065 -0.3048  1.3114 -0.7927
61328SOL    HW2 1595  12.884   7.052   7.914  0.6505 -1.4967 -1.1238
61329SOL     OW 1596   5.780  11.345   8.396  0.4723 -0.0183 -0.1786
61329SOL    HW1 1597   5.827  11.323   8.477 -1.8473 -0.0344  1.2459
61329SOL    HW2 1598   5.798  11.438   8.383  1.8470 -0.2794 -0.3788
61330SOL     OW 1599   4.617   6.000  12.774  0.6553 -0.3367 -0.1485
61330SOL    HW1 1600   4.573   5.919  12.802  0.2767 -0.5902 -1.4130
61330SOL    HW2 1601   4.633   6.048  12.856  0.3585 -1.4197  0.5689
61331SOL     OW 1602  10.651   6.418   1.917  0.0460  0.4802 -0.1584
61331SOL    HW1 1603  10.697   6.360   1.977 -1.4289 -0.7410 -0.1550
61331SOL    HW2 1604  10.567   6.434   1.959 -0.5372  0.5902 -1.3347
61332SOL     OW 1605  13.376   1.388   9.982 -0.8199  0.0802 -0.0754
61332SOL    HW1 1606  13.371   1.318   9.917 -1.8148 -0.0021  0.0706
61332SOL    HW2 1607  13.302   1.371  10.041 -1.1652  1.3265 -0.1234
61333SOL     OW 1608  11.520   7.912   0.492 -0.5342  0.0934  0.2540
61333SOL    HW1 1609  11.535   7.873   0.406  1.7994  0.0588  0.6171
61333SOL    HW2 1610  11.437   7.960   0.482  0.8055  2.0988 -2.7883
61334SOL     OW 1611  12.906   6.357   6.525 -0.4173  0.4497  0.6319
61334SOL    HW1 1612  12.910   6.365   6.621 -1.4391  0.2170  0.7015
61334SOL    HW2 1613  12.824   6.401   6.501  0.3681  1.4882 -0.2596
61335SOL     OW 1614  11.182   4.422   8.226  0.1208 -0.1564  0.4184
61335SOL    HW1 1615  11.184   4.379   8.312  0.6608  0.1090  0.5490
61335SOL    HW2 1616  11.221   4.508   8.242  0.0759 -0.0439 -0.0617
61336SOL     OW 1617   3.831  11.276   8.686  0.0240  0.9975 -0.1628
61336SOL    HW1 1618   3.883  11.210   8.730 -0.4420  0.8899  0.2310
61336SOL    HW2 1619   3.747  11.276   8.732  0.8408  3.6781  1.5937
61337SOL     OW 1620   0.008  10.752   4.004 -0.6233  0.1217  0.1226
61337SOL    HW1 1621  -0.022  10.816   4.068 -0.0351  1.5662 -0.9784
61337SOL    HW2 1622   0.095  10.726   4.035 -0.8533 -0.1414  0.5591
61338SOL     OW 1623   8.650   7.615   1.000  0.3521  0.4873 -0.1177
61338SOL    HW1 1624   8.626   7.523   1.011 -0.6260  0.7414 -0.0326
61338SOL    HW2 1625   8.619   7.638   0.913  0.0423  0.8998  0.0990
61339SOL     OW 1626  10.114   4.771   1.311 -0.0485 -0.3817  0.1337
61339SOL    HW1 1627  10.036   4.754   1.363  0.1006 -0.0964  0.4547
61339SOL    HW2 1628  10.170   4.694   1.324 -0.8047 -1.1829 -1.1134
61340SOL     OW 1629   4.222  13.954   9.294 -0.1852 -0.3655  0.2950
61340SOL    HW1 1630   4.233  13.859   9.287  2.0581 -0.0460 -1.8493
61340SOL    HW2 1631   4.190  13.968   9.383  1.9282 -2.9546  1.5995
61341SOL     OW 1632   2.582  13.208  10.959 -0.1929  0.3692  0.0058
61341SOL    HW1 1633   2.604  13.123  10.922  0.8543  0.8834 -0.5941
61341SOL    HW2 1634   2.635  13.214  11.038 -0.1220  0.5447 -0.0551
61342SOL     OW 1635   5.051   2.589   2.899 -0.1908  0.0948  0.1515
61342SOL    HW1 1636   5.090   2.541   2.826 -2.5640 -0.9637 -0.5460
61342SOL    HW2 1637   5.006   2.663   2.857  1.1507  1.3905  0.9331
61343SOL     OW 1638   9.632  11.824   6.511  0.1273  0.1646  0.3214
61343SOL    HW1 1639   9.620  11.897   6.572  0.2502  0.1735  0.3371
61343SOL    HW2 1640   9.667  11.866   6.432 -3.4704  0.7352 -1.1753
61344SOL     OW 1641   1.591   1.180   9.792  0.1671 -0.2376  0.1552
61344SOL    HW1 1642   1.563   1.206   9.705  1.5753 -0.0484 -0.2645
61344SOL    HW2 1643   1.539   1.102   9.812 -1.9191  1.0956  0.1804
61345SOL     OW 1644   4.095   4.827   2.745 -0.0381 -0.2194  0.0411
61345SOL    HW1 1645   4.139   4.814   2.829  0.5771  0.4825 -0.1604
61345SOL    HW2 1646   4.030   4.757   2.741  0.3941 -0.6779  0.7886
61346SOL     OW 1647   2.028   9.048   4.803 -0.0267  0.2119 -0.0128
61346SOL    HW1 1648   2.093   8.983   4.829  0.2928  0.6730  0.3553
61346SOL    HW2 1649   1.952   8.996   4.777  0.2832 -0.3150  0.1086
61347SOL     OW 1650   8.241  13.803   1.111 -0.8493 -0.0467  0.3592
61347SOL    HW1 1651   8.274  13.806   1.021 -0.0251  1.0188  0.6814
61347SOL    HW2 1652   8.275  13.721   1.146 -1.3416 -0.5720 -0.3494
61348SOL     OW 1653   2.106   6.714   9.413 -0.3927  0.2805 -0.6617
61348SOL    HW1 1654   2.038   6.647   9.424  0.5113 -0.3247  1.8603
61348SOL    HW2 1655   2.185   6.664   9.392  0.4810  0.3400  2.0540
61349SOL     OW 1656  13.453  11.978   9.464  0.4942  0.4535  0.0520
61349SOL    HW1 1657  13.487  11.990   9.553  0.6068  0.3182  0.0275
61349SOL    HW2 1658  13.509  11.911   9.426 -1.6027 -2.0387  1.0258
61350SOL     OW 1659   0.129  12.927  10.222 -0.2957  0.5235  0.1572
61350SOL    HW1 1660   0.108  13.012  10.260 -0.5770  0.4881  0.0801
61350SOL    HW2 1661   0.086  12.927  10.137  0.3563  0.6133 -0.1774
61351SOL     OW 1662  10.639   8.130  13.716 -0.5603  0.1322 -0.1058
61351SOL    HW1 1663  10.646   8.224  13.733  0.1178  0.2200 -0.8158
61351SOL    HW2 1664  10.699   8.090  13.778 -1.7770  0.0421  1.0761
61352SOL     OW 1665  12.702   1.367  10.701  0.2434  0.2651 -0.5164
61352SOL    HW1 1666  12.647   1.413  10.638 -0.0779  0.4277 -0.1202
61352SOL    HW2 1667  12.685   1.410  10.784  1.4337  0.7135 -0.4931
61353SOL     OW 1668   3.200  13.921   6.684  0.2839  0.0538 -0.1161
61353SOL    HW1 1669   3.179  13.835   6.722 -0.2560 -0.1209 -0.7990
61353SOL    HW2 1670   3.232  13.901   6.596  0.9423  0.5019  0.0174
61354SOL     OW 1671   9.518   1.302   2.367  0.1406 -0.4953  0.1378
61354SOL    HW1 1672   9.511   1.255   2.284  2.4307 -1.3361  0.3485
61354SOL    HW2 1673   9.460   1.377   2.356 -0.7086 -1.3358 -1.6732
61355SOL     OW 1674   4.839   3.994  11.626 -0.6225  0.6029 -0.0983
61355SOL    HW1 1675   4.850   4.062  11.693  2.6601  1.7029 -1.5158
61355SOL    HW2 1676   4.798   4.039  11.553 -3.0162 -0.2819  0.6184
61356SOL     OW 1677  11.163   7.174   3.925 -0.5228 -0.4819  0.4126
61356SOL    HW1 1678  11.225   7.247   3.925 -1.4214  0.3139  1.2048
61356SOL    HW2 1679  11.094   7.200   3.864  0.6268 -2.0500 -1.6916
61357SOL     OW 1680   1.743   2.993  10.095  0.2091 -0.1852 -0.1016
61357SOL    HW1 1681   1.774   3.049  10.167  1.1880 -0.8705  0.0362
61357SOL    HW2 1682   1.764   3.043  10.016 -0.0800  0.1968  0.0611
61358SOL     OW 1683   2.184   7.226   2.535  0.1774  0.1245 -0.6359
61358SOL    HW1 1684   2.204   7.301   2.480 -0.5444  0.2444 -0.7473
61358SOL    HW2 1685   2.242   7.235   2.610 -2.9968  3.5043  1.7915
61359SOL     OW 1686  10.040   1.662   5.276  0.3987 -0.6635  1.1512
61359SOL    HW1 1687  10.026   1.753   5.250  3.0736 -0.0574  1.4933
61359SOL    HW2 1688   9.990   1.651   5.357 -0.7260  0.1728  0.5922
61360SOL     OW 1689   6.372  12.832   3.657  0.1241 -0.0556  0.4818
61360SOL    HW1 1690   6.377  12.790   3.743 -1.6602  0.4784  0.8947
61360SOL    HW2 1691   6.443  12.895   3.657  2.5125 -2.5456  0.0788
61361SOL     OW 1692   1.576   5.654   7.086  0.3322 -0.0806  0.5180
61361SOL    HW1 1693   1.625   5.572   7.080  0.1845 -0.1455  0.1562
61361SOL    HW2 1694   1.502   5.642   7.027  2.0455  1.5138 -2.1340
61362SOL     OW 1695   8.904  13.898   3.372  0.6764 -0.3449  0.4413
61362SOL    HW1 1696   8.859  13.821   3.404  0.2755  0.0826  0.9200
61362SOL    HW2 1697   8.949  13.869   3.292 -2.0406 -0.3205 -1.2008
61363SOL     OW 1698   4.563   7.741   6.026 -0.1747  0.7949 -0.7147
61363SOL    HW1 1699   4.619   7.812   5.993  2.4335 -1.4350 -1.4924
61363SOL    HW2 1700   4.537   7.693   5.947 -1.4529  0.5241 -0.1556
61364SOL     OW 1701   3.867   5.731   6.038  0.7541 -0.6096 -0.2918
61364SOL    HW1 1702   3.880   5.648   6.084  1.7861 -0.4501 -0.2691
61364SOL    HW2 1703   3.784   5.720   5.992 -0.1785 -0.8654  1.3823
61365SOL     OW 1704   3.430  10.952   5.134 -0.0473  0.1704 -0.4166
61365SOL    HW1 1705   3.447  10.865   5.169  2.0112  0.7297  0.1519
61365SOL    HW2 1706   3.371  10.938   5.060  0.5900 -1.7577 -0.6073
61366SOL     OW 1707   1.394   3.627   0.557 -0.4487  0.3165 -0.4169
61366SOL    HW1 1708   1.329   3.582   0.611 -0.4306  0.8501  0.0523
61366SOL    HW2 1709   1.478   3.604   0.597 -0.4515  0.9315 -0.0475
61367SOL     OW 1710   3.618   4.136   0.458 -0.2560  0.0766 -0.3320
61367SOL    HW1 1711   3.554   4.208   0.459 -0.0679  0.3967 -3.3189
61367SOL    HW2 1712   3.642   4.126   0.366  1.3447 -2.4346  0.2573
61368SOL     OW 1713   3.833   0.910  13.458  0.0371  0.0347 -0.0327
61368SOL    HW1 1714   3.790   0.838  13.413  1.3142  0.0302 -1.3285
61368SOL    HW2 1715   3.766   0.979  13.462 -0.4414 -0.3614 -0.9669
61369SOL     OW 1716   8.396  13.891   0.181  0.2703 -0.2577 -0.1014
61369SOL    HW1 1717   8.489  13.907   0.200  0.3641  1.0720 -1.5621
61369SOL    HW2 1718   8.397  13.834   0.104 -0.1315  0.1602 -0.4164
61370SOL     OW 1719  12.738   6.294   9.850  0.4318  0.4921 -0.1852
61370SOL    HW1 1720  12.694   6.336   9.923  1.7745  0.6952  0.5361
61370SOL    HW2 1721  12.810   6.353   9.828  0.4430  0.1073 -1.2417
61371SOL     OW 1722   7.250  10.306   6.843 -0.6971  1.0681  0.2566
61371SOL    HW1 1723   7.185  10.238   6.829  2.4569 -2.1352 -0.2193
61371SOL    HW2 1724   7.282  10.328   6.756 -1.5473  3.1474  0.4161
61372SOL     OW 1725   3.201   0.010   0.569  0.2023  0.1620  0.0812
61372SOL    HW1 1726   3.132  -0.038   0.524  0.3896 -0.2771  0.2570
61372SOL    HW2 1727   3.169   0.019   0.659  0.8327 -0.9757  0.4332
61373SOL     OW 1728   1.805   4.788   7.051 -0.3672  0.2023  0.0400
61373SOL    HW1 1729   1.856   4.709   7.035 -0.5631 -0.2630  1.5875
61373SOL    HW2 1730   1.726   4.776   6.997 -0.3699 -0.6357  0.2172
61374SOL     OW 1731   2.085   5.759   4.445 -0.2232  0.4637  0.0001
61374SOL    HW1 1732   2.022   5.800   4.505 -0.7345  0.7460 -0.7186
61374SOL    HW2 1733   2.061   5.667   4.443  0.3715  0.2656  0.9253
61375SOL     OW 1734   8.292  13.088   6.636  0.0045  0.3929 -0.5904
61375SOL    HW1 1735   8.330  13.100   6.723 -1.7080 -0.0883  0.2684
61375SOL    HW2 1736   8.345  13.019   6.596  1.3385  1.1936 -0.2925
61376SOL     OW 1737   6.360   3.563   9.743 -0.0032  0.5112 -0.0656
61376SOL    HW1 1738   6.378   3.650   9.708 -1.7111  1.2450  0.7593
61376SOL    HW2 1739   6.399   3.564   9.831  0.6868  0.1253 -0.3548
61377SOL     OW 1740   0.515  13.183   2.193  0.8287 -0.3652  0.0179
61377SOL    HW1 1741   0.528  13.208   2.284  0.0153  1.0263 -0.2269
61377SOL    HW2 1742   0.477  13.095   2.197  1.0372 -0.4181  0.9951
61378SOL     OW 1743   5.879   0.553  12.600  0.5292 -0.5461 -0.4952
61378SOL    HW1 1744   5.947   0.620  12.601  1.5502 -1.5455  1.3858
61378SOL    HW2 1745   5.917   0.480  12.551  0.9341 -1.1771  0.7162
61379SOL     OW 1746  12.543   2.552  14.013 -0.3443  0.6671 -0.0437
61379SOL    HW1 1747  12.456   2.541  14.051 -0.0348 -0.2218  0.4320
61379SOL    HW2 1748  12.569   2.464  13.985  2.0846  0.0065  3.5850
61380SOL     OW 1749   1.519  12.654   7.269  0.4296 -0.0218 -0.0827
61380SOL    HW1 1750   1.518  12.650   7.365  2.8048 -2.7849 -0.0560
61380SOL    HW2 1751   1.611  12.666   7.246  0.4807 -2.9841 -1.9839
61381SOL     OW 1752  11.733   4.185   7.791 -0.1449  0.0111  0.2974
61381SOL    HW1 1753  11.762   4.121   7.856 -0.4410  0.9165  1.3513
61381SOL    HW2 1754  11.750   4.143   7.707 -0.7400 -1.6370  0.9485
61382SOL     OW 1755  10.151   6.696   3.823  0.1481 -0.1440 -0.6418
61382SOL    HW1 1756  10.116   6.689   3.734  1.3794 -0.6391 -1.1081
61382SOL    HW2 1757  10.171   6.606   3.848 -0.6594 -0.0612  0.3474
61383SOL     OW 1758   0.060   5.097   9.706  0.0652 -0.2586 -0.1977
61383SOL    HW1 1759   0.028   5.028   9.649  2.6235 -0.3714 -1.6561
61383SOL    HW2 1760   0.097   5.162   9.647  4.6585 -1.2874  1.1556
61384SOL     OW 1761   2.314   8.988  10.160  0.2156 -0.1579  0.0074
61384SOL    HW1 1762   2.405   8.996  10.189 -0.1384  0.8451  0.9193
61384SOL    HW2 1763   2.317   9.009  10.066  0.9222 -0.1614  0.0238
61385SOL     OW 1764   9.033  10.487   8.626 -0.8787  0.0791  0.1888
61385SOL    HW1 1765   8.980  10.412   8.601 -1.0985  0.4623 -0.5359
61385SOL    HW2 1766   9.031  10.487   8.721  0.8947 -2.1008  0.3106
61386SOL     OW 1767   0.390   6.216   0.492 -0.7967 -0.1447 -0.1575
61386SOL    HW1 1768   0.400   6.230   0.398  0.1413 -0.6738 -0.1506
61386SOL    HW2 1769   0.406   6.302   0.531  0.3171 -0.2308 -0.3969
61387SOL     OW 1770  14.090   3.709   8.610 -0.0958  0.4630  0.7567
61387SOL    HW1 1771  14.042   3.777   8.657 -0.1858  0.9915 -0.0635
61387SOL    HW2 1772  14.038   3.693   8.531 -0.1983 -0.7430  1.0517
61388SOL     OW 1773  12.886   5.100   3.463 -0.1416  0.9498  0.0640
61388SOL    HW1 1774  12.967   5.148   3.479  0.6428 -0.5264  0.6677
61388SOL    HW2 1775  12.903   5.047   3.386  0.0880 -0.6294  1.1544
61389SOL     OW 1776   2.117  12.173  10.516 -0.5553  0.1743  0.5605
61389SOL    HW1 1777   2.112  12.266  10.540  0.5805  0.0744  1.2700
61389SOL    HW2 1778   2.026  12.144  10.513 -0.9012  1.1785  0.8920
61390SOL     OW 1779  12.015   8.656   2.421 -0.1433 -0.2851 -0.6754
61390SOL    HW1 1780  11.924   8.631   2.405 -0.5035  0.8519 -0.4784
61390SOL    HW2 1781  12.041   8.605   2.498 -1.6955  1.7397  1.3393
61391SOL     OW 1782   1.399   4.111  12.351 -0.4436  0.3816 -0.0639
61391SOL    HW1 1783   1.449   4.062  12.286  0.5976 -1.8288  2.2466
61391SOL    HW2 1784   1.342   4.168  12.299  0.9845 -0.5533 -2.8578
61392SOL     OW 1785   2.140   2.954   2.634  0.2245 -0.1565  0.5768
61392SOL    HW1 1786   2.134   2.870   2.681  0.9764  0.7072  2.2957
61392SOL    HW2 1787   2.207   3.003   2.681 -1.5384  2.1754  0.7967
61393SOL     OW 1788   3.631   1.979   7.833  0.4780 -0.3472 -0.2967
61393SOL    HW1 1789   3.677   1.912   7.781 -0.6355 -1.2230 -0.2069
61393SOL    HW2 1790   3.578   2.027   7.769  0.7846  0.0272 -0.2708
61394SOL     OW 1791  12.593  12.717   2.035 -0.3551  0.2380  0.2911
61394SOL    HW1 1792  12.643  12.798   2.047 -0.6421  0.4033  0.3710
61394SOL    HW2 1793  12.656  12.657   1.996 -0.6486  1.0912 -1.6003
61395SOL     OW 1794  11.100   6.196  10.459 -1.0332 -0.1220  0.7235
61395SOL    HW1 1795  11.059   6.265  10.512  0.2547  2.1942 -1.1200
61395SOL    HW2 1796  11.193   6.203  10.479 -0.7612 -0.5450 -0.3329
61396SOL     OW 1797   0.643  13.191   1.416 -0.1471  0.4252 -0.4007
61396SOL    HW1 1798   0.562  13.240   1.432  0.5868  1.3611  0.6341
61396SOL    HW2 1799   0.710  13.243   1.460  0.6105 -1.7348  1.1326
61397SOL     OW 1800   7.705   5.761  14.085 -0.3153 -0.8625 -0.4682
61397SOL    HW1 1801   7.785   5.716  14.112 -0.3434 -1.5933 -1.5285
61397SOL    HW2 1802   7.651   5.764  14.164  0.0877 -1.8482 -0.1447
61398SOL     OW 1803  11.853   6.568   9.580  0.1373  0.2740 -0.0517
61398SOL    HW1 1804  11.944   6.581   9.606 -0.1669  0.3226  1.0179
61398SOL    HW2 1805  11.812   6.654   9.591 -0.3544 -0.0606  0.7794
61399SOL     OW 1806   2.426   5.649   5.415  0.5371  0.4108 -0.5106
61399SOL    HW1 1807   2.510   5.675   5.378  1.3646 -1.6898 -0.2351
61399SOL    HW2 1808   2.395   5.727   5.461  1.4130  1.8027 -2.1774
61400SOL     OW 1809   2.200   2.257  10.115  0.3666  0.2123 -0.2530
61400SOL    HW1 1810   2.235   2.345  10.107 -1.0055  1.1400  2.3816
61400SOL    HW2 1811   2.109   2.271  10.145 -0.4397 -2.0896 -1.4084
61401SOL     OW 1812   7.344  12.941   5.810 -0.5812  0.2224  0.4064
61401SOL    HW1 1813   7.259  12.981   5.791 -0.3215  1.1707  1.1488
61401SOL    HW2 1814   7.407  13.013   5.799  0.1326 -0.4735 -0.1476
61402SOL     OW 1815   3.342   1.323   9.758  0.2062 -0.2642 -0.3231
61402SOL    HW1 1816   3.331   1.371   9.676 -1.7982  0.8621  0.5176
61402SOL    HW2 1817   3.280   1.250   9.751  0.6829 -0.6820 -0.1772
61403SOL     OW 1818   8.252   6.226   4.367  0.3413 -0.1567  0.1314
61403SOL    HW1 1819   8.179   6.165   4.378  1.4547 -1.3326  1.4282
61403SOL    HW2 1820   8.313   6.203   4.438  2.0371  0.6614 -0.9976
61404SOL     OW 1821  10.434   3.319   2.329 -0.2814  0.1206  0.1350
61404SOL    HW1 1822  10.508   3.371   2.299  0.2237 -0.8578 -0.3683
61404SOL    HW2 1823  10.360   3.351   2.278  0.3225 -0.6662 -1.2952
61405SOL     OW 1824   0.003   0.308   8.260  0.7656  0.0095 -0.0046
61405SOL    HW1 1825  -0.043   0.230   8.231  0.4827  0.0307  0.3621
61405SOL    HW2 1826   0.015   0.295   8.354 -0.1412  0.8189  0.2430
61406SOL     OW 1827  10.446  10.971   5.378  0.1043 -0.2932 -0.1923
61406SOL    HW1 1828  10.470  11.053   5.335 -1.7434  1.0637  1.2571
61406SOL    HW2 1829  10.519  10.954   5.438  0.9288 -0.2472 -1.1400
61407SOL     OW 1830   3.223   6.722  13.521  0.6257  0.7677  0.0845
61407SOL    HW1 1831   3.241   6.770  13.602  2.0356  0.5088 -0.0573
61407SOL    HW2 1832   3.130   6.738  13.504  0.5181  1.5275  1.2878
61408SOL     OW 1833   6.130   1.393   9.072 -0.6179  0.2927 -0.4921
61408SOL    HW1 1834   6.064   1.325   9.091  0.9288 -1.0191  0.4324
61408SOL    HW2 1835   6.132   1.446   9.151 -0.5768  0.3408 -0.5256
61409SOL     OW 1836   5.537  13.648   0.938  0.3553 -0.3939 -0.7669
61409SOL    HW1 1837   5.562  13.740   0.946 -0.7613 -0.0057 -1.5152
61409SOL    HW2 1838   5.443  13.650   0.918 -0.8329 -1.8223  3.6898
61410SOL     OW 1839   9.997   1.084   5.009  0.1245  0.0941  0.1166
61410SOL    HW1 1840   9.942   1.159   5.033 -0.0577  0.6714 -1.9803
61410SOL    HW2 1841  10.065   1.121   4.954  0.4624 -1.1842 -0.3374
61411SOL     OW 1842   8.668  10.489   5.975 -0.0877 -0.1551  0.1107
61411SOL    HW1 1843   8.604  10.433   6.019  1.4127 -1.1351  1.1306
61411SOL    HW2 1844   8.657  10.469   5.882 -0.4470 -1.1907  0.3687
61412SOL     OW 1845   4.474   7.581   3.174 -0.1220 -0.1813  0.5755
61412SOL    HW1 1846   4.390   7.562   3.215  0.1274 -0.0315  1.1653
61412SOL    HW2 1847   4.505   7.661   3.218 -0.1900  0.4023 -0.4141
61413SOL     OW 1848   0.562   6.813   8.326  0.4811  0.5930  0.4600
61413SOL    HW1 1849   0.628   6.744   8.337  1.1909  1.0923 -0.5218
61413SOL    HW2 1850   0.601   6.873   8.262 -1.9154 -0.3049 -1.9710
61414SOL     OW 1851   1.661   1.229  11.916  0.2540 -0.7647  0.2887
61414SOL    HW1 1852   1.676   1.136  11.934 -1.8608 -1.1339  0.3858
61414SOL    HW2 1853   1.583   1.251  11.967 -0.2105  0.6661 -0.9781
61415SOL     OW 1854   0.580   2.496  11.633  0.1359 -0.5217 -0.0059
61415SOL    HW1 1855   0.654   2.551  11.606  0.0471 -1.0597 -1.4217
61415SOL    HW2 1856   0.504   2.553  11.623 -0.0628 -1.0736 -2.3102
61416SOL     OW 1857  11.289   7.342   8.767 -0.6324 -0.1676 -0.6697
61416SOL    HW1 1858  11.328   7.256   8.781  1.7696  1.0761  0.9771
61416SOL    HW2 1859  11.195   7.326   8.770 -0.2743 -2.4665  1.4517
61417SOL     OW 1860  10.676   0.126   3.725  0.4313  0.4289 -0.0772
61417SOL    HW1 1861  10.618   0.199   3.707  1.7544  1.2599 -1.1993
61417SOL    HW2 1862  10.757   0.167   3.757  0.9918 -0.5668 -0.1677
61418SOL     OW 1863   8.750  13.662  13.669 -0.4354  0.1170  0.5328
61418SOL    HW1 1864   8.758  13.745  13.621 -1.9682 -0.1161 -0.1823
61418SOL    HW2 1865   8.734  13.597  13.601  0.1288 -0.6879  1.1490
61419SOL     OW 1866   4.797   2.567   9.994 -0.2128  0.5631  0.5290
61419SOL    HW1 1867   4.891   2.569  10.009 -0.3814  0.4115  1.7556
61419SOL    HW2 1868   4.762   2.634  10.053 -0.8378  0.9566 -0.2641
61420SOL     OW 1869  11.640  10.897   6.972 -0.0430 -0.9484  0.3485
61420SOL    HW1 1870  11.593  10.950   6.907 -1.5475 -2.1339  0.4180
61420SOL    HW2 1871  11.571  10.853   7.022  1.0947 -0.6260  2.3100
61421SOL     OW 1872   1.493   8.980  10.744  0.2574  0.3792  0.3655
61421SOL    HW1 1873   1.471   8.915  10.677 -0.7312  0.8601  0.2122
61421SOL    HW2 1874   1.589   8.987  10.739  0.6460 -2.5197  1.7461
61422SOL     OW 1875   8.974   1.545  11.202 -0.4219  0.0475  0.0419
61422SOL    HW1 1876   8.995   1.452  11.189  1.3255  0.0802  2.0694
61422SOL    HW2 1877   8.964   1.580  11.114 -0.6387 -1.9564 -0.7863
61423SOL     OW 1878  13.532   5.177  11.452 -0.8157  0.7577 -0.1326
61423SOL    HW1 1879  13.583   5.123  11.513 -2.3152  0.8121  1.2218
61423SOL    HW2 1880  13.590   5.250  11.431  1.0304 -0.9611 -1.5266
61424SOL     OW 1881  12.766   2.527   2.999  0.1863  0.0641  0.2916
61424SOL    HW1 1882  12.726   2.579   2.930  0.8909  0.8420  0.4516
61424SOL    HW2 1883  12.698   2.465   3.025  0.0867 -0.5777 -1.4262
61425SOL     OW 1884   2.866   9.441   4.373 -0.1980 -0.5815 -0.0169
61425SOL    HW1 1885   2.873   9.505   4.444 -1.6558 -0.1690 -0.2040
61425SOL    HW2 1886   2.834   9.361   4.415 -1.1320 -0.3158 -0.1933
61426SOL     OW 1887   5.774   8.474   2.307  0.1667 -0.1502  0.1054
61426SOL    HW1 1888   5.819   8.474   2.223 -0.3316  1.9121 -0.2222
61426SOL    HW2 1889   5.697   8.531   2.294  0.1887  0.4053  1.9768
61427SOL     OW 1890   6.794   8.779   7.606 -0.1724 -0.2855 -0.6725
61427SOL    HW1 1891   6.852   8.853   7.589 -1.5219  1.8881  2.9556
61427SOL    HW2 1892   6.706   8.816   7.599 -0.8732 -0.8669  2.9597
61428SOL     OW 1893   2.468   6.329  13.073  0.4619 -0.1685 -0.3133
61428SOL    HW1 1894   2.464   6.406  13.130  1.2378  0.2469 -0.7958
61428SOL    HW2 1895   2.408   6.349  13.001  0.1294 -0.3219 -0.0784
61429SOL     OW 1896   5.498  13.566   9.769 -0.7145  0.3039 -0.2322
61429SOL    HW1 1897   5.534  13.477   9.760 -0.6564  0.4036 -1.0126
61429SOL    HW2 1898   5.432  13.572   9.701  1.0229  1.7111 -1.9069
61430SOL     OW 1899  13.112   7.030   0.468  0.3251 -0.5808  0.0974
61430SOL    HW1 1900  13.027   7.065   0.497 -0.1877 -2.7441  1.4721
61430SOL    HW2 1901  13.104   7.023   0.373 -0.9508 -0.4984  0.1785
61431SOL     OW 1902  11.421   2.719   3.565 -0.3665 -0.7670  0.1841
61431SOL    HW1 1903  11.492   2.777   3.592 -0.2323 -0.6661 -0.3665
61431SOL    HW2 1904  11.379   2.692   3.646  0.0909 -0.5555  0.4921
61432SOL     OW 1905   2.608   4.709   0.815  1.0643 -0.0858 -0.1815
61432SOL    HW1 1906   2.682   4.726   0.757  1.1709  0.6938  0.1646
61432SOL    HW2 1907   2.560   4.792   0.818  0.6015 -0.3590  0.1912
61433SOL     OW 1908   8.363   9.120   4.245  0.5072  0.4555  0.0702
61433SOL    HW1 1909   8.319   9.036   4.231 -0.3544  1.0368 -0.7823
61433SOL    HW2 1910   8.395   9.116   4.335 -1.8077  0.2433  0.9267
61434SOL     OW 1911  13.495   7.077   4.190 -0.1953 -0.1460 -0.3734
61434SOL    HW1 1912  13.533   7.121   4.114  0.7587  1.2432  0.8679
61434SOL    HW2 1913  13.444   7.005   4.152  0.5299  0.2876 -2.3001
61435SOL     OW 1914   7.191   7.826   0.990 -0.0522 -0.1776  0.1929
61435SOL    HW1 1915   7.260   7.888   1.012  0.3259 -0.0912 -1.1400
61435SOL    HW2 1916   7.237   7.747   0.962 -0.4728 -0.0834 -0.8102
61436SOL     OW 1917   9.137  14.043   1.354 -0.2005  0.1347  0.6409
61436SOL    HW1 1918   9.055  13.994   1.361  0.6106 -1.7493 -1.6291
61436SOL    HW2 1919   9.110  14.133   1.337 -1.8189 -0.3983  0.1665
61437SOL     OW 1920   1.953   3.052   8.889  0.2123 -0.5836 -0.4747
61437SOL    HW1 1921   2.041   3.065   8.853  0.0199  0.4250 -0.6335
61437SOL    HW2 1922   1.962   3.073   8.982  0.1029 -0.2719 -0.5330
61438SOL     OW 1923   2.386   7.479   8.442  0.1953 -0.5015 -0.0218
61438SOL    HW1 1924   2.432   7.396   8.449 -0.0750 -0.8850 -2.0951
61438SOL    HW2 1925   2.443   7.543   8.485  2.9179 -0.8967 -2.7601
61439SOL     OW 1926   3.496   3.091  12.473  0.0025  0.4876 -0.7545
61439SOL    HW1 1927   3.468   3.114  12.562 -1.3752 -1.0042 -0.7734
61439SOL    HW2 1928   3.572   3.148  12.457  2.2091 -1.2422  2.4984
61440SOL     OW 1929   6.024   3.118   5.003  0.1538 -0.0224  0.1407
61440SOL    HW1 1930   6.031   3.025   4.978 -1.0804 -0.5890  1.7196
61440SOL    HW2 1931   5.995   3.116   5.094  0.5167  1.9377  0.3403
61441SOL     OW 1932   5.017   3.619   3.545  0.3395  0.2129  0.2327
61441SOL    HW1 1933   4.922   3.614   3.530  0.2090 -0.8238  1.2062
61441SOL    HW2 1934   5.055   3.565   3.475  0.1955  0.4446 -0.0248
61442SOL     OW 1935   0.138   2.442   5.160  0.0689 -0.2919 -0.3414
61442SOL    HW1 1936   0.093   2.376   5.211 -1.9060  0.0889 -1.4952
61442SOL    HW2 1937   0.166   2.507   5.224 -0.3132 -0.9393  0.5011
61443SOL     OW 1938   6.398  10.514  11.442  0.0427 -0.4721  0.1262
61443SOL    HW1 1939   6.445  10.446  11.393  0.7370  1.2219 -1.7209
61443SOL    HW2 1940   6.313  10.520  11.398  0.1226  0.0871  0.0443
61444SOL     OW 1941   3.498   4.088   2.157  0.3281  0.1733 -0.2923
61444SOL    HW1 1942   3.496   4.142   2.078  1.5701  1.3725  0.4494
61444SOL    HW2 1943   3.539   4.006   2.129 -1.5795 -0.4423 -1.4304
61445SOL     OW 1944   2.782  13.174   5.861 -0.4885  0.0511  0.0519
61445SOL    HW1 1945   2.798  13.147   5.770  0.0339 -0.2869  0.2399
61445SOL    HW2 1946   2.745  13.262   5.853  0.3253  0.3651 -0.4656
61446SOL     OW 1947   2.382   8.966   1.938 -0.6634 -0.2276  0.0963
61446SOL    HW1 1948   2.313   9.020   1.898 -2.1917 -1.9277  0.2680
61446SOL    HW2 1949   2.379   8.884   1.888 -1.0818 -1.5746  2.1813
61447SOL     OW 1950  12.646   7.462  13.157  0.3491  0.3977  0.2259
61447SOL    HW1 1951  12.560   7.477  13.195 -0.4901  0.1251 -1.4848
61447SOL    HW2 1952  12.707   7.480  13.228 -1.1643 -0.8905  1.9148
61448SOL     OW 1953  10.966   8.158   3.542  0.2628  0.4913  0.3229
61448SOL    HW1 1954  10.888   8.113   3.508  0.8895 -1.2027  1.0191
61448SOL    HW2 1955  11.001   8.206   3.467  0.1477 -1.0502 -0.7642
61449SOL     OW 1956  12.065   3.958   6.992 -0.1062 -0.2105  0.0937
61449SOL    HW1 1957  12.156   3.990   6.995  0.0635 -0.6906  0.2025
61449SOL    HW2 1958  12.012   4.037   7.002  0.2538  0.3554 -1.8907
61450SOL     OW 1959   4.484  12.983   8.369  0.0614 -0.1787  0.1317
61450SOL    HW1 1960   4.496  12.989   8.275  0.4275  0.1940  0.1999
61450SOL    HW2 1961   4.401  13.027   8.386  0.7151  1.1026  0.1452
61451SOL     OW 1962   6.276  12.217   8.036 -0.2314  0.7887 -0.2084
61451SOL    HW1 1963   6.280  12.309   8.060 -3.2208  1.8727 -3.1198
61451SOL    HW2 1964   6.216  12.178   8.101  1.2803  0.7364  1.2129
61452SOL     OW 1965   3.530  12.690   5.222  0.2902 -0.3318 -0.1584
61452SOL    HW1 1966   3.507  12.604   5.258  0.2748 -0.5993 -0.7925
61452SOL    HW2 1967   3.610  12.675   5.172  0.3755  0.0597 -0.1418
61453SOL     OW 1968  12.960  11.760   5.423 -0.3753 -0.0670 -0.4322
61453SOL    HW1 1969  12.986  11.719   5.341 -1.2211  1.2290 -1.3990
61453SOL    HW2 1970  13.030  11.822   5.442  1.1203 -2.1737  1.2590
61454SOL     OW 1971   3.602   8.189  11.039 -0.6385 -0.1675  0.6483
61454SOL    HW1 1972   3.650   8.148  10.967 -0.4320  0.2342  0.5533
61454SOL    HW2 1973   3.668   8.201  11.107 -0.8662 -0.6812  0.9634
61455SOL     OW 1974  12.813  11.246   3.010 -0.1310  0.4533 -0.5008
61455SOL    HW1 1975  12.885  11.255   2.948 -0.2982 -0.5561 -0.8528
61455SOL    HW2 1976  12.845  11.184   3.075 -0.5782  0.2205 -0.5000
61456SOL     OW 1977   8.582   9.682   0.450 -0.0134  0.0997 -0.8777
61456SOL    HW1 1978   8.579   9.592   0.481  1.0520 -0.2311 -1.7193
61456SOL    HW2 1979   8.491   9.702   0.427 -0.0785 -1.1604 -1.8020
61457SOL     OW 1980   7.325   8.918  12.171 -0.4634 -0.1522 -0.1032
61457SOL    HW1 1981   7.345   8.888  12.082 -0.0631  0.5267 -0.2493
61457SOL    HW2 1982   7.348   9.011  12.170 -0.6741 -0.0925  0.6469
61458SOL     OW 1983   8.242   1.916  13.750  0.0191  0.3046  0.2550
61458SOL    HW1 1984   8.221   1.915  13.656 -2.8121  0.5153  0.7902
61458SOL    HW2 1985   8.269   1.826  13.769 -0.5224 -0.0404 -0.5561
61459SOL     OW 1986  10.206   1.777   9.948 -0.0643 -0.0171  0.0316
61459SOL    HW1 1987  10.181   1.787   9.856 -0.1359 -0.3056  0.0196
61459SOL    HW2 1988  10.156   1.701   9.979  1.9493 -1.6559 -0.4483
61460SOL     OW 1989   0.707   7.196   9.834 -1.2803  0.4134 -0.1520
61460SOL    HW1 1990   0.695   7.270   9.774 -0.0015  2.5356  2.0624
61460SOL    HW2 1991   0.802   7.190   9.845 -1.3162 -1.8997 -0.5876
61461SOL     OW 1992   0.892   8.951   2.484  0.2746  0.7430  0.1756
61461SOL    HW1 1993   0.885   8.999   2.567 -1.8067  1.1533 -0.1897
61461SOL    HW2 1994   0.877   8.860   2.507 -1.7038  1.0210  0.1045
61462SOL     OW 1995   9.514   6.817   7.360  0.7459 -0.2016 -0.1252
61462SOL    HW1 1996   9.443   6.795   7.420  1.2982 -1.3587  0.1412
61462SOL    HW2 1997   9.540   6.733   7.321  0.7629  0.4457 -1.5846
61463SOL     OW 1998   8.709   5.479  13.688 -0.6717 -0.3104  0.2336
61463SOL    HW1 1999   8.743   5.567  13.673  1.2426 -1.0041  0.1879
61463SOL    HW2 2000   8.729   5.462  13.780 -3.0105  0.0839  0.8584
61464SOL     OW 2001  10.308   4.927   1.977 -0.3002 -0.0343  0.1436
61464SOL    HW1 2002  10.324   4.905   2.069  0.0131  0.7955  0.2998
61464SOL    HW2 2003  10.380   4.887   1.929 -0.8683 -1.1131  0.1537
61465SOL     OW 2004   7.872  10.687  11.373  0.1087 -0.6546  0.3718
61465SOL    HW1 2005   7.914  10.749  11.315 -0.3185 -0.7068  0.0039
61465SOL    HW2 2006   7.845  10.615  11.316 -1.6668 -0.0244  0.3732
61466SOL     OW 2007   7.251  12.492   0.994  0.1893  0.3890  0.0479
61466SOL    HW1 2008   7.325  12.519   0.940  0.0570  0.7061  0.0270
61466SOL    HW2 2009   7.276  12.406   1.028  0.0915 -0.0058 -0.8594
61467SOL     OW 2010  10.951  12.639   3.571  0.4331 -0.0724 -0.1840
61467SOL    HW1 2011  10.902  12.719   3.550  0.2792  0.0098  0.4652
61467SOL    HW2 2012  11.037  12.652   3.532  0.4310  0.4427 -0.0193
61468SOL     OW 2013   7.971   0.587  10.224  0.0743  0.2599  0.4171
61468SOL    HW1 2014   7.881   0.598  10.253  0.1876  1.5039  0.3536
61468SOL    HW2 2015   7.978   0.641  10.144  0.2206 -1.7553 -1.0038
61469SOL     OW 2016   7.984  11.996   5.697  0.1699 -0.0367  0.1010
61469SOL    HW1 2017   8.059  12.038   5.740 -0.4539  0.7722  0.4273
61469SOL    HW2 2018   7.932  12.069   5.663 -0.0475 -0.6229 -0.8521
61470SOL     OW 2019   5.577  12.416   8.349 -0.1819 -0.1067 -0.1987
61470SOL    HW1 2020   5.490  12.450   8.326 -0.9175 -1.0852  0.9725
61470SOL    HW2 2021   5.582  12.427   8.444  1.9233  1.9888 -0.4563
61471SOL     OW 2022   4.686   2.882  12.058 -0.6649  0.2327  0.3525
61471SOL    HW1 2023   4.776   2.852  12.064 -0.0774  1.5733 -1.1264
61471SOL    HW2 2024   4.635   2.802  12.046  0.3827 -0.4994  0.6710
61472SOL     OW 2025   5.051  13.864   2.213 -0.2002 -0.6313  0.1240
61472SOL    HW1 2026   4.997  13.820   2.278  0.5283 -1.4538  0.1920
61472SOL    HW2 2027   5.026  13.824   2.130 -1.5903  0.8606 -0.2334
61473SOL     OW 2028   2.026  10.351   5.574  0.2096 -0.4744  0.0124
61473SOL    HW1 2029   2.113  10.366   5.612  0.7820 -1.6021 -0.7987
61473SOL    HW2 2030   1.980  10.300   5.641  0.9215 -1.7193 -0.4148
61474SOL     OW 2031   6.677  13.260   3.074  0.6125 -0.2430 -0.1572
61474SOL    HW1 2032   6.638  13.344   3.053  2.6676  0.5584 -0.9512
61474SOL    HW2 2033   6.770  13.270   3.056  1.1451 -2.2668  1.0331
61475SOL     OW 2034   2.843   0.599   9.745 -0.1125  0.3330  0.1396
61475SOL    HW1 2035   2.871   0.682   9.783  0.9211  2.5137 -4.5371
61475SOL    HW2 2036   2.758   0.618   9.706 -1.0195 -1.6223  1.0537
61476SOL     OW 2037   7.702   0.293   6.727  0.1041 -0.5472  0.3857
61476SOL    HW1 2038   7.748   0.366   6.768  1.9938 -1.2147 -0.4340
61476SOL    HW2 2039   7.628   0.274   6.785 -0.3177  1.8598  0.7036
61477SOL     OW 2040   4.308   5.254   5.325 -1.0257  0.3460 -0.0937
61477SOL    HW1 2041   4.285   5.166   5.354 -1.4875  1.2001  2.3805
61477SOL    HW2 2042   4.302   5.308   5.404 -0.8596  2.6302 -1.5386
61478SOL     OW 2043  12.895   8.609   7.312 -0.0549  0.1384  0.0311
61478SOL    HW1 2044  12.864   8.694   7.280  1.3248  1.1469  1.2248
61478SOL    HW2 2045  12.834   8.586   7.382 -0.7107 -0.0985 -0.6118
61479SOL     OW 2046   7.695   7.516   2.562 -0.0080  0.1446  0.5969
61479SOL    HW1 2047   7.712   7.437   2.512 -3.0148 -0.0790 -0.2414
61479SOL    HW2 2048   7.709   7.588   2.500  0.9969  0.2070  0.8702
61480SOL     OW 2049  11.048   6.105   7.338 -0.3654  0.4965 -0.2304
61480SOL    HW1 2050  11.065   6.014   7.359 -0.7878  0.3895 -0.3354
61480SOL    HW2 2051  11.130   6.136   7.298  0.7636  0.9501  2.2365
61481SOL     OW 2052   2.786  13.144   7.888 -0.1752 -0.1643 -0.8595
61481SOL    HW1 2053   2.814  13.098   7.809  0.6458 -2.0277  0.4376
61481SOL    HW2 2054   2.822  13.091   7.960 -0.0698  1.9735  0.7502
61482SOL     OW 2055   9.936   1.264   3.549  0.2032  0.6768  0.3920
61482SOL    HW1 2056  10.017   1.277   3.597  1.1338  0.3998 -1.0403
61482SOL    HW2 2057   9.901   1.352   3.536  0.5265  0.8365  0.6041
61483SOL     OW 2058   6.904  11.403   9.709  0.2896 -0.4261  0.4068
61483SOL    HW1 2059   6.857  11.487   9.712 -1.6631 -1.3439 -1.5951
61483SOL    HW2 2060   6.966  11.414   9.637 -0.4901 -0.9095 -0.3572
61484SOL     OW 2061   2.191  12.225   7.970  0.5515 -0.0478  0.1521
61484SOL    HW1 2062   2.173  12.160   8.037 -1.3811  0.1732 -0.1016
61484SOL    HW2 2063   2.273  12.267   7.998  0.6811 -1.1071  1.4400
61485SOL     OW 2064   8.921   1.864   0.400 -0.3546  0.3316 -0.0537
61485SOL    HW1 2065   8.879   1.878   0.315  0.3809  1.4955 -0.2543
61485SOL    HW2 2066   8.947   1.772   0.399 -2.0345 -0.1725 -0.2872
61486SOL     OW 2067   1.870   6.952  11.771  0.2713 -0.2904  0.1393
61486SOL    HW1 2068   1.911   6.904  11.843 -1.3428 -0.4847  0.9779
61486SOL    HW2 2069   1.821   6.886  11.723 -0.4104  0.1938  0.1537
61487SOL     OW 2070   9.757  12.181  12.514 -0.5825  0.4969 -0.2971
61487SOL    HW1 2071   9.851  12.177  12.533 -0.2517  0.9437 -1.7081
61487SOL    HW2 2072   9.725  12.093  12.533  0.0376  0.4310  0.5221
61488SOL     OW 2073   1.596  11.949   8.969 -0.1292  0.3077 -0.2870
61488SOL    HW1 2074   1.524  12.004   8.997  0.5440  0.5959  0.9450
61488SOL    HW2 2075   1.620  11.982   8.883  0.9037  2.6513  0.8083
61489SOL     OW 2076  12.801  10.968   8.622 -0.0760 -0.0746  0.1853
61489SOL    HW1 2077  12.849  11.010   8.693 -2.1928  1.8586  0.5640
61489SOL    HW2 2078  12.836  11.008   8.542  2.7264 -2.6659 -0.1009
61490SOL     OW 2079   2.426   4.101   5.278  0.2505  0.5071 -0.4497
61490SOL    HW1 2080   2.413   4.195   5.288  1.3020  0.6264 -0.0835
61490SOL    HW2 2081   2.455   4.071   5.364 -0.6101 -0.2600 -0.4067
61491SOL     OW 2082   8.205   2.987   8.998 -0.2929  0.0008 -0.2951
61491SOL    HW1 2083   8.226   2.906   9.044  0.5858  0.1022 -0.4883
61491SOL    HW2 2084   8.275   2.996   8.933  0.9166  2.0352  1.1656
61492SOL     OW 2085  13.820   3.333   0.730  0.4389  0.1819 -0.4148
61492SOL    HW1 2086  13.898   3.385   0.747  0.9428 -1.0589  1.4517
61492SOL    HW2 2087  13.747   3.386   0.763  0.9295 -0.1769  1.3607
61493SOL     OW 2088   3.000   8.075   9.381 -0.2456 -0.1227  0.4457
61493SOL    HW1 2089   2.936   8.021   9.334 -0.3586  0.2521  0.1627
61493SOL    HW2 2090   3.035   8.017   9.448 -0.3406 -0.5622  0.1251
61494SOL     OW 2091  14.091  11.427   6.382  0.1839 -0.7090 -0.6574
61494SOL    HW1 2092  14.098  11.440   6.287 -0.4482  0.5662 -0.5563
61494SOL    HW2 2093  14.135  11.504   6.419  0.6651 -1.3420  0.0956
61495SOL     OW 2094   0.830   4.539   5.527 -0.0293 -0.1990  0.0964
61495SOL    HW1 2095   0.772   4.593   5.475 -0.0427  0.5156  0.8434
61495SOL    HW2 2096   0.904   4.520   5.468 -0.0936  0.4991 -0.2185
61496SOL     OW 2097  13.118   9.664   0.758 -0.0350  0.0447  0.0626
61496SOL    HW1 2098  13.113   9.733   0.824 -0.1675 -0.5198  0.6582
61496SOL    HW2 2099  13.191   9.689   0.702 -2.2297  2.5559 -1.9232
61497SOL     OW 2100  13.859  10.046   9.815 -0.1972  0.4659 -0.2208
61497SOL    HW1 2101  13.825   9.958   9.834  0.4175 -0.2549 -2.2483
61497SOL    HW2 2102  13.789  10.105   9.842 -0.0226 -0.4892  2.6708
61498SOL     OW 2103  13.068   4.877   3.623  0.4539 -0.3793 -0.2040
61498SOL    HW1 2104  13.002   4.828   3.671  1.8478 -1.0243  1.1380
61498SOL    HW2 2105  13.038   4.874   3.532 -1.8805  0.2712  0.4711
61499SOL     OW 2106   2.703   1.762   3.817 -0.3076 -0.1568  0.3840
61499SOL    HW1 2107   2.798   1.760   3.832 -0.2252  2.1445  0.4622
61499SOL    HW2 2108   2.687   1.848   3.779 -2.4749 -0.2362  1.0260
61500SOL     OW 2109   3.230   3.563  11.579 -0.3575  0.2354  0.3386
61500SOL    HW1 2110   3.261   3.473  11.583  0.7016  0.5197 -0.7715
61500SOL    HW2 2111   3.147   3.559  11.532 -0.0511 -0.1103 -0.1758
61501SOL     OW 2112   3.318   9.805   1.957 -0.6021 -0.2128  0.4740
61501SOL    HW1 2113   3.356   9.752   2.027  0.5712  1.1932  0.9538
61501SOL    HW2 2114   3.393   9.829   1.902 -1.2396  0.2169 -0.2268
61502SOL     OW 2115  13.717  11.800   6.723  0.1999  0.5980  0.4609
61502SOL    HW1 2116  13.779  11.852   6.774  1.1008  1.6279 -1.5513
61502SOL    HW2 2117  13.771  11.735   6.679 -0.6482 -0.7046  1.2970
61503SOL     OW 2118  12.075   9.982   0.551  0.5371  0.3970 -0.7612
61503SOL    HW1 2119  12.041   9.929   0.479  0.1165  0.3368 -0.5234
61503SOL    HW2 2120  12.067   9.926   0.628  4.1858 -0.8649 -1.1474
61504SOL     OW 2121  11.054   4.206  13.341  0.2634 -0.1491  0.6287
61504SOL    HW1 2122  10.986   4.243  13.285  0.8623  0.6948  0.4368
61504SOL    HW2 2123  11.012   4.131  13.383 -0.5514 -0.0897 -0.0488
61505SOL     OW 2124  11.538   7.542  12.382  0.1421  0.1070  0.5091
61505SOL    HW1 2125  11.613   7.519  12.437  0.0144  0.9925  1.0774
61505SOL    HW2 2126  11.468   7.563  12.445 -0.2128  0.4480  0.0054
61506SOL     OW 2127   2.367   6.077   1.183 -0.3817 -0.1316  0.0708
61506SOL    HW1 2128   2.285   6.096   1.138 -0.3732 -2.1215 -0.9066
61506SOL    HW2 2129   2.341   6.039   1.266 -0.4845 -0.9728 -0.3331
61507SOL     OW 2130   9.521   3.106  11.507  0.0806 -0.4731  0.4858
61507SOL    HW1 2131   9.444   3.080  11.456  0.1929  0.8881 -0.4335
61507SOL    HW2 2132   9.532   3.199  11.487  0.6131 -0.0922  2.4168
61508SOL     OW 2133   8.613   5.109   9.812 -0.3942  0.2230  0.2724
61508SOL    HW1 2134   8.682   5.044   9.807 -0.2199  0.4644 -0.7074
61508SOL    HW2 2135   8.657   5.190   9.836 -0.6675 -0.0863  1.8897
61509SOL     OW 2136   3.439   8.152   7.510 -0.2984  0.0666 -0.6169
61509SOL    HW1 2137   3.444   8.165   7.415 -1.6125 -3.4386 -1.3428
61509SOL    HW2 2138   3.352   8.115   7.524  0.3193 -0.6247  1.7884
61510SOL     OW 2139   7.540  13.616  12.477 -0.5396  0.2255  0.2543
61510SOL    HW1 2140   7.576  13.692  12.522 -0.1096 -0.8606  1.8307
61510SOL    HW2 2141   7.563  13.629  12.385  0.9918  1.1835  0.7408
61511SOL     OW 2142  11.994   9.178   6.009  0.3974 -0.7076  0.0073
61511SOL    HW1 2143  12.031   9.263   5.986  0.3703 -0.3299  1.2569
61511SOL    HW2 2144  11.936   9.156   5.936  0.6660  0.1765 -0.4925
61512SOL     OW 2145   6.449   5.409  12.353 -0.1924 -0.0480  0.1244
61512SOL    HW1 2146   6.423   5.484  12.407 -0.5212 -0.4796  0.5762
61512SOL    HW2 2147   6.385   5.341  12.375 -0.1115 -0.3474 -0.5475
61513SOL     OW 2148  13.935   8.336  13.581  0.0798 -0.7547  0.6172
61513SOL    HW1 2149  13.947   8.382  13.665  0.3612 -1.3003  0.8806
61513SOL    HW2 2150  14.023   8.325  13.547 -0.0812  0.1835 -0.1580
61514SOL     OW 2151  13.721   0.927  10.581  0.4542  0.2614 -0.4917
61514SOL    HW1 2152  13.722   0.856  10.517  0.9530 -0.5586  0.3928
61514SOL    HW2 2153  13.747   0.885  10.663 -0.3791  1.2359  0.2969
61515SOL     OW 2154   5.976   0.446   8.342 -0.3546  0.5082  0.4861
61515SOL    HW1 2155   5.958   0.530   8.301  0.4208  0.0599 -0.8249
61515SOL    HW2 2156   5.903   0.390   8.316  0.3582  0.0953 -0.7267
61516SOL     OW 2157   8.830   4.621   0.616 -0.0769 -0.2458  0.6406
61516SOL    HW1 2158   8.810   4.654   0.528  1.4265 -1.2739 -0.1209
61516SOL    HW2 2159   8.765   4.551   0.630 -0.5188  0.1255  0.4922
61517SOL     OW 2160  10.168   6.508   4.469  0.4651 -0.3585  0.0788
61517SOL    HW1 2161  10.178   6.433   4.528 -1.4453 -0.3253  0.5042
61517SOL    HW2 2162  10.211   6.481   4.388  1.5820 -1.0978  0.8918
61518SOL     OW 2163  13.909  11.718  12.079  0.1299  0.2472  0.2103
61518SOL    HW1 2164  13.888  11.785  12.144 -2.6360  0.0907 -0.3926
61518SOL    HW2 2165  13.955  11.650  12.128 -1.3871  0.3846  1.9244
61519SOL     OW 2166   9.200  12.984   6.814  0.1738  0.0488 -0.3265
61519SOL    HW1 2167   9.289  12.953   6.796  0.0815  0.0569 -0.8294
61519SOL    HW2 2168   9.145  12.934   6.753 -0.0768  0.5737 -0.5423
61520SOL     OW 2169   6.445   4.292   2.378 -0.3766 -0.0233  0.0302
61520SOL    HW1 2170   6.349   4.284   2.377 -0.4957  1.2550 -0.5191
61520SOL    HW2 2171   6.462   4.377   2.337  0.9786 -0.0438  0.5151
61521SOL     OW 2172   6.199  13.127   2.694  0.2109  0.3032 -0.4845
61521SOL    HW1 2173   6.290  13.123   2.723  0.0540  0.7974  0.0947
61521SOL    HW2 2174   6.203  13.106   2.600  0.8115 -0.5721 -0.2850
61522SOL     OW 2175   6.554   2.803  10.109 -0.3080 -0.1207 -0.9674
61522SOL    HW1 2176   6.566   2.845  10.024  0.1099  0.7157 -0.5026
61522SOL    HW2 2177   6.497   2.863  10.157 -0.2314 -0.4066 -0.5173
61523SOL     OW 2178   0.896   1.524   1.230  0.4481 -0.0508 -0.9027
61523SOL    HW1 2179   0.944   1.456   1.277  0.5439  0.3868 -0.3518
61523SOL    HW2 2180   0.824   1.548   1.289  0.4044  0.3044 -1.1000
61524SOL     OW 2181  11.525   5.768   3.656 -0.1547  0.2486  0.3404
61524SOL    HW1 2182  11.574   5.850   3.654  1.2182 -0.5106  1.3703
61524SOL    HW2 2183  11.491   5.762   3.746  0.3096 -0.6009  0.4762
61525SOL     OW 2184  11.623  10.338   3.850  0.5019 -0.1944  0.2186
61525SOL    HW1 2185  11.540  10.326   3.804  0.4258  1.3086 -0.0543
61525SOL    HW2 2186  11.689  10.335   3.782  0.2545  4.2013 -0.4610
61526SOL     OW 2187   6.695   3.428  12.150  0.2439 -0.4615  0.0116
61526SOL    HW1 2188   6.624   3.479  12.190  0.8439  0.6962 -0.3549
61526SOL    HW2 2189   6.656   3.393  12.070 -0.0152 -0.1205 -0.0170
61527SOL     OW 2190   9.457   1.567  12.383  0.1076  0.2915  0.0715
61527SOL    HW1 2191   9.457   1.658  12.352 -1.9306 -0.0201 -1.0591
61527SOL    HW2 2192   9.408   1.570  12.465  0.7495  0.3128  0.4610
61528SOL     OW 2193   9.756  13.578   2.591  0.2775 -0.1511 -0.3419
61528SOL    HW1 2194   9.843  13.619   2.594  0.5230 -0.6985  1.4039
61528SOL    HW2 2195   9.754  13.532   2.508  1.3741  0.4694 -0.7329
61529SOL     OW 2196   1.709  10.267   8.723  0.4447  0.0937  0.7562
61529SOL    HW1 2197   1.640  10.288   8.660  0.1290 -1.5285  0.5373
61529SOL    HW2 2198   1.667  10.209   8.787  0.7999  1.5662  2.4136
61530SOL     OW 2199  12.911  11.259   9.774 -0.6501 -0.3152  0.3207
61530SOL    HW1 2200  12.994  11.243   9.729 -0.7827  1.4709 -0.6349
61530SOL    HW2 2201  12.846  11.215   9.719 -0.3946 -1.5377  0.9577
61531SOL     OW 2202   2.519   5.059   2.118 -0.2290 -0.0753 -0.1959
61531SOL    HW1 2203   2.593   5.003   2.096  1.2219  1.3631  0.7823
61531SOL    HW2 2204   2.510   5.117   2.042  1.6993  1.7606  0.8822
61532SOL     OW 2205   5.145   1.811   5.201  0.0696 -0.7787 -0.1284
61532SOL    HW1 2206   5.052   1.827   5.186  0.0935  0.0532  0.5327
61532SOL    HW2 2207   5.187   1.894   5.179  0.5736 -0.9200  0.2965
61533SOL     OW 2208   1.236   7.862  13.104 -1.2232  0.3048  0.1306
61533SOL    HW1 2209   1.265   7.942  13.149 -1.4045  0.2529  0.3376
61533SOL    HW2 2210   1.227   7.889  13.013  0.3684  0.0969 -0.1206
61534SOL     OW 2211   1.352  13.307  12.241 -0.3842  0.0082  0.4823
61534SOL    HW1 2212   1.305  13.379  12.285 -0.3189  1.5463 -1.8042
61534SOL    HW2 2213   1.283  13.245  12.219 -1.0218  1.0278 -0.5402
61535SOL     OW 2214  12.144   9.684  10.512  0.3459 -0.0068 -0.2197
61535SOL    HW1 2215  12.176   9.611  10.565 -0.9861 -1.6588 -1.5644
61535SOL    HW2 2216  12.154   9.653  10.422  0.6003  1.8825 -0.8797
61536SOL     OW 2217  13.632   6.979   3.677 -0.1562  0.1362  0.0264
61536SOL    HW1 2218  13.618   6.935   3.593  1.7474  0.9026 -0.7516
61536SOL    HW2 2219  13.692   6.922   3.725 -0.7538  0.0001  0.6231
61537SOL     OW 2220   0.428   3.063   5.001 -0.0101  0.2646 -0.2715
61537SOL    HW1 2221   0.484   3.013   4.943  0.0558  0.1593 -0.1183
61537SOL    HW2 2222   0.357   3.095   4.945  0.2264  0.4363 -0.4724
61538SOL     OW 2223  10.482   0.412   9.844  0.1496 -0.2760 -0.2891
61538SOL    HW1 2224  10.513   0.321   9.845 -3.3780 -1.6206 -1.0206
61538SOL    HW2 2225  10.512   0.446   9.759  1.6392 -0.6528  0.0579
61539SOL     OW 2226   6.555   0.165   2.646  0.4305  0.1662 -0.3990
61539SOL    HW1 2227   6.473   0.117   2.637  0.5729 -0.4260  1.1675
61539SOL    HW2 2228   6.567   0.209   2.562 -2.0154  1.1117 -0.3271
61540SOL     OW 2229  12.499   1.694   0.661 -0.1315  0.5845 -0.0760
61540SOL    HW1 2230  12.531   1.659   0.743  0.8358  1.6532  0.0309
61540SOL    HW2 2231  12.540   1.641   0.593 -0.2032  0.2947  0.1060
61541SOL     OW 2232  10.707   6.157   1.211  0.3446 -0.2147  0.4665
61541SOL    HW1 2233  10.641   6.137   1.145 -1.1861  0.0907  1.8545
61541SOL    HW2 2234  10.752   6.235   1.177  0.0981 -0.4923 -0.5378
61542SOL     OW 2235   3.163   0.072   6.232  0.3583  0.3709  0.2030
61542SOL    HW1 2236   3.121   0.080   6.318 -0.4015 -0.5677 -0.0505
61542SOL    HW2 2237   3.175  -0.023   6.221 -0.1060  0.4319 -0.9680
61543SOL     OW 2238  12.746   1.106   6.215 -0.4571  0.4513 -0.2012
61543SOL    HW1 2239  12.741   1.194   6.252 -1.6792 -0.1677  1.2293
61543SOL    HW2 2240  12.713   1.115   6.126 -1.0203  1.3629  0.0890
61544SOL     OW 2241   4.471   3.419  12.008 -0.3554 -0.0699 -0.3896
61544SOL    HW1 2242   4.555   3.373  12.008  0.9841  2.0147 -3.5815
61544SOL    HW2 2243   4.493   3.507  12.039 -1.7330  0.0418  0.3142
61545SOL     OW 2244   1.539  12.943   7.885 -0.1781 -0.2622  0.8127
61545SOL    HW1 2245   1.490  12.884   7.829  0.6727 -0.7573  0.5766
61545SOL    HW2 2246   1.473  12.999   7.925 -0.9747 -1.1996  0.8336
61546SOL     OW 2247   4.138  13.228  12.653 -0.2794 -0.2137 -0.2084
61546SOL    HW1 2248   4.233  13.236  12.645 -0.5083  0.7483 -3.7707
61546SOL    HW2 2249   4.125  13.165  12.723  3.0058 -1.2551 -0.3587
61547SOL     OW 2250  12.638   6.087   1.993 -0.0995 -0.2788 -0.0828
61547SOL    HW1 2251  12.722   6.057   1.958  0.0652  0.1664 -0.0712
61547SOL    HW2 2252  12.659   6.118   2.082 -0.1615  0.4113 -0.3081
61548SOL     OW 2253  13.630   1.692  13.757  0.9579  0.4938  0.3234
61548SOL    HW1 2254  13.590   1.613  13.720  1.2781  0.0719  0.8612
61548SOL    HW2 2255  13.628   1.755  13.686 -0.4958  0.4335  0.2639
61549SOL     OW 2256   0.611   4.575  10.654 -0.0217 -0.1642  0.4015
61549SOL    HW1 2257   0.518   4.569  10.635 -0.0081 -0.1842  0.3383
61549SOL    HW2 2258   0.643   4.485  10.643  0.0104 -0.1516  0.3943
61550SOL     OW 2259   7.121   2.397   4.575 -0.0096 -0.4741 -0.3726
61550SOL    HW1 2260   7.117   2.310   4.615  3.3196 -0.0194  1.2506
61550SOL    HW2 2261   7.174   2.386   4.497 -0.2926 -0.0185 -0.6380
61551SOL     OW 2262  11.155   4.272   9.950 -0.2376 -0.4152  0.0132
61551SOL    HW1 2263  11.067   4.305   9.966 -0.8117 -1.2119 -1.3379
61551SOL    HW2 2264  11.209   4.350   9.941 -0.8742  0.0825  0.4795
61552SOL     OW 2265   3.491  12.991   6.750 -0.0266 -0.3609  0.4436
61552SOL    HW1 2266   3.509  12.901   6.777 -1.3619 -0.8021 -0.0880
61552SOL    HW2 2267   3.414  12.985   6.693 -0.7548  1.2292  1.1977
61553SOL     OW 2268  11.234   1.732  10.911  0.5923  0.2588  0.4673
61553SOL    HW1 2269  11.178   1.655  10.914  1.1979 -0.1608  1.2363
61553SOL    HW2 2270  11.179   1.803  10.945 -0.7501  0.7284 -2.3367
61554SOL     OW 2271   9.088   3.345  13.438 -0.1921 -0.5322 -0.2794
61554SOL    HW1 2272   9.092   3.324  13.344  1.7066  0.6083 -0.5217
61554SOL    HW2 2273   9.180   3.349  13.465 -0.5818  1.7887  0.9667
61555SOL     OW 2274   8.064  11.342  12.213  1.0367  0.6669  0.0023
61555SOL    HW1 2275   8.157  11.337  12.191  1.0316  1.7911 -0.3239
61555SOL    HW2 2276   8.019  11.334  12.129  0.9145  1.9307 -0.0728
61556SOL     OW 2277   2.653  14.072   1.552  0.0259  0.4252 -0.1693
61556SOL    HW1 2278   2.633  14.021   1.631  3.1568 -1.2122 -0.2567
61556SOL    HW2 2279   2.706  14.145   1.584 -0.7036  1.1302 -0.5374
61557SOL     OW 2280   0.020  13.880   0.227 -0.2823 -0.0592 -0.0505
61557SOL    HW1 2281  -0.025  13.962   0.249  1.3102  1.1569 -1.0907
61557SOL    HW2 2282  -0.018  13.854   0.143 -0.2612  0.0425 -0.0928
61558SOL     OW 2283  11.137   5.906  11.577 -0.5511 -0.3308  0.5786
61558SOL    HW1 2284  11.164   5.889  11.486 -1.2566 -0.6746  0.4315
61558SOL    HW2 2285  11.218   5.897  11.627 -0.4108 -1.5647  0.1705
61559SOL     OW 2286  11.476   0.772   3.601 -0.1008 -0.1419  0.3142
61559SOL    HW1 2287  11.388   0.800   3.576 -0.6014 -0.7983  1.2957
61559SOL    HW2 2288  11.508   0.842   3.659 -0.6188 -0.6689  1.2548
61560SOL     OW 2289   0.665  10.784   7.900  0.2500 -0.4422 -0.3516
61560SOL    HW1 2290   0.632  10.703   7.939 -1.7648  0.1131 -0.7659
61560SOL    HW2 2291   0.599  10.807   7.834  0.8546  1.4458 -0.3633
61561SOL     OW 2292   1.042  13.235   8.293  0.3193 -0.1362  0.9069
61561SOL    HW1 2293   1.059  13.163   8.232  0.2839 -0.3715  1.1721
61561SOL    HW2 2294   1.011  13.307   8.238 -3.1689 -1.4250  0.9518
61562SOL     OW 2295  13.950   2.442   1.047 -0.7395  0.0090  0.6319
61562SOL    HW1 2296  13.983   2.493   0.972 -1.7748  2.5331  1.7752
61562SOL    HW2 2297  14.027   2.399   1.083 -0.0502 -0.3959 -1.2219
61563SOL     OW 2298   7.459  12.102  13.162 -0.0826 -0.0564  0.2274
61563SOL    HW1 2299   7.540  12.051  13.165  0.4042  0.7740  1.9471
61563SOL    HW2 2300   7.446  12.120  13.068  2.1157  0.4171 -0.0413
61564SOL     OW 2301  14.006   0.574  11.568  0.7771 -1.2268 -0.1270
61564SOL    HW1 2302  13.938   0.517  11.532 -0.4219  0.2566 -0.2906
61564SOL    HW2 2303  14.039   0.526  11.644 -0.2323 -2.1107 -0.2274
61565SOL     OW 2304   2.251   3.800   6.148  0.4627  0.1055  0.1076
61565SOL    HW1 2305   2.297   3.727   6.109  0.2076  0.3238 -0.6117
61565SOL    HW2 2306   2.302   3.877   6.123  2.0671  0.0367  2.7847
61566SOL     OW 2307  10.775  12.027  10.988 -0.3135  0.1339 -0.4161
61566SOL    HW1 2308  10.866  12.044  11.013 -0.1547 -0.2470 -0.7290
61566SOL    HW2 2309  10.738  12.114  10.972 -0.9155  0.5419  2.7204
61567SOL     OW 2310   1.334  11.905   2.816  0.3298 -0.9131  0.2118
61567SOL    HW1 2311   1.323  11.810   2.811 -1.7529 -0.8503  2.2895
61567SOL    HW2 2312   1.377  11.920   2.900  0.8834 -0.0097 -0.2137
61568SOL     OW 2313  10.077  12.791  13.338  0.1503  0.7605 -0.7130
61568SOL    HW1 2314  10.149  12.748  13.294  1.0258  1.5121 -0.0490
61568SOL    HW2 2315  10.109  12.809  13.426 -1.3583 -0.1902  0.0785
61569SOL     OW 2316   7.493   0.865   1.702 -0.1710  0.1907  0.3292
61569SOL    HW1 2317   7.523   0.937   1.646 -1.3981  1.2289  0.9649
61569SOL    HW2 2318   7.462   0.799   1.640  1.1899  0.0767 -0.2691
61570SOL     OW 2319  13.672   2.088   8.540 -0.3682 -0.6508  0.1320
61570SOL    HW1 2320  13.597   2.147   8.547  0.9503  0.9321  1.9779
61570SOL    HW2 2321  13.687   2.057   8.630  1.8125 -0.0406  0.0412
61571SOL     OW 2322   3.077   6.191  10.612 -0.4180 -0.3712  0.0937
61571SOL    HW1 2323   3.154   6.219  10.660  0.6181 -0.4200 -1.4806
61571SOL    HW2 2324   3.107   6.181  10.521 -2.2532 -0.4281 -0.5506
61572SOL     OW 2325   0.851   5.229   2.396 -0.9659  0.3175 -0.7952
61572SOL    HW1 2326   0.812   5.297   2.341 -0.2890  1.7426  0.4394
61572SOL    HW2 2327   0.896   5.172   2.333 -2.9538 -0.0001 -2.0068
61573SOL     OW 2328   2.515   3.109  12.644  0.4248 -0.1855 -0.2703
61573SOL    HW1 2329   2.541   3.059  12.722 -1.8881  0.4486  0.9840
61573SOL    HW2 2330   2.483   3.043  12.582  1.1631 -0.5870 -0.2304
61574SOL     OW 2331   4.344   3.448   7.507 -0.4606  0.0358  0.9482
61574SOL    HW1 2332   4.255   3.413   7.508  0.4014 -2.3775  0.0129
61574SOL    HW2 2333   4.371   3.448   7.599 -0.5600 -1.6905  1.0038
61575SOL     OW 2334  13.220   4.936   9.910  0.2622  0.1025 -0.3171
61575SOL    HW1 2335  13.149   4.998   9.894  0.1989  0.1402  0.0913
61575SOL    HW2 2336  13.209   4.869   9.843  0.7280  0.8631 -1.1921
61576SOL     OW 2337  12.132   2.291   0.538  0.2908 -0.3064 -0.2207
61576SOL    HW1 2338  12.086   2.220   0.583 -1.4710  0.1953 -1.1085
61576SOL    HW2 2339  12.137   2.264   0.447 -0.5519  0.7337 -0.6033
61577SOL     OW 2340   0.426   7.645   4.997 -0.4522  0.2540 -0.4276
61577SOL    HW1 2341   0.435   7.738   4.975 -2.6813  0.4713 -0.6214
61577SOL    HW2 2342   0.403   7.644   5.089  2.3084 -0.3247  0.3501
61578SOL     OW 2343   7.409  10.477   3.978  0.3450 -0.1760  0.2428
61578SOL    HW1 2344   7.453  10.401   3.939  0.8267  0.1711  0.0965
61578SOL    HW2 2345   7.381  10.446   4.065  1.0665 -0.3481  0.4234
61579SOL     OW 2346   7.643   8.208  13.260  0.5378  0.1175 -0.4119
61579SOL    HW1 2347   7.592   8.153  13.202  1.2577 -0.0991 -0.8507
61579SOL    HW2 2348   7.585   8.282  13.280  1.2561  1.7790 -3.8261
61580SOL     OW 2349   2.138  12.593  13.431  0.0430  0.1194 -0.2026
61580SOL    HW1 2350   2.057  12.638  13.406  0.7162  0.6410 -1.5425
61580SOL    HW2 2351   2.110  12.503  13.450 -0.6137 -0.2410 -2.5877
61581SOL     OW 2352  10.156  10.005   0.309  0.0547  0.1167  0.3966
61581SOL    HW1 2353  10.183  10.095   0.325 -1.1850  0.6641 -0.4452
61581SOL    HW2 2354  10.060  10.006   0.320 -0.2482 -0.5906 -1.7217
61582SOL     OW 2355   1.617   5.215  13.461  0.4366  0.5620  0.8166
61582SOL    HW1 2356   1.627   5.302  13.498  4.0376 -0.5826  2.9633
61582SOL    HW2 2357   1.557   5.170  13.521  1.2088  0.6018  1.6252
61583SOL     OW 2358  12.156   8.388   3.174  0.1436 -0.3856  0.1781
61583SOL    HW1 2359  12.200   8.325   3.231 -0.1414 -0.4929  0.2811
61583SOL    HW2 2360  12.130   8.460   3.232  2.8406  1.1388 -0.3521
61584SOL     OW 2361   5.018  13.465  10.922  0.2070 -0.3816  0.1728
61584SOL    HW1 2362   5.105  13.440  10.892 -0.3496 -0.5284 -1.4277
61584SOL    HW2 2363   5.034  13.521  10.998  1.7582  0.5862 -0.8073
61585SOL     OW 2364  11.229  11.794  12.336  0.3216  0.1371  0.0781
61585SOL    HW1 2365  11.299  11.753  12.387  0.7175  0.9845  0.2258
61585SOL    HW2 2366  11.267  11.874  12.302  0.1189 -0.4596 -1.6860
61586SOL     OW 2367   5.627   1.910   0.689  0.2290  0.3984  0.3377
61586SOL    HW1 2368   5.697   1.846   0.703  0.1423  0.5178  1.3946
61586SOL    HW2 2369   5.564   1.865   0.633  0.2296 -0.3993  0.9680
61587SOL     OW 2370  11.553   2.729   7.756 -0.1062 -0.3044 -0.0873
61587SOL    HW1 2371  11.556   2.737   7.852  0.0605 -2.2311  0.1194
61587SOL    HW2 2372  11.574   2.637   7.740 -3.1128 -0.8004 -1.8318
61588SOL     OW 2373   2.277  11.150   9.715 -0.2704 -0.3808 -0.1850
61588SOL    HW1 2374   2.275  11.057   9.691 -3.3847 -0.3786 -0.2222
61588SOL    HW2 2375   2.233  11.195   9.643 -1.0336  0.8104  0.9822
61589SOL     OW 2376   7.363   6.770   5.034 -0.0550  0.2370  0.3868
61589SOL    HW1 2377   7.313   6.688   5.042 -0.2399  0.4150  1.2201
61589SOL    HW2 2378   7.367   6.787   4.940 -1.8901  0.4070  0.2957
61590SOL     OW 2379   2.250   9.172   1.689  0.7154  0.2702  0.2645
61590SOL    HW1 2380   2.310   9.229   1.737  0.2454  1.7966 -0.8686
61590SOL    HW2 2381   2.279   9.177   1.598  0.9708 -1.7491  0.2052
61591SOL     OW 2382   6.968   2.813   7.547 -0.3061  0.4755 -0.5358
61591SOL    HW1 2383   7.009   2.756   7.482  1.7784  0.3816  0.7792
61591SOL    HW2 2384   7.020   2.893   7.546  0.6096 -0.0076  1.8427
61592SOL     OW 2385   1.710   6.498   6.460  0.1793  0.0945 -0.2235
61592SOL    HW1 2386   1.756   6.472   6.539 -1.0483 -0.9866  0.1603
61592SOL    HW2 2387   1.628   6.536   6.491 -0.8973 -1.5112 -0.9698
61593SOL     OW 2388   8.856  10.761   8.950  0.0058  0.3932 -0.7929
61593SOL    HW1 2389   8.776  10.794   8.991 -0.5767  0.2915 -1.8187
61593SOL    HW2 2390   8.829  10.682   8.904  1.0291 -0.5691  0.1558
61594SOL     OW 2391   2.815   9.660  10.734  0.5198 -0.8764 -0.4666
61594SOL    HW1 2392   2.774   9.614  10.661 -1.2045 -0.1390  0.0109
61594SOL    HW2 2393   2.909   9.649  10.719  0.1750 -2.6868 -1.5310
61595SOL     OW 2394  10.702   7.875   2.421 -0.7691  0.2569  0.0220
61595SOL    HW1 2395  10.662   7.962   2.419  0.3221  0.8397  1.6390
61595SOL    HW2 2396  10.771   7.881   2.487 -0.9205 -1.9502  0.4723
61596SOL     OW 2397   1.414   3.721   5.168  0.2151 -0.3067 -0.2944
61596SOL    HW1 2398   1.495   3.678   5.141  1.3418  1.0740  0.7259
61596SOL    HW2 2399   1.398   3.788   5.102  1.0122  0.7110  0.5113
61597SOL     OW 2400   4.792   0.098   5.305 -0.1064 -0.1989 -0.1054
61597SOL    HW1 2401   4.773   0.103   5.211  0.8764 -1.1403 -0.3752
61597SOL    HW2 2402   4.887   0.094   5.310 -0.0924  0.9893  1.0193
61598SOL     OW 2403   9.386  12.591   6.271 -0.2326  0.6501 -0.0999
61598SOL    HW1 2404   9.313  12.569   6.330 -0.3612 -1.1254 -0.8667
61598SOL    HW2 2405   9.382  12.525   6.203  0.6349  1.9857 -1.4996
61599SOL     OW 2406   2.501  12.227  10.285  0.0683  0.1542 -0.2370
61599SOL    HW1 2407   2.540  12.140  10.293 -0.0192  0.1836  0.6502
61599SOL    HW2 2408   2.556  12.272  10.221  0.1038 -0.5566 -0.7155
61600SOL     OW 2409   7.385   9.374   2.000 -0.0193 -0.3397  0.2575
61600SOL    HW1 2410   7.417   9.317   2.070 -0.1620 -0.8415 -0.0825
61600SOL    HW2 2411   7.291   9.358   1.997 -0.1575  0.3555  0.5515
61601SOL     OW 2412   7.518   7.094  10.668  0.2362  0.1676 -0.3614
61601SOL    HW1 2413   7.434   7.134  10.694 -0.1999 -0.4234 -0.8333
61601SOL    HW2 2414   7.493   7.012  10.627  1.1229 -0.5872  0.5590
61602SOL     OW 2415  13.293  11.781   8.744  0.1969  0.0576 -0.0941
61602SOL    HW1 2416  13.208  11.740   8.758 -0.0910  0.5190 -0.4349
61602SOL    HW2 2417  13.354  11.708   8.734 -0.1862 -0.2774  0.0045
61603SOL     OW 2418  12.263  11.997   9.222 -0.1282  0.8519  0.1274
61603SOL    HW1 2419  12.182  11.948   9.206 -0.5244  1.7008 -0.4867
61603SOL    HW2 2420  12.306  12.001   9.137  1.9053 -1.8400  0.8499
61604SOL     OW 2421  11.031   1.366   8.618 -0.5589  0.2232  0.1467
61604SOL    HW1 2422  11.050   1.392   8.708  0.0402 -2.1616  0.7968
61604SOL    HW2 2423  11.102   1.403   8.566  0.4167 -0.3159  1.0486
61605SOL     OW 2424   9.507  10.012   4.492 -0.4246  0.1676 -0.2210
61605SOL    HW1 2425   9.519  10.069   4.568 -0.7866 -1.5455  1.2017
61605SOL    HW2 2426   9.412   9.998   4.488 -0.3033 -0.6523 -0.2931
61606SOL     OW 2427  12.408   3.839   4.705 -0.0150 -0.6685  0.1780
61606SOL    HW1 2428  12.463   3.788   4.646  2.7380  2.7368 -0.5811
61606SOL    HW2 2429  12.330   3.858   4.653  0.2201 -1.6423 -0.5797
61607SOL     OW 2430  11.072   4.008   5.827 -0.1050 -0.1752 -0.0078
61607SOL    HW1 2431  11.071   3.924   5.873 -1.1308 -0.2472 -0.1543
61607SOL    HW2 2432  11.011   4.063   5.875 -0.2074  0.1664 -0.5231
61608SOL     OW 2433   0.330   4.485  11.650 -0.0030 -0.2444 -0.0913
61608SOL    HW1 2434   0.406   4.432  11.624  0.2956  0.1709 -0.0772
61608SOL    HW2 2435   0.335   4.490  11.745 -0.6286 -1.0659  0.0010
61609SOL     OW 2436   8.981   4.403  13.063 -0.4694  0.1292  0.2321
61609SOL    HW1 2437   9.065   4.375  13.099  0.1176  0.0599 -1.1304
61609SOL    HW2 2438   8.982   4.372  12.973 -1.8105  0.4516  0.0857
61610SOL     OW 2439   8.520   1.554   1.545  0.9233 -0.1007 -0.3856
61610SOL    HW1 2440   8.604   1.566   1.501  0.7114  0.4459 -0.6525
61610SOL    HW2 2441   8.478   1.482   1.497  0.8639  0.2224 -0.8253
61611SOL     OW 2442  11.611  12.802  11.996  0.0396  0.1004  0.0387
61611SOL    HW1 2443  11.596  12.870  12.062 -3.3234 -0.5406  0.1143
61611SOL    HW2 2444  11.571  12.836  11.916 -1.2448 -1.5001 -0.0560
61612SOL     OW 2445  13.713  11.612  10.068  0.2854  0.4635  0.2237
61612SOL    HW1 2446  13.803  11.630  10.095 -0.1033  0.0980  1.9158
61612SOL    HW2 2447  13.659  11.664  10.127 -0.6420 -0.2370  0.0217
61613SOL     OW 2448   6.822  12.034   3.638 -0.1181  0.6763  0.5985
61613SOL    HW1 2449   6.891  12.067   3.581 -1.1897 -0.3163 -1.3787
61613SOL    HW2 2450   6.762  12.109   3.648  0.9870  1.4148  1.9882
61614SOL     OW 2451   3.699   2.948   8.170  0.3736  0.1588  0.2518
61614SOL    HW1 2452   3.724   2.871   8.220 -0.1092  1.0571  1.9761
61614SOL    HW2 2453   3.782   2.991   8.149  0.7721 -1.5109 -2.0387
61615SOL     OW 2454   5.784   8.958   4.495 -0.2781  0.0071 -0.3404
61615SOL    HW1 2455   5.865   9.007   4.506  0.7165 -1.8830  1.6028
61615SOL    HW2 2456   5.781   8.938   4.402  1.1763  0.6387 -0.5540
61616SOL     OW 2457  13.425  10.257   3.191  0.0745  0.0448 -0.0049
61616SOL    HW1 2458  13.432  10.164   3.168  2.9026  0.0173  0.5632
61616SOL    HW2 2459  13.513  10.292   3.174 -0.6924  2.4294  0.6010
61617SOL     OW 2460   8.017   3.599   3.868  0.8352 -0.2394  0.0217
61617SOL    HW1 2461   7.995   3.528   3.808 -0.3968  1.5476 -1.7606
61617SOL    HW2 2462   7.977   3.573   3.951 -0.1999 -1.2898 -0.7696
61618SOL     OW 2463   9.990   3.591  11.714 -0.2719 -0.0133  0.2702
61618SOL    HW1 2464  10.073   3.568  11.673  1.6631  2.1680  2.5871
61618SOL    HW2 2465   9.955   3.661  11.659 -0.5294 -0.8438 -0.6382
61619SOL     OW 2466  14.075   1.875   8.129  0.4878 -0.2981  0.3997
61619SOL    HW1 2467  14.164   1.848   8.149  1.1271  1.2747 -0.1330
61619SOL    HW2 2468  14.060   1.847   8.039  1.6349  2.1155 -0.6260
61620SOL     OW 2469  12.714   6.995   5.182  0.5293 -0.3859  0.1430
61620SOL    HW1 2470  12.661   7.067   5.148  1.2014  0.5134  0.9200
61620SOL    HW2 2471  12.696   6.995   5.276  3.3841  1.3168  0.8144
61621SOL     OW 2472   5.294  12.268   5.649  0.1924  0.1250 -0.3785
61621SOL    HW1 2473   5.317  12.212   5.723 -0.4273  1.7676  1.1397
61621SOL    HW2 2474   5.377  12.302   5.618  0.3915  0.2941  0.3140
61622SOL     OW 2475  10.534   3.612  13.040  0.3281 -0.0791  0.5317
61622SOL    HW1 2476  10.477   3.537  13.020  2.8454 -1.5893 -1.7777
61622SOL    HW2 2477  10.528   3.667  12.962 -0.6598  1.6608  1.7724
61623SOL     OW 2478   0.209  12.629  13.152 -0.0154  1.1680 -0.0667
61623SOL    HW1 2479   0.124  12.588  13.166  0.4229  0.5147  0.7065
61623SOL    HW2 2480   0.194  12.722  13.173 -0.6475  1.1542 -0.4211
61624SOL     OW 2481   5.046  10.419   5.689 -0.1178 -0.3249  0.6122
61624SOL    HW1 2482   5.043  10.324   5.682 -0.0809 -0.3998  1.5257
61624SOL    HW2 2483   4.960  10.444   5.721 -0.5472  0.0717 -0.8020
61625SOL     OW 2484   5.373   1.554   7.118  0.4208  0.2369  0.4373
61625SOL    HW1 2485   5.313   1.485   7.091 -0.6609  0.4928  2.0473
61625SOL    HW2 2486   5.318   1.630   7.133  1.3645  0.9480  0.4261
61626SOL     OW 2487   3.352   3.650   1.199 -0.5036 -0.1342 -0.1121
61626SOL    HW1 2488   3.301   3.600   1.135  0.0341 -0.1897 -0.5124
61626SOL    HW2 2489   3.288   3.680   1.263 -0.7559 -1.8702  0.4916
61627SOL     OW 2490  10.720   2.310   1.348  0.4059 -0.1590 -0.2394
61627SOL    HW1 2491  10.769   2.283   1.426 -0.7451 -3.6649 -0.5579
61627SOL    HW2 2492  10.629   2.317   1.378 -0.1182 -1.9424 -1.2338
61628SOL     OW 2493   0.613   7.696  12.254  0.1008 -0.0952 -0.5449
61628SOL    HW1 2494   0.542   7.756  12.231 -0.6359  0.0140  1.7290
61628SOL    HW2 2495   0.682   7.752  12.289  0.0847 -0.4243  0.0288
61629SOL     OW 2496   5.277  11.271   3.382 -0.5305  0.0940  0.0842
61629SOL    HW1 2497   5.298  11.179   3.399  3.2636  1.0678  1.7045
61629SOL    HW2 2498   5.325  11.292   3.302  0.9865  1.2656  1.2420
61630SOL     OW 2499   6.128   7.824   3.756  0.0393  0.7931 -0.3051
61630SOL    HW1 2500   6.105   7.758   3.690  1.4161  0.6792 -0.7002
61630SOL    HW2 2501   6.108   7.781   3.840  3.0036 -1.1476 -0.4061
61631SOL     OW 2502   1.080   2.686  10.628 -0.0940  0.0162 -0.2136
61631SOL    HW1 2503   1.061   2.603  10.583 -1.9121  0.5730 -0.5836
61631SOL    HW2 2504   1.080   2.663  10.721 -1.3839 -0.3022 -0.2644
61632SOL     OW 2505   5.780   3.336   3.885  0.3804 -0.0271 -0.2133
61632SOL    HW1 2506   5.701   3.387   3.870 -0.1778 -0.5448  0.8480
61632SOL    HW2 2507   5.852   3.394   3.860 -0.1892  1.5463  1.5865
61633SOL     OW 2508  14.010   7.277   6.716 -0.3788 -0.0458 -0.4218
61633SOL    HW1 2509  14.012   7.220   6.639 -1.1231  0.4756 -0.8441
61633SOL    HW2 2510  14.071   7.236   6.777 -1.5799 -1.8304 -0.3300
61634SOL     OW 2511   7.892   2.315  10.442 -0.2839 -0.6674  0.0625
61634SOL    HW1 2512   7.799   2.298  10.460 -0.2214 -0.2893  0.7877
61634SOL    HW2 2513   7.929   2.229  10.426 -0.4134 -1.0290  1.5375
61635SOL     OW 2514  13.280   1.816   2.302  0.1892 -0.1282 -1.0312
61635SOL    HW1 2515  13.233   1.897   2.284 -2.1135 -0.8398  1.2562
61635SOL    HW2 2516  13.304   1.782   2.215 -0.4374  2.0114 -2.1016
61636SOL     OW 2517  10.783   8.404  13.534 -0.3412 -0.2180  0.1296
61636SOL    HW1 2518  10.848   8.455  13.486  0.4817  1.2736  2.6879
61636SOL    HW2 2519  10.831   8.328  13.566 -0.4360 -0.2747  0.1384
61637SOL     OW 2520  13.400   9.951   6.231 -0.2053 -0.6113  0.0816
61637SOL    HW1 2521  13.368  10.032   6.191 -1.6589  0.3135  2.8145
61637SOL    HW2 2522  13.491   9.945   6.204  0.1318  2.3087  0.2638
61638SOL     OW 2523   5.760   3.700   8.736  0.0711 -0.4502  0.2786
61638SOL    HW1 2524   5.679   3.751   8.731 -0.3776 -1.0990  0.7209
61638SOL    HW2 2525   5.768   3.676   8.828  1.8988  1.3553  0.6515
61639SOL     OW 2526  12.937  11.406   8.390 -0.5369 -0.1423 -0.0357
61639SOL    HW1 2527  12.982  11.480   8.349  0.2801  1.4120  3.2685
61639SOL    HW2 2528  12.983  11.329   8.359  0.1121  0.8914 -1.7889
61640SOL     OW 2529   2.345   8.413  13.330  0.0209  0.2041 -0.1897
61640SOL    HW1 2530   2.303   8.440  13.411 -1.3628 -5.2102  1.3067
61640SOL    HW2 2531   2.274   8.409  13.266  0.4342  1.1287 -0.7252
61641SOL     OW 2532   1.763   7.963   4.283 -0.0816 -0.2472 -0.0430
61641SOL    HW1 2533   1.788   7.880   4.324 -0.5080 -0.4998 -0.2886
61641SOL    HW2 2534   1.689   7.940   4.227 -1.0064  0.5326  0.8384
61642SOL     OW 2535  10.163  10.617   0.099  0.3644 -0.6008 -0.3846
61642SOL    HW1 2536  10.148  10.711   0.091 -1.4325 -0.7398  0.7800
61642SOL    HW2 2537  10.199  10.591   0.014  0.2016  0.9940 -0.9731
61643SOL     OW 2538   1.280   7.945   0.038 -0.3615  0.2790  0.0203
61643SOL    HW1 2539   1.216   7.932  -0.032 -1.3396  0.2709  0.8924
61643SOL    HW2 2540   1.342   8.009   0.003 -0.5209 -0.1344 -1.0452
61644SOL     OW 2541   1.742   0.083   2.384  0.3203  0.5059  0.0390
61644SOL    HW1 2542   1.668   0.025   2.368  0.9812 -0.1714 -0.7210
61644SOL    HW2 2543   1.723   0.162   2.333  1.6501 -1.0050 -3.1168
61645SOL     OW 2544   4.282  10.648   5.334  0.0898  0.0978 -0.3837
61645SOL    HW1 2545   4.209  10.704   5.307 -0.5433 -0.4461  0.1775
61645SOL    HW2 2546   4.357  10.707   5.336 -0.6248  1.0159  0.4873
61646SOL     OW 2547   5.778   7.341   5.546 -0.0260 -0.3029  0.1114
61646SOL    HW1 2548   5.713   7.272   5.546 -0.1212 -0.3724  3.3977
61646SOL    HW2 2549   5.728   7.421   5.530 -0.9621 -0.4025  2.1899
61647SOL     OW 2550   5.627   4.359   3.512 -0.0701 -0.2968 -0.2267
61647SOL    HW1 2551   5.714   4.397   3.498 -0.0867 -0.5539 -1.0828
61647SOL    HW2 2552   5.602   4.324   3.427 -0.9630 -0.3424  0.0437
61648SOL     OW 2553   4.392   2.454   2.395 -0.7960  0.6500  0.3405
61648SOL    HW1 2554   4.375   2.442   2.301 -0.7019  1.2134  0.2451
61648SOL    HW2 2555   4.344   2.535   2.417 -0.3362  0.8400  0.6442
61649SOL     OW 2556   9.435   6.835   0.243  0.7345 -0.2388 -0.2274
61649SOL    HW1 2557   9.386   6.916   0.230 -0.2875 -0.8915 -0.5323
61649SOL    HW2 2558   9.503   6.858   0.307  0.4020  0.8261 -0.2409
61650SOL     OW 2559  11.472  10.766  12.979 -0.4896 -0.4367 -0.2528
61650SOL    HW1 2560  11.466  10.674  13.007  1.0166 -0.1210  1.2625
61650SOL    HW2 2561  11.566  10.784  12.975 -0.7529  0.8083 -1.3792
61651SOL     OW 2562   3.179   0.493   5.076 -0.2532 -0.0098  0.3553
61651SOL    HW1 2563   3.234   0.528   5.006 -1.1835 -0.2382 -0.5091
61651SOL    HW2 2564   3.236   0.493   5.153  0.8975 -0.0602 -0.4630
61652SOL     OW 2565   3.584  13.440   4.344 -0.0965  0.1201  0.0386
61652SOL    HW1 2566   3.575  13.432   4.249  0.1271 -1.4635  0.1194
61652SOL    HW2 2567   3.495  13.458   4.374 -0.4148 -0.6721 -0.3848
61653SOL     OW 2568   3.952   3.795   0.435  0.4525 -0.1073  0.4982
61653SOL    HW1 2569   3.993   3.874   0.398  1.4687 -0.9430 -0.2112
61653SOL    HW2 2570   3.937   3.739   0.359 -1.8085  0.0545  0.7748
61654SOL     OW 2571   0.012  10.177   0.019  0.7998  0.6959  0.0143
61654SOL    HW1 2572   0.094  10.204  -0.022  1.5821 -0.2304  0.9116
61654SOL    HW2 2573   0.009  10.082   0.007  0.8943  0.4409  1.7259
61655SOL     OW 2574  12.429   7.570   0.688  0.0211 -0.2450  0.1592
61655SOL    HW1 2575  12.430   7.650   0.636  3.3834 -0.0087  0.4335
61655SOL    HW2 2576  12.507   7.522   0.661 -0.1948 -1.9583  2.2622
61656SOL     OW 2577   2.679  11.633  11.964  0.5505  0.3231  0.1771
61656SOL    HW1 2578   2.676  11.728  11.955  0.4409  0.1659 -1.7536
61656SOL    HW2 2579   2.752  11.606  11.909 -0.5535 -0.8532 -0.7610
61657SOL     OW 2580   0.632   7.149  10.466  0.1094 -0.1717 -0.0345
61657SOL    HW1 2581   0.596   7.149  10.378  0.2825 -0.5422 -0.1056
61657SOL    HW2 2582   0.712   7.097  10.460 -0.0912 -0.5442  0.4230
61658SOL     OW 2583   9.725   2.282   9.429  0.3496  0.1775 -0.5070
61658SOL    HW1 2584   9.705   2.260   9.338  3.6794 -0.2356 -1.2489
61658SOL    HW2 2585   9.723   2.378   9.431  0.4598  0.1969 -1.0730
61659SOL     OW 2586   1.832   6.908   6.108  0.0244 -0.1803 -0.0969
61659SOL    HW1 2587   1.804   6.988   6.152 -1.4429 -0.7778  0.1230
61659SOL    HW2 2588   1.750   6.864   6.084  0.7261 -2.4407  1.2773
61660SOL     OW 2589  12.256   9.941   3.447  0.4114  0.5816  0.2801
61660SOL    HW1 2590  12.264   9.996   3.525  0.1180 -1.9602  2.2319
61660SOL    HW2 2591  12.166   9.953   3.419 -0.9256 -1.6908  3.0689
61661SOL     OW 2592  12.526  10.363   3.994 -0.3413 -0.1955 -0.2692
61661SOL    HW1 2593  12.537  10.411   4.076  1.4160 -1.4637  0.3070
61661SOL    HW2 2594  12.438  10.325   4.000  0.1036 -1.0666  1.5036
61662SOL     OW 2595   2.516  13.871   7.558 -0.3677 -0.5630 -0.1029
61662SOL    HW1 2596   2.548  13.915   7.479  0.0122 -1.5656 -0.5213
61662SOL    HW2 2597   2.447  13.928   7.591 -0.8677 -0.3628 -1.4421
61663SOL     OW 2598   3.810  11.863   3.327 -0.2337 -0.2696  0.6029
61663SOL    HW1 2599   3.727  11.859   3.279  0.0035  0.6953  0.0804
61663SOL    HW2 2600   3.825  11.957   3.340 -0.2717 -0.4986  2.5683
61664SOL     OW 2601   3.250   8.943  13.994  0.6326 -0.1494 -0.5161
61664SOL    HW1 2602   3.202   9.023  13.974  1.0431  0.1651 -0.2740
61664SOL    HW2 2603   3.254   8.941  14.090  0.6940 -0.4225 -0.5217
61665SOL     OW 2604   2.291   9.410   4.196  0.9428  0.1254  0.6737
61665SOL    HW1 2605   2.311   9.471   4.125  2.5874  0.5562  1.4612
61665SOL    HW2 2606   2.220   9.452   4.245  1.3005  0.8635  0.5611
61666SOL     OW 2607   0.639   1.384  10.254  0.5953  0.1837 -0.2241
61666SOL    HW1 2608   0.617   1.299  10.292  1.0796  0.6119  1.0483
61666SOL    HW2 2609   0.686   1.431  10.323 -3.1327  3.0714  0.6457
61667SOL     OW 2610   5.858  12.162   3.443  0.5041  0.4885 -0.0351
61667SOL    HW1 2611   5.827  12.132   3.529 -0.9728  1.9742 -0.0010
61667SOL    HW2 2612   5.953  12.170   3.454  0.5827 -1.1016  0.8658
61668SOL     OW 2613   2.923   4.454  13.647 -0.4244 -0.9085 -0.1325
61668SOL    HW1 2614   2.846   4.503  13.619  1.8603  3.0540 -0.1320
61668SOL    HW2 2615   2.936   4.479  13.738  2.4933  1.0958 -0.9535
61669SOL     OW 2616  10.468   3.484  13.689  0.2486 -0.1918 -0.0890
61669SOL    HW1 2617  10.462   3.403  13.638  4.0646 -2.5518  2.7585
61669SOL    HW2 2618  10.423   3.465  13.771  0.2589  1.0367  0.2305
61670SOL     OW 2619   2.412   9.101   3.473  0.1506  0.1017 -0.2616
61670SOL    HW1 2620   2.425   9.185   3.430 -1.2905  1.2871  1.4817
61670SOL    HW2 2621   2.485   9.095   3.535 -1.1710  1.4013  1.5110
61671SOL     OW 2622   0.110   8.516   6.748  0.5970  0.0258 -0.3932
61671SOL    HW1 2623   0.163   8.520   6.827  1.2699  0.0631 -0.8456
61671SOL    HW2 2624   0.041   8.453   6.769 -0.4059  1.4797  0.9157
61672SOL     OW 2625  10.939   6.575   5.310  0.0767  0.3774  0.1532
61672SOL    HW1 2626  11.027   6.573   5.349 -0.3554  1.1525  1.2201
61672SOL    HW2 2627  10.880   6.560   5.385 -0.7079  0.0176 -0.5233
61673SOL     OW 2628  13.247   8.166  13.989  0.6133  0.2017  0.1736
61673SOL    HW1 2629  13.254   8.098  13.922 -0.1560 -0.0498  0.3356
61673SOL    HW2 2630  13.321   8.149  14.047  1.3788  0.5207 -0.6914
61674SOL     OW 2631   0.071   1.753   1.116  0.0014  0.3322  0.3373
61674SOL    HW1 2632   0.162   1.723   1.109  0.4803  1.9894 -1.1771
61674SOL    HW2 2633   0.073   1.844   1.088 -2.1845  0.3653  0.0975
61675SOL     OW 2634   0.958   6.772   6.219  0.2071  0.1723  0.3770
61675SOL    HW1 2635   1.045   6.804   6.197  0.0340  0.8285  0.6358
61675SOL    HW2 2636   0.927   6.729   6.140  0.5522  0.4081  0.1138
61676SOL     OW 2637   4.955  11.975   8.368 -0.3509 -0.0512  0.0320
61676SOL    HW1 2638   4.869  12.002   8.335 -1.1865  0.0294  2.1224
61676SOL    HW2 2639   4.937  11.898   8.422  1.0450 -0.6155 -0.2686
61677SOL     OW 2640   9.278   6.409  13.343 -0.0715  0.1403  0.0549
61677SOL    HW1 2641   9.368   6.379  13.354  0.1860  0.6767 -0.5187
61677SOL    HW2 2642   9.286   6.500  13.315 -0.8406  0.9505  2.2649
61678SOL     OW 2643  14.077   8.362  13.857  0.1051  0.5348  0.0685
61678SOL    HW1 2644  14.153   8.304  13.866 -1.4563 -2.0060 -1.6700
61678SOL    HW2 2645  14.023   8.341  13.933  0.4491  1.2924  0.5376
61679SOL     OW 2646   0.629   2.473   0.583  0.4974  0.7058 -0.0116
61679SOL    HW1 2647   0.544   2.465   0.540  0.2386  1.3318  0.3762
61679SOL    HW2 2648   0.678   2.396   0.553  0.1441  0.8476 -1.0045
61680SOL     OW 2649   0.984   9.956   3.772  0.0312 -0.1364 -0.0263
61680SOL    HW1 2650   1.022   9.942   3.686 -0.9396 -0.3810 -0.4253
61680SOL    HW2 2651   0.948   9.871   3.797  1.6989 -0.4990  1.3403
61681SOL     OW 2652  10.230  10.312   3.403  0.2566  0.2177 -0.6964
61681SOL    HW1 2653  10.281  10.233   3.422 -1.1069 -0.4889  0.2217
61681SOL    HW2 2654  10.283  10.384   3.436  2.5146 -0.0336 -3.4241
61682SOL     OW 2655  13.085   4.442   1.409  0.3167 -0.2165 -0.2969
61682SOL    HW1 2656  13.148   4.514   1.403 -0.6633  0.5635 -2.3839
61682SOL    HW2 2657  13.097   4.392   1.328  0.1466 -1.7076  0.5672
61683SOL     OW 2658  13.309  10.425  11.840 -0.2199 -0.3736  0.3955
61683SOL    HW1 2659  13.305  10.351  11.780  0.1691  0.2321 -0.3988
61683SOL    HW2 2660  13.403  10.437  11.857 -0.0661  1.3226 -1.2853
61684SOL     OW 2661  11.471  13.372   8.405 -0.6197  0.2778  0.7123
61684SOL    HW1 2662  11.411  13.370   8.480 -1.3346 -2.7536  0.1716
61684SOL    HW2 2663  11.459  13.459   8.368 -2.4590  0.8208  2.3768
61685SOL     OW 2664   7.171   1.757   8.575 -0.4168  0.0575  0.4953
61685SOL    HW1 2665   7.162   1.764   8.480 -2.3465  1.5483  0.7061
61685SOL    HW2 2666   7.247   1.811   8.596  0.7632 -1.2613 -0.2818
61686SOL     OW 2667   9.232   4.431  11.138 -0.4639 -0.2701  0.8307
61686SOL    HW1 2668   9.212   4.510  11.188  0.7057  0.2241  0.5628
61686SOL    HW2 2669   9.196   4.448  11.051  3.0032  1.7065 -0.4341
61687SOL     OW 2670   7.135  11.558   8.709 -0.0377 -0.1506 -0.8923
61687SOL    HW1 2671   7.080  11.481   8.723  0.4292 -0.4933 -0.9210
61687SOL    HW2 2672   7.080  11.618   8.659 -0.4563 -0.4058 -0.7386
61688SOL     OW 2673   8.126  10.210   3.040 -0.3657 -0.2973 -0.3751
61688SOL    HW1 2674   8.158  10.291   3.080 -2.2540  0.5729 -0.5228
61688SOL    HW2 2675   8.055  10.182   3.098 -1.9854  0.0274 -2.0973
61689SOL     OW 2676   8.331   8.094   1.537 -0.4334  0.0423 -0.0842
61689SOL    HW1 2677   8.360   8.083   1.446 -1.4337 -0.2814 -0.3718
61689SOL    HW2 2678   8.338   8.189   1.552  0.3554  0.0248 -0.2759
61690SOL     OW 2679   7.518   0.990   2.054  0.1303  0.0789  0.2494
61690SOL    HW1 2680   7.548   0.899   2.066  0.9480 -0.0658 -2.2645
61690SOL    HW2 2681   7.591   1.043   2.085  0.6660 -0.1985 -0.4959
61691SOL     OW 2682  13.287   4.657   1.662  0.1060  0.3077 -0.0645
61691SOL    HW1 2683  13.197   4.636   1.684 -0.5179 -1.7336 -3.7672
61691SOL    HW2 2684  13.339   4.586   1.700  0.1207  1.0097  1.2992
61692SOL     OW 2685   4.420   0.427   2.348  0.4123 -0.3650 -0.2586
61692SOL    HW1 2686   4.343   0.437   2.293  0.2538  2.6917  0.3636
61692SOL    HW2 2687   4.492   0.413   2.286 -0.4029 -2.0168 -0.8955
61693SOL     OW 2688   9.643   1.620   3.608 -0.4242  0.4572 -0.5796
61693SOL    HW1 2689   9.663   1.714   3.601 -0.0849  0.5646  1.1865
61693SOL    HW2 2690   9.709   1.577   3.555 -0.5937  1.2072 -1.4286
61694SOL     OW 2691   1.040   4.001   6.087 -0.4217  0.4130  0.1877
61694SOL    HW1 2692   1.100   4.057   6.038  0.6324 -0.3874  0.5310
61694SOL    HW2 2693   1.096   3.945   6.140 -1.5126  1.3887  2.5250
61695SOL     OW 2694   2.261   3.665   0.556  0.2173  0.4940  0.1668
61695SOL    HW1 2695   2.268   3.596   0.490  0.9800  1.4516 -0.8090
61695SOL    HW2 2696   2.210   3.734   0.513  0.8474  1.1970  0.5232
61696SOL     OW 2697   2.561   4.586   7.416  0.1630  0.6969 -0.1834
61696SOL    HW1 2698   2.541   4.509   7.364  2.5794  1.0044 -1.7238
61696SOL    HW2 2699   2.540   4.660   7.359  0.3781  1.1108  0.2660
61697SOL     OW 2700   7.225   3.614   7.666 -0.0386 -0.4812  0.3032
61697SOL    HW1 2701   7.258   3.620   7.577  1.1153  2.3568  0.8225
61697SOL    HW2 2702   7.293   3.566   7.714  1.2685  1.2967  0.3693
61698SOL     OW 2703   3.673   9.770   7.881  0.1664 -0.3292 -0.4509
61698SOL    HW1 2704   3.580   9.753   7.891  0.2976 -1.3614 -0.8558
61698SOL    HW2 2705   3.693   9.739   7.793  0.8875 -0.0524 -0.3914
61699SOL     OW 2706   2.928  10.646   5.757 -0.6017  0.4279 -0.3574
61699SOL    HW1 2707   2.980  10.726   5.746  0.2390 -0.1083 -0.4432
61699SOL    HW2 2708   2.988  10.576   5.731 -1.6202 -0.1677 -1.1192
61700SOL     OW 2709   7.187  11.750   1.263  0.3248 -0.2609 -0.0831
61700SOL    HW1 2710   7.253  11.714   1.204  0.2607 -0.4797 -0.0207
61700SOL    HW2 2711   7.142  11.816   1.210  2.4951  2.0340  0.7236
61701SOL     OW 2712   8.371   6.739   1.135  0.2370 -0.1510  0.3756
61701SOL    HW1 2713   8.398   6.654   1.171  0.0393 -0.7096 -0.7585
61701SOL    HW2 2714   8.430   6.802   1.177 -1.4000 -0.4310  3.3954
61702SOL     OW 2715   3.524  12.167   9.222 -0.2626 -0.3141 -0.4442
61702SOL    HW1 2716   3.562  12.222   9.153  0.1665 -1.3971 -1.0964
61702SOL    HW2 2717   3.432  12.157   9.196 -0.8282  1.5767  0.6632
61703SOL     OW 2718  13.007   6.950   0.771  0.3255  0.2449  0.5379
61703SOL    HW1 2719  12.950   6.978   0.698  1.1207  0.0762 -0.1643
61703SOL    HW2 2720  13.007   6.855   0.766 -0.6986  0.1637  1.6253
61704SOL     OW 2721   0.518  12.130   8.754  0.3371  0.2621 -0.0863
61704SOL    HW1 2722   0.612  12.117   8.742  0.3946  0.6642 -0.0938
61704SOL    HW2 2723   0.478  12.093   8.675  0.6724  2.2903 -1.2727
61705SOL     OW 2724   9.538   0.919   9.404  0.2017 -0.5234 -0.2535
61705SOL    HW1 2725   9.600   0.847   9.411  1.5456  0.2236 -3.2472
61705SOL    HW2 2726   9.452   0.876   9.398  0.4000 -1.5998  2.6715
61706SOL     OW 2727  13.487   4.286   3.945  0.0193 -0.1042  0.8569
61706SOL    HW1 2728  13.579   4.277   3.918  0.2159  0.8623  1.1785
61706SOL    HW2 2729  13.438   4.248   3.873  0.6644 -0.3466  0.5341
61707SOL     OW 2730   2.055   1.039  11.088 -0.3752 -0.1526  0.0984
61707SOL    HW1 2731   2.112   0.984  11.034  1.0227  1.9038 -0.6147
61707SOL    HW2 2732   2.101   1.049  11.171 -0.9533 -0.5995  0.4800
61708SOL     OW 2733  13.913   5.359  10.162 -0.0442  0.1091  0.1575
61708SOL    HW1 2734  13.990   5.334  10.213  0.1840 -0.0931 -0.2791
61708SOL    HW2 2735  13.935   5.335  10.072 -0.7184 -0.2013  0.0640
61709SOL     OW 2736   4.330   8.772   7.078  0.0218 -0.3012  0.0928
61709SOL    HW1 2737   4.305   8.811   7.161  1.7488  2.8532 -0.7239
61709SOL    HW2 2738   4.261   8.799   7.017 -0.7791 -1.8803  0.2294
61710SOL     OW 2739   1.200   2.860  13.252 -0.0502  0.0616  0.7875
61710SOL    HW1 2740   1.216   2.836  13.161  1.2325  0.2050  0.9581
61710SOL    HW2 2741   1.202   2.778  13.300 -0.6967 -0.0106  0.7015
61711SOL     OW 2742   7.939   3.630   4.960 -0.0454 -0.3162 -0.1864
61711SOL    HW1 2743   8.022   3.668   4.991 -0.3959  0.4528 -0.1566
61711SOL    HW2 2744   7.906   3.580   5.034  0.0046  0.0309  0.0719
61712SOL     OW 2745   8.528   7.312   8.791  0.7797  0.2214  0.5723
61712SOL    HW1 2746   8.473   7.234   8.797  2.4400 -1.0461  0.1658
61712SOL    HW2 2747   8.505   7.364   8.868  0.0817 -0.9809  1.2028
61713SOL     OW 2748  12.424   8.647   3.311 -0.1061  0.1131 -0.3141
61713SOL    HW1 2749  12.341   8.643   3.358 -0.3038 -1.1725 -0.7301
61713SOL    HW2 2750  12.471   8.568   3.337 -0.3818 -0.8647 -2.5253
61714SOL     OW 2751   1.113   0.835  12.804 -0.1988  0.5444 -0.3617
61714SOL    HW1 2752   1.097   0.901  12.871 -0.7158  0.1831 -0.1260
61714SOL    HW2 2753   1.068   0.868  12.726 -0.2449  0.5951 -0.3141
61715SOL     OW 2754   0.264   0.776   2.566  0.2707 -0.0635 -0.4232
61715SOL    HW1 2755   0.344   0.827   2.570  0.1268  0.0869  1.8556
61715SOL    HW2 2756   0.215   0.802   2.644 -2.3009  0.3009 -2.0428
61716SOL     OW 2757   2.669   7.544  10.961 -0.5018 -0.2300 -0.1177
61716SOL    HW1 2758   2.676   7.533  11.056 -2.1072 -0.8325 -0.0292
61716SOL    HW2 2759   2.740   7.491  10.925 -0.2886 -0.5418  0.7315
61717SOL     OW 2760   3.921   8.536  13.973  0.8893  0.6870  0.0640
61717SOL    HW1 2761   4.005   8.550  14.017  1.0809  1.3785 -0.4928
61717SOL    HW2 2762   3.873   8.477  14.030  1.9395 -0.1028  0.1636
61718SOL     OW 2763   1.021  14.000   1.352 -0.5707 -0.3092  0.0374
61718SOL    HW1 2764   1.047  13.909   1.347 -0.2666 -0.4341  2.6515
61718SOL    HW2 2765   1.072  14.044   1.284  0.0565 -1.9075 -0.5577
61719SOL     OW 2766   4.094   8.831   6.929 -0.0358 -0.5601 -0.9657
61719SOL    HW1 2767   4.074   8.787   6.847 -2.6338  1.2523 -1.4198
61719SOL    HW2 2768   4.093   8.924   6.908  2.7567 -0.0680  0.4808
61720SOL     OW 2769   6.531   3.540  11.184  0.2719  0.1825  0.0984
61720SOL    HW1 2770   6.519   3.449  11.211 -0.5968  0.1866 -0.2246
61720SOL    HW2 2771   6.614   3.540  11.136  1.0575 -0.1147  1.4219
61721SOL     OW 2772  10.318   2.105   5.297 -0.0681 -0.3230 -0.2463
61721SOL    HW1 2773  10.303   2.019   5.256 -1.3324 -1.3298  2.0873
61721SOL    HW2 2774  10.387   2.089   5.362 -2.1066 -0.3613  2.0767
61722SOL     OW 2775   2.623   2.456  10.556  0.5165 -0.2320  0.0959
61722SOL    HW1 2776   2.537   2.488  10.530  0.2452 -0.2150  0.9918
61722SOL    HW2 2777   2.605   2.375  10.603  1.0932 -0.9299 -0.8411
61723SOL     OW 2778   8.291  11.244   8.191  0.0014  0.8563 -0.0956
61723SOL    HW1 2779   8.199  11.247   8.219  0.6315 -0.0598  2.3472
61723SOL    HW2 2780   8.324  11.161   8.226  1.9287  1.4717 -0.3293
61724SOL     OW 2781   5.527   4.120  13.865  0.0522  0.1250 -0.0375
61724SOL    HW1 2782   5.488   4.176  13.933  0.4536  0.5611 -0.1598
61724SOL    HW2 2783   5.612   4.095  13.901  1.0928  1.9015 -1.1439
61725SOL     OW 2784   2.009  10.954   7.758  0.4870  0.4739  0.0648
61725SOL    HW1 2785   2.091  10.905   7.763  0.9735  1.1571 -0.9633
61725SOL    HW2 2786   1.958  10.922   7.832  1.2068 -0.8211  0.0325
61726SOL     OW 2787  12.599  11.616  10.821  0.9458  0.9750  0.6773
61726SOL    HW1 2788  12.536  11.589  10.888 -1.5762 -0.5730 -2.1028
61726SOL    HW2 2789  12.638  11.535  10.790 -0.5118  1.2011 -2.0222
61727SOL     OW 2790   1.759   2.437   6.512 -0.9827 -0.4178 -0.1617
61727SOL    HW1 2791   1.703   2.359   6.515  1.4773 -2.4132 -1.3423
61727SOL    HW2 2792   1.810   2.433   6.593 -1.7284  0.7689  0.3961
61728SOL     OW 2793   6.430   9.714   6.580  0.2090  0.1803  0.4107
61728SOL    HW1 2794   6.506   9.769   6.562  0.2109 -0.3789 -1.3941
61728SOL    HW2 2795   6.462   9.648   6.641  1.0245  0.2699  0.0890
61729SOL     OW 2796   7.840  13.896  13.741 -0.2110 -0.5833 -0.2445
61729SOL    HW1 2797   7.899  13.885  13.816  0.7198  0.6276 -0.7723
61729SOL    HW2 2798   7.891  13.863  13.666 -0.9085 -1.2237 -0.4512
61730SOL     OW 2799  11.421   2.605   6.878  0.7671 -0.3510 -0.2309
61730SOL    HW1 2800  11.355   2.540   6.902  2.3432 -1.1065  2.5272
61730SOL    HW2 2801  11.492   2.554   6.839  1.3217 -0.0691  0.4025
61731SOL     OW 2802   7.265   7.900   2.121  0.0426 -0.9196  0.3107
61731SOL    HW1 2803   7.171   7.884   2.109 -0.0040 -0.0435 -0.6772
61731SOL    HW2 2804   7.298   7.819   2.160 -0.8335 -1.9316 -0.9177
61732SOL     OW 2805  13.771   7.748  10.910 -0.3672  0.2181 -0.0047
61732SOL    HW1 2806  13.682   7.719  10.892  0.1192 -1.1804 -0.2675
61732SOL    HW2 2807  13.827   7.689  10.859  0.7207  1.0362  0.1872
61733SOL     OW 2808  12.648  10.241  10.768  0.8063  0.1292 -0.0186
61733SOL    HW1 2809  12.724  10.205  10.722  0.9906  1.2618 -0.6221
61733SOL    HW2 2810  12.686  10.299  10.834  0.4657  1.2276 -0.7670
61734SOL     OW 2811   8.760   5.092   2.790 -0.3850  0.5353  0.1476
61734SOL    HW1 2812   8.705   5.037   2.845 -0.9850  0.5448 -0.4329
61734SOL    HW2 2813   8.833   5.117   2.846 -0.9258  0.4505  0.8945
61735SOL     OW 2814   1.461   0.503  13.853 -0.6777 -0.2680 -0.3530
61735SOL    HW1 2815   1.379   0.461  13.827  0.5160 -1.8849 -1.7544
61735SOL    HW2 2816   1.521   0.430  13.868  0.2995  0.8435  1.5617
61736SOL     OW 2817   3.048   8.017   1.506 -0.7379 -0.4711  0.1153
61736SOL    HW1 2818   2.955   8.010   1.483 -1.0411 -0.5224  1.2978
61736SOL    HW2 2819   3.049   8.060   1.591  0.3003 -0.8800  0.3289
61737SOL     OW 2820   7.153  11.473   7.623  0.0616  0.1665  0.0051
61737SOL    HW1 2821   7.113  11.436   7.701 -0.5434 -0.3353 -0.5367
61737SOL    HW2 2822   7.102  11.552   7.604 -1.0740 -0.7671 -1.0043
61738SOL     OW 2823   7.466   2.698   7.769  0.3389 -0.2705 -0.2778
61738SOL    HW1 2824   7.445   2.787   7.740  0.3356 -0.6094 -1.3546
61738SOL    HW2 2825   7.500   2.654   7.691  0.3458 -1.2129  0.2367
61739SOL     OW 2826   4.185   2.924   6.365  0.1771  0.0599  0.1321
61739SOL    HW1 2827   4.260   2.871   6.389 -0.2641 -1.1840 -1.1267
61739SOL    HW2 2828   4.201   2.948   6.274  0.3099  2.0566  0.6121
61740SOL     OW 2829   2.228   9.466   0.106  0.3746  0.0843 -0.0687
61740SOL    HW1 2830   2.185   9.381   0.112 -1.4231  1.0382  1.4149
61740SOL    HW2 2831   2.214   9.494   0.015  0.1401 -0.7574 -0.3002
61741SOL     OW 2832   1.691   8.071   4.711  0.1674 -0.8152 -0.4972
61741SOL    HW1 2833   1.745   8.041   4.639  2.3608  0.6595  0.4336
61741SOL    HW2 2834   1.691   8.167   4.703 -1.2403 -0.7142  0.3108
61742SOL     OW 2835   4.937   0.244   1.390 -0.3529 -0.1817  0.0833
61742SOL    HW1 2836   4.983   0.195   1.321  0.3265  1.9718 -1.0930
61742SOL    HW2 2837   4.845   0.241   1.364 -0.4564 -1.5678  0.5391
61743SOL     OW 2838  12.048   2.084  10.995  0.2787  0.8676  0.3469
61743SOL    HW1 2839  12.090   2.000  10.975  1.1860  1.9463 -2.8232
61743SOL    HW2 2840  12.020   2.075  11.086 -0.4435 -3.1767 -0.0546
61744SOL     OW 2841  10.950  13.068   1.230 -0.3965  0.6109 -0.3311
61744SOL    HW1 2842  10.914  13.070   1.142  0.3424  0.8816 -0.6329
61744SOL    HW2 2843  11.021  13.132   1.229  0.4280 -0.2581  0.0917
61745SOL     OW 2844   2.495  11.688   7.439  0.2861  0.4420 -0.5094
61745SOL    HW1 2845   2.415  11.741   7.440 -0.6631 -0.9137  0.9599
61745SOL    HW2 2846   2.560  11.743   7.398 -0.8270  2.4745  0.3174
61746SOL     OW 2847   9.239  11.651   7.570 -0.0715  0.1082 -0.1456
61746SOL    HW1 2848   9.269  11.644   7.480 -0.8052 -0.4873 -0.3558
61746SOL    HW2 2849   9.143  11.650   7.563 -0.1513 -1.5034  0.7346
61747SOL     OW 2850  10.256  12.611  12.190 -0.1144 -0.4285  0.0203
61747SOL    HW1 2851  10.350  12.596  12.194  0.2575  1.4242 -0.7151
61747SOL    HW2 2852  10.242  12.657  12.107 -1.6775 -0.6723  0.1127
61748SOL     OW 2853  13.409   5.283   8.984 -0.1622 -0.1683 -0.1658
61748SOL    HW1 2854  13.371   5.199   9.009 -0.6067 -0.5996 -2.1530
61748SOL    HW2 2855  13.453   5.314   9.063 -0.1281 -2.1927  0.6487
61749SOL     OW 2856  11.749  11.975   9.360  0.2516  0.1478  0.2030
61749SOL    HW1 2857  11.692  11.903   9.386 -0.7645  1.4840  1.9158
61749SOL    HW2 2858  11.693  12.052   9.364  1.5904  1.1945 -0.4540
61750SOL     OW 2859   0.616  13.906  13.651  0.1422  0.4253 -0.1858
61750SOL    HW1 2860   0.564  13.833  13.616  1.5786  0.0608 -1.7080
61750SOL    HW2 2861   0.706  13.874  13.648  0.5541  1.3260  1.6255
61751SOL     OW 2862  13.940   5.607   8.855  0.1319 -0.0330  0.0888
61751SOL    HW1 2863  13.847   5.584   8.863  0.5780 -2.1424 -0.0842
61751SOL    HW2 2864  13.974   5.545   8.791  1.8851 -0.0428  0.9758
61752SOL     OW 2865  14.007  13.641   8.956  0.2121  0.6652  0.3059
61752SOL    HW1 2866  13.913  13.658   8.947  0.3199  1.0153 -0.2750
61752SOL    HW2 2867  14.047  13.727   8.943  0.6056  0.5356  0.6637
61753SOL     OW 2868  10.785  14.033  10.818  0.4715  0.6991  0.3415
61753SOL    HW1 2869  10.878  14.048  10.805 -0.0615  2.6430 -1.9727
61753SOL    HW2 2870  10.747  14.120  10.824 -1.3988 -0.0104 -0.5020
61754SOL     OW 2871  13.661   9.603  11.483  0.2555 -0.5855 -0.6999
61754SOL    HW1 2872  13.624   9.539  11.423 -1.3706 -0.4546  0.1211
61754SOL    HW2 2873  13.588   9.661  11.504  1.1426  0.1953  0.3115
61755SOL     OW 2874   1.747  10.459   6.387  0.3462  0.5085  0.1699
61755SOL    HW1 2875   1.841  10.450   6.398  0.4396 -0.1814 -0.9673
61755SOL    HW2 2876   1.711  10.455   6.475  1.2743 -0.6401  0.5103
61756SOL     OW 2877  11.723  11.978   5.676  0.0316 -0.0742  0.3056
61756SOL    HW1 2878  11.679  12.062   5.668  0.5587  0.2435  0.6459
61756SOL    HW2 2879  11.814  12.001   5.696  0.3738 -0.7079 -0.4661
61757SOL     OW 2880   4.753   3.973   7.381 -0.1684  0.3480 -0.1758
61757SOL    HW1 2881   4.741   3.881   7.402 -1.1858  0.5123  0.0145
61757SOL    HW2 2882   4.838   3.995   7.419  0.6835 -0.8113 -1.3269
61758SOL     OW 2883   8.803  13.544   4.359  0.3056  0.0325 -0.0601
61758SOL    HW1 2884   8.896  13.558   4.343  0.3608  0.8874  0.9592
61758SOL    HW2 2885   8.796  13.450   4.378  0.7317 -0.3237 -1.5083
61759SOL     OW 2886  12.882   1.643   5.326  0.0752 -0.6751  0.3954
61759SOL    HW1 2887  12.880   1.675   5.416 -0.6278 -1.4922  0.6899
61759SOL    HW2 2888  12.937   1.705   5.279  0.5273 -0.2886  1.4101
61760SOL     OW 2889  11.482  13.917   3.509  0.0515  0.3984  0.0759
61760SOL    HW1 2890  11.467  13.939   3.416 -3.7005 -2.3248 -0.1970
61760SOL    HW2 2891  11.453  13.996   3.556  1.4007  1.5832 -0.9667
61761SOL     OW 2892   2.955  10.093  12.200 -0.7117 -0.0637  0.2585
61761SOL    HW1 2893   2.988  10.179  12.174  0.3105 -0.9626 -1.6083
61761SOL    HW2 2894   2.865  10.110  12.229 -0.2742  1.7239  0.6724
61762SOL     OW 2895   6.201   2.849   2.584  0.5943 -0.4336 -0.3264
61762SOL    HW1 2896   6.237   2.937   2.570 -1.5545  0.7179  0.8032
61762SOL    HW2 2897   6.193   2.812   2.496  0.5561  0.9472 -0.9301
61763SOL     OW 2898   7.533   5.596   4.182  0.1200 -0.6661 -0.4595
61763SOL    HW1 2899   7.577   5.581   4.265 -0.7084 -1.2144 -0.1077
61763SOL    HW2 2900   7.603   5.622   4.122  0.6214  0.5746  0.5982
61764SOL     OW 2901   0.314  12.402   4.577  0.2204 -0.1404 -0.0623
61764SOL    HW1 2902   0.275  12.314   4.580  0.0729 -0.0717  2.2108
61764SOL    HW2 2903   0.239  12.460   4.567  0.2431 -0.2227 -0.7599
61765SOL     OW 2904  10.724   3.866  13.118 -0.1822  0.3238 -0.6711
61765SOL    HW1 2905  10.682   3.783  13.094 -1.1412  0.6814 -0.3029
61765SOL    HW2 2906  10.663   3.905  13.181  2.0357 -0.4155  2.1120
61766SOL     OW 2907   1.531  13.401  10.688  0.7270  0.1147  0.0124
61766SOL    HW1 2908   1.512  13.493  10.707  2.3173  0.2051  1.4183
61766SOL    HW2 2909   1.548  13.363  10.774 -3.0527 -2.3280 -0.0933
61767SOL     OW 2910   3.510   9.196   7.838 -0.1539  0.2914  0.1555
61767SOL    HW1 2911   3.444   9.263   7.821  0.3801  0.6391 -0.5905
61767SOL    HW2 2912   3.479   9.118   7.792 -0.5942  0.1225  0.7259
61768SOL     OW 2913   0.394   9.148   1.016  0.4429  0.1894  0.0659
61768SOL    HW1 2914   0.489   9.156   1.004  0.7205  2.3058  2.6333
61768SOL    HW2 2915   0.383   9.125   1.109 -1.5362  1.6308  0.2631
61769SOL     OW 2916   1.139   7.676  11.441  0.5790 -0.2020 -0.6665
61769SOL    HW1 2917   1.206   7.711  11.381  1.5377  0.2337  0.6022
61769SOL    HW2 2918   1.155   7.723  11.523 -0.2254 -1.3047  0.1413
61770SOL     OW 2919  10.856  11.472   6.607 -0.4749  0.3970  0.2671
61770SOL    HW1 2920  10.857  11.377   6.607 -0.3661  0.3839  1.5959
61770SOL    HW2 2921  10.764  11.495   6.593 -0.5375  0.0923  0.1724
61771SOL     OW 2922  12.405   2.417   0.306 -0.3744  0.0298  0.4615
61771SOL    HW1 2923  12.395   2.512   0.304  1.0696  0.2111  0.8582
61771SOL    HW2 2924  12.496   2.402   0.282 -0.8108 -1.3192 -0.4969
61772SOL     OW 2925   8.779   0.405   5.276  0.6323 -0.2409 -0.1109
61772SOL    HW1 2926   8.858   0.362   5.243 -0.3410 -0.7255 -1.9859
61772SOL    HW2 2927   8.752   0.351   5.350  0.1400 -2.2325 -1.6263
61773SOL     OW 2928   0.272  11.858   6.069  0.1781  0.0733  0.4902
61773SOL    HW1 2929   0.272  11.882   5.977 -3.1838  1.6941  0.7684
61773SOL    HW2 2930   0.334  11.918   6.110 -0.1104  1.0174 -0.4165
61774SOL     OW 2931   4.073   2.576   2.078  0.3461  0.3970 -0.7943
61774SOL    HW1 2932   4.013   2.512   2.041 -0.3777  1.2264 -1.0808
61774SOL    HW2 2933   4.137   2.524   2.126 -0.5209 -0.5081 -0.5929
61775SOL     OW 2934   8.428   1.090   8.837  0.0399 -0.5561  0.3327
61775SOL    HW1 2935   8.357   1.033   8.867  0.2185 -0.1537  1.5741
61775SOL    HW2 2936   8.426   1.082   8.741 -1.2299 -1.0738  0.3794
61776SOL     OW 2937   8.667   3.764   6.191 -0.2820  1.0413  0.2275
61776SOL    HW1 2938   8.655   3.690   6.131  0.2461  1.8748 -0.9564
61776SOL    HW2 2939   8.614   3.742   6.267  0.8924 -1.1725  0.4916
61777SOL     OW 2940  11.758   1.990   6.348 -0.0308 -0.8268 -0.4321
61777SOL    HW1 2941  11.723   1.976   6.260 -0.2694 -0.3626 -0.4110
61777SOL    HW2 2942  11.852   1.998   6.335 -0.0400 -0.9903 -0.6155
61778SOL     OW 2943  11.217   9.353  13.869 -0.4008 -0.5834  0.3672
61778SOL    HW1 2944  11.263   9.292  13.928 -0.5626 -0.3835  0.7052
61778SOL    HW2 2945  11.287   9.405  13.830 -0.3220 -0.3773  0.7723
61779SOL     OW 2946   2.962   5.819   5.191 -0.0194  0.2519 -0.0008
61779SOL    HW1 2947   2.957   5.770   5.109 -1.1865 -0.2717  0.3515
61779SOL    HW2 2948   2.925   5.905   5.171  1.0547  0.6328 -0.3687
61780SOL     OW 2949  13.406   2.415   4.844  0.0026 -0.2846  0.1345
61780SOL    HW1 2950  13.366   2.329   4.857  0.6386 -0.5736  0.1933
61780SOL    HW2 2951  13.479   2.417   4.906  1.0293 -0.3643 -1.0367
61781SOL     OW 2952   5.194   8.545   0.152 -0.7474 -0.4118  0.1573
61781SOL    HW1 2953   5.189   8.493   0.232 -3.1124  0.0699  0.4080
61781SOL    HW2 2954   5.162   8.631   0.177  3.1450  1.3454 -0.2280
61782SOL     OW 2955  12.636   8.985   8.831  0.0369  0.0233 -0.5984
61782SOL    HW1 2956  12.725   9.020   8.825  0.0767 -0.1383 -0.9906
61782SOL    HW2 2957  12.598   9.029   8.906  0.8617 -0.8134  0.3350
61783SOL     OW 2958  10.093   2.446   7.320 -0.1437 -0.3945  0.1338
61783SOL    HW1 2959  10.128   2.407   7.400  1.7012 -1.0243 -0.9355
61783SOL    HW2 2960  10.158   2.511   7.294 -0.1811 -0.9410 -1.4199
61784SOL     OW 2961   1.265  13.696   9.389 -0.0920  0.2789 -0.5493
61784SOL    HW1 2962   1.219  13.757   9.333 -0.5975 -0.3692 -0.8505
61784SOL    HW2 2963   1.232  13.610   9.364  0.8882 -0.1585 -0.4043
61785SOL     OW 2964   5.572  10.681   3.167 -0.0700  0.2141  0.1046
61785SOL    HW1 2965   5.509  10.743   3.205 -0.6509  1.2289 -2.3080
61785SOL    HW2 2966   5.519  10.630   3.105  1.0790 -0.4146 -0.3744
61786SOL     OW 2967   5.548   8.349  12.527  0.6001 -0.4813  0.3499
61786SOL    HW1 2968   5.608   8.278  12.550 -1.0759 -1.7355  1.1361
61786SOL    HW2 2969   5.508   8.321  12.445  1.2412  0.4716 -0.3099
61787SOL     OW 2970  10.839  12.935   9.956 -0.0138 -0.0428 -0.1225
61787SOL    HW1 2971  10.756  12.933   9.909 -0.9922  2.1852  1.3679
61787SOL    HW2 2972  10.898  12.985   9.900 -0.2192 -0.0287 -0.3276
61788SOL     OW 2973  12.750   2.172   9.146 -0.4274  0.4215 -0.0941
61788SOL    HW1 2974  12.688   2.177   9.218 -0.7995  0.0523 -0.3847
61788SOL    HW2 2975  12.824   2.122   9.181  0.4088  2.1273  0.7352
61789SOL     OW 2976   5.955  11.810  11.908 -0.1395  0.1862  0.1692
61789SOL    HW1 2977   6.014  11.739  11.932  0.0488  0.4628  0.5499
61789SOL    HW2 2978   5.927  11.847  11.992 -1.5430 -0.4865  0.0117
61790SOL     OW 2979   8.834   6.812  10.722 -0.5414 -0.1007 -0.0570
61790SOL    HW1 2980   8.924   6.792  10.746 -1.2337 -2.5516  0.7855
61790SOL    HW2 2981   8.832   6.907  10.711  2.2471 -0.0466 -0.6593
61791SOL     OW 2982  13.340   1.311   6.210  0.0787  0.0356  0.0571
61791SOL    HW1 2983  13.266   1.361   6.245  0.1363 -0.3240  0.7090
61791SOL    HW2 2984  13.309   1.221   6.207  0.2419 -0.0104 -0.3817
61792SOL     OW 2985   9.329   6.904   4.478  0.0751  0.0017 -0.1280
61792SOL    HW1 2986   9.423   6.923   4.481  0.1541 -0.6004  1.7470
61792SOL    HW2 2987   9.288   6.991   4.473  0.6684  0.3948  1.4171
61793SOL     OW 2988   3.501   3.754   5.365  0.2006  0.1033 -0.3012
61793SOL    HW1 2989   3.513   3.661   5.345  0.1156  0.2188 -0.9209
61793SOL    HW2 2990   3.407   3.770   5.351  0.6340  0.8622 -2.8645
61794SOL     OW 2991   0.423   7.630   2.476  0.5787  0.1939 -0.4617
61794SOL    HW1 2992   0.342   7.583   2.495  0.5382  0.7000  0.6409
61794SOL    HW2 2993   0.418   7.709   2.528  2.5610 -0.5717  0.9996
61795SOL     OW 2994   2.155  13.958  12.956  0.1773 -0.1114 -0.0327
61795SOL    HW1 2995   2.108  14.018  12.897  1.5778  1.3634  0.2843
61795SOL    HW2 2996   2.188  14.015  13.025  2.0171 -1.1603 -0.0044
61796SOL     OW 2997  13.640   9.024  12.122  0.6410  0.8363  0.1062
61796SOL    HW1 2998  13.651   9.014  12.217 -1.0547  0.9454  0.3453
61796SOL    HW2 2999  13.645   8.935  12.088  1.8478  0.8527  0.2068
61797SOL     OW 3000  13.802   5.618  13.875  0.2550  0.8473  0.1096
61797SOL    HW1 3001  13.869   5.642  13.939  0.3224 -1.5068  1.0089
61797SOL    HW2 3002  13.719   5.637  13.919  0.2488  2.9003 -0.6620
61798SOL     OW 3003   8.676   0.753   7.761 -0.0227 -0.2209 -0.0018
61798SOL    HW1 3004   8.652   0.845   7.748  1.1674  0.2299  0.8543
61798SOL    HW2 3005   8.746   0.755   7.826 -0.1649 -1.7631  0.2369
61799SOL     OW 3006  11.744  13.831  10.942 -0.0731  0.2891  0.2003
61799SOL    HW1 3007  11.757  13.897  11.010 -1.1168 -0.5298  1.2258
61799SOL    HW2 3008  11.661  13.856  10.901 -1.8383 -1.7634  2.3011
61800SOL     OW 3009   0.730  11.394   2.166 -0.2320  0.5284  0.0071
61800SOL    HW1 3010   0.764  11.480   2.189  0.6118  0.3738 -0.6049
61800SOL    HW2 3011   0.808  11.338   2.160 -0.8029 -0.3947  0.8350
61801SOL     OW 3012   3.866  13.223   4.330  0.0155 -0.6770 -0.3785
61801SOL    HW1 3013   3.845  13.181   4.414 -2.0483 -0.4188 -0.7282
61801SOL    HW2 3014   3.861  13.152   4.266  4.5024 -1.5700 -0.0776
61802SOL     OW 3015   9.875   2.283   1.448  0.0110  0.4249  0.0204
61802SOL    HW1 3016   9.910   2.372   1.460  0.6615  0.3665 -1.3290
61802SOL    HW2 3017   9.929   2.228   1.504 -0.7176  0.9203  1.2655
61803SOL     OW 3018   7.760   6.886   2.576 -0.3672 -0.1530  0.1359
61803SOL    HW1 3019   7.808   6.821   2.627  0.5375 -1.6794 -2.4706
61803SOL    HW2 3020   7.771   6.968   2.625  0.3868 -1.4797  2.3384
61804SOL     OW 3021   4.021   3.616   6.223  0.1277  0.5461  0.2727
61804SOL    HW1 3022   4.031   3.522   6.209  0.8611  0.8678 -1.7877
61804SOL    HW2 3023   4.027   3.627   6.318 -2.2574 -1.6912  0.7873
61805SOL     OW 3024   4.226   0.776   5.034 -0.7177  0.1032 -0.3979
61805SOL    HW1 3025   4.300   0.758   5.091 -1.3947 -0.2444  0.3941
61805SOL    HW2 3026   4.262   0.775   4.945 -0.3261 -3.4649 -0.3261
61806SOL     OW 3027   4.353   6.021   1.557 -0.3244 -0.2877 -0.2123
61806SOL    HW1 3028   4.282   5.990   1.501 -0.2467  1.1443 -1.1567
61806SOL    HW2 3029   4.315   6.023   1.645 -0.8788 -1.2633 -0.4175
61807SOL     OW 3030  12.458  12.321   1.198 -0.1217  0.1667 -0.1924
61807SOL    HW1 3031  12.524  12.304   1.265 -1.3250 -0.8493  0.8016
61807SOL    HW2 3032  12.458  12.417   1.189  0.2821  0.3142  1.0754
61808SOL     OW 3033   0.801  10.328   1.084 -0.0218 -0.7584  0.0627
61808SOL    HW1 3034   0.812  10.332   0.989 -1.0306 -0.4564 -0.0469
61808SOL    HW2 3035   0.809  10.235   1.104 -1.4908 -1.0493 -0.5526
61809SOL     OW 3036  12.404   4.887   2.907 -0.7613 -0.7355  0.6233
61809SOL    HW1 3037  12.363   4.956   2.959 -2.0194  0.1950 -1.4479
61809SOL    HW2 3038  12.339   4.817   2.904 -2.1677  0.5156 -2.2048
61810SOL     OW 3039   8.029   2.107  12.914  0.4107 -0.2168  0.0656
61810SOL    HW1 3040   8.074   2.104  12.830 -0.9869  1.0126 -0.7684
61810SOL    HW2 3041   7.971   2.183  12.909 -0.0629 -0.3807  1.9637
61811SOL     OW 3042  13.459  12.049   1.105 -0.0448 -0.0383 -0.1463
61811SOL    HW1 3043  13.536  11.993   1.116 -0.0885  0.0714  0.8093
61811SOL    HW2 3044  13.390  12.006   1.156 -0.0219  0.9714  0.7765
61812SOL     OW 3045  13.591   3.961   5.273 -0.2253 -0.0610  0.2325
61812SOL    HW1 3046  13.553   4.047   5.291 -0.6964 -0.1499 -0.3014
61812SOL    HW2 3047  13.515   3.904   5.261  0.0861 -0.5102  0.3968
61813SOL     OW 3048   6.777  13.115  12.007 -0.4743  0.5506  0.2242
61813SOL    HW1 3049   6.765  13.186  11.945  1.7604  1.7194  1.0395
61813SOL    HW2 3050   6.692  13.108  12.052 -1.4344  1.1119 -1.4169
61814SOL     OW 3051   5.259   2.910   8.470 -0.6891  0.3334 -0.1988
61814SOL    HW1 3052   5.286   2.928   8.380 -1.8168  1.4262 -0.3516
61814SOL    HW2 3053   5.336   2.930   8.523  0.1784 -0.8990 -0.9527
61815SOL     OW 3054   6.786   3.782   0.881 -0.8785  0.2257  0.5936
61815SOL    HW1 3055   6.771   3.715   0.947  1.8578  1.5897  2.8337
61815SOL    HW2 3056   6.881   3.780   0.865 -1.0788  1.8090 -1.2316
61816SOL     OW 3057  10.694  10.001  10.993 -0.1156 -0.4081  0.0704
61816SOL    HW1 3058  10.725  10.078  10.943 -0.0674  0.0700  0.8233
61816SOL    HW2 3059  10.678   9.934  10.926 -2.2959  0.9352 -0.8618
61817SOL     OW 3060  10.277  12.661  13.190  0.0000  0.3323  0.2365
61817SOL    HW1 3061  10.264  12.593  13.124 -1.9691  0.8015  0.0639
61817SOL    HW2 3062  10.325  12.730  13.144 -0.3492  0.1703 -0.3907
61818SOL     OW 3063   2.891  10.370   1.559  0.0836 -0.0115 -0.2331
61818SOL    HW1 3064   2.908  10.459   1.529 -3.2317  0.5308 -0.9382
61818SOL    HW2 3065   2.895  10.317   1.480 -0.6436  0.0275 -0.3078
61819SOL     OW 3066   1.288  11.526  10.445  0.3676  0.0633 -0.1766
61819SOL    HW1 3067   1.364  11.513  10.388 -0.5650 -1.5404 -1.1164
61819SOL    HW2 3068   1.213  11.500  10.392 -0.9180  1.9221  0.6202
61820SOL     OW 3069   1.570   0.618  10.206  0.0167  0.6419 -0.3826
61820SOL    HW1 3070   1.548   0.526  10.221 -1.1250  0.9138 -0.2991
61820SOL    HW2 3071   1.607   0.620  10.118 -1.9212  0.3778 -1.2642
61821SOL     OW 3072   9.680   5.321  10.735 -0.3284 -0.5352  0.3709
61821SOL    HW1 3073   9.718   5.242  10.773 -1.7930 -0.4605  2.1164
61821SOL    HW2 3074   9.680   5.305  10.640  0.5827 -2.0492  0.5979
61822SOL     OW 3075   3.677  10.450   8.578  0.4779  0.3047 -0.0572
61822SOL    HW1 3076   3.630  10.371   8.606 -0.2560  0.8090  0.1614
61822SOL    HW2 3077   3.734  10.471   8.652 -1.5081  1.6732  1.1825
61823SOL     OW 3078  10.958   7.579  12.477 -0.0579 -0.1766 -0.2279
61823SOL    HW1 3079  10.961   7.520  12.552 -2.6182 -0.0326  0.0557
61823SOL    HW2 3080  10.903   7.534  12.413 -1.5576  1.5761 -0.2466
61824SOL     OW 3081  10.943   8.026  13.079 -0.2570  0.1799  0.3304
61824SOL    HW1 3082  10.939   7.970  13.157 -0.1239 -0.4899 -0.1372
61824SOL    HW2 3083  10.879   7.988  13.019 -0.8898  1.1336  0.3902
61825SOL     OW 3084   9.917   0.775   2.376  0.3107  0.2940 -0.4032
61825SOL    HW1 3085   9.926   0.833   2.452  1.7317  0.7437 -0.8814
61825SOL    HW2 3086   9.995   0.720   2.378 -0.5461 -0.9779 -0.5085
61826SOL     OW 3087   1.078  13.357   7.585 -0.3408  0.1169 -0.2243
61826SOL    HW1 3088   1.125  13.275   7.567 -0.4892  0.0366 -0.2393
61826SOL    HW2 3089   0.993  13.346   7.542  0.2286  0.9126 -1.6353
61827SOL     OW 3090   4.306   8.528   0.192 -0.1453  0.0827 -0.2589
61827SOL    HW1 3091   4.307   8.438   0.161  0.8444  0.5646 -1.7201
61827SOL    HW2 3092   4.370   8.530   0.263  1.4287  0.0582 -1.6165
61828SOL     OW 3093   3.236   6.812   5.787 -0.1641  0.3685 -0.3403
61828SOL    HW1 3094   3.289   6.884   5.821  0.9582 -1.5083  2.2476
61828SOL    HW2 3095   3.300   6.744   5.763 -1.1797  0.1435 -2.6737
61829SOL     OW 3096  13.804   4.871   0.284 -0.1235  0.1342  0.0214
61829SOL    HW1 3097  13.727   4.884   0.228  1.2401 -1.3127 -2.3394
61829SOL    HW2 3098  13.768   4.862   0.372 -2.7743 -1.3885 -1.0991
61830SOL     OW 3099   1.040   9.413   0.393  0.0182  0.3545  0.5946
61830SOL    HW1 3100   1.124   9.367   0.398 -0.2255 -0.1552  0.1049
61830SOL    HW2 3101   0.989   9.378   0.466  0.1674  0.5361  0.7867
61831SOL     OW 3102  11.243   5.429  10.963 -0.2209 -0.5960  0.0207
61831SOL    HW1 3103  11.181   5.413  11.034  0.0502  1.8468  0.9110
61831SOL    HW2 3104  11.321   5.464  11.007 -0.2026  1.4185 -1.4642
61832SOL     OW 3105  10.896   6.156   6.909  0.1728 -0.0229  0.0254
61832SOL    HW1 3106  10.944   6.172   6.990  1.0688 -1.5444 -0.1612
61832SOL    HW2 3107  10.910   6.063   6.891 -2.7511 -0.5438 -0.1075
61833SOL     OW 3108   9.605   7.255   3.038  0.2973  0.4129 -0.4277
61833SOL    HW1 3109   9.565   7.342   3.046  1.2470  1.2362 -3.3810
61833SOL    HW2 3110   9.554   7.212   2.969  1.2811 -0.5012 -0.6074
61834SOL     OW 3111   5.325   1.070   5.441 -0.2391  0.8705 -0.1790
61834SOL    HW1 3112   5.276   1.152   5.435 -0.3130  1.0596  1.9808
61834SOL    HW2 3113   5.400   1.083   5.383 -0.2555  2.4849  0.1052
61835SOL     OW 3114   1.932   5.101  10.877 -0.2586 -0.3826 -0.7272
61835SOL    HW1 3115   1.922   5.184  10.924 -2.6633 -0.9477 -0.1287
61835SOL    HW2 3116   2.023   5.076  10.892 -0.1352  0.9527  1.1038
61836SOL     OW 3117   7.288   5.011   3.949  0.1003 -0.2954 -0.0684
61836SOL    HW1 3118   7.195   5.034   3.950 -0.1951 -1.4451 -0.1566
61836SOL    HW2 3119   7.318   5.032   3.861  0.0680  0.5932  0.1253
61837SOL     OW 3120   1.950  10.195   2.976  0.1001 -0.2106 -0.2237
61837SOL    HW1 3121   2.029  10.193   3.030 -0.0438 -2.0406 -0.0070
61837SOL    HW2 3122   1.967  10.263   2.910  1.8893 -0.6201 -0.2199
61838SOL     OW 3123   5.050  10.133   4.993  0.0985  0.0763 -0.0553
61838SOL    HW1 3124   4.957  10.140   4.973 -0.2364  2.2851  1.8886
61838SOL    HW2 3125   5.094  10.152   4.910 -1.1931  2.1313 -0.3379
61839SOL     OW 3126   6.161   6.023   3.446  0.3880 -0.1834  0.0776
61839SOL    HW1 3127   6.238   6.006   3.500 -0.0982 -1.4893  0.3965
61839SOL    HW2 3128   6.107   5.945   3.456 -1.0830  0.7985  0.0261
61840SOL     OW 3129   3.956  13.374   0.649  0.4090 -0.2448 -0.3087
61840SOL    HW1 3130   3.943  13.425   0.569  0.4609  0.1785 -0.0543
61840SOL    HW2 3131   3.915  13.290   0.632 -3.9092  1.3479  0.8238
61841SOL     OW 3132   5.334   4.097   8.566 -0.0979 -0.0048  0.2358
61841SOL    HW1 3133   5.240   4.085   8.584  0.1474 -1.2844  0.7227
61841SOL    HW2 3134   5.369   4.009   8.557  1.2357  0.4169  0.9677
61842SOL     OW 3135  12.492   1.087  12.851 -0.1181  0.1303 -0.8124
61842SOL    HW1 3136  12.507   1.000  12.814  0.6706 -0.9109  1.7125
61842SOL    HW2 3137  12.405   1.082  12.890 -0.7443  1.0469 -2.0341
61843SOL     OW 3138   5.879   7.208  13.217 -0.1420 -0.6737 -0.2341
61843SOL    HW1 3139   5.918   7.291  13.242 -0.6907 -0.3659 -0.3858
61843SOL    HW2 3140   5.918   7.144  13.277 -1.8828  0.1270  1.8687
61844SOL     OW 3141   2.187   3.952  11.853  0.8292  0.0280  0.6876
61844SOL    HW1 3142   2.110   3.941  11.798  1.0940  2.7840 -0.4010
61844SOL    HW2 3143   2.253   3.896  11.813  0.0150 -0.7165  0.3516
61845SOL     OW 3144   1.579   7.955  12.645 -0.1375  0.1191 -0.7548
61845SOL    HW1 3145   1.590   8.002  12.727 -0.9869 -0.3748 -0.3378
61845SOL    HW2 3146   1.489   7.974  12.618 -0.3186 -0.8092 -0.8558
61846SOL     OW 3147   0.157   1.476   2.230  0.5768 -0.0477 -0.4139
61846SOL    HW1 3148   0.089   1.460   2.295 -1.0437 -0.3765 -2.0992
61846SOL    HW2 3149   0.198   1.391   2.216  1.4001  0.1531  0.6099
61847SOL     OW 3150  13.969   1.902   7.280 -0.0440 -0.4062  0.0717
61847SOL    HW1 3151  14.028   1.833   7.312 -0.1109  0.1305  1.4495
61847SOL    HW2 3152  14.027   1.978   7.267 -0.5550  0.5967  2.9229
61848SOL     OW 3153   2.724   0.604   0.862  0.5934 -0.5162 -0.6878
61848SOL    HW1 3154   2.694   0.695   0.866 -3.1982 -1.5752 -0.5603
61848SOL    HW2 3155   2.798   0.600   0.922 -0.4872  2.0770  1.0017
61849SOL     OW 3156   6.565   5.681   0.145 -0.5450  0.0241 -0.1491
61849SOL    HW1 3157   6.515   5.730   0.080 -1.1130 -0.9726 -0.4917
61849SOL    HW2 3158   6.601   5.606   0.096  2.2723  1.2643 -0.1946
61850SOL     OW 3159  10.647   6.527   3.888  0.1220 -0.3357 -0.4164
61850SOL    HW1 3160  10.642   6.509   3.794 -0.2993 -3.4590  0.1095
61850SOL    HW2 3161  10.738   6.508   3.911  0.5647  1.6601 -0.3461
61851SOL     OW 3162   2.738   4.959  10.860  0.7486  0.3225 -0.1538
61851SOL    HW1 3163   2.688   4.903  10.921  2.2448 -2.2713 -1.1330
61851SOL    HW2 3164   2.734   4.912  10.777 -0.1369  3.1174 -1.8106
61852SOL     OW 3165   0.506  10.708   6.029 -0.3689 -0.2056 -0.2305
61852SOL    HW1 3166   0.532  10.730   5.940  1.3942  0.6858  0.4678
61852SOL    HW2 3167   0.541  10.620   6.044  0.7185  0.2631  0.0822
61853SOL     OW 3168  11.627  10.488   4.747 -0.3043 -0.4124 -0.2182
61853SOL    HW1 3169  11.719  10.512   4.735 -0.7341  1.5133  0.0850
61853SOL    HW2 3170  11.589  10.561   4.795 -1.6367 -1.9403  1.1802
61854SOL     OW 3171   7.910   4.706   1.206 -0.0988  0.3673  0.0531
61854SOL    HW1 3172   7.833   4.672   1.160 -0.2402  0.9298 -0.1236
61854SOL    HW2 3173   7.931   4.788   1.162 -0.6019  1.2290  1.3468
61855SOL     OW 3174   8.321   2.863   9.780  0.2474  0.7311  0.1254
61855SOL    HW1 3175   8.273   2.859   9.863  0.8102  1.2828  0.4963
61855SOL    HW2 3176   8.386   2.794   9.787 -0.1305  0.3476 -0.1390
61856SOL     OW 3177   3.409  14.071   2.642  0.6142 -0.0452  0.5066
61856SOL    HW1 3178   3.453  14.064   2.557 -1.3703 -2.3631 -0.4264
61856SOL    HW2 3179   3.362  14.155   2.637  0.2184 -0.3285 -0.8487
61857SOL     OW 3180   1.539  11.095  10.567 -0.7825 -0.1239  0.3050
61857SOL    HW1 3181   1.513  11.013  10.610 -0.6495 -0.5499 -0.4041
61857SOL    HW2 3182   1.473  11.158  10.595 -0.6560 -0.3650  1.1866
61858SOL     OW 3183  11.572   7.903  13.304  0.5542  0.1708 -0.2668
61858SOL    HW1 3184  11.601   7.964  13.236  1.5862  1.1503  1.0128
61858SOL    HW2 3185  11.561   7.956  13.382 -0.9720 -0.8799  0.2769
61859SOL     OW 3186   6.607  11.728   3.281 -0.0750  0.0268  0.2466
61859SOL    HW1 3187   6.551  11.801   3.307 -0.5915 -0.8296  1.6705
61859SOL    HW2 3188   6.675  11.724   3.348 -0.1536 -0.8993  0.2928
61860SOL     OW 3189  13.599  10.433   2.515  0.0184 -0.2897  0.2022
61860SOL    HW1 3190  13.691  10.441   2.539 -0.2021  1.2950  0.6598
61860SOL    HW2 3191  13.551  10.468   2.590 -0.9346 -0.4871 -0.2882
61861SOL     OW 3192   0.542   1.782  12.768 -0.0752 -0.0105  0.1088
61861SOL    HW1 3193   0.632   1.763  12.792  0.0054 -0.1229 -0.2762
61861SOL    HW2 3194   0.524   1.723  12.694 -0.8092 -0.7818  0.8797
61862SOL     OW 3195   7.923   0.217   9.390  0.7215 -0.1183  0.0743
61862SOL    HW1 3196   7.903   0.129   9.423 -3.0988  0.4984 -0.1239
61862SOL    HW2 3197   7.900   0.276   9.462  0.3123  0.8249 -0.7904
61863SOL     OW 3198  11.478  10.627   3.830 -0.8732  0.1045  0.1949
61863SOL    HW1 3199  11.505  10.536   3.838 -1.2663  0.0107  0.4543
61863SOL    HW2 3200  11.435  10.647   3.913  0.3284  0.9043  0.6531
61864SOL     OW 3201  12.738   1.490   2.857  0.1837 -0.9852  0.0563
61864SOL    HW1 3202  12.736   1.412   2.914  0.5604 -1.2607 -0.3036
61864SOL    HW2 3203  12.738   1.455   2.768 -4.8677 -0.5619 -0.3528
61865SOL     OW 3204  12.926  12.939   1.465 -0.2797 -0.1842  0.1442
61865SOL    HW1 3205  13.007  12.888   1.465 -0.1109 -0.1620 -3.2170
61865SOL    HW2 3206  12.933  12.996   1.541  1.2998 -2.4200  1.8195
61866SOL     OW 3207   9.897   0.055  13.181 -0.1815 -0.1544 -0.0367
61866SOL    HW1 3208   9.966   0.097  13.129  2.0012 -2.2701  0.9447
61866SOL    HW2 3209   9.919   0.077  13.272 -0.0593 -1.7822  0.3640
61867SOL     OW 3210   3.850   3.914   3.589 -0.1262 -0.3155  0.1207
61867SOL    HW1 3211   3.895   3.893   3.670 -2.6375  1.7836  2.2115
61867SOL    HW2 3212   3.773   3.857   3.589 -1.1725  1.0727  0.2319
61868SOL     OW 3213   2.878  10.283   2.748 -0.5708 -0.2419  0.5709
61868SOL    HW1 3214   2.947  10.331   2.796  0.0413 -0.3619 -0.1754
61868SOL    HW2 3215   2.804  10.344   2.747 -1.4056 -1.0165  3.5533
61869SOL     OW 3216   3.433   9.327  14.013 -0.0789  0.2929  0.3415
61869SOL    HW1 3217   3.458   9.370  13.932 -1.9814  2.9941  1.0664
61869SOL    HW2 3218   3.474   9.380  14.082  0.6931 -1.3814  1.2424
61870SOL     OW 3219   9.293  12.251   2.234 -0.0467  0.4987  0.1031
61870SOL    HW1 3220   9.342  12.172   2.258 -1.4948 -0.7058 -0.7100
61870SOL    HW2 3221   9.344  12.290   2.163  0.3048 -0.0947  0.0211
61871SOL     OW 3222   2.193   5.102  10.378 -0.7766  0.0872 -0.1462
61871SOL    HW1 3223   2.237   5.037  10.321  0.4388  0.6271  0.1355
61871SOL    HW2 3224   2.103   5.072  10.382 -0.5083 -0.9385 -0.9758
61872SOL     OW 3225   0.162   2.107   1.029 -0.5218 -0.0623  1.0588
61872SOL    HW1 3226   0.067   2.117   1.022 -0.8247 -1.6472  2.2573
61872SOL    HW2 3227   0.197   2.195   1.018 -1.9330  0.2460 -1.8899
61873SOL     OW 3228   8.049   8.875   4.992  0.2533 -0.1599 -0.3058
61873SOL    HW1 3229   7.960   8.890   4.959 -0.5058  0.5493  1.8923
61873SOL    HW2 3230   8.087   8.962   5.000  1.1355 -0.4534 -1.1129
61874SOL     OW 3231   4.356   8.402   1.228  0.1055 -0.0539  0.0355
61874SOL    HW1 3232   4.312   8.399   1.313  0.5884  2.1079  0.4276
61874SOL    HW2 3233   4.417   8.476   1.235  0.8839 -0.4551 -1.8562
61875SOL     OW 3234   9.842  12.008   8.113  0.3583 -0.4441 -0.0034
61875SOL    HW1 3235   9.751  12.024   8.140  1.0165  1.0908  1.4699
61875SOL    HW2 3236   9.847  11.913   8.102 -0.8954 -0.8207  2.0294
61876SOL     OW 3237  13.640   2.240   1.011 -0.0229 -0.0320 -0.0200
61876SOL    HW1 3238  13.596   2.156   1.001  1.2047 -0.7404  0.3882
61876SOL    HW2 3239  13.706   2.240   0.942 -1.3009  1.4886 -1.3419
61877SOL     OW 3240  11.814  13.261  11.903 -0.1824  0.1328  0.9025
61877SOL    HW1 3241  11.841  13.318  11.975  0.4543  0.3496  0.5081
61877SOL    HW2 3242  11.719  13.255  11.910 -0.2987  1.4624  0.8025
61878SOL     OW 3243  14.076  10.096  11.834  0.0942 -0.0927 -0.2928
61878SOL    HW1 3244  14.156  10.133  11.798  0.2266 -1.3312 -1.3265
61878SOL    HW2 3245  14.095  10.004  11.849 -1.2678 -0.5229 -1.0055
61879SOL     OW 3246  10.356  11.007   7.514 -0.1728  0.4047 -0.2567
61879SOL    HW1 3247  10.315  10.921   7.528 -0.8318  0.6260 -0.7448
61879SOL    HW2 3248  10.295  11.070   7.551  1.5292  0.5615  2.5526
61880SOL     OW 3249   8.287  13.600   7.927 -0.1479 -0.5082 -0.0550
61880SOL    HW1 3250   8.297  13.506   7.910  1.0679 -0.2708 -0.8000
61880SOL    HW2 3251   8.294  13.641   7.841  0.0350  0.3188  0.3439
61881SOL     OW 3252  12.656   7.170  12.571 -0.5170  0.2759  0.3211
61881SOL    HW1 3253  12.743   7.196  12.599 -1.2062  0.6977  2.1829
61881SOL    HW2 3254  12.668   7.083  12.532  0.8701  0.7927 -0.4807
61882SOL     OW 3255   1.461   2.524  13.999  0.8087 -0.9398 -0.0677
61882SOL    HW1 3256   1.493   2.517  14.089  2.2231 -2.5845 -0.6424
61882SOL    HW2 3257   1.494   2.609  13.968  0.9028 -0.6774  0.7335
61883SOL     OW 3258   2.873   7.153  13.242  0.0061 -0.3894 -0.0440
61883SOL    HW1 3259   2.815   7.215  13.198 -0.8600 -1.4392 -0.4534
61883SOL    HW2 3260   2.946   7.206  13.274 -1.0101  0.9262  0.1860
61884SOL     OW 3261  11.652   7.469  10.729 -0.1929  0.1685 -0.0857
61884SOL    HW1 3262  11.662   7.450  10.823 -0.4360 -1.8187 -0.4147
61884SOL    HW2 3263  11.558   7.462  10.713  0.0731 -3.3174 -1.0927
61885SOL     OW 3264   0.565   4.146  10.061  0.1925 -0.0180 -0.1236
61885SOL    HW1 3265   0.585   4.077   9.997  0.4307  0.0066 -0.0778
61885SOL    HW2 3266   0.476   4.173  10.040 -1.0755 -2.3794  1.7200
61886SOL     OW 3267   0.301   1.251   6.073 -0.3499  0.0368  0.2367
61886SOL    HW1 3268   0.344   1.171   6.103  0.1230  0.0368 -0.4059
61886SOL    HW2 3269   0.367   1.294   6.019 -0.4005  1.1500  1.0264
61887SOL     OW 3270   0.783   4.082  11.696 -0.5640 -0.3375  0.5982
61887SOL    HW1 3271   0.769   4.028  11.619  0.2058 -0.0828  0.2727
61887SOL    HW2 3272   0.725   4.158  11.684 -0.4761 -0.3201  0.2908
61888SOL     OW 3273  13.861   3.881  10.594  0.2917 -0.1128 -0.6212
61888SOL    HW1 3274  13.783   3.833  10.565  0.3224 -0.7885  0.3918
61888SOL    HW2 3275  13.905   3.821  10.654  0.3971  1.1405  0.5867
61889SOL     OW 3276   3.562  11.146  13.392  0.3387 -0.6884 -0.2533
61889SOL    HW1 3277   3.591  11.120  13.480 -0.7064  0.0337  0.3190
61889SOL    HW2 3278   3.470  11.169  13.402  0.9859  2.5976 -0.8166
61890SOL     OW 3279   0.507   7.228  12.296  0.1794  0.7196 -0.0337
61890SOL    HW1 3280   0.498   7.133  12.286  2.3374  0.5310 -0.6205
61890SOL    HW2 3281   0.425   7.256  12.336 -0.6511 -1.3367 -0.1930
61891SOL     OW 3282   6.270  13.518  11.600 -0.2805 -0.8621  0.0121
61891SOL    HW1 3283   6.177  13.500  11.616 -0.2583 -0.2416  0.9049
61891SOL    HW2 3284   6.303  13.551  11.684 -0.0559  2.1649 -1.1493
61892SOL     OW 3285   7.439  12.468   0.004 -0.1295  0.3053  0.4356
61892SOL    HW1 3286   7.369  12.462  -0.060  1.2816  0.6126 -1.2033
61892SOL    HW2 3287   7.416  12.404   0.071 -0.1183 -2.3201 -1.9153
61893SOL     OW 3288   3.935   6.864   2.044  0.0630  0.8113  0.2726
61893SOL    HW1 3289   3.908   6.778   2.077  0.6696  0.6737  0.4260
61893SOL    HW2 3290   3.896   6.869   1.957  1.6090 -0.4644 -0.5652
61894SOL     OW 3291   3.008   3.526   8.774 -0.6274  0.0489  0.2040
61894SOL    HW1 3292   2.951   3.562   8.841 -0.4752  1.6144 -0.4595
61894SOL    HW2 3293   3.094   3.521   8.815 -1.1564 -2.2403  1.1804
61895SOL     OW 3294  13.314   0.472   7.875  0.1417  0.5304  0.1180
61895SOL    HW1 3295  13.334   0.402   7.812 -1.3277 -0.4442  0.7049
61895SOL    HW2 3296  13.321   0.430   7.960 -1.6103  0.8529  0.4458
61896SOL     OW 3297   9.615  10.099   8.930  0.0566  0.3997  0.0997
61896SOL    HW1 3298   9.667  10.042   8.874 -0.4322 -0.3861  0.4286
61896SOL    HW2 3299   9.530  10.106   8.887 -0.4261 -0.4602  0.8643
61897SOL     OW 3300   4.078  11.522   9.891 -0.0679  0.3883  0.5752
61897SOL    HW1 3301   4.026  11.470   9.830  1.0289  1.7664 -1.6996
61897SOL    HW2 3302   4.026  11.602   9.904  0.1235  0.4915  0.7091
61898SOL     OW 3303  10.980   7.751   2.790 -0.1941 -0.6175  0.0852
61898SOL    HW1 3304  10.927   7.672   2.803  0.3227 -1.0024 -0.1004
61898SOL    HW2 3305  10.937   7.798   2.719  0.6483 -1.7703 -1.2310
61899SOL     OW 3306   1.961   2.561   4.445  0.4087  0.0065  0.1308
61899SOL    HW1 3307   1.950   2.535   4.536  1.6157 -2.4093 -0.3340
61899SOL    HW2 3308   1.889   2.517   4.399  0.3707  0.4248 -0.2162
61900SOL     OW 3309   8.668  13.203   6.492 -0.2134  0.0619  0.0381
61900SOL    HW1 3310   8.581  13.190   6.529 -1.5281 -0.9895 -3.1053
61900SOL    HW2 3311   8.665  13.290   6.452  0.5291  0.4090  0.7081
61901SOL     OW 3312   8.083   1.462   5.611  0.1614 -0.1197 -0.3419
61901SOL    HW1 3313   8.050   1.552   5.618  1.2407  0.3105 -0.4836
61901SOL    HW2 3314   8.009   1.411   5.579  0.4380  1.3385 -3.7060
61902SOL     OW 3315  13.475   6.233   1.180  0.8085  0.1312 -0.4472
61902SOL    HW1 3316  13.451   6.200   1.266  1.0749  0.8481 -0.0837
61902SOL    HW2 3317  13.530   6.165   1.142  0.5298 -0.2741 -0.1259
61903SOL     OW 3318   0.393   9.989  10.149  0.1029  0.2902  0.1094
61903SOL    HW1 3319   0.436   9.937  10.217  0.1443  0.2885  0.0824
61903SOL    HW2 3320   0.306  10.008  10.184  0.3220  0.7684  0.4001
61904SOL     OW 3321  12.056   3.317   5.346  0.2956  0.2441  0.2440
61904SOL    HW1 3322  12.039   3.346   5.435  0.6009 -1.1403  0.7805
61904SOL    HW2 3323  12.145   3.281   5.349  0.8042  1.3273 -0.9322
61905SOL     OW 3324   6.986  12.316   4.210  0.3921 -0.3424 -0.4577
61905SOL    HW1 3325   6.925  12.371   4.260  0.0752 -1.8105  0.8687
61905SOL    HW2 3326   6.937  12.236   4.191  0.9340 -0.3241 -2.0894
61906SOL     OW 3327  12.953   2.086   2.025  0.2305  0.2277 -0.5122
61906SOL    HW1 3328  12.900   2.163   2.004  1.2688  0.5046 -2.2584
61906SOL    HW2 3329  13.031   2.121   2.068  0.7706  0.1873 -1.4350
61907SOL     OW 3330   0.729   6.682  13.490  0.8943  0.0000 -0.4991
61907SOL    HW1 3331   0.821   6.693  13.516  0.1537  4.0749  1.1139
61907SOL    HW2 3332   0.729   6.707  13.397  1.4171 -0.0728 -0.5265
61908SOL     OW 3333   1.136   2.702   1.255 -0.5505 -0.3698 -0.1194
61908SOL    HW1 3334   1.210   2.719   1.313  1.8529  0.8535 -3.2292
61908SOL    HW2 3335   1.085   2.783   1.256 -0.4241 -0.2954  0.1815
61909SOL     OW 3336   9.013   6.066   0.532 -0.0215 -0.3760  0.1342
61909SOL    HW1 3337   8.937   6.058   0.473  0.2523  1.0809 -0.4638
61909SOL    HW2 3338   9.087   6.037   0.479 -0.0651 -1.2266  0.5240
61910SOL     OW 3339   5.821   0.626  12.129  0.1948 -0.1631 -0.2650
61910SOL    HW1 3340   5.840   0.574  12.051 -0.7718  0.0372 -0.6479
61910SOL    HW2 3341   5.823   0.717  12.099 -2.0344 -0.1388 -0.5303
61911SOL     OW 3342   4.760   6.983  12.958 -0.0807  0.5155 -0.0407
61911SOL    HW1 3343   4.796   6.930  13.029 -0.2896  1.9469  1.1728
61911SOL    HW2 3344   4.821   6.971  12.886 -0.0752 -1.2838  0.2132
61912SOL     OW 3345   3.816  13.971   7.783 -0.5682 -0.1494 -0.2310
61912SOL    HW1 3346   3.812  13.984   7.688 -0.2430 -0.5427 -0.3019
61912SOL    HW2 3347   3.907  13.948   7.800 -0.2438  1.4478  0.3833
61913SOL     OW 3348   2.033  11.847   0.534 -0.5005 -0.4516 -0.5020
61913SOL    HW1 3349   2.113  11.813   0.493  0.8945  0.7938  1.0177
61913SOL    HW2 3350   1.978  11.875   0.461  1.3652  0.6066 -1.5745
61914SOL     OW 3351   2.561   3.904   0.630 -0.2914  0.4572 -0.5761
61914SOL    HW1 3352   2.543   3.860   0.547  0.2351  1.1216 -1.0574
61914SOL    HW2 3353   2.651   3.880   0.651 -0.7995 -0.6465  0.4103
61915SOL     OW 3354  12.137  12.546   3.935  0.2463 -1.2014 -0.3543
61915SOL    HW1 3355  12.137  12.455   3.964  0.2484 -0.8750  0.6957
61915SOL    HW2 3356  12.151  12.541   3.841 -3.1859 -2.4658 -0.9552
61916SOL     OW 3357  13.776   3.768  13.282 -0.2442  0.8385 -1.3898
61916SOL    HW1 3358  13.683   3.773  13.305  0.2638 -0.1904  1.2740
61916SOL    HW2 3359  13.818   3.829  13.343  1.0706 -0.8931 -0.4780
61917SOL     OW 3360   5.445   5.833  13.062  0.0665 -0.1395  0.0546
61917SOL    HW1 3361   5.380   5.769  13.032 -1.1886  1.8734 -1.7716
61917SOL    HW2 3362   5.501   5.847  12.986  0.9080  0.2684  0.7336
61918SOL     OW 3363   4.610  12.753   6.656 -0.4696 -0.0046 -0.3871
61918SOL    HW1 3364   4.554  12.719   6.587 -0.5029 -3.2384  1.0363
61918SOL    HW2 3365   4.574  12.716   6.737  1.8163  0.4227  0.9271
61919SOL     OW 3366  12.714   4.415   4.055 -0.2248  0.5801 -0.3827
61919SOL    HW1 3367  12.715   4.434   4.148  1.6336  1.1524 -0.4637
61919SOL    HW2 3368  12.624   4.388   4.036 -0.2411 -1.3259  1.9208
61920SOL     OW 3369  11.611   3.300  13.745  0.2843  1.0763  0.5453
61920SOL    HW1 3370  11.678   3.336  13.688 -0.4447  0.8950 -0.4435
61920SOL    HW2 3371  11.632   3.207  13.751  1.1419  1.3166  1.6864
61921SOL     OW 3372  11.849  11.672   4.552 -0.0329  0.2830 -0.4144
61921SOL    HW1 3373  11.822  11.615   4.623  0.4747  0.5252 -0.0178
61921SOL    HW2 3374  11.919  11.727   4.590 -1.7329  2.4585 -0.2312
61922SOL     OW 3375   9.372  10.831   5.395 -0.1528  0.0622  0.3410
61922SOL    HW1 3376   9.278  10.822   5.378 -0.3143  1.1692  0.5365
61922SOL    HW2 3377   9.407  10.868   5.314  0.2958 -1.2304 -0.0810
61923SOL     OW 3378   9.748   3.214   3.724 -0.6632 -0.4550  0.0092
61923SOL    HW1 3379   9.670   3.179   3.680  1.6822 -1.4665 -3.7999
61923SOL    HW2 3380   9.762   3.299   3.683  0.9153 -0.8572 -0.3397
61924SOL     OW 3381   3.907  10.468   2.203 -0.0850  0.0494 -0.4047
61924SOL    HW1 3382   3.814  10.480   2.222 -0.6148 -2.0733 -1.4072
61924SOL    HW2 3383   3.923  10.375   2.219  1.9402  0.4252 -0.0344
61925SOL     OW 3384  10.810   3.503   0.253 -0.1468  0.2239  0.7281
61925SOL    HW1 3385  10.838   3.560   0.181 -1.0062  0.5609  0.6545
61925SOL    HW2 3386  10.888   3.495   0.308  0.1684  0.9745  0.4122
61926SOL     OW 3387   5.377   2.769   6.978 -0.3868 -0.4760 -0.0523
61926SOL    HW1 3388   5.371   2.798   7.069 -1.5263  2.1632 -0.8433
61926SOL    HW2 3389   5.469   2.783   6.955 -0.1999 -0.6720  0.5489
61927SOL     OW 3390   2.317  12.978   2.539 -0.1327 -0.1275 -0.8815
61927SOL    HW1 3391   2.359  12.951   2.457 -0.6820  0.6177 -1.4181
61927SOL    HW2 3392   2.391  12.995   2.598  0.2532 -1.9304 -0.7756
61928SOL     OW 3393   3.215   6.676  11.421  0.4853  0.2469  0.2760
61928SOL    HW1 3394   3.177   6.719  11.345 -2.2041 -0.9461  0.8142
61928SOL    HW2 3395   3.225   6.584  11.394 -0.0015 -0.0787  1.1395
61929SOL     OW 3396   3.771  11.383  11.141  0.7036  0.3753  0.5098
61929SOL    HW1 3397   3.713  11.455  11.115  0.6094 -0.3179 -1.3102
61929SOL    HW2 3398   3.739  11.307  11.092  1.3409 -0.7291  1.7413
61930SOL     OW 3399   9.056   9.683  13.920 -0.7668  0.3254  0.0062
61930SOL    HW1 3400   9.062   9.596  13.960  1.6757  1.3512  2.1898
61930SOL    HW2 3401   8.988   9.728  13.970 -2.3670 -0.3877 -1.4310
61931SOL     OW 3402   2.949  13.103   7.118  0.1049 -0.9523 -0.0563
61931SOL    HW1 3403   2.879  13.129   7.178 -0.7100 -1.4974 -0.7419
61931SOL    HW2 3404   2.993  13.031   7.162 -1.7720 -2.7287 -0.9198
61932SOL     OW 3405   5.031   8.183   1.432 -0.3684  0.5798  0.1297
61932SOL    HW1 3406   4.961   8.141   1.381  0.7365 -2.2491  0.7368
61932SOL    HW2 3407   5.016   8.154   1.522  1.1182  0.5279  0.3848
61933SOL     OW 3408   3.030  12.889   7.520 -0.1859  0.4613  0.3095
61933SOL    HW1 3409   3.116  12.906   7.558  0.8409  1.3051 -2.1577
61933SOL    HW2 3410   3.015  12.796   7.534  0.2030  0.6733  2.4467
61934SOL     OW 3411   7.097  13.351   2.307  0.1841  0.0064  0.4948
61934SOL    HW1 3412   7.090  13.423   2.369  0.1087  0.0641  0.4201
61934SOL    HW2 3413   7.068  13.388   2.224  0.5160 -0.0054  0.3743
61935SOL     OW 3414   5.613   2.348   4.629 -0.0256 -0.4065 -0.5436
61935SOL    HW1 3415   5.538   2.372   4.574  1.0774  0.1895 -1.8799
61935SOL    HW2 3416   5.616   2.416   4.696 -0.4802 -0.2409 -0.6877
61936SOL     OW 3417   5.851  10.339   3.957  0.7891 -0.4752  0.4849
61936SOL    HW1 3418   5.876  10.405   4.021 -1.3543  1.1027 -0.1859
61936SOL    HW2 3419   5.898  10.364   3.877  2.2485 -1.5345  0.9721
61937SOL     OW 3420   6.842  12.409   3.055 -0.4363 -0.0165  0.1833
61937SOL    HW1 3421   6.871  12.409   2.964  1.2150 -0.5451  0.6585
61937SOL    HW2 3422   6.779  12.480   3.061  0.5875  1.0504 -1.0501
61938SOL     OW 3423  13.198  10.887   8.506  0.8597 -0.4869 -0.2531
61938SOL    HW1 3424  13.137  10.866   8.435  1.7585  1.2637 -1.6472
61938SOL    HW2 3425  13.206  10.806   8.557 -0.7909 -1.4269 -1.4017
61939SOL     OW 3426   8.839   2.389   7.344 -0.1421  0.2256 -0.4885
61939SOL    HW1 3427   8.839   2.464   7.404 -1.0390  0.6015 -0.9457
61939SOL    HW2 3428   8.822   2.314   7.400  0.2762  0.4218 -0.0939
61940SOL     OW 3429  11.212   0.219   4.279  0.8548 -0.4528  0.2366
61940SOL    HW1 3430  11.253   0.291   4.232 -1.0511 -0.6904 -1.9493
61940SOL    HW2 3431  11.136   0.258   4.321  1.3523 -0.6891  1.4062
61941SOL     OW 3432   9.330  12.161   7.755 -0.1143 -0.0588 -0.5533
61941SOL    HW1 3433   9.305  12.079   7.798  1.0404 -1.9513 -3.1769
61941SOL    HW2 3434   9.423  12.171   7.774 -0.7070  2.0798  1.7410
61942SOL     OW 3435  13.946  11.122   3.160  0.2332  0.3454 -0.0977
61942SOL    HW1 3436  13.897  11.116   3.078  1.5898  0.6513 -0.9835
61942SOL    HW2 3437  14.036  11.101   3.135  0.6631  0.3314  1.3503
61943SOL     OW 3438   9.884   1.198   8.790  0.2854  0.0083  0.4101
61943SOL    HW1 3439   9.858   1.107   8.779  0.3979 -0.1022  1.0093
61943SOL    HW2 3440   9.901   1.229   8.701  0.0080 -0.4810  0.1807
61944SOL     OW 3441   1.874   3.783   6.718 -0.0215 -0.2573 -0.0472
61944SOL    HW1 3442   1.859   3.841   6.793  1.3131 -0.0282  0.0621
61944SOL    HW2 3443   1.958   3.812   6.681  0.7459 -2.1633  0.0801
61945SOL     OW 3444  11.836   7.533   5.278  0.2857 -0.0812 -0.3281
61945SOL    HW1 3445  11.786   7.514   5.198  0.4418  2.9080 -1.2990
61945SOL    HW2 3446  11.927   7.522   5.252  0.3730  1.6128 -0.8740
61946SOL     OW 3447   1.874   4.263   6.501 -0.2809  0.0475 -0.0310
61946SOL    HW1 3448   1.889   4.356   6.484  0.2541  0.3035  1.6217
61946SOL    HW2 3449   1.905   4.250   6.591  0.3460 -1.8926 -0.4727
61947SOL     OW 3450   0.814   2.807   3.430  0.4002 -0.5631  0.8709
61947SOL    HW1 3451   0.719   2.802   3.442  0.1884 -0.7947 -0.6642
61947SOL    HW2 3452   0.827   2.879   3.368  1.2688 -0.2244  1.4379
61948SOL     OW 3453   8.392  12.909   8.652 -0.5362 -0.0328  0.4224
61948SOL    HW1 3454   8.465  12.945   8.600 -0.3884 -1.0530 -0.0871
61948SOL    HW2 3455   8.349  12.987   8.688  0.6903  0.5982  0.5827
61949SOL     OW 3456   1.049  11.487  13.894  0.7628 -0.0784 -0.5179
61949SOL    HW1 3457   1.127  11.480  13.950  1.4116 -1.2303 -1.5133
61949SOL    HW2 3458   0.985  11.533  13.948  1.4003 -1.0098  1.1291
61950SOL     OW 3459   3.859  12.862  10.595 -0.3053  0.2402 -0.2876
61950SOL    HW1 3460   3.864  12.927  10.526 -0.3655 -0.8188 -1.3163
61950SOL    HW2 3461   3.898  12.783  10.558  0.6731 -0.0557  1.2630
61951SOL     OW 3462   2.803  12.686   0.105  0.2765  0.2774 -0.0806
61951SOL    HW1 3463   2.721  12.718   0.143  1.0529  1.0067  1.0343
61951SOL    HW2 3464   2.781  12.600   0.070 -0.9533  0.4507  0.2217
61952SOL     OW 3465  11.221  12.396   7.981  0.4937  0.0656  0.4763
61952SOL    HW1 3466  11.246  12.474   8.030  2.2241 -0.3424  0.3055
61952SOL    HW2 3467  11.157  12.352   8.037  0.6221  0.8381  1.2520
61953SOL     OW 3468   7.975   9.931  11.093 -0.3271  0.2163  0.3086
61953SOL    HW1 3469   8.035  10.006  11.083 -0.5497  0.2700 -0.6976
61953SOL    HW2 3470   8.028   9.864  11.136  0.5120  0.2301 -0.6528
61954SOL     OW 3471  13.397   3.452   0.647 -0.0325 -0.0109 -0.7916
61954SOL    HW1 3472  13.324   3.399   0.680 -1.6549  0.5036 -3.2394
61954SOL    HW2 3473  13.451   3.390   0.598 -0.4515  0.0874 -1.3947
61955SOL     OW 3474   7.447   0.365  13.909  0.3160  0.1673 -0.4904
61955SOL    HW1 3475   7.353   0.345  13.910  0.4891 -0.8282 -1.8981
61955SOL    HW2 3476   7.489   0.287  13.945  0.6711  0.1678 -0.8926
61956SOL     OW 3477   3.186  12.375   5.051 -0.2752  0.2576 -0.2745
61956SOL    HW1 3478   3.188  12.463   5.016 -1.1357  0.5402  0.3354
61956SOL    HW2 3479   3.097  12.344   5.034  0.5802 -1.2788 -2.2962
61957SOL     OW 3480   7.456  11.492  11.359  0.2648  0.3213  0.0501
61957SOL    HW1 3481   7.427  11.406  11.389  2.0450  0.1598  1.4492
61957SOL    HW2 3482   7.436  11.492  11.265 -0.8584 -1.1359  0.2448
61958SOL     OW 3483  11.000   9.096  14.026 -0.9747  0.3586 -0.5489
61958SOL    HW1 3484  10.963   9.120  13.941 -3.1795  0.0723  0.2634
61958SOL    HW2 3485  10.963   9.160  14.087 -0.7595 -0.4476  0.4443
61959SOL     OW 3486   2.355   3.352   0.173 -0.3971  0.3330 -0.3194
61959SOL    HW1 3487   2.317   3.298   0.242  0.4003 -1.0901 -0.9444
61959SOL    HW2 3488   2.283   3.406   0.142 -1.2746 -0.4948  0.2280
61960SOL     OW 3489   6.058  10.283  12.691  0.2031 -0.1917 -0.1427
61960SOL    HW1 3490   6.048  10.188  12.694  0.0279 -0.2089 -0.9871
61960SOL    HW2 3491   6.124  10.298  12.623  0.2665  0.2866  0.0224
61961SOL     OW 3492   0.593   8.151  12.082  1.1967  0.1023  0.2406
61961SOL    HW1 3493   0.575   8.088  12.013  0.2832  0.9118 -0.2908
61961SOL    HW2 3494   0.581   8.102  12.164  1.8870 -0.7585 -0.1697
61962SOL     OW 3495   8.798  11.388  11.444  0.3344 -0.0098 -0.0168
61962SOL    HW1 3496   8.832  11.477  11.432  0.7618 -0.2696 -0.7559
61962SOL    HW2 3497   8.714  11.401  11.489  0.7164  0.7229  0.5180
61963SOL     OW 3498  10.432   7.210   3.009 -0.3874 -0.0581  0.4306
61963SOL    HW1 3499  10.495   7.138   3.001 -0.9205 -0.6512  1.3270
61963SOL    HW2 3500  10.480   7.280   3.052 -0.3351 -0.5215  1.1427
61964SOL     OW 3501   7.433   3.433   6.047 -0.7360 -0.5202  0.5891
61964SOL    HW1 3502   7.439   3.486   6.126  0.5475 -1.1423  0.9491
61964SOL    HW2 3503   7.340   3.416   6.036 -1.0939  1.0370  0.9616
61965SOL     OW 3504  10.339   3.662   3.567 -0.4487 -0.1329 -0.2700
61965SOL    HW1 3505  10.319   3.596   3.500 -0.2354  0.7090 -1.1737
61965SOL    HW2 3506  10.433   3.655   3.579 -0.7805 -2.1861  1.9899
61966SOL     OW 3507  13.704   4.981   4.775 -0.0074 -0.5246 -0.0436
61966SOL    HW1 3508  13.667   5.019   4.855 -1.1830 -1.9074  0.1326
61966SOL    HW2 3509  13.750   5.053   4.732  1.2958  0.0981  2.2338
61967SOL     OW 3510  10.632   3.488  10.338  0.1845  0.0622 -0.0854
61967SOL    HW1 3511  10.553   3.537  10.360  0.4496  0.7949 -0.7339
61967SOL    HW2 3512  10.655   3.442  10.419 -0.4173  0.5206  0.3560
61968SOL     OW 3513   6.875  11.386  10.103 -0.0115 -0.3435  0.6834
61968SOL    HW1 3514   6.875  11.434  10.186  0.4795  1.2332 -0.1955
61968SOL    HW2 3515   6.810  11.431  10.049  0.4521 -0.6771 -0.1672
61969SOL     OW 3516  11.799   5.553   4.384  0.1333  0.4615 -0.1667
61969SOL    HW1 3517  11.862   5.591   4.446  0.4372  1.0412 -0.8170
61969SOL    HW2 3518  11.749   5.490   4.436 -0.3617  1.7316  0.9569
61970SOL     OW 3519   5.594   3.682  12.571 -0.3231  0.2688  0.1455
61970SOL    HW1 3520   5.533   3.713  12.505  0.1811 -0.6011 -0.7507
61970SOL    HW2 3521   5.597   3.587  12.560  1.8470  0.3408 -0.4687
61971SOL     OW 3522   2.442   4.472   5.472 -0.7316  0.0892 -0.1752
61971SOL    HW1 3523   2.469   4.462   5.563 -1.0915  1.2423  0.0669
61971SOL    HW2 3524   2.361   4.522   5.476 -0.2899  0.9153 -1.1752
61972SOL     OW 3525   7.672  11.882   7.306  0.1758 -0.2650  0.7838
61972SOL    HW1 3526   7.726  11.832   7.368  1.8900  0.5965  0.0667
61972SOL    HW2 3527   7.674  11.971   7.340  0.4380  0.0561 -0.0450
61973SOL     OW 3528   9.071   5.697  13.915 -0.5819 -0.1632 -0.1327
61973SOL    HW1 3529   9.145   5.722  13.970 -1.2362  2.2931 -0.2194
61973SOL    HW2 3530   8.997   5.690  13.975 -0.6906 -0.5787 -0.3092
61974SOL     OW 3531  11.734   2.952  11.294 -0.2053 -0.0620 -0.6652
61974SOL    HW1 3532  11.720   3.042  11.264 -0.8094  0.8378  2.0078
61974SOL    HW2 3533  11.828   2.937  11.283  0.4513  1.9746  1.2717
61975SOL     OW 3534   1.491   0.621   1.281  0.0798 -0.1904  0.0221
61975SOL    HW1 3535   1.458   0.676   1.210  1.0526  0.7475  0.2683
61975SOL    HW2 3536   1.417   0.565   1.304 -0.9876  1.0610 -0.2071
61976SOL     OW 3537   2.746   8.665   6.430  0.0165  0.2758  0.3269
61976SOL    HW1 3538   2.841   8.675   6.416  0.2596 -2.2297 -0.2317
61976SOL    HW2 3539   2.710   8.655   6.342 -0.4031 -1.2788  0.6495
61977SOL     OW 3540   2.668   3.635   8.118  0.2462  0.1113  0.3398
61977SOL    HW1 3541   2.686   3.571   8.050  0.9555 -1.3960  1.8494
61977SOL    HW2 3542   2.583   3.672   8.096 -0.6597 -2.0932 -0.0828
61978SOL     OW 3543   7.368   3.046  10.971 -0.0232  0.1922  0.8406
61978SOL    HW1 3544   7.351   3.079  10.882 -2.9148 -0.4156  1.0695
61978SOL    HW2 3545   7.327   3.111  11.028  0.5514 -0.1634  1.6666
61979SOL     OW 3546  11.282   3.557  12.600  0.2803  0.3435  0.2621
61979SOL    HW1 3547  11.225   3.610  12.546  0.5720 -0.0035 -0.3927
61979SOL    HW2 3548  11.311   3.616  12.670 -0.1855  0.7591  0.1044
61980SOL     OW 3549  12.612  12.841   7.338  0.8675  0.6435  0.7956
61980SOL    HW1 3550  12.558  12.880   7.269 -1.3195 -0.0824  1.9900
61980SOL    HW2 3551  12.649  12.915   7.385  0.6734  1.1869  0.1085
61981SOL     OW 3552   5.600  11.116   1.532  0.0458  0.5425 -0.0673
61981SOL    HW1 3553   5.615  11.123   1.438  0.1787  1.7335  0.0279
61981SOL    HW2 3554   5.628  11.027   1.554  0.5605  0.4485 -1.0487
61982SOL     OW 3555   6.520   2.047   3.045  0.0988 -0.7495 -0.1474
61982SOL    HW1 3556   6.550   2.136   3.027  0.3810 -1.0389 -1.1463
61982SOL    HW2 3557   6.475   2.019   2.965  1.1439 -1.9717 -0.3439
61983SOL     OW 3558   6.433   8.977   2.179  0.3472 -0.3274 -0.4140
61983SOL    HW1 3559   6.416   9.010   2.090  0.3582 -1.5758 -0.8987
61983SOL    HW2 3560   6.412   9.051   2.236  0.8585  0.6779 -1.4792
61984SOL     OW 3561   6.484   3.960   9.893  0.3223 -0.0578  0.0906
61984SOL    HW1 3562   6.570   4.001   9.899 -0.1536  0.7590  1.6514
61984SOL    HW2 3563   6.493   3.879   9.942  0.0810  0.2442  0.6354
61985SOL     OW 3564   2.439   5.403   6.083  0.2785 -0.1985 -0.4538
61985SOL    HW1 3565   2.409   5.440   6.166  0.7115  0.8009 -0.7278
61985SOL    HW2 3566   2.405   5.313   6.084  1.2366 -0.5964  1.3075
61986SOL     OW 3567   9.445  10.944   3.953 -0.3246  0.1292 -0.1113
61986SOL    HW1 3568   9.395  10.895   3.888 -0.8135 -0.1971  0.4930
61986SOL    HW2 3569   9.534  10.910   3.947 -0.9795 -2.0354  1.4000
61987SOL     OW 3570   2.271   0.992   8.102 -0.1376  0.1713  0.0344
61987SOL    HW1 3571   2.303   0.920   8.156  0.1391  0.6640  0.5401
61987SOL    HW2 3572   2.328   0.992   8.025 -1.0735 -1.0773 -0.6989
61988SOL     OW 3573   1.921   1.100   2.062  0.2710 -0.2733  0.1190
61988SOL    HW1 3574   1.867   1.111   1.984  0.8517  0.4733 -0.1922
61988SOL    HW2 3575   1.930   1.189   2.097  1.4708 -0.3466  0.0403
61989SOL     OW 3576   5.606  11.647  12.803 -0.1403 -0.6025  0.0342
61989SOL    HW1 3577   5.530  11.616  12.754 -2.0272  2.3728  0.7945
61989SOL    HW2 3578   5.667  11.678  12.736 -2.6736  3.4323 -0.7861
61990SOL     OW 3579   0.489   3.852   0.424 -0.0771 -0.2882 -0.1779
61990SOL    HW1 3580   0.504   3.815   0.511 -0.0162  1.4699  0.5956
61990SOL    HW2 3581   0.569   3.900   0.404 -0.3074 -0.2149 -0.9741
61991SOL     OW 3582  12.746   2.281  13.173 -0.2657  0.2563  0.1597
61991SOL    HW1 3583  12.743   2.188  13.197  1.0952  0.2709  0.5224
61991SOL    HW2 3584  12.752   2.327  13.257 -0.5703  0.6474 -0.0310
61992SOL     OW 3585   2.231   9.194   8.398  0.4272  0.3639  0.4514
61992SOL    HW1 3586   2.138   9.175   8.414  0.3533  0.9866  0.7748
61992SOL    HW2 3587   2.234   9.288   8.382  0.7955  0.1048 -1.1494
61993SOL     OW 3588  10.946   2.939  10.664 -0.2203  0.4077 -0.3560
61993SOL    HW1 3589  11.025   2.966  10.617 -0.1272  0.6698 -0.0505
61993SOL    HW2 3590  10.968   2.950  10.756  0.4492 -2.3899 -0.0804
61994SOL     OW 3591  10.450  10.804   0.069  0.0255  0.4813  0.3215
61994SOL    HW1 3592  10.369  10.828   0.024 -0.6869 -0.8831  0.8077
61994SOL    HW2 3593  10.511  10.779  -0.001 -0.7793 -0.7718  0.0320
61995SOL     OW 3594  12.222   1.487   5.285 -0.3022  0.0990 -0.2810
61995SOL    HW1 3595  12.215   1.411   5.227 -1.3039  1.2942 -1.8254
61995SOL    HW2 3596  12.154   1.473   5.351 -1.2565  0.1798 -1.2230
61996SOL     OW 3597  13.995  12.075  13.767  0.8976 -0.6100 -0.3924
61996SOL    HW1 3598  13.958  12.088  13.854 -1.6574  3.3695 -1.7897
61996SOL    HW2 3599  14.089  12.083  13.779  0.5445  1.4908  1.8652
61997SOL     OW 3600  13.468   8.094   3.414 -0.5896  0.3380 -0.2438
61997SOL    HW1 3601  13.538   8.087   3.349  1.6733  0.1412  2.0558
61997SOL    HW2 3602  13.512   8.123   3.494 -3.1852  0.3764  1.2881
61998SOL     OW 3603   2.814   1.905   0.955 -0.2310  0.6860 -0.5153
61998SOL    HW1 3604   2.844   1.898   0.864  0.8198  0.8421 -0.1936
61998SOL    HW2 3605   2.743   1.970   0.952 -2.8687 -1.9952 -1.8145
61999SOL     OW 3606  13.302   5.597   6.859 -0.0680 -0.1016  0.2214
61999SOL    HW1 3607  13.272   5.663   6.922  1.1527  0.9120 -0.2278
61999SOL    HW2 3608  13.350   5.534   6.912 -1.2379 -0.6580  0.6545
62000SOL     OW 3609   6.154   1.221   0.759 -0.0023 -0.0843  0.2747
62000SOL    HW1 3610   6.064   1.190   0.766  0.2779 -0.7059  1.4719
62000SOL    HW2 3611   6.148   1.316   0.769 -0.6239  0.0281 -0.9080
62001SOL     OW 3612  12.479  12.509   0.888 -0.2100 -0.1738 -0.0318
62001SOL    HW1 3613  12.559  12.466   0.858 -1.3221 -2.1214 -0.4335
62001SOL    HW2 3614  12.411  12.475   0.829 -1.4129  1.0030  0.6236
62002SOL     OW 3615   0.345   4.742   8.249  0.2716  0.1783 -0.0232
62002SOL    HW1 3616   0.347   4.647   8.246  0.2970  0.0733  1.8173
62002SOL    HW2 3617   0.434   4.769   8.225 -0.0397 -0.1697 -1.6906
62003SOL     OW 3618   1.224  11.350   7.627  0.1647  0.0328  0.2924
62003SOL    HW1 3619   1.203  11.354   7.721 -0.0829 -0.8764  0.2833
62003SOL    HW2 3620   1.314  11.320   7.624 -0.5821 -2.4233  0.2235
62004SOL     OW 3621   9.692   1.099   6.899  0.0597 -0.0527  0.1285
62004SOL    HW1 3622   9.700   1.147   6.981  0.1195  2.0245 -1.0238
62004SOL    HW2 3623   9.762   1.033   6.902  1.9903  1.9262  0.4961
62005SOL     OW 3624   6.668   7.004   9.421 -0.3219 -0.7545 -0.3148
62005SOL    HW1 3625   6.613   6.938   9.463 -0.1350 -0.3725  0.5594
62005SOL    HW2 3626   6.753   6.961   9.410 -0.2070 -0.6808  0.2335
62006SOL     OW 3627  10.587   6.397  10.401 -0.5579 -0.0914 -0.5368
62006SOL    HW1 3628  10.576   6.454  10.325 -0.4591 -0.9931 -1.2461
62006SOL    HW2 3629  10.585   6.309  10.365  1.7911 -0.5111  0.1816
62007SOL     OW 3630   6.531  12.943  10.863  0.3378  0.0289  0.1739
62007SOL    HW1 3631   6.596  12.919  10.797  0.5962  0.8824  0.1033
62007SOL    HW2 3632   6.449  12.949  10.814  0.5764  0.9362 -0.1491
62008SOL     OW 3633   2.148   5.992   3.061  0.5683 -0.1386  0.0101
62008SOL    HW1 3634   2.224   6.044   3.086  2.0437 -0.6987 -2.8763
62008SOL    HW2 3635   2.171   5.902   3.085  0.7420 -0.2773 -0.6604
62009SOL     OW 3636  11.517  12.688   4.123  0.6319  0.1702  0.0366
62009SOL    HW1 3637  11.591  12.678   4.184  0.1510 -0.5943  0.5139
62009SOL    HW2 3638  11.497  12.781   4.126  2.6575  0.7162 -1.4139
62010SOL     OW 3639   3.221   8.076   7.693 -0.2327 -0.3246 -0.2340
62010SOL    HW1 3640   3.248   8.003   7.748  0.1691  0.3371  0.4674
62010SOL    HW2 3641   3.275   8.150   7.722 -1.8287  0.6972  0.2845
62011SOL     OW 3642   6.580  10.708  13.549 -0.0455 -0.1779 -0.0059
62011SOL    HW1 3643   6.548  10.795  13.526  0.4206 -0.0317 -0.1099
62011SOL    HW2 3644   6.504  10.651  13.541 -0.6623  0.4188  1.2499
62012SOL     OW 3645   2.548   2.034  13.127 -0.1171  0.8998  0.0683
62012SOL    HW1 3646   2.505   2.028  13.212 -2.6760  1.5883 -1.0773
62012SOL    HW2 3647   2.537   1.946  13.089  1.3780  0.4701  0.5337
62013SOL     OW 3648   8.709   4.147   4.101  0.2235  0.6809  0.0935
62013SOL    HW1 3649   8.765   4.105   4.035 -0.5349  0.2587 -0.2846
62013SOL    HW2 3650   8.759   4.139   4.182  0.3878 -0.3652 -0.0997
62014SOL     OW 3651   0.449   8.843   5.165 -0.0613 -0.1165  0.1854
62014SOL    HW1 3652   0.461   8.931   5.199 -1.5421 -0.6580  2.3426
62014SOL    HW2 3653   0.537   8.804   5.167  0.5266  1.1252 -0.3756
62015SOL     OW 3654  12.573   2.558   5.652 -0.2973 -0.0785  0.3690
62015SOL    HW1 3655  12.555   2.550   5.745 -0.5305 -1.3369  0.2391
62015SOL    HW2 3656  12.644   2.495   5.636 -0.3969 -0.0240 -0.3239
62016SOL     OW 3657  11.224   0.940   5.276  0.5969 -0.2707  0.2262
62016SOL    HW1 3658  11.251   0.974   5.361 -1.4631 -3.5702  2.4419
62016SOL    HW2 3659  11.144   0.989   5.255  1.5531  1.1219 -0.2991
62017SOL     OW 3660   7.977   3.003  11.690 -0.0754 -0.7305  0.1831
62017SOL    HW1 3661   8.002   2.929  11.745 -1.3233 -0.8612  0.5996
62017SOL    HW2 3662   7.920   3.056  11.745 -0.0097  0.0140 -0.4464
62018SOL     OW 3663  10.032  13.686   4.167 -0.0600  0.4070 -0.8350
62018SOL    HW1 3664  10.073  13.640   4.241 -0.7357  2.2080  0.7355
62018SOL    HW2 3665  10.009  13.616   4.106  0.2004 -1.2075  0.7996
62019SOL     OW 3666   2.713   4.110   5.442  0.4320 -0.3335 -0.1201
62019SOL    HW1 3667   2.633   4.105   5.495  1.0292  0.6407  0.9024
62019SOL    HW2 3668   2.695   4.180   5.379  0.1166 -0.7879 -0.5443
62020SOL     OW 3669   8.687  13.988  14.085  0.2101 -0.9068  0.0694
62020SOL    HW1 3670   8.603  13.987  14.039  0.8638 -0.6935 -1.1774
62020SOL    HW2 3671   8.742  13.926  14.036  1.0210 -0.4694  0.4072
62021SOL     OW 3672   4.823   6.584  14.043 -0.2478 -0.9062  0.0874
62021SOL    HW1 3673   4.851   6.569  13.953  3.6165  1.1927  0.7453
62021SOL    HW2 3674   4.763   6.659  14.037 -1.2339 -1.7270 -0.8041
62022SOL     OW 3675   2.742  11.144   7.805  0.2760 -0.1198  0.1143
62022SOL    HW1 3676   2.655  11.113   7.834  1.0526 -0.0718  2.8083
62022SOL    HW2 3677   2.735  11.239   7.808  0.6429 -0.1069  1.2883
62023SOL     OW 3678   8.271   9.270  12.444  0.3142  0.0839  0.2655
62023SOL    HW1 3679   8.288   9.248  12.536  0.9234  2.3506  0.7811
62023SOL    HW2 3680   8.341   9.331  12.421 -0.9520  1.1278 -1.0432
62024SOL     OW 3681   4.230   0.352   3.275  0.5033 -0.3767 -0.2137
62024SOL    HW1 3682   4.282   0.432   3.281  0.4097 -0.2787 -0.6683
62024SOL    HW2 3683   4.173   0.354   3.352 -1.0504  1.0967 -1.3489
62025SOL     OW 3684  11.769  11.301   1.810 -0.1896  0.0964 -0.4575
62025SOL    HW1 3685  11.815  11.367   1.759  0.6658 -1.1269 -1.3403
62025SOL    HW2 3686  11.699  11.270   1.751  1.1313 -1.7012 -1.1807
62026SOL     OW 3687   5.719   6.105   8.714  0.2573 -0.3348 -0.2964
62026SOL    HW1 3688   5.644   6.119   8.656  0.7578 -0.3750 -0.9614
62026SOL    HW2 3689   5.696   6.027   8.765  0.2487 -0.9297 -1.1824
62027SOL     OW 3690   4.527   6.067   3.533 -0.3018 -0.0410 -0.0335
62027SOL    HW1 3691   4.539   6.130   3.462 -1.5275 -0.7216 -0.8705
62027SOL    HW2 3692   4.441   6.028   3.517 -0.3415 -0.6375  1.4899
62028SOL     OW 3693   3.174  13.345   8.961 -0.4459 -0.0963 -0.2687
62028SOL    HW1 3694   3.210  13.363   8.874 -0.0803  0.8831  0.0687
62028SOL    HW2 3695   3.080  13.363   8.952 -0.6363 -1.2244 -0.7676
62029SOL     OW 3696   8.373   3.649   3.818  1.1118 -0.9095 -0.2802
62029SOL    HW1 3697   8.432   3.583   3.779 -0.9072 -2.7702 -0.3579
62029SOL    HW2 3698   8.314   3.599   3.874  0.4622  1.0697  0.9121
62030SOL     OW 3699  13.715  14.056   6.484  0.0605  0.0836  0.3162
62030SOL    HW1 3700  13.727  13.985   6.548  1.9968 -1.8463 -1.9561
62030SOL    HW2 3701  13.781  14.121   6.508  1.6296 -1.1921 -0.3431
62031SOL     OW 3702  11.973  10.924   6.825 -0.1857  0.4671  0.2564
62031SOL    HW1 3703  11.926  10.844   6.848 -1.3881  1.1499  0.2535
62031SOL    HW2 3704  11.922  10.962   6.754  0.9614  0.7106 -0.4542
62032SOL     OW 3705  12.672   3.135   4.597 -0.1187  0.4273  0.4612
62032SOL    HW1 3706  12.760   3.102   4.580  1.3794  3.2653  1.9291
62032SOL    HW2 3707  12.655   3.113   4.688 -1.1757 -0.5077  0.0603
62033SOL     OW 3708   0.895   5.996   3.742  0.2818  0.1069 -0.4569
62033SOL    HW1 3709   0.975   6.022   3.697  1.8101 -1.5647  1.1084
62033SOL    HW2 3710   0.922   5.984   3.833 -2.6738  3.5647  1.1395
62034SOL     OW 3711  13.775  11.410  12.808  0.0273 -0.3405 -0.5130
62034SOL    HW1 3712  13.770  11.319  12.840 -0.6793 -0.3309 -0.5803
62034SOL    HW2 3713  13.686  11.444  12.819  0.5576  0.7466  0.6545
62035SOL     OW 3714  12.951   8.379   1.895 -0.0925  0.2446  0.0937
62035SOL    HW1 3715  12.872   8.402   1.846 -1.1857 -0.8107  1.2752
62035SOL    HW2 3716  12.918   8.350   1.980  1.6961  1.5941  1.3158
62036SOL     OW 3717   0.415   3.330   8.816  0.1490  0.3755  0.1793
62036SOL    HW1 3718   0.482   3.375   8.868  0.6980 -0.1781 -0.0347
62036SOL    HW2 3719   0.340   3.389   8.817  1.0751  1.6326 -0.6799
62037SOL     OW 3720   2.177   8.473   1.397 -0.2335  0.3044 -0.2570
62037SOL    HW1 3721   2.223   8.434   1.322  0.4131 -1.9604  1.2199
62037SOL    HW2 3722   2.105   8.523   1.357  1.3545  0.9823 -2.4561
62038SOL     OW 3723   9.944   0.642  13.691 -0.1050  0.1262 -0.0275
62038SOL    HW1 3724  10.033   0.611  13.707  0.3524  1.2461 -0.2558
62038SOL    HW2 3725   9.945   0.671  13.600  0.1144  2.5950  0.6617
62039SOL     OW 3726   3.382  11.820   9.367  0.6446  0.1403  0.1745
62039SOL    HW1 3727   3.329  11.885   9.320 -0.5140 -1.4280 -0.7811
62039SOL    HW2 3728   3.465  11.817   9.318  0.2193 -0.0102 -0.5506
62040SOL     OW 3729   7.037   7.949   4.749  0.1480 -0.3136 -0.5178
62040SOL    HW1 3730   6.959   7.987   4.789 -0.3008 -0.2482 -1.4365
62040SOL    HW2 3731   7.012   7.859   4.728  0.6732 -0.6236  0.1505
62041SOL     OW 3732  11.864   2.952   6.327  0.0859  0.4690  0.3030
62041SOL    HW1 3733  11.797   3.008   6.366  0.8507  1.2205  0.5880
62041SOL    HW2 3734  11.883   2.994   6.243 -0.6408 -0.4178 -0.3188
62042SOL     OW 3735   2.699  11.239  14.040  0.3253  0.0437 -0.3205
62042SOL    HW1 3736   2.631  11.195  13.990  1.8279 -1.9428 -0.7526
62042SOL    HW2 3737   2.773  11.245  13.980  1.6299 -0.9135  1.1048
62043SOL     OW 3738   3.809   0.659  12.643  0.5068 -0.0876  0.4938
62043SOL    HW1 3739   3.894   0.617  12.628  1.5325  1.9734  0.2162
62043SOL    HW2 3740   3.774   0.614  12.720  2.3542 -0.2736  1.2845
62044SOL     OW 3741  10.848   5.000   1.599  0.4319  0.2285  0.2425
62044SOL    HW1 3742  10.824   5.091   1.612 -0.7943 -0.0993  0.3668
62044SOL    HW2 3743  10.851   4.990   1.503  0.6374  0.4151  0.2292
62045SOL     OW 3744   2.657   4.950  11.533  0.0023  0.4346  0.0077
62045SOL    HW1 3745   2.698   4.872  11.569 -1.2278  0.0004  0.5302
62045SOL    HW2 3746   2.577   4.918  11.490 -1.8157  1.5766  2.2647
62046SOL     OW 3747   8.337   7.589   1.627 -0.3192  0.0680 -0.5301
62046SOL    HW1 3748   8.374   7.577   1.539  1.0646  0.6312 -0.0651
62046SOL    HW2 3749   8.405   7.638   1.674 -2.5379  3.0884 -0.1987
62047SOL     OW 3750   6.195   0.575  11.940  0.0176  0.1488  0.0246
62047SOL    HW1 3751   6.219   0.645  12.001  0.1655 -0.0599  0.2055
62047SOL    HW2 3752   6.103   0.557  11.959  0.4381 -0.9231  1.2011
62048SOL     OW 3753  10.120   4.166   8.039  0.0901  0.0200  0.3934
62048SOL    HW1 3754  10.145   4.256   8.015 -0.8720  0.3581  0.5819
62048SOL    HW2 3755  10.027   4.162   8.017  0.1389 -0.9570  0.3493
62049SOL     OW 3756  13.442  13.207   8.650  0.7046  0.2491  0.1068
62049SOL    HW1 3757  13.378  13.271   8.682  0.5392  0.7013 -1.0756
62049SOL    HW2 3758  13.421  13.196   8.558 -0.2734 -2.7217  0.5814
62050SOL     OW 3759  11.893   9.532   8.713 -0.0637 -0.2905 -0.1773
62050SOL    HW1 3760  11.963   9.477   8.748  0.6786  0.4154 -0.5087
62050SOL    HW2 3761  11.828   9.535   8.783  0.4326 -0.6104  0.3107
62051SOL     OW 3762   5.417  13.567   5.027  0.1168  0.5446 -0.1516
62051SOL    HW1 3763   5.498  13.517   5.038 -0.2677 -0.1490 -0.4016
62051SOL    HW2 3764   5.373  13.560   5.111  0.0369  0.3990 -0.2037
62052SOL     OW 3765   7.229  10.358   2.959  0.2341  0.3517 -0.2517
62052SOL    HW1 3766   7.143  10.395   2.938  0.0470 -0.6496 -1.3667
62052SOL    HW2 3767   7.242  10.379   3.051 -2.1437 -1.2416  0.5480
62053SOL     OW 3768   3.657   0.733   0.955  0.3167 -0.1869  0.4593
62053SOL    HW1 3769   3.704   0.816   0.965 -1.0534  0.7717 -0.8140
62053SOL    HW2 3770   3.596   0.748   0.884 -0.4889 -2.0753  0.7022
62054SOL     OW 3771   8.379  10.475   3.740  0.1664  0.2970  0.3291
62054SOL    HW1 3772   8.330  10.481   3.822  1.7534  0.5071  1.3070
62054SOL    HW2 3773   8.339  10.541   3.683 -0.1419  1.0540  1.3932
62055SOL     OW 3774   9.777   5.441  14.039 -0.3142  0.0509 -0.3845
62055SOL    HW1 3775   9.719   5.393  13.979 -1.9891  2.0654 -0.5104
62055SOL    HW2 3776   9.781   5.386  14.117 -1.9021 -0.4921 -0.6335
62056SOL     OW 3777   1.411   8.649   8.544 -0.0785 -0.3681 -0.4697
62056SOL    HW1 3778   1.497   8.670   8.508 -0.1508  2.3483  0.6549
62056SOL    HW2 3779   1.351   8.655   8.469  0.1756  2.2556 -0.5744
62057SOL     OW 3780   2.630   1.117   4.173  0.1344  0.5314  0.3893
62057SOL    HW1 3781   2.635   1.208   4.145  0.9600 -0.3301 -2.6489
62057SOL    HW2 3782   2.722   1.092   4.189  0.3390 -0.5976 -2.1078
62058SOL     OW 3783   6.027   4.456   3.222  0.2533  0.0306  0.5097
62058SOL    HW1 3784   5.988   4.369   3.212  0.3271  0.0601 -0.0479
62058SOL    HW2 3785   6.055   4.481   3.134 -0.1116  0.7861  0.6018
62059SOL     OW 3786   7.559  14.058   8.136  0.2127  0.4275 -0.2104
62059SOL    HW1 3787   7.644  14.023   8.110  0.3283  0.8037 -0.3530
62059SOL    HW2 3788   7.501  13.982   8.138  0.3478  0.2905 -0.9675
62060SOL     OW 3789   5.773   4.721  11.628  0.6936 -0.1451 -0.4221
62060SOL    HW1 3790   5.833   4.665  11.678  1.2930  2.2249  1.7147
62060SOL    HW2 3791   5.746   4.789  11.689 -2.1875  0.3872 -2.0908
62061SOL     OW 3792   8.041   9.439   1.508  0.3136 -0.1313 -0.1789
62061SOL    HW1 3793   8.114   9.425   1.568 -0.2536 -0.7088  0.3921
62061SOL    HW2 3794   7.973   9.379   1.538 -1.3794  2.1855  0.9253
62062SOL     OW 3795   6.128   1.348   3.319 -0.3743 -0.1902  0.2496
62062SOL    HW1 3796   6.075   1.365   3.241  1.3925  0.8642 -0.8029
62062SOL    HW2 3797   6.171   1.264   3.301 -1.8001 -1.1645  1.2070
62063SOL     OW 3798   9.523   0.906  12.124 -0.0677  0.0191  0.5366
62063SOL    HW1 3799   9.428   0.893  12.120 -0.1553  0.4565  1.0776
62063SOL    HW2 3800   9.536   0.969  12.195  0.6865 -0.6079  0.9738
62064SOL     OW 3801  13.844   1.038   5.590 -0.2162  0.1763 -0.0322
62064SOL    HW1 3802  13.807   1.094   5.658  0.9450  1.6228 -0.5285
62064SOL    HW2 3803  13.857   0.954   5.632 -1.4834  0.4285  0.9096
62065SOL     OW 3804  11.145  13.496   0.808  0.2676 -0.4477  0.1603
62065SOL    HW1 3805  11.146  13.478   0.902 -0.2086  1.0841  0.4931
62065SOL    HW2 3806  11.201  13.429   0.770 -0.0509 -1.5000  1.4586
62066SOL     OW 3807   7.154   9.292   1.683 -0.1707  0.1148  0.0781
62066SOL    HW1 3808   7.247   9.283   1.706 -0.3840 -0.7026  0.6753
62066SOL    HW2 3809   7.112   9.319   1.765 -0.2274  2.2251 -0.5965
62067SOL     OW 3810   6.537  12.746  11.799 -0.2884 -0.3078  0.0444
62067SOL    HW1 3811   6.491  12.788  11.872  0.3865 -0.3562  0.5019
62067SOL    HW2 3812   6.616  12.710  11.838 -0.5946 -1.5549 -0.4399
62068SOL     OW 3813  11.457   1.717   3.615 -0.1165  0.3881 -0.0703
62068SOL    HW1 3814  11.537   1.744   3.660 -0.9613  0.1941  1.5941
62068SOL    HW2 3815  11.485   1.648   3.556  1.2156  1.4531 -0.7474
62069SOL     OW 3816   2.353   6.101  13.187 -0.5720 -0.5121  0.1286
62069SOL    HW1 3817   2.398   6.185  13.174 -0.3570 -0.5841  0.3714
62069SOL    HW2 3818   2.342   6.065  13.099 -0.7217 -0.2005  0.0184
62070SOL     OW 3819   6.889   0.796  11.439  0.3420 -0.1210 -0.3045
62070SOL    HW1 3820   6.940   0.767  11.363  0.5381  2.1929 -1.1400
62070SOL    HW2 3821   6.951   0.844  11.493 -0.4140  0.7142 -0.1517
62071SOL     OW 3822   7.338   8.973   5.794 -0.8752 -0.5488 -0.1435
62071SOL    HW1 3823   7.392   9.048   5.818 -0.2845 -1.1209  0.3363
62071SOL    HW2 3824   7.357   8.960   5.701 -0.7896 -0.2638 -0.1687
62072SOL     OW 3825  13.165   9.581   5.624  0.0891 -0.4520 -0.2488
62072SOL    HW1 3826  13.215   9.591   5.705 -0.0803 -0.4472 -0.1446
62072SOL    HW2 3827  13.124   9.667   5.610 -0.7425 -0.7563  0.2344
62073SOL     OW 3828   8.199   9.922   3.019  0.1512 -0.0258  0.1010
62073SOL    HW1 3829   8.194  10.018   3.015 -0.6026 -0.0866 -1.2517
62073SOL    HW2 3830   8.275   9.904   3.074  0.5969  1.3540 -0.0129
62074SOL     OW 3831   8.443   6.398   0.560 -0.2344 -0.0878 -0.0357
62074SOL    HW1 3832   8.374   6.418   0.496  1.6979  0.7841 -1.9896
62074SOL    HW2 3833   8.503   6.473   0.554  1.0916 -1.0017  1.2964
62075SOL     OW 3834  13.821   0.215   0.949  0.7140 -0.2194 -0.2512
62075SOL    HW1 3835  13.884   0.206   0.878  1.2991  1.9109 -0.0613
62075SOL    HW2 3836  13.846   0.296   0.993 -0.6448 -0.6367  1.3809
62076SOL     OW 3837  12.867  12.191   1.095  0.2341  0.4582 -0.5175
62076SOL    HW1 3838  12.797  12.185   1.030  0.6465 -0.6984 -0.8752
62076SOL    HW2 3839  12.826  12.237   1.169 -1.0719 -0.6135 -0.5254
62077SOL     OW 3840  10.257   8.999  13.613 -0.1493 -0.0194  0.0430
62077SOL    HW1 3841  10.252   8.965  13.524  2.4284 -1.1042  0.2421
62077SOL    HW2 3842  10.165   9.010  13.640 -1.1777 -4.2086 -1.0484
62078SOL     OW 3843   8.993  12.750   7.813 -0.0575 -0.3127  0.6829
62078SOL    HW1 3844   8.966  12.714   7.729  0.4933  0.7666  0.0181
62078SOL    HW2 3845   8.966  12.841   7.810  0.4256 -0.1332  1.4718
62079SOL     OW 3846   7.980  11.210   9.170  0.1986  0.1180  0.2841
62079SOL    HW1 3847   7.979  11.131   9.116 -0.1193  1.0881 -1.2005
62079SOL    HW2 3848   8.059  11.201   9.224 -0.4607 -1.7281  0.9946
62080SOL     OW 3849  13.776   7.772  11.478 -0.0531 -0.0082 -0.0059
62080SOL    HW1 3850  13.768   7.761  11.573 -1.7239 -0.8563 -0.2197
62080SOL    HW2 3851  13.839   7.705  11.451  2.3275  1.7621  0.7385
62081SOL     OW 3852  10.764   9.516   0.542 -0.1041 -0.4187  0.1199
62081SOL    HW1 3853  10.837   9.481   0.491 -0.6913 -2.9772  0.8753
62081SOL    HW2 3854  10.687   9.492   0.491 -0.5520  4.1288 -1.7973
62082SOL     OW 3855   6.686   5.884   2.088 -0.0936  0.1013  0.3936
62082SOL    HW1 3856   6.770   5.896   2.133 -0.3533  0.9012  0.6737
62082SOL    HW2 3857   6.621   5.921   2.148 -0.5175  0.6031 -0.3617
62083SOL     OW 3858   9.341  10.993   3.613 -0.4920 -0.4740 -0.2177
62083SOL    HW1 3859   9.426  10.976   3.573 -1.5402 -1.3681 -2.2139
62083SOL    HW2 3860   9.319  10.912   3.658  0.0567  0.0560  1.0594
62084SOL     OW 3861   0.693   0.088   5.284 -0.0084  0.2629 -0.1012
62084SOL    HW1 3862   0.696   0.045   5.370 -1.5041  0.6063  0.1603
62084SOL    HW2 3863   0.719   0.179   5.302 -1.6970  0.7092  0.2980
62085SOL     OW 3864  10.216   6.642   6.936 -0.1012  0.4329 -0.0422
62085SOL    HW1 3865  10.260   6.668   7.017 -0.0326  0.2216 -0.0114
62085SOL    HW2 3866  10.169   6.562   6.959 -2.9467  2.2068  0.7575
62086SOL     OW 3867  13.238   6.894   7.545  0.1551 -0.0044 -0.4760
62086SOL    HW1 3868  13.213   6.985   7.562 -0.7332 -0.3494  0.1842
62086SOL    HW2 3869  13.245   6.855   7.632  0.7116 -0.5211 -0.7473
62087SOL     OW 3870   4.611   0.724  12.392  0.0668  0.0614 -0.1080
62087SOL    HW1 3871   4.644   0.760  12.474  0.5223 -1.6277  0.4849
62087SOL    HW2 3872   4.673   0.755  12.326  0.8147 -0.1501  0.4774
62088SOL     OW 3873  11.521   2.545   4.484  0.4743  0.0025 -0.0266
62088SOL    HW1 3874  11.565   2.470   4.524 -1.2418 -0.0532  1.9256
62088SOL    HW2 3875  11.536   2.617   4.546 -0.1565  0.5713 -0.5183
62089SOL     OW 3876   8.151   0.516   7.752  0.5996 -0.1408  0.0049
62089SOL    HW1 3877   8.059   0.542   7.746  0.3877  0.1262  2.9876
62089SOL    HW2 3878   8.199   0.593   7.722 -0.1000 -0.3537 -1.7754
62090SOL     OW 3879   1.283   9.974  13.941  0.1852 -0.1724  0.4957
62090SOL    HW1 3880   1.272  10.069  13.947  0.7820 -0.1067  0.5938
62090SOL    HW2 3881   1.378   9.960  13.946  0.1123 -0.7633  0.3212
62091SOL     OW 3882   5.752   6.705  13.988 -0.1438  0.0742 -0.3049
62091SOL    HW1 3883   5.705   6.649  13.926 -1.5455 -0.2565  0.9907
62091SOL    HW2 3884   5.771   6.648  14.062 -0.6230  1.0174  0.5716
62092SOL     OW 3885  13.533   0.895   1.898 -0.6764  0.2106 -0.4151
62092SOL    HW1 3886  13.610   0.950   1.903 -0.1436 -0.3094 -2.0601
62092SOL    HW2 3887  13.473   0.943   1.841 -0.5261 -0.5034 -1.2011
62093SOL     OW 3888   2.575   3.018   7.308 -0.0613  0.3225  0.0327
62093SOL    HW1 3889   2.610   2.963   7.378 -0.6211 -0.0045  0.0621
62093SOL    HW2 3890   2.607   3.106   7.329  0.1355  0.1542  0.4592
62094SOL     OW 3891   3.761   8.624  12.035  0.3751  0.1803 -0.1026
62094SOL    HW1 3892   3.713   8.660  12.109  0.3048 -1.1871  0.5540
62094SOL    HW2 3893   3.720   8.663  11.958 -1.8201 -0.9078  0.4387
62095SOL     OW 3894   6.729   8.849   8.456  0.1666  0.3951 -0.0347
62095SOL    HW1 3895   6.744   8.938   8.423  0.0881  0.9310  1.3262
62095SOL    HW2 3896   6.801   8.834   8.518 -0.5268 -0.0080  0.6870
62096SOL     OW 3897  12.528   4.228   7.445 -0.0116 -0.1472 -0.1409
62096SOL    HW1 3898  12.455   4.203   7.503  0.2115  0.7360  0.5266
62096SOL    HW2 3899  12.556   4.145   7.406 -0.2562 -0.7475  0.9116
62097SOL     OW 3900   1.852   5.338   7.893  0.1924 -0.3582  0.0215
62097SOL    HW1 3901   1.910   5.334   7.817 -0.1106  0.9651 -0.3051
62097SOL    HW2 3902   1.808   5.423   7.885 -3.1662 -2.0315 -0.7287
62098SOL     OW 3903   6.568   5.381  13.969  0.5835  0.4576  0.2170
62098SOL    HW1 3904   6.627   5.455  13.960  0.7039  0.4392  0.8128
62098SOL    HW2 3905   6.510   5.405  14.042 -0.1787  0.4975 -0.3905
62099SOL     OW 3906  11.820   2.485   4.797 -0.2174  0.4494  0.3936
62099SOL    HW1 3907  11.861   2.493   4.711 -1.0354  0.8599  0.0287
62099SOL    HW2 3908  11.761   2.410   4.788  1.4782 -1.0799  1.3546
62100SOL     OW 3909   2.936   8.090   7.833 -0.0111  0.4717 -0.0988
62100SOL    HW1 3910   2.921   8.183   7.822  0.2331  0.3917 -1.2075
62100SOL    HW2 3911   3.002   8.068   7.767  1.0521 -0.2028  1.1438
62101SOL     OW 3912   0.267  12.711   4.291 -0.0035 -0.3653  0.1540
62101SOL    HW1 3913   0.343  12.763   4.264  0.4999 -0.2590  1.6670
62101SOL    HW2 3914   0.196  12.774   4.295 -0.4762 -0.6560 -2.2992
62102SOL     OW 3915  11.452  14.059   8.372 -0.3207  0.0935 -0.2189
62102SOL    HW1 3916  11.486  14.040   8.285  1.1339 -0.1860  0.3740
62102SOL    HW2 3917  11.458  13.975   8.419 -1.1309  0.2273  0.1392
62103SOL     OW 3918  12.301   7.793   1.624 -0.8451 -0.2738 -0.2591
62103SOL    HW1 3919  12.277   7.881   1.597  0.1685  0.0000 -0.2974
62103SOL    HW2 3920  12.361   7.762   1.556 -1.3927 -1.0899 -0.3781
62104SOL     OW 3921   7.446   4.892   5.250 -0.4507 -0.3828 -0.1461
62104SOL    HW1 3922   7.399   4.892   5.333  1.9700 -0.7978  1.3161
62104SOL    HW2 3923   7.538   4.896   5.274  0.5708 -3.7946 -2.6356
62105SOL     OW 3924  13.612   0.236  12.570  0.4983  0.2567  0.3890
62105SOL    HW1 3925  13.562   0.184  12.634  1.3911 -0.1774  0.7433
62105SOL    HW2 3926  13.544   0.275  12.514 -0.2441 -0.3449  0.8398
62106SOL     OW 3927   8.316   5.598   2.251 -0.0686  0.6460 -0.6614
62106SOL    HW1 3928   8.379   5.527   2.262  0.8886  1.5660  0.0089
62106SOL    HW2 3929   8.258   5.591   2.327  0.3813  0.9231 -0.2876
62107SOL     OW 3930   2.674  11.206   2.897  0.1719 -0.0212  0.2428
62107SOL    HW1 3931   2.731  11.284   2.902  0.8093 -0.4754  0.2444
62107SOL    HW2 3932   2.685  11.163   2.982  0.6655 -0.6826 -0.1487
62108SOL     OW 3933   3.752   5.753   8.393 -0.2992  0.0706  0.0824
62108SOL    HW1 3934   3.679   5.814   8.407 -1.2366 -0.9868 -0.0172
62108SOL    HW2 3935   3.759   5.706   8.476  0.8460  0.7301  0.3787
62109SOL     OW 3936   4.612   9.830  13.896 -0.3281  0.1418  0.7109
62109SOL    HW1 3937   4.620   9.789  13.982  1.3622 -0.0705  0.4741
62109SOL    HW2 3938   4.702   9.843  13.867 -0.8609  1.3646 -0.4949
62110SOL     OW 3939   0.241  12.755   3.489  0.0551  0.0119  0.1991
62110SOL    HW1 3940   0.299  12.685   3.519  0.1128 -0.2075 -0.4272
62110SOL    HW2 3941   0.187  12.715   3.421  1.0367  0.9285 -1.1597
62111SOL     OW 3942   0.242   8.506  12.098  0.4730  0.1933 -0.0421
62111SOL    HW1 3943   0.222   8.581  12.044 -1.8107 -0.8772 -0.8043
62111SOL    HW2 3944   0.203   8.432  12.052  1.8075 -1.3387  1.1602
62112SOL     OW 3945  11.375   8.297  11.152  0.3167 -0.2666 -0.3386
62112SOL    HW1 3946  11.296   8.289  11.204 -0.4526 -2.2143 -1.7033
62112SOL    HW2 3947  11.344   8.319  11.064  1.4535  0.9226 -0.4794
62113SOL     OW 3948   5.520   0.035   5.224  0.0051  0.3701 -0.3221
62113SOL    HW1 3949   5.596   0.092   5.227  0.3620  0.1300 -2.5615
62113SOL    HW2 3950   5.551  -0.048   5.262 -0.0925  1.1744  1.5955
62114SOL     OW 3951   4.647   0.654   9.898  0.4627 -0.3103  0.0530
62114SOL    HW1 3952   4.740   0.669   9.914  0.2954  0.5529  0.2379
62114SOL    HW2 3953   4.637   0.558   9.902  0.6763 -0.3036  3.7795
62115SOL     OW 3954   5.863  12.172  11.486 -0.0778 -0.5149  0.1925
62115SOL    HW1 3955   5.915  12.135  11.415  1.4814  0.9159  0.5259
62115SOL    HW2 3956   5.858  12.266  11.466 -1.5253 -0.4276  0.8183
62116SOL     OW 3957   1.186  11.156  10.547 -0.4443  0.5715 -0.4672
62116SOL    HW1 3958   1.168  11.168  10.453 -0.0425  0.9857 -0.4946
62116SOL    HW2 3959   1.246  11.227  10.569  0.7161 -0.4453 -0.2516
62117SOL     OW 3960   3.352   3.798  12.299 -0.5830 -0.1766 -0.0731
62117SOL    HW1 3961   3.415   3.763  12.237  1.5447  2.1907  0.5425
62117SOL    HW2 3962   3.351   3.735  12.371 -1.0464 -1.6122 -1.3079
62118SOL     OW 3963  11.183   6.829   5.594  0.6727  0.3705  0.2700
62118SOL    HW1 3964  11.266   6.782   5.590  1.4224  1.6479  0.1343
62118SOL    HW2 3965  11.144   6.816   5.508  1.1760  0.5175  0.0157
62119SOL     OW 3966  12.484   9.303   2.037 -0.5983 -0.1257  0.7523
62119SOL    HW1 3967  12.558   9.273   1.984 -0.4760  0.6748  0.4518
62119SOL    HW2 3968  12.407   9.264   1.995 -0.4501  0.0295  0.3263
62120SOL     OW 3969  13.235  12.476   2.250 -0.2745 -0.3254 -0.8288
62120SOL    HW1 3970  13.309  12.422   2.276 -1.2542 -1.4697 -0.2961
62120SOL    HW2 3971  13.173  12.469   2.323  0.1215  2.6813 -0.1105
62121SOL     OW 3972   5.424   7.960  10.991 -0.2428 -0.4412  0.0960
62121SOL    HW1 3973   5.392   7.879  11.031  1.3394 -2.2554 -2.0312
62121SOL    HW2 3974   5.401   7.952  10.898  0.8332  1.1015 -0.3532
62122SOL     OW 3975   9.568  14.007  12.226  0.1703 -0.1990 -0.3962
62122SOL    HW1 3976   9.527  14.024  12.310  1.4934  0.1478  0.2084
62122SOL    HW2 3977   9.500  13.966  12.173 -1.4523  1.8587 -0.0224
62123SOL     OW 3978   4.695   8.296   7.112  0.3485  0.3447 -0.2184
62123SOL    HW1 3979   4.685   8.376   7.061 -2.3099 -0.0397 -0.4514
62123SOL    HW2 3980   4.679   8.322   7.202  1.5728  0.4131 -0.0077
62124SOL     OW 3981   8.681  11.585   3.555 -0.1645 -0.2904  0.7730
62124SOL    HW1 3982   8.697  11.671   3.516  0.0614 -0.9102 -0.5552
62124SOL    HW2 3983   8.586  11.575   3.554 -0.1594 -0.2952  0.4007
62125SOL     OW 3984   0.716   8.754   8.844  0.4169  0.0454 -0.0269
62125SOL    HW1 3985   0.770   8.802   8.782  0.9609 -0.1508  0.2837
62125SOL    HW2 3986   0.667   8.692   8.791  1.0293 -0.2607 -0.2413
62126SOL     OW 3987  12.635  12.640  11.331 -0.1995  0.6464  0.5886
62126SOL    HW1 3988  12.627  12.599  11.245  0.4665 -0.2895  0.9471
62126SOL    HW2 3989  12.614  12.570  11.393  1.8070  0.5449  1.2440
62127SOL     OW 3990   0.559   6.502   6.418  0.3320  0.4557  0.0884
62127SOL    HW1 3991   0.476   6.491   6.464  1.5241  1.1933  2.5622
62127SOL    HW2 3992   0.548   6.452   6.337 -1.4487 -2.0454  1.7247
62128SOL     OW 3993   8.303   5.960  12.009 -0.0382 -0.0686 -0.2850
62128SOL    HW1 3994   8.230   6.003  11.964 -0.0052 -0.7584 -1.0220
62128SOL    HW2 3995   8.286   5.976  12.102 -0.6830  0.4770 -0.4836
62129SOL     OW 3996   0.854   0.054   7.600 -0.1425  0.2967 -0.4741
62129SOL    HW1 3997   0.929   0.070   7.657 -0.9214  1.1722  0.3394
62129SOL    HW2 3998   0.886   0.075   7.512  1.5751 -2.6475 -0.6725
62130SOL     OW 3999   8.905   0.500   8.542  0.8944  0.2220  0.2006
62130SOL    HW1 4000   8.849   0.558   8.491  0.7229 -0.3627 -0.2879
62130SOL    HW2 4001   8.949   0.445   8.476 -2.7813 -3.8266  0.6802
62131SOL     OW 4002   1.294   6.733  13.838  0.0834 -0.1236 -0.1247
62131SOL    HW1 4003   1.211   6.765  13.803 -1.0891 -1.3711  1.3773
62131SOL    HW2 4004   1.289   6.638  13.829  1.1445 -0.2434  0.4321
62132SOL     OW 4005   6.822  13.479   3.705  0.0189 -0.3589 -0.2555
62132SOL    HW1 4006   6.810  13.468   3.800 -0.5441 -0.2693 -0.3173
62132SOL    HW2 4007   6.803  13.571   3.689 -2.1237 -0.8571 -0.7933
62133SOL     OW 4008  13.878   4.564   6.667 -0.5237 -0.8900 -0.5899
62133SOL    HW1 4009  13.971   4.543   6.672 -0.0888  0.6821 -1.4362
62133SOL    HW2 4010  13.840   4.524   6.746  1.2074  0.0240  0.7869
62134SOL     OW 4011   3.615   7.319   6.587  0.2712 -0.2454 -0.2690
62134SOL    HW1 4012   3.666   7.383   6.538  0.3078 -0.7365 -0.8909
62134SOL    HW2 4013   3.530   7.317   6.543  0.1907 -0.4552 -0.1096
62135SOL     OW 4014  12.169   4.008   5.721 -0.4704 -0.1348  0.3313
62135SOL    HW1 4015  12.178   4.069   5.648  1.6525  0.8916  1.3537
62135SOL    HW2 4016  12.257   3.970   5.731 -0.8428 -0.6204  2.0412
62136SOL     OW 4017  12.453   3.187  13.824  0.0401 -0.0545  0.8016
62136SOL    HW1 4018  12.386   3.223  13.766 -0.1365  0.4401  1.2942
62136SOL    HW2 4019  12.414   3.107  13.859 -0.6359  0.6304  1.6877
62137SOL     OW 4020   7.861   7.626   3.810 -0.0480  0.1006  0.8992
62137SOL    HW1 4021   7.823   7.614   3.897 -0.8980  1.7889  0.8027
62137SOL    HW2 4022   7.808   7.694   3.770  1.1035  0.2325 -0.4913
62138SOL     OW 4023   3.102  10.133   2.976  0.0736 -0.2359  0.2948
62138SOL    HW1 4024   3.026  10.116   3.031  0.3463  3.3509  2.1021
62138SOL    HW2 4025   3.065  10.163   2.893 -0.4749 -0.4576  0.4547
62139SOL     OW 4026   0.728   5.672   4.231  0.4608 -0.3567 -0.7270
62139SOL    HW1 4027   0.663   5.633   4.173  0.3021  0.6899 -1.2780
62139SOL    HW2 4028   0.807   5.678   4.177 -0.1328  2.1301 -1.4281
62140SOL     OW 4029   5.447  13.752  10.193 -0.1928 -0.1554  0.5974
62140SOL    HW1 4030   5.474  13.794  10.112 -1.9476  0.6194  0.3779
62140SOL    HW2 4031   5.497  13.796  10.261 -0.2066  0.6034  0.1235
62141SOL     OW 4032   2.245  11.434  12.414 -0.0818 -0.6568 -0.0939
62141SOL    HW1 4033   2.224  11.431  12.320  1.1666 -0.9852 -0.3888
62141SOL    HW2 4034   2.189  11.503  12.449 -0.7147 -0.6707 -1.0395
62142SOL     OW 4035   0.703   7.222   1.820  0.1659  0.0740  0.9291
62142SOL    HW1 4036   0.768   7.251   1.884  0.0607 -0.2327  1.1790
62142SOL    HW2 4037   0.631   7.187   1.873 -0.0927  0.1797  0.6497
62143SOL     OW 4038   2.085   0.534   0.760  0.0386 -0.3465 -0.1250
62143SOL    HW1 4039   2.118   0.579   0.837  0.5420 -0.1936 -0.4316
62143SOL    HW2 4040   2.152   0.546   0.693 -1.2463  1.2147 -1.2211
62144SOL     OW 4041   1.282  11.190   9.853  0.0500  0.0068  0.3090
62144SOL    HW1 4042   1.261  11.198   9.760  1.2144 -0.1073  0.0139
62144SOL    HW2 4043   1.307  11.098   9.865 -1.8188 -0.4447  1.1411
62145SOL     OW 4044  12.835   6.459   5.329  0.1101  0.0194 -0.5454
62145SOL    HW1 4045  12.816   6.535   5.273  0.3138 -0.4631 -1.2905
62145SOL    HW2 4046  12.752   6.411   5.332  0.1176  0.0098 -0.4983
62146SOL     OW 4047   1.532   9.539  14.002  0.4177  0.1216 -0.1308
62146SOL    HW1 4048   1.469   9.532  13.931  0.2490 -1.4516  0.1309
62146SOL    HW2 4049   1.505   9.616  14.051 -0.3714  0.3465 -0.8964
62147SOL     OW 4050   3.755   7.180   2.095  0.0625  0.2041 -0.3702
62147SOL    HW1 4051   3.685   7.116   2.079  0.1894  0.0189 -0.1929
62147SOL    HW2 4052   3.713   7.265   2.083 -0.2272  0.0977 -0.1344
62148SOL     OW 4053   7.627   3.937   6.103  0.5335  0.8149  0.1420
62148SOL    HW1 4054   7.596   4.008   6.047  0.8222  1.1116  0.3535
62148SOL    HW2 4055   7.619   3.858   6.048  0.9535  1.1191 -0.3757
62149SOL     OW 4056   7.694   8.820   6.157  0.0333 -0.0718 -0.5062
62149SOL    HW1 4057   7.725   8.730   6.158  0.3912  0.0121 -1.6800
62149SOL    HW2 4058   7.610   8.816   6.112  0.7088  0.3394 -1.8610
62150SOL     OW 4059   4.865  11.536  10.141  0.1829 -0.0532  0.3705
62150SOL    HW1 4060   4.874  11.507  10.050 -2.0901  2.0835 -0.6412
62150SOL    HW2 4061   4.787  11.490  10.172 -0.0074  0.4834  0.6868
62151SOL     OW 4062  11.283   0.893   4.467 -0.4835 -0.3174  0.3932
62151SOL    HW1 4063  11.198   0.852   4.479 -0.7354 -0.0988 -0.5619
62151SOL    HW2 4064  11.330   0.876   4.548 -1.1123 -1.2203  0.5743
62152SOL     OW 4065   4.991  13.916   6.622 -0.0597 -0.3575 -0.4929
62152SOL    HW1 4066   4.927  13.848   6.643  0.1112 -0.1603  0.7599
62152SOL    HW2 4067   5.076  13.875   6.640  0.1589 -0.4458 -1.6450
62153SOL     OW 4068   7.440  14.064   3.860 -0.2133 -0.1916  0.2690
62153SOL    HW1 4069   7.397  14.011   3.793 -2.3825  3.0982 -1.1879
62153SOL    HW2 4070   7.373  14.076   3.928  0.3587  0.4201  0.7390
62154SOL     OW 4071  10.786   3.604   8.893  0.2569  0.2005 -0.8143
62154SOL    HW1 4072  10.720   3.648   8.946  3.3272  2.7044  1.3216
62154SOL    HW2 4073  10.815   3.530   8.946 -0.7924 -0.9290 -1.7694
62155SOL     OW 4074   9.815  12.402  12.007 -0.3417 -0.0989  0.2333
62155SOL    HW1 4075   9.797  12.488  11.970  0.7916  0.0242 -0.0870
62155SOL    HW2 4076   9.813  12.416  12.102  1.4186  0.6836  0.2048
62156SOL     OW 4077  10.092   4.046  13.723 -0.0617  0.0938 -0.6541
62156SOL    HW1 4078  10.110   3.984  13.652 -0.3409 -0.3138 -0.3746
62156SOL    HW2 4079  10.137   4.010  13.799 -0.1804  0.2643 -0.5010
62157SOL     OW 4080   0.207   6.771   8.984 -0.4761 -0.0872  0.7632
62157SOL    HW1 4081   0.213   6.800   9.075  0.4990  1.2432  0.3130
62157SOL    HW2 4082   0.284   6.715   8.972  0.2757  1.0052  0.3530
62158SOL     OW 4083   8.749  13.756   7.394 -0.0002  0.0457 -0.3474
62158SOL    HW1 4084   8.771  13.781   7.304  0.4466  0.4146 -0.1389
62158SOL    HW2 4085   8.721  13.837   7.436 -0.9376 -0.2540 -0.3548
62159SOL     OW 4086  10.882   0.373  11.073  0.5199  0.0129  0.7293
62159SOL    HW1 4087  10.934   0.436  11.123 -1.7749  0.5403  2.5930
62159SOL    HW2 4088  10.868   0.416  10.988  0.1894  1.3750  1.4592
62160SOL     OW 4089   1.776   8.867   6.920  0.0394 -0.1528  0.1858
62160SOL    HW1 4090   1.758   8.942   6.862  0.2283 -1.0756 -1.1171
62160SOL    HW2 4091   1.728   8.794   6.879 -0.8053 -0.5815  1.8714
62161SOL     OW 4092  12.193   1.319  11.674  0.0865  0.0812  0.0881
62161SOL    HW1 4093  12.157   1.230  11.676  0.9181 -0.2499  1.2018
62161SOL    HW2 4094  12.169   1.357  11.758  2.8776 -0.4041  1.1876
62162SOL     OW 4095  12.513  12.768   2.612 -0.1234 -0.5149 -0.2697
62162SOL    HW1 4096  12.423  12.800   2.618  0.0683  0.1166 -0.7335
62162SOL    HW2 4097  12.550  12.813   2.536  1.2096  0.8055  1.0856
62163SOL     OW 4098   2.426   8.969   5.695 -0.2823 -0.4907  0.0075
62163SOL    HW1 4099   2.519   8.988   5.685 -0.4441  0.7630  0.6644
62163SOL    HW2 4100   2.387   8.994   5.610 -0.0990 -0.4620 -0.0684
62164SOL     OW 4101   0.888   6.407  12.329  0.1485  0.2868 -0.1945
62164SOL    HW1 4102   0.870   6.471  12.397  3.2101  0.2903  0.7259
62164SOL    HW2 4103   0.885   6.322  12.374  0.2343  0.1258 -0.4853
62165SOL     OW 4104   3.055   4.885   8.564 -0.4629 -0.4123 -0.4820
62165SOL    HW1 4105   3.096   4.959   8.609 -1.3948  1.0849 -1.9690
62165SOL    HW2 4106   2.997   4.847   8.629  1.8446 -1.4622  1.1024
62166SOL     OW 4107   2.873   3.565   8.997 -0.0841  0.0942  0.1983
62166SOL    HW1 4108   2.921   3.596   9.074 -2.0658  0.0926  1.5080
62166SOL    HW2 4109   2.843   3.478   9.021 -1.6928  0.5384 -0.1022
62167SOL     OW 4110   3.302   9.192   1.182 -0.3614 -0.3553  0.2483
62167SOL    HW1 4111   3.233   9.258   1.184 -0.6497 -0.6327 -0.3592
62167SOL    HW2 4112   3.321   9.174   1.274  0.1446  1.0057  0.4322
62168SOL     OW 4113  11.712   1.296   7.117  0.4301  0.0250  0.1651
62168SOL    HW1 4114  11.793   1.347   7.122  1.0688 -1.0116  1.0303
62168SOL    HW2 4115  11.739   1.213   7.078 -0.6894  0.5014 -1.7252
62169SOL     OW 4116   1.600  12.932   3.255  0.0429  0.0765  0.0527
62169SOL    HW1 4117   1.605  13.013   3.205 -1.1318 -0.8831 -1.7120
62169SOL    HW2 4118   1.692  12.909   3.273  0.6993 -0.4789 -3.3245
62170SOL     OW 4119  12.083   4.130   7.382  0.3201  0.2707  0.6208
62170SOL    HW1 4120  12.038   4.199   7.333 -0.3193 -1.0796 -0.7740
62170SOL    HW2 4121  12.014   4.088   7.433  0.6692  0.5140  1.2998
62171SOL     OW 4122   4.105   6.720  11.799  0.0964 -0.1106  0.3140
62171SOL    HW1 4123   4.053   6.642  11.781  0.6108 -0.5977  0.8884
62171SOL    HW2 4124   4.097   6.774  11.720  0.6050 -1.2244 -0.5114
62172SOL     OW 4125  13.596   7.885   7.367 -0.2798 -0.2496 -0.3621
62172SOL    HW1 4126  13.657   7.952   7.398 -1.2190  0.7040 -0.5007
62172SOL    HW2 4127  13.635   7.802   7.394  0.2191  0.4223  1.0774
62173SOL     OW 4128   0.246   7.991   7.365 -0.0514  0.4756  0.1193
62173SOL    HW1 4129   0.179   7.965   7.429  0.2547 -0.1803  0.1873
62173SOL    HW2 4130   0.236   7.927   7.294  1.3074 -0.4198  0.6834
62174SOL     OW 4131  11.576   0.735  13.335  0.1930  0.2029  0.5787
62174SOL    HW1 4132  11.591   0.799  13.404  1.6032  2.3680 -1.5324
62174SOL    HW2 4133  11.662   0.695  13.320  0.1536  0.4754 -0.5174
62175SOL     OW 4134   5.997   0.858   8.020 -0.2420 -0.1786  0.0546
62175SOL    HW1 4135   6.035   0.917   7.955 -1.6237  2.6944  1.7000
62175SOL    HW2 4136   5.903   0.859   8.001 -0.4722 -0.5827  1.1271
62176SOL     OW 4137  11.116   5.357   0.328 -0.5948 -0.6735 -0.1099
62176SOL    HW1 4138  11.054   5.352   0.255 -1.1885  0.0184  0.3322
62176SOL    HW2 4139  11.062   5.381   0.404  0.3547  1.2324  0.0271
62177SOL     OW 4140   0.625   0.383   8.132 -0.7612 -0.5281 -0.1582
62177SOL    HW1 4141   0.667   0.467   8.150 -0.6477 -0.9549  1.7847
62177SOL    HW2 4142   0.580   0.361   8.214  0.1048 -2.8601 -0.2506
62178SOL     OW 4143  12.748  12.879   7.941 -0.1502 -0.1151 -0.4224
62178SOL    HW1 4144  12.719  12.896   7.851  1.4311 -0.3175 -1.0105
62178SOL    HW2 4145  12.722  12.788   7.957 -0.6071 -0.0203 -0.6031
62179SOL     OW 4146   4.610   7.163  13.425 -0.1688  0.4143  0.0138
62179SOL    HW1 4147   4.690   7.200  13.389 -0.1813  1.4522  1.0100
62179SOL    HW2 4148   4.633   7.073  13.447  0.2667  0.2322 -1.1363
62180SOL     OW 4149  12.128   2.905   3.349 -0.3802  0.2758 -0.5891
62180SOL    HW1 4150  12.047   2.953   3.365 -1.2537 -0.7152 -1.8786
62180SOL    HW2 4151  12.159   2.881   3.437 -2.3524 -0.7112 -0.1082
62181SOL     OW 4152   2.705  12.141   7.247  0.1504 -0.0102 -0.0550
62181SOL    HW1 4153   2.751  12.219   7.277 -0.8802  0.9152 -0.7727
62181SOL    HW2 4154   2.665  12.168   7.164  0.0049 -1.3908 -0.4555
62182SOL     OW 4155  11.954  10.325   3.888 -0.5430  0.0862  0.0265
62182SOL    HW1 4156  11.965  10.288   3.975 -0.5421 -1.1589 -0.4757
62182SOL    HW2 4157  11.908  10.407   3.902 -2.8248 -1.2786  1.0185
62183SOL     OW 4158   0.228   5.921   2.673 -0.0837 -0.2224  0.5169
62183SOL    HW1 4159   0.150   5.907   2.619 -0.9814 -0.9138  1.9338
62183SOL    HW2 4160   0.260   6.007   2.647 -1.7585  0.3968  0.4123
62184SOL     OW 4161  11.383  11.719   0.486  0.6749  0.0213  0.2416
62184SOL    HW1 4162  11.449  11.689   0.424  0.5861  1.3555 -0.5362
62184SOL    HW2 4163  11.331  11.641   0.506  0.7776 -0.4623 -1.2860
62185SOL     OW 4164   9.488   3.261  12.361 -0.3353 -0.2080  0.7695
62185SOL    HW1 4165   9.405   3.225  12.329  0.2349 -1.9049  1.0708
62185SOL    HW2 4166   9.554   3.201  12.327  0.3677 -1.7562  4.4490
62186SOL     OW 4167  10.636   3.603   5.914 -0.1583  0.0786 -0.2972
62186SOL    HW1 4168  10.617   3.530   5.973  0.1709  0.1751 -0.0633
62186SOL    HW2 4169  10.728   3.591   5.890  0.1761  0.9053  0.4652
62187SOL     OW 4170   5.368   2.669   4.462  0.0116  0.0205 -0.4371
62187SOL    HW1 4171   5.350   2.730   4.390 -0.3020  1.6658  0.9850
62187SOL    HW2 4172   5.313   2.700   4.534  2.1911 -0.0090  1.3424
62188SOL     OW 4173   5.735   4.250   1.244 -0.1460 -0.1327 -0.5830
62188SOL    HW1 4174   5.680   4.329   1.243  0.0037 -0.0318 -0.7836
62188SOL    HW2 4175   5.820   4.282   1.273 -0.3400 -0.3845  0.2932
62189SOL     OW 4176   1.907  12.038  11.219 -0.1319 -0.1064  0.0078
62189SOL    HW1 4177   1.815  12.038  11.245 -0.3920 -0.1534 -0.8954
62189SOL    HW2 4178   1.931  12.130  11.219 -0.8231  0.1207 -1.9122
62190SOL     OW 4179   2.453   2.199   4.498 -0.0506  1.0452 -0.1262
62190SOL    HW1 4180   2.492   2.112   4.492  1.5303  1.5027  2.2068
62190SOL    HW2 4181   2.511   2.255   4.447 -0.1373  1.0153 -0.2593
62191SOL     OW 4182  11.463  12.441  10.726 -0.6637  0.0745  0.1266
62191SOL    HW1 4183  11.423  12.386  10.658 -1.7070  1.9218 -0.8366
62191SOL    HW2 4184  11.552  12.455  10.696 -0.5854 -0.5657  0.0529
62192SOL     OW 4185   0.038   8.778   3.155 -0.5045  0.3925  0.5870
62192SOL    HW1 4186   0.105   8.773   3.086 -1.5389 -0.2304 -0.3971
62192SOL    HW2 4187  -0.045   8.778   3.108 -1.2064  1.4151  1.7926
62193SOL     OW 4188   2.233   5.164  11.991 -0.0720  0.2387  0.1108
62193SOL    HW1 4189   2.263   5.244  12.034  1.0372  0.8787 -1.7456
62193SOL    HW2 4190   2.311   5.108  11.989 -0.0886  0.2435 -1.0580
62194SOL     OW 4191   8.123   6.660   8.303 -0.0633  0.0341 -0.1403
62194SOL    HW1 4192   8.174   6.741   8.298 -1.0946  0.6964 -0.3135
62194SOL    HW2 4193   8.072   6.659   8.222 -0.9171 -0.1906  0.3865
62195SOL     OW 4194   0.999   7.578  11.036  0.0349  0.0340 -0.4094
62195SOL    HW1 4195   0.910   7.545  11.043 -0.3141  1.1338  0.9062
62195SOL    HW2 4196   0.999   7.659  11.088  1.5406  0.5981 -1.2001
62196SOL     OW 4197  12.572   2.271  13.992  0.3083 -0.0568  0.1635
62196SOL    HW1 4198  12.529   2.189  14.014  0.8557  0.0537  1.8041
62196SOL    HW2 4199  12.663   2.259  14.020  0.3759  1.1228  0.5256
62197SOL     OW 4200  13.512   7.953  13.535 -0.4504  0.0215 -0.1674
62197SOL    HW1 4201  13.465   7.981  13.614 -0.2357 -0.7515  0.2480
62197SOL    HW2 4202  13.470   7.870  13.512 -0.6803  0.3654 -1.0269
62198SOL     OW 4203  11.954   3.419   2.757 -0.4928 -0.3959  0.4506
62198SOL    HW1 4204  11.921   3.509   2.751  1.5057  0.2941 -1.2542
62198SOL    HW2 4205  11.992   3.414   2.845 -0.4454  0.5211  0.4954
62199SOL     OW 4206   1.449   4.198   4.201  1.0977 -0.0746  0.1418
62199SOL    HW1 4207   1.450   4.294   4.199  2.8186 -0.0638  0.0371
62199SOL    HW2 4208   1.379   4.176   4.262  0.4752  1.2413 -0.0673
62200SOL     OW 4209   3.176   7.502   0.200  0.3295 -0.2924  0.0926
62200SOL    HW1 4210   3.192   7.559   0.276 -0.3596 -0.2386  0.2029
62200SOL    HW2 4211   3.264   7.484   0.166  0.5941  0.4414  0.3449
62201SOL     OW 4212   2.310   5.874   5.529  0.4327  0.1704  0.2034
62201SOL    HW1 4213   2.356   5.848   5.609 -1.5013 -0.4435  1.1807
62201SOL    HW2 4214   2.279   5.962   5.546  0.2589  0.1474  0.0139
62202SOL     OW 4215   6.630   5.429   0.402  0.0971 -0.2318 -0.0189
62202SOL    HW1 4216   6.664   5.417   0.313  0.8941  1.6935 -0.0188
62202SOL    HW2 4217   6.601   5.342   0.428  1.9412 -1.2955 -1.3122
62203SOL     OW 4218   6.308  11.715   2.904 -0.0603 -0.0926 -0.7447
62203SOL    HW1 4219   6.294  11.678   2.991 -1.2343  0.0465 -0.8546
62203SOL    HW2 4220   6.367  11.788   2.918  0.2990 -0.4884 -0.1649
62204SOL     OW 4221   5.415   1.887   9.884 -0.0035  0.3614 -0.2486
62204SOL    HW1 4222   5.505   1.865   9.906  0.0589 -1.4009 -1.9849
62204SOL    HW2 4223   5.364   1.860   9.961  0.8229  0.1774  0.2430
62205SOL     OW 4224   7.472   7.243   2.324 -0.2180  0.5084 -0.7923
62205SOL    HW1 4225   7.434   7.201   2.246 -0.5610 -0.5811 -0.0597
62205SOL    HW2 4226   7.413   7.221   2.395  0.5668  0.7318 -0.0472
62206SOL     OW 4227   0.556  13.233   7.497 -0.1699  0.0506 -0.9020
62206SOL    HW1 4228   0.648  13.258   7.511 -0.3570 -0.1548  1.0749
62206SOL    HW2 4229   0.508  13.315   7.497 -0.1766  0.0573  0.0180
62207SOL     OW 4230   6.640   0.313   8.381  0.5538  0.1730 -0.6497
62207SOL    HW1 4231   6.662   0.237   8.435 -2.2213 -1.3779 -1.4808
62207SOL    HW2 4232   6.670   0.388   8.431  0.3674 -1.3116  1.8665
62208SOL     OW 4233  10.268  14.026   0.694 -0.4378  0.0353  0.5292
62208SOL    HW1 4234  10.187  14.060   0.730  0.2433  1.2435  0.9864
62208SOL    HW2 4235  10.241  13.965   0.625 -1.7805 -2.1266  2.7875
62209SOL     OW 4236  11.579   8.120   3.559  0.3349  0.0090  0.2219
62209SOL    HW1 4237  11.616   8.040   3.597 -0.3103  0.2354  1.3894
62209SOL    HW2 4238  11.542   8.167   3.634 -1.5310  0.2120 -0.7736
62210SOL     OW 4239   6.494  13.041   9.145 -0.0350  0.0661 -0.4053
62210SOL    HW1 4240   6.582  13.007   9.166  0.8070 -0.1552 -3.7198
62210SOL    HW2 4241   6.459  12.978   9.083 -2.3123  0.5517  0.3058
62211SOL     OW 4242  12.620   5.851   9.321 -0.1964 -0.1117 -0.3204
62211SOL    HW1 4243  12.660   5.890   9.243 -0.4738 -1.0794 -0.9611
62211SOL    HW2 4244  12.659   5.899   9.394 -0.0213  0.8955 -1.0508
62212SOL     OW 4245   9.852   3.991   5.193  0.0046 -0.5452  0.1453
62212SOL    HW1 4246   9.812   4.034   5.118  0.1658 -0.5181  0.0758
62212SOL    HW2 4247   9.839   3.897   5.178 -0.4748 -0.5167  0.3665
62213SOL     OW 4248   3.323   0.760   2.866  0.4944  0.5440  0.1159
62213SOL    HW1 4249   3.305   0.687   2.926  0.1902  0.3710 -0.1844
62213SOL    HW2 4250   3.413   0.745   2.837  0.0438 -0.3791 -0.8628
62214SOL     OW 4251  12.496   1.505   5.355  0.1370 -0.3023  0.5254
62214SOL    HW1 4252  12.559   1.535   5.290 -0.7269  0.7056  0.1238
62214SOL    HW2 4253  12.414   1.497   5.307 -0.1691 -1.0645  1.1556
62215SOL     OW 4254   6.307   8.794   0.799 -0.0470 -0.1345  0.3982
62215SOL    HW1 4255   6.384   8.794   0.742  0.8864 -1.0845  1.6012
62215SOL    HW2 4256   6.279   8.702   0.801 -0.7365  0.0774  0.5859
62216SOL     OW 4257   2.292  13.910   1.635  0.7214  0.1565 -0.4432
62216SOL    HW1 4258   2.322  13.844   1.698  0.2335 -0.6929 -1.0949
62216SOL    HW2 4259   2.204  13.934   1.666  0.5803 -0.0831 -0.6532
62217SOL     OW 4260   3.138   6.648   9.345 -0.1966 -0.7833 -0.0561
62217SOL    HW1 4261   3.135   6.706   9.421 -1.4989 -0.2236 -0.5103
62217SOL    HW2 4262   3.082   6.574   9.369 -1.7557  0.0482 -0.9516
62218SOL     OW 4263   4.298   3.960  11.612  0.4622 -0.3394  0.4035
62218SOL    HW1 4264   4.392   3.977  11.616  0.1811  1.4180  0.4675
62218SOL    HW2 4265   4.269   3.968  11.703 -0.0627  1.3198  0.1180
62219SOL     OW 4266   2.995   8.728   0.732  0.1467  0.4260  0.1051
62219SOL    HW1 4267   2.942   8.771   0.665 -0.7682 -0.9388 -0.0802
62219SOL    HW2 4268   2.965   8.767   0.815 -2.4296 -1.4905  0.1833
62220SOL     OW 4269   5.554   5.476  13.694  0.1498  0.1957 -0.0111
62220SOL    HW1 4270   5.530   5.425  13.616 -0.1258 -0.2929  0.3913
62220SOL    HW2 4271   5.578   5.562  13.659  0.2450 -0.0862 -0.6609
62221SOL     OW 4272   4.695  11.379   5.917 -0.2581 -0.2284 -0.1140
62221SOL    HW1 4273   4.716  11.438   5.844  1.5241 -1.3228 -0.5452
62221SOL    HW2 4274   4.740  11.417   5.992  1.5920 -1.3661 -0.5620
62222SOL     OW 4275   2.664  13.414  14.039 -0.0660  0.2805 -0.3956
62222SOL    HW1 4276   2.646  13.471  13.965  0.8423  0.2458 -0.6594
62222SOL    HW2 4277   2.677  13.474  14.113 -0.6232  0.3316 -0.3356
62223SOL     OW 4278   8.013  11.824  12.365  0.1444 -0.1034  0.1131
62223SOL    HW1 4279   8.046  11.761  12.300 -2.0101 -0.9126 -0.2720
62223SOL    HW2 4280   8.004  11.772  12.445 -1.0512 -0.1437 -0.0400
62224SOL     OW 4281   5.814   0.321   3.954  0.2529  0.4975  0.2777
62224SOL    HW1 4282   5.787   0.399   3.906  0.1653  1.4637  1.8003
62224SOL    HW2 4283   5.830   0.254   3.887 -0.5034  1.5676 -1.0061
62225SOL     OW 4284  10.299   6.948   7.820  0.0558  0.2866 -0.0917
62225SOL    HW1 4285  10.207   6.969   7.836 -0.6337 -2.0077 -0.7195
62225SOL    HW2 4286  10.336   6.933   7.907 -0.2838  0.7059  0.1286
62226SOL     OW 4287   2.005   7.843  13.606 -0.0074 -0.4957  0.8288
62226SOL    HW1 4288   2.016   7.759  13.651 -1.0592 -0.6308  0.8483
62226SOL    HW2 4289   2.095   7.872  13.587  0.3582 -1.6678  0.7261
62227SOL     OW 4290  13.471   6.522   8.165  0.1789  0.1453  0.3491
62227SOL    HW1 4291  13.381   6.493   8.177  0.4246 -1.0529 -0.5083
62227SOL    HW2 4292  13.518   6.443   8.137  1.0000  1.2414 -1.5260
62228SOL     OW 4293   5.728  12.841   1.547  0.6700  0.0280 -0.0200
62228SOL    HW1 4294   5.804  12.783   1.544  1.1557  0.5967  0.8084
62228SOL    HW2 4295   5.671  12.811   1.476  1.3103 -0.8981 -0.1513
62229SOL     OW 4296   2.761  13.381  13.663 -0.0051  0.5278 -0.1579
62229SOL    HW1 4297   2.686  13.323  13.659 -0.3352  0.9309  0.1551
62229SOL    HW2 4298   2.726  13.465  13.694  0.5130  0.8106 -0.3186
62230SOL     OW 4299  11.673  12.591   4.536  0.2507  0.0647 -0.3664
62230SOL    HW1 4300  11.646  12.681   4.551  1.2558  0.3411 -0.1182
62230SOL    HW2 4301  11.647  12.545   4.616  1.0235  0.4537  0.1248
62231SOL     OW 4302   4.785   8.693   1.764 -0.2784  0.0189 -0.0870
62231SOL    HW1 4303   4.749   8.756   1.826  2.0260  1.8380 -0.4420
62231SOL    HW2 4304   4.730   8.703   1.686 -0.4825  1.0122  0.1588
62232SOL     OW 4305   9.192   6.193   2.590 -0.1202  0.2902 -0.0144
62232SOL    HW1 4306   9.161   6.114   2.636  1.1679 -0.2862 -0.0913
62232SOL    HW2 4307   9.287   6.186   2.593  0.0011  1.5524 -0.5600
62233SOL     OW 4308  12.793  12.654   7.553 -0.1588  0.0272  0.4565
62233SOL    HW1 4309  12.827  12.737   7.520  1.6870  0.1296  2.4372
62233SOL    HW2 4310  12.838  12.587   7.500 -0.7465  0.2516 -0.3370
62234SOL     OW 4311   9.009   9.545   4.823 -0.5921 -0.9749  0.1354
62234SOL    HW1 4312   9.003   9.585   4.910 -0.0138 -1.7985  0.5733
62234SOL    HW2 4313   8.970   9.458   4.834 -1.3886 -0.7347 -0.6756
62235SOL     OW 4314  12.986   9.385   2.498 -0.0792 -0.8518  0.1461
62235SOL    HW1 4315  13.003   9.392   2.592 -0.1997 -0.3269  0.1302
62235SOL    HW2 4316  12.895   9.354   2.493 -0.9440  1.4733  0.2057
62236SOL     OW 4317   6.487  13.640   0.412 -0.0879 -0.4240  0.2150
62236SOL    HW1 4318   6.535  13.703   0.465  0.7731  0.7532 -1.8333
62236SOL    HW2 4319   6.403  13.683   0.394  1.0501  0.9203 -2.3976
62237SOL     OW 4320   2.011  10.170  12.569 -0.2811  0.0108  1.1093
62237SOL    HW1 4321   2.004  10.076  12.579 -1.7509 -0.0281  0.0644
62237SOL    HW2 4322   2.102  10.185  12.544 -0.6884 -1.5002 -1.7998
62238SOL     OW 4323   3.592  11.671   4.233 -0.1792  0.2331  0.0634
62238SOL    HW1 4324   3.621  11.612   4.164  0.4981  0.9204 -0.2539
62238SOL    HW2 4325   3.672  11.706   4.271 -0.5395 -0.1506  1.2337
62239SOL     OW 4326   9.694   8.834  13.175  0.0790  0.0960 -0.0436
62239SOL    HW1 4327   9.631   8.787  13.120  1.2069 -0.7367 -0.6634
62239SOL    HW2 4328   9.656   8.921  13.186 -0.8069 -0.1428 -1.0508
62240SOL     OW 4329   3.543   2.110   1.329  0.0567  0.3397 -0.4555
62240SOL    HW1 4330   3.568   2.084   1.418  2.2539 -0.8981 -1.3386
62240SOL    HW2 4331   3.451   2.134   1.336  0.1566  0.2877  2.1427
62241SOL     OW 4332   4.119  10.466   6.785 -0.2316  1.1080 -0.2649
62241SOL    HW1 4333   4.080  10.427   6.864 -1.0396  2.0832 -0.1673
62241SOL    HW2 4334   4.064  10.435   6.714 -1.5103  2.8544 -0.0793
62242SOL     OW 4335   8.847  10.614   7.930  0.5976  0.6887 -0.1727
62242SOL    HW1 4336   8.851  10.604   7.835 -0.5466  0.9539 -0.2711
62242SOL    HW2 4337   8.855  10.708   7.945 -1.5569  0.9277 -0.2040
62243SOL     OW 4338   0.373   8.675  11.266  0.1873  0.5047 -0.2921
62243SOL    HW1 4339   0.347   8.683  11.358  0.4247  3.2157 -0.3878
62243SOL    HW2 4340   0.352   8.760  11.227 -2.6129 -1.3991 -3.5422
62244SOL     OW 4341   8.359  11.442  12.443 -0.4238 -0.3772  0.4361
62244SOL    HW1 4342   8.359  11.513  12.508 -0.7889  0.4006 -0.3872
62244SOL    HW2 4343   8.303  11.374  12.482 -2.7269  1.0826 -0.0815
62245SOL     OW 4344   1.604   5.951   5.423 -0.3475 -0.3425  0.0473
62245SOL    HW1 4345   1.651   5.918   5.347 -2.4054 -0.5276 -1.2361
62245SOL    HW2 4346   1.559   6.030   5.390  0.9842  1.2716  1.8702
62246SOL     OW 4347  10.168   0.251   9.986 -0.2578 -0.3932 -0.1636
62246SOL    HW1 4348  10.181   0.263  10.080 -0.5386 -0.5015 -0.1091
62246SOL    HW2 4349  10.208   0.328   9.946 -1.4826  0.4345  0.1415
62247SOL     OW 4350  10.361  10.904   8.325 -0.2463  0.7183  0.2350
62247SOL    HW1 4351  10.329  10.987   8.360  2.5435  2.4364 -0.9556
62247SOL    HW2 4352  10.449  10.895   8.361 -0.5876 -1.9212  0.5638
62248SOL     OW 4353   1.430   2.107   5.510  0.4600 -0.1932  0.1833
62248SOL    HW1 4354   1.387   2.025   5.486  2.1812 -0.8951 -0.6871
62248SOL    HW2 4355   1.451   2.148   5.426  0.2955  0.7690  0.6034
62249SOL     OW 4356   2.433  12.603  10.501  0.0911 -0.3629 -0.3633
62249SOL    HW1 4357   2.373  12.648  10.442  0.7905  2.0214  0.6009
62249SOL    HW2 4358   2.382  12.585  10.579  0.5842  1.9826  0.5965
62250SOL     OW 4359   5.414   2.561   2.854 -0.3665  0.0335 -0.0572
62250SOL    HW1 4360   5.378   2.634   2.904 -1.4234 -0.2850 -0.3129
62250SOL    HW2 4361   5.356   2.554   2.778 -0.2162 -0.9988 -0.0911
62251SOL     OW 4362   4.537   3.694  13.541 -0.7894 -0.4792  0.1509
62251SOL    HW1 4363   4.618   3.741  13.563 -1.4434  1.0307 -0.4928
62251SOL    HW2 4364   4.498   3.674  13.626  0.0205 -0.7853  0.4596
62252SOL     OW 4365   6.459   5.155   5.378 -0.6241  0.0776 -0.1604
62252SOL    HW1 4366   6.375   5.167   5.423 -1.1943 -1.3206 -0.7635
62252SOL    HW2 4367   6.435   5.109   5.297  0.7664 -0.7501 -0.1252
62253SOL     OW 4368   5.383   3.532   2.814  0.0350 -0.1092 -0.1159
62253SOL    HW1 4369   5.381   3.437   2.826 -1.2348  0.0086  0.7804
62253SOL    HW2 4370   5.312   3.565   2.869  0.0974  1.3180 -0.8390
62254SOL     OW 4371  13.839   4.816   7.579  0.4091 -0.2238  0.7409
62254SOL    HW1 4372  13.867   4.760   7.652  1.2329  0.2646  0.8067
62254SOL    HW2 4373  13.797   4.755   7.518  0.9026 -0.8523  1.0106
62255SOL     OW 4374   7.658  11.076   4.980  0.5133 -0.1247 -0.2384
62255SOL    HW1 4375   7.678  11.127   5.058  0.9675 -0.4556 -0.1369
62255SOL    HW2 4376   7.742  11.066   4.935  0.3732 -0.5071 -0.4218
62256SOL     OW 4377  11.873   8.147   3.732 -0.6159 -0.1842  0.2646
62256SOL    HW1 4378  11.836   8.229   3.698 -0.8359 -0.3645  0.0695
62256SOL    HW2 4379  11.876   8.088   3.657  2.0436  0.4856 -0.2376
62257SOL     OW 4380  13.022   9.010   7.734  0.2208  0.3120 -0.2119
62257SOL    HW1 4381  12.932   9.033   7.714 -1.2167 -2.5905  2.0697
62257SOL    HW2 4382  13.048   8.950   7.663 -0.6383 -0.8483  0.4151
62258SOL     OW 4383   2.520   2.943   6.170  0.0878  0.4957 -0.2771
62258SOL    HW1 4384   2.446   2.926   6.229  1.9468 -0.3113  1.9836
62258SOL    HW2 4385   2.520   2.869   6.110  0.1106 -0.4780  0.8875
62259SOL     OW 4386   7.836   5.011   8.805  0.0153  0.1630 -0.0912
62259SOL    HW1 4387   7.875   4.948   8.744 -0.7209 -0.8277  0.4303
62259SOL    HW2 4388   7.816   4.960   8.883 -2.7466  0.4594 -0.4939
62260SOL     OW 4389  11.472   8.456   1.030 -0.3765  0.2409 -0.4868
62260SOL    HW1 4390  11.556   8.432   0.989 -0.8531 -1.3948 -0.5980
62260SOL    HW2 4391  11.406   8.433   0.965 -0.9633  0.8744 -0.1298
62261SOL     OW 4392   0.418   0.500   0.616 -0.5336  0.6563 -0.1663
62261SOL    HW1 4393   0.490   0.536   0.564 -2.0122 -0.2423 -3.0222
62261SOL    HW2 4394   0.432   0.537   0.704  0.9127  4.0382 -1.6171
62262SOL     OW 4395   2.765   7.937  12.496 -0.0586  0.3881  0.0566
62262SOL    HW1 4396   2.839   7.973  12.545  0.2508 -1.0238  0.6637
62262SOL    HW2 4397   2.796   7.932  12.405  0.4202  0.2296  0.2307
62263SOL     OW 4398   7.137  12.703   3.784  0.5243  0.2061 -0.2875
62263SOL    HW1 4399   7.048  12.726   3.757  0.3497 -1.3701 -1.1783
62263SOL    HW2 4400   7.138  12.722   3.878 -1.0461 -0.5518 -0.0719
62264SOL     OW 4401   4.989   5.129   4.596 -0.1169  0.4953 -0.0965
62264SOL    HW1 4402   4.980   5.195   4.527  2.2711  3.0832  1.8623
62264SOL    HW2 4403   5.073   5.086   4.577 -0.2189  0.1053  0.3157
62265SOL     OW 4404   8.378   0.833   4.886  0.1505  0.1600  0.1047
62265SOL    HW1 4405   8.362   0.860   4.977 -0.6685 -1.4590  0.4742
62265SOL    HW2 4406   8.466   0.795   4.889 -0.6520 -1.7480  0.7081
62266SOL     OW 4407   2.104   4.062   6.366 -0.1639  0.2763 -0.2392
62266SOL    HW1 4408   2.031   4.110   6.404  0.3186  0.4833  0.4423
62266SOL    HW2 4409   2.063   3.996   6.310 -0.8519  1.4212 -1.1513
62267SOL     OW 4410   2.077   5.047   2.385 -0.2058 -0.2224  0.5834
62267SOL    HW1 4411   2.022   5.044   2.306 -0.1623  1.3411  0.4540
62267SOL    HW2 4412   2.166   5.037   2.352  0.0185  2.5925  0.1003
62268SOL     OW 4413  13.281   3.089  13.195 -0.1109 -0.3394 -0.5255
62268SOL    HW1 4414  13.236   3.022  13.246  2.3613 -2.9304 -1.4854
62268SOL    HW2 4415  13.308   3.045  13.115  2.7228  1.3990 -0.6853
62269SOL     OW 4416   1.363   5.110  12.781  0.0468  0.1134 -0.5523
62269SOL    HW1 4417   1.343   5.017  12.786 -1.9596  0.5554  1.2337
62269SOL    HW2 4418   1.455   5.114  12.755  0.0336 -2.3238 -1.2123
62270SOL     OW 4419   0.479   5.000  12.731  0.6300  0.4658 -0.5614
62270SOL    HW1 4420   0.522   4.984  12.815 -0.2271  1.8969  0.1985
62270SOL    HW2 4421   0.410   5.063  12.751 -0.4105 -0.1160 -2.1319
62271SOL     OW 4422  13.592   3.424   3.978  0.3818 -0.6396 -0.3182
62271SOL    HW1 4423  13.503   3.457   3.995  0.9234  0.0492  1.4572
62271SOL    HW2 4424  13.638   3.436   4.061  2.3498 -0.3651 -1.3875
62272SOL     OW 4425   4.360  11.891   9.498  0.2807  0.5156 -0.0929
62272SOL    HW1 4426   4.265  11.884   9.486 -0.0253  0.7209  1.8108
62272SOL    HW2 4427   4.387  11.961   9.440 -0.8068  0.7171 -0.3791
62273SOL     OW 4428   8.536  10.245   4.798  0.1509  0.0918  0.2320
62273SOL    HW1 4429   8.536  10.200   4.882 -1.8628 -1.0434 -0.3119
62273SOL    HW2 4430   8.548  10.175   4.733 -1.6369  0.4595 -0.5569
62274SOL     OW 4431   6.299   3.135   2.661  0.5708 -0.1149  0.3027
62274SOL    HW1 4432   6.275   3.226   2.677 -1.3271 -0.0985 -2.0611
62274SOL    HW2 4433   6.338   3.106   2.744 -1.2915  2.0366  2.0938
62275SOL     OW 4434   2.245   4.648   2.517 -0.3563 -0.1049  0.6281
62275SOL    HW1 4435   2.290   4.691   2.445  0.9355 -1.4119  0.6198
62275SOL    HW2 4436   2.247   4.555   2.494 -0.7670 -0.4411  1.8969
62276SOL     OW 4437  11.724  12.033   6.020  0.1014  0.3912  0.2726
62276SOL    HW1 4438  11.675  11.981   6.084  1.6184 -2.8616 -1.0118
62276SOL    HW2 4439  11.816  12.012   6.037  0.6995  1.5181 -1.2905
62277SOL     OW 4440   5.261  13.925   3.519  0.2489 -0.0242 -0.1120
62277SOL    HW1 4441   5.272  14.018   3.541  0.1389 -0.2284  0.8831
62277SOL    HW2 4442   5.231  13.925   3.428 -1.5962  1.0231  0.4349
62278SOL     OW 4443   5.247   1.341   7.021  0.9529  0.1803  0.4395
62278SOL    HW1 4444   5.286   1.281   6.958  2.3219  0.3213  1.1128
62278SOL    HW2 4445   5.155   1.347   6.996  1.3151 -0.3344 -1.0784
62279SOL     OW 4446   0.701   7.060  13.432 -0.0039  0.2028  0.0770
62279SOL    HW1 4447   0.787   7.062  13.391 -1.0524  0.6729 -2.2101
62279SOL    HW2 4448   0.703   6.981  13.486  0.8408 -1.5376 -2.3182
62280SOL     OW 4449  12.573   0.913  10.083  0.4125  0.0558 -0.2419
62280SOL    HW1 4450  12.580   0.883  10.173  1.8692 -0.9445 -0.6534
62280SOL    HW2 4451  12.509   0.855  10.042 -2.1162  2.0180  0.6901
62281SOL     OW 4452   7.562  10.965   3.905  0.2537  0.2313  0.0030
62281SOL    HW1 4453   7.480  10.945   3.860  0.1043 -0.6714  0.6504
62281SOL    HW2 4454   7.587  10.883   3.947  2.2968  0.0369 -1.4079
62282SOL     OW 4455   1.731   1.090   3.159  0.9710  0.1705 -0.0237
62282SOL    HW1 4456   1.763   1.166   3.110  0.1039  0.1300 -0.6838
62282SOL    HW2 4457   1.638   1.084   3.135  1.1742 -1.4816 -0.4988
62283SOL     OW 4458   7.564  13.927  12.280 -0.3635 -0.1669  0.2268
62283SOL    HW1 4459   7.582  13.934  12.374 -0.4642  0.2046  0.2192
62283SOL    HW2 4460   7.576  13.834  12.260  2.0103  0.0905  0.1460
62284SOL     OW 4461  12.127   1.373  12.127 -0.2299  0.1552 -0.2067
62284SOL    HW1 4462  12.214   1.396  12.161 -0.5437  1.6428 -0.3353
62284SOL    HW2 4463  12.141   1.291  12.080  0.9966  0.0907  0.2121
62285SOL     OW 4464   6.025   0.840  13.694 -0.0302 -0.0681 -0.3138
62285SOL    HW1 4465   5.945   0.790  13.678  0.9103 -2.3837  1.7154
62285SOL    HW2 4466   6.082   0.781  13.742  1.5799  2.6526  1.4052
62286SOL     OW 4467  12.024   2.083  13.553  0.0730 -0.1539  0.0912
62286SOL    HW1 4468  12.000   2.070  13.645 -1.2708 -0.2165 -0.2338
62286SOL    HW2 4469  12.119   2.095  13.554 -0.1789  2.6390  1.8090
62287SOL     OW 4470   8.194   6.248  13.080 -0.2581  0.3244 -0.1062
62287SOL    HW1 4471   8.266   6.291  13.125  1.1498 -1.2816 -0.7149
62287SOL    HW2 4472   8.175   6.303  13.005  0.4592  0.6662 -0.0394
62288SOL     OW 4473  10.994   7.584   6.347 -0.9179 -0.7658 -0.7997
62288SOL    HW1 4474  11.035   7.593   6.261  1.0292 -2.0962 -0.0933
62288SOL    HW2 4475  11.048   7.638   6.405 -2.1388  0.0246 -0.3496
62289SOL     OW 4476  10.678  10.416   5.709  0.0003 -0.2139 -0.0777
62289SOL    HW1 4477  10.613  10.367   5.760 -2.5962  3.0910  0.1151
62289SOL    HW2 4478  10.703  10.489   5.766  3.2529 -0.7658 -0.5850
62290SOL     OW 4479  13.746   0.012  11.729 -0.2048 -0.0603  0.0010
62290SOL    HW1 4480  13.683   0.070  11.772  0.0031  0.0601  0.1503
62290SOL    HW2 4481  13.698  -0.028  11.657 -1.0884 -1.6401  1.3983
62291SOL     OW 4482  10.080   1.649  13.180 -0.1618 -0.0127 -0.0283
62291SOL    HW1 4483  10.006   1.630  13.122 -1.2439  1.5267  0.7769
62291SOL    HW2 4484  10.061   1.600  13.260  0.7061 -1.1465 -0.4844
62292SOL     OW 4485   4.337   5.764  10.487 -0.0156  0.1575 -0.3443
62292SOL    HW1 4486   4.246   5.791  10.477 -0.1703 -0.3212 -0.2781
62292SOL    HW2 4487   4.371   5.816  10.559 -0.3247  0.1259 -0.1757
62293SOL     OW 4488   4.500   8.426   5.483  0.3015  0.2877 -0.5434
62293SOL    HW1 4489   4.419   8.475   5.466  0.9959  1.3656 -0.8221
62293SOL    HW2 4490   4.547   8.427   5.400  0.3197 -0.9220 -0.5676
62294SOL     OW 4491  11.407   6.440  10.213  0.0215  0.2042 -0.3375
62294SOL    HW1 4492  11.419   6.535  10.220  1.7214 -0.0297  0.5088
62294SOL    HW2 4493  11.495   6.405  10.200 -0.1654 -1.4309  1.9993
62295SOL     OW 4494  13.869   1.661  12.373 -0.6625 -0.3000  0.0792
62295SOL    HW1 4495  13.944   1.683  12.317  1.5224 -0.1540  2.8561
62295SOL    HW2 4496  13.827   1.588  12.328  1.7334 -1.0478 -1.1198
62296SOL     OW 4497   8.953   5.982  11.027  0.1486  0.1296 -0.3485
62296SOL    HW1 4498   8.994   6.068  11.019  0.0716  0.3181  1.0736
62296SOL    HW2 4499   8.862   6.001  11.049  0.1541 -0.3213  0.0582
62297SOL     OW 4500   6.859   8.520   1.260  0.3119  0.0432  0.9546
62297SOL    HW1 4501   6.944   8.494   1.224  1.5020  1.9773  2.2113
62297SOL    HW2 4502   6.809   8.549   1.184 -0.1277 -3.0993 -0.1214
62298SOL     OW 4503   8.397  12.322  11.124 -0.1072 -0.4588 -0.3572
62298SOL    HW1 4504   8.380  12.389  11.058  1.4840 -1.7238 -2.1717
62298SOL    HW2 4505   8.452  12.365  11.190  0.4067  0.1794 -1.1893
62299SOL     OW 4506  12.374   8.851  12.774  0.0640 -0.0507  0.2692
62299SOL    HW1 4507  12.364   8.939  12.737 -0.8249  0.2367  1.1532
62299SOL    HW2 4508  12.318   8.851  12.851  0.3946 -1.2625  0.5268
62300SOL     OW 4509   1.171   3.082  11.599 -0.0210 -0.4539  0.3403
62300SOL    HW1 4510   1.185   3.153  11.662  1.9180  1.5160 -2.0644
62300SOL    HW2 4511   1.105   3.117  11.538  0.1597 -1.1521 -0.2760
62301SOL     OW 4512   2.029   7.870   5.372  0.1452 -0.3112 -0.4985
62301SOL    HW1 4513   2.118   7.836   5.376  0.0590 -0.4366  0.4912
62301SOL    HW2 4514   2.029   7.929   5.296  0.6385 -1.4921 -1.4517
62302SOL     OW 4515   2.143   0.389  11.659 -0.5225  0.3131  0.0125
62302SOL    HW1 4516   2.208   0.396  11.590 -1.4563  0.1907 -0.9054
62302SOL    HW2 4517   2.103   0.476  11.663 -1.1839  0.0324 -0.3375
62303SOL     OW 4518   1.452   3.975  11.131  0.0134  0.3593 -0.1138
62303SOL    HW1 4519   1.494   3.964  11.046  1.2441  2.3893  0.1606
62303SOL    HW2 4520   1.439   4.070  11.140 -0.0633  0.2131  1.9427
62304SOL     OW 4521   4.031   6.909   8.918  0.4207  0.1188 -0.3431
62304SOL    HW1 4522   4.028   6.847   8.846 -0.7169  0.6481 -0.7637
62304SOL    HW2 4523   4.013   6.994   8.879 -0.1364  0.4272  0.5406
62305SOL     OW 4524   5.727   5.034   4.236  0.0466 -0.3087  0.4563
62305SOL    HW1 4525   5.722   5.106   4.173  2.3065 -1.9648 -1.8336
62305SOL    HW2 4526   5.811   5.046   4.280 -0.1476 -0.8593  0.9959
62306SOL     OW 4527   4.711  13.145   5.821 -0.1403 -0.5076  0.3894
62306SOL    HW1 4528   4.720  13.116   5.912 -0.8840 -0.8092  0.3753
62306SOL    HW2 4529   4.775  13.093   5.772  0.6809  0.0772  0.8209
62307SOL     OW 4530   0.429  12.878   3.308  0.4804  0.0939 -0.6392
62307SOL    HW1 4531   0.357  12.827   3.346  0.0911  1.8927  1.2586
62307SOL    HW2 4532   0.508  12.827   3.329 -0.1576 -2.1698 -3.2098
62308SOL     OW 4533  13.738   1.789  11.667 -0.3541 -0.2118  0.4013
62308SOL    HW1 4534  13.826   1.826  11.671 -0.9085  1.0899  1.2282
62308SOL    HW2 4535  13.746   1.714  11.608  1.5442 -0.7895  1.3082
62309SOL     OW 4536  12.318   6.062  11.105 -0.3752  0.0463  0.1283
62309SOL    HW1 4537  12.224   6.042  11.111 -0.6401  1.2460  0.3720
62309SOL    HW2 4538  12.323   6.157  11.118  0.9230 -0.0674  0.6520
62310SOL     OW 4539  13.584   2.013   1.390 -0.3428 -0.2188  0.0916
62310SOL    HW1 4540  13.599   1.997   1.484 -0.3429  0.5195  0.2205
62310SOL    HW2 4541  13.489   2.020   1.381 -0.3519 -0.4446  0.0094
62311SOL     OW 4542   4.277   3.406   8.168  0.0980 -0.3215 -0.3417
62311SOL    HW1 4543   4.351   3.440   8.218 -0.8510  0.8968  0.2702
62311SOL    HW2 4544   4.302   3.316   8.148  0.9602 -0.5356  1.4523
62312SOL     OW 4545   3.021   3.982  12.526 -0.2139 -0.2787  0.2599
62312SOL    HW1 4546   2.948   3.921  12.538 -1.0378  0.4999 -0.5973
62312SOL    HW2 4547   3.045   4.009  12.615 -0.9261 -0.6089  0.5580
62313SOL     OW 4548   0.682   6.360   9.722 -0.2568  0.0322 -0.5029
62313SOL    HW1 4549   0.667   6.294   9.790  1.9512 -1.4854 -1.3643
62313SOL    HW2 4550   0.760   6.407   9.751 -1.8844  2.4734  0.1700
62314SOL     OW 4551   7.688   7.287  12.649 -0.0938  0.5773 -0.4973
62314SOL    HW1 4552   7.654   7.368  12.610  1.3420  0.9846 -0.9778
62314SOL    HW2 4553   7.780   7.307  12.669 -0.2124 -0.3314  1.1261
62315SOL     OW 4554   2.249   1.205   0.247 -0.7706 -0.2402  0.0286
62315SOL    HW1 4555   2.165   1.169   0.218  0.2479 -2.7974 -0.0408
62315SOL    HW2 4556   2.314   1.163   0.190  0.5808  1.8328 -0.0615
62316SOL     OW 4557   9.575   3.492  12.231  0.0649  0.0960 -0.1390
62316SOL    HW1 4558   9.578   3.555  12.303 -3.0768  1.0357 -0.6562
62316SOL    HW2 4559   9.551   3.409  12.272  1.4655 -0.1577  0.2162
62317SOL     OW 4560   5.539   1.108  11.137  0.9197 -0.1927  0.1007
62317SOL    HW1 4561   5.594   1.181  11.165  0.8931 -0.1577  0.0614
62317SOL    HW2 4562   5.546   1.044  11.208 -2.0087  1.3634  1.9790
62318SOL     OW 4563   6.813  13.610   4.352 -0.1529  0.2008 -0.0097
62318SOL    HW1 4564   6.777  13.687   4.308 -1.5020 -0.2328  0.2879
62318SOL    HW2 4565   6.739  13.572   4.399  0.6954 -0.7670  0.5897
62319SOL     OW 4566   1.402   9.113   5.117 -0.2488  0.3604  0.3385
62319SOL    HW1 4567   1.437   9.202   5.121  0.4688  0.0996  0.1744
62319SOL    HW2 4568   1.373   9.094   5.206 -0.7697  0.8938  0.2880
62320SOL     OW 4569  12.622   7.894   2.296  0.2606  0.2241  0.7082
62320SOL    HW1 4570  12.680   7.950   2.347  2.3548 -0.3513 -0.8506
62320SOL    HW2 4571  12.622   7.933   2.208 -1.5829  0.0728  0.6120
62321SOL     OW 4572   5.686   3.735  11.029  0.4407 -0.0584  0.0223
62321SOL    HW1 4573   5.663   3.813  10.978  0.4718 -0.3907 -0.5133
62321SOL    HW2 4574   5.627   3.737  11.104  0.9784  0.9027  0.4442
62322SOL     OW 4575   7.823   7.679   1.860  0.0820 -0.6191  0.6474
62322SOL    HW1 4576   7.753   7.615   1.850 -0.1973 -0.1401 -0.8556
62322SOL    HW2 4577   7.904   7.629   1.843 -0.0497 -0.8032  0.5526
62323SOL     OW 4578   5.756  10.883   5.040  0.6738  0.6033  0.1004
62323SOL    HW1 4579   5.683  10.827   5.064  0.6402  0.9574  0.8424
62323SOL    HW2 4580   5.789  10.917   5.123  0.2001  2.3004 -0.3636
62324SOL     OW 4581   6.344   1.092   2.771  0.3316  0.0630  0.4185
62324SOL    HW1 4582   6.411   1.158   2.754  0.0264  0.1405 -0.5433
62324SOL    HW2 4583   6.297   1.083   2.688 -0.9940  0.1669  1.1364
62325SOL     OW 4584   1.417  10.899   9.278 -0.0378 -0.3173 -0.1117
62325SOL    HW1 4585   1.417  10.898   9.182  0.4647  0.5407 -0.1258
62325SOL    HW2 4586   1.328  10.873   9.302 -0.3125 -0.0461 -0.8163
62326SOL     OW 4587   5.047   4.539  13.643  0.4182  0.5145  0.4812
62326SOL    HW1 4588   5.090   4.606  13.696  1.3593  1.6643 -1.6157
62326SOL    HW2 4589   5.070   4.457  13.687  1.0997  1.3925  1.8684
62327SOL     OW 4590   4.927  13.840   5.231  0.0373 -0.4644 -0.2291
62327SOL    HW1 4591   4.902  13.756   5.268  1.2111 -0.3862  0.7789
62327SOL    HW2 4592   4.967  13.819   5.147  1.3439 -1.0268  0.5142
62328SOL     OW 4593   8.371  10.311   9.839  0.0085 -0.2770 -0.0919
62328SOL    HW1 4594   8.309  10.325   9.767  0.0231  2.3836  0.2989
62328SOL    HW2 4595   8.316  10.281   9.911 -0.5277  0.1008 -0.3270
62329SOL     OW 4596   2.407  13.689   1.101 -0.4308  0.5161 -0.0843
62329SOL    HW1 4597   2.353  13.734   1.166 -1.7873  1.3105 -1.7004
62329SOL    HW2 4598   2.384  13.596   1.110 -1.6134  0.7752 -0.3189
62330SOL     OW 4599   4.797   8.526   6.990 -0.2267  0.0062  0.4309
62330SOL    HW1 4600   4.864   8.552   6.927 -1.5200  1.0579 -0.5422
62330SOL    HW2 4601   4.719   8.508   6.937 -1.1617  0.2971  1.6599
62331SOL     OW 4602   0.329   5.957   5.928 -0.1936 -0.8565 -0.7888
62331SOL    HW1 4603   0.379   5.987   6.004  0.8877  1.5193 -2.3313
62331SOL    HW2 4604   0.320   5.862   5.942  0.2566 -0.5807  2.0834
62332SOL     OW 4605   6.782   0.313  13.019 -0.2208  0.2406 -0.0026
62332SOL    HW1 4606   6.704   0.288  13.069  0.0273  0.9725  0.7701
62332SOL    HW2 4607   6.756   0.391  12.971 -0.4337 -0.4159 -0.9822
62333SOL     OW 4608   8.198  10.134  12.575  0.3906  0.4069 -0.3338
62333SOL    HW1 4609   8.110  10.165  12.553 -0.0617 -1.7957 -2.0508
62333SOL    HW2 4610   8.252  10.161  12.500  0.3006 -1.4166 -1.1200
62334SOL     OW 4611   0.692  12.672   2.563  0.0122  0.1795  0.0824
62334SOL    HW1 4612   0.673  12.699   2.653  0.3448  0.5421  0.0471
62334SOL    HW2 4613   0.775  12.623   2.570  0.8317  1.4796 -0.2282
62335SOL     OW 4614   9.101   2.553   4.884 -0.2118  0.6044 -0.6215
62335SOL    HW1 4615   9.055   2.526   4.963  0.0446  1.8635 -0.0077
62335SOL    HW2 4616   9.138   2.473   4.848 -2.3233 -0.3732 -0.8026
62336SOL     OW 4617   5.168  13.535   7.233 -0.0532 -0.3647  0.3670
62336SOL    HW1 4618   5.226  13.514   7.306  1.7769  2.0101 -0.2538
62336SOL    HW2 4619   5.086  13.562   7.275 -0.4434 -2.8129  1.3146
62337SOL     OW 4620   1.551   1.761   7.947  0.2961 -0.4539  0.6107
62337SOL    HW1 4621   1.472   1.708   7.938 -0.8216  0.8455  2.3104
62337SOL    HW2 4622   1.578   1.751   8.038  0.1609  1.6750  0.9443
62338SOL     OW 4623   1.409   7.118   7.225 -0.0199  0.2872 -0.0180
62338SOL    HW1 4624   1.408   7.159   7.312 -0.9659  1.7221 -0.6739
62338SOL    HW2 4625   1.326   7.069   7.221 -0.0086  0.2783 -0.1364
62339SOL     OW 4626   2.099  12.480   3.426 -0.4034  0.3487  0.0895
62339SOL    HW1 4627   2.185  12.521   3.436 -0.7817  1.3887 -0.7000
62339SOL    HW2 4628   2.047  12.513   3.499 -0.5460  0.8716 -0.2412
62340SOL     OW 4629   3.943   5.834   2.351  0.0958 -0.0587 -0.5145
62340SOL    HW1 4630   3.953   5.895   2.424 -0.7403 -0.0550 -0.3850
62340SOL    HW2 4631   3.894   5.760   2.387  0.9132 -0.7186 -0.7242
62341SOL     OW 4632   4.762   6.546   2.340  0.1814  0.6457  0.3272
62341SOL    HW1 4633   4.692   6.547   2.274 -0.7173  1.3804  1.2399
62341SOL    HW2 4634   4.837   6.587   2.297  0.5432 -1.4446 -1.1444
62342SOL     OW 4635   6.509   4.427   3.772  0.9027  0.1393  0.1555
62342SOL    HW1 4636   6.524   4.337   3.800  1.1760 -0.1504 -0.8634
62342SOL    HW2 4637   6.414   4.431   3.758  0.8598  0.0763  0.4222
62343SOL     OW 4638   8.178   9.397  11.483  0.3062 -0.0249  0.1633
62343SOL    HW1 4639   8.142   9.476  11.523 -0.2179 -0.0532 -0.2445
62343SOL    HW2 4640   8.271   9.416  11.471  0.7775 -0.4500  2.4888
62344SOL     OW 4641   9.567   3.626   3.344 -0.5455  0.3491  0.0251
62344SOL    HW1 4642   9.525   3.578   3.272 -0.0132  3.4498 -2.5448
62344SOL    HW2 4643   9.646   3.575   3.364 -1.8528 -1.7904  0.1101
62345SOL     OW 4644  13.968   6.966   6.802 -0.0149  0.3006  0.0803
62345SOL    HW1 4645  13.905   6.955   6.874 -0.7927  0.7894 -0.5042
62345SOL    HW2 4646  13.926   6.922   6.727  0.3123  0.6842 -0.3364
62346SOL     OW 4647   9.941  11.479   8.436 -0.2360 -0.2948  0.1688
62346SOL    HW1 4648   9.995  11.553   8.465  0.2918  0.0336 -1.5454
62346SOL    HW2 4649   9.863  11.483   8.492  0.4676  0.6325  1.1279
62347SOL     OW 4650   5.854   5.578   4.839  0.0123  0.2921  0.0568
62347SOL    HW1 4651   5.795   5.643   4.802  0.2386  0.0010 -0.8364
62347SOL    HW2 4652   5.942   5.612   4.820  0.1855  1.0058  1.8553
62348SOL     OW 4653   0.466   5.431   8.376 -0.0693 -0.0346 -0.2386
62348SOL    HW1 4654   0.486   5.511   8.423  0.4088  0.5766 -1.4241
62348SOL    HW2 4655   0.373   5.439   8.353  0.0194  0.2591 -0.4976
62349SOL     OW 4656   9.893   7.628   0.619  0.4718  0.0383  0.0046
62349SOL    HW1 4657   9.969   7.668   0.576  0.8701 -0.4450  0.2345
62349SOL    HW2 4658   9.856   7.698   0.672  1.1389  0.1166  0.3852
62350SOL     OW 4659   2.155  10.124  12.156  0.3282 -0.5692  0.0339
62350SOL    HW1 4660   2.069  10.134  12.114  1.4789  1.7195 -2.1003
62350SOL    HW2 4661   2.198  10.054  12.107  0.9224  0.7334 -1.3997
62351SOL     OW 4662  12.920   4.282   0.198  0.1764  0.9370 -0.3192
62351SOL    HW1 4663  12.925   4.369   0.237  3.0564  0.1855  1.2255
62351SOL    HW2 4664  12.985   4.283   0.128 -0.6130  0.3545 -1.0831
62352SOL     OW 4665   3.569  14.065   8.098  0.5479  0.6257  0.3857
62352SOL    HW1 4666   3.643  14.112   8.060  1.4295  0.9875  2.4130
62352SOL    HW2 4667   3.600  13.975   8.105 -0.5522 -0.0290 -1.9892
62353SOL     OW 4668   0.812   8.686  12.448 -0.2178 -0.0245  0.3725
62353SOL    HW1 4669   0.719   8.691  12.425  0.0688  1.9092 -0.5430
62353SOL    HW2 4670   0.838   8.777  12.463  0.8657 -0.7312  3.5938
62354SOL     OW 4671  10.536  10.928   9.923  0.1424  0.1738  0.5870
62354SOL    HW1 4672  10.449  10.966   9.931 -0.2351  0.1996 -2.3678
62354SOL    HW2 4673  10.596  11.003   9.926 -0.1085  0.3710  0.6736
62355SOL     OW 4674   3.636   0.104  10.933  0.0441 -0.2915  0.1806
62355SOL    HW1 4675   3.689   0.131  11.008 -0.2923 -1.5180  0.8923
62355SOL    HW2 4676   3.590   0.026  10.964  0.2199 -1.0716 -1.4421
62356SOL     OW 4677   6.982   7.687  13.652  0.1873 -0.0304  0.4555
62356SOL    HW1 4678   6.913   7.621  13.643 -0.3106  0.3191  1.5992
62356SOL    HW2 4679   6.983   7.708  13.745  3.3261 -1.6108  0.8896
62357SOL     OW 4680  13.526   4.078   0.040  0.5190  0.4387 -0.1090
62357SOL    HW1 4681  13.512   4.060  -0.053  0.5989 -1.3766  0.1993
62357SOL    HW2 4682  13.487   4.004   0.085 -0.5354  1.8311  1.4000
62358SOL     OW 4683   3.707   5.918   4.359 -0.1793 -0.3350 -0.3069
62358SOL    HW1 4684   3.712   5.831   4.318 -0.2090 -1.2035  1.4672
62358SOL    HW2 4685   3.775   5.917   4.426  0.1348  1.2075 -0.5548
62359SOL     OW 4686  11.337  11.219   3.413  0.2399 -0.2621 -0.5821
62359SOL    HW1 4687  11.377  11.144   3.457 -0.8434 -0.7589 -0.4271
62359SOL    HW2 4688  11.253  11.186   3.380 -1.1182  1.3352  1.0848
62360SOL     OW 4689  11.105   7.091  12.274  0.3386  0.3037  0.3207
62360SOL    HW1 4690  11.192   7.051  12.276  0.2410 -0.0408 -1.4336
62360SOL    HW2 4691  11.103   7.142  12.193 -0.5725  1.5511  1.0903
62361SOL     OW 4692  11.358   3.190   8.569 -0.2900 -0.4602  0.1032
62361SOL    HW1 4693  11.401   3.117   8.525 -0.0815 -0.0284 -0.4162
62361SOL    HW2 4694  11.268   3.189   8.536 -0.4071 -0.7376  0.4196
62362SOL     OW 4695   5.147   6.259   3.959  0.7027 -0.4715  0.0325
62362SOL    HW1 4696   5.203   6.198   3.911 -0.6306 -0.6586 -1.3302
62362SOL    HW2 4697   5.058   6.228   3.943  0.1029  0.7393  0.8768
62363SOL     OW 4698  12.940   1.385   8.172 -0.4184 -0.2500  0.7214
62363SOL    HW1 4699  12.895   1.302   8.154 -0.9902  0.2922 -0.5043
62363SOL    HW2 4700  13.025   1.376   8.129 -1.0048  0.2813 -0.6127
62364SOL     OW 4701   2.005   1.823  12.802 -0.3366  0.4289 -0.0106
62364SOL    HW1 4702   2.037   1.854  12.887 -0.8493  0.7339  0.0736
62364SOL    HW2 4703   1.992   1.903  12.751  1.6890  0.1715 -1.0126
62365SOL     OW 4704   9.407  13.786   6.076 -0.3681 -0.2711  0.4926
62365SOL    HW1 4705   9.405  13.868   6.126  1.6900  0.2415 -0.1553
62365SOL    HW2 4706   9.419  13.718   6.142 -3.2591 -0.2793  1.1649
62366SOL     OW 4707   7.756   2.453   7.300 -0.5639 -0.0380  0.3823
62366SOL    HW1 4708   7.768   2.358   7.311  2.5086  0.1473 -0.5168
62366SOL    HW2 4709   7.693   2.461   7.228  0.9367 -1.4783 -1.1831
62367SOL     OW 4710  10.526  12.860   9.851  0.2609  0.0383  0.1266
62367SOL    HW1 4711  10.439  12.865   9.814 -0.0758 -0.4583  0.8183
62367SOL    HW2 4712  10.576  12.929   9.807  0.0990 -1.0189 -1.7701
62368SOL     OW 4713  11.365   9.404   0.064  0.4835  0.2583  0.0411
62368SOL    HW1 4714  11.320   9.391   0.148 -1.4958 -2.0501 -1.2624
62368SOL    HW2 4715  11.341   9.494   0.039  0.1207  0.5621  1.3637
62369SOL     OW 4716   5.216   1.929   8.317 -0.1872  0.4927  0.8617
62369SOL    HW1 4717   5.181   1.844   8.292 -1.0184  1.4693 -1.6122
62369SOL    HW2 4718   5.191   1.939   8.409 -2.3836 -0.8331  0.4779
62370SOL     OW 4719   4.545  10.539   4.245  1.2594 -0.5404  0.1692
62370SOL    HW1 4720   4.576  10.615   4.196  1.6396 -0.5750  0.3552
62370SOL    HW2 4721   4.590  10.544   4.330  0.9195 -0.7058  0.3639
62371SOL     OW 4722  12.278   3.839   1.934 -0.3692  0.3338 -0.2097
62371SOL    HW1 4723  12.228   3.854   1.854 -0.9112 -0.0410  0.0579
62371SOL    HW2 4724  12.366   3.815   1.903 -0.5171  0.3976 -0.6840
62372SOL     OW 4725   0.223   8.787   9.246  0.0226  0.2791 -0.0045
62372SOL    HW1 4726   0.201   8.709   9.297  0.4614  0.5759  0.6470
62372SOL    HW2 4727   0.181   8.859   9.293  0.1221  0.5066 -0.2628
62373SOL     OW 4728   1.072   2.727  13.580 -0.6604  0.2257 -0.0556
62373SOL    HW1 4729   1.008   2.675  13.530  0.6749  0.5852 -2.2972
62373SOL    HW2 4730   1.033   2.814  13.586 -1.3862 -0.1400  0.6554
62374SOL     OW 4731   3.598   8.445  13.060  0.5725 -0.4502 -0.2713
62374SOL    HW1 4732   3.574   8.465  12.969 -2.1692 -0.8876  0.2635
62374SOL    HW2 4733   3.538   8.498  13.113  0.4894 -1.9811  1.2473
62375SOL     OW 4734   7.312   2.301   4.397  0.1642  0.8463 -0.1091
62375SOL    HW1 4735   7.351   2.218   4.426 -1.3697  0.6086  1.4455
62375SOL    HW2 4736   7.371   2.368   4.431  0.8154  0.4343 -0.3996
62376SOL     OW 4737   1.833   9.410   9.163  0.3955 -0.4637  0.1904
62376SOL    HW1 4738   1.929   9.408   9.167  0.3517 -0.5866  3.0352
62376SOL    HW2 4739   1.805   9.434   9.251 -2.1870  3.0912 -1.3583
62377SOL     OW 4740   1.251  13.103   3.148  0.5347 -0.2515 -0.1314
62377SOL    HW1 4741   1.161  13.077   3.127  1.0325 -0.2512 -2.5792
62377SOL    HW2 4742   1.289  13.026   3.191 -0.0775 -0.9824 -0.8676
62378SOL     OW 4743   3.834   2.898   7.196 -0.2696  0.2191  0.3217
62378SOL    HW1 4744   3.837   2.871   7.288  0.5222  2.0027  0.8602
62378SOL    HW2 4745   3.915   2.865   7.158 -0.1753  0.2477  0.4982
62379SOL     OW 4746   1.861  10.595   4.887  0.5952 -0.5674 -0.1509
62379SOL    HW1 4747   1.911  10.529   4.935  1.4295 -0.8967 -1.4119
62379SOL    HW2 4748   1.827  10.653   4.955  1.1456 -1.4058  0.8801
62380SOL     OW 4749  13.795   5.494   9.345 -0.1297  0.2774  0.5904
62380SOL    HW1 4750  13.801   5.408   9.387 -1.5181 -0.7447 -1.1473
62380SOL    HW2 4751  13.837   5.481   9.260  0.0744  1.4797  0.4975
62381SOL     OW 4752   7.827  11.637   7.193  0.1526 -0.8830  0.0205
62381SOL    HW1 4753   7.843  11.662   7.284 -0.6245  0.5934 -0.2280
62381SOL    HW2 4754   7.894  11.684   7.143 -0.0730 -0.8796 -0.2787
62382SOL     OW 4755   3.855   7.673   0.411 -0.8943 -0.5958 -0.0168
62382SOL    HW1 4756   3.803   7.735   0.361 -0.0666  1.1005  1.1105
62382SOL    HW2 4757   3.928   7.650   0.353 -0.1900  0.9941  0.1825
62383SOL     OW 4758   4.122  10.359  12.475 -0.2394 -0.4894 -0.0287
62383SOL    HW1 4759   4.144  10.286  12.532 -1.1498 -0.3821  0.4917
62383SOL    HW2 4760   4.193  10.422  12.487 -0.6229 -0.2799  1.3530
62384SOL     OW 4761   0.702   9.224   0.725 -0.0705 -0.7128 -0.2816
62384SOL    HW1 4762   0.680   9.309   0.763  0.6013 -0.8850  0.5344
62384SOL    HW2 4763   0.704   9.165   0.800  0.1295 -1.3058 -0.7526
62385SOL     OW 4764   9.208   1.051   4.219 -0.5214  0.3304  0.0083
62385SOL    HW1 4765   9.172   1.099   4.294 -2.4531  0.6597 -1.0703
62385SOL    HW2 4766   9.286   1.101   4.194 -1.5831  2.0234 -0.0968
62386SOL     OW 4767   2.444   7.467  13.241 -0.2280  0.5286  0.5145
62386SOL    HW1 4768   2.510   7.535  13.232 -0.8444  1.1546  0.6209
62386SOL    HW2 4769   2.413   7.452  13.151  1.6481 -1.4179  0.1232
62387SOL     OW 4770  11.714  12.340  13.191  0.3412 -0.6239 -0.5681
62387SOL    HW1 4771  11.631  12.300  13.217 -0.3679 -0.0822 -1.8652
62387SOL    HW2 4772  11.743  12.288  13.116  0.6953 -0.2545 -0.6882
62388SOL     OW 4773   8.996   4.860   3.980  0.4403  0.1464 -0.5573
62388SOL    HW1 4774   8.929   4.902   3.927  0.4169 -0.5554 -1.0963
62388SOL    HW2 4775   9.060   4.929   3.997 -1.5423  1.5634  2.0234
62389SOL     OW 4776  10.424  12.674   8.230  0.0650 -0.1076 -0.5206
62389SOL    HW1 4777  10.396  12.677   8.322 -0.3230 -0.4305 -0.6259
62389SOL    HW2 4778  10.455  12.763   8.212 -0.7176  0.2126 -0.3411
62390SOL     OW 4779   0.127   0.996  12.379  0.7285 -0.0854 -0.2625
62390SOL    HW1 4780   0.069   0.922  12.398  0.1111 -0.0405 -1.7791
62390SOL    HW2 4781   0.110   1.016  12.286  0.9384  1.8979  0.0758
62391SOL     OW 4782   9.845   5.273   5.618  0.7114  0.4437  0.1199
62391SOL    HW1 4783   9.763   5.255   5.573 -0.3303  0.8134  1.8084
62391SOL    HW2 4784   9.851   5.368   5.622  0.6757  0.4187  0.9494
62392SOL     OW 4785   6.477   2.707   4.345  0.0110  0.7243  0.4432
62392SOL    HW1 4786   6.516   2.641   4.402  0.9283 -0.0545 -1.0277
62392SOL    HW2 4787   6.396   2.667   4.312  0.0513  0.7269  0.3387
62393SOL     OW 4788  10.068  10.182  12.920 -0.4744 -0.2056 -0.3808
62393SOL    HW1 4789  10.101  10.116  12.858  0.0122  1.2077 -1.6771
62393SOL    HW2 4790  10.139  10.191  12.984 -1.0574 -1.8114  0.5609
62394SOL     OW 4791   2.991  11.882   4.045  0.1084  0.0986  0.1680
62394SOL    HW1 4792   3.021  11.803   4.090  1.7828 -0.1661 -1.3090
62394SOL    HW2 4793   2.960  11.940   4.115 -0.0773 -1.4105  1.3657
62395SOL     OW 4794  13.400   6.840  13.335 -0.2428 -0.1886  0.2201
62395SOL    HW1 4795  13.355   6.761  13.364  0.5611 -0.6917  0.1270
62395SOL    HW2 4796  13.484   6.838  13.381 -0.5637  1.0853  0.9148
62396SOL     OW 4797  10.866  12.763   1.238  0.7503 -0.0810 -0.3549
62396SOL    HW1 4798  10.827  12.779   1.152  0.7577  2.1186 -0.0157
62396SOL    HW2 4799  10.911  12.845   1.259 -0.8188  0.1683  2.5645
62397SOL     OW 4800   8.738  13.454   3.138  0.5675  0.7417 -0.3696
62397SOL    HW1 4801   8.688  13.517   3.191 -0.7035  0.2724 -0.9665
62397SOL    HW2 4802   8.682  13.377   3.134  0.9573  0.5114 -1.7805
62398SOL     OW 4803   6.584  10.330  13.335 -0.3941  0.3500 -0.0406
62398SOL    HW1 4804   6.490  10.343  13.343 -0.3005  0.3693  1.1251
62398SOL    HW2 4805   6.623  10.396  13.392  0.2827 -0.3618  0.3517
62399SOL     OW 4806   9.777   9.786   6.606 -0.3388  0.1778 -0.3009
62399SOL    HW1 4807   9.738   9.771   6.692 -0.1321 -0.5616 -0.3385
62399SOL    HW2 4808   9.714   9.844   6.562 -0.9801 -0.3175 -0.0496
62400SOL     OW 4809   6.345  12.686  11.226  0.0813  0.1605 -0.1555
62400SOL    HW1 4810   6.361  12.681  11.320 -0.2296  0.0664 -0.1101
62400SOL    HW2 4811   6.252  12.667  11.215 -0.1009  1.1279 -0.3906
62401SOL     OW 4812   1.892  13.254   6.766 -0.1193  0.3787 -0.1323
62401SOL    HW1 4813   1.887  13.341   6.728  0.5153 -0.3152 -1.8741
62401SOL    HW2 4814   1.801  13.228   6.779 -0.3203  1.6337  1.3156
62402SOL     OW 4815   7.758   0.221   7.666 -0.6469  0.7499 -0.1643
62402SOL    HW1 4816   7.790   0.165   7.737 -1.7001 -0.5551 -0.6647
62402SOL    HW2 4817   7.835   0.243   7.615 -0.0560  0.6863  0.6744
62403SOL     OW 4818  11.721   2.873   7.546 -0.0331 -0.5976  0.3885
62403SOL    HW1 4819  11.694   2.782   7.560 -0.5283 -0.6810 -0.9056
62403SOL    HW2 4820  11.640   2.923   7.549  0.3260 -0.0528  1.9190
62404SOL     OW 4821   4.032   2.392  11.686  0.4174  0.2975  0.4371
62404SOL    HW1 4822   4.105   2.331  11.692 -0.6330 -0.9857  0.4318
62404SOL    HW2 4823   4.030   2.418  11.594 -1.0346 -2.1166 -0.2817
62405SOL     OW 4824   2.152   3.241   6.915 -0.3036  0.3569  0.0916
62405SOL    HW1 4825   2.175   3.329   6.886 -0.8099  0.6515  0.5773
62405SOL    HW2 4826   2.092   3.254   6.988  2.6687 -0.3098  2.8858
62406SOL     OW 4827   5.406   1.165  10.735  0.1061  0.3433  0.6724
62406SOL    HW1 4828   5.487   1.114  10.740  0.5252  0.8274 -0.5497
62406SOL    HW2 4829   5.410   1.224  10.810 -0.5105 -1.5187  2.2672
62407SOL     OW 4830   2.943   2.886  13.237 -0.4161  0.0428  0.3944
62407SOL    HW1 4831   2.942   2.806  13.184  2.0679  1.0371 -1.3271
62407SOL    HW2 4832   2.858   2.886  13.281 -1.6979 -2.0610 -1.8065
62408SOL     OW 4833   3.725   7.852   2.612  0.4712 -0.0554  0.1480
62408SOL    HW1 4834   3.766   7.930   2.576 -1.4360  1.0992  0.3640
62408SOL    HW2 4835   3.797   7.804   2.653  1.6980  1.5409 -0.0447
62409SOL     OW 4836  10.734  10.973   5.203  0.3097  0.1825  0.1423
62409SOL    HW1 4837  10.660  11.015   5.249  1.6464  1.1852  1.4741
62409SOL    HW2 4838  10.757  11.035   5.134 -0.2665 -0.2821 -0.4841
62410SOL     OW 4839  11.260   5.292   6.164 -0.0525  0.2241 -0.5500
62410SOL    HW1 4840  11.303   5.246   6.093  0.4520 -0.9838  0.4972
62410SOL    HW2 4841  11.222   5.370   6.123 -0.2324 -0.6964 -2.2241
62411SOL     OW 4842   3.117  13.693   6.811  0.0399 -0.2803 -0.2809
62411SOL    HW1 4843   3.099  13.622   6.872 -2.2922 -0.1851 -0.7860
62411SOL    HW2 4844   3.072  13.669   6.731  0.4285  1.0910 -0.9501
62412SOL     OW 4845  12.321   8.261   6.782  0.0839 -0.0556  0.2728
62412SOL    HW1 4846  12.377   8.328   6.823  0.0995  0.2771 -0.2759
62412SOL    HW2 4847  12.235   8.303   6.777  0.2509  0.1907 -0.6947
62413SOL     OW 4848  10.051   2.904   7.818  0.4084  0.8279 -0.0605
62413SOL    HW1 4849  10.003   2.979   7.855 -2.8690 -1.1412  0.1385
62413SOL    HW2 4850  10.059   2.843   7.891  0.2579 -0.2092 -0.8864
62414SOL     OW 4851   7.785   4.338   1.343  0.0307  0.5379 -0.3824
62414SOL    HW1 4852   7.830   4.253   1.345  0.0854  0.5729  0.8001
62414SOL    HW2 4853   7.759   4.353   1.434 -0.0683  1.7416 -0.5938
62415SOL     OW 4854  12.243   9.346  11.774  0.1165 -0.5936 -0.1960
62415SOL    HW1 4855  12.160   9.386  11.799 -0.0210 -1.8162  1.4824
62415SOL    HW2 4856  12.275   9.304  11.854  1.2095 -2.1301 -1.3617
62416SOL     OW 4857   3.720  11.507  11.932  0.3138 -0.4314  0.0184
62416SOL    HW1 4858   3.698  11.445  12.001  0.0937  0.2133  0.5340
62416SOL    HW2 4859   3.815  11.503  11.925  0.5586  0.9557  1.7753
62417SOL     OW 4860  10.759   3.547   5.423 -0.4399  0.0910  0.1535
62417SOL    HW1 4861  10.796   3.475   5.372  0.3875 -0.9578  2.1308
62417SOL    HW2 4862  10.696   3.588   5.364 -1.6763 -2.8480 -0.7315
62418SOL     OW 4863   4.805   7.487   3.239 -0.2037 -0.0513  0.4445
62418SOL    HW1 4864   4.733   7.532   3.284 -0.2200  0.9741 -0.5612
62418SOL    HW2 4865   4.883   7.513   3.288 -0.4067 -0.3486  0.9289
62419SOL     OW 4866  13.397   6.646  10.684 -0.5979 -0.2112 -0.4010
62419SOL    HW1 4867  13.491   6.629  10.679 -0.6151 -1.2691  1.6295
62419SOL    HW2 4868  13.358   6.579  10.628 -0.1732  0.0177 -0.9814
62420SOL     OW 4869  10.515   0.237  12.116 -0.0540 -0.2101 -0.2730
62420SOL    HW1 4870  10.544   0.328  12.108 -1.0505  0.2158  0.7272
62420SOL    HW2 4871  10.542   0.196  12.034 -0.6531  1.2909 -1.2666
62421SOL     OW 4872   8.465  13.379   7.899 -0.0129 -0.2335 -0.1062
62421SOL    HW1 4873   8.533  13.387   7.966  1.0949 -0.1169 -1.1997
62421SOL    HW2 4874   8.502  13.319   7.834 -1.4530 -1.1044 -0.1647
62422SOL     OW 4875  12.755  11.214   8.113  0.1474  0.3942  0.8447
62422SOL    HW1 4876  12.678  11.263   8.143  0.2357 -0.6168  2.9311
62422SOL    HW2 4877  12.718  11.138   8.067 -0.0240  1.2057 -0.3998
62423SOL     OW 4878   2.141   3.508   0.363  0.0732  0.3681  0.0656
62423SOL    HW1 4879   2.116   3.415   0.356  0.4126  0.2913 -0.1555
62423SOL    HW2 4880   2.149   3.538   0.273 -0.5286  0.7530  0.1369
62424SOL     OW 4881  10.952   4.668   2.368 -0.1776  0.3281 -0.1991
62424SOL    HW1 4882  11.012   4.663   2.294 -0.9775  0.7561 -0.8920
62424SOL    HW2 4883  10.962   4.758   2.402  0.4831  0.0109  0.4810
62425SOL     OW 4884   5.306   9.864  10.408  0.1503  0.4146  0.3779
62425SOL    HW1 4885   5.348   9.912  10.337 -0.5337  1.3376  0.5776
62425SOL    HW2 4886   5.357   9.885  10.486  1.4829 -1.3557  0.0422
62426SOL     OW 4887  10.484   3.533   4.718 -0.7475  0.0122 -0.1522
62426SOL    HW1 4888  10.494   3.483   4.799 -0.6259 -0.8318 -0.6755
62426SOL    HW2 4889  10.552   3.499   4.660 -1.3948 -0.0184 -0.9091
62427SOL     OW 4890  10.396   0.268  13.798 -0.9456 -0.0000  0.1439
62427SOL    HW1 4891  10.309   0.235  13.823 -1.4264 -0.4372 -1.9135
62427SOL    HW2 4892  10.452   0.247  13.873 -2.2465 -1.2685  0.8169
62428SOL     OW 4893   7.254  13.375   1.349 -0.2973  0.4317  0.1157
62428SOL    HW1 4894   7.238  13.290   1.391  2.5163  0.6572  1.8946
62428SOL    HW2 4895   7.245  13.357   1.255 -0.6496 -1.6137  0.4956
62429SOL     OW 4896  12.185   2.368   4.716  0.3072  0.4619 -0.3295
62429SOL    HW1 4897  12.139   2.293   4.754 -0.5846  1.0683 -0.1967
62429SOL    HW2 4898  12.218   2.416   4.791 -0.4013  1.0006 -0.3592
62430SOL     OW 4899  11.278   9.182   1.005  0.5491  0.0141 -0.3892
62430SOL    HW1 4900  11.194   9.180   0.960  0.5601 -0.9743 -0.3939
62430SOL    HW2 4901  11.260   9.142   1.090  0.8808  0.3863 -0.1389
62431SOL     OW 4902   4.291   0.466   5.811 -0.0508 -0.4768 -0.3143
62431SOL    HW1 4903   4.296   0.481   5.906  0.3528  0.7202 -0.5126
62431SOL    HW2 4904   4.376   0.427   5.789  1.9764  3.7269 -0.8931
62432SOL     OW 4905   5.942  12.205  13.272  0.3095  0.1677  0.4420
62432SOL    HW1 4906   5.871  12.269  13.264 -0.5393 -0.5793  1.6212
62432SOL    HW2 4907   6.012  12.239  13.215 -0.6073  1.4428  0.0316
62433SOL     OW 4908   9.744  11.136   9.480 -0.3066 -0.0727  0.3646
62433SOL    HW1 4909   9.724  11.091   9.562  0.3810  0.3495  0.7806
62433SOL    HW2 4910   9.675  11.202   9.471 -1.1760 -1.0350 -0.1216
62434SOL     OW 4911  13.510   1.229   1.528 -0.7969 -0.0218  0.1850
62434SOL    HW1 4912  13.469   1.271   1.452 -0.4468 -1.4734 -0.8487
62434SOL    HW2 4913  13.582   1.178   1.490 -1.0395 -1.3153  1.4247
62435SOL     OW 4914   5.839   1.465  10.877 -0.2493  0.2035 -0.5961
62435SOL    HW1 4915   5.785   1.480  10.954  0.3954  0.0841 -0.1102
62435SOL    HW2 4916   5.886   1.548  10.864  0.1151  0.0161 -0.4795
62436SOL     OW 4917   8.718   9.538   7.039  0.2540  0.6712 -0.2650
62436SOL    HW1 4918   8.687   9.480   7.109  1.3950 -0.8924 -0.9983
62436SOL    HW2 4919   8.813   9.542   7.051  0.1604  2.7799  0.0200
62437SOL     OW 4920  13.604   2.343  10.498 -0.2167 -0.5118 -0.0743
62437SOL    HW1 4921  13.636   2.422  10.454  0.9592 -1.5214 -1.0865
62437SOL    HW2 4922  13.659   2.334  10.575 -2.9109  1.8217  2.3896
62438SOL     OW 4923   7.196   7.888   7.866  0.2321  0.2200 -0.4197
62438SOL    HW1 4924   7.215   7.808   7.817  1.0129 -0.5302  1.0475
62438SOL    HW2 4925   7.249   7.955   7.823  1.4635 -0.5707 -0.2107
62439SOL     OW 4926  13.415   1.763   5.645 -0.0349 -0.0112  0.0608
62439SOL    HW1 4927  13.465   1.827   5.696 -1.6716  0.7794  0.7588
62439SOL    HW2 4928  13.431   1.788   5.554  0.3692  0.6015  0.2906
62440SOL     OW 4929   7.476  13.686   3.171 -0.5059 -0.8179 -0.7310
62440SOL    HW1 4930   7.543  13.647   3.115 -1.9948  1.1876 -4.1857
62440SOL    HW2 4931   7.517  13.765   3.206 -0.3295 -0.8232 -0.9236
62441SOL     OW 4932   8.464   8.920  10.684  0.4474 -0.2072 -0.6775
62441SOL    HW1 4933   8.490   8.925  10.593 -1.5255  0.7216 -1.2439
62441SOL    HW2 4934   8.493   8.833  10.713 -0.7984 -1.4173 -2.8322
62442SOL     OW 4935  13.479  11.059  11.410  0.1400 -0.1907 -0.7837
62442SOL    HW1 4936  13.418  11.069  11.337 -1.4390 -0.2043  0.4864
62442SOL    HW2 4937  13.424  11.061  11.488  1.7399 -0.5636  0.4071
62443SOL     OW 4938   7.659   3.601  11.313  0.0291  0.4933 -0.1898
62443SOL    HW1 4939   7.673   3.673  11.375  0.6194  0.6774 -0.5279
62443SOL    HW2 4940   7.653   3.645  11.228  0.7277  0.1112 -0.4377
62444SOL     OW 4941   3.459   3.824   0.109  0.1982 -0.1792  0.2918
62444SOL    HW1 4942   3.506   3.771   0.045  0.0706 -1.8046  1.4782
62444SOL    HW2 4943   3.514   3.823   0.187  0.5062  2.0385  0.1887
62445SOL     OW 4944   0.461  11.759   2.533  0.1604  0.2000 -0.1698
62445SOL    HW1 4945   0.467  11.854   2.543 -2.6287  0.4961 -0.7761
62445SOL    HW2 4946   0.526  11.725   2.596  0.2192  2.4572  1.0938
62446SOL     OW 4947  11.270   6.525   7.277  0.6346 -0.2852 -1.0028
62446SOL    HW1 4948  11.328   6.599   7.261  2.2465 -1.3998 -0.6516
62446SOL    HW2 4949  11.321   6.467   7.334 -1.0666 -1.0602 -0.1933
62447SOL     OW 4950   2.216  13.532   0.452 -0.4693 -0.2046  0.0256
62447SOL    HW1 4951   2.306  13.501   0.457 -0.4870 -0.2084  0.3557
62447SOL    HW2 4952   2.204  13.556   0.361  0.1523  0.6555  0.1552
62448SOL     OW 4953   4.812   1.998   3.644 -0.1915  0.0865  0.1680
62448SOL    HW1 4954   4.854   1.959   3.568  0.5802 -1.2029  1.2027
62448SOL    HW2 4955   4.883   2.044   3.690 -0.7328  1.2243 -0.0877
62449SOL     OW 4956   3.787   2.779   1.924  1.0744  0.0745  0.0092
62449SOL    HW1 4957   3.770   2.717   1.852  3.5176 -0.8751  0.1783
62449SOL    HW2 4958   3.773   2.727   2.003 -0.4738  0.8108  0.2640
62450SOL     OW 4959  12.596   3.626  13.393  0.1215  0.1828  0.1696
62450SOL    HW1 4960  12.568   3.638  13.483  3.2539  1.5781  1.0953
62450SOL    HW2 4961  12.534   3.678  13.342 -2.1513 -1.2189  1.3323
62451SOL     OW 4962   7.087  12.427   9.396  0.0264  0.0061  0.5058
62451SOL    HW1 4963   7.141  12.365   9.347 -0.6320  0.3212 -0.6397
62451SOL    HW2 4964   7.150  12.490   9.431  0.5874 -0.6710  0.7478
62452SOL     OW 4965   8.799   2.948   4.884  0.6579  0.4703 -0.7132
62452SOL    HW1 4966   8.761   2.907   4.807  2.2261 -0.1133 -1.2337
62452SOL    HW2 4967   8.727   2.994   4.926 -0.1136  1.4451 -2.9271
62453SOL     OW 4968  14.038   5.291   2.261 -0.3000  0.0903 -0.0988
62453SOL    HW1 4969  14.066   5.258   2.176  0.5715 -2.1328  0.9739
62453SOL    HW2 4970  14.110   5.347   2.290 -0.1492  0.0472 -0.3857
62454SOL     OW 4971  13.785  13.052  11.298 -0.2261 -0.1076 -0.2233
62454SOL    HW1 4972  13.828  13.136  11.281  0.8493 -0.9241 -1.7991
62454SOL    HW2 4973  13.696  13.075  11.325  0.1180  1.5335 -0.4064
62455SOL     OW 4974   5.901  13.715  11.176 -0.4259 -0.2212  0.6080
62455SOL    HW1 4975   5.833  13.679  11.119 -1.1895 -0.0723  1.4205
62455SOL    HW2 4976   5.956  13.639  11.197 -1.1182 -0.6159  1.0340
62456SOL     OW 4977   4.344   0.845  11.943 -0.1474 -0.2759  0.3095
62456SOL    HW1 4978   4.326   0.915  11.880 -0.8764 -0.4950  0.2726
62456SOL    HW2 4979   4.297   0.870  12.022  0.2967 -0.2944  0.5851
62457SOL     OW 4980   2.079   1.912   8.954 -0.0732  0.2938 -0.1414
62457SOL    HW1 4981   2.030   1.844   8.999 -0.7888  1.1660  0.4313
62457SOL    HW2 4982   2.119   1.963   9.024  1.0891  0.0315 -0.5819
62458SOL     OW 4983   3.664   4.140   3.572 -0.1043 -0.2051  0.4134
62458SOL    HW1 4984   3.728   4.071   3.556 -1.0036 -1.0365  0.3096
62458SOL    HW2 4985   3.716   4.220   3.580  0.9996 -0.9801  1.1418
62459SOL     OW 4986   0.817   6.376   6.448  0.5812  0.2889 -0.0219
62459SOL    HW1 4987   0.834   6.311   6.380 -0.5283 -0.6928  0.5946
62459SOL    HW2 4988   0.744   6.428   6.414 -1.5291 -1.6459  1.2737
62460SOL     OW 4989   8.396  14.054   3.747  0.2426 -0.4185 -0.5865
62460SOL    HW1 4990   8.426  14.109   3.819  1.5026  0.7384 -1.9358
62460SOL    HW2 4991   8.304  14.036   3.768  0.1712  1.0738  0.5869
62461SOL     OW 4992  10.322   1.313   8.746 -0.3921  0.7035  0.1033
62461SOL    HW1 4993  10.237   1.268   8.744 -0.3606  0.6692 -1.1056
62461SOL    HW2 4994  10.326   1.351   8.834 -0.7103 -1.1037  0.9730
62462SOL     OW 4995  13.967   3.110   0.650  0.1655 -0.5421 -0.0468
62462SOL    HW1 4996  13.975   3.114   0.554  0.9739  0.2705  0.0364
62462SOL    HW2 4997  13.929   3.194   0.674  1.9030  0.1466  0.4899
62463SOL     OW 4998   3.056   9.971   6.806 -0.0647  0.3395  0.0884
62463SOL    HW1 4999   3.066   9.909   6.733  2.2372 -1.1456  1.5656
62463SOL    HW2 5000   3.103  10.049   6.777 -2.3423  1.2619 -1.4700
62464SOL     OW 5001  11.254   4.551   8.536  0.1857 -0.2142 -0.7242
62464SOL    HW1 5002  11.262   4.607   8.613  0.8487 -1.2412 -0.0303
62464SOL    HW2 5003  11.192   4.597   8.479 -1.0028  0.1285  0.7878
62465SOL     OW 5004  10.977  10.980  13.406  0.1378 -0.1575 -0.1491
62465SOL    HW1 5005  10.938  11.005  13.490  0.1890 -1.8841  0.4251
62465SOL    HW2 5006  10.998  11.063  13.364 -2.4059  0.8303  0.3388
62466SOL     OW 5007  12.174   9.239   1.318  0.4751 -0.1513  0.2811
62466SOL    HW1 5008  12.097   9.257   1.371  0.5774 -0.5189  0.5534
62466SOL    HW2 5009  12.203   9.152   1.345  2.1638  0.7841  1.6239
62467SOL     OW 5010   2.339   9.404  12.107  0.5472  0.0325  0.3039
62467SOL    HW1 5011   2.353   9.327  12.162 -1.4260  0.5977  1.7015
62467SOL    HW2 5012   2.244   9.417  12.106  0.7678  2.0773 -0.4253
62468SOL     OW 5013   2.745   1.163   9.208 -0.4401 -0.0679 -0.1725
62468SOL    HW1 5014   2.787   1.082   9.236  0.5485  0.4348 -0.1505
62468SOL    HW2 5015   2.654   1.139   9.193 -0.6039 -0.7813  1.6513
62469SOL     OW 5016  10.509   5.395  12.504  0.1543 -0.2206  0.2581
62469SOL    HW1 5017  10.464   5.328  12.453  0.3868 -0.2580  0.1032
62469SOL    HW2 5018  10.499   5.475  12.452 -1.5521  0.2490  1.2077
62470SOL     OW 5019  12.833   8.673   3.503  0.0810  0.3522  0.1425
62470SOL    HW1 5020  12.774   8.735   3.545  0.8974 -0.0845  2.0548
62470SOL    HW2 5021  12.883   8.726   3.440 -0.7048  1.1822  0.2032
62471SOL     OW 5022   8.218  11.240   9.307  0.1347 -0.0542  0.2992
62471SOL    HW1 5023   8.270  11.312   9.270 -0.5471 -0.6736 -2.0240
62471SOL    HW2 5024   8.263  11.161   9.278 -1.4932 -0.5847 -0.8986
62472SOL     OW 5025   0.327   5.022   4.838 -0.5640  0.7427 -0.7242
62472SOL    HW1 5026   0.313   4.966   4.762 -3.0970 -0.5691  0.5948
62472SOL    HW2 5027   0.354   4.961   4.908 -0.2772  1.6265 -0.0434
62473SOL     OW 5028   2.053   9.918   7.803 -0.1883  0.3061 -0.0139
62473SOL    HW1 5029   2.006   9.896   7.722 -0.3889 -0.3090  0.2640
62473SOL    HW2 5030   1.988   9.963   7.857 -0.0285  0.7999 -0.2252
62474SOL     OW 5031   8.537   2.008   4.712  0.5315  0.2462  0.4873
62474SOL    HW1 5032   8.511   1.938   4.651  0.7401  0.3525  0.2758
62474SOL    HW2 5033   8.558   1.962   4.793  0.6973  0.0575  0.3395
62475SOL     OW 5034  13.222   3.483   5.574  0.0056  0.3655 -0.2977
62475SOL    HW1 5035  13.315   3.500   5.561  0.3504  1.2984  2.7014
62475SOL    HW2 5036  13.219   3.395   5.613 -0.4000  0.2921 -0.4900
62476SOL     OW 5037   0.769   5.681   0.317 -0.2622  0.2359 -0.4492
62476SOL    HW1 5038   0.682   5.713   0.293 -0.7098  2.3435  3.3154
62476SOL    HW2 5039   0.762   5.586   0.309 -2.9566  0.3405 -0.2244
62477SOL     OW 5040   1.043  12.875  11.517  0.1152 -0.3301  0.0381
62477SOL    HW1 5041   1.118  12.882  11.577  0.5221 -0.5201 -0.4376
62477SOL    HW2 5042   1.034  12.781  11.501 -0.6350 -0.3642  0.5868
62478SOL     OW 5043   4.370   2.638  10.352 -0.5423 -0.1948 -0.0389
62478SOL    HW1 5044   4.352   2.570  10.418 -1.7046  0.1142 -0.0181
62478SOL    HW2 5045   4.319   2.713  10.381  0.0264  0.4021 -0.5609
62479SOL     OW 5046   3.822   4.452   2.196  0.1732 -0.5856 -0.4316
62479SOL    HW1 5047   3.859   4.515   2.133  2.2834 -0.2415  1.0420
62479SOL    HW2 5048   3.864   4.369   2.174 -1.2498 -1.1197 -1.2344
62480SOL     OW 5049   1.761   1.906   9.302  0.0990 -0.5259 -0.3397
62480SOL    HW1 5050   1.810   1.828   9.327  1.3201 -0.1428 -1.4125
62480SOL    HW2 5051   1.815   1.979   9.334  0.2324 -0.0981 -1.4851
62481SOL     OW 5052  12.549  11.697   4.216  0.0242 -0.5486  0.1763
62481SOL    HW1 5053  12.641  11.679   4.196 -0.3769 -0.8979 -1.5511
62481SOL    HW2 5054  12.514  11.613   4.243  0.3850 -0.2380  1.6975
62482SOL     OW 5055   7.821   1.875   8.025 -0.0338  0.2734  0.2082
62482SOL    HW1 5056   7.824   1.910   7.936 -2.8325  1.3548  0.4601
62482SOL    HW2 5057   7.840   1.782   8.015  3.1846  0.9128 -1.0178
62483SOL     OW 5058  11.516  13.677   1.001  0.5203 -0.1410 -0.1055
62483SOL    HW1 5059  11.536  13.644   0.913 -1.6330 -1.6224 -0.1310
62483SOL    HW2 5060  11.580  13.634   1.058  0.0906 -1.5273 -0.6262
62484SOL     OW 5061  10.308   2.660  13.801  0.3836  0.0366  0.4593
62484SOL    HW1 5062  10.251   2.654  13.724  1.1774 -1.6794 -0.0601
62484SOL    HW2 5063  10.299   2.575  13.844 -0.8916  1.3190  2.9491
62485SOL     OW 5064  13.455   2.706   2.626  0.0950  0.2028  0.2143
62485SOL    HW1 5065  13.406   2.785   2.648  0.2304  0.3234  0.0795
62485SOL    HW2 5066  13.470   2.663   2.711  0.0316  0.3263  0.2881
62486SOL     OW 5067  12.109   9.179   2.161 -0.1859  0.3699  0.0274
62486SOL    HW1 5068  12.179   9.122   2.130  0.4911  0.9002  0.5692
62486SOL    HW2 5069  12.059   9.199   2.082 -1.4369 -2.2525  0.0228
62487SOL     OW 5070   8.226   4.483   0.361 -0.0252  0.5518  0.5373
62487SOL    HW1 5071   8.136   4.483   0.328 -0.6079  1.9325  2.0175
62487SOL    HW2 5072   8.275   4.534   0.297  0.1750 -1.6820 -1.2544
62488SOL     OW 5073  13.601   8.023  12.395  0.5083  0.3071 -0.5184
62488SOL    HW1 5074  13.619   8.053  12.484  0.1111 -0.4553 -0.1789
62488SOL    HW2 5075  13.545   8.091  12.358  0.5565  0.5586 -0.1397
62489SOL     OW 5076   8.406   7.974   6.985  0.2491  0.0479 -0.2613
62489SOL    HW1 5077   8.397   7.961   7.080  0.0929 -0.0379 -0.2874
62489SOL    HW2 5078   8.368   8.060   6.968  0.0922 -0.0249 -0.2760
62490SOL     OW 5079   1.243  11.322  12.781 -0.0869 -0.0880  0.2954
62490SOL    HW1 5080   1.326  11.357  12.748 -2.4280  3.6429 -2.5622
62490SOL    HW2 5081   1.226  11.373  12.860 -0.1681 -0.0610  0.2599
62491SOL     OW 5082   4.113  11.861   2.831 -0.2299  0.6709  0.5628
62491SOL    HW1 5083   4.168  11.907   2.769  0.5555  1.7261  1.9847
62491SOL    HW2 5084   4.025  11.895   2.815 -0.3338 -0.2286 -0.9873
62492SOL     OW 5085   6.888  13.208   6.848  0.0112 -0.4777  0.1473
62492SOL    HW1 5086   6.838  13.196   6.767  0.5554 -1.6536 -0.0349
62492SOL    HW2 5087   6.821  13.213   6.917 -0.4077 -1.9981 -0.0990
62493SOL     OW 5088   2.752  11.276   5.530 -0.3795 -0.5853  0.0581
62493SOL    HW1 5089   2.789  11.194   5.561  1.0055 -0.3252 -0.8073
62493SOL    HW2 5090   2.792  11.343   5.587 -1.7385 -0.4946  0.9687
62494SOL     OW 5091   0.026  12.072   3.036 -0.5844  0.1686 -0.8185
62494SOL    HW1 5092  -0.009  12.122   2.963  0.7547 -1.0043 -2.3495
62494SOL    HW2 5093  -0.026  11.991   3.037 -1.1153  0.5022  0.0644
62495SOL     OW 5094  11.723   2.388   3.949 -0.1249 -0.0984 -0.0854
62495SOL    HW1 5095  11.630   2.376   3.968 -0.6695  0.9219 -1.9227
62495SOL    HW2 5096  11.728   2.471   3.902  1.7611 -0.0017  0.2144
62496SOL     OW 5097  13.264  11.820   4.215  0.0127 -0.1136 -0.0484
62496SOL    HW1 5098  13.304  11.836   4.130  0.9275  0.4804  0.4788
62496SOL    HW2 5099  13.264  11.905   4.259 -0.6565 -0.3647  0.4613
62497SOL     OW 5100   6.421   4.424   5.546 -0.2530 -0.3665 -0.0741
62497SOL    HW1 5101   6.338   4.378   5.561 -0.5843 -0.6647 -2.4229
62497SOL    HW2 5102   6.419   4.447   5.453  2.0983  0.0330 -0.0865
62498SOL     OW 5103  12.773   1.777  12.760 -0.8092  0.0978 -0.3067
62498SOL    HW1 5104  12.865   1.775  12.786 -1.3012 -1.8433  1.5388
62498SOL    HW2 5105  12.724   1.778  12.842 -2.4667 -0.4882 -1.2291
62499SOL     OW 5106  11.443   5.514   2.529 -0.5535 -0.8907  0.1347
62499SOL    HW1 5107  11.473   5.485   2.443 -0.2063  2.5120 -1.0712
62499SOL    HW2 5108  11.446   5.610   2.524  1.4175 -0.4404  4.5897
62500SOL     OW 5109   9.699   5.498   7.561  0.1576 -0.1475  0.1690
62500SOL    HW1 5110   9.708   5.566   7.628  1.0033 -0.2259  0.1409
62500SOL    HW2 5111   9.606   5.497   7.541  0.3641  2.4752 -1.3440
62501SOL     OW 5112   9.835  12.814  13.988  0.0317 -0.0490 -0.2087
62501SOL    HW1 5113   9.831  12.900  13.946  1.1208 -0.2933 -0.8594
62501SOL    HW2 5114   9.823  12.832  14.081  0.2886  0.8181 -0.3369
62502SOL     OW 5115   8.141  12.980   1.791  0.4818  0.4233  0.2436
62502SOL    HW1 5116   8.124  12.901   1.739  0.0649 -0.3620  1.5070
62502SOL    HW2 5117   8.076  12.976   1.861  0.9370  1.5169  0.7472
62503SOL     OW 5118   1.430   2.479   5.124 -0.0596  0.0671 -0.0190
62503SOL    HW1 5119   1.452   2.521   5.208 -0.5855 -0.7842  0.5581
62503SOL    HW2 5120   1.485   2.524   5.060 -0.2624  1.3253  0.6465
62504SOL     OW 5121   9.831   3.347   5.761  0.0223  0.0994  0.3345
62504SOL    HW1 5122   9.781   3.395   5.827  0.2912 -0.2839  0.8233
62504SOL    HW2 5123   9.918   3.338   5.799  0.5490  0.9641 -0.6037
62505SOL     OW 5124  10.227   6.899   2.565  0.0310 -0.1649  0.0198
62505SOL    HW1 5125  10.262   6.930   2.481 -0.5678 -1.5746 -0.7832
62505SOL    HW2 5126  10.289   6.931   2.630  1.4629 -0.5219 -1.1254
62506SOL     OW 5127  12.920   0.851   0.392 -0.7794 -0.1574 -0.2363
62506SOL    HW1 5128  12.911   0.896   0.476  0.4019  0.8055 -0.5974
62506SOL    HW2 5129  12.844   0.880   0.341 -1.0295 -0.0603  0.1867
62507SOL     OW 5130   8.031   8.448   5.813 -0.7145  0.2073 -0.0878
62507SOL    HW1 5131   7.984   8.366   5.799 -0.3111 -0.0396 -0.0085
62507SOL    HW2 5132   8.123   8.425   5.801 -0.6575  0.8239 -0.8896
62508SOL     OW 5133   8.061   0.019   8.054 -0.3930  0.4275 -0.2829
62508SOL    HW1 5134   7.994  -0.028   8.105 -0.4592 -0.9349 -1.5590
62508SOL    HW2 5135   8.139   0.016   8.110 -0.5228 -0.8359 -0.1247
62509SOL     OW 5136   2.962   9.846   0.003  0.3592 -0.0192 -0.3880
62509SOL    HW1 5137   2.914   9.821  -0.076  0.8676 -1.9357 -0.1559
62509SOL    HW2 5138   3.041   9.889  -0.029  0.7717 -1.1688 -0.9817
62510SOL     OW 5139   0.191   0.429   5.956 -0.1807  0.0499 -0.5784
62510SOL    HW1 5140   0.258   0.367   5.984 -1.3591 -0.0997  2.1662
62510SOL    HW2 5141   0.110   0.379   5.959 -0.5798  0.3194 -3.5288
62511SOL     OW 5142   1.789   9.686   4.197 -0.1420 -0.0363  0.4505
62511SOL    HW1 5143   1.782   9.735   4.115 -0.2935  0.4936  0.7755
62511SOL    HW2 5144   1.716   9.717   4.250  0.9459  0.9188  1.4608
62512SOL     OW 5145   9.486   1.144   3.469 -0.3477 -0.1770  0.4159
62512SOL    HW1 5146   9.502   1.148   3.375 -1.1707 -1.5206  0.2050
62512SOL    HW2 5147   9.453   1.232   3.491 -0.3626  0.0775 -0.5821
62513SOL     OW 5148  10.950  12.730  11.351 -0.7788  0.7014  0.6709
62513SOL    HW1 5149  10.928  12.662  11.414  0.5021  0.4950  0.9305
62513SOL    HW2 5150  11.045  12.740  11.359 -0.7420  1.4513 -0.4364
62514SOL     OW 5151   5.701   7.807   1.155  0.4108 -0.1054 -0.0763
62514SOL    HW1 5152   5.662   7.724   1.184 -0.2720  0.6750  1.3229
62514SOL    HW2 5153   5.633   7.847   1.100 -0.4055  0.7865  1.5326
62515SOL     OW 5154   4.335  12.021   8.997 -0.5372  0.3998 -0.1681
62515SOL    HW1 5155   4.307  11.946   8.945 -3.3083  0.3510  1.2358
62515SOL    HW2 5156   4.283  12.016   9.077 -0.6212  3.6386  0.0980
62516SOL     OW 5157   6.385   8.338   5.286 -0.4487 -0.3571  0.1072
62516SOL    HW1 5158   6.307   8.354   5.233  0.3164  0.2607 -0.8663
62516SOL    HW2 5159   6.396   8.417   5.338  0.8557  0.5706 -1.5073
62517SOL     OW 5160  10.360  13.202   4.295 -0.1920 -0.9458  0.4872
62517SOL    HW1 5161  10.334  13.209   4.203 -0.8294  0.1706  0.7345
62517SOL    HW2 5162  10.323  13.119   4.324 -0.8669 -0.8232  0.0022
62518SOL     OW 5163  12.805   9.695   2.458  0.1832 -0.1252 -0.0754
62518SOL    HW1 5164  12.788   9.708   2.364 -0.5119 -0.1025  0.0494
62518SOL    HW2 5165  12.766   9.771   2.500 -0.4145 -0.6381  0.3174
62519SOL     OW 5166  10.327   3.968   4.554 -0.1626 -0.1869  0.8079
62519SOL    HW1 5167  10.416   3.947   4.580  1.2911  2.8352 -1.1027
62519SOL    HW2 5168  10.304   4.046   4.605 -0.7471  0.4697 -0.4056
62520SOL     OW 5169   5.408  13.687   2.058 -0.5054 -0.1487 -0.1404
62520SOL    HW1 5170   5.396  13.654   2.147 -0.9339  1.5697  0.4853
62520SOL    HW2 5171   5.365  13.773   2.059  1.7400  1.0819 -1.2331
62521SOL     OW 5172  10.980  13.114  12.679  0.5351  0.1440  0.2354
62521SOL    HW1 5173  10.896  13.092  12.718  0.9933  2.5787  2.8959
62521SOL    HW2 5174  11.045  13.086  12.744  1.4873  2.1937  0.2478
62522SOL     OW 5175   2.651  10.048  13.197 -0.0018 -0.4161  0.5607
62522SOL    HW1 5176   2.705  10.001  13.134  0.5060  2.3294 -1.2365
62522SOL    HW2 5177   2.669  10.140  13.180 -2.3778  0.5338  2.5168
62523SOL     OW 5178   5.780   7.772  14.063  0.0174  0.6871 -0.3147
62523SOL    HW1 5179   5.809   7.859  14.036 -0.2968  0.5780 -1.0472
62523SOL    HW2 5180   5.820   7.713  14.000  0.5018  0.2623  0.3855
62524SOL     OW 5181  10.847   1.082  11.824 -0.1059 -0.4582 -0.2359
62524SOL    HW1 5182  10.860   1.125  11.909 -2.2860  0.4957 -0.3080
62524SOL    HW2 5183  10.754   1.060  11.822  0.0707 -1.2407 -2.0411
62525SOL     OW 5184  10.104   4.882   1.761 -0.0924 -0.1619 -0.1902
62525SOL    HW1 5185  10.072   4.936   1.689  0.1506 -0.2404 -0.3613
62525SOL    HW2 5186  10.161   4.941   1.811 -2.1128  0.6102  1.3421
62526SOL     OW 5187  11.830   6.836   7.400  0.4866  0.3934 -0.3950
62526SOL    HW1 5188  11.801   6.796   7.482 -0.9699  1.5809 -0.2775
62526SOL    HW2 5189  11.797   6.777   7.332  1.5029 -0.4770 -0.1498
62527SOL     OW 5190  11.562  12.406   7.211  0.3504  0.8152  0.3973
62527SOL    HW1 5191  11.609  12.363   7.283  1.8632 -0.0602 -1.0466
62527SOL    HW2 5192  11.476  12.426   7.247 -0.1065 -2.5431  1.4574
62528SOL     OW 5193  14.041  12.131   8.505 -0.8959 -0.2187  0.2696
62528SOL    HW1 5194  14.039  12.037   8.488  2.3195 -0.3170  0.0043
62528SOL    HW2 5195  14.059  12.171   8.420 -0.9503  0.5647  0.6162
62529SOL     OW 5196  11.175  10.099   1.489  0.0852 -0.4023 -0.3159
62529SOL    HW1 5197  11.192  10.012   1.451 -1.1398  0.2242 -2.4196
62529SOL    HW2 5198  11.103  10.134   1.437 -1.1041  0.9150  2.0877
62530SOL     OW 5199   2.039   8.794   2.899 -0.1970  0.1905 -0.0115
62530SOL    HW1 5200   2.023   8.880   2.858 -2.4863 -0.4523 -0.6267
62530SOL    HW2 5201   2.123   8.766   2.864 -0.0603  1.5715 -0.8772
62531SOL     OW 5202  12.241  12.201  11.391 -0.3716 -0.5036  0.5817
62531SOL    HW1 5203  12.245  12.295  11.410  1.1665 -0.7002  1.4479
62531SOL    HW2 5204  12.179  12.193  11.319  1.1749  1.4411 -1.0712
62532SOL     OW 5205   3.766   1.927   3.352  0.2288  0.5222 -0.0367
62532SOL    HW1 5206   3.780   1.833   3.348  0.3655  0.5779 -1.4976
62532SOL    HW2 5207   3.703   1.945   3.282  0.0165  1.4834  0.3778
62533SOL     OW 5208   0.043  11.903   6.204  0.0294 -0.8573 -0.0368
62533SOL    HW1 5209   0.047  11.999   6.200 -0.8506 -0.7928  0.3692
62533SOL    HW2 5210   0.109  11.874   6.141 -0.3335  0.0234 -0.8519
62534SOL     OW 5211   8.675  12.238  13.213 -0.5986 -0.5562  0.4920
62534SOL    HW1 5212   8.647  12.196  13.132  0.9841 -0.7570  0.0246
62534SOL    HW2 5213   8.748  12.184  13.244 -0.5804  0.0529  1.5515
62535SOL     OW 5214   0.618   9.337  13.805 -0.2382  0.2751 -0.6686
62535SOL    HW1 5215   0.568   9.255  13.807 -1.7497  1.1322  2.2889
62535SOL    HW2 5216   0.624   9.359  13.712 -0.3844 -2.7839 -1.5064
62536SOL     OW 5217   8.970   7.026   9.482 -0.4971  0.0059 -0.2020
62536SOL    HW1 5218   8.953   7.099   9.422 -0.2286  0.2885  0.0582
62536SOL    HW2 5219   8.965   7.066   9.569  0.0109 -0.2105 -0.0722
62537SOL     OW 5220   9.238   6.892   5.682 -0.1421  0.6814 -0.4105
62537SOL    HW1 5221   9.225   6.898   5.777 -1.0594  0.1222 -0.4896
62537SOL    HW2 5222   9.202   6.807   5.658 -1.6905  1.5862 -1.5242
62538SOL     OW 5223   0.767  14.086   3.151 -0.2550 -0.6924  0.4896
62538SOL    HW1 5224   0.822  14.012   3.123  0.5030 -0.3279  0.9973
62538SOL    HW2 5225   0.735  14.124   3.069 -0.1164 -1.1719  0.2043
62539SOL     OW 5226  13.050   7.508  10.425  0.1306 -0.3269 -1.0757
62539SOL    HW1 5227  13.069   7.602  10.425  0.6886 -0.4371 -0.9843
62539SOL    HW2 5228  13.046   7.485  10.332 -1.0934 -0.0061 -1.1191
62540SOL     OW 5229  10.196   4.350   8.611  0.1615  0.8569 -0.3949
62540SOL    HW1 5230  10.136   4.406   8.660 -0.4919  0.2144 -0.4409
62540SOL    HW2 5231  10.249   4.411   8.560 -0.2849  1.4525 -0.1600
62541SOL     OW 5232   0.082   9.680  12.614  0.0705  0.1481 -0.1329
62541SOL    HW1 5233   0.093   9.622  12.689 -0.0445  1.8861  1.2986
62541SOL    HW2 5234   0.171   9.711  12.595  0.4602 -1.9794 -2.2281
62542SOL     OW 5235   7.554   4.179   3.968  0.9368  0.2418  0.4397
62542SOL    HW1 5236   7.597   4.247   4.019  0.5713  1.2778 -0.5893
62542SOL    HW2 5237   7.605   4.100   3.985  0.4491  0.3596  2.9090
62543SOL     OW 5238   6.320  11.867   0.407  0.4401  0.4835  0.0463
62543SOL    HW1 5239   6.353  11.833   0.324  0.6918  2.1871 -0.5994
62543SOL    HW2 5240   6.393  11.916   0.444 -0.3704  1.6705  0.1365
62544SOL     OW 5241   8.490   6.792   9.068 -0.4829 -0.0635  0.3750
62544SOL    HW1 5242   8.401   6.760   9.059  0.2837 -1.7399 -2.1327
62544SOL    HW2 5243   8.536   6.761   8.990  1.7859  2.5714  0.4884
62545SOL     OW 5244  12.648   5.196   3.666  0.3952 -0.5251 -0.6618
62545SOL    HW1 5245  12.715   5.264   3.678 -0.7973  0.5512  0.2926
62545SOL    HW2 5246  12.584   5.214   3.735  0.6521 -3.4537  0.4919
62546SOL     OW 5247  11.248   1.162  13.639 -0.6848 -0.5952  0.0693
62546SOL    HW1 5248  11.321   1.117  13.682  0.3791  0.7733 -0.2409
62546SOL    HW2 5249  11.216   1.223  13.705  0.2897  0.7863 -0.6941
62547SOL     OW 5250  10.296   9.630   3.039  0.4483  0.3990  0.4141
62547SOL    HW1 5251  10.210   9.668   3.059  0.7349  1.0377  0.4391
62547SOL    HW2 5252  10.359   9.692   3.075  0.9472  0.5833 -0.7512
62548SOL     OW 5253  13.807   0.787   1.900 -0.4268  1.1486  0.0266
62548SOL    HW1 5254  13.730   0.732   1.886 -0.2609  0.1016  2.6249
62548SOL    HW2 5255  13.771   0.873   1.921 -0.7393  1.5765 -2.0780
62549SOL     OW 5256   8.199   4.755  11.977  0.6949  0.0520  0.0881
62549SOL    HW1 5257   8.212   4.664  12.004 -0.1152 -0.2733 -0.5452
62549SOL    HW2 5258   8.238   4.807  12.047  0.7564 -0.7742  0.6873
62550SOL     OW 5259  10.309   4.994  11.851 -0.3699  0.5952  0.1402
62550SOL    HW1 5260  10.283   4.953  11.933  2.0822  1.2765  1.3707
62550SOL    HW2 5261  10.392   4.953  11.828  0.6715  2.7010 -0.1660
62551SOL     OW 5262   2.212   1.095   4.010  0.0214  0.6893 -0.5230
62551SOL    HW1 5263   2.171   1.009   4.027  0.6622  0.2859 -0.9769
62551SOL    HW2 5264   2.142   1.148   3.972 -0.0955 -0.0005 -1.3059
62552SOL     OW 5265  11.681   6.312  10.186 -0.1779 -0.5172 -0.1523
62552SOL    HW1 5266  11.704   6.264  10.106  2.1880 -0.7679  0.5988
62552SOL    HW2 5267  11.743   6.385  10.187  0.2618 -0.8811  1.7434
62553SOL     OW 5268  11.082   7.561   3.592  0.0679 -0.1695 -0.2718
62553SOL    HW1 5269  11.066   7.504   3.668  1.1707  0.5654  0.5524
62553SOL    HW2 5270  10.995   7.595   3.569 -0.3057 -0.4882  0.6045
62554SOL     OW 5271   0.808   5.558  11.232 -0.4230 -0.0931  0.2763
62554SOL    HW1 5272   0.775   5.548  11.143  1.1832  0.3984 -0.4099
62554SOL    HW2 5273   0.730   5.559  11.287 -1.3623 -1.9304 -0.9608
62555SOL     OW 5274   0.299   0.886   1.911  0.1187 -0.0783  0.0564
62555SOL    HW1 5275   0.375   0.829   1.905 -0.6665 -1.1459  0.0535
62555SOL    HW2 5276   0.314   0.953   1.844  0.1134 -1.4206 -1.3267
62556SOL     OW 5277  10.654  10.872  11.184 -0.5407 -0.2109  0.0443
62556SOL    HW1 5278  10.591  10.941  11.165 -0.5509 -0.1700  0.2211
62556SOL    HW2 5279  10.630  10.841  11.271  0.3217  0.5256  0.5610
62557SOL     OW 5280   9.566   3.512   0.412 -0.4291 -0.7530  0.3189
62557SOL    HW1 5281   9.637   3.553   0.462 -0.6374 -1.1827  0.9959
62557SOL    HW2 5282   9.606   3.433   0.375 -0.0206  0.0511 -1.0073
62558SOL     OW 5283   6.915   9.088  12.591 -0.2509  0.2197  0.3629
62558SOL    HW1 5284   6.898   9.165  12.538 -0.5498  0.7563  1.2290
62558SOL    HW2 5285   6.990   9.046  12.548  2.5386  3.0860  2.0034
62559SOL     OW 5286   1.177  10.749   9.653  0.5679  0.0820  0.2685
62559SOL    HW1 5287   1.158  10.784   9.740  2.5561  1.6624  0.1563
62559SOL    HW2 5288   1.201  10.826   9.600  1.5700 -1.0501 -1.0365
62560SOL     OW 5289   3.498  12.134   2.747 -0.2814  0.1951  0.0599
62560SOL    HW1 5290   3.538  12.097   2.668 -0.3119 -0.3720  0.3020
62560SOL    HW2 5291   3.488  12.227   2.728  2.7660  0.7284  0.6540
62561SOL     OW 5292   3.370  11.156   8.783  0.3825 -0.2845  0.0263
62561SOL    HW1 5293   3.297  11.200   8.739  1.1596  1.1297  0.1016
62561SOL    HW2 5294   3.353  11.170   8.876 -0.0942 -1.3641  0.1097
62562SOL     OW 5295  12.757   0.422   9.381 -0.1340 -0.5071 -0.0445
62562SOL    HW1 5296  12.806   0.343   9.356  1.2204  0.9087 -2.1800
62562SOL    HW2 5297  12.673   0.414   9.336 -0.5457 -1.3359  0.8444
62563SOL     OW 5298   9.146  11.900  12.086  0.2225  0.3447  0.2909
62563SOL    HW1 5299   9.070  11.872  12.034 -0.0920  0.4314  0.6984
62563SOL    HW2 5300   9.159  11.992  12.063 -0.7606  0.7759  1.3580
62564SOL     OW 5301   0.312   9.047   2.418 -0.1724 -0.3471 -0.1274
62564SOL    HW1 5302   0.267   9.082   2.341 -2.0611 -0.1691  0.9904
62564SOL    HW2 5303   0.320   8.953   2.402 -0.2466 -0.2622 -0.6705
62565SOL     OW 5304   3.618   0.144   9.294 -0.0303  0.3381  0.5524
62565SOL    HW1 5305   3.644   0.053   9.277 -0.0912  0.3129  0.5918
62565SOL    HW2 5306   3.582   0.142   9.383 -1.8267  0.0048 -0.1345
62566SOL     OW 5307   7.337   9.679  13.468  0.3890  0.5661  0.1430
62566SOL    HW1 5308   7.413   9.716  13.424  0.2419  1.7534  0.8434
62566SOL    HW2 5309   7.263   9.732  13.437 -0.6274 -2.1584 -2.5264
62567SOL     OW 5310  10.275   0.727  12.047 -0.6264  0.0284 -0.5138
62567SOL    HW1 5311  10.231   0.652  12.087 -0.8628 -0.3908 -1.5393
62567SOL    HW2 5312  10.333   0.689  11.982  0.6424  0.6321  0.2286
62568SOL     OW 5313   2.549   6.815   3.065  0.5056  0.3889  0.2164
62568SOL    HW1 5314   2.556   6.878   2.993 -0.1579  0.7055  0.4297
62568SOL    HW2 5315   2.484   6.752   3.035  2.5111 -1.3211 -0.8215
62569SOL     OW 5316   5.735   2.480  13.533 -0.0958  0.1003 -0.1563
62569SOL    HW1 5317   5.734   2.401  13.587  2.2557  1.1676  1.6713
62569SOL    HW2 5318   5.791   2.457  13.459  2.7274  0.6540  1.6531
62570SOL     OW 5319   3.551   4.365   9.856  0.2728  0.0151 -0.1549
62570SOL    HW1 5320   3.464   4.378   9.818  1.0493  1.4793 -1.5569
62570SOL    HW2 5321   3.598   4.314   9.790  0.6379 -0.3290  0.3694
62571SOL     OW 5322   8.486  11.042   1.825 -0.4913 -0.1793  0.3784
62571SOL    HW1 5323   8.492  11.123   1.876  0.4059 -0.6074  0.9849
62571SOL    HW2 5324   8.560  11.048   1.763 -0.3086 -0.6086  0.5494
62572SOL     OW 5325   9.498  12.368   8.129  0.0185  0.0878  0.2226
62572SOL    HW1 5326   9.429  12.427   8.098  0.3185 -0.7513 -2.2245
62572SOL    HW2 5327   9.463  12.330   8.209 -2.2618 -0.0625 -0.7659
62573SOL     OW 5328   4.826   7.228   3.307 -0.1394  0.6646  0.5389
62573SOL    HW1 5329   4.874   7.175   3.243 -0.0841 -0.1101  1.2059
62573SOL    HW2 5330   4.833   7.317   3.274  0.7403  0.4081 -0.0088
62574SOL     OW 5331   3.874   7.429   6.725 -0.0020  0.5368  0.3410
62574SOL    HW1 5332   3.802   7.417   6.786  2.5826 -2.1179  3.2132
62574SOL    HW2 5333   3.932   7.492   6.768  1.7358 -1.1575  0.5993
62575SOL     OW 5334   8.203   6.520   0.453 -0.3858 -0.7243  0.0111
62575SOL    HW1 5335   8.182   6.605   0.491  1.2559 -0.6536  0.8725
62575SOL    HW2 5336   8.225   6.540   0.362 -1.3807 -0.4403 -0.1698
62576SOL     OW 5337   8.930  11.118   0.996  0.1301 -0.8908  0.4741
62576SOL    HW1 5338   8.837  11.103   1.010  0.1584 -0.4966  1.1338
62576SOL    HW2 5339   8.962  11.037   0.956 -0.6879 -0.6579 -0.7179
62577SOL     OW 5340   8.184   7.119   0.144 -0.3632  0.0916  0.0670
62577SOL    HW1 5341   8.211   7.209   0.125 -0.3157  0.1549  0.4275
62577SOL    HW2 5342   8.121   7.098   0.074  0.3514  0.0592 -0.5764
62578SOL     OW 5343   6.171  12.882   3.465 -0.2868  0.6237 -0.0383
62578SOL    HW1 5344   6.159  12.789   3.447  0.6319  0.7952 -1.7438
62578SOL    HW2 5345   6.249  12.887   3.520  0.5161  0.4611 -1.1413
62579SOL     OW 5346   0.558   5.437   4.830  1.1690  0.2409  0.0472
62579SOL    HW1 5347   0.596   5.380   4.897 -1.2024 -1.7968 -0.1885
62579SOL    HW2 5348   0.593   5.403   4.748  1.3401  0.4587  0.0294
62580SOL     OW 5349   6.363  12.149   5.500 -0.1736 -0.4284  0.0009
62580SOL    HW1 5350   6.414  12.085   5.451  1.4815  0.1338  0.8934
62580SOL    HW2 5351   6.295  12.177   5.439  2.3754  0.9904 -2.4528
62581SOL     OW 5352   8.540  11.967   5.322  0.4270 -0.5566 -0.2601
62581SOL    HW1 5353   8.508  12.055   5.343  1.4107  0.1472 -1.5637
62581SOL    HW2 5354   8.551  11.925   5.407  0.1503  0.6598  0.4072
62582SOL     OW 5355   5.369   6.074  11.602  0.0161 -0.0342 -0.5450
62582SOL    HW1 5356   5.369   5.980  11.589 -0.7113 -0.3210  1.3196
62582SOL    HW2 5357   5.456   6.102  11.571  1.1425 -1.6409  0.9701
62583SOL     OW 5358   1.277   8.233   8.616  0.2988 -0.0326 -0.7659
62583SOL    HW1 5359   1.317   8.306   8.663 -0.6588 -0.0871  0.1664
62583SOL    HW2 5360   1.260   8.267   8.528  2.8119 -0.1561 -1.3966
62584SOL     OW 5361   7.352   7.770   0.168  0.3583  0.1923 -0.0320
62584SOL    HW1 5362   7.370   7.802   0.256 -1.2742 -0.1776  0.4691
62584SOL    HW2 5363   7.282   7.826   0.136  0.0448 -0.5036 -0.5926
62585SOL     OW 5364   5.389   5.828   4.716  0.0143  0.1311 -0.4152
62585SOL    HW1 5365   5.314   5.849   4.772  0.0653 -0.0545 -0.2761
62585SOL    HW2 5366   5.460   5.810   4.777 -0.0683 -0.6006 -0.5267
62586SOL     OW 5367   8.432   4.260   5.072  0.5683 -0.3196  0.2826
62586SOL    HW1 5368   8.343   4.239   5.098 -0.2505  0.9359 -1.3133
62586SOL    HW2 5369   8.461   4.327   5.134 -0.3216  0.6339 -0.3064
62587SOL     OW 5370   6.051   3.572   0.634  0.1628 -0.2127 -0.0221
62587SOL    HW1 5371   6.045   3.482   0.665 -0.0028 -0.5925 -1.1283
62587SOL    HW2 5372   6.145   3.587   0.623  0.1263 -0.7124 -1.1191
62588SOL     OW 5373   2.532   6.143   8.578 -0.0608  0.2049  0.5760
62588SOL    HW1 5374   2.451   6.093   8.570  0.0235  0.0778  0.4944
62588SOL    HW2 5375   2.580   6.100   8.649  0.0161  0.1634  0.5000
62589SOL     OW 5376  12.444   7.933   0.949  0.6991 -0.3068  0.2009
62589SOL    HW1 5377  12.423   7.970   0.864  0.0585 -0.4790  0.2743
62589SOL    HW2 5378  12.450   8.009   1.008  2.3286 -0.0820 -0.2124
62590SOL     OW 5379   5.879   7.613  10.319 -0.1109  0.1547  0.5765
62590SOL    HW1 5380   5.867   7.665  10.398  1.4856  0.2117  0.8241
62590SOL    HW2 5381   5.922   7.533  10.349 -1.2758 -0.6978  0.0156
62591SOL     OW 5382  12.228   9.228  11.388 -0.3673 -0.0488 -0.1051
62591SOL    HW1 5383  12.227   9.134  11.407 -0.6712  0.0631  0.4445
62591SOL    HW2 5384  12.228   9.233  11.292 -0.0444 -0.6099 -0.1399
62592SOL     OW 5385   7.573  11.548  13.518  0.3128  0.4778 -0.3193
62592SOL    HW1 5386   7.493  11.584  13.556  0.3118  0.7334 -0.5596
62592SOL    HW2 5387   7.564  11.453  13.526  1.2834  0.5293  2.3563
62593SOL     OW 5388   2.002   1.029  11.400 -0.1114  0.3734  0.4814
62593SOL    HW1 5389   2.095   1.040  11.419 -0.4018  1.2522  1.5094
62593SOL    HW2 5390   1.959   1.029  11.486 -0.8846 -2.2424  0.1860
62594SOL     OW 5391  11.375   7.001  14.041  0.1172 -0.2063 -0.5199
62594SOL    HW1 5392  11.389   6.907  14.038  1.2952 -0.0863  0.4759
62594SOL    HW2 5393  11.399   7.032  13.954  0.5713 -0.7237 -0.5817
62595SOL     OW 5394   1.226  12.417   1.177  0.0820  0.4236  0.1085
62595SOL    HW1 5395   1.310  12.376   1.196  0.0076 -0.7194 -1.7296
62595SOL    HW2 5396   1.172  12.400   1.254  1.4453  0.9912  1.2174
62596SOL     OW 5397   2.929   3.201   3.211 -0.0082  0.1704  0.4872
62596SOL    HW1 5398   2.954   3.138   3.144  0.3552 -1.4629  2.0805
62596SOL    HW2 5399   2.937   3.287   3.168  2.6446 -0.6332 -0.8117
62597SOL     OW 5400  10.699   1.494   6.433  0.3604  0.0927 -0.5802
62597SOL    HW1 5401  10.628   1.437   6.403  1.0507 -0.6884 -0.7690
62597SOL    HW2 5402  10.666   1.582   6.420 -0.0561 -0.2366 -1.9705
62598SOL     OW 5403   8.103   9.510   0.131  0.1458 -0.0968  0.0196
62598SOL    HW1 5404   8.082   9.570   0.059  2.6468  1.7761  0.7246
62598SOL    HW2 5405   8.058   9.547   0.207  0.8122  0.2640  0.2385
62599SOL     OW 5406   5.798  13.330  10.840  0.3476  0.7580  0.6060
62599SOL    HW1 5407   5.811  13.416  10.881 -0.2230  0.4247  1.5079
62599SOL    HW2 5408   5.829  13.267  10.906 -0.5755  0.2105  0.5361
62600SOL     OW 5409   5.353   4.551  13.974 -0.6234 -0.4398  0.1952
62600SOL    HW1 5410   5.427   4.510  14.019  0.8109  1.6836 -0.0987
62600SOL    HW2 5411   5.355   4.514  13.886 -0.2223 -0.7614  0.3350
62601SOL     OW 5412   8.962   1.009   1.692  0.3612 -0.2732  0.7084
62601SOL    HW1 5413   9.018   0.946   1.647  1.2199  0.9640 -0.0281
62601SOL    HW2 5414   9.009   1.029   1.773 -0.0978 -0.8406  1.1241
62602SOL     OW 5415   7.951   3.342   9.213  0.3177 -0.5110  0.2847
62602SOL    HW1 5416   7.904   3.291   9.147 -2.8151  0.6418  1.4213
62602SOL    HW2 5417   7.977   3.278   9.279  1.7808 -1.3886 -1.0800
62603SOL     OW 5418   0.101   0.116   0.604  0.2175 -0.8864  0.2820
62603SOL    HW1 5419   0.034   0.153   0.661 -1.5179 -0.3693 -1.9756
62603SOL    HW2 5420   0.177   0.174   0.616 -1.2800  1.3580 -0.5246
62604SOL     OW 5421   8.065  11.736   7.119 -0.0676 -0.0452 -0.0455
62604SOL    HW1 5422   8.094  11.692   7.199 -0.2951  0.7493  0.4811
62604SOL    HW2 5423   8.146  11.754   7.071  0.0585 -0.6561 -0.0789
62605SOL     OW 5424  10.350  13.966  11.200 -0.0188 -0.4213 -0.7645
62605SOL    HW1 5425  10.396  13.891  11.164 -0.5727 -0.6359 -1.0454
62605SOL    HW2 5426  10.315  13.935  11.284  0.3243 -0.2652 -0.5620
62606SOL     OW 5427   6.084   1.546   3.491 -0.1349 -0.5567 -0.2295
62606SOL    HW1 5428   6.101   1.453   3.476  0.4970 -0.9308  2.3418
62606SOL    HW2 5429   6.171   1.585   3.502 -0.4492 -0.1575  1.0714
62607SOL     OW 5430   0.161   8.505   8.257  0.3445 -0.0144 -0.4039
62607SOL    HW1 5431   0.140   8.428   8.309 -3.2851  0.0464 -1.4753
62607SOL    HW2 5432   0.167   8.472   8.167 -0.0383  0.7438 -0.7176
62608SOL     OW 5433   9.494   6.220   0.310  0.6688  0.0948 -0.0681
62608SOL    HW1 5434   9.589   6.229   0.323  0.5038 -1.2204  2.9228
62608SOL    HW2 5435   9.479   6.126   0.307 -0.7723  0.1081  2.9379
62609SOL     OW 5436  10.871  12.999  11.484  0.4079 -0.4819 -0.0551
62609SOL    HW1 5437  10.903  12.961  11.566  0.5300  1.1338  0.6799
62609SOL    HW2 5438  10.881  12.928  11.420  3.4826 -0.7878  0.5683
62610SOL     OW 5439   2.288   1.952  12.222  0.3396  0.4842  0.3154
62610SOL    HW1 5440   2.296   1.870  12.173 -1.2650 -0.5388  1.6277
62610SOL    HW2 5441   2.207   1.991  12.189  0.1764  0.6532  0.9087
62611SOL     OW 5442  11.700   9.380   1.212  0.1484  0.0073  0.4427
62611SOL    HW1 5443  11.744   9.388   1.127 -1.5065 -2.3015 -0.7658
62611SOL    HW2 5444  11.617   9.337   1.191 -1.1349  0.9977  3.0414
62612SOL     OW 5445   5.131  13.122   2.162  0.0001  0.1982 -0.1721
62612SOL    HW1 5446   5.217  13.145   2.198  0.2081  0.7521 -0.9991
62612SOL    HW2 5447   5.133  13.027   2.154 -0.0173  0.0705  1.1832
62613SOL     OW 5448   6.649   3.300   3.216  0.0183  0.2119  0.7221
62613SOL    HW1 5449   6.650   3.276   3.123 -0.5184  1.3514  0.4091
62613SOL    HW2 5450   6.741   3.293   3.243  0.2644  0.3888 -0.0409
62614SOL     OW 5451  12.085   0.727   1.005 -0.0841 -0.2826 -0.0552
62614SOL    HW1 5452  12.116   0.810   0.968 -1.3864 -0.7363 -2.3359
62614SOL    HW2 5453  12.128   0.722   1.090 -0.2821  2.9355  0.3684
62615SOL     OW 5454   3.119   5.135  10.911 -0.0195  0.2484  0.1316
62615SOL    HW1 5455   3.067   5.153  10.832  0.2941  1.5767  0.1959
62615SOL    HW2 5456   3.056   5.102  10.975 -0.4204 -0.0754 -0.4194
62616SOL     OW 5457  10.570   4.226   0.665  0.2342  0.0357  0.3423
62616SOL    HW1 5458  10.517   4.148   0.648  1.2613 -0.5755 -0.2112
62616SOL    HW2 5459  10.660   4.192   0.672  0.7253  1.1976 -0.1054
62617SOL     OW 5460   7.382   2.292   2.055 -0.3918  0.1984 -0.5178
62617SOL    HW1 5461   7.432   2.219   2.018  0.1124  0.9713 -1.4121
62617SOL    HW2 5462   7.386   2.278   2.150 -0.0200 -0.7453 -0.6644
62618SOL     OW 5463   1.052   4.517   3.317 -0.0467  0.3299 -0.5340
62618SOL    HW1 5464   1.104   4.523   3.237  0.8935 -2.3767 -0.1958
62618SOL    HW2 5465   0.965   4.488   3.287  0.0754  0.0772 -0.6440
62619SOL     OW 5466   4.154   6.784   3.340 -0.0481 -0.0187  0.1228
62619SOL    HW1 5467   4.099   6.803   3.416  0.0022  0.9221 -0.0616
62619SOL    HW2 5468   4.094   6.790   3.265  0.0170 -0.4028  0.0362
62620SOL     OW 5469  11.643   5.518   4.831 -0.0953 -0.2750 -0.0702
62620SOL    HW1 5470  11.606   5.452   4.890  1.1854 -1.8465 -0.9622
62620SOL    HW2 5471  11.567   5.555   4.786 -0.8254 -1.2922  0.2866
62621SOL     OW 5472  11.140   9.822   9.392  0.2181  0.3474  0.3307
62621SOL    HW1 5473  11.079   9.874   9.444 -0.0387 -0.1408  0.5201
62621SOL    HW2 5474  11.113   9.836   9.301 -0.6800 -0.4978  0.4585
62622SOL     OW 5475   6.544   6.230   1.369 -0.0202 -0.3004 -0.6664
62622SOL    HW1 5476   6.483   6.304   1.365 -0.8042 -0.9027 -0.0758
62622SOL    HW2 5477   6.524   6.187   1.452 -1.2154 -2.5593 -2.0408
62623SOL     OW 5478   0.915   8.865   4.804  0.2308  0.3697  0.6418
62623SOL    HW1 5479   0.965   8.826   4.876 -0.4647 -0.8699  0.4924
62623SOL    HW2 5480   0.920   8.800   4.734  2.1928  2.1965 -1.0744
62624SOL     OW 5481   9.575   2.660   3.086 -0.2085 -0.1427  0.1798
62624SOL    HW1 5482   9.614   2.725   3.144 -1.2231  0.2607  0.4196
62624SOL    HW2 5483   9.515   2.710   3.030 -0.7382 -0.8168  0.1308
62625SOL     OW 5484   0.072   0.710   6.636  0.3054  0.0065  0.4777
62625SOL    HW1 5485  -0.003   0.684   6.690  1.1576 -2.4691  0.6025
62625SOL    HW2 5486   0.044   0.691   6.546  0.4642 -0.0610  0.4429
62626SOL     OW 5487  13.878  11.368  10.254  0.0066 -0.0723 -0.6222
62626SOL    HW1 5488  13.812  11.310  10.217 -0.5868 -0.7621  1.4023
62626SOL    HW2 5489  13.831  11.420  10.318  1.2584  0.0175  0.2635
62627SOL     OW 5490   7.731   6.954   1.656 -0.0296  0.5965 -0.4403
62627SOL    HW1 5491   7.710   6.912   1.740  0.6353 -1.0876 -1.0766
62627SOL    HW2 5492   7.670   6.914   1.594  1.5189 -0.5042 -1.3240
62628SOL     OW 5493  13.785   0.938   7.817 -0.1309 -0.6979  0.0132
62628SOL    HW1 5494  13.786   0.872   7.886  2.0101  1.2825  2.0174
62628SOL    HW2 5495  13.743   1.015   7.857 -0.7205 -0.1354 -1.5881
62629SOL     OW 5496   5.906   3.242   6.063 -0.0607 -0.4143 -0.1824
62629SOL    HW1 5497   5.874   3.253   5.973 -0.6104 -2.0700 -0.2333
62629SOL    HW2 5498   5.843   3.182   6.103  0.5992 -0.2835  1.0851
62630SOL     OW 5499   1.638   8.099  11.292  0.5918 -0.7725  0.0467
62630SOL    HW1 5500   1.581   8.122  11.219 -0.6154 -1.0676  0.8736
62630SOL    HW2 5501   1.580   8.096  11.368  1.6715 -1.3005  0.8760
62631SOL     OW 5502   2.403   3.590   0.770  0.0832 -0.1192  0.0410
62631SOL    HW1 5503   2.354   3.508   0.774 -0.8329  0.4497  1.1711
62631SOL    HW2 5504   2.353   3.645   0.708  1.4410 -0.8449 -1.7764
62632SOL     OW 5505  12.978  10.860   1.515 -0.1744 -0.3457  0.5545
62632SOL    HW1 5506  13.016  10.939   1.476 -0.6116  0.4405  1.6971
62632SOL    HW2 5507  13.012  10.789   1.460 -0.2983  0.6652 -0.9083
62633SOL     OW 5508   0.279  10.392  12.530 -0.6962 -0.3601  0.2972
62633SOL    HW1 5509   0.246  10.481  12.517 -1.8665 -0.9135 -0.7249
62633SOL    HW2 5510   0.234  10.361  12.608  0.4857  0.2746  1.2624
62634SOL     OW 5511   8.060   9.895  12.969 -0.4016  0.0976  0.0400
62634SOL    HW1 5512   8.140   9.887  13.020 -0.7803  1.2106  0.8446
62634SOL    HW2 5513   8.002   9.827  13.003  0.0981 -0.5405 -0.3683
62635SOL     OW 5514   7.783   1.853   8.414  0.3627  0.2075 -0.3569
62635SOL    HW1 5515   7.694   1.834   8.386  1.1038 -2.5150 -1.1940
62635SOL    HW2 5516   7.806   1.935   8.370 -1.3975  0.4904 -0.7941
62636SOL     OW 5517   6.878   4.939   1.955  0.4121 -0.0731  0.2927
62636SOL    HW1 5518   6.785   4.955   1.939  0.3932 -0.1797  0.2931
62636SOL    HW2 5519   6.896   4.983   2.038  0.9306  2.0665 -0.8675
62637SOL     OW 5520   9.705   6.211  13.130  0.1315 -0.1290  0.1133
62637SOL    HW1 5521   9.694   6.237  13.038  0.6626  1.2373  0.4135
62637SOL    HW2 5522   9.635   6.148  13.145 -1.0336  0.8880 -0.7866
62638SOL     OW 5523   8.571  11.666   0.892  0.5777  0.0046  0.5939
62638SOL    HW1 5524   8.653  11.662   0.942  1.3934  0.6446 -0.6582
62638SOL    HW2 5525   8.588  11.728   0.822 -0.2995 -1.3994 -0.9359
62639SOL     OW 5526   7.128   2.880   6.742  0.0566 -0.4675 -0.0104
62639SOL    HW1 5527   7.185   2.809   6.713 -0.0713 -0.2532 -0.8160
62639SOL    HW2 5528   7.040   2.854   6.713 -0.0027 -0.0232 -0.2400
62640SOL     OW 5529  10.575   1.093   4.226  0.4435  0.4702  0.0389
62640SOL    HW1 5530  10.669   1.078   4.213  0.7331  0.5056  1.7616
62640SOL    HW2 5531  10.536   1.006   4.216  0.9277  0.1096  1.1177
62641SOL     OW 5532  12.608  13.808   1.430  0.2128 -0.6698 -0.5748
62641SOL    HW1 5533  12.670  13.825   1.359  1.6540 -0.8663  0.5978
62641SOL    HW2 5534  12.585  13.894   1.464 -1.4206 -0.4841 -1.9894
62642SOL     OW 5535  11.167   1.697   4.336  0.4380 -0.1299  0.0405
62642SOL    HW1 5536  11.254   1.686   4.373  0.2883 -1.6479  0.0068
62642SOL    HW2 5537  11.107   1.667   4.404 -0.1736  1.9340  0.5026
62643SOL     OW 5538  13.790   5.822   5.075  0.0378  0.1046  0.0960
62643SOL    HW1 5539  13.864   5.806   5.134 -0.2406  1.6804  0.9231
62643SOL    HW2 5540  13.830   5.855   4.995  0.2947 -0.3212  0.0407
62644SOL     OW 5541   8.916   6.150   2.029  0.2090 -0.2224 -0.1375
62644SOL    HW1 5542   8.945   6.065   1.995  1.1049  0.3983 -0.9880
62644SOL    HW2 5543   8.892   6.200   1.951  0.1579  0.4732  0.3160
62645SOL     OW 5544   1.632   6.308  13.334  0.5880 -0.4018  0.3424
62645SOL    HW1 5545   1.687   6.371  13.287 -1.4501  0.0920 -1.5195
62645SOL    HW2 5546   1.548   6.352  13.345 -0.0701 -1.8258  1.3875
62646SOL     OW 5547   2.741   3.648   6.874  0.1775 -0.2891 -0.1891
62646SOL    HW1 5548   2.720   3.739   6.894  0.3487 -0.6789  2.0920
62646SOL    HW2 5549   2.818   3.653   6.817  0.2805  0.9826  0.0304
62647SOL     OW 5550   3.408   2.678   8.195 -0.6082  0.3452  0.5176
62647SOL    HW1 5551   3.374   2.767   8.186 -0.2236  0.5372  0.9371
62647SOL    HW2 5552   3.426   2.650   8.105 -0.2354  0.8877  0.4206
62648SOL     OW 5553   0.708   5.505   7.664  0.4306 -0.0593  0.4125
62648SOL    HW1 5554   0.690   5.580   7.721  0.2368  0.1997  0.0182
62648SOL    HW2 5555   0.744   5.544   7.585 -0.6431 -0.2870 -0.2157
62649SOL     OW 5556   5.681   7.788   5.745 -0.5974  0.3497 -0.5544
62649SOL    HW1 5557   5.735   7.863   5.771 -0.1555 -0.8147  2.2889
62649SOL    HW2 5558   5.591   7.821   5.749 -0.5373  0.4815  2.2150
62650SOL     OW 5559  10.388   7.288   0.818  0.3647 -0.0030  0.3804
62650SOL    HW1 5560  10.472   7.266   0.779 -0.9943 -1.3225 -2.1102
62650SOL    HW2 5561  10.351   7.354   0.759 -1.9749 -2.4277 -1.1528
62651SOL     OW 5562  10.729   5.522  11.514 -0.1465 -0.5683 -0.1260
62651SOL    HW1 5563  10.806   5.539  11.568  0.3461 -2.7906 -0.0338
62651SOL    HW2 5564  10.687   5.446  11.555 -3.8275  1.9093  1.2692
62652SOL     OW 5565  12.922   5.307  12.641 -0.6223 -0.4660  0.0748
62652SOL    HW1 5566  12.863   5.248  12.594 -2.2007  0.8081  0.3664
62652SOL    HW2 5567  12.974   5.250  12.697  0.7971 -1.9608 -2.5751
62653SOL     OW 5568  12.600  10.922  13.811  0.7266 -0.1207 -0.3899
62653SOL    HW1 5569  12.689  10.933  13.778  0.4555  2.3029 -0.4768
62653SOL    HW2 5570  12.544  10.950  13.739 -0.0105  0.8834  0.5375
62654SOL     OW 5571   3.178   4.173   6.201  0.7142  0.1891  0.1926
62654SOL    HW1 5572   3.099   4.146   6.155  0.6603 -0.6858  0.7779
62654SOL    HW2 5573   3.154   4.256   6.242  0.5930  0.7032 -0.8704
62655SOL     OW 5574   9.166   2.012  11.797 -0.1658 -0.3154  0.7341
62655SOL    HW1 5575   9.104   2.007  11.869  0.6225 -1.0094  1.3830
62655SOL    HW2 5576   9.150   2.098  11.757 -1.3691 -0.3912  1.0249
62656SOL     OW 5577  12.277   9.275   5.614 -0.0382  0.1633 -0.3917
62656SOL    HW1 5578  12.273   9.310   5.525 -0.5292 -0.1087 -0.4788
62656SOL    HW2 5579  12.324   9.343   5.664 -0.0082  0.4436 -0.7929
62657SOL     OW 5580   7.239   7.603   3.570 -0.2047 -0.1860  0.6262
62657SOL    HW1 5581   7.159   7.639   3.609  0.4567  2.2831 -0.1124
62657SOL    HW2 5582   7.216   7.589   3.478  0.7104  2.6112 -0.1294
62658SOL     OW 5583   6.758   3.402   2.184 -0.6546  0.1250 -0.8205
62658SOL    HW1 5584   6.792   3.338   2.122  0.4288  0.8381 -0.9818
62658SOL    HW2 5585   6.827   3.467   2.192 -0.9316  0.2667  0.8186
62659SOL     OW 5586   4.186  13.723  14.017 -0.0424 -0.1396 -0.4597
62659SOL    HW1 5587   4.280  13.739  14.023  0.2394 -0.7494 -2.3884
62659SOL    HW2 5588   4.176  13.672  13.936 -1.8728 -1.4159  0.5114
62660SOL     OW 5589   2.305  10.607   3.498 -0.2793  0.3655 -0.1593
62660SOL    HW1 5590   2.386  10.591   3.449 -0.8828  0.8257 -1.3681
62660SOL    HW2 5591   2.283  10.698   3.479 -1.6733 -0.0644 -0.8037
62661SOL     OW 5592   9.191  12.324   0.612  0.4446 -0.0095  1.0276
62661SOL    HW1 5593   9.258  12.357   0.673 -0.3229  0.2481  1.7594
62661SOL    HW2 5594   9.110  12.365   0.642 -0.5392 -2.3856  1.8360
62662SOL     OW 5595   9.839  11.436   3.395 -0.1356  0.2722  0.0401
62662SOL    HW1 5596   9.856  11.473   3.308  0.9256 -0.9507 -0.2996
62662SOL    HW2 5597   9.896  11.360   3.400 -1.1091 -0.4021  1.3407
62663SOL     OW 5598   2.370   3.197   6.677 -0.2298  0.5565 -0.0019
62663SOL    HW1 5599   2.388   3.107   6.649  0.6008  0.6525  0.2123
62663SOL    HW2 5600   2.290   3.190   6.729  0.5425 -0.2785  1.1240
62664SOL     OW 5601   2.157   5.302   3.806 -0.2685  0.4015  1.0466
62664SOL    HW1 5602   2.201   5.219   3.824  0.0517  0.8157  2.2889
62664SOL    HW2 5603   2.157   5.309   3.710 -1.8015 -1.8065  0.8008
62665SOL     OW 5604  11.874  10.550  10.135  0.6178  0.1945 -0.7022
62665SOL    HW1 5605  11.789  10.540  10.092  0.1262  2.2596 -0.3318
62665SOL    HW2 5606  11.852  10.569  10.226  1.6002 -2.1609  0.1107
62666SOL     OW 5607   6.338  13.871   8.547  0.0196  0.7906 -0.0201
62666SOL    HW1 5608   6.371  13.782   8.563  0.4099  1.1270  1.1798
62666SOL    HW2 5609   6.244  13.859   8.535  0.0303  0.2347  0.3842
62667SOL     OW 5610   1.274   3.302   3.559  0.1156 -0.2718 -0.8844
62667SOL    HW1 5611   1.337   3.299   3.631 -1.7778 -0.6670  0.8388
62667SOL    HW2 5612   1.189   3.297   3.602 -1.0998  0.0220 -3.1472
62668SOL     OW 5613   7.204   9.007   8.687  0.1315 -0.2540  0.6413
62668SOL    HW1 5614   7.115   9.044   8.688 -0.9282 -2.6476  1.3364
62668SOL    HW2 5615   7.227   9.003   8.595  0.7633  2.9735  0.5185
62669SOL     OW 5616  12.830   5.607   8.156 -0.7756  0.2576 -0.0080
62669SOL    HW1 5617  12.857   5.615   8.248  1.3123  2.4593 -0.6952
62669SOL    HW2 5618  12.854   5.518   8.132  2.2643  0.7892  0.6345
62670SOL     OW 5619   5.790   4.132  12.042 -0.0468  0.1044  0.4547
62670SOL    HW1 5620   5.786   4.144  11.947  2.5541  0.6769  0.3471
62670SOL    HW2 5621   5.744   4.208  12.077 -0.0675  0.4657 -0.3286
62671SOL     OW 5622   4.283   0.171   8.704  0.1098 -0.3432 -0.1314
62671SOL    HW1 5623   4.240   0.182   8.619 -0.4148 -1.3776 -0.0086
62671SOL    HW2 5624   4.262   0.082   8.731 -0.6184  0.3131  1.5913
62672SOL     OW 5625   8.845   1.149   2.974  0.3452 -0.3740  0.1138
62672SOL    HW1 5626   8.793   1.222   3.008  0.6411  1.3263 -2.7247
62672SOL    HW2 5627   8.804   1.071   3.009 -0.3438  1.0886  2.8375
62673SOL     OW 5628  13.421  10.138   4.528 -0.2765 -0.2970 -0.1817
62673SOL    HW1 5629  13.501  10.181   4.497 -0.1882 -0.1868  0.1960
62673SOL    HW2 5630  13.366  10.209   4.561  0.4968 -0.5745  1.8776
62674SOL     OW 5631   5.981   7.325   4.966 -0.1344 -0.0444 -0.1187
62674SOL    HW1 5632   5.898   7.282   4.984  0.0107 -0.9657 -1.4387
62674SOL    HW2 5633   6.021   7.339   5.052 -1.5794  0.2787  0.5135
62675SOL     OW 5634   9.035   6.371   4.800 -0.4321  0.0671  0.0666
62675SOL    HW1 5635   9.032   6.456   4.844  0.6312 -0.1350  0.5571
62675SOL    HW2 5636   9.125   6.341   4.812 -1.0646 -1.6267  0.8142
62676SOL     OW 5637   3.179   6.170  12.593  0.2750 -0.6129 -0.8801
62676SOL    HW1 5638   3.189   6.261  12.621  1.3802 -0.5074 -1.5677
62676SOL    HW2 5639   3.149   6.124  12.672 -0.1712  0.3110 -0.4912
62677SOL     OW 5640   5.201   2.460  10.223  0.3793  0.7155  0.3915
62677SOL    HW1 5641   5.144   2.526  10.184  1.6341  1.2820 -0.5169
62677SOL    HW2 5642   5.187   2.382  10.169  1.7690  1.3674 -0.9937
62678SOL     OW 5643  11.589   1.983  12.303  0.2620  0.1220  0.2567
62678SOL    HW1 5644  11.627   2.071  12.307  0.0896  0.1445  2.0451
62678SOL    HW2 5645  11.660   1.925  12.331  0.1719 -0.2430 -0.2634
62679SOL     OW 5646   6.418   0.741  10.557  1.0115 -0.1591 -0.3070
62679SOL    HW1 5647   6.410   0.673  10.625 -0.9961 -0.2031 -0.5157
62679SOL    HW2 5648   6.424   0.823  10.605  0.5076 -0.2646 -0.0569
62680SOL     OW 5649  10.432  10.062   2.974 -0.0322  0.4991 -0.2682
62680SOL    HW1 5650  10.420  10.140   3.028 -1.5383 -0.2002  0.4394
62680SOL    HW2 5651  10.516  10.077   2.929 -0.4548  2.6710 -0.4287
62681SOL     OW 5652  13.280  10.424   2.415  0.3446 -0.0002 -0.8178
62681SOL    HW1 5653  13.331  10.499   2.386  0.5782 -0.1599 -0.8186
62681SOL    HW2 5654  13.302  10.354   2.353  0.3467 -0.1519 -0.6465
62682SOL     OW 5655   0.783   2.160  13.432 -0.0091 -0.0929 -0.4195
62682SOL    HW1 5656   0.690   2.164  13.452 -0.0354 -0.1820 -0.5217
62682SOL    HW2 5657   0.802   2.066  13.423 -0.1602 -0.0266 -1.5625
62683SOL     OW 5658   7.487  13.136   5.243  0.2698  0.5048  0.1729
62683SOL    HW1 5659   7.454  13.051   5.215  0.9543  0.2944 -0.0185
62683SOL    HW2 5660   7.446  13.151   5.329 -1.0831  0.7154 -0.4886
62684SOL     OW 5661   1.550   9.029   0.277  0.2785 -0.0655  0.1428
62684SOL    HW1 5662   1.589   8.994   0.197  0.5093  0.7880 -0.1319
62684SOL    HW2 5663   1.624   9.037   0.338 -0.1354 -2.1634  1.0083
62685SOL     OW 5664   5.479   8.758  12.044 -0.5113  0.6000  0.1811
62685SOL    HW1 5665   5.421   8.820  12.087 -0.8364  0.0515  0.5510
62685SOL    HW2 5666   5.422   8.686  12.018 -0.4403  1.1611 -1.7213
62686SOL     OW 5667  12.126   7.355   9.030  0.6088  0.5233 -0.2844
62686SOL    HW1 5668  12.089   7.277   9.071  0.1520  1.1318  0.4814
62686SOL    HW2 5669  12.203   7.323   8.983 -0.6610 -0.7232 -1.6360
62687SOL     OW 5670   3.567   2.066  13.288  0.4623 -0.0779  0.5221
62687SOL    HW1 5671   3.662   2.081  13.292  0.5175 -0.4172  0.4668
62687SOL    HW2 5672   3.554   2.017  13.208 -0.2476  3.5887 -1.8273
62688SOL     OW 5673  12.628   5.818  14.045 -0.0520  0.3303  0.2122
62688SOL    HW1 5674  12.565   5.772  13.990 -3.2982  2.7206  1.6152
62688SOL    HW2 5675  12.631   5.767  14.126  0.8652 -0.4530 -0.2894
62689SOL     OW 5676   9.891   3.606   6.839  0.4175  0.2225 -1.0059
62689SOL    HW1 5677   9.836   3.671   6.881  2.2032  1.4333 -0.4207
62689SOL    HW2 5678   9.858   3.522   6.870 -2.3806  0.7399 -2.3081
62690SOL     OW 5679   6.544   0.922   9.307 -0.0589 -0.4896  0.2530
62690SOL    HW1 5680   6.573   0.928   9.216 -0.5939  0.2070  0.1204
62690SOL    HW2 5681   6.611   0.869   9.351  1.0701  0.5660 -0.1646
62691SOL     OW 5682  10.381  12.777   3.462  0.4919 -0.4480 -0.3127
62691SOL    HW1 5683  10.377  12.785   3.367 -0.8349  1.0265 -0.1694
62691SOL    HW2 5684  10.474  12.774   3.482  0.7910 -0.3121 -1.6148
62692SOL     OW 5685  10.897   2.566   8.043  0.3005 -0.3363 -0.1790
62692SOL    HW1 5686  10.838   2.539   8.114  1.1710 -0.9109  0.3447
62692SOL    HW2 5687  10.895   2.661   8.046  0.5983 -0.3437  0.8728
62693SOL     OW 5688   3.896   8.045   3.574  0.0158 -0.4823  0.0143
62693SOL    HW1 5689   3.818   8.076   3.621 -0.6903 -1.0707 -0.7418
62693SOL    HW2 5690   3.921   8.118   3.518 -0.3709 -0.5162 -0.2054
62694SOL     OW 5691   5.576   5.117   5.512 -0.0430 -0.5622  0.3245
62694SOL    HW1 5692   5.548   5.126   5.421 -0.7082 -0.6613  0.5156
62694SOL    HW2 5693   5.662   5.159   5.515  0.4715 -1.5027 -0.5844
62695SOL     OW 5694   0.352  13.262   0.216  0.1634  0.2129 -0.2401
62695SOL    HW1 5695   0.443  13.293   0.222  0.5297 -0.7425 -0.6407
62695SOL    HW2 5696   0.313  13.286   0.300  0.1710  2.4787 -0.8000
62696SOL     OW 5697  13.125   9.972   7.550  0.0328 -0.1662 -0.2410
62696SOL    HW1 5698  13.150   9.880   7.544  0.6595 -0.0039 -0.2265
62696SOL    HW2 5699  13.178  10.007   7.622 -1.5847 -0.2310  1.0547
62697SOL     OW 5700  10.018  12.968   8.400 -0.4723 -0.2104  0.1704
62697SOL    HW1 5701   9.993  12.954   8.491 -1.2913  0.1029  0.0025
62697SOL    HW2 5702  10.068  12.890   8.376  0.4744  0.0809  1.1371
62698SOL     OW 5703   7.927  13.657  11.623  0.0259 -0.0498 -0.1838
62698SOL    HW1 5704   7.893  13.602  11.694  0.6337 -0.5694 -0.2871
62698SOL    HW2 5705   7.866  13.731  11.619  1.4961  1.5015  2.8016
62699SOL     OW 5706   4.781  13.440   4.626  0.1878 -0.2742  0.1772
62699SOL    HW1 5707   4.731  13.459   4.546  1.0314  1.3810  0.0098
62699SOL    HW2 5708   4.715  13.443   4.696 -0.2100  0.4548 -0.2109
62700SOL     OW 5709   3.765  13.187   5.385  0.3435  0.0164 -0.4533
62700SOL    HW1 5710   3.829  13.246   5.346  0.6297  0.0974  0.1295
62700SOL    HW2 5711   3.746  13.123   5.317  0.4865  0.4238 -0.8815
62701SOL     OW 5712  14.077  10.984   0.423  0.1007  0.2054  0.1751
62701SOL    HW1 5713  14.093  11.070   0.461 -1.6407  0.2155  1.0030
62701SOL    HW2 5714  14.102  10.922   0.492  1.6349  0.0048 -0.5270
62702SOL     OW 5715  12.061   4.496  10.704 -0.0142 -0.7188  0.1164
62702SOL    HW1 5716  11.995   4.522  10.769  0.1274 -1.2535  0.4767
62702SOL    HW2 5717  12.098   4.415  10.738  2.0948  0.4747  0.8620
62703SOL     OW 5718   4.505   5.301   0.319 -0.0321  0.1372 -0.2110
62703SOL    HW1 5719   4.491   5.217   0.362 -0.8039  0.5560  0.4056
62703SOL    HW2 5720   4.582   5.338   0.362  1.0167 -0.7483 -1.2947
62704SOL     OW 5721   5.957   1.177   5.606  0.3074  1.1679  0.5311
62704SOL    HW1 5722   5.999   1.221   5.532  0.9850  0.0790  0.2476
62704SOL    HW2 5723   5.877   1.140   5.570  1.1656 -0.2859  0.0509
62705SOL     OW 5724  10.803   0.470  13.472  0.5183 -0.5281 -0.3989
62705SOL    HW1 5725  10.723   0.467  13.419 -0.3445  1.9240  0.6122
62705SOL    HW2 5726  10.798   0.554  13.518  2.5823 -1.3153  1.4465
62706SOL     OW 5727   3.909  12.941   5.975 -0.0900 -0.5555 -0.3149
62706SOL    HW1 5728   3.955  12.959   6.057 -0.2579  1.8093 -0.6460
62706SOL    HW2 5729   3.907  12.846   5.968  1.4151 -0.7838  1.5712
62707SOL     OW 5730  13.830   6.074   0.132  0.4635 -0.0691  0.3965
62707SOL    HW1 5731  13.890   6.038   0.067  1.0900 -0.0003  0.9302
62707SOL    HW2 5732  13.743   6.055   0.097  0.7723 -1.5525  0.3596
62708SOL     OW 5733  11.819   0.726   2.838  0.0894 -0.5905  0.7713
62708SOL    HW1 5734  11.887   0.790   2.856 -0.3167 -0.4114  1.7556
62708SOL    HW2 5735  11.767   0.723   2.919  0.0412 -2.0898  0.7021
62709SOL     OW 5736   2.907   6.073  10.793  0.0479 -0.1084 -0.3937
62709SOL    HW1 5737   2.841   6.141  10.804  0.6028  0.1889  1.5563
62709SOL    HW2 5738   2.969   6.110  10.730 -1.4324 -0.2706 -2.0188
62710SOL     OW 5739   4.475   4.912  10.328 -0.5013  0.0895  0.2785
62710SOL    HW1 5740   4.461   4.912  10.422  1.1228 -0.5434  0.5452
62710SOL    HW2 5741   4.387   4.900  10.291 -1.0091 -1.0413  1.7325
62711SOL     OW 5742   2.921   2.696   5.645 -0.6290  0.3595 -0.2013
62711SOL    HW1 5743   3.012   2.692   5.672 -0.5065  3.1362  0.1056
62711SOL    HW2 5744   2.873   2.716   5.725 -1.8147 -2.6760 -0.0295
62712SOL     OW 5745   8.081   0.232  12.847  0.2713  0.6557  0.1422
62712SOL    HW1 5746   8.132   0.311  12.866  0.5843  0.4786  0.0557
62712SOL    HW2 5747   8.145   0.171  12.810  0.2953 -0.0721  1.3121
62713SOL     OW 5748   4.024   5.896   3.416  0.1375 -0.6766  0.3698
62713SOL    HW1 5749   4.032   5.907   3.511 -0.0404 -2.1047  0.5648
62713SOL    HW2 5750   3.932   5.879   3.401  0.2187 -0.7750 -0.0265
62714SOL     OW 5751  12.289   2.122  11.537  0.2839  0.2570 -0.5110
62714SOL    HW1 5752  12.277   2.166  11.453 -2.8411  0.9348  0.1365
62714SOL    HW2 5753  12.311   2.192  11.598  0.9371  0.0183 -0.4676
62715SOL     OW 5754   7.852   6.601   1.562  0.1281 -0.2184 -0.2397
62715SOL    HW1 5755   7.908   6.608   1.639  1.1759 -1.7230 -0.8384
62715SOL    HW2 5756   7.862   6.685   1.517 -0.3013  0.5785  1.1153
62716SOL     OW 5757  11.284   8.210   4.833 -0.0157  0.0981  0.2794
62716SOL    HW1 5758  11.358   8.153   4.855  1.0669  1.0276 -0.8093
62716SOL    HW2 5759  11.323   8.282   4.783 -1.9169 -0.4292 -2.1432
62717SOL     OW 5760  12.183   1.555   7.453  0.2758  0.1218 -0.0272
62717SOL    HW1 5761  12.256   1.510   7.410  0.8701  0.6565  0.4170
62717SOL    HW2 5762  12.219   1.585   7.536 -1.2605 -2.2833  1.6549
62718SOL     OW 5763   9.938   1.376   7.018 -0.5510 -0.3698 -0.1290
62718SOL    HW1 5764   9.992   1.422   6.954 -0.1909  2.1978  1.8064
62718SOL    HW2 5765  10.000   1.332   7.075 -0.7709 -1.1422 -0.4772
62719SOL     OW 5766   0.560   4.660  14.044  0.5226  0.2538 -0.2541
62719SOL    HW1 5767   0.551   4.725  14.114  0.2778  0.6419 -0.6377
62719SOL    HW2 5768   0.602   4.708  13.973  1.1816 -0.2548 -0.2157
62720SOL     OW 5769  11.702   3.425   8.608  0.6421 -0.1562 -0.2363
62720SOL    HW1 5770  11.629   3.476   8.642  1.1985  1.4700 -1.3708
62720SOL    HW2 5771  11.666   3.380   8.532  1.2386  2.3238 -2.1152
62721SOL     OW 5772   3.908   0.715   1.232  0.4292  0.2201 -0.1839
62721SOL    HW1 5773   3.896   0.768   1.153 -2.8940 -0.4508 -0.2726
62721SOL    HW2 5774   3.889   0.625   1.203  0.5542 -0.2348  1.0874
62722SOL     OW 5775   1.477  12.879  12.526  0.3069 -0.3021  0.2138
62722SOL    HW1 5776   1.476  12.965  12.484 -0.4946  0.1769  1.1663
62722SOL    HW2 5777   1.507  12.896  12.615 -0.7955 -0.8535  0.7128
62723SOL     OW 5778   5.185   0.168   3.922  0.4735 -0.4251 -0.2232
62723SOL    HW1 5779   5.174   0.077   3.950 -0.2385 -0.2322  0.1463
62723SOL    HW2 5780   5.199   0.218   4.002  0.0101 -0.0932 -0.3415
62724SOL     OW 5781   1.938   3.666   0.522  0.4191  0.0549  0.3126
62724SOL    HW1 5782   1.898   3.747   0.489  0.4854  0.0360  0.1880
62724SOL    HW2 5783   1.999   3.640   0.454 -0.0008 -0.4047  0.1056
62725SOL     OW 5784  12.049   0.837   0.620 -0.2971  0.5352 -0.2985
62725SOL    HW1 5785  12.106   0.874   0.688 -0.9468  1.3276 -0.1663
62725SOL    HW2 5786  11.969   0.814   0.666 -0.5970  0.7107 -0.7250
62726SOL     OW 5787   6.010   6.840   1.347  0.0311  0.6306  0.7679
62726SOL    HW1 5788   6.006   6.878   1.434 -0.0978 -1.4333  1.7125
62726SOL    HW2 5789   5.975   6.751   1.357 -2.2535  1.0921 -1.8684
62727SOL     OW 5790  12.482   7.330  12.172 -0.1065 -0.1953 -0.7065
62727SOL    HW1 5791  12.439   7.416  12.170  1.0620  0.3986 -2.4873
62727SOL    HW2 5792  12.546   7.339  12.243 -0.7522 -0.0063 -0.1299
62728SOL     OW 5793   5.016  10.586   9.440 -0.5123 -0.1360 -0.3534
62728SOL    HW1 5794   4.979  10.673   9.455  1.7747  1.0547 -1.1480
62728SOL    HW2 5795   4.949  10.526   9.470 -2.7904  1.8661 -1.1365
62729SOL     OW 5796   4.391  11.231   9.400  0.3518  0.1194  0.1946
62729SOL    HW1 5797   4.473  11.266   9.434 -0.7258  0.3945  2.7787
62729SOL    HW2 5798   4.384  11.265   9.311  1.6549  2.4827  0.9294
62730SOL     OW 5799   0.014   7.516  10.670 -0.2910  0.2115  0.5650
62730SOL    HW1 5800  -0.020   7.430  10.645 -0.8249  0.9209 -1.2905
62730SOL    HW2 5801   0.106   7.515  10.643 -0.6853  0.7228 -0.9004
62731SOL     OW 5802   5.933   7.234  10.709 -0.3889  0.7859  0.1344
62731SOL    HW1 5803   5.869   7.252  10.778 -1.0738  1.0450 -0.5485
62731SOL    HW2 5804   5.908   7.147  10.677 -0.3928  0.8795 -0.1177
62732SOL     OW 5805   8.510   2.857   0.528  0.2034 -0.0274  0.3338
62732SOL    HW1 5806   8.522   2.841   0.434  0.5096 -1.1122  0.5449
62732SOL    HW2 5807   8.581   2.916   0.552  1.2484 -1.2013  0.2336
62733SOL     OW 5808   0.747   7.186   7.329  0.2139  0.5163 -0.2974
62733SOL    HW1 5809   0.724   7.102   7.288 -0.7611  1.6716 -2.2703
62733SOL    HW2 5810   0.754   7.247   7.256  0.2683  2.3046  1.1320
62734SOL     OW 5811   5.419   3.687  12.337  0.1347  0.2215  0.1088
62734SOL    HW1 5812   5.471   3.658  12.263 -0.5011  1.4490 -0.8593
62734SOL    HW2 5813   5.342   3.630  12.336  0.2344  0.0896 -0.0284
62735SOL     OW 5814   2.133   5.705   9.812  0.1635 -0.1469 -0.3778
62735SOL    HW1 5815   2.216   5.660   9.829  0.4246  0.4908  0.0791
62735SOL    HW2 5816   2.072   5.666   9.873  1.1262  2.2164  2.3524
62736SOL     OW 5817  13.578  12.736   9.545 -0.0264  0.2621 -0.5623
62736SOL    HW1 5818  13.629  12.700   9.618  1.2885  0.7922 -1.1842
62736SOL    HW2 5819  13.494  12.691   9.550 -0.2979  0.9054  1.8153
62737SOL     OW 5820  10.399  10.284   3.126  0.4165 -0.3187 -0.9293
62737SOL    HW1 5821  10.339  10.359   3.126  0.8807  0.0927 -2.5465
62737SOL    HW2 5822  10.417  10.267   3.219  0.8639  2.0445 -0.5222
62738SOL     OW 5823   8.097   7.898   0.884 -0.4093  0.2398 -0.0905
62738SOL    HW1 5824   8.168   7.959   0.903 -0.6667  0.5522 -0.1290
62738SOL    HW2 5825   8.140   7.825   0.839 -0.2603  0.8743 -0.9917
62739SOL     OW 5826   1.400  11.812   8.082 -0.1083  0.2039  0.4192
62739SOL    HW1 5827   1.316  11.858   8.078 -0.3567 -0.2080  0.8555
62739SOL    HW2 5828   1.398  11.751   8.008 -0.1325  0.2904  0.3483
62740SOL     OW 5829   3.556   3.097   8.363 -0.7771 -0.0481 -0.0327
62740SOL    HW1 5830   3.512   3.174   8.327  0.9198  1.2760  0.6120
62740SOL    HW2 5831   3.618   3.070   8.295  1.1590  1.3732  1.0811
62741SOL     OW 5832   9.453   0.856  14.046  0.2567 -0.1814  0.3945
62741SOL    HW1 5833   9.437   0.784  13.986 -1.2910  1.6158 -1.5033
62741SOL    HW2 5834   9.540   0.888  14.023  0.5058 -0.7594  0.5155
62742SOL     OW 5835   6.377   9.457  12.334 -0.6181 -0.9624 -0.1851
62742SOL    HW1 5836   6.301   9.437  12.390 -1.8000 -1.0458 -1.7560
62742SOL    HW2 5837   6.342   9.456  12.245  1.1014 -0.2867 -0.9070
62743SOL     OW 5838   1.098   8.877   3.455 -0.3427  0.0423 -0.0377
62743SOL    HW1 5839   1.044   8.955   3.471 -0.6787 -0.7837  3.6669
62743SOL    HW2 5840   1.188   8.909   3.463 -0.4617  0.2479  0.5763
62744SOL     OW 5841   4.897   9.294  13.547 -0.0166 -0.9379  0.3630
62744SOL    HW1 5842   4.820   9.351  13.558 -0.1592 -1.4679  2.8047
62744SOL    HW2 5843   4.892   9.265  13.456 -2.2353 -0.2676  0.1923
62745SOL     OW 5844   4.874  11.492   9.874  0.4253  0.2725  0.6304
62745SOL    HW1 5845   4.879  11.397   9.880  1.9801  0.3339  0.8388
62745SOL    HW2 5846   4.878  11.511   9.781 -2.3112  0.0841  0.4065
62746SOL     OW 5847  10.771  13.836  13.511  0.0051  0.0802  0.6057
62746SOL    HW1 5848  10.859  13.839  13.475 -0.2405 -0.8429 -0.1179
62746SOL    HW2 5849  10.784  13.824  13.605  0.7262 -3.4544  0.2047
62747SOL     OW 5850   2.590   6.748   6.410  0.4106  0.0960  0.0830
62747SOL    HW1 5851   2.606   6.705   6.326 -0.0120 -0.1673  0.1355
62747SOL    HW2 5852   2.643   6.827   6.406  0.4694  0.0393 -0.3938
62748SOL     OW 5853   5.677   3.901  13.155  0.3528  0.8716 -0.0941
62748SOL    HW1 5854   5.654   3.890  13.247  1.9315 -0.6073  0.1842
62748SOL    HW2 5855   5.595   3.889  13.107  0.0880 -2.2948  0.9135
62749SOL     OW 5856   9.834   5.752   7.313 -0.6289 -0.0371  0.0328
62749SOL    HW1 5857   9.897   5.721   7.249 -1.0061  0.5020 -0.6037
62749SOL    HW2 5858   9.754   5.703   7.294 -0.3240 -0.9824  1.0657
62750SOL     OW 5859   6.695   2.044  12.809  0.5887 -0.2734  0.5747
62750SOL    HW1 5860   6.683   2.116  12.871 -2.9092 -0.1972  0.0364
62750SOL    HW2 5861   6.700   2.087  12.723 -0.9639 -0.5588  0.3041
62751SOL     OW 5862   6.198  11.427   2.054 -0.0435 -0.0720 -0.4291
62751SOL    HW1 5863   6.104  11.411   2.070  0.2415  0.6541  2.6549
62751SOL    HW2 5864   6.200  11.494   1.986 -1.7091 -0.9596 -1.4188
62752SOL     OW 5865   4.111   6.956  13.566 -0.3694  0.6356 -0.3122
62752SOL    HW1 5866   4.135   6.904  13.643 -0.1539 -0.7425 -1.2704
62752SOL    HW2 5867   4.192   7.002  13.541 -0.7248  2.0165  0.9292
62753SOL     OW 5868   7.112   9.647   3.171  0.3599  0.7891 -0.0551
62753SOL    HW1 5869   7.178   9.648   3.240  0.1461 -0.3001  0.1896
62753SOL    HW2 5870   7.130   9.725   3.119  1.5087  0.7913  0.3167
62754SOL     OW 5871   6.937   4.020   1.727  0.1109 -0.1494 -0.1833
62754SOL    HW1 5872   7.024   3.991   1.700  0.0086  1.3649 -2.3973
62754SOL    HW2 5873   6.948   4.113   1.749 -0.6913 -0.2895  0.9082
62755SOL     OW 5874   2.710   8.672  12.561  0.7276  0.4743  0.5242
62755SOL    HW1 5875   2.676   8.589  12.594  0.3603  0.5250  0.2784
62755SOL    HW2 5876   2.653   8.738  12.602  1.2152  0.6273  0.9709
62756SOL     OW 5877  11.416   7.745  11.909 -0.7301  0.4580 -0.3890
62756SOL    HW1 5878  11.456   7.699  11.983 -0.6297  1.1906  0.0148
62756SOL    HW2 5879  11.480   7.735  11.838 -2.0344 -2.6791 -1.2822
62757SOL     OW 5880   7.374  12.630  11.995  0.0004  0.6521  0.0402
62757SOL    HW1 5881   7.401  12.646  12.085 -1.5517  1.9679  0.3197
62757SOL    HW2 5882   7.427  12.690  11.943  0.1319  0.6743  0.2013
62758SOL     OW 5883  12.693   8.566   9.729  0.0225  0.5791  0.0534
62758SOL    HW1 5884  12.780   8.528   9.737 -0.4738 -0.4890  0.5532
62758SOL    HW2 5885  12.698   8.621   9.650  1.5750  1.7824  0.9172
62759SOL     OW 5886   4.306  12.738   8.751  0.1756  0.3271  0.2279
62759SOL    HW1 5887   4.343  12.658   8.787 -1.2374 -0.4220  0.1075
62759SOL    HW2 5888   4.353  12.752   8.669  0.6461 -0.2052  0.4002
62760SOL     OW 5889  10.961   4.328   5.236  0.0955 -0.4390 -0.0564
62760SOL    HW1 5890  10.940   4.320   5.329  0.4163 -1.3167 -0.0444
62760SOL    HW2 5891  11.055   4.347   5.235  0.3494 -1.6174 -0.2135
62761SOL     OW 5892   9.540   6.162  11.460  0.2444 -0.0258 -0.4771
62761SOL    HW1 5893   9.562   6.069  11.449 -0.2691 -0.2854  0.4987
62761SOL    HW2 5894   9.470   6.162  11.526  1.5897  1.1656  1.0489
62762SOL     OW 5895   7.457  12.134   5.117  0.3351 -0.1169  0.0582
62762SOL    HW1 5896   7.482  12.048   5.150 -2.8821 -0.4441  2.0262
62762SOL    HW2 5897   7.402  12.116   5.041 -0.3089  0.1796  0.4473
62763SOL     OW 5898  13.781   5.095  10.876  0.2808  0.2368  0.8548
62763SOL    HW1 5899  13.823   5.009  10.869  0.7500  0.5560 -0.4571
62763SOL    HW2 5900  13.743   5.110  10.789  1.0333  1.7683  0.7689
62764SOL     OW 5901  10.120   8.532   2.754 -0.1507 -0.4844 -0.4049
62764SOL    HW1 5902  10.098   8.524   2.847 -1.5499  1.6753 -0.4803
62764SOL    HW2 5903  10.200   8.586   2.753 -0.0635 -0.6150 -0.4463
62765SOL     OW 5904  10.312  10.343   0.842  0.4059 -0.1596 -0.0367
62765SOL    HW1 5905  10.397  10.304   0.861 -0.1893 -1.2227  0.5228
62765SOL    HW2 5906  10.325  10.437   0.856  1.3651 -0.3594  0.4685
62766SOL     OW 5907   1.351   6.097   1.352 -0.1694 -0.1645  0.1423
62766SOL    HW1 5908   1.304   6.096   1.268 -0.2598  0.1957  0.1843
62766SOL    HW2 5909   1.357   6.190   1.374  1.4293 -0.1305 -0.3311
62767SOL     OW 5910   9.271   8.493   3.541 -0.1075  0.2075  0.1640
62767SOL    HW1 5911   9.326   8.448   3.605 -0.6056 -0.3626  0.2020
62767SOL    HW2 5912   9.262   8.430   3.469 -0.5402  0.3766  0.0701
62768SOL     OW 5913  13.782  10.498  13.825 -0.1369 -0.5189 -0.5002
62768SOL    HW1 5914  13.794  10.576  13.879  0.6746 -0.4101 -0.8234
62768SOL    HW2 5915  13.825  10.428  13.876  0.0736 -0.5396 -0.7049
62769SOL     OW 5916  12.526   1.126  12.315  0.2067 -0.2131  0.0588
62769SOL    HW1 5917  12.487   1.097  12.233  1.2220 -2.0272  0.1618
62769SOL    HW2 5918  12.506   1.056  12.377  0.8134  0.3756  0.9407
62770SOL     OW 5919   5.508  13.081   4.516  0.1614  0.1175  0.3086
62770SOL    HW1 5920   5.499  13.114   4.606 -1.4964 -1.3538  0.7230
62770SOL    HW2 5921   5.450  13.136   4.464 -0.4804 -0.3549  0.5164
62771SOL     OW 5922   3.546   1.989  13.016  0.5189 -0.0476  0.1970
62771SOL    HW1 5923   3.570   2.064  12.962  2.7392 -0.5275  0.4079
62771SOL    HW2 5924   3.479   1.944  12.965  0.2076  1.2662 -0.6135
62772SOL     OW 5925   4.957  12.902   2.622  0.1475 -0.6779  0.3242
62772SOL    HW1 5926   4.907  12.825   2.595  0.1928 -1.0527  1.2758
62772SOL    HW2 5927   4.978  12.947   2.540 -1.4510 -0.6852 -0.1272
62773SOL     OW 5928  13.737  11.049   5.792 -0.1325  0.4481  0.3722
62773SOL    HW1 5929  13.728  11.103   5.713 -0.4757  1.4276  1.0673
62773SOL    HW2 5930  13.768  11.110   5.859 -4.4393  0.8848  2.3095
62774SOL     OW 5931   3.756   8.012   4.550  0.2403  0.3208 -0.4317
62774SOL    HW1 5932   3.847   7.991   4.531  0.0872 -0.1365 -0.6780
62774SOL    HW2 5933   3.740   7.976   4.637  0.8349  2.0895  0.4541
62775SOL     OW 5934  12.130  13.591  10.204 -0.0682  0.0429 -0.1484
62775SOL    HW1 5935  12.159  13.505  10.233 -0.0446  0.5263  1.3520
62775SOL    HW2 5936  12.063  13.616  10.268 -1.5249  0.3153 -1.6852
62776SOL     OW 5937   7.581  10.713   4.037  1.0024 -0.2005  0.3872
62776SOL    HW1 5938   7.666  10.679   4.009  1.1442  0.6810 -0.2631
62776SOL    HW2 5939   7.519  10.645   4.013  1.3648 -0.2897 -0.3088
62777SOL     OW 5940  13.611   0.173   6.206  0.3420  0.1741 -0.4043
62777SOL    HW1 5941  13.562   0.204   6.282 -1.0282 -1.4066 -0.5835
62777SOL    HW2 5942  13.702   0.168   6.235 -0.1766 -0.4962  1.1690
62778SOL     OW 5943   0.119   8.041   1.797  0.2332 -0.2968 -0.0869
62778SOL    HW1 5944   0.139   8.069   1.887 -1.1576 -1.0146  0.4774
62778SOL    HW2 5945   0.056   8.106   1.766  0.4294 -0.2627 -0.4122
62779SOL     OW 5946   4.412   7.359   1.345  0.2033  0.2703  0.4832
62779SOL    HW1 5947   4.369   7.353   1.260  0.7796 -0.7023  0.2437
62779SOL    HW2 5948   4.495   7.312   1.333  0.0186 -0.4221  1.7509
62780SOL     OW 5949   3.695   8.847   6.255  0.0129 -0.0961 -0.0644
62780SOL    HW1 5950   3.758   8.912   6.284 -0.4777 -0.2448  1.4246
62780SOL    HW2 5951   3.748   8.781   6.209  0.5888  0.9878 -1.0049
62781SOL     OW 5952   8.303   9.558   1.017  0.1019  0.5385  0.8445
62781SOL    HW1 5953   8.357   9.484   1.046 -2.2083 -1.1406  1.1405
62781SOL    HW2 5954   8.358   9.605   0.956  1.7280 -1.3736  0.7295
62782SOL     OW 5955  11.420  11.352  12.220 -0.0043 -0.6465 -0.6124
62782SOL    HW1 5956  11.326  11.333  12.227  0.1685 -2.1416 -1.8203
62782SOL    HW2 5957  11.433  11.370  12.127  0.6817  1.0286 -0.2264
62783SOL     OW 5958   0.006  10.290   6.644 -0.3360  0.2196  0.1419
62783SOL    HW1 5959  -0.002  10.305   6.550 -0.0659 -0.3794  0.0161
62783SOL    HW2 5960   0.083  10.233   6.653 -1.0294 -0.6800  0.6164
62784SOL     OW 5961   1.054  12.745  13.349  0.1020  0.3232  0.6828
62784SOL    HW1 5962   0.998  12.685  13.398 -0.1890 -0.2091 -0.2855
62784SOL    HW2 5963   1.123  12.768  13.411  1.2584 -2.4214  0.5628
62785SOL     OW 5964  13.133  13.042   4.055  0.0952 -0.1032  0.2609
62785SOL    HW1 5965  13.177  13.062   4.137  0.9503 -0.0749 -0.1905
62785SOL    HW2 5966  13.125  13.126   4.010 -3.0379  0.4128  1.5332
62786SOL     OW 5967   5.938   1.946   0.507 -0.4590 -0.2778  0.6815
62786SOL    HW1 5968   5.876   1.958   0.435 -0.6665  0.5726  0.9886
62786SOL    HW2 5969   5.922   1.857   0.539  0.0250 -0.8762 -0.6745
62787SOL     OW 5970   9.170   2.778  10.024 -0.5549 -0.4753  0.7723
62787SOL    HW1 5971   9.213   2.725  10.091  0.0062 -2.4427 -1.0624
62787SOL    HW2 5972   9.134   2.715   9.962  1.6770  1.1569 -2.5067
62788SOL     OW 5973   0.045  10.036   8.625  0.2047 -0.4575 -0.1576
62788SOL    HW1 5974   0.002   9.953   8.649  1.4060 -0.6127  1.6948
62788SOL    HW2 5975  -0.015  10.103   8.657 -0.0421 -0.6375 -0.2409
62789SOL     OW 5976   7.772   6.341   3.810 -1.1476  0.3880  0.1967
62789SOL    HW1 5977   7.826   6.267   3.835  0.8332  1.5382 -0.4491
62789SOL    HW2 5978   7.715   6.308   3.740 -0.6387 -0.6226  0.2541
62790SOL     OW 5979   0.558   1.898   5.515  0.2181  0.3853  0.2774
62790SOL    HW1 5980   0.529   1.984   5.484  1.2581 -0.0838 -2.2911
62790SOL    HW2 5981   0.646   1.889   5.480  0.6615 -1.1858  1.6964
62791SOL     OW 5982   9.965   3.611   9.397  0.0041  0.5662 -0.5849
62791SOL    HW1 5983   9.920   3.583   9.317  0.8560 -1.0232 -0.5388
62791SOL    HW2 5984   9.895   3.627   9.460 -0.5808 -2.5712 -0.2876
62792SOL     OW 5985   4.546   7.284   1.637 -0.3560  0.1233  0.2549
62792SOL    HW1 5986   4.543   7.199   1.680 -0.0232 -0.6807 -1.2598
62792SOL    HW2 5987   4.459   7.296   1.600 -0.4249  0.4863  0.5254
62793SOL     OW 5988  13.981   0.146  13.186 -0.2605  0.2426  0.0604
62793SOL    HW1 5989  13.896   0.159  13.227  0.4848  1.3704  1.3513
62793SOL    HW2 5990  14.003   0.055  13.204 -1.0952  0.0088 -0.0961
62794SOL     OW 5991  11.820   0.776  12.206 -0.0787 -0.9479 -0.1427
62794SOL    HW1 5992  11.769   0.735  12.135 -0.3314  0.3886 -0.7803
62794SOL    HW2 5993  11.787   0.866  12.209  0.0976 -0.9190  1.5385
62795SOL     OW 5994   9.306   8.252   3.676 -0.4273  0.0293  0.2468
62795SOL    HW1 5995   9.302   8.234   3.770  1.9706  1.2412  0.6491
62795SOL    HW2 5996   9.396   8.233   3.652 -1.1595 -0.9867 -2.0298
62796SOL     OW 5997   5.314   2.565   5.959  0.2323  0.0128  1.1696
62796SOL    HW1 5998   5.258   2.506   6.010  1.2651 -2.1622 -0.0632
62796SOL    HW2 5999   5.331   2.517   5.878  1.9231  1.6256  0.5128
62797SOL     OW 6000  13.454  11.153   4.493  0.7109  0.2755  0.2588
62797SOL    HW1 6001  13.382  11.207   4.523  0.1288 -0.7365  0.7424
62797SOL    HW2 6002  13.412  11.075   4.455  1.4841  0.5963 -1.3580
62798SOL     OW 6003   2.296  11.057   0.473 -0.2054  0.0875 -0.5401
62798SOL    HW1 6004   2.308  10.999   0.398 -1.1642  1.0513 -1.4742
62798SOL    HW2 6005   2.338  11.139   0.447 -1.2302  0.6828 -0.3617
62799SOL     OW 6006  13.976   2.107  11.604 -0.5978  0.4080  0.4111
62799SOL    HW1 6007  13.893   2.154  11.609 -0.6906  0.1252  3.8379
62799SOL    HW2 6008  14.043   2.175  11.618  0.0245  0.8671 -3.5575
62800SOL     OW 6009   0.279   7.458   8.138  0.2651  0.0166 -0.2264
62800SOL    HW1 6010   0.238   7.378   8.171  1.0216  0.5048  2.0302
62800SOL    HW2 6011   0.325   7.430   8.059  0.4356 -1.7692  0.4654
62801SOL     OW 6012   2.298   0.689   2.539  0.2137 -0.1236  0.1920
62801SOL    HW1 6013   2.254   0.759   2.490  0.7408 -0.4986 -0.8349
62801SOL    HW2 6014   2.254   0.689   2.624 -0.2368  1.0219 -0.0166
62802SOL     OW 6015   0.744   2.190   0.700 -0.0402  0.8688  0.1744
62802SOL    HW1 6016   0.704   2.165   0.783 -0.8989  2.3676  0.2468
62802SOL    HW2 6017   0.821   2.242   0.725 -0.3630  1.4177  0.0425
62803SOL     OW 6018   0.640  10.045  13.525 -0.3268  0.5122  0.2412
62803SOL    HW1 6019   0.700  10.119  13.530 -0.6399  0.7059  1.5326
62803SOL    HW2 6020   0.647  10.003  13.611 -0.2760 -0.8677 -0.4146
62804SOL     OW 6021  10.015   6.448   0.430  0.6696  0.4204 -0.1200
62804SOL    HW1 6022  10.043   6.460   0.339  1.4847 -0.2499  0.0262
62804SOL    HW2 6023  10.069   6.375   0.462 -1.7391 -1.4691 -0.0310
62805SOL     OW 6024   2.447   3.858   9.941 -0.3143 -0.3623 -0.2353
62805SOL    HW1 6025   2.506   3.895   9.875 -1.7910  0.9005 -0.9203
62805SOL    HW2 6026   2.505   3.815  10.004  1.3499  0.9097 -0.8172
62806SOL     OW 6027  13.271   4.390  11.789  0.2391 -0.1463 -0.1731
62806SOL    HW1 6028  13.229   4.325  11.732  0.0511 -1.1250  1.0439
62806SOL    HW2 6029  13.224   4.383  11.872  0.2591  1.5200  0.0107
62807SOL     OW 6030  13.561   7.627  13.215  0.8137  0.3361  0.4520
62807SOL    HW1 6031  13.647   7.586  13.225  2.0277  2.3824 -0.8051
62807SOL    HW2 6032  13.518   7.576  13.147  0.9340 -0.8195  1.2164
62808SOL     OW 6033   8.886   1.476  12.542  0.1722 -0.2902  0.6110
62808SOL    HW1 6034   8.825   1.452  12.612  0.8273 -0.8729  0.9954
62808SOL    HW2 6035   8.894   1.571  12.549 -0.1313 -0.2933  1.0225
62809SOL     OW 6036   7.646   5.150   2.095  0.0042 -0.4963 -0.2474
62809SOL    HW1 6037   7.602   5.217   2.042 -1.2047 -1.0266  0.0590
62809SOL    HW2 6038   7.586   5.132   2.167  2.0931  1.0676  2.0750
62810SOL     OW 6039   1.533   8.709   2.220  0.1995  0.5220 -0.1850
62810SOL    HW1 6040   1.537   8.776   2.152  0.7943 -1.8144 -2.6086
62810SOL    HW2 6041   1.440   8.687   2.226 -0.0684  1.8308  0.9864
62811SOL     OW 6042   6.426   3.936   8.606  0.0723 -0.5375  0.0980
62811SOL    HW1 6043   6.376   3.859   8.579  1.2368 -1.1695 -0.2847
62811SOL    HW2 6044   6.394   4.006   8.548  0.5723 -1.2481 -1.0649
62812SOL     OW 6045   5.373   7.282   6.282  0.6845  0.0205 -0.0527
62812SOL    HW1 6046   5.343   7.366   6.315  1.4791  0.1936  0.2505
62812SOL    HW2 6047   5.451   7.262   6.333  1.1648 -0.3560 -0.9020
62813SOL     OW 6048  12.300  12.500  12.844 -0.1482 -0.4523 -0.2506
62813SOL    HW1 6049  12.392  12.483  12.864 -0.0721  0.6825  0.4291
62813SOL    HW2 6050  12.253  12.428  12.888  0.2582  0.2999  1.5098
62814SOL     OW 6051   1.030   5.520   3.985 -0.0312 -0.3973  0.0966
62814SOL    HW1 6052   0.976   5.599   3.988  1.5233  0.6987  0.7783
62814SOL    HW2 6053   1.067   5.519   3.897  0.3970 -0.0202  0.2650
62815SOL     OW 6054  10.605   1.824  13.935 -0.4759  0.1682 -0.0061
62815SOL    HW1 6055  10.629   1.888  13.868 -0.9439 -0.0406 -0.3824
62815SOL    HW2 6056  10.646   1.857  14.016 -1.0825  1.1846 -0.0974
62816SOL     OW 6057   1.330  10.512   9.954 -0.4476  0.1992 -0.0556
62816SOL    HW1 6058   1.294  10.600   9.946 -2.0803 -0.3788  0.5135
62816SOL    HW2 6059   1.262  10.463  10.000  1.3558 -0.8060  1.6721
62817SOL     OW 6060  13.283   7.602   6.014  0.3220  0.3909  0.1771
62817SOL    HW1 6061  13.207   7.555   6.049 -0.5495  1.3243 -0.4125
62817SOL    HW2 6062  13.249   7.686   5.986  1.7281  1.1362  0.5858
62818SOL     OW 6063   7.911   0.993   2.688  0.4933  0.3382 -0.1758
62818SOL    HW1 6064   7.877   0.916   2.642  0.2473 -0.5315  1.3860
62818SOL    HW2 6065   7.997   0.966   2.719  0.0835  0.4129  1.0484
62819SOL     OW 6066   1.505   7.161   5.606  0.0277  0.3174 -0.1370
62819SOL    HW1 6067   1.467   7.174   5.693 -2.5687  0.4594 -1.2076
62819SOL    HW2 6068   1.490   7.244   5.560  0.6272 -0.0304 -0.9851
62820SOL     OW 6069   2.615  12.257  11.079 -0.0387  0.2541  0.2585
62820SOL    HW1 6070   2.581  12.347  11.073 -2.1773 -0.4872  0.5756
62820SOL    HW2 6071   2.669  12.258  11.158  0.5310  1.4245 -0.1221
62821SOL     OW 6072  10.846   0.251   0.040 -0.0226  0.0834 -0.1703
62821SOL    HW1 6073  10.843   0.156   0.040  0.1522  0.0771  0.4752
62821SOL    HW2 6074  10.938   0.273   0.055 -0.0247  0.3567 -0.5257
62822SOL     OW 6075   2.252   6.097   0.771 -0.7351 -0.2025 -0.8634
62822SOL    HW1 6076   2.185   6.144   0.721 -0.0950  0.6448 -0.9483
62822SOL    HW2 6077   2.317   6.164   0.792 -0.4344 -0.7916  0.1260
62823SOL     OW 6078  13.985   7.896   3.728  0.6325 -0.2370  0.2355
62823SOL    HW1 6079  13.965   7.811   3.687 -0.6992  0.2915 -0.2660
62823SOL    HW2 6080  13.903   7.945   3.722  1.4333  1.1632  0.3671
62824SOL     OW 6081   0.302   9.804   4.358  0.2996 -0.3498  0.5983
62824SOL    HW1 6082   0.339   9.886   4.392 -0.1067 -0.4741  1.3606
62824SOL    HW2 6083   0.303   9.745   4.433 -1.4861 -0.3512  0.6655
62825SOL     OW 6084  10.984   5.351   1.240  0.3344  0.2832  0.9245
62825SOL    HW1 6085  10.941   5.309   1.165  0.9448  0.0491  0.7023
62825SOL    HW2 6086  10.915   5.360   1.305  0.4147 -2.0818  1.4076
62826SOL     OW 6087  12.699   1.402   7.982  0.2441  0.2558  0.1549
62826SOL    HW1 6088  12.779   1.443   7.949  0.3112  1.7068  1.9524
62826SOL    HW2 6089  12.651   1.473   8.025 -1.6686 -0.7395 -0.2424
62827SOL     OW 6090   4.417  10.220   9.727  0.0300 -0.1945 -0.1989
62827SOL    HW1 6091   4.454  10.146   9.774  0.8809 -0.8940 -1.8641
62827SOL    HW2 6092   4.322  10.206   9.729  0.0101  0.0175  1.5757
62828SOL     OW 6093   7.190   9.112   5.518 -0.7332 -0.1953 -0.2644
62828SOL    HW1 6094   7.213   9.043   5.581 -0.5746 -0.0931 -0.2097
62828SOL    HW2 6095   7.164   9.065   5.439  0.9467 -0.3114 -0.7900
62829SOL     OW 6096   1.496  13.494   4.223  0.1110  0.7778  0.0929
62829SOL    HW1 6097   1.556  13.505   4.149 -0.4922  0.8857 -0.3907
62829SOL    HW2 6098   1.411  13.524   4.190 -0.0673  1.3142  0.9851
62830SOL     OW 6099   3.739   4.601   7.266  0.3303 -0.0003 -0.0650
62830SOL    HW1 6100   3.806   4.668   7.253  1.3590 -1.2723 -1.7730
62830SOL    HW2 6101   3.788   4.519   7.273 -0.9483 -0.7107  0.9671
62831SOL     OW 6102  11.893   6.111  13.951  0.4514 -0.1429 -0.2822
62831SOL    HW1 6103  11.967   6.173  13.959  1.0668 -0.9291  0.2903
62831SOL    HW2 6104  11.928   6.028  13.983 -0.6176 -0.5966 -0.2554
62832SOL     OW 6105   3.164   7.773   9.410  0.0876 -0.1881 -0.3883
62832SOL    HW1 6106   3.206   7.712   9.350 -0.1863 -0.6115 -0.1550
62832SOL    HW2 6107   3.076   7.785   9.374 -0.1665 -0.6434  0.0554
62833SOL     OW 6108  12.425  13.940   7.881  0.3845 -0.0450 -0.1948
62833SOL    HW1 6109  12.382  13.955   7.965 -0.5208  0.0438 -0.6678
62833SOL    HW2 6110  12.480  13.863   7.895  0.4921  0.1634  0.5638
62834SOL     OW 6111   9.447   1.043  13.745 -0.5374  0.4672  0.0257
62834SOL    HW1 6112   9.431   1.060  13.838 -0.1805 -1.1664  0.4134
62834SOL    HW2 6113   9.373   1.084  13.700 -0.8591  1.0433  1.0395
62835SOL     OW 6114   9.480   2.284   0.146 -0.0191 -0.5059 -0.5699
62835SOL    HW1 6115   9.464   2.287   0.240 -0.4290  2.0347 -0.6420
62835SOL    HW2 6116   9.574   2.300   0.137 -0.0663 -0.2175 -0.5830
62836SOL     OW 6117   6.480   6.534   2.725 -0.4454 -0.4088 -0.2948
62836SOL    HW1 6118   6.486   6.454   2.671 -1.3159 -0.5746 -0.1670
62836SOL    HW2 6119   6.401   6.577   2.693 -0.3602  0.0507  0.1143
62837SOL     OW 6120   4.443   6.696   2.388 -0.4396 -0.3176  0.3829
62837SOL    HW1 6121   4.510   6.683   2.321  1.0789 -1.0609  1.9564
62837SOL    HW2 6122   4.402   6.780   2.365  2.0810  0.9456  0.1647
62838SOL     OW 6123   2.750   5.196   7.345  0.4017  0.0000 -0.2504
62838SOL    HW1 6124   2.769   5.192   7.439  2.7702  0.8163 -0.6212
62838SOL    HW2 6125   2.707   5.281   7.333 -0.0268 -0.1641  0.1145
62839SOL     OW 6126  13.748   3.906   5.987  0.4735  0.5088 -0.5977
62839SOL    HW1 6127  13.757   3.973   5.918 -0.6738  0.9616 -0.3302
62839SOL    HW2 6128  13.755   3.956   6.069 -2.0500  0.6060 -0.3774
62840SOL     OW 6129  12.695  13.719  11.940  0.3787  0.0253 -0.3107
62840SOL    HW1 6130  12.764  13.659  11.967 -0.5168 -2.3008 -2.7625
62840SOL    HW2 6131  12.733  13.770  11.868  0.7153  1.6007  0.9156
62841SOL     OW 6132   5.337   1.886  10.334 -0.1288 -0.4833  0.1592
62841SOL    HW1 6133   5.304   1.888  10.245 -1.2902  0.7757  0.5883
62841SOL    HW2 6134   5.330   1.794  10.360  0.7824 -0.9781 -1.2062
62842SOL     OW 6135   1.834   9.190   7.856 -0.3433 -0.4609  0.1795
62842SOL    HW1 6136   1.827   9.285   7.860  1.1862 -0.3692  3.2970
62842SOL    HW2 6137   1.926   9.171   7.874 -0.9492 -2.5444  1.4872
62843SOL     OW 6138   3.523   0.963   4.680  0.5626 -0.3488 -0.1975
62843SOL    HW1 6139   3.535   0.964   4.585 -0.5357  0.9337 -0.3519
62843SOL    HW2 6140   3.474   1.043   4.699 -0.3518 -1.2118  1.3022
62844SOL     OW 6141   0.182  13.717   3.631 -0.7590  0.2567 -0.3074
62844SOL    HW1 6142   0.234  13.638   3.646 -0.6660  0.4376  0.3921
62844SOL    HW2 6143   0.232  13.786   3.675  0.4864  1.2301 -3.0217
62845SOL     OW 6144  11.658  11.725  13.652  0.1072  0.2656 -0.3314
62845SOL    HW1 6145  11.711  11.786  13.601 -0.3998  1.1612  0.1870
62845SOL    HW2 6146  11.644  11.650  13.593  0.0425  1.0130 -1.2897
62846SOL     OW 6147   3.314   1.852   8.093  0.4093  0.0271 -0.3641
62846SOL    HW1 6148   3.382   1.919   8.088 -0.0685  0.8231  2.1064
62846SOL    HW2 6149   3.243   1.894   8.142 -0.0514 -2.1358  0.9531
62847SOL     OW 6150  12.455   3.947  10.559  0.3326 -0.0265 -0.3688
62847SOL    HW1 6151  12.479   3.975  10.471  1.8943 -0.6213 -0.1685
62847SOL    HW2 6152  12.384   4.005  10.585  1.3531  1.6370 -1.1569
62848SOL     OW 6153   0.959  12.769   4.949  0.2591 -0.1977  0.0373
62848SOL    HW1 6154   1.043  12.734   4.979  0.4855  0.6668  0.4342
62848SOL    HW2 6155   0.953  12.741   4.858  0.7623 -0.6574  0.1381
62849SOL     OW 6156   0.440   4.518   1.863  0.7040  0.1189  0.0628
62849SOL    HW1 6157   0.437   4.457   1.789 -2.0525 -0.8061  0.8177
62849SOL    HW2 6158   0.453   4.603   1.822 -2.0469 -0.1869 -1.7566
62850SOL     OW 6159  12.598   3.891   4.127  0.1790 -0.5187 -0.6295
62850SOL    HW1 6160  12.614   3.946   4.051  1.1203  0.0068 -0.0780
62850SOL    HW2 6161  12.660   3.819   4.119  0.1178 -0.5910 -0.4789
62851SOL     OW 6162   3.495   7.645  13.937  0.4147 -0.4914 -0.7936
62851SOL    HW1 6163   3.421   7.585  13.930 -0.5460  0.5526 -0.0436
62851SOL    HW2 6164   3.471   7.718  13.880  0.1762  0.4896  0.5040
62852SOL     OW 6165   1.682  11.660  11.267 -0.3763  0.0401 -0.1637
62852SOL    HW1 6166   1.706  11.671  11.175 -0.1757  1.7884  0.0567
62852SOL    HW2 6167   1.645  11.745  11.292 -0.4553 -0.4157  1.3592
62853SOL     OW 6168  13.209   5.389   2.790  0.5443  0.6902  0.2373
62853SOL    HW1 6169  13.278   5.325   2.772  1.1949  1.1373  1.0629
62853SOL    HW2 6170  13.136   5.362   2.736  1.3907  0.2284 -0.7021
62854SOL     OW 6171   7.607   7.775   3.097 -0.1636  0.3947 -0.5689
62854SOL    HW1 6172   7.515   7.801   3.096 -0.0138  0.9581 -1.7754
62854SOL    HW2 6173   7.614   7.713   3.169 -2.0782 -1.7044 -2.0725
62855SOL     OW 6174   6.729   2.850  13.520 -0.7132 -0.2003 -0.1457
62855SOL    HW1 6175   6.709   2.862  13.427 -0.2121  1.1654 -0.1004
62855SOL    HW2 6176   6.649   2.814  13.558 -0.8076 -1.1077 -1.1577
62856SOL     OW 6177  13.554   0.174   6.487  0.3675 -0.0546 -0.0904
62856SOL    HW1 6178  13.464   0.142   6.490 -0.3998  1.9710  2.6892
62856SOL    HW2 6179  13.608   0.095   6.489 -1.2101 -1.3663 -2.9413
62857SOL     OW 6180   4.216   9.233   5.224  0.0442  0.2088  0.3369
62857SOL    HW1 6181   4.218   9.185   5.142  0.6601  0.4833  0.1839
62857SOL    HW2 6182   4.307   9.262   5.237  0.2659 -1.0571  1.8485
62858SOL     OW 6183  11.661   2.660   3.841 -0.0165 -0.6199  0.0197
62858SOL    HW1 6184  11.566   2.666   3.832  0.2044  2.1802 -1.9221
62858SOL    HW2 6185  11.679   2.679   3.933 -1.2834  0.8421 -0.0078
62859SOL     OW 6186  13.982   8.209   8.765 -0.2363  0.2951  0.4477
62859SOL    HW1 6187  14.028   8.205   8.849 -1.1181  2.7367  1.1271
62859SOL    HW2 6188  13.932   8.127   8.760  3.4232 -2.1694  0.0016
62860SOL     OW 6189   4.086   8.867  13.683  0.4531 -0.7139  0.0921
62860SOL    HW1 6190   4.062   8.932  13.749 -0.2521 -1.6723  0.8089
62860SOL    HW2 6191   4.055   8.904  13.600 -0.6649 -0.5003  0.5926
62861SOL     OW 6192   4.267  12.356   5.134 -0.4946 -0.0119 -0.3031
62861SOL    HW1 6193   4.312  12.301   5.070  0.1395  1.1780 -0.9325
62861SOL    HW2 6194   4.303  12.329   5.218  0.5055  0.0691 -0.6871
62862SOL     OW 6195   8.592  11.905   7.946 -0.3112  0.0670  0.6683
62862SOL    HW1 6196   8.550  11.983   7.909  0.6664  0.9239  1.3230
62862SOL    HW2 6197   8.644  11.870   7.874 -0.4212  0.2561  0.4956
62863SOL     OW 6198  13.402   5.448   7.069  0.1378  0.0528 -0.1202
62863SOL    HW1 6199  13.347   5.473   7.144  0.5554  2.8819 -0.6375
62863SOL    HW2 6200  13.475   5.401   7.108  1.6512  3.5397  1.7624
62864SOL     OW 6201  13.457  13.848   1.097 -0.0143  0.7118 -0.1872
62864SOL    HW1 6202  13.476  13.805   1.013  1.0129 -2.6264  1.5652
62864SOL    HW2 6203  13.387  13.910   1.077  1.3515  1.3860 -3.7916
62865SOL     OW 6204   8.060  13.300   6.074 -0.4372  0.0570 -0.5093
62865SOL    HW1 6205   8.032  13.218   6.116 -1.6165 -0.0747 -1.4941
62865SOL    HW2 6206   8.011  13.303   5.992  1.9480  0.2242 -2.0017
62866SOL     OW 6207   9.491   6.806  12.858 -0.4085  0.0519  0.2767
62866SOL    HW1 6208   9.493   6.855  12.776  0.4712 -0.4051  0.0212
62866SOL    HW2 6209   9.513   6.716  12.833 -2.5291 -0.6199  0.6609
62867SOL     OW 6210   6.906   9.118   4.517  0.6029  0.0732 -0.1910
62867SOL    HW1 6211   6.825   9.078   4.547  0.1639  0.8196 -0.3696
62867SOL    HW2 6212   6.898   9.210   4.541  1.2132  0.2363 -0.5871
62868SOL     OW 6213   0.348  13.655   2.822  0.3862  0.0731  0.1222
62868SOL    HW1 6214   0.349  13.567   2.860  1.2129  0.3920  0.8682
62868SOL    HW2 6215   0.325  13.712   2.895 -2.4476  0.3014 -0.8382
62869SOL     OW 6216   6.589  13.530   8.029 -0.7384  0.6134  0.2433
62869SOL    HW1 6217   6.574  13.624   8.025 -1.6467  0.4472 -0.6012
62869SOL    HW2 6218   6.550  13.502   8.112 -1.3431  0.8339  0.0315
62870SOL     OW 6219  11.715   9.974   8.549  0.0795 -0.6533 -0.1566
62870SOL    HW1 6220  11.769  10.050   8.527  0.1862 -0.1492  1.6728
62870SOL    HW2 6221  11.698   9.932   8.465  1.0072  0.7240 -1.0854
62871SOL     OW 6222   3.347   6.381   7.472 -0.0713 -0.5517 -0.6642
62871SOL    HW1 6223   3.283   6.361   7.403 -1.9862  0.1695  0.8310
62871SOL    HW2 6224   3.327   6.319   7.542 -1.6864  2.0229  1.3195
62872SOL     OW 6225   3.811   3.370   6.796  0.2150 -0.4626  0.4672
62872SOL    HW1 6226   3.839   3.460   6.812 -1.4549 -0.2528  2.6955
62872SOL    HW2 6227   3.891   3.318   6.805  1.1148  0.7351 -0.4051
62873SOL     OW 6228   9.291   1.637   7.515 -0.4184 -0.2879 -0.1562
62873SOL    HW1 6229   9.251   1.568   7.461  2.1944 -0.8266 -1.5618
62873SOL    HW2 6230   9.372   1.659   7.469 -0.9246  3.4614  0.4904
62874SOL     OW 6231  12.777   1.584  13.940  0.0285  0.3547 -0.4208
62874SOL    HW1 6232  12.790   1.560  13.848  1.1611  0.1238 -0.2136
62874SOL    HW2 6233  12.781   1.500  13.987 -0.7063  0.4535 -0.1679
62875SOL     OW 6234  12.637   3.379   5.218 -0.3482  0.2142  0.0329
62875SOL    HW1 6235  12.573   3.449   5.229 -2.4030 -1.7791  1.6518
62875SOL    HW2 6236  12.632   3.355   5.126 -2.0549  0.0374  0.1491
62876SOL     OW 6237   4.950   2.431   3.082  0.5858  0.4956 -0.0407
62876SOL    HW1 6238   4.966   2.353   3.029 -1.0167  0.4635 -0.5231
62876SOL    HW2 6239   4.980   2.504   3.028  0.6996  0.3264 -0.2044
62877SOL     OW 6240  11.014   8.477   3.045  0.6029 -0.1353 -0.0728
62877SOL    HW1 6241  10.978   8.514   3.126  1.1608 -0.0525  0.1382
62877SOL    HW2 6242  11.034   8.552   2.990  1.2689 -0.1379  0.1582
62878SOL     OW 6243   1.897  12.694   9.792 -0.0511 -0.2267 -0.1029
62878SOL    HW1 6244   1.938  12.748   9.725 -0.1312  0.2490  0.2299
62878SOL    HW2 6245   1.874  12.755   9.862  0.1066 -0.7233  0.3962
62879SOL     OW 6246   7.239  12.689   5.149 -0.5444  0.0144 -0.0914
62879SOL    HW1 6247   7.199  12.618   5.200 -3.7988  1.8212  0.1796
62879SOL    HW2 6248   7.206  12.676   5.060  1.4015 -0.5051 -0.7942
62880SOL     OW 6249   3.118   5.672  11.766  0.0137 -0.4708  0.6820
62880SOL    HW1 6250   3.094   5.741  11.829  0.3919  1.4959 -1.1886
62880SOL    HW2 6251   3.159   5.604  11.820  0.8421  1.3461  2.5222
62881SOL     OW 6252   4.980   9.314   3.605 -0.2106  0.3107  0.1641
62881SOL    HW1 6253   4.957   9.343   3.517 -1.1079  0.6183  0.4887
62881SOL    HW2 6254   4.969   9.392   3.660 -0.0209  0.0263  0.6165
62882SOL     OW 6255   2.852   1.048  12.625 -0.5581 -0.1427  0.1544
62882SOL    HW1 6256   2.831   1.140  12.608 -1.9101 -0.1778  1.4419
62882SOL    HW2 6257   2.777   1.015  12.675 -0.0457 -1.9228 -0.1745
62883SOL     OW 6258   0.691   9.412  11.302  0.0465  0.0699 -0.2031
62883SOL    HW1 6259   0.682   9.479  11.369  2.0305  0.3297 -0.1441
62883SOL    HW2 6260   0.771   9.435  11.255  0.0555 -1.5075 -1.0392
62884SOL     OW 6261   9.692   4.063   7.838 -0.4074  1.0231  0.1652
62884SOL    HW1 6262   9.769   4.055   7.781 -0.2312  0.5521  0.4626
62884SOL    HW2 6263   9.723   4.116   7.911 -0.1537  0.2385  0.6376
62885SOL     OW 6264   4.964   3.659   8.203  0.0076  0.1821 -0.0328
62885SOL    HW1 6265   5.040   3.717   8.208 -0.7567  1.2580 -0.4973
62885SOL    HW2 6266   4.959   3.618   8.289 -0.6450  2.4010  1.0871
62886SOL     OW 6267   2.321   5.664  12.415  0.5682  0.7035  0.1253
62886SOL    HW1 6268   2.319   5.569  12.409  0.9407  0.7017  0.0256
62886SOL    HW2 6269   2.346   5.693  12.327  0.6333  0.8868  0.2047
62887SOL     OW 6270   3.218  12.564   3.988  0.5067  0.2392 -0.0819
62887SOL    HW1 6271   3.297  12.560   4.042  0.6902 -2.3708 -0.4310
62887SOL    HW2 6272   3.234  12.500   3.919 -1.2556  0.8758 -1.1311
62888SOL     OW 6273   5.694  11.539   8.665  0.3564  0.2826  0.5875
62888SOL    HW1 6274   5.673  11.583   8.748  1.6971  0.7697  0.6822
62888SOL    HW2 6275   5.622  11.563   8.606 -1.3957 -1.2124  1.9730
62889SOL     OW 6276   9.987   2.252   9.117  0.2393  0.0541  0.2065
62889SOL    HW1 6277  10.021   2.227   9.203  1.5801  0.2103 -0.2527
62889SOL    HW2 6278  10.019   2.342   9.104  0.2972 -0.0677 -0.5609
62890SOL     OW 6279  10.118   9.321   3.919  0.5266  0.3843  0.3377
62890SOL    HW1 6280  10.213   9.325   3.911  0.7684 -1.5561  1.6750
62890SOL    HW2 6281  10.097   9.228   3.914 -1.3875  0.8151 -0.5682
62891SOL     OW 6282  12.909   1.993  13.852 -0.1264  0.1621  0.6494
62891SOL    HW1 6283  12.919   2.008  13.758  0.5635 -0.2711  0.6491
62891SOL    HW2 6284  12.995   2.013  13.889 -0.4169  0.4171  1.2035
62892SOL     OW 6285  14.023  13.611   4.107 -0.3189  0.2717 -0.9041
62892SOL    HW1 6286  14.082  13.615   4.032  0.3357 -1.7337 -0.5465
62892SOL    HW2 6287  13.940  13.580   4.070 -0.3467  0.4349 -0.9799
62893SOL     OW 6288   9.110   8.011   1.765 -0.4922  0.3853  0.0258
62893SOL    HW1 6289   9.071   8.093   1.735  0.0441  0.0351 -1.8017
62893SOL    HW2 6290   9.048   7.944   1.735 -0.0807  0.0228 -0.0204
62894SOL     OW 6291   2.945   0.460   9.501  0.1821  0.0420  0.5288
62894SOL    HW1 6292   2.890   0.474   9.578  0.0509  2.3330  0.0921
62894SOL    HW2 6293   2.890   0.487   9.427  1.6378  1.7921  0.0228
62895SOL     OW 6294  12.348   1.325   1.532 -0.7517  0.6572  0.2573
62895SOL    HW1 6295  12.254   1.319   1.513 -0.9470  2.6233  0.3545
62895SOL    HW2 6296  12.376   1.406   1.490  0.5001  1.0573  1.7445
62896SOL     OW 6297   6.993   2.060  10.528 -0.1693 -1.3186 -0.1530
62896SOL    HW1 6298   6.939   2.002  10.475 -0.8616 -1.1715  0.3690
62896SOL    HW2 6299   7.045   2.110  10.465  1.2915 -3.2705 -0.5872
62897SOL     OW 6300  12.793   1.787   4.296 -0.0456 -0.3662  0.2978
62897SOL    HW1 6301  12.823   1.696   4.299 -0.6667 -0.5356  2.1902
62897SOL    HW2 6302  12.867   1.838   4.327  0.4131 -0.1590 -1.0619
62898SOL     OW 6303   2.212   1.370   8.044 -0.3475  0.1204 -0.1525
62898SOL    HW1 6304   2.180   1.296   8.095 -0.0041  0.3603  0.4176
62898SOL    HW2 6305   2.205   1.446   8.103  0.1310  0.3853 -0.4273
62899SOL     OW 6306   7.665   3.674   9.700  0.9060  0.7044  0.6190
62899SOL    HW1 6307   7.666   3.621   9.621 -1.0283 -1.8395  2.1437
62899SOL    HW2 6308   7.639   3.761   9.670 -0.3438 -0.3148 -1.5156
62900SOL     OW 6309   7.017   7.494   2.127 -0.5006 -0.0069  0.0159
62900SOL    HW1 6310   6.980   7.406   2.122  0.3959 -0.3054 -2.6758
62900SOL    HW2 6311   7.006   7.530   2.039  0.8931  1.8663  0.5471
62901SOL     OW 6312  13.426   2.346  13.800  0.0716  0.5264 -0.5842
62901SOL    HW1 6313  13.399   2.407  13.731  0.2954  1.0114 -0.2453
62901SOL    HW2 6314  13.517   2.326  13.780 -0.3144 -0.5680 -1.3273
62902SOL     OW 6315   8.677  11.670   1.772 -0.5981 -0.4266 -0.0684
62902SOL    HW1 6316   8.698  11.753   1.728  1.2272 -1.0165 -0.3846
62902SOL    HW2 6317   8.591  11.646   1.737 -0.1730  0.2346 -1.6609
62903SOL     OW 6318   8.613   8.005   5.376 -0.0182 -0.1871 -0.1255
62903SOL    HW1 6319   8.647   8.001   5.287  0.1318  0.4375 -0.1018
62903SOL    HW2 6320   8.595   7.914   5.399 -2.7915 -0.1854 -1.8276
62904SOL     OW 6321   8.156   2.675   1.681  0.1990  0.2134 -0.2572
62904SOL    HW1 6322   8.149   2.585   1.713  2.5146  0.6348  1.7384
62904SOL    HW2 6323   8.227   2.672   1.617  1.2555  0.8299  0.8598
62905SOL     OW 6324  12.631  10.266   7.150  0.1581 -0.2300  0.1204
62905SOL    HW1 6325  12.710  10.263   7.203  1.5016 -2.5823 -1.8228
62905SOL    HW2 6326  12.653  10.321   7.075 -0.1798 -0.5936 -0.2525
62906SOL     OW 6327   5.550   0.603   2.367 -0.1181  0.1516 -0.0313
62906SOL    HW1 6328   5.476   0.664   2.371  2.4522  3.7070 -1.2148
62906SOL    HW2 6329   5.584   0.601   2.456  0.8363  2.0420 -0.3079
62907SOL     OW 6330   9.955   0.410  10.741 -0.3663  0.2967  0.0337
62907SOL    HW1 6331   9.949   0.494  10.786 -0.6796 -0.3844  1.3277
62907SOL    HW2 6332  10.039   0.373  10.771  0.3806  0.6628 -1.5043
62908SOL     OW 6333  13.363  12.876   8.111 -0.5283  0.8904 -0.4711
62908SOL    HW1 6334  13.409  12.825   8.178 -3.6109  1.2248  2.1460
62908SOL    HW2 6335  13.416  12.954   8.099  1.5982 -0.5132 -0.6671
62909SOL     OW 6336   1.544   7.755   0.595 -0.3072 -0.1133 -0.2598
62909SOL    HW1 6337   1.506   7.735   0.510 -0.9233 -1.1904  0.2506
62909SOL    HW2 6338   1.472   7.746   0.657 -0.1064  1.6256  0.2864
62910SOL     OW 6339  14.034  13.527   8.111  0.1515  0.4582 -0.3273
62910SOL    HW1 6340  14.035  13.588   8.185 -0.5100  2.3472 -1.8029
62910SOL    HW2 6341  14.124  13.496   8.104  0.3801  0.8230  0.7817
62911SOL     OW 6342  12.252   6.406  13.204 -0.5028  0.2562  0.0202
62911SOL    HW1 6343  12.199   6.367  13.273  0.5730 -0.7247  0.3203
62911SOL    HW2 6344  12.335   6.427  13.246  1.3374 -3.0820 -1.4672
62912SOL     OW 6345   7.659   1.318   1.516 -0.2020  0.5875 -0.1413
62912SOL    HW1 6346   7.565   1.334   1.523 -0.2664 -0.4380  2.2879
62912SOL    HW2 6347   7.698   1.374   1.583  0.4876 -1.7285  1.5381
62913SOL     OW 6348   6.267  11.560   9.536  0.1550  0.8208 -0.1828
62913SOL    HW1 6349   6.213  11.498   9.584 -0.5588  0.5589 -1.2750
62913SOL    HW2 6350   6.251  11.644   9.579  0.2425  0.4533  0.5845
62914SOL     OW 6351   2.154   3.836   6.615  0.0037 -0.6538  0.3650
62914SOL    HW1 6352   2.241   3.875   6.622  0.4421 -1.5114 -0.1703
62914SOL    HW2 6353   2.160   3.775   6.541 -1.3623  0.0823 -0.3981
62915SOL     OW 6354   1.998   5.186   4.442 -0.3772 -0.0444 -0.2104
62915SOL    HW1 6355   2.057   5.115   4.467 -0.5026  0.4138  1.5094
62915SOL    HW2 6356   1.982   5.172   4.349 -1.5536 -3.1617  0.3355
62916SOL     OW 6357  12.287   4.019   8.392  0.0046 -0.4877  0.3306
62916SOL    HW1 6358  12.366   4.041   8.441 -1.0475  1.6985  1.1732
62916SOL    HW2 6359  12.319   3.984   8.309  1.8812  1.7066  0.0359
62917SOL     OW 6360   9.665   1.578  13.510  0.0641  0.4946 -0.5778
62917SOL    HW1 6361   9.724   1.538  13.574 -2.8169  0.6620  2.4998
62917SOL    HW2 6362   9.713   1.653  13.475  2.6318 -0.9879 -0.4314
62918SOL     OW 6363   0.197   7.440   7.725  0.2238  0.0899 -0.3249
62918SOL    HW1 6364   0.174   7.347   7.721 -0.5748  0.3228 -1.9884
62918SOL    HW2 6365   0.114   7.486   7.712  0.5993  1.0493  0.5498
62919SOL     OW 6366   5.546   2.994   7.650  0.0069  0.0823  0.0206
62919SOL    HW1 6367   5.482   2.934   7.687  0.4879  0.0965  0.9032
62919SOL    HW2 6368   5.592   3.030   7.726 -0.1490  1.4226 -0.4964
62920SOL     OW 6369  12.712  11.445   2.575  0.2405 -0.5954 -0.3396
62920SOL    HW1 6370  12.707  11.357   2.538 -0.9434 -0.6198 -0.1773
62920SOL    HW2 6371  12.646  11.446   2.644  0.3728  0.3547 -0.2104
62921SOL     OW 6372  12.918   3.469   5.007  0.2535  0.6621 -0.0555
62921SOL    HW1 6373  12.826   3.446   4.993  0.2394  0.2630  0.6507
62921SOL    HW2 6374  12.951   3.402   5.067  0.9161  0.9926 -0.0384
62922SOL     OW 6375   1.573   9.949   0.352  0.1929 -0.1277  0.1497
62922SOL    HW1 6376   1.571   9.876   0.413  1.4173 -0.6804 -0.4519
62922SOL    HW2 6377   1.634  10.011   0.391  1.6888 -0.8777 -0.9122
62923SOL     OW 6378   7.800   3.885  12.426 -0.8332  0.3640 -0.5603
62923SOL    HW1 6379   7.862   3.884  12.499 -0.0638 -1.0836 -1.1886
62923SOL    HW2 6380   7.716   3.862  12.465 -0.4726 -0.1567 -0.0736
62924SOL     OW 6381  10.957  12.380   3.502  0.1238 -0.2147  0.3074
62924SOL    HW1 6382  11.012  12.314   3.459  0.0692  0.0170 -0.1181
62924SOL    HW2 6383  11.017  12.428   3.558  1.2579  2.6388 -3.0315
62925SOL     OW 6384   7.623   5.256   7.646 -0.2189  0.5784 -0.1920
62925SOL    HW1 6385   7.534   5.233   7.670 -0.5153  1.6106 -0.2445
62925SOL    HW2 6386   7.653   5.183   7.593 -0.1853 -0.8814  1.7507
62926SOL     OW 6387   1.850  12.776   3.062  0.2968  0.1861 -0.1961
62926SOL    HW1 6388   1.932  12.783   3.013  0.0187  3.3624 -0.3659
62926SOL    HW2 6389   1.874  12.799   3.152 -0.2832  0.3238 -0.0723
62927SOL     OW 6390   1.500   1.801   3.680  0.7567  0.1809  0.3650
62927SOL    HW1 6391   1.509   1.823   3.588 -0.8023  0.2562  0.2095
62927SOL    HW2 6392   1.422   1.745   3.684  1.4959 -0.8243  1.4792
62928SOL     OW 6393   9.210   3.919   8.604 -0.6986 -0.3240  0.1786
62928SOL    HW1 6394   9.205   3.920   8.508 -0.1214 -0.8948  0.1378
62928SOL    HW2 6395   9.125   3.953   8.632 -0.9887 -0.4410 -0.5329
62929SOL     OW 6396   3.144   0.502   8.753 -0.3865  0.5325 -0.0107
62929SOL    HW1 6397   3.215   0.468   8.807 -0.7600  0.1433  0.2496
62929SOL    HW2 6398   3.105   0.424   8.714 -0.6163  0.7494 -0.2188
62930SOL     OW 6399   6.801   1.421   5.951  0.6072  0.6138 -0.2210
62930SOL    HW1 6400   6.830   1.490   6.010  0.0562  1.4530 -0.8969
62930SOL    HW2 6401   6.855   1.432   5.873 -0.1023  0.8783 -0.6872
62931SOL     OW 6402   1.398   9.618  11.279 -0.9303 -0.2156 -0.3781
62931SOL    HW1 6403   1.424   9.534  11.241 -1.3961 -0.1658 -0.8195
62931SOL    HW2 6404   1.304   9.623  11.263 -1.0597  0.0010  0.4192
62932SOL     OW 6405   4.607   0.144   4.125  0.0074 -0.6904  0.1247
62932SOL    HW1 6406   4.609   0.052   4.099  2.0393 -0.6082 -0.1614
62932SOL    HW2 6407   4.623   0.192   4.043 -2.3321  0.0184  0.0287
62933SOL     OW 6408   0.482   4.709  13.541  0.3075  0.5716 -0.1024
62933SOL    HW1 6409   0.437   4.771  13.599 -1.4806  1.3144 -2.1386
62933SOL    HW2 6410   0.550   4.761  13.500  0.3678  0.5368 -0.0472
62934SOL     OW 6411   2.708   2.773  13.930  0.1773  0.7491  0.1646
62934SOL    HW1 6412   2.733   2.842  13.869 -1.2460  1.1644  0.0250
62934SOL    HW2 6413   2.613   2.781  13.939  0.0746 -0.7260  0.7190
62935SOL     OW 6414   9.275  12.484  11.274 -0.2142  0.1597 -0.0456
62935SOL    HW1 6415   9.294  12.573  11.305 -0.2034 -0.2876  1.2994
62935SOL    HW2 6416   9.346  12.431  11.309 -0.7815 -0.5513  0.0526
62936SOL     OW 6417   8.245   7.500   9.241 -0.0771 -0.4023  1.2763
62936SOL    HW1 6418   8.203   7.414   9.243  0.8395 -0.8538  1.7445
62936SOL    HW2 6419   8.300   7.498   9.162  1.2807 -0.9136  2.2094
62937SOL     OW 6420   9.334   6.093  11.640  0.6395 -0.4138 -0.0360
62937SOL    HW1 6421   9.315   6.080  11.733 -2.5336  2.4169 -0.0784
62937SOL    HW2 6422   9.265   6.046  11.594  0.3372  0.7179 -0.7890
62938SOL     OW 6423   3.449  12.322   6.103 -0.1792  0.0162 -0.1941
62938SOL    HW1 6424   3.418  12.396   6.156  1.1817 -0.0338  0.7340
62938SOL    HW2 6425   3.419  12.245   6.150 -1.4628 -0.0616 -1.0799
62939SOL     OW 6426   4.962   2.769  10.571 -0.8295 -0.1082  0.4944
62939SOL    HW1 6427   5.022   2.697  10.592 -1.7051 -0.9296  0.2934
62939SOL    HW2 6428   4.920   2.741  10.489 -1.5214  0.4192  0.6659
62940SOL     OW 6429  13.311   7.107   7.145 -0.3718 -0.0796 -0.4145
62940SOL    HW1 6430  13.237   7.051   7.168  1.0673 -1.0950  2.2153
62940SOL    HW2 6431  13.299   7.185   7.199 -0.6014  0.7156 -1.5763
62941SOL     OW 6432   8.965   0.170  13.580 -0.7511 -0.1262  0.0551
62941SOL    HW1 6433   8.987   0.138  13.492 -2.3830  1.0024 -0.8285
62941SOL    HW2 6434   9.025   0.123  13.638  0.6422 -0.6330 -1.6806
62942SOL     OW 6435  10.368  11.522   7.263 -0.4210  0.1215  0.3362
62942SOL    HW1 6436  10.421  11.453   7.303  0.1714 -0.0912 -0.7517
62942SOL    HW2 6437  10.315  11.557   7.334 -0.1679 -0.9355  1.0647
62943SOL     OW 6438   4.553   4.256   9.621  0.3695 -0.7221  0.2393
62943SOL    HW1 6439   4.621   4.306   9.575  0.1708 -0.8125 -0.1552
62943SOL    HW2 6440   4.534   4.309   9.698  0.0548 -0.1013 -0.2483
62944SOL     OW 6441   0.108   6.493  11.535 -0.2187 -1.0074 -0.6126
62944SOL    HW1 6442   0.065   6.561  11.485  0.2212 -0.5661 -0.4021
62944SOL    HW2 6443   0.177   6.539  11.584 -1.5017 -1.1586  1.4799
62945SOL     OW 6444   7.485   3.925   1.725  0.2082 -0.3053 -0.0122
62945SOL    HW1 6445   7.465   3.856   1.788 -0.2948 -0.4883 -0.3639
62945SOL    HW2 6446   7.560   3.891   1.676  0.3746 -0.3169  0.2464
62946SOL     OW 6447   0.696  10.334  12.646  0.1029 -0.0084  0.6428
62946SOL    HW1 6448   0.633  10.351  12.716  0.3251  2.3411  0.3226
62946SOL    HW2 6449   0.675  10.245  12.617 -1.0787 -0.4216  2.5428
62947SOL     OW 6450   5.135   2.351   5.656  0.4850  0.2695 -0.4616
62947SOL    HW1 6451   5.127   2.353   5.751 -0.0340  1.7050 -0.5143
62947SOL    HW2 6452   5.055   2.308   5.626  1.2004 -1.3223 -0.2366
62948SOL     OW 6453  12.131   3.514   0.724  0.6933  0.2159  0.5571
62948SOL    HW1 6454  12.120   3.448   0.792 -0.8838  0.6781  0.7916
62948SOL    HW2 6455  12.045   3.519   0.681  1.1201  1.2694 -0.2271
62949SOL     OW 6456   3.667  12.140   1.275  0.2538 -0.4411 -0.5065
62949SOL    HW1 6457   3.581  12.176   1.296  1.2331  1.9940 -0.2877
62949SOL    HW2 6458   3.657  12.102   1.188 -0.6415  1.4707 -1.2946
62950SOL     OW 6459   1.986   2.107   6.308 -0.6632 -0.6230  0.3259
62950SOL    HW1 6460   2.061   2.118   6.250 -0.2229  0.0626  0.9877
62950SOL    HW2 6461   1.910   2.108   6.250 -0.4924  3.1260 -0.1100
62951SOL     OW 6462   2.689   5.531   1.267 -0.0128  0.1036 -0.0482
62951SOL    HW1 6463   2.721   5.476   1.196  0.8358 -1.0908  1.2267
62951SOL    HW2 6464   2.767   5.578   1.298 -0.5239  1.2294 -0.3902
62952SOL     OW 6465   8.680   8.902   4.847  0.4527  0.4535 -0.3146
62952SOL    HW1 6466   8.755   8.858   4.808  3.0162  1.0472  3.4084
62952SOL    HW2 6467   8.698   8.995   4.837  0.6634  0.6075  1.1991
62953SOL     OW 6468   8.410  13.165  13.757  0.0675  0.4517  0.7317
62953SOL    HW1 6469   8.369  13.108  13.823 -0.2550 -2.0056 -1.4004
62953SOL    HW2 6470   8.479  13.110  13.718 -0.0153  1.6422 -1.2189
62954SOL     OW 6471   6.981  13.843   3.169 -0.1231 -0.0347 -1.2617
62954SOL    HW1 6472   7.004  13.871   3.080  1.7654  1.8329 -0.2586
62954SOL    HW2 6473   7.058  13.796   3.200 -0.8225 -0.8006 -0.6225
62955SOL     OW 6474   6.036  11.667   1.560  0.0880  0.1793  0.3501
62955SOL    HW1 6475   6.071  11.633   1.478 -0.8910  2.0835 -0.9347
62955SOL    HW2 6476   6.041  11.762   1.550  1.6981  0.5260  3.3088
62956SOL     OW 6477  12.889   4.740   4.214 -0.2983  0.1779 -0.3404
62956SOL    HW1 6478  12.832   4.808   4.249  4.0076  4.3506 -0.4535
62956SOL    HW2 6479  12.952   4.722   4.284  0.5526 -1.4069 -1.4340
62957SOL     OW 6480   1.975  12.391   7.616  0.0434 -0.0361  0.1020
62957SOL    HW1 6481   2.006  12.333   7.546 -2.6428 -0.8721 -0.4953
62957SOL    HW2 6482   1.996  12.344   7.697 -0.0202 -0.7686 -0.2986
62958SOL     OW 6483   5.512   3.861   6.777 -0.0007 -0.5234 -0.4042
62958SOL    HW1 6484   5.495   3.799   6.848  0.7726 -0.6356 -0.3138
62958SOL    HW2 6485   5.598   3.837   6.744 -0.2463 -0.3197 -1.2275
62959SOL     OW 6486  13.474   0.573   6.671 -0.5334 -0.2344  0.1883
62959SOL    HW1 6487  13.498   0.560   6.579  1.0386  2.5732  0.0685
62959SOL    HW2 6488  13.505   0.494   6.715 -1.5077 -1.7475 -1.6739
62960SOL     OW 6489   4.293   2.184   1.799  0.6669  0.7897 -0.3417
62960SOL    HW1 6490   4.236   2.132   1.855  1.1694  0.1867 -0.3868
62960SOL    HW2 6491   4.368   2.206   1.854  0.7399  0.9563 -0.5059
62961SOL     OW 6492  10.428   0.175   7.272  0.1955 -0.0575  0.2869
62961SOL    HW1 6493  10.364   0.166   7.342  1.5997  0.1932  1.6595
62961SOL    HW2 6494  10.405   0.258   7.229 -1.6171 -0.9647 -0.6096
62962SOL     OW 6495   5.847   6.248   0.910 -0.5585 -0.0120 -0.1368
62962SOL    HW1 6496   5.755   6.228   0.889 -0.6999  0.1098  0.3641
62962SOL    HW2 6497   5.843   6.324   0.967 -0.1449 -0.0563 -0.0445
62963SOL     OW 6498   2.855  10.995   5.032  0.8380 -0.1858  0.6234
62963SOL    HW1 6499   2.866  11.084   5.064  0.4317  0.0486  0.1088
62963SOL    HW2 6500   2.785  10.958   5.086  0.0703  0.2481 -0.0587
62964SOL     OW 6501  11.092   1.409   5.362 -0.0736  0.4673 -0.0467
62964SOL    HW1 6502  11.112   1.388   5.270 -0.5098  0.3720 -0.1196
62964SOL    HW2 6503  11.063   1.326   5.399 -0.5063  0.6448  0.0133
62965SOL     OW 6504   5.913   3.743   3.699 -0.3763 -0.1133  0.1412
62965SOL    HW1 6505   5.821   3.760   3.677 -0.5085  0.2791  0.9507
62965SOL    HW2 6506   5.910   3.673   3.764  0.0835 -2.1951 -1.9636
62966SOL     OW 6507   9.158  11.765   7.124  0.3164 -0.3342 -0.4528
62966SOL    HW1 6508   9.140  11.856   7.101  0.1934 -0.1560  0.3180
62966SOL    HW2 6509   9.128  11.715   7.048 -0.1854  0.2218 -0.6349
62967SOL     OW 6510   5.930   1.125   3.340  0.2850  0.0275  0.1455
62967SOL    HW1 6511   6.012   1.132   3.388  0.7076 -1.4956 -0.2700
62967SOL    HW2 6512   5.878   1.062   3.390  0.1443 -0.4459 -0.5718
62968SOL     OW 6513  10.856   9.101   1.309 -0.1743 -0.9350  0.1032
62968SOL    HW1 6514  10.801   9.175   1.335 -0.0801 -0.3445 -1.3106
62968SOL    HW2 6515  10.907   9.081   1.387 -0.9738 -0.2047  0.8325
62969SOL     OW 6516   6.760   7.059  13.880  0.1342  0.4851 -0.1778
62969SOL    HW1 6517   6.850   7.062  13.910 -0.2733  0.2234  1.1158
62969SOL    HW2 6518   6.719   6.990  13.932 -1.2039  1.6538  0.4021
62970SOL     OW 6519   2.319   7.073   4.399 -0.4087 -0.2117  0.4111
62970SOL    HW1 6520   2.280   7.094   4.314 -1.4143 -0.0893  0.8802
62970SOL    HW2 6521   2.326   6.977   4.398 -2.0703 -0.3752  0.8466
62971SOL     OW 6522   2.447   4.424   9.283 -0.3771  0.2489 -0.0698
62971SOL    HW1 6523   2.373   4.374   9.318  0.3200  0.3823  1.7019
62971SOL    HW2 6524   2.522   4.366   9.295 -0.0657  0.4072 -1.1734
62972SOL     OW 6525  10.979  12.858   9.253  0.2688 -0.3947 -0.6064
62972SOL    HW1 6526  11.032  12.865   9.174 -0.5560 -0.1783 -1.1559
62972SOL    HW2 6527  10.986  12.766   9.279  2.2688 -0.0369  0.3192
62973SOL     OW 6528   0.144  12.387   3.054  0.6925 -0.1302 -0.8581
62973SOL    HW1 6529   0.202  12.342   3.115  0.4624  1.3149  0.4888
62973SOL    HW2 6530   0.185  12.376   2.968  0.7205 -2.7286 -0.5882
62974SOL     OW 6531   9.547   5.271   7.254 -0.2093 -0.0672 -0.4287
62974SOL    HW1 6532   9.630   5.310   7.228 -0.3792 -0.2452 -1.2862
62974SOL    HW2 6533   9.481   5.332   7.223 -0.4846 -1.0829 -1.9537
62975SOL     OW 6534   5.481   9.638   4.764 -0.3612  0.1765 -0.2793
62975SOL    HW1 6535   5.403   9.596   4.729  0.8473 -1.0344 -1.6142
62975SOL    HW2 6536   5.454   9.668   4.851 -2.0872 -0.8650 -0.4038
62976SOL     OW 6537   9.527   8.293   8.306  0.0194 -0.0401 -0.5260
62976SOL    HW1 6538   9.526   8.383   8.275 -0.8396 -0.0701 -0.6046
62976SOL    HW2 6539   9.568   8.244   8.235  1.0467  0.3662 -0.2299
62977SOL     OW 6540   8.289   9.849   3.607  0.8336 -0.1557 -0.1095
62977SOL    HW1 6541   8.198   9.821   3.603  0.4081  1.2522 -0.8919
62977SOL    HW2 6542   8.335   9.788   3.549  0.2072 -0.2197 -0.5519
62978SOL     OW 6543  10.646   1.791   6.629 -0.5967  0.0887  0.1464
62978SOL    HW1 6544  10.712   1.722   6.636  1.2089  1.7320 -0.0889
62978SOL    HW2 6545  10.590   1.778   6.706 -0.0064 -1.3061  0.3783
62979SOL     OW 6546  11.305   8.337  10.910  0.1190 -0.0393 -0.2222
62979SOL    HW1 6547  11.258   8.281  10.849 -0.7094  0.9856 -0.5658
62979SOL    HW2 6548  11.294   8.425  10.875  1.3082  0.3628  0.3474
62980SOL     OW 6549   6.777   2.820  13.982 -0.2789  0.5237 -0.2232
62980SOL    HW1 6550   6.706   2.762  13.956 -0.7315  1.2000 -0.5443
62980SOL    HW2 6551   6.739   2.875  14.051 -0.3451  1.4562 -0.9785
62981SOL     OW 6552   4.642   3.536   4.981 -0.3817  0.3862 -0.0289
62981SOL    HW1 6553   4.569   3.598   4.986 -0.7396  0.0267 -0.5806
62981SOL    HW2 6554   4.665   3.535   4.888  2.8033  3.2684  0.5368
62982SOL     OW 6555   5.543   7.694   3.868 -0.0012 -0.6084  0.2094
62982SOL    HW1 6556   5.483   7.722   3.937  0.2881 -0.9717  0.6145
62982SOL    HW2 6557   5.501   7.617   3.829 -0.8766  0.4320 -1.0121
62983SOL     OW 6558   3.742   1.573  12.851  0.1026 -0.4078  0.6342
62983SOL    HW1 6559   3.751   1.516  12.774  0.0986  0.6227 -0.1491
62983SOL    HW2 6560   3.659   1.618  12.838  1.1323  1.4230  0.0823
62984SOL     OW 6561   8.192  13.256   0.532 -0.1270 -0.1393 -0.3587
62984SOL    HW1 6562   8.140  13.260   0.452  0.3248 -0.3955 -0.6737
62984SOL    HW2 6563   8.129  13.236   0.601 -0.1464 -3.1649 -1.1064
62985SOL     OW 6564   6.353   0.662  12.856 -0.9646  0.0804  0.0068
62985SOL    HW1 6565   6.264   0.650  12.891 -0.9549  0.3082  0.1108
62985SOL    HW2 6566   6.358   0.600  12.783 -0.1626 -2.1706  1.8402
62986SOL     OW 6567  13.340   8.753   8.857  0.1946  0.2700 -0.4753
62986SOL    HW1 6568  13.367   8.796   8.776 -0.7731 -2.0797 -2.1374
62986SOL    HW2 6569  13.411   8.692   8.877 -1.2528 -2.0603 -1.9092
62987SOL     OW 6570   6.104   3.074   0.098 -0.1347  0.1637 -0.2996
62987SOL    HW1 6571   6.134   3.056   0.009  1.6049  0.9535  0.0780
62987SOL    HW2 6572   6.136   3.163   0.117 -0.7287  0.1252  0.9942
62988SOL     OW 6573   5.677   4.382  12.765  0.3969 -0.3812 -0.4294
62988SOL    HW1 6574   5.657   4.435  12.842  1.5804 -0.8670  0.2436
62988SOL    HW2 6575   5.619   4.415  12.697 -2.6058 -1.6620  1.3293
62989SOL     OW 6576   0.806   2.223  13.705  0.6074  0.3515 -0.2337
62989SOL    HW1 6577   0.731   2.173  13.738  0.3734  1.1706  0.5197
62989SOL    HW2 6578   0.833   2.176  13.626  0.1947 -0.7705  0.2639
62990SOL     OW 6579   6.480   5.907   9.152  0.1171  0.1065  0.1472
62990SOL    HW1 6580   6.544   5.861   9.207  0.8544 -1.2018 -1.7239
62990SOL    HW2 6581   6.395   5.878   9.185  0.5387 -0.6136  0.6193
62991SOL     OW 6582  12.468  10.950  13.215  0.3941 -0.4476 -0.7014
62991SOL    HW1 6583  12.461  11.037  13.256 -0.3985 -1.4789  1.5059
62991SOL    HW2 6584  12.450  10.966  13.123 -0.2918  1.6603 -0.2651
62992SOL     OW 6585  10.459  13.139   4.656 -0.3802  0.1085 -0.2004
62992SOL    HW1 6586  10.544  13.161   4.617 -0.1079 -1.4556 -0.5283
62992SOL    HW2 6587  10.448  13.046   4.639 -3.1858  0.6692 -2.1130
62993SOL     OW 6588   0.380  14.054   2.666 -0.2550 -0.0759  0.1738
62993SOL    HW1 6589   0.331  14.136   2.668 -2.3007 -1.2489  0.7647
62993SOL    HW2 6590   0.430  14.054   2.747 -0.2996  0.5272  0.2090
62994SOL     OW 6591   1.666   4.708  10.732 -0.0878 -0.4000 -0.3115
62994SOL    HW1 6592   1.750   4.737  10.697 -0.2593  0.3448 -0.1115
62994SOL    HW2 6593   1.688   4.669  10.817 -0.1036  1.0656  0.3846
62995SOL     OW 6594   0.556  13.880   5.726 -0.3174  0.5898  0.5085
62995SOL    HW1 6595   0.601  13.801   5.695 -0.4795  1.5620 -2.4745
62995SOL    HW2 6596   0.624  13.928   5.773 -0.0456 -0.9469  1.7987
62996SOL     OW 6597   0.572   6.538   5.458 -0.8423  0.2783 -0.0215
62996SOL    HW1 6598   0.531   6.452   5.473  0.7307 -0.7609 -1.2916
62996SOL    HW2 6599   0.664   6.526   5.482 -0.8356  2.0137  0.9836
62997SOL     OW 6600   1.837  11.765   6.119  0.2578  0.1716  0.7284
62997SOL    HW1 6601   1.882  11.726   6.044 -1.8737  0.2689 -0.6802
62997SOL    HW2 6602   1.840  11.697   6.186  0.6853 -0.6097 -0.0569
62998SOL     OW 6603   2.225   4.464   8.131 -0.0545 -0.1159  0.3884
62998SOL    HW1 6604   2.274   4.499   8.057  1.5722 -0.4488  1.2638
62998SOL    HW2 6605   2.288   4.464   8.203 -1.1598 -1.1871  1.3871
62999SOL     OW 6606   4.472  12.590  10.473  0.1975 -0.0605 -0.2752
62999SOL    HW1 6607   4.504  12.541  10.396  0.1633 -2.0336  0.8892
62999SOL    HW2 6608   4.441  12.522  10.533  2.2151  1.2042  2.4302
63000SOL     OW 6609   9.526   2.163   9.978  0.0799  0.0672  0.5483
63000SOL    HW1 6610   9.598   2.221   9.956  0.0908 -0.2532 -0.2896
63000SOL    HW2 6611   9.510   2.112   9.899 -1.1015  0.1729  0.6907
63001SOL     OW 6612  13.703   4.200   2.656  0.3645  0.2578 -0.0796
63001SOL    HW1 6613  13.696   4.288   2.618  0.5593 -0.3843 -1.6711
63001SOL    HW2 6614  13.720   4.216   2.749 -4.1495  1.9493  0.7185
63002SOL     OW 6615  10.836   0.689   1.113  0.2058 -0.2659 -0.1847
63002SOL    HW1 6616  10.914   0.744   1.109  0.6189 -0.8878 -1.4309
63002SOL    HW2 6617  10.867   0.602   1.088 -0.6771 -0.7762  0.4530
63003SOL     OW 6618   8.953   5.094   2.028 -0.5256  0.2795  0.1490
63003SOL    HW1 6619   8.866   5.125   2.003 -0.0651  1.5658  0.0177
63003SOL    HW2 6620   8.984   5.044   1.952 -1.8434 -1.7785  0.9040
63004SOL     OW 6621   1.096   8.745  13.712 -0.2185  0.5401 -0.5501
63004SOL    HW1 6622   1.143   8.781  13.637 -2.3750  2.0512 -1.2833
63004SOL    HW2 6623   1.072   8.822  13.764 -0.4871 -0.3169  0.6220
63005SOL     OW 6624   6.814  12.119  13.062  0.3538 -0.0886 -0.1655
63005SOL    HW1 6625   6.908  12.111  13.075  0.3259  0.5386  0.5411
63005SOL    HW2 6626   6.804  12.143  12.970  0.8168 -1.1224 -0.4925
63006SOL     OW 6627   5.629  10.561   0.040  0.2598 -0.2345 -0.2740
63006SOL    HW1 6628   5.585  10.618   0.103 -0.7183  0.1989 -1.3276
63006SOL    HW2 6629   5.712  10.606   0.022 -0.0266  0.2981 -0.2821
63007SOL     OW 6630   3.807  12.282  12.702  0.1840  0.0872  0.3327
63007SOL    HW1 6631   3.791  12.248  12.614 -0.6181  0.2529  0.4092
63007SOL    HW2 6632   3.894  12.249  12.724  0.7032  0.6270 -0.7947
63008SOL     OW 6633   7.146   9.115  13.930  0.1491  0.4829 -0.5307
63008SOL    HW1 6634   7.077   9.153  13.876  1.2838 -0.8697 -3.0765
63008SOL    HW2 6635   7.158   9.178  14.001 -0.2755  3.2110 -2.7399
63009SOL     OW 6636  13.196  12.102   4.100  0.3458  0.3156  0.3953
63009SOL    HW1 6637  13.108  12.068   4.085 -0.3198  2.4219 -0.7966
63009SOL    HW2 6638  13.254  12.027   4.085 -1.1536 -0.7778 -0.1230
63010SOL     OW 6639  10.708   9.135   5.575  0.0544  0.0850  0.1728
63010SOL    HW1 6640  10.770   9.069   5.606 -0.3072 -0.5963 -0.5219
63010SOL    HW2 6641  10.749   9.173   5.498 -0.2547 -0.1824 -0.1326
63011SOL     OW 6642  10.592   8.950   8.090 -0.1824  0.5525  0.0579
63011SOL    HW1 6643  10.687   8.956   8.095 -0.0973  1.0129 -1.6518
63011SOL    HW2 6644  10.564   9.030   8.046 -1.3582  0.3925  0.4639
63012SOL     OW 6645  13.212   2.519  11.959 -0.2622  0.0984 -0.1483
63012SOL    HW1 6646  13.254   2.518  12.045  0.0474 -0.4426 -0.3007
63012SOL    HW2 6647  13.178   2.608  11.950 -0.7187  0.0302  0.7372
63013SOL     OW 6648  10.514   4.764   9.712  0.1409  0.5632 -0.1250
63013SOL    HW1 6649  10.589   4.822   9.727 -0.4763  1.1466  0.7916
63013SOL    HW2 6650  10.462   4.808   9.644  0.6098  0.1514 -0.7710
63014SOL     OW 6651   3.653   5.864   7.120 -0.4475 -0.4660  0.1266
63014SOL    HW1 6652   3.565   5.863   7.080  0.8757 -0.8147 -3.1123
63014SOL    HW2 6653   3.653   5.791   7.181 -2.1734 -0.9686 -0.4183
63015SOL     OW 6654   0.063   1.003  11.209  0.4865  0.7276 -0.1943
63015SOL    HW1 6655   0.087   0.923  11.256 -2.1828  1.2332  2.3163
63015SOL    HW2 6656   0.021   0.972  11.129  1.9595 -0.2778 -0.6017
63016SOL     OW 6657   5.729   4.580  13.942 -0.4784  0.4034  0.2833
63016SOL    HW1 6658   5.711   4.556  14.033  0.6926  0.0564  0.4444
63016SOL    HW2 6659   5.744   4.674  13.945 -0.7986  0.4524  0.3887
63017SOL     OW 6660  13.521   5.032   6.479 -0.1164 -0.3735  0.1328
63017SOL    HW1 6661  13.560   4.955   6.437 -0.3808 -0.0456 -0.7337
63017SOL    HW2 6662  13.549   5.026   6.570  0.7227 -0.9425 -0.1464
63018SOL     OW 6663   1.294   9.360   5.845 -0.0159 -0.7665 -0.2622
63018SOL    HW1 6664   1.214   9.315   5.873 -0.3016 -0.2490 -0.2390
63018SOL    HW2 6665   1.363   9.294   5.857 -0.2100 -0.7575  1.1168
63019SOL     OW 6666   8.292  13.633   7.651  0.2979  0.4774  0.4709
63019SOL    HW1 6667   8.379  13.612   7.619  0.3154 -2.1867  1.9733
63019SOL    HW2 6668   8.248  13.673   7.576  2.6767  1.7076 -0.3878
63020SOL     OW 6669   3.506   8.109   6.309 -0.0748 -0.4727  0.0483
63020SOL    HW1 6670   3.546   8.023   6.296 -0.1839 -0.5979  0.5315
63020SOL    HW2 6671   3.412   8.094   6.298 -0.2789 -0.7944  1.9746
63021SOL     OW 6672   4.549   8.784  14.082  0.4009 -0.0026 -0.0315
63021SOL    HW1 6673   4.508   8.719  14.026  1.6561  0.1858 -1.2279
63021SOL    HW2 6674   4.481   8.849  14.098 -0.0247 -0.1421 -1.2073
63022SOL     OW 6675   6.506   5.831   5.795 -0.1723 -0.0657  0.0260
63022SOL    HW1 6676   6.544   5.793   5.716 -1.3548  0.3276 -0.7700
63022SOL    HW2 6677   6.469   5.915   5.765 -1.0338 -0.1225  0.8962
63023SOL     OW 6678  11.417  11.805   8.890 -0.1004 -0.6569 -0.0893
63023SOL    HW1 6679  11.432  11.848   8.973 -1.0870  0.6393 -0.5534
63023SOL    HW2 6680  11.334  11.759   8.901 -2.7287  3.2321 -1.6606
63024SOL     OW 6681   5.445   0.436  13.444 -1.3445  0.1521  0.0298
63024SOL    HW1 6682   5.480   0.441  13.355 -1.5654 -2.1237 -0.2579
63024SOL    HW2 6683   5.478   0.514  13.488  0.3504  0.3528 -1.5026
63025SOL     OW 6684   6.694   8.490  13.129  0.9230 -0.1629  0.6963
63025SOL    HW1 6685   6.632   8.473  13.199  0.0827  3.8117  1.1448
63025SOL    HW2 6686   6.640   8.500  13.050  1.7016 -2.8648 -0.2935
63026SOL     OW 6687   9.172   1.226  13.275  0.5008  0.5208 -0.5585
63026SOL    HW1 6688   9.157   1.319  13.256  1.0266  0.5096 -1.0470
63026SOL    HW2 6689   9.215   1.192  13.197  1.2348  0.0996  0.0180
63027SOL     OW 6690   7.653   8.738   0.771 -0.2455  0.3828 -0.1492
63027SOL    HW1 6691   7.604   8.820   0.782 -1.3928 -0.4696  1.4785
63027SOL    HW2 6692   7.723   8.744   0.837 -0.3100  0.0837 -0.0530
63028SOL     OW 6693  13.244  12.681   7.962  0.5819  0.0362 -0.0101
63028SOL    HW1 6694  13.292  12.747   8.013 -0.1347  0.1671  0.5190
63028SOL    HW2 6695  13.170  12.729   7.925 -0.0129 -0.4869  0.4736
63029SOL     OW 6696   0.242  10.174   5.843  0.0879  0.6546  0.2504
63029SOL    HW1 6697   0.189  10.138   5.915 -0.2580 -0.6747 -0.6232
63029SOL    HW2 6698   0.179  10.224   5.791 -0.1606 -0.1934 -0.2987
63030SOL     OW 6699  12.577  13.464   9.572 -0.2262  0.2358 -0.4523
63030SOL    HW1 6700  12.515  13.400   9.608 -1.6457  1.5175 -0.5357
63030SOL    HW2 6701  12.614  13.421   9.495  0.9388 -1.5397  0.9862
63031SOL     OW 6702   0.919   3.417   5.308  0.3934 -0.2413  0.0188
63031SOL    HW1 6703   0.862   3.491   5.286 -1.5402 -1.5276  0.3981
63031SOL    HW2 6704   0.955   3.440   5.394 -0.2145  0.2717  0.1476
63032SOL     OW 6705   6.069   6.865   4.296  0.5510  0.6051  0.4204
63032SOL    HW1 6706   6.112   6.939   4.252  1.1632  0.4684  0.7748
63032SOL    HW2 6707   6.141   6.814   4.331  0.1466 -0.3110 -0.0523
63033SOL     OW 6708   9.125   1.543  13.385  0.4578 -0.0975  0.0796
63033SOL    HW1 6709   9.219   1.543  13.368  0.9219  0.5532  2.2440
63033SOL    HW2 6710   9.102   1.636  13.395 -0.5377 -0.2126 -0.8852
63034SOL     OW 6711   6.424  11.902   8.244  0.4915  0.7950 -0.0642
63034SOL    HW1 6712   6.465  11.870   8.164 -0.0583  2.8155 -1.1962
63034SOL    HW2 6713   6.459  11.844   8.313  0.5926 -1.3124 -1.7727
63035SOL     OW 6714   8.064   8.703   3.952  0.0321 -0.2396  0.2174
63035SOL    HW1 6715   7.996   8.729   4.014 -0.9783  0.6230 -1.2045
63035SOL    HW2 6716   8.131   8.771   3.960  1.0615 -1.3554  1.9883
63036SOL     OW 6717   0.915   2.346   1.832 -0.5178  0.3139 -0.2722
63036SOL    HW1 6718   0.893   2.351   1.739 -0.4083  2.2786 -0.2311
63036SOL    HW2 6719   0.848   2.398   1.876 -0.7681 -0.8748  0.8148
63037SOL     OW 6720   3.960   5.486   4.412  0.0444  0.0991  0.8734
63037SOL    HW1 6721   4.030   5.465   4.351 -0.3168  1.7729 -0.1739
63037SOL    HW2 6722   3.923   5.401   4.436  0.2833 -0.6395 -1.1635
63038SOL     OW 6723   7.957   9.801   5.547  0.1447 -0.0619  0.8925
63038SOL    HW1 6724   8.044   9.773   5.574 -0.2507 -1.6174  0.6447
63038SOL    HW2 6725   7.914   9.827   5.629  0.0126 -1.7256  1.3948
63039SOL     OW 6726   0.692   0.638   5.017  0.8358 -0.1248  0.8258
63039SOL    HW1 6727   0.615   0.596   5.055 -0.9385  3.1093  1.1250
63039SOL    HW2 6728   0.739   0.675   5.091  0.4810  1.2900  0.3738
63040SOL     OW 6729   5.053   4.170  11.461  0.6106 -0.1953 -0.1953
63040SOL    HW1 6730   5.002   4.134  11.389 -2.2635  1.7467  0.7047
63040SOL    HW2 6731   5.134   4.203  11.420 -1.3023  1.6691 -2.7967
63041SOL     OW 6732   9.258   0.262   9.712  0.0879  0.0961 -0.1387
63041SOL    HW1 6733   9.215   0.178   9.695  0.8587 -0.9941  2.7265
63041SOL    HW2 6734   9.189   0.327   9.700 -0.9798 -1.0992 -0.7321
63042SOL     OW 6735   1.737  13.241   0.512  0.0065  0.5914  0.1238
63042SOL    HW1 6736   1.695  13.164   0.474  2.6954 -1.5469  1.1347
63042SOL    HW2 6737   1.786  13.280   0.439 -0.6727  0.8746 -0.1932
63043SOL     OW 6738   8.184  10.945   1.313  0.1579  0.2330 -0.5570
63043SOL    HW1 6739   8.180  11.006   1.239  1.2682  0.6382 -0.3001
63043SOL    HW2 6740   8.106  10.890   1.302  0.5874 -0.0927 -2.3578
63044SOL     OW 6741  11.141  12.845  12.046 -0.2170 -0.2409  0.6828
63044SOL    HW1 6742  11.200  12.900  12.098  1.6987 -1.5518  0.0364
63044SOL    HW2 6743  11.129  12.894  11.964 -1.1676  0.6453  1.3218
63045SOL     OW 6744  11.118   9.121  11.616 -0.0457  0.0006 -0.5766
63045SOL    HW1 6745  11.132   9.063  11.691  1.4777  0.2902 -0.6129
63045SOL    HW2 6746  11.163   9.202  11.639  0.6009  0.0361 -1.8567
63046SOL     OW 6747   4.797   5.600  11.592 -0.0360 -0.3041  1.1688
63046SOL    HW1 6748   4.722   5.547  11.562  0.0199 -0.2808  0.9850
63046SOL    HW2 6749   4.848   5.540  11.646 -0.7828 -0.0006  2.2511
63047SOL     OW 6750   0.750   4.271   9.145 -0.5304 -0.0321 -0.3394
63047SOL    HW1 6751   0.660   4.254   9.116 -0.2724 -1.0020 -0.6140
63047SOL    HW2 6752   0.772   4.356   9.107 -1.3064  0.1756 -0.3337
63048SOL     OW 6753   7.067   4.375  12.441 -0.1984 -0.3010 -0.1171
63048SOL    HW1 6754   7.140   4.367  12.380 -1.2941  0.0995 -1.5405
63048SOL    HW2 6755   7.088   4.314  12.512  2.1102  0.7480  0.1777
63049SOL     OW 6756  12.445   0.846  12.404  0.0936 -0.2040 -0.0281
63049SOL    HW1 6757  12.400   0.791  12.468 -1.7084  0.5359 -0.5941
63049SOL    HW2 6758  12.516   0.791  12.371  0.6389 -0.8442  2.0583
63050SOL     OW 6759   0.452   4.261  11.839  0.0184 -0.3236  0.8302
63050SOL    HW1 6760   0.424   4.336  11.891 -0.5175 -0.0882  0.2198
63050SOL    HW2 6761   0.538   4.285  11.805  0.1862 -0.3079  1.2734
63051SOL     OW 6762   0.898   7.764   8.688  0.0567 -0.3052  0.1571
63051SOL    HW1 6763   0.919   7.792   8.599  0.4938 -1.3145 -0.0729
63051SOL    HW2 6764   0.947   7.823   8.745 -0.1859  0.3144 -0.2744
63052SOL     OW 6765   2.345   5.942  12.299 -0.0801 -0.2671 -0.2064
63052SOL    HW1 6766   2.334   5.850  12.276 -1.1245  0.2617 -1.9674
63052SOL    HW2 6767   2.274   5.960  12.361 -1.8655  0.0598 -2.2167
63053SOL     OW 6768   0.333   0.523  11.491 -0.2294 -0.2999 -0.1557
63053SOL    HW1 6769   0.356   0.472  11.568  3.4858  1.2134 -0.0472
63053SOL    HW2 6770   0.298   0.605  11.527 -0.5090 -0.4088 -0.1732
63054SOL     OW 6771   7.618   9.584   5.654 -0.2716  0.0789  0.5684
63054SOL    HW1 6772   7.677   9.630   5.714 -1.0726  1.3950  0.3955
63054SOL    HW2 6773   7.544   9.557   5.709 -0.9214  1.1252  0.2442
63055SOL     OW 6774   6.111   0.714   0.496 -0.2270 -0.1704 -0.0279
63055SOL    HW1 6775   6.135   0.627   0.465 -0.7762 -0.4800  0.3901
63055SOL    HW2 6776   6.036   0.699   0.554  0.6214  0.4051  1.2569
63056SOL     OW 6777   7.466   6.004   0.235  0.1031 -0.4566 -1.0282
63056SOL    HW1 6778   7.377   6.010   0.199 -0.2132  1.2387 -0.0566
63056SOL    HW2 6779   7.508   6.086   0.209  1.4694 -1.2905 -1.5866
63057SOL     OW 6780  10.299   8.650   4.697  0.2474  0.1398 -0.0830
63057SOL    HW1 6781  10.371   8.673   4.638  1.4673 -1.2529  0.8004
63057SOL    HW2 6782  10.334   8.665   4.785 -1.3189  1.5384  0.3578
63058SOL     OW 6783   9.002   3.364  13.926 -0.5425  0.1339  0.1345
63058SOL    HW1 6784   9.006   3.395  14.016  0.4148 -0.9166  0.4614
63058SOL    HW2 6785   8.918   3.398  13.893 -1.0436  0.2683  1.4990
63059SOL     OW 6786   1.075   9.657  13.506 -0.3927  0.1861  0.4917
63059SOL    HW1 6787   1.047   9.600  13.578 -0.0966  1.5186  1.7094
63059SOL    HW2 6788   0.994   9.682  13.462 -0.4976 -1.4908 -0.3616
63060SOL     OW 6789  11.845   9.664  13.665  0.2801  0.3235 -0.0252
63060SOL    HW1 6790  11.876   9.592  13.721  3.5573  2.0611  0.6632
63060SOL    HW2 6791  11.751   9.669  13.682  0.2131 -2.7156  1.1075
63061SOL     OW 6792   5.881   4.607   4.150 -0.1290 -0.0135 -0.2469
63061SOL    HW1 6793   5.974   4.598   4.128 -0.4010  0.6164 -1.7869
63061SOL    HW2 6794   5.839   4.532   4.107 -0.7239  1.4344 -2.3221
63062SOL     OW 6795   9.312   8.039   7.013 -0.3162 -0.4436 -0.0142
63062SOL    HW1 6796   9.250   8.112   7.004  2.5011  2.1919  0.1609
63062SOL    HW2 6797   9.321   8.004   6.925 -0.6788  0.3523 -0.3799
63063SOL     OW 6798  10.014   7.937   8.485 -0.2853  0.9751 -0.0423
63063SOL    HW1 6799  10.008   7.859   8.539  1.0386 -0.7057 -2.1563
63063SOL    HW2 6800  10.073   7.912   8.413 -2.3893  2.8145 -2.6117
63064SOL     OW 6801   9.482  11.988  10.771 -0.0953 -0.3090  0.1529
63064SOL    HW1 6802   9.466  12.078  10.800 -1.7036 -1.1747  2.1506
63064SOL    HW2 6803   9.496  11.996  10.676 -1.5470  1.9070  0.0455
63065SOL     OW 6804   7.609   7.342   0.771 -0.4006 -0.4316  0.0916
63065SOL    HW1 6805   7.603   7.426   0.727  1.1378  0.6216  1.7542
63065SOL    HW2 6806   7.690   7.303   0.739  1.2986  0.8071  2.5377
63066SOL     OW 6807   0.446   0.909  12.924 -0.5923 -0.4583  0.1478
63066SOL    HW1 6808   0.541   0.912  12.916 -0.6654  0.7067 -0.5770
63066SOL    HW2 6809   0.428   0.933  13.015 -0.2235  0.3719  0.0052
63067SOL     OW 6810   8.275  13.583  12.041 -0.2553 -0.1889 -0.0517
63067SOL    HW1 6811   8.351  13.526  12.058 -1.2506 -1.7968 -0.7088
63067SOL    HW2 6812   8.285  13.609  11.949 -0.0555  0.3288  0.1119
63068SOL     OW 6813   0.473  10.727  13.269 -0.0177  0.4985  0.3008
63068SOL    HW1 6814   0.399  10.768  13.225 -1.0442  0.4099  1.8455
63068SOL    HW2 6815   0.447  10.724  13.362  1.8925  0.3959  0.8775
63069SOL     OW 6816   9.495   1.708   2.585 -0.1119 -0.1307 -0.0417
63069SOL    HW1 6817   9.526   1.659   2.661 -0.8418 -1.1363 -0.3753
63069SOL    HW2 6818   9.416   1.753   2.616  1.0803  1.6673  0.5388
63070SOL     OW 6819   2.219   1.805  11.335 -0.0270  0.4141  0.4734
63070SOL    HW1 6820   2.230   1.778  11.244 -0.8915 -0.0756  0.5052
63070SOL    HW2 6821   2.250   1.896  11.337 -0.8395  0.7297 -0.5171
63071SOL     OW 6822  13.968  13.186   1.048 -0.5494  0.2607  0.0906
63071SOL    HW1 6823  13.928  13.273   1.042 -1.2871 -0.1613 -1.7150
63071SOL    HW2 6824  13.917  13.141   1.116 -1.6621  0.5014 -0.5617
63072SOL     OW 6825   2.241   9.363   2.178  0.5637  0.4541 -0.6197
63072SOL    HW1 6826   2.151   9.384   2.201  0.1454  0.0411 -1.8085
63072SOL    HW2 6827   2.288   9.446   2.190  0.1767  0.5265  0.5915
63073SOL     OW 6828   5.775   7.046   2.652 -0.4812  0.0630  0.4074
63073SOL    HW1 6829   5.747   6.990   2.724 -0.2164  0.3970  0.7777
63073SOL    HW2 6830   5.778   7.134   2.690  0.3715  0.1352  0.1930
63074SOL     OW 6831   3.599  12.633   3.332  0.3481 -0.2802  0.0005
63074SOL    HW1 6832   3.664  12.691   3.372  0.7759 -0.6196 -0.1952
63074SOL    HW2 6833   3.594  12.661   3.241  1.6130 -1.4505 -0.4633
63075SOL     OW 6834   4.550   5.020  13.785 -0.0784 -0.4667  0.0617
63075SOL    HW1 6835   4.625   4.966  13.807  0.1635 -0.3217 -0.3884
63075SOL    HW2 6836   4.484   4.958  13.753  0.4229 -0.4479 -1.0573
63076SOL     OW 6837   5.840   4.276  12.977  0.1654  0.2278  0.5246
63076SOL    HW1 6838   5.839   4.369  13.000 -3.4513  0.4112  0.1847
63076SOL    HW2 6839   5.910   4.269  12.911  0.0249  2.8649 -0.0264
63077SOL     OW 6840   7.278   4.889   3.317  0.3701  0.1959  0.5683
63077SOL    HW1 6841   7.214   4.861   3.382 -0.1899  1.3278  0.5292
63077SOL    HW2 6842   7.343   4.818   3.316  0.5141  0.2239  2.5108
63078SOL     OW 6843  10.191   5.966   0.959 -0.0613  0.0133  0.0939
63078SOL    HW1 6844  10.208   6.021   0.883 -0.0551  0.3320  0.3242
63078SOL    HW2 6845  10.110   6.000   0.997 -1.1205 -1.3317 -0.8390
63079SOL     OW 6846   7.129   4.166   2.750  0.6835 -0.1287  0.1800
63079SOL    HW1 6847   7.041   4.189   2.720  0.3576 -0.0393  1.1696
63079SOL    HW2 6848   7.148   4.082   2.706  0.9753  0.8616 -1.6832
63080SOL     OW 6849   7.512  13.032  12.155 -0.3336  0.1184  0.2841
63080SOL    HW1 6850   7.489  12.993  12.240  0.2406 -1.7687 -0.3798
63080SOL    HW2 6851   7.537  13.122  12.176  1.0371 -0.6793  2.3092
63081SOL     OW 6852   8.626   4.239   2.735 -0.4863 -0.0787 -0.2740
63081SOL    HW1 6853   8.719   4.230   2.712 -0.4948  0.4041 -0.5051
63081SOL    HW2 6854   8.614   4.333   2.747 -0.7525 -0.2106  0.5719
63082SOL     OW 6855   8.469   6.073   1.576  0.1205 -0.1494  0.2886
63082SOL    HW1 6856   8.498   5.996   1.526  0.1645 -1.2308  1.9089
63082SOL    HW2 6857   8.387   6.046   1.616 -0.4369  1.0612  0.0003
63083SOL     OW 6858   3.795  12.571   7.510  0.4104  0.3276  0.5305
63083SOL    HW1 6859   3.863  12.628   7.474  0.8942  0.1874  1.2259
63083SOL    HW2 6860   3.832  12.483   7.508 -0.1488  0.0960 -0.0683
63084SOL     OW 6861   5.556  14.021   2.904 -1.0758  0.5681 -0.8376
63084SOL    HW1 6862   5.567  13.938   2.859 -1.1076 -0.7805  1.4761
63084SOL    HW2 6863   5.468  14.018   2.942  0.1008  0.0276  2.1636
63085SOL     OW 6864   5.053   0.687   7.777  0.1236 -0.2104  0.1322
63085SOL    HW1 6865   5.014   0.755   7.722  2.0054 -0.0619 -1.1103
63085SOL    HW2 6866   5.020   0.706   7.865 -1.1640  0.9266 -0.5478
63086SOL     OW 6867  12.100   4.656   3.433 -0.5084 -0.2981  0.4047
63086SOL    HW1 6868  12.106   4.733   3.376  1.1721 -0.3904  0.4127
63086SOL    HW2 6869  12.047   4.594   3.383 -0.2398  0.1384 -0.4555
63087SOL     OW 6870  10.559  13.408   4.345 -0.1858  0.0761  0.0100
63087SOL    HW1 6871  10.510  13.490   4.351  0.1394  0.2619  0.1608
63087SOL    HW2 6872  10.492  13.341   4.331 -0.4605  0.3579 -0.0349
63088SOL     OW 6873   3.715  12.750  13.231 -0.3582 -0.2961  0.1785
63088SOL    HW1 6874   3.715  12.667  13.183  0.5885 -0.9002  1.1742
63088SOL    HW2 6875   3.690  12.726  13.320  1.3647  0.2059  0.8531
63089SOL     OW 6876  12.179   3.546  11.122  0.5167  0.2959  0.4562
63089SOL    HW1 6877  12.248   3.575  11.062 -0.8467 -0.7436 -1.7313
63089SOL    HW2 6878  12.217   3.471  11.168  0.5148 -1.1259 -1.6889
63090SOL     OW 6879   8.880  10.743   0.360  0.5849 -0.0619  0.0588
63090SOL    HW1 6880   8.855  10.658   0.324 -0.3796  0.4875 -0.6083
63090SOL    HW2 6881   8.933  10.721   0.437 -0.3028 -1.2752  0.3637
63091SOL     OW 6882   3.015   7.617  11.922  0.3648  0.3113  0.0722
63091SOL    HW1 6883   3.055   7.625  12.008 -1.1665  1.6856  0.7224
63091SOL    HW2 6884   2.944   7.554  11.934  0.2262  0.4108 -0.2023
63092SOL     OW 6885   5.627  12.285   7.179 -0.0097  0.0651  0.1811
63092SOL    HW1 6886   5.537  12.258   7.159 -0.3967  0.8625  0.8005
63092SOL    HW2 6887   5.624  12.381   7.180  0.4862  0.0924  1.7885
63093SOL     OW 6888   1.295  11.718   7.284 -0.1887  0.1390  0.1729
63093SOL    HW1 6889   1.309  11.713   7.189  0.7495 -1.8578  0.3485
63093SOL    HW2 6890   1.363  11.777   7.316  0.0508  0.1315 -0.3200
63094SOL     OW 6891   1.129   2.570   0.669 -0.0077  0.2619 -0.5145
63094SOL    HW1 6892   1.076   2.553   0.747 -0.0236  0.8674 -0.3871
63094SOL    HW2 6893   1.076   2.536   0.596  0.1537 -0.5938 -0.2309
63095SOL     OW 6894   0.034   3.583  13.971  0.2952 -0.0949 -0.1881
63095SOL    HW1 6895   0.032   3.531  14.052 -0.4785 -1.8465 -1.2645
63095SOL    HW2 6896  -0.021   3.659  13.990 -0.5863 -0.9138  0.6625
63096SOL     OW 6897   7.342  13.891   3.654  0.0111  0.4930 -0.5789
63096SOL    HW1 6898   7.250  13.879   3.680  0.0258  1.0032 -0.2781
63096SOL    HW2 6899   7.337  13.919   3.562 -0.0834 -0.4240 -0.8615
63097SOL     OW 6900   2.684   0.218  13.979  0.3326  0.0444  0.9838
63097SOL    HW1 6901   2.729   0.161  13.916 -0.5464 -0.3737  0.7208
63097SOL    HW2 6902   2.741   0.295  13.987  0.0330  0.5320 -1.0326
63098SOL     OW 6903  13.001   4.840   4.876 -0.3058 -0.0950 -0.1069
63098SOL    HW1 6904  13.089   4.805   4.883 -0.6019 -0.7385  0.5390
63098SOL    HW2 6905  12.959   4.815   4.958 -1.0524  0.3083 -0.3567
63099SOL     OW 6906   9.214   6.686   4.229 -0.2432  0.1059 -0.2978
63099SOL    HW1 6907   9.255   6.668   4.314  1.6184  0.8746 -0.9836
63099SOL    HW2 6908   9.131   6.728   4.251 -0.8098 -1.6411  1.1566
63100SOL     OW 6909   1.777   5.209   1.733  0.3198  0.4655  0.7277
63100SOL    HW1 6910   1.713   5.215   1.663  0.4353 -0.1298  0.5649
63100SOL    HW2 6911   1.770   5.118   1.764  0.9984  0.4269  0.7823
63101SOL     OW 6912   9.474   6.562   3.247  0.5257  0.8244  0.3139
63101SOL    HW1 6913   9.539   6.632   3.250  1.2552  0.2246 -0.7953
63101SOL    HW2 6914   9.402   6.593   3.302  1.3108  1.9510  0.7251
63102SOL     OW 6915   8.127   4.032   4.575  0.5467  0.0155 -0.1212
63102SOL    HW1 6916   8.143   3.962   4.512  0.0708 -0.1230 -0.0889
63102SOL    HW2 6917   8.059   4.086   4.535 -0.7443 -0.8224  0.8453
63103SOL     OW 6918  11.913   4.220  12.384  0.4248  0.1224  0.0107
63103SOL    HW1 6919  11.840   4.281  12.372  0.3717  0.4872  1.8072
63103SOL    HW2 6920  11.991   4.275  12.381  0.4522  0.1143  0.4945
63104SOL     OW 6921   3.017   0.838   2.524 -0.1859  0.2009  0.3481
63104SOL    HW1 6922   3.111   0.852   2.513 -0.2677  0.5153  0.0166
63104SOL    HW2 6923   2.996   0.878   2.609 -0.1622  0.8409  0.0544
63105SOL     OW 6924   4.915   7.871  13.621 -0.2839 -0.2896  0.6327
63105SOL    HW1 6925   4.866   7.830  13.550  1.3256 -0.2508 -0.5534
63105SOL    HW2 6926   4.911   7.965  13.602  0.0681 -0.2710  0.6483
63106SOL     OW 6927  10.516  11.333   7.415  0.2714 -0.3680  0.3459
63106SOL    HW1 6928  10.561  11.282   7.482  1.3727  0.8428  0.5782
63106SOL    HW2 6929  10.580  11.343   7.345 -0.4770 -0.6391 -0.3966
63107SOL     OW 6930   6.080   3.499   1.475 -0.0533 -0.0445 -0.0421
63107SOL    HW1 6931   6.154   3.471   1.420  0.9319  0.5220  0.9642
63107SOL    HW2 6932   6.015   3.430   1.464  0.9330 -0.9467 -0.3463
63108SOL     OW 6933   2.050  13.976   4.661 -0.1812  0.3886  0.0665
63108SOL    HW1 6934   2.090  13.918   4.726  1.5655  0.5802 -0.7799
63108SOL    HW2 6935   1.965  13.999   4.699 -0.6557 -2.1515  0.7469
63109SOL     OW 6936  13.919   0.717   7.399 -0.4450  0.1688  0.1126
63109SOL    HW1 6937  13.956   0.735   7.485 -0.5218 -0.8994  0.3842
63109SOL    HW2 6938  13.968   0.774   7.340  0.9421 -0.4509  0.6138
63110SOL     OW 6939  12.558   9.537  11.357  0.4085  0.4379 -0.2910
63110SOL    HW1 6940  12.590   9.543  11.447  0.2010 -0.2616 -0.1639
63110SOL    HW2 6941  12.561   9.627  11.324 -0.2751  0.8263  0.6742
63111SOL     OW 6942   7.811   7.179   6.040 -0.8215 -0.0622 -0.4221
63111SOL    HW1 6943   7.883   7.232   6.005 -0.2719 -0.2208  0.4627
63111SOL    HW2 6944   7.732   7.230   6.019 -0.2264  1.7904  1.5392
63112SOL     OW 6945  13.799   6.846   1.944 -0.1040  0.1935 -1.2369
63112SOL    HW1 6946  13.874   6.788   1.956 -0.2033  0.3096  0.1443
63112SOL    HW2 6947  13.824   6.903   1.871  0.4933 -0.7719 -1.8068
63113SOL     OW 6948   7.059  12.685   1.127  1.0358  0.3156 -0.5504
63113SOL    HW1 6949   7.004  12.673   1.049 -0.5862  0.2770  0.5415
63113SOL    HW2 6950   7.139  12.637   1.107 -0.1560 -1.4443 -1.4076
63114SOL     OW 6951   1.113   0.657   6.438 -0.2340  0.4783  0.2206
63114SOL    HW1 6952   1.030   0.643   6.393  0.4581 -1.6897 -0.5074
63114SOL    HW2 6953   1.157   0.726   6.388 -1.0297  0.7295 -0.1478
63115SOL     OW 6954  11.234   9.068   8.760 -0.1506 -0.2490  0.5574
63115SOL    HW1 6955  11.260   9.135   8.697  0.6645 -1.3952 -0.3692
63115SOL    HW2 6956  11.313   9.016   8.774 -1.2471 -2.3383 -0.4382
63116SOL     OW 6957  11.611   9.469  14.028 -0.1090  0.2810 -0.5728
63116SOL    HW1 6958  11.532   9.433  14.069 -0.8592  1.2217 -1.1508
63116SOL    HW2 6959  11.635   9.543  14.083 -0.2678  0.6551 -1.0023
63117SOL     OW 6960  10.425   2.068  10.559 -0.3930  0.1034 -0.0222
63117SOL    HW1 6961  10.425   2.078  10.464  1.9122 -0.5352 -0.1486
63117SOL    HW2 6962  10.406   2.156  10.592 -1.3283  0.3147 -1.0445
63118SOL     OW 6963   4.537   7.020   5.395 -0.3121 -0.2547  0.2993
63118SOL    HW1 6964   4.615   7.029   5.340 -1.4327 -1.4247 -1.6197
63118SOL    HW2 6965   4.566   6.967   5.469  0.2843 -2.7362 -1.5602
63119SOL     OW 6966   4.683  10.310   0.674 -0.1666  0.2089  0.7353
63119SOL    HW1 6967   4.652  10.230   0.718 -1.1021  0.9503  1.4891
63119SOL    HW2 6968   4.703  10.283   0.585  0.2487 -1.0201  1.1855
63120SOL     OW 6969  12.358   2.520  13.444  0.2979 -0.1110 -0.4495
63120SOL    HW1 6970  12.369   2.549  13.535 -0.1638  0.7467 -0.6635
63120SOL    HW2 6971  12.340   2.426  13.452 -0.0907  0.0208  0.3766
63121SOL     OW 6972   0.773   5.276   2.924 -0.1703 -0.3761 -0.2229
63121SOL    HW1 6973   0.752   5.186   2.898  0.3816 -0.1400 -1.5796
63121SOL    HW2 6974   0.799   5.318   2.843  2.0222  0.3412  0.7950
63122SOL     OW 6975  12.527  12.991  12.786  0.7043  0.4325  0.2577
63122SOL    HW1 6976  12.612  13.021  12.817  0.8258 -0.4196  0.7830
63122SOL    HW2 6977  12.545  12.906  12.745  0.0647  0.0654  0.7065
63123SOL     OW 6978   9.029   1.354   6.828  0.0633 -0.2451  0.2506
63123SOL    HW1 6979   9.120   1.382   6.841  0.1318  0.5895 -1.7019
63123SOL    HW2 6980   8.979   1.436   6.824 -0.2025 -0.4364 -2.3042
63124SOL     OW 6981   8.726   6.756   1.663 -0.4960 -0.3717  0.4546
63124SOL    HW1 6982   8.817   6.726   1.666 -0.1180  0.6715 -0.1131
63124SOL    HW2 6983   8.680   6.689   1.613  0.3537  0.0545 -0.9331
63125SOL     OW 6984   4.512  10.360   8.893  0.4006  0.2226  0.4641
63125SOL    HW1 6985   4.474  10.334   8.809 -0.1804 -0.1104  0.8253
63125SOL    HW2 6986   4.502  10.283   8.949 -1.3918  1.1852  1.5605
63126SOL     OW 6987   5.600   6.648   7.367  0.0262  0.1291  0.3567
63126SOL    HW1 6988   5.548   6.627   7.289 -0.6380  0.9732  0.5569
63126SOL    HW2 6989   5.544   6.621   7.440  0.9545 -1.3655  0.5552
63127SOL     OW 6990   8.203   8.251   0.518  0.2793  0.3166 -0.0325
63127SOL    HW1 6991   8.187   8.312   0.445 -0.0475  0.6280  0.2986
63127SOL    HW2 6992   8.228   8.169   0.475 -2.5929 -0.3537 -0.6463
63128SOL     OW 6993   1.903   9.562   0.301  0.4517  0.0629 -0.1230
63128SOL    HW1 6994   1.926   9.602   0.217  1.7714  0.0132  0.1942
63128SOL    HW2 6995   1.865   9.477   0.277 -0.5677  0.6617 -0.7132
63129SOL     OW 6996   2.705   5.782   4.044 -0.7413 -0.0427  0.5472
63129SOL    HW1 6997   2.763   5.707   4.033  0.9012  1.2578 -0.1878
63129SOL    HW2 6998   2.617   5.746   4.042  0.0084 -1.9636  0.5030
63130SOL     OW 6999   1.557   4.640   7.719 -0.2160  0.0638 -0.3177
63130SOL    HW1 7000   1.611   4.644   7.798  0.3530 -0.5448 -0.6645
63130SOL    HW2 7001   1.469   4.659   7.750  0.0821  0.3716  0.3767
63131SOL     OW 7002   4.166   3.998  11.089  0.0994  0.0093 -0.0283
63131SOL    HW1 7003   4.089   3.952  11.056 -0.7424  0.3355  1.3640
63131SOL    HW2 7004   4.236   3.976  11.028 -0.9630 -0.7661 -1.0068
63132SOL     OW 7005  10.762   8.025   6.422 -0.3373  0.3456  0.2742
63132SOL    HW1 7006  10.768   8.114   6.455 -3.6867  0.4714  0.8890
63132SOL    HW2 7007  10.672   7.997   6.442  0.7502 -3.4621  0.7882
63133SOL     OW 7008   2.426   5.943  10.368  0.0042 -0.2855 -0.0336
63133SOL    HW1 7009   2.363   5.872  10.366  0.0116 -0.3211  0.5851
63133SOL    HW2 7010   2.495   5.917  10.307 -0.7051 -0.1170 -0.9170
63134SOL     OW 7011   8.914  13.105  10.783  0.1348 -0.0605 -0.2525
63134SOL    HW1 7012   8.865  13.023  10.773  0.7379 -0.3926 -0.5240
63134SOL    HW2 7013   8.879  13.144  10.863  0.2481 -0.8667  0.1995
63135SOL     OW 7014  14.051   3.119   1.746 -0.1734 -0.3288  0.1087
63135SOL    HW1 7015  13.973   3.174   1.737  1.6014  2.1368 -1.8011
63135SOL    HW2 7016  14.018   3.033   1.773 -3.4955  0.6198 -0.5602
63136SOL     OW 7017   3.139   9.212  13.976 -0.2167  0.0286 -0.0563
63136SOL    HW1 7018   3.169   9.259  14.054 -0.3043 -1.5619  0.9824
63136SOL    HW2 7019   3.044   9.207  13.986 -0.1345 -1.0835  0.2870
63137SOL     OW 7020  11.894   7.100   9.953  0.5933  0.0952 -0.4302
63137SOL    HW1 7021  11.972   7.077  10.004  0.5498  0.8599 -0.0038
63137SOL    HW2 7022  11.927   7.151   9.879  0.3973  1.7016  0.5419
63138SOL     OW 7023   6.548   1.808   3.204  0.3260  0.0571 -0.1957
63138SOL    HW1 7024   6.629   1.854   3.223 -1.4507  2.3753  2.5071
63138SOL    HW2 7025   6.490   1.875   3.168 -1.5787 -0.5343  1.5649
63139SOL     OW 7026  13.512   1.750   0.572 -0.1270 -0.0102 -0.5273
63139SOL    HW1 7027  13.455   1.677   0.593  1.4521 -1.2072 -0.1950
63139SOL    HW2 7028  13.600   1.711   0.567  0.8293  1.9272  0.1441
63140SOL     OW 7029  11.621   5.836   4.365  0.8118 -0.8472  0.2929
63140SOL    HW1 7030  11.537   5.871   4.333  1.9094  2.6386  0.7942
63140SOL    HW2 7031  11.627   5.748   4.326 -0.1095  1.1312 -5.2709
63141SOL     OW 7032  11.522   3.194   2.083 -0.1024  0.4685 -0.1061
63141SOL    HW1 7033  11.597   3.157   2.036  1.6110 -0.2158  2.9170
63141SOL    HW2 7034  11.468   3.118   2.105 -1.0051  0.8078 -1.0674
63142SOL     OW 7035   8.911  10.877   8.027 -0.1895  0.2689 -0.3709
63142SOL    HW1 7036   8.982  10.865   8.090  0.5617 -1.3973 -1.4563
63142SOL    HW2 7037   8.952  10.921   7.953 -0.4423 -0.0463 -0.7034
63143SOL     OW 7038   5.249   4.999   4.786  0.0878 -0.1575 -0.0964
63143SOL    HW1 7039   5.264   5.091   4.808  1.7433 -0.7190  1.4222
63143SOL    HW2 7040   5.194   4.966   4.858  0.1976 -0.5466 -0.1881
63144SOL     OW 7041   2.110   5.513   0.701 -0.3684 -0.5201  0.3531
63144SOL    HW1 7042   2.075   5.544   0.785 -0.4773 -0.3611  0.2504
63144SOL    HW2 7043   2.205   5.526   0.709 -0.4514  0.3248  0.1247
63145SOL     OW 7044  10.258  11.500   2.485  0.4441  0.1856 -0.3743
63145SOL    HW1 7045  10.221  11.412   2.474 -0.8049  0.6850 -0.3390
63145SOL    HW2 7046  10.334  11.487   2.541 -0.1098 -0.7910  0.1734
63146SOL     OW 7047   3.301   5.725  13.171  0.3421 -0.2126  0.0719
63146SOL    HW1 7048   3.239   5.681  13.228 -1.4562  0.5793 -1.1853
63146SOL    HW2 7049   3.338   5.795  13.226  0.6049 -1.0764  1.0183
63147SOL     OW 7050   8.886   7.113   3.725 -0.2728 -0.1831  0.3270
63147SOL    HW1 7051   8.962   7.147   3.678  0.0701  0.5553  1.3859
63147SOL    HW2 7052   8.854   7.187   3.776 -1.2952 -0.6741  0.4301
63148SOL     OW 7053  12.942   9.747   1.629 -1.4017  0.2336  0.7423
63148SOL    HW1 7054  12.921   9.811   1.561 -0.6493  0.8200  1.0481
63148SOL    HW2 7055  12.857   9.711   1.656 -1.7032 -0.0352 -0.5228
63149SOL     OW 7056   8.993  10.469  12.731  0.3985  0.0681 -0.4327
63149SOL    HW1 7057   8.916  10.440  12.780  0.2443  0.6052 -0.3565
63149SOL    HW2 7058   9.058  10.490  12.798  0.4938 -0.0415 -0.4885
63150SOL     OW 7059   5.687   7.722   2.354 -0.5273 -0.2688 -0.0330
63150SOL    HW1 7060   5.693   7.817   2.355 -0.3701 -0.2828  0.3310
63150SOL    HW2 7061   5.670   7.698   2.445  0.2759 -0.6433  0.0222
63151SOL     OW 7062   3.820   1.307  12.540  0.6573  0.0390 -0.5089
63151SOL    HW1 7063   3.792   1.382  12.487  0.4465  0.9852  0.8818
63151SOL    HW2 7064   3.749   1.243  12.528  0.9307 -0.0504 -1.8603
63152SOL     OW 7065   2.992   1.110   2.019  0.2708 -0.0055 -0.0035
63152SOL    HW1 7066   2.944   1.113   1.936 -0.9484  0.9956  0.7127
63152SOL    HW2 7067   3.014   1.201   2.038 -1.3500  0.0741  1.8149
63153SOL     OW 7068  10.440  12.415   7.007  0.5680 -0.0815  0.0468
63153SOL    HW1 7069  10.398  12.337   6.970 -0.8453  0.6017  0.1679
63153SOL    HW2 7070  10.532  12.389   7.017  0.5350 -1.0502 -1.7595
63154SOL     OW 7071   3.800   7.046  10.207 -0.0026  0.4025  0.5434
63154SOL    HW1 7072   3.769   7.016  10.122 -0.7949  0.0392  0.9470
63154SOL    HW2 7073   3.722   7.048  10.262  0.3397  1.5140  1.0187
63155SOL     OW 7074   0.651   7.979   4.673  0.2208  0.3869 -0.0072
63155SOL    HW1 7075   0.627   7.909   4.612 -2.5019  2.0002 -1.0041
63155SOL    HW2 7076   0.692   8.046   4.619 -1.9092  1.6909 -0.1293
63156SOL     OW 7077   6.171  13.042   2.425  0.5698 -0.8074 -0.1259
63156SOL    HW1 7078   6.077  13.059   2.428  0.6844 -0.2926  1.0036
63156SOL    HW2 7079   6.188  13.020   2.333 -0.4325  0.4136 -0.6473
63157SOL     OW 7080   0.574  13.932   4.781  0.5691  0.4735  0.0807
63157SOL    HW1 7081   0.568  13.848   4.826 -0.7729  0.7059  0.3622
63157SOL    HW2 7082   0.642  13.919   4.715  0.6803 -0.6947  0.4129
63158SOL     OW 7083   6.508   1.415   1.540  0.3730  0.3475 -0.1654
63158SOL    HW1 7084   6.524   1.479   1.471  0.0640  1.1216  0.4590
63158SOL    HW2 7085   6.432   1.365   1.510 -0.9337  1.8879  0.3993
63159SOL     OW 7086   0.781   0.746  13.023  0.2861 -0.0134  0.2631
63159SOL    HW1 7087   0.771   0.661  13.066  0.0643  0.4040  1.0701
63159SOL    HW2 7088   0.720   0.744  12.950  1.3968 -1.1226 -0.6799
63160SOL     OW 7089   5.101   0.335   6.335 -0.4750 -0.0619 -0.6691
63160SOL    HW1 7090   5.106   0.241   6.315 -0.9837 -0.3777  0.5510
63160SOL    HW2 7091   5.009   0.358   6.323 -0.9621 -0.4394  1.7966
63161SOL     OW 7092   5.418   1.456  12.563  0.5566  0.2131  0.0309
63161SOL    HW1 7093   5.419   1.491  12.474 -0.7129 -0.0876 -0.1183
63161SOL    HW2 7094   5.340   1.402  12.567  0.3354  0.5806  1.4686
63162SOL     OW 7095   4.016   3.307  13.179 -0.2192  0.1404 -0.6734
63162SOL    HW1 7096   4.077   3.233  13.179 -0.0819  0.2467 -0.0675
63162SOL    HW2 7097   3.994   3.320  13.087 -0.4337 -0.8063 -0.7649
63163SOL     OW 7098   2.457  12.759  12.225 -0.0765 -0.2940 -0.1674
63163SOL    HW1 7099   2.498  12.843  12.245  0.5821 -0.6208 -0.0838
63163SOL    HW2 7100   2.392  12.746  12.294  0.3961 -0.2304  0.2949
63164SOL     OW 7101   9.238  10.372   7.211 -0.3218 -0.4961  0.5991
63164SOL    HW1 7102   9.149  10.397   7.186  0.2154 -0.4216 -1.4974
63164SOL    HW2 7103   9.292  10.447   7.185  0.8452 -2.1468 -2.2778
63165SOL     OW 7104  13.480   6.911  10.427  0.1049 -0.1198 -0.3693
63165SOL    HW1 7105  13.455   6.849  10.358  0.1726 -0.1882 -0.3325
63165SOL    HW2 7106  13.493   6.994  10.381  1.3367 -0.4329 -0.6244
63166SOL     OW 7107  13.864   7.200   5.647  0.6853  0.2138  0.1243
63166SOL    HW1 7108  13.867   7.290   5.615 -0.2235 -0.4461 -1.9913
63166SOL    HW2 7109  13.771   7.181   5.656  0.8978 -0.1569  1.7014
63167SOL     OW 7110   7.537  10.567  10.348  0.2649  0.2626 -1.0582
63167SOL    HW1 7111   7.577  10.561  10.435  0.9752 -0.4701 -1.4213
63167SOL    HW2 7112   7.462  10.507  10.352  0.0539  0.5345 -0.8371
63168SOL     OW 7113   7.203  10.421   5.117 -0.3277 -0.0351  0.0463
63168SOL    HW1 7114   7.150  10.451   5.192  2.2079 -0.6634  2.2374
63168SOL    HW2 7115   7.233  10.501   5.076 -1.2725  0.3295  0.0247
63169SOL     OW 7116   1.644   9.273  10.699  0.3144 -0.2160  0.2039
63169SOL    HW1 7117   1.683   9.207  10.757  2.0463 -0.3951 -1.0901
63169SOL    HW2 7118   1.719   9.320  10.663 -0.8287  1.4119 -0.1429
63170SOL     OW 7119   7.594   2.527   8.259  0.3050 -0.8038 -0.1274
63170SOL    HW1 7120   7.565   2.451   8.209 -0.6382 -0.5825  0.0718
63170SOL    HW2 7121   7.686   2.539   8.232  0.4823 -2.0236 -0.1276
63171SOL     OW 7122  10.931   6.262   7.146  0.1300 -0.2641 -0.5651
63171SOL    HW1 7123  10.983   6.214   7.211  0.6711 -0.0586 -0.8434
63171SOL    HW2 7124  10.919   6.349   7.183 -1.3723 -0.7723  0.2202
63172SOL     OW 7125  12.514   5.391   9.924  0.1589 -0.0943 -0.2710
63172SOL    HW1 7126  12.527   5.448   9.848 -2.1361 -0.1209 -0.7514
63172SOL    HW2 7127  12.444   5.432   9.974 -0.5229 -1.7032  0.1694
63173SOL     OW 7128   6.639   0.167  10.078 -0.0791  0.0581  0.6054
63173SOL    HW1 7129   6.612   0.083  10.117 -0.1147  0.1079  0.6887
63173SOL    HW2 7130   6.588   0.232  10.125  0.3834  0.1769  0.9445
63174SOL     OW 7131   1.179   7.059  11.891  0.3011  0.1601  0.1251
63174SOL    HW1 7132   1.124   7.036  11.966  1.0718  0.0598  0.6761
63174SOL    HW2 7133   1.135   7.134  11.852  0.9084  1.5180  1.8854
63175SOL     OW 7134   0.651   1.525  11.699  0.3331 -0.3180  0.1536
63175SOL    HW1 7135   0.592   1.560  11.633  1.0174 -0.2152 -0.4121
63175SOL    HW2 7136   0.636   1.580  11.776 -0.6198 -0.5729  0.1589
63176SOL     OW 7137   7.554  12.959  13.139 -0.7696  0.2395 -0.1598
63176SOL    HW1 7138   7.538  12.999  13.224 -0.4962  0.1256 -0.0509
63176SOL    HW2 7139   7.538  12.865  13.153  0.6064  0.0134  0.1418
63177SOL     OW 7140   8.821  13.516   1.216  0.6040  0.1516 -0.1335
63177SOL    HW1 7141   8.787  13.467   1.141 -1.2183 -0.3999  0.9681
63177SOL    HW2 7142   8.827  13.606   1.185  0.6895 -0.1996 -1.1868
63178SOL     OW 7143   5.337  13.248  10.028  0.2240  0.2263 -0.4051
63178SOL    HW1 7144   5.309  13.157  10.023  3.4650 -1.0175  1.0785
63178SOL    HW2 7145   5.424  13.249   9.988  1.0404  2.2780  1.2163
63179SOL     OW 7146   3.017   3.889   9.126 -0.2031 -0.2859  0.0107
63179SOL    HW1 7147   3.016   3.904   9.032 -1.1696 -0.7853 -0.0734
63179SOL    HW2 7148   3.093   3.832   9.140  1.0826  1.3144 -0.1854
63180SOL     OW 7149   0.986  10.815  13.940  0.5935  0.2363 -0.3245
63180SOL    HW1 7150   0.893  10.805  13.958  0.4521 -2.2927 -1.9414
63180SOL    HW2 7151   0.993  10.899  13.895 -0.9272  0.4076 -0.2735
63181SOL     OW 7152   5.011  12.113   3.583 -0.3772  0.2797  0.4084
63181SOL    HW1 7153   4.942  12.054   3.551 -1.7758  1.4469  1.1215
63181SOL    HW2 7154   5.045  12.069   3.661 -2.0184  0.7643  1.4520
63182SOL     OW 7155  11.613   8.644  12.917 -0.1524  1.1651  0.3585
63182SOL    HW1 7156  11.576   8.616  12.833 -0.0175  1.9484  0.0252
63182SOL    HW2 7157  11.614   8.739  12.911 -0.4493  1.2369  1.3935
63183SOL     OW 7158   2.380   6.931   0.561 -0.5441  0.4208 -0.0008
63183SOL    HW1 7159   2.323   6.980   0.502 -0.0399  1.5299  0.4025
63183SOL    HW2 7160   2.321   6.872   0.608 -1.1655  0.6280 -0.5078
63184SOL     OW 7161  12.925   5.358   5.796  0.0135 -0.2901  0.6765
63184SOL    HW1 7162  12.982   5.282   5.789  1.5495  0.9364 -1.5428
63184SOL    HW2 7163  12.972   5.418   5.854  0.9327  0.5888 -0.8952
63185SOL     OW 7164   6.538   1.536  13.149 -0.2661 -0.4464  0.1933
63185SOL    HW1 7165   6.620   1.519  13.196 -0.0674 -0.7220 -0.2428
63185SOL    HW2 7166   6.524   1.630  13.158 -0.1008 -0.4602  0.5968
63186SOL     OW 7167  11.532  10.181   7.182 -0.1491  0.0812  0.2633
63186SOL    HW1 7168  11.581  10.101   7.162 -1.3930 -0.4446 -0.8009
63186SOL    HW2 7169  11.532  10.185   7.278  0.9678 -0.5211  0.3130
63187SOL     OW 7170   7.962   1.241   1.445  0.1675 -0.5916  0.2594
63187SOL    HW1 7171   7.904   1.241   1.521 -0.1351 -0.5792  0.0278
63187SOL    HW2 7172   8.048   1.218   1.480 -0.1839 -1.6844  0.4309
63188SOL     OW 7173  11.793   1.098   6.418 -0.6981 -0.5503 -0.6427
63188SOL    HW1 7174  11.733   1.027   6.395 -1.1653 -0.4052  0.0714
63188SOL    HW2 7175  11.736   1.165   6.458  0.0139 -0.7131  0.7197
63189SOL     OW 7176   2.501   7.556   1.118 -0.1528 -0.1086 -0.3687
63189SOL    HW1 7177   2.479   7.503   1.194 -1.6680  0.9744 -0.0044
63189SOL    HW2 7178   2.544   7.495   1.057 -0.0595 -1.2647  0.8193
63190SOL     OW 7179   4.675   4.572   3.200  0.2747  0.1472  0.4298
63190SOL    HW1 7180   4.754   4.575   3.146  0.2503 -0.9179  0.3243
63190SOL    HW2 7181   4.659   4.664   3.223 -0.9475  0.9631 -3.1146
63191SOL     OW 7182   8.783   6.892  13.999  0.1306 -0.3124 -0.7452
63191SOL    HW1 7183   8.786   6.956  14.070 -2.3947 -1.0142  0.0863
63191SOL    HW2 7184   8.861   6.911  13.947  2.6516 -0.3116  2.6399
63192SOL     OW 7185   9.699   5.623   6.118 -0.3404  0.0181  0.5810
63192SOL    HW1 7186   9.679   5.654   6.030  0.3110  1.4471  0.8980
63192SOL    HW2 7187   9.702   5.703   6.171 -0.4666 -0.7879  1.8471
63193SOL     OW 7188   6.031  13.398   6.495  0.0567  0.5726 -0.4928
63193SOL    HW1 7189   6.117  13.430   6.522  0.2700  1.0856 -1.7219
63193SOL    HW2 7190   6.049  13.335   6.425 -0.4642 -0.9796  0.7225
63194SOL     OW 7191  13.557  12.785   2.130  0.0263  0.2018 -0.5678
63194SOL    HW1 7192  13.533  12.719   2.064  1.8515 -1.5010  0.3594
63194SOL    HW2 7193  13.638  12.824   2.097  0.8204 -0.4892  0.4951
63195SOL     OW 7194   7.238   1.075   2.614 -0.4482  0.3683 -0.2883
63195SOL    HW1 7195   7.314   1.053   2.560 -1.2646 -0.7789 -1.0400
63195SOL    HW2 7196   7.204   1.156   2.576  0.5802  1.0840  0.2766
63196SOL     OW 7197   6.106   7.646   3.529  0.2762 -0.2643  0.1421
63196SOL    HW1 7198   6.024   7.664   3.482 -0.4083  1.1532  1.7633
63196SOL    HW2 7199   6.164   7.718   3.505  0.5562 -0.5152  0.0693
63197SOL     OW 7200   0.563   6.187   9.086  0.3371  0.0002  0.7147
63197SOL    HW1 7201   0.488   6.198   9.144  0.0064 -2.2307  0.7978
63197SOL    HW2 7202   0.527   6.198   8.998  0.4024  1.1419  0.8059
63198SOL     OW 7203   7.788  11.643   8.157  0.3938  0.3365  0.5561
63198SOL    HW1 7204   7.799  11.698   8.234  1.4072 -0.1821  0.8057
63198SOL    HW2 7205   7.830  11.560   8.181 -0.5538 -0.3290 -0.0325
63199SOL     OW 7206   5.056   7.343   7.514 -0.1695  0.0417  0.2291
63199SOL    HW1 7207   4.964   7.322   7.531 -0.1524  0.2965  0.6420
63199SOL    HW2 7208   5.090   7.267   7.467 -0.3764 -0.4104  0.7975
63200SOL     OW 7209   9.609  11.581   7.408  0.1169 -0.0653  0.2440
63200SOL    HW1 7210   9.618  11.676   7.420  0.1476  0.1224 -1.1241
63200SOL    HW2 7211   9.518  11.570   7.380  0.3560 -0.3309 -0.4496
63201SOL     OW 7212   2.064  11.211   3.913 -0.1438 -0.2782  0.5223
63201SOL    HW1 7213   2.047  11.195   4.006 -0.3435 -0.5946  0.4324
63201SOL    HW2 7214   2.156  11.186   3.902 -0.5543 -1.8046  0.3015
63202SOL     OW 7215  11.939   9.164   3.431 -0.0567  0.2506 -0.2395
63202SOL    HW1 7216  11.882   9.103   3.383 -0.9812  0.5962  0.3881
63202SOL    HW2 7217  11.895   9.177   3.515  0.8507  0.6971  0.1828
63203SOL     OW 7218  11.562  12.635   7.982 -0.4814 -0.4263  0.4405
63203SOL    HW1 7219  11.514  12.694   7.923  0.0483  0.4270  0.8449
63203SOL    HW2 7220  11.560  12.680   8.066 -0.6716 -1.3329  0.9289
63204SOL     OW 7221   2.074   5.600  13.710  0.2307  0.5498 -0.1001
63204SOL    HW1 7222   2.113   5.602  13.797  0.7803 -3.1535 -0.1227
63204SOL    HW2 7223   2.120   5.529  13.665 -3.2607 -0.8377 -1.7620
63205SOL     OW 7224   4.390   2.760   0.036 -0.1468 -0.1312 -0.1260
63205SOL    HW1 7225   4.405   2.827   0.102  0.4154  0.3232 -0.7067
63205SOL    HW2 7226   4.478   2.736   0.006 -0.4305  1.6177 -2.6406
63206SOL     OW 7227  13.936   4.497   9.258 -0.2412 -0.3558 -0.3377
63206SOL    HW1 7228  13.893   4.537   9.183 -0.3456  1.1754  0.5028
63206SOL    HW2 7229  13.913   4.404   9.252 -0.7890 -0.1518 -1.8113
63207SOL     OW 7230   9.451  10.153  13.236 -0.5228 -0.2321 -0.3084
63207SOL    HW1 7231   9.504  10.127  13.311 -0.5455  0.8956  0.1238
63207SOL    HW2 7232   9.369  10.185  13.274 -0.5338  0.3532 -0.7984
63208SOL     OW 7233   4.021   3.844  12.852 -0.4004  0.0762  0.1419
63208SOL    HW1 7234   3.977   3.914  12.803  0.7963  0.3093 -0.6486
63208SOL    HW2 7235   3.973   3.765  12.828  0.3698  0.1189 -1.7750
63209SOL     OW 7236  13.085  13.748   8.506  0.2582  0.2267 -0.0249
63209SOL    HW1 7237  13.054  13.730   8.417 -0.8626  0.5680  0.2803
63209SOL    HW2 7238  13.150  13.680   8.523  1.5914  1.0237 -1.6342
63210SOL     OW 7239   1.277   6.746  12.363  0.5446  0.0814  0.0951
63210SOL    HW1 7240   1.268   6.839  12.339 -0.6836  0.0224  0.2812
63210SOL    HW2 7241   1.260   6.698  12.282  0.2579 -0.0034  0.2036
63211SOL     OW 7242   3.149   9.076   9.730  0.2652  0.5840 -0.3573
63211SOL    HW1 7243   3.225   9.035   9.689  1.3255  2.8382 -0.8230
63211SOL    HW2 7244   3.075   9.048   9.676  0.3187 -3.3385  1.3122
63212SOL     OW 7245  10.946   9.476   0.225 -0.1765  0.0172 -0.4133
63212SOL    HW1 7246  10.965   9.464   0.318 -0.2252  1.4680 -0.1949
63212SOL    HW2 7247  11.013   9.536   0.194  0.6906 -1.5303 -1.6803
63213SOL     OW 7248  10.193   4.719   9.256  0.6032  0.1509 -0.1766
63213SOL    HW1 7249  10.174   4.733   9.349  0.8630 -0.7754  0.0328
63213SOL    HW2 7250  10.221   4.627   9.252  1.0923  0.3369 -1.0915
63214SOL     OW 7251  14.042   8.676   5.816  0.1399  0.2011  0.1918
63214SOL    HW1 7252  14.113   8.646   5.873 -0.3755  0.3563  0.9384
63214SOL    HW2 7253  14.016   8.760   5.854  0.6337  0.9245 -1.0385
63215SOL     OW 7254   5.725  12.810   4.941 -0.3907 -0.6771  0.5587
63215SOL    HW1 7255   5.699  12.810   4.848 -2.1765  0.2226  1.0200
63215SOL    HW2 7256   5.787  12.738   4.948  3.1467  1.7201 -2.2043
63216SOL     OW 7257   6.793   4.091  11.567  0.2086  0.3201  0.2174
63216SOL    HW1 7258   6.718   4.133  11.609 -0.2650 -2.5919  2.6562
63216SOL    HW2 7259   6.765   4.076  11.477 -2.1171 -0.4748  0.9984
63217SOL     OW 7260  11.037   9.640   0.856 -0.4614  0.2647 -0.2068
63217SOL    HW1 7261  11.081   9.591   0.786 -0.8066  1.1171 -1.0413
63217SOL    HW2 7262  10.965   9.684   0.811  0.0804  1.8485  0.4506
63218SOL     OW 7263   8.394   6.683   3.040  0.7893 -1.0060  0.0960
63218SOL    HW1 7264   8.440   6.766   3.056  0.7515 -0.9378 -0.1424
63218SOL    HW2 7265   8.404   6.634   3.122 -1.5245  0.3454  1.2877
63219SOL     OW 7266  12.656  11.085   1.608 -0.0162 -0.5205 -0.1729
63219SOL    HW1 7267  12.732  11.029   1.597 -1.1551 -1.6588 -2.7834
63219SOL    HW2 7268  12.589  11.028   1.644 -0.1274  0.1178  0.6760
63220SOL     OW 7269  10.107   4.145   8.313 -0.3994  0.0344 -0.1524
63220SOL    HW1 7270  10.130   4.151   8.220 -0.8500 -0.9901 -0.3534
63220SOL    HW2 7271  10.168   4.203   8.358  0.6046 -0.3736 -0.9719
63221SOL     OW 7272   1.764   6.580   2.198  0.3329 -0.1777 -0.2501
63221SOL    HW1 7273   1.849   6.565   2.157  1.3166 -1.0263  1.9732
63221SOL    HW2 7274   1.778   6.562   2.291 -2.1260  0.3157  0.2872
63222SOL     OW 7275  12.293   1.817   6.541  0.2991 -0.1889  0.0170
63222SOL    HW1 7276  12.332   1.892   6.497 -0.7677  0.4413  0.1048
63222SOL    HW2 7277  12.305   1.744   6.480  2.1434 -0.1690  0.3189
63223SOL     OW 7278   4.475   4.866   7.662  0.1929 -0.2287 -0.4516
63223SOL    HW1 7279   4.409   4.865   7.731 -0.4654 -0.8440 -1.0747
63223SOL    HW2 7280   4.452   4.792   7.606  1.0598 -0.0867 -1.0147
63224SOL     OW 7281   2.736  10.824  10.065 -0.6653  0.3346 -0.5089
63224SOL    HW1 7282   2.699  10.780  10.141 -1.1873  0.7409 -0.5215
63224SOL    HW2 7283   2.681  10.798   9.992 -0.4977  0.3827 -0.6540
63225SOL     OW 7284   3.973   5.001   3.299 -0.5135  0.1766 -0.1135
63225SOL    HW1 7285   4.053   4.987   3.250 -0.7843  0.4245 -0.6335
63225SOL    HW2 7286   3.996   4.979   3.390  0.2275  0.5893 -0.1986
63226SOL     OW 7287   8.533   7.511   9.394 -0.6829 -0.4885 -0.2217
63226SOL    HW1 7288   8.526   7.555   9.310 -1.0883  1.4732  0.7779
63226SOL    HW2 7289   8.455   7.539   9.442 -0.5032 -1.6341  0.7966
63227SOL     OW 7290   6.707   9.895  11.760 -0.6998  0.7782 -0.1026
63227SOL    HW1 7291   6.769   9.894  11.833 -1.3761  2.9189  0.5840
63227SOL    HW2 7292   6.708   9.985  11.729 -0.9662  0.0777 -2.3198
63228SOL     OW 7293   7.484  12.150  12.902  0.0760  0.5408 -0.0290
63228SOL    HW1 7294   7.393  12.169  12.879 -0.5791 -1.7559  0.4112
63228SOL    HW2 7295   7.521  12.113  12.822  0.1505  0.0763  0.2133
63229SOL     OW 7296  10.502   3.588   7.674  0.1579  0.0393  0.3276
63229SOL    HW1 7297  10.589   3.625   7.665  0.7929 -1.2972  0.6617
63229SOL    HW2 7298  10.506   3.505   7.625 -1.2054  0.3848 -0.4280
63230SOL     OW 7299   7.084   3.955   2.160  0.1482 -0.6012  0.1609
63230SOL    HW1 7300   7.177   3.962   2.183  0.4127 -1.9033 -0.4580
63230SOL    HW2 7301   7.083   3.913   2.074 -1.0065 -0.1855 -0.0477
63231SOL     OW 7302   3.311   9.480   3.450  0.0633  0.1623  0.1262
63231SOL    HW1 7303   3.305   9.528   3.367  0.2847 -0.1192 -0.0593
63231SOL    HW2 7304   3.385   9.521   3.496 -0.2888  0.5539  0.3437
63232SOL     OW 7305   9.565  13.637   1.926 -0.2730  0.8734 -0.1935
63232SOL    HW1 7306   9.484  13.588   1.915 -0.4249  0.8093  1.1474
63232SOL    HW2 7307   9.577  13.681   1.841  0.5513 -2.4056 -1.9475
63233SOL     OW 7308   5.754  11.112   1.206  0.1628 -1.2374  0.6701
63233SOL    HW1 7309   5.770  11.139   1.116 -1.2123 -0.5971  0.5963
63233SOL    HW2 7310   5.838  11.125   1.250  0.8424 -1.5360 -0.4969
63234SOL     OW 7311   9.633   2.709   8.784  0.4490 -0.2006  0.4731
63234SOL    HW1 7312   9.537   2.713   8.787  0.2738  0.5796 -2.7632
63234SOL    HW2 7313   9.653   2.616   8.787 -0.8473 -0.7959 -3.3662
63235SOL     OW 7314   3.653  10.740   2.257  0.4818 -0.5414  0.1086
63235SOL    HW1 7315   3.731  10.795   2.267 -0.8769  1.1057  2.9144
63235SOL    HW2 7316   3.685  10.651   2.269  2.0166  0.0493  0.6065
63236SOL     OW 7317  11.157  13.110   9.428  0.1174  0.1660  0.3806
63236SOL    HW1 7318  11.153  13.051   9.353  1.6215 -0.2126  0.5683
63236SOL    HW2 7319  11.201  13.188   9.394 -0.0480  0.3661  0.6274
63237SOL     OW 7320   4.229  11.857   5.493  0.0301  0.5456 -0.0099
63237SOL    HW1 7321   4.186  11.914   5.429 -0.4868  0.7994  0.5475
63237SOL    HW2 7322   4.195  11.770   5.474 -1.5533  0.8856  1.0571
63238SOL     OW 7323   1.710   0.781   1.832  0.2436 -0.6065 -0.1787
63238SOL    HW1 7324   1.717   0.711   1.768  0.7132 -0.9112  0.1971
63238SOL    HW2 7325   1.708   0.861   1.780 -1.2920 -0.9362 -0.6514
63239SOL     OW 7326   0.324  11.255   2.867 -0.1441 -0.0573  0.8429
63239SOL    HW1 7327   0.317  11.351   2.870  1.9579  0.1244  1.0304
63239SOL    HW2 7328   0.316  11.228   2.959 -1.6093 -0.1696  0.7063
63240SOL     OW 7329   0.054   2.716   4.980  0.1517 -0.1326 -0.4284
63240SOL    HW1 7330  -0.036   2.685   4.971 -0.2452  0.8050  0.1931
63240SOL    HW2 7331   0.066   2.728   5.074  1.3291 -1.3886 -0.3897
63241SOL     OW 7332   2.966   2.713  10.274 -0.0363  0.7858  0.0508
63241SOL    HW1 7333   2.922   2.642  10.321  2.7083 -1.0637  0.0592
63241SOL    HW2 7334   3.009   2.764  10.344  1.3050  0.0105 -0.1789
63242SOL     OW 7335   6.263  13.011  10.096  0.4520 -0.7314 -0.2490
63242SOL    HW1 7336   6.323  13.078  10.129 -0.4141  1.0814 -2.1402
63242SOL    HW2 7337   6.206  12.992  10.170  0.6477  0.7237  0.3195
63243SOL     OW 7338   5.563   3.284   3.516 -0.6168 -0.1370 -0.4335
63243SOL    HW1 7339   5.595   3.366   3.554  0.5302 -0.1776 -1.2544
63243SOL    HW2 7340   5.484   3.264   3.566 -0.7332  1.2906  0.0086
63244SOL     OW 7341  11.498   3.325   9.277  0.3761 -0.2927  0.5925
63244SOL    HW1 7342  11.494   3.411   9.320 -0.9097 -0.7958  1.5379
63244SOL    HW2 7343  11.561   3.276   9.329  1.1867  0.0958 -0.0063
63245SOL     OW 7344  12.849   9.203   2.086 -0.1232  0.1284  0.1630
63245SOL    HW1 7345  12.773   9.211   2.029 -0.3666  0.6139  0.5507
63245SOL    HW2 7346  12.838   9.119   2.130 -0.3877  0.1638  0.1607
63246SOL     OW 7347   4.542   6.878   3.561  0.4196 -0.1635  0.5912
63246SOL    HW1 7348   4.491   6.869   3.480 -1.1810  0.0027  1.5396
63246SOL    HW2 7349   4.593   6.958   3.548  0.7717 -0.5507 -0.5501
63247SOL     OW 7350   0.993   5.951   2.908 -0.0668 -0.4088 -0.4352
63247SOL    HW1 7351   1.059   5.997   2.856  0.3888  0.2832  0.7419
63247SOL    HW2 7352   0.941   5.904   2.842  0.3150  0.6617 -1.5543
63248SOL     OW 7353  12.856  11.058   5.611  0.5923 -0.2611 -0.1905
63248SOL    HW1 7354  12.905  11.127   5.656  0.8844 -1.1656  0.9064
63248SOL    HW2 7355  12.824  11.100   5.531 -0.4415  1.5770  1.1050
63249SOL     OW 7356  14.043   1.589   1.689  0.3328  0.1394 -0.5410
63249SOL    HW1 7357  13.999   1.614   1.770  0.1201 -1.9963  0.0791
63249SOL    HW2 7358  14.076   1.671   1.652 -0.9871  1.3521  0.8564
63250SOL     OW 7359   5.232   4.442   8.577 -0.0950 -0.2456 -0.0083
63250SOL    HW1 7360   5.307   4.417   8.631 -0.3662  0.2774  0.6273
63250SOL    HW2 7361   5.270   4.473   8.495  0.3190 -1.1669 -0.1723
63251SOL     OW 7362   0.367   0.954   5.970 -0.7664 -0.0509  0.1156
63251SOL    HW1 7363   0.349   0.943   5.877 -1.5162  3.1655 -0.2193
63251SOL    HW2 7364   0.454   0.994   5.973 -0.7722 -0.0806  0.8055
63252SOL     OW 7365  13.100   8.229  11.470 -0.1187 -0.0390 -0.2588
63252SOL    HW1 7366  13.158   8.215  11.395  0.9840  0.7041  0.4266
63252SOL    HW2 7367  13.074   8.140  11.496  2.2785 -0.5606  0.6085
63253SOL     OW 7368   3.292  11.956   1.120  0.0519 -0.1841 -0.3044
63253SOL    HW1 7369   3.206  11.965   1.160  0.3737  0.4078  0.2878
63253SOL    HW2 7370   3.277  11.973   1.027 -0.3006  1.0766 -0.0420
63254SOL     OW 7371  13.016   5.749   4.156 -0.0170  0.2135 -0.1862
63254SOL    HW1 7372  12.982   5.692   4.225  0.0760 -1.6316 -1.5907
63254SOL    HW2 7373  12.941   5.765   4.099  0.4524 -0.2183 -0.9256
63255SOL     OW 7374   9.239   8.831   4.990  0.2113  0.0853 -0.4925
63255SOL    HW1 7375   9.186   8.909   4.974 -0.9738 -1.0485 -2.5959
63255SOL    HW2 7376   9.183   8.774   5.041  1.3581  0.8249  1.7230
63256SOL     OW 7377  13.810  12.058   5.831 -0.3681  0.0914  0.3080
63256SOL    HW1 7378  13.868  11.998   5.784 -1.3550 -0.4488 -0.2687
63256SOL    HW2 7379  13.773  12.005   5.902 -1.7689 -0.2449 -0.6111
63257SOL     OW 7380   2.246   4.699   5.758  0.3257 -0.3120 -0.7161
63257SOL    HW1 7381   2.194   4.623   5.731 -0.8277 -0.3969  1.5587
63257SOL    HW2 7382   2.182   4.769   5.770  1.1605  0.5166 -0.9775
63258SOL     OW 7383  13.534   6.164   0.286  0.2678  0.0925  0.1137
63258SOL    HW1 7384  13.607   6.226   0.285  0.6492 -0.2206  2.7635
63258SOL    HW2 7385  13.509   6.156   0.194  3.0017  0.8683 -0.7936
63259SOL     OW 7386   5.663   7.492  13.064 -0.1381 -0.6160  0.2716
63259SOL    HW1 7387   5.590   7.444  13.026 -1.1499  1.2763 -0.2994
63259SOL    HW2 7388   5.733   7.427  13.070 -0.9318 -1.7920 -1.8759
63260SOL     OW 7389   3.453   3.831  13.157 -0.3619 -0.1107  0.6453
63260SOL    HW1 7390   3.534   3.792  13.190  0.9325  2.2237  0.4635
63260SOL    HW2 7391   3.418   3.766  13.096  2.1824 -0.6201 -0.4069
63261SOL     OW 7392  12.754   1.500   9.098 -0.0364  0.2840  0.1659
63261SOL    HW1 7393  12.831   1.465   9.052  0.4759  0.6472  0.7409
63261SOL    HW2 7394  12.789   1.564   9.159 -0.9067  1.2993 -0.3663
63262SOL     OW 7395   3.038   6.413   0.684  0.7606 -0.2050 -0.5999
63262SOL    HW1 7396   3.083   6.339   0.643 -0.5420 -0.3909 -1.7724
63262SOL    HW2 7397   3.037   6.480   0.616 -1.3785 -0.4931 -0.9130
63263SOL     OW 7398   0.922  11.127  10.092  0.1123  0.1853 -0.0755
63263SOL    HW1 7399   1.001  11.080  10.062  1.3849  2.6962 -0.9602
63263SOL    HW2 7400   0.850  11.085  10.044  1.1679 -0.8205 -0.8558
63264SOL     OW 7401  11.420   9.728  11.802  0.0574  0.0873  0.2708
63264SOL    HW1 7402  11.447   9.787  11.731 -0.0357 -0.0078  0.1570
63264SOL    HW2 7403  11.488   9.661  11.805 -0.7390 -0.8151 -0.7864
63265SOL     OW 7404   5.180   1.885   0.721  0.0094  0.6707 -0.0369
63265SOL    HW1 7405   5.219   1.880   0.634 -0.3772  1.3159 -0.2494
63265SOL    HW2 7406   5.174   1.979   0.740 -0.1505  0.5423  0.5750
63266SOL     OW 7407   8.036  12.250   9.170  0.2240 -0.6225 -0.2497
63266SOL    HW1 7408   8.030  12.298   9.088 -0.2342 -0.9105 -0.3923
63266SOL    HW2 7409   8.097  12.300   9.223 -0.1150  0.0215 -0.4587
63267SOL     OW 7410  12.765   5.961   7.070 -0.0874 -0.2799  0.6984
63267SOL    HW1 7411  12.722   5.917   7.143 -1.1076  1.1030  0.9834
63267SOL    HW2 7412  12.709   5.941   6.994 -0.0078 -0.2859  0.6417
63268SOL     OW 7413   1.837  10.750  13.112  0.0380 -0.4454 -0.0374
63268SOL    HW1 7414   1.775  10.715  13.176 -2.0873 -0.0098 -1.7498
63268SOL    HW2 7415   1.782  10.790  13.045  2.2428  1.8578 -0.6296
63269SOL     OW 7416   2.573  11.638   4.403 -0.3017 -0.1114 -0.3932
63269SOL    HW1 7417   2.652  11.651   4.352 -0.5537 -0.4326 -0.8737
63269SOL    HW2 7418   2.602  11.642   4.494  0.2020  0.1366 -0.5597
63270SOL     OW 7419   0.334  13.978   0.942  0.1249  0.1242  0.1984
63270SOL    HW1 7420   0.408  14.005   0.997  0.5931  0.6222 -0.6394
63270SOL    HW2 7421   0.370  13.976   0.854 -0.7440 -0.1209 -0.1612
63271SOL     OW 7422   6.806  11.576   0.339 -0.4769  0.2767 -0.4751
63271SOL    HW1 7423   6.862  11.549   0.412 -2.5066 -1.9302  0.4088
63271SOL    HW2 7424   6.860  11.635   0.288  2.2279 -0.7752  0.9554
63272SOL     OW 7425  12.989   4.902  11.444  0.2430 -0.2543 -0.6431
63272SOL    HW1 7426  12.998   4.810  11.469 -0.2171 -0.6322 -1.8188
63272SOL    HW2 7427  12.935   4.900  11.365 -0.6025  1.1045 -0.1281
63273SOL     OW 7428  10.845   0.587   2.561 -0.2565 -0.5935 -0.0763
63273SOL    HW1 7429  10.869   0.664   2.511 -1.2466 -1.4731 -2.0251
63273SOL    HW2 7430  10.853   0.514   2.499 -3.2892 -1.5199  0.4430
63274SOL     OW 7431   9.004   9.225   1.616 -0.2254  0.0091 -0.1748
63274SOL    HW1 7432   9.064   9.228   1.690 -0.9362 -0.6693  0.4429
63274SOL    HW2 7433   8.990   9.316   1.593  0.0428  0.2231  0.4905
63275SOL     OW 7434   9.001   0.436   0.729 -0.5772 -0.2911 -0.3725
63275SOL    HW1 7435   8.990   0.422   0.635 -0.0991 -1.3125 -0.2849
63275SOL    HW2 7436   8.953   0.517   0.747 -0.7457 -0.1365 -1.4774
63276SOL     OW 7437   6.620   3.049   5.888  0.0578  0.3344  0.0811
63276SOL    HW1 7438   6.715   3.045   5.879  0.2290  1.5622  1.0173
63276SOL    HW2 7439   6.605   3.109   5.962 -1.4382  0.0616  0.0399
63277SOL     OW 7440   9.295   1.220   3.053  0.4919  0.8428  0.0059
63277SOL    HW1 7441   9.337   1.189   2.973  0.0728 -0.8007  0.3885
63277SOL    HW2 7442   9.355   1.197   3.123 -0.2111  0.0978  0.3803
63278SOL     OW 7443   7.126   3.242   5.910 -0.2310 -0.7277  0.0052
63278SOL    HW1 7444   7.069   3.223   5.985  0.6616 -1.6985  0.4539
63278SOL    HW2 7445   7.065   3.254   5.836 -0.9925 -2.4443  0.3171
63279SOL     OW 7446   9.535  10.723   2.321 -0.2455 -0.0254  0.0699
63279SOL    HW1 7447   9.483  10.803   2.328  0.8529  0.7419 -0.1780
63279SOL    HW2 7448   9.543  10.707   2.227  2.5264  1.6874 -0.1149
63280SOL     OW 7449   8.252  13.531   2.456 -0.5463  0.3581  0.5181
63280SOL    HW1 7450   8.333  13.569   2.489  0.7749 -1.3689 -0.5604
63280SOL    HW2 7451   8.242  13.449   2.505 -1.2401  0.2096  0.1421
63281SOL     OW 7452   6.101   7.630   5.440 -0.0147  0.0295  0.0004
63281SOL    HW1 7453   6.065   7.676   5.364 -2.2674  2.3397  2.2211
63281SOL    HW2 7454   6.182   7.677   5.460  0.5190 -0.5044 -0.8446
63282SOL     OW 7455  13.097  11.719   7.300  0.5331 -0.3180 -0.4236
63282SOL    HW1 7456  13.143  11.680   7.374  0.5789 -0.4886 -0.5407
63282SOL    HW2 7457  13.155  11.702   7.225  0.6707  0.1816 -0.4365
63283SOL     OW 7458  13.234   9.197   6.794  0.2001  0.2011 -0.1766
63283SOL    HW1 7459  13.253   9.277   6.843 -0.5152 -0.2515  0.8573
63283SOL    HW2 7460  13.226   9.129   6.860  0.1805 -0.6131 -0.9991
63284SOL     OW 7461   7.776  13.317   2.150  0.2409 -0.1304 -0.0538
63284SOL    HW1 7462   7.865  13.306   2.118  0.6435 -0.2347  1.0581
63284SOL    HW2 7463   7.759  13.239   2.202  0.0345  0.5424  0.9208
63285SOL     OW 7464   1.366   4.169   2.832 -0.4902 -0.7739 -0.2094
63285SOL    HW1 7465   1.421   4.145   2.906  0.7005 -0.0795 -0.8373
63285SOL    HW2 7466   1.397   4.256   2.806 -1.9732 -0.2975 -0.5123
63286SOL     OW 7467  12.661   9.371   0.023 -0.4067 -0.0531 -0.5274
63286SOL    HW1 7468  12.566   9.366   0.016 -0.4947 -2.4613  1.0528
63286SOL    HW2 7469  12.690   9.280   0.017  1.7551  0.5724 -0.4053
63287SOL     OW 7470   3.283   7.076   4.170  0.1808 -0.1459 -0.3206
63287SOL    HW1 7471   3.286   7.066   4.075  0.0764  2.5549 -0.6979
63287SOL    HW2 7472   3.293   7.171   4.185  1.2282 -0.5842  2.4200
63288SOL     OW 7473  13.754   7.723  12.501 -0.1181  0.7327  0.1524
63288SOL    HW1 7474  13.763   7.633  12.531  0.4230  0.1409 -1.6339
63288SOL    HW2 7475  13.670   7.752  12.534 -1.3648 -1.2326 -1.1027
63289SOL     OW 7476  12.888   4.717   3.747 -0.4046 -0.3409 -0.5212
63289SOL    HW1 7477  12.866   4.700   3.839  0.5470  1.1197  0.0233
63289SOL    HW2 7478  12.821   4.670   3.697 -1.3862 -0.5596  0.9299
63290SOL     OW 7479  12.778  13.447   1.010  0.1038  0.4972 -0.3799
63290SOL    HW1 7480  12.749  13.357   0.998  0.5345  0.3636 -0.4107
63290SOL    HW2 7481  12.739  13.495   0.936  0.4819  0.1973 -0.7760
63291SOL     OW 7482  10.578   4.831   1.337  0.1323  0.1257 -0.6718
63291SOL    HW1 7483  10.592   4.737   1.343 -0.9555 -0.0449 -0.6889
63291SOL    HW2 7484  10.497   4.841   1.288 -0.3537  1.0441  0.2746
63292SOL     OW 7485   3.594   5.008  13.609  0.4026  0.3121 -0.0100
63292SOL    HW1 7486   3.622   5.068  13.678  1.2243 -0.1240  0.0471
63292SOL    HW2 7487   3.593   5.062  13.530  0.9935  0.4418  0.0665
63293SOL     OW 7488   1.784   8.978   2.525  0.8150  0.8818 -0.0254
63293SOL    HW1 7489   1.843   9.034   2.475  0.0701  2.1017  0.4259
63293SOL    HW2 7490   1.697   9.014   2.509  0.3427 -0.0051  0.4752
63294SOL     OW 7491   0.516  12.313   3.623 -0.3588 -0.4920 -0.0651
63294SOL    HW1 7492   0.599  12.267   3.618 -1.1857 -2.2573  1.3850
63294SOL    HW2 7493   0.500  12.324   3.717 -0.6986  1.8924 -0.3521
63295SOL     OW 7494  12.364   0.157   5.143  0.1474 -0.1743 -0.3178
63295SOL    HW1 7495  12.389   0.226   5.081  1.2666 -1.0664 -0.8957
63295SOL    HW2 7496  12.445   0.134   5.187 -0.0414 -1.6529 -0.7025
63296SOL     OW 7497   4.095   8.596   5.959 -0.0677 -0.6624 -0.2696
63296SOL    HW1 7498   4.134   8.567   5.877  1.9878  0.4770  0.2309
63296SOL    HW2 7499   4.135   8.538   6.025 -2.3279 -2.1284 -0.0938
63297SOL     OW 7500   3.698   3.430   1.578  0.1447  0.3121 -0.0593
63297SOL    HW1 7501   3.608   3.443   1.547 -0.0307 -1.1620 -0.2561
63297SOL    HW2 7502   3.703   3.337   1.597  1.4874  0.4714  0.4676
63298SOL     OW 7503   4.088   2.385   8.251  0.2103 -0.6491  0.1623
63298SOL    HW1 7504   4.064   2.367   8.342 -0.4825  0.1248  0.1430
63298SOL    HW2 7505   4.110   2.299   8.215 -2.2961 -1.4297  0.2805
63299SOL     OW 7506   0.689   2.803   8.712  0.2170  0.1120 -0.5908
63299SOL    HW1 7507   0.595   2.814   8.702  0.0242  0.3251  1.2185
63299SOL    HW2 7508   0.725   2.836   8.629 -1.0609  4.0351  0.1894
63300SOL     OW 7509  10.336  10.724   3.850  0.0226  0.6013 -0.1503
63300SOL    HW1 7510  10.280  10.742   3.925 -0.0967  0.1337 -0.1248
63300SOL    HW2 7511  10.372  10.809   3.826 -0.0522  0.7780  0.3469
63301SOL     OW 7512   6.937   3.238   1.272 -0.2833  0.5338  0.3655
63301SOL    HW1 7513   6.862   3.203   1.320  0.2795 -1.3656 -0.0435
63301SOL    HW2 7514   6.927   3.203   1.183  1.7282 -0.8834  0.6243
63302SOL     OW 7515   7.078   5.820   2.994  0.9520  0.1316 -0.0503
63302SOL    HW1 7516   7.102   5.777   3.076  1.8519  0.0181 -0.3672
63302SOL    HW2 7517   7.157   5.867   2.967  0.3221  1.0909 -0.2814
63303SOL     OW 7518   5.188   7.779   1.477  0.0207  0.0869  0.3668
63303SOL    HW1 7519   5.119   7.797   1.413 -0.5961 -3.3260 -0.0684
63303SOL    HW2 7520   5.167   7.837   1.551 -1.9907  0.7397 -0.6361
63304SOL     OW 7521   4.601   9.150   8.186 -0.2213 -0.2053  0.4081
63304SOL    HW1 7522   4.679   9.143   8.130 -0.7511 -2.5213 -0.1679
63304SOL    HW2 7523   4.546   9.215   8.143  0.4496 -0.1597 -0.4134
63305SOL     OW 7524   8.967  10.567   5.353  0.2520  0.3023  0.0587
63305SOL    HW1 7525   9.006  10.581   5.266 -0.1583 -0.8051 -0.3167
63305SOL    HW2 7526   8.881  10.530   5.335  0.5811 -0.9560  0.9510
63306SOL     OW 7527   4.565   2.018  10.162  0.1371  0.0006  0.0505
63306SOL    HW1 7528   4.574   2.064  10.078  0.6754  0.4898  0.3669
63306SOL    HW2 7529   4.546   2.088  10.225  0.9420 -0.2021  0.5366
63307SOL     OW 7530   7.914   1.793   7.601  0.1493  0.3573  0.6123
63307SOL    HW1 7531   7.991   1.751   7.638 -1.4215 -2.3137  1.0418
63307SOL    HW2 7532   7.942   1.819   7.513  1.7853  0.3096  1.0827
63308SOL     OW 7533  10.088  10.799   4.957  0.6519 -1.2826  0.2113
63308SOL    HW1 7534  10.109  10.780   4.866  0.2898  2.8433 -0.9195
63308SOL    HW2 7535  10.173  10.821   4.997  0.5456 -1.0921  0.3298
63309SOL     OW 7536   0.327  10.116   8.527 -0.2629  0.1325 -0.4128
63309SOL    HW1 7537   0.258  10.086   8.587 -0.6528  1.2565 -0.2805
63309SOL    HW2 7538   0.385  10.169   8.582  0.6213 -0.6454 -0.5686
63310SOL     OW 7539   5.523  13.248   2.586 -0.3776 -0.0531 -0.2437
63310SOL    HW1 7540   5.504  13.248   2.492 -0.2332  1.3733 -0.2892
63310SOL    HW2 7541   5.446  13.206   2.625  1.3253 -4.6457 -1.2364
63311SOL     OW 7542   4.285   1.446  12.184  0.0413  0.0032  0.0832
63311SOL    HW1 7543   4.369   1.422  12.224  0.3127 -0.8197 -0.9361
63311SOL    HW2 7544   4.220   1.396  12.233  0.3236 -0.6622 -0.2143
63312SOL     OW 7545  13.808   1.870   0.741  0.3435 -0.7414 -0.3317
63312SOL    HW1 7546  13.852   1.941   0.787  0.3309 -1.2608  0.4903
63312SOL    HW2 7547  13.717   1.876   0.768  0.2795 -0.8715 -0.5121
63313SOL     OW 7548   5.954   9.536   2.906  0.3287 -0.2053  0.4499
63313SOL    HW1 7549   5.970   9.626   2.876  0.1789  0.1792  1.4490
63313SOL    HW2 7550   6.029   9.517   2.963 -0.8142  0.2081  2.1801
63314SOL     OW 7551   4.210   7.089   0.671 -0.2136  0.1241 -0.4518
63314SOL    HW1 7552   4.237   7.017   0.729  1.2301 -0.7196 -2.0746
63314SOL    HW2 7553   4.242   7.168   0.714 -1.6331 -0.1567  1.2559
63315SOL     OW 7554  13.902  12.001   4.354 -0.4754  0.4182  0.0902
63315SOL    HW1 7555  13.842  11.966   4.420 -0.3626 -0.8656 -0.4391
63315SOL    HW2 7556  13.986  11.959   4.374 -0.5013 -0.1823 -0.9893
63316SOL     OW 7557   9.994   1.370   3.248  0.1511 -0.2641 -0.1500
63316SOL    HW1 7558   9.986   1.291   3.300  0.3312  0.0828  0.4131
63316SOL    HW2 7559  10.050   1.345   3.175  0.1330 -0.6783 -0.0217
63317SOL     OW 7560   0.476   7.649   9.698 -0.1544 -0.5516  0.0449
63317SOL    HW1 7561   0.380   7.648   9.692 -0.2948  1.6714  0.7350
63317SOL    HW2 7562   0.496   7.735   9.737  2.1880 -0.4507 -1.1990
63318SOL     OW 7563   9.490   1.972  13.120  0.3099  0.1800 -0.1283
63318SOL    HW1 7564   9.474   2.035  13.191 -1.9366 -0.0943 -0.3079
63318SOL    HW2 7565   9.426   1.997  13.052 -0.0813 -1.7976 -0.5302
63319SOL     OW 7566  12.248   2.939   1.753  0.0174 -0.0385 -0.1639
63319SOL    HW1 7567  12.303   2.877   1.801  0.2346  0.1228 -0.2073
63319SOL    HW2 7568  12.297   3.021   1.754  0.1625 -0.1152 -0.9312
63320SOL     OW 7569  13.736   2.077  12.113 -0.0915  1.2120 -0.2257
63320SOL    HW1 7570  13.672   2.006  12.110 -1.6222  2.2501  3.0116
63320SOL    HW2 7571  13.818   2.036  12.088 -1.4834 -0.8667 -1.7718
63321SOL     OW 7572   3.832  11.043  12.600 -0.8981 -0.5181 -0.5621
63321SOL    HW1 7573   3.752  11.061  12.651 -0.8659 -0.1322 -0.6476
63321SOL    HW2 7574   3.894  11.110  12.628 -0.1166 -1.6611  0.5490
63322SOL     OW 7575   2.091  11.691   0.038 -0.3822 -0.5182  0.1729
63322SOL    HW1 7576   2.154  11.701  -0.034 -0.9478 -0.7386 -0.3558
63322SOL    HW2 7577   2.137  11.726   0.114 -0.2305  0.9401 -0.5385
63323SOL     OW 7578   8.984  13.147  11.561 -0.7920  0.3521 -0.0843
63323SOL    HW1 7579   8.945  13.153  11.648 -1.0892  0.4332 -0.2203
63323SOL    HW2 7580   9.062  13.093  11.573 -1.0871 -0.0277  0.1456
63324SOL     OW 7581   7.072   8.077   1.155  0.0119  0.0384 -0.0836
63324SOL    HW1 7582   7.016   8.103   1.228  1.4972  2.2848  0.3601
63324SOL    HW2 7583   7.097   7.987   1.174 -2.5944 -0.7019  0.1880
63325SOL     OW 7584  10.017   2.233   2.774 -0.3651  0.2906 -0.0048
63325SOL    HW1 7585  10.080   2.286   2.823  1.1111 -0.9903 -0.4180
63325SOL    HW2 7586   9.935   2.240   2.824  0.1125  1.9368  0.5933
63326SOL     OW 7587   4.253   5.324  11.710 -0.0389  0.0695  0.2578
63326SOL    HW1 7588   4.303   5.398  11.675 -0.0110 -0.0428  0.0576
63326SOL    HW2 7589   4.185   5.308  11.644 -0.0729 -0.0549  0.3227
63327SOL     OW 7590   7.202   1.543   7.618 -0.2899 -0.4645 -0.3796
63327SOL    HW1 7591   7.271   1.606   7.596  1.0325 -1.5441  0.5749
63327SOL    HW2 7592   7.138   1.553   7.548  0.6006  0.8880 -1.0482
63328SOL     OW 7593   7.373  13.857   4.127 -0.3714 -0.1046  0.3787
63328SOL    HW1 7594   7.310  13.903   4.071 -0.8724 -2.1982 -0.9093
63328SOL    HW2 7595   7.319  13.801   4.182  0.2853 -0.6339  0.4954
63329SOL     OW 7596   0.203   9.875  10.458  0.1741 -0.1678 -0.5073
63329SOL    HW1 7597   0.289   9.915  10.442 -0.5065  1.3014 -0.5931
63329SOL    HW2 7598   0.186   9.823  10.379 -0.1018  1.5246 -1.6012
63330SOL     OW 7599   4.630  12.669  12.306 -0.1227 -0.1462  0.0742
63330SOL    HW1 7600   4.643  12.687  12.213 -2.9945  2.2909 -0.0209
63330SOL    HW2 7601   4.610  12.576  12.310 -2.6894  0.1797 -2.2504
63331SOL     OW 7602   1.901   2.581  12.229 -0.4593 -0.6182  0.2877
63331SOL    HW1 7603   1.841   2.655  12.237 -1.7387 -1.4550 -1.0510
63331SOL    HW2 7604   1.899   2.539  12.314 -0.3998  0.3650  0.7913
63332SOL     OW 7605   9.333  13.619   9.948 -0.1208 -0.0894  0.8632
63332SOL    HW1 7606   9.424  13.613   9.976  0.1114 -2.3265 -0.1708
63332SOL    HW2 7607   9.334  13.594   9.856 -1.5844  1.6246  0.3234
63333SOL     OW 7608   0.824  13.968  12.967 -0.1017 -0.4574  0.1114
63333SOL    HW1 7609   0.748  13.978  13.024 -0.3524  1.1682 -0.4714
63333SOL    HW2 7610   0.804  13.890  12.915 -0.6107 -0.9916  1.0775
63334SOL     OW 7611   2.246   3.796   3.854  0.2502  0.8170 -0.1521
63334SOL    HW1 7612   2.322   3.769   3.803  0.8754  2.3482 -0.0756
63334SOL    HW2 7613   2.171   3.765   3.803  0.8844 -0.7759 -0.1976
63335SOL     OW 7614  14.054  11.779   3.036  0.5499  0.1506  0.1545
63335SOL    HW1 7615  14.146  11.757   3.052  0.6723  0.1791 -0.4667
63335SOL    HW2 7616  14.032  11.730   2.956 -0.6184 -1.6242  1.4984
63336SOL     OW 7617  11.029  10.743  11.919 -0.0777 -0.0662 -0.2354
63336SOL    HW1 7618  10.941  10.741  11.883 -0.2743 -2.8173  0.1985
63336SOL    HW2 7619  11.020  10.709  12.008  1.1569  1.5322  0.5516
63337SOL     OW 7620   4.410  12.102   2.406  0.2461  0.4367 -0.1905
63337SOL    HW1 7621   4.333  12.075   2.357  0.6720 -1.0795 -0.0851
63337SOL    HW2 7622   4.464  12.149   2.342  0.4454 -0.8430 -1.0098
63338SOL     OW 7623   3.129   4.522  12.511 -0.1121  0.1927  0.2203
63338SOL    HW1 7624   3.037   4.497  12.505  0.4099 -2.7820  2.2022
63338SOL    HW2 7625   3.170   4.481  12.435 -0.3679  1.4484 -0.6174
63339SOL     OW 7626  11.807   0.526   4.547 -0.3397 -0.2201 -0.6058
63339SOL    HW1 7627  11.863   0.583   4.598 -0.8006 -0.2210 -0.0875
63339SOL    HW2 7628  11.817   0.556   4.457  0.1453  0.0628 -0.4574
63340SOL     OW 7629   5.209   6.567   0.502  0.1865 -0.0039 -0.1871
63340SOL    HW1 7630   5.168   6.637   0.452 -1.5585 -0.8569 -0.0259
63340SOL    HW2 7631   5.138   6.505   0.519  1.2800 -0.9310  1.2261
63341SOL     OW 7632   6.110   8.572   3.235 -0.6358 -0.0864 -0.4174
63341SOL    HW1 7633   6.193   8.557   3.190 -0.5854 -0.3866 -0.2314
63341SOL    HW2 7634   6.092   8.489   3.279 -0.6484  0.2292  0.1783
63342SOL     OW 7635   0.669  12.701   4.530  0.5568 -0.0317  0.6016
63342SOL    HW1 7636   0.730  12.739   4.594  3.2260 -0.5294 -1.5066
63342SOL    HW2 7637   0.707  12.721   4.445 -0.8305 -2.6961 -0.7742
63343SOL     OW 7638  10.528   3.479   1.251 -0.3246 -0.5202  0.2509
63343SOL    HW1 7639  10.521   3.399   1.304 -1.0004 -0.7228 -0.1290
63343SOL    HW2 7640  10.520   3.448   1.161  1.5225 -0.2650 -0.0258
63344SOL     OW 7641   5.739  13.098   0.614 -0.6921 -1.0014 -0.4448
63344SOL    HW1 7642   5.687  13.020   0.596 -0.5442 -1.0786 -0.5393
63344SOL    HW2 7643   5.676  13.170   0.608 -0.5652 -0.9669 -1.7663
63345SOL     OW 7644  11.390   7.368  12.590 -0.2033  0.1037  0.1639
63345SOL    HW1 7645  11.464   7.407  12.636 -0.0862 -1.0894  1.0257
63345SOL    HW2 7646  11.315   7.381  12.648 -0.5421  0.6600 -0.3774
63346SOL     OW 7647   9.609   4.720  13.655 -1.1070  0.0462  0.7236
63346SOL    HW1 7648   9.677   4.662  13.689  1.1401  1.7095 -0.6356
63346SOL    HW2 7649   9.548   4.730  13.728  0.3554 -1.1668  2.2006
63347SOL     OW 7650   0.096   0.898   5.981  0.1266  0.2826 -1.0173
63347SOL    HW1 7651   0.096   0.809   6.016 -0.7626  0.7025  0.0833
63347SOL    HW2 7652   0.186   0.928   5.993 -0.3765  0.8590  2.1825
63348SOL     OW 7653  10.967   8.225  13.648 -0.7426 -0.7753  0.0883
63348SOL    HW1 7654  10.990   8.151  13.704  0.3529 -0.8318 -0.4126
63348SOL    HW2 7655  11.039   8.287  13.659 -1.2407 -0.1387 -0.1446
63349SOL     OW 7656   4.950  10.279   0.965 -0.1098 -0.6194  0.2412
63349SOL    HW1 7657   4.894  10.346   1.005  0.7727  0.7078 -0.6690
63349SOL    HW2 7658   4.889  10.223   0.916 -0.8612 -0.5263  1.0457
63350SOL     OW 7659   4.160   8.168  11.839  0.2609 -0.2437 -0.1406
63350SOL    HW1 7660   4.248   8.136  11.860  0.8974  1.2991 -0.3452
63350SOL    HW2 7661   4.154   8.161  11.744  0.2133 -0.2319 -0.1383
63351SOL     OW 7662   2.870  10.481   7.782 -0.8557  0.5842 -0.5790
63351SOL    HW1 7663   2.955  10.483   7.738 -1.6239 -1.5003 -2.3469
63351SOL    HW2 7664   2.884  10.426   7.859 -0.5372  0.4544 -0.7279
63352SOL     OW 7665   9.319   3.532   1.592  0.2863  0.6514 -0.9872
63352SOL    HW1 7666   9.375   3.532   1.515  3.7457 -1.5796  1.2316
63352SOL    HW2 7667   9.292   3.441   1.603 -0.1417  0.9193  0.3650
63353SOL     OW 7668  10.252   5.704   6.822  0.7271  1.0186  0.2775
63353SOL    HW1 7669  10.239   5.790   6.862 -0.7434  0.1707  1.7327
63353SOL    HW2 7670  10.169   5.687   6.777  0.1648 -0.4978  1.7808
63354SOL     OW 7671   1.086  10.394   0.154 -0.4402  0.2165  0.1188
63354SOL    HW1 7672   1.021  10.417   0.220 -0.5463  1.2212 -0.3300
63354SOL    HW2 7673   1.099  10.300   0.166 -1.9524 -0.0088  0.2313
63355SOL     OW 7674  10.811   4.657   8.147  0.4303 -0.1303 -0.0766
63355SOL    HW1 7675  10.844   4.709   8.074 -1.4511 -0.6725 -1.3923
63355SOL    HW2 7676  10.853   4.571   8.137  0.2016 -0.1943 -0.5283
63356SOL     OW 7677   7.867  10.881  13.945  0.2142  0.1054 -0.2470
63356SOL    HW1 7678   7.877  10.844  14.032 -0.2591  0.6066  0.0301
63356SOL    HW2 7679   7.937  10.946  13.938 -0.4605  0.8936  0.2150
63357SOL     OW 7680   8.179  10.738   0.694  0.2111 -0.0596 -0.7077
63357SOL    HW1 7681   8.265  10.699   0.679 -0.5057 -1.9658 -0.1503
63357SOL    HW2 7682   8.126  10.667   0.727 -0.6525  1.8931  2.5054
63358SOL     OW 7683   1.105  13.489  10.050 -0.6922  0.2752  0.2291
63358SOL    HW1 7684   1.110  13.582  10.070 -0.0124 -0.2957  3.1187
63358SOL    HW2 7685   1.017  13.463  10.080 -0.3827 -0.2432  0.7133
63359SOL     OW 7686  10.930  12.970   3.041 -0.6048  0.4748 -0.0357
63359SOL    HW1 7687  10.997  12.914   3.079  0.6452 -0.4743 -3.3229
63359SOL    HW2 7688  10.965  13.058   3.050  0.5722  0.0972 -0.6671
63360SOL     OW 7689  12.114   2.627   1.079 -0.3191  0.0886  0.1856
63360SOL    HW1 7690  12.085   2.615   1.169  0.8898  1.1435  0.7524
63360SOL    HW2 7691  12.170   2.552   1.061 -0.2640  0.0664  0.4457
63361SOL     OW 7692   7.241   2.431   2.683 -0.3043  0.2331  0.0983
63361SOL    HW1 7693   7.265   2.502   2.744 -0.8364 -1.0018  1.8235
63361SOL    HW2 7694   7.312   2.367   2.693 -1.2927 -0.7784  0.7728
63362SOL     OW 7695  13.329  11.815   5.330  0.0818 -0.1613  0.3203
63362SOL    HW1 7696  13.283  11.841   5.410  0.2567 -1.2081  0.7698
63362SOL    HW2 7697  13.304  11.882   5.266 -0.5709  0.3326  1.0682
63363SOL     OW 7698   5.261   0.550   7.872 -0.2849  0.1426 -0.3074
63363SOL    HW1 7699   5.192   0.607   7.836 -0.7896 -0.7956 -0.8739
63363SOL    HW2 7700   5.229   0.525   7.959 -1.6681 -1.8739 -1.3149
63364SOL     OW 7701  13.171  10.783  11.016  0.0060  0.2113  0.5935
63364SOL    HW1 7702  13.110  10.852  11.041 -0.9624 -1.0272  1.8476
63364SOL    HW2 7703  13.240  10.828  10.966 -0.5462  2.0665  1.4094
63365SOL     OW 7704  11.625   9.181   0.883  0.2891 -0.3122 -0.1274
63365SOL    HW1 7705  11.702   9.192   0.938  0.1452  1.9933 -0.2477
63365SOL    HW2 7706  11.659   9.151   0.799  0.8892 -0.5966  0.2130
63366SOL     OW 7707   3.357   7.632   2.702  0.2626 -0.6080  0.2959
63366SOL    HW1 7708   3.430   7.629   2.763  2.1384  1.0101 -1.7149
63366SOL    HW2 7709   3.296   7.696   2.740  0.7739 -0.5815  1.0803
63367SOL     OW 7710  11.395   7.090  10.424 -0.2011 -0.2164 -0.2803
63367SOL    HW1 7711  11.416   7.089  10.518  0.9872 -0.3507 -0.5249
63367SOL    HW2 7712  11.467   7.041  10.383  1.2137  2.6793 -1.5960
63368SOL     OW 7713  13.879  10.598   2.018  0.3762 -0.2767  0.6828
63368SOL    HW1 7714  13.859  10.630   1.930  2.8558  0.6752  0.3736
63368SOL    HW2 7715  13.794  10.579   2.057 -0.7907 -0.9279 -1.9778
63369SOL     OW 7716  12.581   7.481  13.557 -0.2339  0.0270 -0.7604
63369SOL    HW1 7717  12.505   7.434  13.523 -0.9142  0.1831  0.4928
63369SOL    HW2 7718  12.602   7.437  13.639 -0.3111  1.3100 -0.0252
63370SOL     OW 7719   2.778   6.129   8.418 -0.0936  0.3620  0.1034
63370SOL    HW1 7720   2.702   6.158   8.467 -0.1400 -2.1409  1.7280
63370SOL    HW2 7721   2.746   6.056   8.365  0.5784  1.1995 -1.5087
63371SOL     OW 7722  11.017   4.214  10.356  0.1734 -0.1790 -0.6887
63371SOL    HW1 7723  11.017   4.259  10.440 -0.8351 -0.4910 -0.5071
63371SOL    HW2 7724  11.103   4.233  10.318 -0.0124  1.4681 -0.3826
63372SOL     OW 7725   7.770  11.222  13.254 -0.4127  0.2916  0.4660
63372SOL    HW1 7726   7.699  11.166  13.286 -0.2200 -0.2871 -0.0886
63372SOL    HW2 7727   7.748  11.310  13.284  0.2895 -0.3585  3.0833
63373SOL     OW 7728   6.442   5.781   1.877 -0.4809  0.3989  0.4331
63373SOL    HW1 7729   6.476   5.859   1.833  0.6776 -0.3016  0.0369
63373SOL    HW2 7730   6.441   5.714   1.810 -0.7231 -0.1385  0.9657
63374SOL     OW 7731   8.358   4.949   7.446  0.3315  0.1101 -0.3151
63374SOL    HW1 7732   8.328   4.931   7.357  0.4473  0.0309 -0.3383
63374SOL    HW2 7733   8.292   5.009   7.482  0.1396 -0.0697 -0.3621
63375SOL     OW 7734  12.729   8.419  13.100  0.0861 -0.0705 -0.3897
63375SOL    HW1 7735  12.736   8.447  13.009  1.2038  0.6852 -0.0982
63375SOL    HW2 7736  12.686   8.334  13.096 -1.5066  0.7468 -1.4772
63376SOL     OW 7737   0.798   7.036   1.553  0.2529 -0.1763 -0.0594
63376SOL    HW1 7738   0.743   7.031   1.631  3.4612  0.4215  2.4538
63376SOL    HW2 7739   0.771   7.117   1.510 -2.1173 -0.9087 -0.0975
63377SOL     OW 7740   2.962   7.493   5.019  0.2982 -0.2834 -0.2938
63377SOL    HW1 7741   2.959   7.580   4.979 -0.6821 -0.7195 -1.2325
63377SOL    HW2 7742   2.904   7.498   5.094  0.4134 -0.0732 -0.2189
63378SOL     OW 7743   6.202  13.160  10.631 -0.4645 -0.4203 -0.1801
63378SOL    HW1 7744   6.111  13.189  10.620 -0.4782 -0.6164 -0.6138
63378SOL    HW2 7745   6.195  13.069  10.658 -0.4029 -0.3103  0.2134
63379SOL     OW 7746   5.241   5.825  10.810 -0.2693 -0.1436 -0.0432
63379SOL    HW1 7747   5.305   5.863  10.870  0.0522 -0.6414 -0.0673
63379SOL    HW2 7748   5.289   5.758  10.763 -0.3590  0.6414 -1.2948
63380SOL     OW 7749   2.895   4.908   4.055 -0.6976  0.1563  0.6075
63380SOL    HW1 7750   2.846   4.970   4.001  0.2647  0.3354 -0.0909
63380SOL    HW2 7751   2.947   4.857   3.992  1.4387  1.2290  1.3773
63381SOL     OW 7752   6.539   7.812  13.281 -0.6403  0.4446  0.0625
63381SOL    HW1 7753   6.602   7.768  13.224 -1.4824 -1.3710  0.4730
63381SOL    HW2 7754   6.456   7.807  13.233 -0.8322  1.3202  0.2773
63382SOL     OW 7755   0.500   6.719  12.971  0.0926 -0.3429  0.2453
63382SOL    HW1 7756   0.565   6.790  12.980 -0.9229  0.6434  0.0533
63382SOL    HW2 7757   0.438   6.752  12.906 -0.4652 -1.3775  0.2458
63383SOL     OW 7758   8.278  13.710   5.389  0.1360  0.3318  0.1033
63383SOL    HW1 7759   8.217  13.729   5.318 -1.4727  2.1127  1.8196
63383SOL    HW2 7760   8.245  13.629   5.427  0.3933 -0.0819 -0.5423
63384SOL     OW 7761   9.287   3.660  12.607  0.2574 -0.0744 -0.0906
63384SOL    HW1 7762   9.298   3.745  12.648 -2.1461  0.1366  0.2273
63384SOL    HW2 7763   9.205   3.626  12.642 -0.0810 -1.4471 -2.0167
63385SOL     OW 7764   7.963  10.956   9.061 -0.4280 -0.4414 -0.1444
63385SOL    HW1 7765   8.023  10.881   9.071  0.5092 -0.1556 -2.7714
63385SOL    HW2 7766   7.919  10.940   8.977 -2.0942  0.7220  0.4664
63386SOL     OW 7767   8.423  13.426  14.069 -0.2982 -0.6731  0.4212
63386SOL    HW1 7768   8.503  13.373  14.070 -0.6408 -1.1976  0.2787
63386SOL    HW2 7769   8.413  13.452  13.978  0.1381  0.0610  0.5739
63387SOL     OW 7770   4.493   9.108   3.213  0.1956  0.4437 -0.1440
63387SOL    HW1 7771   4.474   9.201   3.218  1.4541  0.6446  1.3111
63387SOL    HW2 7772   4.581   9.099   3.249 -0.1625 -1.3930  0.3558
63388SOL     OW 7773  13.897   6.581   6.137  0.0919  0.2102 -0.2409
63388SOL    HW1 7774  13.819   6.576   6.081  0.7772  0.9188 -1.3030
63388SOL    HW2 7775  13.970   6.583   6.076  0.8293  1.8706  0.6360
63389SOL     OW 7776  11.503  13.105  13.748 -0.5100  0.1143 -0.2616
63389SOL    HW1 7777  11.433  13.152  13.795  0.3461  2.0705 -0.8201
63389SOL    HW2 7778  11.514  13.023  13.797 -2.8134 -0.0217  0.1361
63390SOL     OW 7779   7.904   7.797  13.689  0.4994 -0.3469 -0.2324
63390SOL    HW1 7780   7.827   7.807  13.634  0.8848 -1.8939 -1.1195
63390SOL    HW2 7781   7.896   7.866  13.755 -1.5875 -0.4063 -0.3555
63391SOL     OW 7782   0.778   3.370   6.768 -0.0782 -0.1733 -0.0751
63391SOL    HW1 7783   0.760   3.448   6.821  1.9192  0.1547  0.1876
63391SOL    HW2 7784   0.699   3.316   6.779 -0.5762  0.7907  1.5764
63392SOL     OW 7785   1.434   5.975   0.821  0.3901  0.1534 -0.5243
63392SOL    HW1 7786   1.441   5.915   0.747  0.6834 -2.0252  1.1409
63392SOL    HW2 7787   1.507   5.951   0.878 -0.2048  1.2881  0.7892
63393SOL     OW 7788  10.065   7.240  12.068  0.0212  0.0003  0.4489
63393SOL    HW1 7789  10.058   7.284  11.984 -1.6767  0.1296  0.6237
63393SOL    HW2 7790   9.975   7.218  12.091  0.6495 -2.1976  1.0903
63394SOL     OW 7791   8.888   8.817   4.715  0.2961  0.4035 -0.7929
63394SOL    HW1 7792   8.892   8.730   4.673  1.9555  1.4335 -3.0260
63394SOL    HW2 7793   8.980   8.841   4.726 -0.1470  1.6580  0.3474
63395SOL     OW 7794   8.256   9.341   5.321 -0.4485 -0.0007  0.0845
63395SOL    HW1 7795   8.193   9.270   5.303 -1.3025  0.6909  0.3058
63395SOL    HW2 7796   8.247   9.358   5.414 -0.5900  0.7157 -0.0560
63396SOL     OW 7797   7.799  13.667   3.985 -0.1041  0.6249  0.3076
63396SOL    HW1 7798   7.714  13.706   3.963 -0.4127  0.0198  0.4028
63396SOL    HW2 7799   7.817  13.607   3.913 -1.1739 -1.4590  1.6579
63397SOL     OW 7800  13.358   7.060   7.869 -0.1834 -0.1208  0.0427
63397SOL    HW1 7801  13.290   7.120   7.898 -1.2128 -1.5431  0.6879
63397SOL    HW2 7802  13.338   6.978   7.913  0.7059 -1.1839 -1.4382
63398SOL     OW 7803   0.273  12.825   2.533  0.2838 -0.3765  0.8594
63398SOL    HW1 7804   0.190  12.850   2.574  0.3790 -2.0240  2.1513
63398SOL    HW2 7805   0.248  12.759   2.468  0.4925 -0.1551  0.5524
63399SOL     OW 7806  12.101   7.406   2.929 -0.0621 -0.0408 -0.2819
63399SOL    HW1 7807  12.033   7.389   2.995  1.3553 -1.8157  0.7894
63399SOL    HW2 7808  12.143   7.486   2.960  0.2799 -0.5940  0.7342
63400SOL     OW 7809   7.848   5.851  11.925 -0.1484 -0.3034  0.3107
63400SOL    HW1 7810   7.861   5.789  11.996 -2.4218 -0.6393  0.5130
63400SOL    HW2 7811   7.789   5.806  11.865  1.1368  0.2538 -1.4649
63401SOL     OW 7812  11.270  10.381   1.079  0.5096 -0.2306 -0.0462
63401SOL    HW1 7813  11.346  10.438   1.069 -0.3211  1.7126  2.9322
63401SOL    HW2 7814  11.306  10.293   1.085  2.8235  0.7202  2.6441
63402SOL     OW 7815   0.115   2.248  12.525  0.1040  0.5150  0.3331
63402SOL    HW1 7816   0.044   2.185  12.538 -1.0605  1.4270 -1.2321
63402SOL    HW2 7817   0.177   2.202  12.468 -1.2646  1.0739 -1.7067
63403SOL     OW 7818   2.518   3.653   7.264  0.1272  0.0386  0.1273
63403SOL    HW1 7819   2.485   3.735   7.226 -1.8575 -0.0037  1.5875
63403SOL    HW2 7820   2.597   3.679   7.311 -0.4549  1.1134  0.5429
63404SOL     OW 7821  11.242   4.171   3.797  0.0955 -0.1440  0.4517
63404SOL    HW1 7822  11.195   4.154   3.716 -1.0659  0.5749  0.9491
63404SOL    HW2 7823  11.284   4.088   3.818  0.6226 -0.2590 -1.0090
63405SOL     OW 7824  10.506   8.349  13.492 -0.5546  0.0333  0.3055
63405SOL    HW1 7825  10.503   8.295  13.413  0.6794 -0.6068  0.6833
63405SOL    HW2 7826  10.598   8.369  13.505 -0.9239  1.7031  0.5478
63406SOL     OW 7827   8.889  13.703  10.334  0.1782 -0.1522 -0.0332
63406SOL    HW1 7828   8.965  13.726  10.282 -0.6276  0.0220 -1.1610
63406SOL    HW2 7829   8.817  13.754  10.297 -1.5228 -3.6748 -2.1325
63407SOL     OW 7830   6.708   4.312   0.061  0.0515 -0.1861  0.1935
63407SOL    HW1 7831   6.719   4.303   0.156  1.8033  1.4180  0.1905
63407SOL    HW2 7832   6.790   4.351   0.030 -0.9563  0.4825 -1.8189
63408SOL     OW 7833   2.263   8.892   6.593 -0.0347 -0.2212 -0.5251
63408SOL    HW1 7834   2.343   8.906   6.544  1.0265 -1.6745  0.7001
63408SOL    HW2 7835   2.282   8.925   6.681 -1.5590  1.4262 -0.7491
63409SOL     OW 7836   1.005   2.109   9.385  0.7598  0.3865  0.7185
63409SOL    HW1 7837   0.961   2.032   9.420 -1.4267 -0.7620 -3.7561
63409SOL    HW2 7838   1.091   2.077   9.358  0.9113  0.2723  1.3144
63410SOL     OW 7839  12.572   6.588   6.884 -0.2490  0.1787 -0.2258
63410SOL    HW1 7840  12.562   6.493   6.885  0.1834  0.1298  0.0785
63410SOL    HW2 7841  12.483   6.622   6.893 -0.3267 -0.2070  0.5597
63411SOL     OW 7842   6.780   6.622   0.006 -0.3307  0.8121 -0.5146
63411SOL    HW1 7843   6.712   6.573  -0.041 -1.2132  0.5155  0.9748
63411SOL    HW2 7844   6.740   6.707   0.023 -0.2566  0.7204  0.1582
63412SOL     OW 7845  12.482   1.389   2.659 -0.3137  0.1642  0.4307
63412SOL    HW1 7846  12.391   1.384   2.630  0.4142 -4.5454 -2.0572
63412SOL    HW2 7847  12.484   1.334   2.738  0.0703  2.1902  1.9009
63413SOL     OW 7848   6.960   5.595  12.477 -0.0795 -0.4623  0.2266
63413SOL    HW1 7849   6.921   5.563  12.558  0.0722 -0.2367  0.3909
63413SOL    HW2 7850   6.886   5.604  12.417 -0.4021  0.6192  0.7538
63414SOL     OW 7851   5.739   6.428   5.249 -0.0239  0.0606 -0.0796
63414SOL    HW1 7852   5.765   6.342   5.216  1.3862 -0.1136  1.3664
63414SOL    HW2 7853   5.644   6.422   5.262 -0.2602 -0.5897 -1.8334
63415SOL     OW 7854  12.839  13.264   7.969 -0.4920 -0.3390 -0.1117
63415SOL    HW1 7855  12.831  13.359   7.970 -1.0350 -0.3795 -0.3271
63415SOL    HW2 7856  12.885  13.243   8.051 -1.4544  0.0156  0.5272
63416SOL     OW 7857   2.691   6.453   0.796  0.0411 -0.3702  0.2529
63416SOL    HW1 7858   2.764   6.440   0.857  1.8189  2.0902 -1.2149
63416SOL    HW2 7859   2.727   6.506   0.725 -2.5159 -1.3051 -1.9152
63417SOL     OW 7860   5.924  13.714  12.416 -0.2089  0.1405  0.2113
63417SOL    HW1 7861   5.861  13.720  12.344  1.0737  0.7408 -0.9097
63417SOL    HW2 7862   5.964  13.627  12.405 -0.9830 -0.3472  1.0761
63418SOL     OW 7863  12.836  11.551  12.697  0.7998  0.2205  0.2080
63418SOL    HW1 7864  12.902  11.620  12.706  0.0969  0.9136  0.2357
63418SOL    HW2 7865  12.752  11.599  12.696  0.3650 -0.5416 -1.0505
63419SOL     OW 7866   3.491   6.361   8.550  1.1151  0.0918 -0.2364
63419SOL    HW1 7867   3.499   6.444   8.502  2.2597  0.6752  0.8969
63419SOL    HW2 7868   3.401   6.360   8.582  0.4593 -0.0975 -1.9465
63420SOL     OW 7869  13.160   5.119   8.393  0.6128 -0.0038  0.2885
63420SOL    HW1 7870  13.175   5.123   8.299 -0.6435  0.4179  0.0932
63420SOL    HW2 7871  13.243   5.087   8.429  0.7672 -1.1595 -1.0357
63421SOL     OW 7872  13.703   1.051  12.897 -0.4203  0.6162 -0.2212
63421SOL    HW1 7873  13.733   1.126  12.947 -2.8879  1.8034 -0.3672
63421SOL    HW2 7874  13.686   1.086  12.809  2.5070 -1.1227 -1.6401
63422SOL     OW 7875   4.155   0.536  10.419  0.2913  0.2274 -0.2235
63422SOL    HW1 7876   4.142   0.622  10.379 -1.0512  1.2130  2.0903
63422SOL    HW2 7877   4.066   0.506  10.439  0.8327 -0.9542  0.4822
63423SOL     OW 7878  11.333   2.138  13.681 -0.1673  0.2147  0.4962
63423SOL    HW1 7879  11.419   2.174  13.659 -0.7160  1.0232 -0.4094
63423SOL    HW2 7880  11.291   2.207  13.734 -0.3869 -0.0261  0.6375
63424SOL     OW 7881   0.473   8.238   4.252 -0.1094  0.0067  0.1077
63424SOL    HW1 7882   0.519   8.213   4.172 -1.9446 -0.2371 -0.9289
63424SOL    HW2 7883   0.526   8.309   4.289  0.5444  0.4260 -1.5446
63425SOL     OW 7884   7.351   7.400   6.910 -0.2636 -0.1545  0.3259
63425SOL    HW1 7885   7.430   7.425   6.862 -0.2326 -0.3418  0.2776
63425SOL    HW2 7886   7.380   7.390   7.000 -0.2387 -0.1926  0.3136
63426SOL     OW 7887   3.860  10.189   1.909 -0.0763  0.3384 -0.2498
63426SOL    HW1 7888   3.792  10.147   1.960  1.2888 -0.6947  0.8038
63426SOL    HW2 7889   3.909  10.117   1.870  0.8496  1.0159 -0.3890
63427SOL     OW 7890   4.828   1.299   3.655 -0.3565  0.5669 -0.2944
63427SOL    HW1 7891   4.767   1.369   3.632 -0.8286  0.0448 -0.6610
63427SOL    HW2 7892   4.881   1.286   3.576 -0.3900  0.3925 -0.2889
63428SOL     OW 7893   6.232   9.646   0.873  0.0800  0.4325  0.0823
63428SOL    HW1 7894   6.232   9.638   0.969 -0.6899 -0.0256  0.0574
63428SOL    HW2 7895   6.168   9.581   0.844  2.7244 -1.8762 -0.9993
63429SOL     OW 7896   5.066  12.935  13.066 -0.6124  0.2944 -0.0315
63429SOL    HW1 7897   5.005  12.870  13.101  0.6215 -0.6710  0.3660
63429SOL    HW2 7898   5.078  12.998  13.136  0.5378 -0.7214  0.7282
63430SOL     OW 7899   0.264   0.557  13.345  0.4166 -0.0079  0.1861
63430SOL    HW1 7900   0.233   0.623  13.283 -0.1618 -1.2129 -0.8503
63430SOL    HW2 7901   0.184   0.515  13.376  0.8505 -1.2298 -0.3235
63431SOL     OW 7902   0.083   7.623   8.047  0.1782 -0.3145  0.2369
63431SOL    HW1 7903   0.149   7.560   8.075 -1.3325 -2.4417 -0.6547
63431SOL    HW2 7904   0.028   7.573   7.986 -0.0243  2.4355 -1.9972
63432SOL     OW 7905   3.583   8.384   4.837  0.1293 -0.1373 -0.3676
63432SOL    HW1 7906   3.655   8.376   4.900  0.9400  0.2007 -1.2229
63432SOL    HW2 7907   3.623   8.364   4.752 -0.6960  0.4211 -0.9071
63433SOL     OW 7908   6.741   5.469  12.030 -0.0784  0.1769  0.2663
63433SOL    HW1 7909   6.825   5.436  11.997 -0.0860 -0.3379  0.7453
63433SOL    HW2 7910   6.762   5.554  12.068 -0.0063  0.6158 -0.7320
63434SOL     OW 7911   5.866  12.049  10.027 -0.4714  0.4504  0.4521
63434SOL    HW1 7912   5.793  11.990  10.008  0.3106 -0.1731 -0.7097
63434SOL    HW2 7913   5.861  12.117   9.961  0.7358 -0.3114 -0.4760
63435SOL     OW 7914   5.565  11.781   0.705  0.2834 -0.0007  0.0654
63435SOL    HW1 7915   5.493  11.844   0.705  0.5754  0.3639  1.3641
63435SOL    HW2 7916   5.642  11.833   0.683  0.4351 -0.0175  0.5534
63436SOL     OW 7917  11.443  13.756   2.487  0.2165  0.2667  0.2594
63436SOL    HW1 7918  11.521  13.700   2.477  1.9926  2.1890  2.2689
63436SOL    HW2 7919  11.393  13.741   2.407  2.1727 -1.7808 -0.7041
63437SOL     OW 7920   9.475   5.419  11.767  0.1807 -0.2269  1.0116
63437SOL    HW1 7921   9.570   5.413  11.767  0.2077  0.1231  2.1328
63437SOL    HW2 7922   9.454   5.463  11.684  1.1801  2.4095  2.0845
63438SOL     OW 7923   4.231   5.773  12.349  0.0934  0.3201 -0.0818
63438SOL    HW1 7924   4.280   5.778  12.431  0.8460  0.5365 -0.5343
63438SOL    HW2 7925   4.176   5.852  12.349 -0.6782 -0.2044  0.6856
63439SOL     OW 7926   2.770   5.501  13.239 -0.3988 -0.6017  0.1854
63439SOL    HW1 7927   2.737   5.445  13.309 -0.5410 -2.4123 -1.2557
63439SOL    HW2 7928   2.730   5.587  13.257  1.2203 -0.3781  3.4627
63440SOL     OW 7929  10.336   5.292   7.162 -0.5700  0.2717  0.4774
63440SOL    HW1 7930  10.302   5.329   7.244 -0.6047  1.6759 -0.1323
63440SOL    HW2 7931  10.302   5.350   7.094  1.0497  0.2886 -0.3688
63441SOL     OW 7932   1.786   2.630   7.092 -0.4086 -0.1902 -0.3190
63441SOL    HW1 7933   1.694   2.614   7.068 -0.5484 -1.1061  0.7342
63441SOL    HW2 7934   1.832   2.551   7.063  0.1354  0.4551 -1.2392
63442SOL     OW 7935  11.916   9.135   6.422 -0.8281 -0.0338 -0.1388
63442SOL    HW1 7936  11.946   9.216   6.381 -1.0693 -0.7232 -1.7187
63442SOL    HW2 7937  11.852   9.099   6.361  0.0196 -1.9467  0.0264
63443SOL     OW 7938   7.942   7.334  12.719  0.3872  0.0438 -0.5309
63443SOL    HW1 7939   7.957   7.316  12.626  0.3452  2.7231 -1.1458
63443SOL    HW2 7940   8.011   7.396  12.742 -0.7338  0.8918  0.6982
63444SOL     OW 7941   9.482  11.304  13.383 -0.0227  0.1651  0.1352
63444SOL    HW1 7942   9.563  11.258  13.405  0.1954 -0.2543 -1.3968
63444SOL    HW2 7943   9.416  11.268  13.442  0.7480 -0.0588  0.8640
63445SOL     OW 7944  11.393   1.630  11.871 -0.3225  0.2004 -0.2559
63445SOL    HW1 7945  11.317   1.584  11.908 -1.6411  0.7819 -2.0865
63445SOL    HW2 7946  11.357   1.711  11.836  0.7586 -0.3098 -2.8143
63446SOL     OW 7947   1.950   0.509   9.093 -0.4229  0.5925  0.2148
63446SOL    HW1 7948   1.963   0.454   9.016  2.3133  0.6239  0.5616
63446SOL    HW2 7949   1.954   0.599   9.059  1.0025  0.6094  0.3838
63447SOL     OW 7950   2.743   5.359  14.016  0.0197  0.5810  0.1218
63447SOL    HW1 7951   2.835   5.332  14.020  0.0053  0.6301  3.2061
63447SOL    HW2 7952   2.694   5.283  14.046 -0.9591  0.6300 -1.2930
63448SOL     OW 7953   5.235  12.789   9.327 -0.1176 -0.2756  0.1642
63448SOL    HW1 7954   5.295  12.739   9.272 -2.7679 -3.7478  0.0656
63448SOL    HW2 7955   5.175  12.831   9.265 -0.7416 -0.9445  0.3035
63449SOL     OW 7956   8.954  12.666   0.517 -0.0359 -0.4993  0.3938
63449SOL    HW1 7957   9.040  12.654   0.476 -0.3956  0.4961 -0.6839
63449SOL    HW2 7958   8.969  12.734   0.583  0.4929 -1.9490  1.8376
63450SOL     OW 7959  13.853   5.371   5.741  0.0425  0.0809 -0.7006
63450SOL    HW1 7960  13.909   5.378   5.818 -0.3098 -0.8700 -0.3463
63450SOL    HW2 7961  13.912   5.343   5.671  0.2029  0.0945 -0.5704
63451SOL     OW 7962   9.863  10.306   8.825 -0.2494 -0.2625 -0.4664
63451SOL    HW1 7963   9.856  10.345   8.911  1.8210 -0.8349  0.0340
63451SOL    HW2 7964   9.789  10.341   8.776  0.1134  2.3123  0.6658
63452SOL     OW 7965   0.677  11.644   3.411  0.6947  0.2397 -0.3033
63452SOL    HW1 7966   0.655  11.680   3.325  1.7590 -0.4228 -0.8751
63452SOL    HW2 7967   0.766  11.675   3.428 -0.0060  1.5474  1.2311
63453SOL     OW 7968   7.921  10.728   7.831  0.4731 -0.1502  0.2682
63453SOL    HW1 7969   7.894  10.742   7.922  0.3120  1.2019  0.0255
63453SOL    HW2 7970   8.015  10.714   7.836  0.6433  1.0046  0.5572
63454SOL     OW 7971  13.858   5.185   4.985 -0.0213 -0.0160  0.4033
63454SOL    HW1 7972  13.930   5.220   5.038  2.0397  0.3875 -2.4272
63454SOL    HW2 7973  13.855   5.243   4.909  0.2171 -3.0522 -2.0964
63455SOL     OW 7974   0.672  13.320   8.189  0.1991  0.1346  0.0965
63455SOL    HW1 7975   0.640  13.340   8.277 -3.3765 -0.1722 -0.9802
63455SOL    HW2 7976   0.676  13.405   8.146  0.2050  0.0949  0.0187
63456SOL     OW 7977   9.244   9.677   4.645  0.2401  0.1275 -0.3620
63456SOL    HW1 7978   9.178   9.662   4.712  0.8271 -1.9301 -0.2006
63456SOL    HW2 7979   9.302   9.601   4.649  1.0722  0.5807 -2.2942
63457SOL     OW 7980  11.052  12.734   4.861  0.1367  0.4784  0.7195
63457SOL    HW1 7981  11.071  12.737   4.954  0.3533  0.1104  0.6869
63457SOL    HW2 7982  11.122  12.681   4.823 -0.0913  0.4125  0.3826
63458SOL     OW 7983   4.466   0.148  11.583 -0.5010 -0.4017 -0.1076
63458SOL    HW1 7984   4.496   0.089  11.652 -1.7300 -0.5771  0.2957
63458SOL    HW2 7985   4.380   0.177  11.612 -0.2043  1.0873 -0.6195
63459SOL     OW 7986  12.999   6.391   2.689 -0.2351  0.2402 -0.6234
63459SOL    HW1 7987  12.924   6.439   2.724  0.7658  1.4980 -0.1225
63459SOL    HW2 7988  13.063   6.391   2.760  1.1417  1.2816 -1.7920
63460SOL     OW 7989  11.452   8.975   1.287  0.4952  0.3500  0.1127
63460SOL    HW1 7990  11.470   8.966   1.381  0.0994  0.1834  0.1724
63460SOL    HW2 7991  11.496   8.901   1.247  0.3650  0.2199  0.2076
63461SOL     OW 7992   2.650   0.094  12.064  0.4377 -0.2950  0.1846
63461SOL    HW1 7993   2.744   0.077  12.063  0.3248 -1.1535 -2.2402
63461SOL    HW2 7994   2.642   0.179  12.108  2.8220  1.8321 -2.9886
63462SOL     OW 7995   2.799   1.771   2.539  0.1921  0.2309 -0.3412
63462SOL    HW1 7996   2.713   1.806   2.514 -0.3653 -0.0411  1.0789
63462SOL    HW2 7997   2.812   1.801   2.629  1.0637 -0.6779 -0.1437
63463SOL     OW 7998  11.346   6.288   8.848  0.6280 -0.4927  0.3905
63463SOL    HW1 7999  11.328   6.239   8.768 -3.9394  1.5477 -0.1520
63463SOL    HW2 8000  11.350   6.222   8.917 -1.6573 -1.9637 -0.7591
63464SOL     OW 8001   5.278  13.609   6.996 -0.0031 -0.0812  0.3033
63464SOL    HW1 8002   5.252  13.699   6.977 -0.1959 -0.3550 -0.8264
63464SOL    HW2 8003   5.233  13.587   7.077 -1.0418  0.3948 -0.1322
63465SOL     OW 8004   5.558  12.072   0.144  0.1396 -0.0708  0.1217
63465SOL    HW1 8005   5.478  12.102   0.101  0.9694 -1.2824 -2.4708
63465SOL    HW2 8006   5.534  11.988   0.183 -0.1518  0.1278  0.3727
63466SOL     OW 8007  12.662  10.300   5.861 -0.5296  0.1515  0.4060
63466SOL    HW1 8008  12.595  10.283   5.795  0.4708 -0.3352 -0.5191
63466SOL    HW2 8009  12.691  10.389   5.844 -0.3666  0.0724  0.2620
63467SOL     OW 8010   8.032  12.110  13.710  0.4264 -0.2744 -0.0315
63467SOL    HW1 8011   8.065  12.106  13.800  0.6624  1.7317  0.0204
63467SOL    HW2 8012   8.110  12.096  13.656  0.7625  0.9780  0.0979
63468SOL     OW 8013   2.422   4.134  10.487 -0.1986  0.6254  0.2703
63468SOL    HW1 8014   2.425   4.076  10.411  0.0592  2.1553 -0.9302
63468SOL    HW2 8015   2.335   4.120  10.524  0.6399 -2.2147  1.4507
63469SOL     OW 8016  10.261   2.397   2.517 -0.4792 -0.3646  0.3667
63469SOL    HW1 8017  10.234   2.489   2.520 -0.7657 -0.4718  1.6076
63469SOL    HW2 8018  10.198   2.355   2.459 -1.0612  0.0059  0.7223
63470SOL     OW 8019  10.995  10.435   5.668 -0.7145 -0.0582  0.0542
63470SOL    HW1 8020  10.909  10.402   5.693 -0.3094 -1.8142 -0.7132
63470SOL    HW2 8021  11.013  10.393   5.584  0.3981  1.2033 -0.3708
63471SOL     OW 8022   9.109   5.153   0.118  0.0413  0.4021 -0.3823
63471SOL    HW1 8023   9.132   5.072   0.072 -1.2534 -0.0322 -0.3086
63471SOL    HW2 8024   9.063   5.123   0.197  1.2354  1.1665  0.6449
63472SOL     OW 8025   9.105   7.891   5.758  0.3817  0.8363 -0.4593
63472SOL    HW1 8026   9.049   7.965   5.735  0.5652  0.6537 -1.5186
63472SOL    HW2 8027   9.193   7.928   5.763  0.2778  0.9861  0.5416
63473SOL     OW 8028   3.063  14.049   7.236 -0.4044  0.1942 -0.2335
63473SOL    HW1 8029   3.003  14.105   7.285 -0.2994  0.7291 -0.7009
63473SOL    HW2 8030   3.076  14.095   7.153 -0.1440 -0.4195 -0.5398
63474SOL     OW 8031  13.473   7.957   1.299 -0.2259 -0.4786 -0.4908
63474SOL    HW1 8032  13.528   8.015   1.247  0.7815 -0.5012  0.5008
63474SOL    HW2 8033  13.495   7.869   1.269  0.1703 -0.4761 -0.2312
63475SOL     OW 8034   1.216   4.443   5.505 -0.3395  0.4073 -0.6209
63475SOL    HW1 8035   1.161   4.509   5.465 -1.2596 -0.5427 -0.9808
63475SOL    HW2 8036   1.304   4.481   5.505 -0.9302  1.8199 -0.3263
63476SOL     OW 8037  14.037  11.280  13.962 -0.0373  0.2727  0.0666
63476SOL    HW1 8038  14.122  11.246  13.991  0.0393 -1.9601 -2.3496
63476SOL    HW2 8039  13.985  11.286  14.042  1.5390 -1.0401  1.2682
63477SOL     OW 8040  10.126   3.037  13.543  0.4931 -0.2550 -0.3216
63477SOL    HW1 8041  10.060   2.987  13.494 -0.4407  0.3360  0.2859
63477SOL    HW2 8042  10.166   2.973  13.602 -2.3997  0.0429  2.2377
63478SOL     OW 8043   9.283  13.343   0.415 -0.6115 -0.1191 -0.0081
63478SOL    HW1 8044   9.316  13.423   0.456 -1.7337 -0.5002  1.7330
63478SOL    HW2 8045   9.361  13.287   0.404 -0.2852 -0.0927  1.8597
63479SOL     OW 8046   8.685   9.871   5.343  0.1374  0.1098 -0.0145
63479SOL    HW1 8047   8.775   9.851   5.370 -0.0311 -0.5988  0.0414
63479SOL    HW2 8048   8.636   9.875   5.425 -0.4678 -2.5147 -0.1483
63480SOL     OW 8049   4.460   1.999  12.791  0.7511 -0.3469 -0.5383
63480SOL    HW1 8050   4.395   2.069  12.787  0.9678 -0.1826 -1.2153
63480SOL    HW2 8051   4.426   1.940  12.859  1.4881  1.2987  1.3535
63481SOL     OW 8052   5.462   3.712   9.033  0.0071  0.4861 -0.6304
63481SOL    HW1 8053   5.368   3.699   9.018 -0.1880  0.4429  0.5549
63481SOL    HW2 8054   5.494   3.628   9.063 -0.1627  1.1987  1.7181
63482SOL     OW 8055   1.524   4.060  13.300 -0.2311 -0.2391  0.2386
63482SOL    HW1 8056   1.472   4.058  13.220 -2.1246 -1.1443  1.4234
63482SOL    HW2 8057   1.474   4.114  13.361  1.2244  0.5173  0.8086
63483SOL     OW 8058   6.707   0.586  13.399  0.0109 -0.0925  0.4744
63483SOL    HW1 8059   6.802   0.592  13.412 -0.1670  0.2739  1.6446
63483SOL    HW2 8060   6.693   0.625  13.313  0.9208 -0.2067  0.2539
63484SOL     OW 8061  13.294  13.829   3.393 -0.1299 -0.2176 -0.0414
63484SOL    HW1 8062  13.220  13.809   3.335  0.6839  0.0517 -1.2061
63484SOL    HW2 8063  13.359  13.762   3.373  0.6449  0.6053 -0.3414
63485SOL     OW 8064  10.790   2.513   9.025  0.0648  0.7007 -0.1948
63485SOL    HW1 8065  10.761   2.422   9.028  0.7106  0.5135  0.5389
63485SOL    HW2 8066  10.739   2.557   9.093  3.1022 -0.1411  2.9124
63486SOL     OW 8067   1.473  12.938   7.225 -0.3627  0.1353 -0.0835
63486SOL    HW1 8068   1.476  12.850   7.262  1.4745 -0.2280 -0.9782
63486SOL    HW2 8069   1.433  12.927   7.139 -0.8727  0.3101  0.1302
63487SOL     OW 8070   0.307  12.234   0.760 -0.1676 -0.2067 -0.0018
63487SOL    HW1 8071   0.244  12.262   0.826  1.6782 -1.4784  2.4997
63487SOL    HW2 8072   0.309  12.138   0.769  0.1721 -0.4150 -1.9364
63488SOL     OW 8073  10.553   7.279  12.918 -0.2082 -0.3677  0.1750
63488SOL    HW1 8074  10.582   7.358  12.964 -0.8522 -0.0006 -0.0235
63488SOL    HW2 8075  10.634   7.234  12.893  0.1701  0.2406  0.2781
63489SOL     OW 8076   1.965   7.975  13.308 -0.3802  0.4735 -0.0527
63489SOL    HW1 8077   2.011   8.032  13.246  0.3903 -2.2339 -2.1460
63489SOL    HW2 8078   2.031   7.955  13.375  0.7233 -1.1828 -1.5578
63490SOL     OW 8079   5.629   8.251   7.431 -0.0619 -0.2047  0.5138
63490SOL    HW1 8080   5.626   8.194   7.355  1.4152 -0.1792  0.4108
63490SOL    HW2 8081   5.651   8.193   7.504 -0.8123 -0.1223  0.8129
63491SOL     OW 8082   2.214  12.554  12.799  0.3520  0.5692  0.1598
63491SOL    HW1 8083   2.211  12.526  12.707  1.5778 -1.4112  0.6602
63491SOL    HW2 8084   2.304  12.583  12.812  0.6354 -0.7059  1.1330
63492SOL     OW 8085  11.733   1.964   8.760  0.0071  0.2580  0.6098
63492SOL    HW1 8086  11.737   2.052   8.724 -0.0635  0.4774  1.1242
63492SOL    HW2 8087  11.656   1.924   8.719  1.3144 -0.3756 -1.3809
63493SOL     OW 8088   2.169  12.073   0.972  0.2971 -0.2478 -0.3296
63493SOL    HW1 8089   2.121  12.018   0.911  1.7653  0.0922 -1.8289
63493SOL    HW2 8090   2.242  12.019   1.003 -0.1683 -0.2627  0.8193
63494SOL     OW 8091  11.052   0.036  13.313  1.2149 -0.2246  1.1025
63494SOL    HW1 8092  11.107   0.104  13.274  0.7690 -0.3336  0.2729
63494SOL    HW2 8093  11.113  -0.020  13.361  1.5818  0.7971  1.8610
63495SOL     OW 8094  12.323   0.822   8.486  0.0051 -0.2953  0.3077
63495SOL    HW1 8095  12.325   0.839   8.580 -2.2838 -1.8621  0.7035
63495SOL    HW2 8096  12.233   0.838   8.460  0.6881  0.6008 -1.7703
63496SOL     OW 8097   7.604  12.662  11.229 -0.0783  0.1329  0.0259
63496SOL    HW1 8098   7.672  12.709  11.276 -1.1506  1.8774 -0.1024
63496SOL    HW2 8099   7.617  12.685  11.137 -1.1049  0.8888  0.0484
63497SOL     OW 8100   2.753   8.537   0.378 -0.4405 -0.5458 -0.0301
63497SOL    HW1 8101   2.735   8.503   0.465 -0.7024  0.2642  0.2445
63497SOL    HW2 8102   2.687   8.606   0.365  0.3277  0.1416 -0.3800
63498SOL     OW 8103   8.823  13.174   4.043 -0.9465  0.1145 -0.2208
63498SOL    HW1 8104   8.915  13.172   4.018 -0.8927  0.5670 -0.0619
63498SOL    HW2 8105   8.823  13.164   4.138 -1.1299 -1.1442 -0.3359
63499SOL     OW 8106   8.707   9.451  13.084 -0.5660 -0.0680 -0.4308
63499SOL    HW1 8107   8.646   9.524  13.076 -0.7812 -0.2538 -0.4886
63499SOL    HW2 8108   8.786   9.481  13.039 -0.3446  0.4667  0.2946
63500SOL     OW 8109   5.878   4.817   2.725  0.3828 -0.1628  0.2882
63500SOL    HW1 8110   5.783   4.814   2.712  0.5059  0.5715 -1.0178
63500SOL    HW2 8111   5.890   4.804   2.819 -0.8372 -3.0194  0.1637
63501SOL     OW 8112   8.396   1.429   5.462  0.0762  0.0418 -0.6908
63501SOL    HW1 8113   8.379   1.480   5.383 -2.1081  1.3966  0.5634
63501SOL    HW2 8114   8.330   1.458   5.524  0.9349 -1.8853  1.2490
63502SOL     OW 8115   3.608  13.838   0.068  0.3962  0.1419  0.1152
63502SOL    HW1 8116   3.676  13.781   0.103  1.7518  1.5248 -0.1878
63502SOL    HW2 8117   3.535  13.779   0.049  1.2303 -1.2698  1.1073
63503SOL     OW 8118   7.376   6.748   1.663 -0.4356  0.1237 -0.0372
63503SOL    HW1 8119   7.435   6.675   1.684 -1.2682 -0.4530  0.3826
63503SOL    HW2 8120   7.427   6.805   1.606  1.2113  0.6863  1.8989
63504SOL     OW 8121   4.132   3.150  13.743 -0.5850 -0.0262 -0.0799
63504SOL    HW1 8122   4.119   3.116  13.654  0.5464 -0.3382 -0.1436
63504SOL    HW2 8123   4.168   3.238  13.730 -0.3755 -0.0889  0.0626
63505SOL     OW 8124   9.897  11.422   2.046  0.6711 -0.0598  0.0450
63505SOL    HW1 8125   9.813  11.393   2.082 -0.6743  2.5017 -0.8203
63505SOL    HW2 8126   9.910  11.365   1.969 -0.9081  0.2773 -0.5162
63506SOL     OW 8127  12.047  12.517   5.332 -0.1105  0.5859 -0.0822
63506SOL    HW1 8128  12.119  12.581   5.338  0.4276  0.0167 -0.3393
63506SOL    HW2 8129  12.091  12.432   5.332 -0.7370  0.2519 -1.1812
63507SOL     OW 8130   3.114   2.991   7.964 -0.3257  0.1670  0.4730
63507SOL    HW1 8131   3.090   3.059   8.027 -1.6607 -0.6348  0.8552
63507SOL    HW2 8132   3.033   2.943   7.947  0.2127 -0.2578 -1.1237
63508SOL     OW 8133   9.338   7.340  13.474  0.6632  0.3282  0.6129
63508SOL    HW1 8134   9.268   7.381  13.423  1.1028 -0.2539 -0.4952
63508SOL    HW2 8135   9.321   7.246  13.466  0.5597  0.2303  1.8237
63509SOL     OW 8136   7.861  10.987   3.020 -0.0179 -0.2705 -0.4594
63509SOL    HW1 8137   7.904  11.029   2.945 -0.0351  2.5376  0.9722
63509SOL    HW2 8138   7.768  10.990   2.998 -0.0023  0.2781 -0.4574
63510SOL     OW 8139   1.582   2.380   0.604 -0.1081  0.0912  0.4204
63510SOL    HW1 8140   1.518   2.328   0.653 -0.2157  1.3240  1.6492
63510SOL    HW2 8141   1.542   2.392   0.517  0.3577 -2.6330 -0.2580
63511SOL     OW 8142   2.164   5.484   3.078 -0.2076  0.2898 -0.0394
63511SOL    HW1 8143   2.070   5.479   3.093 -0.2716  0.3653 -0.4059
63511SOL    HW2 8144   2.173   5.499   2.984  0.1749  0.1076 -0.0361
63512SOL     OW 8145   1.065  10.585   3.367  0.0620  0.3033  0.3351
63512SOL    HW1 8146   1.106  10.499   3.373 -0.3539  0.0305 -0.5620
63512SOL    HW2 8147   1.085  10.627   3.451  0.2501 -0.6689  0.7914
63513SOL     OW 8148   2.006  13.099   1.164 -0.5628 -0.3948  0.5594
63513SOL    HW1 8149   1.941  13.091   1.234  0.2442 -0.4379  1.3171
63513SOL    HW2 8150   1.990  13.023   1.108 -2.7254  0.8409 -0.6261
63514SOL     OW 8151   7.669   5.281   7.145  0.3616 -0.2219 -0.1946
63514SOL    HW1 8152   7.715   5.197   7.137  0.4768 -0.1533 -0.2529
63514SOL    HW2 8153   7.699   5.332   7.069  0.4776 -0.0394 -0.0284
63515SOL     OW 8154  12.038  13.435   6.184 -0.5950  0.5599 -0.3800
63515SOL    HW1 8155  12.030  13.377   6.109 -0.0388  0.7456 -0.5845
63515SOL    HW2 8156  12.021  13.379   6.260 -2.9477  0.7146 -0.6976
63516SOL     OW 8157  13.836  13.150  13.138 -0.6040 -0.6394  0.1784
63516SOL    HW1 8158  13.881  13.134  13.055 -0.8240  0.3590 -0.1477
63516SOL    HW2 8159  13.836  13.245  13.148 -0.7512 -0.7360  1.2355
63517SOL     OW 8160   2.876   9.014   7.653 -0.5443 -0.1050  0.0209
63517SOL    HW1 8161   2.955   9.041   7.607 -0.5915 -0.7093 -0.4402
63517SOL    HW2 8162   2.832   8.954   7.591 -0.8341 -0.5824  0.6765
63518SOL     OW 8163  12.179   2.289   3.200 -0.5179  0.3091  0.0893
63518SOL    HW1 8164  12.120   2.293   3.125 -1.6122 -0.9608  0.8207
63518SOL    HW2 8165  12.127   2.323   3.273 -0.4301 -0.9829  0.7836
63519SOL     OW 8166   7.429  12.231  10.768 -0.8357  0.4151  0.0031
63519SOL    HW1 8167   7.421  12.297  10.836  0.0500  1.4002 -0.7983
63519SOL    HW2 8168   7.463  12.154  10.812 -0.5100  0.9590  0.7089
63520SOL     OW 8169   1.284   3.683  13.667 -0.2708  0.2017 -0.7566
63520SOL    HW1 8170   1.195   3.688  13.633 -1.0167  1.5338  1.2370
63520SOL    HW2 8171   1.275   3.692  13.761  2.0290  1.0618 -0.5420
63521SOL     OW 8172   2.574   7.547   3.590 -0.2295  0.2681  0.4208
63521SOL    HW1 8173   2.641   7.513   3.530 -1.3836  0.5404 -1.0976
63521SOL    HW2 8174   2.620   7.610   3.645  0.5596  1.4207 -1.4598
63522SOL     OW 8175  12.831  13.131   6.588  0.7000  0.0813  0.1703
63522SOL    HW1 8176  12.740  13.104   6.599  0.0118  1.6443 -1.4321
63522SOL    HW2 8177  12.877  13.050   6.564 -0.1892 -0.7498  1.1447
63523SOL     OW 8178  10.671  12.333  12.857  0.0153 -0.4622  0.2509
63523SOL    HW1 8179  10.666  12.394  12.784 -1.6677 -0.0472  0.6752
63523SOL    HW2 8180  10.597  12.356  12.913  1.5979 -0.3554  2.4373
63524SOL     OW 8181   8.883  12.567   7.215  0.1786 -0.3968 -0.3475
63524SOL    HW1 8182   8.942  12.593   7.286  0.1965 -1.7523  0.1733
63524SOL    HW2 8183   8.822  12.506   7.256 -0.8721  0.0759 -1.1421
63525SOL     OW 8184  13.579   0.385   1.959 -0.4250  0.2481 -0.5575
63525SOL    HW1 8185  13.485   0.395   1.974 -0.6747 -2.2350 -0.1212
63525SOL    HW2 8186  13.586   0.330   1.881  0.7097  1.3025 -1.2324
63526SOL     OW 8187  11.959   2.205  12.438 -0.2143 -0.1218 -0.0704
63526SOL    HW1 8188  11.897   2.184  12.368 -1.2082 -1.0289  1.0489
63526SOL    HW2 8189  12.021   2.267  12.398 -1.5450  0.4251 -1.3537
63527SOL     OW 8190  10.329   0.321   8.000  0.3132  0.1545  0.4808
63527SOL    HW1 8191  10.326   0.259   7.927 -0.6474 -1.6966  1.9911
63527SOL    HW2 8192  10.376   0.275   8.069 -0.9313  0.8423  1.8667
63528SOL     OW 8193  10.724   2.451   4.733  0.2428  0.1390 -0.3331
63528SOL    HW1 8194  10.813   2.476   4.710  0.0502  1.2856  0.1384
63528SOL    HW2 8195  10.682   2.532   4.763 -0.1052 -0.8958  2.2127
63529SOL     OW 8196   4.223  10.596   6.279  0.1169  0.6595 -0.0259
63529SOL    HW1 8197   4.274  10.648   6.341 -0.9848  0.5490  1.0173
63529SOL    HW2 8198   4.132  10.615   6.302 -0.3396 -1.9476  0.5928
63530SOL     OW 8199   0.297   0.790  11.305 -0.3493  0.5947  0.0390
63530SOL    HW1 8200   0.369   0.756  11.357 -0.4140  0.7969  0.2621
63530SOL    HW2 8201   0.227   0.726  11.315  0.6083 -0.9297 -2.1948
63531SOL     OW 8202   2.373  11.878  10.703 -0.2569 -0.2973 -0.2261
63531SOL    HW1 8203   2.393  11.971  10.718 -1.0869 -0.1885  0.3109
63531SOL    HW2 8204   2.307  11.857  10.770  0.1704 -1.3688 -0.1224
63532SOL     OW 8205   9.012   2.882   4.070  0.2676  0.3623  0.6003
63532SOL    HW1 8206   8.936   2.939   4.064 -0.5977 -0.6553  1.5705
63532SOL    HW2 8207   8.982   2.798   4.034  2.5424  1.3168 -4.4532
63533SOL     OW 8208  13.740   1.195   3.748 -0.5756 -0.5909 -0.1696
63533SOL    HW1 8209  13.669   1.259   3.737  1.4142  1.7441 -0.3158
63533SOL    HW2 8210  13.797   1.209   3.672  0.8389 -1.3196  0.7224
63534SOL     OW 8211   0.274  11.076   4.391 -0.2319  0.4268  0.3489
63534SOL    HW1 8212   0.334  11.079   4.466 -1.7964 -0.8227  1.7198
63534SOL    HW2 8213   0.313  11.011   4.332  1.1262  1.5829 -0.0822
63535SOL     OW 8214   5.507  12.908   6.122 -0.3016  0.2637 -0.3790
63535SOL    HW1 8215   5.501  12.888   6.029 -1.7459  0.2723 -0.3225
63535SOL    HW2 8216   5.474  12.997   6.130  1.4807  0.9243 -0.0468
63536SOL     OW 8217   0.237   8.808  10.421  0.4087  0.0402 -0.4097
63536SOL    HW1 8218   0.279   8.881  10.376 -1.6088  0.9438 -0.9495
63536SOL    HW2 8219   0.260   8.820  10.513  2.4953 -0.3673 -0.8416
63537SOL     OW 8220   3.209   6.688   6.083 -0.2628  0.1671  0.6790
63537SOL    HW1 8221   3.220   6.743   6.006 -1.6489 -0.8676 -0.3062
63537SOL    HW2 8222   3.271   6.723   6.147  2.0766  0.1241 -1.4029
63538SOL     OW 8223   1.500   7.093   7.845  0.5911 -0.5026  0.1348
63538SOL    HW1 8224   1.584   7.119   7.806  1.0029 -0.3367  1.1025
63538SOL    HW2 8225   1.468   7.173   7.887 -0.3972 -0.3843 -0.8126
63539SOL     OW 8226  11.267   9.118   4.655 -0.1443 -0.3391  0.3876
63539SOL    HW1 8227  11.348   9.121   4.604 -1.1854 -3.5149 -1.7673
63539SOL    HW2 8228  11.281   9.046   4.717 -0.5879  0.4918  1.4874
63540SOL     OW 8229   0.588   8.621   1.647 -0.1551 -0.2269  0.2239
63540SOL    HW1 8230   0.642   8.653   1.575 -0.9962 -1.3048 -0.9403
63540SOL    HW2 8231   0.576   8.696   1.705  1.0921  0.4840 -0.4230
63541SOL     OW 8232   9.092  12.283  11.251 -0.1568 -0.2930 -0.0879
63541SOL    HW1 8233   9.053  12.286  11.164  0.3702  0.1327 -0.3236
63541SOL    HW2 8234   9.155  12.356  11.251 -0.8299  0.3246  0.9782
63542SOL     OW 8235   4.796   1.193  10.515  0.6035 -0.0674 -0.1878
63542SOL    HW1 8236   4.833   1.111  10.482  0.1687 -0.4905  0.3395
63542SOL    HW2 8237   4.839   1.205  10.600  0.8872  0.4093 -0.4015
63543SOL     OW 8238   5.474  12.023   4.893 -0.1602  0.0997 -0.0232
63543SOL    HW1 8239   5.550  11.970   4.870 -1.2867 -1.5290 -0.2597
63543SOL    HW2 8240   5.477  12.098   4.834  0.4065 -0.7622 -1.1185
63544SOL     OW 8241   4.049  13.437  13.500  0.4003  0.1914 -0.0933
63544SOL    HW1 8242   3.990  13.362  13.498 -0.1900  0.5978  1.1518
63544SOL    HW2 8243   4.128  13.407  13.454  0.1611 -1.1780  0.3399
63545SOL     OW 8244   8.854   9.476   2.353  0.4588 -0.9017  0.0268
63545SOL    HW1 8245   8.897   9.549   2.309  0.0172  0.1626  1.3034
63545SOL    HW2 8246   8.911   9.454   2.426  0.0139 -1.0723  0.3249
63546SOL     OW 8247   7.722   7.271   1.352 -0.3902  0.3110  0.5042
63546SOL    HW1 8248   7.779   7.209   1.398 -0.9583 -0.3430  0.3483
63546SOL    HW2 8249   7.688   7.327   1.421  0.3843  0.6720  0.6092
63547SOL     OW 8250  13.195   5.023   4.638  0.0881  0.5408 -0.2021
63547SOL    HW1 8251  13.194   5.107   4.685 -1.0409  0.3497  0.1350
63547SOL    HW2 8252  13.106   4.989   4.647  0.7495 -1.1120  0.4080
63548SOL     OW 8253   8.877   4.372  12.181  0.0351 -0.2486 -0.3295
63548SOL    HW1 8254   8.859   4.293  12.232  0.8383  0.4952  1.1680
63548SOL    HW2 8255   8.962   4.403  12.213  0.2503  0.6316 -1.6584
63549SOL     OW 8256   9.003   5.812  12.455 -0.3069  0.7022 -0.3235
63549SOL    HW1 8257   8.966   5.723  12.453  0.7112  0.2107  0.8416
63549SOL    HW2 8258   8.970   5.850  12.536 -0.3891  1.2356 -0.6040
63550SOL     OW 8259  10.812   2.062  12.190  0.6721 -0.2777 -0.4387
63550SOL    HW1 8260  10.887   2.087  12.136  3.4110 -1.7202  2.4057
63550SOL    HW2 8261  10.850   2.037  12.274 -3.2275  1.1671  2.0461
63551SOL     OW 8262   1.389  11.210   2.407 -0.5924  0.1225 -0.1296
63551SOL    HW1 8263   1.337  11.288   2.425  0.7108  0.6576  1.5405
63551SOL    HW2 8264   1.331  11.137   2.430 -0.4583  0.7182  2.3233
63552SOL     OW 8265   3.421   4.375   8.851 -0.0833 -0.0510  0.1387
63552SOL    HW1 8266   3.487   4.305   8.845  0.1430  0.2383 -0.9942
63552SOL    HW2 8267   3.417   4.397   8.944  1.9662  0.4420  0.1506
63553SOL     OW 8268   1.120   3.473   6.866 -0.3049  0.0742 -0.7870
63553SOL    HW1 8269   1.113   3.520   6.949 -1.3542  0.2287 -0.9465
63553SOL    HW2 8270   1.212   3.449   6.859 -0.4340 -1.0789  1.0334
63554SOL     OW 8271   8.398   2.886   5.708  0.7260 -0.0374 -0.2640
63554SOL    HW1 8272   8.327   2.860   5.649  1.1655 -0.9072 -0.4263
63554SOL    HW2 8273   8.357   2.948   5.769 -0.5451 -1.5563  0.5081
63555SOL     OW 8274  12.545  10.987   9.640 -0.5808  0.0149  0.0091
63555SOL    HW1 8275  12.568  10.998   9.732 -0.1241  0.4708 -0.1516
63555SOL    HW2 8276  12.554  11.075   9.603  0.8942 -0.4512 -0.8322
63556SOL     OW 8277   6.896  13.417   7.331 -0.4764  0.3738 -0.1568
63556SOL    HW1 8278   6.847  13.481   7.382 -2.6632 -0.9680 -0.4731
63556SOL    HW2 8279   6.857  13.333   7.353 -0.8938 -0.3660 -3.2654
63557SOL     OW 8280  12.579   1.059   4.739 -0.1903  0.5737 -0.1788
63557SOL    HW1 8281  12.621   1.028   4.659  0.7571  2.3717 -0.4383
63557SOL    HW2 8282  12.619   1.009   4.810  1.8123  1.6252 -0.5061
63558SOL     OW 8283   5.872  14.076   9.991 -0.2122 -0.0084 -0.2964
63558SOL    HW1 8284   5.885  14.169  10.010  1.0204 -0.2839  0.3268
63558SOL    HW2 8285   5.961  14.041   9.981 -0.6350 -1.2552  0.1540
63559SOL     OW 8286  13.183   4.655   9.442 -0.0171  0.4699  0.1512
63559SOL    HW1 8287  13.249   4.721   9.466  0.8555 -0.5816  0.7658
63559SOL    HW2 8288  13.228   4.598   9.380 -0.2326 -0.4314  0.7982
63560SOL     OW 8289   6.557  12.117   3.403 -0.2006  0.4744 -0.6235
63560SOL    HW1 8290   6.639  12.069   3.408 -0.2520  0.4194 -0.2606
63560SOL    HW2 8291   6.568  12.190   3.464 -1.6752 -1.4388  2.1743
63561SOL     OW 8292  13.143  14.003   5.472 -0.1799  0.5660 -0.5804
63561SOL    HW1 8293  13.146  13.948   5.393  0.1369  0.3717 -0.4346
63561SOL    HW2 8294  13.076  14.069   5.452 -0.5546  0.1408 -0.7650
63562SOL     OW 8295   7.473   3.748   0.751  0.2419  0.0800  0.1302
63562SOL    HW1 8296   7.460   3.756   0.656  0.4444  0.4237  0.1280
63562SOL    HW2 8297   7.388   3.723   0.785  0.1826 -0.1099 -0.1515
63563SOL     OW 8298  10.628   4.087   2.715 -0.2546  0.4073  0.3533
63563SOL    HW1 8299  10.570   4.017   2.687  0.1811  0.0043  0.4449
63563SOL    HW2 8300  10.571   4.149   2.760 -0.4285 -0.5851  1.5473
63564SOL     OW 8301  10.746   7.968  13.927  0.0137 -0.3142 -0.3748
63564SOL    HW1 8302  10.707   7.899  13.873  1.9463 -1.8223  0.0104
63564SOL    HW2 8303  10.682   7.983  13.997 -0.6858 -1.3599 -0.7640
63565SOL     OW 8304   0.261  11.599   9.531  0.1490 -0.2103  0.6881
63565SOL    HW1 8305   0.355  11.610   9.545  0.3935 -2.3067  1.0267
63565SOL    HW2 8306   0.249  11.612   9.437  0.4467  1.9010  0.9040
63566SOL     OW 8307  10.771   2.876   6.128 -0.0466 -0.0880 -0.0640
63566SOL    HW1 8308  10.849   2.929   6.109 -0.3512 -0.3530 -2.2825
63566SOL    HW2 8309  10.700   2.919   6.082 -0.8261 -1.0059  0.2399
63567SOL     OW 8310   2.347  12.197   4.684  0.1643 -0.3356  0.1036
63567SOL    HW1 8311   2.286  12.210   4.756  0.5276  0.5085  0.2729
63567SOL    HW2 8312   2.316  12.256   4.615  0.6308 -0.0928  0.0963
63568SOL     OW 8313   0.050  11.774   8.802 -0.1929  0.0825  0.1932
63568SOL    HW1 8314   0.043  11.850   8.860 -0.4682  1.8245 -2.0247
63568SOL    HW2 8315  -0.012  11.792   8.731  0.9679 -1.4207 -1.2712
63569SOL     OW 8316   3.960   9.503   9.511 -0.0353 -0.4464  0.0386
63569SOL    HW1 8317   4.005   9.587   9.499 -0.5876 -0.1475  0.0219
63569SOL    HW2 8318   3.923   9.484   9.425  2.3407 -2.0673 -0.7357
63570SOL     OW 8319  12.157   7.794   1.867  0.3609  0.1886 -0.2263
63570SOL    HW1 8320  12.209   7.813   1.945 -0.7228  2.6591 -0.0261
63570SOL    HW2 8321  12.218   7.801   1.794  0.6954  1.3773  0.1476
63571SOL     OW 8322  10.784   2.123  10.720 -0.3136  0.1182 -0.5702
63571SOL    HW1 8323  10.706   2.071  10.737  0.6283 -1.1168  0.1398
63571SOL    HW2 8324  10.823   2.136  10.807  2.3129 -2.6147 -1.1898
63572SOL     OW 8325   1.202   5.182   6.512 -0.1834 -0.3829  0.3176
63572SOL    HW1 8326   1.188   5.268   6.472 -1.6564 -0.4660  0.5954
63572SOL    HW2 8327   1.296   5.177   6.526  0.2344  0.1724 -1.9420
63573SOL     OW 8328  13.611  13.686   2.569 -0.3682 -0.1067  0.0943
63573SOL    HW1 8329  13.646  13.765   2.527 -2.3409  0.9235  0.2517
63573SOL    HW2 8330  13.586  13.716   2.656 -0.2707 -1.1641  0.4888
63574SOL     OW 8331   4.261  10.735   2.631 -0.1693 -0.2936 -0.0084
63574SOL    HW1 8332   4.311  10.657   2.656  0.8852  0.0594 -0.9736
63574SOL    HW2 8333   4.243  10.722   2.538 -1.2435 -0.0484  0.1503
63575SOL     OW 8334  12.698  12.665   9.487 -0.1711 -0.2436  0.4096
63575SOL    HW1 8335  12.618  12.653   9.435 -1.1812  0.5184  1.7158
63575SOL    HW2 8336  12.743  12.738   9.445 -1.5913  1.1784  1.2576
63576SOL     OW 8337   1.059  12.053  10.055 -0.0674 -0.1463  0.4349
63576SOL    HW1 8338   1.012  12.011  10.127 -0.0375  0.9748  1.1252
63576SOL    HW2 8339   1.056  12.146  10.075 -1.6268  0.4065 -1.9318
63577SOL     OW 8340   1.867  13.195   0.055  0.0282  0.0381  0.3927
63577SOL    HW1 8341   1.936  13.261   0.056  1.1905 -1.1188 -0.4935
63577SOL    HW2 8342   1.847  13.180   0.148  0.4244  0.9191  0.6299
63578SOL     OW 8343   3.536   8.174   5.446  0.1916  0.9830  0.2562
63578SOL    HW1 8344   3.550   8.226   5.525  3.3607  2.4972 -1.1056
63578SOL    HW2 8345   3.555   8.235   5.374 -0.4532 -0.9073 -1.6061
63579SOL     OW 8346   1.972   0.572   7.418  0.1968 -0.3979  0.3551
63579SOL    HW1 8347   1.965   0.516   7.341 -2.2410  1.4118 -0.8665
63579SOL    HW2 8348   1.952   0.660   7.386  2.0538  0.9456  2.5271
63580SOL     OW 8349   8.768  12.898  10.703  0.2240  0.0354 -0.1688
63580SOL    HW1 8350   8.800  12.815  10.737  1.8375  0.4413 -0.6020
63580SOL    HW2 8351   8.686  12.914  10.750 -0.3441 -1.9851 -0.3943
63581SOL     OW 8352   1.072   1.697   2.752  0.2694  0.4808 -0.0158
63581SOL    HW1 8353   1.041   1.784   2.728 -1.1759 -0.6319 -2.5420
63581SOL    HW2 8354   1.135   1.674   2.683 -0.5728 -1.0874 -0.3053
63582SOL     OW 8355  13.601  12.713  13.972  0.5289 -0.2141 -0.1089
63582SOL    HW1 8356  13.612  12.661  13.892  1.8333  0.6116 -0.4810
63582SOL    HW2 8357  13.684  12.703  14.018  0.9819  1.8649 -0.3981
63583SOL     OW 8358   4.079   1.701  10.740  0.3693 -0.2202 -0.5323
63583SOL    HW1 8359   4.145   1.767  10.720 -0.2789  0.5371 -0.2183
63583SOL    HW2 8360   4.111   1.657  10.819 -0.2844  1.2718  0.6150
63584SOL     OW 8361  13.513   3.585   4.676  0.5857 -0.1961  0.3642
63584SOL    HW1 8362  13.514   3.580   4.772 -1.4560  0.4686  0.4687
63584SOL    HW2 8363  13.577   3.652   4.655 -0.1053  0.8284  1.4028
63585SOL     OW 8364  10.905   6.265   0.906 -0.7989  0.2383 -0.5916
63585SOL    HW1 8365  10.895   6.271   0.811  2.3259 -1.5902 -1.1959
63585SOL    HW2 8366  10.900   6.172   0.925  0.7328  0.3701  0.6648
63586SOL     OW 8367   4.091  11.317  10.121 -0.2099 -0.2834  0.3870
63586SOL    HW1 8368   4.107  11.239  10.067 -0.6816  0.1455 -0.3848
63586SOL    HW2 8369   4.093  11.390  10.059 -0.4958  0.2465  0.9924
63587SOL     OW 8370   8.482  12.035   0.859  0.3267  0.1079  0.0128
63587SOL    HW1 8371   8.522  11.954   0.827  2.2340  0.9366  0.1413
63587SOL    HW2 8372   8.408  12.050   0.800  2.1232  0.1639 -2.4023
63588SOL     OW 8373   8.511  12.232  13.446  0.3836 -0.2194  0.1168
63588SOL    HW1 8374   8.565  12.157  13.472  0.9493  0.1578  0.0365
63588SOL    HW2 8375   8.531  12.245  13.353  0.3868  0.1137  0.1635
63589SOL     OW 8376  13.552   0.294   0.564 -0.1035 -0.4927  0.8347
63589SOL    HW1 8377  13.459   0.295   0.541 -0.3107  0.1143  1.6605
63589SOL    HW2 8378  13.554   0.283   0.659  0.6722 -0.4124  0.8393
63590SOL     OW 8379   0.239  12.231   6.081  0.4072  0.6060  0.1454
63590SOL    HW1 8380   0.210  12.198   6.166 -2.9966  0.0570 -1.0680
63590SOL    HW2 8381   0.237  12.326   6.090  1.1307  0.5522  0.9594
63591SOL     OW 8382   6.463   2.498   2.636 -0.3834 -0.0147 -0.7710
63591SOL    HW1 8383   6.478   2.404   2.648 -1.4122 -0.2252 -1.0061
63591SOL    HW2 8384   6.409   2.523   2.711 -0.3283  0.3345 -0.8461
63592SOL     OW 8385   1.920   6.761  10.327  0.0431  0.3455  0.4390
63592SOL    HW1 8386   1.956   6.698  10.264 -0.1441  0.8714 -0.2035
63592SOL    HW2 8387   1.841   6.794  10.285 -1.4089 -1.0088  1.9561
63593SOL     OW 8388   4.467   2.279   5.519  0.3189 -0.1386 -0.1804
63593SOL    HW1 8389   4.385   2.321   5.545  0.3369 -0.2310  0.0300
63593SOL    HW2 8390   4.469   2.286   5.424 -0.7218 -1.5781 -0.3497
63594SOL     OW 8391   8.680   5.268   8.904 -0.3351 -0.4239  0.7369
63594SOL    HW1 8392   8.656   5.176   8.916  2.0039 -1.0239  1.2010
63594SOL    HW2 8393   8.605   5.306   8.858 -1.0230 -2.7512 -0.2202
63595SOL     OW 8394   7.667   2.620  11.474 -0.3860  0.5641  0.4494
63595SOL    HW1 8395   7.682   2.706  11.512 -0.2744  1.3541 -1.2734
63595SOL    HW2 8396   7.738   2.609  11.412 -0.7228 -0.5282  0.2393
63596SOL     OW 8397   2.228   9.337   6.289 -0.2415 -0.7406 -0.5970
63596SOL    HW1 8398   2.152   9.380   6.249 -0.6543  0.6297  1.4795
63596SOL    HW2 8399   2.205   9.244   6.289 -1.0630 -0.5623 -1.7217
63597SOL     OW 8400   7.242   3.727   4.614 -0.0658  0.2369 -0.2668
63597SOL    HW1 8401   7.148   3.720   4.632 -0.3463  0.4301 -1.5873
63597SOL    HW2 8402   7.251   3.808   4.564  0.7483 -0.0022 -0.5240
63598SOL     OW 8403   1.806  11.623   8.060  0.4563 -0.0217 -0.1109
63598SOL    HW1 8404   1.756  11.642   7.981 -3.1070  0.8620  2.1336
63598SOL    HW2 8405   1.769  11.542   8.094  1.2489  0.1113  1.1575
63599SOL     OW 8406   6.959   6.582   2.764 -0.1463 -0.5577  0.5737
63599SOL    HW1 8407   6.921   6.503   2.727 -1.1416  0.4320 -0.5950
63599SOL    HW2 8408   6.967   6.642   2.690  2.9364 -0.3839  0.9361
63600SOL     OW 8409   2.006  10.924   8.163 -0.1972 -0.0775 -0.4981
63600SOL    HW1 8410   2.091  10.940   8.121  0.3273 -1.4564 -0.0096
63600SOL    HW2 8411   1.973  10.845   8.121 -1.4293  0.6120 -0.9117
63601SOL     OW 8412   5.848  12.367   5.332  0.4385 -0.1555 -0.3773
63601SOL    HW1 8413   5.942  12.357   5.315  0.5544 -1.7342  0.9457
63601SOL    HW2 8414   5.839  12.355   5.426 -1.0297  0.6798 -0.3834
63602SOL     OW 8415  13.055   2.908  13.499 -0.5656 -0.7459 -0.2879
63602SOL    HW1 8416  13.098   2.868  13.424 -1.6716  1.4789 -2.2213
63602SOL    HW2 8417  12.997   2.839  13.532  0.1285 -1.8587 -1.3043
63603SOL     OW 8418   3.348  10.637   2.749 -0.4610  0.3827 -0.3903
63603SOL    HW1 8419   3.331  10.711   2.807  2.4007 -0.7769  2.1899
63603SOL    HW2 8420   3.404  10.674   2.680 -1.7647  1.2137 -1.0616
63604SOL     OW 8421   1.706   2.971   0.839  0.2683 -0.0866  0.0381
63604SOL    HW1 8422   1.791   2.985   0.797 -0.2677 -1.2281 -1.5240
63604SOL    HW2 8423   1.687   2.878   0.824 -0.6031 -0.2116  1.6699
63605SOL     OW 8424   4.238   9.739   1.358  0.1419  0.5942 -0.4707
63605SOL    HW1 8425   4.325   9.778   1.358  1.1253 -1.4630 -1.5954
63605SOL    HW2 8426   4.250   9.653   1.318 -2.3439  0.0924 -0.2882
63606SOL     OW 8427   2.940   2.244   0.763  0.3036 -0.5135  0.1763
63606SOL    HW1 8428   3.008   2.195   0.809 -1.4526 -1.1107  2.3367
63606SOL    HW2 8429   2.876   2.266   0.832 -2.3007 -1.0754 -1.8882
63607SOL     OW 8430  11.082   2.508  13.998  0.2938 -0.4777 -0.0440
63607SOL    HW1 8431  10.996   2.481  13.966 -0.2129 -1.5301  1.9919
63607SOL    HW2 8432  11.081   2.603  13.992 -0.4115 -0.5572 -1.4646
63608SOL     OW 8433   2.607  12.337   6.238  0.1898 -0.1155 -0.2444
63608SOL    HW1 8434   2.658  12.419   6.240  2.4637 -1.4503  0.6193
63608SOL    HW2 8435   2.641  12.290   6.161  0.0071 -0.8932  0.1470
63609SOL     OW 8436   4.711  12.315   6.134  0.2094  0.1688 -0.0844
63609SOL    HW1 8437   4.635  12.278   6.089 -0.4255  0.5669  0.6388
63609SOL    HW2 8438   4.785  12.264   6.101 -0.1390  0.7755 -1.9696
63610SOL     OW 8439  10.736   6.910  13.441 -0.3396  0.2893  0.7234
63610SOL    HW1 8440  10.737   6.911  13.536 -0.5571  0.1135  0.7289
63610SOL    HW2 8441  10.662   6.853  13.418  1.4464 -2.0851  0.4641
63611SOL     OW 8442   5.700   3.778   8.090  0.6564  0.1639 -0.3096
63611SOL    HW1 8443   5.780   3.810   8.048  0.2393  0.3842 -0.9560
63611SOL    HW2 8444   5.629   3.816   8.038  0.0938 -2.7911 -1.9507
63612SOL     OW 8445   0.920   6.453  13.099  0.2699 -0.4771 -0.1728
63612SOL    HW1 8446   0.979   6.377  13.099  1.0215  0.0923 -0.7244
63612SOL    HW2 8447   0.837   6.418  13.133  1.3263 -0.9461  2.1278
63613SOL     OW 8448  12.608  13.748   0.960 -0.7070  0.0023  0.0248
63613SOL    HW1 8449  12.660  13.751   0.880  0.9951 -0.3154  1.0654
63613SOL    HW2 8450  12.520  13.727   0.931 -0.0585 -0.4325 -1.7263
63614SOL     OW 8451   0.473  10.481   2.061  0.0388 -0.0015 -0.2337
63614SOL    HW1 8452   0.501  10.394   2.089 -0.2636  0.1549  0.5664
63614SOL    HW2 8453   0.437  10.468   1.973  1.1730 -0.4652 -0.6585
63615SOL     OW 8454  11.788   4.047   8.754 -0.3233  0.4761 -0.0537
63615SOL    HW1 8455  11.826   4.124   8.796 -0.5397  0.4942  0.1123
63615SOL    HW2 8456  11.827   4.046   8.667 -0.9003  1.2239 -0.3394
63616SOL     OW 8457   3.953   9.973   2.304 -0.7748  0.0375  0.0805
63616SOL    HW1 8458   4.019   9.909   2.330 -0.7508  0.2382  0.5083
63616SOL    HW2 8459   4.002  10.042   2.260 -0.9803 -1.1543 -2.2157
63617SOL     OW 8460   7.191   5.509  13.536  0.0376 -0.4538  0.2394
63617SOL    HW1 8461   7.244   5.470  13.466 -0.5806 -0.9562  0.0426
63617SOL    HW2 8462   7.162   5.593  13.500  0.4374 -0.3198  0.2274
63618SOL     OW 8463   7.614  12.450   2.045 -0.1911  0.4600 -0.6452
63618SOL    HW1 8464   7.569  12.438   2.129  2.3073 -0.6790  0.6479
63618SOL    HW2 8465   7.547  12.487   1.987 -2.9625 -1.6951  0.8942
63619SOL     OW 8466   5.481  12.648  11.734  0.0260 -0.2844 -0.5493
63619SOL    HW1 8467   5.478  12.558  11.768 -1.7584  0.1020  0.3924
63619SOL    HW2 8468   5.465  12.703  11.811  2.0996  0.9279 -0.9229
63620SOL     OW 8469  13.930  12.339   6.272 -0.0479  0.2338  0.3827
63620SOL    HW1 8470  13.903  12.301   6.189 -1.0330 -0.3682  0.9571
63620SOL    HW2 8471  13.897  12.428   6.270  1.3859  0.7896 -0.5453
63621SOL     OW 8472   5.559  13.086   5.069 -0.3975  0.2404  1.0070
63621SOL    HW1 8473   5.601  13.155   5.121  0.3218 -0.3978  1.2904
63621SOL    HW2 8474   5.542  13.015   5.131  0.8261 -0.6887  0.3199
63622SOL     OW 8475  13.733   9.899  11.945  0.5002 -0.1221  0.3725
63622SOL    HW1 8476  13.689   9.942  11.872  0.1457 -2.6301 -1.0133
63622SOL    HW2 8477  13.719   9.806  11.929  1.7055 -0.8040  2.8665
63623SOL     OW 8478  12.507   4.062  10.027 -0.1642 -0.1056 -0.3761
63623SOL    HW1 8479  12.440   4.119   9.988  0.1604 -0.2357 -1.1495
63623SOL    HW2 8480  12.512   3.987   9.967  0.9885  0.1115 -0.5754
63624SOL     OW 8481  10.839   3.643   1.945 -0.6736  0.1315  0.0890
63624SOL    HW1 8482  10.817   3.681   1.860  0.3760  3.2597  1.0700
63624SOL    HW2 8483  10.921   3.596   1.928 -0.2923  0.9976 -0.6017
63625SOL     OW 8484   0.249   2.241  11.693 -0.6569 -0.5895 -0.2120
63625SOL    HW1 8485   0.218   2.331  11.682  0.7926 -0.1658 -1.1357
63625SOL    HW2 8486   0.335   2.251  11.735  0.1719 -1.4214 -1.6267
63626SOL     OW 8487   1.526   5.210   0.737  0.0951  0.2751 -0.2328
63626SOL    HW1 8488   1.557   5.131   0.782  0.9906 -0.0023 -1.2997
63626SOL    HW2 8489   1.605   5.257   0.712 -0.4085  2.5407  2.0236
63627SOL     OW 8490  10.693   8.184   1.074 -0.2393  0.2870 -0.7838
63627SOL    HW1 8491  10.787   8.166   1.072 -0.2067  0.0955  0.9475
63627SOL    HW2 8492  10.686   8.276   1.046  0.2511 -0.2348 -2.7631
63628SOL     OW 8493  12.076   3.887  11.132 -0.4894  0.5132 -0.4997
63628SOL    HW1 8494  12.091   3.862  11.041 -0.1576  1.7823 -0.8199
63628SOL    HW2 8495  12.145   3.951  11.151 -0.1400 -0.2156  0.8626
63629SOL     OW 8496   1.757   9.251   1.937 -0.5998 -0.5036  0.1547
63629SOL    HW1 8497   1.747   9.224   2.028  2.8920  1.5672  1.3557
63629SOL    HW2 8498   1.813   9.184   1.898 -0.6334 -0.4776  0.0620
63630SOL     OW 8499   5.398   7.774   4.097 -0.2828  0.0453 -0.0904
63630SOL    HW1 8500   5.330   7.832   4.132  0.2075 -0.0449  1.0476
63630SOL    HW2 8501   5.425   7.721   4.172  0.1553 -0.8005 -0.8260
63631SOL     OW 8502   1.040   2.154  11.838 -0.2508  0.0743  0.1184
63631SOL    HW1 8503   0.989   2.235  11.846 -0.7896 -0.2100 -0.3376
63631SOL    HW2 8504   0.998   2.106  11.766  1.3995  0.3841 -1.1247
63632SOL     OW 8505   1.399  10.776  12.579  0.2188  1.4263 -0.4663
63632SOL    HW1 8506   1.370  10.791  12.669 -0.4195  1.2929 -0.6437
63632SOL    HW2 8507   1.333  10.819  12.525  0.2559  0.9631 -0.8848
63633SOL     OW 8508  11.405   3.588   1.063  0.0878 -0.3675 -0.1636
63633SOL    HW1 8509  11.346   3.643   1.113 -0.2029  0.6928 -1.6243
63633SOL    HW2 8510  11.445   3.530   1.129 -0.3110  0.9142  1.2611
63634SOL     OW 8511   6.888  14.086   1.826 -0.3761  0.0596  0.2621
63634SOL    HW1 8512   6.839  14.164   1.800  1.9385  0.9087 -1.9236
63634SOL    HW2 8513   6.954  14.118   1.888  2.5017  0.5768 -2.8259
63635SOL     OW 8514   7.029  13.331  10.759 -0.0591 -0.3519  0.1626
63635SOL    HW1 8515   7.123  13.323  10.743 -0.2929 -2.3758 -0.4531
63635SOL    HW2 8516   7.022  13.337  10.855  0.6795 -0.3466  0.2227
63636SOL     OW 8517   1.382   3.682   1.216  0.3149 -0.0671 -0.3380
63636SOL    HW1 8518   1.310   3.734   1.181 -0.1583  0.1504  0.9016
63636SOL    HW2 8519   1.461   3.730   1.190  0.0261 -0.2163 -1.5604
63637SOL     OW 8520   5.150   8.196   4.630  0.1295 -0.3776 -0.3014
63637SOL    HW1 8521   5.127   8.273   4.683  1.7676  0.2635 -0.4595
63637SOL    HW2 8522   5.237   8.171   4.661 -0.2432 -1.9808 -0.4976
63638SOL     OW 8523   2.154   0.729   2.806  0.4548 -0.3410  0.0482
63638SOL    HW1 8524   2.103   0.798   2.764  0.5341  0.1860  0.7849
63638SOL    HW2 8525   2.154   0.754   2.899 -3.2678 -3.5770  1.1905
63639SOL     OW 8526  11.434   1.406   8.696 -0.1990  0.6255 -0.0566
63639SOL    HW1 8527  11.408   1.314   8.685  0.4723  0.2996  0.9039
63639SOL    HW2 8528  11.425   1.422   8.790  2.0257  0.7718  0.1999
63640SOL     OW 8529   5.234   5.008   5.520 -1.2190  0.6019  0.2104
63640SOL    HW1 8530   5.217   4.938   5.457  1.7080 -0.0398  0.0207
63640SOL    HW2 8531   5.270   4.964   5.597  1.5943  1.8388 -0.2710
63641SOL     OW 8532   0.064  12.588  12.347  0.1390  0.2324 -0.1573
63641SOL    HW1 8533   0.122  12.635  12.405  2.0919  0.8318 -2.4476
63641SOL    HW2 8534   0.112  12.508  12.323 -1.1138 -0.5951 -0.0539
63642SOL     OW 8535  12.733   8.408   3.479 -0.4665 -0.4110 -0.2012
63642SOL    HW1 8536  12.754   8.500   3.493 -0.9420 -0.2599 -0.4782
63642SOL    HW2 8537  12.638   8.406   3.471 -0.4134 -0.8526 -0.7471
63643SOL     OW 8538   2.307   7.462  13.917 -0.5274  0.1130 -0.4149
63643SOL    HW1 8539   2.233   7.473  13.976  1.2547 -0.8270  2.1458
63643SOL    HW2 8540   2.322   7.549  13.880 -0.6989  1.1636  1.8587
63644SOL     OW 8541   4.457  13.082   3.118  0.3031  0.7897  0.5533
63644SOL    HW1 8542   4.397  13.025   3.071 -0.8142  0.9956  1.6745
63644SOL    HW2 8543   4.440  13.170   3.083  0.0754  0.8192  0.7343
63645SOL     OW 8544   2.468   8.355   9.980  0.1128  0.4352 -0.5671
63645SOL    HW1 8545   2.498   8.277   9.933 -0.5064 -0.5323  0.5897
63645SOL    HW2 8546   2.387   8.380   9.936 -0.6372 -0.6585  0.1784
63646SOL     OW 8547  11.233  11.370   3.907 -0.4969  0.5508 -0.5287
63646SOL    HW1 8548  11.201  11.441   3.851 -0.2027  1.0499 -0.0752
63646SOL    HW2 8549  11.170  11.366   3.979 -1.7449 -1.1058 -1.6363
63647SOL     OW 8550   0.678  11.760   9.333  0.0980 -0.0798  1.3481
63647SOL    HW1 8551   0.694  11.852   9.354 -2.4245  1.1377 -1.3412
63647SOL    HW2 8552   0.763  11.726   9.306  0.7864  2.0051  0.6956
63648SOL     OW 8553   4.420  12.668   6.463 -0.0231  0.0391 -0.1385
63648SOL    HW1 8554   4.418  12.733   6.392 -1.2328 -0.3387 -0.4791
63648SOL    HW2 8555   4.455  12.589   6.422  2.2842  0.6602  0.4859
63649SOL     OW 8556  12.874  11.224  10.063  0.4974  0.0490  0.5603
63649SOL    HW1 8557  12.791  11.187  10.034 -1.4021  3.0846  1.6942
63649SOL    HW2 8558  12.927  11.229   9.983 -1.5579  0.7502 -0.8492
63650SOL     OW 8559   0.812   3.250   8.751 -0.0023 -0.0287 -0.5313
63650SOL    HW1 8560   0.724   3.279   8.725  0.4021  2.5525  0.7431
63650SOL    HW2 8561   0.871   3.298   8.693  0.6416 -0.9204 -0.6350
63651SOL     OW 8562   4.253  12.028  12.853 -0.3769 -0.2243  0.1558
63651SOL    HW1 8563   4.232  11.937  12.833  0.9786 -0.6990  0.7385
63651SOL    HW2 8564   4.329  12.022  12.911  1.3676  1.3255 -1.8284
63652SOL     OW 8565   6.682  12.347   1.215  0.3395 -0.0480  0.2751
63652SOL    HW1 8566   6.689  12.442   1.227 -0.6252  0.1834 -0.8078
63652SOL    HW2 8567   6.588  12.330   1.218  0.3715 -0.6800 -1.4342
63653SOL     OW 8568  13.630   0.316  12.183  0.6851  0.2799 -0.0882
63653SOL    HW1 8569  13.712   0.320  12.132  0.8950  2.0150  0.3376
63653SOL    HW2 8570  13.642   0.240  12.241  1.6875  0.0853 -0.5223
63654SOL     OW 8571   6.902  13.260   2.550  0.4951  0.3116 -0.0871
63654SOL    HW1 8572   6.825  13.203   2.540  0.0606  0.9919 -0.6344
63654SOL    HW2 8573   6.971  13.200   2.579 -0.1261 -0.3829  0.0095
63655SOL     OW 8574   0.294   4.908  12.445 -0.1599  0.1879  0.0706
63655SOL    HW1 8575   0.344   4.888  12.524 -0.6763 -1.6939 -0.0099
63655SOL    HW2 8576   0.330   4.849  12.379 -0.3072  1.1354 -0.8696
63656SOL     OW 8577  10.522   2.465   0.706  0.1161 -0.4348  0.2705
63656SOL    HW1 8578  10.603   2.511   0.686 -0.3989  1.0029  1.2475
63656SOL    HW2 8579  10.460   2.496   0.640  0.2334 -1.1429 -0.1729
63657SOL     OW 8580  12.074   6.817  11.095 -0.3807 -0.2130 -0.0209
63657SOL    HW1 8581  12.083   6.908  11.122  0.5179 -0.5668  0.9534
63657SOL    HW2 8582  12.122   6.812  11.012  1.0347 -0.1393  0.7588
63658SOL     OW 8583  10.517  12.457   7.675  0.3645 -0.4965  0.0767
63658SOL    HW1 8584  10.477  12.440   7.590 -0.6928  0.8296  0.2751
63658SOL    HW2 8585  10.539  12.370   7.710 -3.1276 -1.4092  0.3059
63659SOL     OW 8586   1.418   7.437  13.013  0.0836  0.1397  0.2391
63659SOL    HW1 8587   1.478   7.393  13.073  1.6096  0.7398 -0.7540
63659SOL    HW2 8588   1.369   7.498  13.068  0.4100 -0.3467  1.0863
63660SOL     OW 8589  13.893   0.622   6.759 -0.1815  0.0223 -0.3510
63660SOL    HW1 8590  13.843   0.643   6.839  0.5114  0.7117 -0.0849
63660SOL    HW2 8591  13.856   0.539   6.729 -1.2596  0.3456  0.0287
63661SOL     OW 8592   4.551   9.057   5.172 -0.0270  0.4559 -0.0042
63661SOL    HW1 8593   4.540   9.137   5.224  0.2435  1.0935 -0.8957
63661SOL    HW2 8594   4.568   8.988   5.236 -0.4866  1.0753  0.7935
63662SOL     OW 8595  11.200   6.938   4.326  0.7946 -0.2154 -0.2246
63662SOL    HW1 8596  11.172   6.862   4.273  0.1984 -0.0041 -0.2189
63662SOL    HW2 8597  11.133   7.004   4.309 -0.5862 -0.8009  2.3570
63663SOL     OW 8598   2.409   2.607   8.654  0.1088 -0.0896  0.3087
63663SOL    HW1 8599   2.344   2.546   8.689 -2.3077  1.6742 -0.8194
63663SOL    HW2 8600   2.361   2.660   8.590  3.0357  0.3694 -1.7205
63664SOL     OW 8601  11.014   2.287   6.628 -0.0656  0.1058  0.0200
63664SOL    HW1 8602  10.962   2.219   6.585  1.3106  0.3435 -2.1372
63664SOL    HW2 8603  11.023   2.256   6.718 -1.3609 -1.4323 -0.3224
63665SOL     OW 8604   8.561   6.757   3.859 -0.3506 -0.5365 -0.1862
63665SOL    HW1 8605   8.622   6.828   3.877 -0.6699  0.0252 -1.1843
63665SOL    HW2 8606   8.550   6.758   3.763 -3.0953  0.4347  0.0400
63666SOL     OW 8607   3.449   6.649   5.805 -0.5683  0.1752 -0.9065
63666SOL    HW1 8608   3.471   6.555   5.806 -3.7256 -0.6865 -0.4397
63666SOL    HW2 8609   3.465   6.678   5.895  0.0999 -0.0011 -0.9663
63667SOL     OW 8610  13.008  12.800   7.367 -0.2223  0.4591 -0.2879
63667SOL    HW1 8611  12.986  12.780   7.276 -2.3458 -1.8667  0.6124
63667SOL    HW2 8612  13.073  12.735   7.391 -1.3214 -0.4053  0.4413
63668SOL     OW 8613   1.760  11.272   8.454  0.1202  0.5177  0.3168
63668SOL    HW1 8614   1.712  11.335   8.508 -1.3333  0.0779 -0.4055
63668SOL    HW2 8615   1.843  11.317   8.433 -1.4535  2.8717 -1.3947
63669SOL     OW 8616   2.174   6.252   8.235 -0.3404 -0.3335  0.2270
63669SOL    HW1 8617   2.205   6.295   8.155 -0.0305  0.1218  0.5852
63669SOL    HW2 8618   2.224   6.170   8.239 -0.0959 -0.1881  0.1438
63670SOL     OW 8619  13.170   2.700  10.126  0.2229 -0.4845  0.0827
63670SOL    HW1 8620  13.177   2.635  10.056  1.6448 -1.0045  0.6618
63670SOL    HW2 8621  13.241   2.762  10.107  0.6588 -0.6609  1.0692
63671SOL     OW 8622   6.352   9.180   6.216  0.1581 -0.1051  0.8860
63671SOL    HW1 8623   6.429   9.124   6.226 -1.2470 -2.1160  1.1723
63671SOL    HW2 8624   6.324   9.165   6.125 -1.6275 -1.8826  1.6570
63672SOL     OW 8625   9.478   8.438   0.611 -0.1502 -0.2516  0.0628
63672SOL    HW1 8626   9.408   8.493   0.577 -1.4295 -1.1715  1.0787
63672SOL    HW2 8627   9.517   8.489   0.682  0.8976  0.6601 -1.1250
63673SOL     OW 8628  11.284   5.632   6.061  0.3343 -0.3389  0.5801
63673SOL    HW1 8629  11.298   5.726   6.049  0.6786  0.0170  3.2069
63673SOL    HW2 8630  11.206   5.627   6.116 -0.5325 -1.6879 -0.7180
63674SOL     OW 8631  11.418  11.022   3.119 -0.0098  0.2413 -0.1878
63674SOL    HW1 8632  11.353  11.074   3.071 -2.7823 -2.4058  0.3891
63674SOL    HW2 8633  11.436  10.947   3.062  2.6059  0.8674 -0.2875
63675SOL     OW 8634   0.048   0.861   9.033  0.5440 -0.2102 -0.0183
63675SOL    HW1 8635   0.099   0.939   9.011  0.6846 -0.1913  0.3641
63675SOL    HW2 8636   0.111   0.789   9.025  0.1704 -0.4219 -1.3629
63676SOL     OW 8637  10.359   5.765   4.829  0.3653 -0.8577 -0.2963
63676SOL    HW1 8638  10.376   5.847   4.785 -0.5892  0.4059  1.5221
63676SOL    HW2 8639  10.442   5.718   4.828  1.0575  0.3511 -0.9414
63677SOL     OW 8640   4.083  10.073   3.599  0.2423 -0.3559  0.2261
63677SOL    HW1 8641   4.030  10.114   3.667  0.6105 -1.7906  1.4401
63677SOL    HW2 8642   4.072   9.979   3.613  3.3180 -0.7507  0.7504
63678SOL     OW 8643   2.444   5.293  13.671  0.2590  0.1072  0.6125
63678SOL    HW1 8644   2.397   5.238  13.734 -0.4264  0.2315  0.2163
63678SOL    HW2 8645   2.537   5.270  13.683  0.0149 -0.8493  0.7232
63679SOL     OW 8646   3.877   9.285   3.012 -0.1086 -0.0935 -0.2185
63679SOL    HW1 8647   3.884   9.354   2.946  0.6827  1.4396  1.3816
63679SOL    HW2 8648   3.860   9.206   2.961  1.1627  0.8761 -2.3219
63680SOL     OW 8649   0.897   5.979   0.979 -0.0268 -0.1274 -0.2230
63680SOL    HW1 8650   0.815   5.987   1.028  1.3013 -2.5904  2.6964
63680SOL    HW2 8651   0.925   5.889   0.994  3.0473  0.5354 -1.3882
63681SOL     OW 8652   0.822   9.562   1.652 -0.1820 -0.0232  0.0079
63681SOL    HW1 8653   0.908   9.602   1.662 -0.6821  0.7495  1.4343
63681SOL    HW2 8654   0.770   9.626   1.604  0.7309 -1.5935 -3.3624
63682SOL     OW 8655  12.736  13.131   7.057  0.3430 -0.1989 -0.2277
63682SOL    HW1 8656  12.648  13.164   7.037  0.8609  1.2429 -0.1841
63682SOL    HW2 8657  12.759  13.172   7.141  1.3330 -0.0193 -0.5767
63683SOL     OW 8658  13.066  11.658   3.069 -0.2674 -0.1917 -0.1372
63683SOL    HW1 8659  13.083  11.602   2.992  0.4973  0.0477 -0.1546
63683SOL    HW2 8660  13.130  11.729   3.060 -0.2386 -0.1151  0.6708
63684SOL     OW 8661   4.960   5.977  12.353  0.1909  0.4994 -0.2539
63684SOL    HW1 8662   5.034   5.970  12.292 -0.5771 -1.0784 -1.0831
63684SOL    HW2 8663   4.978   5.910  12.419 -0.6052 -0.0959 -0.6212
63685SOL     OW 8664   2.891   0.304  13.177  0.2113 -0.1658  0.1316
63685SOL    HW1 8665   2.985   0.297  13.190  0.1342 -0.8461  0.3905
63685SOL    HW2 8666   2.878   0.293  13.083  0.2542 -1.9312  0.3062
63686SOL     OW 8667   9.370   6.494   9.642  0.2696  0.7674 -0.1568
63686SOL    HW1 8668   9.358   6.403   9.670 -0.0688  0.4862 -1.1725
63686SOL    HW2 8669   9.294   6.513   9.587  1.0885  1.1681 -1.1848
63687SOL     OW 8670   1.536   0.386   3.096 -0.3341  0.2134 -0.0319
63687SOL    HW1 8671   1.545   0.474   3.132 -0.0100 -0.3238  1.2529
63687SOL    HW2 8672   1.595   0.332   3.149 -1.6768 -1.0683  0.2106
63688SOL     OW 8673   8.846   2.209   3.072  0.7178 -0.1715 -0.1179
63688SOL    HW1 8674   8.869   2.142   3.136  0.0953 -1.2223 -0.9584
63688SOL    HW2 8675   8.750   2.205   3.066  0.7158  0.4245 -0.5685
63689SOL     OW 8676   5.626   0.860   1.066  0.0283  0.5700 -0.3646
63689SOL    HW1 8677   5.712   0.893   1.093  0.6181 -0.1027 -1.3638
63689SOL    HW2 8678   5.621   0.773   1.105 -0.5856  0.9358  0.4115
63690SOL     OW 8679  13.997   5.929   7.573 -0.1592  0.2453  0.4306
63690SOL    HW1 8680  13.943   5.850   7.576 -1.1128  0.7379 -1.7270
63690SOL    HW2 8681  13.937   5.998   7.545  1.0823  1.3055  0.2876
63691SOL     OW 8682   5.722   0.874   7.558 -0.2576 -0.3743  0.0797
63691SOL    HW1 8683   5.653   0.844   7.498 -0.5122  1.4285 -0.5778
63691SOL    HW2 8684   5.798   0.820   7.536 -1.0302 -1.3977 -0.1802
63692SOL     OW 8685   4.683   6.138  12.993 -0.7808  0.0186  0.6532
63692SOL    HW1 8686   4.626   6.142  13.069  0.1637  0.1372  1.3712
63692SOL    HW2 8687   4.698   6.230  12.969 -0.1619  0.0308  1.0449
63693SOL     OW 8688   4.069  11.866   1.351 -0.2970  0.3324  0.1883
63693SOL    HW1 8689   4.097  11.891   1.439 -2.4989  0.7637  0.8380
63693SOL    HW2 8690   3.997  11.804   1.365 -0.9844  0.7430 -1.2944
63694SOL     OW 8691   5.128  13.919  10.609  0.2696  0.1992  0.4457
63694SOL    HW1 8692   5.103  13.854  10.674  1.1699 -2.2623 -1.5244
63694SOL    HW2 8693   5.061  13.987  10.617 -1.6322 -1.6702  1.5895
63695SOL     OW 8694  10.437   1.557   1.620  0.1709  0.3522  0.8119
63695SOL    HW1 8695  10.366   1.617   1.638  0.7521  1.0578  0.8044
63695SOL    HW2 8696  10.395   1.480   1.581 -0.5293  0.9677  0.3314
63696SOL     OW 8697  11.324  10.790   3.668  0.0670  0.0364 -0.0348
63696SOL    HW1 8698  11.359  10.717   3.718 -0.8720 -0.4503 -0.0679
63696SOL    HW2 8699  11.247  10.819   3.717  0.4826  1.0786  0.0349
63697SOL     OW 8700   9.462   0.678  10.118 -0.4710 -0.2037 -0.2721
63697SOL    HW1 8701   9.489   0.748  10.058  0.6410  0.4907  0.9702
63697SOL    HW2 8702   9.429   0.724  10.195  0.7769 -1.0024  0.7849
63698SOL     OW 8703   2.180   9.116   8.027  0.2683 -0.4612  0.6046
63698SOL    HW1 8704   2.138   9.072   7.954 -1.3628 -1.3301  1.9904
63698SOL    HW2 8705   2.273   9.095   8.018  0.1341 -0.3958 -1.2734
63699SOL     OW 8706  11.851   3.641  10.943  0.2765 -0.0918 -0.0684
63699SOL    HW1 8707  11.844   3.619  11.036  0.8466  1.9415  0.5099
63699SOL    HW2 8708  11.761   3.641  10.911  0.0712 -0.7541  0.4748
63700SOL     OW 8709  11.679   3.594   4.097 -0.2231 -0.7359  0.2671
63700SOL    HW1 8710  11.764   3.568   4.062 -0.2149 -1.2793  0.6757
63700SOL    HW2 8711  11.670   3.544   4.178 -0.4126  0.2107  0.8440
63701SOL     OW 8712  11.425  13.061   8.334  0.0812  0.3916 -0.7137
63701SOL    HW1 8713  11.410  13.015   8.416 -0.6690  0.9431 -0.5242
63701SOL    HW2 8714  11.421  13.154   8.357 -1.9517  0.5942 -1.6207
63702SOL     OW 8715   2.080   1.622  12.607  0.2682 -0.2551  0.1628
63702SOL    HW1 8716   2.084   1.676  12.685  2.5263 -0.7353  0.4509
63702SOL    HW2 8717   2.014   1.556  12.627 -0.7134  0.8747  0.7868
63703SOL     OW 8718   4.007   3.818  12.349 -0.4149  0.4808  0.1443
63703SOL    HW1 8719   4.093   3.851  12.377 -0.2658 -0.3097  0.6589
63703SOL    HW2 8720   3.989   3.864  12.267  0.8233  0.1307 -0.3412
63704SOL     OW 8721   4.504   1.695   1.735  0.2283 -0.1288  0.4589
63704SOL    HW1 8722   4.580   1.713   1.791  1.5273 -0.7809 -1.0301
63704SOL    HW2 8723   4.505   1.765   1.670 -1.3709  0.7160  1.2682
63705SOL     OW 8724   4.024   2.639   4.925  0.1306  0.4609 -0.2176
63705SOL    HW1 8725   3.986   2.551   4.926  1.5672 -0.1920  0.8770
63705SOL    HW2 8726   4.071   2.644   4.842  3.1221 -1.2833  1.1875
63706SOL     OW 8727  10.567   3.984  13.301  0.3737  0.1366  0.2379
63706SOL    HW1 8728  10.488   3.989  13.246  0.3496  0.1912  0.2768
63706SOL    HW2 8729  10.540   3.932  13.377  0.8237 -1.2172 -0.5025
63707SOL     OW 8730   2.064   6.912   5.405 -0.2761  0.0828  0.4382
63707SOL    HW1 8731   2.113   6.953   5.477 -1.4411  0.9501  0.7736
63707SOL    HW2 8732   1.998   6.859   5.449 -0.1842 -0.3983 -0.0022
63708SOL     OW 8733   5.122  11.843   1.407 -0.7143 -0.2930 -0.0047
63708SOL    HW1 8734   5.196  11.787   1.383  0.2840  1.4032 -1.0711
63708SOL    HW2 8735   5.045  11.787   1.395  0.3141 -1.7674  0.0581
63709SOL     OW 8736   2.224   4.997   6.316 -0.3757  0.2838 -0.4751
63709SOL    HW1 8737   2.142   5.040   6.341  0.1724  1.8831 -1.2761
63709SOL    HW2 8738   2.286   5.020   6.385 -0.9770 -2.4380  1.1198
63710SOL     OW 8739   0.289   7.820   4.421 -0.2193 -0.4909  0.4216
63710SOL    HW1 8740   0.368   7.874   4.415 -0.2387 -0.3690  1.1968
63710SOL    HW2 8741   0.321   7.732   4.439 -0.2471 -0.4847  0.5027
63711SOL     OW 8742   3.144   7.104   6.037 -0.2287 -0.0985  0.1728
63711SOL    HW1 8743   3.116   7.195   6.027 -0.0378 -0.2202 -2.0483
63711SOL    HW2 8744   3.065   7.052   6.022 -0.1607 -0.3128  0.5456
63712SOL     OW 8745   0.717   9.255  10.795  0.1416  0.4560  0.4489
63712SOL    HW1 8746   0.770   9.333  10.810  0.4363  0.2970  0.2304
63712SOL    HW2 8747   0.630   9.289  10.773  0.2097  0.7180  0.5821
63713SOL     OW 8748   1.133   3.168   5.889  0.1381 -0.5578  0.1061
63713SOL    HW1 8749   1.135   3.228   5.964 -0.5817  2.2856 -2.0007
63713SOL    HW2 8750   1.223   3.165   5.858  0.1888 -0.6377  0.2599
63714SOL     OW 8751   1.389   3.350   8.971 -0.0430  0.2015  0.5242
63714SOL    HW1 8752   1.389   3.418   8.903  0.4557  0.3169  0.6382
63714SOL    HW2 8753   1.322   3.288   8.943  0.4513  0.0260 -0.2904
63715SOL     OW 8754  13.917   0.295   8.592 -0.4341 -0.5434  0.0365
63715SOL    HW1 8755  13.913   0.252   8.678 -0.6205 -0.7448 -0.0699
63715SOL    HW2 8756  13.983   0.364   8.602  1.6991 -2.3774 -0.4638
63716SOL     OW 8757  10.803  12.491  11.290  0.1677  0.0639  0.0967
63716SOL    HW1 8758  10.741  12.547  11.244 -1.0342 -1.1190  0.2142
63716SOL    HW2 8759  10.889  12.518  11.257 -0.5103  0.7577 -1.1667
63717SOL     OW 8760   3.586  13.084   8.841  0.3294 -0.4095 -0.0641
63717SOL    HW1 8761   3.583  13.139   8.920 -1.7683  1.1098 -1.0871
63717SOL    HW2 8762   3.679  13.063   8.829  0.9997  1.4599  1.3822
63718SOL     OW 8763   0.582   2.728   9.744  0.0652  0.0916  0.3206
63718SOL    HW1 8764   0.598   2.769   9.658 -1.2172  0.1893  0.1122
63718SOL    HW2 8765   0.556   2.801   9.800 -3.5946 -0.4902 -0.3926
63719SOL     OW 8766   1.776   8.819   9.786  0.1229 -0.0590  0.3885
63719SOL    HW1 8767   1.846   8.853   9.731  0.6117  0.2008  1.1470
63719SOL    HW2 8768   1.820   8.796   9.869 -0.5867 -0.4344  0.6708
63720SOL     OW 8769   4.852   9.321   4.319 -0.3965 -0.5386 -0.0515
63720SOL    HW1 8770   4.892   9.377   4.386 -0.8902  1.0835 -1.0515
63720SOL    HW2 8771   4.907   9.334   4.242 -2.1232  0.8149 -1.1103
63721SOL     OW 8772   5.803  11.735  12.658  0.8605  0.6219  0.4266
63721SOL    HW1 8773   5.811  11.804  12.591 -2.5976  0.4047 -0.4273
63721SOL    HW2 8774   5.813  11.654  12.609 -2.5427  0.4328 -0.1864
63722SOL     OW 8775   4.240   7.873   6.625 -0.3677 -0.6953  0.2961
63722SOL    HW1 8776   4.277   7.959   6.644 -0.4247 -0.5867 -0.0859
63722SOL    HW2 8777   4.148   7.881   6.649 -0.1426 -0.9866  1.3123
63723SOL     OW 8778   8.651   8.456   1.883  0.6243  0.0040 -0.6429
63723SOL    HW1 8779   8.648   8.540   1.837 -0.4757 -0.6104 -1.7345
63723SOL    HW2 8780   8.643   8.390   1.815  2.8791 -1.0773  0.0537
63724SOL     OW 8781   7.243   5.570   4.743  0.4117  0.3261 -0.0501
63724SOL    HW1 8782   7.172   5.509   4.763  1.6114 -0.9681  0.4141
63724SOL    HW2 8783   7.240   5.635   4.813 -0.8853  0.8543 -0.5577
63725SOL     OW 8784  13.475   7.735   5.710  0.4525  0.0657 -0.0117
63725SOL    HW1 8785  13.422   7.757   5.634 -0.1939 -0.2326  0.3435
63725SOL    HW2 8786  13.436   7.655   5.745  0.8149  0.1259  0.5569
63726SOL     OW 8787   1.659  12.645  13.214  0.2131 -0.2483 -0.2297
63726SOL    HW1 8788   1.662  12.551  13.230 -0.8471 -0.2265  0.1400
63726SOL    HW2 8789   1.592  12.678  13.274  1.6129  0.9773  0.7290
63727SOL     OW 8790   5.125   2.350  12.100  0.2909 -0.1877 -0.7465
63727SOL    HW1 8791   5.190   2.370  12.168 -0.0201  1.3653 -0.8680
63727SOL    HW2 8792   5.049   2.403  12.124 -0.3600 -0.7760 -1.4833
63728SOL     OW 8793   0.666   0.884   5.455  0.1167 -0.0690  0.2058
63728SOL    HW1 8794   0.691   0.973   5.478  0.4421 -0.5737  2.0164
63728SOL    HW2 8795   0.606   0.858   5.525  2.5417 -2.3337  1.6529
63729SOL     OW 8796   2.639   8.351   2.118  0.2994 -0.4910 -0.0099
63729SOL    HW1 8797   2.640   8.358   2.214  0.9728  2.6139 -0.1498
63729SOL    HW2 8798   2.546   8.343   2.096  0.0474 -0.1989  0.8680
63730SOL     OW 8799   0.149   3.931   2.146  0.1935 -0.1224  0.1029
63730SOL    HW1 8800   0.197   3.977   2.077 -0.1937 -3.9275 -3.0829
63730SOL    HW2 8801   0.057   3.938   2.120 -0.1612  0.0099  1.3609
63731SOL     OW 8802   9.890   7.775  10.924 -0.8081  0.8101 -0.4492
63731SOL    HW1 8803   9.936   7.854  10.898  0.2704  0.3949  0.1316
63731SOL    HW2 8804   9.872   7.787  11.017  0.1933  0.0139 -0.1230
63732SOL     OW 8805  10.810   1.301  12.873  0.3128  0.8707 -0.4202
63732SOL    HW1 8806  10.783   1.289  12.964  1.3616  0.3620 -0.1562
63732SOL    HW2 8807  10.785   1.219  12.831 -0.6721  1.3174 -0.7348
63733SOL     OW 8808   7.672   7.500   1.495 -0.2182  0.5085 -0.7239
63733SOL    HW1 8809   7.659   7.478   1.587  1.2232  1.6895 -0.1858
63733SOL    HW2 8810   7.752   7.553   1.495  0.6356 -0.6910 -2.8394
63734SOL     OW 8811   2.713   9.949  11.889  0.4511  0.1719 -0.0661
63734SOL    HW1 8812   2.745  10.039  11.884 -0.6039  0.6091  0.6507
63734SOL    HW2 8813   2.627   9.952  11.847 -0.3980 -0.0683  1.5459
63735SOL     OW 8814   2.313   6.368   8.004 -0.2721  0.1595  0.4866
63735SOL    HW1 8815   2.290   6.353   7.912 -0.0993  1.6782  0.1668
63735SOL    HW2 8816   2.405   6.394   8.001 -1.1498  3.6874  0.6459
63736SOL     OW 8817  10.819  11.320  13.638 -0.0184 -0.0238  0.1000
63736SOL    HW1 8818  10.860  11.234  13.641 -2.2754 -1.1551  0.9737
63736SOL    HW2 8819  10.774  11.328  13.722 -0.2380  1.8225 -0.1520
63737SOL     OW 8820  11.617   2.937   2.587 -0.0145  0.0410  0.2408
63737SOL    HW1 8821  11.591   2.868   2.649  0.8331 -0.5403 -0.0393
63737SOL    HW2 8822  11.673   2.893   2.523 -2.4910  0.1701 -2.1896
63738SOL     OW 8823   6.660  12.770   2.213 -0.3058 -0.6292 -0.1170
63738SOL    HW1 8824   6.608  12.833   2.264 -1.7896 -0.4851 -1.6909
63738SOL    HW2 8825   6.639  12.791   2.122 -0.7910 -3.3544 -0.7124
63739SOL     OW 8826   3.151  10.229   6.785  0.2964 -0.5028 -0.4729
63739SOL    HW1 8827   3.225  10.270   6.831 -0.5236  1.6556 -0.9553
63739SOL    HW2 8828   3.123  10.295   6.722 -2.5340 -0.9336  0.2102
63740SOL     OW 8829  10.089   2.934   5.928 -0.2253 -0.2447 -0.0623
63740SOL    HW1 8830  10.073   2.993   5.854 -1.8819 -1.8509 -1.0692
63740SOL    HW2 8831  10.150   2.869   5.893 -1.6491 -1.4775 -0.3277
63741SOL     OW 8832   8.593   3.061   8.282  0.3543 -0.4396 -0.2355
63741SOL    HW1 8833   8.670   3.092   8.234  0.5107  0.5336  0.6232
63741SOL    HW2 8834   8.580   2.972   8.249  1.1870 -0.2357 -1.1857
63742SOL     OW 8835  11.979   4.011  12.686 -0.6406 -0.0406  0.6704
63742SOL    HW1 8836  12.054   3.958  12.714  0.0191  0.3357 -0.3304
63742SOL    HW2 8837  12.015   4.099  12.676 -1.6038  0.5051  1.7890
63743SOL     OW 8838   7.438   3.858   4.154  0.0674  0.4316  0.3128
63743SOL    HW1 8839   7.424   3.863   4.249  1.0212 -2.5777  0.7134
63743SOL    HW2 8840   7.524   3.898   4.140  0.2058  0.3256  0.8281
63744SOL     OW 8841  13.686   9.341  12.851  0.2430  0.0764 -0.3664
63744SOL    HW1 8842  13.647   9.305  12.771 -0.7239  0.8170 -0.2521
63744SOL    HW2 8843  13.612   9.354  12.910  1.0545 -1.3413  1.0280
63745SOL     OW 8844   4.594   1.742   5.834  0.2163  0.1237  0.0741
63745SOL    HW1 8845   4.656   1.808   5.865 -0.2691  0.4329  0.3991
63745SOL    HW2 8846   4.513   1.761   5.881  0.1879 -0.9799  0.5163
63746SOL     OW 8847  11.855   1.102   6.981 -0.1273 -0.6181  0.1475
63746SOL    HW1 8848  11.902   1.168   6.930 -0.9351 -0.3769 -0.3048
63746SOL    HW2 8849  11.836   1.032   6.919 -3.6079  0.8799 -0.7639
63747SOL     OW 8850   4.022  13.198   7.030 -0.1624 -0.2707 -0.1502
63747SOL    HW1 8851   4.016  13.246   6.948  0.8720 -2.3077 -1.5162
63747SOL    HW2 8852   3.932  13.193   7.062 -0.9328 -1.2005 -2.2816
63748SOL     OW 8853  12.872  11.785  13.935 -0.6017 -0.2985 -0.0930
63748SOL    HW1 8854  12.873  11.880  13.941 -2.2623 -0.1400 -1.5159
63748SOL    HW2 8855  12.957  11.758  13.971 -0.6577  1.5909  1.6800
63749SOL     OW 8856   2.546   9.669   1.641  0.1022 -0.7007 -0.2248
63749SOL    HW1 8857   2.465   9.660   1.692 -0.7636 -0.3119 -1.4787
63749SOL    HW2 8858   2.517   9.699   1.555  1.4919 -1.6412 -1.0634
63750SOL     OW 8859  10.419   3.959   3.915  0.0199 -0.1916  0.2731
63750SOL    HW1 8860  10.486   3.900   3.880  1.1127  0.9816  0.3057
63750SOL    HW2 8861  10.463   4.008   3.984 -1.2780 -0.3688  1.2693
63751SOL     OW 8862   5.238  11.100   7.179 -0.5468  0.2264  0.0845
63751SOL    HW1 8863   5.218  11.190   7.203 -1.2060  0.0075  0.3804
63751SOL    HW2 8864   5.312  11.107   7.119 -0.9463  0.9998 -0.3299
63752SOL     OW 8865   8.635   4.616  12.352 -0.2493 -0.0184 -0.4744
63752SOL    HW1 8866   8.593   4.556  12.290 -0.3507 -0.0635 -0.3602
63752SOL    HW2 8867   8.566   4.677  12.378 -0.3077 -0.2426 -0.0974
63753SOL     OW 8868   3.623  12.930   4.909 -0.4238  0.1498  0.3056
63753SOL    HW1 8869   3.531  12.905   4.899 -0.5508  1.2747 -1.8694
63753SOL    HW2 8870   3.650  12.958   4.822  1.9618  0.0010  0.9225
63754SOL     OW 8871   5.944   0.028   0.582 -0.3463 -0.3117 -0.0060
63754SOL    HW1 8872   5.983   0.060   0.500  0.6753 -1.6616 -0.0960
63754SOL    HW2 8873   5.980   0.085   0.650  2.6801 -2.0341  0.0348
63755SOL     OW 8874   3.405   5.151   5.358  0.0081  0.1564 -0.2793
63755SOL    HW1 8875   3.412   5.156   5.453  0.6956 -1.6826 -0.1911
63755SOL    HW2 8876   3.354   5.228   5.333  0.5833  1.1592  1.4802
63756SOL     OW 8877   7.176   1.013   6.273 -0.0119 -0.3320 -0.2309
63756SOL    HW1 8878   7.249   1.068   6.245  1.5306 -1.2875  1.6611
63756SOL    HW2 8879   7.207   0.971   6.354 -3.1474  0.2574  1.4381
63757SOL     OW 8880  10.828   3.194   5.931  0.5601 -0.3356  0.3851
63757SOL    HW1 8881  10.876   3.133   5.987 -0.6550 -2.3088 -0.6170
63757SOL    HW2 8882  10.819   3.148   5.847 -1.3160  0.8015 -0.0853
63758SOL     OW 8883   2.682   8.345   2.440  0.3475 -0.3273  1.0088
63758SOL    HW1 8884   2.714   8.286   2.509 -0.5851  0.8313  2.4876
63758SOL    HW2 8885   2.701   8.433   2.473  1.4622  0.2633 -1.0400
63759SOL     OW 8886   4.622   1.205   7.986 -0.6596 -0.2666 -0.0844
63759SOL    HW1 8887   4.539   1.240   8.019 -0.9994  1.2281 -2.2820
63759SOL    HW2 8888   4.610   1.110   7.987 -0.3485 -0.4605  4.5510
63760SOL     OW 8889   5.403   2.477  11.207 -0.0843  0.3704  0.7792
63760SOL    HW1 8890   5.427   2.518  11.291  0.2364  0.6743  0.5464
63760SOL    HW2 8891   5.308   2.477  11.206 -0.1700  3.1789 -0.1658
63761SOL     OW 8892   9.830  13.230   0.793  0.3265  0.0481 -0.3896
63761SOL    HW1 8893   9.852  13.154   0.847 -0.6720  0.7482  1.0881
63761SOL    HW2 8894   9.892  13.227   0.720  1.8076 -0.8895  0.8489
63762SOL     OW 8895  12.516   4.926   4.498  0.1317 -0.0557 -1.0156
63762SOL    HW1 8896  12.523   4.997   4.562 -1.0997 -0.9012  0.1110
63762SOL    HW2 8897  12.422   4.923   4.476  0.1398 -1.3879 -0.9548
63763SOL     OW 8898  13.523  13.185  11.807 -0.3940 -0.4797 -0.0028
63763SOL    HW1 8899  13.452  13.196  11.870 -1.2531  1.7084 -1.2187
63763SOL    HW2 8900  13.585  13.126  11.849 -2.0904 -1.0367  1.8345
63764SOL     OW 8901   9.448   5.220   6.211  0.5393 -0.1444  0.4484
63764SOL    HW1 8902   9.541   5.244   6.212  0.4939  0.1228 -0.6026
63764SOL    HW2 8903   9.449   5.125   6.194  0.6519 -0.4820  2.1922
63765SOL     OW 8904  13.101  11.157  13.771 -0.0675  0.7035 -0.7676
63765SOL    HW1 8905  13.143  11.072  13.781 -1.5572 -0.2813 -2.2619
63765SOL    HW2 8906  13.040  11.163  13.845 -1.7809 -0.7403 -1.9622
63766SOL     OW 8907  12.814   4.283  13.486 -0.2708  0.6263 -0.0313
63766SOL    HW1 8908  12.883   4.239  13.437  0.1984 -1.4858  2.3338
63766SOL    HW2 8909  12.858   4.352  13.535 -0.1740  0.4588  0.1126
63767SOL     OW 8910  14.004   5.370   0.663  0.1930 -0.1117  0.0541
63767SOL    HW1 8911  13.928   5.340   0.713  0.8203 -0.7099  0.6722
63767SOL    HW2 8912  14.062   5.409   0.729 -0.4763  2.2966 -0.6823
63768SOL     OW 8913  11.490  11.175  11.521 -0.1035 -0.0628  0.3786
63768SOL    HW1 8914  11.474  11.080  11.523 -0.8606  0.0760  1.1836
63768SOL    HW2 8915  11.444  11.205  11.442  0.3951 -0.4035 -0.0480
63769SOL     OW 8916   1.033  11.202   5.058  0.2494  0.1007 -0.0387
63769SOL    HW1 8917   1.036  11.138   5.129  2.9585  0.9576  0.7381
63769SOL    HW2 8918   0.999  11.282   5.099  1.1870  0.4050  0.1809
63770SOL     OW 8919   7.018   4.241   6.442  0.0047  0.4544  0.4111
63770SOL    HW1 8920   6.964   4.168   6.412 -0.7921  1.7968 -1.6724
63770SOL    HW2 8921   6.957   4.314   6.450  1.0267  1.2802  0.9468
63771SOL     OW 8922   9.424   6.108  10.743  0.0789  0.2621 -0.0313
63771SOL    HW1 8923   9.506   6.086  10.698 -0.9898 -0.8106 -1.5392
63771SOL    HW2 8924   9.449   6.116  10.836  1.1119 -5.2094  0.5086
63772SOL     OW 8925   6.835   1.185   9.085  0.5911 -0.1847  0.8791
63772SOL    HW1 8926   6.741   1.194   9.099  0.4190  0.4800 -0.5190
63772SOL    HW2 8927   6.851   1.091   9.082  0.6107 -0.4519  4.7930
63773SOL     OW 8928   7.818   0.334  12.102  0.0927  0.2563 -0.5757
63773SOL    HW1 8929   7.743   0.394  12.106 -1.5268 -1.7136 -0.1510
63773SOL    HW2 8930   7.881   0.371  12.164 -2.3905 -0.3936  2.5937
63774SOL     OW 8931   5.201   5.724  10.314 -0.1812  0.6476  0.1092
63774SOL    HW1 8932   5.132   5.700  10.252 -0.5172 -0.8431  1.0283
63774SOL    HW2 8933   5.156   5.780  10.378 -0.3478  0.3622  0.2442
63775SOL     OW 8934   7.838  12.986   4.701  0.2739 -0.0511 -0.2370
63775SOL    HW1 8935   7.905  13.036   4.654  0.7844  0.8695  1.3835
63775SOL    HW2 8936   7.885  12.942   4.772 -0.5387 -0.9787 -0.2573
63776SOL     OW 8937  13.387  12.945   4.181  0.3084 -0.0367 -0.2082
63776SOL    HW1 8938  13.404  12.963   4.089 -0.1942 -0.9292 -0.4834
63776SOL    HW2 8939  13.339  13.022   4.212  0.9667  0.5181 -0.5313
63777SOL     OW 8940   7.344  10.148   0.318 -0.3280 -0.0585 -0.0320
63777SOL    HW1 8941   7.384  10.062   0.331  0.5498  0.2133 -0.8473
63777SOL    HW2 8942   7.266  10.131   0.265  0.2387 -0.2888 -0.8157
63778SOL     OW 8943   3.050   5.300   8.351  0.4404 -0.5216  0.7034
63778SOL    HW1 8944   3.078   5.324   8.263 -1.6445 -3.1666 -0.8513
63778SOL    HW2 8945   3.018   5.381   8.389  0.9120  0.6043 -1.1750
63779SOL     OW 8946   4.147  13.510  13.139  0.2985  0.5228  0.1146
63779SOL    HW1 8947   4.054  13.510  13.117  0.1182  0.5077  0.8485
63779SOL    HW2 8948   4.185  13.442  13.083 -0.2472  0.0836  0.2735
63780SOL     OW 8949   6.561   8.611  10.638  0.4462 -0.5148 -1.1496
63780SOL    HW1 8950   6.513   8.683  10.598 -0.7839 -0.7789 -0.2021
63780SOL    HW2 8951   6.615   8.652  10.705  0.6140 -0.3533 -1.3836
63781SOL     OW 8952  13.841  12.588  10.012 -0.5423 -0.1181  0.8803
63781SOL    HW1 8953  13.905  12.570  10.080 -0.2937 -0.5552  0.5385
63781SOL    HW2 8954  13.786  12.509  10.009 -0.0439 -0.4542  0.0272
63782SOL     OW 8955   4.608   6.486   8.331 -0.1494 -0.6314 -0.0490
63782SOL    HW1 8956   4.694   6.445   8.325 -0.4981 -1.2314 -1.3791
63782SOL    HW2 8957   4.625   6.579   8.319  0.4754 -0.5489  1.3486
63783SOL     OW 8958  10.755   7.523   6.270 -0.3618  0.3893  0.3618
63783SOL    HW1 8959  10.713   7.592   6.321  0.8509 -0.0567  2.0549
63783SOL    HW2 8960  10.847   7.525   6.298  0.4426  0.2752 -2.0103
63784SOL     OW 8961  10.722   7.992   1.281 -0.2647 -0.5230 -0.0564
63784SOL    HW1 8962  10.788   7.925   1.264  1.0390  0.7245 -0.1085
63784SOL    HW2 8963  10.730   8.054   1.208 -0.7396  0.2274  0.5085
63785SOL     OW 8964   2.685  11.398   8.431 -0.3237 -0.1760  0.1266
63785SOL    HW1 8965   2.651  11.309   8.421  2.1824 -1.0418 -2.3644
63785SOL    HW2 8966   2.749  11.391   8.502 -2.0113  0.3734  1.7698
63786SOL     OW 8967   4.207   3.353   6.214 -0.2071  0.2696  0.0393
63786SOL    HW1 8968   4.245   3.321   6.132 -1.0032 -1.3902  0.2740
63786SOL    HW2 8969   4.277   3.403   6.255  1.6062 -2.2063  0.1933
63787SOL     OW 8970  10.948   8.149  11.428 -0.2455  0.2487 -0.8528
63787SOL    HW1 8971  10.941   8.055  11.408 -2.0248 -0.2404  1.6186
63787SOL    HW2 8972  11.041   8.162  11.447 -0.3674 -1.7989  1.7620
63788SOL     OW 8973   8.382   7.441   2.531 -0.0324 -0.1122  0.3579
63788SOL    HW1 8974   8.350   7.351   2.540 -1.5577 -0.0841 -3.0213
63788SOL    HW2 8975   8.307   7.495   2.555  0.4380  0.2278  1.0668
63789SOL     OW 8976  11.664  11.342   5.490 -0.0851 -0.3761  0.5782
63789SOL    HW1 8977  11.699  11.263   5.532  0.8090  0.9619  2.5095
63789SOL    HW2 8978  11.695  11.337   5.400  1.0524 -1.5916  1.0019
63790SOL     OW 8979   8.151   0.752   9.830 -0.1612 -0.9819  0.1674
63790SOL    HW1 8980   8.135   0.799   9.748  1.2346 -1.0179 -0.1521
63790SOL    HW2 8981   8.147   0.659   9.806  1.0794 -0.9976 -0.0729
63791SOL     OW 8982   3.498  13.608   3.499  0.5712 -0.0777 -0.4439
63791SOL    HW1 8983   3.542  13.554   3.565 -0.3201  0.2627  0.4682
63791SOL    HW2 8984   3.563  13.621   3.431  2.1748  1.1237  1.2385
63792SOL     OW 8985   2.547  11.406   6.207 -0.0766  0.0940  0.2630
63792SOL    HW1 8986   2.559  11.394   6.301 -0.1260  0.4407  0.3148
63792SOL    HW2 8987   2.620  11.462   6.180  2.6891 -3.5798 -0.7373
63793SOL     OW 8988   9.628   3.837   8.734 -0.0716  0.1142 -0.1446
63793SOL    HW1 8989   9.668   3.891   8.666  0.7497 -0.9130 -0.5102
63793SOL    HW2 8990   9.684   3.850   8.810  0.2176 -0.3144 -0.2764
63794SOL     OW 8991   1.035   4.038  11.416 -0.3642  0.0296  0.1669
63794SOL    HW1 8992   1.064   4.127  11.438  1.5476 -0.3487 -0.6400
63794SOL    HW2 8993   1.084   3.981  11.475  0.4357 -0.6333 -1.1060
63795SOL     OW 8994   5.733   0.367   1.205 -0.2350 -0.2138 -0.3857
63795SOL    HW1 8995   5.753   0.339   1.294  1.0165  0.3770 -0.4501
63795SOL    HW2 8996   5.802   0.326   1.151  0.5895  1.4860 -0.7067
63796SOL     OW 8997  11.920  10.900  10.677 -0.3960  0.4148  0.1733
63796SOL    HW1 8998  11.875  10.985  10.676 -0.7427  0.2369 -0.9809
63796SOL    HW2 8999  11.873  10.849  10.744 -0.7078  0.8657  0.3043
63797SOL     OW 9000   9.776  11.898  12.014  0.5616  0.0549  0.7240
63797SOL    HW1 9001   9.840  11.883  12.083  0.2493  1.0959  1.2534
63797SOL    HW2 9002   9.801  11.982  11.976  0.1311 -0.0340  0.2321
63798SOL     OW 9003   8.822   8.700   7.368  0.0115  0.5267 -0.0069
63798SOL    HW1 9004   8.808   8.733   7.457  0.6386  1.7339 -0.3307
63798SOL    HW2 9005   8.910   8.731   7.346 -0.0590  0.0542 -0.9645
63799SOL     OW 9006   2.356  13.165  12.753  0.2560 -0.0762  0.1716
63799SOL    HW1 9007   2.445  13.160  12.719 -0.0684 -1.2456 -0.5542
63799SOL    HW2 9008   2.300  13.149  12.677 -0.5699  0.2719  0.6900
63800SOL     OW 9009  11.171   5.450   2.506 -0.2787 -0.1167  0.5289
63800SOL    HW1 9010  11.263   5.459   2.481  0.0761  0.1770  1.8431
63800SOL    HW2 9011  11.171   5.384   2.575 -1.1702 -0.6531  0.0378
63801SOL     OW 9012   3.908   8.441   8.068 -0.7565  0.2628 -0.4258
63801SOL    HW1 9013   3.920   8.376   8.137  0.0796  0.9423  0.0932
63801SOL    HW2 9014   3.831   8.411   8.019 -1.5917 -0.0488  1.0225
63802SOL     OW 9015   0.222   6.760   9.563 -0.2345 -0.0228 -0.0696
63802SOL    HW1 9016   0.141   6.788   9.520  0.7842  0.5423 -1.7058
63802SOL    HW2 9017   0.287   6.825   9.538  1.3308 -1.7803 -0.8896
63803SOL     OW 9018  10.856   3.393   3.303  0.0648 -0.1983  0.2921
63803SOL    HW1 9019  10.803   3.313   3.298 -1.2474  0.6169  0.7124
63803SOL    HW2 9020  10.792   3.464   3.303  1.1416  0.8107  1.1899
63804SOL     OW 9021   0.695   4.656   1.189  0.1642  0.1041 -0.1861
63804SOL    HW1 9022   0.673   4.676   1.281  0.3543 -0.6052  0.0191
63804SOL    HW2 9023   0.691   4.741   1.145  0.1134  0.4628  0.4872
63805SOL     OW 9024   5.053  10.140  13.489  0.5285  0.1684  0.2064
63805SOL    HW1 9025   5.122  10.116  13.551  0.6901 -3.4439 -1.0742
63805SOL    HW2 9026   4.973  10.145  13.541  1.2622  1.3831  1.2560
63806SOL     OW 9027  11.164   4.944   8.070  0.0956 -0.1393 -0.1998
63806SOL    HW1 9028  11.172   5.038   8.089 -0.1132  0.5595 -3.0874
63806SOL    HW2 9029  11.246   4.922   8.025  1.0209 -1.9068  2.1481
63807SOL     OW 9030   6.591   3.674  10.402 -0.7417 -0.3837 -0.0549
63807SOL    HW1 9031   6.529   3.634  10.342 -2.9695  0.5362  1.4844
63807SOL    HW2 9032   6.571   3.634  10.487  1.1199 -0.3819  0.4283
63808SOL     OW 9033   8.064   1.600   2.540  0.6949 -0.1453  0.6432
63808SOL    HW1 9034   8.158   1.611   2.558  0.2127  2.3131  2.1446
63808SOL    HW2 9035   8.021   1.662   2.599 -1.8511 -0.5718 -0.6373
63809SOL     OW 9036   4.429  13.375  10.910  0.5158  0.0221 -0.2341
63809SOL    HW1 9037   4.379  13.328  10.976  0.4228  0.3971 -0.0315
63809SOL    HW2 9038   4.429  13.317  10.834  0.8268 -0.5102  0.1675
63810SOL     OW 9039  10.698   1.605  13.796 -0.2504  0.2126 -0.2125
63810SOL    HW1 9040  10.649   1.659  13.859 -1.7598  0.5972 -1.6536
63810SOL    HW2 9041  10.786   1.641  13.798 -0.3393  0.4151  1.4485
63811SOL     OW 9042  11.928   3.401  10.815  0.2936  0.5367  0.5585
63811SOL    HW1 9043  12.016   3.410  10.778 -0.1772 -0.9719 -1.0342
63811SOL    HW2 9044  11.914   3.484  10.862  1.3955  2.1019 -1.6800
63812SOL     OW 9045   9.600   0.369  12.364  0.0238  0.5332  0.0018
63812SOL    HW1 9046   9.680   0.403  12.404  0.4750 -1.3929  0.8760
63812SOL    HW2 9047   9.559   0.317  12.433 -0.6834 -0.5668 -1.2023
63813SOL     OW 9048   0.235  12.238  11.882 -0.8873 -0.3766  0.0125
63813SOL    HW1 9049   0.226  12.165  11.822 -1.1127 -0.3307 -0.0106
63813SOL    HW2 9050   0.329  12.256  11.884 -0.7908 -0.8903  0.2881
63814SOL     OW 9051  12.226  10.034  11.885 -0.1956 -0.4053  0.1462
63814SOL    HW1 9052  12.296  10.099  11.892 -1.2297  0.7632  0.0646
63814SOL    HW2 9053  12.162  10.061  11.952  0.2113 -2.4935  1.4868
63815SOL     OW 9054   0.472  12.455   2.261 -0.2017  0.0605 -0.1016
63815SOL    HW1 9055   0.558  12.478   2.297 -0.2575 -1.6332  1.2660
63815SOL    HW2 9056   0.488  12.437   2.169  0.8845 -0.0736  0.0993
63816SOL     OW 9057   3.157   6.673  11.690 -0.3139 -0.2977  0.0322
63816SOL    HW1 9058   3.252   6.664  11.697 -0.0051  2.8230  1.9775
63816SOL    HW2 9059   3.140   6.684  11.596  1.2349 -0.8713 -0.3360
63817SOL     OW 9060   5.795   5.606  11.803 -0.3889  0.7151 -0.2608
63817SOL    HW1 9061   5.856   5.613  11.876 -0.6114 -0.2499  0.0343
63817SOL    HW2 9062   5.846   5.634  11.727  0.5217 -0.2767 -0.0553
63818SOL     OW 9063   7.010   1.402   9.064  0.3058 -0.7020 -0.4975
63818SOL    HW1 9064   6.932   1.352   9.036  1.0639 -1.0612 -2.1017
63818SOL    HW2 9065   6.980   1.493   9.065 -0.0059 -0.7745 -1.6711
63819SOL     OW 9066   0.736  12.056  12.555  0.0369 -0.1817  0.4150
63819SOL    HW1 9067   0.695  12.050  12.641  1.7192  1.1005  1.3901
63819SOL    HW2 9068   0.806  11.991  12.557  1.4433  1.2675  0.9026
63820SOL     OW 9069  12.026  12.471  11.316  0.5002  0.0779 -0.7350
63820SOL    HW1 9070  11.946  12.420  11.326 -0.1125  1.3516  1.5282
63820SOL    HW2 9071  12.055  12.453  11.226 -3.0466  0.6226 -2.1716
63821SOL     OW 9072   0.482   8.404   0.569  0.2136 -0.0174 -0.4468
63821SOL    HW1 9073   0.474   8.492   0.607 -0.1937 -0.2548  0.0331
63821SOL    HW2 9074   0.510   8.419   0.479  1.0262  0.5686 -0.1039
63822SOL     OW 9075  11.143   3.954   6.896 -0.0860  0.0884 -0.0092
63822SOL    HW1 9076  11.058   3.911   6.883 -0.5605  1.5890 -2.7659
63822SOL    HW2 9077  11.206   3.896   6.853 -0.1552  0.2933 -0.3938
63823SOL     OW 9078   6.581  11.564  12.290 -0.3459 -0.0939  0.0964
63823SOL    HW1 9079   6.634  11.622  12.344 -0.1530 -0.1059 -0.0773
63823SOL    HW2 9080   6.606  11.586  12.200 -0.4194 -0.3051  0.0238
63824SOL     OW 9081   9.922   0.508   7.168  0.0716 -0.5846 -0.4634
63824SOL    HW1 9082   9.974   0.429   7.169 -0.9121 -1.2616 -1.2321
63824SOL    HW2 9083   9.879   0.509   7.254  0.0016 -0.9487 -0.4924
63825SOL     OW 9084   3.898   3.160   7.147 -0.0068  0.5133  0.3350
63825SOL    HW1 9085   3.870   3.074   7.116  1.2071  0.9755 -2.2839
63825SOL    HW2 9086   3.883   3.156   7.242 -1.8132 -1.8425  0.0768
63826SOL     OW 9087   5.535   5.552  11.713 -0.4974  0.1116 -0.0024
63826SOL    HW1 9088   5.512   5.637  11.676  0.7411 -0.1037 -1.3620
63826SOL    HW2 9089   5.623   5.564  11.749  0.2261 -0.8762 -1.3312
63827SOL     OW 9090   7.291   6.394  13.786  0.0903  0.3899  1.1211
63827SOL    HW1 9091   7.342   6.434  13.716 -1.8502 -0.5717 -0.9729
63827SOL    HW2 9092   7.254   6.467  13.834  0.5573  1.0814  0.4476
63828SOL     OW 9093   5.968  10.632  13.740 -0.0819 -0.4184  0.3236
63828SOL    HW1 9094   5.989  10.724  13.722 -0.8649 -0.1794  0.6277
63828SOL    HW2 9095   6.021  10.583  13.677 -2.0136  0.3570 -2.0285
63829SOL     OW 9096   8.470   9.967   6.577 -0.1484  0.1733 -0.7127
63829SOL    HW1 9097   8.427   9.909   6.514  0.4645 -1.3976  0.2606
63829SOL    HW2 9098   8.443   9.933   6.662 -1.4777  2.6443 -0.0571
63830SOL     OW 9099  12.640   1.875   5.524  0.3489  0.3645 -0.2228
63830SOL    HW1 9100  12.599   1.959   5.542  1.2504  0.6604  0.5297
63830SOL    HW2 9101  12.567   1.816   5.503 -0.5264  0.6758  1.8018
63831SOL     OW 9102  10.007   3.489   3.257 -0.3634  0.8365  0.1787
63831SOL    HW1 9103   9.994   3.581   3.231 -1.7961  0.8240  0.7557
63831SOL    HW2 9104   9.963   3.482   3.342  3.1876  0.5841  2.1711
63832SOL     OW 9105  13.156  13.086   9.191  0.5022  0.4787 -0.1311
63832SOL    HW1 9106  13.127  12.998   9.166 -0.1986  1.2219 -2.1640
63832SOL    HW2 9107  13.247  13.090   9.163 -0.1282  1.1266 -2.3175
63833SOL     OW 9108   9.384  10.742   6.750  0.6314 -0.3735  0.3375
63833SOL    HW1 9109   9.341  10.777   6.672 -0.6067 -1.7540  0.3538
63833SOL    HW2 9110   9.450  10.681   6.716 -1.7912 -3.1649  0.2696
63834SOL     OW 9111   3.333   8.731   7.782  0.3253  0.2606 -0.0645
63834SOL    HW1 9112   3.402   8.723   7.847 -0.0501  0.2013  0.3351
63834SOL    HW2 9113   3.257   8.689   7.822  0.3146 -0.5296 -0.8858
63835SOL     OW 9114   5.066   7.389   1.519 -0.0716 -0.2339 -1.0378
63835SOL    HW1 9115   5.042   7.403   1.427 -0.2230 -1.3366 -1.1772
63835SOL    HW2 9116   4.984   7.402   1.567 -0.3881 -1.3446 -1.2457
63836SOL     OW 9117   1.120   9.045  11.749  0.5477 -0.4625  0.1133
63836SOL    HW1 9118   1.078   9.047  11.835 -2.0379  0.8461 -1.0777
63836SOL    HW2 9119   1.109   8.955  11.718  0.4115 -0.6251  0.6363
63837SOL     OW 9120   5.168   4.132  10.031 -0.4947 -0.0405 -0.2651
63837SOL    HW1 9121   5.182   4.210  10.084  0.8095 -1.3114  1.3605
63837SOL    HW2 9122   5.134   4.166   9.948 -1.2573  2.1233  0.8518
63838SOL     OW 9123   1.065   3.105  11.899  0.0583 -0.2258 -0.4558
63838SOL    HW1 9124   1.036   3.183  11.852  0.1621  0.3188  0.3643
63838SOL    HW2 9125   1.143   3.075  11.851  1.9879  2.0505  1.0135
63839SOL     OW 9126  10.522  11.908  10.903 -0.1393  0.2460 -0.0859
63839SOL    HW1 9127  10.609  11.947  10.888 -0.0246 -0.0614 -0.2282
63839SOL    HW2 9128  10.539  11.814  10.911 -0.4616  0.1821 -0.1385
63840SOL     OW 9129   3.147   7.922   5.193  0.3877  0.3908  0.1075
63840SOL    HW1 9130   3.240   7.922   5.215  0.2819  0.4140  0.5741
63840SOL    HW2 9131   3.106   7.870   5.262  0.0787  0.2151 -0.2045
63841SOL     OW 9132   1.212   9.846   2.084 -0.6929  0.3605  0.2443
63841SOL    HW1 9133   1.215   9.751   2.079 -0.3656  0.4030 -0.5973
63841SOL    HW2 9134   1.143   9.865   2.147 -2.1190 -0.4194 -1.0204
63842SOL     OW 9135   2.665   7.160  12.628 -0.6894  0.4940 -0.0287
63842SOL    HW1 9136   2.760   7.169  12.625 -0.6430  0.5980  1.4858
63842SOL    HW2 9137   2.632   7.239  12.585 -0.1028  0.8916  0.2423
63843SOL     OW 9138   4.473   1.752   0.937  0.5092  0.3236  0.1035
63843SOL    HW1 9139   4.468   1.824   1.000  3.0085 -0.6191  1.5358
63843SOL    HW2 9140   4.436   1.677   0.982  0.8801 -0.0030 -0.1252
63844SOL     OW 9141  12.055   2.740   0.066  0.0248 -0.3261  0.5259
63844SOL    HW1 9142  12.127   2.800   0.086 -1.9025  1.3913  3.0334
63844SOL    HW2 9143  12.078   2.659   0.111  2.0837 -1.2339 -1.8962
63845SOL     OW 9144  11.895  11.157   6.682  0.1021 -0.2153 -0.1711
63845SOL    HW1 9145  11.965  11.215   6.653  0.6224 -0.7061  0.0728
63845SOL    HW2 9146  11.864  11.197   6.763 -0.9199  0.8068 -1.0283
63846SOL     OW 9147   2.469  10.250   8.223  0.3252  0.8298 -0.0877
63846SOL    HW1 9148   2.554  10.282   8.255 -0.3631  1.4742  1.1794
63846SOL    HW2 9149   2.442  10.186   8.289  0.2108 -0.0168 -0.9417
63847SOL     OW 9150   4.503  11.440   6.309 -0.2039 -0.0214  0.1339
63847SOL    HW1 9151   4.532  11.353   6.337 -0.5109 -0.4074 -0.7136
63847SOL    HW2 9152   4.579  11.476   6.263 -0.4140 -0.2651 -0.4158
63848SOL     OW 9153   5.011   3.495   7.316 -0.2938 -0.0235 -0.0824
63848SOL    HW1 9154   5.009   3.499   7.221  2.0108 -0.9959 -0.2287
63848SOL    HW2 9155   5.010   3.402   7.337 -0.6233  0.1752  0.8530
63849SOL     OW 9156   0.818  11.231   9.821  0.3932 -0.3020  0.0285
63849SOL    HW1 9157   0.838  11.182   9.741  1.2973 -0.6248  0.4325
63849SOL    HW2 9158   0.751  11.294   9.795 -0.5174 -1.4934 -0.5935
63850SOL     OW 9159  10.510  11.022  10.728  0.1529 -0.0011 -0.0905
63850SOL    HW1 9160  10.465  11.070  10.659 -0.6638 -1.2046 -0.4392
63850SOL    HW2 9161  10.505  11.079  10.805 -0.6868  0.5139 -0.5112
63851SOL     OW 9162   2.723   8.596   7.533 -0.2305 -0.0855 -0.1884
63851SOL    HW1 9163   2.751   8.518   7.484 -0.9694 -0.2547 -0.3620
63851SOL    HW2 9164   2.740   8.575   7.625 -1.2484 -0.8296 -0.1503
63852SOL     OW 9165   9.927   4.171   4.769  0.5428  0.0963 -0.4675
63852SOL    HW1 9166   9.859   4.137   4.827  1.2671 -0.9614 -0.2215
63852SOL    HW2 9167   9.935   4.104   4.700  2.5988 -0.7218  0.4945
63853SOL     OW 9168   0.943  12.574  13.498 -0.1152 -0.2337  0.1830
63853SOL    HW1 9169   0.904  12.492  13.467 -3.1666  0.8186  0.8784
63853SOL    HW2 9170   0.987  12.550  13.580  0.4520 -1.4103 -0.4296
63854SOL     OW 9171  12.974   5.186   9.051  0.2972  0.0785 -0.1794
63854SOL    HW1 9172  13.036   5.240   9.002 -0.3015  0.3688 -0.6382
63854SOL    HW2 9173  12.904   5.247   9.075  0.9747  0.1421  1.7906
63855SOL     OW 9174   4.297   3.756   0.268  0.6671  0.0920  0.1993
63855SOL    HW1 9175   4.389   3.777   0.254  1.0065 -0.7859  1.0032
63855SOL    HW2 9176   4.249   3.833   0.237  1.6502  0.4073 -0.5593
63856SOL     OW 9177   9.424   2.149   9.460  0.5465 -0.1233 -0.2598
63856SOL    HW1 9178   9.464   2.065   9.483  1.6596 -0.2944 -2.5380
63856SOL    HW2 9179   9.462   2.212   9.521  0.6923 -1.0519  0.6322
63857SOL     OW 9180   4.199   1.388  10.874  0.6557  0.1735  0.2650
63857SOL    HW1 9181   4.129   1.438  10.917  0.3964  0.2124 -0.1950
63857SOL    HW2 9182   4.257   1.362  10.946 -0.9914 -1.7452  0.9709
63858SOL     OW 9183   5.585   9.235   5.034 -0.1289 -0.0960  0.0963
63858SOL    HW1 9184   5.612   9.213   4.945  2.9119 -1.5089  1.1949
63858SOL    HW2 9185   5.633   9.315   5.055 -0.5504  0.0369  0.5827
63859SOL     OW 9186   0.052   9.544  10.865 -0.3449  0.2398  0.6129
63859SOL    HW1 9187   0.105   9.615  10.828 -2.3328  0.8543 -1.2519
63859SOL    HW2 9188   0.072   9.468  10.809 -0.6265  0.1851  0.5853
63860SOL     OW 9189   2.745   4.249   4.473 -0.2001 -0.5440  0.2852
63860SOL    HW1 9190   2.746   4.261   4.378  3.1008 -3.2439 -0.2387
63860SOL    HW2 9191   2.713   4.160   4.486  1.4660 -1.0257  1.4594
63861SOL     OW 9192  10.850   4.890   4.149 -0.5441  0.0949 -0.0295
63861SOL    HW1 9193  10.912   4.863   4.217 -0.7275 -0.8639 -0.2322
63861SOL    HW2 9194  10.806   4.967   4.185  1.3285  1.3180 -0.2055
63862SOL     OW 9195   3.009  10.334   0.933  0.2897  0.6402 -0.4351
63862SOL    HW1 9196   3.068  10.260   0.917  0.7405  1.3744 -2.5067
63862SOL    HW2 9197   3.066  10.404   0.964  0.2317  0.7957 -0.6747
63863SOL     OW 9198   0.687  11.364   7.521  0.1660 -0.4832  0.1854
63863SOL    HW1 9199   0.772  11.337   7.555 -0.2679 -2.9231 -0.4343
63863SOL    HW2 9200   0.707  11.403   7.436  0.8906  2.0435  1.4256
63864SOL     OW 9201   5.049  11.118   0.615 -0.1636  0.0017 -0.3388
63864SOL    HW1 9202   5.019  11.205   0.589  1.0475  0.5494  0.0041
63864SOL    HW2 9203   5.120  11.099   0.553  0.9856  0.1905  0.8901
63865SOL     OW 9204   2.440   7.892   8.731  0.5990 -0.0544  0.1455
63865SOL    HW1 9205   2.410   7.931   8.649 -1.1427 -0.1464  0.6884
63865SOL    HW2 9206   2.534   7.882   8.720  0.8069  2.3031 -0.8300
63866SOL     OW 9207   4.033   6.087   3.140 -0.0727  0.0218  0.4501
63866SOL    HW1 9208   4.085   6.148   3.192 -1.2021  2.4509 -1.0507
63866SOL    HW2 9209   4.081   6.080   3.057 -0.9410  0.4527 -0.0989
63867SOL     OW 9210   1.297   3.036   6.669  0.3001 -0.2357  0.0814
63867SOL    HW1 9211   1.368   2.999   6.616  2.0379  1.3781  1.1944
63867SOL    HW2 9212   1.318   3.010   6.759 -1.1539 -0.6505  0.3329
63868SOL     OW 9213   3.299  11.745  12.325 -0.2864  0.5350 -0.5903
63868SOL    HW1 9214   3.321  11.749  12.418 -1.7508 -2.3052 -0.0085
63868SOL    HW2 9215   3.208  11.775  12.321 -1.0929 -1.7308 -0.6359
63869SOL     OW 9216   8.572   0.656   4.465 -0.4979  0.4069 -0.2917
63869SOL    HW1 9217   8.612   0.700   4.540  1.5342 -1.6472 -0.0335
63869SOL    HW2 9218   8.584   0.717   4.392  1.2763  0.7800  0.2525
63870SOL     OW 9219   3.330   6.037   1.553  0.0035 -0.4362  0.6721
63870SOL    HW1 9220   3.343   6.124   1.592  0.4620 -1.2057  2.3263
63870SOL    HW2 9221   3.396   5.982   1.594  0.0875 -1.4640 -0.7753
63871SOL     OW 9222   0.283  11.193   3.127 -0.1877 -0.2796 -0.7193
63871SOL    HW1 9223   0.248  11.236   3.205  1.0705  1.0760 -0.8583
63871SOL    HW2 9224   0.264  11.100   3.141  0.0935 -0.1001  1.2647
63872SOL     OW 9225   1.201  10.954   9.487 -0.5608  0.1909  0.0747
63872SOL    HW1 9226   1.256  11.033   9.491 -0.7871  0.3386  0.3595
63872SOL    HW2 9227   1.174  10.949   9.396 -0.6398  0.5100  0.0774
63873SOL     OW 9228  11.639  10.859   2.646 -0.3445  0.1616  0.0975
63873SOL    HW1 9229  11.702  10.932   2.644 -1.0680  0.7948 -0.4583
63873SOL    HW2 9230  11.691  10.783   2.672  1.0589  0.2919 -2.0288
63874SOL     OW 9231  12.594  13.144   3.204 -0.6117 -0.0157 -0.3323
63874SOL    HW1 9232  12.657  13.217   3.196  0.8000 -1.3438 -2.6247
63874SOL    HW2 9233  12.640  13.069   3.166 -1.8384 -2.2812  2.3100
63875SOL     OW 9234   7.605   8.807   5.676 -0.0404  0.7074 -0.5092
63875SOL    HW1 9235   7.652   8.877   5.721  2.0986 -1.2608  0.5336
63875SOL    HW2 9236   7.674   8.753   5.636 -1.4393 -1.7092  0.1011
63876SOL     OW 9237   2.571   5.467   4.650 -0.0663 -0.0754 -0.4083
63876SOL    HW1 9238   2.517   5.527   4.701 -0.5933 -0.3636 -0.6164
63876SOL    HW2 9239   2.570   5.504   4.561  0.0849 -0.0752 -0.4098
63877SOL     OW 9240   0.654   7.971   8.835 -0.5804 -0.3380  0.2696
63877SOL    HW1 9241   0.674   7.879   8.820  0.0183 -0.0573 -0.7629
63877SOL    HW2 9242   0.561   7.973   8.855 -0.1315 -1.4396  2.9525
63878SOL     OW 9243   3.395  13.804   7.127 -0.0711 -0.1543 -0.2123
63878SOL    HW1 9244   3.446  13.764   7.197  0.4205 -0.5767 -0.7941
63878SOL    HW2 9245   3.306  13.772   7.140 -0.0324 -0.0260  0.3630
63879SOL     OW 9246   3.637  10.613   1.417  0.1355 -0.3821  0.3613
63879SOL    HW1 9247   3.653  10.646   1.505 -1.1910  0.8814  0.1506
63879SOL    HW2 9248   3.613  10.521   1.430 -2.8013  0.4417  1.6589
63880SOL     OW 9249   5.275   0.475   6.511  0.0743  0.0039  0.0810
63880SOL    HW1 9250   5.193   0.433   6.485 -1.1409  0.6997  2.4471
63880SOL    HW2 9251   5.342   0.409   6.496 -1.1766 -1.2632 -0.1948
63881SOL     OW 9252   7.387   8.121  14.054  0.1102 -0.4491  0.4392
63881SOL    HW1 9253   7.436   8.040  14.067  1.2091 -0.2134 -1.6825
63881SOL    HW2 9254   7.439   8.188  14.098  0.2763 -0.6092  0.4886
63882SOL     OW 9255   8.669  11.130   1.049  0.1336 -0.0211 -0.1092
63882SOL    HW1 9256   8.606  11.067   1.014  0.1645 -0.3748  0.4538
63882SOL    HW2 9257   8.635  11.152   1.135 -0.8118  2.0541 -0.9463
63883SOL     OW 9258   9.356   7.939   2.934  0.8004  0.0967 -0.3203
63883SOL    HW1 9259   9.328   7.962   2.845  0.1822  0.6901  0.0213
63883SOL    HW2 9260   9.384   7.848   2.927 -1.9181 -0.8057 -0.5405
63884SOL     OW 9261  11.332  11.685   9.394  0.3115 -0.3017  0.5356
63884SOL    HW1 9262  11.276  11.761   9.376  0.8244  0.1141  0.6646
63884SOL    HW2 9263  11.310  11.622   9.326  0.0402  0.0496  0.2942
63885SOL     OW 9264   1.169   4.928   6.441  0.1232 -0.3247  0.0676
63885SOL    HW1 9265   1.153   5.021   6.458 -0.9732 -0.0980 -1.9626
63885SOL    HW2 9266   1.084   4.886   6.456  0.0081 -0.6155 -1.2919
63886SOL     OW 9267   4.362   7.778   5.613 -0.3231  0.8063  0.1024
63886SOL    HW1 9268   4.284   7.734   5.580 -0.1077  1.4248 -1.3084
63886SOL    HW2 9269   4.408   7.711   5.663 -1.4347  0.2629  0.4274
63887SOL     OW 9270   7.267   2.498  13.552 -0.1919  0.4230 -0.1457
63887SOL    HW1 9271   7.176   2.473  13.535 -0.0025 -0.2794 -0.1719
63887SOL    HW2 9272   7.265   2.539  13.639 -0.6368  1.0388 -0.4387
63888SOL     OW 9273  12.255   3.365   4.454 -0.2666  0.2066 -0.0992
63888SOL    HW1 9274  12.270   3.270   4.458 -0.5134  0.1905  0.5180
63888SOL    HW2 9275  12.213   3.386   4.537 -1.5249  0.6308 -0.8214
63889SOL     OW 9276  13.278   6.246  13.737 -0.0023  0.3827  0.0074
63889SOL    HW1 9277  13.197   6.222  13.783 -0.7563 -0.7548 -1.7760
63889SOL    HW2 9278  13.339   6.270  13.806 -1.2674 -0.6076  1.5368
63890SOL     OW 9279  12.894   3.554   7.070 -0.1737 -0.5734  0.3667
63890SOL    HW1 9280  12.938   3.537   7.153 -0.3066  2.0275  1.0518
63890SOL    HW2 9281  12.815   3.500   7.074  0.4852 -1.5357  1.2725
63891SOL     OW 9282   6.849   7.133   4.537  0.0896 -0.0736 -0.3842
63891SOL    HW1 9283   6.834   7.055   4.484  0.7296  0.3791 -1.2574
63891SOL    HW2 9284   6.886   7.100   4.619 -1.6256 -0.8398  0.1119
63892SOL     OW 9285   4.940  10.624   4.187 -0.5611 -0.0075 -0.4282
63892SOL    HW1 9286   4.909  10.550   4.135  0.3720  0.4862 -1.7443
63892SOL    HW2 9287   5.035  10.626   4.173 -0.6102  1.6920 -0.7825
63893SOL     OW 9288   9.883   0.219   6.054 -0.4886 -0.2424 -0.2867
63893SOL    HW1 9289   9.973   0.189   6.045 -0.4791 -0.1390 -0.5271
63893SOL    HW2 9290   9.833   0.139   6.072 -0.4726 -0.4196 -0.9971
63894SOL     OW 9291  13.202   2.228   7.662 -0.1561 -0.2917 -0.0799
63894SOL    HW1 9292  13.107   2.235   7.663 -0.0873  2.2184 -1.3178
63894SOL    HW2 9293  13.224   2.227   7.569  1.0352 -1.1786  0.1931
63895SOL     OW 9294   3.729   0.254   0.743  0.2333  0.2919 -0.2076
63895SOL    HW1 9295   3.701   0.328   0.797 -2.6081 -1.4192  0.9191
63895SOL    HW2 9296   3.772   0.194   0.804  1.8900  0.6447 -0.9784
63896SOL     OW 9297  11.467  11.883   9.151 -0.0945  0.5886 -0.2563
63896SOL    HW1 9298  11.379  11.898   9.186 -0.3751 -0.7608 -0.3510
63896SOL    HW2 9299  11.512  11.833   9.220  0.2871  0.4339 -0.6142
63897SOL     OW 9300   4.034   8.251  11.350  0.2414 -0.4175  0.0229
63897SOL    HW1 9301   3.971   8.309  11.393  0.4983  0.5792 -0.8868
63897SOL    HW2 9302   4.083   8.309  11.291  0.9228 -1.4640 -0.4695
63898SOL     OW 9303   9.694  13.549   6.380  0.1313 -0.4257  0.4678
63898SOL    HW1 9304   9.616  13.530   6.328  0.0116 -1.6375  1.0372
63898SOL    HW2 9305   9.679  13.501   6.462  1.0960  0.0169  0.9144
63899SOL     OW 9306   2.266   4.409   3.645  0.1042  0.2891  0.2443
63899SOL    HW1 9307   2.360   4.420   3.630  0.3106 -0.7031  0.7533
63899SOL    HW2 9308   2.235   4.496   3.668  0.3017  1.3343 -2.9229
63900SOL     OW 9309   7.032  10.329  12.111 -0.1444 -0.3452  0.1792
63900SOL    HW1 9310   6.991  10.244  12.126  0.7053 -1.3085 -2.4042
63900SOL    HW2 9311   7.126  10.310  12.103  0.1951  1.0145  0.5544
63901SOL     OW 9312   7.218   1.574  10.215 -0.0659 -0.6315 -0.3960
63901SOL    HW1 9313   7.218   1.527  10.298  0.3976 -3.1696 -1.7400
63901SOL    HW2 9314   7.310   1.598  10.201 -0.3307  1.0334  0.3954
63902SOL     OW 9315   8.242  13.632  12.641 -0.7141  0.1490  0.9516
63902SOL    HW1 9316   8.184  13.645  12.566  0.1032  0.5770  0.3763
63902SOL    HW2 9317   8.297  13.557  12.617 -0.5932  0.1493  1.2164
63903SOL     OW 9318  12.339   4.760  11.099 -0.2103  0.0948  0.3908
63903SOL    HW1 9319  12.415   4.796  11.053 -0.5721 -0.7640 -0.9236
63903SOL    HW2 9320  12.376   4.698  11.161  0.3217  1.6521  1.7049
63904SOL     OW 9321   5.401   2.061   0.990  0.1883  0.0945 -0.4139
63904SOL    HW1 9322   5.328   2.000   0.989  1.1985 -1.2533  1.5144
63904SOL    HW2 9323   5.369   2.135   1.041 -0.2295  0.0789 -0.6460
63905SOL     OW 9324   0.827   6.414   5.484  0.2476 -0.4475 -0.6275
63905SOL    HW1 9325   0.868   6.453   5.560 -0.7159  1.0026 -0.8136
63905SOL    HW2 9326   0.869   6.455   5.409 -0.6902  0.1912 -0.8274
63906SOL     OW 9327   3.245  10.485   0.089  0.1195  0.1026 -0.3988
63906SOL    HW1 9328   3.316  10.437   0.130  1.2170  0.1357 -2.1240
63906SOL    HW2 9329   3.249  10.572   0.128 -1.0872 -0.7690  1.8386
63907SOL     OW 9330  10.534  12.101   5.616  0.4501  0.5099 -0.2379
63907SOL    HW1 9331  10.602  12.169   5.620  0.6461  0.3111 -0.2261
63907SOL    HW2 9332  10.512  12.084   5.707  1.0344 -0.0851 -0.2065
63908SOL     OW 9333   4.185   0.108   8.265 -0.6168 -0.2664  0.2445
63908SOL    HW1 9334   4.176   0.158   8.346  0.7882  0.4392 -0.0044
63908SOL    HW2 9335   4.098   0.111   8.226 -0.7035  1.6324  0.4752
63909SOL     OW 9336  10.914   8.030  12.548  0.2689  0.0472  0.3638
63909SOL    HW1 9337  10.912   7.955  12.489  1.4597  0.4951 -0.2752
63909SOL    HW2 9338  10.842   8.086  12.518  0.6695  0.1246 -0.4823
63910SOL     OW 9339   9.771   9.674   9.178  0.0157  0.2074  0.1479
63910SOL    HW1 9340   9.728   9.622   9.246  1.1487 -1.2671 -0.2020
63910SOL    HW2 9341   9.719   9.754   9.172 -0.5439  0.0569  2.2214
63911SOL     OW 9342   4.540  13.909   1.837 -0.6363  0.0733 -0.1592
63911SOL    HW1 9343   4.601  13.840   1.811  0.1869  0.8382 -0.2732
63911SOL    HW2 9344   4.560  13.982   1.779 -1.2796  0.5372  0.1904
63912SOL     OW 9345  11.916  10.613   4.953  0.0633  0.7452  0.3611
63912SOL    HW1 9346  11.913  10.573   4.866  0.5902  1.5135 -0.0292
63912SOL    HW2 9347  11.894  10.543   5.013  0.0649  0.1076 -0.3701
63913SOL     OW 9348   2.692   1.503   7.203  0.0261  0.1875 -0.6296
63913SOL    HW1 9349   2.764   1.441   7.204 -0.8606 -0.8733  0.7221
63913SOL    HW2 9350   2.733   1.588   7.187  1.4393 -0.5226 -0.8890
63914SOL     OW 9351   1.534  13.212   8.357 -0.1787 -0.6459  0.6180
63914SOL    HW1 9352   1.462  13.151   8.371 -0.7933  0.2841  1.7423
63914SOL    HW2 9353   1.492  13.296   8.342  0.5831 -0.7156 -2.7605
63915SOL     OW 9354   2.148  11.064  13.728 -0.1841  0.2262  0.4089
63915SOL    HW1 9355   2.058  11.099  13.729 -2.3042 -4.1434 -3.0825
63915SOL    HW2 9356   2.187  11.101  13.649 -0.4860 -0.9568 -0.3195
63916SOL     OW 9357  11.689   3.856   3.988  0.0909 -0.2663 -0.1029
63916SOL    HW1 9358  11.685   3.764   4.013 -1.2069 -0.1567  0.1553
63916SOL    HW2 9359  11.619   3.898   4.038  1.6028  1.1528  0.9402
63917SOL     OW 9360   2.791   9.476   5.704 -0.4285 -0.3301 -1.2623
63917SOL    HW1 9361   2.840   9.454   5.625  1.0353  1.0210 -0.7672
63917SOL    HW2 9362   2.789   9.572   5.706 -1.7755 -0.3471 -0.4487
63918SOL     OW 9363   3.583   0.547   7.533 -0.0008 -0.1521  0.0789
63918SOL    HW1 9364   3.604   0.465   7.578 -0.9002 -0.2429  0.3400
63918SOL    HW2 9365   3.528   0.595   7.594  0.0711  0.4125 -0.2949
63919SOL     OW 9366  11.692   6.813  11.110  0.7023 -0.3581 -0.1426
63919SOL    HW1 9367  11.621   6.767  11.065 -0.2744  0.2123  0.7542
63919SOL    HW2 9368  11.723   6.878  11.046 -1.5264  1.3224  0.3360
63920SOL     OW 9369  14.062  13.252  10.984  0.1457  0.0024 -0.2585
63920SOL    HW1 9370  14.059  13.217  11.073  0.5841  1.4413  0.3610
63920SOL    HW2 9371  14.006  13.330  10.987  1.0022  0.6728 -0.9406
63921SOL     OW 9372   2.152   2.962  12.996  0.5295  0.0805  0.7807
63921SOL    HW1 9373   2.172   3.040  12.944  1.3031 -1.4061 -1.2646
63921SOL    HW2 9374   2.238   2.932  13.027  0.2210  0.0665  1.6477
63922SOL     OW 9375   3.424  10.388  10.217  0.3786 -0.9897  0.1464
63922SOL    HW1 9376   3.415  10.402  10.123 -1.2681 -0.5477  0.3276
63922SOL    HW2 9377   3.334  10.371  10.247  0.3662  1.8850  2.0814
63923SOL     OW 9378   9.615   1.963  10.125  0.0776  0.0303  0.4152
63923SOL    HW1 9379   9.649   2.010  10.202 -0.5935  0.7558  0.2863
63923SOL    HW2 9380   9.572   2.031  10.073  1.6778 -0.2022 -1.2962
63924SOL     OW 9381   1.592  10.319   9.175  0.6003  0.2221  0.1890
63924SOL    HW1 9382   1.567  10.273   9.255  0.6340  0.9955  0.6519
63924SOL    HW2 9383   1.686  10.305   9.167  0.2267 -2.0766 -1.1600
63925SOL     OW 9384   3.281   6.675   1.056 -0.0969  0.1335 -0.1431
63925SOL    HW1 9385   3.368   6.635   1.053 -0.0283  0.1122  1.4229
63925SOL    HW2 9386   3.287   6.750   0.998  0.2201 -1.2456 -1.9857
63926SOL     OW 9387  13.476   9.783  12.433  0.2827 -0.5797  0.6247
63926SOL    HW1 9388  13.492   9.876  12.454 -1.3734  0.2433 -1.4273
63926SOL    HW2 9389  13.512   9.773  12.345 -1.6224 -1.2475 -0.1050
63927SOL     OW 9390   1.023   1.963   2.650 -0.2566 -0.0370  0.5153
63927SOL    HW1 9391   1.042   1.932   2.561  0.1519  2.0211 -0.1663
63927SOL    HW2 9392   0.962   2.036   2.638 -1.3337 -0.6154  2.0606
63928SOL     OW 9393  10.426   3.766   0.981 -0.6677 -0.7616 -0.2556
63928SOL    HW1 9394  10.462   3.706   0.916 -0.2979  0.3678 -1.1158
63928SOL    HW2 9395  10.357   3.814   0.934  1.1997  1.7752 -0.5871
63929SOL     OW 9396   0.436  12.486   8.070 -0.2849  0.4849 -0.0509
63929SOL    HW1 9397   0.414  12.552   8.136 -2.1790 -0.2064  0.0684
63929SOL    HW2 9398   0.477  12.535   7.999  1.9305  1.2374  1.6277
63930SOL     OW 9399   3.803   0.799  12.937 -0.2196  0.0353 -0.3401
63930SOL    HW1 9400   3.836   0.883  12.970 -0.6463  1.0387 -2.2958
63930SOL    HW2 9401   3.767   0.820  12.851  1.5403 -2.5161 -1.8484
63931SOL     OW 9402   3.584  10.069  10.733 -0.3529 -0.3222 -0.5307
63931SOL    HW1 9403   3.497  10.102  10.756  0.2483  0.5195  0.6484
63931SOL    HW2 9404   3.571   9.976  10.716 -1.1828 -0.6251  1.5283
63932SOL     OW 9405   1.902   5.933  10.794  0.1883  0.2879 -0.2964
63932SOL    HW1 9406   1.890   5.838  10.791  1.1709 -0.0999  3.4611
63932SOL    HW2 9407   1.971   5.950  10.730  1.3365 -1.8331  0.2749
63933SOL     OW 9408   0.171   1.257  12.469 -0.0359 -0.1039 -0.1293
63933SOL    HW1 9409   0.170   1.165  12.443  0.3358 -0.2789  0.4423
63933SOL    HW2 9410   0.128   1.303  12.397 -1.9825 -0.9539  0.4058
63934SOL     OW 9411   6.527   1.834   3.484 -0.3007 -0.1223  0.1333
63934SOL    HW1 9412   6.497   1.764   3.542 -1.5968  0.1802 -0.1239
63934SOL    HW2 9413   6.523   1.797   3.396  0.2454 -0.1227  0.1073
63935SOL     OW 9414   2.026   5.153  11.803 -0.7458  0.2210  0.0850
63935SOL    HW1 9415   2.022   5.062  11.776 -0.2781  0.3350 -0.3864
63935SOL    HW2 9416   2.094   5.156  11.871 -1.1488  0.1270  0.4978
63936SOL     OW 9417   4.702   7.364  13.193 -0.2342  0.5417 -0.3293
63936SOL    HW1 9418   4.741   7.437  13.241  0.5665 -0.9967  1.5139
63936SOL    HW2 9419   4.777   7.318  13.156 -0.7840  1.0330 -2.1105
63937SOL     OW 9420   4.493   3.053  10.031 -0.0273 -0.0465 -0.2244
63937SOL    HW1 9421   4.491   2.967  10.071 -0.4230  0.2074  0.3049
63937SOL    HW2 9422   4.580   3.086  10.049 -0.3088  0.1967  0.7074
63938SOL     OW 9423   6.818  13.646   1.667 -0.1059 -0.4475 -0.5046
63938SOL    HW1 9424   6.898  13.611   1.707  0.7554  1.7852 -0.1149
63938SOL    HW2 9425   6.845  13.674   1.580 -0.2952  0.7822 -0.1924
63939SOL     OW 9426  12.592  10.843   6.852  0.2674  0.1163 -0.1998
63939SOL    HW1 9427  12.524  10.893   6.808 -0.3139  0.1950  0.7582
63939SOL    HW2 9428  12.573  10.751   6.831 -0.6123  0.0798  0.6862
63940SOL     OW 9429   4.374   4.602   4.466 -0.0775 -0.4978  0.0935
63940SOL    HW1 9430   4.324   4.644   4.537 -1.5051 -1.5989 -0.2156
63940SOL    HW2 9431   4.417   4.528   4.509 -1.0412 -1.2383 -0.1743
63941SOL     OW 9432  13.101   3.148   2.334 -0.3337 -0.1295  0.1259
63941SOL    HW1 9433  13.044   3.186   2.400 -1.2282 -0.2714 -0.5492
63941SOL    HW2 9434  13.188   3.149   2.374 -0.9756 -0.9560  1.6215
63942SOL     OW 9435  10.061   9.323  11.939  0.4958 -0.1164 -0.1799
63942SOL    HW1 9436  10.008   9.376  11.998  0.0219 -0.7400 -0.0311
63942SOL    HW2 9437  10.108   9.263  11.997 -0.1160 -0.8615 -0.4382
63943SOL     OW 9438   3.052   8.734   9.798 -0.3024  0.2656 -0.3456
63943SOL    HW1 9439   3.092   8.774   9.876 -1.4794  0.6830  0.0616
63943SOL    HW2 9440   3.124   8.685   9.758 -0.1074 -1.6156  2.0756
63944SOL     OW 9441   1.250   1.571  11.281  0.3396 -0.2186  0.0986
63944SOL    HW1 9442   1.321   1.632  11.301  0.0372 -0.0495  0.7021
63944SOL    HW2 9443   1.248   1.565  11.186 -0.1122  1.2975 -0.0005
63945SOL     OW 9444  12.621   1.191  13.097  0.2817  0.1793  0.4284
63945SOL    HW1 9445  12.584   1.173  13.010  3.4511  0.6373 -1.1516
63945SOL    HW2 9446  12.615   1.286  13.106 -3.4794 -0.0542  2.5439
63946SOL     OW 9447  12.579  13.147   1.604  0.2440 -0.0853  0.3866
63946SOL    HW1 9448  12.487  13.139   1.578 -0.1548  0.2469  1.5951
63946SOL    HW2 9449  12.600  13.063   1.645  0.6444 -0.3477 -0.3442
63947SOL     OW 9450   9.112   0.225   8.941 -0.1331 -0.5600 -0.2266
63947SOL    HW1 9451   9.033   0.231   8.887  0.7283  0.6599 -1.3838
63947SOL    HW2 9452   9.151   0.141   8.917  0.4984  0.1715 -1.9168
63948SOL     OW 9453   9.795   5.248   8.403 -0.4336  0.0451  0.0450
63948SOL    HW1 9454   9.745   5.240   8.322 -0.1977 -1.2936  0.0077
63948SOL    HW2 9455   9.873   5.194   8.389  0.9199  1.8599  0.2018
63949SOL     OW 9456   8.135  12.917  11.370 -0.1801  0.1051  0.0880
63949SOL    HW1 9457   8.203  12.984  11.376 -1.5503  1.5692  0.0059
63949SOL    HW2 9458   8.067  12.956  11.315 -0.1075 -2.2133 -1.8000
63950SOL     OW 9459   3.978   5.577   8.744  0.0586  0.2201 -0.0510
63950SOL    HW1 9460   3.967   5.632   8.822 -0.1382  0.6731 -0.3937
63950SOL    HW2 9461   4.031   5.504   8.774  0.2281  0.5376  0.4441
63951SOL     OW 9462  12.675   5.065  14.079 -0.3690  0.0024 -0.3682
63951SOL    HW1 9463  12.702   5.111  14.159 -0.1289 -0.2455 -0.3020
63951SOL    HW2 9464  12.603   5.008  14.107  0.2235 -0.6613 -0.1516
63952SOL     OW 9465   0.339   5.649   2.023  0.2377 -0.0006 -0.0288
63952SOL    HW1 9466   0.312   5.688   2.106 -1.9065  1.5457 -1.3555
63952SOL    HW2 9467   0.432   5.672   2.015  0.5078 -0.2108  1.8954
63953SOL     OW 9468   9.614   0.350   0.839 -0.2892 -0.1162 -0.1734
63953SOL    HW1 9469   9.556   0.279   0.866 -1.9509  0.3871 -2.1032
63953SOL    HW2 9470   9.555   0.424   0.825  1.2438  1.3097  0.6232
63954SOL     OW 9471   9.691   1.657   3.869  0.2390 -0.4188 -0.0794
63954SOL    HW1 9472   9.682   1.636   3.776  1.9358  0.2581 -0.4225
63954SOL    HW2 9473   9.630   1.597   3.912 -0.3759 -0.9420 -1.5940
63955SOL     OW 9474   0.667   4.539   6.404  0.4977 -0.1386  0.1588
63955SOL    HW1 9475   0.728   4.569   6.471 -0.1375  0.6542  0.3929
63955SOL    HW2 9476   0.705   4.570   6.322  0.1150  0.8781  0.3559
63956SOL     OW 9477   6.515   2.541  12.778  0.1007 -0.5655  0.1286
63956SOL    HW1 9478   6.489   2.592  12.855 -2.3181 -1.3780 -0.0614
63956SOL    HW2 9479   6.584   2.483  12.809  1.9308  1.7435  0.6876
63957SOL     OW 9480   4.367   6.797  12.456 -0.1747 -0.2249 -0.0753
63957SOL    HW1 9481   4.385   6.885  12.423 -0.7753 -0.4432 -1.0241
63957SOL    HW2 9482   4.354   6.809  12.550  0.5131  0.5730 -0.0650
63958SOL     OW 9483   7.115  11.627   3.007 -0.1214  0.1005  0.1336
63958SOL    HW1 9484   7.165  11.595   2.932  0.6152  0.5265  0.4313
63958SOL    HW2 9485   7.095  11.548   3.058  1.5520  0.0518  0.7858
63959SOL     OW 9486  11.349   4.822   3.796 -0.7119 -0.2819  0.5185
63959SOL    HW1 9487  11.312   4.842   3.710 -0.7179 -1.6074  0.1906
63959SOL    HW2 9488  11.372   4.730   3.791 -0.7255 -0.3843  1.9578
63960SOL     OW 9489   3.353   9.413   4.841  0.3634  0.3290 -0.5447
63960SOL    HW1 9490   3.285   9.452   4.896  0.9108 -0.0857  0.4690
63960SOL    HW2 9491   3.435   9.453   4.872  0.8824 -1.2230  0.2100
63961SOL     OW 9492  13.036  12.339   9.090 -0.3819  0.0366 -0.0296
63961SOL    HW1 9493  13.014  12.432   9.085  1.6680  0.5634 -0.0779
63961SOL    HW2 9494  13.022  12.315   9.182  0.6045  0.8182  0.3325
63962SOL     OW 9495   6.398   6.350  13.715 -0.0448  0.6540 -0.5746
63962SOL    HW1 9496   6.480   6.353  13.765 -0.6715 -0.8283  0.5901
63962SOL    HW2 9497   6.364   6.439  13.719  0.5068  0.8233  0.6186
63963SOL     OW 9498   0.720   5.808   1.675 -0.4227  0.1915 -0.1867
63963SOL    HW1 9499   0.669   5.868   1.729 -0.4206  0.3111 -0.3188
63963SOL    HW2 9500   0.787   5.773   1.734 -0.3537  0.4037 -0.1385
63964SOL     OW 9501   2.424   4.441  11.583 -0.4901 -0.1784  0.7959
63964SOL    HW1 9502   2.503   4.420  11.533 -0.0620  2.1980  0.3696
63964SOL    HW2 9503   2.356   4.385  11.545  0.3418 -0.1008 -0.8962
63965SOL     OW 9504  10.226   1.392   2.522 -0.1499  0.3354  0.2292
63965SOL    HW1 9505  10.249   1.434   2.440  1.1144  0.9795  0.8933
63965SOL    HW2 9506  10.310   1.375   2.566 -0.7537 -0.6449  1.0749
63966SOL     OW 9507   3.766   5.553   7.190 -0.0624 -0.1445 -0.2114
63966SOL    HW1 9508   3.700   5.540   7.121 -0.6548  0.2889  0.2643
63966SOL    HW2 9509   3.827   5.481   7.178 -0.6515 -0.5892 -0.6304
63967SOL     OW 9510   9.011   2.877  13.479  0.7683 -0.0336 -0.0618
63967SOL    HW1 9511   9.092   2.848  13.437  1.6158  0.6299  1.0590
63967SOL    HW2 9512   9.040   2.929  13.554 -0.6841 -0.7312  1.0375
63968SOL     OW 9513   7.754  13.307   0.808  0.4708  0.6003  1.4821
63968SOL    HW1 9514   7.756  13.345   0.720  0.0203  0.9188  1.6057
63968SOL    HW2 9515   7.673  13.340   0.847  0.3229 -0.0843  1.7776
63969SOL     OW 9516  11.493   3.388  12.599  0.4318 -0.5372  0.3856
63969SOL    HW1 9517  11.415   3.443  12.590  0.1902 -1.0861 -1.1407
63969SOL    HW2 9518  11.491   3.331  12.522  0.4949 -2.9406  2.0667
63970SOL     OW 9519   0.403   8.838   6.829  1.0416  0.0902 -0.3073
63970SOL    HW1 9520   0.490   8.875   6.817  0.8141  0.4018 -1.0712
63970SOL    HW2 9521   0.419   8.750   6.863  1.5904  0.8008  1.3444
63971SOL     OW 9522   8.132   7.257   9.258  0.7287  0.0736 -0.0251
63971SOL    HW1 9523   8.067   7.219   9.199 -0.7514  0.4355  1.2883
63971SOL    HW2 9524   8.205   7.196   9.257 -0.1595 -1.0031 -0.6082
63972SOL     OW 9525   0.957  12.930  10.368 -0.3354 -0.5192 -0.2962
63972SOL    HW1 9526   1.039  12.980  10.377  0.6603 -1.9029 -1.2391
63972SOL    HW2 9527   0.924  12.923  10.458  0.1321  0.7743  0.0042
63973SOL     OW 9528   7.708  12.129  14.049  0.4230  0.4226 -0.1202
63973SOL    HW1 9529   7.712  12.224  14.035 -0.7408  0.5080  0.0734
63973SOL    HW2 9530   7.622  12.103  14.016  0.6100 -0.5197  0.1095
63974SOL     OW 9531   1.858   5.521   1.540 -0.1080  0.0944  0.6745
63974SOL    HW1 9532   1.834   5.578   1.614 -0.9745  0.1092  0.3982
63974SOL    HW2 9533   1.802   5.444   1.551 -0.8954  0.4828 -0.4539
63975SOL     OW 9534   9.598  11.593   3.385  0.4340 -0.0246 -0.2422
63975SOL    HW1 9535   9.627  11.505   3.362  0.8466  0.2308 -0.7124
63975SOL    HW2 9536   9.656  11.651   3.335 -1.0522  0.4966 -1.4064
63976SOL     OW 9537   7.613   2.996   4.730 -0.4246 -0.6527  1.0588
63976SOL    HW1 9538   7.658   2.999   4.815  1.4588  4.0584  0.1592
63976SOL    HW2 9539   7.521   3.011   4.752 -0.0628 -0.0926  2.3107
63977SOL     OW 9540   9.621   8.938  11.695 -0.8326  0.4767  0.1191
63977SOL    HW1 9541   9.690   8.954  11.630 -0.7807 -0.0967  0.0254
63977SOL    HW2 9542   9.571   9.020  11.698 -0.2115  0.8604  0.1128
63978SOL     OW 9543   1.820  10.788   3.931 -0.0387 -0.5565  0.1163
63978SOL    HW1 9544   1.755  10.857   3.941 -0.5490 -1.0992  0.6235
63978SOL    HW2 9545   1.849  10.768   4.020  1.3550  0.1629 -0.1459
63979SOL     OW 9546  12.964   6.988   5.613 -0.0282 -0.0436 -0.1023
63979SOL    HW1 9547  13.029   7.029   5.669  0.3863  0.0765 -0.6642
63979SOL    HW2 9548  12.944   6.905   5.657 -0.0643  0.2627  0.4680
63980SOL     OW 9549   2.257   1.453   7.579 -0.1544 -0.0944  0.3724
63980SOL    HW1 9550   2.273   1.375   7.527 -0.5098  0.1271 -0.0774
63980SOL    HW2 9551   2.218   1.420   7.661 -0.3177 -0.3830  0.1795
63981SOL     OW 9552  12.619   7.197  10.822  0.2421 -0.0606 -0.0405
63981SOL    HW1 9553  12.687   7.147  10.867  0.6112 -0.6157 -1.1870
63981SOL    HW2 9554  12.645   7.197  10.730 -1.0149  0.1927 -0.4253
63982SOL     OW 9555  12.508   1.548   8.169 -0.2335 -0.4105  0.2968
63982SOL    HW1 9556  12.489   1.539   8.263 -0.8675 -0.9700  0.1184
63982SOL    HW2 9557  12.436   1.602   8.136 -0.6549 -1.2089 -0.0904
63983SOL     OW 9558   2.037   8.160   4.704  0.2751 -0.2495  0.0446
63983SOL    HW1 9559   2.025   8.255   4.711 -1.7062 -0.2945 -1.6356
63983SOL    HW2 9560   1.985   8.124   4.777 -1.2516 -0.0754 -0.9069
63984SOL     OW 9561   0.101  11.080   8.642 -0.1585 -0.0311  0.2660
63984SOL    HW1 9562   0.160  11.101   8.570 -0.6322  0.4213  0.0075
63984SOL    HW2 9563   0.153  11.097   8.721  0.0985  0.2299  0.0424
63985SOL     OW 9564   0.189   4.473  12.699  0.1175  0.1406 -0.0105
63985SOL    HW1 9565   0.246   4.537  12.741  0.0828  0.4795 -0.4664
63985SOL    HW2 9566   0.100   4.498  12.725  0.1743 -0.4068  0.7266
63986SOL     OW 9567   4.137  12.546   9.362 -0.3410 -0.1951  0.9778
63986SOL    HW1 9568   4.142  12.619   9.301  2.7598 -0.6977  0.4616
63986SOL    HW2 9569   4.155  12.585   9.447  0.5433 -0.2051  0.8070
63987SOL     OW 9570   0.143   6.806  10.306  0.0376 -0.2952  0.0277
63987SOL    HW1 9571   0.064   6.752  10.311  1.7875 -3.2192 -1.5472
63987SOL    HW2 9572   0.149   6.831  10.214 -0.3477  2.2362  0.5873
63988SOL     OW 9573   7.283   9.610   3.870 -0.1477  0.3982  0.1958
63988SOL    HW1 9574   7.312   9.673   3.804  0.8964 -2.0967 -1.9072
63988SOL    HW2 9575   7.188   9.604   3.858  0.1327 -0.7474 -1.9022
63989SOL     OW 9576   8.491  11.401   5.418  0.5429  0.2907 -0.3345
63989SOL    HW1 9577   8.574  11.443   5.395  0.1555  2.8518  2.3392
63989SOL    HW2 9578   8.424  11.465   5.395 -0.5462 -0.9346 -0.6706
63990SOL     OW 9579   6.734  10.407  13.104 -0.0567 -0.0059 -0.0880
63990SOL    HW1 9580   6.677  10.401  13.181  1.3090 -0.1727  0.9489
63990SOL    HW2 9581   6.786  10.327  13.106  0.3891  0.2521 -0.8579
63991SOL     OW 9582   3.995   1.302   8.715  0.2184  0.1178  0.2259
63991SOL    HW1 9583   3.969   1.213   8.692 -0.4350  0.2735  0.3248
63991SOL    HW2 9584   4.076   1.317   8.668  0.4730 -0.6253  0.4197
63992SOL     OW 9585   8.076   8.038  11.315 -0.3100 -0.0875 -0.8649
63992SOL    HW1 9586   8.146   8.094  11.279 -0.3828 -0.3092 -1.3638
63992SOL    HW2 9587   8.044   8.085  11.391 -0.3205  0.5216 -1.2396
63993SOL     OW 9588   3.163   4.420   4.696  0.0166 -0.1922 -0.2525
63993SOL    HW1 9589   3.095   4.356   4.675  0.7371 -0.2286 -2.7005
63993SOL    HW2 9590   3.187   4.459   4.612  1.0467  1.8629  0.9099
63994SOL     OW 9591   9.893   0.418  13.486  0.2352  0.3171  0.5937
63994SOL    HW1 9592   9.861   0.396  13.573 -0.9151 -0.6083 -0.0371
63994SOL    HW2 9593   9.827   0.477  13.449  0.0506 -0.3060 -0.1075
63995SOL     OW 9594  12.535   6.567   2.756  0.1454 -0.2415 -0.2780
63995SOL    HW1 9595  12.551   6.657   2.784 -0.0641 -0.4955  0.7014
63995SOL    HW2 9596  12.463   6.537   2.812 -1.2498 -0.3367 -2.0292
63996SOL     OW 9597   9.938  11.212  13.819  0.5661  0.2518 -0.1691
63996SOL    HW1 9598  10.027  11.219  13.782  0.9796 -1.0435  0.5123
63996SOL    HW2 9599   9.952  11.189  13.911 -0.4792  1.3621  0.2852
63997SOL     OW 9600   2.035   3.749   1.055  0.5729  0.4611 -0.3194
63997SOL    HW1 9601   2.123   3.725   1.024  0.6094 -0.0646  0.1705
63997SOL    HW2 9602   1.981   3.747   0.976  1.2038  1.8596 -0.8149
63998SOL     OW 9603  10.758   8.521   2.532  0.4322  0.4120 -0.6305
63998SOL    HW1 9604  10.693   8.478   2.587  0.6869 -0.0880 -0.7107
63998SOL    HW2 9605  10.825   8.453   2.517 -0.5449 -0.0792 -3.1188
63999SOL     OW 9606   5.396  10.665   9.139 -0.0802  0.4194  0.0047
63999SOL    HW1 9607   5.471  10.625   9.096  1.0646 -0.2537  2.4048
63999SOL    HW2 9608   5.373  10.740   9.084  0.0923 -1.3275 -2.6200
64000SOL     OW 9609   8.672   2.934   5.830  0.4612  0.3081 -0.5880
64000SOL    HW1 9610   8.679   3.029   5.819  2.5873  0.0371 -1.9573
64000SOL    HW2 9611   8.581   2.914   5.806  0.2810  1.8516 -1.3013
64001SOL     OW 9612  12.871   2.415   0.871  0.0521 -0.0887  0.1395
64001SOL    HW1 9613  12.852   2.486   0.933 -0.8084 -0.0918 -0.1109
64001SOL    HW2 9614  12.785   2.379   0.849  0.2983  0.2057 -1.4225
64002SOL     OW 9615  13.567   6.812   0.562  0.4872  0.1691  0.0319
64002SOL    HW1 9616  13.486   6.848   0.598  1.0006 -0.2549  1.6907
64002SOL    HW2 9617  13.549   6.802   0.469 -0.5113  2.3644 -0.0609
64003SOL     OW 9618   2.440  12.389   3.697 -0.4374 -0.7102 -0.5226
64003SOL    HW1 9619   2.515  12.343   3.661  0.0865 -0.0745 -0.2594
64003SOL    HW2 9620   2.368  12.327   3.691  0.1380 -1.3661 -0.6640
64004SOL     OW 9621   8.361   3.788   1.631  0.1590  0.1311  0.3728
64004SOL    HW1 9622   8.368   3.809   1.724  1.9274  0.0243  0.2912
64004SOL    HW2 9623   8.317   3.703   1.629 -2.5007  1.4010  0.9312
64005SOL     OW 9624   2.294   2.744   9.288 -0.0274 -0.0969 -0.0223
64005SOL    HW1 9625   2.363   2.738   9.221 -0.2763 -1.4325 -0.2037
64005SOL    HW2 9626   2.328   2.807   9.351  0.4647  0.7783 -1.1136
64006SOL     OW 9627   8.004   5.073   3.326  0.1607 -1.0965  0.1225
64006SOL    HW1 9628   8.078   5.015   3.344  1.6430  1.0445  1.3792
64006SOL    HW2 9629   7.963   5.088   3.411  0.2132  0.1479 -0.0433
64007SOL     OW 9630  13.603  12.512   8.117 -0.5803  0.2308  0.5350
64007SOL    HW1 9631  13.632  12.432   8.073 -1.1117  0.0029  0.5920
64007SOL    HW2 9632  13.639  12.504   8.206  3.4973  2.2865 -0.6610
64008SOL     OW 9633   2.915  12.518   5.537  0.1357 -0.1123 -0.2724
64008SOL    HW1 9634   2.959  12.543   5.618 -0.3323 -0.8328  0.2102
64008SOL    HW2 9635   2.984  12.521   5.470  0.1356  2.2741 -0.2228
64009SOL     OW 9636   6.560  12.880   3.114 -0.2669  0.4917 -0.1758
64009SOL    HW1 9637   6.512  12.960   3.133 -0.6436 -0.0409  1.2349
64009SOL    HW2 9638   6.650  12.899   3.141 -0.6223  0.0342  1.4483
64010SOL     OW 9639  13.758   1.055   3.336  0.2396  0.1488 -0.2664
64010SOL    HW1 9640  13.711   1.113   3.276  0.9430 -0.1923 -1.1630
64010SOL    HW2 9641  13.838   1.103   3.358  0.1102  0.1582  0.1997
64011SOL     OW 9642   9.988   0.630  11.542  0.3006 -0.6155  0.1689
64011SOL    HW1 9643  10.045   0.633  11.618  0.4055 -0.2088  0.0786
64011SOL    HW2 9644   9.908   0.674  11.570  0.5205 -0.0292 -0.0965
64012SOL     OW 9645  12.454   3.037  10.641  0.0796  0.3825 -0.2163
64012SOL    HW1 9646  12.540   2.998  10.625 -0.5255 -1.4987  0.7995
64012SOL    HW2 9647  12.463   3.080  10.726  0.1814  0.7636 -0.4153
64013SOL     OW 9648   0.652   7.671   8.807  0.1436 -0.6887  0.4126
64013SOL    HW1 9649   0.589   7.706   8.744  0.9358  0.1396  0.0448
64013SOL    HW2 9650   0.737   7.683   8.764  0.5122 -2.3973  0.6090
64014SOL     OW 9651  11.444  11.862   4.379 -0.3635  0.1053  0.1263
64014SOL    HW1 9652  11.430  11.942   4.327 -0.2501 -1.4996 -2.5838
64014SOL    HW2 9653  11.538  11.859   4.394 -0.1089 -0.4097 -1.4162
64015SOL     OW 9654   0.281   8.576  10.777  0.6162  0.2828 -0.3219
64015SOL    HW1 9655   0.254   8.585  10.868 -0.0961 -0.0210 -0.5003
64015SOL    HW2 9656   0.312   8.486  10.770  2.8554  0.9393  0.1710
64016SOL     OW 9657  11.692  11.177   3.291 -0.5129 -0.4461 -0.1984
64016SOL    HW1 9658  11.735  11.118   3.353 -0.2265 -0.4067 -0.3573
64016SOL    HW2 9659  11.682  11.259   3.340 -0.3629 -0.4408 -0.1746
64017SOL     OW 9660   6.307  12.067  13.972 -0.4456 -0.2818 -0.1379
64017SOL    HW1 9661   6.394  12.096  13.997 -0.6611 -1.9678  2.9542
64017SOL    HW2 9662   6.250  12.140  13.995 -0.0204  0.4903 -1.3952
64018SOL     OW 9663  13.224   4.759  11.679 -0.2867 -0.3435 -0.3722
64018SOL    HW1 9664  13.292   4.729  11.739 -0.4256 -1.4991 -0.7620
64018SOL    HW2 9665  13.251   4.847  11.653  0.0483 -0.0355  0.9642
64019SOL     OW 9666   1.608   0.357   1.512  0.6663 -0.4250  0.0414
64019SOL    HW1 9667   1.625   0.274   1.557 -0.7003 -0.9250 -0.3267
64019SOL    HW2 9668   1.637   0.341   1.422 -0.7089 -0.9293 -0.3295
64020SOL     OW 9669   3.221  13.640  11.432 -0.6194 -0.1300 -0.1705
64020SOL    HW1 9670   3.255  13.553  11.451 -0.8783  0.1645  1.9304
64020SOL    HW2 9671   3.126  13.628  11.427 -0.6783  0.0459  0.3941
64021SOL     OW 9672   5.243   2.402   3.888  0.7768  0.0087  0.0096
64021SOL    HW1 9673   5.165   2.355   3.918  0.5052  0.5257  0.1332
64021SOL    HW2 9674   5.310   2.382   3.953  0.2569  0.9429  0.8620
64022SOL     OW 9675  11.618   2.334   3.493 -0.7004  0.0875 -0.2128
64022SOL    HW1 9676  11.582   2.267   3.551  0.7957 -0.3709  0.2557
64022SOL    HW2 9677  11.638   2.408   3.551  0.4831 -0.2432 -0.1593
64023SOL     OW 9678   0.807  11.271   4.034  0.0229  0.7608  0.1746
64023SOL    HW1 9679   0.806  11.183   3.997  2.0153  0.7025  0.1359
64023SOL    HW2 9680   0.717  11.303   4.024 -0.3303 -0.6096 -1.3995
64024SOL     OW 9681   4.077  13.396   8.989 -0.3521 -0.5333  0.4257
64024SOL    HW1 9682   3.991  13.418   8.953  0.1386 -0.1909 -0.5641
64024SOL    HW2 9683   4.102  13.315   8.943  0.5520  0.2457 -0.5000
64025SOL     OW 9684   5.955   2.087   1.530  0.2707  0.3405  0.2656
64025SOL    HW1 9685   5.974   2.024   1.460 -0.1912  0.8596 -0.3386
64025SOL    HW2 9686   5.864   2.112   1.515  0.5562  1.4347  0.2722
64026SOL     OW 9687  11.595  11.204  11.191  0.1389  0.0465 -0.0500
64026SOL    HW1 9688  11.573  11.122  11.147  0.7802 -0.6314  0.8609
64026SOL    HW2 9689  11.678  11.187  11.235 -0.6120  0.5857  1.6717
64027SOL     OW 9690   1.644   3.604   5.107 -0.1379 -0.0983 -0.3846
64027SOL    HW1 9691   1.708   3.598   5.178 -0.8403 -1.1874  0.1810
64027SOL    HW2 9692   1.697   3.607   5.027  0.8066  3.4860  0.1682
64028SOL     OW 9693   2.983  12.993   9.496 -0.4232 -0.0072  0.2521
64028SOL    HW1 9694   2.977  12.900   9.518 -0.4391  0.3295  1.7350
64028SOL    HW2 9695   2.996  12.994   9.401  1.2661 -1.5928  0.4162
64029SOL     OW 9696  11.599   9.375  11.063 -0.1376 -0.1823 -0.1875
64029SOL    HW1 9697  11.630   9.368  11.154  2.5018 -0.1704 -1.0205
64029SOL    HW2 9698  11.535   9.446  11.065  0.4439  0.3392  1.5264
64030SOL     OW 9699  13.789   1.708   3.170  0.1527  0.4735 -0.2559
64030SOL    HW1 9700  13.755   1.664   3.092 -1.3071  1.8335 -0.4334
64030SOL    HW2 9701  13.722   1.772   3.193  1.1026  0.9374  1.4231
64031SOL     OW 9702   8.611   9.465  12.732 -0.3451  0.5819  0.4290
64031SOL    HW1 9703   8.698   9.502  12.747  0.5701 -0.4950 -1.8432
64031SOL    HW2 9704   8.559   9.539  12.700 -0.6701  1.5015  2.8841
64032SOL     OW 9705   3.293  10.175   3.758 -0.6574  0.2243  0.3675
64032SOL    HW1 9706   3.305  10.213   3.671 -1.6335  2.2146  1.0521
64032SOL    HW2 9707   3.211  10.125   3.750 -1.3242  1.2779  0.3886
64033SOL     OW 9708   9.228   6.008   1.601 -0.1204  0.0403 -0.8658
64033SOL    HW1 9709   9.201   6.091   1.641  0.8724  0.5274 -1.1690
64033SOL    HW2 9710   9.202   5.941   1.664 -0.3478  0.6357 -0.3160
64034SOL     OW 9711  10.290  12.330   0.567 -0.0696  0.5178  0.0008
64034SOL    HW1 9712  10.226  12.260   0.549  0.1720  0.1935  0.3943
64034SOL    HW2 9713  10.238  12.410   0.566 -0.8420  0.1202  2.0510
64035SOL     OW 9714   5.986   3.882   3.966  0.2885 -0.2029 -0.1434
64035SOL    HW1 9715   5.919   3.863   3.900 -1.5882  0.5895  1.4441
64035SOL    HW2 9716   5.969   3.819   4.036 -1.5508  2.5555  2.1041
64036SOL     OW 9717   2.127  10.536   8.480  0.6473 -0.1723 -0.2625
64036SOL    HW1 9718   2.043  10.497   8.503  1.1457  0.1252  2.3173
64036SOL    HW2 9719   2.149  10.498   8.395 -0.9340 -2.1316  0.1450
64037SOL     OW 9720   4.178  12.150   1.881  0.2228 -0.1358  0.0004
64037SOL    HW1 9721   4.099  12.147   1.935  0.9291  1.8829  1.2530
64037SOL    HW2 9722   4.222  12.067   1.898  0.7325  0.6717  3.1115
64038SOL     OW 9723  11.456   6.917  10.017  0.3211  0.1664  0.2700
64038SOL    HW1 9724  11.520   6.988  10.025 -0.5095  0.7957  1.8450
64038SOL    HW2 9725  11.371   6.960  10.027 -0.2266 -0.9809  0.7441
64039SOL     OW 9726   0.531   1.914  13.941 -0.4942  0.6472  0.5525
64039SOL    HW1 9727   0.543   1.994  13.891  0.4632  0.6976  0.8323
64039SOL    HW2 9728   0.547   1.843  13.879  1.9914  0.7133  1.0166
64040SOL     OW 9729   1.653   0.184   7.414 -0.3863  0.2561 -0.7885
64040SOL    HW1 9730   1.610   0.257   7.458 -1.4816 -0.4589 -0.6130
64040SOL    HW2 9731   1.697   0.223   7.339  0.3813  1.3110  0.1670
64041SOL     OW 9732   4.656   3.114   9.754  0.2031  0.0515  0.3964
64041SOL    HW1 9733   4.634   3.049   9.687  1.3710 -0.5914  0.6057
64041SOL    HW2 9734   4.684   3.191   9.704 -0.3000  0.0749  0.1455
64042SOL     OW 9735   3.325   5.280   3.502 -0.2292  0.5467 -0.9045
64042SOL    HW1 9736   3.264   5.274   3.428 -1.2709 -2.9759  0.0621
64042SOL    HW2 9737   3.311   5.200   3.552  2.4998  1.4173  1.5623
64043SOL     OW 9738   2.646  11.012   8.972 -0.4613 -0.3517  0.5353
64043SOL    HW1 9739   2.646  11.052   8.885 -1.0378  0.1343  0.7499
64043SOL    HW2 9740   2.673  11.083   9.031  0.3508 -0.7957  0.7097
64044SOL     OW 9741  11.674  12.177  12.256 -0.0001  0.8425  0.2656
64044SOL    HW1 9742  11.758  12.219  12.273  0.2143  0.2096  0.8334
64044SOL    HW2 9743  11.648  12.208  12.169  0.5016  1.5563  0.3668
64045SOL     OW 9744  12.024  11.263   7.028 -0.0968  0.1615 -0.1741
64045SOL    HW1 9745  12.071  11.217   6.959 -0.2328 -0.2331 -0.0091
64045SOL    HW2 9746  11.956  11.201   7.055  0.0912  0.2276  0.4595
64046SOL     OW 9747  13.037   9.155   5.379  0.4322 -0.1913  0.0446
64046SOL    HW1 9748  13.109   9.212   5.407 -1.5933  1.9808  1.1408
64046SOL    HW2 9749  13.069   9.066   5.396  3.6862  0.4954 -1.6640
64047SOL     OW 9750  12.711   4.290   4.792 -0.0887 -0.3752  0.3903
64047SOL    HW1 9751  12.738   4.243   4.870  1.8653  0.2166  0.1503
64047SOL    HW2 9752  12.747   4.238   4.719 -0.2496  0.0515  0.0020
64048SOL     OW 9753   0.021   5.448  13.713 -0.0887 -0.5927  0.5570
64048SOL    HW1 9754   0.005   5.477  13.803  0.3335  0.7487  0.2208
64048SOL    HW2 9755   0.098   5.391  13.720  0.9325  0.7729  0.8588
64049SOL     OW 9756   1.326   5.869   1.036 -0.8081  0.5644 -0.3832
64049SOL    HW1 9757   1.370   5.930   1.095  0.1911  0.0038 -0.5340
64049SOL    HW2 9758   1.351   5.898   0.949 -1.4005  0.7270 -0.5047
64050SOL     OW 9759  13.191   5.978   4.454 -0.2115  0.4195 -0.2467
64050SOL    HW1 9760  13.233   5.892   4.450 -3.1402 -1.1814  0.6446
64050SOL    HW2 9761  13.130   5.979   4.380 -2.5972  0.2553  1.5919
64051SOL     OW 9762   5.760   2.265   9.176  0.7019 -0.0402 -0.1532
64051SOL    HW1 9763   5.823   2.208   9.132 -0.0815  0.7058 -2.4203
64051SOL    HW2 9764   5.806   2.349   9.185  0.6569 -0.0164 -0.1459
64052SOL     OW 9765  10.019  10.376  13.537 -0.0557  0.6758  0.2312
64052SOL    HW1 9766   9.972  10.359  13.455  0.8128 -0.6266 -0.0447
64052SOL    HW2 9767  10.092  10.432  13.511  0.3533  0.0730  0.0485
64053SOL     OW 9768   5.405   1.695   8.069  0.6369  0.0030 -0.2488
64053SOL    HW1 9769   5.488   1.727   8.033 -0.2723  0.0612 -2.4456
64053SOL    HW2 9770   5.339   1.725   8.007 -0.8322 -1.6234  0.4478
64054SOL     OW 9771  14.011   1.041   9.717 -0.1235 -0.1508 -0.5698
64054SOL    HW1 9772  13.965   0.958   9.725 -1.6991  0.7385  0.1072
64054SOL    HW2 9773  14.000   1.083   9.803  2.8970 -0.3012  0.0181
64055SOL     OW 9774  13.365   3.929   3.094  0.0672 -0.3137 -0.2868
64055SOL    HW1 9775  13.288   3.928   3.151 -0.1419  0.3833 -0.5372
64055SOL    HW2 9776  13.330   3.951   3.007  0.2107 -2.6212 -0.9888
64056SOL     OW 9777  12.338   8.697   2.721  0.1454 -0.3693  0.2227
64056SOL    HW1 9778  12.335   8.632   2.791 -3.1643 -0.2517  0.3628
64056SOL    HW2 9779  12.342   8.646   2.640  2.4692 -0.5431  0.4013
64057SOL     OW 9780  11.696  11.905   3.094  0.1409 -0.0515 -0.0133
64057SOL    HW1 9781  11.674  11.900   3.186 -0.5412 -0.6733 -0.2039
64057SOL    HW2 9782  11.720  11.816   3.069  0.7654  0.1995 -0.3285
64058SOL     OW 9783  11.499   0.931   7.723  0.0873 -0.0889  0.6670
64058SOL    HW1 9784  11.549   0.919   7.642  0.6595 -0.2576  1.0375
64058SOL    HW2 9785  11.488   0.842   7.758 -0.3728 -0.0406  0.6453
64059SOL     OW 9786   9.881   4.575   6.202  0.1719 -0.2185 -0.1243
64059SOL    HW1 9787   9.864   4.483   6.220 -0.5354 -0.2066 -0.6734
64059SOL    HW2 9788   9.836   4.592   6.119  0.4018  0.5866 -0.0947
64060SOL     OW 9789  12.840  13.497   9.135  0.6632  0.4864  0.0972
64060SOL    HW1 9790  12.766  13.506   9.195  1.6021  2.6886  1.0454
64060SOL    HW2 9791  12.802  13.471   9.052 -0.7563 -2.1837  1.4523
64061SOL     OW 9792  13.302   3.464   4.400  0.1079  0.4904 -0.5718
64061SOL    HW1 9793  13.323   3.460   4.493 -5.0776  2.3213  0.9926
64061SOL    HW2 9794  13.278   3.374   4.376 -0.4766  0.3740  0.4325
64062SOL     OW 9795   0.974  14.071   5.361  0.0710 -0.2642 -0.4187
64062SOL    HW1 9796   1.041  14.060   5.429 -0.3019 -3.0682 -0.3545
64062SOL    HW2 9797   0.901  14.115   5.405  1.3523  1.7401 -0.1807
64063SOL     OW 9798  12.174   0.132   2.811 -0.3274  0.3018  0.6371
64063SOL    HW1 9799  12.172   0.037   2.807 -2.7083  0.3344 -1.3552
64063SOL    HW2 9800  12.172   0.160   2.719 -0.0264  2.2826  1.1850
64064SOL     OW 9801  12.693   6.036  13.512 -0.1239  0.1205 -0.8115
64064SOL    HW1 9802  12.649   5.983  13.579 -0.0015  1.7279  0.6193
64064SOL    HW2 9803  12.756   5.977  13.471  0.0695 -0.8224  0.7673
64065SOL     OW 9804   3.554   6.984  13.536 -0.2165  0.3978 -0.0039
64065SOL    HW1 9805   3.543   6.937  13.453  0.2500  0.1281  0.0811
64065SOL    HW2 9806   3.549   7.077  13.512 -1.2388  0.3086 -0.1597
64066SOL     OW 9807   9.620   5.234  12.788  0.1612 -0.3397  0.2310
64066SOL    HW1 9808   9.676   5.213  12.714  1.1600 -1.0105  1.1390
64066SOL    HW2 9809   9.615   5.152  12.838 -2.1794 -0.4816 -0.1646
64067SOL     OW 9810  13.538   3.775   6.451  0.2941  0.2836  0.0834
64067SOL    HW1 9811  13.505   3.861   6.427 -2.1573 -0.5371  0.2605
64067SOL    HW2 9812  13.574   3.787   6.539  2.7780  1.7191 -1.0294
64068SOL     OW 9813  14.030   0.439   4.196  0.2213  0.3827 -0.3081
64068SOL    HW1 9814  14.042   0.358   4.246  0.4260  1.8036  2.0802
64068SOL    HW2 9815  14.119   0.468   4.175  0.2870  1.3352  1.1849
64069SOL     OW 9816   0.901  11.844   6.495  0.8830 -0.1871  0.0564
64069SOL    HW1 9817   0.952  11.880   6.422 -0.3845  0.4547 -0.5345
64069SOL    HW2 9818   0.810  11.862   6.472  0.3212 -1.9347  0.7494
64070SOL     OW 9819   4.517   6.820  11.674 -0.1025  0.2640  0.8275
64070SOL    HW1 9820   4.512   6.753  11.606  0.2588  0.2671  0.7965
64070SOL    HW2 9821   4.453   6.792  11.740 -2.3088  1.5505 -0.6350
64071SOL     OW 9822   7.324  13.469   6.739  0.0808 -0.2950  0.0339
64071SOL    HW1 9823   7.234  13.442   6.758  0.4966 -1.1582  0.8356
64071SOL    HW2 9824   7.332  13.458   6.644 -1.0504  1.0564 -0.2495
64072SOL     OW 9825  11.080   1.895  10.341 -0.7159 -0.1041  0.0414
64072SOL    HW1 9826  11.099   1.812  10.297 -0.4524 -0.5807  1.0434
64072SOL    HW2 9827  11.085   1.960  10.270 -0.4006 -0.8643 -0.6595
64073SOL     OW 9828  10.062  13.224   8.914  0.6831 -0.7178  0.3327
64073SOL    HW1 9829  10.149  13.187   8.932  1.1161  0.5872  1.0203
64073SOL    HW2 9830  10.032  13.175   8.837  1.8923 -1.3989  0.2550
64074SOL     OW 9831  10.811   9.010  10.739  0.4476  0.3191 -0.2386
64074SOL    HW1 9832  10.732   8.965  10.771  0.5612 -1.6166 -2.4161
64074SOL    HW2 9833  10.880   8.945  10.747  1.0433  0.7375 -1.6414
64075SOL     OW 9834   9.696  10.083  12.774  0.3207 -0.2106  0.2165
64075SOL    HW1 9835   9.626  10.080  12.839 -0.6776 -1.6256 -0.8556
64075SOL    HW2 9836   9.764  10.025  12.808  0.9732  1.0897  1.2135
64076SOL     OW 9837   7.068   6.989   1.404 -0.1140  0.0620  0.2991
64076SOL    HW1 9838   7.110   7.074   1.393 -0.4173  0.2773  0.7939
64076SOL    HW2 9839   6.976   7.009   1.420 -1.3273 -0.4508 -4.4640
64077SOL     OW 9840   4.235  12.778   0.409  0.1488  0.2043  0.3018
64077SOL    HW1 9841   4.215  12.747   0.498 -0.3111 -0.0191  0.1224
64077SOL    HW2 9842   4.267  12.867   0.422 -1.0824  0.6242  0.5992
64078SOL     OW 9843   5.265   5.006  13.208  0.4760 -0.1405 -0.0888
64078SOL    HW1 9844   5.205   5.048  13.271  0.6312  2.3545 -1.4836
64078SOL    HW2 9845   5.212   4.993  13.130  1.1687 -0.0625 -0.5759
64079SOL     OW 9846  12.187   8.165  12.875 -0.7157 -0.2850 -0.0731
64079SOL    HW1 9847  12.218   8.151  12.964 -0.5094 -2.1071 -0.3803
64079SOL    HW2 9848  12.096   8.195  12.885 -0.1914  1.0947  0.7458
64080SOL     OW 9849   9.295   1.858   2.697 -0.4263 -0.0296 -0.1519
64080SOL    HW1 9850   9.251   1.910   2.764 -0.2675 -1.2347  0.9286
64080SOL    HW2 9851   9.227   1.836   2.634 -0.9506 -0.2514  0.4801
64081SOL     OW 9852  13.241   7.808   5.559 -0.0814 -0.2998  0.1298
64081SOL    HW1 9853  13.234   7.720   5.523  0.4546 -0.5293  0.5801
64081SOL    HW2 9854  13.151   7.841   5.558 -0.1471 -0.4516 -1.0169
64082SOL     OW 9855   8.618   3.223   3.513  0.2848 -0.6996 -0.4943
64082SOL    HW1 9856   8.544   3.171   3.545 -0.7919  0.0471 -1.6672
64082SOL    HW2 9857   8.696   3.177   3.544 -0.6500 -0.8141  1.9259
64083SOL     OW 9858  10.651  10.851  10.531  0.1244  0.1305 -0.3982
64083SOL    HW1 9859  10.731  10.811  10.565 -0.4523 -1.6739 -1.0842
64083SOL    HW2 9860  10.618  10.904  10.605  1.5094  0.2863  0.1428
64084SOL     OW 9861   7.111   5.540   3.695  0.1423 -0.1738 -0.0966
64084SOL    HW1 9862   7.184   5.602   3.693 -0.0383  0.0164 -1.7074
64084SOL    HW2 9863   7.055   5.572   3.766  1.0738  0.2946  0.4570
64085SOL     OW 9864   1.800   3.435   2.966  0.1464 -0.1389  0.5174
64085SOL    HW1 9865   1.796   3.359   2.907  0.7969  1.1945 -1.3277
64085SOL    HW2 9866   1.785   3.510   2.909 -0.2369  1.1591  2.2630
64086SOL     OW 9867   5.695   5.285   0.402  0.2275  0.1213 -0.2587
64086SOL    HW1 9868   5.684   5.249   0.314 -1.2027 -1.3175  0.4622
64086SOL    HW2 9869   5.789   5.274   0.421  0.2131 -1.2380 -0.9124
64087SOL     OW 9870   6.074   7.724  10.162  0.4242 -0.0046 -0.0365
64087SOL    HW1 9871   6.006   7.672  10.203  0.8025 -0.2561  0.2840
64087SOL    HW2 9872   6.142   7.734  10.229 -0.1077  1.8433  0.2936
64088SOL     OW 9873   8.775   1.760   0.125  0.0001  0.3134  0.7823
64088SOL    HW1 9874   8.721   1.757   0.046  1.0237  0.9069  0.0416
64088SOL    HW2 9875   8.732   1.698   0.185 -0.7416 -0.2215 -0.2577
64089SOL     OW 9876  10.158   6.775   9.871 -0.4999 -0.1848 -0.5324
64089SOL    HW1 9877  10.252   6.789   9.863 -0.6182  0.0458 -1.6723
64089SOL    HW2 9878  10.119   6.862   9.863 -0.7630 -0.0678  1.3999
64090SOL     OW 9879  11.123   4.585   4.420  0.9457 -0.0510 -0.4212
64090SOL    HW1 9880  11.101   4.582   4.327 -0.2118  1.2192 -0.2221
64090SOL    HW2 9881  11.213   4.553   4.425  0.6762 -1.1318 -1.8415
64091SOL     OW 9882  11.561   3.738   5.650 -0.6770 -0.0796  0.0687
64091SOL    HW1 9883  11.626   3.809   5.657 -1.7369  1.1226 -1.6245
64091SOL    HW2 9884  11.613   3.661   5.627  0.1984  0.8518 -1.2475
64092SOL     OW 9885   5.059   1.848  13.926 -0.0631  0.1995  0.4693
64092SOL    HW1 9886   5.153   1.861  13.912 -0.0074  1.3680  1.7938
64092SOL    HW2 9887   5.053   1.762  13.969  0.2998 -0.3070 -0.4626
64093SOL     OW 9888   1.347  11.142   6.854 -0.1144  0.2506 -0.1585
64093SOL    HW1 9889   1.284  11.151   6.926  0.0475 -2.6903  0.4546
64093SOL    HW2 9890   1.427  11.109   6.896 -0.4856 -3.0747 -1.7475
64094SOL     OW 9891   4.728   1.180  13.649  0.3253 -0.0285 -0.4965
64094SOL    HW1 9892   4.817   1.200  13.620  0.2456  0.4409 -0.4307
64094SOL    HW2 9893   4.673   1.243  13.603  0.0912  0.0755 -0.0764
64095SOL     OW 9894   8.107   0.362   1.411 -0.5880  0.8058  0.0695
64095SOL    HW1 9895   8.161   0.284   1.402 -0.7110  0.6468  0.6414
64095SOL    HW2 9896   8.164   0.426   1.454 -1.5142 -0.1383  2.9393
64096SOL     OW 9897   1.979  11.645  12.046 -0.0208 -0.0988 -0.0467
64096SOL    HW1 9898   2.069  11.676  12.048 -0.2069  0.4071  1.8384
64096SOL    HW2 9899   1.953  11.638  12.138 -1.5648 -1.2558 -0.5187
64097SOL     OW 9900   7.454   1.696  10.184  0.5419 -0.0511 -0.5958
64097SOL    HW1 9901   7.504   1.656  10.112 -0.0958 -0.0702 -1.0416
64097SOL    HW2 9902   7.449   1.789  10.160 -0.0102 -0.1250 -0.7910
64098SOL     OW 9903   6.810   7.697   5.520 -0.2886  0.8440 -0.2451
64098SOL    HW1 9904   6.724   7.685   5.559  0.3120  0.6791  1.0805
64098SOL    HW2 9905   6.827   7.791   5.526  0.5378  0.6118  1.5676
64099SOL     OW 9906  13.829   6.980   4.626 -0.2189  0.3694  0.5814
64099SOL    HW1 9907  13.801   6.955   4.538  1.3131 -1.1488  0.4812
64099SOL    HW2 9908  13.751   6.967   4.680 -0.3079 -1.9956  0.0059
64100SOL     OW 9909  11.271   8.098   3.070  0.4052  0.3717 -0.4254
64100SOL    HW1 9910  11.321   8.065   3.145  1.3143 -1.3411 -1.7154
64100SOL    HW2 9911  11.217   8.024   3.043 -0.3603  1.1578 -1.1058
64101SOL     OW 9912   4.663   9.578   9.736 -0.2767 -0.2847  0.1965
64101SOL    HW1 9913   4.638   9.502   9.682  0.4378 -0.0644 -0.4701
64101SOL    HW2 9914   4.730   9.544   9.795 -0.7458 -0.4232  0.6559
64102SOL     OW 9915  13.347   0.753  10.043  0.0573  0.3713  0.6841
64102SOL    HW1 9916  13.313   0.675  10.087  1.0906 -0.1823  0.5341
64102SOL    HW2 9917  13.433   0.767  10.082  1.0092 -0.1349 -1.1276
64103SOL     OW 9918   9.522   1.285  11.952  0.2347  0.0436 -0.5841
64103SOL    HW1 9919   9.613   1.271  11.979  0.0260  0.2176  0.2282
64103SOL    HW2 9920   9.521   1.374  11.916  0.1865  0.3958  0.2826
64104SOL     OW 9921   2.763   4.170  11.791  0.3054  0.1160  0.1303
64104SOL    HW1 9922   2.792   4.257  11.762  0.2223 -0.2111 -0.9921
64104SOL    HW2 9923   2.692   4.188  11.852  1.6976  0.8871  1.6033
64105SOL     OW 9924   7.759  11.362   5.460 -0.2371 -0.3154  0.2876
64105SOL    HW1 9925   7.741  11.453   5.482  0.5541 -0.0580 -0.0988
64105SOL    HW2 9926   7.854  11.359   5.447 -0.3726 -0.9815 -0.6670
64106SOL     OW 9927   4.396  10.555  12.939 -1.1284  0.6444  0.4282
64106SOL    HW1 9928   4.309  10.555  12.900 -1.2355  2.3940  0.5579
64106SOL    HW2 9929   4.408  10.645  12.969  1.7046  1.1869 -1.8636
64107SOL     OW 9930   8.061   0.413  12.496 -0.1116 -0.4321  0.1566
64107SOL    HW1 9931   8.045   0.321  12.514  1.0503 -0.4680  1.1119
64107SOL    HW2 9932   8.029   0.426  12.406 -0.2565 -1.7569  0.0034
64108SOL     OW 9933  11.610   0.316  12.344 -0.3989  0.4531 -0.6570
64108SOL    HW1 9934  11.590   0.261  12.269 -3.3121  2.5226 -1.5958
64108SOL    HW2 9935  11.671   0.382  12.310 -0.3566  0.3722 -0.7379
64109SOL     OW 9936  13.007   9.141   9.938 -0.2116 -0.0691 -0.0349
64109SOL    HW1 9937  12.944   9.100   9.879  0.6789 -1.0410 -0.3508
64109SOL    HW2 9938  12.961   9.149  10.021 -1.6224  1.6705 -0.9310
64110SOL     OW 9939   1.898   8.205   0.971  0.4454  0.7046 -0.3489
64110SOL    HW1 9940   1.850   8.245   0.898  2.1640  1.6353 -1.0317
64110SOL    HW2 9941   1.881   8.112   0.962 -0.7499  0.9484 -0.9106
64111SOL     OW 9942   4.582   2.103   0.483  0.4464  0.1554  0.4204
64111SOL    HW1 9943   4.667   2.115   0.526  0.8238  0.2497 -0.3291
64111SOL    HW2 9944   4.519   2.146   0.540  0.7256 -0.9220  1.5981
64112SOL     OW 9945   5.773   8.296   4.727  0.0572  0.0651 -0.6920
64112SOL    HW1 9946   5.716   8.256   4.793  0.0261  0.2151 -0.6284
64112SOL    HW2 9947   5.722   8.291   4.646 -0.1938  0.5187 -0.5674
64113SOL     OW 9948  12.110  10.468   2.273  0.3062 -0.6143  0.3556
64113SOL    HW1 9949  12.139  10.447   2.362 -1.2669 -2.3078  0.5308
64113SOL    HW2 9950  12.064  10.551   2.282  0.3459 -0.6648  1.0836
64114SOL     OW 9951   9.040   7.208   5.169  0.0733  0.7579  0.2167
64114SOL    HW1 9952   9.075   7.268   5.235  1.2236  0.6616 -0.2824
64114SOL    HW2 9953   9.039   7.122   5.213  0.3816  0.7762  0.2570
64115SOL     OW 9954  11.675   8.061  12.220  0.4902  0.0217  0.7446
64115SOL    HW1 9955  11.670   8.031  12.130 -0.2190 -0.1146  0.8254
64115SOL    HW2 9956  11.586   8.053  12.254  0.3097  2.0574  0.8362
64116SOL     OW 9957   0.685   3.738  10.447 -0.3940  1.0295 -0.1202
64116SOL    HW1 9958   0.742   3.767  10.518  0.0434  1.2309 -0.5489
64116SOL    HW2 9959   0.650   3.819  10.410 -0.2889  0.9451 -0.4059
64117SOL     OW 9960  12.740   7.370  13.796 -0.0158  0.2093 -0.1479
64117SOL    HW1 9961  12.826   7.330  13.788 -0.5848 -1.1091  0.1818
64117SOL    HW2 9962  12.738   7.404  13.886  0.4633  1.0231 -0.4283
64118SOL     OW 9963   2.613   5.724  13.276  0.6545  0.3522 -0.0282
64118SOL    HW1 9964   2.601   5.744  13.369 -0.5182 -0.3000 -0.0287
64118SOL    HW2 9965   2.672   5.793  13.244  2.0710 -0.1198  1.4584
64119SOL     OW 9966   1.903   4.261   5.217  0.7103  0.1254  0.8346
64119SOL    HW1 9967   1.959   4.288   5.144  0.6182  2.9873  1.6934
64119SOL    HW2 9968   1.824   4.314   5.208  0.3628 -0.0487  2.5176
64120SOL     OW 9969   6.403  11.169   0.856  0.5491 -0.4280  0.2533
64120SOL    HW1 9970   6.401  11.203   0.767  1.4159  1.9541  1.0487
64120SOL    HW2 9971   6.325  11.115   0.863 -0.6933  1.0339 -1.3324
64121SOL     OW 9972   0.631  13.068   0.437 -0.1583 -0.0122 -0.5486
64121SOL    HW1 9973   0.647  12.975   0.427 -2.1340 -0.4434 -0.0503
64121SOL    HW2 9974   0.571  13.075   0.510  2.4629  1.9433  1.6632
64122SOL     OW 9975   4.859   6.391   5.647  0.4535  0.0219 -0.2052
64122SOL    HW1 9976   4.899   6.478   5.647 -0.2423  0.3617  0.7821
64122SOL    HW2 9977   4.798   6.393   5.573 -0.4087  0.8078  0.4896
64123SOL     OW 9978   1.848   6.304   8.688  0.2236  0.3339  0.2112
64123SOL    HW1 9979   1.911   6.281   8.757  0.3818  1.5654  0.5043
64123SOL    HW2 9980   1.763   6.300   8.730  0.0358 -1.7251 -0.2874
64124SOL     OW 9981   1.997   6.768   6.241  0.3466  0.8728 -0.1126
64124SOL    HW1 9982   2.071   6.802   6.291 -0.9470  0.6493  2.0596
64124SOL    HW2 9983   1.970   6.840   6.185 -0.0925  2.2631  1.7977
64125SOL     OW 9984   9.533   0.487   2.973  0.3278  0.1522  0.3081
64125SOL    HW1 9985   9.463   0.423   2.981 -0.8409  1.4978  1.1292
64125SOL    HW2 9986   9.546   0.520   3.061  1.3282  0.6450 -0.0099
64126SOL     OW 9987   5.050   8.970   0.664  0.1655  0.0506 -0.8450
64126SOL    HW1 9988   4.980   8.905   0.659  0.6378 -0.7759  1.5715
64126SOL    HW2 9989   5.078   8.984   0.574 -0.6099 -2.4033 -1.5334
64127SOL     OW 9990   0.791   3.255   5.628 -0.0877 -0.0683  0.3374
64127SOL    HW1 9991   0.762   3.210   5.548 -2.6124 -0.6339  1.4747
64127SOL    HW2 9992   0.724   3.321   5.645  0.0892 -0.3248  2.2673
64128SOL     OW 9993   3.619   9.001   7.224  0.0272  0.3503 -0.2989
64128SOL    HW1 9994   3.684   9.050   7.173  0.1114  1.9039  1.2350
64128SOL    HW2 9995   3.542   9.058   7.226 -0.5170 -0.3776  0.0156
64129SOL     OW 9996   9.746   7.588   3.023 -0.1184  0.1894  0.2902
64129SOL    HW1 9997   9.709   7.565   3.109 -0.3657 -0.8493 -0.0865
64129SOL    HW2 9998   9.772   7.504   2.985  1.8384  0.7969  0.1615
64130SOL     OW 9999   9.765   1.521   5.467 -0.6617  0.3005 -0.4095
64130SOL    HW110000   9.708   1.450   5.498 -0.0679 -0.1197 -0.2689
64130SOL    HW210001   9.717   1.601   5.491 -0.9569 -0.0361  0.1704
64131SOL     OW10002   1.046   4.018   9.543 -0.0172 -0.1008  0.3515
64131SOL    HW110003   0.994   4.098   9.537 -0.5020 -0.4530 -0.3109
64131SOL    HW210004   1.094   4.013   9.461 -0.4887 -0.8120  0.1036
64132SOL     OW10005   5.813   7.486   9.525 -0.0329  0.1375 -0.3552
64132SOL    HW110006   5.882   7.479   9.591  0.2533 -1.9377 -0.8206
64132SOL    HW210007   5.737   7.521   9.572  0.9948  1.4891  0.3779
64133SOL     OW10008   1.275   4.948   3.831  0.3704 -0.9273 -0.3528
64133SOL    HW110009   1.203   4.952   3.895  0.4968 -1.1842 -0.1935
64133SOL    HW210010   1.352   4.930   3.884  0.9222  1.3812 -0.2497
64134SOL     OW10011  13.039   6.773   8.941 -0.5655 -0.4217  0.1727
64134SOL    HW110012  13.087   6.731   9.013 -0.3895 -0.6478 -0.0739
64134SOL    HW210013  13.049   6.713   8.867 -0.7680 -0.2034 -0.0342
64135SOL     OW10014  11.661   5.316  12.062 -0.1570  0.0143 -0.3168
64135SOL    HW110015  11.637   5.380  12.129  1.3862 -1.0270  1.2996
64135SOL    HW210016  11.757   5.317  12.060 -0.1376 -1.0861 -1.4161
64136SOL     OW10017   7.791   6.950   5.905 -0.5075  0.0059 -0.2669
64136SOL    HW110018   7.823   7.022   5.959  2.9844 -1.9495  0.6017
64136SOL    HW210019   7.720   6.911   5.955  0.0828  0.5693  1.0463
64137SOL     OW10020   9.898  13.709   0.844 -0.2276  0.1400  0.0447
64137SOL    HW110021   9.960  13.705   0.771  0.9764  1.4808  0.9487
64137SOL    HW210022   9.833  13.774   0.816  0.4784  0.9860  0.3102
64138SOL     OW10023   7.586   0.773  11.711  0.4843  0.0704 -0.3889
64138SOL    HW110024   7.632   0.690  11.722  0.4314  0.3315  2.3618
64138SOL    HW210025   7.498   0.748  11.681  0.6780 -0.8024 -0.2530
64139SOL     OW10026  11.038  12.048   3.167 -0.7457  0.0033 -0.3860
64139SOL    HW110027  10.976  12.120   3.182  1.6492  1.8076  1.9901
64139SOL    HW210028  11.059  12.054   3.074 -1.4785  1.6554 -0.4891
64140SOL     OW10029   3.001   5.213   1.805  0.3416 -0.0808 -0.0995
64140SOL    HW110030   3.041   5.271   1.870  0.2044 -0.0309 -0.0594
64140SOL    HW210031   2.945   5.270   1.753 -0.6624 -0.3676  0.6496
64141SOL     OW10032  13.530  13.071   0.070  0.5196  0.0452 -0.0449
64141SOL    HW110033  13.520  13.092  -0.023 -0.3047  1.6329  0.3674
64141SOL    HW210034  13.535  12.976   0.073 -1.2612 -0.1396 -1.5586
64142SOL     OW10035   7.702  11.820  10.486  0.2562  0.0904  0.0788
64142SOL    HW110036   7.627  11.879  10.479 -0.0088 -0.4241 -2.3192
64142SOL    HW210037   7.776  11.877  10.507 -0.1004  1.2305 -1.6097
64143SOL     OW10038   1.838   5.631  13.150  0.5978 -0.3198  0.6084
64143SOL    HW110039   1.876   5.567  13.210  1.0813  0.1931  0.8541
64143SOL    HW210040   1.761   5.665  13.196 -0.8607 -2.1558 -0.3335
64144SOL     OW10041   4.334   9.241  14.014  0.3800 -0.0018 -0.4168
64144SOL    HW110042   4.317   9.304  14.084 -1.2928  0.8591 -1.5115
64144SOL    HW210043   4.304   9.157  14.048  0.2850  0.2693  0.1720
64145SOL     OW10044  12.243   0.573  10.142 -0.0242 -0.3880 -0.1022
64145SOL    HW110045  12.172   0.578  10.078 -0.5789 -0.5880  0.4837
64145SOL    HW210046  12.323   0.584  10.091 -0.5419  3.2026 -0.4462
64146SOL     OW10047   7.979  11.295  11.961  0.4681 -0.6723  0.0739
64146SOL    HW110048   7.902  11.240  11.977 -1.4024  1.4264 -1.0548
64146SOL    HW210049   8.009  11.268  11.874  0.5609 -1.0022  0.2067
64147SOL     OW10050  13.587  13.642   7.859 -0.1269  0.0723  0.1295
64147SOL    HW110051  13.643  13.720   7.868  1.1802 -0.7384 -0.6895
64147SOL    HW210052  13.614  13.603   7.777 -1.1836 -0.9430  0.2499
64148SOL     OW10053  12.097   0.849   8.275 -0.1608  0.7064  0.0526
64148SOL    HW110054  12.028   0.907   8.308 -1.3042 -0.3298 -0.4143
64148SOL    HW210055  12.169   0.907   8.254  0.8647  1.4774  4.6269
64149SOL     OW10056   3.356  10.493   2.208 -0.2759  0.0963  0.5918
64149SOL    HW110057   3.270  10.532   2.192  0.3652  0.7230 -1.6536
64149SOL    HW210058   3.397  10.487   2.122  1.6569 -0.9009  1.4949
64150SOL     OW10059   4.494   8.165   3.980 -0.3030 -0.1179  0.7019
64150SOL    HW110060   4.512   8.252   4.015 -0.9283  0.7518 -1.0595
64150SOL    HW210061   4.399   8.156   3.986 -0.3370 -0.2788  0.0078
64151SOL     OW10062  10.067   2.721   0.619 -0.2450  0.5458 -0.0821
64151SOL    HW110063  10.115   2.658   0.673 -1.1487  0.0640  0.1923
64151SOL    HW210064  10.043   2.672   0.541 -0.7074  0.6320  0.0032
64152SOL     OW10065   5.480   4.709   2.910 -0.1183  0.0842 -0.6407
64152SOL    HW110066   5.518   4.748   2.832  0.1395 -0.8518 -0.9899
64152SOL    HW210067   5.538   4.637   2.932 -0.6247 -0.1534 -0.0457
64153SOL     OW10068   3.827  10.296   3.389  0.2786  0.7284 -0.4838
64153SOL    HW110069   3.797  10.383   3.415  0.7396  0.2010  2.0014
64153SOL    HW210070   3.871  10.311   3.305  0.4776  2.9272 -0.0567
64154SOL     OW10071   0.326  13.604   3.134  0.3998 -0.2812  0.1979
64154SOL    HW110072   0.409  13.614   3.180 -0.4657  2.1568  1.4264
64154SOL    HW210073   0.276  13.683   3.158 -1.4054 -0.5650 -2.2790
64155SOL     OW10074  12.208   3.710  12.496 -0.0747  0.2474  0.3515
64155SOL    HW110075  12.147   3.696  12.568 -1.5603  2.2051 -0.4517
64155SOL    HW210076  12.171   3.660  12.423 -0.4137  0.9525  0.0322
64156SOL     OW10077   6.029   8.495   0.958 -1.0355  0.6277 -0.1450
64156SOL    HW110078   6.082   8.476   1.036  1.0028  1.0545 -1.3745
64156SOL    HW210079   5.978   8.415   0.944 -1.7512  0.6617  1.7979
64157SOL     OW10080   9.448   5.237   2.649 -0.0625 -0.4035 -0.1895
64157SOL    HW110081   9.473   5.297   2.719  1.0158  0.0602 -0.9397
64157SOL    HW210082   9.381   5.180   2.688  2.2297 -1.7987  2.0299
64158SOL     OW10083  10.532   0.071   5.628 -0.2209 -0.4746  0.3335
64158SOL    HW110084  10.516   0.010   5.700 -0.2389 -1.2399 -0.3074
64158SOL    HW210085  10.486   0.151   5.653 -0.4244 -0.8139  1.0580
64159SOL     OW10086   3.946  10.450  13.508 -0.1801 -0.0103 -0.4774
64159SOL    HW110087   3.861  10.412  13.532 -0.1738  0.9125  1.1545
64159SOL    HW210088   4.009  10.379  13.521 -0.3403  0.1185  1.2262
64160SOL     OW10089   2.921   5.861   9.717 -0.1676  0.4137 -0.1411
64160SOL    HW110090   2.854   5.910   9.764 -0.9780 -1.3449  0.6417
64160SOL    HW210091   2.882   5.841   9.632 -0.1964  0.3507 -0.1128
64161SOL     OW10092  11.470   2.975   3.789  0.1396  0.5267 -0.8268
64161SOL    HW110093  11.488   3.013   3.875  1.1979  0.0608 -0.8265
64161SOL    HW210094  11.376   2.959   3.789  0.3465 -1.0330  0.9250
64162SOL     OW10095   9.710   6.903  11.262  0.5644  0.2650  0.3088
64162SOL    HW110096   9.621   6.870  11.249  0.7744 -0.3905  0.4954
64162SOL    HW210097   9.749   6.902  11.174  0.5098  0.1782  0.2854
64163SOL     OW10098   0.399   2.388   0.384 -0.2287 -0.2842  0.4881
64163SOL    HW110099   0.354   2.466   0.418  0.5202  0.0548  0.7145
64163SOL    HW210100   0.449   2.420   0.309  0.6466 -0.3915  1.0080
64164SOL     OW10101   6.307   6.685   2.311  0.3314 -0.0137 -0.0652
64164SOL    HW110102   6.380   6.640   2.268 -0.1330 -2.3322  1.3657
64164SOL    HW210103   6.339   6.701   2.400 -0.3813  0.3027  0.1391
64165SOL     OW10104  12.650   5.097  13.298  0.2241  0.5725  0.7554
64165SOL    HW110105  12.595   5.020  13.310 -0.6709  1.0262 -0.2852
64165SOL    HW210106  12.589   5.171  13.299  0.9290  1.1720  0.5539
64166SOL     OW10107   8.334   1.289   0.914 -0.2297 -0.0903  0.0853
64166SOL    HW110108   8.327   1.346   0.837  1.5369 -0.0326 -0.0770
64166SOL    HW210109   8.427   1.268   0.920 -0.1950  0.3993  2.5587
64167SOL     OW10110   2.848   3.100  12.265 -0.3128 -0.9507  0.3252
64167SOL    HW110111   2.800   3.142  12.336  0.2943  0.8481 -0.2639
64167SOL    HW210112   2.903   3.169  12.229  1.3419 -2.4653 -0.2283
64168SOL     OW10113  11.374   8.916   7.096  0.5002 -0.3775 -0.1100
64168SOL    HW110114  11.468   8.902   7.082  0.7544 -0.6434  1.6340
64168SOL    HW210115  11.367   8.939   7.188 -1.1540 -0.2108 -0.2493
64169SOL     OW10116  12.025  13.959   7.193  0.3191 -0.5928  0.3465
64169SOL    HW110117  12.097  13.989   7.137  0.1158 -0.3531  0.2112
64169SOL    HW210118  11.947  13.967   7.138 -0.2152  1.7046  1.3118
64170SOL     OW10119  12.837   6.969   9.856  0.6697  0.1980  0.2187
64170SOL    HW110120  12.901   6.921   9.802 -0.4793 -1.8632  0.6240
64170SOL    HW210121  12.757   6.970   9.803  1.0001  3.0874 -0.4476
64171SOL     OW10122  10.527   0.387   6.792  0.1122  0.1302 -0.4415
64171SOL    HW110123  10.589   0.408   6.723  0.6186 -1.6981 -0.6044
64171SOL    HW210124  10.580   0.342   6.859 -0.9288 -1.0842 -0.3897
64172SOL     OW10125  13.846   5.391  12.220  0.1482  0.0063  0.3382
64172SOL    HW110126  13.867   5.483  12.204 -1.1583  0.2271 -0.2424
64172SOL    HW210127  13.856   5.350  12.134  0.4914 -0.3583  0.5488
64173SOL     OW10128   2.786   3.672  10.416  0.1054 -0.1193  0.0396
64173SOL    HW110129   2.856   3.713  10.364 -0.7743  1.0108 -0.3003
64173SOL    HW210130   2.797   3.707  10.504  1.5738 -2.0071  0.6701
64174SOL     OW10131  13.844   3.993  11.006 -0.5325 -0.8165 -0.5223
64174SOL    HW110132  13.803   3.908  10.986 -2.0328 -0.0803 -0.7334
64174SOL    HW210133  13.892   4.015  10.926 -0.6662 -1.1699 -0.7061
64175SOL     OW10134  10.569  13.316   5.156  0.0624  0.3300  0.3577
64175SOL    HW110135  10.568  13.266   5.075 -1.6677 -0.1944  0.6673
64175SOL    HW210136  10.574  13.407   5.127  1.1874  0.0944 -0.2603
64176SOL     OW10137   0.439   9.878   7.358  0.1436 -0.2321 -0.2115
64176SOL    HW110138   0.476   9.790   7.363  0.3110 -0.0891  2.7903
64176SOL    HW210139   0.516   9.935   7.353  0.1747 -0.1706  0.7333
64177SOL     OW10140   0.837   0.831   0.690  0.1088  0.0933 -0.3124
64177SOL    HW110141   0.883   0.755   0.726  1.3835 -0.2359 -2.4562
64177SOL    HW210142   0.815   0.805   0.601 -0.2705  1.9208 -0.7839
64178SOL     OW10143   9.351   3.662   1.828  0.2524 -0.0611 -0.0138
64178SOL    HW110144   9.325   3.601   1.758  1.2050  2.5858 -2.9067
64178SOL    HW210145   9.445   3.647   1.839  0.2315 -0.0143  0.2337
64179SOL     OW10146   2.372   1.618   6.586 -0.2120  0.3884  0.6566
64179SOL    HW110147   2.377   1.547   6.523 -0.7964  0.6624  0.2888
64179SOL    HW210148   2.413   1.583   6.665  2.9715  0.9251 -0.6089
64180SOL     OW10149   8.548   5.723   3.393  0.1808 -0.1236  0.2319
64180SOL    HW110150   8.590   5.662   3.332  0.0921  1.9122 -1.9762
64180SOL    HW210151   8.603   5.720   3.471  2.3186 -0.3033 -1.2017
64181SOL     OW10152  12.833  12.234   5.743  0.0635  0.4501 -0.4163
64181SOL    HW110153  12.917  12.193   5.762 -0.9111 -0.9179  1.3413
64181SOL    HW210154  12.782  12.166   5.699 -0.2098  1.1988 -1.2909
64182SOL     OW10155  12.311   3.580   8.492 -0.1580  0.0050  0.5842
64182SOL    HW110156  12.279   3.583   8.402  0.1514 -1.3979  0.3991
64182SOL    HW210157  12.398   3.540   8.485 -0.0508  0.0554  1.4866
64183SOL     OW10158   0.330  12.718   7.780  0.2202  0.3184 -0.8337
64183SOL    HW110159   0.340  12.721   7.685  1.1232  1.0599 -0.7251
64183SOL    HW210160   0.414  12.685   7.813 -0.8585 -2.2660 -0.3906
64184SOL     OW10161   9.570   4.460  13.551 -0.0373 -0.7745 -0.3491
64184SOL    HW110162   9.579   4.543  13.599  0.2263 -0.7077 -0.5127
64184SOL    HW210163   9.659   4.425  13.549 -0.2533 -1.3938  0.3116
64185SOL     OW10164   1.673  10.807   9.918  0.5033  0.4854 -0.7093
64185SOL    HW110165   1.760  10.837   9.894  0.8987 -0.8390 -1.0242
64185SOL    HW210166   1.687  10.750   9.994  0.0788 -0.6074 -1.4179
64186SOL     OW10167   2.084   5.474   4.399 -0.0677 -0.4068 -0.0176
64186SOL    HW110168   2.158   5.470   4.338 -0.9126  1.1443 -1.2004
64186SOL    HW210169   2.023   5.407   4.367 -0.3649  0.1809 -0.7123
64187SOL     OW10170   6.952   0.816  10.425  0.2914  0.1935  0.7614
64187SOL    HW110171   6.919   0.790  10.339 -1.7739 -0.6479  1.7155
64187SOL    HW210172   7.047   0.819  10.415  0.1609 -0.6959 -1.3138
64188SOL     OW10173   8.873   4.262   6.121 -0.1848  0.9558  0.0294
64188SOL    HW110174   8.938   4.217   6.175 -0.7082  0.4936  0.2767
64188SOL    HW210175   8.900   4.354   6.124  1.7486  0.5189 -1.6491
64189SOL     OW10176   2.747   7.209   5.398 -0.1496 -0.0055 -0.2618
64189SOL    HW110177   2.719   7.140   5.458 -0.3395  1.2087  1.0985
64189SOL    HW210178   2.839   7.189   5.381 -0.1271 -0.4536  0.3225
64190SOL     OW10179   1.383   8.759   9.193 -0.5327  0.0086  0.4151
64190SOL    HW110180   1.312   8.697   9.179 -1.2264  0.4851  1.6298
64190SOL    HW210181   1.434   8.721   9.265 -0.5396  0.4884  0.6773
64191SOL     OW10182   7.283   6.863   8.727  0.2290  0.5781  0.0145
64191SOL    HW110183   7.305   6.852   8.635  0.8056  2.3239 -0.0883
64191SOL    HW210184   7.257   6.955   8.735  1.0744  0.7011  1.7560
64192SOL     OW10185  12.560   4.489  13.790 -0.6445  0.2790 -0.4558
64192SOL    HW110186  12.566   4.508  13.696 -1.8639  0.6034 -0.4913
64192SOL    HW210187  12.472   4.452  13.801 -0.2150 -0.5148  0.4355
64193SOL     OW10188   3.914  14.032  11.507  0.0873  0.6356 -0.7344
64193SOL    HW110189   4.004  14.064  11.512 -0.2613  1.7203 -1.1282
64193SOL    HW210190   3.910  13.960  11.570  1.6913 -0.5723 -1.9280
64194SOL     OW10191   2.415   6.542  13.244  0.1442  0.0831 -0.1980
64194SOL    HW110192   2.370   6.526  13.327 -0.7946 -0.3380 -0.7652
64194SOL    HW210193   2.452   6.630  13.253  0.4351 -0.1361  0.8275
64195SOL     OW10194   7.390  11.583   1.570  0.3832  0.3824 -0.1018
64195SOL    HW110195   7.377  11.565   1.663  1.1321 -0.8636 -0.2122
64195SOL    HW210196   7.319  11.642   1.547 -0.9684 -0.8141  0.8273
64196SOL     OW10197   5.015   5.372  13.205  0.3745 -0.3920 -0.0957
64196SOL    HW110198   4.988   5.458  13.238 -0.6293 -0.4302 -0.7851
64196SOL    HW210199   4.946   5.346  13.145  1.7167 -0.7408 -1.5536
64197SOL     OW10200  10.991   8.887   1.440  0.0599  0.2842  0.6108
64197SOL    HW110201  10.946   8.898   1.356  0.6658  0.0254  0.2449
64197SOL    HW210202  11.077   8.852   1.416  0.7897  1.6143  1.2300
64198SOL     OW10203   2.771  12.524   2.802 -0.4000  0.3629  0.1196
64198SOL    HW110204   2.708  12.453   2.791 -0.1025 -0.0795  1.1906
64198SOL    HW210205   2.724  12.592   2.850 -0.1405  0.1276  0.7157
64199SOL     OW10206   7.898  11.357   7.513 -0.6844  0.6236  0.1099
64199SOL    HW110207   7.878  11.302   7.589 -1.5581  2.0212  0.9310
64199SOL    HW210208   7.931  11.438   7.550  0.3921  0.7566 -1.0814
64200SOL     OW10209  11.422   8.577   7.375 -0.1826 -0.0215 -0.4697
64200SOL    HW110210  11.340   8.557   7.420 -0.1962  1.0632  0.0350
64200SOL    HW210211  11.483   8.510   7.406 -0.3310  0.3908  0.7845
64201SOL     OW10212   0.197   8.903   9.902  0.8341 -0.0153 -0.1873
64201SOL    HW110213   0.159   8.824   9.862  0.4558 -1.1855  2.2773
64201SOL    HW210214   0.168   8.975   9.846  0.6947 -1.5533 -2.1813
64202SOL     OW10215   2.471  11.136  13.906 -0.6697  0.2754  0.2469
64202SOL    HW110216   2.411  11.061  13.902  1.2595 -1.3370  0.1533
64202SOL    HW210217   2.486  11.159  13.814  2.2177 -2.2486 -0.0671
64203SOL     OW10218   6.103   8.465   8.842  0.0642 -0.2460  0.0092
64203SOL    HW110219   6.074   8.399   8.906  0.0611 -0.5342 -0.2839
64203SOL    HW210220   6.158   8.416   8.781  0.7776  0.1945  0.2731
64204SOL     OW10221   0.107   5.313   1.781 -0.2218  0.3741  0.0699
64204SOL    HW110222   0.043   5.344   1.717  1.0523  1.2680 -0.8226
64204SOL    HW210223   0.189   5.354   1.754  1.2699 -2.5746 -0.2520
64205SOL     OW10224  13.400   5.979   9.723  0.1622 -0.3264 -0.6031
64205SOL    HW110225  13.485   5.957   9.685 -0.3000  1.1331 -2.6862
64205SOL    HW210226  13.337   5.937   9.665 -0.5499  0.6762 -0.5899
64206SOL     OW10227   1.409   8.386   1.176 -0.0487 -0.1339  0.0877
64206SOL    HW110228   1.427   8.434   1.257 -0.3308 -0.1833  0.1808
64206SOL    HW210229   1.489   8.337   1.159  0.1701  0.2157  0.0992
64207SOL     OW10230   6.636   8.683   1.135  0.7495 -0.2705  0.3061
64207SOL    HW110231   6.687   8.761   1.155  0.4083  0.4073 -1.3149
64207SOL    HW210232   6.564   8.715   1.082  0.5956 -1.6838 -0.3690
64208SOL     OW10233   3.858   1.227   3.391  0.5178 -0.6049  0.5964
64208SOL    HW110234   3.861   1.134   3.368 -0.3957 -0.5425  0.1876
64208SOL    HW210235   3.773   1.239   3.433  0.1066  0.2764 -0.4316
64209SOL     OW10236  10.458   4.020   6.578  0.3649  0.2941 -0.8893
64209SOL    HW110237  10.491   3.948   6.631  1.0092  0.5585 -0.9230
64209SOL    HW210238  10.404   4.071   6.639  1.0352  0.5509 -0.4995
64210SOL     OW10239   2.563   4.601   8.794  0.1065  0.0311  0.4027
64210SOL    HW110240   2.560   4.645   8.710  2.1072  0.3102  0.4147
64210SOL    HW210241   2.545   4.509   8.774  0.6988  0.0745 -0.3622
64211SOL     OW10242   9.679  13.175   0.519  0.1321 -0.3619 -0.1624
64211SOL    HW110243   9.767  13.211   0.530 -0.2589  0.4045  0.5292
64211SOL    HW210244   9.633  13.239   0.464 -0.6651  0.4048  1.3405
64212SOL     OW10245   3.859   5.889  13.170  0.0833 -0.0081  0.1127
64212SOL    HW110246   3.860   5.977  13.205 -3.1829 -0.1582  0.9080
64212SOL    HW210247   3.928   5.842  13.218  0.0241  1.4074  1.6237
64213SOL     OW10248  10.225   7.833   0.882 -0.4220 -0.6330 -0.0934
64213SOL    HW110249  10.309   7.876   0.867 -0.6072 -0.3682 -0.3821
64213SOL    HW210250  10.165   7.877   0.823 -1.2102  0.5708  1.5240
64214SOL     OW10251   2.870  10.103  10.012 -0.1449  0.0668  0.4382
64214SOL    HW110252   2.958  10.115  10.047  0.3601 -1.5990 -0.1466
64214SOL    HW210253   2.873  10.140   9.924 -0.4981  1.3624  0.9401
64215SOL     OW10254   7.775  12.744   9.534 -0.5301  0.0474  0.2209
64215SOL    HW110255   7.849  12.733   9.474 -0.0840 -1.0739  0.9448
64215SOL    HW210256   7.787  12.831   9.571  0.6899 -0.2814  0.6479
64216SOL     OW10257   4.105   6.444   6.940  0.2050  0.0455  0.4368
64216SOL    HW110258   4.129   6.501   7.013  0.1737  0.1334  0.3784
64216SOL    HW210259   4.011   6.434   6.948 -0.1704  1.9420 -0.9396
64217SOL     OW10260   3.984   1.280   4.884  0.6339 -0.3046 -0.2601
64217SOL    HW110261   4.080   1.275   4.876  0.6307  0.2811 -0.7855
64217SOL    HW210262   3.962   1.363   4.843  0.1003  0.6008  1.7188
64218SOL     OW10263   8.103   2.444   2.034  0.0568 -0.4836  0.6019
64218SOL    HW110264   8.081   2.386   1.961  0.4198 -0.3356  0.3764
64218SOL    HW210265   8.165   2.506   1.998 -0.9488  0.5689  0.6174
64219SOL     OW10266   8.078   5.046  13.508  0.0821  0.3980  0.1970
64219SOL    HW110267   7.990   5.024  13.476  1.1857 -1.5480 -1.8353
64219SOL    HW210268   8.096   4.980  13.575  0.4591 -0.0722 -0.3520
64220SOL     OW10269  10.627   1.694   5.323  0.2686 -0.1083 -0.1911
64220SOL    HW110270  10.670   1.609   5.315  1.1322  0.4229 -1.3751
64220SOL    HW210271  10.642   1.737   5.239  1.3149  1.8889  0.9562
64221SOL     OW10272  13.080  13.989  11.673 -0.3060  0.0114 -0.2999
64221SOL    HW110273  13.087  14.046  11.596 -1.9927  0.1334 -0.4025
64221SOL    HW210274  13.030  14.041  11.736  2.8771  0.8032  1.8105
64222SOL     OW10275  10.071   2.210   7.837 -0.1384  0.1958  0.2380
64222SOL    HW110276  10.041   2.284   7.890  0.6926  2.2669 -2.0386
64222SOL    HW210277  10.155   2.185   7.876 -0.8168 -0.1349  1.5313
64223SOL     OW10278  11.023   2.447   6.358  0.3594  0.2622  0.5214
64223SOL    HW110279  11.091   2.512   6.376  0.5116 -0.0274  1.0035
64223SOL    HW210280  11.004   2.408   6.443 -0.2167  0.1492  0.3462
64224SOL     OW10281  10.632   1.190   3.926  0.3357  0.3620 -0.8514
64224SOL    HW110282  10.544   1.226   3.931 -0.0331 -0.6337  0.4631
64224SOL    HW210283  10.635   1.124   3.996  2.9541  2.1158  0.8424
64225SOL     OW10284   5.430  10.656   8.380  0.1812  0.3040 -0.8974
64225SOL    HW110285   5.440  10.583   8.441  0.6223  0.0748 -1.2394
64225SOL    HW210286   5.355  10.632   8.326  0.0306  0.3270 -0.7004
64226SOL     OW10287  13.572  11.079   3.483  0.0440 -0.1634 -0.0308
64226SOL    HW110288  13.500  11.060   3.544 -0.7716  0.2330 -0.8604
64226SOL    HW210289  13.651  11.051   3.530 -0.7535 -1.8135  0.3832
64227SOL     OW10290   9.916   0.750   3.431  0.2342 -0.0513  0.4552
64227SOL    HW110291   9.921   0.844   3.414 -2.4752  0.1596  0.3819
64227SOL    HW210292   9.889   0.712   3.348 -2.6517 -0.3359  1.4340
64228SOL     OW10293  12.794  10.803  13.356  0.2380 -0.0769  0.4048
64228SOL    HW110294  12.786  10.899  13.358 -0.1116 -0.0138 -1.7737
64228SOL    HW210295  12.888  10.787  13.353  0.3769  0.0889  2.3477
64229SOL     OW10296  14.021   5.900  13.789 -0.2592 -0.4505  0.0585
64229SOL    HW110297  14.060   5.851  13.861  0.6378 -0.9355 -0.7364
64229SOL    HW210298  14.090   5.905  13.723 -1.0952 -0.1264 -0.8191
64230SOL     OW10299   5.723  11.730   4.839 -0.3563  0.7082  0.0008
64230SOL    HW110300   5.722  11.757   4.747 -1.4305  1.2161  0.1499
64230SOL    HW210301   5.631  11.721   4.862 -0.0802 -1.0425  0.5730
64231SOL     OW10302   9.812  11.970   2.667  0.0951  0.0935  0.0325
64231SOL    HW110303   9.746  11.901   2.675  1.0916 -0.9199 -0.2008
64231SOL    HW210304   9.770  12.037   2.613 -0.6341 -0.6806 -0.3798
64232SOL     OW10305   7.547   7.095  13.859  0.4569 -0.4431 -0.2473
64232SOL    HW110306   7.468   7.055  13.824  1.3209 -2.3926 -0.1277
64232SOL    HW210307   7.555   7.059  13.948  0.6405  0.9721  0.3317
64233SOL     OW10308   2.421   7.775  10.521 -0.4326  0.3539  0.3138
64233SOL    HW110309   2.350   7.812  10.468 -1.4935  0.1066  1.5208
64233SOL    HW210310   2.406   7.680  10.517 -0.4622  0.3291  0.9667
64234SOL     OW10311   4.640   9.291  13.155 -0.1064  0.0616 -1.0271
64234SOL    HW110312   4.723   9.331  13.129  0.0380 -0.3932 -1.2772
64234SOL    HW210313   4.587   9.292  13.075 -0.9878  1.9111 -0.4656
64235SOL     OW10314   8.205  12.312   0.686  0.4633  0.2022 -0.2005
64235SOL    HW110315   8.168  12.299   0.774  0.9544  1.5634  0.2307
64235SOL    HW210316   8.239  12.226   0.662  1.5695  0.0962  1.5449
64236SOL     OW10317   1.679   7.110   0.941 -0.4288  0.1678  0.5324
64236SOL    HW110318   1.664   7.199   0.912  1.7472 -0.3135 -2.5409
64236SOL    HW210319   1.722   7.119   1.026 -2.1582  1.8979  1.2957
64237SOL     OW10320   3.255   7.483   7.919 -0.4932  0.0819  0.0363
64237SOL    HW110321   3.337   7.518   7.954  0.0767 -0.2904 -0.8929
64237SOL    HW210322   3.281   7.432   7.842 -1.7416  1.2038 -1.1840
64238SOL     OW10323   3.522   3.746  10.495 -0.6783 -0.0898  0.2449
64238SOL    HW110324   3.536   3.673  10.435 -0.3054 -1.0271  1.4325
64238SOL    HW210325   3.446   3.792  10.459  0.5633  0.4225 -1.8943
64239SOL     OW10326   5.921  11.502   4.946 -0.6529 -0.6525  0.7908
64239SOL    HW110327   5.884  11.585   4.916  2.0657  0.7139  0.8987
64239SOL    HW210328   5.919  11.447   4.868 -0.2278  0.3869  0.0134
64240SOL     OW10329   5.872   6.343   6.397 -0.4268  0.3525 -0.1188
64240SOL    HW110330   5.800   6.297   6.356 -0.0909  0.4217 -0.7988
64240SOL    HW210331   5.931   6.366   6.325  1.2163 -1.3324  0.5991
64241SOL     OW10332   1.505  13.598   1.710 -0.2430 -0.2644 -0.2678
64241SOL    HW110333   1.515  13.557   1.796  1.5019 -1.7464 -1.1122
64241SOL    HW210334   1.419  13.640   1.713 -0.1762 -0.1605  2.2279
64242SOL     OW10335   0.766   8.107  10.653  0.1519  0.1132  0.1346
64242SOL    HW110336   0.846   8.101  10.704  0.1643 -2.2478 -0.0274
64242SOL    HW210337   0.746   8.200  10.649  2.3206  0.6719  1.0340
64243SOL     OW10338   3.808   3.345   2.824 -0.5558 -0.2567 -0.1334
64243SOL    HW110339   3.892   3.316   2.859 -1.7146 -0.6577  2.5081
64243SOL    HW210340   3.764   3.264   2.796 -1.2885 -0.4517  1.4636
64244SOL     OW10341   2.862   0.711   6.792  0.4684 -0.1582 -0.4442
64244SOL    HW110342   2.865   0.744   6.882  0.8012 -1.7527  0.1570
64244SOL    HW210343   2.832   0.786   6.740 -0.2188  0.6497  1.0538
64245SOL     OW10344   2.855   2.204   0.382  0.1328 -0.3274  0.8507
64245SOL    HW110345   2.937   2.178   0.341  0.4556 -0.9159  1.8259
64245SOL    HW210346   2.875   2.287   0.426 -0.1192  0.1228  0.1390
64246SOL     OW10347   0.769  12.213   3.599 -0.0837 -0.2538  0.1433
64246SOL    HW110348   0.814  12.170   3.526 -1.9208 -1.1959 -0.5206
64246SOL    HW210349   0.825  12.287   3.622 -0.4984  1.5503 -3.8208
64247SOL     OW10350  12.074  13.064   8.008 -0.1999  0.2115 -0.4631
64247SOL    HW110351  12.090  13.014   7.928  0.4912  0.1194 -0.2682
64247SOL    HW210352  12.055  12.997   8.074 -0.8292  0.2905 -0.5549
64248SOL     OW10353   0.046   3.956  11.151 -0.5906  1.1178 -0.4359
64248SOL    HW110354   0.087   3.906  11.221  1.3441  2.4940 -0.5138
64248SOL    HW210355   0.090   4.040  11.153 -0.8475  1.3772 -2.9778
64249SOL     OW10356  12.717   6.097   2.503 -0.1577 -0.4865  0.3650
64249SOL    HW110357  12.665   6.136   2.573 -1.9777  0.3972 -1.3825
64249SOL    HW210358  12.776   6.167   2.475  2.8188 -1.7440  2.9345
64250SOL     OW10359   0.968   4.429   2.805 -0.2740  0.2975  0.5172
64250SOL    HW110360   1.019   4.374   2.745 -2.4743 -0.2463 -0.9633
64250SOL    HW210361   0.957   4.376   2.883 -1.7870 -1.1629 -0.6315
64251SOL     OW10362   8.618   2.334   5.151 -0.1571  0.0062 -0.0419
64251SOL    HW110363   8.581   2.282   5.223  0.6209  1.0528  1.1638
64251SOL    HW210364   8.550   2.334   5.084 -1.3312 -0.1658  1.1057
64252SOL     OW10365   6.995   1.830   8.787 -0.0706  0.2418  0.6902
64252SOL    HW110366   7.045   1.789   8.717 -0.5488  1.3299 -0.3237
64252SOL    HW210367   6.923   1.874   8.742  0.5346  2.3534  1.6812
64253SOL     OW10368  10.109   7.441  13.138  0.1299  0.4418 -0.5195
64253SOL    HW110369  10.085   7.411  13.050 -0.7409  0.2149 -0.2092
64253SOL    HW210370  10.049   7.396  13.197  0.0980  1.2871  0.1206
64254SOL     OW10371   7.319   6.363   0.141 -0.3960 -0.7915 -0.6573
64254SOL    HW110372   7.260   6.326   0.207 -1.2259  0.8148 -0.4266
64254SOL    HW210373   7.399   6.311   0.148 -1.2479 -2.0653  0.0799
64255SOL     OW10374  11.933   8.488  13.864 -0.2748 -0.8995  0.4118
64255SOL    HW110375  11.962   8.403  13.830 -1.5062 -1.7549  1.3760
64255SOL    HW210376  11.902   8.535  13.787  1.0829 -1.0202 -0.2433
64256SOL     OW10377   5.549   3.730   6.301 -0.1742 -0.0109  0.3305
64256SOL    HW110378   5.473   3.702   6.250 -1.0756  0.1274  1.5448
64256SOL    HW210379   5.526   3.818   6.332  0.2618 -0.1605  1.1085
64257SOL     OW10380   5.584   4.691  13.691 -0.1935 -0.0854  0.0258
64257SOL    HW110381   5.649   4.716  13.756  1.0300  1.0240 -1.5641
64257SOL    HW210382   5.609   4.602  13.666 -0.0198 -0.1115  0.2863
64258SOL     OW10383  12.594   6.908  12.510  1.1665  0.7306  0.0341
64258SOL    HW110384  12.638   6.824  12.495  1.0937  0.1973  2.4040
64258SOL    HW210385  12.517   6.905  12.454  1.1735 -0.7973  0.0664
64259SOL     OW10386   1.002   0.621   1.608 -0.1793 -0.2879 -0.6135
64259SOL    HW110387   0.944   0.593   1.678 -0.4061 -1.7292 -1.3426
64259SOL    HW210388   1.069   0.673   1.652 -2.2925  1.9596  0.1671
64260SOL     OW10389   3.602   0.740   4.802 -0.7806  0.3046 -0.1267
64260SOL    HW110390   3.560   0.818   4.766  0.2323  1.3971  0.9414
64260SOL    HW210391   3.657   0.707   4.731 -2.0769 -0.1499 -0.9659
64261SOL     OW10392   7.289   9.438  10.750 -0.2351  0.1086 -0.0306
64261SOL    HW110393   7.338   9.364  10.785 -1.2291  0.2671  1.8274
64261SOL    HW210394   7.199   9.424  10.779 -0.6103  1.6053 -0.3498
64262SOL     OW10395   2.164   2.848   1.860  0.3344 -0.3590  0.2816
64262SOL    HW110396   2.149   2.942   1.867 -0.1315 -0.5408  2.1542
64262SOL    HW210397   2.077   2.809   1.860  0.5620 -0.9052  1.8293
64263SOL     OW10398  13.976  10.329   1.965 -0.0769  0.1163 -0.2081
64263SOL    HW110399  13.956  10.421   1.978  1.6359  0.5403 -0.2912
64263SOL    HW210400  14.000  10.297   2.052  0.3431  0.0347 -0.3484
64264SOL     OW10401  13.922  11.267   4.502 -0.0044 -0.1575  0.8080
64264SOL    HW110402  13.954  11.177   4.509 -0.8758 -0.7778 -1.9684
64264SOL    HW210403  13.830  11.261   4.527 -0.0497 -0.0441  0.6675
64265SOL     OW10404   3.319   4.041   8.544  0.0285 -1.0528  0.6048
64265SOL    HW110405   3.288   4.090   8.468 -0.5337 -2.4719 -0.1195
64265SOL    HW210406   3.301   4.098   8.618  0.6745  0.4035 -0.3159
64266SOL     OW10407   9.076   2.385   6.664 -0.0934 -0.2845 -0.1374
64266SOL    HW110408   8.999   2.415   6.616 -0.8023 -0.5198  0.8104
64266SOL    HW210409   9.041   2.357   6.749  1.2627  1.2853  0.9948
64267SOL     OW10410   5.812  11.442   0.293 -0.3145  0.7399 -0.1427
64267SOL    HW110411   5.862  11.363   0.276 -1.7129 -0.1138 -0.3992
64267SOL    HW210412   5.873  11.514   0.276  0.8268 -0.2681 -0.3509
64268SOL     OW10413  13.764  10.269   4.142  0.3103  0.0019  0.3278
64268SOL    HW110414  13.823  10.344   4.138  2.2702 -1.3775  1.3120
64268SOL    HW210415  13.744  10.248   4.051  1.5709  0.3632 -0.0453
64269SOL     OW10416  10.803  10.826   0.993 -0.1391  0.2535 -0.0218
64269SOL    HW110417  10.799  10.731   1.006  0.2439  0.1175 -0.8313
64269SOL    HW210418  10.820  10.836   0.899  0.7968  1.1069  0.2305
64270SOL     OW10419  10.964  11.310  13.895 -0.3458  0.2758 -0.6387
64270SOL    HW110420  10.916  11.248  13.950  0.5277  0.1673  0.0404
64270SOL    HW210421  11.007  11.256  13.829 -0.1158  0.2208 -0.4471
64271SOL     OW10422   2.198   6.991  13.071  0.9649  0.0550  0.1794
64271SOL    HW110423   2.115   6.952  13.099  0.6944  1.8030  2.0463
64271SOL    HW210424   2.265   6.944  13.119  0.8536  0.2321  0.5078
64272SOL     OW10425   0.890   6.220   8.575 -0.2039  0.5111 -0.3125
64272SOL    HW110426   0.904   6.254   8.487  2.5595 -2.0490 -1.0197
64272SOL    HW210427   0.883   6.125   8.564  4.4093 -0.4635  2.3725
64273SOL     OW10428   5.922  12.546   2.816  0.8182 -0.7558 -0.1088
64273SOL    HW110429   5.943  12.626   2.863 -0.5913 -0.4750  0.0958
64273SOL    HW210430   5.967  12.556   2.732  0.6095  0.2845 -0.1167
64274SOL     OW10431  12.976   2.969   3.105  0.3223  0.2984 -0.6370
64274SOL    HW110432  12.901   3.017   3.071 -0.3383 -1.0321 -1.1134
64274SOL    HW210433  12.974   2.885   3.059 -0.3582 -1.4216  2.2441
64275SOL     OW10434  13.778  11.366   9.934 -0.2862  0.0403 -0.3078
64275SOL    HW110435  13.872  11.376   9.922  0.5539 -1.4213  3.6296
64275SOL    HW210436  13.749  11.449   9.971  0.4308 -0.8104  2.4288
64276SOL     OW10437   7.564  12.053  12.656 -0.1710  0.3867  0.2378
64276SOL    HW110438   7.478  12.082  12.625 -0.3510 -0.6026 -0.2311
64276SOL    HW210439   7.618  12.050  12.577 -0.0429 -0.1139  0.3376
64277SOL     OW10440   4.577   3.951  11.757  0.5271 -0.6848  0.1143
64277SOL    HW110441   4.672   3.953  11.747  0.8216 -0.2736  2.4194
64277SOL    HW210442   4.558   3.862  11.787  0.5303 -0.1094  1.9684
64278SOL     OW10443   6.293   3.897   0.681 -0.8988 -0.1947 -0.5036
64278SOL    HW110444   6.355   3.927   0.615  0.4562 -0.4118  0.6237
64278SOL    HW210445   6.337   3.913   0.765 -2.6337  0.2600  0.3876
64279SOL     OW10446   1.530   6.670   2.517  0.7794  0.2428 -0.2859
64279SOL    HW110447   1.466   6.696   2.452  1.3379 -1.0624 -1.4092
64279SOL    HW210448   1.485   6.681   2.601 -0.4314  0.6391 -0.9642
64280SOL     OW10449  12.973   6.927   5.214  0.3437 -0.8217  0.0322
64280SOL    HW110450  12.968   6.896   5.304  0.1445  2.4515  1.2662
64280SOL    HW210451  12.894   6.980   5.202  1.8561  1.3859 -0.9205
64281SOL     OW10452  11.848   7.642   2.732  0.2373 -0.0818 -0.0253
64281SOL    HW110453  11.800   7.689   2.664 -0.2008 -2.4675 -1.4819
64281SOL    HW210454  11.782   7.588   2.775  1.0033 -0.7240  0.3680
64282SOL     OW10455   6.839   4.779  10.381  0.5816 -0.2162  0.6985
64282SOL    HW110456   6.837   4.698  10.330 -0.7345  0.5718 -0.5750
64282SOL    HW210457   6.917   4.826  10.349  0.6791 -0.4456  0.5963
64283SOL     OW10458   7.495  12.632   7.974 -0.0599 -0.5187 -0.0322
64283SOL    HW110459   7.447  12.678   7.906  1.1363  0.1178 -0.4841
64283SOL    HW210460   7.493  12.691   8.049  3.2118  1.4099 -1.2210
64284SOL     OW10461  12.508   9.224   6.546  0.2028 -0.5350 -0.2090
64284SOL    HW110462  12.518   9.196   6.455 -1.3794 -0.1539 -0.5440
64284SOL    HW210463  12.418   9.201   6.568  0.6754 -0.9592  1.3993
64285SOL     OW10464   6.185   0.416   1.777 -0.2540  0.3922  0.4511
64285SOL    HW110465   6.125   0.355   1.821 -1.2631 -0.7881 -2.3806
64285SOL    HW210466   6.271   0.393   1.812 -0.6964 -2.2307  0.0285
64286SOL     OW10467   1.409   4.967  11.030 -0.5515 -0.0369  0.1627
64286SOL    HW110468   1.422   5.038  11.093 -1.3431  0.4928 -0.2532
64286SOL    HW210469   1.487   4.970  10.974  0.0315 -0.3451  0.9500
64287SOL     OW10470   4.891   3.168   6.103  0.2959  0.1347 -0.1270
64287SOL    HW110471   4.910   3.176   6.197 -0.7608 -1.6660  0.2804
64287SOL    HW210472   4.924   3.082   6.079 -0.7057  0.0018 -1.0883
64288SOL     OW10473   9.304   9.551   0.754  0.9070  0.1102  0.3391
64288SOL    HW110474   9.315   9.490   0.826  0.4261  0.5250  0.7736
64288SOL    HW210475   9.317   9.497   0.675  3.2032  0.0101  0.7184
64289SOL     OW10476   2.781  11.786  13.662 -0.5881  0.1019  0.4315
64289SOL    HW110477   2.708  11.738  13.624 -0.1539 -0.3483  0.1510
64289SOL    HW210478   2.856  11.727  13.653 -0.5649 -0.2525  2.4318
64290SOL     OW10479   3.142   8.970  12.143  0.4253  0.6667  0.0307
64290SOL    HW110480   3.172   8.992  12.231 -1.2159  3.4090  0.0253
64290SOL    HW210481   3.202   9.019  12.085  1.1675 -0.6991 -0.4002
64291SOL     OW10482   2.503  11.084   2.129 -0.2794 -0.2915 -0.2395
64291SOL    HW110483   2.489  11.141   2.053 -1.7433 -1.4908 -0.9388
64291SOL    HW210484   2.598  11.076   2.135 -0.1056  0.5155 -1.4283
64292SOL     OW10485   9.370   8.601   8.380 -0.0032  0.3334  0.5394
64292SOL    HW110486   9.455   8.604   8.336 -0.0204  1.3623  0.5639
64292SOL    HW210487   9.309   8.642   8.319 -0.4916 -0.3790  0.5309
64293SOL     OW10488  12.546   1.357  13.557  0.5732 -0.5396  0.1235
64293SOL    HW110489  12.454   1.335  13.573  0.4480  0.0769  0.2769
64293SOL    HW210490  12.592   1.329  13.636  0.0003  2.2346  1.5673
64294SOL     OW10491   5.514   3.826   1.823  0.0975 -0.4038  0.1163
64294SOL    HW110492   5.535   3.919   1.815  0.5131 -0.5998 -1.4566
64294SOL    HW210493   5.575   3.793   1.889 -0.1270  0.4478  0.7658
64295SOL     OW10494   6.504  11.905   4.012  0.1925  0.1373 -0.3348
64295SOL    HW110495   6.509  11.974   3.946  2.4492  0.9453  0.5689
64295SOL    HW210496   6.545  11.943   4.090  0.5691 -1.8618  0.5124
64296SOL     OW10497  13.580   8.407  12.372  0.5639  0.2366 -0.1034
64296SOL    HW110498  13.554   8.461  12.446 -2.3814  0.1280 -0.9123
64296SOL    HW210499  13.504   8.351  12.356  2.5012 -2.3152 -0.9569
64297SOL     OW10500  12.733  12.547   9.184  0.1522 -0.1807 -0.0418
64297SOL    HW110501  12.662  12.598   9.146 -0.3101 -1.9760 -1.7836
64297SOL    HW210502  12.690  12.468   9.219  0.9684  0.0386  1.5822
64298SOL     OW10503   0.803   3.083   0.463  0.1782  0.4824  0.7450
64298SOL    HW110504   0.866   3.017   0.435  0.4985  1.5360 -1.2134
64298SOL    HW210505   0.803   3.077   0.559  2.1717 -0.5200  0.7362
64299SOL     OW10506   5.728   2.098   5.298  0.0357 -0.0565  0.0387
64299SOL    HW110507   5.737   2.068   5.207 -1.1603  1.4537 -0.6322
64299SOL    HW210508   5.703   2.020   5.347  0.8703 -0.9292 -0.8978
64300SOL     OW10509  10.232   1.500   6.070 -0.0296 -0.1153 -0.7297
64300SOL    HW110510  10.162   1.513   6.133  0.5657  0.9641 -0.2643
64300SOL    HW210511  10.313   1.510   6.121  0.4890 -1.6674 -1.1814
64301SOL     OW10512   3.443   9.666  13.911  0.1588  0.0969  0.2773
64301SOL    HW110513   3.409   9.715  13.986 -1.6295 -1.3416  0.4635
64301SOL    HW210514   3.376   9.675  13.843  0.3084 -1.1729 -0.0670
64302SOL     OW10515   9.018   4.282  13.313 -0.0811  0.5429 -0.4234
64302SOL    HW110516   8.931   4.317  13.332  0.8046  1.5148  2.2822
64302SOL    HW210517   9.015   4.191  13.344 -0.3592  0.2995 -1.1400
64303SOL     OW10518  12.968  10.500   7.854 -0.4724 -0.1381  0.3673
64303SOL    HW110519  12.935  10.564   7.791 -0.3061 -0.7735 -0.3831
64303SOL    HW210520  12.930  10.526   7.937 -0.8510  0.6077 -0.0316
64304SOL     OW10521   5.734   9.537   5.916  0.5050  0.5256 -0.2343
64304SOL    HW110522   5.699   9.519   5.828  1.6760  1.2012 -0.8736
64304SOL    HW210523   5.773   9.454   5.943  0.0513  0.2847 -0.3161
64305SOL     OW10524   7.403   3.653  10.558 -0.0039 -0.5919 -0.0271
64305SOL    HW110525   7.468   3.721  10.577 -0.3569 -0.8129  2.2001
64305SOL    HW210526   7.329   3.674  10.615 -1.7446 -0.6477 -2.1097
64306SOL     OW10527  12.483   8.453   5.334  0.0167 -0.0040  0.4887
64306SOL    HW110528  12.518   8.366   5.354 -2.1018 -1.0242  0.0949
64306SOL    HW210529  12.389   8.439   5.324 -0.5751  2.5626  1.5935
64307SOL     OW10530  13.653   9.582  10.762  0.0195  0.0179  0.5367
64307SOL    HW110531  13.716   9.514  10.787 -0.0982  0.0034  0.7930
64307SOL    HW210532  13.664   9.650  10.828  0.3482  0.3813  0.1095
64308SOL     OW10533   1.869  13.725  12.309  0.3305  0.0240 -0.0320
64308SOL    HW110534   1.951  13.774  12.305 -0.3539  1.1831 -0.1683
64308SOL    HW210535   1.873  13.667  12.232  2.1455 -1.8321  1.3360
64309SOL     OW10536   7.109   3.879  10.311 -0.2579  0.4877  0.3562
64309SOL    HW110537   7.036   3.940  10.317 -0.5060  0.0685  2.0242
64309SOL    HW210538   7.092   3.828  10.231 -1.7801  0.4016  0.7134
64310SOL     OW10539  11.551   9.927   1.538  0.1826 -0.4440  0.1847
64310SOL    HW110540  11.626   9.940   1.596  0.5490 -2.0922  0.1259
64310SOL    HW210541  11.482   9.894   1.596 -0.5995  1.2114  0.2705
64311SOL     OW10542   8.073   4.342   4.191 -0.4194 -0.6777 -0.1399
64311SOL    HW110543   7.987   4.382   4.182  0.3144  0.8606 -0.6761
64311SOL    HW210544   8.062   4.253   4.159 -1.8482 -0.5799  0.0265
64312SOL     OW10545   3.803  13.944   3.537  0.4131  0.3882 -0.4181
64312SOL    HW110546   3.803  13.852   3.565  0.1842 -0.2278 -2.3179
64312SOL    HW210547   3.718  13.956   3.495  0.0181  1.7929  0.7236
64313SOL     OW10548  10.891   0.776   8.527  0.6067  0.2267 -0.6666
64313SOL    HW110549  10.803   0.744   8.547  1.0399  0.1173  1.1748
64313SOL    HW210550  10.897   0.770   8.431 -0.5803 -1.8966 -0.6654
64314SOL     OW10551   4.131   9.898   2.747  0.6186 -0.3533  0.1266
64314SOL    HW110552   4.049   9.924   2.789  0.6727  0.1673 -0.0764
64314SOL    HW210553   4.164   9.826   2.800 -0.1965 -0.8702 -0.0512
64315SOL     OW10554   7.171   0.275  13.878 -0.0367  0.2287 -0.5395
64315SOL    HW110555   7.146   0.195  13.832  1.7467 -1.1612  0.7922
64315SOL    HW210556   7.140   0.345  13.820 -1.9797 -1.3579 -1.5720
64316SOL     OW10557  11.370   4.180  11.865 -0.8841 -0.0536  0.2652
64316SOL    HW110558  11.287   4.141  11.891  0.0603 -1.5728  1.2024
64316SOL    HW210559  11.399   4.126  11.791 -0.7609  0.5200 -0.1108
64317SOL     OW10560   4.125   8.404  13.647  0.2270  0.3425  0.3188
64317SOL    HW110561   4.036   8.438  13.658 -0.3477 -0.8241 -0.4814
64317SOL    HW210562   4.177   8.481  13.624 -0.2588  1.2871  2.1773
64318SOL     OW10563   4.245   3.742   7.751 -0.1237 -0.3856  0.5134
64318SOL    HW110564   4.272   3.733   7.843  0.3436 -1.3869  0.2905
64318SOL    HW210565   4.170   3.684   7.743  0.1939 -0.7483  0.1245
64319SOL     OW10566   7.188   5.621   7.622 -0.3847 -0.1094 -0.0886
64319SOL    HW110567   7.247   5.558   7.580  1.2142  1.4047 -0.2458
64319SOL    HW210568   7.246   5.689   7.655 -1.9366  0.6197  1.2904
64320SOL     OW10569   8.596   3.347   3.235  0.3635 -0.1057 -0.0122
64320SOL    HW110570   8.531   3.414   3.259  1.1243  0.5142  0.3673
64320SOL    HW210571   8.605   3.293   3.313 -1.3613 -1.6353 -0.7804
64321SOL     OW10572   2.623   7.463   3.909  0.6414 -0.2221 -0.1503
64321SOL    HW110573   2.676   7.460   3.829  2.4231 -0.3250  0.9782
64321SOL    HW210574   2.658   7.537   3.958 -0.5031 -0.0920  0.4998
64322SOL     OW10575   3.244   2.497   7.449  0.3532  0.4056 -0.1927
64322SOL    HW110576   3.198   2.461   7.373 -0.0578 -1.8822  1.0239
64322SOL    HW210577   3.270   2.419   7.499  1.8312  1.7953  1.3001
64323SOL     OW10578   7.865   6.209  12.840  0.0483 -0.1675 -0.1150
64323SOL    HW110579   7.879   6.133  12.782 -0.1208  0.4328 -0.9617
64323SOL    HW210580   7.817   6.173  12.915 -2.3851 -0.4614 -1.7020
64324SOL     OW10581  13.140   9.640   2.826  0.2175 -0.1001 -0.3379
64324SOL    HW110582  13.075   9.703   2.856  0.8264  0.2329  0.3329
64324SOL    HW210583  13.197   9.691   2.768 -0.1316 -0.3996 -0.9564
64325SOL     OW10584   8.385   5.571   2.666 -0.1412 -0.0034 -0.3866
64325SOL    HW110585   8.399   5.508   2.595 -0.1071  1.4399 -1.7113
64325SOL    HW210586   8.460   5.558   2.724  0.0882 -0.8699 -0.8560
64326SOL     OW10587   5.971  10.998   6.656 -0.8012 -0.3225  0.0219
64326SOL    HW110588   5.940  11.023   6.568 -0.2266 -2.8331 -0.9938
64326SOL    HW210589   5.891  10.972   6.702 -0.7865 -2.4208 -1.0378
64327SOL     OW10590   2.282  10.916  10.209 -0.0485 -0.7788 -0.5227
64327SOL    HW110591   2.311  10.852  10.274  1.4998  0.7130  0.3281
64327SOL    HW210592   2.363  10.957  10.178 -0.8875 -0.3019 -2.1882
64328SOL     OW10593  12.991  10.655   1.336  0.2935 -0.0039  0.0695
64328SOL    HW110594  12.914  10.691   1.291  0.3090 -0.6502 -0.4858
64328SOL    HW210595  13.065  10.700   1.296  0.1869  1.0390  1.0013
64329SOL     OW10596   0.512   0.938   6.663 -0.9834  0.1691 -0.3909
64329SOL    HW110597   0.518   0.861   6.721 -0.7643  0.5818  0.1409
64329SOL    HW210598   0.419   0.945   6.643 -1.4121  1.3839  1.7941
64330SOL     OW10599   3.515   5.524  11.888  0.0411 -0.1490  0.3835
64330SOL    HW110600   3.570   5.502  11.812  0.4951 -0.3579  0.7683
64330SOL    HW210601   3.435   5.473  11.875 -0.0467  0.1190 -0.1573
64331SOL     OW10602   6.594  11.633  12.578 -0.2294  0.0371 -0.2024
64331SOL    HW110603   6.581  11.723  12.609 -0.3949  0.3203 -1.0858
64331SOL    HW210604   6.659  11.597  12.639 -1.8637 -0.0247  1.6240
64332SOL     OW10605  12.558   0.452   3.263 -0.0336 -0.3769 -0.3909
64332SOL    HW110606  12.531   0.543   3.254  1.1906 -0.0510 -1.0024
64332SOL    HW210607  12.561   0.419   3.174 -1.4906 -1.3503 -0.1096
64333SOL     OW10608  13.113   6.703  13.062 -0.0370 -0.2055  0.5579
64333SOL    HW110609  13.163   6.658  13.131  0.6294 -1.5399 -0.7254
64333SOL    HW210610  13.024   6.667  13.070  0.1775 -0.7876  0.3670
64334SOL     OW10611   0.150   4.376   2.135  0.2858  0.5024  0.1997
64334SOL    HW110612   0.133   4.382   2.041 -1.4933 -1.9290  0.2694
64334SOL    HW210613   0.246   4.379   2.142  0.4930 -0.0640 -1.7661
64335SOL     OW10614   2.930   6.772  11.779 -0.0692 -0.1328  0.2082
64335SOL    HW110615   2.945   6.862  11.809 -0.3868 -0.5196  1.6399
64335SOL    HW210616   3.017   6.736  11.766  0.1717 -0.3968  2.2174
64336SOL     OW10617   1.702  12.510   1.492  1.0614 -0.4325  0.3991
64336SOL    HW110618   1.667  12.598   1.480  1.5992 -0.2211  0.3666
64336SOL    HW210619   1.641  12.468   1.551  1.2162  0.2133  1.0282
64337SOL     OW10620   0.217   6.501   2.410  0.0331  0.5433  0.2372
64337SOL    HW110621   0.306   6.489   2.377 -0.0619 -1.2443  0.4911
64337SOL    HW210622   0.161   6.495   2.332  0.1494  2.1896  0.0102
64338SOL     OW10623   5.403  13.145   3.866  0.6236  0.1932  0.3041
64338SOL    HW110624   5.391  13.230   3.909 -1.0695  0.7883 -1.2095
64338SOL    HW210625   5.413  13.083   3.938 -0.0483  1.4161  1.5019
64339SOL     OW10626   8.907  10.762  10.174  0.5011  0.1933  0.0337
64339SOL    HW110627   8.867  10.699  10.234 -1.8355 -0.1738 -1.7861
64339SOL    HW210628   8.976  10.713  10.130 -0.3067 -0.6935 -0.2838
64340SOL     OW10629   0.310   8.705   8.337  0.0668  0.4836  0.0923
64340SOL    HW110630   0.247   8.635   8.356  0.0060  0.8246  1.2230
64340SOL    HW210631   0.386   8.659   8.301 -1.8564  0.3041 -4.3131
64341SOL     OW10632   3.002  10.599   1.432 -0.1019 -0.3583  0.6624
64341SOL    HW110633   3.087  10.635   1.408  0.3002 -1.9753 -0.5909
64341SOL    HW210634   2.967  10.564   1.349 -2.2324  0.7074  1.0412
64342SOL     OW10635   3.667   9.528   6.407 -0.3492 -0.1077  0.2175
64342SOL    HW110636   3.751   9.560   6.439 -0.7322  1.2141 -0.0159
64342SOL    HW210637   3.647   9.586   6.334 -0.3520 -1.8898 -1.2850
64343SOL     OW10638  14.044   7.914  13.613  0.1200  0.0720  0.0080
64343SOL    HW110639  13.980   7.874  13.672 -0.3054  1.4807  0.5248
64343SOL    HW210640  13.992   7.949  13.541  0.3846  0.6083  0.0757
64344SOL     OW10641  13.008   1.284   6.877  0.2029 -0.1093 -0.1892
64344SOL    HW110642  13.041   1.231   6.949 -1.4986 -0.1931  0.5914
64344SOL    HW210643  12.922   1.247   6.858 -0.3770  1.3946 -0.6657
64345SOL     OW10644  14.037   9.868   4.420 -0.3279 -0.6787 -0.6343
64345SOL    HW110645  13.945   9.856   4.397 -0.2432  0.0325 -1.3795
64345SOL    HW210646  14.085   9.849   4.340 -0.0145  1.6628 -1.0772
64346SOL     OW10647   9.482  10.885   1.557  0.1039 -0.2811 -0.3989
64346SOL    HW110648   9.482  10.811   1.496  0.4121  0.3162 -1.1448
64346SOL    HW210649   9.395  10.923   1.549 -0.1703 -0.7671  0.2446
64347SOL     OW10650   8.960   9.484   4.264 -0.1540  0.4695  0.1105
64347SOL    HW110651   8.896   9.542   4.307 -1.0492 -1.2762  1.2699
64347SOL    HW210652   8.991   9.534   4.189 -1.6683  2.0260  0.4523
64348SOL     OW10653   6.696   1.878  11.416  0.1912  0.2086 -0.6727
64348SOL    HW110654   6.656   1.827  11.345  1.3463 -0.4454 -0.8740
64348SOL    HW210655   6.709   1.815  11.487  2.0806  0.0430 -1.0982
64349SOL     OW10656   2.158  13.715  12.854 -0.2681 -0.3181 -0.1881
64349SOL    HW110657   2.081  13.709  12.797 -0.8680 -0.5394  0.6256
64349SOL    HW210658   2.139  13.789  12.912  0.0083 -0.5459  0.1982
64350SOL     OW10659   9.195  10.846   4.505  0.2915  0.0305 -0.1453
64350SOL    HW110660   9.108  10.885   4.521  0.6905  1.1337 -0.5307
64350SOL    HW210661   9.191  10.761   4.547 -1.2752 -0.3003 -0.8706
64351SOL     OW10662  11.008   6.328  10.920 -0.1237 -0.0392 -0.1392
64351SOL    HW110663  10.936   6.272  10.948 -0.3892  1.4268  2.3464
64351SOL    HW210664  11.087   6.281  10.947 -0.0229 -1.6054 -2.7880
64352SOL     OW10665   2.287   4.463  13.084 -0.6452  0.1848  0.1814
64352SOL    HW110666   2.204   4.433  13.046  0.3352 -1.7615 -0.5273
64352SOL    HW210667   2.263   4.494  13.171 -2.2898  0.8111 -0.4471
64353SOL     OW10668   2.729   2.076   2.698 -0.4976 -0.1333  0.3686
64353SOL    HW110669   2.713   2.137   2.770  0.3657  1.5515 -0.8082
64353SOL    HW210670   2.823   2.056   2.703 -0.7989 -1.5935  0.8639
64354SOL     OW10671  10.735  10.244   3.309 -0.2564  0.2305  0.3829
64354SOL    HW110672  10.700  10.314   3.254 -1.4338 -0.4782  0.1759
64354SOL    HW210673  10.658  10.211   3.356  0.4068 -0.4470  1.0141
64355SOL     OW10674   2.667  12.902   7.139 -0.2385  0.0914 -0.1822
64355SOL    HW110675   2.717  12.833   7.095 -0.6464 -0.6396  0.4797
64355SOL    HW210676   2.693  12.982   7.094 -0.6831 -0.6313 -1.8082
64356SOL     OW10677  10.611   5.435  10.729  0.2205 -0.2206 -0.9035
64356SOL    HW110678  10.613   5.372  10.801  1.7470 -0.0326 -0.7386
64356SOL    HW210679  10.662   5.510  10.762  0.0113  0.3180 -1.7791
64357SOL     OW10680  10.471   0.850   7.252  0.0443 -1.2041 -0.2532
64357SOL    HW110681  10.432   0.790   7.188  1.0757 -1.0167 -1.0874
64357SOL    HW210682  10.565   0.841   7.239  0.2397 -0.1494  0.3147
64358SOL     OW10683   0.749   3.278   3.096 -0.0220  0.1573 -0.5164
64358SOL    HW110684   0.718   3.219   3.166  2.1966  0.5408  0.8794
64358SOL    HW210685   0.805   3.222   3.041  2.6352  0.9703  1.1920
64359SOL     OW10686   3.407  10.041   9.404 -0.0487 -0.0701 -0.8433
64359SOL    HW110687   3.379  10.049   9.313  1.6293  1.9037 -1.2542
64359SOL    HW210688   3.501  10.060   9.403  0.0869 -0.3252  1.2594
64360SOL     OW10689   8.816  11.816   6.001  0.5961 -0.4527  0.3991
64360SOL    HW110690   8.797  11.742   6.059 -1.0718 -0.1713  0.2859
64360SOL    HW210691   8.760  11.800   5.924  0.7017  0.5929  0.0944
64361SOL     OW10692  11.295  10.068   2.329 -0.8987 -0.4219 -0.0934
64361SOL    HW110693  11.208  10.106   2.346 -0.9983  0.4220 -2.2253
64361SOL    HW210694  11.345  10.139   2.288 -0.1065 -1.6964 -1.4380
64362SOL     OW10695   2.307   6.473   0.507  0.1553 -0.3708  0.2625
64362SOL    HW110696   2.387   6.422   0.495  0.8567  0.3837  1.4742
64362SOL    HW210697   2.327   6.532   0.580 -1.1812  0.5067 -0.0382
64363SOL     OW10698   1.936   2.324  10.131  0.0443  0.0932  0.1110
64363SOL    HW110699   1.873   2.259  10.101 -0.6407 -0.3787  2.3647
64363SOL    HW210700   1.909   2.405  10.089 -0.1246 -0.7097 -1.3987
64364SOL     OW10701   8.924   6.505   9.203  0.8817  0.3523  0.0876
64364SOL    HW110702   8.898   6.594   9.226  1.0127  0.0560  1.5029
64364SOL    HW210703   9.016   6.512   9.179  0.7675  0.6623 -0.2675
64365SOL     OW10704   9.655   4.954   0.270  0.1945 -0.4165 -0.4772
64365SOL    HW110705   9.620   4.941   0.358 -1.0467  1.6752 -0.6072
64365SOL    HW210706   9.581   4.938   0.212  0.7473 -0.7645 -1.1054
64366SOL     OW10707  13.439  10.801   7.802  0.6339  0.3626  0.0472
64366SOL    HW110708  13.420  10.710   7.781 -0.7406  0.4912  0.6378
64366SOL    HW210709  13.353  10.841   7.815  1.0214  2.4406 -2.9147
64367SOL     OW10710   8.319  13.867   3.058 -0.2157 -0.0253  0.2426
64367SOL    HW110711   8.402  13.897   3.021  0.2436 -1.3174  0.1875
64367SOL    HW210712   8.264  13.848   2.982 -0.7053  1.1327  0.2779
64368SOL     OW10713   9.565   0.407   9.248  0.0299  0.0520  0.4256
64368SOL    HW110714   9.576   0.440   9.337  1.5144  0.4507  0.1150
64368SOL    HW210715   9.573   0.485   9.192 -0.6324 -0.2315 -0.0707
64369SOL     OW10716   6.969   6.767   0.317 -0.1454  0.2501  0.3197
64369SOL    HW110717   7.002   6.746   0.230 -0.5437 -0.1506  0.2597
64369SOL    HW210718   7.045   6.762   0.374  0.1704  0.7901 -0.0492
64370SOL     OW10719   1.674  11.173   1.354  0.1330 -0.1506 -0.3735
64370SOL    HW110720   1.625  11.163   1.436  1.0372  0.2466  0.2223
64370SOL    HW210721   1.737  11.101   1.356  0.5338  0.2021 -0.4514
64371SOL     OW10722  12.320  13.998   0.989  0.6250 -0.0318 -0.1949
64371SOL    HW110723  12.387  13.941   0.951  1.8563  1.0034  0.3743
64371SOL    HW210724  12.362  14.083   0.999  0.1004 -0.0059  2.6227
64372SOL     OW10725   4.445   0.822   0.043 -0.8140  0.2175 -0.2668
64372SOL    HW110726   4.433   0.915   0.029  0.6389  0.5030  0.2169
64372SOL    HW210727   4.530   0.814   0.085 -1.5007 -1.2240  0.9828
64373SOL     OW10728   9.381   6.217   9.445  0.1559 -0.3107 -0.3535
64373SOL    HW110729   9.327   6.249   9.373 -0.6463 -1.3480 -0.2414
64373SOL    HW210730   9.456   6.276   9.447 -0.7542  0.9082 -0.7984
64374SOL     OW10731   2.562   8.845   3.341 -0.2354 -0.0677 -0.2256
64374SOL    HW110732   2.542   8.937   3.355 -0.1676  0.0061 -0.6025
64374SOL    HW210733   2.476   8.802   3.337 -0.2501 -0.2258  1.2318
64375SOL     OW10734  12.902   7.992   8.693  0.3099 -0.1516 -0.0655
64375SOL    HW110735  12.918   7.951   8.778 -0.2110  0.6852  0.4496
64375SOL    HW210736  12.959   8.069   8.692 -1.5178  1.3090  0.6438
64376SOL     OW10737   9.382   2.487   7.258  0.4517 -0.4994  0.2181
64376SOL    HW110738   9.378   2.410   7.202 -0.1366 -0.4676  0.2142
64376SOL    HW210739   9.395   2.451   7.346  0.7357 -0.5757  0.1471
64377SOL     OW10740   0.480  10.759  12.647  0.0860  0.5123  0.2379
64377SOL    HW110741   0.475  10.845  12.689 -0.7080  0.6483 -0.1146
64377SOL    HW210742   0.399  10.716  12.671 -0.2885  0.5113 -0.9540
64378SOL     OW10743   3.568   8.874   8.820  0.1189  0.2208 -0.0167
64378SOL    HW110744   3.557   8.931   8.897 -0.5959 -1.2788  1.0241
64378SOL    HW210745   3.605   8.932   8.753  0.5989  1.6140  1.3939
64379SOL     OW10746   1.037   7.647  12.947  1.2428  0.2543 -0.2501
64379SOL    HW110747   0.969   7.714  12.960  0.5972 -0.0571 -1.7876
64379SOL    HW210748   1.119   7.696  12.954  0.8127  0.9891 -0.1450
64380SOL     OW10749   4.993   3.544   4.873 -0.0836  0.1933 -0.3019
64380SOL    HW110750   5.049   3.548   4.796  0.7901 -3.7715 -0.0503
64380SOL    HW210751   5.018   3.621   4.925  1.2075  1.4687 -2.6511
64381SOL     OW10752  10.063   0.160   5.368 -0.7134 -0.4500  0.6060
64381SOL    HW110753  10.064   0.158   5.272 -1.4173  1.6133  0.5027
64381SOL    HW210754   9.979   0.122   5.392 -0.8067 -0.4009  0.3641
64382SOL     OW10755   7.036   5.538   5.594  0.8094 -0.2927  0.4059
64382SOL    HW110756   7.114   5.557   5.541  0.9900 -2.0972 -0.0666
64382SOL    HW210757   6.963   5.569   5.542  1.0318 -1.4621 -0.6619
64383SOL     OW10758   0.334   3.338   4.825 -0.2923 -0.2337 -0.1527
64383SOL    HW110759   0.364   3.252   4.794  1.6509  0.3204  0.0666
64383SOL    HW210760   0.264   3.318   4.887  0.1437 -1.6763 -0.0880
64384SOL     OW10761   5.230   1.812   4.044 -0.2925 -0.1051  0.0591
64384SOL    HW110762   5.265   1.900   4.034 -1.3487  0.3398  0.0955
64384SOL    HW210763   5.271   1.761   3.975 -0.5733  0.7170 -0.7381
64385SOL     OW10764   4.567   4.978   5.418  0.2044 -0.2238 -0.0165
64385SOL    HW110765   4.472   4.980   5.427  0.2305 -0.3200  0.3151
64385SOL    HW210766   4.589   4.886   5.405  0.2209 -0.1550 -0.4954
64386SOL     OW10767   3.710   2.999   6.849  0.3719 -0.1800 -0.0489
64386SOL    HW110768   3.794   2.953   6.841  0.0544 -0.8972  0.5874
64386SOL    HW210769   3.676   2.971   6.934 -0.3207  0.4318 -0.1190
64387SOL     OW10770  10.112  14.003  13.699 -0.2051 -0.0419 -0.0569
64387SOL    HW110771  10.064  13.969  13.775  1.2347 -2.2788 -0.0735
64387SOL    HW210772  10.045  14.011  13.631 -0.7675 -2.4400  0.1222
64388SOL     OW10773   7.147   6.211   0.347  0.2757 -0.2132  0.1632
64388SOL    HW110774   7.093   6.255   0.413  2.1723 -0.5887  2.0832
64388SOL    HW210775   7.136   6.118   0.366  1.3416 -0.2980  0.3961
64389SOL     OW10776   2.866  11.622  12.262  0.2212 -0.0804  0.0635
64389SOL    HW110777   2.941  11.620  12.322 -0.1734 -0.6176  0.5411
64389SOL    HW210778   2.876  11.705  12.214  0.1304  0.7260  1.3953
64390SOL     OW10779   7.351   3.640  10.266  0.4798 -0.1615 -0.1521
64390SOL    HW110780   7.346   3.608  10.356 -0.7914 -0.3838 -0.2946
64390SOL    HW210781   7.283   3.593  10.219  1.7910 -0.8153 -1.4932
64391SOL     OW10782   0.062   2.125   1.747 -0.0280  0.1136  0.5336
64391SOL    HW110783   0.128   2.145   1.813 -1.0859  1.2350  1.3040
64391SOL    HW210784  -0.004   2.074   1.795 -2.5834  3.8850  1.4163
64392SOL     OW10785   6.692   7.516   2.266 -0.6094 -0.5964 -0.2554
64392SOL    HW110786   6.699   7.610   2.247 -1.2605 -0.4829  0.0219
64392SOL    HW210787   6.599   7.497   2.260 -0.4358 -1.3313 -0.7441
64393SOL     OW10788   8.953   8.551   1.917 -0.3148 -0.3428  0.0062
64393SOL    HW110789   8.902   8.630   1.902 -0.6289 -0.4040  0.7437
64393SOL    HW210790   8.954   8.540   2.012  0.1582 -0.9398 -0.0632
64394SOL     OW10791   6.040   3.474   8.916 -0.4202 -0.0987 -0.4306
64394SOL    HW110792   5.998   3.554   8.947 -0.2825  0.0508 -0.6289
64394SOL    HW210793   6.132   3.498   8.906  0.0321 -0.8230  1.4717
64395SOL     OW10794  12.442   0.074  11.722  0.0664 -0.3313 -0.0649
64395SOL    HW110795  12.525   0.109  11.690  1.7638 -1.8603  2.3145
64395SOL    HW210796  12.412   0.138  11.786 -0.6487  0.2349 -0.9447
64396SOL     OW10797  12.006  12.619   2.364 -0.2373  0.1011 -0.4381
64396SOL    HW110798  11.947  12.694   2.354  2.1540  1.9534 -1.3679
64396SOL    HW210799  11.956  12.545   2.329 -1.9356  1.6010 -1.3361
64397SOL     OW10800   1.643   9.983   7.143  0.3434 -0.2219 -0.1936
64397SOL    HW110801   1.627   9.900   7.097  1.3188 -0.6239  0.1651
64397SOL    HW210802   1.689   9.958   7.223  0.0768  0.6166  0.2385
64398SOL     OW10803  11.821   3.278  11.057  0.0851 -0.1255 -0.1191
64398SOL    HW110804  11.726   3.268  11.044  0.1567  0.1466 -0.9260
64398SOL    HW210805  11.857   3.271  10.968  0.7609  0.3853  0.1154
64399SOL     OW10806   7.042   1.604  12.084 -0.4012 -0.2394  0.0908
64399SOL    HW110807   7.059   1.610  11.990 -2.0467 -0.2351 -0.2274
64399SOL    HW210808   6.956   1.644  12.096 -0.7593 -1.3303  1.4148
64400SOL     OW10809   0.692   7.647   2.450 -0.2408 -0.8642 -0.2789
64400SOL    HW110810   0.603   7.615   2.440 -0.8730  0.2297  1.4120
64400SOL    HW210811   0.716   7.626   2.540  0.7009  0.0327 -0.2889
64401SOL     OW10812   7.215   3.946  10.048 -0.1106 -0.5097 -0.3304
64401SOL    HW110813   7.227   3.919  10.139 -0.7282 -0.8043 -0.3355
64401SOL    HW210814   7.258   4.032  10.043 -1.4188  0.2459  0.6352
64402SOL     OW10815   8.531   1.294   8.088  0.1806  0.7691  0.6879
64402SOL    HW110816   8.595   1.323   8.023  0.1125  0.0938  0.3123
64402SOL    HW210817   8.579   1.235   8.146  0.0085  0.6230  0.6829
64403SOL     OW10818  12.314   0.833   6.512  0.0332 -0.2317  0.4594
64403SOL    HW110819  12.385   0.897   6.508  1.6078 -1.8677  0.3387
64403SOL    HW210820  12.234   0.883   6.496  0.9863  1.9440  2.0674
64404SOL     OW10821   2.319  12.880   1.230 -0.1786 -0.1067  0.2781
64404SOL    HW110822   2.308  12.891   1.136 -0.2470 -0.8731  0.1849
64404SOL    HW210823   2.413  12.869   1.243  0.0272  1.6162  0.5061
64405SOL     OW10824   9.803   7.528  13.861  0.7414 -0.1298 -0.0180
64405SOL    HW110825   9.796   7.433  13.876  0.9284 -0.4102 -1.5697
64405SOL    HW210826   9.866   7.536  13.790 -1.6007  0.9448 -2.0913
64406SOL     OW10827  13.682  10.521  10.555  0.1655  0.0802 -0.2952
64406SOL    HW110828  13.692  10.492  10.646  0.0629 -0.8201 -0.5648
64406SOL    HW210829  13.591  10.504  10.534  0.8909 -2.7118 -1.5492
64407SOL     OW10830   4.768  11.138  11.938 -0.3868  0.0447  0.8184
64407SOL    HW110831   4.705  11.118  12.007 -1.1409 -0.9444 -0.1214
64407SOL    HW210832   4.780  11.056  11.892 -1.2599  1.0432 -1.3295
64408SOL     OW10833   9.137  12.448   8.724  0.3495 -0.0975  0.0742
64408SOL    HW110834   9.155  12.480   8.636  0.1030 -0.3603 -0.0716
64408SOL    HW210835   9.184  12.365   8.729 -0.6637 -0.7143 -0.2532
64409SOL     OW10836  13.101   4.065  12.392  0.2966 -0.3003  0.1356
64409SOL    HW110837  13.195   4.068  12.373  0.1421 -1.3654 -0.9122
64409SOL    HW210838  13.060   4.038  12.310 -0.8242 -0.8924  0.8543
64410SOL     OW10839   2.022  13.748   3.685 -0.0911  0.2784 -0.0131
64410SOL    HW110840   2.016  13.805   3.608 -0.3971  0.6904  0.3055
64410SOL    HW210841   2.104  13.774   3.727  0.7922 -0.9031 -0.9256
64411SOL     OW10842  12.613  11.835  11.721 -0.1269 -0.0440  0.2147
64411SOL    HW110843  12.599  11.745  11.692  2.8160 -0.4225 -0.3057
64411SOL    HW210844  12.670  11.874  11.655 -0.2491  1.8084  1.1227
64412SOL     OW10845   5.610   2.561   1.188 -0.1902 -0.4093 -0.7355
64412SOL    HW110846   5.691   2.529   1.229  0.7967 -0.1916 -2.4370
64412SOL    HW210847   5.612   2.655   1.202 -1.6411 -0.6546  1.7167
64413SOL     OW10848   0.534   8.648  12.460 -0.3072 -0.2342 -0.1993
64413SOL    HW110849   0.505   8.728  12.416  2.6867 -0.5056 -3.0641
64413SOL    HW210850   0.501   8.577  12.405  1.3519 -0.6937 -0.6651
64414SOL     OW10851  13.279  12.911  11.323  0.2959 -0.4282  0.2558
64414SOL    HW110852  13.255  12.867  11.241  0.3812  1.3259 -0.7539
64414SOL    HW210853  13.213  12.979  11.334  0.8049 -0.0670  1.1771
64415SOL     OW10854   8.153   3.774   6.636  0.0037 -0.4120  0.0031
64415SOL    HW110855   8.213   3.780   6.710 -1.9588  0.7521  1.6062
64415SOL    HW210856   8.142   3.680   6.621 -0.0722 -0.7065  1.6795
64416SOL     OW10857   4.536  13.860  10.965  0.2316 -0.2457  0.9204
64416SOL    HW110858   4.608  13.802  10.938 -1.7987 -2.3124 -0.3554
64416SOL    HW210859   4.485  13.807  11.026 -0.5753  0.9824  1.3441
64417SOL     OW10860   6.654   3.283   6.082  0.3490  0.0711  0.0269
64417SOL    HW110861   6.641   3.361   6.136  2.0394  1.7686 -1.8555
64417SOL    HW210862   6.748   3.267   6.085  0.1299 -1.4652 -0.2435
64418SOL     OW10863  13.693   9.915   1.104  0.2984  0.1495  0.0722
64418SOL    HW110864  13.694   9.820   1.092  2.3363  0.1617 -0.2132
64418SOL    HW210865  13.775   9.935   1.149  0.0400  1.8210 -0.1034
64419SOL     OW10866  12.721  10.021   2.862 -0.3933  0.0352 -0.4619
64419SOL    HW110867  12.758  10.086   2.922  1.2768 -0.6568 -0.6906
64419SOL    HW210868  12.673   9.961   2.918 -2.3566  1.6670 -0.2870
64420SOL     OW10869   8.120   2.593   0.091 -0.4270 -0.2605  0.1662
64420SOL    HW110870   8.120   2.569  -0.002  1.3207  0.1902  0.0152
64420SOL    HW210871   8.065   2.671   0.096  0.8271  0.7418 -0.8234
64421SOL     OW10872   5.052   7.814   3.111  0.0578 -0.6846  0.3563
64421SOL    HW110873   5.123   7.773   3.161  0.9244  1.0922  0.6651
64421SOL    HW210874   4.979   7.819   3.173  0.4232 -0.4625  0.7762
64422SOL     OW10875   4.118  10.801  10.982  0.1507 -0.2815  0.3818
64422SOL    HW110876   4.047  10.737  10.984  0.8020 -1.1099 -1.3603
64422SOL    HW210877   4.077  10.884  11.007 -1.2489 -0.9070  0.2107
64423SOL     OW10878   0.281   4.975   0.481 -0.1255 -0.3018 -0.3252
64423SOL    HW110879   0.197   4.981   0.435 -0.9118 -1.7114  0.8371
64423SOL    HW210880   0.308   4.884   0.470  1.6787  0.3223 -1.3552
64424SOL     OW10881   6.074  10.691   3.915 -0.2794 -0.6391 -0.6784
64424SOL    HW110882   6.152  10.667   3.965 -0.4334 -1.3437 -0.7599
64424SOL    HW210883   6.080  10.786   3.905  0.4793 -0.6629 -0.5358
64425SOL     OW10884  12.016   2.341   2.016 -0.0226  0.3251  0.4813
64425SOL    HW110885  12.108   2.337   2.041 -0.1945 -1.5298  0.9645
64425SOL    HW210886  11.989   2.430   2.040  1.9642  1.3966 -0.9997
64426SOL     OW10887  11.325   1.019   2.282 -0.1807 -0.3090 -0.1297
64426SOL    HW110888  11.293   0.959   2.350 -1.3573 -1.3158 -1.5073
64426SOL    HW210889  11.329   1.104   2.325 -0.9236 -0.9136  1.1896
64427SOL     OW10890  13.286   2.098  13.469 -0.5157  0.1940 -0.2791
64427SOL    HW110891  13.258   2.188  13.455  0.1322  0.3139 -0.8773
64427SOL    HW210892  13.301   2.063  13.381 -2.3373 -1.0368 -0.1580
64428SOL     OW10893   8.976   5.315   2.183 -0.3459 -0.5731  0.1815
64428SOL    HW110894   8.978   5.229   2.142 -0.1470 -1.0074  1.0693
64428SOL    HW210895   9.059   5.320   2.230 -0.3775  0.0883  0.1698
64429SOL     OW10896   3.434   8.773   4.055  0.5297  0.2809 -0.0255
64429SOL    HW110897   3.406   8.714   4.125  2.8915 -0.3843  0.4447
64429SOL    HW210898   3.363   8.770   3.991 -0.6626 -0.8737  1.2981
64430SOL     OW10899  12.689   4.248   7.689 -0.1415  0.2850  0.2277
64430SOL    HW110900  12.644   4.284   7.612 -0.9407 -2.3851 -0.6946
64430SOL    HW210901  12.625   4.253   7.759  0.0275  1.3038  0.3155
64431SOL     OW10902  13.150   3.793   8.784  0.1580  0.4855 -0.3978
64431SOL    HW110903  13.103   3.782   8.866  1.6836 -0.9169  0.3370
64431SOL    HW210904  13.228   3.738   8.793  0.7533  0.8989 -2.4828
64432SOL     OW10905   5.959   1.618   7.710  0.3170 -0.4263  0.5696
64432SOL    HW110906   5.907   1.688   7.751 -0.1113 -1.2999  1.5467
64432SOL    HW210907   5.982   1.560   7.782  1.2309 -0.9542 -0.1339
64433SOL     OW10908   9.238  11.008   1.554 -1.0371 -0.0535 -0.7352
64433SOL    HW110909   9.167  11.071   1.564  0.0908  1.1333  0.1093
64433SOL    HW210910   9.229  10.949   1.629 -0.3792  0.9029  0.1256
64434SOL     OW10911  11.518   0.204   0.326 -0.7969  0.1981 -0.3383
64434SOL    HW110912  11.545   0.140   0.392  1.5320  2.9323  1.6094
64434SOL    HW210913  11.459   0.264   0.373 -0.7677  1.0145 -1.3079
64435SOL     OW10914   9.718  12.181  10.199 -0.6980  0.0590 -0.3792
64435SOL    HW110915   9.628  12.180  10.231 -0.6516 -0.3960 -0.2619
64435SOL    HW210916   9.772  12.167  10.277 -0.5707 -0.7915 -0.6130
64436SOL     OW10917   9.267  10.599   1.337 -0.3647  0.1499 -0.0014
64436SOL    HW110918   9.258  10.684   1.294 -0.8805  0.6519  1.0705
64436SOL    HW210919   9.362  10.588   1.348 -0.2819  0.4425 -0.4254
64437SOL     OW10920   0.034   1.223  13.825  0.1838 -0.0039  0.0139
64437SOL    HW110921   0.064   1.138  13.796 -1.0266 -1.1525  1.8817
64437SOL    HW210922   0.101   1.284  13.796  0.2151 -1.2795 -2.9519
64438SOL     OW10923   3.042  11.908  11.104 -0.0740 -0.3004  0.1211
64438SOL    HW110924   2.989  11.951  11.171 -0.8416 -0.5785 -0.3034
64438SOL    HW210925   3.003  11.936  11.021  1.3920  0.7438 -0.2629
64439SOL     OW10926   0.819  13.234   0.553 -0.3995  0.2214 -0.3098
64439SOL    HW110927   0.884  13.193   0.496  0.3600 -0.4825  1.0163
64439SOL    HW210928   0.741  13.179   0.544 -0.7987  0.9936 -1.8072
64440SOL     OW10929  13.673  10.000   5.650  0.7094 -0.2457 -0.3119
64440SOL    HW110930  13.680   9.905   5.654  0.8674 -0.1954  1.6503
64440SOL    HW210931  13.758  10.032   5.679  0.5185  0.5065 -0.5331
64441SOL     OW10932   5.462   4.463   0.234 -0.1451  0.3915 -0.0600
64441SOL    HW110933   5.440   4.493   0.322  0.9737 -0.6361  0.5954
64441SOL    HW210934   5.549   4.498   0.217 -0.6117  1.1233 -1.0392
64442SOL     OW10935   6.502  13.673   6.362 -0.0180  0.5065  0.3691
64442SOL    HW110936   6.513  13.765   6.386  0.1926  0.9454 -1.2411
64442SOL    HW210937   6.408  13.664   6.343 -0.3969 -0.1284  2.3858
64443SOL     OW10938   8.371   3.660  13.981  0.2293 -0.0596  0.4452
64443SOL    HW110939   8.308   3.724  14.013 -0.1965 -0.9002  1.3318
64443SOL    HW210940   8.424   3.708  13.917 -1.9539  0.4218 -1.1208
64444SOL     OW10941   8.661   2.961  13.234  0.0059  0.2502 -0.2509
64444SOL    HW110942   8.567   2.977  13.232  0.2583  1.8539 -0.1028
64444SOL    HW210943   8.674   2.906  13.311 -1.1621 -2.8084 -2.0344
64445SOL     OW10944   0.799   4.829   7.153 -0.6514 -0.9733  0.0593
64445SOL    HW110945   0.742   4.906   7.159  1.8901  1.1084 -0.6705
64445SOL    HW210946   0.772   4.774   7.227 -1.1261  1.6838  2.0400
64446SOL     OW10947  10.423   2.983   0.716  0.0781  1.0989  0.8877
64446SOL    HW110948  10.500   2.930   0.734  0.0867  0.9849  0.5057
64446SOL    HW210949  10.406   3.029   0.799  1.3476  2.1596  0.5812
64447SOL     OW10950   1.772  11.039  11.455 -0.0722  0.0616 -0.2961
64447SOL    HW110951   1.720  11.088  11.391 -0.7151  1.1899  1.0338
64447SOL    HW210952   1.747  10.948  11.442 -4.0479  0.6947  1.6365
64448SOL     OW10953   8.990   1.659   3.472 -0.0958 -0.4195  0.2671
64448SOL    HW110954   8.938   1.715   3.529 -0.9990 -0.2390 -0.7019
64448SOL    HW210955   8.928   1.595   3.437  0.6140 -1.0654  0.1643
64449SOL     OW10956   3.873   6.857   1.773  0.0189  0.3221  1.0417
64449SOL    HW110957   3.913   6.773   1.749  0.6830  0.5179  1.4363
64449SOL    HW210958   3.909   6.920   1.710 -0.5079  0.3095  0.7222
64450SOL     OW10959   3.854  13.676   1.356  0.8189  0.4711 -0.1327
64450SOL    HW110960   3.949  13.671   1.368  0.6459 -0.4435  1.0696
64450SOL    HW210961   3.820  13.691   1.445 -0.1440  1.3007 -0.6161
64451SOL     OW10962   9.819   8.802   2.623  0.3523  1.0222 -0.5019
64451SOL    HW110963   9.865   8.829   2.544 -0.1198  1.0224 -0.7839
64451SOL    HW210964   9.746   8.748   2.591  2.4864 -2.5311  0.1139
64452SOL     OW10965   2.566   0.651   1.478  0.2821 -0.3715  0.2856
64452SOL    HW110966   2.518   0.661   1.560  1.4153  1.5916  0.7865
64452SOL    HW210967   2.521   0.708   1.416 -0.4569 -1.7029 -0.4399
64453SOL     OW10968   0.735   1.452   8.369  0.1229  0.4172 -0.5367
64453SOL    HW110969   0.703   1.525   8.422  1.3922 -0.1302  1.0942
64453SOL    HW210970   0.831   1.458   8.376  0.2620 -1.4710 -0.2125
64454SOL     OW10971   0.836  13.063   7.681 -0.4949 -0.7135  0.0572
64454SOL    HW110972   0.823  13.157   7.691 -2.7906 -1.0174  0.5960
64454SOL    HW210973   0.921  13.046   7.722 -1.1951  0.7921  2.3558
64455SOL     OW10974  12.028  10.543   0.612  0.2197  0.5573 -0.2398
64455SOL    HW110975  11.965  10.563   0.681 -0.5180  0.0145 -0.7263
64455SOL    HW210976  12.046  10.628   0.571 -2.3206  0.4415 -1.8321
64456SOL     OW10977   1.205   8.888  13.526  0.8487 -0.2641  0.5473
64456SOL    HW110978   1.231   8.978  13.547  1.8372 -0.3841 -0.1026
64456SOL    HW210979   1.232   8.875  13.435 -1.4140 -0.4591 -0.1600
64457SOL     OW10980  13.057   5.525   6.002 -0.7353 -0.1040  0.5183
64457SOL    HW110981  13.030   5.594   6.062  0.5217 -0.3291  1.3640
64457SOL    HW210982  13.108   5.570   5.935  0.7632 -0.2843  1.5036
64458SOL     OW10983   1.672   2.997   5.559  0.1616  0.0485  0.7832
64458SOL    HW110984   1.734   3.028   5.625 -0.3328 -1.3653  1.9852
64458SOL    HW210985   1.613   2.940   5.608 -1.3862  0.4449 -0.5533
64459SOL     OW10986  14.003   8.827   9.395  0.3746 -0.1775 -0.2344
64459SOL    HW110987  14.037   8.738   9.394 -0.5259 -0.5569  0.9552
64459SOL    HW210988  13.993   8.849   9.488 -0.7993  0.6034 -0.5105
64460SOL     OW10989   6.576  11.852   8.013  0.9537 -0.0840  0.0187
64460SOL    HW110990   6.671  11.861   8.021  1.1951 -0.6691 -1.7370
64460SOL    HW210991   6.551  11.917   7.947  0.0116  0.5605  0.9826
64461SOL     OW10992   6.573   1.220   9.105 -0.7317  0.0307  0.6337
64461SOL    HW110993   6.541   1.309   9.119 -2.1898  0.1445 -2.6351
64461SOL    HW210994   6.494   1.168   9.090  0.2437 -1.1010 -0.9092
64462SOL     OW10995   8.306   4.982   4.932  0.4352 -1.1539 -0.0002
64462SOL    HW110996   8.214   5.006   4.946  0.7391  0.1095 -0.0535
64462SOL    HW210997   8.311   4.890   4.961 -0.6727 -1.0228  0.7008
64463SOL     OW10998   4.076   3.369  10.122 -0.4457  0.0298  0.2704
64463SOL    HW110999   4.099   3.383  10.030 -0.6502 -0.0879  0.2019
64463SOL    HW211000   4.155   3.395  10.170  0.0053 -0.7953  0.0094
64464SOL     OW11001   5.059  10.746   0.763 -0.5652 -0.7267  0.7318
64464SOL    HW111002   5.062  10.818   0.826 -0.1095 -0.0850 -0.0007
64464SOL    HW211003   5.128  10.766   0.700 -3.1591  0.5501 -1.9811
64465SOL     OW11004   6.693   1.631   1.717 -0.3040  0.7767 -0.3205
64465SOL    HW111005   6.703   1.722   1.746 -0.5729  0.4652  0.8073
64465SOL    HW211006   6.782   1.604   1.692  0.1678  0.7574  1.2512
64466SOL     OW11007   3.244   9.680  13.738 -0.2392  0.0602  0.6893
64466SOL    HW111008   3.152   9.688  13.762  0.1244  0.7764  1.9107
64466SOL    HW211009   3.243   9.673  13.642 -1.5125  0.8591  0.6188
64467SOL     OW11010  10.345   8.884   1.960 -0.2405  0.0083 -0.1679
64467SOL    HW111011  10.262   8.873   2.007 -0.5196  3.1190  0.2672
64467SOL    HW211012  10.412   8.881   2.028 -0.3703  1.2827  0.0425
64468SOL     OW11013   5.016   8.419   9.234 -0.2014 -0.3367  0.0825
64468SOL    HW111014   5.090   8.469   9.198  1.1974 -1.3058  1.4766
64468SOL    HW211015   5.033   8.417   9.329 -1.8338 -0.9157  0.3929
64469SOL     OW11016  12.826   5.874  10.400  0.2031 -0.2655  0.1427
64469SOL    HW111017  12.853   5.965  10.399  0.4071 -0.3227  0.2553
64469SOL    HW211018  12.859   5.840  10.484 -0.2554 -0.3281  0.2996
64470SOL     OW11019  10.403   4.585   1.936 -0.4579  0.4090  0.6534
64470SOL    HW111020  10.422   4.665   1.886 -0.9175 -0.4527 -0.9691
64470SOL    HW211021  10.477   4.576   1.996  1.3626  0.2392 -1.4979
64471SOL     OW11022   9.074   4.848  11.613  0.0776 -0.5599  0.2492
64471SOL    HW111023   9.114   4.775  11.565 -1.2758 -0.5235 -0.9763
64471SOL    HW211024   9.116   4.926  11.577  0.1217 -0.6158  0.1777
64472SOL     OW11025   8.905   9.820   5.467 -0.0246  0.3612  0.0134
64472SOL    HW111026   8.910   9.845   5.559  0.0568 -1.5920  0.5836
64472SOL    HW211027   8.991   9.845   5.431 -0.2332  1.5856  0.3153
64473SOL     OW11028   1.937   1.507   9.912  0.1844  0.0128 -0.5095
64473SOL    HW111029   1.881   1.434   9.937  1.9090 -1.3109 -0.3450
64473SOL    HW211030   1.883   1.585   9.927 -1.0086 -1.0945  1.2774
64474SOL     OW11031   9.043   6.500   1.019 -0.2113  0.0824 -0.0010
64474SOL    HW111032   9.092   6.420   1.004 -0.6192 -0.2546  0.4057
64474SOL    HW211033   9.064   6.556   0.945  0.5383 -0.1720  0.0130
64475SOL     OW11034  11.391   8.091   2.661  0.1106  0.3294  0.0542
64475SOL    HW111035  11.405   8.181   2.691  0.1581  0.6425 -0.8859
64475SOL    HW211036  11.473   8.045   2.684  1.5023  1.3574 -2.4586
64476SOL     OW11037   9.278   1.427   4.262  0.3786  0.6244 -0.3752
64476SOL    HW111038   9.312   1.355   4.209 -0.0577  1.3389 -1.6603
64476SOL    HW211039   9.354   1.459   4.311  0.7530 -0.1440 -0.4453
64477SOL     OW11040   9.726  11.995  11.521  0.2590 -0.2490  0.2812
64477SOL    HW111041   9.721  11.956  11.608 -0.4847 -0.0270  0.3450
64477SOL    HW211042   9.636  11.995  11.490  0.6849 -1.5860 -1.0568
64478SOL     OW11043  13.396   2.679   7.814 -0.4777 -0.3321 -0.8486
64478SOL    HW111044  13.488   2.670   7.839 -0.6371 -0.6583 -0.3659
64478SOL    HW211045  13.347   2.645   7.889 -1.0012  0.1051 -0.9821
64479SOL     OW11046  13.427  10.984   6.363  0.0673  0.1456  0.1260
64479SOL    HW111047  13.503  11.041   6.377  0.2097 -0.0173  0.0215
64479SOL    HW211048  13.357  11.044   6.336 -0.6094  0.6837  2.7732
64480SOL     OW11049   8.986   5.380  13.824 -0.0279  0.1556  0.1982
64480SOL    HW111050   8.968   5.400  13.916 -1.5745  1.4250 -0.3185
64480SOL    HW211051   8.980   5.285  13.818 -2.7423  0.2105  0.9193
64481SOL     OW11052   4.454   6.300   1.889 -0.9415 -0.1657  0.0327
64481SOL    HW111053   4.531   6.336   1.847 -0.2747  0.3873  1.6601
64481SOL    HW211054   4.485   6.267   1.974 -2.6127  0.8530  1.0989
64482SOL     OW11055  11.691   1.277   1.668 -0.1014 -0.0856  0.0480
64482SOL    HW111056  11.620   1.255   1.729 -1.3700 -0.3236 -1.4553
64482SOL    HW211057  11.769   1.283   1.724 -1.0340 -1.1721  1.5568
64483SOL     OW11058   0.281  13.149   8.217  0.3003 -0.3185  0.3432
64483SOL    HW111059   0.371  13.159   8.187 -0.4792  0.0359 -2.0943
64483SOL    HW211060   0.258  13.059   8.194  0.5036 -0.9898  2.5162
64484SOL     OW11061   3.198  13.451  14.027 -0.3325 -0.0199 -0.0582
64484SOL    HW111062   3.259  13.467  14.100  0.1401 -3.3333  0.4427
64484SOL    HW211063   3.120  13.416  14.069 -0.9613  0.2182 -1.0071
64485SOL     OW11064  10.209   2.080   0.904 -0.8104 -0.5764 -0.0048
64485SOL    HW111065  10.267   2.057   0.832 -0.4450  2.2625 -0.7343
64485SOL    HW211066  10.138   2.016   0.900  0.6425 -2.1988 -1.0564
64486SOL     OW11067   1.577  11.780   7.547  0.3710 -0.3752 -0.2290
64486SOL    HW111068   1.580  11.844   7.619 -1.0850  0.4330 -0.8509
64486SOL    HW211069   1.544  11.829   7.472  0.2993 -1.5969 -1.0324
64487SOL     OW11070   0.568  11.463  11.625 -0.4106 -0.1775  0.0256
64487SOL    HW111071   0.664  11.466  11.621 -0.4722  1.2251 -1.3663
64487SOL    HW211072   0.543  11.413  11.548 -0.8291  1.4483 -0.9434
64488SOL     OW11073   6.318  11.742   7.839  0.1448 -0.0302  0.0514
64488SOL    HW111074   6.248  11.744   7.904 -0.2964  1.8726 -0.4062
64488SOL    HW211075   6.399  11.751   7.890 -0.0158 -0.9922  0.4915
64489SOL     OW11076   9.800   1.513   5.196  0.4923  0.7303 -0.2373
64489SOL    HW111077   9.806   1.531   5.290  0.0933  0.2104 -0.1029
64489SOL    HW211078   9.778   1.597   5.156  1.2401  1.0697  0.0695
64490SOL     OW11079  11.826  10.752  10.907 -0.7047 -0.8938  0.5521
64490SOL    HW111080  11.913  10.714  10.915 -0.7395 -1.2664 -0.6649
64490SOL    HW211081  11.770  10.678  10.885 -1.1720 -0.5045  0.4252
64491SOL     OW11082   8.429   5.526  13.722 -0.0159  0.7111 -0.6023
64491SOL    HW111083   8.516   5.502  13.689 -0.6094 -0.4754 -1.3631
64491SOL    HW211084   8.427   5.622  13.716  1.7107  0.8792  0.7059
64492SOL     OW11085   1.281  11.936   6.541  0.0655  0.2191  0.0789
64492SOL    HW111086   1.252  11.985   6.464 -2.7738 -1.5184 -0.1073
64492SOL    HW211087   1.291  11.846   6.510 -0.9332 -0.4758  1.6287
64493SOL     OW11088  13.959   8.625   9.966  0.0961  0.0124  0.8500
64493SOL    HW111089  13.884   8.685   9.958 -0.0136 -0.2319 -0.0981
64493SOL    HW211090  13.996   8.645  10.052  0.1835  1.5898  0.4749
64494SOL     OW11091   4.774  10.875   4.956  0.3340 -0.1575 -0.2534
64494SOL    HW111092   4.693  10.824   4.953 -0.6786  1.4012 -0.5771
64494SOL    HW211093   4.756  10.952   4.902  1.9935  0.2915 -0.2185
64495SOL     OW11094   4.767   4.866  13.883  0.1069  0.2276  0.1776
64495SOL    HW111095   4.859   4.863  13.858  0.0454  2.1128 -0.4391
64495SOL    HW211096   4.753   4.787  13.934  2.6997  1.1135  2.4862
64496SOL     OW11097  10.693  12.135   8.805 -0.2802  0.4655  0.5639
64496SOL    HW111098  10.691  12.054   8.754 -0.7424  0.2505  0.9182
64496SOL    HW211099  10.656  12.202   8.747  2.6846  1.0807 -0.8131
64497SOL     OW11100  10.458   1.649   6.772  0.3060  0.3331 -0.2838
64497SOL    HW111101  10.540   1.605   6.793  0.5445  0.1618 -1.5217
64497SOL    HW211102  10.437   1.698   6.851  0.2730 -1.6103  0.9656
64498SOL     OW11103  10.645   1.474   1.475 -0.5584  0.4114 -0.4194
64498SOL    HW111104  10.636   1.408   1.406 -0.7698  0.9848 -0.9531
64498SOL    HW211105  10.556   1.486   1.508 -0.3975 -0.1398  0.2207
64499SOL     OW11106   3.923   4.218   2.081  0.0035  0.1125 -0.8505
64499SOL    HW111107   3.892   4.131   2.103  3.8661 -1.3224 -0.3544
64499SOL    HW211108   3.960   4.209   1.993 -1.1226  1.7809 -1.5537
64500SOL     OW11109   0.242   3.433   8.379 -0.2949 -0.3907 -0.4447
64500SOL    HW111110   0.256   3.497   8.449 -0.8832 -0.9445  0.1943
64500SOL    HW211111   0.147   3.422   8.375 -0.3053  0.1186 -1.7810
64501SOL     OW11112   9.384  12.491   6.902 -0.2947  0.4412  0.4151
64501SOL    HW111113   9.300  12.495   6.949  0.0687  1.3030  1.0100
64501SOL    HW211114   9.387  12.402   6.867 -2.1426  0.8138 -0.8771
64502SOL     OW11115   0.263  13.147   4.803 -0.2190 -0.4368 -0.2410
64502SOL    HW111116   0.297  13.068   4.846 -1.8303 -1.3862 -0.6183
64502SOL    HW211117   0.170  13.148   4.825 -0.7522 -0.0399 -2.2869
64503SOL     OW11118  14.090   5.068   8.356  0.0618 -0.6389 -0.3613
64503SOL    HW111119  14.000   5.045   8.334 -0.1563 -0.9284  0.7889
64503SOL    HW211120  14.141   5.037   8.281 -0.8654  0.3305 -1.4515
64504SOL     OW11121   2.946   3.229  12.650  0.4681  0.6030  0.4257
64504SOL    HW111122   2.871   3.226  12.591 -0.2321  0.7952  1.2792
64504SOL    HW211123   2.957   3.322  12.671  1.0781  0.5994  0.1528
64505SOL     OW11124   3.494   2.165   6.270  0.1383 -0.2278 -0.4253
64505SOL    HW111125   3.473   2.197   6.182  0.0849 -2.2855 -1.2168
64505SOL    HW211126   3.589   2.171   6.275  0.1027  0.4178 -0.3856
64506SOL     OW11127  13.940   2.014  11.919  0.4928 -0.4440  0.4921
64506SOL    HW111128  13.898   2.061  11.847  0.8152 -0.5468  0.2336
64506SOL    HW211129  14.029   2.050  11.922 -0.0420  0.8815  2.0265
64507SOL     OW11130  11.533  12.417   2.064  0.5838  0.7159  0.2651
64507SOL    HW111131  11.531  12.417   2.160 -0.7083  2.5545  0.2962
64507SOL    HW211132  11.603  12.479   2.042  2.0018 -0.9195 -0.0498
64508SOL     OW11133   8.232   2.339   5.294  0.1638 -0.3075 -0.0436
64508SOL    HW111134   8.234   2.434   5.287  2.2398 -0.3961 -1.5725
64508SOL    HW211135   8.144   2.319   5.326 -0.8515  2.0384 -1.1180
64509SOL     OW11136   8.790   5.155  11.909  0.2024 -0.4089 -0.4718
64509SOL    HW111137   8.784   5.069  11.951 -2.0514 -0.9607 -1.7713
64509SOL    HW211138   8.852   5.142  11.837  2.3473 -0.0351  1.2022
64510SOL     OW11139   3.563  10.218   8.680  0.0135  0.2180  0.0524
64510SOL    HW111140   3.584  10.181   8.766 -0.8580 -0.3634  0.0258
64510SOL    HW211141   3.468  10.231   8.681 -0.1911 -0.9114 -1.2318
64511SOL     OW11142   3.496   7.427   6.835  0.5023  0.6927 -0.7133
64511SOL    HW111143   3.533   7.356   6.889 -1.0188 -0.1430 -0.7166
64511SOL    HW211144   3.514   7.400   6.745  0.4298  0.5889 -0.6975
64512SOL     OW11145   1.150   1.716   8.464 -0.0737 -0.1005  0.1623
64512SOL    HW111146   1.238   1.686   8.442 -0.2722 -1.8360  1.5383
64512SOL    HW211147   1.102   1.636   8.485 -1.4590  0.9595  1.2117
64513SOL     OW11148   4.259   6.262   2.833 -0.4524  0.3892 -0.2042
64513SOL    HW111149   4.290   6.243   2.744 -0.6496 -1.6294  0.1113
64513SOL    HW211150   4.283   6.184   2.883  0.8662  2.0221  1.8736
64514SOL     OW11151   4.084   3.168   1.937 -0.0031  0.7120  0.1682
64514SOL    HW111152   4.017   3.151   2.003 -1.9482 -0.7674 -2.0065
64514SOL    HW211153   4.131   3.085   1.928 -0.0368  0.7709 -0.5864
64515SOL     OW11154  11.861  12.026   6.333  0.3953 -0.2980  0.5936
64515SOL    HW111155  11.922  12.013   6.260  0.5638  0.5748  0.5599
64515SOL    HW211156  11.908  12.084   6.393  0.2355 -0.9632  1.3721
64516SOL     OW11157  11.773  12.885  14.059  0.2457  0.5285  0.5028
64516SOL    HW111158  11.855  12.890  14.009 -1.0468  0.0551 -1.8411
64516SOL    HW211159  11.763  12.792  14.079 -0.0978  0.4618  0.0496
64517SOL     OW11160  13.039   3.081   5.418 -0.3422  0.4651  0.3914
64517SOL    HW111161  13.130   3.094   5.392 -1.0386  1.3823 -1.8583
64517SOL    HW211162  13.009   3.008   5.365 -0.4253 -1.2703  2.6532
64518SOL     OW11163   1.310   3.438  12.166  0.4168 -1.3644 -0.0289
64518SOL    HW111164   1.392   3.440  12.118  0.4644 -2.3632  0.0048
64518SOL    HW211165   1.247   3.481  12.108 -0.0568 -4.4902 -2.0235
64519SOL     OW11166   8.931  11.900   0.699 -0.7778  0.5617  0.2452
64519SOL    HW111167   8.999  11.851   0.745 -1.5271 -0.4057  0.3677
64519SOL    HW211168   8.976  11.942   0.627 -0.0008  0.1450  0.4777
64520SOL     OW11169   2.963   4.839   3.556  0.0065  0.1805  0.0186
64520SOL    HW111170   3.019   4.899   3.506 -0.7875 -0.1102 -1.2483
64520SOL    HW211171   2.876   4.880   3.554 -0.1707 -0.1458  0.6492
64521SOL     OW11172   6.183  14.075   0.880 -0.3550 -0.1843  0.7688
64521SOL    HW111173   6.172  14.168   0.859  2.2624  0.0325 -0.1297
64521SOL    HW211174   6.209  14.074   0.972  1.6527  0.2594  0.2663
64522SOL     OW11175   3.299   0.022   5.186  0.0606 -0.7482  0.1979
64522SOL    HW111176   3.228  -0.007   5.244 -0.5698  0.2117 -0.0810
64522SOL    HW211177   3.355   0.076   5.243  1.0341 -2.1487  0.6230
64523SOL     OW11178  12.262   1.727  13.331 -0.4308 -0.1159  0.3284
64523SOL    HW111179  12.185   1.778  13.357 -0.2457  0.1698  0.3106
64523SOL    HW211180  12.300   1.697  13.414 -0.6221 -0.3450  0.3333
64524SOL     OW11181   4.410   9.479   9.544  0.4541 -0.0698 -0.2932
64524SOL    HW111182   4.484   9.456   9.487  0.1750  0.3055 -0.8131
64524SOL    HW211183   4.345   9.411   9.528  0.8812 -0.6845  0.5430
64525SOL     OW11184  10.167   5.613   4.011  0.3738 -0.1473 -0.1237
64525SOL    HW111185  10.164   5.518   4.021 -1.3430 -0.3001 -1.5523
64525SOL    HW211186  10.188   5.626   3.919 -0.0775  0.8528 -0.0903
64526SOL     OW11187  13.124   6.392   1.570 -0.3145  0.0449 -0.0157
64526SOL    HW111188  13.094   6.303   1.589 -0.1587 -0.0625 -0.2715
64526SOL    HW211189  13.139   6.393   1.476 -0.9613  0.5438 -0.1232
64527SOL     OW11190   6.816   1.177   0.702 -0.4722 -0.3010  0.1131
64527SOL    HW111191   6.863   1.107   0.748 -1.2001 -0.1351  1.1244
64527SOL    HW211192   6.815   1.250   0.763 -2.8527 -0.5971  0.5214
64528SOL     OW11193   2.930  11.309   9.749 -0.2503 -0.0273 -0.1602
64528SOL    HW111194   2.991  11.360   9.696 -1.2238 -0.8404 -2.1801
64528SOL    HW211195   2.977  11.292   9.831  1.0538  1.8706 -0.4463
64529SOL     OW11196   7.191   2.104   8.005  0.0954 -0.1102  0.4065
64529SOL    HW111197   7.206   2.091   8.099  2.8360  0.1242  0.0834
64529SOL    HW211198   7.184   2.016   7.969 -1.0254 -0.2010  0.8222
64530SOL     OW11199   3.812  10.872   6.013 -0.3812  0.1082  0.0812
64530SOL    HW111200   3.897  10.830   5.998 -0.2139  0.4990 -0.0675
64530SOL    HW211201   3.818  10.907   6.101  0.3604  1.8644 -0.6166
64531SOL     OW11202  14.020   0.329   1.711  0.0522 -0.5218 -0.2950
64531SOL    HW111203  13.933   0.337   1.673 -0.5507  1.9169  1.3603
64531SOL    HW211204  14.004   0.308   1.803  1.1690  0.3554  0.1259
64532SOL     OW11205   2.259   5.340   2.842  0.5866  0.2753 -0.2375
64532SOL    HW111206   2.343   5.305   2.814  0.3528 -0.6843  0.2157
64532SOL    HW211207   2.202   5.263   2.851 -0.7713  0.9987 -1.9245
64533SOL     OW11208   2.434  13.668  12.832  0.0521  0.0931 -0.2806
64533SOL    HW111209   2.460  13.736  12.770  0.6581  0.2506  0.1393
64533SOL    HW211210   2.344  13.690  12.854  0.3653  1.0036  0.1566
64534SOL     OW11211  12.395   6.287   0.725  0.1428  0.0865 -0.5993
64534SOL    HW111212  12.481   6.327   0.733  1.1240 -1.9495 -0.4303
64534SOL    HW211213  12.349   6.313   0.804  1.4132 -0.5943  0.4006
64535SOL     OW11214   8.699   5.378  12.228  0.3122  0.2524  0.2661
64535SOL    HW111215   8.656   5.391  12.313 -1.0573  0.0818 -0.3703
64535SOL    HW211216   8.758   5.304  12.242  1.6101  1.4589  1.5762
64536SOL     OW11217  14.035   3.038   9.369 -0.1711 -0.1473  0.4038
64536SOL    HW111218  13.964   2.985   9.331  1.8126 -1.4765 -1.7059
64536SOL    HW211219  13.995   3.081   9.445 -2.9489 -1.5786 -0.1232
64537SOL     OW11220  10.414   0.811  10.615 -0.2967 -0.9103 -0.2571
64537SOL    HW111221  10.410   0.788  10.707  1.5275 -0.8251 -0.1249
64537SOL    HW211222  10.457   0.897  10.613 -0.1395 -0.9932 -1.1849
64538SOL     OW11223   1.257   7.731   3.603  0.1783 -0.3169  0.3877
64538SOL    HW111224   1.327   7.666   3.598 -0.4343 -1.2613  2.6377
64538SOL    HW211225   1.221   7.735   3.514  1.0645 -2.1236 -0.0993
64539SOL     OW11226   5.740  10.023   7.386  0.0810  0.1587  0.5092
64539SOL    HW111227   5.818   9.972   7.408 -0.4370 -1.1296 -0.4969
64539SOL    HW211228   5.767  10.080   7.314  0.7570  1.6090  1.8698
64540SOL     OW11229   3.213   0.222  11.150 -0.0024  0.9116 -0.8533
64540SOL    HW111230   3.270   0.216  11.227  1.3324  2.9579 -1.6100
64540SOL    HW211231   3.125   0.220  11.185  0.4309 -2.0896  0.3912
64541SOL     OW11232   6.113   7.175  12.749 -0.3187  0.2922 -0.1221
64541SOL    HW111233   6.202   7.158  12.781 -0.0431  0.5425 -0.7347
64541SOL    HW211234   6.125   7.197  12.657 -1.1281 -0.6753 -0.4724
64542SOL     OW11235  12.653   2.468   3.533 -0.5126  0.3394 -0.1384
64542SOL    HW111236  12.681   2.544   3.584  1.3801  0.1391 -0.8134
64542SOL    HW211237  12.608   2.506   3.456 -0.1001  0.7543 -0.1772
64543SOL     OW11238   3.654   2.302   2.179  0.3130  0.1483  0.2605
64543SOL    HW111239   3.726   2.256   2.137 -0.4096 -2.0604  1.2981
64543SOL    HW211240   3.597   2.328   2.106  2.1515  2.0983 -0.5853
64544SOL     OW11241  11.665   0.444  13.066 -0.4402  0.0989 -0.1732
64544SOL    HW111242  11.602   0.515  13.068 -0.7410 -0.1021 -1.4992
64544SOL    HW211243  11.720   0.463  12.989  0.8892  0.0752  0.7293
64545SOL     OW11244   6.202   3.326   8.552  0.0661  0.1198  0.1118
64545SOL    HW111245   6.242   3.252   8.506  0.5659 -0.3720  1.2841
64545SOL    HW211246   6.243   3.404   8.513  0.2433 -0.2687 -0.4811
64546SOL     OW11247   9.768   0.581  13.270  0.0130  0.3554  0.0342
64546SOL    HW111248   9.701   0.644  13.243  1.8469  1.8477 -1.3540
64546SOL    HW211249   9.846   0.635  13.286  0.7174 -1.2120  2.3594
64547SOL     OW11250   9.177  13.747  10.126 -0.5629 -0.1132 -0.3609
64547SOL    HW111251   9.237  13.715  10.058 -2.0713 -1.6983 -1.0132
64547SOL    HW211252   9.232  13.754  10.204  0.6008 -0.9842 -1.0536
64548SOL     OW11253   9.973   5.620   2.751  0.1731  0.4488 -0.0248
64548SOL    HW111254  10.024   5.635   2.831 -1.1155  2.7812  0.4687
64548SOL    HW211255   9.882   5.612   2.782 -0.0197 -1.8779 -1.0245
64549SOL     OW11256   1.621   1.842  10.307 -0.1247  0.5656 -0.2264
64549SOL    HW111257   1.693   1.892  10.269 -0.1715  0.5824 -0.2940
64549SOL    HW211258   1.611   1.767  10.247 -0.0342  0.4580 -0.1088
64550SOL     OW11259  10.361  13.297   7.106 -0.4102  0.1888  0.1845
64550SOL    HW111260  10.372  13.381   7.150 -0.0386 -0.1520  0.7420
64550SOL    HW211261  10.340  13.235   7.175 -2.3527  0.1160 -0.4117
64551SOL     OW11262  12.882  12.855  10.451  0.5376  0.6881  0.5639
64551SOL    HW111263  12.895  12.791  10.521 -0.3224  0.1184  0.2176
64551SOL    HW211264  12.793  12.838  10.419  0.8241  1.1064 -0.4995
64552SOL     OW11265   7.203   4.110  11.831  0.0450  0.0776  0.1932
64552SOL    HW111266   7.268   4.042  11.848 -2.1065 -2.1253  0.1881
64552SOL    HW211267   7.241   4.189  11.870  2.0669 -1.3916  1.4345
64553SOL     OW11268  13.968   3.428   9.333  0.9293  0.4790 -0.4951
64553SOL    HW111269  13.960   3.503   9.392  0.2589 -0.6991  0.9864
64553SOL    HW211270  13.913   3.361   9.372  2.3457 -1.1558 -1.1660
64554SOL     OW11271   7.269  10.419  13.691 -0.0595  0.1704  0.3062
64554SOL    HW111272   7.229  10.497  13.729  1.1401  0.8707  0.1546
64554SOL    HW211273   7.283  10.440  13.599  0.7720 -0.0174  0.3845
64555SOL     OW11274   3.800   9.788   8.890  0.4394 -0.2580  0.1971
64555SOL    HW111275   3.793   9.833   8.974 -0.8796  0.1179 -0.0921
64555SOL    HW211276   3.884   9.818   8.853  0.0210  1.2508  0.4162
64556SOL     OW11277  10.565   5.259  10.941  0.5708  0.0467 -0.1123
64556SOL    HW111278  10.506   5.289  11.011  0.9418  0.5879 -0.0286
64556SOL    HW211279  10.513   5.195  10.892  1.0260 -2.0998  2.0117
64557SOL     OW11280   5.826   3.439   2.971 -0.1865  0.1373 -0.1614
64557SOL    HW111281   5.762   3.372   2.997  0.1210  0.0525  0.4015
64557SOL    HW211282   5.834   3.429   2.876  1.0032 -1.6638  0.0697
64558SOL     OW11283   7.763   2.905   9.371  0.0317 -0.6107 -0.2848
64558SOL    HW111284   7.745   2.999   9.375 -0.0545 -0.5547 -1.5037
64558SOL    HW211285   7.679   2.866   9.344 -0.8488 -1.4169  3.1264
64559SOL     OW11286   1.219   8.423   6.616 -0.1667 -0.4683 -0.0368
64559SOL    HW111287   1.168   8.417   6.535  0.3816  0.8311 -0.5023
64559SOL    HW211288   1.287   8.356   6.607 -0.4549 -0.7154 -0.3882
64560SOL     OW11289   6.862  11.956   0.788 -0.2571 -0.2805  0.0643
64560SOL    HW111290   6.805  11.991   0.720 -0.6960 -1.1814 -0.0533
64560SOL    HW211291   6.930  11.909   0.741  0.0786  0.0412  0.2252
64561SOL     OW11292  13.782   8.553   7.820 -0.4938  0.4018 -0.0660
64561SOL    HW111293  13.712   8.618   7.827 -1.8130 -1.0979  1.5220
64561SOL    HW211294  13.809   8.556   7.728 -2.5751  1.0917 -0.7074
64562SOL     OW11295   8.389   5.247   5.017 -0.0342 -0.8241  0.5899
64562SOL    HW111296   8.341   5.328   5.035  0.8517  0.2795 -1.6060
64562SOL    HW211297   8.350   5.213   4.936  2.1227 -0.4044 -0.7240
64563SOL     OW11298  13.114   2.546   7.762  0.1773  0.2537  0.2684
64563SOL    HW111299  13.166   2.552   7.682  0.6179  1.1227  0.6127
64563SOL    HW211300  13.167   2.491   7.820 -0.1052 -0.3082  0.0081
64564SOL     OW11301   6.675   2.516   1.305  0.1519  0.2799 -0.6828
64564SOL    HW111302   6.760   2.471   1.304 -0.5602 -1.1896 -3.1192
64564SOL    HW211303   6.635   2.488   1.387  1.3839 -0.2279 -0.2203
64565SOL     OW11304   0.119   3.135  12.825  0.4655 -0.0241 -0.2202
64565SOL    HW111305   0.057   3.082  12.874 -2.0117  0.5363 -2.5385
64565SOL    HW211306   0.095   3.122  12.733  1.9477  2.4876 -1.0606
64566SOL     OW11307  11.092   7.215   7.073 -0.7580 -0.0304 -0.0597
64566SOL    HW111308  11.056   7.267   7.145 -0.6877  1.5657 -1.1166
64566SOL    HW211309  11.172   7.261   7.048 -0.7183 -0.6116 -1.0574
64567SOL     OW11310   2.124   0.465  12.136  0.0284  0.0890 -0.3319
64567SOL    HW111311   2.067   0.401  12.178 -1.0996  1.2589 -0.0213
64567SOL    HW211312   2.193   0.413  12.096 -0.7126 -1.2940  0.1250
64568SOL     OW11313   2.372  13.136  13.057 -0.4053 -0.0544 -0.1911
64568SOL    HW111314   2.360  13.146  12.963 -2.0727  0.6896  0.0575
64568SOL    HW211315   2.401  13.046  13.069  1.5380  0.3413 -1.5228
64569SOL     OW11316   0.972  10.052   4.599 -0.0326 -0.0345 -0.0873
64569SOL    HW111317   1.000  10.130   4.647 -0.0272  0.4200 -0.8176
64569SOL    HW211318   0.876  10.058   4.598 -0.1362 -1.0018  1.4352
64570SOL     OW11319   3.369   5.220   6.912 -0.0805  0.0614 -0.6587
64570SOL    HW111320   3.452   5.181   6.939 -0.7288 -0.3308  0.8578
64570SOL    HW211321   3.391   5.273   6.835  1.7367  0.6969  0.2477
64571SOL     OW11322   0.588   3.403   2.217 -0.0356  0.2605  0.0247
64571SOL    HW111323   0.548   3.489   2.203 -0.8026 -0.0434  0.3354
64571SOL    HW211324   0.575   3.357   2.135  1.3489  0.8131 -0.5320
64572SOL     OW11325   3.991   5.368   8.356  0.1499  0.4265 -0.1436
64572SOL    HW111326   4.067   5.415   8.322 -0.9128  1.7515 -0.7876
64572SOL    HW211327   3.934   5.436   8.391 -0.5755 -0.5756  0.6948
64573SOL     OW11328   8.106   9.003  11.755 -0.1384 -0.8799 -0.8819
64573SOL    HW111329   8.185   9.020  11.704 -1.5723  1.5356 -2.5350
64573SOL    HW211330   8.134   9.007  11.846  1.5497  0.5964 -1.4149
64574SOL     OW11331   4.783   2.209  13.001  0.3339  0.2211  0.2044
64574SOL    HW111332   4.873   2.217  12.969  0.2945 -0.1763 -0.0226
64574SOL    HW211333   4.737   2.164  12.930  0.5346 -1.8546  1.3203
64575SOL     OW11334   5.342  12.853   3.931 -0.1886  0.1436  0.1300
64575SOL    HW111335   5.267  12.909   3.953  0.7103  0.9019  1.4235
64575SOL    HW211336   5.365  12.809   4.013 -0.1013 -1.1986 -0.5872
64576SOL     OW11337  11.108   8.246  12.472 -1.0561 -0.3771 -0.1611
64576SOL    HW111338  11.147   8.227  12.387  0.0250  0.0958  0.2042
64576SOL    HW211339  11.060   8.166  12.495 -2.1813 -0.1502 -1.6285
64577SOL     OW11340   7.217   0.572   6.788 -0.0835 -0.4719 -0.7310
64577SOL    HW111341   7.258   0.523   6.859  0.0531  3.6282  2.4231
64577SOL    HW211342   7.290   0.598   6.732  0.3639 -0.6231 -0.2277
64578SOL     OW11343  12.325  10.601   9.509 -0.0368 -0.2631 -0.6119
64578SOL    HW111344  12.292  10.633   9.425 -0.2549  0.0024 -0.4265
64578SOL    HW211345  12.375  10.523   9.486  0.7653  0.3730 -1.1161
64579SOL     OW11346   3.645   9.179   5.386  0.6713 -0.2918  0.2912
64579SOL    HW111347   3.652   9.269   5.353  1.4172 -0.9755 -1.5522
64579SOL    HW211348   3.552   9.159   5.381  0.4073  0.5487  1.2986
64580SOL     OW11349  10.722  12.777   7.156  0.2767 -0.3102 -0.4530
64580SOL    HW111350  10.683  12.713   7.096 -3.1392  1.0311  0.0994
64580SOL    HW211351  10.774  12.834   7.099 -0.7918 -0.5861 -1.7682
64581SOL     OW11352   4.385  10.853   8.058 -0.6736  0.2374 -0.8660
64581SOL    HW111353   4.413  10.944   8.071 -1.9973  0.4083  1.2564
64581SOL    HW211354   4.415  10.807   8.136 -1.1699 -0.8451 -1.2932
64582SOL     OW11355   9.010   6.299  12.039  0.0111  0.1652 -0.1326
64582SOL    HW111356   9.098   6.331  12.018  0.2016 -1.6938 -2.6042
64582SOL    HW211357   9.022   6.209  12.066 -1.1441 -0.2039 -0.7736
64583SOL     OW11358   0.789   8.224   7.022 -0.3477  0.6057 -0.1420
64583SOL    HW111359   0.811   8.316   7.039  1.0905  0.5199 -1.3734
64583SOL    HW211360   0.791   8.183   7.108  2.4307  1.0539  0.0690
64584SOL     OW11361   6.708  13.731   3.730  0.1193 -0.0292  0.2513
64584SOL    HW111362   6.628  13.732   3.677  0.3990 -3.5305 -0.4896
64584SOL    HW211363   6.747  13.817   3.716 -2.8362  1.3579 -0.3380
64585SOL     OW11364  10.665   0.531   0.584 -0.0926  0.3394 -0.4509
64585SOL    HW111365  10.748   0.484   0.571 -0.8721 -2.0623  2.2501
64585SOL    HW211366  10.668   0.561   0.674 -0.8559  3.2373 -1.2851
64586SOL     OW11367   4.388   8.305   3.120  0.0919  0.1590  0.5094
64586SOL    HW111368   4.394   8.341   3.209 -1.2687 -0.8001  1.0257
64586SOL    HW211369   4.444   8.362   3.068  2.4370 -0.3602  2.2995
64587SOL     OW11370   7.049   5.869  12.118  0.6072 -0.6199  0.1147
64587SOL    HW111371   7.096   5.847  12.038  2.7087  0.3150  1.0295
64587SOL    HW211372   7.064   5.963  12.130 -1.5304 -0.2575  0.4798
64588SOL     OW11373   0.958   7.554   6.817 -0.0164  0.2409  0.0826
64588SOL    HW111374   1.043   7.559   6.859  0.8511  0.0826 -1.5622
64588SOL    HW211375   0.903   7.616   6.864  1.4275  1.4166  0.2586
64589SOL     OW11376   9.045   5.005   2.509 -0.4801 -0.8097  0.5893
64589SOL    HW111377   9.085   4.981   2.593  0.6327 -1.6660 -0.1463
64589SOL    HW211378   9.050   5.100   2.506  0.4142 -0.8314  1.0579
64590SOL     OW11379   3.692   4.089   4.592  0.1158  0.1448 -0.3600
64590SOL    HW111380   3.599   4.112   4.587 -0.6086 -2.2692  0.4809
64590SOL    HW211381   3.738   4.171   4.575 -2.1219  2.7503  4.1412
64591SOL     OW11382  10.255   4.119  11.269 -0.0559  0.2168  0.2070
64591SOL    HW111383  10.256   4.163  11.184  1.0854  1.0769  0.6415
64591SOL    HW211384  10.306   4.039  11.256  0.5776  0.6146  0.2023
64592SOL     OW11385  10.663   3.108   2.623  0.4871 -0.7428 -0.1863
64592SOL    HW111386  10.712   3.166   2.566  1.0857 -1.1699 -0.1148
64592SOL    HW211387  10.581   3.155   2.641  0.5274 -0.3671 -0.9409
64593SOL     OW11388  11.652   3.110  11.592 -0.3612 -0.1364  0.3780
64593SOL    HW111389  11.657   3.157  11.509 -1.7341  0.3720  0.5568
64593SOL    HW211390  11.561   3.082  11.598  0.2468 -2.2022  0.6378
64594SOL     OW11391   8.163   6.220   0.558  0.2090 -0.1072 -0.0189
64594SOL    HW111392   8.086   6.181   0.599  0.1196 -0.7114 -0.7398
64594SOL    HW211393   8.151   6.314   0.567  1.2613 -0.1605  3.3633
64595SOL     OW11394   0.567   8.955   5.912  0.0771 -0.1549  0.0632
64595SOL    HW111395   0.629   8.910   5.969 -0.4274 -0.3665  0.4542
64595SOL    HW211396   0.604   9.042   5.900  0.0338 -0.0064  0.9710
64596SOL     OW11397  13.182   4.601  11.937 -0.6948 -0.1640  0.3616
64596SOL    HW111398  13.214   4.542  11.869  1.0222 -0.1899  1.1208
64596SOL    HW211399  13.228   4.572  12.016  0.1910  2.1452  0.7730
64597SOL     OW11400   0.528  11.278   3.886 -0.2942  0.4617  0.2844
64597SOL    HW111401   0.563  11.292   3.798 -1.9400  1.2433 -0.2987
64597SOL    HW211402   0.433  11.283   3.874 -0.5521  0.4262  2.0902
64598SOL     OW11403  11.803  10.105  12.875  0.5962 -0.1404 -0.2431
64598SOL    HW111404  11.892  10.128  12.849  0.6681 -0.8369 -0.6382
64598SOL    HW211405  11.792  10.145  12.961  0.8796  0.9409 -0.6854
64599SOL     OW11406   6.318   8.717   8.553  0.1314 -0.3407 -0.5640
64599SOL    HW111407   6.270   8.657   8.495  1.6045 -1.0500 -1.1093
64599SOL    HW211408   6.267   8.798   8.551 -0.9354 -1.0000 -1.2549
64600SOL     OW11409   0.502   7.158  12.896  0.5476  0.4057 -0.2701
64600SOL    HW111410   0.472   7.098  12.828 -1.6144  0.5582  0.4676
64600SOL    HW211411   0.553   7.224  12.849 -0.4384  0.2094 -1.6907
64601SOL     OW11412   4.213   5.945   5.567 -0.6850 -0.3490 -0.2647
64601SOL    HW111413   4.298   5.933   5.526  0.1507  3.2935  0.0695
64601SOL    HW211414   4.150   5.927   5.497  0.4657 -0.3767 -1.3304
64602SOL     OW11415   1.948  11.735  10.078  0.3111 -0.1839 -0.5807
64602SOL    HW111416   1.858  11.765  10.083  0.3130 -0.3589  2.5155
64602SOL    HW211417   1.945  11.660  10.018 -1.0884  1.1949 -2.3589
64603SOL     OW11418   6.495  11.593  10.777  0.3937 -0.3066 -0.3682
64603SOL    HW111419   6.431  11.581  10.707  0.4917 -2.6677 -0.1412
64603SOL    HW211420   6.577  11.611  10.732  0.2048 -0.5147 -0.7957
64604SOL     OW11421   6.740   2.418   9.598 -0.7426  0.0353 -0.0540
64604SOL    HW111422   6.669   2.479   9.617 -1.7163 -1.1336  0.2265
64604SOL    HW211423   6.701   2.354   9.539  0.3689 -0.0961 -0.6653
64605SOL     OW11424   3.420   3.064  13.047  0.1908 -0.2073  0.0112
64605SOL    HW111425   3.505   3.104  13.063  0.1895 -0.0260 -0.4413
64605SOL    HW211426   3.357   3.131  13.073  0.1888  0.0457 -0.6322
64606SOL     OW11427   5.914   5.621   3.373 -0.6188  0.9476  0.0452
64606SOL    HW111428   5.833   5.614   3.322 -0.7505 -0.4229  0.4063
64606SOL    HW211429   5.921   5.537   3.418  0.3954  1.4940  0.9475
64607SOL     OW11430   6.448  11.758  13.149  0.0228 -0.1724  0.1297
64607SOL    HW111431   6.355  11.760  13.128  0.1415  3.1684 -0.7313
64607SOL    HW211432   6.452  11.764  13.244 -0.6141 -1.0728  0.2204
64608SOL     OW11433   3.188   3.552  12.079  0.0670  0.2685  0.1224
64608SOL    HW111434   3.152   3.636  12.108  2.2575  0.7822  1.6088
64608SOL    HW211435   3.241   3.573  12.003 -0.2953  0.0082 -0.2100
64609SOL     OW11436   8.187   0.552   3.510 -0.0411 -0.6047 -0.7382
64609SOL    HW111437   8.251   0.599   3.456  2.2369 -1.3068  1.1425
64609SOL    HW211438   8.129   0.619   3.543  0.3335  0.2241 -1.7137
64610SOL     OW11439  11.500   5.764   8.530 -0.0006 -0.0650  0.0474
64610SOL    HW111440  11.494   5.687   8.473 -1.0870  1.4721 -2.0627
64610SOL    HW211441  11.581   5.807   8.505 -0.0561  0.1674  0.2626
64611SOL     OW11442   8.333  11.451   8.967 -0.1031  0.1516 -0.2411
64611SOL    HW111443   8.408  11.407   8.928  0.4543 -0.0967  1.0684
64611SOL    HW211444   8.352  11.453   9.061 -3.0835 -2.7063  0.6075
64612SOL     OW11445  10.381  11.357   1.464 -0.3698 -0.0284 -0.4085
64612SOL    HW111446  10.474  11.378   1.467 -0.1068 -1.1953  0.8328
64612SOL    HW211447  10.341  11.420   1.524 -0.5073  0.9432 -1.4915
64613SOL     OW11448   7.167   1.338   7.779  0.0335  0.0799 -0.3955
64613SOL    HW111449   7.181   1.254   7.735 -0.5800 -0.8850  1.1807
64613SOL    HW211450   7.168   1.402   7.708 -0.5289 -1.3620 -1.7754
64614SOL     OW11451   9.558   3.470   2.232 -0.0228  0.1422  0.0239
64614SOL    HW111452   9.509   3.390   2.212 -0.4559  0.7036 -1.3116
64614SOL    HW211453   9.617   3.481   2.158  0.3904  0.7869  0.4363
64615SOL     OW11454   9.424   6.084  13.954  0.2297 -0.3516  0.6179
64615SOL    HW111455   9.513   6.048  13.958  1.1410  1.6972 -0.0846
64615SOL    HW211456   9.403   6.086  13.861  0.1746  0.8016  0.6446
64616SOL     OW11457  10.190   5.309   4.342 -0.1764 -0.3098 -0.2339
64616SOL    HW111458  10.280   5.342   4.333 -0.8703  1.7110 -0.4489
64616SOL    HW211459  10.161   5.344   4.427 -0.9875 -0.3104 -0.5081
64617SOL     OW11460   1.745  10.287   7.408  0.1287  0.3099 -0.2083
64617SOL    HW111461   1.828  10.248   7.380  0.8546  0.7272  1.2839
64617SOL    HW211462   1.740  10.369   7.360  1.2852  0.9548  0.7340
64618SOL     OW11463   0.759   0.606   1.398 -0.2518 -0.1241 -1.0110
64618SOL    HW111464   0.714   0.617   1.482 -0.4379 -1.9915 -0.8293
64618SOL    HW211465   0.783   0.695   1.373  0.9721  0.4002  1.6409
64619SOL     OW11466  10.632  11.868   8.451  0.3585 -0.6892  0.5950
64619SOL    HW111467  10.686  11.790   8.448 -0.0605 -1.0499  1.8849
64619SOL    HW211468  10.590  11.872   8.364  0.6136 -1.7213  0.4194
64620SOL     OW11469  13.714   3.530  12.450  0.0577 -0.3309  0.1412
64620SOL    HW111470  13.626   3.567  12.444 -0.9108 -2.6544 -2.3176
64620SOL    HW211471  13.706   3.461  12.516  1.0986  1.7719  2.6033
64621SOL     OW11472   4.535  13.423   4.740  0.1784 -1.1880 -0.0407
64621SOL    HW111473   4.482  13.412   4.819  0.9195 -0.6200  0.5521
64621SOL    HW211474   4.485  13.485   4.687  0.6340  0.0049  0.8862
64622SOL     OW11475  12.589  12.361   1.606  0.0826 -0.2496 -0.3692
64622SOL    HW111476  12.655  12.335   1.670 -0.5582  0.7417  0.7412
64622SOL    HW211477  12.625  12.333   1.522  2.2273  0.7872  0.1113
64623SOL     OW11478   0.275   5.275   8.595 -0.0780 -0.2587  0.0138
64623SOL    HW111479   0.329   5.196   8.604 -1.1323 -0.9666  0.3197
64623SOL    HW211480   0.292   5.324   8.675  1.1315  0.1911 -0.4982
64624SOL     OW11481   7.396  10.935  13.749  0.5518  0.8448  0.0794
64624SOL    HW111482   7.358  10.862  13.798  2.2589  0.0437  0.2756
64624SOL    HW211483   7.467  10.897  13.698  1.4971  2.3542  0.1861
64625SOL     OW11484   1.621  11.661   7.817  0.0811  1.0401 -0.4173
64625SOL    HW111485   1.652  11.750   7.800  1.7250  0.3896 -1.0103
64625SOL    HW211486   1.527  11.671   7.834  0.1079  2.7982 -1.1227
64626SOL     OW11487   1.403   0.505  11.822  0.1660 -0.2173 -0.3956
64626SOL    HW111488   1.487   0.551  11.831 -0.5451  0.9606  0.4603
64626SOL    HW211489   1.361   0.547  11.747 -0.3118  0.2643  0.1362
64627SOL     OW11490   4.844   3.264   5.860 -0.3723 -0.3378 -0.1697
64627SOL    HW111491   4.750   3.265   5.840 -0.5635  0.5739  0.6843
64627SOL    HW211492   4.849   3.226   5.948  0.2678 -2.3093 -0.9921
64628SOL     OW11493   5.501   5.118  13.161  0.2516 -0.2757 -0.4196
64628SOL    HW111494   5.438   5.083  13.223 -0.0076 -0.5842 -0.8492
64628SOL    HW211495   5.474   5.209  13.146 -0.2375 -0.4811 -0.7879
64629SOL     OW11496   4.096  10.297   9.489 -0.9543 -0.0706  0.0921
64629SOL    HW111497   4.070  10.320   9.399 -2.1448 -0.3037  0.3562
64629SOL    HW211498   4.172  10.353   9.507 -1.5183  0.9648 -0.5961
64630SOL     OW11499   3.440  12.263   1.363  0.0512 -0.7521 -0.1487
64630SOL    HW111500   3.447  12.358   1.372 -0.8316 -0.4657 -1.9838
64630SOL    HW211501   3.395  12.235   1.443  0.8708  0.2712  0.7043
64631SOL     OW11502  13.172   8.841   6.949 -0.1554  0.6237  0.2706
64631SOL    HW111503  13.212   8.918   6.989 -0.2222 -0.3091  2.2194
64631SOL    HW211504  13.218   8.831   6.865 -0.3386  2.9093 -0.1890
64632SOL     OW11505  10.767  12.713   5.184 -0.3736  0.3573 -0.5270
64632SOL    HW111506  10.834  12.728   5.117  0.8652 -0.3822  0.5233
64632SOL    HW211507  10.696  12.773   5.159  0.1146  0.2342 -2.3959
64633SOL     OW11508   9.662  13.983   7.631  0.2369 -0.6035 -0.4380
64633SOL    HW111509   9.600  13.931   7.580 -0.3221  0.9745 -1.4406
64633SOL    HW211510   9.741  13.986   7.576 -0.5084  1.4567 -1.5134
64634SOL     OW11511   0.414  11.068  12.763 -0.8393 -0.2301 -0.1959
64634SOL    HW111512   0.451  11.087  12.849  0.2266 -0.0908 -0.6708
64634SOL    HW211513   0.363  11.146  12.741 -0.4617  0.0709 -0.0262
64635SOL     OW11514  12.655   0.081   5.876 -0.0007  0.1381 -0.6378
64635SOL    HW111515  12.714   0.006   5.867  0.1844  0.3448 -1.1938
64635SOL    HW211516  12.580   0.046   5.925  0.8420  0.0362  0.6035
64636SOL     OW11517   0.684  10.182   8.936  0.2731 -0.8593 -0.0115
64636SOL    HW111518   0.753  10.116   8.929  0.9906 -0.0394 -0.9565
64636SOL    HW211519   0.714  10.241   9.006  1.2409  0.2574 -1.3070
64637SOL     OW11520   8.556   2.748   3.633 -0.8830 -0.2084 -0.6298
64637SOL    HW111521   8.574   2.666   3.588 -2.4463 -2.8411  3.0358
64637SOL    HW211522   8.465   2.768   3.612 -1.7475 -1.6624  1.3676
64638SOL     OW11523   1.685  12.019   3.617  0.1925  0.3783  0.3169
64638SOL    HW111524   1.724  12.104   3.598 -2.1614  1.2021 -1.3243
64638SOL    HW211525   1.620  12.037   3.684  0.3512 -0.3218  0.6626
64639SOL     OW11526   1.267   1.306   7.228  0.0024 -0.1704  0.0255
64639SOL    HW111527   1.243   1.303   7.321  0.3667  1.6122  0.2282
64639SOL    HW211528   1.339   1.370   7.225 -0.3150  0.1383 -1.5356
64640SOL     OW11529   7.865   6.167   7.273  0.2400 -0.7100 -0.1607
64640SOL    HW111530   7.823   6.099   7.220 -0.6779 -0.4757  0.2367
64640SOL    HW211531   7.842   6.249   7.230 -0.2567 -0.5372  0.4077
64641SOL     OW11532   2.005  12.533  11.842 -0.1508  0.3047 -0.1625
64641SOL    HW111533   1.915  12.566  11.852 -0.1380 -0.1876  2.0208
64641SOL    HW211534   2.016  12.522  11.747 -1.8041  1.9632 -0.6108
64642SOL     OW11535   5.100  13.626  12.552  0.3198 -0.3367 -0.1486
64642SOL    HW111536   5.068  13.536  12.553  0.4370 -0.3937  1.6149
64642SOL    HW211537   5.021  13.680  12.565  0.5704 -0.3664  1.8025
64643SOL     OW11538  13.931   2.944  11.634  0.3069 -0.0480  1.1110
64643SOL    HW111539  13.896   3.031  11.614  1.6494  0.1847 -0.3953
64643SOL    HW211540  13.863   2.883  11.604  0.0901  0.4433  0.5945
64644SOL     OW11541   1.974   8.753  12.687 -0.1479  0.4551 -0.8093
64644SOL    HW111542   2.003   8.737  12.597  4.7155  2.4144  0.1136
64644SOL    HW211543   1.939   8.842  12.685  1.2770  1.0492 -0.6132
64645SOL     OW11544   1.794   1.911   0.015  0.3652 -0.2236  0.0254
64645SOL    HW111545   1.878   1.954   0.005  0.8113 -1.0468  0.1617
64645SOL    HW211546   1.757   1.910  -0.074 -0.5716  2.2211  0.3246
64646SOL     OW11547  14.092   0.695  11.053 -0.2806  0.2009  0.1324
64646SOL    HW111548  14.134   0.759  10.996  2.2963 -0.0214  1.6430
64646SOL    HW211549  14.134   0.612  11.031 -0.9851 -0.3162  0.6783
64647SOL     OW11550   2.813  12.963  13.430  0.0037  0.1904  0.2532
64647SOL    HW111551   2.757  12.969  13.508 -0.0816  3.2223  0.0844
64647SOL    HW211552   2.772  13.021  13.367  0.9962 -0.9336 -1.4987
64648SOL     OW11553  10.343  13.776  13.187  0.6510 -0.5176 -0.1276
64648SOL    HW111554  10.354  13.871  13.189  0.3466 -0.4039 -1.7368
64648SOL    HW211555  10.248  13.764  13.197  0.8289 -0.7532  1.4470
64649SOL     OW11556   6.001   6.014  12.696 -0.3145  0.5099 -0.5850
64649SOL    HW111557   6.000   6.015  12.791 -0.1559 -0.6073 -0.5498
64649SOL    HW211558   6.094   6.011  12.673 -0.2539  2.9701 -0.8561
64650SOL     OW11559   4.168   9.133   3.834 -0.3063 -0.2784  0.2510
64650SOL    HW111560   4.088   9.175   3.866 -0.3764 -0.3477  0.1646
64650SOL    HW211561   4.138   9.058   3.785 -0.1811 -0.3919  0.3466
64651SOL     OW11562  13.900  10.933   0.220 -0.2491 -0.6605 -0.0203
64651SOL    HW111563  13.946  10.922   0.303 -0.8267  1.2168  0.5905
64651SOL    HW211564  13.944  10.872   0.161  1.0542 -1.0797  1.3071
64652SOL     OW11565   3.354  14.092   9.900  0.2354 -0.0020 -0.7439
64652SOL    HW111566   3.340  14.038   9.822 -0.4452  0.3487 -0.8657
64652SOL    HW211567   3.293  14.165   9.890 -0.0246 -0.0818  0.2343
64653SOL     OW11568   0.345  11.234  12.101  0.3811  0.0392  0.4472
64653SOL    HW111569   0.292  11.313  12.113  0.4774 -0.1906  2.7584
64653SOL    HW211570   0.428  11.254  12.144  1.6503 -0.2087 -1.7121
64654SOL     OW11571   8.199   9.585  12.696  0.1914 -0.4837 -0.6176
64654SOL    HW111572   8.204   9.535  12.777 -2.1299 -0.3163 -0.2945
64654SOL    HW211573   8.273   9.645  12.700 -0.3549  0.1526  1.8533
64655SOL     OW11574   3.622   4.153   8.831  0.6738 -0.2180  0.1441
64655SOL    HW111575   3.658   4.156   8.920 -0.9357  0.4322  0.8137
64655SOL    HW211576   3.564   4.078   8.831 -0.4502  0.6269  0.1138
64656SOL     OW11577  10.927   9.754   4.035 -0.3919 -0.3929  0.3134
64656SOL    HW111578  10.997   9.690   4.019 -0.0478 -0.8090  2.9633
64656SOL    HW211579  10.907   9.744   4.128 -0.7584  2.9601  0.7130
64657SOL     OW11580  11.270   7.517   6.575 -0.1381 -0.7384 -0.5352
64657SOL    HW111581  11.187   7.469   6.576 -1.4860  1.4820 -1.1372
64657SOL    HW211582  11.302   7.510   6.665 -1.4243 -0.9034 -0.0648
64658SOL     OW11583   9.391   5.808   0.859 -0.4844  0.3020 -0.5366
64658SOL    HW111584   9.473   5.855   0.842 -0.5805  0.5691 -0.2510
64658SOL    HW211585   9.414   5.715   0.849 -0.4288  0.4228 -1.7011
64659SOL     OW11586  13.124  13.041   2.822  0.4912  0.1697 -0.5125
64659SOL    HW111587  13.109  13.135   2.833 -0.5276 -0.1554  1.2802
64659SOL    HW211588  13.116  13.005   2.911  1.4204 -1.5398 -1.0847
64660SOL     OW11589   2.564  10.127   2.149  0.0431 -0.0713 -0.8470
64660SOL    HW111590   2.659  10.136   2.141  0.0171  2.8639  0.9037
64660SOL    HW211591   2.552  10.069   2.225  0.4619  0.7526 -0.1423
64661SOL     OW11592   1.722  11.327   4.882  0.2476  0.5623 -0.2883
64661SOL    HW111593   1.740  11.259   4.818  0.7577 -0.0354  0.4730
64661SOL    HW211594   1.685  11.281   4.957 -2.5773  1.4983 -0.9740
64662SOL     OW11595  13.251  12.617  13.615 -0.2031 -0.1872 -0.0722
64662SOL    HW111596  13.229  12.604  13.523  1.5821 -1.4373 -0.3678
64662SOL    HW211597  13.347  12.621  13.617 -0.1882 -0.3901  1.7670
64663SOL     OW11598  12.135  12.645  12.002 -0.0964  0.4675 -0.4508
64663SOL    HW111599  12.044  12.670  11.983 -0.7020 -0.7550  0.5962
64663SOL    HW211600  12.184  12.727  12.000 -1.1865  1.1262 -1.2284
64664SOL     OW11601   3.201   3.629   0.430  0.0577 -0.6400 -0.2313
64664SOL    HW111602   3.294   3.645   0.448  0.0671  1.4588 -1.8519
64664SOL    HW211603   3.200   3.586   0.345 -0.4562 -1.4577  0.1708
64665SOL     OW11604   0.465   0.528   2.584  0.7180 -0.1366 -0.4187
64665SOL    HW111605   0.501   0.607   2.543  1.3400 -0.2138 -0.0392
64665SOL    HW211606   0.541   0.471   2.595  0.6121 -0.0351  1.0287
64666SOL     OW11607   2.034  11.850   6.297  0.2087 -0.1244  0.5969
64666SOL    HW111608   1.956  11.839   6.244  0.1706 -1.3170  0.8767
64666SOL    HW211609   2.026  11.938   6.334 -0.8730 -0.1432  0.4240
64667SOL     OW11610  11.746   0.567   1.324  0.2382 -0.7372 -0.0832
64667SOL    HW111611  11.773   0.589   1.414 -0.8540 -0.8516  0.2864
64667SOL    HW211612  11.796   0.488   1.303  0.1166 -1.0175  0.6307
64668SOL     OW11613  12.374   1.403   9.045  0.4342 -0.1323 -0.1208
64668SOL    HW111614  12.370   1.317   9.087 -1.0490  0.9035  1.9973
64668SOL    HW211615  12.293   1.409   8.995 -0.3345  0.6888  1.1760
64669SOL     OW11616   8.604   4.389   7.254  0.4202  0.3844  0.6013
64669SOL    HW111617   8.617   4.483   7.266 -0.6455  0.3120  2.8505
64669SOL    HW211618   8.573   4.358   7.339  1.5583 -2.1731  0.1782
64670SOL     OW11619   4.321   7.615   6.221 -0.7671 -0.4009  0.1074
64670SOL    HW111620   4.302   7.706   6.199 -1.1903 -0.6984 -0.8275
64670SOL    HW211621   4.261   7.594   6.292 -1.4844 -0.2812 -0.4518
64671SOL     OW11622   0.391   1.408   8.817 -0.1198  0.0875  0.0699
64671SOL    HW111623   0.304   1.412   8.856  0.7583 -0.8631  2.2670
64671SOL    HW211624   0.409   1.315   8.807 -0.0792  0.2848 -2.2171
64672SOL     OW11625   8.508   7.578   2.330 -0.5750 -0.0502 -0.4563
64672SOL    HW111626   8.556   7.521   2.271  1.2265  0.2267  0.6571
64672SOL    HW211627   8.452   7.520   2.381 -1.2413 -0.4132 -1.5732
64673SOL     OW11628  10.435  11.646   7.952  0.2402  0.0310  0.1080
64673SOL    HW111629  10.495  11.711   7.916  2.5455 -2.4336 -0.8513
64673SOL    HW211630  10.360  11.647   7.893 -0.2498  2.4440  0.6964
64674SOL     OW11631   7.596   0.112   8.660  0.3257  0.3062 -0.2096
64674SOL    HW111632   7.657   0.139   8.730  0.4954 -0.1349 -0.1812
64674SOL    HW211633   7.510   0.134   8.694  0.3280 -0.7817  0.5673
64675SOL     OW11634  10.398  12.839   4.346  0.2730  0.2350  0.3780
64675SOL    HW111635  10.336  12.830   4.418  1.3742 -0.3399  1.2654
64675SOL    HW211636  10.482  12.855   4.387  1.0265 -0.6392 -0.7534
64676SOL     OW11637   3.182  13.717   9.585  0.0871  0.6063 -0.3253
64676SOL    HW111638   3.116  13.771   9.543 -1.1172  0.9156  1.8668
64676SOL    HW211639   3.245  13.779   9.622  0.3720  0.3865 -0.4321
64677SOL     OW11640  13.635  11.973   8.739 -0.1308 -0.1268  0.6740
64677SOL    HW111641  13.729  11.960   8.731 -0.1286 -0.9196  1.7818
64677SOL    HW211642  13.597  11.912   8.676  0.0904  0.9486 -0.5552
64678SOL     OW11643  11.001   8.194   6.985  0.5532  0.6614  0.3367
64678SOL    HW111644  11.027   8.133   6.917  0.4335  2.5472 -1.5256
64678SOL    HW211645  11.081   8.240   7.008  0.6707 -0.2230  1.8073
64679SOL     OW11646   3.525  11.568  11.322  0.0519  0.7321 -0.8949
64679SOL    HW111647   3.520  11.482  11.362  1.5203  0.5758 -0.9623
64679SOL    HW211648   3.501  11.554  11.231 -2.1946  0.8844 -0.3793
64680SOL     OW11649   4.946   8.736   2.360  0.5719 -0.2016 -0.3920
64680SOL    HW111650   4.939   8.734   2.265 -1.1686 -0.7453 -0.2819
64680SOL    HW211651   4.936   8.829   2.383 -0.0792 -0.1968 -0.6801
64681SOL     OW11652   4.360   4.995   1.476  0.0232 -0.3294 -0.1017
64681SOL    HW111653   4.340   5.084   1.445 -0.2680 -0.3305  0.0818
64681SOL    HW211654   4.285   4.943   1.447 -0.3450 -0.2935  0.7694
64682SOL     OW11655   8.616  13.116   7.821 -0.1312  0.4656  0.0290
64682SOL    HW111656   8.599  13.027   7.852  2.0632  0.0251  0.1884
64682SOL    HW211657   8.669  13.104   7.742  0.4031  1.6262  0.1888
64683SOL     OW11658   7.333  11.830   9.771  0.0863 -0.1993 -0.3334
64683SOL    HW111659   7.380  11.853   9.691  1.5542 -0.1959  0.4985
64683SOL    HW211660   7.388  11.764   9.813 -0.4522  0.1013  0.8826
64684SOL     OW11661   3.587   7.692   6.447 -0.4570  0.3830  0.1613
64684SOL    HW111662   3.663   7.634   6.442 -0.7976 -0.1389  0.8399
64684SOL    HW211663   3.612   7.768   6.394 -0.1564 -0.5344 -1.0595
64685SOL     OW11664   3.836   8.230  12.643 -0.2675 -0.3351  0.4626
64685SOL    HW111665   3.853   8.318  12.610 -0.8041 -0.4782 -0.2181
64685SOL    HW211666   3.843   8.238  12.738  2.4172 -0.1428  0.3209
64686SOL     OW11667   0.966  11.418   5.203 -0.0818 -0.0300 -0.1101
64686SOL    HW111668   0.875  11.437   5.226  0.1140 -0.4490  1.0758
64686SOL    HW211669   1.005  11.386   5.284  0.6600 -1.5519 -1.0231
64687SOL     OW11670   8.554   2.852  10.106 -0.1513 -0.1278  0.4412
64687SOL    HW111671   8.506   2.778  10.142  0.9048 -0.9778  0.1663
64687SOL    HW211672   8.605   2.815  10.034  1.3250  0.6054  1.0621
64688SOL     OW11673  11.425   7.327   4.230  0.1835  0.0769 -0.2038
64688SOL    HW111674  11.332   7.321   4.252 -0.0890  1.8325 -0.7362
64688SOL    HW211675  11.435   7.413   4.190  2.2843  0.4921  1.0599
64689SOL     OW11676   3.024   6.974   7.725  0.0724  0.0679 -0.1502
64689SOL    HW111677   3.093   6.908   7.734 -1.0329 -1.0012  0.9334
64689SOL    HW211678   2.947   6.925   7.697 -1.2390  0.5252  2.3269
64690SOL     OW11679  13.584   0.106  10.696  0.1679  0.2363 -0.3553
64690SOL    HW111680  13.677   0.128  10.700  0.5836 -1.3242 -0.7725
64690SOL    HW211681  13.579   0.017  10.730 -0.9948 -0.1811 -1.5385
64691SOL     OW11682   2.275   4.999   4.169 -0.3805 -0.4195 -0.3575
64691SOL    HW111683   2.334   5.073   4.180 -0.4996 -0.3630 -0.0870
64691SOL    HW211684   2.332   4.925   4.146 -0.1773 -0.4193  0.1361
64692SOL     OW11685   9.549   5.653   4.308  0.0978  0.0334 -0.0324
64692SOL    HW111686   9.468   5.628   4.264 -0.1933  0.0249  0.4905
64692SOL    HW211687   9.533   5.632   4.400  1.0577 -0.8772 -0.0539
64693SOL     OW11688   7.815   1.455   3.885  0.3023 -0.3042 -0.6045
64693SOL    HW111689   7.845   1.422   3.970  1.7248  0.0652 -0.9361
64693SOL    HW211690   7.722   1.434   3.883  0.0074  0.5377  1.4478
64694SOL     OW11691   5.547   2.938   6.267  0.0042  0.3049 -0.0217
64694SOL    HW111692   5.462   2.938   6.224 -0.6293 -0.3140  1.1652
64694SOL    HW211693   5.562   2.846   6.289  0.5711  0.5297  0.5591
64695SOL     OW11694  11.068   2.421   9.489 -0.1650 -0.0040 -0.1181
64695SOL    HW111695  11.090   2.478   9.563 -0.1903  0.9660 -0.8360
64695SOL    HW211696  10.997   2.468   9.444 -0.1096 -0.5588 -0.7914
64696SOL     OW11697  11.079   2.049  13.704 -0.2017 -0.6279 -0.3976
64696SOL    HW111698  11.029   2.040  13.785 -1.1854 -1.6183 -1.0801
64696SOL    HW211699  11.170   2.038  13.731 -0.6220 -2.7494  0.3578
64697SOL     OW11700   7.901  13.163  13.246  0.1934 -0.0255  0.4859
64697SOL    HW111701   7.957  13.121  13.311 -1.0105 -1.7152  0.4956
64697SOL    HW211702   7.847  13.223  13.298 -1.6767 -2.3084  1.3694
64698SOL     OW11703   5.504  11.825   7.579  0.9065 -0.5481 -0.1540
64698SOL    HW111704   5.559  11.880   7.524 -2.2791  3.1731 -0.0755
64698SOL    HW211705   5.516  11.858   7.667  0.8852 -1.8304  0.3554
64699SOL     OW11706  11.647   9.302   6.037 -0.1432 -0.6247 -0.3824
64699SOL    HW111707  11.578   9.246   6.003  0.2813 -0.8355 -0.9173
64699SOL    HW211708  11.606   9.388   6.046 -0.8875 -1.0653  0.7391
64700SOL     OW11709  11.783   6.116   7.765  0.0532 -0.0871  0.1147
64700SOL    HW111710  11.809   6.167   7.842 -0.7621 -0.4764  0.6557
64700SOL    HW211711  11.855   6.130   7.702  1.2032 -0.5185  1.2880
64701SOL     OW11712   8.873  12.928   8.398  0.8512  0.1027  0.6748
64701SOL    HW111713   8.840  12.944   8.310  2.3781  0.2634  0.1023
64701SOL    HW211714   8.935  12.855   8.387  2.5129  1.3532  1.2317
64702SOL     OW11715  13.715   8.885   9.011 -0.1200  0.0656  0.1018
64702SOL    HW111716  13.749   8.833   9.084 -1.2217  0.9450  1.2690
64702SOL    HW211717  13.621   8.867   9.010  0.0125 -0.7936 -1.8401
64703SOL     OW11718   2.199   5.264   9.138 -0.2344  0.3083 -0.6092
64703SOL    HW111719   2.190   5.268   9.234  1.0645  0.4274 -0.4686
64703SOL    HW211720   2.228   5.174   9.121  0.7633  0.6407 -0.7504
64704SOL     OW11721  10.866  10.593   9.135  0.0818 -0.1975  0.2186
64704SOL    HW111722  10.924  10.663   9.163 -0.2242  0.3969 -0.5960
64704SOL    HW211723  10.864  10.600   9.040 -1.4218 -0.0976  0.2245
64705SOL     OW11724   3.509  13.282  10.308 -0.0369  0.1548 -0.6638
64705SOL    HW111725   3.585  13.259  10.254 -0.7597 -2.8725 -0.5767
64705SOL    HW211726   3.440  13.300  10.245 -0.0100 -0.0388 -0.7512
64706SOL     OW11727   5.439   8.714   1.670  0.4081 -0.5837 -0.3613
64706SOL    HW111728   5.526   8.675   1.682  0.4695 -0.3149  0.0699
64706SOL    HW211729   5.455   8.808   1.671  0.2122 -0.5425 -1.0602
64707SOL     OW11730  13.767   2.536   8.184  0.3845 -0.3196  0.3948
64707SOL    HW111731  13.707   2.610   8.181  0.1577 -0.5368 -1.5942
64707SOL    HW211732  13.815   2.547   8.266  0.1206  1.8354  0.3126
64708SOL     OW11733   6.309   1.738   0.822  0.2006 -0.2855 -0.8892
64708SOL    HW111734   6.285   1.803   0.756  1.1548  0.5884 -0.4027
64708SOL    HW211735   6.349   1.789   0.893 -0.0146 -1.2937 -0.0157
64709SOL     OW11736   0.611   2.871   4.915  0.0900 -0.0957  0.3665
64709SOL    HW111737   0.541   2.807   4.924 -0.2916  0.4634  1.7622
64709SOL    HW211738   0.662   2.862   4.996  0.4636  0.8313  0.2523
64710SOL     OW11739   6.434  13.070   0.515  0.4895 -0.2118 -0.6774
64710SOL    HW111740   6.422  13.162   0.535  0.7154  0.1151 -1.9564
64710SOL    HW211741   6.528  13.061   0.502  0.5015 -0.6882 -0.2954
64711SOL     OW11742  13.322   0.998   5.569 -0.0910 -0.1255 -0.6021
64711SOL    HW111743  13.332   0.938   5.643  1.3121  0.8493  0.0251
64711SOL    HW211744  13.411   1.017   5.541 -0.5259  1.3213 -1.0810
64712SOL     OW11745   9.816   9.734   3.606 -0.2333  0.3342  0.6291
64712SOL    HW111746   9.768   9.722   3.688 -0.4172  1.1031  0.6409
64712SOL    HW211747   9.906   9.711   3.627 -0.2996  0.4411  1.0284
64713SOL     OW11748   3.143   5.271   7.617  0.0027  0.4847  0.4609
64713SOL    HW111749   3.156   5.300   7.526  0.4014 -1.7086 -0.2472
64713SOL    HW211750   3.049   5.256   7.623 -0.1607  1.5114  0.7342
64714SOL     OW11751   7.256   4.942  11.111 -0.3460  0.6498 -0.1125
64714SOL    HW111752   7.170   4.899  11.114 -0.6631  1.0011 -2.5337
64714SOL    HW211753   7.310   4.891  11.172 -1.2814 -1.8865 -1.2429
64715SOL     OW11754   5.110  14.089   7.530  0.1676 -0.0038 -0.5987
64715SOL    HW111755   5.032  14.143   7.541 -0.1379 -0.5270 -0.1472
64715SOL    HW211756   5.183  14.149   7.545 -0.1736  0.1294  0.6227
64716SOL     OW11757   1.418  10.617   0.527 -0.2979 -0.8590  0.1122
64716SOL    HW111758   1.408  10.571   0.444 -1.6277  0.1606 -0.3235
64716SOL    HW211759   1.432  10.708   0.502  1.1022 -0.8016  0.9914
64717SOL     OW11760   0.871   0.193   8.295 -0.1764 -0.2333 -0.4935
64717SOL    HW111761   0.880   0.118   8.354  1.6999 -0.8452 -1.4748
64717SOL    HW211762   0.840   0.154   8.213  0.2993  0.1447 -0.8524
64718SOL     OW11763   5.223   4.059   5.082  0.2877 -0.1149 -0.0418
64718SOL    HW111764   5.129   4.053   5.101  0.1606 -1.0099 -0.8822
64718SOL    HW211765   5.261   4.098   5.161 -0.6142 -0.9128  0.8063
64719SOL     OW11766  11.007   6.094   3.637 -0.4891  0.2883 -0.4208
64719SOL    HW111767  10.967   6.119   3.554 -0.3186 -0.5426 -0.7620
64719SOL    HW211768  11.057   6.015   3.617  0.7149  0.8831  0.1633
64720SOL     OW11769   8.145  13.985  11.363 -0.5947 -0.2619 -0.4000
64720SOL    HW111770   8.217  14.015  11.418 -1.0052 -0.5549  0.3154
64720SOL    HW211771   8.144  14.045  11.289 -1.3899  1.4904  0.9677
64721SOL     OW11772  13.505   3.958   8.731 -0.1612  0.0193  0.5893
64721SOL    HW111773  13.557   4.023   8.777  1.0783  0.8467 -1.7977
64721SOL    HW211774  13.432   4.008   8.693  0.1301 -0.1792 -0.2554
64722SOL     OW11775   1.177  13.141  10.323  0.3129 -0.1193 -0.3821
64722SOL    HW111776   1.119  13.153  10.247 -1.2937 -0.1868  0.7814
64722SOL    HW211777   1.263  13.167  10.291 -0.8192  2.7455 -1.4389
64723SOL     OW11778  13.910   4.369   1.070  0.4312 -0.3644  0.5816
64723SOL    HW111779  13.962   4.423   1.012 -1.4774 -0.5663 -1.4368
64723SOL    HW211780  13.931   4.401   1.158  2.3574  0.8812 -0.2696
64724SOL     OW11781   1.155   1.682  13.975 -0.6312 -0.2932  0.5482
64724SOL    HW111782   1.229   1.624  13.994 -0.1974  0.2685  0.5926
64724SOL    HW211783   1.091   1.661  14.042 -1.3339 -2.1668 -0.6146
64725SOL     OW11784   9.568  11.436   4.593  0.5028  0.4810  0.0750
64725SOL    HW111785   9.547  11.502   4.527 -0.2598 -0.9625 -1.1978
64725SOL    HW211786   9.660  11.415   4.577  0.0989 -0.4771 -1.1510
64726SOL     OW11787   7.804  14.026  13.340 -0.4307 -0.4295 -0.0974
64726SOL    HW111788   7.878  13.969  13.360 -0.2160 -0.1880 -0.1811
64726SOL    HW211789   7.842  14.094  13.284  0.2225  1.9207  2.9032
64727SOL     OW11790  11.353   8.941   3.378 -0.3570  0.3687  0.4501
64727SOL    HW111791  11.375   9.015   3.320  2.1806 -1.7293 -1.5446
64727SOL    HW211792  11.392   8.965   3.462  0.6505  1.2453 -0.2253
64728SOL     OW11793  11.428   6.512   5.967  0.3592  0.3404 -0.3418
64728SOL    HW111794  11.516   6.532   6.001 -0.3534  1.6678  0.8297
64728SOL    HW211795  11.374   6.503   6.045 -0.6001 -0.2422 -1.0560
64729SOL     OW11796  10.517   6.940   7.210 -0.8816  0.0702 -0.1543
64729SOL    HW111797  10.512   6.903   7.298 -1.0705 -0.4706 -0.3877
64729SOL    HW211798  10.593   6.998   7.212 -0.2192 -0.7898  0.0485
64730SOL     OW11799   1.912   5.077   1.428 -0.3363 -0.0901 -0.5519
64730SOL    HW111800   1.891   4.993   1.387 -0.6216 -0.5058  0.4323
64730SOL    HW211801   1.913   5.059   1.522  0.4064  0.8297 -0.3668
64731SOL     OW11802   9.276   2.426   5.198  0.1103  0.4395 -0.7086
64731SOL    HW111803   9.193   2.424   5.150  0.0746  1.5515 -0.7223
64731SOL    HW211804   9.284   2.517   5.227  0.3725 -0.0907  0.9853
64732SOL     OW11805   3.488   5.975  10.209  0.2894  0.1038 -0.0233
64732SOL    HW111806   3.523   5.897  10.165 -0.2941 -0.4571  0.4749
64732SOL    HW211807   3.460   6.033  10.139 -0.2164 -0.5817 -0.3934
64733SOL     OW11808  13.222   6.463   3.170  0.3020  0.7189 -0.0076
64733SOL    HW111809  13.239   6.555   3.148  0.0739  0.7078 -0.2336
64733SOL    HW211810  13.306   6.432   3.205  0.2131  1.1689  0.6205
64734SOL     OW11811   0.707  13.978  12.711  0.4185 -0.1284  0.3423
64734SOL    HW111812   0.639  13.941  12.767 -0.0201  0.2783  0.0806
64734SOL    HW211813   0.728  14.063  12.751 -0.0556  0.2626 -0.2384
64735SOL     OW11814  11.667  11.669   1.810 -0.5431 -0.2300  0.5355
64735SOL    HW111815  11.699  11.727   1.879 -0.3648 -1.1961  1.2971
64735SOL    HW211816  11.586  11.632   1.846 -0.5944 -0.5339  0.1142
64736SOL     OW11817   8.654   5.035   4.360  0.0710 -0.1629 -0.9006
64736SOL    HW111818   8.601   4.955   4.361 -0.8186  0.4235 -0.5069
64736SOL    HW211819   8.690   5.042   4.448 -1.0036  0.6218 -0.5151
64737SOL     OW11820   1.853   6.673  11.545 -0.0681  0.7363  0.8139
64737SOL    HW111821   1.948   6.679  11.532 -0.0566  0.9354  0.9816
64737SOL    HW211822   1.840   6.590  11.591  0.0407  0.7788  0.9230
64738SOL     OW11823   8.631  10.849   5.820 -0.0607  0.2636  0.2226
64738SOL    HW111824   8.725  10.863   5.809 -0.2142  0.2275 -1.4605
64738SOL    HW211825   8.624  10.775   5.881  1.0704 -1.0222 -1.1254
64739SOL     OW11826   9.502  13.444   7.949  0.1212 -0.7404 -0.1604
64739SOL    HW111827   9.518  13.414   7.860 -2.8843  0.0531 -1.0983
64739SOL    HW211828   9.462  13.531   7.938 -0.8110 -0.8459  1.9070
64740SOL     OW11829  13.851   7.308   0.804 -0.7831 -0.3635 -0.5290
64740SOL    HW111830  13.918   7.358   0.759 -0.6461  0.7483  0.8448
64740SOL    HW211831  13.792   7.279   0.735  0.5334 -0.4784 -1.6363
64741SOL     OW11832   7.983   6.237   4.154 -0.2479 -0.2166  0.2982
64741SOL    HW111833   8.078   6.228   4.160 -0.2635  0.4884  2.5652
64741SOL    HW211834   7.960   6.190   4.074  2.1585  1.0662 -1.2537
64742SOL     OW11835   6.392   1.631   2.945 -0.0679  0.1018 -0.0953
64742SOL    HW111836   6.383   1.547   2.990 -1.0444 -0.4033 -1.1856
64742SOL    HW211837   6.365   1.696   3.011  1.3810 -0.3428  0.9904
64743SOL     OW11838   7.626   0.484   8.160  0.5093  0.4712  0.4254
64743SOL    HW111839   7.622   0.390   8.146  1.6117  0.4593  0.1299
64743SOL    HW211840   7.704   0.497   8.214 -0.0406  1.1491  1.0825
64744SOL     OW11841  10.877   9.713   6.462 -0.1271  0.0379  0.9647
64744SOL    HW111842  10.963   9.702   6.421 -0.2964  1.6984  0.1153
64744SOL    HW211843  10.883   9.796   6.508 -2.2130  1.7970 -1.6490
64745SOL     OW11844   0.367   8.911   7.392 -0.0832 -0.1582  0.0973
64745SOL    HW111845   0.312   8.833   7.379  1.9709 -1.7703  0.5309
64745SOL    HW211846   0.377   8.916   7.487  0.3112  0.2701  0.0327
64746SOL     OW11847   9.074  11.022   4.180  0.3250 -0.0417 -0.3872
64746SOL    HW111848   9.038  11.078   4.248 -0.1713 -0.8167  0.0076
64746SOL    HW211849   9.030  10.938   4.192  0.8747 -0.4522 -1.1116
64747SOL     OW11850   5.572  11.221   5.878 -0.6518  0.2991 -0.1140
64747SOL    HW111851   5.562  11.208   5.784 -2.1163  0.0536  0.0563
64747SOL    HW211852   5.646  11.164   5.902 -0.5401  0.0403 -1.0436
64748SOL     OW11853  11.634   7.087  10.095  0.0653 -0.1467  0.3801
64748SOL    HW111854  11.712   7.087  10.038 -0.2512 -2.1275 -0.1214
64748SOL    HW211855  11.636   7.173  10.137  1.0381  0.8942 -1.6352
64749SOL     OW11856   3.611  13.530   2.529 -0.5218  0.1255 -0.4684
64749SOL    HW111857   3.539  13.509   2.588 -1.4488  0.5188 -1.4299
64749SOL    HW211858   3.586  13.614   2.489 -0.5262 -0.7169 -2.3344
64750SOL     OW11859   9.078   6.413  11.121  0.2601 -0.2615 -0.4827
64750SOL    HW111860   9.038   6.420  11.208  1.4732 -0.4855  0.1184
64750SOL    HW211861   9.137   6.489  11.115  1.0998 -0.9023 -0.6012
64751SOL     OW11862   3.049   7.573   9.203  0.1506 -0.1365  0.3985
64751SOL    HW111863   3.000   7.651   9.230  0.3786 -0.1502  0.8635
64751SOL    HW211864   2.983   7.512   9.171  0.0197  0.4589 -0.4950
64752SOL     OW11865   6.333  13.820  11.543 -0.0558  0.2412  0.0883
64752SOL    HW111866   6.369  13.859  11.464 -1.3782  0.9262 -0.1972
64752SOL    HW211867   6.355  13.727  11.536  0.8572  0.4822 -0.4900
64753SOL     OW11868   9.527   7.927   0.796 -0.3543  0.0984  0.6481
64753SOL    HW111869   9.532   7.968   0.710  0.6245  0.3460  0.8122
64753SOL    HW211870   9.529   7.999   0.858 -0.7293 -0.0967  0.8967
64754SOL     OW11871   3.041   8.302   4.140  0.4318  0.1762  0.1758
64754SOL    HW111872   3.041   8.334   4.230  0.4391  1.0949 -0.1458
64754SOL    HW211873   2.976   8.231   4.140  1.8024 -1.1638  1.3438
64755SOL     OW11874   7.351   6.156   0.749  0.4517 -0.3279 -0.2457
64755SOL    HW111875   7.388   6.105   0.677 -0.4734  0.1286 -1.0714
64755SOL    HW211876   7.261   6.126   0.757 -0.0474  0.9888 -0.5972
64756SOL     OW11877   3.597   5.540   1.092 -0.0691  0.2681 -0.0715
64756SOL    HW111878   3.584   5.497   1.008 -0.4322  1.2309 -0.5125
64756SOL    HW211879   3.675   5.498   1.128  0.7186  0.5909 -1.3602
64757SOL     OW11880  11.015   2.897   8.527 -0.3465 -0.1249 -0.1327
64757SOL    HW111881  11.068   2.818   8.521 -1.2903 -0.7036 -1.1856
64757SOL    HW211882  11.007   2.928   8.437 -1.0966  0.4115  0.1054
64758SOL     OW11883   4.264   7.541   9.074 -0.6379 -0.5106  0.2980
64758SOL    HW111884   4.179   7.553   9.032  0.2192  0.1320 -1.3379
64758SOL    HW211885   4.285   7.449   9.061 -0.0219 -0.1515 -1.4772
64759SOL     OW11886   1.714   7.481   4.118  0.2589  0.3819  0.0914
64759SOL    HW111887   1.774   7.551   4.091 -1.4688  1.5340 -0.9576
64759SOL    HW211888   1.671   7.514   4.197  0.0521  0.1411  0.0812
64760SOL     OW11889   0.110   3.232  13.696  0.1174  0.1102  0.1190
64760SOL    HW111890   0.037   3.280  13.735  1.1978  3.1132 -1.2040
64760SOL    HW211891   0.188   3.270  13.736  1.0525 -0.6118 -0.9483
64761SOL     OW11892  11.202   2.260   4.761 -0.6712  0.1457  0.4016
64761SOL    HW111893  11.179   2.348   4.793  1.6201  0.5984  0.9855
64761SOL    HW211894  11.222   2.211   4.841  0.0745 -0.2711 -0.0360
64762SOL     OW11895  12.828  12.537   0.843  0.6594  0.8171  0.0702
64762SOL    HW111896  12.789  12.624   0.844  1.9647  1.4231  0.0138
64762SOL    HW211897  12.818  12.505   0.932 -0.8827  0.5075 -0.1787
64763SOL     OW11898  12.169   7.791   5.469  0.0314 -0.2003  0.6524
64763SOL    HW111899  12.114   7.866   5.446 -0.3726 -0.7015 -0.0393
64763SOL    HW211900  12.218   7.820   5.546 -0.8947  0.4010  1.0296
64764SOL     OW11901  12.457   7.481   0.196 -0.5230  0.0333  1.0641
64764SOL    HW111902  12.375   7.523   0.222 -0.9642 -0.8199  1.1054
64764SOL    HW211903  12.472   7.510   0.107 -1.8125 -1.1477  0.4166
64765SOL     OW11904  10.860   8.687   2.807  0.4929 -0.4459  0.2366
64765SOL    HW111905  10.857   8.731   2.722 -0.3112  1.2812  1.1146
64765SOL    HW211906  10.934   8.727   2.852  0.7370 -1.1454  0.4679
64766SOL     OW11907   1.883  13.854   8.943 -0.3655 -0.0353 -0.2919
64766SOL    HW111908   1.922  13.817   9.022  0.6522  0.1892 -0.6666
64766SOL    HW211909   1.930  13.811   8.871 -2.1807 -1.2340 -0.8409
64767SOL     OW11910   9.970   6.429  12.317  0.1326 -0.6234 -0.2751
64767SOL    HW111911   9.893   6.404  12.266  0.8533  0.3239 -1.9425
64767SOL    HW211912   9.979   6.361  12.384 -2.6017 -0.3272  0.5120
64768SOL     OW11913   4.276   7.770  10.759 -0.3318 -0.6805  0.5414
64768SOL    HW111914   4.294   7.737  10.670 -1.5201 -0.2234  0.1204
64768SOL    HW211915   4.241   7.694  10.805 -2.3055 -0.2910 -0.1993
64769SOL     OW11916  12.495   5.394   1.366  0.0698 -0.9403 -0.2463
64769SOL    HW111917  12.403   5.422   1.366  0.6871  1.3647  0.9747
64769SOL    HW211918  12.505   5.348   1.450  0.4121  0.3766  0.4594
64770SOL     OW11919   1.614   0.699   9.303 -0.5875 -0.0875  0.2439
64770SOL    HW111920   1.652   0.617   9.334  0.0501  0.3578  0.6906
64770SOL    HW211921   1.645   0.707   9.213 -2.0918 -1.1781 -0.3925
64771SOL     OW11922   8.856   1.443   2.095  0.2496  0.9298 -0.0092
64771SOL    HW111923   8.824   1.513   2.037  1.0367 -0.4474 -2.2346
64771SOL    HW211924   8.945   1.470   2.118 -0.0261  1.4318  0.4865
64772SOL     OW11925  10.201  12.569   9.192  0.2297 -0.3216  0.3310
64772SOL    HW111926  10.205  12.664   9.185 -0.8850 -0.3269 -0.7851
64772SOL    HW211927  10.114  12.546   9.159 -0.6010 -1.5194  3.0572
64773SOL     OW11928   5.260  13.569  11.899 -0.0591 -0.2039 -0.4115
64773SOL    HW111929   5.178  13.572  11.848 -0.9399  2.2301  0.9444
64773SOL    HW211930   5.327  13.547  11.835 -1.1195  2.6216 -2.7456
64774SOL     OW11931  13.247   9.487   3.721 -0.9673 -0.1534  0.2827
64774SOL    HW111932  13.254   9.481   3.816 -1.6174 -1.4468  0.2744
64774SOL    HW211933  13.155   9.468   3.703 -0.8341  0.0165 -0.6008
64775SOL     OW11934   3.358  11.662   0.050 -0.3300  0.0587 -0.3078
64775SOL    HW111935   3.420  11.589   0.057  0.7018  0.9750  0.4963
64775SOL    HW211936   3.317  11.650  -0.035 -1.3831 -2.3651  0.4545
64776SOL     OW11937   2.803   6.770   0.397  0.0509 -0.2700  0.3622
64776SOL    HW111938   2.735   6.827   0.434  0.5248  2.6701 -2.7717
64776SOL    HW211939   2.883   6.798   0.441 -0.1955 -1.2217  1.4753
64777SOL     OW11940  12.144  11.825   2.615 -0.1333 -0.2884  0.3269
64777SOL    HW111941  12.073  11.763   2.599 -0.0189 -0.2100 -0.5017
64777SOL    HW211942  12.212  11.774   2.659  0.5186 -1.0920 -1.5341
64778SOL     OW11943   0.763  11.822  10.286  0.1372 -0.7811 -0.5811
64778SOL    HW111944   0.744  11.904  10.332 -0.3463 -2.6113  2.8271
64778SOL    HW211945   0.710  11.827  10.206  0.3206  2.2745 -0.6163
64779SOL     OW11946   1.954   2.702   5.204  0.2231  0.1023 -0.6863
64779SOL    HW111947   1.901   2.623   5.200  0.6119 -0.1033 -2.0835
64779SOL    HW211948   1.910   2.757   5.269  0.1813 -1.4106  0.6225
64780SOL     OW11949   9.760  11.386  10.011 -0.4864  0.2908  0.1051
64780SOL    HW111950   9.703  11.309  10.004  1.1649 -1.0485  0.6869
64780SOL    HW211951   9.757  11.410  10.103 -1.1699  1.0881 -0.1160
64781SOL     OW11952   0.230   6.562   6.073  0.7271 -0.6419 -0.1293
64781SOL    HW111953   0.244   6.656   6.078  0.9163 -0.6824  0.1218
64781SOL    HW211954   0.292   6.532   6.007  1.8822 -0.8245  0.9941
64782SOL     OW11955   5.625   7.037   0.587  0.4802  0.3972 -0.0241
64782SOL    HW111956   5.569   6.960   0.580  0.0739  0.3876  2.5167
64782SOL    HW211957   5.714   7.003   0.575  0.1183  0.1728 -2.5282
64783SOL     OW11958   7.527   9.002   0.823  0.6901  0.5361  0.4832
64783SOL    HW111959   7.535   9.026   0.915 -0.6363 -0.8876  1.0053
64783SOL    HW211960   7.433   8.989   0.810  0.8870  0.4623 -1.0175
64784SOL     OW11961  10.529   3.051  11.165 -0.0714  0.3189  0.0705
64784SOL    HW111962  10.447   3.085  11.129 -0.2118 -0.2881 -0.1839
64784SOL    HW211963  10.557   2.985  11.102  0.4833  0.3374  0.2901
64785SOL     OW11964   1.511   2.705   6.140  0.1586 -0.7307  0.0955
64785SOL    HW111965   1.516   2.801   6.135  2.1034 -0.7915  0.4554
64785SOL    HW211966   1.537   2.684   6.230  0.4629 -1.6391 -0.1947
64786SOL     OW11967   1.633   1.898   1.621 -0.0407  0.5033  0.2026
64786SOL    HW111968   1.567   1.965   1.603  1.5205  2.6729  1.9297
64786SOL    HW211969   1.626   1.837   1.547 -2.2933  1.9471 -0.9039
64787SOL     OW11970   2.460   2.282   5.507  0.1487  0.0124 -0.7460
64787SOL    HW111971   2.387   2.246   5.557  0.2831 -0.8740 -1.1773
64787SOL    HW211972   2.534   2.283   5.567 -0.1971  0.9052 -0.3092
64788SOL     OW11973   8.413   6.653   7.266 -0.2804 -0.5396 -0.6252
64788SOL    HW111974   8.401   6.702   7.347  0.5859 -0.7770 -0.3436
64788SOL    HW211975   8.327   6.654   7.224 -0.3967  0.7774 -0.3857
64789SOL     OW11976   9.457   4.111  10.157 -0.4674  0.5473  0.0632
64789SOL    HW111977   9.501   4.196  10.152 -1.8501  1.3381  0.8454
64789SOL    HW211978   9.465   4.085  10.249  0.5945 -0.5630 -0.3081
64790SOL     OW11979  12.755   6.143   8.683  0.7176  0.2416  0.2078
64790SOL    HW111980  12.782   6.227   8.720  0.3052 -0.0600  1.2061
64790SOL    HW211981  12.776   6.079   8.750  3.1673 -0.8180 -1.3920
64791SOL     OW11982   6.955   7.681   4.683  0.2348  0.1619  0.0071
64791SOL    HW111983   7.047   7.701   4.663 -0.6134  3.2003 -1.4953
64791SOL    HW211984   6.917   7.659   4.598 -0.6833  0.1419  0.4174
64792SOL     OW11985  12.688   7.233   8.256  0.0532  0.4291  0.7476
64792SOL    HW111986  12.643   7.238   8.341 -0.0369 -2.0438  0.9194
64792SOL    HW211987  12.705   7.139   8.244  1.4668  0.8888 -1.2576
64793SOL     OW11988  12.808  12.823   3.624 -0.3976 -0.2282  1.2255
64793SOL    HW111989  12.849  12.784   3.700 -0.8203  1.1299  2.1766
64793SOL    HW211990  12.854  12.906   3.610 -0.0111 -0.6702 -0.2925
64794SOL     OW11991  13.883   1.458  10.475  0.5390 -0.7010  0.7373
64794SOL    HW111992  13.809   1.513  10.448  0.6801 -1.5499 -1.6000
64794SOL    HW211993  13.843   1.374  10.498  0.6428 -0.6519  1.1104
64795SOL     OW11994   8.943  12.059   9.449  0.1025 -0.0617 -0.4200
64795SOL    HW111995   9.013  12.035   9.511 -0.6632 -0.7401  0.2008
64795SOL    HW211996   8.912  11.976   9.415 -0.1373  0.2614 -1.0025
64796SOL     OW11997  11.613  12.518  10.945  0.1870 -0.0869 -0.3550
64796SOL    HW111998  11.588  12.510  10.853  1.4773  1.8463 -0.9447
64796SOL    HW211999  11.533  12.543  10.990 -0.6724 -1.9701 -0.7459
64797SOL     OW12000  10.026   2.214   5.310 -0.0064  0.4554  0.4162
64797SOL    HW112001  10.015   2.199   5.404  1.5285  0.1795  0.5914
64797SOL    HW212002  10.107   2.166   5.289  0.2302  1.3736 -0.8247
64798SOL     OW12003   8.868   0.581  12.234  0.2235 -0.8275  0.5352
64798SOL    HW112004   8.773   0.570  12.241  0.2844 -0.5390  2.1941
64798SOL    HW212005   8.903   0.497  12.265  0.5190 -1.1243 -0.5689
64799SOL     OW12006   1.468  13.432   5.896 -0.1642  0.1859  0.1823
64799SOL    HW112007   1.481  13.487   5.819  2.7141 -0.9045 -0.2216
64799SOL    HW212008   1.417  13.357   5.864 -0.6346  0.6568 -0.1927
64800SOL     OW12009   1.421   8.184  12.314  0.2951  0.4182 -0.0233
64800SOL    HW112010   1.391   8.178  12.224  0.5947 -3.0709 -0.0244
64800SOL    HW212011   1.503   8.234  12.309  0.3362  0.2254 -1.6903
64801SOL     OW12012   7.735   3.882   1.313  0.1436 -0.5855  0.0963
64801SOL    HW112013   7.809   3.832   1.279 -1.5092 -1.0171 -3.3197
64801SOL    HW212014   7.679   3.818   1.355  0.6913 -0.6158  0.7874
64802SOL     OW12015   6.873   1.467  12.457  0.3118 -0.2553  0.2206
64802SOL    HW112016   6.793   1.507  12.489 -0.3558  0.3990 -2.0445
64802SOL    HW212017   6.939   1.536  12.462  0.1391 -0.0680 -0.0691
64803SOL     OW12018   1.719   5.768   3.893  0.0463  0.5091 -0.0785
64803SOL    HW112019   1.682   5.770   3.981 -0.3433 -0.0267 -0.2281
64803SOL    HW212020   1.672   5.698   3.848 -1.2234  2.0856 -1.3662
64804SOL     OW12021   4.015   5.071   4.279 -0.4302  0.2208  0.3794
64804SOL    HW112022   4.048   5.024   4.203  0.6437  1.6338 -0.0638
64804SOL    HW212023   3.959   5.007   4.324  0.5423 -1.2871 -0.4613
64805SOL     OW12024   7.537   1.377   2.631 -0.2894  0.0917  0.8032
64805SOL    HW112025   7.632   1.366   2.630 -0.0945  1.5690  0.1342
64805SOL    HW212026   7.507   1.340   2.548 -0.0663  1.1843  0.2122
64806SOL     OW12027   9.124   8.495   7.180  0.0978 -0.0426 -0.2697
64806SOL    HW112028   9.209   8.483   7.139  1.1460  0.3481  1.6980
64806SOL    HW212029   9.118   8.589   7.197 -1.3003  0.1334 -1.4822
64807SOL     OW12030  12.061  11.454   8.152 -0.1752 -0.7051  0.3615
64807SOL    HW112031  12.114  11.448   8.073  0.4500 -1.5829  0.8274
64807SOL    HW212032  12.018  11.540   8.146  0.0916 -0.6380 -0.7704
64808SOL     OW12033   3.845   1.725  10.625 -0.5942 -0.7953 -0.0259
64808SOL    HW112034   3.787   1.693  10.695 -0.7342 -0.9907 -0.2298
64808SOL    HW212035   3.933   1.704  10.656 -0.4753  1.2016  1.1725
64809SOL     OW12036   2.520   4.696   4.913  0.2706 -0.4714 -0.0895
64809SOL    HW112037   2.597   4.749   4.894  1.0517 -0.9490  1.5167
64809SOL    HW212038   2.498   4.718   5.003 -0.4487 -1.5712  0.0265
64810SOL     OW12039   3.665   3.881   5.152  0.0516 -0.5557 -0.2892
64810SOL    HW112040   3.629   3.969   5.161 -0.3169 -0.7676  0.3408
64810SOL    HW212041   3.607   3.825   5.204 -0.0989 -1.2749 -1.1955
64811SOL     OW12042   0.564   0.100   4.441 -0.0415 -0.1269  1.0507
64811SOL    HW112043   0.501   0.146   4.496 -0.2138 -2.8456  3.3713
64811SOL    HW212044   0.511   0.038   4.390  0.4215  0.3316 -0.0332
64812SOL     OW12045  13.676   1.149  11.587  0.6087 -0.4082  0.4538
64812SOL    HW112046  13.589   1.188  11.578 -0.0686 -1.9843 -0.1834
64812SOL    HW212047  13.729   1.195  11.521  0.2637  0.5060  0.7896
64813SOL     OW12048   0.113   2.986  13.577 -0.1646 -0.6384 -0.9059
64813SOL    HW112049   0.147   3.065  13.618  1.1324 -1.0964 -1.0370
64813SOL    HW212050   0.083   2.932  13.651 -0.6217 -0.2245 -0.7852
64814SOL     OW12051   4.400  10.952  10.516 -0.0106 -0.2109 -0.0143
64814SOL    HW112052   4.416  11.026  10.574 -1.9551 -0.0612  0.4211
64814SOL    HW212053   4.375  10.881  10.575  1.3677 -1.0896 -0.4585
64815SOL     OW12054   7.961  10.788   8.163  0.1410 -0.1470 -0.0331
64815SOL    HW112055   7.902  10.713   8.157 -0.8416  0.7092 -1.7526
64815SOL    HW212056   7.904  10.862   8.179  1.1503  0.2386  2.2170
64816SOL     OW12057   6.209  13.403   2.773  0.2518  0.5713 -0.3260
64816SOL    HW112058   6.177  13.436   2.689  2.4906  0.1181 -1.4261
64816SOL    HW212059   6.187  13.310   2.771 -1.1267  0.8444  0.3597
64817SOL     OW12060   8.503  10.505   0.431  0.1602 -0.1076  0.2068
64817SOL    HW112061   8.466  10.515   0.343 -0.2542  1.2801  0.5133
64817SOL    HW212062   8.555  10.425   0.426 -0.6845 -0.6107 -1.0102
64818SOL     OW12063   2.347  12.184   4.157  0.1441  0.2197  0.1262
64818SOL    HW112064   2.326  12.127   4.083  1.0941  0.4607 -0.3390
64818SOL    HW212065   2.263  12.219   4.185 -0.1641  0.5453 -1.1780
64819SOL     OW12066  11.629   5.206   7.292 -0.3895  0.0343 -0.0645
64819SOL    HW112067  11.723   5.187   7.286 -0.4181 -0.7758  1.5163
64819SOL    HW212068  11.587   5.120   7.292 -1.2931  0.4104 -2.3033
64820SOL     OW12069  10.210   9.091   5.792 -0.4060  0.2241 -0.2507
64820SOL    HW112070  10.164   9.052   5.717  1.1012 -0.6305 -0.7692
64820SOL    HW212071  10.294   9.045   5.795  0.5356  1.9070  0.4986
64821SOL     OW12072   0.500  13.810  11.760  0.3097 -0.2174 -1.0527
64821SOL    HW112073   0.562  13.883  11.760  0.5241 -0.2614  2.2075
64821SOL    HW212074   0.417  13.849  11.790  0.9999 -1.4997  3.2015
64822SOL     OW12075   3.622   9.213  12.024 -0.2744 -0.9044  0.2710
64822SOL    HW112076   3.648   9.294  12.070 -0.8978  0.5133 -1.7325
64822SOL    HW212077   3.557   9.173  12.082 -0.5122  0.4344  0.9884
64823SOL     OW12078   6.914   8.846  13.816 -0.2050 -0.2021  0.3747
64823SOL    HW112079   6.876   8.885  13.894 -0.6918  0.5741 -0.2402
64823SOL    HW212080   6.947   8.761  13.845  0.2927  0.3871  1.5881
64824SOL     OW12081  14.014  12.074  10.187 -0.0526 -0.2196 -0.4555
64824SOL    HW112082  14.057  12.019  10.252 -1.6930 -2.0709 -0.8708
64824SOL    HW212083  14.004  12.159  10.230 -2.1510 -1.6871  2.2081
64825SOL     OW12084   0.886   5.044   5.147  0.1070  0.2824  0.3255
64825SOL    HW112085   0.926   5.041   5.061 -0.3357  2.2758  0.0071
64825SOL    HW212086   0.916   5.127   5.185  0.5675 -0.6966  2.2417
64826SOL     OW12087   9.404   3.587   3.946 -0.5551 -0.0574  0.1733
64826SOL    HW112088   9.432   3.507   3.902 -0.9955  0.3894 -0.9568
64826SOL    HW212089   9.312   3.597   3.923  0.1987  2.4119 -2.4143
64827SOL     OW12090   8.920   7.719  10.560 -0.0816  0.3463  0.3610
64827SOL    HW112091   8.862   7.772  10.505 -0.2619  1.0409  1.1965
64827SOL    HW212092   8.945   7.645  10.504 -0.6079  0.7988 -0.4997
64828SOL     OW12093   2.905   1.222   8.431 -0.3959 -0.2498 -0.4906
64828SOL    HW112094   2.825   1.180   8.462 -0.5252 -1.9043 -2.8000
64828SOL    HW212095   2.894   1.314   8.453 -2.7626 -0.4983 -0.3988
64829SOL     OW12096   6.282  11.927   4.281 -0.8631 -0.2491 -0.2155
64829SOL    HW112097   6.241  11.982   4.214  0.2343 -0.4353 -1.0605
64829SOL    HW212098   6.209  11.877   4.319 -1.8027  1.3389  0.1787
64830SOL     OW12099   3.238   7.599   4.494  0.1904 -0.3597 -0.3522
64830SOL    HW112100   3.190   7.606   4.577  0.8502  2.4193 -0.1117
64830SOL    HW212101   3.171   7.606   4.427 -0.0707  0.6852 -0.0118
64831SOL     OW12102  14.057   3.759  10.977  0.8471 -0.0682 -0.0016
64831SOL    HW112103  14.030   3.691  11.038  0.0760  0.8747  0.7378
64831SOL    HW212104  14.088   3.831  11.033  0.1617  0.7973 -0.6900
64832SOL     OW12105   2.784  12.740   4.791 -0.6845  0.0178  0.0039
64832SOL    HW112106   2.815  12.819   4.836 -1.4365  0.2350  0.1568
64832SOL    HW212107   2.777  12.674   4.859  0.4415 -0.3412 -0.2120
64833SOL     OW12108  12.352   0.360   5.889  0.2635 -0.1505  0.0471
64833SOL    HW112109  12.369   0.362   5.795  1.2782  0.2438  0.2351
64833SOL    HW212110  12.256   0.362   5.895  0.1878  0.7429 -0.9640
64834SOL     OW12111  10.974   3.677   0.084  0.0974 -0.0735 -0.7574
64834SOL    HW112112  10.979   3.718  -0.002  3.2108  2.6695  0.4860
64834SOL    HW212113  11.061   3.638   0.096 -1.0457 -2.4654  0.2863
64835SOL     OW12114   5.620  11.164   3.421  0.1174 -0.5132 -0.3034
64835SOL    HW112115   5.582  11.239   3.467 -0.1112 -0.9930  0.3140
64835SOL    HW212116   5.629  11.193   3.331  0.5570  0.4532  0.0332
64836SOL     OW12117  10.827   8.211   0.138 -0.6028 -0.1942 -0.6750
64836SOL    HW112118  10.749   8.212   0.193 -1.0044  3.7974 -0.9829
64836SOL    HW212119  10.898   8.233   0.198 -0.8500  2.8317 -1.3011
64837SOL     OW12120  12.640  10.174   4.168  0.5231  0.1447 -0.5250
64837SOL    HW112121  12.579  10.231   4.120 -0.4072 -1.5511 -1.4436
64837SOL    HW212122  12.680  10.119   4.101  1.3278 -0.3572  0.3467
64838SOL     OW12123  14.036   6.828   9.452  0.0839  0.3051  0.4726
64838SOL    HW112124  14.011   6.917   9.427 -2.0810 -0.4487 -0.2635
64838SOL    HW212125  13.958   6.792   9.494  0.9142 -1.2668  0.7429
64839SOL     OW12126   9.866  10.352   2.074 -0.0016  0.2059  0.1755
64839SOL    HW112127   9.778  10.384   2.052 -0.5021 -0.5461  1.0196
64839SOL    HW212128   9.877  10.373   2.167 -0.1985 -1.6682  0.6620
64840SOL     OW12129   5.036   0.217   4.995 -0.0321 -0.0812  0.3937
64840SOL    HW112130   5.089   0.178   5.064 -0.9590 -0.3275  0.9718
64840SOL    HW212131   4.947   0.187   5.012 -0.2571 -0.2773 -1.0030
64841SOL     OW12132   1.893  11.269   9.193 -0.1886 -0.4760 -0.2595
64841SOL    HW112133   1.969  11.215   9.170 -0.3273 -1.2856  1.0958
64841SOL    HW212134   1.894  11.339   9.128  1.0208 -1.1298 -0.9981
64842SOL     OW12135   0.884   4.475   4.288  0.0782 -0.0529  0.0060
64842SOL    HW112136   0.793   4.496   4.264  0.3156  0.2217 -0.6792
64842SOL    HW212137   0.878   4.389   4.330 -0.7672  0.8670  1.8509
64843SOL     OW12138  11.555   4.290   7.221 -0.5490  1.0369 -0.4317
64843SOL    HW112139  11.589   4.244   7.298 -0.4716  1.5409 -0.1603
64843SOL    HW212140  11.483   4.343   7.254 -0.4624  1.3202 -0.6933
64844SOL     OW12141   6.121  13.807   0.164  0.1506 -0.2107 -0.0345
64844SOL    HW112142   6.117  13.895   0.126  1.9633 -0.3821 -0.7264
64844SOL    HW212143   6.178  13.816   0.241  0.7355 -0.8510 -0.3785
64845SOL     OW12144   6.443  12.452   6.697 -0.1103  0.0588  0.2242
64845SOL    HW112145   6.468  12.496   6.778 -0.0261 -0.4837  0.4932
64845SOL    HW212146   6.499  12.492   6.630  0.6328 -0.3082  0.6212
64846SOL     OW12147  13.165   9.995   0.392  0.2315 -0.0942 -0.0908
64846SOL    HW112148  13.235  10.060   0.376  0.5209 -0.3182  0.2635
64846SOL    HW212149  13.152   9.954   0.306  0.7513 -0.2647 -0.0925
64847SOL     OW12150   2.853  13.085   6.875 -0.0617  0.0287  0.2804
64847SOL    HW112151   2.814  13.001   6.901  2.0015 -1.1093  0.0097
64847SOL    HW212152   2.897  13.116   6.954 -3.1083  2.3916  1.2189
64848SOL     OW12153   8.645  12.948   0.346 -0.3307  0.1724  0.4351
64848SOL    HW112154   8.629  13.036   0.312 -0.1673 -0.5597 -1.6404
64848SOL    HW212155   8.727  12.955   0.395  1.4372  0.5927 -2.3490
64849SOL     OW12156   9.795  12.902  12.241 -0.0272 -0.6461 -0.0088
64849SOL    HW112157   9.804  12.980  12.187  0.1699 -0.9626 -0.4374
64849SOL    HW212158   9.703  12.900  12.266 -0.2172 -0.7556 -0.7210
64850SOL     OW12159   7.341   2.514   1.901  0.5225  0.0493  0.5761
64850SOL    HW112160   7.427   2.535   1.864  0.9786 -1.9252  0.3671
64850SOL    HW212161   7.360   2.447   1.967 -0.9199 -1.1987 -0.2074
64851SOL     OW12162   4.285  13.726   8.956 -0.4117 -0.1904  0.1909
64851SOL    HW112163   4.322  13.812   8.935 -0.5873 -0.3387 -0.7798
64851SOL    HW212164   4.322  13.704   9.041 -0.6964  1.0330  0.6490
64852SOL     OW12165   7.273   5.839  12.592  0.3671  0.0316 -0.1892
64852SOL    HW112166   7.365   5.865  12.599  0.3238  0.4220 -1.0086
64852SOL    HW212167   7.256   5.833  12.498 -1.0988  2.3697 -0.1536
64853SOL     OW12168   4.947  10.609  13.389  0.1886 -0.6753 -0.0027
64853SOL    HW112169   5.037  10.607  13.422  0.3386  0.4701 -0.2865
64853SOL    HW212170   4.957  10.613  13.294 -0.1607 -0.6545 -0.0373
64854SOL     OW12171   8.572  11.977   7.522 -0.3555  0.0215 -0.5636
64854SOL    HW112172   8.596  12.053   7.469 -1.8165  0.4018 -0.7113
64854SOL    HW212173   8.617  11.904   7.481  1.0897  0.7795 -0.4161
64855SOL     OW12174   6.348   4.233   5.879  0.6385  0.4845 -0.4057
64855SOL    HW112175   6.365   4.154   5.930  0.3550  1.1162  0.7308
64855SOL    HW212176   6.274   4.210   5.823 -0.7663  0.4786  1.3317
64856SOL     OW12177   5.425   0.789  12.108  0.4749 -0.0786 -0.5862
64856SOL    HW112178   5.493   0.778  12.175 -1.4864 -1.7040  1.2766
64856SOL    HW212179   5.414   0.702  12.071 -1.6689 -0.2207  0.2906
64857SOL     OW12180  12.916   6.511  10.821 -0.0494 -0.2058 -0.0276
64857SOL    HW112181  12.911   6.606  10.813 -0.2267 -0.2561 -0.5495
64857SOL    HW212182  12.909   6.494  10.915 -4.2773  0.0715 -0.1264
64858SOL     OW12183  12.212   0.057  10.791 -0.5258 -0.4478  0.3062
64858SOL    HW112184  12.121   0.030  10.780 -1.1295  0.9615  1.5037
64858SOL    HW212185  12.251   0.048  10.704 -1.3192 -2.6915  0.1129
64859SOL     OW12186   7.728   3.291   6.367  0.2439 -0.0859 -0.0660
64859SOL    HW112187   7.687   3.266   6.284 -3.7745 -1.9695  2.1835
64859SOL    HW212188   7.725   3.387   6.368 -0.9221 -0.0815 -1.5102
64860SOL     OW12189   2.241   6.310   6.728 -0.1830 -0.3274  0.2732
64860SOL    HW112190   2.282   6.348   6.806 -0.9402  0.4851  0.2957
64860SOL    HW212191   2.308   6.313   6.661  0.0994  0.0774  0.5690
64861SOL     OW12192  12.083   0.412   0.034  0.1259 -1.0055  0.4768
64861SOL    HW112193  11.992   0.424   0.062 -0.1534  1.3482 -1.1195
64861SOL    HW212194  12.078   0.355  -0.042 -0.1295 -0.2237 -0.1004
64862SOL     OW12195   4.898   6.255   0.585  0.1995 -0.1109  0.1851
64862SOL    HW112196   4.895   6.350   0.581  0.6507 -0.0238  1.3120
64862SOL    HW212197   4.807   6.228   0.597 -0.0527  0.0965 -1.1484
64863SOL     OW12198   6.109  11.527   1.334  0.0896 -0.7228  0.4066
64863SOL    HW112199   6.177  11.479   1.286  0.1068 -0.6902  0.3977
64863SOL    HW212200   6.027  11.491   1.301  0.0741  0.0407 -0.4284
64864SOL     OW12201  11.205   2.488  11.038 -0.0048  0.2165 -0.0772
64864SOL    HW112202  11.279   2.427  11.045  0.2146  0.6027  1.5145
64864SOL    HW212203  11.200   2.528  11.125 -0.9927  1.4797 -0.6908
64865SOL     OW12204   1.491   3.626   4.710  0.3493 -0.3705  0.2645
64865SOL    HW112205   1.414   3.671   4.675  2.0689  2.5096 -0.1507
64865SOL    HW212206   1.557   3.636   4.641  1.0248 -3.1992  0.3976
64866SOL     OW12207   2.221   5.779  13.509  0.2319 -0.5873  0.8007
64866SOL    HW112208   2.179   5.767  13.594  0.0148 -1.1619  0.6151
64866SOL    HW212209   2.159   5.835  13.461  0.6987  0.3576  1.2605
64867SOL     OW12210   0.254   5.743   1.030  0.0088  0.1139 -0.4971
64867SOL    HW112211   0.304   5.684   0.974 -0.2581 -0.8518  0.2515
64867SOL    HW212212   0.319   5.807   1.061  0.5477 -0.4368 -0.4589
64868SOL     OW12213  13.221  12.774   2.405  0.6047 -0.1580 -0.0168
64868SOL    HW112214  13.204  12.821   2.486  1.3325 -0.3383  0.2477
64868SOL    HW212215  13.167  12.695   2.411  2.1511 -1.1784  1.2237
64869SOL     OW12216   8.488  12.259   5.843  0.0715  0.2581  0.1392
64869SOL    HW112217   8.463  12.176   5.802  1.4410 -0.8889  1.5371
64869SOL    HW212218   8.412  12.283   5.896 -0.2852 -0.1501 -0.1765
64870SOL     OW12219   4.781   4.795  12.475  0.0611 -0.6053  0.2015
64870SOL    HW112220   4.781   4.724  12.410  0.1061 -1.5237  1.1846
64870SOL    HW212221   4.832   4.865  12.434  1.4906 -1.7877 -0.1057
64871SOL     OW12222   9.641   2.970   8.561 -0.2382 -0.0425 -0.4493
64871SOL    HW112223   9.568   2.943   8.505  1.5311 -1.4396 -2.2059
64871SOL    HW212224   9.684   3.039   8.511  0.2860  0.0031  0.0605
64872SOL     OW12225  10.161   9.137   8.822  0.5103 -0.1396  0.2974
64872SOL    HW112226  10.073   9.137   8.860  0.6488 -1.6933  0.7058
64872SOL    HW212227  10.215   9.183   8.885  0.2535 -0.4110  0.7179
64873SOL     OW12228   2.561  12.197   9.007 -0.0332 -1.3255 -0.9341
64873SOL    HW112229   2.549  12.104   8.987  0.4657 -1.8047  0.7692
64873SOL    HW212230   2.645  12.201   9.053 -0.3090 -0.1226 -0.4876
64874SOL     OW12231   5.131   4.487   6.800 -0.0109  0.1547 -0.3897
64874SOL    HW112232   5.155   4.432   6.875 -2.6294 -1.0713 -0.3420
64874SOL    HW212233   5.128   4.576   6.836  1.2015 -0.0620  0.3161
64875SOL     OW12234   0.319   0.298  11.162 -0.7709  0.4557 -0.3229
64875SOL    HW112235   0.401   0.342  11.182 -0.0838 -1.1334  0.4410
64875SOL    HW212236   0.254   0.340  11.219 -0.6392  2.0610 -1.2872
64876SOL     OW12237  10.591  10.651   3.860 -0.2013 -0.0066  0.3296
64876SOL    HW112238  10.617  10.604   3.781 -0.0954  0.5079  0.0576
64876SOL    HW212239  10.495  10.649   3.859 -0.1983 -0.9934  0.7894
64877SOL     OW12240   9.082  13.772   8.710  0.0821  0.6012  0.0613
64877SOL    HW112241   9.121  13.859   8.717 -0.3204  0.6943  1.3122
64877SOL    HW212242   8.989  13.786   8.726  0.0396 -0.0874  0.4300
64878SOL     OW12243   1.801   1.220   7.743 -0.2842 -0.0793 -0.1574
64878SOL    HW112244   1.881   1.167   7.743 -0.4474 -0.3869  1.6444
64878SOL    HW212245   1.833   1.310   7.738  0.1360 -0.2301 -0.2638
64879SOL     OW12246  13.217   1.256   5.506 -0.1967  0.4227  0.5362
64879SOL    HW112247  13.222   1.250   5.410  0.0695 -0.8331  0.6165
64879SOL    HW212248  13.262   1.177   5.537 -1.3907  0.1732  1.6783
64880SOL     OW12249   6.515   3.273   1.020 -0.4773  0.3778  0.0682
64880SOL    HW112250   6.453   3.201   1.009 -0.9672  0.8404 -0.2620
64880SOL    HW212251   6.467   3.337   1.074  0.9022 -0.6752  2.7462
64881SOL     OW12252   3.073   1.847  13.251  0.4354  0.5901  0.1071
64881SOL    HW112253   2.989   1.883  13.280  0.2154 -0.8222  1.3876
64881SOL    HW212254   3.137   1.884  13.312  0.6249  1.0083 -0.3430
64882SOL     OW12255  10.322   1.576   5.160 -0.6775  0.5065 -0.0795
64882SOL    HW112256  10.413   1.554   5.138  0.2520  1.9123  2.0302
64882SOL    HW212257  10.304   1.526   5.240 -0.9456  1.9029  0.7628
64883SOL     OW12258   4.585  12.500   0.942  0.6493  0.0080 -0.5817
64883SOL    HW112259   4.625  12.556   0.875  1.6756  0.9405  0.7548
64883SOL    HW212260   4.491  12.513   0.931  0.8185  0.5886 -1.4535
64884SOL     OW12261   7.150   3.473  11.194  0.1562 -0.4487 -0.7263
64884SOL    HW112262   7.180   3.510  11.277  0.1764 -0.6652 -0.6349
64884SOL    HW212263   7.169   3.541  11.129  0.9608 -0.6215 -0.6905
64885SOL     OW12264  11.572   1.340  12.919 -0.2895  0.4412 -0.2266
64885SOL    HW112265  11.589   1.434  12.922  1.0051  0.2160  1.5836
64885SOL    HW212266  11.541   1.319  13.007 -0.1522 -0.8891 -0.4808
64886SOL     OW12267   1.181  11.788   9.890 -0.2792 -0.4499 -0.0838
64886SOL    HW112268   1.269  11.794   9.927 -0.1284 -2.5451  0.0054
64886SOL    HW212269   1.125  11.763   9.964 -1.1754  1.8506  0.0845
64887SOL     OW12270   1.623   1.456   5.660 -0.1421 -0.2637 -0.5599
64887SOL    HW112271   1.665   1.493   5.738 -0.4498 -0.2387 -0.4061
64887SOL    HW212272   1.533   1.488   5.663 -0.9589 -2.4164  0.5556
64888SOL     OW12273  12.510  12.070  12.817  0.3782  0.5007 -0.2022
64888SOL    HW112274  12.577  12.060  12.884  1.2601  1.4460 -0.9118
64888SOL    HW212275  12.558  12.080  12.735 -0.6168  1.2658 -0.7236
64889SOL     OW12276  12.125   7.733  11.988  0.0822  0.2061 -0.1082
64889SOL    HW112277  12.092   7.803  12.045 -0.4078 -0.0480 -0.0780
64889SOL    HW212278  12.056   7.721  11.922  0.1679 -0.2518 -0.1133
64890SOL     OW12279   4.833   7.108   5.679 -0.5220 -0.1878 -0.2052
64890SOL    HW112280   4.839   7.192   5.635  2.4896 -0.8204 -1.2323
64890SOL    HW212281   4.760   7.063   5.637 -0.2259  0.7683 -1.7978
64891SOL     OW12282  13.232   5.666   8.968  0.1677 -0.1747 -0.2623
64891SOL    HW112283  13.170   5.627   8.907 -2.2834 -0.5757  2.2267
64891SOL    HW212284  13.226   5.760   8.952 -2.4330 -0.0459  0.9069
64892SOL     OW12285   9.422  12.823   4.425 -0.5294 -0.0482 -0.1715
64892SOL    HW112286   9.352  12.779   4.474 -1.0552 -1.1639 -1.8594
64892SOL    HW212287   9.389  12.829   4.336  1.2562  0.0120 -0.8739
64893SOL     OW12288   4.378   5.090   7.392  1.1640 -0.1527  0.6730
64893SOL    HW112289   4.294   5.046   7.377  1.6679 -1.7819  2.2547
64893SOL    HW212290   4.365   5.178   7.358 -0.9526 -0.5670  0.2397
64894SOL     OW12291   1.046   6.373   1.836 -0.1480 -0.6886  0.0898
64894SOL    HW112292   1.068   6.428   1.761 -1.5606 -0.5036 -0.2129
64894SOL    HW212293   0.997   6.430   1.895  0.3710 -1.0104  0.8449
64895SOL     OW12294  10.001   9.676  12.310 -0.2860 -0.4338  0.1277
64895SOL    HW112295   9.977   9.584  12.295  1.6575 -0.8223 -0.9322
64895SOL    HW212296  10.011   9.713  12.223  0.3976  0.3758  0.5362
64896SOL     OW12297   5.442   4.530   4.014 -0.0970 -0.1406 -0.3200
64896SOL    HW112298   5.353   4.504   3.992  0.2242 -2.5028  0.8307
64896SOL    HW212299   5.482   4.555   3.931 -1.6455  0.3622 -0.9339
64897SOL     OW12300   0.819   8.199  13.596  0.2553 -0.1903 -0.2986
64897SOL    HW112301   0.824   8.257  13.672 -0.7219 -0.5713  0.0721
64897SOL    HW212302   0.736   8.222  13.554  1.3241  0.8628 -1.9690
64898SOL     OW12303  13.588   8.874   2.800  0.2816 -0.1301  0.4215
64898SOL    HW112304  13.590   8.963   2.766  1.4003 -0.6366 -0.9259
64898SOL    HW212305  13.501   8.866   2.840 -0.3488  1.1355 -0.6092
64899SOL     OW12306   6.329  13.446  10.114 -0.4159  0.2452  0.6807
64899SOL    HW112307   6.366  13.371  10.067  1.9127  0.3801  2.1728
64899SOL    HW212308   6.254  13.410  10.161  0.5546 -1.1554  1.2272
64900SOL     OW12309   1.370   5.930   7.907 -0.5498 -0.1999 -0.0641
64900SOL    HW112310   1.302   5.875   7.945 -0.5174 -0.6321 -0.6324
64900SOL    HW212311   1.414   5.875   7.843 -0.3498  0.4019 -0.4593
64901SOL     OW12312   6.723   3.155   1.429 -0.8508 -0.1753 -0.1901
64901SOL    HW112313   6.738   3.115   1.515 -0.8927  0.0815 -0.0619
64901SOL    HW212314   6.647   3.109   1.394 -0.6924 -0.4398 -0.1895
64902SOL     OW12315   7.889   4.099   1.415 -0.3437 -0.9398  0.2180
64902SOL    HW112316   7.853   4.027   1.362 -1.1262 -1.7022  1.7360
64902SOL    HW212317   7.905   4.060   1.501 -0.4395  0.6267  0.9736
64903SOL     OW12318   5.939  13.987   2.405  0.4872 -0.6439 -0.0758
64903SOL    HW112319   6.003  14.036   2.456  0.0150 -1.5435  1.4401
64903SOL    HW212320   5.855  14.027   2.426  0.4102 -0.1533 -1.2315
64904SOL     OW12321   3.363   9.883  11.636 -0.0063  0.6767 -0.1957
64904SOL    HW112322   3.355   9.944  11.563  0.5386  1.1816  0.1590
64904SOL    HW212323   3.329   9.801  11.602 -1.0007  1.2350 -0.6031
64905SOL     OW12324   2.710  13.586   8.149 -0.1412 -0.4327 -0.3469
64905SOL    HW112325   2.635  13.572   8.207 -0.2931 -0.1794 -0.4801
64905SOL    HW212326   2.704  13.517   8.083 -0.3837 -0.2777 -0.4871
64906SOL     OW12327   8.206  10.124   9.161 -0.0841  0.0350  0.5495
64906SOL    HW112328   8.253  10.106   9.080  1.0227  0.9028  0.9710
64906SOL    HW212329   8.123  10.077   9.152  0.3201 -0.4615 -0.7700
64907SOL     OW12330   6.535   1.266  12.675  0.3569 -0.5449 -0.5288
64907SOL    HW112331   6.587   1.314  12.740 -1.1224  0.0575  0.2641
64907SOL    HW212332   6.506   1.332  12.614  0.6649 -0.9122 -1.0823
64908SOL     OW12333  13.657   2.991   4.954  0.4984  0.2790 -0.0894
64908SOL    HW112334  13.638   2.902   4.986  1.6570  0.1634  0.3266
64908SOL    HW212335  13.572   3.034   4.954 -0.4469 -1.3922 -2.1755
64909SOL     OW12336  13.876   9.648   0.959  0.3695  0.1501  0.1932
64909SOL    HW112337  13.878   9.693   0.875 -1.6767 -0.2452 -0.1134
64909SOL    HW212338  13.878   9.555   0.936  0.7296  0.0442  0.6345
64910SOL     OW12339   4.369   3.585   6.314 -0.4300  0.3061  0.1219
64910SOL    HW112340   4.413   3.549   6.391 -0.1288  0.8290  0.1932
64910SOL    HW212341   4.398   3.676   6.309 -3.4381  1.4894  1.6595
64911SOL     OW12342   3.992   7.987   6.693  0.0801 -0.0842 -0.0437
64911SOL    HW112343   3.966   8.077   6.675 -1.4081  0.2991  3.2382
64911SOL    HW212344   3.910   7.940   6.706  0.8636 -1.2379  0.9546
64912SOL     OW12345   4.086   7.310  12.488 -0.3500 -0.5246 -0.9461
64912SOL    HW112346   4.056   7.348  12.405 -2.5919 -0.0367  0.0315
64912SOL    HW212347   4.180   7.327  12.489 -0.3270 -0.1957 -3.1938
64913SOL     OW12348  11.554  11.901   3.353  0.2699  0.0621  0.6730
64913SOL    HW112349  11.535  11.808   3.361  0.0261  0.2055  2.0899
64913SOL    HW212350  11.620  11.918   3.421  1.2478  0.6932 -0.3889
64914SOL     OW12351   4.379   2.543   9.452  0.2367  0.1112 -0.2299
64914SOL    HW112352   4.416   2.548   9.364  1.2435 -0.0490  0.1666
64914SOL    HW212353   4.341   2.455   9.457 -1.1472  0.6388 -0.9868
64915SOL     OW12354  10.303   0.525   3.519 -0.0949  0.0379  0.0251
64915SOL    HW112355  10.209   0.511   3.506 -0.3386  1.2122  0.3914
64915SOL    HW212356  10.341   0.508   3.433 -0.7199  0.1721 -0.2866
64916SOL     OW12357   6.639  11.557   2.057  0.5479 -0.7199 -0.1738
64916SOL    HW112358   6.575  11.531   2.123  0.2942  0.6935  0.1661
64916SOL    HW212359   6.619  11.501   1.981 -1.3080 -0.1166 -0.1884
64917SOL     OW12360   2.098   2.182   7.085 -0.1234  0.0410 -0.2258
64917SOL    HW112361   2.067   2.182   6.995 -1.1475 -0.3744  0.1185
64917SOL    HW212362   2.044   2.116   7.129 -0.2037  0.8263  0.8792
64918SOL     OW12363  13.963  10.928   1.728 -0.1802 -0.1053  0.3438
64918SOL    HW112364  13.929  10.995   1.668  0.4895  0.8267  0.9690
64918SOL    HW212365  13.912  10.850   1.709 -1.2941  0.7112 -0.0972
64919SOL     OW12366  12.889   3.346  11.607  0.7084 -0.1936  0.2458
64919SOL    HW112367  12.962   3.374  11.551  0.7094 -0.1583  0.2642
64919SOL    HW212368  12.866   3.425  11.657  0.0587  0.0579 -0.4192
64920SOL     OW12369   2.825   0.937   8.096 -0.3562  0.0313 -0.4236
64920SOL    HW112370   2.877   0.998   8.149 -0.2176  0.1052 -0.6431
64920SOL    HW212371   2.825   0.975   8.008 -0.4687 -0.1617 -0.5088
64921SOL     OW12372  12.434  12.508   6.017 -0.1296 -0.4155 -0.1536
64921SOL    HW112373  12.470  12.431   6.059  1.1166  0.0509 -0.3202
64921SOL    HW212374  12.495  12.527   5.945 -0.6694  0.4457 -0.4008
64922SOL     OW12375   0.647   9.887  10.722  0.5488  0.8228 -0.3166
64922SOL    HW112376   0.733   9.889  10.682  1.3332  1.0225  1.2857
64922SOL    HW212377   0.619   9.795  10.716  1.0689  0.6716 -0.4368
64923SOL     OW12378  10.247  11.899   7.335 -0.1249  0.7201 -0.3160
64923SOL    HW112379  10.253  11.897   7.239 -1.3409 -0.4040 -0.3939
64923SOL    HW212380  10.238  11.992   7.357  0.6711  1.0381 -1.2392
64924SOL     OW12381   6.376   4.583   3.095 -0.0501 -0.6593  0.2128
64924SOL    HW112382   6.394   4.507   3.150  0.4730 -0.7997 -0.1409
64924SOL    HW212383   6.458   4.600   3.050  0.0535  0.5790  0.8351
64925SOL     OW12384   5.582  13.448   9.019 -0.1635 -0.0083  0.2033
64925SOL    HW112385   5.639  13.506   8.970  0.1400 -0.5366 -0.0739
64925SOL    HW212386   5.634  13.422   9.095 -0.5104  0.5409  0.6367
64926SOL     OW12387   5.842   1.451  11.285  0.1621  0.4169 -0.0497
64926SOL    HW112388   5.809   1.539  11.302 -0.0084  0.4099 -0.3297
64926SOL    HW212389   5.932   1.452  11.317  0.6723  1.1528 -1.4380
64927SOL     OW12390   3.520   5.019  10.018 -0.1876 -0.0426 -0.1711
64927SOL    HW112391   3.456   4.968  10.067  1.5285 -2.7002 -0.4689
64927SOL    HW212392   3.571   5.064  10.086 -0.4943 -0.3232  0.2507
64928SOL     OW12393  11.442   6.999   2.960 -0.2984 -0.0576  0.1336
64928SOL    HW112394  11.457   6.906   2.972  0.6958  0.2914  2.0818
64928SOL    HW212395  11.457   7.037   3.047 -4.1035  1.5413  0.2879
64929SOL     OW12396   3.189  10.613   9.018  0.1229  0.4631  0.0021
64929SOL    HW112397   3.264  10.572   8.975  0.1940  2.3783 -1.8627
64929SOL    HW212398   3.127  10.630   8.947 -0.7311  1.7463  1.0026
64930SOL     OW12399   0.008   0.133   8.845 -0.6319  0.1140 -0.3570
64930SOL    HW112400   0.037   0.082   8.921 -0.2701  0.5221 -0.2159
64930SOL    HW212401  -0.046   0.072   8.794 -0.4285 -0.3242 -0.0530
64931SOL     OW12402   6.938  13.213   6.095 -0.0148 -0.0944  0.4141
64931SOL    HW112403   6.944  13.306   6.076 -0.0191 -0.2480 -0.3620
64931SOL    HW212404   6.862  13.183   6.045  1.9439 -1.1856 -2.1537
64932SOL     OW12405   7.148  12.650   6.395 -0.2589  0.6482  0.1942
64932SOL    HW112406   7.188  12.726   6.353  0.1923  1.2888  1.7126
64932SOL    HW212407   7.209  12.625   6.464  0.2251 -1.9301 -1.0619
64933SOL     OW12408   1.869  10.552  13.533  0.5121  0.5591  0.2316
64933SOL    HW112409   1.909  10.550  13.447 -0.0063  2.0386 -0.0755
64933SOL    HW212410   1.783  10.591  13.519  0.3400  0.6409  1.3781
64934SOL     OW12411   7.229  12.371   1.345 -0.3758  0.1902  0.0813
64934SOL    HW112412   7.248  12.277   1.352 -0.3675  0.2256  0.5577
64934SOL    HW212413   7.312  12.411   1.320 -1.0956 -0.3197 -3.8409
64935SOL     OW12414   5.726  13.684   8.605 -0.5872 -0.0744  0.4942
64935SOL    HW112415   5.743  13.660   8.514  0.0619 -3.2651  1.3303
64935SOL    HW212416   5.665  13.758   8.600 -0.3416  0.0315 -2.4921
64936SOL     OW12417   9.875   2.404   5.773  0.1152  0.5120  0.0724
64936SOL    HW112418   9.835   2.471   5.718 -1.9318 -0.8427 -0.1899
64936SOL    HW212419   9.812   2.390   5.844 -0.4223 -2.3419 -0.8352
64937SOL     OW12420  11.038   1.807   5.765  0.1980 -0.2249  0.2974
64937SOL    HW112421  11.128   1.839   5.775  0.8446 -1.3161 -1.5019
64937SOL    HW212422  10.990   1.881   5.729  1.3675 -0.7153 -2.5669
64938SOL     OW12423   0.880   0.895   4.200 -0.0348  0.2425 -0.2289
64938SOL    HW112424   0.888   0.966   4.136 -0.0012  0.2406 -0.2272
64938SOL    HW212425   0.849   0.938   4.279  0.3634  0.3191 -0.1134
64939SOL     OW12426   9.922   0.301  11.202  0.3210 -0.5066 -0.5406
64939SOL    HW112427   9.912   0.210  11.233 -0.8791 -0.2302 -0.0657
64939SOL    HW212428   9.848   0.315  11.144  0.2714  0.3038 -0.2895
64940SOL     OW12429   8.683   9.943  11.700 -0.3894 -0.1314 -0.4574
64940SOL    HW112430   8.630   9.990  11.636  1.0242  2.6978  0.3076
64940SOL    HW212431   8.632   9.949  11.781 -1.6881 -2.8189 -0.9575
64941SOL     OW12432   4.396   0.761   5.230 -0.7230  0.0427 -0.4459
64941SOL    HW112433   4.473   0.706   5.244 -1.3572 -0.5985  0.7124
64941SOL    HW212434   4.334   0.733   5.298 -0.8682  2.5352  0.5583
64942SOL     OW12435   1.580  10.462   7.193 -0.4049  0.0446 -0.4611
64942SOL    HW112436   1.511  10.503   7.245 -0.3624 -2.0815  1.4463
64942SOL    HW212437   1.542  10.379   7.164  0.4050  0.1197 -1.8172
64943SOL     OW12438  10.487   9.485   2.555 -0.4713  0.0559 -0.0365
64943SOL    HW112439  10.463   9.397   2.526 -0.2155  0.1558 -0.5623
64943SOL    HW212440  10.411   9.515   2.604 -0.0153 -1.0018  1.3957
64944SOL     OW12441   8.654   9.870  13.103  0.1401 -0.3930  0.7347
64944SOL    HW112442   8.644   9.926  13.026  0.7218 -1.0887  0.1394
64944SOL    HW212443   8.747   9.872  13.123  0.1388 -1.0000  0.8154
64945SOL     OW12444  10.679   8.290   5.749  0.3257  0.2464  0.2338
64945SOL    HW112445  10.691   8.311   5.656  2.2828 -2.4673 -0.2612
64945SOL    HW212446  10.632   8.207   5.749 -1.2036  1.0462  1.7891
64946SOL     OW12447   4.369  10.383  10.611  0.0961 -0.1110  0.1150
64946SOL    HW112448   4.375  10.292  10.582  1.1843  0.2040 -0.7132
64946SOL    HW212449   4.394  10.434  10.534 -0.0744  0.8784  0.7006
64947SOL     OW12450   1.134  13.912  11.489  0.0051 -0.3830 -0.2585
64947SOL    HW112451   1.116  13.990  11.437 -0.2543 -1.8498 -2.4868
64947SOL    HW212452   1.083  13.843  11.447 -0.5566 -1.5957  2.2318
64948SOL     OW12453   1.722  10.867   6.148 -0.2530 -0.6489 -0.2087
64948SOL    HW112454   1.678  10.809   6.086  1.7240 -2.4375 -0.0654
64948SOL    HW212455   1.753  10.940   6.094  0.5196 -1.6579 -1.1721
64949SOL     OW12456   3.264   6.204   5.366  0.0097 -0.2148 -0.0112
64949SOL    HW112457   3.290   6.129   5.420  0.7500  0.3448  0.4286
64949SOL    HW212458   3.335   6.214   5.303  1.5427  2.0136  1.8962
64950SOL     OW12459   8.470   7.723   9.634 -0.7796 -0.2193  0.2544
64950SOL    HW112460   8.483   7.809   9.595 -2.1670  0.3311  0.9406
64950SOL    HW212461   8.380   7.699   9.610 -0.5883 -1.2562  0.5060
64951SOL     OW12462   0.888   2.065   0.248 -0.0496  0.0589  0.4157
64951SOL    HW112463   0.897   2.100   0.159 -0.7695 -0.1378  0.2547
64951SOL    HW212464   0.932   2.128   0.304 -1.5943  1.4196  0.1805
64952SOL     OW12465   9.957   1.751   6.389 -0.2646  0.3830  0.0089
64952SOL    HW112466   9.903   1.718   6.461 -0.1526 -0.8995 -0.4696
64952SOL    HW212467   9.934   1.844   6.382 -3.5263 -0.3669 -1.0860
64953SOL     OW12468  13.994   6.323  10.127 -0.3779 -0.4278  0.2365
64953SOL    HW112469  14.025   6.406  10.089 -1.1785 -0.4050 -0.3781
64953SOL    HW212470  13.899   6.325  10.115 -0.6674 -0.4334  2.2296
64954SOL     OW12471   1.729   0.301   1.278  0.2701  0.4370 -0.0444
64954SOL    HW112472   1.728   0.387   1.236  0.1126  0.1844 -0.5718
64954SOL    HW212473   1.718   0.239   1.205 -0.4284  0.0092  0.4223
64955SOL     OW12474  12.892   3.735   4.677 -0.2385  0.0610 -0.3251
64955SOL    HW112475  12.936   3.807   4.723 -0.3548 -0.1817  0.1702
64955SOL    HW212476  12.822   3.777   4.628  0.5429  0.4575 -1.1369
64956SOL     OW12477   4.428   4.579   7.840  0.2903  0.3800  0.1324
64956SOL    HW112478   4.462   4.552   7.755 -3.7429 -1.0152 -1.2492
64956SOL    HW212479   4.377   4.658   7.821 -3.1294 -1.5776  0.4957
64957SOL     OW12480  13.868   6.151   4.420 -0.2616  0.4124 -0.3252
64957SOL    HW112481  13.810   6.076   4.431  0.9885 -0.6237 -0.5423
64957SOL    HW212482  13.914   6.159   4.504  1.7218 -0.9598 -1.1838
64958SOL     OW12483  11.308   7.772   6.468 -0.2834  0.2304  0.2858
64958SOL    HW112484  11.395   7.748   6.437 -0.4047 -0.0698  0.1737
64958SOL    HW212485  11.275   7.692   6.510 -1.5954 -0.5655 -2.0533
64959SOL     OW12486   1.951   4.648   1.263 -0.0079  0.3369  0.7642
64959SOL    HW112487   1.940   4.693   1.347 -0.1131  1.3129  0.2527
64959SOL    HW212488   2.033   4.600   1.271  0.0722  0.5723  1.3636
64960SOL     OW12489   8.689   9.559   4.990 -0.3455 -0.9956  0.1130
64960SOL    HW112490   8.710   9.558   4.896  2.4724  0.3925  0.6053
64960SOL    HW212491   8.631   9.634   5.000  1.3973  0.5066 -0.2769
64961SOL     OW12492  13.609  10.379  13.196 -0.1259  0.3036  0.2463
64961SOL    HW112493  13.663  10.448  13.234  0.1364 -0.1410  0.6874
64961SOL    HW212494  13.539  10.426  13.151  0.4698  0.8788 -0.1059
64962SOL     OW12495  12.410  13.433  11.193  0.4766 -0.0518 -0.5988
64962SOL    HW112496  12.502  13.421  11.219  0.1828  2.3568  2.1110
64962SOL    HW212497  12.371  13.347  11.205  2.0576 -0.7683 -0.2381
64963SOL     OW12498  11.150  13.456   1.077 -0.3341  0.0953  0.3045
64963SOL    HW112499  11.150  13.387   1.143 -1.3542  0.8685  1.1693
64963SOL    HW212500  11.202  13.526   1.116 -0.3552  0.2846 -0.0070
64964SOL     OW12501   2.725   3.543   8.400  0.1036  0.2905 -0.4207
64964SOL    HW112502   2.675   3.562   8.321 -2.0880 -1.8468  0.3124
64964SOL    HW212503   2.675   3.585   8.471 -0.0235 -0.8645  0.1982
64965SOL     OW12504   9.853  13.742  11.037  0.3020  0.2187  0.4757
64965SOL    HW112505   9.859  13.772  10.947  0.0121 -1.0312  0.0167
64965SOL    HW212506   9.924  13.787  11.083  0.4488  0.8662 -0.3682
64966SOL     OW12507   5.247   9.636  13.434  0.0832 -0.1935 -0.3829
64966SOL    HW112508   5.157   9.660  13.454  0.6194  1.0523  0.7282
64966SOL    HW212509   5.240   9.561  13.375 -1.6884  0.7008 -1.3869
64967SOL     OW12510  11.061  12.806   9.001 -0.1454 -0.2051  0.2065
64967SOL    HW112511  11.029  12.719   8.975 -2.0611  0.8298 -1.1241
64967SOL    HW212512  11.153  12.805   8.978 -0.4228 -1.4617 -0.9954
64968SOL     OW12513   2.997  13.160   0.197  0.0736  0.4066 -0.3264
64968SOL    HW112514   2.940  13.091   0.163  0.6302 -0.5270  0.5614
64968SOL    HW212515   3.010  13.220   0.124 -2.2130  0.7758 -0.5076
64969SOL     OW12516   0.949   2.369  13.277 -0.1098 -0.0598  0.5536
64969SOL    HW112517   0.965   2.336  13.189  1.9492 -2.0919  1.5942
64969SOL    HW212518   0.913   2.295  13.325 -0.6087  0.8319  1.6180
64970SOL     OW12519  11.526  11.433   4.593  0.4268  0.1364  0.3520
64970SOL    HW112520  11.540  11.338   4.597  0.5591  0.1800  0.9806
64970SOL    HW212521  11.572  11.461   4.514  2.1476 -0.0178  1.2719
64971SOL     OW12522   1.554   7.022   9.487  0.2161  0.1881  0.1214
64971SOL    HW112523   1.580   7.015   9.395  0.0076 -0.6176  0.1169
64971SOL    HW212524   1.533   7.115   9.499  0.1890  0.2922 -0.6574
64972SOL     OW12525   3.027   1.412   7.975  0.0501 -0.0562 -0.1314
64972SOL    HW112526   3.068   1.489   7.936 -1.1580  0.9993  0.6160
64972SOL    HW212527   3.099   1.351   7.991  0.6448 -0.8063 -4.4194
64973SOL     OW12528  12.768   6.815   0.027 -0.0686  0.2040 -0.0832
64973SOL    HW112529  12.758   6.790  -0.065 -0.6751 -1.6014  0.4328
64973SOL    HW212530  12.705   6.887   0.039 -1.6884 -1.0670 -0.5527
64974SOL     OW12531   7.333  11.698   6.056  0.1740 -0.2204  0.0463
64974SOL    HW112532   7.299  11.613   6.084 -0.8994 -0.2733 -1.3467
64974SOL    HW212533   7.416  11.676   6.012  0.0815 -0.5062  0.0087
64975SOL     OW12534   3.087   1.375  10.250  0.5715 -0.5675 -0.0791
64975SOL    HW112535   3.097   1.345  10.340  1.2184  1.7833  0.7017
64975SOL    HW212536   3.122   1.464  10.250 -2.8280  0.9857 -1.7304
64976SOL     OW12537   3.425   0.264   6.724 -0.6594 -0.1830 -0.3670
64976SOL    HW112538   3.439   0.198   6.657 -0.9964  1.3198 -1.9949
64976SOL    HW212539   3.502   0.320   6.720 -1.1509  0.5190 -0.2198
64977SOL     OW12540   6.484   1.585   6.812  0.3533 -0.2363 -0.4466
64977SOL    HW112541   6.453   1.650   6.875  4.3215  1.5185  0.0156
64977SOL    HW212542   6.519   1.514   6.865 -1.2859 -1.4365 -0.8998
64978SOL     OW12543  12.944  13.668   5.380  0.1484 -0.3049 -0.0502
64978SOL    HW112544  12.865  13.715   5.355 -0.5505 -0.6495  1.3697
64978SOL    HW212545  12.950  13.680   5.475  2.5218  0.7614 -0.2638
64979SOL     OW12546   7.229   0.095   2.955 -0.4506  0.3129  0.0286
64979SOL    HW112547   7.202   0.184   2.978 -0.0318  0.1092  1.4125
64979SOL    HW212548   7.233   0.048   3.039  1.1658 -0.4842 -0.4455
64980SOL     OW12549   4.476   5.887   4.415  0.2379  0.0827 -0.6138
64980SOL    HW112550   4.519   5.871   4.499 -1.7175  3.8875  1.3790
64980SOL    HW212551   4.548   5.895   4.353  2.0967  1.1437  1.5199
64981SOL     OW12552   9.036   5.247   4.686  0.6417  0.2014  0.2998
64981SOL    HW112553   9.061   5.211   4.601  0.4706 -1.4453  0.9141
64981SOL    HW212554   8.952   5.205   4.706 -0.2379  1.9543  0.4798
64982SOL     OW12555  11.073  10.541   1.155  0.0128 -0.0191  0.4384
64982SOL    HW112556  11.149  10.483   1.153 -0.6828 -0.9660 -1.8694
64982SOL    HW212557  11.045  10.541   1.246  0.4699 -2.8048  0.6555
64983SOL     OW12558   1.010  13.262   3.742  0.0531  0.0387  0.1580
64983SOL    HW112559   0.928  13.212   3.745 -1.2225  1.9759 -0.1273
64983SOL    HW212560   1.075  13.205   3.783 -1.5742 -1.3224  0.9753
64984SOL     OW12561   0.271  11.421   8.121 -0.3600  0.3412  0.1013
64984SOL    HW112562   0.276  11.366   8.042  2.4599 -0.1191  0.4856
64984SOL    HW212563   0.193  11.389   8.167 -1.0962 -0.5470 -1.6300
64985SOL     OW12564   1.961  13.329   7.681  0.2091 -0.5750  0.3890
64985SOL    HW112565   1.901  13.331   7.755 -0.6058  0.4545 -0.2670
64985SOL    HW212566   1.906  13.349   7.605  1.0174 -1.6341 -0.5013
64986SOL     OW12567   7.042  10.491   6.994 -0.3006 -0.1760 -0.3399
64986SOL    HW112568   7.033  10.401   6.960  0.6048 -1.6333  2.8635
64986SOL    HW212569   7.101  10.534   6.932  0.4492 -2.2750 -1.2016
64987SOL     OW12570   6.029  11.615   4.688  0.0692 -0.1837  0.6596
64987SOL    HW112571   6.085  11.676   4.736  1.2123  0.5756 -1.5192
64987SOL    HW212572   6.083  11.537   4.678 -0.5244 -0.7008  1.4043
64988SOL     OW12573  13.176   0.092   4.028  0.5930  0.6919 -0.1649
64988SOL    HW112574  13.248   0.127   4.081  0.5166 -0.4250  0.7215
64988SOL    HW212575  13.155   0.008   4.069  0.5681 -0.2542 -2.0172
64989SOL     OW12576   3.133   0.889  13.294  0.0492  0.6065  0.0452
64989SOL    HW112577   3.170   0.930  13.216  1.6424 -1.3565 -0.3436
64989SOL    HW212578   3.197   0.906  13.363  0.4270 -0.5825  0.0223
64990SOL     OW12579   9.755   4.893  11.219  0.0950  0.0576 -0.6232
64990SOL    HW112580   9.815   4.824  11.250 -0.6664 -0.0648  0.6538
64990SOL    HW212581   9.730   4.865  11.131  0.6639 -0.7229 -0.5503
64991SOL     OW12582   9.424   9.218   4.545 -0.1076 -0.5931  0.3632
64991SOL    HW112583   9.507   9.175   4.567  0.8482  1.0449  0.1642
64991SOL    HW212584   9.392   9.169   4.469  1.3059 -0.5403 -0.3104
64992SOL     OW12585   2.794   0.144  13.398 -0.0098 -0.0563 -0.0098
64992SOL    HW112586   2.805   0.211  13.331 -2.0021  0.1802 -0.1628
64992SOL    HW212587   2.884   0.118  13.421  0.7506  0.6962 -1.8903
64993SOL     OW12588  13.148   4.011   1.807  0.7995 -0.2879  1.3815
64993SOL    HW112589  13.096   4.060   1.872 -0.0211  1.4456 -0.4671
64993SOL    HW212590  13.229   3.990   1.853  0.9812  2.4038  2.4878
64994SOL     OW12591   0.703   3.874   0.136 -0.3104  0.3295 -0.7795
64994SOL    HW112592   0.670   3.827   0.060 -0.3052  0.2615 -0.7394
64994SOL    HW212593   0.726   3.806   0.199  1.9039  0.2594 -1.5786
64995SOL     OW12594   3.939   2.450   4.275  0.1246  0.0840 -0.0946
64995SOL    HW112595   3.854   2.429   4.315 -0.1011  0.4814 -0.3646
64995SOL    HW212596   3.961   2.536   4.311 -0.7419  1.0977 -1.8646
64996SOL     OW12597   9.696   1.028  12.636  0.4240 -0.4817 -0.0059
64996SOL    HW112598   9.743   0.985  12.708  0.7413 -0.4696 -0.2017
64996SOL    HW212599   9.606   0.995  12.643  0.0989  0.5840  1.2415
64997SOL     OW12600   0.909  11.656   9.281  0.0790  0.0875 -0.1824
64997SOL    HW112601   0.978  11.664   9.346  2.1620 -0.3988 -2.2104
64997SOL    HW212602   0.893  11.562   9.274  0.5181  0.0603 -0.9651
64998SOL     OW12603   5.917   1.403   6.079 -0.4024 -0.2456 -0.3046
64998SOL    HW112604   5.958   1.342   6.018 -0.5696 -0.0037 -0.6617
64998SOL    HW212605   5.938   1.490   6.044 -1.4854 -0.1185 -0.6757
64999SOL     OW12606   8.660   5.367  11.111 -0.5307 -0.6279  0.4359
64999SOL    HW112607   8.735   5.323  11.152 -1.0415 -0.2826  1.7977
64999SOL    HW212608   8.666   5.343  11.019  0.4025 -1.8240  0.7778
65000SOL     OW12609   0.047   6.443   3.122  0.2296 -0.1186  0.5165
65000SOL    HW112610  -0.009   6.438   3.044 -0.6923  1.4441  1.0446
65000SOL    HW212611  -0.009   6.414   3.193  0.5385  0.0926  0.8495
65001SOL     OW12612   6.307  13.732   5.499 -0.1211 -0.1782  0.6594
65001SOL    HW112613   6.269  13.760   5.416 -0.2252 -0.1797  0.7067
65001SOL    HW212614   6.389  13.689   5.474 -0.4796 -0.7780  0.5074
65002SOL     OW12615   2.162  10.700  12.531  0.4705  0.3507  0.4664
65002SOL    HW112616   2.113  10.688  12.612  0.2631 -0.1145  0.2753
65002SOL    HW212617   2.203  10.786  12.540 -0.7626  0.9625  0.4207
65003SOL     OW12618   0.708   1.595   7.404  0.2233  0.4921 -0.1061
65003SOL    HW112619   0.697   1.677   7.356  2.5326  0.9507  0.0387
65003SOL    HW212620   0.780   1.612   7.464  3.2311 -2.6244 -2.4738
65004SOL     OW12621   5.931   6.773   6.113 -0.5263 -0.0417 -0.1356
65004SOL    HW112622   5.955   6.851   6.062  0.8372 -0.4317 -0.1404
65004SOL    HW212623   5.849   6.743   6.075  0.7937 -0.7542 -2.6320
65005SOL     OW12624   8.511   3.286   3.933  0.1554  0.1284 -0.0828
65005SOL    HW112625   8.453   3.216   3.962 -0.9570  0.9658 -0.1893
65005SOL    HW212626   8.458   3.366   3.942  1.8093  1.1421  1.3515
65006SOL     OW12627  11.130   4.228   2.656  0.0372  0.1178 -0.1060
65006SOL    HW112628  11.048   4.180   2.670  0.4404 -0.4056  0.5096
65006SOL    HW212629  11.103   4.310   2.615 -0.6616 -0.6461 -1.2433
65007SOL     OW12630  11.075   4.588  10.488 -0.0168  0.4191 -0.0579
65007SOL    HW112631  11.013   4.535  10.437  0.3468 -0.8617  0.7592
65007SOL    HW212632  11.021   4.630  10.555 -0.1689  0.2446 -0.0704
65008SOL     OW12633   2.693  13.775  12.604 -0.1866  0.6496 -0.4774
65008SOL    HW112634   2.630  13.826  12.655 -1.5456 -3.1768  2.1234
65008SOL    HW212635   2.645  13.744  12.528 -0.2816  0.8167 -0.4844
65009SOL     OW12636   1.154   0.806   6.676  0.3219  0.2013  0.2203
65009SOL    HW112637   1.084   0.801   6.610  0.0062  0.0395  0.5625
65009SOL    HW212638   1.211   0.876   6.645  1.7471 -1.6932 -1.7477
65010SOL     OW12639  11.077   7.649   4.758 -0.2096  0.4057  0.1404
65010SOL    HW112640  11.072   7.708   4.682 -0.5321 -0.3881 -0.4705
65010SOL    HW212641  10.995   7.599   4.755  0.9530 -1.5561 -0.5968
65011SOL     OW12642  12.674   3.071  13.242 -0.2360 -0.2472  0.0903
65011SOL    HW112643  12.758   3.111  13.218 -0.7064  0.1506 -0.9482
65011SOL    HW212644  12.680   3.057  13.337  0.8138  0.2143  0.1044
65012SOL     OW12645   3.469   9.015  12.989  1.0168  0.0293  0.5949
65012SOL    HW112646   3.488   9.103  13.021 -0.7483  0.4574  0.5433
65012SOL    HW212647   3.478   8.959  13.067  1.4476  0.3555  0.7804
65013SOL     OW12648   2.456  10.038  13.604 -0.4066  0.2096 -0.1148
65013SOL    HW112649   2.374  10.086  13.594  0.0985  0.7614 -2.1677
65013SOL    HW212650   2.475  10.005  13.516  1.8835  0.6454  0.1582
65014SOL     OW12651   4.719   2.074   2.065 -0.1508 -0.6998 -1.0443
65014SOL    HW112652   4.710   2.077   1.970  0.9652 -0.5348 -1.1639
65014SOL    HW212653   4.721   2.166   2.092  1.6525 -0.6769 -1.1201
65015SOL     OW12654  12.616  12.557   9.774  0.0188  0.4683  0.0228
65015SOL    HW112655  12.644  12.548   9.683 -1.7283  0.7214 -0.5767
65015SOL    HW212656  12.681  12.508   9.824  2.2384  2.0796 -1.0998
65016SOL     OW12657   0.426   4.577   2.349 -0.1722 -0.3371  0.1373
65016SOL    HW112658   0.398   4.490   2.375 -1.7198 -0.8278 -2.7584
65016SOL    HW212659   0.485   4.562   2.275  0.6901  1.0599  0.4985
65017SOL     OW12660   1.262  13.226   6.343 -0.1435  0.0739 -0.3178
65017SOL    HW112661   1.250  13.145   6.393  1.2109 -0.1291 -0.2631
65017SOL    HW212662   1.177  13.243   6.303  0.0955 -2.6758 -2.2639
65018SOL     OW12663   8.180   9.844  13.519 -0.4437  0.2302  0.2458
65018SOL    HW112664   8.103   9.901  13.518 -1.0243 -0.5450 -0.5229
65018SOL    HW212665   8.254   9.903  13.506 -1.0229  0.8316 -0.3756
65019SOL     OW12666   3.744   2.685  13.182  0.0053 -0.0171 -0.2717
65019SOL    HW112667   3.802   2.751  13.220  0.3098 -0.9665  1.0075
65019SOL    HW212668   3.687   2.658  13.255  0.9143 -2.2246 -0.2921
65020SOL     OW12669  13.825   5.212   4.615  0.0268  0.5439  0.1499
65020SOL    HW112670  13.842   5.162   4.536 -0.5834 -0.0654  0.3901
65020SOL    HW212671  13.899   5.272   4.622  1.1255 -0.7511  0.1838
65021SOL     OW12672   9.893   1.648   4.683 -0.1426 -0.1856  0.1064
65021SOL    HW112673   9.914   1.628   4.592 -0.4544 -0.1234  0.0180
65021SOL    HW212674   9.867   1.564   4.721  1.0653 -0.4230  0.4482
65022SOL     OW12675   6.247   2.923   3.819  0.9607 -0.3268 -0.1868
65022SOL    HW112676   6.282   2.874   3.894 -0.8353 -1.7235 -0.1719
65022SOL    HW212677   6.270   2.870   3.743  0.5961 -0.2425 -0.3591
65023SOL     OW12678   5.969   9.258   2.679 -0.1729  0.1181  0.6706
65023SOL    HW112679   5.971   9.174   2.632 -0.0665  0.5549 -0.1286
65023SOL    HW212680   5.944   9.322   2.612 -1.6226  0.5411  1.5655
65024SOL     OW12681  12.492   7.003   8.672 -0.0383 -0.2062  0.5436
65024SOL    HW112682  12.415   7.018   8.617 -1.2323 -0.5144  2.0756
65024SOL    HW212683  12.458   7.003   8.761  1.3660 -2.6323  1.1560
65025SOL     OW12684   9.917   5.430   7.411  0.3538 -0.0602 -0.3802
65025SOL    HW112685   9.856   5.469   7.474  0.9647  2.0409 -1.0014
65025SOL    HW212686   9.862   5.407   7.336 -0.3457 -2.4094  0.7585
65026SOL     OW12687   0.183   6.534  10.478  0.0799  0.1762 -0.0101
65026SOL    HW112688   0.127   6.610  10.462  0.4715  0.9533  2.0059
65026SOL    HW212689   0.182   6.523  10.573  3.5706  0.4765  0.2171
65027SOL     OW12690   9.432  13.343   4.859  0.1905  0.3733  0.8289
65027SOL    HW112691   9.502  13.277   4.864 -0.1369 -0.1278 -0.7793
65027SOL    HW212692   9.437  13.388   4.943  0.6452 -1.4691  1.8462
65028SOL     OW12693   8.138   9.515   6.691 -0.6922  0.3476  0.0845
65028SOL    HW112694   8.129   9.483   6.781  0.7910  2.0624  0.9293
65028SOL    HW212695   8.144   9.437   6.637 -0.0116 -0.7490  1.6800
65029SOL     OW12696   4.435  13.730  14.082 -0.1830  0.2896 -0.2088
65029SOL    HW112697   4.528  13.753  14.074 -0.2418  0.3024 -0.9862
65029SOL    HW212698   4.433  13.662  14.149  0.2130  1.2566  0.8224
65030SOL     OW12699   9.101   7.788   3.266 -0.2393  0.1578 -0.4112
65030SOL    HW112700   9.170   7.722   3.273 -0.2220  0.0531 -1.4171
65030SOL    HW212701   9.073   7.784   3.174 -1.7825 -0.0059  0.0346
65031SOL     OW12702  11.145   2.420   9.826 -0.2514  0.3525 -0.2532
65031SOL    HW112703  11.069   2.365   9.845 -0.3655  0.8559  0.8087
65031SOL    HW212704  11.110   2.493   9.776 -0.3012  0.1153 -0.5728
65032SOL     OW12705   5.453   6.604  11.577 -0.5118 -0.2036 -0.1907
65032SOL    HW112706   5.507   6.568  11.647 -0.9622  1.0841  0.8656
65032SOL    HW212707   5.481   6.695  11.570 -2.3719  0.4403  0.2426
65033SOL     OW12708   0.083  12.439   9.754  0.1434 -0.2302  0.0913
65033SOL    HW112709   0.139  12.425   9.677  2.3128  1.7074  1.2063
65033SOL    HW212710  -0.003  12.461   9.718  1.5711  2.5909 -1.9045
65034SOL     OW12711   5.638  12.009  13.772 -0.3010 -0.1713  0.0531
65034SOL    HW112712   5.611  12.075  13.708  0.2695 -0.5540 -0.6031
65034SOL    HW212713   5.561  11.996  13.827 -0.5188  0.8079 -0.0032
65035SOL     OW12714  10.831  10.392   1.663 -0.3698 -0.2113 -0.4106
65035SOL    HW112715  10.898  10.331   1.692  0.0476 -0.0009 -0.9183
65035SOL    HW212716  10.804  10.438   1.743  1.4605  1.0681 -0.4701
65036SOL     OW12717   5.819   2.717  11.799  0.7403  0.1446 -0.0672
65036SOL    HW112718   5.847   2.806  11.819  1.3192 -0.2285  0.8652
65036SOL    HW212719   5.845   2.666  11.876 -2.0097 -0.3414  0.6625
65037SOL     OW12720   7.031  11.598   0.001  0.1143 -0.0157  0.6199
65037SOL    HW112721   7.029  11.529  -0.066 -1.5683  0.7467 -0.1980
65037SOL    HW212722   7.069  11.556   0.078  2.0059 -0.9677 -0.7430
65038SOL     OW12723   1.887   9.471   1.003  0.3586 -0.9752 -0.7712
65038SOL    HW112724   1.848   9.537   1.060  0.8051 -0.7571 -0.7126
65038SOL    HW212725   1.879   9.508   0.915  0.4653 -0.9154 -0.7556
65039SOL     OW12726  13.000   9.091   0.458  0.4451 -0.6667  0.4289
65039SOL    HW112727  13.076   9.040   0.487 -0.0280 -1.6435  0.0083
65039SOL    HW212728  12.924   9.038   0.485 -0.1245  0.5907  1.4158
65040SOL     OW12729   6.188   2.955   0.877  0.0698  0.5810  0.7561
65040SOL    HW112730   6.149   2.869   0.891 -0.9039  1.1201  1.4829
65040SOL    HW212731   6.113   3.013   0.861  0.7503  1.1785 -0.4446
65041SOL     OW12732  12.669  11.220   6.830 -0.3608  0.6610 -0.4095
65041SOL    HW112733  12.690  11.218   6.737 -1.3699  1.2390 -0.6685
65041SOL    HW212734  12.659  11.313   6.850  0.6234  0.5936  0.4713
65042SOL     OW12735   5.659   9.141  12.965 -0.6557  0.3753 -0.0911
65042SOL    HW112736   5.627   9.086  12.894 -1.2904  1.4780 -0.6677
65042SOL    HW212737   5.652   9.230  12.933  0.6541  0.8026  0.7188
65043SOL     OW12738   3.493  11.310  11.425 -0.1338 -0.1560 -0.0481
65043SOL    HW112739   3.569  11.251  11.428  0.5318  0.7369  1.6248
65043SOL    HW212740   3.436  11.279  11.496  0.0070  0.9171  0.5470
65044SOL     OW12741   5.070  12.014   9.604  0.1586  0.2373  0.1599
65044SOL    HW112742   4.990  12.061   9.582  0.9444  1.4899 -0.1127
65044SOL    HW212743   5.134  12.082   9.624  0.5041 -0.7721  2.8334
65045SOL     OW12744   9.922  13.192  11.441  0.0515  0.1883 -0.0591
65045SOL    HW112745   9.873  13.251  11.383  0.4004  0.3626 -0.1787
65045SOL    HW212746   9.876  13.197  11.525 -1.4624 -1.3108 -0.7285
65046SOL     OW12747   6.261  12.771   9.915  0.2212  0.0571 -0.9462
65046SOL    HW112748   6.247  12.736  10.003 -0.9444 -0.7230 -1.4092
65046SOL    HW212749   6.251  12.865   9.924 -2.0105 -0.1535 -0.5591
65047SOL     OW12750   3.936  11.589   5.622 -0.5983  0.1737  0.2912
65047SOL    HW112751   3.868  11.655   5.633  1.6275  3.0860 -1.5709
65047SOL    HW212752   3.956  11.559   5.711 -0.8686  3.0679  1.4361
65048SOL     OW12753   2.149  11.402   4.240 -0.4270 -0.5330  0.2383
65048SOL    HW112754   2.243  11.418   4.229 -0.6064  0.9788  0.7220
65048SOL    HW212755   2.128  11.437   4.326 -1.4830 -0.6258  0.0361
65049SOL     OW12756  11.272   0.073  12.664  0.1077 -0.0923 -0.0175
65049SOL    HW112757  11.357   0.087  12.623  0.1490 -0.7879 -0.1788
65049SOL    HW212758  11.266  -0.021  12.676 -1.3835 -0.2533 -1.6567
65050SOL     OW12759   0.654  13.153   4.978 -0.4225 -0.1950  0.3618
65050SOL    HW112760   0.698  13.117   5.055 -2.5963 -1.3229  1.1914
65050SOL    HW212761   0.667  13.247   4.984  1.9719 -0.4826  0.4224
65051SOL     OW12762  13.146   2.943   9.218 -0.2344  0.0640  0.0170
65051SOL    HW112763  13.197   3.023   9.233  0.9453 -0.5816 -0.4807
65051SOL    HW212764  13.135   2.939   9.123  0.0060 -0.5442  0.0109
65052SOL     OW12765  10.470  11.100  11.208 -0.2183  0.6987  0.5761
65052SOL    HW112766  10.516  11.134  11.132 -1.2200  3.0799  0.9531
65052SOL    HW212767  10.519  11.134  11.283 -0.1003 -0.3978  1.0195
65053SOL     OW12768   8.492   0.389   5.417 -0.4395  0.8697  0.2694
65053SOL    HW112769   8.541   0.450   5.362 -0.6617 -0.3200 -1.3250
65053SOL    HW212770   8.547   0.378   5.495  0.7567  1.2628 -0.4954
65054SOL     OW12771   1.736  11.869   9.425 -0.0323 -0.4304 -0.0108
65054SOL    HW112772   1.710  11.845   9.336 -0.1245 -0.4902  0.0326
65054SOL    HW212773   1.804  11.806   9.448  0.7433  0.2315 -0.4344
65055SOL     OW12774  10.055   7.875  10.106  0.1758 -0.2827 -0.2795
65055SOL    HW112775  10.034   7.967  10.123  0.9531 -0.1103 -0.1947
65055SOL    HW212776  10.034   7.831  10.188  0.3245 -0.0843 -0.1319
65056SOL     OW12777   8.364   3.065   9.562  0.5463 -0.0737  0.0738
65056SOL    HW112778   8.382   3.148   9.606 -2.0735  0.3963  0.4457
65056SOL    HW212779   8.390   2.997   9.625 -0.9964  0.5600  1.4615
65057SOL     OW12780   3.477   4.844   9.608  0.4400  0.3608  0.6247
65057SOL    HW112781   3.536   4.895   9.553  0.1456  1.7398  1.5143
65057SOL    HW212782   3.531   4.817   9.683  0.2698  0.5255  0.8102
65058SOL     OW12783  10.167   2.681   4.011 -0.0148  0.2526  0.2168
65058SOL    HW112784  10.101   2.736   4.053  0.9757  0.3664  1.7320
65058SOL    HW212785  10.185   2.612   4.076  0.3400 -0.5768 -0.7444
65059SOL     OW12786   5.497   1.821   9.164 -0.3177  0.6831  0.0380
65059SOL    HW112787   5.458   1.891   9.215 -0.1671  0.1587  0.8848
65059SOL    HW212788   5.558   1.777   9.224 -0.0240  0.1508 -0.6242
65060SOL     OW12789   9.416   8.120   5.010 -0.0109  1.0585  0.5898
65060SOL    HW112790   9.462   8.089   4.932 -0.3283 -0.1342  0.8483
65060SOL    HW212791   9.443   8.211   5.020  2.5220  0.3333  0.8929
65061SOL     OW12792   4.798  13.193  13.400  0.4274  0.2984  0.0527
65061SOL    HW112793   4.747  13.112  13.407  0.3322  0.4704  2.0417
65061SOL    HW212794   4.773  13.230  13.315  1.1545 -2.1714 -1.3109
65062SOL     OW12795  11.761   1.422  10.429 -0.0245  0.3419 -0.0753
65062SOL    HW112796  11.726   1.470  10.354 -0.1662 -1.0687 -0.9324
65062SOL    HW212797  11.712   1.340  10.431  1.4849 -0.5948  0.2197
65063SOL     OW12798   1.210   9.264  12.816 -0.1770  0.1134  0.0133
65063SOL    HW112799   1.197   9.359  12.825  0.3785  0.1707  0.3276
65063SOL    HW212800   1.246   9.253  12.728  1.6280  0.4333  0.6679
65064SOL     OW12801   5.903   9.701   3.879 -0.9064  0.1042 -0.4257
65064SOL    HW112802   5.863   9.636   3.935  1.3656 -0.6039  0.5040
65064SOL    HW212803   5.902   9.662   3.792 -0.0687 -0.9638  0.0265
65065SOL     OW12804   1.121   7.399  10.024  0.8400  0.1775 -0.1475
65065SOL    HW112805   1.165   7.464  10.079  1.7484  1.4553 -2.2654
65065SOL    HW212806   1.035   7.437  10.006  0.6654 -0.0910  0.1051
65066SOL     OW12807  12.848   3.942  11.559 -0.0246 -0.5721  0.2694
65066SOL    HW112808  12.841   3.895  11.476 -1.5644  2.0741 -1.2441
65066SOL    HW212809  12.934   3.918  11.593  0.6858 -1.7143 -2.1050
65067SOL     OW12810   4.473   2.906  12.874 -0.3560  0.1174 -0.7026
65067SOL    HW112811   4.503   2.994  12.853  1.7462 -0.5051 -0.5993
65067SOL    HW212812   4.486   2.898  12.968 -0.1427 -0.4304 -0.7731
65068SOL     OW12813   7.720   9.894   6.728 -0.0982 -0.5931 -0.1169
65068SOL    HW112814   7.729   9.967   6.788 -1.5868 -1.1867  0.8952
65068SOL    HW212815   7.808   9.857   6.721  0.3608  0.3282  0.5845
65069SOL     OW12816  13.307   5.882   5.450 -0.2837 -0.0611 -0.1029
65069SOL    HW112817  13.292   5.953   5.387 -1.2287 -0.4661 -0.3628
65069SOL    HW212818  13.353   5.815   5.399  0.7383  0.4094  0.1813
65070SOL     OW12819   2.107   9.585  12.964  0.4066 -0.0366  0.0864
65070SOL    HW112820   2.160   9.563  13.040  0.3413  1.7532  0.7059
65070SOL    HW212821   2.036   9.521  12.965 -0.8028  1.1452  2.8396
65071SOL     OW12822   8.985  13.943  11.824 -0.5546 -0.3840  0.4326
65071SOL    HW112823   8.956  14.030  11.849  0.7081  0.4009 -0.7388
65071SOL    HW212824   9.070  13.933  11.865 -1.1961 -1.5911  1.5800
65072SOL     OW12825  11.452   4.553   3.950 -0.3266  0.7845 -0.0677
65072SOL    HW112826  11.421   4.614   4.016  1.0806  0.2710  1.1136
65072SOL    HW212827  11.374   4.505   3.923 -0.5557 -1.1832  3.5174
65073SOL     OW12828   0.091   4.627  10.589  0.1521 -0.8191  0.0500
65073SOL    HW112829   0.065   4.539  10.614 -1.1443 -0.1525  1.1429
65073SOL    HW212830   0.121   4.667  10.670 -0.6546  0.1960 -0.1318
65074SOL     OW12831  10.589   0.187  13.987  0.4640  0.4204 -0.0705
65074SOL    HW112832  10.619   0.130  13.916 -0.0107  0.7737 -0.5719
65074SOL    HW212833  10.665   0.240  14.010  0.5015  0.6230 -0.6436
65075SOL     OW12834  13.190   1.431  11.897 -0.2731  0.3470  0.1963
65075SOL    HW112835  13.169   1.349  11.853  0.2615  0.4717 -0.3071
65075SOL    HW212836  13.236   1.483  11.831 -1.5064  1.4679  0.1804
65076SOL     OW12837   5.037  13.661  11.375  0.1636  0.5998 -0.0256
65076SOL    HW112838   5.042  13.720  11.450  0.2334 -1.2062  1.4323
65076SOL    HW212839   4.973  13.595  11.400  0.9744 -0.6475 -1.0975
65077SOL     OW12840   3.792   1.371   9.658  0.0031 -0.1251 -0.3860
65077SOL    HW112841   3.801   1.276   9.664  1.3063  0.0667  2.1026
65077SOL    HW212842   3.707   1.390   9.696 -1.0607 -0.3325 -2.4861
65078SOL     OW12843   4.685  12.312   1.113  0.5675 -0.1066  0.2674
65078SOL    HW112844   4.620  12.244   1.100 -1.6073  1.5502  1.6187
65078SOL    HW212845   4.660  12.381   1.051  2.4336 -0.3068 -0.7542
65079SOL     OW12846   6.583   1.316   5.438 -0.4593 -0.6386  0.2589
65079SOL    HW112847   6.541   1.329   5.353  0.8516 -0.0249 -0.3166
65079SOL    HW212848   6.512   1.326   5.502 -0.9744  1.7783 -0.6022
65080SOL     OW12849   2.476   6.393   7.299 -0.2618  0.2107 -0.5983
65080SOL    HW112850   2.467   6.460   7.232  0.3743 -0.8856 -1.8467
65080SOL    HW212851   2.562   6.409   7.338 -1.2898  1.8550  1.1871
65081SOL     OW12852   9.177   6.798   6.231 -0.3872 -0.1895 -0.1088
65081SOL    HW112853   9.145   6.734   6.167  2.3040 -0.3597 -1.4423
65081SOL    HW212854   9.200   6.747   6.308 -0.1803 -0.5478 -0.4042
65082SOL     OW12855  13.638   9.929  13.288 -0.5786  0.5189 -0.1047
65082SOL    HW112856  13.675   9.933  13.200 -0.8596  1.7732 -0.1839
65082SOL    HW212857  13.642  10.019  13.320 -0.9473  0.1671  0.9720
65083SOL     OW12858   4.189   9.075   0.908  0.1802  0.3026  0.0515
65083SOL    HW112859   4.096   9.097   0.915 -0.0434 -0.6690  0.2227
65083SOL    HW212860   4.195   8.986   0.943  0.8799 -0.3418 -1.6139
65084SOL     OW12861   9.760   6.876   2.342  0.0450 -0.0187 -0.3043
65084SOL    HW112862   9.842   6.868   2.392  0.0858  2.5336  0.1855
65084SOL    HW212863   9.693   6.846   2.403  0.4957 -1.2812 -0.3919
65085SOL     OW12864  11.400   3.013  11.448 -0.0416 -0.1389  0.0198
65085SOL    HW112865  11.431   2.926  11.472  0.1796  0.6775  3.0904
65085SOL    HW212866  11.408   3.015  11.353  0.4964 -3.2352 -0.1188
65086SOL     OW12867   4.187   8.926   0.413  0.2927  0.5623 -0.5292
65086SOL    HW112868   4.183   8.841   0.456  0.1846 -0.8222 -3.0492
65086SOL    HW212869   4.251   8.915   0.343 -0.9155  2.0079 -1.9528
65087SOL     OW12870   9.887  11.531   3.134  0.5722 -0.6287 -0.3103
65087SOL    HW112871   9.947  11.461   3.160  0.8006 -0.0425  0.7953
65087SOL    HW212872   9.852  11.502   3.050  0.8680 -1.9406 -0.0088
65088SOL     OW12873   0.855   6.846   4.731  0.3915 -0.5182 -0.2311
65088SOL    HW112874   0.922   6.841   4.663  1.1270 -0.4549  0.4753
65088SOL    HW212875   0.899   6.818   4.811 -0.2218  0.2181  0.3844
65089SOL     OW12876  13.449   1.265   3.544  0.2806  0.6053 -0.2685
65089SOL    HW112877  13.473   1.334   3.606  0.3436 -0.0913  0.4835
65089SOL    HW212878  13.354   1.273   3.535  0.1536  0.1488  0.5960
65090SOL     OW12879   3.732   5.015  11.188  0.4358 -0.0802 -0.1715
65090SOL    HW112880   3.815   5.046  11.222  0.1031  1.2241 -0.5183
65090SOL    HW212881   3.665   5.066  11.234 -0.0765  0.4540 -1.4568
65091SOL     OW12882  13.909   9.302  14.015 -0.1682 -0.0964  0.3730
65091SOL    HW112883  13.858   9.384  14.017 -0.4788 -0.2761  0.0505
65091SOL    HW212884  13.886   9.262  13.931 -0.6387 -0.9047  0.8731
65092SOL     OW12885   1.957   0.169   8.279 -0.1567 -0.0899 -0.8181
65092SOL    HW112886   2.032   0.184   8.336 -1.8034  2.6347  0.9217
65092SOL    HW212887   1.959   0.242   8.216 -1.0182 -0.2745 -1.0766
65093SOL     OW12888   5.203   5.617   3.161  0.2191  0.0355  0.2056
65093SOL    HW112889   5.112   5.645   3.164  0.1013 -0.4401  1.4372
65093SOL    HW212890   5.246   5.667   3.230  0.6977 -0.4113  0.2379
65094SOL     OW12891   1.695  13.971   0.339  0.4345  0.2710 -0.6076
65094SOL    HW112892   1.746  13.972   0.420 -1.3892  0.2604  0.5698
65094SOL    HW212893   1.721  14.052   0.294  2.0627 -0.1176 -0.4620
65095SOL     OW12894   0.136   6.465   8.584  0.6995 -0.3931 -0.2530
65095SOL    HW112895   0.043   6.468   8.607  1.4344  0.7738  3.0974
65095SOL    HW212896   0.161   6.374   8.595 -0.0810 -0.7924 -1.5718
65096SOL     OW12897  10.961  13.871  12.655  0.1432 -0.3325  0.1306
65096SOL    HW112898  10.877  13.916  12.656  0.8504  1.0582  0.0592
65096SOL    HW212899  10.963  13.826  12.571  0.2345  1.2038 -0.7287
65097SOL     OW12900   0.262  13.625  11.368 -0.3750  0.5641 -0.1918
65097SOL    HW112901   0.321  13.638  11.443 -3.3897  1.0309  2.3346
65097SOL    HW212902   0.271  13.705  11.317 -1.6507  2.5366  2.4057
65098SOL     OW12903   3.146  10.660   5.474 -0.1481  0.1430 -0.1083
65098SOL    HW112904   3.082  10.590   5.480  1.4290 -1.4712 -1.1277
65098SOL    HW212905   3.170  10.663   5.381 -1.0826  2.9417 -0.3667
65099SOL     OW12906   4.130   2.877  14.066  0.3102  0.1228 -0.1141
65099SOL    HW112907   4.217   2.860  14.101  0.3290  0.2755 -0.0838
65099SOL    HW212908   4.108   2.965  14.098  1.1045  1.0658 -1.9990
65100SOL     OW12909   2.208   2.095   1.659  0.4329  0.6024  0.8449
65100SOL    HW112910   2.294   2.094   1.701  0.7206  3.2591  0.4832
65100SOL    HW212911   2.219   2.042   1.580  1.8139  1.0813  0.6883
65101SOL     OW12912  13.656  12.360  12.185 -0.1604 -0.4092 -0.5018
65101SOL    HW112913  13.647  12.321  12.272 -0.7742  0.9856  0.0969
65101SOL    HW212914  13.750  12.367  12.172 -0.0300  0.8603  0.7936
65102SOL     OW12915  10.163   0.288   9.637  0.1222  0.1186 -0.7605
65102SOL    HW112916  10.250   0.327   9.632 -0.9130  2.6726 -0.1535
65102SOL    HW212917  10.103   0.362   9.633 -2.0137 -1.4526  0.2858
65103SOL     OW12918  10.666   6.227  12.890  0.6452  0.4001 -0.3875
65103SOL    HW112919  10.665   6.132  12.889  2.1607  0.3653 -1.7866
65103SOL    HW212920  10.575   6.252  12.906  0.2671 -1.2564  0.2444
65104SOL     OW12921  12.151   0.470   8.602  0.3257  0.4864 -0.3768
65104SOL    HW112922  12.206   0.418   8.545 -0.0084  1.1036 -1.2903
65104SOL    HW212923  12.063   0.433   8.592  0.5055 -0.3817  0.9379
65105SOL     OW12924   5.360  11.461   5.728 -0.2966 -0.0804  0.2538
65105SOL    HW112925   5.425  11.468   5.797  1.1886 -1.5407 -0.9220
65105SOL    HW212926   5.408  11.478   5.647 -1.5745 -0.2725 -0.5864
65106SOL     OW12927   3.483   6.036   8.616 -0.0877  0.6576  0.2186
65106SOL    HW112928   3.420   6.065   8.550  0.5128  0.6142 -0.3911
65106SOL    HW212929   3.536   6.113   8.634  0.4832  0.3763 -0.2129
65107SOL     OW12930  10.521   6.719  13.378 -0.6618 -0.0883 -0.1221
65107SOL    HW112931  10.539   6.731  13.471  0.9195 -0.7069 -0.3231
65107SOL    HW212932  10.431   6.750  13.367 -0.6867  0.5048  1.4992
65108SOL     OW12933  11.187   1.413   8.392  0.0291  0.1057  0.1762
65108SOL    HW112934  11.244   1.361   8.334 -0.5720  0.5825 -0.8699
65108SOL    HW212935  11.242   1.485   8.421  0.6316 -0.6671  1.0023
65109SOL     OW12936   8.355  12.033   1.140 -0.3667 -0.1854  0.6517
65109SOL    HW112937   8.412  12.103   1.169 -0.4904  0.0935  0.2301
65109SOL    HW212938   8.411  11.977   1.086 -0.2224 -0.5201  1.1337
65110SOL     OW12939   8.059  13.938  10.693  0.5877  0.3027 -0.5169
65110SOL    HW112940   8.016  14.019  10.720  0.1661 -0.1602  0.2224
65110SOL    HW212941   8.134  13.967  10.641 -0.5701  1.1322 -1.7931
65111SOL     OW12942   2.780   8.828  11.321  0.7467 -0.0809 -0.3703
65111SOL    HW112943   2.841   8.815  11.248  0.9916 -0.6318 -0.0750
65111SOL    HW212944   2.715   8.890  11.288 -0.7674 -2.4090 -2.0284
65112SOL     OW12945  12.531   2.304   1.848 -0.1401 -0.6885 -0.0551
65112SOL    HW112946  12.498   2.341   1.766  0.3939  1.8856  0.7981
65112SOL    HW212947  12.624   2.289   1.831 -0.2574 -1.1892 -0.2580
65113SOL     OW12948   5.875   7.308  11.722  0.5607  0.3274  0.0436
65113SOL    HW112949   5.808   7.347  11.666 -1.4669 -3.1763 -0.2946
65113SOL    HW212950   5.833   7.301  11.808  0.4557 -1.7793 -0.1361
65114SOL     OW12951   6.220  12.018  13.094 -0.1915 -0.1908  0.1484
65114SOL    HW112952   6.229  12.062  13.179 -1.2072 -0.9941  0.7039
65114SOL    HW212953   6.140  11.966  13.103  1.3604 -2.8124 -0.1643
65115SOL     OW12954  11.411   9.186   8.993  0.1326 -0.4081  0.0409
65115SOL    HW112955  11.408   9.129   8.916 -0.1788 -1.2840  0.6811
65115SOL    HW212956  11.396   9.126   9.067  2.2173  0.0976  0.9370
65116SOL     OW12957   0.643   4.124   5.652  0.3048  0.0494  0.1592
65116SOL    HW112958   0.687   4.207   5.671  1.8825 -0.4231 -1.2208
65116SOL    HW212959   0.597   4.103   5.733 -1.0035  2.7600  0.2217
65117SOL     OW12960  12.863   2.861  13.117  0.4653 -0.2363 -0.1811
65117SOL    HW112961  12.808   2.939  13.128 -0.6462 -1.0164  0.0010
65117SOL    HW212962  12.856   2.840  13.024 -0.6236 -1.0751  0.0673
65118SOL     OW12963   2.185   9.475  13.576  0.1132  0.4295  0.3172
65118SOL    HW112964   2.166   9.526  13.497 -0.0677  1.1383  0.8047
65118SOL    HW212965   2.114   9.410  13.581  0.8765 -0.5358 -0.8363
65119SOL     OW12966   9.535   5.457  12.049  0.5946  0.3262  0.1232
65119SOL    HW112967   9.496   5.481  11.965  1.5423  2.1480  0.1498
65119SOL    HW212968   9.547   5.541  12.095  2.8126 -0.3066  0.8490
65120SOL     OW12969   6.473  11.930   2.897 -0.0546  0.4673  0.1895
65120SOL    HW112970   6.473  11.994   2.825  0.1487  0.9711  0.6350
65120SOL    HW212971   6.565  11.906   2.907 -0.2445 -0.8412 -0.7907
65121SOL     OW12972  13.346   9.630   2.462 -0.0035 -0.3168  0.5278
65121SOL    HW112973  13.342   9.687   2.539  0.8493 -0.9248  1.0354
65121SOL    HW212974  13.432   9.646   2.424 -0.2658 -0.3165 -0.0792
65122SOL     OW12975   1.926   5.276   5.759 -0.0558  0.3458  0.5451
65122SOL    HW112976   1.925   5.340   5.830  0.8854 -0.2539  1.1161
65122SOL    HW212977   2.019   5.260   5.743 -0.2724 -0.2005 -0.2210
65123SOL     OW12978  11.901  14.078  14.088  0.2095 -0.1598 -0.1650
65123SOL    HW112979  11.871  14.019  14.157  0.0775  0.0848 -0.0136
65123SOL    HW212980  11.994  14.090  14.106  0.2291 -0.2942 -0.1752
65124SOL     OW12981   4.988  10.386   7.237 -0.2797  0.2675 -0.4816
65124SOL    HW112982   4.964  10.327   7.307 -0.0173  1.2541  0.4697
65124SOL    HW212983   4.989  10.332   7.158 -0.6573 -0.8358  0.2611
65125SOL     OW12984  10.714   8.187   7.708  0.6990  0.2780  0.9643
65125SOL    HW112985  10.775   8.173   7.781  0.0040 -0.9692  1.3421
65125SOL    HW212986  10.628   8.172   7.746  0.2931  0.1238 -0.0045
65126SOL     OW12987  12.608   1.792   6.843 -0.1015  0.2678 -0.3879
65126SOL    HW112988  12.618   1.857   6.773  3.6028 -0.2128 -0.5401
65126SOL    HW212989  12.626   1.841   6.923 -0.7218  0.0851 -0.1346
65127SOL     OW12990  11.251  13.803   4.014  0.2115  0.9697 -0.2304
65127SOL    HW112991  11.278  13.739   3.948 -1.8946  1.1768 -1.4010
65127SOL    HW212992  11.159  13.819   3.995 -0.2057  1.8400  2.1585
65128SOL     OW12993  13.574   7.288   0.217 -0.1701  0.8292  0.8159
65128SOL    HW112994  13.577   7.195   0.237 -0.3067  0.0398 -2.2390
65128SOL    HW212995  13.482   7.312   0.228 -0.5045  0.0812 -0.1705
65129SOL     OW12996  13.055  10.141   2.902  0.1009 -0.1502 -0.2924
65129SOL    HW112997  12.964  10.127   2.928 -0.4540 -2.5099 -2.9306
65129SOL    HW212998  13.059  10.234   2.876 -1.3570  0.1540  0.4938
65130SOL     OW12999   0.844  12.866  12.096  0.5784  0.3076 -0.6444
65130SOL    HW113000   0.794  12.819  12.163  1.7431 -0.2310 -0.1121
65130SOL    HW213001   0.811  12.956  12.100  0.9882  0.4186  1.0556
65131SOL     OW13002   4.750   8.369   0.182 -0.4105 -0.0654  0.4101
65131SOL    HW113003   4.698   8.330   0.252 -0.2025 -0.2585  0.4568
65131SOL    HW213004   4.685   8.401   0.119 -0.6167  0.6015  0.9518
65132SOL     OW13005   7.890  13.457  10.202  0.1056 -0.3801  0.6932
65132SOL    HW113006   7.972  13.474  10.155 -1.2322 -2.4132 -2.7736
65132SOL    HW213007   7.917  13.435  10.290  3.2837 -0.8071 -0.2532
65133SOL     OW13008   3.506  13.484   6.434  0.0131 -0.5321 -0.0892
65133SOL    HW113009   3.589  13.520   6.403 -0.9272  1.5369 -0.3443
65133SOL    HW213010   3.486  13.413   6.373  0.8353 -0.0349 -0.9583
65134SOL     OW13011  13.572   6.936   6.337 -0.6532 -0.2859 -0.1167
65134SOL    HW113012  13.567   6.845   6.365  1.4937 -0.5807 -0.5399
65134SOL    HW213013  13.569   6.933   6.242  0.0343  0.0229 -0.1552
65135SOL     OW13014   3.929   2.744  11.723 -0.4158  0.6405 -0.3374
65135SOL    HW113015   3.917   2.670  11.783  1.1475 -1.2503 -2.1693
65135SOL    HW213016   3.845   2.790  11.724 -0.8794 -0.1178  2.1702
65136SOL     OW13017  11.525   6.958   3.376 -0.2668  0.1902  0.0564
65136SOL    HW113018  11.532   7.042   3.422 -0.8541  1.0280 -1.3419
65136SOL    HW213019  11.547   6.893   3.443  1.5933  1.5190  0.8290
65137SOL     OW13020  13.381   7.745  13.408 -0.1777  0.6030 -0.5645
65137SOL    HW113021  13.455   7.708  13.360  0.1335 -0.8129  0.9338
65137SOL    HW213022  13.309   7.685  13.391 -0.5933  1.1711 -0.8289
65138SOL     OW13023  13.951   6.736   1.629 -0.2920  0.1765  0.3191
65138SOL    HW113024  13.862   6.713   1.600  0.2936 -0.2228 -1.2466
65138SOL    HW213025  13.972   6.815   1.579  1.2207 -1.2334 -1.3957
65139SOL     OW13026   3.519  11.789   3.581 -0.2212  0.6512 -0.2151
65139SOL    HW113027   3.510  11.872   3.627 -1.0746  0.3236  0.2276
65139SOL    HW213028   3.585  11.741   3.630  0.7296  1.2895 -0.8264
65140SOL     OW13029  11.539   6.745   3.566 -0.5554 -0.6184 -0.2371
65140SOL    HW113030  11.482   6.667   3.563 -2.6621  0.8078  0.1917
65140SOL    HW213031  11.518   6.785   3.651  0.0100  0.7509 -0.7296
65141SOL     OW13032   9.375  11.731   6.885  0.0750 -0.2646 -0.4664
65141SOL    HW113033   9.460  11.699   6.915 -0.1666 -0.4031  0.0807
65141SOL    HW213034   9.369  11.819   6.921 -0.0907 -0.3239 -0.3480
65142SOL     OW13035   5.577   2.464   7.548  0.2104  0.1933  0.1412
65142SOL    HW113036   5.634   2.393   7.580 -0.1344 -0.2066 -0.1282
65142SOL    HW213037   5.490   2.425   7.545 -0.4654  1.3393  2.3807
65143SOL     OW13038  10.828   2.131   8.751  0.3587 -0.1504 -0.3090
65143SOL    HW113039  10.794   2.066   8.812 -0.4238 -0.1166 -0.7053
65143SOL    HW213040  10.883   2.188   8.806 -1.9100  1.0914  0.8167
65144SOL     OW13041  10.577  10.318   7.706  0.6166 -0.0100 -0.1861
65144SOL    HW113042  10.634  10.241   7.714 -0.3896 -0.7655 -0.0660
65144SOL    HW213043  10.488  10.282   7.707  0.1387  1.0591 -1.2134
65145SOL     OW13044  12.134   7.604  11.083  0.3180 -0.2178  0.2693
65145SOL    HW113045  12.199   7.669  11.110 -0.1205  0.3073  0.0741
65145SOL    HW213046  12.055   7.628  11.131  0.5999 -1.6102  1.4895
65146SOL     OW13047   7.498   1.981   8.286 -0.0467  0.4118  0.5369
65146SOL    HW113048   7.414   2.017   8.258 -0.8299 -0.5471  1.5670
65146SOL    HW213049   7.563   2.038   8.245 -1.2036  2.1494  0.9975
65147SOL     OW13050   0.764   7.444  11.118 -0.4727 -0.3180 -0.2613
65147SOL    HW113051   0.786   7.514  11.180  1.4845 -0.3153 -0.9047
65147SOL    HW213052   0.760   7.365  11.172  1.8222 -0.4199 -0.1590
65148SOL     OW13053   1.930   6.608   0.823 -0.3682 -0.1706  0.0713
65148SOL    HW113054   1.947   6.550   0.897  0.3797  0.6309  0.5512
65148SOL    HW213055   1.871   6.675   0.858 -0.4204 -0.0728 -0.1986
65149SOL     OW13056   9.671  13.927  11.519  0.6207  0.1635 -0.3555
65149SOL    HW113057   9.591  13.977  11.505  0.9078  1.5821  2.3292
65149SOL    HW213058   9.641  13.837  11.534 -0.5223  0.6777  0.6464
65150SOL     OW13059   0.747   9.614   7.558 -0.1538  0.0886 -0.2504
65150SOL    HW113060   0.807   9.675   7.602  0.0617 -0.2176 -0.1165
65150SOL    HW213061   0.745   9.644   7.468 -0.9557  1.0015  0.0578
65151SOL     OW13062  11.090   1.446   9.125  0.0281 -0.0886  0.2357
65151SOL    HW113063  11.025   1.437   9.195 -0.4181 -0.2104 -0.1875
65151SOL    HW213064  11.166   1.396   9.155  0.0443  0.3051  0.8699
65152SOL     OW13065  13.360   9.634  10.897 -0.1314  0.1656  0.0561
65152SOL    HW113066  13.378   9.728  10.901 -0.1020  0.1139  1.7820
65152SOL    HW213067  13.323   9.613  10.983  0.6197 -1.5593 -0.0096
65153SOL     OW13068   1.400   7.617   0.769 -0.1666  0.1442 -0.4470
65153SOL    HW113069   1.332   7.609   0.703 -1.7190 -1.1301  1.2161
65153SOL    HW213070   1.465   7.551   0.746 -0.8034 -0.4336 -0.5966
65154SOL     OW13071   1.576   0.724   1.554 -0.3862 -0.4276  0.0222
65154SOL    HW113072   1.482   0.741   1.548 -0.3226  0.3385  0.9759
65154SOL    HW213073   1.583   0.658   1.623 -0.6150 -4.5327 -3.4785
65155SOL     OW13074  12.486   2.385  10.728  0.1236 -0.4385 -0.2853
65155SOL    HW113075  12.434   2.370  10.649  0.8026 -0.2446 -0.7727
65155SOL    HW213076  12.555   2.445  10.701  0.0361  0.0804  0.5930
65156SOL     OW13077   0.875   8.463   2.220  0.2344  0.1896 -0.5522
65156SOL    HW113078   0.865   8.557   2.230  1.2483  0.2237  0.4045
65156SOL    HW213079   0.920   8.435   2.300  0.0692 -1.0864 -0.8742
65157SOL     OW13080   6.389   0.067   8.508  0.3239 -0.0428  0.4399
65157SOL    HW113081   6.481   0.071   8.532  0.7306 -0.4231 -0.9432
65157SOL    HW213082   6.366  -0.026   8.513  0.0773  0.0211  0.5447
65158SOL     OW13083  11.599   6.096  11.715 -0.4712  0.3462  0.3618
65158SOL    HW113084  11.514   6.051  11.721 -0.6013  0.4715 -0.4438
65158SOL    HW213085  11.577   6.184  11.686  0.0089  0.0789 -0.8651
65159SOL     OW13086   5.823   0.562  12.977  0.0204  0.4288  0.0723
65159SOL    HW113087   5.791   0.614  12.904  1.6853 -0.5201 -1.4160
65159SOL    HW213088   5.758   0.493  12.989  0.5571 -0.4306 -1.7008
65160SOL     OW13089   3.436   0.752  11.664  0.6553 -0.1697  0.0946
65160SOL    HW113090   3.494   0.793  11.728  0.1939  1.1528 -0.3002
65160SOL    HW213091   3.350   0.789  11.684  0.2539 -0.8366 -0.3922
65161SOL     OW13092   1.208   0.959  13.491 -0.0303  0.4817  0.3363
65161SOL    HW113093   1.139   1.024  13.504  0.1788  0.5595  1.1337
65161SOL    HW213094   1.289   1.010  13.491  0.0501  0.3671 -0.3982
65162SOL     OW13095   7.195  13.203   5.767  0.8817 -0.3671 -0.1048
65162SOL    HW113096   7.210  13.277   5.708  1.0514  0.4114  0.8848
65162SOL    HW213097   7.100  13.190   5.764  0.9967 -1.0548 -1.3740
65163SOL     OW13098   2.626   4.911   7.512 -0.2049  0.0457 -0.4579
65163SOL    HW113099   2.669   4.835   7.552 -0.3702 -0.0090 -0.3828
65163SOL    HW213100   2.613   4.972   7.585  0.0894  0.2205 -0.5516
65164SOL     OW13101   3.310   5.661  13.796  0.2213 -0.3906  0.1585
65164SOL    HW113102   3.355   5.602  13.735 -1.7984 -0.3855 -1.4731
65164SOL    HW213103   3.293   5.740  13.744 -0.9827 -0.1177  0.9303
65165SOL     OW13104   2.220   9.869   9.172 -0.0690 -0.0061 -0.0506
65165SOL    HW113105   2.250   9.932   9.238 -1.9461 -0.3505  1.2457
65165SOL    HW213106   2.277   9.793   9.184  0.8866  0.6703 -0.2098
65166SOL     OW13107  11.962  12.325   8.762 -0.0355  0.3268  0.5262
65166SOL    HW113108  11.920  12.410   8.760  1.4422  1.0867 -0.4861
65166SOL    HW213109  11.963  12.297   8.671 -1.4896 -1.3291  0.9640
65167SOL     OW13110   1.221   5.202   7.451  0.3516 -0.3568  0.4605
65167SOL    HW113111   1.226   5.297   7.443 -0.0351 -0.3495  0.2887
65167SOL    HW213112   1.180   5.173   7.370  1.3303 -0.7613  0.0863
65168SOL     OW13113   3.625   8.317   0.211  0.1069  0.9289  0.0848
65168SOL    HW113114   3.619   8.397   0.159  1.5204  0.7582 -0.3869
65168SOL    HW213115   3.566   8.255   0.169 -0.8302  1.6286  0.3227
65169SOL     OW13116   2.192   3.238  13.161 -0.5607 -0.3889 -0.2293
65169SOL    HW113117   2.237   3.322  13.158 -0.4241 -0.3432  1.7749
65169SOL    HW213118   2.143   3.234  13.079  1.9049  0.1870 -1.8248
65170SOL     OW13119   7.083   3.667  14.043 -0.9934 -0.0769 -0.3661
65170SOL    HW113120   7.062   3.584  14.085 -0.0430 -0.6224 -0.9341
65170SOL    HW213121   7.006   3.722  14.057 -2.0815 -1.4121 -0.9430
65171SOL     OW13122  11.621   0.627   6.618  0.5662 -0.1360 -0.1596
65171SOL    HW113123  11.585   0.714   6.637  0.2676 -0.3953  0.4662
65171SOL    HW213124  11.673   0.640   6.538  2.2200  1.0883  1.0442
65172SOL     OW13125  11.006  14.075   5.245  0.3941  0.4141  0.0489
65172SOL    HW113126  10.996  13.991   5.200 -1.0429  0.3615  0.4356
65172SOL    HW213127  10.925  14.122   5.226  0.2801  0.8655  1.5718
65173SOL     OW13128   1.986   4.546  10.814  0.0135 -0.7205  0.6792
65173SOL    HW113129   1.958   4.502  10.734 -2.4707 -0.5716  1.3980
65173SOL    HW213130   2.070   4.504  10.836  1.2204 -0.1515 -2.4048
65174SOL     OW13131   8.102   9.742   4.325  0.0317 -0.0467 -0.0523
65174SOL    HW113132   8.038   9.760   4.394  1.3586  1.0990  0.9247
65174SOL    HW213133   8.177   9.705   4.371  0.9519  0.7605 -0.8775
65175SOL     OW13134   2.237  12.891  10.980  0.7066 -0.2024 -0.3748
65175SOL    HW113135   2.272  12.896  10.891 -1.4036 -1.2713 -1.3410
65175SOL    HW213136   2.168  12.957  10.983  2.7995  2.1196  1.6028
65176SOL     OW13137   9.454  12.958   9.413  0.1236 -0.3060  0.2396
65176SOL    HW113138   9.460  13.043   9.371 -1.1227 -0.8057 -1.0553
65176SOL    HW213139   9.523  12.958   9.479  0.5466  1.4516 -0.1614
65177SOL     OW13140   7.769   4.136  11.443  0.0236 -0.2609 -0.0443
65177SOL    HW113141   7.810   4.222  11.436  0.2105 -0.4038 -0.7596
65177SOL    HW213142   7.750   4.126  11.537  0.3334  0.3996  0.0936
65178SOL     OW13143   2.101  13.865   4.944  0.3756 -0.3616 -0.5100
65178SOL    HW113144   2.155  13.788   4.924  0.1821 -0.6213 -0.0600
65178SOL    HW213145   2.077  13.853   5.036  1.7474  1.0988  0.0749
65179SOL     OW13146   1.196   3.357   2.926 -0.2142 -0.0544 -0.4913
65179SOL    HW113147   1.224   3.267   2.943  1.9669 -0.1225 -3.4842
65179SOL    HW213148   1.218   3.405   3.006 -2.4679 -2.2401  1.6244
65180SOL     OW13149   5.594   9.925  12.606  0.0128  0.1984  0.5652
65180SOL    HW113150   5.661   9.985  12.574 -0.3780 -0.5293 -1.8038
65180SOL    HW213151   5.521   9.982  12.629  0.2780  0.7709  0.0292
65181SOL     OW13152   8.274   0.449  13.773 -0.9270  0.1909  0.1653
65181SOL    HW113153   8.190   0.462  13.728  0.0992  0.8210 -1.6605
65181SOL    HW213154   8.315   0.535  13.772 -0.5439  0.0525  1.7050
65182SOL     OW13155  11.584  13.903   7.008  0.4342  0.2153 -0.1286
65182SOL    HW113156  11.661  13.856   7.041  0.0338  0.1152  0.7089
65182SOL    HW213157  11.511  13.866   7.058 -0.1531  0.3173 -0.9058
65183SOL     OW13158   8.345   3.225   1.404  0.4621  0.3766 -0.4235
65183SOL    HW113159   8.350   3.320   1.394 -0.4280  0.3146 -1.6886
65183SOL    HW213160   8.436   3.196   1.405  0.7783  1.3153  1.0203
65184SOL     OW13161   8.939  13.383  13.717 -0.0095  0.1997 -0.2036
65184SOL    HW113162   8.855  13.384  13.762 -0.0347 -1.6466 -0.1302
65184SOL    HW213163   8.973  13.472  13.727 -3.2877  2.0074 -2.9308
65185SOL     OW13164  12.935   4.225   3.056  0.6989  0.0630 -0.1888
65185SOL    HW113165  12.975   4.286   3.119 -0.4840  1.1987 -0.4773
65185SOL    HW213166  12.897   4.282   2.989 -1.9998 -0.8324  0.4396
65186SOL     OW13167   4.809   1.936  13.865 -0.8928 -0.4006  0.1480
65186SOL    HW113168   4.817   2.014  13.810  0.7416 -1.1988 -0.8404
65186SOL    HW213169   4.897   1.897  13.862 -1.7032 -2.3159  0.5480
65187SOL     OW13170   3.967   1.217  13.264 -0.0677 -0.2464 -0.3883
65187SOL    HW113171   3.940   1.275  13.194  0.2580 -0.4260 -0.6660
65187SOL    HW213172   3.918   1.246  13.341  0.2772  0.5523 -0.4653
65188SOL     OW13173  13.882   6.504   8.691 -0.1556  0.3701  0.5962
65188SOL    HW113174  13.922   6.511   8.777 -1.5367  0.2743  1.2724
65188SOL    HW213175  13.822   6.579   8.687  0.1782  0.5954 -0.4409
65189SOL     OW13176   7.444   9.657   0.069 -0.5704  0.3183 -0.1074
65189SOL    HW113177   7.513   9.626   0.127 -1.6183 -0.7020  0.6416
65189SOL    HW213178   7.481   9.649  -0.019  0.2666 -0.1693  0.2824
65190SOL     OW13179  10.456   3.607  12.375 -0.0838 -0.3157 -0.2428
65190SOL    HW113180  10.423   3.551  12.444 -0.0222 -0.4612 -0.3310
65190SOL    HW213181  10.463   3.550  12.298 -0.5677 -0.0571 -0.4873
65191SOL     OW13182   0.823  12.449  10.624  0.5122  0.0796 -0.3914
65191SOL    HW113183   0.797  12.448  10.532  0.3533 -1.0390 -0.3482
65191SOL    HW213184   0.781  12.527  10.660  1.9647  1.5217 -1.6297
65192SOL     OW13185   1.191   2.321  10.860  0.1615  0.8578 -0.2000
65192SOL    HW113186   1.261   2.351  10.917  0.3290 -0.3187  0.2342
65192SOL    HW213187   1.225   2.241  10.819 -0.9569  0.1985  0.1075
65193SOL     OW13188   0.189   0.847   4.517  0.4428  0.4832 -0.2896
65193SOL    HW113189   0.095   0.847   4.502  0.6940  1.5908 -2.1420
65193SOL    HW213190   0.199   0.823   4.609 -1.6500  0.7250  0.0380
65194SOL     OW13191   7.426   4.276   3.601  0.0194 -0.3928 -0.3976
65194SOL    HW113192   7.440   4.250   3.510  0.5123  0.6431 -0.6244
65194SOL    HW213193   7.371   4.206   3.638 -0.9023 -0.3857 -1.7137
65195SOL     OW13194   7.128   8.534   5.287  0.2059  0.0150 -0.6129
65195SOL    HW113195   7.197   8.536   5.353 -0.0886 -0.5892 -0.2794
65195SOL    HW213196   7.065   8.600   5.316 -0.7556 -1.4020  0.6519
65196SOL     OW13197  11.448   2.025   5.948  0.1135  0.5900 -0.0110
65196SOL    HW113198  11.366   1.978   5.966  0.0881  1.2186  1.6870
65196SOL    HW213199  11.424   2.087   5.878 -0.8981  0.8102  0.5036
65197SOL     OW13200  13.135  10.599  12.772  0.7177 -0.4480 -0.0334
65197SOL    HW113201  13.085  10.566  12.847 -1.8037 -0.1245 -1.4660
65197SOL    HW213202  13.186  10.671  12.808 -1.6787  0.7867  1.1595
65198SOL     OW13203   7.624  12.717   3.154 -0.2878  0.0574 -0.1786
65198SOL    HW113204   7.635  12.623   3.139  2.2179  0.0699  1.1639
65198SOL    HW213205   7.706  12.756   3.126 -0.3781  1.5543  1.4564
65199SOL     OW13206   4.207   0.652   9.653  0.0521 -0.0993  0.1262
65199SOL    HW113207   4.192   0.742   9.683 -0.3600 -0.5460  1.3439
65199SOL    HW213208   4.284   0.657   9.597 -0.2375  1.0841 -0.1778
65200SOL     OW13209   0.280  10.902   6.632  0.0171 -0.3007  0.3668
65200SOL    HW113210   0.284  10.894   6.537 -1.2119  2.4721 -0.0022
65200SOL    HW213211   0.370  10.920   6.659  0.4842 -1.7117 -0.1482
65201SOL     OW13212   0.229   7.971  12.687  0.6084 -0.1003 -0.0946
65201SOL    HW113213   0.313   8.015  12.674  0.2159  0.1405 -2.1255
65201SOL    HW213214   0.167   8.022  12.635 -0.9701  0.0948  1.8466
65202SOL     OW13215   0.346   7.842   8.982  0.0344  0.0362 -0.1150
65202SOL    HW113216   0.269   7.801   9.021  0.0122 -0.4400 -0.6475
65202SOL    HW213217   0.386   7.891   9.054 -1.2759  1.0744 -0.0649
65203SOL     OW13218   5.023  10.586   1.412 -0.1705 -0.1472 -0.1413
65203SOL    HW113219   5.083  10.659   1.426 -0.7105 -0.0179  1.8006
65203SOL    HW213220   5.080  10.509   1.407  0.2119 -0.1219  2.4470
65204SOL     OW13221   2.395   9.510  10.204 -0.4572 -0.0252  0.4524
65204SOL    HW113222   2.341   9.578  10.164 -0.9799  0.3440  1.7399
65204SOL    HW213223   2.340   9.471  10.272  0.5699 -0.2361  1.2060
65205SOL     OW13224   4.456  11.948   0.906  0.5912  0.1982 -0.3273
65205SOL    HW113225   4.426  11.969   0.817 -1.4725 -1.0704  0.0116
65205SOL    HW213226   4.401  11.875   0.933  2.5789 -0.8047  1.2523
65206SOL     OW13227   5.272   8.366  10.255  0.1823  0.7228 -0.0998
65206SOL    HW113228   5.243   8.395  10.169  0.3751 -0.4319 -0.5696
65206SOL    HW213229   5.319   8.285  10.239  0.0921  0.4025  1.1143
65207SOL     OW13230   1.804  11.165   2.585  0.5522 -0.1640  0.0805
65207SOL    HW113231   1.830  11.256   2.601 -0.4099  0.6238 -2.3848
65207SOL    HW213232   1.849  11.115   2.653  2.0370  2.0076  0.8040
65208SOL     OW13233   9.640  13.690   0.630  0.5473  0.2979 -0.1671
65208SOL    HW113234   9.684  13.742   0.697 -0.3429  0.6702  0.1387
65208SOL    HW213235   9.711  13.658   0.575  1.4500 -0.9970  1.6146
65209SOL     OW13236   5.605  11.662   2.963  0.4760  0.1249  0.0106
65209SOL    HW113237   5.656  11.743   2.974  0.1482  0.9004 -3.2070
65209SOL    HW213238   5.664  11.604   2.916 -0.7221  0.1348 -1.5690
65210SOL     OW13239   9.404  12.433  12.931 -0.3199  0.1518 -0.1168
65210SOL    HW113240   9.397  12.462  13.023 -0.8062 -2.1511  0.6444
65210SOL    HW213241   9.360  12.348  12.930 -0.4229  0.1781 -2.5459
65211SOL     OW13242   9.948   2.682   9.385 -0.2585  0.3658 -0.3074
65211SOL    HW113243  10.003   2.645   9.453 -1.7601 -1.2131  0.1316
65211SOL    HW213244   9.859   2.663   9.413 -0.9902  1.3660 -1.7873
65212SOL     OW13245   5.751  10.531   3.603 -0.3717  0.1241  0.7057
65212SOL    HW113246   5.822  10.514   3.664  1.0272 -0.5674 -1.0368
65212SOL    HW213247   5.695  10.453   3.608 -1.1878  0.7463  2.2096
65213SOL     OW13248  10.104   0.961   7.607  0.2516 -0.1013  0.5443
65213SOL    HW113249  10.139   0.959   7.517 -0.4633 -1.8868  0.2607
65213SOL    HW213250  10.181   0.975   7.662  0.5288  2.6420 -0.3554
65214SOL     OW13251   2.734  11.258  10.505  0.3261  0.3922  0.1775
65214SOL    HW113252   2.707  11.235  10.415 -1.2844  0.8093  0.5112
65214SOL    HW213253   2.768  11.177  10.541 -0.5089 -0.2008 -0.3169
65215SOL     OW13254   4.764   3.020   8.647  0.1034 -0.3503  0.2273
65215SOL    HW113255   4.808   3.045   8.729  0.2010 -2.5611  0.8967
65215SOL    HW213256   4.835   3.016   8.583  0.5168 -1.3775  0.7157
65216SOL     OW13257   0.254   1.400   1.486 -0.3514  0.0319 -0.4922
65216SOL    HW113258   0.161   1.387   1.507  0.0662 -2.1378  0.2636
65216SOL    HW213259   0.259   1.382   1.392 -0.5203 -1.2134 -0.2875
65217SOL     OW13260  12.482  10.858   1.669 -0.4588  0.3877 -0.1756
65217SOL    HW113261  12.542  10.815   1.607 -1.4620 -0.3583 -0.6471
65217SOL    HW213262  12.395  10.828   1.644 -0.9943  0.9677  0.9015
65218SOL     OW13263   5.085   5.995   2.008 -0.3707  0.0796  0.5045
65218SOL    HW113264   5.174   5.982   1.976 -0.7348  1.1373 -1.0302
65218SOL    HW213265   5.095   6.044   2.089  0.4149  2.1262 -0.7576
65219SOL     OW13266   7.186  12.878   6.244  0.4149 -0.4105 -0.4478
65219SOL    HW113267   7.261  12.933   6.221  0.6917  0.2287  1.7402
65219SOL    HW213268   7.150  12.851   6.160  2.0063  0.7495 -1.5787
65220SOL     OW13269   7.360   1.088   9.122  0.2045  0.5333  0.0776
65220SOL    HW113270   7.305   1.143   9.066 -1.2260  0.3381  1.2304
65220SOL    HW213271   7.416   1.040   9.061 -3.6077 -2.2914 -1.6158
65221SOL     OW13272   0.089   5.947  11.204 -0.4483 -0.1164 -0.7447
65221SOL    HW113273  -0.005   5.963  11.217  0.1494  1.6560  2.8172
65221SOL    HW213274   0.096   5.853  11.190 -2.6643 -0.6639  1.1335
65222SOL     OW13275   9.657   4.947  13.182  0.5710  0.4366  0.3534
65222SOL    HW113276   9.739   4.995  13.200  0.7026  0.6390 -0.7228
65222SOL    HW213277   9.621   4.929  13.269  0.6219  2.3246  0.8262
65223SOL     OW13278  13.468   6.875   9.658 -0.5918  0.1980  0.4364
65223SOL    HW113279  13.527   6.821   9.606  0.0780  2.2256 -1.0695
65223SOL    HW213280  13.486   6.850   9.749  0.1538 -1.5709 -0.1493
65224SOL     OW13281   4.478   9.145   4.194  0.2664  0.0423 -0.4051
65224SOL    HW113282   4.435   9.167   4.277  0.0204 -1.2530 -0.1762
65224SOL    HW213283   4.508   9.230   4.160 -0.3751  0.6915  0.5851
65225SOL     OW13284  11.859  10.685   1.656 -0.4169 -0.1710 -0.1579
65225SOL    HW113285  11.892  10.665   1.744 -2.4555 -1.5101  0.3766
65225SOL    HW213286  11.903  10.766   1.632 -0.4707  0.7608  2.4953
65226SOL     OW13287   6.605   8.715   3.180  0.3240 -0.1405  0.3187
65226SOL    HW113288   6.566   8.789   3.134 -0.0627 -0.4653  0.1093
65226SOL    HW213289   6.590   8.640   3.121  0.7720 -0.3682  0.4928
65227SOL     OW13290   7.055   5.078   0.684 -0.3640 -0.0582  0.1254
65227SOL    HW113291   7.088   5.160   0.719 -3.0785  1.5417 -0.7243
65227SOL    HW213292   6.983   5.054   0.743 -0.0173 -1.5063  0.0028
65228SOL     OW13293  12.840   5.215   2.180 -0.2847  0.0108 -0.7659
65228SOL    HW113294  12.779   5.188   2.111 -0.4190 -0.0655 -0.6165
65228SOL    HW213295  12.926   5.196   2.143 -0.3266  0.5689 -1.1720
65229SOL     OW13296   0.544  12.569   4.879 -0.3272  0.0157 -0.4838
65229SOL    HW113297   0.551  12.515   4.800  0.9569 -1.3202  0.4916
65229SOL    HW213298   0.592  12.520   4.946 -0.8441  1.4211  0.9733
65230SOL     OW13299   7.596   9.136   7.955  0.2851 -0.2417  0.4449
65230SOL    HW113300   7.645   9.177   7.883 -0.8247 -0.4303 -0.4440
65230SOL    HW213301   7.625   9.045   7.955 -0.5282 -0.5127 -0.5104
65231SOL     OW13302   3.125   4.442   1.692  0.2634 -0.2539 -0.0429
65231SOL    HW113303   3.162   4.530   1.693  0.7208 -0.4340  1.5244
65231SOL    HW213304   3.111   4.423   1.599  1.1831  1.0266 -0.4747
65232SOL     OW13305  11.607   7.849   3.554 -0.2580  0.6473  0.2294
65232SOL    HW113306  11.520   7.847   3.514  0.6605 -1.4108 -1.9213
65232SOL    HW213307  11.598   7.795   3.633 -0.8789  0.2744 -0.0935
65233SOL     OW13308   2.527   8.324  12.024 -0.0134  0.1117 -0.5388
65233SOL    HW113309   2.511   8.418  12.028 -0.5497  0.1342 -2.3693
65233SOL    HW213310   2.440   8.285  12.017  0.0387 -0.7320  2.3872
65234SOL     OW13311   0.709   1.467   1.574  0.5522 -0.0337 -0.1724
65234SOL    HW113312   0.747   1.523   1.641  0.2567  0.8281 -0.7178
65234SOL    HW213313   0.700   1.523   1.497 -0.5373 -0.5905 -0.4723
65235SOL     OW13314   0.829  11.034   2.413 -0.6713  0.5305 -0.0509
65235SOL    HW113315   0.790  11.045   2.500  0.0308 -1.2750  0.5423
65235SOL    HW213316   0.900  11.098   2.411 -0.1169 -0.0096  1.0941
65236SOL     OW13317   1.353   4.595   6.802  0.1542  0.8305 -0.5206
65236SOL    HW113318   1.311   4.681   6.792 -0.0622  0.7215 -0.5519
65236SOL    HW213319   1.320   4.562   6.885 -1.6606 -0.2617 -1.5965
65237SOL     OW13320   6.665   1.934  10.472 -0.1792 -0.1078 -0.0040
65237SOL    HW113321   6.614   1.942  10.391 -1.4407  0.4403  0.8274
65237SOL    HW213322   6.633   2.005  10.528  1.1792 -0.0258  0.7317
65238SOL     OW13323   7.397  11.307   8.064 -0.0128 -0.1483  0.2811
65238SOL    HW113324   7.361  11.380   8.013 -0.2814 -0.0331  0.6284
65238SOL    HW213325   7.358  11.229   8.025 -1.3799  0.0251  1.2225
65239SOL     OW13326  13.262   3.691   9.851  0.2173 -0.3740  0.6391
65239SOL    HW113327  13.185   3.691   9.907 -0.5368  0.1527 -0.3542
65239SOL    HW213328  13.292   3.782   9.849  1.3853 -0.7084  1.6732
65240SOL     OW13329  10.941   1.715  14.066  0.1271  0.5076 -0.6817
65240SOL    HW113330  10.902   1.798  14.091  1.0585  0.9154 -0.5207
65240SOL    HW213331  10.951   1.720  13.971 -0.7396  0.1520 -0.8041
65241SOL     OW13332   5.732  13.797   5.668  0.1202  0.3292  0.1800
65241SOL    HW113333   5.739  13.810   5.763 -2.7080  1.6052  0.3409
65241SOL    HW213334   5.738  13.886   5.632 -0.5809  0.0540 -0.6412
65242SOL     OW13335   7.204   1.508   9.418  0.2085 -0.7527 -0.0929
65242SOL    HW113336   7.248   1.496   9.502  0.5657  2.3279  0.2823
65242SOL    HW213337   7.117   1.541   9.441 -0.1562 -1.0847 -0.9366
65243SOL     OW13338  10.513   1.266   5.381 -0.1527 -0.1683  0.1852
65243SOL    HW113339  10.535   1.257   5.289 -0.8252  1.0155 -0.1144
65243SOL    HW213340  10.434   1.320   5.382 -0.6018 -0.8002  1.4186
65244SOL     OW13341   3.161   6.311   5.780 -0.0742  0.5051 -0.4341
65244SOL    HW113342   3.144   6.217   5.788  0.2258  0.5187  0.4671
65244SOL    HW213343   3.084   6.353   5.817  0.6645  0.5853  1.0802
65245SOL     OW13344   6.080   6.043   5.531  0.9401  0.2596  0.0486
65245SOL    HW113345   6.124   6.004   5.607 -1.1306  0.2126  1.2938
65245SOL    HW213346   6.097   6.137   5.539  1.3275  0.1855  0.1425
65246SOL     OW13347  10.255   8.735   3.358 -0.1997 -0.5593 -0.3317
65246SOL    HW113348  10.223   8.820   3.391 -0.5845 -0.3352 -1.2553
65246SOL    HW213349  10.275   8.751   3.266  3.1319 -0.5450  0.2760
65247SOL     OW13350   1.724  12.479   0.114  0.0312 -0.0063  0.2642
65247SOL    HW113351   1.707  12.499   0.022 -0.4596 -1.3151  0.0414
65247SOL    HW213352   1.650  12.518   0.160 -0.4468 -0.4927 -0.0635
65248SOL     OW13353   0.443   4.532  11.927 -0.3001  0.0567  0.0556
65248SOL    HW113354   0.524   4.582  11.917 -0.6228  0.9343  1.4846
65248SOL    HW213355   0.374   4.598  11.920 -0.7922 -0.3787  0.7545
65249SOL     OW13356   0.847   4.581  13.720 -0.4374  0.1078 -0.9563
65249SOL    HW113357   0.812   4.634  13.792 -0.4755 -1.5721  0.3438
65249SOL    HW213358   0.849   4.492  13.756  1.8583 -0.4035 -2.2094
65250SOL     OW13359   7.891   8.428   2.963 -0.0041  0.4473  0.2731
65250SOL    HW113360   7.953   8.390   3.026 -1.7069 -0.9817  1.2061
65250SOL    HW213361   7.869   8.513   3.000  0.7834  0.6128  0.3702
65251SOL     OW13362   1.466  10.337   8.624 -0.1348 -0.0724 -0.3254
65251SOL    HW113363   1.460  10.362   8.532 -1.4006  1.1744  0.0652
65251SOL    HW213364   1.410  10.259   8.632  1.0010 -0.9774 -0.8331
65252SOL     OW13365   4.055  11.092   4.358 -0.4522 -0.2783  0.4641
65252SOL    HW113366   4.059  11.146   4.437  1.8056  0.3575 -0.0302
65252SOL    HW213367   4.101  11.012   4.382 -2.7696 -1.5975  0.8174
65253SOL     OW13368  13.825  14.017  13.838  0.3487  0.2285 -0.1149
65253SOL    HW113369  13.904  14.026  13.785 -0.2399 -1.3946 -1.3648
65253SOL    HW213370  13.857  14.004  13.927  1.4926 -0.2921 -0.5763
65254SOL     OW13371  13.264  14.021   0.970  0.4229 -0.5309  0.2275
65254SOL    HW113372  13.237  13.933   0.944  0.4431 -0.4076 -0.2201
65254SOL    HW213373  13.236  14.077   0.897  0.3165 -0.1541  0.5557
65255SOL     OW13374   1.220   6.613   5.823 -0.3669  0.1695 -0.2137
65255SOL    HW113375   1.231   6.614   5.918  2.0702  1.8077 -0.4171
65255SOL    HW213376   1.279   6.543   5.792  0.1569  0.7657 -0.5956
65256SOL     OW13377   9.501   5.792  13.810 -0.0726 -0.8591  0.2745
65256SOL    HW113378   9.521   5.778  13.903  1.5746 -0.5636  0.0035
65256SOL    HW213379   9.463   5.880  13.806  1.3590 -0.2013  0.5061
65257SOL     OW13380  13.821   9.619  12.252  0.0940  0.1125 -0.7965
65257SOL    HW113381  13.751   9.685  12.248  1.5324  1.7491 -0.2046
65257SOL    HW213382  13.866   9.637  12.335  2.1387  0.1113 -1.8453
65258SOL     OW13383   0.357  10.954   1.921  0.4494  0.3670  0.2213
65258SOL    HW113384   0.300  11.016   1.965 -3.2610 -0.9066 -2.3066
65258SOL    HW213385   0.407  11.008   1.859 -0.6688  1.1916 -0.0004
65259SOL     OW13386   6.699   3.757   2.413  0.0470  0.1619  0.0380
65259SOL    HW113387   6.659   3.765   2.326 -0.6753 -0.3663  0.3091
65259SOL    HW213388   6.645   3.813   2.469  0.4339  0.4015  0.1712
65260SOL     OW13389   0.481   1.611  10.242 -0.9125 -0.0376  0.0296
65260SOL    HW113390   0.534   1.638  10.318  0.3751 -0.4334 -0.6906
65260SOL    HW213391   0.533   1.542  10.201  0.0791  2.4052 -3.1314
65261SOL     OW13392  12.274  10.681  12.081  0.1097 -0.3378 -0.3273
65261SOL    HW113393  12.223  10.692  12.161  2.5129  2.2383  1.0139
65261SOL    HW213394  12.304  10.590  12.084 -0.0075 -0.3643  1.6459
65262SOL     OW13395   1.648  13.737   7.366 -0.6935  0.3166  0.5082
65262SOL    HW113396   1.633  13.830   7.354 -1.5867  0.3323  1.5680
65262SOL    HW213397   1.728  13.732   7.419 -0.6886  0.4886  0.5172
65263SOL     OW13398   5.001  10.663   7.225 -0.1732  0.4223 -0.0750
65263SOL    HW113399   5.070  10.690   7.286 -0.5837  1.3047  0.0186
65263SOL    HW213400   4.993  10.569   7.238  0.5682  0.4108  0.3722
65264SOL     OW13401   1.762   2.368   4.949  0.3538  0.5112  0.0067
65264SOL    HW113402   1.810   2.366   5.032  2.0729  1.3426 -0.9188
65264SOL    HW213403   1.780   2.283   4.909  0.5217  0.5761 -0.0551
65265SOL     OW13404   7.798   0.932  13.922 -0.1695  0.5844 -0.2931
65265SOL    HW113405   7.876   0.954  13.871  0.5512 -0.1042  0.4729
65265SOL    HW213406   7.781   0.840  13.900 -0.4490  0.5745 -0.0397
65266SOL     OW13407   5.136  12.139  13.117  0.2957 -0.4854 -0.1645
65266SOL    HW113408   5.127  12.048  13.089 -1.0246 -0.4548  0.0814
65266SOL    HW213409   5.174  12.134  13.204  0.0897 -0.8128 -0.0906
65267SOL     OW13410   7.501  12.813  11.602  0.3361  0.1451 -0.0040
65267SOL    HW113411   7.478  12.733  11.650 -1.1537  0.2329 -0.5082
65267SOL    HW213412   7.593  12.802  11.580 -0.2138 -2.2351 -1.5068
65268SOL     OW13413  11.855   9.196   5.174 -0.3493 -0.1352 -0.2071
65268SOL    HW113414  11.816   9.265   5.228  1.3906  0.0182  0.9004
65268SOL    HW213415  11.830   9.220   5.085 -1.5635  0.7352  0.3256
65269SOL     OW13416   5.045   7.894  13.006 -0.1506 -0.4694  0.3104
65269SOL    HW113417   4.983   7.821  13.012 -1.7760  0.9406  2.4719
65269SOL    HW213418   5.056   7.923  13.096  0.7359  1.7020 -0.4298
65270SOL     OW13419   5.115   4.893   3.050 -0.4271 -0.3122 -0.6226
65270SOL    HW113420   5.201   4.858   3.073  0.1497  1.3682 -0.0331
65270SOL    HW213421   5.083   4.933   3.131 -1.1942  0.2027 -1.1629
65271SOL     OW13422   8.733   7.247   9.106 -0.0662 -0.2161 -0.3668
65271SOL    HW113423   8.728   7.176   9.042  0.1685  0.0336 -0.6611
65271SOL    HW213424   8.792   7.213   9.174 -0.1866 -0.4170 -0.3611
65272SOL     OW13425   9.608   9.587   2.848 -0.0120  0.2653  0.2420
65272SOL    HW113426   9.559   9.505   2.841  0.0871  0.2343 -0.0941
65272SOL    HW213427   9.601   9.611   2.940 -0.1496 -0.0549  0.3161
65273SOL     OW13428   6.502   3.810  11.130  0.0982 -0.2040  1.0261
65273SOL    HW113429   6.522   3.721  11.159 -1.7866 -0.7542  0.7203
65273SOL    HW213430   6.554   3.866  11.188 -2.7271 -1.2484  4.9791
65274SOL     OW13431   3.490  10.643   0.708  1.0894 -0.0227 -0.2665
65274SOL    HW113432   3.528  10.633   0.795 -0.0576  0.3201  0.2898
65274SOL    HW213433   3.441  10.562   0.693  0.2692  0.4283 -0.0684
65275SOL     OW13434  10.548   5.555  10.065 -0.1794 -0.0432 -0.5803
65275SOL    HW113435  10.526   5.525   9.977 -0.1618  0.0384 -0.6119
65275SOL    HW213436  10.605   5.486  10.100 -0.8183 -0.4637 -0.3413
65276SOL     OW13437   5.469   2.160   6.466  0.8494  0.1100 -0.1250
65276SOL    HW113438   5.398   2.222   6.483  0.1759 -0.7333  0.2705
65276SOL    HW213439   5.541   2.191   6.521  0.7517  0.9190 -0.4472
65277SOL     OW13440   2.132   5.619   2.604 -0.1425  1.0575  0.0048
65277SOL    HW113441   2.169   5.654   2.685 -0.5597  0.5723  0.4105
65277SOL    HW213442   2.098   5.533   2.628 -0.1033  0.8253 -0.7306
65278SOL     OW13443   8.459   2.007  10.964 -0.4559  0.6173  0.3597
65278SOL    HW113444   8.500   2.060  10.896 -0.2830  1.7294  1.3019
65278SOL    HW213445   8.387   2.061  10.997 -0.2139  0.3208  1.4213
65279SOL     OW13446   3.600   0.286   7.638  0.0733 -0.0096 -0.1516
65279SOL    HW113447   3.540   0.315   7.707  0.2957 -0.8742  0.4143
65279SOL    HW213448   3.547   0.229   7.583  0.6524 -1.8840  1.1107
65280SOL     OW13449   4.569   1.322   7.263 -0.3218  0.3479 -0.4077
65280SOL    HW113450   4.516   1.297   7.339  0.2038  0.7099  0.0858
65280SOL    HW213451   4.546   1.413   7.246 -1.3392 -0.0896 -1.4513
65281SOL     OW13452   2.027   9.881  11.614  0.1534  0.1665  0.7378
65281SOL    HW113453   1.938   9.909  11.595  0.6054  0.5517 -0.9665
65281SOL    HW213454   2.080   9.959  11.600  0.8535 -0.2655  0.9222
65282SOL     OW13455   5.869   6.245   3.813 -0.4982 -0.2355  0.0324
65282SOL    HW113456   5.961   6.220   3.817 -0.1410  1.1517  1.0791
65282SOL    HW213457   5.868   6.329   3.769 -1.0066  0.7968  1.9209
65283SOL     OW13458   3.751   4.497  10.899  0.1601 -0.5430 -0.0308
65283SOL    HW113459   3.830   4.444  10.903  0.5439 -0.0354 -0.8313
65283SOL    HW213460   3.684   4.443  10.943  0.4884 -1.7782 -1.0031
65284SOL     OW13461  13.139   1.662  13.192  0.2226 -0.2635  0.0996
65284SOL    HW113462  13.079   1.695  13.259  1.1797  0.2117  0.7664
65284SOL    HW213463  13.183   1.588  13.234  1.0227  0.2037  0.1301
65285SOL     OW13464  10.560  11.753   3.418  0.1933 -0.0506 -0.0183
65285SOL    HW113465  10.556  11.658   3.433  0.5103  0.2370  2.4289
65285SOL    HW213466  10.535  11.765   3.326 -0.2633 -2.4612 -0.2674
65286SOL     OW13467  12.902   7.973   7.708  0.0565 -0.0600  0.4464
65286SOL    HW113468  12.879   8.023   7.786  1.6166  0.9887  0.2787
65286SOL    HW213469  12.960   8.031   7.658  2.5627 -2.2191  0.5904
65287SOL     OW13470   0.848   8.695  11.534 -0.1285 -0.2954  0.2685
65287SOL    HW113471   0.793   8.677  11.458 -0.4591  0.0412  0.4223
65287SOL    HW213472   0.848   8.612  11.584 -0.7669 -0.2026  0.4328
65288SOL     OW13473   7.346   6.004  12.247 -0.2573 -0.2010 -0.2085
65288SOL    HW113474   7.374   5.996  12.156 -0.2828  0.2770 -0.2586
65288SOL    HW213475   7.340   6.098  12.262 -1.1631 -0.2905  0.0108
65289SOL     OW13476   8.610   1.764   6.922  0.9620  0.2426 -0.4795
65289SOL    HW113477   8.527   1.731   6.956  0.7817  0.1587 -1.0013
65289SOL    HW213478   8.588   1.846   6.879  1.3909  1.0216  0.7202
65290SOL     OW13479   0.235   6.434   9.138  0.0384 -0.3430 -0.1470
65290SOL    HW113480   0.261   6.385   9.216  1.4477  0.3333 -0.1617
65290SOL    HW213481   0.139   6.437   9.142  0.0960  1.3860  2.6286
65291SOL     OW13482   2.450   7.635  12.422  0.4790  0.9881  0.1104
65291SOL    HW113483   2.419   7.721  12.393 -2.2900  0.5313  1.3979
65291SOL    HW213484   2.400   7.572  12.370  0.7890  0.1779  0.7640
65292SOL     OW13485   4.526   4.791   5.669 -0.1843 -0.2295 -0.4574
65292SOL    HW113486   4.565   4.872   5.703  0.6804 -0.4907 -0.7938
65292SOL    HW213487   4.562   4.722   5.724  1.1323 -0.6429 -1.7838
65293SOL     OW13488  11.515   8.168   5.324  0.6082 -0.6579  0.6106
65293SOL    HW113489  11.558   8.084   5.309  0.2506 -1.0031  1.4905
65293SOL    HW213490  11.586   8.232   5.316  1.0443 -1.1104  0.7834
65294SOL     OW13491   5.582   1.264  11.662  0.9822  0.3175  0.1492
65294SOL    HW113492   5.572   1.185  11.608  1.4875 -0.1518  0.7252
65294SOL    HW213493   5.497   1.275  11.703  0.6199  0.6275 -0.6735
65295SOL     OW13494   7.698   0.842   5.833  0.4040 -0.0233  0.4309
65295SOL    HW113495   7.705   0.771   5.898 -2.6826 -0.2993  0.6125
65295SOL    HW213496   7.637   0.808   5.768  1.9906  0.9946 -1.6775
65296SOL     OW13497   0.020   7.499   1.051 -0.3592 -0.0741 -0.2130
65296SOL    HW113498  -0.064   7.458   1.074 -0.5123 -0.8495 -1.9664
65296SOL    HW213499   0.081   7.469   1.119 -1.5380  0.7678  1.2795
65297SOL     OW13500   5.226  11.019  10.009  0.3258  0.0847 -0.0866
65297SOL    HW113501   5.316  10.999  10.035 -0.1732 -0.6527  1.1577
65297SOL    HW213502   5.228  11.113   9.990  1.4082  0.0266 -0.3569
65298SOL     OW13503   9.310   9.830  13.949 -0.0797  0.6301 -0.5214
65298SOL    HW113504   9.286   9.891  14.019 -0.4695  0.9919 -0.9656
65298SOL    HW213505   9.229   9.783  13.930  0.6908 -1.6401  1.3488
65299SOL     OW13506  10.386  12.839   0.393  0.2765 -0.3084  0.1697
65299SOL    HW113507  10.382  12.746   0.414  4.5103 -0.9677 -1.0614
65299SOL    HW213508  10.384  12.882   0.478 -1.0585 -1.5190  0.7967
65300SOL     OW13509  13.800   8.282  10.003 -0.9115 -0.6006  0.0797
65300SOL    HW113510  13.764   8.249   9.921 -0.7686  0.2305 -0.3351
65300SOL    HW213511  13.863   8.216  10.031 -2.6165 -2.0198  0.7500
65301SOL     OW13512  12.802   1.622   8.252 -0.2724 -0.0479  0.0550
65301SOL    HW113513  12.731   1.620   8.316 -1.0365  1.8425 -0.6481
65301SOL    HW213514  12.843   1.536   8.258 -2.0264 -0.8541  1.1489
65302SOL     OW13515   0.963   1.502   0.811 -0.6729 -0.2726  0.5405
65302SOL    HW113516   0.891   1.445   0.840 -0.9079  0.0134  0.5199
65302SOL    HW213517   0.961   1.576   0.871  2.2083 -2.1044  3.2634
65303SOL     OW13518   2.435   0.458   5.024  0.0864 -0.2866  0.1121
65303SOL    HW113519   2.351   0.459   4.978 -0.6922 -0.1089  1.4861
65303SOL    HW213520   2.437   0.540   5.072 -0.2720 -1.5022  2.3334
65304SOL     OW13521  13.533   1.180   4.186  0.2071 -0.0071  0.3155
65304SOL    HW113522  13.581   1.126   4.248 -0.4766 -1.3322 -0.2761
65304SOL    HW213523  13.559   1.147   4.100  0.1040  0.8985 -0.0758
65305SOL     OW13524  10.953   6.120   6.471 -0.4192  0.2121 -0.4674
65305SOL    HW113525  10.883   6.109   6.535 -0.9915  0.3189 -1.0670
65305SOL    HW213526  10.974   6.214   6.475 -0.9954  0.3683 -0.9867
65306SOL     OW13527   1.030   8.239   4.030  0.3476 -0.0263  0.1161
65306SOL    HW113528   0.974   8.254   3.954  0.5900  0.2140 -0.0124
65306SOL    HW213529   0.968   8.220   4.101  0.1490 -2.2370 -0.5592
65307SOL     OW13530   2.461  12.849   2.353  0.0053 -0.2848  0.1560
65307SOL    HW113531   2.545  12.856   2.308  0.6933  0.2633  1.4692
65307SOL    HW213532   2.446  12.755   2.363  1.3187 -0.3933  1.3979
65308SOL     OW13533   7.202  11.880   2.808  0.1783 -0.2732 -0.1750
65308SOL    HW113534   7.228  11.788   2.806 -0.9942 -0.6080 -1.0225
65308SOL    HW213535   7.168  11.894   2.896  0.1453 -0.7183 -0.1172
65309SOL     OW13536  10.744   3.405  12.830  0.3097 -0.3555  0.2801
65309SOL    HW113537  10.827   3.364  12.809  0.8471  1.5787 -1.7135
65309SOL    HW213538  10.678   3.339  12.808  1.2457 -1.4919  0.7962
65310SOL     OW13539  13.836   6.376  11.926 -0.3739  0.1132  0.8269
65310SOL    HW113540  13.871   6.361  11.838 -1.7247 -1.7754  0.5422
65310SOL    HW213541  13.904   6.427  11.971  2.0733 -2.0944 -0.1238
65311SOL     OW13542  11.158   8.682   2.883  0.0910 -0.5948 -0.3673
65311SOL    HW113543  11.120   8.766   2.908 -3.4825 -1.7497 -1.3248
65311SOL    HW213544  11.196   8.697   2.797  0.4400  0.2735 -0.0684
65312SOL     OW13545   3.564   8.401  12.801 -0.2203  0.4603  0.9025
65312SOL    HW113546   3.469   8.391  12.795 -0.2677  0.1382  1.9933
65312SOL    HW213547   3.587   8.460  12.729 -1.1458 -0.0593  0.1672
65313SOL     OW13548   9.709   2.413   4.491 -0.0441  0.1134 -0.4207
65313SOL    HW113549   9.724   2.334   4.543  0.2699 -0.6698 -1.6599
65313SOL    HW213550   9.662   2.472   4.550  0.7044 -0.5637  0.8849
65314SOL     OW13551   4.431   1.865   5.487 -0.0498 -0.4519  0.2506
65314SOL    HW113552   4.356   1.921   5.509 -0.4604 -1.0530  0.3956
65314SOL    HW213553   4.393   1.781   5.463  0.4878 -0.2857 -1.2977
65315SOL     OW13554  12.849   0.385   9.878 -0.1320 -0.4600 -0.2253
65315SOL    HW113555  12.791   0.361   9.806 -1.0901 -0.3520  0.4928
65315SOL    HW213556  12.849   0.481   9.878  0.0627 -0.4597 -0.2331
65316SOL     OW13557   5.087  12.758   5.218  0.0335  0.4260  0.4999
65316SOL    HW113558   5.062  12.830   5.275 -0.9794  0.1110  0.4835
65316SOL    HW213559   5.182  12.752   5.226  0.0250  1.1293  1.2486
65317SOL     OW13560   8.092  10.804   3.725  0.0038 -0.2587 -0.0875
65317SOL    HW113561   8.104  10.891   3.685  0.3096 -0.0245  0.4918
65317SOL    HW213562   8.158  10.749   3.682  0.1027 -0.0943 -0.1484
65318SOL     OW13563   9.028   3.654  11.540  0.3279 -0.5720  0.1698
65318SOL    HW113564   9.003   3.567  11.512  1.0137 -1.0862  1.0965
65318SOL    HW213565   9.122   3.660  11.523  0.4103 -0.2543  0.6831
65319SOL     OW13566   4.612  11.989   5.736  0.6431  0.0511  0.9765
65319SOL    HW113567   4.658  12.046   5.797 -1.0137  2.8304 -0.1759
65319SOL    HW213568   4.522  11.985   5.770  0.0214  0.5861 -0.5058
65320SOL     OW13569   4.399   6.135   4.333  0.2060 -0.0511 -0.0387
65320SOL    HW113570   4.314   6.161   4.369  1.2886 -0.1754  2.9097
65320SOL    HW213571   4.384   6.048   4.296 -1.4884  1.0240 -2.1187
65321SOL     OW13572   0.501   6.007  12.976  0.0972  0.1051 -0.1512
65321SOL    HW113573   0.499   6.102  12.960 -2.4161 -0.1868 -2.3167
65321SOL    HW213574   0.519   5.969  12.890 -1.7925 -1.4146  0.0620
65322SOL     OW13575  10.249   3.007   2.575  0.5338  0.2185  0.1905
65322SOL    HW113576  10.278   3.095   2.601  0.7459  0.2141 -0.0252
65322SOL    HW213577  10.169   2.993   2.624 -0.3924  1.1927 -0.9675
65323SOL     OW13578   1.901   0.017   3.204 -0.1990  0.2461  0.7655
65323SOL    HW113579   1.938   0.012   3.116 -2.1998  0.6289 -0.1626
65323SOL    HW213580   1.854  -0.065   3.216 -0.0945  0.2723  1.4167
65324SOL     OW13581  13.429   9.759   8.170 -0.6937  0.0373  0.0869
65324SOL    HW113582  13.490   9.686   8.156 -1.4388 -1.0448  2.0896
65324SOL    HW213583  13.406   9.788   8.081 -0.4413 -2.2414 -0.8038
65325SOL     OW13584   3.297   2.824   7.306 -0.1108 -0.2023  0.0525
65325SOL    HW113585   3.211   2.852   7.276 -1.3696 -2.4260  1.3383
65325SOL    HW213586   3.297   2.844   7.400  1.3862  1.0886 -0.1769
65326SOL     OW13587   0.164  13.083   0.996 -0.0809  0.4442  0.0588
65326SOL    HW113588   0.071  13.101   1.007 -0.0215  1.2792 -0.7621
65326SOL    HW213589   0.179  13.006   1.051 -1.2226  0.3675  0.2971
65327SOL     OW13590   3.795  13.956  11.267 -0.4824 -0.4108  0.3012
65327SOL    HW113591   3.849  13.897  11.214 -0.5296 -1.2105  1.1196
65327SOL    HW213592   3.853  13.987  11.335 -0.9850 -1.1289  1.0789
65328SOL     OW13593   5.953   3.310   2.656 -0.2376  0.1042 -0.1115
65328SOL    HW113594   5.857   3.310   2.661 -0.5085 -1.6775 -2.9766
65328SOL    HW213595   5.980   3.231   2.702 -0.2522  0.0467 -0.2001
65329SOL     OW13596   5.515   2.136   2.743 -0.4363 -0.0750 -0.3051
65329SOL    HW113597   5.607   2.111   2.755 -0.1630  0.5829 -0.8993
65329SOL    HW213598   5.485   2.159   2.831 -0.2414 -0.9445  0.0018
65330SOL     OW13599   6.948  12.539   9.149  0.1744 -0.3207 -0.3497
65330SOL    HW113600   6.984  12.543   9.238  0.0404 -1.4269 -0.2340
65330SOL    HW213601   7.007  12.480   9.102 -0.8184 -1.2329 -0.4736
65331SOL     OW13602   9.872   5.231   8.657 -0.1621 -0.1191  0.1028
65331SOL    HW113603   9.850   5.147   8.696 -1.1089 -0.3406 -0.8570
65331SOL    HW213604   9.837   5.226   8.568  0.5879  0.9405 -0.2746
65332SOL     OW13605   0.735   7.256  12.760 -0.2375 -0.5198 -0.3648
65332SOL    HW113606   0.697   7.312  12.692  0.0650  0.8166  0.5308
65332SOL    HW213607   0.758   7.316  12.830 -0.0762 -1.8121  0.7254
65333SOL     OW13608  10.059   2.585   2.238  0.4741  0.5809 -0.2704
65333SOL    HW113609  10.065   2.680   2.249  0.9851  0.6268 -0.8738
65333SOL    HW213610  10.080   2.570   2.146  0.7939 -0.1488 -0.0907
65334SOL     OW13611   1.189  11.001   2.899  0.0912  0.5525  0.1277
65334SOL    HW113612   1.121  11.021   2.963  2.0209 -0.6300  2.7688
65334SOL    HW213613   1.226  10.918   2.930  1.6040  0.2944 -2.1804
65335SOL     OW13614   3.653  12.729   8.808  0.7608 -0.1381  0.3919
65335SOL    HW113615   3.656  12.636   8.789  2.3202 -0.0387  0.0384
65335SOL    HW213616   3.619  12.769   8.728  2.2024 -0.2264 -0.3023
65336SOL     OW13617  10.103   2.020   9.263  0.2356  0.0566  0.3036
65336SOL    HW113618  10.138   2.097   9.308 -1.3662  0.1746  1.4379
65336SOL    HW213619  10.043   1.981   9.326  0.6464 -1.8741 -0.4366
65337SOL     OW13620   4.006   0.645   6.070  0.2095  0.3087  0.4481
65337SOL    HW113621   3.973   0.720   6.020  0.4750 -1.3489 -2.4329
65337SOL    HW213622   3.962   0.569   6.031  2.2947 -1.3290  1.0904
65338SOL     OW13623   2.138   2.801   0.690  0.1986  0.0595  0.4668
65338SOL    HW113624   2.048   2.768   0.700 -0.3827  1.1601 -0.8264
65338SOL    HW213625   2.144   2.873   0.754 -0.4661  1.1348 -0.6277
65339SOL     OW13626   7.547   8.789   8.824 -0.1136  0.5454 -0.6159
65339SOL    HW113627   7.495   8.711   8.841  2.0984 -0.8137  0.3234
65339SOL    HW213628   7.497   8.860   8.864 -0.8857 -0.7949  0.9151
65340SOL     OW13629   1.224   1.625  10.112  0.6097  0.0147  0.0630
65340SOL    HW113630   1.248   1.718  10.111 -2.0281  0.7894  1.4172
65340SOL    HW213631   1.276   1.587  10.183  0.5179  0.8335  0.5766
65341SOL     OW13632   4.767  11.110   5.901  0.3119 -0.1592 -0.3401
65341SOL    HW113633   4.720  11.192   5.910 -0.2145 -0.4401 -0.4783
65341SOL    HW213634   4.778  11.077   5.990  2.1651  0.9515 -0.1088
65342SOL     OW13635   6.795   4.485   5.012  0.1197 -0.0673  0.3186
65342SOL    HW113636   6.709   4.526   5.023 -0.3598 -1.2865  1.3857
65342SOL    HW213637   6.803   4.425   5.087  1.1163 -1.3248 -0.7484
65343SOL     OW13638   4.106  11.227   1.457 -0.1287 -0.3601 -0.4280
65343SOL    HW113639   4.188  11.245   1.411 -0.7294 -0.0770 -1.4169
65343SOL    HW213640   4.090  11.134   1.444  0.8130 -0.7638  1.0908
65344SOL     OW13641   1.043  13.254   9.226 -0.1533 -0.1272  0.0150
65344SOL    HW113642   1.042  13.185   9.160  0.9854 -1.0331  0.8965
65344SOL    HW213643   0.965  13.236   9.280  0.0341 -0.6177  0.1285
65345SOL     OW13644   2.376   8.904   4.936 -0.1062 -0.0022 -0.4857
65345SOL    HW113645   2.456   8.890   4.886  0.7193  0.1592  0.7497
65345SOL    HW213646   2.400   8.882   5.026 -1.1805  0.9807  0.0673
65346SOL     OW13647  12.517  13.691   5.118  0.2442  0.2702  0.5526
65346SOL    HW113648  12.530  13.768   5.062  0.0655 -0.4365 -0.4962
65346SOL    HW213649  12.426  13.699   5.149  1.1844  2.2156  3.2361
65347SOL     OW13650   7.433   2.538   5.148 -0.3062 -0.3478  0.5434
65347SOL    HW113651   7.484   2.477   5.202  0.2289  0.0302  0.4687
65347SOL    HW213652   7.389   2.482   5.084 -0.5474 -0.7474  1.0452
65348SOL     OW13653   3.658   0.056   0.583 -0.1744  0.7067 -0.2674
65348SOL    HW113654   3.713   0.127   0.617 -2.0704  2.0930  0.0861
65348SOL    HW213655   3.638   0.082   0.493 -0.0631  0.0978 -0.4716
65349SOL     OW13656   3.457   9.822   2.710  0.4573  0.0844  0.3516
65349SOL    HW113657   3.463   9.731   2.681  0.9579  0.4494 -0.7317
65349SOL    HW213658   3.455   9.816   2.805  0.3914 -1.0637  0.2967
65350SOL     OW13659   1.740   1.649  12.468 -0.0269  0.0415 -0.2654
65350SOL    HW113660   1.674   1.717  12.458 -0.2209  0.0136  0.7557
65350SOL    HW213661   1.824   1.695  12.457 -0.1525  0.4719  0.4846
65351SOL     OW13662  12.711   9.476  13.851 -1.1144 -0.1001 -0.3769
65351SOL    HW113663  12.685   9.465  13.943  0.9218  0.6050  0.3662
65351SOL    HW213664  12.742   9.390  13.824  1.5797  0.3744  0.8252
65352SOL     OW13665   9.215   3.708  13.175  0.7836  0.4565 -0.0644
65352SOL    HW113666   9.199   3.800  13.196  0.2235  0.0245  1.6172
65352SOL    HW213667   9.253   3.709  13.087 -0.8224  2.1527 -0.8006
65353SOL     OW13668  11.698  10.652   3.169 -0.8895  0.2813  0.3995
65353SOL    HW113669  11.663  10.732   3.208 -1.2624 -0.3200  1.3220
65353SOL    HW213670  11.741  10.606   3.241  0.7222  0.3865 -0.4454
65354SOL     OW13671   7.553   4.120  12.567 -0.1054 -0.0920 -0.3299
65354SOL    HW113672   7.577   4.199  12.520  2.6625 -1.5886 -1.7104
65354SOL    HW213673   7.596   4.128  12.652 -1.4337  0.6693  0.3003
65355SOL     OW13674   6.308  11.781   3.528  0.3961 -0.0503  0.1771
65355SOL    HW113675   6.326  11.875   3.531 -1.5394  0.3915 -0.3524
65355SOL    HW213676   6.307  11.754   3.620  0.0741  0.6586  0.3899
65356SOL     OW13677   4.806   1.529   4.937  0.2612  0.2473 -0.1475
65356SOL    HW113678   4.822   1.507   5.029 -4.1734 -2.3094  0.2990
65356SOL    HW213679   4.778   1.621   4.939 -2.0426 -0.3980  1.5461
65357SOL     OW13680  13.143   0.984   7.708  0.0739 -0.2472  0.4206
65357SOL    HW113681  13.096   1.062   7.680  0.0526  0.0823  1.3739
65357SOL    HW213682  13.235   1.010   7.710  0.3824 -0.9607 -1.6902
65358SOL     OW13683   4.496  10.994   8.771 -0.3190  0.2255  0.0806
65358SOL    HW113684   4.410  10.951   8.778  0.1860 -0.7966  0.1540
65358SOL    HW213685   4.478  11.075   8.723 -1.0665 -0.7725 -1.3969
65359SOL     OW13686  13.747  12.063  13.375 -0.2635 -0.2418 -0.3427
65359SOL    HW113687  13.828  12.104  13.404  0.5482 -1.3948 -0.8992
65359SOL    HW213688  13.771  12.016  13.295 -2.1648  1.9458 -2.3435
65360SOL     OW13689   5.300  13.109  11.195 -0.0300 -0.0236 -0.4283
65360SOL    HW113690   5.358  13.113  11.119  0.4275 -4.5238 -0.5622
65360SOL    HW213691   5.213  13.093  11.158 -0.3701  0.8003 -0.0223
65361SOL     OW13692   1.444   3.789   5.879 -0.4746  0.0377 -0.1277
65361SOL    HW113693   1.380   3.798   5.808 -1.1727  0.7265  0.5593
65361SOL    HW213694   1.397   3.820   5.957  0.7170  0.5841  0.3913
65362SOL     OW13695   9.499   4.384  13.879  0.0135  0.6065  0.7172
65362SOL    HW113696   9.499   4.316  13.812 -0.0618  0.4548  0.8710
65362SOL    HW213697   9.575   4.363  13.934  0.6891  1.3211  0.0863
65363SOL     OW13698   4.415   7.314   3.780  0.7858 -0.5060  0.1520
65363SOL    HW113699   4.355   7.240   3.767  0.0660  0.3161 -1.4735
65363SOL    HW213700   4.430   7.349   3.692  2.6754  0.0959  0.6726
65364SOL     OW13701  11.082   2.821   2.493 -0.3958 -0.5764 -0.9038
65364SOL    HW113702  11.017   2.872   2.541  0.6027 -1.1242  1.1795
65364SOL    HW213703  11.072   2.849   2.402 -2.1333  0.8311 -0.3566
65365SOL     OW13704   5.100   5.467   2.066  0.3041  0.1944  0.6400
65365SOL    HW113705   5.102   5.505   1.978 -1.6231 -3.7469 -1.3868
65365SOL    HW213706   5.192   5.464   2.093  1.0948  0.5458 -1.7604
65366SOL     OW13707   2.707  12.844  11.403 -0.0656  0.4336 -0.1626
65366SOL    HW113708   2.759  12.889  11.469  1.8906 -0.1170 -1.2596
65366SOL    HW213709   2.646  12.910  11.371  2.4918  2.3004 -1.4933
65367SOL     OW13710  10.189   9.888   8.950  0.4589  0.5825 -0.5257
65367SOL    HW113711  10.200   9.901   8.855 -0.0289 -0.1923 -0.7040
65367SOL    HW213712  10.103   9.845   8.957 -0.1312  1.8594  0.3808
65368SOL     OW13713  13.786   6.610   6.827  0.1831 -0.2486 -0.4490
65368SOL    HW113714  13.873   6.587   6.861  0.1533  0.6393  0.2758
65368SOL    HW213715  13.801   6.687   6.773 -0.2647  0.4742  0.4248
65369SOL     OW13716   1.102   9.729   3.650  0.1909 -0.0552  0.4123
65369SOL    HW113717   1.036   9.666   3.679  1.6216 -2.3638 -1.0593
65369SOL    HW213718   1.161   9.679   3.594  2.6027  2.1442  0.7769
65370SOL     OW13719   6.368   0.687   1.805  0.1353  0.0694  0.2279
65370SOL    HW113720   6.283   0.657   1.774  0.5572 -1.3226  0.3354
65370SOL    HW213721   6.415   0.607   1.828  1.3842  0.8181  0.4120
65371SOL     OW13722   7.911   0.801   6.070 -0.2833  0.0714  0.9116
65371SOL    HW113723   7.839   0.746   6.039  1.6069 -0.7759 -2.4680
65371SOL    HW213724   7.908   0.879   6.015  2.4997 -0.9367 -0.8908
65372SOL     OW13725   4.667   6.192   6.718 -0.4089 -0.1698  0.3702
65372SOL    HW113726   4.599   6.165   6.780 -2.2284 -0.0328 -1.4560
65372SOL    HW213727   4.636   6.275   6.683  1.8852  1.0894  1.1153
65373SOL     OW13728   7.584   4.104   5.674 -0.7684  0.4429  0.2148
65373SOL    HW113729   7.584   4.181   5.617  1.8082  0.5064  0.1495
65373SOL    HW213730   7.541   4.036   5.622  0.4678  0.8217 -1.3983
65374SOL     OW13731   1.838  13.419  13.934  0.3046 -0.0341  0.1153
65374SOL    HW113732   1.789  13.357  13.879 -0.4955  0.2085  0.5329
65374SOL    HW213733   1.809  13.399  14.023 -0.7230  1.5650  0.1819
65375SOL     OW13734   2.643   2.069   3.238  0.0862 -0.2484 -0.0343
65375SOL    HW113735   2.606   2.154   3.261 -1.7665 -0.7749 -0.8644
65375SOL    HW213736   2.713   2.089   3.177  1.6507  0.8270  2.0170
65376SOL     OW13737   9.999  11.238  11.607 -0.1818 -0.1934  0.1941
65376SOL    HW113738   9.907  11.232  11.633 -0.0813  0.9696  0.8939
65376SOL    HW213739  10.036  11.306  11.663  1.1406 -0.7029 -0.0122
65377SOL     OW13740   9.742   3.136   9.414 -0.0165  0.2640  0.4097
65377SOL    HW113741   9.795   3.091   9.479  1.2429 -0.9660 -1.3839
65377SOL    HW213742   9.681   3.070   9.382  0.9700  0.1306 -1.3154
65378SOL     OW13743   4.726  11.508   0.961  0.5754  0.3898  0.0333
65378SOL    HW113744   4.719  11.592   1.006 -2.2716 -0.6626  1.8358
65378SOL    HW213745   4.708  11.442   1.029  2.1507 -1.6880 -1.4239
65379SOL     OW13746   7.508   3.540   3.806 -0.4659  0.2962  0.2266
65379SOL    HW113747   7.569   3.549   3.879  1.8535 -0.1308 -1.5474
65379SOL    HW213748   7.495   3.630   3.775  0.1427  0.2983 -0.0410
65380SOL     OW13749   8.739   1.893   0.972  0.4346 -0.3975  0.4184
65380SOL    HW113750   8.812   1.833   0.963  1.5486  0.9283  0.2488
65380SOL    HW213751   8.716   1.890   1.065 -1.1030 -2.7936  0.0436
65381SOL     OW13752   7.519  13.686   8.408 -0.3610  0.7085 -0.0871
65381SOL    HW113753   7.570  13.638   8.473  0.0496  2.1360  0.6878
65381SOL    HW213754   7.572  13.682   8.329 -0.7558 -0.8498 -0.3052
65382SOL     OW13755   1.752  11.283   3.279 -0.1156  0.2360 -0.8185
65382SOL    HW113756   1.799  11.269   3.197  1.4406  0.3811 -0.0036
65382SOL    HW213757   1.798  11.356   3.321 -0.6464 -0.0613  0.3365
65383SOL     OW13758   1.330  12.606  13.548  0.1258  0.1212  0.2052
65383SOL    HW113759   1.288  12.520  13.553  0.4452 -0.2440 -1.9738
65383SOL    HW213760   1.266  12.667  13.585 -1.7311 -0.6261 -1.5370
65384SOL     OW13761  11.496   7.015  13.425 -0.5486 -0.4608 -0.4252
65384SOL    HW113762  11.430   6.980  13.485 -2.4113 -0.7614 -2.5570
65384SOL    HW213763  11.485   7.110  13.430  1.0957 -0.3047  1.5794
65385SOL     OW13764   3.266   7.368   6.025 -0.3959 -0.2572 -0.0910
65385SOL    HW113765   3.288   7.395   6.114 -0.4684  1.6619 -0.6144
65385SOL    HW213766   3.346   7.326   5.992  0.6537  1.6372 -0.0766
65386SOL     OW13767   7.922   2.084  10.762 -0.4608  0.5887 -0.1414
65386SOL    HW113768   7.869   2.012  10.797 -0.5085  1.3616  1.4331
65386SOL    HW213769   7.883   2.163  10.798  0.8757  1.2817 -0.1416
65387SOL     OW13770  12.192   7.518  12.122 -0.2376  0.3363 -0.1344
65387SOL    HW113771  12.181   7.586  12.187 -0.4923  0.6848 -0.5389
65387SOL    HW213772  12.178   7.562  12.038 -0.2440 -0.1754 -0.4073
65388SOL     OW13773   9.420   6.790   0.916  0.2476  0.3170 -0.2256
65388SOL    HW113774   9.405   6.707   0.961 -3.6200  0.9459 -0.0650
65388SOL    HW213775   9.450   6.765   0.828 -0.2519 -1.2036  0.0183
65389SOL     OW13776   9.322   6.310   0.011  0.6810  0.1869 -0.5122
65389SOL    HW113777   9.270   6.272   0.082  2.8662  0.3556  1.2999
65389SOL    HW213778   9.369   6.236  -0.027  0.8772  0.3395 -0.5697
65390SOL     OW13779   7.813   2.769   0.292  0.3702  0.3732  0.1208
65390SOL    HW113780   7.865   2.806   0.363 -0.4750  0.3326  0.7765
65390SOL    HW213781   7.869   2.776   0.214  2.1900 -1.5440  1.1528
65391SOL     OW13782   5.339  13.392   8.856  0.3942 -0.2742  0.3369
65391SOL    HW113783   5.309  13.309   8.893  0.1284 -1.5455 -2.4670
65391SOL    HW213784   5.409  13.420   8.915  0.7482 -2.6870  1.1946
65392SOL     OW13785   0.066   5.233   1.261 -0.3199  0.1142  0.4585
65392SOL    HW113786   0.074   5.328   1.269 -0.6925  0.1848  0.0579
65392SOL    HW213787   0.099   5.213   1.174 -1.0363 -0.0156  0.2068
65393SOL     OW13788  14.068   5.109  11.899 -0.3334 -0.5343  0.3352
65393SOL    HW113789  13.984   5.077  11.867 -0.3073 -2.2175  1.7753
65393SOL    HW213790  14.050   5.136  11.990  0.5090 -0.1451  0.3989
65394SOL     OW13791   8.847   3.527   2.618  0.1173  0.1907  0.0604
65394SOL    HW113792   8.804   3.443   2.635 -0.7236  0.4172 -0.8477
65394SOL    HW213793   8.851   3.532   2.522  1.5965  0.4827  0.1100
65395SOL     OW13794   3.240  12.847   8.208 -0.7639 -0.1410  0.0757
65395SOL    HW113795   3.151  12.855   8.243 -0.5556 -1.2561  0.9165
65395SOL    HW213796   3.280  12.932   8.225 -1.4837  0.1752  0.2338
65396SOL     OW13797   2.288   5.407  13.106 -0.2575  0.0567 -0.0913
65396SOL    HW113798   2.381   5.385  13.110 -0.0505  1.1174  3.0894
65396SOL    HW213799   2.243   5.323  13.120  0.2298 -0.1852  0.0430
65397SOL     OW13800  10.261   3.880  12.067  0.1344  0.0254 -0.0594
65397SOL    HW113801  10.331   3.852  12.009  0.5338  0.0464  0.4084
65397SOL    HW213802  10.181   3.850  12.024  0.3106  1.3310 -1.3649
65398SOL     OW13803   5.937   9.672  12.967 -0.2883 -0.6178 -0.0680
65398SOL    HW113804   5.928   9.614  13.042  0.0856 -0.0312  0.4374
65398SOL    HW213805   5.850   9.674  12.927 -0.4825 -0.9434  0.3369
65399SOL     OW13806   9.164   1.432   7.418 -0.6684 -0.2700 -0.1949
65399SOL    HW113807   9.080   1.470   7.392 -0.6214  0.1330  0.2225
65399SOL    HW213808   9.149   1.338   7.420 -0.5171 -0.3865 -2.2431
65400SOL     OW13809   3.484  11.430   0.022 -0.0223  0.0793 -0.3962
65400SOL    HW113810   3.503  11.424   0.116  0.6870  0.5788 -0.4958
65400SOL    HW213811   3.393  11.405   0.014 -0.4142  1.1128  0.5705
65401SOL     OW13812  12.406   2.582   1.454  0.4649  0.0583  0.1454
65401SOL    HW113813  12.422   2.565   1.361  0.0758 -1.2142  0.2894
65401SOL    HW213814  12.419   2.676   1.464  0.5723  0.2029 -1.1858
65402SOL     OW13815  13.154   3.945  10.618 -0.5687  0.4642 -0.0102
65402SOL    HW113816  13.188   3.916  10.533  0.8651 -1.1993  1.0775
65402SOL    HW213817  13.200   4.028  10.635  1.5787 -0.7533  0.5158
65403SOL     OW13818   9.423  12.946   5.161 -0.1052 -0.0492  0.4519
65403SOL    HW113819   9.515  12.973   5.160 -0.2540  0.4460 -0.5477
65403SOL    HW213820   9.393  12.969   5.249  0.5418  0.4119  0.5640
65404SOL     OW13821   5.902   4.859   3.047 -0.0542  0.6288  0.2545
65404SOL    HW113822   5.935   4.949   3.045 -0.1245  0.6856  1.2550
65404SOL    HW213823   5.980   4.804   3.042  0.1182  0.7603  1.2992
65405SOL     OW13824   5.511  10.537   9.742 -0.3453 -0.2995  0.8628
65405SOL    HW113825   5.582  10.514   9.803  1.2937  0.1640 -0.7595
65405SOL    HW213826   5.555  10.544   9.657 -2.1250  1.3193  0.0076
65406SOL     OW13827  10.826   1.502   5.346  0.4495  0.1950  0.1220
65406SOL    HW113828  10.918   1.478   5.357  0.7193  0.8888 -0.5150
65406SOL    HW213829  10.782   1.466   5.423  1.3771  0.5083  0.8120
65407SOL     OW13830   2.819   4.315   5.686 -0.0420  0.5131 -0.7853
65407SOL    HW113831   2.904   4.292   5.724 -1.0088  0.2264  1.3901
65407SOL    HW213832   2.808   4.254   5.613  0.2741 -1.6940  0.8981
65408SOL     OW13833  10.074   9.665  10.288  0.2294 -0.2587 -0.2887
65408SOL    HW113834  10.033   9.744  10.323 -0.6363 -1.0189  0.4808
65408SOL    HW213835  10.096   9.614  10.366  2.8163  0.1622 -0.6458
65409SOL     OW13836   5.574   3.462  13.175  0.4046 -0.0539 -0.4365
65409SOL    HW113837   5.629   3.525  13.128  0.1003 -0.0792 -0.8362
65409SOL    HW213838   5.598   3.473  13.267  0.7375  0.2688 -0.5587
65410SOL     OW13839   3.599   5.447   0.811  0.1091 -0.3104 -0.6482
65410SOL    HW113840   3.664   5.503   0.770 -2.5798  0.6842 -4.0433
65410SOL    HW213841   3.621   5.359   0.782  2.6101 -0.8338  2.2932
65411SOL     OW13842   5.999   1.663   6.045 -0.4591 -0.7003  0.3805
65411SOL    HW113843   5.948   1.706   5.976 -1.0514 -0.6988  0.8119
65411SOL    HW213844   6.064   1.728   6.070 -0.1064 -0.7759 -0.3209
65412SOL     OW13845   9.667   8.762  13.679 -0.2742  0.0789 -0.2078
65412SOL    HW113846   9.679   8.674  13.643  0.7631  0.0404  0.1867
65412SOL    HW213847   9.676   8.820  13.603 -0.6277 -0.1279 -0.4129
65413SOL     OW13848  11.975   2.171   8.095 -0.0670 -0.1173  0.0525
65413SOL    HW113849  11.897   2.129   8.059 -0.3667  0.2932  0.2044
65413SOL    HW213850  11.979   2.256   8.050 -0.2385  0.2506  0.7096
65414SOL     OW13851   9.281  13.839  13.988 -0.5710  0.0769 -0.4489
65414SOL    HW113852   9.295  13.900  13.915 -2.4674  0.2933 -0.6826
65414SOL    HW213853   9.345  13.865  14.054 -0.0170  1.0189 -1.3245
65415SOL     OW13854   2.452   1.420   1.923  0.1192  0.3825  0.1270
65415SOL    HW113855   2.517   1.398   1.990  1.0913  0.0031 -0.8978
65415SOL    HW213856   2.456   1.346   1.862 -0.5822  0.8239 -0.4624
65416SOL     OW13857   6.284  13.129   9.388 -0.0828 -0.4672 -0.1150
65416SOL    HW113858   6.271  13.192   9.317  1.9271 -0.4548 -0.5322
65416SOL    HW213859   6.268  13.179   9.468  0.3139  0.2764 -0.4879
65417SOL     OW13860   0.757   3.221  10.043 -0.0801  0.3455  0.3727
65417SOL    HW113861   0.693   3.262   9.985 -0.2649  1.2621  1.1873
65417SOL    HW213862   0.724   3.133  10.057 -1.4453  0.9416  1.1404
65418SOL     OW13863   5.144   0.595  13.431 -0.1142 -0.2165  0.0670
65418SOL    HW113864   5.182   0.520  13.386 -1.5732 -0.0637 -1.4900
65418SOL    HW213865   5.220   0.648  13.457  0.8785 -1.7071  0.3110
65419SOL     OW13866   8.956   9.133   1.367  0.5021  0.3077  0.4398
65419SOL    HW113867   8.991   9.157   1.453  2.4529 -2.1319  0.4279
65419SOL    HW213868   8.912   9.049   1.381  0.4364  0.0996 -0.8660
65420SOL     OW13869   0.658  13.575   2.421 -0.0499  0.3536  0.1248
65420SOL    HW113870   0.678  13.595   2.330 -0.6931 -1.0456 -0.3689
65420SOL    HW213871   0.563  13.561   2.421 -0.3831  2.3260  1.4426
65421SOL     OW13872  10.237  10.744   6.049 -0.6095  0.0628 -0.1810
65421SOL    HW113873  10.259  10.721   6.139 -3.2600 -0.6947  0.3672
65421SOL    HW213874  10.239  10.840   6.047  1.7110  0.0590 -0.0042
65422SOL     OW13875  10.072  12.036   2.498 -0.6836 -0.0358 -0.2949
65422SOL    HW113876  10.029  11.968   2.550 -1.1022  0.0285 -0.5532
65422SOL    HW213877  10.094  12.105   2.561 -1.8368  0.3657 -0.3145
65423SOL     OW13878  13.873   5.006   6.522 -0.3856 -0.0377 -0.4392
65423SOL    HW113879  13.917   4.923   6.542 -0.0283  0.4672  0.9452
65423SOL    HW213880  13.882   5.058   6.602  0.1608  1.6750 -1.5704
65424SOL     OW13881   5.516   1.220   6.493  0.1361  0.5508  0.4484
65424SOL    HW113882   5.518   1.227   6.397  0.8374  2.8731  0.5824
65424SOL    HW213883   5.425   1.240   6.516 -0.1643 -0.5307  0.2775
65425SOL     OW13884   0.221   1.352   8.368  0.0390 -0.1244 -0.0226
65425SOL    HW113885   0.289   1.405   8.410  1.1136 -1.2426 -0.2875
65425SOL    HW213886   0.220   1.270   8.418  1.9069 -1.8300 -2.4955
65426SOL     OW13887   7.140  13.650   5.788 -0.6437 -0.7904  0.5613
65426SOL    HW113888   7.143  13.707   5.711  1.5137 -1.5476  0.0255
65426SOL    HW213889   7.110  13.565   5.753  0.7238 -1.2435  0.4513
65427SOL     OW13890   3.862  13.190  14.051 -0.1728  0.2147  0.0751
65427SOL    HW113891   3.926  13.232  14.108 -0.2197 -0.7514  0.8819
65427SOL    HW213892   3.777  13.221  14.082 -0.2797 -1.3323  1.4663
65428SOL     OW13893   3.607   6.239   3.984  0.0446 -0.2280 -0.0621
65428SOL    HW113894   3.631   6.266   4.073 -1.0821 -2.0504  0.8719
65428SOL    HW213895   3.681   6.266   3.930  2.0466 -1.4625  1.8870
65429SOL     OW13896  13.792   8.732   0.857  0.8788 -0.3181 -0.6098
65429SOL    HW113897  13.836   8.810   0.823  0.3064 -0.4355 -1.6496
65429SOL    HW213898  13.807   8.665   0.790  0.2154 -0.7159 -0.3713
65430SOL     OW13899   2.855   7.029   3.975  0.5176 -0.0703 -0.1262
65430SOL    HW113900   2.901   7.026   4.059 -0.2442  0.8264  0.3394
65430SOL    HW213901   2.766   7.057   3.997 -0.0942 -1.1553 -1.0820
65431SOL     OW13902   9.216   9.646   6.939  1.0938 -0.2101 -0.4276
65431SOL    HW113903   9.275   9.622   6.868  1.0611 -0.0176 -0.5209
65431SOL    HW213904   9.240   9.736   6.961 -0.0549  0.3613 -1.3834
65432SOL     OW13905   7.672  11.312   3.696  0.0512  0.0606  0.3170
65432SOL    HW113906   7.663  11.339   3.605  2.9034  0.1039 -0.0303
65432SOL    HW213907   7.721  11.230   3.693 -1.4340 -0.9487  1.7746
65433SOL     OW13908   3.692   5.588   0.262  0.4116 -0.3346  0.4232
65433SOL    HW113909   3.627   5.637   0.311  1.0002  1.1657 -0.2204
65433SOL    HW213910   3.686   5.624   0.173  0.5495 -1.7773 -0.1855
65434SOL     OW13911   4.956   7.952  10.899  0.4856  0.1540  0.4251
65434SOL    HW113912   4.896   7.935  10.827 -1.4792  1.3028  1.7030
65434SOL    HW213913   4.923   7.899  10.971  2.0789 -0.5269  0.7120
65435SOL     OW13914  11.645   4.816   6.192 -0.1297  0.0482 -0.1107
65435SOL    HW113915  11.684   4.729   6.181  0.3513  0.4870 -2.2880
65435SOL    HW213916  11.718   4.871   6.222  0.3163  0.2789 -1.5326
65436SOL     OW13917   2.710   7.492   7.324  0.3500 -0.1412 -0.0006
65436SOL    HW113918   2.646   7.564   7.321  0.4389  0.0333  1.5494
65436SOL    HW213919   2.665   7.418   7.283 -0.6151  0.1654  0.4712
65437SOL     OW13920   2.974   6.841   2.437  0.4724  0.3257  0.1480
65437SOL    HW113921   2.980   6.786   2.516  1.9076  0.3296  0.0561
65437SOL    HW213922   2.899   6.898   2.454  0.3148 -0.1656  1.2030
65438SOL     OW13923  10.042   1.107   1.133 -0.3557  0.2521 -0.1517
65438SOL    HW113924  10.043   1.047   1.058 -0.4225 -0.1978  0.2015
65438SOL    HW213925   9.955   1.096   1.171  0.2949 -0.9311  1.1007
65439SOL     OW13926  13.556   4.317  11.994  0.1147  0.0523 -0.0491
65439SOL    HW113927  13.461   4.323  11.999 -0.1086 -0.9002 -2.1304
65439SOL    HW213928  13.581   4.262  12.068 -0.9015  0.5377  0.6767
65440SOL     OW13929   9.124  13.175  12.023  0.2848  0.0129  0.5161
65440SOL    HW113930   9.117  13.255  11.969  1.7277  1.0630  1.7949
65440SOL    HW213931   9.041  13.171  12.070 -0.4105 -0.1054 -0.6896
65441SOL     OW13932   1.048   0.900   2.609  0.3383  0.0462  0.2152
65441SOL    HW113933   1.050   0.921   2.702  1.6964  0.3161  0.1480
65441SOL    HW213934   1.134   0.862   2.591  0.1542  0.1281 -0.9629
65442SOL     OW13935   7.204  10.766   7.414  0.4055  0.3711 -1.4321
65442SOL    HW113936   7.296  10.759   7.388 -0.0476 -1.3638 -2.7008
65442SOL    HW213937   7.155  10.747   7.335 -1.0513  0.0276 -0.4878
65443SOL     OW13938   3.119   9.616   1.193  0.1067  0.7889 -0.0435
65443SOL    HW113939   3.050   9.557   1.223  1.3275  0.1330  1.6261
65443SOL    HW213940   3.107   9.695   1.245  0.7750  0.5579  0.4769
65444SOL     OW13941   4.041   0.350   3.479 -0.0650  0.5033 -0.2145
65444SOL    HW113942   4.024   0.442   3.500  0.2235  0.3525  0.7585
65444SOL    HW213943   3.954   0.311   3.468 -0.3375  0.3449  1.9743
65445SOL     OW13944  11.874   6.056   6.110  0.5977 -0.2366 -0.1386
65445SOL    HW113945  11.858   6.006   6.030 -1.7222  0.0158  0.0837
65445SOL    HW213946  11.968   6.075   6.109  0.8788 -1.4948 -2.0339
65446SOL     OW13947  12.021   3.152   1.143 -0.0839  0.1777 -0.3361
65446SOL    HW113948  12.116   3.145   1.144 -0.0486 -0.1298 -2.1337
65446SOL    HW213949  11.991   3.061   1.131 -0.6760  0.1200  1.3106
65447SOL     OW13950   5.160  13.366   6.775  0.1463  0.9048  0.2506
65447SOL    HW113951   5.191  13.279   6.796 -3.7646 -0.2317  2.3675
65447SOL    HW213952   5.236  13.423   6.786  1.9254 -1.7302  2.9212
65448SOL     OW13953  11.488   0.228   3.048  0.5882  0.0513  0.1070
65448SOL    HW113954  11.457   0.139   3.032  0.3500  0.3269 -1.0564
65448SOL    HW213955  11.412   0.283   3.029  1.7256  0.7506 -2.8717
65449SOL     OW13956   0.384   3.980   3.005 -0.2560 -0.0885 -0.4234
65449SOL    HW113957   0.332   4.029   3.068 -0.0103 -2.0224  1.4126
65449SOL    HW213958   0.344   3.998   2.920 -2.0578  0.7944  0.5759
65450SOL     OW13959   3.910   1.980   7.083  0.6272  0.0645 -0.6862
65450SOL    HW113960   3.840   1.919   7.107  0.5771  0.6412  0.7139
65450SOL    HW213961   3.894   2.058   7.137  0.7244  1.3248 -2.3839
65451SOL     OW13962   9.063  11.406  13.010  0.1501 -0.1184 -0.3442
65451SOL    HW113963   8.984  11.361  12.980  0.2674 -0.8908  0.4735
65451SOL    HW213964   9.106  11.344  13.069  1.1724  0.4401 -0.4726
65452SOL     OW13965  10.755  10.212   2.733 -0.3257  0.3297 -0.1337
65452SOL    HW113966  10.798  10.248   2.655  2.4607  0.3148  1.2517
65452SOL    HW213967  10.687  10.275   2.755  0.9040  1.9717 -0.8440
65453SOL     OW13968   3.284   1.267   4.291 -0.0813 -0.3426  0.0236
65453SOL    HW113969   3.271   1.186   4.241 -0.2687  0.4147 -1.1853
65453SOL    HW213970   3.196   1.295   4.315 -0.2456  0.8515 -1.7951
65454SOL     OW13971   3.642   4.581  13.820  0.7856 -0.3879 -0.1994
65454SOL    HW113972   3.701   4.623  13.758  0.2113  1.6393  0.5418
65454SOL    HW213973   3.689   4.583  13.904  0.1680  0.1660  0.1497
65455SOL     OW13974   5.723   8.237  13.338  0.1640 -0.1761 -0.3388
65455SOL    HW113975   5.709   8.306  13.274 -2.0478 -0.0473  0.2042
65455SOL    HW213976   5.683   8.271  13.419  3.4212 -0.0303  1.4044
65456SOL     OW13977  11.454   9.604   9.573  0.0910 -0.0767 -0.4865
65456SOL    HW113978  11.531   9.621   9.517 -0.4103  1.4960 -0.7365
65456SOL    HW213979  11.389   9.567   9.513  0.0046  0.3809 -0.6771
65457SOL     OW13980   3.215   1.815   0.974  0.4844 -0.1144 -0.2814
65457SOL    HW113981   3.155   1.741   0.986  1.1311 -0.6657 -0.4197
65457SOL    HW213982   3.302   1.776   0.969  0.7169  0.5276 -1.7716
65458SOL     OW13983  13.117  11.272   8.235  0.2737 -0.1072  0.3906
65458SOL    HW113984  13.149  11.185   8.213  1.6745 -0.0236  1.9006
65458SOL    HW213985  13.180  11.305   8.299 -2.1205  0.6578  2.4720
65459SOL     OW13986   2.450   3.302   4.358 -0.0052 -0.1809 -0.0601
65459SOL    HW113987   2.483   3.296   4.268 -1.4065  0.1668 -0.6251
65459SOL    HW213988   2.417   3.391   4.366  1.1229  0.1545  1.1941
65460SOL     OW13989   1.162   1.187   0.099 -0.1222 -0.3735 -0.5350
65460SOL    HW113990   1.099   1.246   0.059 -0.9149  0.3299  1.6281
65460SOL    HW213991   1.196   1.235   0.175  1.0081 -1.7765 -0.0922
65461SOL     OW13992  11.691   8.593   6.734 -0.1765 -0.0409  0.3195
65461SOL    HW113993  11.630   8.615   6.663  1.9628 -1.2505 -2.0402
65461SOL    HW213994  11.684   8.498   6.743  1.3750 -0.2163 -0.0580
65462SOL     OW13995  10.111  13.087   3.474  0.1693  0.2757 -0.5309
65462SOL    HW113996  10.176  13.046   3.531  2.6882  1.9153 -2.0352
65462SOL    HW213997  10.158  13.159   3.431 -2.1219  0.4185 -3.1147
65463SOL     OW13998  11.052   9.933  14.041  0.0040 -0.5859 -0.4775
65463SOL    HW113999  10.974   9.989  14.048  1.2275  1.0255  1.1500
65463SOL    HW214000  11.017   9.844  14.045 -1.6821  0.0482  2.6166
65464SOL     OW14001  10.727   5.820  12.300  0.0254  0.6472  0.3813
65464SOL    HW114002  10.645   5.851  12.339  0.2953  1.0922  0.5958
65464SOL    HW214003  10.737   5.732  12.334 -0.5928  0.4182  0.0047
65465SOL     OW14004   0.683   0.955   8.485 -0.1510  0.1122  0.3130
65465SOL    HW114005   0.668   1.047   8.508  1.0547  0.2246  0.7274
65465SOL    HW214006   0.724   0.958   8.399 -0.9637 -0.0949 -0.0850
65466SOL     OW14007  13.183   5.105  11.583 -1.0142 -0.1353  0.6864
65466SOL    HW114008  13.180   5.052  11.504 -2.4816 -0.7394  1.1033
65466SOL    HW214009  13.257   5.164  11.570  0.9826 -2.5497  0.3955
65467SOL     OW14010  14.023   7.257  10.622  0.1167 -0.2327 -0.2134
65467SOL    HW114011  13.948   7.239  10.566 -1.3319  0.4701  1.4190
65467SOL    HW214012  14.077   7.178  10.616 -1.0769 -1.0179 -0.9249
65468SOL     OW14013   8.387  12.739   2.675 -0.4523 -0.4445 -0.1039
65468SOL    HW114014   8.475  12.730   2.711 -0.8465 -1.1740  0.7228
65468SOL    HW214015   8.386  12.683   2.598 -0.1143 -0.2080 -0.2836
65469SOL     OW14016  10.055   5.734  12.999  0.7759 -0.7933 -0.2839
65469SOL    HW114017  10.017   5.702  13.080 -0.5641 -0.8217 -0.8961
65469SOL    HW214018  10.067   5.655  12.945 -1.0682 -0.5055 -1.1951
65470SOL     OW14019  13.799   5.952   7.114  0.0458 -0.2225 -0.2916
65470SOL    HW114020  13.872   5.962   7.053 -0.1858 -0.2573 -0.5724
65470SOL    HW214021  13.732   5.904   7.065 -0.0908 -0.3620  0.0284
65471SOL     OW14022   9.363   1.578   2.970 -0.0454  0.5119  0.3655
65471SOL    HW114023   9.369   1.674   2.969 -3.0629  0.8609 -2.8494
65471SOL    HW214024   9.432   1.549   2.911  1.1830  0.5732  1.7071
65472SOL     OW14025   0.973   4.073   6.695  0.0325 -0.0199 -0.0253
65472SOL    HW114026   0.988   4.136   6.765  0.7858 -0.6283  0.3753
65472SOL    HW214027   0.975   4.124   6.614 -1.9729  0.8853  0.4317
65473SOL     OW14028  11.245   3.932   1.923  0.2554  0.7835  0.0791
65473SOL    HW114029  11.224   3.844   1.953 -1.7968  1.1832 -0.0155
65473SOL    HW214030  11.310   3.965   1.985  0.0859 -0.3365  0.8659
65474SOL     OW14031   1.561  13.361  12.715 -0.4438 -0.1002 -0.2432
65474SOL    HW114032   1.481  13.413  12.704  0.3672  1.6662  1.4761
65474SOL    HW214033   1.535  13.292  12.777 -0.2836  1.5986  1.8557
65475SOL     OW14034   6.884  13.894   5.863 -0.6578  0.5698  1.3631
65475SOL    HW114035   6.978  13.884   5.875 -0.5072  1.1770  0.7645
65475SOL    HW214036   6.875  13.937   5.778 -1.6077 -2.6482 -0.3183
65476SOL     OW14037  10.302  10.778  12.049 -0.2213 -0.4100  0.3205
65476SOL    HW114038  10.288  10.800  12.141  0.5067  0.2344  0.2906
65476SOL    HW214039  10.299  10.682  12.046  1.1630 -0.5114  1.2644
65477SOL     OW14040  11.729   7.747   7.262  0.2616 -0.5787  0.3551
65477SOL    HW114041  11.746   7.654   7.248 -1.0515 -0.5531 -1.9531
65477SOL    HW214042  11.729   7.758   7.357  1.6869 -2.6597  0.6627
65478SOL     OW14043  12.567   0.500   9.951 -0.0226  0.7574  0.0948
65478SOL    HW114044  12.542   0.408   9.960  2.3645 -0.0674 -0.9449
65478SOL    HW214045  12.596   0.526  10.039  0.3153  0.1742  0.1580
65479SOL     OW14046  11.643   0.791   5.477 -0.0278  0.2240 -0.5462
65479SOL    HW114047  11.600   0.741   5.547 -0.6371 -0.4673 -1.3850
65479SOL    HW214048  11.726   0.818   5.514  1.1192 -2.8952 -0.5694
65480SOL     OW14049  12.001  10.663   7.596 -0.5806 -0.3454 -1.0685
65480SOL    HW114050  12.052  10.743   7.600 -0.1662 -0.6234 -0.6286
65480SOL    HW214051  11.915  10.690   7.562 -1.0133  0.5824  0.6628
65481SOL     OW14052  11.343   3.881   6.739 -0.3367  0.2292  0.0637
65481SOL    HW114053  11.426   3.836   6.723 -0.3470  0.4819 -0.7432
65481SOL    HW214054  11.318   3.917   6.654 -0.8994  0.7962  0.4590
65482SOL     OW14055   5.283  13.883  11.882  0.3910  0.6771  0.4025
65482SOL    HW114056   5.378  13.870  11.872  0.6235  2.4797  0.0531
65482SOL    HW214057   5.247  13.795  11.872  2.0073 -0.0351  0.3873
65483SOL     OW14058   5.684  10.045   2.127 -0.4987  0.0284 -0.4532
65483SOL    HW114059   5.713  10.087   2.208  1.5056  0.1847 -1.1874
65483SOL    HW214060   5.589  10.044   2.133 -0.4725  1.6447  1.0892
65484SOL     OW14061   6.584   0.167  10.627  0.3792 -0.6721 -0.5388
65484SOL    HW114062   6.565   0.260  10.621 -2.4699 -1.1905 -0.9721
65484SOL    HW214063   6.556   0.143  10.715 -1.6451 -1.5849 -1.3712
65485SOL     OW14064  13.297  10.568  10.716  0.1907  0.1143  0.1207
65485SOL    HW114065  13.379  10.613  10.698  1.5147 -1.8099  1.0047
65485SOL    HW214066  13.321  10.498  10.776 -2.1193 -0.5129  0.4079
65486SOL     OW14067   0.096   3.352   2.983  0.0995  0.0148  0.2664
65486SOL    HW114068   0.057   3.420   3.038  0.2548  0.3752 -0.0595
65486SOL    HW214069   0.113   3.280   3.042 -0.9587 -0.1095  0.4388
65487SOL     OW14070   3.426   4.558   9.584 -0.8708  0.0369 -0.1516
65487SOL    HW114071   3.376   4.500   9.642 -0.6825 -0.1472 -0.1747
65487SOL    HW214072   3.406   4.647   9.616 -0.5306 -0.0769  0.3811
65488SOL     OW14073   4.199  11.109   7.397  0.4831  0.2519  0.3579
65488SOL    HW114074   4.224  11.019   7.377 -0.4242 -0.1241  0.8139
65488SOL    HW214075   4.108  11.116   7.367 -0.0604  0.4451  1.9423
65489SOL     OW14076  12.376  13.487   1.815 -0.0791 -0.4859 -0.1738
65489SOL    HW114077  12.310  13.475   1.747  0.8735  0.7080 -1.3689
65489SOL    HW214078  12.383  13.582   1.826 -0.2610 -0.6426  1.6830
65490SOL     OW14079   7.244   2.593   4.686  0.1599 -0.3998 -0.0206
65490SOL    HW114080   7.184   2.525   4.656 -0.8952 -0.9011  2.9147
65490SOL    HW214081   7.329   2.569   4.648 -0.0167 -3.7514  1.3625
65491SOL     OW14082   1.798   8.217   4.444 -0.6464 -0.1203  0.2445
65491SOL    HW114083   1.885   8.182   4.427  0.0266  0.5229  2.0643
65491SOL    HW214084   1.738   8.157   4.400  0.7480  0.1779 -2.1959
65492SOL     OW14085   8.228   1.395   3.218 -0.4513  0.4312  0.2774
65492SOL    HW114086   8.157   1.371   3.277 -0.9039 -0.4513 -0.6020
65492SOL    HW214087   8.199   1.476   3.176 -1.2126 -0.2109 -0.4801
65493SOL     OW14088   0.205  12.559   3.947 -0.1217 -0.1842  0.3490
65493SOL    HW114089   0.282  12.513   3.980  0.2513  0.2950  0.1649
65493SOL    HW214090   0.216  12.649   3.977 -0.2395  0.0541 -0.2961
65494SOL     OW14091  12.760  12.803   0.895  0.3902 -0.3229  0.5832
65494SOL    HW114092  12.686  12.820   0.954 -0.6409 -0.9274 -0.4700
65494SOL    HW214093  12.825  12.868   0.918 -0.6451  0.5032  1.2787
65495SOL     OW14094   5.698   2.269   5.916 -0.7275 -0.3316 -0.2276
65495SOL    HW114095   5.749   2.263   5.835 -0.2339 -2.1447  0.1809
65495SOL    HW214096   5.763   2.278   5.985 -1.1617  1.5765 -0.0131
65496SOL     OW14097   0.342   1.197   3.102 -0.0016 -0.7220  0.7612
65496SOL    HW114098   0.335   1.203   3.006  0.7669 -0.7476  0.6950
65496SOL    HW214099   0.436   1.186   3.118  0.1257  1.2783  1.6332
65497SOL     OW14100  13.549   1.542   1.360  0.1019  0.1241  0.3980
65497SOL    HW114101  13.584   1.472   1.305  1.2203  1.7001 -0.9737
65497SOL    HW214102  13.613   1.551   1.430 -0.5537 -0.8505  1.1605
65498SOL     OW14103   5.510   0.372   1.938 -0.0846 -0.2138  0.2520
65498SOL    HW114104   5.443   0.337   1.879 -1.9827 -0.1089  2.2109
65498SOL    HW214105   5.579   0.306   1.937 -2.2132 -2.6261  1.5131
65499SOL     OW14106   1.322  10.005   2.701  0.2478  0.1218 -0.1270
65499SOL    HW114107   1.234  10.020   2.666 -0.0350  0.5945  0.7322
65499SOL    HW214108   1.308   9.948   2.777  0.6183  0.6039  0.3106
65500SOL     OW14109  10.141   1.485   8.535 -0.3734  0.4616  0.0227
65500SOL    HW114110  10.077   1.529   8.479 -0.8109 -0.2322 -0.0379
65500SOL    HW214111  10.131   1.528   8.620  0.9468  2.1666 -0.6133
65501SOL     OW14112   6.733  10.204  13.615 -0.4188  0.1684 -0.1865
65501SOL    HW114113   6.740  10.139  13.686 -2.4175 -1.4449 -1.3649
65501SOL    HW214114   6.785  10.278  13.646  1.9323 -1.9187  1.2900
65502SOL     OW14115   5.840   9.206   0.897 -0.2809  0.1298 -0.3551
65502SOL    HW114116   5.810   9.163   0.977  0.9479  0.5088  0.3258
65502SOL    HW214117   5.859   9.134   0.837  0.3041 -0.2372  0.2526
65503SOL     OW14118  10.004   9.399  13.298 -0.4433  0.0368  0.4800
65503SOL    HW114119   9.989   9.312  13.260 -0.0938  0.6025 -0.9797
65503SOL    HW214120  10.099   9.406  13.305 -0.4447  0.6131 -0.1236
65504SOL     OW14121   1.447   2.348   2.919 -0.4988  0.2389  0.7220
65504SOL    HW114122   1.443   2.368   2.826  0.6511 -2.3283  0.0481
65504SOL    HW214123   1.492   2.423   2.958  2.6098 -0.3253 -1.4303
65505SOL     OW14124  10.332  10.206   4.273  0.4641 -0.0783 -0.4100
65505SOL    HW114125  10.313  10.254   4.192 -0.3265  0.5202  0.1100
65505SOL    HW214126  10.400  10.258   4.316 -0.4883  0.6928  0.2189
65506SOL     OW14127   5.334   0.099  11.379  0.1571  0.2497  0.2977
65506SOL    HW114128   5.404   0.136  11.325  1.1908  0.3111  1.6338
65506SOL    HW214129   5.273   0.061  11.316  0.9298  1.0047 -0.9393
65507SOL     OW14130  13.813   9.738   7.723  0.5491 -0.0429 -0.0700
65507SOL    HW114131  13.879   9.698   7.779  2.0618  2.7180  0.2913
65507SOL    HW214132  13.780   9.811   7.775  0.4707  1.3227 -1.9675
65508SOL     OW14133   4.273   2.724   6.847  0.4473 -0.6007 -0.4860
65508SOL    HW114134   4.273   2.789   6.777  0.1173 -0.6469 -0.5295
65508SOL    HW214135   4.313   2.769   6.922  0.6248 -0.4914 -0.6437
65509SOL     OW14136   8.030   5.330   0.900 -0.4340 -0.2702 -0.2089
65509SOL    HW114137   8.073   5.416   0.894  2.3943 -1.6315 -1.7099
65509SOL    HW214138   7.938   5.347   0.881  0.2172  2.2951 -1.4917
65510SOL     OW14139   3.509   5.786  10.527  0.4615  0.0147 -0.5954
65510SOL    HW114140   3.595   5.794  10.569 -0.3615 -0.2957  1.2718
65510SOL    HW214141   3.496   5.871  10.485  0.4647  1.2463  1.6728
65511SOL     OW14142   4.227  13.126  11.371  0.2079 -0.2611 -0.1499
65511SOL    HW114143   4.221  13.081  11.287 -3.4751  0.8805 -0.6691
65511SOL    HW214144   4.182  13.068  11.433 -3.0391  1.6087 -0.4818
65512SOL     OW14145  10.782   1.337   8.146 -0.2142  0.3928 -0.3108
65512SOL    HW114146  10.836   1.380   8.212  2.1106 -2.6604 -0.0146
65512SOL    HW214147  10.705   1.307   8.194 -1.0562  2.5851 -0.1849
65513SOL     OW14148  11.751   7.016   8.024 -0.0251 -0.5345 -0.6789
65513SOL    HW114149  11.815   6.945   8.025  0.2087 -0.3222  0.1465
65513SOL    HW214150  11.800   7.092   8.055 -0.2671 -0.0024 -1.5740
65514SOL     OW14151   5.172   2.685   8.001 -0.1140 -0.4108  0.3545
65514SOL    HW114152   5.251   2.675   7.949  0.3231  0.6253  0.7827
65514SOL    HW214153   5.176   2.615   8.066  0.6157 -0.1889  0.5575
65515SOL     OW14154  11.660   7.409   0.343 -0.4386  0.2641 -0.5189
65515SOL    HW114155  11.645   7.315   0.351  0.3323  0.2839  2.0051
65515SOL    HW214156  11.728   7.417   0.277  0.6385 -1.1075  0.3748
65516SOL     OW14157   4.535   9.030   0.771 -0.4442  0.2548  0.3283
65516SOL    HW114158   4.574   9.067   0.850 -0.4603  0.5518  0.1978
65516SOL    HW214159   4.490   9.103   0.729 -1.1204 -0.0688  0.4615
65517SOL     OW14160   1.308   8.680   8.295 -0.0011 -0.0147 -0.3741
65517SOL    HW114161   1.234   8.673   8.234 -2.0776  0.0298  2.0079
65517SOL    HW214162   1.325   8.774   8.303  0.5592 -0.0341 -1.1092
65518SOL     OW14163   3.524   9.674  11.378  0.1724 -0.8386 -0.2317
65518SOL    HW114164   3.444   9.625  11.396 -1.2699  0.0458 -3.6154
65518SOL    HW214165   3.574   9.617  11.319  0.1861  0.2004 -1.2569
65519SOL     OW14166  13.755   9.500   2.468 -0.3210 -0.6086 -0.1669
65519SOL    HW114167  13.849   9.516   2.480 -0.6351  1.0773  0.3110
65519SOL    HW214168  13.725   9.468   2.553 -0.3965  0.0855  0.0757
65520SOL     OW14169  13.359   5.765   7.605  0.5099  0.1810 -0.2516
65520SOL    HW114170  13.432   5.705   7.622 -0.1301 -0.6835 -0.5117
65520SOL    HW214171  13.401   5.850   7.594  1.5231 -0.3667 -0.7679
65521SOL     OW14172   9.095   3.180   2.389 -0.2765  0.1792  0.4141
65521SOL    HW114173   9.150   3.106   2.362 -1.4496 -1.0758  1.3191
65521SOL    HW214174   9.051   3.208   2.308 -0.1941 -0.4451  0.1508
65522SOL     OW14175   9.359   9.024  13.477 -0.1634 -0.0220 -0.2806
65522SOL    HW114176   9.446   8.990  13.458 -1.0603 -1.1209 -2.9269
65522SOL    HW214177   9.367   9.119  13.466  0.5468 -0.1921 -1.3791
65523SOL     OW14178  12.347  12.365   5.266 -0.4494 -0.2434  0.1533
65523SOL    HW114179  12.354  12.376   5.172  1.0845 -1.7171  0.0546
65523SOL    HW214180  12.318  12.451   5.298 -0.2301  0.5058 -1.5570
65524SOL     OW14181   9.536   8.518   6.181 -0.3266 -0.4460  0.0310
65524SOL    HW114182   9.521   8.440   6.128 -0.1498 -0.4341 -0.0411
65524SOL    HW214183   9.559   8.586   6.117 -0.9585 -0.2077  0.0509
65525SOL     OW14184   8.410   3.773   6.015  0.0763  0.3842 -0.0986
65525SOL    HW114185   8.391   3.688   5.975  1.6272  0.0598 -0.1845
65525SOL    HW214186   8.497   3.796   5.983 -0.3459  2.0514 -0.1306
65526SOL     OW14187   2.167  13.585  12.126  0.0638 -0.0206 -0.7063
65526SOL    HW114188   2.216  13.503  12.121  1.0482  0.4038  1.1557
65526SOL    HW214189   2.233  13.653  12.127 -0.5698  0.6101  0.9289
65527SOL     OW14190  13.805   8.021   0.244  0.1583  0.6052  0.2655
65527SOL    HW114191  13.765   7.951   0.296  0.5334  1.0860  1.2278
65527SOL    HW214192  13.760   8.101   0.272  2.0511  1.2475  1.7769
65528SOL     OW14193  10.917  13.916   3.003 -0.0378  0.0960  0.2500
65528SOL    HW114194  10.884  13.843   3.055  0.6040 -0.4732 -0.1415
65528SOL    HW214195  10.838  13.957   2.967 -0.3474 -1.3136 -0.7539
65529SOL     OW14196  10.694  11.505   2.088  0.2374 -0.4498 -0.4696
65529SOL    HW114197  10.714  11.416   2.117 -1.0170 -1.1383 -1.5864
65529SOL    HW214198  10.615  11.495   2.035 -0.1021  1.3869 -0.3555
65530SOL     OW14199  13.788   7.394   4.079  0.6442 -0.3241 -0.0633
65530SOL    HW114200  13.747   7.426   4.159  1.5561  0.1205  0.2374
65530SOL    HW214201  13.772   7.462   4.014 -1.8479 -1.5548 -0.8700
65531SOL     OW14202   2.828   9.222   5.036  0.2121  0.2296 -0.2099
65531SOL    HW114203   2.854   9.139   4.997 -0.3165  0.2668 -0.6512
65531SOL    HW214204   2.881   9.287   4.990  1.0435  0.1011  0.5278
65532SOL     OW14205   8.603   1.385   5.861  0.0999 -0.6470  0.2308
65532SOL    HW114206   8.655   1.382   5.781  0.0249 -0.3485  0.1701
65532SOL    HW214207   8.608   1.477   5.889  1.0477 -0.9632  1.1685
65533SOL     OW14208  11.699   0.801   7.989 -0.4478 -0.0711 -0.1495
65533SOL    HW114209  11.703   0.881   8.040 -0.7204  0.9919 -1.7255
65533SOL    HW214210  11.608   0.772   7.998 -0.1890 -0.5873  0.9469
65534SOL     OW14211  13.651  13.223   4.577 -0.4821  0.0880 -0.1547
65534SOL    HW114212  13.720  13.278   4.613 -1.3024  0.0989  1.4642
65534SOL    HW214213  13.694  13.138   4.562  0.0925  0.3499 -0.0317
65535SOL     OW14214   5.165   4.075  12.482 -0.4794  0.1912  0.3832
65535SOL    HW114215   5.134   4.026  12.558 -0.8510  1.1167  0.8450
65535SOL    HW214216   5.086   4.112  12.443 -0.3888 -1.0229 -1.0073
65536SOL     OW14217   8.874  10.582   2.806 -0.1903 -0.5237 -0.0048
65536SOL    HW114218   8.891  10.618   2.893 -1.9315 -1.2164  0.6658
65536SOL    HW214219   8.900  10.651   2.746 -0.0745  0.4385  1.1199
65537SOL     OW14220  11.614   1.102   3.493  0.5241  0.5030 -0.3998
65537SOL    HW114221  11.589   1.018   3.530 -2.6317  0.9943 -1.1112
65537SOL    HW214222  11.704   1.116   3.522  0.2773 -1.9230  1.8556
65538SOL     OW14223  12.659   2.572   7.259 -0.1839 -0.4012  0.1881
65538SOL    HW114224  12.611   2.508   7.312  0.3038 -1.5360 -0.6973
65538SOL    HW214225  12.623   2.657   7.285  1.3407 -0.6730  3.7254
65539SOL     OW14226   8.897   5.364  10.926 -0.0167  0.2552 -0.2155
65539SOL    HW114227   8.838   5.435  10.899 -0.4048 -0.0299 -0.1188
65539SOL    HW214228   8.979   5.384  10.881 -0.3692  0.3222 -0.8441
65540SOL     OW14229   9.681   6.434   2.661 -0.2365 -0.1753  0.1726
65540SOL    HW114230   9.717   6.374   2.595 -0.8752 -2.2236  1.5842
65540SOL    HW214231   9.750   6.499   2.675  1.3518 -1.7695  0.0480
65541SOL     OW14232   8.769   9.200   6.196  0.6931 -0.4437  0.8644
65541SOL    HW114233   8.782   9.126   6.137 -1.7976 -1.2268  1.1569
65541SOL    HW214234   8.721   9.264   6.143  0.6913 -0.0739  1.3138
65542SOL     OW14235  10.720   5.929   0.141 -0.2535 -0.2447 -0.0190
65542SOL    HW114236  10.658   5.989   0.097  1.2708  0.5386 -1.2138
65542SOL    HW214237  10.764   5.884   0.069  0.3345 -1.0253  0.8116
65543SOL     OW14238   2.696   8.682  13.782  0.3695 -0.5852  0.9775
65543SOL    HW114239   2.665   8.630  13.708 -0.1505 -0.4971  1.1294
65543SOL    HW214240   2.790   8.667  13.784  0.5535  0.1989 -0.3298
65544SOL     OW14241  12.533  13.691   9.952  0.2578  0.1208  0.1086
65544SOL    HW114242  12.540  13.640  10.033  0.5745  1.1393  0.7459
65544SOL    HW214243  12.482  13.635   9.893  0.1455 -0.7067  0.9564
65545SOL     OW14244   8.979   4.208  10.124  0.4539  0.0477  0.3582
65545SOL    HW114245   8.889   4.212  10.092  0.9408  0.6602 -0.9733
65545SOL    HW214246   9.019   4.290  10.095  1.5218 -0.3361  0.7012
65546SOL     OW14247  11.593   1.048   4.608  0.0872 -0.4956  0.1468
65546SOL    HW114248  11.521   1.014   4.661 -1.3292 -0.5133 -1.6782
65546SOL    HW214249  11.552   1.113   4.551  1.6053 -0.1965 -0.6548
65547SOL     OW14250   0.865   6.784   8.271  0.5147 -0.3033  0.5647
65547SOL    HW114251   0.822   6.847   8.213 -2.4558 -2.1728  0.5127
65547SOL    HW214252   0.942   6.754   8.223 -0.5421 -0.0340 -1.3835
65548SOL     OW14253  12.567  12.283  11.258  0.5399  0.5658 -0.1482
65548SOL    HW114254  12.645  12.303  11.206 -0.1913  0.8894 -1.1369
65548SOL    HW214255  12.580  12.192  11.286  1.5973  0.8408  0.2917
65549SOL     OW14256   5.867  10.514   5.703 -0.1632 -0.0334  0.4270
65549SOL    HW114257   5.808  10.472   5.766 -0.2824  2.0703  1.8303
65549SOL    HW214258   5.950  10.521   5.749 -0.3939  2.0155  0.6344
65550SOL     OW14259   4.210   7.897  13.628 -0.7852  0.2379  0.0668
65550SOL    HW114260   4.222   7.807  13.659  0.2978  0.5827  0.7117
65550SOL    HW214261   4.122   7.921  13.659  0.1219  0.4613  2.7388
65551SOL     OW14262   1.813   4.612   0.728  0.3612 -0.5597  0.9307
65551SOL    HW114263   1.898   4.646   0.758 -0.5538  0.8428  2.0845
65551SOL    HW214264   1.834   4.561   0.650  2.1768  0.4801  0.6727
65552SOL     OW14265  11.855   4.916   5.581 -0.0360  0.3129 -0.1166
65552SOL    HW114266  11.786   4.851   5.590  0.1838  0.1660  0.5611
65552SOL    HW214267  11.845   4.973   5.657  0.0029  0.8547 -0.5111
65553SOL     OW14268   7.945  13.414  10.467 -0.6196  0.1093  0.1781
65553SOL    HW114269   7.889  13.476  10.514 -2.3393  0.0841 -1.6969
65553SOL    HW214270   7.963  13.345  10.531  0.1930  1.8115  1.8821
65554SOL     OW14271  12.592   1.781   7.826  0.3567 -0.8709 -1.0306
65554SOL    HW114272  12.679   1.758   7.792 -0.1239 -3.5741 -0.6719
65554SOL    HW214273  12.608   1.808   7.916  0.9108 -0.6520 -1.1889
65555SOL     OW14274  13.289  10.138   0.035  0.5289 -0.3448  0.5356
65555SOL    HW114275  13.243  10.196   0.096 -0.7913 -0.1213 -0.6158
65555SOL    HW214276  13.251  10.159  -0.050  1.5103 -1.4647 -0.1996
65556SOL     OW14277   3.723   3.875   4.431 -0.6729  0.1948  0.1231
65556SOL    HW114278   3.716   3.950   4.491 -2.4433  0.5942 -0.5103
65556SOL    HW214279   3.647   3.884   4.374 -0.8119 -1.9849 -0.1015
65557SOL     OW14280   0.967   6.816   5.909  0.0183 -0.2567  0.4334
65557SOL    HW114281   0.894   6.803   5.849 -0.4112  0.2806  0.8271
65557SOL    HW214282   1.045   6.802   5.856 -0.3145  1.4870 -0.5744
65558SOL     OW14283   8.675  12.655   8.142 -0.0622  0.1047  0.8200
65558SOL    HW114284   8.768  12.636   8.128  0.0665  1.5591 -0.5763
65558SOL    HW214285   8.654  12.722   8.076 -2.5422 -1.4554 -0.1172
65559SOL     OW14286  12.845  12.893   9.327 -0.4414 -0.2553 -0.3611
65559SOL    HW114287  12.767  12.882   9.274 -0.8625 -2.1373  0.5912
65559SOL    HW214288  12.916  12.858   9.273 -0.4456  0.2100 -0.6804
65560SOL     OW14289   8.334   5.973  13.349 -0.4675 -0.0593  0.4872
65560SOL    HW114290   8.331   5.942  13.258 -2.0276  0.3975  0.3431
65560SOL    HW214291   8.425   5.964  13.375 -0.0055 -0.2691 -1.1123
65561SOL     OW14292   7.752  12.801   8.213  1.1271  0.5211 -0.4493
65561SOL    HW114293   7.670  12.753   8.222  1.7821 -0.7564 -1.0718
65561SOL    HW214294   7.734  12.887   8.252 -0.2579  0.0002  0.1103
65562SOL     OW14295  10.711   5.287   9.995  0.6919  0.4206  0.0959
65562SOL    HW114296  10.645   5.222   9.973 -0.3670  1.3374  0.5089
65562SOL    HW214297  10.739   5.264  10.083 -0.1560  0.9018  0.4961
65563SOL     OW14298   5.171   5.975  14.026 -0.4730 -0.8426 -0.2119
65563SOL    HW114299   5.148   6.051  14.080  0.0530 -0.5079 -0.4570
65563SOL    HW214300   5.231   5.924  14.081  1.3022  0.2831 -1.0285
65564SOL     OW14301   3.240  12.867  10.855  0.0853  0.3223 -0.0417
65564SOL    HW114302   3.279  12.803  10.915 -0.8022  1.4934  1.8872
65564SOL    HW214303   3.287  12.948  10.872  0.7942  0.3780 -2.0256
65565SOL     OW14304  13.223  13.227   6.935 -0.0352  0.3069  0.0494
65565SOL    HW114305  13.226  13.251   7.027  1.3395  0.7510 -0.0910
65565SOL    HW214306  13.130  13.211   6.917 -0.2660 -0.2164  1.6075
65566SOL     OW14307   6.006  10.360  10.352  0.4449 -0.0017  0.2276
65566SOL    HW114308   6.005  10.423  10.424 -0.2966 -1.7288  1.8129
65566SOL    HW214309   5.971  10.279  10.391 -1.3433 -0.6244 -2.4277
65567SOL     OW14310  13.070  12.538   6.583 -0.2627 -0.0164  0.6674
65567SOL    HW114311  13.143  12.601   6.582 -1.0736  0.9859  1.7942
65567SOL    HW214312  13.053  12.522   6.676 -1.5241 -0.1897  0.4261
65568SOL     OW14313   6.960   5.600  11.035 -0.6311 -0.4860  0.0626
65568SOL    HW114314   7.026   5.549  10.989  0.8145  1.9028 -0.7174
65568SOL    HW214315   6.897   5.624  10.967 -0.9743 -0.7112  0.2971
65569SOL     OW14316  11.207  10.101  13.506 -0.7254 -0.6782 -0.1137
65569SOL    HW114317  11.235  10.179  13.554  1.1600 -0.9309 -0.7108
65569SOL    HW214318  11.160  10.048  13.571 -1.3694  0.5916  0.4924
65570SOL     OW14319   7.554   7.566   4.570 -0.3293  0.2863 -0.2364
65570SOL    HW114320   7.458   7.560   4.569 -0.4948  2.0613 -2.1484
65570SOL    HW214321   7.584   7.480   4.544 -1.4638  0.0684 -0.9117
65571SOL     OW14322   3.784   3.197   4.354  0.2202  0.0494 -0.2686
65571SOL    HW114323   3.807   3.257   4.284 -1.0678  0.4536 -0.3725
65571SOL    HW214324   3.735   3.251   4.417 -0.1054 -0.6746  0.1141
65572SOL     OW14325   5.024   7.539   4.811 -0.1601  0.0479 -0.4884
65572SOL    HW114326   4.996   7.466   4.755  0.1561 -1.2868  1.0281
65572SOL    HW214327   5.105   7.570   4.771  0.7170 -1.6718 -0.1652
65573SOL     OW14328   5.783  12.450   8.003 -0.0234 -0.3895 -0.4020
65573SOL    HW114329   5.840  12.449   7.926 -0.2007 -3.0423 -0.5774
65573SOL    HW214330   5.802  12.368   8.049 -1.3965  0.1693  1.2963
65574SOL     OW14331   3.539   7.050   1.959 -0.8712  0.0163 -0.0221
65574SOL    HW114332   3.477   7.122   1.952 -1.7171 -0.7897 -1.0828
65574SOL    HW214333   3.561   7.027   1.869 -1.2075 -1.5442  0.2644
65575SOL     OW14334   9.120   9.996   4.053  0.6058 -0.5427  0.0725
65575SOL    HW114335   9.161   9.942   3.985  0.8861 -0.9641  0.5661
65575SOL    HW214336   9.105  10.081   4.011  3.2148  0.0816  0.2565
65576SOL     OW14337   4.010   6.164   9.434  0.3965 -0.1523  0.1448
65576SOL    HW114338   3.943   6.097   9.421  0.0832 -0.1762  1.7344
65576SOL    HW214339   3.967   6.231   9.486  0.4829  1.6993 -2.0280
65577SOL     OW14340  13.687   3.041   5.274 -0.0013 -0.0751 -1.0428
65577SOL    HW114341  13.619   3.072   5.215  1.1548  0.8048 -1.9570
65577SOL    HW214342  13.719   3.120   5.318  2.0349 -0.0941 -2.3828
65578SOL     OW14343   5.903  11.585  13.138 -0.1799 -0.4757  0.3094
65578SOL    HW114344   5.987  11.627  13.120 -0.3851 -0.1197  0.1540
65578SOL    HW214345   5.925  11.507  13.189  0.1942 -0.0516  0.8098
65579SOL     OW14346   2.178   3.147  12.797  0.1375  0.0036  0.1060
65579SOL    HW114347   2.210   3.221  12.746  1.7939 -0.0896  0.9430
65579SOL    HW214348   2.179   3.074  12.736  2.2643 -0.1463  0.2641
65580SOL     OW14349  11.183   7.374   1.112  0.4817  0.5044 -0.2687
65580SOL    HW114350  11.112   7.404   1.168 -0.0196  0.6144 -0.9426
65580SOL    HW214351  11.217   7.453   1.070  0.3409  0.3442 -0.6963
65581SOL     OW14352   4.947   7.174   0.207 -0.8327 -0.3138 -0.4757
65581SOL    HW114353   4.979   7.260   0.180  0.0450 -0.3403  0.4256
65581SOL    HW214354   4.969   7.116   0.134 -0.0033 -0.0650 -0.4376
65582SOL     OW14355   1.984  12.834   0.290  0.2199  0.5053  0.0813
65582SOL    HW114356   1.976  12.779   0.212 -0.4390  0.1136  0.4280
65582SOL    HW214357   2.035  12.910   0.259 -0.6812  0.7298 -0.9265
65583SOL     OW14358  11.736   9.137   2.323  0.3790 -0.2484 -0.0187
65583SOL    HW114359  11.803   9.126   2.391  0.4157 -1.7788 -0.2691
65583SOL    HW214360  11.694   9.051   2.317 -0.9033  0.3979 -0.6110
65584SOL     OW14361   1.857  14.001   9.271 -0.2153  0.1083  0.3327
65584SOL    HW114362   1.905  13.918   9.265 -0.0677  0.1733  0.5777
65584SOL    HW214363   1.787  13.994   9.207 -0.1534 -0.1747  0.2985
65585SOL     OW14364   0.326   3.606   2.737  0.1338 -0.6090  0.4414
65585SOL    HW114365   0.337   3.511   2.730  2.5050 -0.4878  1.6011
65585SOL    HW214366   0.359   3.627   2.824  0.4902  1.3880 -0.1419
65586SOL     OW14367  11.193  12.726   3.461 -0.2833 -0.6331 -0.2138
65586SOL    HW114368  11.237  12.641   3.464  0.1851 -0.4505 -1.3928
65586SOL    HW214369  11.221  12.764   3.378 -0.4602  0.6968  0.3194
65587SOL     OW14370  12.112   4.735   7.626  0.4354  0.3494 -0.6560
65587SOL    HW114371  12.062   4.671   7.677 -0.2849  1.5086  0.1393
65587SOL    HW214372  12.159   4.682   7.562 -1.2818 -0.8607 -1.0010
65588SOL     OW14373   1.026   3.527   7.120  0.6283 -0.0781  0.8338
65588SOL    HW114374   0.979   3.453   7.159  0.2232 -0.1164  0.2772
65588SOL    HW214375   1.045   3.584   7.194 -0.2550 -0.0863  1.0777
65589SOL     OW14376   9.523  13.621   9.386  0.2224  0.3793 -0.0652
65589SOL    HW114377   9.597  13.652   9.438  0.3928  2.1695 -1.2745
65589SOL    HW214378   9.561  13.594   9.303 -0.1967 -1.2300  0.2344
65590SOL     OW14379   2.784   7.303   1.265  0.1220  0.8995  0.0362
65590SOL    HW114380   2.699   7.261   1.252  0.4213  0.5725 -0.9026
65590SOL    HW214381   2.813   7.272   1.351 -0.0595 -0.1313 -0.2603
65591SOL     OW14382   6.176   6.495  13.251 -0.1383 -0.1299  0.4139
65591SOL    HW114383   6.264   6.456  13.246 -0.8128 -1.7932  0.6687
65591SOL    HW214384   6.120   6.431  13.207 -1.7127 -0.7824  3.1298
65592SOL     OW14385   1.419   6.563   6.991 -0.0863 -0.3713  0.8402
65592SOL    HW114386   1.352   6.501   7.021 -1.3851  1.4930  1.9369
65592SOL    HW214387   1.495   6.545   7.046 -0.5976 -0.7056  1.4477
65593SOL     OW14388   6.925   8.286   3.837 -0.5761  0.0708  0.0816
65593SOL    HW114389   6.971   8.274   3.920 -0.2787 -0.7075 -0.1847
65593SOL    HW214390   6.971   8.229   3.775 -0.3698  1.1261 -0.7909
65594SOL     OW14391  12.858   5.495   0.156 -0.3022  0.0117  0.2715
65594SOL    HW114392  12.876   5.417   0.209  0.3670  0.6138  0.9569
65594SOL    HW214393  12.839   5.461   0.069 -3.4894 -1.1593  1.2953
65595SOL     OW14394   4.330  13.447   4.286 -0.0784  0.1669 -0.1571
65595SOL    HW114395   4.241  13.428   4.314 -0.0990  3.0827  2.2318
65595SOL    HW214396   4.320  13.506   4.212 -0.0954 -0.0864 -0.3600
65596SOL     OW14397   4.546   7.324   9.537 -0.3030 -0.4580 -0.0182
65596SOL    HW114398   4.562   7.394   9.599 -0.3502  0.0385 -0.5547
65596SOL    HW214399   4.452   7.306   9.544 -1.1772  2.2599 -2.6277
65597SOL     OW14400   4.016   5.109   5.386  0.4914  0.0210  0.2013
65597SOL    HW114401   3.995   5.017   5.370  1.6085 -0.1918 -0.1372
65597SOL    HW214402   4.104   5.107   5.424  0.5115  0.9468  0.2182
65598SOL     OW14403   1.942   9.251   0.710  0.1065 -0.1380 -0.7645
65598SOL    HW114404   2.000   9.316   0.671  0.4117  0.5955  0.8479
65598SOL    HW214405   1.854   9.283   0.691  0.2503  1.0599  0.4639
65599SOL     OW14406   2.036   2.445   3.512  0.5519 -0.0358  0.1486
65599SOL    HW114407   1.948   2.452   3.550  1.0431  0.2446  1.2795
65599SOL    HW214408   2.027   2.381   3.442 -0.1530 -1.4677  1.4913
65600SOL     OW14409   8.345   2.350   7.187 -0.0276  0.0056 -0.0634
65600SOL    HW114410   8.435   2.318   7.184  0.2003  0.6635 -0.3149
65600SOL    HW214411   8.299   2.285   7.241  0.4811 -0.6018 -0.3419
65601SOL     OW14412  11.643   9.549  13.237  0.1260  0.0166 -0.2818
65601SOL    HW114413  11.675   9.630  13.278  0.2366 -0.4704  0.6259
65601SOL    HW214414  11.709   9.484  13.258 -0.4701 -0.5442 -0.1105
65602SOL     OW14415  13.307  13.771   8.150 -0.5689 -0.0672 -0.2711
65602SOL    HW114416  13.310  13.677   8.170  1.9533  0.2556  1.3773
65602SOL    HW214417  13.398  13.799   8.152 -1.3207  2.6749  0.7057
65603SOL     OW14418  12.670   3.403   9.319  0.1340  0.4012  0.3716
65603SOL    HW114419  12.754   3.402   9.274  0.4633  1.6623  0.9035
65603SOL    HW214420  12.670   3.323   9.372 -0.7798 -1.7839 -2.6534
65604SOL     OW14421  10.119   0.917  11.528 -0.9949  0.1197 -0.2625
65604SOL    HW114422  10.034   0.955  11.507 -0.6625  3.0066  2.7843
65604SOL    HW214423  10.105   0.872  11.611  0.5094  1.2070  0.6278
65605SOL     OW14424   0.114   9.709   2.938  0.5795  0.3872  0.7876
65605SOL    HW114425   0.207   9.732   2.948  0.2546  2.0064  0.3410
65605SOL    HW214426   0.093   9.660   3.017  1.7792  0.1257  0.9670
65606SOL     OW14427   2.135   1.619  10.059 -0.1235 -0.6581  0.1806
65606SOL    HW114428   2.071   1.585   9.996 -0.8889  0.5187  0.2619
65606SOL    HW214429   2.082   1.639  10.137  0.4113 -0.0600  0.3983
65607SOL     OW14430   3.349  11.309  12.775 -0.1080 -0.3370  0.0710
65607SOL    HW114431   3.306  11.264  12.847  1.7761 -2.2235  0.0992
65607SOL    HW214432   3.352  11.245  12.704  0.0589  0.7381 -0.9296
65608SOL     OW14433  12.994   1.259  13.403 -0.2755  0.3103 -0.5307
65608SOL    HW114434  12.967   1.180  13.356 -1.8871  0.0762  0.7021
65608SOL    HW214435  13.090   1.254  13.405 -0.2860 -0.9554 -1.5435
65609SOL     OW14436   9.247   8.417  10.743 -0.2658  0.0239 -0.4402
65609SOL    HW114437   9.303   8.439  10.818 -1.5027  0.5624  0.3663
65609SOL    HW214438   9.307   8.388  10.675  0.9352 -0.0180  0.6090
65610SOL     OW14439  11.048   7.628   6.932 -0.5528 -0.2742 -0.1348
65610SOL    HW114440  10.985   7.698   6.950 -1.9876 -1.6060  0.2517
65610SOL    HW214441  11.037   7.609   6.840 -1.0250 -0.8039  0.0318
65611SOL     OW14442  13.016   3.652   0.272 -0.0869  0.0323 -0.0429
65611SOL    HW114443  13.088   3.589   0.274  0.4330  0.5647 -1.0521
65611SOL    HW214444  12.945   3.606   0.226  0.5843  0.4542 -1.5412
65612SOL     OW14445   2.495  13.238   0.584 -0.1009 -0.4788  0.5276
65612SOL    HW114446   2.472  13.200   0.499 -2.1541  0.7113  0.4822
65612SOL    HW214447   2.566  13.298   0.564 -0.9722  0.2554 -0.5096
65613SOL     OW14448   7.406  12.935   7.217  0.3493  0.3521 -0.3960
65613SOL    HW114449   7.497  12.950   7.191 -0.1335  2.8221 -0.9110
65613SOL    HW214450   7.354  12.973   7.147 -1.1273 -1.1258 -0.1652
65614SOL     OW14451  10.780  13.777   7.011 -0.0637  0.4299  0.1061
65614SOL    HW114452  10.715  13.794   7.079 -0.5075 -1.4193  0.2084
65614SOL    HW214453  10.774  13.682   6.995  2.0660  0.3190 -0.4224
65615SOL     OW14454  11.620   5.141   6.108  0.3008 -0.4331  0.2813
65615SOL    HW114455  11.559   5.159   6.037  0.1656 -4.0169 -0.6959
65615SOL    HW214456  11.567   5.099   6.176  0.7477  1.4358  1.8754
65616SOL     OW14457  13.217   6.260   0.756 -0.3277 -0.5827  0.3823
65616SOL    HW114458  13.242   6.326   0.692 -0.8170  0.7035  1.4793
65616SOL    HW214459  13.225   6.304   0.840  0.1605 -2.1925  1.2160
65617SOL     OW14460   1.665   6.058   9.214  0.1172 -0.3395 -0.5127
65617SOL    HW114461   1.702   6.024   9.132 -2.0747 -1.8896 -0.9624
65617SOL    HW214462   1.648   6.150   9.197  1.2517 -0.2413 -1.1940
65618SOL     OW14463   5.636  13.511   3.478 -0.5283 -0.7065 -0.3453
65618SOL    HW114464   5.581  13.508   3.400 -0.2051 -1.6124 -0.5455
65618SOL    HW214465   5.629  13.424   3.517 -1.2380 -0.0761  1.0460
65619SOL     OW14466   5.756   1.740   0.200 -0.3499  0.3559  0.7129
65619SOL    HW114467   5.726   1.706   0.285 -1.6476 -0.4748 -0.0498
65619SOL    HW214468   5.726   1.676   0.136  1.8933  0.1970 -0.2863
65620SOL     OW14469   5.467   1.814   1.726  0.4052  0.2493  0.3068
65620SOL    HW114470   5.376   1.786   1.737  0.3008 -0.1136 -1.2700
65620SOL    HW214471   5.495   1.839   1.814 -1.0369 -0.1715  0.9150
65621SOL     OW14472  10.399   0.454  13.616  0.1842 -0.0321  0.1459
65621SOL    HW114473  10.335   0.511  13.659  1.8161  0.9343  1.4415
65621SOL    HW214474  10.414   0.382  13.678  0.3505 -0.2475 -0.1376
65622SOL     OW14475  12.787  13.974   3.005 -0.2341  0.5770  0.2833
65622SOL    HW114476  12.752  14.047   2.953 -0.1977 -0.2908 -1.0112
65622SOL    HW214477  12.843  13.926   2.944 -0.2696 -0.5577  1.1078
65623SOL     OW14478   2.119   6.047   5.769  0.3482 -0.6400 -0.4401
65623SOL    HW114479   2.074   5.989   5.708  0.2572 -0.0303 -0.9700
65623SOL    HW214480   2.063   6.048   5.847 -0.1152 -0.5616 -0.7677
65624SOL     OW14481   3.781   8.057   5.566 -0.1134  0.2485  0.2784
65624SOL    HW114482   3.723   8.105   5.506 -1.1853  1.6372  2.3084
65624SOL    HW214483   3.868   8.094   5.549 -0.3955  0.6055 -0.4225
65625SOL     OW14484  13.515  14.039   6.914 -0.3623  0.1211  0.2356
65625SOL    HW114485  13.470  13.990   6.846  1.9754 -2.8286  0.5685
65625SOL    HW214486  13.449  14.097   6.951 -2.5980 -0.7285 -2.1600
65626SOL     OW14487  12.564  11.068   1.333  0.7814  0.1815  0.1253
65626SOL    HW114488  12.582  11.132   1.402 -0.7328  1.6577 -0.7478
65626SOL    HW214489  12.472  11.044   1.347  0.3536  0.7379 -1.5016
65627SOL     OW14490  11.686  11.558  11.146  0.1344 -0.5096 -0.0744
65627SOL    HW114491  11.674  11.641  11.192  2.9950  0.7302 -1.3411
65627SOL    HW214492  11.642  11.569  11.062  1.2694  0.1206 -0.6068
65628SOL     OW14493   2.380   6.975   6.870 -0.3190  0.1211  0.3682
65628SOL    HW114494   2.335   6.985   6.954 -0.2626  0.9930  0.3036
65628SOL    HW214495   2.310   6.953   6.808 -0.8132  2.2238  0.1208
65629SOL     OW14496   1.743   1.539   3.242  0.8581  0.2167  0.0329
65629SOL    HW114497   1.683   1.537   3.316 -1.3700  2.1309 -1.5933
65629SOL    HW214498   1.806   1.607   3.264  1.7968 -0.9830  1.2256
65630SOL     OW14499   4.356  12.395   1.426 -0.1065 -0.1452 -0.5763
65630SOL    HW114500   4.274  12.346   1.424 -1.0949  1.2175  1.8467
65630SOL    HW214501   4.338  12.473   1.373  0.1299 -0.4990 -1.1899
65631SOL     OW14502  12.100   1.793   0.118  0.1109 -0.0357 -0.1422
65631SOL    HW114503  12.105   1.801   0.213 -0.9247  0.3888 -0.1084
65631SOL    HW214504  12.172   1.847   0.086  0.3505 -0.0257  0.4052
65632SOL     OW14505  10.857   7.368  10.412 -0.2767 -0.3049  0.6010
65632SOL    HW114506  10.935   7.329  10.453  1.1589 -0.3918 -2.0076
65632SOL    HW214507  10.882   7.380  10.320 -3.1610  0.2668 -0.1928
65633SOL     OW14508   2.580   9.452   7.649 -0.1792  0.3569  0.7098
65633SOL    HW114509   2.556   9.524   7.591  0.1598 -0.9158 -1.1127
65633SOL    HW214510   2.515   9.384   7.632  1.0858 -0.8009  0.2780
65634SOL     OW14511   0.286   1.467  10.383  0.6414  0.7199  0.2124
65634SOL    HW114512   0.337   1.414  10.444  1.0906 -0.4335 -1.0953
65634SOL    HW214513   0.351   1.515  10.332  0.2171  3.3839  2.0255
65635SOL     OW14514   5.937  10.510  10.610  0.0694 -0.3747  0.3759
65635SOL    HW114515   5.923  10.603  10.593 -0.8627 -0.6151 -0.2418
65635SOL    HW214516   5.873  10.489  10.678 -0.9344 -0.9397 -0.7173
65636SOL     OW14517   0.885   9.971   6.631  0.0831 -0.1194 -0.0926
65636SOL    HW114518   0.933   9.956   6.550 -0.4916 -1.7966 -0.1647
65636SOL    HW214519   0.920   9.907   6.693  0.4307  1.0572  0.9639
65637SOL     OW14520   9.294   0.018   4.802 -0.0409  0.0046 -0.0499
65637SOL    HW114521   9.239   0.002   4.879 -0.1058  1.9391  0.3469
65637SOL    HW214522   9.248  -0.027   4.730 -1.6977  0.8591  0.4281
65638SOL     OW14523   2.494  13.889  13.886  0.0149  0.5125  0.1585
65638SOL    HW114524   2.525  13.947  13.816 -0.0176 -3.5097 -3.6413
65638SOL    HW214525   2.400  13.881  13.871  0.4524 -3.1299 -2.0799
65639SOL     OW14526   6.738   4.579   0.261 -0.3357  0.5678  0.1780
65639SOL    HW114527   6.818   4.526   0.250  0.1535  1.6818 -2.2413
65639SOL    HW214528   6.669   4.525   0.223 -0.6315 -0.0410  1.5175
65640SOL     OW14529  12.599   6.220  10.442 -0.4627  0.1375 -0.0078
65640SOL    HW114530  12.694   6.219  10.459 -0.2101  0.0679 -1.2804
65640SOL    HW214531  12.588   6.159  10.369 -1.1862  1.6109 -1.1995
65641SOL     OW14532  12.028   9.480   3.614  0.3682  0.1369  0.4236
65641SOL    HW114533  12.037   9.529   3.696  0.6884  0.2027  0.3522
65641SOL    HW214534  12.081   9.401   3.628  2.4360  1.2570 -0.5742
65642SOL     OW14535   0.843   1.687   1.721  0.4143  0.8540 -0.6081
65642SOL    HW114536   0.887   1.766   1.753 -1.2362  0.8032  2.0710
65642SOL    HW214537   0.757   1.719   1.691  0.1038  0.2172 -0.4154
65643SOL     OW14538   7.148  12.402   0.371 -0.0600  0.1929  0.8475
65643SOL    HW114539   7.196  12.357   0.302  0.2498  1.4456  0.2099
65643SOL    HW214540   7.116  12.482   0.329 -0.2818  0.7437  2.0256
65644SOL     OW14541  12.539   7.869  13.180  0.2191  0.2278 -0.4680
65644SOL    HW114542  12.626   7.834  13.157  0.3960  0.7310 -0.5628
65644SOL    HW214543  12.505   7.905  13.098 -0.1203 -0.0491 -0.4526
65645SOL     OW14544   4.280   8.534   6.845 -0.4634  0.2054 -0.3039
65645SOL    HW114545   4.189   8.564   6.847 -0.3408  0.5439  0.6197
65645SOL    HW214546   4.312   8.558   6.758 -0.9680  0.9645 -0.2818
65646SOL     OW14547   5.028   3.062  12.556  0.1659 -0.8377 -0.1116
65646SOL    HW114548   5.081   3.011  12.616  0.6713  0.3402  0.4715
65646SOL    HW214549   4.963   3.106  12.611 -0.6121 -1.2684 -0.6630
65647SOL     OW14550   3.925   3.469  11.302 -0.0101 -0.1311 -0.3603
65647SOL    HW114551   3.907   3.495  11.212 -1.3805  0.5423  0.0652
65647SOL    HW214552   4.020   3.459  11.307 -0.0568 -2.3593 -2.4259
65648SOL     OW14553   4.274  13.117   5.642  0.1981  0.4594 -0.1166
65648SOL    HW114554   4.272  13.049   5.575  0.2417 -0.5865  0.9165
65648SOL    HW214555   4.189  13.111   5.686  0.2096  1.0620 -0.0019
65649SOL     OW14556   4.542  10.247  11.750  0.6240 -0.2330 -0.0740
65649SOL    HW114557   4.542  10.254  11.845  1.4991  0.3683 -0.1136
65649SOL    HW214558   4.471  10.305  11.722 -2.4478 -3.4247  0.3648
65650SOL     OW14559  11.660   4.025   6.697  0.0191  0.2077  0.2071
65650SOL    HW114560  11.681   4.043   6.788 -0.5882  0.3270  0.3234
65650SOL    HW214561  11.634   3.932   6.696  1.4675 -0.2173 -0.1009
65651SOL     OW14562   7.803   9.175   5.163  0.5403  0.1578 -0.1144
65651SOL    HW114563   7.766   9.263   5.168 -0.9218 -0.3583 -1.1379
65651SOL    HW214564   7.778   9.143   5.076  3.0823 -0.4195 -0.7372
65652SOL     OW14565   4.223  11.426   6.394  0.7807  0.0479 -0.0527
65652SOL    HW114566   4.316  11.446   6.379  0.8997  0.4056  1.0103
65652SOL    HW214567   4.178  11.509   6.378  0.6824 -0.0582 -0.3155
65653SOL     OW14568   0.483  11.703   5.387  0.4777  0.2545  0.1044
65653SOL    HW114569   0.527  11.766   5.330  0.7781  1.3150  1.4323
65653SOL    HW214570   0.425  11.757   5.442 -0.9221 -0.8894 -0.1994
65654SOL     OW14571   5.617   1.695   4.111  0.4971 -0.3979  0.2919
65654SOL    HW114572   5.683   1.749   4.155  1.4512 -0.0668 -1.4526
65654SOL    HW214573   5.648   1.605   4.124  1.6117 -0.2171 -0.9488
65655SOL     OW14574  11.250  11.409  13.164 -0.0778  0.1805  0.0299
65655SOL    HW114575  11.201  11.334  13.196  0.7069  0.0904  1.0732
65655SOL    HW214576  11.335  11.374  13.138  1.0974  0.9359  2.5049
65656SOL     OW14577  13.855   3.317   5.725 -0.2175  0.2487  0.2409
65656SOL    HW114578  13.896   3.256   5.664  0.6595  0.2703  0.7868
65656SOL    HW214579  13.784   3.268   5.764 -0.4723  0.0752 -0.4279
65657SOL     OW14580  11.319   3.073  13.720 -0.3682  0.5749  0.2059
65657SOL    HW114581  11.266   3.016  13.664 -1.0198  0.2536  1.1348
65657SOL    HW214582  11.346   3.145  13.663  1.0156 -0.9621 -1.1942
65658SOL     OW14583  13.968   8.299   2.027 -0.4161  0.3999  0.0260
65658SOL    HW114584  13.888   8.293   2.079  0.4288  1.3156  1.4778
65658SOL    HW214585  13.942   8.350   1.950 -1.8954 -1.7034 -0.9926
65659SOL     OW14586   9.922  13.054   2.146 -0.2531 -0.4614  0.1503
65659SOL    HW114587   9.827  13.063   2.143 -0.1157  1.2087 -0.7585
65659SOL    HW214588   9.945  13.017   2.060 -0.0431 -0.3319  0.1506
65660SOL     OW14589  12.997   4.752  10.453  0.8004  0.5263  0.4133
65660SOL    HW114590  12.913   4.726  10.416  0.3116  1.0002  1.1592
65660SOL    HW214591  13.022   4.679  10.510  1.1662  0.1444 -0.2334
65661SOL     OW14592   3.796   6.341   6.418  0.5434  0.3569  0.3234
65661SOL    HW114593   3.703   6.321   6.408  0.7392 -0.5238  0.1893
65661SOL    HW214594   3.839   6.292   6.348  1.1001  0.8721  0.2961
65662SOL     OW14595   5.106   1.370   9.524  0.1352 -0.3416  0.0621
65662SOL    HW114596   5.146   1.288   9.494 -1.2287 -0.0813 -2.7656
65662SOL    HW214597   5.120   1.431   9.452 -1.3551  1.0953  0.9252
65663SOL     OW14598   3.878  10.902   4.233  0.3730  0.2770 -0.1976
65663SOL    HW114599   3.893  10.822   4.282  0.7789 -0.7325 -1.8843
65663SOL    HW214600   3.922  10.970   4.283 -0.1587 -0.5007  1.3792
65664SOL     OW14601   8.772   2.361  12.500  0.2289 -0.2820 -0.0158
65664SOL    HW114602   8.836   2.419  12.459  1.6935 -0.3494  1.9814
65664SOL    HW214603   8.731   2.414  12.568 -2.0112 -0.2153 -1.3395
65665SOL     OW14604   8.593   6.530   2.550 -0.0028 -0.1212 -0.2513
65665SOL    HW114605   8.607   6.575   2.467  2.0394 -1.1428 -0.5096
65665SOL    HW214606   8.618   6.440   2.533  1.0314 -0.2298  1.6109
65666SOL     OW14607   5.843   5.531   9.048 -0.2250 -0.1910  0.2045
65666SOL    HW114608   5.864   5.583   8.970 -0.7196  0.8936  0.7665
65666SOL    HW214609   5.924   5.528   9.097 -0.7343  2.1169  1.3092
65667SOL     OW14610   3.141   8.037   2.997 -0.0275 -0.3230 -0.6728
65667SOL    HW114611   3.065   8.084   2.962  0.7358  0.7757 -0.9234
65667SOL    HW214612   3.216   8.088   2.965  0.7617 -0.4954  0.8506
65668SOL     OW14613   5.649  11.814   4.205 -0.2805  0.0615 -0.2203
65668SOL    HW114614   5.710  11.741   4.213 -0.6874 -0.1482  1.2536
65668SOL    HW214615   5.682  11.880   4.265 -1.0246  0.2877 -0.0448
65669SOL     OW14616   0.274  11.261   4.678 -0.0226 -0.7773  0.1238
65669SOL    HW114617   0.304  11.184   4.726 -0.0599 -1.4375 -0.8847
65669SOL    HW214618   0.183  11.242   4.657 -0.2250 -0.1673  0.4266
65670SOL     OW14619   2.545   0.652   4.678  0.0315 -0.3350  0.5640
65670SOL    HW114620   2.620   0.648   4.619 -0.7894 -0.2949 -0.5124
65670SOL    HW214621   2.534   0.745   4.697  0.0105 -0.3045  0.4004
65671SOL     OW14622  14.015   3.446   0.927 -0.3362  1.1906  0.1766
65671SOL    HW114623  14.102   3.407   0.914 -0.4201  1.4467 -1.3685
65671SOL    HW214624  13.998   3.436   1.021  0.2430 -1.2093  0.0764
65672SOL     OW14625   1.984   8.655   8.783 -0.6379  0.5243  0.9143
65672SOL    HW114626   2.008   8.716   8.713 -1.4465 -0.4027 -0.1982
65672SOL    HW214627   2.067   8.618   8.812 -0.0493  2.5772  2.0650
65673SOL     OW14628  12.434  10.624   6.685 -0.3910 -0.2195  0.7679
65673SOL    HW114629  12.345  10.659   6.684 -0.0431  0.6748 -0.2377
65673SOL    HW214630  12.453  10.602   6.594  0.7330  0.4223  0.8230
65674SOL     OW14631   2.656   3.444   1.858  0.4085  0.2763  0.3053
65674SOL    HW114632   2.697   3.403   1.782  0.1866  0.1503  0.2526
65674SOL    HW214633   2.642   3.372   1.920  1.6431  0.5581  0.9489
65675SOL     OW14634  11.039   4.134  10.998 -0.1896  0.4784 -0.3960
65675SOL    HW114635  11.123   4.146  10.953 -0.4122  0.7577 -0.7445
65675SOL    HW214636  11.044   4.195  11.072 -1.1354  2.5566 -1.9194
65676SOL     OW14637   0.156   1.429   3.026 -0.4238  0.2003 -0.6260
65676SOL    HW114638   0.085   1.490   3.048 -0.1387 -0.4768  2.7954
65676SOL    HW214639   0.132   1.393   2.941 -2.8517  1.8659 -0.7399
65677SOL     OW14640  10.343   0.349   3.881 -0.0777  0.0955  0.1590
65677SOL    HW114641  10.273   0.409   3.856  0.1999  0.1149 -0.5791
65677SOL    HW214642  10.307   0.301   3.956 -1.6182 -1.2007 -1.3063
65678SOL     OW14643   3.368   0.204   4.881  0.4362 -0.2138 -0.0640
65678SOL    HW114644   3.419   0.262   4.938 -1.0680  0.4580  0.6596
65678SOL    HW214645   3.279   0.206   4.918 -0.3828 -0.4886 -1.8922
65679SOL     OW14646  10.658   3.066  12.076 -0.2821  0.2051 -0.5413
65679SOL    HW114647  10.686   3.009  12.004  1.5444  0.5774 -0.1755
65679SOL    HW214648  10.614   3.007  12.137  0.1972 -0.5350 -0.8875
65680SOL     OW14649   6.540   3.279   8.538  0.2772  0.1889 -0.0528
65680SOL    HW114650   6.494   3.346   8.487  0.4625 -0.4250 -1.0575
65680SOL    HW214651   6.560   3.210   8.475  0.6807 -0.5208  0.8215
65681SOL     OW14652   2.750   4.206   8.223  0.0358 -0.0132 -0.3432
65681SOL    HW114653   2.669   4.157   8.209  0.2456 -0.1681 -1.0347
65681SOL    HW214654   2.805   4.185   8.148  0.9815 -0.4277  0.4408
65682SOL     OW14655   5.404  14.054   6.978  0.6129 -0.4507  0.3319
65682SOL    HW114656   5.436  14.111   7.047 -0.7456 -0.5082  1.0500
65682SOL    HW214657   5.309  14.058   6.986  0.3559  0.2711 -2.1396
65683SOL     OW14658   7.599   8.424   1.585  0.2635  0.8451 -0.4863
65683SOL    HW114659   7.673   8.415   1.525  0.8300  1.4962  0.0963
65683SOL    HW214660   7.542   8.489   1.545  0.7251  1.4044 -0.2482
65684SOL     OW14661   2.180   7.197  12.250  0.0458 -0.6079 -0.0710
65684SOL    HW114662   2.225   7.237  12.325  1.5405  0.4506 -1.4570
65684SOL    HW214663   2.096   7.244  12.245  0.3813  0.0583  0.3130
65685SOL     OW14664   4.788   2.515  13.559  0.1899  0.0939 -0.2606
65685SOL    HW114665   4.709   2.553  13.520 -1.2227 -1.2973  1.1291
65685SOL    HW214666   4.846   2.498  13.484 -0.2219  2.3988 -1.1677
65686SOL     OW14667   4.329  12.365   9.222  0.0195  0.2904  0.2190
65686SOL    HW114668   4.416  12.379   9.260  0.2526  1.5322 -0.7349
65686SOL    HW214669   4.281  12.446   9.240  0.3532  1.2350 -2.6442
65687SOL     OW14670   9.136  13.610   5.038 -0.3113  0.1260 -0.1375
65687SOL    HW114671   9.206  13.598   5.102 -1.1945  2.1803  1.3211
65687SOL    HW214672   9.080  13.677   5.076 -1.5923  0.5155 -2.5063
65688SOL     OW14673   6.340   5.918  11.569  0.2107 -0.9713 -0.2899
65688SOL    HW114674   6.417   5.938  11.622  0.4758  0.0548 -1.0473
65688SOL    HW214675   6.285   5.864  11.627  2.6396 -4.0628 -0.5781
65689SOL     OW14676   1.237   0.645   0.790 -0.6283  0.1486  0.1257
65689SOL    HW114677   1.244   0.686   0.704  1.2205  1.1782  0.7096
65689SOL    HW214678   1.143   0.631   0.802 -0.9057 -0.3864 -2.1925
65690SOL     OW14679  11.532   0.932   8.254  0.0930  0.2956  0.2677
65690SOL    HW114680  11.518   0.838   8.248 -0.0810  0.3757 -0.7850
65690SOL    HW214681  11.594   0.943   8.327  1.0485 -0.7238 -0.3688
65691SOL     OW14682  13.018   8.476  12.860 -0.3015 -0.4135  0.0337
65691SOL    HW114683  13.056   8.507  12.778 -2.3500 -0.0350 -0.8479
65691SOL    HW214684  12.992   8.556  12.906  0.6086 -0.6322  0.9672
65692SOL     OW14685  10.583  12.636   2.979  0.6259  0.1039 -0.3720
65692SOL    HW114686  10.672  12.664   2.958  0.5909 -0.1358 -0.8603
65692SOL    HW214687  10.542  12.620   2.894 -0.9196  3.2443 -0.3435
65693SOL     OW14688  11.471   4.353   7.853 -0.6309  0.1859 -0.1399
65693SOL    HW114689  11.423   4.339   7.771 -1.1465 -0.1743  0.2167
65693SOL    HW214690  11.547   4.295   7.846 -0.6188  0.2323 -0.4074
65694SOL     OW14691   4.303   4.761  12.690  0.1215 -0.3106  0.1248
65694SOL    HW114692   4.301   4.670  12.720 -1.3155 -0.3463  0.0017
65694SOL    HW214693   4.395   4.778  12.672  0.4380 -1.6989  0.2892
65695SOL     OW14694   5.531  11.139   0.544 -0.4625 -0.5653  0.1622
65695SOL    HW114695   5.548  11.049   0.514 -0.3896 -0.5352  0.1140
65695SOL    HW214696   5.473  11.128   0.619 -2.3552 -0.5546 -1.2349
65696SOL     OW14697   6.575   3.227   7.222  0.2778  0.1287  0.1090
65696SOL    HW114698   6.608   3.143   7.191  2.0125  1.2741 -1.3962
65696SOL    HW214699   6.510   3.205   7.289 -0.6731 -2.4175 -1.5162
65697SOL     OW14700   7.489   3.089   2.515  0.2448  0.0769  0.2411
65697SOL    HW114701   7.408   3.139   2.507  0.0119 -0.3654 -0.2423
65697SOL    HW214702   7.532   3.125   2.593  0.7736  1.9585 -0.8822
65698SOL     OW14703  10.386  10.443  13.082  0.1802 -0.3692  0.1129
65698SOL    HW114704  10.396  10.354  13.116  1.3989  0.1623  1.2250
65698SOL    HW214705  10.475  10.470  13.061 -0.2410  0.4039 -0.7162
65699SOL     OW14706  12.480  11.716   3.420  0.3220  0.3544  0.4470
65699SOL    HW114707  12.550  11.745   3.362  2.2132 -2.4447  1.1743
65699SOL    HW214708  12.521  11.710   3.506 -1.2049 -0.0154  1.1809
65700SOL     OW14709   9.778   5.023   4.139  0.4369  0.0242 -0.0646
65700SOL    HW114710   9.766   5.098   4.081  0.6879  0.0324 -0.1062
65700SOL    HW214711   9.860   5.042   4.186  0.6636 -0.3641 -0.2965
65701SOL     OW14712   3.247  13.410   6.798  0.1276  0.2719  0.3337
65701SOL    HW114713   3.202  13.483   6.754 -0.3788 -0.2499 -0.0180
65701SOL    HW214714   3.331  13.403   6.753 -1.4099 -2.0436 -2.5295
65702SOL     OW14715   8.589  12.395  10.004 -0.5201  0.2806  0.0117
65702SOL    HW114716   8.507  12.367   9.963 -1.4730  1.8298  0.7158
65702SOL    HW214717   8.598  12.487   9.977 -0.0986  0.7212  1.5324
65703SOL     OW14718   9.674   7.167   4.628 -0.6016  0.2091 -0.1003
65703SOL    HW114719   9.731   7.243   4.644 -0.6960  0.1613  0.4887
65703SOL    HW214720   9.686   7.112   4.705 -0.6961 -0.2782 -0.4276
65704SOL     OW14721   8.667   4.593   1.788  0.5741  0.3957  0.0458
65704SOL    HW114722   8.591   4.646   1.811 -0.8685 -1.1718 -0.9401
65704SOL    HW214723   8.700   4.561   1.872 -1.0593 -0.4846  0.3893
65705SOL     OW14724   7.974   5.002   7.341  0.3495  0.6657 -0.6790
65705SOL    HW114725   7.974   4.907   7.329  0.2663  0.8588 -2.6849
65705SOL    HW214726   8.025   5.035   7.267 -0.5834  2.2284 -0.6683
65706SOL     OW14727   3.577   9.317   6.883  0.0634 -0.3947 -0.5253
65706SOL    HW114728   3.669   9.335   6.901  0.0117 -1.4362  1.0160
65706SOL    HW214729   3.530   9.366   6.950 -0.3025 -2.2433  0.6601
65707SOL     OW14730  13.649   2.562  13.847  0.4188 -0.6799 -0.6731
65707SOL    HW114731  13.619   2.652  13.837  2.1153 -0.0833 -0.7043
65707SOL    HW214732  13.610   2.533  13.930 -0.2312  0.0357 -0.7167
65708SOL     OW14733   3.353   7.163   0.677  0.0586  0.1331 -0.2384
65708SOL    HW114734   3.300   7.144   0.599 -2.1245 -1.4535  1.5036
65708SOL    HW214735   3.437   7.120   0.659 -0.8862 -1.4369 -1.1588
65709SOL     OW14736  11.744   2.195  12.202  0.2810 -0.6690  0.1219
65709SOL    HW114737  11.772   2.110  12.167  0.1738 -0.0404 -1.5732
65709SOL    HW214738  11.676   2.224  12.142 -0.3293  0.2116  1.2146
65710SOL     OW14739   5.792  11.469   1.879  0.0113 -0.2362 -0.4110
65710SOL    HW114740   5.722  11.519   1.922  1.7987  2.9695 -0.8878
65710SOL    HW214741   5.847  11.438   1.951  0.1205  0.5578 -0.1343
65711SOL     OW14742   4.217   1.676   2.405  0.3312  0.0460 -0.0802
65711SOL    HW114743   4.170   1.749   2.364  1.5678  0.6930 -0.4200
65711SOL    HW214744   4.268   1.718   2.475 -1.0994 -0.9211  1.6001
65712SOL     OW14745  10.397   4.213   9.756  0.3910  0.1448  0.0682
65712SOL    HW114746  10.334   4.177   9.818 -1.1612  0.5575 -1.2018
65712SOL    HW214747  10.408   4.144   9.690  0.9655  0.2365  0.0604
65713SOL     OW14748   2.778   1.991  11.137 -0.1306 -0.3556  0.1570
65713SOL    HW114749   2.766   1.906  11.178 -1.4192 -0.1067  0.3213
65713SOL    HW214750   2.690   2.028  11.131  0.5543  1.7394  1.7371
65714SOL     OW14751   7.377   6.088   8.606 -0.3979  0.1005 -0.0357
65714SOL    HW114752   7.414   6.090   8.518  1.6895 -2.2578  0.6761
65714SOL    HW214753   7.355   5.996   8.621  2.1246 -0.1885  2.8999
65715SOL     OW14754  10.213  11.000   9.712  0.3545  0.2062  0.6587
65715SOL    HW114755  10.152  11.074   9.709  0.7177  0.5962  2.1376
65715SOL    HW214756  10.298  11.038   9.692  0.4788  0.1150  1.0087
65716SOL     OW14757   1.140   8.524   3.017 -0.3071  0.2338  0.5436
65716SOL    HW114758   1.228   8.547   3.046  0.5294 -0.6207 -1.1704
65716SOL    HW214759   1.082   8.562   3.083  1.3382  0.7336  1.7574
65717SOL     OW14760   0.020   6.821   2.284 -0.2045 -0.6666  0.2181
65717SOL    HW114761   0.004   6.849   2.194 -1.0371 -2.5292 -0.2779
65717SOL    HW214762   0.108   6.852   2.304 -1.1470  2.5750 -0.0509
65718SOL     OW14763   4.559   2.228   9.459  0.1692  0.2113  0.3126
65718SOL    HW114764   4.467   2.255   9.457  0.1181  0.0087 -1.3990
65718SOL    HW214765   4.573   2.197   9.549 -2.1280 -2.0294  0.0136
65719SOL     OW14766   2.054  12.419   4.817 -0.0447  0.2338  0.0957
65719SOL    HW114767   2.066  12.350   4.752  1.3020  0.4628  0.0712
65719SOL    HW214768   1.983  12.387   4.873 -0.4868 -0.4506 -0.8356
65720SOL     OW14769   0.263   0.515   2.798 -0.1997  0.7646  0.5864
65720SOL    HW114770   0.324   0.534   2.726 -0.6172 -1.9786 -0.5968
65720SOL    HW214771   0.320   0.493   2.872  0.2234  1.1847  0.3948
65721SOL     OW14772   4.062   2.833   7.020  0.1127 -0.0386 -0.0340
65721SOL    HW114773   4.142   2.875   7.051  0.3849 -0.6422  0.0930
65721SOL    HW214774   4.051   2.865   6.930 -0.4910  1.4453  0.5328
65722SOL     OW14775   4.854   3.160  11.188 -0.1782 -0.1379  0.2544
65722SOL    HW114776   4.768   3.118  11.183  0.3343 -1.1157 -1.1009
65722SOL    HW214777   4.916   3.089  11.168  0.8981  0.6977  0.5344
65723SOL     OW14778   0.553   9.492   1.854 -0.3510 -0.4442 -0.1820
65723SOL    HW114779   0.590   9.404   1.855 -1.3478 -0.9124 -1.3619
65723SOL    HW214780   0.623   9.547   1.818 -0.4093 -1.1279 -1.3964
65724SOL     OW14781   1.684   5.793  13.459  0.0424 -0.1711 -0.7945
65724SOL    HW114782   1.778   5.779  13.453  0.0738  0.5657 -2.9622
65724SOL    HW214783   1.673   5.886  13.443 -1.1542 -0.5590 -2.4286
65725SOL     OW14784   1.780  13.495   0.115 -0.3643 -0.4278  0.2931
65725SOL    HW114785   1.809  13.434   0.183  0.7930  0.9191  1.0589
65725SOL    HW214786   1.783  13.581   0.157 -0.1894  0.3729 -1.2898
65726SOL     OW14787  10.791  10.630   6.901 -0.0776  0.3251 -0.4739
65726SOL    HW114788  10.797  10.693   6.829 -0.8381 -0.9778 -1.7288
65726SOL    HW214789  10.880  10.599   6.914  0.1717  1.0644 -0.3998
65727SOL     OW14790   1.481   5.220  10.844  0.0177  0.1661  0.6375
65727SOL    HW114791   1.403   5.214  10.789 -0.8566 -0.2261  1.8902
65727SOL    HW214792   1.473   5.148  10.906  1.6458 -0.1939  0.4784
65728SOL     OW14793  10.969  10.132   1.692 -0.2929 -0.0250  0.0981
65728SOL    HW114794  10.950  10.038   1.687  1.4990 -0.5643  1.8848
65728SOL    HW214795  11.055  10.141   1.651  0.3349  0.5036  1.4535
65729SOL     OW14796   7.795  11.426  11.525 -0.1134  0.9672  0.5081
65729SOL    HW114797   7.803  11.519  11.547  1.6254  0.9492  0.0650
65729SOL    HW214798   7.872  11.385  11.563 -0.5210 -0.1928  0.1397
65730SOL     OW14799   9.707  12.572  13.062  0.7991  0.1896 -0.6783
65730SOL    HW114800   9.615  12.595  13.076  0.9746  0.7220 -0.3405
65730SOL    HW214801   9.712  12.479  13.082  0.4286  0.2680 -0.2026
65731SOL     OW14802   9.378  10.938   2.298 -0.9828  0.7655 -0.4438
65731SOL    HW114803   9.314  10.883   2.253 -0.9042  0.7164 -0.4954
65731SOL    HW214804   9.344  11.027   2.289 -0.2290  0.9393 -1.8744
65732SOL     OW14805   4.074  11.880   9.427 -0.1023  0.0080  0.2636
65732SOL    HW114806   4.069  11.944   9.356 -1.5073  2.4383  2.3584
65732SOL    HW214807   3.988  11.839   9.429  0.2063 -0.6641  0.0643
65733SOL     OW14808   3.899   4.829   6.162 -0.3451 -0.1972  0.0260
65733SOL    HW114809   3.967   4.878   6.209  0.1062  0.0162 -0.8300
65733SOL    HW214810   3.881   4.754   6.218  1.4276 -0.8723 -0.2521
65734SOL     OW14811   0.987   8.480   9.801 -0.4179 -0.4665 -1.2017
65734SOL    HW114812   0.962   8.545   9.736 -2.3187  0.4255  0.3307
65734SOL    HW214813   1.045   8.420   9.753  1.6177  2.3839 -2.6428
65735SOL     OW14814  10.697   8.809   5.031  0.1086 -0.2805 -0.2514
65735SOL    HW114815  10.735   8.724   5.009  0.5893 -0.3748  0.8444
65735SOL    HW214816  10.763   8.851   5.086 -0.5911  0.3386  0.1384
65736SOL     OW14817   4.031   5.219   3.847 -0.0462  0.1787  0.5015
65736SOL    HW114818   4.058   5.294   3.794  1.2404 -0.4091  0.2864
65736SOL    HW214819   4.112   5.170   3.863 -0.9943 -1.7483 -0.2839
65737SOL     OW14820   5.686   3.901   1.035  0.1677  0.0318  0.0418
65737SOL    HW114821   5.677   3.913   1.130 -1.2274  0.6852 -0.1392
65737SOL    HW214822   5.625   3.965   0.998  0.8879 -0.0350 -1.3139
65738SOL     OW14823  13.185  11.308  12.544 -0.4930 -0.0508 -0.3427
65738SOL    HW114824  13.209  11.254  12.469 -0.8797 -1.1305  0.2957
65738SOL    HW214825  13.121  11.255  12.592  0.6671  0.0806  1.4220
65739SOL     OW14826   4.512   1.144   2.522  0.3908 -0.5876 -0.0943
65739SOL    HW114827   4.481   1.211   2.582 -1.1892  0.4459 -1.9802
65739SOL    HW214828   4.584   1.186   2.474  0.2134 -0.6700 -0.4327
65740SOL     OW14829   1.031   7.276  11.255  0.9665 -0.5934 -0.9248
65740SOL    HW114830   1.079   7.226  11.321  0.9121  1.9642  1.2124
65740SOL    HW214831   1.099   7.322  11.206  0.9112  1.5029  0.8238
65741SOL     OW14832   3.939   8.889   7.548 -0.3867 -0.1016  0.2092
65741SOL    HW114833   4.010   8.946   7.519 -1.5295  1.1735 -0.1946
65741SOL    HW214834   3.964   8.802   7.517  0.7393  0.4062 -0.3699
65742SOL     OW14835  11.352  12.993   2.908  0.1538  0.3136  0.1060
65742SOL    HW114836  11.432  13.041   2.886 -0.3599  1.1764  0.1090
65742SOL    HW214837  11.290  13.060   2.935 -0.5631 -0.3608  0.1600
65743SOL     OW14838  10.508  13.264   7.631  0.1518  0.4922 -0.2172
65743SOL    HW114839  10.564  13.313   7.569 -1.4955  1.4227 -1.0506
65743SOL    HW214840  10.422  13.304   7.621 -1.0584 -1.9084 -0.1454
65744SOL     OW14841  13.039   7.310   5.265  0.2091  0.2183 -0.2446
65744SOL    HW114842  12.982   7.300   5.189  1.5271  1.9868 -1.5516
65744SOL    HW214843  12.984   7.284   5.339 -1.7470  0.2680 -1.5976
65745SOL     OW14844   8.683   6.616   5.878 -0.3680 -0.2119 -0.3689
65745SOL    HW114845   8.732   6.681   5.929 -0.8323  1.1868 -1.6159
65745SOL    HW214846   8.600   6.606   5.924 -0.4818  0.4648 -0.4146
65746SOL     OW14847   7.648   6.336   1.314 -0.2944  0.3056 -0.3209
65746SOL    HW114848   7.729   6.339   1.364  0.7191 -0.4288 -1.8370
65746SOL    HW214849   7.609   6.251   1.336 -0.8765  0.8209  0.7016
65747SOL     OW14850   5.934  10.051  13.788 -0.0907 -0.0534 -0.5092
65747SOL    HW114851   5.858  10.073  13.842 -0.3358 -3.6371  0.8967
65747SOL    HW214852   6.010  10.065  13.844 -0.1574 -1.3481 -0.0617
65748SOL     OW14853  10.625   1.514  11.703  0.1163  0.4808  0.1669
65748SOL    HW114854  10.566   1.574  11.749  0.6569  0.6431  0.6722
65748SOL    HW214855  10.574   1.433  11.695 -0.7325  1.0918 -0.8060
65749SOL     OW14856   6.405  13.331  11.185  0.4866  0.5045  0.0627
65749SOL    HW114857   6.456  13.262  11.142  1.9524  2.0173 -0.7716
65749SOL    HW214858   6.345  13.285  11.243  2.4052 -1.4455  0.6358
65750SOL     OW14859   3.451   4.397   8.327  0.1225  0.6786 -0.1759
65750SOL    HW114860   3.463   4.444   8.244 -0.6629  0.8711 -0.1851
65750SOL    HW214861   3.538   4.361   8.346  0.3385  0.7112 -1.0301
65751SOL     OW14862   1.161   0.242  12.160 -0.6864  0.0836  1.0039
65751SOL    HW114863   1.171   0.337  12.164 -0.4854  0.1509 -0.3461
65751SOL    HW214864   1.142   0.215  12.250 -1.8844  1.5313  1.2309
65752SOL     OW14865   1.438  10.274  11.117 -0.0587  0.4729 -0.1068
65752SOL    HW114866   1.442  10.183  11.147  2.4750  0.6120  0.1655
65752SOL    HW214867   1.489  10.274  11.036  1.2002  1.9042  0.6488
65753SOL     OW14868   7.007  12.618  11.213 -0.4569  0.4604 -0.0988
65753SOL    HW114869   6.939  12.609  11.279 -0.5723  2.1569  0.0773
65753SOL    HW214870   6.966  12.590  11.131 -0.9515  0.2244  0.2283
65754SOL     OW14871  13.617   2.060   7.521 -0.3280 -0.2769 -0.0150
65754SOL    HW114872  13.697   2.015   7.493  0.5748  0.8994  0.6037
65754SOL    HW214873  13.582   2.003   7.590  0.4763 -0.3660  0.3419
65755SOL     OW14874   2.436  12.998   4.737  0.0587  0.4393 -0.1958
65755SOL    HW114875   2.486  13.067   4.781 -0.2977 -0.4598  1.7080
65755SOL    HW214876   2.485  12.918   4.756 -1.4080 -0.2838  0.6671
65756SOL     OW14877   1.976   7.424  11.330 -0.6188 -0.0472 -0.1535
65756SOL    HW114878   1.995   7.492  11.266  1.0791  0.0489  0.4125
65756SOL    HW214879   1.993   7.341  11.284 -3.4219 -0.2190 -1.0899
65757SOL     OW14880   2.217  10.491  11.575 -0.0136  0.5208  0.4478
65757SOL    HW114881   2.270  10.556  11.622  1.0734 -1.6296  2.3723
65757SOL    HW214882   2.170  10.444  11.644 -0.7542 -0.7664 -0.8811
65758SOL     OW14883   5.985  13.129   9.560 -0.3492 -0.5489 -0.6553
65758SOL    HW114884   6.079  13.121   9.574 -0.2498 -0.1709 -1.0812
65758SOL    HW214885   5.946  13.069   9.623  0.1859 -0.8883 -0.6451
65759SOL     OW14886   4.688  13.645  13.916  0.3385  0.3647  0.5445
65759SOL    HW114887   4.754  13.578  13.900  0.3529  0.3765  0.5552
65759SOL    HW214888   4.713  13.682  14.001  0.8170  0.9591  0.1469
65760SOL     OW14889  13.610  12.878  12.724 -0.4507 -0.7272  0.1783
65760SOL    HW114890  13.577  12.827  12.797 -0.7489 -0.8839 -0.0632
65760SOL    HW214891  13.560  12.959  12.725  0.2687 -0.2765  0.7790
65761SOL     OW14892   1.739   6.851   1.724  0.1045 -0.4138  0.0230
65761SOL    HW114893   1.682   6.782   1.758 -0.9017  0.4366  0.1167
65761SOL    HW214894   1.684   6.899   1.663  0.6411  0.5755  0.2949
65762SOL     OW14895   8.217   2.177  10.797 -0.6350  0.2270  0.0952
65762SOL    HW114896   8.133   2.146  10.830  0.3225 -1.4318  1.1044
65762SOL    HW214897   8.250   2.236  10.865 -1.0417  1.0047 -0.3747
65763SOL     OW14898   6.734   6.134   3.961 -0.4084 -0.7806  0.4315
65763SOL    HW114899   6.653   6.085   3.974 -0.7111 -0.1725  0.9458
65763SOL    HW214900   6.713   6.196   3.891 -0.3233 -0.7535  0.4301
65764SOL     OW14901   7.921   2.251   6.798 -0.3225 -0.6535 -0.0288
65764SOL    HW114902   8.001   2.291   6.762 -0.4105 -1.1811 -0.8332
65764SOL    HW214903   7.883   2.320   6.852  0.4852 -0.2684  0.0748
65765SOL     OW14904   9.144   2.398  12.778  0.3535  0.6886 -0.7042
65765SOL    HW114905   9.150   2.341  12.855 -2.6902 -0.3306 -1.0774
65765SOL    HW214906   9.190   2.351  12.709  1.8499  0.9301  0.0880
65766SOL     OW14907   1.119   6.799   0.277  0.0764  0.3039  0.1677
65766SOL    HW114908   1.190   6.774   0.336 -0.2550 -1.0221  0.0446
65766SOL    HW214909   1.154   6.872   0.226  1.2874 -0.2164  0.2262
65767SOL     OW14910   2.307   1.125   3.737 -0.4385 -0.2463 -0.3162
65767SOL    HW114911   2.399   1.146   3.720  0.4762 -1.9709  1.8749
65767SOL    HW214912   2.303   1.113   3.832 -3.1963  0.7496 -0.2296
65768SOL     OW14913  13.325   7.424   9.286  0.0925 -0.0527  0.3548
65768SOL    HW114914  13.255   7.472   9.242 -1.3123 -2.0343  0.2647
65768SOL    HW214915  13.405   7.472   9.265 -1.2377  2.5904  0.8586
65769SOL     OW14916   2.362   0.872   8.974 -0.2561 -0.6109  0.1542
65769SOL    HW114917   2.348   0.822   9.054 -2.3098  0.1712  0.3507
65769SOL    HW214918   2.323   0.820   8.905 -0.3558 -0.3290 -0.0047
65770SOL     OW14919   0.544   4.700   0.767  0.5739 -0.5469 -0.1102
65770SOL    HW114920   0.584   4.787   0.772  2.7233 -1.4707  0.1226
65770SOL    HW214921   0.610   4.642   0.805 -0.2016 -2.4720 -1.5521
65771SOL     OW14922  10.671   6.779  14.048 -0.0493 -0.0237  0.2166
65771SOL    HW114923  10.671   6.822  14.133 -0.6162 -2.2468  1.4165
65771SOL    HW214924  10.713   6.695  14.064 -0.1568 -0.4889 -1.7226
65772SOL     OW14925  11.385  13.266   9.108  0.3112  0.2111  0.0358
65772SOL    HW114926  11.472  13.276   9.068 -0.7249 -1.4443 -2.9615
65772SOL    HW214927  11.336  13.342   9.078 -0.7437 -1.4870 -2.9391
65773SOL     OW14928   7.025  10.694  12.737 -0.0394  0.8520 -0.2438
65773SOL    HW114929   6.961  10.674  12.806 -0.0898  1.7834 -0.0144
65773SOL    HW214930   7.074  10.612  12.727 -1.1158  0.1861 -0.2760
65774SOL     OW14931  10.910  10.754   5.221 -0.1071 -0.2735  0.1671
65774SOL    HW114932  10.864  10.834   5.245  1.2048 -0.3251  3.4695
65774SOL    HW214933  10.989  10.784   5.176  0.7474  0.4561  2.0303
65775SOL     OW14934  11.307  13.295  12.091 -0.1480  0.2194  0.5398
65775SOL    HW114935  11.243  13.233  12.127  1.1815 -0.2752  2.2021
65775SOL    HW214936  11.324  13.355  12.164  0.4589  1.0036 -0.2391
65776SOL     OW14937   1.798   7.116  11.371  0.6641  0.3573  0.5638
65776SOL    HW114938   1.809   7.139  11.463  0.7649  0.8431  0.4332
65776SOL    HW214939   1.711   7.078  11.365  0.9752 -0.4613  1.0135
65777SOL     OW14940  13.614  10.771   7.345 -0.1332  0.1858  0.0614
65777SOL    HW114941  13.574  10.686   7.358 -0.1633  0.2050  0.0949
65777SOL    HW214942  13.699  10.752   7.305  0.0807  0.1089  0.5448
65778SOL     OW14943   1.165   0.109   0.220  0.2085 -0.4468 -0.4202
65778SOL    HW114944   1.200   0.100   0.132  0.9357  0.5701 -0.2480
65778SOL    HW214945   1.211   0.184   0.257 -1.3248  0.2238  0.2301
65779SOL     OW14946   2.122  12.414  10.071  0.0763 -0.0556 -0.1218
65779SOL    HW114947   2.176  12.374  10.003  0.1540 -0.1865  0.0139
65779SOL    HW214948   2.033  12.386  10.050  0.0652  0.1274 -0.3228
65780SOL     OW14949   8.339  13.363   5.169  0.3208  0.6169  0.3714
65780SOL    HW114950   8.255  13.406   5.158 -0.0692 -0.2366 -0.1381
65780SOL    HW214951   8.398  13.408   5.108  0.0941  0.8662  0.3379
65781SOL     OW14952   2.231   2.144  13.744  0.3496 -0.4087 -0.6868
65781SOL    HW114953   2.249   2.127  13.837 -2.2731 -0.3326 -0.0860
65781SOL    HW214954   2.298   2.094  13.697  1.7061 -0.5026  1.2214
65782SOL     OW14955   6.513  11.571   8.974  0.6179 -0.0078 -0.4844
65782SOL    HW114956   6.574  11.553   9.046 -0.0849  0.1010  0.1449
65782SOL    HW214957   6.454  11.496   8.974  0.3320  0.2187 -0.6531
65783SOL     OW14958   9.674   8.739  12.024  0.1141 -0.0655  0.1189
65783SOL    HW114959   9.654   8.796  12.098  0.6236 -0.7258  0.7840
65783SOL    HW214960   9.711   8.661  12.064 -2.5402 -1.8107 -0.5804
65784SOL     OW14961  10.814   1.144   6.214  1.1048 -0.2403  0.7864
65784SOL    HW114962  10.875   1.110   6.148 -1.1441 -1.0961 -1.0033
65784SOL    HW214963  10.782   1.226   6.177  0.0508 -0.5649  0.9466
65785SOL     OW14964   4.872  12.311   9.171  0.2836  0.4661 -0.2753
65785SOL    HW114965   4.801  12.269   9.218  0.5176  1.2579  0.8168
65785SOL    HW214966   4.948  12.255   9.186  0.3246  0.6415  0.1864
65786SOL     OW14967   1.530   2.132   9.016  0.3350  0.1992  0.0789
65786SOL    HW114968   1.436   2.115   9.009  0.5117 -1.3164  0.8516
65786SOL    HW214969   1.537   2.220   9.052 -0.8215 -0.0150  0.8602
65787SOL     OW14970  10.962  11.416  11.284 -0.1042  0.0309  0.1335
65787SOL    HW114971  10.982  11.472  11.359 -1.2694 -0.4892  0.8533
65787SOL    HW214972  11.006  11.333  11.304  2.4362  0.8936 -1.3780
65788SOL     OW14973   1.050   7.960   4.804 -0.1990  0.3424  0.0592
65788SOL    HW114974   1.137   7.922   4.799 -0.0609  0.1324  2.8767
65788SOL    HW214975   1.052   8.033   4.741  1.8050  0.0144 -0.3067
65789SOL     OW14976  12.775  13.541  13.090 -0.0001 -0.2406  0.1482
65789SOL    HW114977  12.870  13.536  13.093  0.0378  0.5513  0.4133
65789SOL    HW214978  12.752  13.526  12.999  0.4966  1.3519 -0.2697
65790SOL     OW14979  10.762   4.265  12.642  0.8518  0.5547  0.0957
65790SOL    HW114980  10.762   4.294  12.551 -0.9072  1.7744  0.4312
65790SOL    HW214981  10.694   4.198  12.645 -0.2228  1.6500  0.8089
65791SOL     OW14982  11.590  10.474  10.381 -1.1481  0.1846 -0.3991
65791SOL    HW114983  11.664  10.502  10.434 -1.6130 -0.6137  0.7175
65791SOL    HW214984  11.565  10.552  10.331  0.0168  0.6386 -0.2901
65792SOL     OW14985  10.232  12.423  10.461  0.0260 -0.3722  0.3429
65792SOL    HW114986  10.289  12.492  10.429  1.7442 -1.2617  1.3407
65792SOL    HW214987  10.222  12.363  10.386  1.1292 -0.6457  0.3991
65793SOL     OW14988  10.529  11.404  11.081 -0.0460  0.1096 -0.1442
65793SOL    HW114989  10.574  11.320  11.068 -1.8496 -1.3134  1.9795
65793SOL    HW214990  10.576  11.446  11.153  0.6532  0.8204 -0.9903
65794SOL     OW14991   1.062   3.222   8.158 -0.3773 -0.3244  0.2901
65794SOL    HW114992   1.056   3.152   8.223  0.7465 -0.2399  0.5016
65794SOL    HW214993   1.073   3.302   8.210 -0.1571 -0.1727  0.0134
65795SOL     OW14994   2.040   6.224   8.944 -0.3234  0.7083 -0.1071
65795SOL    HW114995   2.116   6.181   8.905 -1.3935 -0.7082 -0.7521
65795SOL    HW214996   2.014   6.167   9.016 -0.8732  1.0856  0.0027
65796SOL     OW14997   0.906   6.926   5.511  0.2065 -0.3872 -0.1942
65796SOL    HW114998   0.995   6.925   5.476  0.2056  2.4364 -0.5295
65796SOL    HW214999   0.914   6.974   5.594 -0.4947 -3.2214  1.6573
65797SOL     OW15000   3.151   1.052   8.479 -0.4544  0.3681 -0.0954
65797SOL    HW115001   3.085   1.116   8.451  0.1740  0.7040 -0.8544
65797SOL    HW215002   3.209   1.102   8.536 -1.2689 -0.1174  1.2053
65798SOL     OW15003  13.569   4.108  10.743  0.0569 -0.1471 -0.0572
65798SOL    HW115004  13.550   4.196  10.775 -0.9906 -0.5433  0.4534
65798SOL    HW215005  13.664   4.105  10.735  0.1909  0.6380  1.0906
65799SOL     OW15006   2.668   3.791   2.405 -0.5334 -0.0465  0.1515
65799SOL    HW115007   2.681   3.766   2.313 -1.2991  2.9595 -0.9121
65799SOL    HW215008   2.582   3.756   2.428 -0.2915 -0.9127 -0.2488
65800SOL     OW15009   2.101   5.479   2.189  0.1036  0.8654 -0.1336
65800SOL    HW115010   2.071   5.566   2.215 -2.5417 -0.1937  0.6861
65800SOL    HW215011   2.059   5.463   2.104  0.4183  0.3316 -0.1936
65801SOL     OW15012   6.491   8.465  13.299  0.0796 -0.5723 -0.6682
65801SOL    HW115013   6.498   8.392  13.362  2.6047  0.0700 -0.1071
65801SOL    HW215014   6.444   8.533  13.347  0.2358 -0.8116 -0.1618
65802SOL     OW15015  13.165   9.520   8.461 -0.1277  0.2138  0.1714
65802SOL    HW115016  13.151   9.425   8.466  2.0268 -0.2255 -0.7189
65802SOL    HW215017  13.202   9.533   8.373  0.3415  1.7612  0.5816
65803SOL     OW15018   9.375   3.420  10.851  0.0523  0.1027  0.0584
65803SOL    HW115019   9.368   3.484  10.780  0.7169 -2.1048 -2.1232
65803SOL    HW215020   9.445   3.361  10.824 -1.5556 -2.4894  1.1360
65804SOL     OW15021   3.193   3.906   7.138  0.3299 -0.1186 -0.1543
65804SOL    HW115022   3.106   3.918   7.099  0.4626 -0.9229 -0.7258
65804SOL    HW215023   3.187   3.823   7.185  0.3011  0.6328  1.2230
65805SOL     OW15024   6.386   0.880  13.032 -0.3272  0.1012 -0.1981
65805SOL    HW115025   6.343   0.809  12.984 -1.9373  0.2574  0.9352
65805SOL    HW215026   6.362   0.960  12.984 -1.9149  0.2548  0.7817
65806SOL     OW15027   9.408  12.935   5.468 -0.2329 -0.1748  0.4316
65806SOL    HW115028   9.358  12.902   5.542  1.6080 -2.0775  0.9304
65806SOL    HW215029   9.380  13.026   5.458 -1.5033 -0.2783  2.5996
65807SOL     OW15030   3.908   7.038   5.453  0.1925  0.0081 -0.3985
65807SOL    HW115031   3.857   7.077   5.525 -0.6821 -0.0468 -0.9759
65807SOL    HW215032   3.892   7.095   5.378  2.2818  0.9068 -0.2222
65808SOL     OW15033   4.103   6.742  10.430 -0.2955 -0.1219 -0.6403
65808SOL    HW115034   4.185   6.769  10.472 -1.1385 -1.0142  1.6819
65808SOL    HW215035   4.080   6.816  10.374  0.1336  1.7827  1.5748
65809SOL     OW15036   5.074   0.961  10.054  0.4102 -0.1141 -0.2857
65809SOL    HW115037   4.981   0.970  10.076  0.0904 -1.0643 -1.1934
65809SOL    HW215038   5.085   1.011   9.973  0.5136 -0.6526 -0.6079
65810SOL     OW15039  12.838   0.964   3.272 -0.4346 -0.2243 -0.7080
65810SOL    HW115040  12.926   1.002   3.274  0.1454 -1.4314 -1.7028
65810SOL    HW215041  12.850   0.873   3.298 -1.9492  0.4069  2.6349
65811SOL     OW15042   7.025   6.302  12.397  0.8304 -0.4752  0.3326
65811SOL    HW115043   6.980   6.217  12.401  1.6877 -0.9166  0.7228
65811SOL    HW215044   6.961   6.360  12.355  0.8901 -1.7543 -1.6681
65812SOL     OW15045   5.281   0.347   8.915 -0.7590  0.4320  0.0643
65812SOL    HW115046   5.308   0.269   8.866 -0.6128  1.0065 -0.7865
65812SOL    HW215047   5.318   0.420   8.866  0.4305  0.9811  1.7144
65813SOL     OW15048   1.326   1.082  12.551 -0.2991  0.4450  0.0166
65813SOL    HW115049   1.366   1.127  12.476 -0.1201  0.1388 -0.0712
65813SOL    HW215050   1.328   0.989  12.528 -0.4918  0.3724  0.2840
65814SOL     OW15051   1.117   8.255  12.496  0.7447  0.1435  0.2504
65814SOL    HW115052   1.073   8.340  12.489  2.1780  0.9444  0.5774
65814SOL    HW215053   1.092   8.208  12.417 -0.4035  0.6934  0.2613
65815SOL     OW15054   2.757  13.578   9.380 -0.2383  0.6402  0.3225
65815SOL    HW115055   2.775  13.648   9.318 -0.0328 -0.7549 -1.2759
65815SOL    HW215056   2.757  13.498   9.327 -1.7711 -0.4490  1.8395
65816SOL     OW15057  13.069  11.549   5.838  0.1066  1.0343 -0.0641
65816SOL    HW115058  13.090  11.530   5.746 -1.2325  0.3883 -0.2618
65816SOL    HW215059  13.147  11.591   5.872  2.5852 -2.9272 -0.1821
65817SOL     OW15060   5.925  11.824   9.008  0.1992  0.1301 -0.0386
65817SOL    HW115061   6.003  11.879   9.018  0.1731 -0.1141  1.8887
65817SOL    HW215062   5.859  11.865   9.063 -1.3837  0.8277 -2.3233
65818SOL     OW15063   1.781   6.062   8.236 -0.0408  0.0115 -0.4288
65818SOL    HW115064   1.833   6.106   8.303  1.5423 -1.0441 -0.9059
65818SOL    HW215065   1.705   6.027   8.283  0.3479  0.4390  0.5356
65819SOL     OW15066  12.890   9.085   6.226  0.0689  0.0711  0.0005
65819SOL    HW115067  12.926   9.086   6.315  0.8885  1.4189 -0.3206
65819SOL    HW215068  12.846   9.000   6.219  0.9270 -0.5146  1.3149
65820SOL     OW15069  10.918  12.814  11.743 -0.6188  0.1616 -0.0507
65820SOL    HW115070  10.885  12.725  11.732 -1.8361  0.4499  1.1108
65820SOL    HW215071  10.908  12.833  11.836  2.7812  0.3250  0.4316
65821SOL     OW15072   1.773   4.266   7.036  0.2389 -0.6309  0.0747
65821SOL    HW115073   1.739   4.237   6.951  0.1201  0.8538 -0.4175
65821SOL    HW215074   1.722   4.345   7.056  0.8909 -0.4569  1.0982
65822SOL     OW15075  10.762   6.251  11.598  0.1366 -0.2278  0.2647
65822SOL    HW115076  10.754   6.323  11.535 -2.8039  1.7627  2.5746
65822SOL    HW215077  10.719   6.177  11.555  1.2201 -0.0008 -1.3021
65823SOL     OW15078   0.134   9.544   3.143 -0.1858  0.0295 -0.1980
65823SOL    HW115079   0.217   9.496   3.148 -0.2832 -0.2195 -0.9044
65823SOL    HW215080   0.124   9.582   3.230  1.4686  1.3994 -0.5466
65824SOL     OW15081  11.187   9.310   3.524 -0.5773  0.0460  0.0233
65824SOL    HW115082  11.186   9.347   3.435  1.5530  1.2897  0.4410
65824SOL    HW215083  11.242   9.232   3.517 -2.2457 -1.1626 -0.1515
65825SOL     OW15084  11.526  10.705   1.765 -0.3860 -0.2845 -0.0251
65825SOL    HW115085  11.583  10.730   1.838 -0.2419 -2.0978  0.5427
65825SOL    HW215086  11.578  10.641   1.716 -0.9522  0.0171 -1.0398
65826SOL     OW15087   7.624  13.133   4.843 -1.2110 -0.3300 -0.4032
65826SOL    HW115088   7.703  13.080   4.833 -2.1460 -1.7189 -0.7338
65826SOL    HW215089   7.599  13.155   4.753 -0.5213  1.2272 -0.2597
65827SOL     OW15090   0.714   7.077   2.156 -0.0953  0.1542 -0.5878
65827SOL    HW115091   0.683   7.027   2.080 -0.0544  1.6364 -1.6209
65827SOL    HW215092   0.809   7.064   2.157 -0.1933 -0.6104 -0.2135
65828SOL     OW15093   2.899  12.136   8.826  0.0123 -0.4355 -0.6194
65828SOL    HW115094   2.812  12.105   8.800 -1.2056  1.3791  0.9307
65828SOL    HW215095   2.928  12.189   8.752 -1.3832  0.9773 -0.2332
65829SOL     OW15096   2.749  12.754   2.290  0.2933  0.1654 -0.2454
65829SOL    HW115097   2.736  12.725   2.381 -1.7302 -1.5075 -0.9781
65829SOL    HW215098   2.756  12.849   2.297 -0.9590  0.1993  1.6080
65830SOL     OW15099   9.737  14.042   2.228 -0.1722 -0.0609  0.0599
65830SOL    HW115100   9.643  14.026   2.240 -0.6048  0.9964 -1.6596
65830SOL    HW215101   9.743  14.136   2.210  1.0330 -0.4162 -1.5228
65831SOL     OW15102   2.568   8.976   1.677  0.8323  0.3600  0.2209
65831SOL    HW115103   2.557   8.935   1.591  0.4492 -0.0749  0.4718
65831SOL    HW215104   2.479   9.003   1.702  0.6556 -1.0204  1.2077
65832SOL     OW15105   1.694   5.731   0.092  0.4568 -0.0647  0.2773
65832SOL    HW115106   1.771   5.744   0.037  0.2439  1.3383  0.2944
65832SOL    HW215107   1.730   5.702   0.176  0.9282  0.0111  0.1070
65833SOL     OW15108  10.476  14.007   5.233  0.1450 -0.0104 -0.5734
65833SOL    HW115109  10.405  14.050   5.281  0.0489  1.1768 -1.7188
65833SOL    HW215110  10.459  14.029   5.141  0.6886 -1.6763 -1.0952
65834SOL     OW15111   8.417   7.621   3.408  0.4079  0.0302  0.3325
65834SOL    HW115112   8.393   7.655   3.494  0.4917 -2.1244  1.2645
65834SOL    HW215113   8.502   7.659   3.389 -0.2350  1.6432  0.5155
65835SOL     OW15114   2.992   9.671  11.052 -0.0810  0.2609  0.5521
65835SOL    HW115115   3.015   9.734  10.985 -0.2801 -0.8369 -0.5942
65835SOL    HW215116   2.949   9.600  11.005  3.3906 -2.5522  1.0929
65836SOL     OW15117   6.189  13.730   8.248  0.0199 -1.0051 -0.1126
65836SOL    HW115118   6.274  13.689   8.264 -0.0646 -1.7737 -1.5534
65836SOL    HW215119   6.137  13.708   8.325  0.8028 -1.3843  0.3198
65837SOL     OW15120  13.214   2.644   4.369 -0.2699  0.2629 -0.2291
65837SOL    HW115121  13.275   2.572   4.388 -0.6561 -0.6510 -2.1857
65837SOL    HW215122  13.231   2.708   4.438  1.9140 -0.5587  0.0945
65838SOL     OW15123   8.124   2.519  13.885  0.3050  0.1397  0.2074
65838SOL    HW115124   8.088   2.431  13.883 -1.0804  0.7000 -0.8968
65838SOL    HW215125   8.181   2.524  13.808 -0.9190  0.6913 -0.7061
65839SOL     OW15126   5.949   0.405   2.571 -0.3648  0.0219  0.0274
65839SOL    HW115127   6.010   0.392   2.499 -0.6907  1.3429 -0.5141
65839SOL    HW215128   5.887   0.332   2.563 -0.0971 -0.1292 -0.7282
65840SOL     OW15129   7.246   3.856   1.950  1.1021 -0.0712  0.1459
65840SOL    HW115130   7.227   3.768   1.984  2.2802 -0.3251  0.1782
65840SOL    HW215131   7.203   3.857   1.864  0.5673 -0.4608  0.3994
65841SOL     OW15132   9.863   2.008   8.284 -0.4731 -0.2204 -0.5851
65841SOL    HW115133   9.778   1.966   8.270  0.3717 -1.6424 -1.6444
65841SOL    HW215134   9.849   2.100   8.261 -1.2359 -0.8367 -2.7680
65842SOL     OW15135   4.797   9.698  11.612 -0.0528 -0.0392  0.1334
65842SOL    HW115136   4.731   9.718  11.679 -0.1543 -0.6073  0.2098
65842SOL    HW215137   4.837   9.616  11.642  0.2623 -0.0238 -0.2368
65843SOL     OW15138  11.566   9.652  13.721  0.4287 -0.3792 -0.4105
65843SOL    HW115139  11.524   9.577  13.680 -0.7707 -0.6272  1.1672
65843SOL    HW215140  11.515   9.727  13.691  0.2799 -0.4326 -0.2940
65844SOL     OW15141   1.769   8.568  10.067 -0.5077  0.7956  0.0967
65844SOL    HW115142   1.755   8.477  10.042 -0.1984  1.0885 -1.2021
65844SOL    HW215143   1.862   8.583  10.051 -0.4480  1.2049  0.7839
65845SOL     OW15144  13.220   6.291  12.044 -0.0945  0.1969  0.1237
65845SOL    HW115145  13.151   6.255  11.988 -1.4441  0.4018  1.6187
65845SOL    HW215146  13.202   6.385  12.048  0.0248  0.1940  0.8529
65846SOL     OW15147   3.219   3.744   6.253  0.3442  0.1013  0.2252
65846SOL    HW115148   3.294   3.747   6.193  0.3556 -0.7210  0.1891
65846SOL    HW215149   3.146   3.715   6.198  0.5105 -1.3637  0.7571
65847SOL     OW15150   2.174   0.942  12.960  0.1540  0.0975 -0.2774
65847SOL    HW115151   2.227   1.021  12.967 -1.5301  1.1422  3.5549
65847SOL    HW215152   2.119   0.957  12.883  0.7436  2.0849 -0.3686
65848SOL     OW15153   6.126  13.227   6.851  0.4386  0.1505  0.2703
65848SOL    HW115154   6.049  13.244   6.797 -0.0133  2.5740  1.5130
65848SOL    HW215155   6.100  13.157   6.910 -1.5319  2.0698  1.8362
65849SOL     OW15156   1.453   9.088   6.283 -0.4707  0.6192 -0.1375
65849SOL    HW115157   1.516   9.145   6.240 -1.5665  1.0996 -1.1565
65849SOL    HW215158   1.438   9.017   6.220  0.2303 -0.3580  0.7576
65850SOL     OW15159  10.166   4.584   6.199 -0.3190  0.1664 -0.0048
65850SOL    HW115160  10.072   4.565   6.191 -1.1094  3.4816 -0.1166
65850SOL    HW215161  10.182   4.583   6.293 -0.7063  0.4752  0.0688
65851SOL     OW15162   0.101   7.439   2.180 -0.4086 -0.2053 -0.3123
65851SOL    HW115163   0.031   7.496   2.148 -0.4391 -0.7375 -1.2266
65851SOL    HW215164   0.175   7.499   2.194 -1.0228  0.3604  0.6706
65852SOL     OW15165   8.510   1.836  11.331 -0.2042 -0.0650  0.7486
65852SOL    HW115166   8.556   1.828  11.248 -0.7638 -2.0995  0.5764
65852SOL    HW215167   8.538   1.760  11.382 -3.3640 -1.4892  0.5942
65853SOL     OW15168   4.694  13.109   2.661  0.5401  0.5671  0.0322
65853SOL    HW115169   4.753  13.057   2.606  0.3355 -0.6733  0.9305
65853SOL    HW215170   4.608  13.095   2.622  0.5684  0.7430 -0.0945
65854SOL     OW15171   3.994   5.317   1.579 -0.1508  0.0284 -0.1014
65854SOL    HW115172   3.995   5.411   1.561  1.2557 -0.1540 -1.1261
65854SOL    HW215173   3.973   5.277   1.494 -0.1284 -0.6075  0.1848
65855SOL     OW15174  12.646   2.064   0.910 -0.1180 -0.2022  0.0856
65855SOL    HW115175  12.699   2.026   0.980 -0.0886  0.1677  0.2664
65855SOL    HW215176  12.703   2.062   0.833  1.3746  3.0580  0.9517
65856SOL     OW15177   0.322  10.109   5.131  0.0056  0.0454  0.3492
65856SOL    HW115178   0.288  10.198   5.139 -1.1312 -0.1876 -1.3959
65856SOL    HW215179   0.246  10.052   5.139  0.8350 -0.8873  2.4008
65857SOL     OW15180   5.450   8.026  10.444  0.4534  0.0206  0.9005
65857SOL    HW115181   5.540   8.046  10.469  0.3880  1.6396 -0.0329
65857SOL    HW215182   5.413   8.111  10.419 -0.8777 -0.8248 -0.1124
65858SOL     OW15183   1.745  11.217   5.338  0.1268  0.3189  0.5581
65858SOL    HW115184   1.794  11.152   5.389 -1.2612 -0.1571  1.3503
65858SOL    HW215185   1.735  11.290   5.398 -0.5516  0.2097  0.5815
65859SOL     OW15186   3.580   8.079   4.365  0.3134 -0.4281 -0.1401
65859SOL    HW115187   3.511   8.021   4.396 -0.3517  0.5431  0.2270
65859SOL    HW215188   3.643   8.083   4.438 -1.5657  2.3775  1.5237
65860SOL     OW15189   5.689   5.697   0.428  0.5373 -0.1284 -0.5145
65860SOL    HW115190   5.654   5.633   0.366  0.4232  0.1802 -0.7731
65860SOL    HW215191   5.780   5.670   0.440  1.2318  1.0341 -2.5150
65861SOL     OW15192  10.585  11.791   9.631 -0.3057  0.2343  0.1705
65861SOL    HW115193  10.572  11.748   9.547  1.1778  1.1154 -0.5568
65861SOL    HW215194  10.619  11.722   9.688 -0.7100 -0.2204 -0.1256
65862SOL     OW15195   1.305   6.920   7.761 -1.0134 -0.1757  0.2654
65862SOL    HW115196   1.334   6.837   7.722 -2.0508  0.3816 -1.8388
65862SOL    HW215197   1.385   6.970   7.775 -0.6035  0.0170 -2.2817
65863SOL     OW15198   5.667  12.369  12.179 -0.0127 -0.2065 -0.4398
65863SOL    HW115199   5.690  12.370  12.087  0.2576  0.5353 -0.3620
65863SOL    HW215200   5.736  12.419  12.223  0.5108 -1.5374  0.3215
65864SOL     OW15201  13.105   7.779  10.403 -0.1169 -0.3781 -0.7273
65864SOL    HW115202  13.149   7.824  10.331  0.8201 -0.2159 -0.0696
65864SOL    HW215203  13.054   7.847  10.447  1.6832  0.2119  0.5668
65865SOL     OW15204  12.131  10.752   0.486  0.2519  0.3518 -0.1176
65865SOL    HW115205  12.198  10.697   0.445  0.9356 -0.5492  2.0835
65865SOL    HW215206  12.177  10.832   0.510  0.0029  0.6152 -0.5023
65866SOL     OW15207   1.974   0.005  12.534 -0.5900 -0.1271 -0.6627
65866SOL    HW115208   2.032  -0.064  12.501 -1.0303 -0.5867 -0.4897
65866SOL    HW215209   1.894  -0.041  12.560 -1.0013  0.4888 -0.8128
65867SOL     OW15210   5.507   2.485  13.123 -0.1035  0.1685 -0.1856
65867SOL    HW115211   5.586   2.451  13.164  1.0314  0.9493 -1.6174
65867SOL    HW215212   5.444   2.412  13.126  0.7351 -0.5321  0.7818
65868SOL     OW15213   7.917  10.907   9.326 -0.0180 -0.0984  0.0155
65868SOL    HW115214   7.948  10.935   9.239 -0.5427  0.6681  0.0690
65868SOL    HW215215   7.991  10.858   9.362 -0.4221 -2.0391 -1.5915
65869SOL     OW15216   8.407   3.754  11.607  0.3163 -0.1796 -0.0903
65869SOL    HW115217   8.313   3.740  11.616  0.3794 -0.4706  0.1135
65869SOL    HW215218   8.421   3.761  11.513 -0.0371  0.7666 -0.0906
65870SOL     OW15219  13.553  12.757  10.091  0.0722 -0.9037 -0.3916
65870SOL    HW115220  13.494  12.695  10.133 -0.7675  0.6383  0.7921
65870SOL    HW215221  13.502  12.838  10.083  1.4080 -0.0884 -1.0733
65871SOL     OW15222   0.467   8.154   8.956 -0.5893 -0.6458  0.0327
65871SOL    HW115223   0.482   8.085   9.021 -0.9336  0.0885  0.9129
65871SOL    HW215224   0.550   8.202   8.953  0.3752 -2.2960 -2.0997
65872SOL     OW15225   7.417   7.268   9.891  0.3754 -0.0262 -0.3900
65872SOL    HW115226   7.459   7.205   9.833 -1.1779 -1.7125  0.2019
65872SOL    HW215227   7.383   7.335   9.832 -0.8550 -1.5100 -1.4805
65873SOL     OW15228   8.254   6.152   5.399 -0.1456 -0.7847  0.0009
65873SOL    HW115229   8.339   6.167   5.359 -0.4185  0.5900 -0.1498
65873SOL    HW215230   8.193   6.151   5.325 -0.5868  1.2135  0.2772
65874SOL     OW15231   2.944   2.406  10.025 -0.7424  0.2354 -0.1776
65874SOL    HW115232   2.963   2.381  10.115  0.5515 -2.0212 -1.0127
65874SOL    HW215233   2.851   2.384  10.013 -0.9124  0.5174  0.5557
65875SOL     OW15234  13.355   9.023   1.754  0.1758  0.2098  0.3901
65875SOL    HW115235  13.263   9.025   1.781 -0.1649 -0.4433 -0.6538
65875SOL    HW215236  13.398   8.969   1.821 -0.3749 -0.2284  0.3964
65876SOL     OW15237   4.163  13.863   2.184  0.0698  1.0979 -0.2601
65876SOL    HW115238   4.231  13.927   2.160 -0.5757  1.8704 -0.0473
65876SOL    HW215239   4.102  13.865   2.110 -0.3955  1.3556  0.1244
65877SOL     OW15240   7.919   4.858  12.744 -0.6221 -0.6171  0.1588
65877SOL    HW115241   7.882   4.896  12.664 -2.9366  0.6184  1.7119
65877SOL    HW215242   7.962   4.931  12.788 -0.7257 -0.9175  0.7762
65878SOL     OW15243   1.733   1.042   7.487 -0.1659  0.2890 -0.5251
65878SOL    HW115244   1.774   1.124   7.515  0.0388  0.5237 -1.4944
65878SOL    HW215245   1.639   1.059   7.491 -0.1324  0.4165 -0.2812
65879SOL     OW15246   2.230   5.157  10.941  0.2236  0.4394 -0.3178
65879SOL    HW115247   2.303   5.135  10.882  1.7444 -0.0621  1.6289
65879SOL    HW215248   2.233   5.252  10.947  0.4771  0.4495 -0.5518
65880SOL     OW15249   6.454   0.269   7.163  0.0546  0.0969  0.2898
65880SOL    HW115250   6.472   0.176   7.153 -0.6549 -0.0453  0.2614
65880SOL    HW215251   6.431   0.281   7.255  0.4188  0.2961  0.3577
65881SOL     OW15252   3.975   8.667   8.241 -0.2287 -0.0651  0.2317
65881SOL    HW115253   4.012   8.622   8.317  0.6989 -1.8638 -1.2315
65881SOL    HW215254   3.940   8.598   8.186 -0.5000  1.1601 -1.2049
65882SOL     OW15255  10.056   3.200   2.007 -0.2067 -0.1356 -0.0199
65882SOL    HW115256  10.029   3.108   2.019  0.2599 -0.1270  1.1722
65882SOL    HW215257   9.999   3.232   1.937 -1.3017 -0.9575  0.4607
65883SOL     OW15258   1.187   5.478   4.846 -0.0593  0.1429  0.4781
65883SOL    HW115259   1.202   5.384   4.838  0.2781  0.1822  0.6248
65883SOL    HW215260   1.275   5.516   4.850 -0.1659  0.5773 -0.7713
65884SOL     OW15261   7.586   3.888  12.105  0.5851 -0.0802 -0.4228
65884SOL    HW115262   7.512   3.828  12.100 -0.9282  1.7547 -4.5168
65884SOL    HW215263   7.551   3.966  12.149 -0.0523  0.7523 -2.2788
65885SOL     OW15264   5.365   2.401   4.508  0.2946  0.7673 -0.2163
65885SOL    HW115265   5.358   2.492   4.481  0.0262  0.4262 -1.3241
65885SOL    HW215266   5.324   2.351   4.438  0.5013 -0.2194  0.3400
65886SOL     OW15267   1.400   4.491   2.602  0.0099 -0.5300  0.0234
65886SOL    HW115268   1.464   4.435   2.560 -0.4310 -0.3584 -0.8924
65886SOL    HW215269   1.338   4.514   2.533 -0.0628  0.7324  0.4757
65887SOL     OW15270   3.444   2.483   2.449  0.3928 -0.3081  0.1916
65887SOL    HW115271   3.400   2.461   2.531 -0.1502  0.9211  0.2502
65887SOL    HW215272   3.525   2.432   2.450  0.3361 -0.3875  1.4308
65888SOL     OW15273  12.953  13.900  12.003 -0.3330 -0.0567  0.5241
65888SOL    HW115274  13.028  13.843  12.021  0.9867  0.8226 -1.7193
65888SOL    HW215275  12.971  13.981  12.052  0.0117  0.0233  0.2667
65889SOL     OW15276   3.050   6.013   8.760 -0.3445  0.1929 -0.0244
65889SOL    HW115277   3.110   5.995   8.832  0.6506 -1.9856 -1.2973
65889SOL    HW215278   3.010   5.928   8.741 -1.8081  1.0540 -1.0021
65890SOL     OW15279  12.851  10.882   3.720  0.1718  0.4354 -0.4755
65890SOL    HW115280  12.880  10.791   3.705 -2.0349 -0.5065  0.4974
65890SOL    HW215281  12.755  10.876   3.720 -0.0028  2.5677  0.8668
65891SOL     OW15282   2.259   7.117   1.470 -0.3966  0.4347 -0.3729
65891SOL    HW115283   2.355   7.115   1.470 -0.3742 -2.4233  0.3531
65891SOL    HW215284   2.235   7.143   1.558 -0.1896 -1.8865  0.4349
65892SOL     OW15285   0.400  13.254  10.339 -0.4313 -0.2585  0.0249
65892SOL    HW115286   0.407  13.267  10.434  0.2742  1.0455 -0.1706
65892SOL    HW215287   0.321  13.302  10.314  0.4038  1.0481 -0.2640
65893SOL     OW15288   5.144  13.122   4.238  0.2858 -0.0166 -0.4901
65893SOL    HW115289   5.117  13.156   4.153  1.2076  0.4755 -0.6040
65893SOL    HW215290   5.065  13.124   4.291  0.3047  2.5430 -0.4213
65894SOL     OW15291   1.731   6.349   1.270  0.5803 -0.2587 -0.2396
65894SOL    HW115292   1.817   6.378   1.241  0.3837  0.3136 -0.2667
65894SOL    HW215293   1.737   6.347   1.365  0.9237 -1.1826 -0.2726
65895SOL     OW15294   0.226   0.562   9.985  0.0486  0.2631 -0.6706
65895SOL    HW115295   0.188   0.649   9.977 -0.0364  0.2378 -0.5459
65895SOL    HW215296   0.163   0.504   9.943  0.2105  0.2873 -0.9533
65896SOL     OW15297   5.430   2.910  12.666  0.3665  0.1841  0.2502
65896SOL    HW115298   5.509   2.859  12.684  0.8012  1.1455  1.2245
65896SOL    HW215299   5.422   2.969  12.741 -0.9661  0.5033 -0.1095
65897SOL     OW15300   8.460   2.771  11.921 -0.4369  0.2555  0.0882
65897SOL    HW115301   8.446   2.716  11.844  1.4812 -0.9609  0.5226
65897SOL    HW215302   8.477   2.858  11.886 -1.7275  0.2068 -0.7200
65898SOL     OW15303   5.411   6.866  11.401  0.5365  0.4055 -0.0149
65898SOL    HW115304   5.339   6.918  11.366  1.7379  1.2000 -1.4189
65898SOL    HW215305   5.435   6.910  11.482  1.5605  2.1541 -1.2010
65899SOL     OW15306   2.157  10.364   3.418  0.6594 -0.1570  0.3546
65899SOL    HW115307   2.219  10.294   3.397  0.6836  0.1979 -0.7617
65899SOL    HW215308   2.202  10.417   3.484  1.3477 -0.1857 -0.0822
65900SOL     OW15309   9.488   4.388   5.185 -0.4579  0.0098  0.3962
65900SOL    HW115310   9.413   4.446   5.199  0.4514  1.2105  0.3981
65900SOL    HW215311   9.562   4.447   5.171  0.3453 -1.1537 -0.4316
65901SOL     OW15312  10.754   4.785   2.863 -0.1854 -0.4807 -0.2031
65901SOL    HW115313  10.789   4.699   2.888 -0.7080 -1.2075 -1.8131
65901SOL    HW215314  10.668   4.789   2.906 -0.2042 -0.8119 -0.2089
65902SOL     OW15315  10.128   6.349   3.461 -0.2719 -0.2095 -0.2140
65902SOL    HW115316  10.059   6.380   3.403 -0.3349  0.5262  0.2435
65902SOL    HW215317  10.166   6.429   3.499 -0.5440 -0.6828  1.1121
65903SOL     OW15318   0.947   6.746   9.809  0.2427 -0.3875  0.5367
65903SOL    HW115319   0.924   6.695   9.732  1.1169 -1.1051  0.7373
65903SOL    HW215320   1.043   6.742   9.813  0.2123 -0.2625  1.5888
65904SOL     OW15321   1.816  10.280   4.992  0.6413 -0.0262  0.0172
65904SOL    HW115322   1.887  10.217   4.980 -0.1100 -0.7404 -0.7626
65904SOL    HW215323   1.849  10.340   5.060  1.8673 -0.5065 -0.1250
65905SOL     OW15324   3.368  11.939   8.965 -0.1327 -0.0627 -0.5620
65905SOL    HW115325   3.339  11.848   8.952  0.5278 -0.4590  0.5604
65905SOL    HW215326   3.427  11.956   8.892  0.9950 -1.1123  0.0677
65906SOL     OW15327   8.892  11.808   2.816 -0.0750  0.2272 -0.1962
65906SOL    HW115328   8.821  11.745   2.827 -1.2957  1.5602 -0.1465
65906SOL    HW215329   8.868  11.881   2.873  0.6417  1.2707 -1.1856
65907SOL     OW15330  12.997   2.906   0.855  0.0144 -0.1056 -0.0132
65907SOL    HW115331  13.041   2.956   0.787 -0.3747 -0.5020 -0.5653
65907SOL    HW215332  12.985   2.818   0.817  0.6769 -0.6192  0.9304
65908SOL     OW15333   8.604   6.193   0.633 -0.1292  0.0285 -0.8334
65908SOL    HW115334   8.555   6.275   0.620 -0.2194  0.3292  1.0606
65908SOL    HW215335   8.650   6.206   0.715 -0.3340 -1.9234 -0.3541
65909SOL     OW15336   1.915   3.408  10.355  0.1731 -0.5040  0.1382
65909SOL    HW115337   1.840   3.467  10.348  0.3416 -0.2966  0.0888
65909SOL    HW215338   1.981   3.458  10.402  0.7628 -0.2186 -0.9558
65910SOL     OW15339   6.865   4.974   5.614 -0.2141  0.3876 -0.2705
65910SOL    HW115340   6.911   4.995   5.533 -0.9076  0.2518 -0.7106
65910SOL    HW215341   6.837   5.059   5.648 -0.2162  0.4214 -0.3579
65911SOL     OW15342   6.207   7.180  13.862  0.0516 -0.2219  0.3230
65911SOL    HW115343   6.221   7.246  13.794 -0.0578  0.3698  0.8686
65911SOL    HW215344   6.294   7.163  13.897  0.1645 -0.8291 -0.2350
65912SOL     OW15345   0.893   2.491   9.865  0.0378 -0.3246  0.3772
65912SOL    HW115346   0.836   2.439   9.808 -0.4078  0.2406  0.3110
65912SOL    HW215347   0.970   2.435   9.878 -0.3543 -0.9266  0.1490
65913SOL     OW15348   9.163  11.819   5.631  0.1580  0.0275 -0.7188
65913SOL    HW115349   9.086  11.775   5.666 -0.4800  1.1857 -0.6144
65913SOL    HW215350   9.231  11.752   5.630 -0.8438 -1.0097 -0.7977
65914SOL     OW15351  12.511   9.097   3.172  0.7934 -0.0385  0.4912
65914SOL    HW115352  12.558   9.029   3.221  1.4345  0.3162  0.3744
65914SOL    HW215353  12.447   9.048   3.120 -0.8349 -0.3407  2.6383
65915SOL     OW15354   4.316   7.518  12.591  0.9753 -0.2597  0.1041
65915SOL    HW115355   4.255   7.590  12.576 -1.6143 -2.5273 -1.0299
65915SOL    HW215356   4.299   7.490  12.681  1.2038 -0.1823  0.1743
65916SOL     OW15357  11.845   4.953  12.457 -0.0061  0.1492  0.6533
65916SOL    HW115358  11.889   4.874  12.490 -0.4840 -0.6266 -0.4851
65916SOL    HW215359  11.901   4.984  12.387 -0.0881  0.5213  0.7521
65917SOL     OW15360   2.221   0.244   8.342 -0.1397 -0.4952 -0.2808
65917SOL    HW115361   2.295   0.226   8.399 -0.9439  1.4273  1.5261
65917SOL    HW215362   2.254   0.309   8.280 -0.7767  2.2923  2.0651
65918SOL     OW15363   4.730   9.003   3.326 -0.3709 -0.2921 -0.2140
65918SOL    HW115364   4.819   9.039   3.325 -0.0737 -0.9959 -1.5596
65918SOL    HW215365   4.742   8.909   3.338 -1.1157 -0.1120  2.6958
65919SOL     OW15366   3.967   3.080   2.177  0.0428 -0.0759 -0.6997
65919SOL    HW115367   3.994   2.991   2.153 -0.1407 -1.6526  3.9466
65919SOL    HW215368   3.894   3.067   2.238  0.5793  3.1844  0.8468
65920SOL     OW15369  13.844  13.558  13.949  0.1766  0.0547 -0.5485
65920SOL    HW115370  13.837  13.473  13.994  0.6560  0.4866  0.3782
65920SOL    HW215371  13.762  13.603  13.969 -0.1517 -0.2631 -1.1878
65921SOL     OW15372   0.990   9.140  13.592  0.2859  0.2820 -0.6527
65921SOL    HW115373   0.917   9.124  13.532 -1.0992  2.6041  0.2636
65921SOL    HW215374   0.976   9.078  13.664 -1.5043  1.4213  0.0489
65922SOL     OW15375   8.138   7.097   1.620 -0.3142  0.1615 -0.0610
65922SOL    HW115376   8.191   7.171   1.648 -1.7247  0.3889  2.1790
65922SOL    HW215377   8.168   7.024   1.674 -0.0484 -0.5325 -1.1138
65923SOL     OW15378  10.758  13.724   1.394  0.1482  0.2585  0.0769
65923SOL    HW115379  10.728  13.786   1.327  0.5423 -0.2814 -0.6183
65923SOL    HW215380  10.694  13.653   1.391  0.6075 -0.1475 -0.2988
65924SOL     OW15381   0.538   4.081   0.218 -0.4614  0.1853 -0.1817
65924SOL    HW115382   0.582   3.999   0.193  0.2497 -0.0182  1.5803
65924SOL    HW215383   0.605   4.130   0.265 -0.4044  2.5159 -2.4712
65925SOL     OW15384   2.685   5.383   1.795 -0.3455  0.0584  0.3959
65925SOL    HW115385   2.712   5.437   1.869  0.7787  0.6722 -0.4272
65925SOL    HW215386   2.744   5.409   1.724 -0.8485 -1.1052 -0.4766
65926SOL     OW15387   2.010   7.271   4.686 -0.0149  0.1277 -0.3572
65926SOL    HW115388   2.075   7.327   4.728 -0.7598  0.2544  0.6777
65926SOL    HW215389   1.945   7.255   4.755  0.7211 -2.9379 -0.2547
65927SOL     OW15390  11.058  13.638   2.695 -0.3844 -0.2441  0.2165
65927SOL    HW115391  11.104  13.720   2.712  2.0087 -1.1000 -1.5240
65927SOL    HW215392  11.024  13.647   2.606  1.1282 -1.5366 -0.5645
65928SOL     OW15393   4.250   3.411   2.640 -0.1525  0.2017  0.7498
65928SOL    HW115394   4.248   3.315   2.639  0.1691  0.1517  2.0697
65928SOL    HW215395   4.264   3.433   2.732 -1.9602  1.5645  0.7542
65929SOL     OW15396   1.915   2.452  13.482  0.6542 -0.1100 -0.3600
65929SOL    HW115397   1.936   2.408  13.400 -0.1933 -1.3710  0.0629
65929SOL    HW215398   1.822   2.470  13.477  0.2368 -1.6335  0.9279
65930SOL     OW15399   8.675  12.807  11.268 -0.2924  0.2980 -0.5769
65930SOL    HW115400   8.599  12.750  11.269 -1.3647  1.5850  2.1178
65930SOL    HW215401   8.749  12.749  11.251 -1.7512 -1.1081 -2.4442
65931SOL     OW15402  12.706  11.771   5.309 -0.7043 -0.2279 -0.2689
65931SOL    HW115403  12.778  11.744   5.366 -1.2427  1.9277  1.5840
65931SOL    HW215404  12.746  11.828   5.244 -0.4757 -0.5592 -0.4204
65932SOL     OW15405   9.013   7.894   4.996 -0.3171  0.4043  0.5303
65932SOL    HW115406   9.087   7.835   5.013  0.4946  1.1934 -0.1785
65932SOL    HW215407   9.053   7.980   4.986 -0.8758  0.3757 -3.3313
65933SOL     OW15408   3.227  10.361   8.627  0.0591  0.7030 -0.2711
65933SOL    HW115409   3.237  10.308   8.707 -0.4034  1.4623  0.3001
65933SOL    HW215410   3.293  10.429   8.635 -0.5899  1.3208 -0.0883
65934SOL     OW15411   8.995  13.729   7.543 -0.2816  0.1449 -0.4873
65934SOL    HW115412   8.912  13.744   7.497 -0.6239 -1.2759 -0.4051
65934SOL    HW215413   9.028  13.648   7.504 -0.2560 -0.7458  1.2873
65935SOL     OW15414   2.227   4.166  13.622 -0.6137 -0.8761  0.4236
65935SOL    HW115415   2.247   4.073  13.624 -0.3755 -0.8140  1.2611
65935SOL    HW215416   2.286   4.206  13.686 -0.9314 -0.1964  0.3119
65936SOL     OW15417  13.366   8.499   0.795 -0.1499 -0.3201  0.4473
65936SOL    HW115418  13.428   8.571   0.809  0.2376 -0.8281  1.4056
65936SOL    HW215419  13.405   8.424   0.841 -1.0860 -0.8621  0.3830
65937SOL     OW15420   8.412   6.971  10.549  0.2695  0.0390  0.0490
65937SOL    HW115421   8.320   6.992  10.563  0.1533 -0.0353 -0.5940
65937SOL    HW215422   8.459   7.021  10.616 -0.2105  0.3523  0.1501
65938SOL     OW15423  10.223  13.056   2.539 -0.0540 -0.2426  0.3529
65938SOL    HW115424  10.159  13.107   2.489 -0.6976 -0.7287  0.6575
65938SOL    HW215425  10.264  13.120   2.597  0.1857  0.1902 -0.2843
65939SOL     OW15426   0.227  10.076  12.113  0.1020  0.3857 -0.1144
65939SOL    HW115427   0.155  10.135  12.089 -0.3974  0.1164  0.6913
65939SOL    HW215428   0.255  10.107  12.199  0.8361  0.3770 -0.3494
65940SOL     OW15429  11.701  13.071   8.496  0.1165  0.2496 -0.6021
65940SOL    HW115430  11.646  13.050   8.572 -1.7181  0.0225 -1.9236
65940SOL    HW215431  11.728  12.986   8.462  0.3777  0.3310 -0.5964
65941SOL     OW15432  11.773   3.805   9.340  0.0659 -0.2492 -0.5004
65941SOL    HW115433  11.755   3.850   9.258  2.2984  0.1882 -0.8278
65941SOL    HW215434  11.827   3.730   9.315  0.4112 -0.3521  0.5119
65942SOL     OW15435   3.498   2.124   0.627  0.5523  0.6803 -0.3369
65942SOL    HW115436   3.462   2.148   0.712  1.1208 -0.4702  0.2545
65942SOL    HW215437   3.422   2.101   0.574  0.3031 -0.8428  0.6082
65943SOL     OW15438  11.683   2.952  12.472  0.1760  0.3961  0.0815
65943SOL    HW115439  11.713   3.032  12.516 -1.0583  1.2647 -0.5966
65943SOL    HW215440  11.694   2.883  12.538 -0.7542  1.5019  1.4592
65944SOL     OW15441   3.604  12.610  12.257 -0.2722 -0.4908  0.7325
65944SOL    HW115442   3.648  12.661  12.326 -2.1289  1.5359  0.5052
65944SOL    HW215443   3.513  12.640  12.259 -0.1987  0.6019 -3.3701
65945SOL     OW15444  12.202   6.892   2.603 -0.1666  0.0150  0.3205
65945SOL    HW115445  12.268   6.843   2.652 -0.0679 -1.7458 -1.4699
65945SOL    HW215446  12.251   6.955   2.551 -0.0772  0.0975  0.5041
65946SOL     OW15447  10.472   0.054  12.350  0.3823  0.2153 -0.6265
65946SOL    HW115448  10.485   0.131  12.294 -1.1960  0.2777 -0.9490
65946SOL    HW215449  10.411   0.083  12.418  0.9014 -0.3575  0.0976
65947SOL     OW15450   9.639   0.488   7.537 -0.3036 -0.6158  0.3482
65947SOL    HW115451   9.559   0.537   7.557 -0.0689 -0.0240 -0.1596
65947SOL    HW215452   9.609   0.397   7.528 -1.2729 -0.1396 -1.8410
65948SOL     OW15453   9.360   3.826   1.123  0.0055 -0.2649 -0.3778
65948SOL    HW115454   9.332   3.832   1.214  0.6897  1.5038 -0.2478
65948SOL    HW215455   9.433   3.887   1.116 -0.6713  0.4038 -2.3322
65949SOL     OW15456   7.052   9.523  11.076  0.0336 -0.3993  0.7051
65949SOL    HW115457   7.143   9.493  11.064 -0.6157 -2.7658  1.2295
65949SOL    HW215458   7.057   9.584  11.150  1.2008 -0.4896  0.7242
65950SOL     OW15459  11.237  13.981  13.434  0.3824  0.8446  0.0911
65950SOL    HW115460  11.324  14.015  13.417  1.5734 -1.7168  0.4791
65950SOL    HW215461  11.252  13.906  13.492 -2.2352  1.2177  1.4058
65951SOL     OW15462   9.469   4.484   3.073  0.1212  0.3308 -0.9758
65951SOL    HW115463   9.393   4.436   3.041  0.2204 -0.1232 -0.5472
65951SOL    HW215464   9.459   4.572   3.038 -1.9688  1.0579  1.1859
65952SOL     OW15465  13.510  12.391   5.586  0.6016  0.2733 -0.1714
65952SOL    HW115466  13.504  12.405   5.492 -1.9240 -1.4087 -0.3251
65952SOL    HW215467  13.573  12.320   5.596 -1.0072 -1.3200 -0.8557
65953SOL     OW15468   5.287  13.001  12.633 -0.6679 -0.2337 -0.2837
65953SOL    HW115469   5.295  13.043  12.718 -0.2795 -1.8540  0.5148
65953SOL    HW215470   5.313  12.910  12.648 -2.2019 -0.9779 -1.7721
65954SOL     OW15471   0.629  13.437   1.141  0.1646  0.0908  0.8919
65954SOL    HW115472   0.720  13.409   1.143  0.4370  0.9078  0.1586
65954SOL    HW215473   0.625  13.514   1.197  0.2306  0.8838 -0.1535
65955SOL     OW15474   5.393  10.074  13.319 -0.1186  0.1511  0.1228
65955SOL    HW115475   5.483  10.106  13.330  0.1894 -0.7996  0.4050
65955SOL    HW215476   5.345  10.111  13.394  0.2520 -0.0889  0.4823
65956SOL     OW15477   0.435  10.880   3.696  0.1404  0.1948  0.2681
65956SOL    HW115478   0.408  10.937   3.624  1.1633  1.1178  0.5943
65956SOL    HW215479   0.525  10.856   3.676 -0.2392 -1.2409  0.1978
65957SOL     OW15480  10.879   5.190  13.944  0.5799  0.4039 -0.2270
65957SOL    HW115481  10.904   5.168  13.855 -0.8199  2.5412 -1.2071
65957SOL    HW215482  10.789   5.221  13.937 -0.8863 -2.6124  2.4625
65958SOL     OW15483   7.826  11.389   2.979  0.4365  0.1464  0.1945
65958SOL    HW115484   7.849  11.304   3.016 -0.1285 -0.5603 -1.0046
65958SOL    HW215485   7.900  11.411   2.922  1.3992  1.3254  1.8262
65959SOL     OW15486   8.560  12.325   4.172 -0.0391 -0.0208 -0.1995
65959SOL    HW115487   8.532  12.254   4.115  0.8021 -0.7850  0.2966
65959SOL    HW215488   8.607  12.281   4.243  1.2944  1.0843 -0.3549
65960SOL     OW15489  12.756   5.147  11.295  0.5972 -0.3671 -0.0502
65960SOL    HW115490  12.828   5.193  11.253 -0.4195  1.0260 -0.3528
65960SOL    HW215491  12.706   5.109  11.223 -0.3743  0.8554 -0.0631
65961SOL     OW15492   7.405   5.881   8.988 -0.5529 -0.0108 -0.1671
65961SOL    HW115493   7.375   5.972   8.991 -0.8512 -0.0254 -1.6182
65961SOL    HW215494   7.401   5.859   8.895  1.3091 -0.9192 -0.0616
65962SOL     OW15495  11.237   2.815  12.454  0.3790  0.0548 -0.2626
65962SOL    HW115496  11.295   2.758  12.402 -0.9885 -2.5102  0.8514
65962SOL    HW215497  11.154   2.813  12.408  0.3398  1.2735 -0.2555
65963SOL     OW15498  12.552   7.144  11.268  0.1099  0.3266 -0.1325
65963SOL    HW115499  12.502   7.199  11.207 -0.5378 -1.4387 -1.2713
65963SOL    HW215500  12.575   7.203  11.340 -0.5335  2.0782 -1.2825
65964SOL     OW15501  11.073   5.186  11.077  0.2479  0.0666 -0.0994
65964SOL    HW115502  11.120   5.232  11.146 -0.0151 -1.3419  1.0717
65964SOL    HW215503  10.981   5.210  11.092 -0.1271 -2.1094  1.6542
65965SOL     OW15504   4.748   2.250   4.095  0.8241  0.0584 -0.2755
65965SOL    HW115505   4.691   2.318   4.059  0.6693  0.2550  0.3370
65965SOL    HW215506   4.735   2.175   4.037 -1.0016 -0.3229  0.5479
65966SOL     OW15507   3.055  12.624   7.765 -0.2602 -0.3412 -0.5110
65966SOL    HW115508   3.055  12.549   7.824  0.9829  0.2845  0.3278
65966SOL    HW215509   3.035  12.699   7.821  2.2770  0.4562 -0.5603
65967SOL     OW15510  10.289  10.120   5.547 -0.0471  0.3024  0.1269
65967SOL    HW115511  10.278  10.025   5.550  1.2187  0.0847 -1.2348
65967SOL    HW215512  10.348  10.136   5.473 -0.1355  2.1466  0.3928
65968SOL     OW15513   8.247   1.252   4.248 -0.0415 -0.1537 -0.3245
65968SOL    HW115514   8.286   1.309   4.315  0.3428 -0.2375 -0.4755
65968SOL    HW215515   8.165   1.222   4.287 -2.2583  3.5147 -1.6250
65969SOL     OW15516   8.190   5.163   2.381 -0.0317  0.0431 -0.0422
65969SOL    HW115517   8.186   5.138   2.474  2.0925  1.0074  0.3926
65969SOL    HW215518   8.168   5.083   2.333  0.9839 -1.0933  1.3019
65970SOL     OW15519  10.786   4.795   0.015 -0.3362  0.7283  0.5638
65970SOL    HW115520  10.833   4.741  -0.048 -1.0192 -0.1465  0.7859
65970SOL    HW215521  10.851   4.857   0.047  0.5092 -0.0821  0.4417
65971SOL     OW15522   4.479   6.313   2.665 -0.3755 -0.2501  0.5147
65971SOL    HW115523   4.452   6.396   2.628  0.1160 -0.9998 -1.6744
65971SOL    HW215524   4.570   6.303   2.639 -0.5931 -1.7124  0.1916
65972SOL     OW15525   1.783  10.484   2.993 -0.4914 -0.3536 -0.7398
65972SOL    HW115526   1.804  10.533   3.072 -0.2126 -1.7315  0.0737
65972SOL    HW215527   1.869  10.458   2.958 -0.6310 -0.1941 -1.2061
65973SOL     OW15528  13.213   2.743   1.626 -0.3996  0.3533 -0.2035
65973SOL    HW115529  13.237   2.829   1.591 -0.1185  0.7933  1.0284
65973SOL    HW215530  13.290   2.713   1.673 -1.4378  0.7858  1.9051
65974SOL     OW15531   0.533   3.880   1.878 -0.7607 -0.0048 -0.1206
65974SOL    HW115532   0.509   3.958   1.828 -0.5937 -0.3043 -0.6863
65974SOL    HW215533   0.529   3.809   1.813  0.6673 -0.2255 -0.0003
65975SOL     OW15534   7.888  12.097   6.019 -0.7590 -0.3225 -0.1141
65975SOL    HW115535   7.801  12.125   6.047 -0.9308 -0.0326 -0.9019
65975SOL    HW215536   7.918  12.167   5.961  0.0942 -0.3182  0.3159
65976SOL     OW15537  12.411   9.193   3.975 -0.3788 -0.2323 -0.0589
65976SOL    HW115538  12.434   9.279   4.010 -2.2454  0.2816  0.0083
65976SOL    HW215539  12.465   9.132   4.025  1.4072  0.9027 -0.5070
65977SOL     OW15540   2.334   5.630  11.705 -0.1759  0.0538  0.2128
65977SOL    HW115541   2.351   5.710  11.656  1.1181 -0.1895  0.2241
65977SOL    HW215542   2.421   5.591  11.717 -0.9271 -2.4233 -1.5853
65978SOL     OW15543  11.078  11.216  12.909 -0.1672  0.1003 -0.0784
65978SOL    HW115544  11.055  11.128  12.939 -2.0063  1.3805  2.6077
65978SOL    HW215545  11.169  11.228  12.935  0.0767 -0.9377 -0.4101
65979SOL     OW15546   7.219  11.727  13.854 -0.4602  0.2274  0.0901
65979SOL    HW115547   7.304  11.746  13.896 -0.4205 -0.1974  0.2000
65979SOL    HW215548   7.163  11.698  13.926 -0.8585  0.9998  0.1070
65980SOL     OW15549  10.649   1.028   1.438 -0.4586  0.3382 -0.0151
65980SOL    HW115550  10.620   0.938   1.452 -2.4563  1.2618  2.6044
65980SOL    HW215551  10.736   1.032   1.477 -0.4356 -0.3833  0.0197
65981SOL     OW15552   6.384   9.991   3.330  0.1739  0.0799  0.1714
65981SOL    HW115553   6.402   9.981   3.424 -0.8215  0.9281  0.4763
65981SOL    HW215554   6.420  10.077   3.309  0.0060  0.0749 -0.1279
65982SOL     OW15555   0.276   9.055   8.798 -0.3281 -0.0247  0.3588
65982SOL    HW115556   0.350   9.004   8.831 -0.7656 -0.9756 -0.1131
65982SOL    HW215557   0.285   9.140   8.842  1.4553  0.1390 -0.2294
65983SOL     OW15558  11.822   5.921   3.443 -0.2450 -0.4051 -0.1148
65983SOL    HW115559  11.872   6.000   3.421 -1.9846  0.5517 -0.8576
65983SOL    HW215560  11.887   5.851   3.448  1.4268  1.1558  1.0941
65984SOL     OW15561   6.351   7.637   6.170  0.0507  0.7497 -0.0361
65984SOL    HW115562   6.390   7.563   6.124  0.6254  0.7516  0.4311
65984SOL    HW215563   6.342   7.705   6.103  0.2117  0.5109 -0.3037
65985SOL     OW15564   9.034   7.632  11.403 -0.6334 -0.0554  0.5575
65985SOL    HW115565   9.111   7.579  11.423 -0.8933 -0.4484  0.5370
65985SOL    HW215566   9.041   7.649  11.309  0.2059  1.1764  0.8332
65986SOL     OW15567  12.065   1.093  11.044 -0.0603  0.2201  0.4381
65986SOL    HW115568  12.091   1.095  10.952 -1.0904  1.3909  0.1545
65986SOL    HW215569  12.105   1.170  11.083 -0.7884  0.5060  0.6383
65987SOL     OW15570  11.850   0.267   9.828  0.1100  0.2599  0.0260
65987SOL    HW115571  11.942   0.274   9.802  0.1337 -0.7872 -0.2349
65987SOL    HW215572  11.826   0.177   9.805 -0.4090 -0.1277  1.9234
65988SOL     OW15573  13.905   9.643  12.797 -0.3112 -0.8544 -0.3572
65988SOL    HW115574  13.917   9.580  12.868  0.1350 -0.5937 -0.1969
65988SOL    HW215575  13.818   9.623  12.762 -0.8954 -0.4593  0.7916
65989SOL     OW15576   9.509  11.464  11.153  0.0222  0.0953  0.2065
65989SOL    HW115577   9.561  11.388  11.178 -0.8317  0.4544  3.5154
65989SOL    HW215578   9.427  11.455  11.202 -0.8035  2.2797 -0.6359
65990SOL     OW15579  11.214   1.301   0.021 -0.1792 -0.9380 -0.3572
65990SOL    HW115580  11.141   1.343   0.066  1.1139  1.4022 -0.2999
65990SOL    HW215581  11.286   1.304   0.085  0.5250 -1.4123 -1.1013
65991SOL     OW15582  11.858   6.370  13.349  0.7023 -0.1116  0.0512
65991SOL    HW115583  11.822   6.449  13.309 -0.6455 -0.6871  0.0999
65991SOL    HW215584  11.938   6.400  13.393 -0.9694  1.6940  2.0543
65992SOL     OW15585   9.713   5.867   7.540 -0.0767 -0.3824  0.5864
65992SOL    HW115586   9.754   5.815   7.472 -2.0292 -1.8378  0.4194
65992SOL    HW215587   9.702   5.807   7.614 -1.6812 -0.0230  0.6804
65993SOL     OW15588  10.129  10.941  10.601  0.1815 -0.7703 -0.1962
65993SOL    HW115589  10.219  10.939  10.632  0.0846 -2.3751  0.0536
65993SOL    HW215590  10.082  10.881  10.659 -0.8461 -0.6982 -0.9233
65994SOL     OW15591  14.054   5.997   6.599 -0.0958 -0.0776 -0.2356
65994SOL    HW115592  13.995   6.063   6.562 -1.3408 -1.5617 -0.9833
65994SOL    HW215593  14.142   6.028   6.577 -0.6744  1.0493 -1.0286
65995SOL     OW15594   1.952   9.465   7.184 -0.6853  0.4279 -0.0420
65995SOL    HW115595   1.953   9.542   7.240 -1.1595 -0.5542  1.4009
65995SOL    HW215596   1.951   9.499   7.095 -1.3703  2.0876  0.5581
65996SOL     OW15597  13.959   7.765  11.112  0.3818  0.7133  0.9809
65996SOL    HW115598  13.880   7.748  11.061  0.5568 -0.0538  0.9617
65996SOL    HW215599  13.985   7.854  11.086 -0.2141  0.7943  0.6462
65997SOL     OW15600   0.509   0.393   1.142 -0.2919  0.0152 -0.2637
65997SOL    HW115601   0.455   0.374   1.219  2.1613 -0.3678  1.4929
65997SOL    HW215602   0.567   0.464   1.171  1.8595 -1.2826 -1.1332
65998SOL     OW15603   5.261  12.655  12.569 -0.3591  0.0712  0.1558
65998SOL    HW115604   5.224  12.590  12.510 -1.0508  1.6015 -1.1965
65998SOL    HW215605   5.194  12.670  12.635  0.3332 -1.5002  1.2611
65999SOL     OW15606  10.078   3.921   5.022 -0.0474  0.6680  0.0449
65999SOL    HW115607  10.122   4.001   4.993 -0.8237  0.5652 -1.4809
65999SOL    HW215608  10.023   3.949   5.095  1.8657  0.9519  1.4626
66000SOL     OW15609  11.183   7.753  13.433 -0.3135 -0.4822 -0.4239
66000SOL    HW115610  11.141   7.736  13.518  2.3749  2.7885  1.8369
66000SOL    HW215611  11.265   7.705  13.437  0.1052  0.1812 -0.8761
66001SOL     OW15612   5.948   1.373   0.281 -0.2548  0.0660  0.1815
66001SOL    HW115613   5.991   1.445   0.328  0.6666 -0.1886 -0.2427
66001SOL    HW215614   5.937   1.305   0.347 -1.7525  0.8253  0.7546
66002SOL     OW15615  10.821   6.365   7.742  0.0213 -0.1327  0.2369
66002SOL    HW115616  10.866   6.435   7.788 -0.5250  1.0293 -0.9168
66002SOL    HW215617  10.864   6.360   7.657 -1.3792  0.3798 -0.5416
66003SOL     OW15618  11.839   4.373   5.505 -0.1963  0.3334 -0.1526
66003SOL    HW115619  11.751   4.338   5.512 -0.3559  0.8484  0.5598
66003SOL    HW215620  11.843   4.410   5.417 -0.6866  0.2885 -0.1967
66004SOL     OW15621  10.130   8.432   4.178  0.0171 -0.2840 -0.2016
66004SOL    HW115622  10.194   8.376   4.223  0.8016  0.9077  0.2223
66004SOL    HW215623  10.060   8.444   4.242 -1.0576 -2.1922 -0.9231
66005SOL     OW15624   6.955   7.206   2.088 -0.5327  0.2960 -0.1391
66005SOL    HW115625   6.874   7.186   2.040 -0.1759  0.2460 -0.7228
66005SOL    HW215626   7.018   7.143   2.056  0.0961  1.1558 -0.6402
66006SOL     OW15627   5.166  13.289   3.225 -0.2905  0.6801  0.7249
66006SOL    HW115628   5.125  13.352   3.166  0.2622  0.2127 -0.1649
66006SOL    HW215629   5.228  13.342   3.276  0.6809  0.7585 -0.5000
66007SOL     OW15630   5.859  13.610   3.941  0.5218 -0.3207 -0.3244
66007SOL    HW115631   5.934  13.597   3.882 -0.2142  1.8660 -1.8563
66007SOL    HW215632   5.784  13.579   3.891 -0.0059  0.7078 -0.1909
66008SOL     OW15633   5.374  10.714  12.278  0.1853 -0.0938  0.0209
66008SOL    HW115634   5.436  10.763  12.224  0.0699  0.6824  0.5673
66008SOL    HW215635   5.288  10.737  12.242  0.1907 -0.9108 -0.5286
66009SOL     OW15636   2.561  12.606  12.482 -0.0900  0.6403  0.2421
66009SOL    HW115637   2.475  12.646  12.478 -0.0182  0.7193 -1.0630
66009SOL    HW215638   2.614  12.657  12.420  0.8774  0.5471  0.9620
66010SOL     OW15639   8.186  13.985  11.796 -0.0956  0.3291 -0.6638
66010SOL    HW115640   8.178  13.891  11.814 -0.7070  0.5870  0.4773
66010SOL    HW215641   8.225  13.989  11.709  0.3314 -0.9853 -0.5569
66011SOL     OW15642   4.480  11.892   5.308 -0.2173 -0.3008  0.8848
66011SOL    HW115643   4.393  11.923   5.330 -0.7936 -1.9962  1.1286
66011SOL    HW215644   4.476  11.797   5.321  0.9858 -0.7208 -1.2553
66012SOL     OW15645  10.185   6.954   9.033  0.5209  0.1375  0.1148
66012SOL    HW115646  10.156   6.905   9.110 -0.1821 -1.3059 -1.0128
66012SOL    HW215647  10.106   6.963   8.979  1.2401 -0.0070 -1.0117
66013SOL     OW15648   0.191  11.459  13.965 -0.4103  0.3852  0.0145
66013SOL    HW115649   0.131  11.507  14.022 -1.4463 -1.9830  1.0170
66013SOL    HW215650   0.213  11.522  13.896 -1.7950  2.2319  1.1552
66014SOL     OW15651  13.663   1.533  10.366  0.4243  0.0476 -0.1411
66014SOL    HW115652  13.664   1.565  10.276  1.3264  0.9722  0.1862
66014SOL    HW215653  13.587   1.575  10.406  0.2300 -0.0863 -0.3692
66015SOL     OW15654  14.013   7.720   4.016  0.1293 -0.1717 -0.3331
66015SOL    HW115655  14.070   7.717   3.939  0.3036  2.2800 -0.3719
66015SOL    HW215656  14.072   7.706   4.090  1.0973  3.3169 -0.2969
66016SOL     OW15657  12.838   5.916   1.928 -0.6014  0.3158  0.1196
66016SOL    HW115658  12.822   5.862   2.005  0.0423  1.2861  0.9704
66016SOL    HW215659  12.926   5.891   1.899 -1.7145 -1.7774 -1.8191
66017SOL     OW15660  11.432   5.118   3.160  0.2875 -0.9927 -0.2878
66017SOL    HW115661  11.444   5.177   3.235 -0.0748  0.2163 -1.1494
66017SOL    HW215662  11.337   5.119   3.145  0.4258 -0.6235 -1.2078
66018SOL     OW15663  10.158   4.019   0.482  0.1163  0.0921  0.2361
66018SOL    HW115664  10.204   3.993   0.561  0.6552 -0.3650 -0.2148
66018SOL    HW215665  10.087   4.076   0.512  1.1565  1.0616  0.9346
66019SOL     OW15666   0.546   0.090   5.878 -0.1063 -0.6859 -0.0621
66019SOL    HW115667   0.639   0.076   5.860  0.3176  2.0035 -0.4093
66019SOL    HW215668   0.507   0.103   5.791 -0.3690  0.3193  0.1932
66020SOL     OW15669  12.892   3.989   9.341  0.2535  0.3661 -1.3112
66020SOL    HW115670  12.898   4.047   9.265  1.9110  0.0196 -1.4958
66020SOL    HW215671  12.967   3.930   9.332  0.7713  0.6124  0.8314
66021SOL     OW15672  11.638   5.798   7.020  0.2390  0.0100 -0.1250
66021SOL    HW115673  11.662   5.890   7.006 -0.9012  0.2849 -0.3574
66021SOL    HW215674  11.713   5.761   7.066  0.7414  1.0464 -0.0749
66022SOL     OW15675   0.769   4.030  11.422  0.2188  0.1715 -0.0424
66022SOL    HW115676   0.783   4.105  11.364 -0.0281 -0.9642 -1.6344
66022SOL    HW215677   0.856   4.000  11.445  0.3291  1.1409  0.9420
66023SOL     OW15678  11.897   6.404   5.904 -0.7907 -0.2069  0.3627
66023SOL    HW115679  11.887   6.415   5.998 -1.0280  0.9963  0.2101
66023SOL    HW215680  11.824   6.348   5.879 -1.6745  0.7823  0.6688
66024SOL     OW15681   2.884  10.624   5.075  0.4016 -0.4839 -0.5089
66024SOL    HW115682   2.961  10.678   5.058  0.0612  0.0724 -0.2940
66024SOL    HW215683   2.822  10.648   5.006  0.8718 -1.8497 -1.4658
66025SOL     OW15684   6.275   2.532   5.192  0.3611 -0.1395 -0.7743
66025SOL    HW115685   6.215   2.599   5.159 -0.4167 -0.6486 -0.4235
66025SOL    HW215686   6.242   2.511   5.279  1.1219 -0.3492 -0.5288
66026SOL     OW15687   1.095   9.679   0.371 -0.2659 -0.0377 -0.1284
66026SOL    HW115688   1.074   9.586   0.362  1.5948 -0.7187  1.5697
66026SOL    HW215689   1.017   9.718   0.410 -0.5406 -1.2426  0.5872
66027SOL     OW15690  10.211   9.019  13.114  0.0536  0.0639  0.0580
66027SOL    HW115691  10.198   9.025  13.209 -0.5819  0.7704 -0.0593
66027SOL    HW215692  10.298   8.981  13.104  0.0061 -0.3068  0.9208
66028SOL     OW15693   1.848   9.658   4.571 -0.4892 -0.0245 -0.1063
66028SOL    HW115694   1.814   9.602   4.641 -0.4223  1.1257  0.8891
66028SOL    HW215695   1.909   9.603   4.523 -0.2953 -0.7531  0.9519
66029SOL     OW15696  11.201   2.331   7.219 -0.3403 -0.0071 -0.1919
66029SOL    HW115697  11.213   2.349   7.312 -0.4996 -0.0392 -0.1637
66029SOL    HW215698  11.245   2.247   7.205  1.1743  0.8175 -0.5142
66030SOL     OW15699  10.274   6.845   3.403  0.2983 -0.0582 -0.1002
66030SOL    HW115700  10.301   6.756   3.382 -1.7305 -0.7721  0.0727
66030SOL    HW215701  10.180   6.847   3.384  0.2336  1.9647  0.1801
66031SOL     OW15702   1.278   2.712   7.768  0.6634  0.4834  0.1699
66031SOL    HW115703   1.184   2.720   7.787  0.4616 -0.4051 -0.3828
66031SOL    HW215704   1.321   2.723   7.852  0.0367  0.4897  0.4950
66032SOL     OW15705   4.236   5.002  11.642 -0.8130 -0.3937  0.0938
66032SOL    HW115706   4.196   5.084  11.612  0.0204 -0.4331 -1.2056
66032SOL    HW215707   4.295   5.028  11.712 -0.6564  0.1176 -0.2203
66033SOL     OW15708   5.342  13.709   4.156  0.0722 -0.0094 -0.3002
66033SOL    HW115709   5.365  13.693   4.247  2.1984  2.6210 -0.2495
66033SOL    HW215710   5.248  13.688   4.151 -0.0304 -0.5514  2.3811
66034SOL     OW15711   9.764   3.336   2.853 -0.4062  0.0522  0.0751
66034SOL    HW115712   9.833   3.290   2.804 -1.1001 -1.4500  0.4328
66034SOL    HW215713   9.790   3.324   2.945 -0.3587  0.8051  0.1662
66035SOL     OW15714  14.080  13.720   8.673  0.0023  0.1153  0.0439
66035SOL    HW115715  14.088  13.699   8.580 -1.4986  1.2225 -0.3589
66035SOL    HW215716  13.997  13.682   8.699 -0.1023  0.7546  0.6603
66036SOL     OW15717  10.783  11.052  12.346  0.3851 -0.1880  0.1600
66036SOL    HW115718  10.821  10.967  12.325  0.6847 -0.1494  0.5267
66036SOL    HW215719  10.842  11.089  12.412  0.8712  0.7768 -0.7869
66037SOL     OW15720  11.051  12.108   2.021  0.2033 -0.3927  0.1370
66037SOL    HW115721  10.969  12.112   2.069  0.9372  0.3678  1.3724
66037SOL    HW215722  11.110  12.166   2.068  0.5200  1.7454 -2.6319
66038SOL     OW15723   9.519   1.463   7.811  0.1332  0.2404  0.5996
66038SOL    HW115724   9.583   1.471   7.741 -0.5424  0.5366  0.0009
66038SOL    HW215725   9.533   1.376   7.848 -0.8798 -0.7913 -1.3023
66039SOL     OW15726  13.837   9.356   4.147 -0.3201 -0.2218  0.1336
66039SOL    HW115727  13.795   9.441   4.158 -1.2266 -0.6786  0.3445
66039SOL    HW215728  13.766   9.298   4.121 -0.1725 -1.3828  2.0696
66040SOL     OW15729   2.420   6.068  10.620  0.0652 -0.6738 -0.0875
66040SOL    HW115730   2.417   6.027  10.534  0.8780  0.9375 -0.9423
66040SOL    HW215731   2.445   5.998  10.680 -0.3814 -1.7923 -1.1684
66041SOL     OW15732  11.083   0.921   4.181  0.3740 -0.0326 -0.2121
66041SOL    HW115733  11.018   0.937   4.250  1.3348  0.7831  0.5456
66041SOL    HW215734  11.031   0.910   4.101 -0.6995  0.4940  0.3803
66042SOL     OW15735   4.603   7.935   6.351  0.1740 -0.0104 -0.6399
66042SOL    HW115736   4.669   7.886   6.302  1.4174  1.4855 -0.4961
66042SOL    HW215737   4.635   8.025   6.354 -0.7602  0.3222  1.3854
66043SOL     OW15738   3.604  10.991  13.606 -0.0446 -0.0181  0.6423
66043SOL    HW115739   3.559  10.907  13.596 -0.3744 -0.0106  1.8739
66043SOL    HW215740   3.695  10.968  13.624  0.2778 -0.0502 -0.8509
66044SOL     OW15741   1.503   8.939   1.686 -0.2094 -0.2693 -0.2710
66044SOL    HW115742   1.464   8.999   1.750 -1.0720  0.3902 -1.3731
66044SOL    HW215743   1.436   8.871   1.674  0.8033 -1.5689  1.0507
66045SOL     OW15744   7.641  13.891   1.056 -0.3750 -0.7468 -0.0432
66045SOL    HW115745   7.661  13.826   0.989  0.6330 -0.1240 -0.3686
66045SOL    HW215746   7.583  13.954   1.013 -0.2978 -0.7298 -0.1226
66046SOL     OW15747   1.974   2.679  11.103  0.2256  0.4108  0.3383
66046SOL    HW115748   1.965   2.678  11.198  1.1191  1.0722  0.4520
66046SOL    HW215749   1.904   2.623  11.071 -0.0895  0.1842  1.3867
66047SOL     OW15750  11.401   6.080  11.310 -0.5651  0.0903  0.2520
66047SOL    HW115751  11.493   6.064  11.328 -0.2166  2.2005  0.6158
66047SOL    HW215752  11.362   6.100  11.395 -1.6409 -1.8148  0.2647
66048SOL     OW15753  11.561   7.141   3.159 -0.2502 -0.5635 -0.2320
66048SOL    HW115754  11.571   7.084   3.235 -1.2771  1.4421  1.5189
66048SOL    HW215755  11.529   7.223   3.195 -0.3723  0.6206 -2.8214
66049SOL     OW15756   8.172   9.312   1.213 -0.5446 -0.1561  0.8767
66049SOL    HW115757   8.143   9.397   1.246 -0.1325  0.1059  0.5810
66049SOL    HW215758   8.267   9.322   1.202 -0.8429  0.2870 -1.8517
66050SOL     OW15759   4.848   4.102   8.113 -0.3012  0.3055  0.3856
66050SOL    HW115760   4.855   4.064   8.200  0.8637  0.6833  0.4776
66050SOL    HW215761   4.912   4.173   8.113  0.3318 -0.2237 -1.0398
66051SOL     OW15762   1.410   2.189   5.227 -0.0697 -0.2951  0.7207
66051SOL    HW115763   1.398   2.159   5.137  1.0516 -0.4018  0.5933
66051SOL    HW215764   1.356   2.268   5.233  1.9107  1.2947 -0.8944
66052SOL     OW15765  13.473   8.384  11.864 -0.8694  0.0596  0.5940
66052SOL    HW115766  13.455   8.417  11.952 -2.0624  0.6788  0.1575
66052SOL    HW215767  13.405   8.425  11.810 -0.2135 -0.3778 -0.5941
66053SOL     OW15768   3.046   1.151   8.850 -0.3582 -0.2293  0.2901
66053SOL    HW115769   3.130   1.182   8.818 -0.2307  0.3401  1.1311
66053SOL    HW215770   3.022   1.213   8.919 -2.5910  1.0181 -1.4616
66054SOL     OW15771   6.359   6.154  10.535  0.1702  0.4026  0.1685
66054SOL    HW115772   6.390   6.107  10.457 -0.4063  0.1921  0.0611
66054SOL    HW215773   6.290   6.098  10.571 -1.7358  1.9327 -0.9194
66055SOL     OW15774  11.309   5.196   9.595 -0.0796  0.2203 -0.3301
66055SOL    HW115775  11.257   5.175   9.672  2.3172 -2.2025  0.7814
66055SOL    HW215776  11.245   5.199   9.523 -2.2282  1.4469  1.5050
66056SOL     OW15777  10.159   0.366   8.776  0.0544 -0.1639  0.2088
66056SOL    HW115778  10.250   0.349   8.800 -0.5110 -0.9125  1.9890
66056SOL    HW215779  10.110   0.295   8.817 -1.3928  0.5558 -0.2069
66057SOL     OW15780  11.980  13.730   5.200  0.2438 -0.4402  0.5473
66057SOL    HW115781  11.950  13.651   5.157 -0.6469  1.1084 -1.8591
66057SOL    HW215782  11.925  13.737   5.278  0.6274 -2.3495  1.0455
66058SOL     OW15783  11.763   3.558   2.154  0.3884 -0.0197  0.0925
66058SOL    HW115784  11.702   3.614   2.107 -1.4904 -0.9540  1.2900
66058SOL    HW215785  11.821   3.523   2.086 -1.1366 -0.0078 -1.2724
66059SOL     OW15786   7.287  13.545  12.582  0.3300  0.0596 -0.5423
66059SOL    HW115787   7.357  13.580  12.527  0.7999  2.0357  1.1686
66059SOL    HW215788   7.218  13.611  12.578  0.1928  0.0302  0.8115
66060SOL     OW15789   6.390  13.231   4.360  0.2860  0.0822  0.0568
66060SOL    HW115790   6.424  13.234   4.449 -0.3975 -1.5431  0.4123
66060SOL    HW215791   6.356  13.142   4.350 -1.3533  0.7793 -1.1836
66061SOL     OW15792   9.971  12.223   1.672  0.1577  0.0702  0.0402
66061SOL    HW115793  10.029  12.175   1.731  1.2225  1.2884  0.0420
66061SOL    HW215794   9.884  12.216   1.711  0.5015 -0.8242  0.6668
66062SOL     OW15795   8.214  12.088   0.130 -0.1811  0.1939 -0.4511
66062SOL    HW115796   8.183  12.091   0.220  2.8946  0.1360  0.7329
66062SOL    HW215797   8.282  12.020   0.130 -0.4786 -0.2044 -2.9696
66063SOL     OW15798  14.086   4.641  13.471  0.1418 -0.4048 -0.1177
66063SOL    HW115799  14.166   4.625  13.421  0.5744  1.3232 -0.0639
66063SOL    HW215800  14.116   4.687  13.550 -1.0153  1.8860 -0.9281
66064SOL     OW15801  12.271   8.963  11.503  0.4489 -0.1151 -0.2937
66064SOL    HW115802  12.282   8.876  11.466 -2.3781  0.6524 -3.4482
66064SOL    HW215803  12.179   8.967  11.529  0.6914  1.7270  0.4352
66065SOL     OW15804  13.665   6.833  13.943 -0.6748 -0.6110 -0.1630
66065SOL    HW115805  13.612   6.807  13.867 -0.6368 -1.2891  0.0331
66065SOL    HW215806  13.626   6.785  14.016  0.2528 -1.1708 -0.0289
66066SOL     OW15807  10.964   2.502   7.059 -0.5141 -0.1786 -0.0678
66066SOL    HW115808  10.942   2.585   7.016  1.0293  1.0894  1.4068
66066SOL    HW215809  11.048   2.478   7.020 -0.1470 -0.1412  0.6891
66067SOL     OW15810   3.379   3.985   5.147  0.1575 -0.4089  0.2058
66067SOL    HW115811   3.298   3.972   5.098  0.8010 -0.1239 -0.9667
66067SOL    HW215812   3.352   4.032   5.225 -0.8159 -0.3597 -0.1435
66068SOL     OW15813   6.006   0.206   8.555 -0.0344 -0.1971 -0.1898
66068SOL    HW115814   6.001   0.247   8.468  0.2366 -1.1116 -0.6423
66068SOL    HW215815   6.099   0.208   8.577  0.3769 -2.9471 -1.3941
66069SOL     OW15816   6.025   5.265   2.845  0.5800 -0.2514 -0.3510
66069SOL    HW115817   6.078   5.332   2.802  0.8555 -0.4595 -0.3336
66069SOL    HW215818   5.979   5.221   2.773 -1.1525  1.2559 -0.2427
66070SOL     OW15819   4.189   4.948  12.852  0.2692  0.3163 -0.1324
66070SOL    HW115820   4.251   4.899  12.799  2.9071  3.6530 -0.4377
66070SOL    HW215821   4.142   5.004  12.789 -1.6339 -0.6469  0.3539
66071SOL     OW15822   2.566   5.025   0.575 -0.4113  0.5921  0.0274
66071SOL    HW115823   2.524   4.980   0.648 -1.2754  1.6770  0.2336
66071SOL    HW215824   2.616   5.095   0.616  1.0494 -0.2389 -0.2773
66072SOL     OW15825   9.211   6.091  11.284  0.5718  0.5349 -0.3840
66072SOL    HW115826   9.187   6.037  11.359 -0.9448  1.4462 -0.1732
66072SOL    HW215827   9.206   6.032  11.209 -1.0677  0.3381 -0.1628
66073SOL     OW15828   8.372   7.053   5.187 -0.0006  0.2905  0.2380
66073SOL    HW115829   8.324   7.136   5.182 -0.4940  0.1038  1.6077
66073SOL    HW215830   8.432   7.056   5.112 -0.7113  1.4333 -0.3110
66074SOL     OW15831   1.781   3.603   1.170  0.3097  0.0089  0.6299
66074SOL    HW115832   1.728   3.679   1.193  0.7800 -0.3117  3.1172
66074SOL    HW215833   1.860   3.639   1.131  0.7946  0.9051  2.3312
66075SOL     OW15834   2.396  10.221  10.597  0.1504 -0.1186 -0.3361
66075SOL    HW115835   2.473  10.264  10.560  0.0160  0.0960 -0.3682
66075SOL    HW215836   2.425  10.132  10.617  0.9344  0.5116  1.4354
66076SOL     OW15837  12.017   5.281   8.181 -0.1238  0.4730  0.5638
66076SOL    HW115838  12.055   5.225   8.113  0.3782  1.4413  0.0211
66076SOL    HW215839  12.090   5.298   8.242 -0.6797 -0.7356  1.5935
66077SOL     OW15840  12.679   0.603   9.732  0.0939 -0.2644  0.7099
66077SOL    HW115841  12.632   0.553   9.799 -0.5538 -0.2208  0.3046
66077SOL    HW215842  12.616   0.611   9.660  1.4789 -2.1804 -0.8286
66078SOL     OW15843  13.570  13.350   3.881 -0.1654 -0.2524 -0.1199
66078SOL    HW115844  13.505  13.302   3.932  0.2341  1.3159  2.0553
66078SOL    HW215845  13.524  13.429   3.852  0.4255  0.3284  0.4771
66079SOL     OW15846   5.722  10.314  14.011  0.3128  0.3469 -0.2927
66079SOL    HW115847   5.772  10.352  13.939 -0.0499  0.3463 -0.5460
66079SOL    HW215848   5.695  10.390  14.064  0.5290  0.3515 -0.1915
66080SOL     OW15849  11.383   6.111   3.523  0.1029  0.3669 -0.0585
66080SOL    HW115850  11.461   6.068   3.557 -0.2517  0.1078  0.4335
66080SOL    HW215851  11.353   6.053   3.452 -0.7508 -0.5625  1.0352
66081SOL     OW15852   3.112  12.694  11.224  0.3216  0.0670 -0.1353
66081SOL    HW115853   3.143  12.620  11.172  0.8352  0.3905 -0.2952
66081SOL    HW215854   3.181  12.708  11.289  0.4865  0.7484 -0.4513
66082SOL     OW15855  14.087  10.569   6.126 -0.1942 -0.0078  0.2632
66082SOL    HW115856  14.111  10.476   6.123 -1.6160 -0.3793 -0.5850
66082SOL    HW215857  14.169  10.614   6.144  0.8671 -1.3038 -1.1007
66083SOL     OW15858  11.985   1.637  12.502 -0.0424 -0.1851 -0.5166
66083SOL    HW115859  11.892   1.639  12.479 -0.4843 -0.5963  1.1233
66083SOL    HW215860  11.987   1.608  12.593  1.7422 -0.7885 -0.7055
66084SOL     OW15861  10.905   1.370   7.873  0.4418  0.1369 -0.5721
66084SOL    HW115862  10.990   1.330   7.888  0.8782  1.2481  0.0323
66084SOL    HW215863  10.857   1.356   7.955 -0.2154 -1.0537 -1.1334
66085SOL     OW15864   8.374  12.779   5.362 -0.4531  0.4196 -0.2135
66085SOL    HW115865   8.399  12.842   5.295 -1.7523  1.3392  0.1389
66085SOL    HW215866   8.457  12.742   5.392  0.2231  0.8630 -1.4740
66086SOL     OW15867   6.896   6.282   2.156  0.9017  0.2202  0.0052
66086SOL    HW115868   6.931   6.212   2.210  1.5084 -0.1256 -0.8215
66086SOL    HW215869   6.973   6.328   2.123  0.6110 -0.3608 -1.5956
66087SOL     OW15870   0.315   5.037  14.081  0.3006  0.1511 -0.5810
66087SOL    HW115871   0.321   5.109  14.144 -0.4453  1.4466 -1.9091
66087SOL    HW215872   0.386   4.978  14.105 -0.1794  0.4080  1.6678
66088SOL     OW15873   1.697   9.709   5.343  0.2921 -0.6891 -0.1992
66088SOL    HW115874   1.722   9.618   5.360 -1.0119 -1.0673 -0.2083
66088SOL    HW215875   1.645   9.704   5.262 -0.4553 -0.0544  0.2357
66089SOL     OW15876   3.361   4.872   8.657 -0.1331  0.1971 -0.3280
66089SOL    HW115877   3.312   4.792   8.676  1.3192 -0.1942  2.2435
66089SOL    HW215878   3.333   4.934   8.725  1.0697  0.7748 -0.3310
66090SOL     OW15879   1.097   4.179   6.471 -0.1226 -0.2984 -0.2530
66090SOL    HW115880   1.128   4.264   6.502 -1.0899  0.1325 -0.4124
66090SOL    HW215881   1.036   4.200   6.400 -1.3792 -1.0323  0.5627
66091SOL     OW15882  10.098  12.414   3.552  0.2215 -0.7719  0.0776
66091SOL    HW115883  10.184  12.397   3.514  0.3861 -0.5446  0.3404
66091SOL    HW215884  10.036  12.401   3.480  0.4595 -1.1170 -0.0657
66092SOL     OW15885   3.591   8.103  12.520 -0.0079 -0.3690 -0.3205
66092SOL    HW115886   3.631   8.183  12.555 -0.6170 -0.3059  0.2648
66092SOL    HW215887   3.613   8.036  12.584  1.8066 -1.0273 -1.5776
66093SOL     OW15888   6.818   4.336   4.770 -0.5483  0.1393  0.5995
66093SOL    HW115889   6.787   4.390   4.843 -1.4405  0.2335  0.1696
66093SOL    HW215890   6.898   4.378   4.741 -0.5749  0.5193  1.0635
66094SOL     OW15891   4.510  11.617   2.246  0.3981 -0.4792  0.5921
66094SOL    HW115892   4.576  11.686   2.244  0.2487 -0.1246  3.4799
66094SOL    HW215893   4.460  11.629   2.165  0.8310  2.3643  0.6505
66095SOL     OW15894  13.890   4.528  10.717 -0.4355 -0.1659  0.0241
66095SOL    HW115895  13.865   4.473  10.791 -0.4988 -0.7548 -0.4332
66095SOL    HW215896  13.845   4.611  10.733  1.9172  0.8393  2.2519
66096SOL     OW15897   6.181   9.166  12.314 -1.0382 -0.0636  0.2868
66096SOL    HW115898   6.202   9.133  12.402 -1.2228  1.3547  0.9002
66096SOL    HW215899   6.234   9.113  12.255  0.7185  0.3220  1.4205
66097SOL     OW15900   2.218  13.831   6.967 -0.2144  0.1876 -0.2014
66097SOL    HW115901   2.195  13.899   6.903 -2.0353  0.2292  0.4298
66097SOL    HW215902   2.145  13.769   6.962  0.2502 -0.4701  0.9306
66098SOL     OW15903   1.010   2.925   7.622 -0.1732 -0.3375 -0.3883
66098SOL    HW115904   0.950   2.888   7.687  0.5025  0.8247  0.9398
66098SOL    HW215905   1.096   2.892   7.647  0.2693  1.1248  0.0853
66099SOL     OW15906  11.242   7.105   4.724 -0.7366  0.0913 -0.3045
66099SOL    HW115907  11.165   7.062   4.685 -1.2376 -0.0612  0.8209
66099SOL    HW215908  11.205   7.169   4.784  0.0262  1.0125 -0.8037
66100SOL     OW15909   0.151   3.212  13.279 -0.2390 -0.2893 -0.0377
66100SOL    HW115910   0.177   3.212  13.187  0.5895 -1.8091  0.1504
66100SOL    HW215911   0.072   3.158  13.282 -0.5992  0.2345  0.0761
66101SOL     OW15912   5.861   4.959  11.821 -0.1334 -0.4901 -0.4129
66101SOL    HW115913   5.931   5.018  11.792  1.0914 -0.8154  1.6794
66101SOL    HW215914   5.780   5.002  11.794  0.6457  2.5610  1.5741
66102SOL     OW15915   5.511   1.705  11.044  0.5682  0.1223 -0.2201
66102SOL    HW115916   5.526   1.619  11.003  0.0726  0.7437 -1.8024
66102SOL    HW215917   5.429   1.694  11.092 -0.0480 -0.0378 -1.2599
66103SOL     OW15918   1.310   6.368   6.390 -0.0089  0.1103  0.3412
66103SOL    HW115919   1.385   6.367   6.330 -0.5063  3.2484 -0.4899
66103SOL    HW215920   1.249   6.305   6.352  0.3244  0.9010 -1.6204
66104SOL     OW15921   9.217   2.368   3.443  0.0516  0.0624 -0.0229
66104SOL    HW115922   9.205   2.459   3.416  2.1044  0.7686  1.1708
66104SOL    HW215923   9.190   2.366   3.535 -3.2277 -1.4043 -0.8911
66105SOL     OW15924   7.386  12.650   0.651 -0.1293  0.4894  0.0168
66105SOL    HW115925   7.431  12.668   0.734 -0.6450  2.1099 -0.0189
66105SOL    HW215926   7.354  12.735   0.622 -0.6927 -0.1797 -1.4377
66106SOL     OW15927   5.567  12.448   7.783  0.1132 -0.0425 -0.6391
66106SOL    HW115928   5.496  12.404   7.831 -0.4840  0.8003 -0.7300
66106SOL    HW215929   5.615  12.495   7.851 -0.6880  1.0910 -0.8248
66107SOL     OW15930   5.899  12.350   4.484 -0.1101  0.4854 -0.2870
66107SOL    HW115931   5.975  12.316   4.531 -1.5811 -2.0825  0.4495
66107SOL    HW215932   5.909  12.445   4.488  2.1904  0.2693  1.1906
66108SOL     OW15933  12.736   1.252   5.736 -0.2657  0.4742 -0.0540
66108SOL    HW115934  12.697   1.263   5.650 -0.2803  1.1205  0.0277
66108SOL    HW215935  12.801   1.323   5.743 -0.7536  0.8613  0.7260
66109SOL     OW15936   2.177  10.466   6.804 -0.3192 -0.3562 -0.2432
66109SOL    HW115937   2.268  10.466   6.775 -0.6428 -1.6005 -1.3626
66109SOL    HW215938   2.160  10.376   6.830 -1.7150 -0.5650 -1.7185
66110SOL     OW15939   6.995   9.450   4.129  0.6367 -0.1648 -0.3779
66110SOL    HW115940   7.025   9.529   4.173  2.3799 -0.0167 -1.7387
66110SOL    HW215941   7.052   9.381   4.163  0.0167 -0.6075 -0.2112
66111SOL     OW15942  10.559   3.431   7.257 -0.2774 -0.2762  0.2580
66111SOL    HW115943  10.654   3.432   7.248 -0.3779 -0.4326 -1.1020
66111SOL    HW215944  10.528   3.389   7.176 -1.4099 -2.3610  1.6645
66112SOL     OW15945   2.449   2.930   6.668  0.1338  0.1136 -0.2838
66112SOL    HW115946   2.386   2.871   6.709  3.1539 -3.5244 -0.2982
66112SOL    HW215947   2.412   2.948   6.581 -1.1715 -1.3612 -0.0756
66113SOL     OW15948   1.831   6.921  12.275  0.4231 -0.0961 -0.0825
66113SOL    HW115949   1.782   6.844  12.304  1.6873 -1.3812 -1.2101
66113SOL    HW215950   1.814   6.927  12.181  1.6363 -0.0140 -0.3158
66114SOL     OW15951  12.007   1.570   8.308 -0.4040  0.1348 -0.3872
66114SOL    HW115952  11.989   1.498   8.369  0.2230 -0.0397 -0.3948
66114SOL    HW215953  11.922   1.593   8.272 -0.9530  0.8981  1.2869
66115SOL     OW15954   6.138  11.745  10.834  0.6400  0.6842 -0.3660
66115SOL    HW115955   6.201  11.763  10.904 -0.0368  0.7090  0.2503
66115SOL    HW215956   6.133  11.827  10.785  0.5279  0.9300  0.0447
66116SOL     OW15957   5.964  12.248   1.080 -0.0129 -0.2128  0.0175
66116SOL    HW115958   5.946  12.254   0.986 -1.9723 -0.6828  0.3219
66116SOL    HW215959   5.921  12.325   1.118 -1.4078 -1.3122  0.7728
66117SOL     OW15960  12.985   8.228  12.255 -0.2594 -0.2607 -0.4781
66117SOL    HW115961  12.936   8.263  12.181 -0.3130  0.4159 -0.1267
66117SOL    HW215962  13.074   8.262  12.243 -0.0265 -0.9468 -0.7572
66118SOL     OW15963   3.553   3.958   5.771  0.1369  0.4929  0.6973
66118SOL    HW115964   3.622   3.958   5.837  0.3847  2.4307  0.4912
66118SOL    HW215965   3.596   3.928   5.691  0.2268 -0.2778  1.0260
66119SOL     OW15966   9.114  10.768   2.442 -0.0497 -0.4337 -0.6218
66119SOL    HW115967   9.109  10.837   2.375  1.4429 -0.1282 -0.4469
66119SOL    HW215968   9.072  10.806   2.519  2.2713  0.9902  0.0184
66120SOL     OW15969  10.859   9.249   0.129  0.1577  0.5073  0.1154
66120SOL    HW115970  10.829   9.223   0.216 -1.3528  0.9484 -0.2586
66120SOL    HW215971  10.908   9.330   0.145  0.5594  0.1700  0.6440
66121SOL     OW15972   9.711   5.623   2.196  0.8317  0.0402 -0.2884
66121SOL    HW115973   9.753   5.562   2.135  0.8351  1.3788 -1.6865
66121SOL    HW215974   9.617   5.613   2.179  0.7612 -0.4664  0.3762
66122SOL     OW15975  12.260  12.641   8.857 -0.4186 -0.4737 -0.4538
66122SOL    HW115976  12.253  12.549   8.834 -0.6826 -0.6471  0.2886
66122SOL    HW215977  12.225  12.646   8.946 -3.6920  0.8913 -1.6941
66123SOL     OW15978   9.973   9.275  13.562  0.0115  0.2441 -0.2893
66123SOL    HW115979  10.019   9.355  13.587 -0.3666 -0.0579  1.5765
66123SOL    HW215980   9.936   9.294  13.476  0.0576  2.0213  0.0482
66124SOL     OW15981  11.719   5.700   5.569  0.4683  0.1959  0.3895
66124SOL    HW115982  11.773   5.779   5.569  0.9902 -0.1453  1.3550
66124SOL    HW215983  11.630   5.732   5.585  0.4915  0.6865 -0.4233
66125SOL     OW15984   1.009   2.661   1.924  0.0623  0.9278  0.2720
66125SOL    HW115985   1.038   2.607   1.998  0.8799  0.3941 -0.4219
66125SOL    HW215986   1.060   2.741   1.931 -0.7044  1.3644  0.9481
66126SOL     OW15987  11.309   7.526   4.975 -0.0779  0.0175  0.4569
66126SOL    HW115988  11.344   7.459   4.917 -0.5362  0.5025 -0.4087
66126SOL    HW215989  11.335   7.609   4.935 -3.3418  0.4631 -1.0780
66127SOL     OW15990   1.566  13.963   3.073  0.1110 -0.4128  0.7049
66127SOL    HW115991   1.598  14.038   3.024  0.4607  1.0439  3.0068
66127SOL    HW215992   1.611  13.888   3.035  0.8191  0.7067 -0.7447
66128SOL     OW15993   0.030  10.538   5.026  0.6580  0.1797  0.1186
66128SOL    HW115994   0.001  10.537   4.935  0.5653  1.1265  0.1321
66128SOL    HW215995  -0.051  10.546   5.077  0.8100  1.2247  0.2145
66129SOL     OW15996  10.091   5.941  13.951 -0.5307 -0.5486 -0.8370
66129SOL    HW115997  10.005   5.953  13.911 -0.9699 -0.6328  0.0455
66129SOL    HW215998  10.151   5.929  13.877 -1.3843 -1.2067 -1.4453
66130SOL     OW15999   3.198   5.341  13.333  0.3114  0.0731 -0.4456
66130SOL    HW116000   3.192   5.330  13.428 -0.1993  0.3538 -0.4456
66130SOL    HW216001   3.174   5.432  13.317 -0.1101 -0.1138 -0.8944
66131SOL     OW16002  13.036  11.509   1.774  0.3009 -0.2886 -0.2594
66131SOL    HW116003  13.093  11.556   1.836 -2.1335  0.7887  1.3079
66131SOL    HW216004  12.968  11.573   1.752 -2.0890 -2.4234  0.4693
66132SOL     OW16005   3.604  13.044  12.060 -0.3910 -0.2504 -0.5122
66132SOL    HW116006   3.611  12.982  12.132  0.5591 -0.7086 -0.9707
66132SOL    HW216007   3.659  13.118  12.087 -2.8906  1.2469  0.8168
66133SOL     OW16008  10.223   0.844   5.467 -0.4636  0.3556  0.1812
66133SOL    HW116009  10.190   0.877   5.383  0.6938 -0.6015 -0.6970
66133SOL    HW216010  10.306   0.889   5.480 -0.2769 -0.0458  0.4203
66134SOL     OW16011  11.678   2.632   4.989 -0.0926  0.6533  0.4932
66134SOL    HW116012  11.735   2.577   4.935  0.3545 -0.0704  1.6723
66134SOL    HW216013  11.737   2.677   5.049 -0.7365 -0.2616  1.8717
66135SOL     OW16014   5.079   8.378   3.727 -0.1456  0.5266  0.2312
66135SOL    HW116015   5.051   8.427   3.650  0.2178  0.0460 -0.2127
66135SOL    HW216016   5.102   8.291   3.693  1.0220  0.6290  0.7139
66136SOL     OW16017   2.299   6.006   3.504 -0.7714 -0.5731 -0.0649
66136SOL    HW116018   2.221   5.955   3.523 -1.2249  0.4971  1.1194
66136SOL    HW216019   2.270   6.071   3.439 -1.2073  0.5741  1.2370
66137SOL     OW16020   5.303   8.342  11.526  0.0404 -0.7818 -0.3022
66137SOL    HW116021   5.311   8.433  11.554  2.4212 -1.3508  1.1099
66137SOL    HW216022   5.346   8.338  11.440  0.6820 -0.7118  0.0110
66138SOL     OW16023   0.645   0.638   9.837 -0.4432  0.2092  0.3352
66138SOL    HW116024   0.729   0.624   9.792  0.7854 -0.6729  2.7148
66138SOL    HW216025   0.630   0.732   9.831  0.4703  0.3239 -0.5258
66139SOL     OW16026  11.151   6.725   2.055 -0.3961  0.5131 -0.0265
66139SOL    HW116027  11.215   6.789   2.086 -1.8789  1.4163  1.3394
66139SOL    HW216028  11.146   6.660   2.125 -0.5906  0.1759 -0.3480
66140SOL     OW16029   5.343   8.004  12.031 -0.1054  0.1553 -0.2648
66140SOL    HW116030   5.426   8.002  12.078  1.2881  0.2889 -2.5296
66140SOL    HW216031   5.368   8.015  11.939 -2.5554 -1.5290 -1.2595
66141SOL     OW16032  13.682   9.089   4.102 -0.3051  0.3696 -0.0191
66141SOL    HW116033  13.593   9.071   4.132  0.3485 -0.2881  1.6525
66141SOL    HW216034  13.732   9.011   4.126  0.6406  0.5200 -1.3898
66142SOL     OW16035  13.733   9.612  10.101 -0.0828  0.1511  0.0116
66142SOL    HW116036  13.671   9.647  10.165 -0.5171 -0.9051  0.1938
66142SOL    HW216037  13.795   9.561  10.153  0.5785  0.6974 -0.2368
66143SOL     OW16038   8.217  12.188   3.447  0.4007  0.2122  0.1563
66143SOL    HW116039   8.180  12.156   3.530  0.1469 -0.1799 -0.1057
66143SOL    HW216040   8.216  12.283   3.456 -2.8477  0.3633 -0.7446
66144SOL     OW16041   9.697  10.166  13.748 -0.1228 -0.0551 -0.4266
66144SOL    HW116042   9.606  10.148  13.773 -0.0351  1.2167  0.9935
66144SOL    HW216043   9.749  10.112  13.808  0.0889 -1.4351 -1.8031
66145SOL     OW16044  10.297   4.468   3.211  0.0870  0.1429 -0.1366
66145SOL    HW116045  10.271   4.517   3.289 -2.4227 -0.0396 -0.7976
66145SOL    HW216046  10.284   4.529   3.139  0.6909 -0.2619 -0.6005
66146SOL     OW16047  14.039  11.620   9.676 -0.2237  0.0190 -0.2910
66146SOL    HW116048  14.056  11.681   9.604 -2.2674  0.1574 -0.7218
66146SOL    HW216049  14.070  11.536   9.644 -1.8319 -0.0849 -1.7261
66147SOL     OW16050  13.720   9.317   9.152  0.1494  0.1183 -0.1439
66147SOL    HW116051  13.814   9.325   9.133  0.4972 -1.6251  0.6018
66147SOL    HW216052  13.679   9.307   9.067  0.6009  1.1292 -0.4958
66148SOL     OW16053   8.899   2.576  11.741 -0.0523 -0.3331  0.7365
66148SOL    HW116054   8.908   2.658  11.790 -1.9332  0.4817 -0.1826
66148SOL    HW216055   8.811   2.545  11.763 -0.4670 -0.5789 -1.1460
66149SOL     OW16056  13.300   6.899  11.976  0.0701 -0.3583  0.2474
66149SOL    HW116057  13.340   6.813  11.989 -1.5198 -1.5779 -2.3450
66149SOL    HW216058  13.237   6.908  12.048 -1.8125 -2.7069 -0.9952
66150SOL     OW16059   6.369   3.119   4.651 -0.0503 -0.2490  0.0457
66150SOL    HW116060   6.420   3.042   4.677 -0.0942 -0.0574  0.7197
66150SOL    HW216061   6.318   3.141   4.729  1.4991  1.7054  0.6020
66151SOL     OW16062  10.624   4.187   5.393  0.2900 -0.0138  0.1844
66151SOL    HW116063  10.586   4.103   5.365  0.1480 -0.1937  0.8936
66151SOL    HW216064  10.609   4.246   5.319  0.1932 -0.5564 -0.2342
66152SOL     OW16065   1.965   3.072   4.018 -0.3433 -0.5836 -0.2375
66152SOL    HW116066   2.021   3.149   4.027  1.6050 -1.6550 -2.2569
66152SOL    HW216067   2.003   3.007   4.078 -0.7333 -0.6465 -0.0521
66153SOL     OW16068   7.801   6.412   8.935 -0.2367  0.0095  0.5355
66153SOL    HW116069   7.744   6.337   8.951 -1.7511  0.8320 -0.7795
66153SOL    HW216070   7.829   6.402   8.844  2.1750 -0.6314  1.2715
66154SOL     OW16071   9.292  11.755  11.527  0.7100 -0.4114 -0.3820
66154SOL    HW116072   9.304  11.835  11.475 -0.3033 -0.7688 -1.1960
66154SOL    HW216073   9.359  11.695  11.494  1.8654  0.2594  0.6332
66155SOL     OW16074   5.228  12.847   7.405 -0.6639  0.4291  0.0791
66155SOL    HW116075   5.273  12.789   7.467 -1.4674 -1.1903 -0.7794
66155SOL    HW216076   5.276  12.834   7.323 -1.4047  0.2671 -0.3365
66156SOL     OW16077  13.680   1.800  14.004  0.0672 -0.1449  0.0468
66156SOL    HW116078  13.625   1.782  13.927  1.0755 -0.6534 -0.5780
66156SOL    HW216079  13.662   1.891  14.026 -0.1000  0.0589 -0.9080
66157SOL     OW16080   3.970   6.777   8.638 -0.2100 -0.4498 -0.0075
66157SOL    HW116081   3.876   6.794   8.637 -0.5707 -2.3127 -0.3042
66157SOL    HW216082   3.985   6.720   8.562  0.9536 -1.2067  0.7621
66158SOL     OW16083  10.862  13.115  13.616 -0.2919  0.0932  0.8404
66158SOL    HW116084  10.811  13.035  13.611 -0.2576 -0.0820  2.5888
66158SOL    HW216085  10.945  13.089  13.657  0.8092  0.5638 -0.9729
66159SOL     OW16086   3.712   6.916  10.609  0.0651 -0.0043  0.2010
66159SOL    HW116087   3.695   6.954  10.523 -0.6657  1.5842  0.9950
66159SOL    HW216088   3.663   6.833  10.609 -1.7708  1.0217 -0.1694
66160SOL     OW16089  12.061   1.420  10.779 -0.0098  0.1407 -0.2068
66160SOL    HW116090  12.005   1.345  10.799 -0.3124  0.7780  1.5537
66160SOL    HW216091  12.012   1.471  10.715  0.6245 -1.6086 -2.1646
66161SOL     OW16092   7.065   1.577  11.803 -0.2944 -0.1976 -0.4650
66161SOL    HW116093   7.021   1.495  11.780  0.6904 -1.5361  2.0795
66161SOL    HW216094   7.150   1.571  11.760 -0.8856  0.3779 -1.7731
66162SOL     OW16095   2.766   0.756  13.607  0.6144  0.3616 -0.2006
66162SOL    HW116096   2.800   0.738  13.519 -0.1627 -0.5363 -0.3469
66162SOL    HW216097   2.843   0.769  13.661  1.1001  1.2769 -1.0765
66163SOL     OW16098  10.712   4.429   6.928 -0.0978  0.0053 -0.0711
66163SOL    HW116099  10.655   4.458   6.857  0.0384  0.1519 -0.1218
66163SOL    HW216100  10.763   4.357   6.891 -1.1186 -0.9606  0.3438
66164SOL     OW16101  10.899  11.482  12.700 -0.3658  0.5887  0.0828
66164SOL    HW116102  10.806  11.503  12.708 -0.1973  1.2382  0.3501
66164SOL    HW216103  10.914  11.477  12.605 -0.9045 -0.6283  0.0303
66165SOL     OW16104  10.324   3.100  10.993 -0.0673  0.8436  0.0033
66165SOL    HW116105  10.231   3.118  10.980 -0.3046 -0.8553 -0.9963
66165SOL    HW216106  10.364   3.117  10.908 -0.1448 -2.0224 -0.7056
66166SOL     OW16107   2.749   8.174   7.166  0.1895 -0.2450 -0.4026
66166SOL    HW116108   2.711   8.107   7.109  1.7311 -0.7208 -0.9435
66166SOL    HW216109   2.788   8.123   7.238  2.6318 -0.1389 -1.5434
66167SOL     OW16110   7.215   2.989   6.987 -0.4507 -0.3075 -0.5475
66167SOL    HW116111   7.185   2.965   6.899  2.1659  0.4118 -1.7205
66167SOL    HW216112   7.240   3.081   6.980  0.8061 -0.5281  0.6581
66168SOL     OW16113   2.728   6.068   8.740 -0.1427 -0.3850 -0.1448
66168SOL    HW116114   2.806   6.018   8.717  0.0317  0.7164 -2.0931
66168SOL    HW216115   2.762   6.149   8.779 -0.3023  0.0238 -0.8449
66169SOL     OW16116   8.603  12.701   4.503  0.2050  0.6392 -0.9808
66169SOL    HW116117   8.587  12.712   4.597  1.7495  1.8832 -0.8096
66169SOL    HW216118   8.617  12.607   4.492  0.4848  0.5295  0.1341
66170SOL     OW16119   7.055  10.684   5.536 -0.1985 -0.4811 -0.6304
66170SOL    HW116120   6.974  10.734   5.551 -0.0686 -0.2035 -0.8476
66170SOL    HW216121   7.114  10.746   5.494  0.3250 -0.5216  0.0254
66171SOL     OW16122   1.285   3.703   1.903 -0.2020  0.3730  0.4109
66171SOL    HW116123   1.283   3.633   1.839  0.3226  0.2462  0.5266
66171SOL    HW216124   1.368   3.691   1.949  0.5970  1.9300 -0.5380
66172SOL     OW16125  13.612   9.574   8.068 -0.4224  0.0038  0.0954
66172SOL    HW116126  13.560   9.495   8.052 -0.3402 -0.0060 -0.1171
66172SOL    HW216127  13.680   9.573   8.001 -0.3102  0.1605  0.2056
66173SOL     OW16128   2.585   8.664   8.908 -0.2372 -1.0411 -0.5269
66173SOL    HW116129   2.544   8.593   8.859 -1.0149 -0.4598 -0.7307
66173SOL    HW216130   2.668   8.680   8.862 -1.1207 -0.2429 -1.9269
66174SOL     OW16131   8.658   9.545   3.476  0.5988 -0.2309 -0.3589
66174SOL    HW116132   8.635   9.624   3.427 -1.1766 -0.4039  0.1026
66174SOL    HW216133   8.746   9.561   3.510  0.6726  1.1011 -1.1440
66175SOL     OW16134   0.836  12.241   6.193  0.0032 -0.1567 -0.0479
66175SOL    HW116135   0.883  12.318   6.162 -1.0033  0.5166  0.0353
66175SOL    HW216136   0.761  12.233   6.133 -0.0694 -0.8886  0.1310
66176SOL     OW16137   5.158  10.814   0.393  0.4547  0.5364  0.4892
66176SOL    HW116138   5.114  10.729   0.388  1.4695 -0.0197  0.5429
66176SOL    HW216139   5.094  10.877   0.361  0.3733 -0.5200 -1.6174
66177SOL     OW16140  14.069  12.600   3.059  0.0266  1.0897  0.0155
66177SOL    HW116141  14.127  12.675   3.073  0.7444  0.4024  0.9001
66177SOL    HW216142  14.129  12.525   3.056 -0.6035  0.6008 -1.5388
66178SOL     OW16143   1.279   0.335   9.624 -0.2304  0.2708 -0.1960
66178SOL    HW116144   1.297   0.310   9.533  0.6627 -1.0526  0.3023
66178SOL    HW216145   1.365   0.360   9.658 -0.3761 -0.2667  0.5740
66179SOL     OW16146   1.398   8.024   7.450 -0.1293  0.6579  0.4726
66179SOL    HW116147   1.333   8.093   7.459 -1.2133 -0.2740  0.0710
66179SOL    HW216148   1.480   8.063   7.481 -0.9505  1.7448  1.3309
66180SOL     OW16149  11.911   6.738   5.863 -0.4779  0.1726 -0.1508
66180SOL    HW116150  11.935   6.778   5.780 -2.9858  0.8912 -0.6291
66180SOL    HW216151  11.815   6.734   5.861 -0.6651  0.4864  2.8240
66181SOL     OW16152  10.887   8.671   4.622  0.6734 -0.3527  0.4609
66181SOL    HW116153  10.826   8.600   4.643  0.1965  0.1708  0.8741
66181SOL    HW216154  10.855   8.707   4.540  1.3317 -1.0572 -0.1303
66182SOL     OW16155   3.388   7.154  13.846 -0.0020  0.5948 -0.0290
66182SOL    HW116156   3.369   7.069  13.887 -1.4281  1.1771  0.5895
66182SOL    HW216157   3.474   7.177  13.880 -0.3994  0.2460  1.2988
66183SOL     OW16158   4.035  12.626  10.793 -0.1670 -0.1382 -0.2090
66183SOL    HW116159   4.044  12.548  10.847  0.5116 -0.0381 -0.1675
66183SOL    HW216160   3.966  12.605  10.730 -2.4284  0.4539  1.9333
66184SOL     OW16161   1.472  13.349   9.604  0.1865 -0.0202  0.4087
66184SOL    HW116162   1.410  13.307   9.545 -1.6072  0.7083  1.6912
66184SOL    HW216163   1.487  13.284   9.673 -0.1688  0.2831  0.7744
66185SOL     OW16164   2.578  11.689  13.516  0.4089  0.0708  0.1815
66185SOL    HW116165   2.530  11.607  13.524 -0.1964  0.4996  1.1624
66185SOL    HW216166   2.533  11.736  13.446  0.6703 -0.3797 -0.2865
66186SOL     OW16167   7.329   6.824   8.472 -0.4573  0.2864  0.0360
66186SOL    HW116168   7.411   6.787   8.504 -0.1229  0.2744 -0.7946
66186SOL    HW216169   7.299   6.761   8.406 -0.5848  0.8090 -0.4114
66187SOL     OW16170   5.344   7.716   6.259 -0.1563  0.3331  0.1429
66187SOL    HW116171   5.275   7.670   6.211 -0.0778 -0.3240  0.6544
66187SOL    HW216172   5.311   7.806   6.268 -0.4345  0.3106 -0.6139
66188SOL     OW16173   0.256   3.843   7.472 -0.3238  0.2124  0.1198
66188SOL    HW116174   0.227   3.762   7.515  1.0003 -0.4889 -0.2421
66188SOL    HW216175   0.178   3.877   7.429 -1.2058 -0.1589  1.3808
66189SOL     OW16176   6.765  11.477  12.799  0.2431  0.0123  0.0056
66189SOL    HW116177   6.738  11.521  12.879 -0.2446  1.1449 -0.7599
66189SOL    HW216178   6.752  11.384  12.817  0.6446  0.2001  1.4116
66190SOL     OW16179   6.845   7.735   1.698  0.0887 -0.1699 -0.6527
66190SOL    HW116180   6.797   7.807   1.656  1.9427  1.4153 -0.1761
66190SOL    HW216181   6.776   7.681   1.736 -1.4716  0.3427 -2.5271
66191SOL     OW16182   7.027  11.587   0.982  0.1118  0.2375  0.1161
66191SOL    HW116183   6.965  11.534   0.931  0.3006  0.7983 -0.7086
66191SOL    HW216184   6.972  11.636   1.043  0.0452 -2.2545  2.2309
66192SOL     OW16185  13.395   1.620   5.114 -0.2457 -0.3702 -0.0714
66192SOL    HW116186  13.408   1.529   5.140  2.5411 -0.0388  0.0615
66192SOL    HW216187  13.484   1.656   5.108 -1.2496  2.8497  1.7361
66193SOL     OW16188   2.788   5.376   6.604  0.5116  0.2010 -0.2642
66193SOL    HW116189   2.879   5.399   6.586  0.1369  3.0681  0.9806
66193SOL    HW216190   2.789   5.344   6.695  0.1209  1.8840  0.3776
66194SOL     OW16191  10.760   2.944   8.900 -0.0056 -0.3524  0.0875
66194SOL    HW116192  10.838   2.889   8.901  0.4428  0.2760  0.8422
66194SOL    HW216193  10.687   2.883   8.903  0.3736 -1.0388 -2.2882
66195SOL     OW16194   0.746  11.804  12.737  0.2397  0.2021 -0.4618
66195SOL    HW116195   0.691  11.800  12.659  1.1838  1.5818 -1.2239
66195SOL    HW216196   0.723  11.725  12.786 -2.2650  0.6125 -0.8401
66196SOL     OW16197   5.898   2.464   5.518  0.0106 -0.1706  0.4098
66196SOL    HW116198   5.904   2.494   5.427 -1.6320  0.6125  0.5271
66196SOL    HW216199   5.966   2.514   5.563 -1.0518  1.6209  0.1182
66197SOL     OW16200  12.436  10.480   7.961 -0.1140  0.2056  0.1911
66197SOL    HW116201  12.380  10.555   7.978 -1.5325 -1.0861  1.4657
66197SOL    HW216202  12.378  10.413   7.927  1.3284  0.0062 -2.1308
66198SOL     OW16203   2.528   6.204   7.782  0.2185 -0.0384 -0.0375
66198SOL    HW116204   2.603   6.251   7.816 -0.5851  0.2626  1.4152
66198SOL    HW216205   2.562   6.118   7.758  0.9461 -0.0372  0.9682
66199SOL     OW16206  10.615   9.915   1.909  0.1114 -0.4679  0.3515
66199SOL    HW116207  10.562   9.953   1.838  1.4513  0.5653 -0.1428
66199SOL    HW216208  10.554   9.860   1.958 -1.0593 -0.5006 -1.0794
66200SOL     OW16209   4.602  13.389   0.040 -0.2379  0.3908  0.1274
66200SOL    HW116210   4.514  13.391   0.078 -0.5405  1.5495 -0.5981
66200SOL    HW216211   4.587  13.396  -0.055  0.5526 -1.3256 -0.1596
66201SOL     OW16212   8.304   6.951   0.605 -0.3179 -0.2871 -0.5912
66201SOL    HW116213   8.289   6.964   0.699  1.7329 -0.2231 -0.2352
66201SOL    HW216214   8.267   7.029   0.564  1.1974  1.0404  0.4392
66202SOL     OW16215   9.679   1.389  13.174 -0.8788  0.8171  0.1729
66202SOL    HW116216   9.593   1.430  13.168 -1.2580 -0.0354 -0.7791
66202SOL    HW216217   9.670   1.309  13.122  0.5571  0.8274 -0.1382
66203SOL     OW16218  13.411   5.189   3.008  0.7803  0.3422 -0.1344
66203SOL    HW116219  13.406   5.106   3.056  1.2249  0.7300  0.6120
66203SOL    HW216220  13.504   5.197   2.985  1.1291  1.5382  1.5030
66204SOL     OW16221   1.013  11.473   3.006  0.0194 -0.3064  0.0406
66204SOL    HW116222   1.104  11.458   3.033  0.7842  2.2830 -0.7882
66204SOL    HW216223   0.967  11.492   3.088  0.2396 -1.3737  0.4357
66205SOL     OW16224   6.887  10.982  10.986  0.0328  0.4702  0.7328
66205SOL    HW116225   6.950  11.037  11.034  0.5462 -0.2155  0.8551
66205SOL    HW216226   6.803  11.001  11.028 -0.3888  3.4612 -1.1543
66206SOL     OW16227   5.860   4.617   3.857 -0.1776  0.3719 -0.0920
66206SOL    HW116228   5.822   4.695   3.898 -1.1687 -0.1598  0.0230
66206SOL    HW216229   5.909   4.650   3.782  0.2747  1.1999  0.5492
66207SOL     OW16230   8.006   6.761  11.115  0.1763 -0.0331  0.2230
66207SOL    HW116231   7.980   6.850  11.139  0.8727  0.6179 -1.3546
66207SOL    HW216232   7.954   6.741  11.037  1.3520 -0.3067 -0.5031
66208SOL     OW16233   3.422   7.542   1.229 -0.7272 -0.5271  0.2900
66208SOL    HW116234   3.436   7.499   1.313 -0.3581 -0.6353  0.1750
66208SOL    HW216235   3.372   7.479   1.177 -0.3005 -0.7686  0.1673
66209SOL     OW16236   2.046   9.520  12.411  0.0166 -0.2076 -0.4210
66209SOL    HW116237   2.082   9.507  12.498  0.7261  0.8931 -0.5211
66209SOL    HW216238   2.091   9.599  12.379  1.8827 -2.0892 -2.8678
66210SOL     OW16239   5.887   5.377   0.079 -0.1763 -0.3600  0.1348
66210SOL    HW116240   5.929   5.397   0.162  1.1887 -0.8423 -0.4103
66210SOL    HW216241   5.862   5.462   0.043  2.1839  0.1582 -0.4371
66211SOL     OW16242  11.198   3.257   3.762 -0.1774 -0.0099 -0.5489
66211SOL    HW116243  11.102   3.262   3.765 -0.1419  0.7869 -0.4957
66211SOL    HW216244  11.219   3.173   3.801 -0.8100  0.2688  0.4233
66212SOL     OW16245   5.255   4.781  11.352 -0.2002  0.1051  0.0013
66212SOL    HW116246   5.240   4.710  11.414  0.7794  0.9807  1.2974
66212SOL    HW216247   5.278   4.737  11.270  1.1710 -1.0963  0.9838
66213SOL     OW16248   3.012   7.282  10.674  0.1102 -0.1706 -0.6639
66213SOL    HW116249   3.075   7.325  10.616  1.5476 -3.0929 -1.4701
66213SOL    HW216250   3.066   7.228  10.731 -1.5764 -1.8248 -0.5464
66214SOL     OW16251   8.400   8.971  13.906  0.3236  0.0229  0.1467
66214SOL    HW116252   8.334   9.025  13.950 -1.8128  0.7789 -3.5982
66214SOL    HW216253   8.349   8.907  13.856  2.5495 -0.9500 -1.0061
66215SOL     OW16254   9.460   3.273   5.784  0.2390 -0.0183 -0.2075
66215SOL    HW116255   9.491   3.247   5.871  0.8445  0.9825 -0.1004
66215SOL    HW216256   9.489   3.203   5.726  3.3651  1.1116 -0.2171
66216SOL     OW16257   5.217  12.137  10.506 -0.2482  0.2369  0.4638
66216SOL    HW116258   5.295  12.150  10.452 -0.2789  0.3411  0.4436
66216SOL    HW216259   5.190  12.225  10.532 -1.4774  0.3716 -1.1058
66217SOL     OW16260  11.235  10.837  13.259 -0.3038 -0.0918  0.0876
66217SOL    HW116261  11.282  10.916  13.231  1.5810 -0.6377  1.5081
66217SOL    HW216262  11.179  10.867  13.331 -1.2598  0.3292 -0.8090
66218SOL     OW16263   0.623   5.336  13.357 -0.0870 -0.2919  0.5445
66218SOL    HW116264   0.627   5.428  13.382 -0.2343 -0.3069  0.6278
66218SOL    HW216265   0.649   5.289  13.437 -0.6407 -0.3442  0.6990
66219SOL     OW16266   3.143   1.811  10.352  0.2200  0.2675  0.2577
66219SOL    HW116267   3.210   1.751  10.318 -0.3934  1.2247 -2.8985
66219SOL    HW216268   3.063   1.760  10.353  0.5258 -0.2623  2.0847
66220SOL     OW16269  12.276  13.578   9.719 -0.2380  0.4716 -0.6588
66220SOL    HW116270  12.296  13.514   9.787 -1.1912  2.5816  1.7802
66220SOL    HW216271  12.199  13.543   9.675  0.2282 -0.8038 -0.5152
66221SOL     OW16272   5.306   3.993   0.748 -0.3742 -0.1786 -0.2579
66221SOL    HW116273   5.339   4.070   0.795 -1.1024  0.8458 -1.3613
66221SOL    HW216274   5.371   3.925   0.765  0.4593  0.7733  0.4867
66222SOL     OW16275   9.226   9.849   5.659 -0.0729 -0.0700 -0.4874
66222SOL    HW116276   9.239   9.860   5.753  0.2024 -0.2201 -0.5081
66222SOL    HW216277   9.314   9.854   5.622 -0.3284  1.8750 -0.9424
66223SOL     OW16278  12.091   7.818   6.639 -0.2955  0.6813 -0.8267
66223SOL    HW116279  12.053   7.730   6.647 -0.2452  0.7347  0.1259
66223SOL    HW216280  12.017   7.876   6.627 -0.3354  0.5212 -1.3748
66224SOL     OW16281   3.947   2.681   7.700  0.9578 -0.8785  0.0052
66224SOL    HW116282   4.030   2.715   7.735  1.8998 -0.7610 -2.1619
66224SOL    HW216283   3.932   2.733   7.621 -2.5367  0.8197  1.6121
66225SOL     OW16284  10.210   6.119  11.706 -0.0444 -0.2304 -0.3215
66225SOL    HW116285  10.210   6.028  11.734  0.6468 -0.6087 -1.4961
66225SOL    HW216286  10.261   6.165  11.773  0.2371 -0.8235 -0.1264
66226SOL     OW16287   0.866  12.339  13.370  0.2779  0.2548 -0.3701
66226SOL    HW116288   0.844  12.253  13.407 -1.6386  0.2938 -1.2941
66226SOL    HW216289   0.952  12.327  13.330 -0.2607 -1.4527 -1.0912
66227SOL     OW16290   0.170   4.856   9.139 -0.1189 -0.4901  0.6068
66227SOL    HW116291   0.243   4.807   9.177  0.3303 -0.6254 -0.4107
66227SOL    HW216292   0.114   4.790   9.100 -0.2518 -0.3032  0.4777
66228SOL     OW16293   2.578   6.790  10.991 -0.7664 -0.5240 -0.0166
66228SOL    HW116294   2.660   6.763  11.031  0.4508  3.1571  0.3196
66228SOL    HW216295   2.510   6.745  11.042  0.9642 -2.0343  1.0481
66229SOL     OW16296   4.543   4.189  12.845  0.1367  0.0980  0.2189
66229SOL    HW116297   4.631   4.153  12.858  0.9785  2.2002  0.6184
66229SOL    HW216298   4.515   4.218  12.931 -0.2416  0.9802 -0.1854
66230SOL     OW16299   3.598   6.957   8.439  0.1311 -0.0601  0.0225
66230SOL    HW116300   3.556   6.871   8.447 -0.9876  0.4309 -0.3915
66230SOL    HW216301   3.654   6.950   8.362  1.0900 -0.8241  0.7619
66231SOL     OW16302  12.126  13.573   1.292  0.2825  0.2580 -0.0315
66231SOL    HW116303  12.220  13.559   1.278  0.0660 -1.0328 -0.2845
66231SOL    HW216304  12.091  13.584   1.204 -0.0615 -1.0386 -0.0670
66232SOL     OW16305   9.724  12.333  10.541  0.4527  0.6667 -0.0899
66232SOL    HW116306   9.745  12.412  10.491  1.7334  0.6546  0.3930
66232SOL    HW216307   9.809  12.300  10.570  0.0056 -1.2717 -0.8430
66233SOL     OW16308   3.548  11.772   2.288  0.5958 -0.3272  0.3652
66233SOL    HW116309   3.460  11.797   2.315  0.6431  0.1366  0.1053
66233SOL    HW216310   3.583  11.850   2.245  0.5244 -1.0167 -1.0162
66234SOL     OW16311   9.143   4.684   6.164  0.6606 -0.2389  0.3394
66234SOL    HW116312   9.139   4.679   6.259 -0.4953  0.4887  0.3543
66234SOL    HW216313   9.222   4.635   6.140  0.1173 -1.7975  1.5661
66235SOL     OW16314  12.389  11.190   5.393 -0.4357  0.3347  0.0550
66235SOL    HW116315  12.436  11.106   5.400 -0.6120  0.0337 -1.8860
66235SOL    HW216316  12.454  11.255   5.419 -0.3346 -0.3864  1.7333
66236SOL     OW16317  13.183   1.021   0.920 -0.2459  0.1081  0.0738
66236SOL    HW116318  13.151   1.111   0.928 -1.3568 -0.1212 -1.2327
66236SOL    HW216319  13.172   0.983   1.007 -1.9949  0.5729  0.0914
66237SOL     OW16320   1.299   7.947  11.318 -0.0416 -0.3287  0.4068
66237SOL    HW116321   1.328   7.966  11.407  0.0797 -1.3856  0.6075
66237SOL    HW216322   1.330   8.020  11.266 -1.5674  1.1747  1.5121
66238SOL     OW16323   3.847   5.530  13.769  0.0942 -0.8028 -0.2282
66238SOL    HW116324   3.890   5.501  13.850 -1.3131 -1.1919  0.4141
66238SOL    HW216325   3.765   5.570  13.798 -1.0402 -2.0616 -1.5027
66239SOL     OW16326   1.955  10.600   9.221  0.2688 -0.5353 -0.3158
66239SOL    HW116327   2.007  10.611   9.141 -0.5137  0.2555 -0.7426
66239SOL    HW216328   1.959  10.506   9.240  0.8632 -0.6592 -1.0060
66240SOL     OW16329   6.586  13.263  10.693 -0.6346  0.1550 -0.9018
66240SOL    HW116330   6.680  13.244  10.699 -0.8675 -1.7589 -2.2809
66240SOL    HW216331   6.564  13.303  10.777  1.4330  0.7408 -0.6062
66241SOL     OW16332   9.025   4.675   8.010  0.1699  0.1646 -0.0823
66241SOL    HW116333   8.974   4.756   8.008  0.2640  0.2175 -0.5709
66241SOL    HW216334   9.102   4.694   7.957 -0.1928 -0.4917 -0.8676
66242SOL     OW16335   2.506  13.487   7.811  0.2579 -0.4485  0.1433
66242SOL    HW116336   2.509  13.487   7.715 -0.5550  0.1424  0.1109
66242SOL    HW216337   2.432  13.431   7.833  0.9446 -1.2639  0.4686
66243SOL     OW16338   4.564   1.860  12.562  0.1757  0.6996 -0.2490
66243SOL    HW116339   4.628   1.802  12.603  0.4460  0.7126 -0.6372
66243SOL    HW216340   4.532   1.916  12.632 -0.1484  0.0280  0.1498
66244SOL     OW16341   6.645   0.643   2.887 -0.1838 -0.1609  0.4103
66244SOL    HW116342   6.732   0.653   2.848 -1.0334 -0.4281 -1.6773
66244SOL    HW216343   6.596   0.720   2.859 -0.8492 -0.3643  0.9671
66245SOL     OW16344   2.591   4.771  11.006 -0.1238  0.0021 -0.2455
66245SOL    HW116345   2.515   4.725  10.969  0.3248 -0.1563 -1.0114
66245SOL    HW216346   2.632   4.706  11.063 -0.9807  0.3371  0.7930
66246SOL     OW16347   9.053   6.060   3.163  0.3187 -0.0681 -0.4562
66246SOL    HW116348   9.042   6.032   3.073  2.4352 -1.1724 -0.4452
66246SOL    HW216349   8.999   6.000   3.214  0.3769 -0.4997 -0.8905
66247SOL     OW16350  12.917   0.769   5.893 -0.7283  0.0162  0.2672
66247SOL    HW116351  13.012   0.774   5.896 -0.7637  0.6408  0.5012
66247SOL    HW216352  12.891   0.826   5.821 -0.9735  0.5871  0.8022
66248SOL     OW16353   4.180   6.992   2.040 -0.3137 -0.5300  0.2560
66248SOL    HW116354   4.091   6.960   2.055 -0.0816 -1.7028 -0.7042
66248SOL    HW216355   4.184   7.007   1.946  0.9155 -1.8628  0.0649
66249SOL     OW16356  10.322  13.832   0.478 -0.5165 -0.4521 -0.2932
66249SOL    HW116357  10.390  13.764   0.486  0.5664  0.7924  2.8521
66249SOL    HW216358  10.340  13.873   0.394  2.5006 -0.4270  0.2373
66250SOL     OW16359   1.225   3.691   6.399 -0.0392  0.5239  0.3819
66250SOL    HW116360   1.309   3.702   6.354  0.4782 -2.5558  0.4355
66250SOL    HW216361   1.244   3.713   6.490  0.7146 -0.1267  0.3903
66251SOL     OW16362   6.220   2.216   8.808 -0.1597 -0.0481  0.3092
66251SOL    HW116363   6.273   2.244   8.733  0.2755 -2.9763 -0.6180
66251SOL    HW216364   6.130   2.216   8.775 -0.3442  1.4460  0.7484
66252SOL     OW16365   4.451  10.805   0.833 -0.6703 -0.2011 -0.1778
66252SOL    HW116366   4.492  10.786   0.918 -1.6242 -0.8519  0.1636
66252SOL    HW216367   4.471  10.728   0.780  2.2458  1.3362 -1.5128
66253SOL     OW16368   7.050   0.207   9.744 -0.0842  0.1627 -0.2982
66253SOL    HW116369   7.021   0.128   9.790  2.1092 -1.0942 -0.9312
66253SOL    HW216370   7.001   0.207   9.662  1.4618 -1.8620 -1.3126
66254SOL     OW16371  13.743   9.066   2.166 -0.5601  0.6418 -0.1539
66254SOL    HW116372  13.685   9.121   2.219  0.0531  1.7238 -0.5645
66254SOL    HW216373  13.711   9.078   2.076  0.3675  1.3819 -0.4046
66255SOL     OW16374   2.706   8.945   8.345 -0.1279  0.0283  0.5266
66255SOL    HW116375   2.692   9.033   8.381  2.1437  1.0316 -0.8652
66255SOL    HW216376   2.729   8.891   8.421  0.0710  1.0163  1.1771
66256SOL     OW16377   9.322  11.938   8.328 -0.0503 -0.0980 -0.1514
66256SOL    HW116378   9.402  11.908   8.370 -0.0654 -1.9686 -1.3869
66256SOL    HW216379   9.255  11.875   8.355 -0.5961  0.0990 -0.9933
66257SOL     OW16380  11.957   8.247   1.046  0.2541 -0.4118 -0.7322
66257SOL    HW116381  12.002   8.321   1.006 -0.5213  0.6337  0.2466
66257SOL    HW216382  11.993   8.170   1.003  2.1381  0.4433 -0.7559
66258SOL     OW16383   3.976   7.118   3.069 -0.1808  0.2287 -0.6988
66258SOL    HW116384   3.891   7.130   3.111 -1.1905 -0.3531 -2.4633
66258SOL    HW216385   4.026   7.196   3.093 -0.7809  0.0630  1.2911
66259SOL     OW16386  10.473  12.872   4.071  0.0854  0.0883 -0.0863
66259SOL    HW116387  10.567  12.889   4.071  0.0373  0.4055 -1.0629
66259SOL    HW216388  10.456  12.834   4.157  1.1676 -0.3251 -0.0385
66260SOL     OW16389   2.573   3.430   6.863 -0.1277 -0.4725  0.7032
66260SOL    HW116390   2.631   3.506   6.861  0.6095 -0.9652  2.2528
66260SOL    HW216391   2.490   3.463   6.829  0.3104  0.9159  0.9191
66261SOL     OW16392  10.822  12.383   4.487  0.4218  0.1939  0.1386
66261SOL    HW116393  10.855  12.325   4.419  0.5161  0.0554  0.3004
66261SOL    HW216394  10.900  12.418   4.529  0.3682  0.8623 -0.3144
66262SOL     OW16395  10.832  10.385   0.681  0.1885  0.2843 -0.0846
66262SOL    HW116396  10.908  10.372   0.738  0.7364  3.2091  0.0001
66262SOL    HW216397  10.770  10.434   0.735 -0.0179  1.5501 -1.4312
66263SOL     OW16398   2.513   0.760  10.866  0.7580 -0.2951  0.1007
66263SOL    HW116399   2.603   0.776  10.838  0.9594  0.4705  1.1220
66263SOL    HW216400   2.517   0.762  10.962 -0.0834 -1.7764  0.1990
66264SOL     OW16401   4.058  12.245  12.421 -0.1054 -0.2936  0.3722
66264SOL    HW116402   4.075  12.192  12.343 -0.8293 -0.6385  0.4471
66264SOL    HW216403   4.124  12.217  12.484 -1.5710 -2.4357  1.0652
66265SOL     OW16404   4.768   9.306   1.690  0.1691  0.0414 -0.1100
66265SOL    HW116405   4.814   9.224   1.707  0.0156 -0.1928 -0.8075
66265SOL    HW216406   4.776   9.319   1.596 -1.0341  0.0862 -0.2141
66266SOL     OW16407  11.707   5.450  11.336 -0.0693  0.0142 -0.1627
66266SOL    HW116408  11.688   5.528  11.387 -0.9065 -2.3733  3.5941
66266SOL    HW216409  11.743   5.388  11.399 -2.0380 -3.5727 -2.2231
66267SOL     OW16410   9.066   4.019   9.067 -0.0548 -0.0680  0.1236
66267SOL    HW116411   9.139   3.989   9.013  0.6155  1.3824  0.1863
66267SOL    HW216412   9.012   4.071   9.008 -0.5547 -0.3686  0.3089
66268SOL     OW16413  12.548   3.452  13.707  0.1438  0.2947  0.2662
66268SOL    HW116414  12.539   3.373  13.759 -2.0211  1.8039  2.3576
66268SOL    HW216415  12.579   3.421  13.621 -1.2807 -2.8649  0.7648
66269SOL     OW16416   1.408   9.050   9.656  0.1497 -0.6435  0.4678
66269SOL    HW116417   1.336   9.100   9.696  0.4428 -1.1904  1.7335
66269SOL    HW216418   1.473   9.042   9.726  0.5560 -1.9084 -0.0302
66270SOL     OW16419   9.764  12.038   9.237 -0.1467  0.0429  0.6865
66270SOL    HW116420   9.780  11.950   9.271  0.1287 -0.0725  0.2689
66270SOL    HW216421   9.842  12.057   9.185  0.1914  0.8842  1.4807
66271SOL     OW16422  11.840   5.599  10.397  0.1089  0.1104  0.2988
66271SOL    HW116423  11.897   5.669  10.427  0.1921  0.7102 -1.1764
66271SOL    HW216424  11.889   5.555  10.328 -0.9650  0.2662 -0.5984
66272SOL     OW16425  12.345   7.785   6.521 -0.2392  0.0417 -0.4232
66272SOL    HW116426  12.395   7.710   6.555 -1.6266 -2.0375 -2.6825
66272SOL    HW216427  12.283   7.805   6.591 -0.6517 -1.7529 -0.2168
66273SOL     OW16428   3.109   9.070   4.219  0.2471  0.3596 -0.3509
66273SOL    HW116429   3.193   9.053   4.177 -0.2747 -2.3906 -0.4202
66273SOL    HW216430   3.046   9.074   4.147 -0.1203 -0.7875 -0.1107
66274SOL     OW16431   8.537  13.078  10.664  0.3574  0.3116 -0.1476
66274SOL    HW116432   8.537  13.168  10.631 -1.5192  0.3729 -0.0917
66274SOL    HW216433   8.486  13.082  10.745 -1.8461 -1.1514 -1.3472
66275SOL     OW16434   5.133  11.690   0.915  0.2370  0.4564 -0.4182
66275SOL    HW116435   5.062  11.637   0.880  0.9695 -0.1559 -1.0183
66275SOL    HW216436   5.194  11.627   0.952 -0.6568  1.0887  2.3357
66276SOL     OW16437   5.052  10.228   0.696  0.3968  0.0396 -0.1133
66276SOL    HW116438   4.980  10.166   0.704 -1.4603  2.1925  1.2250
66276SOL    HW216439   5.116  10.201   0.762  0.2174 -1.1302 -0.4039
66277SOL     OW16440   9.643   1.728  13.200  0.3908  0.3748 -0.3452
66277SOL    HW116441   9.656   1.741  13.294 -0.9496  0.7848 -0.1922
66277SOL    HW216442   9.620   1.815  13.167  0.9727  0.2595 -1.0867
66278SOL     OW16443   5.449   6.421   4.630  0.2279 -0.1426  0.1146
66278SOL    HW116444   5.489   6.334   4.622 -0.7125 -0.6173  0.5600
66278SOL    HW216445   5.393   6.429   4.553  1.8526  0.9181 -1.0440
66279SOL     OW16446   2.978   6.007  11.205 -0.0345  0.5820 -0.5304
66279SOL    HW116447   2.912   6.073  11.182  1.3972  1.7420 -1.4681
66279SOL    HW216448   3.023   6.044  11.280 -0.3570 -0.1540  0.0327
66280SOL     OW16449   8.685   8.631   9.046  0.4352 -0.5210 -0.4060
66280SOL    HW116450   8.657   8.540   9.032 -0.6454 -0.3573  0.5666
66280SOL    HW216451   8.662   8.676   8.964  0.5221 -1.0154 -0.7046
66281SOL     OW16452   2.925   2.850   7.662  0.0557 -0.0758  0.0856
66281SOL    HW116453   2.867   2.784   7.701 -0.4091 -0.0720 -0.5822
66281SOL    HW216454   2.929   2.920   7.728 -0.9184  0.0389  0.0370
66282SOL     OW16455   3.965  10.141   0.818  0.4155  0.0312 -0.2158
66282SOL    HW116456   3.969  10.236   0.824  0.9394  0.0977 -1.3314
66282SOL    HW216457   4.023  10.110   0.888  0.3028  0.5197  0.1034
66283SOL     OW16458  10.155   0.738   5.014 -0.3593 -0.0725  0.0759
66283SOL    HW116459  10.201   0.674   4.960 -0.7341  1.0289 -1.6304
66283SOL    HW216460  10.223   0.778   5.068 -0.0857 -1.6920  0.9753
66284SOL     OW16461   0.556   1.882   0.893 -0.5490  0.1485 -0.4871
66284SOL    HW116462   0.519   1.839   0.816 -0.8269  1.2055 -0.9565
66284SOL    HW216463   0.649   1.889   0.873 -0.6991  0.8680 -0.9477
66285SOL     OW16464   0.124   5.506   7.456  0.2471 -0.4368 -0.3540
66285SOL    HW116465   0.093   5.572   7.394 -0.3136 -0.7759 -0.4432
66285SOL    HW216466   0.129   5.553   7.539  2.0107  0.2962 -0.8335
66286SOL     OW16467  12.934   8.683  13.015  0.2796 -0.1532 -0.0873
66286SOL    HW116468  12.915   8.622  13.086  0.0829 -1.3630 -1.1536
66286SOL    HW216469  12.874   8.756  13.031  0.1550 -0.4576  0.9189
66287SOL     OW16470  11.061  10.314  10.758 -0.0131  0.3851  0.3730
66287SOL    HW116471  11.116  10.392  10.755 -1.9593  1.8397  0.0818
66287SOL    HW216472  11.054  10.287  10.667  0.0965  0.2903  0.3926
66288SOL     OW16473  12.261  10.070  10.775  0.6714 -0.2392 -0.0596
66288SOL    HW116474  12.235  10.034  10.691 -0.7244 -1.0465  0.6819
66288SOL    HW216475  12.332  10.014  10.804  0.7041 -0.3719 -0.3938
66289SOL     OW16476   0.570  12.086   2.042  0.4479 -0.6325 -0.0336
66289SOL    HW116477   0.640  12.067   1.980  1.9891 -0.2676  1.5031
66289SOL    HW216478   0.569  12.009   2.100 -0.2386 -0.5086  0.1201
66290SOL     OW16479   9.916   2.972  10.586  0.0031  0.4397 -0.0666
66290SOL    HW116480   9.964   2.950  10.506  2.5995  0.7439  1.2940
66290SOL    HW216481   9.869   3.052  10.565  1.8684  1.3727 -0.8990
66291SOL     OW16482   2.774   2.588   8.492  0.0451 -0.5693 -0.1183
66291SOL    HW116483   2.687   2.581   8.454  0.1936 -0.2883 -0.5124
66291SOL    HW216484   2.816   2.659   8.444  1.1722 -1.9629 -1.2810
66292SOL     OW16485  14.072   0.645  13.500 -0.5792  0.0094  0.6534
66292SOL    HW116486  14.017   0.698  13.443 -1.9628  0.7445  2.5400
66292SOL    HW216487  14.030   0.559  13.501  0.1524 -0.3827 -0.3377
66293SOL     OW16488   8.036   7.557   0.036  0.5292  0.0382 -0.4022
66293SOL    HW116489   7.962   7.522   0.086 -0.2143 -0.3101 -1.7024
66293SOL    HW216490   7.999   7.581  -0.049  2.1424 -1.5354 -1.6546
66294SOL     OW16491   2.086  12.220   2.218 -0.3311 -0.0801 -0.0772
66294SOL    HW116492   2.057  12.301   2.176  1.7265  0.7797  0.0595
66294SOL    HW216493   2.129  12.170   2.149 -0.6616 -0.5804  0.0735
66295SOL     OW16494  10.732  13.146  11.272  0.9917  0.0978  0.7396
66295SOL    HW116495  10.777  13.083  11.328 -1.4946 -2.5315 -0.0274
66295SOL    HW216496  10.720  13.101  11.189 -0.4028  1.7954 -0.0526
66296SOL     OW16497   7.200  11.499  12.872  0.3113 -0.2614 -0.2775
66296SOL    HW116498   7.242  11.446  12.804  1.1501 -0.6165  0.4836
66296SOL    HW216499   7.236  11.587  12.860 -0.4652 -0.0423 -1.0400
66297SOL     OW16500   3.279   8.647   4.247  0.1356 -0.3283 -0.1361
66297SOL    HW116501   3.208   8.666   4.309 -0.9629 -0.8551 -1.1780
66297SOL    HW216502   3.356   8.631   4.302 -0.2432  1.4326  0.9803
66298SOL     OW16503  13.658   5.654   7.984 -0.5627 -0.1062 -0.0441
66298SOL    HW116504  13.635   5.564   7.961  1.6091 -0.9365  0.7826
66298SOL    HW216505  13.582   5.705   7.957 -1.1450 -1.9213 -2.1947
66299SOL     OW16506   1.370  10.988   7.788  0.1077  0.1369 -0.4456
66299SOL    HW116507   1.313  11.015   7.860  1.5165  0.2602  0.6748
66299SOL    HW216508   1.324  10.915   7.747  0.0441 -1.1400  1.7315
66300SOL     OW16509   5.560   3.743   3.522  0.2872 -0.1090  0.0412
66300SOL    HW116510   5.472   3.705   3.522  0.4129 -0.5342 -1.9186
66300SOL    HW216511   5.550   3.827   3.477  0.9620 -0.4561 -0.7947
66301SOL     OW16512   8.257  10.299   0.478  0.0438 -0.6931  0.7518
66301SOL    HW116513   8.213  10.361   0.420  2.1468  0.4369  0.2780
66301SOL    HW216514   8.190  10.274   0.541 -1.1420  1.3222  0.3730
66302SOL     OW16515  10.722  12.908  13.083  0.6837 -0.3107 -0.1069
66302SOL    HW116516  10.763  12.856  13.015  2.7350  1.2124 -0.1389
66302SOL    HW216517  10.761  12.877  13.165  1.1000  0.4047 -0.0242
66303SOL     OW16518   4.226   9.782  11.712  0.5236 -0.0113  0.3745
66303SOL    HW116519   4.201   9.701  11.756 -0.3105 -0.5155 -0.9454
66303SOL    HW216520   4.143   9.817  11.678  1.3055 -0.9262 -2.8373
66304SOL     OW16521   9.716   3.049   7.425 -0.0558  0.1072 -0.4458
66304SOL    HW116522   9.728   3.037   7.331 -0.9183 -0.2677 -0.5170
66304SOL    HW216523   9.739   2.964   7.463 -0.6442 -0.0359 -0.4095
66305SOL     OW16524   5.261   6.313   2.778  0.0511 -0.1828  0.0319
66305SOL    HW116525   5.200   6.246   2.807 -1.4590  1.0652 -0.0941
66305SOL    HW216526   5.207   6.373   2.726  1.8329 -0.1546 -1.9178
66306SOL     OW16527   1.853   6.487  13.998 -0.0355 -0.0715  0.4009
66306SOL    HW116528   1.794   6.546  13.951 -0.1419 -0.3178  0.2184
66306SOL    HW216529   1.854   6.519  14.088 -0.9630 -0.4430  0.5560
66307SOL     OW16530   2.384   2.085   1.215 -0.0897 -0.3525  1.0475
66307SOL    HW116531   2.398   2.168   1.261  2.2434  0.6677 -1.2056
66307SOL    HW216532   2.335   2.109   1.137 -0.4080 -1.3028  0.9449
66308SOL     OW16533  10.271   1.045   6.839  0.1327  0.2161 -0.0308
66308SOL    HW116534  10.367   1.044   6.846  0.1573 -0.8526 -0.2584
66308SOL    HW216535  10.250   1.129   6.799  0.7943  1.5036  2.1435
66309SOL     OW16536   5.800   6.657   0.663 -0.2916 -0.0957  0.0470
66309SOL    HW116537   5.781   6.680   0.572  0.4049  0.6118  0.0695
66309SOL    HW216538   5.715   6.650   0.705 -0.5833  1.5502 -0.1993
66310SOL     OW16539   3.616  11.098   6.002  0.6927  0.3340 -0.0236
66310SOL    HW116540   3.532  11.053   6.005  1.0489 -0.5038 -1.3912
66310SOL    HW216541   3.681  11.029   6.019  1.0995  1.1705  2.1734
66311SOL     OW16542   9.514   0.340   2.051 -0.8414  0.7857  0.1658
66311SOL    HW116543   9.578   0.411   2.051 -1.5893  1.5208 -1.8880
66311SOL    HW216544   9.458   0.358   2.127  0.7862  0.6283  1.4530
66312SOL     OW16545   7.414   2.272   2.323  0.7379  0.0295  0.3210
66312SOL    HW116546   7.479   2.244   2.387 -0.6020 -0.4208  1.5577
66312SOL    HW216547   7.348   2.203   2.324  0.7475 -0.0729 -1.7051
66313SOL     OW16548  10.793   2.631   2.178  0.1479  0.0334 -0.0039
66313SOL    HW116549  10.735   2.555   2.166 -1.0417  0.6671  1.4327
66313SOL    HW216550  10.780   2.657   2.269  3.2856 -0.2396  0.6522
66314SOL     OW16551   0.924  11.824   1.832 -0.1648 -0.2374  0.3582
66314SOL    HW116552   0.990  11.754   1.826 -1.8385 -1.7767 -2.0235
66314SOL    HW216553   0.937  11.875   1.751 -0.8478  0.4611  0.6800
66315SOL     OW16554   5.590   4.472   2.208  0.4702 -0.3488 -0.0207
66315SOL    HW116555   5.548   4.387   2.196 -0.1708 -0.1556  0.7930
66315SOL    HW216556   5.526   4.535   2.175  0.1451 -0.0584  1.1244
66316SOL     OW16557  12.013   8.973  12.244 -0.1772 -0.2790 -0.2393
66316SOL    HW116558  11.954   8.899  12.235  1.3183 -1.6555  0.8261
66316SOL    HW216559  11.955   9.049  12.255 -1.7291 -1.3541 -0.6733
66317SOL     OW16560   4.569  11.401  10.225 -0.1111  0.4141  0.1218
66317SOL    HW116561   4.555  11.309  10.247 -4.1965  0.6432 -0.6131
66317SOL    HW216562   4.604  11.440  10.305 -1.2638 -1.2650  1.5138
66318SOL     OW16563  12.374   6.989  11.714  0.2292  0.5019  0.1109
66318SOL    HW116564  12.466   7.017  11.721  0.2635  0.2416  0.8454
66318SOL    HW216565  12.372   6.932  11.638  0.3354  1.7848 -0.8847
66319SOL     OW16566  11.982  11.973   6.859  0.4552 -0.6576 -0.4180
66319SOL    HW116567  12.047  11.907   6.835  0.9095 -0.1454 -0.6144
66319SOL    HW216568  11.999  11.991   6.951  0.6659 -0.4484 -0.4958
66320SOL     OW16569   4.603  10.220   1.094  0.4618  0.6173 -0.2768
66320SOL    HW116570   4.652  10.159   1.150  1.6086 -0.2005 -2.0821
66320SOL    HW216571   4.650  10.303   1.103  0.8181  0.4163 -0.2533
66321SOL     OW16572   3.971   4.834   5.291  0.2092 -0.2957 -0.1748
66321SOL    HW116573   3.902   4.776   5.322 -1.6199  1.2458 -1.1670
66321SOL    HW216574   3.971   4.824   5.196  1.4434 -0.3312 -0.1977
66322SOL     OW16575  11.900   6.661  13.000  0.5452  0.2177  0.1680
66322SOL    HW116576  11.861   6.654  13.086  0.2878 -1.6195 -0.0598
66322SOL    HW216577  11.994   6.645  13.015  0.3309 -1.3745 -0.0102
66323SOL     OW16578   2.877   1.992   1.558 -0.3354  0.1484  0.0689
66323SOL    HW116579   2.965   2.018   1.531  0.4640 -1.9622  0.4789
66323SOL    HW216580   2.837   1.956   1.479 -0.8581  1.0663 -0.1065
66324SOL     OW16581   3.481   6.281   1.070 -0.0437  0.3389  0.2703
66324SOL    HW116582   3.438   6.204   1.107  1.1683 -1.0514 -1.0866
66324SOL    HW216583   3.515   6.328   1.146 -1.8635  0.2411  1.2075
66325SOL     OW16584   9.384   2.529   0.056 -1.0385  0.8966 -0.2827
66325SOL    HW116585   9.335   2.553   0.135 -2.4832 -0.2999 -0.7766
66325SOL    HW216586   9.415   2.441   0.073  1.3605  1.7629  0.1714
66326SOL     OW16587  12.349   9.851   9.013  0.1110 -0.0212  0.1911
66326SOL    HW116588  12.338   9.757   9.003  0.4422 -0.0928  0.4977
66326SOL    HW216589  12.416   9.874   8.949  2.4998 -0.5396  2.3627
66327SOL     OW16590   1.482   4.154   8.512 -0.3489  0.6474 -0.0525
66327SOL    HW116591   1.485   4.123   8.603  0.0557 -0.1478 -0.3318
66327SOL    HW216592   1.573   4.147   8.481 -0.7648 -0.7568 -1.0585
66328SOL     OW16593   8.460   5.902  11.575  0.0284  0.0446 -0.1109
66328SOL    HW116594   8.397   5.973  11.583 -0.7280 -0.1971 -2.9652
66328SOL    HW216595   8.543   5.946  11.554 -0.1733  0.1817 -0.6560
66329SOL     OW16596  12.726  10.371  12.155  0.1198  0.1875  0.2636
66329SOL    HW116597  12.731  10.316  12.077  3.9040  1.0337 -0.2944
66329SOL    HW216598  12.746  10.459  12.123 -0.7734  1.0147  1.8788
66330SOL     OW16599   0.561   9.166  11.670 -0.6469 -0.2381 -0.5105
66330SOL    HW116600   0.596   9.096  11.615  0.8096  0.2189 -0.1959
66330SOL    HW216601   0.636   9.224  11.686 -1.1650 -0.0488  1.4894
66331SOL     OW16602   3.386   2.213   0.068 -0.2523 -0.1391 -0.0760
66331SOL    HW116603   3.450   2.244   0.004 -1.7700  1.8441 -0.7000
66331SOL    HW216604   3.347   2.293   0.104 -0.4217 -1.2287  2.3523
66332SOL     OW16605   5.175   0.865   1.141  0.5972 -0.7082  0.3313
66332SOL    HW116606   5.201   0.899   1.055 -0.7350  1.9692  0.8598
66332SOL    HW216607   5.125   0.786   1.122  0.6847 -0.3985 -1.3473
66333SOL     OW16608   4.562   2.856   7.021  0.2990 -0.6973 -0.1640
66333SOL    HW116609   4.512   2.863   6.939  0.5022  1.9724 -0.1618
66333SOL    HW216610   4.652   2.874   6.994  0.7860 -2.3493  0.2986
66334SOL     OW16611  11.785   9.518   0.407 -0.1675 -0.0710  0.1374
66334SOL    HW116612  11.803   9.512   0.501  0.9084 -1.2879 -0.1078
66334SOL    HW216613  11.689   9.514   0.401 -0.3193  1.2042  1.2231
66335SOL     OW16614   8.903   7.684   1.236  0.0798  0.1890 -0.3623
66335SOL    HW116615   8.908   7.736   1.316  1.1831  0.8283 -0.8243
66335SOL    HW216616   8.992   7.681   1.203 -0.3918  0.1590 -1.7035
66336SOL     OW16617   9.362   0.431   4.920 -0.1483  0.9714  0.4588
66336SOL    HW116618   9.380   0.499   4.855 -0.9452  0.1726 -0.6409
66336SOL    HW216619   9.287   0.464   4.970 -2.1486 -0.0397 -1.6516
66337SOL     OW16620   2.377   8.978   7.882 -0.0735  0.2864 -0.1463
66337SOL    HW116621   2.427   8.991   7.963 -0.4659  0.0677  0.1331
66337SOL    HW216622   2.443   8.983   7.813  0.4009 -0.3908  0.2427
66338SOL     OW16623   2.704   1.523   3.661 -0.5461 -0.2546 -0.3436
66338SOL    HW116624   2.703   1.591   3.593  0.4531 -0.2243 -0.3427
66338SOL    HW216625   2.698   1.571   3.743  2.8668  0.1462 -0.1652
66339SOL     OW16626   0.170  10.331   7.066 -0.1982 -0.4922 -0.0544
66339SOL    HW116627   0.219  10.260   7.023  0.7170  0.2213 -0.2326
66339SOL    HW216628   0.230  10.405   7.064 -1.8129  0.8578 -1.5523
66340SOL     OW16629   4.237   3.280   9.049  0.1459  0.5418  0.5972
66340SOL    HW116630   4.232   3.185   9.033  0.0962  0.4787  0.9791
66340SOL    HW216631   4.291   3.314   8.978  0.0939  0.2365  0.4111
66341SOL     OW16632   2.600   1.042   9.487 -0.5143 -0.6603  0.0467
66341SOL    HW116633   2.548   1.021   9.565 -0.3031 -2.4178 -0.2468
66341SOL    HW216634   2.590   0.965   9.430  2.2497 -0.9781 -0.1100
66342SOL     OW16635  10.032   7.202   1.288  0.1927 -0.1346  0.2454
66342SOL    HW116636   9.992   7.261   1.352  2.1518  1.0852  0.4336
66342SOL    HW216637  10.021   7.248   1.204  1.0882  0.1652  0.2868
66343SOL     OW16638  10.149   1.029  13.995 -0.2070 -0.4694 -0.1925
66343SOL    HW116639  10.061   1.006  14.025 -1.2121  0.8974 -1.9613
66343SOL    HW216640  10.207   0.996  14.064 -2.2911  1.7041  2.8283
66344SOL     OW16641  10.216  11.757  12.237  0.4444 -0.1669  0.5266
66344SOL    HW116642  10.192  11.843  12.271 -1.2397 -0.7850  0.9716
66344SOL    HW216643  10.312  11.761  12.229  0.3810  1.8456  0.1949
66345SOL     OW16644   9.815  14.052   6.062  0.0703 -0.1777  0.1009
66345SOL    HW116645   9.893  13.998   6.075 -0.6823 -1.3300  0.0038
66345SOL    HW216646   9.793  14.040   5.969  1.2719  2.2554 -0.5832
66346SOL     OW16647   1.909   3.614  13.798  0.8443 -0.0835 -0.8275
66346SOL    HW116648   1.980   3.584  13.856 -0.2796  1.6123  1.5844
66346SOL    HW216649   1.930   3.706  13.781 -0.2450  0.1556 -0.9070
66347SOL     OW16650   1.336   8.051  12.560 -0.0537 -0.1589  0.0795
66347SOL    HW116651   1.272   8.122  12.568  0.0633  0.0594 -0.7842
66347SOL    HW216652   1.382   8.071  12.479 -0.5470 -1.6612 -0.5885
66348SOL     OW16653   4.935   2.352   4.685 -0.1955  0.4046  0.8577
66348SOL    HW116654   4.984   2.427   4.719  2.1683 -0.9342  0.6343
66348SOL    HW216655   4.956   2.349   4.592  0.2798 -0.8843  0.9851
66349SOL     OW16656  13.794   3.591   5.174  0.1198  0.5156  0.0194
66349SOL    HW116657  13.751   3.554   5.251 -0.5305  0.3351 -0.4142
66349SOL    HW216658  13.804   3.517   5.114  1.1272  0.5431  0.1463
66350SOL     OW16659  10.800   2.100   8.457  0.2429  0.0807 -0.4564
66350SOL    HW116660  10.809   2.113   8.551  3.4807  1.5666 -0.8222
66350SOL    HW216661  10.826   2.009   8.443  0.6997  0.1259  0.0402
66351SOL     OW16662   4.173   9.787   2.351  0.2161 -0.3170  0.0231
66351SOL    HW116663   4.145   9.710   2.301 -0.7021  0.0496 -0.0465
66351SOL    HW216664   4.160   9.762   2.442  0.8653 -0.5987  0.0397
66352SOL     OW16665   0.871   2.980   9.819 -0.2430 -0.1991 -0.2557
66352SOL    HW116666   0.851   2.909   9.758  0.3104 -0.1642 -0.4823
66352SOL    HW216667   0.816   3.053   9.788 -0.8592 -0.5396  0.0192
66353SOL     OW16668   7.291   0.080  12.900  0.0448  0.1076  0.1237
66353SOL    HW116669   7.279   0.174  12.886 -0.2799  0.0981  0.3444
66353SOL    HW216670   7.301   0.044  12.812  4.3160  0.8836  0.0916
66354SOL     OW16671   1.552   9.079   2.415  0.5873 -0.5158  0.1457
66354SOL    HW116672   1.497   9.039   2.348  0.9319 -0.2694 -0.2936
66354SOL    HW216673   1.573   9.166   2.379  1.7291 -0.8275  0.0417
66355SOL     OW16674   5.598  11.872   2.704  0.5013 -0.0725  0.1665
66355SOL    HW116675   5.544  11.947   2.731  0.9134 -0.5389  2.5213
66355SOL    HW216676   5.645  11.847   2.783  2.2178 -1.3346 -1.1782
66356SOL     OW16677   7.788   5.918   0.769 -0.2706  0.5941  0.1688
66356SOL    HW116678   7.839   5.919   0.687  0.5591 -0.2278  0.6529
66356SOL    HW216679   7.832   5.982   0.825 -1.2175  1.6224 -0.2251
66357SOL     OW16680  11.890   8.873  12.666  0.1943  0.4484  0.5598
66357SOL    HW116681  11.923   8.957  12.634  1.4687 -0.0515  0.5202
66357SOL    HW216682  11.796   8.877  12.650  0.2543  1.8060  0.4177
66358SOL     OW16683  10.730   6.076   6.621 -0.4104 -0.4567  0.1643
66358SOL    HW116684  10.703   6.136   6.690  0.1488 -1.7675  1.5717
66358SOL    HW216685  10.700   6.117   6.540 -1.2688  1.0167  1.1964
66359SOL     OW16686  12.130   1.755   2.103  0.2265 -0.0403 -0.2302
66359SOL    HW116687  12.190   1.680   2.103 -0.5556 -0.7211 -2.0181
66359SOL    HW216688  12.076   1.742   2.026  0.8220  2.9904 -1.2849
66360SOL     OW16689   1.841   2.813   2.239  0.2821  0.2653  0.3482
66360SOL    HW116690   1.835   2.823   2.335  0.4430 -0.6414  0.4585
66360SOL    HW216691   1.935   2.813   2.221  0.2561  2.2860 -0.0352
66361SOL     OW16692  12.708   3.028   4.864  0.1602  0.1278 -0.4725
66361SOL    HW116693  12.731   2.937   4.845 -0.9994 -0.4355  0.6136
66361SOL    HW216694  12.740   3.043   4.953 -2.1427 -0.2142  0.4989
66362SOL     OW16695   4.381  11.850   7.035  0.0584 -0.4505  0.1091
66362SOL    HW116696   4.337  11.789   7.093 -0.1793  0.4794  0.9449
66362SOL    HW216697   4.328  11.930   7.040  0.6322 -0.0161 -0.5633
66363SOL     OW16698   3.268  12.689   6.723  0.5052  0.3396 -0.6604
66363SOL    HW116699   3.363  12.688   6.737  0.2251 -0.0086  1.5097
66363SOL    HW216700   3.233  12.742   6.794 -0.8653  1.6347 -2.2155
66364SOL     OW16701   3.845   3.507   9.853 -0.2617 -0.0949  0.0864
66364SOL    HW116702   3.763   3.478   9.894 -0.4333 -0.2192 -0.3403
66364SOL    HW216703   3.913   3.462   9.903 -0.3592  1.0719  1.3391
66365SOL     OW16704  10.088   8.883  12.317 -0.4394 -0.0661  0.0081
66365SOL    HW116705  10.084   8.895  12.222 -0.8777 -1.4117 -0.1596
66365SOL    HW216706  10.054   8.966  12.352 -1.7850 -0.1252 -1.0415
66366SOL     OW16707   3.019   7.156   5.323 -0.0992 -0.1867 -0.2959
66366SOL    HW116708   3.006   7.196   5.237 -0.4893 -0.3753 -0.3274
66366SOL    HW216709   3.041   7.065   5.304 -2.1991 -0.7800 -0.1743
66367SOL     OW16710   6.106  11.958   5.681 -0.2985  0.3349 -0.2360
66367SOL    HW116711   6.156  11.892   5.634 -0.3362  0.7134 -0.8179
66367SOL    HW216712   6.133  11.947   5.772 -1.7214 -1.7443  0.0004
66368SOL     OW16713   5.028   3.368   8.882  0.4288  0.4027 -0.3910
66368SOL    HW116714   4.959   3.434   8.889 -0.0930 -0.2142  0.6934
66368SOL    HW216715   5.014   3.328   8.797  0.1761  1.0724 -0.6742
66369SOL     OW16716  12.876   2.637  11.968 -0.2268 -0.6863  0.2032
66369SOL    HW116717  12.824   2.715  11.949  0.3783 -0.2439  0.3154
66369SOL    HW216718  12.839   2.569  11.912 -1.2704 -0.5281  0.6924
66370SOL     OW16719   2.284  12.270  12.165 -0.0265  0.2457 -0.3528
66370SOL    HW116720   2.255  12.178  12.166  0.8314 -0.0356  0.9336
66370SOL    HW216721   2.205  12.319  12.142 -1.3780 -0.5493  2.2249
66371SOL     OW16722   0.460   3.725   4.898 -0.5014  0.0277 -0.3313
66371SOL    HW116723   0.508   3.644   4.881  1.2482  0.7478  0.8499
66371SOL    HW216724   0.472   3.777   4.818  1.8024  0.6638  0.3522
66372SOL     OW16725   7.574   3.817   6.573 -0.1732  0.3946  0.4458
66372SOL    HW116726   7.493   3.769   6.592 -0.0776 -1.0505 -2.2612
66372SOL    HW216727   7.578   3.820   6.478  2.0859  2.0226  0.5165
66373SOL     OW16728   6.988   3.464  13.747 -0.0454 -0.2631 -0.8899
66373SOL    HW116729   7.050   3.452  13.819 -1.3799 -1.1395  0.1339
66373SOL    HW216730   6.984   3.379  13.704 -1.9230 -0.7575  0.1977
66374SOL     OW16731  13.769   2.057   2.201 -0.0062  0.0645  0.1744
66374SOL    HW116732  13.862   2.048   2.221  0.6416  0.0473 -2.4299
66374SOL    HW216733  13.730   1.973   2.226  1.0930 -0.6641 -0.4863
66375SOL     OW16734  12.796  11.972   9.507 -0.1261  0.2151  0.0331
66375SOL    HW116735  12.719  12.029   9.499  0.2599  1.0526  1.7691
66375SOL    HW216736  12.800  11.950   9.600  0.5983 -1.4822 -0.3548
66376SOL     OW16737   5.970  13.745   1.443  0.5616 -0.7091 -0.4234
66376SOL    HW116738   5.936  13.824   1.484 -1.2467 -2.5379  1.8143
66376SOL    HW216739   5.995  13.773   1.355 -0.2511  2.2603  0.1895
66377SOL     OW16740   9.350   4.819   1.826 -0.1990  0.3233 -0.7626
66377SOL    HW116741   9.414   4.829   1.897 -0.6159  1.5340 -0.5362
66377SOL    HW216742   9.359   4.899   1.774 -2.1090  0.9420 -0.2241
66378SOL     OW16743   3.930   3.473   9.011  0.0732  0.3342  0.0808
66378SOL    HW116744   3.985   3.543   9.045  0.0617 -0.0656  0.9432
66378SOL    HW216745   3.968   3.451   8.926  0.3990  1.0087  0.0451
66379SOL     OW16746   5.914   3.649   2.221  0.0183  0.7015  0.8085
66379SOL    HW116747   5.862   3.618   2.296 -0.6630 -2.0348 -0.6431
66379SOL    HW216748   6.002   3.618   2.238  0.1270  1.1188  1.0158
66380SOL     OW16749   8.854  11.857   2.513 -1.0664 -0.0109  0.3350
66380SOL    HW116750   8.900  11.933   2.478 -1.5425 -0.2132 -0.7728
66380SOL    HW216751   8.894  11.842   2.598  0.4491  0.2370 -0.3003
66381SOL     OW16752   7.523   6.273   9.699 -0.1753 -0.5377 -0.0169
66381SOL    HW116753   7.595   6.319   9.655 -1.5154  1.2665 -0.4768
66381SOL    HW216754   7.547   6.180   9.694  2.5112  0.0393  0.6524
66382SOL     OW16755   0.025   0.943   2.029  0.1239  0.4152 -0.4137
66382SOL    HW116756   0.113   0.927   1.996  0.5640  1.6439  0.1341
66382SOL    HW216757  -0.012   1.008   1.969  0.1308  1.0181  0.2305
66383SOL     OW16758   2.645   7.778   4.294  0.5651 -0.2126 -0.1308
66383SOL    HW116759   2.583   7.816   4.356 -1.4882 -0.2312 -2.0598
66383SOL    HW216760   2.643   7.684   4.312  1.1117 -0.0833  0.6889
66384SOL     OW16761  12.208   5.738   6.622 -0.0260  0.3216  0.3777
66384SOL    HW116762  12.212   5.708   6.531  0.2615  0.4418  0.3480
66384SOL    HW216763  12.299   5.736   6.651  0.0467  1.5342  0.2579
66385SOL     OW16764   3.533   3.229   7.579  0.1891  0.1959 -0.2983
66385SOL    HW116765   3.451   3.244   7.627  1.2179 -1.7022  2.2442
66385SOL    HW216766   3.577   3.314   7.581 -0.4989  0.5606  0.7565
66386SOL     OW16767   3.355   2.650   3.512 -0.6005 -0.7518  0.5169
66386SOL    HW116768   3.373   2.569   3.560 -0.9416 -0.4101  1.2412
66386SOL    HW216769   3.412   2.715   3.553  1.6940 -1.1421 -1.7948
66387SOL     OW16770   7.375   2.971   4.883  0.1276 -0.4321  0.5441
66387SOL    HW116771   7.293   2.942   4.844  0.8005 -1.2354 -0.3373
66387SOL    HW216772   7.392   2.908   4.953 -0.0568 -0.1928  0.8089
66388SOL     OW16773   4.225   0.626  10.004  0.2874 -0.5422 -0.0414
66388SOL    HW116774   4.299   0.629  10.065  0.8527  1.6090 -0.7364
66388SOL    HW216775   4.256   0.573   9.931  0.5922 -0.8729  0.3235
66389SOL     OW16776   0.111   9.119   4.649  0.3268 -0.0304 -0.5955
66389SOL    HW116777   0.035   9.107   4.592 -0.0728  0.5989 -0.2057
66389SOL    HW216778   0.156   9.035   4.646 -1.5378 -1.1503  0.8479
66390SOL     OW16779   1.560  13.532  11.003 -0.3443  0.3459 -0.3155
66390SOL    HW116780   1.511  13.556  10.924  0.4832 -1.3214 -1.3829
66390SOL    HW216781   1.504  13.561  11.075 -0.5542  3.0616 -1.4535
66391SOL     OW16782   4.874   6.843  11.885  0.0983 -0.2934 -0.5849
66391SOL    HW116783   4.838   6.881  11.805  0.4625  1.5155  0.0793
66391SOL    HW216784   4.969   6.846  11.872  0.1490 -0.3408 -0.2371
66392SOL     OW16785   9.473   3.365  11.449 -0.0772  0.3663  0.0721
66392SOL    HW116786   9.400   3.362  11.387 -0.3514 -1.5514  0.4071
66392SOL    HW216787   9.527   3.438  11.420 -1.8305  1.4868 -0.5200
66393SOL     OW16788   1.315   1.890  11.607 -0.9140  0.7345  0.1156
66393SOL    HW116789   1.320   1.947  11.683 -1.6216 -0.0560  0.7702
66393SOL    HW216790   1.355   1.807  11.636  0.1500  0.8838 -0.8342
66394SOL     OW16791   8.312   6.851   9.595 -0.4753  0.2573  0.2497
66394SOL    HW116792   8.324   6.809   9.680 -0.6968  0.3718  0.3407
66394SOL    HW216793   8.357   6.935   9.603  0.7431 -0.3286 -0.2360
66395SOL     OW16794   5.657   5.045   2.585 -0.0437 -0.2246  0.1622
66395SOL    HW116795   5.629   5.101   2.658 -4.0234 -0.3637 -1.0100
66395SOL    HW216796   5.671   5.106   2.513 -0.8602 -0.4218 -0.1735
66396SOL     OW16797  11.510   0.134  12.516 -0.0138 -0.5066  0.0194
66396SOL    HW116798  11.551   0.211  12.477 -0.0872 -0.9016 -0.8680
66396SOL    HW216799  11.567   0.061  12.492 -0.2854 -0.8144  0.2938
66397SOL     OW16800  10.875   2.073   6.547  0.1838 -0.0298 -0.3298
66397SOL    HW116801  10.928   2.009   6.593 -2.1423 -1.8467  0.0344
66397SOL    HW216802  10.867   2.039   6.458  0.3454  0.6840 -0.6273
66398SOL     OW16803  13.083   1.767   7.394  0.5949  1.0386 -1.0566
66398SOL    HW116804  13.073   1.816   7.476  2.5889 -1.5323  0.8922
66398SOL    HW216805  13.172   1.789   7.365  0.5159  0.6297 -1.6168
66399SOL     OW16806   8.629   3.095   0.049  0.1376  0.5556 -0.5173
66399SOL    HW116807   8.679   3.165   0.092  0.2418  0.3794 -0.3510
66399SOL    HW216808   8.670   3.014   0.080 -1.6846  0.3098  1.4904
66400SOL     OW16809  12.617   4.943   2.760 -0.0931  0.2359  0.3027
66400SOL    HW116810  12.537   4.903   2.794  0.4877  1.1360  2.9347
66400SOL    HW216811  12.620   5.030   2.801  0.8489  1.3488 -1.9263
66401SOL     OW16812   9.390  12.127   9.235  0.5195  0.0492  0.5308
66401SOL    HW116813   9.432  12.213   9.230  2.3129 -0.7355  1.1866
66401SOL    HW216814   9.444  12.070   9.180 -1.7509 -0.2920 -1.4536
66402SOL     OW16815  11.156  10.192   4.771 -0.8060 -0.5429 -0.2645
66402SOL    HW116816  11.083  10.140   4.805 -0.7665  0.0705  0.7930
66402SOL    HW216817  11.227  10.128   4.761 -1.6107 -1.2459 -1.7960
66403SOL     OW16818   2.376   6.974   2.918 -0.6871  0.1424  0.2516
66403SOL    HW116819   2.303   7.027   2.885  0.0326  0.7140 -0.4477
66403SOL    HW216820   2.348   6.946   3.005 -1.3855  1.0679  0.3338
66404SOL     OW16821   5.581   6.279   1.618  0.1615  0.0891  0.2747
66404SOL    HW116822   5.511   6.338   1.645 -0.1492  0.2244 -0.7971
66404SOL    HW216823   5.632   6.265   1.698 -0.5042  0.7776  0.8391
66405SOL     OW16824   4.567  13.208   9.391  0.0905  0.2665 -0.7007
66405SOL    HW116825   4.520  13.130   9.421 -2.2890  1.3867 -1.2791
66405SOL    HW216826   4.617  13.237   9.467  1.2574 -1.9186 -0.5469
66406SOL     OW16827   0.381   5.980   7.067  0.3299 -0.1108  0.3367
66406SOL    HW116828   0.312   5.979   7.000  0.8107  0.3894 -0.1753
66406SOL    HW216829   0.373   5.896   7.111 -0.5338 -0.1075  0.1993
66407SOL     OW16830   9.196   7.848   0.818  0.0094 -0.6910  0.1440
66407SOL    HW116831   9.176   7.757   0.840 -2.6989 -0.1695  0.2029
66407SOL    HW216832   9.140   7.900   0.876 -1.0777  0.8882 -2.1377
66408SOL     OW16833   3.161  12.864   7.925  0.3500 -0.6066 -0.3240
66408SOL    HW116834   3.178  12.825   8.011  1.5388  1.3348  0.3952
66408SOL    HW216835   3.153  12.958   7.943 -0.5060 -0.2671 -2.2112
66409SOL     OW16836  12.167   2.228   9.116  0.2810 -0.4743 -0.6605
66409SOL    HW116837  12.194   2.311   9.077  1.8459 -1.6552 -2.2164
66409SOL    HW216838  12.082   2.248   9.157  0.2607  1.6921 -1.6062
66410SOL     OW16839  13.020   1.934   8.370 -0.6983  0.2499 -0.2105
66410SOL    HW116840  12.950   1.940   8.304 -0.6202  2.3070 -0.1758
66410SOL    HW216841  12.975   1.946   8.453 -0.7096 -1.7228  0.1015
66411SOL     OW16842   3.374   6.910   4.372 -0.0946 -0.2330 -0.2592
66411SOL    HW116843   3.350   6.970   4.301  1.1852 -0.1231 -0.6311
66411SOL    HW216844   3.469   6.920   4.380 -0.1526 -0.6090  1.1515
66412SOL     OW16845   0.762  10.349   5.506 -0.7156  0.2659  0.0033
66412SOL    HW116846   0.767  10.440   5.480 -1.5659  0.1452 -0.6272
66412SOL    HW216847   0.853  10.320   5.512 -0.4120  0.3053 -2.8657
66413SOL     OW16848   6.904   6.394  13.295  0.1313  0.5698 -0.5341
66413SOL    HW116849   6.936   6.329  13.358 -0.3899  0.2615 -0.5801
66413SOL    HW216850   6.946   6.370  13.212 -2.3875 -1.6652 -1.3183
66414SOL     OW16851   1.606   9.672   7.098 -0.1991 -0.5993 -0.1831
66414SOL    HW116852   1.691   9.641   7.066  0.0054  0.3994 -0.6445
66414SOL    HW216853   1.572   9.599   7.150  1.1433 -0.8505  0.3812
66415SOL     OW16854   3.632   0.965   1.307 -0.6582  0.0751  0.0043
66415SOL    HW116855   3.613   0.872   1.313  1.7195 -0.4739 -0.0016
66415SOL    HW216856   3.609   0.988   1.217 -2.4208 -0.1717  0.3597
66416SOL     OW16857  12.318  10.048   1.913  0.4124  0.3353  0.3705
66416SOL    HW116858  12.272  10.030   1.995  0.3085  1.3924  0.5536
66416SOL    HW216859  12.265  10.005   1.846 -0.9140  1.5818  0.5752
66417SOL     OW16860  12.090  12.720   5.638 -0.2571  0.3867 -0.0531
66417SOL    HW116861  12.147  12.783   5.594  1.8189 -0.6593  0.9730
66417SOL    HW216862  12.071  12.760   5.723  2.4668 -0.9140  1.3151
66418SOL     OW16863  10.643   9.434   9.158  0.1575  0.1017 -0.0491
66418SOL    HW116864  10.699   9.420   9.235  1.1752 -0.9993 -0.9657
66418SOL    HW216865  10.559   9.395   9.182  0.8037 -1.2251  0.1095
66419SOL     OW16866  14.031   4.380  11.141  0.0281  0.4864  0.1599
66419SOL    HW116867  14.003   4.350  11.228 -1.8534  1.8137  0.0782
66419SOL    HW216868  14.065   4.301  11.098 -0.8114 -0.6059  1.4118
66420SOL     OW16869  13.074   4.340   4.252  0.4654  0.1447  0.2692
66420SOL    HW116870  12.986   4.330   4.288 -0.5377  1.1400 -1.7622
66420SOL    HW216871  13.111   4.414   4.300 -0.7346  1.2655 -0.4542
66421SOL     OW16872  10.992  13.148   3.420  0.0555 -0.2412  0.1382
66421SOL    HW116873  10.992  13.115   3.330 -1.4225  3.4892 -1.4441
66421SOL    HW216874  10.910  13.115   3.457  0.6089 -1.6905  0.1355
66422SOL     OW16875  12.443   3.428   0.620  0.3608 -0.2157 -1.0259
66422SOL    HW116876  12.394   3.424   0.538 -0.7955  1.1416 -0.4405
66422SOL    HW216877  12.438   3.339   0.655 -1.6695 -0.1617 -1.0352
66423SOL     OW16878   9.614   7.192   5.784  0.0261  0.4429  0.1421
66423SOL    HW116879   9.585   7.276   5.819 -0.4891  0.6350 -0.7248
66423SOL    HW216880   9.687   7.213   5.726 -1.8565  0.6891 -2.3165
66424SOL     OW16881   6.440  13.279  13.505  0.0174  0.7525 -0.4549
66424SOL    HW116882   6.455  13.298  13.598 -1.6746  0.0304  0.0038
66424SOL    HW216883   6.508  13.329  13.459  2.3939 -0.6823  1.2571
66425SOL     OW16884  11.315   0.761  12.610 -0.4164  0.1037  0.2285
66425SOL    HW116885  11.260   0.795  12.539  0.3180  0.4830 -0.1744
66425SOL    HW216886  11.254   0.718  12.669 -0.8639 -2.4471 -1.8614
66426SOL     OW16887  11.272   4.249  13.188 -0.2737  0.1809  0.4331
66426SOL    HW116888  11.337   4.188  13.222 -0.7629  0.2445  1.5459
66426SOL    HW216889  11.196   4.236  13.244 -1.1899  0.1943 -0.7746
66427SOL     OW16890   0.924   5.094   2.186  0.0079 -0.0969  0.6907
66427SOL    HW116891   0.981   5.069   2.114 -1.4418 -0.6765 -0.3082
66427SOL    HW216892   0.878   5.013   2.209 -1.6871  0.6992  0.2657
66428SOL     OW16893   8.040   3.622   3.437  0.0943 -0.0133  0.3806
66428SOL    HW116894   8.109   3.561   3.464  0.5897  0.4438  0.1802
66428SOL    HW216895   7.986   3.633   3.515  0.1963 -0.4453  0.5165
66429SOL     OW16896   5.597   5.820  13.300  0.8281 -0.0314 -0.0959
66429SOL    HW116897   5.590   5.730  13.332 -1.6486  0.2076  0.2554
66429SOL    HW216898   5.563   5.816  13.210 -2.0964  0.9299  0.8556
66430SOL     OW16899   4.716   6.889   7.061  0.4328 -0.6833  0.1436
66430SOL    HW116900   4.661   6.840   6.999 -1.2112  1.6714 -0.3939
66430SOL    HW216901   4.659   6.905   7.136  1.1499 -0.2026  0.5957
66431SOL     OW16902  11.440   8.491   4.246 -0.4749  0.5347 -0.3305
66431SOL    HW116903  11.472   8.581   4.252  0.0992  0.3191 -0.1614
66431SOL    HW216904  11.484   8.445   4.316  0.3836 -0.2219 -1.3393
66432SOL     OW16905   4.382   9.267  13.044 -0.0986 -0.4020  0.8070
66432SOL    HW116906   4.295   9.229  13.028 -0.2640 -0.5968  2.0947
66432SOL    HW216907   4.365   9.361  13.053 -0.1076 -0.3851  0.6215
66433SOL     OW16908  11.427   7.713   7.473  0.2036  0.1755 -0.3475
66433SOL    HW116909  11.411   7.708   7.379 -0.7918  0.1560 -0.1892
66433SOL    HW216910  11.467   7.629   7.495 -0.2140 -0.1060 -0.6382
66434SOL     OW16911  11.241   2.501   3.021  0.3676 -0.2319  0.0663
66434SOL    HW116912  11.302   2.520   2.949 -0.0122 -0.4838 -0.3280
66434SOL    HW216913  11.166   2.557   3.005 -0.4540 -1.4954 -0.7107
66435SOL     OW16914   1.782  12.713  11.516  0.4074 -0.6573  0.1175
66435SOL    HW116915   1.721  12.647  11.548 -0.2740  0.8462  2.1361
66435SOL    HW216916   1.763  12.720  11.422 -2.9009  0.0207  0.7111
66436SOL     OW16917   3.498   1.084   5.663  0.1088 -0.0016 -0.0546
66436SOL    HW116918   3.463   1.117   5.580 -0.8556 -1.2756 -0.1848
66436SOL    HW216919   3.459   0.997   5.673  1.6486 -0.6371  0.8300
66437SOL     OW16920   0.711  13.571  12.146  0.1223  0.0349  0.6070
66437SOL    HW116921   0.633  13.610  12.106  1.4779  0.6831 -1.5883
66437SOL    HW216922   0.756  13.644  12.189  0.1412 -0.1015  0.8242
66438SOL     OW16923   9.671  11.605   6.904 -0.0418  0.3529 -0.3108
66438SOL    HW116924   9.682  11.510   6.917  0.1731  0.2553 -1.1774
66438SOL    HW216925   9.758  11.641   6.922  0.0133  0.3263 -0.5267
66439SOL     OW16926   2.217   8.427   7.035 -0.2910 -0.4345  0.5017
66439SOL    HW116927   2.271   8.348   7.038  0.6401  0.1228 -0.3852
66439SOL    HW216928   2.243   8.477   7.112  0.3029 -0.2804  0.2092
66440SOL     OW16929   6.444   4.760   0.252 -0.0793 -0.6512  0.9352
66440SOL    HW116930   6.514   4.824   0.261  0.1918 -0.4652 -1.6277
66440SOL    HW216931   6.479   4.695   0.190 -2.2358 -0.3670 -0.7068
66441SOL     OW16932  12.576   3.630   2.821 -0.0585  0.2064 -0.1964
66441SOL    HW116933  12.664   3.605   2.851 -0.3193 -0.6363 -0.1174
66441SOL    HW216934  12.541   3.551   2.780 -0.8859  0.4614  0.0002
66442SOL     OW16935   4.563   5.961  13.228  0.8245 -0.1153 -0.2891
66442SOL    HW116936   4.534   5.921  13.310  0.4603 -1.7527 -1.1725
66442SOL    HW216937   4.483   5.993  13.187  0.8393 -0.4243 -0.5668
66443SOL     OW16938  11.604  12.917   0.967  0.6627  0.4037  0.2126
66443SOL    HW116939  11.660  12.970   0.910 -1.4472  0.5730 -1.8724
66443SOL    HW216940  11.526  12.970   0.981  0.1978 -0.5589  1.4189
66444SOL     OW16941   2.325  12.301   6.202 -0.1752 -0.1058  0.0033
66444SOL    HW116942   2.419  12.296   6.216 -0.1233  0.2163 -0.2314
66444SOL    HW216943   2.296  12.371   6.260  0.0739  1.3971 -1.6139
66445SOL     OW16944  10.634   2.671   6.238 -0.6852  0.2865  0.0365
66445SOL    HW116945  10.681   2.751   6.215  0.1571 -0.0821  0.3981
66445SOL    HW216946  10.546   2.683   6.204 -0.7868  1.6793  0.7494
66446SOL     OW16947   8.622  10.583  11.835  0.6030 -0.2369  0.0790
66446SOL    HW116948   8.645  10.539  11.753 -1.4721 -2.7031  0.6822
66446SOL    HW216949   8.691  10.557  11.897  1.0045 -0.1587 -0.3308
66447SOL     OW16950  13.441  12.010   3.357  0.4591 -0.0157 -0.8610
66447SOL    HW116951  13.427  11.958   3.436 -1.6950  0.6873 -0.7153
66447SOL    HW216952  13.453  11.945   3.287 -0.4706 -0.6880 -0.4120
66448SOL     OW16953   2.886   7.000   8.144 -0.2097  0.1296 -0.0361
66448SOL    HW116954   2.912   6.916   8.182 -0.6658  1.0965  2.6538
66448SOL    HW216955   2.802   6.983   8.102 -0.1547 -0.8265  0.2220
66449SOL     OW16956   8.402   2.493   1.688  0.1782 -0.1512 -0.1861
66449SOL    HW116957   8.463   2.457   1.753 -0.4853 -2.1900 -0.6085
66449SOL    HW216958   8.357   2.416   1.653 -2.1974  1.2159 -0.3637
66450SOL     OW16959  11.649   3.834   4.322 -0.1236 -0.1240 -0.1080
66450SOL    HW116960  11.617   3.793   4.402 -1.7992  0.3525 -0.5071
66450SOL    HW216961  11.690   3.762   4.273  2.1059 -0.1885  1.6809
66451SOL     OW16962   6.077   4.974   4.394  0.1702  0.2447  0.1948
66451SOL    HW116963   5.984   4.965   4.418  0.2821 -0.0493  0.5199
66451SOL    HW216964   6.124   4.959   4.476  0.4877  0.8290  0.1211
66452SOL     OW16965   1.481   2.927   1.559  0.5847  0.0754  0.1207
66452SOL    HW116966   1.501   2.941   1.652  0.0648 -0.7451  0.3701
66452SOL    HW216967   1.525   2.999   1.514  0.2298  0.9175  1.0684
66453SOL     OW16968   7.045   8.751   4.618 -0.0329  0.3107  0.0571
66453SOL    HW116969   7.014   8.680   4.562 -1.4859  0.4608  0.6411
66453SOL    HW216970   7.103   8.802   4.562  0.9109 -1.2197 -0.4250
66454SOL     OW16971   9.405   1.259   1.704  0.4475  0.1490 -0.0916
66454SOL    HW116972   9.434   1.350   1.699  2.3467 -0.4345 -0.4313
66454SOL    HW216973   9.330   1.262   1.764  0.7569  1.8555  0.2842
66455SOL     OW16974  11.727   0.270   1.018 -0.0150  0.1358 -0.0024
66455SOL    HW116975  11.666   0.338   1.046 -1.3919 -1.1772  0.3006
66455SOL    HW216976  11.671   0.202   0.980  1.4641 -0.0604 -1.9577
66456SOL     OW16977   2.014   3.765   7.660 -0.2906  0.0253  0.0760
66456SOL    HW116978   1.978   3.853   7.663  0.4289  0.3022  0.6369
66456SOL    HW216979   1.983   3.724   7.741  0.0513  0.0282  0.2081
66457SOL     OW16980   5.724   9.295   3.450 -0.1832 -0.1254 -0.0593
66457SOL    HW116981   5.677   9.321   3.371  2.0373 -0.0530 -1.4454
66457SOL    HW216982   5.747   9.378   3.493 -1.3092 -0.1619  0.6521
66458SOL     OW16983   5.933   9.873   4.080  0.0817 -0.0625 -0.0706
66458SOL    HW116984   5.936   9.816   4.003  1.4387  0.1448 -0.1937
66458SOL    HW216985   5.899   9.956   4.047  0.2963 -0.0922 -0.3760
66459SOL     OW16986   6.173   1.054  12.334 -0.6112 -0.2700  0.5690
66459SOL    HW116987   6.235   1.027  12.402 -0.1166  2.3550  1.3003
66459SOL    HW216988   6.229   1.081  12.261 -1.0637 -1.1740 -0.1227
66460SOL     OW16989   3.015   3.459   7.805  0.1124 -0.2234  0.1095
66460SOL    HW116990   2.987   3.370   7.782  1.7580 -0.6288 -0.4685
66460SOL    HW216991   3.016   3.506   7.722 -1.2369  0.5102  0.4816
66461SOL     OW16992   0.901   2.611   8.454 -0.9341  0.1424  0.1855
66461SOL    HW116993   0.851   2.533   8.478 -0.0827 -1.6418 -3.2557
66461SOL    HW216994   0.836   2.682   8.453 -1.6787 -0.3126  3.6332
66462SOL     OW16995   8.550   3.336   7.109 -0.0399  0.2606  0.1360
66462SOL    HW116996   8.555   3.251   7.153 -0.3027 -0.0109 -0.3425
66462SOL    HW216997   8.638   3.348   7.073 -0.1872 -0.1344 -0.3722
66463SOL     OW16998  11.646   9.028   2.718 -0.2419 -0.2963 -0.3531
66463SOL    HW116999  11.731   8.984   2.716  0.7817  1.5441 -0.4038
66463SOL    HW217000  11.636   9.057   2.808 -0.1445  0.6477 -0.6291
66464SOL     OW17001  12.140   6.364   6.596 -0.6095  0.0055  0.0294
66464SOL    HW117002  12.144   6.408   6.681  1.2252  0.5036 -0.2523
66464SOL    HW217003  12.139   6.271   6.616  2.3054  0.0162  0.6697
66465SOL     OW17004   7.732   2.404   9.689 -0.1625  0.0315 -0.2055
66465SOL    HW117005   7.710   2.483   9.641 -2.0873 -0.5974 -0.4702
66465SOL    HW217006   7.790   2.433   9.760 -1.1095  1.7277 -0.0812
66466SOL     OW17007   0.167   9.128   5.338 -0.1832  0.2051  0.3798
66466SOL    HW117008   0.198   9.143   5.248 -3.1043  1.8743 -0.4785
66466SOL    HW217009   0.233   9.170   5.393  1.1896 -0.0280 -1.0217
66467SOL     OW17010   8.488  10.391  12.953 -0.2546 -0.2454 -0.3219
66467SOL    HW117011   8.573  10.418  12.918  1.2700 -1.2811  2.2972
66467SOL    HW217012   8.450  10.472  12.987 -0.2971  0.1963 -1.3618
66468SOL     OW17013   8.802  12.833   6.872  0.3933 -0.4050 -0.2104
66468SOL    HW117014   8.875  12.798   6.822  0.7517  0.7702 -0.5258
66468SOL    HW217015   8.749  12.882   6.809  0.6529  0.7812  0.4592
66469SOL     OW17016   3.605  10.073   2.915 -0.0843  0.3899 -0.0969
66469SOL    HW117017   3.575  10.164   2.918  0.2278  0.4972 -0.1965
66469SOL    HW217018   3.624  10.057   2.822 -0.1448  0.2197 -0.0806
66470SOL     OW17019   2.363   7.786   2.065 -0.0411 -0.0762  0.3119
66470SOL    HW117020   2.370   7.875   2.099  0.1822 -0.5680  1.6043
66470SOL    HW217021   2.305   7.741   2.126  1.0261 -1.2061  0.5309
66471SOL     OW17022   4.648   9.620   5.781  0.3135  0.0226  0.0021
66471SOL    HW117023   4.562   9.661   5.792  0.4315  0.0803  0.7829
66471SOL    HW217024   4.707   9.673   5.835  0.3955 -1.3562  1.3443
66472SOL     OW17025  14.069  12.576  10.154 -0.2347 -0.4850  0.0543
66472SOL    HW117026  14.058  12.597  10.247 -2.5541 -3.0685  0.5070
66472SOL    HW217027  14.158  12.543  10.147  0.0210 -0.1167  1.3343
66473SOL     OW17028   3.741  10.519   7.450  0.0350 -0.3670  0.2482
66473SOL    HW117029   3.742  10.436   7.498 -1.5800 -1.0361 -0.7980
66473SOL    HW217030   3.692  10.579   7.507 -0.1603 -0.5868  0.3145
66474SOL     OW17031  13.570   2.579   0.023 -0.2502 -1.0161  0.0256
66474SOL    HW117032  13.663   2.600   0.024 -0.1795 -1.2773 -0.4150
66474SOL    HW217033  13.528   2.651   0.069  0.1723 -0.9066  0.2414
66475SOL     OW17034   4.632  13.717  13.080 -0.3892 -0.4540 -0.3926
66475SOL    HW117035   4.585  13.675  13.152 -0.5567 -2.4991 -1.6156
66475SOL    HW217036   4.581  13.795  13.061  0.3393  0.8536  2.4598
66476SOL     OW17037   7.526   5.753  12.211 -0.1082 -0.6735  0.4454
66476SOL    HW117038   7.486   5.707  12.137 -0.0216 -0.4937  0.2862
66476SOL    HW217039   7.453   5.793  12.257 -0.1381 -0.5599  0.3016
66477SOL     OW17040   5.214   1.111   7.925  0.2063 -0.2732  0.3265
66477SOL    HW117041   5.154   1.105   7.999  0.3551  1.0849  0.5757
66477SOL    HW217042   5.160   1.140   7.852  0.2810 -0.5113  0.1727
66478SOL     OW17043  13.258   1.802   8.616  0.6093  0.7106  0.7695
66478SOL    HW117044  13.173   1.804   8.659 -0.8838  1.4745 -1.9459
66478SOL    HW217045  13.259   1.881   8.561  3.0723  0.7024  0.6758
66479SOL     OW17046   5.791   1.915   1.817  0.3715 -0.1502 -0.0194
66479SOL    HW117047   5.761   1.922   1.726 -0.0870 -0.9012  0.0624
66479SOL    HW217048   5.737   1.845   1.854  0.7086  0.0021  0.7703
66480SOL     OW17049   4.596   0.896  10.416 -0.5153  0.4592 -0.1158
66480SOL    HW117050   4.683   0.859  10.429 -0.7063  0.2874  0.7420
66480SOL    HW217051   4.563   0.912  10.504 -0.3745  2.9099 -0.4435
66481SOL     OW17052   5.533   8.625   4.172 -0.7134 -0.3933 -0.1730
66481SOL    HW117053   5.543   8.532   4.191 -0.7468 -0.4663 -0.5108
66481SOL    HW217054   5.439   8.642   4.181 -1.2695 -1.1408 -3.4141
66482SOL     OW17055   9.726   4.297   0.512  0.1447  0.1034 -0.3294
66482SOL    HW117056   9.796   4.281   0.449  0.5499 -1.3307  0.4317
66482SOL    HW217057   9.742   4.233   0.581 -1.4077  0.3452  0.2851
66483SOL     OW17058  10.397   9.207  11.823  0.7722 -0.3395  0.4321
66483SOL    HW117059  10.450   9.227  11.900  0.6089  0.5883  0.3221
66483SOL    HW217060  10.365   9.293  11.794 -0.2258 -0.8128  0.0969
66484SOL     OW17061   4.145   7.970  10.048  0.1741 -0.3156  0.1848
66484SOL    HW117062   4.053   7.944  10.037 -0.2882  1.0964  0.5416
66484SOL    HW217063   4.156   8.046   9.992  0.8770  0.0836  0.8444
66485SOL     OW17064  11.680   3.246   7.248  0.2307 -0.2529 -0.2442
66485SOL    HW117065  11.707   3.220   7.336  0.1516 -0.6183 -0.3305
66485SOL    HW217066  11.597   3.201   7.233  0.4601 -0.5470 -0.6775
66486SOL     OW17067  10.450  10.370   7.048  0.0785  0.0332  0.3606
66486SOL    HW117068  10.501  10.293   7.022 -1.3304 -0.9035  0.2834
66486SOL    HW217069  10.420  10.350   7.136 -1.2339 -0.0187 -0.0790
66487SOL     OW17070  13.067  12.899   5.257  0.2005 -0.0006 -0.0664
66487SOL    HW117071  12.990  12.935   5.300 -0.6115 -0.0008 -1.4808
66487SOL    HW217072  13.140  12.947   5.296 -0.7527  2.3838 -1.0260
66488SOL     OW17073   7.400   9.797   3.715 -0.5994 -0.4713  0.1355
66488SOL    HW117074   7.484   9.789   3.759 -0.6797 -0.1311  0.3582
66488SOL    HW217075   7.405   9.736   3.641 -0.3833 -0.8875  0.4890
66489SOL     OW17076   9.515   6.786   0.505 -0.0951  0.2476 -0.1321
66489SOL    HW117077   9.555   6.867   0.474 -1.5564  0.8037 -0.6987
66489SOL    HW217078   9.421   6.804   0.501 -0.4078 -0.8213  1.5635
66490SOL     OW17079  11.551  10.178   2.389 -0.5969 -0.4296 -0.1139
66490SOL    HW117080  11.482  10.119   2.358 -1.6930 -0.3568  2.0256
66490SOL    HW217081  11.579  10.141   2.472  2.0889 -0.5004 -0.9466
66491SOL     OW17082   6.757  13.990   4.009  0.3280  0.3609 -0.0045
66491SOL    HW117083   6.825  14.035   4.060 -0.1235  0.3124  0.6520
66491SOL    HW217084   6.801  13.965   3.928  1.1108  0.2822  0.4348
66492SOL     OW17085   4.700   8.939  13.493  0.1903  0.1102  0.6895
66492SOL    HW117086   4.744   9.015  13.455 -0.1902 -0.2263 -0.4509
66492SOL    HW217087   4.704   8.872  13.425  1.2482 -1.1941  1.9713
66493SOL     OW17088   6.354   7.010   1.705  0.0065 -0.7114 -0.1853
66493SOL    HW117089   6.447   7.005   1.681 -0.1539  0.2033 -1.0264
66493SOL    HW217090   6.353   7.061   1.786  0.1733  0.0871 -0.6727
66494SOL     OW17091   6.771  11.656   3.918  0.2591  0.9109 -0.2659
66494SOL    HW117092   6.760  11.613   3.833 -1.0736  0.4523  0.1172
66494SOL    HW217093   6.682  11.673   3.948  0.6398 -0.2509  1.6936
66495SOL     OW17094   5.715  13.734   2.169 -0.2542  0.0458  0.2629
66495SOL    HW117095   5.799  13.744   2.125  0.3273 -2.2607  0.7216
66495SOL    HW217096   5.651  13.774   2.109  0.7976 -0.8662 -1.5462
66496SOL     OW17097   0.197  13.281   6.058  0.0729  0.7348 -0.0421
66496SOL    HW117098   0.228  13.232   5.982  0.2004  1.0252 -0.1789
66496SOL    HW217099   0.234  13.234   6.133  0.8597  1.0769 -0.2039
66497SOL     OW17100  13.697   4.065   2.365 -0.2032 -0.2091  0.3514
66497SOL    HW117101  13.666   4.120   2.437  0.4635  1.2684 -0.4540
66497SOL    HW217102  13.627   4.000   2.353 -0.4852 -0.2736  2.0676
66498SOL     OW17103  13.465  11.872   5.794 -0.2958  0.2847  0.2086
66498SOL    HW117104  13.452  11.897   5.885 -0.4793 -1.3402  0.6575
66498SOL    HW217105  13.377  11.869   5.757 -0.3351 -0.3464  0.3462
66499SOL     OW17106  11.627  11.467   2.527  0.4526 -0.1544  0.4289
66499SOL    HW117107  11.651  11.388   2.479 -1.6993 -0.4933 -0.2095
66499SOL    HW217108  11.661  11.539   2.474 -2.4450 -0.4800 -2.1563
66500SOL     OW17109   5.033   2.273   8.434  0.5554  0.5971 -0.1833
66500SOL    HW117110   4.946   2.312   8.423  0.8109  0.9414 -0.9949
66500SOL    HW217111   5.089   2.345   8.462  0.2501  0.0515  2.0481
66501SOL     OW17112   9.106   4.765   0.565  0.6522 -0.5202  0.1574
66501SOL    HW117113   9.064   4.712   0.632  0.3792  1.4484  1.6333
66501SOL    HW217114   9.080   4.724   0.482 -2.4838 -0.6248  1.0562
66502SOL     OW17115  12.490   8.963   2.698 -0.0710  0.3454  1.1347
66502SOL    HW117116  12.410   9.002   2.733  0.8854  0.9540  2.7911
66502SOL    HW217117  12.525   9.030   2.639 -1.3802 -0.4355 -0.6131
66503SOL     OW17118   1.621   8.140   2.055  0.3655 -0.2738  0.5348
66503SOL    HW117119   1.561   8.109   2.123  0.7694  0.0767  1.0580
66503SOL    HW217120   1.565   8.155   1.979  0.0005 -1.2297  0.6057
66504SOL     OW17121   5.632   7.309   4.816 -0.2637  0.2174  0.4680
66504SOL    HW117122   5.692   7.257   4.868 -0.0015  0.4777  0.4283
66504SOL    HW217123   5.655   7.289   4.725  1.7233  2.4577  0.3710
66505SOL     OW17124   2.702  11.831   1.680  0.4242 -0.0105  0.0163
66505SOL    HW117125   2.775  11.776   1.651  1.5145  1.7683 -0.8373
66505SOL    HW217126   2.743  11.897   1.736 -0.8598 -0.1229  1.1375
66506SOL     OW17127   7.559   1.930   9.201 -0.3846  0.1284 -0.1057
66506SOL    HW117128   7.472   1.899   9.226 -0.0545 -1.5797 -0.9357
66506SOL    HW217129   7.547   1.965   9.112 -0.1248 -0.6218 -0.4393
66507SOL     OW17130   0.108   5.163   6.440 -0.2102 -0.0449 -0.6772
66507SOL    HW117131   0.043   5.233   6.437 -1.6716 -1.2217  1.3431
66507SOL    HW217132   0.099   5.117   6.356 -2.2351 -0.3634 -0.3225
66508SOL     OW17133  11.418  12.311   7.632 -0.2240 -0.4807 -0.3092
66508SOL    HW117134  11.338  12.352   7.667 -0.8408 -1.9615  0.0719
66508SOL    HW217135  11.402  12.305   7.538  0.3286  1.0976 -0.5333
66509SOL     OW17136  11.166  12.445   8.719 -0.4064 -0.0067 -0.2547
66509SOL    HW117137  11.098  12.382   8.698 -0.8136  1.4140 -4.0616
66509SOL    HW217138  11.248  12.394   8.716 -1.0044 -1.1904  1.6912
66510SOL     OW17139   3.601  12.508  11.612 -0.6143 -0.1053  0.2635
66510SOL    HW117140   3.684  12.486  11.655 -1.1916  0.8161  1.9525
66510SOL    HW217141   3.594  12.603  11.622 -1.3262 -0.0256 -0.8920
66511SOL     OW17142   6.423   6.082   5.471 -0.0430  0.7080  0.3133
66511SOL    HW117143   6.496   6.127   5.429 -0.0651  0.8097  0.3833
66511SOL    HW217144   6.381   6.033   5.401  0.7311 -0.2155  0.4667
66512SOL     OW17145  12.072  10.553  10.636  0.0615  0.3522 -0.2127
66512SOL    HW117146  12.119  10.546  10.553 -0.9335 -0.3258 -0.7225
66512SOL    HW217147  12.046  10.645  10.641  0.5083  0.4961 -0.4199
66513SOL     OW17148   0.783  10.698   4.334  0.1174 -0.1654 -0.5498
66513SOL    HW117149   0.787  10.788   4.301  1.0444 -0.7224 -2.0923
66513SOL    HW217150   0.775  10.644   4.255 -0.4159 -1.4501  0.3391
66514SOL     OW17151  13.509  13.350   7.099  0.4706  0.0387  0.3440
66514SOL    HW117152  13.596  13.318   7.075 -0.2172 -1.7895  0.1311
66514SOL    HW217153  13.469  13.277   7.147 -1.3136  0.4566 -0.4257
66515SOL     OW17154   6.651   4.563   3.422  1.1156 -0.4914 -0.0202
66515SOL    HW117155   6.629   4.472   3.442  0.7872 -0.5723 -0.6998
66515SOL    HW217156   6.591   4.614   3.476  0.3720 -0.7008 -0.6205
66516SOL     OW17157   7.687   9.623   2.323 -0.2343 -0.0021  0.4599
66516SOL    HW117158   7.657   9.533   2.333  0.5755 -0.2611  0.6653
66516SOL    HW217159   7.678   9.642   2.230  1.8080 -1.1309 -0.0166
66517SOL     OW17160   3.817  13.806  13.736  0.2540  0.5711 -0.4337
66517SOL    HW117161   3.763  13.880  13.764 -3.3791 -1.1979 -2.0211
66517SOL    HW217162   3.791  13.734  13.794  0.3924 -0.5119 -1.6721
66518SOL     OW17163  10.703  13.380   8.837  0.8921 -0.6637  0.3539
66518SOL    HW117164  10.786  13.396   8.792 -0.1293  1.3560 -0.9673
66518SOL    HW217165  10.716  13.417   8.924  0.9756  0.9633 -0.3078
66519SOL     OW17166   7.390  10.225   3.451  0.0023 -0.0029 -0.5232
66519SOL    HW117167   7.373  10.167   3.525 -1.1674 -1.2042 -1.6745
66519SOL    HW217168   7.471  10.271   3.474  0.0487 -0.8505  1.1655
66520SOL     OW17169   2.390  12.056  11.117  0.3131  0.2684  0.5548
66520SOL    HW117170   2.340  12.121  11.167 -2.3127  0.9171 -2.5224
66520SOL    HW217171   2.475  12.097  11.102 -0.7962  2.4727 -0.1292
66521SOL     OW17172   1.045   3.982  11.735  0.2696  0.3928 -0.4885
66521SOL    HW117173   0.979   4.050  11.723  0.4598  0.5440 -0.6720
66521SOL    HW217174   1.005   3.921  11.798  1.1545  2.0616  1.8106
66522SOL     OW17175   3.930  13.556   3.995 -0.6198 -0.3203 -0.2190
66522SOL    HW117176   3.879  13.627   3.957  0.3237 -0.2541 -1.4244
66522SOL    HW217177   3.882  13.476   3.971 -1.6588 -0.1293  1.1042
66523SOL     OW17178   8.148   2.916   1.454 -0.0068  0.3161 -0.3457
66523SOL    HW117179   8.159   2.976   1.528 -2.5952  1.1586 -0.5672
66523SOL    HW217180   8.121   2.833   1.493  2.3708 -0.4409 -0.1377
66524SOL     OW17181   3.585   7.067   0.565  0.2113 -0.4964 -0.2485
66524SOL    HW117182   3.603   7.029   0.479 -0.9202 -1.7563  0.0328
66524SOL    HW217183   3.648   7.026   0.624  1.2028  0.6069 -0.4912
66525SOL     OW17184   6.762  12.909   0.267  0.5735  0.3812  0.5390
66525SOL    HW117185   6.680  12.909   0.317  0.0274  2.9001 -0.2100
66525SOL    HW217186   6.742  12.860   0.188  0.3324 -0.4750  1.1182
66526SOL     OW17187   0.194   3.666   6.324  0.0524  0.4926 -0.1907
66526SOL    HW117188   0.118   3.618   6.292  0.8196 -2.1630  1.5706
66526SOL    HW217189   0.169   3.697   6.411  0.5335  0.7725 -0.1446
66527SOL     OW17190  11.571   3.190   0.413 -0.0263  0.1390  0.2912
66527SOL    HW117191  11.627   3.126   0.370  1.0959 -0.4359  2.4455
66527SOL    HW217192  11.632   3.249   0.457 -1.0147 -0.4403  2.6219
66528SOL     OW17193   4.620   1.420   6.270  0.0240  0.2173  0.0678
66528SOL    HW117194   4.667   1.403   6.351  1.3159  1.2199 -0.4338
66528SOL    HW217195   4.595   1.334   6.237 -0.0889 -0.2204  1.2773
66529SOL     OW17196   2.511   0.465  11.049  0.0402 -0.3777 -0.2653
66529SOL    HW117197   2.418   0.481  11.063  0.3710 -0.0138  1.9817
66529SOL    HW217198   2.519   0.369  11.046 -0.1946 -0.5371  2.0400
66530SOL     OW17199  10.168   0.167   8.395  0.2787  0.1448 -0.2700
66530SOL    HW117200  10.186   0.093   8.337  0.0865 -0.7881  0.8398
66530SOL    HW217201  10.255   0.199   8.420  0.3638 -0.0562 -0.3079
66531SOL     OW17202   6.473   6.353  10.683  0.2762 -0.2736  0.0732
66531SOL    HW117203   6.472   6.304  10.765  0.7116  1.0330  0.8893
66531SOL    HW217204   6.449   6.289  10.616 -0.0490 -1.3705  1.2100
66532SOL     OW17205  12.105   0.559   6.386 -0.1362 -0.2232 -0.6673
66532SOL    HW117206  12.186   0.575   6.337  0.0617 -0.2884 -0.3630
66532SOL    HW217207  12.058   0.494   6.334  0.3493 -0.7372 -0.4605
66533SOL     OW17208   4.122   4.915   2.243  0.4067 -0.3051 -0.0888
66533SOL    HW117209   4.054   4.954   2.298  0.1226 -1.2831  0.2702
66533SOL    HW217210   4.201   4.966   2.262  0.5156 -1.1515  1.8548
66534SOL     OW17211  14.020  12.445   0.825 -0.5221 -0.1935 -0.1375
66534SOL    HW117212  13.940  12.457   0.773 -1.5749 -0.8173  1.2655
66534SOL    HW217213  14.041  12.532   0.858  0.6418  0.3776 -2.1970
66535SOL     OW17214   9.759   5.413   1.998  0.0987  0.2487  0.0977
66535SOL    HW117215   9.719   5.486   1.950 -1.5621 -0.8899 -0.3402
66535SOL    HW217216   9.793   5.355   1.930  3.2782  1.4964  0.4578
66536SOL     OW17217   6.663   6.352  12.941 -0.0409 -0.1649 -0.3076
66536SOL    HW117218   6.611   6.433  12.945  2.0695  1.2833 -0.3032
66536SOL    HW217219   6.618   6.298  12.876 -1.3459  1.1291 -0.5427
66537SOL     OW17220   2.459   9.262  13.892 -0.1615  0.8795  0.0125
66537SOL    HW117221   2.485   9.174  13.918 -0.1444  0.5662 -1.0017
66537SOL    HW217222   2.365   9.266  13.909 -0.3625  0.2926 -0.9093
66538SOL     OW17223  13.345   2.428  10.644 -0.1979 -0.2414 -0.2979
66538SOL    HW117224  13.278   2.430  10.576  1.2928 -0.2504 -1.8153
66538SOL    HW217225  13.416   2.375  10.608  1.7009  1.7938  0.1765
66539SOL     OW17226   7.085   8.577   8.772  0.7447  0.0493  0.2129
66539SOL    HW117227   7.056   8.493   8.807 -0.6354  0.4015 -0.0225
66539SOL    HW217228   7.018   8.639   8.799  0.8975  0.7740 -0.9828
66540SOL     OW17229  10.125   4.274   4.441  0.0480  0.5424  0.2072
66540SOL    HW117230  10.063   4.304   4.507 -0.5052 -0.3421  0.1115
66540SOL    HW217231  10.103   4.323   4.362  1.6403  2.6852  0.9879
66541SOL     OW17232   5.879   6.640   7.393 -0.4176 -0.5601  0.5797
66541SOL    HW117233   5.785   6.624   7.383 -0.4645 -0.4625  0.8677
66541SOL    HW217234   5.885   6.701   7.466 -0.0843 -1.0396  0.9574
66542SOL     OW17235  13.728   1.387  12.949 -0.2419 -0.2457 -0.3628
66542SOL    HW117236  13.772   1.384  12.864 -0.4942 -0.1277 -0.4992
66542SOL    HW217237  13.654   1.446  12.935  0.3621  0.6705  0.2369
66543SOL     OW17238   1.969  11.011   1.664 -0.0553 -0.6213  0.0387
66543SOL    HW117239   2.007  10.964   1.589 -1.0256  0.0575 -0.9113
66543SOL    HW217240   2.020  10.981   1.739  1.7678 -0.4164 -1.0509
66544SOL     OW17241  12.533   5.918   4.775  0.2484  0.0406  0.4863
66544SOL    HW117242  12.505   5.929   4.866  2.0235  1.6853  0.9103
66544SOL    HW217243  12.628   5.908   4.781  0.4019  0.2539 -1.1790
66545SOL     OW17244  13.918   6.906   9.818 -0.5141  0.2803 -0.1299
66545SOL    HW117245  13.999   6.854   9.823 -1.1385 -0.5615  2.0287
66545SOL    HW217246  13.870   6.868   9.744  1.6638  1.8177 -2.5148
66546SOL     OW17247  10.874   1.510   8.381  0.3667  0.5799 -0.0064
66546SOL    HW117248  10.961   1.472   8.398 -0.4283 -0.3397  2.5734
66546SOL    HW217249  10.819   1.475   8.452 -1.6349  2.7070 -0.4000
66547SOL     OW17250  10.340   4.282   1.330  0.0603 -0.1073 -0.2968
66547SOL    HW117251  10.263   4.241   1.368  1.3402  0.0558  2.7826
66547SOL    HW217252  10.402   4.210   1.316 -0.2671 -0.1141 -1.8224
66548SOL     OW17253   8.857   0.632   5.785 -0.3198 -0.3333  0.3368
66548SOL    HW117254   8.932   0.672   5.828 -0.8380  1.9195 -0.7326
66548SOL    HW217255   8.781   0.672   5.826 -0.8618  0.0072 -0.9379
66549SOL     OW17256  13.926   6.066   5.496 -0.1779  0.3788 -0.6659
66549SOL    HW117257  13.837   6.037   5.476 -0.6017  1.9799 -1.1949
66549SOL    HW217258  13.947   6.130   5.428  0.9214  0.9253  0.1548
66550SOL     OW17259  13.777   2.612   4.620  0.3330  1.0944  0.1097
66550SOL    HW117260  13.730   2.689   4.652  3.4015  2.6224  1.2773
66550SOL    HW217261  13.855   2.646   4.577  1.6979 -1.3219  0.4648
66551SOL     OW17262   6.372   0.375  11.637  0.1652  0.1390  0.0589
66551SOL    HW117263   6.342   0.287  11.617 -1.2386  0.3641  1.0972
66551SOL    HW217264   6.293   0.428  11.644  0.8612  1.0899  1.3058
66552SOL     OW17265  10.220  11.230   1.267  0.2506  0.5714 -0.2218
66552SOL    HW117266  10.282  11.160   1.249 -1.8446 -1.1537 -1.1315
66552SOL    HW217267  10.258  11.277   1.341  2.1084 -1.0417 -0.0841
66553SOL     OW17268   5.919   0.642   4.370 -0.4231 -0.0987 -0.1007
66553SOL    HW117269   5.969   0.568   4.405  0.5411 -0.1218 -1.4866
66553SOL    HW217270   5.828   0.621   4.392 -0.0208 -0.9301  0.8785
66554SOL     OW17271  12.349   2.376   5.964 -0.3029 -0.5378 -0.3007
66554SOL    HW117272  12.290   2.318   6.011 -0.1343 -0.3179  0.1888
66554SOL    HW217273  12.294   2.449   5.935 -0.0061  0.4852  1.5382
66555SOL     OW17274   3.465   0.689   0.777 -0.1072  0.2683  0.1754
66555SOL    HW117275   3.382   0.731   0.798  0.4193  0.1676  2.9033
66555SOL    HW217276   3.447   0.595   0.785 -0.6355 -0.0462 -3.2844
66556SOL     OW17277   9.438  14.003   8.977  0.3451  0.0720  0.8806
66556SOL    HW117278   9.517  14.044   8.941  0.7740 -1.0639  0.4752
66556SOL    HW217279   9.456  13.909   8.973 -2.4287 -0.5189 -2.6214
66557SOL     OW17280  13.473   8.405   6.417  0.1456 -1.0332 -0.2618
66557SOL    HW117281  13.563   8.405   6.451 -0.0071 -1.9612  0.1469
66557SOL    HW217282  13.469   8.330   6.358  0.2994  0.3390 -2.1201
66558SOL     OW17283   5.379  11.171   3.162 -0.3088  0.3665  0.0123
66558SOL    HW117284   5.313  11.147   3.097 -0.2967 -0.1670  0.1911
66558SOL    HW217285   5.443  11.223   3.114 -0.2128 -0.1656 -0.4349
66559SOL     OW17286   3.172   9.007  13.092 -0.0914 -0.1328 -0.1550
66559SOL    HW117287   3.214   8.925  13.068 -1.5123 -0.8435 -0.3503
66559SOL    HW217288   3.089   9.006  13.044 -0.5311  1.0007  0.5330
66560SOL     OW17289  10.386   4.504   2.271 -0.0016  0.4648  0.7183
66560SOL    HW117290  10.329   4.436   2.308 -0.1338  0.4222  0.4350
66560SOL    HW217291  10.475   4.472   2.288 -0.0625  0.2017  0.5528
66561SOL     OW17292  13.168   3.805   4.911  0.0618  0.0593  0.0896
66561SOL    HW117293  13.196   3.714   4.908 -0.6108 -0.2034  1.2845
66561SOL    HW217294  13.243   3.854   4.878  1.1898 -0.7859  1.2939
66562SOL     OW17295  10.366   8.427   6.996  0.7844 -0.3926  0.2542
66562SOL    HW117296  10.290   8.429   6.937  1.3923  1.1426 -0.5392
66562SOL    HW217297  10.414   8.507   6.974  2.3865 -1.1109  1.0664
66563SOL     OW17298   2.275   3.336   5.241  0.1880  0.0069 -0.3603
66563SOL    HW117299   2.308   3.266   5.185  2.7048  0.4024  0.5114
66563SOL    HW217300   2.340   3.406   5.234 -0.3945  0.8207  1.5611
66564SOL     OW17301   4.622  11.722   0.332 -0.0601  0.3835  0.1572
66564SOL    HW117302   4.613  11.803   0.383  2.4066 -0.7342  2.6178
66564SOL    HW217303   4.620  11.652   0.397 -1.4774 -1.5530 -1.8461
66565SOL     OW17304   5.664   0.261   2.311  0.1387  0.0975  0.4914
66565SOL    HW117305   5.705   0.336   2.268 -0.3277  1.2187  1.9320
66565SOL    HW217306   5.618   0.215   2.241  1.5462  0.3685 -0.6582
66566SOL     OW17307   3.051  12.144  10.381 -0.0921  0.0060  0.1322
66566SOL    HW117308   2.976  12.200  10.398  0.1562 -0.1759  2.0695
66566SOL    HW217309   3.127  12.199  10.401  0.1763 -0.7653  1.3438
66567SOL     OW17310  13.325   6.746   7.769 -0.0817 -0.4446 -0.1251
66567SOL    HW117311  13.407   6.786   7.798 -0.6737 -0.6305  1.9757
66567SOL    HW217312  13.352   6.663   7.730  0.7138 -0.9457  1.3950
66568SOL     OW17313  11.864  10.754   8.061 -0.4197  0.3824 -0.2411
66568SOL    HW117314  11.832  10.791   7.979 -0.8515 -0.7634 -0.5953
66568SOL    HW217315  11.789  10.762   8.121 -1.0382 -1.2835 -0.7550
66569SOL     OW17316   4.827   6.409   6.830  0.2267  0.2706 -0.0698
66569SOL    HW117317   4.867   6.367   6.753 -0.4551 -0.8220  0.1514
66569SOL    HW217318   4.736   6.423   6.805  0.4653  1.8431 -0.2040
66570SOL     OW17319  10.593   4.026   8.112  0.4598  0.0769  0.2668
66570SOL    HW117320  10.666   4.025   8.050  0.3918  1.1357  0.1487
66570SOL    HW217321  10.525   4.078   8.069  1.2722  2.9467  2.1142
66571SOL     OW17322   9.337  13.209  13.159  0.7276  0.6228  0.1799
66571SOL    HW117323   9.389  13.154  13.218 -0.4628 -0.9609 -0.1864
66571SOL    HW217324   9.272  13.250  13.216  1.5022  1.5443  0.4242
66572SOL     OW17325  12.474   3.825  12.950 -0.1899 -0.2090  0.6182
66572SOL    HW117326  12.502   3.903  12.999 -2.1850  0.3287  0.9941
66572SOL    HW217327  12.448   3.859  12.864  1.8097 -0.9340 -0.3260
66573SOL     OW17328   0.828   0.756   2.611  0.4231  0.0467  0.1171
66573SOL    HW117329   0.899   0.815   2.637  1.1454 -0.5953 -0.3574
66573SOL    HW217330   0.870   0.672   2.597 -0.3615 -0.2413 -0.6144
66574SOL     OW17331  11.928  13.448   6.962 -0.3134 -0.0369  0.3857
66574SOL    HW117332  12.015  13.428   6.927 -0.9981 -1.1752 -0.7627
66574SOL    HW217333  11.926  13.406   7.048  0.5155  0.6318  0.7484
66575SOL     OW17334  11.381   7.935   2.291  0.5310  0.4686 -0.0066
66575SOL    HW117335  11.443   7.993   2.247  1.1668  1.2852  1.8659
66575SOL    HW217336  11.424   7.850   2.293  0.0792  0.1587 -1.7567
66576SOL     OW17337   3.960  12.607   9.048  0.4842  0.5030  0.7562
66576SOL    HW117338   4.006  12.621   8.965  3.1639  0.8939  2.1982
66576SOL    HW217339   4.009  12.660   9.111 -0.0619 -1.5614  3.0270
66577SOL     OW17340  12.943   0.639   9.502  0.0797 -0.2632  0.4138
66577SOL    HW117341  12.909   0.723   9.534 -0.3383 -0.0922 -0.4496
66577SOL    HW217342  12.869   0.579   9.507  0.2881 -0.4985  0.7129
66578SOL     OW17343   1.341  12.986   5.488 -0.0713  0.0234  0.6220
66578SOL    HW117344   1.379  12.986   5.576  0.5262 -0.2207  0.3668
66578SOL    HW217345   1.408  13.024   5.432 -0.1146 -0.6066  0.1290
66579SOL     OW17346   4.454   1.093  13.760  1.0424  0.7439 -0.4754
66579SOL    HW117347   4.523   1.159  13.766  1.3191  0.3905  0.3696
66579SOL    HW217348   4.420   1.086  13.849 -0.7972  1.6503 -1.0657
66580SOL     OW17349  12.496   6.182   8.604 -0.2519  0.1365 -0.3980
66580SOL    HW117350  12.577   6.169   8.654 -0.8816  0.6433  0.7849
66580SOL    HW217351  12.521   6.161   8.514  1.3902  1.0004 -0.1867
66581SOL     OW17352   4.151   7.714  12.502  0.2572 -0.4037  0.0537
66581SOL    HW117353   4.056   7.716  12.493  0.3300  1.3716 -0.7233
66581SOL    HW217354   4.170   7.774  12.574  0.8802  0.7021 -1.0066
66582SOL     OW17355   1.315  14.071   9.412  0.2230 -0.3656 -0.3879
66582SOL    HW117356   1.316  14.128   9.335  1.8624  0.5845  0.2768
66582SOL    HW217357   1.408  14.052   9.428 -0.1847 -1.7703  0.4916
66583SOL     OW17358  12.777   6.569   8.389 -0.2209  0.8320  0.2044
66583SOL    HW117359  12.784   6.526   8.304 -2.1558  0.0997  0.3759
66583SOL    HW217360  12.718   6.643   8.373 -1.1830  0.2589  1.0507
66584SOL     OW17361   9.900   7.135  13.735 -0.5428 -0.2307  0.6194
66584SOL    HW117362   9.953   7.061  13.763  2.5525  2.3373  2.2945
66584SOL    HW217363   9.869   7.175  13.817  1.2121  2.4497  0.1116
66585SOL     OW17364   7.399  12.141   2.272 -0.3503 -0.2296  0.0758
66585SOL    HW117365   7.321  12.166   2.224 -0.9962  2.1139  2.1047
66585SOL    HW217366   7.466  12.203   2.243 -0.4265  0.4379  1.2374
66586SOL     OW17367   5.373   1.064   9.662  0.7865 -0.1356 -0.0060
66586SOL    HW117368   5.325   1.013   9.727  0.5736 -1.1545 -0.9514
66586SOL    HW217369   5.345   1.154   9.678 -2.6198 -0.8157 -1.4446
66587SOL     OW17370   1.222   6.997  12.768 -0.3010 -0.1140  0.1149
66587SOL    HW117371   1.294   6.942  12.736  0.2212  1.0460 -0.7369
66587SOL    HW217372   1.170   7.016  12.690 -0.9082 -0.0058  0.5380
66588SOL     OW17373   2.632  13.710   3.185  0.5372  0.3935 -0.0913
66588SOL    HW117374   2.622  13.687   3.093 -0.2065  0.4421 -0.0309
66588SOL    HW217375   2.709  13.661   3.214 -0.8884 -1.9382  0.0021
66589SOL     OW17376   3.363   6.909   0.928  0.2896  0.0633 -0.0610
66589SOL    HW117377   3.419   6.971   0.883  1.2901  0.4237  1.5770
66589SOL    HW217378   3.274   6.934   0.905  0.6911  1.8261  0.1836
66590SOL     OW17379   3.408   3.335   0.791  0.6087  0.2786  0.0461
66590SOL    HW117380   3.363   3.413   0.823  1.6265  1.0521 -0.3564
66590SOL    HW217381   3.363   3.263   0.835 -0.3217  1.0790  0.4715
66591SOL     OW17382  10.181   6.566   1.216 -0.0173 -0.1833 -0.1257
66591SOL    HW117383  10.256   6.530   1.263 -1.0780 -1.7039  0.5131
66591SOL    HW217384  10.191   6.661   1.223  0.3766 -0.3339  2.4094
66592SOL     OW17385   2.045   2.075   4.359 -0.6392  0.1225  0.4027
66592SOL    HW117386   2.084   1.993   4.391 -0.4812 -0.2051 -0.5907
66592SOL    HW217387   2.107   2.143   4.385 -0.6156 -0.1068  0.9610
66593SOL     OW17388   5.021   4.596   8.757  0.0908  0.1741 -0.4906
66593SOL    HW117389   5.034   4.571   8.849  0.8487  0.9116 -0.3841
66593SOL    HW217390   5.089   4.547   8.709 -1.4604 -1.6653 -0.9403
66594SOL     OW17391   1.438   7.869   7.235 -0.4358  0.1184  0.3040
66594SOL    HW117392   1.378   7.908   7.172  0.7078  0.9249 -0.3439
66594SOL    HW217393   1.425   7.919   7.315  0.6977  1.6267 -0.3924
66595SOL     OW17394  13.949   3.724   2.190 -0.5219  0.6405 -0.3373
66595SOL    HW117395  14.041   3.729   2.164 -0.4250 -0.9855 -0.4060
66595SOL    HW217396  13.947   3.658   2.259 -1.8666 -0.5877 -1.4892
66596SOL     OW17397  11.709  12.447   1.195  0.0380 -0.2918  0.0369
66596SOL    HW117398  11.739  12.360   1.223  0.1648 -0.3160 -0.1776
66596SOL    HW217399  11.775  12.507   1.229 -0.8822 -0.1061  1.6160
66597SOL     OW17400  12.101   6.156   0.233  0.3333 -0.5407 -0.0628
66597SOL    HW117401  12.159   6.122   0.301  1.5980  1.3343 -0.1441
66597SOL    HW217402  12.106   6.091   0.163  1.7198 -0.8230  0.2628
66598SOL     OW17403  11.786  10.974   3.022  0.2076  0.1754 -0.1584
66598SOL    HW117404  11.759  11.065   3.018  0.1394  0.1156 -1.8600
66598SOL    HW217405  11.717  10.930   3.072  0.5815  1.1447  1.2654
66599SOL     OW17406   5.986   0.486   6.106  0.1865 -0.2477 -0.3611
66599SOL    HW117407   6.035   0.429   6.165 -0.3260 -0.4268 -0.1065
66599SOL    HW217408   5.895   0.465   6.122 -0.0162  0.6449 -0.2626
66600SOL     OW17409   6.271  10.308  12.516  0.2168 -0.1194 -0.2143
66600SOL    HW117410   6.260  10.242  12.448 -0.2480  1.1118 -1.3850
66600SOL    HW217411   6.349  10.357  12.489  0.7617 -0.3958  0.8202
66601SOL     OW17412   2.835   0.132   1.677 -0.3239 -0.2562 -0.0422
66601SOL    HW117413   2.886   0.208   1.649  0.6259 -1.1720 -0.8756
66601SOL    HW217414   2.814   0.150   1.769  1.1766  0.3204  0.2142
66602SOL     OW17415  13.553   3.805   7.821 -0.9760 -0.0437  0.6187
66602SOL    HW117416  13.511   3.800   7.907 -1.3603 -1.9614  0.3656
66602SOL    HW217417  13.573   3.898   7.809 -0.8160  0.2561  2.8228
66603SOL     OW17418   3.044   5.537   3.029  0.0803 -0.6276 -0.0769
66603SOL    HW117419   2.971   5.484   3.061 -0.8157  1.4488  1.4983
66603SOL    HW217420   3.006   5.588   2.957  0.0141  0.3371  0.6364
66604SOL     OW17421   4.894   1.017   5.672 -0.0317 -0.3339  0.1076
66604SOL    HW117422   4.986   0.993   5.673  0.4031  1.2670  0.9046
66604SOL    HW217423   4.893   1.112   5.680 -1.7346 -0.2265 -0.8262
66605SOL     OW17424   2.078   1.109   8.692  0.2753  0.8552 -0.0405
66605SOL    HW117425   2.135   1.056   8.636  0.1566  1.2487 -0.5411
66605SOL    HW217426   2.012   1.144   8.632 -0.9113 -0.1296  0.6374
66606SOL     OW17427   7.679  11.383   6.555 -0.6553 -0.8101 -0.4249
66606SOL    HW117428   7.690  11.294   6.522  1.3102  0.1016 -2.4688
66606SOL    HW217429   7.693  11.439   6.478  2.5709  1.4090  1.5456
66607SOL     OW17430   6.760   9.976   1.954 -0.3128 -0.5187  0.2995
66607SOL    HW117431   6.797   9.910   2.013  0.3837  0.2208  0.7100
66607SOL    HW217432   6.672   9.992   1.988 -0.2029 -0.6772  0.6626
66608SOL     OW17433   2.574   0.995   6.848  0.0471 -0.0198 -0.4353
66608SOL    HW117434   2.643   1.034   6.903 -0.3486  0.4299 -0.2488
66608SOL    HW217435   2.545   0.918   6.898  0.1708 -0.0089 -0.3453
66609SOL     OW17436   5.312   5.980   2.955  0.0949  0.4889 -0.3901
66609SOL    HW117437   5.233   5.929   2.936  0.2882 -0.1902  0.5183
66609SOL    HW217438   5.286   6.038   3.026  0.5718 -0.2217  0.3903
66610SOL     OW17439   1.215  13.856  12.885 -0.2335 -0.4720  0.8780
66610SOL    HW117440   1.155  13.923  12.854 -0.3532 -0.1096  1.8556
66610SOL    HW217441   1.160  13.777  12.894 -0.2526 -0.5110  0.4376
66611SOL     OW17442  12.137   6.552   3.044 -0.1782  0.3457  0.2805
66611SOL    HW117443  12.049   6.515   3.034 -0.0605  0.2237 -0.2929
66611SOL    HW217444  12.143   6.573   3.138 -0.9231  0.6302  0.2710
66612SOL     OW17445  10.405   4.028  11.549  0.2120 -0.5791 -0.1420
66612SOL    HW117446  10.360   4.052  11.468  1.1602 -2.4496 -1.3019
66612SOL    HW217447  10.353   3.956  11.585 -0.0197  0.0225  0.7802
66613SOL     OW17448   9.388  13.141   5.802  0.0273  0.3573  0.3918
66613SOL    HW117449   9.322  13.072   5.803  0.6928 -0.2943  0.5238
66613SOL    HW217450   9.374  13.189   5.884 -1.1803  1.1141 -0.2344
66614SOL     OW17451   2.319   1.137  12.348  0.2238  0.0240  0.3299
66614SOL    HW117452   2.386   1.144  12.417 -0.0370 -1.5293  0.7895
66614SOL    HW217453   2.236   1.132  12.395 -0.0270 -0.2211 -0.1295
66615SOL     OW17454   9.877   5.285   4.999  0.4233  0.2616 -0.5354
66615SOL    HW117455   9.812   5.340   4.955 -1.0288 -1.0705 -0.1525
66615SOL    HW217456   9.840   5.269   5.086  0.8392 -1.2293 -0.6068
66616SOL     OW17457  13.823   3.554  11.615 -0.2776 -0.1129 -0.1096
66616SOL    HW117458  13.880   3.631  11.623 -1.4425  0.6914  0.8496
66616SOL    HW217459  13.777   3.567  11.533  0.8440 -0.7362 -0.8602
66617SOL     OW17460   6.731  12.962   1.820  0.1149 -0.0778 -0.3025
66617SOL    HW117461   6.765  12.916   1.743  2.4203  0.3946  0.3696
66617SOL    HW217462   6.785  13.041   1.827 -0.9225  0.5551  1.0476
66618SOL     OW17463   6.969   0.641  13.384 -0.3468 -0.1700 -0.1838
66618SOL    HW117464   7.015   0.558  13.390 -1.4831 -0.7416  1.2589
66618SOL    HW217465   7.038   0.707  13.379  0.5865 -1.1949 -2.1488
66619SOL     OW17466   8.513   7.666   2.681  0.4898  0.2914 -0.3498
66619SOL    HW117467   8.518   7.585   2.629 -0.7958 -1.1726  1.6403
66619SOL    HW217468   8.602   7.680   2.713  0.8783  0.1031 -1.3122
66620SOL     OW17469  13.178   2.645   6.289  0.0179  0.3263 -0.0221
66620SOL    HW117470  13.140   2.568   6.331 -0.6919  0.5998 -0.1563
66620SOL    HW217471  13.269   2.620   6.270 -0.4077 -0.7416 -0.7174
66621SOL     OW17472   5.489   2.232   9.165  0.2296 -0.0950 -0.6313
66621SOL    HW117473   5.496   2.163   9.231  0.6274  0.6745  0.1505
66621SOL    HW217474   5.579   2.255   9.144  0.1438 -1.0358 -2.2431
66622SOL     OW17475   6.380   4.354   2.841  0.0291 -0.1832 -0.7614
66622SOL    HW117476   6.376   4.449   2.856 -0.1485 -0.3064  0.0391
66622SOL    HW217477   6.290   4.329   2.821 -0.1127 -0.3222  0.0047
66623SOL     OW17478   3.271   0.842   6.822  0.2093  0.1761  0.2309
66623SOL    HW117479   3.350   0.790   6.840 -0.1469 -0.4903 -0.0845
66623SOL    HW217480   3.203   0.801   6.874 -0.1954 -0.0142 -0.4304
66624SOL     OW17481   8.545  10.859   8.525 -0.0585  0.2041 -0.0882
66624SOL    HW117482   8.517  10.837   8.614 -0.8846 -0.7285 -0.5531
66624SOL    HW217483   8.597  10.784   8.496  2.4787  1.6139  0.5042
66625SOL     OW17484   4.860  10.190   4.356 -0.4855 -0.1598  0.0871
66625SOL    HW117485   4.866  10.211   4.449  1.7638 -0.8970  0.1637
66625SOL    HW217486   4.772  10.152   4.346 -0.9700  0.4270  1.7686
66626SOL     OW17487   2.696   9.967  11.543 -0.0087 -0.7283  0.8922
66626SOL    HW117488   2.631   9.925  11.486 -0.2026 -0.8571  1.2065
66626SOL    HW217489   2.651  10.044  11.577 -0.2189 -1.1619  1.6130
66627SOL     OW17490   4.589   5.867   3.229 -0.0300 -0.4801 -0.8894
66627SOL    HW117491   4.655   5.865   3.299 -0.1208  0.8086 -0.7459
66627SOL    HW217492   4.630   5.919   3.160 -0.7445 -0.0075 -0.9627
66628SOL     OW17493   4.402  12.259   7.346  0.0925  0.7644  0.2408
66628SOL    HW117494   4.490  12.283   7.375 -0.0074 -0.1133  1.3395
66628SOL    HW217495   4.344  12.316   7.397  0.0332  2.2061 -1.3655
66629SOL     OW17496   3.907  10.533   6.161  0.1942  0.1605  0.4757
66629SOL    HW117497   3.919  10.580   6.244 -0.9731  0.2567  0.6006
66629SOL    HW217498   3.965  10.579   6.099 -1.5142  2.3462  0.3887
66630SOL     OW17499   4.465  12.006   3.983  0.3843  0.6098 -0.1887
66630SOL    HW117500   4.385  12.047   4.017 -0.5645 -1.0922 -0.2996
66630SOL    HW217501   4.516  11.986   4.062  0.3626  1.0147 -0.0691
66631SOL     OW17502   0.089   1.672   6.834  0.2369  0.5581 -0.0039
66631SOL    HW117503   0.018   1.736   6.840 -0.6636 -0.5107  2.2761
66631SOL    HW217504   0.066   1.618   6.759 -0.3572  1.3513 -0.4112
66632SOL     OW17505   5.611   2.332   0.105  0.2005  0.5794 -0.5321
66632SOL    HW117506   5.534   2.297   0.061 -0.4493  2.6317 -1.1758
66632SOL    HW217507   5.664   2.370   0.035  1.7299 -0.5790 -0.0769
66633SOL     OW17508   4.602   6.507   1.089  0.0627 -0.3894 -0.1646
66633SOL    HW117509   4.606   6.503   1.184 -1.6886 -2.0985 -0.0970
66633SOL    HW217510   4.693   6.506   1.060  0.6011 -0.8233  1.4690
66634SOL     OW17511   9.058  11.092  11.882  0.0766 -0.3741 -0.0274
66634SOL    HW117512   8.975  11.076  11.838  0.6267 -1.6234 -0.6615
66634SOL    HW217513   9.052  11.042  11.963  0.0998 -0.2325  0.0620
66635SOL     OW17514  10.977  13.096   9.640  0.1195 -0.1431 -0.0592
66635SOL    HW117515  11.001  13.009   9.669  3.1859  1.0430  1.3450
66635SOL    HW217516  11.030  13.111   9.561 -0.0621  0.5942 -0.0524
66636SOL     OW17517  13.240   9.837   3.264  0.3064  0.5538  0.0071
66636SOL    HW117518  13.250   9.883   3.347  0.6333 -1.2085  1.0091
66636SOL    HW217519  13.183   9.763   3.285 -0.1312  0.4319 -1.5037
66637SOL     OW17520   3.935  14.041   5.547 -0.0328 -0.0497 -0.0661
66637SOL    HW117521   3.922  13.989   5.468 -1.7861  0.3793 -0.1068
66637SOL    HW217522   3.884  14.121   5.532 -0.8838 -0.2050  1.7125
66638SOL     OW17523   4.580  12.023  10.380 -0.4180  0.5634 -0.1739
66638SOL    HW117524   4.513  12.090  10.397 -0.5751  0.8766 -1.8803
66638SOL    HW217525   4.533  11.940  10.388  0.1207  0.4271  3.6295
66639SOL     OW17526   1.778  13.417   8.583 -0.3226 -0.2544  0.2569
66639SOL    HW117527   1.732  13.362   8.520  0.8636 -1.5650  0.4918
66639SOL    HW217528   1.736  13.397   8.667  0.2078 -0.9265  0.3653
66640SOL     OW17529   5.835  13.933   4.698  0.6599  0.1609 -0.4539
66640SOL    HW117530   5.929  13.925   4.684  0.7772 -1.1028  0.8669
66640SOL    HW217531   5.827  13.994   4.771  0.3205  1.9790 -1.9432
66641SOL     OW17532  12.778  12.270  10.392  0.2516 -0.4386  0.0936
66641SOL    HW117533  12.690  12.290  10.423  0.6516  1.6037  0.0329
66641SOL    HW217534  12.832  12.271  10.472  0.4313 -0.3786 -0.0271
66642SOL     OW17535   8.869   6.286   9.340  0.1063  0.3697  0.1301
66642SOL    HW117536   8.904   6.233   9.269 -0.7443 -0.9515  0.6504
66642SOL    HW217537   8.873   6.376   9.307 -0.4591 -0.2135 -1.6892
66643SOL     OW17538  11.652   6.890  13.168  0.6805  0.1147 -0.1677
66643SOL    HW117539  11.744   6.918  13.166  0.9305 -0.6822 -0.1283
66643SOL    HW217540  11.607   6.953  13.112  0.9893  1.3953  0.9410
66644SOL     OW17541   1.026   0.183   4.659  0.6557 -0.1932  0.1637
66644SOL    HW117542   0.954   0.190   4.597  1.1839  0.2635 -0.4119
66644SOL    HW217543   1.050   0.090   4.659  0.9560 -0.1187 -0.6757
66645SOL     OW17544   6.438   5.099  12.672 -0.0148  0.0500 -0.6275
66645SOL    HW117545   6.369   5.161  12.697  0.1090  0.5107 -1.4009
66645SOL    HW217546   6.519   5.144  12.696  0.0496 -0.1527 -0.4621
66646SOL     OW17547  10.290  11.942  10.769 -0.7120  0.5626 -0.5477
66646SOL    HW117548  10.241  11.876  10.819  2.3101 -1.5686 -0.1285
66646SOL    HW217549  10.375  11.946  10.812  0.1091  2.8385 -2.2112
66647SOL     OW17550   6.230  10.885   4.149 -0.0434 -0.5802 -0.9321
66647SOL    HW117551   6.270  10.963   4.187 -1.2674 -0.3249 -0.0893
66647SOL    HW217552   6.193  10.914   4.065 -1.4385  0.0611 -0.1383
66648SOL     OW17553   9.839   2.949  13.542 -0.4936  0.4784 -0.2270
66648SOL    HW117554   9.887   3.032  13.539 -0.7138  0.5799 -1.7732
66648SOL    HW217555   9.755   2.968  13.500 -0.8751 -0.3325  0.1388
66649SOL     OW17556  11.005  11.022   6.815  0.2944 -0.0135 -0.0132
66649SOL    HW117557  10.957  10.959   6.869  2.0725 -1.6299 -0.2165
66649SOL    HW217558  11.040  11.085   6.878 -0.1489 -0.1547  0.3824
66650SOL     OW17559  13.923   9.912  11.456 -0.0767  0.4916 -0.2733
66650SOL    HW117560  13.990   9.859  11.499 -0.5862 -0.7979 -1.0111
66650SOL    HW217561  13.874   9.952  11.528  2.3684  2.6977  0.2887
66651SOL     OW17562   9.837  10.075   4.069 -0.1618 -0.1765 -0.2281
66651SOL    HW117563   9.853  10.061   3.976 -0.0568 -1.8771  0.0030
66651SOL    HW217564   9.743  10.057   4.080 -0.6219  1.9708 -0.2995
66652SOL     OW17565  13.612  10.606  13.593 -0.1939  0.3910  0.0775
66652SOL    HW117566  13.517  10.614  13.591 -0.2572 -0.4064 -1.5741
66652SOL    HW217567  13.634  10.604  13.687 -1.8181  0.3156  0.4842
66653SOL     OW17568   0.670   8.839   6.557 -0.1822  0.0699 -0.1806
66653SOL    HW117569   0.730   8.809   6.625 -2.2179 -0.5993  1.4151
66653SOL    HW217570   0.641   8.925   6.587 -1.6085 -0.5156  0.1865
66654SOL     OW17571   0.870  11.576   7.452  0.1481 -0.1451  0.7030
66654SOL    HW117572   0.965  11.581   7.439  0.1731  1.9840  1.3190
66654SOL    HW217573   0.840  11.514   7.386  1.9642 -0.8811  0.5115
66655SOL     OW17574   2.225  10.151   7.471  0.4287 -0.5249  0.0466
66655SOL    HW117575   2.269  10.103   7.401  0.5970 -1.7583  0.9721
66655SOL    HW217576   2.271  10.126   7.551 -1.3872 -1.1853  0.9444
66656SOL     OW17577   3.966   9.597   4.005  0.2318 -0.2833 -0.0437
66656SOL    HW117578   3.885   9.588   4.055  0.7544 -1.3990  0.6584
66656SOL    HW217579   3.938   9.604   3.914 -0.7260  1.3583  0.3392
66657SOL     OW17580   8.000   0.611   6.371  0.0186  0.1995  0.1464
66657SOL    HW117581   7.982   0.699   6.405  0.7720 -0.5598  2.7983
66657SOL    HW217582   8.075   0.622   6.313 -0.2115  1.3680  0.0533
66658SOL     OW17583   9.088  10.886   0.902 -1.0633  0.4273  0.0724
66658SOL    HW117584   9.108  10.950   0.834 -1.3750  0.8103  0.3347
66658SOL    HW217585   9.106  10.801   0.861 -1.7968  0.6176 -0.6849
66659SOL     OW17586   7.266  11.223   1.025 -0.0744 -0.4643  0.0196
66659SOL    HW117587   7.319  11.161   1.075  0.8336  0.8261  0.7322
66659SOL    HW217588   7.250  11.295   1.087 -1.9099 -0.4144 -0.4745
66660SOL     OW17589   5.257   8.420  12.239  0.0259 -0.0725  0.1555
66660SOL    HW117590   5.185   8.431  12.302  0.4073  0.2536  0.5429
66660SOL    HW217591   5.245   8.492  12.176  0.6534  0.6648  0.8582
66661SOL     OW17592  13.106   3.478  12.551  0.0482  0.2542 -0.1069
66661SOL    HW117593  13.079   3.570  12.556  1.9184  0.8219  0.6120
66661SOL    HW217594  13.161   3.474  12.473 -0.5518 -0.4097 -0.4972
66662SOL     OW17595   7.709  10.661   8.070  0.6863  0.2046 -0.2985
66662SOL    HW117596   7.644  10.714   8.116  0.1471 -0.2823 -0.4757
66662SOL    HW217597   7.658  10.615   8.002  1.0567 -0.8566  0.1266
66663SOL     OW17598   2.127   3.999  11.215 -0.2408 -0.7360 -0.3279
66663SOL    HW117599   2.197   4.059  11.187  0.5556 -2.1078 -1.3797
66663SOL    HW217600   2.129   4.003  11.311  0.4285  0.1999 -0.3684
66664SOL     OW17601  11.080  12.583  12.109 -0.2953 -0.0840 -0.1662
66664SOL    HW117602  11.077  12.569  12.204  1.7477 -1.0319 -0.2053
66664SOL    HW217603  11.102  12.675  12.099  0.2421 -0.1591  0.2979
66665SOL     OW17604   7.334   2.008   4.128 -0.1719 -0.2055  0.4224
66665SOL    HW117605   7.404   1.950   4.099 -0.3331  0.0330 -0.4544
66665SOL    HW217606   7.265   1.948   4.158 -0.0282 -0.4559  0.2573
66666SOL     OW17607   3.767   2.028  10.687  0.3190  0.0441  0.2113
66666SOL    HW117608   3.778   1.934  10.672  1.7289  0.4952 -2.1415
66666SOL    HW217609   3.726   2.060  10.607  0.7077  1.5422  0.5895
66667SOL     OW17610   1.518   5.103   8.180 -0.0563  0.4255 -0.9068
66667SOL    HW117611   1.494   5.023   8.132 -0.5832 -0.0585  0.1300
66667SOL    HW217612   1.442   5.121   8.235  0.8757  0.4392  0.4237
66668SOL     OW17613   6.465  10.682   3.935  0.4696 -0.0656 -0.0940
66668SOL    HW117614   6.438  10.651   4.021  0.9176 -0.8345 -0.2237
66668SOL    HW217615   6.407  10.638   3.873 -2.0917  2.9315 -0.0824
66669SOL     OW17616   9.299   3.471   9.420 -0.2545 -0.1420  0.0456
66669SOL    HW117617   9.252   3.433   9.346 -1.1303  2.2184 -0.7005
66669SOL    HW217618   9.231   3.484   9.487  0.2039 -0.6855  0.6305
66670SOL     OW17619   9.953  11.211   8.533 -0.5745 -0.2546  0.2663
66670SOL    HW117620   9.938  11.290   8.481  0.3595 -0.3175 -0.1059
66670SOL    HW217621  10.023  11.234   8.593  0.3355 -1.0596 -0.4516
66671SOL     OW17622   1.862  13.701   8.671 -0.2066 -0.0605 -0.1647
66671SOL    HW117623   1.868  13.782   8.621 -0.5562  0.1525  0.1362
66671SOL    HW217624   1.866  13.632   8.604  2.3176  0.1020 -0.2699
66672SOL     OW17625  13.194  12.821   6.590  0.1321  0.3028  0.4890
66672SOL    HW117626  13.242  12.902   6.605 -0.1997  0.6256 -0.1388
66672SOL    HW217627  13.225  12.791   6.504  0.1499 -0.1676  0.6543
66673SOL     OW17628   3.297   6.528  11.923 -0.6550  0.3243 -0.7388
66673SOL    HW117629   3.323   6.447  11.879 -1.1339  0.5701 -1.4963
66673SOL    HW217630   3.202   6.525  11.925 -0.6691 -0.5549  2.0001
66674SOL     OW17631   0.616   5.495  10.252  0.4214 -0.6760  0.0702
66674SOL    HW117632   0.660   5.507  10.336 -2.7490  0.8636  1.6563
66674SOL    HW217633   0.637   5.575  10.203  2.5873 -1.7402 -0.8874
66675SOL     OW17634  14.058  13.572  10.010  0.1391 -0.8479  0.7848
66675SOL    HW117635  13.997  13.637   9.976  0.4561 -1.2228 -0.5738
66675SOL    HW217636  14.004  13.496  10.030  0.0863 -1.0763 -0.1432
66676SOL     OW17637   7.459  12.041  10.518  0.1096 -0.5013 -0.2154
66676SOL    HW117638   7.445  12.107  10.585  0.2361 -1.0690  0.3745
66676SOL    HW217639   7.514  12.085  10.453 -1.9523  0.8434 -1.1699
66677SOL     OW17640   6.625   2.761   8.035 -0.2637  0.6505 -0.4798
66677SOL    HW117641   6.719   2.771   8.022 -0.1181 -0.6570 -0.5038
66677SOL    HW217642   6.605   2.672   8.006 -0.8944 -0.4158  2.7517
66678SOL     OW17643   3.551   1.248  13.879 -0.3359  0.5091 -0.0276
66678SOL    HW117644   3.494   1.206  13.813  2.0559 -0.0634 -1.8759
66678SOL    HW217645   3.618   1.182  13.898  1.8171  2.3680 -0.7554
66679SOL     OW17646   9.575  13.565   9.132 -0.2268  0.3523  0.1113
66679SOL    HW117647   9.640  13.635   9.130 -0.6729  0.7686 -0.0812
66679SOL    HW217648   9.498  13.604   9.092 -0.4534 -0.2820 -0.0633
66680SOL     OW17649  11.100   8.458  11.214  0.5886  0.4915  0.2325
66680SOL    HW117650  11.006   8.455  11.231  0.3746 -0.9291 -0.9945
66680SOL    HW217651  11.107   8.500  11.128  0.7801 -2.3770 -1.2419
66681SOL     OW17652   5.302  13.695   7.707 -0.1097 -0.1869  0.7765
66681SOL    HW117653   5.300  13.733   7.619  0.5942 -0.8094  0.4807
66681SOL    HW217654   5.222  13.642   7.711  0.4392 -1.1025  0.0619
66682SOL     OW17655   5.878   6.927   5.217 -0.2175  0.0473  0.0730
66682SOL    HW117656   5.838   6.843   5.194  1.2584 -0.7628  0.3370
66682SOL    HW217657   5.819   6.965   5.281 -0.1798 -1.4994  1.0865
66683SOL     OW17658  14.057  10.037   2.874 -0.2083 -0.4287 -0.2930
66683SOL    HW117659  13.966  10.055   2.849  0.3329  0.6836 -1.5772
66683SOL    HW217660  14.104  10.031   2.791  0.9047 -0.9447  0.3635
66684SOL     OW17661  13.995   7.654   0.597 -0.2387 -0.1511  0.2593
66684SOL    HW117662  13.904   7.656   0.628 -0.1110  0.8381  0.6075
66684SOL    HW217663  14.028   7.741   0.616  1.4253 -1.0933  2.0146
66685SOL     OW17664  12.086  12.187   0.607  0.2872 -0.4560  0.3224
66685SOL    HW117665  12.109  12.273   0.571  1.3308 -1.1013 -0.6534
66685SOL    HW217666  12.164  12.160   0.656 -0.2644 -0.5899  1.1437
66686SOL     OW17667  10.033  13.432   1.948  0.2889 -0.4479 -0.7407
66686SOL    HW117668   9.966  13.485   1.991  2.7798  0.3257  2.6159
66686SOL    HW217669  10.111  13.488   1.946  2.0231 -2.6977 -0.4648
66687SOL     OW17670   0.413   0.579   9.167  0.6566  0.0304 -0.2499
66687SOL    HW117671   0.388   0.524   9.093 -0.4029  0.8206 -0.4978
66687SOL    HW217672   0.422   0.667   9.130 -0.1343  0.4809  0.5951
66688SOL     OW17673   6.083  13.943   5.204 -0.4183  0.2177 -0.4646
66688SOL    HW117674   6.121  13.872   5.153 -0.9140 -0.3538 -0.0433
66688SOL    HW217675   6.150  14.012   5.203  0.0003 -0.1920 -0.9940
66689SOL     OW17676   1.707   0.283   3.498 -0.0228  0.4645  0.5254
66689SOL    HW117677   1.623   0.325   3.514 -0.4719  0.4698 -1.5323
66689SOL    HW217678   1.711   0.212   3.562 -0.6953  1.6229  1.9115
66690SOL     OW17679   0.708   7.686   2.722  0.2427  0.0341 -0.8117
66690SOL    HW117680   0.691   7.780   2.713  2.1260  0.4012 -0.9142
66690SOL    HW217681   0.657   7.660   2.798  2.3074  1.9156  1.3888
66691SOL     OW17682   2.405  10.624  10.655  0.1123 -0.1020 -0.1225
66691SOL    HW117683   2.398  10.576  10.737  0.8898  0.5876  0.3636
66691SOL    HW217684   2.448  10.706  10.679 -0.1896  0.3621 -1.1210
66692SOL     OW17685   3.449   6.054   4.618 -0.3768  0.4289  0.0907
66692SOL    HW117686   3.419   6.033   4.530 -1.1704  0.7515  0.2745
66692SOL    HW217687   3.528   6.002   4.630  0.2476  1.0487 -1.1384
66693SOL     OW17688  13.351   1.389  11.350 -0.3264  0.0785 -0.0292
66693SOL    HW117689  13.320   1.480  11.349 -0.5963 -0.0063  0.5821
66693SOL    HW217690  13.302   1.346  11.280  0.5725  0.6480 -1.0566
66694SOL     OW17691  10.073   7.582  10.048  0.0069 -0.0225  0.1640
66694SOL    HW117692  10.115   7.656  10.005  1.2192  0.3373  1.8576
66694SOL    HW217693  10.027   7.621  10.122 -1.9163 -0.6376 -0.6541
66695SOL     OW17694   2.872   2.724  12.704 -0.1007  0.3219  0.0888
66695SOL    HW117695   2.864   2.742  12.610 -2.2094 -0.9466 -0.0453
66695SOL    HW217696   2.855   2.809  12.746  1.5645  1.0623 -0.6394
66696SOL     OW17697   4.872   5.488   0.930  0.1208 -0.2308  0.5055
66696SOL    HW117698   4.880   5.395   0.947 -0.2280 -0.6334 -1.3550
66696SOL    HW217699   4.953   5.526   0.964  1.8893 -1.7179 -1.7730
66697SOL     OW17700   1.828  12.599   4.740  0.3186 -0.0410 -0.4054
66697SOL    HW117701   1.869  12.548   4.670  0.0799 -0.4046 -0.2809
66697SOL    HW217702   1.896  12.609   4.806  0.4043 -0.0940 -0.4860
66698SOL     OW17703   3.310   9.962   6.101 -0.2137 -0.1325 -0.1002
66698SOL    HW117704   3.311   9.867   6.114  1.8977 -0.2339 -0.7279
66698SOL    HW217705   3.302   9.998   6.189 -2.6671 -0.8336  0.0502
66699SOL     OW17706  12.871   1.530   6.267  0.9909  0.0173  0.2252
66699SOL    HW117707  12.896   1.580   6.190 -0.3865 -0.8049 -0.8117
66699SOL    HW217708  12.842   1.595   6.330 -0.4789  0.5894 -0.9839
66700SOL     OW17709  14.051  14.084   0.412 -0.2370  0.7367 -0.0448
66700SOL    HW117710  14.017  14.008   0.459 -2.6434  1.7507 -0.0379
66700SOL    HW217711  14.100  14.133   0.479 -0.7161  0.4261  0.5453
66701SOL     OW17712   5.615  12.088   3.987 -0.2424  0.1255  0.1059
66701SOL    HW117713   5.582  12.001   3.966 -0.4733 -0.0487  1.1456
66701SOL    HW217714   5.704  12.089   3.950 -1.0323  0.2783 -1.9138
66702SOL     OW17715  13.671  13.054   1.107  0.5857 -0.2905  0.2463
66702SOL    HW117716  13.685  13.042   1.013  0.6397 -0.5516  0.2873
66702SOL    HW217717  13.622  13.136   1.114 -0.7183 -1.0097 -0.1170
66703SOL     OW17718   9.872   4.426  12.009 -0.4614  0.5591  0.3164
66703SOL    HW117719   9.879   4.378  12.092  0.9081 -1.6040 -0.9629
66703SOL    HW217720   9.959   4.463  11.995 -0.5369  0.4573 -0.4250
66704SOL     OW17721   6.293   0.318   9.044 -0.5022  0.1072 -0.2021
66704SOL    HW117722   6.252   0.348   8.962 -0.4586  0.8523  0.0367
66704SOL    HW217723   6.307   0.399   9.094 -0.0500 -0.2891  0.3207
66705SOL     OW17724   3.837  11.354   7.898 -0.7314 -0.0264  0.4785
66705SOL    HW117725   3.812  11.428   7.843 -0.6843 -0.1501  0.2904
66705SOL    HW217726   3.932  11.347   7.888 -0.3022  1.6168  2.6366
66706SOL     OW17727   7.747   4.158   4.737  0.0265 -0.4822 -1.0220
66706SOL    HW117728   7.705   4.225   4.790  2.8581  0.7443 -0.1426
66706SOL    HW217729   7.743   4.079   4.792 -2.2888 -0.8509 -1.5889
66707SOL     OW17730   6.974   3.374   6.297  0.1234  0.3092 -0.2259
66707SOL    HW117731   6.939   3.289   6.269 -0.1723  0.6077 -0.7835
66707SOL    HW217732   7.024   3.405   6.221 -0.1913  0.8674 -0.2085
66708SOL     OW17733   2.446   9.351   4.446 -0.5449 -0.0888  0.1297
66708SOL    HW117734   2.407   9.352   4.359 -1.1748  1.1393  0.4092
66708SOL    HW217735   2.404   9.278   4.490 -0.7782 -0.2469 -0.3435
66709SOL     OW17736   6.611   8.775  12.547  0.0617  0.1720 -0.4382
66709SOL    HW117737   6.665   8.828  12.488  1.0356  0.7316  0.9200
66709SOL    HW217738   6.635   8.684  12.527 -0.6789  0.2680 -1.8811
66710SOL     OW17739   9.342  12.500   2.924  0.3339 -0.1555 -0.9137
66710SOL    HW117740   9.347  12.428   2.861 -0.4518 -0.1895 -0.9501
66710SOL    HW217741   9.263  12.548   2.898 -0.3151 -0.4887  0.3643
66711SOL     OW17742   7.329   1.799   2.702  0.1707  0.1801 -0.5539
66711SOL    HW117743   7.248   1.799   2.752  0.8263  0.8114  0.5643
66711SOL    HW217744   7.313   1.738   2.630 -0.4120 -1.7203  1.0789
66712SOL     OW17745   6.102   0.237   4.657 -0.4911 -0.0515  0.4362
66712SOL    HW117746   6.037   0.243   4.587 -2.0871 -0.5969  1.8301
66712SOL    HW217747   6.147   0.154   4.641 -1.8452 -0.8956  0.8517
66713SOL     OW17748   9.677  10.163   5.852  0.2300  0.1942 -1.0239
66713SOL    HW117749   9.592  10.208   5.852 -0.1869 -0.5361 -0.0468
66713SOL    HW217750   9.661  10.082   5.803 -0.4413 -1.2538  1.3895
66714SOL     OW17751   0.662  10.168  10.399 -0.4285 -0.0948 -0.5450
66714SOL    HW117752   0.742  10.172  10.451 -0.6994 -0.2048 -0.1113
66714SOL    HW217753   0.692  10.155  10.309  0.0612  0.5496 -0.4828
66715SOL     OW17754  11.496   3.058  10.287  0.1115 -1.1503 -0.2372
66715SOL    HW117755  11.440   3.108  10.228  0.5702 -0.5724 -0.1882
66715SOL    HW217756  11.582   3.097  10.278  0.4390 -1.8057 -0.0450
66716SOL     OW17757   5.079   1.556   5.355  0.5502 -0.1886  0.1271
66716SOL    HW117758   5.015   1.533   5.287 -0.3099 -0.3989  0.9780
66716SOL    HW217759   5.091   1.650   5.345  0.1212 -0.1506 -0.0591
66717SOL     OW17760   5.973   9.535   4.195  0.2693  0.1569  0.1273
66717SOL    HW117761   5.922   9.503   4.269 -0.4290  2.1164  0.5428
66717SOL    HW217762   5.911   9.536   4.122  0.5446 -0.2977 -0.1206
66718SOL     OW17763   9.576   1.551   8.503  0.9935 -0.2019  0.2276
66718SOL    HW117764   9.509   1.518   8.444  1.3647 -0.2003 -0.1954
66718SOL    HW217765   9.598   1.476   8.558  1.9579 -0.7328 -0.8437
66719SOL     OW17766   8.788   7.094   1.424  0.7847  0.1329 -0.5575
66719SOL    HW117767   8.881   7.106   1.403  0.9835 -0.9558 -0.3897
66719SOL    HW217768   8.788   7.022   1.487 -0.1408  0.4786 -0.1556
66720SOL     OW17769   2.623   1.615   5.036  0.7755 -0.4966 -0.2081
66720SOL    HW117770   2.718   1.629   5.037  0.6614  0.3576 -0.4780
66720SOL    HW217771   2.593   1.651   5.119  0.6082 -0.1266 -0.4263
66721SOL     OW17772   7.931   2.454  11.418 -0.2337 -0.0003 -0.0308
66721SOL    HW117773   7.942   2.379  11.360  0.1772  0.3322 -0.3843
66721SOL    HW217774   7.894   2.417  11.498 -0.8807 -0.4571 -0.5225
66722SOL     OW17775   1.444   9.458  11.837 -0.0662  0.1704 -0.3755
66722SOL    HW117776   1.524   9.461  11.889 -0.0802 -2.2251 -0.1410
66722SOL    HW217777   1.379   9.502  11.892  0.3585 -0.6798  0.8595
66723SOL     OW17778   7.827  10.813   6.434 -0.0748 -0.0947 -0.6175
66723SOL    HW117779   7.909  10.789   6.477  0.5653  2.5928 -0.1991
66723SOL    HW217780   7.831  10.769   6.349  1.3177 -0.8008 -0.2223
66724SOL     OW17781   7.126  10.637   2.609 -0.0170  0.0210 -0.5702
66724SOL    HW117782   7.057  10.580   2.574 -1.1340  0.6173  0.5774
66724SOL    HW217783   7.160  10.684   2.533 -1.0366 -0.1298 -1.1376
66725SOL     OW17784   4.110   0.355   1.054  0.0340 -0.8050 -0.0886
66725SOL    HW117785   4.146   0.399   0.977 -1.8153 -2.5485 -2.0825
66725SOL    HW217786   4.134   0.263   1.042 -0.2044 -1.0900  1.4790
66726SOL     OW17787   1.135   8.384  13.043 -0.1510  0.4909  0.4587
66726SOL    HW117788   1.079   8.307  13.034  1.7484 -0.8909 -0.2819
66726SOL    HW217789   1.140   8.399  13.138  1.8835 -2.3009  0.9101
66727SOL     OW17790   5.604   6.398   6.669 -0.0109 -0.2056  0.2817
66727SOL    HW117791   5.684   6.444   6.696  0.3716 -1.0431  0.5916
66727SOL    HW217792   5.632   6.309   6.651 -0.6748 -0.2201 -0.7537
66728SOL     OW17793   4.781   1.871  13.002 -0.1931 -0.1789  0.3902
66728SOL    HW117794   4.716   1.942  12.998 -1.0130 -0.9427 -0.6484
66728SOL    HW217795   4.764   1.827  13.085 -0.7828 -0.1533  0.2895
66729SOL     OW17796   2.564   0.140   9.828  0.0164 -0.2950  0.0311
66729SOL    HW117797   2.598   0.213   9.776  2.3591 -1.3108  0.0070
66729SOL    HW217798   2.531   0.182   9.908  0.9773  0.8357 -0.1267
66730SOL     OW17799   0.385   4.697   5.374  0.1149  0.5816  0.1851
66730SOL    HW117800   0.356   4.723   5.287 -0.2781  0.4474  0.2761
66730SOL    HW217801   0.345   4.612   5.390  0.8751  0.2070  0.1580
66731SOL     OW17802   1.406   0.089   7.678 -0.2147  0.4735  0.3674
66731SOL    HW117803   1.439   0.137   7.754 -0.9023  1.1505  0.2517
66731SOL    HW217804   1.391   0.000   7.710  0.3469  0.5270  0.7894
66732SOL     OW17805   0.279   0.326   3.568  0.1612  0.0908  0.1775
66732SOL    HW117806   0.368   0.357   3.586 -0.2337  2.7187 -1.8342
66732SOL    HW217807   0.275   0.317   3.473 -2.3354  2.3278 -0.0348
66733SOL     OW17808   3.280   1.602   2.886  1.0329 -0.5050  0.7106
66733SOL    HW117809   3.272   1.538   2.815  0.5233  0.3532 -0.0221
66733SOL    HW217810   3.214   1.575   2.949 -0.4068  0.2890 -0.3997
66734SOL     OW17811   8.717  13.975   5.272 -0.7677  0.0074 -0.0162
66734SOL    HW117812   8.746  13.884   5.274 -1.0123 -0.1397 -1.5971
66734SOL    HW217813   8.636  13.975   5.324  0.2933 -0.2280  1.7025
66735SOL     OW17814   0.139   9.398   4.551  0.1739  0.0111  0.3330
66735SOL    HW117815   0.124   9.311   4.589 -0.3833  0.6989  1.7621
66735SOL    HW217816   0.066   9.410   4.490 -0.2245 -0.1834  0.7663
66736SOL     OW17817  11.720   4.735   1.947 -0.3300 -0.4176  0.5736
66736SOL    HW117818  11.811   4.752   1.924 -1.1862  0.3651 -2.8166
66736SOL    HW217819  11.695   4.808   2.004  0.9184 -0.2201  0.8848
66737SOL     OW17820   6.001   7.122   2.450 -0.2509 -0.4908  0.0229
66737SOL    HW117821   5.958   7.076   2.522 -1.0088 -1.6774 -1.1434
66737SOL    HW217822   5.929   7.147   2.392  0.1147  2.2471  0.6058
66738SOL     OW17823  11.458   4.310   5.618 -0.2727 -0.1380 -0.2709
66738SOL    HW117824  11.363   4.320   5.621 -0.2022  0.3376  1.0685
66738SOL    HW217825  11.483   4.294   5.709  1.0833  1.1592 -0.3867
66739SOL     OW17826  12.087   9.005   4.285  0.1948  0.3389  0.8080
66739SOL    HW117827  12.171   9.002   4.331 -0.2912 -1.3408  1.7137
66739SOL    HW217828  12.081   8.920   4.241 -0.5693  0.8560 -0.1199
66740SOL     OW17829   3.500   6.366   9.481 -0.2077  0.4898 -0.0805
66740SOL    HW117830   3.482   6.273   9.488  0.8695  0.2412 -0.3439
66740SOL    HW217831   3.428   6.401   9.429 -0.4074 -0.2746 -0.3255
66741SOL     OW17832   4.874   2.115   1.094  0.3073 -0.0826  0.3788
66741SOL    HW117833   4.825   2.061   1.031  0.3213 -0.4571  0.6809
66741SOL    HW217834   4.875   2.202   1.055 -0.0535 -0.2125  0.0632
66742SOL     OW17835   0.811   0.890  10.160  0.1668  0.1376 -0.2268
66742SOL    HW117836   0.845   0.887  10.249 -0.5294 -0.7890  0.0254
66742SOL    HW217837   0.855   0.964  10.120  1.3195 -0.1079  0.5456
66743SOL     OW17838  10.453   4.433  12.024 -0.1589  0.5459  0.4879
66743SOL    HW117839  10.484   4.351  12.064 -0.6710  0.7989  1.4409
66743SOL    HW217840  10.529   4.491  12.029  0.0156  0.3302  0.3805
66744SOL     OW17841   1.811   9.685   1.164 -0.4469  0.2600 -0.1149
66744SOL    HW117842   1.771   9.753   1.110  0.3083  0.8105  0.0034
66744SOL    HW217843   1.738   9.648   1.214 -0.9176  0.7400 -0.4393
66745SOL     OW17844   4.571   3.442  11.461  0.7422  0.0448 -0.8022
66745SOL    HW117845   4.649   3.480  11.502  0.6577  0.1497 -0.7382
66745SOL    HW217846   4.560   3.492  11.380  0.5700  0.2285 -0.6661
66746SOL     OW17847  12.931   3.964   4.825 -0.0629 -0.2291 -0.6891
66746SOL    HW117848  12.935   4.057   4.844 -0.2870 -0.1946 -0.7933
66746SOL    HW217849  13.019   3.931   4.842 -0.4913 -0.4192  1.4628
66747SOL     OW17850  12.524   3.817   0.230  0.4116 -0.5507  0.5099
66747SOL    HW117851  12.504   3.908   0.209  1.2373 -0.4933 -0.0906
66747SOL    HW217852  12.579   3.788   0.157  2.4800 -0.6950  2.0583
66748SOL     OW17853   7.891   7.482   9.297 -0.0396 -0.0925  0.4792
66748SOL    HW117854   7.898   7.413   9.231 -0.4532  0.1666  0.1623
66748SOL    HW217855   7.974   7.479   9.344  0.2047 -0.3658  0.0328
66749SOL     OW17856   5.135   1.607  10.617  0.0746 -0.0344  0.0553
66749SOL    HW117857   5.184   1.601  10.699  0.2946 -1.0701 -0.1397
66749SOL    HW217858   5.064   1.668  10.636  0.7238  0.5524  0.6974
66750SOL     OW17859  11.943   6.095  12.825 -0.3718 -0.2142 -0.1171
66750SOL    HW117860  11.905   6.009  12.808 -0.1420  0.0116 -1.9885
66750SOL    HW217861  11.893   6.155  12.769  1.8820  0.2581 -1.8092
66751SOL     OW17862   7.562  10.324   1.403 -0.4782 -0.3721 -0.2829
66751SOL    HW117863   7.537  10.232   1.391  2.3252 -1.5041  1.5632
66751SOL    HW217864   7.618  10.343   1.328  0.1273 -0.6736  0.0847
66752SOL     OW17865   4.299   8.485  13.158 -0.3651  0.5381  0.3679
66752SOL    HW117866   4.296   8.483  13.254 -0.1053  0.0622  0.3690
66752SOL    HW217867   4.257   8.403  13.131  2.0053 -0.6803  0.1438
66753SOL     OW17868  10.463   4.955  13.567 -0.3795  0.0518 -0.2209
66753SOL    HW117869  10.382   4.959  13.515  0.0944 -0.3680 -1.0195
66753SOL    HW217870  10.497   4.867  13.552 -0.2274 -0.0680  0.8162
66754SOL     OW17871   3.267  12.645   3.099 -0.6023  0.1475  0.4371
66754SOL    HW117872   3.207  12.621   3.170 -0.1891  0.5168  0.9186
66754SOL    HW217873   3.212  12.686   3.033 -0.7633  1.2422  1.2361
66755SOL     OW17874   5.963  10.686   5.501  0.5010  0.3369 -0.0668
66755SOL    HW117875   6.050  10.710   5.533  0.2205 -0.8402  1.6788
66755SOL    HW217876   5.936  10.613   5.556 -1.5871  0.6405 -0.6045
66756SOL     OW17877   9.221  11.165   5.461  0.8013  0.2445  0.5509
66756SOL    HW117878   9.147  11.149   5.519 -1.0011  0.2097 -1.6277
66756SOL    HW217879   9.298  11.146   5.515 -0.7932 -1.6420  2.3220
66757SOL     OW17880   5.052   7.376  10.047  0.3681  0.7171  0.2138
66757SOL    HW117881   5.097   7.362   9.964 -0.6730  3.1754 -0.8662
66757SOL    HW217882   4.959   7.381  10.022 -0.0273  0.7455  1.6410
66758SOL     OW17883   5.594   1.576  12.786 -0.3694 -0.0802 -0.3226
66758SOL    HW117884   5.541   1.537  12.716 -0.1386 -0.7923 -0.1092
66758SOL    HW217885   5.562   1.666  12.792 -0.0597  0.1446 -1.6694
66759SOL     OW17886  10.181   6.953  11.964  0.3528 -0.0283  0.3441
66759SOL    HW117887  10.088   6.935  11.976  0.0494  0.7223 -0.6864
66759SOL    HW217888  10.214   6.879  11.913 -0.2590  0.8660 -1.4410
66760SOL     OW17889   3.006  12.683   8.952 -0.1701 -0.2548  0.0528
66760SOL    HW117890   3.023  12.687   9.046  1.7412 -0.8243 -0.2460
66760SOL    HW217891   3.060  12.612   8.920  0.2801  0.8087 -1.6926
66761SOL     OW17892  13.459  13.023   5.077 -0.0861  1.0771  0.8481
66761SOL    HW117893  13.548  13.054   5.086  1.8722 -3.2010 -0.8842
66761SOL    HW217894  13.427  13.063   4.996  1.9630 -0.4313 -0.8181
66762SOL     OW17895   5.411   1.289   7.951 -0.0947  0.8856 -0.3699
66762SOL    HW117896   5.499   1.254   7.935  0.1343  1.8093 -1.1678
66762SOL    HW217897   5.357   1.210   7.960  0.5782  0.3044 -1.1872
66763SOL     OW17898  13.034  11.908   3.981 -0.2122 -0.5394  0.4057
66763SOL    HW117899  12.944  11.899   3.949  0.2969 -1.1102 -0.9176
66763SOL    HW217900  13.054  11.824   4.020  0.2558 -0.9627 -0.6995
66764SOL     OW17901  13.662  11.582   4.939 -0.1189  0.1951  0.4171
66764SOL    HW117902  13.585  11.584   4.883 -0.0499  1.6839  0.3371
66764SOL    HW217903  13.706  11.666   4.922  0.7590 -0.0256  1.5047
66765SOL     OW17904  10.866  12.702  12.962 -0.0063  0.4314  0.3516
66765SOL    HW117905  10.955  12.711  12.996 -0.0661 -3.1754  1.8590
66765SOL    HW217906  10.877  12.677  12.871  0.6853 -1.7393  0.9800
66766SOL     OW17907  12.530  11.837   2.020  0.1125  0.2951 -0.4117
66766SOL    HW117908  12.529  11.765   2.083  0.0481  1.6250  1.1872
66766SOL    HW217909  12.456  11.892   2.045  0.5581  1.2612 -1.1502
66767SOL     OW17910   7.347  13.385  12.812  0.3183 -0.0559  0.1290
66767SOL    HW117911   7.437  13.354  12.809 -0.0897 -1.2084 -1.4936
66767SOL    HW217912   7.339  13.442  12.735 -0.8068 -1.4533 -0.8492
66768SOL     OW17913   6.225   0.496   7.298  0.2767 -0.3100  0.0994
66768SOL    HW117914   6.203   0.440   7.372 -0.0641 -1.2484 -0.6865
66768SOL    HW217915   6.247   0.581   7.337 -3.2116  0.3073  1.0686
66769SOL     OW17916   2.858   1.507   4.508 -0.2024  0.3150 -0.0437
66769SOL    HW117917   2.839   1.496   4.601 -2.8482  1.5075 -0.3207
66769SOL    HW217918   2.944   1.548   4.505  0.5890 -1.1037  1.7749
66770SOL     OW17919  13.735   9.870  13.848 -0.0941 -0.3221 -0.2403
66770SOL    HW117920  13.779   9.955  13.842 -0.5418 -0.1486 -1.2641
66770SOL    HW217921  13.686   9.874  13.930  2.2250 -0.7460  1.2520
66771SOL     OW17922  11.190  12.430   6.443 -0.2539 -0.4420  0.0071
66771SOL    HW117923  11.105  12.387   6.433 -0.3901 -1.6243  4.3705
66771SOL    HW217924  11.254  12.365   6.415 -0.6725 -1.2283  0.8544
66772SOL     OW17925  11.871   8.690   1.422  0.0409  0.3081 -0.4670
66772SOL    HW117926  11.797   8.735   1.463  0.0448 -0.4471  0.4063
66772SOL    HW217927  11.940   8.690   1.488 -0.0271 -1.1220 -0.3497
66773SOL     OW17928   1.495  13.896  11.877 -0.5817 -0.1958  0.3163
66773SOL    HW117929   1.440  13.952  11.823 -1.3585 -1.6775 -0.5040
66773SOL    HW217930   1.499  13.941  11.962 -1.6841  0.7783 -0.1153
66774SOL     OW17931   2.030   8.141   8.487  0.0089  0.3890 -0.3073
66774SOL    HW117932   2.085   8.072   8.449 -0.0901  0.5474 -0.7531
66774SOL    HW217933   1.951   8.096   8.516 -0.0840  0.3161 -0.6582
66775SOL     OW17934   0.567   3.414  14.087  0.2064 -0.2431 -0.1249
66775SOL    HW117935   0.630   3.462  14.033  1.5970 -3.1788 -1.3307
66775SOL    HW217936   0.492   3.399  14.030  0.7844 -1.5004 -0.5883
66776SOL     OW17937   6.408   5.549   3.208 -0.1442 -0.1605 -0.2352
66776SOL    HW117938   6.442   5.499   3.134  1.2227 -1.7434  1.3723
66776SOL    HW217939   6.316   5.566   3.185  0.2667 -0.4456 -2.3152
66777SOL     OW17940  10.685   1.427  12.199  0.0730 -0.0281 -0.0474
66777SOL    HW117941  10.711   1.502  12.146  0.0937 -0.1465 -0.2047
66777SOL    HW217942  10.591   1.438  12.213  0.1492  0.2317  0.2546
66778SOL     OW17943  11.636   9.211  12.533  0.1869 -0.0110 -0.3491
66778SOL    HW117944  11.668   9.248  12.451 -0.3329  0.3889 -0.3758
66778SOL    HW217945  11.590   9.131  12.507  0.7551 -0.3397 -0.3568
66779SOL     OW17946   7.359   8.564   8.504  0.2445  0.3115  0.3814
66779SOL    HW117947   7.392   8.608   8.425 -1.4921  0.1175 -0.5117
66779SOL    HW217948   7.398   8.612   8.577  0.8324  1.3661 -0.5913
66780SOL     OW17949   0.311  13.335  13.161 -0.4175 -0.0295  0.4507
66780SOL    HW117950   0.361  13.381  13.093 -0.5543 -0.9818 -0.3239
66780SOL    HW217951   0.364  13.257  13.180 -0.5747  0.0345  1.1620
66781SOL     OW17952   3.141  10.844   1.852 -0.1954 -0.1591  0.2846
66781SOL    HW117953   3.221  10.896   1.854  1.0463 -2.0013  1.9323
66781SOL    HW217954   3.166  10.762   1.812 -1.4440 -0.5201  0.1850
66782SOL     OW17955  12.653  12.283  10.763 -0.6593  0.0652 -0.1119
66782SOL    HW117956  12.670  12.362  10.814  1.3992 -0.1938 -0.3187
66782SOL    HW217957  12.558  12.275  10.762 -0.8180  1.0869  2.1253
66783SOL     OW17958   0.294   3.990   8.282 -0.0716 -0.5296 -0.3910
66783SOL    HW117959   0.381   4.018   8.254 -0.1207 -1.1223 -1.1665
66783SOL    HW217960   0.256   3.950   8.204 -0.2817 -2.0857  0.4780
66784SOL     OW17961   1.518   5.157   1.573  0.1363 -0.0192  0.1950
66784SOL    HW117962   1.534   5.215   1.499  0.9165  0.3881  0.6717
66784SOL    HW217963   1.422   5.153   1.580  0.0448  1.9239  0.6918
66785SOL     OW17964   6.325  11.037   7.573 -0.1832  0.1620 -0.1631
66785SOL    HW117965   6.302  10.944   7.574  0.5778 -0.0249  0.0827
66785SOL    HW217966   6.338  11.057   7.480  0.1440 -0.1028 -0.1774
66786SOL     OW17967   2.727   1.853  10.475 -0.0265 -0.5837 -0.4990
66786SOL    HW117968   2.672   1.919  10.432 -2.8202 -2.1504  0.4120
66786SOL    HW217969   2.760   1.897  10.553 -0.6170  0.1936 -0.6663
66787SOL     OW17970   2.702  10.938  13.739  0.4013  0.1115 -0.0697
66787SOL    HW117971   2.680  10.940  13.832  0.0539  0.4103 -0.1565
66787SOL    HW217972   2.623  10.968  13.695 -0.0895 -1.7951 -0.5901
66788SOL     OW17973  13.020   6.798   4.978 -0.5776 -0.2300  0.0468
66788SOL    HW117974  12.964   6.853   4.923 -3.1439 -1.1759  1.4855
66788SOL    HW217975  13.025   6.845   5.062  1.6453  0.2714 -0.3061
66789SOL     OW17976  13.923   9.952   7.593  0.9761  0.1526 -0.7494
66789SOL    HW117977  13.953   9.954   7.502 -0.8854  1.6206 -1.3933
66789SOL    HW217978  13.902   9.860   7.610  0.6551 -0.0319 -2.0585
66790SOL     OW17979  14.078   6.077  10.043  0.6027 -0.0699  0.9880
66790SOL    HW117980  14.089   6.036  10.129  2.6490 -0.3925  0.6365
66790SOL    HW217981  14.020   6.151  10.059  1.0656 -0.0238  2.6774
66791SOL     OW17982  11.578   8.511  12.182  0.0500  0.3069 -0.1200
66791SOL    HW117983  11.660   8.561  12.189  1.1802 -1.4774 -0.0851
66791SOL    HW217984  11.577   8.477  12.093 -1.7709  2.0561 -0.8457
66792SOL     OW17985   1.147   3.116  11.164 -0.3816 -0.0084 -0.2843
66792SOL    HW117986   1.234   3.091  11.195 -0.4232  1.2554  0.9633
66792SOL    HW217987   1.148   3.212  11.166 -1.3432  0.0542 -1.5994
66793SOL     OW17988  11.520  12.002   5.427 -0.4944 -0.1531 -0.0831
66793SOL    HW117989  11.484  11.928   5.476  0.0091 -0.6968 -0.5237
66793SOL    HW217990  11.505  12.078   5.483 -1.3188 -0.5385  0.2276
66794SOL     OW17991   3.012   8.198   7.572  0.0077 -0.0127  0.0475
66794SOL    HW117992   2.993   8.266   7.636 -1.3482  0.3105 -0.6671
66794SOL    HW217993   3.069   8.136   7.618 -2.2735 -0.6841  2.1580
66795SOL     OW17994  13.526  11.194  12.248 -0.4480 -0.0518  0.4767
66795SOL    HW117995  13.442  11.177  12.291 -0.1163 -0.2629  1.0702
66795SOL    HW217996  13.509  11.264  12.186 -1.1333 -0.3176  0.3637
66796SOL     OW17997   5.228   8.615   5.255 -0.3562 -0.5607 -0.0966
66796SOL    HW117998   5.312   8.623   5.211 -0.1258 -0.4612  0.3513
66796SOL    HW217999   5.186   8.700   5.244  0.0657 -0.2524  0.5986
66797SOL     OW18000   3.437   9.118   6.393 -0.1726  0.3405 -0.1041
66797SOL    HW118001   3.484   9.105   6.476  1.8765 -0.0474 -1.2579
66797SOL    HW218002   3.434   9.213   6.383 -0.5344  0.3947  0.4612
66798SOL     OW18003  12.653  12.420   6.343  0.1439 -0.0235  0.1495
66798SOL    HW118004  12.614  12.338   6.374 -1.5513  0.7519  0.1427
66798SOL    HW218005  12.645  12.415   6.248  0.4666 -0.0544  0.1242
66799SOL     OW18006  12.515   3.316   7.583 -0.3399  0.2915  0.2038
66799SOL    HW118007  12.509   3.221   7.571  0.4538  0.0866  1.2928
66799SOL    HW218008  12.479   3.353   7.502  0.4900 -0.9473 -0.7577
66800SOL     OW18009  11.415   9.166   6.470 -0.1440 -0.8022 -0.0924
66800SOL    HW118010  11.390   9.204   6.386 -1.3163 -1.7220 -0.1860
66800SOL    HW218011  11.485   9.223   6.502 -2.2560  1.9014  0.0860
66801SOL     OW18012   7.470   2.377   5.646  0.1860  0.1355 -0.2465
66801SOL    HW118013   7.410   2.347   5.714  1.1408  1.3278  1.1767
66801SOL    HW218014   7.423   2.448   5.602 -0.3140 -0.4384 -0.6601
66802SOL     OW18015   1.313   5.208   3.177 -0.3219 -0.5135  0.2905
66802SOL    HW118016   1.220   5.186   3.168 -0.0013 -2.1279  0.5559
66802SOL    HW218017   1.341   5.230   3.089 -0.4313 -2.4094 -0.2696
66803SOL     OW18018   8.359  12.374  13.754 -0.3856 -0.0998 -0.0056
66803SOL    HW118019   8.321  12.286  13.753  1.7540 -1.1064 -1.8266
66803SOL    HW218020   8.313  12.419  13.826  0.3060 -3.5318  2.8717
66804SOL     OW18021   7.175  11.450   1.176 -0.1878 -0.5471  0.2028
66804SOL    HW118022   7.090  11.417   1.206 -0.0213  0.1480  1.5413
66804SOL    HW218023   7.156  11.496   1.094 -1.5217  1.4100  1.5231
66805SOL     OW18024   7.690  13.657   3.454  0.7296  0.2024 -0.3100
66805SOL    HW118025   7.735  13.645   3.538  1.0529  2.5440 -0.0603
66805SOL    HW218026   7.755  13.632   3.389  0.8669 -0.5689  0.1101
66806SOL     OW18027   3.828  11.721  10.874 -0.3735  0.1253  0.0953
66806SOL    HW118028   3.853  11.629  10.881 -0.6366  0.0453  0.0018
66806SOL    HW218029   3.779  11.739  10.954 -0.4824  0.1340  0.0263
66807SOL     OW18030   5.496   8.974  10.230  0.4766 -0.3314 -0.2960
66807SOL    HW118031   5.472   8.892  10.273  2.0629  0.2336  1.8211
66807SOL    HW218032   5.521   8.948  10.141 -1.3558 -1.7617 -0.4602
66808SOL     OW18033  10.894  11.436   2.350  0.1433 -0.4231  0.2145
66808SOL    HW118034  10.812  11.409   2.392 -1.0517 -0.1442 -1.8052
66808SOL    HW218035  10.906  11.527   2.378  0.2482 -0.7264  1.1984
66809SOL     OW18036   8.650   1.322   4.728  0.3481 -0.0443  0.2583
66809SOL    HW118037   8.713   1.369   4.783  2.2330 -1.1804 -0.8187
66809SOL    HW218038   8.646   1.373   4.647  0.2646 -0.2254  0.1468
66810SOL     OW18039   0.937   3.160   2.939 -0.0733 -0.3297 -0.1499
66810SOL    HW118040   0.900   3.110   2.866 -0.0824 -0.3681 -0.1185
66810SOL    HW218041   1.005   3.214   2.898  2.7798 -3.2768  0.3993
66811SOL     OW18042   3.834   7.936   7.263  0.4725 -0.0544 -0.4345
66811SOL    HW118043   3.781   7.936   7.182  0.4798  0.2831 -0.4392
66811SOL    HW218044   3.912   7.986   7.240  1.4093 -1.6181 -0.8190
66812SOL     OW18045   6.078   5.208   3.410  0.0847 -0.2481  0.1100
66812SOL    HW118046   6.115   5.246   3.490  0.3067 -0.2871  0.0258
66812SOL    HW218047   6.097   5.115   3.416  1.4755 -0.0434 -0.7149
66813SOL     OW18048   4.201   5.960  10.089  0.0130 -0.1265  0.2941
66813SOL    HW118049   4.223   6.048  10.121  0.9961 -0.4283  0.4655
66813SOL    HW218050   4.283   5.911  10.093 -0.6305 -1.2050  0.6501
66814SOL     OW18051  13.377   4.875   0.779 -0.3255 -0.5515 -0.7720
66814SOL    HW118052  13.412   4.905   0.695  1.9152 -1.1177 -0.1059
66814SOL    HW218053  13.304   4.934   0.797  0.8024  1.2851 -1.8799
66815SOL     OW18054   3.911   2.658   9.721  0.2150  0.2059  0.4683
66815SOL    HW118055   3.939   2.630   9.808 -0.0937  0.1407  0.5467
66815SOL    HW218056   3.820   2.631   9.714  0.1512  0.4666  0.2349
66816SOL     OW18057   2.007  10.183  11.050 -0.8339 -0.4071 -0.6099
66816SOL    HW118058   2.057  10.202  11.129 -2.0219  0.5430 -0.0547
66816SOL    HW218059   2.073  10.170  10.982  0.1958 -0.9028  0.4601
66817SOL     OW18060   6.252   1.265   4.820  0.0527  0.6644 -0.1815
66817SOL    HW118061   6.200   1.269   4.901  2.1259 -2.3995  1.5043
66817SOL    HW218062   6.216   1.190   4.772  0.7189  0.6312 -0.6438
66818SOL     OW18063  11.821   6.624  13.255  0.3950  0.3007  0.5971
66818SOL    HW118064  11.873   6.652  13.330 -0.7623  1.1582  1.1134
66818SOL    HW218065  11.732   6.653  13.275 -0.4859 -1.8502  0.1361
66819SOL     OW18066  13.602  10.948   5.397 -0.6038  0.6446 -0.2421
66819SOL    HW118067  13.540  11.012   5.363  0.8543  1.4609 -1.4964
66819SOL    HW218068  13.672  11.000   5.437  0.8923 -0.0774 -1.7822
66820SOL     OW18069  13.045   9.922   9.277  0.7685 -0.5298 -0.1726
66820SOL    HW118070  12.977   9.884   9.333 -0.1786 -0.2307 -1.0970
66820SOL    HW218071  13.078   9.997   9.327  0.0848 -0.3959  0.0878
66821SOL     OW18072   7.609  13.725   1.674  0.3506  0.3591  0.7606
66821SOL    HW118073   7.693  13.765   1.696  0.8004 -0.4310  0.5122
66821SOL    HW218074   7.563  13.720   1.758  0.7403  0.3627  0.9791
66822SOL     OW18075   3.789   1.851  13.552 -0.2401 -0.3558  0.0820
66822SOL    HW118076   3.725   1.919  13.575  0.3772  1.1994 -2.4208
66822SOL    HW218077   3.737   1.770  13.548 -1.1059 -0.0182  2.5378
66823SOL     OW18078   5.214   0.398   4.859 -0.6277  0.4582 -0.0873
66823SOL    HW118079   5.134   0.361   4.896 -1.4211 -1.9511 -3.7138
66823SOL    HW218080   5.283   0.372   4.921 -1.9994 -1.9372  0.5525
66824SOL     OW18081  10.855   2.084   7.668 -0.2819  0.2796  0.1650
66824SOL    HW118082  10.814   2.133   7.597 -0.5822  1.2850  0.9969
66824SOL    HW218083  10.821   2.125   7.748  2.2097  1.1115  0.9019
66825SOL     OW18084   7.193   5.527   0.690  0.0700  0.3589 -0.2798
66825SOL    HW118085   7.241   5.610   0.684  0.1856  0.6362  2.7273
66825SOL    HW218086   7.113   5.542   0.641  0.5625  1.8899 -0.6736
66826SOL     OW18087  12.925  12.303  13.037  0.3472 -0.1840  0.0375
66826SOL    HW118088  12.919  12.366  13.108  0.1410 -0.8738  0.6466
66826SOL    HW218089  12.866  12.336  12.970 -0.3368 -0.1248  0.6638
66827SOL     OW18090  13.790   3.618   7.353 -0.5050  0.2396  0.0392
66827SOL    HW118091  13.777   3.623   7.448 -0.2099  0.2700  0.0788
66827SOL    HW218092  13.743   3.693   7.318 -0.7310  0.1509  0.1484
66828SOL     OW18093   7.914   8.497   3.327 -0.4392  0.2679  0.4496
66828SOL    HW118094   7.909   8.559   3.254 -1.4542 -0.0286  0.2497
66828SOL    HW218095   7.959   8.421   3.290 -0.3969  0.3616  0.3044
66829SOL     OW18096  11.811   6.181   5.157  0.1091 -0.0864  0.4921
66829SOL    HW118097  11.850   6.264   5.184 -0.4438  0.2141  0.3823
66829SOL    HW218098  11.716   6.193   5.168 -0.0386 -0.4163 -0.2879
66830SOL     OW18099  12.299  10.624   9.938  0.1692 -0.5296  0.3120
66830SOL    HW118100  12.332  10.635   9.849 -1.2309  1.7811 -0.0334
66830SOL    HW218101  12.210  10.592   9.927  0.3195 -1.1797  0.9322
66831SOL     OW18102   2.408   6.188  12.176  0.5082  0.2349 -0.1947
66831SOL    HW118103   2.450   6.163  12.093  1.8212  0.2475  0.4474
66831SOL    HW218104   2.374   6.106  12.211  0.3608  0.1555 -0.5200
66832SOL     OW18105   3.270   6.347   9.297 -0.5182 -0.1711 -0.4217
66832SOL    HW118106   3.285   6.396   9.215  0.9311 -0.1119 -0.1546
66832SOL    HW218107   3.179   6.365   9.319 -0.8211  0.1581 -1.7994
66833SOL     OW18108   3.481   1.094  13.329  0.4576  0.2822  0.5428
66833SOL    HW118109   3.545   1.155  13.365  1.4373 -1.0725  1.2156
66833SOL    HW218110   3.439   1.055  13.406  0.7626 -0.7836  0.1992
66834SOL     OW18111   3.331   6.799   2.151  0.0297 -0.3295 -0.1184
66834SOL    HW118112   3.330   6.893   2.168 -1.4702  0.1754 -2.5191
66834SOL    HW218113   3.321   6.758   2.237 -2.5752  1.7886  0.7051
66835SOL     OW18114   7.671   0.959   2.380 -0.2409 -0.1714 -0.3839
66835SOL    HW118115   7.578   0.979   2.389 -0.1726  0.7659 -1.4978
66835SOL    HW218116   7.713   1.045   2.375  0.5939 -0.5937 -0.7545
66836SOL     OW18117   0.156   5.326   3.324 -0.1170  0.6392 -0.3327
66836SOL    HW118118   0.201   5.266   3.383 -0.7489 -1.4693 -1.8712
66836SOL    HW218119   0.224   5.358   3.265 -0.3135 -1.6584 -1.9377
66837SOL     OW18120   1.179   1.056   8.323 -0.2618  0.0870  0.7663
66837SOL    HW118121   1.153   1.004   8.246 -1.1341  2.2778 -0.5320
66837SOL    HW218122   1.273   1.071   8.311  0.0328 -1.2437  1.2324
66838SOL     OW18123  13.207   3.546  12.287 -0.3790  0.3293 -0.6622
66838SOL    HW118124  13.128   3.569  12.237  0.2993  0.8797 -1.5220
66838SOL    HW218125  13.280   3.573  12.231  0.4400 -0.6652 -0.1255
66839SOL     OW18126   3.639   8.496  11.321  0.0146 -0.2507  0.4962
66839SOL    HW118127   3.588   8.566  11.281  0.9823  0.5431  0.6108
66839SOL    HW218128   3.720   8.539  11.351  1.2932 -1.6677 -0.7245
66840SOL     OW18129   8.553   8.769   3.689 -0.3962  0.1440  0.8525
66840SOL    HW118130   8.567   8.779   3.783  0.2775  0.3768  0.7302
66840SOL    HW218131   8.521   8.680   3.678 -0.8933  0.2584  1.3473
66841SOL     OW18132  11.352   0.872   0.843 -0.9348 -0.0834  0.0496
66841SOL    HW118133  11.388   0.880   0.754  0.1470 -0.6985  0.4158
66841SOL    HW218134  11.303   0.790   0.842 -1.7980  0.4207 -0.2568
66842SOL     OW18135  12.477   0.613   2.680 -0.1909 -0.0275  0.3570
66842SOL    HW118136  12.524   0.537   2.645 -0.5182  0.6189 -1.6216
66842SOL    HW218137  12.533   0.646   2.751  1.5232 -0.2623 -0.8271
66843SOL     OW18138  10.933   5.888   2.454  0.5159 -0.2092  0.3267
66843SOL    HW118139  11.006   5.950   2.452 -1.6908  2.5933  0.5603
66843SOL    HW218140  10.921   5.868   2.546  0.4462  0.0052  0.3640
66844SOL     OW18141  12.607   2.387  11.104 -0.4158 -0.3243 -0.0696
66844SOL    HW118142  12.588   2.300  11.071 -1.5873 -0.8240  1.7694
66844SOL    HW218143  12.521   2.423  11.128  0.2036  0.5990  0.8735
66845SOL     OW18144   9.600   0.688  10.738 -0.0286 -0.9204 -0.5756
66845SOL    HW118145   9.651   0.635  10.800  1.4120  1.1807  0.1578
66845SOL    HW218146   9.662   0.709  10.668 -0.7031 -0.5783 -1.0776
66846SOL     OW18147   6.251   7.164   4.717 -0.1378 -0.2569  0.1222
66846SOL    HW118148   6.194   7.236   4.743 -3.8153 -2.6396 -0.6444
66846SOL    HW218149   6.242   7.158   4.622  0.4323 -1.4484  0.1203
66847SOL     OW18150   8.189   0.298  10.934 -0.2028  0.3933 -0.2158
66847SOL    HW118151   8.223   0.232  10.874  1.9118  0.6626  0.6117
66847SOL    HW218152   8.192   0.256  11.020 -2.9725  0.0944 -0.1785
66848SOL     OW18153  13.275   3.319   8.831  0.7781 -0.0819  0.3508
66848SOL    HW118154  13.283   3.238   8.781  2.5165 -0.2259  0.7816
66848SOL    HW218155  13.228   3.378   8.773  1.3534 -0.7327 -0.8319
66849SOL     OW18156   7.988  12.818  11.082 -0.0163  0.2315  0.4141
66849SOL    HW118157   8.078  12.794  11.102  0.1939  1.6278  1.2919
66849SOL    HW218158   7.969  12.774  11.000  1.2358 -0.6342  0.5624
66850SOL     OW18159   0.370  12.644  13.437 -0.1299 -0.0901 -0.2696
66850SOL    HW118160   0.442  12.704  13.457  0.7338 -1.4368  0.8569
66850SOL    HW218161   0.370  12.637  13.342  1.0675  0.1204 -0.2928
66851SOL     OW18162   7.645  12.766   7.232 -0.0284  0.0466 -0.4723
66851SOL    HW118163   7.666  12.798   7.320 -0.8927  2.4754 -1.0574
66851SOL    HW218164   7.723  12.786   7.181 -0.9452  2.4660 -1.0782
66852SOL     OW18165  11.342   9.843  10.633 -0.2073  0.3909 -0.3875
66852SOL    HW118166  11.299   9.757  10.633  1.1882 -0.3209 -0.3568
66852SOL    HW218167  11.382   9.850  10.546  1.8016 -0.0978  0.4544
66853SOL     OW18168   6.503  10.426  13.876  0.1236  0.2304 -0.3453
66853SOL    HW118169   6.545  10.505  13.910  0.0097 -0.1913  0.8502
66853SOL    HW218170   6.566  10.356  13.895 -0.2441 -0.1152 -0.3814
66854SOL     OW18171   0.754  13.303   2.442  0.4020 -0.2327 -0.1409
66854SOL    HW118172   0.740  13.393   2.413 -1.6705  0.0295  1.5319
66854SOL    HW218173   0.826  13.308   2.504  0.1629  0.2906  0.0901
66855SOL     OW18174   7.812  13.915   6.469 -0.5772  0.6669 -0.2985
66855SOL    HW118175   7.889  13.911   6.525 -0.0048 -0.7625 -1.1299
66855SOL    HW218176   7.796  14.009   6.456  0.7415  0.9784  0.2564
66856SOL     OW18177  12.707   8.895   6.843  0.4194 -0.0741  0.0353
66856SOL    HW118178  12.727   8.930   6.930  1.4415  0.5542 -0.4377
66856SOL    HW218179  12.738   8.805   6.845  0.1771 -0.1505  0.4136
66857SOL     OW18180   8.310  13.194   8.796 -0.4091  0.1717 -0.7825
66857SOL    HW118181   8.342  13.206   8.886 -2.9650  2.2243 -0.0168
66857SOL    HW218182   8.375  13.238   8.742  0.9264 -0.6849  0.0480
66858SOL     OW18183   0.771  10.716   3.079 -0.1689 -0.0064 -0.6118
66858SOL    HW118184   0.689  10.759   3.104 -0.4430 -1.3921  0.9625
66858SOL    HW218185   0.756  10.689   2.988 -1.0429  0.6748 -0.6960
66859SOL     OW18186  13.179  10.318   9.186  0.2698 -0.3318  0.2364
66859SOL    HW118187  13.249  10.261   9.218 -0.4047 -2.2792 -1.5304
66859SOL    HW218188  13.220  10.371   9.118  0.1720 -1.2052 -0.5319
66860SOL     OW18189  12.153  12.304  10.315 -0.0576  0.2669  0.6036
66860SOL    HW118190  12.191  12.219  10.292  0.2702  0.5371  0.1355
66860SOL    HW218191  12.073  12.309  10.263  0.4565  0.6872 -0.1711
66861SOL     OW18192  10.508  13.839   9.987  0.5716  0.1344 -0.0359
66861SOL    HW118193  10.415  13.834   9.969  0.6317  0.6682 -0.5117
66861SOL    HW218194  10.541  13.751   9.970  0.1963  0.0021 -0.0751
66862SOL     OW18195   5.298   3.201  13.258 -0.4840 -0.2985  0.1409
66862SOL    HW118196   5.361   3.132  13.279  0.0947  0.4183  0.8156
66862SOL    HW218197   5.292   3.199  13.162  0.3850 -0.5382  0.0832
66863SOL     OW18198  13.309   2.899  11.614  0.1344 -0.0976  0.3204
66863SOL    HW118199  13.270   2.868  11.533  0.1471  0.0150  0.2726
66863SOL    HW218200  13.278   2.989  11.624 -1.4527 -0.7135  1.4216
66864SOL     OW18201   1.141   1.741   6.242 -0.4271  0.2529 -0.6175
66864SOL    HW118202   1.162   1.830   6.214  0.5319 -0.2214 -1.4667
66864SOL    HW218203   1.058   1.720   6.198 -0.6389  0.7029 -0.4385
66865SOL     OW18204   3.924   5.081  11.971 -0.1358 -0.7870  0.0769
66865SOL    HW118205   3.974   5.013  11.925 -0.3332 -1.0947  0.3150
66865SOL    HW218206   3.991   5.139  12.007  0.0163 -0.2073 -1.0853
66866SOL     OW18207  12.078  12.728   4.136 -0.0086  0.3987 -0.3121
66866SOL    HW118208  12.131  12.692   4.207 -0.0669  1.1132  0.1021
66866SOL    HW218209  12.089  12.666   4.064  0.0142 -0.3598  0.3322
66867SOL     OW18210   7.435  13.470  13.072 -0.1777  0.0555 -0.1743
66867SOL    HW118211   7.412  13.412  13.000 -1.7540 -0.1810  0.4867
66867SOL    HW218212   7.385  13.550  13.056 -0.9376 -0.1783  0.8901
66868SOL     OW18213   8.782  12.286  12.157  0.4362  0.1489 -0.2667
66868SOL    HW118214   8.767  12.217  12.221  0.9356  2.6692  2.8168
66868SOL    HW218215   8.711  12.349  12.172  2.5793  2.5546  0.4538
66869SOL     OW18216   8.153   2.094   8.446 -0.1924  0.3675 -0.1622
66869SOL    HW118217   8.149   2.189   8.456 -0.3975  0.3192  0.2403
66869SOL    HW218218   8.241   2.078   8.413 -0.6847  0.8154 -1.7462
66870SOL     OW18219  12.399  13.868  12.933 -0.2649 -0.4909 -0.3154
66870SOL    HW118220  12.323  13.892  12.880 -0.1255  0.5398 -0.0673
66870SOL    HW218221  12.474  13.886  12.876 -0.1511 -0.1359 -0.0588
66871SOL     OW18222  12.703   2.878   7.794  0.1395 -0.3010  0.7120
66871SOL    HW118223  12.620   2.831   7.805 -0.0331 -0.4478 -0.9691
66871SOL    HW218224  12.699   2.948   7.859 -0.2877 -1.6315  2.1954
66872SOL     OW18225  13.528   3.871   6.931  0.0538  0.1040 -0.4596
66872SOL    HW118226  13.617   3.889   6.961  0.4412  1.6346 -2.3611
66872SOL    HW218227  13.520   3.775   6.936  1.4983  0.0052  0.4843
66873SOL     OW18228  13.746   1.144  12.097  0.1128 -0.6095  0.3669
66873SOL    HW118229  13.669   1.185  12.057  1.3614  0.1856 -1.3500
66873SOL    HW218230  13.780   1.086  12.029  1.6924 -0.0585  0.6562
66874SOL     OW18231   0.480   2.183   8.241  0.3599 -0.2331 -0.1662
66874SOL    HW118232   0.563   2.214   8.204 -1.0889  2.5321 -1.4051
66874SOL    HW218233   0.435   2.142   8.167  0.7914 -2.3059  0.6495
66875SOL     OW18234  10.481   7.810  13.279 -0.5845 -0.0136 -0.4247
66875SOL    HW118235  10.570   7.808  13.314 -0.8793  1.3247  0.5112
66875SOL    HW218236  10.452   7.719  13.282  0.3176 -0.2924  0.4490
66876SOL     OW18237  13.421   9.388   1.220 -0.1233 -0.1470 -0.6161
66876SOL    HW118238  13.460   9.462   1.173 -0.9815 -0.9214 -2.6581
66876SOL    HW218239  13.496   9.338   1.253  0.5156  0.4066 -1.2039
66877SOL     OW18240   8.208   9.492  13.938  0.3901 -0.5391  0.1775
66877SOL    HW118241   8.246   9.454  14.018 -1.1584  0.4094  1.4085
66877SOL    HW218242   8.236   9.583  13.940  2.8965 -1.1113 -2.0345
66878SOL     OW18243   7.549   3.628   7.133 -0.4650 -0.2592  0.3297
66878SOL    HW118244   7.475   3.673   7.092 -0.4864  0.7038  1.3661
66878SOL    HW218245   7.561   3.548   7.081 -3.2149 -1.2238  1.0193
66879SOL     OW18246  11.851   7.396  11.498 -0.0713  0.4505  0.5175
66879SOL    HW118247  11.872   7.303  11.506 -0.1240  0.1321 -2.1843
66879SOL    HW218248  11.821   7.406  11.408 -2.4773  2.6582  1.4414
66880SOL     OW18249   3.596   5.104   1.455 -0.2868 -0.1357 -0.0656
66880SOL    HW118250   3.639   5.018   1.448  1.2640  0.6569 -0.8698
66880SOL    HW218251   3.568   5.109   1.546 -2.4496 -2.3723 -0.4974
66881SOL     OW18252   5.280   2.552   4.986  0.4428 -0.8237  1.0587
66881SOL    HW118253   5.228   2.597   5.053 -0.1837 -0.0113  0.0693
66881SOL    HW218254   5.221   2.485   4.951 -0.5043  0.9054 -0.9361
66882SOL     OW18255   6.264   4.500  13.992  0.7704  0.2461 -0.1818
66882SOL    HW118256   6.217   4.472  14.071  0.6673  3.5898  1.1112
66882SOL    HW218257   6.228   4.445  13.922 -1.2174 -0.9163  1.6114
66883SOL     OW18258  11.159   7.503   5.827 -0.1492  0.0044 -0.1196
66883SOL    HW118259  11.074   7.462   5.842 -0.0218 -1.5786 -3.0170
66883SOL    HW218260  11.137   7.585   5.782 -0.1986 -0.7205 -1.4839
66884SOL     OW18261   4.762  12.702   8.665  0.2689  0.3376  0.4091
66884SOL    HW118262   4.687  12.725   8.720  0.5090  0.6438  0.6129
66884SOL    HW218263   4.812  12.783   8.657  0.1417  0.3441 -0.4277
66885SOL     OW18264   8.873   4.883   7.944  0.1644 -0.0448 -0.0824
66885SOL    HW118265   8.841   4.865   7.856  1.2343  0.5655 -0.6084
66885SOL    HW218266   8.793   4.885   7.998 -0.4498 -0.9636 -0.9172
66886SOL     OW18267  13.153   3.797   8.467  0.0621  0.0054 -0.6125
66886SOL    HW118268  13.132   3.731   8.533 -0.1363 -1.1333 -1.7933
66886SOL    HW218269  13.233   3.838   8.500  0.5989 -1.3119 -0.2020
66887SOL     OW18270   3.313   1.666   6.583 -0.1188  0.2913  0.1718
66887SOL    HW118271   3.395   1.688   6.627 -0.4436  1.1456  0.3805
66887SOL    HW218272   3.249   1.656   6.655 -0.2615 -0.0625 -0.0045
66888SOL     OW18273   7.845   6.209   0.375  0.4223 -0.0357 -0.5507
66888SOL    HW118274   7.881   6.134   0.328 -0.0348 -0.6237  0.0107
66888SOL    HW218275   7.875   6.197   0.466  0.0401  0.2491 -0.3835
66889SOL     OW18276   1.198   7.886  13.583  0.1998 -0.2185  0.4839
66889SOL    HW118277   1.215   7.907  13.492  2.8773  1.1368  1.2003
66889SOL    HW218278   1.115   7.931  13.603 -1.5397 -2.2274 -1.7036
66890SOL     OW18279   2.891   5.729   4.940 -0.0230  0.2607  0.8496
66890SOL    HW118280   2.842   5.811   4.946  1.3924  1.4074 -1.6454
66890SOL    HW218281   2.827   5.665   4.910 -0.7121  0.9480  0.8144
66891SOL     OW18282   3.943  11.152   7.316 -0.7686  0.2473 -0.1334
66891SOL    HW118283   3.863  11.166   7.265 -0.5993  1.1508 -0.1659
66891SOL    HW218284   3.921  11.081   7.375 -1.6640  0.5896 -0.0336
66892SOL     OW18285   7.786   4.933   3.507 -0.0096  0.1534  0.3331
66892SOL    HW118286   7.763   4.994   3.577 -1.5872 -0.3063  0.2527
66892SOL    HW218287   7.745   4.971   3.429  1.1952  0.3270 -0.2411
66893SOL     OW18288   2.741   7.203   7.743  0.0404  0.1693  0.0703
66893SOL    HW118289   2.722   7.221   7.651 -1.8448  0.2573  0.4297
66893SOL    HW218290   2.835   7.218   7.752 -0.0842  2.2438 -1.3779
66894SOL     OW18291  11.633   0.603   7.390  0.2542 -0.1184  0.1531
66894SOL    HW118292  11.644   0.688   7.348  2.5182  0.2219  1.2854
66894SOL    HW218293  11.639   0.540   7.318 -3.1836  0.6177 -0.9608
66895SOL     OW18294   7.047   8.028   8.919 -0.5328 -0.3483  0.1994
66895SOL    HW118295   7.046   8.026   9.015  1.0845 -0.3949  0.2360
66895SOL    HW218296   7.014   7.942   8.893  2.1063 -1.6325  0.7923
66896SOL     OW18297   0.740  12.562   7.088 -0.0780 -0.2169 -0.1622
66896SOL    HW118298   0.677  12.550   7.017  1.4253  0.5082 -1.7074
66896SOL    HW218299   0.818  12.596   7.044  2.0210 -2.6712  1.3995
66897SOL     OW18300  12.544   6.424   8.031  0.3673 -0.5225 -0.0323
66897SOL    HW118301  12.581   6.438   7.943 -0.6761  1.4741 -0.1994
66897SOL    HW218302  12.479   6.493   8.041  0.5995 -0.5885  2.4138
66898SOL     OW18303   6.844  12.433   7.213  0.0457 -0.2795  0.3908
66898SOL    HW118304   6.870  12.399   7.127 -2.5169 -1.4975 -0.0096
66898SOL    HW218305   6.785  12.506   7.192  1.5650  1.2487  1.2105
66899SOL     OW18306   2.742   4.208   5.021 -0.3474  0.5145 -0.4243
66899SOL    HW118307   2.685   4.273   5.062 -0.5196  2.2539 -3.1450
66899SOL    HW218308   2.683   4.153   4.969  0.0762 -0.1837 -0.1842
66900SOL     OW18309   4.191   4.728   6.733  0.0053  0.4023  0.8784
66900SOL    HW118310   4.179   4.671   6.657 -1.0775  0.2652  1.1228
66900SOL    HW218311   4.226   4.671   6.802 -1.6463 -0.1579  1.3097
66901SOL     OW18312   9.853  12.469  10.828 -0.0397  0.1842 -0.0508
66901SOL    HW118313   9.928  12.469  10.769  1.1335  0.3587  1.3856
66901SOL    HW218314   9.832  12.376  10.840  0.0033  0.1320 -0.3704
66902SOL     OW18315   5.607  10.282  12.124  0.1600  0.1592 -0.5810
66902SOL    HW118316   5.532  10.228  12.098 -0.3362  0.8385 -0.6106
66902SOL    HW218317   5.589  10.368  12.084 -0.6873  1.3076  2.0490
66903SOL     OW18318  11.827   3.415  11.303  0.0029 -0.3864  0.5323
66903SOL    HW118319  11.843   3.370  11.220 -0.6210 -0.1655  0.2870
66903SOL    HW218320  11.864   3.503  11.291  1.8645 -1.0101  1.2592
66904SOL     OW18321   8.382   1.742  11.591 -0.1735 -0.1120 -0.1158
66904SOL    HW118322   8.458   1.800  11.601  0.3391 -0.5466 -1.3371
66904SOL    HW218323   8.339   1.745  11.676 -0.4276  2.4339 -0.2622
66905SOL     OW18324   6.479   3.935   0.448 -0.1228 -0.0548  0.0194
66905SOL    HW118325   6.562   3.951   0.403 -0.3930 -1.2451 -0.9715
66905SOL    HW218326   6.442   4.022   0.463  0.9956  0.4600 -0.1184
66906SOL     OW18327  10.019   7.301  12.904  0.1765  0.5261 -0.1042
66906SOL    HW118328   9.988   7.280  12.816  0.5575  1.9962 -0.6194
66906SOL    HW218329   9.949   7.269  12.962 -0.0147 -0.5750 -0.9083
66907SOL     OW18330   4.876   3.565   3.279 -0.2897  0.0770 -0.6025
66907SOL    HW118331   4.810   3.619   3.322  0.4240 -0.3295  1.1181
66907SOL    HW218332   4.936   3.627   3.238 -0.6973  0.5038 -0.5626
66908SOL     OW18333  13.656   8.976   0.610 -0.0150  0.1255 -0.0091
66908SOL    HW118334  13.646   9.064   0.649 -1.5279  0.4954 -1.1408
66908SOL    HW218335  13.750   8.969   0.590  0.1151  1.5298  0.0071
66909SOL     OW18336   2.407   6.726   8.036 -0.0442 -0.2108  0.8007
66909SOL    HW118337   2.368   6.721   8.124 -1.9562 -0.7433 -0.0276
66909SOL    HW218338   2.333   6.744   7.978  1.0668 -0.6003 -0.8075
66910SOL     OW18339  12.359  10.033   5.799 -0.8778 -0.0964 -0.7323
66910SOL    HW118340  12.358  10.030   5.703  1.8228 -0.1476 -0.8533
66910SOL    HW218341  12.372  10.125   5.820 -0.2590 -0.2254 -0.5018
66911SOL     OW18342   8.961  13.210   6.198  0.1878  0.2212  0.4984
66911SOL    HW118343   9.000  13.229   6.283 -0.9882 -0.5905  1.2322
66911SOL    HW218344   8.886  13.154   6.217  0.4819 -0.7949 -1.1621
66912SOL     OW18345  14.079   5.907   9.477  0.3452 -0.0463  0.5307
66912SOL    HW118346  14.055   5.982   9.422  1.5435  0.2563  0.3934
66912SOL    HW218347  14.038   5.925   9.561 -0.6073  0.0221  0.0609
66913SOL     OW18348   0.163   6.426   6.294  0.1084 -1.1750 -1.0861
66913SOL    HW118349   0.193   6.470   6.214  2.8759 -1.7563 -0.4787
66913SOL    HW218350   0.224   6.455   6.362 -2.5753 -0.1512  1.0648
66914SOL     OW18351   4.820   0.788  14.029  0.1204 -1.0601 -0.9378
66914SOL    HW118352   4.888   0.757  14.089  0.6607 -0.4302 -1.1971
66914SOL    HW218353   4.783   0.708  13.990 -0.3852 -1.4803  0.3694
66915SOL     OW18354   9.774   1.414   5.812  0.1996  0.2113  0.3866
66915SOL    HW118355   9.832   1.339   5.800  0.6411  0.4693  0.8622
66915SOL    HW218356   9.711   1.407   5.741  0.4171 -0.4427  0.2497
66916SOL     OW18357  11.716  12.061  10.918 -0.5522  0.0287  0.8024
66916SOL    HW118358  11.802  12.055  10.875  0.0557  1.8146  1.6814
66916SOL    HW218359  11.658  12.097  10.852 -0.1583  0.6440  0.7895
66917SOL     OW18360   0.685  12.616   0.813  0.3525  0.1583 -0.2017
66917SOL    HW118361   0.644  12.676   0.751 -0.3655 -0.4375 -0.3166
66917SOL    HW218362   0.627  12.616   0.890  1.5353  1.3395  0.7354
66918SOL     OW18363   7.342   4.836  11.524 -0.1836 -0.1532  0.0392
66918SOL    HW118364   7.320   4.924  11.557  0.9111 -0.5029  1.8590
66918SOL    HW218365   7.272   4.780  11.557 -0.0305 -0.2127  0.2680
66919SOL     OW18366  13.419  11.873   7.233 -0.2054  0.2271  0.2610
66919SOL    HW118367  13.417  11.838   7.322 -1.6048 -1.8999 -0.5334
66919SOL    HW218368  13.464  11.806   7.182 -2.1317 -0.0380 -1.1621
66920SOL     OW18369  10.754   3.996   7.902  0.2200 -0.3302 -0.0807
66920SOL    HW118370  10.776   3.904   7.887  1.0464 -0.2057  0.2925
66920SOL    HW218371  10.743   4.032   7.814 -0.6510 -0.9052 -0.2181
66921SOL     OW18372  10.580  10.848  12.186  0.4368 -0.1284 -0.1624
66921SOL    HW118373  10.520  10.774  12.199  0.1969  0.0582 -0.1858
66921SOL    HW218374  10.636  10.848  12.264 -0.8162  0.8289  0.7774
66922SOL     OW18375  13.269  12.043   8.729 -0.0752 -0.0407  0.4436
66922SOL    HW118376  13.319  11.964   8.750 -0.7388 -0.4603  0.4871
66922SOL    HW218377  13.322  12.115   8.764  0.1927 -0.5214  1.0547
66923SOL     OW18378   6.966   8.187   7.947  0.9055 -0.1719 -0.3269
66923SOL    HW118379   6.894   8.199   7.885  0.5724 -0.8001 -0.0641
66923SOL    HW218380   6.929   8.135   8.017  1.0298  1.2452  0.8399
66924SOL     OW18381   2.679  10.001   3.478  0.1569 -0.1930 -0.7786
66924SOL    HW118382   2.649   9.935   3.415  0.9212 -2.1073  0.7464
66924SOL    HW218383   2.772   9.982   3.489  0.1439  0.4237  0.5311
66925SOL     OW18384   7.462   3.321  11.709  0.4800  0.1739  0.2595
66925SOL    HW118385   7.450   3.378  11.784 -0.2226  0.8521 -0.3466
66925SOL    HW218386   7.531   3.362  11.658  1.6892 -0.8382  1.0284
66926SOL     OW18387  10.371   2.939  13.256 -0.0304  0.4304  0.3791
66926SOL    HW118388  10.362   3.011  13.193  0.0919 -0.0261 -0.1794
66926SOL    HW218389  10.424   2.874  13.209  0.2500  0.1773  1.0463
66927SOL     OW18390   0.961   4.917   8.373 -0.2602  0.1762 -0.3466
66927SOL    HW118391   0.942   4.882   8.286 -0.5658 -2.0221  0.5282
66927SOL    HW218392   0.885   4.971   8.395 -0.6815 -0.1305 -1.0218
66928SOL     OW18393   1.643  12.830   4.748 -0.1665 -0.7758  0.2565
66928SOL    HW118394   1.717  12.771   4.735  1.1924  0.7198  0.9408
66928SOL    HW218395   1.566  12.776   4.728  1.1322 -2.0047 -1.7376
66929SOL     OW18396  13.208   3.074   4.759  0.5148  0.2193  0.3561
66929SOL    HW118397  13.167   3.137   4.817 -0.4958  0.3695 -0.5002
66929SOL    HW218398  13.280   3.122   4.718  0.3836  0.5083  0.4662
66930SOL     OW18399  13.380  13.908   0.507 -0.0574  0.1357  0.1614
66930SOL    HW118400  13.410  13.966   0.577  0.0979 -1.3457  1.3648
66930SOL    HW218401  13.456  13.854   0.485 -0.8971 -1.4177  0.9443
66931SOL     OW18402   5.961   8.705   0.032  0.6518  0.4813 -0.0373
66931SOL    HW118403   6.043   8.752   0.043  1.4840 -1.1951  1.4785
66931SOL    HW218404   5.988   8.615   0.009 -0.8327  0.4108 -1.7250
66932SOL     OW18405   1.775  13.289  13.019  0.8919 -0.6068 -0.2841
66932SOL    HW118406   1.742  13.373  12.988  0.3605 -0.3284  0.9826
66932SOL    HW218407   1.853  13.273  12.966 -0.5788 -0.7336 -2.5467
66933SOL     OW18408   9.996   4.844   6.280 -0.4000  0.2912  0.3999
66933SOL    HW118409   9.965   4.760   6.245 -0.7812 -0.6263  2.8047
66933SOL    HW218410  10.005   4.830   6.374  2.4100  2.0794  0.5333
66934SOL     OW18411   3.372  12.340   7.211  0.1996 -0.2475 -0.1321
66934SOL    HW118412   3.446  12.397   7.231 -1.0715  1.6015 -0.4217
66934SOL    HW218413   3.410  12.268   7.162  1.9866 -0.0494  0.8627
66935SOL     OW18414   3.241  11.771  11.818  0.1282  0.4270 -0.2252
66935SOL    HW118415   3.302  11.713  11.863  0.7886  1.5707  0.3928
66935SOL    HW218416   3.259  11.857  11.855 -0.9041  1.0085 -1.0515
66936SOL     OW18417   9.152   2.411   2.304 -0.3231 -0.0564  0.0954
66936SOL    HW118418   9.151   2.446   2.215  0.0065 -1.7032 -0.6044
66936SOL    HW218419   9.245   2.411   2.329 -0.4169  0.4239  0.4497
66937SOL     OW18420   9.636   1.634   0.607  0.2441 -0.3316  0.1034
66937SOL    HW118421   9.680   1.617   0.524  0.7174 -0.9560  0.4721
66937SOL    HW218422   9.665   1.563   0.665  1.9409  1.4715  1.5762
66938SOL     OW18423  11.616   3.311   8.369 -0.1334  0.0452 -0.2824
66938SOL    HW118424  11.673   3.261   8.311 -1.8712 -0.7198 -1.4418
66938SOL    HW218425  11.555   3.356   8.310 -1.8708 -0.6312  0.9038
66939SOL     OW18426   5.862  12.461   8.512 -0.0421  0.3633  0.3421
66939SOL    HW118427   5.881  12.372   8.543 -0.8132 -0.0837 -0.4134
66939SOL    HW218428   5.886  12.459   8.419  1.5370  1.4585  0.6897
66940SOL     OW18429  10.750   6.538  12.085 -0.1263 -0.0020  0.2046
66940SOL    HW118430  10.755   6.599  12.011 -1.4041  1.2617  1.0881
66940SOL    HW218431  10.715   6.457  12.048  1.2413 -0.1048 -0.9330
66941SOL     OW18432  10.528   2.302   2.942  0.2272  0.1976  0.5223
66941SOL    HW118433  10.524   2.322   2.849 -1.8951  0.2504  0.5691
66941SOL    HW218434  10.520   2.206   2.947  0.5313  0.1771  0.6472
66942SOL     OW18435   2.141   1.601  13.331  0.0139 -0.1467 -0.1203
66942SOL    HW118436   2.046   1.614  13.331 -0.1972 -1.5145  0.8793
66942SOL    HW218437   2.156   1.535  13.264  0.3054  0.2480 -0.4503
66943SOL     OW18438   1.390   2.647   6.582 -0.2249  0.3491 -0.3615
66943SOL    HW118439   1.312   2.597   6.606  0.3786 -0.3594  0.1862
66943SOL    HW218440   1.456   2.619   6.646  0.2319  1.5833 -0.2748
66944SOL     OW18441  11.891   0.141   6.275 -0.0771 -0.1607 -0.3014
66944SOL    HW118442  11.819   0.125   6.335 -1.3150  1.6351 -1.2275
66944SOL    HW218443  11.849   0.148   6.189  1.3569 -0.2741 -1.0392
66945SOL     OW18444   3.067   7.808   2.139 -0.2694  0.0708  0.4810
66945SOL    HW118445   3.117   7.760   2.072 -2.9859 -2.9440  0.3488
66945SOL    HW218446   3.114   7.790   2.220 -0.3426 -1.5895  0.1947
66946SOL     OW18447   0.842  11.135   4.857  0.1724 -0.6177  0.5640
66946SOL    HW118448   0.899  11.133   4.934 -0.0329  0.6222  0.7794
66946SOL    HW218449   0.803  11.223   4.859 -1.2872 -1.2297  0.0921
66947SOL     OW18450   0.598   8.179   4.003 -0.1698  0.2649 -0.4625
66947SOL    HW118451   0.524   8.137   3.959 -1.2473  1.1740  0.4361
66947SOL    HW218452   0.645   8.224   3.932 -1.5270  1.2029 -0.7913
66948SOL     OW18453  12.181   8.251   7.758  0.2260 -0.0519  0.3239
66948SOL    HW118454  12.111   8.304   7.797  0.6579  1.1808 -0.5283
66948SOL    HW218455  12.136   8.196   7.694  0.0032  0.6420 -0.1313
66949SOL     OW18456  10.235   0.643  11.379 -0.0954 -0.0133  0.7973
66949SOL    HW118457  10.206   0.604  11.461 -1.8285 -0.1713  0.1493
66949SOL    HW218458  10.228   0.572  11.315  2.4348 -0.2681  0.6709
66950SOL     OW18459   1.287   3.612  12.590 -0.4359  0.0332  0.2614
66950SOL    HW118460   1.195   3.601  12.612 -0.6891  1.1638 -0.1742
66950SOL    HW218461   1.322   3.523  12.588 -1.3373 -0.3554  1.1672
66951SOL     OW18462  12.853  11.653   6.969 -0.0485  0.4188 -0.3125
66951SOL    HW118463  12.882  11.654   7.060  0.2417  0.0117 -0.3969
66951SOL    HW218464  12.917  11.707   6.923  0.7068 -0.6290 -0.5300
66952SOL     OW18465   4.610  11.843  12.764  0.3938  0.3646 -0.2631
66952SOL    HW118466   4.652  11.870  12.682  0.2284 -1.1329 -0.8704
66952SOL    HW218467   4.614  11.748  12.762 -0.0022  0.3006  1.2864
66953SOL     OW18468   8.450  12.431   5.622  0.1676 -0.1400  0.1027
66953SOL    HW118469   8.471  12.387   5.704  0.5522 -0.6178 -0.2447
66953SOL    HW218470   8.417  12.517   5.648 -2.1658 -1.1881  0.8930
66954SOL     OW18471   0.271  13.988   5.745  0.1354 -0.3005  0.5384
66954SOL    HW118472   0.354  13.941   5.759  0.2208 -0.7124 -1.1754
66954SOL    HW218473   0.298  14.075   5.716 -0.0325 -0.3181  0.3288
66955SOL     OW18474  10.427  13.738  11.090 -0.9197  0.0925  0.1054
66955SOL    HW118475  10.404  13.683  11.165 -0.3958  0.2309  0.3787
66955SOL    HW218476  10.481  13.681  11.035  1.0346  0.7708  1.1938
66956SOL     OW18477   1.435  10.042   5.678 -0.2079 -0.0916 -0.1798
66956SOL    HW118478   1.365  10.072   5.619  0.0137  0.2218 -0.2812
66956SOL    HW218479   1.495   9.994   5.622 -1.3101 -2.0490  0.2071
66957SOL     OW18480   8.610  13.689   7.088 -0.0252  0.2291  0.0596
66957SOL    HW118481   8.663  13.676   7.009 -0.6904  1.4353 -0.6180
66957SOL    HW218482   8.596  13.783   7.092 -2.4857 -0.0780 -0.0326
66958SOL     OW18483  11.524   6.584   4.749 -0.1100  0.7637 -0.7243
66958SOL    HW118484  11.456   6.648   4.770  0.5590  0.6370  2.2357
66958SOL    HW218485  11.482   6.499   4.763  0.1915  0.6505 -0.4985
66959SOL     OW18486   6.697   2.552  13.460  0.5019 -0.3174  0.4916
66959SOL    HW118487   6.688   2.634  13.411 -1.2432  0.1654  1.5583
66959SOL    HW218488   6.664   2.572  13.547  0.7046 -1.9875  0.9817
66960SOL     OW18489   6.204   1.746   6.211  0.1920  0.4178 -0.0819
66960SOL    HW118490   6.279   1.712   6.163  0.4208  0.2290  0.4036
66960SOL    HW218491   6.233   1.831   6.245  0.2137  0.3145  0.1623
66961SOL     OW18492  10.350  10.956  12.597  0.0813 -0.3592 -0.2251
66961SOL    HW118493  10.300  11.006  12.661 -0.1376 -1.3512  0.3938
66961SOL    HW218494  10.389  10.884  12.646 -0.2136 -1.2310 -1.2175
66962SOL     OW18495   0.236   8.807   8.077 -0.1413  0.1957 -0.0652
66962SOL    HW118496   0.289   8.750   8.019 -1.8399 -1.0014 -0.5321
66962SOL    HW218497   0.244   8.767   8.163  1.5434  1.3762  0.3746
66963SOL     OW18498   5.302   5.372   1.711  0.6665  0.0989  0.3602
66963SOL    HW118499   5.371   5.356   1.647  0.5371  0.6578  0.0778
66963SOL    HW218500   5.347   5.370   1.795  0.7238 -1.3630  0.3268
66964SOL     OW18501   2.182   0.867   5.943  0.1993  0.6480 -0.3529
66964SOL    HW118502   2.215   0.778   5.931 -1.3716 -0.2011  1.1997
66964SOL    HW218503   2.230   0.919   5.879  1.7008 -1.1725 -0.7910
66965SOL     OW18504   9.803   2.634  10.432  0.4149  0.3211  0.5599
66965SOL    HW118505   9.743   2.683  10.376  1.1388  0.6378  0.0448
66965SOL    HW218506   9.888   2.641  10.388  0.5725 -1.2690  0.5423
66966SOL     OW18507   7.026   7.991  11.481 -0.5350 -0.1018 -0.2220
66966SOL    HW118508   7.058   7.917  11.533 -1.3128 -0.5670 -0.3908
66966SOL    HW218509   7.019   7.957  11.392  0.0254  0.4642 -0.4910
66967SOL     OW18510   5.887   7.964   5.771 -0.2164  0.2850  0.0737
66967SOL    HW118511   5.949   7.891   5.772 -1.3003 -0.6612  0.8480
66967SOL    HW218512   5.942   8.042   5.766  0.9612 -0.5743 -1.4328
66968SOL     OW18513   6.130  10.907   6.210  0.3810 -0.2827 -0.0529
66968SOL    HW118514   6.081  10.889   6.130  0.4963 -0.6314 -0.0442
66968SOL    HW218515   6.062  10.927   6.275  0.1667 -1.9074  0.2601
66969SOL     OW18516   5.191  14.077   2.286 -0.8470  0.1446  0.2537
66969SOL    HW118517   5.272  14.029   2.301 -0.2756  0.2871 -1.9721
66969SOL    HW218518   5.124  14.009   2.273 -0.7723  0.0059  0.5932
66970SOL     OW18519   3.183   4.675   4.787  0.4544  0.0608  0.1120
66970SOL    HW118520   3.166   4.583   4.809  0.8049 -0.0970 -0.2643
66970SOL    HW218521   3.146   4.687   4.700  1.5736 -0.0957 -0.4079
66971SOL     OW18522   2.783   2.347   5.076  0.0336  0.5661 -0.3355
66971SOL    HW118523   2.813   2.431   5.110 -0.9895  0.4687  0.8568
66971SOL    HW218524   2.698   2.333   5.116 -1.6132  0.7382 -3.4851
66972SOL     OW18525   1.982   0.435   8.106 -0.3261 -1.1950 -0.0021
66972SOL    HW118526   2.074   0.430   8.131 -0.0624  0.1654 -0.5962
66972SOL    HW218527   1.977   0.389   8.022  0.1215 -0.0449 -0.6826
66973SOL     OW18528   0.977   1.823   3.019  0.2348  0.2445  0.7667
66973SOL    HW118529   0.922   1.853   3.091  1.5288 -0.1243  1.9451
66973SOL    HW218530   1.058   1.794   3.060  1.5245  1.2068 -0.9444
66974SOL     OW18531   4.428   2.180   0.863  0.2275 -0.2323  0.1507
66974SOL    HW118532   4.359   2.121   0.892  1.3996 -0.5427  2.5468
66974SOL    HW218533   4.411   2.193   0.770 -1.8107 -1.9471  0.2132
66975SOL     OW18534   0.845  12.516   7.974 -0.2498  0.2673 -0.4254
66975SOL    HW118535   0.880  12.563   8.050 -1.3527  0.9167 -0.2987
66975SOL    HW218536   0.829  12.428   8.006 -1.0955  0.6447  0.2414
66976SOL     OW18537  10.470  13.231  10.946  0.3425  0.1516  0.4645
66976SOL    HW118538  10.385  13.274  10.957 -1.1678 -2.5270  0.2175
66976SOL    HW218539  10.497  13.256  10.857 -0.1098  1.1481  0.5922
66977SOL     OW18540   5.886   1.583   6.852 -0.2156  0.0438 -0.7430
66977SOL    HW118541   5.832   1.607   6.928  1.6815 -0.1307  0.7521
66977SOL    HW218542   5.920   1.496   6.873  0.5676  0.1101 -1.6753
66978SOL     OW18543   7.378   6.971   3.450  0.3741  0.5463 -0.7422
66978SOL    HW118544   7.409   6.881   3.452  0.1220  0.4679 -0.3224
66978SOL    HW218545   7.345   6.983   3.360  0.1514  0.1341 -0.7186
66979SOL     OW18546  12.900   9.208   3.145  0.1419  0.5508 -0.2317
66979SOL    HW118547  12.832   9.239   3.205 -1.3100 -2.4038 -0.1469
66979SOL    HW218548  12.861   9.219   3.058  0.2509  0.4085 -0.2984
66980SOL     OW18549   5.061   7.021   2.528  0.5723  0.5799  0.4950
66980SOL    HW118550   5.025   7.088   2.585  0.0226 -1.5302  2.8369
66980SOL    HW218551   4.990   6.957   2.518  1.3793 -0.1579 -0.7657
66981SOL     OW18552   9.269   5.250  12.709 -0.4282  0.0746  0.0185
66981SOL    HW118553   9.280   5.222  12.800 -0.1991  1.6534  0.5097
66981SOL    HW218554   9.288   5.172  12.658 -2.0584 -1.2650  1.3561
66982SOL     OW18555  13.204   4.948   8.081 -0.0709  0.1997 -0.3997
66982SOL    HW118556  13.277   5.010   8.086  0.3604 -0.3202 -0.2903
66982SOL    HW218557  13.243   4.862   8.095 -0.9891  0.0717  1.8172
66983SOL     OW18558  10.278   5.177   7.603  0.8028 -0.1296  0.2819
66983SOL    HW118559  10.373   5.170   7.606  0.8714  1.0105  1.3613
66983SOL    HW218560  10.254   5.221   7.684 -0.7503 -1.3905  0.5636
66984SOL     OW18561   7.581  11.726   5.934 -0.1856 -0.5521 -0.3641
66984SOL    HW118562   7.628  11.805   5.906  0.2275 -0.4970  0.4485
66984SOL    HW218563   7.636  11.654   5.904  0.9094 -0.4824  1.3034
66985SOL     OW18564   6.943  11.692  11.817 -0.0109 -0.5182 -0.7255
66985SOL    HW118565   6.999  11.659  11.887 -0.4962 -1.1251 -0.6214
66985SOL    HW218566   6.864  11.640  11.822 -1.3238  1.4609  0.2460
66986SOL     OW18567   1.474  13.167  12.888  0.0899  0.4365  0.1018
66986SOL    HW118568   1.387  13.158  12.850 -1.7122 -0.5879  4.0189
66986SOL    HW218569   1.506  13.078  12.898  0.8144  0.7182  0.3992
66987SOL     OW18570   9.430   4.916   2.092  0.2670 -0.0323 -0.3015
66987SOL    HW118571   9.465   4.998   2.056  0.7491  0.6766  1.6190
66987SOL    HW218572   9.504   4.878   2.140 -0.7525 -0.0557  1.3186
66988SOL     OW18573   0.675   6.543   1.984 -0.5555 -0.1752  0.3059
66988SOL    HW118574   0.711   6.546   1.895  0.1178 -0.9951  0.5414
66988SOL    HW218575   0.581   6.531   1.971 -1.0308  3.1728 -0.3442
66989SOL     OW18576   2.186   8.474   9.003  0.0432  0.1843  0.2682
66989SOL    HW118577   2.225   8.395   9.040 -0.6139  0.3653  1.4136
66989SOL    HW218578   2.260   8.530   8.982  0.4576 -0.1279  0.8821
66990SOL     OW18579   4.801   8.824   2.050  0.1389  0.3434 -0.1490
66990SOL    HW118580   4.783   8.914   2.076 -1.2197  0.6078 -1.8296
66990SOL    HW218581   4.880   8.829   1.997  0.1838  0.5065 -0.0665
66991SOL     OW18582   2.551   2.921   9.039  0.1129  0.1208 -0.1814
66991SOL    HW118583   2.529   2.878   8.956  0.7691  1.0797 -0.8726
66991SOL    HW218584   2.471   2.966   9.064  0.1701  0.5535 -0.7603
66992SOL     OW18585   5.359  12.734   1.482  0.9686 -0.8043 -0.1094
66992SOL    HW118586   5.439  12.725   1.430  2.2767 -0.1526  1.7194
66992SOL    HW218587   5.374  12.680   1.560  0.1520  0.2981  0.8428
66993SOL     OW18588   5.399   4.979   2.573  0.5847  0.2855  0.3243
66993SOL    HW118589   5.484   5.023   2.571  0.5134  0.5158 -2.3161
66993SOL    HW218590   5.336   5.048   2.552 -0.1900 -0.0320  1.5248
66994SOL     OW18591  12.053  13.215  10.674  0.1022  0.2301  0.3391
66994SOL    HW118592  11.977  13.265  10.644  0.2625  0.0865 -0.3326
66994SOL    HW218593  12.053  13.137  10.618  2.4028  1.5777 -1.7221
66995SOL     OW18594   0.349   3.017   2.859  0.4010 -0.2910 -0.4176
66995SOL    HW118595   0.346   2.935   2.908 -0.5779  0.6458  1.1521
66995SOL    HW218596   0.267   3.018   2.809 -0.1709  0.2413  0.4902
66996SOL     OW18597   4.168   2.224   4.713 -0.7434  0.3296  0.1436
66996SOL    HW118598   4.180   2.301   4.769 -1.9697  1.8153 -1.4994
66996SOL    HW218599   4.245   2.225   4.656 -1.1776  0.8945 -0.4518
66997SOL     OW18600   1.766   7.429   2.272 -0.3637 -0.2293  0.2088
66997SOL    HW118601   1.767   7.334   2.265 -1.3302 -0.3393  1.3192
66997SOL    HW218602   1.769   7.460   2.181 -0.5399 -1.3308 -0.1829
66998SOL     OW18603   7.745  11.021   4.326 -0.1657  0.0637 -0.1542
66998SOL    HW118604   7.669  10.988   4.277  0.6528 -0.0937 -1.3650
66998SOL    HW218605   7.761  11.108   4.288 -0.1583  0.3952  0.5838
66999SOL     OW18606  13.076   0.635  11.734 -0.3372 -0.7355 -0.7161
66999SOL    HW118607  13.168   0.610  11.740 -0.1012  0.3562  0.6080
66999SOL    HW218608  13.075   0.712  11.677 -0.6996 -1.8330 -2.2756
67000SOL     OW18609   5.606  12.937   9.688  0.7528  0.1095 -0.5209
67000SOL    HW118610   5.564  13.018   9.718 -0.4518 -1.4614  2.4975
67000SOL    HW218611   5.698  12.948   9.711  0.6841  0.7738 -0.5390
67001SOL     OW18612  13.097  12.475   5.564 -0.2053  0.5336  0.1358
67001SOL    HW118613  13.178  12.430   5.540  1.7158  1.6662  3.6896
67001SOL    HW218614  13.070  12.521   5.485  2.7418  0.2592 -1.1710
67002SOL     OW18615   0.941  13.288   2.891 -0.5328  0.6769 -0.3583
67002SOL    HW118616   0.874  13.247   2.837  0.3573 -0.5262 -0.6023
67002SOL    HW218617   1.022  13.242   2.867 -0.2306 -0.6103  2.6271
67003SOL     OW18618   8.304   0.769   2.138 -0.4962 -0.2559 -0.4316
67003SOL    HW118619   8.350   0.685   2.147  0.7821  0.3245 -1.1536
67003SOL    HW218620   8.368   0.834   2.167 -1.2575  0.5138 -0.4455
67004SOL     OW18621   9.392   1.155   7.080 -0.6062  0.5595  0.2116
67004SOL    HW118622   9.412   1.085   7.018 -2.1074  0.4368 -0.1867
67004SOL    HW218623   9.361   1.109   7.158  2.3588  0.6562  1.5947
67005SOL     OW18624   5.992   3.331   0.731 -0.4083 -0.2783  0.2061
67005SOL    HW118625   5.939   3.332   0.812 -1.0419  0.9097 -0.2039
67005SOL    HW218626   5.955   3.258   0.680 -2.2520  1.0136 -0.4242
67006SOL     OW18627   4.898  13.244   6.467  0.1823  0.3879 -0.0951
67006SOL    HW118628   4.821  13.278   6.512 -0.6311 -0.9651 -0.4108
67006SOL    HW218629   4.904  13.295   6.387  0.3891  1.3683  0.5296
67007SOL     OW18630   2.395   5.489   0.123 -0.6159 -0.0250 -0.1777
67007SOL    HW118631   2.361   5.400   0.137 -1.1418  0.0596 -0.8466
67007SOL    HW218632   2.321   5.546   0.142 -0.0785  0.3278  0.9517
67008SOL     OW18633   2.281  11.464  13.323  0.1114  0.1359  0.0655
67008SOL    HW118634   2.218  11.536  13.329 -0.7449 -0.5811 -0.1434
67008SOL    HW218635   2.293  11.450  13.229 -0.1216 -0.3232  0.1006
67009SOL     OW18636  10.280   0.978   0.145 -0.3779  0.3787 -0.5610
67009SOL    HW118637  10.357   0.921   0.144 -0.2514  0.4697 -2.8099
67009SOL    HW218638  10.314   1.064   0.168 -0.1173  0.0775  0.2037
67010SOL     OW18639   8.890   7.034   2.029  0.0658 -0.8629  0.3932
67010SOL    HW118640   8.879   7.092   2.104 -0.6029 -0.2365 -0.1745
67010SOL    HW218641   8.982   7.044   2.004 -0.6822  2.4643 -1.6581
67011SOL     OW18642   0.844   7.819   9.482  0.6371  0.3792 -0.6710
67011SOL    HW118643   0.814   7.900   9.523  0.5020  0.5002 -1.0041
67011SOL    HW218644   0.765   7.764   9.477  0.9271 -0.1870  0.4890
67012SOL     OW18645   2.158   7.357   9.803 -0.0670 -0.2353 -0.5334
67012SOL    HW118646   2.217   7.423   9.768 -0.9242  1.1316  0.4967
67012SOL    HW218647   2.203   7.321   9.879  0.3153 -0.6991 -0.9772
67013SOL     OW18648   3.587   5.415   8.382  0.1537 -0.8237  0.0604
67013SOL    HW118649   3.641   5.481   8.426  1.1509 -1.1447 -0.6517
67013SOL    HW218650   3.638   5.334   8.389 -0.2623 -1.1457 -0.5813
67014SOL     OW18651  13.557   3.252   8.510 -0.7547  0.3497  0.2761
67014SOL    HW118652  13.546   3.347   8.511 -1.3428  0.3792 -1.9875
67014SOL    HW218653  13.565   3.230   8.417  0.5537 -1.7088  0.7936
67015SOL     OW18654   7.324   1.849   8.939  0.2829  0.8068 -0.1005
67015SOL    HW118655   7.332   1.840   8.844 -1.5293 -1.0804 -0.1451
67015SOL    HW218656   7.347   1.941   8.956  0.2294  1.3153 -2.3957
67016SOL     OW18657  11.524   3.116  13.179  0.3725 -0.3171 -0.2798
67016SOL    HW118658  11.607   3.098  13.135  0.1613 -1.2620 -0.3332
67016SOL    HW218659  11.548   3.153  13.264  0.9263 -1.9955  0.3386
67017SOL     OW18660   8.838   5.879   5.473  0.2344 -0.0891 -0.4511
67017SOL    HW118661   8.768   5.831   5.517  0.2600 -0.4974 -0.8473
67017SOL    HW218662   8.905   5.814   5.454 -0.1543 -0.1253 -1.8701
67018SOL     OW18663  13.447   9.357  13.442  0.5357  0.0350  0.1664
67018SOL    HW118664  13.484   9.429  13.391  1.1036 -0.0234  0.4937
67018SOL    HW218665  13.521   9.319  13.489  0.5534 -1.8163 -1.2528
67019SOL     OW18666   8.356  12.530   6.342 -0.5649  0.0666 -0.3110
67019SOL    HW118667   8.431  12.576   6.306  0.0195 -1.0505 -0.5719
67019SOL    HW218668   8.385  12.500   6.428 -1.0739  0.5134  0.0224
67020SOL     OW18669  11.781   4.167   4.664  0.1966  0.0402  0.7952
67020SOL    HW118670  11.791   4.154   4.570  0.5022 -1.2309  0.9858
67020SOL    HW218671  11.870   4.163   4.699  0.0082 -0.3537  1.2388
67021SOL     OW18672  13.496  11.591  10.514  0.3771  0.1273 -0.4178
67021SOL    HW118673  13.445  11.576  10.435  0.9181 -1.5974 -0.4781
67021SOL    HW218674  13.441  11.558  10.585  0.8287 -0.4910 -0.3423
67022SOL     OW18675   8.311  12.650   8.590 -0.6198 -0.1213 -0.0641
67022SOL    HW118676   8.394  12.607   8.573 -0.1045  0.1120  1.7191
67022SOL    HW218677   8.334  12.742   8.603 -1.0767 -0.1357  0.9321
67023SOL     OW18678   5.154  10.766   5.897  0.1031  0.1164 -0.2367
67023SOL    HW118679   5.222  10.833   5.889 -1.1894  1.4278 -0.5307
67023SOL    HW218680   5.154  10.743   5.990  0.8624  0.1640 -0.2169
67024SOL     OW18681   7.016  13.963   2.901  0.0395 -0.0029  0.2088
67024SOL    HW118682   7.053  13.903   2.835 -0.1029  0.2858 -0.1377
67024SOL    HW218683   7.054  14.048   2.879 -0.0950  0.1143  0.4358
67025SOL     OW18684   3.449   1.135  13.068 -0.0490  0.1725  0.0048
67025SOL    HW118685   3.444   1.125  13.163 -1.0006  1.8738  0.1757
67025SOL    HW218686   3.469   1.228  13.055 -1.1747  0.2421 -1.4533
67026SOL     OW18687   5.221   5.902   5.190 -0.0029 -0.5277 -0.2169
67026SOL    HW118688   5.311   5.914   5.219 -0.9316  0.8098  2.4165
67026SOL    HW218689   5.189   5.827   5.241 -1.3228  1.1399  1.5817
67027SOL     OW18690  13.506   2.378   0.753 -0.7940  0.0042  0.4093
67027SOL    HW118691  13.442   2.337   0.812  0.1143  0.8065  2.0324
67027SOL    HW218692  13.496   2.472   0.768  0.6741  0.1564  0.6522
67028SOL     OW18693   9.872   2.180   7.649 -0.3481 -1.0786 -0.7513
67028SOL    HW118694   9.801   2.116   7.658 -1.6219  0.5167  1.5911
67028SOL    HW218695   9.927   2.164   7.726 -1.1734  1.1248  0.3656
67029SOL     OW18696  10.079   2.810   3.527 -0.9706  0.2277  0.0627
67029SOL    HW118697  10.035   2.885   3.565 -0.3609 -0.3889  2.1183
67029SOL    HW218698  10.118   2.843   3.446 -1.3484  1.9109  0.5336
67030SOL     OW18699   0.563   1.810   2.027 -0.6014 -0.2756  1.2323
67030SOL    HW118700   0.641   1.829   1.975 -0.3453  1.2323  2.1151
67030SOL    HW218701   0.586   1.734   2.079  0.3878  0.3200  1.6835
67031SOL     OW18702   9.411   3.868   4.969  0.5326  0.2295 -0.6613
67031SOL    HW118703   9.451   3.954   4.958  0.4040  0.3785 -0.0043
67031SOL    HW218704   9.382   3.866   5.060 -0.7937  0.0557 -1.0610
67032SOL     OW18705   2.385   4.896  11.723 -0.0581  0.4674 -0.7817
67032SOL    HW118706   2.437   4.968  11.689 -0.1469  1.0785  0.3365
67032SOL    HW218707   2.425   4.817  11.687  1.6724  0.9177  0.0794
67033SOL     OW18708   3.369  10.197   8.293  0.5382  0.5305  0.2840
67033SOL    HW118709   3.356  10.291   8.280  0.8872  1.2333  3.9911
67033SOL    HW218710   3.320  10.156   8.222 -0.8015  3.4619 -0.6314
67034SOL     OW18711   5.707   0.524   8.075  0.5644 -0.0402 -0.3952
67034SOL    HW118712   5.636   0.573   8.034 -0.5536 -0.4038  1.0363
67034SOL    HW218713   5.677   0.507   8.164  2.5504 -0.0173  0.3298
67035SOL     OW18714   2.950  11.844  13.021 -0.1948 -0.1396  0.3322
67035SOL    HW118715   2.993  11.926  13.045 -0.1662 -0.0620  0.0195
67035SOL    HW218716   2.861  11.852  13.054 -0.3580  0.2510 -0.1890
67036SOL     OW18717  12.963   7.944  13.463  0.4459  0.0626  0.0097
67036SOL    HW118718  13.012   7.944  13.546 -0.1264  0.6837  0.3659
67036SOL    HW218719  12.876   7.914  13.488 -0.3026  2.0908  0.0232
67037SOL     OW18720   5.758   2.693   5.032 -0.1200  0.0708 -0.3896
67037SOL    HW118721   5.725   2.746   5.105 -0.6722 -2.3980  1.3182
67037SOL    HW218722   5.823   2.635   5.073  0.7964 -0.2554 -2.2271
67038SOL     OW18723   2.181   3.569   0.125 -0.6964  0.3680 -0.3724
67038SOL    HW118724   2.246   3.633   0.155 -0.7533  0.0340  0.4863
67038SOL    HW218725   2.115   3.622   0.081  0.2449  0.6888 -1.4218
67039SOL     OW18726   2.983   2.508   2.970  0.2363  0.0756  0.4629
67039SOL    HW118727   2.908   2.554   3.007  0.7779  1.6068 -0.2514
67039SOL    HW218728   2.948   2.462   2.894 -0.0853  0.3412  0.4458
67040SOL     OW18729  13.402   4.169   7.817  0.7661 -0.2145  0.1882
67040SOL    HW118730  13.385   4.188   7.909 -1.0370 -1.0690  0.0750
67040SOL    HW218731  13.438   4.250   7.782 -1.7245  1.2943  0.8977
67041SOL     OW18732  12.042   8.902   6.100  0.6496 -0.3300  0.0768
67041SOL    HW118733  12.008   8.992   6.101  1.1863 -0.0711  2.8158
67041SOL    HW218734  12.117   8.905   6.042  1.1957  1.2463  0.8076
67042SOL     OW18735  12.993   3.928   7.613  0.3498 -0.5111  0.1149
67042SOL    HW118736  13.056   3.888   7.554  0.3078 -0.8167  0.2731
67042SOL    HW218737  13.047   3.980   7.674  0.5680 -1.7447  1.0141
67043SOL     OW18738   7.485   8.839   0.130 -0.2438 -0.6141 -0.0965
67043SOL    HW118739   7.479   8.813   0.038 -0.0700  0.3722 -0.4025
67043SOL    HW218740   7.571   8.881   0.137 -0.6232  0.1256  0.2836
67044SOL     OW18741   8.608  12.920   1.219 -0.4357  0.0839 -0.1310
67044SOL    HW118742   8.642  12.845   1.170 -1.1852 -0.6634  0.4584
67044SOL    HW218743   8.548  12.962   1.158  2.1228  1.9790 -1.5335
67045SOL     OW18744  12.731   3.895   5.367 -0.1201  0.3089  0.0150
67045SOL    HW118745  12.690   3.968   5.413  0.9060 -0.5581  2.4455
67045SOL    HW218746  12.664   3.865   5.306 -1.4253  1.7551  0.6632
67046SOL     OW18747   3.307   7.634   4.936  0.0327 -0.3536  0.0450
67046SOL    HW118748   3.226   7.684   4.926  0.4069  0.4613  0.8880
67046SOL    HW218749   3.291   7.577   5.011 -0.0905 -0.8976 -0.3869
67047SOL     OW18750   7.715   1.731  13.857 -0.3381 -0.6567 -0.2016
67047SOL    HW118751   7.646   1.796  13.873  0.4653 -0.1974  1.6216
67047SOL    HW218752   7.699   1.701  13.767 -2.4327 -0.0189 -0.0888
67048SOL     OW18753   8.063  12.287   3.204 -0.0213 -0.2877 -0.0097
67048SOL    HW118754   7.967  12.290   3.198 -0.0825 -2.3010 -0.8531
67048SOL    HW218755   8.080  12.262   3.295 -0.1958  1.6620  0.6000
67049SOL     OW18756  12.161  11.922  13.351 -0.4845  0.0862 -0.7558
67049SOL    HW118757  12.232  11.860  13.336 -0.3435 -0.3195  1.3282
67049SOL    HW218758  12.119  11.893  13.432 -1.2755  1.9219 -0.4430
67050SOL     OW18759   0.864  13.764   1.571  0.2444 -0.3791 -0.3608
67050SOL    HW118760   0.917  13.806   1.504  0.2742  1.6015  0.8264
67050SOL    HW218761   0.802  13.710   1.522  1.8466 -0.9434 -1.8477
67051SOL     OW18762  11.383   8.877   4.206  0.1242 -0.2350 -0.3545
67051SOL    HW118763  11.333   8.883   4.287 -0.2617  1.4411 -0.7030
67051SOL    HW218764  11.320   8.849   4.140 -0.4618  2.0599 -0.8338
67052SOL     OW18765  13.572   1.975   0.986 -0.1224 -0.2766  0.2271
67052SOL    HW118766  13.489   1.983   0.938 -1.9607 -2.7589  2.6814
67052SOL    HW218767  13.590   1.881   0.987  1.4604 -0.0097  1.7753
67053SOL     OW18768   0.993   1.214  10.430  0.9017  0.1013 -0.2885
67053SOL    HW118769   1.028   1.254  10.350  1.4849 -0.2358 -0.2095
67053SOL    HW218770   1.057   1.148  10.453 -0.7009 -1.8610 -1.1803
67054SOL     OW18771   1.978  13.135   9.974 -0.0929 -0.1283 -0.1120
67054SOL    HW118772   1.925  13.061   9.945 -1.4425  0.1877  1.3900
67054SOL    HW218773   1.986  13.190   9.896  1.6437 -2.1633 -1.4956
67055SOL     OW18774  12.275   1.278   1.208  0.1966  0.5282  0.2746
67055SOL    HW118775  12.302   1.288   1.117 -0.6311  0.3873  0.0126
67055SOL    HW218776  12.254   1.367   1.237  0.0728  0.5200  0.2088
67056SOL     OW18777   3.851  13.450   2.952  0.4759  0.0369 -0.2417
67056SOL    HW118778   3.898  13.503   3.017  1.3857 -0.3028 -0.6082
67056SOL    HW218779   3.806  13.514   2.897 -0.1907  0.3333  0.6217
67057SOL     OW18780   6.393  10.220   0.139 -0.4112  0.1477 -0.1060
67057SOL    HW118781   6.387  10.129   0.110 -1.4351  0.7705 -2.0272
67057SOL    HW218782   6.303  10.244   0.160 -0.3709  1.1057 -0.9597
67058SOL     OW18783  12.765   9.200   1.068  0.2203 -0.1554  0.2864
67058SOL    HW118784  12.765   9.128   1.130 -0.6801 -2.1178 -1.8585
67058SOL    HW218785  12.680   9.196   1.025  2.2850 -2.0687 -4.3718
67059SOL     OW18786   1.343   9.092  12.494 -0.5663  0.0668  0.0590
67059SOL    HW118787   1.401   9.102  12.418 -2.4826 -1.2091 -1.6774
67059SOL    HW218788   1.366   9.006  12.529 -0.1034  0.3964  0.5856
67060SOL     OW18789   1.268   7.104   6.989  0.2055  0.1781  0.4025
67060SOL    HW118790   1.318   7.138   7.063  1.2423  0.9348 -0.6240
67060SOL    HW218791   1.293   7.012   6.983 -0.8781 -0.2339  1.7794
67061SOL     OW18792  11.596   3.727   7.858 -0.1703 -0.4131 -0.5240
67061SOL    HW118793  11.571   3.776   7.936 -1.1962  0.6200 -1.4604
67061SOL    HW218794  11.566   3.638   7.876  0.0047 -0.2928  0.4297
67062SOL     OW18795   5.468   8.257  12.282 -0.2391  0.0336  0.3462
67062SOL    HW118796   5.404   8.323  12.256 -0.8808 -0.5990  0.3125
67062SOL    HW218797   5.497   8.218  12.199  0.9525  0.9985  0.2740
67063SOL     OW18798   1.292   7.789   3.877 -0.1957  0.5964  0.0469
67063SOL    HW118799   1.255   7.768   3.792 -0.2131  1.0034 -0.0486
67063SOL    HW218800   1.356   7.720   3.894 -0.7814  0.0545  0.0786
67064SOL     OW18801   5.943   0.755  13.116  0.0362 -0.2315 -0.2721
67064SOL    HW118802   5.866   0.811  13.115 -0.0895 -0.3630  1.0200
67064SOL    HW218803   5.911   0.669  13.090 -0.3029 -0.3363  0.4791
67065SOL     OW18804   3.012   4.667   5.429 -0.2118 -0.3732  0.1011
67065SOL    HW118805   3.045   4.752   5.458 -0.7148  0.6608 -2.1723
67065SOL    HW218806   2.970   4.630   5.507  0.4811  1.1934  1.2844
67066SOL     OW18807  10.000  13.913  10.330 -0.5193  0.2260 -0.0530
67066SOL    HW118808   9.953  13.839  10.292 -0.0270  0.1658 -0.5686
67066SOL    HW218809   9.935  13.958  10.384 -0.5507 -1.1914  1.1510
67067SOL     OW18810   8.504   0.477   3.074  0.1476 -0.1539 -0.2166
67067SOL    HW118811   8.421   0.493   3.119  0.2793 -0.5364  0.1630
67067SOL    HW218812   8.540   0.399   3.116  0.9725  0.3328  0.0202
67068SOL     OW18813  12.902   9.539   3.890  0.1992 -0.6587  0.1222
67068SOL    HW118814  12.808   9.537   3.903  0.2700 -2.0393  0.6665
67068SOL    HW218815  12.937   9.574   3.972  0.1780 -0.6960  0.1475
67069SOL     OW18816   2.867   3.883  11.358 -0.2454 -0.6589  0.6535
67069SOL    HW118817   2.831   3.950  11.416  1.1793  0.2227  0.5642
67069SOL    HW218818   2.961   3.895  11.363 -0.0366 -1.3370 -0.9373
67070SOL     OW18819  13.079   3.702   8.214 -0.3686 -0.0151  0.2618
67070SOL    HW118820  13.147   3.636   8.198 -0.1018  0.3266 -0.0181
67070SOL    HW218821  13.091   3.727   8.305  0.2208  0.4230  0.0685
67071SOL     OW18822   7.840  13.428  10.876 -0.0287 -0.2268 -0.4429
67071SOL    HW118823   7.911  13.484  10.905  0.4492  0.2631 -2.3906
67071SOL    HW218824   7.878  13.374  10.807 -1.5655  0.1826 -1.6682
67072SOL     OW18825  10.869   9.684   8.179  0.0190  0.1453  0.0721
67072SOL    HW118826  10.955   9.692   8.139 -0.4792  1.2684 -0.8232
67072SOL    HW218827  10.887   9.669   8.272  1.1905  1.6702  0.1350
67073SOL     OW18828   1.991  13.817   0.625  0.3284 -0.1062  0.4509
67073SOL    HW118829   1.990  13.799   0.719  0.1066  1.8159  0.8548
67073SOL    HW218830   2.066  13.875   0.613 -0.1567  0.3541 -0.4253
67074SOL     OW18831   1.602   2.760  10.115  0.2589  0.2660  0.0945
67074SOL    HW118832   1.552   2.761  10.196 -0.6032  1.1865 -0.4283
67074SOL    HW218833   1.651   2.842  10.116 -0.6125  0.8165 -0.8155
67075SOL     OW18834   2.361   2.075  11.332 -0.4627 -0.3895 -0.0609
67075SOL    HW118835   2.394   2.051  11.245 -1.3628 -3.1636  0.2451
67075SOL    HW218836   2.296   2.143  11.315  0.1362 -0.1309 -1.4514
67076SOL     OW18837   4.344  11.833  10.572  0.8210  0.2453 -0.4576
67076SOL    HW118838   4.372  11.791  10.654  1.8372  0.4682 -0.6708
67076SOL    HW218839   4.330  11.761  10.511 -3.7779 -0.3181  0.8962
67077SOL     OW18840   9.508   0.224  13.541 -0.0658  0.6211 -0.0334
67077SOL    HW118841   9.499   0.202  13.448  0.3457 -0.1224  0.0966
67077SOL    HW218842   9.512   0.320  13.542  0.5085  0.6167 -0.8418
67078SOL     OW18843  13.783   2.351   5.521 -0.0494  0.5428 -0.3251
67078SOL    HW118844  13.745   2.322   5.604 -0.5385  1.0457 -0.3718
67078SOL    HW218845  13.873   2.319   5.524 -0.5442 -0.8965 -0.3439
67079SOL     OW18846  11.388   1.164   1.255  0.3413  0.6249  0.2501
67079SOL    HW118847  11.399   1.069   1.260 -1.0937  0.4509  0.3804
67079SOL    HW218848  11.458   1.199   1.310  1.4142 -0.3099 -0.4730
67080SOL     OW18849   2.230   3.736  12.434  0.2238 -0.1316 -0.1988
67080SOL    HW118850   2.307   3.792  12.442  0.3603 -0.4175  0.5157
67080SOL    HW218851   2.260   3.649  12.462  0.0479 -0.6041 -1.4259
67081SOL     OW18852   7.534  10.984   5.943  0.1411 -0.1106  0.0047
67081SOL    HW118853   7.512  10.892   5.958  2.5924 -0.8264 -0.4127
67081SOL    HW218854   7.453  11.023   5.908 -1.0840 -1.9602  0.6677
67082SOL     OW18855   0.067   4.016  10.367 -0.3808 -0.1617 -0.2563
67082SOL    HW118856   0.079   4.106  10.337 -1.3733  0.7276  1.8323
67082SOL    HW218857   0.138   3.967  10.324  2.9118  2.3812  1.7226
67083SOL     OW18858   1.379   0.235  11.883 -0.2898 -0.4365 -0.4087
67083SOL    HW118859   1.378   0.217  11.977  1.7072  0.7899 -0.1034
67083SOL    HW218860   1.393   0.329  11.876  1.3668 -0.7344 -1.9037
67084SOL     OW18861   1.647   9.792  13.268 -0.2788 -0.1240  0.3545
67084SOL    HW118862   1.711   9.734  13.227  1.1158  3.0433 -2.3970
67084SOL    HW218863   1.562   9.753  13.246  0.5834 -0.8254 -2.0500
67085SOL     OW18864   8.916  12.624  10.533  0.1590  0.0750  0.1190
67085SOL    HW118865   8.968  12.635  10.613 -0.2327  1.9349  0.1503
67085SOL    HW218866   8.952  12.687  10.471 -1.4358  0.7796 -0.1580
67086SOL     OW18867   0.817  11.379   2.617 -0.8719 -0.8294 -0.4089
67086SOL    HW118868   0.891  11.348   2.670 -0.8764 -0.5920 -0.2650
67086SOL    HW218869   0.744  11.322   2.644 -1.4943  0.7952  1.5979
67087SOL     OW18870  10.530  10.180   0.854 -0.3380 -0.2958 -0.4760
67087SOL    HW118871  10.606  10.134   0.890 -0.4010 -1.0848 -1.3157
67087SOL    HW218872  10.456  10.123   0.875 -0.6097  0.1349 -0.2625
67088SOL     OW18873   1.641   6.381   4.174 -0.2569 -0.2065  0.1023
67088SOL    HW118874   1.622   6.443   4.103  0.2902 -1.4727 -1.1927
67088SOL    HW218875   1.667   6.437   4.248 -1.2086  1.1623 -0.5403
67089SOL     OW18876   0.855   0.996   1.748 -0.3305 -0.1837  0.7494
67089SOL    HW118877   0.843   0.909   1.786 -0.4287 -0.2348  0.6023
67089SOL    HW218878   0.794   1.052   1.797 -0.4373 -0.2441  0.6859
67090SOL     OW18879   6.479  13.840   3.060  0.4998  0.7532 -0.3734
67090SOL    HW118880   6.471  13.934   3.045 -0.8492  0.5829 -0.9154
67090SOL    HW218881   6.407  13.820   3.120  2.1830  0.4181  1.6706
67091SOL     OW18882  12.117   0.160   4.755  0.0098  0.7549  0.1532
67091SOL    HW118883  12.065   0.143   4.677 -0.4865 -1.9768  0.9782
67091SOL    HW218884  12.091   0.247   4.783 -2.3224  0.4382 -0.8382
67092SOL     OW18885   7.058  11.350   0.143  0.1471 -0.1010  0.5382
67092SOL    HW118886   7.113  11.292   0.195  2.3510  0.7383 -0.7422
67092SOL    HW218887   7.053  11.431   0.195 -1.6251 -0.8050  1.5782
67093SOL     OW18888  12.363   1.230   3.252  1.0383 -0.6666  0.1189
67093SOL    HW118889  12.369   1.203   3.161  1.2342  1.3698 -0.5305
67093SOL    HW218890  12.322   1.156   3.297  0.9310 -1.7041 -1.6134
67094SOL     OW18891   5.817   8.608   2.839  0.0784  0.2814  0.2704
67094SOL    HW118892   5.747   8.656   2.884 -0.2084  0.8022 -0.7016
67094SOL    HW218893   5.785   8.597   2.749  0.8650 -0.2630  0.0417
67095SOL     OW18894   8.538   1.731   3.089 -0.0348  0.6452  0.2752
67095SOL    HW118895   8.479   1.667   3.048 -0.2358  1.7230 -1.2156
67095SOL    HW218896   8.541   1.706   3.181  0.4389 -1.9176 -0.3715
67096SOL     OW18897  13.609   2.028   4.909 -0.0486 -0.3995  0.3611
67096SOL    HW118898  13.513   2.025   4.911 -0.0847 -0.0816 -0.4102
67096SOL    HW218899  13.630   2.118   4.887  0.4784 -0.1089  1.9746
67097SOL     OW18900   4.011   9.880   5.713  0.3207  0.1613  0.1174
67097SOL    HW118901   4.027   9.875   5.619  0.1717 -1.4290  0.1469
67097SOL    HW218902   3.941   9.944   5.723 -0.5300 -0.5628 -0.9837
67098SOL     OW18903  11.479   2.774  10.331  0.3629  0.2493 -0.0107
67098SOL    HW118904  11.570   2.746  10.336  0.0692 -1.1600 -1.5949
67098SOL    HW218905  11.482   2.869  10.343  2.1944  0.4071 -1.3497
67099SOL     OW18906   3.505  11.149   1.665 -0.1057 -0.3409  0.2342
67099SOL    HW118907   3.426  11.201   1.675  0.4609  0.8923 -1.2554
67099SOL    HW218908   3.576  11.210   1.687  0.5001 -0.9237 -0.0832
67100SOL     OW18909   6.705  12.262   0.912 -0.1368  0.8504 -0.1381
67100SOL    HW118910   6.766  12.331   0.888  1.7797 -0.6781  0.1018
67100SOL    HW218911   6.678  12.283   1.001 -0.2950  1.7467 -0.3872
67101SOL     OW18912   9.387   0.994   2.577  0.0047  0.0377 -0.2578
67101SOL    HW118913   9.477   0.965   2.590  1.2169  3.5804  0.5727
67101SOL    HW218914   9.373   0.988   2.483  0.6883 -1.5056 -0.2960
67102SOL     OW18915  11.155   8.573   0.655 -0.4029 -0.0254 -0.1290
67102SOL    HW118916  11.067   8.598   0.627  0.2353  0.0658 -2.2948
67102SOL    HW218917  11.192   8.653   0.693 -1.2433 -0.0685  0.7958
67103SOL     OW18918   7.495  12.277   2.534  0.0340  0.2616 -0.2523
67103SOL    HW118919   7.412  12.316   2.504 -0.5168 -1.0360 -0.4893
67103SOL    HW218920   7.468  12.211   2.598  1.0346  1.1230  1.1104
67104SOL     OW18921   6.543   8.242   4.198  0.7004 -0.2996 -0.1718
67104SOL    HW118922   6.480   8.277   4.262 -1.0681 -1.2745 -1.2794
67104SOL    HW218923   6.532   8.147   4.204  1.3113 -0.4408 -1.1400
67105SOL     OW18924   8.896  12.385   8.126  0.3857 -0.0796  0.2000
67105SOL    HW118925   8.904  12.479   8.113 -1.7027  0.4190  1.9080
67105SOL    HW218926   8.909  12.347   8.039 -1.4228  2.0393 -1.1012
67106SOL     OW18927   1.715   3.951   9.848  0.0857  0.7561  0.1014
67106SOL    HW118928   1.697   4.019   9.913  0.0785 -0.1568  1.0833
67106SOL    HW218929   1.649   3.965   9.780 -0.2404  1.4141  0.5447
67107SOL     OW18930   8.484  11.417  12.970  0.2427  0.1938  0.6209
67107SOL    HW118931   8.504  11.378  12.886 -2.0096 -0.1588  0.1833
67107SOL    HW218932   8.406  11.470  12.954  0.2458  0.7808  2.3108
67108SOL     OW18933  12.068   4.140  11.635  0.1932 -0.3870  0.1872
67108SOL    HW118934  12.092   4.083  11.562 -1.2058 -0.3511 -0.3449
67108SOL    HW218935  12.016   4.084  11.693 -1.9147  0.4643 -0.7533
67109SOL     OW18936   3.799  10.288  10.942 -0.0563 -0.0579  0.2595
67109SOL    HW118937   3.795  10.254  10.853 -0.1207 -1.7716  0.8946
67109SOL    HW218938   3.709  10.315  10.962 -0.1013  0.0451 -0.0805
67110SOL     OW18939   8.914   6.725  13.654  0.3619  0.3267 -0.0191
67110SOL    HW118940   8.916   6.688  13.742 -2.5916  1.7542  0.7597
67110SOL    HW218941   8.888   6.816  13.666  2.3903  1.3094 -2.2376
67111SOL     OW18942   0.873   8.764   6.745 -0.3646  0.1785 -0.8667
67111SOL    HW118943   0.872   8.692   6.809 -0.2845  1.9750  1.2505
67111SOL    HW218944   0.960   8.760   6.707 -0.4652 -1.0251 -1.0271
67112SOL     OW18945   6.162  11.018   7.009  0.1362  0.4538 -0.0463
67112SOL    HW118946   6.141  10.972   7.090  0.0543  0.0939 -0.2734
67112SOL    HW218947   6.092  11.084   7.000 -0.5634 -0.3288 -0.4733
67113SOL     OW18948  12.778  12.216  12.289  0.1836 -0.3904  0.0999
67113SOL    HW118949  12.837  12.154  12.246 -0.4877 -1.0339  0.0850
67113SOL    HW218950  12.790  12.298  12.241 -0.1228 -0.9447 -0.9581
67114SOL     OW18951   2.414   8.419   3.167 -0.6135 -0.2887 -0.0488
67114SOL    HW118952   2.466   8.425   3.087 -1.0096 -1.8260 -0.4434
67114SOL    HW218953   2.466   8.365   3.226 -0.9303 -0.2701  0.2540
67115SOL     OW18954   9.709   3.221  11.265 -0.4335 -0.0027  0.0403
67115SOL    HW118955   9.699   3.284  11.336  1.7030 -0.3021  0.6806
67115SOL    HW218956   9.729   3.274  11.188 -0.5265  0.1946  0.1510
67116SOL     OW18957   2.442  10.032   1.202 -0.0806 -0.4248  0.5654
67116SOL    HW118958   2.392  10.110   1.181  1.9669  0.4477 -1.5925
67116SOL    HW218959   2.426   9.972   1.129  1.5454 -0.3056  0.0576
67117SOL     OW18960   2.896   9.928   4.943  0.1633 -0.2826  0.3142
67117SOL    HW118961   2.817   9.901   4.896 -0.4799  1.2727  0.4509
67117SOL    HW218962   2.948   9.974   4.878 -0.6970  1.8148  1.0088
67118SOL     OW18963   9.069   4.897  11.898 -0.5194  0.6074  0.2655
67118SOL    HW118964   9.092   4.895  11.805 -1.0650 -1.3295  0.1220
67118SOL    HW218965   9.131   4.838  11.939  1.0850  3.0473  1.5451
67119SOL     OW18966   4.054   0.525   8.479  0.0172  0.0135  0.8778
67119SOL    HW118967   3.990   0.500   8.545  0.0616 -1.0746  0.5224
67119SOL    HW218968   4.003   0.571   8.412 -0.4862 -1.2887  0.3549
67120SOL     OW18969   9.353  11.606   8.803 -0.0087  0.0523  0.5474
67120SOL    HW118970   9.264  11.599   8.837  0.0681 -0.1693  0.7035
67120SOL    HW218971   9.392  11.676   8.854  0.1240 -0.3167  0.9647
67121SOL     OW18972   3.940  13.756   3.373  0.2217  0.7387 -0.4280
67121SOL    HW118973   3.945  13.725   3.464 -0.5712 -0.4710 -0.7862
67121SOL    HW218974   3.939  13.852   3.381  0.0868  0.6487  0.8378
67122SOL     OW18975  11.370   7.328  12.255 -0.0256 -0.0201 -0.1847
67122SOL    HW118976  11.355   7.316  12.349  0.2397  0.4982 -0.0697
67122SOL    HW218977  11.310   7.398  12.230  0.0555 -0.0100 -0.3539
67123SOL     OW18978  11.332  13.766   7.101 -0.2324  0.6637 -0.1220
67123SOL    HW118979  11.262  13.788   7.040 -1.1455 -0.3436  0.5423
67123SOL    HW218980  11.292  13.772   7.188  0.3778 -0.2956  0.2456
67124SOL     OW18981   8.835  13.859   9.252 -0.4534 -0.2118  0.2919
67124SOL    HW118982   8.925  13.857   9.286 -0.3811 -2.6301  0.1251
67124SOL    HW218983   8.781  13.880   9.329  0.1349 -0.2235  0.7193
67125SOL     OW18984   1.197   6.724   3.021  0.1774  0.0271 -0.5021
67125SOL    HW118985   1.139   6.760   2.955 -2.0487 -1.4969  0.4936
67125SOL    HW218986   1.224   6.800   3.073 -2.4117  0.6521  0.0783
67126SOL     OW18987   2.435  10.156   7.967 -1.1720 -0.6444  0.0616
67126SOL    HW118988   2.442  10.209   8.047 -1.3239 -0.6191  0.0585
67126SOL    HW218989   2.515  10.103   7.967 -1.0075 -0.4022  0.0544
67127SOL     OW18990   9.144   9.404   5.356 -0.5490 -0.3893  0.2555
67127SOL    HW118991   9.129   9.310   5.346 -1.9811 -0.0715 -0.8869
67127SOL    HW218992   9.083   9.431   5.424  0.0604 -0.3160  0.7851
67128SOL     OW18993   1.233  10.178   4.089  0.1261  0.6628  0.0672
67128SOL    HW118994   1.310  10.132   4.054 -0.0206  1.4103 -1.3179
67128SOL    HW218995   1.270  10.246   4.145  0.4694  0.9105 -0.4549
67129SOL     OW18996   1.900   6.596   5.051 -0.4702 -0.1694  0.3721
67129SOL    HW118997   1.816   6.636   5.076 -0.1022  1.0270 -0.2410
67129SOL    HW218998   1.880   6.547   4.971 -0.2888  1.3390 -0.6186
67130SOL     OW18999   1.947   0.921  13.874 -0.3790  0.0223  0.0121
67130SOL    HW119000   1.980   0.920  13.784 -3.7925  0.1545 -1.3839
67130SOL    HW219001   1.952   0.830  13.902 -2.1103 -0.6160 -1.5356
67131SOL     OW19002   5.804   2.812   8.828  0.0136  0.2477  0.0190
67131SOL    HW119003   5.712   2.808   8.852 -0.2236 -0.2069 -0.9127
67131SOL    HW219004   5.823   2.726   8.791 -0.0305  1.2784 -2.6411
67132SOL     OW19005  13.766   3.544   5.443  0.1204 -0.5865  0.3514
67132SOL    HW119006  13.861   3.531   5.436  0.1102 -0.2595 -0.5547
67132SOL    HW219007  13.757   3.637   5.467  0.0296 -0.4616 -0.1380
67133SOL     OW19008   3.518   3.107   9.740  0.0412 -0.1323  0.1829
67133SOL    HW119009   3.476   3.191   9.721 -0.1443 -0.4679 -0.9516
67133SOL    HW219010   3.516   3.060   9.657  1.1273 -0.8383  0.5403
67134SOL     OW19011   5.007   3.377   7.033  0.4252 -0.1077  0.1351
67134SOL    HW119012   4.911   3.377   7.027  0.2329  0.0937  2.3241
67134SOL    HW219013   5.036   3.432   6.960 -1.0300 -1.0803 -1.2516
67135SOL     OW19014   7.414   6.634  13.942 -0.1722 -0.3122  0.4994
67135SOL    HW119015   7.383   6.664  14.028 -2.2448 -2.4845  0.6236
67135SOL    HW219016   7.496   6.587  13.961  0.4246  0.8806  0.9734
67136SOL     OW19017  12.624   6.426  11.710  0.4530 -0.3285  0.2432
67136SOL    HW119018  12.658   6.506  11.669  0.1156  1.1235  2.5847
67136SOL    HW219019  12.531   6.425  11.687  0.4559 -0.0419  0.2142
67137SOL     OW19020   7.557  13.825  13.816  0.4398  0.4988 -0.1653
67137SOL    HW119021   7.647  13.800  13.837  0.0790 -0.7534 -0.0346
67137SOL    HW219022   7.554  13.824  13.720  0.4562  0.1576 -0.1611
67138SOL     OW19023  10.424   1.322  11.645 -0.0944 -0.2966  0.1509
67138SOL    HW119024  10.420   1.298  11.553 -0.4034 -0.1988  0.1359
67138SOL    HW219025  10.338   1.297  11.680 -0.2954  0.4572  0.2131
67139SOL     OW19026  14.079  12.652  10.430  0.2811  0.3570  0.6218
67139SOL    HW119027  14.077  12.724  10.493  1.3964  1.3423 -0.4164
67139SOL    HW219028  14.099  12.574  10.482  0.0411  0.9560  1.6301
67140SOL     OW19029   9.338   4.415  14.089 -0.0322  0.2821  0.2698
67140SOL    HW119030   9.264   4.365  14.056  0.1223  0.6157 -0.6116
67140SOL    HW219031   9.402   4.413  14.018 -0.0574  1.7878  0.1701
67141SOL     OW19032   8.267   6.626   0.905 -1.0024 -0.3807  0.0872
67141SOL    HW119033   8.284   6.532   0.910  2.6971  0.0929 -0.4578
67141SOL    HW219034   8.307   6.662   0.985 -2.7949  0.7349  0.5424
67142SOL     OW19035  10.466   8.381  12.198 -0.5341 -0.2990  0.1500
67142SOL    HW119036  10.391   8.332  12.231 -0.5138 -1.8934 -1.9735
67142SOL    HW219037  10.536   8.316  12.191  0.6813  0.8855  0.8606
67143SOL     OW19038  10.821   5.996   6.246 -0.4676  0.1080 -0.5174
67143SOL    HW119039  10.753   6.064   6.241 -0.7397 -0.1710 -0.6499
67143SOL    HW219040  10.877   6.024   6.318 -2.7276 -1.4792  2.0474
67144SOL     OW19041  12.382   5.884   6.191 -0.2793 -0.4018  0.2336
67144SOL    HW119042  12.427   5.951   6.243 -0.9136 -0.5462  0.9917
67144SOL    HW219043  12.365   5.926   6.107 -0.3577  0.2771  0.5843
67145SOL     OW19044  11.041  11.732   2.979  0.0595  0.8374  0.4598
67145SOL    HW119045  11.002  11.815   2.951 -1.4920 -0.3189 -1.0121
67145SOL    HW219046  11.132  11.754   2.999 -0.6363  3.1299  1.4367
67146SOL     OW19047   6.921  11.476   2.090  0.8103 -0.0069  0.2849
67146SOL    HW119048   6.841  11.526   2.072  0.0898 -1.0816  0.3725
67146SOL    HW219049   6.978  11.538   2.135  0.2562  0.9559 -0.2973
67147SOL     OW19050   5.890  13.983   9.210 -0.2222 -0.3051 -0.3491
67147SOL    HW119051   5.828  14.012   9.277  0.4905  0.6910 -0.0943
67147SOL    HW219052   5.956  14.053   9.207  0.1900 -0.7273 -1.5199
67148SOL     OW19053   1.778  10.478  10.865  0.0675  0.1267 -0.4229
67148SOL    HW119054   1.853  10.426  10.835  1.9333  2.0957  0.5608
67148SOL    HW219055   1.788  10.563  10.822 -2.0523  0.2231 -0.8346
67149SOL     OW19056  11.811  13.016  12.911 -0.0087 -0.2753  0.4069
67149SOL    HW119057  11.753  13.025  12.835 -2.1613 -0.9338  1.8947
67149SOL    HW219058  11.834  13.105  12.935  1.6284 -0.0722 -1.6215
67150SOL     OW19059   7.202   4.316   4.079 -0.1551  0.4842 -0.1454
67150SOL    HW119060   7.277   4.257   4.087 -1.1082 -1.2600 -2.6316
67150SOL    HW219061   7.183   4.318   3.985 -3.7379  0.1047  0.4061
67151SOL     OW19062   6.794   7.248   2.328 -0.3484 -0.5630  0.2288
67151SOL    HW119063   6.755   7.330   2.298 -1.5987 -0.4522  1.9856
67151SOL    HW219064   6.868   7.234   2.269 -0.4646  1.4964 -0.5021
67152SOL     OW19065  10.365  13.740   7.361  0.1500 -0.1637  0.2306
67152SOL    HW119066  10.301  13.797   7.318 -0.4978 -2.3773 -2.0042
67152SOL    HW219067  10.394  13.790   7.437 -1.0111  2.7154 -1.0580
67153SOL     OW19068  13.459   9.004   4.216  0.0516  0.0702 -0.1760
67153SOL    HW119069  13.451   9.029   4.308  0.2893 -1.3629  0.2656
67153SOL    HW219070  13.369   8.995   4.186 -0.0346 -0.1528  0.1365
67154SOL     OW19071  13.061   6.102   7.207  0.0969 -0.6633  0.2901
67154SOL    HW119072  13.003   6.103   7.131 -0.3043  0.9496  0.5802
67154SOL    HW219073  13.136   6.155   7.182  0.0138 -0.2084  0.9636
67155SOL     OW19074   3.991   3.836   6.655  0.1109 -0.1002  0.1098
67155SOL    HW119075   3.968   3.879   6.572  2.9205 -1.8398 -1.7641
67155SOL    HW219076   4.037   3.903   6.705  0.6014  0.2818 -0.8372
67156SOL     OW19077  10.678  13.004  11.724 -0.6610  0.6880 -0.4200
67156SOL    HW119078  10.741  12.933  11.730  0.0034  0.7772 -4.0526
67156SOL    HW219079  10.701  13.062  11.796 -0.5685 -2.1631  2.0374
67157SOL     OW19080  11.334   2.172  12.139  0.6929 -0.2690  0.1876
67157SOL    HW119081  11.355   2.079  12.133  0.6404 -0.2067 -2.5849
67157SOL    HW219082  11.418   2.216  12.133  0.7756 -0.1034  2.1519
67158SOL     OW19083  11.707   4.417   6.887  0.6681 -0.3131 -0.4420
67158SOL    HW119084  11.620   4.453   6.871  0.3807 -1.3736 -1.4169
67158SOL    HW219085  11.767   4.489   6.865  0.0550  0.3578  0.0441
67159SOL     OW19086   5.253  11.471   1.042  0.0940  0.6562 -0.5829
67159SOL    HW119087   5.289  11.451   1.128  0.6175 -2.5368 -1.4043
67159SOL    HW219088   5.158  11.457   1.052 -0.0560  1.9216 -0.1542
67160SOL     OW19089   0.246   9.368   0.102  0.5831  0.1280  0.1356
67160SOL    HW119090   0.268   9.403   0.188  1.6472 -0.3981  0.0913
67160SOL    HW219091   0.325   9.380   0.050  0.0244  0.2480 -0.7171
67161SOL     OW19092  13.897   3.023  13.221 -0.4086 -0.4468 -0.3018
67161SOL    HW119093  13.941   2.989  13.299  0.1698 -2.0147 -1.2645
67161SOL    HW219094  13.871   3.112  13.245 -0.7317 -1.0659  1.8510
67162SOL     OW19095   1.495   6.478  12.321 -0.0366  0.0313  0.0880
67162SOL    HW119096   1.508   6.394  12.366  2.3302 -1.0480 -2.3155
67162SOL    HW219097   1.410   6.469  12.277  0.8577 -1.8973 -1.4419
67163SOL     OW19098   0.450   2.542   9.142 -0.2359 -0.6916 -0.1279
67163SOL    HW119099   0.456   2.451   9.111 -1.4084  0.1277 -2.9798
67163SOL    HW219100   0.507   2.591   9.084 -1.8818  0.8223 -0.5343
67164SOL     OW19101   4.024   3.886   9.045  0.3124 -0.0439  0.3189
67164SOL    HW119102   3.944   3.914   9.002 -0.2435 -1.5252  0.3139
67164SOL    HW219103   4.095   3.930   8.998 -0.4353  0.4402 -0.3652
67165SOL     OW19104   1.629   7.940   0.226 -0.5328  0.5350 -0.1057
67165SOL    HW119105   1.706   7.887   0.208 -0.0980  0.9738  0.4226
67165SOL    HW219106   1.557   7.895   0.181 -0.1710 -0.4894  0.3066
67166SOL     OW19107   0.529  10.554  11.975  0.0215  0.1373  0.4531
67166SOL    HW119108   0.564  10.490  12.037 -0.1193 -0.1597  0.2328
67166SOL    HW219109   0.434  10.552  11.990 -0.0473 -0.1706  0.0182
67167SOL     OW19110   6.575   3.242   0.745  0.1085 -0.7203 -0.0270
67167SOL    HW119111   6.546   3.234   0.836 -2.2019 -0.3669 -0.6722
67167SOL    HW219112   6.549   3.160   0.704  0.5445 -0.6138 -0.5270
67168SOL     OW19113   4.196  13.204   4.981  0.1609 -0.3703  0.3826
67168SOL    HW119114   4.271  13.263   4.982 -0.3852  0.3999 -1.0097
67168SOL    HW219115   4.225  13.129   4.929 -1.2218  1.7736 -3.9453
67169SOL     OW19116   0.871   8.215  12.123  0.6075  0.3955  0.0581
67169SOL    HW119117   0.872   8.210  12.219  1.5304 -1.5008 -0.0163
67169SOL    HW219118   0.782   8.190  12.098  1.0321 -1.5810  0.3678
67170SOL     OW19119   1.962  12.435   1.862  0.4575 -0.1292 -0.0542
67170SOL    HW119120   1.903  12.360   1.859  0.5394 -0.1844 -0.3923
67170SOL    HW219121   2.038  12.408   1.811  0.2998  0.3316 -0.5573
67171SOL     OW19122   0.031   1.747   8.654  0.0786 -0.4058 -0.6084
67171SOL    HW119123   0.095   1.778   8.590 -0.7349  2.0477 -0.3440
67171SOL    HW219124  -0.052   1.784   8.624 -0.4975 -0.0732  1.2979
67172SOL     OW19125   1.912  11.890  10.995 -0.2358  0.3366  0.4066
67172SOL    HW119126   1.914  11.797  11.015 -1.5294  0.2735  0.2968
67172SOL    HW219127   1.898  11.933  11.080  0.5356  0.4604  0.4850
67173SOL     OW19128   2.292   7.977   7.204 -0.3326 -0.5688 -0.2594
67173SOL    HW119129   2.333   8.022   7.278 -1.4912  0.6031 -0.2974
67173SOL    HW219130   2.210   8.024   7.190 -0.1732 -0.7956 -2.2465
67174SOL     OW19131  11.974  12.076   7.110  0.1264 -0.0764  0.2468
67174SOL    HW119132  12.069  12.071   7.117  0.1656 -1.0332 -0.5882
67174SOL    HW219133  11.955  12.167   7.087  0.8582  0.0466  0.1354
67175SOL     OW19134   1.773   2.108  11.209 -0.3019  0.2978 -0.5378
67175SOL    HW119135   1.734   2.168  11.273 -0.8438 -0.7374  0.1441
67175SOL    HW219136   1.705   2.041  11.195 -0.3230  0.6614 -2.4514
67176SOL     OW19137   8.927   9.906  12.638 -0.3371  0.2928  0.0258
67176SOL    HW119138   8.899   9.965  12.708 -0.2759 -0.2507  0.5177
67176SOL    HW219139   9.009   9.944  12.606 -0.0091  0.1820  0.7183
67177SOL     OW19140   3.849   8.119   1.138  0.0457 -0.0084 -0.2144
67177SOL    HW119141   3.914   8.160   1.081 -0.4779  0.0160 -0.8031
67177SOL    HW219142   3.796   8.066   1.079  0.4321 -1.1942  0.4773
67178SOL     OW19143   3.855  12.600   1.732 -0.0282 -0.0031 -0.0260
67178SOL    HW119144   3.880  12.578   1.642 -0.2217 -0.0042 -0.0806
67178SOL    HW219145   3.864  12.695   1.737  0.5312 -0.0590  0.1239
67179SOL     OW19146   4.678   8.322   1.175  0.5469 -0.5652 -0.0305
67179SOL    HW119147   4.690   8.416   1.180  0.3877 -0.5873  0.9114
67179SOL    HW219148   4.584   8.309   1.180  0.5164 -0.7383 -0.9474
67180SOL     OW19149   5.911  12.748   9.317  0.4919 -0.0850 -0.1737
67180SOL    HW119150   5.835  12.806   9.331 -0.1776 -0.7366 -0.9646
67180SOL    HW219151   5.986  12.807   9.318 -0.1376  0.7513 -0.5364
67181SOL     OW19152  12.908   1.831   5.562  0.2506 -0.7184 -0.3115
67181SOL    HW119153  12.920   1.863   5.651  1.8199  2.0771 -1.3889
67181SOL    HW219154  12.815   1.843   5.544  0.1636 -0.0397  0.5450
67182SOL     OW19155   6.124   2.661  12.337 -0.7484  0.4819  0.2715
67182SOL    HW119156   6.043   2.696  12.373  0.9982  2.6356  2.4527
67182SOL    HW219157   6.149   2.723  12.268 -0.1758  0.7490  0.7092
67183SOL     OW19158   7.717   9.903  13.643  0.7615 -0.6834  0.3102
67183SOL    HW119159   7.651   9.911  13.574  1.2390  1.2162  0.0195
67183SOL    HW219160   7.793   9.865  13.599  1.1193  0.6645 -0.2917
67184SOL     OW19161   7.884   2.959  13.569 -0.3915  0.0706 -0.2497
67184SOL    HW119162   7.835   2.918  13.498 -1.0564 -0.3371  0.4238
67184SOL    HW219163   7.822   3.019  13.610 -0.0222  0.2966 -0.0116
67185SOL     OW19164   1.877   0.050   6.927 -0.1260 -0.0481 -0.4392
67185SOL    HW119165   1.852  -0.016   6.992 -0.9857 -1.2306 -1.9266
67185SOL    HW219166   1.795   0.094   6.905  0.4141  1.4945  0.4357
67186SOL     OW19167  12.370   5.083   6.585  0.0342  0.1763  0.3212
67186SOL    HW119168  12.354   5.077   6.679 -1.1855 -1.5200  0.0661
67186SOL    HW219169  12.290   5.121   6.549 -0.4210 -1.1817 -0.2041
67187SOL     OW19170   8.473  11.398   4.832  0.1870  0.4926  0.1809
67187SOL    HW119171   8.444  11.489   4.833 -0.6723  0.2467 -0.5745
67187SOL    HW219172   8.541  11.393   4.900 -0.8941  1.3197  1.3650
67188SOL     OW19173   7.398   4.003  13.242 -0.2067  0.5522  0.2339
67188SOL    HW119174   7.389   3.981  13.335  0.4191 -0.9572 -0.0381
67188SOL    HW219175   7.331   3.951  13.198 -0.4213  1.1718 -0.1933
67189SOL     OW19176  11.064   8.276  10.773 -0.0828  0.1092  0.0209
67189SOL    HW119177  11.078   8.308  10.685 -0.4073 -0.1232 -0.1165
67189SOL    HW219178  10.983   8.318  10.802 -1.5356 -1.9025 -0.8260
67190SOL     OW19179   3.816  13.510  10.497  0.3712 -0.2706  0.5831
67190SOL    HW119180   3.745  13.465  10.542 -0.6704 -0.0314 -0.7686
67190SOL    HW219181   3.773  13.581  10.449  1.5607  0.0631 -0.0245
67191SOL     OW19182   9.402  10.153   1.748 -0.2358 -0.0993 -0.2898
67191SOL    HW119183   9.447  10.147   1.832  0.6166 -1.0358 -0.7855
67191SOL    HW219184   9.463  10.202   1.692  0.7314 -2.2968 -1.2781
67192SOL     OW19185   4.779  11.070  10.165 -0.4539 -0.0876 -0.4043
67192SOL    HW119186   4.801  11.050  10.256  0.9909  2.8586 -0.0109
67192SOL    HW219187   4.693  11.112  10.170  0.0926  1.0253 -0.2575
67193SOL     OW19188   5.841   4.582   1.865 -0.4889  0.1274 -0.0050
67193SOL    HW119189   5.787   4.503   1.862 -0.5363  0.1482  0.2708
67193SOL    HW219190   5.817   4.625   1.947  1.0794 -0.6791  0.9307
67194SOL     OW19191   9.442  11.048   5.584  0.4644  0.6430  0.0979
67194SOL    HW119192   9.531  11.033   5.614  0.6504  3.3534  1.2085
67194SOL    HW219193   9.434  10.996   5.503  2.5600 -0.6902  0.6831
67195SOL     OW19194   8.352   1.826   8.606  0.3408 -0.2532  0.0942
67195SOL    HW119195   8.374   1.849   8.515  2.3824  0.0548  0.6162
67195SOL    HW219196   8.275   1.879   8.625  1.5498  1.9180 -0.5958
67196SOL     OW19197   3.326  13.658   6.606  0.4006 -0.3320 -0.0542
67196SOL    HW119198   3.368  13.574   6.588  0.2096 -0.3900 -0.2356
67196SOL    HW219199   3.392  13.708   6.654 -0.0842 -1.2120  1.6034
67197SOL     OW19200   8.685  10.634   1.101  0.0498 -0.2436  0.4034
67197SOL    HW119201   8.686  10.679   1.016  0.4382 -1.5720 -0.3342
67197SOL    HW219202   8.776  10.637   1.130  0.4750 -2.0941 -0.5525
67198SOL     OW19203   8.352   0.170   4.554 -0.1177  0.4651 -0.8349
67198SOL    HW119204   8.424   0.232   4.568 -0.2606  0.5184 -0.3363
67198SOL    HW219205   8.386   0.087   4.586 -0.5974  0.6746  0.2574
67199SOL     OW19206   0.452  10.883   6.244 -0.3468  0.2183 -0.4976
67199SOL    HW119207   0.460  10.828   6.167 -3.1542 -0.9663 -0.0773
67199SOL    HW219208   0.537  10.878   6.287  0.6390 -0.6990 -2.4682
67200SOL     OW19209  11.948   0.295   8.848 -0.2779  0.1907 -0.4448
67200SOL    HW119210  11.888   0.268   8.918  0.2661 -1.3351 -0.5418
67200SOL    HW219211  11.894   0.350   8.790 -0.7733  1.4086  1.0742
67201SOL     OW19212   7.046   9.684   1.889 -0.1287  0.4935  0.3837
67201SOL    HW119213   7.134   9.706   1.859 -0.5797  0.3270 -1.1620
67201SOL    HW219214   7.028   9.746   1.959  1.7391 -0.3762  1.6934
67202SOL     OW19215  12.927   4.357  11.863 -0.2093  0.6070 -0.2538
67202SOL    HW119216  12.934   4.285  11.801 -0.1365  1.3785 -1.1603
67202SOL    HW219217  12.834   4.367  11.878 -0.1507 -1.6115  2.2312
67203SOL     OW19218   5.489   0.254   2.689 -0.2935  0.6110  0.1555
67203SOL    HW119219   5.408   0.291   2.724 -0.6427 -1.1925  1.4164
67203SOL    HW219220   5.466   0.221   2.603 -0.7447  0.6776  0.2481
67204SOL     OW19221   9.663  11.519   1.002  0.5147 -0.5660  0.3107
67204SOL    HW119222   9.696  11.583   1.065 -0.1525 -0.7108  0.8166
67204SOL    HW219223   9.733  11.454   0.996  0.7306 -0.3662  0.6413
67205SOL     OW19224   0.805   4.333  11.259  0.0356  0.0765  0.3412
67205SOL    HW119225   0.732   4.312  11.201  1.1042 -0.8549 -0.6952
67205SOL    HW219226   0.843   4.413  11.223 -0.7022  0.8230  1.1434
67206SOL     OW19227  10.437   0.029  11.452 -0.0141 -0.4862  0.3193
67206SOL    HW119228  10.399  -0.030  11.386  1.5623 -2.5926  1.1868
67206SOL    HW219229  10.531   0.028  11.434  0.2759  0.0980  1.6905
67207SOL     OW19230  11.952  10.867   3.705  0.2831  0.2307 -0.2237
67207SOL    HW119231  11.996  10.821   3.776 -1.6433 -0.9946  0.2582
67207SOL    HW219232  11.861  10.875   3.735 -0.3839  0.4789 -2.1754
67208SOL     OW19233   9.833   5.416   3.065  0.8611  0.4717 -0.1932
67208SOL    HW119234   9.828   5.357   2.990  0.0871  0.3711 -0.0745
67208SOL    HW219235   9.906   5.474   3.046 -0.3136  1.5073 -1.8270
67209SOL     OW19236   5.513   0.935   5.571  0.3452 -0.2022  0.1887
67209SOL    HW119237   5.554   0.863   5.522  2.6468  1.7286 -0.9137
67209SOL    HW219238   5.443   0.966   5.513  2.5068  1.5139 -1.6755
67210SOL     OW19239   5.436   2.216   1.385  0.4534  0.7652  0.6060
67210SOL    HW119240   5.404   2.287   1.329 -0.7177  0.4153  0.8046
67210SOL    HW219241   5.372   2.146   1.374  0.4998  0.4761  1.9382
67211SOL     OW19242   7.845  12.700   1.924 -0.1660 -0.1055 -0.0881
67211SOL    HW119243   7.911  12.758   1.963  0.8178 -0.5315 -1.0818
67211SOL    HW219244   7.895  12.641   1.868 -1.4475 -0.1351 -1.2464
67212SOL     OW19245   1.731   5.021   2.993  0.7401  0.0770 -0.3247
67212SOL    HW119246   1.642   5.024   2.958  0.8435  0.6431 -0.5435
67212SOL    HW219247   1.784   4.984   2.923  0.6466 -0.4532 -0.1208
67213SOL     OW19248   4.711  10.295   2.404  0.6088  0.3800 -0.5230
67213SOL    HW119249   4.631  10.253   2.435  0.2482  1.2430 -0.2724
67213SOL    HW219250   4.718  10.375   2.455  0.9240  0.9807 -1.4749
67214SOL     OW19251   5.151   7.429   2.413 -0.3879 -0.1407 -0.0949
67214SOL    HW119252   5.146   7.455   2.322 -1.2800 -1.4845 -0.4683
67214SOL    HW219253   5.062   7.444   2.447 -0.1836 -0.0822  0.4331
67215SOL     OW19254   7.091  13.685   1.363 -0.0526  0.3323  0.4165
67215SOL    HW119255   7.176  13.689   1.408 -0.6889  0.6136  1.6372
67215SOL    HW219256   7.050  13.606   1.398 -1.4325  1.6694  2.0113
67216SOL     OW19257   3.771  12.809   2.977 -0.5352 -0.3470 -0.0069
67216SOL    HW119258   3.826  12.793   3.054  0.9765  2.3066 -0.4348
67216SOL    HW219259   3.682  12.801   3.010  0.0636 -1.7044  1.4227
67217SOL     OW19260  14.052  13.984   6.962  0.1968  0.5348 -0.0856
67217SOL    HW119261  14.063  14.052   7.028 -0.5192 -0.5350  1.1926
67217SOL    HW219262  14.141  13.962   6.935  0.5072  1.0354  0.4979
67218SOL     OW19263   6.673  10.953   2.266  0.0258  0.6769  0.6213
67218SOL    HW119264   6.663  11.048   2.268 -0.5719  0.6066  1.7802
67218SOL    HW219265   6.585  10.920   2.252  0.3394  0.2990 -0.5569
67219SOL     OW19266   0.743   2.449   7.169  0.1495  0.1276  0.3817
67219SOL    HW119267   0.728   2.473   7.077 -0.3918 -2.0450 -0.1607
67219SOL    HW219268   0.674   2.494   7.218  0.6493  1.5864 -0.2001
67220SOL     OW19269  11.577   8.594   3.903 -1.0213 -0.1806 -0.0343
67220SOL    HW119270  11.582   8.649   3.981  0.2440  1.7210 -1.3708
67220SOL    HW219271  11.579   8.656   3.830 -2.5664 -1.8591 -1.6192
67221SOL     OW19272  11.818  13.846  10.557  0.0690 -0.3194 -0.5692
67221SOL    HW119273  11.737  13.794  10.552 -0.4630  0.6011 -2.6410
67221SOL    HW219274  11.815  13.902  10.480  2.8788 -0.4829 -0.8908
67222SOL     OW19275   0.261  11.230   1.667  1.1179  0.5832  0.4129
67222SOL    HW119276   0.177  11.188   1.684  1.3455 -0.5735 -1.1043
67222SOL    HW219277   0.306  11.230   1.751 -0.2081  0.8270  1.1511
67223SOL     OW19278   5.033  10.547   0.361 -0.1421  0.6997 -0.2127
67223SOL    HW119279   4.992  10.522   0.445 -0.7884 -0.8505 -0.9500
67223SOL    HW219280   4.961  10.582   0.309 -0.7161 -2.2374 -1.5968
67224SOL     OW19281   3.812   3.734   1.222 -0.3656  0.1434 -0.1495
67224SOL    HW119282   3.738   3.683   1.256 -1.5605  3.2878  2.4425
67224SOL    HW219283   3.889   3.679   1.240 -1.7314 -1.6257  0.5087
67225SOL     OW19284   9.283  13.549   1.091  0.2656  0.2539  0.0260
67225SOL    HW119285   9.317  13.622   1.040  1.1079 -0.0324  0.1639
67225SOL    HW219286   9.361  13.505   1.126 -0.1660 -1.3351 -0.9165
67226SOL     OW19287  13.468  11.311  12.975 -0.0236 -0.3963 -0.0930
67226SOL    HW119288  13.479  11.400  12.939 -1.1883  0.3558  1.2882
67226SOL    HW219289  13.374  11.296  12.970 -0.2025 -0.3914  2.2234
67227SOL     OW19290  11.744  10.503   7.220 -0.4226 -0.2727  0.2490
67227SOL    HW119291  11.676  10.483   7.155 -0.3814 -2.2182  0.7247
67227SOL    HW219292  11.697  10.509   7.303 -0.2262  0.1481  0.3302
67228SOL     OW19293   9.710   8.069   0.561 -0.1500  0.5370 -0.0090
67228SOL    HW119294   9.761   8.092   0.639  0.6914 -0.0670 -0.3737
67228SOL    HW219295   9.693   8.154   0.519 -1.6889  1.0175  1.4462
67229SOL     OW19296   2.773  12.093   1.808  0.0932  0.1071  0.1010
67229SOL    HW119297   2.819  12.100   1.724  0.9962 -1.9389  0.3745
67229SOL    HW219298   2.683  12.119   1.788  0.8196  1.9842 -0.9445
67230SOL     OW19299   9.191   0.212  14.005  0.2547  0.2742 -0.0345
67230SOL    HW119300   9.128   0.275  14.041  0.2173 -0.8117  1.9491
67230SOL    HW219301   9.262   0.210  14.068  2.6216  1.7680 -2.4307
67231SOL     OW19302   3.232   5.393   5.215 -0.1165 -0.6666 -0.0761
67231SOL    HW119303   3.174   5.350   5.153 -1.0231 -0.9763  0.9520
67231SOL    HW219304   3.292   5.443   5.161 -0.9456 -0.8444 -1.1973
67232SOL     OW19305   3.388  10.162   0.114  0.1418  0.1858 -0.4254
67232SOL    HW119306   3.457  10.109   0.156  0.5269  0.2173 -0.9970
67232SOL    HW219307   3.435  10.237   0.078  0.2018 -0.8130 -2.6544
67233SOL     OW19308   3.970  13.366  12.243 -0.5522  0.6233  0.5492
67233SOL    HW119309   3.898  13.333  12.190 -0.4887  0.3627  0.6241
67233SOL    HW219310   3.949  13.339  12.332  0.5561 -1.0882  0.3336
67234SOL     OW19311   7.767   0.369   0.790 -0.3614 -1.2709 -0.0412
67234SOL    HW119312   7.699   0.371   0.722  1.0911 -0.0296 -1.5388
67234SOL    HW219313   7.796   0.278   0.793  0.1956 -1.1796 -1.8020
67235SOL     OW19314   1.545  10.458   6.080 -0.0109 -0.3330  0.0818
67235SOL    HW119315   1.584  10.380   6.119  0.2443  0.0163  0.5351
67235SOL    HW219316   1.519  10.512   6.155 -1.2937 -0.5140 -0.1989
67236SOL     OW19317   7.273   3.674  13.277 -0.4100 -0.2472  0.5256
67236SOL    HW119318   7.205   3.655  13.341 -0.6489  0.6816  0.5553
67236SOL    HW219319   7.230   3.731  13.213 -0.1840 -1.1624 -0.4818
67237SOL     OW19320  11.452  13.074  13.011  0.0414  0.3032 -0.0122
67237SOL    HW119321  11.460  13.013  12.938 -0.2586  1.1439 -0.7734
67237SOL    HW219322  11.516  13.044  13.075 -1.5545 -2.0838  0.5869
67238SOL     OW19323   9.090   3.829   8.107 -0.2294 -0.2118 -0.2277
67238SOL    HW119324   9.077   3.736   8.086  0.0792 -0.6484  1.3645
67238SOL    HW219325   9.002   3.865   8.110 -0.6411 -1.2089  2.1792
67239SOL     OW19326   0.556   1.132  11.985  0.2167  0.3466  0.1371
67239SOL    HW119327   0.575   1.196  12.054 -0.0102  1.5205 -0.8380
67239SOL    HW219328   0.620   1.152  11.916 -1.1068  0.8311 -0.9865
67240SOL     OW19329  11.151   4.072   2.304  0.1117  0.3314 -0.2105
67240SOL    HW119330  11.066   4.111   2.282  0.1847  1.5183  1.4190
67240SOL    HW219331  11.210   4.104   2.236 -0.3897  0.9637 -0.3610
67241SOL     OW19332   7.473  11.551   5.641  0.0334 -0.3667 -0.5434
67241SOL    HW119333   7.416  11.571   5.567  0.4654 -4.5325 -2.2934
67241SOL    HW219334   7.561  11.566   5.608  0.1659  1.0197  0.3698
67242SOL     OW19335   9.141   7.077   1.914  0.0646  0.3047  0.6471
67242SOL    HW119336   9.182   7.146   1.966  1.6551 -0.9858  1.1747
67242SOL    HW219337   9.195   7.071   1.835 -1.3997  1.1552 -0.4795
67243SOL     OW19338   2.294   0.805  11.565 -0.3218 -0.2795  0.2603
67243SOL    HW119339   2.206   0.767  11.572  0.0144 -1.0418  0.5856
67243SOL    HW219340   2.337   0.779  11.647 -0.1150  0.9508  0.5574
67244SOL     OW19341   1.310   2.232   1.089  0.1564 -0.3934 -0.2203
67244SOL    HW119342   1.310   2.153   1.142 -0.1429 -0.6264 -0.5620
67244SOL    HW219343   1.248   2.291   1.133  2.1909  0.6427  1.4572
67245SOL     OW19344   4.359   4.092   8.906 -0.6915  0.0518 -0.8692
67245SOL    HW119345   4.390   4.085   8.996 -0.6912  1.6458 -0.7190
67245SOL    HW219346   4.277   4.141   8.912 -1.0277 -0.3870 -1.6768
67246SOL     OW19347   1.399  13.872  10.269 -0.2007 -0.2537 -0.0683
67246SOL    HW119348   1.463  13.942  10.269 -1.2239  0.7186  0.3919
67246SOL    HW219349   1.334  13.899  10.335 -1.1237 -1.1542 -0.5772
67247SOL     OW19350  11.640   9.398   4.991  0.2259 -0.2471 -0.2059
67247SOL    HW119351  11.563   9.345   4.974  1.4160 -2.1351 -0.0582
67247SOL    HW219352  11.694   9.388   4.913  1.2441 -0.7466  0.5267
67248SOL     OW19353  11.491   9.807   1.310 -0.1003 -0.4813 -0.3830
67248SOL    HW119354  11.539   9.726   1.330 -2.5689 -1.8532  0.4503
67248SOL    HW219355  11.532   9.874   1.365 -0.4497 -2.0604  1.9408
67249SOL     OW19356   0.018   5.075   4.864  0.0008  0.7682 -0.0577
67249SOL    HW119357  -0.076   5.069   4.881 -0.0469 -0.9003 -0.6531
67249SOL    HW219358   0.059   5.080   4.950 -0.5854  0.1780  0.2577
67250SOL     OW19359   3.186  10.382  12.396 -0.2244 -0.3152 -0.0720
67250SOL    HW119360   3.249  10.443  12.434 -0.5763 -0.6496  1.0839
67250SOL    HW219361   3.122  10.367  12.465 -0.9632 -0.8392 -0.8532
67251SOL     OW19362   5.990   4.647  12.866  0.0380 -0.3177 -0.4594
67251SOL    HW119363   5.996   4.657  12.771  0.2906 -0.4320 -0.4557
67251SOL    HW219364   5.933   4.718  12.894 -2.0400 -1.6934 -0.9806
67252SOL     OW19365  13.080   9.943   5.646  0.3903 -0.4503 -0.4790
67252SOL    HW119366  13.119   9.911   5.727  1.2152 -0.0845 -0.7244
67252SOL    HW219367  12.987   9.921   5.654  0.3392  0.1633  0.8510
67253SOL     OW19368   6.285   3.225  13.756  0.2353  0.0330  0.0929
67253SOL    HW119369   6.371   3.265  13.771  0.2406  0.1447 -0.2341
67253SOL    HW219370   6.225   3.278  13.809  0.5471 -0.8554  1.3992
67254SOL     OW19371  10.904   4.194   5.953  0.0104 -0.1437 -0.4422
67254SOL    HW119372  10.872   4.247   6.026 -0.3436  2.5832 -2.3964
67254SOL    HW219373  10.899   4.253   5.877  1.7034 -2.3446 -2.4167
67255SOL     OW19374   1.720   4.112   9.053 -0.4099 -0.5469  0.4756
67255SOL    HW119375   1.702   4.057   8.976  1.4984  0.3700 -0.6887
67255SOL    HW219376   1.815   4.115   9.059 -0.4722  1.8396  1.0792
67256SOL     OW19377  11.256   7.027  10.696 -0.1838  0.5044  0.0762
67256SOL    HW119378  11.333   6.972  10.682 -0.3931  0.4230 -0.8304
67256SOL    HW219379  11.199   6.975  10.752 -0.4253 -0.2519 -0.8554
67257SOL     OW19380   0.655   1.339  12.141  0.0411 -0.2653  0.1879
67257SOL    HW119381   0.711   1.265  12.166  0.3554  0.0508  0.4275
67257SOL    HW219382   0.632   1.381  12.224  1.2100  0.8769 -0.0384
67258SOL     OW19383   5.026   5.659   0.546  0.1805 -0.4887 -0.0310
67258SOL    HW119384   5.042   5.666   0.640 -0.0982 -0.2955  0.0032
67258SOL    HW219385   4.967   5.732   0.526  1.4690  0.4138 -0.6329
67259SOL     OW19386   2.979   6.298   2.567 -0.2244 -0.6252  0.0537
67259SOL    HW119387   2.929   6.378   2.556  1.2508  0.8285  2.8330
67259SOL    HW219388   3.043   6.299   2.496 -0.5982  0.3390 -0.2863
67260SOL     OW19389   1.922   7.032   3.330 -0.3849  1.1511  0.3623
67260SOL    HW119390   1.938   7.076   3.247  0.6662  0.5832  0.2474
67260SOL    HW219391   1.995   7.058   3.386 -0.9936  1.4012  1.0607
67261SOL     OW19392  12.648   9.168   2.566 -0.4154 -0.1726  0.1449
67261SOL    HW119393  12.585   9.186   2.496 -2.0332 -1.7044  1.1188
67261SOL    HW219394  12.686   9.254   2.587 -0.9985  0.5388 -1.5560
67262SOL     OW19395   2.451  10.968  13.574 -0.6514 -0.3676  0.6379
67262SOL    HW119396   2.389  11.040  13.563 -0.6107 -0.0941  2.0434
67262SOL    HW219397   2.435  10.911  13.499 -1.1152  0.7857 -0.1571
67263SOL     OW19398   2.048  12.738   2.121 -0.3405 -0.3469  0.3779
67263SOL    HW119399   2.128  12.790   2.115  0.0164 -0.7695  1.3046
67263SOL    HW219400   1.986  12.783   2.063  0.5646 -0.0272 -0.3691
67264SOL     OW19401  13.427   1.726   1.184 -0.1886 -0.2359  0.2313
67264SOL    HW119402  13.491   1.797   1.191  0.1845 -0.2158 -2.3462
67264SOL    HW219403  13.456   1.661   1.247 -0.4483  1.7671  2.5647
67265SOL     OW19404   8.204  13.175   0.088  0.2277 -0.2459  0.2428
67265SOL    HW119405   8.254  13.256   0.076 -2.0063  1.2383  0.3991
67265SOL    HW219406   8.242  13.135   0.166  0.9610  1.0011  0.5627
67266SOL     OW19407   9.898  11.894   5.452 -0.0178  0.1129  0.8979
67266SOL    HW119408   9.830  11.868   5.514  1.8952 -1.9768  2.2778
67266SOL    HW219409   9.863  11.870   5.366 -1.0192 -0.9543  1.5678
67267SOL     OW19410  13.776   8.464   8.983 -0.2964  0.1238 -0.2393
67267SOL    HW119411  13.777   8.376   9.019  0.3498  0.7652  1.3954
67267SOL    HW219412  13.833   8.460   8.906  2.0545 -0.2945  1.4138
67268SOL     OW19413   1.404   9.451   1.080 -0.3675  0.2982  0.0826
67268SOL    HW119414   1.325   9.403   1.104 -0.5112 -0.6423 -2.0490
67268SOL    HW219415   1.475   9.389   1.093  0.2486  1.5029  3.1072
67269SOL     OW19416   0.813   7.743   5.142  0.5038  0.0365  0.0933
67269SOL    HW119417   0.751   7.712   5.077  1.2886  0.4129 -0.8620
67269SOL    HW219418   0.848   7.825   5.106  2.3731 -0.7223  0.0333
67270SOL     OW19419   9.129   3.621  13.850  0.5163 -0.8137  0.4916
67270SOL    HW119420   9.038   3.633  13.875  0.3881 -1.4788  0.3557
67270SOL    HW219421   9.158   3.544  13.900  0.8377 -0.9372  0.1217
67271SOL     OW19422   7.303  10.259   5.732  0.2763 -0.9244 -0.6615
67271SOL    HW119423   7.228  10.317   5.717  0.7860 -0.7761 -3.1727
67271SOL    HW219424   7.380  10.313   5.714  0.9260 -1.4977  0.3021
67272SOL     OW19425   4.445   3.223  11.336 -0.0464  0.0294  0.2895
67272SOL    HW119426   4.491   3.207  11.254 -0.3346 -0.0790  0.1473
67272SOL    HW219427   4.512   3.255  11.396  0.2547 -0.3282  0.1461
67273SOL     OW19428  10.216   7.459   7.933 -0.2460 -0.1529  0.2575
67273SOL    HW119429  10.242   7.376   7.895 -0.5923  0.7590 -2.1108
67273SOL    HW219430  10.132   7.479   7.894 -0.5334  0.9632  1.3760
67274SOL     OW19431  12.114   1.137   2.040  0.2285 -0.1229 -0.2685
67274SOL    HW119432  12.141   1.052   2.005  1.2901 -1.5428  3.5022
67274SOL    HW219433  12.195   1.186   2.049 -0.0930  0.4130 -0.2570
67275SOL     OW19434   1.858   7.699   4.066  0.1469 -0.1898  0.0700
67275SOL    HW119435   1.936   7.745   4.095  2.0821 -1.1895 -3.0239
67275SOL    HW219436   1.795   7.768   4.046  1.0208  0.7614  0.5204
67276SOL     OW19437   0.881   0.114   9.094 -0.0086 -0.7732  0.2381
67276SOL    HW119438   0.892   0.147   9.183  0.5473 -0.0519 -0.0886
67276SOL    HW219439   0.926   0.178   9.039  0.3531 -1.6367 -0.4926
67277SOL     OW19440   9.307   0.526  13.279 -0.0286  0.2865  0.0529
67277SOL    HW119441   9.222   0.538  13.237  1.9140  1.3751 -4.0769
67277SOL    HW219442   9.332   0.613  13.311 -0.0708  0.1577  0.4438
67278SOL     OW19443  11.999   0.574  11.185 -0.0413 -0.3195  0.1257
67278SOL    HW119444  11.967   0.633  11.116 -0.1853 -0.9714 -0.3815
67278SOL    HW219445  11.943   0.496  11.178  1.7174 -1.5774 -0.9056
67279SOL     OW19446   2.075   5.286  13.407  0.1864  0.7117  0.2572
67279SOL    HW119447   2.145   5.322  13.462  0.0522  0.0225  0.8902
67279SOL    HW219448   2.120   5.252  13.330  0.4676  0.9172  0.3295
67280SOL     OW19449   2.725   0.135   9.504  0.5293  0.7060  0.0413
67280SOL    HW119450   2.746   0.053   9.549 -0.8382 -0.3865 -1.2104
67280SOL    HW219451   2.685   0.190   9.572 -0.0504 -0.3111  0.5383
67281SOL     OW19452  12.420   5.866  11.358 -0.4595 -0.1203 -0.1059
67281SOL    HW119453  12.489   5.802  11.342 -0.7353 -0.4442 -0.0241
67281SOL    HW219454  12.456   5.950  11.329 -0.0388 -0.2896 -0.0643
67282SOL     OW19455   2.399  10.992   7.507  0.4149  0.1977  0.5938
67282SOL    HW119456   2.371  11.065   7.563  0.0522 -0.2458  0.9949
67282SOL    HW219457   2.321  10.970   7.457  1.0030  1.2779 -0.8803
67283SOL     OW19458   3.745   2.953   1.026  0.5649 -0.9935  0.2963
67283SOL    HW119459   3.692   2.874   1.031 -0.3400 -0.3407  1.4157
67283SOL    HW219460   3.835   2.923   1.042  0.3410 -1.8830 -0.0492
67284SOL     OW19461   1.259   3.888   2.105 -0.7102  0.2122 -0.7013
67284SOL    HW119462   1.300   3.812   2.147  0.4312  0.7976 -0.7250
67284SOL    HW219463   1.169   3.888   2.138  0.1515  0.7245  1.8729
67285SOL     OW19464   8.535  13.185   4.232  0.5128 -0.3440  0.3204
67285SOL    HW119465   8.554  13.230   4.149  0.6120 -0.7570  0.1153
67285SOL    HW219466   8.620  13.180   4.276  0.4002  0.1731  0.5986
67286SOL     OW19467   3.911  10.335  12.749  0.6470 -0.2054  0.1921
67286SOL    HW119468   3.869  10.309  12.667 -0.9996  2.6344  0.0191
67286SOL    HW219469   3.846  10.315  12.817 -0.3972  2.5437  0.1164
67287SOL     OW19470   2.606  13.244   5.175  0.0194 -0.4327 -0.0358
67287SOL    HW119471   2.629  13.328   5.216  1.7843 -1.5358  1.4168
67287SOL    HW219472   2.686  13.217   5.130 -0.4233 -1.4772 -0.2293
67288SOL     OW19473   3.262  14.009  10.974 -0.4485 -0.1994 -0.1885
67288SOL    HW119474   3.342  13.961  10.953 -0.1498  0.0599  0.3238
67288SOL    HW219475   3.242  13.985  11.064 -1.6146 -1.1664 -0.6712
67289SOL     OW19476  12.790   9.870  10.280  0.0630 -0.1616  0.7010
67289SOL    HW119477  12.733   9.836  10.211 -1.2178 -1.8645  2.4930
67289SOL    HW219478  12.776   9.964  10.279  0.1769 -0.1130 -1.4052
67290SOL     OW19479   8.300   6.014  13.007 -0.9108 -0.2562 -0.2718
67290SOL    HW119480   8.226   5.969  12.966 -1.4925  0.3824  0.0578
67290SOL    HW219481   8.267   6.102  13.025 -0.1546 -0.0502  0.1291
67291SOL     OW19482   9.940   6.863  12.036  0.6807 -0.5279  0.2415
67291SOL    HW119483   9.886   6.942  12.044  2.4695  0.8231 -0.4620
67291SOL    HW219484   9.933   6.820  12.121 -1.5949 -0.5041  0.1300
67292SOL     OW19485   2.193   7.574  12.331  0.8525 -0.2963  0.0888
67292SOL    HW119486   2.130   7.645  12.332  0.1330 -0.8839 -1.1646
67292SOL    HW219487   2.165   7.516  12.402  0.5300 -0.0992  0.1228
67293SOL     OW19488   9.922   1.934   9.052  0.0822  0.2610 -0.5579
67293SOL    HW119489   9.933   1.932   8.957  0.3303 -2.1156 -0.5553
67293SOL    HW219490  10.010   1.947   9.086  1.2896 -5.1207 -0.7144
67294SOL     OW19491   7.184   6.535   5.075 -0.3260  0.1187 -0.3408
67294SOL    HW119492   7.206   6.463   5.133  0.6676 -0.1301 -1.0003
67294SOL    HW219493   7.152   6.493   4.995  2.6693  0.2573 -1.7228
67295SOL     OW19494   4.118   4.568   1.732 -0.2475  0.1550 -0.2655
67295SOL    HW119495   4.073   4.493   1.695 -0.0165  0.2565 -0.7587
67295SOL    HW219496   4.208   4.561   1.700  0.0107  0.1388  0.4300
67296SOL     OW19497   8.679  11.849   4.447 -0.0058  0.6178  0.2828
67296SOL    HW119498   8.765  11.875   4.413  0.4019 -0.4491  0.4374
67296SOL    HW219499   8.694  11.762   4.485 -1.1315  0.4760  0.4393
67297SOL     OW19500  12.610  12.021  11.316 -0.8408 -0.2810 -0.1741
67297SOL    HW119501  12.532  11.970  11.336 -1.3542  0.5101 -0.1117
67297SOL    HW219502  12.659  11.966  11.255 -0.9186 -1.2369  0.5998
67298SOL     OW19503   6.910  11.131   9.602 -0.2517 -0.3602 -0.0759
67298SOL    HW119504   7.002  11.137   9.630 -0.7505  0.0087  1.5743
67298SOL    HW219505   6.876  11.220   9.615 -0.4115 -0.0386 -2.3763
67299SOL     OW19506   2.321   2.855   4.434 -0.2348  0.1670  0.1975
67299SOL    HW119507   2.285   2.789   4.374 -0.7018 -0.8807  1.5773
67299SOL    HW219508   2.389   2.899   4.384  1.4241 -2.6454 -0.2160
67300SOL     OW19509   7.348   9.877   4.591 -0.4817  0.3263  0.1321
67300SOL    HW119510   7.257   9.888   4.621 -0.2655 -0.3793  1.1350
67300SOL    HW219511   7.400   9.890   4.670  0.2697  0.3948 -0.3700
67301SOL     OW19512   3.037  12.184   2.644 -0.4153 -0.1309 -0.1957
67301SOL    HW119513   2.947  12.164   2.621 -0.5748  1.2327 -0.8450
67301SOL    HW219514   3.087  12.169   2.563 -0.3574  0.8732 -0.3553
67302SOL     OW19515  10.274   9.515   4.217 -0.2784  0.6565 -0.3038
67302SOL    HW119516  10.275   9.586   4.281  0.2257  0.0185  0.4116
67302SOL    HW219517  10.250   9.437   4.267 -1.5260  0.4205 -1.2155
67303SOL     OW19518   6.658   4.534  11.872  0.6195  0.1514  0.2506
67303SOL    HW119519   6.652   4.587  11.952  2.7587 -0.8609  1.1653
67303SOL    HW219520   6.644   4.444  11.902  0.9058 -0.1917 -0.6225
67304SOL     OW19521   2.517   0.006   8.903  0.2929  0.1045  0.8476
67304SOL    HW119522   2.538  -0.072   8.852 -0.3862 -0.4822  1.4413
67304SOL    HW219523   2.506   0.075   8.838 -0.2680 -0.5598  0.2243
67305SOL     OW19524   0.163  12.232   7.423 -0.4518 -0.3149 -0.4069
67305SOL    HW119525   0.180  12.185   7.504 -0.2428 -0.6907 -0.6666
67305SOL    HW219526   0.246  12.274   7.401 -0.7657  0.5899  0.0826
67306SOL     OW19527   9.257  12.933   3.776 -0.2315  0.1221  0.3768
67306SOL    HW119528   9.203  12.895   3.845  1.5098 -1.1833  1.1028
67306SOL    HW219529   9.306  13.003   3.820 -0.4278  0.4924  0.0145
67307SOL     OW19530  12.159   6.032  13.298 -0.6362  0.3389  0.3994
67307SOL    HW119531  12.196   6.085  13.368  0.9705 -1.3784  0.9546
67307SOL    HW219532  12.079   5.995  13.334  1.1982 -2.1772  2.2358
67308SOL     OW19533   1.686   6.890   5.338  0.1253 -0.8203  0.0684
67308SOL    HW119534   1.771   6.919   5.303  0.5429 -2.8703 -0.7878
67308SOL    HW219535   1.662   6.816   5.283 -2.4675 -0.0613  0.0265
67309SOL     OW19536  10.753  10.577   2.141 -0.2824 -0.1089  0.3904
67309SOL    HW119537  10.838  10.617   2.157 -0.1407  0.3396 -1.2487
67309SOL    HW219538  10.696  10.651   2.117 -0.3606 -0.6771 -1.3357
67310SOL     OW19539  11.693   9.239   9.044  0.3994 -0.5720  0.1513
67310SOL    HW119540  11.720   9.192   9.124  1.2674 -0.9195 -0.3290
67310SOL    HW219541  11.599   9.223   9.038  0.7822 -3.1065 -0.5032
67311SOL     OW19542   3.735   3.463   4.475 -0.4535  0.1882 -0.1947
67311SOL    HW119543   3.644   3.435   4.485 -0.3051 -0.5609 -0.8465
67311SOL    HW219544   3.776   3.442   4.559 -0.3136 -1.7362 -0.6913
67312SOL     OW19545  13.578   2.875   7.065 -1.0333 -0.4942  0.2101
67312SOL    HW119546  13.640   2.948   7.065 -2.7242  1.0007  1.0490
67312SOL    HW219547  13.631   2.799   7.039  0.8703  0.9228 -0.2637
67313SOL     OW19548  11.726  12.919  11.341  0.3477  0.7142 -0.1646
67313SOL    HW119549  11.753  13.011  11.340  1.3530  0.4368  0.4057
67313SOL    HW219550  11.808  12.870  11.332 -0.1414 -0.1357 -0.0507
67314SOL     OW19551  11.000  13.454   1.962 -0.2177  0.0759  0.0710
67314SOL    HW119552  11.043  13.426   2.042 -0.6875  1.7978  0.9746
67314SOL    HW219553  11.072  13.482   1.905 -0.0112  2.6138  1.4390
67315SOL     OW19554  13.115   8.154   7.611  0.1203  0.5371  0.4563
67315SOL    HW119555  13.203   8.172   7.578 -0.3011  1.7926 -0.0511
67315SOL    HW219556  13.116   8.186   7.701  0.0585  1.0053  0.2963
67316SOL     OW19557   3.300  11.636   1.734  0.7694 -0.0298 -0.0896
67316SOL    HW119558   3.339  11.614   1.649  1.0222  0.6727 -0.1616
67316SOL    HW219559   3.372  11.630   1.796  0.6136 -0.4105  0.0549
67317SOL     OW19560  11.425   3.423   2.676  0.2698  0.5850 -0.4113
67317SOL    HW119561  11.470   3.476   2.610 -0.8491 -0.0783 -1.7846
67317SOL    HW219562  11.464   3.336   2.668  1.4568  0.9277  1.1853
67318SOL     OW19563  11.628   7.286  13.254  0.7142 -0.2102  0.0438
67318SOL    HW119564  11.633   7.366  13.201 -1.4438 -0.4573 -0.6134
67318SOL    HW219565  11.698   7.230  13.220  1.4551  0.8977 -0.3175
67319SOL     OW19566  13.502   4.521   5.569  0.1211 -0.5661 -0.2988
67319SOL    HW119567  13.569   4.481   5.513  0.2384 -1.0847  0.2011
67319SOL    HW219568  13.455   4.447   5.607 -0.8541 -0.2091 -0.7697
67320SOL     OW19569   1.798   4.738   5.252 -0.2043  0.4112  0.6305
67320SOL    HW119570   1.837   4.696   5.175  0.7451 -1.1339  1.8890
67320SOL    HW219571   1.854   4.814   5.269 -1.0593  1.4023 -0.8005
67321SOL     OW19572   7.162  11.651   2.523  0.0674  0.2734 -0.3005
67321SOL    HW119573   7.225  11.633   2.592 -0.3078  1.3513  0.3450
67321SOL    HW219574   7.135  11.742   2.538 -0.8578  0.1624 -1.1834
67322SOL     OW19575  11.378   0.169   4.842 -0.3472 -0.1735 -0.1312
67322SOL    HW119576  11.307   0.117   4.880  0.1174  0.7689  2.2072
67322SOL    HW219577  11.457   0.117   4.859 -0.2308 -0.2337 -0.8180
67323SOL     OW19578   2.401  10.967  12.174 -0.0974  0.8130 -0.3177
67323SOL    HW119579   2.403  11.058  12.144  0.5232  0.0079 -2.9830
67323SOL    HW219580   2.311  10.938  12.155 -0.0182  0.6106 -0.3842
67324SOL     OW19581  11.360  11.922   6.464 -0.0297  0.4549 -0.3574
67324SOL    HW119582  11.333  11.982   6.534 -1.3633 -2.2035  1.5552
67324SOL    HW219583  11.456  11.917   6.473 -0.0451  1.2124  0.3683
67325SOL     OW19584   5.664  11.099  10.309 -0.0664 -0.2063 -0.0960
67325SOL    HW119585   5.678  11.180  10.356 -0.8506  0.2931 -0.6810
67325SOL    HW219586   5.569  11.085  10.313 -0.5465  1.0647 -3.3621
67326SOL     OW19587   3.602   4.938   3.313 -0.3263 -0.2781  0.0117
67326SOL    HW119588   3.633   4.848   3.308 -1.0360 -0.5850  0.8882
67326SOL    HW219589   3.626   4.967   3.400  2.0219  1.2229 -1.0489
67327SOL     OW19590  12.612   4.467  11.886  0.0994 -0.2872  0.1113
67327SOL    HW119591  12.619   4.398  11.951  0.8708  0.9387  1.3949
67327SOL    HW219592  12.539   4.521  11.917  1.6197  1.3317  1.0352
67328SOL     OW19593   4.018   7.190  10.668 -0.5351 -1.1345 -0.0519
67328SOL    HW119594   4.004   7.186  10.763 -0.6192 -0.1255 -0.0017
67328SOL    HW219595   4.107   7.158  10.655  0.1902  0.5026  0.5974
67329SOL     OW19596   7.273   7.014   3.964 -0.0012  0.3820 -0.0872
67329SOL    HW119597   7.288   7.058   3.880 -0.2103  0.2952 -0.1713
67329SOL    HW219598   7.281   6.921   3.944 -0.3109  0.3480 -0.0663
67330SOL     OW19599   4.756  10.593   2.401 -0.1399  0.7396 -0.4417
67330SOL    HW119600   4.661  10.592   2.407 -0.1779  1.4141 -0.8981
67330SOL    HW219601   4.775  10.643   2.322  0.5891  0.3805 -0.5039
67331SOL     OW19602   0.353   4.746   9.744 -0.2350 -0.1442  0.0953
67331SOL    HW119603   0.403   4.825   9.723 -0.5604 -0.1611 -0.7916
67331SOL    HW219604   0.416   4.689   9.789  0.2210  0.2984  0.0300
67332SOL     OW19605  13.109   2.410   8.930 -0.6229  0.1169 -0.6879
67332SOL    HW119606  13.154   2.346   8.986 -0.8174  0.3163 -0.3035
67332SOL    HW219607  13.023   2.371   8.913 -0.1537 -0.4777 -1.8003
67333SOL     OW19608   9.510  10.441   1.504 -0.5034 -0.0853 -0.2645
67333SOL    HW119609   9.567  10.369   1.530 -1.0093 -0.2784  0.3155
67333SOL    HW219610   9.568  10.501   1.455  0.7068  0.7709  2.0732
67334SOL     OW19611   2.139  10.096   0.540  0.4038  0.3150  0.7661
67334SOL    HW119612   2.180  10.030   0.596  0.6951  0.3155  0.5592
67334SOL    HW219613   2.208  10.121   0.479 -0.7147 -1.8533 -1.5762
67335SOL     OW19614   0.646  11.787   3.166  0.4705 -0.1241 -0.0784
67335SOL    HW119615   0.593  11.843   3.109  1.1151  0.1114 -0.4594
67335SOL    HW219616   0.697  11.733   3.106  1.2549  0.2150  0.2591
67336SOL     OW19617   2.203   7.967   3.715 -0.7555  0.1517 -0.4009
67336SOL    HW119618   2.132   7.933   3.660 -1.0876  0.3435 -0.0979
67336SOL    HW219619   2.166   7.969   3.804  0.6416 -2.7554  0.3579
67337SOL     OW19620   5.551   2.910   0.543  0.2941  0.2392 -0.4054
67337SOL    HW119621   5.567   3.004   0.540 -4.9425  1.4285 -3.4395
67337SOL    HW219622   5.585   2.877   0.460  1.3470 -0.4590  0.2788
67338SOL     OW19623   5.980   0.679  10.566  0.0775  0.4426  0.3231
67338SOL    HW119624   6.038   0.653  10.494  0.3418 -0.7758  0.9498
67338SOL    HW219625   5.974   0.601  10.621 -1.7692  0.6857  0.5473
67339SOL     OW19626   0.019   2.278   4.865  0.0708  0.0695 -0.4811
67339SOL    HW119627   0.023   2.370   4.837  0.6158  0.0471 -0.4951
67339SOL    HW219628   0.042   2.281   4.958  1.8687 -0.2234 -0.8798
67340SOL     OW19629   2.255   1.172   6.101 -0.2980  0.3732  0.4118
67340SOL    HW119630   2.226   1.136   6.017  1.2590  1.1058 -0.4819
67340SOL    HW219631   2.180   1.159   6.159 -1.2915 -0.4803 -0.9806
67341SOL     OW19632   2.310   6.221   2.722  0.7442  0.2772  0.2185
67341SOL    HW119633   2.368   6.207   2.797  2.4286  1.1247 -0.8647
67341SOL    HW219634   2.272   6.135   2.705  2.4574 -0.5400  0.3557
67342SOL     OW19635   7.839   0.140  11.467 -0.2363  0.9563  0.2533
67342SOL    HW119636   7.929   0.107  11.470 -0.5036  0.0802 -0.7540
67342SOL    HW219637   7.827   0.182  11.552  1.5909  2.4017 -0.1337
67343SOL     OW19638  13.288  13.680   3.658  0.3623  0.0948  0.7139
67343SOL    HW119639  13.283  13.686   3.563  1.4542 -1.5868  0.5001
67343SOL    HW219640  13.241  13.757   3.690 -0.3540  0.4887 -1.1674
67344SOL     OW19641   0.211   8.725  12.299 -0.2260 -0.0685  0.0686
67344SOL    HW119642   0.125   8.695  12.271  0.4143 -0.5044 -1.6176
67344SOL    HW219643   0.195   8.805  12.348 -1.5279  0.4796 -1.1838
67345SOL     OW19644  12.433   8.488   5.024 -0.0963  0.0596  0.5244
67345SOL    HW119645  12.353   8.436   5.029  0.4728 -0.7321  2.4500
67345SOL    HW219646  12.483   8.462   5.101  1.2606  1.7930  0.2921
67346SOL     OW19647   7.702   6.188   9.018 -0.0151 -0.1180 -0.2829
67346SOL    HW119648   7.639   6.193   9.090 -0.5719 -0.2634 -0.7497
67346SOL    HW219649   7.708   6.095   8.998  0.3215 -0.1007 -0.2693
67347SOL     OW19650   2.101  13.533   5.322 -0.3747 -0.3234  0.4006
67347SOL    HW119651   2.157  13.464   5.357 -1.2836 -2.1378 -1.5311
67347SOL    HW219652   2.153  13.575   5.254 -1.0383 -1.5809 -0.9431
67348SOL     OW19653   1.053   5.608   2.425 -0.0229  0.0529 -0.2608
67348SOL    HW119654   0.970   5.583   2.467  0.8366 -2.7179  0.0133
67348SOL    HW219655   1.040   5.586   2.332  0.2732 -0.0581 -0.2768
67349SOL     OW19656  10.237   8.272   2.720  0.0536 -0.2772  0.1982
67349SOL    HW119657  10.261   8.222   2.798 -0.0603 -1.4818 -0.5109
67349SOL    HW219658  10.211   8.358   2.753  1.4919 -0.2476  1.3439
67350SOL     OW19659   8.073  11.495   0.077  0.0375 -0.2075  0.2574
67350SOL    HW119660   8.003  11.525   0.135  0.2650 -0.5405  0.7056
67350SOL    HW219661   8.153  11.524   0.119  0.2471 -1.1467  0.5289
67351SOL     OW19662   6.585  12.544   5.492  0.3395  0.4779 -0.1808
67351SOL    HW119663   6.608  12.466   5.441 -0.1197  0.1207  0.1587
67351SOL    HW219664   6.639  12.614   5.453  0.6884  0.0175 -0.5441
67352SOL     OW19665   3.875   2.642   6.412 -0.2377 -0.2303 -0.1192
67352SOL    HW119666   3.812   2.708   6.440  0.4616 -0.1483  1.3463
67352SOL    HW219667   3.838   2.559   6.443 -0.2070 -0.3240 -0.3302
67353SOL     OW19668   1.972  14.023  10.475  0.1133  0.0642  0.2605
67353SOL    HW119669   1.896  14.001  10.422  0.3999 -0.6534  0.1439
67353SOL    HW219670   1.963  13.969  10.554  0.3360  0.2176  0.3935
67354SOL     OW19671  10.550   7.119  11.086  0.3245 -0.1068  0.2604
67354SOL    HW119672  10.577   7.048  11.144  2.2736  0.3164 -0.0675
67354SOL    HW219673  10.632   7.158  11.056 -0.6898  2.4713  0.6295
67355SOL     OW19674   5.112   2.169   1.719 -0.6972 -0.2729 -0.2521
67355SOL    HW119675   5.031   2.162   1.770 -0.8723  1.2875 -0.2659
67355SOL    HW219676   5.115   2.261   1.692  0.9466 -0.3718 -0.4815
67356SOL     OW19677   2.881  10.726  14.071  0.3085 -0.6298 -0.3601
67356SOL    HW119678   2.932  10.744  14.150  0.8277 -0.1224 -0.8019
67356SOL    HW219679   2.805  10.784  14.078  0.3373 -0.6083 -0.2169
67357SOL     OW19680   7.804   7.666   4.093  0.2025 -0.3478  0.2070
67357SOL    HW119681   7.890   7.695   4.122 -0.3073 -0.1671  1.6162
67357SOL    HW219682   7.763   7.630   4.171 -0.9974 -0.4384 -0.4384
67358SOL     OW19683   9.670   0.101   8.573 -0.4588 -0.1707 -0.6007
67358SOL    HW119684   9.692   0.194   8.572  0.4266 -0.3724 -0.6609
67358SOL    HW219685   9.603   0.091   8.505 -1.0347  0.5282 -0.1413
67359SOL     OW19686  13.139   5.780   9.963  0.1663 -0.5316 -0.0713
67359SOL    HW119687  13.136   5.851   9.900 -0.3779  0.3666  0.9275
67359SOL    HW219688  13.048   5.764   9.986  0.3420 -0.9509  0.3653
67360SOL     OW19689  11.787  10.964  13.596 -0.1844  0.4810  0.2596
67360SOL    HW119690  11.859  10.900  13.607  0.5771  0.8177 -2.1303
67360SOL    HW219691  11.717  10.913  13.555 -0.7517  0.5150  1.1662
67361SOL     OW19692   2.188   5.700   8.750 -0.0526 -0.2493  0.1764
67361SOL    HW119693   2.207   5.692   8.843 -0.1317  0.1926  0.2355
67361SOL    HW219694   2.218   5.618   8.711  2.4489  0.5856  0.1795
67362SOL     OW19695   6.409   0.258   7.451 -0.0314 -0.3374  0.5363
67362SOL    HW119696   6.320   0.290   7.440 -0.6299 -2.1076 -0.0306
67362SOL    HW219697   6.430   0.277   7.543 -1.1594 -0.2940  0.7951
67363SOL     OW19698   4.211  11.637  12.281  0.1021  0.3267 -0.4165
67363SOL    HW119699   4.243  11.719  12.317  0.8455  0.2702 -0.9292
67363SOL    HW219700   4.143  11.663  12.219 -0.2300  0.5003  0.0153
67364SOL     OW19701  13.439  13.697   4.373  0.2972  0.4507 -0.1170
67364SOL    HW119702  13.500  13.682   4.446  0.4097  2.3035  0.2090
67364SOL    HW219703  13.494  13.730   4.302  0.1736 -1.2663 -1.0723
67365SOL     OW19704   2.550   2.625   2.272 -0.1692  0.1841  0.3524
67365SOL    HW119705   2.603   2.640   2.351  0.2672 -0.8529  0.2707
67365SOL    HW219706   2.605   2.655   2.200 -0.6471  1.3216  0.4369
67366SOL     OW19707   0.155   4.874   7.677  0.7263 -0.6500  0.2037
67366SOL    HW119708   0.068   4.901   7.706  0.3772 -0.0081 -1.3378
67366SOL    HW219709   0.214   4.910   7.743 -0.1376 -0.8000  1.0819
67367SOL     OW19710   1.240   5.872   4.575 -0.2022 -0.0494  0.0683
67367SOL    HW119711   1.145   5.872   4.567 -0.2206  2.1004 -0.1771
67367SOL    HW219712   1.262   5.780   4.595 -2.1743 -0.8447 -1.1402
67368SOL     OW19713   4.329   6.923   2.686 -0.2084 -0.3332  0.6421
67368SOL    HW119714   4.288   6.919   2.772 -0.6579 -2.2215  0.3843
67368SOL    HW219715   4.259   6.900   2.625  0.0448  1.2113 -0.2648
67369SOL     OW19716   3.966   9.951   6.647  0.6526 -0.5161  0.2260
67369SOL    HW119717   4.042   9.980   6.596 -0.1611  0.5902 -0.3811
67369SOL    HW219718   3.975   9.997   6.731  0.1593  0.3484 -0.1900
67370SOL     OW19719   0.259  13.593   6.063  0.2493 -0.7502 -0.0899
67370SOL    HW119720   0.237  13.513   6.015  3.5022 -1.8995  0.0578
67370SOL    HW219721   0.349  13.614   6.035  0.4253  1.3929  1.7830
67371SOL     OW19722   1.216   9.508   1.363 -0.7040  0.1621 -0.1361
67371SOL    HW119723   1.172   9.425   1.378 -0.0217 -0.9127 -3.2732
67371SOL    HW219724   1.309   9.488   1.375 -0.5777  0.5765 -0.3950
67372SOL     OW19725   3.473  12.872   4.360  0.4383 -0.5380 -0.0505
67372SOL    HW119726   3.481  12.845   4.452  1.5487 -0.8013 -0.2186
67372SOL    HW219727   3.412  12.809   4.322 -1.4962  0.6151  0.8971
67373SOL     OW19728   6.286   3.968   5.024  0.4517  0.3077  0.4114
67373SOL    HW119729   6.191   3.958   5.023  0.5571 -0.9200  0.9968
67373SOL    HW219730   6.306   4.001   5.112  0.7069 -1.4511  1.0680
67374SOL     OW19731   2.161   7.005   5.650  0.4009 -0.2533  0.0579
67374SOL    HW119732   2.075   7.040   5.673  0.2042 -0.2466 -0.6571
67374SOL    HW219733   2.222   7.074   5.676  0.1826 -0.1948  0.4313
67375SOL     OW19734   5.106   2.240   6.973  0.6759 -0.3416 -0.0649
67375SOL    HW119735   5.059   2.275   6.897 -0.6320  0.6458  1.1385
67375SOL    HW219736   5.175   2.186   6.936  0.7021  0.9052 -1.9682
67376SOL     OW19737  14.078   4.589   4.430 -0.4753  0.4430 -0.3902
67376SOL    HW119738  14.116   4.570   4.516  0.4442  0.9494 -0.6762
67376SOL    HW219739  13.993   4.544   4.431 -0.4309  0.3535  0.7389
67377SOL     OW19740   8.448   6.790   1.489  0.2107  0.2126  0.4833
67377SOL    HW119741   8.511   6.861   1.503  0.5547  0.0838 -0.3214
67377SOL    HW219742   8.496   6.710   1.512  0.8565 -0.0223 -1.4799
67378SOL     OW19743  13.244   8.757   6.121  0.1729  0.0253 -0.3026
67378SOL    HW119744  13.262   8.821   6.190 -2.5806 -1.0337  1.5756
67378SOL    HW219745  13.298   8.681   6.144 -1.7791 -0.8785  1.7161
67379SOL     OW19746  12.108  10.325   6.143 -0.8574  0.4555 -0.2221
67379SOL    HW119747  12.194  10.283   6.151  0.1949  2.3538 -0.9951
67379SOL    HW219748  12.094  10.333   6.049 -0.9567  1.8666 -0.1166
67380SOL     OW19749  13.552   5.848   3.491  0.4223 -0.6282 -0.2769
67380SOL    HW119750  13.612   5.912   3.529 -0.4938  0.4329 -0.5563
67380SOL    HW219751  13.559   5.771   3.548  2.9486 -1.0378 -0.9922
67381SOL     OW19752  11.573   4.726  10.510 -0.5932 -0.6618 -0.3980
67381SOL    HW119753  11.528   4.774  10.441 -0.4545  0.4289  0.2526
67381SOL    HW219754  11.657   4.771  10.521 -0.8840 -0.3913  0.9318
67382SOL     OW19755   9.538  13.857  12.617  0.1118 -0.3860 -0.0186
67382SOL    HW119756   9.548  13.901  12.702 -0.4839  0.1101 -0.1959
67382SOL    HW219757   9.446  13.869  12.595  0.1904 -0.7942 -0.5913
67383SOL     OW19758   8.222   1.760   5.278 -0.3519 -0.0695 -0.3686
67383SOL    HW119759   8.157   1.701   5.241 -0.5722 -1.2402  1.7183
67383SOL    HW219760   8.306   1.714   5.265 -0.3973 -0.3456  0.2872
67384SOL     OW19761   1.182  13.833   8.883  0.4314  0.6818 -0.1869
67384SOL    HW119762   1.157  13.760   8.940  0.9888 -0.4058 -1.2905
67384SOL    HW219763   1.103  13.887   8.877 -0.0354  0.0971  0.5295
67385SOL     OW19764  12.803   6.382   3.745 -0.0368  0.0342 -0.6873
67385SOL    HW119765  12.842   6.457   3.701  1.3439  0.2113  0.7349
67385SOL    HW219766  12.855   6.307   3.717  0.9405  0.1682  0.6610
67386SOL     OW19767   1.528  13.767  11.586  0.0184  0.0112  0.1429
67386SOL    HW119768   1.519  13.845  11.531 -0.1043  1.7889  2.5398
67386SOL    HW219769   1.441  13.752  11.622 -0.1396 -1.7587 -0.8781
67387SOL     OW19770  13.447   7.428   7.449 -0.1691 -0.2124  0.7949
67387SOL    HW119771  13.455   7.375   7.529  0.1740  0.2281  1.0589
67387SOL    HW219772  13.441   7.518   7.481  1.6358  0.1328  0.2819
67388SOL     OW19773   4.449   1.470   8.222  0.5099  0.4248 -0.0936
67388SOL    HW119774   4.494   1.387   8.207 -1.0591 -1.1290  2.9064
67388SOL    HW219775   4.369   1.464   8.170  0.9099  0.5766 -0.7401
67389SOL     OW19776  11.872  12.259   9.024 -0.9271 -0.0632 -0.0772
67389SOL    HW119777  11.866  12.311   8.943  2.7101 -0.8930 -1.0695
67389SOL    HW219778  11.913  12.177   8.996 -1.5993 -1.3027  2.3270
67390SOL     OW19779  11.192   3.587   9.824 -0.5544 -0.2134 -0.1682
67390SOL    HW119780  11.263   3.649   9.841  0.1611 -0.8285 -0.8568
67390SOL    HW219781  11.163   3.561   9.911  0.5971 -0.5529  0.1337
67391SOL     OW19782   9.899   8.007   2.708 -0.0179  0.8920 -0.1822
67391SOL    HW119783   9.954   8.026   2.632  0.4671  0.3818  0.0358
67391SOL    HW219784   9.911   7.913   2.723 -0.4650  0.9025  0.2487
67392SOL     OW19785  11.675   4.149  12.966 -0.0414 -0.3209  0.0271
67392SOL    HW119786  11.674   4.153  13.062 -0.5299 -1.1795  0.0726
67392SOL    HW219787  11.746   4.088  12.945  0.3309  0.1790 -0.1768
67393SOL     OW19788   9.067  12.448  10.249  0.0254  0.3762 -0.0596
67393SOL    HW119789   9.068  12.353  10.245  0.0276  0.4033 -0.8100
67393SOL    HW219790   8.978  12.472  10.223  0.2569  0.6039 -0.6613
67394SOL     OW19791  12.212   0.887   4.934  0.0692 -0.1046  0.2623
67394SOL    HW119792  12.128   0.928   4.914  0.3262  1.4455  2.0358
67394SOL    HW219793  12.277   0.949   4.903  0.6378 -1.3342 -1.1770
67395SOL     OW19794   0.809   4.988   4.228 -0.2294 -0.3126  0.8942
67395SOL    HW119795   0.853   5.071   4.246 -1.3735  0.6969 -0.7030
67395SOL    HW219796   0.841   4.962   4.142 -0.7715 -0.9313  0.8747
67396SOL     OW19797   7.884   5.549   4.522  0.2057  0.4317  0.2218
67396SOL    HW119798   7.830   5.562   4.444  0.1594  2.3147  0.5234
67396SOL    HW219799   7.838   5.597   4.591  1.3819  0.6240  0.8931
67397SOL     OW19800   2.823   3.127  13.563 -0.0316  0.3543  0.3179
67397SOL    HW119801   2.901   3.117  13.617  0.8923  3.1567 -0.2919
67397SOL    HW219802   2.855   3.116  13.473  0.0397  2.7455 -0.0232
67398SOL     OW19803  11.109   3.871   2.851 -0.0256 -0.2175 -0.0660
67398SOL    HW119804  11.072   3.898   2.767 -2.5281 -0.3909  0.9189
67398SOL    HW219805  11.082   3.779   2.860  0.6234 -0.3415  0.7414
67399SOL     OW19806  10.121   1.881   7.453 -0.2405 -0.3951 -0.4952
67399SOL    HW119807  10.131   1.968   7.413  3.3452 -0.7935 -0.8150
67399SOL    HW219808  10.174   1.886   7.533 -0.7600 -1.9954 -0.0222
67400SOL     OW19809   0.650  13.559   4.187  0.1075  0.0322 -0.2208
67400SOL    HW119810   0.701  13.483   4.214  1.6084  0.9617 -0.3693
67400SOL    HW219811   0.568  13.522   4.153  0.2183 -1.4236  1.0039
67401SOL     OW19812  11.021   5.176   3.965  0.3429 -0.2265  0.4637
67401SOL    HW119813  11.020   5.154   4.059 -1.1455 -0.0961  0.5042
67401SOL    HW219814  10.993   5.096   3.921 -0.2308  0.0842  0.2433
67402SOL     OW19815  13.586   4.762  10.756  0.2339 -0.1434  0.0731
67402SOL    HW119816  13.555   4.683  10.712 -0.0415  0.1168 -0.2008
67402SOL    HW219817  13.533   4.833  10.720  0.4899  0.1721  0.3043
67403SOL     OW19818   4.100  10.892   6.931  0.6981  0.4189 -0.3105
67403SOL    HW119819   4.185  10.934   6.940  1.8418 -1.9015  0.4737
67403SOL    HW219820   4.118  10.813   6.879 -0.8538 -0.4368  0.3890
67404SOL     OW19821   2.583   7.069  11.771  0.5164 -0.1865 -0.2085
67404SOL    HW119822   2.523   7.003  11.806 -0.2295 -0.6337 -2.1959
67404SOL    HW219823   2.611   7.033  11.686  2.0425  0.9397 -0.2324
67405SOL     OW19824  11.833  12.572   8.773 -0.0152 -0.3594 -0.0874
67405SOL    HW119825  11.876  12.564   8.857  1.5267  1.4204 -0.6271
67405SOL    HW219826  11.788  12.657   8.777 -2.4354 -1.5814 -0.0224
67406SOL     OW19827  10.369  10.420   4.811  0.2091 -0.2927  0.0466
67406SOL    HW119828  10.281  10.431   4.776  0.5168  2.5021 -0.0915
67406SOL    HW219829  10.375  10.484   4.882  1.8649 -0.9590  0.5589
67407SOL     OW19830   1.212   6.883   0.679  0.1500 -0.1684  0.6561
67407SOL    HW119831   1.144   6.939   0.644  1.3156  0.6638 -0.3710
67407SOL    HW219832   1.192   6.796   0.646 -0.8370 -0.0856  1.0210
67408SOL     OW19833   1.484  14.006   2.299 -0.0842 -0.2726  0.0713
67408SOL    HW119834   1.396  13.993   2.335 -1.1697  0.6085 -2.0290
67408SOL    HW219835   1.473  14.078   2.237  1.5508 -1.7717 -2.1024
67409SOL     OW19836  10.132  10.677  10.342  0.1322 -0.2056  0.0402
67409SOL    HW119837  10.036  10.668  10.340  0.3027 -2.6051 -1.0151
67409SOL    HW219838  10.153  10.687  10.435 -1.0901 -0.8269  0.4092
67410SOL     OW19839   7.124   6.453   0.670  0.2713 -0.0108  0.5072
67410SOL    HW119840   7.186   6.393   0.629  1.9620  1.9049  0.0935
67410SOL    HW219841   7.162   6.472   0.756 -0.2657  0.4334  0.6549
67411SOL     OW19842  13.979  13.789   9.696 -0.1221  0.5591  0.3022
67411SOL    HW119843  13.958  13.813   9.786  1.4420  1.2538  0.5146
67411SOL    HW219844  13.909  13.827   9.644 -1.8049 -0.9763  1.2867
67412SOL     OW19845   4.671   7.549  12.125 -0.5541 -0.0175  0.6309
67412SOL    HW119846   4.749   7.594  12.157 -0.9139 -0.0687  1.6214
67412SOL    HW219847   4.696   7.516  12.039  1.0336 -1.3593  1.5492
67413SOL     OW19848  12.230   8.622   7.486 -0.0159  0.3313  0.3123
67413SOL    HW119849  12.267   8.704   7.519 -0.3741  1.0263 -0.9709
67413SOL    HW219850  12.201   8.576   7.564 -2.4375  2.6725  0.9176
67414SOL     OW19851   0.565  10.161   5.491 -0.5763  0.5499 -0.1957
67414SOL    HW119852   0.484  10.205   5.466 -0.6785  0.8856  0.6686
67414SOL    HW219853   0.629  10.231   5.498 -0.5359  0.4633  0.3802
67415SOL     OW19854   1.384  13.072   6.044  0.3936  0.7730 -0.2115
67415SOL    HW119855   1.420  13.152   6.082 -1.5691  1.5123  0.2097
67415SOL    HW219856   1.294  13.069   6.076  0.2951 -1.4074 -0.5481
67416SOL     OW19857  13.404  10.040  13.857  0.3883  0.1660  0.0306
67416SOL    HW119858  13.376   9.982  13.786  1.2297 -2.1520  1.5058
67416SOL    HW219859  13.481  10.085  13.822 -0.8771  1.2647 -1.5014
67417SOL     OW19860  10.260   1.490  13.719  0.3482 -0.1628  0.3359
67417SOL    HW119861  10.205   1.563  13.751  2.5267  1.5184  0.4670
67417SOL    HW219862  10.255   1.424  13.787  0.1169  0.8359  1.3067
67418SOL     OW19863  11.404  10.929   9.983 -0.1729 -0.5144  0.6169
67418SOL    HW119864  11.420  10.994   9.915  1.8251 -0.6344  0.9241
67418SOL    HW219865  11.490  10.912  10.021 -1.0923 -1.1979  2.5055
67419SOL     OW19866  13.900   4.718   7.907 -0.2164  0.2417 -1.1512
67419SOL    HW119867  13.859   4.679   7.829  0.3922 -0.4704 -1.1371
67419SOL    HW219868  13.972   4.658   7.927  0.4683  1.1516 -0.8437
67420SOL     OW19869   8.436   3.782   7.035  0.1881  0.1699 -0.2791
67420SOL    HW119870   8.354   3.779   7.085 -0.5873  1.8565 -1.3543
67420SOL    HW219871   8.454   3.691   7.013 -2.1112 -0.1439 -1.1091
67421SOL     OW19872   0.157   2.134  10.476  0.0259  0.2077 -0.3339
67421SOL    HW119873   0.173   2.147  10.383 -0.0901 -1.0812 -0.5604
67421SOL    HW219874   0.175   2.041  10.490  0.7917  0.5492  1.0919
67422SOL     OW19875   9.219  12.562  12.042 -0.4808  0.0154  0.1365
67422SOL    HW119876   9.198  12.481  12.088 -0.1944 -0.3335 -0.3286
67422SOL    HW219877   9.297  12.596  12.086 -2.1746  1.5451  2.1471
67423SOL     OW19878   1.538   5.844   0.575 -0.2592 -0.0958 -0.2253
67423SOL    HW119879   1.523   5.875   0.486  0.6750 -0.1712 -0.4142
67423SOL    HW219880   1.625   5.878   0.598 -0.4003 -0.2603  0.5760
67424SOL     OW19881   3.612  11.088  12.819  0.2653 -0.0021  0.0195
67424SOL    HW119882   3.631  11.167  12.868  0.8267 -0.2329  0.1781
67424SOL    HW219883   3.524  11.102  12.783 -0.4514 -0.1208  1.6696
67425SOL     OW19884  12.393   6.637   1.983 -0.5502  0.5085 -0.1651
67425SOL    HW119885  12.471   6.666   2.031 -1.1443  0.4224  0.8745
67425SOL    HW219886  12.405   6.542   1.974 -0.0423  0.6357 -0.9362
67426SOL     OW19887   4.357   5.028   1.751 -0.0616  0.0618  0.1259
67426SOL    HW119888   4.366   5.012   1.657  0.8130  1.4086 -0.0525
67426SOL    HW219889   4.424   5.093   1.771 -3.8835  4.4733  0.4019
67427SOL     OW19890   3.403  10.274   2.377  0.4049  0.2452 -0.3965
67427SOL    HW119891   3.402  10.317   2.463 -0.1123 -1.5192  0.5342
67427SOL    HW219892   3.338  10.322   2.326  0.7815  1.3857  0.1529
67428SOL     OW19893   7.247   5.658   6.278  0.0492 -0.4974  0.3656
67428SOL    HW119894   7.295   5.594   6.225  0.2450  0.8459 -1.1718
67428SOL    HW219895   7.175   5.687   6.221 -0.2180  0.3982  1.1340
67429SOL     OW19896   7.536   2.822   4.065 -0.0770  0.2295 -0.0508
67429SOL    HW119897   7.548   2.860   4.152 -0.8839 -0.4950  0.3943
67429SOL    HW219898   7.506   2.733   4.082  0.5306 -0.1873 -1.0754
67430SOL     OW19899   1.504  13.618   8.674 -0.8775 -0.1544  0.1329
67430SOL    HW119900   1.444  13.553   8.711  0.2649 -0.7272  1.0707
67430SOL    HW219901   1.516  13.591   8.583 -0.9643 -0.8412  0.3181
67431SOL     OW19902   0.714   6.375   1.276  0.2244 -0.1945 -0.3373
67431SOL    HW119903   0.790   6.432   1.262 -0.5927  1.2169  0.7045
67431SOL    HW219904   0.649   6.405   1.213 -1.0696  1.7239  1.7776
67432SOL     OW19905   8.599   2.158  11.426 -0.3573 -0.0980 -0.0099
67432SOL    HW119906   8.535   2.116  11.368  0.6087 -1.0074 -0.4535
67432SOL    HW219907   8.683   2.120  11.400  0.1353 -0.3933  1.8457
67433SOL     OW19908   4.292   8.261   2.569  0.7636 -0.3672  0.1924
67433SOL    HW119909   4.275   8.297   2.482  0.5691 -0.8227  0.0428
67433SOL    HW219910   4.261   8.171   2.565 -0.4446 -0.0151  1.1293
67434SOL     OW19911  10.524   5.650   7.989  0.1635  0.3576 -0.1984
67434SOL    HW119912  10.614   5.678   7.971 -0.2124  1.4986 -0.3855
67434SOL    HW219913  10.475   5.675   7.911 -0.3083 -0.3173 -0.1266
67435SOL     OW19914   0.633  13.543   2.835 -0.1327  0.1779  0.2412
67435SOL    HW119915   0.563  13.597   2.799  0.5726  0.7675 -0.2779
67435SOL    HW219916   0.612  13.454   2.805 -0.1836  0.4834 -0.6585
67436SOL     OW19917   0.845   2.508   4.238 -0.3937 -0.2880 -0.4361
67436SOL    HW119918   0.935   2.476   4.224 -0.1236 -0.1674  0.8245
67436SOL    HW219919   0.803   2.438   4.288 -0.2080  0.6746  1.1741
67437SOL     OW19920   3.444  11.189  11.658  0.1722 -0.0037  0.5700
67437SOL    HW119921   3.436  11.198  11.753 -1.4849  1.7917  0.3236
67437SOL    HW219922   3.537  11.171  11.643  0.8142  1.4764  2.4366
67438SOL     OW19923   5.117   5.889  12.888 -0.5120 -0.0792 -0.0275
67438SOL    HW119924   5.196   5.835  12.894  0.2366  0.9895  0.0993
67438SOL    HW219925   5.124   5.932  12.803  0.0146  1.4469  0.7569
67439SOL     OW19926  10.899  11.918   8.695  0.4836  0.1906 -0.0282
67439SOL    HW119927  10.935  11.875   8.773  1.3263 -0.2352 -0.6411
67439SOL    HW219928  10.957  11.892   8.624 -0.8781 -0.3013 -1.0200
67440SOL     OW19929   3.723   4.950   9.443  0.7460  0.2865  0.3409
67440SOL    HW119930   3.800   4.894   9.450 -0.0291 -0.8091  0.3441
67440SOL    HW219931   3.731   4.990   9.356  0.4129 -1.2339 -0.4289
67441SOL     OW19932   8.233   6.774  10.440  0.1454 -0.4586  0.0384
67441SOL    HW119933   8.261   6.847  10.496 -0.1751  0.5137 -1.0215
67441SOL    HW219934   8.255   6.696  10.489 -0.3500  0.3622  1.6339
67442SOL     OW19935   1.365  10.049   0.203 -0.5038 -0.0958 -0.1187
67442SOL    HW119936   1.363  10.141   0.177 -1.5371  0.7220  2.4768
67442SOL    HW219937   1.454  10.036   0.237 -0.2279 -0.1834 -0.8677
67443SOL     OW19938   4.291   6.630   0.237  0.3082 -0.1045  0.3298
67443SOL    HW119939   4.245   6.591   0.312 -1.2850  0.2107 -0.4510
67443SOL    HW219940   4.243   6.711   0.219  1.4242  0.4466 -0.2911
67444SOL     OW19941   8.283   8.702   4.390 -0.3484 -0.3399  0.9084
67444SOL    HW119942   8.190   8.691   4.406 -0.2244 -0.9578  1.2154
67444SOL    HW219943   8.325   8.682   4.474  0.0416  0.2352  0.8585
67445SOL     OW19944   1.204  12.446   0.012 -0.0849 -0.2937 -0.4377
67445SOL    HW119945   1.283  12.456   0.065 -0.1128  0.2647 -0.4975
67445SOL    HW219946   1.206  12.520  -0.048 -2.3683  1.7157  1.7563
67446SOL     OW19947   2.590   0.275   3.953 -0.2413 -0.1218  0.1276
67446SOL    HW119948   2.551   0.203   4.001  1.0076 -0.7069  0.2971
67446SOL    HW219949   2.556   0.266   3.864 -0.2805 -0.7821  0.2076
67447SOL     OW19950   5.003   1.008  12.493 -0.3529 -0.2280  0.3051
67447SOL    HW119951   4.918   0.990  12.533  0.0782 -0.6484  1.0407
67447SOL    HW219952   5.063   1.018  12.567  0.2533 -0.0083 -0.2098
67448SOL     OW19953  10.172   4.866   4.243 -0.1709  0.0391  0.0824
67448SOL    HW119954  10.188   4.947   4.194 -0.0844 -0.1611 -0.2273
67448SOL    HW219955  10.107   4.889   4.308  1.0152  0.7578  1.0523
67449SOL     OW19956  13.628   3.938   0.301  0.1233  0.0037  0.1518
67449SOL    HW119957  13.652   3.998   0.231  1.8815  0.0313  0.7341
67449SOL    HW219958  13.667   3.976   0.380 -0.3512 -0.9248  0.8549
67450SOL     OW19959   8.130  12.971   8.767 -0.2160 -0.0240 -0.1364
67450SOL    HW119960   8.189  12.918   8.821  0.1811 -0.6517 -1.1532
67450SOL    HW219961   8.161  13.061   8.778 -1.9645  0.3421  3.0005
67451SOL     OW19962  10.596  12.449   9.176 -0.2681  0.3591  0.3793
67451SOL    HW119963  10.520  12.392   9.184 -0.2356  0.3264  0.4657
67451SOL    HW219964  10.669  12.398   9.211 -0.1732  0.3271  0.1366
67452SOL     OW19965  11.636   5.431   8.628  0.8345  0.2054 -0.0765
67452SOL    HW119966  11.666   5.419   8.538  0.2520  0.2307 -0.2789
67452SOL    HW219967  11.707   5.480   8.670  1.8181 -1.1561 -0.0891
67453SOL     OW19968   6.142   2.687   6.143 -0.3444 -0.1476  0.4798
67453SOL    HW119969   6.235   2.696   6.124 -0.5057  1.3978  0.3043
67453SOL    HW219970   6.131   2.594   6.163  1.3597 -0.2284  1.2441
67454SOL     OW19971  11.453   9.786   1.065  0.0102  0.1079 -0.2270
67454SOL    HW119972  11.456   9.802   1.159 -0.4507 -0.2319 -0.1514
67454SOL    HW219973  11.508   9.855   1.027 -1.8427  1.8269  0.0847
67455SOL     OW19974   5.495   7.897   0.986 -0.6244  0.0845 -0.7030
67455SOL    HW119975   5.523   7.952   0.912 -0.0465  0.2997 -0.3341
67455SOL    HW219976   5.442   7.955   1.041 -0.5297  0.1030 -0.6301
67456SOL     OW19977   6.056   3.577   9.915 -0.5602 -0.2646 -0.4285
67456SOL    HW119978   6.056   3.514   9.987  0.5671  0.8711  0.6350
67456SOL    HW219979   6.105   3.534   9.845  1.1915 -0.2101  0.6815
67457SOL     OW19980   1.650  13.148   6.806  0.6677  0.4564  0.1491
67457SOL    HW119981   1.581  13.212   6.821  0.9046  0.6759  0.3103
67457SOL    HW219982   1.621  13.070   6.854  0.1979  0.3105 -0.3579
67458SOL     OW19983   5.320   6.493   4.999  0.1404 -0.0511  0.1204
67458SOL    HW119984   5.277   6.531   4.922 -0.8326  1.4980  1.3745
67458SOL    HW219985   5.405   6.537   5.002 -0.3765  0.9296  0.7032
67459SOL     OW19986  11.228  13.214   2.554 -0.3219  0.3565  0.0927
67459SOL    HW119987  11.187  13.239   2.471 -0.6695 -0.7121 -0.0757
67459SOL    HW219988  11.247  13.297   2.597  1.3022  1.0040 -1.7199
67460SOL     OW19989   6.002   0.582   1.688 -0.0056 -0.1652 -0.1911
67460SOL    HW119990   6.082   0.534   1.711  0.4909  1.1406  0.9695
67460SOL    HW219991   5.932   0.533   1.731  0.3705 -0.4212  0.1435
67461SOL     OW19992   4.691  11.478  13.910  0.7327 -0.3757 -0.4694
67461SOL    HW119993   4.667  11.512  13.997  0.9832 -1.0527 -0.1283
67461SOL    HW219994   4.638  11.529  13.849 -0.0596 -0.4565  0.1391
67462SOL     OW19995   7.857   9.735  13.410 -0.2389  0.0255  0.1947
67462SOL    HW119996   7.784   9.784  13.371 -0.8807  0.3246  1.6696
67462SOL    HW219997   7.925   9.736  13.344 -1.3374  0.3167 -0.9825
67463SOL     OW19998   8.250  11.799   4.226 -0.2500 -0.1600 -0.7371
67463SOL    HW119999   8.256  11.798   4.131  1.6616  0.7506 -0.6984
67463SOL    HW220000   8.175  11.744   4.247  0.1525 -1.5517 -2.7015
67464SOL     OW20001  10.845  13.963   6.825  0.4606 -0.0185 -0.1695
67464SOL    HW120002  10.790  14.016   6.883  1.1588 -0.9919  1.4532
67464SOL    HW220003  10.837  13.874   6.858 -1.0288 -1.0884 -3.1185
67465SOL     OW20004   8.937  13.227   8.794 -0.1168 -0.6085 -0.6447
67465SOL    HW120005   8.869  13.272   8.744 -0.3445 -0.9307 -0.6297
67465SOL    HW220006   8.917  13.134   8.784  0.9935 -0.7598 -1.5943
67466SOL     OW20007  10.693   1.582   0.623  0.1391  0.0497 -0.2747
67466SOL    HW120008  10.744   1.641   0.566 -0.4454 -1.2385 -2.2290
67466SOL    HW220009  10.607   1.624   0.629 -0.4004 -0.7117 -1.9878
67467SOL     OW20010   0.202  13.780  13.611  0.4018 -0.0898  0.1745
67467SOL    HW120011   0.227  13.788  13.703  2.0246  1.6551 -0.3408
67467SOL    HW220012   0.151  13.859  13.593 -0.4399 -0.7236 -0.2883
67468SOL     OW20013  10.661  12.372   0.040 -0.4346  0.4070 -0.3779
67468SOL    HW120014  10.615  12.354   0.122  0.6468 -1.1884 -0.0840
67468SOL    HW220015  10.662  12.468   0.033 -2.2975  0.5141  0.4295
67469SOL     OW20016   0.914   2.901   5.793  0.7267 -0.0008  0.0482
67469SOL    HW120017   0.946   2.843   5.724  3.3390 -0.7617  1.7572
67469SOL    HW220018   0.884   2.841   5.862  2.2445  0.6192  1.3008
67470SOL     OW20019  12.724   4.260   3.688 -0.1906 -0.1656  0.1689
67470SOL    HW120020  12.710   4.197   3.618 -0.2006  0.5528 -0.4824
67470SOL    HW220021  12.744   4.206   3.765 -0.5056 -0.9665 -0.3023
67471SOL     OW20022   4.300   2.595  11.861  0.2353 -0.8182  0.3546
67471SOL    HW120023   4.393   2.574  11.874  0.4703 -0.0171  0.0445
67471SOL    HW220024   4.290   2.601  11.766  0.2819  0.8106  0.4190
67472SOL     OW20025   2.166   2.910  12.634  0.7673 -0.0710  0.4692
67472SOL    HW120026   2.245   2.904  12.580  0.1704 -1.7223 -0.2643
67472SOL    HW220027   2.100   2.861  12.586 -0.4217  0.3640  1.6065
67473SOL     OW20028   6.077  11.989  11.681 -0.0129 -0.2673 -0.2027
67473SOL    HW120029   6.020  11.927  11.728  0.6653 -1.2370 -0.6242
67473SOL    HW220030   6.016  12.046  11.634 -0.6793  0.1098  1.0540
67474SOL     OW20031   1.457   6.708   2.789 -0.7322  0.5708 -0.2893
67474SOL    HW120032   1.447   6.750   2.874 -0.4767 -0.2150  0.1401
67474SOL    HW220033   1.395   6.635   2.792 -1.1567  0.8870 -1.0128
67475SOL     OW20034   3.854   8.546   3.175  0.0905  0.3656  1.0736
67475SOL    HW120035   3.876   8.601   3.100  0.4782 -0.3531  0.6410
67475SOL    HW220036   3.762   8.563   3.191  0.0681  0.7278  0.5979
67476SOL     OW20037  14.031  12.448  13.754 -0.2017  0.0664  0.2338
67476SOL    HW120038  14.116  12.451  13.710 -0.1513 -0.6085  0.2851
67476SOL    HW220039  14.039  12.513  13.825  0.5930 -0.6418  0.8162
67477SOL     OW20040   8.337  13.230   5.420  0.2158  0.4584 -0.8716
67477SOL    HW120041   8.301  13.145   5.395  0.8200  0.3574 -1.4213
67477SOL    HW220042   8.340  13.280   5.339 -0.9768  1.3374 -0.4053
67478SOL     OW20043   3.000   6.647  10.831  0.0845 -0.4912  0.2581
67478SOL    HW120044   2.989   6.732  10.873  2.3200  0.5176 -1.0371
67478SOL    HW220045   3.091   6.622  10.848  1.4970  0.4151 -4.4647
67479SOL     OW20046  11.003  10.704   7.996 -0.2076 -0.5210  0.1776
67479SOL    HW120047  11.024  10.789   7.959  1.6836 -0.3891  1.3989
67479SOL    HW220048  10.910  10.690   7.975 -0.5555  1.8124 -0.0362
67480SOL     OW20049   8.641   9.364   6.017 -0.5878  0.0764 -0.6640
67480SOL    HW120050   8.680   9.451   6.010  1.3017 -0.8280 -2.0271
67480SOL    HW220051   8.577   9.361   5.946 -0.2272  0.1500 -0.9941
67481SOL     OW20052   7.464  13.365   0.803 -0.1236  0.7986 -0.0081
67481SOL    HW120053   7.444  13.326   0.888  2.3009  0.1796  0.3404
67481SOL    HW220054   7.493  13.292   0.748  2.7455  1.7112  0.1038
67482SOL     OW20055   0.324   0.415   7.182 -0.3718 -0.1725  0.3118
67482SOL    HW120056   0.412   0.453   7.186 -0.2858 -0.3490  0.0625
67482SOL    HW220057   0.316   0.364   7.263  0.7066 -2.2453 -0.8087
67483SOL     OW20058  11.468   9.102   2.539 -0.6627 -0.1537  0.4394
67483SOL    HW120059  11.526   9.090   2.614  1.0105  1.9893 -0.4067
67483SOL    HW220060  11.399   9.160   2.569 -0.5723 -0.1388  0.6177
67484SOL     OW20061   8.187   8.689   2.265  0.1999  0.0344 -0.0702
67484SOL    HW120062   8.200   8.594   2.264 -1.9400 -0.3019 -0.3125
67484SOL    HW220063   8.115   8.704   2.327  0.3993  1.4860 -0.1412
67485SOL     OW20064   8.291   1.137   1.849  0.0028  0.2125  0.1663
67485SOL    HW120065   8.385   1.152   1.837 -0.1020  1.1103  0.3871
67485SOL    HW220066   8.283   1.108   1.940  0.4319 -3.3964 -0.7853
67486SOL     OW20067   7.476   0.633   6.676  0.3252  0.4036  0.2125
67486SOL    HW120068   7.567   0.618   6.652 -0.0543 -0.9422 -0.4756
67486SOL    HW220069   7.480   0.679   6.760  1.6590 -2.6720  1.9776
67487SOL     OW20070  10.855   9.951   6.611 -0.0836  0.0613  0.8072
67487SOL    HW120071  10.914  10.026   6.612 -0.6034  0.4733  2.0708
67487SOL    HW220072  10.768   9.988   6.625 -0.4719 -0.6796  0.4301
67488SOL     OW20073   7.428   6.279   4.480 -0.5001  0.4942 -0.2677
67488SOL    HW120074   7.369   6.210   4.452  1.0792 -0.8453 -0.4063
67488SOL    HW220075   7.423   6.345   4.410  0.1373 -0.8149 -1.5860
67489SOL     OW20076   7.452   1.638  12.440  0.3144  0.5688 -0.0568
67489SOL    HW120077   7.517   1.582  12.397  1.9174  2.2896  0.0109
67489SOL    HW220078   7.374   1.630  12.385  0.9666 -0.5694 -0.8653
67490SOL     OW20079   0.323   6.182   9.257  0.0394 -0.1087  0.5352
67490SOL    HW120080   0.230   6.183   9.236 -0.1879 -0.0988  1.4695
67490SOL    HW220081   0.335   6.104   9.312  0.8846 -0.9646 -0.8025
67491SOL     OW20082  12.859  11.836   0.587  0.1007 -0.4610  0.1083
67491SOL    HW120083  12.828  11.763   0.533 -0.4330  0.4747 -0.8774
67491SOL    HW220084  12.930  11.876   0.536 -0.3052  0.3413  0.1565
67492SOL     OW20085  12.759   7.906   3.498  0.2376 -0.5302  0.0335
67492SOL    HW120086  12.854   7.913   3.509  0.3198 -1.0906 -0.2973
67492SOL    HW220087  12.728   7.996   3.508  1.0124  0.0062 -1.8266
67493SOL     OW20088   7.934  10.759   6.054  0.3197 -0.2472  0.6197
67493SOL    HW120089   7.997  10.827   6.030 -0.7654  0.7552  0.4833
67493SOL    HW220090   7.908  10.721   5.970  0.9275 -0.8486  0.6962
67494SOL     OW20091   3.635   1.388   5.390  0.0538 -0.0031 -0.3955
67494SOL    HW120092   3.669   1.341   5.467 -0.5071 -0.3731 -0.3669
67494SOL    HW220093   3.698   1.368   5.320  0.8103  0.6920  0.0672
67495SOL     OW20094   1.309  13.310   5.684  0.0296 -0.0833  0.1545
67495SOL    HW120095   1.240  13.364   5.645  0.0750  0.4127  0.7448
67495SOL    HW220096   1.366  13.288   5.611  2.4001  4.1748  0.3851
67496SOL     OW20097   1.499   4.526  13.688  0.0473 -0.1983  0.5363
67496SOL    HW120098   1.589   4.527  13.657 -0.2065  0.1650 -0.2221
67496SOL    HW220099   1.448   4.491  13.615 -0.5315  0.4175  0.6312
67497SOL     OW20100   6.876  13.063   9.891  0.2229  0.7513  0.3151
67497SOL    HW120101   6.907  13.053   9.980 -2.7151 -0.8777  1.3128
67497SOL    HW220102   6.940  13.016   9.837  1.4994  0.8893  1.6677
67498SOL     OW20103  10.506   7.245   1.765 -0.6039 -0.1143  0.3447
67498SOL    HW120104  10.463   7.301   1.829  1.3789  0.8918  0.8965
67498SOL    HW220105  10.472   7.275   1.680 -0.6952  0.9392  0.7338
67499SOL     OW20106   9.567   5.219   1.478 -0.2299  0.1757 -0.2988
67499SOL    HW120107   9.611   5.237   1.395  0.2585  1.1822  0.1605
67499SOL    HW220108   9.473   5.227   1.457 -0.0839  2.6480 -0.3263
67500SOL     OW20109   7.187  11.390  10.239 -0.5387 -0.3466  0.1367
67500SOL    HW120110   7.190  11.478  10.201  1.9485 -0.3751  0.1122
67500SOL    HW220111   7.210  11.403  10.331 -1.1645 -0.8732  0.3752
67501SOL     OW20112  13.007   9.818   1.169  0.0972 -0.0149 -0.1777
67501SOL    HW120113  12.959   9.735   1.170  2.2224 -1.3404 -1.0809
67501SOL    HW220114  13.099   9.792   1.179  0.7332  2.3479  0.7698
67502SOL     OW20115  11.985   0.846   5.183  0.5068  0.4963  0.2321
67502SOL    HW120116  12.080   0.856   5.169  0.4661  1.0018  0.2990
67502SOL    HW220117  11.959   0.926   5.227 -0.0661  0.6500 -0.3694
67503SOL     OW20118   2.493  13.766   2.178 -0.1176 -0.2106 -0.1298
67503SOL    HW120119   2.423  13.719   2.223 -1.1096  1.2608 -0.0677
67503SOL    HW220120   2.549  13.798   2.248 -0.0631 -0.3574 -0.1065
67504SOL     OW20121  13.803   0.098   0.274  1.1594  0.3600 -0.4847
67504SOL    HW120122  13.782   0.190   0.286  0.5463  0.0191  1.2771
67504SOL    HW220123  13.885   0.085   0.321 -0.1882 -0.5535  1.7561
67505SOL     OW20124   5.962  10.338   4.468  0.5455 -0.4772 -0.0703
67505SOL    HW120125   5.953  10.268   4.403  0.7061 -0.4747 -0.0959
67505SOL    HW220126   6.030  10.306   4.527  0.7505 -0.2578 -0.1890
67506SOL     OW20127  10.070  10.964  11.644 -0.2657 -0.1304 -0.6611
67506SOL    HW120128  10.025  10.905  11.583  0.8539 -1.3621 -0.3523
67506SOL    HW220129  10.063  11.051  11.603  0.3398 -0.8985 -2.5246
67507SOL     OW20130   0.073  13.320  13.852  0.7705 -1.0106 -0.3315
67507SOL    HW120131   0.124  13.339  13.930 -1.3320 -1.3592  1.2201
67507SOL    HW220132   0.007  13.257  13.882 -3.2341  2.3877 -1.0413
67508SOL     OW20133   3.954   1.064   3.006  0.1814 -0.0107  0.6676
67508SOL    HW120134   4.026   1.121   3.033  0.4046 -0.0412  0.1532
67508SOL    HW220135   3.946   1.079   2.912 -2.3198  2.0989  1.0936
67509SOL     OW20136   6.861   7.141  12.585  0.3550 -0.6519 -0.4510
67509SOL    HW120137   6.802   7.215  12.596  1.2015 -0.0637  0.3150
67509SOL    HW220138   6.812   7.066  12.618 -0.7990 -0.5975 -1.9517
67510SOL     OW20139  13.434   9.805   7.458  0.1046 -0.4634  0.1199
67510SOL    HW120140  13.513   9.751   7.463  0.5052 -0.2672 -2.4071
67510SOL    HW220141  13.388   9.772   7.380 -0.2536  1.9776 -0.7851
67511SOL     OW20142   9.221   2.350  10.381  0.5632 -0.0675 -0.2706
67511SOL    HW120143   9.163   2.375  10.453 -1.0431  2.3879 -2.2068
67511SOL    HW220144   9.170   2.286  10.331  0.9652 -0.5050 -0.1188
67512SOL     OW20145   7.096   9.765  12.870  0.1059  0.0386 -0.1289
67512SOL    HW120146   7.076   9.672  12.871 -0.6263  0.1810 -0.5714
67512SOL    HW220147   7.036   9.802  12.805  0.7558  0.7354 -0.3467
67513SOL     OW20148   2.303   8.055   2.188  0.1415  0.2375  0.4862
67513SOL    HW120149   2.380   8.109   2.205 -0.2692  0.5993  1.2500
67513SOL    HW220150   2.259   8.098   2.115  0.2413  0.4822  0.5701
67514SOL     OW20151   8.598  11.094   8.706  0.3507 -0.0993 -0.0082
67514SOL    HW120152   8.684  11.066   8.676 -0.1719 -0.2715 -1.4146
67514SOL    HW220153   8.536  11.051   8.647 -0.8830 -1.9582  2.4489
67515SOL     OW20154  10.447   4.736   4.814  0.0842 -0.0435 -0.6050
67515SOL    HW120155  10.523   4.681   4.835  0.0594 -0.0922 -0.6441
67515SOL    HW220156  10.485   4.815   4.776  0.0648 -0.5072 -1.6093
67516SOL     OW20157   5.595   0.763   0.508 -0.0472 -0.2400  0.0526
67516SOL    HW120158   5.589   0.773   0.603  0.8784 -1.6855  0.3045
67516SOL    HW220159   5.650   0.836   0.479 -1.4027  0.9769  0.4192
67517SOL     OW20160   5.269   7.696   3.451  0.1579 -0.5355 -0.1986
67517SOL    HW120161   5.244   7.785   3.427  0.3036 -0.4557 -0.0545
67517SOL    HW220162   5.343   7.706   3.511  0.1302 -0.7497 -0.1245
67518SOL     OW20163   3.839   0.146   6.298  0.4478 -0.6518  0.0726
67518SOL    HW120164   3.806   0.145   6.387  0.5627  0.3861  0.1426
67518SOL    HW220165   3.789   0.216   6.255 -0.2317 -1.7218 -0.9306
67519SOL     OW20166   3.454   1.060   3.023 -0.1178  0.1832 -0.6314
67519SOL    HW120167   3.529   1.067   2.965  0.7901 -0.3420  0.4338
67519SOL    HW220168   3.441   1.148   3.057  0.2518  0.2087 -0.5504
67520SOL     OW20169   5.387   2.514   6.392 -0.1883 -0.1672 -0.4450
67520SOL    HW120170   5.483   2.515   6.386 -0.1464  0.2040  0.2233
67520SOL    HW220171   5.360   2.599   6.359 -0.0257  1.3944  3.0116
67521SOL     OW20172   6.714   1.836   9.486 -0.5684 -0.0654  0.0918
67521SOL    HW120173   6.747   1.784   9.559  0.1808 -0.9297 -0.8366
67521SOL    HW220174   6.772   1.912   9.481 -0.7755  0.1291  0.5306
67522SOL     OW20175   5.625  10.872   3.418  0.0287  0.0167 -0.2014
67522SOL    HW120176   5.600  10.964   3.429 -0.5251 -0.2568  1.0955
67522SOL    HW220177   5.581  10.827   3.490 -1.6211 -1.6423 -2.1271
67523SOL     OW20178   9.977  13.781   2.531  0.2097  0.1255  0.3472
67523SOL    HW120179  10.067  13.784   2.565  0.3295  1.4188 -0.0489
67523SOL    HW220180   9.959  13.870   2.503 -1.4956  0.0738  1.1526
67524SOL     OW20181   2.618   1.216  14.004 -0.0715 -0.1382 -0.6729
67524SOL    HW120182   2.681   1.277  13.966 -0.3328  1.2375  0.9807
67524SOL    HW220183   2.538   1.267  14.014 -0.8695 -1.2978 -0.9296
67525SOL     OW20184   5.709  12.907   8.551  0.2688  0.0335  0.1863
67525SOL    HW120185   5.776  12.921   8.485 -1.2178  0.8165 -1.2285
67525SOL    HW220186   5.689  12.813   8.545  0.5514 -0.0126 -0.0679
67526SOL     OW20187   4.814   3.102   7.425 -0.7574  0.3585 -0.4262
67526SOL    HW120188   4.767   3.166   7.479  0.5361  0.3593  0.7624
67526SOL    HW220189   4.779   3.017   7.453 -0.0241  0.3520  0.5332
67527SOL     OW20190  13.601  11.384  14.036 -0.1126  0.2387 -0.1166
67527SOL    HW120191  13.526  11.335  14.069 -1.1073  0.1681 -2.3319
67527SOL    HW220192  13.611  11.457  14.097  0.4842 -1.7855  2.4110
67528SOL     OW20193  11.655  10.235   4.105  0.3201 -0.4703 -0.3667
67528SOL    HW120194  11.640  10.270   4.017 -1.0931 -1.0154 -0.3569
67528SOL    HW220195  11.582  10.175   4.121  2.0834 -2.6687  0.0376
67529SOL     OW20196   4.975   8.678   6.871  0.1109 -0.6705  0.3525
67529SOL    HW120197   4.963   8.721   6.786  0.4614 -0.8710  0.1976
67529SOL    HW220198   5.039   8.732   6.917 -1.5819  0.6021  1.3249
67530SOL     OW20199   8.579   3.286  11.784  0.5097 -0.1252  0.3087
67530SOL    HW120200   8.525   3.253  11.856  0.7126 -0.6544  0.2263
67530SOL    HW220201   8.647   3.219  11.773  0.4148 -0.1061 -0.4450
67531SOL     OW20202   9.112   0.777   2.616  0.2202  0.4474 -0.4956
67531SOL    HW120203   9.153   0.864   2.616 -1.8165  1.4596 -0.1969
67531SOL    HW220204   9.053   0.779   2.691  1.2115 -1.7855  0.4378
67532SOL     OW20205   9.317   4.618   4.007 -0.0667 -0.1215 -0.1610
67532SOL    HW120206   9.275   4.686   3.954 -1.6369  0.0619  1.2504
67532SOL    HW220207   9.317   4.653   4.096  1.9676 -0.6810  0.1140
67533SOL     OW20208   7.779   0.946   4.055  0.1569  0.1053 -0.1177
67533SOL    HW120209   7.853   0.968   4.110  0.4365 -1.2534  0.0855
67533SOL    HW220210   7.795   0.856   4.027 -0.8298  0.1825 -1.0258
67534SOL     OW20211   1.277   1.931   0.096 -0.7103 -0.4916 -0.2469
67534SOL    HW120212   1.215   1.950   0.166  0.5168 -1.7852  1.2608
67534SOL    HW220213   1.363   1.951   0.133 -0.1230  0.7900 -2.1241
67535SOL     OW20214   5.792  12.727   3.767 -0.5351 -0.1839 -0.5078
67535SOL    HW120215   5.787  12.814   3.726  0.1588 -0.3937 -1.0625
67535SOL    HW220216   5.800  12.745   3.860  2.5306  0.4949 -0.8009
67536SOL     OW20217   1.084   3.500   8.885  0.0068 -0.3677  0.2165
67536SOL    HW120218   1.123   3.492   8.798  1.5938  0.1096  0.8541
67536SOL    HW220219   1.078   3.411   8.918 -2.2738 -0.7479 -1.0418
67537SOL     OW20220  12.467   3.890   6.723 -0.1381 -0.4040  0.4292
67537SOL    HW120221  12.512   3.811   6.751 -1.5513 -1.6164 -0.5353
67537SOL    HW220222  12.536   3.947   6.690  0.8980 -1.3150  0.9747
67538SOL     OW20223   8.274   3.829   7.463 -1.1633  0.3067 -0.3695
67538SOL    HW120224   8.288   3.924   7.462 -0.3233  0.2002  0.0144
67538SOL    HW220225   8.351   3.793   7.418  0.2729 -0.3554  2.3544
67539SOL     OW20226  12.284   6.717   8.941  0.1240  0.0389  0.1178
67539SOL    HW120227  12.277   6.745   9.033  0.1082 -0.9935  0.4462
67539SOL    HW220228  12.368   6.673   8.935  0.2670  0.3794 -0.4496
67540SOL     OW20229   7.275  11.558   5.418  0.2766 -0.5477  0.3564
67540SOL    HW120230   7.271  11.590   5.328  2.5044  2.3263  1.1301
67540SOL    HW220231   7.277  11.463   5.410 -1.4664 -0.4423 -2.4585
67541SOL     OW20232   8.114   0.526   2.116 -0.0981 -0.1815  0.6659
67541SOL    HW120233   8.057   0.562   2.047 -0.1757 -1.9147 -0.2258
67541SOL    HW220234   8.060   0.459   2.159  0.5034 -0.2487  1.3376
67542SOL     OW20235  12.197   5.562   7.817 -0.0994  0.6070 -0.2493
67542SOL    HW120236  12.231   5.552   7.728  1.4775  1.7581  0.1787
67542SOL    HW220237  12.104   5.538   7.810  0.3698 -0.9352 -1.8383
67543SOL     OW20238  11.945  12.210  12.205  0.5231 -0.1818  0.2150
67543SOL    HW120239  11.977  12.158  12.279 -0.2261 -0.5051  0.3133
67543SOL    HW220240  11.973  12.161  12.128 -1.3237 -1.4578  0.3098
67544SOL     OW20241  11.828   8.557   7.503 -0.0259  0.0212 -0.0334
67544SOL    HW120242  11.759   8.504   7.463  0.4286 -0.5912 -0.0220
67544SOL    HW220243  11.887   8.578   7.431 -0.2501  0.5942 -0.0549
67545SOL     OW20244  10.834   5.476   5.958 -1.0289 -1.1071  0.0676
67545SOL    HW120245  10.800   5.523   6.034 -2.0593 -2.3500  0.4345
67545SOL    HW220246  10.910   5.429   5.991 -0.5115 -0.3868 -0.0853
67546SOL     OW20247   7.818  12.033   7.732 -0.1289  0.1820 -0.1470
67546SOL    HW120248   7.822  12.093   7.807 -0.9679  0.7340 -0.5239
67546SOL    HW220249   7.859  11.952   7.763  0.1647  0.6362  0.6754
67547SOL     OW20250   7.723   7.361  10.435 -0.9595  0.5569 -0.3832
67547SOL    HW120251   7.737   7.336  10.344 -0.1315  0.8132 -0.3357
67547SOL    HW220252   7.679   7.446  10.430 -0.6040  0.7321 -0.5441
67548SOL     OW20253  13.917   1.369   2.960 -0.3097  0.4202  0.1826
67548SOL    HW120254  13.843   1.335   3.010  0.3397  0.1365  0.9680
67548SOL    HW220255  13.912   1.464   2.969  1.1527  0.3336  2.8418
67549SOL     OW20256   7.078   2.212   6.008 -0.1572 -0.1656  0.1167
67549SOL    HW120257   7.134   2.169   6.072  0.6507  0.6333 -0.0415
67549SOL    HW220258   7.004   2.245   6.059  0.2840  0.1195  0.5737
67550SOL     OW20259   8.782  12.314  10.740  0.4903  0.0357 -0.0033
67550SOL    HW120260   8.708  12.322  10.801  2.2181 -0.8551  2.3987
67550SOL    HW220261   8.774  12.227  10.702  0.4881 -0.2102  0.5516
67551SOL     OW20262  13.073   8.459   0.882 -0.5276  0.3501  0.8382
67551SOL    HW120263  13.160   8.447   0.845 -1.1459  0.4692 -0.7549
67551SOL    HW220264  13.081   8.532   0.942  0.6215 -0.1212  1.2794
67552SOL     OW20265   4.677   1.628  11.315  0.0539  0.3930  0.1141
67552SOL    HW120266   4.654   1.716  11.343  1.5474  1.4473 -1.7356
67552SOL    HW220267   4.617   1.608  11.244 -1.1465 -0.6914  1.3519
67553SOL     OW20268   5.008   6.311  13.914  0.3710  0.4902  0.5937
67553SOL    HW120269   4.926   6.262  13.900  1.4546 -1.4667  0.7493
67553SOL    HW220270   5.025   6.352  13.829 -0.1760 -0.0419  0.2115
67554SOL     OW20271  11.164  11.661   0.870  0.3861  0.1123 -0.3632
67554SOL    HW120272  11.188  11.731   0.810  1.4564  1.7692  1.8301
67554SOL    HW220273  11.233  11.595   0.860  0.7258  0.5187 -0.6867
67555SOL     OW20274   0.357   5.436   1.837 -0.1963  0.6025 -0.7724
67555SOL    HW120275   0.403   5.515   1.809 -2.5210  2.0155 -0.9085
67555SOL    HW220276   0.299   5.466   1.907 -0.6162 -1.1512 -0.3270
67556SOL     OW20277   3.938  12.334   7.535 -0.4398 -0.0161 -0.3868
67556SOL    HW120278   4.027  12.367   7.553 -0.6906  0.5853 -0.2125
67556SOL    HW220279   3.950  12.268   7.467  0.1002  0.3458 -0.6488
67557SOL     OW20280   7.647   0.029   1.403  0.2526 -0.3915  0.1639
67557SOL    HW120281   7.624   0.001   1.492  0.7780  1.4284  0.9340
67557SOL    HW220282   7.563   0.031   1.357  0.1039 -2.3454  0.2860
67558SOL     OW20283   5.172   2.571   5.489 -0.2284 -1.0402 -0.5041
67558SOL    HW120284   5.244   2.534   5.438  1.2036  0.0067  0.6624
67558SOL    HW220285   5.143   2.499   5.545  0.2490 -1.3517 -0.6476
67559SOL     OW20286  10.176  12.062  11.374 -0.0629 -0.4669 -0.2961
67559SOL    HW120287  10.219  12.044  11.290  0.3228 -1.0447  0.0147
67559SOL    HW220288  10.245  12.046  11.439  0.1773  1.6558  0.0593
67560SOL     OW20289   9.152  10.356   7.646 -0.0509 -0.3072  0.1294
67560SOL    HW120290   9.154  10.446   7.612 -0.6524 -0.6058 -0.7204
67560SOL    HW220291   9.229  10.351   7.702  0.3754  0.5398 -0.3447
67561SOL     OW20292   4.581   6.385  13.315 -0.4468 -0.0579 -0.0508
67561SOL    HW120293   4.592   6.477  13.292 -0.1005 -0.5197 -1.9067
67561SOL    HW220294   4.495   6.362  13.280  0.2006 -0.8610 -1.1517
67562SOL     OW20295   0.041  12.538   4.592 -0.2192  0.0892  0.5155
67562SOL    HW120296   0.007  12.620   4.558 -1.4933 -0.5356  0.1970
67562SOL    HW220297   0.049  12.552   4.686 -0.6282  0.5192  0.4916
67563SOL     OW20298   2.700  13.741   1.079  0.4524  0.1418 -0.2277
67563SOL    HW120299   2.722  13.779   1.164 -0.3579 -1.7330  0.8685
67563SOL    HW220300   2.605  13.734   1.079  0.3987  0.6666 -1.5526
67564SOL     OW20301   6.424  13.050   9.798  0.1723 -0.3301 -0.3118
67564SOL    HW120302   6.383  12.975   9.754  1.2482 -1.2812  0.2468
67564SOL    HW220303   6.506  13.064   9.751 -0.0433  0.5392 -0.4391
67565SOL     OW20304   4.431   5.789   1.890  0.2733  0.3690 -0.4439
67565SOL    HW120305   4.471   5.824   1.810  0.0992 -1.8900 -1.5888
67565SOL    HW220306   4.353   5.742   1.859  0.4396 -0.9096  0.9939
67566SOL     OW20307  12.874   8.104   6.841  0.1461  0.1689 -0.0160
67566SOL    HW120308  12.953   8.085   6.791 -0.2510  0.9660 -0.9798
67566SOL    HW220309  12.891   8.069   6.928  1.9614  1.1755  0.0851
67567SOL     OW20310   5.699   5.342  12.850  0.1646 -0.0936  0.0671
67567SOL    HW120311   5.751   5.361  12.771 -1.7819  0.1532 -1.2187
67567SOL    HW220312   5.760   5.355  12.922  1.5101  1.6059 -1.2924
67568SOL     OW20313   0.975  13.455  12.321  0.1320  0.1675 -0.1296
67568SOL    HW120314   1.044  13.472  12.385 -0.7730  0.1679  0.8862
67568SOL    HW220315   0.933  13.540  12.308  0.2114  0.1346 -0.6042
67569SOL     OW20316   9.790  10.883   4.507 -0.2179 -0.0109 -0.2176
67569SOL    HW120317   9.824  10.796   4.531 -1.2907 -0.6424 -0.8912
67569SOL    HW220318   9.819  10.940   4.578  2.8560 -0.3168 -1.0956
67570SOL     OW20319   3.667   6.606   8.704 -0.6734 -0.1450 -0.2610
67570SOL    HW120320   3.697   6.516   8.718  0.0978  0.2371  0.6503
67570SOL    HW220321   3.615   6.601   8.623  0.6079 -1.1293 -1.0734
67571SOL     OW20322  10.351   3.969   7.254 -0.5151 -0.0630  0.1398
67571SOL    HW120323  10.325   3.878   7.239 -0.4596  0.0738 -0.8903
67571SOL    HW220324  10.321   4.015   7.175 -1.4012  1.0012  1.0574
67572SOL     OW20325  12.332   3.301  12.413 -0.3301  0.2526  0.4699
67572SOL    HW120326  12.280   3.254  12.478  0.4028  1.4180  1.9557
67572SOL    HW220327  12.388   3.234  12.373 -1.1751 -0.5714  0.6396
67573SOL     OW20328   0.917   6.626   1.591 -0.2177  0.1795 -0.4322
67573SOL    HW120329   0.834   6.651   1.632  0.5220  1.1113  0.5544
67573SOL    HW220330   0.910   6.660   1.501 -0.6038  0.9368 -0.1257
67574SOL     OW20331   0.409   0.043   7.032  0.4091 -0.2234  0.3848
67574SOL    HW120332   0.459   0.046   7.113  0.8875  1.3983  0.0533
67574SOL    HW220333   0.357   0.123   7.033  1.5135  0.5739 -1.5705
67575SOL     OW20334   3.877   2.557   2.347  0.2228  0.3535  0.2471
67575SOL    HW120335   3.936   2.625   2.315  0.0845  1.7425  2.7388
67575SOL    HW220336   3.842   2.591   2.429 -2.9218 -1.0490 -0.3516
67576SOL     OW20337   0.920   7.189   3.855 -0.0096 -0.5405 -0.2385
67576SOL    HW120338   0.996   7.209   3.801 -0.6555  0.9199 -0.6603
67576SOL    HW220339   0.866   7.131   3.802  1.2456 -2.4444  0.4595
67577SOL     OW20340   0.627   0.382   2.207 -0.1844  0.1162 -0.3898
67577SOL    HW120341   0.661   0.469   2.229 -1.7484  0.7270 -0.2551
67577SOL    HW220342   0.691   0.321   2.245  0.7863  1.1983 -0.2354
67578SOL     OW20343   9.351   4.713  12.254  0.0161  0.0971 -0.0408
67578SOL    HW120344   9.409   4.789  12.252  0.6959 -0.3983 -1.6862
67578SOL    HW220345   9.266   4.747  12.279  0.3998  1.3232 -0.3556
67579SOL     OW20346   5.093   9.026   1.282 -0.1416  0.2503 -0.0204
67579SOL    HW120347   5.080   9.092   1.213  0.6137 -1.0013 -1.4322
67579SOL    HW220348   5.049   8.947   1.248 -0.6191 -0.1360  1.4118
67580SOL     OW20349   3.978   9.863  11.655  0.4553 -0.3184  0.0776
67580SOL    HW120350   3.901   9.809  11.634  0.1656 -0.3971  1.2853
67580SOL    HW220351   3.946   9.928  11.717  0.9295  0.9491 -0.9437
67581SOL     OW20352  12.887   5.315  11.729 -0.1058 -0.4666  0.0278
67581SOL    HW120353  12.935   5.262  11.792  0.5585  0.1096  0.0183
67581SOL    HW220354  12.864   5.254  11.659  0.8477 -0.7040 -0.0877
67582SOL     OW20355   0.375   1.170   1.604 -0.2462  0.5018 -0.6030
67582SOL    HW120356   0.350   1.260   1.581  0.5340  0.8015 -0.3066
67582SOL    HW220357   0.344   1.117   1.531  1.0579  1.2755 -1.7594
67583SOL     OW20358   6.454  10.536   8.670 -0.1329  0.4078 -0.2018
67583SOL    HW120359   6.492  10.448   8.660  2.8083  1.3951  1.2278
67583SOL    HW220360   6.359  10.520   8.676  0.3195 -2.7134  0.5608
67584SOL     OW20361   7.055  11.695   2.222 -0.0485  0.9692 -0.6293
67584SOL    HW120362   6.983  11.752   2.249 -0.8308 -0.5705  0.7468
67584SOL    HW220363   7.100  11.673   2.304  0.8529  0.4324 -1.2529
67585SOL     OW20364  11.878   0.045   1.006 -0.4132 -0.0842  0.3445
67585SOL    HW120365  11.863   0.139   1.014 -0.3674  0.0493 -0.9512
67585SOL    HW220366  11.971   0.033   1.027  0.4170  0.6237 -2.5062
67586SOL     OW20367   5.888   3.055   8.635 -0.2708  0.0816  0.1643
67586SOL    HW120368   5.890   3.148   8.610 -1.6578  0.1622  0.2920
67586SOL    HW220369   5.805   3.023   8.601 -1.0413 -0.4392  2.3855
67587SOL     OW20370  12.510  13.251   5.435 -0.6019  0.3839  0.1685
67587SOL    HW120371  12.561  13.273   5.357 -1.5730  0.3967 -0.4706
67587SOL    HW220372  12.534  13.160   5.454 -0.2400  0.4327 -0.0419
67588SOL     OW20373   8.733   1.619   6.404  0.3106  0.7579  0.4213
67588SOL    HW120374   8.715   1.651   6.493  1.0600  0.9108  0.5211
67588SOL    HW220375   8.768   1.531   6.417  0.0866  0.6451  0.2565
67589SOL     OW20376   7.525  12.079   6.326  0.1907  0.2808  0.4552
67589SOL    HW120377   7.558  11.995   6.296  1.2833  0.4289  1.1836
67589SOL    HW220378   7.526  12.072   6.422  0.5577  1.2094  0.5291
67590SOL     OW20379   6.169  11.811   9.721  0.3577 -0.3497  0.2994
67590SOL    HW120380   6.080  11.778   9.705  0.6116 -0.6523 -0.5305
67590SOL    HW220381   6.162  11.856   9.805 -1.3545  2.3532 -1.1418
67591SOL     OW20382   1.355   1.553   0.442  0.6218 -0.3203 -0.7415
67591SOL    HW120383   1.363   1.465   0.404 -3.2308 -0.6191 -1.2700
67591SOL    HW220384   1.340   1.610   0.367  0.9246  0.4278 -0.2351
67592SOL     OW20385  12.243   1.430   4.593 -0.4827 -0.5444  0.3007
67592SOL    HW120386  12.264   1.338   4.575 -2.2808 -1.2204  1.3880
67592SOL    HW220387  12.255   1.474   4.508  0.8876 -1.6545 -0.1293
67593SOL     OW20388   0.753   5.912   8.192 -0.0162  1.0954  0.2894
67593SOL    HW120389   0.676   5.913   8.134 -0.1406  0.4759  0.4426
67593SOL    HW220390   0.825   5.940   8.136  0.2988 -1.6476 -0.8071
67594SOL     OW20391   2.246   4.289   7.407 -0.4654  0.0462 -0.8039
67594SOL    HW120392   2.309   4.354   7.438 -0.0613 -1.1116  0.9256
67594SOL    HW220393   2.252   4.294   7.312 -0.8878  2.9307 -0.7938
67595SOL     OW20394   9.228  10.438   6.813  0.3066 -0.3581 -0.2433
67595SOL    HW120395   9.241  10.509   6.876  0.5465 -0.4665 -0.1719
67595SOL    HW220396   9.296  10.374   6.833  1.1711  0.1664 -1.4003
67596SOL     OW20397   3.483  12.335  12.616 -0.0426  0.0708  0.1076
67596SOL    HW120398   3.484  12.420  12.660 -1.0568  1.4668 -2.3492
67596SOL    HW220399   3.574  12.306  12.616  0.1469  0.4996  2.0557
67597SOL     OW20400   7.693  12.809   5.185 -0.1824 -0.0199  0.0872
67597SOL    HW120401   7.757  12.865   5.229 -0.3888 -0.1704  0.5881
67597SOL    HW220402   7.685  12.846   5.097  0.3392  0.2022  0.1283
67598SOL     OW20403   8.815  10.401   6.712 -0.3985  0.7564  0.2630
67598SOL    HW120404   8.789  10.401   6.804 -2.4554 -0.5954 -0.2412
67598SOL    HW220405   8.740  10.438   6.666  0.0023  0.0518 -0.9967
67599SOL     OW20406  11.541  11.559  12.343  0.5318 -0.4571 -0.7478
67599SOL    HW120407  11.491  11.605  12.410  3.2542 -1.3432  2.1686
67599SOL    HW220408  11.483  11.487  12.314 -0.8298  0.1240  0.4359
67600SOL     OW20409  13.121  13.820   3.194  0.2762 -0.0419 -0.3789
67600SOL    HW120410  13.108  13.914   3.205 -0.0556  0.0251 -1.3207
67600SOL    HW220411  13.033  13.783   3.193  0.3946 -0.3274 -0.3662
67601SOL     OW20412  13.800   0.730   2.915 -0.7752  1.0635 -0.4778
67601SOL    HW120413  13.723   0.712   2.968  0.2792 -1.0875  0.4786
67601SOL    HW220414  13.869   0.749   2.978  0.3623 -0.9554 -1.0187
67602SOL     OW20415   0.614  12.215  10.952 -0.4442 -0.0361 -0.3252
67602SOL    HW120416   0.697  12.194  10.909 -0.2315 -0.8364  0.4439
67602SOL    HW220417   0.632  12.204  11.045 -1.4001 -0.1844 -0.1496
67603SOL     OW20418   0.227   9.223   2.228  0.3751  0.6138  0.4862
67603SOL    HW120419   0.133   9.216   2.209  0.5925  0.7369 -0.7105
67603SOL    HW220420   0.251   9.311   2.199  1.5157 -0.5373 -2.3957
67604SOL     OW20421   1.520  12.442   9.541 -0.4347  0.3383 -0.4731
67604SOL    HW120422   1.459  12.414   9.609 -0.4887  0.3065 -0.5349
67604SOL    HW220423   1.479  12.519   9.501  0.1435  1.0730  0.3074
67605SOL     OW20424   7.470   7.652  13.929  0.0144 -0.2965  0.6048
67605SOL    HW120425   7.395   7.709  13.915  0.9981  1.6741  2.8127
67605SOL    HW220426   7.435   7.576  13.974 -0.5706  1.1456  2.7078
67606SOL     OW20427   6.289  12.565   4.649  0.3275 -0.7414  0.1157
67606SOL    HW120428   6.367  12.613   4.620 -0.5946  0.6749 -0.1124
67606SOL    HW220429   6.324  12.488   4.693  1.9685  1.0668  2.2372
67607SOL     OW20430   7.956   9.023   0.875  0.4418 -0.2223  0.3434
67607SOL    HW120431   7.910   9.104   0.895 -1.1562 -0.7450 -0.9974
67607SOL    HW220432   7.969   9.026   0.780  1.7678 -0.8310  0.4898
67608SOL     OW20433  11.427  12.178   0.146 -0.1638 -0.0550  0.0300
67608SOL    HW120434  11.332  12.175   0.159 -0.1339 -0.5242  0.1653
67608SOL    HW220435  11.457  12.090   0.171  0.4958  0.5429  1.4941
67609SOL     OW20436   6.515   9.725  12.219  0.1421 -0.2317 -0.0667
67609SOL    HW120437   6.435   9.674  12.233 -1.0098  1.9472  2.0750
67609SOL    HW220438   6.515   9.744  12.125 -2.2590  0.2451 -0.0472
67610SOL     OW20439   2.029  10.784   5.946 -0.4622 -0.1308  0.1654
67610SOL    HW120440   1.964  10.853   5.935  0.3993  0.5724 -0.8041
67610SOL    HW220441   2.110  10.822   5.913  0.4162 -1.0372  1.1781
67611SOL     OW20442   0.056  11.170  10.709 -0.2240  0.3259  0.1661
67611SOL    HW120443   0.082  11.159  10.617  0.9489 -0.0712  0.5278
67611SOL    HW220444   0.009  11.090  10.730  0.7025 -0.2090  0.2827
67612SOL     OW20445   1.718   9.666  11.503  0.3636  0.0827 -0.2425
67612SOL    HW120446   1.739   9.739  11.561 -1.1007  0.9966 -0.7788
67612SOL    HW220447   1.668   9.706  11.432  0.5010 -1.2885 -1.1534
67613SOL     OW20448  12.353   1.274   9.525 -0.9370  0.0428 -0.2361
67613SOL    HW120449  12.442   1.268   9.558 -1.0425  0.3219  0.1081
67613SOL    HW220450  12.307   1.200   9.564 -1.0949  0.4467  0.3592
67614SOL     OW20451  13.747   9.170   6.706  0.4065  0.1564 -0.0190
67614SOL    HW120452  13.769   9.173   6.613  0.0128 -0.7643 -0.1557
67614SOL    HW220453  13.699   9.251   6.722 -0.1937 -0.0292 -0.8030
67615SOL     OW20454   6.187   1.257   7.022  0.5481 -0.1803 -0.5409
67615SOL    HW120455   6.205   1.343   7.058 -2.0737 -0.4315  1.6726
67615SOL    HW220456   6.218   1.196   7.088 -0.8465 -0.7830 -0.4092
67616SOL     OW20457   1.379   3.727  11.365 -0.0563 -0.1986  0.4753
67616SOL    HW120458   1.414   3.816  11.365 -1.7008  0.4807  0.3579
67616SOL    HW220459   1.453   3.672  11.338  1.0263  1.0995  0.6940
67617SOL     OW20460   4.547  10.592  11.264 -0.4164  0.3506 -0.4508
67617SOL    HW120461   4.596  10.515  11.290  0.1458  0.3604 -1.4508
67617SOL    HW220462   4.486  10.561  11.197 -0.2702  0.7492 -0.7744
67618SOL     OW20463  12.801   5.718   9.017 -0.2446 -0.5220 -0.3606
67618SOL    HW120464  12.726   5.704   9.075 -1.0747  3.8002 -0.0448
67618SOL    HW220465  12.875   5.734   9.075 -0.3910  0.7452 -0.4917
67619SOL     OW20466  12.012   9.980   6.221 -0.0762  0.7444  0.0100
67619SOL    HW120467  12.026   9.952   6.130 -1.1206  0.0655  0.0471
67619SOL    HW220468  11.963  10.063   6.212 -0.6978  0.3790 -0.0532
67620SOL     OW20469   2.155   9.232   3.843  0.6757 -0.1559  0.2206
67620SOL    HW120470   2.124   9.251   3.755 -0.8900  3.1661  1.3129
67620SOL    HW220471   2.249   9.222   3.834  0.7777  1.7557 -1.6719
67621SOL     OW20472  10.316   2.687   4.394  0.4327  0.1118  0.1994
67621SOL    HW120473  10.368   2.641   4.460  2.5319  0.6392 -0.9783
67621SOL    HW220474  10.375   2.754   4.360 -1.2578  1.1583 -0.8169
67622SOL     OW20475   3.507   8.490   8.331  0.0751 -0.0802  0.3119
67622SOL    HW120476   3.542   8.560   8.386 -0.6353  1.0590 -0.6468
67622SOL    HW220477   3.459   8.434   8.391 -2.0303  1.9999  0.7153
67623SOL     OW20478  10.812   9.450   7.371  0.5473 -0.3074  0.2710
67623SOL    HW120479  10.768   9.365   7.376  1.4553 -0.7385  1.2300
67623SOL    HW220480  10.754   9.509   7.420 -0.5395 -0.1411 -1.1429
67624SOL     OW20481   7.112   9.808   7.890  0.2032 -0.4206  0.1405
67624SOL    HW120482   7.075   9.752   7.822  2.3826 -1.4974 -0.2392
67624SOL    HW220483   7.056   9.886   7.890  0.4166 -0.1038 -3.3237
67625SOL     OW20484   1.156  14.005   9.962 -0.3281 -0.2977 -0.2166
67625SOL    HW120485   1.202  13.988  10.044  1.1175  0.0810 -0.9038
67625SOL    HW220486   1.226  14.031   9.901 -1.3120 -0.9174 -1.6589
67626SOL     OW20487  11.277   6.685   3.598 -0.1080  0.2931  0.5144
67626SOL    HW120488  11.296   6.738   3.521  0.9600  1.2504  1.4092
67626SOL    HW220489  11.191   6.716   3.628 -2.1713 -2.3143 -2.0827
67627SOL     OW20490   6.534  10.417  12.446  0.1235 -0.2437  0.8401
67627SOL    HW120491   6.573  10.341  12.404  0.3482  0.7786 -0.8968
67627SOL    HW220492   6.595  10.439  12.517  1.2738 -0.3196 -0.0976
67628SOL     OW20493   6.228  10.024   4.034  0.2518 -0.3638  0.6379
67628SOL    HW120494   6.316  10.000   4.004  1.7646  1.1501  3.4496
67628SOL    HW220495   6.211   9.966   4.108 -2.2222 -2.1990 -1.2013
67629SOL     OW20496   0.164   6.406  10.255  0.2722 -0.2388  0.0366
67629SOL    HW120497   0.070   6.386  10.258  0.0738  0.6037 -0.2292
67629SOL    HW220498   0.181   6.456  10.335  0.8522 -1.7722  0.9128
67630SOL     OW20499   3.609   2.712   4.237 -0.0515  0.1969  0.2063
67630SOL    HW120500   3.569   2.788   4.197 -2.4547 -0.7201  0.7226
67630SOL    HW220501   3.625   2.652   4.164 -1.1086 -0.0484  0.1621
67631SOL     OW20502   5.181  13.177   0.891  0.1136  0.2338 -0.6434
67631SOL    HW120503   5.273  13.201   0.877  0.8522 -2.2695 -0.5940
67631SOL    HW220504   5.163  13.201   0.982  1.0703 -0.1792 -0.3311
67632SOL     OW20505  13.721  12.132   1.201  0.2926  0.4525 -0.3478
67632SOL    HW120506  13.627  12.146   1.190 -0.0934 -0.0412  1.9189
67632SOL    HW220507  13.733  12.038   1.190  0.4276  0.4378 -0.0788
67633SOL     OW20508   5.325  11.702   2.945 -0.3415 -0.1314  0.4948
67633SOL    HW120509   5.341  11.652   2.866 -0.7068  0.2076  0.2036
67633SOL    HW220510   5.410  11.707   2.988 -0.2171 -0.6374  0.3199
67634SOL     OW20511   3.633   4.848   7.364 -0.7876 -0.1768 -0.5332
67634SOL    HW120512   3.569   4.873   7.298 -0.6068  0.2379 -0.5546
67634SOL    HW220513   3.670   4.766   7.332 -1.1890 -0.3299 -0.6031
67635SOL     OW20514   3.457   9.606   2.126 -0.5161 -0.2858  0.3956
67635SOL    HW120515   3.465   9.652   2.210 -2.0201  0.7822 -0.0171
67635SOL    HW220516   3.423   9.520   2.150 -2.8168  0.6626  0.7840
67636SOL     OW20517  11.423   7.550   4.097  0.3279 -0.9271  0.1680
67636SOL    HW120518  11.438   7.620   4.161 -2.4593 -0.2063  0.1565
67636SOL    HW220519  11.431   7.594   4.012  1.5701 -1.3447  0.0441
67637SOL     OW20520   2.686   2.437   5.416  0.6344  0.3761 -0.5065
67637SOL    HW120521   2.593   2.447   5.434  0.6435  1.1253 -0.8220
67637SOL    HW220522   2.713   2.523   5.382  1.4564  0.1962 -0.3309
67638SOL     OW20523   0.948   1.933  12.560 -0.4793 -0.2701 -0.0477
67638SOL    HW120524   0.927   1.915  12.651 -1.7753  0.4095 -0.1967
67638SOL    HW220525   0.865   1.924  12.513 -0.0024  0.2364 -1.0301
67639SOL     OW20526  12.566   9.310   8.403 -0.4613  0.2444 -0.2224
67639SOL    HW120527  12.486   9.323   8.454 -0.3264 -0.1186  0.0875
67639SOL    HW220528  12.581   9.216   8.406  1.1061  0.4916  1.4632
67640SOL     OW20529  12.484   6.698   1.675  0.1746 -0.4489 -0.3680
67640SOL    HW120530  12.485   6.793   1.672  1.0701 -0.4595 -0.5891
67640SOL    HW220531  12.456   6.677   1.764  2.8764  0.0559  0.6839
67641SOL     OW20532   4.640   0.857   2.258 -0.5723  0.4385  0.2289
67641SOL    HW120533   4.644   0.945   2.221  0.0859  0.9650  1.4770
67641SOL    HW220534   4.646   0.871   2.353 -0.4662 -0.9475  0.4487
67642SOL     OW20535  10.949   5.396  12.572 -0.3661  0.5800 -0.0479
67642SOL    HW120536  10.881   5.384  12.638 -0.1845  1.2212  0.2669
67642SOL    HW220537  11.025   5.351  12.609 -0.7026 -0.4187 -0.5514
67643SOL     OW20538  13.869   3.370   1.187  0.1665 -0.1269  0.0847
67643SOL    HW120539  13.790   3.418   1.163 -0.6445 -0.5144  1.7730
67643SOL    HW220540  13.896   3.410   1.270  0.0117 -1.9027  1.0396
67644SOL     OW20541  13.664  10.091   8.775 -0.2537 -0.2142 -0.3489
67644SOL    HW120542  13.744  10.061   8.819 -1.5107 -1.8931  0.9121
67644SOL    HW220543  13.650  10.028   8.705 -1.1979 -0.7705  0.3139
67645SOL     OW20544   6.182   6.145  13.804  0.4180 -0.1031 -0.1045
67645SOL    HW120545   6.244   6.214  13.780  0.2065 -0.5898 -2.3177
67645SOL    HW220546   6.127   6.184  13.872  1.2693  1.3491 -0.1990
67646SOL     OW20547  11.582   7.187   0.823 -0.1104  0.1122 -0.3347
67646SOL    HW120548  11.508   7.202   0.882  0.9989  0.1037  1.1023
67646SOL    HW220549  11.605   7.095   0.835  0.4045  0.2197 -0.4519
67647SOL     OW20550   9.722   2.831  12.930 -0.2108  0.3396 -0.1552
67647SOL    HW120551   9.799   2.790  12.891 -1.7653 -2.2198 -0.7908
67647SOL    HW220552   9.749   2.853  13.019  0.8993 -1.6706  0.0542
67648SOL     OW20553   9.381  11.461   5.407  0.1427  0.0123 -0.3261
67648SOL    HW120554   9.342  11.393   5.461  2.9367 -0.7079  0.9720
67648SOL    HW220555   9.370  11.542   5.458  0.6127 -0.2543  0.2142
67649SOL     OW20556   0.424  10.951   8.485 -0.1472  0.1372  0.0623
67649SOL    HW120557   0.385  11.038   8.492 -0.7245 -0.0320 -0.9245
67649SOL    HW220558   0.492  10.960   8.418  1.7088  0.4744  1.8981
67650SOL     OW20559   7.021  13.509   4.116  0.0586  0.9526  0.5881
67650SOL    HW120560   7.021  13.602   4.139  0.1848  0.9646  0.5349
67650SOL    HW220561   7.051  13.464   4.195  0.5171  0.9979  0.4385
67651SOL     OW20562   2.383   0.019   2.742 -0.1702  0.0229 -0.4361
67651SOL    HW120563   2.457  -0.042   2.734 -0.1001  0.2665 -2.1129
67651SOL    HW220564   2.400   0.085   2.674 -0.9358  1.1707  0.4591
67652SOL     OW20565   7.535   8.684   3.357  0.1268 -0.0294  0.1779
67652SOL    HW120566   7.618   8.733   3.350 -0.4120  1.0489  1.0555
67652SOL    HW220567   7.488   8.706   3.277 -0.3554  1.3893  0.8295
67653SOL     OW20568   2.150   1.649   4.211  0.0393 -0.0892  0.2281
67653SOL    HW120569   2.116   1.731   4.175  3.1317  0.5878 -1.4903
67653SOL    HW220570   2.184   1.602   4.135  2.2706 -0.9408  1.6556
67654SOL     OW20571   3.955   2.267   9.326  0.3921  0.0027 -0.3187
67654SOL    HW120572   3.916   2.329   9.264  1.3072  0.0401 -0.8873
67654SOL    HW220573   3.975   2.190   9.273  1.5834  0.1968 -0.1764
67655SOL     OW20574   7.207   9.257   0.054 -0.1174 -0.1031  0.1677
67655SOL    HW120575   7.297   9.238   0.083 -0.0637  0.9140  0.7330
67655SOL    HW220576   7.201   9.353   0.060 -0.0333  0.2606 -3.4306
67656SOL     OW20577   1.903   7.160  13.349  0.1748 -0.2974 -0.0873
67656SOL    HW120578   1.900   7.068  13.377 -0.0503 -0.4649 -0.6541
67656SOL    HW220579   1.988   7.170  13.308 -0.0272 -0.4055 -0.5371
67657SOL     OW20580   9.580   9.400   2.073 -0.4779  0.2956  0.2114
67657SOL    HW120581   9.502   9.347   2.090 -0.1166 -0.5974 -0.8095
67657SOL    HW220582   9.613   9.369   1.989  2.5202 -1.2494  1.7950
67658SOL     OW20583   4.822   3.975   9.423  0.5673 -0.2565 -0.7984
67658SOL    HW120584   4.814   3.897   9.478 -0.2559 -0.5544 -1.3226
67658SOL    HW220585   4.732   3.995   9.397  1.0862 -1.4971 -3.9324
67659SOL     OW20586   2.636   0.924   4.737  0.5962 -0.7190  0.4738
67659SOL    HW120587   2.703   0.883   4.792  1.0534 -0.4058  0.1611
67659SOL    HW220588   2.642   1.018   4.758  0.1091 -0.7122  0.5951
67660SOL     OW20589  11.290   0.788  10.714  0.2341 -0.1916  0.2299
67660SOL    HW120590  11.248   0.824  10.636  0.9605  0.8043  0.2810
67660SOL    HW220591  11.372   0.750  10.682  0.7731  0.6697  0.5760
67661SOL     OW20592  11.299  13.170   4.321  0.0992  0.1180 -0.6918
67661SOL    HW120593  11.323  13.149   4.411 -0.3578 -0.3408 -0.6744
67661SOL    HW220594  11.219  13.120   4.305 -2.1758  3.2343 -0.0061
67662SOL     OW20595  11.807   6.721   2.838 -0.1102 -0.5989  0.6141
67662SOL    HW120596  11.817   6.726   2.743  0.3359  1.3902  0.7236
67662SOL    HW220597  11.893   6.692   2.870  1.0727  2.5024  0.5976
67663SOL     OW20598   2.561   1.594   4.423  0.7624  0.3538 -0.3889
67663SOL    HW120599   2.623   1.622   4.490 -0.0893 -0.3461  0.7167
67663SOL    HW220600   2.497   1.666   4.418  0.6313  0.2527 -0.1895
67664SOL     OW20601   4.500   7.275   0.121  0.5698  0.2090  0.4812
67664SOL    HW120602   4.503   7.289   0.026  1.8678  1.1783  0.6307
67664SOL    HW220603   4.431   7.333   0.152 -0.6767 -0.9929  0.0140
67665SOL     OW20604  12.078  13.440   9.969  0.1742 -0.0199 -0.4420
67665SOL    HW120605  12.164  13.399   9.967 -0.7463 -2.1957  1.0410
67665SOL    HW220606  12.088  13.513  10.030  0.5041 -1.5891  1.4711
67666SOL     OW20607   5.942   1.199   7.725  0.3583  0.4226  0.4324
67666SOL    HW120608   5.916   1.257   7.654  0.5334  0.0083  0.0197
67666SOL    HW220609   6.007   1.249   7.776  0.0228  0.8226  0.4653
67667SOL     OW20610  13.452   1.288   0.639  0.2851  0.4324 -0.3659
67667SOL    HW120611  13.475   1.239   0.718 -0.7168  0.5940  0.0478
67667SOL    HW220612  13.384   1.235   0.597  0.4995  0.5674 -0.8854
67668SOL     OW20613   0.821   4.765   4.959  0.4047  0.7468  0.6999
67668SOL    HW120614   0.873   4.768   5.039 -1.6776  0.0386  2.1834
67668SOL    HW220615   0.805   4.671   4.944 -1.8919  0.9556  1.3894
67669SOL     OW20616   4.999   3.961  10.734  0.0559 -0.0965  0.0071
67669SOL    HW120617   4.927   4.019  10.759 -1.2013 -1.5536 -0.0471
67669SOL    HW220618   5.078   4.007  10.760 -1.0032 -0.0637  3.7306
67670SOL     OW20619   9.594  13.154  11.634  0.0813  0.4203  0.1289
67670SOL    HW120620   9.606  13.205  11.553  1.3088  1.7706  1.1082
67670SOL    HW220621   9.525  13.201  11.681  0.9739  1.0099  0.8781
67671SOL     OW20622   5.624  10.770   0.269  0.2821 -0.4061 -0.1590
67671SOL    HW120623   5.544  10.810   0.234  0.1541  1.4661  2.0757
67671SOL    HW220624   5.694  10.805   0.214 -0.0942  0.9006  0.1545
67672SOL     OW20625   1.630   3.824   1.189  0.2142  0.3708 -0.4079
67672SOL    HW120626   1.642   3.867   1.104 -0.7431  2.3790  0.3999
67672SOL    HW220627   1.660   3.889   1.253  1.4619 -1.3161  0.8130
67673SOL     OW20628  12.878  12.682   6.758  0.1824  0.0905  0.1720
67673SOL    HW120629  12.849  12.740   6.828  0.2203  0.0079  0.2571
67673SOL    HW220630  12.896  12.740   6.684  1.6800  0.3738  0.7132
67674SOL     OW20631  10.530  13.162   4.937 -0.1789  0.6643  0.3205
67674SOL    HW120632  10.613  13.144   4.893 -0.3968  1.0137 -0.2544
67674SOL    HW220633  10.466  13.166   4.865 -0.8750 -0.6412  0.8494
67675SOL     OW20634   8.512   6.669  13.497 -0.6712 -0.0102 -0.4646
67675SOL    HW120635   8.504   6.752  13.449  1.4142  0.2959 -0.4061
67675SOL    HW220636   8.509   6.695  13.590 -1.3705 -0.1859 -0.4330
67676SOL     OW20637   3.503   8.611   4.427  0.3423 -0.4082  0.0897
67676SOL    HW120638   3.571   8.653   4.375 -1.1418  1.5030 -0.4260
67676SOL    HW220639   3.516   8.517   4.412  1.8528 -0.0254 -1.2672
67677SOL     OW20640   5.247   7.060   3.148  0.2217  0.3026  0.3104
67677SOL    HW120641   5.210   6.998   3.084  0.5758 -0.9517  1.2678
67677SOL    HW220642   5.207   7.034   3.231  2.0802 -0.1003  1.1184
67678SOL     OW20643   7.332  10.453   4.546 -0.4754 -0.3156  0.0347
67678SOL    HW120644   7.382  10.530   4.521  1.6914 -1.5416  0.2873
67678SOL    HW220645   7.328  10.456   4.641  0.7738 -1.1393  0.1363
67679SOL     OW20646   3.467   1.436  12.454  0.2538 -0.3342  0.4275
67679SOL    HW120647   3.425   1.500  12.397  0.8818 -0.9584 -0.7772
67679SOL    HW220648   3.558   1.432  12.424 -0.0825 -2.8275 -0.5522
67680SOL     OW20649   4.082   5.080   0.016  0.2527 -0.5027 -0.3491
67680SOL    HW120650   4.130   5.114  -0.059  0.0008  0.0262 -0.2805
67680SOL    HW220651   4.122   4.995   0.035 -0.6964 -1.3726 -2.0447
67681SOL     OW20652   9.862  11.754   8.655 -0.1089 -0.1494  0.5916
67681SOL    HW120653   9.877  11.766   8.561  2.0353 -0.6462  0.8236
67681SOL    HW220654   9.766  11.749   8.663 -0.3374 -0.5778 -1.6219
67682SOL     OW20655  11.170   1.194   9.771 -0.1068  0.2084  0.8750
67682SOL    HW120656  11.097   1.234   9.723  0.4781  1.1547  0.7288
67682SOL    HW220657  11.228   1.160   9.703 -0.0552  0.1149  0.9651
67683SOL     OW20658  12.408   8.752   8.518  0.5832 -0.0989 -0.0990
67683SOL    HW120659  12.484   8.698   8.495  0.4451 -0.4779  0.3004
67683SOL    HW220660  12.426   8.837   8.479  0.6068 -0.5550 -1.0982
67684SOL     OW20661  13.584   4.421   9.173 -0.5396  0.5847  0.3938
67684SOL    HW120662  13.647   4.372   9.226 -0.9958  0.5164  0.8790
67684SOL    HW220663  13.638   4.482   9.122  0.0148 -0.2265 -0.0217
67685SOL     OW20664   3.451   5.063   5.736  0.1390  0.0914 -0.0114
67685SOL    HW120665   3.375   5.006   5.722  0.1113 -0.1179  0.9495
67685SOL    HW220666   3.494   5.027   5.813  0.1222  1.3645  0.6177
67686SOL     OW20667  11.327  11.959   7.369  0.1980 -0.2772  0.4582
67686SOL    HW120668  11.409  11.919   7.341 -0.8346 -1.6079 -0.8180
67686SOL    HW220669  11.285  11.892   7.423 -1.2497 -0.7545 -1.1564
67687SOL     OW20670   7.913   8.790  13.951 -0.0660 -0.0934  0.0470
67687SOL    HW120671   7.962   8.850  14.008 -0.4252  0.2884 -0.0414
67687SOL    HW220672   7.938   8.703  13.982  1.6217  0.0469 -0.7885
67688SOL     OW20673   8.134   4.084   5.769  0.0432 -0.3493 -0.2497
67688SOL    HW120674   8.173   4.026   5.835  0.5011  1.2393  0.9479
67688SOL    HW220675   8.044   4.053   5.761  0.4784 -1.7170 -0.2603
67689SOL     OW20676   2.713  11.600  12.647  0.1555  0.5281  0.0158
67689SOL    HW120677   2.668  11.633  12.569  1.6485  0.8132 -0.7550
67689SOL    HW220678   2.666  11.640  12.720 -1.3626  0.1357 -0.7109
67690SOL     OW20679   9.918   1.870   5.464 -0.4362  0.0946  0.5895
67690SOL    HW120680  10.009   1.887   5.488 -0.8336  2.3815  0.7504
67690SOL    HW220681   9.866   1.907   5.535 -1.5098  0.4389 -0.3332
67691SOL     OW20682  11.887   9.623   2.294  0.5695 -0.0329 -0.3327
67691SOL    HW120683  11.914   9.704   2.337  3.0350 -0.8327 -0.1859
67691SOL    HW220684  11.801   9.603   2.332  0.7984  1.4690  1.0829
67692SOL     OW20685   6.045  10.121   0.197 -0.4198 -0.0247  0.4725
67692SOL    HW120686   6.042  10.134   0.292  4.6031  1.4289  0.7064
67692SOL    HW220687   6.096  10.041   0.185 -0.5573  0.0843 -1.0466
67693SOL     OW20688  11.172   3.050   0.725 -0.1210 -0.0224  0.3339
67693SOL    HW120689  11.225   3.068   0.647  0.3199  2.8708  1.1878
67693SOL    HW220690  11.138   3.135   0.751 -2.1915 -1.2694  1.9830
67694SOL     OW20691   1.960   0.285   0.757 -0.0598  0.0050  0.1625
67694SOL    HW120692   1.987   0.376   0.769  1.8409 -0.6049  0.7922
67694SOL    HW220693   1.987   0.241   0.838 -1.4896 -1.0201  0.1236
67695SOL     OW20694   7.119   1.858   4.297  0.2904 -0.1276 -0.5953
67695SOL    HW120695   7.089   1.924   4.359  0.3078 -0.8010  0.1512
67695SOL    HW220696   7.178   1.803   4.348 -1.2072 -1.8710 -0.6454
67696SOL     OW20697   4.945   0.003   8.260  0.2979 -0.5524 -0.2446
67696SOL    HW120698   4.857  -0.033   8.269 -0.8533  2.0767  0.1406
67696SOL    HW220699   4.984  -0.006   8.347 -1.1436  1.7225  0.7450
67697SOL     OW20700   2.269   8.912  11.208  0.2059  0.7760 -0.0689
67697SOL    HW120701   2.258   8.892  11.301 -0.2635  1.4055  0.0207
67697SOL    HW220702   2.285   8.828  11.166  0.3217  0.4784  0.5691
67698SOL     OW20703   3.209   2.082   9.446  0.3445  0.3537  0.2660
67698SOL    HW120704   3.166   2.051   9.526 -0.6624 -0.4969 -0.5738
67698SOL    HW220705   3.297   2.045   9.450  0.2588  0.2068  0.9135
67699SOL     OW20706   8.183  11.388   8.628  0.2682 -0.1323  0.6204
67699SOL    HW120707   8.264  11.438   8.632  0.1007  0.1732  0.2816
67699SOL    HW220708   8.187  11.329   8.703  0.3101  0.6177  1.2051
67700SOL     OW20709   9.269  10.144   5.833 -0.0324 -0.0671  0.1916
67700SOL    HW120710   9.297  10.220   5.884  0.6864 -0.8729  1.0375
67700SOL    HW220711   9.331  10.141   5.759  0.2106 -0.0727  0.3930
67701SOL     OW20712   6.485   4.589  11.677 -0.4821 -0.2485  0.2157
67701SOL    HW120713   6.549   4.562  11.742  0.2707 -0.6617 -0.6716
67701SOL    HW220714   6.405   4.608  11.727  0.3340  0.2918  1.3316
67702SOL     OW20715   2.848  13.581   3.257 -0.3871  0.6912 -0.0025
67702SOL    HW120716   2.894  13.613   3.335  1.3749 -2.2725  0.3582
67702SOL    HW220717   2.916  13.580   3.189 -0.8176 -0.5174 -0.4370
67703SOL     OW20718  10.247   9.886   3.366  0.2484 -0.0296  0.4288
67703SOL    HW120719  10.284   9.812   3.412 -0.5142  0.7337  2.3647
67703SOL    HW220720  10.319   9.948   3.357  0.5799 -0.4785 -0.1118
67704SOL     OW20721  13.258  12.804   0.373  0.2937  0.7591 -0.5701
67704SOL    HW120722  13.177  12.761   0.345  0.5217 -1.0997  1.2928
67704SOL    HW220723  13.295  12.841   0.293 -0.2370 -2.1208 -2.3102
67705SOL     OW20724   3.125   7.080  12.417 -0.7363 -0.1785 -0.0756
67705SOL    HW120725   3.056   7.015  12.430 -1.1362  0.2734  0.0739
67705SOL    HW220726   3.137   7.084  12.322  0.2371 -1.4438 -0.0316
67706SOL     OW20727  11.269   1.520   8.012 -0.4171 -0.4047  0.0542
67706SOL    HW120728  11.352   1.513   7.964 -0.6029  0.5970 -0.4474
67706SOL    HW220729  11.278   1.459   8.085  0.7107 -0.4124 -0.0754
67707SOL     OW20730   5.581   6.664   1.464  0.0740  0.3211  0.4113
67707SOL    HW120731   5.604   6.742   1.414  2.0946  0.4077  1.4119
67707SOL    HW220732   5.559   6.696   1.551 -0.5123 -0.1174  0.4379
67708SOL     OW20733   7.986  13.766  13.562 -0.8702 -0.1447 -0.5824
67708SOL    HW120734   8.067  13.802  13.526 -0.1323 -0.7451  0.3989
67708SOL    HW220735   7.963  13.694  13.505 -0.6612 -0.0271 -0.8130
67709SOL     OW20736  12.206   1.889   4.773  0.8815 -0.2230 -0.2311
67709SOL    HW120737  12.203   1.808   4.721 -0.8419 -0.3504  0.0251
67709SOL    HW220738  12.251   1.952   4.716 -4.2920  0.8619 -3.8474
67710SOL     OW20739   6.244   4.252  13.411 -0.0381 -0.0196 -0.5699
67710SOL    HW120740   6.166   4.272  13.359 -1.1138  0.8416  1.2729
67710SOL    HW220741   6.316   4.293  13.362 -1.2715  2.4633 -0.4665
67711SOL     OW20742   9.866   0.906   9.619  0.3564  0.3987  0.4163
67711SOL    HW120743   9.955   0.900   9.653  0.2498  1.0685  0.8343
67711SOL    HW220744   9.875   0.890   9.525  0.8553  0.0306  0.5231
67712SOL     OW20745   2.980   9.316   2.786 -0.4346  0.3463  1.0809
67712SOL    HW120746   2.893   9.328   2.749  0.7583  1.2293 -1.6885
67712SOL    HW220747   2.972   9.349   2.876 -3.2691 -1.0575  1.4583
67713SOL     OW20748   7.537   4.491  11.159 -0.3176  0.6621 -0.5371
67713SOL    HW120749   7.457   4.518  11.114 -0.4211 -1.4389 -1.7586
67713SOL    HW220750   7.510   4.476  11.250 -1.3933 -0.2140 -0.9718
67714SOL     OW20751   6.628   5.999   1.858  0.3962 -0.0846 -0.1424
67714SOL    HW120752   6.661   5.953   1.935 -1.1072 -0.4557  0.2937
67714SOL    HW220753   6.595   6.082   1.891 -0.6922 -0.4422 -0.3048
67715SOL     OW20754   7.254   6.932   2.979 -0.4015  0.6665  0.0158
67715SOL    HW120755   7.200   6.856   2.962  0.4116  0.1707 -0.4226
67715SOL    HW220756   7.195   6.995   3.021 -1.9063  0.9967 -2.3720
67716SOL     OW20757   9.573   1.284  11.022  0.4774  0.1467 -0.7072
67716SOL    HW120758   9.579   1.190  11.005 -1.2419  0.1485 -1.6297
67716SOL    HW220759   9.614   1.324  10.946  2.5392  0.1869  0.3670
67717SOL     OW20760  12.208   8.248   9.672 -0.1044 -0.0099 -0.8206
67717SOL    HW120761  12.275   8.212   9.615  0.4666 -1.2507  0.5572
67717SOL    HW220762  12.125   8.226   9.629  0.3245 -0.5896 -1.3703
67718SOL     OW20763   3.038   4.663   8.852 -0.7834 -0.3639  0.4295
67718SOL    HW120764   3.047   4.577   8.811  1.6580 -0.1109  0.2432
67718SOL    HW220765   3.078   4.652   8.938  0.3465  0.7544  0.0805
67719SOL     OW20766   1.630  14.042   5.551  0.1293 -0.1606  0.3440
67719SOL    HW120767   1.606  14.064   5.462  1.3953  0.0102  0.0227
67719SOL    HW220768   1.642  13.947   5.551  1.7062  0.0204 -0.0910
67720SOL     OW20769   1.267   9.132   7.706  0.4828 -0.6426  0.1489
67720SOL    HW120770   1.272   9.085   7.623 -0.1343  2.1990 -1.6093
67720SOL    HW220771   1.173   9.142   7.723  0.5262  1.5615 -0.5855
67721SOL     OW20772  10.403   2.480  13.391  0.0745  0.1881  0.4656
67721SOL    HW120773  10.471   2.422  13.355 -0.3079  2.3569 -4.5381
67721SOL    HW220774  10.360   2.517  13.314 -4.3438  1.8831  3.3685
67722SOL     OW20775  12.540   8.834   4.550 -0.6269  0.4350 -0.2058
67722SOL    HW120776  12.608   8.776   4.584 -0.2178  0.2204 -1.3545
67722SOL    HW220777  12.460   8.781   4.551 -0.0794 -0.4875 -2.1071
67723SOL     OW20778   2.281  12.038  10.363  0.2354  0.2640  0.0406
67723SOL    HW120779   2.322  12.115  10.322 -1.9438  0.1335 -2.7312
67723SOL    HW220780   2.220  12.074  10.428  0.5175  0.7798  0.0202
67724SOL     OW20781  10.460   3.024   2.378  0.4116 -0.2728  0.0694
67724SOL    HW120782  10.403   2.997   2.449  0.4078 -0.7196 -0.1030
67724SOL    HW220783  10.451   3.120   2.376 -1.2824 -0.4043 -0.7282
67725SOL     OW20784   3.155   2.130   8.392 -0.2845  0.2649 -0.2688
67725SOL    HW120785   3.116   2.190   8.328  1.2035 -0.8847 -2.3512
67725SOL    HW220786   3.229   2.179   8.429 -2.2580  1.6706  2.1791
67726SOL     OW20787   4.934   2.654   5.361 -0.1134 -0.1117 -0.1020
67726SOL    HW120788   4.886   2.730   5.393 -1.6909 -1.3546  0.6650
67726SOL    HW220789   5.000   2.637   5.428 -0.8872 -0.4047  0.6119
67727SOL     OW20790   0.764  13.474   3.363  0.2177  0.2913  0.3067
67727SOL    HW120791   0.859  13.481   3.368  0.0889  2.1893  0.6477
67727SOL    HW220792   0.744  13.488   3.270  0.3154 -1.2059  0.0350
67728SOL     OW20793   1.483  12.451   3.400  0.2594  0.1370  0.1274
67728SOL    HW120794   1.454  12.393   3.471  0.7507 -0.8573 -0.4627
67728SOL    HW220795   1.534  12.394   3.342  1.8975  1.4328  0.2149
67729SOL     OW20796   2.168  10.870  10.572  0.3201 -0.1894 -0.7399
67729SOL    HW120797   2.138  10.807  10.637 -0.5108 -0.3143 -1.2367
67729SOL    HW220798   2.177  10.820  10.492  2.1822 -0.2244 -0.5524
67730SOL     OW20799   6.431  10.110   5.688 -0.0255  0.1101  0.0650
67730SOL    HW120800   6.477  10.152   5.760  1.5938  0.6448 -1.2030
67730SOL    HW220801   6.439  10.016   5.705  1.8049  0.1785 -0.2216
67731SOL     OW20802   0.671   9.006   2.302  0.1221 -0.0711  0.7512
67731SOL    HW120803   0.613   8.933   2.325  0.8808 -0.8510  0.2636
67731SOL    HW220804   0.737   9.007   2.371  0.0080  0.2777  0.8551
67732SOL     OW20805  11.061  10.486   1.863 -0.0639 -0.1526  0.0247
67732SOL    HW120806  11.099  10.479   1.775 -0.2386  0.9540 -0.1529
67732SOL    HW220807  11.135  10.472   1.922  0.1212 -0.5526 -0.2932
67733SOL     OW20808   0.344   1.007  11.118 -0.2101 -0.0261  0.1402
67733SOL    HW120809   0.350   0.942  11.187 -2.6001 -0.1501  0.3033
67733SOL    HW220810   0.318   1.088  11.162  0.3803  0.4635 -0.3694
67734SOL     OW20811   1.011   1.501   0.532  0.2832  0.0164  0.3155
67734SOL    HW120812   1.105   1.486   0.540 -0.0581 -1.5158  2.0686
67734SOL    HW220813   0.981   1.516   0.621 -1.0757  1.1154 -0.2797
67735SOL     OW20814   2.533  10.402  12.251  0.2246  0.3752 -0.4793
67735SOL    HW120815   2.505  10.478  12.300  0.9399  0.2444  0.1570
67735SOL    HW220816   2.458  10.378  12.197 -1.3470 -0.7085  2.0396
67736SOL     OW20817   3.528   7.716   2.469  0.3770 -0.1777 -0.4990
67736SOL    HW120818   3.477   7.674   2.539 -0.5266 -0.8649 -1.5364
67736SOL    HW220819   3.591   7.771   2.515  1.4290 -2.4182  0.9405
67737SOL     OW20820  11.296   8.651   6.653 -0.2236  0.0738  0.1617
67737SOL    HW120821  11.363   8.649   6.585  0.4930 -0.4742  0.8573
67737SOL    HW220822  11.263   8.561   6.657 -0.1791  0.0740  0.6063
67738SOL     OW20823   3.812   6.755  11.656  0.2270 -0.2338 -0.2626
67738SOL    HW120824   3.833   6.671  11.616 -1.6967 -1.1383  0.5480
67738SOL    HW220825   3.755   6.734  11.730  1.1122  1.6494  1.0400
67739SOL     OW20826   0.885   5.009  13.127 -0.3157  0.1584 -0.2657
67739SOL    HW120827   0.895   4.941  13.194  0.2018  0.5896  0.0948
67739SOL    HW220828   0.933   5.084  13.161 -3.3289  1.7884  0.7634
67740SOL     OW20829   9.063  12.593   2.905  0.1526 -0.2491 -0.1619
67740SOL    HW120830   9.053  12.669   2.963 -0.4962 -1.7879  1.8417
67740SOL    HW220831   8.998  12.531   2.935  1.9135 -2.3637 -0.4789
67741SOL     OW20832   6.778   9.369  13.074  0.2827  0.4909 -0.4086
67741SOL    HW120833   6.862   9.323  13.073  0.3497  0.3494  2.4858
67741SOL    HW220834   6.712   9.300  13.064  0.4616  0.0569  1.1287
67742SOL     OW20835   8.487  10.897   6.935  0.1644  0.2288  0.1343
67742SOL    HW120836   8.414  10.899   6.996 -0.0802  0.9110 -0.1713
67742SOL    HW220837   8.561  10.933   6.983  0.3875 -0.7376  0.5404
67743SOL     OW20838  11.024   1.358   4.313 -0.6085 -0.0446 -0.6934
67743SOL    HW120839  10.991   1.400   4.233  0.8368  3.8240  0.4698
67743SOL    HW220840  10.981   1.406   4.384  1.1168 -0.6144  0.8124
67744SOL     OW20841   0.900  12.501   2.584  0.2526  0.2806 -0.2400
67744SOL    HW120842   0.966  12.550   2.634 -0.2917  1.1488 -0.3447
67744SOL    HW220843   0.931  12.411   2.585  1.9516  0.8077 -1.0992
67745SOL     OW20844  13.372  11.473  11.584  0.5027  0.0508  0.0635
67745SOL    HW120845  13.464  11.488  11.560 -0.1052  1.3601 -1.6861
67745SOL    HW220846  13.357  11.531  11.659  0.6652  1.2003 -0.7693
67746SOL     OW20847   5.113   3.857   6.932  0.3620 -0.1089  0.2356
67746SOL    HW120848   5.166   3.777   6.933 -0.0233 -0.3834  2.3074
67746SOL    HW220849   5.023   3.827   6.945 -0.1879  0.4626 -1.9045
67747SOL     OW20850   6.387   4.155   7.158 -0.6183  0.2714 -0.1209
67747SOL    HW120851   6.292   4.147   7.171 -0.9383  3.7554  0.6303
67747SOL    HW220852   6.396   4.182   7.067 -0.3015 -0.4057 -0.2937
67748SOL     OW20853   3.272   3.481   0.171  0.2355 -0.1283  0.2741
67748SOL    HW120854   3.347   3.506   0.118 -0.1326 -1.8875 -1.1767
67748SOL    HW220855   3.306   3.415   0.232  0.3620  0.9023  1.3666
67749SOL     OW20856  10.834   4.675  10.281 -0.1311  0.0823  0.5131
67749SOL    HW120857  10.804   4.674  10.372 -1.6383  1.5605  0.0746
67749SOL    HW220858  10.754   4.678  10.229  0.7065  2.0290 -0.7831
67750SOL     OW20859   5.327   4.707  11.718 -0.1146 -0.0401 -0.1638
67750SOL    HW120860   5.257   4.769  11.738 -0.6200 -1.1066  1.4853
67750SOL    HW220861   5.288   4.648  11.654 -0.0862  0.4759 -0.6714
67751SOL     OW20862   8.481   6.483  12.904  0.0288 -0.2290 -0.0503
67751SOL    HW120863   8.525   6.477  12.989 -0.9713 -1.5370  0.4138
67751SOL    HW220864   8.508   6.568  12.868  1.2245 -0.0810  1.1390
67752SOL     OW20865   0.890   3.595  13.595  0.4255  0.1191  0.4011
67752SOL    HW120866   0.817   3.588  13.534  2.4131  0.0078 -2.1603
67752SOL    HW220867   0.905   3.505  13.625 -0.3620  0.1204  0.8069
67753SOL     OW20868  13.435  13.217  12.234  0.2762  0.1101  0.4900
67753SOL    HW120869  13.489  13.142  12.210 -0.4319 -0.0545 -0.7166
67753SOL    HW220870  13.384  13.235  12.155  0.3771  1.8218  0.7839
67754SOL     OW20871   7.437   1.627  10.765  0.2863  0.1389 -0.1722
67754SOL    HW120872   7.360   1.646  10.818  0.7487  1.9702 -0.0950
67754SOL    HW220873   7.418   1.667  10.680  1.0986  0.5198 -0.1867
67755SOL     OW20874   9.722   7.042   3.479 -0.2712  0.1646 -0.0383
67755SOL    HW120875   9.709   7.036   3.384 -1.3492 -0.8766  0.1582
67755SOL    HW220876   9.816   7.027   3.490 -0.0612  0.6809 -0.9577
67756SOL     OW20877   7.345   1.630   5.151  0.5088  0.2115 -0.0173
67756SOL    HW120878   7.389   1.674   5.078 -0.5246  1.9757  0.3538
67756SOL    HW220879   7.415   1.614   5.215  1.1703 -0.0809 -0.7941
67757SOL     OW20880   4.858  13.514   5.579 -0.2328  0.0767 -0.3723
67757SOL    HW120881   4.864  13.496   5.673  0.2544 -0.6066 -0.5188
67757SOL    HW220882   4.946  13.543   5.555  0.0458 -1.1174 -0.8671
67758SOL     OW20883   8.173  12.086  11.251  0.5764 -0.6896  0.0241
67758SOL    HW120884   8.260  12.115  11.223 -0.3000  0.0130 -2.1529
67758SOL    HW220885   8.124  12.167  11.266 -0.1225 -1.0542 -0.2195
67759SOL     OW20886   8.877   4.000   3.944 -0.1187  0.0412 -0.2901
67759SOL    HW120887   8.869   3.914   3.903 -0.1464  0.5062 -1.2911
67759SOL    HW220888   8.954   3.993   4.000 -0.1011 -0.6149 -0.3872
67760SOL     OW20889  12.697   5.798   3.235 -0.2224 -0.1100 -0.3442
67760SOL    HW120890  12.681   5.862   3.166 -1.6188 -0.5998 -0.5069
67760SOL    HW220891  12.688   5.713   3.191 -2.1103 -0.4525  0.6029
67761SOL     OW20892   0.578  11.488   7.103  0.5088  0.0341 -0.2059
67761SOL    HW120893   0.549  11.542   7.029  1.0066  1.1750  0.4197
67761SOL    HW220894   0.528  11.407   7.093  0.0348  0.4396 -1.3881
67762SOL     OW20895   7.385   2.036  12.496 -0.0971  0.2752  0.0977
67762SOL    HW120896   7.474   2.000  12.502 -0.4313 -0.7440 -0.6253
67762SOL    HW220897   7.361   2.026  12.404 -2.0056 -2.1972  0.7313
67763SOL     OW20898  13.230   8.664   7.866  0.2891 -0.4043  0.2722
67763SOL    HW120899  13.184   8.622   7.794 -1.5734  3.2305 -0.8822
67763SOL    HW220900  13.165   8.721   7.907  2.9097  2.6916  0.5417
67764SOL     OW20901   7.521   9.641   4.342 -0.1482 -0.3890 -0.3149
67764SOL    HW120902   7.582   9.568   4.353 -0.3971 -0.6100 -0.4006
67764SOL    HW220903   7.436   9.605   4.364 -0.3204 -0.2119 -0.6882
67765SOL     OW20904   4.699   2.484   7.080 -0.1551  0.6222 -0.0617
67765SOL    HW120905   4.623   2.510   7.132 -0.7623  0.1293 -0.6713
67765SOL    HW220906   4.764   2.455   7.144 -0.1035  1.9949  0.5240
67766SOL     OW20907  13.213   7.860   6.531  0.0720  0.1864  0.8086
67766SOL    HW120908  13.260   7.791   6.578 -0.9363 -1.2496 -0.2151
67766SOL    HW220909  13.178   7.817   6.454 -1.4053  1.6364  0.6157
67767SOL     OW20910   2.088   8.252  13.435  0.6026 -0.3431  0.1070
67767SOL    HW120911   2.124   8.201  13.363  1.8815  1.0217 -0.2674
67767SOL    HW220912   2.152   8.241  13.506  0.6194  0.2749  0.1977
67768SOL     OW20913  12.465   9.135   0.669  0.5717  0.5072 -0.4022
67768SOL    HW120914  12.549   9.182   0.673  0.2082  1.1215  0.2954
67768SOL    HW220915  12.490   9.042   0.666  1.2657  0.6493  0.6077
67769SOL     OW20916   2.478  11.767   2.009  0.0856  0.3176 -0.6176
67769SOL    HW120917   2.560  11.811   1.988 -0.5002  0.7997 -2.0354
67769SOL    HW220918   2.490  11.734   2.098  1.5308  1.0148 -0.5309
67770SOL     OW20919  11.571   8.879   4.614 -0.1201  0.3247  0.0737
67770SOL    HW120920  11.484   8.871   4.654 -0.6260  0.3423 -0.9707
67770SOL    HW220921  11.564   8.958   4.560 -0.0039 -0.5691 -1.3080
67771SOL     OW20922   3.800   5.212   3.981  0.2451  0.4207  0.0874
67771SOL    HW120923   3.885   5.195   3.939  0.7170 -1.2096  1.5877
67771SOL    HW220924   3.740   5.226   3.908  1.6165  0.7519 -1.0391
67772SOL     OW20925   8.818  12.991   8.775 -0.1722 -0.0414  0.0385
67772SOL    HW120926   8.868  12.910   8.780 -1.2048 -0.7198 -0.2372
67772SOL    HW220927   8.735  12.971   8.819 -1.5326 -0.0245 -2.3403
67773SOL     OW20928  13.439   0.125   2.385  0.2321  0.0301  0.2450
67773SOL    HW120929  13.517   0.070   2.391  0.4980  0.5282  2.0803
67773SOL    HW220930  13.410   0.135   2.476 -1.5064  0.5218 -0.3248
67774SOL     OW20931  13.664   7.694   1.996  0.0549  0.1003 -0.1594
67774SOL    HW120932  13.631   7.659   1.913  2.5793 -0.9820 -0.7995
67774SOL    HW220933  13.735   7.634   2.021 -0.4745  0.5219  2.6931
67775SOL     OW20934   5.152   5.370  12.962 -0.7660  0.0142 -0.6865
67775SOL    HW120935   5.113   5.335  13.042 -1.1010 -0.6609 -1.1341
67775SOL    HW220936   5.140   5.301  12.897  0.1600  0.2518 -1.1341
67776SOL     OW20937  13.879   4.069   2.994  0.0566  0.0967 -0.3068
67776SOL    HW120938  13.811   4.137   2.991  0.0967  0.1137 -1.1598
67776SOL    HW220939  13.928   4.088   3.074  0.2720  1.2886 -0.6973
67777SOL     OW20940   7.450  12.858   4.236 -0.1451 -0.0353  0.2847
67777SOL    HW120941   7.427  12.947   4.264  1.7582  0.5636  0.1354
67777SOL    HW220942   7.407  12.847   4.151 -1.2832  0.3227  0.8059
67778SOL     OW20943   9.893   5.160  11.768  0.7025  0.1487 -0.0601
67778SOL    HW120944   9.821   5.101  11.746  0.2812 -0.5491  2.8339
67778SOL    HW220945   9.970   5.119  11.729 -0.0552 -0.5958 -0.8111
67779SOL     OW20946   2.132   8.346   4.132 -0.0303  0.0565  0.5596
67779SOL    HW120947   2.185   8.321   4.056 -0.7195 -0.7334  0.3279
67779SOL    HW220948   2.044   8.314   4.112 -0.4958  0.9231  1.1586
67780SOL     OW20949   6.522   6.568   4.588  0.1578  0.2404 -0.2065
67780SOL    HW120950   6.571   6.606   4.660  2.9050 -1.4053 -1.0450
67780SOL    HW220951   6.573   6.590   4.510 -0.5000 -1.3885 -1.1562
67781SOL     OW20952  10.006  12.303   3.793 -0.4032 -0.5084  0.0849
67781SOL    HW120953   9.968  12.365   3.855 -0.9511 -0.1857 -0.5561
67781SOL    HW220954  10.057  12.357   3.733  2.3124 -1.0526  1.7426
67782SOL     OW20955  10.007  13.034   4.583 -0.1144  0.0888 -0.0879
67782SOL    HW120956  10.031  13.108   4.639 -1.2673  2.4706 -2.4804
67782SOL    HW220957   9.920  13.008   4.613  0.7111 -1.0673  1.4238
67783SOL     OW20958   4.112   3.116   8.324 -0.1692 -0.0959 -0.1347
67783SOL    HW120959   4.153   3.085   8.243 -3.3323  0.0394 -1.9884
67783SOL    HW220960   4.112   3.041   8.382 -1.2955 -1.4748 -1.8197
67784SOL     OW20961  13.733  13.435   4.213 -0.1442  0.2327  0.7357
67784SOL    HW120962  13.814  13.417   4.261 -1.6356  0.6158  3.5844
67784SOL    HW220963  13.681  13.356   4.222 -0.0571 -0.1222 -1.3423
67785SOL     OW20964   5.199   0.794  11.730 -0.2476 -0.2575  0.0575
67785SOL    HW120965   5.245   0.770  11.649 -0.9239 -0.8566 -0.1681
67785SOL    HW220966   5.212   0.718  11.787 -0.5424 -0.2239  0.1680
67786SOL     OW20967   3.461   3.011   5.318  0.4721 -0.1633 -0.0703
67786SOL    HW120968   3.451   3.015   5.223  2.3846  1.1053 -0.2579
67786SOL    HW220969   3.475   2.918   5.336 -2.7913 -0.8903 -0.6205
67787SOL     OW20970   3.722   8.892   1.366  0.3667  0.1868 -0.0560
67787SOL    HW120971   3.773   8.936   1.435  0.5594 -0.3738  0.1661
67787SOL    HW220972   3.651   8.953   1.347  0.0239  0.1397  0.9968
67788SOL     OW20973   0.079  11.247   8.221  0.5405  0.2623 -0.2067
67788SOL    HW120974   0.027  11.210   8.150 -1.5913  1.7085  0.5234
67788SOL    HW220975   0.024  11.238   8.299  2.1996  0.1006  1.0077
67789SOL     OW20976   9.691  12.742   4.408 -0.1700 -0.0027 -0.2714
67789SOL    HW120977   9.611  12.793   4.399  0.0717  0.3008 -0.7711
67789SOL    HW220978   9.712  12.714   4.318 -0.0587 -0.6050 -0.0608
67790SOL     OW20979  13.875   9.215   6.446  0.6213  0.4060  0.1060
67790SOL    HW120980  13.962   9.183   6.424  0.8746  1.9531 -1.3540
67790SOL    HW220981  13.815   9.153   6.403  1.0919  1.2571 -1.9174
67791SOL     OW20982   3.899   7.977   2.995 -0.3555  0.3749  0.1715
67791SOL    HW120983   3.991   8.003   2.986 -0.7326  2.3288  1.3849
67791SOL    HW220984   3.897   7.886   2.966  2.5638 -0.7731  2.9481
67792SOL     OW20985  12.617   7.267   6.141 -0.0812 -0.1725  0.4226
67792SOL    HW120986  12.695   7.230   6.182 -1.0971 -1.8802  0.9047
67792SOL    HW220987  12.601   7.211   6.065 -0.8138  0.1783  0.3051
67793SOL     OW20988  12.606  12.290   7.565  0.5317 -0.0147 -0.3718
67793SOL    HW120989  12.684  12.305   7.511  1.1733  0.8899  0.7760
67793SOL    HW220990  12.592  12.373   7.612  0.2987 -0.9318  1.2450
67794SOL     OW20991   5.615   6.525   7.045  1.0088  0.2700  0.2655
67794SOL    HW120992   5.558   6.557   6.975  1.1090  3.1308  1.3555
67794SOL    HW220993   5.691   6.489   6.999  1.5870  3.0633 -1.1770
67795SOL     OW20994   7.855  12.758   9.074 -0.0582 -0.4247 -0.5137
67795SOL    HW120995   7.779  12.770   9.131  0.1002 -2.0624  0.0904
67795SOL    HW220996   7.844  12.824   9.006 -1.8903 -0.4392 -0.2831
67796SOL     OW20997   3.888   9.883   7.359 -0.1660  0.4772  0.3622
67796SOL    HW120998   3.970   9.833   7.359 -0.5043 -0.1281 -1.2092
67796SOL    HW220999   3.904   9.955   7.298 -1.2373 -0.4565 -1.0824
67797SOL     OW21000  12.067   7.257   5.324  0.0864 -0.2198 -0.5297
67797SOL    HW121001  12.015   7.273   5.403  1.2928  1.1635  0.0154
67797SOL    HW221002  12.015   7.193   5.275 -1.2458 -0.2554  0.8301
67798SOL     OW21003   3.236  11.524   3.851  0.2161  0.2570  0.2459
67798SOL    HW121004   3.256  11.446   3.904 -0.2607 -1.0655 -1.4497
67798SOL    HW221005   3.317  11.575   3.851  0.8739 -0.7706  0.5063
67799SOL     OW21006   9.382   4.910   0.209 -0.1102 -0.1679 -0.1950
67799SOL    HW121007   9.297   4.917   0.166  0.1653 -1.4715 -1.0021
67799SOL    HW221008   9.362   4.912   0.303 -1.0511 -0.7175 -0.3795
67800SOL     OW21009   4.573   8.568   2.438 -0.4180  0.0267  0.1857
67800SOL    HW121010   4.552   8.660   2.454  0.3348  0.1205  0.6892
67800SOL    HW221011   4.636   8.545   2.507  0.4799 -0.4681 -0.7587
67801SOL     OW21012  12.064  13.991  11.248  0.2514 -0.1437  1.2793
67801SOL    HW121013  12.110  14.005  11.165  0.2226 -3.4025  0.6029
67801SOL    HW221014  12.047  13.897  11.252 -0.9046  0.0505  4.4193
67802SOL     OW21015   8.167   2.737  13.521  0.2580 -0.1901 -0.2616
67802SOL    HW121016   8.146   2.726  13.614  1.3126 -0.1870 -0.0088
67802SOL    HW221017   8.161   2.831  13.506 -1.6247 -0.3233 -0.6487
67803SOL     OW21018   4.639   6.088   2.314  0.4677  0.1159  0.1548
67803SOL    HW121019   4.629   6.035   2.393  0.7663  0.0763  0.1651
67803SOL    HW221020   4.636   6.025   2.242  3.4279 -0.2722  0.2596
67804SOL     OW21021   9.314   8.475   2.438 -0.0365  0.6488  0.0571
67804SOL    HW121022   9.256   8.522   2.498  0.1459  0.6421  0.2413
67804SOL    HW221023   9.279   8.495   2.351  0.9329  2.4172  0.0110
67805SOL     OW21024   0.424   8.355   6.360  0.3152 -0.3940  0.6633
67805SOL    HW121025   0.419   8.449   6.346  0.7595 -0.6455 -1.6892
67805SOL    HW221026   0.483   8.344   6.435  0.3298  1.1835  0.9069
67806SOL     OW21027  13.263   6.387   0.976 -0.0514  0.3112 -0.1635
67806SOL    HW121028  13.201   6.382   1.048 -1.7605  0.8305 -1.5332
67806SOL    HW221029  13.343   6.345   1.009 -2.3281 -4.1084  0.3871
67807SOL     OW21030  13.470  10.806  10.285  0.4423 -0.9155 -0.4157
67807SOL    HW121031  13.457  10.761  10.202  1.5283  1.2598 -1.8432
67807SOL    HW221032  13.554  10.773  10.317  1.0074 -0.2630 -1.2141
67808SOL     OW21033   7.836   8.288   2.380  0.4165  0.3618 -0.2752
67808SOL    HW121034   7.899   8.217   2.390  0.0815 -0.0222 -0.8274
67808SOL    HW221035   7.825   8.297   2.285 -2.8996 -1.8931 -0.2654
67809SOL     OW21036   2.954  13.425  12.674 -0.3642  0.4717 -0.3785
67809SOL    HW121037   3.008  13.372  12.615  0.0695 -0.4505  0.7996
67809SOL    HW221038   3.000  13.509  12.679 -0.4870  0.6179 -1.4465
67810SOL     OW21039   9.313   1.763   0.834  0.4383 -0.1348 -0.4002
67810SOL    HW121040   9.259   1.828   0.878  2.3978  0.1455  1.7913
67810SOL    HW221041   9.348   1.810   0.758  0.4835  0.8752  0.2104
67811SOL     OW21042   0.269  11.865   7.779  0.1977  0.5008  1.3780
67811SOL    HW121043   0.264  11.834   7.869 -0.6630  0.7348  1.4163
67811SOL    HW221044   0.241  11.790   7.726 -1.4123  1.0251  1.4431
67812SOL     OW21045   9.015   5.927  11.762 -0.6763 -0.0045 -0.1574
67812SOL    HW121046   8.982   5.841  11.788 -0.2742  0.0628  0.6028
67812SOL    HW221047   8.939   5.984  11.765 -0.6250  0.0381  1.0908
67813SOL     OW21048  11.354  11.483   8.176 -0.5363 -0.2083  0.4811
67813SOL    HW121049  11.437  11.528   8.196 -0.8357  0.5929 -0.0284
67813SOL    HW221050  11.339  11.425   8.251  0.9141 -1.0009  0.1985
67814SOL     OW21051   4.642   9.991   5.225  0.3216  0.1427 -0.5016
67814SOL    HW121052   4.555  10.025   5.249 -0.6495 -0.5824 -2.7385
67814SOL    HW221053   4.703  10.048   5.272 -1.3456  1.0912  0.6343
67815SOL     OW21054   2.880   1.059   2.253  0.7307  0.1820  0.1490
67815SOL    HW121055   2.889   1.094   2.165  1.1359  0.8671  0.4520
67815SOL    HW221056   2.938   0.982   2.255 -1.8271 -1.9180 -1.1949
67816SOL     OW21057   2.233   4.259   9.313 -0.1531  0.0998 -0.5595
67816SOL    HW121058   2.151   4.248   9.265  0.0193 -2.9215 -0.3623
67816SOL    HW221059   2.205   4.273   9.404 -0.4205  2.7856 -0.9751
67817SOL     OW21060   0.138   0.389  11.348 -0.1364 -0.2533 -0.2660
67817SOL    HW121061   0.196   0.449  11.396 -0.1176 -0.5213  0.0451
67817SOL    HW221062   0.050   0.410  11.379 -0.3741  1.0866 -1.7165
67818SOL     OW21063  13.516   5.904   8.269  0.5885  0.4628  0.5580
67818SOL    HW121064  13.446   5.919   8.206  1.2971  0.1990 -0.3184
67818SOL    HW221065  13.474   5.859   8.342 -0.2311  0.6948  0.2383
67819SOL     OW21066  13.262   4.778   8.639 -0.1417  0.2178 -0.6367
67819SOL    HW121067  13.298   4.730   8.713  1.6400 -1.2863 -2.3594
67819SOL    HW221068  13.171   4.797   8.664  1.0751  2.3279  3.0457
67820SOL     OW21069   0.833   3.063  13.093 -0.6328 -0.5082  0.7084
67820SOL    HW121070   0.897   3.131  13.072  0.3207 -0.9709  2.0006
67820SOL    HW221071   0.748   3.107  13.085 -0.2675 -0.0913 -1.8180
67821SOL     OW21072  12.310  13.464   5.447  0.5567  0.3824 -0.1970
67821SOL    HW121073  12.276  13.493   5.362 -0.6513  0.4391  0.2909
67821SOL    HW221074  12.393  13.422   5.426  0.8946  1.5107 -1.2688
67822SOL     OW21075   5.287  11.680   8.395  0.6606  0.0268  0.6346
67822SOL    HW121076   5.197  11.670   8.363 -0.0524  2.1293  1.7816
67822SOL    HW221077   5.315  11.591   8.415 -0.2717 -0.9518 -1.9683
67823SOL     OW21078  12.603  12.399   4.363 -0.4414  0.3607  0.2036
67823SOL    HW121079  12.627  12.474   4.417  1.7949  1.2504 -1.8454
67823SOL    HW221080  12.663  12.402   4.289  0.3810 -3.9498  0.3855
67824SOL     OW21081   9.043  12.364   3.959 -0.7387 -0.1914  0.3079
67824SOL    HW121082   9.103  12.437   3.942 -0.7040  0.1884  1.9270
67824SOL    HW221083   9.100  12.291   3.983 -0.8741 -0.1357  0.8007
67825SOL     OW21084  12.560   3.197   2.829 -0.2055  0.1820 -0.3365
67825SOL    HW121085  12.502   3.239   2.893 -1.7592 -1.3968 -0.6165
67825SOL    HW221086  12.551   3.250   2.750 -2.9203 -1.0585 -1.0000
67826SOL     OW21087   0.976   0.290   8.938 -0.6845  0.2171  0.5884
67826SOL    HW121088   1.038   0.269   8.868  0.5998  0.5640  1.5743
67826SOL    HW221089   0.920   0.358   8.901 -1.8531 -1.5346 -1.0246
67827SOL     OW21090  12.994   8.932   4.572 -0.2599  0.2105  0.4711
67827SOL    HW121091  12.900   8.915   4.579 -0.5924  1.6710 -0.1306
67827SOL    HW221092  13.010   9.001   4.636 -0.2444  2.2347 -1.5890
67828SOL     OW21093   8.563   8.553  10.361 -0.8079  0.8723 -0.3828
67828SOL    HW121094   8.557   8.464  10.326 -1.7718  0.8259 -0.1282
67828SOL    HW221095   8.604   8.603  10.291  0.1735  0.1454 -0.3554
67829SOL     OW21096   4.266  11.462  11.933  0.2266  0.3695 -0.4036
67829SOL    HW121097   4.285  11.531  11.869 -1.3195  2.1119  0.9245
67829SOL    HW221098   4.331  11.474  12.002 -0.8529  1.4188  0.4707
67830SOL     OW21099  11.387   1.331  10.116  0.5811  0.0264 -0.3976
67830SOL    HW121100  11.467   1.290  10.148  0.9621  1.5457  0.7214
67830SOL    HW221101  11.320   1.264  10.124  1.4041 -0.7483  0.2066
67831SOL     OW21102   3.487  12.124  12.401 -0.5648 -0.2043  0.3802
67831SOL    HW121103   3.577  12.141  12.429 -0.4952 -0.3692  0.2564
67831SOL    HW221104   3.436  12.124  12.482 -0.4171 -0.3378  0.4732
67832SOL     OW21105   0.754  11.756   7.253  0.0083 -0.1606  0.3518
67832SOL    HW121106   0.843  11.741   7.284 -0.3153  0.2922  1.5707
67832SOL    HW221107   0.761  11.832   7.195  0.4430 -0.2349  0.3052
67833SOL     OW21108   2.781   2.966  10.998 -0.4234  0.6504 -0.2183
67833SOL    HW121109   2.690   2.941  10.982 -0.7033  1.7319 -0.4235
67833SOL    HW221110   2.816   2.898  11.056 -1.3315  0.1819 -0.2129
67834SOL     OW21111  13.513  10.507   3.556 -0.3920  0.2969  0.6092
67834SOL    HW121112  13.547  10.585   3.511 -0.2858 -0.2222 -0.2367
67834SOL    HW221113  13.577  10.490   3.625  1.7731 -1.2809 -1.5999
67835SOL     OW21114   7.759   9.198   7.734  0.2012  0.1981  0.1149
67835SOL    HW121115   7.823   9.129   7.753  0.2646  0.0482 -0.6036
67835SOL    HW221116   7.769   9.215   7.640  0.8362  1.8531  0.4523
67836SOL     OW21117   3.901   5.464   3.832 -0.5439 -0.4841  0.3939
67836SOL    HW121118   3.961   5.539   3.831  0.7223 -1.4672  0.2417
67836SOL    HW221119   3.916   5.423   3.917  0.9671 -2.2535 -0.6676
67837SOL     OW21120  12.793  10.577  12.548  0.0036 -0.3584  0.2141
67837SOL    HW121121  12.772  10.484  12.549  0.3154 -0.6990 -4.1532
67837SOL    HW221122  12.886  10.580  12.523 -0.0878  1.0860 -0.0626
67838SOL     OW21123   9.054   4.038  13.430 -0.9042 -0.3563  0.1018
67838SOL    HW121124   9.110   4.031  13.353  0.1193 -0.3306  0.8131
67838SOL    HW221125   9.113   4.071  13.499 -1.7663 -0.4676  0.9130
67839SOL     OW21126   2.806   0.550  13.258 -0.3222 -0.2162  0.2510
67839SOL    HW121127   2.854   0.506  13.328 -0.2155  0.5455  0.6617
67839SOL    HW221128   2.763   0.479  13.211  0.9654 -0.9044  0.0480
67840SOL     OW21129  12.748   7.774   3.247 -0.5936 -0.3075  0.1500
67840SOL    HW121130  12.759   7.818   3.163  1.3155 -1.5696 -0.3338
67840SOL    HW221131  12.721   7.843   3.307 -0.2721  0.9858 -1.1265
67841SOL     OW21132  11.504   2.788  10.050  0.5064  0.4027  0.2606
67841SOL    HW121133  11.470   2.709  10.008 -0.4689  0.7551  0.3616
67841SOL    HW221134  11.479   2.779  10.142  0.2318  0.9086  0.2383
67842SOL     OW21135  12.863   2.899   1.081 -0.5665  0.2150 -0.4724
67842SOL    HW121136  12.908   2.891   0.997  0.3277 -0.7613  0.0760
67842SOL    HW221137  12.771   2.911   1.057 -0.5957 -1.7614 -1.6216
67843SOL     OW21138   9.601   9.891   9.259 -0.3807 -0.0555 -0.2615
67843SOL    HW121139   9.576   9.886   9.351  0.5035  3.0429  0.2491
67843SOL    HW221140   9.627   9.982   9.246 -1.0506 -0.2455 -3.7563
67844SOL     OW21141  10.182  13.240  11.402 -0.4780 -0.3647 -0.8423
67844SOL    HW121142  10.089  13.221  11.415 -0.6165  0.1172 -1.1036
67844SOL    HW221143  10.209  13.180  11.332 -0.4796 -0.8152 -0.4585
67845SOL     OW21144   4.435   0.183   3.355 -0.2951  0.2266 -0.9243
67845SOL    HW121145   4.491   0.245   3.402  0.1086  0.7778 -2.0927
67845SOL    HW221146   4.358   0.233   3.331 -1.3653 -0.5401  0.7038
67846SOL     OW21147   8.998   7.510  11.011  0.3856 -0.2715 -0.1175
67846SOL    HW121148   8.942   7.522  10.934 -1.2326  0.4750  1.1014
67846SOL    HW221149   9.015   7.599  11.042 -0.2005 -0.5830  1.1790
67847SOL     OW21150  12.753  12.666   5.674 -0.0249  0.5884  0.6360
67847SOL    HW121151  12.669  12.624   5.656  1.5180 -2.1067 -0.9627
67847SOL    HW221152  12.788  12.617   5.749  0.9240  0.3586  0.0565
67848SOL     OW21153  12.889   2.287  13.558  0.2103  0.1233 -0.5258
67848SOL    HW121154  12.922   2.362  13.606  0.1242 -0.5209  0.5658
67848SOL    HW221155  12.796   2.303  13.547 -0.4588 -1.1887  2.4098
67849SOL     OW21156   6.921   2.488   0.344  0.4128 -0.2864  0.1027
67849SOL    HW121157   6.860   2.415   0.353  0.1061 -0.0077  0.2887
67849SOL    HW221158   6.886   2.541   0.272  1.0042 -0.6773 -0.4934
67850SOL     OW21159   0.505   2.487   4.143  0.1645  0.0305  0.1909
67850SOL    HW121160   0.458   2.569   4.126 -0.3353 -0.0877  0.9658
67850SOL    HW221161   0.546   2.500   4.228  1.7854  0.2326 -0.5908
67851SOL     OW21162  11.921   4.735  11.647 -0.0470 -0.0901 -0.0315
67851SOL    HW121163  11.945   4.755  11.738 -0.1162  0.5800 -0.1540
67851SOL    HW221164  11.974   4.659  11.625 -0.7642 -0.8865  0.8919
67852SOL     OW21165  14.049   9.212   3.385  0.0147  0.0367  0.2892
67852SOL    HW121166  14.060   9.171   3.299  2.6100  1.8787 -0.3993
67852SOL    HW221167  13.961   9.250   3.383  1.4105  3.8225 -3.4819
67853SOL     OW21168   1.112   4.218  13.056  0.2105 -0.0357 -0.2789
67853SOL    HW121169   1.204   4.190  13.055  0.7360  1.3801  1.9838
67853SOL    HW221170   1.072   4.165  13.124 -0.9500 -1.2839 -1.8565
67854SOL     OW21171  13.217   9.024   8.696 -0.5397 -0.2746  0.1184
67854SOL    HW121172  13.277   9.085   8.739 -1.4747  1.2668 -0.6358
67854SOL    HW221173  13.140   9.022   8.753 -0.7285 -0.2998 -0.1339
67855SOL     OW21174  11.292  10.082   8.644  0.2478 -0.1993  0.3040
67855SOL    HW121175  11.264  10.123   8.562  1.0542 -0.8886 -0.3402
67855SOL    HW221176  11.380  10.115   8.659  0.5949 -1.0430  0.2042
67856SOL     OW21177   4.765  10.860  13.873 -0.4810  0.0590 -0.3536
67856SOL    HW121178   4.805  10.937  13.914 -2.9042  0.8990  0.6380
67856SOL    HW221179   4.807  10.855  13.787 -0.1681  2.4539 -0.4209
67857SOL     OW21180   2.777   0.846   2.384 -0.0481  0.1551 -0.4981
67857SOL    HW121181   2.788   0.940   2.371 -0.2670  0.1152 -1.0267
67857SOL    HW221182   2.848   0.821   2.443 -1.3294  1.0341  1.5003
67858SOL     OW21183   4.668   8.776   4.100  0.2110  0.0439 -0.2553
67858SOL    HW121184   4.585   8.735   4.077 -0.1580  0.6419 -0.0152
67858SOL    HW221185   4.658   8.802   4.191  0.2502  1.0962 -0.5326
67859SOL     OW21186   3.449  12.414   0.744 -0.4902  0.3649 -0.6419
67859SOL    HW121187   3.515  12.369   0.691  1.8935  1.0902  1.4823
67859SOL    HW221188   3.398  12.343   0.783 -0.8792 -0.2307 -2.1847
67860SOL     OW21189   3.954  11.407  13.861 -0.0206  0.7017 -0.0702
67860SOL    HW121190   3.905  11.342  13.911  1.8110 -0.2392  0.6096
67860SOL    HW221191   3.992  11.464  13.928  0.9031  0.5880 -0.4845
67861SOL     OW21192  10.680   0.383   6.577  0.6004 -0.4148  0.1190
67861SOL    HW121193  10.719   0.303   6.541  0.8292  0.1120 -0.8456
67861SOL    HW221194  10.622   0.415   6.507  0.6454  0.3539  0.4252
67862SOL     OW21195   2.884   7.386   7.504  0.3589  0.1656 -0.2308
67862SOL    HW121196   2.858   7.447   7.572 -0.0479  1.3165 -1.3762
67862SOL    HW221197   2.822   7.402   7.432  0.9552 -0.7924 -0.9884
67863SOL     OW21198  12.396   3.338   4.189 -0.3470 -0.0585  0.7961
67863SOL    HW121199  12.462   3.281   4.229  0.6191  1.3405  1.2368
67863SOL    HW221200  12.382   3.300   4.102  2.7054  0.8370 -0.2195
67864SOL     OW21201   7.269  11.999   6.498 -0.3436 -0.0619  0.6360
67864SOL    HW121202   7.248  11.915   6.457  1.2909 -0.7279  1.0623
67864SOL    HW221203   7.349  11.981   6.549  0.5160  1.9365  0.0855
67865SOL     OW21204   0.404   2.965   6.560  0.1323 -0.0991  0.4956
67865SOL    HW121205   0.394   3.030   6.490  1.4168  1.0083  1.2897
67865SOL    HW221206   0.494   2.933   6.550  0.1779 -0.2657  1.3541
67866SOL     OW21207   2.746   0.287   2.389 -0.0655  0.0298 -0.7189
67866SOL    HW121208   2.760   0.343   2.312 -0.0985  0.0981 -0.6753
67866SOL    HW221209   2.688   0.338   2.445 -1.1131 -0.5643 -1.2367
67867SOL     OW21210   3.543  10.349   1.451 -0.2953  0.7849 -0.3691
67867SOL    HW121211   3.554  10.313   1.539 -0.2748 -0.5689 -0.9020
67867SOL    HW221212   3.545  10.273   1.394 -0.0827  1.6700 -1.5727
67868SOL     OW21213   6.622  13.960  11.814  0.3999  0.4797 -0.2357
67868SOL    HW121214   6.666  13.889  11.767 -0.7026  1.0340 -2.2106
67868SOL    HW221215   6.583  13.917  11.890  1.1691 -0.7074 -0.4874
67869SOL     OW21216   6.885   9.161   5.439  0.1126  0.2080  0.7369
67869SOL    HW121217   6.855   9.149   5.349  0.6595 -0.3109  0.6158
67869SOL    HW221218   6.963   9.216   5.432 -0.4495  1.0571  0.9964
67870SOL     OW21219   4.173   0.041   9.057 -0.3353 -0.1781  0.1765
67870SOL    HW121220   4.187  -0.040   9.007 -1.2077 -0.4173  0.2934
67870SOL    HW221221   4.188   0.016   9.148 -0.8255 -0.2738  0.2357
67871SOL     OW21222   8.634   6.032  12.419  0.5857 -0.4363  0.1368
67871SOL    HW121223   8.658   6.041  12.327 -0.3035  0.2971 -0.0433
67871SOL    HW221224   8.542   6.005  12.417  1.2435 -3.0157  0.8016
67872SOL     OW21225   2.720  14.087  10.292  0.3164 -0.2575  0.3436
67872SOL    HW121226   2.632  14.103  10.257  0.1709 -0.7507  0.4778
67872SOL    HW221227   2.775  14.152  10.249 -0.3562  1.0148  1.3166
67873SOL     OW21228   4.660   8.065   1.961 -0.1441 -0.0367 -0.0714
67873SOL    HW121229   4.602   8.126   2.007 -1.0161 -0.3558 -0.7172
67873SOL    HW221230   4.748   8.096   1.981 -0.5264  0.4543  0.9403
67874SOL     OW21231  11.528   2.686   8.150  0.4000 -0.8234 -0.0867
67874SOL    HW121232  11.535   2.595   8.122  2.3964 -0.4083 -1.0988
67874SOL    HW221233  11.597   2.732   8.102 -2.4397  1.8581 -1.9821
67875SOL     OW21234   0.314  10.558   6.703  0.3213 -0.1301 -0.0017
67875SOL    HW121235   0.377  10.631   6.706 -1.3371  1.4360 -1.2609
67875SOL    HW221236   0.365  10.485   6.669  1.3697  1.2270 -1.5068
67876SOL     OW21237   9.561   3.840   9.838 -0.5355  0.6496  0.1333
67876SOL    HW121238   9.546   3.773   9.905 -0.5001  1.3613  0.8646
67876SOL    HW221239   9.490   3.828   9.776 -1.5681  1.0811  1.1973
67877SOL     OW21240   7.801   6.192   5.075  0.5617  0.0054  0.7396
67877SOL    HW121241   7.891   6.182   5.104  0.4570  0.9376  1.4052
67877SOL    HW221242   7.752   6.126   5.126  0.8094 -0.2723  0.6209
67878SOL     OW21243   6.172  13.956  12.120  0.7492 -0.5673 -0.2900
67878SOL    HW121244   6.201  14.043  12.095 -0.7179 -0.7493 -3.1883
67878SOL    HW221245   6.129  13.967  12.204 -0.9061  1.9163 -1.3608
67879SOL     OW21246  12.610   1.277   9.604 -0.0353 -0.4228 -0.3956
67879SOL    HW121247  12.690   1.225   9.615 -0.5905 -0.8375  2.4849
67879SOL    HW221248  12.637   1.366   9.626 -0.4572 -0.7039  1.4692
67880SOL     OW21249  11.808  10.431  10.604 -0.3482  0.4501  0.2430
67880SOL    HW121250  11.787  10.445  10.697  1.0633  0.9335  0.5048
67880SOL    HW221251  11.893  10.388  10.605 -0.6453 -0.2067 -0.8325
67881SOL     OW21252   6.447   2.496  12.487 -0.2727 -0.1331 -0.3551
67881SOL    HW121253   6.501   2.490  12.566 -0.4077  0.5787 -0.1940
67881SOL    HW221254   6.467   2.583  12.452  0.3516 -0.7390 -1.5320
67882SOL     OW21255   7.519   9.761   1.390  0.5869 -0.1967 -0.4322
67882SOL    HW121256   7.459   9.704   1.342  0.2552 -1.0741  0.9624
67882SOL    HW221257   7.591   9.777   1.329 -0.3002 -0.4307 -1.5668
67883SOL     OW21258   5.943   3.589   0.374  0.0834  0.2358  0.3444
67883SOL    HW121259   5.990   3.667   0.345  2.6275 -1.6325 -1.0241
67883SOL    HW221260   5.992   3.559   0.451 -0.5461 -0.2879  0.5491
67884SOL     OW21261   3.216  11.511   2.469  0.1000 -0.3705  0.0886
67884SOL    HW121262   3.210  11.535   2.377 -2.5285 -0.8518  0.0460
67884SOL    HW221263   3.163  11.432   2.477  2.6643 -2.0908  1.5437
67885SOL     OW21264   8.746   5.295   1.108 -0.1211 -0.2176  0.2813
67885SOL    HW121265   8.826   5.291   1.161 -0.2603 -1.8280  0.4300
67885SOL    HW221266   8.683   5.240   1.155  0.0349 -2.4869 -1.9049
67886SOL     OW21267   6.282   5.571  12.536  0.5050  0.4320  0.3890
67886SOL    HW121268   6.194   5.561  12.501  1.3899 -0.2025 -1.8343
67886SOL    HW221269   6.269   5.599  12.627 -1.9569  1.2921 -0.1523
67887SOL     OW21270   4.652  10.466  13.404 -0.0787 -0.5783  0.4874
67887SOL    HW121271   4.742  10.492  13.422  0.3135 -0.7562 -1.0711
67887SOL    HW221272   4.659  10.399  13.336 -1.3570 -0.9541  0.6941
67888SOL     OW21273   5.135   7.495   2.149  0.1856  0.8439  0.4796
67888SOL    HW121274   5.215   7.462   2.108  0.9015 -0.1680  2.5597
67888SOL    HW221275   5.118   7.578   2.105  1.0101 -0.0442 -1.6632
67889SOL     OW21276   5.412  12.926   8.617  0.0586 -0.2129  0.2191
67889SOL    HW121277   5.403  12.945   8.710 -0.4297 -1.8370  0.5376
67889SOL    HW221278   5.506  12.909   8.606  0.3944  1.5763  0.0519
67890SOL     OW21279   4.141  10.669   5.784  0.0075 -0.6228 -0.3048
67890SOL    HW121280   4.073  10.718   5.739  0.2740 -1.6427 -1.8775
67890SOL    HW221281   4.223  10.700   5.746  0.5885  1.3060  2.2530
67891SOL     OW21282   6.974  13.060   6.335 -0.3212 -0.1080  0.2371
67891SOL    HW121283   6.970  13.127   6.267  1.3765  2.1704  2.1827
67891SOL    HW221284   7.047  13.004   6.310 -0.5693 -0.1121 -0.4810
67892SOL     OW21285  13.922   9.605   9.030  1.0560 -0.0690  0.6124
67892SOL    HW121286  13.908   9.644   9.116 -0.1119 -0.7082  0.7439
67892SOL    HW221287  13.928   9.511   9.047 -0.5889 -0.3468 -0.1137
67893SOL     OW21288  11.641  13.994  12.412  0.2926  0.4678  0.0333
67893SOL    HW121289  11.562  13.949  12.381 -0.3998  0.5459  1.5598
67893SOL    HW221290  11.699  13.996  12.337 -1.2506  0.5939 -1.2162
67894SOL     OW21291  13.564   2.775   3.008  0.4666  0.3002  0.2676
67894SOL    HW121292  13.536   2.763   3.098 -0.0796 -0.2722  0.0326
67894SOL    HW221293  13.512   2.712   2.958  1.9600 -0.6185 -0.2282
67895SOL     OW21294   3.314   3.122   6.112 -0.2356 -0.5614 -0.6137
67895SOL    HW121295   3.257   3.134   6.036 -0.2112  0.8565 -0.4324
67895SOL    HW221296   3.285   3.189   6.175 -0.2628 -1.7050  0.6400
67896SOL     OW21297  10.907   0.059   4.917 -0.3774  1.0867 -0.2175
67896SOL    HW121298  10.855   0.098   4.987 -0.3449  0.8912 -0.0846
67896SOL    HW221299  10.845   0.004   4.870  0.0128 -0.2656  0.7945
67897SOL     OW21300   5.734   0.041   6.758 -0.3081 -0.2339 -0.2932
67897SOL    HW121301   5.727   0.070   6.849 -3.1149 -1.2304 -0.0813
67897SOL    HW221302   5.745  -0.054   6.764 -0.6683 -0.3248 -0.9857
67898SOL     OW21303  11.611   4.283  11.975 -0.2289 -0.0573  0.6330
67898SOL    HW121304  11.529   4.255  11.934  0.3216 -0.5929 -0.1222
67898SOL    HW221305  11.585   4.351  12.037 -1.1091  0.5471 -0.3816
67899SOL     OW21306   8.110   0.578   4.014 -0.7261 -0.0552 -0.1588
67899SOL    HW121307   8.051   0.521   4.063 -1.1749 -0.5277 -1.2038
67899SOL    HW221308   8.132   0.527   3.935 -0.7246  1.0056 -0.8607
67900SOL     OW21309   8.589   2.578   1.015 -0.0042 -0.3517 -0.0722
67900SOL    HW121310   8.678   2.548   0.996 -0.3085 -0.1036 -2.0874
67900SOL    HW221311   8.559   2.520   1.086  0.7977 -2.2703 -1.2320
67901SOL     OW21312   5.040   1.041  13.408  0.3445  0.5894 -0.0663
67901SOL    HW121313   5.020   0.969  13.348  1.4395  0.1288  0.0781
67901SOL    HW221314   5.075   0.997  13.486 -0.0505  1.2303  0.4797
67902SOL     OW21315  13.228  12.081   6.783 -0.1433 -0.1410  0.1221
67902SOL    HW121316  13.139  12.100   6.754  0.1186  1.4453  0.2807
67902SOL    HW221317  13.222  12.074   6.878 -0.1346 -0.1840  0.1189
67903SOL     OW21318   9.997   1.224   2.821 -0.0209  0.1461  0.2179
67903SOL    HW121319  10.036   1.221   2.908  1.5352 -1.3090 -0.4793
67903SOL    HW221320   9.910   1.261   2.835 -0.2171 -1.0109  2.5367
67904SOL     OW21321   5.586   1.513   2.211  0.4765  0.0489 -0.6287
67904SOL    HW121322   5.601   1.477   2.124 -2.5785 -1.5923 -0.6285
67904SOL    HW221323   5.653   1.581   2.222  2.4795 -1.3552 -3.2208
67905SOL     OW21324  10.530   3.025   5.487  0.1100 -0.0475 -0.6509
67905SOL    HW121325  10.548   3.093   5.422  0.0019  1.5781  0.9822
67905SOL    HW221326  10.436   3.029   5.501  0.3574  0.8962  0.9394
67906SOL     OW21327   5.436  10.879  10.767  0.1980 -0.1133 -0.0503
67906SOL    HW121328   5.430  10.798  10.818 -0.7392 -1.2444 -1.8482
67906SOL    HW221329   5.502  10.860  10.700  0.4404  0.8552 -0.0949
67907SOL     OW21330  12.057   1.924   0.362  0.2853  0.9766 -0.1580
67907SOL    HW121331  12.144   1.913   0.400  0.4007 -2.7818 -1.0431
67907SOL    HW221332  12.001   1.943   0.437  1.8770  4.7041  0.2878
67908SOL     OW21333   3.723   3.058   9.184  0.4894 -0.2334  0.6711
67908SOL    HW121334   3.753   3.042   9.095  1.8780 -0.7974  1.2001
67908SOL    HW221335   3.699   2.971   9.217 -1.6933  0.1811  0.3207
67909SOL     OW21336  11.794   9.621   7.515  0.4457  0.5250 -0.4079
67909SOL    HW121337  11.845   9.541   7.531  0.7519  0.2610 -2.4309
67909SOL    HW221338  11.801   9.635   7.420 -0.1976  2.5635 -0.1941
67910SOL     OW21339   5.868  10.077   0.769  0.1472 -0.1425  0.1675
67910SOL    HW121340   5.940  10.058   0.828 -0.3534  1.3168  1.3006
67910SOL    HW221341   5.792  10.090   0.826 -0.7087 -0.2414 -0.8964
67911SOL     OW21342   6.390   7.406  12.052 -0.0309  0.2676 -0.0588
67911SOL    HW121343   6.373   7.453  11.970 -1.8624  0.8708  0.5971
67911SOL    HW221344   6.482   7.382  12.048  0.4780  2.2177 -1.3131
67912SOL     OW21345  11.897   9.919   7.238 -0.1148 -0.1313 -0.4752
67912SOL    HW121346  11.811   9.951   7.210 -0.5551 -0.0445  0.8940
67912SOL    HW221347  11.947   9.999   7.254 -0.9175 -0.0597  2.0503
67913SOL     OW21348   1.816   0.080  13.002 -0.4339  0.6166  0.1050
67913SOL    HW121349   1.872   0.073  12.924 -1.2329  0.5817 -0.4869
67913SOL    HW221350   1.832   0.168  13.035  1.4312 -0.0518  1.1115
67914SOL     OW21351   1.564  13.705  14.001  0.7445 -0.0971  0.3538
67914SOL    HW121352   1.482  13.675  13.961  1.9153 -0.1648 -2.1914
67914SOL    HW221353   1.583  13.640  14.069  0.4197 -2.0811 -1.3697
67915SOL     OW21354   6.444  12.298   2.574  0.3895 -0.3922 -0.3999
67915SOL    HW121355   6.500  12.370   2.545  0.3667 -0.2542 -0.1061
67915SOL    HW221356   6.357  12.319   2.539 -0.1881  0.9882  1.6653
67916SOL     OW21357   8.587  11.967   2.531  0.1049 -0.3280 -0.2832
67916SOL    HW121358   8.612  11.874   2.534 -0.4186 -0.4507  0.5326
67916SOL    HW221359   8.671  12.013   2.528  0.3927 -0.7986  0.2891
67917SOL     OW21360   2.637   7.618   4.742  0.4500  0.0447 -0.8604
67917SOL    HW121361   2.658   7.525   4.737  3.0831  0.4678  0.6331
67917SOL    HW221362   2.709   7.662   4.697 -1.2738  1.3909 -2.4846
67918SOL     OW21363  10.158   6.580   1.850 -0.1634 -0.6519  0.1208
67918SOL    HW121364  10.107   6.623   1.781 -0.7101 -0.5253  0.5955
67918SOL    HW221365  10.189   6.652   1.905 -1.0011 -0.8420  0.8648
67919SOL     OW21366   7.517   1.046   1.476  0.1139 -0.3497  0.3806
67919SOL    HW121367   7.565   1.117   1.519  0.7765  0.0699 -1.0027
67919SOL    HW221368   7.455   1.090   1.418  1.8868 -0.8206 -1.9928
67920SOL     OW21369   5.175   4.350  14.045 -0.0031 -0.4511 -0.7896
67920SOL    HW121370   5.212   4.262  14.047 -0.9095 -0.8344 -0.3594
67920SOL    HW221371   5.246   4.405  14.012  0.1518 -1.5490 -2.4354
67921SOL     OW21372   6.223  10.821  10.687  0.5271  0.3354  0.2149
67921SOL    HW121373   6.173  10.901  10.704 -0.0943 -0.1468  0.6907
67921SOL    HW221374   6.262  10.835  10.601  0.8394  1.3629  0.5017
67922SOL     OW21375   6.083   4.138  11.478  0.1208  0.0809  0.5364
67922SOL    HW121376   6.020   4.110  11.411 -3.6161  2.7464  2.5632
67922SOL    HW221377   6.043   4.112  11.561  2.6492  0.3630  1.9451
67923SOL     OW21378   9.155   8.484   0.831  0.1189 -0.0836  0.5714
67923SOL    HW121379   9.195   8.403   0.863  1.7748  0.5030  0.0672
67923SOL    HW221380   9.098   8.456   0.759 -0.0471 -0.8804  0.9954
67924SOL     OW21381  12.063   2.515   2.669  0.1314  0.9572 -0.6499
67924SOL    HW121382  12.019   2.585   2.717 -0.7482  0.8668 -1.3029
67924SOL    HW221383  12.111   2.561   2.599  0.4715  0.9928 -0.3960
67925SOL     OW21384   3.329  12.832   2.046 -0.2222 -0.6404 -0.3523
67925SOL    HW121385   3.365  12.775   1.978  0.1015 -2.0702  0.9483
67925SOL    HW221386   3.402  12.889   2.071 -0.7040  0.7859 -2.0470
67926SOL     OW21387   1.319  10.332   2.244  0.3288  0.2369  0.1506
67926SOL    HW121388   1.310  10.345   2.149 -0.2021  0.4100  0.2212
67926SOL    HW221389   1.230  10.339   2.277  0.5030  0.0798  0.6542
67927SOL     OW21390   4.464  13.398   1.845  0.2954 -0.1892 -0.1610
67927SOL    HW121391   4.440  13.401   1.938 -1.1305 -0.6530 -0.4908
67927SOL    HW221392   4.486  13.306   1.830 -0.5834 -0.3495 -0.5268
67928SOL     OW21393   9.162   6.659   8.306  0.0699 -0.0156  0.0572
67928SOL    HW121394   9.231   6.604   8.344  0.5334  0.2782 -0.3366
67928SOL    HW221395   9.124   6.705   8.381  2.3565  2.1287  0.0537
67929SOL     OW21396  11.561   8.132   2.025  0.4501  0.4304 -0.1231
67929SOL    HW121397  11.567   8.227   2.015 -0.5508  0.5913  0.7395
67929SOL    HW221398  11.653   8.102   2.025  0.7798  1.4197 -0.1326
67930SOL     OW21399   7.038   3.501  12.923  0.1534  0.2647  0.4368
67930SOL    HW121400   7.097   3.457  12.861 -0.0420 -0.3889  0.7102
67930SOL    HW221401   6.960   3.520  12.871 -0.2091 -0.7321  0.5992
67931SOL     OW21402   8.198   5.050  13.051  0.0574  0.5513  0.3384
67931SOL    HW121403   8.109   5.074  13.023  0.7391  1.2809 -1.3492
67931SOL    HW221404   8.187   5.020  13.141 -1.8741  0.8032  0.2420
67932SOL     OW21405   2.115   4.539  11.116  0.4027  0.0067  0.5905
67932SOL    HW121406   2.209   4.556  11.111  0.3544  0.3609  0.8182
67932SOL    HW221407   2.100   4.469  11.053  0.6361  0.7139 -0.2655
67933SOL     OW21408  13.358  11.254   5.563 -0.3542  0.4002  0.5693
67933SOL    HW121409  13.340  11.161   5.579  0.1701 -0.2084 -1.8764
67933SOL    HW221410  13.453  11.258   5.554 -0.5205  0.6574 -1.7056
67934SOL     OW21411   7.991   0.482  10.877  0.4950 -0.2663 -0.1728
67934SOL    HW121412   7.913   0.445  10.837  1.8884 -1.1132 -2.3208
67934SOL    HW221413   8.047   0.406  10.894  0.8539  0.3095  1.3889
67935SOL     OW21414  13.713  10.790   2.171 -0.2514 -0.2238  0.0801
67935SOL    HW121415  13.687  10.827   2.256 -0.9991 -0.4569 -0.0427
67935SOL    HW221416  13.692  10.697   2.178 -0.0459 -0.2980 -0.2636
67936SOL     OW21417   9.282   3.544   5.388 -0.3266 -0.0213  0.0020
67936SOL    HW121418   9.328   3.627   5.391  0.6000 -0.5518  0.8521
67936SOL    HW221419   9.224   3.545   5.464 -2.1691  0.8502 -1.3194
67937SOL     OW21420   7.960   8.003   7.155  0.5271  0.0468  0.0827
67937SOL    HW121421   8.003   8.071   7.206 -1.0570 -0.5707  2.3796
67937SOL    HW221422   7.966   7.925   7.210 -0.2895 -0.9368 -1.1768
67938SOL     OW21423  10.665   8.649  13.424 -0.1886  0.0752 -0.5671
67938SOL    HW121424  10.613   8.569  13.436  0.3871 -0.3339 -0.7613
67938SOL    HW221425  10.729   8.646  13.494 -0.8280  0.9138  0.0680
67939SOL     OW21426   4.248   2.439   5.566 -0.4048 -0.0474  0.4820
67939SOL    HW121427   4.247   2.486   5.649  0.4552 -1.6158  1.4275
67939SOL    HW221428   4.157   2.410   5.554 -0.6619  0.7234  0.5424
67940SOL     OW21429   9.271   7.120   3.285 -0.1262  0.5158 -0.6614
67940SOL    HW121430   9.238   7.192   3.231 -0.4013  1.7178  1.0298
67940SOL    HW221431   9.215   7.121   3.362  1.4773  0.1440  0.5563
67941SOL     OW21432   6.618   5.407  13.521 -0.2428  0.5768 -0.5252
67941SOL    HW121433   6.685   5.371  13.462  0.7427  2.0025 -0.3432
67941SOL    HW221434   6.576   5.476  13.469 -0.5994  0.6431 -0.1546
67942SOL     OW21435  10.544   7.041  12.241  0.7232  0.7401  0.0252
67942SOL    HW121436  10.546   7.137  12.233  3.3168  0.7764  0.2329
67942SOL    HW221437  10.636   7.017  12.256  0.0399 -1.7447  0.5384
67943SOL     OW21438  10.758   0.980   8.744  0.1456  0.4814 -0.0429
67943SOL    HW121439  10.822   1.051   8.735 -0.5243  0.9141 -1.9307
67943SOL    HW221440  10.799   0.905   8.700  0.0687  0.2546  0.2724
67944SOL     OW21441   7.788   2.861  13.036  0.3905 -0.2386  0.5914
67944SOL    HW121442   7.702   2.888  13.004  0.4370 -1.1330 -0.3572
67944SOL    HW221443   7.829   2.941  13.067 -0.7955  0.1980  1.0862
67945SOL     OW21444  10.598  13.121   2.606 -0.7560  0.1474  0.5473
67945SOL    HW121445  10.583  13.065   2.529  0.1994  3.1599 -2.0390
67945SOL    HW221446  10.516  13.169   2.617 -0.3828  0.8285  0.4095
67946SOL     OW21447   8.441  11.049   7.692 -0.1928 -0.3649  0.0221
67946SOL    HW121448   8.380  11.118   7.666 -0.7298 -0.8622 -0.0650
67946SOL    HW221449   8.413  11.025   7.781 -1.5292 -2.0851 -0.8025
67947SOL     OW21450  12.429  11.608   7.486 -0.0893  0.3124 -0.0888
67947SOL    HW121451  12.410  11.701   7.477 -1.2366 -0.0009 -1.2607
67947SOL    HW221452  12.430  11.592   7.581 -0.3573  1.4253  0.1113
67948SOL     OW21453   6.546  14.081  12.189  0.4186  0.0067 -0.3205
67948SOL    HW121454   6.470  14.133  12.162 -0.1339  0.8530  2.5489
67948SOL    HW221455   6.609  14.145  12.221  0.9388 -0.8842  0.4948
67949SOL     OW21456  13.122   9.161   8.079  0.3854  0.7576 -0.2099
67949SOL    HW121457  13.075   9.206   8.149 -0.4997 -0.8809  0.3086
67949SOL    HW221458  13.174   9.094   8.124 -0.1955 -0.3277 -1.0769
67950SOL     OW21459   1.972   7.853   2.000 -0.5846  0.4892 -0.0819
67950SOL    HW121460   1.910   7.782   1.978 -1.0420  1.3035 -1.6178
67950SOL    HW221461   2.024   7.864   1.921 -1.4193  2.7417 -0.4072
67951SOL     OW21462   3.400   6.169   7.024 -0.0383  0.0758 -0.5696
67951SOL    HW121463   3.474   6.223   7.051 -0.0555 -0.2484  0.1433
67951SOL    HW221464   3.356   6.145   7.105  0.2502 -1.4060 -0.8041
67952SOL     OW21465   4.110   7.991   6.971 -0.1212  0.1841  0.2263
67952SOL    HW121466   4.140   8.080   6.989  0.2447  0.1615 -0.2650
67952SOL    HW221467   4.090   7.991   6.878 -0.2817 -0.2036  0.2597
67953SOL     OW21468   1.643   5.065   6.324  0.2987 -0.1665 -0.5856
67953SOL    HW121469   1.630   5.157   6.301 -1.8532 -0.6841 -1.7637
67953SOL    HW221470   1.561   5.023   6.298  2.2009 -2.9224 -2.6655
67954SOL     OW21471   3.278   2.701   2.619  0.2803  0.3508 -0.4769
67954SOL    HW121472   3.240   2.722   2.534  0.3872  0.4234 -0.5075
67954SOL    HW221473   3.215   2.643   2.661  0.3862  0.0391 -0.7472
67955SOL     OW21474   0.206   4.283   4.771  0.3561  0.2773  0.4340
67955SOL    HW121475   0.209   4.304   4.865 -0.8654  1.9198  0.1584
67955SOL    HW221476   0.296   4.295   4.741  0.2887  2.5204  0.9060
67956SOL     OW21477   0.091   4.868  13.627 -0.1752  0.9001  0.2385
67956SOL    HW121478   0.131   4.877  13.713  1.3981  1.9572 -0.5398
67956SOL    HW221479   0.152   4.914  13.568 -1.0828  0.0107 -1.4594
67957SOL     OW21480  12.113   6.270  10.922 -0.4573 -0.2655  0.0164
67957SOL    HW121481  12.161   6.219  10.857  0.6924 -1.7224  1.8938
67957SOL    HW221482  12.153   6.357  10.919 -0.2612 -0.3754 -1.0238
67958SOL     OW21483   4.871   8.794   4.791 -0.4135 -0.0916  0.4490
67958SOL    HW121484   4.799   8.833   4.841 -1.1776  1.6724 -1.8622
67958SOL    HW221485   4.949   8.839   4.822 -0.2353 -1.7747  2.7282
67959SOL     OW21486  13.456   6.926   5.520 -0.1891  0.1601 -0.8150
67959SOL    HW121487  13.439   6.834   5.536  0.6564  0.2609  0.8070
67959SOL    HW221488  13.372   6.961   5.490 -1.1384 -0.6575  0.7792
67960SOL     OW21489   6.641   3.326  10.879 -0.1424 -0.4227  0.0034
67960SOL    HW121490   6.586   3.250  10.897  1.4666 -1.3013  1.5164
67960SOL    HW221491   6.631   3.341  10.785 -2.8010 -0.6006  0.1739
67961SOL     OW21492  13.658  10.533   1.042 -0.7179  0.0240  0.6842
67961SOL    HW121493  13.586  10.480   1.007 -1.2981  0.9731  0.3787
67961SOL    HW221494  13.620  10.621   1.049  0.0970  0.3145  1.5446
67962SOL     OW21495   0.400   6.512   2.038 -0.1972  0.6976  0.7687
67962SOL    HW121496   0.374   6.604   2.034 -0.9144  0.5281 -3.7838
67962SOL    HW221497   0.317   6.463   2.034  0.1812  0.0667 -2.0546
67963SOL     OW21498  10.624   5.460   8.594 -0.0270  0.3985  0.4556
67963SOL    HW121499  10.673   5.429   8.670 -1.9271 -1.1366  1.1228
67963SOL    HW221500  10.662   5.413   8.520  0.5090  0.3895  0.7333
67964SOL     OW21501   7.145   7.872   8.454  0.3548  0.0245  0.5320
67964SOL    HW121502   7.169   7.948   8.506 -1.1146 -1.2306  3.2319
67964SOL    HW221503   7.223   7.855   8.400  0.6978  3.3786 -0.2677
67965SOL     OW21504   1.104  10.181  13.990  0.0181 -0.9187 -0.5236
67965SOL    HW121505   1.154  10.258  14.015 -0.8187 -0.4419 -0.2851
67965SOL    HW221506   1.100  10.127  14.069 -0.7271 -0.4576 -0.2309
67966SOL     OW21507   1.745   3.612  11.729  0.0459  0.0043 -0.5806
67966SOL    HW121508   1.801   3.536  11.746 -0.7419 -1.2662 -3.1545
67966SOL    HW221509   1.782   3.653  11.652  0.0384  1.8905  0.3598
67967SOL     OW21510   8.569  12.431   9.199 -0.1331  0.4836 -0.0334
67967SOL    HW121511   8.582  12.516   9.158 -0.9755  0.8266  0.3788
67967SOL    HW221512   8.559  12.451   9.293 -2.1257  0.1593 -0.1309
67968SOL     OW21513   4.918   1.983  12.709  0.2201 -0.2337  0.4717
67968SOL    HW121514   4.891   1.892  12.693 -1.5359 -0.0282  2.0309
67968SOL    HW221515   5.003   1.975  12.753  0.0516 -1.1069  0.6617
67969SOL     OW21516   1.006   0.275   1.163 -0.0086  0.1918  0.3762
67969SOL    HW121517   1.022   0.320   1.245  2.8973 -0.7408  0.4397
67969SOL    HW221518   1.040   0.334   1.096  1.1204 -0.6010  0.2177
67970SOL     OW21519  13.443   4.988   8.860 -0.5098 -0.4639 -0.3693
67970SOL    HW121520  13.351   4.967   8.845 -0.6873  1.1264 -1.7655
67970SOL    HW221521  13.486   4.903   8.866 -1.9439 -1.2352 -0.4298
67971SOL     OW21522   6.433   1.839   0.211  0.2882  0.1795 -0.6274
67971SOL    HW121523   6.346   1.831   0.172 -0.4254  3.8140 -0.1019
67971SOL    HW221524   6.418   1.828   0.305  1.3394 -4.1549 -0.7407
67972SOL     OW21525   9.701   1.429  11.224  0.3281 -0.0101  0.1742
67972SOL    HW121526   9.663   1.361  11.168  1.6379 -0.7953  0.1825
67972SOL    HW221527   9.715   1.385  11.308  1.4294  0.1816  0.1027
67973SOL     OW21528   9.643  10.928   7.563  0.0547 -0.3987  0.2748
67973SOL    HW121529   9.664  10.996   7.499  0.5458 -1.0463 -0.2576
67973SOL    HW221530   9.722  10.873   7.567  0.3029  0.0077  1.9326
67974SOL     OW21531   2.761   3.018   5.072 -0.0211  0.3950 -0.0876
67974SOL    HW121532   2.718   3.075   5.007 -1.2032  1.1467  1.3017
67974SOL    HW221533   2.854   3.039   5.064 -0.4637  3.1031  0.8583
67975SOL     OW21534   0.476  12.782   6.400  0.2531 -0.0010 -0.0413
67975SOL    HW121535   0.464  12.875   6.421  1.5605  0.0582  0.5722
67975SOL    HW221536   0.511  12.782   6.311  0.1167  0.0793 -0.0966
67976SOL     OW21537   7.390  10.929  12.697 -0.2328  0.1158  0.1035
67976SOL    HW121538   7.363  10.859  12.639 -0.2087 -0.3868  0.6848
67976SOL    HW221539   7.342  11.006  12.666  0.1224 -0.0356 -0.8475
67977SOL     OW21540   4.313   9.161   4.975  0.4297 -0.0264 -0.8186
67977SOL    HW121541   4.358   9.244   4.990 -1.3701  1.1467 -1.6523
67977SOL    HW221542   4.276   9.169   4.888  0.2203 -1.7347 -0.9210
67978SOL     OW21543  11.036   9.317   9.170  0.5356  0.6972  0.0302
67978SOL    HW121544  11.064   9.266   9.094  1.6030 -2.8978  2.5851
67978SOL    HW221545  11.117   9.335   9.218 -0.3648  0.0532  1.8974
67979SOL     OW21546   9.718  10.181   6.934  0.2397  0.1918 -0.0454
67979SOL    HW121547   9.748  10.096   6.965 -0.4069  0.2573  0.7916
67979SOL    HW221548   9.788  10.242   6.959 -0.4127  0.2960  1.6065
67980SOL     OW21549   5.850   9.339   2.211  0.7546 -0.0343 -0.2318
67980SOL    HW121550   5.905   9.394   2.156 -1.0919  0.8822 -1.2744
67980SOL    HW221551   5.911   9.296   2.271  2.3616  2.6987  0.2683
67981SOL     OW21552   0.169  12.939   3.160  0.1173  0.7853  0.3945
67981SOL    HW121553   0.226  12.926   3.236  0.2851 -0.4941  0.0705
67981SOL    HW221554   0.185  12.863   3.104 -2.4642 -0.0042  0.6262
67982SOL     OW21555   3.734  10.634  11.855 -0.4837 -0.0288 -0.5936
67982SOL    HW121556   3.740  10.608  11.763 -0.1951  0.1740 -0.6323
67982SOL    HW221557   3.762  10.726  11.856 -2.0573  0.4952 -0.5514
67983SOL     OW21558   3.230   7.992  11.709 -0.0074 -0.4713  0.1605
67983SOL    HW121559   3.138   7.965  11.717 -1.0712  2.6248 -0.1501
67983SOL    HW221560   3.248   8.039  11.790  1.3724 -1.1600  0.2727
67984SOL     OW21561   8.014   6.513   8.505  0.2097 -0.2762  0.2043
67984SOL    HW121562   8.062   6.573   8.448  0.0996 -0.6742 -0.3196
67984SOL    HW221563   7.927   6.552   8.513  0.6344  0.5068  1.2485
67985SOL     OW21564  13.873   7.163  11.716 -0.2106  0.4547  0.0186
67985SOL    HW121565  13.851   7.075  11.686 -0.5994  0.6900 -0.3963
67985SOL    HW221566  13.836   7.168  11.804  0.5672 -0.0931  0.3885
67986SOL     OW21567   9.888   1.721   1.682 -0.3254 -0.0605 -0.1051
67986SOL    HW121568   9.818   1.658   1.699  0.2772 -0.8920 -0.6118
67986SOL    HW221569   9.910   1.708   1.589  0.8018 -0.1476  0.1502
67987SOL     OW21570   9.362  13.342  12.024  1.1218 -0.1450 -0.1744
67987SOL    HW121571   9.438  13.292  12.053 -0.0620 -0.8094  1.9619
67987SOL    HW221572   9.303  13.277  11.986  0.6164 -0.0076  0.3606
67988SOL     OW21573   9.763   9.633   0.465  0.2428 -0.5089  0.1570
67988SOL    HW121574   9.845   9.609   0.421  0.1524  0.6326 -0.7006
67988SOL    HW221575   9.791   9.670   0.549  0.6849  0.5560 -0.4386
67989SOL     OW21576  11.533  12.670  10.423  0.4266 -0.3215 -0.0567
67989SOL    HW121577  11.587  12.749  10.419  0.8292 -0.5760  0.3235
67989SOL    HW221578  11.577  12.608  10.365  0.3552 -0.4205 -0.0036
67990SOL     OW21579   1.772  11.999  12.160 -0.1359 -0.8165  0.5515
67990SOL    HW121580   1.721  11.930  12.202 -0.4830 -1.7062 -1.2152
67990SOL    HW221581   1.710  12.069  12.143  0.1292 -0.2061  1.9789
67991SOL     OW21582   9.881   3.791  13.611  0.1176 -0.4245 -0.0989
67991SOL    HW121583   9.920   3.796  13.698 -2.2585 -0.1954  1.0195
67991SOL    HW221584   9.918   3.865  13.563  0.9767 -0.1927  0.9007
67992SOL     OW21585   0.972   5.535  13.690  0.4074 -0.3181 -0.0617
67992SOL    HW121586   1.038   5.538  13.621  1.4073 -0.9453  0.8196
67992SOL    HW221587   1.019   5.500  13.766 -0.9645 -0.8730  0.5749
67993SOL     OW21588   2.582   4.300  10.901  0.0260  0.1055 -0.2512
67993SOL    HW121589   2.637   4.223  10.892 -2.1561 -1.3654 -2.2222
67993SOL    HW221590   2.556   4.322  10.811 -2.6113  0.6103  0.5306
67994SOL     OW21591   6.474   9.765  10.955  0.0275 -0.0992  0.0129
67994SOL    HW121592   6.417   9.820  10.901 -0.3469 -0.6959 -0.1985
67994SOL    HW221593   6.510   9.701  10.894  1.5122  0.7034 -0.0176
67995SOL     OW21594   7.866   4.236   3.034  0.5819  0.2452  0.0413
67995SOL    HW121595   7.780   4.257   2.999 -0.0023 -0.6803  0.8584
67995SOL    HW221596   7.882   4.303   3.101  0.8436  0.8697 -0.6412
67996SOL     OW21597   1.762   2.240   1.791  0.0663  0.1662 -0.4245
67996SOL    HW121598   1.709   2.269   1.717 -0.6191 -3.3021 -1.4609
67996SOL    HW221599   1.845   2.286   1.780 -0.1242  0.0298 -3.2180
67997SOL     OW21600   6.459  12.713   1.397  0.0789  0.0788 -0.4536
67997SOL    HW121601   6.521  12.715   1.470  1.1128 -2.3291 -1.1657
67997SOL    HW221602   6.378  12.679   1.435  0.3502 -0.3552 -0.2702
67998SOL     OW21603  10.964  13.296   3.085  0.5240 -0.1299  0.1847
67998SOL    HW121604  10.870  13.309   3.085  0.1789 -2.0797  1.7186
67998SOL    HW221605  10.999  13.371   3.037 -1.6209  1.9034  1.5815
67999SOL     OW21606   1.274   1.343   3.016 -0.4183 -0.0311  0.6147
67999SOL    HW121607   1.247   1.435   3.015 -1.2299 -0.2637  0.5002
67999SOL    HW221608   1.208   1.298   2.964 -0.5794 -0.8334  1.4970
68000SOL     OW21609  10.174   2.157   6.264  0.1036 -0.1151  0.2772
68000SOL    HW121610  10.267   2.165   6.288  0.3006  0.7346 -0.6802
68000SOL    HW221611  10.171   2.186   6.173 -1.4843  2.5361  1.0536
68001SOL     OW21612  10.930   6.832   1.007 -0.2703 -0.1500 -0.3246
68001SOL    HW121613  11.007   6.806   0.957 -0.3626  0.5062 -0.8257
68001SOL    HW221614  10.896   6.750   1.043  1.7792 -0.2760  1.5762
68002SOL     OW21615   8.527   1.580   4.239  0.1825 -0.8168  0.2471
68002SOL    HW121616   8.457   1.626   4.286  0.7179 -0.1421  0.3887
68002SOL    HW221617   8.480   1.524   4.177 -0.5132 -1.0959  1.0022
68003SOL     OW21618   9.012   7.649   2.360 -0.4745  0.5273  0.1616
68003SOL    HW121619   8.998   7.729   2.310  0.8602 -0.6403 -2.2496
68003SOL    HW221620   9.089   7.668   2.415  0.2637  0.7159 -0.9051
68004SOL     OW21621  10.197   2.339   8.473  0.0430 -0.3118 -0.4251
68004SOL    HW121622  10.283   2.369   8.502 -1.3351  1.7303  1.8641
68004SOL    HW221623  10.216   2.260   8.422  3.1675 -0.6931  1.0756
68005SOL     OW21624   6.336   1.423  10.325 -0.7842 -0.0877 -0.3561
68005SOL    HW121625   6.392   1.464  10.259  2.1324 -3.3305 -0.1547
68005SOL    HW221626   6.383   1.434  10.408 -1.7818 -0.6004  0.3075
68006SOL     OW21627  13.126   3.621  12.944  0.3966  0.2672 -0.1861
68006SOL    HW121628  13.114   3.704  12.897  1.4541  1.0699  0.8927
68006SOL    HW221629  13.121   3.645  13.036 -2.4891 -1.4080  0.2078
68007SOL     OW21630   5.551   7.469   1.876  0.3253  0.4550 -0.1312
68007SOL    HW121631   5.512   7.441   1.959  1.7009 -0.9494  0.0905
68007SOL    HW221632   5.495   7.430   1.809 -0.5315  1.2240  0.1104
68008SOL     OW21633   3.275   6.049  13.095  0.0011 -0.0548  0.4317
68008SOL    HW121634   3.303   6.138  13.073 -0.3211 -0.0115  0.1874
68008SOL    HW221635   3.331   6.023  13.168  0.3056  0.2326  0.2996
68009SOL     OW21636   2.778  11.363  12.384  0.1132 -0.1407  0.7206
68009SOL    HW121637   2.814  11.343  12.297 -0.3397 -0.5933  0.6356
68009SOL    HW221638   2.799  11.456  12.397  0.0322 -0.0210  0.0494
68010SOL     OW21639  11.769   5.384   8.355 -0.3219  0.5906  0.4058
68010SOL    HW121640  11.748   5.310   8.297 -0.0779  0.1608  0.8618
68010SOL    HW221641  11.710   5.454   8.326 -1.2378 -0.0789  0.5901
68011SOL     OW21642  13.785  13.123   5.773  0.7212 -0.5005 -0.4215
68011SOL    HW121643  13.797  13.032   5.801 -0.1148 -0.3986  0.2900
68011SOL    HW221644  13.812  13.175   5.849 -1.3591 -0.2216  0.1894
68012SOL     OW21645   4.595  12.270   8.509  0.0644 -0.5737  0.0330
68012SOL    HW121646   4.504  12.245   8.492 -0.8240  1.8341  0.7379
68012SOL    HW221647   4.601  12.274   8.604  0.3538  0.9320 -0.0220
68013SOL     OW21648  10.992  12.633  10.648 -0.2961  0.5232 -0.0330
68013SOL    HW121649  11.018  12.542  10.634 -2.2420 -0.1720  0.5533
68013SOL    HW221650  10.955  12.661  10.564  1.0883  1.0922 -0.4796
68014SOL     OW21651   2.290   7.910   8.988  0.6550 -0.1162 -0.0074
68014SOL    HW121652   2.312   7.926   8.897  1.2147  0.7663  0.2652
68014SOL    HW221653   2.265   7.818   8.992  1.6191 -0.4287 -0.8528
68015SOL     OW21654   1.083   3.767  10.949  0.3767  0.3541  0.6174
68015SOL    HW121655   1.059   3.679  10.977  0.2421  0.5912  1.2702
68015SOL    HW221656   1.057   3.823  11.022  2.1832  0.7221  1.0311
68016SOL     OW21657   9.596  12.449  11.590 -0.1369 -0.1606  0.2817
68016SOL    HW121658   9.682  12.454  11.631 -0.4499  1.7041  0.7887
68016SOL    HW221659   9.540  12.503  11.646 -2.5324 -4.0047  2.0391
68017SOL     OW21660   7.011   1.760   0.910 -0.4291  0.6969  0.0954
68017SOL    HW121661   6.922   1.796   0.917 -0.6655  0.5015 -1.5983
68017SOL    HW221662   7.013   1.717   0.825  0.6137 -1.2551  1.0505
68018SOL     OW21663   7.787   0.979   7.065  0.3485 -0.0439 -0.4211
68018SOL    HW121664   7.726   0.988   7.139  2.0705 -0.1826  1.0783
68018SOL    HW221665   7.810   0.886   7.064 -0.0780 -0.1486 -1.5049
68019SOL     OW21666   4.656   4.630  11.521  0.3480  0.5278 -0.5990
68019SOL    HW121667   4.658   4.549  11.469  1.4442 -0.7796  1.3514
68019SOL    HW221668   4.724   4.685  11.481  1.0684 -0.3806 -0.6591
68020SOL     OW21669   4.323  13.332   0.966 -0.9398  0.3407  0.3761
68020SOL    HW121670   4.310  13.302   1.056 -1.8161  0.7757  0.4047
68020SOL    HW221671   4.239  13.369   0.940 -1.4778 -1.8477 -1.4151
68021SOL     OW21672   9.212   2.966   7.245  0.3014  0.4560 -0.2293
68021SOL    HW121673   9.219   3.046   7.298  0.9752 -0.2257  0.7408
68021SOL    HW221674   9.273   2.980   7.172  0.0816  1.0069 -0.3101
68022SOL     OW21675   8.088  10.949  13.448 -0.1503  0.2938  0.1715
68022SOL    HW121676   8.125  10.888  13.384  0.7620  1.1876 -0.1848
68022SOL    HW221677   8.077  10.897  13.527  0.2696 -0.4319 -0.2374
68023SOL     OW21678  11.050   1.119   6.036  0.1811 -0.5036  0.0332
68023SOL    HW121679  11.107   1.115   5.959 -0.1921  0.8260 -0.3434
68023SOL    HW221680  11.097   1.176   6.097  0.7961 -2.0910  1.1016
68024SOL     OW21681   1.529  13.464   9.998 -0.0649 -0.0938 -0.0752
68024SOL    HW121682   1.469  13.532   9.969 -1.5315 -2.0660 -2.0634
68024SOL    HW221683   1.498  13.438  10.084  2.1337  3.3936  1.9878
68025SOL     OW21684  10.806  11.209  12.583 -0.3997 -0.5114  0.5065
68025SOL    HW121685  10.791  11.299  12.552  1.6189 -0.3871 -0.2516
68025SOL    HW221686  10.720  11.180  12.612 -1.1980  1.5241  0.3966
68026SOL     OW21687  10.601   9.915   0.669  0.3251 -0.0951 -0.0970
68026SOL    HW121688  10.613   9.960   0.753 -0.0436  0.3861 -0.2905
68026SOL    HW221689  10.616   9.984   0.603  3.3768 -1.0667 -0.5463
68027SOL     OW21690  11.360   6.285   5.854 -0.3366  0.0249 -0.0182
68027SOL    HW121691  11.294   6.242   5.909 -1.0493  1.7208  0.5015
68027SOL    HW221692  11.392   6.358   5.907 -0.0119  0.8552 -1.3166
68028SOL     OW21693   3.930  10.687   4.378  0.8087 -0.3116 -0.4162
68028SOL    HW121694   4.017  10.648   4.370  0.3348 -2.1303  2.0381
68028SOL    HW221695   3.869  10.614   4.366 -0.1520 -0.2756  3.0556
68029SOL     OW21696   3.148   7.744   7.680 -0.0833  0.2266  0.4686
68029SOL    HW121697   3.162   7.679   7.611  0.6091  1.4891 -0.6215
68029SOL    HW221698   3.236   7.764   7.713 -0.2910  0.5909  0.8131
68030SOL     OW21699  11.427   0.244   7.224 -0.0575  0.6515 -0.5094
68030SOL    HW121700  11.501   0.286   7.180  0.5064  1.1320  0.8474
68030SOL    HW221701  11.381   0.315   7.268 -0.2956  0.1430  0.0920
68031SOL     OW21702  13.088  13.742  12.945 -0.5246  0.0566  0.0374
68031SOL    HW121703  13.102  13.752  12.851  0.0567  0.1104  0.1267
68031SOL    HW221704  13.034  13.817  12.970 -0.6737  0.0454 -0.2490
68032SOL     OW21705   1.728   7.812  11.296 -0.0616 -1.0049  0.0181
68032SOL    HW121706   1.698   7.902  11.301  1.2674 -0.4964 -0.6211
68032SOL    HW221707   1.656   7.760  11.332 -0.7222  0.3241  0.6684
68033SOL     OW21708  12.239  11.072   0.709 -0.2170  0.2839 -0.0295
68033SOL    HW121709  12.295  11.144   0.681 -1.1916  0.6116 -1.2368
68033SOL    HW221710  12.273  10.996   0.661 -0.8989  0.5296 -0.9503
68034SOL     OW21711  12.350  10.541  13.455 -0.5380 -0.0398 -0.2250
68034SOL    HW121712  12.335  10.621  13.404 -1.7754  0.4172  0.7914
68034SOL    HW221713  12.371  10.572  13.543 -2.1286 -0.8108  0.4598
68035SOL     OW21714   7.881   8.993  12.998 -0.1470  0.4063  0.0542
68035SOL    HW121715   7.909   8.933  13.067  0.8823 -0.3008 -0.9456
68035SOL    HW221716   7.805   8.950  12.958  1.1896 -0.7903 -1.3199
68036SOL     OW21717   3.232   8.993   4.577  0.2743 -0.1222 -0.6158
68036SOL    HW121718   3.311   9.046   4.590 -0.3233  0.4030  1.1205
68036SOL    HW221719   3.161   9.057   4.576 -0.2426 -0.6911 -1.0770
68037SOL     OW21720  11.885   1.128  10.429 -0.2135  0.2663 -0.1337
68037SOL    HW121721  11.795   1.153  10.451  0.0780  0.2895  1.0786
68037SOL    HW221722  11.922   1.207  10.389 -0.4956  0.5040  0.0698
68038SOL     OW21723  13.779  10.550  10.166 -0.1561 -0.1666  0.1996
68038SOL    HW121724  13.804  10.470  10.213 -0.6036 -0.6312 -0.3305
68038SOL    HW221725  13.746  10.518  10.082 -3.1658  0.2958  1.0714
68039SOL     OW21726   4.190  10.088   8.749 -0.0298  0.0941  0.5291
68039SOL    HW121727   4.268  10.137   8.726  0.0675 -0.3235 -0.0561
68039SOL    HW221728   4.153  10.060   8.665  0.9511 -2.4315  0.8568
68040SOL     OW21729   1.341   3.633   7.617 -0.0601 -0.7368  0.2852
68040SOL    HW121730   1.433   3.658   7.608  0.1362 -2.0313 -1.8028
68040SOL    HW221731   1.332   3.609   7.709  1.1529  1.3205  1.0130
68041SOL     OW21732   5.301   4.093   9.741  0.5824 -0.6868  0.6760
68041SOL    HW121733   5.380   4.125   9.698  0.2006  2.0482  1.8439
68041SOL    HW221734   5.232   4.104   9.677  0.7805 -1.0781  0.3903
68042SOL     OW21735   2.477   4.955  13.629 -0.1998  0.1823 -0.0558
68042SOL    HW121736   2.454   4.985  13.717  0.7467  2.4004 -0.4901
68042SOL    HW221737   2.402   4.903  13.601 -1.3519  0.9931  1.3610
68043SOL     OW21738   2.361   5.647   0.765 -0.2010 -0.6990  0.1445
68043SOL    HW121739   2.450   5.627   0.737 -0.1327 -0.8093  0.4391
68043SOL    HW221740   2.370   5.723   0.822  0.0638 -2.3678  2.4572
68044SOL     OW21741   8.666  11.823  13.205 -0.0510  0.4145 -0.4443
68044SOL    HW121742   8.752  11.809  13.165 -0.0658 -1.3131  0.0682
68044SOL    HW221743   8.604  11.798  13.137 -0.0901 -0.8500  0.0234
68045SOL     OW21744  10.364  12.191  12.699 -0.8030 -0.0955 -0.5086
68045SOL    HW121745  10.365  12.158  12.789 -1.3627 -0.8779 -0.7813
68045SOL    HW221746  10.286  12.247  12.696  0.6373  2.1126  0.2195
68046SOL     OW21747  10.533  13.895   2.676 -0.2866 -0.1771 -0.4930
68046SOL    HW121748  10.612  13.858   2.636 -0.8277 -0.8433 -0.9750
68046SOL    HW221749  10.547  13.989   2.675  0.6578 -0.3050 -0.2349
68047SOL     OW21750   5.791   1.579   6.272  0.3160 -0.0364  0.3110
68047SOL    HW121751   5.787   1.544   6.361 -0.9748 -0.3103  0.1604
68047SOL    HW221752   5.859   1.527   6.229  0.4623 -0.3765  0.9381
68048SOL     OW21753   2.252   6.510   3.569  0.0356  0.4790  0.0463
68048SOL    HW121754   2.164   6.536   3.539  0.8705 -0.6012 -3.9594
68048SOL    HW221755   2.240   6.422   3.604 -0.6566  0.8504  0.7730
68049SOL     OW21756   5.935   3.308   8.570  0.5229 -0.0646 -0.3597
68049SOL    HW121757   5.898   3.304   8.481  0.0299  3.0194 -0.4296
68049SOL    HW221758   6.030   3.308   8.557  0.4923 -1.6634 -0.6979
68050SOL     OW21759   7.821   2.818   5.339  0.3919 -0.6606 -0.0490
68050SOL    HW121760   7.793   2.887   5.398 -1.5115 -0.7970 -0.7100
68050SOL    HW221761   7.836   2.742   5.395 -1.4327 -0.8030  0.2960
68051SOL     OW21762   0.685   0.198  11.161 -0.0326 -0.2712  0.0822
68051SOL    HW121763   0.756   0.205  11.225 -0.2895 -1.3431  0.4955
68051SOL    HW221764   0.634   0.122  11.189 -0.5894 -0.3066 -0.9694
68052SOL     OW21765   1.910   8.458   1.081 -0.0241  0.0815 -0.0583
68052SOL    HW121766   1.912   8.385   1.020  1.5497  0.3793 -0.4003
68052SOL    HW221767   1.945   8.532   1.032 -1.8225  1.1696  0.1964
68053SOL     OW21768  11.618   5.515   7.997 -0.1555  0.0377 -0.3009
68053SOL    HW121769  11.571   5.439   8.033 -0.2805  0.8303  1.3219
68053SOL    HW221770  11.698   5.478   7.960 -0.0825 -0.8790  0.7074
68054SOL     OW21771  12.023   8.724   0.779 -0.4257 -0.1310 -0.1480
68054SOL    HW121772  12.050   8.779   0.705 -1.9719  0.5868 -0.2253
68054SOL    HW221773  12.047   8.775   0.857 -1.6626  0.6064 -0.2187
68055SOL     OW21774  11.239   3.751   1.210 -0.2151  0.2157  0.1935
68055SOL    HW121775  11.201   3.783   1.128 -2.2276  0.6611  1.2291
68055SOL    HW221776  11.168   3.703   1.252  0.9569 -0.5047  1.4221
68056SOL     OW21777  12.902   6.511  11.121 -0.0560  0.5160 -0.1876
68056SOL    HW121778  12.994   6.536  11.133 -0.4396  1.8550  0.0862
68056SOL    HW221779  12.853   6.576  11.170 -1.2097  0.3490 -1.0921
68057SOL     OW21780   2.978   2.410  10.927 -0.7519 -0.0810 -0.3730
68057SOL    HW121781   3.061   2.386  10.969 -0.8061  1.1244  0.4772
68057SOL    HW221782   2.916   2.342  10.954 -0.4648 -0.0292  0.4266
68058SOL     OW21783   2.018  11.106   0.468 -0.5564 -0.1965 -0.0599
68058SOL    HW121784   2.006  11.199   0.447  0.7966 -0.1595 -0.7785
68058SOL    HW221785   2.112  11.095   0.478 -0.5320 -1.7907 -1.5198
68059SOL     OW21786   1.864   9.498   5.466 -0.0731  0.1518 -0.1528
68059SOL    HW121787   1.877   9.464   5.377 -1.6908  0.1665 -0.4268
68059SOL    HW221788   1.780   9.461   5.493 -0.0373  0.8928  1.0224
68060SOL     OW21789   6.660   3.708  14.051  0.0761  0.4216 -1.1087
68060SOL    HW121790   6.704   3.743  14.129 -0.0133  0.4165 -1.0558
68060SOL    HW221791   6.656   3.614  14.066  0.0513  0.4214 -1.1149
68061SOL     OW21792   2.552   7.690  13.325  0.2330  0.4786  0.2298
68061SOL    HW121793   2.602   7.712  13.403  1.1561 -0.1735 -0.1622
68061SOL    HW221794   2.496   7.767  13.310  1.0864  1.2125  0.6935
68062SOL     OW21795  13.358   6.281   5.997 -0.6621  0.2417 -0.1540
68062SOL    HW121796  13.306   6.360   6.009 -0.0733  0.6277 -0.0746
68062SOL    HW221797  13.401   6.293   5.912  0.6519  0.7386  0.5504
68063SOL     OW21798   3.323  12.932  12.893 -0.1424 -0.0741 -0.2277
68063SOL    HW121799   3.320  12.849  12.941 -1.5018 -0.0964 -0.3130
68063SOL    HW221800   3.317  12.999  12.962 -0.2390 -0.0665 -0.2438
68064SOL     OW21801   5.428   7.066   4.313  0.4281 -0.0723  0.4393
68064SOL    HW121802   5.414   7.050   4.407  1.9996  0.4811  0.7909
68064SOL    HW221803   5.368   7.138   4.292  0.5707  0.2786  1.2008
68065SOL     OW21804  10.650   4.949   2.653 -0.5532  0.0376  0.0254
68065SOL    HW121805  10.630   5.010   2.725 -0.4839 -1.9499  1.8362
68065SOL    HW221806  10.691   4.874   2.696  1.0290 -0.5629 -2.3327
68066SOL     OW21807   5.541   5.404  10.956 -0.4420  0.0860 -0.5267
68066SOL    HW121808   5.554   5.312  10.980  1.9623  0.5249  0.1717
68066SOL    HW221809   5.559   5.452  11.037  3.0533  1.3565 -1.8793
68067SOL     OW21810   0.735   8.197   4.550 -0.2324  0.0708 -0.3998
68067SOL    HW121811   0.723   8.271   4.610  1.2338  0.5124 -0.6107
68067SOL    HW221812   0.770   8.236   4.470  0.0815 -0.7851 -0.6963
68068SOL     OW21813   4.502  12.379   4.099 -0.4260  0.4543  0.4170
68068SOL    HW121814   4.455  12.348   4.176 -1.1745  0.4417 -0.0339
68068SOL    HW221815   4.591  12.395   4.130 -0.4652 -0.4697  1.0625
68069SOL     OW21816   5.516   1.350  13.489 -0.7893 -0.5170  0.0255
68069SOL    HW121817   5.436   1.298  13.493 -1.5804  0.6509 -0.0811
68069SOL    HW221818   5.559   1.322  13.408 -2.5033  0.7671 -1.4303
68070SOL     OW21819   9.231   2.436   8.427  0.1872 -0.1232  0.7301
68070SOL    HW121820   9.300   2.404   8.369  0.8184 -1.3093  2.0742
68070SOL    HW221821   9.217   2.365   8.489  1.3619  2.0039  3.6298
68071SOL     OW21822   8.986   1.684   3.162 -0.0372  0.3221  0.3278
68071SOL    HW121823   8.993   1.620   3.232  1.4407  0.6023  0.4776
68071SOL    HW221824   9.046   1.653   3.094  0.5432  1.4045  0.3161
68072SOL     OW21825   2.352   8.677   3.273 -0.1643  0.5964  0.4728
68072SOL    HW121826   2.295   8.703   3.201 -1.9751 -0.6188  1.3767
68072SOL    HW221827   2.382   8.589   3.250  0.0210  0.5763  0.7751
68073SOL     OW21828   3.124  12.512   5.347  0.2155  0.0196 -0.3155
68073SOL    HW121829   3.099  12.566   5.272  0.0472 -0.7836 -0.8492
68073SOL    HW221830   3.198  12.559   5.386  0.0959  0.6148 -0.7830
68074SOL     OW21831  12.349   4.339  13.104 -0.0559 -0.5083  0.3849
68074SOL    HW121832  12.443   4.337  13.085 -0.0869  0.2724  0.1341
68074SOL    HW221833  12.345   4.341  13.200  0.2334  0.8462  0.3947
68075SOL     OW21834   9.063   3.039   4.834  0.5345 -0.0554  0.3363
68075SOL    HW121835   9.073   2.998   4.748  0.3031  1.9353 -0.7090
68075SOL    HW221836   8.972   3.021   4.859  0.9020 -1.5142  0.6617
68076SOL     OW21837   2.309   2.005  12.547 -0.6195  0.7443 -0.2709
68076SOL    HW121838   2.335   2.052  12.468  1.1528 -1.4625 -1.1136
68076SOL    HW221839   2.374   2.031  12.612  0.6154 -0.7061 -0.8532
68077SOL     OW21840   1.826   5.708  11.999  0.2790 -0.6131 -0.2883
68077SOL    HW121841   1.889   5.768  12.037 -0.1412 -0.1555 -0.3033
68077SOL    HW221842   1.869   5.623  12.001  1.2207 -0.1724 -1.0514
68078SOL     OW21843   1.322  10.716   6.476 -0.2918 -0.5698 -0.3307
68078SOL    HW121844   1.338  10.807   6.453  0.5084 -0.5374  0.2985
68078SOL    HW221845   1.311  10.717   6.572 -1.0894 -1.0252 -0.4054
68079SOL     OW21846   1.669  10.067   6.121 -0.1422 -0.3537 -0.5099
68079SOL    HW121847   1.620  10.084   6.041 -1.5858  1.4219  0.6762
68079SOL    HW221848   1.640  10.134   6.182  1.7008 -0.9937  1.1892
68080SOL     OW21849  14.077   1.472   1.120 -0.2900 -0.0276  0.3991
68080SOL    HW121850  14.039   1.476   1.208 -0.7775  0.1659  0.1816
68080SOL    HW221851  14.124   1.554   1.111 -0.9754  0.3491  0.1532
68081SOL     OW21852  10.436   0.574  13.143 -0.4924 -0.4503  0.3253
68081SOL    HW121853  10.453   0.545  13.054  1.4915 -0.2398  0.5700
68081SOL    HW221854  10.357   0.528  13.170  0.3731 -2.6308 -0.6258
68082SOL     OW21855  11.950   3.477   1.945  0.1695 -0.1222  0.0767
68082SOL    HW121856  12.012   3.444   1.880  0.0452 -0.6147  0.2085
68082SOL    HW221857  11.916   3.399   1.988 -0.7792  0.1160 -0.2166
68083SOL     OW21858   7.805  12.007   9.512  0.0821  0.2393  0.0501
68083SOL    HW121859   7.879  12.056   9.475 -0.3034  0.8573  0.0836
68083SOL    HW221860   7.845  11.928   9.548  0.8276  0.8577  0.6373
68084SOL     OW21861   1.124   5.018   4.052 -0.1768  0.2531 -0.0133
68084SOL    HW121862   1.036   4.986   4.035 -0.1814  0.0861  0.3111
68084SOL    HW221863   1.115   5.113   4.060  0.0978  0.5791 -2.6723
68085SOL     OW21864   7.276   1.499  13.345 -0.2558  0.1655  0.3642
68085SOL    HW121865   7.227   1.496  13.263 -0.9362  3.4428  0.5168
68085SOL    HW221866   7.243   1.425  13.396 -2.1356 -0.0765 -1.1033
68086SOL     OW21867   0.331   3.561  12.535 -0.7676 -0.2115  0.3428
68086SOL    HW121868   0.383   3.634  12.501 -1.5448 -0.4515 -1.5162
68086SOL    HW221869   0.246   3.569  12.491 -1.2079 -1.6571  0.8516
68087SOL     OW21870   1.643  11.054   8.352  0.5960 -0.4231  0.0318
68087SOL    HW121871   1.703  11.123   8.381 -0.1264  0.1050  0.3133
68087SOL    HW221872   1.568  11.102   8.317  0.1034 -1.0720  0.1940
68088SOL     OW21873   6.900  11.902   7.387 -0.8921  0.3950 -0.2176
68088SOL    HW121874   6.840  11.975   7.403 -1.7258 -0.2025 -0.5495
68088SOL    HW221875   6.964  11.937   7.325 -1.3388  0.8159 -0.4476
68089SOL     OW21876   2.508  13.903  10.663 -0.8878  0.4060  0.2012
68089SOL    HW121877   2.530  13.987  10.623 -2.3402  0.9284  0.4264
68089SOL    HW221878   2.583  13.882  10.718  1.3673 -0.4940 -2.9011
68090SOL     OW21879  14.023   1.738   2.740 -0.2321 -0.3909  0.2934
68090SOL    HW121880  14.047   1.661   2.689  0.9178  1.5111 -2.2500
68090SOL    HW221881  14.090   1.743   2.808  0.8368 -0.6057 -0.7068
68091SOL     OW21882   7.499  11.322   6.297  0.0534 -0.0278  0.0552
68091SOL    HW121883   7.495  11.399   6.354  0.1217  0.4303 -0.5472
68091SOL    HW221884   7.593  11.308   6.283  0.0600 -0.5428  0.5849
68092SOL     OW21885   9.987   1.837   4.054  0.1455 -0.2031 -0.2206
68092SOL    HW121886  10.055   1.810   4.116  1.9806 -0.6835 -2.2841
68092SOL    HW221887   9.976   1.931   4.069  1.4681 -0.0683  0.0469
68093SOL     OW21888   9.265   3.040  11.874  0.1734 -0.0925 -0.3062
68093SOL    HW121889   9.192   3.010  11.929  0.9779 -0.9036  0.3380
68093SOL    HW221890   9.299   3.117  11.919  0.9046 -0.8214  0.4341
68094SOL     OW21891   5.423  12.127   8.031 -0.5397  0.0926 -0.1714
68094SOL    HW121892   5.395  12.089   7.948  1.1537 -1.7655  0.0392
68094SOL    HW221893   5.517  12.110   8.036 -0.5356  0.3605  2.0018
68095SOL     OW21894  10.626  11.394   9.357 -0.3937  0.0513  0.4769
68095SOL    HW121895  10.530  11.396   9.352 -0.5936  0.7086  2.8494
68095SOL    HW221896  10.654  11.472   9.310 -1.0433 -0.0350 -0.0654
68096SOL     OW21897   1.338   0.384   1.439  0.6678 -0.6315 -0.0056
68096SOL    HW121898   1.386   0.437   1.504  0.2743  0.3757 -0.5066
68096SOL    HW221899   1.405   0.332   1.396  1.7396  2.3160 -2.1929
68097SOL     OW21900   3.856  13.504   5.584 -0.1755 -0.2082 -0.5489
68097SOL    HW121901   3.859  13.461   5.670  1.0130  2.0337  0.6226
68097SOL    HW221902   3.806  13.584   5.599 -1.2362 -0.4818 -2.3470
68098SOL     OW21903  12.710  12.110   2.173  0.6706  0.5374 -0.7403
68098SOL    HW121904  12.792  12.120   2.221 -0.0438  0.1950  0.6004
68098SOL    HW221905  12.643  12.142   2.233 -0.3114 -0.4518 -1.2763
68099SOL     OW21906   6.906  11.810   2.802 -0.0238 -0.3966  0.3582
68099SOL    HW121907   6.905  11.756   2.723  0.2164 -0.3178  0.3023
68099SOL    HW221908   6.858  11.758   2.867  1.9193 -1.6216  0.9183
68100SOL     OW21909   8.519   1.315   6.119 -0.0783  0.1299 -0.5190
68100SOL    HW121910   8.459   1.240   6.124  0.7085 -0.4290  1.5061
68100SOL    HW221911   8.528   1.332   6.026  0.1521 -2.6610 -1.0837
68101SOL     OW21912  13.003   8.810   7.925  0.0233 -0.1791 -0.1773
68101SOL    HW121913  13.010   8.890   7.873 -0.6566 -0.3224 -0.4994
68101SOL    HW221914  12.959   8.838   8.006 -0.6617 -0.3102 -0.4969
68102SOL     OW21915  11.099   7.669   5.350 -0.0444 -0.3159  0.2794
68102SOL    HW121916  11.127   7.672   5.259  2.3070  1.7758  0.9479
68102SOL    HW221917  11.158   7.606   5.392 -0.1864 -0.2356  0.6048
68103SOL     OW21918  10.050   7.929  13.273 -0.0001 -0.0674  0.4697
68103SOL    HW121919  10.120   7.865  13.264 -0.8199 -0.9550  0.2098
68103SOL    HW221920   9.993   7.913  13.197 -1.8666 -1.1483  2.0064
68104SOL     OW21921   8.473   0.902   7.493 -0.2251  0.9912  0.1172
68104SOL    HW121922   8.531   0.908   7.417  0.9916  0.8676  1.0039
68104SOL    HW221923   8.431   0.816   7.486  0.4792  0.6536 -0.0040
68105SOL     OW21924   9.098   6.056  13.853 -0.3568  0.8171  0.0045
68105SOL    HW121925   9.116   5.992  13.784 -0.7347  1.1168 -0.3821
68105SOL    HW221926   9.158   6.033  13.924 -2.3244 -1.7151  1.0183
68106SOL     OW21927   9.191   5.257   6.281  0.1890  0.7121  0.2933
68106SOL    HW121928   9.148   5.303   6.209  1.1125  1.5619  0.2693
68106SOL    HW221929   9.280   5.240   6.249 -0.3818 -2.0888 -0.1319
68107SOL     OW21930   3.857  13.286   3.934  0.4822  0.3881 -0.6471
68107SOL    HW121931   3.888  13.245   3.853  0.1651 -0.0844 -0.5345
68107SOL    HW221932   3.837  13.212   3.992  1.2572  0.7341  0.0703
68108SOL     OW21933  12.822   4.800  10.066 -0.0112 -0.0612  0.3114
68108SOL    HW121934  12.774   4.821   9.987 -0.7332  0.9192  0.9826
68108SOL    HW221935  12.771   4.731  10.108 -1.3485  1.5223  1.4224
68109SOL     OW21936   4.422   8.443  11.746 -0.3530  0.0663 -0.4337
68109SOL    HW121937   4.398   8.444  11.838  1.2255  1.4436  0.0069
68109SOL    HW221938   4.485   8.514  11.736  2.2117 -2.2034 -1.8214
68110SOL     OW21939   2.939   5.077   4.577 -0.4398 -0.3158 -0.4216
68110SOL    HW121940   2.876   5.147   4.594 -0.7690 -0.9833  1.3129
68110SOL    HW221941   2.885   4.999   4.562 -0.0552 -0.6119 -0.3020
68111SOL     OW21942   1.776  11.980   4.898 -0.2023 -0.1760  0.5718
68111SOL    HW121943   1.742  11.897   4.930 -1.3212 -0.6363 -1.5818
68111SOL    HW221944   1.700  12.036   4.890  0.4629  0.8787  1.4182
68112SOL     OW21945   5.560   0.086   6.253  0.3929 -0.6251  0.0506
68112SOL    HW121946   5.471   0.108   6.278  0.2066 -0.3457 -0.8082
68112SOL    HW221947   5.614   0.150   6.299  0.0387  0.0674 -0.4731
68113SOL     OW21948  11.829   7.507   8.514 -0.3874  0.2836 -0.5166
68113SOL    HW121949  11.764   7.534   8.450 -0.7262 -1.2481 -0.8593
68113SOL    HW221950  11.803   7.419   8.540 -0.9101  1.2129  2.6167
68114SOL     OW21951   0.332   0.307   9.435 -0.1951  0.0075 -0.5285
68114SOL    HW121952   0.396   0.360   9.388 -0.3930  0.3770 -0.3855
68114SOL    HW221953   0.377   0.225   9.453  0.2822  0.3061 -0.3347
68115SOL     OW21954   4.061  10.166   3.195  0.0768 -0.2179  0.2460
68115SOL    HW121955   4.030  10.243   3.147 -1.4325 -1.0175 -0.1358
68115SOL    HW221956   4.098  10.201   3.276 -0.0462  0.9459 -0.1873
68116SOL     OW21957   8.531   7.425   3.672  0.0918  0.0304  0.0895
68116SOL    HW121958   8.479   7.505   3.682  0.7015  0.2699  1.7450
68116SOL    HW221959   8.613   7.445   3.719  0.8588 -1.0344 -0.7584
68117SOL     OW21960   2.889   6.151   5.484 -0.8032 -0.2783 -0.1561
68117SOL    HW121961   2.949   6.082   5.510 -0.3863 -0.1364 -0.7341
68117SOL    HW221962   2.945   6.225   5.461 -1.2041 -0.0858 -0.5344
68118SOL     OW21963  12.803   4.573   3.292 -0.2554  0.4773 -0.2360
68118SOL    HW121964  12.807   4.484   3.326 -1.8487  0.8357  0.9962
68118SOL    HW221965  12.811   4.563   3.197  3.4169 -0.6220  0.0185
68119SOL     OW21966   3.281   2.369   0.545  0.6728 -0.2857 -0.1708
68119SOL    HW121967   3.287   2.379   0.640  0.8081 -0.1121 -0.1976
68119SOL    HW221968   3.366   2.333   0.519  0.7095 -0.1438 -0.2499
68120SOL     OW21969  12.498   5.966   0.478 -0.1937 -0.0739  0.5678
68120SOL    HW121970  12.421   5.908   0.486 -0.8497  0.8709  1.4473
68120SOL    HW221971  12.476   6.025   0.406 -0.7610  0.8476  1.4735
68121SOL     OW21972  13.602   5.964   7.603  0.2264  0.4942 -0.0022
68121SOL    HW121973  13.545   6.033   7.638  0.8004  1.3237 -0.6662
68121SOL    HW221974  13.667   6.011   7.551 -1.2446 -0.7052 -3.2117
68122SOL     OW21975   0.076  11.312   2.373  0.0237  0.1735  0.4466
68122SOL    HW121976   0.090  11.336   2.281  0.5709  0.2361  0.5461
68122SOL    HW221977   0.104  11.221   2.378  2.4111  0.8937  1.0976
68123SOL     OW21978   8.840  12.636   7.612  0.3837  0.3001  0.2096
68123SOL    HW121979   8.800  12.557   7.649 -0.4620  0.3017 -0.6786
68123SOL    HW221980   8.771  12.701   7.612 -0.0677 -0.0614 -2.4946
68124SOL     OW21981  12.688  11.460  10.503  0.5417 -0.0990  0.0282
68124SOL    HW121982  12.601  11.497  10.522  0.3305  0.3391 -1.6336
68124SOL    HW221983  12.747  11.535  10.506  0.5753 -0.0982 -0.5194
68125SOL     OW21984   6.867   3.217   0.606 -0.1015  0.1103  0.1129
68125SOL    HW121985   6.802   3.264   0.658 -2.2235 -1.7934 -0.6711
68125SOL    HW221986   6.842   3.125   0.613  2.5612 -0.7245 -0.2292
68126SOL     OW21987   1.644   7.219  12.177 -0.7209  0.1808  0.3376
68126SOL    HW121988   1.566   7.177  12.213 -0.7949  0.6809  0.7790
68126SOL    HW221989   1.679   7.156  12.115 -1.0823 -0.3435  0.6604
68127SOL     OW21990   8.590  12.703   4.797 -0.1457  0.0514 -0.1997
68127SOL    HW121991   8.563  12.638   4.862 -0.6147  0.8435  0.4218
68127SOL    HW221992   8.510  12.750   4.775 -0.1256 -0.6515 -1.8928
68128SOL     OW21993   4.999   3.160   8.187 -0.0744 -0.0181  0.2031
68128SOL    HW121994   5.020   3.067   8.171  2.5074  0.1943  1.6659
68128SOL    HW221995   5.077   3.207   8.157 -0.3929  1.4467  1.5369
68129SOL     OW21996   6.980   0.180   8.953  0.3493 -0.3652 -0.4063
68129SOL    HW121997   7.010   0.240   9.021  3.4169 -2.4971  0.3550
68129SOL    HW221998   6.943   0.105   9.001  1.0351 -1.1697 -1.0880
68130SOL     OW21999   3.445   7.910   9.824 -0.2572  0.2896 -0.5421
68130SOL    HW122000   3.522   7.871   9.782  1.1677  0.9463  1.3099
68130SOL    HW222001   3.433   7.858   9.904 -1.3945  0.5571 -0.5266
68131SOL     OW22002   2.044  14.045   1.154  0.1199 -0.2245 -0.6481
68131SOL    HW122003   2.039  14.092   1.237 -1.0371  1.6351 -1.7204
68131SOL    HW222004   1.998  13.962   1.171  0.7574 -0.3167  0.8040
68132SOL     OW22005   1.176  11.841  11.944 -0.2416 -0.3060 -0.1877
68132SOL    HW122006   1.089  11.851  11.983 -0.4452 -1.3628 -0.3341
68132SOL    HW222007   1.190  11.922  11.897 -0.9206  0.1036  0.2882
68133SOL     OW22008   0.236   0.043   0.268 -0.3850  0.1680  0.2257
68133SOL    HW122009   0.171  -0.013   0.310 -0.0353  0.4701  1.2257
68133SOL    HW222010   0.230   0.023   0.175 -1.9309  0.2235  0.2831
68134SOL     OW22011  12.143   2.714   2.465  0.1902  0.4401 -0.0251
68134SOL    HW122012  12.226   2.695   2.509  0.6579  2.7950  0.2431
68134SOL    HW222013  12.105   2.786   2.515 -1.4607  0.2159 -0.8637
68135SOL     OW22014   1.941  11.972   8.708 -0.1513 -0.1148  0.2101
68135SOL    HW122015   1.961  12.066   8.711  0.8011 -0.3252  0.8778
68135SOL    HW222016   1.983  11.941   8.628 -0.5684  0.0475 -0.0740
68136SOL     OW22017   6.071   2.423   0.053  0.1566 -0.0404 -0.4278
68136SOL    HW122018   6.046   2.381  -0.030 -1.5877  2.1070 -1.0938
68136SOL    HW222019   6.050   2.515   0.040  2.0924  0.7640  1.6051
68137SOL     OW22020   4.775   6.714  13.743 -0.2498  0.8473 -0.1423
68137SOL    HW122021   4.730   6.773  13.682  0.3460 -1.3445 -2.9047
68137SOL    HW222022   4.861   6.701  13.705 -0.0678 -1.1375  0.8214
68138SOL     OW22023   9.424   5.152   5.060 -0.4692  0.2301  0.6813
68138SOL    HW122024   9.487   5.160   5.131 -0.0124  1.9669  0.1202
68138SOL    HW222025   9.341   5.181   5.099 -0.8710 -1.6164  1.2889
68139SOL     OW22026  10.398   0.577   5.544 -0.6174  0.1592  0.4368
68139SOL    HW122027  10.385   0.494   5.498 -1.7638 -0.0162  1.0302
68139SOL    HW222028  10.323   0.631   5.517 -0.9471  0.2871  1.5547
68140SOL     OW22029   8.133  13.842   6.921 -0.3958  0.1255  0.0877
68140SOL    HW122030   8.074  13.805   6.987 -1.3444 -1.6457 -1.6192
68140SOL    HW222031   8.219  13.807   6.943 -0.7255 -0.5516  0.3483
68141SOL     OW22032  12.362   5.857   9.422 -0.3647  0.2609 -1.2147
68141SOL    HW122033  12.445   5.891   9.387 -0.5137  0.0666 -1.7704
68141SOL    HW222034  12.376   5.763   9.430 -0.5311  0.2287 -1.3040
68142SOL     OW22035   9.907   2.884   6.161 -0.5545 -0.3035 -0.1062
68142SOL    HW122036   9.927   2.921   6.075 -0.8983  0.0086 -0.0520
68142SOL    HW222037   9.873   2.958   6.212 -0.8663 -0.6041  0.1263
68143SOL     OW22038  10.216   1.160  10.701  0.4648  0.0168 -0.2249
68143SOL    HW122039  10.179   1.089  10.754 -1.9024  0.2442 -1.4404
68143SOL    HW222040  10.301   1.127  10.671 -0.4272 -2.1620 -0.4784
68144SOL     OW22041   7.879   0.967   7.875  0.3389 -0.4399 -0.4416
68144SOL    HW122042   7.939   0.908   7.830 -0.6436 -0.4841 -1.7607
68144SOL    HW222043   7.929   1.000   7.950  1.7452 -0.9997 -1.1024
68145SOL     OW22044  11.711   5.031  12.103  0.4213  0.0760  0.1432
68145SOL    HW122045  11.720   5.126  12.092  2.2533  0.1983  2.2091
68145SOL    HW222046  11.777   4.994  12.045  0.6363  0.1296  0.3523
68146SOL     OW22047   8.923   2.829  11.851  0.3524  0.1915 -0.0213
68146SOL    HW122048   8.973   2.828  11.933  2.0579 -0.4468 -1.0221
68146SOL    HW222049   8.870   2.908  11.856 -1.0050 -0.7643  2.4942
68147SOL     OW22050  11.543   6.746   4.125  0.2750  0.0182 -0.4474
68147SOL    HW122051  11.514   6.833   4.155 -0.4360  0.1816 -1.5358
68147SOL    HW222052  11.605   6.765   4.055  1.6494 -0.3597  0.6281
68148SOL     OW22053   8.223   5.046   2.622 -0.4603 -0.0922  0.1337
68148SOL    HW122054   8.316   5.049   2.599 -1.0654  0.4221 -2.6020
68148SOL    HW222055   8.222   5.025   2.715  2.4336  1.8596  0.7397
68149SOL     OW22056  10.847   1.475   3.346  0.1106  0.2296  0.3882
68149SOL    HW122057  10.870   1.499   3.436 -0.3861  0.2688  0.5051
68149SOL    HW222058  10.925   1.498   3.295  0.9948 -1.2181  1.0345
68150SOL     OW22059  12.347   5.605  10.854  0.0428  0.1531 -0.0134
68150SOL    HW122060  12.361   5.670  10.922  1.5634  0.4238 -0.5529
68150SOL    HW222061  12.341   5.657  10.773  0.2728 -0.3122 -0.3293
68151SOL     OW22062   6.527  10.641   0.233  0.3218 -0.2239 -0.5616
68151SOL    HW122063   6.549  10.643   0.326 -1.4269  0.9298 -0.1100
68151SOL    HW222064   6.551  10.553   0.204 -1.3871 -1.5132  1.6177
68152SOL     OW22065   2.716  12.832   6.560  0.1314 -0.0222 -0.6392
68152SOL    HW122066   2.758  12.746   6.552  2.5015  0.9188  0.6498
68152SOL    HW222067   2.632  12.814   6.601  0.1141 -1.8272 -1.3874
68153SOL     OW22068   9.600  10.795  12.838  0.0412 -0.1907  0.0595
68153SOL    HW122069   9.660  10.852  12.789 -0.2320 -0.0162 -0.0753
68153SOL    HW222070   9.622  10.707  12.809 -0.0159 -0.1003 -0.2713
68154SOL     OW22071   3.297   6.420  11.345  0.1589  0.1455  0.2966
68154SOL    HW122072   3.251   6.387  11.267  2.3889 -1.1823 -0.5578
68154SOL    HW222073   3.381   6.373  11.345  1.0238  1.5353  2.4478
68155SOL     OW22074  12.966  12.243   5.379  0.0486  0.4133 -0.2443
68155SOL    HW122075  12.897  12.248   5.312 -1.7254 -1.6068  1.2950
68155SOL    HW222076  12.921  12.268   5.460  0.9759 -1.3576  0.8718
68156SOL     OW22077   9.163   1.156   8.679 -0.2366 -0.2715  0.3272
68156SOL    HW122078   9.198   1.189   8.762 -0.6207  0.0099  0.3764
68156SOL    HW222079   9.068   1.162   8.689 -0.2746  0.0905 -0.2658
68157SOL     OW22080   7.062  11.593   1.772 -0.0375  0.5856 -0.0224
68157SOL    HW122081   7.131  11.526   1.776 -1.5754 -1.1884 -1.2765
68157SOL    HW222082   7.095  11.656   1.708  1.3306  0.9412  0.9792
68158SOL     OW22083   5.844  13.864   3.282 -0.3459  0.5576  0.5160
68158SOL    HW122084   5.788  13.929   3.241  1.5961  1.3211 -1.1026
68158SOL    HW222085   5.871  13.806   3.211 -0.9395 -1.2524  1.6730
68159SOL     OW22086   2.696   2.166   2.070 -0.0044  0.2230 -0.0210
68159SOL    HW122087   2.687   2.107   1.994  1.0052 -0.0598  0.0732
68159SOL    HW222088   2.669   2.252   2.036  2.5247  0.5694 -1.3501
68160SOL     OW22089   2.770   2.665  12.172  0.4532  0.0178 -0.5313
68160SOL    HW122090   2.847   2.641  12.223  0.2905  1.8084  0.6362
68160SOL    HW222091   2.798   2.740  12.119 -1.0020  2.1782  1.5740
68161SOL     OW22092   4.383  10.065   4.258 -0.1516  0.5634  0.1653
68161SOL    HW122093   4.412  10.076   4.348 -0.7115  1.5616  0.2423
68161SOL    HW222094   4.288  10.056   4.265 -0.0190 -1.4417 -0.1687
68162SOL     OW22095   5.695   5.402  12.393  0.2448 -0.3864 -0.5785
68162SOL    HW122096   5.789   5.421  12.393  0.5458 -1.7681 -0.7586
68162SOL    HW222097   5.690   5.307  12.402 -1.1180 -0.4291 -1.4787
68163SOL     OW22098   8.584   5.771   7.230 -0.5000  0.3356 -0.8719
68163SOL    HW122099   8.500   5.813   7.212 -1.0332 -0.1944  0.3166
68163SOL    HW222100   8.608   5.729   7.147 -2.2396 -0.9401 -0.7868
68164SOL     OW22101   8.545   8.679   7.498  0.1213  0.0947 -0.1719
68164SOL    HW122102   8.490   8.660   7.574  0.6493  1.3074  0.5408
68164SOL    HW222103   8.634   8.679   7.532  0.3126  1.4146 -0.6077
68165SOL     OW22104   0.317   2.529   7.791  0.0265 -0.5517 -0.7377
68165SOL    HW122105   0.292   2.598   7.729 -0.4663 -0.3627 -0.3319
68165SOL    HW222106   0.316   2.449   7.739  1.2321 -0.1876 -1.3785
68166SOL     OW22107   0.030  12.633   6.607  0.3803 -0.7518 -0.1466
68166SOL    HW122108   0.074  12.676   6.534 -1.0710 -0.1072 -0.6779
68166SOL    HW222109  -0.060  12.666   6.604  0.0669 -1.3546  1.4237
68167SOL     OW22110   7.451  11.156   7.094  0.4335  0.4365  0.0774
68167SOL    HW122111   7.454  11.076   7.042 -1.7624  1.1567 -1.2881
68167SOL    HW222112   7.501  11.220   7.043  0.4426  0.4775  0.1377
68168SOL     OW22113  13.271  11.278   8.449 -0.0202 -0.2911 -0.4735
68168SOL    HW122114  13.291  11.214   8.517 -1.9899 -2.3323 -1.6812
68168SOL    HW222115  13.334  11.349   8.464 -0.4409 -0.5347  3.4828
68169SOL     OW22116   7.223   2.323  12.179  0.4492  0.0123  0.3663
68169SOL    HW122117   7.281   2.399  12.185  0.4744  0.0681 -0.4188
68169SOL    HW222118   7.273   2.259  12.128 -0.6767  0.5978 -1.6170
68170SOL     OW22119   0.148   0.545   0.019  0.0769 -0.3921  0.4440
68170SOL    HW122120   0.090   0.525  -0.054 -0.2325 -0.0652  0.5951
68170SOL    HW222121   0.217   0.599  -0.019  0.6536 -1.3203  0.1316
68171SOL     OW22122  12.986   9.453  11.660  0.0798 -0.1330  0.2001
68171SOL    HW122123  13.041   9.469  11.583  0.3082  0.2576  0.4417
68171SOL    HW222124  13.045   9.415  11.725 -0.6407 -2.9621 -0.6759
68172SOL     OW22125   0.613   8.682  13.969  0.1009  0.3116 -0.0079
68172SOL    HW122126   0.678   8.752  13.960 -0.0993  0.6287  0.9018
68172SOL    HW222127   0.541   8.722  14.017 -1.9936  0.7683 -3.2403
68173SOL     OW22128  12.134   7.448   6.504 -0.0924  0.0807 -0.2368
68173SOL    HW122129  12.226   7.472   6.513 -0.1653 -0.1695  1.7368
68173SOL    HW222130  12.132   7.384   6.433  1.1792  0.4486 -0.6182
68174SOL     OW22131   1.710  13.520  13.654  0.1775  0.4945  0.2397
68174SOL    HW122132   1.740  13.436  13.620  0.5741  1.2470 -1.3298
68174SOL    HW222133   1.748  13.525  13.742  0.6457 -0.6828  0.1199
68175SOL     OW22134   1.593   2.938   0.445  0.3064 -0.2377 -0.0009
68175SOL    HW122135   1.569   2.878   0.375  1.5168  0.1952 -0.8222
68175SOL    HW222136   1.534   3.012   0.435 -0.5333 -0.8320  0.4051
68176SOL     OW22137  11.597   0.278  11.615 -0.0165 -0.3623  0.0762
68176SOL    HW122138  11.637   0.197  11.645 -0.8641 -1.0885 -0.6931
68176SOL    HW222139  11.507   0.254  11.593 -0.7835  1.1372  1.3733
68177SOL     OW22140   7.544   6.852   7.913 -0.0490  0.0444  0.0244
68177SOL    HW122141   7.589   6.788   7.857 -0.6076 -0.8770  0.6114
68177SOL    HW222142   7.519   6.803   7.991 -0.4321  1.0051  0.5272
68178SOL     OW22143   0.307  11.917  11.830  0.1533  0.4473 -0.2448
68178SOL    HW122144   0.373  11.877  11.774 -0.2373  1.7258 -1.7147
68178SOL    HW222145   0.253  11.969  11.770 -1.1683  0.7665  1.1401
68179SOL     OW22146   1.626   1.790   2.283 -0.6865  0.1038 -0.0924
68179SOL    HW122147   1.588   1.738   2.211 -1.3859  0.1768  0.2163
68179SOL    HW222148   1.591   1.749   2.362  1.9454 -1.4843  0.3593
68180SOL     OW22149  13.796   4.313   9.954 -0.0143 -0.3752  0.5704
68180SOL    HW122150  13.870   4.260   9.983  0.4091 -0.1230 -0.0278
68180SOL    HW222151  13.799   4.308   9.859 -2.0948 -2.1790  0.5344
68181SOL     OW22152   2.510  12.179   1.774  0.0268 -0.0465  0.1464
68181SOL    HW122153   2.442  12.129   1.728 -0.0962  0.1778  0.0846
68181SOL    HW222154   2.462  12.233   1.837  0.1966 -0.3711  0.5607
68182SOL     OW22155   1.757   3.264   6.461  0.5142 -0.1466  0.4498
68182SOL    HW122156   1.803   3.276   6.544 -0.2775 -0.7383  0.9882
68182SOL    HW222157   1.723   3.351   6.439  2.8486  0.5905 -0.5740
68183SOL     OW22158   5.240   1.066  13.092 -0.1129  0.0779 -0.7890
68183SOL    HW122159   5.207   1.000  13.152 -1.3897  1.5753  0.2137
68183SOL    HW222160   5.215   1.034  13.005 -0.0241 -1.1090 -0.3934
68184SOL     OW22161   2.300   8.183   3.976 -0.3374 -0.3389  0.5817
68184SOL    HW122162   2.352   8.103   3.990  0.8816  0.2450 -0.3517
68184SOL    HW222163   2.224   8.153   3.925  1.4936 -0.5887 -2.2481
68185SOL     OW22164   5.748   9.005   0.179 -0.2924  0.1259 -0.1278
68185SOL    HW122165   5.706   9.066   0.239  1.0777  2.7269 -1.6726
68185SOL    HW222166   5.840   9.031   0.177  0.2408 -1.5981 -1.3407
68186SOL     OW22167  12.896  10.123   0.873  0.4698 -0.1221  0.3137
68186SOL    HW122168  12.848  10.146   0.794  1.1074 -1.6731 -0.5654
68186SOL    HW222169  12.829  10.095   0.935 -0.0276  1.0319  0.3171
68187SOL     OW22170  14.055   2.646   8.845 -0.4352  0.3073  0.8040
68187SOL    HW122171  13.997   2.716   8.815 -0.4686  0.7003  1.7490
68187SOL    HW222172  14.022   2.567   8.803 -1.1483  0.6649  0.6870
68188SOL     OW22173  10.608  10.884   6.401 -0.5189 -0.4742 -0.4615
68188SOL    HW122174  10.612  10.932   6.484 -0.5278 -2.8615  1.0179
68188SOL    HW222175  10.562  10.802   6.422  0.6400 -1.7540 -2.5111
68189SOL     OW22176   9.499  13.536  10.743  0.7230 -0.0902  0.0391
68189SOL    HW122177   9.553  13.482  10.686  1.3042 -0.8357  1.2577
68189SOL    HW222178   9.547  13.542  10.825 -1.4404 -1.6326  1.5401
68190SOL     OW22179  10.831   5.076  12.230 -0.2690  0.0843  0.7009
68190SOL    HW122180  10.744   5.041  12.213  0.0153 -0.0241 -0.5965
68190SOL    HW222181  10.816   5.148  12.292 -1.4018  0.6784 -0.2248
68191SOL     OW22182   4.412   9.175   7.428  0.2299  0.2231 -0.8273
68191SOL    HW122183   4.317   9.182   7.421  0.0596  0.7158  1.2164
68191SOL    HW222184   4.431   9.198   7.519  2.4371  1.5303 -1.5356
68192SOL     OW22185   1.611  13.791   0.742  0.0900 -0.2794 -0.2631
68192SOL    HW122186   1.642  13.789   0.833 -0.4590  0.2276 -0.0531
68192SOL    HW222187   1.679  13.840   0.695 -1.4778  3.0903  0.6820
68193SOL     OW22188  13.757   5.151   5.506  0.0698  0.6531 -0.3246
68193SOL    HW122189  13.685   5.136   5.567  0.4322  1.4016  0.2929
68193SOL    HW222190  13.815   5.076   5.518 -0.0156  0.6438  0.0310
68194SOL     OW22191   6.242   4.982   3.055 -0.4417 -0.1380 -0.2519
68194SOL    HW122192   6.298   5.038   3.108 -0.7198  1.0694 -1.1760
68194SOL    HW222193   6.155   5.022   3.062 -0.7773 -0.8351 -0.4098
68195SOL     OW22194   1.351   4.610   0.964  0.3340  0.1415 -0.5557
68195SOL    HW122195   1.440   4.593   0.932  0.0685 -1.1336 -0.6917
68195SOL    HW222196   1.310   4.661   0.894  0.7530  0.1337 -0.8124
68196SOL     OW22197   2.821  13.838  10.235  0.1507 -0.1078 -0.0522
68196SOL    HW122198   2.912  13.851  10.259  0.0024 -1.2053  1.2432
68196SOL    HW222199   2.784  13.926  10.227  1.5714  0.3793 -1.7206
68197SOL     OW22200  13.528   3.996  10.347  0.4855  0.3661 -0.4342
68197SOL    HW122201  13.509   3.973  10.438  0.0762 -1.5121 -0.9610
68197SOL    HW222202  13.533   4.092  10.347 -2.7503  0.6358  0.9247
68198SOL     OW22203   7.433  13.219   2.233  0.1516 -0.7375  0.5368
68198SOL    HW122204   7.516  13.179   2.261 -0.7003 -2.0988  1.2022
68198SOL    HW222205   7.373  13.202   2.305 -0.2304  2.0611  1.0230
68199SOL     OW22206   0.482   6.733   5.317 -0.3444 -0.0195 -0.4750
68199SOL    HW122207   0.521   6.662   5.367 -0.2619  0.0164 -0.4883
68199SOL    HW222208   0.400   6.754   5.363 -0.2068  0.0980 -0.2860
68200SOL     OW22209   6.087  12.911   8.498 -0.0171  0.1003  0.3784
68200SOL    HW122210   6.056  12.907   8.408 -2.5854  1.2621  1.1417
68200SOL    HW222211   6.127  12.998   8.506 -0.8177  0.4501  0.6463
68201SOL     OW22212  13.589   4.841   9.599 -0.8622  0.0954  0.1436
68201SOL    HW122213  13.683   4.821   9.604 -0.4510  2.0760  1.2193
68201SOL    HW222214  13.549   4.784   9.665 -0.3590 -0.3960  0.0325
68202SOL     OW22215   8.354   7.418  12.595 -0.0913 -0.3742  0.9017
68202SOL    HW122216   8.427   7.418  12.657 -0.0145  3.0171  1.0138
68202SOL    HW222217   8.282   7.458  12.644 -0.0556  2.3100 -1.0472
68203SOL     OW22218  12.453   3.454   7.345 -0.2669  0.0752  0.0034
68203SOL    HW122219  12.534   3.505   7.355  1.7765 -2.7555 -0.7703
68203SOL    HW222220  12.399   3.506   7.285  1.2813  1.7379 -0.0348
68204SOL     OW22221   9.258  13.710   0.398  0.1471  0.4874  0.6818
68204SOL    HW122222   9.215  13.685   0.480 -0.3694  2.0467  0.9072
68204SOL    HW222223   9.260  13.805   0.399 -0.0930  0.5566 -1.2461
68205SOL     OW22224   9.620   0.812   7.974 -0.2880  0.5369  0.3190
68205SOL    HW122225   9.655   0.891   7.934  0.1462 -0.2748 -0.9784
68205SOL    HW222226   9.687   0.786   8.038  0.8591 -0.1889 -1.1052
68206SOL     OW22227  10.113   7.067  14.043  0.0802  0.6001 -0.3217
68206SOL    HW122228  10.141   7.069  13.952 -3.4187 -0.7493 -1.5732
68206SOL    HW222229  10.033   7.119  14.046 -1.0030 -1.0229  1.5106
68207SOL     OW22230   1.264   4.834   0.808 -0.1767 -1.1193 -0.0774
68207SOL    HW122231   1.171   4.836   0.831 -0.7424  0.5664 -2.2103
68207SOL    HW222232   1.265   4.809   0.716  1.5178 -1.3070 -0.0284
68208SOL     OW22233   2.099   8.699   6.187  0.1904 -0.5517 -0.3510
68208SOL    HW122234   2.148   8.667   6.263  1.8716 -1.0169 -1.5757
68208SOL    HW222235   2.032   8.632   6.172  0.7995 -1.2203 -0.1693
68209SOL     OW22236  12.251   5.796  12.976  0.5867 -0.3966  0.6324
68209SOL    HW122237  12.335   5.813  12.932 -0.8106  0.9714 -1.7625
68209SOL    HW222238  12.220   5.883  13.002 -0.9175 -0.6121 -0.2963
68210SOL     OW22239  11.357  10.829  13.649  0.3316  0.2434 -0.2961
68210SOL    HW122240  11.354  10.874  13.734 -0.5259 -1.1648  0.4537
68210SOL    HW222241  11.450  10.823  13.629  0.4935  2.6505 -0.6281
68211SOL     OW22242   3.870   1.646  11.386  0.8440  0.0069  0.2064
68211SOL    HW122243   3.808   1.642  11.459  1.6454 -0.9594  0.8771
68211SOL    HW222244   3.857   1.732  11.346 -2.4956 -0.9737 -1.1040
68212SOL     OW22245   5.570  10.215   9.520  0.1764 -0.4036 -0.0666
68212SOL    HW122246   5.577  10.166   9.438 -1.5853 -1.2744  0.2586
68212SOL    HW222247   5.584  10.306   9.494 -0.1675 -0.6810 -1.3079
68213SOL     OW22248   3.463   7.904  11.344  0.0182  0.0388  0.4357
68213SOL    HW122249   3.497   7.872  11.428 -1.9677  0.1010  1.3237
68213SOL    HW222250   3.403   7.975  11.369 -1.8014 -0.9611 -0.8778
68214SOL     OW22251   9.311  11.149   8.539  1.0038 -0.2594 -0.3768
68214SOL    HW122252   9.293  11.070   8.590  1.1684 -0.1416 -0.1328
68214SOL    HW222253   9.240  11.154   8.475  0.4679 -0.0996  0.2139
68215SOL     OW22254   9.059  12.832   3.039 -0.4423  0.5913  0.1275
68215SOL    HW122255   8.976  12.880   3.037  0.3733  2.0814 -1.5538
68215SOL    HW222256   9.113  12.881   3.101 -0.8458 -0.5091  1.3939
68216SOL     OW22257  10.424   1.196  12.546 -0.2458 -0.2534 -0.2650
68216SOL    HW122258  10.421   1.236  12.633  1.0777 -0.1484 -0.2446
68216SOL    HW222259  10.487   1.124  12.555 -0.4382 -0.5228 -1.0179
68217SOL     OW22260   2.493   1.607   6.835 -0.5159 -0.1293 -0.1080
68217SOL    HW122261   2.424   1.669   6.857 -0.9621 -0.7720  0.3350
68217SOL    HW222262   2.494   1.545   6.908 -1.7858 -2.0899 -1.6508
68218SOL     OW22263   6.492  13.118   2.714 -0.7934 -0.6588 -0.0798
68218SOL    HW122264   6.526  13.160   2.635 -0.5742 -0.2216  0.2472
68218SOL    HW222265   6.569  13.105   2.770 -1.2123  0.8630  0.9090
68219SOL     OW22266  10.832   5.335   2.856  0.5486 -0.7670  0.3481
68219SOL    HW122267  10.916   5.339   2.901  0.8462  0.3783 -0.2505
68219SOL    HW222268  10.845   5.389   2.778 -0.6041 -0.9557  0.0096
68220SOL     OW22269   5.348  10.314   9.691  0.1551  0.0214  0.0925
68220SOL    HW122270   5.404  10.283   9.620  0.3104 -0.3488  0.3748
68220SOL    HW222271   5.400  10.381   9.736  0.0917  0.1897 -0.0824
68221SOL     OW22272   2.872   2.302   3.383 -0.0810  0.2312  0.0814
68221SOL    HW122273   2.821   2.383   3.381  0.5678  0.6385 -0.5923
68221SOL    HW222274   2.920   2.302   3.300 -1.1473 -1.5386 -0.6088
68222SOL     OW22275   5.308   7.132   9.359 -0.3227  0.5071  0.6363
68222SOL    HW122276   5.298   7.052   9.308  1.1748  0.1074  0.9187
68222SOL    HW222277   5.328   7.200   9.295 -0.6347  0.4609  0.4890
68223SOL     OW22278   8.912  12.891  11.910  0.0884  0.2479 -0.3579
68223SOL    HW122279   8.985  12.832  11.892 -0.3542 -0.4839  0.1815
68223SOL    HW222280   8.913  12.903  12.005  0.3663  1.3741 -0.4926
68224SOL     OW22281   0.434   0.343   3.905  0.2065 -0.4319  0.2496
68224SOL    HW122282   0.388   0.425   3.923 -0.4781 -0.3968 -1.4588
68224SOL    HW222283   0.510   0.345   3.963  0.2956  1.4894  0.1321
68225SOL     OW22284   4.970   2.181  10.433  0.7198 -0.2042  0.9317
68225SOL    HW122285   4.915   2.258  10.422 -0.0331 -0.7538  0.6937
68225SOL    HW222286   4.912   2.117  10.475  0.7194 -1.2857 -0.6411
68226SOL     OW22287   9.808   5.856  12.337  0.1411  0.1525 -0.1256
68226SOL    HW122288   9.784   5.902  12.418 -0.0565 -2.1759  1.2290
68226SOL    HW222289   9.902   5.841  12.344  0.5491  1.8149 -1.4088
68227SOL     OW22290   6.662  11.283   9.031 -0.0018  0.1449 -0.1220
68227SOL    HW122291   6.688  11.371   9.059  0.1880 -0.2488  0.9980
68227SOL    HW222292   6.600  11.253   9.098  1.0188 -1.1128  0.3094
68228SOL     OW22293   8.725   4.893  12.786  0.1354  0.0848  0.0369
68228SOL    HW122294   8.684   4.912  12.702  0.2165  0.0056 -0.0219
68228SOL    HW222295   8.819   4.899  12.769  0.1909 -1.0229 -0.1503
68229SOL     OW22296   1.932   0.328  10.032 -0.4025 -0.1422 -0.0171
68229SOL    HW122297   1.987   0.375   9.969  0.6596 -0.9927  0.2376
68229SOL    HW222298   1.962   0.237  10.025 -1.9144 -0.6695  0.0099
68230SOL     OW22299   5.113  11.938   0.462  0.6435 -0.2256 -0.2709
68230SOL    HW122300   5.181  11.878   0.492  0.4438 -0.1721  0.2877
68230SOL    HW222301   5.112  12.008   0.526  0.2665 -0.0734 -0.4410
68231SOL     OW22302   2.137  11.766  11.589  0.0558  0.7601 -0.0370
68231SOL    HW122303   2.122  11.724  11.674  2.4942 -0.1124  0.0365
68231SOL    HW222304   2.097  11.706  11.525 -2.9748  2.0599  0.4524
68232SOL     OW22305   3.041   1.662  13.556  0.0512 -0.5496  0.4311
68232SOL    HW122306   3.109   1.727  13.573 -1.3011  1.0548 -0.1388
68232SOL    HW222307   3.057   1.632  13.467  0.8956 -1.3232  0.8192
68233SOL     OW22308  13.177   2.827   4.581  0.0871 -0.4750  0.5441
68233SOL    HW122309  13.167   2.910   4.628 -0.3586 -1.1703  1.7436
68233SOL    HW222310  13.265   2.797   4.605 -1.0447 -2.0713  3.1503
68234SOL     OW22311   4.492   5.445   5.477  0.0934  0.3414 -0.1967
68234SOL    HW122312   4.543   5.408   5.405 -0.8040 -0.1400 -0.6170
68234SOL    HW222313   4.524   5.399   5.555  1.4895  1.2950 -0.1775
68235SOL     OW22314   4.885  12.082   4.860 -0.4725  0.0090 -0.0572
68235SOL    HW122315   4.889  11.991   4.891 -2.2368  0.0235  0.3226
68235SOL    HW222316   4.937  12.082   4.780 -0.9948 -1.5018 -0.4306
68236SOL     OW22317   8.570   8.736  13.726 -0.0531 -0.4828  0.2859
68236SOL    HW122318   8.490   8.742  13.673 -0.0478  0.2671  0.3450
68236SOL    HW222319   8.602   8.826  13.730  1.6765 -0.9703 -1.0922
68237SOL     OW22320   5.060   3.161  12.054 -0.4118 -0.2967  0.2516
68237SOL    HW122321   5.014   3.081  12.028  1.1247 -1.5643  1.2129
68237SOL    HW222322   5.137   3.130  12.103 -0.4180  1.8020  1.7380
68238SOL     OW22323  13.360   8.301   4.052 -0.0708  0.2196 -0.0594
68238SOL    HW122324  13.299   8.271   3.984 -1.9928 -1.7556  2.3232
68238SOL    HW222325  13.307   8.303   4.132  2.2268  1.7807  1.5375
68239SOL     OW22326  12.909  13.623   3.142 -0.0062 -0.1649 -0.4026
68239SOL    HW122327  12.983  13.606   3.084 -0.1082  0.2591 -0.6655
68239SOL    HW222328  12.832  13.615   3.085 -0.2376 -1.5171  0.0638
68240SOL     OW22329   4.977   1.264   0.284  0.0522  0.0107 -0.1620
68240SOL    HW122330   5.003   1.177   0.315  0.8078  0.6847  1.1671
68240SOL    HW222331   5.004   1.264   0.192  2.6045 -0.2408  0.4980
68241SOL     OW22332   5.221   0.471   1.206 -0.4706 -0.0342  0.1080
68241SOL    HW122333   5.201   0.423   1.286  0.2018  0.4950  0.6139
68241SOL    HW222334   5.300   0.430   1.172  0.2681  0.8452  0.6913
68242SOL     OW22335  13.850   3.558   6.604 -0.0385  0.0430  0.0208
68242SOL    HW122336  13.855   3.653   6.608  2.5382 -0.0537  0.4607
68242SOL    HW222337  13.836   3.539   6.511  0.3119  0.8190 -0.1969
68243SOL     OW22338   9.674   0.493  10.891  0.3457  0.3531 -0.3636
68243SOL    HW122339   9.665   0.465  10.982  0.1556  0.5233 -0.3316
68243SOL    HW222340   9.757   0.455  10.863  0.3158  0.1472 -0.1749
68244SOL     OW22341  11.077   3.212   8.482 -0.2962 -0.1885 -0.1510
68244SOL    HW122342  11.047   3.261   8.558  1.3605  1.2109 -0.3328
68244SOL    HW222343  11.021   3.241   8.411 -0.2949  0.3273  0.0533
68245SOL     OW22344   4.940  12.208   8.112 -0.6816  0.1750 -0.4213
68245SOL    HW122345   5.019  12.238   8.157 -1.1922 -0.3777  0.9221
68245SOL    HW222346   4.868  12.244   8.164 -1.2924 -1.0650 -0.3720
68246SOL     OW22347  12.865  10.662  11.134  0.0105  0.4933 -0.4878
68246SOL    HW122348  12.911  10.584  11.104 -1.1540 -0.5473  0.3337
68246SOL    HW222349  12.855  10.716  11.056  0.8818 -0.1356 -1.0489
68247SOL     OW22350  10.967   7.254   0.966  0.0985  0.1875 -0.1443
68247SOL    HW122351  11.033   7.199   0.924  0.6099  0.2572  0.5595
68247SOL    HW222352  11.007   7.341   0.971  1.0438 -0.3217  2.6418
68248SOL     OW22353   9.926   4.304  12.587  0.6832  0.3504 -0.2516
68248SOL    HW122354   9.878   4.261  12.657  0.8134  1.1286  0.3382
68248SOL    HW222355   9.866   4.370  12.553  0.5566 -0.1415 -1.0030
68249SOL     OW22356   1.559   4.594  10.400 -0.0674 -0.5409  0.1801
68249SOL    HW122357   1.493   4.641  10.450 -0.2681 -0.1232 -0.4552
68249SOL    HW222358   1.511   4.557  10.325  0.5459  0.5212 -0.7747
68250SOL     OW22359   5.417  11.704  10.574  0.1367  0.3946  0.9274
68250SOL    HW122360   5.403  11.610  10.578  2.3416  0.0048  0.7569
68250SOL    HW222361   5.333  11.740  10.544 -0.8463 -1.4540  1.3296
68251SOL     OW22362  12.351  10.044   5.532 -0.6173  0.1797  0.0166
68251SOL    HW122363  12.276  10.060   5.475 -1.6942 -1.1757  0.9659
68251SOL    HW222364  12.385  10.131   5.552 -0.9296  0.7390 -1.6989
68252SOL     OW22365  10.187   3.112  10.399  0.3437  0.2075  0.6628
68252SOL    HW122366  10.124   3.048  10.367 -0.1985  0.1375  1.8422
68252SOL    HW222367  10.267   3.093  10.349 -0.5779  0.4268 -0.9874
68253SOL     OW22368  13.711   2.166  12.382 -0.0830  0.1188  0.2069
68253SOL    HW122369  13.720   2.144  12.289 -0.1957  0.5685  0.0875
68253SOL    HW222370  13.623   2.138  12.405  0.1742 -0.6053  0.3542
68254SOL     OW22371  13.498   4.864  12.337  0.6823 -0.3753  0.1706
68254SOL    HW122372  13.540   4.792  12.290  1.1832 -0.0857  0.1661
68254SOL    HW222373  13.494   4.834  12.428 -1.2411 -1.3766 -0.2002
68255SOL     OW22374  10.726  12.720   0.954 -0.7514 -0.0751  0.4526
68255SOL    HW122375  10.663  12.763   0.896 -1.2804  1.1464  1.8918
68255SOL    HW222376  10.700  12.628   0.951 -1.4712  0.1291 -0.3767
68256SOL     OW22377   9.724   4.144  13.109  0.0101  0.2479  0.2894
68256SOL    HW122378   9.751   4.117  13.196  0.4822  0.3775  0.1882
68256SOL    HW222379   9.703   4.237  13.118 -0.2132  0.1936  0.3259
68257SOL     OW22380   9.075   6.199  10.960  0.1607 -0.0844  0.5045
68257SOL    HW122381   9.080   6.280  11.011 -0.0024 -0.1902  0.6882
68257SOL    HW222382   9.098   6.226  10.871  0.0541  0.1765  0.5536
68258SOL     OW22383  11.048   5.526  13.521 -0.1824 -0.7476 -0.6437
68258SOL    HW122384  11.115   5.526  13.589  0.0903  0.5545 -0.8932
68258SOL    HW222385  11.096   5.543  13.439 -0.5367 -2.0548 -1.1463
68259SOL     OW22386  13.346  13.796   7.801 -0.8448  0.2967 -0.4390
68259SOL    HW122387  13.420  13.736   7.813 -1.3608 -0.6329 -1.7069
68259SOL    HW222388  13.278  13.762   7.859  0.0070  1.7813  1.5679
68260SOL     OW22389  10.042  10.364   9.480  0.1780  0.2453 -0.6730
68260SOL    HW122390  10.114  10.335   9.423  1.4522  3.0158 -0.6531
68260SOL    HW222391   9.989  10.421   9.424 -0.3357  0.5289  0.0833
68261SOL     OW22392  13.961  13.457   4.362  0.3035 -0.2077 -0.1824
68261SOL    HW122393  14.038  13.403   4.344 -1.4585 -1.9762 -3.4340
68261SOL    HW222394  13.981  13.542   4.321  1.2652  0.0520  0.7923
68262SOL     OW22395   1.993  10.105   4.771 -0.2264  0.0396 -0.1844
68262SOL    HW122396   2.022  10.025   4.728  0.2050  0.9897 -1.7382
68262SOL    HW222397   2.043  10.107   4.853 -0.2879 -1.2857 -0.0876
68263SOL     OW22398   8.902  11.322   7.554  0.7130  0.5787 -0.6684
68263SOL    HW122399   8.866  11.385   7.491  0.6151 -0.2393 -1.4552
68263SOL    HW222400   8.844  11.328   7.630 -1.0663 -0.6334 -1.8594
68264SOL     OW22401   8.664  12.771   6.459  0.5335  0.4183  0.1453
68264SOL    HW122402   8.728  12.747   6.392 -0.5443 -1.0992 -0.4249
68264SOL    HW222403   8.674  12.704   6.527  0.0278  0.5731  0.3798
68265SOL     OW22404   4.362   7.349   6.253 -0.1305  0.7997 -0.3554
68265SOL    HW122405   4.374   7.424   6.196 -0.6222  0.2451 -1.1977
68265SOL    HW222406   4.287   7.302   6.218  0.6962 -0.5733 -0.3890
68266SOL     OW22407  13.772  10.873  12.658  0.0030 -0.0633 -0.4465
68266SOL    HW122408  13.821  10.798  12.691 -0.2856  0.1511  0.5096
68266SOL    HW222409  13.791  10.875  12.564 -0.8312 -1.9732 -0.7103
68267SOL     OW22410   6.366  10.068   1.857  0.3001  0.3585 -0.5834
68267SOL    HW122411   6.450  10.091   1.818 -0.2173  1.8270 -0.8762
68267SOL    HW222412   6.303  10.124   1.812 -0.3673  1.9148  2.1210
68268SOL     OW22413   2.714   7.734   3.755 -0.1606 -0.0063  0.0865
68268SOL    HW122414   2.745   7.821   3.729  0.8410 -0.2331  0.4678
68268SOL    HW222415   2.742   7.726   3.846 -1.3054 -0.2624  0.4325
68269SOL     OW22416   6.252   4.460   1.389 -0.0986 -0.3437 -0.3299
68269SOL    HW122417   6.298   4.526   1.338 -0.1411 -0.6126 -0.7140
68269SOL    HW222418   6.247   4.497   1.477 -0.6982  0.4533 -0.6909
68270SOL     OW22419   5.369  12.237   3.776  0.0574 -0.5445 -0.1775
68270SOL    HW122420   5.402  12.314   3.822  1.2801 -1.2442  0.1681
68270SOL    HW222421   5.306  12.198   3.836 -2.5181  1.5092 -1.3541
68271SOL     OW22422  13.906   6.986   7.861  0.1334 -0.0085 -0.1768
68271SOL    HW122423  13.860   6.905   7.884 -2.5386  1.0297 -1.3796
68271SOL    HW222424  13.972   6.997   7.929 -0.7732 -2.1494  1.1489
68272SOL     OW22425  12.254   3.363   3.609 -0.2171 -0.6469  0.7887
68272SOL    HW122426  12.329   3.417   3.631  0.7387 -2.0888  1.1982
68272SOL    HW222427  12.291   3.287   3.564 -1.5534 -0.7823 -0.1604
68273SOL     OW22428   7.856   7.033  13.460  0.1553 -0.4552  0.1059
68273SOL    HW122429   7.811   6.948  13.456 -0.6714  0.0078 -2.7382
68273SOL    HW222430   7.793   7.090  13.504 -0.5522 -0.6679 -0.5916
68274SOL     OW22431  13.178  11.585   9.087 -0.1648 -0.0769 -0.4420
68274SOL    HW122432  13.215  11.506   9.048  0.5206 -0.2544  0.5476
68274SOL    HW222433  13.108  11.611   9.027  0.4029 -0.7412 -1.4045
68275SOL     OW22434  13.698  14.000  13.192 -0.0406 -0.0579 -0.5541
68275SOL    HW122435  13.700  14.034  13.102 -0.3699 -0.6601 -0.7953
68275SOL    HW222436  13.605  13.989  13.211  0.0524 -2.4913 -1.1436
68276SOL     OW22437  11.075   9.763   7.410 -0.5876  0.0357 -0.2664
68276SOL    HW122438  11.094   9.826   7.479 -1.4342 -1.0501  0.9916
68276SOL    HW222439  11.048   9.684   7.456  0.7307 -1.3776 -1.7878
68277SOL     OW22440   6.782   4.199   5.610  0.0353 -0.1609 -0.2803
68277SOL    HW122441   6.759   4.193   5.517 -0.7214  2.0452 -0.3003
68277SOL    HW222442   6.729   4.131   5.652 -2.1382  0.9240 -1.0950
68278SOL     OW22443  12.249  12.891   0.949  0.2805  0.2863  0.0125
68278SOL    HW122444  12.250  12.859   0.858  0.5667  0.0057  0.1106
68278SOL    HW222445  12.170  12.851   0.987 -0.7085  1.6466 -0.5355
68279SOL     OW22446   9.148   6.790   8.855 -0.0226  0.3954 -0.4891
68279SOL    HW122447   9.059   6.773   8.824 -0.0741 -2.4373  0.8900
68279SOL    HW222448   9.204   6.772   8.779 -0.5245  1.5530 -1.1718
68280SOL     OW22449   1.810  13.835  13.940  0.1035  0.0792 -0.1946
68280SOL    HW122450   1.842  13.903  13.880 -0.6566  0.6255  0.0039
68280SOL    HW222451   1.716  13.830  13.922  0.0756 -0.6075  0.1134
68281SOL     OW22452   3.020   2.880   0.342 -0.3973  0.2985 -0.2426
68281SOL    HW122453   3.078   2.804   0.349 -0.1654  0.4275 -0.7297
68281SOL    HW222454   2.934   2.842   0.323 -0.0602  0.1926 -1.7008
68282SOL     OW22455   0.409   3.312   4.502  0.2416  0.2177 -0.3431
68282SOL    HW122456   0.474   3.291   4.434  1.5167  1.3662  0.4722
68282SOL    HW222457   0.438   3.263   4.579 -0.3140  0.1401 -0.1785
68283SOL     OW22458  10.561   6.017   7.895 -0.3860  0.1919 -0.1100
68283SOL    HW122459  10.627   5.949   7.894 -0.5146  0.0283 -2.2894
68283SOL    HW222460  10.499   5.992   7.827 -1.6254  1.3714  0.5223
68284SOL     OW22461   3.541   1.388   9.319 -0.3483 -0.0227 -0.2575
68284SOL    HW122462   3.492   1.388   9.237 -2.5817 -2.6542  0.9031
68284SOL    HW222463   3.544   1.295   9.345  1.7373  0.5326  1.8160
68285SOL     OW22464  10.429   9.544   4.003 -0.2642  0.1432  0.2984
68285SOL    HW122465  10.522   9.538   4.026  0.6312  1.7633 -2.4039
68285SOL    HW222466  10.383   9.538   4.086  2.4813  3.3817  2.3330
68286SOL     OW22467  13.253   0.247   0.571 -0.5056  0.0401  0.0106
68286SOL    HW122468  13.205   0.242   0.488 -4.0410 -0.7448  1.9285
68286SOL    HW222469  13.258   0.341   0.590 -0.9268  0.1462 -0.3857
68287SOL     OW22470  12.025   9.148   9.246  0.2083 -0.4700 -0.6481
68287SOL    HW122471  12.106   9.189   9.215 -0.6128  1.1568 -0.7202
68287SOL    HW222472  12.051   9.058   9.267  2.2833  0.2862  0.3449
68288SOL     OW22473   1.966   5.833   0.184 -0.2654  0.3473  0.2778
68288SOL    HW122474   1.916   5.769   0.234 -0.4573 -0.5920 -1.0630
68288SOL    HW222475   2.052   5.834   0.225  0.4443 -2.3950 -0.9062
68289SOL     OW22476   3.468   7.728   4.510  0.1389 -0.3517 -0.5458
68289SOL    HW122477   3.455   7.793   4.578  0.2789 -0.5096 -0.3673
68289SOL    HW222478   3.388   7.676   4.510  0.7998 -1.4518  0.6905
68290SOL     OW22479   8.702   9.169   4.745 -0.1991 -0.0191  0.2433
68290SOL    HW122480   8.795   9.155   4.764  0.3066  2.6604  0.1633
68290SOL    HW222481   8.701   9.197   4.654 -1.1245 -0.2296  0.1845
68291SOL     OW22482   2.972   2.397   0.560 -0.0426  0.6648  0.0254
68291SOL    HW122483   2.945   2.340   0.632  0.1550  0.5258 -0.0119
68291SOL    HW222484   3.067   2.404   0.569 -0.0239  0.6949 -0.1887
68292SOL     OW22485  12.146   3.932   4.848  0.4797  0.4139 -0.2805
68292SOL    HW122486  12.080   3.964   4.909  0.2055 -0.3160 -0.1760
68292SOL    HW222487  12.214   3.893   4.904  0.7917  0.7793 -0.4025
68293SOL     OW22488  12.368   7.169   3.292 -0.1694  0.3644 -0.4175
68293SOL    HW122489  12.407   7.205   3.372 -1.5615 -2.5026  1.7646
68293SOL    HW222490  12.304   7.235   3.265 -1.1923  0.5850  2.1594
68294SOL     OW22491   4.502   1.245   6.085  0.3887  0.3459 -0.2726
68294SOL    HW122492   4.498   1.169   6.028 -0.8659 -0.7119  1.1693
68294SOL    HW222493   4.425   1.239   6.140  1.2785  1.5986  1.2191
68295SOL     OW22494   2.144   4.140   2.460 -0.4699  0.3908 -0.1792
68295SOL    HW122495   2.184   4.082   2.525 -0.5454 -0.5293 -0.9404
68295SOL    HW222496   2.219   4.185   2.420 -0.2221 -0.8121 -1.1133
68296SOL     OW22497  12.954   8.011   8.015  0.1362 -0.6937  0.0582
68296SOL    HW122498  13.033   7.957   8.012  0.4516 -0.2262 -0.2058
68296SOL    HW222499  12.891   7.959   8.065  0.9444 -0.6303  1.1785
68297SOL     OW22500   4.941  11.340   8.040 -0.5622  0.0274  0.2651
68297SOL    HW122501   4.920  11.402   8.110 -1.7464  0.4791 -0.4642
68297SOL    HW222502   4.995  11.273   8.083  0.7920  1.5496  1.0596
68298SOL     OW22503   2.381  12.531   7.016 -0.1642 -0.3812 -0.3911
68298SOL    HW122504   2.341  12.511   7.100  0.2757  1.9687  0.4685
68298SOL    HW222505   2.320  12.592   6.975  1.8548  2.4874  0.5081
68299SOL     OW22506   9.191   3.032  10.450 -0.2272 -0.6448  0.3876
68299SOL    HW122507   9.220   3.059  10.537 -1.0445  1.0440  0.1641
68299SOL    HW222508   9.112   3.083  10.434  0.9201  0.5064 -2.1208
68300SOL     OW22509  12.099   2.706  10.075  0.2827 -0.1960 -0.4744
68300SOL    HW122510  12.107   2.629  10.131  0.7689  0.3666  0.2492
68300SOL    HW222511  12.033   2.760  10.118  1.3110  0.6600  0.0656
68301SOL     OW22512   5.772   3.519  10.905  0.0394  0.5678 -0.2860
68301SOL    HW122513   5.770   3.566  10.822 -0.6694  1.5741  0.2847
68301SOL    HW222514   5.729   3.577  10.967  0.2828 -0.2985  0.7287
68302SOL     OW22515   4.598  12.641   2.221  0.0791 -0.9116 -0.2097
68302SOL    HW122516   4.503  12.637   2.210  0.0014 -1.6632  0.6644
68302SOL    HW222517   4.613  12.621   2.313  1.0747 -0.4610 -0.2553
68303SOL     OW22518   0.472   1.335  10.544 -0.0303  0.3028 -0.1963
68303SOL    HW122519   0.539   1.394  10.580 -0.3093 -0.8462  2.4654
68303SOL    HW222520   0.513   1.249  10.547 -1.5992 -0.4616  1.7413
68304SOL     OW22521   0.469  12.042   4.192  0.3504 -0.0799  0.1469
68304SOL    HW122522   0.428  11.989   4.260 -1.0763  0.1105 -0.5286
68304SOL    HW222523   0.446  12.133   4.215  2.0469  0.2076  0.8201
68305SOL     OW22524  12.987  11.302  11.937 -0.2127 -0.8960 -0.3683
68305SOL    HW122525  13.051  11.355  11.985 -0.9131 -0.0939 -0.2954
68305SOL    HW222526  12.960  11.234  11.998  1.5319 -2.0577 -0.8319
68306SOL     OW22527   1.467   3.302   0.952 -0.4407  0.4956 -0.7160
68306SOL    HW122528   1.485   3.343   0.868 -1.9932 -1.2790 -1.9822
68306SOL    HW222529   1.425   3.219   0.930  0.4347 -0.7069  1.7841
68307SOL     OW22530  13.150  11.245   9.617  0.5654 -0.1548  0.3022
68307SOL    HW122531  13.156  11.189   9.540 -0.3435  0.9480 -0.6022
68307SOL    HW222532  13.193  11.327   9.590  2.0467 -0.4290  1.6555
68308SOL     OW22533   9.401  14.013   6.226 -0.4251  0.0562 -0.2510
68308SOL    HW122534   9.398  14.101   6.189 -0.4508  0.0395 -0.2893
68308SOL    HW222535   9.324  14.008   6.283 -0.5857 -0.0348 -0.4670
68309SOL     OW22536   8.657   9.646  13.756  0.2611 -0.0568 -0.1749
68309SOL    HW122537   8.615   9.585  13.694 -0.7204  1.0762 -0.6830
68309SOL    HW222538   8.731   9.597  13.792 -0.7012 -1.6745 -0.2807
68310SOL     OW22539   9.622  10.089   0.424  0.3700  0.0708  0.5619
68310SOL    HW122540   9.575  10.076   0.506 -0.7693 -2.1806 -0.3490
68310SOL    HW222541   9.714  10.073   0.446 -0.0778 -1.9681  1.1876
68311SOL     OW22542   9.247  13.466   8.145  0.7389  0.2295 -0.0636
68311SOL    HW122543   9.330  13.450   8.189  0.6281  0.5280  0.2646
68311SOL    HW222544   9.185  13.483   8.217  0.9428  2.5904 -0.3635
68312SOL     OW22545  12.376   2.663  12.332  0.3760  0.3264 -0.5868
68312SOL    HW122546  12.282   2.674  12.317  0.0036 -1.1729  0.4348
68312SOL    HW222547  12.391   2.699  12.420  0.6748  0.1565 -0.5669
68313SOL     OW22548   1.784   6.943   2.620  0.0234  0.5434 -0.1435
68313SOL    HW122549   1.792   6.875   2.553  2.2902  0.8040 -0.2065
68313SOL    HW222550   1.779   7.025   2.570  0.4333  0.6398 -0.0307
68314SOL     OW22551  13.993  12.198   3.992  0.2258  0.5008  0.7122
68314SOL    HW122552  13.901  12.214   3.972  0.4678 -1.4393 -2.6635
68314SOL    HW222553  14.039  12.273   3.954  0.1821  0.1301 -0.1038
68315SOL     OW22554   3.350   7.059  10.112  0.1865  0.0170 -0.0464
68315SOL    HW122555   3.439   7.048  10.077 -0.0936 -2.6385 -0.0931
68315SOL    HW222556   3.363   7.110  10.193  1.3962  1.8977 -1.3403
68316SOL     OW22557   8.729   0.487   4.313  0.3661 -0.5400 -0.6479
68316SOL    HW122558   8.699   0.540   4.387 -0.9096 -0.1414 -1.4183
68316SOL    HW222559   8.701   0.398   4.335 -0.0349 -0.4189 -0.6594
68317SOL     OW22560  11.826   6.728  11.325 -0.7211  0.0627  0.1339
68317SOL    HW122561  11.758   6.753  11.262  1.2504  1.6856 -1.5247
68317SOL    HW222562  11.872   6.810  11.344  1.1996 -1.0598  0.6288
68318SOL     OW22563  11.489  12.701   2.195  0.4090 -0.3701 -0.0558
68318SOL    HW122564  11.449  12.786   2.210  1.4625  0.0243  0.6162
68318SOL    HW222565  11.561  12.718   2.134 -0.4276 -1.0749 -1.2826
68319SOL     OW22566  12.031   6.909  12.649 -0.1459  0.4312  0.0962
68319SOL    HW122567  11.978   6.857  12.710  1.7703 -0.5000  1.0672
68319SOL    HW222568  11.976   6.984  12.628 -2.0059 -0.6882  0.6732
68320SOL     OW22569  11.641  13.224   8.997  0.0735 -0.1635 -0.2822
68320SOL    HW122570  11.707  13.222   9.066  0.3690 -0.1275 -0.5607
68320SOL    HW222571  11.609  13.134   8.991 -0.3641 -0.0531  0.2907
68321SOL     OW22572  11.912   1.263  13.167 -0.0241 -0.4035  0.1411
68321SOL    HW122573  11.926   1.169  13.153 -1.2097 -1.2604  3.6778
68321SOL    HW222574  11.942   1.304  13.086  2.0137 -3.6810 -0.9548
68322SOL     OW22575  13.002  12.479   8.386  0.2077  0.4873  0.2210
68322SOL    HW122576  13.086  12.511   8.420 -0.1728  2.0400 -0.1976
68322SOL    HW222577  13.005  12.499   8.292 -0.2338 -0.3777  0.0084
68323SOL     OW22578   3.253   5.566  12.613 -0.0527 -0.2741  0.1526
68323SOL    HW122579   3.204   5.484  12.604 -0.9450  0.1741  0.7963
68323SOL    HW222580   3.216   5.623  12.545 -0.0511 -0.1156  0.2836
68324SOL     OW22581  10.810   5.819  10.653 -0.1547 -0.1660  0.2814
68324SOL    HW122582  10.887   5.854  10.607 -0.1492  0.4075  0.7213
68324SOL    HW222583  10.833   5.826  10.746 -1.4799  1.7925  0.5207
68325SOL     OW22584  10.929   1.675  12.679 -0.3221 -0.4625  0.4267
68325SOL    HW122585  10.909   1.765  12.706  1.8952  0.3602 -0.4674
68325SOL    HW222586  10.871   1.659  12.604  0.3510  0.8329 -0.4069
68326SOL     OW22587   0.608   9.636  10.622 -0.5769 -0.1699 -0.6094
68326SOL    HW122588   0.560   9.557  10.596 -1.0158  0.3117 -1.2657
68326SOL    HW222589   0.700   9.609  10.621 -0.7895 -1.0138  0.3693
68327SOL     OW22590   5.205  10.422   7.987  0.1121  0.2180  0.1657
68327SOL    HW122591   5.168  10.397   7.902  0.2231 -0.5041  0.3181
68327SOL    HW222592   5.275  10.358   8.001 -1.8280 -1.5955  2.1777
68328SOL     OW22593  10.702   0.590   3.747 -0.1491 -0.1307 -0.0424
68328SOL    HW122594  10.781   0.543   3.717  0.9283  0.9777  0.9557
68328SOL    HW222595  10.666   0.629   3.667  0.7171 -0.0760 -0.4225
68329SOL     OW22596   1.293  13.917   2.460  0.4317 -0.0738 -0.1359
68329SOL    HW122597   1.248  13.833   2.470 -0.7722  0.8062  2.9437
68329SOL    HW222598   1.373  13.909   2.512  1.4946  0.0141 -1.6622
68330SOL     OW22599   9.889  10.361  13.025 -0.1066  0.8831  0.0818
68330SOL    HW122600   9.914  10.285  12.973  1.0372  1.7211 -0.6377
68330SOL    HW222601   9.822  10.328  13.086 -0.7374 -0.3366 -1.2253
68331SOL     OW22602   3.721  12.807   3.501 -0.5482 -0.0406  0.1572
68331SOL    HW122603   3.700  12.720   3.536 -2.9020  0.2540 -0.3792
68331SOL    HW222604   3.816  12.805   3.488 -0.3231 -1.9588  1.6448
68332SOL     OW22605  11.164   4.226   4.891  0.4938  0.0860  0.3709
68332SOL    HW122606  11.098   4.256   4.828 -0.3026 -1.0319  0.6381
68332SOL    HW222607  11.235   4.289   4.883 -0.4658  1.1376 -0.1674
68333SOL     OW22608  12.984   5.384   5.497  0.0287 -0.6055  0.1923
68333SOL    HW122609  12.961   5.390   5.590 -1.2257 -0.6783 -0.0871
68333SOL    HW222610  12.899   5.378   5.452  0.6266 -1.3670 -0.8978
68334SOL     OW22611   5.736   3.850  10.633 -0.7971 -0.5533  0.1585
68334SOL    HW122612   5.660   3.905  10.651 -0.3482  0.0765  0.1443
68334SOL    HW222613   5.757   3.866  10.541  1.7927  2.4188  1.1045
68335SOL     OW22614   7.023  13.661   8.842  0.1358 -0.3481  0.3819
68335SOL    HW122615   7.020  13.752   8.870  1.1037 -0.0576 -0.4184
68335SOL    HW222616   6.981  13.613   8.914 -0.4979  0.7259  0.7593
68336SOL     OW22617   8.925  10.733   6.762  0.1835  0.1322  0.6754
68336SOL    HW122618   8.833  10.713   6.783  0.2302  1.1102  1.9324
68336SOL    HW222619   8.927  10.737   6.667 -0.5670 -2.2187  0.4720
68337SOL     OW22620  10.616  12.990   3.290 -0.6513 -0.0291 -0.4447
68337SOL    HW122621  10.616  12.996   3.195  0.1122  0.3501 -0.4246
68337SOL    HW222622  10.626  12.896   3.308 -0.3878 -0.0602 -0.7431
68338SOL     OW22623   0.078   7.451   6.327  0.6573  0.3799 -0.4110
68338SOL    HW122624   0.131   7.487   6.256 -0.8612  1.0091 -1.2622
68338SOL    HW222625   0.141   7.439   6.399  1.9728  0.9860 -1.4036
68339SOL     OW22626   1.412   0.895  11.546  0.2447 -0.3937 -0.3844
68339SOL    HW122627   1.337   0.862  11.497 -1.6987 -0.0792  2.1824
68339SOL    HW222628   1.443   0.970  11.496 -1.6374 -0.0776 -1.1472
68340SOL     OW22629   3.706   5.270   1.263  0.1297  0.1949 -0.1410
68340SOL    HW122630   3.676   5.201   1.322  0.2892  1.2605  1.2497
68340SOL    HW222631   3.802   5.271   1.273  0.4631 -1.3442 -2.4502
68341SOL     OW22632  10.305   1.569   1.164 -0.0399 -0.2697 -0.7140
68341SOL    HW122633  10.232   1.611   1.118 -1.0745  1.2004  2.0424
68341SOL    HW222634  10.312   1.617   1.246  4.1028 -0.3341 -0.8151
68342SOL     OW22635   4.586  12.706   0.733  0.1971 -0.4835 -0.2629
68342SOL    HW122636   4.625  12.793   0.724  0.5432 -0.8109 -2.9496
68342SOL    HW222637   4.518  12.704   0.666  1.4213 -2.8567 -1.5698
68343SOL     OW22638  11.929   4.069   4.978  0.5171 -0.3927  0.4204
68343SOL    HW122639  11.968   4.137   4.923  1.2941 -0.9598  0.2600
68343SOL    HW222640  11.858   4.114   5.024  2.0359  0.9668  1.5536
68344SOL     OW22641   3.447   3.393  13.091  0.8467 -0.3679 -0.4990
68344SOL    HW122642   3.530   3.360  13.126 -0.4174 -2.4408  0.7384
68344SOL    HW222643   3.380   3.351  13.145 -1.0860 -0.4218 -2.8025
68345SOL     OW22644   0.231  10.582  11.988  0.1803  1.1293 -0.0933
68345SOL    HW122645   0.190  10.495  11.987  1.4987  0.4666  0.6796
68345SOL    HW222646   0.212  10.617  12.075  1.0016  0.9189  0.1833
68346SOL     OW22647   8.974   9.213   0.896  0.2714 -0.1976 -0.5200
68346SOL    HW122648   8.994   9.297   0.938 -0.5749  0.4784 -1.4352
68346SOL    HW222649   8.964   9.152   0.970 -1.2900  0.9808  0.3074
68347SOL     OW22650  12.096   5.980   7.991 -0.5978  0.2872 -0.2484
68347SOL    HW122651  12.119   6.009   8.079 -2.3145  0.1950  0.2812
68347SOL    HW222652  12.178   5.979   7.943  0.1343  1.8897  0.9070
68348SOL     OW22653   3.312   4.588   0.117  0.3070  0.1400  0.3492
68348SOL    HW122654   3.365   4.508   0.121 -0.8652 -0.6281  2.6572
68348SOL    HW222655   3.373   4.658   0.137  0.9459 -0.4362  0.4676
68349SOL     OW22656  12.471   7.769   3.107  0.0149 -0.0091  0.0042
68349SOL    HW122657  12.393   7.781   3.160 -0.2735 -0.4069 -0.3259
68349SOL    HW222658  12.513   7.691   3.142  0.0114 -0.0685 -0.1220
68350SOL     OW22659   1.733   2.024   6.127 -0.0437 -0.3777 -0.2179
68350SOL    HW122660   1.670   2.093   6.145 -2.0839 -2.2664  0.2997
68350SOL    HW222661   1.772   2.047   6.043 -1.1941  1.0039 -0.3919
68351SOL     OW22662   6.514   6.660  13.987 -0.1482 -0.1738 -0.1197
68351SOL    HW122663   6.440   6.616  14.029 -0.4948 -0.9328 -1.4688
68351SOL    HW222664   6.475   6.711  13.917  0.4283  1.0490  0.4130
68352SOL     OW22665   2.169  12.593  11.068  0.2990 -0.4444 -0.2712
68352SOL    HW122666   2.075  12.593  11.082  0.5007 -1.2340  1.3618
68352SOL    HW222667   2.195  12.685  11.077 -0.3485 -0.1868 -1.0279
68353SOL     OW22668   0.184   0.346   8.782 -0.0512 -0.0571  0.4614
68353SOL    HW122669   0.240   0.361   8.857  0.7087 -1.8786  0.2894
68353SOL    HW222670   0.136   0.265   8.802 -0.7218  0.0752 -0.4990
68354SOL     OW22671  13.824  11.815   7.195  0.1946  0.5253 -0.3366
68354SOL    HW122672  13.907  11.830   7.239  0.7914 -0.9157 -0.9371
68354SOL    HW222673  13.832  11.729   7.155 -1.1311  0.8750 -1.4495
68355SOL     OW22674   3.205   2.016  14.016  0.3063  0.0209  0.0023
68355SOL    HW122675   3.245   2.090  14.061 -0.1713 -0.5256  1.3866
68355SOL    HW222676   3.113   2.040  14.005 -0.4324 -1.2601  2.6313
68356SOL     OW22677   2.347   7.267   0.122 -0.3628 -0.8779 -0.1056
68356SOL    HW122678   2.296   7.343   0.096  1.6280 -0.1813 -2.3183
68356SOL    HW222679   2.294   7.191   0.097 -1.2056 -0.2068 -0.3623
68357SOL     OW22680   8.705  13.099  13.428  0.0844  0.3519  0.2045
68357SOL    HW122681   8.775  13.161  13.406 -0.5144  0.3059 -2.0821
68357SOL    HW222682   8.624  13.148  13.413 -0.3824 -0.5598 -0.3540
68358SOL     OW22683  10.866   7.737   9.134 -0.1110  0.3688 -0.3205
68358SOL    HW122684  10.836   7.814   9.182  1.8774 -0.4921  2.6464
68358SOL    HW222685  10.793   7.675   9.141 -0.1774  0.5584  0.9749
68359SOL     OW22686   0.075   5.424   9.257 -0.0669  0.1048  0.5594
68359SOL    HW122687   0.158   5.435   9.304  0.3047 -1.7910  0.4575
68359SOL    HW222688   0.016   5.487   9.298  0.7666 -0.1552  2.2907
68360SOL     OW22689   1.007  13.842   4.956 -0.5978  0.3599 -0.4405
68360SOL    HW122690   0.961  13.758   4.952  0.0207  0.0596 -1.7391
68360SOL    HW222691   1.097  13.818   4.978 -0.7887  0.8480  0.9510
68361SOL     OW22692   7.104  10.117   1.337 -0.8179 -0.5861  0.2757
68361SOL    HW122693   7.064  10.080   1.415  1.5007  0.4816  2.0928
68361SOL    HW222694   7.118  10.210   1.359 -1.5695  0.1586 -2.0554
68362SOL     OW22695   9.998   1.962  13.135  0.7145  0.5042 -0.6454
68362SOL    HW122696   9.906   1.955  13.162  0.3802  0.7871 -1.6441
68362SOL    HW222697  10.046   1.912  13.200 -0.3261 -1.0216 -0.9726
68363SOL     OW22698  13.387  10.814   3.529 -0.0020 -0.0008  0.4840
68363SOL    HW122699  13.462  10.834   3.474 -0.2442  1.2817  0.5747
68363SOL    HW222700  13.371  10.895   3.578 -0.5784 -0.7014  1.4999
68364SOL     OW22701   3.687   6.281  13.960  0.1093  0.4653  0.2834
68364SOL    HW122702   3.709   6.324  13.877 -0.4135  1.2540  0.5388
68364SOL    HW222703   3.749   6.317  14.023  1.1561 -0.8683  0.0640
68365SOL     OW22704   6.351   1.606   4.248 -0.4488  0.1560 -0.2301
68365SOL    HW122705   6.419   1.570   4.191 -1.6147 -1.7240 -0.5166
68365SOL    HW222706   6.398   1.636   4.326  0.7739 -0.5313 -0.6775
68366SOL     OW22707   9.452   3.279   8.178 -0.4453  0.3370  0.0445
68366SOL    HW122708   9.393   3.354   8.180 -0.8882 -0.0106  0.0688
68366SOL    HW222709   9.539   3.317   8.185 -0.6894  0.8204  0.4777
68367SOL     OW22710  12.045   0.611   4.979 -0.2077 -0.1853 -0.1911
68367SOL    HW122711  12.063   0.701   4.951 -2.9127  0.7481  0.7796
68367SOL    HW222712  11.966   0.617   5.032  1.7287 -2.5221  3.4718
68368SOL     OW22713   1.613   5.969  12.678  0.5158 -1.0186  0.9489
68368SOL    HW122714   1.544   5.988  12.742  0.7999  3.4461  0.2275
68368SOL    HW222715   1.693   5.962  12.731  0.4051  0.3518  1.3476
68369SOL     OW22716   7.726   2.986   8.285 -0.2737  0.4916  0.1878
68369SOL    HW122717   7.735   3.073   8.323 -1.9548  1.4201 -1.3601
68369SOL    HW222718   7.651   2.947   8.331 -0.5305  0.4983 -0.2238
68370SOL     OW22719  10.523   3.818   6.743  0.2661  0.5538  0.4512
68370SOL    HW122720  10.564   3.736   6.716 -1.3917 -0.5923  1.1789
68370SOL    HW222721  10.580   3.853   6.812 -0.2483 -1.3484  1.9415
68371SOL     OW22722   1.061   0.648  10.730  0.1570  0.8256 -0.1915
68371SOL    HW122723   1.104   0.680  10.809 -0.9531  0.0141  0.7748
68371SOL    HW222724   1.048   0.554  10.746  0.9618  0.3869 -1.8417
68372SOL     OW22725  10.832  12.007   6.597  0.4649  0.0135  0.1012
68372SOL    HW122726  10.855  11.923   6.635  0.1213  0.9009  2.3830
68372SOL    HW222727  10.895  12.069   6.635 -0.7321  1.1698  0.2778
68373SOL     OW22728   1.769   9.965   2.360  0.0287  0.1688  0.4050
68373SOL    HW122729   1.834  10.025   2.326  1.0846 -1.4171 -0.5163
68373SOL    HW222730   1.688  10.017   2.365  0.7962  1.5326 -0.7255
68374SOL     OW22731   4.693   1.138   9.483 -0.0020 -0.4000 -0.0189
68374SOL    HW122732   4.663   1.064   9.431  0.9459  0.4004 -1.8076
68374SOL    HW222733   4.698   1.210   9.420 -0.5283  1.1042  1.5829
68375SOL     OW22734   1.331   2.755   8.026 -0.1341  0.1176 -0.2218
68375SOL    HW122735   1.284   2.828   8.067 -1.9840 -0.2674 -1.5694
68375SOL    HW222736   1.309   2.679   8.079 -1.0260 -0.0491 -0.8084
68376SOL     OW22737   7.323   5.592  13.202 -0.3818 -0.4839 -0.5954
68376SOL    HW122738   7.417   5.604  13.215 -0.0910 -2.7278 -0.2861
68376SOL    HW222739   7.286   5.679  13.214  1.1089 -0.2397  4.2044
68377SOL     OW22740  12.065   9.788  12.402  0.4496  0.0877 -0.3561
68377SOL    HW122741  12.086   9.860  12.462  0.1172  0.8748 -1.1594
68377SOL    HW222742  12.066   9.828  12.316  0.3099 -0.8974 -0.8293
68378SOL     OW22743   5.867  12.887   0.201  0.7144  0.5692 -0.2488
68378SOL    HW122744   5.801  12.830   0.161 -0.4213  1.2277  0.6261
68378SOL    HW222745   5.945  12.832   0.209 -0.1659 -0.6851  0.0012
68379SOL     OW22746   8.016   4.702  12.383 -0.4838  0.3368 -0.0012
68379SOL    HW122747   8.109   4.690  12.365 -0.7121 -0.1190 -0.9240
68379SOL    HW222748   8.004   4.668  12.471  0.3780  1.1851  0.4670
68380SOL     OW22749   2.327   8.966   7.299 -0.8249 -0.4343 -0.0507
68380SOL    HW122750   2.358   9.048   7.261  2.0653 -0.9593  0.9398
68380SOL    HW222751   2.242   8.988   7.338  0.4118  2.4517  1.2882
68381SOL     OW22752   9.367  10.803   7.027 -0.4943  0.2918  0.2183
68381SOL    HW122753   9.356  10.770   6.938  0.0098  1.5605 -0.3473
68381SOL    HW222754   9.335  10.893   7.023  1.5402  1.1091  0.7350
68382SOL     OW22755   7.236   2.624   6.574  0.2388 -0.0764  0.3498
68382SOL    HW122756   7.324   2.612   6.539 -0.0892 -0.0299 -0.5035
68382SOL    HW222757   7.184   2.652   6.499 -0.5258 -0.2132  0.8224
68383SOL     OW22758   4.853   7.263  13.812 -0.4171  0.0868  0.1402
68383SOL    HW122759   4.767   7.224  13.795  0.4058 -1.2471 -1.1386
68383SOL    HW222760   4.911   7.189  13.824  0.6886  0.9704  0.3891
68384SOL     OW22761   0.641  10.687   6.698  0.2391  0.2231 -0.8216
68384SOL    HW122762   0.596  10.745   6.759  0.9700  0.3445 -0.3884
68384SOL    HW222763   0.722  10.733   6.676  0.5342 -0.3494 -0.9542
68385SOL     OW22764   0.096   8.813  10.934 -0.2473  0.3058 -0.0010
68385SOL    HW122765   0.050   8.785  11.013 -1.2922  0.8411 -0.4016
68385SOL    HW222766   0.026   8.836  10.872  0.5262 -0.5481 -1.2565
68386SOL     OW22767  11.672   3.578   6.907  0.2720 -0.0362  0.1007
68386SOL    HW122768  11.663   3.541   6.995  0.4921 -0.3256  0.0042
68386SOL    HW222769  11.715   3.662   6.920 -0.4497  0.3076  0.3473
68387SOL     OW22770   1.783   1.291   9.991  0.2071 -0.4713 -0.6072
68387SOL    HW122771   1.735   1.299   9.908  0.1792  0.4055 -0.5142
68387SOL    HW222772   1.738   1.220  10.037  0.4747 -1.2428 -1.5016
68388SOL     OW22773   0.813   5.758   0.022  0.2642 -0.4313 -0.4927
68388SOL    HW122774   0.842   5.683   0.074 -1.4578 -0.0811  1.0894
68388SOL    HW222775   0.885   5.820   0.027  0.1733 -0.4377  1.4689
68389SOL     OW22776  12.326  11.651   2.722 -1.0761 -0.2195 -0.1717
68389SOL    HW122777  12.360  11.634   2.635 -0.3318 -0.2487  0.1155
68389SOL    HW222778  12.342  11.571   2.771 -1.7865 -0.3216 -0.0882
68390SOL     OW22779  10.239  13.206   1.561  0.1013 -0.8809  0.4590
68390SOL    HW122780  10.169  13.141   1.574  0.8508 -2.0342 -0.9245
68390SOL    HW222781  10.319  13.153   1.553  0.8080  0.2630 -0.2104
68391SOL     OW22782  13.043  13.105   2.041  0.1972 -0.3450 -0.3228
68391SOL    HW122783  13.018  13.057   1.962  0.1331 -0.1154 -0.4401
68391SOL    HW222784  13.091  13.040   2.094 -0.2710 -0.6667 -0.2837
68392SOL     OW22785  10.645  11.130   6.916 -0.4981  0.3123 -0.0880
68392SOL    HW122786  10.608  11.043   6.931 -1.8405  1.1746  2.1065
68392SOL    HW222787  10.718  11.136   6.977 -0.6766  0.8573  0.0800
68393SOL     OW22788   6.236  10.881   3.607  0.0825  0.2288  0.5277
68393SOL    HW122789   6.161  10.827   3.585 -0.6537  1.6036 -0.4631
68393SOL    HW222790   6.227  10.959   3.553  2.9113 -0.1001 -0.6058
68394SOL     OW22791   2.604   1.672   8.740 -0.0134 -0.2339 -0.1530
68394SOL    HW122792   2.600   1.759   8.780  0.7129 -0.1559 -0.2342
68394SOL    HW222793   2.625   1.689   8.648  0.6682 -0.5068 -0.0583
68395SOL     OW22794   8.726   8.630   1.666 -0.2300  0.1748  0.3483
68395SOL    HW122795   8.750   8.697   1.729 -0.9397  0.6514  0.1219
68395SOL    HW222796   8.682   8.677   1.595  2.5170  0.0031 -1.6434
68396SOL     OW22797   2.157   9.164   7.586  0.4113 -0.6942  0.1220
68396SOL    HW122798   2.156   9.121   7.501  0.0272 -0.8719  0.2151
68396SOL    HW222799   2.125   9.253   7.570  1.5999 -0.2913 -0.1437
68397SOL     OW22800  11.932   4.235   1.086 -0.3358 -0.1341 -0.0756
68397SOL    HW122801  11.948   4.172   1.016 -1.2347 -0.7955  0.2965
68397SOL    HW222802  12.011   4.290   1.087  0.5386 -1.3507 -0.2957
68398SOL     OW22803   5.277   1.290   6.531 -0.3425  0.0442 -0.1842
68398SOL    HW122804   5.323   1.354   6.584 -0.2510 -0.5218  0.4252
68398SOL    HW222805   5.192   1.279   6.574  0.3518 -1.6495  0.8353
68399SOL     OW22806   5.453  10.670  12.954  0.0922  0.3169  0.1504
68399SOL    HW122807   5.476  10.600  13.014 -0.6577  0.9247  1.1887
68399SOL    HW222808   5.358  10.680  12.964  0.1454  1.2875 -0.1732
68400SOL     OW22809   6.583   0.596   3.325 -0.5001 -0.2770  0.0963
68400SOL    HW122810   6.605   0.617   3.415 -2.3641 -1.4965  0.8910
68400SOL    HW222811   6.536   0.513   3.330 -1.3791  0.0327 -1.8982
68401SOL     OW22812   2.752   0.088   4.378 -0.0823  0.2284 -0.6475
68401SOL    HW122813   2.678   0.091   4.439  0.2583 -1.4978 -0.0729
68401SOL    HW222814   2.732   0.015   4.320 -0.2872  1.7187 -2.5129
68402SOL     OW22815   8.363   5.869   9.919  0.0738  0.2337 -1.5109
68402SOL    HW122816   8.401   5.885  10.006  0.1626 -3.3659 -0.7228
68402SOL    HW222817   8.285   5.925   9.917  0.1078  0.4706  0.8819
68403SOL     OW22818   6.972  10.066   2.199  0.4592 -0.3494  0.2765
68403SOL    HW122819   6.913  10.054   2.274  0.9269 -0.6892  0.5962
68403SOL    HW222820   6.975   9.981   2.156 -1.3432  0.3191 -1.3056
68404SOL     OW22821   4.699   7.318   6.056 -0.3476 -0.3064  0.1094
68404SOL    HW122822   4.774   7.358   6.100 -0.7758 -0.0766  0.6497
68404SOL    HW222823   4.673   7.247   6.115  0.0111 -0.9769 -0.5286
68405SOL     OW22824   1.780   1.484  11.559 -0.3251 -0.5108  0.2602
68405SOL    HW122825   1.787   1.400  11.604  1.2750 -0.4634  0.1473
68405SOL    HW222826   1.831   1.473  11.479  0.8426  0.8850  0.7726
68406SOL     OW22827   6.164  12.260   4.534  0.8520  0.1264  0.3060
68406SOL    HW122828   6.164  12.167   4.557  0.6439  0.4588  1.7625
68406SOL    HW222829   6.236  12.297   4.585 -0.4877  1.1491  1.5550
68407SOL     OW22830  12.976   2.838   4.246 -0.3100 -0.7440 -0.0170
68407SOL    HW122831  13.061   2.847   4.288 -1.0786  2.0458  1.1487
68407SOL    HW222832  12.913   2.838   4.319 -1.4103 -0.8246 -0.9418
68408SOL     OW22833   5.522   8.777  12.981  0.5810  0.2005  0.2121
68408SOL    HW122834   5.487   8.713  13.043  1.9830 -1.4773 -0.6504
68408SOL    HW222835   5.526   8.859  13.031  0.6156 -0.8343  1.9659
68409SOL     OW22836  13.339   9.574   8.688 -0.5014 -0.7704  0.6609
68409SOL    HW122837  13.299   9.549   8.772  1.1647 -0.1479  1.6941
68409SOL    HW222838  13.268   9.564   8.624 -1.5463 -2.2935  1.9517
68410SOL     OW22839   0.473   4.982   9.579  0.2721 -0.0773 -0.0042
68410SOL    HW122840   0.418   5.003   9.504  0.4108  1.9198  0.3982
68410SOL    HW222841   0.490   5.067   9.621 -0.3765 -1.1715  2.6851
68411SOL     OW22842   3.586  10.639   4.254  0.1050  0.2070  0.0029
68411SOL    HW122843   3.576  10.564   4.312  0.8698 -0.2264 -0.4223
68411SOL    HW222844   3.578  10.715   4.311  0.0664 -0.2029  0.5451
68412SOL     OW22845  11.867   8.110   6.110 -0.2924  0.1684  0.0844
68412SOL    HW122846  11.842   8.018   6.115  0.0358  0.0335 -0.5707
68412SOL    HW222847  11.931   8.122   6.180  1.9765 -0.8930 -1.6497
68413SOL     OW22848   0.948   1.033   8.965  0.1605 -0.3952 -0.5115
68413SOL    HW122849   0.859   1.005   8.987 -0.0073  0.0940 -0.5691
68413SOL    HW222850   0.958   1.118   9.009  0.1842  0.1049 -1.4727
68414SOL     OW22851  11.148  12.766   3.070  0.4835 -0.1804 -0.5518
68414SOL    HW122852  11.170  12.837   3.131 -1.4918  1.7380 -1.8802
68414SOL    HW222853  11.220  12.765   3.007  1.2972 -0.4523  0.3579
68415SOL     OW22854   6.516   2.347   3.313 -0.5934  0.1485  0.4737
68415SOL    HW122855   6.451   2.277   3.302 -0.6875  0.3282 -0.1662
68415SOL    HW222856   6.476   2.424   3.270  0.0951  0.2243 -0.0624
68416SOL     OW22857   0.688   8.173   2.503  0.1936  0.0209 -0.1692
68416SOL    HW122858   0.657   8.100   2.556 -0.7135  1.1580  0.9305
68416SOL    HW222859   0.652   8.251   2.546  1.5759  1.1607 -0.9892
68417SOL     OW22860  10.387  11.834  11.560 -0.8604  0.3870  0.2727
68417SOL    HW122861  10.367  11.923  11.590 -0.2764 -0.1425  2.3838
68417SOL    HW222862  10.376  11.779  11.637  1.0195 -1.0449 -0.3915
68418SOL     OW22863   0.227   9.891   9.064 -0.3868  0.9652  0.2443
68418SOL    HW122864   0.238   9.974   9.017 -0.5207  0.7089 -0.2446
68418SOL    HW222865   0.162   9.842   9.014  0.9042 -0.1301 -0.4421
68419SOL     OW22866  11.693   8.149   1.235  0.0823 -0.4193 -0.0807
68419SOL    HW122867  11.719   8.107   1.317  1.3352  0.1102 -0.1922
68419SOL    HW222868  11.760   8.215   1.219 -0.1685 -0.4782 -1.5110
68420SOL     OW22869  13.682   4.807   5.494 -0.2877 -0.0101  0.6837
68420SOL    HW122870  13.598   4.843   5.464 -0.3246  0.2402  1.0788
68420SOL    HW222871  13.675   4.713   5.479 -0.0911  0.1603 -0.6201
68421SOL     OW22872   7.249   1.331  13.778 -0.0213  0.3564 -0.6009
68421SOL    HW122873   7.328   1.379  13.803  0.3678 -0.8501  0.5833
68421SOL    HW222874   7.189   1.344  13.850  0.2737 -1.2929 -0.0130
68422SOL     OW22875   9.253  13.605  12.707  0.6129 -0.5029  0.0745
68422SOL    HW122876   9.249  13.552  12.787  1.2911  0.0503  0.5018
68422SOL    HW222877   9.167  13.646  12.701  0.6716 -0.2637  0.7381
68423SOL     OW22878  10.242  13.338  12.983 -0.1738  0.3924  0.6140
68423SOL    HW122879  10.183  13.349  12.908 -1.2095  0.2456  1.3811
68423SOL    HW222880  10.304  13.411  12.976 -1.1374  1.2206  0.4001
68424SOL     OW22881  13.260   7.987   0.426 -0.0640  0.4097  0.1156
68424SOL    HW122882  13.250   8.005   0.519  1.4713 -0.1661  0.4183
68424SOL    HW222883  13.354   7.991   0.411 -0.2980  0.5581 -1.4373
68425SOL     OW22884   3.181  11.376  12.001 -0.0504 -0.0976 -0.0242
68425SOL    HW122885   3.265  11.362  11.958 -0.9120  0.3032 -1.9484
68425SOL    HW222886   3.149  11.288  12.019 -0.0822 -0.3279 -1.1057
68426SOL     OW22887   4.867  13.902   3.476 -0.1080 -0.4835  0.7567
68426SOL    HW122888   4.815  13.940   3.406  0.6164  4.1299  2.4068
68426SOL    HW222889   4.952  13.884   3.436 -0.6483 -0.9997 -0.2052
68427SOL     OW22890   6.720   1.685  11.590 -0.2188 -0.0140 -0.4364
68427SOL    HW122891   6.683   1.601  11.620  0.0088  0.2684  0.7017
68427SOL    HW222892   6.805   1.661  11.552 -1.3248 -0.6140 -2.6984
68428SOL     OW22893   3.939   6.251   2.713  0.0729  0.2981  0.0588
68428SOL    HW122894   3.904   6.333   2.678  0.7643  0.7555  0.4335
68428SOL    HW222895   3.966   6.272   2.802  0.1252 -0.3756  0.2052
68429SOL     OW22896  14.052  10.087  12.251 -0.4828 -0.1141 -0.2759
68429SOL    HW122897  13.957  10.071  12.251 -0.3170 -1.3001 -1.6707
68429SOL    HW222898  14.091  10.000  12.258  0.5130  0.3263 -0.1518
68430SOL     OW22899  10.693   0.247   7.000  0.8053 -0.2417 -0.0997
68430SOL    HW122900  10.742   0.304   7.059 -0.8428 -0.3319  1.4221
68430SOL    HW222901  10.686   0.163   7.046 -1.6887  0.0942  0.2968
68431SOL     OW22902   7.206  13.231  11.981 -0.3951 -0.1069  0.3369
68431SOL    HW122903   7.257  13.150  11.986  1.4803  0.9531 -0.4832
68431SOL    HW222904   7.134  13.210  11.921 -0.9702 -1.6318  1.4897
68432SOL     OW22905   4.932   0.135   4.687  0.4517  0.0132 -0.2994
68432SOL    HW122906   4.917   0.149   4.780  0.1479 -1.3163 -0.1341
68432SOL    HW222907   4.902   0.216   4.645  0.7540  0.6902  0.7565
68433SOL     OW22908  10.610   2.033  10.048 -0.1310  0.0095 -0.0202
68433SOL    HW122909  10.669   2.041  10.123 -2.5896 -3.5698  2.6514
68433SOL    HW222910  10.649   1.967   9.992  0.9241  1.5571 -1.1978
68434SOL     OW22911  13.864   7.204   8.110  0.0707 -0.4301 -0.0049
68434SOL    HW122912  13.889   7.112   8.107 -1.6267 -1.1820  3.8021
68434SOL    HW222913  13.903   7.238   8.190 -1.0246  1.6208 -0.2571
68435SOL     OW22914   7.309   0.500  12.303  0.1643  0.4401 -0.7441
68435SOL    HW122915   7.302   0.410  12.270 -1.0752  0.3376 -0.2499
68435SOL    HW222916   7.287   0.493  12.396  0.8512  1.1532 -0.5174
68436SOL     OW22917   6.482  12.491   2.912 -0.4292  0.1071 -0.2829
68436SOL    HW122918   6.527  12.431   2.852 -0.6045 -1.1411  0.8038
68436SOL    HW222919   6.412  12.530   2.859  0.5324  0.4014 -1.3773
68437SOL     OW22920   0.312  12.002   7.335  0.0905 -0.1112  0.3060
68437SOL    HW122921   0.387  12.025   7.281 -0.2624  0.3204  0.0007
68437SOL    HW222922   0.249  12.072   7.320  1.2826  2.0619  3.9506
68438SOL     OW22923  10.314   5.525  10.926  0.4751  1.2171  0.3462
68438SOL    HW122924  10.340   5.593  10.865  1.8357  1.4297  1.1302
68438SOL    HW222925  10.325   5.564  11.013  0.2898  0.3420  0.7793
68439SOL     OW22926   8.816   5.403  13.011  0.0958  0.4848  0.0223
68439SOL    HW122927   8.764   5.375  13.086 -0.5747 -0.1700 -0.6767
68439SOL    HW222928   8.894   5.442  13.050 -0.8576  1.4038  1.0869
68440SOL     OW22929   4.623  10.883  12.931  0.5063 -0.0765 -0.5760
68440SOL    HW122930   4.580  10.888  12.846  0.3152  0.0864 -0.4687
68440SOL    HW222931   4.553  10.865  12.993  0.5102  0.7241 -0.3277
68441SOL     OW22932   9.468  11.581  11.416  0.1999 -0.2192 -0.2095
68441SOL    HW122933   9.443  11.551  11.503 -0.3047 -1.6391 -0.8161
68441SOL    HW222934   9.563  11.572  11.413  0.1452 -0.9014 -0.0509
68442SOL     OW22935   3.518   8.812  13.162  0.1686  0.0620 -0.0885
68442SOL    HW122936   3.471   8.741  13.120 -2.3543  0.3783  1.8976
68442SOL    HW222937   3.515   8.790  13.256  1.7066  1.4586  0.3339
68443SOL     OW22938   2.331   5.531   6.337  0.0057 -0.0782 -0.3743
68443SOL    HW122939   2.401   5.560   6.396 -0.6644  1.3587 -0.2585
68443SOL    HW222940   2.262   5.500   6.395  0.6564 -1.8607 -0.4941
68444SOL     OW22941  11.015  11.604  10.313  0.8386 -0.6967  0.6705
68444SOL    HW122942  10.934  11.656  10.309 -0.1687 -2.2527 -0.2124
68444SOL    HW222943  11.050  11.620  10.400 -0.1876  0.3526  0.9125
68445SOL     OW22944  12.469   6.801   0.507  0.2746  0.0199  0.3307
68445SOL    HW122945  12.531   6.773   0.440  2.0599 -0.3200  2.0580
68445SOL    HW222946  12.523   6.836   0.577 -1.5073 -0.0049  1.7883
68446SOL     OW22947   0.595   1.131   5.992  0.4499  0.0626  0.1282
68446SOL    HW122948   0.596   1.193   6.065  0.0071  0.3334 -0.0915
68446SOL    HW222949   0.663   1.163   5.932  0.2816  0.2875  0.0559
68447SOL     OW22950  12.660   1.955   7.050 -0.1595 -0.9371  1.1196
68447SOL    HW122951  12.654   1.926   7.141 -0.5848 -1.4015  0.9489
68447SOL    HW222952  12.631   2.046   7.052 -1.6443 -1.3928  1.2247
68448SOL     OW22953   2.382   6.062   4.768 -0.3696  0.1015  0.4931
68448SOL    HW122954   2.351   6.140   4.721  0.3835  0.3426  0.3763
68448SOL    HW222955   2.457   6.093   4.818  0.2608 -0.6553  0.0401
68449SOL     OW22956  10.435  11.302   8.262  0.1772  0.5375  0.1436
68449SOL    HW122957  10.447  11.323   8.169 -0.0311 -3.4618 -0.9721
68449SOL    HW222958  10.358  11.246   8.265  0.5113  0.0702  2.6479
68450SOL     OW22959   7.880  10.369   3.685 -0.4287 -0.3906  0.1249
68450SOL    HW122960   7.921  10.359   3.599  1.1847 -2.1448  1.0264
68450SOL    HW222961   7.797  10.323   3.678  0.4384 -1.9878 -0.0535
68451SOL     OW22962   3.805  10.585  10.217  0.1429  0.2877  0.4074
68451SOL    HW122963   3.710  10.590  10.229  0.0253 -0.4802 -0.0881
68451SOL    HW222964   3.841  10.592  10.305 -0.4986 -1.7024  0.8799
68452SOL     OW22965   6.950   4.850   9.278  0.3337  0.0040 -0.1677
68452SOL    HW122966   6.987   4.789   9.342 -0.5123  0.1248  0.4615
68452SOL    HW222967   6.968   4.809   9.193  0.7546 -0.5669  0.1832
68453SOL     OW22968   6.236   2.890   0.245  0.5445  0.3110 -0.0466
68453SOL    HW122969   6.176   2.955   0.209  0.0690  0.0662  0.2953
68453SOL    HW222970   6.182   2.837   0.304  1.0881  0.0676  0.2414
68454SOL     OW22971   9.957   7.491   5.504 -0.3730 -0.1622 -0.3596
68454SOL    HW122972   9.954   7.444   5.420  0.6583  0.4166 -0.7382
68454SOL    HW222973  10.022   7.442   5.556 -2.3811 -1.6975  0.8792
68455SOL     OW22974   8.125   7.533  13.351 -0.1948  0.1970  0.4052
68455SOL    HW122975   8.134   7.538  13.256  0.1310 -1.7919  0.2920
68455SOL    HW222976   8.048   7.586  13.371 -0.3059  0.5850 -0.9621
68456SOL     OW22977   5.032   0.524   2.413  0.0335  0.0525  0.0705
68456SOL    HW122978   4.992   0.501   2.330  0.1092  0.0005  0.0487
68456SOL    HW222979   5.088   0.449   2.435  1.1280  0.6656 -0.5346
68457SOL     OW22980   9.500   7.099  11.412  0.1639  0.7427 -0.2245
68457SOL    HW122981   9.476   7.009  11.434 -2.7564  1.3614 -0.4667
68457SOL    HW222982   9.583   7.091  11.364 -0.0956 -1.8074 -0.3880
68458SOL     OW22983   1.950   7.063   0.827 -0.0782  0.2493  0.7327
68458SOL    HW122984   1.930   7.127   0.895 -2.2532 -0.7456  1.1267
68458SOL    HW222985   1.941   7.110   0.745  0.8597  1.0435  1.0732
68459SOL     OW22986  14.005   8.342   6.767  0.3057 -0.0167  0.5398
68459SOL    HW122987  14.017   8.289   6.846 -0.1025  0.0026  0.6174
68459SOL    HW222988  13.917   8.380   6.776  1.0307  1.6572  1.0826
68460SOL     OW22989   1.970   1.779  11.392 -0.0087  0.3795 -0.3187
68460SOL    HW122990   1.956   1.692  11.354  1.2651 -1.0924  2.2909
68460SOL    HW222991   2.061   1.799  11.372  0.2559  0.2186  0.6735
68461SOL     OW22992   6.548   6.513  12.591  0.0449 -0.0431  0.0828
68461SOL    HW122993   6.483   6.578  12.613 -0.4583 -0.8526  1.0667
68461SOL    HW222994   6.626   6.563  12.567 -0.9473  0.9340 -1.2098
68462SOL     OW22995  10.930  10.314   8.956  0.1991  0.6613 -0.0024
68462SOL    HW122996  10.967  10.399   8.933 -1.2689  1.1499 -0.6284
68462SOL    HW222997  10.838  10.331   8.975  0.3912 -0.3874  2.2973
68463SOL     OW22998   9.616   5.402   9.499  0.0030 -0.4387 -0.5850
68463SOL    HW122999   9.619   5.461   9.424 -0.0391 -0.2112 -0.4100
68463SOL    HW223000   9.705   5.369   9.508  0.3205  0.5848  0.0956
68464SOL     OW23001   8.614   7.308  13.989  0.3845  0.0963 -0.4604
68464SOL    HW123002   8.561   7.276  14.061 -0.1652  0.1198 -0.8481
68464SOL    HW223003   8.698   7.332  14.029  0.1732 -0.1278  0.1207
68465SOL     OW23004   6.116  11.171   5.287 -0.1133 -0.4534  0.5790
68465SOL    HW123005   6.125  11.263   5.263 -1.7229 -0.1069  1.2041
68465SOL    HW223006   6.166  11.124   5.221 -1.5209  0.6876 -1.3819
68466SOL     OW23007   6.240   0.017  12.975  0.3565 -0.4324  0.1817
68466SOL    HW123008   6.233  -0.076  12.999  1.0379 -0.2281  1.2581
68466SOL    HW223009   6.225   0.064  13.056  1.3143  0.3522 -0.0683
68467SOL     OW23010   8.737  13.709  14.035 -0.1273 -0.8446 -0.2425
68467SOL    HW123011   8.708  13.679  14.121 -0.5445 -0.7157 -0.3358
68467SOL    HW223012   8.816  13.658  14.017 -0.3484 -1.2711 -0.0269
68468SOL     OW23013   1.824   0.632  11.583 -0.2250  0.1746  0.7207
68468SOL    HW123014   1.810   0.537  11.589  0.5565 -0.0679 -0.7658
68468SOL    HW223015   1.738   0.667  11.559 -0.4040 -0.2100  0.7920
68469SOL     OW23016  12.164  11.936   2.349 -0.0281  0.2787 -0.1182
68469SOL    HW123017  12.128  12.025   2.355 -0.5191  0.1495 -0.9152
68469SOL    HW223018  12.131  11.891   2.426  3.3890  1.8293  2.4896
68470SOL     OW23019   9.152  12.011   0.117  0.4395 -0.6295  0.6967
68470SOL    HW123020   9.165  11.979   0.206 -0.9275  1.5293  1.7444
68470SOL    HW223021   9.088  12.082   0.125  1.5484  0.7989 -1.7559
68471SOL     OW23022   1.619   8.495  12.635  0.1944 -0.1180  0.0643
68471SOL    HW123023   1.524   8.482  12.638 -0.2986  2.7087 -0.4084
68471SOL    HW223024   1.637   8.526  12.546  1.4212  0.2269  0.4081
68472SOL     OW23025   4.018   8.763  11.976  0.3500 -0.6474  0.0767
68472SOL    HW123026   3.952   8.703  12.012  0.3598  0.3172  1.8120
68472SOL    HW223027   3.970   8.842  11.955  0.8301 -0.1526  0.7902
68473SOL     OW23028  11.299  10.101   5.122  0.3976  0.3664 -0.3885
68473SOL    HW123029  11.375  10.142   5.082 -1.1756  1.8106 -2.1026
68473SOL    HW223030  11.278  10.156   5.197  0.4325  0.5631 -0.5233
68474SOL     OW23031   3.923   0.441   6.587  0.0878  0.2117 -0.1290
68474SOL    HW123032   3.964   0.524   6.611 -0.4927  0.2446  0.8164
68474SOL    HW223033   3.921   0.391   6.669 -1.7773  0.2499 -0.1003
68475SOL     OW23034  11.129   0.188   8.113  0.7706  0.0424  0.1840
68475SOL    HW123035  11.212   0.140   8.103  1.2989  1.1550 -1.1819
68475SOL    HW223036  11.081   0.139   8.179  1.4476 -2.1232 -0.8290
68476SOL     OW23037   2.302   9.895   5.475 -0.7098 -0.3700 -0.7477
68476SOL    HW123038   2.245   9.876   5.550 -1.2122 -0.2218 -1.0824
68476SOL    HW223039   2.310   9.811   5.430  0.7253 -0.7793  0.2197
68477SOL     OW23040   3.239   4.689   4.213 -0.4742 -0.6172 -0.3159
68477SOL    HW123041   3.228   4.776   4.254  3.4773  0.2641 -0.7485
68477SOL    HW223042   3.170   4.686   4.147  0.0759  2.9221 -1.3092
68478SOL     OW23043  14.071   0.860   3.366 -0.0840 -0.1467  0.0738
68478SOL    HW123044  14.135   0.823   3.305  0.8834  1.9338 -0.2593
68478SOL    HW223045  14.050   0.946   3.330 -2.9808 -0.6807  0.2957
68479SOL     OW23046  10.557   4.141   6.975  0.0058  0.5956  0.0972
68479SOL    HW123047  10.582   4.089   7.052 -0.7665 -1.4228 -0.9411
68479SOL    HW223048  10.609   4.104   6.904 -0.7526  1.0806 -0.7213
68480SOL     OW23049   4.690   7.287   6.749 -0.4925  0.1610  0.3163
68480SOL    HW123050   4.675   7.197   6.722 -2.1747 -0.1498  2.0737
68480SOL    HW223051   4.649   7.340   6.680  1.1628 -0.3335 -1.1134
68481SOL     OW23052   5.764   4.425  11.001  0.5786  0.1538  0.6513
68481SOL    HW123053   5.708   4.503  11.002 -0.3287 -0.4138 -1.2165
68481SOL    HW223054   5.763   4.396  10.910  2.6123 -0.8481  0.8846
68482SOL     OW23055   6.780  11.032  13.715  0.2379  0.1559  0.1544
68482SOL    HW123056   6.740  11.092  13.778  1.0297  1.2994 -0.3802
68482SOL    HW223057   6.709  11.008  13.656  0.2993  2.3020 -0.8951
68483SOL     OW23058   7.897  10.755   3.185  0.0202  0.1254 -0.2799
68483SOL    HW123059   7.885  10.843   3.148 -0.5454  0.6779  1.1478
68483SOL    HW223060   7.833  10.701   3.138  1.2633  0.1286 -2.1159
68484SOL     OW23061  12.407   0.034   0.156  0.0933 -0.1680  0.4396
68484SOL    HW123062  12.492   0.074   0.140 -0.2708  0.6719  0.5411
68484SOL    HW223063  12.361   0.096   0.212 -0.8723 -0.2448 -0.2368
68485SOL     OW23064   2.403   3.702  10.218  0.1983  0.3498 -0.1783
68485SOL    HW123065   2.478   3.642  10.220  1.3919  1.7047 -1.5325
68485SOL    HW223066   2.330   3.648  10.187  0.1992 -1.3303  2.4486
68486SOL     OW23067   2.127  11.131  13.135  0.0440 -0.2431 -0.2361
68486SOL    HW123068   2.207  11.101  13.179 -0.6879  0.4592  1.7134
68486SOL    HW223069   2.159  11.180  13.059  1.5913  1.0938  1.1722
68487SOL     OW23070   1.405   3.984   5.022 -0.3150  0.1018  0.5025
68487SOL    HW123071   1.497   3.974   5.045  0.4045 -0.0646 -2.1362
68487SOL    HW223072   1.401   4.066   4.972 -1.5253 -0.0826  0.2670
68488SOL     OW23073   9.585  13.521   0.862  0.3661  0.1517  0.7826
68488SOL    HW123074   9.495  13.488   0.867  1.0127 -1.6809  0.9501
68488SOL    HW223075   9.593  13.556   0.773 -0.6701  0.9076  0.9621
68489SOL     OW23076   0.278   3.360   6.532  0.4263  0.3925  0.0165
68489SOL    HW123077   0.332   3.286   6.504 -0.5601  0.6621 -2.9766
68489SOL    HW223078   0.198   3.319   6.567  0.2168  0.0131 -0.8888
68490SOL     OW23079   4.594   8.236   2.609  0.2861  0.1394 -0.2411
68490SOL    HW123080   4.500   8.252   2.611  0.5694  1.9035  1.5583
68490SOL    HW223081   4.634   8.320   2.631  2.2444 -0.8851  0.3700
68491SOL     OW23082   2.095   9.195  12.583  0.1598  0.1571 -0.1979
68491SOL    HW123083   2.103   9.286  12.612 -0.4357  0.8166 -1.9916
68491SOL    HW223084   2.026   9.158  12.639  0.5877  0.7060  0.7225
68492SOL     OW23085   0.630  10.368   0.087  0.6282  0.6308 -0.4647
68492SOL    HW123086   0.683  10.323   0.022 -1.4563 -0.0096 -1.8224
68492SOL    HW223087   0.582  10.434   0.038  0.1734  1.2040  0.7107
68493SOL     OW23088   6.316  11.369   8.980  0.3607 -0.0294  0.2107
68493SOL    HW123089   6.347  11.295   9.033 -0.4513  0.9514  2.1460
68493SOL    HW223090   6.220  11.359   8.979  0.2272  1.0841  0.6754
68494SOL     OW23091   5.200  10.702   9.757  0.0801  0.0241 -0.0763
68494SOL    HW123092   5.190  10.645   9.680 -0.8572 -0.5410  0.4440
68494SOL    HW223093   5.275  10.757   9.736  1.9654 -2.3446 -0.0352
68495SOL     OW23094   3.820  11.287   3.498  0.3027  0.6632 -0.3295
68495SOL    HW123095   3.823  11.202   3.542 -3.4220 -0.1000 -1.2535
68495SOL    HW223096   3.878  11.343   3.550 -0.2700 -1.3759  2.7452
68496SOL     OW23097  11.605   0.666   9.913  0.2858  0.4153 -0.0004
68496SOL    HW123098  11.675   0.692   9.973 -1.0531  0.9135  1.4165
68496SOL    HW223099  11.526   0.668   9.967 -0.4882 -2.8443 -0.8180
68497SOL     OW23100   8.642   9.414   4.580  0.2722 -0.6950 -0.2494
68497SOL    HW123101   8.701   9.343   4.556 -1.3623 -1.9737 -0.6330
68497SOL    HW223102   8.628   9.462   4.498  0.8902 -0.2668 -0.1168
68498SOL     OW23103   6.938   8.005   7.097  0.0654  0.2743  0.3138
68498SOL    HW123104   7.023   8.047   7.080  0.2776 -0.2725  0.0163
68498SOL    HW223105   6.897   7.998   7.011 -0.7914  1.5912  0.5841
68499SOL     OW23106  11.731   6.536   4.932  0.2244 -0.1272  0.6929
68499SOL    HW123107  11.826   6.532   4.922  0.4565  0.3225  2.4738
68499SOL    HW223108  11.700   6.568   4.847  1.8351  1.6041  0.6901
68500SOL     OW23109   5.424  13.289  12.790  0.3161 -0.3007  0.5122
68500SOL    HW123110   5.506  13.243  12.772 -0.4196 -1.0571 -1.0546
68500SOL    HW223111   5.373  13.227  12.842 -0.5416 -1.2236 -1.3192
68501SOL     OW23112   7.391  11.133   6.140 -0.0521  0.5512 -0.8114
68501SOL    HW123113   7.463  11.071   6.126 -1.1273 -2.4097  4.0410
68501SOL    HW223114   7.428  11.200   6.197 -0.5151  0.3311 -0.2367
68502SOL     OW23115   3.442   8.675  12.931 -0.0997  0.2807 -0.1369
68502SOL    HW123116   3.404   8.713  12.851 -0.2791 -1.9077 -1.1623
68502SOL    HW223117   3.368   8.634  12.976  0.4969 -1.3757 -0.5881
68503SOL     OW23118   9.379   5.314   7.587  0.0482  0.0751  0.3688
68503SOL    HW123119   9.387   5.406   7.565 -0.2883 -0.1366 -0.6919
68503SOL    HW223120   9.288   5.291   7.565  0.3745 -0.7099 -0.2273
68504SOL     OW23121   4.225   3.443   3.412  0.5294 -0.7514  0.2611
68504SOL    HW123122   4.184   3.369   3.368 -2.2003  1.0068 -0.3907
68504SOL    HW223123   4.220   3.515   3.350  0.3571  0.7405  1.9010
68505SOL     OW23124   0.350  12.240   7.015 -0.1508  1.0439  0.1118
68505SOL    HW123125   0.436  12.202   7.032 -0.4643  0.1823 -0.1734
68505SOL    HW223126   0.362  12.334   7.029  1.5049  1.3179 -2.5269
68506SOL     OW23127   6.327  13.442   7.413  0.2015  0.1952 -0.0871
68506SOL    HW123128   6.305  13.369   7.355  0.1207  0.6025 -0.5826
68506SOL    HW223129   6.347  13.401   7.497 -2.0646 -0.2391  0.3082
68507SOL     OW23130   0.320  10.684   1.939 -0.2937 -0.1115  0.0576
68507SOL    HW123131   0.384  10.655   2.004  0.7114  0.0249 -0.8447
68507SOL    HW223132   0.335  10.778   1.931 -0.8485 -0.0187  0.0921
68508SOL     OW23133   2.122   8.784   1.501 -0.2344 -0.4836 -0.2577
68508SOL    HW123134   2.084   8.738   1.426 -0.9648  1.9805 -1.4946
68508SOL    HW223135   2.094   8.875   1.490  3.9277  1.0456  0.1116
68509SOL     OW23136  10.332   2.713   3.081 -0.2283 -0.1497 -0.0959
68509SOL    HW123137  10.289   2.697   2.996  1.3163 -0.3091 -0.8932
68509SOL    HW223138  10.338   2.808   3.087  2.9292 -0.0591 -2.0205
68510SOL     OW23139   4.347   5.820   9.480 -0.0468 -0.0211  0.3833
68510SOL    HW123140   4.290   5.768   9.536  0.7603 -1.0121  0.3106
68510SOL    HW223141   4.400   5.873   9.540 -1.6496  1.6303  0.4365
68511SOL     OW23142   6.450   6.910   8.934 -0.1036 -0.3651  0.1307
68511SOL    HW123143   6.532   6.959   8.930 -0.8470  0.8125 -1.1263
68511SOL    HW223144   6.474   6.828   8.979  1.8978 -0.3441 -0.7894
68512SOL     OW23145   3.642  12.907   9.279 -0.3341  0.0310  0.2617
68512SOL    HW123146   3.670  12.842   9.214 -1.8643 -1.4472  1.0158
68512SOL    HW223147   3.559  12.941   9.245 -0.2630  0.5441  0.5876
68513SOL     OW23148   5.175   7.091   7.450  0.0382  0.1576 -0.4878
68513SOL    HW123149   5.130   7.012   7.481  0.0735  0.0295 -0.7540
68513SOL    HW223150   5.260   7.089   7.493 -0.2262  0.4205  0.0453
68514SOL     OW23151  11.075  10.029   7.547 -0.0670  0.1168 -0.3125
68514SOL    HW123152  11.138  10.062   7.612  0.3765  0.9999 -1.1591
68514SOL    HW223153  10.993  10.023   7.595  0.3157  0.4780  0.4153
68515SOL     OW23154  12.022   3.020   4.559  0.1571  0.1669  0.0133
68515SOL    HW123155  12.003   2.933   4.595  0.9754  0.0941  0.2902
68515SOL    HW223156  12.046   3.073   4.635  2.8367 -0.2358 -0.4842
68516SOL     OW23157   3.836  13.755  13.474  0.3754  0.0511 -0.1488
68516SOL    HW123158   3.845  13.660  13.482 -0.2984 -0.0128 -0.0160
68516SOL    HW223159   3.826  13.785  13.565 -0.2193  0.1491 -0.2396
68517SOL     OW23160   1.854   3.590  12.051  0.1810 -0.4436 -0.2405
68517SOL    HW123161   1.888   3.506  12.020  1.8989 -0.9345  2.6132
68517SOL    HW223162   1.932   3.645  12.064 -0.9333  1.9005 -2.5986
68518SOL     OW23163  11.020   0.328   9.972  0.0559  0.1095  0.5633
68518SOL    HW123164  11.031   0.423   9.976 -1.6846  0.3149  1.5010
68518SOL    HW223165  10.987   0.312   9.883  3.4552 -0.0678 -0.7952
68519SOL     OW23166   9.310   2.708   0.676  0.4334  0.3171  0.3520
68519SOL    HW123167   9.223   2.711   0.637  1.4772 -1.8557 -2.4897
68519SOL    HW223168   9.312   2.623   0.721  1.5392 -0.3446 -0.9060
68520SOL     OW23169   7.647   3.925  12.846 -0.2767  0.0037 -0.1135
68520SOL    HW123170   7.645   3.850  12.787  0.9222  0.3433 -0.6082
68520SOL    HW223171   7.719   3.979  12.815  0.7577 -0.0640  1.9600
68521SOL     OW23172  12.219   4.346   0.544  0.4767 -0.2334  0.0566
68521SOL    HW123173  12.186   4.426   0.503 -0.2393 -1.4891 -1.9605
68521SOL    HW223174  12.299   4.326   0.496 -0.4351 -1.7889 -0.9061
68522SOL     OW23175   7.982   0.272  10.453  0.1964  0.0614 -0.2386
68522SOL    HW123176   7.899   0.319  10.443  0.5195  0.7290  0.1565
68522SOL    HW223177   8.035   0.329  10.507  0.8338 -0.4766 -0.2891
68523SOL     OW23178   9.282  13.850   8.172 -0.4705  0.3483  0.4209
68523SOL    HW123179   9.316  13.937   8.150  1.1342 -0.1886  0.6123
68523SOL    HW223180   9.359  13.802   8.206 -1.4771 -0.8992  1.0318
68524SOL     OW23181   3.622   0.238  12.271 -0.1053  0.1064  0.0151
68524SOL    HW123182   3.684   0.279  12.211 -0.7257  2.2629  0.7721
68524SOL    HW223183   3.544   0.221  12.218  0.4834 -1.0285 -0.5254
68525SOL     OW23184   9.135   1.694   4.890 -1.0764 -0.8131  0.1548
68525SOL    HW123185   9.189   1.615   4.886  0.7624  0.3837  0.0593
68525SOL    HW223186   9.080   1.682   4.967  0.4364 -1.4255  1.1865
68526SOL     OW23187   3.309   7.100   7.896 -0.3285  0.0371 -0.3300
68526SOL    HW123188   3.311   7.012   7.858 -0.0625 -0.3219  0.4894
68526SOL    HW223189   3.278   7.086   7.986 -0.7537  0.8427 -0.3477
68527SOL     OW23190   3.730   8.338   0.836  0.7543 -0.3420  0.0586
68527SOL    HW123191   3.789   8.315   0.764  1.7999  0.5165  0.6164
68527SOL    HW223192   3.788   8.355   0.910 -0.2108  0.3598  0.6773
68528SOL     OW23193   9.729   3.598   4.957 -0.1999 -0.0853 -0.2173
68528SOL    HW123194   9.677   3.518   4.949  0.6370 -0.8025  1.0963
68528SOL    HW223195   9.765   3.612   4.870 -0.1428 -1.3143 -0.4163
68529SOL     OW23196  12.475   0.785   0.674 -0.1369  0.1348  0.1933
68529SOL    HW123197  12.560   0.744   0.693 -1.2801 -1.7813  1.5472
68529SOL    HW223198  12.481   0.872   0.713  1.8546  0.8192 -1.4429
68530SOL     OW23199  13.958   4.577   5.296  0.5784 -0.1326 -0.3256
68530SOL    HW123200  14.016   4.616   5.231  0.8599 -1.9531 -1.2405
68530SOL    HW223201  13.870   4.591   5.263  0.6852 -0.3526 -0.7166
68531SOL     OW23202   6.255   8.564   7.032  0.3518  0.4820 -0.4861
68531SOL    HW123203   6.220   8.518   7.108  1.2345 -0.8360 -0.8456
68531SOL    HW223204   6.244   8.656   7.053 -0.9713  0.1360  0.5013
68532SOL     OW23205   9.366   8.459   7.063  0.3753 -0.4528  0.3877
68532SOL    HW123206   9.437   8.502   7.014 -0.7682  0.2939 -0.6822
68532SOL    HW223207   9.407   8.381   7.099  1.7251 -0.1073 -0.2986
68533SOL     OW23208   3.141  11.610   4.878  0.0865 -0.1554 -0.0148
68533SOL    HW123209   3.104  11.692   4.908  0.6027  0.0771 -0.0018
68533SOL    HW223210   3.213  11.635   4.820  0.0944 -0.5948 -0.2042
68534SOL     OW23211   9.212  10.690   8.604 -0.3774  0.2939 -0.1876
68534SOL    HW123212   9.306  10.692   8.587 -0.4410  0.0096 -0.5814
68534SOL    HW223213   9.192  10.598   8.619 -0.4353  0.4648  0.8319
68535SOL     OW23214  13.473   9.803   8.435  0.1292 -0.0235  0.0924
68535SOL    HW123215  13.451   9.809   8.342  1.7985  0.5255 -0.2988
68535SOL    HW223216  13.394   9.831   8.480 -0.4389  0.5078 -1.1772
68536SOL     OW23217   9.078   1.326   2.355  0.2304  0.0200 -0.1368
68536SOL    HW123218   9.100   1.406   2.308  0.4233 -0.3798 -0.7356
68536SOL    HW223219   9.126   1.333   2.438 -0.9041  1.1822  0.4477
68537SOL     OW23220   2.111   8.175   7.679  0.5301  0.1179  0.2896
68537SOL    HW123221   2.026   8.218   7.670  1.5682  2.3216  0.3838
68537SOL    HW223222   2.094   8.083   7.657 -1.4711  0.8894 -1.7849
68538SOL     OW23223  12.027  10.919   6.087  0.3935  0.1713  0.2673
68538SOL    HW123224  11.932  10.921   6.098  0.5276  3.2548  1.9073
68538SOL    HW223225  12.040  10.883   5.999 -2.3945  1.4665 -0.7926
68539SOL     OW23226   9.934   6.641  11.866  0.2667  0.6677  0.0745
68539SOL    HW123227   9.925   6.721  11.917  0.2951  0.9355 -0.3321
68539SOL    HW223228  10.011   6.656  11.811  0.5032  0.2047  0.2770
68540SOL     OW23229  12.473   3.210   3.319 -0.0903  0.8055 -0.5118
68540SOL    HW123230  12.462   3.147   3.248  0.5852 -0.4584  0.4560
68540SOL    HW223231  12.383   3.229   3.348 -0.3255 -3.1911  2.0581
68541SOL     OW23232   8.746  13.092  11.927  0.5740 -0.1506 -0.0406
68541SOL    HW123233   8.674  13.031  11.935  1.9911 -1.8627  0.2659
68541SOL    HW223234   8.824  13.037  11.918  1.6688  1.5959 -2.4052
68542SOL     OW23235   1.476   5.262  10.454 -0.1573 -0.0842  0.2542
68542SOL    HW123236   1.382   5.266  10.472 -0.3628 -0.4340 -0.6687
68542SOL    HW223237   1.498   5.170  10.464 -0.4236 -0.4133 -1.8622
68543SOL     OW23238  10.741   6.640   1.197  0.7021  0.1014  0.2378
68543SOL    HW123239  10.747   6.547   1.178  0.1518  0.0006  0.5257
68543SOL    HW223240  10.811   6.657   1.260  0.6775 -0.1602  0.3346
68544SOL     OW23241   8.955  12.572  12.435 -0.2699  0.2556 -0.0246
68544SOL    HW123242   9.022  12.537  12.376 -0.0632  0.2157  0.2315
68544SOL    HW223243   8.874  12.528  12.409 -0.6990  1.9842 -1.8762
68545SOL     OW23244  12.774   0.414   8.431 -0.2930  0.1403  0.3706
68545SOL    HW123245  12.836   0.442   8.364 -2.4798  0.8214 -1.5109
68545SOL    HW223246  12.714   0.488   8.440  0.0120  0.1323  3.2815
68546SOL     OW23247  12.859   6.371   6.811  0.1968 -0.1872  0.2374
68546SOL    HW123248  12.875   6.457   6.849 -0.1826 -0.1464  0.3088
68546SOL    HW223249  12.927   6.315   6.850  0.5530  0.1130  0.0543
68547SOL     OW23250  11.614   6.957  10.315 -0.1240 -0.3302 -0.4940
68547SOL    HW123251  11.705   6.962  10.345 -0.1267 -1.1476 -0.3350
68547SOL    HW223252  11.616   6.991  10.225  0.2122  0.3057 -0.2541
68548SOL     OW23253   6.065   4.942  10.939  0.0414  0.7141 -0.1502
68548SOL    HW123254   6.088   4.882  10.868 -0.2930  0.3179  0.0727
68548SOL    HW223255   6.147   4.987  10.960  0.5486 -0.4251  0.3941
68549SOL     OW23256   9.640   5.705   7.761 -0.3410  0.3568  0.0775
68549SOL    HW123257   9.555   5.708   7.804  0.7030  0.7021  2.2486
68549SOL    HW223258   9.701   5.738   7.827  1.4951  0.0082 -1.3773
68550SOL     OW23259  12.173   5.659  13.805  0.2503  0.5467  0.0221
68550SOL    HW123260  12.168   5.606  13.725 -0.4311  1.4148 -0.5178
68550SOL    HW223261  12.135   5.743  13.781 -1.8074  0.2034  1.7785
68551SOL     OW23262   7.188   7.043   4.384 -0.2828  0.6222 -0.0409
68551SOL    HW123263   7.173   7.131   4.419  1.6288  0.4226  1.4571
68551SOL    HW223264   7.103   7.000   4.388 -1.0852  2.1510 -0.0792
68552SOL     OW23265  10.320   6.656   7.218 -0.5688 -0.0725 -0.5546
68552SOL    HW123266  10.415   6.646   7.210 -0.4011  1.9594 -1.6111
68552SOL    HW223267  10.302   6.642   7.311  0.3114 -3.3983 -0.7555
68553SOL     OW23268   4.941   1.316   3.913 -0.2203  0.0309 -0.5559
68553SOL    HW123269   4.961   1.403   3.948 -1.5119 -0.1731  0.7981
68553SOL    HW223270   4.895   1.334   3.831 -0.4452  0.6368 -0.3041
68554SOL     OW23271   2.589   8.002   2.624  0.2967  0.3232 -0.0214
68554SOL    HW123272   2.633   7.933   2.674 -0.0445 -0.7997 -1.2142
68554SOL    HW223273   2.623   8.084   2.661  1.6104 -0.4887  0.6464
68555SOL     OW23274   1.990   9.889  11.891  0.1680 -0.0678 -0.0706
68555SOL    HW123275   2.010   9.899  11.798  1.1901 -1.2535 -0.0061
68555SOL    HW223276   1.979   9.979  11.923 -0.3076  0.3457 -1.3464
68556SOL     OW23277   5.458   5.075   8.482  0.2490 -0.1704 -0.7008
68556SOL    HW123278   5.422   5.011   8.543  0.4186  0.4935  0.1154
68556SOL    HW223279   5.408   5.063   8.401  0.4452 -1.4947 -0.6553
68557SOL     OW23280   4.056   8.867  11.318 -0.0320 -0.3497 -0.1794
68557SOL    HW123281   4.092   8.831  11.399  0.2648 -0.2940 -0.2844
68557SOL    HW223282   4.058   8.795  11.256 -0.1793 -0.3688 -0.1636
68558SOL     OW23283   0.340   3.359  10.669 -0.0634  0.1280 -0.1158
68558SOL    HW123284   0.269   3.367  10.605  0.4898  1.9775 -0.5650
68558SOL    HW223285   0.313   3.415  10.742 -0.5345 -1.7080  1.1594
68559SOL     OW23286  13.224   6.668   1.017 -0.6988  0.0412  0.1442
68559SOL    HW123287  13.277   6.675   1.096 -2.4516 -0.8567  1.4617
68559SOL    HW223288  13.213   6.574   1.003 -0.2516  0.1734 -1.3188
68560SOL     OW23289   6.922   8.023   7.374  0.3780  0.4758 -0.6385
68560SOL    HW123290   6.872   7.942   7.385  0.4157  0.4897 -0.3566
68560SOL    HW223291   6.949   8.022   7.282 -1.5297  1.2681 -1.2470
68561SOL     OW23292   6.541   8.675   9.496  0.4302  0.0498 -0.4824
68561SOL    HW123293   6.521   8.690   9.589 -1.6570 -0.8361 -0.7381
68561SOL    HW223294   6.576   8.586   9.493 -1.5107 -0.7457 -0.7529
68562SOL     OW23295   4.692   4.356  13.614 -0.6655 -0.2224  0.0917
68562SOL    HW123296   4.719   4.309  13.535  0.4698 -0.5359  0.6433
68562SOL    HW223297   4.742   4.438  13.611 -0.9005 -0.0714  0.2936
68563SOL     OW23298   9.432  11.955   1.432 -0.4779  0.5997 -0.0268
68563SOL    HW123299   9.484  11.877   1.452  0.1119  1.4072  1.8308
68563SOL    HW223300   9.437  11.963   1.337  1.9805  0.0531 -0.0214
68564SOL     OW23301   6.339   7.545  10.511 -0.1248  0.1060  0.4552
68564SOL    HW123302   6.260   7.533  10.564  0.1490 -0.2026  0.7987
68564SOL    HW223303   6.320   7.498  10.429 -0.0476 -0.5236  0.7921
68565SOL     OW23304   2.286   6.050  11.190 -0.2252 -0.2052  0.3777
68565SOL    HW123305   2.221   6.023  11.125 -0.3869 -1.4731  1.0340
68565SOL    HW223306   2.353   6.095  11.138  0.0188 -1.8388 -0.8147
68566SOL     OW23307  10.114   0.952  12.540 -0.4794 -0.3477 -0.2006
68566SOL    HW123308  10.179   1.015  12.572  0.6947 -1.0388 -1.1821
68566SOL    HW223309  10.037   1.005  12.520  0.3636  0.7339 -0.6561
68567SOL     OW23310   0.827   8.334  10.978  0.3943  0.1907  0.1581
68567SOL    HW123311   0.887   8.260  10.972  0.6040  0.4175 -0.7684
68567SOL    HW223312   0.872   8.398  11.033  0.8974  0.2494 -0.3142
68568SOL     OW23313   1.799   7.945   7.948 -0.1888 -0.1250  0.4662
68568SOL    HW123314   1.756   7.912   8.027 -0.6247  1.0936  0.7606
68568SOL    HW223315   1.752   8.026   7.928  1.9297  1.2613  0.8023
68569SOL     OW23316   5.838  10.655  12.662 -0.4638  0.4134  0.6095
68569SOL    HW123317   5.822  10.566  12.696 -1.6879  0.4386  0.1260
68569SOL    HW223318   5.930  10.671  12.683 -0.5184 -0.5311  1.7197
68570SOL     OW23319   3.846   7.598   5.953 -0.7593  0.1790 -0.4455
68570SOL    HW123320   3.867   7.509   5.982  1.5373 -0.0470 -2.4125
68570SOL    HW223321   3.836   7.591   5.858 -3.3736  1.6042 -0.3605
68571SOL     OW23322   6.206   3.370   2.736 -0.0142 -0.3078 -0.0359
68571SOL    HW123323   6.118   3.357   2.701  0.2564 -1.7156 -0.2631
68571SOL    HW223324   6.192   3.416   2.819 -0.9389 -0.3226 -0.1718
68572SOL     OW23325   0.999   7.069   9.676  0.4168 -0.0068 -0.0487
68572SOL    HW123326   0.974   7.095   9.765 -1.7733 -1.7801 -0.0564
68572SOL    HW223327   1.008   7.151   9.628 -2.4220  0.9054  0.8337
68573SOL     OW23328   6.447   2.810   5.810 -0.3780  0.0486  0.4422
68573SOL    HW123329   6.387   2.883   5.798  1.0073  1.3389  1.0250
68573SOL    HW223330   6.534   2.849   5.803  0.4085 -1.4666  1.2590
68574SOL     OW23331  10.980   7.497   9.666 -0.8258  0.1053  0.3833
68574SOL    HW123332  10.923   7.508   9.590 -0.4425  1.7057  0.3053
68574SOL    HW223333  11.069   7.493   9.630 -0.6940  0.2066  0.6924
68575SOL     OW23334   6.973   0.064   7.925 -0.0418  0.7926  0.5547
68575SOL    HW123335   6.894   0.076   7.977 -0.3193 -0.2458  0.3954
68575SOL    HW223336   6.982   0.144   7.874 -2.9052 -0.3644 -2.0346
68576SOL     OW23337  10.909   8.130   2.223  0.3203  0.3784  0.0575
68576SOL    HW123338  11.001   8.114   2.202  0.4323  1.6631 -0.5200
68576SOL    HW223339  10.908   8.145   2.317  0.7910  0.8938 -0.0142
68577SOL     OW23340   2.471  11.470   8.661  0.2027 -0.5325  0.0022
68577SOL    HW123341   2.453  11.410   8.589  2.8430 -0.1029 -1.1015
68577SOL    HW223342   2.564  11.489   8.655 -0.0212  1.6747  1.8906
68578SOL     OW23343   1.182   1.998   2.860 -0.0867 -0.1534  0.1025
68578SOL    HW123344   1.121   1.977   2.931  0.1557  0.1059  0.3906
68578SOL    HW223345   1.126   2.011   2.783 -0.3304 -0.6560  0.1956
68579SOL     OW23346  10.548   3.291  11.907  0.3571 -0.1961 -0.1429
68579SOL    HW123347  10.601   3.229  11.957  1.9128  0.3253 -1.0717
68579SOL    HW223348  10.466   3.244  11.889  0.6477 -1.1722  0.9813
68580SOL     OW23349  10.357   6.957  11.646 -0.7190 -0.4196 -0.1673
68580SOL    HW123350  10.342   7.036  11.698 -0.1032 -1.8151  2.2904
68580SOL    HW223351  10.274   6.910  11.650 -0.2920 -1.1380  0.7306
68581SOL     OW23352   7.686   4.076   7.213 -0.0944  1.0924 -0.0433
68581SOL    HW123353   7.649   4.067   7.301  0.4875 -2.1567 -0.0105
68581SOL    HW223354   7.614   4.052   7.154  0.4291  0.0458 -0.2659
68582SOL     OW23355   2.040   5.615   3.413  0.2059  0.1212  0.0389
68582SOL    HW123356   2.017   5.532   3.372 -0.2907 -1.1493  2.6595
68582SOL    HW223357   2.130   5.603   3.444 -0.2001  0.1480  1.2858
68583SOL     OW23358   0.243   0.837   0.815 -0.2136 -0.9938 -0.1223
68583SOL    HW123359   0.322   0.804   0.772  1.4591  2.5215 -0.1722
68583SOL    HW223360   0.264   0.835   0.909 -0.0815 -0.2298 -0.1235
68584SOL     OW23361   7.562  10.986   6.899 -0.2507  0.1664 -0.2649
68584SOL    HW123362   7.514  10.924   6.845  0.2346 -0.1943 -0.2873
68584SOL    HW223363   7.642  11.004   6.850 -0.2040  0.5042 -0.0714
68585SOL     OW23364   5.311   3.357   6.835 -0.0568  0.0186  0.0954
68585SOL    HW123365   5.246   3.379   6.901 -0.9756 -0.0639 -0.7543
68585SOL    HW223366   5.283   3.406   6.757  2.2625  1.9393  0.3477
68586SOL     OW23367   4.180   4.706   4.217 -0.1672  0.3462  0.0758
68586SOL    HW123368   4.259   4.723   4.166 -0.2408  2.2551  0.5174
68586SOL    HW223369   4.212   4.663   4.296  0.3887  0.6743  0.0365
68587SOL     OW23370   6.134   2.381   2.999 -0.8104 -0.1819  0.1081
68587SOL    HW123371   6.149   2.306   3.056  1.5499 -1.6837 -2.2355
68587SOL    HW223372   6.040   2.395   3.000 -1.1803 -2.3824  1.5596
68588SOL     OW23373   0.036   6.970   7.073  0.3349  0.0583 -0.7060
68588SOL    HW123374   0.052   6.930   7.158  0.8678  2.7241  0.5324
68588SOL    HW223375  -0.060   6.972   7.066  0.2647 -2.1493 -1.2486
68589SOL     OW23376   3.264   9.349  13.481  0.0764 -0.0820  0.1188
68589SOL    HW123377   3.286   9.296  13.558 -1.7383 -0.2115  0.5808
68589SOL    HW223378   3.181   9.312  13.449 -0.6800  1.7930 -0.1930
68590SOL     OW23379  12.325   9.316   6.047 -0.2163 -0.5802 -0.5928
68590SOL    HW123380  12.322   9.222   6.062  1.1775 -0.6488 -0.6190
68590SOL    HW223381  12.280   9.328   5.964 -0.7844 -1.1607 -0.3802
68591SOL     OW23382   2.046   2.212   5.140 -0.0444  0.0030 -0.6316
68591SOL    HW123383   2.105   2.270   5.187  0.4632  0.4524 -1.7872
68591SOL    HW223384   1.961   2.257   5.142 -0.4086 -0.6757  1.0819
68592SOL     OW23385   1.489   7.872   9.681  0.1161  0.2070 -0.2798
68592SOL    HW123386   1.395   7.892   9.677  0.3829  1.3573 -2.1602
68592SOL    HW223387   1.509   7.833   9.596  1.1806 -1.0316  0.4850
68593SOL     OW23388   9.896   4.958   5.520 -0.1265  0.0927 -0.4309
68593SOL    HW123389   9.918   5.006   5.599 -1.1704 -0.8217  0.4497
68593SOL    HW223390   9.803   4.935   5.530 -0.9354  1.7835 -2.8874
68594SOL     OW23391  12.279  13.585   5.708 -0.2563 -0.6850 -0.0973
68594SOL    HW123392  12.358  13.560   5.756 -0.3317 -0.3804  0.1890
68594SOL    HW223393  12.293  13.551   5.619 -0.3984 -1.8045  0.3027
68595SOL     OW23394   1.402   4.202   4.520  0.2763 -0.1376  0.1920
68595SOL    HW123395   1.465   4.140   4.557  0.9190  0.9730  1.0348
68595SOL    HW223396   1.317   4.158   4.528  0.0787  0.5853  4.5986
68596SOL     OW23397   1.490   4.946  13.278 -0.0256  0.0863 -0.2554
68596SOL    HW123398   1.481   4.925  13.371  2.3664 -0.4065 -0.0896
68596SOL    HW223399   1.473   4.863  13.233 -1.1909  0.3268 -0.2883
68597SOL     OW23400   5.082   1.630   8.403 -0.3613 -0.0844  0.2387
68597SOL    HW123401   5.090   1.572   8.328 -1.0873 -0.6548  0.5906
68597SOL    HW223402   4.998   1.606   8.444 -0.6158  1.1114  0.4669
68598SOL     OW23403   7.972   2.343   1.303 -0.3065 -0.2165  0.0692
68598SOL    HW123404   7.909   2.397   1.255  0.5986  0.5953 -0.2310
68598SOL    HW223405   7.943   2.253   1.288 -1.8249  0.1732  0.5611
68599SOL     OW23406  12.395  11.263   1.839 -0.1407 -0.2933  0.3154
68599SOL    HW123407  12.307  11.289   1.813 -0.5643 -0.8171  1.1671
68599SOL    HW223408  12.437  11.345   1.867 -0.5328 -0.1105  0.3800
68600SOL     OW23409   0.553   6.429   8.790 -0.7089 -0.1838  0.2252
68600SOL    HW123410   0.505   6.347   8.790  0.6462 -1.0278 -1.0461
68600SOL    HW223411   0.645   6.404   8.781  0.0652  1.3527  2.6506
68601SOL     OW23412  10.477  12.450   6.176 -0.1058 -0.2909  0.2992
68601SOL    HW123413  10.522  12.527   6.141 -0.2218  0.0325  0.8564
68601SOL    HW223414  10.412  12.429   6.110 -1.5464  1.4083  1.1004
68602SOL     OW23415   1.422   1.106  12.985 -0.5231 -0.1831 -0.2897
68602SOL    HW123416   1.456   1.175  13.042  0.1653 -0.1683 -0.6979
68602SOL    HW223417   1.363   1.056  13.040  0.1930 -0.2256  0.4662
68603SOL     OW23418   5.796   0.499   1.923 -0.0099  0.0770  0.5749
68603SOL    HW123419   5.791   0.546   2.005  0.4995  2.0209 -0.4512
68603SOL    HW223420   5.717   0.523   1.876 -0.3915 -1.1664  0.5322
68604SOL     OW23421   9.760   6.009  12.806  0.5414  0.2360 -0.2522
68604SOL    HW123422   9.837   5.971  12.762  0.4718 -0.8218  0.4902
68604SOL    HW223423   9.707   5.933  12.829 -0.1562  0.8812  0.3078
68605SOL     OW23424  11.964   6.706  12.452 -0.1898 -0.5067 -0.5083
68605SOL    HW123425  12.030   6.657  12.500  0.7587  0.4921 -0.7476
68605SOL    HW223426  11.968   6.794  12.489 -1.9140 -0.5879 -0.0201
68606SOL     OW23427   5.842   8.552   7.661 -0.4351 -0.3034  0.9942
68606SOL    HW123428   5.852   8.469   7.709  2.2512 -0.1850  0.8076
68606SOL    HW223429   5.830   8.618   7.729  1.4426 -0.3879  1.4729
68607SOL     OW23430   2.759   7.361  11.691 -0.0113  0.8699 -0.2521
68607SOL    HW123431   2.838   7.378  11.638  1.6078  1.7948  2.2706
68607SOL    HW223432   2.764   7.267  11.710  1.2512  1.1431  0.9356
68608SOL     OW23433   0.192   8.812   1.764  0.2471 -0.1531 -0.4019
68608SOL    HW123434   0.233   8.890   1.728  1.1610  0.1911  1.2947
68608SOL    HW223435   0.180   8.754   1.688  1.0342  0.9730 -1.4203
68609SOL     OW23436   2.996  12.267   3.785  0.1447  0.4502  0.1113
68609SOL    HW123437   2.925  12.276   3.721  1.2084 -0.5290 -1.2580
68609SOL    HW223438   2.958  12.217   3.857 -0.4735 -0.3366 -0.7504
68610SOL     OW23439   9.250   7.417  13.138  0.1174 -0.1546 -0.3089
68610SOL    HW123440   9.182   7.405  13.205 -0.5261 -1.4113 -1.1523
68610SOL    HW223441   9.262   7.512  13.133  0.1209 -0.0195  1.5131
68611SOL     OW23442   4.355  12.223   3.343  0.2015  0.0981  0.4839
68611SOL    HW123443   4.299  12.279   3.396 -1.4373 -1.0648  0.0598
68611SOL    HW223444   4.321  12.232   3.254  1.3151  0.0924  0.0390
68612SOL     OW23445   1.386   5.659   4.903  0.7407  0.3683 -0.2558
68612SOL    HW123446   1.398   5.670   4.809 -3.7771 -2.0759 -1.4251
68612SOL    HW223447   1.337   5.737   4.930  0.2209  0.1072 -0.4318
68613SOL     OW23448  11.364   2.592   8.342  0.2289 -0.1095 -0.0033
68613SOL    HW123449  11.429   2.648   8.299 -0.2126 -0.6346 -1.3887
68613SOL    HW223450  11.338   2.529   8.275  1.8919 -3.0795  1.8653
68614SOL     OW23451   7.985   8.181   0.816 -0.3061 -0.1371  0.4466
68614SOL    HW123452   8.081   8.178   0.816 -0.1618  2.3431 -0.0427
68614SOL    HW223453   7.960   8.156   0.727  0.0147  0.7634  0.0890
68615SOL     OW23454   5.797  13.673  10.326  0.3399 -0.2791  0.0826
68615SOL    HW123455   5.739  13.600  10.347  0.9939 -0.7526  0.2743
68615SOL    HW223456   5.855  13.680  10.402 -0.0801  0.8214  0.3287
68616SOL     OW23457   1.147   6.889   4.220  0.3084 -0.5397 -0.1216
68616SOL    HW123458   1.180   6.801   4.205 -0.3735 -0.6262 -1.1871
68616SOL    HW223459   1.052   6.878   4.231  0.3428 -0.0543  0.8361
68617SOL     OW23460   2.657  13.160   4.094 -0.4201 -0.3387  0.2804
68617SOL    HW123461   2.578  13.107   4.087 -0.7103  0.1593 -0.3740
68617SOL    HW223462   2.711  13.132   4.021 -1.0733  1.0465 -0.7805
68618SOL     OW23463   1.734   5.965   5.679  0.1635 -0.4848  0.2924
68618SOL    HW123464   1.824   5.998   5.676  0.2531 -0.8080 -0.9659
68618SOL    HW223465   1.706   5.963   5.587 -1.2260 -0.1381  0.6784
68619SOL     OW23466  13.452   2.114   9.846  0.0158  0.6486  0.8009
68619SOL    HW123467  13.533   2.066   9.862  1.2453  2.9726  2.3044
68619SOL    HW223468  13.430   2.097   9.755  1.1908 -1.4538  0.8602
68620SOL     OW23469   3.986   9.034  12.757  0.2540 -0.4568  0.3539
68620SOL    HW123470   3.900   9.074  12.771  0.8420  0.5341  1.2269
68620SOL    HW223471   4.007   8.992  12.840  1.6858  1.4262  0.9955
68621SOL     OW23472  11.001  13.562   8.382 -0.0109 -0.1366 -0.4836
68621SOL    HW123473  11.073  13.536   8.439  0.5625 -0.0146 -1.1382
68621SOL    HW223474  10.924  13.561   8.439  0.4142 -0.7834  0.0970
68622SOL     OW23475   6.975   5.608   0.530  0.1572  0.5108 -0.1376
68622SOL    HW123476   7.039   5.631   0.463 -0.1243 -0.8197 -0.9001
68622SOL    HW223477   6.895   5.653   0.503  0.4329  1.1687  0.1301
68623SOL     OW23478  10.863   3.325   1.386 -0.4101  0.0443 -0.2673
68623SOL    HW123479  10.896   3.236   1.386  2.2500  0.9419 -0.3021
68623SOL    HW223480  10.887   3.360   1.300 -3.7442  0.0877 -1.3145
68624SOL     OW23481   5.112   5.247  12.096 -0.3581  0.0199 -0.5887
68624SOL    HW123482   5.036   5.296  12.063 -0.2164  0.5829 -0.1038
68624SOL    HW223483   5.179   5.314  12.109 -0.4983 -0.1193  1.1021
68625SOL     OW23484  11.792   8.771  11.548 -0.0164  0.2850  0.1667
68625SOL    HW123485  11.800   8.676  11.554 -0.3380  0.2839  0.6682
68625SOL    HW223486  11.877   8.804  11.579  0.7799  0.1393 -1.7508
68626SOL     OW23487  11.612   9.676   8.659  0.4063  0.0175  0.1040
68626SOL    HW123488  11.703   9.684   8.687  0.7254  1.6459 -1.2824
68626SOL    HW223489  11.608   9.722   8.576 -1.3424 -1.4770 -0.7022
68627SOL     OW23490   5.282   2.328  13.162  0.0156  0.1916  0.4157
68627SOL    HW123491   5.360   2.279  13.186  0.3895  1.2797  1.5556
68627SOL    HW223492   5.219   2.262  13.136  1.4563 -0.6952 -1.0265
68628SOL     OW23493   4.623   0.490   8.840 -0.2332  0.3208  0.4271
68628SOL    HW123494   4.558   0.532   8.784  1.3135  1.7170 -0.4109
68628SOL    HW223495   4.623   0.542   8.920 -1.1713 -0.5944  1.0522
68629SOL     OW23496   5.874  11.163   4.036 -0.2931 -0.5547 -0.0005
68629SOL    HW123497   5.875  11.232   3.970 -0.2322 -1.2921 -0.7792
68629SOL    HW223498   5.909  11.205   4.115  0.6421  0.0503 -0.7150
68630SOL     OW23499   4.676   6.316   8.704 -0.3861  1.1327 -0.1805
68630SOL    HW123500   4.716   6.322   8.617 -0.6507 -2.6576 -0.7295
68630SOL    HW223501   4.746   6.280   8.759 -0.6636  2.1535  0.8718
68631SOL     OW23502   1.987   0.171   0.491  0.0850  0.0802  0.4504
68631SOL    HW123503   1.920   0.201   0.429  1.0857  3.6530  0.8973
68631SOL    HW223504   1.937   0.147   0.569 -0.8278  2.8891  0.8553
68632SOL     OW23505  12.463  12.321   8.763  0.4336 -0.7094 -0.5959
68632SOL    HW123506  12.465  12.257   8.834 -2.1691  0.1383  0.3442
68632SOL    HW223507  12.388  12.377   8.783  1.3832  1.3876 -2.4761
68633SOL     OW23508  12.726   5.886  10.753 -0.0939  0.1493 -0.1448
68633SOL    HW123509  12.648   5.836  10.729 -0.4090  0.4555  0.2412
68633SOL    HW223510  12.798   5.839  10.710 -0.4698 -0.2117 -0.3926
68634SOL     OW23511   2.447   0.934   0.634  0.0252 -0.0505  0.1731
68634SOL    HW123512   2.414   0.883   0.708  2.1141 -1.9031 -0.0905
68634SOL    HW223513   2.521   0.983   0.669  1.9460 -2.0252 -0.8762
68635SOL     OW23514  11.798   1.591   3.981  0.2997  0.6679  0.0247
68635SOL    HW123515  11.811   1.514   3.926  0.7032 -0.2819  1.3860
68635SOL    HW223516  11.771   1.660   3.920 -0.2991 -0.5976 -1.1955
68636SOL     OW23517  12.413   3.895  13.301 -0.0653  0.0314 -0.2575
68636SOL    HW123518  12.324   3.905  13.266 -0.9022 -1.0888  1.4559
68636SOL    HW223519  12.469   3.934  13.234 -1.9304  1.9949 -0.7674
68637SOL     OW23520   9.167   8.783   1.202 -0.1133 -0.1362  0.2659
68637SOL    HW123521   9.257   8.815   1.210 -0.4311  0.4159  2.1151
68637SOL    HW223522   9.120   8.854   1.159  0.6979 -1.2799 -2.7767
68638SOL     OW23523   6.925   2.123   7.303  0.2957  0.0699  0.4808
68638SOL    HW123524   6.952   2.215   7.312  0.4523  0.0955 -0.2010
68638SOL    HW223525   6.952   2.099   7.215  0.5851 -0.7463  0.7815
68639SOL     OW23526   0.238   6.672   0.654 -0.0785 -0.0316 -0.0138
68639SOL    HW123527   0.173   6.617   0.697  1.6877 -1.0035  1.5614
68639SOL    HW223528   0.273   6.727   0.724  0.8422  0.4234 -0.8031
68640SOL     OW23529   6.684  12.653  13.338 -0.1160 -0.3570  0.3499
68640SOL    HW123530   6.744  12.707  13.390  0.0014 -0.8977  0.7806
68640SOL    HW223531   6.726  12.648  13.252  1.8148 -2.8303  1.3250
68641SOL     OW23532   6.908  10.704   0.036 -0.1252 -0.3169  0.0237
68641SOL    HW123533   6.990  10.683  -0.007  0.3411  0.3238  0.5753
68641SOL    HW223534   6.931  10.712   0.129 -0.6089  0.8698  0.0577
68642SOL     OW23535  13.626   8.720   1.671  0.1984  0.1643  0.2157
68642SOL    HW123536  13.713   8.684   1.657 -0.2149 -0.8925  0.2782
68642SOL    HW223537  13.569   8.643   1.680 -0.4699  0.7903  1.8834
68643SOL     OW23538  11.043   9.386  13.107 -0.6251  0.1379  0.4151
68643SOL    HW123539  11.131   9.422  13.111 -0.3839 -0.4477  0.4693
68643SOL    HW223540  11.004   9.424  13.028  0.5090 -1.4357 -0.9696
68644SOL     OW23541  10.983  13.749  13.362  0.4105  0.4629  0.0782
68644SOL    HW123542  10.973  13.797  13.279  1.9420  1.3446  0.3606
68644SOL    HW223543  10.916  13.681  13.359 -1.1493  1.9711 -0.8181
68645SOL     OW23544  10.255   9.587   5.765  0.5006  0.3393 -0.2527
68645SOL    HW123545  10.267   9.526   5.692  2.4464  0.2595  0.0919
68645SOL    HW223546  10.255   9.531   5.843 -0.4810  0.5352 -0.0915
68646SOL     OW23547  11.670   1.045   1.935 -0.4510 -0.0270  0.0510
68646SOL    HW123548  11.728   1.076   2.004 -0.9563  0.7380  0.1401
68646SOL    HW223549  11.727   0.996   1.876  0.3998  1.1722 -0.1580
68647SOL     OW23550  12.505   9.733   6.582  0.2201 -0.3100  0.6468
68647SOL    HW123551  12.491   9.822   6.613 -0.5932  0.0943 -0.7999
68647SOL    HW223552  12.491   9.738   6.488  1.7938 -1.6477  0.2907
68648SOL     OW23553   2.200  12.765   6.241  0.4166  0.0166 -0.3347
68648SOL    HW123554   2.231  12.717   6.164  0.5157 -1.4013  0.5547
68648SOL    HW223555   2.136  12.827   6.206 -0.3698 -1.3606 -1.4529
68649SOL     OW23556   6.708  13.900   2.415  1.0058  0.1108  0.0793
68649SOL    HW123557   6.718  13.805   2.424  1.0718  0.2122  1.4124
68649SOL    HW223558   6.738  13.935   2.499  1.0246  1.3188 -0.4088
68650SOL     OW23559  13.626  11.988   4.531 -0.2136 -0.7457 -0.1875
68650SOL    HW123560  13.623  12.077   4.565  1.9167 -0.8012  0.3225
68650SOL    HW223561  13.586  11.934   4.599  1.8992 -0.5761  1.2959
68651SOL     OW23562   5.911   3.497  13.577 -1.0662 -0.0144 -0.7049
68651SOL    HW123563   5.830   3.498  13.526 -1.5308 -0.6564  0.0106
68651SOL    HW223564   5.896   3.560  13.647 -0.1868  1.3514 -1.6830
68652SOL     OW23565   5.547   4.048   5.619  0.2077  0.3239 -0.5697
68652SOL    HW123566   5.507   4.091   5.695 -0.9568  1.7252 -1.9239
68652SOL    HW223567   5.632   4.018   5.651 -0.2654  0.8430  1.2999
68653SOL     OW23568   3.262   2.977   7.532  0.2543  0.3299 -0.8457
68653SOL    HW123569   3.241   2.966   7.625  1.0674  1.6156 -0.4839
68653SOL    HW223570   3.198   3.041   7.501 -0.0382 -0.1226 -1.1965
68654SOL     OW23571   5.920   2.456   1.555  0.1021 -0.2773  0.0152
68654SOL    HW123572   5.841   2.414   1.591 -0.5063  0.3239 -0.5900
68654SOL    HW223573   5.955   2.392   1.493  0.9375 -1.1589  1.3427
68655SOL     OW23574   6.132  11.782   0.745  0.4707  0.0328 -0.0066
68655SOL    HW123575   6.169  11.869   0.730  0.0368  0.0814 -0.8519
68655SOL    HW223576   6.037  11.796   0.748  0.3624 -0.4828 -0.7641
68656SOL     OW23577  11.569   2.203   9.186  0.2563  0.3860 -0.1581
68656SOL    HW123578  11.560   2.286   9.140  1.1692  0.8644  0.4964
68656SOL    HW223579  11.514   2.213   9.264 -0.4666 -0.0327 -0.6038
68657SOL     OW23580   2.284   1.844   9.969  0.0747 -0.1166  0.3759
68657SOL    HW123581   2.376   1.832   9.945 -0.3101 -0.6147 -0.9793
68657SOL    HW223582   2.253   1.755   9.989 -0.5875 -0.2693 -1.1433
68658SOL     OW23583   0.704  13.387   9.250 -0.0370 -0.5657 -0.2528
68658SOL    HW123584   0.723  13.355   9.162 -0.0306  1.2425 -0.9380
68658SOL    HW223585   0.752  13.327   9.308  1.4643 -0.6985 -1.5616
68659SOL     OW23586  10.246  10.303  10.571  0.0050 -0.1188 -0.2531
68659SOL    HW123587  10.180  10.235  10.584  1.0770 -1.2190 -0.3579
68659SOL    HW223588  10.310  10.263  10.512  1.5106  0.3636  0.9870
68660SOL     OW23589   4.252   2.926   8.129 -0.2488  0.5025 -0.0992
68660SOL    HW123590   4.260   2.847   8.183  0.1963 -0.5520 -1.6553
68660SOL    HW223591   4.341   2.960   8.123  0.2747 -1.0347 -2.4834
68661SOL     OW23592   0.961  10.293   6.977  1.1479 -0.0349 -0.6004
68661SOL    HW123593   0.926  10.204   6.981  0.5748  0.1611 -1.1786
68661SOL    HW223594   0.913  10.340   7.045  1.4747 -0.1742 -0.2719
68662SOL     OW23595   1.036   8.806   6.183  0.1084 -0.2594 -0.0857
68662SOL    HW123596   1.037   8.834   6.275 -0.6393  0.6710 -0.3454
68662SOL    HW223597   0.961   8.746   6.177  0.7177 -1.0531  0.1071
68663SOL     OW23598   9.951   5.009   5.041  0.3176  0.2321 -0.0348
68663SOL    HW123599   9.972   5.100   5.022  1.8150  0.2503  1.3845
68663SOL    HW223600  10.008   4.958   4.983 -1.0500  0.1613 -1.3548
68664SOL     OW23601   2.750   7.883  10.827  0.0410  0.3107 -0.2789
68664SOL    HW123602   2.694   7.884  10.750  1.2533 -1.0930 -1.2192
68664SOL    HW223603   2.717   7.810  10.880  1.2739 -0.9020 -1.1143
68665SOL     OW23604   2.204   7.746   0.194  0.0080  0.7597  0.0279
68665SOL    HW123605   2.229   7.684   0.262  0.3912 -0.0202 -0.8098
68665SOL    HW223606   2.164   7.819   0.242 -1.3168 -0.5305  0.9826
68666SOL     OW23607   6.633  11.768   1.427 -0.4531 -0.1395 -0.2361
68666SOL    HW123608   6.633  11.768   1.523 -0.5513 -2.6627 -0.1624
68666SOL    HW223609   6.551  11.811   1.403  0.3690  2.0977  0.7220
68667SOL     OW23610  11.343   3.780  13.231 -0.0108  0.0932  0.1292
68667SOL    HW123611  11.400   3.738  13.294 -1.3015 -1.5296  0.2829
68667SOL    HW223612  11.264   3.803  13.280 -0.5747 -0.1726 -0.6138
68668SOL     OW23613   1.533   4.354  11.198  0.2738  0.1433  0.0448
68668SOL    HW123614   1.458   4.312  11.156  1.2875 -0.6433 -1.0334
68668SOL    HW223615   1.563   4.418  11.135  0.1835  0.8618  0.7143
68669SOL     OW23616  13.721   2.809  10.136  0.2065 -0.4356 -0.1392
68669SOL    HW123617  13.669   2.812  10.216 -0.5258  1.1359 -0.6251
68669SOL    HW223618  13.680   2.741  10.083 -0.8827  0.2406 -0.1893
68670SOL     OW23619   3.816  12.143   8.897 -0.2011 -0.5122 -0.7169
68670SOL    HW123620   3.878  12.096   8.842  0.4305  0.3181 -0.7358
68670SOL    HW223621   3.868  12.212   8.939 -0.4084 -1.7421  1.7549
68671SOL     OW23622   2.614   4.320   5.337  0.2307 -0.2353  0.3565
68671SOL    HW123623   2.566   4.381   5.393 -1.3220 -0.2476 -0.8828
68671SOL    HW223624   2.582   4.339   5.249  0.0488 -2.5080 -0.1235
68672SOL     OW23625   2.389   8.279   6.414 -0.1450 -0.2645 -0.2146
68672SOL    HW123626   2.383   8.240   6.502 -0.5309  0.0180 -0.1113
68672SOL    HW223627   2.432   8.364   6.429  1.5898 -1.0290 -0.5630
68673SOL     OW23628   1.967   1.502   4.347 -0.1933  0.3478 -0.1366
68673SOL    HW123629   2.039   1.562   4.330  0.3750 -0.0612  0.7771
68673SOL    HW223630   1.954   1.506   4.441  0.3799 -1.5185  0.0612
68674SOL     OW23631   6.712   0.822   7.058  0.5261  0.1484 -0.1557
68674SOL    HW123632   6.769   0.746   7.063 -0.1564 -0.3556  0.1306
68674SOL    HW223633   6.630   0.789   7.021  0.0689  0.6480  0.3919
68675SOL     OW23634   6.717   6.047   6.504 -0.4914 -0.4375  0.2502
68675SOL    HW123635   6.715   6.115   6.572 -1.4577  0.8342 -0.9867
68675SOL    HW223636   6.745   6.094   6.425  0.5100 -1.8600 -0.2732
68676SOL     OW23637   7.191  10.055   5.368 -0.0026  1.0525  0.2940
68676SOL    HW123638   7.261  10.070   5.305 -0.4751 -2.5070 -1.3277
68676SOL    HW223639   7.116  10.029   5.314 -0.3494 -2.4565  2.1906
68677SOL     OW23640   5.509   1.919   9.629 -0.3163 -0.3427 -0.7138
68677SOL    HW123641   5.482   1.852   9.691 -1.4357 -0.0810 -0.8939
68677SOL    HW223642   5.526   1.996   9.683  2.7787 -1.2078 -0.2838
68678SOL     OW23643   3.898   8.010   2.030 -0.5948  0.2700 -0.1133
68678SOL    HW123644   3.897   7.923   2.068  1.2224  1.3826  2.8671
68678SOL    HW223645   3.813   8.047   2.051  0.0236  0.5170  2.3244
68679SOL     OW23646   3.291   1.550   9.906 -0.1782  0.4159 -0.0555
68679SOL    HW123647   3.322   1.633   9.868  0.5061 -0.1603 -0.7849
68679SOL    HW223648   3.311   1.484   9.840 -3.2036 -0.0016 -0.6998
68680SOL     OW23649   5.539   3.706   6.989 -0.0659  0.1473  0.5545
68680SOL    HW123650   5.599   3.750   7.050  1.5110  0.2041 -0.9643
68680SOL    HW223651   5.531   3.617   7.024  1.2274  0.0245  0.5862
68681SOL     OW23652   8.542   4.165  11.847  0.6624  0.3149 -0.4568
68681SOL    HW123653   8.632   4.133  11.849  1.4676  2.4110  2.0539
68681SOL    HW223654   8.551   4.261  11.842 -1.4291  0.5594 -0.3633
68682SOL     OW23655   8.245  11.815  13.435 -0.3859  0.2632 -0.4760
68682SOL    HW123656   8.309  11.825  13.505 -0.3583 -2.6096  0.0414
68682SOL    HW223657   8.224  11.904  13.408  0.5438  1.4300  2.3194
68683SOL     OW23658   2.606   7.515   4.309 -0.0323  0.1020 -0.4087
68683SOL    HW123659   2.561   7.450   4.364 -1.9906  3.1062  1.8343
68683SOL    HW223660   2.574   7.497   4.220 -1.1844 -1.4249  0.2627
68684SOL     OW23661   1.002   4.176  12.811  0.0031  0.4204 -0.3137
68684SOL    HW123662   1.056   4.105  12.778  0.7040  0.0524  1.5402
68684SOL    HW223663   1.050   4.211  12.886 -2.1117  0.3321  1.1776
68685SOL     OW23664  12.303   0.966   8.171 -0.5275  0.6988  0.2428
68685SOL    HW123665  12.325   1.057   8.193 -0.8111  0.6455  0.7700
68685SOL    HW223666  12.367   0.914   8.219 -1.1914  0.5788  1.0164
68686SOL     OW23667   1.394  13.324  13.109 -0.4848  0.2361 -0.2624
68686SOL    HW123668   1.443  13.271  13.047 -0.2349  0.1964 -0.0329
68686SOL    HW223669   1.456  13.392  13.137 -0.6897  0.4330 -0.2868
68687SOL     OW23670   8.208   2.852  10.021 -0.2651  0.0804 -0.2272
68687SOL    HW123671   8.252   2.869  10.105  0.7538 -0.3544 -0.6556
68687SOL    HW223672   8.125   2.899  10.028 -1.1413 -1.5800  1.8307
68688SOL     OW23673   5.520   4.049   2.075 -0.0837  0.0456 -0.4097
68688SOL    HW123674   5.497   3.964   2.113 -0.1031 -0.0875 -0.7158
68688SOL    HW223675   5.491   4.113   2.140  0.2230 -0.1973 -0.0350
68689SOL     OW23676  13.156   2.925   8.935 -0.2003  0.0270 -0.5738
68689SOL    HW123677  13.078   2.964   8.895 -0.7740 -0.8769 -0.3516
68689SOL    HW223678  13.166   2.841   8.890  0.0323 -0.3249  0.1248
68690SOL     OW23679   6.040  12.745   2.957 -0.5764 -0.1356 -0.1453
68690SOL    HW123680   6.032  12.808   2.885 -0.8256  0.8066  0.6827
68690SOL    HW223681   6.120  12.770   3.003 -1.1845  0.1950  0.7565
68691SOL     OW23682  13.747  10.844   2.842  0.0501 -0.2277  0.3455
68691SOL    HW123683  13.737  10.939   2.852 -0.4468 -0.0098 -1.6718
68691SOL    HW223684  13.708  10.807   2.921 -1.0232  1.2064  0.5223
68692SOL     OW23685   9.358   0.796   9.186 -0.3824  0.6200  0.9115
68692SOL    HW123686   9.279   0.812   9.134 -0.7466 -0.4348  1.1229
68692SOL    HW223687   9.429   0.826   9.131 -0.6955 -1.1411 -0.5412
68693SOL     OW23688   8.058  10.544   3.462  0.2039 -0.3204  0.5979
68693SOL    HW123689   8.019  10.457   3.453 -0.3447 -0.0582  0.3761
68693SOL    HW223690   7.983  10.603   3.469  0.5731  0.0297  1.8361
68694SOL     OW23691  12.090   8.742  10.612  0.0425 -0.3269 -0.6421
68694SOL    HW123692  12.103   8.824  10.659  0.5081 -0.1364 -1.0998
68694SOL    HW223693  12.166   8.734  10.555  0.3319 -1.3981 -0.1368
68695SOL     OW23694   6.383   2.250   1.720 -0.8095  0.7286 -0.2379
68695SOL    HW123695   6.404   2.324   1.662 -0.4485  0.5671 -0.3167
68695SOL    HW223696   6.290   2.232   1.703 -0.8934  1.1421 -0.2418
68696SOL     OW23697  11.351  12.044  12.230 -0.1734 -0.0874 -0.3542
68696SOL    HW123698  11.361  12.139  12.233  2.7869 -0.2770 -0.8765
68696SOL    HW223699  11.378  12.020  12.142 -0.0254 -1.4740  0.0480
68697SOL     OW23700  13.915  12.615   6.075 -0.0730  0.2298 -0.3057
68697SOL    HW123701  13.972  12.608   6.151  1.1291 -0.0660 -1.1997
68697SOL    HW223702  13.886  12.525   6.059 -1.9020  0.5525  0.9293
68698SOL     OW23703   9.821   7.076   1.786 -0.2602  0.1800 -0.2270
68698SOL    HW123704   9.778   6.996   1.816 -0.2051  0.3085  0.2138
68698SOL    HW223705   9.749   7.137   1.769 -0.3147 -0.0471 -0.8225
68699SOL     OW23706   2.676  10.345  12.498 -0.0032  0.3184 -0.1181
68699SOL    HW123707   2.653  10.397  12.422  0.3058  0.9477  0.2122
68699SOL    HW223708   2.653  10.255  12.474  0.7716  0.4016 -1.2262
68700SOL     OW23709   2.187   0.390   2.363  0.5597  0.1177 -0.4772
68700SOL    HW123710   2.169   0.416   2.454  1.3811  2.9735 -1.0404
68700SOL    HW223711   2.113   0.425   2.313  0.8130 -0.2189 -1.0915
68701SOL     OW23712  13.937  14.004   8.809 -0.2340 -0.2790 -0.0533
68701SOL    HW123713  13.864  14.062   8.788  0.6638  0.6726 -0.6232
68701SOL    HW223714  13.934  13.937   8.741  0.7573  1.0289 -1.4419
68702SOL     OW23715   2.144  11.478   2.232  0.6357  0.0416  0.5498
68702SOL    HW123716   2.202  11.485   2.157  2.3378  1.6369  1.9121
68702SOL    HW223717   2.133  11.568   2.263  0.5356 -0.6147  2.5901
68703SOL     OW23718   6.459   8.725   1.382  0.0011 -0.0498 -0.5355
68703SOL    HW123719   6.484   8.747   1.472  0.7714 -1.1446 -0.4537
68703SOL    HW223720   6.527   8.664   1.353 -0.4241  0.0319 -1.7466
68704SOL     OW23721   0.622   6.551   5.060  0.1980  0.1751 -0.1501
68704SOL    HW123722   0.659   6.631   5.098  0.0595  1.4822 -2.5550
68704SOL    HW223723   0.539   6.579   5.023 -0.7832 -1.5650  0.6253
68705SOL     OW23724  13.403   4.761   1.446 -0.3479  0.3858  0.2287
68705SOL    HW123725  13.358   4.732   1.525 -1.1353  0.4156 -0.1928
68705SOL    HW223726  13.496   4.759   1.468 -0.3478 -2.3891  0.2406
68706SOL     OW23727  12.469   9.950   6.059  0.3843 -0.3076  0.0971
68706SOL    HW123728  12.414   9.952   5.980  1.2250  2.7784 -0.5428
68706SOL    HW223729  12.556   9.922   6.027  0.9112  1.6437 -0.2750
68707SOL     OW23730  13.461   0.838   7.793  0.3985 -0.2529  0.1160
68707SOL    HW123731  13.517   0.786   7.736  2.3833  2.3621 -0.5509
68707SOL    HW223732  13.454   0.923   7.749 -0.1549  1.0511  2.5047
68708SOL     OW23733  12.970   6.593   4.690 -0.5214 -0.0614 -0.5717
68708SOL    HW123734  13.027   6.668   4.675 -1.5422  0.9403  0.3704
68708SOL    HW223735  12.966   6.549   4.605  0.4333  0.6923 -1.0361
68709SOL     OW23736  13.649   8.520   4.810 -0.2689 -0.0727 -0.0095
68709SOL    HW123737  13.588   8.531   4.883  1.2105 -1.1423  1.4503
68709SOL    HW223738  13.592   8.505   4.734 -1.8710 -2.0815  1.4628
68710SOL     OW23739   8.081   4.785   1.833  0.1098 -0.0799  0.0185
68710SOL    HW123740   8.037   4.857   1.879 -0.2772  0.6559 -1.4404
68710SOL    HW223741   8.122   4.734   1.903 -1.8964 -0.0200  1.3279
68711SOL     OW23742   3.385   8.435   8.080  0.7487  0.2141  0.2559
68711SOL    HW123743   3.439   8.493   8.027 -0.4588  1.0834 -0.0545
68711SOL    HW223744   3.419   8.446   8.169  1.3879  0.3901 -0.0078
68712SOL     OW23745   5.347   2.862   8.207  0.2110 -0.2810 -0.0905
68712SOL    HW123746   5.402   2.784   8.198 -0.6447 -0.8761 -0.3175
68712SOL    HW223747   5.260   2.833   8.180 -0.5523  0.2333  1.7031
68713SOL     OW23748   6.099   7.726   3.178  0.1355 -0.2376  0.5305
68713SOL    HW123749   6.085   7.638   3.143 -0.7852  0.5043 -1.1212
68713SOL    HW223750   6.189   7.748   3.151 -0.3765  0.1169 -0.9769
68714SOL     OW23751  11.999   3.526  13.366  0.6898  0.1283  0.1003
68714SOL    HW123752  12.090   3.537  13.338  1.5410 -3.0788  1.1394
68714SOL    HW223753  12.003   3.535  13.462  0.3138 -1.7310  0.3291
68715SOL     OW23754  12.254   6.776   4.357  0.5416  0.1971  0.4106
68715SOL    HW123755  12.221   6.697   4.314 -0.4222  0.8451 -0.0805
68715SOL    HW223756  12.349   6.764   4.359  0.8372  0.7843 -3.2998
68716SOL     OW23757   0.448  11.800   7.028  0.4368 -0.1865 -0.4162
68716SOL    HW123758   0.404  11.777   7.110  1.3053 -0.5535 -0.0481
68716SOL    HW223759   0.418  11.889   7.008 -0.8131 -0.5840 -0.4050
68717SOL     OW23760  13.649   8.618  10.864  0.4621  0.3959 -0.3219
68717SOL    HW123761  13.669   8.690  10.923  1.0996 -0.2642  0.2839
68717SOL    HW223762  13.655   8.657  10.776  0.0606  1.2480  0.0238
68718SOL     OW23763   7.143  10.271   3.359 -0.0193 -0.2354 -0.0116
68718SOL    HW123764   7.138  10.247   3.266  0.9368  0.5617 -0.2918
68718SOL    HW223765   7.237  10.271   3.378  0.0522  2.4532  0.1404
68719SOL     OW23766  12.892   2.630  10.925 -0.1180 -0.3570  0.7191
68719SOL    HW123767  12.857   2.542  10.939 -0.1905 -0.2353  1.3627
68719SOL    HW223768  12.832   2.670  10.863 -1.7897  0.2069  2.5806
68720SOL     OW23769  10.098   4.772  13.879  0.2612  0.1402 -0.8122
68720SOL    HW123770  10.185   4.807  13.858  0.1336  0.0589 -1.4704
68720SOL    HW223771  10.097   4.770  13.975  1.0065  0.0990 -0.7946
68721SOL     OW23772   8.289   1.218   8.566 -0.2221 -0.6133  0.2657
68721SOL    HW123773   8.333   1.296   8.533 -1.8135  0.1735 -0.0521
68721SOL    HW223774   8.198   1.244   8.578 -0.4950 -2.0101  1.5516
68722SOL     OW23775  13.484  13.476   9.020 -0.4505  0.1061  0.2106
68722SOL    HW123776  13.480  13.472   9.115 -0.2997  0.5143  0.2361
68722SOL    HW223777  13.440  13.558   8.997 -1.5881 -0.5903 -0.1538
68723SOL     OW23778   8.935  12.048   4.533  0.0312  0.1779 -0.4389
68723SOL    HW123779   8.972  12.088   4.454 -3.3343  0.4873 -2.0444
68723SOL    HW223780   8.886  12.119   4.575 -1.1312 -0.8008 -0.0686
68724SOL     OW23781  11.257   1.553   9.996  0.1827  0.3419  0.1296
68724SOL    HW123782  11.319   1.498  10.044 -0.8923 -1.4265 -0.3884
68724SOL    HW223783  11.270   1.529   9.904 -3.2621 -2.4898  0.1560
68725SOL     OW23784   6.938   4.155  11.887 -0.2279 -0.3203 -0.0465
68725SOL    HW123785   6.885   4.111  11.820 -0.4500 -0.6635  0.3549
68725SOL    HW223786   7.024   4.114  11.880 -0.6519 -1.4019  0.8714
68726SOL     OW23787   2.462  12.567   2.358 -0.4752 -0.2704  0.0845
68726SOL    HW123788   2.550  12.535   2.378 -0.0323  1.0613  0.4087
68726SOL    HW223789   2.404  12.505   2.402  0.3608 -0.0763  1.5513
68727SOL     OW23790   2.920   4.237  12.372  0.2631 -0.3192 -0.3973
68727SOL    HW123791   2.977   4.195  12.436 -0.4302 -0.5667  0.0681
68727SOL    HW223792   2.882   4.311  12.418 -0.0700 -0.3697 -0.5820
68728SOL     OW23793   2.276   5.014   9.048  0.5823 -0.0544  0.2141
68728SOL    HW123794   2.220   4.940   9.025  1.7034 -0.5560 -1.0374
68728SOL    HW223795   2.312   4.991   9.134  2.2078 -1.8180 -0.8587
68729SOL     OW23796   0.671  12.113   1.337 -0.1396  0.5321 -0.2375
68729SOL    HW123797   0.646  12.173   1.266 -2.3249 -1.2086 -1.0762
68729SOL    HW223798   0.716  12.169   1.400 -1.8347  3.0481 -1.0515
68730SOL     OW23799   7.027  11.567   0.485 -0.0841  0.0353  0.7866
68730SOL    HW123800   7.056  11.639   0.541  1.1061 -1.4320  2.1874
68730SOL    HW223801   7.106  11.543   0.435 -0.1642 -0.9014  1.0794
68731SOL     OW23802  11.851   7.150   4.444  0.2560  0.1563 -0.2558
68731SOL    HW123803  11.915   7.131   4.513 -0.7605 -1.2026  0.3718
68731SOL    HW223804  11.892   7.118   4.364  0.6854  0.0292  0.0100
68732SOL     OW23805   1.331   8.419   0.263  0.7242 -0.4285  0.5272
68732SOL    HW123806   1.401   8.418   0.329 -0.3361 -0.8886  1.6829
68732SOL    HW223807   1.361   8.482   0.197  2.1198 -0.4525  1.1120
68733SOL     OW23808   8.939   7.029   2.551  0.0734 -0.5519 -0.3595
68733SOL    HW123809   9.007   7.008   2.487 -0.7808 -2.6419 -0.6628
68733SOL    HW223810   8.858   6.997   2.511 -0.8310  0.2560  0.7597
68734SOL     OW23811  11.878   7.155  11.072 -0.3583 -0.5288  0.0074
68734SOL    HW123812  11.971   7.136  11.083 -0.0823  0.1820 -0.9319
68734SOL    HW223813  11.839   7.071  11.047 -0.0910 -0.9620  0.9982
68735SOL     OW23814  10.552  12.724   8.498  0.1951 -0.3693  0.7131
68735SOL    HW123815  10.584  12.656   8.438 -1.7687 -0.0091 -0.8392
68735SOL    HW223816  10.568  12.688   8.585  0.4405 -2.2402 -0.0606
68736SOL     OW23817   5.850   4.319   3.036 -0.1164  0.0363 -0.3059
68736SOL    HW123818   5.896   4.241   3.066 -2.7381 -1.3734  0.3206
68736SOL    HW223819   5.809   4.293   2.954 -3.0125 -0.1839  1.0665
68737SOL     OW23820   7.973   2.648  12.864  0.0567 -0.0867 -0.1710
68737SOL    HW123821   7.928   2.714  12.918 -0.7334  0.2324 -1.1931
68737SOL    HW223822   7.957   2.677  12.774  1.7281 -0.3623 -0.5768
68738SOL     OW23823   1.471   3.349   9.445  0.3290  0.1531 -0.2527
68738SOL    HW123824   1.418   3.412   9.397  1.6221  1.3486 -0.1776
68738SOL    HW223825   1.438   3.353   9.535  0.2120  0.5012 -0.3108
68739SOL     OW23826  10.608  11.105   0.776  0.4895  0.8026 -0.4215
68739SOL    HW123827  10.641  11.109   0.687  0.2086  1.1720 -0.5116
68739SOL    HW223828  10.685  11.115   0.832  0.5655  1.3264 -0.6248
68740SOL     OW23829   2.648   6.283   9.698  0.8933 -0.3944  0.4048
68740SOL    HW123830   2.659   6.372   9.664 -0.0575 -0.3697  0.1473
68740SOL    HW223831   2.572   6.289   9.756  1.0000 -0.9836  0.6056
68741SOL     OW23832   3.556   1.981   3.159 -0.0346  0.2399  0.3813
68741SOL    HW123833   3.566   1.957   3.067  0.6602  0.6081  0.3544
68741SOL    HW223834   3.470   2.023   3.163 -0.1677  0.0227 -0.0499
68742SOL     OW23835   5.522  12.677   6.267  0.5181  0.0494  0.3971
68742SOL    HW123836   5.495  12.756   6.221 -0.2903  0.1027  0.9483
68742SOL    HW223837   5.610  12.659   6.234  1.7261  2.5233  1.9826
68743SOL     OW23838  13.146   7.478   0.558  0.4946  0.1113  0.1778
68743SOL    HW123839  13.057   7.444   0.548  0.5465  0.4385 -1.8914
68743SOL    HW223840  13.140   7.570   0.532  1.5351 -0.0263 -0.6237
68744SOL     OW23841   7.938   5.869   3.423 -0.2764  0.2291  1.1818
68744SOL    HW123842   7.923   5.777   3.441 -0.9041  0.1963  0.5428
68744SOL    HW223843   8.028   5.885   3.451  0.1929 -0.8279  0.3251
68745SOL     OW23844   2.147  10.058   7.021 -0.1136  0.3581  0.1538
68745SOL    HW123845   2.065  10.101   7.046  0.1412  1.5683 -0.9774
68745SOL    HW223846   2.215  10.122   7.044  0.2023  1.1122 -2.5381
68746SOL     OW23847  14.037  13.059   2.890 -0.6089 -0.3230 -0.2300
68746SOL    HW123848  14.099  13.127   2.867 -0.5363 -0.4221 -0.3316
68746SOL    HW223849  13.958  13.106   2.917 -1.1265 -0.1863 -1.8401
68747SOL     OW23850  12.021  13.859  10.120 -0.0633 -0.3106  0.8647
68747SOL    HW123851  12.060  13.774  10.098  1.2000  0.2000  1.0174
68747SOL    HW223852  12.093  13.922  10.109 -0.2546  0.4217  3.1346
68748SOL     OW23853  12.762   9.182   5.397  0.1774  0.3704 -0.3536
68748SOL    HW123854  12.836   9.162   5.341 -0.2326  0.3461 -0.8981
68748SOL    HW223855  12.798   9.187   5.485  0.5000 -1.5850 -0.3375
68749SOL     OW23856   4.686  12.742   8.135  0.0520 -0.2444  0.1584
68749SOL    HW123857   4.713  12.733   8.227 -1.0014 -0.3220  0.4803
68749SOL    HW223858   4.596  12.776   8.140 -0.1727 -0.6491 -0.8317
68750SOL     OW23859   0.429   8.651   7.983 -0.2649  0.3842  0.0758
68750SOL    HW123860   0.507   8.701   7.959 -0.0738  0.2986  0.5167
68750SOL    HW223861   0.423   8.583   7.915  0.2257  0.1931  0.2211
68751SOL     OW23862   2.469   8.912   8.742 -0.2317 -0.0264  0.3285
68751SOL    HW123863   2.467   8.840   8.805 -0.4485  1.2158  1.7960
68751SOL    HW223864   2.449   8.990   8.793 -1.1531  0.9631 -1.4154
68752SOL     OW23865  13.664   7.217   4.362  0.7047  0.0735 -0.2283
68752SOL    HW123866  13.604   7.189   4.293  1.0209  0.1320 -0.5303
68752SOL    HW223867  13.750   7.188   4.333  0.5289 -2.4671  1.4922
68753SOL     OW23868   9.543   0.928   3.866  0.5551  0.2124  0.0652
68753SOL    HW123869   9.454   0.936   3.832  0.3653 -1.6974  0.0281
68753SOL    HW223870   9.595   0.984   3.808 -0.6432  1.6406  0.3115
68754SOL     OW23871   9.091  11.454  13.384 -0.4583  0.4153 -0.6529
68754SOL    HW123872   8.999  11.473  13.369 -0.5490  0.6253  0.1205
68754SOL    HW223873   9.134  11.539  13.383 -0.3720  0.3765 -0.3849
68755SOL     OW23874   4.172  12.261  13.788  0.1565 -0.0484  0.3323
68755SOL    HW123875   4.145  12.201  13.857  1.0478 -0.3721  0.4097
68755SOL    HW223876   4.261  12.286  13.811 -0.8251  2.8802  1.3904
68756SOL     OW23877  10.304  12.725   6.116 -0.2176  0.3670 -0.1565
68756SOL    HW123878  10.400  12.730   6.117 -0.2063  0.6206 -1.0760
68756SOL    HW223879  10.279  12.728   6.208  0.6571  0.3063  0.0990
68757SOL     OW23880   8.459   4.008  12.765  0.2714  0.4821  0.5845
68757SOL    HW123881   8.452   3.922  12.806  1.2051 -0.4267 -1.0786
68757SOL    HW223882   8.513   4.059  12.825 -0.7170  0.1172  1.8458
68758SOL     OW23883  13.424  13.751   9.844 -0.2309 -0.0468 -0.1609
68758SOL    HW123884  13.503  13.721   9.799 -0.1516  1.5431 -1.1457
68758SOL    HW223885  13.359  13.683   9.825  0.2304 -0.1537 -1.4335
68759SOL     OW23886   8.505  11.159   5.310 -0.2467 -0.1860  0.1961
68759SOL    HW123887   8.474  11.245   5.338 -0.9628 -0.0810 -0.8446
68759SOL    HW223888   8.597  11.173   5.287 -0.7040  0.6677 -1.2997
68760SOL     OW23889   3.136   5.238  11.561  0.9441 -0.0239  0.3463
68760SOL    HW123890   3.161   5.189  11.483  0.8868  0.5268 -0.0244
68760SOL    HW223891   3.131   5.329  11.532  0.3801  0.1202  0.8596
68761SOL     OW23892   4.917   7.002  13.877  0.2591  0.0941 -0.6384
68761SOL    HW123893   5.004   6.995  13.839 -0.0153 -0.6331 -1.1499
68761SOL    HW223894   4.929   6.985  13.971  0.4309 -1.7776 -0.9665
68762SOL     OW23895   2.964   1.502  11.822  0.4190  0.0069 -0.8439
68762SOL    HW123896   2.961   1.571  11.888 -0.3255 -0.1916 -0.6645
68762SOL    HW223897   3.058   1.490  11.804  0.6103  0.3046 -0.0822
68763SOL     OW23898  12.122   3.660   9.322  0.1124  0.4458 -0.7190
68763SOL    HW123899  12.107   3.670   9.228 -1.3987 -0.2456 -0.5720
68763SOL    HW223900  12.137   3.566   9.334  2.2328  0.7697 -0.4994
68764SOL     OW23901  10.564   9.416   5.288 -0.1396 -0.4165  0.4764
68764SOL    HW123902  10.612   9.363   5.224 -0.1046  0.8475 -0.5590
68764SOL    HW223903  10.497   9.461   5.238  0.2161  1.0022  1.2244
68765SOL     OW23904  11.990  13.114   4.583  0.5144  0.4118 -0.1441
68765SOL    HW123905  11.979  13.194   4.532  2.2189  0.1389 -1.0279
68765SOL    HW223906  12.040  13.141   4.660 -1.4651  0.6967  1.0939
68766SOL     OW23907   5.838  11.802   5.376 -0.4792 -0.1066  0.2011
68766SOL    HW123908   5.829  11.771   5.465  0.5116 -1.3138 -0.0916
68766SOL    HW223909   5.780  11.746   5.324 -0.1957 -0.1653 -0.0579
68767SOL     OW23910   5.971   9.440   0.488 -0.3067  0.7271  0.3272
68767SOL    HW123911   5.903   9.393   0.536 -0.9465  0.0389 -1.1811
68767SOL    HW223912   5.985   9.520   0.539 -1.2579  0.2333  1.4071
68768SOL     OW23913   1.566   2.936   0.047  0.5526  0.3286 -0.3646
68768SOL    HW123914   1.529   2.894  -0.030  0.7883 -0.5793  0.0107
68768SOL    HW223915   1.518   2.898   0.121 -0.0227  1.5557 -0.0784
68769SOL     OW23916   9.685   0.763   2.974 -0.7146  0.0881 -0.4878
68769SOL    HW123917   9.629   0.688   2.954 -0.0578 -1.1950  2.1801
68769SOL    HW223918   9.632   0.817   3.032 -0.8258  1.2689 -1.6334
68770SOL     OW23919   1.574   2.249   6.633  0.0156 -0.0745 -1.1038
68770SOL    HW123920   1.587   2.157   6.658  0.6964  0.1866 -0.4702
68770SOL    HW223921   1.480   2.263   6.641  0.1050 -0.2585  0.4397
68771SOL     OW23922  12.756   6.506  14.052 -0.0323  0.0132  0.2934
68771SOL    HW123923  12.787   6.575  14.111 -0.6511 -1.0536  1.9330
68771SOL    HW223924  12.661   6.512  14.056 -0.1222 -1.6905  1.4297
68772SOL     OW23925   4.269   7.099  10.614 -0.0135 -0.3755  0.1128
68772SOL    HW123926   4.298   7.029  10.556 -1.8878 -0.6317 -0.5863
68772SOL    HW223927   4.315   7.082  10.697  1.2705 -1.0878 -0.7251
68773SOL     OW23928   2.079  10.838   4.176 -0.0088 -0.0043  0.2979
68773SOL    HW123929   2.014  10.767   4.170  0.2376 -0.1912 -0.2706
68773SOL    HW223930   2.055  10.886   4.255  0.3574 -1.2585  1.1975
68774SOL     OW23931   7.870   3.464   4.464  0.7134  0.0246  0.4132
68774SOL    HW123932   7.906   3.529   4.524  1.3014  0.8433 -0.7931
68774SOL    HW223933   7.792   3.432   4.509  1.1013  0.6547  1.5855
68775SOL     OW23934   7.262  12.338   7.248  0.4965  0.0529 -0.2644
68775SOL    HW123935   7.227  12.413   7.201  0.6767  2.7068  3.4102
68775SOL    HW223936   7.185  12.299   7.292  0.9178  0.7831  1.1948
68776SOL     OW23937  12.380  11.384   2.863  0.1892  0.4343 -0.2190
68776SOL    HW123938  12.329  11.303   2.860  0.4263  0.1713  1.4356
68776SOL    HW223939  12.467  11.358   2.833  0.2450  0.0785  0.2319
68777SOL     OW23940  14.050   0.071   1.576 -0.4603  0.0469 -0.2429
68777SOL    HW123941  14.054   0.099   1.485 -1.8306  1.7314  0.1477
68777SOL    HW223942  14.057   0.153   1.626  0.8691 -0.8995  1.2062
68778SOL     OW23943   8.071  13.590   8.112 -0.5911 -0.3839 -0.0411
68778SOL    HW123944   8.088  13.507   8.067 -0.0197  0.0961 -0.7432
68778SOL    HW223945   8.153  13.639   8.103 -0.6133 -0.0994  1.1613
68779SOL     OW23946   2.565   4.740   8.547  0.2148 -0.3113 -0.1765
68779SOL    HW123947   2.611   4.674   8.495  0.9190  1.4752 -1.9426
68779SOL    HW223948   2.486   4.760   8.495  0.7551  1.2520 -0.4342
68780SOL     OW23949   0.726  10.654   9.947 -0.1320 -0.5097 -0.2846
68780SOL    HW123950   0.755  10.692   9.864  1.9643 -0.4105  0.4278
68780SOL    HW223951   0.699  10.565   9.924 -0.4953 -0.1641 -1.2218
68781SOL     OW23952   0.481  10.409  10.726 -0.2172 -0.2299  0.0382
68781SOL    HW123953   0.394  10.441  10.705  0.3345  1.1772 -0.2210
68781SOL    HW223954   0.537  10.441  10.655  0.4716 -1.3944  0.0145
68782SOL     OW23955   0.080   8.575   8.675  0.2616 -0.2460  0.4025
68782SOL    HW123956   0.082   8.588   8.580 -2.6708 -0.3950  0.2071
68782SOL    HW223957   0.038   8.655   8.709  0.0447 -0.7647  1.4066
68783SOL     OW23958   1.305   6.428   5.333  0.3896 -0.3358  0.3772
68783SOL    HW123959   1.243   6.371   5.287 -0.1041  1.0897 -0.7817
68783SOL    HW223960   1.256   6.508   5.351  1.7184  0.6019 -0.0414
68784SOL     OW23961   3.062   9.371   7.048  0.1125 -0.5624 -0.0894
68784SOL    HW123962   3.000   9.329   7.107 -1.1549  1.6469  0.2807
68784SOL    HW223963   3.138   9.392   7.103 -0.6528  0.6062  0.5544
68785SOL     OW23964   2.533   0.185   5.714 -0.1868  0.5251 -0.1845
68785SOL    HW123965   2.468   0.204   5.781 -0.3515  2.0963 -0.7599
68785SOL    HW223966   2.483   0.180   5.632 -0.0534 -1.8105 -0.1866
68786SOL     OW23967  13.998   4.053   2.129 -0.6493 -0.0021 -0.5298
68786SOL    HW123968  13.979   4.141   2.097 -0.2344 -0.3867 -1.9022
68786SOL    HW223969  13.933   3.997   2.087 -0.6304 -0.4158 -0.0161
68787SOL     OW23970   7.899   3.045   7.870  0.2242  0.4075  0.3449
68787SOL    HW123971   7.980   3.078   7.908  0.2822  0.6159  0.0465
68787SOL    HW223972   7.843   3.026   7.945  1.8967 -3.4281  0.8549
68788SOL     OW23973  13.362  10.421   7.933  0.1812  0.6540  0.6594
68788SOL    HW123974  13.276  10.380   7.936  0.5521 -0.1118  1.0900
68788SOL    HW223975  13.414  10.372   7.997  0.8781  1.2367  0.5473
68789SOL     OW23976   2.826   0.013  11.274 -0.3177  0.2814  0.1839
68789SOL    HW123977   2.761   0.042  11.338 -0.1324  1.6748 -0.2333
68789SOL    HW223978   2.878   0.091  11.254  2.7511 -1.1482  1.8811
68790SOL     OW23979   2.533  12.675   4.060  0.6188 -0.1298  0.0192
68790SOL    HW123980   2.579  12.759   4.053 -1.3212  1.0417  0.6840
68790SOL    HW223981   2.564  12.638   4.143 -0.0689  0.9429  0.7740
68791SOL     OW23982   9.236  12.559   4.271 -0.2329  0.7314  0.3420
68791SOL    HW123983   9.149  12.562   4.233  0.7969  2.8591 -2.1549
68791SOL    HW223984   9.228  12.499   4.344 -3.6771  0.5645 -0.0120
68792SOL     OW23985  10.252  12.669   6.856 -0.0966  0.0515 -0.1063
68792SOL    HW123986  10.230  12.576   6.857  0.4767 -0.0903  1.5706
68792SOL    HW223987  10.179  12.710   6.808 -0.6129 -1.1781 -0.4160
68793SOL     OW23988   1.820  12.718   7.193 -0.3930  0.0445  1.2708
68793SOL    HW123989   1.851  12.771   7.266 -1.5138  1.1552  0.9725
68793SOL    HW223990   1.857  12.760   7.116 -1.7439  0.7615  0.9877
68794SOL     OW23991  13.907   7.136   2.823 -0.2849 -0.2367  0.0111
68794SOL    HW123992  13.832   7.151   2.765  0.6163 -1.0458 -1.4389
68794SOL    HW223993  13.900   7.043   2.847  0.2750 -0.3273 -0.1721
68795SOL     OW23994   5.941  12.552   1.457  0.3273  0.2487  0.0896
68795SOL    HW123995   5.872  12.551   1.390 -0.4846 -0.3320  0.9115
68795SOL    HW223996   5.970  12.643   1.461 -0.9736  0.6639  0.3151
68796SOL     OW23997  10.269   2.740  10.813  0.1000 -0.3444  0.3545
68796SOL    HW123998  10.256   2.827  10.775  1.3614 -0.7195 -1.0150
68796SOL    HW223999  10.183   2.699  10.807  0.1629 -0.2684 -1.8804
68797SOL     OW24000  13.142   6.029  11.920  0.4317 -0.3960  0.1252
68797SOL    HW124001  13.211   6.084  11.884 -0.0737  1.0101  1.1920
68797SOL    HW224002  13.077   6.023  11.850  0.3443  0.6882  0.0861
68798SOL     OW24003   2.469  10.523   1.166  0.1369  0.4749  0.1705
68798SOL    HW124004   2.507  10.598   1.121  1.6802 -1.0931 -1.2769
68798SOL    HW224005   2.478  10.544   1.259  2.1110  1.3602 -0.1640
68799SOL     OW24006   8.054   3.297   4.378  0.0022 -0.1823 -0.6273
68799SOL    HW124007   8.033   3.226   4.438  0.5504  0.8478  0.8458
68799SOL    HW224008   8.004   3.371   4.410  2.5801  1.2173  0.4943
68800SOL     OW24009   5.506  11.369   8.960  0.1573 -0.3286 -0.7917
68800SOL    HW124010   5.483  11.369   9.053 -4.3210 -0.6364 -1.6678
68800SOL    HW224011   5.499  11.460   8.934  1.5249 -0.2265 -0.8870
68801SOL     OW24012   3.440   7.969   4.637  0.8013  0.4211  0.4924
68801SOL    HW124013   3.524   7.958   4.682  1.3142  1.5293 -0.1515
68801SOL    HW224014   3.413   8.058   4.657  0.6220  0.6493 -0.6859
68802SOL     OW24015   4.983   4.933   0.150  0.2284 -0.0563  0.4937
68802SOL    HW124016   4.950   4.911   0.238  0.6092 -3.1997 -0.0223
68802SOL    HW224017   5.007   4.848   0.112 -0.0358  1.1798 -2.7223
68803SOL     OW24018  12.063   3.182   8.341  0.2620 -0.3239 -0.0725
68803SOL    HW124019  11.996   3.163   8.406 -0.2515  0.9415 -0.1969
68803SOL    HW224020  12.016   3.225   8.269  0.7663 -1.9038 -1.4205
68804SOL     OW24021   6.310   3.960  10.901  0.2314  0.1382 -0.7570
68804SOL    HW124022   6.216   3.972  10.895  0.3725  1.0999 -1.3514
68804SOL    HW224023   6.332   3.986  10.990 -0.0721 -0.1259 -0.6055
68805SOL     OW24024   8.414   0.672  11.883  0.2124  0.2097 -0.0346
68805SOL    HW124025   8.412   0.620  11.803 -3.5839  0.6811 -0.4272
68805SOL    HW224026   8.378   0.757  11.858  1.5538  1.3589  1.6519
68806SOL     OW24027   2.499  11.854   1.480 -0.0081  0.2720  0.5826
68806SOL    HW124028   2.479  11.920   1.414 -2.0050  0.7095  1.5755
68806SOL    HW224029   2.587  11.877   1.511 -0.2557  1.8269  0.1750
68807SOL     OW24030  11.937   3.893  11.755  0.4665 -0.4446  0.2926
68807SOL    HW124031  11.907   3.911  11.844 -1.3029 -1.3880 -0.0728
68807SOL    HW224032  12.023   3.851  11.767 -0.2861 -1.6876  1.6428
68808SOL     OW24033  11.808   8.430  10.436 -0.4885 -0.8388 -0.1048
68808SOL    HW124034  11.898   8.403  10.420  0.1697 -0.0449  1.8924
68808SOL    HW224035  11.816   8.516  10.478 -2.1524 -0.8558  0.3341
68809SOL     OW24036   4.267   3.016   2.835 -0.4516  0.2038 -0.8155
68809SOL    HW124037   4.306   2.929   2.844  0.3715  0.5484 -0.9517
68809SOL    HW224038   4.341   3.074   2.818 -0.8767  1.0794  0.2107
68810SOL     OW24039  13.468  12.965  12.430 -0.1730  0.2313 -0.0674
68810SOL    HW124040  13.515  12.911  12.367 -0.1244  0.3954 -0.1737
68810SOL    HW224041  13.473  13.054  12.394 -1.2159  0.1444 -0.4662
68811SOL     OW24042  11.115   7.966  10.863 -0.1506  0.1209  0.2332
68811SOL    HW124043  11.122   8.040  10.802 -0.2055  0.5686  0.7605
68811SOL    HW224044  11.052   7.995  10.928  0.3439 -0.1192  0.8268
68812SOL     OW24045   1.958  11.344   2.035 -0.6989 -0.2722 -0.3286
68812SOL    HW124046   2.007  11.369   2.114 -1.0103 -1.2089  0.1814
68812SOL    HW224047   1.900  11.418   2.019 -0.4107  0.0650  0.1341
68813SOL     OW24048   4.898   6.286   1.376 -0.2708  0.5203 -0.3579
68813SOL    HW124049   4.880   6.192   1.377 -1.1029  0.6759 -0.5120
68813SOL    HW224050   4.993   6.291   1.367 -0.0047 -0.3112  1.4876
68814SOL     OW24051  12.607   2.688   5.059  0.0282 -0.0693  0.3469
68814SOL    HW124052  12.539   2.624   5.080 -0.7139  1.4591  3.0898
68814SOL    HW224053  12.656   2.698   5.141  1.6128  1.1456 -0.7075
68815SOL     OW24054   3.078   2.250   6.341  0.7339 -0.4229 -0.3375
68815SOL    HW124055   3.096   2.182   6.406  0.3053 -0.2604 -0.0439
68815SOL    HW224056   3.129   2.325   6.371  1.0660 -0.5555 -0.5629
68816SOL     OW24057   6.743   8.365   1.667 -0.2166  0.0200  0.0374
68816SOL    HW124058   6.794   8.436   1.705 -0.3318 -0.1057  0.4353
68816SOL    HW224059   6.790   8.286   1.691 -1.1628 -0.1813  1.3639
68817SOL     OW24060   3.573  13.532   2.033  0.6174 -0.0647  0.2770
68817SOL    HW124061   3.607  13.448   2.002 -1.3893 -0.4076 -1.2160
68817SOL    HW224062   3.648  13.575   2.073  2.3037 -1.5331 -1.1413
68818SOL     OW24063  13.808   7.017   9.282  0.2163  0.4092  0.2424
68818SOL    HW124064  13.771   6.936   9.247  1.5486 -0.6520  1.2121
68818SOL    HW224065  13.862   7.051   9.211 -0.6663  0.7060 -0.3172
68819SOL     OW24066   4.549   3.792   2.321  0.3892 -0.0430 -0.0720
68819SOL    HW124067   4.582   3.881   2.333  1.2203 -0.4404  0.5807
68819SOL    HW224068   4.453   3.802   2.324  0.3295  1.2173 -2.6885
68820SOL     OW24069   2.161   7.231   1.230  0.2861 -0.0028  0.1368
68820SOL    HW124070   2.235   7.226   1.170 -0.4836 -1.2493 -0.7509
68820SOL    HW224071   2.191   7.187   1.309  0.8111  0.3780  0.1601
68821SOL     OW24072   6.227   2.112   7.494 -0.1969 -0.1574 -0.4072
68821SOL    HW124073   6.203   2.153   7.577 -0.9831 -1.0664 -0.1658
68821SOL    HW224074   6.151   2.059   7.471  0.5996 -1.0968 -0.9489
68822SOL     OW24075   8.017   5.648   0.409 -0.0247 -0.2772  0.2230
68822SOL    HW124076   8.101   5.693   0.410 -0.2826  0.2159 -0.0748
68822SOL    HW224077   7.981   5.662   0.496  0.0262 -0.1587  0.2247
68823SOL     OW24078  12.090  10.781  12.786  0.0323  0.4193 -0.2340
68823SOL    HW124079  12.160  10.846  12.795  0.8910 -0.2644 -1.5344
68823SOL    HW224080  12.136  10.697  12.785 -0.9064 -0.1035 -0.1814
68824SOL     OW24081   4.443   2.249   6.388 -0.2848  0.2930 -0.2386
68824SOL    HW124082   4.470   2.330   6.344  0.5602  0.7662  1.0879
68824SOL    HW224083   4.417   2.277   6.476 -1.0569 -0.7422 -0.1286
68825SOL     OW24084   7.029  10.558   4.183  0.1039 -0.3256  0.3278
68825SOL    HW124085   6.972  10.489   4.150  0.7278 -1.1642  0.9513
68825SOL    HW224086   6.978  10.602   4.251 -0.5597  0.3066 -0.5654
68826SOL     OW24087   6.372  10.834   9.440 -0.8127  0.3608  0.4681
68826SOL    HW124088   6.380  10.778   9.518  0.0123  0.9843  0.8463
68826SOL    HW224089   6.327  10.912   9.472  0.4410  1.0580  0.5673
68827SOL     OW24090   5.327   6.133  12.856  0.1252  0.5095 -0.1763
68827SOL    HW124091   5.412   6.160  12.823  1.5841 -0.6037  2.3650
68827SOL    HW224092   5.308   6.052  12.808  0.8685  0.3713 -0.2553
68828SOL     OW24093   1.234   3.338  13.708 -0.2468  0.0473 -0.0785
68828SOL    HW124094   1.260   3.274  13.774  0.0228  1.3650  1.1455
68828SOL    HW224095   1.160   3.384  13.747  1.2781  2.3278  0.3022
68829SOL     OW24096   4.321   5.113   9.053 -0.4577  0.2656 -0.2174
68829SOL    HW124097   4.387   5.088   8.989 -0.6571  0.8600 -0.6693
68829SOL    HW224098   4.325   5.045   9.120 -0.3836 -0.4832 -0.9600
68830SOL     OW24099  12.179   4.562  11.525 -0.1377  0.6687  0.0435
68830SOL    HW124100  12.225   4.640  11.494 -0.3880  0.9470  0.3564
68830SOL    HW224101  12.248   4.498  11.542  0.2464  1.4633  1.5970
68831SOL     OW24102   1.998  10.375   2.788  0.0348  0.4534 -0.2283
68831SOL    HW124103   2.093  10.372   2.791  0.0787  0.6402 -1.0997
68831SOL    HW224104   1.977  10.397   2.697 -0.8558 -0.2730 -0.2206
68832SOL     OW24105   5.784   3.521   9.830  0.1301 -0.2336  0.1931
68832SOL    HW124106   5.719   3.584   9.862  0.8156  0.0297  1.1012
68832SOL    HW224107   5.865   3.572   9.822  0.1139 -0.4166 -1.4917
68833SOL     OW24108  13.319   9.182   5.353 -0.1559 -0.0946  0.2297
68833SOL    HW124109  13.368   9.107   5.386  2.6757  1.8158  0.8406
68833SOL    HW224110  13.384   9.232   5.303 -2.2496  1.2836 -1.2660
68834SOL     OW24111   3.608   4.889  13.272 -0.4592  0.1302 -0.2260
68834SOL    HW124112   3.544   4.819  13.286 -0.8587  0.3850 -0.7175
68834SOL    HW224113   3.691   4.843  13.257 -0.5237 -0.2057  0.4217
68835SOL     OW24114   4.009   4.900   8.467 -0.6635  0.0994  0.2822
68835SOL    HW124115   3.993   4.992   8.489  0.3595  0.4165 -0.2100
68835SOL    HW224116   4.104   4.895   8.456 -0.8175 -0.7666 -0.7789
68836SOL     OW24117   3.718   2.570  12.933  0.2616  0.7408  1.0059
68836SOL    HW124118   3.633   2.527  12.932  0.3748  0.5134  0.8309
68836SOL    HW224119   3.727   2.605  13.022  0.4863 -0.2571  1.3882
68837SOL     OW24120   4.458   6.426   4.199  0.1529  0.1336 -0.5943
68837SOL    HW124121   4.406   6.493   4.244  0.3746  1.2508 -1.9586
68837SOL    HW224122   4.424   6.343   4.234  0.1865  0.9309  1.4616
68838SOL     OW24123   1.256  13.278   4.402 -0.0766  0.4763 -0.5098
68838SOL    HW124124   1.317  13.331   4.454 -0.3805  1.6686 -1.3232
68838SOL    HW224125   1.274  13.303   4.311 -1.0362  0.0409 -0.8359
68839SOL     OW24126  10.156   0.904   9.696  0.0761  0.1174 -0.6635
68839SOL    HW124127  10.131   0.995   9.678 -0.1333  0.1523 -0.2014
68839SOL    HW224128  10.231   0.911   9.754  0.3263 -0.0045 -0.9686
68840SOL     OW24129   8.985   8.321  10.699  0.8380  0.2500 -0.2976
68840SOL    HW124130   8.994   8.226  10.700 -0.7208  0.0876  0.0594
68840SOL    HW224131   9.071   8.353  10.729  1.8234 -0.9787 -1.6825
68841SOL     OW24132   9.439   9.550   1.817  0.1268 -0.2749 -0.1044
68841SOL    HW124133   9.461   9.628   1.867 -0.2678  0.4065 -0.9588
68841SOL    HW224134   9.517   9.494   1.823  0.5899  0.3895  0.1334
68842SOL     OW24135  12.540  11.411   3.118 -0.0579 -0.0306  0.4809
68842SOL    HW124136  12.631  11.438   3.117  0.1823 -0.3698  3.7601
68842SOL    HW224137  12.542  11.319   3.092  0.5895 -0.1542  0.9509
68843SOL     OW24138  11.434   3.062   1.772  0.0410 -0.2136 -0.5445
68843SOL    HW124139  11.518   3.048   1.815 -0.1141 -0.6529 -0.3759
68843SOL    HW224140  11.438   3.010   1.692  0.7406  1.4385 -1.6495
68844SOL     OW24141   1.486   2.802   3.731 -0.7814  0.4074 -0.2011
68844SOL    HW124142   1.415   2.799   3.795  0.3574 -1.6280  1.0764
68844SOL    HW224143   1.565   2.817   3.784  0.1947 -1.3854 -1.0707
68845SOL     OW24144   9.877  11.477   7.740  0.0569 -0.9062  0.4819
68845SOL    HW124145   9.971  11.466   7.723 -0.0884 -0.2188 -0.9314
68845SOL    HW224146   9.867  11.458   7.833  1.6243 -0.8762  0.6836
68846SOL     OW24147   1.213   1.701   9.179 -0.0262 -0.6191 -0.2386
68846SOL    HW124148   1.183   1.762   9.112  1.2004  0.8428  0.4745
68846SOL    HW224149   1.301   1.733   9.203  0.6024 -2.6055  0.2501
68847SOL     OW24150  13.598   9.370  12.580  0.6388  0.6286  0.6296
68847SOL    HW124151  13.657   9.349  12.508 -0.7851 -0.5752 -0.2347
68847SOL    HW224152  13.595   9.466  12.582  0.8258  0.6791 -0.8181
68848SOL     OW24153   1.375   8.763   8.796 -0.1364  0.2912 -0.1250
68848SOL    HW124154   1.452   8.730   8.843 -1.1270 -1.4810  0.3487
68848SOL    HW224155   1.381   8.723   8.709  0.0045  0.9856 -0.4424
68849SOL     OW24156   4.575   0.871   4.064 -0.1827  0.8940 -0.5802
68849SOL    HW124157   4.658   0.871   4.016  0.6474 -0.1982  0.7824
68849SOL    HW224158   4.579   0.794   4.121 -1.8591  1.1778  0.0016
68850SOL     OW24159   5.528   3.757  11.695  0.6389  0.1970 -0.3458
68850SOL    HW124160   5.522   3.675  11.744 -1.5342  0.9387  0.7684
68850SOL    HW224161   5.584   3.813  11.749 -0.6275  0.5454  0.6532
68851SOL     OW24162   6.728   6.785   0.698  0.4507 -0.2697  0.6530
68851SOL    HW124163   6.698   6.866   0.740 -1.9929  0.1273 -1.5393
68851SOL    HW224164   6.727   6.720   0.767  2.6809  1.5280  2.5485
68852SOL     OW24165   0.146   2.472   1.293  0.5894  0.1157 -0.3133
68852SOL    HW124166   0.111   2.383   1.290  1.7333 -0.3899  0.5268
68852SOL    HW224167   0.220   2.470   1.232  1.7973 -0.0895  1.0925
68853SOL     OW24168   4.234   1.262  10.497 -0.2535 -0.5108 -0.0821
68853SOL    HW124169   4.237   1.324  10.569 -1.7753  0.7787 -1.0701
68853SOL    HW224170   4.283   1.186  10.528  0.7003  0.7348  1.5847
68854SOL     OW24171   8.048   0.896   9.535  0.5406 -0.1074 -0.0295
68854SOL    HW124172   8.064   0.856   9.449 -0.4684  2.3107 -1.4496
68854SOL    HW224173   8.093   0.980   9.530  0.3535  0.1222  1.7930
68855SOL     OW24174  12.558   1.014   8.519 -0.2027  0.2446 -0.2018
68855SOL    HW124175  12.653   1.025   8.514 -0.1605  0.6743  1.0812
68855SOL    HW224176  12.547   0.936   8.573 -0.5914 -1.0451 -2.0482
68856SOL     OW24177  10.508   2.830   2.739 -0.3289 -0.2572 -0.0031
68856SOL    HW124178  10.496   2.874   2.655 -0.7575  0.1874  0.2872
68856SOL    HW224179  10.502   2.900   2.804 -2.0608 -0.8635  0.5480
68857SOL     OW24180   9.774   9.645  12.924  0.2276 -0.1897  0.1829
68857SOL    HW124181   9.752   9.566  12.973  0.2060  0.1665  0.7566
68857SOL    HW224182   9.744   9.627  12.835 -0.4787 -0.5323  0.4823
68858SOL     OW24183  12.413   8.337   8.983  0.2774  0.2254  0.3792
68858SOL    HW124184  12.370   8.288   9.053  0.5155  0.7920  0.9317
68858SOL    HW224185  12.343   8.357   8.921  0.0791 -0.3457  0.4180
68859SOL     OW24186   4.882   6.789  13.126 -0.4159  0.2980 -0.0811
68859SOL    HW124187   4.968   6.818  13.158 -0.1888  0.7053 -1.0172
68859SOL    HW224188   4.894   6.697  13.105  0.0152  0.5289 -0.8985
68860SOL     OW24189   8.189   5.808  13.672  0.5504 -0.5172 -0.2783
68860SOL    HW124190   8.266   5.814  13.616 -0.5882  1.8501 -1.7560
68860SOL    HW224191   8.220   5.832  13.759  1.4534  0.6802 -0.9119
68861SOL     OW24192   0.910  10.150   3.390 -0.7523 -0.1774  0.1397
68861SOL    HW124193   0.980  10.215   3.393 -1.3638  0.5055 -0.0909
68861SOL    HW224194   0.950  10.070   3.423 -0.0865  0.4129  0.8020
68862SOL     OW24195   7.381   6.219   9.434 -0.7543  0.2131 -0.2101
68862SOL    HW124196   7.413   6.308   9.427  0.4925 -0.1602  0.5537
68862SOL    HW224197   7.403   6.191   9.523 -0.4800 -1.0914 -0.6613
68863SOL     OW24198   1.676   8.501   5.416  0.1052  0.4691 -0.2811
68863SOL    HW124199   1.649   8.493   5.508 -0.7862 -1.1735 -0.6604
68863SOL    HW224200   1.755   8.556   5.419  0.2393  0.2274  1.4846
68864SOL     OW24201   3.877   4.322   3.573  0.1021 -0.5579  0.4928
68864SOL    HW124202   3.852   4.413   3.589  0.0358 -0.1680 -1.5606
68864SOL    HW224203   3.915   4.293   3.656  2.6111  2.2010  0.4977
68865SOL     OW24204  13.367  14.031   3.716 -0.4788 -0.1290 -0.3936
68865SOL    HW124205  13.421  14.097   3.758  0.5976 -1.6896  0.7995
68865SOL    HW224206  13.368  14.055   3.623  0.1141  1.3357 -0.0299
68866SOL     OW24207   5.295   4.419   3.202 -0.0657 -0.6469  0.3237
68866SOL    HW124208   5.334   4.486   3.258  1.0710  1.0414 -2.2985
68866SOL    HW224209   5.202   4.441   3.199  0.1062  0.1278  0.4187
68867SOL     OW24210   7.394  13.096   6.167 -0.0451  0.0646  0.6335
68867SOL    HW124211   7.312  13.113   6.120 -0.1906 -2.6237 -0.2474
68867SOL    HW224212   7.377  13.127   6.256 -2.0242 -0.3782  0.4675
68868SOL     OW24213   8.580   0.176   2.824  0.0404  0.7300  0.2113
68868SOL    HW124214   8.631   0.190   2.904  1.6208  0.1829 -0.6574
68868SOL    HW224215   8.523   0.252   2.819  0.9597  1.5153  1.0967
68869SOL     OW24216   3.085   6.364   8.961  0.0961  0.3557  0.1442
68869SOL    HW124217   3.136   6.301   8.911 -0.4405  0.1389 -0.1362
68869SOL    HW224218   3.140   6.442   8.966  1.3807 -0.5786  1.6929
68870SOL     OW24219  11.142  13.200   5.513  0.2102 -0.0019  0.9677
68870SOL    HW124220  11.202  13.142   5.466 -0.8396 -0.1404 -0.2853
68870SOL    HW224221  11.132  13.276   5.455 -0.4308  0.2358  1.3763
68871SOL     OW24222   6.272   4.933  12.487  0.5516  0.1010  0.0870
68871SOL    HW124223   6.211   4.913  12.416  0.6522  0.3816 -0.0821
68871SOL    HW224224   6.241   5.016  12.523 -0.5690 -0.9155  1.5654
68872SOL     OW24225   9.593   2.945   4.818 -0.5095  0.3551 -0.1041
68872SOL    HW124226   9.608   2.864   4.867  3.7188  0.7727 -0.3293
68872SOL    HW224227   9.558   3.006   4.882  2.3216  0.1030  1.8727
68873SOL     OW24228   5.018   2.916  11.159 -0.3209  0.3005 -0.0563
68873SOL    HW124229   5.094   2.896  11.212 -0.1025 -0.6866 -0.7153
68873SOL    HW224230   5.023   2.855  11.085 -2.7895 -1.1857  0.8747
68874SOL     OW24231   6.302   8.938   3.488 -0.2965 -0.3448  0.5039
68874SOL    HW124232   6.392   8.966   3.499  0.3178 -2.6103  1.8872
68874SOL    HW224233   6.282   8.958   3.396  0.8713  2.0131  0.6738
68875SOL     OW24234  10.122   0.442   2.075  0.3993 -0.3291  0.1938
68875SOL    HW124235  10.050   0.472   2.019  0.7974  0.3694  0.0526
68875SOL    HW224236  10.090   0.359   2.111  0.0178 -0.6535 -0.8365
68876SOL     OW24237  14.058   5.496   3.965  0.5335  0.2006  0.1454
68876SOL    HW124238  13.996   5.442   4.013 -1.9580  3.4141  0.9514
68876SOL    HW224239  14.114   5.534   4.033  1.5637 -0.5075 -0.2889
68877SOL     OW24240   3.014   1.307   0.717 -0.0773 -0.0934  0.9603
68877SOL    HW124241   2.952   1.301   0.789 -0.1666 -2.1685  0.7903
68877SOL    HW224242   2.961   1.293   0.638  0.0829  1.7531  0.4741
68878SOL     OW24243   6.442  13.140   5.670  0.0678  0.0335  0.1819
68878SOL    HW124244   6.407  13.093   5.594 -1.1578 -0.9728  1.3232
68878SOL    HW224245   6.481  13.072   5.725  1.4199  0.8207  0.2410
68879SOL     OW24246   2.453   6.690   5.185  0.2738  0.2346  1.3987
68879SOL    HW124247   2.428   6.783   5.186  2.5057  0.9607 -0.4451
68879SOL    HW224248   2.549   6.691   5.190  0.3292 -2.0234  1.7864
68880SOL     OW24249   9.367   3.322   7.907  0.2569 -1.0651  1.0037
68880SOL    HW124250   9.319   3.263   7.965 -0.6503 -1.1507  0.1913
68880SOL    HW224251   9.345   3.410   7.939  0.8288 -1.1325  1.6056
68881SOL     OW24252   9.737  13.924  12.450  0.1590  0.3395  0.7258
68881SOL    HW124253   9.666  13.907  12.512 -0.2772  0.7111  0.3281
68881SOL    HW224254   9.807  13.961  12.504 -0.5283  1.4638  0.8667
68882SOL     OW24255   9.775   8.409   4.899 -0.1472  0.5569 -0.3236
68882SOL    HW124256   9.723   8.463   4.959  0.0045  0.6503 -0.2747
68882SOL    HW224257   9.799   8.332   4.951  1.8034  1.6253  0.4467
68883SOL     OW24258  11.843   9.603  11.292 -0.8437 -0.0537  0.4786
68883SOL    HW124259  11.843   9.661  11.216  1.9749 -0.7315 -0.1700
68883SOL    HW224260  11.792   9.527  11.263 -0.3383 -0.0329 -0.5184
68884SOL     OW24261  12.417   2.093   5.855  0.2801  0.0107  0.4786
68884SOL    HW124262  12.347   2.030   5.871 -0.1332  0.5975  1.0031
68884SOL    HW224263  12.393   2.169   5.907  0.6543  0.6917 -0.3258
68885SOL     OW24264  13.190   4.205   2.492  0.4421 -0.2498 -0.2786
68885SOL    HW124265  13.226   4.249   2.569  0.9319 -0.2246 -0.5140
68885SOL    HW224266  13.239   4.124   2.486  0.0342 -0.5001 -0.2587
68886SOL     OW24267  12.769   8.650  13.452  0.1932 -0.3752  0.2517
68886SOL    HW124268  12.676   8.648  13.428  0.0941  2.4462  0.0349
68886SOL    HW224269  12.814   8.615  13.376 -0.6346 -1.4264  0.2094
68887SOL     OW24270  11.706   1.677  13.748 -0.3869  0.1416 -0.0664
68887SOL    HW124271  11.670   1.741  13.685 -0.6620  0.8109  0.7527
68887SOL    HW224272  11.658   1.596  13.729 -2.2322  0.9520  0.8580
68888SOL     OW24273  13.946   8.806   7.770  1.0046 -0.2079 -0.2557
68888SOL    HW124274  13.921   8.756   7.848 -3.6685 -0.7651 -1.7811
68888SOL    HW224275  14.000   8.878   7.804  0.3586 -1.1758  3.2722
68889SOL     OW24276   0.494   9.184   9.641 -0.1803 -0.6161  0.5222
68889SOL    HW124277   0.482   9.276   9.665 -0.8302 -0.3358 -0.8128
68889SOL    HW224278   0.572   9.183   9.586 -2.1286 -0.2310 -2.4793
68890SOL     OW24279   9.779  13.515   2.020 -0.1692 -0.3552 -0.0280
68890SOL    HW124280   9.758  13.478   2.106  2.3256  1.1072  1.3280
68890SOL    HW224281   9.703  13.569   1.998  0.0287  1.0699  2.4099
68891SOL     OW24282   7.581  13.646  12.207 -0.1411  0.2512  0.0238
68891SOL    HW124283   7.558  13.666  12.116 -0.3240  0.4352  0.1111
68891SOL    HW224284   7.662  13.595  12.200  0.6214  1.4380 -0.1776
68892SOL     OW24285  11.322   0.640   1.101 -0.4593  0.1227  0.3464
68892SOL    HW124286  11.305   0.596   1.184  0.5286 -0.7313  0.1147
68892SOL    HW224287  11.405   0.603   1.071 -0.1725  1.3283 -0.4162
68893SOL     OW24288   6.298   2.203   6.029  0.1213 -0.2179 -0.3384
68893SOL    HW124289   6.332   2.238   5.947  1.2485 -1.7466 -0.5558
68893SOL    HW224290   6.270   2.114   6.008 -1.6326  0.0959  0.4546
68894SOL     OW24291  10.051   6.033   8.005 -0.3361 -0.2150  0.0117
68894SOL    HW124292   9.965   5.992   8.001 -0.4145  0.0147 -0.7471
68894SOL    HW224293  10.062   6.055   8.097 -0.4435 -1.5964  0.3762
68895SOL     OW24294   6.497  13.667   7.358 -0.0758  0.1493  0.3885
68895SOL    HW124295   6.434  13.606   7.396  1.0218 -0.4792  1.2528
68895SOL    HW224296   6.486  13.748   7.409  1.1876 -0.5974  1.9282
68896SOL     OW24297   4.792   0.642   4.999 -0.4142  0.1458 -0.5047
68896SOL    HW124298   4.784   0.723   4.948 -0.1209 -0.4330 -1.5074
68896SOL    HW224299   4.878   0.648   5.040 -0.5141  0.4748 -0.3425
68897SOL     OW24300  13.236   2.542   2.582  0.2328 -0.2133  0.3395
68897SOL    HW124301  13.298   2.611   2.558 -1.0275  1.3152  1.2968
68897SOL    HW224302  13.283   2.489   2.646  0.5435  0.9999  1.1571
68898SOL     OW24303   3.499  13.216  11.676  0.2054  0.4251  0.2376
68898SOL    HW124304   3.475  13.236  11.767  1.5920  1.5941  0.3876
68898SOL    HW224305   3.595  13.220  11.675  0.2094  0.5205 -1.2973
68899SOL     OW24306   3.959  11.850   6.601  0.5547  0.2933 -0.4885
68899SOL    HW124307   4.042  11.895   6.584  1.8767 -1.5490  0.7193
68899SOL    HW224308   3.945  11.862   6.695  0.0869 -0.4365 -0.4655
68900SOL     OW24309  12.136  11.070   3.967 -0.1584 -0.5630  0.5868
68900SOL    HW124310  12.059  11.127   3.962  0.0456 -0.2340  1.2030
68900SOL    HW224311  12.159  11.054   3.875 -0.0355  0.5878  0.3951
68901SOL     OW24312   2.322   1.484   4.598  0.6008 -0.5939 -0.2128
68901SOL    HW124313   2.356   1.545   4.532 -0.0175 -0.5466 -0.4949
68901SOL    HW224314   2.389   1.484   4.667  0.2063  1.1204  0.2346
68902SOL     OW24315   5.704   7.598   5.177 -0.1307  0.4801 -0.2076
68902SOL    HW124316   5.798   7.606   5.158 -0.4324  0.9168 -1.6847
68902SOL    HW224317   5.666   7.678   5.140 -0.9838  0.7670  1.2143
68903SOL     OW24318  13.222  13.343  13.261 -0.2746 -0.4998 -0.3986
68903SOL    HW124319  13.296  13.396  13.291 -0.9437 -0.0992  0.6250
68903SOL    HW224320  13.260  13.257  13.243  0.1303 -0.9897  2.3005
68904SOL     OW24321  13.952   9.785  10.862  0.2839  0.2627 -0.1781
68904SOL    HW124322  13.995   9.703  10.886 -0.0725  0.0178 -0.3675
68904SOL    HW224323  13.980   9.847  10.930 -1.1446 -0.5512  1.2160
68905SOL     OW24324   4.231   5.401   4.230 -0.3848  0.8052 -0.3603
68905SOL    HW124325   4.247   5.368   4.319  1.5223  2.3419 -0.0640
68905SOL    HW224326   4.275   5.339   4.173 -0.3249  0.6189 -0.1137
68906SOL     OW24327   3.412  10.554   9.325  0.3903 -0.2653 -0.2404
68906SOL    HW124328   3.481  10.533   9.388  0.1385 -0.6692 -0.0937
68906SOL    HW224329   3.339  10.497   9.350 -0.9223  1.8784  1.1988
68907SOL     OW24330  12.382  11.662   2.269 -0.2449  0.3573  0.3307
68907SOL    HW124331  12.410  11.572   2.251  0.9297  0.9046 -0.7080
68907SOL    HW224332  12.420  11.681   2.355 -0.4322 -0.1155  0.5229
68908SOL     OW24333  12.791   2.646   5.328  0.1591  0.4819 -0.0092
68908SOL    HW124334  12.776   2.736   5.360  0.4741  0.0815  1.3276
68908SOL    HW224335  12.706   2.603   5.337  0.0863  0.5579 -0.3430
68909SOL     OW24336   0.857   3.720   5.766  0.2352 -0.1125  0.3714
68909SOL    HW124337   0.865   3.805   5.809  0.1381 -0.4524  1.0741
68909SOL    HW224338   0.822   3.740   5.679 -0.0400  0.5346  0.6274
68910SOL     OW24339  12.221  13.578  12.209 -0.1205 -0.5360 -0.1725
68910SOL    HW124340  12.288  13.528  12.254 -0.0427  0.3993  0.7903
68910SOL    HW224341  12.249  13.581  12.117  1.0020 -0.3959  0.1691
68911SOL     OW24342   7.969  12.490  13.400 -0.5915 -0.3271 -0.1279
68911SOL    HW124343   8.052  12.458  13.435 -2.2301 -2.0135  2.4958
68911SOL    HW224344   7.970  12.462  13.308  2.1559  0.7200 -0.5213
68912SOL     OW24345   0.618  12.413  12.420 -0.6414 -0.2980 -0.3486
68912SOL    HW124346   0.621  12.341  12.358 -0.3176 -1.0161  0.4751
68912SOL    HW224347   0.707  12.448  12.422 -1.0740  0.9897 -1.6980
68913SOL     OW24348  11.017   0.119  13.564  0.2143 -0.0210  0.3533
68913SOL    HW124349  11.041   0.211  13.563  1.9730 -0.4468  0.6784
68913SOL    HW224350  11.017   0.093  13.471 -2.2633  0.7426  0.0793
68914SOL     OW24351  11.422   9.639   3.057 -0.5681  0.2410  0.6032
68914SOL    HW124352  11.425   9.581   2.981  1.0890 -0.3934  1.1047
68914SOL    HW224353  11.487   9.707   3.039 -2.4239  1.9407  0.0723
68915SOL     OW24354  11.176  12.294   4.811  0.0154 -0.3768  0.2984
68915SOL    HW124355  11.201  12.211   4.771 -1.7531 -0.8651  0.1196
68915SOL    HW224356  11.225  12.297   4.893  2.3491 -0.1769 -1.0170
68916SOL     OW24357  11.335   2.794   1.888  0.1259  0.4278  0.1394
68916SOL    HW124358  11.422   2.800   1.847  0.9252 -3.2200  0.9210
68916SOL    HW224359  11.349   2.827   1.977  0.1153  1.8859 -0.3768
68917SOL     OW24360   6.804   7.003   1.415  0.1013  0.1767  0.0351
68917SOL    HW124361   6.783   7.041   1.501 -1.4114  0.6365 -0.5001
68917SOL    HW224362   6.732   6.942   1.398  0.7235 -0.3852 -0.6333
68918SOL     OW24363   6.438   1.257   0.155  0.3122 -0.0258 -0.0974
68918SOL    HW124364   6.345   1.238   0.147  0.6928 -1.9254 -0.5466
68918SOL    HW224365   6.443   1.353   0.161 -1.7980  0.0160  2.3302
68919SOL     OW24366   1.664   1.055   3.738  0.4119  0.2831 -0.3062
68919SOL    HW124367   1.613   1.030   3.661  1.6850 -2.3817 -0.3842
68919SOL    HW224368   1.748   1.086   3.702  0.3358  0.8132 -0.0363
68920SOL     OW24369   5.932   5.175   2.173 -0.0901  0.0515  0.3138
68920SOL    HW124370   5.956   5.116   2.244  0.0976  1.5270  1.5375
68920SOL    HW224371   5.949   5.125   2.093  1.1721 -1.1219  1.2682
68921SOL     OW24372  13.761   1.268   4.925  0.4619 -0.2141 -0.1088
68921SOL    HW124373  13.670   1.256   4.953 -0.6608  1.6633 -2.5658
68921SOL    HW224374  13.755   1.290   4.832  3.2718  1.9813  0.0845
68922SOL     OW24375   3.165  13.581   5.433 -0.7214 -0.8008  0.1718
68922SOL    HW124376   3.215  13.592   5.351  0.1806 -1.5295  0.6090
68922SOL    HW224377   3.078  13.612   5.411 -0.1883  0.1401 -0.7376
68923SOL     OW24378  12.546   1.034   7.389  0.8319 -0.2107 -0.2440
68923SOL    HW124379  12.477   1.030   7.322 -0.0407 -0.4269  0.6399
68923SOL    HW224380  12.586   0.948   7.388  0.2609 -0.4868  0.0731
68924SOL     OW24381   5.791   8.982   0.676 -0.4037 -0.0150  0.1695
68924SOL    HW124382   5.835   8.901   0.651  1.5665 -0.1701  3.5945
68924SOL    HW224383   5.699   8.957   0.689 -0.7508 -0.6662 -2.7866
68925SOL     OW24384   6.733   5.320   4.215 -0.1215  0.8192  0.6779
68925SOL    HW124385   6.639   5.304   4.220 -0.0384 -0.0385 -0.3954
68925SOL    HW224386   6.763   5.268   4.141  1.1937  1.1432  0.9614
68926SOL     OW24387   2.603   2.538   6.499 -0.4270 -0.0360 -0.3561
68926SOL    HW124388   2.694   2.520   6.476 -0.3321 -2.5901  1.6262
68926SOL    HW224389   2.599   2.527   6.594 -2.7248  0.5007 -0.3377
68927SOL     OW24390   3.239   3.230   1.269  0.0159  0.1267 -0.3181
68927SOL    HW124391   3.226   3.321   1.242 -1.0462 -0.0221 -0.3475
68927SOL    HW224392   3.249   3.182   1.188 -0.8678  0.0168 -0.3722
68928SOL     OW24393   5.360  12.207   7.210  0.1006  0.1556 -1.2277
68928SOL    HW124394   5.354  12.117   7.178 -2.2858 -0.0635 -0.3204
68928SOL    HW224395   5.270  12.237   7.218  0.7470  1.8563  0.6603
68929SOL     OW24396   3.308   4.710  11.669 -0.0823 -0.2535  0.0105
68929SOL    HW124397   3.355   4.627  11.668 -0.1076 -0.2675 -0.2458
68929SOL    HW224398   3.316   4.742  11.579  0.2683  0.2171  0.2071
68930SOL     OW24399  12.489   9.182   6.270  0.0704  0.3374 -0.1790
68930SOL    HW124400  12.454   9.265   6.237 -1.2021  0.4567  1.3823
68930SOL    HW224401  12.447   9.115   6.215 -0.3333  0.6283 -0.2241
68931SOL     OW24402  13.602   5.315   9.697 -0.0765 -0.3354  0.1970
68931SOL    HW124403  13.600   5.327   9.602 -1.1834 -0.0145  0.2470
68931SOL    HW224404  13.550   5.237   9.713  0.4652 -0.6427  0.5209
68932SOL     OW24405  11.161   5.457   9.861 -0.3487 -0.5409  0.0801
68932SOL    HW124406  11.208   5.409   9.930 -0.0545 -0.1517  0.1542
68932SOL    HW224407  11.070   5.457   9.891  0.2708  3.2029  2.6902
68933SOL     OW24408   8.109   2.770   6.180  0.1741  0.2305 -0.0943
68933SOL    HW124409   8.137   2.679   6.194 -1.1792 -0.2544 -0.3616
68933SOL    HW224410   8.129   2.787   6.088  1.0586  0.4568  0.1263
68934SOL     OW24411  10.766   7.258   1.376  0.8927 -0.3747 -0.5610
68934SOL    HW124412  10.856   7.233   1.356  1.2701 -0.3537  1.0283
68934SOL    HW224413  10.725   7.176   1.406  0.0404 -0.6364 -2.3001
68935SOL     OW24414   8.097   3.765   2.140 -0.0258 -0.0908 -0.0091
68935SOL    HW124415   8.069   3.700   2.076 -0.9663  0.7121 -0.4332
68935SOL    HW224416   8.193   3.767   2.131  0.0913 -1.8682  0.4832
68936SOL     OW24417  13.049  13.471  12.997  0.5321  0.6123  0.0636
68936SOL    HW124418  13.072  13.561  12.975 -0.8185  0.8085 -0.6180
68936SOL    HW224419  13.109  13.448  13.068  1.6649  1.6438 -0.5222
68937SOL     OW24420   1.781  12.112  13.313 -0.4046 -1.2596  0.2989
68937SOL    HW124421   1.726  12.133  13.237  1.7530  2.2281 -0.5125
68937SOL    HW224422   1.817  12.026  13.294 -2.6675 -2.0255 -0.8528
68938SOL     OW24423   5.321   5.420  13.355 -0.5342  0.1990  0.1279
68938SOL    HW124424   5.263   5.345  13.345 -1.0122  0.5940 -0.1512
68938SOL    HW224425   5.397   5.387  13.403  1.3018 -1.5614 -3.5878
68939SOL     OW24426   4.121   6.971   6.798 -0.2784 -0.7195  0.2102
68939SOL    HW124427   4.089   6.882   6.785 -1.9605 -0.3557  1.5591
68939SOL    HW224428   4.074   7.003   6.875 -0.1189  1.5264 -0.5433
68940SOL     OW24429   6.314   4.917   1.489  0.3799  0.1523  0.1910
68940SOL    HW124430   6.260   4.982   1.445 -1.1628  1.0335  3.0952
68940SOL    HW224431   6.394   4.964   1.513  0.0213  0.5041  0.7294
68941SOL     OW24432  11.565  12.444   6.759  0.1869  0.6597 -0.2493
68941SOL    HW124433  11.591  12.535   6.748 -0.2340  0.8853  0.5405
68941SOL    HW224434  11.472  12.443   6.734  0.1536  0.4821 -0.1215
68942SOL     OW24435   5.722   2.706   2.960 -0.2585 -0.2869  0.3643
68942SOL    HW124436   5.711   2.707   2.865 -1.1775 -0.3793  0.4629
68942SOL    HW224437   5.797   2.764   2.976  1.5986 -2.2768 -0.5942
68943SOL     OW24438  11.148   9.811  11.470 -0.6082 -0.1351  0.1354
68943SOL    HW124439  11.194   9.759  11.535 -0.3317  0.4223  0.3909
68943SOL    HW224440  11.057   9.812  11.499 -0.3018  1.0389  1.1477
68944SOL     OW24441   3.237   9.335   9.136 -0.1888 -0.4753 -0.3756
68944SOL    HW124442   3.297   9.280   9.088  0.2046 -0.5746  0.2155
68944SOL    HW224443   3.154   9.287   9.136  0.3116 -1.3811  0.6691
68945SOL     OW24444  11.531   3.417  11.868 -0.2003 -0.0317 -0.4703
68945SOL    HW124445  11.565   3.499  11.903 -0.3215  0.4956 -1.5553
68945SOL    HW224446  11.607   3.359  11.865 -0.2251 -0.1582  0.8160
68946SOL     OW24447   5.713   3.515   5.834 -0.0109  0.1676  0.1735
68946SOL    HW124448   5.747   3.447   5.776  1.8906  1.2735 -0.0936
68946SOL    HW224449   5.619   3.518   5.815  0.0211 -1.6995 -0.4863
68947SOL     OW24450  11.199  14.026  11.583 -0.3638  0.0702 -0.4236
68947SOL    HW124451  11.133  13.958  11.574 -1.8336  1.3914 -0.0338
68947SOL    HW224452  11.249  14.002  11.661 -1.6147  0.0345  0.3854
68948SOL     OW24453  13.231  13.987   6.301  0.3069 -0.5058 -0.7377
68948SOL    HW124454  13.225  13.903   6.346  1.9053 -0.2321  0.0568
68948SOL    HW224455  13.319  13.987   6.262  1.2182  1.6566  1.1311
68949SOL     OW24456  10.801   3.073   4.499 -0.1711 -0.0561 -0.4312
68949SOL    HW124457  10.812   2.987   4.540 -0.6321  0.4957  0.9214
68949SOL    HW224458  10.872   3.078   4.435  0.9083 -0.8008  0.6424
68950SOL     OW24459   8.653   5.663   4.040  0.2276  0.8022  0.2444
68950SOL    HW124460   8.748   5.647   4.037  0.0707 -0.6155  1.7239
68950SOL    HW224461   8.640   5.706   4.125 -0.8764 -2.6432  1.9841
68951SOL     OW24462   3.039   2.559   0.978 -0.6858  0.0331  0.3497
68951SOL    HW124463   2.994   2.509   1.046  0.0515  2.9936  3.2726
68951SOL    HW224464   3.100   2.497   0.938 -1.7556 -2.0390  1.7806
68952SOL     OW24465   4.496  13.555   2.647  0.0828  0.3625 -0.2763
68952SOL    HW124466   4.581  13.512   2.647 -0.0259  0.1461 -0.4992
68952SOL    HW224467   4.443  13.502   2.587 -0.3382  0.2394  0.2032
68953SOL     OW24468  11.212  12.611   5.822 -0.1537  0.0279 -0.4299
68953SOL    HW124469  11.299  12.570   5.829  0.4586  1.1949 -0.8381
68953SOL    HW224470  11.159  12.567   5.888  0.3077 -1.7720 -1.1895
68954SOL     OW24471  11.085   8.905  13.475  0.1238 -0.4844 -0.2456
68954SOL    HW124472  11.136   8.975  13.434 -0.6110  0.7036  0.7836
68954SOL    HW224473  11.097   8.919  13.569 -1.6387 -0.4717  0.0212
68955SOL     OW24474  11.428   3.854   1.718 -0.2950  0.6632  0.3073
68955SOL    HW124475  11.388   3.767   1.718  1.0148  0.0191  1.8238
68955SOL    HW224476  11.366   3.909   1.765 -0.2952  0.1149  0.9669
68956SOL     OW24477   8.629  13.666   9.082  0.1159  0.0939 -0.4211
68956SOL    HW124478   8.708  13.644   9.033  0.5924 -0.3454  0.5113
68956SOL    HW224479   8.635  13.761   9.095  0.7945 -0.0115  0.1272
68957SOL     OW24480   4.889   0.967   5.198  0.1814  0.0171 -0.0553
68957SOL    HW124481   4.857   0.900   5.138 -0.9175 -0.6548  1.2460
68957SOL    HW224482   4.923   0.919   5.273  0.0790  0.8881  0.5628
68958SOL     OW24483  11.263  10.883  13.918  0.1375 -0.1845  0.2822
68958SOL    HW124484  11.223  10.890  14.004  0.2296  1.7854  0.2046
68958SOL    HW224485  11.356  10.866  13.935  0.0419 -0.4271  0.5559
68959SOL     OW24486   7.593   6.560   8.995  0.1455  0.4163 -0.4519
68959SOL    HW124487   7.673   6.520   8.960  0.2348  1.2116 -1.2172
68959SOL    HW224488   7.602   6.553   9.090  0.7550 -0.2044 -0.5470
68960SOL     OW24489   0.219   6.943   7.903  0.1379 -0.0337 -0.5143
68960SOL    HW124490   0.296   6.903   7.942 -0.0835 -1.4891 -1.4732
68960SOL    HW224491   0.170   6.869   7.866 -1.0719  0.9849 -1.0200
68961SOL     OW24492   2.638  12.848   0.284  0.6623 -0.1386  0.0281
68961SOL    HW124493   2.644  12.795   0.364 -1.2421  2.2250  1.9112
68961SOL    HW224494   2.697  12.922   0.301  1.2991 -0.3047 -1.3891
68962SOL     OW24495   6.747   6.838   0.437 -0.0671  0.0953  0.8426
68962SOL    HW124496   6.759   6.826   0.531  0.5490  0.1527  0.7784
68962SOL    HW224497   6.829   6.807   0.398 -0.4572 -0.2817  0.2960
68963SOL     OW24498   2.224  13.304   8.537  0.3625  0.7593  0.6385
68963SOL    HW124499   2.128  13.301   8.536  0.3693  0.5364  0.4312
68963SOL    HW224500   2.249  13.319   8.446  0.5657 -1.0537  0.3587
68964SOL     OW24501  11.184   1.506  12.020 -0.3429  0.2277 -0.4095
68964SOL    HW124502  11.108   1.526  12.074 -0.5191 -1.4048  0.0105
68964SOL    HW224503  11.195   1.411  12.028  1.9906  0.4523 -0.1015
68965SOL     OW24504   3.059   6.764   8.149 -0.1039 -0.0109 -0.1152
68965SOL    HW124505   3.092   6.772   8.238 -0.9112 -1.0089  0.2996
68965SOL    HW224506   3.137   6.758   8.094  0.4069  1.2412  0.4416
68966SOL     OW24507  13.337   3.585   6.470 -0.3247 -0.4268 -0.1932
68966SOL    HW124508  13.279   3.654   6.438 -1.2095 -1.1117 -0.1182
68966SOL    HW224509  13.422   3.628   6.481 -0.8499  0.6401 -0.1579
68967SOL     OW24510   3.179  12.311   0.706 -0.0848 -0.5144  0.0057
68967SOL    HW124511   3.092  12.273   0.696 -0.0937 -0.4057 -0.3304
68967SOL    HW224512   3.238  12.246   0.668  0.0235 -0.7754  0.6031
68968SOL     OW24513   4.926  11.667  10.895  0.0910 -0.5279  0.0479
68968SOL    HW124514   4.967  11.685  10.980 -0.1643  1.8271 -0.2664
68968SOL    HW224515   4.940  11.747  10.844 -1.8369 -0.9774 -1.2996
68969SOL     OW24516   4.369  10.180   7.245 -0.0120 -0.3859 -0.6258
68969SOL    HW124517   4.438  10.246   7.239 -1.8086  1.4497 -2.6853
68969SOL    HW224518   4.399  10.109   7.188  0.6592 -0.1322 -0.6020
68970SOL     OW24519   8.689  10.856  11.979  0.2394  0.4385  0.4709
68970SOL    HW124520   8.730  10.769  11.974 -0.1225  0.2533  0.6555
68970SOL    HW224521   8.596  10.837  11.993  0.0299  0.8448 -0.3205
68971SOL     OW24522  13.957   1.780  13.066  0.1842 -0.3876 -0.2014
68971SOL    HW124523  14.033   1.755  13.119  1.1200 -1.3201 -1.8847
68971SOL    HW224524  13.935   1.868  13.095  1.0031 -0.6534  1.3288
68972SOL     OW24525   2.978   4.951   3.136 -0.3401  0.5110  0.5251
68972SOL    HW124526   3.059   4.918   3.097 -0.7166 -0.1974  0.3299
68972SOL    HW224527   2.929   4.873   3.162 -1.1291  0.9145  0.3023
68973SOL     OW24528   4.537   1.692  13.878  0.2155  0.1699  0.5814
68973SOL    HW124529   4.612   1.688  13.937 -0.5944 -1.7497  1.6023
68973SOL    HW224530   4.510   1.784  13.878  3.2237  1.1730 -0.7707
68974SOL     OW24531  13.133  12.918  10.335 -0.1049  0.2157  0.5625
68974SOL    HW124532  13.160  12.990  10.392  0.7744 -0.8784  1.5979
68974SOL    HW224533  13.044  12.897  10.363 -0.1513  0.5321  0.6535
68975SOL     OW24534   2.439  10.855   1.921 -0.1813  0.4035 -0.6764
68975SOL    HW124535   2.441  10.833   1.828 -2.0273 -0.9410 -0.4610
68975SOL    HW224536   2.453  10.950   1.924 -0.4783  0.5209 -2.3587
68976SOL     OW24537  12.458   2.317   7.964  0.4672  0.2106  0.0363
68976SOL    HW124538  12.378   2.320   7.913  0.1811 -0.5213  0.4179
68976SOL    HW224539  12.442   2.249   8.030  1.6253 -0.3927 -0.2720
68977SOL     OW24540   1.317   1.287   2.526 -0.4363 -0.0462 -0.4161
68977SOL    HW124541   1.298   1.363   2.581 -0.2714 -0.6749  0.5442
68977SOL    HW224542   1.232   1.244   2.515 -0.1226 -1.2852  1.4805
68978SOL     OW24543  12.785  13.671   4.183 -0.5453  0.5136 -0.0789
68978SOL    HW124544  12.796  13.766   4.180  1.3288  0.3358 -0.1276
68978SOL    HW224545  12.747  13.654   4.269  2.5681  1.0820  1.5531
68979SOL     OW24546  11.052   5.603   0.802 -0.0858 -0.3135  0.2708
68979SOL    HW124547  11.121   5.616   0.737 -1.1947  0.3395 -0.8041
68979SOL    HW224548  11.079   5.524   0.849  1.6085  0.1603  0.1701
68980SOL     OW24549   8.922   3.942  14.067  0.3199  0.1058 -0.0036
68980SOL    HW124550   8.875   3.919  13.987 -1.1418 -1.2235  1.1703
68980SOL    HW224551   9.007   3.898  14.059  1.2827  2.1037 -1.9100
68981SOL     OW24552   5.889   0.029   7.298 -0.1267  0.1965  0.0893
68981SOL    HW124553   5.951   0.099   7.317  0.7271 -0.5288  0.0267
68981SOL    HW224554   5.846   0.011   7.381  1.8311 -1.2722  0.8457
68982SOL     OW24555   1.710   1.639   1.849  0.3084  0.3944 -0.4236
68982SOL    HW124556   1.730   1.623   1.757  2.7877  1.5927 -0.1828
68982SOL    HW224557   1.759   1.718   1.871 -1.3444  0.9539  1.5940
68983SOL     OW24558   2.795   5.492   8.041 -0.1590  0.0368  0.5045
68983SOL    HW124559   2.883   5.481   8.076  0.0175 -1.0721 -0.2524
68983SOL    HW224560   2.740   5.506   8.119  0.2899 -1.9205  1.2348
68984SOL     OW24561  10.534  12.696   9.286 -0.1990 -0.3073  0.2670
68984SOL    HW124562  10.544  12.612   9.241 -1.7489 -0.0125 -0.7200
68984SOL    HW224563  10.445  12.693   9.322  0.3435  0.2427  1.6927
68985SOL     OW24564   1.737   2.766  11.501  0.0271  0.4448  0.3350
68985SOL    HW124565   1.649   2.768  11.538 -0.6246  1.3899 -1.1698
68985SOL    HW224566   1.770   2.856  11.512  1.1499 -0.0724  1.5817
68986SOL     OW24567  13.917   6.586   8.116  0.1701 -0.1715  0.0323
68986SOL    HW124568  13.950   6.513   8.063  0.7830 -0.2644  0.5310
68986SOL    HW224569  13.901   6.548   8.202 -3.7565 -0.7692 -0.7791
68987SOL     OW24570   5.630   1.400  13.930 -0.6508 -0.7103  0.1713
68987SOL    HW124571   5.582   1.320  13.949  0.1279 -1.3010 -0.2930
68987SOL    HW224572   5.722   1.373  13.928 -0.4368  0.0142 -0.8287
68988SOL     OW24573   5.709   9.908  12.252  0.3120 -0.4413 -0.2957
68988SOL    HW124574   5.626   9.861  12.244 -0.2770  0.6081 -0.4646
68988SOL    HW224575   5.773   9.851  12.209 -0.6887 -0.3202 -2.0528
68989SOL     OW24576   9.589  12.565  10.834 -0.3425  0.0593 -0.0476
68989SOL    HW124577   9.602  12.655  10.802 -0.5965  0.0944 -0.0585
68989SOL    HW224578   9.677  12.529  10.841 -0.3103 -0.1596 -1.3915
68990SOL     OW24579   1.545   5.398   1.873 -0.4332  0.4886 -0.1386
68990SOL    HW124580   1.530   5.305   1.857  1.2619  0.2063 -0.2443
68990SOL    HW224581   1.589   5.401   1.958 -1.4764  1.3139  0.4159
68991SOL     OW24582  13.236   0.542   4.942 -0.5641 -0.2334 -0.0783
68991SOL    HW124583  13.281   0.559   4.860  0.4196 -1.3489  0.1925
68991SOL    HW224584  13.269   0.609   5.002  0.2073 -0.5918 -0.0848
68992SOL     OW24585   2.447  11.583  10.522 -0.1568  0.0633 -0.4137
68992SOL    HW124586   2.494  11.567  10.604  0.5992  1.8559 -0.4685
68992SOL    HW224587   2.355  11.568  10.544  0.2522 -2.3161 -0.0036
68993SOL     OW24588  11.427  13.707   2.147 -0.0868 -0.5276  0.3530
68993SOL    HW124589  11.521  13.692   2.158  0.1370 -0.9873 -1.6296
68993SOL    HW224590  11.410  13.679   2.057 -1.7793  1.2680  0.0602
68994SOL     OW24591  11.422   3.434   1.993  0.0412  0.3302 -0.0235
68994SOL    HW124592  11.334   3.411   2.023  0.5555  0.9380  2.1938
68994SOL    HW224593  11.478   3.367   2.033  0.6279  0.0225 -1.3104
68995SOL     OW24594   3.779   9.209  10.982  0.1676  0.4180  0.5220
68995SOL    HW124595   3.699   9.213  11.035  1.4327  1.9892  2.4349
68995SOL    HW224596   3.827   9.134  11.017  0.9552  1.3935  1.6069
68996SOL     OW24597   5.772   0.140  11.360  0.5599  0.3014 -0.0072
68996SOL    HW124598   5.830   0.173  11.429  0.6687 -1.6116  0.8685
68996SOL    HW224599   5.822   0.071  11.317 -0.7826 -0.9097  0.3060
68997SOL     OW24600  12.471   6.001   8.227 -0.2601 -0.3244 -0.0040
68997SOL    HW124601  12.426   5.918   8.242 -0.7154 -0.0780  0.0163
68997SOL    HW224602  12.541   6.003   8.292  0.3935 -1.1454 -0.6565
68998SOL     OW24603   9.575   9.460  13.604 -0.5599  0.1096  0.4873
68998SOL    HW124604   9.545   9.530  13.662  0.6790  0.6588  0.5067
68998SOL    HW224605   9.649   9.498  13.557 -0.3619 -0.9373 -0.0820
68999SOL     OW24606  12.698   1.818   9.482  0.0981  0.5942  0.3351
68999SOL    HW124607  12.740   1.848   9.563  0.9215  0.4201 -0.0247
68999SOL    HW224608  12.606   1.845   9.492  0.4873  1.8396  0.6977
69000SOL     OW24609   3.122   7.845  13.463  0.3475  0.1798  0.2681
69000SOL    HW124610   3.064   7.830  13.388 -0.3539 -0.8569  0.9858
69000SOL    HW224611   3.104   7.772  13.522  0.8838  0.9638  1.4516
69001SOL     OW24612   0.583   7.760  13.963 -0.4192  0.3861  0.6007
69001SOL    HW124613   0.650   7.823  13.990 -0.3536  1.3450 -1.5851
69001SOL    HW224614   0.512   7.815  13.928 -0.2102 -0.7032 -1.7004
69002SOL     OW24615   6.309   5.809   4.031 -0.4734  0.2386  0.5032
69002SOL    HW124616   6.359   5.758   4.094 -1.7850 -0.4961  0.9921
69002SOL    HW224617   6.244   5.748   3.997 -0.7457  1.0341 -0.4542
69003SOL     OW24618   8.264   4.581   3.566 -0.3393 -0.1550  0.4747
69003SOL    HW124619   8.176   4.553   3.541  0.5061 -0.4684 -2.5731
69003SOL    HW224620   8.312   4.499   3.579 -0.1345  0.0083  0.7733
69004SOL     OW24621   8.794   1.550   7.824  0.1261 -0.2400  0.3808
69004SOL    HW124622   8.849   1.475   7.801  1.3933 -0.0712  2.5954
69004SOL    HW224623   8.818   1.571   7.914 -1.3493  1.8423  0.3653
69005SOL     OW24624   6.508   2.085   2.466 -0.1119 -0.1791 -0.6538
69005SOL    HW124625   6.420   2.120   2.455 -0.1902  0.0934  0.6430
69005SOL    HW224626   6.539   2.123   2.549 -0.0125 -2.7330  0.5909
69006SOL     OW24627   5.763   5.225   2.404  0.4976 -0.5855  0.4147
69006SOL    HW124628   5.821   5.185   2.339 -0.1129 -1.1014  0.1808
69006SOL    HW224629   5.805   5.308   2.425 -0.1768  0.4808 -2.0128
69007SOL     OW24630   4.172   1.038   8.875  0.2016 -0.6221  0.8381
69007SOL    HW124631   4.092   1.005   8.916 -0.7890  0.5218 -0.1003
69007SOL    HW224632   4.183   1.126   8.911  0.9055 -0.6706  0.7592
69008SOL     OW24633   2.559   5.000   4.681  0.9731  0.4645 -0.0489
69008SOL    HW124634   2.617   4.923   4.681 -0.0138 -0.3038 -1.0071
69008SOL    HW224635   2.618   5.074   4.665  1.9468 -0.0624  0.9601
69009SOL     OW24636   3.547  10.794   9.835 -0.3398 -0.6736 -0.0220
69009SOL    HW124637   3.599  10.755   9.764 -1.9661 -1.4404 -0.8317
69009SOL    HW224638   3.601  10.784   9.913  0.7062 -1.4849 -0.8233
69010SOL     OW24639   7.758   4.436   2.799 -0.3332 -0.0905  0.3233
69010SOL    HW124640   7.742   4.471   2.886 -0.3810  2.3670 -0.6037
69010SOL    HW224641   7.839   4.479   2.770 -0.0378 -1.2403 -0.6822
69011SOL     OW24642  11.656   9.803   5.849 -0.3650  0.1563 -0.3195
69011SOL    HW124643  11.615   9.835   5.769 -0.9317 -1.0156 -0.5330
69011SOL    HW224644  11.585   9.804   5.914 -0.1437  0.2590 -0.0792
69012SOL     OW24645   1.801   4.547   1.879  0.8653 -0.1478 -0.1613
69012SOL    HW124646   1.756   4.463   1.881  0.1386  0.2532  0.5175
69012SOL    HW224647   1.853   4.549   1.959 -0.7700  0.9307  0.9183
69013SOL     OW24648   6.430   3.983  11.398 -0.5932 -0.4166 -0.0230
69013SOL    HW124649   6.446   3.988  11.492  1.2078  3.1163 -0.3563
69013SOL    HW224650   6.518   3.974  11.359 -1.3239 -2.1516 -1.4312
69014SOL     OW24651  11.205  13.040  10.094 -0.3170  0.3476 -0.1723
69014SOL    HW124652  11.288  12.998  10.114 -0.2721  0.0093 -1.0106
69014SOL    HW224653  11.139  12.973  10.114 -0.2858  0.0909 -0.8917
69015SOL     OW24654   7.536  10.474  13.118 -0.2599  0.0051  0.2236
69015SOL    HW124655   7.506  10.391  13.082 -1.7018  0.2585  0.7737
69015SOL    HW224656   7.533  10.535  13.044 -0.7973 -0.0514  0.1977
69016SOL     OW24657   4.155   0.974   6.503  0.9538  0.2571 -0.1287
69016SOL    HW124658   4.193   1.036   6.441  1.3125  0.8637  0.6684
69016SOL    HW224659   4.224   0.959   6.568  0.6934 -0.5912 -0.0308
69017SOL     OW24660   5.980  10.746   6.502  0.1152  0.8165  0.9717
69017SOL    HW124661   6.007  10.837   6.488  0.0249  0.5829 -0.9398
69017SOL    HW224662   5.886  10.746   6.482  0.2359  0.2065  0.3735
69018SOL     OW24663   1.665   7.094   2.916  0.4432  0.0498  0.4092
69018SOL    HW124664   1.730   7.074   2.849 -0.2505  1.1981 -0.6388
69018SOL    HW224665   1.708   7.158   2.973  0.4604  0.3029  0.1104
69019SOL     OW24666  10.424   4.013  10.059 -0.0890  0.1385  0.2943
69019SOL    HW124667  10.363   4.060  10.001 -1.2614 -0.3770  1.0787
69019SOL    HW224668  10.368   3.975  10.126  1.1362 -0.2282  1.1267
69020SOL     OW24669   3.529   2.835   7.941 -0.1496 -0.1559  0.7571
69020SOL    HW124670   3.586   2.833   8.018  1.3366  1.5163 -0.2039
69020SOL    HW224671   3.516   2.743   7.918  3.1078 -0.6371  0.4077
69021SOL     OW24672   8.420   3.535   7.240 -0.0513  0.2390 -0.6753
69021SOL    HW124673   8.335   3.515   7.201 -0.5673  1.0684 -0.0240
69021SOL    HW224674   8.483   3.493   7.182 -0.9182 -0.7040 -0.9685
69022SOL     OW24675  12.774   6.761  11.212  0.7309  0.2120 -0.1054
69022SOL    HW124676  12.772   6.747  11.307  0.4318  2.0716  0.1976
69022SOL    HW224677  12.684   6.742  11.184  0.8529 -0.4729 -0.0547
69023SOL     OW24678   8.804   1.543   4.205 -0.3931  0.3305 -0.0187
69023SOL    HW124679   8.865   1.602   4.249 -0.3310  0.4438 -0.2527
69023SOL    HW224680   8.718   1.569   4.237 -0.8220  3.1786 -2.9472
69024SOL     OW24681   6.120   2.380  13.109  0.1406  0.9605 -0.4623
69024SOL    HW124682   6.209   2.370  13.143 -0.1379 -1.1653 -0.1835
69024SOL    HW224683   6.129   2.366  13.015  0.0165 -0.1964 -0.3202
69025SOL     OW24684   5.856   3.642   1.248  0.5707 -0.2952 -0.0307
69025SOL    HW124685   5.879   3.719   1.300 -1.5424 -0.3165  1.0670
69025SOL    HW224686   5.860   3.569   1.309 -0.6129 -0.5297 -0.1984
69026SOL     OW24687  10.623   6.110   8.649 -0.2179 -0.2637  0.1115
69026SOL    HW124688  10.628   6.092   8.743  1.6173  0.0772  0.1190
69026SOL    HW224689  10.696   6.061   8.612 -0.4111  0.2869 -1.0331
69027SOL     OW24690   8.304  12.331   3.771 -0.0561 -0.1903 -0.3131
69027SOL    HW124691   8.227  12.333   3.715  1.0733 -1.4855 -2.0227
69027SOL    HW224692   8.358  12.404   3.741  0.3253 -0.5846 -0.6121
69028SOL     OW24693   9.685   4.582   7.924  0.3352 -0.8570 -0.2907
69028SOL    HW124694   9.659   4.654   7.866  0.9330 -1.0489 -0.8033
69028SOL    HW224695   9.627   4.510   7.900 -0.8114 -0.3220  0.7721
69029SOL     OW24696  11.589  10.200   1.449 -0.4763  0.0312 -0.2652
69029SOL    HW124697  11.499  10.216   1.480 -1.0821 -0.7166 -1.5891
69029SOL    HW224698  11.604  10.107   1.467  0.1020  0.1829  0.0735
69030SOL     OW24699  13.686  11.182  10.415  0.2195  0.1854 -0.1654
69030SOL    HW124700  13.647  11.167  10.329  1.7152  1.0505 -1.0392
69030SOL    HW224701  13.697  11.277  10.421  0.9055  0.0685  0.6163
69031SOL     OW24702   7.439   4.750   3.710  0.1667 -0.1750  0.0720
69031SOL    HW124703   7.383   4.827   3.721  0.5478  0.2547 -0.9095
69031SOL    HW224704   7.380   4.684   3.674  0.1512  0.0946 -0.4067
69032SOL     OW24705   3.708   4.749  13.603 -0.0474 -0.1274  0.1751
69032SOL    HW124706   3.677   4.682  13.543  1.6776 -0.5127 -0.3193
69032SOL    HW224707   3.640   4.816  13.601 -1.8299 -1.8349  0.7014
69033SOL     OW24708   9.117  12.139   5.474 -0.2688 -0.3572 -0.3725
69033SOL    HW124709   9.165  12.058   5.456 -0.4228 -0.9772  1.7589
69033SOL    HW224710   9.178  12.191   5.527 -0.8062  0.1894 -0.2849
69034SOL     OW24711   5.466   7.547  13.259 -0.1386 -0.0719  0.4218
69034SOL    HW124712   5.384   7.567  13.213  0.8011 -2.9555 -2.9453
69034SOL    HW224713   5.533   7.547  13.190  1.9456 -2.0385  2.2638
69035SOL     OW24714   7.838   3.130   1.423  0.7311  0.6420 -0.2547
69035SOL    HW124715   7.777   3.152   1.353  0.1312  2.6362  0.8111
69035SOL    HW224716   7.921   3.170   1.395  0.5739  1.1577 -0.0011
69036SOL     OW24717   7.435   2.851   7.057  0.2601  0.8396 -0.0691
69036SOL    HW124718   7.344   2.877   7.043 -1.0039 -2.5149  0.8657
69036SOL    HW224719   7.455   2.878   7.147 -1.0603 -1.2943  0.9338
69037SOL     OW24720  13.067   4.141   6.082  0.3902  0.5276 -0.5645
69037SOL    HW124721  12.981   4.171   6.052  0.6732  1.1583 -0.7764
69037SOL    HW224722  13.060   4.139   6.177 -0.1544 -0.3607 -0.6139
69038SOL     OW24723   6.021  13.324  13.389 -0.0733 -0.1409  0.1628
69038SOL    HW124724   6.051  13.410  13.419  0.1815 -0.0381 -0.3688
69038SOL    HW224725   6.076  13.262  13.437 -0.2181 -0.0072  0.5046
69039SOL     OW24726   3.565  11.608  10.462 -0.0832 -0.4485 -0.0842
69039SOL    HW124727   3.512  11.548  10.409  0.5454 -0.4025 -0.7771
69039SOL    HW224728   3.539  11.589  10.552 -1.1669 -0.5350 -0.3961
69040SOL     OW24729  11.166  12.351   2.553 -0.1936  0.1290 -0.4668
69040SOL    HW124730  11.205  12.410   2.617  0.1601  0.1360 -0.6860
69040SOL    HW224731  11.225  12.275   2.551 -1.3536 -0.8615  0.8085
69041SOL     OW24732   4.376   0.390  13.001  0.8306  0.6093 -0.4704
69041SOL    HW124733   4.445   0.326  13.017  1.1677  0.8878 -0.7819
69041SOL    HW224734   4.369   0.394  12.905  0.2740  0.4699 -0.4372
69042SOL     OW24735  11.452  11.540   9.707  0.5382 -0.1767  0.4011
69042SOL    HW124736  11.533  11.538   9.656 -1.0169  1.0910 -2.3205
69042SOL    HW224737  11.469  11.482   9.781  3.4181 -1.0668 -0.8230
69043SOL     OW24738   7.368  13.591  10.683  0.8340 -0.1662  0.0128
69043SOL    HW124739   7.285  13.547  10.700  0.5494  1.0398  2.1330
69043SOL    HW224740   7.430  13.549  10.743  1.1242  0.6561  0.3014
69044SOL     OW24741  11.113   4.684   3.120 -0.6129 -0.2804  0.1965
69044SOL    HW124742  11.045   4.749   3.136  0.0323  0.0321  1.8898
69044SOL    HW224743  11.128   4.688   3.026 -2.0409  0.5417 -0.0228
69045SOL     OW24744   5.677   7.939   3.727 -0.0985  0.1477  0.0097
69045SOL    HW124745   5.585   7.912   3.723 -0.5240  1.3436  1.0566
69045SOL    HW224746   5.721   7.868   3.773 -0.6960  0.0425  0.4236
69046SOL     OW24747  13.735   0.074   2.591  0.1030 -0.0018 -0.7372
69046SOL    HW124748  13.732   0.140   2.661  0.8853 -0.7286  0.0184
69046SOL    HW224749  13.692  -0.003   2.629 -0.5198 -0.0385 -1.4960
69047SOL     OW24750   6.934   7.104  11.623 -0.0300 -0.1637  0.3186
69047SOL    HW124751   6.951   7.034  11.561  0.7713 -1.6887  2.1705
69047SOL    HW224752   6.848   7.138  11.598 -0.3514 -1.6660 -0.7429
69048SOL     OW24753   6.264  12.382   7.480  0.0330 -0.3658  0.4627
69048SOL    HW124754   6.250  12.394   7.386  2.3904  0.8005  0.2086
69048SOL    HW224755   6.241  12.290   7.496  0.0520 -0.7159 -1.3395
69049SOL     OW24756  13.546   6.936   1.734 -0.2516 -0.2659 -0.0537
69049SOL    HW124757  13.478   6.931   1.801 -0.1626 -1.0185 -0.0203
69049SOL    HW224758  13.536   7.024   1.697 -0.6671 -0.0538  0.5545
69050SOL     OW24759   8.700   8.350   9.366 -0.6451 -0.0412  0.0987
69050SOL    HW124760   8.753   8.385   9.294  0.2656 -2.0245 -0.2380
69050SOL    HW224761   8.747   8.374   9.445 -0.7839  0.7095 -0.0376
69051SOL     OW24762   5.448  13.934   9.950  0.0463 -0.2285  0.0750
69051SOL    HW124763   5.372  13.913   9.895 -1.7404  0.2049  2.2503
69051SOL    HW224764   5.510  13.977   9.890 -1.3426 -0.7284 -1.8009
69052SOL     OW24765   2.730   9.175   1.805  0.0073  0.3486 -0.4727
69052SOL    HW124766   2.680   9.212   1.877 -0.9292  1.7727 -1.7849
69052SOL    HW224767   2.669   9.117   1.760  1.1243 -2.0006  0.8871
69053SOL     OW24768   9.563   8.290   2.119  0.0112  0.3259  0.8177
69053SOL    HW124769   9.562   8.343   2.039  0.5884  0.2551  0.7555
69053SOL    HW224770   9.649   8.248   2.118  0.3388  0.9198  1.8649
69054SOL     OW24771  12.505   0.816  10.472  0.4186  0.6212 -0.1846
69054SOL    HW124772  12.509   0.757  10.547 -0.0356 -2.4430 -2.3904
69054SOL    HW224773  12.413   0.814  10.445  0.3467  2.5694 -0.2486
69055SOL     OW24774   9.200   4.060   2.625 -0.2439 -0.2256  0.6478
69055SOL    HW124775   9.226   4.152   2.634  0.6200 -0.3662 -0.2031
69055SOL    HW224776   9.206   4.043   2.531 -0.5170 -1.1222  0.7829
69056SOL     OW24777   8.163   5.336   4.806 -0.3211 -0.1409 -0.0196
69056SOL    HW124778   8.075   5.299   4.798 -0.1913 -0.3255 -0.5946
69056SOL    HW224779   8.167   5.405   4.740  1.2355 -2.6199 -2.7529
69057SOL     OW24780   7.165  12.452  10.084  0.2540 -0.9291  0.1615
69057SOL    HW124781   7.076  12.428  10.060  0.3007 -1.3588  0.4043
69057SOL    HW224782   7.165  12.454  10.180  0.5934 -1.3088  0.1770
69058SOL     OW24783   6.353   9.787   1.821 -0.7428 -0.4011 -0.3783
69058SOL    HW124784   6.354   9.882   1.835 -2.7764 -0.6272  1.9251
69058SOL    HW224785   6.445   9.763   1.812 -0.1436  1.6820 -0.2132
69059SOL     OW24786   2.158  12.349  11.432  0.0436  0.3782 -0.1199
69059SOL    HW124787   2.113  12.431  11.451 -3.9681 -1.2888 -1.2885
69059SOL    HW224788   2.141  12.294  11.507  2.7644  0.4830  0.6844
69060SOL     OW24789   2.922  12.424   3.176  0.0956  0.1725 -0.4350
69060SOL    HW124790   2.959  12.505   3.211 -0.2325  0.3369 -0.4621
69060SOL    HW224791   2.997  12.375   3.142  0.2518  0.6271 -0.7480
69061SOL     OW24792   2.929   0.892   5.210 -0.0258  0.1734  0.6647
69061SOL    HW124793   2.947   0.968   5.265 -1.8392 -0.1023  1.7241
69061SOL    HW224794   2.853   0.918   5.157  0.9563  0.0039 -0.9155
69062SOL     OW24795   2.742   4.333   9.589  0.2291  0.5400  0.0195
69062SOL    HW124796   2.664   4.279   9.597  0.0321  0.7946 -0.1430
69062SOL    HW224797   2.799   4.285   9.529  0.6330 -0.1391  0.9318
69063SOL     OW24798   8.220   0.224   5.479 -0.2395  0.4675  0.0189
69063SOL    HW124799   8.272   0.211   5.558  1.3892  1.9816 -0.7293
69063SOL    HW224800   8.258   0.301   5.438 -2.3873  0.9801 -1.1872
69064SOL     OW24801   9.462   3.628   3.606 -0.2837 -0.3254  0.2920
69064SOL    HW124802   9.507   3.602   3.526 -0.5638  0.8758 -0.2690
69064SOL    HW224803   9.401   3.555   3.623  0.7351 -1.2217  0.1928
69065SOL     OW24804   3.082   3.452   2.235  0.3057 -0.0495  0.1036
69065SOL    HW124805   3.134   3.390   2.184 -0.2438  0.4135 -1.0675
69065SOL    HW224806   2.991   3.423   2.221  0.1956 -0.7240  1.9457
69066SOL     OW24807  10.581   1.437   3.210  0.1521  0.2899 -0.5753
69066SOL    HW124808  10.603   1.450   3.118  0.1410  0.4558 -0.5549
69066SOL    HW224809  10.665   1.434   3.255  0.1494  0.4721 -0.5565
69067SOL     OW24810   3.075  10.332   3.194 -0.1875 -0.1908  0.4207
69067SOL    HW124811   3.099  10.274   3.121  1.4408 -0.6122  1.2265
69067SOL    HW224812   3.146  10.319   3.257 -2.9586 -2.0823  3.4074
69068SOL     OW24813  13.060   5.468   0.969  0.3089  0.7656 -0.3877
69068SOL    HW124814  13.044   5.533   0.900  1.7094  1.9361  0.3259
69068SOL    HW224815  13.003   5.495   1.040 -1.6680 -0.8615 -1.2787
69069SOL     OW24816  10.097   3.081   8.879  0.0565 -0.5241  0.2319
69069SOL    HW124817  10.065   3.170   8.894  3.1665  0.8973 -0.6400
69069SOL    HW224818  10.097   3.071   8.784  0.8203 -0.9825  0.2668
69070SOL     OW24819  11.496   0.729  10.348  0.2207  0.4390 -0.1444
69070SOL    HW124820  11.430   0.661  10.358 -0.0246  0.7825  0.6873
69070SOL    HW224821  11.449   0.802  10.307 -0.5069  1.4522  2.2994
69071SOL     OW24822  13.666   0.692   9.758 -0.7340 -0.1776  0.3590
69071SOL    HW124823  13.674   0.755   9.830  0.1896  0.4446 -0.2634
69071SOL    HW224824  13.577   0.705   9.725 -1.0531 -0.2402  1.1602
69072SOL     OW24825  12.686   4.055   0.566 -0.3504  0.0083  0.3850
69072SOL    HW124826  12.747   4.045   0.493  0.2027  0.9991  0.6890
69072SOL    HW224827  12.623   4.120   0.536  0.2745  0.9411  0.9988
69073SOL     OW24828   5.581   4.243   5.115  0.5749 -0.5548 -0.2759
69073SOL    HW124829   5.671   4.245   5.146 -0.0181  0.6115  1.5113
69073SOL    HW224830   5.558   4.150   5.112  1.0920 -0.7742  1.5496
69074SOL     OW24831  13.005   8.260  10.450  0.1311 -0.1317 -0.1052
69074SOL    HW124832  13.014   8.339  10.397  1.6612 -0.5183 -0.4662
69074SOL    HW224833  12.913   8.260  10.478 -0.1382  1.2405 -0.9103
69075SOL     OW24834   4.711   2.351   2.099  0.3549  0.9881  0.1495
69075SOL    HW124835   4.689   2.382   2.187  0.7367  0.5775  0.3970
69075SOL    HW224836   4.780   2.410   2.070 -0.9387  2.2048 -0.5811
69076SOL     OW24837  13.199   1.807   4.251  0.1066 -0.7175 -0.6576
69076SOL    HW124838  13.283   1.766   4.231  0.1949 -0.0369 -1.7399
69076SOL    HW224839  13.142   1.781   4.179 -0.9813 -2.1659  0.6781
69077SOL     OW24840   1.407  13.083   1.158  0.3095  0.6512 -0.3721
69077SOL    HW124841   1.418  13.120   1.071  0.1602  2.3188  0.2802
69077SOL    HW224842   1.345  13.142   1.202 -1.5709 -1.5210  0.0848
69078SOL     OW24843  10.338  11.728  13.143  0.0123 -0.0103 -0.1012
69078SOL    HW124844  10.294  11.649  13.113 -1.4490  0.9987 -0.6942
69078SOL    HW224845  10.389  11.759  13.068  0.6306 -0.3987  0.1489
69079SOL     OW24846   0.486   0.015  11.332 -0.2778  0.1349  0.1081
69079SOL    HW124847   0.444  -0.067  11.303  0.3474 -0.2869  0.3903
69079SOL    HW224848   0.425   0.084  11.303 -0.3838 -0.3662 -0.9199
69080SOL     OW24849   9.793  12.359   7.834 -0.2787  0.2516 -0.2637
69080SOL    HW124850   9.838  12.415   7.898  0.3313 -0.8978  0.3431
69080SOL    HW224851   9.826  12.389   7.749  1.1864 -0.1500  0.1371
69081SOL     OW24852   4.941   4.173   7.266 -0.0428 -0.3501  0.4713
69081SOL    HW124853   4.894   4.099   7.228  0.5012 -0.6682  0.3952
69081SOL    HW224854   4.887   4.249   7.247 -0.3535 -0.6618  0.0925
69082SOL     OW24855  10.841   8.924  12.780  0.0378  0.0085  0.4904
69082SOL    HW124856  10.901   8.998  12.788  0.1535  0.0289 -0.4337
69082SOL    HW224857  10.762   8.962  12.742  0.6273 -0.5824 -1.4109
69083SOL     OW24858   0.383  12.552  12.316 -0.4110  0.2426  0.1783
69083SOL    HW124859   0.403  12.633  12.267 -2.6280  0.2510 -0.8612
69083SOL    HW224860   0.463  12.533  12.365  0.3116  2.8766  0.1909
69084SOL     OW24861   9.643   6.597   1.622 -0.7296  0.0557  0.5013
69084SOL    HW124862   9.647   6.688   1.592 -1.5390  0.5517  1.8091
69084SOL    HW224863   9.734   6.573   1.641 -0.5156  0.5995  0.1645
69085SOL     OW24864   6.421   2.970  12.536 -0.5250  0.1820  0.5390
69085SOL    HW124865   6.514   2.949  12.550 -0.1579  0.8279 -0.7533
69085SOL    HW224866   6.381   2.961  12.623  0.6823 -0.3824  1.0672
69086SOL     OW24867  10.696   4.231  11.454 -0.5163 -0.1301 -0.1579
69086SOL    HW124868  10.696   4.141  11.420 -0.5934  0.7772 -2.8059
69086SOL    HW224869  10.666   4.222  11.545 -2.8761 -2.5397 -1.0178
69087SOL     OW24870   2.202   1.179   7.489 -0.5047  0.4127  0.0370
69087SOL    HW124871   2.113   1.147   7.508 -0.6976  1.1365  0.3753
69087SOL    HW224872   2.209   1.173   7.394 -1.8272  2.6255 -0.2652
69088SOL     OW24873   3.641   9.983   1.849  0.1559  0.0001 -0.0819
69088SOL    HW124874   3.644   9.890   1.826 -1.7241 -0.2835  0.5856
69088SOL    HW224875   3.659   9.985   1.943 -0.3747  0.2385  0.0184
69089SOL     OW24876   2.682  10.281   2.419 -0.0032  0.2135  0.0621
69089SOL    HW124877   2.722  10.253   2.337 -2.6350  0.3747 -1.3680
69089SOL    HW224878   2.730  10.360   2.444  0.8988  0.1089 -1.2647
69090SOL     OW24879   9.670  10.449   3.873  0.4450  0.1508  0.3115
69090SOL    HW124880   9.676  10.512   3.944  0.4082 -0.6633  1.0479
69090SOL    HW224881   9.581  10.414   3.879  0.2380  0.4925 -0.5131
69091SOL     OW24882   6.269   8.845   5.743  1.1084 -0.6640  0.1523
69091SOL    HW124883   6.359   8.823   5.768  1.0423 -0.4144  0.6113
69091SOL    HW224884   6.277   8.928   5.696  0.7950  1.1033  2.9688
69092SOL     OW24885   3.068   1.620   1.094  0.5079 -0.5863  0.0327
69092SOL    HW124886   3.076   1.529   1.123  1.1621 -0.2590  0.9129
69092SOL    HW224887   2.980   1.625   1.056  1.1787 -2.0994 -1.9512
69093SOL     OW24888  10.942   2.669   5.138  0.1528 -0.9270  0.4607
69093SOL    HW124889  10.890   2.659   5.218 -1.0469 -0.0120 -0.1692
69093SOL    HW224890  11.029   2.694   5.169 -0.3980 -0.2015  1.4772
69094SOL     OW24891   1.263  11.749  11.689  0.3241  0.5093  0.6765
69094SOL    HW124892   1.341  11.694  11.700  1.7386  2.3661  0.3587
69094SOL    HW224893   1.244  11.779  11.778 -0.0445  0.0594  0.7537
69095SOL     OW24894  10.061   1.060   5.530  0.1225  0.4263  0.2602
69095SOL    HW124895  10.131   1.007   5.569  0.4056 -0.3667 -1.2710
69095SOL    HW224896  10.001   0.996   5.492 -0.6265  1.1578  0.1969
69096SOL     OW24897  13.414   1.570   4.209  0.0846 -0.3447 -0.0233
69096SOL    HW124898  13.493   1.564   4.263 -1.4936  2.1720  2.9181
69096SOL    HW224899  13.355   1.504   4.246 -0.1761 -0.2721 -0.3077
69097SOL     OW24900  11.711  13.371   2.207 -0.3752  0.2191 -0.0240
69097SOL    HW124901  11.724  13.447   2.264 -0.7858  0.6968 -0.5550
69097SOL    HW224902  11.782  13.375   2.144 -0.2878  0.0554  0.0641
69098SOL     OW24903   4.498   1.205   1.596  0.2096 -0.0136 -0.1744
69098SOL    HW124904   4.468   1.196   1.506  0.6159  0.9654 -0.4134
69098SOL    HW224905   4.568   1.269   1.592 -0.4902  0.8599  0.9978
69099SOL     OW24906  13.155  10.886   3.789  0.4724  0.5309 -0.7244
69099SOL    HW124907  13.099  10.945   3.738 -1.9834 -2.9584 -2.4750
69099SOL    HW224908  13.093  10.826   3.831  2.7994 -1.4380  0.0855
69100SOL     OW24909  12.008  10.812   5.529  0.3033 -0.2448 -0.4350
69100SOL    HW124910  11.936  10.847   5.477  1.3363 -0.2109 -1.8911
69100SOL    HW224911  12.074  10.881   5.529  0.7678 -0.6761 -0.0093
69101SOL     OW24912   2.282   1.727  12.474 -0.1542 -0.1923  0.4206
69101SOL    HW124913   2.287   1.814  12.513  0.4992 -0.3730  0.7533
69101SOL    HW224914   2.205   1.687  12.514 -1.2816  0.7099 -0.7508
69102SOL     OW24915   1.418  12.380   0.230  0.1354  0.1414  0.3528
69102SOL    HW124916   1.500  12.331   0.222  0.2202  0.3690 -0.2918
69102SOL    HW224917   1.446  12.470   0.245  0.1738  0.8969 -3.2068
69103SOL     OW24918   0.296   3.168   1.895  0.0204 -0.3754 -0.2335
69103SOL    HW124919   0.243   3.210   1.828 -0.4371 -1.4007 -0.5307
69103SOL    HW224920   0.271   3.211   1.977 -1.3226 -0.9032 -0.3587
69104SOL     OW24921  10.809   6.113  12.549  0.3593  0.0462 -0.1407
69104SOL    HW124922  10.778   6.203  12.546 -0.1246 -0.1390 -0.8838
69104SOL    HW224923  10.901   6.117  12.520 -0.4137 -0.0105 -2.8669
69105SOL     OW24924  11.439  12.965   2.236 -0.0581 -0.8790  0.4862
69105SOL    HW124925  11.361  13.015   2.211  1.0346  0.1122 -1.1428
69105SOL    HW224926  11.459  12.995   2.325 -0.3487  0.4657  0.1283
69106SOL     OW24927  11.922   6.385   0.480  0.3874  0.5235 -0.4270
69106SOL    HW124928  11.917   6.292   0.459 -0.2960  0.0296  1.6897
69106SOL    HW224929  11.989   6.391   0.548 -0.1354  1.4400  0.0283
69107SOL     OW24930   0.098   4.965   3.465 -0.1449  0.0017 -0.3190
69107SOL    HW124931   0.131   4.952   3.554  0.8490  0.1871 -0.6410
69107SOL    HW224932   0.177   4.968   3.411 -0.6654  0.9759 -1.0615
69108SOL     OW24933   6.326   2.757   3.615 -0.4049 -0.2126 -0.1261
69108SOL    HW124934   6.283   2.784   3.534 -0.7141  1.8580  0.6770
69108SOL    HW224935   6.374   2.677   3.591  0.5214  0.9952 -2.6617
69109SOL     OW24936   9.934  12.579   9.674 -0.3846  0.4802  0.4378
69109SOL    HW124937   9.938  12.650   9.739  0.0410  0.6105  0.2740
69109SOL    HW224938   9.852  12.533   9.693  0.4745 -0.4626  2.0944
69110SOL     OW24939   7.035   1.303   4.155  0.1603 -0.0595 -0.5573
69110SOL    HW124940   7.061   1.244   4.084 -0.4818  0.9491 -1.6541
69110SOL    HW224941   6.947   1.273   4.179  0.1918 -0.1077 -0.5022
69111SOL     OW24942   4.151   7.283   1.940 -0.3570 -0.8579  0.2541
69111SOL    HW124943   4.155   7.331   2.023 -1.7522  1.1589 -0.7840
69111SOL    HW224944   4.078   7.221   1.952  2.0686 -3.6989  1.9609
69112SOL     OW24945   4.174   8.714  12.996  0.3646 -0.0436  0.0971
69112SOL    HW124946   4.241   8.703  12.930  0.1226 -0.4212 -0.0859
69112SOL    HW224947   4.217   8.690  13.079  0.4228 -0.3970 -0.0342
69113SOL     OW24948   0.001   8.527   7.187  0.2210 -0.5564 -0.3572
69113SOL    HW124949  -0.050   8.607   7.170 -1.7731 -1.6280  0.2588
69113SOL    HW224950   0.066   8.554   7.252 -1.5804  0.2054  1.2337
69114SOL     OW24951   9.672  13.240   5.471 -0.4830 -0.2620 -1.7268
69114SOL    HW124952   9.713  13.160   5.439 -2.0615 -1.1780 -1.5818
69114SOL    HW224953   9.741  13.306   5.469  0.7544 -1.5407 -2.1952
69115SOL     OW24954  11.228   5.837  11.299 -0.2353  0.0306  0.2800
69115SOL    HW124955  11.288   5.906  11.271 -1.3430  1.0773  0.4200
69115SOL    HW224956  11.158   5.838  11.233 -0.0819 -1.2239  0.0736
69116SOL     OW24957   4.392  13.847   8.615 -0.1197 -0.9885 -0.9125
69116SOL    HW124958   4.297  13.855   8.620  0.0147  0.1319  0.7347
69116SOL    HW224959   4.413  13.769   8.666 -0.0999 -0.6875 -0.4552
69117SOL     OW24960   1.631   2.986   2.263 -0.0672  0.3489  0.0765
69117SOL    HW124961   1.677   3.060   2.223 -0.6935  0.0906 -1.1633
69117SOL    HW224962   1.680   2.909   2.235 -1.4435  0.0355 -1.6110
69118SOL     OW24963   8.176   0.713   1.363 -0.4337 -0.2601  0.9535
69118SOL    HW124964   8.195   0.700   1.270  0.7153  1.0961  0.9670
69118SOL    HW224965   8.083   0.737   1.365 -1.2602 -3.0371  0.4874
69119SOL     OW24966   5.385   3.629   2.516 -0.0778  0.0987  0.3824
69119SOL    HW124967   5.400   3.591   2.603  0.5035 -1.0547 -0.1942
69119SOL    HW224968   5.455   3.694   2.506  0.0079  0.0563  0.6878
69120SOL     OW24969   0.632   6.768  13.257 -0.4188 -0.4337  1.1660
69120SOL    HW124970   0.602   6.829  13.190 -0.2067 -0.8910  0.6499
69120SOL    HW224971   0.552   6.743  13.304 -0.9606 -1.9372 -0.4483
69121SOL     OW24972  11.183   7.074   3.213  0.5328 -0.3322  0.4107
69121SOL    HW124973  11.200   7.144   3.151 -2.2053 -0.2525 -0.4007
69121SOL    HW224974  11.196   7.114   3.299  0.5380  0.7276 -0.0725
69122SOL     OW24975   7.032   3.102   1.739  0.3396 -0.5382  0.3535
69122SOL    HW124976   6.991   3.057   1.813  0.3060 -1.2574 -0.0865
69122SOL    HW224977   6.988   3.065   1.661  0.4593  0.1129 -0.0290
69123SOL     OW24978  13.327   8.294   5.443 -0.7220  0.0407 -0.1440
69123SOL    HW124979  13.332   8.299   5.539 -0.9764 -0.2253 -0.1182
69123SOL    HW224980  13.312   8.201   5.424  1.7910 -0.3549 -0.5438
69124SOL     OW24981  10.357   1.779   1.969 -0.7140  0.3209  0.3792
69124SOL    HW124982  10.263   1.792   1.986 -0.6666 -0.6468  1.5949
69124SOL    HW224983  10.377   1.696   2.013  1.4514  2.1694  3.2020
69125SOL     OW24984   9.368   6.378  13.016  0.3831 -0.2512  0.2425
69125SOL    HW124985   9.365   6.283  13.017 -0.1272 -0.2421 -0.1614
69125SOL    HW224986   9.277   6.406  13.009  0.6376  0.2301 -1.6479
69126SOL     OW24987   2.884   4.505   9.989  0.2072  0.1557 -0.4353
69126SOL    HW124988   2.867   4.455  10.069 -0.2234 -2.2489 -1.8977
69126SOL    HW224989   2.980   4.507   9.981  0.2331 -0.7128 -0.4649
69127SOL     OW24990   9.808  11.975   7.306 -0.3898 -0.3393  0.6622
69127SOL    HW124991   9.867  11.900   7.319 -0.7840 -0.9589 -0.8428
69127SOL    HW224992   9.863  12.052   7.321  0.5857 -0.9170  0.1708
69128SOL     OW24993   8.749   9.109   2.848 -0.1276 -0.4838  0.1505
69128SOL    HW124994   8.836   9.146   2.832  0.1290 -1.4975 -0.9656
69128SOL    HW224995   8.688   9.170   2.806  0.0409  0.1686  0.8340
69129SOL     OW24996   9.419   5.544  13.700 -0.2854 -0.0404 -0.0805
69129SOL    HW124997   9.449   5.630  13.731  0.8994 -0.4205 -0.1365
69129SOL    HW224998   9.395   5.496  13.779  1.1916 -0.4395  0.1386
69130SOL     OW24999   4.821   2.045   5.097 -0.0992 -0.7595 -0.4550
69130SOL    HW125000   4.841   2.123   5.046 -0.8687 -1.3409 -1.6765
69130SOL    HW225001   4.736   2.063   5.137  0.6658 -0.1549  0.9751
69131SOL     OW25002   1.595   2.492   0.157 -0.0263  0.1425 -0.2807
69131SOL    HW125003   1.576   2.400   0.178 -1.6926  0.3656 -0.6449
69131SOL    HW225004   1.685   2.505   0.186 -0.1722 -1.2597  0.9363
69132SOL     OW25005   6.535  12.487   9.613  0.0428  0.4550  0.4159
69132SOL    HW125006   6.619  12.532   9.618  0.3655  0.7088 -3.6291
69132SOL    HW225007   6.470  12.553   9.638  0.8383  1.6189 -0.4853
69133SOL     OW25008   7.021   9.992   2.574 -0.6483 -0.2785  0.2189
69133SOL    HW125009   6.955  10.030   2.515 -0.0766  1.4052  0.6118
69133SOL    HW225010   7.105  10.019   2.537 -0.2785  1.7616  2.3032
69134SOL     OW25011  13.309  11.288  10.039 -0.3700 -0.7488  0.2149
69134SOL    HW125012  13.324  11.342   9.962  0.3658 -0.7289  0.3731
69134SOL    HW225013  13.231  11.236  10.016 -0.3526 -0.5072 -0.4072
69135SOL     OW25014   7.679   6.181   6.005  0.2713 -0.1923 -0.2287
69135SOL    HW125015   7.771   6.178   6.034 -0.0149 -1.5966  0.6244
69135SOL    HW225016   7.649   6.090   6.013 -1.9955  0.6460  2.2376
69136SOL     OW25017   3.771   1.099  10.058 -0.3958 -0.3822 -0.2927
69136SOL    HW125018   3.730   1.101  10.144 -1.3187  0.1182 -0.7193
69136SOL    HW225019   3.704   1.134   9.999  1.0655  1.5911 -0.8720
69137SOL     OW25020   2.710   5.453   6.164 -0.5361 -1.0799 -0.3303
69137SOL    HW125021   2.629   5.429   6.118 -1.9270  1.5606  0.5115
69137SOL    HW225022   2.758   5.507   6.102 -0.3494 -1.0604 -0.1686
69138SOL     OW25023  10.376  10.054  13.337  0.1059  0.3103  0.0737
69138SOL    HW125024  10.378  10.102  13.254  0.1294 -0.8369 -0.6122
69138SOL    HW225025  10.412   9.968  13.315  0.7759  0.2211  1.4368
69139SOL     OW25026  12.922  10.775   7.937 -0.3977 -0.4826 -0.2102
69139SOL    HW125027  12.884  10.716   8.002 -0.6731 -0.7175 -0.5850
69139SOL    HW225028  12.850  10.795   7.878  0.2136 -1.4811 -1.3300
69140SOL     OW25029   7.357   9.284   0.892  0.1488 -0.0966 -0.4264
69140SOL    HW125030   7.313   9.243   0.818 -0.8785 -0.4544  0.3644
69140SOL    HW225031   7.296   9.275   0.965  0.6695  1.2135  0.2148
69141SOL     OW25032  12.910   9.313   1.765  0.1031 -0.7817  0.0420
69141SOL    HW125033  12.965   9.391   1.778 -1.0912 -0.3207  3.1342
69141SOL    HW225034  12.959   9.260   1.703  1.8443  1.6037 -0.7893
69142SOL     OW25035   9.092  12.035   0.916 -0.4449 -0.7420  0.3437
69142SOL    HW125036   9.111  11.973   0.987 -0.2963 -0.1562  0.8206
69142SOL    HW225037   9.106  11.984   0.836  1.4283 -0.8658  0.6826
69143SOL     OW25038  10.855  14.077   0.062  0.2557 -0.5015 -0.4175
69143SOL    HW125039  10.808  14.024  -0.003 -0.3575 -1.9843  1.1360
69143SOL    HW225040  10.923  14.018   0.095  2.1445  1.0383 -1.3800
69144SOL     OW25041   3.609   3.676   6.728  0.5965  0.3957 -0.1798
69144SOL    HW125042   3.702   3.662   6.748  0.8829  0.0433 -1.6038
69144SOL    HW225043   3.587   3.605   6.668 -0.5456  0.6092 -0.0394
69145SOL     OW25044   4.680  10.118   6.958 -0.4298  0.4899 -0.5749
69145SOL    HW125045   4.658  10.112   6.865 -0.6098 -0.1156 -0.4954
69145SOL    HW225046   4.770  10.150   6.959 -0.0970 -0.3917 -0.9938
69146SOL     OW25047   2.629   7.065   6.896 -0.2382  0.0070 -0.4812
69146SOL    HW125048   2.633   7.143   6.841 -0.3066  1.0620  0.9670
69146SOL    HW225049   2.539   7.034   6.888 -0.7105  1.1256  0.3198
69147SOL     OW25050  10.322   3.010  12.448  0.1609 -0.4550  0.0931
69147SOL    HW125051  10.414   3.029  12.467  0.2153 -0.6882  0.0771
69147SOL    HW225052  10.285   2.985  12.533  0.4061 -1.5122 -0.0980
69148SOL     OW25053   4.991  11.245  12.069 -0.2972 -0.2477  0.0570
69148SOL    HW125054   5.016  11.327  12.027  1.2643 -0.5720  0.3156
69148SOL    HW225055   4.922  11.209  12.012  2.2694 -1.0872 -2.8032
69149SOL     OW25056   1.835   9.727  12.064  0.5571  0.5532 -0.9197
69149SOL    HW125057   1.881   9.775  11.995  0.6009  1.1255 -0.4954
69149SOL    HW225058   1.758   9.780  12.083 -0.0465 -0.1670 -1.2997
69150SOL     OW25059   0.708  12.700  12.280 -0.1038 -0.1269  0.8591
69150SOL    HW125060   0.621  12.714  12.241  0.1409  1.6109  0.8283
69150SOL    HW225061   0.699  12.732  12.370  1.1856  2.9317  0.0296
69151SOL     OW25062   4.214  10.307  13.512  0.5992 -0.4098 -0.8328
69151SOL    HW125063   4.223  10.232  13.454 -1.4484 -0.4755 -1.1319
69151SOL    HW225064   4.199  10.270  13.599 -0.6611 -0.3943 -1.0207
69152SOL     OW25065  11.256   2.106   9.685  0.4978 -0.1426 -0.1065
69152SOL    HW125066  11.200   2.118   9.608  1.3794  0.3502 -0.6799
69152SOL    HW225067  11.295   2.019   9.672 -0.6815 -0.8092  0.6658
69153SOL     OW25068   0.154  11.939   2.021  0.2231  0.2140 -0.2146
69153SOL    HW125069   0.140  11.898   2.106  2.6038  0.6949  0.4953
69153SOL    HW225070   0.069  11.935   1.977 -0.8233 -0.8957  1.8003
69154SOL     OW25071   9.655   4.055   3.161 -0.8036  0.4882  0.3838
69154SOL    HW125072   9.724   3.997   3.128 -1.8397 -1.2024  0.9990
69154SOL    HW225073   9.691   4.143   3.153  0.7087 -0.1984 -0.9766
69155SOL     OW25074   4.998  11.786   7.979  0.5225 -0.2844  0.1726
69155SOL    HW125075   5.042  11.771   7.896 -2.5761 -0.7053 -1.5261
69155SOL    HW225076   5.004  11.880   7.993  1.3583 -0.2543 -0.2982
69156SOL     OW25077   7.540  12.549   4.379 -0.5697 -0.0792 -0.0371
69156SOL    HW125078   7.551  12.605   4.455 -1.0525  0.0395 -0.0547
69156SOL    HW225079   7.595  12.473   4.398 -1.7557 -0.6973  1.0640
69157SOL     OW25080  13.554  13.714   3.662  0.0593  0.5548 -0.0466
69157SOL    HW125081  13.461  13.707   3.681  0.2487  1.1025  1.2368
69157SOL    HW225082  13.578  13.631   3.622 -0.8422  0.1524  0.2474
69158SOL     OW25083   7.112   8.142   4.972 -0.1979 -0.5104  0.0790
69158SOL    HW125084   7.200   8.172   4.950 -0.8295  0.0393 -1.8528
69158SOL    HW225085   7.093   8.072   4.910 -1.0278 -0.8122  0.6467
69159SOL     OW25086   4.148   9.381   0.114 -0.2980 -0.4454 -0.4037
69159SOL    HW125087   4.171   9.465   0.155 -0.3225 -0.1151 -1.0447
69159SOL    HW225088   4.163   9.316   0.182 -3.0335  0.3218  1.0864
69160SOL     OW25089   5.825   0.287  10.084  0.5860  0.1324  0.1408
69160SOL    HW125090   5.744   0.236  10.085  1.2474 -0.9570 -0.6331
69160SOL    HW225091   5.797   0.376  10.108 -0.7974 -0.2651  0.0803
69161SOL     OW25092   3.260   3.191   6.808  0.5136  0.0447 -0.3394
69161SOL    HW125093   3.318   3.209   6.882  0.9799 -1.0632 -0.4198
69161SOL    HW225094   3.217   3.108   6.830 -0.6237  0.5621 -0.5389
69162SOL     OW25095  12.016   0.194   3.455  0.1589 -0.4417 -0.1401
69162SOL    HW125096  12.024   0.225   3.365 -0.6602  0.2069 -0.0027
69162SOL    HW225097  12.063   0.259   3.507  2.8000 -2.1021 -0.2857
69163SOL     OW25098  10.304   6.625   2.511 -0.1267 -0.0397 -0.5672
69163SOL    HW125099  10.261   6.711   2.517 -0.8914 -0.3178 -1.6284
69163SOL    HW225100  10.357   6.631   2.432  1.6132  0.1877  0.5641
69164SOL     OW25101   1.377   1.527   5.687  0.1968  0.6230 -0.2210
69164SOL    HW125102   1.349   1.585   5.758 -0.2915  2.1017 -1.5624
69164SOL    HW225103   1.303   1.468   5.675  0.8842 -0.6691  1.4751
69165SOL     OW25104   2.174   6.661   3.793  0.1609 -0.7797 -0.0495
69165SOL    HW125105   2.151   6.665   3.700  1.2155 -1.9342 -0.3896
69165SOL    HW225106   2.170   6.568   3.814  1.1019 -0.6482  0.7505
69166SOL     OW25107  13.272   2.524  13.939  0.3575  0.0552  0.3178
69166SOL    HW125108  13.296   2.599  13.885  0.8181  0.2480  0.7826
69166SOL    HW225109  13.320   2.451  13.901 -0.5774 -0.1438 -0.5250
69167SOL     OW25110   6.994   2.212  10.914 -0.5408 -0.4028  0.5376
69167SOL    HW125111   6.996   2.116  10.911  2.0004 -0.4185  0.1687
69167SOL    HW225112   7.036   2.234  10.997  1.7865  0.3261 -0.7274
69168SOL     OW25113   2.510  11.161   6.083  0.1862 -0.2373 -0.5112
69168SOL    HW125114   2.512  11.252   6.111  0.4413 -0.3192 -0.2592
69168SOL    HW225115   2.557  11.114   6.152  0.1338 -0.5460 -0.6856
69169SOL     OW25116   3.726   8.385   7.890 -0.3184 -0.0842 -1.0865
69169SOL    HW125117   3.650   8.442   7.881 -0.3998 -0.2746 -1.6824
69169SOL    HW225118   3.729   8.336   7.807 -0.0428 -0.6830 -0.7305
69170SOL     OW25119   8.603   1.402   2.173  0.0180 -0.4192  0.1099
69170SOL    HW125120   8.573   1.470   2.112 -1.6278 -1.4483 -0.2798
69170SOL    HW225121   8.695   1.391   2.153 -0.0917  0.5000 -0.9993
69171SOL     OW25122  12.858   9.499  13.584  0.0507  0.2996 -0.2206
69171SOL    HW125123  12.816   9.481  13.668  0.2587  1.7348  0.2210
69171SOL    HW225124  12.804   9.568  13.544  1.0025  0.9683 -0.3932
69172SOL     OW25125  10.118  12.472  11.204 -0.4826 -0.2937 -0.5622
69172SOL    HW125126  10.044  12.495  11.149  0.4897  1.4731 -1.2113
69172SOL    HW225127  10.162  12.401  11.157  1.1610  2.1454 -2.9508
69173SOL     OW25128  12.613   6.237   5.685  0.1311  0.2053 -0.0188
69173SOL    HW125129  12.610   6.312   5.744  0.0333  0.6322 -0.5612
69173SOL    HW225130  12.633   6.274   5.600  1.4597 -0.5327 -0.0489
69174SOL     OW25131   1.387   3.710   1.513 -0.1769  0.3019 -0.1594
69174SOL    HW125132   1.330   3.639   1.539  1.5067 -1.2234 -0.4321
69174SOL    HW225133   1.392   3.704   1.417  0.3219  0.5076 -0.1528
69175SOL     OW25134   3.197  10.021  12.646  0.5495 -0.9201 -0.5727
69175SOL    HW125135   3.276  10.074  12.634  0.1784 -0.5488 -1.5024
69175SOL    HW225136   3.159  10.015  12.558 -2.0948  1.5429  0.2335
69176SOL     OW25137  10.344  10.421   6.526 -0.2086  0.8515  0.2365
69176SOL    HW125138  10.272  10.375   6.483  1.3748 -0.2474 -1.3496
69176SOL    HW225139  10.349  10.382   6.613 -1.0688  0.4612  0.1209
69177SOL     OW25140   2.122   6.456  13.134 -0.0313 -0.1427 -0.3276
69177SOL    HW125141   2.122   6.378  13.079  1.9650  0.8673 -1.9158
69177SOL    HW225142   2.213   6.464  13.163 -0.8532 -0.2148  2.6443
69178SOL     OW25143   5.338  10.637  11.200  0.1239 -0.2645  0.3887
69178SOL    HW125144   5.328  10.561  11.142 -0.5245  0.3371 -0.3086
69178SOL    HW225145   5.432  10.645  11.214  0.1752 -1.5610  0.9734
69179SOL     OW25146   1.417   0.574  12.439 -0.0379 -0.5202  0.1957
69179SOL    HW125147   1.329   0.537  12.441 -0.0415 -0.4744  1.5549
69179SOL    HW225148   1.452   0.558  12.526  1.3095 -0.5286 -0.3232
69180SOL     OW25149   9.021   9.717   0.290  0.3239 -0.1889 -0.0818
69180SOL    HW125150   8.938   9.679   0.318  0.1156 -0.1809 -0.6776
69180SOL    HW225151   9.034   9.791   0.349 -0.4496  0.2416 -0.4281
69181SOL     OW25152   4.245   2.001  11.098 -0.1690  0.2859  0.5368
69181SOL    HW125153   4.326   1.951  11.089 -0.8967 -1.5721  3.2059
69181SOL    HW225154   4.226   2.001  11.192 -2.1662  2.5226  0.2487
69182SOL     OW25155  10.377   6.069   6.892 -0.0346  0.4582  0.4883
69182SOL    HW125156  10.424   6.144   6.930  1.0584  0.1878 -0.2688
69182SOL    HW225157  10.344   6.102   6.809  1.1931 -0.1140 -0.2547
69183SOL     OW25158  13.624   4.255  10.192  0.8252 -0.0392  0.2794
69183SOL    HW125159  13.616   4.330  10.252  2.2743 -0.9439  1.6649
69183SOL    HW225160  13.703   4.274  10.141 -0.9161  1.2090 -2.1737
69184SOL     OW25161  13.691  11.843  13.199 -0.0818 -0.3286  0.1520
69184SOL    HW125162  13.760  11.830  13.264 -0.8020  0.0788  1.0185
69184SOL    HW225163  13.684  11.758  13.154 -0.4415 -1.0365  1.4844
69185SOL     OW25164  10.038  12.979   5.538  0.2005  0.0510 -0.3381
69185SOL    HW125165  10.130  13.004   5.545 -0.7365  3.5769  2.1437
69185SOL    HW225166  10.038  12.884   5.551  3.3697  0.1138  1.0311
69186SOL     OW25167  12.043   9.508  12.642  0.3581  0.2209  0.1629
69186SOL    HW125168  11.989   9.579  12.676 -0.4021  1.2667 -2.9330
69186SOL    HW225169  12.059   9.452  12.718 -2.0726  1.7584  1.9531
69187SOL     OW25170   8.668   7.222   0.736  0.1157 -0.7116 -0.3642
69187SOL    HW125171   8.577   7.247   0.717  0.2039  0.3818  0.5337
69187SOL    HW225172   8.661   7.145   0.793 -0.3755  0.8375  1.8205
69188SOL     OW25173  11.428   1.971   4.753  0.4865  0.1705  0.0558
69188SOL    HW125174  11.436   2.007   4.665 -0.1141 -0.2991 -0.2021
69188SOL    HW225175  11.459   1.881   4.745 -2.0987 -0.7841 -0.3441
69189SOL     OW25176  13.371   5.615   3.414  0.1014 -0.0365  0.4770
69189SOL    HW125177  13.326   5.571   3.486 -1.1318 -2.8449 -1.8217
69189SOL    HW225178  13.376   5.550   3.344  2.2372  2.1577 -1.6501
69190SOL     OW25179   2.432   1.560  13.128 -0.1614  0.3671  0.4188
69190SOL    HW125180   2.398   1.479  13.166  0.1883  0.5299  1.0790
69190SOL    HW225181   2.497   1.531  13.065 -0.7019  0.1001 -0.0301
69191SOL     OW25182   1.485  10.173  11.446 -0.4197 -0.3870 -0.2743
69191SOL    HW125183   1.577  10.148  11.461 -1.4029 -2.7823  3.1459
69191SOL    HW225184   1.463  10.133  11.362  1.1834 -1.4658 -0.2320
69192SOL     OW25185   8.967   0.971   9.294  0.3789 -0.2014  0.0378
69192SOL    HW125186   8.937   1.062   9.288 -0.4517 -0.4666  0.0132
69192SOL    HW225187   9.047   0.975   9.347 -0.1196  0.4402  0.7596
69193SOL     OW25188   3.335   8.160  11.121 -0.1154 -0.0741  0.9638
69193SOL    HW125189   3.332   8.193  11.211  0.3379 -0.3370  1.0775
69193SOL    HW225190   3.428   8.153  11.101 -0.2060  0.5956  0.2405
69194SOL     OW25191  10.144   4.606   1.677  0.0079  0.1274  0.3426
69194SOL    HW125192  10.210   4.598   1.746  0.9403 -0.6011 -0.6026
69194SOL    HW225193  10.110   4.695   1.686 -0.8557 -0.3763  2.5695
69195SOL     OW25194   9.875  10.652  10.411  0.2874  0.4249  0.3476
69195SOL    HW125195   9.797  10.706  10.400 -2.1465 -3.1887 -2.2682
69195SOL    HW225196   9.858  10.600  10.489  0.8749  0.7231  0.6836
69196SOL     OW25197  11.939   1.040   9.006  0.7576  0.2310  0.0015
69196SOL    HW125198  11.855   0.999   9.028  1.0483  0.0635  0.8430
69196SOL    HW225199  11.949   1.111   9.068  1.1090  0.4298 -0.2764
69197SOL     OW25200   8.411   4.489  10.614  0.2713 -0.2098 -0.1064
69197SOL    HW125201   8.495   4.509  10.573  0.9244 -2.1207  0.2268
69197SOL    HW225202   8.349   4.487  10.541  0.0324  3.1148 -0.1674
69198SOL     OW25203  10.452   5.260   5.167 -0.4124 -0.3737  0.1568
69198SOL    HW125204  10.378   5.285   5.112  0.5949  1.0753 -0.6151
69198SOL    HW225205  10.479   5.174   5.133  0.4008  0.6297 -1.9279
69199SOL     OW25206  11.111   5.037  11.366  0.2549 -0.0447 -0.2094
69199SOL    HW125207  11.057   5.114  11.382  0.3932  0.0715 -0.3007
69199SOL    HW225208  11.061   4.985  11.303 -0.7458 -0.9732  1.2990
69200SOL     OW25209   2.123   0.196   9.060  0.0147 -0.2044 -0.3168
69200SOL    HW125210   2.082   0.177   9.144  0.8549 -0.9925 -0.0760
69200SOL    HW225211   2.072   0.269   9.024  1.0700  1.7637  1.9363
69201SOL     OW25212  11.518   6.150   5.662  0.3482  0.3625 -0.2669
69201SOL    HW125213  11.464   6.219   5.702  0.2664  0.2576 -0.1931
69201SOL    HW225214  11.461   6.073   5.661  0.5973  0.1689  0.0908
69202SOL     OW25215  10.786  13.776   2.694  0.2530  0.3966  0.5815
69202SOL    HW125216  10.869  13.728   2.690  0.5168  0.3271  4.0623
69202SOL    HW225217  10.809  13.866   2.672  0.4028 -0.2788 -2.4701
69203SOL     OW25218  10.557  11.389   4.300 -0.4092 -0.7448 -0.1747
69203SOL    HW125219  10.602  11.399   4.383 -1.1910 -2.1380  0.4554
69203SOL    HW225220  10.465  11.410   4.320 -0.5327 -0.6743 -0.7911
69204SOL     OW25221   8.907  11.309  10.744 -0.1083  0.2239  0.5881
69204SOL    HW125222   8.959  11.301  10.823 -0.6189 -2.1457  0.7529
69204SOL    HW225223   8.840  11.374  10.765  0.0962  0.0280  1.8981
69205SOL     OW25224   3.499   1.521  13.943  0.9940 -0.0523  0.5423
69205SOL    HW125225   3.545   1.443  13.912  0.5336  0.4484 -1.5684
69205SOL    HW225226   3.407   1.494  13.945  0.8476  0.3958 -0.0786
69206SOL     OW25227  13.291   5.640   8.134 -0.6845 -0.2468  0.1380
69206SOL    HW125228  13.350   5.705   8.096  0.4533 -1.0627  0.4406
69206SOL    HW225229  13.205   5.681   8.131 -0.3409  0.4440 -1.5868
69207SOL     OW25230   3.835   5.917   0.213  0.2467 -0.1180 -0.6180
69207SOL    HW125231   3.795   5.973   0.279 -1.3936 -2.8436  0.8807
69207SOL    HW225232   3.913   5.881   0.255  0.6230  0.0801 -1.1265
69208SOL     OW25233  11.182  11.498   3.159 -0.0355 -0.5393 -0.5475
69208SOL    HW125234  11.249  11.475   3.095  2.7967  0.7550  1.7301
69208SOL    HW225235  11.152  11.585   3.131  0.7192 -0.2477 -0.4669
69209SOL     OW25236   0.591   2.928   9.555  0.7645 -0.0810  0.1016
69209SOL    HW125237   0.609   2.991   9.485  1.1891 -0.6647 -0.3189
69209SOL    HW225238   0.552   2.981   9.625  0.2744  0.4982 -0.5946
69210SOL     OW25239  11.931   2.198   3.881 -0.0001 -0.1148 -0.0702
69210SOL    HW125240  11.983   2.269   3.844  2.7313 -1.3630  1.1118
69210SOL    HW225241  11.854   2.241   3.917  1.4202  2.2373  0.3784
69211SOL     OW25242   5.563  13.502  13.466 -0.0039 -0.0833  0.1969
69211SOL    HW125243   5.635  13.438  13.468  0.2871  0.1571 -1.5004
69211SOL    HW225244   5.601  13.580  13.506 -0.3200 -0.8545  2.1649
69212SOL     OW25245  10.599  13.963   3.237 -0.4383  1.0100  0.2039
69212SOL    HW125246  10.569  14.039   3.287  0.4939  2.1590 -0.8935
69212SOL    HW225247  10.614  13.998   3.149 -1.9665 -0.9175 -0.8998
69213SOL     OW25248  11.631  12.254   7.434  0.1688 -0.3685 -0.0749
69213SOL    HW125249  11.666  12.185   7.489 -0.3134  0.7184  1.6649
69213SOL    HW225250  11.545  12.223   7.407  1.1397 -1.7211 -1.8573
69214SOL     OW25251   3.175  10.067  10.520  0.6038 -0.5536  0.2851
69214SOL    HW125252   3.155  10.026  10.604 -0.6620 -0.8563 -0.1294
69214SOL    HW225253   3.093  10.059  10.470  1.4714 -0.8563 -1.1593
69215SOL     OW25254   2.894  12.673   7.374 -0.6978 -0.8357  0.4603
69215SOL    HW125255   2.926  12.591   7.336 -0.8170 -1.1227  0.9661
69215SOL    HW225256   2.806  12.652   7.404 -0.9081 -0.3864  0.1616
69216SOL     OW25257   5.764  10.657  11.826  0.4481 -0.6620  0.1174
69216SOL    HW125258   5.672  10.668  11.803  0.6986  1.5035 -0.1053
69216SOL    HW225259   5.766  10.665  11.921  0.4260 -0.3343  0.0936
69217SOL     OW25260   9.260   8.741   3.396  0.5232  0.3699 -0.4595
69217SOL    HW125261   9.240   8.684   3.469 -1.4032 -1.6019 -2.3903
69217SOL    HW225262   9.332   8.698   3.351  1.4700  1.3963  0.0102
69218SOL     OW25263  13.629   4.234   6.460  0.5038  0.1486 -0.4630
69218SOL    HW125264  13.559   4.238   6.526  0.0800  2.5652 -0.9768
69218SOL    HW225265  13.584   4.209   6.379  0.1058  1.9793 -0.8574
69219SOL     OW25266   7.470   8.836  13.951  0.4590  0.4060  0.2436
69219SOL    HW125267   7.518   8.915  13.974  0.4098  0.2762  0.7874
69219SOL    HW225268   7.433   8.856  13.865 -0.9550  1.6369  1.0869
69220SOL     OW25269   0.770  11.075   8.097  0.0332 -0.3956  0.2834
69220SOL    HW125270   0.839  11.011   8.118 -0.3659 -1.3710 -1.2521
69220SOL    HW225271   0.757  11.067   8.003 -1.4561  0.5352  0.3737
69221SOL     OW25272  13.364   3.148  11.279 -0.7122 -0.7651  0.0117
69221SOL    HW125273  13.436   3.102  11.323 -0.8571 -2.1753 -1.1690
69221SOL    HW225274  13.325   3.083  11.221 -1.4159  0.6580 -1.1785
69222SOL     OW25275  12.058  10.803  10.475  0.1543  0.3019 -0.4614
69222SOL    HW125276  12.007  10.832  10.550  0.6687  0.3306 -0.1227
69222SOL    HW225277  12.144  10.780  10.510  0.9683  1.9263 -1.2692
69223SOL     OW25278   7.063   7.130  13.485  0.0737 -0.4197  0.2207
69223SOL    HW125279   7.151   7.096  13.470  0.0608  0.1004 -1.2288
69223SOL    HW225280   7.076   7.220  13.514  0.0513 -0.9556  1.9687
69224SOL     OW25281   0.557  13.687   6.232  0.6051  0.3799  0.6000
69224SOL    HW125282   0.544  13.765   6.286  0.5973  0.2530  0.7829
69224SOL    HW225283   0.511  13.706   6.150  0.1994  0.3770  0.8258
69225SOL     OW25284   0.349  13.454   4.119 -0.3514 -0.1517 -0.4839
69225SOL    HW125285   0.302  13.474   4.038 -1.5038 -0.7477 -0.0038
69225SOL    HW225286   0.301  13.502   4.186 -0.3109 -0.8219  0.0336
69226SOL     OW25287   2.836  12.000   6.679  0.1301  0.3472  0.0870
69226SOL    HW125288   2.890  12.078   6.672 -0.7910  0.8773 -1.7666
69226SOL    HW225289   2.776  12.018   6.751 -0.5323  1.6780 -0.7618
69227SOL     OW25290   9.566  13.341   0.347  0.1574 -0.0520 -0.3637
69227SOL    HW125291   9.563  13.334   0.251 -1.1019  2.6383 -0.6176
69227SOL    HW225292   9.551  13.434   0.364 -0.2731 -0.5686  2.4926
69228SOL     OW25293   9.217   8.336   5.206 -0.1370  0.3216 -0.5586
69228SOL    HW125294   9.313   8.329   5.204 -0.2636 -4.1249 -1.6503
69228SOL    HW225295   9.192   8.298   5.290 -0.9895  0.4404 -0.7520
69229SOL     OW25296   9.538  11.273   9.417  0.1449  0.1103 -0.4687
69229SOL    HW125297   9.531  11.317   9.333  0.9227 -0.3480 -0.7871
69229SOL    HW225298   9.489  11.192   9.406  0.8709 -0.2989 -0.7329
69230SOL     OW25299  12.982   2.319   2.997 -0.5104  0.4047  0.0710
69230SOL    HW125300  12.929   2.240   2.985  0.3386 -0.1361 -0.1322
69230SOL    HW225301  12.921   2.391   2.977 -0.9452 -0.2347 -0.9748
69231SOL     OW25302  12.798   7.067  11.354  0.1762  0.0160  0.3663
69231SOL    HW125303  12.744   7.097  11.427 -0.8500  1.2325 -0.8478
69231SOL    HW225304  12.738   7.060  11.280  1.5650  0.8757 -0.8948
69232SOL     OW25305   2.369   1.114   8.825 -0.0808  0.1839 -0.1457
69232SOL    HW125306   2.367   1.050   8.897 -0.9487 -1.6487 -1.7124
69232SOL    HW225307   2.335   1.066   8.750  0.8092  2.0327 -1.8115
69233SOL     OW25308   7.574   3.957   0.950  0.1588  0.0758 -0.6611
69233SOL    HW125309   7.528   3.993   0.875 -1.9273 -0.8692  0.0990
69233SOL    HW225310   7.558   3.863   0.947  2.4508 -0.3815 -0.5766
69234SOL     OW25311   3.446   4.124   4.215 -0.5369  0.0160  0.4490
69234SOL    HW125312   3.452   4.206   4.265 -1.4812  0.2514  0.1978
69234SOL    HW225313   3.535   4.109   4.184  0.3343 -0.6736  3.0185
69235SOL     OW25314   2.665   3.042  10.422  0.1447  0.1058 -0.0687
69235SOL    HW125315   2.678   2.986  10.498 -0.8302 -0.1648 -0.0892
69235SOL    HW225316   2.684   2.985  10.347 -0.9560 -0.2526 -0.0946
69236SOL     OW25317   9.222   1.653  13.984 -0.4570  0.4873 -0.0674
69236SOL    HW125318   9.149   1.652  14.046  0.7156  3.3174  1.5533
69236SOL    HW225319   9.197   1.589  13.917 -2.4117 -1.8134  2.5851
69237SOL     OW25320   1.949  11.506   4.032 -0.1053 -0.4569  0.6804
69237SOL    HW125321   2.004  11.452   4.089 -0.3989  0.4174  1.8274
69237SOL    HW225322   1.974  11.596   4.053 -0.9131 -0.0848  0.1152
69238SOL     OW25323  12.288   2.417  10.516  0.1782  0.3087 -0.2950
69238SOL    HW125324  12.250   2.484  10.572 -0.1020 -0.0912 -0.0018
69238SOL    HW225325  12.264   2.444  10.427  0.9860  1.1741 -0.2702
69239SOL     OW25326   5.825  12.797   6.909 -0.3273  0.9873  0.4620
69239SOL    HW125327   5.837  12.836   6.823 -1.0220  1.7066  0.6693
69239SOL    HW225328   5.842  12.704   6.897  1.2209  1.3204 -0.0840
69240SOL     OW25329   7.215  13.778   7.020  0.3471  0.4630  0.0145
69240SOL    HW125330   7.237  13.698   7.068  0.4644  1.1088  1.0535
69240SOL    HW225331   7.129  13.760   6.982  0.8270 -0.5397 -0.6318
69241SOL     OW25332  13.452   0.247   5.962 -0.0877  0.4568 -0.1970
69241SOL    HW125333  13.485   0.228   6.050  0.3496 -2.3513 -0.8548
69241SOL    HW225334  13.497   0.327   5.936  0.7162  0.6625  1.6459
69242SOL     OW25335   4.366   9.104   5.606  0.5590  0.5879 -0.1622
69242SOL    HW125336   4.442   9.053   5.635  2.8211  2.8378 -1.7188
69242SOL    HW225337   4.317   9.044   5.550  2.6433 -0.2359 -1.2212
69243SOL     OW25338  13.297   1.032  11.631  0.1596  0.2069  0.0252
69243SOL    HW125339  13.374   1.017  11.686  0.8552  2.1345 -0.3244
69243SOL    HW225340  13.331   1.077  11.553 -1.1669  0.0298 -0.6888
69244SOL     OW25341  13.082  13.702  11.759  0.5532 -0.2394  0.2519
69244SOL    HW125342  13.057  13.781  11.711  1.1328 -0.3431 -0.2310
69244SOL    HW225343  13.119  13.736  11.841 -1.0426 -0.0861  0.9463
69245SOL     OW25344   2.912  12.927   0.094 -0.2374 -0.1206 -0.1267
69245SOL    HW125345   2.989  12.889   0.052  1.1981 -0.2700  2.4454
69245SOL    HW225346   2.862  12.852   0.127  0.3654  0.0357  1.2113
69246SOL     OW25347   0.701   0.974  12.695 -0.3177 -0.4167 -0.0042
69246SOL    HW125348   0.678   0.901  12.754  0.8756 -0.2225  0.7219
69246SOL    HW225349   0.678   0.941  12.608  1.1283 -2.0902  0.1854
69247SOL     OW25350  11.561  13.720   1.805  0.4982 -0.1366  0.5860
69247SOL    HW125351  11.581  13.631   1.836  0.5823 -0.8316 -1.3079
69247SOL    HW225352  11.647  13.756   1.782  0.6296  1.0047  2.5993
69248SOL     OW25353  13.399   3.499   3.450 -0.3964  0.0546  0.2045
69248SOL    HW125354  13.368   3.588   3.441  0.7130  0.4342 -0.0625
69248SOL    HW225355  13.338   3.446   3.399 -0.5687  0.7749 -0.3461
69249SOL     OW25356   4.161  13.855   6.421 -0.2203  0.1627  0.4858
69249SOL    HW125357   4.175  13.949   6.427 -0.4044  0.2228  0.0068
69249SOL    HW225358   4.248  13.817   6.424  0.1103  0.5107 -2.1572
69250SOL     OW25359   1.728   5.690   2.382 -0.3798  0.1473 -0.1966
69250SOL    HW125360   1.748   5.601   2.412  0.2785  0.6287  0.8752
69250SOL    HW225361   1.806   5.741   2.405 -0.8536  1.0539 -0.5501
69251SOL     OW25362   4.711  11.428  12.602 -0.4062 -0.1234 -0.4008
69251SOL    HW125363   4.722  11.443  12.508 -1.0032 -1.8257 -0.7779
69251SOL    HW225364   4.624  11.390  12.610  0.4051 -1.8602  0.5963
69252SOL     OW25365  10.990   2.449   5.848  0.5031  0.1272 -0.6766
69252SOL    HW125366  11.024   2.361   5.832 -0.0152 -0.2756  0.3543
69252SOL    HW225367  11.028   2.475   5.931 -0.3270  0.3629 -0.3547
69253SOL     OW25368  12.657   9.976   1.637  0.2233 -0.4710  0.4396
69253SOL    HW125369  12.570   9.979   1.597  0.7786 -2.1261 -1.0463
69253SOL    HW225370  12.699  10.058   1.611 -0.4789 -0.2073  0.1323
69254SOL     OW25371   1.187   1.465   6.307  0.5176  0.0551 -0.2573
69254SOL    HW125372   1.142   1.412   6.241 -1.2220  0.6147  0.4017
69254SOL    HW225373   1.162   1.555   6.287  0.3786  0.2807  0.8332
69255SOL     OW25374   9.421   2.106  13.647  0.2041  0.3129  0.2841
69255SOL    HW125375   9.360   2.174  13.621  2.2288  2.0811 -0.0624
69255SOL    HW225376   9.423   2.110  13.742 -1.3449 -0.8755  0.4241
69256SOL     OW25377   4.694  11.185  12.443  0.1576  0.5796  0.3154
69256SOL    HW125378   4.603  11.155  12.432  0.7209 -0.8629 -0.6953
69256SOL    HW225379   4.703  11.256  12.379 -0.2060  0.6364  0.3199
69257SOL     OW25380   9.363  12.751  11.317  0.2229 -0.1523 -0.0947
69257SOL    HW125381   9.343  12.798  11.237  1.8202 -2.6609 -2.1555
69257SOL    HW225382   9.459  12.754  11.323  0.4021 -2.8998 -0.3170
69258SOL     OW25383   1.096  13.542   2.411  0.7613  0.0946 -0.3739
69258SOL    HW125384   1.092  13.468   2.472  0.0437  1.1906  0.9447
69258SOL    HW225385   1.052  13.613   2.456  1.5450  1.3908 -1.5719
69259SOL     OW25386   7.065  10.442   0.230  0.0291  0.0637  0.2644
69259SOL    HW125387   6.983  10.399   0.254  1.1157 -2.8250 -0.7290
69259SOL    HW225388   7.123  10.427   0.305  0.3360  0.0370  0.0243
69260SOL     OW25389   0.360   3.739   5.371 -0.4170 -0.0652 -0.0303
69260SOL    HW125390   0.271   3.754   5.403 -0.5313 -1.7848  0.5452
69260SOL    HW225391   0.360   3.648   5.342  1.0483  0.0258 -0.3819
69261SOL     OW25392   8.537   0.096   5.243 -0.3684 -0.1643  0.0372
69261SOL    HW125393   8.593   0.142   5.306 -0.1312  0.3430 -0.5343
69261SOL    HW225394   8.593   0.026   5.209 -0.3351 -0.1389  0.0391
69262SOL     OW25395   5.023   2.249   0.411  0.6342  0.2232 -0.0431
69262SOL    HW125396   4.997   2.213   0.326  0.3571 -3.6539  1.4798
69262SOL    HW225397   4.941   2.275   0.452  0.5510  0.1131 -0.1390
69263SOL     OW25398   0.913   1.346  11.306 -0.0859 -0.2262 -0.0634
69263SOL    HW125399   0.930   1.423  11.251 -2.2700  0.1657 -0.2980
69263SOL    HW225400   0.851   1.294  11.254 -1.2690 -0.4442  1.5077
69264SOL     OW25401   0.963   2.512   6.801  0.0108  0.4635  0.5907
69264SOL    HW125402   1.042   2.513   6.747 -0.5792 -0.1445 -0.3174
69264SOL    HW225403   0.978   2.441   6.864 -0.0822 -0.1246 -0.0307
69265SOL     OW25404  10.844   7.808   1.141 -0.4949 -0.0306 -0.1438
69265SOL    HW125405  10.932   7.787   1.110 -0.0667 -0.8786  1.5205
69265SOL    HW225406  10.786   7.749   1.093  0.1015 -1.0634  0.3875
69266SOL     OW25407   2.635  13.097   3.382 -0.2090  0.6186 -0.4990
69266SOL    HW125408   2.601  13.108   3.293 -0.3141  0.1204 -0.5263
69266SOL    HW225409   2.713  13.152   3.386  0.3785 -0.1259 -1.2293
69267SOL     OW25410   1.610   9.663   0.736  0.4033 -0.3137 -0.3024
69267SOL    HW125411   1.589   9.678   0.644 -0.5824  3.6090  0.3859
69267SOL    HW225412   1.530   9.625   0.773  0.0322  0.0782 -0.6940
69268SOL     OW25413  11.279   8.778  12.290 -0.2052 -0.2871  0.4512
69268SOL    HW125414  11.313   8.709  12.348 -0.7063 -0.5916  0.3894
69268SOL    HW225415  11.271   8.735  12.205 -0.0486 -0.0120  0.3008
69269SOL     OW25416   4.371   6.244  11.762  0.1329 -0.2903 -0.8279
69269SOL    HW125417   4.466   6.249  11.771  0.3212 -1.3373 -2.0821
69269SOL    HW225418   4.354   6.262  11.670 -1.2120  3.4532 -0.0512
69270SOL     OW25419   0.772  11.166   5.457  0.4576  0.6544  0.4651
69270SOL    HW125420   0.728  11.227   5.517  2.8379  1.1417  1.8313
69270SOL    HW225421   0.836  11.121   5.511  1.4271 -0.2598 -1.3495
69271SOL     OW25422   4.701   3.955   4.539  0.5051 -0.1268 -0.3121
69271SOL    HW125423   4.751   4.026   4.579  0.3985 -1.6742  2.8432
69271SOL    HW225424   4.762   3.881   4.537 -0.7607 -1.2655  0.9928
69272SOL     OW25425  10.264  13.389   2.923 -0.1070 -0.0455 -0.2427
69272SOL    HW125426  10.268  13.470   2.974  0.1215 -0.4166  0.3390
69272SOL    HW225427  10.324  13.329   2.968 -1.9435 -1.2803  0.6818
69273SOL     OW25428   2.924   8.818  14.071  0.0908 -0.2807 -0.0892
69273SOL    HW125429   2.949   8.789  13.983 -1.5084  0.3709 -0.7907
69273SOL    HW225430   2.992   8.881  14.095 -1.1221  2.0979 -2.2942
69274SOL     OW25431   3.461   0.635   9.030  0.3264  0.3269  0.2455
69274SOL    HW125432   3.503   0.611   8.947  0.3152  0.4536  0.2033
69274SOL    HW225433   3.462   0.731   9.031  1.2818  0.3231  0.8790
69275SOL     OW25434  12.444   0.099   8.822  0.2989  0.1125 -0.0764
69275SOL    HW125435  12.456   0.083   8.728 -0.2443 -0.3012 -0.0807
69275SOL    HW225436  12.352   0.126   8.830 -0.4215 -2.3060  0.6301
69276SOL     OW25437   3.290  10.624   6.742 -0.4898  0.6771 -0.0088
69276SOL    HW125438   3.362  10.566   6.716  0.6943  2.1966 -0.2917
69276SOL    HW225439   3.284  10.614   6.837 -2.2143 -1.9719 -0.3010
69277SOL     OW25440   8.762   9.013   3.927 -0.3668  0.6117  0.3011
69277SOL    HW125441   8.682   9.063   3.942 -0.7857 -0.1782  0.8050
69277SOL    HW225442   8.807   9.014   4.012  1.1342  2.6586 -0.4533
69278SOL     OW25443  10.588   9.988  10.622  0.2399  0.3730  0.0604
69278SOL    HW125444  10.540  10.040  10.686  0.8147  0.8687  0.0998
69278SOL    HW225445  10.659  10.045  10.593  2.4627 -1.2222  1.9836
69279SOL     OW25446  11.820  12.996   4.377 -0.4732  0.3946  0.5973
69279SOL    HW125447  11.830  12.902   4.360  0.4271  0.4001  1.0212
69279SOL    HW225448  11.891  13.017   4.437 -1.1920  1.1807  1.1942
69280SOL     OW25449   2.451   7.078   3.256 -0.2988 -0.7778 -0.6242
69280SOL    HW125450   2.455   7.146   3.323  0.4712 -1.4126  0.0137
69280SOL    HW225451   2.516   7.013   3.285 -1.4587 -2.0872 -0.8585
69281SOL     OW25452  12.582   4.061   8.458 -0.4857  0.1214  0.1738
69281SOL    HW125453  12.670   4.078   8.423 -0.3456  0.6077  0.7347
69281SOL    HW225454  12.597   4.035   8.548 -0.8709 -0.6256  0.0252
69282SOL     OW25455   5.244   9.249   5.913 -0.0777 -0.4201  0.1072
69282SOL    HW125456   5.262   9.318   5.849 -0.9218 -0.4304 -0.1588
69282SOL    HW225457   5.286   9.279   5.993  0.8752 -0.3420 -0.4101
69283SOL     OW25458  12.881   4.803   1.265 -0.1249 -0.2711 -0.3539
69283SOL    HW125459  12.834   4.722   1.247  0.0082 -0.4628  0.1410
69283SOL    HW225460  12.947   4.808   1.196 -0.5943 -0.2160 -0.8030
69284SOL     OW25461   2.478  12.882  12.787 -0.2158 -0.3641 -0.2344
69284SOL    HW125462   2.384  12.889  12.803  0.2756 -1.5150  4.5179
69284SOL    HW225463   2.495  12.788  12.783  0.9363 -0.2674  1.3193
69285SOL     OW25464  11.505   2.587   7.239 -0.3370  0.4814 -0.1352
69285SOL    HW125465  11.590   2.595   7.283 -0.5745  1.0218  0.2383
69285SOL    HW225466  11.511   2.505   7.191  0.1029  0.1089  0.5367
69286SOL     OW25467   3.279   0.215   2.606  0.1087  0.3605  0.4159
69286SOL    HW125468   3.187   0.193   2.617  0.5299 -1.1216  1.1888
69286SOL    HW225469   3.291   0.294   2.658 -0.4369 -0.2146  1.4402
69287SOL     OW25470   3.591   5.940   9.865  0.0918  0.6130 -0.5497
69287SOL    HW125471   3.525   5.915   9.801 -1.0599 -0.5713  1.0135
69287SOL    HW225472   3.618   5.857   9.906 -0.4289  1.4249  1.6076
69288SOL     OW25473   4.397   2.443   3.308 -0.0272 -0.8121  0.7747
69288SOL    HW125474   4.449   2.399   3.375 -0.0302 -0.6505  0.8827
69288SOL    HW225475   4.326   2.485   3.356  0.2252 -0.3153  0.7257
69289SOL     OW25476   0.847   3.847   5.060 -0.0514 -0.3278 -0.0265
69289SOL    HW125477   0.856   3.939   5.083  0.7738  0.0103 -1.5943
69289SOL    HW225478   0.781   3.846   4.991  0.5013 -0.8150 -0.5572
69290SOL     OW25479  11.073   1.868  12.863 -0.0142  0.2481  0.6427
69290SOL    HW125480  11.154   1.819  12.872 -0.3690 -0.3795  0.4355
69290SOL    HW225481  11.019   1.840  12.937 -0.4187 -0.0652  0.2327
69291SOL     OW25482  10.722   3.372  12.458 -0.4014 -0.1613  0.0148
69291SOL    HW125483  10.684   3.375  12.371  0.7645 -2.1905 -0.6197
69291SOL    HW225484  10.663   3.315  12.508 -0.1520 -0.3726  0.0679
69292SOL     OW25485  12.571   1.471  11.985 -0.3126 -0.0340 -0.5604
69292SOL    HW125486  12.666   1.477  11.996 -0.2104 -1.1849 -0.7211
69292SOL    HW225487  12.559   1.449  11.893 -0.6632 -1.3811 -0.2044
69293SOL     OW25488   6.494  13.782   7.994  0.2239  0.3902 -0.4530
69293SOL    HW125489   6.569  13.814   8.045  1.6536  0.2656 -2.3394
69293SOL    HW225490   6.451  13.862   7.964 -1.6288  0.4902  2.1945
69294SOL     OW25491   6.596   4.141  12.469  0.1166 -0.2815  0.1310
69294SOL    HW125492   6.587   4.061  12.520 -0.5915  0.7531  1.7223
69294SOL    HW225493   6.669   4.187  12.511 -0.7950  0.8101  0.5599
69295SOL     OW25494   6.187   0.745   5.660 -0.7218  0.3776 -0.5123
69295SOL    HW125495   6.241   0.798   5.718 -0.4249 -0.7411  0.2613
69295SOL    HW225496   6.111   0.720   5.713 -0.6656 -0.2947 -0.7352
69296SOL     OW25497   3.248   6.707   8.641 -0.0504  0.8835 -0.0715
69296SOL    HW125498   3.335   6.701   8.601 -0.0563  0.6232 -0.0491
69296SOL    HW225499   3.200   6.769   8.586 -0.0528  0.5461 -0.4559
69297SOL     OW25500   8.179  13.142   2.817  0.6290  0.4591 -0.3566
69297SOL    HW125501   8.098  13.103   2.783  0.0479 -0.4517  1.8839
69297SOL    HW225502   8.230  13.067   2.847  0.8579  1.2089  1.2202
69298SOL     OW25503   0.633  13.626  11.361 -0.4026 -0.6101  0.0518
69298SOL    HW125504   0.691  13.665  11.426 -0.6500  0.2372 -0.2154
69298SOL    HW225505   0.545  13.651  11.390 -0.4480  1.2903 -1.5123
69299SOL     OW25506   6.433   1.359   7.189 -0.1320 -0.3870  0.3827
69299SOL    HW125507   6.508   1.363   7.249 -0.3251  0.8704  0.5626
69299SOL    HW225508   6.369   1.419   7.227 -1.7282 -2.2628  0.8582
69300SOL     OW25509   3.691   1.554   2.719  0.0323  0.0317  0.4804
69300SOL    HW125510   3.625   1.538   2.787 -0.9741  0.7114 -0.2959
69300SOL    HW225511   3.762   1.600   2.765 -2.5104  4.6771  0.4375
69301SOL     OW25512   2.534   6.983  10.768  0.1022 -0.1913 -0.0771
69301SOL    HW125513   2.507   6.940  10.687 -1.0137 -0.6423  0.5151
69301SOL    HW225514   2.550   6.911  10.829 -0.8837  0.1755  0.6431
69302SOL     OW25515  13.585   6.105   9.431  0.2964  0.6078 -0.0988
69302SOL    HW125516  13.568   6.150   9.349 -2.5286  0.4242  0.2884
69302SOL    HW225517  13.566   6.169   9.499 -1.4851 -0.3764  0.4135
69303SOL     OW25518  11.669   7.140   5.595 -0.0851 -0.1391  0.3598
69303SOL    HW125519  11.641   7.074   5.531  1.6509 -0.4685 -0.0969
69303SOL    HW225520  11.605   7.133   5.666 -1.1015 -0.8947 -0.6030
69304SOL     OW25521   2.723   0.588   5.198 -0.4541  0.2518 -0.1593
69304SOL    HW125522   2.802   0.614   5.150  0.2753 -1.2392  0.1480
69304SOL    HW225523   2.748   0.506   5.241 -1.2450  1.2533  2.3680
69305SOL     OW25524  10.249   1.025   0.525  0.5898  0.1849  0.4858
69305SOL    HW125525  10.304   1.093   0.487 -0.3649  1.0165  0.5518
69305SOL    HW225526  10.205   1.068   0.599 -2.9481  0.6982 -1.6887
69306SOL     OW25527   1.047   9.942   3.467  0.5105 -0.2517  0.0859
69306SOL    HW125528   1.136   9.976   3.478 -0.1718  1.1555  1.4641
69306SOL    HW225529   1.043   9.866   3.525  0.8995 -0.5048 -0.2135
69307SOL     OW25530   0.437  10.180   0.070 -0.2608 -0.4427  0.2876
69307SOL    HW125531   0.503  10.250   0.069 -0.0425 -0.6512 -0.7255
69307SOL    HW225532   0.457  10.130   0.149 -0.7485  0.9253  1.3173
69308SOL     OW25533   4.665  13.505   3.070  0.2822 -0.2274 -0.0482
69308SOL    HW125534   4.742  13.476   3.021  0.5825  0.5217 -0.0379
69308SOL    HW225535   4.679  13.599   3.081  0.2671 -0.3866  1.5468
69309SOL     OW25536  10.889  10.504   9.481 -0.2864 -0.2441  0.0617
69309SOL    HW125537  10.866  10.476   9.569 -1.9462  1.5984  0.2933
69309SOL    HW225538  10.942  10.433   9.445  0.0983 -1.1957  2.3916
69310SOL     OW25539   0.781  12.093   8.828  0.5133 -0.2074  0.6757
69310SOL    HW125540   0.761  12.049   8.911 -1.2742 -3.3931 -1.2565
69310SOL    HW225541   0.857  12.046   8.794 -0.2570 -0.5657 -0.5778
69311SOL     OW25542  11.078   9.738   7.141 -0.2311  0.2068 -0.0866
69311SOL    HW125543  11.152   9.774   7.092 -0.2379 -1.3828 -1.3588
69311SOL    HW225544  11.094   9.764   7.232  1.3506  0.7455 -0.4868
69312SOL     OW25545   3.238   8.921   6.531  0.2546  0.4707  0.4158
69312SOL    HW125546   3.223   8.957   6.618 -0.4991  1.2170  0.0001
69312SOL    HW225547   3.332   8.907   6.526  0.0301 -2.7979  2.5558
69313SOL     OW25548  10.968   3.865   7.148 -0.2888  0.3415  0.0726
69313SOL    HW125549  10.940   3.803   7.215  0.6005 -0.1856 -0.0286
69313SOL    HW225550  11.062   3.852   7.141 -0.2184  1.1091 -0.5605
69314SOL     OW25551   4.879   1.866  11.205 -0.0323 -0.0593 -0.2160
69314SOL    HW125552   4.949   1.925  11.235  0.6465 -0.4280 -1.0393
69314SOL    HW225553   4.810   1.877  11.270  0.7961  0.2998  0.6322
69315SOL     OW25554   6.129   6.149   2.077  0.5741  0.0597 -0.3176
69315SOL    HW125555   6.137   6.243   2.091 -2.2065  0.2817  0.3496
69315SOL    HW225556   6.148   6.136   1.984 -0.3763  1.5011 -0.7430
69316SOL     OW25557   5.956  13.001   1.869 -0.0569  0.7247 -0.2321
69316SOL    HW125558   5.963  12.955   1.953  0.5147 -0.0796 -0.7065
69316SOL    HW225559   5.950  13.094   1.893 -1.0963  0.4273  0.7348
69317SOL     OW25560   7.517   1.120  10.805  0.2035  0.0119  0.1372
69317SOL    HW125561   7.432   1.078  10.795 -0.3095  1.3875 -2.2795
69317SOL    HW225562   7.497   1.213  10.808  1.5547  0.2984  0.7886
69318SOL     OW25563   4.464  11.407   1.852 -0.7008 -0.0272  0.0630
69318SOL    HW125564   4.376  11.379   1.876 -0.4231 -1.8393 -0.8863
69318SOL    HW225565   4.517  11.388   1.929 -1.0728  0.8850  0.5644
69319SOL     OW25566  11.627   6.327   3.962 -0.2658 -0.4697  0.0318
69319SOL    HW125567  11.581   6.409   3.943  0.7852  0.1481  0.0893
69319SOL    HW225568  11.682   6.347   4.037  0.2053 -1.1475 -0.1219
69320SOL     OW25569   7.825   6.637   2.253  0.0422  0.7982 -0.1810
69320SOL    HW125570   7.814   6.661   2.161 -0.7815 -0.9830 -0.5926
69320SOL    HW225571   7.909   6.676   2.278  0.9008  0.2838 -2.0613
69321SOL     OW25572   0.573   3.503   4.808  0.3336  0.0841  0.0751
69321SOL    HW125573   0.646   3.465   4.856 -1.3823 -1.5559  1.5315
69321SOL    HW225574   0.510   3.432   4.800 -0.9265  1.2976 -1.5672
69322SOL     OW25575  11.666   1.470  13.472  0.8604 -0.8133  0.2456
69322SOL    HW125576  11.600   1.536  13.493  1.6054 -0.1726  0.6338
69322SOL    HW225577  11.675   1.419  13.553  0.3746 -1.3230 -0.0153
69323SOL     OW25578   5.746   7.197  10.395  0.5346  0.1984  0.3168
69323SOL    HW125579   5.698   7.235  10.321  1.9941 -0.4059 -1.0003
69323SOL    HW225580   5.706   7.111  10.407  0.9647 -0.1288 -0.4910
69324SOL     OW25581   2.682   5.491   0.814 -0.3859  0.0398  0.8696
69324SOL    HW125582   2.715   5.574   0.847 -0.6125 -0.0576  1.3577
69324SOL    HW225583   2.656   5.509   0.724 -1.7864  0.8750  1.4094
69325SOL     OW25584   3.221   5.034   3.582 -0.5372 -0.3077 -0.3160
69325SOL    HW125585   3.295   5.024   3.642  0.0359  0.4540 -0.8654
69325SOL    HW225586   3.230   4.962   3.519  0.4078  0.4107 -1.0402
69326SOL     OW25587   4.783   1.674  12.645 -0.1463 -0.4777  0.3261
69326SOL    HW125588   4.779   1.612  12.717 -0.6291  0.9372  1.5687
69326SOL    HW225589   4.869   1.660  12.606  0.3965 -0.8206  1.6005
69327SOL     OW25590   3.522   1.207   1.958  0.4793  0.4032  0.1491
69327SOL    HW125591   3.548   1.129   1.908 -2.0761 -0.3996 -0.0786
69327SOL    HW225592   3.584   1.275   1.931  1.1413 -0.8528 -1.6700
69328SOL     OW25593   0.779   2.260   5.529  0.2977  0.2852  0.2891
69328SOL    HW125594   0.775   2.322   5.457 -0.5743  1.1303  1.0401
69328SOL    HW225595   0.715   2.192   5.507 -0.0638  0.6136  0.3289
69329SOL     OW25596   3.544   1.221   3.948 -0.6782 -0.3574  0.2972
69329SOL    HW125597   3.602   1.217   4.024 -1.3598  2.8579  1.1586
69329SOL    HW225598   3.587   1.283   3.889 -1.4615 -0.7877 -0.7547
69330SOL     OW25599   5.330   2.983   6.107  0.3610 -0.3467  0.0159
69330SOL    HW125600   5.308   2.900   6.150 -0.5031  0.1845  0.6609
69330SOL    HW225601   5.332   2.962   6.014  0.4690 -1.1557  0.1899
69331SOL     OW25602   3.139   6.299   4.529 -0.2492  0.4053 -0.5190
69331SOL    HW125603   3.065   6.252   4.491 -1.0737  1.3809 -0.1400
69331SOL    HW225604   3.101   6.377   4.568  1.1248  1.5504 -1.3694
69332SOL     OW25605   4.333   5.040   4.417 -0.9410 -0.1665 -0.0473
69332SOL    HW125606   4.303   4.950   4.426 -2.4332  0.1399 -1.5698
69332SOL    HW225607   4.254   5.093   4.423 -0.1105  1.0571  0.6519
69333SOL     OW25608   4.304  10.437   0.908 -0.5059  0.3213  0.0414
69333SOL    HW125609   4.359  10.466   0.836 -0.9845 -0.4575 -0.6447
69333SOL    HW225610   4.310  10.342   0.907  1.5172  0.3012  2.6338
69334SOL     OW25611   0.751   1.969   2.932  0.2822 -0.3536 -0.3697
69334SOL    HW125612   0.698   1.892   2.951  0.1275 -0.0997  0.2553
69334SOL    HW225613   0.837   1.935   2.909 -0.5025 -0.8700 -2.8468
69335SOL     OW25614   0.167   5.993   6.887 -0.7402  0.1826  0.2425
69335SOL    HW125615   0.073   5.975   6.893 -0.9447  0.8140 -0.7486
69335SOL    HW225616   0.172   6.077   6.842  0.2808  0.6773  1.2333
69336SOL     OW25617  10.202   0.169  10.307  0.5406  0.3703 -0.4526
69336SOL    HW125618  10.192   0.205  10.396  3.6373  1.4658 -0.4358
69336SOL    HW225619  10.248   0.086  10.320  2.9992  1.5589 -1.0635
69337SOL     OW25620   8.884  10.365  11.152 -0.7255 -0.5569 -0.3216
69337SOL    HW125621   8.959  10.362  11.092  2.0653  3.2053  2.4497
69337SOL    HW225622   8.836  10.444  11.128 -0.5003  0.1019  1.2358
69338SOL     OW25623   2.924  12.251  13.324 -0.4365  0.0957  0.3434
69338SOL    HW125624   2.902  12.328  13.376 -0.0164  0.6155 -0.2363
69338SOL    HW225625   3.004  12.217  13.365  0.3113  0.9290 -0.3916
69339SOL     OW25626   1.763   7.097  12.487  0.1620 -0.4514  0.4618
69339SOL    HW125627   1.673   7.077  12.514  0.4454  0.9583  2.7167
69339SOL    HW225628   1.779   7.039  12.413 -3.0267  0.0814 -0.8413
69340SOL     OW25629  12.346   7.215   8.967 -0.0044 -0.6612  0.2721
69340SOL    HW125630  12.441   7.225   8.961  0.0413  0.0290  1.7689
69340SOL    HW225631  12.328   7.134   8.919  1.0865  0.2125 -1.7246
69341SOL     OW25632   1.133   6.630  12.069  0.4894  0.3489 -0.0937
69341SOL    HW125633   1.172   6.564  12.127 -0.7659 -0.3254  0.0176
69341SOL    HW225634   1.187   6.628  11.991  1.7891  0.7727  0.7603
69342SOL     OW25635   2.791  11.121   1.763  0.0634  0.4337 -0.1139
69342SOL    HW125636   2.792  11.090   1.673  1.3315  2.7326 -0.9840
69342SOL    HW225637   2.699  11.140   1.782 -0.3936 -1.4085 -0.3912
69343SOL     OW25638   6.367   7.164   0.619 -0.1639 -0.3122 -0.7021
69343SOL    HW125639   6.296   7.164   0.555 -0.3424  0.0911 -0.5120
69343SOL    HW225640   6.431   7.226   0.584  0.1590 -0.7737 -0.9386
69344SOL     OW25641   1.827   1.580   8.759 -0.1573  0.1067  0.0420
69344SOL    HW125642   1.752   1.522   8.777 -0.4697  1.0852  2.2462
69344SOL    HW225643   1.898   1.520   8.736 -1.0023 -1.0218  0.2283
69345SOL     OW25644   0.676  13.065   9.193 -0.4319 -0.0928  0.0437
69345SOL    HW125645   0.737  13.133   9.165  0.1328 -0.7627 -0.3885
69345SOL    HW225646   0.681  12.998   9.125 -1.9993  0.0388 -0.2373
69346SOL     OW25647  13.127   2.421  12.416  0.1454  0.1651 -0.3899
69346SOL    HW125648  13.129   2.352  12.350  1.6404 -0.9136  0.7105
69346SOL    HW225649  13.035   2.443  12.426 -0.2405 -0.7850 -1.6684
69347SOL     OW25650   6.936   0.117  12.155  0.2393  0.4170  0.5281
69347SOL    HW125651   6.989   0.065  12.216 -1.4046  0.3756  1.9780
69347SOL    HW225652   6.926   0.061  12.078  0.1432 -0.6320  1.2824
69348SOL     OW25653   1.491   7.296  13.537  0.1245  0.4596  0.3675
69348SOL    HW125654   1.568   7.345  13.509  0.2574  1.3477  2.1877
69348SOL    HW225655   1.490   7.304  13.632 -0.8597 -1.6056  0.5786
69349SOL     OW25656   0.821   0.273  12.542 -0.1143  0.0626  0.3557
69349SOL    HW125657   0.871   0.250  12.620  0.0065 -1.6218 -0.1714
69349SOL    HW225658   0.826   0.195  12.486 -2.5193  0.1616 -0.1147
69350SOL     OW25659  12.567  10.882   9.400 -0.6156 -0.3650  0.4848
69350SOL    HW125660  12.553  10.905   9.492  0.5734 -3.5223  1.5756
69350SOL    HW225661  12.511  10.943   9.351 -2.4314  0.4426  3.3633
69351SOL     OW25662   3.160   4.601  10.008 -0.4333  0.2119  0.3117
69351SOL    HW125663   3.178   4.559  10.093  0.2674 -0.1905 -0.0162
69351SOL    HW225664   3.165   4.695  10.026 -3.1531  0.2544  1.3040
69352SOL     OW25665  11.863   2.426   8.488 -0.0759  0.3127  0.0596
69352SOL    HW125666  11.848   2.496   8.552  1.9258  1.3568 -0.5199
69352SOL    HW225667  11.956   2.433   8.467 -0.4547 -0.6530 -2.2082
69353SOL     OW25668  13.018  13.427   4.422  0.9941  0.0627 -0.0322
69353SOL    HW125669  13.077  13.490   4.382  0.7685 -0.1809 -0.7619
69353SOL    HW225670  13.006  13.359   4.356  0.0908 -0.0178  0.1935
69354SOL     OW25671   4.282  11.129  13.433  0.4994  0.0759 -0.2283
69354SOL    HW125672   4.202  11.164  13.473 -0.5433 -0.0034 -2.1601
69354SOL    HW225673   4.307  11.057  13.491 -1.1095 -0.2143  0.1648
69355SOL     OW25674  11.039   5.718   1.984  0.5018  0.2002  0.0732
69355SOL    HW125675  11.002   5.805   1.992  0.8196  0.4717 -1.1256
69355SOL    HW225676  10.980   5.661   2.034  0.4869  1.1344  1.1591
69356SOL     OW25677   7.448  12.075   8.357  0.4370  0.3433  0.2811
69356SOL    HW125678   7.391  12.028   8.296 -0.6547  0.8236  0.8916
69356SOL    HW225679   7.518  12.013   8.378  1.1550  0.3730 -1.8682
69357SOL     OW25680   9.244   7.717   4.997 -0.3601  0.1659  0.5498
69357SOL    HW125681   9.310   7.724   4.928  0.1488 -1.0690  0.8812
69357SOL    HW225682   9.273   7.781   5.063  2.1800 -2.2168  1.9682
69358SOL     OW25683   0.875  12.213   6.488  0.5871 -0.1318 -0.0148
69358SOL    HW125684   0.786  12.193   6.518  0.5484  1.2409  0.9020
69358SOL    HW225685   0.871  12.202   6.393  0.0014 -2.0703  0.1888
69359SOL     OW25686   1.251   4.217   9.749 -0.1105 -0.0603  0.0022
69359SOL    HW125687   1.214   4.304   9.735 -0.2314  0.0338  0.8756
69359SOL    HW225688   1.177   4.164   9.780  0.3372 -0.0060  1.2352
69360SOL     OW25689   8.189   0.545   0.954  0.4777  0.2698  0.0602
69360SOL    HW125690   8.105   0.584   0.931  0.5472  0.4043  0.0365
69360SOL    HW225691   8.168   0.456   0.982  0.1627  0.7656  1.4496
69361SOL     OW25692   4.039   1.636   5.086 -0.4368  0.1059  0.4348
69361SOL    HW125693   4.018   1.670   4.999 -1.2369 -0.2624  0.4729
69361SOL    HW225694   4.095   1.560   5.069 -0.5318  0.0772  0.2406
69362SOL     OW25695  10.888   4.370  10.007  0.1193 -0.0994  0.5235
69362SOL    HW125696  10.842   4.426   9.943 -0.0668 -0.4238  0.3731
69362SOL    HW225697  10.820   4.312  10.042  0.3739 -0.4495  0.4431
69363SOL     OW25698   6.738   0.686   7.624 -0.4453  0.2058  0.1906
69363SOL    HW125699   6.726   0.611   7.565 -1.6358  1.3701 -1.0936
69363SOL    HW225700   6.653   0.727   7.628  0.0210  1.0843  1.4849
69364SOL     OW25701  11.043   8.933   2.908 -0.0060  1.0265  0.5794
69364SOL    HW125702  11.092   9.008   2.941 -0.8012  1.9051 -0.2072
69364SOL    HW225703  10.961   8.969   2.876  0.4835  0.1938 -1.8862
69365SOL     OW25704  13.658   8.856   4.921 -0.0673  0.0861  0.3097
69365SOL    HW125705  13.598   8.786   4.944  0.2752 -0.5683 -0.7090
69365SOL    HW225706  13.720   8.860   4.994 -0.5188 -0.1812  0.7090
69366SOL     OW25707   5.789   6.344  11.939 -0.0410 -0.1117 -0.0129
69366SOL    HW125708   5.783   6.427  11.985  0.8124 -0.6409  1.1231
69366SOL    HW225709   5.791   6.278  12.009  0.0502 -1.0351 -0.8552
69367SOL     OW25710  12.151   4.056   6.351 -0.3809  0.0860 -0.1859
69367SOL    HW125711  12.066   4.035   6.311  0.6893 -1.2345 -1.9156
69367SOL    HW225712  12.152   4.152   6.355 -1.1178  0.2348 -2.1703
69368SOL     OW25713   5.337   9.883   9.172  0.7837 -0.4103  0.3603
69368SOL    HW125714   5.294   9.806   9.134  0.3250 -0.3498  0.7656
69368SOL    HW225715   5.269   9.950   9.175  1.7053  0.7967 -2.1443
69369SOL     OW25716  13.633   9.722   5.396 -0.3364  0.0723 -0.0353
69369SOL    HW125717  13.620   9.816   5.380  0.1253 -0.2173 -2.4989
69369SOL    HW225718  13.666   9.718   5.486 -2.3303  2.0628  0.8916
69370SOL     OW25719   7.508   3.029  13.053  0.0501 -0.2812 -0.8238
69370SOL    HW125720   7.593   3.047  13.094  0.5590 -0.4276 -1.7809
69370SOL    HW225721   7.452   3.000  13.125 -0.2304  3.0873  0.4821
69371SOL     OW25722   8.261   1.972   9.930  0.1618 -0.3676 -0.0003
69371SOL    HW125723   8.197   1.900   9.933  1.8474 -2.0521 -1.7705
69371SOL    HW225724   8.283   1.988  10.022 -0.2633 -2.1577  0.4500
69372SOL     OW25725   7.513  14.087  10.351 -0.0444  0.4880  0.1869
69372SOL    HW125726   7.568  14.015  10.319  1.2016  2.6431 -2.9650
69372SOL    HW225727   7.432  14.079  10.301 -0.2858  0.7279  0.5356
69373SOL     OW25728   7.366   5.021  13.805 -1.0335 -0.3909  0.3097
69373SOL    HW125729   7.369   5.036  13.710 -0.8436 -1.7015  0.1005
69373SOL    HW225730   7.322   5.099  13.839  1.5633  1.5804 -0.4909
69374SOL     OW25731   0.255   7.002   1.037  0.3657 -0.4524 -0.2472
69374SOL    HW125732   0.298   6.988   0.952 -0.4830 -0.2798 -0.7198
69374SOL    HW225733   0.311   6.957   1.100 -0.8063 -3.7250 -1.3330
69375SOL     OW25734   8.246   0.761   7.672 -0.5188 -0.1999  0.2892
69375SOL    HW125735   8.184   0.830   7.697  0.9944  0.9881  0.8451
69375SOL    HW225736   8.259   0.773   7.578 -1.6169 -0.9021  0.0177
69376SOL     OW25737   6.748  14.044   4.482  0.0420 -0.2136 -0.4570
69376SOL    HW125738   6.743  14.139   4.498 -0.2462 -0.6765  3.0556
69376SOL    HW225739   6.661  14.012   4.502  0.7353 -1.4346  0.8181
69377SOL     OW25740   0.984   3.901  12.251  0.2331  0.4165  0.4156
69377SOL    HW125741   1.047   3.890  12.322  1.8340 -1.3679 -1.1734
69377SOL    HW225742   0.931   3.821  12.254 -0.6217  0.9805  0.4702
69378SOL     OW25743  12.158  10.374   4.961  0.1017  0.5214  0.2149
69378SOL    HW125744  12.205  10.305   5.008  0.8744  0.9333  0.0605
69378SOL    HW225745  12.066  10.360   4.984 -0.0948 -2.1041 -1.8012
69379SOL     OW25746   1.775   0.555   1.212  0.3125  0.1906 -0.1714
69379SOL    HW125747   1.795   0.620   1.144 -1.4899  1.8134  0.7508
69379SOL    HW225748   1.684   0.574   1.237  0.1329 -1.9484  0.9834
69380SOL     OW25749  11.922  12.873   5.845 -0.0046 -0.4722  0.1953
69380SOL    HW125750  11.873  12.876   5.927 -0.9641 -0.6048 -0.3525
69380SOL    HW225751  11.875  12.933   5.787  0.6994 -0.3295 -0.2352
69381SOL     OW25752   8.471   1.894   4.363  0.2290 -0.0358  0.3601
69381SOL    HW125753   8.413   1.864   4.294  0.7235  0.3373 -0.2287
69381SOL    HW225754   8.434   1.977   4.392 -1.0787 -1.0948  1.9134
69382SOL     OW25755   3.219  13.235   4.926 -0.9003 -0.1335 -0.4065
69382SOL    HW125756   3.192  13.257   4.837 -0.5595 -0.9275 -0.7157
69382SOL    HW225757   3.204  13.141   4.933  0.3117 -0.3177 -0.0663
69383SOL     OW25758  14.057   8.048   1.414 -0.4414 -0.3814  0.5519
69383SOL    HW125759  14.019   8.090   1.491 -1.6310 -0.0704 -0.1732
69383SOL    HW225760  13.982   8.028   1.358  0.3573 -0.9955 -0.3403
69384SOL     OW25761  11.668  10.361   6.444 -0.2028  0.1908 -0.3357
69384SOL    HW125762  11.662  10.442   6.394  0.7461 -0.4940 -1.6266
69384SOL    HW225763  11.760  10.338   6.441  0.0042  0.4422  2.3378
69385SOL     OW25764   3.621   9.682   5.199 -0.2477 -0.0521  0.6307
69385SOL    HW125765   3.678   9.746   5.157 -0.4503 -1.3299 -1.7430
69385SOL    HW225766   3.538   9.729   5.212  0.1095  0.6439  0.4457
69386SOL     OW25767  12.284   2.444   9.422 -0.3929  0.4397  0.5001
69386SOL    HW125768  12.262   2.391   9.498  0.0390  0.7016  0.8111
69386SOL    HW225769  12.211   2.506   9.413 -1.6426 -1.0968 -0.7308
69387SOL     OW25770   7.232  11.381  11.682  0.5135  0.6535  1.2349
69387SOL    HW125771   7.161  11.316  11.681 -1.0699  2.2724 -0.8875
69387SOL    HW225772   7.268  11.376  11.771 -0.6190 -1.9349  1.6435
69388SOL     OW25773   1.023  13.544   0.449 -0.1077  0.3240  0.3039
69388SOL    HW125774   0.962  13.546   0.523  1.8634 -1.6436  2.1577
69388SOL    HW225775   1.088  13.478   0.474  1.0143  0.0309 -2.9650
69389SOL     OW25776   4.371  10.777  13.426 -0.5714 -0.1143  0.4460
69389SOL    HW125777   4.279  10.802  13.428 -0.6155 -0.1305 -0.6882
69389SOL    HW225778   4.389  10.744  13.514 -1.6857 -0.2487  0.6408
69390SOL     OW25779  13.942   7.243   8.380  0.5872  0.2180  0.1481
69390SOL    HW125780  13.981   7.307   8.440  0.1072 -1.4053  2.3395
69390SOL    HW225781  13.892   7.185   8.437 -0.6265 -0.9370 -1.9756
69391SOL     OW25782   3.671   8.001   6.729 -0.0540 -0.0441 -0.4739
69391SOL    HW125783   3.652   8.072   6.668 -2.1723  0.7017  0.9340
69391SOL    HW225784   3.656   8.038   6.816  2.8651 -1.0723  0.5953
69392SOL     OW25785  10.937   0.703  12.942 -0.4309  0.3727  0.2847
69392SOL    HW125786  10.970   0.624  12.984  2.2942  0.7750 -0.9145
69392SOL    HW225787  10.955   0.773  13.005 -0.0493  0.4220  0.1265
69393SOL     OW25788   6.133   0.873   7.067 -0.9846  0.0448  0.2179
69393SOL    HW125789   6.190   0.943   7.097  1.5946 -1.2995 -1.2192
69393SOL    HW225790   6.100   0.832   7.147  1.1851  0.0564  1.1801
69394SOL     OW25791  10.113   6.016   6.716  0.2410 -0.3026 -0.9110
69394SOL    HW125792  10.019   6.025   6.707  0.1340 -0.9523 -0.5329
69394SOL    HW225793  10.150   6.076   6.651 -0.4317 -0.2829 -1.2768
69395SOL     OW25794   4.835   9.778   5.882 -0.3983 -0.0769 -0.3715
69395SOL    HW125795   4.862   9.861   5.844 -1.2090  0.2117 -0.3429
69395SOL    HW225796   4.818   9.797   5.974  1.4826 -0.7599  0.1503
69396SOL     OW25797  12.735  13.888  11.634 -0.1331 -0.4948 -0.3925
69396SOL    HW125798  12.824  13.902  11.602 -0.5563 -0.8967 -1.8069
69396SOL    HW225799  12.698  13.975  11.645  0.6334 -0.3020  0.8519
69397SOL     OW25800   1.555   9.412  12.970 -0.1169 -0.0640  0.6733
69397SOL    HW125801   1.534   9.339  13.029 -0.8721 -0.2947  0.1430
69397SOL    HW225802   1.649   9.407  12.956 -0.4098 -2.2635 -1.0306
69398SOL     OW25803  11.206  10.339   8.030 -0.0977  0.1277  0.3165
69398SOL    HW125804  11.240  10.312   7.945  0.5320 -0.2142  0.6692
69398SOL    HW225805  11.112  10.326   8.024 -0.2535  1.5184 -0.8461
69399SOL     OW25806  10.250   4.617   3.460 -0.1858 -0.1420  0.2600
69399SOL    HW125807  10.234   4.537   3.511  0.8463  0.3541  1.4124
69399SOL    HW225808  10.305   4.671   3.517 -0.6671  1.3013 -0.5903
69400SOL     OW25809   6.240  10.433   2.753  0.3993  0.0909 -0.1370
69400SOL    HW125810   6.189  10.471   2.825 -1.6431 -3.0271  0.2970
69400SOL    HW225811   6.186  10.446   2.675  1.5195  1.4165 -0.7265
69401SOL     OW25812  11.603   2.937   0.172  0.3748  0.8066  0.2111
69401SOL    HW125813  11.623   2.861   0.118 -2.0828  0.4543 -0.2922
69401SOL    HW225814  11.619   3.012   0.114  2.4489  0.7389  0.5995
69402SOL     OW25815  10.075   9.248   1.086  0.2194 -0.4925  0.1692
69402SOL    HW125816  10.111   9.206   1.164  0.9929 -1.7447 -0.8241
69402SOL    HW225817  10.047   9.176   1.030  0.6034  0.3245 -1.1317
69403SOL     OW25818   3.414   2.186   0.865  0.2722  0.1996  0.1936
69403SOL    HW125819   3.345   2.207   0.928 -0.3859 -0.1876 -0.3836
69403SOL    HW225820   3.493   2.176   0.918 -0.0760  0.8315  0.8417
69404SOL     OW25821   2.574   5.702  10.505 -0.3280 -0.0940 -0.0949
69404SOL    HW125822   2.662   5.718  10.539 -0.0354 -2.2501  0.3096
69404SOL    HW225823   2.528   5.660  10.577 -1.2312 -0.3685 -0.8126
69405SOL     OW25824   1.446   1.133  12.313  0.6595 -0.1456  0.8892
69405SOL    HW125825   1.468   1.219  12.278  0.2800 -0.3067  0.2423
69405SOL    HW225826   1.522   1.079  12.293  0.4468 -0.2363  0.2934
69406SOL     OW25827   9.645  12.831   1.707  1.0007 -0.3255  0.4924
69406SOL    HW125828   9.730  12.788   1.717  1.0558 -0.4017 -0.2330
69406SOL    HW225829   9.635  12.843   1.613 -0.0262 -0.8047  0.5167
69407SOL     OW25830  12.154  11.417   8.450 -0.1721  0.6536 -0.1707
69407SOL    HW125831  12.074  11.369   8.427  0.4787  0.2666 -1.7384
69407SOL    HW225832  12.189  11.447   8.367  1.1432  1.1163  0.5211
69408SOL     OW25833   0.590   1.129  13.174 -0.1722 -0.7001  0.1863
69408SOL    HW125834   0.520   1.065  13.185  1.5885 -2.5662  1.1096
69408SOL    HW225835   0.664   1.078  13.142  0.6976  1.2758 -1.1049
69409SOL     OW25836   2.820   0.087   8.718 -0.0804 -0.3340 -0.3712
69409SOL    HW125837   2.818   0.017   8.783  0.2259 -0.6712 -0.7233
69409SOL    HW225838   2.913   0.100   8.700 -0.2106 -1.7956 -2.3913
69410SOL     OW25839  13.276   2.811   4.895 -0.3053 -0.1953 -0.0172
69410SOL    HW125840  13.196   2.763   4.875 -0.5166  0.0279  0.2901
69410SOL    HW225841  13.259   2.900   4.865  0.8296 -0.7194 -2.5037
69411SOL     OW25842   2.087   9.479  12.075 -0.0434  0.3092 -0.3585
69411SOL    HW125843   2.070   9.543  12.144 -1.4769 -0.2503 -0.1512
69411SOL    HW225844   2.075   9.529  11.994 -0.5476  0.4639 -0.1967
69412SOL     OW25845   3.446   7.662   7.215 -0.0611 -0.3981 -0.0442
69412SOL    HW125846   3.461   7.688   7.306  1.0645  0.3314 -0.4190
69412SOL    HW225847   3.448   7.566   7.217 -3.7211 -0.6082  1.2614
69413SOL     OW25848  12.040   8.147  11.765  0.1587 -0.8346 -0.4903
69413SOL    HW125849  12.064   8.240  11.761 -0.5062 -0.5394  1.2147
69413SOL    HW225850  12.122   8.102  11.783  0.2465 -0.3665  0.3622
69414SOL     OW25851   7.323  13.565   2.829  0.5436 -0.2033 -0.3113
69414SOL    HW125852   7.320  13.591   2.737  1.1173 -3.0861 -1.2624
69414SOL    HW225853   7.253  13.500   2.837  0.3141  0.2232  1.3832
69415SOL     OW25854   5.015   7.041  10.796  0.0947  0.1778 -0.2451
69415SOL    HW125855   4.940   7.016  10.743 -0.4301 -1.5893  1.2386
69415SOL    HW225856   4.987   7.121  10.842  0.0894  0.9748 -1.5924
69416SOL     OW25857   9.947   0.063  11.003  0.1991  0.5224  0.4801
69416SOL    HW125858  10.015   0.012  10.960  0.4611 -0.3788  1.9304
69416SOL    HW225859   9.982   0.084  11.089 -0.6944  1.4810  0.6396
69417SOL     OW25860   3.364  11.134   8.063  0.0264 -0.9573  0.4049
69417SOL    HW125861   3.346  11.211   8.116 -0.5828 -0.9211  0.1501
69417SOL    HW225862   3.344  11.059   8.120 -0.6535 -0.9191  0.2260
69418SOL     OW25863  10.342   1.581   3.673 -0.0450 -0.2356  0.1261
69418SOL    HW125864  10.340   1.677   3.667 -0.2949 -0.2694 -0.3729
69418SOL    HW225865  10.431   1.557   3.650 -0.3690 -0.2095 -1.2467
69419SOL     OW25866   4.475  12.569  11.727  0.4237 -0.3567 -0.0177
69419SOL    HW125867   4.502  12.506  11.794  0.7230 -0.4475 -0.2214
69419SOL    HW225868   4.450  12.647  11.777  1.9408  0.0589  0.1448
69420SOL     OW25869  11.817   8.458   1.287 -0.5989  0.4304 -0.7633
69420SOL    HW125870  11.833   8.525   1.354 -0.0824 -1.3358  0.9946
69420SOL    HW225871  11.904   8.433   1.257 -0.4135 -2.2011  1.5686
69421SOL     OW25872  11.513  10.633  10.745 -0.1001 -0.8567  0.3558
69421SOL    HW125873  11.558  10.700  10.694 -2.0187  0.1903 -0.0762
69421SOL    HW225874  11.466  10.682  10.813  0.7294 -2.0426  1.8504
69422SOL     OW25875   9.076   1.110   5.359  0.2916  0.1609  0.4920
69422SOL    HW125876   9.026   1.046   5.308  0.1187  0.7036 -0.0262
69422SOL    HW225877   9.012   1.147   5.419 -0.0506  1.1519 -0.4494
69423SOL     OW25878  12.301   5.460   6.008  0.2451 -0.0255  0.1005
69423SOL    HW125879  12.362   5.527   6.037  0.5652  0.2407 -1.1273
69423SOL    HW225880  12.237   5.453   6.079  0.0517  1.7562  0.1501
69424SOL     OW25881   4.368   2.766  13.306 -0.1114 -0.5583 -0.7656
69424SOL    HW125882   4.444   2.708  13.312  1.4712  1.4372 -0.3617
69424SOL    HW225883   4.311   2.739  13.378  1.1366 -0.8958  0.1387
69425SOL     OW25884   4.490  13.158   3.712  0.2720 -0.2204 -0.2937
69425SOL    HW125885   4.528  13.164   3.624 -1.2138  0.7540 -0.9221
69425SOL    HW225886   4.542  13.218   3.765 -1.0935  2.1522 -1.4518
69426SOL     OW25887  13.864  12.960   8.235 -0.1819  0.3397  0.2274
69426SOL    HW125888  13.779  12.915   8.236  0.0207 -0.1816 -1.6785
69426SOL    HW225889  13.904  12.938   8.319 -1.5367 -0.1877  0.7588
69427SOL     OW25890   7.442   9.002   1.858  0.8572 -0.4138  1.0307
69427SOL    HW125891   7.391   8.930   1.820  0.0029  0.7681 -0.1269
69427SOL    HW225892   7.498   8.959   1.922  0.4648 -2.1399  0.2865
69428SOL     OW25893   1.221  14.012   4.263 -0.0096 -0.3627  0.2635
69428SOL    HW125894   1.288  14.080   4.260  0.1484 -0.4678  1.0317
69428SOL    HW225895   1.270  13.930   4.254 -0.2846 -0.3591 -1.5126
69429SOL     OW25896  12.491   0.217   6.302  0.6641 -0.1723 -0.1280
69429SOL    HW125897  12.446   0.133   6.293 -0.9470  0.5081  1.0225
69429SOL    HW225898  12.543   0.225   6.222  0.9218 -2.2769 -0.2267
69430SOL     OW25899   6.012   0.279   1.930 -0.2516 -0.2723 -0.2757
69430SOL    HW125900   5.945   0.336   1.968  1.1454  0.3672  1.3302
69430SOL    HW225901   5.964   0.200   1.905 -1.7071  0.3999  0.2558
69431SOL     OW25902   6.887   9.347   2.119 -0.4336  0.0779  0.1620
69431SOL    HW125903   6.856   9.340   2.029 -0.6463  1.9467  0.0614
69431SOL    HW225904   6.812   9.324   2.173 -0.3147 -1.0167 -0.1174
69432SOL     OW25905   8.514   9.551   1.344  0.1263  0.3222 -0.0881
69432SOL    HW125906   8.466   9.594   1.415 -0.1260  0.2082 -0.1864
69432SOL    HW225907   8.496   9.457   1.358  0.5874  0.2547  0.0671
69433SOL     OW25908  10.578   3.436   1.642  0.0536 -0.2045  0.3248
69433SOL    HW125909  10.618   3.415   1.557 -0.9314  1.0433 -0.4939
69433SOL    HW225910  10.536   3.354   1.670  2.0158 -1.1706  0.5832
69434SOL     OW25911  10.043   3.499  10.192  0.4005 -0.3451 -0.1999
69434SOL    HW125912  10.084   3.477  10.276 -0.0502 -0.8541 -0.1073
69434SOL    HW225913   9.956   3.460  10.196  0.4605 -0.5919 -1.0026
69435SOL     OW25914  11.010   2.119  11.994  0.0962 -0.0202 -0.4280
69435SOL    HW125915  11.029   2.212  12.001 -1.4301  0.4035 -1.4938
69435SOL    HW225916  11.014   2.100  11.900 -2.1191 -0.4244 -0.5005
69436SOL     OW25917   1.096   6.752   1.327 -0.7177  0.1566  0.1925
69436SOL    HW125918   1.144   6.787   1.402  3.7347 -0.7641 -1.8947
69436SOL    HW225919   1.083   6.828   1.270  0.8534  0.0346 -0.3905
69437SOL     OW25920  13.026   4.581  11.186  0.5893 -0.4611  0.4607
69437SOL    HW125921  13.113   4.605  11.219  0.0971  3.0491 -0.4272
69437SOL    HW225922  12.967   4.598  11.260  0.4308 -1.1442  0.5008
69438SOL     OW25923  13.720   8.264   0.360  0.4641  0.2706  0.0742
69438SOL    HW125924  13.726   8.352   0.323  0.1676  0.0318 -0.5670
69438SOL    HW225925  13.632   8.260   0.397  0.1859 -0.0102 -0.5961
69439SOL     OW25926   1.058   0.829   3.780  0.3233  0.1416 -0.0418
69439SOL    HW125927   0.989   0.889   3.806 -1.0768 -0.8325 -1.3056
69439SOL    HW225928   1.061   0.763   3.849  0.4006  0.4987  0.2978
69440SOL     OW25929   2.552  12.195   8.565 -0.0779  0.1356  0.5146
69440SOL    HW125930   2.574  12.273   8.617 -1.8717  1.5336 -0.6878
69440SOL    HW225931   2.625  12.186   8.504  0.0446  1.0353  0.5155
69441SOL     OW25932  12.378  10.290  11.844 -0.1301  0.1460  0.4007
69441SOL    HW125933  12.469  10.315  11.827  0.6471 -3.1856 -1.0703
69441SOL    HW225934  12.328  10.340  11.779  1.1517 -0.8898 -1.4915
69442SOL     OW25935   8.564   2.012   1.497  0.3243 -0.0104  0.2835
69442SOL    HW125936   8.583   2.105   1.514 -0.1014  0.5459 -1.9866
69442SOL    HW225937   8.489   2.014   1.438  0.2304 -1.8251  0.3102
69443SOL     OW25938  10.575   4.518   0.806 -0.2084  0.0948  0.0743
69443SOL    HW125939  10.598   4.485   0.893  1.6334 -1.0127 -0.7597
69443SOL    HW225940  10.506   4.460   0.775  0.9077 -1.1482 -0.1724
69444SOL     OW25941   3.142   1.786   1.388  0.0657 -0.0443  0.5012
69444SOL    HW125942   3.057   1.749   1.364  0.2632 -1.4219  1.8318
69444SOL    HW225943   3.173   1.826   1.307 -0.8875 -1.3898 -0.5867
69445SOL     OW25944  13.574   4.935   3.186  0.3835  0.0640 -0.1613
69445SOL    HW125945  13.631   5.002   3.147 -1.3164  1.0150 -1.1904
69445SOL    HW225946  13.584   4.947   3.280  1.7148  0.3197 -0.3098
69446SOL     OW25947  12.855  12.135   3.782  0.1550  0.3487 -0.3192
69446SOL    HW125948  12.809  12.094   3.855 -1.2703  1.1772 -0.7019
69446SOL    HW225949  12.791  12.135   3.711  0.9758  0.9662 -1.0719
69447SOL     OW25950   9.754  10.567  11.902  0.0435 -0.4106 -0.2307
69447SOL    HW125951   9.821  10.624  11.940 -0.5553 -0.6563  1.2425
69447SOL    HW225952   9.678  10.624  11.889 -0.2203 -0.6464  0.2750
69448SOL     OW25953   1.690   5.384   3.542 -0.0772  0.0466  0.4242
69448SOL    HW125954   1.697   5.315   3.607  2.1436 -0.3167 -0.1052
69448SOL    HW225955   1.604   5.372   3.502  0.5606 -3.0092 -0.2712
69449SOL     OW25956   6.609   8.983   7.572 -0.3766  0.4668  0.1086
69449SOL    HW125957   6.516   9.005   7.562 -0.0379  1.2219 -1.9927
69449SOL    HW225958   6.655   9.063   7.547  0.8312 -0.3691 -0.4441
69450SOL     OW25959   9.901   0.343   7.937  0.0755  0.2968  0.5144
69450SOL    HW125960   9.827   0.338   7.997 -0.5580 -1.4373 -0.3138
69450SOL    HW225961   9.901   0.258   7.892  3.6912 -0.5581  1.7705
69451SOL     OW25962   2.159   4.010   5.589 -0.2835  0.1390 -0.1300
69451SOL    HW125963   2.064   4.016   5.581 -0.4631 -0.4838  1.2667
69451SOL    HW225964   2.183   4.081   5.649  0.2428  0.7897 -1.0822
69452SOL     OW25965   2.563   2.679   9.812 -0.1148  0.4016  0.0997
69452SOL    HW125966   2.612   2.625   9.750 -0.1784 -0.1391  0.5096
69452SOL    HW225967   2.497   2.724   9.759 -0.4692 -0.4059 -0.1573
69453SOL     OW25968   3.305  10.936  13.198  0.5567  0.3370 -0.5406
69453SOL    HW125969   3.306  10.841  13.188  0.4533  0.3957 -1.1214
69453SOL    HW225970   3.236  10.952  13.263  0.7840 -0.0042 -0.2136
69454SOL     OW25971   5.239   8.054   9.088  0.4519  0.2923 -0.2783
69454SOL    HW125972   5.241   8.086   8.997  1.3801  0.7543 -0.1071
69454SOL    HW225973   5.149   8.070   9.117 -0.0585 -0.5324 -1.3470
69455SOL     OW25974   7.433   2.426   6.413 -0.4487  0.0308  0.6246
69455SOL    HW125975   7.465   2.367   6.344 -1.2263  1.3232 -0.9059
69455SOL    HW225976   7.468   2.512   6.389 -1.8903  0.7629  1.0324
69456SOL     OW25977   3.885   8.947   9.589 -0.0951 -0.4324 -0.0766
69456SOL    HW125978   3.924   9.016   9.642 -0.1489 -0.9871  0.6974
69456SOL    HW225979   3.929   8.955   9.504 -2.0091  2.2949 -0.9474
69457SOL     OW25980  11.012   2.289  10.539  0.3863 -0.8896  0.1318
69457SOL    HW125981  11.050   2.265  10.455  0.4064 -0.9436  0.1570
69457SOL    HW225982  11.086   2.292  10.599  0.9320  2.2739 -0.5080
69458SOL     OW25983   6.302   2.526  11.171 -0.0968 -0.4364 -0.5055
69458SOL    HW125984   6.385   2.552  11.131  1.0497 -2.6097  0.2752
69458SOL    HW225985   6.241   2.519  11.098  0.2007  1.7174 -1.0302
69459SOL     OW25986  13.293   3.459  13.721 -0.1553 -0.3798 -0.1955
69459SOL    HW125987  13.360   3.525  13.739  0.8788 -1.8761  1.8058
69459SOL    HW225988  13.214   3.493  13.763  0.3106 -0.2679  0.6155
69460SOL     OW25989  10.672   0.200   9.146  0.1475  0.3311  0.1509
69460SOL    HW125990  10.624   0.130   9.101 -0.5021 -0.8658  2.5476
69460SOL    HW225991  10.763   0.171   9.146  0.1032  0.1875 -0.0823
69461SOL     OW25992   2.105  11.215   2.363 -0.0006 -0.2283 -0.7103
69461SOL    HW125993   2.108  11.305   2.330  1.2044 -0.2862 -0.7966
69461SOL    HW225994   2.130  11.223   2.455  1.1032 -0.5792 -0.9698
69462SOL     OW25995  10.140  12.107   1.843  0.4160  0.5249  0.0674
69462SOL    HW125996  10.198  12.163   1.894  1.8723 -0.7995 -0.0606
69462SOL    HW225997  10.107  12.043   1.906  0.6082  0.1289 -0.2309
69463SOL     OW25998   6.603   9.005   1.229 -0.1454 -0.3270 -0.1213
69463SOL    HW125999   6.639   8.984   1.315  0.1685 -1.0239 -0.4141
69463SOL    HW226000   6.540   9.075   1.245  0.7552  0.3627  0.5071
69464SOL     OW26001   0.110   3.404   1.226 -0.2013  0.4135 -0.0513
69464SOL    HW126002   0.129   3.375   1.136 -1.6654  1.4757 -0.7408
69464SOL    HW226003   0.070   3.490   1.216 -0.0266  0.7307  1.6656
69465SOL     OW26004   1.988   4.400   2.279  0.0894  0.5533  0.5668
69465SOL    HW126005   1.901   4.376   2.249  1.3347 -2.7983 -0.7939
69465SOL    HW226006   2.034   4.428   2.199  1.3247 -1.4753  0.5070
69466SOL     OW26007   5.286  10.687   1.460  0.1351  0.1784  0.2225
69466SOL    HW126008   5.346  10.613   1.473 -0.0648 -0.0293 -0.0333
69466SOL    HW226009   5.315  10.726   1.377 -1.1435 -0.9495 -0.8035
69467SOL     OW26010   2.038   6.956   8.015  0.3603  0.2329  0.4269
69467SOL    HW126011   1.985   7.022   8.059 -0.4451 -0.6776  0.8524
69467SOL    HW226012   2.101   6.927   8.081 -0.2348 -0.4508  0.7155
69468SOL     OW26013   3.516  12.196   4.591  0.3528  0.2479  0.4691
69468SOL    HW126014   3.610  12.215   4.587  0.4110 -0.2086 -0.8563
69468SOL    HW226015   3.508  12.109   4.552 -0.8656  1.2704 -1.7500
69469SOL     OW26016  13.311   7.959  13.265  0.0487 -0.1231 -0.3239
69469SOL    HW126017  13.317   7.882  13.321 -1.8828 -0.8820 -1.0580
69469SOL    HW226018  13.395   7.962  13.219  1.2436 -0.1116  1.7318
69470SOL     OW26019   1.771   0.859   4.307 -0.4188 -0.0109 -0.1695
69470SOL    HW126020   1.736   0.931   4.358 -0.2605  0.2821 -0.4668
69470SOL    HW226021   1.699   0.797   4.300 -0.4104 -0.1016  0.4862
69471SOL     OW26022   2.177   5.544   9.106 -0.2704  0.7067  0.3853
69471SOL    HW126023   2.190   5.460   9.151 -0.4880  0.3309 -0.2390
69471SOL    HW226024   2.091   5.574   9.135 -0.8081  0.0282 -0.4446
69472SOL     OW26025  11.652   6.411   0.638 -0.3382  0.0148 -0.9041
69472SOL    HW126026  11.736   6.406   0.593 -0.0920 -1.6718 -0.3076
69472SOL    HW226027  11.666   6.478   0.706 -0.1322  1.1871 -2.0629
69473SOL     OW26028   9.685   4.238   1.799 -0.4944 -0.2855 -0.0465
69473SOL    HW126029   9.746   4.217   1.870  0.8047 -1.2245 -1.3862
69473SOL    HW226030   9.599   4.239   1.842  0.4107  1.1086  1.9106
69474SOL     OW26031   9.951   9.577  12.667 -0.1094  0.2168  0.6415
69474SOL    HW126032   9.931   9.505  12.608 -0.6331 -1.2442  2.4987
69474SOL    HW226033   9.869   9.625  12.676 -0.5275 -0.6197  1.5117
69475SOL     OW26034  10.418   3.090   7.235  0.1744 -0.2902  0.6352
69475SOL    HW126035  10.388   3.015   7.185  0.9458  0.0196 -0.3059
69475SOL    HW226036  10.495   3.123   7.188 -0.1556  1.1038  1.0105
69476SOL     OW26037  13.085   6.321   5.774 -0.4666 -0.8428 -0.0615
69476SOL    HW126038  13.052   6.249   5.826 -3.2393  0.3638 -0.0021
69476SOL    HW226039  13.030   6.323   5.696  0.7872  0.0560 -0.9880
69477SOL     OW26040  12.306  10.134   2.450  0.1342 -0.0385  0.0173
69477SOL    HW126041  12.233  10.100   2.399  0.7802  0.8323 -1.5610
69477SOL    HW226042  12.359  10.057   2.470 -1.1470 -0.6611  1.1110
69478SOL     OW26043   2.530  11.181  11.234 -0.5706  0.4157  0.4164
69478SOL    HW126044   2.591  11.139  11.294 -0.2053  0.4773  0.0981
69478SOL    HW226045   2.551  11.274  11.240  0.1261  0.3328 -0.5104
69479SOL     OW26046   9.517  13.531   4.635  0.0204 -0.0499  0.4130
69479SOL    HW126047   9.548  13.522   4.725 -2.1862  0.1128  1.2607
69479SOL    HW226048   9.468  13.613   4.634  1.5446  0.9117 -1.4685
69480SOL     OW26049   9.244   0.269  13.375  0.4512  0.1166  0.2699
69480SOL    HW126050   9.278   0.354  13.347 -0.8241  0.4982 -0.2299
69480SOL    HW226051   9.237   0.277  13.470 -1.2132  1.2337  0.1034
69481SOL     OW26052  13.380   8.079   4.451 -0.5169 -0.0442 -0.0975
69481SOL    HW126053  13.427   7.996   4.451 -1.1000 -0.4358  2.2317
69481SOL    HW226054  13.289   8.056   4.433 -1.2583 -0.4176  3.4148
69482SOL     OW26055   8.152   8.889   1.296 -0.4738  0.1209  0.3232
69482SOL    HW126056   8.120   8.964   1.247  1.8696  1.0721  0.1470
69482SOL    HW226057   8.206   8.927   1.366  1.2692 -1.3798 -0.1402
69483SOL     OW26058  13.003   6.859   4.321  0.4069  0.1233 -0.2196
69483SOL    HW126059  13.083   6.911   4.315  2.0379 -2.3171 -1.2703
69483SOL    HW226060  12.970   6.856   4.231 -0.8440  0.9546  0.1735
69484SOL     OW26061   6.834  10.694   3.053 -0.0609  0.6987 -0.0185
69484SOL    HW126062   6.858  10.606   3.081 -0.7191  0.3606 -0.4752
69484SOL    HW226063   6.910  10.748   3.074  0.8205 -0.1973 -0.7987
69485SOL     OW26064   4.473   6.488   8.689 -0.1321  0.5354  0.0156
69485SOL    HW126065   4.560   6.449   8.699 -0.9424 -1.1033  1.1125
69485SOL    HW226066   4.425   6.426   8.634 -0.3397  1.9328 -1.4492
69486SOL     OW26067   0.039  13.702   7.199 -0.2711  0.0504  1.1402
69486SOL    HW126068  -0.050  13.737   7.206 -0.0057  0.8802  0.5318
69486SOL    HW226069   0.088  13.748   7.268 -0.5635 -1.2938  2.2895
69487SOL     OW26070   7.565  11.335   2.836  0.2785  0.4000  0.6124
69487SOL    HW126071   7.646  11.289   2.858  1.0544  2.1679  1.6499
69487SOL    HW226072   7.583  11.378   2.752  0.1013  0.0852  0.4113
69488SOL     OW26073  10.533   4.854  11.786 -0.2573  0.0504  0.3853
69488SOL    HW126074  10.608   4.868  11.845 -0.0640  2.0746 -0.2831
69488SOL    HW226075  10.573   4.840  11.700 -0.6225  0.3216  0.1712
69489SOL     OW26076   4.341   9.554  13.039 -0.2242  0.0981  0.0083
69489SOL    HW126077   4.306   9.600  12.963  0.1299  0.3785  0.0101
69489SOL    HW226078   4.429   9.592  13.052 -0.4864  0.4497  0.8778
69490SOL     OW26079   0.208   9.780   7.478 -0.6963  0.5618 -0.1280
69490SOL    HW126080   0.136   9.842   7.478  0.1022  1.5186 -0.9615
69490SOL    HW226081   0.281   9.827   7.439  0.1127 -0.6992 -0.2096
69491SOL     OW26082   9.330   7.360   2.247  0.2335  0.0039  0.4542
69491SOL    HW126083   9.365   7.300   2.182 -1.6460 -0.3307 -0.2974
69491SOL    HW226084   9.237   7.338   2.253 -0.4317  2.5088  0.4822
69492SOL     OW26085   8.618   8.129  13.988  0.4626 -0.1992 -0.6070
69492SOL    HW126086   8.651   8.197  13.929 -1.6713  1.8084  0.3630
69492SOL    HW226087   8.694   8.106  14.042  0.8818  2.8609  0.3226
69493SOL     OW26088  10.965  12.306   5.163 -0.1358  0.0595  0.3971
69493SOL    HW126089  10.898  12.261   5.111  0.9306 -1.7060  0.4651
69493SOL    HW226090  10.915  12.364   5.221 -1.4168  1.1244 -1.6662
69494SOL     OW26091   5.209  10.959  13.610 -0.0338  0.0140  0.1432
69494SOL    HW126092   5.163  10.916  13.538 -0.4644 -0.1427  0.5092
69494SOL    HW226093   5.261  10.889  13.650  0.2643  0.1173 -0.0646
69495SOL     OW26094   8.488   5.886   2.822  0.8597  0.1480  0.2489
69495SOL    HW126095   8.541   5.922   2.750  0.2311 -2.2559 -1.5529
69495SOL    HW226096   8.401   5.876   2.784  0.6423 -1.6998  1.1587
69496SOL     OW26097   3.649   8.617   9.538  0.5534  0.3888  0.2592
69496SOL    HW126098   3.604   8.544   9.496 -0.6798  0.6955  0.9806
69496SOL    HW226099   3.736   8.619   9.498  0.5034 -1.2740  0.0256
69497SOL     OW26100   7.746   6.877   9.752  0.3233  0.1212  0.1867
69497SOL    HW126101   7.817   6.930   9.787 -1.4163  2.2522  0.7019
69497SOL    HW226102   7.746   6.798   9.806  0.8022  1.1535  1.7551
69498SOL     OW26103   3.565   6.106   2.410  0.6124  0.1575  0.5620
69498SOL    HW126104   3.538   6.187   2.367 -1.8813  0.4857  2.5113
69498SOL    HW226105   3.653   6.089   2.376 -0.9589  0.4285 -4.4202
69499SOL     OW26106   3.938  12.119   4.605  0.3515 -0.5789 -0.1998
69499SOL    HW126107   3.966  12.095   4.694  0.9711  1.8829  0.3434
69499SOL    HW226108   3.975  12.050   4.549  3.9223  0.1892  0.9632
69500SOL     OW26109  10.499   7.877   5.170  0.0810 -0.2328  0.0263
69500SOL    HW126110  10.593   7.873   5.153  0.3748 -2.5584  1.8611
69500SOL    HW226111  10.491   7.885   5.265 -1.5819 -1.0262 -0.0097
69501SOL     OW26112   0.098   0.842   9.868  0.5877  0.1548  0.3466
69501SOL    HW126113   0.071   0.900   9.939  1.4873 -1.0525  1.7388
69501SOL    HW226114   0.025   0.843   9.806 -0.2586  1.1604  1.3332
69502SOL     OW26115   1.368  12.053   0.945 -0.3079 -0.6684  0.1278
69502SOL    HW126116   1.309  11.992   0.900 -1.7388  0.9565 -0.2994
69502SOL    HW226117   1.454  12.034   0.910 -0.9309 -1.5361 -0.9878
69503SOL     OW26118   9.184   1.920  10.541 -0.6059 -0.4733  0.8961
69503SOL    HW126119   9.121   1.853  10.515  0.3324 -1.0109 -0.0814
69503SOL    HW226120   9.201   1.902  10.633 -0.8980 -1.1589  0.8269
69504SOL     OW26121   6.784  12.478   0.749 -1.0850  0.0039  0.1939
69504SOL    HW126122   6.740  12.539   0.689  0.9431  0.0859 -1.3458
69504SOL    HW226123   6.849  12.532   0.794  0.3252 -0.8372 -0.7453
69505SOL     OW26124   5.343   1.564   0.972 -0.4850 -0.5267  0.1328
69505SOL    HW126125   5.259   1.559   1.018 -0.0758  2.5645  1.4202
69505SOL    HW226126   5.335   1.643   0.917  1.4893 -0.3156  0.1028
69506SOL     OW26127  10.166   9.963   9.262 -0.1769 -0.1913 -0.7586
69506SOL    HW126128  10.084  10.012   9.267  0.9558  1.8014 -0.7940
69506SOL    HW226129  10.185   9.959   9.168  0.7336  1.0920 -0.6467
69507SOL     OW26130  13.083   4.304   5.216 -0.2320  0.1674 -0.2238
69507SOL    HW126131  13.047   4.267   5.297  0.0351 -1.8597 -0.9839
69507SOL    HW226132  13.017   4.368   5.188  0.3609  2.0955  2.3490
69508SOL     OW26133   1.845   5.973   1.906 -0.1728  0.0721  0.1211
69508SOL    HW126134   1.909   6.043   1.893 -1.3343  1.1140 -0.2381
69508SOL    HW226135   1.766   6.018   1.936 -0.6997 -1.1956  0.7053
69509SOL     OW26136   5.447   3.874   3.012 -0.1334 -0.7032  0.4490
69509SOL    HW126137   5.540   3.859   2.991  0.5508  0.2369  2.5287
69509SOL    HW226138   5.441   3.969   3.026 -1.3531 -0.7855  0.5943
69510SOL     OW26139   7.319  10.049  12.391  0.1942  0.4810  0.7206
69510SOL    HW126140   7.371  10.127  12.406 -1.1745  1.0623  2.8209
69510SOL    HW226141   7.384   9.979  12.380  1.5399  2.0798 -3.4012
69511SOL     OW26142   9.109   3.409   3.304 -0.3536 -0.5315  0.0638
69511SOL    HW126143   9.034   3.436   3.250 -1.3669  1.2223  2.2303
69511SOL    HW226144   9.085   3.322   3.336 -0.6294 -0.7371 -0.6730
69512SOL     OW26145   2.230   1.854   6.534  0.1783  0.7322  0.3656
69512SOL    HW126146   2.271   1.927   6.487 -0.3824  0.5939 -0.3555
69512SOL    HW226147   2.293   1.782   6.527 -0.5445  0.2267 -1.5468
69513SOL     OW26148   5.787  10.909   9.963  0.0428  0.0343 -0.3098
69513SOL    HW126149   5.704  10.901  10.010  1.8131 -2.0429  2.7913
69513SOL    HW226150   5.776  10.852   9.886 -1.3319 -0.4287  0.1970
69514SOL     OW26151  13.339   9.883  11.331 -0.1941  0.5051  0.4105
69514SOL    HW126152  13.253   9.861  11.369 -0.6817 -0.2890 -1.0704
69514SOL    HW226153  13.393   9.906  11.407 -1.7080  1.0351  1.3812
69515SOL     OW26154   8.196   4.592   2.799 -0.6481  0.4423  0.1107
69515SOL    HW126155   8.194   4.541   2.718  0.7504  0.6273 -0.0619
69515SOL    HW226156   8.249   4.541   2.860 -1.7560  0.2666  0.9599
69516SOL     OW26157   1.999   0.760  10.096  0.2772  0.2228  0.4596
69516SOL    HW126158   1.995   0.827  10.165  0.7937 -0.0014  0.7198
69516SOL    HW226159   2.048   0.801  10.025  1.1576 -0.0851  0.8739
69517SOL     OW26160   6.731   9.548   2.912  0.2153 -0.6315  0.1160
69517SOL    HW126161   6.686   9.476   2.955  0.8085 -0.4698  1.0451
69517SOL    HW226162   6.689   9.556   2.826 -1.3199 -0.6470  0.8463
69518SOL     OW26163   9.872   0.781   8.521  0.4671  0.0355  0.0957
69518SOL    HW126164   9.820   0.701   8.513 -2.7135  1.9904 -1.0726
69518SOL    HW226165   9.926   0.768   8.599  0.2528 -3.2574 -0.1897
69519SOL     OW26166   0.239  10.472   9.015 -0.1670 -0.5382 -0.4242
69519SOL    HW126167   0.279  10.553   9.048 -1.4576  0.4698 -1.2061
69519SOL    HW226168   0.164  10.458   9.071 -0.0453 -1.1181 -0.3998
69520SOL     OW26169   4.692   4.412   5.149 -0.4786  0.0571 -0.0124
69520SOL    HW126170   4.727   4.423   5.238  0.5376 -0.2858 -0.3535
69520SOL    HW226171   4.655   4.324   5.150 -4.1544  1.4266  1.2409
69521SOL     OW26172  11.154   0.669   5.311  0.1419 -0.6587 -0.3690
69521SOL    HW126173  11.199   0.752   5.302 -2.1894  0.5717 -1.9215
69521SOL    HW226174  11.165   0.644   5.403  1.7808  0.8028 -0.1362
69522SOL     OW26175   0.861   6.286   4.535  0.0432 -0.1734  0.1364
69522SOL    HW126176   0.919   6.256   4.465 -0.2185  0.3142 -0.2934
69522SOL    HW226177   0.797   6.215   4.545 -1.8595  1.0445 -2.3345
69523SOL     OW26178  13.480   1.359   3.068 -0.1419  0.2219  0.0730
69523SOL    HW126179  13.385   1.348   3.078 -0.2237  1.1175  0.3902
69523SOL    HW226180  13.515   1.349   3.156 -0.3939  3.7322  0.7402
69524SOL     OW26181   3.594   9.540  12.737 -0.0125  0.3898 -0.2180
69524SOL    HW126182   3.545   9.536  12.819 -0.1037 -1.9405 -0.3099
69524SOL    HW226183   3.684   9.517  12.761 -0.2264 -1.2593 -0.8490
69525SOL     OW26184   5.910   1.624   5.031  0.0136 -0.0265  0.0275
69525SOL    HW126185   5.820   1.619   5.065 -0.8600 -1.0925 -2.2078
69525SOL    HW226186   5.912   1.560   4.960  1.3936  2.5472 -2.4789
69526SOL     OW26187   1.555   6.307   3.577 -0.8632  0.4141 -0.3175
69526SOL    HW126188   1.536   6.295   3.484  1.4227 -0.4484 -0.7204
69526SOL    HW226189   1.545   6.401   3.591 -0.7204  0.6331 -1.5509
69527SOL     OW26190   2.795   2.477   4.754  0.0211  0.0763 -0.0462
69527SOL    HW126191   2.801   2.382   4.757 -2.8049 -0.1989 -0.2521
69527SOL    HW226192   2.752   2.501   4.837 -1.6941  0.8487 -1.0924
69528SOL     OW26193   3.171   7.159  13.615 -0.1304 -0.4944 -0.0470
69528SOL    HW126194   3.205   7.246  13.636  0.3736 -0.6348 -0.2779
69528SOL    HW226195   3.085   7.156  13.657 -2.0668  1.6809 -3.4544
69529SOL     OW26196   4.700  12.509   9.721  0.3155 -0.1784 -0.3831
69529SOL    HW126197   4.795  12.513   9.715  0.2681  0.3244 -0.8835
69529SOL    HW226198   4.683  12.441   9.787  1.0106 -0.4202 -0.4419
69530SOL     OW26199  11.832   8.278   1.699  0.3294 -0.3309  0.2049
69530SOL    HW126200  11.742   8.301   1.674  0.7379 -1.2384 -2.3902
69530SOL    HW226201  11.871   8.360   1.729 -1.1077  0.2314  0.6036
69531SOL     OW26202   1.559   8.151   6.770  0.2913  0.1163 -0.4188
69531SOL    HW126203   1.518   8.196   6.695 -2.0815  1.3210  1.4641
69531SOL    HW226204   1.652   8.148   6.748  0.0382  2.6327 -2.3449
69532SOL     OW26205   8.809  13.126   4.307  0.5606 -0.3753 -0.5000
69532SOL    HW126206   8.802  13.182   4.384  1.3111 -2.1134  0.9246
69532SOL    HW226207   8.775  13.041   4.336  0.1067 -0.8604 -2.3469
69533SOL     OW26208  10.251  10.942   6.346  0.0003  0.9122 -0.1801
69533SOL    HW126209  10.331  10.994   6.353 -0.2358  1.1838  0.6707
69533SOL    HW226210  10.281  10.852   6.335  0.4464  0.8892  1.0902
69534SOL     OW26211  10.414   2.380  11.663  0.0702  1.1016  0.4227
69534SOL    HW126212  10.400   2.451  11.726  0.4931  0.6270  1.0635
69534SOL    HW226213  10.470   2.318  11.709 -2.5340 -1.0185  0.9504
69535SOL     OW26214   9.682   4.298  10.177  0.2642 -0.4029 -0.2254
69535SOL    HW126215   9.758   4.340  10.219  0.5103  0.0403 -1.0857
69535SOL    HW226216   9.715   4.269  10.092 -0.7336  0.4942 -0.9385
69536SOL     OW26217  10.070   2.779   8.462 -0.1189 -0.1110 -0.0597
69536SOL    HW126218  10.157   2.786   8.424 -0.7007 -2.1769 -1.9544
69536SOL    HW226219  10.019   2.846   8.417  0.0515 -0.1298 -0.2808
69537SOL     OW26220   3.304  12.968  11.997  0.1864 -0.2410  0.2317
69537SOL    HW126221   3.395  12.993  12.013  0.1996  0.7576 -1.2273
69537SOL    HW226222   3.306  12.872  11.997  0.9799 -0.2463  1.4848
69538SOL     OW26223   3.051   6.059   9.895 -0.3214 -0.0425  0.4947
69538SOL    HW126224   2.963   6.094   9.876 -1.1166 -1.8057  0.7169
69538SOL    HW226225   3.086   6.035   9.809 -0.8464 -1.0454  0.5380
69539SOL     OW26226  11.113  13.099   8.850  0.7489 -0.1782  0.0703
69539SOL    HW126227  11.018  13.087   8.841  0.6514  1.2535 -1.0936
69539SOL    HW226228  11.135  13.048   8.928 -1.2047  0.5390  1.1802
69540SOL     OW26229   7.327   4.347   2.807  0.0768  0.4577 -0.5169
69540SOL    HW126230   7.285   4.425   2.843 -1.9263  0.3293 -2.3802
69540SOL    HW226231   7.254   4.293   2.775  1.0643 -3.5886  3.0764
69541SOL     OW26232   8.834   0.407   4.801 -0.1392 -0.2402 -0.5174
69541SOL    HW126233   8.883   0.327   4.780  0.3027  0.0581 -0.6390
69541SOL    HW226234   8.888   0.478   4.767 -0.3664  0.1350 -0.1077
69542SOL     OW26235   4.238   3.449   9.558  0.2940  0.1165  0.0271
69542SOL    HW126236   4.266   3.358   9.562  1.0586  0.3769  2.3221
69542SOL    HW226237   4.153   3.446   9.514 -0.3028 -1.8831  1.1842
69543SOL     OW26238   7.391   1.509   2.067  0.1481 -0.2808 -0.2772
69543SOL    HW126239   7.413   1.598   2.095 -2.2674  0.4843 -0.5260
69543SOL    HW226240   7.475   1.467   2.053  1.3867  1.7136  0.6143
69544SOL     OW26241   1.812   4.690   0.111  0.0219  0.5803 -0.5090
69544SOL    HW126242   1.837   4.598   0.117  2.6485  1.2746  1.5886
69544SOL    HW226243   1.780   4.701   0.021 -0.0647 -2.2597 -0.9149
69545SOL     OW26244   5.870   2.302  11.939  0.0221 -0.2193 -0.5315
69545SOL    HW126245   5.954   2.348  11.931 -0.1147 -0.0513 -1.0148
69545SOL    HW226246   5.805   2.366  11.909 -0.3704 -0.0597  0.6073
69546SOL     OW26247   3.559   2.109   3.439 -0.1310 -0.2032 -0.1249
69546SOL    HW126248   3.618   2.088   3.366  0.5227  0.5797  0.1597
69546SOL    HW226249   3.591   2.055   3.512 -0.9826 -1.2259 -0.4861
69547SOL     OW26250   2.333   7.473  11.913  0.0492  0.2596 -0.0770
69547SOL    HW126251   2.349   7.397  11.969 -0.1626  0.0506 -0.3011
69547SOL    HW226252   2.377   7.452  11.831 -0.0221  0.3731 -0.1437
69548SOL     OW26253   4.183  12.119   5.997  0.1213  0.7400  0.8000
69548SOL    HW126254   4.097  12.090   6.026 -0.7642  0.5602 -1.7669
69548SOL    HW226255   4.167  12.204   5.956  0.6385 -0.3727 -1.9316
69549SOL     OW26256   4.977   6.353   2.390 -0.2570 -0.5197  0.2516
69549SOL    HW126257   4.886   6.382   2.398 -0.6542 -1.9488  1.4233
69549SOL    HW226258   4.985   6.323   2.300 -1.3439 -1.5031  0.4489
69550SOL     OW26259   6.472  11.706   6.760 -0.0953  0.2162  0.1242
69550SOL    HW126260   6.387  11.687   6.799 -0.1967  0.6826  0.1287
69550SOL    HW226261   6.518  11.758   6.826 -0.0942  0.6133 -0.1852
69551SOL     OW26262   9.085   9.204   8.990  0.0778 -0.0674 -0.2451
69551SOL    HW126263   9.098   9.111   8.972 -1.3737 -0.1348 -1.1257
69551SOL    HW226264   9.037   9.237   8.914 -0.4920  1.1328  0.5982
69552SOL     OW26265   9.902   4.070   9.062  0.0510 -0.6087 -0.9700
69552SOL    HW126266   9.989   4.092   9.030  0.0879 -0.4267 -0.7478
69552SOL    HW226267   9.895   4.115   9.147  0.1993 -1.6005 -0.4157
69553SOL     OW26268   8.845   2.666   7.457 -0.2853 -0.0684 -0.3493
69553SOL    HW126269   8.765   2.703   7.418 -1.2342 -1.0978  0.5431
69553SOL    HW226270   8.905   2.740   7.462 -0.5734  0.3836 -2.5463
69554SOL     OW26271  12.797   5.877   4.813  0.3038  0.1646  0.2580
69554SOL    HW126272  12.878   5.835   4.842  0.8515 -0.9172 -2.5777
69554SOL    HW226273  12.789   5.854   4.721 -1.3520  3.2673 -0.5208
69555SOL     OW26274  13.643  11.282   1.190  0.5001 -0.2099  0.2596
69555SOL    HW126275  13.572  11.305   1.250  1.5361  1.9617  0.7253
69555SOL    HW226276  13.621  11.326   1.108  1.4425  0.7425  0.5031
69556SOL     OW26277   9.364   1.905   3.698  0.2758  0.2462  0.4357
69556SOL    HW126278   9.355   1.944   3.785  0.8249 -0.6129  0.8956
69556SOL    HW226279   9.303   1.831   3.700  0.0547  0.4114 -0.0324
69557SOL     OW26280   4.149   7.355   4.678  0.4225  0.2182 -0.3935
69557SOL    HW126281   4.083   7.339   4.746 -0.2042 -1.7855 -1.3771
69557SOL    HW226282   4.114   7.429   4.628  0.7252  1.4923  1.2110
69558SOL     OW26283   8.789   8.654   7.667 -0.4695  0.1345  0.4393
69558SOL    HW126284   8.799   8.692   7.754 -1.2286 -0.4759  0.8003
69558SOL    HW226285   8.865   8.596   7.658 -0.1594  0.5183  0.5120
69559SOL     OW26286   3.250   1.759   7.360  0.2826  0.1417  0.7088
69559SOL    HW126287   3.195   1.721   7.292  0.6709 -0.5890  0.7944
69559SOL    HW226288   3.338   1.724   7.343  1.2191  2.8213 -0.6364
69560SOL     OW26289   0.557   8.588  13.458 -0.1106  0.1504 -0.0281
69560SOL    HW126290   0.525   8.650  13.524  2.9031  0.9410  0.8355
69560SOL    HW226291   0.577   8.642  13.382 -0.1406 -0.2177 -0.2984
69561SOL     OW26292   8.138   1.463  13.602  0.3382  0.1476  0.4763
69561SOL    HW126293   8.160   1.467  13.695 -0.6915  0.7178  0.7112
69561SOL    HW226294   8.155   1.552  13.570 -0.6250  0.3207  0.4379
69562SOL     OW26295  10.642  13.380  13.729  0.1664  0.2788  0.6938
69562SOL    HW126296  10.727  13.425  13.724  0.4125 -0.3007 -0.9408
69562SOL    HW226297  10.634  13.335  13.645 -1.2831 -0.5647  1.2517
69563SOL     OW26298   3.797   9.142   3.511  0.6151 -1.2556 -0.3157
69563SOL    HW126299   3.781   9.155   3.605  1.8665 -0.0917 -0.2377
69563SOL    HW226300   3.709   9.139   3.473  0.0910  0.0864  0.6839
69564SOL     OW26301   0.197   5.701   4.768  0.4153  0.1121 -0.0986
69564SOL    HW126302   0.180   5.708   4.674  0.8027 -0.5558 -0.2221
69564SOL    HW226303   0.148   5.623   4.796  0.4368  0.2113  0.2281
69565SOL     OW26304   1.861   6.358   7.529  0.3307  0.0641  0.2899
69565SOL    HW126305   1.933   6.388   7.474  0.3451 -1.7752 -0.7808
69565SOL    HW226306   1.903   6.304   7.596  0.1259  0.7500  0.9913
69566SOL     OW26307   0.110   7.175   6.908 -0.4015  0.0124 -0.4296
69566SOL    HW126308   0.093   7.094   6.957  0.9023 -0.0071  0.0037
69566SOL    HW226309   0.111   7.244   6.974  1.2549 -0.0007 -0.3998
69567SOL     OW26310   3.194   7.358   2.351 -0.1854 -0.0031  0.0947
69567SOL    HW126311   3.256   7.303   2.399  0.3738  0.4684 -0.0706
69567SOL    HW226312   3.150   7.298   2.291  0.2110 -0.3200  0.1152
69568SOL     OW26313  11.626  10.744  13.532 -0.2900 -0.7755  0.0723
69568SOL    HW126314  11.661  10.724  13.445  0.3469  0.3110  0.0520
69568SOL    HW226315  11.656  10.673  13.588  0.5204 -0.7462 -0.3118
69569SOL     OW26316   0.582   7.709   9.470  0.2557 -0.2024 -0.4123
69569SOL    HW126317   0.546   7.691   9.557  0.2782  1.5986  0.0199
69569SOL    HW226318   0.526   7.779   9.436  0.1504 -0.9978 -1.9340
69570SOL     OW26319   9.446   3.440   7.191  0.4221  0.3180 -0.1594
69570SOL    HW126320   9.505   3.433   7.266  1.4231 -0.5356 -0.9962
69570SOL    HW226321   9.371   3.489   7.224  1.7872  1.8728  0.8240
69571SOL     OW26322  11.104   5.592   6.261  0.4038  0.0664  0.5177
69571SOL    HW126323  11.026   5.543   6.286  1.0475 -0.7505  0.9599
69571SOL    HW226324  11.150   5.609   6.343  1.4849 -0.8277  0.1225
69572SOL     OW26325   5.456  10.842   9.708 -0.3096 -0.2624  0.1305
69572SOL    HW126326   5.497  10.895   9.641  0.2120 -0.1927  0.5013
69572SOL    HW226327   5.525  10.782   9.738 -1.4553 -2.8274 -1.9414
69573SOL     OW26328  12.819   8.186  11.614 -0.4330 -0.3563 -0.0682
69573SOL    HW126329  12.840   8.134  11.536 -0.8282  0.5981 -0.8256
69573SOL    HW226330  12.811   8.276  11.582  0.3423  0.2066  1.2356
69574SOL     OW26331  10.657   2.381  10.809  0.8142  0.1945  0.2750
69574SOL    HW126332  10.605   2.461  10.799  0.9800  0.1743 -0.9045
69574SOL    HW226333  10.620   2.337  10.885  1.0648  1.6479  1.2670
69575SOL     OW26334   6.016   6.959  12.906  0.2999 -0.5783  0.3613
69575SOL    HW126335   6.036   7.005  12.825  1.3740 -2.2347 -0.3854
69575SOL    HW226336   6.079   6.993  12.969 -1.5524  1.8580  1.0074
69576SOL     OW26337   3.992  11.251  13.469 -0.0314 -0.3324 -0.3990
69576SOL    HW126338   3.956  11.219  13.387 -0.9615  0.3844 -0.2826
69576SOL    HW226339   3.915  11.275  13.521  0.5894  0.3831  0.2026
69577SOL     OW26340   4.461   6.509   6.190 -0.2879 -0.5789 -0.5838
69577SOL    HW126341   4.459   6.567   6.267 -0.9152 -1.4775  0.0902
69577SOL    HW226342   4.552   6.510   6.162 -0.1526  0.1686 -0.1540
69578SOL     OW26343   4.622  13.611   9.414 -0.3083 -0.2821  0.2875
69578SOL    HW126344   4.572  13.550   9.468 -0.7772 -0.2487 -0.1078
69578SOL    HW226345   4.712  13.578   9.418 -0.4627 -0.6839  0.5106
69579SOL     OW26346   4.683   7.509  10.928  0.3033  0.5824 -0.1752
69579SOL    HW126347   4.758   7.551  10.969  1.3429  0.2895 -1.6936
69579SOL    HW226348   4.684   7.541  10.838 -1.0699  0.1456 -0.3631
69580SOL     OW26349   2.718   5.961   4.986  0.6393  0.6636  0.1630
69580SOL    HW126350   2.760   6.000   5.062  2.0562  0.1844 -0.3452
69580SOL    HW226351   2.692   6.035   4.931 -0.8213  1.0357  1.2894
69581SOL     OW26352   0.675   5.787   6.560 -0.0280  0.0489 -0.0444
69581SOL    HW126353   0.689   5.800   6.654  2.7104 -0.6492 -0.2625
69581SOL    HW226354   0.670   5.875   6.524 -0.8499  0.3253  0.7005
69582SOL     OW26355  13.564   0.694   5.760  0.0711 -0.0121 -0.0066
69582SOL    HW126356  13.510   0.671   5.684  0.4881  0.4095 -0.4445
69582SOL    HW226357  13.511   0.756   5.810  0.2428  0.6130 -0.5794
69583SOL     OW26358  10.923   0.274  12.643  0.5752 -1.0927 -0.1513
69583SOL    HW126359  10.970   0.263  12.725  0.2708 -1.1252  0.0227
69583SOL    HW226360  10.980   0.238  12.576  1.1886 -0.3214 -0.0613
69584SOL     OW26361   5.975  13.847   0.619 -0.4730 -0.4689  0.2990
69584SOL    HW126362   5.987  13.942   0.615 -0.3792 -0.4587  0.8069
69584SOL    HW226363   5.946  13.823   0.531  1.5172 -0.2693 -0.4494
69585SOL     OW26364   0.695   4.936   3.725  0.3999 -0.3897 -0.2531
69585SOL    HW126365   0.632   4.989   3.676 -0.9952 -0.2207  1.6143
69585SOL    HW226366   0.654   4.849   3.730  1.1752 -0.7820 -0.5403
69586SOL     OW26367   5.384   4.392   7.384  0.6822  0.2122  0.1253
69586SOL    HW126368   5.300   4.381   7.340  0.8288  2.4129 -0.8438
69586SOL    HW226369   5.386   4.484   7.409  1.8507 -0.3400  2.2360
69587SOL     OW26370   6.752   7.202   5.446  0.0476  0.2659 -0.1998
69587SOL    HW126371   6.831   7.189   5.393 -0.7598 -1.9852 -0.9947
69587SOL    HW226372   6.706   7.273   5.402 -0.1414 -0.9114 -2.0268
69588SOL     OW26373   5.645   1.582   3.138 -0.4262  0.9005 -0.5953
69588SOL    HW126374   5.674   1.494   3.162  0.6097  1.2137 -0.6681
69588SOL    HW226375   5.679   1.638   3.208 -0.5942  1.3185 -0.8448
69589SOL     OW26376  11.270   1.881   5.437 -0.7676  0.3262 -0.1990
69589SOL    HW126377  11.274   1.790   5.408  1.9020  0.9291 -2.0031
69589SOL    HW226378  11.273   1.876   5.533 -0.7505 -1.4675 -0.2702
69590SOL     OW26379   7.737   1.468   4.615  0.0017 -0.1013  0.5884
69590SOL    HW126380   7.714   1.378   4.639 -0.2002 -0.4027 -0.6363
69590SOL    HW226381   7.657   1.503   4.575  1.0563 -0.5732 -2.1222
69591SOL     OW26382   5.983  11.155   6.033 -0.3260  0.4047 -0.3817
69591SOL    HW126383   6.033  11.146   5.952 -0.6517 -1.2186 -0.4337
69591SOL    HW226384   6.017  11.087   6.090 -1.0715  0.6126  0.3315
69592SOL     OW26385  11.582   3.093   6.754  0.6067  0.3622 -0.1256
69592SOL    HW126386  11.508   3.058   6.704  0.6982 -0.7140  0.4640
69592SOL    HW226387  11.570   3.188   6.752 -0.6210  0.2190 -0.2957
69593SOL     OW26388   6.276  13.346   7.927 -0.1396  0.0927  0.1544
69593SOL    HW126389   6.220  13.422   7.910  0.0111  0.2226  0.2375
69593SOL    HW226390   6.280  13.341   8.023 -1.1796 -0.7786  0.1653
69594SOL     OW26391   1.498   0.045  13.692  0.5154  0.0633  0.6380
69594SOL    HW126392   1.499  -0.019  13.763 -1.6464 -0.1554  0.5306
69594SOL    HW226393   1.443   0.006  13.624  1.2111  0.9719 -0.4952
69595SOL     OW26394  13.111   7.440   0.216  0.5681 -0.1476  0.5847
69595SOL    HW126395  13.158   7.373   0.167 -0.2165 -0.3161  0.0550
69595SOL    HW226396  13.149   7.523   0.186  0.5177 -0.2823  0.1441
69596SOL     OW26397   7.408   3.605   5.212  0.3977  0.1005 -0.2793
69596SOL    HW126398   7.455   3.538   5.163  0.4005  0.8675 -1.3553
69596SOL    HW226399   7.425   3.686   5.165 -1.1608  0.5634 -0.1032
69597SOL     OW26400  10.322  11.596   8.210 -0.3774 -0.1318  0.2985
69597SOL    HW126401  10.397  11.600   8.150 -1.3165 -0.8994 -0.9865
69597SOL    HW226402  10.245  11.592   8.152 -1.5059  1.7151  1.5752
69598SOL     OW26403   8.551   1.253  13.680 -0.2065 -0.3021  0.4235
69598SOL    HW126404   8.495   1.240  13.603  0.2653  0.5364 -0.0803
69598SOL    HW226405   8.586   1.166  13.700  0.6888 -0.3409 -1.1281
69599SOL     OW26406   3.021   8.341   1.258 -0.4610 -0.1849  0.7816
69599SOL    HW126407   2.967   8.408   1.218 -0.2053 -0.2535  0.3194
69599SOL    HW226408   2.980   8.258   1.233  1.7113 -0.4559 -2.5099
69600SOL     OW26409   6.049   6.664  12.610 -0.5902  0.5751 -0.1025
69600SOL    HW126410   6.075   6.605  12.682 -1.3806  0.7112  0.3076
69600SOL    HW226411   5.967   6.627  12.578  0.1092  0.1074 -1.4326
69601SOL     OW26412  10.439  10.104  12.459  0.1089  0.1266 -0.0387
69601SOL    HW126413  10.446  10.072  12.548  1.7141  2.5788  0.8198
69601SOL    HW226414  10.374  10.047  12.418  1.1315 -2.6202  1.9172
69602SOL     OW26415  13.075   7.003   0.188 -0.3406 -0.8149  0.5108
69602SOL    HW126416  12.999   7.062   0.188  0.2192 -0.0432 -0.8806
69602SOL    HW226417  13.037   6.916   0.198 -1.3262 -0.3746  0.8262
69603SOL     OW26418  13.753   0.964   8.731 -0.3041 -0.0750 -0.2634
69603SOL    HW126419  13.683   0.907   8.764 -0.0716 -0.4979 -0.4871
69603SOL    HW226420  13.816   0.969   8.802 -0.0719 -0.5331 -0.4281
69604SOL     OW26421  13.174   7.477  11.404 -0.1060 -0.0993 -0.5537
69604SOL    HW126422  13.170   7.398  11.349 -0.5872  0.6104 -1.5822
69604SOL    HW226423  13.091   7.520  11.388  1.0609  1.8166 -1.8947
69605SOL     OW26424   6.166   9.319   5.505 -0.0950  0.4967 -0.6031
69605SOL    HW126425   6.078   9.350   5.484  0.0863  1.7585  0.3960
69605SOL    HW226426   6.214   9.398   5.530  0.5962 -0.4665  1.3416
69606SOL     OW26427   3.228  12.573   9.854  0.3512 -0.2648  0.0748
69606SOL    HW126428   3.292  12.591   9.922  0.4478 -1.3272  0.2806
69606SOL    HW226429   3.271  12.600   9.772  1.0807 -1.0130  0.2030
69607SOL     OW26430   8.785  10.916   5.105 -0.1281  0.5542  0.0213
69607SOL    HW126431   8.821  10.906   5.194 -0.2415  0.3157  0.0405
69607SOL    HW226432   8.691  10.907   5.116 -0.0974 -0.0953 -0.2085
69608SOL     OW26433   6.633   1.028  13.038 -0.1262 -0.0658 -0.4301
69608SOL    HW126434   6.586   0.946  13.054  0.1695 -0.2067 -0.2872
69608SOL    HW226435   6.577   1.096  13.076  0.6726 -0.4008  1.4520
69609SOL     OW26436   5.124   6.915  12.963 -0.1485  0.0241  0.4591
69609SOL    HW126437   5.107   6.822  12.945 -0.3059 -0.0201  0.8353
69609SOL    HW226438   5.177   6.914  13.043  1.5233  0.1611 -0.6009
69610SOL     OW26439   7.255   4.091   1.732  0.0357  0.2542  0.2421
69610SOL    HW126440   7.341   4.050   1.741 -0.0528  0.1090  0.4309
69610SOL    HW226441   7.228   4.073   1.642  0.3052  0.4999  0.1106
69611SOL     OW26442   7.696  10.744   9.211 -0.2614  0.0866  0.0549
69611SOL    HW126443   7.761  10.797   9.257 -0.7789  0.7147  0.0620
69611SOL    HW226444   7.612  10.787   9.228 -1.0638 -2.1097  2.1267
69612SOL     OW26445   3.761  13.700   0.511 -0.0346  0.3294  0.1960
69612SOL    HW126446   3.757  13.795   0.504 -0.4931  0.5739  2.6979
69612SOL    HW226447   3.674  13.671   0.484  0.4098  0.4837 -1.5243
69613SOL     OW26448  10.676  10.079   8.769  0.1832  0.3135  0.1810
69613SOL    HW126449  10.716   9.994   8.748 -0.6529  0.3105 -1.6211
69613SOL    HW226450  10.594  10.079   8.720 -0.1315  1.9251  0.6544
69614SOL     OW26451   0.292   4.436   7.444  0.0089 -0.0881  0.0900
69614SOL    HW126452   0.250   4.400   7.366  1.1885 -2.7961  0.5805
69614SOL    HW226453   0.334   4.517   7.414 -0.6553 -0.3730 -1.7412
69615SOL     OW26454   0.867   6.855   0.797  0.1639  0.1911 -0.3274
69615SOL    HW126455   0.960   6.872   0.782  0.3314  1.2057  1.5479
69615SOL    HW226456   0.865   6.781   0.858 -0.1741  0.9529  0.6226
69616SOL     OW26457   9.245   2.741   9.668 -0.2885 -0.0840 -0.6586
69616SOL    HW126458   9.249   2.735   9.572 -0.4740  1.7327 -0.8131
69616SOL    HW226459   9.152   2.756   9.686 -0.0347  1.1824 -0.3301
69617SOL     OW26460  10.060   3.360  13.301 -1.1705  0.1493  0.0275
69617SOL    HW126461  10.145   3.348  13.260 -0.6379  2.3850  0.3513
69617SOL    HW226462  10.078   3.403  13.384 -2.6109  0.8509  0.0194
69618SOL     OW26463   6.471   6.216   4.115  0.4128 -0.0377  0.1343
69618SOL    HW126464   6.485   6.240   4.206 -2.8510  0.2439  0.6751
69618SOL    HW226465   6.461   6.300   4.070 -0.8968 -0.1836  0.1127
69619SOL     OW26466   2.841  13.950  10.545 -0.6721  0.5535  0.1214
69619SOL    HW126467   2.813  13.899  10.469 -1.9786  2.3372 -0.6809
69619SOL    HW226468   2.919  13.997  10.515  0.5343 -0.8860  0.8604
69620SOL     OW26469   6.796   9.330   1.859  0.4136 -0.0964 -0.4187
69620SOL    HW126470   6.785   9.366   1.771 -2.2259  0.4373  0.0440
69620SOL    HW226471   6.843   9.248   1.846 -0.5235 -0.3614 -2.4143
69621SOL     OW26472   1.691   8.248  12.288 -0.0754  0.1880  0.0763
69621SOL    HW126473   1.722   8.327  12.245 -1.4850  1.1019  0.6568
69621SOL    HW226474   1.699   8.179  12.222  1.6540  0.6715 -0.2694
69622SOL     OW26475   8.898   5.461   3.135 -0.1969  0.0912  0.3055
69622SOL    HW126476   8.954   5.496   3.203  2.4456 -1.2086 -1.0224
69622SOL    HW226477   8.866   5.537   3.087  0.6670  0.8609  0.9422
69623SOL     OW26478   2.934   9.024   3.962  0.0563 -0.4150 -0.0301
69623SOL    HW126479   2.847   9.064   3.964  0.3221  0.1376  1.1054
69623SOL    HW226480   2.934   8.972   3.882 -0.0464  2.4476 -2.0740
69624SOL     OW26481  11.004  13.318   7.441 -0.1420  0.1172 -0.1330
69624SOL    HW126482  10.924  13.368   7.455 -0.6059 -0.5702 -0.2701
69624SOL    HW226483  10.996  13.242   7.499  0.2395 -0.1450 -0.4140
69625SOL     OW26484   3.226   9.148   0.606  0.6351  0.3521  0.0397
69625SOL    HW126485   3.227   9.067   0.658  0.6888  0.2805 -0.0726
69625SOL    HW226486   3.273   9.212   0.660 -1.0527  0.8518  1.0003
69626SOL     OW26487   4.499   8.095   5.054  0.2628  0.1108  0.1864
69626SOL    HW126488   4.592   8.087   5.075  0.1370  0.0678  0.7375
69626SOL    HW226489   4.454   8.091   5.139 -0.2000  0.7561 -0.0142
69627SOL     OW26490   3.527   8.256  12.022 -0.0308  0.2775  0.0399
69627SOL    HW126491   3.581   8.284  12.096  0.2623  0.5010 -0.2537
69627SOL    HW226492   3.582   8.196  11.973  0.3851  1.3688 -0.8824
69628SOL     OW26493   6.192  13.182  11.322 -0.3237 -0.8735  0.1362
69628SOL    HW126494   6.119  13.213  11.374 -1.1047 -0.7547 -0.9877
69628SOL    HW226495   6.259  13.157  11.386 -1.0304 -0.2192  1.1515
69629SOL     OW26496   6.919   3.587   5.762  0.2135  0.0195 -0.2682
69629SOL    HW126497   6.924   3.494   5.740 -0.8523 -0.2701  0.6769
69629SOL    HW226498   6.907   3.631   5.677 -0.7247 -0.8219 -0.5877
69630SOL     OW26499   6.266   7.669   4.399 -0.0639  0.5672 -0.5061
69630SOL    HW126500   6.247   7.578   4.421  0.5467  1.1749  3.2335
69630SOL    HW226501   6.360   7.671   4.381 -0.3284  0.2753 -2.0085
69631SOL     OW26502   9.561   1.574   7.343  0.3908 -0.5331 -0.4209
69631SOL    HW126503   9.540   1.481   7.334 -0.4171 -0.3344 -0.6758
69631SOL    HW226504   9.639   1.586   7.289  2.5055 -1.7037  2.1088
69632SOL     OW26505   8.943  12.415   5.485  0.4065 -0.0217 -0.7829
69632SOL    HW126506   8.926  12.338   5.432 -0.3995  0.0347 -0.6255
69632SOL    HW226507   8.856  12.446   5.510  0.7636 -0.7484  1.5875
69633SOL     OW26508  11.400   1.900  12.079 -0.4129  0.1570 -0.5497
69633SOL    HW126509  11.438   1.832  12.024 -0.8592 -0.6650  0.1271
69633SOL    HW226510  11.459   1.906  12.155  1.1593  2.4858 -1.8400
69634SOL     OW26511   6.813   8.161   4.243  0.6632 -0.0577  0.1705
69634SOL    HW126512   6.733   8.210   4.223  0.3726  0.2998  1.9876
69634SOL    HW226513   6.868   8.173   4.166 -1.0331 -0.3557 -1.1526
69635SOL     OW26514   3.624   1.803   9.859 -0.1895 -0.2214  0.3935
69635SOL    HW126515   3.719   1.802   9.867 -0.2893  0.4878  1.8366
69635SOL    HW226516   3.601   1.712   9.837  0.7713 -0.5010  0.5096
69636SOL     OW26517   4.594   6.414   2.898 -0.4270  0.1313 -0.0069
69636SOL    HW126518   4.669   6.358   2.877  0.4907  1.7256 -1.2429
69636SOL    HW226519   4.523   6.380   2.843 -0.2559 -0.6106  0.2221
69637SOL     OW26520   7.751  12.573   0.779  0.0277 -0.1683 -0.2794
69637SOL    HW126521   7.827  12.630   0.765 -0.0722 -0.1949 -0.9563
69637SOL    HW226522   7.719  12.554   0.691 -0.8304 -0.0760  0.0032
69638SOL     OW26523   5.708   6.775   0.425  0.0336  0.3345 -0.3549
69638SOL    HW126524   5.652   6.710   0.384 -1.2446  0.5892  0.9072
69638SOL    HW226525   5.719   6.843   0.358  1.6749 -1.2778 -1.8013
69639SOL     OW26526  13.055   1.781   4.761 -0.3989 -0.3753  0.4147
69639SOL    HW126527  13.120   1.851   4.776  0.4166 -1.1741  0.6937
69639SOL    HW226528  12.982   1.804   4.817 -0.8709  1.1734 -0.7602
69640SOL     OW26529  12.430   0.504   0.599 -0.3288  0.4256  0.1460
69640SOL    HW126530  12.437   0.443   0.673  0.3481  0.5790  0.2112
69640SOL    HW226531  12.434   0.591   0.639  2.3634  0.5536 -0.2215
69641SOL     OW26532   7.840  13.115   9.239 -0.1715 -0.8318 -0.3602
69641SOL    HW126533   7.907  13.050   9.260 -0.2334 -0.9041 -0.3859
69641SOL    HW226534   7.781  13.113   9.314  0.8880  0.5817  0.5781
69642SOL     OW26535  10.895   7.477   2.776  0.3556 -0.0980 -0.5931
69642SOL    HW126536  10.936   7.436   2.700  1.2539  1.5695 -1.0627
69642SOL    HW226537  10.804   7.491   2.750 -0.2650 -2.6293 -0.0334
69643SOL     OW26538   3.792   2.958   4.473  0.3089  0.3195 -0.5061
69643SOL    HW126539   3.793   3.044   4.432  0.4532  0.9545  0.7637
69643SOL    HW226540   3.700   2.934   4.477  0.4177 -1.1352 -3.8519
69644SOL     OW26541   3.770   1.500  10.122 -0.0641  0.1279  0.0921
69644SOL    HW126542   3.804   1.446  10.193  0.6820  2.1755  1.3945
69644SOL    HW226543   3.848   1.524  10.070 -0.3403  0.1740 -0.3078
69645SOL     OW26544   4.945   7.278  11.090  0.1227 -1.0349  0.1081
69645SOL    HW126545   4.922   7.304  11.000  0.2461  0.1544  0.4074
69645SOL    HW226546   4.923   7.185  11.094 -1.3422 -0.7545 -0.6903
69646SOL     OW26547   7.495   3.311   2.052  0.2588  0.4000  0.3767
69646SOL    HW126548   7.511   3.242   1.988  1.3932 -1.5554  2.5870
69646SOL    HW226549   7.579   3.357   2.058 -0.2445  1.4694 -0.4667
69647SOL     OW26550  10.633  10.972   8.053 -0.1548 -0.1746  0.4661
69647SOL    HW126551  10.658  11.063   8.068  1.6355 -0.4337 -0.6100
69647SOL    HW226552  10.538  10.972   8.058 -0.1569  1.6027  1.2349
69648SOL     OW26553   0.417  13.839   4.431 -0.0577  0.2454 -0.0580
69648SOL    HW126554   0.401  13.927   4.398  0.2881  0.9388  1.4970
69648SOL    HW226555   0.501  13.814   4.392 -0.9545 -0.1298 -1.8557
69649SOL     OW26556   4.589  12.301   9.294 -0.5852  0.4632  0.3972
69649SOL    HW126557   4.578  12.321   9.388  2.1008 -1.0033  1.1240
69649SOL    HW226558   4.606  12.207   9.292 -0.2166  0.5457 -1.5402
69650SOL     OW26559   5.911   4.232   2.261 -0.4207  0.5044 -0.6110
69650SOL    HW126560   5.889   4.305   2.320  0.0672  0.3985 -0.2927
69650SOL    HW226561   5.868   4.156   2.300  0.4527  0.3059 -0.0137
69651SOL     OW26562   3.574   6.920  13.824  0.1549 -0.3899 -0.1269
69651SOL    HW126563   3.564   6.934  13.730 -0.5790  1.7335  0.2142
69651SOL    HW226564   3.495   6.872  13.850 -0.1489 -0.0596 -0.4328
69652SOL     OW26565   2.447   9.261   2.930  0.1119  0.1774  0.1944
69652SOL    HW126566   2.391   9.255   2.852  0.4184 -2.3231  0.0675
69652SOL    HW226567   2.423   9.183   2.981  1.6419  0.4713  1.4110
69653SOL     OW26568   9.375   5.693  12.294  0.2767  0.8426  0.6046
69653SOL    HW126569   9.284   5.665  12.303 -0.3595  1.8254 -1.7765
69653SOL    HW226570   9.377   5.781  12.331  0.2080  0.8765  0.5301
69654SOL     OW26571   4.586  12.003   4.230 -0.2018  0.2261 -0.2619
69654SOL    HW126572   4.537  12.068   4.280  0.3826  1.2784 -1.0207
69654SOL    HW226573   4.589  11.926   4.287 -0.8485  0.8839  0.6852
69655SOL     OW26574   4.843   8.165  11.386  0.0389 -0.3035 -0.4200
69655SOL    HW126575   4.794   8.133  11.310  0.3713 -0.9386 -0.3811
69655SOL    HW226576   4.855   8.258  11.370  1.0510 -0.6241 -1.6959
69656SOL     OW26577   9.005   3.607   5.060 -0.4611  0.0111 -0.1448
69656SOL    HW126578   9.089   3.563   5.044 -0.2782  0.7902 -1.5662
69656SOL    HW226579   8.940   3.551   5.019 -0.5268 -0.1890  0.2388
69657SOL     OW26580   5.484  11.431   3.565  0.2127 -0.2207 -0.7226
69657SOL    HW126581   5.407  11.378   3.548  0.5706 -0.4430 -1.7261
69657SOL    HW226582   5.451  11.520   3.575 -0.2322 -0.4084 -0.5082
69658SOL     OW26583   7.380   6.652   0.107 -0.2833 -0.2072 -0.1100
69658SOL    HW126584   7.407   6.691   0.190 -1.8299 -0.7450  0.6838
69658SOL    HW226585   7.355   6.562   0.129  3.0112 -1.7161 -1.8571
69659SOL     OW26586  12.611   7.208  10.540  0.0968 -0.1592 -0.0147
69659SOL    HW126587  12.599   7.208  10.445  2.3435 -0.9330 -0.3581
69659SOL    HW226588  12.680   7.272  10.556  1.2545 -1.5214  0.7968
69660SOL     OW26589  13.280   0.895   4.107  0.1420 -0.1574 -0.4162
69660SOL    HW126590  13.231   0.816   4.131  0.2943  0.2016  1.1312
69660SOL    HW226591  13.371   0.866   4.104  0.3386  0.1663  1.2919
69661SOL     OW26592  10.171   7.701  13.214  0.0786  0.3724  1.1565
69661SOL    HW126593  10.188   7.675  13.305  0.0890 -0.3739  0.9456
69661SOL    HW226594  10.155   7.619  13.168 -0.2538  0.7738  0.5455
69662SOL     OW26595   9.376   6.234  10.114  0.4630  0.4979  0.2437
69662SOL    HW126596   9.284   6.260  10.118  0.6351  1.4490 -1.2756
69662SOL    HW226597   9.374   6.138  10.107 -0.3684  0.4660  0.7628
69663SOL     OW26598  11.848   1.141   4.697 -0.0435  0.3855 -0.1336
69663SOL    HW126599  11.763   1.100   4.686  0.1645 -0.0140 -0.2670
69663SOL    HW226600  11.836   1.231   4.665 -0.3870  0.3068 -0.2281
69664SOL     OW26601   9.964  13.447   0.921  0.5280 -0.4433  0.1289
69664SOL    HW126602   9.924  13.532   0.901 -0.7534 -0.3845  2.5595
69664SOL    HW226603   9.913  13.384   0.871 -0.8396 -0.0813  1.0049
69665SOL     OW26604   8.527  11.601  13.987 -0.4589 -0.0301  0.5938
69665SOL    HW126605   8.537  11.549  14.067 -0.4836 -0.5167  0.2863
69665SOL    HW226606   8.476  11.545  13.928  0.7433 -0.2619 -0.2737
69666SOL     OW26607   8.581   0.494  12.352  0.3902 -0.4714  0.8687
69666SOL    HW126608   8.535   0.512  12.270  1.6732  1.0882  0.4276
69666SOL    HW226609   8.518   0.446  12.406 -0.3467 -1.8891 -1.1552
69667SOL     OW26610  12.413  12.904   7.061  0.7357  0.1518  0.1334
69667SOL    HW126611  12.365  12.822   7.076 -0.9267  1.1049  0.2795
69667SOL    HW226612  12.366  12.969   7.112  3.8775  0.7135  2.6466
69668SOL     OW26613  10.872   1.553   4.153  0.1752 -0.0804  0.4436
69668SOL    HW126614  10.821   1.518   4.226 -1.8130  1.1465 -0.2743
69668SOL    HW226615  10.875   1.647   4.169  0.1805  0.1376 -0.7433
69669SOL     OW26616  11.131   1.148  11.515  0.2281 -0.0724 -0.1187
69669SOL    HW126617  11.145   1.101  11.432 -0.4315 -1.5622  0.5764
69669SOL    HW226618  11.169   1.234  11.500  0.6302 -0.4972 -1.7848
69670SOL     OW26619   2.264   8.973   2.782  0.2270 -0.3156  0.5226
69670SOL    HW126620   2.258   9.068   2.769  1.1412 -0.2383  0.5962
69670SOL    HW226621   2.291   8.963   2.873 -3.3827 -0.7755  1.7085
69671SOL     OW26622  12.562   8.860   1.453 -0.1184  0.3417 -0.9105
69671SOL    HW126623  12.565   8.854   1.357 -0.6318  2.6949 -1.1372
69671SOL    HW226624  12.474   8.830   1.476 -0.4131  0.8968 -1.2991
69672SOL     OW26625  13.920   9.071  12.850 -0.0040 -0.0130 -0.0216
69672SOL    HW126626  13.957   9.032  12.771  0.8529  0.7020  0.0103
69672SOL    HW226627  13.993   9.116  12.891 -0.3979 -0.5087  1.2784
69673SOL     OW26628  11.815  13.586   7.874  0.3596  0.4509 -0.2591
69673SOL    HW126629  11.850  13.649   7.810  0.4442  0.6468 -0.0197
69673SOL    HW226630  11.884  13.578   7.940  0.0045  0.7478  0.1519
69674SOL     OW26631   3.906  11.886   8.030  0.0950 -0.1147 -0.8368
69674SOL    HW126632   3.956  11.968   8.038  0.4171 -0.1594 -2.1831
69674SOL    HW226633   3.815  11.915   8.026  0.2897  0.4809 -3.9082
69675SOL     OW26634   0.103   2.590  12.558  0.3021 -0.4063  0.2401
69675SOL    HW126635   0.179   2.595  12.500  2.7682  0.4740  3.2765
69675SOL    HW226636   0.139   2.561  12.642 -2.4098  1.7453  2.3279
69676SOL     OW26637   7.240   2.915   7.461  0.0589 -0.2095  0.2203
69676SOL    HW126638   7.232   2.820   7.453  1.7341 -0.3334 -0.4616
69676SOL    HW226639   7.300   2.929   7.534  0.3887  0.2927 -0.1355
69677SOL     OW26640   5.426   9.405   2.909  0.1447  0.5053 -0.0874
69677SOL    HW126641   5.517   9.416   2.879  0.6267  0.3905  1.2806
69677SOL    HW226642   5.427   9.325   2.960 -0.8899  0.1532 -0.5840
69678SOL     OW26643   8.366   0.530   4.754 -0.4988  0.1019  0.1372
69678SOL    HW126644   8.382   0.533   4.660  2.9828  1.9533  0.6196
69678SOL    HW226645   8.287   0.582   4.767 -0.6808  0.3418 -1.6856
69679SOL     OW26646   0.518   9.101   5.224 -0.4409 -0.3517  0.5804
69679SOL    HW126647   0.578   9.169   5.194  0.2093 -1.4047 -0.6265
69679SOL    HW226648   0.433   9.145   5.231 -0.0585  0.5650 -0.2386
69680SOL     OW26649  11.845   6.847   6.116 -0.2423 -0.1808 -0.4646
69680SOL    HW126650  11.872   6.816   6.029  4.5920  1.2675  0.2322
69680SOL    HW226651  11.804   6.932   6.099  1.2544  0.4013 -1.4141
69681SOL     OW26652  13.224  12.852   3.340 -0.3429 -0.0767  0.2929
69681SOL    HW126653  13.319  12.859   3.344 -0.1024 -0.9078 -2.0764
69681SOL    HW226654  13.205  12.762   3.367 -0.6138  0.4400  1.9345
69682SOL     OW26655  12.709   2.648   2.746  0.6434 -0.4563 -0.0410
69682SOL    HW126656  12.731   2.584   2.678 -1.3385 -0.1345 -1.0545
69682SOL    HW226657  12.739   2.732   2.710 -0.9623 -0.1986 -0.8401
69683SOL     OW26658  10.058  12.531   5.355  0.8199 -0.7601  0.1356
69683SOL    HW126659  10.030  12.581   5.279  0.9913  0.3363  0.7684
69683SOL    HW226660  10.131  12.478   5.323  0.8112 -0.4096 -0.4887
69684SOL     OW26661   8.971   2.884  12.976 -0.0724  0.3956 -0.0276
69684SOL    HW126662   8.899   2.940  13.006 -0.5602  1.1924 -2.4480
69684SOL    HW226663   9.040   2.946  12.951  1.8164 -0.3552  2.7773
69685SOL     OW26664   1.544   9.660   4.844 -0.3645  0.9441  0.0036
69685SOL    HW126665   1.499   9.662   4.760  1.1771  1.3632 -0.8624
69685SOL    HW226666   1.604   9.735   4.841  1.5572 -0.4756  0.3682
69686SOL     OW26667   8.748  12.110   6.367  0.1353 -0.1965  0.1062
69686SOL    HW126668   8.742  12.061   6.450 -1.9970  0.4384  0.3681
69686SOL    HW226669   8.826  12.073   6.324 -0.2048 -2.3924  1.1997
69687SOL     OW26670   5.196  12.013   8.120  0.0121 -0.1326 -0.3647
69687SOL    HW126671   5.171  12.037   8.209  1.4310 -1.8544  0.5619
69687SOL    HW226672   5.268  12.073   8.099  0.8493 -0.8367  0.3726
69688SOL     OW26673   2.060   4.450   8.527  0.1104  0.2317 -0.2392
69688SOL    HW126674   2.139   4.457   8.581 -0.9699  1.5570  1.2617
69688SOL    HW226675   2.082   4.385   8.460  1.7404 -1.0463  1.4288
69689SOL     OW26676  10.134   8.570   2.041 -0.6883 -0.3093  0.6911
69689SOL    HW126677  10.184   8.623   2.102 -0.5501  2.0405 -1.3024
69689SOL    HW226678  10.043   8.598   2.053 -1.0089 -1.5698  1.4173
69690SOL     OW26679  11.419  10.098   1.884  0.1333 -0.2550 -0.0538
69690SOL    HW126680  11.418  10.015   1.835 -0.7339 -0.9744  1.1267
69690SOL    HW226681  11.345  10.091   1.944  1.8158  0.0771  2.1926
69691SOL     OW26682   6.269   4.164   7.618 -0.2507 -1.3851  0.1916
69691SOL    HW126683   6.343   4.215   7.652 -1.4736  0.1587  0.6473
69691SOL    HW226684   6.295   4.072   7.629  2.4409 -0.9424 -1.5546
69692SOL     OW26685   0.804   5.706  12.822 -0.6341 -0.1749  0.3171
69692SOL    HW126686   0.807   5.762  12.899 -1.6623 -0.8867  0.8973
69692SOL    HW226687   0.799   5.617  12.857  0.0529 -0.5872 -0.5841
69693SOL     OW26688   5.030   5.973   3.560 -0.2321 -0.2199 -0.1113
69693SOL    HW126689   5.055   5.883   3.537  0.0821 -1.1683  3.2951
69693SOL    HW226690   5.080   5.991   3.640 -3.5696  1.2777  1.8498
69694SOL     OW26691  13.232   5.355   5.643 -0.4041  0.0544  0.0783
69694SOL    HW126692  13.269   5.345   5.730 -0.7733 -1.1661  0.1164
69694SOL    HW226693  13.219   5.449   5.633  1.6981  0.4320  0.4495
69695SOL     OW26694  11.708   6.352   8.859  0.1362 -0.4169 -0.5651
69695SOL    HW126695  11.735   6.261   8.869  2.8150  0.3764  0.3628
69695SOL    HW226696  11.698   6.384   8.949 -0.1975  0.3463 -0.8639
69696SOL     OW26697   8.360   2.634  11.050 -0.5082 -0.3944 -0.2643
69696SOL    HW126698   8.305   2.567  11.011 -0.3966 -0.2852 -0.6090
69696SOL    HW226699   8.408   2.588  11.120  1.7437 -1.4169 -2.3270
69697SOL     OW26700   2.015   6.304  12.406  0.6750  0.2427  0.3762
69697SOL    HW126701   1.997   6.396  12.386 -1.6476 -0.1155  0.5690
69697SOL    HW226702   1.930   6.261  12.400  1.8463 -2.0787 -0.5484
69698SOL     OW26703  11.631  11.357   7.446 -0.5168  0.6298  0.2095
69698SOL    HW126704  11.573  11.357   7.522  0.4347  1.8600  0.9673
69698SOL    HW226705  11.707  11.408   7.473  0.3582  0.1408 -1.1963
69699SOL     OW26706   3.432   5.347  12.706  0.0102  0.4349  0.4428
69699SOL    HW126707   3.491   5.324  12.634 -0.2114 -2.2232  0.9903
69699SOL    HW226708   3.396   5.432  12.681 -1.6806 -1.1965 -3.7269
69700SOL     OW26709  11.947   6.517   0.254  0.4279 -0.2119 -0.4048
69700SOL    HW126710  11.999   6.474   0.187  0.3692 -1.1698  0.1423
69700SOL    HW226711  11.932   6.449   0.320 -1.5729 -0.0174 -0.5789
69701SOL     OW26712   7.163   3.157   9.472 -0.0875 -0.1940  0.0978
69701SOL    HW126713   7.240   3.144   9.417 -0.0282 -2.4551  0.6382
69701SOL    HW226714   7.109   3.079   9.457 -1.8227  0.8631  0.4915
69702SOL     OW26715  13.790   4.599   2.014  0.2569  0.1058  0.2461
69702SOL    HW126716  13.699   4.572   2.024  0.1533  0.4468  0.2458
69702SOL    HW226717  13.841   4.531   2.058  0.0381 -0.3854 -0.2476
69703SOL     OW26718  13.229   5.035   5.648 -0.1911 -0.0268  0.4374
69703SOL    HW126719  13.264   4.976   5.715  1.5107  0.1654 -0.2321
69703SOL    HW226720  13.242   5.123   5.683 -0.4514  0.0309  0.3886
69704SOL     OW26721   3.690   0.569   3.160  0.6136 -0.1570  0.1470
69704SOL    HW126722   3.620   0.634   3.149 -0.7578 -1.3177  1.5342
69704SOL    HW226723   3.769   0.622   3.172 -0.5716  1.3544  2.0448
69705SOL     OW26724  10.930   6.000  12.025 -0.0819  0.1127 -0.0692
69705SOL    HW126725  10.896   6.042  11.946  1.5921  1.0093 -0.3602
69705SOL    HW226726  10.976   6.070  12.072  1.1179 -0.9604  0.4202
69706SOL     OW26727   2.236   8.782   9.058  0.2708 -0.4867  0.5048
69706SOL    HW126728   2.149   8.760   9.091  0.0615 -0.7722 -0.2235
69706SOL    HW226729   2.252   8.871   9.089 -1.6896  0.8889 -2.1103
69707SOL     OW26730  11.559  11.358   5.188 -0.3307  0.3048 -0.2580
69707SOL    HW126731  11.529  11.351   5.098  1.7641  1.5032 -1.1262
69707SOL    HW226732  11.617  11.282   5.200 -0.4878  0.2293  0.0376
69708SOL     OW26733  11.941   4.328  12.975  0.3429 -0.3428 -0.3495
69708SOL    HW126734  11.868   4.282  12.933  0.3605 -0.2260 -0.5125
69708SOL    HW226735  11.938   4.300  13.066 -0.0860 -0.1151 -0.2877
69709SOL     OW26736   4.614   5.418  11.522  0.2873  0.2729  0.8908
69709SOL    HW126737   4.612   5.339  11.575 -0.5470  0.2525  0.8285
69709SOL    HW226738   4.523   5.446  11.516  0.3200  0.1420 -0.7234
69710SOL     OW26739   2.172   1.930  11.603  0.2489  0.0361  0.0378
69710SOL    HW126740   2.227   2.008  11.598  0.6307 -0.3217 -2.3768
69710SOL    HW226741   2.232   1.857  11.590 -0.0141 -0.7803  2.8475
69711SOL     OW26742   5.936   9.858   3.494 -0.4267  0.7576 -0.0502
69711SOL    HW126743   5.880   9.783   3.513 -0.7967  0.2754 -2.6825
69711SOL    HW226744   5.998   9.861   3.567 -2.5768  0.0809  1.8925
69712SOL     OW26745   0.323  11.542  12.526 -0.0196 -0.1047 -0.1695
69712SOL    HW126746   0.269  11.578  12.597 -0.1267  0.9652 -0.7583
69712SOL    HW226747   0.358  11.620  12.482  3.1882 -0.7267  1.0289
69713SOL     OW26748   5.227  10.492  10.930  0.0965  0.1944 -0.5374
69713SOL    HW126749   5.181  10.572  10.905  0.1778  0.5956  0.5363
69713SOL    HW226750   5.158  10.436  10.966 -0.2885 -0.9760 -2.9074
69714SOL     OW26751   8.296   5.230   1.416 -0.3286 -0.2818 -0.1081
69714SOL    HW126752   8.307   5.325   1.407  1.9175 -0.4210  0.5463
69714SOL    HW226753   8.205   5.214   1.392 -1.2408  2.2270  1.3082
69715SOL     OW26754   7.234  10.026   1.958 -1.0662  0.2751 -0.4997
69715SOL    HW126755   7.326  10.055   1.963 -1.0488  0.0457  1.0217
69715SOL    HW226756   7.184  10.108   1.954 -0.8123  0.4073 -1.0970
69716SOL     OW26757  13.020  11.127   1.333  0.2494  0.3461 -0.1013
69716SOL    HW126758  12.954  11.193   1.309 -2.4986 -1.1918  2.5316
69716SOL    HW226759  13.037  11.080   1.252 -3.1053 -0.1143 -0.6883
69717SOL     OW26760   9.050   8.022   0.974 -0.3268 -0.2529  0.0689
69717SOL    HW126761   8.959   8.005   0.950 -1.0606  2.2418  0.7426
69717SOL    HW226762   9.045   8.098   1.032  2.3517  1.5352 -1.8232
69718SOL     OW26763   0.822   5.609   7.446  0.0324 -0.5402  0.1208
69718SOL    HW126764   0.792   5.691   7.408  2.5085  0.7810  0.7928
69718SOL    HW226765   0.861   5.561   7.373 -1.1004 -1.0061 -0.2026
69719SOL     OW26766  12.857  13.400   2.617  0.3184 -0.1018 -0.1318
69719SOL    HW126767  12.845  13.344   2.694 -0.5712 -0.5809 -0.6068
69719SOL    HW226768  12.917  13.469   2.647 -2.0053  1.2362  1.8165
69720SOL     OW26769   6.231  10.597   6.496  0.2847 -0.1715 -0.3283
69720SOL    HW126770   6.157  10.658   6.488  1.5529  1.5546  0.4223
69720SOL    HW226771   6.308  10.653   6.496  1.8538 -2.0436 -3.4085
69721SOL     OW26772   2.914  11.088   5.702  0.3769  0.2210 -0.2664
69721SOL    HW126773   2.944  11.038   5.778  0.2048  2.3671  1.3052
69721SOL    HW226774   2.989  11.142   5.679 -0.6018  2.0171  0.5567
69722SOL     OW26775   4.155  11.655   5.093 -0.4509  0.0243  0.1424
69722SOL    HW126776   4.178  11.710   5.019 -0.4381  1.6587  1.3179
69722SOL    HW226777   4.090  11.705   5.142 -0.5368 -1.0570  1.1976
69723SOL     OW26778  10.926  14.019   2.713 -0.0325  0.3372 -0.2692
69723SOL    HW126779  10.972  14.073   2.648 -0.9665 -0.2374 -1.4426
69723SOL    HW226780  10.877  14.082   2.765  0.2586  0.7644 -0.4955
69724SOL     OW26781  13.766  13.527   9.880  0.3303 -0.1878  0.4590
69724SOL    HW126782  13.825  13.478   9.822  1.8719  0.2333  1.5964
69724SOL    HW226783  13.715  13.582   9.822  0.9867 -0.6541 -0.5827
69725SOL     OW26784   3.910   7.774   4.919 -0.8040  0.0843 -0.4765
69725SOL    HW126785   3.968   7.813   4.854 -2.3412  1.0025 -1.3441
69725SOL    HW226786   3.890   7.845   4.980 -1.5687 -0.0302 -0.5882
69726SOL     OW26787   4.819  12.624   3.717 -0.0054 -0.0396 -0.8023
69726SOL    HW126788   4.830  12.686   3.644  0.4132  0.5176 -0.2750
69726SOL    HW226789   4.778  12.676   3.786 -1.2676 -0.8100 -0.9556
69727SOL     OW26790   3.328   8.505  13.789 -0.1699 -0.1468 -0.4116
69727SOL    HW126791   3.326   8.598  13.767  0.4881  0.2553  1.0902
69727SOL    HW226792   3.364   8.463  13.711  0.1520  0.9341 -0.8648
69728SOL     OW26793   1.521   4.932  14.085  0.3436  0.0669  0.0885
69728SOL    HW126794   1.565   4.912  14.167  1.0713 -0.8057 -0.5033
69728SOL    HW226795   1.497   4.847  14.048  0.5484  0.4129 -0.8877
69729SOL     OW26796   8.617   3.408  10.837 -0.0493 -0.5480  0.4272
69729SOL    HW126797   8.666   3.371  10.764  0.5857 -2.1878  1.6416
69729SOL    HW226798   8.671   3.480  10.869 -0.0011 -0.2707 -0.2593
69730SOL     OW26799   7.783   2.755   0.578 -0.1541 -0.1303  0.0837
69730SOL    HW126800   7.753   2.800   0.499 -0.3979 -0.5091 -0.0468
69730SOL    HW226801   7.796   2.664   0.549  0.5271 -0.0994  0.2900
69731SOL     OW26802   4.577   7.863   4.449  1.0044  0.2000 -0.8588
69731SOL    HW126803   4.561   7.770   4.434 -0.9252  0.2520  0.5690
69731SOL    HW226804   4.515   7.907   4.391  1.4048  0.6071 -0.9843
69732SOL     OW26805   1.581  11.458   1.038  0.3695  0.8071 -0.0778
69732SOL    HW126806   1.537  11.377   1.011  0.8129 -0.5017  2.7940
69732SOL    HW226807   1.610  11.498   0.956 -0.3775 -1.6348 -1.6325
69733SOL     OW26808   4.711   2.862   2.968  0.4616  0.0716  0.2173
69733SOL    HW126809   4.667   2.843   2.885 -0.5720  1.4255  0.4371
69733SOL    HW226810   4.663   2.812   3.033 -0.6706  1.3897  0.4268
69734SOL     OW26811   5.916  12.488   3.720  0.0034 -0.3074  0.4093
69734SOL    HW126812   5.931  12.458   3.810  1.0865  0.0143  0.3547
69734SOL    HW226813   5.881  12.576   3.729  0.3905 -0.1617  0.5211
69735SOL     OW26814   6.757  11.221  12.879 -0.1063 -0.2724 -0.0767
69735SOL    HW126815   6.713  11.150  12.833  0.2947 -1.2221  0.9566
69735SOL    HW226816   6.851  11.205  12.865  0.1343 -1.6713  2.4831
69736SOL     OW26817  11.412   2.481   6.044  0.1350 -0.5523  0.4200
69736SOL    HW126818  11.436   2.545   5.976  0.8052 -0.9765  0.2564
69736SOL    HW226819  11.403   2.533   6.124 -0.7278 -0.0357  0.0067
69737SOL     OW26820   0.340   9.601   9.115  0.4753  0.4569 -0.0307
69737SOL    HW126821   0.397   9.614   9.040 -0.5521  1.7297 -0.6350
69737SOL    HW226822   0.286   9.680   9.118  0.6405  0.5470  2.2041
69738SOL     OW26823   2.858   8.132  10.597 -0.2404 -0.3341 -0.0993
69738SOL    HW126824   2.772   8.092  10.589  0.2347 -1.2667 -0.6744
69738SOL    HW226825   2.903   8.111  10.515  0.3982  0.4768  0.0261
69739SOL     OW26826   2.451   4.759  11.944 -0.0552 -0.1611  0.4993
69739SOL    HW126827   2.403   4.790  12.021 -1.4544 -2.5974  0.6984
69739SOL    HW226828   2.450   4.833  11.883 -2.4172  0.5040  1.2642
69740SOL     OW26829  11.943   2.054   3.620  0.5725 -0.2702 -0.4262
69740SOL    HW126830  12.036   2.077   3.628  0.8988 -1.2836 -1.1157
69740SOL    HW226831  11.907   2.072   3.707  1.2534  0.7798 -0.3397
69741SOL     OW26832  13.910   9.335   8.078  0.3073 -0.2614  0.5033
69741SOL    HW126833  13.815   9.344   8.071  0.2953  0.5380  1.5188
69741SOL    HW226834  13.930   9.362   8.167  1.3892 -1.3689  0.6149
69742SOL     OW26835   7.163   4.237  11.244  0.5007  0.0855  0.2454
69742SOL    HW126836   7.222   4.202  11.311  2.3496 -0.6342 -1.6292
69742SOL    HW226837   7.153   4.329  11.266  0.3980 -0.3000  1.9249
69743SOL     OW26838   2.638   9.826   5.565 -0.4545  0.3308  0.1461
69743SOL    HW126839   2.729   9.841   5.540 -0.9240 -0.1276 -2.0512
69743SOL    HW226840   2.589   9.896   5.522 -1.2932 -0.2997  0.0461
69744SOL     OW26841   6.080   6.297  11.376  0.1716  0.2192 -0.1016
69744SOL    HW126842   6.079   6.373  11.319  1.7545 -0.6376 -1.3696
69744SOL    HW226843   6.171   6.287  11.403  0.0754 -1.3990 -0.2368
69745SOL     OW26844   3.861  10.636   0.148 -0.3949 -0.2430  0.2036
69745SOL    HW126845   3.776  10.591   0.148 -1.1127  0.9654 -1.5478
69745SOL    HW226846   3.866  10.677   0.235 -1.5375 -0.4640  0.3969
69746SOL     OW26847  12.501  11.070   7.037  0.3457 -0.5291  0.0798
69746SOL    HW126848  12.425  11.101   7.085 -0.0566 -1.1504 -0.1315
69746SOL    HW226849  12.537  11.148   6.994  0.6993  0.0211  1.3520
69747SOL     OW26850  12.424   2.347   1.595 -0.4156 -0.1583  0.1319
69747SOL    HW126851  12.403   2.440   1.587 -0.0144  0.0466  1.3067
69747SOL    HW226852  12.450   2.321   1.507 -0.7282  0.7907 -0.2546
69748SOL     OW26853   1.280  10.115   1.033  0.4412  0.1094  0.2355
69748SOL    HW126854   1.314  10.025   1.043  0.7761  0.4535  3.1234
69748SOL    HW226855   1.185  10.105   1.037  0.4823 -0.0731  2.3137
69749SOL     OW26856   0.766   6.368  11.331  0.7672 -0.2137 -0.2942
69749SOL    HW126857   0.725   6.430  11.392  1.0086  0.3140 -0.6626
69749SOL    HW226858   0.692   6.328  11.284  0.6220 -0.0554 -0.2016
69750SOL     OW26859   8.850   2.315   6.224 -0.0888 -0.0157  0.0756
69750SOL    HW126860   8.812   2.234   6.191 -0.4686 -1.1144  2.8768
69750SOL    HW226861   8.775   2.372   6.241  0.0680  0.4050 -0.6414
69751SOL     OW26862   6.246   6.327   2.473 -0.0036  0.3718  1.1213
69751SOL    HW126863   6.262   6.418   2.500  2.2139  0.7239 -1.0108
69751SOL    HW226864   6.332   6.296   2.444 -1.6344 -0.5258 -3.4819
69752SOL     OW26865   6.883   7.415   1.889 -1.0390 -0.2387 -0.2453
69752SOL    HW126866   6.814   7.481   1.895 -1.4618 -0.7517  0.6227
69752SOL    HW226867   6.843   7.335   1.921 -0.1965 -0.6620 -0.2311
69753SOL     OW26868   2.355   9.914   6.792 -0.1442 -0.0650 -0.2397
69753SOL    HW126869   2.314   9.981   6.847  0.0432 -0.4412  0.3738
69753SOL    HW226870   2.415   9.963   6.735  0.8565  0.1958  0.9883
69754SOL     OW26871  11.759   8.962   7.258  0.5811  0.6102  0.0095
69754SOL    HW126872  11.744   8.975   7.352  3.5830  0.7482  0.5792
69754SOL    HW226873  11.788   8.871   7.251  0.5949  0.6724 -0.7560
69755SOL     OW26874   0.697   2.274  11.523 -0.7140 -0.0887 -0.1080
69755SOL    HW126875   0.658   2.350  11.567  0.6305 -1.4214  3.7536
69755SOL    HW226876   0.738   2.310  11.445  0.7767  3.4168  2.0723
69756SOL     OW26877   6.552   3.800   4.737  0.6496 -0.2521  0.1050
69756SOL    HW126878   6.630   3.769   4.782  1.5262  2.2728  0.4605
69756SOL    HW226879   6.585   3.840   4.656 -0.5713 -1.5523 -1.1003
69757SOL     OW26880   3.892   3.107   3.495 -0.0012  0.8137  0.2688
69757SOL    HW126881   3.913   3.099   3.588 -0.2250 -1.8010  0.1736
69757SOL    HW226882   3.823   3.173   3.491  0.7055  1.6835  1.8146
69758SOL     OW26883   9.663   7.797  13.338  0.0365 -0.0780 -0.6810
69758SOL    HW126884   9.723   7.862  13.374  1.7894 -1.2930 -1.2784
69758SOL    HW226885   9.717   7.718  13.326 -1.4897 -0.9827 -1.9794
69759SOL     OW26886   2.558  12.127   2.602 -0.4592  0.3191 -0.0603
69759SOL    HW126887   2.510  12.156   2.525 -0.8125  0.5673  0.2470
69759SOL    HW226888   2.573  12.207   2.653 -1.4877 -0.0203  0.8249
69760SOL     OW26889  11.015  13.894   4.443 -0.0138  0.0172  0.0652
69760SOL    HW126890  11.052  13.920   4.358 -0.9139 -0.3358 -0.4540
69760SOL    HW226891  10.944  13.833   4.421  1.3874 -2.1353  1.1999
69761SOL     OW26892   4.550   1.855   9.018  0.0644 -0.0975  0.2632
69761SOL    HW126893   4.489   1.829   8.949  1.3251 -1.4116 -0.3981
69761SOL    HW226894   4.549   1.951   9.016 -0.2888 -0.1070 -1.2631
69762SOL     OW26895   5.686   4.751   0.710  0.0661  0.2145  0.2048
69762SOL    HW126896   5.697   4.845   0.695 -0.3388  0.2402  0.0632
69762SOL    HW226897   5.703   4.740   0.804 -1.0150  0.6053  0.4595
69763SOL     OW26898   3.319   7.815   7.041 -0.4107 -0.4342 -0.0196
69763SOL    HW126899   3.370   7.765   7.105 -0.3983 -0.1798  0.1697
69763SOL    HW226900   3.382   7.872   6.999 -0.3891 -0.7208 -0.3792
69764SOL     OW26901   0.240   0.975   7.227 -0.3304  0.4137 -0.2706
69764SOL    HW126902   0.321   1.007   7.265  1.1435  0.4100 -3.0989
69764SOL    HW226903   0.190   1.055   7.206 -0.2136  0.5082 -0.1882
69765SOL     OW26904   6.204   0.283   0.145  0.1917  0.6751 -0.1624
69765SOL    HW126905   6.253   0.238   0.214  1.9326  2.5418 -0.0913
69765SOL    HW226906   6.204   0.222   0.072  0.7753 -0.2116  0.5516
69766SOL     OW26907  10.568   7.870   5.506  0.4121 -0.1148  0.0751
69766SOL    HW126908  10.644   7.830   5.550 -0.2856  0.6032  2.0556
69766SOL    HW226909  10.583   7.965   5.515 -0.3543  0.0335 -0.1559
69767SOL     OW26910   9.154   5.780   1.708 -0.1345 -0.2835  0.3136
69767SOL    HW126911   9.167   5.724   1.632  0.0142  0.2528 -0.0580
69767SOL    HW226912   9.114   5.722   1.774 -3.3441 -0.0142 -1.2161
69768SOL     OW26913   5.068   7.579   3.986 -0.1406 -0.1251  0.2254
69768SOL    HW126914   5.030   7.512   4.042  0.8359 -0.8714  0.0328
69768SOL    HW226915   5.153   7.543   3.960  0.2404  1.0220 -0.1981
69769SOL     OW26916   3.734   3.961   3.111  0.7958 -0.2464 -0.0035
69769SOL    HW126917   3.660   3.952   3.051  1.0345 -1.1470 -0.1825
69769SOL    HW226918   3.811   3.955   3.055  1.0117 -0.2960  0.2956
69770SOL     OW26919  12.705  10.135  10.016 -0.5056  0.3338  0.8963
69770SOL    HW126920  12.630  10.163  10.068  0.1260  2.5928  0.6936
69770SOL    HW226921  12.760  10.086  10.078 -1.5624 -0.3665  1.3195
69771SOL     OW26922   3.002   4.386  12.104 -0.0928 -0.3217  0.1750
69771SOL    HW126923   2.912   4.370  12.133 -0.5266 -1.3071 -1.5916
69771SOL    HW226924   3.002   4.477  12.073  0.1562  0.4525  2.2747
69772SOL     OW26925  11.793   0.491  12.841 -0.0160 -0.0794  0.0748
69772SOL    HW126926  11.776   0.464  12.751  0.2782  2.9415 -0.9792
69772SOL    HW226927  11.888   0.493  12.848  0.0080  1.7086 -0.2863
69773SOL     OW26928  12.952   5.689   0.812 -0.0271  0.4871 -0.1575
69773SOL    HW126929  12.942   5.627   0.740  2.0108  1.2018 -1.1342
69773SOL    HW226930  12.877   5.672   0.869 -0.0701 -2.1522 -0.8939
69774SOL     OW26931   8.064  13.300   9.863  0.5173 -0.1658 -0.1904
69774SOL    HW126932   8.075  13.348   9.945 -0.2166  1.0447 -0.7738
69774SOL    HW226933   8.149  13.307   9.820  0.3942  0.7361 -0.3141
69775SOL     OW26934  13.528   2.101   5.939  0.3623  0.2644 -0.0135
69775SOL    HW126935  13.548   2.008   5.949  0.1904  0.1103 -1.0846
69775SOL    HW226936  13.522   2.134   6.029 -1.3748 -1.1362  0.4327
69776SOL     OW26937   1.572  13.486   2.265 -0.0244 -0.4437 -0.3605
69776SOL    HW126938   1.540  13.427   2.196  0.9201 -1.8834  0.3764
69776SOL    HW226939   1.588  13.429   2.340  0.9887  0.7481  0.3735
69777SOL     OW26940   3.068   4.588   9.582  0.5582  0.7331 -0.3587
69777SOL    HW126941   2.983   4.607   9.621  0.9327 -0.4675  1.1577
69777SOL    HW226942   3.119   4.668   9.594 -0.1058  1.1859 -0.5522
69778SOL     OW26943   4.294  13.623   3.082  0.2345  0.0759  0.7161
69778SOL    HW126944   4.332  13.549   3.130 -1.4627  0.2138  2.3870
69778SOL    HW226945   4.203  13.626   3.110 -0.3806  1.3212 -1.2055
69779SOL     OW26946   3.388  13.130   0.070 -0.0067  0.1684 -0.8492
69779SOL    HW126947   3.439  13.051   0.051  2.4393  1.0620  1.3471
69779SOL    HW226948   3.336  13.107   0.147 -0.2728  0.3176 -0.9836
69780SOL     OW26949  12.382   4.612  11.921 -0.1665  0.3942 -0.2459
69780SOL    HW126950  12.291   4.630  11.896  0.1243 -0.6957 -2.3523
69780SOL    HW226951  12.430   4.690  11.892 -0.2001  0.2190 -0.7892
69781SOL     OW26952   0.767   1.491   4.167 -0.5762  0.9204 -0.2873
69781SOL    HW126953   0.732   1.556   4.228 -0.9255  0.9159 -0.4791
69781SOL    HW226954   0.746   1.407   4.206 -0.5273  0.9207 -0.2607
69782SOL     OW26955   5.534  12.456   4.624  0.1663 -0.3694 -0.5539
69782SOL    HW126956   5.612  12.408   4.651  0.6523  0.5370 -0.3015
69782SOL    HW226957   5.464  12.424   4.681  0.0867 -1.9424 -1.4616
69783SOL     OW26958   8.228   2.298   2.470  0.4545 -0.0513 -0.2871
69783SOL    HW126959   8.284   2.255   2.405 -1.2989  0.1665 -2.0528
69783SOL    HW226960   8.201   2.379   2.427 -1.5299 -0.3625  0.3028
69784SOL     OW26961   0.050   3.258   6.641  0.7070 -0.0595  0.0253
69784SOL    HW126962   0.039   3.163   6.633 -0.2518  0.0720 -0.2802
69784SOL    HW226963   0.105   3.269   6.719  0.1606 -0.8436  0.5366
69785SOL     OW26964  10.085   4.056   3.032  0.2633  0.4409  0.4719
69785SOL    HW126965  10.069   4.003   3.110 -0.6755  1.3849  0.9473
69785SOL    HW226966  10.087   3.993   2.960 -1.7686 -0.1854  0.9032
69786SOL     OW26967   4.507  12.551   7.805  0.2060  0.4573 -0.3160
69786SOL    HW126968   4.591  12.507   7.804  0.7765  1.4621  0.5673
69786SOL    HW226969   4.514  12.619   7.737  0.6268  1.3881  0.6177
69787SOL     OW26970   7.409  13.123  10.561  0.3436 -0.3228 -0.1800
69787SOL    HW126971   7.421  13.178  10.483  0.4560 -1.4378 -0.9606
69787SOL    HW226972   7.360  13.047  10.530 -2.4099  0.6378  1.4608
69788SOL     OW26973   3.398  12.572   0.971 -0.3095 -0.2942 -0.0475
69788SOL    HW126974   3.375  12.627   0.896 -0.4989  2.6616  2.0496
69788SOL    HW226975   3.439  12.495   0.931 -0.3427  1.1273 -3.1660
69789SOL     OW26976   1.180   9.828   6.110  0.0301 -0.3381  0.0475
69789SOL    HW126977   1.230   9.749   6.091  1.7551  0.5767  0.6142
69789SOL    HW226978   1.098   9.796   6.149  0.1402 -1.8657 -0.9143
69790SOL     OW26979  12.038   9.191   8.588 -0.4837  0.3463 -0.2734
69790SOL    HW126980  12.072   9.207   8.676 -2.8374  0.7446  0.6547
69790SOL    HW226981  12.054   9.272   8.541 -2.8052  1.7681  1.1341
69791SOL     OW26982   9.277   4.512  12.525  0.0348 -0.3694 -0.1320
69791SOL    HW126983   9.253   4.481  12.612  1.2972 -1.4640 -0.1459
69791SOL    HW226984   9.307   4.602  12.539  0.6331 -0.6813  0.6334
69792SOL     OW26985   1.262  11.569   9.252  0.0096  0.6811  0.0961
69792SOL    HW126986   1.216  11.492   9.219 -0.2700  1.0372 -0.3548
69792SOL    HW226987   1.342  11.534   9.291  0.9681  0.3229 -2.0509
69793SOL     OW26988   5.580  12.288   9.860 -0.1868 -0.4082 -0.0214
69793SOL    HW126989   5.580  12.365   9.803 -0.9561  0.6290  1.3113
69793SOL    HW226990   5.671  12.282   9.890 -0.4866  1.2765  1.4430
69794SOL     OW26991   5.258  12.732  13.285 -0.4490 -0.4243  0.0363
69794SOL    HW126992   5.334  12.789  13.274  0.6484 -1.8779 -0.1131
69794SOL    HW226993   5.200  12.782  13.343  0.9669  0.3753  0.8282
69795SOL     OW26994  12.040   5.358  12.577  0.0808  0.0513  0.5119
69795SOL    HW126995  11.968   5.304  12.609  0.6224 -1.1565 -0.2438
69795SOL    HW226996  11.996   5.431  12.532 -0.6732  1.1272  2.8240
69796SOL     OW26997   5.410   7.757  12.801 -0.3205 -0.9048  0.2291
69796SOL    HW126998   5.379   7.667  12.800  1.4365 -1.5763  1.0272
69796SOL    HW226999   5.501   7.750  12.830 -0.6339  1.2687  1.9936
69797SOL     OW27000   4.101   4.589  10.068  0.0179 -0.6213  0.1894
69797SOL    HW127001   4.095   4.513  10.126  1.0104  1.1459  2.8457
69797SOL    HW227002   4.096   4.553   9.980  0.5796 -3.7608  1.3068
69798SOL     OW27003   9.521   5.284  11.424  0.1358 -0.4867  0.5779
69798SOL    HW127004   9.610   5.307  11.398  0.1427 -1.0553  0.1040
69798SOL    HW227005   9.465   5.321  11.356  0.0344 -0.4572  0.6764
69799SOL     OW27006   7.542  11.122   8.833  0.1962 -0.5659 -0.3067
69799SOL    HW127007   7.477  11.158   8.772  0.0350 -0.8511 -0.3022
69799SOL    HW227008   7.620  11.109   8.779 -0.1541 -1.4583 -0.6135
69800SOL     OW27009   1.615   8.773   4.654 -0.0442  0.2702  0.0914
69800SOL    HW127010   1.576   8.812   4.576 -0.5240  0.8740  0.6241
69800SOL    HW227011   1.541   8.739   4.704  0.1687  0.7527  0.7454
69801SOL     OW27012   7.479  12.583  10.198  0.5465  0.3059  0.4839
69801SOL    HW127013   7.420  12.626  10.136  0.4646  1.8698  1.5973
69801SOL    HW227014   7.421  12.538  10.259  0.6390 -2.2134 -1.1503
69802SOL     OW27015   6.953  12.120   8.034 -0.0898 -0.0901  0.2397
69802SOL    HW127016   7.043  12.119   8.000  0.2340 -1.6460  1.0543
69802SOL    HW227017   6.963  12.117   8.129 -1.0052  0.1834  0.3560
69803SOL     OW27018   9.389   2.610   2.026 -0.9444  0.4969 -0.0299
69803SOL    HW127019   9.348   2.664   2.093 -2.1423  0.8993 -1.0477
69803SOL    HW227020   9.319   2.550   1.998 -1.7997  2.8743 -3.6240
69804SOL     OW27021  12.733   9.989  13.570 -0.1374  0.4579  0.0009
69804SOL    HW127022  12.778   9.941  13.640 -0.0528 -0.4733 -0.6822
69804SOL    HW227023  12.745  10.081  13.593  1.6423  0.2154  0.1265
69805SOL     OW27024  11.475  12.855   0.540 -0.1965  0.1772  0.3126
69805SOL    HW127025  11.425  12.931   0.510  0.0402  0.4812  0.6887
69805SOL    HW227026  11.422  12.818   0.611 -0.1569  0.1741  0.3405
69806SOL     OW27027   2.241  12.300   0.455 -0.2489 -0.0654  0.2610
69806SOL    HW127028   2.317  12.312   0.398  0.6033 -2.3074  0.8141
69806SOL    HW227029   2.275  12.252   0.530 -2.3538 -1.8882  0.1338
69807SOL     OW27030   0.941   4.791  13.292  0.0949 -0.3977  0.0895
69807SOL    HW127031   1.028   4.807  13.329  0.8173 -3.9389  0.2746
69807SOL    HW227032   0.884   4.785  13.369  0.1522 -0.4361  0.1298
69808SOL     OW27033   7.440   1.282   4.938 -0.1710 -0.7520  0.4217
69808SOL    HW127034   7.417   1.201   4.982 -0.8012 -0.7763  0.0660
69808SOL    HW227035   7.413   1.268   4.847 -0.3435 -0.1248  0.3712
69809SOL     OW27036  14.032   6.607  10.056  0.2755  0.1683  0.0537
69809SOL    HW127037  14.087   6.684  10.044  0.1922  0.0896 -0.9014
69809SOL    HW227038  13.945   6.634  10.027 -0.0109  0.0440  0.7739
69810SOL     OW27039   9.044  13.562   9.072 -0.4373 -0.5529  0.2944
69810SOL    HW127040   9.062  13.636   9.130 -0.4164 -0.2142 -0.1382
69810SOL    HW227041   9.111  13.497   9.094 -1.4422 -1.1163  1.8063
69811SOL     OW27042  12.477   3.318  13.266  0.1171  0.1340  0.0318
69811SOL    HW127043  12.520   3.289  13.186  0.2672  1.6678 -0.4813
69811SOL    HW227044  12.444   3.405  13.245 -1.0694  0.0049  1.2106
69812SOL     OW27045   9.861   8.292   4.005 -0.5706 -0.1662  0.0151
69812SOL    HW127046   9.787   8.348   3.982  0.0727  0.2546 -1.0798
69812SOL    HW227047   9.921   8.300   3.931  0.3465 -0.8939  0.6656
69813SOL     OW27048   1.531  10.228  13.769 -0.4417 -0.4549  0.7279
69813SOL    HW127049   1.440  10.227  13.739 -0.4311 -0.8922  0.6913
69813SOL    HW227050   1.543  10.141  13.808  0.7844 -1.5069 -1.7917
69814SOL     OW27051   9.310   5.379  13.928  0.0225  0.6921 -0.9095
69814SOL    HW127052   9.232   5.365  13.875  0.4117  0.3019 -1.3837
69814SOL    HW227053   9.277   5.382  14.018 -0.6363  1.3341 -1.1553
69815SOL     OW27054  13.049  13.420   0.662 -0.1791  0.3961  0.4049
69815SOL    HW127055  12.996  13.499   0.653  1.7564  1.6776 -0.3641
69815SOL    HW227056  13.129  13.450   0.704  0.7160 -1.1119 -0.1586
69816SOL     OW27057  11.370   9.811   7.886 -0.3040 -0.3746 -0.8789
69816SOL    HW127058  11.456   9.774   7.908  0.8644  2.1108 -0.8779
69816SOL    HW227059  11.337   9.756   7.816  1.2602 -1.4468 -0.8222
69817SOL     OW27060   3.079   2.599   8.141  0.7023 -0.3250 -0.0648
69817SOL    HW127061   3.017   2.638   8.079  0.5853 -1.1659 -0.4924
69817SOL    HW227062   3.123   2.674   8.181 -1.2750  0.3323  0.9708
69818SOL     OW27063   8.029  11.925  10.608  0.6700 -0.3736 -0.4581
69818SOL    HW127064   8.057  11.978  10.683  3.2641  0.5417 -1.9231
69818SOL    HW227065   7.988  11.988  10.549  0.1422 -0.7716 -0.5167
69819SOL     OW27066   9.435  11.971   8.654 -0.0235  0.4373  0.0691
69819SOL    HW127067   9.467  11.884   8.633  0.3173  0.1480  1.6258
69819SOL    HW227068   9.468  12.027   8.584 -1.6654 -0.9006 -1.9150
69820SOL     OW27069   8.899   3.094  12.388  0.1103  0.1285 -0.6158
69820SOL    HW127070   8.824   3.074  12.445  0.6834  0.1899  0.1706
69820SOL    HW227071   8.938   3.172  12.426 -0.1427  0.8309 -1.7476
69821SOL     OW27072   2.819   3.978  13.117  0.3794  0.1323 -0.2168
69821SOL    HW127073   2.760   4.052  13.111  0.7598  0.4862  0.2729
69821SOL    HW227074   2.812   3.949  13.208 -0.6263 -1.1632 -0.6743
69822SOL     OW27075  13.803  12.611   8.996  0.8632  0.2273  0.3161
69822SOL    HW127076  13.768  12.609   8.907 -0.8127 -3.1326  0.8706
69822SOL    HW227077  13.895  12.587   8.986  0.5623 -0.6527 -0.5069
69823SOL     OW27078   1.572   7.566   5.093  0.2131  0.2459  0.3486
69823SOL    HW127079   1.561   7.582   5.187 -0.1252  1.2886  0.1401
69823SOL    HW227080   1.502   7.616   5.052  0.6191  0.1373 -0.4876
69824SOL     OW27081   5.710  10.925  10.855 -0.2283  0.0575 -0.1467
69824SOL    HW127082   5.615  10.915  10.853 -0.1944 -0.1298 -1.1067
69824SOL    HW227083   5.724  11.016  10.880 -0.7211  0.8696 -2.5644
69825SOL     OW27084  12.254   4.930   4.450  0.0444  0.2453 -0.1373
69825SOL    HW127085  12.231   4.855   4.504  0.8110  0.6543  0.7815
69825SOL    HW227086  12.182   4.937   4.387 -0.4292 -0.7628  0.2747
69826SOL     OW27087  10.991   1.324   0.162 -0.0689 -0.1346 -1.1015
69826SOL    HW127088  10.995   1.380   0.240 -0.2511  0.0780 -1.2443
69826SOL    HW227089  10.969   1.238   0.196 -0.5509  0.0435 -0.9575
69827SOL     OW27090   1.449   1.643   2.833  0.0538  0.9392  0.4588
69827SOL    HW127091   1.511   1.700   2.788 -0.8426  0.4568 -1.4671
69827SOL    HW227092   1.503   1.593   2.894  1.5530  0.6788 -1.0058
69828SOL     OW27093   9.036  10.610   5.079  0.2459 -0.5907 -0.1070
69828SOL    HW127094   9.047  10.516   5.064 -1.8199 -0.8132 -0.4322
69828SOL    HW227095   8.968  10.637   5.018 -0.5088  0.7435  1.2465
69829SOL     OW27096   9.443   2.540   6.278  0.0284  0.0027  0.8583
69829SOL    HW127097   9.536   2.547   6.300  0.0488  0.4803  0.6235
69829SOL    HW227098   9.402   2.615   6.321 -0.3875 -0.6660  1.6591
69830SOL     OW27099   0.950   7.824  10.745  0.0790  0.2422  0.2286
69830SOL    HW127100   0.980   7.914  10.755  0.8472 -0.0354  0.4405
69830SOL    HW227101   0.871   7.819  10.799  1.1080  0.2607  1.7742
69831SOL     OW27102  13.010   8.294   4.461 -0.0925 -0.3159 -0.0326
69831SOL    HW127103  12.939   8.280   4.524 -0.6377  0.8692 -0.3568
69831SOL    HW227104  13.069   8.355   4.505 -0.9430  1.2630 -0.9611
69832SOL     OW27105  11.182  11.012  10.958 -0.0381 -0.0554 -0.7109
69832SOL    HW127106  11.180  11.107  10.955 -1.2987 -0.0464 -0.3287
69832SOL    HW227107  11.095  10.987  10.991 -0.1094 -1.3731 -1.7908
69833SOL     OW27108   0.598   2.074  12.138 -0.5637  0.4113  0.1518
69833SOL    HW127109   0.521   2.047  12.089 -1.7771  2.1854  1.0075
69833SOL    HW227110   0.648   2.128  12.077 -1.1696  1.1514  0.3063
69834SOL     OW27111   0.595   0.920   6.175 -0.0949  0.1712 -0.0797
69834SOL    HW127112   0.604   0.980   6.101  1.1768 -0.9842 -0.8987
69834SOL    HW227113   0.611   0.834   6.138 -0.0703 -0.5028  1.4385
69835SOL     OW27114   4.011   7.867   3.759  0.2395 -0.1418 -0.3633
69835SOL    HW127115   3.963   7.903   3.685  2.8948  1.0450 -1.6558
69835SOL    HW227116   3.984   7.921   3.834  0.9166  1.8135 -1.4387
69836SOL     OW27117  13.795   3.779  12.854 -0.1817 -0.0652 -0.2430
69836SOL    HW127118  13.855   3.727  12.800  0.8797 -0.2987  1.1178
69836SOL    HW227119  13.824   3.869  12.840  0.5767 -0.1859  0.4940
69837SOL     OW27120   9.178   8.102   4.895 -0.4097  0.8869 -0.2690
69837SOL    HW127121   9.259   8.107   4.945 -0.5262  1.9290 -0.1645
69837SOL    HW227122   9.159   8.192   4.871 -2.3906  0.9070  1.0919
69838SOL     OW27123   4.411   4.822   8.248  0.2576  0.5685 -0.0522
69838SOL    HW127124   4.323   4.824   8.285  0.0831  0.9697 -0.4736
69838SOL    HW227125   4.449   4.908   8.268 -0.3606  1.3534 -1.9881
69839SOL     OW27126   6.204   0.147  13.210  0.3335 -0.2235 -1.0849
69839SOL    HW127127   6.110   0.159  13.204  0.5406  0.7518 -3.5105
69839SOL    HW227128   6.236   0.222  13.260 -0.1045 -0.1422 -0.9309
69840SOL     OW27129   7.119  12.889   6.785  0.3604  0.0918  0.6581
69840SOL    HW127130   7.130  12.958   6.850  0.7635 -0.2958  1.0131
69840SOL    HW227131   7.065  12.928   6.716  0.8171  0.8485  0.7161
69841SOL     OW27132  10.829   3.425   9.847  0.0865  0.1367 -0.2693
69841SOL    HW127133  10.789   3.475   9.776 -0.7838  1.5756  1.1494
69841SOL    HW227134  10.853   3.492   9.912  5.1560 -0.5147 -1.0590
69842SOL     OW27135  11.345   3.358  12.238  0.1438 -0.2140 -0.2949
69842SOL    HW127136  11.272   3.363  12.176 -1.0973  1.1587  1.1904
69842SOL    HW227137  11.309   3.315  12.315  1.5420 -1.5011 -0.3186
69843SOL     OW27138   9.885   8.436   3.532 -0.0734 -0.1985 -0.1711
69843SOL    HW127139   9.931   8.431   3.448 -0.5313  1.7172 -0.5780
69843SOL    HW227140   9.793   8.427   3.509 -0.2650  1.1677 -0.0078
69844SOL     OW27141  12.459   9.609  12.428 -0.2624  0.3308 -0.2923
69844SOL    HW127142  12.464   9.645  12.339  0.1837  0.6637 -0.1375
69844SOL    HW227143  12.374   9.640  12.461 -0.0342  0.9653 -0.2858
69845SOL     OW27144   3.969  12.704   9.831 -0.2452 -0.0460 -0.7589
69845SOL    HW127145   3.913  12.716   9.908 -0.0345 -0.8419 -0.4739
69845SOL    HW227146   3.908  12.693   9.758 -0.4608  1.8034 -0.9201
69846SOL     OW27147  13.448   1.993  10.206  0.1219  0.4112 -0.2169
69846SOL    HW127148  13.534   2.026  10.181 -0.7137  1.6166 -1.7223
69846SOL    HW227149  13.437   1.912  10.156  1.2757 -1.0368  1.7678
69847SOL     OW27150   0.388   9.358   4.797 -0.0943 -0.4155  0.1133
69847SOL    HW127151   0.442   9.409   4.858 -0.8575  1.3244 -0.5739
69847SOL    HW227152   0.299   9.363   4.833 -0.2721 -0.7909 -0.2615
69848SOL     OW27153   6.527   1.335   7.977 -0.4687 -0.3730 -0.6080
69848SOL    HW127154   6.537   1.289   8.060  0.1355 -2.4012 -1.7377
69848SOL    HW227155   6.508   1.425   8.002  2.0191 -0.3595  1.7678
69849SOL     OW27156   1.189   5.826  10.422 -0.3370  0.3826 -0.0078
69849SOL    HW127157   1.144   5.783  10.494  1.1309 -0.4171  0.4816
69849SOL    HW227158   1.282   5.817  10.443  0.0799  1.7738 -1.0760
69850SOL     OW27159   4.585   4.146   2.087 -0.3178  0.7011  0.4160
69850SOL    HW127160   4.604   4.159   1.994 -0.9345 -1.0365  0.0057
69850SOL    HW227161   4.494   4.174   2.097 -0.6220 -0.1775  0.2221
69851SOL     OW27162   1.938  11.521   9.901 -0.3700 -0.5672  0.7736
69851SOL    HW127163   1.866  11.480   9.853  0.2971 -1.5480  0.5680
69851SOL    HW227164   2.016  11.473   9.872  0.8717  2.4246 -1.3749
69852SOL     OW27165   2.987   4.221  14.080 -0.7093 -0.2832  0.7615
69852SOL    HW127166   2.987   4.307  14.039  1.6306  0.1040  1.4080
69852SOL    HW227167   2.995   4.239  14.174  0.9940 -1.1445  0.8300
69853SOL     OW27168   1.832   4.102  10.385 -0.4744  0.2513  0.6079
69853SOL    HW127169   1.780   4.069  10.312  0.4746  0.2349 -0.0767
69853SOL    HW227170   1.780   4.174  10.421 -0.9443  0.2638 -0.0865
69854SOL     OW27171   7.511  10.229  12.467  0.2871 -0.2859  0.0886
69854SOL    HW127172   7.595  10.184  12.479  0.5787 -0.1549 -1.2948
69854SOL    HW227173   7.520  10.309  12.518  1.3234  0.0976 -0.6669
69855SOL     OW27174   6.428  10.818  11.399  0.4285 -0.4245  0.4440
69855SOL    HW127175   6.369  10.893  11.395  0.5047 -0.3945 -0.3536
69855SOL    HW227176   6.370  10.741  11.403  0.3522 -0.3128  1.7232
69856SOL     OW27177  12.859   1.062   0.072 -0.5243 -0.3806  0.3287
69856SOL    HW127178  12.939   1.018   0.042  0.3111  0.7951  0.7328
69856SOL    HW227179  12.816   0.997   0.128  0.0491 -1.1002 -0.0400
69857SOL     OW27180  13.309  10.558   7.706  0.0630 -0.0233  0.0409
69857SOL    HW127181  13.309  10.508   7.787  1.9935 -2.4538 -1.3279
69857SOL    HW227182  13.296  10.493   7.637 -0.5779  1.8257 -1.6970
69858SOL     OW27183   0.493  11.927  12.944 -0.3494  0.4308 -0.0070
69858SOL    HW127184   0.409  11.893  12.912  0.2663  0.4646 -1.7238
69858SOL    HW227185   0.556  11.858  12.925  0.2130  0.8602  0.2554
69859SOL     OW27186   1.901  10.327   9.154  0.0311  0.7943  0.3462
69859SOL    HW127187   1.864  10.240   9.144 -1.3392  0.9412  3.0630
69859SOL    HW227188   1.903  10.363   9.066  0.4494 -1.8697 -0.8200
69860SOL     OW27189   6.552   1.564  13.590 -0.7017  0.1540 -0.0641
69860SOL    HW127190   6.534   1.649  13.551  0.0352  0.6627  0.6849
69860SOL    HW227191   6.502   1.564  13.671 -1.8343 -0.7056 -0.7300
69861SOL     OW27192   9.255   5.860   4.908 -0.1162  0.2053  0.3115
69861SOL    HW127193   9.196   5.799   4.865  1.3801 -1.6341  0.7625
69861SOL    HW227194   9.208   5.888   4.987 -1.8541  1.7014 -1.1622
69862SOL     OW27195   8.858   2.222  11.641  0.1381  0.6459  0.3447
69862SOL    HW127196   8.822   2.298  11.596  1.2963  0.0729 -1.6626
69862SOL    HW227197   8.947   2.249  11.664  0.1640  0.2894  0.6612
69863SOL     OW27198   6.118   2.985   2.048 -0.6547 -1.0401  0.1955
69863SOL    HW127199   6.070   2.966   1.967 -1.0135 -1.4307  0.4959
69863SOL    HW227200   6.206   3.008   2.019 -1.1263  0.0701 -0.3888
69864SOL     OW27201  11.895   3.184   9.736 -0.1129  0.0068  0.4917
69864SOL    HW127202  11.875   3.277   9.730  0.5684  0.0808 -1.6575
69864SOL    HW227203  11.814   3.140   9.710 -0.3944 -0.0157  1.3758
69865SOL     OW27204   3.334   3.334   9.992  0.2828 -0.6693 -0.5489
69865SOL    HW127205   3.254   3.334   9.938 -0.2570  0.4038  0.2111
69865SOL    HW227206   3.328   3.253  10.043 -1.9198  0.7478  1.6959
69866SOL     OW27207   9.601   3.357   9.433  0.0693 -0.1266  0.6862
69866SOL    HW127208   9.605   3.379   9.526 -1.4969 -0.0614  0.7550
69866SOL    HW227209   9.630   3.266   9.429 -2.2071 -0.9630  1.6053
69867SOL     OW27210  11.853  10.553   1.958 -0.0353 -0.0417  0.4443
69867SOL    HW127211  11.837  10.479   1.900  0.8116  0.0652  0.0506
69867SOL    HW227212  11.788  10.545   2.027 -1.2915  0.0305 -0.7061
69868SOL     OW27213  10.371  10.307   1.891 -0.5447 -0.3804 -0.4804
69868SOL    HW127214  10.396  10.397   1.914  0.6322 -0.5103 -1.1646
69868SOL    HW227215  10.380  10.259   1.973 -0.7401  0.0400 -0.2072
69869SOL     OW27216   4.644   1.871   7.919 -0.0994  0.2810 -0.2828
69869SOL    HW127217   4.612   1.787   7.951 -1.9401  0.7566 -0.7719
69869SOL    HW227218   4.605   1.936   7.978  1.3386  0.8249  0.1246
69870SOL     OW27219   1.199   5.350   1.794 -0.5217  0.2567 -0.1953
69870SOL    HW127220   1.238   5.330   1.879  0.5803  2.0696 -0.2384
69870SOL    HW227221   1.231   5.279   1.737  0.6944  0.3326  0.3558
69871SOL     OW27222   1.993  12.342   3.051 -0.0819 -0.5314  0.0356
69871SOL    HW127223   1.953  12.379   3.129 -0.4647  0.0875 -0.4433
69871SOL    HW227224   1.934  12.368   2.980  0.2546 -1.0938 -0.4538
69872SOL     OW27225   9.019   1.469  13.635  0.0045 -0.3825  0.9157
69872SOL    HW127226   9.100   1.461  13.685 -0.3064 -1.3164  1.2959
69872SOL    HW227227   9.042   1.524  13.560  1.5735 -2.3182 -0.1297
69873SOL     OW27228   5.829  10.674   5.235  0.4228  0.1706  0.0662
69873SOL    HW127229   5.860  10.678   5.325 -1.4655  1.5388  0.7327
69873SOL    HW227230   5.898  10.716   5.183  0.2238  2.2122  1.3290
69874SOL     OW27231   0.678  13.100   2.927  0.0378  0.0626  0.2519
69874SOL    HW127232   0.630  13.168   2.879 -1.1511 -1.5427 -0.9109
69874SOL    HW227233   0.682  13.134   3.017  0.0379  1.9494 -0.4044
69875SOL     OW27234  13.091   7.226   0.843  0.2787  0.1828 -0.2355
69875SOL    HW127235  13.070   7.242   0.935 -5.3460 -0.5154 -1.0373
69875SOL    HW227236  13.082   7.132   0.831 -2.2365  0.5295 -1.9084
69876SOL     OW27237   0.008   0.727  10.190 -0.1263  0.0723 -0.0665
69876SOL    HW127238  -0.026   0.816  10.201 -0.9551 -0.2379 -0.0135
69876SOL    HW227239  -0.029   0.697  10.107  1.2848  0.2707 -0.7857
69877SOL     OW27240   3.382   7.808  12.966 -0.0088  0.5362  0.8463
69877SOL    HW127241   3.362   7.726  13.012 -0.7438 -0.0658 -0.4936
69877SOL    HW227242   3.300   7.832  12.923 -0.1958  2.7180  2.2410
69878SOL     OW27243   3.723   8.865   6.594 -0.6730 -0.8022  0.6263
69878SOL    HW127244   3.780   8.882   6.520 -0.1196  0.7947  1.3743
69878SOL    HW227245   3.751   8.779   6.627 -0.0091 -0.8968 -0.1704
69879SOL     OW27246  10.991  10.009  10.799 -0.3209  0.0555 -0.2542
69879SOL    HW127247  11.062  10.006  10.863 -1.2392  0.9961  0.8442
69879SOL    HW227248  10.960  10.099  10.802 -0.7418 -0.0193 -1.6508
69880SOL     OW27249   4.081   3.219   5.609 -0.5089 -0.3345  0.0053
69880SOL    HW127250   4.156   3.278   5.620 -0.7585 -0.0658  0.2984
69880SOL    HW227251   4.008   3.265   5.651 -0.9156 -0.4359 -0.5774
69881SOL     OW27252   1.620   2.608   6.722  0.4794  0.0693  0.1979
69881SOL    HW127253   1.710   2.579   6.710  0.4958 -0.1183  0.7577
69881SOL    HW227254   1.601   2.592   6.815 -0.4535 -0.7935 -0.1297
69882SOL     OW27255   2.406   3.448  10.022 -0.4858 -0.1372  0.7622
69882SOL    HW127256   2.456   3.443   9.941 -1.4724 -0.3904  0.1525
69882SOL    HW227257   2.461   3.501  10.080  0.1471  0.2242 -0.1295
69883SOL     OW27258   0.936   1.706   7.489  0.7757  0.1323 -0.5770
69883SOL    HW127259   1.030   1.693   7.475  1.1003  0.3165  1.1737
69883SOL    HW227260   0.925   1.801   7.485  1.1715  0.3362  1.7370
69884SOL     OW27261   8.319   2.588   1.948 -0.3718  0.2566  0.2940
69884SOL    HW127262   8.322   2.682   1.927  0.8720  0.5670  1.7215
69884SOL    HW227263   8.336   2.545   1.864  0.7306  1.3618 -0.0912
69885SOL     OW27264   0.911   4.867   5.600 -0.1822 -0.1716 -0.1094
69885SOL    HW127265   0.932   4.776   5.621 -0.9860 -0.7774 -1.7705
69885SOL    HW227266   0.858   4.897   5.673  0.9514 -0.6885  0.9573
69886SOL     OW27267   0.350  10.824   5.593 -0.5601 -0.1683  0.0403
69886SOL    HW127268   0.319  10.760   5.657  2.2202 -1.8924 -0.1866
69886SOL    HW227269   0.334  10.783   5.508 -1.3355  0.7256 -0.2633
69887SOL     OW27270  13.672   8.980  12.417  0.7882  0.0285 -0.0762
69887SOL    HW127271  13.663   8.886  12.399  1.4105 -0.3695  1.4722
69887SOL    HW227272  13.723   8.983  12.498 -0.9502  1.6473  1.0275
69888SOL     OW27273   5.973   0.674   2.215  0.7417 -0.8664 -0.0774
69888SOL    HW127274   6.053   0.632   2.184  1.9546 -1.6066  3.5373
69888SOL    HW227275   6.003   0.737   2.281 -1.6203 -0.7540  0.9959
69889SOL     OW27276   4.950  13.842   2.667  0.0792  0.0503  0.7595
69889SOL    HW127277   4.962  13.933   2.692 -0.4227 -0.2334  2.1475
69889SOL    HW227278   4.952  13.794   2.750 -1.7973 -0.9589  0.2845
69890SOL     OW27279   1.828   1.499   1.614 -0.1184 -0.5150 -0.2706
69890SOL    HW127280   1.889   1.425   1.616 -0.3629 -0.7006  0.4109
69890SOL    HW227281   1.880   1.572   1.580 -0.0168 -1.1206 -1.5031
69891SOL     OW27282   6.801   0.568  14.021 -0.5921  0.3416  0.1209
69891SOL    HW127283   6.750   0.540  13.946 -2.1745 -1.4827  1.7716
69891SOL    HW227284   6.834   0.487  14.060 -0.4773  1.1613  1.8476
69892SOL     OW27285   8.492  12.649   1.683  0.2443  0.0313 -0.0188
69892SOL    HW127286   8.449  12.729   1.713  0.1540 -0.5357  1.4478
69892SOL    HW227287   8.439  12.619   1.609  0.1758  1.2051 -0.4691
69893SOL     OW27288   5.797  13.332  11.640 -0.2534 -0.0306  0.0485
69893SOL    HW127289   5.752  13.260  11.595 -0.2808  0.6102 -0.9839
69893SOL    HW227290   5.743  13.351  11.716 -1.9516  0.9476 -1.3443
69894SOL     OW27291   9.132   6.697   7.174  0.1647 -0.2835 -0.1015
69894SOL    HW127292   9.189   6.759   7.129 -0.7765  0.1045 -0.8018
69894SOL    HW227293   9.045   6.713   7.136 -0.1598 -1.7917 -0.0433
69895SOL     OW27294  10.643   7.572   9.199 -0.0833 -0.1190 -0.3053
69895SOL    HW127295  10.573   7.570   9.134  0.1033 -0.0290 -0.5104
69895SOL    HW227296  10.598   7.589   9.282 -0.3265 -0.2768 -0.4033
69896SOL     OW27297   3.151   7.429   8.155 -0.3044  0.0475  0.0464
69896SOL    HW127298   3.065   7.388   8.147 -0.8017  1.2908 -1.5355
69896SOL    HW227299   3.183   7.435   8.065  0.1905  2.1155  0.3162
69897SOL     OW27300  11.023   9.110  12.841 -0.4558 -0.1244 -0.0213
69897SOL    HW127301  11.089   9.041  12.831 -0.3370 -0.9306  4.1710
69897SOL    HW227302  11.067   9.189  12.811  1.6365 -1.0165  0.4554
69898SOL     OW27303   3.021  11.657  13.629 -0.0206  0.2498  0.1979
69898SOL    HW127304   3.048  11.575  13.671 -3.0792 -1.2826 -0.5504
69898SOL    HW227305   3.095  11.682  13.574  0.7887 -2.3685 -0.0154
69899SOL     OW27306   0.545  11.119  10.542 -0.7945 -0.0927  0.0732
69899SOL    HW127307   0.622  11.117  10.599  1.3622 -0.0999 -2.6356
69899SOL    HW227308   0.505  11.033  10.554  0.3428 -0.5771  0.5922
69900SOL     OW27309  11.115  12.725   1.517  0.2677  0.4917  0.1015
69900SOL    HW127310  11.103  12.812   1.554  1.3832  1.2096 -1.1499
69900SOL    HW227311  11.154  12.673   1.588 -1.2482  0.7134  1.1486
69901SOL     OW27312  12.402   1.332  10.624  0.3392 -0.4238 -0.2522
69901SOL    HW127313  12.431   1.289  10.705 -0.0443 -1.4732 -0.6514
69901SOL    HW227314  12.408   1.264  10.557 -1.7513 -0.3161 -0.6210
69902SOL     OW27315   8.934   5.357   0.010 -0.2047  0.5481 -0.1443
69902SOL    HW127316   9.006   5.294   0.018  0.8492  1.6167 -1.0137
69902SOL    HW227317   8.899   5.362   0.099  0.0659 -0.8103  0.0730
69903SOL     OW27318   6.618  10.644  14.006  0.3603  0.1118  0.0286
69903SOL    HW127319   6.531  10.670  14.037  0.1937 -0.3280 -0.0624
69903SOL    HW227320   6.673  10.650  14.084 -0.5357 -3.2794  1.0938
69904SOL     OW27321   2.368   8.984   4.006 -0.1108 -0.4516 -0.6889
69904SOL    HW127322   2.416   9.057   3.968  1.6705 -2.2323 -2.0491
69904SOL    HW227323   2.326   8.941   3.932  0.1322 -1.6956 -0.1257
69905SOL     OW27324  10.077   2.492   1.247  0.1413 -0.4124 -0.2796
69905SOL    HW127325  10.088   2.586   1.259 -3.4040 -0.0505  1.5896
69905SOL    HW227326   9.995   2.484   1.197 -0.4013 -2.4642  0.8226
69906SOL     OW27327  12.551  11.650   3.683 -0.5907  0.6510  0.4923
69906SOL    HW127328  12.610  11.646   3.757 -2.6822 -0.0110  2.2310
69906SOL    HW227329  12.476  11.702   3.714 -1.9574 -0.4488 -0.7781
69907SOL     OW27330  13.616   0.109   4.464  0.2375 -0.2696  0.1338
69907SOL    HW127331  13.560   0.181   4.494  0.8548 -0.9697  3.3460
69907SOL    HW227332  13.560   0.059   4.404 -0.6125  2.0998 -1.2012
69908SOL     OW27333   0.577  12.749   2.077 -0.1371 -0.2138 -0.0988
69908SOL    HW127334   0.646  12.683   2.080  0.9653  0.9306  1.5071
69908SOL    HW227335   0.602  12.806   2.005  0.3114 -0.1246  0.1190
69909SOL     OW27336  11.161  11.661   2.271 -0.0771 -0.2858 -0.6700
69909SOL    HW127337  11.206  11.736   2.232  0.6864 -0.6622 -0.5381
69909SOL    HW227338  11.116  11.697   2.348 -0.4708  0.2030 -1.1219
69910SOL     OW27339   8.799   3.638   3.518 -0.0745  0.5510 -0.7604
69910SOL    HW127340   8.824   3.606   3.432 -1.2528 -2.0063 -0.2411
69910SOL    HW227341   8.704   3.631   3.520 -0.0293 -0.0712  0.9508
69911SOL     OW27342   8.271  13.444   4.803 -0.4444 -0.0046  0.0046
69911SOL    HW127343   8.259  13.438   4.708 -1.4914  0.7563  0.0742
69911SOL    HW227344   8.220  13.520   4.829 -0.4269 -0.3909  1.2257
69912SOL     OW27345   3.486   5.848  12.613 -0.1140 -0.2555 -0.0806
69912SOL    HW127346   3.412   5.845  12.674 -1.0220 -0.4255 -1.1441
69912SOL    HW227347   3.473   5.772  12.556  0.0905  0.4965 -1.1599
69913SOL     OW27348  13.297  14.034   5.760  0.0125  0.4218  0.3429
69913SOL    HW127349  13.390  14.013   5.766  0.2262  0.7683 -1.2696
69913SOL    HW227350  13.270  14.000   5.675 -1.8869 -1.5978  1.6435
69914SOL     OW27351  12.800  13.672   5.759 -0.0376  0.4109  0.3620
69914SOL    HW127352  12.719  13.722   5.771 -0.8330 -0.7199 -0.0555
69914SOL    HW227353  12.859  13.731   5.713  0.3252  2.1553  2.8429
69915SOL     OW27354   4.547   2.964   0.489  0.1443  0.3359  0.2699
69915SOL    HW127355   4.567   2.870   0.484 -0.3653  0.1116  1.8435
69915SOL    HW227356   4.536   2.991   0.398  1.3484 -0.8910 -0.2714
69916SOL     OW27357   8.697   6.227   8.523 -0.3332 -0.6602 -0.6472
69916SOL    HW127358   8.741   6.256   8.603  1.3747  1.4698 -2.2293
69916SOL    HW227359   8.741   6.145   8.501  2.0359  0.7114 -1.4251
69917SOL     OW27360   1.333   3.138  11.845 -0.6031 -0.2183 -0.2980
69917SOL    HW127361   1.333   3.166  11.936 -0.3316  0.8470 -0.6135
69917SOL    HW227362   1.425   3.116  11.827 -0.7818 -1.1881 -0.1070
69918SOL     OW27363   8.523   5.019   3.654 -0.1033  0.3583 -0.2148
69918SOL    HW127364   8.609   4.999   3.617  0.2030  0.5960  0.3646
69918SOL    HW227365   8.475   4.937   3.648 -0.0409  0.3803 -1.0941
69919SOL     OW27366   6.098   1.491   1.857  0.0190  0.3337  0.2651
69919SOL    HW127367   6.185   1.461   1.830 -0.2478  0.9661 -1.3998
69919SOL    HW227368   6.088   1.577   1.817 -1.6997 -0.0777 -0.2751
69920SOL     OW27369  12.473  13.434   7.860  0.4144 -0.3047 -0.2727
69920SOL    HW127370  12.382  13.404   7.870  0.4639 -0.1320  0.8199
69920SOL    HW227371  12.522  13.354   7.842  0.1201 -0.4685 -0.3648
69921SOL     OW27372  10.362   1.591   9.567 -0.3049  0.5388  0.4044
69921SOL    HW127373  10.361   1.521   9.502  0.2185  0.9975 -0.1135
69921SOL    HW227374  10.454   1.617   9.572 -0.4490  0.9788  0.8141
69922SOL     OW27375  11.477   9.154   5.869 -0.2464 -0.4654  0.5368
69922SOL    HW127376  11.479   9.067   5.828  0.4974 -1.1302  1.9076
69922SOL    HW227377  11.390   9.189   5.846 -0.4065 -1.3973 -0.3649
69923SOL     OW27378   2.394   2.337   9.762 -0.1982  0.3747  0.1247
69923SOL    HW127379   2.451   2.414   9.755 -0.8725  0.8091 -0.8487
69923SOL    HW227380   2.308   2.368   9.735 -0.8818 -0.3112  1.4259
69924SOL     OW27381   6.223   4.488   2.556 -0.2774 -0.0159 -0.0630
69924SOL    HW127382   6.267   4.526   2.632 -0.5436 -1.4101  0.8305
69924SOL    HW227383   6.130   4.495   2.576 -0.4067  0.9590 -0.9552
69925SOL     OW27384  10.031  12.947   3.854  0.1346 -0.3999  0.0511
69925SOL    HW127385  10.027  13.039   3.830 -0.0105 -0.6723 -1.0167
69925SOL    HW227386  10.065  12.947   3.944  3.8456  0.5451 -1.1809
69926SOL     OW27387   6.690   8.677   7.937  0.0127  0.3404 -0.1605
69926SOL    HW127388   6.667   8.672   8.030 -0.5762  0.4462 -0.2975
69926SOL    HW227389   6.741   8.597   7.921  0.7462  0.6702  0.4159
69927SOL     OW27390   0.123   5.583   5.331  0.2342  0.8159  0.3128
69927SOL    HW127391   0.189   5.614   5.269 -0.7195 -0.1388 -1.2399
69927SOL    HW227392   0.065   5.528   5.279 -0.5174 -0.1795  2.1063
69928SOL     OW27393   9.463   7.004  13.817 -0.1630  0.1330  0.0105
69928SOL    HW127394   9.392   7.068  13.818  0.1170  0.4450  0.3682
69928SOL    HW227395   9.516   7.026  13.893  0.3964 -0.0058 -0.3306
69929SOL     OW27396   8.217   2.988  11.881  0.3049 -0.5732 -0.4013
69929SOL    HW127397   8.174   2.908  11.852 -1.5626  0.0636  0.4259
69929SOL    HW227398   8.228   3.040  11.801  0.6735 -1.2580 -0.8005
69930SOL     OW27399  13.192   4.688   5.930 -0.6009  0.5121  0.1995
69930SOL    HW127400  13.243   4.769   5.930 -0.7484  0.6150 -0.7291
69930SOL    HW227401  13.118   4.706   5.872 -0.3544 -0.4602 -0.4420
69931SOL     OW27402  13.006   2.409   6.351 -0.6067 -0.4784  0.2084
69931SOL    HW127403  13.025   2.331   6.402 -0.7910 -0.2492  0.6355
69931SOL    HW227404  12.954   2.377   6.277 -0.8153 -0.7392  0.4649
69932SOL     OW27405   4.910   6.427   9.481 -0.5106  0.1719  0.6096
69932SOL    HW127406   4.949   6.440   9.568  0.0404  0.5031  0.3224
69932SOL    HW227407   4.930   6.508   9.434  0.7443 -0.6848 -0.4003
69933SOL     OW27408   7.785   9.540   3.934 -0.2108  0.1304 -0.8771
69933SOL    HW127409   7.847   9.570   4.000 -0.7123 -0.5642 -0.0649
69933SOL    HW227410   7.824   9.461   3.898  0.2268  0.6976 -1.6838
69934SOL     OW27411   5.711   9.517   4.085 -0.2428 -0.1407 -0.3020
69934SOL    HW127412   5.629   9.534   4.131  0.2776 -2.0260  1.4482
69934SOL    HW227413   5.685   9.506   3.993 -2.0665 -1.3744  0.3131
69935SOL     OW27414  12.468   4.853   7.483  0.7909  0.0233  0.0689
69935SOL    HW127415  12.483   4.873   7.575  2.7219 -0.7757 -0.0102
69935SOL    HW227416  12.393   4.907   7.458  0.1956  0.2192  2.0995
69936SOL     OW27417   0.754   8.647   5.845  0.3625  0.0366  0.1274
69936SOL    HW127418   0.787   8.560   5.824 -0.9928 -0.4596 -0.0396
69936SOL    HW227419   0.741   8.689   5.760 -0.5954 -0.2329  0.1297
69937SOL     OW27420  11.645   2.080  13.435  0.1480 -0.2302  0.0430
69937SOL    HW127421  11.733   2.091  13.399 -0.9728 -1.7438 -3.7082
69937SOL    HW227422  11.590   2.137  13.382 -1.3919 -0.7946  0.9662
69938SOL     OW27423  10.169   3.964  14.001 -0.1541  0.6103  0.3978
69938SOL    HW127424  10.256   3.999  13.983  0.6359 -1.5428 -0.2910
69938SOL    HW227425  10.185   3.874  14.028 -2.1380  0.3981  1.0250
69939SOL     OW27426   0.257  13.465   3.683 -0.3833  0.9348 -0.0801
69939SOL    HW127427   0.338  13.461   3.734  0.1472 -0.5273 -0.9604
69939SOL    HW227428   0.284  13.443   3.593 -1.9408 -1.1228 -0.1177
69940SOL     OW27429   9.456   0.789   1.229 -0.3568 -0.0270  0.4113
69940SOL    HW127430   9.487   0.710   1.272 -0.5723  0.4930  1.5583
69940SOL    HW227431   9.363   0.795   1.253 -0.1818  0.9170  0.8826
69941SOL     OW27432  12.832   5.389   3.734  0.2418  0.3518 -0.1217
69941SOL    HW127433  12.774   5.418   3.804 -1.6879 -0.2154 -1.3965
69941SOL    HW227434  12.839   5.465   3.675 -0.8816 -0.2012 -0.9965
69942SOL     OW27435   8.281   9.872   0.835 -0.6102  0.1427  0.3632
69942SOL    HW127436   8.294   9.933   0.908 -0.8610  2.5502 -1.4859
69942SOL    HW227437   8.369   9.842   0.813 -0.4023  0.3523  0.8891
69943SOL     OW27438  10.677   6.285  11.309  0.5608  0.1133 -0.6490
69943SOL    HW127439  10.629   6.203  11.300  0.2480  0.4951 -3.3474
69943SOL    HW227440  10.610   6.351  11.325  0.6471  0.0471 -0.0203
69944SOL     OW27441   2.049   7.648  13.782 -0.1388 -0.4248  0.2136
69944SOL    HW127442   2.085   7.670  13.867  0.3758  0.8418 -0.3033
69944SOL    HW227443   2.125   7.643  13.724 -0.3047 -2.8775  0.1171
69945SOL     OW27444   9.521   4.922  12.203 -0.8665 -0.3094 -0.3120
69945SOL    HW127445   9.534   5.006  12.248 -0.5802 -0.8168  0.5707
69945SOL    HW227446   9.609   4.890  12.186 -0.9704  0.0666 -1.6223
69946SOL     OW27447   1.293   0.002  13.245 -0.0205 -0.8505 -0.1275
69946SOL    HW127448   1.257  -0.008  13.333 -1.4576 -0.3820 -0.6337
69946SOL    HW227449   1.378   0.044  13.259 -0.5733 -0.0521  0.9806
69947SOL     OW27450   8.908   1.211   8.789  0.0280 -0.2559  0.7461
69947SOL    HW127451   8.814   1.221   8.806  0.3225  3.4902  0.8953
69947SOL    HW227452   8.942   1.168   8.868 -1.3796 -0.7601  1.1131
69948SOL     OW27453  12.248   0.502  11.119  0.2968 -0.1059 -0.1507
69948SOL    HW127454  12.253   0.415  11.080 -0.0486  0.0480 -0.5469
69948SOL    HW227455  12.154   0.516  11.133  0.0280  1.3905 -2.8270
69949SOL     OW27456   8.656   7.003   0.311 -0.0111  0.1140 -0.2294
69949SOL    HW127457   8.727   7.051   0.352 -0.5408  0.1455  0.6699
69949SOL    HW227458   8.616   6.953   0.381 -0.6052 -0.2418 -0.8037
69950SOL     OW27459  13.823  11.410  13.473  0.1506  0.0383 -0.6019
69950SOL    HW127460  13.739  11.441  13.508  0.1047  0.7675 -1.3288
69950SOL    HW227461  13.886  11.434  13.541 -0.3783 -1.7336  0.5729
69951SOL     OW27462   0.765   5.677   9.858  0.1552 -0.5043 -0.1004
69951SOL    HW127463   0.765   5.703   9.766 -0.3737  0.0522  0.0555
69951SOL    HW227464   0.850   5.635   9.870  0.4007 -0.2104 -0.7356
69952SOL     OW27465   9.684   0.894   6.563  0.1895 -0.5257 -0.2144
69952SOL    HW127466   9.693   0.821   6.624  0.2123 -1.4331 -1.2557
69952SOL    HW227467   9.732   0.865   6.485  0.2338  0.6270 -0.6256
69953SOL     OW27468   2.336  11.555  10.142 -0.5937  0.1394  0.5774
69953SOL    HW127469   2.312  11.472  10.183  1.1313 -0.4164  0.5249
69953SOL    HW227470   2.346  11.616  10.215 -0.3744 -0.0859  0.7350
69954SOL     OW27471   7.047   7.614   0.114 -0.7991  0.2452  0.1954
69954SOL    HW127472   6.976   7.586   0.172  1.1164 -2.3374  1.5322
69954SOL    HW227473   7.101   7.672   0.168  0.7087 -1.7587  0.9878
69955SOL     OW27474   1.291   3.740  10.752  0.1191  0.2690 -0.9662
69955SOL    HW127475   1.210   3.748  10.802  1.2890 -0.5127  1.1498
69955SOL    HW227476   1.295   3.649  10.725  0.3022  0.3041 -1.0642
69956SOL     OW27477   9.700  10.797   3.911  0.3080  0.1390  0.3448
69956SOL    HW127478   9.695  10.740   3.987  0.3329  1.3418  1.2623
69956SOL    HW227479   9.759  10.750   3.851  1.3842 -0.1980  1.6148
69957SOL     OW27480   2.664   6.452   1.785  0.5221  0.1536 -0.7744
69957SOL    HW127481   2.584   6.439   1.735  0.6237 -1.2281 -0.6302
69957SOL    HW227482   2.720   6.505   1.728 -0.2904  0.6931 -1.0845
69958SOL     OW27483   6.434   9.783  10.531  0.0777  0.4919 -0.7632
69958SOL    HW127484   6.345   9.788  10.567  0.4806  1.1715  0.1738
69958SOL    HW227485   6.463   9.874  10.526  1.1707  0.2049  0.1028
69959SOL     OW27486   7.666   1.103   3.129  0.2289  0.6309  0.1751
69959SOL    HW127487   7.682   1.107   3.034 -0.4081 -0.9237 -0.0252
69959SOL    HW227488   7.575   1.132   3.139 -0.6805 -1.9308 -0.0550
69960SOL     OW27489  10.298   3.265  12.356 -0.6773  0.2670  0.2069
69960SOL    HW127490  10.259   3.180  12.377  0.5170 -0.2887  0.2399
69960SOL    HW227491  10.247   3.297  12.281 -2.1263  0.2500  1.1386
69961SOL     OW27492   6.960   6.072   3.442  0.1801 -0.5538 -0.0332
69961SOL    HW127493   6.904   6.015   3.390 -0.6940 -1.0691  1.4111
69961SOL    HW227494   6.910   6.154   3.449 -0.3411 -0.9486  1.0948
69962SOL     OW27495   7.128   7.915   0.109 -0.0336 -0.0092  0.0133
69962SOL    HW127496   7.108   7.898   0.017  0.5002 -0.2342 -0.0659
69962SOL    HW227497   7.119   8.010   0.118 -0.4043 -0.0227 -0.1915
69963SOL     OW27498   7.321  10.833   5.536  0.4592 -0.3870 -0.0340
69963SOL    HW127499   7.317  10.788   5.620  2.8706  0.5750  0.6737
69963SOL    HW227500   7.297  10.923   5.556  1.6507 -0.0139 -0.2281
69964SOL     OW27501   9.930   3.735  12.181 -0.6511 -0.6795 -0.3573
69964SOL    HW127502   9.949   3.680  12.105  1.0020  0.0262 -0.4866
69964SOL    HW227503   9.932   3.674  12.255 -0.4835 -1.0726 -0.6790
69965SOL     OW27504   7.375   4.457   3.198 -0.3464  0.7776  0.3249
69965SOL    HW127505   7.282   4.462   3.178  0.0336  0.8429 -1.6189
69965SOL    HW227506   7.411   4.540   3.166  0.1804  1.5003  2.5542
69966SOL     OW27507  10.397   9.868   8.345  0.0126 -0.1152 -0.2466
69966SOL    HW127508  10.409   9.953   8.386 -0.6913 -0.7280  1.3289
69966SOL    HW227509  10.475   9.856   8.291 -0.2486  1.8407 -1.1454
69967SOL     OW27510   1.073   1.140   7.130 -0.3357 -0.2898 -0.3427
69967SOL    HW127511   1.056   1.201   7.058  1.2202 -0.7638 -1.1479
69967SOL    HW227512   1.138   1.184   7.185 -0.7097 -0.3844  0.1831
69968SOL     OW27513   9.541   9.608  11.681 -0.0349  0.1302 -0.5136
69968SOL    HW127514   9.607   9.649  11.736  0.2271  0.0933 -0.7958
69968SOL    HW227515   9.586   9.591  11.598 -0.1000 -0.8451 -0.3558
69969SOL     OW27516   1.764  12.386   7.360  0.1328 -0.0441 -0.7593
69969SOL    HW127517   1.711  12.306   7.357  0.6368 -0.4409  0.3570
69969SOL    HW227518   1.775  12.404   7.453  0.9497  0.7124 -0.9873
69970SOL     OW27519   4.005  11.799  12.153  0.2257 -0.5565  0.0101
69970SOL    HW127520   3.920  11.804  12.196  0.2384  0.1288 -0.0258
69970SOL    HW227521   3.990  11.836  12.066  0.3760 -1.2055 -0.2909
69971SOL     OW27522  10.971  11.338  10.268 -0.1525 -0.7080 -0.0198
69971SOL    HW127523  10.879  11.364  10.273 -0.1451  0.2688 -2.9144
69971SOL    HW227524  11.019  11.418  10.289  0.0580 -1.1485  1.2267
69972SOL     OW27525  12.677   0.035   4.884  0.6356  0.4182  0.4744
69972SOL    HW127526  12.628   0.082   4.816 -0.3456  0.2257  1.0376
69972SOL    HW227527  12.754   0.089   4.899  0.8515  0.4874 -0.7613
69973SOL     OW27528  10.860  13.648   0.441 -0.0304 -0.5224 -0.6983
69973SOL    HW127529  10.862  13.655   0.346  0.4221 -1.7656 -0.7970
69973SOL    HW227530  10.803  13.573   0.458 -0.2196 -0.2267  0.0287
69974SOL     OW27531   2.468   0.888  13.409 -0.1137  0.5041  0.1116
69974SOL    HW127532   2.536   0.953  13.430 -0.1824  0.1080  1.7167
69974SOL    HW227533   2.517   0.811  13.380  0.1752  0.1619  1.4253
69975SOL     OW27534   2.608   4.655   3.546 -0.9178 -0.1532 -0.0061
69975SOL    HW127535   2.630   4.567   3.578 -0.6411  0.1135  0.5414
69975SOL    HW227536   2.552   4.639   3.469 -1.4307 -0.7992  0.4896
69976SOL     OW27537   2.062   4.508   2.048 -0.5188 -0.1915 -0.4094
69976SOL    HW127538   2.135   4.455   2.015 -0.8787 -0.4028 -0.8798
69976SOL    HW227539   2.076   4.594   2.010  0.4737  0.2871  0.9347
69977SOL     OW27540  10.114   6.096   8.561 -0.6561  0.8425 -0.2377
69977SOL    HW127541  10.197   6.125   8.600 -1.5604  1.6665  1.1629
69977SOL    HW227542  10.135   6.083   8.469  1.1237  0.6741  0.1402
69978SOL     OW27543   1.998   4.377  11.312 -0.6002 -0.0194 -0.5410
69978SOL    HW127544   1.928   4.419  11.363 -1.1032 -0.4140 -0.8983
69978SOL    HW227545   2.028   4.445  11.252  1.7963  1.3183  1.9686
69979SOL     OW27546   4.172  13.655  10.076 -0.5563  0.0513 -0.4721
69979SOL    HW127547   4.243  13.679  10.016  1.0105 -1.0111  0.8612
69979SOL    HW227548   4.209  13.668  10.163 -2.7273  1.3882  0.3118
69980SOL     OW27549   8.282  11.187  11.935 -0.3553 -0.0111 -0.1732
69980SOL    HW127550   8.246  11.247  11.869 -1.0272 -1.0507 -0.7644
69980SOL    HW227551   8.326  11.119  11.884 -0.1072 -0.3513  0.4851
69981SOL     OW27552   0.347   0.200  10.093  0.0881 -0.0563 -0.3349
69981SOL    HW127553   0.263   0.239  10.117 -0.2715 -1.1676  0.2967
69981SOL    HW227554   0.381   0.257  10.024  0.1414  2.0141  1.3127
69982SOL     OW27555  13.103  10.874   1.186  0.5526  0.2443  0.0555
69982SOL    HW127556  13.013  10.872   1.153  0.0614  3.9067  0.7583
69982SOL    HW227557  13.157  10.876   1.107 -0.1568  1.0802 -0.4261
69983SOL     OW27558  11.297  14.061   3.918  0.3668  0.3522 -0.7068
69983SOL    HW127559  11.299  13.969   3.944 -1.0631  0.8989  1.6230
69983SOL    HW227560  11.204  14.079   3.901  0.1769  1.9923  1.6092
69984SOL     OW27561   2.247   0.215  10.148  0.2997  0.2121  0.1910
69984SOL    HW127562   2.237   0.155  10.075  0.8139  1.4786 -0.9653
69984SOL    HW227563   2.159   0.248  10.166  0.3779  1.0597 -0.9031
69985SOL     OW27564  13.951   9.424   1.204 -0.2103 -0.5395  0.4649
69985SOL    HW127565  13.959   9.487   1.276  2.4352  1.0346 -1.0522
69985SOL    HW227566  14.041   9.408   1.175 -0.9586 -3.4153 -0.6328
69986SOL     OW27567  10.061   0.762   1.300  0.5545  0.2849 -0.4376
69986SOL    HW127568  10.103   0.676   1.297 -1.3276 -0.6695 -1.7878
69986SOL    HW227569  10.028   0.769   1.390  1.1281 -0.1936 -0.1812
69987SOL     OW27570   0.132   3.915   9.888  0.2054  0.9448  0.2221
69987SOL    HW127571   0.105   3.846   9.948  1.2407  1.6779  1.5916
69987SOL    HW227572   0.182   3.870   9.820  1.2107  0.3623  1.3085
69988SOL     OW27573   5.923   7.029   8.499 -0.0483  0.0739  0.0069
69988SOL    HW127574   5.983   6.955   8.514 -0.7124 -0.2246  1.3488
69988SOL    HW227575   5.836   6.989   8.499 -0.4392  0.8787  1.0953
69989SOL     OW27576  11.954  12.771   9.812 -0.5647 -0.4342 -0.2335
69989SOL    HW127577  11.918  12.763   9.723  0.6820 -1.9182 -0.6476
69989SOL    HW227578  11.896  12.718   9.866  0.3555 -1.9929 -0.7214
69990SOL     OW27579   9.937  10.801   3.416  0.3781  0.1443 -0.1220
69990SOL    HW127580   9.920  10.846   3.498 -1.2915 -0.9601  0.1657
69990SOL    HW227581   9.980  10.868   3.361  0.0575  1.3769  1.0695
69991SOL     OW27582   1.169   4.872   9.127 -0.4962 -0.3871  0.4348
69991SOL    HW127583   1.160   4.843   9.218 -0.5376 -0.4822  0.4008
69991SOL    HW227584   1.137   4.962   9.127 -1.1187 -0.6012  0.3886
69992SOL     OW27585   3.913   6.422   9.196  0.5849  0.2929  0.8287
69992SOL    HW127586   3.859   6.439   9.272  0.2984 -0.2173  0.7436
69992SOL    HW227587   3.894   6.331   9.172 -0.6252  0.9375 -0.8669
69993SOL     OW27588  13.043   6.886  13.379 -0.1057 -0.2463 -0.1981
69993SOL    HW127589  13.087   6.843  13.453  1.9406  0.0800 -1.1455
69993SOL    HW227590  13.085   6.849  13.301 -1.7710 -0.1202 -1.2022
69994SOL     OW27591  13.736   2.328   9.203 -0.2046 -0.0786 -0.1806
69994SOL    HW127592  13.732   2.324   9.299 -0.6118 -1.1392 -0.2281
69994SOL    HW227593  13.658   2.281   9.174  0.8186 -1.3241 -1.0404
69995SOL     OW27594  12.369   5.314  13.490 -0.2785  0.1858 -0.1671
69995SOL    HW127595  12.288   5.347  13.530  0.4402 -0.8162  2.2711
69995SOL    HW227596  12.437   5.375  13.518  0.3112 -0.7700  0.5516
69996SOL     OW27597   8.050  11.216  13.296 -0.1313  0.3938 -0.7364
69996SOL    HW127598   8.086  11.148  13.353 -0.3982  0.3978 -0.5592
69996SOL    HW227599   7.971  11.177  13.259 -0.9392  1.0107  0.2776
69997SOL     OW27600  11.425   6.770  11.338 -0.2258 -0.2346  0.4014
69997SOL    HW127601  11.399   6.687  11.298 -3.9344 -0.0055  1.9094
69997SOL    HW227602  11.429   6.831  11.265 -2.7136 -0.7026 -0.2311
69998SOL     OW27603   7.866   5.022  11.396  0.0184  0.1197 -0.6211
69998SOL    HW127604   7.942   4.965  11.404  0.9227  1.4386  0.4689
69998SOL    HW227605   7.895   5.093  11.339  0.1892  1.5182  1.1309
69999SOL     OW27606   7.822   5.902   1.365  0.0350 -0.0334  0.1900
69999SOL    HW127607   7.904   5.855   1.373  0.5253  1.0269  1.9927
69999SOL    HW227608   7.756   5.842   1.400  0.2724 -0.3078  0.1687
70000SOL     OW27609   6.858   7.742   5.072 -0.8114 -0.5930 -0.5335
70000SOL    HW127610   6.840   7.830   5.040 -0.3033 -0.7414 -1.2482
70000SOL    HW227611   6.781   7.691   5.045 -0.8198 -0.5063 -0.6749
70001SOL     OW27612  10.642   3.359   7.993 -0.0879 -0.1905  0.3620
70001SOL    HW127613  10.660   3.442   8.035  1.4277  0.7583 -1.9602
70001SOL    HW227614  10.626   3.298   8.065  0.9765  1.5979  2.2096
70002SOL     OW27615  11.597   8.303  13.842  0.2232 -0.3617 -0.2089
70002SOL    HW127616  11.613   8.216  13.878  0.9947  0.3698  1.3541
70002SOL    HW227617  11.533   8.342  13.902 -0.4396  0.0007 -1.1397
70003SOL     OW27618   6.446   4.559   2.278  0.1657  0.1278  0.1478
70003SOL    HW127619   6.389   4.552   2.201  1.3343  0.2183 -0.7570
70003SOL    HW227620   6.397   4.614   2.340  0.1014  1.9461 -1.4169
70004SOL     OW27621   7.189   6.746  12.845 -0.1657 -0.6087 -0.3119
70004SOL    HW127622   7.203   6.752  12.940  2.3496  1.3662 -0.7230
70004SOL    HW227623   7.268   6.705  12.811  0.5337  1.7765 -1.8254
70005SOL     OW27624   7.179  13.211  13.364 -0.1406  0.4750  0.4696
70005SOL    HW127625   7.220  13.291  13.398  1.5082 -1.1099  2.4961
70005SOL    HW227626   7.132  13.174  13.439 -1.2616 -0.2474 -0.5534
70006SOL     OW27627  12.971   3.709   5.079 -0.1727  0.1823 -0.7800
70006SOL    HW127628  12.963   3.617   5.054  0.5036  0.0345 -0.4668
70006SOL    HW227629  13.006   3.752   5.001 -1.4124  0.3734 -1.2724
70007SOL     OW27630  13.139  12.665   2.996 -0.2114  0.0767 -0.0873
70007SOL    HW127631  13.179  12.669   2.909  0.6992  0.4313  0.3472
70007SOL    HW227632  13.132  12.757   3.023 -1.9623  0.0877 -0.4338
70008SOL     OW27633   4.916   3.432  11.133  0.0589  0.0329 -0.1523
70008SOL    HW127634   4.877   3.345  11.136  0.8894 -0.3713 -0.4909
70008SOL    HW227635   5.004   3.417  11.096  1.0141  0.7236  1.7052
70009SOL     OW27636   1.916  11.675   2.572  0.2001  0.2004  0.2630
70009SOL    HW127637   1.904  11.767   2.598  1.1978  0.3358  0.2718
70009SOL    HW227638   1.878  11.670   2.484 -0.2305  0.5168  0.4243
70010SOL     OW27639   1.970   9.494   3.166  0.1685 -0.0172  0.5754
70010SOL    HW127640   1.914   9.505   3.243  0.4967  0.4124  0.7532
70010SOL    HW227641   1.972   9.581   3.125 -0.6713 -0.4198 -0.3798
70011SOL     OW27642   1.674   8.382   9.466 -0.6206 -1.0096 -0.2787
70011SOL    HW127643   1.624   8.306   9.436  0.2636 -1.6477 -0.1668
70011SOL    HW227644   1.691   8.365   9.558 -0.8783 -0.4178 -0.1203
70012SOL     OW27645   0.063  13.475  10.658 -0.1368 -0.3145 -0.2067
70012SOL    HW127646  -0.015  13.531  10.647 -1.0918 -1.4245  0.6723
70012SOL    HW227647   0.042  13.395  10.609  0.6852 -0.4149 -0.4031
70013SOL     OW27648   9.660   0.286  11.126 -0.0892  0.3126  0.3266
70013SOL    HW127649   9.666   0.222  11.054  0.1131  0.6821  0.0132
70013SOL    HW227650   9.630   0.234  11.201 -2.2953  0.2627 -0.4971
70014SOL     OW27651  11.521   7.086  13.762 -0.1741 -0.3113  0.1869
70014SOL    HW127652  11.601   7.104  13.714  0.7265  0.2130  1.8136
70014SOL    HW227653  11.496   6.997  13.734  0.8919 -0.4335 -0.4319
70015SOL     OW27654   2.906   5.941   2.270 -0.1235  0.1192  0.3488
70015SOL    HW127655   2.983   5.988   2.299  0.1809  0.6621 -1.2450
70015SOL    HW227656   2.929   5.848   2.280  0.3758  0.2855  0.7563
70016SOL     OW27657   9.224   0.592   1.047 -0.2350 -0.0789  0.6013
70016SOL    HW127658   9.245   0.658   1.113 -0.0069 -1.3922  1.9141
70016SOL    HW227659   9.231   0.509   1.094 -3.4064 -0.9147 -0.2124
70017SOL     OW27660  12.684   0.170  11.582  0.7295  0.6578 -0.3088
70017SOL    HW127661  12.756   0.176  11.645  0.6569 -0.4710 -0.0996
70017SOL    HW227662  12.727   0.156  11.498  0.7601 -1.3924 -0.0015
70018SOL     OW27663   9.824   9.982   4.428  0.0164 -0.3469  0.1785
70018SOL    HW127664   9.759  10.031   4.377 -2.1251 -0.9427  2.1436
70018SOL    HW227665   9.833   9.899   4.382 -2.2669 -1.0829  0.9047
70019SOL     OW27666   1.760   1.207  12.357  0.3899  0.1766  0.1843
70019SOL    HW127667   1.803   1.194  12.442 -0.8087 -2.0303  0.5140
70019SOL    HW227668   1.802   1.144  12.299 -1.0641 -0.6564  0.0125
70020SOL     OW27669   8.038   1.047   6.879 -0.5429 -0.1037  0.1591
70020SOL    HW127670   7.973   1.007   6.937 -0.7757  0.4294  0.2751
70020SOL    HW227671   8.005   1.135   6.863  0.0882  0.1336  0.1197
70021SOL     OW27672   7.943   0.225   4.831  0.2296  0.1955  0.1036
70021SOL    HW127673   8.003   0.217   4.757  1.6961 -0.3063  1.2947
70021SOL    HW227674   7.902   0.139   4.839 -2.8972  1.2502 -2.4252
70022SOL     OW27675  13.809  13.384   8.385 -0.1212 -0.4460  0.2344
70022SOL    HW127676  13.861  13.332   8.325  2.2074  0.9423  0.9382
70022SOL    HW227677  13.757  13.320   8.434  1.3517 -1.9598 -0.0973
70023SOL     OW27678   4.396  11.727   1.456  0.0644  0.1943  0.5393
70023SOL    HW127679   4.376  11.820   1.468  0.6625  0.9986 -3.3417
70023SOL    HW227680   4.349  11.702   1.376  1.9242 -2.1131  0.0349
70024SOL     OW27681   4.604   3.991   9.718  0.4272  0.7980  0.4257
70024SOL    HW127682   4.594   4.076   9.674 -0.2277 -0.0104 -1.0607
70024SOL    HW227683   4.514   3.965   9.740  0.3418 -0.5122 -1.2074
70025SOL     OW27684  13.316   5.574   9.864 -0.0616 -0.0195 -0.0674
70025SOL    HW127685  13.308   5.649   9.924  0.0635  0.0624 -0.1527
70025SOL    HW227686  13.317   5.498   9.921  0.6163  0.0874  0.0744
70026SOL     OW27687   9.851  11.968  13.126 -0.0889 -0.5919 -0.3629
70026SOL    HW127688   9.791  11.894  13.135 -0.9524  0.1814  0.5188
70026SOL    HW227689   9.809  12.024  13.060 -0.0401 -0.3401 -0.1830
70027SOL     OW27690  13.595   7.218   8.665 -0.3442  0.6715  0.2047
70027SOL    HW127691  13.595   7.147   8.728 -1.5795  1.2224  0.8572
70027SOL    HW227692  13.657   7.190   8.597 -1.1361 -1.2098  0.2121
70028SOL     OW27693  12.778   2.829   6.289  0.5780  0.7181 -0.0158
70028SOL    HW127694  12.791   2.898   6.353  1.0649 -0.2698  0.9760
70028SOL    HW227695  12.779   2.748   6.340 -0.6660  0.0056 -1.0562
70029SOL     OW27696   2.837   4.816  13.056  0.1485 -0.0587  0.0700
70029SOL    HW127697   2.795   4.850  13.135  0.5380  0.1783  0.1797
70029SOL    HW227698   2.925   4.790  13.086  0.9515  1.6664 -0.6368
70030SOL     OW27699  12.295   6.536   5.649  0.1923  0.1564 -0.5758
70030SOL    HW127700  12.261   6.484   5.722 -0.6569 -0.1637 -1.1703
70030SOL    HW227701  12.235   6.517   5.577  0.3516  1.3415 -1.0431
70031SOL     OW27702   3.451   9.889  12.993  0.3409  0.2635 -0.1000
70031SOL    HW127703   3.452   9.844  12.909  1.1054  0.7744 -0.3728
70031SOL    HW227704   3.360   9.917  13.004 -0.0942 -1.0819 -0.0527
70032SOL     OW27705   8.164   7.323   8.353  1.1461  0.0734 -0.0298
70032SOL    HW127706   8.149   7.267   8.277  0.9649  0.0401  0.0294
70032SOL    HW227707   8.259   7.322   8.366  1.1311 -0.3077  0.0397
70033SOL     OW27708   2.479  11.041   7.840  0.3103  0.0827 -0.1495
70033SOL    HW127709   2.467  10.951   7.809 -1.4922  0.1160  0.3377
70033SOL    HW227710   2.441  11.095   7.771  1.2722  0.4880 -0.3811
70034SOL     OW27711   8.201   7.143   0.430  0.1384  0.0018  0.5086
70034SOL    HW127712   8.197   7.128   0.335 -0.2737  0.2992  0.4762
70034SOL    HW227713   8.289   7.179   0.445 -0.5802  2.1946 -0.1057
70035SOL     OW27714   6.489   4.609   4.050 -0.5455  0.0804  0.1974
70035SOL    HW127715   6.538   4.534   4.084  0.5982  1.2697  1.3530
70035SOL    HW227716   6.489   4.671   4.123 -0.3767  1.6819 -1.1144
70036SOL     OW27717   6.020   0.645   5.848 -0.3742 -0.1001  0.7778
70036SOL    HW127718   5.973   0.719   5.886 -0.3692 -0.9425  2.5145
70036SOL    HW227719   6.047   0.592   5.923  0.1618 -1.5494 -0.3823
70037SOL     OW27720   7.088   0.361  10.864  0.3696 -0.1351 -0.1747
70037SOL    HW127721   7.177   0.326  10.867  0.3485 -1.0503 -4.3626
70037SOL    HW227722   7.099   0.455  10.882  2.6113  0.2176 -2.7788
70038SOL     OW27723  13.203   4.352   2.155  0.2460  0.1663  0.1305
70038SOL    HW127724  13.277   4.348   2.095  0.1734  0.0854  0.0466
70038SOL    HW227725  13.171   4.442   2.148  1.0704  0.5479  1.0446
70039SOL     OW27726   7.994   0.323   6.116  0.2106  0.6180 -0.3560
70039SOL    HW127727   7.950   0.239   6.101  0.7841  0.1565  0.4754
70039SOL    HW227728   7.925   0.379   6.153  0.0400  0.2480 -0.1082
70040SOL     OW27729  13.575   2.427   0.396 -0.2750  0.1546 -0.4049
70040SOL    HW127730  13.658   2.379   0.406 -1.7897 -3.2868 -2.3617
70040SOL    HW227731  13.544   2.440   0.486  1.9375  0.8006  0.3337
70041SOL     OW27732  10.522  13.397  13.298  0.1645 -0.4326 -0.0178
70041SOL    HW127733  10.569  13.347  13.364 -1.3577 -0.3469  1.2004
70041SOL    HW227734  10.500  13.332  13.231 -1.2547 -1.3419  1.2508
70042SOL     OW27735  13.041  13.920   9.628  0.0168 -0.0074  0.6269
70042SOL    HW127736  13.108  13.895   9.564 -2.1644  0.1920 -1.8955
70042SOL    HW227737  13.070  13.880   9.710  2.2583 -1.4542 -0.7621
70043SOL     OW27738  10.056   3.664   9.055  0.0909 -0.1882 -0.2220
70043SOL    HW127739  10.093   3.663   8.967 -0.1465 -0.1869 -0.3237
70043SOL    HW227740  10.093   3.587   9.098  0.5006  0.0210 -0.1980
70044SOL     OW27741   4.867  11.605   7.682  0.1559  0.4103  0.2013
70044SOL    HW127742   4.902  11.516   7.674 -1.4504 -0.1216 -1.7548
70044SOL    HW227743   4.941  11.657   7.714  1.1702 -1.5832  1.3062
70045SOL     OW27744   7.159  11.210  10.807  0.0315 -0.1080  0.1607
70045SOL    HW127745   7.093  11.276  10.829  1.1314  1.5244 -1.1602
70045SOL    HW227746   7.110  11.140  10.765 -1.3129 -0.7254  2.5596
70046SOL     OW27747   8.814   9.563   0.991 -0.1716 -0.4524  0.0134
70046SOL    HW127748   8.783   9.480   0.956  0.8424 -0.6478 -0.4514
70046SOL    HW227749   8.892   9.584   0.939 -0.1431  0.5550  0.4320
70047SOL     OW27750   1.729   9.313  13.271 -0.3145  0.0111 -0.4857
70047SOL    HW127751   1.771   9.325  13.186 -1.6338 -1.2124 -1.3784
70047SOL    HW227752   1.651   9.260  13.251  0.2080 -1.7184  1.7137
70048SOL     OW27753   2.066  12.221   1.331 -0.3710 -0.2996  0.4334
70048SOL    HW127754   2.154  12.256   1.319 -1.0314  1.9002  1.4708
70048SOL    HW227755   2.050  12.228   1.425 -1.5838 -0.8786  0.2891
70049SOL     OW27756   1.681  13.037  13.987  0.4758 -0.4449 -0.1955
70049SOL    HW127757   1.761  13.079  14.020  0.4532 -0.4189 -0.1739
70049SOL    HW227758   1.660  13.086  13.908 -0.4302  0.6039  0.6657
70050SOL     OW27759   5.957   3.760   1.012  0.8882  0.1001  0.4102
70050SOL    HW127760   5.944   3.714   1.095  2.0650 -2.1574 -0.6028
70050SOL    HW227761   6.045   3.737   0.984  0.3254  0.3288 -1.7603
70051SOL     OW27762   9.229   4.635   0.939 -0.0735  0.5253  0.5454
70051SOL    HW127763   9.149   4.670   0.901 -0.3056 -0.5381  0.0258
70051SOL    HW227764   9.217   4.541   0.938  1.4177  0.3153 -0.0820
70052SOL     OW27765  13.657  12.039   0.213 -0.3210 -0.1147 -0.2437
70052SOL    HW127766  13.654  12.072   0.123  0.5776  0.0431 -0.2154
70052SOL    HW227767  13.566  12.016   0.232 -0.5301 -0.1157 -1.1805
70053SOL     OW27768   8.466   8.277   0.089 -0.0613  0.4057  0.0390
70053SOL    HW127769   8.525   8.274   0.164  0.2681 -2.2412 -0.2239
70053SOL    HW227770   8.515   8.234   0.018 -0.9420  1.4678 -1.2622
70054SOL     OW27771   2.445   3.132   0.930  0.4038 -0.4523  0.1841
70054SOL    HW127772   2.460   3.039   0.944  0.7989 -0.4950 -0.4569
70054SOL    HW227773   2.434   3.169   1.017  1.9516 -0.8106  0.5497
70055SOL     OW27774   5.295  11.555  13.264  0.1569  0.0921 -0.3938
70055SOL    HW127775   5.297  11.647  13.290  1.3257 -0.2999  0.9952
70055SOL    HW227776   5.363  11.547  13.197  1.8416 -0.2184  1.2687
70056SOL     OW27777  11.753   9.327   8.270  0.6490  0.3018 -0.2943
70056SOL    HW127778  11.718   9.262   8.331  2.2217  0.0397  0.3815
70056SOL    HW227779  11.762   9.406   8.322  0.3762  0.5792 -0.6622
70057SOL     OW27780   8.441   3.472   6.614 -0.3511 -0.2028 -0.1357
70057SOL    HW127781   8.435   3.376   6.608  0.7150 -0.3377  0.5476
70057SOL    HW227782   8.352   3.500   6.635 -0.6364 -1.0735 -0.1238
70058SOL     OW27783   5.744  12.029   7.153  0.2315  0.2208 -0.3568
70058SOL    HW127784   5.708  12.117   7.143 -1.7586 -0.5916 -0.7366
70058SOL    HW227785   5.839  12.042   7.156  0.1372  2.1759 -2.8938
70059SOL     OW27786   7.081   2.538   1.984 -0.1939  0.0052  0.4105
70059SOL    HW127787   7.174   2.539   1.959 -0.4346  1.7867 -0.6111
70059SOL    HW227788   7.078   2.485   2.064  1.1171 -3.2565 -1.4995
70060SOL     OW27789   4.860   7.451  13.571  0.0405 -0.3632 -0.3983
70060SOL    HW127790   4.944   7.497  13.562 -0.0987  0.1317  0.5920
70060SOL    HW227791   4.879   7.379  13.631 -0.0892 -0.6605 -0.7161
70061SOL     OW27792  11.570  11.522  13.500 -0.4839  0.6497 -0.4825
70061SOL    HW127793  11.620  11.443  13.478 -0.9334  0.4438 -0.7718
70061SOL    HW227794  11.514  11.495  13.573 -0.6420  0.6975 -0.5850
70062SOL     OW27795   3.068  10.049   4.760  0.0177 -0.5658 -0.1078
70062SOL    HW127796   3.055  10.020   4.669  0.3428 -0.6687 -0.1224
70062SOL    HW227797   3.120  10.128   4.753  0.2708 -0.7230  0.0047
70063SOL     OW27798  12.180  12.086  11.629  0.0405 -0.0089 -0.3770
70063SOL    HW127799  12.211  12.102  11.539 -0.4229 -0.6845 -0.6625
70063SOL    HW227800  12.197  11.993  11.644  1.2016  0.3402  0.6759
70064SOL     OW27801  12.417   0.286  10.149  0.4784  0.4129 -0.1861
70064SOL    HW127802  12.466   0.357  10.191 -0.6251  0.0165  1.9149
70064SOL    HW227803  12.418   0.215  10.213 -0.4057 -0.6214 -1.2781
70065SOL     OW27804   4.281  11.774   8.086 -0.1574  0.1398  0.0145
70065SOL    HW127805   4.288  11.856   8.134 -0.3983  0.2693 -0.1687
70065SOL    HW227806   4.301  11.798   7.995  0.1327 -0.0713  0.0228
70066SOL     OW27807   9.527  12.002   0.617 -0.4518  0.2058  0.4565
70066SOL    HW127808   9.524  12.096   0.637 -0.4900  0.4869 -0.7935
70066SOL    HW227809   9.599  11.992   0.555 -2.0815 -0.1348 -1.5084
70067SOL     OW27810   8.975  11.587  10.524 -0.0068 -0.0324 -0.2343
70067SOL    HW127811   9.016  11.537  10.453  1.0115 -0.0600  0.3628
70067SOL    HW227812   9.045  11.602  10.587 -0.9083 -0.0909  0.8213
70068SOL     OW27813   2.374  12.978   3.884  0.2558 -0.2405 -0.1280
70068SOL    HW127814   2.348  13.055   3.935  0.5595 -0.7565  0.8336
70068SOL    HW227815   2.358  13.003   3.793  0.3767  0.9748  0.1622
70069SOL     OW27816   4.510   6.403   4.977  0.3332 -0.1964 -0.3185
70069SOL    HW127817   4.541   6.436   4.892 -1.0206 -0.0648 -0.7832
70069SOL    HW227818   4.491   6.482   5.027  0.4955 -0.2746 -0.1355
70070SOL     OW27819  12.324   8.820   5.061  0.4917  0.3594 -0.6847
70070SOL    HW127820  12.275   8.759   5.116 -1.4767  0.7610 -1.8838
70070SOL    HW227821  12.415   8.808   5.086 -0.0562 -1.5784  0.5464
70071SOL     OW27822   2.347  11.536   3.357  0.2001  0.2799  0.0216
70071SOL    HW127823   2.341  11.444   3.383  0.0624  0.1078 -0.5972
70071SOL    HW227824   2.385  11.580   3.433  0.0916 -0.2565  0.3921
70072SOL     OW27825  13.054   6.261  11.705 -0.3774  0.4882 -0.0524
70072SOL    HW127826  13.049   6.323  11.632 -2.6112 -1.2738 -1.5304
70072SOL    HW227827  12.963   6.243  11.728  0.2397 -0.8169  1.6099
70073SOL     OW27828  12.822   4.819   8.344 -0.2096 -0.6227 -0.2867
70073SOL    HW127829  12.841   4.752   8.279 -1.0155 -0.4325 -0.7271
70073SOL    HW227830  12.796   4.896   8.293  1.2739  0.2392  0.1790
70074SOL     OW27831  11.888   8.613  11.150  0.2459 -0.3910 -0.2852
70074SOL    HW127832  11.913   8.626  11.058 -0.0249 -0.6870 -0.4060
70074SOL    HW227833  11.800   8.574  11.145 -0.2414  0.6408  0.1263
70075SOL     OW27834   2.705  10.967   4.803 -0.6122 -0.2622 -0.0445
70075SOL    HW127835   2.774  11.007   4.856 -2.0131  0.7984  1.0579
70075SOL    HW227836   2.737  10.976   4.713  0.1764  1.2869  0.3364
70076SOL     OW27837  11.058  13.178   8.296  0.0090 -0.3140  0.0537
70076SOL    HW127838  11.097  13.094   8.273  0.3403  0.1789 -1.2881
70076SOL    HW227839  11.104  13.205   8.376  2.4850  0.2333 -1.4478
70077SOL     OW27840  11.216   9.355   6.529  0.0621 -0.0692  0.0612
70077SOL    HW127841  11.273   9.355   6.606  0.4725 -0.5182 -0.2355
70077SOL    HW227842  11.272   9.386   6.458  0.3672 -1.8572 -0.5271
70078SOL     OW27843  10.021   9.665   6.503 -0.6588 -0.0160  0.5307
70078SOL    HW127844  10.062   9.613   6.572  1.6691  2.5880  1.2685
70078SOL    HW227845   9.938   9.694   6.540 -0.9311 -1.2536  0.9482
70079SOL     OW27846   1.352  11.165   3.469 -0.2544  0.3174  0.1932
70079SOL    HW127847   1.359  11.072   3.449 -1.8767  0.1850  0.1134
70079SOL    HW227848   1.323  11.167   3.561  0.8067  0.7841  0.5361
70080SOL     OW27849   0.828   8.720   9.713  0.1126 -0.7217 -0.0608
70080SOL    HW127850   0.739   8.686   9.709  0.6912 -2.4949  0.9516
70080SOL    HW227851   0.825   8.788   9.781 -0.5336 -0.5224 -0.2881
70081SOL     OW27852   3.888   1.945  10.432  0.1411  0.2115 -0.0295
70081SOL    HW127853   3.907   1.883  10.362  2.2851 -0.0381  0.6743
70081SOL    HW227854   3.866   1.890  10.507 -1.4373  0.4524 -0.2962
70082SOL     OW27855   0.927   7.481  11.382  0.0197 -0.2016 -0.0654
70082SOL    HW127856   1.012   7.525  11.382 -0.2014  0.2541 -1.1304
70082SOL    HW227857   0.944   7.395  11.345 -0.2623  0.5423 -2.0725
70083SOL     OW27858   2.674  13.767  11.301 -0.0222 -0.1613 -0.0774
70083SOL    HW127859   2.639  13.816  11.375  1.2914 -0.3644  0.7177
70083SOL    HW227860   2.601  13.712  11.272 -1.4462  1.9770 -0.8169
70084SOL     OW27861   3.416  12.640   7.050  0.4823 -1.1986 -0.2182
70084SOL    HW127862   3.362  12.719   7.044 -0.9894 -2.0688  0.8329
70084SOL    HW227863   3.500  12.671   7.083  0.0721 -0.0201 -0.2297
70085SOL     OW27864  12.032   0.868   6.234 -0.1020  0.2007  0.2201
70085SOL    HW127865  12.043   0.871   6.329  1.0610  0.7518  0.0820
70085SOL    HW227866  12.120   0.882   6.199 -0.2369 -1.5985 -0.9373
70086SOL     OW27867   7.535  12.051   8.026  0.0174 -0.5795  0.0980
70086SOL    HW127868   7.598  12.013   8.086  0.3282  0.7815  0.6743
70086SOL    HW227869   7.560  12.143   8.020 -0.3807 -0.5467 -1.6512
70087SOL     OW27870   6.119   5.927  13.147  0.1595 -0.2823 -0.3142
70087SOL    HW127871   6.064   5.980  13.090  0.5852  0.1190 -0.3538
70087SOL    HW227872   6.060   5.859  13.180  0.2393 -1.4515 -2.4146
70088SOL     OW27873   4.846   8.614   1.086  0.1932 -0.2393 -0.3306
70088SOL    HW127874   4.838   8.557   1.010  1.8619 -0.4524 -0.3818
70088SOL    HW227875   4.761   8.607   1.131 -0.3369 -1.1412 -1.4350
70089SOL     OW27876   2.845   3.503   1.335 -0.5552 -0.1734  0.1117
70089SOL    HW127877   2.936   3.507   1.365 -0.2362 -0.0913 -0.8195
70089SOL    HW227878   2.833   3.411   1.311 -0.7683 -0.2149  0.3777
70090SOL     OW27879   4.159   7.121   4.357  0.1368 -0.1397  0.2265
70090SOL    HW127880   4.094   7.072   4.406  0.6377 -0.9844  0.0634
70090SOL    HW227881   4.160   7.080   4.270 -0.7237  1.3167 -0.5090
70091SOL     OW27882   9.223  12.044   8.842 -0.1992  0.6097  0.0912
70091SOL    HW127883   9.149  11.983   8.852 -0.5842  1.3543  2.3464
70091SOL    HW227884   9.275  12.007   8.770 -1.2341 -1.5069  0.3479
70092SOL     OW27885   6.377   3.943   7.834  0.6092 -0.2850  0.4310
70092SOL    HW127886   6.351   3.931   7.925 -0.2757 -1.4121  0.0561
70092SOL    HW227887   6.456   3.996   7.838  0.5482 -0.2731  1.8496
70093SOL     OW27888  11.108   2.332   9.204 -0.0166 -0.0562 -0.1469
70093SOL    HW127889  11.110   2.366   9.294 -1.5317  0.4670 -0.2776
70093SOL    HW227890  11.042   2.263   9.206 -0.0405 -0.0572 -0.8654
70094SOL     OW27891  13.805   4.275  12.776 -0.1248  0.0064  0.1039
70094SOL    HW127892  13.804   4.251  12.868 -2.1074  0.6701  0.3013
70094SOL    HW227893  13.896   4.294  12.757  0.4963 -1.2627  1.6160
70095SOL     OW27894   0.303   5.698   2.331 -0.0861  0.0511 -0.3976
70095SOL    HW127895   0.289   5.789   2.307 -0.3491  0.1854  0.2463
70095SOL    HW227896   0.287   5.695   2.425  0.8709 -0.4692 -0.2311
70096SOL     OW27897  11.283   1.743   8.731 -0.5864  0.4669  0.2737
70096SOL    HW127898  11.263   1.835   8.715  0.6755  0.6518 -0.3367
70096SOL    HW227899  11.362   1.744   8.785 -1.4074 -0.2485  1.5175
70097SOL     OW27900   7.125   1.156  13.284 -0.0687  0.0680  0.0146
70097SOL    HW127901   7.064   1.183  13.216  0.2652 -0.7552 -0.6367
70097SOL    HW227902   7.071   1.145  13.362 -0.5420  0.5468 -0.2441
70098SOL     OW27903  13.255   8.403   6.607  0.7173 -0.1489  0.6253
70098SOL    HW127904  13.312   8.419   6.531 -1.6857  0.0502 -1.2476
70098SOL    HW227905  13.248   8.307   6.612 -0.3739 -0.1417 -0.4436
70099SOL     OW27906  10.848  11.545  14.010  0.0389 -0.3411 -0.2125
70099SOL    HW127907  10.861  11.611  13.941  2.7689 -2.3103 -1.7799
70099SOL    HW227908  10.861  11.461  13.966 -2.0993 -1.9487  1.9568
70100SOL     OW27909   6.410  11.585   3.148  0.9967  0.1598 -1.4272
70100SOL    HW127910   6.432  11.502   3.106  0.1074 -1.3057  0.7887
70100SOL    HW227911   6.493  11.617   3.184  1.1350 -0.3993 -1.2519
70101SOL     OW27912  11.822  11.994   1.730  0.2911 -0.4846 -0.1834
70101SOL    HW127913  11.858  11.951   1.808  0.9505 -0.5284 -0.5059
70101SOL    HW227914  11.899  12.016   1.678 -0.1980 -1.5333 -1.3991
70102SOL     OW27915   3.575   8.014  13.316 -0.2667 -0.8299  0.0677
70102SOL    HW127916   3.597   8.078  13.248 -0.0985  0.2831  1.1365
70102SOL    HW227917   3.481   7.999  13.304 -0.3150 -0.3629 -0.1934
70103SOL     OW27918  12.055   5.670  12.780 -0.4612  0.3708  0.3194
70103SOL    HW127919  12.062   5.717  12.697 -0.0089 -0.4714 -0.1331
70103SOL    HW227920  12.143   5.675  12.818 -0.1669 -0.8499 -0.1573
70104SOL     OW27921   3.546   2.727   2.983 -0.4479 -0.6050 -0.0572
70104SOL    HW127922   3.488   2.709   3.057 -0.1794 -0.8044  0.1035
70104SOL    HW227923   3.589   2.809   3.006 -2.6027  1.0026 -1.3455
70105SOL     OW27924   2.241  10.434   8.159  0.2349 -0.0986 -0.0431
70105SOL    HW127925   2.263  10.414   8.068  0.9637  0.5007 -0.0136
70105SOL    HW227926   2.283  10.364   8.209 -0.6644 -0.7587 -0.2023
70106SOL     OW27927   6.426   9.496   6.381  0.1321  0.0739  0.7615
70106SOL    HW127928   6.341   9.499   6.339  1.5700 -1.3501 -2.6413
70106SOL    HW227929   6.456   9.587   6.381 -1.3733  0.6222  2.2018
70107SOL     OW27930  10.470  10.245  11.925 -0.0393 -0.1673  0.0009
70107SOL    HW127931  10.386  10.199  11.938 -0.2911  0.3335  0.1601
70107SOL    HW227932  10.515  10.236  12.009 -0.7240  1.1476  0.5362
70108SOL     OW27933   4.313   2.970   3.950 -0.1222  0.3562 -0.0537
70108SOL    HW127934   4.272   3.024   3.882  0.2440 -1.6822 -2.0218
70108SOL    HW227935   4.280   2.882   3.934  0.9730 -0.4152  1.6415
70109SOL     OW27936   6.112  11.736   2.578 -0.4370 -0.3260 -0.1122
70109SOL    HW127937   6.133  11.696   2.662  2.8318  0.7583 -0.2347
70109SOL    HW227938   6.173  11.810   2.571 -2.9942  1.8306 -1.9135
70110SOL     OW27939  13.680   9.508   0.401 -0.0841  0.7559  0.4554
70110SOL    HW127940  13.656   9.565   0.328  0.3623  0.4932  0.0943
70110SOL    HW227941  13.638   9.547   0.477 -0.5150  1.0631  0.0670
70111SOL     OW27942   8.838   0.363  13.756  0.2207 -0.0402  0.5442
70111SOL    HW127943   8.879   0.304  13.692  1.2826  0.2377  0.9475
70111SOL    HW227944   8.909   0.421  13.784 -0.8207  1.5090  0.0902
70112SOL     OW27945   8.793   2.065  10.387  0.1948  0.6328  1.0125
70112SOL    HW127946   8.700   2.082  10.377  0.1826  0.9708  1.6491
70112SOL    HW227947   8.821   2.032  10.301 -0.1260  2.2980  0.2162
70113SOL     OW27948   1.054   3.281   3.744 -0.7878  0.4119 -0.6519
70113SOL    HW127949   1.098   3.206   3.784  0.5288  1.4802  0.0234
70113SOL    HW227950   1.006   3.322   3.817 -0.0879  1.1775 -0.6035
70114SOL     OW27951   7.079  12.875   1.337  0.2511 -0.4669  0.3316
70114SOL    HW127952   7.157  12.850   1.387 -0.5539 -0.6930  1.5254
70114SOL    HW227953   7.085  12.825   1.256  1.2342 -0.6483  0.5018
70115SOL     OW27954   0.051   6.139   9.190  0.0424  0.1950  0.4018
70115SOL    HW127955  -0.038   6.127   9.222  0.0760 -0.4694  0.2439
70115SOL    HW227956   0.041   6.186   9.107 -0.0546  1.7742  1.2719
70116SOL     OW27957  11.620  10.558  11.202 -0.0026  0.4237  0.3062
70116SOL    HW127958  11.612  10.620  11.275 -0.5972  0.0366  0.5838
70116SOL    HW227959  11.714  10.552  11.186  0.1671  0.2540  1.2785
70117SOL     OW27960   6.841   3.435   5.415  0.1348  0.0124 -0.0578
70117SOL    HW127961   6.841   3.380   5.494  0.0578 -1.1430 -0.8372
70117SOL    HW227962   6.749   3.457   5.401 -0.0536 -1.0613 -0.6584
70118SOL     OW27963   8.361   5.867   9.037  0.3056  0.0910 -0.2130
70118SOL    HW127964   8.377   5.773   9.041 -0.0076  0.0796  0.9418
70118SOL    HW227965   8.411   5.903   9.110 -2.6639  0.3568  1.8721
70119SOL     OW27966  10.314   7.165  11.875 -0.0700 -0.4524  0.3091
70119SOL    HW127967  10.247   7.233  11.870 -1.2594 -1.5771 -4.7566
70119SOL    HW227968  10.265   7.084  11.893  0.4827 -0.7842  0.3673
70120SOL     OW27969  11.310   6.215   0.718 -0.2666  0.3654  0.1643
70120SOL    HW127970  11.254   6.147   0.755  0.5275 -1.1023 -1.2087
70120SOL    HW227971  11.287   6.217   0.626 -0.0620  1.7827  0.1304
70121SOL     OW27972   3.338   7.967   0.840 -0.1923 -0.3402 -0.5999
70121SOL    HW127973   3.356   7.904   0.770 -0.7178 -0.9474 -0.2044
70121SOL    HW227974   3.319   8.049   0.794  3.7545  0.4918 -1.0598
70122SOL     OW27975   8.780  11.834   5.215  0.5413 -0.6620 -0.3561
70122SOL    HW127976   8.688  11.859   5.216  1.3074  2.7415  1.0448
70122SOL    HW227977   8.808  11.846   5.124  0.2895  1.7497 -0.1884
70123SOL     OW27978  11.946  11.494   3.830  0.8017 -0.2623 -0.2714
70123SOL    HW127979  11.996  11.531   3.757  0.8602 -1.8991 -1.1254
70123SOL    HW227980  11.861  11.536   3.826  0.7493 -0.4568 -1.4198
70124SOL     OW27981  10.204   4.077   9.304  0.2544  0.1385  0.0118
70124SOL    HW127982  10.137   4.101   9.239 -1.2624 -2.1318  0.6148
70124SOL    HW227983  10.211   3.982   9.297  0.8262 -0.0551  2.4248
70125SOL     OW27984   8.671  12.671   2.738  0.2440  0.1713 -0.1452
70125SOL    HW127985   8.695  12.609   2.669  0.3300 -1.6890  1.4617
70125SOL    HW227986   8.714  12.753   2.713  1.7612 -0.9270 -1.3589
70126SOL     OW27987   6.318  12.191   9.746  0.1493  0.5226  0.1967
70126SOL    HW127988   6.296  12.278   9.779  1.3703  0.8571  0.1842
70126SOL    HW227989   6.411  12.197   9.726  0.0028 -0.4628 -0.8351
70127SOL     OW27990   4.202   4.743   8.983 -0.0089 -0.2550 -0.4320
70127SOL    HW127991   4.198   4.743   9.079 -1.2231 -1.8064 -0.4291
70127SOL    HW227992   4.130   4.800   8.956 -0.5987 -0.9614 -0.3943
70128SOL     OW27993   5.816  11.403   6.314  0.5123 -0.0629  0.2026
70128SOL    HW127994   5.778  11.315   6.305 -0.2601  0.2753  0.0771
70128SOL    HW227995   5.860  11.402   6.399 -1.3844  0.1097  1.2264
70129SOL     OW27996   5.016   4.033   9.210 -0.3177 -0.4640  0.6233
70129SOL    HW127997   4.959   4.099   9.170 -0.1330 -1.0037 -0.5956
70129SOL    HW227998   4.958   3.985   9.269 -0.5592  0.4922  1.1858
70130SOL     OW27999   9.510   7.298   1.553  0.8447  0.1463  0.0630
70130SOL    HW128000   9.559   7.375   1.524 -3.0808  2.4551 -1.2348
70130SOL    HW228001   9.519   7.236   1.481  2.1249  0.3273  0.0412
70131SOL     OW28002   9.871   0.450   1.802 -0.2911 -0.9925  1.1541
70131SOL    HW128003   9.821   0.523   1.765 -1.9751 -1.5723  2.1997
70131SOL    HW228004   9.805   0.389   1.835  1.1008 -1.5408  3.1227
70132SOL     OW28005   8.486   0.520   5.832  0.1865  0.3921 -0.6314
70132SOL    HW128006   8.443   0.587   5.778 -0.3791  1.5164  1.1118
70132SOL    HW228007   8.495   0.561   5.918 -1.4255 -2.2201  0.9359
70133SOL     OW28008   4.661   0.208   4.819  0.6323 -0.4472 -0.4485
70133SOL    HW128009   4.662   0.272   4.891  0.1074 -0.4478 -0.4403
70133SOL    HW228010   4.585   0.233   4.766  1.5597  0.1613 -1.5533
70134SOL     OW28011  11.627   1.804   1.042 -0.8473 -0.1473  0.1509
70134SOL    HW128012  11.623   1.772   1.132  0.8615 -1.0784 -0.0552
70134SOL    HW228013  11.719   1.827   1.029 -0.6584 -1.7138 -1.8643
70135SOL     OW28014   8.025  13.056   6.179  0.2050 -0.7384 -0.2411
70135SOL    HW128015   8.085  13.002   6.126  0.5363  0.1570 -0.7960
70135SOL    HW228016   8.008  13.002   6.256  2.0217 -0.8810  0.1195
70136SOL     OW28017   0.358  11.934   3.225  0.0745  0.2079 -0.6369
70136SOL    HW128018   0.353  11.999   3.155 -0.5202 -0.6158 -1.3790
70136SOL    HW228019   0.372  11.985   3.305  0.0168  1.2103 -1.2578
70137SOL     OW28020   1.717  11.171   9.661 -0.4116  0.1353 -0.4128
70137SOL    HW128021   1.727  11.196   9.569 -0.1640 -0.6273 -0.6017
70137SOL    HW228022   1.777  11.098   9.672  0.3349  0.8969  0.6367
70138SOL     OW28023  13.883   9.910   3.273  0.0008  0.6496 -0.8421
70138SOL    HW128024  13.803   9.928   3.323 -0.1259  0.3897 -0.9484
70138SOL    HW228025  13.931   9.992   3.275  0.3135  0.4643  0.2850
70139SOL     OW28026   4.349   3.995   4.088 -0.3861 -0.5129  0.4021
70139SOL    HW128027   4.436   3.994   4.049 -0.6786  0.4190 -0.3318
70139SOL    HW228028   4.346   3.918   4.145  0.6898 -0.8950 -0.0445
70140SOL     OW28029   8.749   2.092   3.512  0.5127  0.0335 -0.6974
70140SOL    HW128030   8.817   2.141   3.465  1.3000 -0.9060 -0.5760
70140SOL    HW228031   8.735   2.014   3.459 -1.2813  0.7010 -1.2891
70141SOL     OW28032  13.301   5.787   6.082  0.2602  0.2453  0.0827
70141SOL    HW128033  13.211   5.806   6.109  0.2360  0.0617  0.1334
70141SOL    HW228034  13.338   5.872   6.060  0.2021  0.3696  0.4574
70142SOL     OW28035   0.666   9.840   0.666  0.0900 -0.0311  0.5095
70142SOL    HW128036   0.670   9.857   0.760 -0.5425 -2.3683  1.0198
70142SOL    HW228037   0.600   9.902   0.633 -0.3891  0.1582  1.7793
70143SOL     OW28038  13.884  13.160   4.186 -0.4482 -0.4324 -0.3806
70143SOL    HW128039  13.868  13.121   4.272  0.1792  1.7274  0.7670
70143SOL    HW228040  13.978  13.151   4.172 -0.4901 -0.4330 -0.6795
70144SOL     OW28041  12.160  11.067   8.701 -0.5726  0.0657 -0.1921
70144SOL    HW128042  12.099  10.996   8.717 -1.5035  0.0358 -3.1961
70144SOL    HW228043  12.145  11.130   8.771 -1.6922 -1.4275  0.9486
70145SOL     OW28044   7.283  11.947   6.158  0.1918 -0.0355  0.1047
70145SOL    HW128045   7.370  11.985   6.170 -0.3602  0.9437  1.1186
70145SOL    HW228046   7.299  11.863   6.115  1.7086 -0.3084  1.1515
70146SOL     OW28047   5.312   1.732   5.611 -0.3123 -0.7654 -0.2154
70146SOL    HW128048   5.347   1.773   5.690  0.1544 -1.4442 -0.0611
70146SOL    HW228049   5.310   1.638   5.632 -0.6200 -0.9034 -0.8453
70147SOL     OW28050   8.898   8.504  12.808  0.3765 -0.3513 -0.0191
70147SOL    HW128051   8.864   8.465  12.727  1.1622  0.4955 -0.7868
70147SOL    HW228052   8.925   8.592  12.782 -1.4142  0.7681  1.6814
70148SOL     OW28053   2.001   0.171   1.010 -0.1720 -0.4590  0.3909
70148SOL    HW128054   2.061   0.107   1.050 -0.0514  0.8745  2.4964
70148SOL    HW228055   1.916   0.151   1.049 -0.3299  0.0031  0.2836
70149SOL     OW28056   6.795   2.328   3.279 -0.0607 -0.1101  0.3753
70149SOL    HW128057   6.700   2.318   3.265  0.4052 -2.3282 -1.8528
70149SOL    HW228058   6.817   2.410   3.236 -0.8360  0.0160  0.1962
70150SOL     OW28059   7.475   7.876   1.371 -0.1009 -0.5342  0.4118
70150SOL    HW128060   7.473   7.947   1.435 -1.0345 -1.1603  1.0963
70150SOL    HW228061   7.425   7.910   1.296 -0.0659 -0.2633  0.5109
70151SOL     OW28062   2.838   3.130   6.975  0.2870 -0.3475  0.5137
70151SOL    HW128063   2.881   3.059   7.022  0.5744 -1.0640 -0.7973
70151SOL    HW228064   2.847   3.206   7.033  0.9915 -1.1087  1.4209
70152SOL     OW28065   7.962   4.632  11.429 -0.1967 -0.0366  0.4070
70152SOL    HW128066   7.925   4.675  11.351 -0.2694  0.7005  0.8317
70152SOL    HW228067   8.045   4.596  11.399 -1.1297 -1.5603 -0.5217
70153SOL     OW28068   9.703  13.068  12.984  0.3007  0.0397 -0.7100
70153SOL    HW128069   9.699  13.122  13.062 -1.2646  0.2475 -0.9130
70153SOL    HW228070   9.771  13.003  13.004  2.1665  1.9758 -0.4456
70154SOL     OW28071   2.429   6.914  13.217  0.0293  0.1102 -0.2222
70154SOL    HW128072   2.512   6.868  13.209 -0.8099 -1.4876 -0.2927
70154SOL    HW228073   2.428   6.948  13.306  0.5208 -0.3704 -0.0280
70155SOL     OW28074   2.072   3.885   7.424 -0.0469 -0.6346  0.3125
70155SOL    HW128075   2.071   3.846   7.511 -1.8062  1.8362  1.4906
70155SOL    HW228076   1.993   3.851   7.382 -0.1237 -0.4744  0.3269
70156SOL     OW28077   0.541   5.541   3.475  0.0864 -0.5176  0.3389
70156SOL    HW128078   0.477   5.610   3.456 -0.2168 -0.9296 -0.1652
70156SOL    HW228079   0.550   5.543   3.570  1.5429  1.5065  0.2299
70157SOL     OW28080   1.554  12.692   7.539 -0.4142  0.0771  0.0865
70157SOL    HW128081   1.608  12.762   7.574  1.5994 -0.3211 -1.9703
70157SOL    HW228082   1.588  12.612   7.580 -0.7965  0.0229  0.3013
70158SOL     OW28083  10.379   2.718   2.222 -0.3804  0.0201  0.3573
70158SOL    HW128084  10.427   2.747   2.299 -1.0927 -0.3588  0.9659
70158SOL    HW228085  10.385   2.622   2.224  1.6933  0.0255 -1.4568
70159SOL     OW28086   4.857  11.613  13.207  0.1895  0.4580  0.1350
70159SOL    HW128087   4.828  11.553  13.138  0.8592 -0.0543  0.2971
70159SOL    HW228088   4.917  11.673  13.163 -0.3447  0.9175  0.0119
70160SOL     OW28089  12.326   4.722   2.554  0.1086 -0.0360 -0.5996
70160SOL    HW128090  12.332   4.774   2.634  1.2569 -0.2708 -0.5205
70160SOL    HW228091  12.410   4.677   2.547 -0.2114 -0.5300 -1.5988
70161SOL     OW28092   4.242   6.326   4.775  0.3362 -0.2318 -0.0590
70161SOL    HW128093   4.216   6.311   4.865  1.2630  0.9811  0.4357
70161SOL    HW228094   4.160   6.322   4.725 -0.0093 -2.3576  0.5907
70162SOL     OW28095  11.907   7.264   6.318  0.3810 -0.0211 -0.0251
70162SOL    HW128096  11.928   7.357   6.320 -1.6336  0.4746  0.2559
70162SOL    HW228097  11.813   7.261   6.300  0.4407 -2.0113 -0.2241
70163SOL     OW28098   4.469  12.636  13.748  0.5546 -0.0635 -0.3682
70163SOL    HW128099   4.395  12.684  13.785  2.0390  0.2678  2.4999
70163SOL    HW228100   4.528  12.705  13.715  0.2571 -0.2524 -1.3255
70164SOL     OW28101   2.922   6.618   8.569 -0.2407 -0.3135 -0.0242
70164SOL    HW128102   2.916   6.664   8.653  0.8786 -0.9369  0.4127
70164SOL    HW228103   2.892   6.683   8.505 -2.3995 -0.2429  0.9593
70165SOL     OW28104  13.284   5.539   3.673  0.1064 -0.4200  0.8071
70165SOL    HW128105  13.282   5.456   3.626  0.3146 -1.0773  1.9129
70165SOL    HW228106  13.202   5.540   3.723 -0.3513  0.4970  0.0647
70166SOL     OW28107   4.604   8.893   4.334 -0.4600 -0.7888  0.4389
70166SOL    HW128108   4.599   8.916   4.427 -1.7646 -0.6192  0.3534
70166SOL    HW228109   4.573   8.972   4.289  2.0171 -0.1496 -0.2767
70167SOL     OW28110  12.729   5.276   0.790 -0.0204  0.0154  0.8055
70167SOL    HW128111  12.776   5.219   0.851  1.5628  1.2601  0.7974
70167SOL    HW228112  12.637   5.264   0.813  0.4528 -0.3899  2.7007
70168SOL     OW28113   8.245   7.012  10.004  0.3173 -0.5138 -0.0126
70168SOL    HW128114   8.264   6.941   9.943 -1.2865 -1.4944  0.5450
70168SOL    HW228115   8.290   6.987  10.085  1.9904  0.5118 -0.5792
70169SOL     OW28116   8.633   4.004   1.698  0.1995  0.2206 -0.2668
70169SOL    HW128117   8.590   4.056   1.765  1.2810  1.2195 -0.3299
70169SOL    HW228118   8.634   4.060   1.620  1.9153  0.3853 -0.1655
70170SOL     OW28119   1.194   0.363   7.091  0.3310  0.3746  0.0614
70170SOL    HW128120   1.274   0.318   7.118  0.3327 -0.8378 -1.8433
70170SOL    HW228121   1.201   0.449   7.132  1.0579 -0.7708  2.5457
70171SOL     OW28122   8.413   7.383  11.661  0.1022 -0.1567 -0.5316
70171SOL    HW128123   8.483   7.446  11.645  0.9310 -0.8869  0.1361
70171SOL    HW228124   8.406   7.377  11.756 -2.5274  1.6711 -0.5088
70172SOL     OW28125   5.684  10.981   5.899  0.1533 -0.2926 -0.4083
70172SOL    HW128126   5.738  10.949   5.827  0.7602 -0.4576  0.1120
70172SOL    HW228127   5.730  10.952   5.978 -0.2598  0.2902  0.0498
70173SOL     OW28128   5.433  12.369   0.127  0.4974  0.4601  0.1265
70173SOL    HW128129   5.432  12.382   0.222  2.6886 -1.0940  0.4339
70173SOL    HW228130   5.525  12.356   0.105 -0.1455 -1.2000 -1.9210
70174SOL     OW28131   0.442   0.036  11.716 -0.0919 -0.3792  0.3000
70174SOL    HW128132   0.361   0.043  11.666 -0.5614  0.9982  1.2141
70174SOL    HW228133   0.415  -0.003  11.800  0.6176 -2.2541 -0.2754
70175SOL     OW28134  11.025   8.552   6.446  0.4687  0.2911  0.1529
70175SOL    HW128135  10.938   8.592   6.444 -0.7395 -2.1386 -2.1514
70175SOL    HW228136  11.078   8.606   6.388  0.1226  1.0285  0.5176
70176SOL     OW28137   9.485   3.773   2.422  0.1399  0.2267  0.4344
70176SOL    HW128138   9.568   3.732   2.396  0.5613  0.5410  1.2384
70176SOL    HW228139   9.482   3.762   2.517  0.5788  2.5843  0.7907
70177SOL     OW28140   7.099  11.105   8.102 -0.0981  0.4124 -0.6801
70177SOL    HW128141   7.100  11.148   8.188  0.3501 -1.0208  0.0636
70177SOL    HW228142   7.149  11.025   8.116 -2.7919 -1.5059 -1.4035
70178SOL     OW28143   0.075   1.248   2.506 -0.4988 -0.2206  0.0618
70178SOL    HW128144   0.034   1.162   2.515 -0.5103 -0.1928  0.2837
70178SOL    HW228145   0.162   1.230   2.470 -0.3922 -0.3497  0.3794
70179SOL     OW28146   3.744  11.796   5.646  0.1767  0.3739  0.0543
70179SOL    HW128147   3.753  11.781   5.740  0.1167 -0.4695 -0.0658
70179SOL    HW228148   3.669  11.743   5.620 -0.2788  1.1869 -0.3466
70180SOL     OW28149  10.362   1.023   8.190 -0.1616  0.0812 -0.4339
70180SOL    HW128150  10.344   1.086   8.120 -0.2038  0.3186 -0.2102
70180SOL    HW228151  10.284   0.968   8.194 -0.8702  1.1237  0.5536
70181SOL     OW28152   7.976   1.788   8.902 -0.2408  0.1728 -0.3446
70181SOL    HW128153   7.969   1.852   8.831 -0.2433  1.2751  0.6228
70181SOL    HW228154   7.886   1.775   8.930 -0.3098 -0.7663 -0.9543
70182SOL     OW28155   9.706  10.552   3.017  0.0620 -0.4738 -0.0841
70182SOL    HW128156   9.668  10.584   3.100  0.0538  0.0737 -0.2942
70182SOL    HW228157   9.634  10.504   2.975 -0.5863  0.9998 -0.7210
70183SOL     OW28158  11.724   2.889   4.827  0.3441 -1.0312 -0.2547
70183SOL    HW128159  11.645   2.939   4.851 -0.0712 -0.7529 -2.0686
70183SOL    HW228160  11.791   2.922   4.886 -0.1092  1.1428 -0.8395
70184SOL     OW28161   7.173   0.152  11.917  0.3191  0.2721 -0.1971
70184SOL    HW128162   7.099   0.092  11.929  0.3711  0.0049 -1.1141
70184SOL    HW228163   7.142   0.214  11.851  1.1985 -0.3562 -1.2347
70185SOL     OW28164   6.558   3.513   0.699 -0.4748  0.9220  0.2009
70185SOL    HW128165   6.571   3.418   0.697 -1.5056  0.7672  0.2815
70185SOL    HW228166   6.646   3.549   0.706 -0.0027  0.0021 -0.7326
70186SOL     OW28167  13.598   4.467  12.831  0.0744  0.0679  0.2873
70186SOL    HW128168  13.522   4.457  12.887 -1.0100 -0.3884 -1.2006
70186SOL    HW228169  13.643   4.382  12.835  1.0839  0.6247  1.8941
70187SOL     OW28170   0.833  13.826   5.541 -0.4949  0.1399 -0.3847
70187SOL    HW128171   0.873  13.773   5.472 -0.3864 -0.8201  0.3939
70187SOL    HW228172   0.745  13.790   5.552 -0.0668 -0.5912  0.8617
70188SOL     OW28173  10.502  13.053   0.880  0.3808 -0.3172  0.1388
70188SOL    HW128174  10.450  13.123   0.920  0.3172  0.8536 -1.8974
70188SOL    HW228175  10.585  13.095   0.857  0.1685 -0.7705 -1.5314
70189SOL     OW28176   2.657  12.169   2.272 -0.3402 -0.0547 -0.0847
70189SOL    HW128177   2.570  12.161   2.312  0.3709  0.5988  1.6794
70189SOL    HW228178   2.641  12.216   2.190 -1.5288  1.1485  0.7907
70190SOL     OW28179   4.318   4.057  12.099  0.4324 -0.1727  0.6608
70190SOL    HW128180   4.346   3.974  12.136  0.8971 -1.3485 -2.0973
70190SOL    HW228181   4.397   4.093  12.058  0.1645  1.4952  1.5191
70191SOL     OW28182   0.853   1.600   6.403  0.3849 -0.2038 -0.1630
70191SOL    HW128183   0.843   1.505   6.410  0.2189 -0.1812 -0.0716
70191SOL    HW228184   0.866   1.616   6.310  0.3025 -0.3070 -0.1923
70192SOL     OW28185  11.737   9.623  12.681 -0.3237  0.8575  0.1390
70192SOL    HW128186  11.773   9.663  12.760  1.0775  0.6737 -0.3723
70192SOL    HW228187  11.643   9.638  12.688 -0.4715 -0.5992  2.6618
70193SOL     OW28188  13.633   9.801   0.600  0.2172 -0.3889  0.4446
70193SOL    HW128189  13.585   9.881   0.580 -0.0574 -0.6835 -0.1199
70193SOL    HW228190  13.647   9.760   0.515 -0.5116 -1.4264  0.7973
70194SOL     OW28191   6.639  12.682   0.634 -0.2805 -0.3595  0.1311
70194SOL    HW128192   6.642  12.776   0.653 -0.9828  0.1220 -1.9071
70194SOL    HW228193   6.549  12.657   0.653 -0.2499 -0.4816  0.1141
70195SOL     OW28194  11.107   4.735   7.020  0.4921 -0.6239 -0.2334
70195SOL    HW128195  11.158   4.771   6.948  0.8576 -0.5103  0.0803
70195SOL    HW228196  11.080   4.812   7.072  0.3331 -0.7129 -0.1830
70196SOL     OW28197  13.098   4.536   6.322  0.2861 -0.3787 -0.0368
70196SOL    HW128198  13.007   4.562   6.336  0.6123  0.2045  1.1411
70196SOL    HW228199  13.094   4.440   6.313 -0.3608 -0.4525  0.8606
70197SOL     OW28200  13.908  12.139   1.436  0.3642 -0.2403 -0.7108
70197SOL    HW128201  13.893  12.127   1.342  0.7582 -0.1821 -0.7830
70197SOL    HW228202  14.003  12.143   1.445  0.3837 -1.5224 -0.1513
70198SOL     OW28203  11.260  12.644   8.097  0.5270 -0.1558 -0.0391
70198SOL    HW128204  11.315  12.711   8.138 -2.2977  1.4899  1.3326
70198SOL    HW228205  11.249  12.674   8.006  0.8186  0.2005  0.0417
70199SOL     OW28206   7.012   1.504   0.239  0.1383  0.3316 -0.4143
70199SOL    HW128207   7.043   1.453   0.314 -0.4825  0.6859  0.0968
70199SOL    HW228208   6.979   1.439   0.177 -0.1757  0.0784  0.0126
70200SOL     OW28209   5.322   4.964  12.765 -0.1411 -0.0470 -0.5229
70200SOL    HW128210   5.392   5.023  12.794 -1.0951  1.0281 -0.3262
70200SOL    HW228211   5.367   4.896  12.715  1.0634  0.5122 -0.2321
70201SOL     OW28212   6.815   3.549   0.675 -0.4153 -0.2401 -0.3186
70201SOL    HW128213   6.809   3.632   0.629  0.9700 -1.6707 -3.4010
70201SOL    HW228214   6.898   3.511   0.644 -1.9855 -3.6664 -0.7920
70202SOL     OW28215   4.755   9.537   0.778  0.0727  0.4772  0.0717
70202SOL    HW128216   4.759   9.600   0.706  0.3678 -1.1809 -1.4330
70202SOL    HW228217   4.672   9.557   0.822  0.4792  2.3390  0.1013
70203SOL     OW28218   2.970  10.706   6.151  0.0599  0.4650 -0.0033
70203SOL    HW128219   2.877  10.726   6.160 -0.7548 -2.1229 -1.4850
70203SOL    HW228220   3.001  10.766   6.083 -0.3321  1.7342  0.8966
70204SOL     OW28221   7.983   1.928   3.484 -0.4214 -0.7114 -0.1784
70204SOL    HW128222   7.969   2.018   3.454 -1.8804 -0.6191  0.7007
70204SOL    HW228223   8.076   1.912   3.467 -0.0386  1.0897  0.0016
70205SOL     OW28224   4.453   0.625  10.155  0.1663  0.5245  0.0257
70205SOL    HW128225   4.542   0.590  10.153 -0.7758 -2.0716 -1.7834
70205SOL    HW228226   4.406   0.566  10.214 -0.3971  1.9502  1.0697
70206SOL     OW28227  13.005  11.888   6.999  0.4992  0.2053 -0.1681
70206SOL    HW128228  12.929  11.942   7.022  0.5182 -0.0237  0.4613
70206SOL    HW228229  13.079  11.936   7.036  0.5094 -0.2829  0.4586
70207SOL     OW28230  12.303  13.154   4.536 -0.4707  0.1946 -0.5351
70207SOL    HW128231  12.383  13.202   4.516 -0.5603  0.2435 -0.7776
70207SOL    HW228232  12.255  13.212   4.596  0.2599 -0.3937  0.6510
70208SOL     OW28233   6.922  13.718  12.009  0.5836  0.7252  0.0681
70208SOL    HW128234   6.916  13.719  12.105 -1.2832  1.3521 -0.0170
70208SOL    HW228235   6.865  13.646  11.983  0.4230  1.0887 -0.6016
70209SOL     OW28236   7.639   5.083   9.176  0.5321 -0.5620 -0.2327
70209SOL    HW128237   7.641   5.138   9.098 -0.6037 -0.9949 -0.5776
70209SOL    HW228238   7.634   5.145   9.249  3.8325 -0.0320 -0.2814
70210SOL     OW28239  10.382   0.891  11.405 -0.5274 -0.7206 -0.2620
70210SOL    HW128240  10.297   0.867  11.442 -0.2747  1.1495  1.7013
70210SOL    HW228241  10.387   0.842  11.323 -3.4620 -0.9237 -0.4142
70211SOL     OW28242   2.321   8.491   7.278  0.2056  0.5943  0.8222
70211SOL    HW128243   2.301   8.411   7.328  1.7546  0.1963  0.8599
70211SOL    HW228244   2.324   8.560   7.344  2.6384  0.0049  1.4332
70212SOL     OW28245   8.174   0.255   9.539 -0.4383 -0.0489  0.2559
70212SOL    HW128246   8.230   0.212   9.604  1.4884 -0.1621 -1.3609
70212SOL    HW228247   8.198   0.214   9.456 -2.6904  0.2154 -0.5889
70213SOL     OW28248   6.852   9.686   5.335 -0.0895 -0.6925 -0.0180
70213SOL    HW128249   6.801   9.647   5.406 -1.2886 -0.0872 -0.5253
70213SOL    HW228250   6.789   9.738   5.285  1.4397  1.9446  0.6314
70214SOL     OW28251   8.340  10.627   8.995 -0.3471 -0.6207 -0.3328
70214SOL    HW128252   8.410  10.586   9.046 -0.5684  0.1164  0.5984
70214SOL    HW228253   8.283  10.555   8.970 -0.6396 -0.9258  1.1230
70215SOL     OW28254   4.079  12.076   0.947  0.2855 -0.6012 -0.0122
70215SOL    HW128255   4.026  12.050   1.022 -0.6240  0.9719 -0.0543
70215SOL    HW228256   4.090  11.997   0.895 -0.8463 -1.2523  0.7175
70216SOL     OW28257  11.909  12.672   6.072  0.3962 -0.4031 -0.1078
70216SOL    HW128258  11.995  12.632   6.058  1.0851  1.2204 -0.8033
70216SOL    HW228259  11.907  12.692   6.166  0.2516 -1.5540  0.1465
70217SOL     OW28260   5.161   8.185   0.646 -0.0742 -0.5643 -0.1117
70217SOL    HW128261   5.092   8.252   0.639  0.3055 -0.0641  0.7498
70217SOL    HW228262   5.155   8.136   0.564 -0.0004  0.8641 -1.0136
70218SOL     OW28263  10.152  10.840   5.349  0.3458  0.3055  0.0653
70218SOL    HW128264  10.101  10.907   5.394  0.8866  0.6412  0.1846
70218SOL    HW228265  10.242  10.855   5.378  0.9135  1.3181 -2.0646
70219SOL     OW28266   4.944  11.319   3.596  0.1694  0.1253 -0.2154
70219SOL    HW128267   4.981  11.323   3.508  0.7165 -0.9011 -0.0517
70219SOL    HW228268   5.002  11.374   3.650 -0.1360  0.7112 -0.4841
70220SOL     OW28269   0.083   9.221  13.954 -0.0467  0.7552  0.3369
70220SOL    HW128270   0.156   9.281  13.941 -0.5964  1.2234 -0.7234
70220SOL    HW228271   0.006   9.277  13.958 -0.3552  0.2766  1.5549
70221SOL     OW28272   0.042   2.863  12.676  0.3677 -0.2835 -0.2543
70221SOL    HW128273   0.007   2.783  12.638  2.0246 -0.6070 -1.1774
70221SOL    HW228274   0.136   2.859  12.658  0.6332  1.3684  0.6064
70222SOL     OW28275   1.667   6.359   1.941 -0.4572 -0.5560  0.0599
70222SOL    HW128276   1.608   6.357   1.866  0.6039  2.7261 -1.0386
70222SOL    HW228277   1.720   6.437   1.928  2.2473 -1.8043  2.4458
70223SOL     OW28278  11.071  11.714  13.155  0.3289 -0.6401 -0.2941
70223SOL    HW128279  11.150  11.743  13.108  1.0971 -0.0408  1.2969
70223SOL    HW228280  11.013  11.790  13.154  2.2075  1.1234  3.5812
70224SOL     OW28281  12.527   0.165   7.114  0.4020 -0.7193 -0.2454
70224SOL    HW128282  12.506   0.146   7.022  1.0428 -1.8651 -0.1658
70224SOL    HW228283  12.529   0.261   7.118 -1.2135 -0.6167 -1.0534
70225SOL     OW28284   4.020  10.897   3.653  0.2696  0.0241  0.1393
70225SOL    HW128285   3.978  10.825   3.700  1.9470 -0.8865  0.3535
70225SOL    HW228286   4.047  10.857   3.569 -1.3051  1.2030 -0.9731
70226SOL     OW28287  13.774   7.585   0.910 -0.4024 -0.1462  0.6762
70226SOL    HW128288  13.762   7.497   0.875  0.3641 -0.9884  2.3836
70226SOL    HW228289  13.787   7.640   0.833  3.5146 -2.2473 -0.4336
70227SOL     OW28290   0.694   8.117   0.764 -0.3821 -0.7320  0.4048
70227SOL    HW128291   0.647   8.182   0.815 -0.1853 -0.7818  0.6484
70227SOL    HW228292   0.783   8.151   0.756 -1.0143  0.5796 -2.1419
70228SOL     OW28293   3.871  14.029   6.057 -0.1398 -0.2231 -0.3664
70228SOL    HW128294   3.912  13.967   6.117  1.1795  1.1678  0.2464
70228SOL    HW228295   3.823  14.090   6.114 -0.7203 -0.1850 -0.8861
70229SOL     OW28296   1.781   7.604   0.931 -0.6045 -0.3157 -0.3011
70229SOL    HW128297   1.776   7.674   0.866 -3.0061  0.4788  0.6213
70229SOL    HW228298   1.714   7.542   0.904 -0.4172 -0.8615  0.4662
70230SOL     OW28299   2.717   8.353   4.538  0.5400  0.3184 -0.2668
70230SOL    HW128300   2.741   8.440   4.568  0.9941 -0.0274  0.4030
70230SOL    HW228301   2.723   8.298   4.616 -2.1992  0.1419 -0.1042
70231SOL     OW28302   8.016   4.940   4.294 -0.4467 -1.0670 -0.1093
70231SOL    HW128303   8.033   4.935   4.200 -2.5587 -0.5922 -0.5710
70231SOL    HW228304   7.991   5.031   4.309 -2.9761 -1.7735  0.3381
70232SOL     OW28305   8.480   2.088   7.238  0.0114 -0.0650  0.4249
70232SOL    HW128306   8.540   2.163   7.240 -0.1626  0.0944  2.6493
70232SOL    HW228307   8.525   2.020   7.290 -1.0419 -0.4829  0.8164
70233SOL     OW28308   4.141   7.997  10.961 -0.2204 -0.2984 -0.1152
70233SOL    HW128309   4.206   8.052  11.004 -1.4130  2.4215 -1.5361
70233SOL    HW228310   4.193   7.934  10.910  1.4212  1.9403 -1.4190
70234SOL     OW28311   6.282   6.228   2.787 -0.2375 -0.0575  0.0332
70234SOL    HW128312   6.203   6.259   2.830 -0.6441 -1.6431  0.4813
70234SOL    HW228313   6.338   6.196   2.858  1.0916  1.5608 -0.2115
70235SOL     OW28314   3.512   6.936   8.939  0.0626 -0.0122  0.5057
70235SOL    HW128315   3.557   6.956   8.857 -2.1721 -0.0004 -0.8197
70235SOL    HW228316   3.532   6.844   8.955  1.6593  0.3518  0.7516
70236SOL     OW28317   3.794   4.397   0.494  0.2937 -0.5161  0.5306
70236SOL    HW128318   3.717   4.375   0.441 -0.1599  0.6614  0.6540
70236SOL    HW228319   3.803   4.324   0.555  0.2075 -1.3988 -0.4879
70237SOL     OW28320   5.693   4.767   2.139  0.2552  0.3219 -0.4594
70237SOL    HW128321   5.651   4.827   2.076 -1.5344 -0.5422 -0.1504
70237SOL    HW228322   5.632   4.764   2.213  0.1500 -2.0483 -0.5712
70238SOL     OW28323   0.984   0.366  10.368 -0.1393 -0.7149 -0.5906
70238SOL    HW128324   0.987   0.315  10.288  1.6244  0.8306 -1.5931
70238SOL    HW228325   1.067   0.414  10.370 -1.2234  1.2983  0.7916
70239SOL     OW28326   4.289  11.160   6.064  0.1293 -0.1311  0.2104
70239SOL    HW128327   4.350  11.230   6.039  0.4419 -0.6244 -0.4363
70239SOL    HW228328   4.337  11.108   6.128  0.4501 -0.5950 -0.3947
70240SOL     OW28329   0.670   4.912   9.865  0.9102  0.0972  0.0902
70240SOL    HW128330   0.590   4.878   9.905 -0.1062  0.9447 -1.1354
70240SOL    HW228331   0.678   5.001   9.899  1.0708  0.1752 -0.1479
70241SOL     OW28332   5.701   3.004   6.886  0.2361 -0.3265  0.1534
70241SOL    HW128333   5.704   2.977   6.794  0.6016  0.1494  0.0262
70241SOL    HW228334   5.768   2.951   6.929  1.3246  0.7393 -0.1954
70242SOL     OW28335   9.987   3.617   5.121 -0.0559  0.0384  0.4279
70242SOL    HW128336   9.972   3.710   5.105  3.5640  0.9575  1.5342
70242SOL    HW228337   9.944   3.600   5.204  0.7118  1.2330  1.0984
70243SOL     OW28338   1.178  12.641   5.037  0.2722  0.4154 -0.4015
70243SOL    HW128339   1.255  12.690   5.065  1.6011 -1.0543 -1.3515
70243SOL    HW228340   1.210  12.553   5.021 -1.6461 -0.2689 -0.7159
70244SOL     OW28341   6.546   5.847   3.114  0.8115  0.0830 -0.6169
70244SOL    HW128342   6.630   5.799   3.116  0.1297 -1.1411  0.0791
70244SOL    HW228343   6.495   5.802   3.047 -0.5293 -1.4756  1.3212
70245SOL     OW28344   5.637   9.035  12.706  0.7012 -0.4182  0.3897
70245SOL    HW128345   5.662   9.119  12.668  1.0022 -1.4464 -1.8701
70245SOL    HW228346   5.685   8.970  12.654 -2.0634 -2.1677 -0.1856
70246SOL     OW28347   7.005   3.214   2.152  0.1306  0.2738 -0.2620
70246SOL    HW128348   7.065   3.254   2.089  1.5336 -1.1479  0.1045
70246SOL    HW228349   7.041   3.239   2.237  0.5848 -1.0924 -0.0333
70247SOL     OW28350   1.997   0.825   9.261  0.0176 -0.2306 -0.1661
70247SOL    HW128351   1.950   0.796   9.183  0.6471 -2.2225  0.1604
70247SOL    HW228352   2.064   0.759   9.276  0.8202  0.8409  1.2803
70248SOL     OW28353  13.818   5.871   3.331 -0.8496 -0.1451 -0.4494
70248SOL    HW128354  13.866   5.840   3.407 -1.1953  1.9432  0.6954
70248SOL    HW228355  13.755   5.802   3.312  0.3387 -1.4200  0.1014
70249SOL     OW28356   2.108   3.513   4.166  0.3158  0.6204 -0.1647
70249SOL    HW128357   2.198   3.543   4.177  0.5323 -0.2169  0.3983
70249SOL    HW228358   2.111   3.453   4.092  0.3771 -0.0024  0.3322
70250SOL     OW28359   4.297   8.071  12.749 -0.1696  0.0059  0.4255
70250SOL    HW128360   4.330   8.099  12.664  0.8720 -2.5350 -0.1062
70250SOL    HW228361   4.229   8.135  12.771 -1.7071 -0.1620 -3.1181
70251SOL     OW28362  10.193   6.395   7.046 -0.3875  0.7235 -0.2011
70251SOL    HW128363  10.268   6.381   6.989 -1.2671  0.0850 -1.2422
70251SOL    HW228364  10.229   6.391   7.135  0.7050 -0.1688 -0.6657
70252SOL     OW28365   6.336  13.660   3.821  0.4421 -0.3061  0.4752
70252SOL    HW128366   6.372  13.618   3.743  1.1429  1.5766 -0.2679
70252SOL    HW228367   6.327  13.752   3.797  0.6707  0.3332  2.6090
70253SOL     OW28368   0.626   5.186   8.055  0.2692  0.2493 -0.8305
70253SOL    HW128369   0.664   5.215   7.972  1.3395  0.1634 -0.3838
70253SOL    HW228370   0.698   5.191   8.118 -0.0387 -1.4015 -0.2915
70254SOL     OW28371   1.311  11.412   8.100 -0.4547  0.1225 -0.1380
70254SOL    HW128372   1.227  11.444   8.132 -1.2763 -2.2760  0.3539
70254SOL    HW228373   1.372  11.427   8.172 -0.2396  2.3995 -0.7044
70255SOL     OW28374   6.088   1.329   6.582 -0.0248 -0.0989 -0.6596
70255SOL    HW128375   6.151   1.353   6.514  0.8758 -0.9499 -0.1447
70255SOL    HW228376   6.078   1.234   6.573 -1.8218  0.0884 -1.2097
70256SOL     OW28377   6.052   5.558  11.966  0.2050  0.2720  0.3733
70256SOL    HW128378   6.036   5.602  12.050  1.4107  0.6915  0.4084
70256SOL    HW228379   6.116   5.490  11.987 -1.8890 -1.8328  0.3917
70257SOL     OW28380   8.912   5.926   1.862  0.5490  0.2296 -0.0538
70257SOL    HW128381   8.908   5.946   1.768  1.8364  0.2908 -0.1134
70257SOL    HW228382   8.866   5.842   1.870 -0.0741  0.4988 -0.6386
70258SOL     OW28383   7.873   8.373   5.112  0.4819  0.3193  0.5416
70258SOL    HW128384   7.885   8.466   5.129  1.0139  0.3228  0.1782
70258SOL    HW228385   7.955   8.332   5.142 -0.0666 -0.1384  1.4556
70259SOL     OW28386  12.718   2.563   6.690  0.1318  0.0751  0.4188
70259SOL    HW128387  12.638   2.613   6.675 -0.5038 -0.9883  0.1597
70259SOL    HW228388  12.747   2.590   6.777 -0.5713  0.3947  0.5626
70260SOL     OW28389  13.594   8.250   7.552 -0.1780  0.0610 -0.3583
70260SOL    HW128390  13.603   8.166   7.597 -1.6585  0.9545  1.7458
70260SOL    HW228391  13.652   8.310   7.600 -3.8609  1.7375  2.5078
70261SOL     OW28392   3.651   0.409   5.449  0.3318  0.0598  0.4436
70261SOL    HW128393   3.572   0.454   5.480 -1.0646 -1.5226 -0.6586
70261SOL    HW228394   3.706   0.479   5.414 -1.4141  1.0344 -0.4878
70262SOL     OW28395  13.797   4.533   5.817 -0.1608 -0.1197  0.1148
70262SOL    HW128396  13.817   4.613   5.770  2.1200  0.2802  1.5937
70262SOL    HW228397  13.852   4.537   5.896  0.2045 -3.2211  0.1372
70263SOL     OW28398   8.066   1.720  11.016  0.1448 -0.0638  0.2855
70263SOL    HW128399   8.048   1.627  11.032 -0.3628 -0.0468 -0.1605
70263SOL    HW228400   8.121   1.720  10.938  2.4008 -0.1317  1.7712
70264SOL     OW28401  11.697   4.147   5.101  0.5933  0.0654  0.0748
70264SOL    HW128402  11.611   4.122   5.066  0.4423  1.3045 -0.4861
70264SOL    HW228403  11.683   4.236   5.135  1.8885  0.6524 -0.8790
70265SOL     OW28404   6.136   6.613   6.211  0.2547  0.3915  0.2321
70265SOL    HW128405   6.214   6.667   6.204  0.0835  0.6296  0.1246
70265SOL    HW228406   6.069   6.661   6.162 -0.6251  1.4249  2.3180
70266SOL     OW28407   6.065   0.989   9.855 -0.5466 -0.6421  0.3772
70266SOL    HW128408   6.046   0.964   9.765  0.4449  1.2831 -0.4311
70266SOL    HW228409   5.995   1.051   9.878 -2.1253 -2.7917  1.8187
70267SOL     OW28410   2.162   1.349   1.293 -0.0168 -0.1488  0.0446
70267SOL    HW128411   2.142   1.267   1.247 -0.4467  1.5306 -2.9855
70267SOL    HW228412   2.215   1.399   1.232  4.2255  0.2008  3.4726
70268SOL     OW28413   2.373   5.542  10.642  0.3075 -0.6084  0.3812
70268SOL    HW128414   2.307   5.514  10.579  0.4543 -0.1807  0.0331
70268SOL    HW228415   2.431   5.466  10.652 -0.2708 -1.0103  0.7396
70269SOL     OW28416   2.570   3.411   1.044 -0.0122 -0.4663  0.4060
70269SOL    HW128417   2.650   3.357   1.040 -0.1053 -0.6678  1.2066
70269SOL    HW228418   2.500   3.349   1.063 -0.0173  0.0079  2.1215
70270SOL     OW28419  11.554   0.689   0.888 -0.1378  0.1147  0.2132
70270SOL    HW128420  11.490   0.759   0.897 -0.8109 -0.1698 -1.7877
70270SOL    HW228421  11.634   0.733   0.859 -1.0818  0.0103 -2.9889
70271SOL     OW28422   4.935   9.478  12.380 -0.8669 -0.3036 -0.2318
70271SOL    HW128423   4.933   9.384  12.366 -0.2256 -0.1926 -1.1488
70271SOL    HW228424   4.842   9.502  12.390 -0.9353 -1.3168  2.3799
70272SOL     OW28425  10.220   2.392   8.837  0.3441  0.2518  0.1934
70272SOL    HW128426  10.307   2.393   8.878  0.2333  1.3198  0.4361
70272SOL    HW228427  10.209   2.302   8.806  0.4083 -0.6508  2.5603
70273SOL     OW28428   5.857  13.004  12.964  0.2546 -0.3737 -0.1844
70273SOL    HW128429   5.922  13.037  13.026 -1.0729 -0.3277  1.2259
70273SOL    HW228430   5.909  12.962  12.895  1.7768 -1.8144  1.7092
70274SOL     OW28431   6.142   6.235   3.824  0.4311 -0.2796 -0.7524
70274SOL    HW128432   6.205   6.172   3.789 -0.4301 -0.9307 -1.1576
70274SOL    HW228433   6.165   6.318   3.783  1.3735 -0.3854 -0.4610
70275SOL     OW28434   5.866   0.634   1.462  0.1942  0.4120  0.2940
70275SOL    HW128435   5.785   0.585   1.482  1.3365 -3.0869 -2.5689
70275SOL    HW228436   5.923   0.617   1.537 -0.7046  0.4454  1.0010
70276SOL     OW28437  11.630   1.337   4.209  0.0955 -0.1882  0.0701
70276SOL    HW128438  11.615   1.243   4.211 -0.1673 -0.1678 -0.6355
70276SOL    HW228439  11.542   1.376   4.209  0.1963  0.1269  2.3453
70277SOL     OW28440   4.900   3.749  11.497 -0.1257 -0.0724  0.6307
70277SOL    HW128441   4.991   3.740  11.526  0.6880  1.8169 -1.1037
70277SOL    HW228442   4.867   3.823  11.549  0.5626  1.6843 -1.2998
70278SOL     OW28443   0.009   2.615   7.089 -0.6095 -0.7515  0.3931
70278SOL    HW128444  -0.038   2.577   7.015 -1.1768 -1.5747  1.1607
70278SOL    HW228445   0.100   2.588   7.075 -0.6499 -0.6319 -0.1601
70279SOL     OW28446  10.033  13.293   7.715 -0.2883  0.2669 -0.2130
70279SOL    HW128447   9.966  13.258   7.658 -0.1531  0.5863 -0.5707
70279SOL    HW228448   9.986  13.318   7.795 -0.3192 -1.1145  0.2191
70280SOL     OW28449   6.693  10.691  11.421  0.1728  0.1341  0.2707
70280SOL    HW128450   6.600  10.710  11.411  0.5792  2.3506  0.2061
70280SOL    HW228451   6.700  10.648  11.506 -0.6730  2.1971  1.4591
70281SOL     OW28452   8.288  11.559   5.342 -0.1380 -0.5003  0.4415
70281SOL    HW128453   8.236  11.639   5.337  1.5818  0.7385  1.2421
70281SOL    HW228454   8.327  11.551   5.254  1.3903  0.8250  0.9395
70282SOL     OW28455   0.827  11.521  12.727  1.2010  0.4482  0.1621
70282SOL    HW128456   0.817  11.427  12.743 -0.7274  0.3584 -1.2521
70282SOL    HW228457   0.914  11.542  12.760  1.8475 -1.9313  0.1218
70283SOL     OW28458   1.831   8.363  12.758  0.3565 -0.2853  0.4068
70283SOL    HW128459   1.877   8.302  12.700  0.0878  1.0394 -1.2614
70283SOL    HW228460   1.757   8.395  12.706 -0.6167  0.0195  1.9324
70284SOL     OW28461   9.104   9.767   2.586 -0.1795  0.6014 -0.6129
70284SOL    HW128462   9.194   9.753   2.558 -1.1250 -2.4775 -2.6927
70284SOL    HW228463   9.086   9.858   2.563  2.7988  1.8469  1.4330
70285SOL     OW28464   8.028   6.988   5.014  0.1509  0.0540 -0.4407
70285SOL    HW128465   8.050   7.042   5.090  1.7841  1.1422 -1.6189
70285SOL    HW228466   7.939   7.014   4.991 -1.1876 -1.7104  2.1990
70286SOL     OW28467   9.819   4.263   6.350  0.3142  0.3540  0.0884
70286SOL    HW128468   9.893   4.283   6.292 -0.1830  0.8530 -0.3763
70286SOL    HW228469   9.786   4.179   6.319  0.6890  0.1197  0.3081
70287SOL     OW28470   1.778   9.824   7.369  0.1596  0.3332 -0.0915
70287SOL    HW128471   1.850   9.834   7.306 -0.6487  0.1292 -1.0714
70287SOL    HW228472   1.748   9.734   7.357  1.1621 -0.3374  1.9042
70288SOL     OW28473   7.015   5.222   1.583 -0.2764 -0.5208  0.4638
70288SOL    HW128474   7.054   5.140   1.612  0.3651 -0.3885  0.0011
70288SOL    HW228475   6.966   5.254   1.658 -0.7385 -1.4545  0.5642
70289SOL     OW28476  11.732   9.331  12.058  0.3505 -0.3068  0.6740
70289SOL    HW128477  11.726   9.357  12.150 -1.0832 -0.3551  0.6189
70289SOL    HW228478  11.696   9.243  12.055 -0.3719  0.0040 -0.0548
70290SOL     OW28479  10.414   3.377   4.333 -0.6828  0.0077 -0.3479
70290SOL    HW128480  10.371   3.398   4.250 -1.9042  0.2812  0.3319
70290SOL    HW228481  10.383   3.444   4.394 -0.6883 -0.8458  0.6175
70291SOL     OW28482   0.876  10.377  14.051  0.2340  0.3729  0.0708
70291SOL    HW128483   0.948  10.414  14.103 -0.1611  2.6257 -0.8674
70291SOL    HW228484   0.867  10.436  13.976 -1.2628 -1.0213 -0.9394
70292SOL     OW28485   8.419   1.425   8.470 -0.0301  0.0894 -0.5681
70292SOL    HW128486   8.360   1.474   8.413  0.2497 -0.9930 -1.8194
70292SOL    HW228487   8.506   1.441   8.434  0.3316  0.6186  0.4908
70293SOL     OW28488  13.592   6.613   6.262  0.8416  0.0287  0.2060
70293SOL    HW128489  13.576   6.519   6.259  1.9322 -0.1483 -0.6589
70293SOL    HW228490  13.653   6.625   6.335  0.1382  0.1686  0.7814
70294SOL     OW28491   9.999   6.067   7.375 -0.4730  0.3772 -0.2116
70294SOL    HW128492  10.018   5.973   7.385 -0.3993  0.3848 -0.2745
70294SOL    HW228493  10.071   6.100   7.321 -1.0086  0.2809 -1.0146
70295SOL     OW28494   0.290  11.257   4.161 -0.1583  0.5120  0.4102
70295SOL    HW128495   0.260  11.248   4.251  0.1660  2.2774  0.7262
70295SOL    HW228496   0.243  11.189   4.113 -0.5354 -0.2772  1.8478
70296SOL     OW28497   1.724   0.223   3.212 -0.7467  0.1410 -0.3035
70296SOL    HW128498   1.721   0.240   3.306 -0.1987  0.6663 -0.3722
70296SOL    HW228499   1.759   0.134   3.205  2.4838  1.2629 -0.0486
70297SOL     OW28500   2.159   4.330   9.559  0.5165 -0.1251 -0.2054
70297SOL    HW128501   2.090   4.360   9.618  1.2344  1.9891 -0.3776
70297SOL    HW228502   2.237   4.378   9.586  0.4826  2.5579 -4.0267
70298SOL     OW28503   6.513   2.537   7.899 -0.0326  0.2747  0.2775
70298SOL    HW128504   6.579   2.472   7.876  0.1781  0.0218  1.5312
70298SOL    HW228505   6.442   2.523   7.836 -0.8924 -2.5685  1.7337
70299SOL     OW28506   7.848   0.303   8.872 -0.3708 -0.1596  0.6563
70299SOL    HW128507   7.839   0.295   8.967  0.2811 -2.4242  0.5943
70299SOL    HW228508   7.815   0.220   8.838 -0.3570  0.5153 -1.0978
70300SOL     OW28509   6.836  11.568   6.128 -0.5437 -0.5530  0.2912
70300SOL    HW128510   6.920  11.539   6.164  0.6308  0.9313 -1.0778
70300SOL    HW228511   6.839  11.664   6.134 -1.5546 -0.4061 -0.9560
70301SOL     OW28512  11.136   9.526   6.023  0.3210  0.0667 -0.1168
70301SOL    HW128513  11.140   9.536   6.118 -1.9587 -0.3142  0.0735
70301SOL    HW228514  11.143   9.615   5.989 -1.7103  0.5714  0.6159
70302SOL     OW28515  10.718   4.115   1.524  0.0288 -0.1736  0.3562
70302SOL    HW128516  10.685   4.028   1.546 -0.5406 -0.5723 -1.8775
70302SOL    HW228517  10.669   4.141   1.447  2.0416  0.9906 -0.6275
70303SOL     OW28518   1.907   2.772   1.794 -0.4677  0.3449  0.3349
70303SOL    HW128519   1.846   2.709   1.832  0.4435  0.5855  2.3457
70303SOL    HW228520   1.919   2.743   1.704 -2.0550 -0.8140  0.4529
70304SOL     OW28521  11.036  12.523   3.110  0.1957 -0.1440 -0.0103
70304SOL    HW128522  11.108  12.490   3.164  0.0226 -0.0914  0.2566
70304SOL    HW228523  11.063  12.611   3.085  0.4299 -0.2953 -0.2962
70305SOL     OW28524   1.863   0.346  13.150  0.3738 -0.2486 -0.5775
70305SOL    HW128525   1.774   0.378  13.135  0.5027  0.0044 -0.8248
70305SOL    HW228526   1.918   0.424  13.142  0.7620 -0.6220 -1.8580
70306SOL     OW28527  10.284   7.640   6.871 -0.2276 -0.0949  0.1575
70306SOL    HW128528  10.320   7.574   6.813  2.0779 -0.2441  1.6234
70306SOL    HW228529  10.214   7.595   6.920  0.2372 -0.9778  0.0177
70307SOL     OW28530   7.422  12.269   3.048  0.5881 -0.0643  0.0327
70307SOL    HW128531   7.373  12.289   3.127  0.3581  3.6228 -0.8663
70307SOL    HW228532   7.366  12.209   2.999 -1.2347  0.9649  0.7841
70308SOL     OW28533   7.610  10.172   8.742 -0.3363  0.3958 -0.4433
70308SOL    HW128534   7.589  10.179   8.835 -1.9220  0.5437 -0.7878
70308SOL    HW228535   7.569  10.090   8.714  0.0631  0.3896 -1.0443
70309SOL     OW28536  11.855   4.433   2.677  0.1414 -0.1785  0.2473
70309SOL    HW128537  11.812   4.351   2.701  0.7274 -0.9868 -1.3308
70309SOL    HW228538  11.852   4.435   2.581  1.0226  1.1562  0.2190
70310SOL     OW28539  14.016  11.923  14.045 -0.3628  0.0570 -0.1667
70310SOL    HW128540  13.974  11.879  14.118  0.3738 -1.0469 -0.3814
70310SOL    HW228541  14.010  11.861  13.972  2.0451 -0.4027 -0.0736
70311SOL     OW28542  10.130   4.750   8.336 -0.4390  0.4198 -0.2711
70311SOL    HW128543  10.169   4.687   8.276  1.4024  0.9870  0.2528
70311SOL    HW228544  10.120   4.830   8.284  1.2151  0.9307  0.1169
70312SOL     OW28545   3.902   7.380   4.401 -0.2548 -0.2231 -0.0567
70312SOL    HW128546   3.871   7.294   4.372 -0.5089 -0.2710  0.3567
70312SOL    HW228547   3.879   7.384   4.494  1.7918 -0.6592  0.5296
70313SOL     OW28548   0.787  10.451   7.101 -0.2856 -0.0451 -0.0732
70313SOL    HW128549   0.711  10.421   7.151 -0.2566  0.1104  0.0660
70313SOL    HW228550   0.750  10.502   7.030 -0.3118  0.0255 -0.0091
70314SOL     OW28551   3.570   1.860   0.646 -0.1891 -0.7474 -0.6419
70314SOL    HW128552   3.562   1.955   0.659  2.3631 -0.6803  1.2100
70314SOL    HW228553   3.514   1.822   0.714 -0.7564 -0.5797 -1.0085
70315SOL     OW28554   1.473  11.075   4.436 -0.1698 -0.2732 -0.0253
70315SOL    HW128555   1.444  11.142   4.498  1.7646 -1.1401  1.9458
70315SOL    HW228556   1.566  11.091   4.424 -0.6078  0.3395 -3.4522
70316SOL     OW28557  11.962  12.324   6.147  0.0552  0.1276 -0.3043
70316SOL    HW128558  11.979  12.290   6.059  1.2248 -2.5983  0.8419
70316SOL    HW228559  12.048  12.324   6.189 -0.3634  2.1693  0.6289
70317SOL     OW28560   7.060   0.970   1.267 -0.3677 -0.2332  0.2875
70317SOL    HW128561   7.058   0.893   1.210  0.4979 -1.3003  1.6440
70317SOL    HW228562   7.107   0.941   1.345  1.2029  2.0416  0.2923
70318SOL     OW28563   4.779   7.277  12.698  0.3218 -0.3323  0.3812
70318SOL    HW128564   4.869   7.247  12.710 -0.1746 -1.7821  0.6806
70318SOL    HW228565   4.781   7.329  12.617  1.0384 -2.2165 -0.8980
70319SOL     OW28566   0.984  11.443   8.004  1.2223 -0.5066 -0.4604
70319SOL    HW128567   1.044  11.386   7.957  0.0730 -0.7841 -1.6595
70319SOL    HW228568   0.917  11.466   7.939  1.2484  1.6109  0.1871
70320SOL     OW28569   6.155   4.037  13.814 -0.5321  0.3158  0.4610
70320SOL    HW128570   6.104   3.987  13.878  1.3347 -0.4685  1.4015
70320SOL    HW228571   6.147   4.128  13.843  1.0100 -0.1074  2.4360
70321SOL     OW28572   7.418   3.392   7.532  0.3604  0.3905  0.6583
70321SOL    HW128573   7.361   3.456   7.490  0.8931  0.8325  0.5935
70321SOL    HW228574   7.453   3.438   7.609 -0.3400 -0.2914  1.4032
70322SOL     OW28575   6.727  10.342   6.361  0.2236  0.0110 -0.1539
70322SOL    HW128576   6.682  10.259   6.348 -1.1915  0.4705  1.4232
70322SOL    HW228577   6.657  10.407   6.367  1.2940  1.3099 -1.2096
70323SOL     OW28578   2.625  10.391  10.552 -0.3447 -0.4295 -0.0386
70323SOL    HW128579   2.704  10.404  10.605  1.1615  0.2797 -2.3112
70323SOL    HW228580   2.563  10.455  10.586  1.2356  1.3376 -0.2850
70324SOL     OW28581  12.044   3.297   0.452  0.2234  0.2455  0.1908
70324SOL    HW128582  12.111   3.262   0.510  0.5758 -0.1822 -0.4690
70324SOL    HW228583  12.089   3.364   0.401  0.8759 -1.8400 -2.1334
70325SOL     OW28584   0.633   2.967   3.647  0.6513  0.0561  0.0093
70325SOL    HW128585   0.586   3.036   3.694  1.3940  0.0227  0.8001
70325SOL    HW228586   0.721   3.001   3.635  0.4405  0.1419 -1.5390
70326SOL     OW28587  10.336   4.501   6.878 -0.1147  0.3763 -0.0715
70326SOL    HW128588  10.251   4.475   6.914 -0.1103 -0.3329 -0.5655
70326SOL    HW228589  10.398   4.488   6.950 -0.1284 -0.8981 -0.2625
70327SOL     OW28590   8.419   9.380  12.896 -0.3160 -0.0324  0.0566
70327SOL    HW128591   8.486   9.391  12.828  3.0194 -2.6483  2.5656
70327SOL    HW228592   8.449   9.435  12.969 -1.4135 -0.5480  0.9356
70328SOL     OW28593  11.896  10.877   0.001  0.3238 -0.4864 -0.5790
70328SOL    HW128594  11.931  10.865   0.089  1.0998 -0.8910 -0.9255
70328SOL    HW228595  11.826  10.941   0.011  1.9310  1.2660 -0.0136
70329SOL     OW28596  10.176   6.166  13.125  0.1261 -0.7889 -0.4793
70329SOL    HW128597  10.175   6.246  13.178  0.0196  1.0409 -3.0283
70329SOL    HW228598  10.084   6.142  13.117 -0.2208  0.9244 -2.4839
70330SOL     OW28599   9.694  11.455   4.912  0.1480  0.5236  0.2654
70330SOL    HW128600   9.609  11.414   4.897  0.7265  0.2831 -3.3481
70330SOL    HW228601   9.748  11.387   4.951 -0.5683 -0.2377 -0.0439
70331SOL     OW28602  10.603   0.083   7.613  0.7486 -0.1456 -1.0788
70331SOL    HW128603  10.649   0.139   7.550  0.4559  1.1558 -0.1813
70331SOL    HW228604  10.673   0.034   7.656  1.0759  0.0479 -1.3815
70332SOL     OW28605   8.195   1.804   1.790 -0.2564 -0.4679  0.0127
70332SOL    HW128606   8.130   1.820   1.722 -0.7116  0.7381  0.6954
70332SOL    HW228607   8.275   1.783   1.741 -0.6518  0.0325 -0.8893
70333SOL     OW28608   6.488   7.806   0.560  0.1724 -0.7850  0.1253
70333SOL    HW128609   6.422   7.747   0.597  0.4364 -0.7086  0.7331
70333SOL    HW228610   6.479   7.887   0.611 -0.4726 -0.1365 -0.9697
70334SOL     OW28611   1.571   2.568   5.790  0.1937 -0.2548 -0.1297
70334SOL    HW128612   1.609   2.545   5.875  1.8082 -0.1203 -0.7891
70334SOL    HW228613   1.490   2.516   5.786 -0.8175  0.9694  2.1609
70335SOL     OW28614   7.259   9.294   2.470 -0.0336  0.4796  0.8939
70335SOL    HW128615   7.204   9.351   2.416  0.2679  1.1742  1.3033
70335SOL    HW228616   7.348   9.310   2.438  0.0810  0.4437  1.1910
70336SOL     OW28617   4.947  12.671   0.861  0.2392  1.0101 -0.5117
70336SOL    HW128618   5.039  12.695   0.850 -0.5501  5.2692  0.5311
70336SOL    HW228619   4.900  12.726   0.798 -1.7123  0.0970  0.0800
70337SOL     OW28620   7.805   2.774   4.177  0.1364 -0.2623  0.7051
70337SOL    HW128621   7.894   2.746   4.153  0.3520 -0.0626  1.2610
70337SOL    HW228622   7.750   2.737   4.109  0.3113 -2.7485  1.7875
70338SOL     OW28623  13.648  12.924   9.352  0.9085 -0.0401 -0.1221
70338SOL    HW128624  13.627  12.848   9.405  1.5599 -0.5650 -0.6020
70338SOL    HW228625  13.662  12.889   9.264 -0.3288  0.8345 -0.7064
70339SOL     OW28626   9.285   2.698   2.289  0.0003  0.2769 -0.7914
70339SOL    HW128627   9.322   2.639   2.355  1.4010 -0.6493 -2.3433
70339SOL    HW228628   9.193   2.708   2.315  0.6344  0.4762  1.6535
70340SOL     OW28629  13.250  12.248  11.946 -0.2921 -0.0117 -0.0763
70340SOL    HW128630  13.332  12.208  11.916 -1.1643 -1.2844 -0.8311
70340SOL    HW228631  13.190  12.175  11.958 -0.9461  0.7683  1.7896
70341SOL     OW28632   0.928   8.603   1.261  0.2265  0.1954 -0.4722
70341SOL    HW128633   1.019   8.590   1.233  0.1015  1.4229 -1.5124
70341SOL    HW228634   0.886   8.519   1.243  1.1564 -0.3982  0.0523
70342SOL     OW28635  13.338  11.381   3.690  0.5188 -0.2417 -0.0331
70342SOL    HW128636  13.323  11.348   3.602  0.1960  0.1353 -0.1162
70342SOL    HW228637  13.433  11.374   3.702  0.5262 -0.6037 -0.2825
70343SOL     OW28638   3.647   5.209   9.297  0.8439 -0.0831 -0.6807
70343SOL    HW128639   3.597   5.235   9.220  0.8012 -0.6532 -0.8481
70343SOL    HW228640   3.719   5.155   9.262  1.7563  0.9645 -0.4785
70344SOL     OW28641   4.206  12.638  13.378  0.4032 -0.2568 -0.1184
70344SOL    HW128642   4.288  12.613  13.420 -0.0643 -0.2319  0.8269
70344SOL    HW228643   4.212  12.600  13.290  3.0120  2.7461 -1.4450
70345SOL     OW28644   5.791  12.577   7.205  0.0779  0.8594 -0.4016
70345SOL    HW128645   5.841  12.575   7.286  1.6256 -0.0137 -1.3297
70345SOL    HW228646   5.710  12.622   7.228  0.0688 -0.1575  1.8486
70346SOL     OW28647   0.437   7.265   6.316 -0.6092 -0.2206  0.3752
70346SOL    HW128648   0.376   7.194   6.334  1.3439 -1.8476  0.9027
70346SOL    HW228649   0.521   7.222   6.302  0.4535  1.9298 -0.2942
70347SOL     OW28650   9.462   0.024   3.546  0.6550 -0.0639  0.7441
70347SOL    HW128651   9.472  -0.065   3.580  2.6938  0.0323  0.5132
70347SOL    HW228652   9.532   0.074   3.588 -0.5292  1.4887  0.9623
70348SOL     OW28653  11.044   6.638   3.202  0.2619  0.3024  0.0796
70348SOL    HW128654  11.029   6.585   3.281 -0.6259 -1.6828 -1.3597
70348SOL    HW228655  11.107   6.587   3.151 -0.8413  0.4445 -1.4876
70349SOL     OW28656   9.691  13.249  13.720 -0.0655 -0.2432  0.3164
70349SOL    HW128657   9.640  13.284  13.793 -0.1532  0.2860  0.0022
70349SOL    HW228658   9.718  13.326  13.670 -1.7192 -0.6947 -1.3633
70350SOL     OW28659   8.661   1.456  10.938  0.1628 -0.3038  0.1208
70350SOL    HW128660   8.627   1.445  11.027  0.6433  0.6522  0.4409
70350SOL    HW228661   8.627   1.542  10.910 -0.8870 -1.0655 -1.0469
70351SOL     OW28662  13.869   5.433   4.203 -0.7862 -0.2674 -0.7184
70351SOL    HW128663  13.799   5.409   4.143  0.8222 -1.4681 -2.2057
70351SOL    HW228664  13.904   5.349   4.234 -1.1299  0.3112  1.4433
70352SOL     OW28665  10.789   7.499   1.644  0.1219 -0.0880  0.0565
70352SOL    HW128666  10.871   7.524   1.687 -1.1373 -1.3795  3.5451
70352SOL    HW228667  10.807   7.411   1.610  0.6825  0.3675 -0.8891
70353SOL     OW28668   9.724   1.670   8.836  0.0702  0.0009  0.0528
70353SOL    HW128669   9.672   1.699   8.911 -1.3417  1.6707 -1.4839
70353SOL    HW228670   9.804   1.634   8.875 -0.7324  0.5256  2.3455
70354SOL     OW28671  12.994   0.836  11.314 -0.7785  0.3095 -0.7071
70354SOL    HW128672  12.994   0.760  11.373  0.1180  0.1425 -0.9187
70354SOL    HW228673  12.924   0.816  11.251 -0.3560 -0.4951 -0.9398
70355SOL     OW28674   0.597   1.809   1.610  0.2635  0.0080 -0.0507
70355SOL    HW128675   0.554   1.885   1.570 -0.1043  0.4096  1.0780
70355SOL    HW228676   0.537   1.736   1.591 -0.2813  0.3318  0.4025
70356SOL     OW28677  12.361   4.914   8.793 -0.4858  0.2443  0.5840
70356SOL    HW128678  12.372   4.939   8.701 -1.8734  0.6438  0.5054
70356SOL    HW228679  12.271   4.883   8.799 -0.1227 -0.6753  1.6216
70357SOL     OW28680  13.825   7.542   4.922 -0.3194 -0.7348  0.3572
70357SOL    HW128681  13.842   7.592   5.002  0.8375  0.5527 -0.6334
70357SOL    HW228682  13.747   7.582   4.884 -0.1286 -0.5016  0.2067
70358SOL     OW28683   1.648   3.822   9.322 -0.1404  0.1421 -0.4216
70358SOL    HW128684   1.652   3.839   9.417  2.1925  1.0531 -0.6284
70358SOL    HW228685   1.595   3.895   9.288  0.2077  0.6146  0.0240
70359SOL     OW28686   5.349  10.528   5.128  0.2253  0.1646  0.2179
70359SOL    HW128687   5.292  10.481   5.066 -1.2585  0.8152  1.0190
70359SOL    HW228688   5.315  10.504   5.214  1.6061  0.0879  0.7651
70360SOL     OW28689   3.831   4.813  11.390 -0.2321  0.3083  0.2705
70360SOL    HW128690   3.819   4.791  11.297 -0.5308  0.2470  0.3231
70360SOL    HW228691   3.796   4.738  11.437  0.5990  0.0057  0.4290
70361SOL     OW28692   1.071   4.175   7.792 -0.2990 -0.2008  0.4721
70361SOL    HW128693   1.059   4.243   7.858 -2.0299 -0.9523  0.9890
70361SOL    HW228694   1.086   4.095   7.841 -0.6706 -0.6052 -0.0532
70362SOL     OW28695  14.090   7.238   3.489 -0.0333 -0.5119  0.4150
70362SOL    HW128696  14.153   7.291   3.439 -1.1273  0.3890 -0.0696
70362SOL    HW228697  14.117   7.248   3.580  1.6209 -1.6647  0.0959
70363SOL     OW28698  11.492   9.906  11.613 -0.0512  0.0294 -0.5046
70363SOL    HW128699  11.480   9.917  11.519 -0.0973 -2.4174 -0.8287
70363SOL    HW228700  11.587   9.900  11.625 -0.0922 -0.8013 -0.5569
70364SOL     OW28701   4.108  10.167   1.600 -0.1918  0.5941 -0.1324
70364SOL    HW128702   4.169  10.095   1.619 -1.4682 -0.4947 -0.0275
70364SOL    HW228703   4.084  10.154   1.508  0.2963  1.4684 -0.3953
70365SOL     OW28704  11.037  10.181   6.605 -0.4923  0.2320  0.3391
70365SOL    HW128705  11.110  10.243   6.606  1.2725 -1.7318  0.3797
70365SOL    HW228706  10.986  10.205   6.528  0.9012  0.8896 -0.4025
70366SOL     OW28707  12.530   0.621  10.651 -0.5679  0.5046  0.0515
70366SOL    HW128708  12.622   0.618  10.679 -0.4377 -2.4996 -0.3981
70366SOL    HW228709  12.481   0.639  10.731  0.2184 -1.6313  1.0785
70367SOL     OW28710   6.307   3.075   6.587  0.3584 -0.2624  0.1995
70367SOL    HW128711   6.307   3.039   6.676  1.9807  1.6527  1.0535
70367SOL    HW228712   6.260   3.158   6.594  0.2869 -0.2095 -0.7830
70368SOL     OW28713   6.295  13.463   6.588 -0.0697  0.2050  0.0046
70368SOL    HW128714   6.370  13.425   6.542 -0.7738 -0.4167 -0.6497
70368SOL    HW228715   6.330  13.542   6.629  1.2279 -0.7066  0.7197
70369SOL     OW28716  11.242   1.045  11.733 -0.0084 -0.1918  0.1313
70369SOL    HW128717  11.181   1.061  11.661  0.4842 -0.2004 -0.2943
70369SOL    HW228718  11.314   1.107  11.718  0.1334 -0.2473  0.5697
70370SOL     OW28719   8.056   9.148   5.258 -0.1711 -1.4465  0.2722
70370SOL    HW128720   7.969   9.180   5.235 -0.3094 -1.8807  0.1961
70370SOL    HW228721   8.041   9.065   5.302  0.2542 -2.0186 -0.6233
70371SOL     OW28722   9.145   7.304  12.681 -0.4058  0.3093  1.0083
70371SOL    HW128723   9.086   7.378  12.666  0.1609  0.2060 -2.4878
70371SOL    HW228724   9.103   7.230  12.638  1.5626 -0.0483 -0.4614
70372SOL     OW28725   6.890   0.745   5.832 -0.5150  0.4316 -0.1807
70372SOL    HW128726   6.962   0.692   5.865 -0.6622  0.1166 -0.3626
70372SOL    HW228727   6.917   0.772   5.745 -2.5243 -3.6785 -2.3901
70373SOL     OW28728   7.653   1.468  10.561  0.0731  0.0393 -0.5397
70373SOL    HW128729   7.628   1.497  10.473 -1.9015 -0.7752 -0.2988
70373SOL    HW228730   7.614   1.381  10.569  0.5569 -0.0630  0.9986
70374SOL     OW28731   4.286   4.835   9.580  0.8685  0.2933 -0.8749
70374SOL    HW128732   4.210   4.874   9.624  1.0807  0.8944 -1.0329
70374SOL    HW228733   4.260   4.830   9.488  0.6313 -0.4651 -0.7784
70375SOL     OW28734   0.340   3.688   8.799 -0.2150 -0.0833 -0.3974
70375SOL    HW128735   0.294   3.644   8.871  1.3731 -2.2579 -0.6001
70375SOL    HW228736   0.384   3.762   8.841 -2.5783  1.1315  0.0587
70376SOL     OW28737  12.474   2.659   6.588  0.1537 -0.1960 -0.1931
70376SOL    HW128738  12.458   2.708   6.507 -1.5888  0.5192  0.5442
70376SOL    HW228739  12.459   2.722   6.658  0.0751 -1.2116  0.7301
70377SOL     OW28740   8.205   0.684   5.165  0.1549 -0.7631 -0.0198
70377SOL    HW128741   8.174   0.698   5.254  2.2239 -2.3996  1.0390
70377SOL    HW228742   8.268   0.754   5.149  1.7542 -1.9292  0.8689
70378SOL     OW28743  10.663  11.485   0.801 -0.1192 -0.2112  0.2332
70378SOL    HW128744  10.745  11.439   0.786 -1.3821 -2.2202 -1.0147
70378SOL    HW228745  10.666  11.560   0.741  1.2195  0.3815  0.9968
70379SOL     OW28746   3.796   0.873   5.619 -1.0838  0.4370 -0.4072
70379SOL    HW128747   3.740   0.826   5.681 -0.6094 -0.4689 -0.6436
70379SOL    HW228748   3.866   0.910   5.673 -0.7118 -0.2879 -0.3681
70380SOL     OW28749   3.465   3.838   4.273 -0.2160 -0.4234  0.2713
70380SOL    HW128750   3.384   3.887   4.256 -1.1399 -1.9024  0.2319
70380SOL    HW228751   3.505   3.828   4.187  0.2529  0.6804  0.3445
70381SOL     OW28752   1.042   4.161   7.534  0.0009  0.4303 -0.3360
70381SOL    HW128753   1.064   4.163   7.627  2.2675 -0.3283 -0.7927
70381SOL    HW228754   1.066   4.248   7.502 -1.5805  0.9834 -0.0811
70382SOL     OW28755  11.574   3.105  10.824  0.2117 -0.4773  0.3417
70382SOL    HW128756  11.560   3.148  10.908 -0.4972  0.4824 -0.2482
70382SOL    HW228757  11.625   3.167  10.772  0.0415 -0.7582 -0.1789
70383SOL     OW28758  13.983   7.556   1.650 -0.2061  0.3509 -0.4129
70383SOL    HW128759  13.948   7.639   1.683  2.2972  1.3246  0.0099
70383SOL    HW228760  13.927   7.534   1.576 -1.1613  2.2149 -0.2953
70384SOL     OW28761  11.466   6.826   3.820 -0.0018 -0.5686 -0.3150
70384SOL    HW128762  11.390   6.866   3.861  0.4393 -1.4569  1.4354
70384SOL    HW228763  11.541   6.865   3.864  0.5525 -0.4254 -1.3423
70385SOL     OW28764   8.167  10.949  12.821  0.3473  0.5981  0.2907
70385SOL    HW128765   8.139  10.882  12.883  1.9568  0.7441  1.2278
70385SOL    HW228766   8.133  11.031  12.857 -0.0381  0.5137  0.1300
70386SOL     OW28767   3.013   2.982  10.782 -0.1228  0.7434 -0.7158
70386SOL    HW128768   3.026   3.077  10.781  0.2162  0.7316  0.6682
70386SOL    HW228769   2.931   2.968  10.734  0.0636  1.6796 -1.3337
70387SOL     OW28770  13.642  10.526   7.629 -0.5867 -0.4535  0.7126
70387SOL    HW128771  13.705  10.583   7.585  0.8897 -1.0628  1.9246
70387SOL    HW228772  13.645  10.555   7.721 -1.8520 -0.7168  0.8520
70388SOL     OW28773   9.826   0.322  10.002 -0.1039 -0.5431  0.1032
70388SOL    HW128774   9.735   0.329  10.030 -0.1334 -0.7883  0.0670
70388SOL    HW228775   9.876   0.319  10.083 -0.1285 -0.4072  0.1236
70389SOL     OW28776   4.984   4.879  12.273  0.3820 -0.8904 -0.6947
70389SOL    HW128777   4.925   4.809  12.245  0.0972 -0.4281 -1.2716
70389SOL    HW228778   5.022   4.912  12.192 -0.1354  0.1982 -0.5143
70390SOL     OW28779   3.219  12.850   9.646 -0.2747 -0.3038  0.0518
70390SOL    HW128780   3.304  12.806   9.645 -0.0927  0.0234  0.7961
70390SOL    HW228781   3.157  12.781   9.621 -0.0075 -1.0343  1.3232
70391SOL     OW28782   9.563   3.759  11.589  0.0087 -0.2367  0.9905
70391SOL    HW128783   9.490   3.820  11.590  0.3567  0.1843  0.7059
70391SOL    HW228784   9.540   3.696  11.520  0.8676  1.0795 -0.5575
70392SOL     OW28785   0.919  12.339   9.496 -0.1181 -0.0390 -0.7440
70392SOL    HW128786   0.904  12.381   9.580 -1.7596 -0.5300 -0.7465
70392SOL    HW228787   0.977  12.265   9.515  0.7649  0.7396 -0.3334
70393SOL     OW28788   4.393   2.642   8.536  0.0044 -0.1481 -0.5362
70393SOL    HW128789   4.314   2.642   8.590  0.3304 -1.2857 -0.0485
70393SOL    HW228790   4.460   2.682   8.591  0.4753 -1.8118  0.1328
70394SOL     OW28791  12.208  10.492   7.558  0.2046 -0.0081  0.3606
70394SOL    HW128792  12.123  10.533   7.565 -0.0635 -0.6580  1.0453
70394SOL    HW228793  12.213  10.433   7.633  1.9114  1.1983  1.2776
70395SOL     OW28794  14.065   3.611   5.277  0.0666  0.2803 -0.1592
70395SOL    HW128795  14.091   3.690   5.230  1.1863 -0.8037 -1.4804
70395SOL    HW228796  13.977   3.592   5.246  0.6064 -0.1408 -1.5010
70396SOL     OW28797   1.034   4.878   3.042 -0.1052 -0.5622 -0.3507
70396SOL    HW128798   1.010   4.798   2.994  1.4728 -0.4282 -1.4437
70396SOL    HW228799   1.128   4.889   3.024  0.9287 -1.1213  3.7150
70397SOL     OW28800   1.929   5.758   2.914  0.4255 -0.1146  0.1028
70397SOL    HW128801   1.925   5.822   2.985  0.8415  0.5244 -0.4361
70397SOL    HW228802   1.857   5.782   2.856  0.2359 -0.4842  0.1814
70398SOL     OW28803   7.122   3.588   1.149  0.2621 -0.0705  0.0784
70398SOL    HW128804   7.060   3.524   1.112  0.3008  0.9751 -1.8825
70398SOL    HW228805   7.067   3.643   1.205 -0.4175  0.2398 -0.8675
70399SOL     OW28806   4.372   7.820   1.612  0.3409  0.1752  0.1817
70399SOL    HW128807   4.456   7.794   1.652 -0.1588 -0.1208  1.0828
70399SOL    HW228808   4.356   7.755   1.544  0.3851 -0.3281  0.6492
70400SOL     OW28809  12.742  14.076   7.082 -0.3138 -0.3017 -0.0100
70400SOL    HW128810  12.669  14.132   7.108 -1.5865 -1.6704 -0.4758
70400SOL    HW228811  12.762  14.025   7.161  0.8393  0.7809  0.4139
70401SOL     OW28812   4.005  11.533  11.992  0.1196  0.0158 -0.4908
70401SOL    HW128813   4.095  11.521  11.964  0.0276  1.2739 -1.3922
70401SOL    HW228814   4.007  11.609  12.050 -0.2743 -0.3147 -0.0302
70402SOL     OW28815  13.500   6.953  12.346 -0.1853 -0.0551 -0.2495
70402SOL    HW128816  13.421   7.006  12.353 -0.5540 -0.3724 -1.5813
70402SOL    HW228817  13.531   6.968  12.256 -0.2535 -1.9654 -0.6375
70403SOL     OW28818   5.388   7.205   1.675 -0.6704 -0.0770 -0.3536
70403SOL    HW128819   5.451   7.277   1.664  1.0259 -1.3071  0.7668
70403SOL    HW228820   5.344   7.197   1.591 -0.8856  2.2248 -0.5222
70404SOL     OW28821  13.142   7.962   0.169  0.5833  0.4609  0.5335
70404SOL    HW128822  13.167   7.971   0.261  1.3135  0.8019  0.3102
70404SOL    HW228823  13.217   7.995   0.121  0.7348 -0.9144 -0.2177
70405SOL     OW28824  13.956   8.779  12.278 -0.3356  0.2276 -0.3834
70405SOL    HW128825  13.994   8.691  12.275  0.6696  0.6635 -1.4389
70405SOL    HW228826  14.004   8.828  12.211  0.3127  2.0473  1.3190
70406SOL     OW28827  10.310  13.403   9.464 -0.5044  0.4594 -0.3348
70406SOL    HW128828  10.286  13.356   9.384 -0.7070 -1.3488  0.7529
70406SOL    HW228829  10.404  13.390   9.473 -0.6503 -0.2019  0.2572
70407SOL     OW28830  13.716  13.089  10.911 -0.5057 -0.0889 -0.4985
70407SOL    HW128831  13.716  13.018  10.976 -3.1017  0.8413  0.6587
70407SOL    HW228832  13.743  13.047  10.830 -1.4335 -2.3119  0.2656
70408SOL     OW28833   0.108   3.659  10.083 -0.2932 -0.1955 -0.1746
70408SOL    HW128834   0.172   3.597  10.049  0.5047 -0.8302  2.2644
70408SOL    HW228835   0.023   3.617  10.067  0.0180 -0.3469 -1.5143
70409SOL     OW28836  10.494   3.103  14.069  0.2264 -0.2779  0.4406
70409SOL    HW128837  10.543   3.184  14.086  0.3057  0.3154 -2.2554
70409SOL    HW228838  10.402   3.131  14.069  0.0280 -0.7757  2.2144
70410SOL     OW28839  11.906   4.799  11.916  0.6884  0.1221  0.0473
70410SOL    HW128840  11.843   4.733  11.944  0.7758 -0.6303 -1.4197
70410SOL    HW228841  11.856   4.859  11.861  0.4452  1.7550  1.9146
70411SOL     OW28842  11.642   8.222  11.267  0.4554  0.3771 -0.1391
70411SOL    HW128843  11.599   8.137  11.270  2.0846 -0.6514 -2.4089
70411SOL    HW228844  11.583   8.278  11.217 -1.0452  0.9655  2.1207
70412SOL     OW28845   0.054   1.738  13.248  0.1552 -0.0068 -0.2954
70412SOL    HW128846   0.059   1.644  13.264  0.2323 -0.1417 -1.0730
70412SOL    HW228847   0.136   1.760  13.203 -0.8016  0.0131 -2.1044
70413SOL     OW28848   4.446   3.869   0.537  0.3034  0.2353  0.3848
70413SOL    HW128849   4.361   3.835   0.564  0.1068  1.1248  0.9161
70413SOL    HW228850   4.474   3.810   0.467 -1.9062  1.3344 -1.5898
70414SOL     OW28851   0.418  10.536   4.914  0.5353 -0.1391  0.0652
70414SOL    HW128852   0.373  10.470   4.860  1.2664 -0.2671 -0.4145
70414SOL    HW228853   0.511  10.518   4.899  0.7425  0.7407  0.2606
70415SOL     OW28854   2.364   2.298   6.532  0.1006 -0.1138 -0.2231
70415SOL    HW128855   2.277   2.259   6.545 -1.9844  3.5978 -1.4811
70415SOL    HW228856   2.377   2.353   6.609  0.0842  1.2845 -1.1780
70416SOL     OW28857  11.606   1.491   4.505  0.4253  0.1025  0.0867
70416SOL    HW128858  11.688   1.445   4.525  0.9683  1.5229  1.4554
70416SOL    HW228859  11.539   1.423   4.502  1.6621 -1.1136 -1.2139
70417SOL     OW28860   7.832   7.912   8.389 -0.3632 -0.3142  0.6898
70417SOL    HW128861   7.795   7.905   8.301 -1.1751 -1.4245  1.0937
70417SOL    HW228862   7.801   7.997   8.421 -0.9003 -0.3484  0.2795
70418SOL     OW28863   5.806   0.223  12.863 -0.1529 -0.4195  0.3590
70418SOL    HW128864   5.896   0.232  12.832 -0.6904 -2.5775 -2.1200
70418SOL    HW228865   5.763   0.303  12.833  0.7844  0.3915  1.1128
70419SOL     OW28866   1.746  12.665   6.273  0.6491  0.3467 -0.0716
70419SOL    HW128867   1.698  12.706   6.201  0.9295  0.1796 -0.3562
70419SOL    HW228868   1.801  12.599   6.231 -1.5564 -2.0888  0.5714
70420SOL     OW28869   7.897   2.081   1.309  0.3201 -0.4809 -0.5371
70420SOL    HW128870   7.902   1.988   1.286  0.2470 -0.9818  1.3070
70420SOL    HW228871   7.804   2.097   1.323  0.5358 -0.7891  1.5057
70421SOL     OW28872   2.783   1.139   7.890 -0.2016  0.0374  0.2921
70421SOL    HW128873   2.845   1.204   7.858 -1.8557  1.7292  0.2968
70421SOL    HW228874   2.723   1.189   7.946 -2.4880 -1.1619 -0.9453
70422SOL     OW28875   6.689   9.218   4.259 -0.2043 -0.2510 -0.3777
70422SOL    HW128876   6.753   9.245   4.325  0.0900  0.6227 -1.0079
70422SOL    HW228877   6.675   9.296   4.206 -1.9058 -0.3697 -0.1695
70423SOL     OW28878   6.400   2.368  13.202  0.1157 -0.5582 -0.3133
70423SOL    HW128879   6.472   2.323  13.158 -0.2745 -0.7074 -0.8096
70423SOL    HW228880   6.395   2.328  13.289  0.1620 -1.0472 -0.5360
70424SOL     OW28881  13.515   5.707   1.203  0.2281 -0.2862  0.1028
70424SOL    HW128882  13.424   5.676   1.198 -0.0451  0.4688  0.2804
70424SOL    HW228883  13.561   5.656   1.136 -0.2872 -0.7923  0.1174
70425SOL     OW28884   8.292   1.599   8.266  0.0503  0.2514  0.2852
70425SOL    HW128885   8.249   1.675   8.229 -0.1412  0.1376  0.2737
70425SOL    HW228886   8.377   1.595   8.223 -0.3104 -0.0882 -0.4049
70426SOL     OW28887   7.983   1.346   0.416  0.7668  0.2195 -0.3889
70426SOL    HW128888   7.906   1.295   0.392  0.6095  0.5908 -0.6917
70426SOL    HW228889   7.966   1.373   0.506  0.2743  0.7638 -0.6319
70427SOL     OW28890   2.558   1.717   7.796  0.5326  0.3009 -0.5883
70427SOL    HW128891   2.516   1.633   7.817  0.5814  0.0302 -1.5431
70427SOL    HW228892   2.573   1.757   7.882 -2.2162  0.7060 -0.2130
70428SOL     OW28893  10.574   9.882   6.829 -0.0652 -0.1450 -0.4621
70428SOL    HW128894  10.614   9.853   6.911  0.5926 -0.9577 -1.0556
70428SOL    HW228895  10.602   9.973   6.820 -0.5549  0.1135  0.4563
70429SOL     OW28896  13.006   2.718   2.059 -0.2422  0.5108 -0.4681
70429SOL    HW128897  13.086   2.667   2.072 -0.2410 -0.1934 -2.7916
70429SOL    HW228898  13.016   2.793   2.118  1.4358 -0.2917  0.3609
70430SOL     OW28899   8.593   5.534   3.172  0.5068 -0.1789 -0.2092
70430SOL    HW128900   8.501   5.510   3.173 -0.3004  2.4371  2.2057
70430SOL    HW228901   8.639   5.454   3.149 -2.3294 -1.5569 -1.5189
70431SOL     OW28902   8.585  11.572   6.624  0.7366 -0.6314 -0.4998
70431SOL    HW128903   8.617  11.655   6.660  1.4181 -0.7633 -0.7779
70431SOL    HW228904   8.653  11.546   6.561  0.8266 -1.6963  0.0126
70432SOL     OW28905   8.034   6.171   0.939  0.9909 -0.2914 -0.0620
70432SOL    HW128906   8.096   6.100   0.920  1.4280  0.7703 -3.3449
70432SOL    HW228907   8.087   6.251   0.931  0.1429  0.5278  1.8523
70433SOL     OW28908  11.431   6.271   1.182 -0.1646  0.1163 -0.3182
70433SOL    HW128909  11.471   6.296   1.099 -0.7936 -0.5187 -0.8280
70433SOL    HW228910  11.350   6.323   1.186  0.3948  0.9639  0.4313
70434SOL     OW28911   7.217   4.834  13.929 -0.4032 -0.3308  0.3436
70434SOL    HW128912   7.263   4.889  13.866  0.0572 -1.8237 -0.6831
70434SOL    HW228913   7.242   4.744  13.905 -0.5625 -0.9703  2.3860
70435SOL     OW28914  12.557   6.784   4.826  0.0230  0.8062 -0.3476
70435SOL    HW128915  12.480   6.785   4.882  1.4194  0.8615  1.6847
70435SOL    HW228916  12.562   6.693   4.794 -0.0491  0.4175  0.7213
70436SOL     OW28917   2.087   5.267   6.337  0.4014  0.0891  0.1597
70436SOL    HW128918   2.120   5.316   6.412  0.2312  1.1362 -0.4301
70436SOL    HW228919   1.992   5.270   6.346  0.3820  0.2003 -0.0967
70437SOL     OW28920  11.740   8.346   0.910  0.2496  0.4654  0.2501
70437SOL    HW128921  11.752   8.440   0.922  1.3355  0.5592 -1.2270
70437SOL    HW228922  11.818   8.307   0.949 -0.2804  0.1582  1.0153
70438SOL     OW28923  12.067   4.819   5.430  0.0431  0.8529  0.0420
70438SOL    HW128924  12.001   4.866   5.482  0.9943  1.9950  0.2482
70438SOL    HW228925  12.017   4.782   5.357 -1.1185  0.1925  1.1275
70439SOL     OW28926   9.898  11.437   2.395 -0.3064 -0.4236 -0.0547
70439SOL    HW128927   9.944  11.368   2.346  0.4704  0.0563 -0.0262
70439SOL    HW228928   9.931  11.519   2.357 -1.5063 -0.0663 -0.3448
70440SOL     OW28929   0.619   9.970   6.961 -0.6710  0.1175  0.0066
70440SOL    HW128930   0.681   9.898   6.965  0.8992  1.2829 -1.7225
70440SOL    HW228931   0.534   9.930   6.978  0.2345 -1.9934 -0.1920
70441SOL     OW28932  13.740   8.278  11.868  0.6518 -0.0345 -0.2469
70441SOL    HW128933  13.649   8.307  11.869  0.8928  1.0612  2.8853
70441SOL    HW228934  13.736   8.183  11.857 -1.0968 -0.2919  1.9105
70442SOL     OW28935   4.789   1.476   4.224 -0.6129  0.6065  0.3384
70442SOL    HW128936   4.779   1.566   4.192  0.0377  0.3550 -0.6051
70442SOL    HW228937   4.795   1.423   4.144  1.5716  0.0106  0.8258
70443SOL     OW28938   0.638   4.066   3.086 -0.3037  0.1296 -0.2039
70443SOL    HW128939   0.556   4.036   3.047  0.0112 -0.5707 -0.3492
70443SOL    HW228940   0.648   4.156   3.055 -1.4782  0.5519  0.5714
70444SOL     OW28941  11.218   0.675  13.736  0.1023  0.1901  0.3087
70444SOL    HW128942  11.218   0.699  13.644  2.0258  1.3270  0.5347
70444SOL    HW228943  11.139   0.622  13.748  0.0939 -0.4461 -2.0885
70445SOL     OW28944   5.164   2.218   9.401  0.3176  0.0008 -0.1528
70445SOL    HW128945   5.146   2.143   9.458  0.9366 -1.0473 -1.2954
70445SOL    HW228946   5.250   2.249   9.427 -0.8292  1.7772  1.8278
70446SOL     OW28947   5.585  13.145   9.361 -0.6016 -0.0504 -0.3745
70446SOL    HW128948   5.489  13.146   9.357 -0.6531 -0.6223  0.4233
70446SOL    HW228949   5.612  13.230   9.326 -1.4211  0.3457 -0.0659
70447SOL     OW28950  13.362   4.964  14.030 -0.3167 -0.0647  0.4302
70447SOL    HW128951  13.450   4.994  14.054  1.3736 -4.3857  0.5118
70447SOL    HW228952  13.307   4.991  14.103  1.9872 -1.2988  2.7940
70448SOL     OW28953   9.514  11.976   3.132 -0.1353 -0.1497 -0.1161
70448SOL    HW128954   9.565  12.026   3.067 -1.0831  0.3220 -0.5115
70448SOL    HW228955   9.460  11.917   3.079  0.8254 -1.4767  0.3437
70449SOL     OW28956   4.074  13.973   0.244 -0.0630 -0.0995 -0.2260
70449SOL    HW128957   4.164  14.000   0.260 -0.1467  0.2814 -0.3845
70449SOL    HW228958   4.026  14.006   0.321  0.1146 -1.2682  0.4082
70450SOL     OW28959   8.758   9.038   0.431  0.9108  0.4050  0.0171
70450SOL    HW128960   8.709   9.033   0.348 -0.2320  0.1621  0.6745
70450SOL    HW228961   8.725   8.964   0.482  0.7542  1.2187  1.1242
70451SOL     OW28962   2.942  13.611   4.732 -0.2778  0.2422  0.3760
70451SOL    HW128963   2.885  13.688   4.719 -1.2452 -0.7031 -1.3266
70451SOL    HW228964   3.007  13.640   4.796  0.4779  3.0973 -1.4836
70452SOL     OW28965   4.114   3.383   0.837  0.0576  0.8586 -0.7823
70452SOL    HW128966   4.061   3.324   0.891 -0.7356  0.8910 -1.4995
70452SOL    HW228967   4.070   3.467   0.843  0.6799  1.1725 -0.4876
70453SOL     OW28968   5.672   2.344  12.779  0.1999 -0.5816  0.4061
70453SOL    HW128969   5.767   2.331  12.771  0.1238 -0.0178 -3.4329
70453SOL    HW228970   5.634   2.265  12.741 -0.9317 -0.7942  1.8952
70454SOL     OW28971   3.307   6.289  11.821  0.6455 -0.3675  0.3693
70454SOL    HW128972   3.256   6.223  11.867 -0.8889  0.2422 -0.3870
70454SOL    HW228973   3.372   6.239  11.772 -0.5720 -1.3579 -0.2958
70455SOL     OW28974   5.288  12.520   6.976 -0.2372 -0.2318 -0.3502
70455SOL    HW128975   5.365  12.553   6.929 -0.6750 -0.0955 -0.9914
70455SOL    HW228976   5.219  12.581   6.953 -0.3767  0.0573  0.8023
70456SOL     OW28977   3.222  10.743   3.900  0.3281 -0.1925 -0.3025
70456SOL    HW128978   3.153  10.788   3.851  1.1179 -0.1519 -1.4349
70456SOL    HW228979   3.302  10.765   3.852  1.2055  0.2396  1.3149
70457SOL     OW28980   7.273   0.339   2.016 -0.0207  0.4837  0.5431
70457SOL    HW128981   7.192   0.297   2.047  0.7775  0.7501  3.2364
70457SOL    HW228982   7.343   0.292   2.062  1.1015  2.5948  1.1092
70458SOL     OW28983  10.791  12.391   3.267  0.1444 -0.4227  0.4345
70458SOL    HW128984  10.834  12.390   3.181 -1.9724  4.0687 -1.0203
70458SOL    HW228985  10.859  12.421   3.327  0.6296  0.6941 -0.6243
70459SOL     OW28986  11.485   6.037   8.204  0.7369 -0.3116 -0.3448
70459SOL    HW128987  11.466   5.958   8.154 -0.3440 -0.6593  0.5872
70459SOL    HW228988  11.565   6.072   8.164  0.0332 -0.6805 -2.1786
70460SOL     OW28989   0.346   4.076   2.711  0.0641  0.1185  0.0889
70460SOL    HW128990   0.274   4.038   2.660 -1.3823  1.8329  0.7725
70460SOL    HW228991   0.421   4.073   2.651 -0.8625 -0.5465 -1.0976
70461SOL     OW28992   3.805   4.496  11.328 -0.0225  0.2522  0.4422
70461SOL    HW128993   3.814   4.421  11.270 -2.0036 -0.5792  1.1420
70461SOL    HW228994   3.837   4.570  11.276 -4.1150  0.0593 -2.9242
70462SOL     OW28995  10.553   3.862   7.486 -0.2849  0.0303  0.4219
70462SOL    HW128996  10.546   3.792   7.421  0.6882  2.0744 -2.0692
70462SOL    HW228997  10.645   3.860   7.512 -0.4130 -0.0566  0.8634
70463SOL     OW28998  11.641  10.301   7.898  0.2937 -0.3553 -0.6673
70463SOL    HW128999  11.577  10.353   7.946 -0.7275 -2.5955  0.5505
70463SOL    HW229000  11.592  10.224   7.869  2.4932 -2.4280  0.7599
70464SOL     OW29001   8.232  12.423   8.464  0.0440 -0.0851  0.3611
70464SOL    HW129002   8.216  12.344   8.515  0.9145 -0.8129 -0.4635
70464SOL    HW229003   8.254  12.490   8.529  0.9501 -0.9487  0.9670
70465SOL     OW29004   8.383   8.317  13.516  0.3412 -0.2265 -0.4763
70465SOL    HW129005   8.319   8.352  13.454 -0.1479 -0.2237  0.0284
70465SOL    HW229006   8.410   8.233  13.477 -0.5174 -0.5795 -0.3332
70466SOL     OW29007   9.002   0.507   4.407  0.0657 -0.1146 -0.1593
70466SOL    HW129008   8.911   0.489   4.383 -0.1065  0.0420  0.3481
70466SOL    HW229009   9.000   0.596   4.443  0.4914  0.0381 -0.5065
70467SOL     OW29010   7.799  13.638   6.712  0.0618 -0.0855 -0.1105
70467SOL    HW129011   7.803  13.733   6.706 -0.2236 -0.1762 -3.4075
70467SOL    HW229012   7.708  13.616   6.691 -0.0062 -1.1013  1.0957
70468SOL     OW29013  13.851   2.789   8.713  0.0562  0.1174 -0.3632
70468SOL    HW129014  13.885   2.779   8.625  1.1635 -0.4836  0.1104
70468SOL    HW229015  13.799   2.869   8.710  2.3197  1.6469 -0.8888
70469SOL     OW29016   6.425   0.759   5.480 -0.1153 -0.0642  0.0228
70469SOL    HW129017   6.431   0.820   5.553  0.3078  0.8654 -0.7706
70469SOL    HW229018   6.343   0.711   5.496 -0.7045  1.0291  0.4037
70470SOL     OW29019  12.877   8.821   6.032 -0.1990  0.3952  0.1933
70470SOL    HW129020  12.805   8.835   5.971  1.4437 -0.6842 -2.1350
70470SOL    HW229021  12.946   8.880   6.002  0.6078 -0.0712  1.0781
70471SOL     OW29022   4.327   9.797  13.336  0.0327  0.1887  0.3020
70471SOL    HW129023   4.268   9.807  13.261  1.3180 -0.3407 -0.8178
70471SOL    HW229024   4.367   9.883  13.347 -0.3918  0.3514  0.5932
70472SOL     OW29025   2.741  11.731   5.758 -0.1566  0.7150  0.3937
70472SOL    HW129026   2.656  11.760   5.724  0.3855  2.0978  0.1827
70472SOL    HW229027   2.785  11.811   5.785  1.5604  0.1432 -0.5848
70473SOL     OW29028  10.628  10.607   7.624  0.0948 -0.2052 -0.2249
70473SOL    HW129029  10.712  10.599   7.671  0.3183 -1.4352 -0.7981
70473SOL    HW229030  10.602  10.517   7.605 -0.8930  0.2008 -0.8919
70474SOL     OW29031  10.909   1.938   0.590 -0.2843  0.6669  0.3135
70474SOL    HW129032  10.872   2.026   0.601  1.0049  1.1292  1.1647
70474SOL    HW229033  11.001   1.953   0.569 -0.4302 -0.4700 -1.3593
70475SOL     OW29034   4.394   0.357   4.290  0.5034 -0.0891  0.1544
70475SOL    HW129035   4.467   0.328   4.344  1.1660 -0.0102 -0.6809
70475SOL    HW229036   4.316   0.323   4.334  1.1324 -1.3585  0.3203
70476SOL     OW29037   1.045   8.775   5.043 -1.0856  0.3183  0.2574
70476SOL    HW129038   1.025   8.689   5.082  2.8661 -1.1047 -0.3864
70476SOL    HW229039   1.066   8.831   5.118 -0.1490 -0.3978  0.5542
70477SOL     OW29040   0.827   6.017  13.842  0.7821  0.5005 -0.5020
70477SOL    HW129041   0.902   5.959  13.852  1.4904  1.5929  0.8029
70477SOL    HW229042   0.751   5.960  13.853  1.3756 -0.6955 -2.2524
70478SOL     OW29043   4.622  13.375   3.831 -0.2594 -0.1577 -0.7976
70478SOL    HW129044   4.629  13.463   3.794 -2.1974 -0.9230 -3.2545
70478SOL    HW229045   4.712  13.352   3.857  0.0235  3.1941  1.8560
70479SOL     OW29046   7.870   3.542   0.399  0.1752  0.0112 -0.1583
70479SOL    HW129047   7.919   3.483   0.456  0.1125  0.0778 -0.0342
70479SOL    HW229048   7.779   3.513   0.407  0.0553  0.5080  0.3838
70480SOL     OW29049   9.566   5.346   3.455  0.4289  0.0342  0.6820
70480SOL    HW129050   9.601   5.321   3.541  2.8245 -1.4504 -0.6028
70480SOL    HW229051   9.642   5.346   3.397 -1.0263  1.4457 -1.3865
70481SOL     OW29052   6.446  13.576   5.900  0.4456 -0.0065  0.3362
70481SOL    HW129053   6.537  13.579   5.930  0.6182  0.3850 -0.2193
70481SOL    HW229054   6.445  13.506   5.834  0.9965  1.8341 -1.7384
70482SOL     OW29055   4.146  10.943   6.520  0.2509 -0.2192  0.6244
70482SOL    HW129056   4.105  10.968   6.602 -0.1401  0.2151  0.3056
70482SOL    HW229057   4.215  11.008   6.506  0.3837 -0.3511  0.6555
70483SOL     OW29058   0.969   9.932  12.817  0.3649 -0.0225 -0.0740
70483SOL    HW129059   0.903   9.918  12.750  0.1667 -0.8788  0.2942
70483SOL    HW229060   1.037   9.984  12.773 -0.7797  1.3309 -0.2997
70484SOL     OW29061   2.368   0.397   6.153 -0.6240  0.2098  0.4144
70484SOL    HW129062   2.370   0.361   6.241  0.2994 -0.6434  0.0642
70484SOL    HW229063   2.303   0.468   6.157 -0.0977  0.6312  1.9279
70485SOL     OW29064   3.352  13.564   1.883 -0.0176 -0.1218  0.2278
70485SOL    HW129065   3.289  13.530   1.947  1.0968  1.6777  2.4330
70485SOL    HW229066   3.436  13.564   1.930  1.4622 -1.2526 -2.1839
70486SOL     OW29067  11.264   2.075   2.883 -0.1452  0.2862  0.0880
70486SOL    HW129068  11.357   2.096   2.878 -0.0978  0.1925  0.5605
70486SOL    HW229069  11.220   2.158   2.863  0.0110 -0.1926 -2.5129
70487SOL     OW29070   3.045  11.566   4.443  0.3912  0.0882  0.2782
70487SOL    HW129071   3.081  11.485   4.479  0.8499 -0.2217 -0.8249
70487SOL    HW229072   3.109  11.594   4.378 -0.0497  1.0285  0.2338
70488SOL     OW29073   4.207   2.317  11.239  0.0704 -0.5981  0.7634
70488SOL    HW129074   4.140   2.368  11.283 -0.2398 -0.4341  0.1066
70488SOL    HW229075   4.212   2.235  11.289 -0.6415 -0.6277  0.7926
70489SOL     OW29076   6.336   8.458  10.346  0.2517  0.2818 -0.4778
70489SOL    HW129077   6.396   8.531  10.362 -0.4341  0.7554  0.0005
70489SOL    HW229078   6.255   8.484  10.389 -0.0112 -0.7634 -0.3059
70490SOL     OW29079   5.794  12.342  10.691  0.5089  0.0024 -0.1790
70490SOL    HW129080   5.721  12.307  10.741  0.2939  0.5657 -0.0934
70490SOL    HW229081   5.780  12.437  10.690  0.7614  0.0395 -0.9037
70491SOL     OW29082   6.712   0.869   6.291  0.0762 -0.7373  0.6977
70491SOL    HW129083   6.695   0.923   6.368 -2.6932  0.7494 -0.8083
70491SOL    HW229084   6.773   0.922   6.239 -0.9572 -0.0046  0.2063
70492SOL     OW29085   1.844   9.413   9.943  0.2855 -0.4399  0.0304
70492SOL    HW129086   1.827   9.318   9.937  0.5404 -0.5888  1.3643
70492SOL    HW229087   1.903   9.422  10.018  0.2963  0.7795 -0.1101
70493SOL     OW29088   0.062   0.595  12.627  0.1797 -0.1363  0.0889
70493SOL    HW129089   0.125   0.632  12.690  1.6067 -2.0554 -0.0927
70493SOL    HW229090   0.116   0.566  12.554 -1.0102 -1.1880 -0.4102
70494SOL     OW29091   4.680   0.402   2.674  0.2391 -0.0494  0.6689
70494SOL    HW129092   4.653   0.482   2.629 -1.9353 -1.2209 -0.2790
70494SOL    HW229093   4.773   0.413   2.689  0.4488  1.7071 -1.4255
70495SOL     OW29094   2.401   3.741   8.602 -0.3529  0.3631  0.2528
70495SOL    HW129095   2.339   3.753   8.531 -0.2191  4.9364  0.6050
70495SOL    HW229096   2.347   3.719   8.678 -1.3916  2.3458  0.1396
70496SOL     OW29097   6.932  13.456  14.030 -0.6922  0.0071  0.3760
70496SOL    HW129098   6.914  13.363  14.013 -1.4695  0.5823 -2.3061
70496SOL    HW229099   7.025  13.466  14.012 -0.9015  0.0175 -0.7277
70497SOL     OW29100   3.411  14.083   3.594 -0.1797  0.1545  0.0247
70497SOL    HW129101   3.473  14.039   3.652  0.8757  1.1362 -0.3113
70497SOL    HW229102   3.439  14.060   3.506 -2.9534 -2.9588 -0.2575
70498SOL     OW29103  11.260  11.012   4.889  0.3699 -0.1335 -0.5284
70498SOL    HW129104  11.322  11.031   4.959  0.7792 -1.8062 -0.3815
70498SOL    HW229105  11.188  11.074   4.903  0.5237 -0.3094  1.2840
70499SOL     OW29106   9.826   8.396  12.414  0.3080 -0.3910  0.3904
70499SOL    HW129107   9.732   8.385  12.427  0.3054 -0.9813 -0.0969
70499SOL    HW229108   9.851   8.466  12.475 -0.2166 -1.0913  1.4425
70500SOL     OW29109   1.749  12.871   6.686 -0.3417  0.2009 -0.3972
70500SOL    HW129110   1.709  12.792   6.650  0.2683 -0.2693 -0.0528
70500SOL    HW229111   1.706  12.943   6.639 -0.5389 -0.3498 -1.0756
70501SOL     OW29112   6.650  13.876  12.450 -0.0076 -0.4646  0.0207
70501SOL    HW129113   6.596  13.936  12.501 -0.5622 -1.2888  0.4200
70501SOL    HW229114   6.710  13.934  12.401 -1.6867  0.5174 -0.9826
70502SOL     OW29115   7.336   5.756   3.666  0.1788  0.5025 -0.1413
70502SOL    HW129116   7.415   5.787   3.622  0.1698  0.7662  0.0277
70502SOL    HW229117   7.353   5.769   3.759 -0.5619  1.7914 -0.1474
70503SOL     OW29118   3.202   4.828   9.619 -0.1865  0.0872  0.1632
70503SOL    HW129119   3.171   4.873   9.698 -0.6294  0.8751 -0.4529
70503SOL    HW229120   3.297   4.842   9.620  0.1584 -1.7822  1.7030
70504SOL     OW29121   2.204   1.932   1.433 -0.3436 -0.0821 -0.0296
70504SOL    HW129122   2.218   2.001   1.368 -1.0635  0.3162  0.2258
70504SOL    HW229123   2.209   1.851   1.383  0.1141  0.1673 -0.4023
70505SOL     OW29124   4.250   6.858   1.716  0.2703 -0.1430  0.1082
70505SOL    HW129125   4.230   6.876   1.624  0.4503 -0.6817 -0.0392
70505SOL    HW229126   4.318   6.921   1.739 -1.3439  1.5602  0.5465
70506SOL     OW29127   7.238  10.795   0.772  0.6324  0.3572  0.3780
70506SOL    HW129128   7.259  10.795   0.865 -0.9774  2.7716  0.8551
70506SOL    HW229129   7.307  10.849   0.732 -0.9444  3.0412  0.9750
70507SOL     OW29130   8.626   5.511   1.286 -0.6307 -0.6587 -0.1855
70507SOL    HW129131   8.596   5.504   1.195  0.4443  0.6277 -0.6760
70507SOL    HW229132   8.638   5.421   1.315  0.6656 -1.0909 -1.9134
70508SOL     OW29133  12.237  11.512  12.565  0.0390  0.0341 -0.1741
70508SOL    HW129134  12.281  11.513  12.480 -1.4520 -0.5403 -0.9962
70508SOL    HW229135  12.301  11.548  12.626  0.9408  1.0501 -1.6449
70509SOL     OW29136   3.805   2.467  10.157  0.0908 -0.5039 -0.5795
70509SOL    HW129137   3.817   2.485  10.250 -1.3674 -0.1315 -0.4296
70509SOL    HW229138   3.754   2.541  10.125 -1.5147 -1.7909 -1.1321
70510SOL     OW29139   0.109   5.930   7.948  0.0902  0.1016  0.6038
70510SOL    HW129140   0.054   5.852   7.939  0.0667  0.0544  1.1501
70510SOL    HW229141   0.053   6.002   7.919  1.0625 -0.3720 -2.9753
70511SOL     OW29142  12.859   9.531  11.087  0.3661  0.0556  0.3544
70511SOL    HW129143  12.811   9.477  11.025 -0.4024  0.7063  0.3513
70511SOL    HW229144  12.816   9.514  11.171 -0.0811  0.8597  0.3022
70512SOL     OW29145  11.507   6.129   4.104  0.0342 -0.2828  0.2959
70512SOL    HW129146  11.521   6.211   4.056 -1.4099  0.5047  1.1430
70512SOL    HW229147  11.429   6.146   4.158 -0.9464 -2.5670 -0.2855
70513SOL     OW29148   1.238   8.723  12.674 -0.1533 -0.0635 -0.2898
70513SOL    HW129149   1.304   8.787  12.650 -0.7114  0.5923 -0.1140
70513SOL    HW229150   1.155   8.769  12.666 -0.5844 -0.8198 -0.3350
70514SOL     OW29151   1.267   7.445   5.650 -0.0654  0.6532  0.8926
70514SOL    HW129152   1.252   7.539   5.648 -1.7192  0.4247  0.9719
70514SOL    HW229153   1.351   7.432   5.606  0.0023  2.1214  0.5588
70515SOL     OW29154  11.656   4.469   9.661  0.3495 -0.0112 -0.2240
70515SOL    HW129155  11.644   4.518   9.579  0.4508  1.2183  0.4644
70515SOL    HW229156  11.717   4.399   9.638  1.8284  1.3857 -0.8347
70516SOL     OW29157   8.743  12.556   6.651  0.0675  0.8700  0.0190
70516SOL    HW129158   8.762  12.556   6.744 -0.5020  2.7163  0.1676
70516SOL    HW229159   8.803  12.490   6.614 -0.1763 -0.3754  1.7443
70517SOL     OW29160  11.107   4.600   7.491  0.2710 -0.2910  0.2631
70517SOL    HW129161  11.018   4.576   7.517 -0.1044  1.0564  0.2851
70517SOL    HW229162  11.124   4.548   7.413 -0.8154 -0.0270 -0.1671
70518SOL     OW29163   8.660  12.395   1.762 -0.3678  0.8767  0.3306
70518SOL    HW129164   8.605  12.447   1.704 -0.3772 -1.1829 -1.6520
70518SOL    HW229165   8.747  12.401   1.723 -0.1545  0.2992  0.7166
70519SOL     OW29166   5.128   6.808  10.935  0.1906  0.2560 -0.0326
70519SOL    HW129167   5.067   6.755  10.883  0.7616  0.5632 -1.0441
70519SOL    HW229168   5.128   6.893  10.891  2.0190 -0.0010 -0.6070
70520SOL     OW29169   8.262   8.305   5.302 -0.9145  0.5524 -0.1531
70520SOL    HW129170   8.193   8.359   5.341  0.3026  0.9497  1.5856
70520SOL    HW229171   8.301   8.360   5.234 -1.5498  0.7573 -0.3582
70521SOL     OW29172   0.674   8.136  11.742  0.0866 -0.3950  0.7331
70521SOL    HW129173   0.606   8.079  11.778  0.1791 -1.1769 -0.2705
70521SOL    HW229174   0.756   8.088  11.756  0.1481 -0.6008 -0.2750
70522SOL     OW29175   8.147   3.578   5.566  0.0399  0.2009  0.0989
70522SOL    HW129176   8.053   3.590   5.555 -0.0086  0.8398  1.0683
70522SOL    HW229177   8.186   3.622   5.490 -0.3762  1.9422  0.8381
70523SOL     OW29178  12.641   4.544  13.160 -0.1230 -0.4090  0.8957
70523SOL    HW129179  12.620   4.614  13.099  1.2043  1.2343  2.2030
70523SOL    HW229180  12.575   4.552  13.229 -1.3776 -2.0024 -0.0587
70524SOL     OW29181   5.711   9.737   2.766  0.0134 -0.1102 -0.0680
70524SOL    HW129182   5.797   9.699   2.747  0.0637  0.1214 -0.3065
70524SOL    HW229183   5.727   9.796   2.839  0.1564  0.3210 -0.4472
70525SOL     OW29184   6.736   5.479  12.673  0.2555 -0.0581  0.1541
70525SOL    HW129185   6.773   5.520  12.752  0.8618  1.1148 -0.7060
70525SOL    HW229186   6.646   5.458  12.697  0.8848 -1.2156  1.6789
70526SOL     OW29187  12.593   3.947   9.214  0.1275  0.8509  0.1239
70526SOL    HW129188  12.602   3.963   9.308 -1.4259 -1.1152  0.6915
70526SOL    HW229189  12.502   3.916   9.204  0.1221  1.4180 -2.0933
70527SOL     OW29190   5.699   3.497   9.006  0.5188 -0.3733  0.6665
70527SOL    HW129191   5.678   3.426   8.946  0.4092 -1.2682  1.7552
70527SOL    HW229192   5.709   3.456   9.091  2.1748  0.6430  1.0319
70528SOL     OW29193   6.564   9.222  13.350  0.5480 -0.4489  0.5002
70528SOL    HW129194   6.588   9.164  13.278 -0.5408 -1.4237  0.8984
70528SOL    HW229195   6.620   9.196  13.423  0.4994 -0.5690  0.4939
70529SOL     OW29196   7.109  12.930   4.527  0.9410 -0.4211 -0.6373
70529SOL    HW129197   7.109  12.922   4.622  0.7103  1.3305 -0.4564
70529SOL    HW229198   7.201  12.916   4.502  1.2541  0.3725 -0.0023
70530SOL     OW29199  11.439  11.380  11.715 -0.1799 -0.1117 -0.3583
70530SOL    HW129200  11.462  11.298  11.672 -1.9343 -1.2039  0.6661
70530SOL    HW229201  11.363  11.412  11.666 -0.7556 -0.1640  0.4794
70531SOL     OW29202   8.578   2.732   9.873  0.0097  0.1801 -0.2204
70531SOL    HW129203   8.544   2.642   9.870 -1.9994  0.8882 -0.6631
70531SOL    HW229204   8.623   2.744   9.790 -1.9229  0.3183 -1.3216
70532SOL     OW29205   8.982  12.814  11.571  0.2346 -0.3979 -0.0345
70532SOL    HW129206   9.010  12.793  11.660 -1.1062 -1.4381  0.1733
70532SOL    HW229207   8.932  12.737  11.543 -0.4377  0.4385 -1.2176
70533SOL     OW29208   7.905   2.900   5.701 -0.4121  0.2843 -0.8498
70533SOL    HW129209   7.859   2.877   5.781  1.0634 -0.3610 -0.1420
70533SOL    HW229210   7.836   2.918   5.637 -1.6282 -1.3679 -0.0620
70534SOL     OW29211   5.717  11.374  11.715  0.1409 -1.0476  0.0272
70534SOL    HW129212   5.636  11.396  11.669 -0.3385  0.2586  1.3997
70534SOL    HW229213   5.785  11.426  11.672 -0.4898  1.0377  1.3920
70535SOL     OW29214  11.872  11.801   1.064 -0.0260 -0.2475 -0.1180
70535SOL    HW129215  11.810  11.753   1.009 -0.8655 -0.0254  0.6218
70535SOL    HW229216  11.824  11.821   1.144  0.9623  0.0329  0.4310
70536SOL     OW29217   1.347   7.795   8.931 -1.1019  0.0642 -0.1517
70536SOL    HW129218   1.409   7.733   8.969  0.0801  0.4558 -1.3498
70536SOL    HW229219   1.351   7.871   8.989  0.5372  0.5854 -0.8907
70537SOL     OW29220  12.040  10.522   9.900 -0.6354  0.6675 -0.1613
70537SOL    HW129221  12.032  10.426   9.900 -1.8292  0.7354  1.1524
70537SOL    HW229222  11.996  10.550   9.980  2.0607  2.1607  0.9296
70538SOL     OW29223   0.944   8.182  13.926  0.4300 -0.0113 -0.6530
70538SOL    HW129224   1.011   8.165  13.859 -0.8917 -0.3731 -1.9476
70538SOL    HW229225   0.887   8.248  13.887  0.5898  1.0447  0.8429
70539SOL     OW29226  12.144   8.218  10.201  0.2590 -0.2737  0.2670
70539SOL    HW129227  12.107   8.306  10.191  0.0348 -0.4133 -0.1197
70539SOL    HW229228  12.068   8.161  10.211  0.3803 -0.5061 -0.1294
70540SOL     OW29229   5.907  12.617   3.244  0.2842 -0.8430  0.2230
70540SOL    HW129230   5.831  12.610   3.187  0.2181 -0.9454  0.3248
70540SOL    HW229231   5.883  12.570   3.324  0.3823 -0.7130  0.3302
70541SOL     OW29232  10.429   1.821   9.179 -0.5197 -0.2773 -0.1348
70541SOL    HW129233  10.386   1.860   9.103 -1.9504 -0.5992  0.4885
70541SOL    HW229234  10.485   1.753   9.141 -1.7845 -0.9445 -0.8748
70542SOL     OW29235   8.974   3.310   7.271  0.1343  0.3841  0.3183
70542SOL    HW129236   9.059   3.298   7.314  0.3178  1.6930  0.3365
70542SOL    HW229237   8.911   3.317   7.343  0.3912  2.1851  0.4029
70543SOL     OW29238   5.952  13.248   1.949 -0.0397  0.1002  0.2455
70543SOL    HW129239   5.863  13.242   1.914 -0.0680 -1.2698  0.4811
70543SOL    HW229240   5.945  13.310   2.021 -0.4014  1.4204 -0.8919
70544SOL     OW29241  12.541  11.477  11.518  0.3407  0.3525 -0.1103
70544SOL    HW129242  12.511  11.386  11.511  1.6178 -0.0200 -0.9248
70544SOL    HW229243  12.564  11.487  11.610 -0.4245  0.0569  0.1240
70545SOL     OW29244  11.663  13.507  10.880  0.0277 -0.0383 -0.1624
70545SOL    HW129245  11.742  13.559  10.869 -1.1114  1.8096  0.0722
70545SOL    HW229246  11.667  13.476  10.971  1.1656 -1.2071 -0.5790
70546SOL     OW29247   5.376   6.044   6.039  0.0200  0.1678  0.5193
70546SOL    HW129248   5.418   5.976   5.985 -1.8113 -1.2592  0.7786
70546SOL    HW229249   5.286   6.046   6.008 -0.0583  2.3491  0.7255
70547SOL     OW29250  13.163   0.209  10.470 -0.2186 -0.0119  0.5328
70547SOL    HW129251  13.196   0.121  10.454 -0.8454  0.0524 -1.4788
70547SOL    HW229252  13.124   0.205  10.557 -1.3149 -2.1048  0.0203
70548SOL     OW29253  12.536  12.624  10.716  0.1743  0.2031 -0.2683
70548SOL    HW129254  12.476  12.691  10.685 -0.4242 -1.0022 -1.8532
70548SOL    HW229255  12.620  12.646  10.676 -0.0652 -0.0968 -0.9338
70549SOL     OW29256   5.337  12.079  11.480 -0.1133  0.1683 -0.1072
70549SOL    HW129257   5.413  12.023  11.497  0.2771  0.6046 -0.4000
70549SOL    HW229258   5.297  12.091  11.566 -0.6301 -1.1667 -0.1439
70550SOL     OW29259  14.083  11.629   7.000  0.2752  0.4869 -0.2358
70550SOL    HW129260  13.998  11.587   7.009  0.6943 -0.3117  0.0852
70550SOL    HW229261  14.067  11.721   7.021 -0.8469  0.7153 -1.8457
70551SOL     OW29262  13.278  10.103   1.108  0.1663  0.4075  0.6101
70551SOL    HW129263  13.238  10.033   1.057  2.8045 -0.0325 -1.0743
70551SOL    HW229264  13.321  10.058   1.181  0.5811  0.4187  0.3792
70552SOL     OW29265   4.106   0.950  14.041 -0.1920 -0.1801  0.4270
70552SOL    HW129266   4.153   0.867  14.038  1.2101  0.5985 -1.1575
70552SOL    HW229267   4.059   0.954  13.957 -0.5600  0.4481  0.6588
70553SOL     OW29268   8.774   2.557   2.582 -0.0965 -0.0042  0.0554
70553SOL    HW129269   8.764   2.625   2.515 -0.7820  1.1021  1.2475
70553SOL    HW229270   8.841   2.591   2.641  0.1085 -0.7214  0.2418
70554SOL     OW29271   8.196   7.642   2.615 -0.5901  0.1138 -0.1657
70554SOL    HW129272   8.226   7.666   2.527  2.0035 -0.8301  0.3754
70554SOL    HW229273   8.167   7.725   2.654  0.2432  0.9058 -1.1875
70555SOL     OW29274   9.060   1.660   9.296  0.2044 -0.3080 -0.2508
70555SOL    HW129275   8.968   1.680   9.313  0.6988  1.8409  0.1907
70555SOL    HW229276   9.101   1.745   9.286  1.9442 -1.2641 -1.6884
70556SOL     OW29277  13.040  11.567  11.794  0.6203  0.2911 -0.3493
70556SOL    HW129278  13.050  11.473  11.806  0.2488  0.4019  1.1175
70556SOL    HW229279  12.947  11.584  11.811  0.9804  1.0929  1.0295
70557SOL     OW29280  13.046   2.221   8.629 -0.0636 -0.4166  0.1504
70557SOL    HW129281  13.090   2.173   8.559  0.1895 -1.3508  0.9212
70557SOL    HW229282  13.087   2.307   8.628  0.0168 -0.4564 -0.7653
70558SOL     OW29283  11.134  11.177   7.675  0.2010  0.0049  0.2163
70558SOL    HW129284  11.073  11.202   7.606  0.1889 -2.2345 -0.6626
70558SOL    HW229285  11.197  11.119   7.631  0.1809 -1.5091  2.0544
70559SOL     OW29286  11.646   7.775  11.325 -0.6359 -0.1008 -0.4516
70559SOL    HW129287  11.701   7.835  11.274 -0.8439  1.0180  0.5927
70559SOL    HW229288  11.572   7.829  11.354 -1.6159 -1.2479 -0.7229
70560SOL     OW29289  12.594   1.145   8.053 -0.1802 -0.4268 -0.2994
70560SOL    HW129290  12.630   1.233   8.042  1.5024 -1.1000 -0.5091
70560SOL    HW229291  12.507   1.159   8.090 -0.0133  1.3256 -0.4929
70561SOL     OW29292   1.334   9.183  10.276  0.0533 -0.3746  0.1812
70561SOL    HW129293   1.393   9.157  10.205 -0.5195  0.1720 -0.5182
70561SOL    HW229294   1.380   9.255  10.320 -0.4143  0.6065 -0.8721
70562SOL     OW29295  10.935   6.507   8.268 -0.2628  0.0850 -0.7819
70562SOL    HW129296  10.939   6.429   8.212  3.1779 -1.4914  1.3621
70562SOL    HW229297  10.963   6.579   8.211  2.4298 -1.3489 -1.4295
70563SOL     OW29298   8.337   1.357   0.649 -0.3695 -0.0589  0.5002
70563SOL    HW129299   8.337   1.273   0.602  0.6464  1.0320 -1.6013
70563SOL    HW229300   8.381   1.418   0.589 -1.2557  2.0403  1.8646
70564SOL     OW29301   4.321   7.974   1.816  0.3648 -0.2396  0.3018
70564SOL    HW129302   4.356   7.916   1.883 -1.3951 -1.3334  0.3215
70564SOL    HW229303   4.354   7.938   1.734  0.3558 -0.4718  0.3996
70565SOL     OW29304   8.185   6.821   4.876  0.7025 -0.0040 -0.1582
70565SOL    HW129305   8.119   6.776   4.823 -0.8962  2.4516 -0.4272
70565SOL    HW229306   8.135   6.874   4.938  2.4766  0.5716  0.8727
70566SOL     OW29307  13.875  12.555   3.393 -0.5521  0.0492 -0.8127
70566SOL    HW129308  13.855  12.468   3.427 -0.1296  0.6650  1.1607
70566SOL    HW229309  13.937  12.539   3.322 -0.2564 -1.2471 -0.2963
70567SOL     OW29310   7.542  10.844   5.054 -0.4764 -0.6265 -0.4942
70567SOL    HW129311   7.590  10.803   5.126  0.5285  0.7597 -0.3397
70567SOL    HW229312   7.596  10.918   5.028 -2.2216  0.6351 -0.7432
70568SOL     OW29313  11.717   5.032   6.715  0.0790 -0.1311  0.1706
70568SOL    HW129314  11.683   5.113   6.753  0.2063  0.1011 -0.2043
70568SOL    HW229315  11.806   5.054   6.688 -0.2382 -0.0899 -0.8865
70569SOL     OW29316   3.406  13.942   1.953 -0.1988 -0.6716 -0.4574
70569SOL    HW129317   3.343  14.005   1.987  0.5603  0.3829 -0.9225
70569SOL    HW229318   3.358  13.891   1.889 -0.7544 -0.3672 -0.2886
70570SOL     OW29319   1.789  13.431  12.237  0.0850  0.1924 -0.0823
70570SOL    HW129320   1.779  13.360  12.301 -0.7155 -0.0937 -0.5107
70570SOL    HW229321   1.700  13.460  12.218  0.4028  1.2852  0.0392
70571SOL     OW29322  11.362  11.094  12.382  0.0019  0.2464 -0.5955
70571SOL    HW129323  11.388  11.117  12.472 -0.2710 -0.2747 -0.3814
70571SOL    HW229324  11.286  11.150  12.364  1.7331  2.4379 -1.5469
70572SOL     OW29325   1.224  12.738   0.276 -0.0045 -0.0386 -0.0530
70572SOL    HW129326   1.140  12.748   0.231  0.3302  1.1068 -0.4625
70572SOL    HW229327   1.282  12.801   0.232  1.6562 -2.1957 -1.1375
70573SOL     OW29328   2.306   1.326  13.235 -0.1650  0.3907 -0.1634
70573SOL    HW129329   2.223   1.313  13.279  0.1370  0.8791  0.5782
70573SOL    HW229330   2.368   1.271  13.283  0.0998  0.6688 -0.1788
70574SOL     OW29331  12.713   8.543   4.418  0.1775  0.9058 -0.4305
70574SOL    HW129332  12.675   8.459   4.394  1.5412 -0.5955  2.1824
70574SOL    HW229333  12.794   8.548   4.366  0.4848  0.2087 -0.0356
70575SOL     OW29334   9.391  11.423  10.385 -0.2892  0.3558  0.6080
70575SOL    HW129335   9.343  11.458  10.460  0.5235 -0.4218  1.5073
70575SOL    HW229336   9.465  11.377  10.423 -0.6554 -1.3076 -0.6069
70576SOL     OW29337   4.914   7.029   1.231  0.8460 -0.1385  0.1817
70576SOL    HW129338   4.920   6.935   1.217  1.3117  0.1262 -1.7098
70576SOL    HW229339   4.827   7.052   1.198  0.7337  0.1082  0.6364
70577SOL     OW29340   7.267   7.698   7.661 -0.1823 -0.4024 -0.0610
70577SOL    HW129341   7.263   7.766   7.594  1.4655  0.7892  0.9924
70577SOL    HW229342   7.327   7.632   7.625  0.1275 -0.1188 -0.0648
70578SOL     OW29343   7.395  12.683   8.737  0.2757  0.2567 -0.3565
70578SOL    HW129344   7.397  12.595   8.775 -0.3700  0.1409 -0.5801
70578SOL    HW229345   7.310  12.718   8.763 -0.1928  0.1623 -1.6955
70579SOL     OW29346   0.641   0.272   1.758 -0.6708 -0.4829 -0.2301
70579SOL    HW129347   0.618   0.334   1.827 -0.9854 -1.6132  0.7266
70579SOL    HW229348   0.561   0.222   1.744 -0.3712 -0.8005 -0.8348
70580SOL     OW29349   1.272  10.106   8.187 -0.2867 -0.5671  0.4907
70580SOL    HW129350   1.323  10.027   8.171  1.1128  0.3707  0.1301
70580SOL    HW229351   1.181  10.079   8.175  0.2695 -1.6135 -2.0367
70581SOL     OW29352  12.749  11.852   8.244 -0.0414 -0.1084  0.5229
70581SOL    HW129353  12.774  11.943   8.225  1.8109 -0.8199 -0.7941
70581SOL    HW229354  12.711  11.821   8.162 -2.0081 -0.1599  1.4000
70582SOL     OW29355   2.900   9.615   9.267  0.1027 -0.5406 -0.0593
70582SOL    HW129356   2.948   9.591   9.346 -0.7185 -2.5367 -0.1073
70582SOL    HW229357   2.923   9.546   9.204  0.1015  0.5562 -1.3122
70583SOL     OW29358   2.072  12.580   8.187 -0.6478  0.1019  0.0816
70583SOL    HW129359   2.127  12.630   8.248  0.6669 -0.1931 -0.8098
70583SOL    HW229360   2.055  12.498   8.232  2.3423 -1.1323 -0.7737
70584SOL     OW29361   8.205   0.729  11.369 -0.0194  0.2464 -0.2533
70584SOL    HW129362   8.143   0.713  11.440  0.6053 -0.1317  0.2201
70584SOL    HW229363   8.228   0.821  11.378  0.1411  0.1733  0.1071
70585SOL     OW29364   4.885   8.595   0.260  0.5809  0.4995  0.3489
70585SOL    HW129365   4.852   8.513   0.222  1.0666 -0.1382  1.2590
70585SOL    HW229366   4.865   8.662   0.195 -2.6198  0.1931  0.8500
70586SOL     OW29367  12.433  12.461  11.429 -0.0802  0.0519 -0.2562
70586SOL    HW129368  12.370  12.514  11.380 -1.4042 -0.3110  1.0039
70586SOL    HW229369  12.451  12.386  11.371  1.5241  1.6117 -1.8894
70587SOL     OW29370   5.810   5.438  13.433 -0.4357 -0.0623  0.1963
70587SOL    HW129371   5.855   5.516  13.468  0.0551 -0.8629  1.4138
70587SOL    HW229372   5.878   5.370  13.432 -0.3297 -0.0180 -2.6921
70588SOL     OW29373   2.108   5.236   6.895 -0.4026  0.0912 -0.1231
70588SOL    HW129374   2.043   5.211   6.830 -0.0131  1.3443 -1.0331
70588SOL    HW229375   2.118   5.331   6.885  1.8650 -0.1139 -0.3298
70589SOL     OW29376   5.721  12.605   9.500  0.2228  0.5772 -0.0763
70589SOL    HW129377   5.708  12.524   9.450  0.5545  0.3031  0.2689
70589SOL    HW229378   5.763  12.664   9.438 -1.0262  0.8825 -0.6722
70590SOL     OW29379   7.063  13.848  12.908  0.0605 -0.4481 -0.6163
70590SOL    HW129380   7.026  13.907  12.974  0.1972  0.4394 -1.3045
70590SOL    HW229381   7.142  13.893  12.877  1.5045 -2.1141  0.5111
70591SOL     OW29382   9.748  11.188   6.091  0.7241  0.2061 -0.0574
70591SOL    HW129383   9.751  11.269   6.041  0.0865  0.4297  0.2651
70591SOL    HW229384   9.773  11.213   6.180  2.5043 -0.2986 -0.3608
70592SOL     OW29385   2.122   4.429   9.068 -0.4328 -0.3788  0.2607
70592SOL    HW129386   2.216   4.440   9.052 -0.9246  1.5112 -2.0659
70592SOL    HW229387   2.099   4.504   9.124 -0.6665 -0.4038  0.1980
70593SOL     OW29388   0.641  11.724  12.259  0.1079 -0.4723 -0.5004
70593SOL    HW129389   0.704  11.790  12.231  0.6184 -0.4761  0.5750
70593SOL    HW229390   0.624  11.672  12.180  1.0907 -0.1721 -0.9304
70594SOL     OW29391   0.525   0.208   2.755 -0.1482  0.2025  0.6784
70594SOL    HW129392   0.577   0.131   2.775  1.4905  1.2852  0.8252
70594SOL    HW229393   0.580   0.261   2.697 -1.4958  0.9585  0.0168
70595SOL     OW29394   6.240  13.806   0.429  0.4856  0.4309 -0.0127
70595SOL    HW129395   6.255  13.883   0.484  2.1741  0.2067 -0.1032
70595SOL    HW229396   6.180  13.751   0.479 -0.4348  1.6169  0.2262
70596SOL     OW29397   5.127   1.254   2.806  0.1138 -0.2584 -0.2677
70596SOL    HW129398   5.207   1.293   2.842  1.3828 -0.5619 -2.5491
70596SOL    HW229399   5.102   1.187   2.870  1.7249 -0.2075  0.4704
70597SOL     OW29400   0.335   8.875  11.080  0.1728  0.4519 -0.0668
70597SOL    HW129401   0.426   8.881  11.053  0.6958 -1.9833  0.8898
70597SOL    HW229402   0.290   8.833  11.006 -0.0729  1.1438 -0.3174
70598SOL     OW29403   6.676   6.749   2.731 -0.2232 -0.6189  0.0627
70598SOL    HW129404   6.735   6.721   2.660 -1.6522 -1.2880 -0.8974
70598SOL    HW229405   6.598   6.694   2.721 -0.8452 -0.0669  1.5918
70599SOL     OW29406   1.153   3.852  13.238 -0.1663 -0.2237  0.3578
70599SOL    HW129407   1.164   3.884  13.327 -0.7259  0.1028  0.3162
70599SOL    HW229408   1.135   3.759  13.248 -1.8054  0.0914  0.7104
70600SOL     OW29409   7.637   6.447  10.005  0.1057  0.5661 -0.4544
70600SOL    HW129410   7.706   6.397   9.962  0.3146  1.2126 -0.8859
70600SOL    HW229411   7.625   6.405  10.090 -2.2399 -2.5545 -2.1132
70601SOL     OW29412  11.013  11.109  10.434 -0.4921 -0.1086 -0.4705
70601SOL    HW129413  11.011  11.170  10.361 -1.7862 -1.5389 -1.7117
70601SOL    HW229414  10.931  11.060  10.427 -0.3583 -0.7282  1.5783
70602SOL     OW29415  12.302   0.899   6.184 -0.3013 -0.4406 -0.4701
70602SOL    HW129416  12.395   0.897   6.206 -0.1518 -3.8380 -0.8137
70602SOL    HW229417  12.280   0.992   6.178  2.9951  0.4755 -0.1771
70603SOL     OW29418   5.620   3.391   0.435 -0.2123 -0.3828 -0.2907
70603SOL    HW129419   5.672   3.423   0.509 -1.5736  0.3493  0.3930
70603SOL    HW229420   5.638   3.453   0.364  1.7867 -1.5837 -0.9234
70604SOL     OW29421   8.536   3.363   5.435 -0.2420 -0.5008 -0.2110
70604SOL    HW129422   8.621   3.406   5.432 -0.7247  0.5292  0.6007
70604SOL    HW229423   8.531   3.315   5.352  0.7226  0.1911 -0.6843
70605SOL     OW29424   3.658   9.430   1.368  0.1666 -0.0969 -0.3398
70605SOL    HW129425   3.720   9.416   1.297  1.2736 -1.7287  0.8852
70605SOL    HW229426   3.584   9.475   1.326  1.0377 -0.4371 -2.3721
70606SOL     OW29427   3.600  11.910   8.295  0.0107  0.0434 -0.4433
70606SOL    HW129428   3.507  11.890   8.288  0.3818 -1.8007 -0.4609
70606SOL    HW229429   3.609  11.949   8.383 -0.6506 -0.4840 -0.1320
70607SOL     OW29430  11.413   1.273   3.024  0.2155  0.2218  0.6053
70607SOL    HW129431  11.478   1.342   3.016 -0.7469  0.9037 -3.3093
70607SOL    HW229432  11.443   1.205   2.964 -0.8882 -1.0488  1.4252
70608SOL     OW29433   8.995   4.234   8.861 -0.0481 -0.1626  0.2367
70608SOL    HW129434   8.996   4.302   8.794 -2.3444 -0.3076 -0.0401
70608SOL    HW229435   8.999   4.152   8.812 -0.3743 -0.2557  0.3656
70609SOL     OW29436  13.525   3.246   8.999  0.4492 -0.6022  0.3046
70609SOL    HW129437  13.555   3.282   8.915  0.1134 -2.7407 -0.7990
70609SOL    HW229438  13.482   3.320   9.042  0.3494  0.4889 -1.5540
70610SOL     OW29439  10.571   1.749   2.911 -0.1844  0.7322  0.2643
70610SOL    HW129440  10.624   1.808   2.965 -0.7136  0.8232  0.6984
70610SOL    HW229441  10.496   1.801   2.885  0.4622  0.9383 -1.2687
70611SOL     OW29442   9.474  11.169   2.015  0.2477 -0.3678  0.4092
70611SOL    HW129443   9.465  11.107   1.943  0.0008 -1.7930  1.6311
70611SOL    HW229444   9.391  11.217   2.016 -1.0729 -2.5269  1.6773
70612SOL     OW29445   7.047   0.267   7.592  0.3760 -0.1272  0.1446
70612SOL    HW129446   6.990   0.192   7.576 -1.2259  0.7278  1.5203
70612SOL    HW229447   7.013   0.335   7.533 -0.5204  0.5938  1.4378
70613SOL     OW29448   5.282   5.556  11.826  0.2161  0.1332  0.1307
70613SOL    HW129449   5.363   5.540  11.779 -0.4193 -1.2511 -0.5526
70613SOL    HW229450   5.300   5.530  11.916  1.2991  2.3633  0.6391
70614SOL     OW29451   4.994   6.383  11.957 -0.3399 -0.4714 -0.0491
70614SOL    HW129452   5.028   6.405  11.870 -0.7485 -0.3943 -0.1929
70614SOL    HW229453   5.016   6.458  12.012 -1.4744  0.1902 -0.4683
70615SOL     OW29454   2.576   3.984   5.799  0.1151  0.1984  0.1130
70615SOL    HW129455   2.502   4.011   5.855  0.4313  0.5897  0.3518
70615SOL    HW229456   2.622   3.918   5.850 -0.0727 -0.0473 -0.0370
70616SOL     OW29457   4.010   7.256  13.564  0.1524 -0.3374 -0.3511
70616SOL    HW129458   4.035   7.165  13.551 -0.4930 -0.6584  0.5098
70616SOL    HW229459   4.088   7.307  13.542  0.1879 -1.0091 -1.9227
70617SOL     OW29460   2.479  12.364  13.008  0.1724 -0.3386 -0.1496
70617SOL    HW129461   2.411  12.316  12.960 -1.6237  1.0194  0.9204
70617SOL    HW229462   2.504  12.305  13.079 -1.3522 -0.1201  0.6132
70618SOL     OW29463  13.545  13.401   5.145 -0.1391 -0.4976  0.1971
70618SOL    HW129464  13.556  13.322   5.198 -2.1776 -1.2630 -0.4005
70618SOL    HW229465  13.604  13.465   5.185  0.4468 -1.8589  1.6468
70619SOL     OW29466   5.023   5.028   3.602 -0.0904 -0.0715 -0.1002
70619SOL    HW129467   5.001   4.940   3.633  1.5598 -0.3478  0.3896
70619SOL    HW229468   5.073   5.067   3.673  1.5421  0.2343 -1.3418
70620SOL     OW29469   4.683   8.107   5.608 -0.4898  0.3122  0.0505
70620SOL    HW129470   4.757   8.148   5.563  0.5459 -1.3210  0.1538
70620SOL    HW229471   4.679   8.019   5.571 -0.8860 -0.4086  1.7026
70621SOL     OW29472   8.902   1.723  12.322 -0.4521  0.1586  0.4382
70621SOL    HW129473   8.992   1.702  12.300 -0.3343  1.6904 -0.6757
70621SOL    HW229474   8.850   1.683  12.252 -0.6774 -0.7792  1.1125
70622SOL     OW29475  11.705   0.711   3.085  0.1072  0.0217 -0.1828
70622SOL    HW129476  11.702   0.616   3.093  1.0959 -0.1440 -1.5214
70622SOL    HW229477  11.717   0.742   3.175  0.1695 -1.1341  0.2227
70623SOL     OW29478   0.906   2.034  11.622  0.1795  0.2285  0.0993
70623SOL    HW129479   0.864   2.112  11.584  0.0066  0.1439  0.1128
70623SOL    HW229480   0.956   1.996  11.549  1.5629  1.2224  0.4897
70624SOL     OW29481   5.315   5.070   8.236 -0.2414 -0.3736 -0.1929
70624SOL    HW129482   5.304   5.153   8.283 -0.8085 -0.6958  0.2535
70624SOL    HW229483   5.285   5.088   8.147 -2.0825 -0.5596  0.3565
70625SOL     OW29484   6.279  13.893  11.049 -0.7906  0.3887 -0.1613
70625SOL    HW129485   6.209  13.958  11.058 -0.5301  0.7702 -0.8129
70625SOL    HW229486   6.332  13.925  10.976  0.3144  0.3277  0.5926
70626SOL     OW29487  11.000   8.905   4.675 -0.1218  0.4458  0.6464
70626SOL    HW129488  10.977   8.812   4.676  1.4553  0.0362  0.2685
70626SOL    HW229489  11.083   8.910   4.722 -0.2969  1.7028  0.8571
70627SOL     OW29490  12.481   1.212  10.856 -0.4851 -0.2213  0.1138
70627SOL    HW129491  12.567   1.216  10.898 -0.9989  1.9752  1.0768
70627SOL    HW229492  12.419   1.205  10.929 -1.2261  0.5036 -0.4313
70628SOL     OW29493  10.697  12.196   6.975 -0.5483  0.5439  0.5560
70628SOL    HW129494  10.766  12.152   7.026  0.4338 -0.3048 -1.3936
70628SOL    HW229495  10.652  12.124   6.929 -2.9697  1.0480  1.9773
70629SOL     OW29496   2.630  10.227   6.787 -0.0763  0.2476  0.3804
70629SOL    HW129497   2.670  10.169   6.851  0.6486  0.4708  0.1475
70629SOL    HW229498   2.705  10.268   6.742 -0.5629  0.1442 -0.5582
70630SOL     OW29499   7.598   1.221   9.823 -0.1423  0.0796 -0.2096
70630SOL    HW129500   7.607   1.286   9.754  0.6848 -1.1393 -1.3064
70630SOL    HW229501   7.687   1.189   9.838 -0.5447 -0.9010  0.1966
70631SOL     OW29502   4.663   4.083   2.347  0.3111 -0.2025  0.8105
70631SOL    HW129503   4.600   4.124   2.407  0.6436  1.6636 -0.0495
70631SOL    HW229504   4.642   4.121   2.262  1.4805 -0.9015  0.1936
70632SOL     OW29505   4.121   0.966   2.590 -0.6598 -0.0335  0.4113
70632SOL    HW129506   4.149   0.879   2.561 -1.8298 -0.5527  0.8035
70632SOL    HW229507   4.076   1.003   2.514  0.2456  0.4442  0.0841
70633SOL     OW29508   5.087  14.025   5.517  0.6628 -0.1439  0.0311
70633SOL    HW129509   5.026  13.984   5.579  0.4513  0.0516 -0.0457
70633SOL    HW229510   5.141  14.083   5.571  0.5201 -0.0201  0.0396
70634SOL     OW29511  11.992   7.374  12.247 -0.4245 -0.2166 -0.1441
70634SOL    HW129512  12.070   7.421  12.219  0.1255 -0.8607  0.2821
70634SOL    HW229513  12.025   7.295  12.290 -1.2755  0.0905  1.1266
70635SOL     OW29514   8.080   5.922  12.506  0.1327  0.1975  0.1944
70635SOL    HW129515   8.111   5.928  12.415  0.3361  1.4667  0.3407
70635SOL    HW229516   8.111   5.836  12.536  0.8238  0.1366 -0.6548
70636SOL     OW29517  12.235   9.725  10.921 -0.1394  0.2497  0.2206
70636SOL    HW129518  12.164   9.763  10.972 -0.9187  1.0205 -1.3731
70636SOL    HW229519  12.308   9.785  10.933 -0.8324  1.3725 -0.8601
70637SOL     OW29520   2.368  10.522   0.472 -0.5148  0.4598  0.1223
70637SOL    HW129521   2.427  10.595   0.451 -0.0633 -0.2158 -1.0353
70637SOL    HW229522   2.404  10.448   0.424 -2.0406 -0.0802 -0.2335
70638SOL     OW29523   9.603   6.337  13.644  0.1800 -0.6166 -0.0688
70638SOL    HW129524   9.663   6.269  13.675 -0.8138 -1.5522 -0.1721
70638SOL    HW229525   9.617   6.410  13.705 -0.9115 -2.0084  1.9689
70639SOL     OW29526  12.713   9.300   6.142  0.6435 -0.4642  0.1230
70639SOL    HW129527  12.799   9.296   6.184  2.4659 -1.3639 -3.3362
70639SOL    HW229528  12.659   9.238   6.191  1.2240  1.5263  3.5945
70640SOL     OW29529   3.738   1.207   3.695 -0.0253 -0.7185 -0.3269
70640SOL    HW129530   3.804   1.276   3.694  0.5963 -1.3031 -0.1111
70640SOL    HW229531   3.666   1.241   3.641 -0.1998  0.5400  0.6760
70641SOL     OW29532   1.509   1.251   1.015  0.2615  0.1987  0.3540
70641SOL    HW129533   1.424   1.277   0.982  0.9328  1.3711 -0.5119
70641SOL    HW229534   1.528   1.168   0.971 -0.5003 -0.1703  0.7029
70642SOL     OW29535  12.518   3.823   5.216  0.2136 -0.3401 -0.0276
70642SOL    HW129536  12.499   3.730   5.207  3.6217 -1.1040 -0.6120
70642SOL    HW229537  12.508   3.858   5.128  1.9914 -0.8898 -0.4833
70643SOL     OW29538  13.158   9.442   7.252 -0.3364  0.1887 -0.5355
70643SOL    HW129539  13.098   9.367   7.250 -1.3889  0.8384  2.1748
70643SOL    HW229540  13.245   9.403   7.254 -0.7530 -0.8671 -1.6035
70644SOL     OW29541   7.912   4.985   2.737  0.1804  0.3040  0.0975
70644SOL    HW129542   7.998   5.025   2.743 -1.2301  4.3408 -2.6511
70644SOL    HW229543   7.859   5.031   2.802 -0.2736 -1.3013  0.9277
70645SOL     OW29544   6.290   7.815   2.206 -0.8063  0.2271 -0.5487
70645SOL    HW129545   6.290   7.756   2.282 -0.3737 -0.9607 -1.4334
70645SOL    HW229546   6.237   7.769   2.140 -1.1818  1.2443 -0.9718
70646SOL     OW29547   3.440   3.052  12.134  0.3051  0.2332  0.0340
70646SOL    HW129548   3.449   3.146  12.151  1.0017 -0.1739  2.1352
70646SOL    HW229549   3.347   3.034  12.148 -0.8336  1.2723 -4.5488
70647SOL     OW29550  11.800   3.746   8.989 -0.3436 -0.3912  0.0853
70647SOL    HW129551  11.785   3.749   8.895  0.1045 -1.0460 -0.0096
70647SOL    HW229552  11.754   3.823   9.023 -0.4475 -0.1143 -0.6712
70648SOL     OW29553  11.841  11.569   7.563  0.6947 -0.5431 -0.2272
70648SOL    HW129554  11.788  11.648   7.576  0.3375 -0.7442 -0.4647
70648SOL    HW229555  11.840  11.526   7.649  0.5702 -0.4902 -0.2022
70649SOL     OW29556   6.593  11.958   1.190 -0.5861 -0.4162  0.1654
70649SOL    HW129557   6.590  11.867   1.161 -1.8689 -1.2520  2.6091
70649SOL    HW229558   6.504  11.990   1.174 -0.9012 -0.4602  1.6707
70650SOL     OW29559  13.149   5.385  12.280  0.1064 -0.3315  0.2542
70650SOL    HW129560  13.159   5.435  12.199 -0.0297  2.1496  1.6848
70650SOL    HW229561  13.070   5.332  12.266  0.0421  0.1069 -1.1793
70651SOL     OW29562   7.930   6.287   7.514 -0.0861  0.6135 -0.2933
70651SOL    HW129563   7.962   6.210   7.561 -0.1267  0.5959 -0.2953
70651SOL    HW229564   7.907   6.255   7.427  1.7978  0.9831 -0.9831
70652SOL     OW29565  11.958   1.245   1.792  0.3251  0.2717  0.3171
70652SOL    HW129566  11.950   1.150   1.783 -2.1757  0.3489  0.9774
70652SOL    HW229567  11.965   1.260   1.886 -0.0052  0.7426  0.2736
70653SOL     OW29568   5.572   0.370   6.858  0.4720  0.4420 -0.0746
70653SOL    HW129569   5.639   0.384   6.925  0.9875 -0.9947 -0.2493
70653SOL    HW229570   5.620   0.369   6.776  0.2899 -0.7200 -0.1916
70654SOL     OW29571   8.740   5.312  13.246 -0.1093 -0.0312 -0.1373
70654SOL    HW129572   8.679   5.240  13.258  0.7560 -0.8541 -0.5469
70654SOL    HW229573   8.771   5.332  13.335 -2.3918  1.7253  0.3503
70655SOL     OW29574  11.076   9.070   0.460  0.3959  0.3502 -0.6916
70655SOL    HW129575  11.140   9.004   0.488  0.5242  0.8047  0.1152
70655SOL    HW229576  11.036   9.100   0.542 -1.9943 -1.0305 -1.2601
70656SOL     OW29577   5.999   5.215   9.088 -0.5778  0.0585  0.8569
70656SOL    HW129578   5.998   5.303   9.050 -0.9061  0.6730  2.2113
70656SOL    HW229579   6.069   5.169   9.042 -0.1018  1.1765  0.4358
70657SOL     OW29580  10.577   0.288   1.542 -0.3938  0.6262  0.5095
70657SOL    HW129581  10.541   0.281   1.453 -0.8936  1.2325  0.6583
70657SOL    HW229582  10.672   0.293   1.529 -0.5411  2.9559 -0.1655
70658SOL     OW29583  12.539  11.179   0.871 -0.1300  0.1144 -0.2759
70658SOL    HW129584  12.607  11.131   0.824 -1.1427  0.1556 -1.8767
70658SOL    HW229585  12.496  11.232   0.804 -1.1744  0.7599  0.8513
70659SOL     OW29586   1.962   5.047   0.053 -0.2385 -0.8308  0.5810
70659SOL    HW129587   1.922   5.002   0.127 -0.3634 -1.3880  0.1811
70659SOL    HW229588   2.006   4.978   0.003 -0.7319 -0.5754 -0.2355
70660SOL     OW29589   5.821   4.916   8.380  0.4117 -0.1012 -0.1606
70660SOL    HW129590   5.842   4.985   8.317 -0.1846 -0.5461 -0.8653
70660SOL    HW229591   5.733   4.888   8.356  0.4506 -0.7588  0.4378
70661SOL     OW29592  13.452   0.970   0.871 -0.1364  0.1663  0.0558
70661SOL    HW129593  13.360   0.987   0.890 -0.3186 -0.2734 -0.3979
70661SOL    HW229594  13.455   0.879   0.842 -0.3137  1.2827 -4.2381
70662SOL     OW29595   6.818  13.691   2.690 -0.1996 -0.2492 -0.4514
70662SOL    HW129596   6.905  13.732   2.692 -0.0119 -0.3317 -3.2278
70662SOL    HW229597   6.760  13.758   2.726  0.6498  0.8900 -1.1205
70663SOL     OW29598   3.538  12.915   7.450  0.3354  0.6230  0.2053
70663SOL    HW129599   3.475  12.853   7.486 -1.2610  1.5642 -0.8506
70663SOL    HW229600   3.584  12.949   7.527  0.2581 -0.7918  0.9144
70664SOL     OW29601   2.929   8.061   0.069  0.2282  0.3950 -0.4915
70664SOL    HW129602   2.981   8.031  -0.005  0.3456  0.3878 -0.4051
70664SOL    HW229603   2.973   8.025   0.146  0.4883  0.9746 -0.3718
70665SOL     OW29604  12.014   0.611   7.981 -0.2801 -0.1366 -0.1010
70665SOL    HW129605  11.978   0.523   7.976  0.1413 -0.3114 -0.1279
70665SOL    HW229606  11.958   0.663   7.924 -0.4096 -0.4280 -0.2416
70666SOL     OW29607  13.427   8.663  13.985 -0.0109 -0.2810  0.8915
70666SOL    HW129608  13.431   8.567  13.980 -1.2744 -0.3076  0.1261
70666SOL    HW229609  13.452   8.683  14.076  1.3776 -1.2454  0.7539
70667SOL     OW29610   9.385   3.238   9.609 -0.0542 -0.0168  0.1527
70667SOL    HW129611   9.396   3.301   9.538  1.1437 -0.4167 -0.0380
70667SOL    HW229612   9.459   3.255   9.668 -1.3092  0.6436  1.5844
70668SOL     OW29613  13.953   4.477   8.158 -0.4692 -0.2507 -0.0824
70668SOL    HW129614  14.033   4.514   8.119  1.2688 -1.4152  2.1057
70668SOL    HW229615  13.922   4.545   8.218  0.3739 -0.7160  0.9160
70669SOL     OW29616  11.538   2.418  12.856 -0.0292 -0.2380  0.0205
70669SOL    HW129617  11.614   2.468  12.886 -1.2188  0.9863  1.1505
70669SOL    HW229618  11.467   2.447  12.913 -1.4599 -0.9861 -1.3224
70670SOL     OW29619  13.497  13.383  13.139  0.0595 -0.2890  0.2987
70670SOL    HW129620  13.488  13.312  13.075 -0.4219 -0.3139  0.3871
70670SOL    HW229621  13.489  13.340  13.224 -1.9256  0.0578  0.3381
70671SOL     OW29622   4.956  11.070   2.841 -0.3530 -0.3120 -0.2620
70671SOL    HW129623   4.917  11.102   2.760 -2.8141 -0.3121  0.8493
70671SOL    HW229624   4.969  10.976   2.826 -2.2611 -0.6257 -0.1787
70672SOL     OW29625   8.352   4.129   6.144  0.4482 -0.0493  0.7860
70672SOL    HW129626   8.444   4.107   6.159  0.8284  0.9846 -0.0106
70672SOL    HW229627   8.325   4.174   6.224  0.5282 -0.6162  1.1454
70673SOL     OW29628   3.932   9.525  13.497 -0.4760  0.0250 -0.6761
70673SOL    HW129629   3.912   9.533  13.590 -1.7691  1.6773 -1.0592
70673SOL    HW229630   3.850   9.497  13.457 -0.0773 -0.1479 -1.4010
70674SOL     OW29631  11.470   2.399   4.813  0.2575  0.0981  0.2438
70674SOL    HW129632  11.399   2.463   4.826  2.3510  2.3013  1.7369
70674SOL    HW229633  11.459   2.370   4.723 -3.0284 -0.3608  0.6729
70675SOL     OW29634   8.792   2.406   4.938 -0.7246 -0.1973 -0.0373
70675SOL    HW129635   8.708   2.417   4.981 -1.0177 -2.5493  0.0996
70675SOL    HW229636   8.820   2.317   4.960 -0.1146 -0.9558 -3.2883
70676SOL     OW29637  12.706   4.504  10.922 -0.1173 -0.2766 -0.0644
70676SOL    HW129638  12.632   4.539  10.974  1.2137  1.5128  0.7496
70676SOL    HW229639  12.701   4.552  10.839  0.7460  0.7248  0.4291
70677SOL     OW29640  10.336  14.068   7.946  0.2918 -0.8511 -0.1848
70677SOL    HW129641  10.366  14.149   7.905 -0.3535  0.0173  0.9877
70677SOL    HW229642  10.417  14.021   7.968  0.6512 -0.9556 -1.6776
70678SOL     OW29643   5.278   5.132  12.509  0.0776 -0.7320 -0.8501
70678SOL    HW129644   5.356   5.132  12.453  0.8499 -2.0448  0.1755
70678SOL    HW229645   5.240   5.044  12.498 -0.8288 -0.3667 -0.7455
70679SOL     OW29646   0.463  11.664  13.547 -0.3868  0.4513 -0.1924
70679SOL    HW129647   0.540  11.685  13.599 -0.4721  0.5680 -0.1143
70679SOL    HW229648   0.391  11.661  13.610 -0.1769 -1.3575  0.0380
70680SOL     OW29649   3.917   6.821   9.986 -0.1065  0.5329 -0.3471
70680SOL    HW129650   3.931   6.802  10.079 -1.3887  0.4968 -0.1343
70680SOL    HW229651   3.844   6.883   9.985  0.6974  1.4937 -1.2861
70681SOL     OW29652   0.667   9.751   8.908  0.4271 -1.0888  0.0567
70681SOL    HW129653   0.623   9.788   8.984 -0.4394 -2.0047  0.0313
70681SOL    HW229654   0.710   9.672   8.941  0.5701 -1.1572 -0.2853
70682SOL     OW29655   9.235  13.558   9.668  0.1168 -0.4227 -0.2774
70682SOL    HW129656   9.184  13.608   9.604  1.0829  0.2237 -0.5637
70682SOL    HW229657   9.325  13.589   9.657  0.8352 -2.4592 -0.7022
70683SOL     OW29658   2.687   2.978   1.289  0.7572  0.3045 -0.1265
70683SOL    HW129659   2.657   3.032   1.362  1.5713  0.2650  0.2529
70683SOL    HW229660   2.646   2.893   1.303  1.9124 -0.0978  1.0319
70684SOL     OW29661  10.152   0.005   1.522  0.4008  0.1642  0.0490
70684SOL    HW129662  10.089  -0.041   1.466 -0.5979  1.4302  0.0795
70684SOL    HW229663  10.109   0.009   1.608 -0.1077  2.1985 -0.2545
70685SOL     OW29664  11.048   2.416   5.046  0.3954 -0.1365  0.3549
70685SOL    HW129665  11.006   2.333   5.023  0.3715  0.3696 -1.6126
70685SOL    HW229666  10.980   2.465   5.092 -0.2915 -0.3815 -0.3713
70686SOL     OW29667  11.057  10.965  12.980  0.7553  0.6704 -0.5528
70686SOL    HW129668  11.004  10.935  13.054  1.1538  1.4212  0.0594
70686SOL    HW229669  11.105  10.888  12.950  0.3454  0.2915 -0.2329
70687SOL     OW29670  13.256  13.154   4.327  0.5298 -0.4436  0.3344
70687SOL    HW129671  13.207  13.178   4.406  0.2920  0.0584  0.0448
70687SOL    HW229672  13.342  13.195   4.338  0.8231 -1.1475  0.7460
70688SOL     OW29673  13.310   2.993   2.075 -0.1110 -0.4143  0.1854
70688SOL    HW129674  13.340   2.903   2.067  1.9159  0.1575  0.6452
70688SOL    HW229675  13.268   3.012   1.991  1.3429 -1.1560 -0.7581
70689SOL     OW29676   9.951   3.530   5.392 -0.3513 -0.6915  0.6705
70689SOL    HW129677  10.024   3.478   5.427 -0.0897 -0.0911  1.0238
70689SOL    HW229678   9.873   3.479   5.415 -0.1178 -0.8001  1.2454
70690SOL     OW29679  13.499   3.750   5.955 -0.5892  0.0020 -0.2619
70690SOL    HW129680  13.534   3.664   5.975 -0.5390  0.6913  3.3378
70690SOL    HW229681  13.576   3.805   5.941 -0.6327 -0.6118 -3.5039
70691SOL     OW29682   3.759  10.681   9.059  0.2680  0.7896 -0.0754
70691SOL    HW129683   3.786  10.738   9.131 -0.7377 -0.3528  1.2714
70691SOL    HW229684   3.663  10.685   9.059  0.2421  0.5921 -1.2221
70692SOL     OW29685   5.013  12.464  10.997  0.1289 -0.3503  0.6368
70692SOL    HW129686   4.945  12.529  11.017  0.9978  0.3709  1.2966
70692SOL    HW229687   5.095  12.509  11.015  0.7528 -1.6022  0.9765
70693SOL     OW29688   0.362   3.417   7.433  0.0395 -0.8741  0.1632
70693SOL    HW129689   0.313   3.337   7.448  0.5196 -1.5065 -1.4083
70693SOL    HW229690   0.315   3.485   7.481 -0.9671 -1.9093  0.6527
70694SOL     OW29691   5.700  11.009   7.137  0.2786 -0.3322  0.7442
70694SOL    HW129692   5.647  10.931   7.154  0.7572 -1.2124 -1.4953
70694SOL    HW229693   5.637  11.075   7.106  0.0580 -0.2282  1.3916
70695SOL     OW29694   2.484   6.183   8.220 -0.2758 -0.3909  0.5068
70695SOL    HW129695   2.530   6.251   8.269  2.1794 -1.2508 -0.4462
70695SOL    HW229696   2.518   6.101   8.256 -1.7381 -1.1184  0.3117
70696SOL     OW29697   7.012   4.754  13.058 -0.0828  0.0940  0.0353
70696SOL    HW129698   7.075   4.703  13.006  2.5435  4.3397 -1.4570
70696SOL    HW229699   7.059   4.776  13.138 -2.0852 -1.6675  1.8171
70697SOL     OW29700   2.447   4.804   3.178 -0.2219  0.1209  0.0077
70697SOL    HW129701   2.402   4.879   3.217  2.2506  2.4834 -1.2692
70697SOL    HW229702   2.408   4.796   3.091  0.0257  0.4806 -0.1422
70698SOL     OW29703   7.754   0.812   8.228  0.2379  0.3040 -0.2089
70698SOL    HW129704   7.744   0.720   8.251  0.9782  0.3680  0.3957
70698SOL    HW229705   7.847   0.830   8.239  0.0615  1.1946 -0.0670
70699SOL     OW29706   8.483  12.353  12.276  0.2365  0.3006 -0.2525
70699SOL    HW129707   8.410  12.293  12.288  1.2752 -0.6537  1.8286
70699SOL    HW229708   8.447  12.440  12.296  0.1126 -0.4019  3.0310
70700SOL     OW29709  10.014  11.066   4.975 -0.4105 -0.0453 -0.4936
70700SOL    HW129710  10.038  10.973   4.975 -0.0417  0.0172  1.3170
70700SOL    HW229711  10.095  11.112   4.995 -0.6002  0.6917 -1.3497
70701SOL     OW29712   5.033   6.809   4.801 -0.2320  0.4662 -0.0261
70701SOL    HW129713   4.970   6.865   4.847 -0.4287  0.3290 -0.1233
70701SOL    HW229714   5.004   6.811   4.710  0.1104  0.6764 -0.1314
70702SOL     OW29715   7.408  12.350   7.492 -0.0633 -0.8468  0.2099
70702SOL    HW129716   7.375  12.380   7.407  1.5878 -1.7737 -0.8304
70702SOL    HW229717   7.382  12.257   7.495 -0.7639 -0.6305  1.0799
70703SOL     OW29718   6.096   7.311   1.685  0.1445  0.0220 -0.7685
70703SOL    HW129719   6.001   7.302   1.683  0.3229 -2.3967 -1.1878
70703SOL    HW229720   6.123   7.261   1.762  1.1237  0.1671 -1.0038
70704SOL     OW29721   0.447   4.876  10.008 -0.3769 -0.1273 -0.1611
70704SOL    HW129722   0.395   4.942   9.962  1.0193  1.3119  0.2364
70704SOL    HW229723   0.384   4.834  10.067 -1.0398  1.8552  0.6249
70705SOL     OW29724   5.983   7.877   4.943 -0.5730 -0.7901  0.5797
70705SOL    HW129725   5.960   7.970   4.948 -1.4788 -1.0420  1.3055
70705SOL    HW229726   5.970   7.855   4.851 -0.8029 -0.3087  0.4902
70706SOL     OW29727  10.597  12.528  13.444  0.6540 -0.3305 -0.4352
70706SOL    HW129728  10.658  12.505  13.513  0.1522 -0.4202 -0.0142
70706SOL    HW229729  10.651  12.565  13.374  1.0268  1.1146  0.5808
70707SOL     OW29730  14.056  10.547   9.410  0.0810  0.5342 -0.2777
70707SOL    HW129731  14.139  10.593   9.425  0.2332 -0.2460  1.5407
70707SOL    HW229732  13.992  10.617   9.401  0.7332  1.1409 -0.3382
70708SOL     OW29733  11.196   7.591   1.416  0.0490  0.6247  0.0890
70708SOL    HW129734  11.160   7.675   1.447  1.0908  0.6727  1.2415
70708SOL    HW229735  11.140   7.568   1.342 -2.1058  0.8984  1.5115
70709SOL     OW29736  12.671   4.984   9.559 -0.1676  0.4597 -0.1767
70709SOL    HW129737  12.585   4.976   9.517 -0.9374 -0.2760  1.4685
70709SOL    HW229738  12.686   5.078   9.565 -0.8129  0.5958 -0.5546
70710SOL     OW29739   1.436   7.501   3.603  0.8202 -0.1597 -0.5121
70710SOL    HW129740   1.397   7.473   3.686  1.3525 -1.2554 -0.6224
70710SOL    HW229741   1.526   7.471   3.607  1.3586  1.3187 -0.7605
70711SOL     OW29742   6.491   3.044   7.907 -0.1752 -0.3623  0.0585
70711SOL    HW129743   6.560   3.063   7.971 -0.7127 -1.4773  1.0115
70711SOL    HW229744   6.512   3.099   7.831  0.8847  0.4604  0.9170
70712SOL     OW29745   1.052  13.925  13.617  0.2294 -0.7675 -0.9104
70712SOL    HW129746   0.962  13.922  13.585 -0.0013  0.6324 -0.5011
70712SOL    HW229747   1.066  13.841  13.659 -2.1629  0.1763  2.1909
70713SOL     OW29748   0.008  10.078   4.105  0.0772  0.3382  0.0663
70713SOL    HW129749   0.028  10.002   4.159 -2.7577  0.0640  0.8641
70713SOL    HW229750   0.040  10.055   4.018  0.1793 -1.3435  0.5179
70714SOL     OW29751  10.362  12.869   1.032 -0.7198  0.4292  0.5945
70714SOL    HW129752  10.422  12.931   0.991  0.1940 -0.5212  0.4316
70714SOL    HW229753  10.419  12.801   1.067 -1.7131 -0.5332  0.3979
70715SOL     OW29754   3.572  13.923   0.720 -0.2857  0.6254  0.3569
70715SOL    HW129755   3.651  13.874   0.743 -0.4987  0.5466  0.9420
70715SOL    HW229756   3.604  13.997   0.669  0.2628  1.0518  1.2803
70716SOL     OW29757   8.689  10.261   0.382  0.2247 -0.4384 -0.0447
70716SOL    HW129758   8.715  10.224   0.466  0.4426 -0.8714 -0.2957
70716SOL    HW229759   8.671  10.184   0.327  0.2896 -0.1634 -0.4535
70717SOL     OW29760   8.690   1.104   8.923 -0.1511 -0.1134 -0.1035
70717SOL    HW129761   8.605   1.144   8.902  0.1458  1.0218  0.7514
70717SOL    HW229762   8.687   1.018   8.881 -1.2614  0.3694 -1.0595
70718SOL     OW29763   1.515   5.288   7.205  0.0979  0.2773 -0.0767
70718SOL    HW129764   1.571   5.242   7.267  0.2608 -1.6049 -1.5360
70718SOL    HW229765   1.575   5.324   7.140 -0.1956  0.6916 -0.1268
70719SOL     OW29766  13.168  10.005  10.685  0.0930 -0.3552  0.0351
70719SOL    HW129767  13.210   9.967  10.762 -1.4494  1.5854  1.9560
70719SOL    HW229768  13.214  10.087  10.670 -1.7511  0.9772  1.1436
70720SOL     OW29769   0.339   6.155  10.830  0.3444  0.1566  0.0241
70720SOL    HW129770   0.433   6.169  10.825  0.8620 -2.9023 -0.4909
70720SOL    HW229771   0.325   6.121  10.919  0.3088 -2.4735 -0.9060
70721SOL     OW29772   5.722  13.040   3.398 -0.4520 -0.2553  0.2744
70721SOL    HW129773   5.700  13.083   3.315  0.9288  0.2557  0.1443
70721SOL    HW229774   5.662  12.966   3.403 -0.7619 -0.1272 -1.0496
70722SOL     OW29775   9.759   1.845  10.638  0.1024  0.3381  0.5202
70722SOL    HW129776   9.790   1.932  10.666 -0.3009  0.0919  1.8160
70722SOL    HW229777   9.718   1.808  10.717  0.6774 -1.2193  0.1199
70723SOL     OW29778   2.342   9.820   2.563 -0.3494  0.3200  0.0805
70723SOL    HW129779   2.406   9.795   2.496 -0.1898 -0.7126  0.6038
70723SOL    HW229780   2.265   9.848   2.513  0.3369  1.1598 -0.5466
70724SOL     OW29781   6.170  13.793   0.827 -1.0041 -0.1224 -0.3699
70724SOL    HW129782   6.112  13.778   0.753  0.4694  2.5691 -2.2364
70724SOL    HW229783   6.171  13.889   0.838 -0.8853 -0.3842  2.9547
70725SOL     OW29784   1.607   0.401  13.198  0.2770 -0.1846  0.3623
70725SOL    HW129785   1.618   0.356  13.281 -0.0127 -2.1345 -0.6094
70725SOL    HW229786   1.528   0.454  13.210  1.2437  1.0027  1.8887
70726SOL     OW29787   7.895   2.730  12.593  0.1923 -0.2707 -0.2361
70726SOL    HW129788   7.969   2.705  12.537 -0.6391 -1.6021 -0.7861
70726SOL    HW229789   7.877   2.821  12.569  0.1437 -0.6697 -1.8657
70727SOL     OW29790  10.208  13.321   9.228 -0.3209  0.5917 -0.8204
70727SOL    HW129791  10.131  13.278   9.264  0.8448 -0.8655  0.0418
70727SOL    HW229792  10.228  13.272   9.148  0.5942 -0.0468 -0.2172
70728SOL     OW29793   3.961   8.042   8.567  0.1178  0.2073 -0.1510
70728SOL    HW129794   4.048   8.031   8.606  0.2365  0.6465 -0.2746
70728SOL    HW229795   3.962   7.988   8.489  0.9376  1.5841 -1.1436
70729SOL     OW29796   0.731   7.427   8.527 -0.1555  1.0522  0.3511
70729SOL    HW129797   0.657   7.487   8.530 -1.1386 -0.1554  1.6832
70729SOL    HW229798   0.697   7.345   8.562  1.0806 -0.3769 -1.5293
70730SOL     OW29799  10.065  11.681   5.577  0.2003 -1.0900  0.3094
70730SOL    HW129800  10.024  11.765   5.559 -0.7737 -1.1403  2.0451
70730SOL    HW229801  10.155  11.690   5.545  0.2554  0.7642  0.8838
70731SOL     OW29802   6.674   9.675   0.296  0.0393 -0.0905  0.1036
70731SOL    HW129803   6.603   9.625   0.336  0.9957 -1.3684  0.2615
70731SOL    HW229804   6.753   9.625   0.315  0.7908  0.3751 -1.5404
70732SOL     OW29805   5.722  10.415   5.929  0.0161  0.3486  0.1594
70732SOL    HW129806   5.694  10.495   5.972  2.2706 -0.1359  2.7873
70732SOL    HW229807   5.662  10.348   5.960  1.2369  0.1260  2.2003
70733SOL     OW29808   6.215  10.850  13.441 -0.4885  0.1135  0.2175
70733SOL    HW129809   6.273  10.925  13.426  1.1752 -0.9202  1.1735
70733SOL    HW229810   6.266  10.774  13.411 -1.1946 -0.8797  1.4485
70734SOL     OW29811   4.174   1.374   1.505  0.3507  0.5105  0.3888
70734SOL    HW129812   4.245   1.407   1.560  3.3045 -0.6928 -2.3654
70734SOL    HW229813   4.189   1.279   1.501  0.1119  0.5108 -2.1793
70735SOL     OW29814   0.875   8.401   5.793  0.7943 -0.1804  0.3960
70735SOL    HW129815   0.904   8.336   5.857  0.0389 -1.1625 -0.2171
70735SOL    HW229816   0.784   8.378   5.775  1.5693 -1.3689 -2.6678
70736SOL     OW29817   9.997  11.635   1.377  0.2404  0.2838  0.3823
70736SOL    HW129818   9.912  11.602   1.347  1.6049 -1.6775 -1.6887
70736SOL    HW229819  10.035  11.563   1.427  2.3042 -0.6301 -2.2294
70737SOL     OW29820   0.052   1.269   6.565 -0.2169 -0.1281  0.1788
70737SOL    HW129821   0.126   1.219   6.599  1.5868  0.0882 -3.1008
70737SOL    HW229822   0.004   1.207   6.511  0.8890  1.0278 -2.2881
70738SOL     OW29823  13.480   2.002   2.460  0.2299 -0.4285 -0.1409
70738SOL    HW129824  13.404   2.027   2.512  0.1948 -1.6514  0.4072
70738SOL    HW229825  13.554   2.042   2.506 -0.1554  1.9492 -1.4347
70739SOL     OW29826   5.758   3.010  13.644 -0.0192  0.4202  0.7625
70739SOL    HW129827   5.841   2.963  13.630  0.3353  1.2809 -0.1079
70739SOL    HW229828   5.782   3.083  13.701  0.2071  1.6753 -0.8636
70740SOL     OW29829   3.451   9.220   2.022 -0.4769  0.7486  0.4667
70740SOL    HW129830   3.490   9.176   2.097 -2.2390  1.2444  1.7376
70740SOL    HW229831   3.380   9.162   1.994 -1.6502  1.8404  1.0190
70741SOL     OW29832   5.255   0.023   1.728  0.0543  0.1038 -0.5252
70741SOL    HW129833   5.339  -0.013   1.758  0.7963  1.9899 -0.1953
70741SOL    HW229834   5.275   0.062   1.642  0.4849  3.6669  1.0290
70742SOL     OW29835   9.701   7.273   5.085 -1.1020  0.0588  0.4604
70742SOL    HW129836   9.643   7.348   5.072 -1.1128  0.1806  1.1750
70742SOL    HW229837   9.742   7.289   5.170  0.2713  0.1647 -0.1870
70743SOL     OW29838  13.596   8.991  10.703 -0.5985  0.0950  0.2275
70743SOL    HW129839  13.512   8.955  10.731 -0.8465  1.0579  0.7751
70743SOL    HW229840  13.656   8.968  10.773 -0.4741 -0.3142 -0.0108
70744SOL     OW29841  11.994  14.072   7.773 -0.2799 -0.4839 -0.0717
70744SOL    HW129842  12.075  14.077   7.722 -0.4476  0.5471 -0.2500
70744SOL    HW229843  12.015  14.012   7.845  0.9154  0.3995  0.3536
70745SOL     OW29844   2.886   9.330   6.425 -0.1361  0.0872 -0.6286
70745SOL    HW129845   2.864   9.238   6.436  0.1185  0.1215  0.2160
70745SOL    HW229846   2.970   9.341   6.470 -1.0353  1.1144  0.9186
70746SOL     OW29847   6.941   0.710   1.488  0.3711  0.0517  0.2413
70746SOL    HW129848   7.013   0.685   1.431 -0.4863 -2.0660 -0.0032
70746SOL    HW229849   6.908   0.627   1.523 -1.3840  1.0230  1.0188
70747SOL     OW29850  12.039   3.412   3.036 -0.7412  0.1146  0.0246
70747SOL    HW129851  11.973   3.447   3.096 -2.0623 -0.4091 -1.0545
70747SOL    HW229852  12.052   3.321   3.064 -2.1316 -0.4551 -1.0444
70748SOL     OW29853   5.627   0.580  14.034 -0.1796 -0.4504  0.1082
70748SOL    HW129854   5.655   0.520  14.104  0.3223 -2.6545 -1.8777
70748SOL    HW229855   5.537   0.555  14.015 -0.1947 -0.1105 -0.2839
70749SOL     OW29856   2.773   1.987   1.865  0.3482 -0.2408  0.4508
70749SOL    HW129857   2.796   1.909   1.916  1.5089  0.3546  0.8701
70749SOL    HW229858   2.804   1.968   1.777  1.0696 -0.0778  0.6604
70750SOL     OW29859  12.394   8.787   3.670  0.1096 -0.3459  0.0734
70750SOL    HW129860  12.330   8.825   3.609 -0.7286  1.5679  1.9985
70750SOL    HW229861  12.471   8.843   3.662 -0.1210  0.1200  0.9296
70751SOL     OW29862   3.101   2.026  10.207 -1.1876  0.6468 -0.5978
70751SOL    HW129863   3.007   2.028  10.190 -1.0064 -1.4542 -2.2447
70751SOL    HW229864   3.113   1.950  10.264 -0.7653  2.7631  2.4023
70752SOL     OW29865   3.907  12.997  11.964 -0.7955 -0.1832 -0.2493
70752SOL    HW129866   3.841  13.063  11.987  0.4886  0.6194  1.3902
70752SOL    HW229867   3.955  13.037  11.891  0.5011  1.1592  1.2559
70753SOL     OW29868  12.549   0.341   7.861 -0.0899  0.5107 -0.7187
70753SOL    HW129869  12.517   0.261   7.819  0.9764 -0.5097  0.3339
70753SOL    HW229870  12.471   0.378   7.904 -0.5089 -0.1916 -0.8520
70754SOL     OW29871   1.844   4.648   5.657  0.0712 -0.0378  0.0889
70754SOL    HW129872   1.849   4.576   5.721 -0.4332  0.6508  0.9251
70754SOL    HW229873   1.906   4.713   5.691 -0.1259  0.2904 -0.1905
70755SOL     OW29874   8.671  13.429  13.808 -0.1422 -0.2248 -0.2944
70755SOL    HW129875   8.578  13.420  13.785 -0.5676  0.0996  1.1322
70755SOL    HW229876   8.684  13.523  13.817  0.1793 -0.2976  0.0324
70756SOL     OW29877   4.110  10.547  10.383  0.0637 -0.7601 -0.4144
70756SOL    HW129878   4.127  10.456  10.407 -2.1901 -1.8829 -2.6320
70756SOL    HW229879   4.197  10.584  10.366  1.0297 -2.4495  0.6094
70757SOL     OW29880  12.299   8.582  13.074  0.5299  0.0203 -0.0474
70757SOL    HW129881  12.371   8.598  13.012  0.5570  0.6362  0.1331
70757SOL    HW229882  12.220   8.581  13.019  0.4860  1.1865 -0.0362
70758SOL     OW29883   8.983   8.704   1.422  0.3868 -0.2583  0.0111
70758SOL    HW129884   8.976   8.608   1.419  0.5267 -0.2449 -1.1931
70758SOL    HW229885   9.062   8.724   1.373  0.1484  0.4925 -0.0785
70759SOL     OW29886  11.120   9.830  12.804 -0.3054  0.1612  0.3306
70759SOL    HW129887  11.185   9.886  12.760  0.6109 -0.6431  0.6114
70759SOL    HW229888  11.076   9.889  12.865  0.5771  0.6138  0.5579
70760SOL     OW29889  13.963  11.548   1.900 -0.0321  0.1757  0.1611
70760SOL    HW129890  13.954  11.626   1.846  0.2789  0.0198 -0.1237
70760SOL    HW229891  14.057  11.529   1.900 -0.2334 -1.0435 -1.0169
70761SOL     OW29892  13.504  12.240   3.779  0.5415 -1.0075  0.3324
70761SOL    HW129893  13.414  12.261   3.805 -0.2406 -3.6254  0.0041
70761SOL    HW229894  13.518  12.288   3.697 -0.3822 -0.2356  0.6122
70762SOL     OW29895  12.245   6.176   5.766 -0.1118 -0.9041 -0.0176
70762SOL    HW129896  12.275   6.201   5.679 -1.1260 -0.6813 -0.3185
70762SOL    HW229897  12.193   6.251   5.796 -1.6342 -1.8427 -0.1635
70763SOL     OW29898  10.369  13.891  12.486 -0.7272  0.3157  0.2643
70763SOL    HW129899  10.314  13.856  12.415  1.1534  0.8297 -1.5504
70763SOL    HW229900  10.406  13.972  12.450  0.7955  0.2659  1.6017
70764SOL     OW29901   6.121  12.589   9.482  0.9482 -0.3571 -0.1506
70764SOL    HW129902   6.211  12.558   9.479  1.1184 -0.2139  1.8615
70764SOL    HW229903   6.110  12.640   9.402  3.3619  1.4789  0.5686
70765SOL     OW29904   2.410   9.708   7.088  0.3421  1.0083 -1.0001
70765SOL    HW129905   2.478   9.713   7.020  0.5497  1.8651 -0.7314
70765SOL    HW229906   2.330   9.738   7.044  0.1241  0.0116 -1.3133
70766SOL     OW29907   2.647   9.511   7.907 -0.7476  0.2721  0.1666
70766SOL    HW129908   2.700   9.438   7.938  1.0201  1.2446 -0.4538
70766SOL    HW229909   2.624   9.487   7.817 -0.4413  0.3289  0.0715
70767SOL     OW29910   5.258  13.352   4.748 -0.4510  0.3183 -0.2338
70767SOL    HW129911   5.202  13.299   4.690 -1.7942  0.8793  0.5030
70767SOL    HW229912   5.252  13.309   4.833  1.6919 -0.6275 -0.5127
70768SOL     OW29913   7.236  13.692   3.070 -0.3177 -0.1612  0.1197
70768SOL    HW129914   7.324  13.671   3.100 -0.4769  0.1677  0.8420
70768SOL    HW229915   7.245  13.706   2.976  1.1752  3.5987  0.6187
70769SOL     OW29916  13.290   3.185   9.269 -0.3804 -0.4855  0.3160
70769SOL    HW129917  13.289   3.227   9.355  0.8855  0.1724  0.0367
70769SOL    HW229918  13.372   3.136   9.267  1.2631  2.0385 -1.6079
70770SOL     OW29919   2.455   5.627  10.264  0.0074 -0.1476  0.1608
70770SOL    HW129920   2.491   5.540  10.244  1.0595  0.4525 -0.7181
70770SOL    HW229921   2.500   5.654  10.344  1.2276  0.3807 -0.6516
70771SOL     OW29922   4.419   4.483  11.422 -0.3904  0.0466 -0.3114
70771SOL    HW129923   4.417   4.570  11.461  0.6324  0.4898 -1.2257
70771SOL    HW229924   4.337   4.442  11.452  0.6034  0.0989  2.8388
70772SOL     OW29925   5.406   2.700   7.630 -0.1336  0.0450 -0.3592
70772SOL    HW129926   5.487   2.672   7.588 -0.6442 -0.3738 -1.0816
70772SOL    HW229927   5.414   2.669   7.721 -0.2436 -1.5548 -0.8738
70773SOL     OW29928   7.427   3.412  13.247  0.5602  0.2528 -0.4029
70773SOL    HW129929   7.357   3.474  13.270 -0.7177 -1.0638 -0.6068
70773SOL    HW229930   7.386   3.350  13.187  1.9503 -0.4999 -0.6249
70774SOL     OW29931   5.132  12.187  12.803 -0.3268  0.2263 -0.1161
70774SOL    HW129932   5.052  12.168  12.852 -0.3804 -1.0643 -0.6623
70774SOL    HW229933   5.139  12.283  12.805  0.0390  0.2322  2.9567
70775SOL     OW29934   5.620   4.802   0.228  0.1248  0.4087 -0.2511
70775SOL    HW129935   5.692   4.862   0.208  0.5588 -0.2873 -0.8515
70775SOL    HW229936   5.550   4.829   0.169  0.1680  0.5866 -0.2230
70776SOL     OW29937  11.144  13.569  13.489 -0.0161  0.2443  0.6767
70776SOL    HW129938  11.136  13.514  13.410  1.4457 -0.6661  1.1153
70776SOL    HW229939  11.103  13.652  13.465  1.5431  0.4639 -1.5270
70777SOL     OW29940   1.807  10.601   4.205  0.5220  0.4018  1.0386
70777SOL    HW129941   1.850  10.535   4.151 -2.6892 -0.8428 -0.2093
70777SOL    HW229942   1.823  10.572   4.295  2.1183 -0.0530  0.6438
70778SOL     OW29943  12.757   8.415  12.816 -0.7814 -0.0073 -1.2010
70778SOL    HW129944  12.727   8.504  12.793 -1.8064 -0.0037  0.0270
70778SOL    HW229945  12.848   8.427  12.841 -1.2364  0.9645  0.1622
70779SOL     OW29946   3.464   5.754   0.461  0.0168  0.1746 -0.1868
70779SOL    HW129947   3.398   5.717   0.402  0.4352  1.1629 -1.3325
70779SOL    HW229948   3.433   5.733   0.549 -1.1243 -0.5274 -0.7322
70780SOL     OW29949  13.743   4.854   3.824 -0.5565 -0.0086  0.0148
70780SOL    HW129950  13.663   4.874   3.871  0.0880  1.8763  0.3701
70780SOL    HW229951  13.801   4.928   3.840  0.2152  0.0768 -2.5687
70781SOL     OW29952   8.627   0.852   2.927 -0.4668 -0.5119 -0.3453
70781SOL    HW129953   8.694   0.844   2.995  0.0152 -1.1216 -0.8766
70781SOL    HW229954   8.600   0.762   2.909 -0.4934 -0.3698 -1.0503
70782SOL     OW29955   5.283   4.177   0.513  0.2769 -0.3447  0.8327
70782SOL    HW129956   5.288   4.104   0.574  1.7528  0.0788  1.2639
70782SOL    HW229957   5.222   4.238   0.555  0.4120 -0.5483  1.3393
70783SOL     OW29958  11.568   3.777   7.211 -0.4161 -0.4552  0.2267
70783SOL    HW129959  11.562   3.815   7.124 -0.2980 -0.4831  0.2071
70783SOL    HW229960  11.598   3.687   7.197  2.1679  0.2968  0.4525
70784SOL     OW29961   5.010  13.085   3.314  0.3155 -0.4139 -0.7202
70784SOL    HW129962   4.942  13.150   3.296 -0.4153 -0.5213  1.3503
70784SOL    HW229963   5.092  13.134   3.307 -0.1479  0.4259 -0.4795
70785SOL     OW29964   2.344   0.977   5.777  0.2685  0.2699 -0.0340
70785SOL    HW129965   2.315   1.068   5.766  1.4806  0.7656  0.6974
70785SOL    HW229966   2.408   0.963   5.708  0.0084 -0.0603 -0.2076
70786SOL     OW29967   9.212   4.300  13.136 -0.1908  0.3410 -0.3626
70786SOL    HW129968   9.150   4.285  13.208 -0.1925 -0.1673 -0.4626
70786SOL    HW229969   9.276   4.230  13.145 -0.5388 -0.1047 -1.2261
70787SOL     OW29970  13.114  12.152   2.679 -0.0795  0.1594 -0.3398
70787SOL    HW129971  13.027  12.190   2.668 -0.1737 -0.0349 -0.2526
70787SOL    HW229972  13.146  12.141   2.589  0.3386  1.3450 -0.3619
70788SOL     OW29973  13.124   0.714   0.833  0.5206  0.2052 -0.0192
70788SOL    HW129974  13.199   0.709   0.892  0.2513 -0.9233  0.2541
70788SOL    HW229975  13.061   0.770   0.879  1.6923  2.2921 -0.8595
70789SOL     OW29976   0.614   7.959  13.027  0.2248 -0.2430  0.0140
70789SOL    HW129977   0.520   7.954  13.048  0.0687 -0.0175 -0.6005
70789SOL    HW229978   0.616   7.966  12.931  0.9935 -3.9163 -0.3584
70790SOL     OW29979   0.835  13.700  10.965 -0.6062 -0.1844  0.1704
70790SOL    HW129980   0.804  13.624  11.014 -0.4241 -0.6347 -0.4060
70790SOL    HW229981   0.881  13.754  11.029 -2.4032  0.4175  1.0247
70791SOL     OW29982  13.883   5.091   6.077  0.1734  0.5822 -0.1125
70791SOL    HW129983  13.877   5.006   6.121  2.0480  0.3767 -0.1510
70791SOL    HW229984  13.906   5.152   6.147  0.5330  0.7314 -0.3579
70792SOL     OW29985   0.416  11.875  14.012  0.0529  0.2664  0.1497
70792SOL    HW129986   0.396  11.952  14.066  3.8878  0.9741  0.8232
70792SOL    HW229987   0.367  11.889  13.931  0.4704  3.3876  0.3244
70793SOL     OW29988   0.532   5.189   4.244 -0.6318 -0.1843  0.2662
70793SOL    HW129989   0.535   5.192   4.149 -0.6866 -1.3217  0.2142
70793SOL    HW229990   0.438   5.183   4.265 -0.5384 -1.8594  0.2956
70794SOL     OW29991   8.499   8.986   7.930  0.3121 -0.3757  0.5470
70794SOL    HW129992   8.436   8.914   7.931  1.2556 -1.2470 -0.1445
70794SOL    HW229993   8.451   9.061   7.965 -0.9195 -1.1545  0.5813
70795SOL     OW29994   9.211   9.238  10.045 -0.1152  0.3701 -0.1024
70795SOL    HW129995   9.179   9.298  10.112 -0.7853 -0.3111  0.2104
70795SOL    HW229996   9.147   9.244   9.974 -1.7383 -1.8818  1.0138
70796SOL     OW29997   0.034   5.985   6.249  0.1582  0.1864  0.1909
70796SOL    HW129998  -0.029   6.033   6.195  1.1818 -0.1443 -1.3650
70796SOL    HW229999   0.110   6.043   6.254  0.5938 -0.3670  0.1012
70797SOL     OW30000   7.241   8.658   3.670  0.0632  0.0355 -0.3777
70797SOL    HW130001   7.222   8.732   3.728  0.9053  0.6881 -0.9005
70797SOL    HW230002   7.155   8.621   3.650 -0.2376 -0.3854  1.4815
70798SOL     OW30003   1.161   4.486  11.878  0.3373  0.3352 -0.6356
70798SOL    HW130004   1.209   4.413  11.838  1.6596  0.1831  1.0993
70798SOL    HW230005   1.229   4.550  11.900 -0.3098  0.3834  1.3648
70799SOL     OW30006   6.035   3.035  10.009 -0.1918 -0.0151  0.2591
70799SOL    HW130007   5.980   2.999   9.939  1.6197  0.9108 -1.7966
70799SOL    HW230008   6.125   3.012   9.982  0.5158 -1.4371  3.4299
70800SOL     OW30009   8.876   3.808  12.899 -0.5602  0.5625  0.1252
70800SOL    HW130010   8.801   3.848  12.942 -0.4564  1.0176 -0.1152
70800SOL    HW230011   8.851   3.717  12.887 -0.1897  0.1444  2.1252
70801SOL     OW30012   5.696  11.670  13.569  0.1128  0.5624  0.1767
70801SOL    HW130013   5.746  11.593  13.539 -2.7743 -1.7568  0.8404
70801SOL    HW230014   5.737  11.694  13.652  0.4413 -0.9843  0.4944
70802SOL     OW30015   1.264   9.405   7.635  0.4509 -0.4251  0.0243
70802SOL    HW130016   1.178   9.440   7.659  0.5560 -0.1185 -0.0386
70802SOL    HW230017   1.256   9.311   7.648  0.5288 -0.2629  1.2974
70803SOL     OW30018   3.308   0.264  11.390 -0.8547 -0.4138 -0.4268
70803SOL    HW130019   3.386   0.319  11.387  0.5433 -2.2317  0.7215
70803SOL    HW230020   3.338   0.182  11.429 -3.1486 -1.5162 -0.8356
70804SOL     OW30021  12.015   7.902   4.391  0.6359 -0.2278  0.3762
70804SOL    HW130022  12.013   7.962   4.317 -1.8462  1.1066  1.4269
70804SOL    HW230023  11.960   7.829   4.363  2.2108 -1.2573 -0.2062
70805SOL     OW30024   8.664   3.019  12.497  0.3035  0.4628  0.6601
70805SOL    HW130025   8.610   2.943  12.519 -0.1432  1.0784  1.7975
70805SOL    HW230026   8.677   3.064  12.580 -0.2370  2.1407 -0.1121
70806SOL     OW30027   7.383   8.578   8.873  0.1560  0.0032  0.0404
70806SOL    HW130028   7.428   8.506   8.917  0.4050  0.3579  0.3785
70806SOL    HW230029   7.293   8.548   8.863  0.5437 -0.8637 -0.9795
70807SOL     OW30030   1.385  13.050   5.777  0.3139 -0.2212  0.4778
70807SOL    HW130031   1.392  13.058   5.872  0.2045 -1.3656  0.6048
70807SOL    HW230032   1.331  13.124   5.750  1.9172  1.2320  1.0675
70808SOL     OW30033   2.180  13.144   9.269 -0.4939  0.0045 -0.6412
70808SOL    HW130034   2.229  13.199   9.331  1.4315  0.0342 -2.0726
70808SOL    HW230035   2.109  13.200   9.238 -2.2728 -0.4062  2.3246
70809SOL     OW30036   4.669   8.685   5.961  0.4167 -0.0146  0.0225
70809SOL    HW130037   4.709   8.766   5.993  0.7257 -0.4125  0.6645
70809SOL    HW230038   4.631   8.709   5.876 -1.7352  1.4489  1.2945
70810SOL     OW30039   4.464   4.701   8.881 -0.3943 -0.6147 -0.0036
70810SOL    HW130040   4.450   4.628   8.821 -0.7662 -1.5922  1.2308
70810SOL    HW230041   4.380   4.713   8.924 -0.4502  0.8131 -0.4465
70811SOL     OW30042   4.275   8.644  13.629  0.1463  0.0593  0.1436
70811SOL    HW130043   4.340   8.701  13.589  0.7287  0.6546  1.8498
70811SOL    HW230044   4.196   8.698  13.634  1.0801  1.3296  3.0465
70812SOL     OW30045   1.704   8.592  12.398  0.3870 -0.2613 -0.0049
70812SOL    HW130046   1.679   8.539  12.322  0.1344  0.2098 -0.2577
70812SOL    HW230047   1.714   8.680  12.362  0.3701 -0.0578  0.4965
70813SOL     OW30048  13.997   4.373   0.682 -0.3219 -0.3061 -0.0013
70813SOL    HW130049  13.962   4.386   0.594  2.4074 -1.4772 -1.3685
70813SOL    HW230050  14.052   4.294   0.675  2.0136  0.9913  2.0799
70814SOL     OW30051   8.036   6.663  13.396  0.6115  0.1681 -0.0690
70814SOL    HW130052   7.957   6.705  13.362 -0.1822 -0.3614  1.0412
70814SOL    HW230053   8.102   6.676  13.328  0.4774  3.3381  0.2572
70815SOL     OW30054  12.123  10.654   3.830 -0.4800  0.3800  0.0624
70815SOL    HW130055  12.177  10.642   3.752 -0.6871  1.1821 -0.2186
70815SOL    HW230056  12.177  10.708   3.888 -0.2912 -0.2869  0.5128
70816SOL     OW30057   2.236   0.812  10.928 -0.4926  0.1409 -0.2076
70816SOL    HW130058   2.314   0.812  10.872 -0.9556 -0.8035 -0.8794
70816SOL    HW230059   2.247   0.734  10.984 -1.6285 -0.8600 -1.3131
70817SOL     OW30060   3.558   6.154   5.603  0.0232 -0.0341  0.1354
70817SOL    HW130061   3.645   6.161   5.642  0.0903 -0.9927  0.1789
70817SOL    HW230062   3.529   6.245   5.593  1.6946  0.4127 -1.3842
70818SOL     OW30063   4.334   6.260  11.469 -0.1557  0.3284 -0.5413
70818SOL    HW130064   4.399   6.265  11.399 -1.6134  0.6320 -1.9221
70818SOL    HW230065   4.292   6.346  11.468 -0.9183 -0.0292 -0.0125
70819SOL     OW30066   4.817   3.889  12.446 -0.7754  0.2214  0.1804
70819SOL    HW130067   4.772   3.920  12.367  0.5731  1.2407 -0.2469
70819SOL    HW230068   4.888   3.952  12.459  1.0459 -1.7087  0.3099
70820SOL     OW30069  11.055   4.025   5.527 -0.2183 -0.4383 -0.2605
70820SOL    HW130070  11.107   3.946   5.542 -0.4168 -0.6445 -0.6455
70820SOL    HW230071  11.087   4.087   5.592 -0.2317 -0.9169  0.2169
70821SOL     OW30072   7.257   2.910   1.575 -0.0699  0.1431 -0.1679
70821SOL    HW130073   7.202   2.963   1.517  1.4457  0.4339 -1.3987
70821SOL    HW230074   7.197   2.847   1.614 -1.4257  1.0082 -0.7698
70822SOL     OW30075  13.888  11.704  11.662 -0.3155  0.1583 -0.0646
70822SOL    HW130076  13.928  11.766  11.723 -2.1547  0.1113  1.2743
70822SOL    HW230077  13.954  11.692  11.594  1.0105  1.7884  0.8426
70823SOL     OW30078  13.384   3.955   9.028  0.0086  0.1326 -0.1523
70823SOL    HW130079  13.371   4.023   8.961 -1.7547  0.0240  0.0249
70823SOL    HW230080  13.295   3.926   9.050  0.6934 -1.9861  0.0410
70824SOL     OW30081   2.223   1.652   8.850 -0.4302  0.3207  0.2377
70824SOL    HW130082   2.182   1.730   8.886  0.2977  0.4110  0.8919
70824SOL    HW230083   2.215   1.663   8.755 -1.3462  0.6263  0.3366
70825SOL     OW30084   7.807   9.469  13.446  0.0891  0.0231 -0.2005
70825SOL    HW130085   7.898   9.440  13.435 -0.2206 -0.6298 -1.1914
70825SOL    HW230086   7.811   9.564  13.435  0.3426 -0.2209 -2.8104
70826SOL     OW30087  13.873  10.847   1.019  0.2482 -0.0343  0.6575
70826SOL    HW130088  13.780  10.864   1.035  0.0001 -1.3150  0.7187
70826SOL    HW230089  13.908  10.930   0.989 -1.0355  0.3416  0.1346
70827SOL     OW30090   0.831  11.411   4.850  0.2010  0.2326 -0.0319
70827SOL    HW130091   0.889  11.426   4.925  1.1287 -0.0021 -0.6760
70827SOL    HW230092   0.783  11.493   4.840 -1.3440 -0.3444  1.9637
70828SOL     OW30093  13.716  12.320   2.651  0.1728  0.1752  0.3815
70828SOL    HW130094  13.674  12.292   2.732 -0.3161 -0.9127 -0.2266
70828SOL    HW230095  13.795  12.367   2.679  0.4661 -0.9359  1.4579
70829SOL     OW30096   2.382  10.420   0.888 -0.3379  0.0242  0.0965
70829SOL    HW130097   2.295  10.385   0.911 -1.0310  0.8366 -1.1649
70829SOL    HW230098   2.416  10.456   0.970 -1.5245  0.3595  0.4617
70830SOL     OW30099   7.306   1.871   7.028  0.3517  0.6181  0.2829
70830SOL    HW130100   7.213   1.880   7.007  0.3824  1.8072  0.5645
70830SOL    HW230101   7.340   1.808   6.964 -0.6270  0.2221  0.1411
70831SOL     OW30102  10.443   2.998  10.306  0.0627  0.1463 -0.8640
70831SOL    HW130103  10.415   2.924  10.251 -1.0523 -0.0816 -0.0154
70831SOL    HW230104  10.525   3.027  10.266 -0.3294 -0.4889 -2.2040
70832SOL     OW30105   7.973   1.260  13.921 -0.6030 -0.4534 -0.1911
70832SOL    HW130106   7.934   1.346  13.908  1.6994  0.5956 -0.6580
70832SOL    HW230107   7.983   1.224  13.833 -0.8063 -0.8509 -0.0555
70833SOL     OW30108   2.486  12.183  13.204  0.5635  0.6888  0.3226
70833SOL    HW130109   2.561  12.125  13.217 -0.0024 -0.0956  0.1733
70833SOL    HW230110   2.460  12.209  13.292  0.2351 -0.0535  0.4497
70834SOL     OW30111  11.252   4.383   3.927  0.0756  0.1516  0.1606
70834SOL    HW130112  11.248   4.306   3.871 -1.9959 -0.6721  1.3093
70834SOL    HW230113  11.193   4.446   3.886  1.5058  1.0414 -0.5924
70835SOL     OW30114   3.760  13.602   6.362  0.3367  0.3168  0.1083
70835SOL    HW130115   3.829  13.616   6.427  1.2086  0.8945 -0.8957
70835SOL    HW230116   3.749  13.688   6.322 -2.2352  0.6832  1.4154
70836SOL     OW30117  10.190  12.600   0.546 -0.0244 -0.4693 -0.0088
70836SOL    HW130118  10.203  12.662   0.618 -0.3706  0.6749 -0.8942
70836SOL    HW230119  10.125  12.643   0.489  0.1915 -1.3707 -0.9638
70837SOL     OW30120   3.992   4.564   4.584 -0.5286 -0.3289  0.2589
70837SOL    HW130121   4.016   4.507   4.510 -0.7757 -0.1575  0.0433
70837SOL    HW230122   4.051   4.538   4.655  1.4994  1.1989 -0.7444
70838SOL     OW30123  10.872  12.403   2.276 -0.3613 -0.2169 -0.1421
70838SOL    HW130124  10.830  12.410   2.191  0.0865 -2.3009 -0.5954
70838SOL    HW230125  10.820  12.337   2.323 -0.2760  0.5048  0.9982
70839SOL     OW30126  13.250   5.907   5.714 -0.3267 -0.1628  0.4414
70839SOL    HW130127  13.271   5.916   5.621 -0.6292  0.3360  0.4190
70839SOL    HW230128  13.155   5.907   5.718 -0.3223 -0.6856  0.7089
70840SOL     OW30129   9.121   2.924   0.939  0.2503  0.3537 -0.1230
70840SOL    HW130130   9.075   2.890   1.016  0.4545  0.2705 -0.0354
70840SOL    HW230131   9.212   2.896   0.952  0.7507  2.1687  0.6963
70841SOL     OW30132   1.908   2.665   0.685  0.2195 -0.7982  0.1201
70841SOL    HW130133   1.818   2.680   0.655  0.0261 -1.7784  0.1750
70841SOL    HW230134   1.898   2.615   0.766  0.8111 -0.7664  0.2154
70842SOL     OW30135  11.571   2.561   0.504  0.5703 -0.8431 -0.0785
70842SOL    HW130136  11.576   2.588   0.596  2.0665 -0.9597 -0.0922
70842SOL    HW230137  11.642   2.497   0.494  1.6698  0.5552 -1.7562
70843SOL     OW30138   6.129   0.222   1.459 -0.1911  0.4142 -0.1489
70843SOL    HW130139   6.140   0.127   1.471 -0.9914  0.5239  1.9040
70843SOL    HW230140   6.161   0.239   1.371  0.4104 -1.6979 -0.3941
70844SOL     OW30141   0.521   8.282   6.640 -0.0421 -0.2277 -0.5456
70844SOL    HW130142   0.545   8.223   6.712  0.0179 -0.4479 -0.7465
70844SOL    HW230143   0.586   8.353   6.645 -0.8619  0.4832  0.4825
70845SOL     OW30144   0.869  11.673  13.029 -0.5150 -0.2313 -0.3091
70845SOL    HW130145   0.794  11.657  12.972 -0.4230 -0.0468 -0.4809
70845SOL    HW230146   0.837  11.652  13.117 -1.3278  1.6077 -0.1221
70846SOL     OW30147   5.083   8.442   1.157  0.3728  0.0062  0.4450
70846SOL    HW130148   5.088   8.480   1.070  0.5757  0.0767  0.4874
70846SOL    HW230149   5.001   8.476   1.194  0.6655  0.5787  0.5705
70847SOL     OW30150   0.839   1.675   5.904 -0.7148  0.7577  0.0847
70847SOL    HW130151   0.907   1.717   5.852 -0.9168  1.2364  0.2036
70847SOL    HW230152   0.778   1.640   5.839  0.8820 -1.8780 -0.1361
70848SOL     OW30153  13.959  10.442  10.646  0.3952  0.2911  0.4424
70848SOL    HW130154  13.901  10.497  10.594  0.5072 -0.6355 -0.6907
70848SOL    HW230155  13.902  10.403  10.712 -1.1197 -3.0659 -2.4923
70849SOL     OW30156   1.107   7.215  13.173 -0.1846  0.0093 -0.0234
70849SOL    HW130157   1.052   7.281  13.130 -2.0299 -0.4359  1.5345
70849SOL    HW230158   1.180   7.266  13.209  0.2330  0.6826 -1.6908
70850SOL     OW30159   1.936   6.301   5.695  0.3167  0.6697 -0.1421
70850SOL    HW130160   1.912   6.233   5.631  1.6862  0.2391 -0.2256
70850SOL    HW230161   1.866   6.297   5.761 -0.6567  0.5324 -1.1494
70851SOL     OW30162  13.066   5.751   8.469  0.2079 -0.7252 -0.0499
70851SOL    HW130163  13.026   5.794   8.544  1.2027 -0.5520  0.4013
70851SOL    HW230164  13.008   5.677   8.450 -0.4483 -0.3433  0.4111
70852SOL     OW30165   7.522   1.969   1.382  0.1282 -0.2268 -0.1963
70852SOL    HW130166   7.463   1.932   1.317 -0.7146 -0.2037  0.5389
70852SOL    HW230167   7.555   2.049   1.340 -0.5879 -0.0837 -0.5128
70853SOL     OW30168  11.626  10.008  13.858  1.0487  0.2853  0.2046
70853SOL    HW130169  11.548  10.037  13.905  1.2210 -0.9333  1.3170
70853SOL    HW230170  11.613  10.039  13.769 -0.7830  0.0098  0.3323
70854SOL     OW30171  11.481   3.784   9.594 -0.1861 -0.2991  0.4762
70854SOL    HW130172  11.437   3.849   9.540  0.1423  0.2665  0.8806
70854SOL    HW230173  11.420   3.766   9.666 -0.3171 -0.5100  0.3122
70855SOL     OW30174   5.906  10.108   9.445  0.0770 -0.4023 -0.0931
70855SOL    HW130175   5.819  10.075   9.468  0.1617 -0.1559  0.6023
70855SOL    HW230176   5.889  10.194   9.405  0.0072 -0.3031  0.1488
70856SOL     OW30177   6.199   9.813   6.405 -0.0005 -0.1862  0.6363
70856SOL    HW130178   6.250   9.860   6.339  0.7080 -0.8176  0.7193
70856SOL    HW230179   6.262   9.792   6.474 -0.9361  1.3849  2.0475
70857SOL     OW30180   3.757   4.531   9.978 -0.4768  0.0263  0.1915
70857SOL    HW130181   3.808   4.454   9.953 -0.8822 -0.3266  0.4306
70857SOL    HW230182   3.666   4.505   9.964 -0.6138  0.5132  0.1362
70858SOL     OW30183   5.824  10.784   0.058  0.0325 -0.2377 -0.0912
70858SOL    HW130184   5.902  10.749   0.102  1.0168 -0.7822 -2.1793
70858SOL    HW230185   5.858  10.829  -0.019 -1.6531  0.5846 -0.3867
70859SOL     OW30186  11.887   9.735   9.542  0.3171  0.2121  0.6699
70859SOL    HW130187  11.929   9.803   9.489 -1.0033 -0.5923 -1.5477
70859SOL    HW230188  11.795   9.759   9.544 -0.1220 -1.2963  0.1189
70860SOL     OW30189   8.961   9.700  12.995  0.2352  0.0520 -0.0215
70860SOL    HW130190   9.013   9.635  13.042 -2.2238 -1.4176  0.8672
70860SOL    HW230191   8.929   9.759  13.063 -0.4154  0.0666 -0.3283
70861SOL     OW30192   5.989   4.119  10.705 -0.5044 -0.2603  0.2819
70861SOL    HW130193   6.050   4.186  10.675  0.3618 -0.6993  1.0321
70861SOL    HW230194   6.043   4.055  10.751 -1.4174 -1.0948  0.2317
70862SOL     OW30195   8.960   2.803   1.892  0.0413 -0.3521  0.0110
70862SOL    HW130196   8.892   2.811   1.959 -0.7131 -0.8664 -0.6739
70862SOL    HW230197   8.975   2.709   1.885  1.0212 -0.2255  0.3427
70863SOL     OW30198   7.426  11.395  10.830  0.2601  0.1217  0.4132
70863SOL    HW130199   7.373  11.317  10.813 -1.7050  1.5862 -0.5399
70863SOL    HW230200   7.491  11.395  10.760 -1.5396  0.7790 -1.3742
70864SOL     OW30201  14.018   9.150   4.466 -0.1680 -0.2590  0.4008
70864SOL    HW130202  13.937   9.099   4.456 -0.5920  0.1044  1.7296
70864SOL    HW230203  13.988   9.234   4.503  0.7739  0.0682  0.4411
70865SOL     OW30204   8.192   1.866   7.687  0.4148 -0.3064 -0.0550
70865SOL    HW130205   8.253   1.873   7.614 -0.2415  0.7150 -0.5320
70865SOL    HW230206   8.238   1.812   7.752  1.8200  0.4246 -0.4007
70866SOL     OW30207   8.389   9.995   1.077  0.1806 -0.4013  0.1340
70866SOL    HW130208   8.474   9.989   1.121  1.3818  1.5917 -1.7069
70866SOL    HW230209   8.365  10.087   1.084 -2.1040 -1.0016  0.9720
70867SOL     OW30210  13.030  11.621   8.853  0.3353  0.4964  0.4994
70867SOL    HW130211  13.054  11.602   8.762  1.8634  2.5470  0.3962
70867SOL    HW230212  12.936  11.641   8.849  0.3785  0.5689 -0.6518
70868SOL     OW30213   7.009   8.674  10.664  0.0579  0.0239  0.1021
70868SOL    HW130214   7.051   8.597  10.624 -1.6240 -1.0657  0.3526
70868SOL    HW230215   6.937   8.696  10.606  0.0634  0.9633  0.4335
70869SOL     OW30216  11.624   0.892  13.566 -0.3172  0.1213  0.2483
70869SOL    HW130217  11.582   0.865  13.648  1.1788  0.2142  1.0664
70869SOL    HW230218  11.648   0.983  13.581  0.8079 -0.1398  0.0668
70870SOL     OW30219  13.544   5.821   4.291 -0.6703  0.0235 -0.8688
70870SOL    HW130220  13.529   5.730   4.316 -0.2887  0.1912  0.0041
70870SOL    HW230221  13.479   5.837   4.222 -2.0116 -0.3678  0.2483
70871SOL     OW30222  11.187   0.082   6.203 -0.8393 -0.6520  0.1123
70871SOL    HW130223  11.250   0.153   6.187 -2.1663  1.1873  2.3669
70871SOL    HW230224  11.145   0.068   6.119  0.5992  0.0794 -0.7676
70872SOL     OW30225  12.356   5.720   8.278  0.0602 -0.1749 -0.6560
70872SOL    HW130226  12.326   5.785   8.341 -0.7314 -1.8941  0.8239
70872SOL    HW230227  12.277   5.699   8.227 -0.0637 -1.0588 -0.1122
70873SOL     OW30228   5.625   5.032  11.239  0.1781 -0.2939 -0.1904
70873SOL    HW130229   5.708   4.990  11.217  1.2643 -0.5579  3.6690
70873SOL    HW230230   5.650   5.108  11.292 -1.9697 -1.0267  2.0738
70874SOL     OW30231   4.386  14.028   0.213  0.1680  0.2443  0.2499
70874SOL    HW130232   4.428  13.989   0.136  0.1290  0.9704 -0.1483
70874SOL    HW230233   4.354  14.113   0.182 -2.8176 -0.7889  0.1333
70875SOL     OW30234   4.067   1.391   0.901 -0.6594 -0.4189  0.2767
70875SOL    HW130235   4.055   1.311   0.850 -0.1294  0.0674 -0.6395
70875SOL    HW230236   4.014   1.457   0.855 -0.9612 -0.2080  0.9257
70876SOL     OW30237   1.460   6.179   9.904 -0.2129  0.0749  0.5123
70876SOL    HW130238   1.451   6.085   9.920 -2.5917  0.0801 -0.3930
70876SOL    HW230239   1.373   6.214   9.920 -0.1990  1.6125 -2.2803
70877SOL     OW30240   5.128  12.012   1.936  0.4191 -0.5794  0.4063
70877SOL    HW130241   5.047  11.999   1.887  0.3925  1.7198 -0.2790
70877SOL    HW230242   5.196  12.022   1.869  0.7242  0.5867  0.8587
70878SOL     OW30243   4.163  11.731  10.812  0.4628  0.0137  0.1091
70878SOL    HW130244   4.087  11.673  10.819 -0.3129  0.9430 -0.3697
70878SOL    HW230245   4.238  11.671  10.813 -0.3023 -1.0051 -0.3220
70879SOL     OW30246   0.190  13.178   2.779  0.1246 -0.3612 -0.0963
70879SOL    HW130247   0.202  13.214   2.867 -2.0268 -1.1593  0.5689
70879SOL    HW230248   0.196  13.254   2.722 -0.1776  0.4310  0.8908
70880SOL     OW30249  10.735   5.061   7.103 -0.2733  0.1233 -0.1614
70880SOL    HW130250  10.729   5.157   7.105  1.5186  0.2646  0.7451
70880SOL    HW230251  10.780   5.042   7.021 -1.9411 -0.0808 -1.0683
70881SOL     OW30252   2.501   5.499   5.808 -0.2620  0.2482  0.4421
70881SOL    HW130253   2.550   5.434   5.859 -1.5840 -0.2364  1.1321
70881SOL    HW230254   2.513   5.471   5.717 -0.0682 -0.4290  0.6672
70882SOL     OW30255   5.944   8.872   4.730  0.1015 -0.7172 -0.0630
70882SOL    HW130256   6.026   8.836   4.698 -0.8705 -1.3719 -1.9132
70882SOL    HW230257   5.917   8.934   4.663 -0.4230  0.3103  1.0422
70883SOL     OW30258  12.841   9.217  13.745  0.0137  0.1611  0.2185
70883SOL    HW130259  12.758   9.186  13.707 -0.1150  0.1951  0.4719
70883SOL    HW230260  12.895   9.138  13.752 -0.1578  0.0668  0.4660
70884SOL     OW30261  12.549  11.056   8.004  0.1493  0.1597  0.9356
70884SOL    HW130262  12.466  11.080   8.045  0.9704  0.6860  2.3588
70884SOL    HW230263  12.551  10.960   8.007 -1.1909  0.0268 -0.7876
70885SOL     OW30264   8.115   3.364   0.705  0.3471  0.5252  0.2366
70885SOL    HW130265   8.023   3.392   0.703  0.7451  1.8393 -0.7561
70885SOL    HW230266   8.159   3.428   0.761  0.9233  0.7717 -0.4876
70886SOL     OW30267   4.908  13.547  10.684  0.1214 -0.4838 -0.2291
70886SOL    HW130268   4.930  13.528  10.775 -0.0635 -1.9480 -0.4643
70886SOL    HW230269   4.984  13.517  10.634  0.0042 -0.1748 -0.6005
70887SOL     OW30270  11.182   1.081   0.890  0.3002 -0.5716 -0.1206
70887SOL    HW130271  11.227   1.158   0.924  0.1351  0.1994 -1.5682
70887SOL    HW230272  11.248   1.011   0.895  1.1207  0.1412 -0.6521
70888SOL     OW30273   7.832   1.138  10.847 -0.2557 -0.4680  0.4369
70888SOL    HW130274   7.909   1.107  10.799  1.2826  3.4662  0.0526
70888SOL    HW230275   7.758   1.112  10.792  1.1894  0.4448 -2.0949
70889SOL     OW30276   7.613   5.027  12.493 -0.2006 -0.4386 -0.1807
70889SOL    HW130277   7.532   5.075  12.474 -0.7316 -1.6537 -1.0474
70889SOL    HW230278   7.596   4.938  12.463  1.7809 -0.5163 -1.2308
70890SOL     OW30279   0.475   6.209   7.976 -0.2869 -0.5227  1.1679
70890SOL    HW130280   0.492   6.118   8.001  0.4470 -0.6794  0.1625
70890SOL    HW230281   0.414   6.202   7.903 -0.2105 -0.2100  1.0748
70891SOL     OW30282  13.801   4.051   3.631 -0.1253 -0.3198  0.2994
70891SOL    HW130283  13.887   4.038   3.590  0.1992 -0.4211  1.0112
70891SOL    HW230284  13.780   3.966   3.670  0.5194  0.3184  2.1341
70892SOL     OW30285   0.238   4.572  13.376  0.0836 -0.5466 -0.2790
70892SOL    HW130286   0.302   4.556  13.445 -1.8729 -3.7086  1.0096
70892SOL    HW230287   0.271   4.524  13.300 -0.5804 -2.0583  0.3433
70893SOL     OW30288  13.448   4.926   5.441  0.6435  0.3013  0.1619
70893SOL    HW130289  13.397   4.891   5.368 -0.7292 -1.4141  1.8539
70893SOL    HW230290  13.418   5.016   5.451 -1.4993 -0.4167  0.5815
70894SOL     OW30291   3.971  10.377   5.469 -0.4813 -0.5097 -0.2950
70894SOL    HW130292   3.993  10.344   5.556  1.1961 -0.4751 -0.6742
70894SOL    HW230293   4.055  10.382   5.423 -0.6439  3.6659 -0.5015
70895SOL     OW30294   6.170   5.555   3.981 -1.1605 -0.0473 -0.0510
70895SOL    HW130295   6.079   5.526   3.974 -0.5998 -1.7308 -0.7806
70895SOL    HW230296   6.202   5.555   3.891 -0.2453 -0.0949  0.2666
70896SOL     OW30297  11.607   2.390   5.321 -0.2167 -0.0461  0.6323
70896SOL    HW130298  11.613   2.344   5.237 -0.9298 -0.3595  0.7460
70896SOL    HW230299  11.695   2.425   5.336  0.1337 -0.7206  0.1722
70897SOL     OW30300   2.229  10.160   8.447 -0.0967  0.5221 -0.2768
70897SOL    HW130301   2.294  10.095   8.473 -0.1364  0.4113 -0.4498
70897SOL    HW230302   2.175  10.172   8.525  0.0995  0.5774 -0.1494
70898SOL     OW30303   2.380   2.731   9.641  0.1476 -0.4328  0.2566
70898SOL    HW130304   2.308   2.690   9.688  0.6260 -1.2448  0.3000
70898SOL    HW230305   2.338   2.797   9.585 -0.4294  0.5925  1.8212
70899SOL     OW30306   3.053   7.841  12.277 -0.3052 -0.0232  0.0129
70899SOL    HW130307   3.115   7.910  12.298  0.2997 -0.8962  1.2313
70899SOL    HW230308   2.974   7.887  12.246  0.2731  1.1614  0.2572
70900SOL     OW30309  11.969   2.757   4.678  0.5383  0.0025  0.0474
70900SOL    HW130310  12.039   2.711   4.633  1.1852  0.5840  0.4261
70900SOL    HW230311  11.896   2.696   4.679  1.4798 -1.1499  0.8480
70901SOL     OW30312   1.327   1.665   5.039  0.3777  0.3233 -0.2834
70901SOL    HW130313   1.297   1.650   4.949 -3.3629 -1.7455  1.1053
70901SOL    HW230314   1.336   1.578   5.077  2.4346  1.1277  1.2669
70902SOL     OW30315  11.902   6.951  10.588  0.6865 -0.1029  0.3365
70902SOL    HW130316  11.968   7.011  10.622  0.9398 -0.3310  0.2561
70902SOL    HW230317  11.824   7.005  10.577  0.1541 -0.2952  2.6215
70903SOL     OW30318   4.213   3.950   7.301 -0.1051  0.1496  0.0248
70903SOL    HW130319   4.148   3.895   7.258  0.0798 -0.0109 -0.0540
70903SOL    HW230320   4.255   3.892   7.365 -0.4661  0.4203  0.5129
70904SOL     OW30321   1.425   9.661  12.946 -0.4835  0.1546 -0.0351
70904SOL    HW130322   1.412   9.686  13.037  2.7267 -0.0072  0.5974
70904SOL    HW230323   1.493   9.594  12.949 -1.2682 -0.8791 -2.4924
70905SOL     OW30324  13.826  10.721   7.566 -0.3939  0.0653  0.0519
70905SOL    HW130325  13.811  10.811   7.538  0.2366  0.6909  1.6189
70905SOL    HW230326  13.870  10.680   7.491 -0.1597  1.2203 -0.4698
70906SOL     OW30327   8.312  10.864   7.160  0.5072 -0.1772 -0.3051
70906SOL    HW130328   8.327  10.922   7.235 -0.2730 -1.1509  0.6513
70906SOL    HW230329   8.276  10.784   7.199 -0.0930 -0.6443 -1.7528
70907SOL     OW30330   0.570  10.165  10.929 -0.1110  0.7996  0.0086
70907SOL    HW130331   0.515  10.144  10.854 -2.7620  0.5354  1.8524
70907SOL    HW230332   0.514  10.146  11.005  1.9668  2.2314  2.0347
70908SOL     OW30333  12.537  10.884   6.023  0.1036 -0.1595  0.8752
70908SOL    HW130334  12.521  10.910   6.114 -0.2305  0.6750  0.5738
70908SOL    HW230335  12.611  10.937   5.996  0.5543 -0.7975  0.8188
70909SOL     OW30336   9.227   2.420   6.408  0.0489 -1.0373  0.6640
70909SOL    HW130337   9.173   2.496   6.388  1.0025 -0.7584 -1.0618
70909SOL    HW230338   9.317   2.449   6.389  0.5837 -2.1592  1.3607
70910SOL     OW30339   6.692  11.799   4.383 -0.3787  0.1490  0.2057
70910SOL    HW130340   6.751  11.724   4.376 -0.8118 -0.3026  1.2587
70910SOL    HW230341   6.609  11.768   4.346 -0.8121 -0.1902  1.4225
70911SOL     OW30342   4.943  13.495   0.856  0.4229  0.2025 -0.3317
70911SOL    HW130343   5.016  13.506   0.917 -0.2854  0.3137  0.5170
70911SOL    HW230344   4.865  13.506   0.910 -0.2258  0.1127 -1.2309
70912SOL     OW30345   7.283   2.739   2.220  0.0192  0.0904 -0.1338
70912SOL    HW130346   7.218   2.807   2.200  0.5555  0.8118  0.5058
70912SOL    HW230347   7.294   2.744   2.315  0.0624 -0.9154 -0.0747
70913SOL     OW30348   3.231   7.832   4.238  0.3462  0.2206  0.3778
70913SOL    HW130349   3.235   7.882   4.320  0.5130  0.0599  0.4676
70913SOL    HW230350   3.293   7.876   4.180  1.8850 -0.9661  1.0555
70914SOL     OW30351   0.868   7.294   3.364  0.3345 -0.2861  0.3486
70914SOL    HW130352   0.896   7.380   3.396 -0.9724  0.5706 -0.7142
70914SOL    HW230353   0.946   7.239   3.372  1.4001  1.1731  0.3976
70915SOL     OW30354   1.290  11.163   0.188 -0.2639  0.3409  0.3862
70915SOL    HW130355   1.350  11.093   0.161  1.3513  2.0843 -0.7318
70915SOL    HW230356   1.203  11.127   0.170  0.5507 -0.8858 -1.5050
70916SOL     OW30357   8.584   0.202  12.632  0.4814  0.2573 -0.0737
70916SOL    HW130358   8.513   0.178  12.573 -0.4491  0.7526  0.8172
70916SOL    HW230359   8.654   0.140  12.611  0.2945  0.6064 -1.8804
70917SOL     OW30360   7.089  13.185  12.771 -0.9936  0.0807 -0.1765
70917SOL    HW130361   7.156  13.137  12.820 -2.0032 -1.5387 -0.2896
70917SOL    HW230362   7.128  13.271  12.754 -0.0493  0.2042  2.1977
70918SOL     OW30363  13.626   7.561   3.401 -0.1951  0.5065 -0.2273
70918SOL    HW130364  13.622   7.633   3.337 -0.6090 -1.2091 -2.2356
70918SOL    HW230365  13.545   7.513   3.388 -0.1849 -0.0400  1.4900
70919SOL     OW30366   0.542   4.506  12.188  0.1927  0.1876  0.1349
70919SOL    HW130367   0.481   4.536  12.121  0.4099  2.4985  0.9096
70919SOL    HW230368   0.607   4.454  12.139 -0.7542  0.1165 -1.1086
70920SOL     OW30369  11.461   6.863   6.075 -0.3025  0.2064 -0.4454
70920SOL    HW130370  11.500   6.854   6.162 -0.7444  1.1172 -0.1428
70920SOL    HW230371  11.379   6.910   6.089  0.0246  1.1399 -1.4395
70921SOL     OW30372   9.743   6.851   0.853 -0.3559 -0.2651  0.0589
70921SOL    HW130373   9.661   6.860   0.902  0.2847 -1.6606  1.4690
70921SOL    HW230374   9.793   6.786   0.901  2.0859  1.3480 -0.1237
70922SOL     OW30375   4.411  11.698  10.127 -0.2590 -0.6445  0.0980
70922SOL    HW130376   4.412  11.621  10.070 -2.9011 -1.2118  0.6822
70922SOL    HW230377   4.391  11.663  10.214 -0.1241  0.5759  0.6449
70923SOL     OW30378   5.875  11.083   8.032  0.1699 -0.6537  0.5766
70923SOL    HW130379   5.922  11.067   8.114  0.6751 -0.8283  0.2559
70923SOL    HW230380   5.812  11.151   8.054  0.3722 -0.6258  1.0889
70924SOL     OW30381   4.909   0.252   5.613  0.2058  0.1920 -0.6196
70924SOL    HW130382   4.861   0.172   5.636 -0.2870  1.0625  1.6271
70924SOL    HW230383   4.995   0.239   5.652  0.2356  0.6140 -0.5475
70925SOL     OW30384  13.067   5.464   7.547  0.1358  0.2586  0.3095
70925SOL    HW130385  13.124   5.486   7.474 -0.3197 -0.5222 -0.3022
70925SOL    HW230386  13.027   5.547   7.573 -0.0038  0.4862 -0.5993
70926SOL     OW30387   5.422   5.657   4.936 -0.1521 -0.2015 -0.3436
70926SOL    HW130388   5.331   5.677   4.958  0.0677  0.6393 -0.1626
70926SOL    HW230389   5.419   5.568   4.902 -0.9959 -0.2977 -0.0426
70927SOL     OW30390   9.687   1.853  14.064  0.0708 -0.0112 -0.0118
70927SOL    HW130391   9.612   1.906  14.089 -0.8975 -0.6417 -1.4177
70927SOL    HW230392   9.649   1.777  14.019  1.5629  0.2072 -1.7846
70928SOL     OW30393   0.904  10.104   3.141  0.8503 -0.3113  0.3017
70928SOL    HW130394   0.959  10.176   3.109 -1.1999  1.1936 -0.0228
70928SOL    HW230395   0.898  10.119   3.235  0.2801  0.0623  0.2095
70929SOL     OW30396   9.893  12.692   3.501  0.4394  0.3640 -0.1125
70929SOL    HW130397   9.805  12.671   3.530  0.1815 -0.9528 -1.7117
70929SOL    HW230398   9.947  12.685   3.579 -0.6212 -0.4298  0.5618
70930SOL     OW30399   5.463  13.189  13.092  0.0655  0.6332  0.2094
70930SOL    HW130400   5.400  13.156  13.028 -0.8979 -0.3221  1.5655
70930SOL    HW230401   5.548  13.163  13.058 -0.4622 -0.3774 -0.3926
70931SOL     OW30402   8.277  10.318   5.807 -0.4893 -0.0872 -0.2161
70931SOL    HW130403   8.224  10.299   5.730 -0.9443  0.9471 -0.1751
70931SOL    HW230404   8.244  10.402   5.839  1.3075  0.6863 -0.2905
70932SOL     OW30405   0.617  13.154   8.535 -0.0091  0.6097 -0.1156
70932SOL    HW130406   0.639  13.131   8.625 -0.2942 -1.5087 -0.5340
70932SOL    HW230407   0.526  13.126   8.525  0.1296  0.4798 -1.1491
70933SOL     OW30408   6.243   1.437   2.550 -0.2262  0.3208  0.0134
70933SOL    HW130409   6.234   1.502   2.480  0.9989  1.4781  0.8727
70933SOL    HW230410   6.156   1.431   2.589 -0.2735  1.7581  0.1720
70934SOL     OW30411  13.107  12.312  12.769 -0.8803  0.3096 -0.5925
70934SOL    HW130412  13.122  12.355  12.853  0.6104 -0.6067 -0.3498
70934SOL    HW230413  13.106  12.383  12.705 -1.4689  0.9624  0.1232
70935SOL     OW30414   4.853  13.757   1.445  0.0132 -0.0046 -0.1860
70935SOL    HW130415   4.928  13.816   1.436 -0.2784  0.2759 -0.8243
70935SOL    HW230416   4.810  13.759   1.359  0.8684 -2.3349 -0.7696
70936SOL     OW30417   6.824   0.562   7.862  0.0043 -0.2460  0.1540
70936SOL    HW130418   6.906   0.526   7.827 -0.1649  0.6245 -1.1997
70936SOL    HW230419   6.786   0.610   7.789 -1.2513  0.1697  1.0532
70937SOL     OW30420   0.809  10.943   8.485 -0.1059 -0.2965  0.1611
70937SOL    HW130421   0.853  10.966   8.403 -0.3816  1.5412  0.4897
70937SOL    HW230422   0.721  10.917   8.458  0.5382 -2.1523 -0.3174
70938SOL     OW30423   3.485   0.947   0.427 -0.0515 -0.3637  0.0278
70938SOL    HW130424   3.460   1.020   0.371  0.8339  0.7781  1.0401
70938SOL    HW230425   3.430   0.874   0.399 -1.6875  0.9697 -0.3520
70939SOL     OW30426   2.701  11.031   3.518  0.1040  0.1928  0.0923
70939SOL    HW130427   2.769  10.965   3.504 -0.0888 -0.2241  1.0217
70939SOL    HW230428   2.745  11.102   3.563 -0.3741 -0.7646  2.1765
70940SOL     OW30429   7.853   2.088   5.896 -0.4226  0.4000 -0.2486
70940SOL    HW130430   7.839   2.183   5.902  1.4346  0.6934  0.0652
70940SOL    HW230431   7.825   2.065   5.808 -1.0350  1.2152 -0.2774
70941SOL     OW30432   6.523   2.570   0.075 -0.0442  0.3594  0.4880
70941SOL    HW130433   6.473   2.526   0.144  1.3078  0.0966  1.3462
70941SOL    HW230434   6.545   2.501   0.013 -0.0733  0.3178  0.5239
70942SOL     OW30435  10.311   1.854   2.900 -0.0410 -0.1201  0.4348
70942SOL    HW130436  10.296   1.943   2.868  0.0223 -0.4692 -0.5798
70942SOL    HW230437  10.299   1.861   2.995 -3.4585  0.3256  0.1269
70943SOL     OW30438   6.825   0.941   4.796 -0.2767 -0.4157 -0.2890
70943SOL    HW130439   6.845   0.990   4.876  0.0975 -0.9146 -0.0717
70943SOL    HW230440   6.842   0.850   4.819 -1.0734 -0.6681 -0.6585
70944SOL     OW30441   2.001   1.627  10.283  0.0746  0.4468 -0.0230
70944SOL    HW130442   1.922   1.582  10.311  0.3548  0.7903  1.4221
70944SOL    HW230443   2.072   1.585  10.332  0.7450  0.3786 -1.0241
70945SOL     OW30444   0.773   7.664   5.873  0.2007  0.2816 -1.0095
70945SOL    HW130445   0.678   7.669   5.859  0.0873 -1.0924 -0.7982
70945SOL    HW230446   0.784   7.679   5.967  0.1595  0.0862 -0.9731
70946SOL     OW30447   4.712   4.752   2.533  0.3586 -0.0162 -0.3224
70946SOL    HW130448   4.700   4.820   2.466 -0.1273 -0.7752 -1.0139
70946SOL    HW230449   4.628   4.748   2.579  0.9762  1.1804  1.0207
70947SOL     OW30450   6.367   2.582   9.259  0.1359 -0.0161 -0.2250
70947SOL    HW130451   6.291   2.600   9.315 -1.8578 -1.4564 -2.2977
70947SOL    HW230452   6.407   2.503   9.298 -0.0062  0.1707  0.3121
70948SOL     OW30453  12.125  10.273   1.799  0.1542  0.4756 -0.6479
70948SOL    HW130454  12.184  10.343   1.773  1.2146 -0.6477 -1.4078
70948SOL    HW230455  12.159  10.243   1.883  0.3703  0.1738 -0.8388
70949SOL     OW30456  11.542   2.989  13.478  0.5795 -0.3132  0.3592
70949SOL    HW130457  11.506   2.905  13.507 -0.6188  0.0807  0.0822
70949SOL    HW230458  11.634   2.987  13.505 -0.1909 -0.3671  3.3654
70950SOL     OW30459   0.214   2.397   9.647 -0.0750  0.1921 -0.0006
70950SOL    HW130460   0.147   2.409   9.714 -0.0132  1.5929 -0.1636
70950SOL    HW230461   0.225   2.484   9.608  0.3866 -0.4467 -1.3565
70951SOL     OW30462   0.299   4.182  10.035  0.3542 -0.4471 -0.0836
70951SOL    HW130463   0.260   4.255   9.987  2.0062  0.9261  0.5619
70951SOL    HW230464   0.232   4.115  10.034 -2.2449  1.9193  1.3651
70952SOL     OW30465   2.999   7.118   8.346  0.2955 -0.5677  0.3382
70952SOL    HW130466   2.935   7.168   8.397  0.1219 -3.5296  3.3871
70952SOL    HW230467   2.948   7.078   8.276 -0.3277  0.2123  0.3290
70953SOL     OW30468   7.158   0.958   3.587  0.0689 -0.1977  0.1346
70953SOL    HW130469   7.117   1.043   3.570 -0.2194 -0.3444  0.0901
70953SOL    HW230470   7.231   0.954   3.525  0.7214  0.4583  0.8432
70954SOL     OW30471   6.854   2.094   3.446 -0.5406 -0.2477 -0.3556
70954SOL    HW130472   6.834   2.179   3.407 -3.4782 -1.4085 -1.6667
70954SOL    HW230473   6.841   2.107   3.540 -1.8798  0.5579 -0.6283
70955SOL     OW30474  13.399  11.582   4.743 -0.1899  0.6453  0.4293
70955SOL    HW130475  13.344  11.564   4.666 -1.3995  0.1612  1.3784
70955SOL    HW230476  13.455  11.654   4.716 -1.6894  1.5472 -0.3902
70956SOL     OW30477  11.597  10.157   3.506 -0.3131  0.3150  0.2075
70956SOL    HW130478  11.640  10.082   3.545 -1.1406  0.4852  1.4866
70956SOL    HW230479  11.660  10.229   3.515  0.3743 -0.1342 -0.7903
70957SOL     OW30480   7.823   8.664   5.591  0.6707 -0.2467  0.4560
70957SOL    HW130481   7.857   8.625   5.672  3.3099 -1.0398 -0.9371
70957SOL    HW230482   7.812   8.590   5.531 -0.7504  0.3981 -0.1373
70958SOL     OW30483   0.519   1.915   9.782 -0.1791  0.5522  0.1624
70958SOL    HW130484   0.489   1.842   9.836  0.6831 -0.0568 -0.1662
70958SOL    HW230485   0.438   1.962   9.759 -0.5812  0.7499  1.8376
70959SOL     OW30486  13.476   9.638   1.089 -0.3466 -0.4365  0.7350
70959SOL    HW130487  13.477   9.629   0.994 -1.5054 -1.4174  0.7929
70959SOL    HW230488  13.568   9.644   1.113  0.0119 -1.1908 -0.3652
70960SOL     OW30489  11.499  12.510  11.773 -0.2431 -0.6463  0.1418
70960SOL    HW130490  11.522  12.601  11.792 -0.3253 -0.8670  1.3735
70960SOL    HW230491  11.411  12.500  11.811 -0.3877 -1.1453 -0.3137
70961SOL     OW30492   6.723  11.733   3.009 -0.1042 -0.0571 -0.5016
70961SOL    HW130493   6.686  11.746   3.096 -0.7665 -0.4022 -0.7263
70961SOL    HW230494   6.764  11.647   3.012  0.3376  0.1519 -0.3786
70962SOL     OW30495  12.445   8.737   9.237  0.7074 -0.1289 -0.1170
70962SOL    HW130496  12.386   8.728   9.163 -1.7322  1.2639  1.5383
70962SOL    HW230497  12.411   8.676   9.303  2.7692 -1.2767 -0.0091
70963SOL     OW30498   0.984  12.751  12.432  0.3897  0.3703  0.6658
70963SOL    HW130499   0.914  12.686  12.435  0.3333  0.2545 -1.3645
70963SOL    HW230500   0.953  12.824  12.486 -0.3885 -0.4944  1.4027
70964SOL     OW30501   8.717  13.418   7.160 -0.5087  0.1511  0.4681
70964SOL    HW130502   8.681  13.503   7.185 -0.7601 -0.4458  2.3246
70964SOL    HW230503   8.641  13.367   7.133 -0.5520  0.0628  0.7577
70965SOL     OW30504   1.997   2.684  13.263 -0.0572 -0.1153 -0.0258
70965SOL    HW130505   1.967   2.598  13.293 -2.6502  0.2358 -1.3252
70965SOL    HW230506   1.962   2.746  13.327 -0.6150  0.1738 -0.6016
70966SOL     OW30507   3.441  12.157   2.314  0.0777  0.3604  0.0497
70966SOL    HW130508   3.403  12.244   2.329  1.3833  1.1882 -1.2518
70966SOL    HW230509   3.374  12.110   2.264 -0.4990  0.7204  0.4675
70967SOL     OW30510   8.416  10.584  13.794  0.0726  0.6837 -0.2055
70967SOL    HW130511   8.510  10.601  13.802 -0.0013  1.3574 -0.6894
70967SOL    HW230512   8.375  10.670  13.802 -0.5629  0.3093  0.7416
70968SOL     OW30513   7.467   4.860  12.759 -0.6923  0.2580 -0.4273
70968SOL    HW130514   7.494   4.928  12.698  0.1473 -0.3092 -0.7031
70968SOL    HW230515   7.524   4.785  12.740 -0.7088 -0.0863  0.7438
70969SOL     OW30516   6.168   1.114   9.490  0.4353  0.1468 -0.0819
70969SOL    HW130517   6.080   1.138   9.520  0.5384  0.6871 -0.2024
70969SOL    HW230518   6.154   1.077   9.403 -0.0571 -2.9005  1.1607
70970SOL     OW30519   4.149   0.449  13.626 -0.0570  0.2608  0.1333
70970SOL    HW130520   4.132   0.437  13.532 -1.3645  1.8267  0.1185
70970SOL    HW230521   4.087   0.391  13.669  0.1244 -0.0055  0.0382
70971SOL     OW30522  13.096  13.078   3.422 -0.3160 -0.4240  0.1497
70971SOL    HW130523  13.138  13.001   3.385 -1.0470 -1.4203  1.3314
70971SOL    HW230524  13.168  13.134   3.451  0.2401 -0.2187 -1.5058
70972SOL     OW30525  12.430   7.897   7.381  0.5843  0.3592 -0.5119
70972SOL    HW130526  12.498   7.880   7.316  2.1752  0.0436  1.1414
70972SOL    HW230527  12.477   7.904   7.464 -1.4203  0.0430  0.7312
70973SOL     OW30528   1.177   5.682   9.559  0.1162  0.0387  0.0850
70973SOL    HW130529   1.157   5.757   9.616 -1.0644  0.2361 -0.5603
70973SOL    HW230530   1.272   5.672   9.566  0.3781  1.8798 -0.1459
70974SOL     OW30531  13.586  11.204  11.094 -0.3564  0.0497 -0.3489
70974SOL    HW130532  13.553  11.220  11.005 -1.9126  1.9523  0.4943
70974SOL    HW230533  13.516  11.156  11.138  0.4071 -0.8755 -0.1124
70975SOL     OW30534   7.635   0.548   9.375  0.1347  0.0620 -0.0195
70975SOL    HW130535   7.695   0.488   9.420 -0.2612 -0.5611 -0.2942
70975SOL    HW230536   7.571   0.572   9.442 -0.6564 -1.1395 -0.3003
70976SOL     OW30537   0.755   3.908  13.488  0.0847 -0.9183 -0.0974
70976SOL    HW130538   0.686   3.851  13.454  0.2417 -1.9115  1.1593
70976SOL    HW230539   0.778   3.965  13.415 -1.5580 -1.0540 -0.7540
70977SOL     OW30540   0.836   8.529  13.256 -0.0623  0.5693  0.5026
70977SOL    HW130541   0.775   8.587  13.210  0.3665  0.0476 -0.7848
70977SOL    HW230542   0.812   8.441  13.227  1.8818  0.4172 -0.8084
70978SOL     OW30543   6.773   2.808   1.859  0.0707  0.1973 -0.8849
70978SOL    HW130544   6.791   2.889   1.908  0.5833  1.1632 -2.6004
70978SOL    HW230545   6.795   2.829   1.769  0.1851 -1.8813 -1.3849
70979SOL     OW30546   3.609   2.126   7.344  0.3949 -0.4303 -0.1891
70979SOL    HW130547   3.575   2.129   7.255  0.6076  0.4697 -0.2481
70979SOL    HW230548   3.702   2.144   7.335  0.2153  0.8489  0.3067
70980SOL     OW30549   1.437   6.354  11.941 -0.1209  0.4432  0.6286
70980SOL    HW130550   1.495   6.365  12.016 -1.4626  1.9065  1.5224
70980SOL    HW230551   1.389   6.273  11.959  0.2769  0.2609  0.8580
70981SOL     OW30552   9.551   5.948  13.437 -0.3357 -0.5217 -0.2895
70981SOL    HW130553   9.500   6.012  13.487  1.0166 -0.5109  1.1817
70981SOL    HW230554   9.500   5.867  13.443 -0.9946 -0.1065 -0.2733
70982SOL     OW30555  13.569   6.962   7.715  0.3784  0.4209  0.4062
70982SOL    HW130556  13.625   6.965   7.793  0.2913  0.8135  0.4537
70982SOL    HW230557  13.480   6.975   7.749  0.2801  0.0389  0.3030
70983SOL     OW30558   2.005   4.215   8.914 -0.1603  0.6570  0.0025
70983SOL    HW130559   2.056   4.238   8.837  1.0043 -0.0936  0.5157
70983SOL    HW230560   2.027   4.282   8.978  0.9610 -0.1649  0.5293
70984SOL     OW30561  11.578   3.084   6.338 -0.4253  0.0578  0.2971
70984SOL    HW130562  11.628   3.166   6.336 -1.3678  0.6471 -0.0547
70984SOL    HW230563  11.546   3.079   6.428 -1.1787  0.5996  0.0705
70985SOL     OW30564   8.063   6.672  13.724  0.5243  0.3058 -0.1060
70985SOL    HW130565   8.018   6.675  13.640  2.6942  0.3573 -1.3205
70985SOL    HW230566   8.090   6.762  13.741 -1.3196  0.6212  1.5233
70986SOL     OW30567   1.053   5.538  11.767  0.5559 -0.0568  0.3830
70986SOL    HW130568   0.979   5.578  11.813  1.8011  0.9566  1.6085
70986SOL    HW230569   1.021   5.453  11.738 -1.6266  1.0403 -0.6881
70987SOL     OW30570   4.900  12.919   5.011  0.1532  0.5218  0.2795
70987SOL    HW130571   4.993  12.941   5.018  0.6640 -0.4532 -2.2996
70987SOL    HW230572   4.863  12.990   4.958 -0.1878 -0.0140 -0.1999
70988SOL     OW30573   0.115   9.308   3.595  0.3159 -0.0196 -0.6648
70988SOL    HW130574   0.075   9.280   3.513 -0.3207  1.6986 -0.9887
70988SOL    HW230575   0.043   9.313   3.657  0.1457  1.9734 -0.9447
70989SOL     OW30576   9.758   5.090   6.009  0.2999  0.3566 -0.3822
70989SOL    HW130577   9.763   5.167   6.064 -1.2934 -0.2922  0.7506
70989SOL    HW230578   9.698   5.031   6.055  0.2502 -0.9180 -1.9725
70990SOL     OW30579  13.541   5.841   8.826 -0.0778 -0.0248 -0.1234
70990SOL    HW130580  13.616   5.862   8.771 -0.9522 -0.1275 -1.3911
70990SOL    HW230581  13.541   5.746   8.832 -0.8488 -0.1124 -1.2348
70991SOL     OW30582   7.381   0.537   4.559 -0.1212 -0.3702 -0.6047
70991SOL    HW130583   7.292   0.509   4.537  0.1560 -1.6711 -0.1409
70991SOL    HW230584   7.430   0.527   4.477 -0.1329 -0.8040 -0.5600
70992SOL     OW30585  13.548   1.877  11.106 -0.4986 -0.2997 -0.3369
70992SOL    HW130586  13.575   1.820  11.034  0.0291 -0.6637  0.1450
70992SOL    HW230587  13.566   1.826  11.185  1.0895  0.9694  0.1730
70993SOL     OW30588  10.398   1.332   3.915  0.1187  0.2119  0.1688
70993SOL    HW130589  10.323   1.388   3.934 -0.5661 -1.0761  1.5227
70993SOL    HW230590  10.360   1.255   3.872  0.6917 -0.3166  0.5966
70994SOL     OW30591   9.663   4.905   1.523 -0.3241 -0.0008  0.1636
70994SOL    HW130592   9.574   4.938   1.530  0.4742  1.9549  2.0806
70994SOL    HW230593   9.707   4.968   1.465 -0.0460 -0.6937 -0.3975
70995SOL     OW30594   9.875  11.440   4.338  0.5795 -0.3868  0.1058
70995SOL    HW130595   9.851  11.495   4.412  0.9444  1.2848 -0.9687
70995SOL    HW230596   9.792  11.403   4.307  0.3554 -0.6204  0.9542
70996SOL     OW30597   1.522  12.782   1.747 -0.3058 -0.3416  0.4439
70996SOL    HW130598   1.492  12.723   1.816 -1.0802 -0.9191 -0.3511
70996SOL    HW230599   1.535  12.866   1.790 -0.4883 -0.7640  1.3428
70997SOL     OW30600   7.402   7.093   3.704 -0.3025 -0.1925  0.6991
70997SOL    HW130601   7.358   7.175   3.684  2.8411  1.1963 -1.3045
70997SOL    HW230602   7.401   7.044   3.622  0.3215 -0.9114  1.1004
70998SOL     OW30603   3.458  13.689   9.858  0.0330 -0.1595 -0.3074
70998SOL    HW130604   3.549  13.674   9.831  0.3056  0.9975 -0.0994
70998SOL    HW230605   3.438  13.617   9.917  1.0178 -0.0988  0.1216
70999SOL     OW30606   2.970   5.671  11.278  0.7264  0.9676 -0.3277
70999SOL    HW130607   3.040   5.691  11.216  1.5684 -1.6868 -0.3498
70999SOL    HW230608   2.952   5.754  11.323  2.1688  2.2466 -2.0219
71000SOL     OW30609  11.204   9.721   4.574  0.5941  0.1910  0.5213
71000SOL    HW130610  11.170   9.782   4.640 -0.1883  0.5281 -0.1878
71000SOL    HW230611  11.237   9.647   4.625  0.3527  0.6196  1.3183
71001SOL     OW30612   0.322   1.427  11.879  0.5036  0.1924  0.2516
71001SOL    HW130613   0.323   1.367  11.805  1.2126 -0.9506  1.1507
71001SOL    HW230614   0.231   1.456  11.885  0.3374 -0.0636 -0.7540
71002SOL     OW30615  13.413   9.936   6.541 -0.2212  0.1613  0.1706
71002SOL    HW130616  13.434   9.945   6.448 -0.4022 -1.4389 -0.0584
71002SOL    HW230617  13.497   9.945   6.586  0.5436 -2.7676 -0.4691
71003SOL     OW30618  10.648   6.365   3.621 -0.2501 -0.3695 -0.1247
71003SOL    HW130619  10.698   6.297   3.576 -0.3205  0.2756 -1.2103
71003SOL    HW230620  10.671   6.446   3.575 -1.0426  0.1741  0.4131
71004SOL     OW30621  10.086   9.712   1.731  0.5474  0.2724  0.1300
71004SOL    HW130622  10.120   9.707   1.641 -2.0613  2.6504 -1.1402
71004SOL    HW230623  10.098   9.803   1.756 -0.1469 -0.0126  1.6044
71005SOL     OW30624   6.333   5.059   4.079  0.3432  0.0218  0.6810
71005SOL    HW130625   6.244   5.028   4.067 -0.5959  2.6910  0.0601
71005SOL    HW230626   6.371   5.058   3.992  0.3080  0.5125  0.6543
71006SOL     OW30627   9.313   4.137   1.026 -0.3469 -0.0904  0.5908
71006SOL    HW130628   9.327   4.043   1.018  0.3243 -0.0075  0.7267
71006SOL    HW230629   9.309   4.153   1.121 -0.5530  0.0049  0.5668
71007SOL     OW30630  13.731   2.611   5.486 -0.0275 -0.2944 -0.2378
71007SOL    HW130631  13.808   2.660   5.457 -0.0327 -0.6958 -0.9675
71007SOL    HW230632  13.755   2.519   5.474 -0.5410 -0.4298 -0.2654
71008SOL     OW30633  10.105   8.843   0.510  0.5726  0.2663  0.3104
71008SOL    HW130634  10.080   8.753   0.489  3.6149 -0.8070  0.7193
71008SOL    HW230635  10.075   8.857   0.600 -1.5348  0.3881 -0.3659
71009SOL     OW30636   0.639   6.837   2.036  0.6262  0.7093 -0.2066
71009SOL    HW130637   0.673   6.765   1.983 -0.1111 -0.1462  0.4343
71009SOL    HW230638   0.695   6.839   2.114  0.7472  0.9363 -0.2989
71010SOL     OW30639  11.295  12.581   0.612 -0.0103  0.4108 -0.1944
71010SOL    HW130640  11.309  12.653   0.673 -0.3923 -0.3766  0.8758
71010SOL    HW230641  11.339  12.506   0.653 -0.7293 -0.2598 -0.6084
71011SOL     OW30642   2.502   2.526   8.405 -0.2187 -0.4396  0.2042
71011SOL    HW130643   2.433   2.469   8.371  1.4987 -1.8630 -1.0467
71011SOL    HW230644   2.484   2.532   8.499 -1.1038 -2.0983  0.1753
71012SOL     OW30645   1.987   8.361   6.634 -0.2210  0.4507 -0.1564
71012SOL    HW130646   2.036   8.341   6.714  1.6257 -0.1338 -1.3888
71012SOL    HW230647   1.962   8.276   6.599 -0.3930  0.6750 -0.5891
71013SOL     OW30648   1.737  12.329   3.856 -0.3259 -0.3205 -0.5792
71013SOL    HW130649   1.749  12.424   3.864  2.0101 -0.5812 -0.0416
71013SOL    HW230650   1.643  12.315   3.869 -0.4728  1.7545  1.2224
71014SOL     OW30651   9.426   8.967   3.435 -0.4637 -0.1556  0.5245
71014SOL    HW130652   9.353   8.915   3.402 -2.8405  2.0479  1.9689
71014SOL    HW230653   9.426   9.045   3.380 -0.1085  0.4874  1.4152
71015SOL     OW30654  13.081   5.505   6.536  0.5139  0.5847 -0.0124
71015SOL    HW130655  13.012   5.446   6.506  1.4401  0.1846 -1.4564
71015SOL    HW230656  13.148   5.501   6.467  1.2650  2.1864  0.5676
71016SOL     OW30657   3.680   9.224   0.603  0.0638  0.0701 -0.6152
71016SOL    HW130658   3.765   9.213   0.560  0.3526 -0.8538  0.1484
71016SOL    HW230659   3.629   9.148   0.574  0.1368 -0.3605  0.3602
71017SOL     OW30660   3.920   9.287  10.642 -0.0499  0.2047  0.0956
71017SOL    HW130661   3.955   9.331  10.719  1.1418  1.1988 -0.9568
71017SOL    HW230662   3.998   9.260  10.593 -0.7604 -2.0733  0.1201
71018SOL     OW30663   6.381  11.931   1.762 -0.1452 -0.7391  0.1570
71018SOL    HW130664   6.292  11.955   1.786  0.0052 -0.2192  0.2198
71018SOL    HW230665   6.431  12.012   1.774  0.0687 -0.6567 -1.2230
71019SOL     OW30666   6.865   8.795   3.201 -0.3336  0.2040  0.2604
71019SOL    HW130667   6.778   8.755   3.211  0.8040 -2.2255  1.5726
71019SOL    HW230668   6.911   8.737   3.140  0.3431  1.5318 -0.5242
71020SOL     OW30669   5.924   7.683   1.022 -0.1144 -0.5353 -0.1361
71020SOL    HW130670   5.852   7.720   1.075  0.1036  0.3037 -0.4059
71020SOL    HW230671   6.001   7.693   1.077  0.0157 -0.1942 -0.3762
71021SOL     OW30672   6.411   3.898   0.905 -0.1764  0.0024  0.4128
71021SOL    HW130673   6.445   3.942   0.982 -1.9289 -1.3320  2.0465
71021SOL    HW230674   6.436   3.807   0.916 -1.6564 -0.4612  0.1506
71022SOL     OW30675   9.898   7.378   1.025  0.3864  0.0503  0.1876
71022SOL    HW130676   9.937   7.398   0.940 -0.1150  1.0487  0.1837
71022SOL    HW230677   9.843   7.301   1.008  2.8256 -1.8733  0.3512
71023SOL     OW30678   6.226   8.121  10.415  0.2843  0.0436 -0.0454
71023SOL    HW130679   6.267   8.172  10.346  0.4374  2.4662  1.7325
71023SOL    HW230680   6.297   8.102  10.477 -0.3741  0.3152  0.8130
71024SOL     OW30681  10.230   0.484  11.658 -0.1661  0.3000 -0.4713
71024SOL    HW130682  10.272   0.398  11.661 -0.1102  0.3597  0.9761
71024SOL    HW230683  10.297   0.544  11.691 -0.6271  0.7262 -0.3106
71025SOL     OW30684   7.062  12.071   0.201 -0.1327  0.1148  0.2139
71025SOL    HW130685   6.978  12.061   0.246  0.3013  1.1047  1.2729
71025SOL    HW230686   7.042  12.122   0.122 -0.7905 -1.1254 -0.4606
71026SOL     OW30687   8.539   6.061   3.041 -0.6382 -0.6057 -0.1532
71026SOL    HW130688   8.609   6.014   3.084 -2.2629 -1.6487  1.4593
71026SOL    HW230689   8.515   6.006   2.966 -0.3417 -0.6801 -0.1946
71027SOL     OW30690   7.383   4.697   9.153 -0.2606  0.3514  0.3810
71027SOL    HW130691   7.424   4.750   9.085  0.0364 -0.4289 -0.0537
71027SOL    HW230692   7.424   4.611   9.145 -1.9616 -0.4654 -0.0644
71028SOL     OW30693   4.915  13.130   4.404  0.4150 -0.8600 -0.3975
71028SOL    HW130694   4.953  13.197   4.460 -1.1012  0.1626 -0.5203
71028SOL    HW230695   4.890  13.060   4.463 -0.3805 -0.1650  0.1066
71029SOL     OW30696   0.389   1.549  12.917 -0.6073 -0.2323  0.0090
71029SOL    HW130697   0.456   1.587  12.973 -1.1646  0.3335  0.3065
71029SOL    HW230698   0.398   1.595  12.834  0.0361 -0.8774 -0.2930
71030SOL     OW30699   8.492   3.481  13.092 -0.0907 -0.2769  0.3712
71030SOL    HW130700   8.529   3.567  13.114 -0.4610 -0.0013 -0.0421
71030SOL    HW230701   8.439   3.457  13.168  0.7433 -0.5700  0.8720
71031SOL     OW30702  12.879   7.471   0.335 -0.0844 -0.2206 -0.3680
71031SOL    HW130703  12.879   7.395   0.393  0.7717  0.6547  0.8453
71031SOL    HW230704  12.968   7.474   0.299 -1.0007 -1.6255 -3.0132
71032SOL     OW30705   3.946  12.003   6.079  0.0980  0.0095  0.8908
71032SOL    HW130706   3.927  11.926   6.027  1.5795  0.0166  0.2873
71032SOL    HW230707   3.946  11.972   6.169  5.3566 -1.9814  0.5540
71033SOL     OW30708   5.350   2.783  11.962 -1.0784 -0.5269 -0.1950
71033SOL    HW130709   5.342   2.712  11.898  1.2592 -0.5324 -0.5648
71033SOL    HW230710   5.412   2.844  11.923 -0.7486  0.2249  1.4103
71034SOL     OW30711   0.514   1.317   5.048 -0.0572 -0.2451  0.2861
71034SOL    HW130712   0.423   1.340   5.027  0.3264  0.8475 -0.3022
71034SOL    HW230713   0.549   1.281   4.967  0.0064 -0.7559  0.5402
71035SOL     OW30714   6.394  11.781  13.433 -0.5511 -0.1500  0.2585
71035SOL    HW130715   6.366  11.872  13.420 -1.3517 -0.4038  0.1098
71035SOL    HW230716   6.331  11.745  13.496  1.3404  0.1324  2.4345
71036SOL     OW30717   0.849   2.703   6.632 -0.5006  0.1162 -0.1331
71036SOL    HW130718   0.849   2.638   6.702 -1.0164 -0.1931 -0.4165
71036SOL    HW230719   0.937   2.699   6.595 -0.3811 -0.0722  0.1673
71037SOL     OW30720   2.162   4.795  10.685  0.0382 -0.5449 -0.3778
71037SOL    HW130721   2.095   4.836  10.630 -2.5817 -2.7427  0.9161
71037SOL    HW230722   2.113   4.738  10.745  2.8871 -0.2432  2.5651
71038SOL     OW30723  10.707   8.029   3.433 -0.0411  0.0201  0.2632
71038SOL    HW130724  10.721   8.058   3.343 -2.4534  0.7711  0.0778
71038SOL    HW230725  10.613   8.015   3.440  0.1343 -0.4121  2.5710
71039SOL     OW30726   9.367   8.978   1.106 -0.4573  0.2445  0.2661
71039SOL    HW130727   9.447   8.980   1.158 -2.0486 -0.1348  2.9463
71039SOL    HW230728   9.380   8.906   1.044  0.0324 -2.2236  3.0050
71040SOL     OW30729   7.585  11.335   7.777 -0.7734 -0.1589 -0.3762
71040SOL    HW130730   7.643  11.267   7.742 -0.1363  0.4142 -0.4513
71040SOL    HW230731   7.500  11.316   7.739 -0.3586 -0.2756 -1.2682
71041SOL     OW30732  10.824   5.943  13.211 -0.3699  0.0443  0.6320
71041SOL    HW130733  10.900   5.994  13.239  0.0045 -0.4603  0.5519
71041SOL    HW230734  10.858   5.854  13.199 -0.4769  0.2370 -1.4532
71042SOL     OW30735  13.735   2.416   9.926  0.2940  0.3417  0.1020
71042SOL    HW130736  13.793   2.351   9.965 -0.1613  0.3244  0.7587
71042SOL    HW230737  13.677   2.443   9.997 -1.4568 -0.6996 -0.8404
71043SOL     OW30738  11.833   5.081   3.450 -0.0896  0.1112  0.6543
71043SOL    HW130739  11.777   5.120   3.518 -1.2566 -0.6814  0.1693
71043SOL    HW230740  11.859   4.997   3.487  0.3824  0.2579  0.6627
71044SOL     OW30741   8.428   2.548  13.908 -0.3478 -0.4169 -0.4272
71044SOL    HW130742   8.524   2.545  13.908 -0.3219  0.2303 -1.0817
71044SOL    HW230743   8.401   2.486  13.841 -0.5031 -2.8140  1.7187
71045SOL     OW30744   5.167  13.893   0.902 -0.5773  0.3044  0.0426
71045SOL    HW130745   5.260  13.915   0.913 -0.2921 -1.2441  1.0627
71045SOL    HW230746   5.136  13.873   0.990 -2.0862  1.4153 -0.1961
71046SOL     OW30747   3.179  12.899   0.609 -0.1143  0.2037  0.2244
71046SOL    HW130748   3.180  12.805   0.624 -3.1377  0.2791  1.5086
71046SOL    HW230749   3.149  12.909   0.518  0.5203 -0.0452 -0.0178
71047SOL     OW30750   3.252  11.003   5.577 -0.1262 -0.0187  0.6013
71047SOL    HW130751   3.187  10.984   5.510 -0.6795  1.2371  0.7564
71047SOL    HW230752   3.336  10.988   5.534 -0.4898 -0.8721  0.1581
71048SOL     OW30753  13.641   1.954   5.676 -0.0481 -0.5165  0.8628
71048SOL    HW130754  13.728   1.989   5.657 -0.5419  0.0587 -0.5112
71048SOL    HW230755  13.582   2.005   5.620 -1.1746 -1.4126  1.1884
71049SOL     OW30756   3.905   9.016   1.874  0.3702 -0.2426  0.3158
71049SOL    HW130757   3.873   8.942   1.926 -0.2737 -0.2364 -0.0714
71049SOL    HW230758   3.835   9.080   1.877 -0.1636 -0.6861 -1.4911
71050SOL     OW30759   0.330  12.031   3.728  0.0680  0.3217  0.2719
71050SOL    HW130760   0.365  12.018   3.817  1.1313 -1.3211 -0.3515
71050SOL    HW230761   0.237  12.047   3.742  0.5673  2.3504  1.8223
71051SOL     OW30762  12.687   0.013   0.805 -0.1552  0.7428  0.0184
71051SOL    HW130763  12.610   0.027   0.750  0.4770  3.6581 -0.3004
71051SOL    HW230764  12.762   0.030   0.747  0.6995 -0.5555  0.6887
71052SOL     OW30765   9.954  12.130  10.355  0.2689  0.1715 -0.1272
71052SOL    HW130766  10.033  12.177  10.330  0.7839 -0.1954  0.7662
71052SOL    HW230767   9.967  12.107  10.447 -0.2301 -1.1822 -0.3696
71053SOL     OW30768   0.414   7.120   1.885  0.5849 -0.5732  0.1184
71053SOL    HW130769   0.371   7.065   1.950  0.2194 -0.7667 -0.2801
71053SOL    HW230770   0.369   7.205   1.891  1.4403 -0.1710  1.0366
71054SOL     OW30771  13.220   8.128   8.194  0.3195  0.0429  0.4026
71054SOL    HW130772  13.149   8.184   8.160 -0.4206 -0.3048  1.3294
71054SOL    HW230773  13.192   8.039   8.173  0.3431 -0.1132  1.0180
71055SOL     OW30774   5.358  11.395   4.235  0.3280 -0.1061  0.0335
71055SOL    HW130775   5.349  11.412   4.329  0.7931  0.6745 -0.0501
71055SOL    HW230776   5.288  11.446   4.195  1.5131  1.4263 -0.1928
71056SOL     OW30777   4.936   5.270   2.227 -0.3035 -0.2936  0.3731
71056SOL    HW130778   4.979   5.267   2.141  1.0326  1.2466  0.9350
71056SOL    HW230779   4.999   5.231   2.287 -0.5884  0.0200  0.8837
71057SOL     OW30780   4.299  10.978   0.074  0.5601  0.1092 -0.0255
71057SOL    HW130781   4.381  11.005   0.032  0.2877  2.4517  0.7749
71057SOL    HW230782   4.232  11.031   0.031 -0.1531  0.1634  1.1135
71058SOL     OW30783   4.269   3.803  10.496 -0.0132  0.0146 -0.5251
71058SOL    HW130784   4.283   3.880  10.441 -1.4633  0.6793 -0.0079
71058SOL    HW230785   4.347   3.749  10.482  1.0849  1.6050 -0.8331
71059SOL     OW30786  10.341  12.544   4.217 -0.0243 -0.0229 -0.1725
71059SOL    HW130787  10.402  12.581   4.153 -0.1205 -2.0689 -1.5398
71059SOL    HW230788  10.256  12.582   4.194 -0.3558 -1.8375 -2.3685
71060SOL     OW30789  11.456   2.312   9.629  0.7034 -0.1743 -0.5985
71060SOL    HW130790  11.371   2.296   9.669 -0.4709 -0.1812 -2.9215
71060SOL    HW230791  11.459   2.407   9.614  1.3445 -0.1020 -0.0694
71061SOL     OW30792   0.669   5.478  14.043 -0.0414 -0.4849 -0.0295
71061SOL    HW130793   0.735   5.504  14.106  0.8155 -0.0048 -1.0952
71061SOL    HW230794   0.684   5.384  14.030  1.8940 -0.0085 -1.8427
71062SOL     OW30795   4.566   1.792   5.250  0.3455  0.3490  0.3104
71062SOL    HW130796   4.527   1.801   5.162 -1.6815  0.4559  1.1630
71062SOL    HW230797   4.495   1.815   5.310  1.6452  0.1294  2.0064
71063SOL     OW30798   9.489   9.209   4.030 -0.3574 -0.1153  0.2988
71063SOL    HW130799   9.474   9.121   3.997  0.7304  0.5317 -2.1840
71063SOL    HW230800   9.567   9.239   3.983 -0.2805  1.9190  1.6061
71064SOL     OW30801  13.377   4.157   0.997 -0.2133  0.5360  0.0302
71064SOL    HW130802  13.393   4.068   0.966 -1.6327  0.4727 -0.5920
71064SOL    HW230803  13.438   4.211   0.947  0.1303 -0.0028 -0.1367
71065SOL     OW30804   1.070  11.038   0.124 -0.0572  0.0812  0.3127
71065SOL    HW130805   0.985  11.082   0.119 -0.3282 -0.3335  1.0498
71065SOL    HW230806   1.048  10.945   0.134  0.5024 -0.1518 -0.5573
71066SOL     OW30807   7.180   1.380   4.483 -0.6430 -0.4728 -0.1033
71066SOL    HW130808   7.151   1.428   4.561  0.1678  3.0106 -1.7445
71066SOL    HW230809   7.113   1.312   4.472 -3.1300  1.5247  1.3302
71067SOL     OW30810   6.154  11.423   7.758  0.1483  0.6878  0.7680
71067SOL    HW130811   6.152  11.330   7.780 -1.7367  0.6264  0.5116
71067SOL    HW230812   6.066  11.454   7.777 -0.2409  1.6863 -2.1909
71068SOL     OW30813   6.416   2.536   7.655  0.0992 -0.4323  0.0567
71068SOL    HW130814   6.453   2.624   7.643  0.1552  0.3035  4.0580
71068SOL    HW230815   6.389   2.508   7.568  1.9978  2.6721 -1.6903
71069SOL     OW30816   2.652  11.607   8.256 -0.2869  0.0059 -0.0393
71069SOL    HW130817   2.719  11.595   8.189 -1.1795 -1.0640 -0.7728
71069SOL    HW230818   2.674  11.544   8.324 -1.2976 -1.3546 -0.9207
71070SOL     OW30819   4.899  12.616   2.166  0.0361  0.1801 -0.3716
71070SOL    HW130820   4.804  12.612   2.168 -0.0235  0.2326 -1.7758
71070SOL    HW230821   4.924  12.557   2.095  1.0636  0.0515  0.0814
71071SOL     OW30822  10.463  14.042   1.689 -0.3646 -0.4551  0.2911
71071SOL    HW130823  10.369  14.057   1.676 -0.4358 -0.0305  1.2463
71071SOL    HW230824  10.485  13.975   1.624 -1.1616 -0.0177 -0.4614
71072SOL     OW30825   1.986   4.949   9.885 -0.4231 -0.0359  0.0554
71072SOL    HW130826   1.977   5.041   9.861  0.9748  0.5510  1.5932
71072SOL    HW230827   2.010   4.950   9.977  0.0614 -1.9250  0.0069
71073SOL     OW30828   0.830   6.886  11.127 -0.1326 -0.6274  0.0082
71073SOL    HW130829   0.891   6.817  11.103 -1.0911 -1.9477  1.1741
71073SOL    HW230830   0.743   6.849  11.108 -0.6586  0.3530  0.4096
71074SOL     OW30831   0.508  11.393  12.223 -1.2908  0.6670  0.1845
71074SOL    HW130832   0.490  11.392  12.317 -0.1368  0.3476  0.4135
71074SOL    HW230833   0.600  11.419  12.216 -1.0551 -0.3648 -0.7947
71075SOL     OW30834   4.318   0.463   9.831  0.4402 -0.3984  0.1426
71075SOL    HW130835   4.352   0.387   9.784 -2.0275 -0.7574 -1.2486
71075SOL    HW230836   4.271   0.513   9.765  1.8933  2.3785  1.0244
71076SOL     OW30837   5.851   2.142  11.661  0.1587  0.1363 -0.0784
71076SOL    HW130838   5.838   2.138  11.756 -0.2231  0.1934 -0.1270
71076SOL    HW230839   5.896   2.226  11.647  0.4929 -0.0128  0.0812
71077SOL     OW30840   1.819   2.905   5.359 -0.4510  0.0229 -0.2639
71077SOL    HW130841   1.761   2.951   5.420 -0.3019  0.5968 -0.5467
71077SOL    HW230842   1.874   2.974   5.322 -0.4537 -0.3359 -0.9562
71078SOL     OW30843  11.911   7.568  10.761  0.0268  0.5651 -0.2713
71078SOL    HW130844  11.978   7.533  10.701  0.1231 -1.2862  0.8665
71078SOL    HW230845  11.828   7.543  10.721  0.0454  1.1498 -0.6833
71079SOL     OW30846  12.960   1.938   6.411 -0.1305 -0.6344 -0.4253
71079SOL    HW130847  12.986   1.993   6.485 -0.8852 -1.4147  0.4531
71079SOL    HW230848  13.037   1.885   6.392  0.2498 -0.0363 -0.5668
71080SOL     OW30849   5.964   0.586   7.189  0.5833 -0.2083 -0.0965
71080SOL    HW130850   6.046   0.551   7.223 -0.1882 -2.3410 -0.2664
71080SOL    HW230851   5.901   0.515   7.201 -1.5775  1.7915  1.2246
71081SOL     OW30852   5.820   9.222   2.916 -0.2173 -0.1040  0.3481
71081SOL    HW130853   5.880   9.252   2.848  0.0757  1.9485  1.4293
71081SOL    HW230854   5.808   9.128   2.898  1.3233 -0.0279 -1.3721
71082SOL     OW30855   3.472   3.772   6.073 -0.5351 -0.1140 -0.1279
71082SOL    HW130856   3.526   3.842   6.037 -1.0326  0.1511 -0.3803
71082SOL    HW230857   3.451   3.717   5.998 -1.2072  0.1919 -0.1755
71083SOL     OW30858   8.871  11.632   2.028 -0.5563  0.0494 -0.3176
71083SOL    HW130859   8.850  11.635   2.122 -0.4372 -2.3452 -0.1590
71083SOL    HW230860   8.814  11.698   1.989 -1.1776  0.5525  1.3299
71084SOL     OW30861  10.646   8.616   3.832  0.4110  0.4130  0.0773
71084SOL    HW130862  10.692   8.700   3.832  0.3952  0.4222  0.2914
71084SOL    HW230863  10.560   8.635   3.869  0.5244  0.2426  0.4310
71085SOL     OW30864   8.631   3.945   3.771  0.2542  0.0779  0.0208
71085SOL    HW130865   8.685   3.995   3.832 -0.9867  4.0524 -1.7872
71085SOL    HW230866   8.672   3.959   3.686 -1.1362 -0.5389 -0.7806
71086SOL     OW30867  10.574   4.572  11.441  0.0548 -0.2622  0.5010
71086SOL    HW130868  10.575   4.656  11.394 -1.4651  0.3799  1.5518
71086SOL    HW230869  10.661   4.566  11.480  0.6440  0.1679 -0.6877
71087SOL     OW30870  13.123   9.199  13.934  0.1465 -0.4298 -0.1214
71087SOL    HW130871  13.083   9.117  13.905  0.6370 -0.8669  0.4105
71087SOL    HW230872  13.216   9.190  13.914  0.1628  0.1168 -0.3235
71088SOL     OW30873   7.903  11.772   9.638 -0.9013  0.1335 -0.1333
71088SOL    HW130874   7.922  11.697   9.580  1.5646  0.8445 -0.3537
71088SOL    HW230875   7.910  11.736   9.726 -2.1591 -0.3928 -0.2230
71089SOL     OW30876   1.926   4.969   5.286  0.2572  0.1686  0.0754
71089SOL    HW130877   1.932   4.986   5.380  0.6265  2.1212 -0.2582
71089SOL    HW230878   1.930   5.056   5.246  2.4274 -0.7288 -1.8618
71090SOL     OW30879   2.258   4.516   0.876 -0.6436  0.1221 -0.3669
71090SOL    HW130880   2.288   4.476   0.794 -0.4033  0.0006 -0.2219
71090SOL    HW230881   2.333   4.507   0.936  0.3019  2.7968 -0.9960
71091SOL     OW30882  13.878   9.153  13.798  0.2839 -0.1488  0.0998
71091SOL    HW130883  13.894   9.224  13.735  0.5158  0.1499  0.4889
71091SOL    HW230884  13.926   9.078  13.762 -0.9667 -0.4768 -0.9605
71092SOL     OW30885   4.014  11.277   1.169  0.8287  0.0622  0.0294
71092SOL    HW130886   3.989  11.266   1.077  2.8424 -0.6546 -0.4857
71092SOL    HW230887   4.108  11.261   1.170  0.6804 -1.0119  2.4073
71093SOL     OW30888   0.778   8.837  12.745 -0.3557  0.4132 -0.5348
71093SOL    HW130889   0.720   8.760  12.747  0.8815 -0.5466  0.2563
71093SOL    HW230890   0.763   8.880  12.829 -0.6453  0.7382 -0.7502
71094SOL     OW30891  11.661  12.174   3.697 -0.0964 -0.1986  0.5820
71094SOL    HW130892  11.750  12.197   3.724  0.2634 -0.8691 -0.0188
71094SOL    HW230893  11.605  12.238   3.742  0.5689 -0.5993  2.0509
71095SOL     OW30894   1.663   7.950   8.210 -0.3674  0.3378  0.5593
71095SOL    HW130895   1.657   8.045   8.202  1.3944  0.4100 -0.3033
71095SOL    HW230896   1.669   7.934   8.304 -0.7818  1.0632  0.7160
71096SOL     OW30897  10.556   1.625   9.054 -0.5535  0.3525 -0.6750
71096SOL    HW130898  10.623   1.651   8.991  0.5069  0.8802  0.6402
71096SOL    HW230899  10.568   1.531   9.066 -0.0636  0.4439 -0.4597
71097SOL     OW30900   4.269  11.946   1.207 -0.2106  0.2064  0.1243
71097SOL    HW130901   4.294  11.871   1.153  1.3494  1.9733 -1.8038
71097SOL    HW230902   4.188  11.919   1.250 -1.2764 -1.5624 -2.7121
71098SOL     OW30903   0.470   8.884   8.899  0.0891  0.0473  0.0947
71098SOL    HW130904   0.558   8.846   8.902  1.3399  2.4687 -2.0470
71098SOL    HW230905   0.421   8.827   8.840  1.0139  0.0740 -0.7145
71099SOL     OW30906  12.681   2.879  12.445 -0.3139 -0.2860  0.5535
71099SOL    HW130907  12.712   2.937  12.515  0.3487 -1.3204  1.1511
71099SOL    HW230908  12.761   2.835  12.414 -0.5047  0.6292 -1.3158
71100SOL     OW30909   1.793   0.968  13.096  0.4387  0.0974 -0.5814
71100SOL    HW130910   1.703   0.991  13.122  1.0374  1.2538  0.5687
71100SOL    HW230911   1.783   0.887  13.046 -1.3045  0.5216 -0.9901
71101SOL     OW30912   9.422  10.070   4.935 -0.4036  0.2879 -0.1670
71101SOL    HW130913   9.467  10.003   4.986  1.3599  1.5350  0.0167
71101SOL    HW230914   9.329  10.052   4.947 -0.0012 -0.7864  1.6570
71102SOL     OW30915  12.345  11.662   8.243 -0.1465  0.2827 -0.7246
71102SOL    HW130916  12.407  11.643   8.313 -0.2293  0.8379 -0.4978
71102SOL    HW230917  12.288  11.730   8.280 -1.3010 -0.6760 -0.6772
71103SOL     OW30918  12.791  10.506   4.170 -0.3143 -0.2069 -0.3162
71103SOL    HW130919  12.872  10.530   4.216 -0.9533  0.0454  0.7253
71103SOL    HW230920  12.788  10.410   4.174  0.7416 -0.3390 -1.8331
71104SOL     OW30921   5.388  12.038   5.260 -0.2151  0.5489 -0.5019
71104SOL    HW130922   5.430  11.953   5.243  0.0128  0.6076 -0.2335
71104SOL    HW230923   5.303  12.031   5.218 -1.1426 -0.6644  1.4266
71105SOL     OW30924   2.187  11.741   4.588 -0.5203 -0.1310  0.2016
71105SOL    HW130925   2.275  11.738   4.626 -0.0607  1.1398 -0.6960
71105SOL    HW230926   2.132  11.775   4.658 -0.7709 -2.9193  1.5031
71106SOL     OW30927   6.353   3.939  10.172 -0.1869  0.5376  0.1651
71106SOL    HW130928   6.348   3.944  10.267 -0.7739 -0.3985  0.2003
71106SOL    HW230929   6.418   4.005  10.147  0.4454  0.3502  1.2618
71107SOL     OW30930   4.104   7.668   5.480  0.5646  0.2489 -0.3386
71107SOL    HW130931   4.093   7.614   5.559  0.4357 -0.4593 -0.8290
71107SOL    HW230932   4.116   7.604   5.409  1.0026  0.8842 -0.8448
71108SOL     OW30933  12.082   2.070  12.790  0.1883 -0.0449  0.1621
71108SOL    HW130934  11.992   2.086  12.817 -0.0680  0.6889 -1.0851
71108SOL    HW230935  12.075   2.018  12.710  0.6611  3.3297 -2.2878
71109SOL     OW30936  12.270   1.146   6.529 -0.4412 -0.2882  0.5277
71109SOL    HW130937  12.356   1.114   6.502 -1.2088 -0.8478 -1.3434
71109SOL    HW230938  12.286   1.238   6.553  0.8265 -0.6315  1.1016
71110SOL     OW30939  10.529  13.941  12.132 -0.6777 -0.3134 -0.1724
71110SOL    HW130940  10.507  14.005  12.199 -0.1897 -0.8629  0.5249
71110SOL    HW230941  10.583  13.989  12.069 -1.0680  0.1812 -0.1317
71111SOL     OW30942   4.213   7.760   9.276  0.1752  0.0370 -0.1253
71111SOL    HW130943   4.248   7.750   9.364 -0.5692  0.8909  0.2794
71111SOL    HW230944   4.234   7.677   9.232  0.1288 -0.5876  0.9981
71112SOL     OW30945  11.163   0.471   8.098 -0.7596 -0.2764 -0.2554
71112SOL    HW130946  11.148   0.377   8.111 -0.1582 -0.3950 -0.3950
71112SOL    HW230947  11.257   0.478   8.080 -1.0842  0.1597 -1.9455
71113SOL     OW30948  10.694  12.236   5.933 -0.3206  0.4816 -0.1228
71113SOL    HW130949  10.627  12.303   5.925 -0.6511  0.0088 -1.5777
71113SOL    HW230950  10.756  12.255   5.863 -0.1771 -0.4521 -0.2700
71114SOL     OW30951   1.061   2.317   1.220 -0.0893 -0.1621 -0.0848
71114SOL    HW130952   1.046   2.347   1.309 -0.3769 -1.4921  0.3426
71114SOL    HW230953   0.977   2.281   1.192 -0.1972  0.8537 -1.1629
71115SOL     OW30954  12.593   6.191   3.190 -0.0396 -0.1185 -0.2957
71115SOL    HW130955  12.596   6.164   3.282 -2.6394 -1.0352 -0.4060
71115SOL    HW230956  12.600   6.110   3.140 -2.8299 -0.1896 -0.7396
71116SOL     OW30957   0.074  11.825  11.252 -0.2710  0.1779  0.6193
71116SOL    HW130958   0.045  11.763  11.186  1.3463  0.1742 -0.1483
71116SOL    HW230959   0.126  11.890  11.203  0.3805  0.5637  1.7796
71117SOL     OW30960   9.832   3.456  11.452 -0.0168 -0.2058  0.6121
71117SOL    HW130961   9.807   3.463  11.544  1.1766 -0.2359  0.9464
71117SOL    HW230962   9.872   3.369  11.444 -0.6970 -0.4692 -0.0843
71118SOL     OW30963  11.552  11.445   0.529  0.3427  0.1562 -0.0261
71118SOL    HW130964  11.550  11.492   0.446 -1.1442 -0.2297 -0.2353
71118SOL    HW230965  11.638  11.402   0.530 -0.1614 -1.0500 -2.0831
71119SOL     OW30966   3.137   3.408   1.481  0.1761 -0.3527 -0.1357
71119SOL    HW130967   3.109   3.328   1.526 -0.8037 -0.9944 -1.8081
71119SOL    HW230968   3.162   3.379   1.393 -0.5970  1.2298 -0.9182
71120SOL     OW30969   1.121   1.867   1.595 -0.4460 -0.1005 -0.4817
71120SOL    HW130970   1.186   1.827   1.537  0.2209 -1.0201  0.8419
71120SOL    HW230971   1.097   1.948   1.552  2.8655  1.1456 -0.2603
71121SOL     OW30972   1.896   6.381   3.824 -0.5487 -0.3798 -0.1955
71121SOL    HW130973   1.848   6.298   3.827 -1.5813  0.2254  0.6288
71121SOL    HW230974   1.987   6.356   3.837 -0.9455 -1.3334  0.9097
71122SOL     OW30975   2.121   2.611  13.043 -0.2856  0.0768 -0.2003
71122SOL    HW130976   2.099   2.518  13.038 -1.4878  0.3970 -1.3642
71122SOL    HW230977   2.056   2.647  13.103  0.4469  0.1240  0.5941
71123SOL     OW30978   7.762   8.689  12.137 -0.0169  0.2532 -0.8234
71123SOL    HW130979   7.825   8.727  12.198 -0.2719 -1.5177  0.6362
71123SOL    HW230980   7.716   8.764  12.100  0.9086  1.4457  0.3397
71124SOL     OW30981   2.004  11.432   0.114 -0.0971 -0.1176 -0.0861
71124SOL    HW130982   2.090  11.394   0.097  0.0653  0.3604 -0.3593
71124SOL    HW230983   2.018  11.527   0.112 -0.3469 -0.0273  1.3582
71125SOL     OW30984  12.622  12.067   5.914  0.0435  0.0126  0.7444
71125SOL    HW130985  12.646  12.001   5.979 -0.2110 -0.7036  0.1297
71125SOL    HW230986  12.688  12.057   5.845 -0.4961 -0.1830  0.2529
71126SOL     OW30987  12.153   0.451  10.698  0.0803  0.0503 -0.7050
71126SOL    HW130988  12.116   0.520  10.643  1.2645  1.7522  0.5169
71126SOL    HW230989  12.091   0.443  10.770 -0.9008 -1.3936 -1.6549
71127SOL     OW30990   8.007   1.549   9.286  0.1152 -0.2234 -0.2642
71127SOL    HW130991   8.035   1.630   9.243 -0.2987  0.4581  0.7196
71127SOL    HW230992   8.079   1.488   9.272  1.0236  0.7397  0.1206
71128SOL     OW30993   4.166  10.423  10.783 -0.0049  0.0439 -0.4351
71128SOL    HW130994   4.241  10.444  10.729  0.8069  1.8183  1.2601
71128SOL    HW230995   4.090  10.457  10.735  0.7762  2.3977 -0.1318
71129SOL     OW30996   6.098  13.477  11.052 -0.5060 -0.1108  0.2044
71129SOL    HW130997   6.123  13.420  10.980 -0.0466  0.6021 -0.2162
71129SOL    HW230998   6.025  13.432  11.095  0.5835 -1.5682  0.6058
71130SOL     OW30999   3.076  13.978  12.634 -0.0556 -0.1754  0.5588
71130SOL    HW131000   3.143  14.016  12.577  0.4908 -0.4059  1.0381
71130SOL    HW231001   3.076  14.033  12.712 -0.5110 -0.1125  0.5222
71131SOL     OW31002   2.328  10.897   9.640  0.4758 -0.0639  0.0741
71131SOL    HW131003   2.316  10.885   9.545  0.1925 -1.4919  0.2558
71131SOL    HW231004   2.314  10.809   9.676 -0.7687  0.7150  1.5857
71132SOL     OW31005   4.366  12.454   9.977  0.2339 -0.0986 -0.3864
71132SOL    HW131006   4.321  12.454  10.061 -0.9318 -1.6425 -0.9557
71132SOL    HW231007   4.436  12.389   9.987 -0.1580 -0.5798 -0.7155
71133SOL     OW31008   3.662   1.827   1.456  0.3490  0.1205  0.0006
71133SOL    HW131009   3.639   1.759   1.393  1.5728  1.4904 -2.0587
71133SOL    HW231010   3.751   1.805   1.484  0.6015  0.6443 -0.3758
71134SOL     OW31011   4.395  11.805  11.554  0.0803 -0.2078  0.5017
71134SOL    HW131012   4.489  11.807  11.570 -0.1487 -1.1332  2.2758
71134SOL    HW231013   4.372  11.895  11.532  1.3359  0.0722  0.2971
71135SOL     OW31014   5.446  11.672   2.491  0.8185 -0.4824 -0.2901
71135SOL    HW131015   5.498  11.722   2.554 -2.4390  0.7447  1.7029
71135SOL    HW231016   5.510  11.634   2.432  3.7784  2.9718  0.3340
71136SOL     OW31017   2.361   9.900   3.708 -0.8423  0.4049  0.2239
71136SOL    HW131018   2.272   9.900   3.672 -0.6731 -1.4183 -0.2781
71136SOL    HW231019   2.409   9.960   3.651 -1.2427 -0.3175 -0.9129
71137SOL     OW31020   0.410   2.623   5.524  0.0713  0.7564 -0.2030
71137SOL    HW131021   0.477   2.683   5.491  1.2107 -0.9288 -1.1331
71137SOL    HW231022   0.337   2.633   5.464  0.0354  1.5602 -0.0439
71138SOL     OW31023  10.097   8.484   1.225  0.0503 -0.2545  0.0275
71138SOL    HW131024  10.145   8.402   1.214  0.0529 -0.4675  1.5007
71138SOL    HW231025  10.083   8.515   1.135  0.7459 -1.4499 -0.5226
71139SOL     OW31026  13.882   1.036   8.458  0.1901 -0.3449 -0.2524
71139SOL    HW131027  13.894   1.120   8.501 -1.8649  0.9474 -1.9961
71139SOL    HW231028  13.845   0.979   8.526  0.4993  0.5123  0.6495
71140SOL     OW31029  10.175  13.246  10.749 -0.0903  0.0680 -0.2635
71140SOL    HW131030  10.146  13.244  10.840  1.8177 -0.6879  0.3687
71140SOL    HW231031  10.186  13.340  10.729  0.5071  0.1982  0.6403
71141SOL     OW31032   1.844   7.711   4.866  0.1155 -0.3603  0.8013
71141SOL    HW131033   1.773   7.664   4.909 -1.7121  0.3920 -1.2223
71141SOL    HW231034   1.867   7.781   4.928 -1.2466 -0.3286  1.3041
71142SOL     OW31035   5.516   3.704   5.148 -0.0830  0.2070  0.6339
71142SOL    HW131036   5.421   3.695   5.136 -0.3556  0.1350  2.5182
71142SOL    HW231037   5.532   3.670   5.236  1.8377 -0.5776  0.0354
71143SOL     OW31038   2.496   0.446  12.128  0.1926  0.0567  0.6777
71143SOL    HW131039   2.413   0.471  12.169 -0.3676 -0.4005 -0.1460
71143SOL    HW231040   2.529   0.526  12.088 -0.0117  0.1681  0.7319
71144SOL     OW31041   0.739   8.135   6.454  0.0540 -0.2756  0.5960
71144SOL    HW131042   0.755   8.205   6.390 -0.8108 -1.8133 -1.4377
71144SOL    HW231043   0.743   8.178   6.539  0.4555  2.0480 -0.5296
71145SOL     OW31044   3.908   5.653   0.481 -0.0014  0.4151 -0.4987
71145SOL    HW131045   3.850   5.647   0.405 -2.9364 -2.9029  1.6781
71145SOL    HW231046   3.974   5.585   0.465 -1.2093 -0.9906  0.2330
71146SOL     OW31047   3.454   7.688   9.047  0.3721  0.4095  0.2675
71146SOL    HW131048   3.481   7.613   9.099  1.3690  0.6888  0.1782
71146SOL    HW231049   3.487   7.669   8.959 -0.6630  0.2766 -0.1118
71147SOL     OW31050   1.662   4.951   4.028  0.3695  0.0711 -0.4269
71147SOL    HW131051   1.709   4.869   4.044 -0.9206 -0.7443 -0.5979
71147SOL    HW231052   1.576   4.937   4.068  0.9580  2.3523  1.8802
71148SOL     OW31053   6.634   9.270   1.561  0.6502  0.1586  0.5760
71148SOL    HW131054   6.615   9.340   1.498  2.2921  0.4993  0.4215
71148SOL    HW231055   6.548   9.234   1.583 -0.1247  1.3729 -0.3184
71149SOL     OW31056   9.321  13.931   9.755  0.3720 -0.3920  0.3237
71149SOL    HW131057   9.378  13.920   9.832 -0.4281 -3.4195  0.6080
71149SOL    HW231058   9.382  13.930   9.681  1.0670  1.5138  0.8268
71150SOL     OW31059   2.150   5.838   2.023  0.1845  0.6180  0.0763
71150SOL    HW131060   2.223   5.890   2.056  0.1499  0.6993  0.0245
71150SOL    HW231061   2.120   5.788   2.099  1.3448 -0.6596 -0.2721
71151SOL     OW31062  11.473   1.211   6.984 -0.1934  0.0509 -0.0630
71151SOL    HW131063  11.455   1.120   7.008 -1.3096  0.0808 -0.7023
71151SOL    HW231064  11.548   1.236   7.038 -1.4236 -0.4615  2.0000
71152SOL     OW31065   0.160  11.428   9.074  0.5837  0.0665 -0.1956
71152SOL    HW131066   0.139  11.456   8.985  1.4683  0.4457 -0.2975
71152SOL    HW231067   0.205  11.344   9.063  1.8917  0.7467 -0.2231
71153SOL     OW31068   1.067  13.960   0.300 -0.0783  0.0876 -0.6970
71153SOL    HW131069   0.974  13.977   0.284  0.5027  0.4043 -4.8119
71153SOL    HW231070   1.108  14.046   0.293  0.5898  0.0842  1.9122
71154SOL     OW31071   7.129   5.623   2.594  0.0525 -0.2800  0.0752
71154SOL    HW131072   7.078   5.567   2.536  0.7710 -1.5050  0.5806
71154SOL    HW231073   7.129   5.708   2.552 -1.2661 -0.5999 -0.6070
71155SOL     OW31074   5.748   0.004   8.972 -0.6565  0.1858  0.2462
71155SOL    HW131075   5.802   0.002   8.893 -0.6400  1.3447  0.2174
71155SOL    HW231076   5.808  -0.020   9.043  0.4511  3.2669  0.4911
71156SOL     OW31077   0.415  13.796   0.168  0.4202 -0.4032 -0.7947
71156SOL    HW131078   0.386  13.811   0.258 -0.9575 -1.0160 -1.1204
71156SOL    HW231079   0.441  13.883   0.137  0.7762 -0.1673  0.1417
71157SOL     OW31080   4.301   4.139   7.070 -0.2461  0.0447  0.2730
71157SOL    HW131081   4.226   4.190   7.041 -0.1781  0.0517  0.1080
71157SOL    HW231082   4.303   4.151   7.165  0.6144  1.5245  0.0957
71158SOL     OW31083  11.523   7.694   2.287 -0.4082  0.6279  0.3340
71158SOL    HW131084  11.536   7.667   2.377  1.1518 -0.7781 -0.2748
71158SOL    HW231085  11.456   7.635   2.253 -0.8055  0.9887  0.4730
71159SOL     OW31086  11.968   0.472   2.248 -0.0146  0.3091 -0.4210
71159SOL    HW131087  12.055   0.431   2.253 -0.3523 -0.2834  1.6968
71159SOL    HW231088  11.927   0.432   2.171  1.1603 -0.2901 -0.7618
71160SOL     OW31089   1.217   0.277  10.490  0.7720 -0.4166  0.2267
71160SOL    HW131090   1.122   0.267  10.475  0.6645 -2.4629  1.7854
71160SOL    HW231091   1.228   0.261  10.583  2.7865 -1.5575 -0.1577
71161SOL     OW31092   9.132  10.435  10.293  0.4371 -0.3544 -0.1887
71161SOL    HW131093   9.071  10.430  10.367  0.1943  0.7651 -0.3033
71161SOL    HW231094   9.085  10.394  10.220  0.8267 -1.8236  0.3516
71162SOL     OW31095  12.783   9.258   4.809 -0.2112  0.4217  0.4195
71162SOL    HW131096  12.748   9.185   4.757  0.6283 -0.8044  1.5059
71162SOL    HW231097  12.726   9.263   4.885 -2.1264  2.9432 -1.0088
71163SOL     OW31098  10.212  10.040   5.189 -0.8619  0.2313 -0.0143
71163SOL    HW131099  10.141  10.073   5.243 -0.9295  0.7548 -0.4130
71163SOL    HW231100  10.177  10.043   5.099 -0.3388  0.4918 -0.2105
71164SOL     OW31101  11.368   0.632  13.992  0.0253  0.5644 -0.7279
71164SOL    HW131102  11.340   0.667  13.907 -1.7029 -0.5769 -0.6596
71164SOL    HW231103  11.296   0.651  14.051  0.2371 -0.6551 -0.0531
71165SOL     OW31104   7.105   3.564   9.717 -0.2760 -0.3184 -0.6434
71165SOL    HW131105   7.193   3.541   9.686 -0.3755 -1.1729 -0.3088
71165SOL    HW231106   7.062   3.480   9.734 -1.2456  0.0787 -1.0313
71166SOL     OW31107   1.025   3.571  13.932 -0.1364  0.0701 -0.0431
71166SOL    HW131108   1.025   3.657  13.975 -0.2172 -0.3477  0.8166
71166SOL    HW231109   1.008   3.509  14.003  0.9293 -0.7493 -0.4697
71167SOL     OW31110  12.963  10.266  10.057  0.5906  0.0441  0.3842
71167SOL    HW131111  12.909  10.266   9.977  0.0957 -0.9163  0.7045
71167SOL    HW231112  13.032  10.202  10.039  1.5422  1.1348  0.0480
71168SOL     OW31113   9.860  10.503   8.516 -0.2787  0.0368 -0.4354
71168SOL    HW131114   9.910  10.534   8.440 -0.3927  0.8911 -0.1660
71168SOL    HW231115   9.882  10.410   8.522  1.0603  0.3313 -0.5010
71169SOL     OW31116  12.739   4.528   7.397 -0.2235 -0.2555  0.3506
71169SOL    HW131117  12.745   4.622   7.379 -2.0961 -0.0779  0.5017
71169SOL    HW231118  12.714   4.522   7.489  0.3397 -0.9316  0.4709
71170SOL     OW31119   9.903   6.008   0.540 -0.5334  0.3222  0.6884
71170SOL    HW131120   9.829   6.009   0.480  1.8571  2.1520 -2.5150
71170SOL    HW231121   9.944   5.922   0.527 -0.9661  0.0678  0.9904
71171SOL     OW31122   9.503   0.188   5.958 -0.0317 -0.3075 -0.0591
71171SOL    HW131123   9.419   0.234   5.957  0.4409  0.5826  0.4663
71171SOL    HW231124   9.562   0.246   6.006  0.8910 -0.9195 -0.4242
71172SOL     OW31125   8.793   8.769   1.902  0.3041 -0.2413  0.2069
71172SOL    HW131126   8.737   8.785   1.979 -1.5340  2.7212 -1.5366
71172SOL    HW231127   8.804   8.856   1.863  1.5038 -1.5825 -2.6663
71173SOL     OW31128   5.780   6.140   5.150  0.6708 -0.3193 -0.0069
71173SOL    HW131129   5.814   6.155   5.062  2.6396 -1.4346  0.5075
71173SOL    HW231130   5.685   6.143   5.140  0.8505 -0.5612 -2.1828
71174SOL     OW31131   4.026   7.597   4.641  0.1593 -0.4221  0.0371
71174SOL    HW131132   4.024   7.561   4.730 -0.1744  1.7798  0.9937
71174SOL    HW231133   3.936   7.625   4.625  0.6503  1.1660 -0.0995
71175SOL     OW31134   7.706  10.678   2.166  0.0467  0.0294 -0.2510
71175SOL    HW131135   7.742  10.608   2.110  0.1501  0.7344 -1.0890
71175SOL    HW231136   7.614  10.684   2.140  0.5623  1.7908 -1.9269
71176SOL     OW31137   6.332   2.260   0.488  0.5630  0.2370  0.0666
71176SOL    HW131138   6.294   2.260   0.400  0.9479  0.4161 -0.1009
71176SOL    HW231139   6.274   2.317   0.538 -1.1763 -1.8648  0.6122
71177SOL     OW31140   2.723   3.836   9.308 -0.0056  0.2285  0.1161
71177SOL    HW131141   2.640   3.802   9.276  1.5748 -2.9289 -1.1733
71177SOL    HW231142   2.768   3.868   9.229  0.4451  0.8086  0.6000
71178SOL     OW31143  11.635  13.631  11.791  0.6247  0.2966 -0.1008
71178SOL    HW131144  11.719  13.606  11.752  0.2027 -1.5737  0.1044
71178SOL    HW231145  11.592  13.684  11.724  1.2523 -0.1617 -0.8861
71179SOL     OW31146  12.156   2.919   4.953 -0.1248 -0.4049 -0.0385
71179SOL    HW131147  12.136   2.833   4.915  1.0956 -0.8090  0.1813
71179SOL    HW231148  12.251   2.929   4.942  0.6777 -1.2842  4.2631
71180SOL     OW31149  12.514   5.613   0.434  0.2383 -0.2607 -0.0030
71180SOL    HW131150  12.562   5.685   0.393 -0.5027  0.3134  0.1324
71180SOL    HW231151  12.529   5.624   0.528  0.5452 -0.5922 -0.0085
71181SOL     OW31152   5.288   3.485   4.142 -0.0487  0.2691 -0.1582
71181SOL    HW131153   5.353   3.501   4.210  1.0865 -1.1912 -0.8414
71181SOL    HW231154   5.299   3.556   4.080 -0.2987  0.9710  0.5921
71182SOL     OW31155   3.792   5.111   0.269  0.0267 -0.4158  0.6463
71182SOL    HW131156   3.778   5.189   0.324 -0.2147  0.0442 -0.0556
71182SOL    HW231157   3.794   5.145   0.180  1.2311 -1.0588  0.4146
71183SOL     OW31158   4.527  12.740   4.258  0.2270 -0.4568  0.1681
71183SOL    HW131159   4.511  12.749   4.352  1.4742  0.0297  0.3576
71183SOL    HW231160   4.463  12.675   4.229 -1.2619  0.5724  1.0248
71184SOL     OW31161   3.026  10.777   1.107 -0.5308 -0.1366  0.6316
71184SOL    HW131162   2.975  10.698   1.124 -0.7524 -0.3425 -0.8552
71184SOL    HW231163   3.048  10.772   1.014  1.6466  0.2857  1.0708
71185SOL     OW31164  11.542  13.964  10.113 -0.2775 -0.2796 -0.7379
71185SOL    HW131165  11.482  13.965  10.187  0.5282 -2.1568 -0.0027
71185SOL    HW231166  11.623  13.927  10.148  0.4969 -0.1425 -2.2954
71186SOL     OW31167   3.522  13.005   7.014  0.3801 -0.1430 -0.4576
71186SOL    HW131168   3.614  12.994   6.988  0.2496  1.9130 -2.0517
71186SOL    HW231169   3.476  13.016   6.931 -1.4017 -1.5196  0.3030
71187SOL     OW31170  12.133  12.557   8.612 -0.0299 -0.5208  0.3224
71187SOL    HW131171  12.149  12.596   8.698 -0.3069 -1.9652  1.0684
71187SOL    HW231172  12.042  12.577   8.593  0.4315  1.0893 -0.3617
71188SOL     OW31173   2.788  11.164   5.270  0.0539  0.2016 -0.5562
71188SOL    HW131174   2.782  11.213   5.352  0.3296 -0.5893 -0.0530
71188SOL    HW231175   2.790  11.072   5.297 -0.4642 -0.0904 -1.4855
71189SOL     OW31176   7.720  12.411  10.359  0.5110 -0.5243 -0.2196
71189SOL    HW131177   7.702  12.505  10.369 -1.9900 -1.0785  1.3136
71189SOL    HW231178   7.802  12.398  10.407  0.8700  0.8542 -0.4042
71190SOL     OW31179   2.208   5.827   7.159  0.6208  0.6323  0.4455
71190SOL    HW131180   2.222   5.732   7.162  0.8817  0.5875 -1.3952
71190SOL    HW231181   2.117   5.838   7.188  0.8561 -0.0709  1.5410
71191SOL     OW31182   1.713   0.743   7.644 -0.7135 -0.1953 -0.2984
71191SOL    HW131183   1.796   0.695   7.649 -0.9591 -0.9477 -2.4500
71191SOL    HW231184   1.719   0.792   7.562 -2.0191  0.5056  0.0014
71192SOL     OW31185  12.618   5.426   8.000  0.6629 -0.2054  0.2859
71192SOL    HW131186  12.662   5.491   7.945  1.2649 -1.1007 -0.3099
71192SOL    HW231187  12.526   5.452   7.997  0.8081  0.2712 -0.4396
71193SOL     OW31188   3.680  10.072   7.895 -0.5562  0.2872 -0.1882
71193SOL    HW131189   3.677  10.118   7.979  0.2909  1.9765 -1.0252
71193SOL    HW231190   3.644   9.985   7.913 -1.7638  1.1083  1.5812
71194SOL     OW31191   6.493  12.898   6.886  0.2788 -0.6666 -0.6304
71194SOL    HW131192   6.554  12.953   6.935 -0.4483 -0.9833  0.6860
71194SOL    HW231193   6.501  12.928   6.796  1.0956  0.4816 -0.2057
71195SOL     OW31194  13.413   1.855   4.636 -0.4316  0.2443 -0.3751
71195SOL    HW131195  13.380   1.929   4.687  1.1905  0.8868 -0.1879
71195SOL    HW231196  13.396   1.778   4.691 -1.2472  0.5793 -0.1404
71196SOL     OW31197  12.250  10.545   4.206 -0.1174  0.3619 -0.4347
71196SOL    HW131198  12.245  10.619   4.146 -1.1250  0.6609 -0.0116
71196SOL    HW231199  12.336  10.554   4.247 -0.6839  2.0439  0.5045
71197SOL     OW31200   7.492  13.895   5.732 -0.5796  0.3244  0.2034
71197SOL    HW131201   7.457  13.829   5.673 -0.3891 -0.7083  1.2196
71197SOL    HW231202   7.578  13.862   5.758 -0.2388  1.2416  0.3069
71198SOL     OW31203   1.329   9.181   3.669 -0.4831  0.1909 -0.1452
71198SOL    HW131204   1.397   9.131   3.625  2.4317  2.2569  1.5905
71198SOL    HW231205   1.287   9.118   3.727 -0.3264 -1.2310 -1.5107
71199SOL     OW31206   2.442   5.658   6.971 -0.3256  0.2816 -0.3078
71199SOL    HW131207   2.530   5.658   6.933 -0.6297  0.5680 -1.0446
71199SOL    HW231208   2.453   5.694   7.059  0.1149  1.5567 -0.8555
71200SOL     OW31209   6.495   7.103   3.513  0.0160  0.1525 -0.1618
71200SOL    HW131210   6.406   7.119   3.484  0.3473  1.0300 -0.7231
71200SOL    HW231211   6.501   7.144   3.599 -0.4215 -0.8308  0.3511
71201SOL     OW31212   7.706  11.203  11.701 -0.6804  0.2709  0.2873
71201SOL    HW131213   7.773  11.236  11.641 -1.2870  0.8347 -0.0962
71201SOL    HW231214   7.748  11.203  11.786  0.7817 -2.1775 -0.3313
71202SOL     OW31215   9.458   6.190   2.676 -0.3130 -0.4766  0.4473
71202SOL    HW131216   9.508   6.238   2.741 -0.2253 -1.2366  0.9503
71202SOL    HW231217   9.495   6.218   2.592 -0.1454  0.1918  0.7401
71203SOL     OW31218   6.470   1.948   9.596 -0.7309 -0.1875  0.2929
71203SOL    HW131219   6.427   2.009   9.535  1.0882  2.0766  1.1117
71203SOL    HW231220   6.540   1.909   9.544  0.2260  1.0351  0.6091
71204SOL     OW31221   8.231  13.968   2.591 -0.1489 -0.3851  0.1115
71204SOL    HW131222   8.324  13.946   2.589 -0.5301 -2.2509  0.6363
71204SOL    HW231223   8.189  13.889   2.624 -1.9111  0.4909  0.0665
71205SOL     OW31224   6.994   2.396   2.206  0.1423  0.6245 -0.1111
71205SOL    HW131225   6.907   2.359   2.221  0.4874 -0.6063 -1.0921
71205SOL    HW231226   7.000   2.466   2.271 -1.4947  0.6084  0.1191
71206SOL     OW31227  13.646   9.959   6.660 -0.1071 -0.0877 -0.0491
71206SOL    HW131228  13.718  10.021   6.659  0.4936 -0.7328  0.9312
71206SOL    HW231229  13.688   9.873   6.648 -0.6095 -0.5411  1.2306
71207SOL     OW31230   9.600   3.306   7.379 -0.2366 -0.3544 -0.7712
71207SOL    HW131231   9.601   3.211   7.384 -0.1221 -0.2893  0.7412
71207SOL    HW231232   9.655   3.336   7.451  0.1103  0.8636 -1.4981
71208SOL     OW31233  12.018   8.497  11.380  0.1839  0.4176  0.0466
71208SOL    HW131234  11.956   8.523  11.312 -1.6337 -1.3320  0.9040
71208SOL    HW231235  11.970   8.509  11.462  1.5254  0.4028  0.8666
71209SOL     OW31236   9.671   1.028   0.894  0.2603 -0.0299 -0.3779
71209SOL    HW131237   9.758   1.067   0.904 -0.4726  1.6562 -0.1932
71209SOL    HW231238   9.642   1.058   0.808 -0.3254 -0.1793 -0.2312
71210SOL     OW31239  13.090  13.093   7.150 -0.4045  0.0635  0.1529
71210SOL    HW131240  13.081  12.998   7.160  0.1551  0.1952  2.6569
71210SOL    HW231241  13.004  13.128   7.174  0.2187  0.2711  2.3168
71211SOL     OW31242   4.392   7.411   0.639  0.9213 -0.2572  0.7052
71211SOL    HW131243   4.298   7.418   0.625  1.2946  1.5864 -1.5180
71211SOL    HW231244   4.401   7.372   0.726 -1.8797  0.6863  1.5110
71212SOL     OW31245   4.826   6.881   2.521  0.3015 -0.0678  0.1715
71212SOL    HW131246   4.828   6.788   2.546  0.9299  0.3783  1.9085
71212SOL    HW231247   4.743   6.913   2.555  1.1608  0.5442  1.8042
71213SOL     OW31248   2.345   5.243   5.412 -0.7324  0.2475  0.1100
71213SOL    HW131249   2.321   5.308   5.346  0.7583  0.4514 -0.2774
71213SOL    HW231250   2.284   5.171   5.398  0.5620 -0.4540 -2.6946
71214SOL     OW31251   6.724   2.451   4.314 -0.1961 -0.6140  0.1257
71214SOL    HW131252   6.722   2.377   4.374  0.6297  0.3414  1.3705
71214SOL    HW231253   6.810   2.490   4.326 -0.9770  1.1723  0.2783
71215SOL     OW31254   7.885   9.540   4.937 -0.0963  0.4725 -0.0426
71215SOL    HW131255   7.836   9.476   4.886  1.4768  1.0752 -2.4778
71215SOL    HW231256   7.954   9.490   4.980 -0.4392  0.1966  0.1930
71216SOL     OW31257   9.096  11.896   2.199 -0.7357  0.4715  0.6587
71216SOL    HW131258   9.013  11.861   2.229 -0.3254 -1.1349  0.0307
71216SOL    HW231259   9.146  11.818   2.172  1.2743  1.2989  1.8035
71217SOL     OW31260   1.141   1.379   5.631 -0.0378  0.5518 -0.2838
71217SOL    HW131261   1.053   1.417   5.621 -1.2872 -1.8059  0.7982
71217SOL    HW231262   1.160   1.339   5.547 -0.0570  0.9903 -0.4960
71218SOL     OW31263   3.827  11.126  10.733  0.3310  0.7257 -0.4737
71218SOL    HW131264   3.752  11.122  10.673  0.6488  1.5999 -0.9325
71218SOL    HW231265   3.838  11.035  10.762 -1.0881  0.6199 -0.1733
71219SOL     OW31266   9.350   0.372  13.832  0.2163  0.4086  0.2919
71219SOL    HW131267   9.285   0.312  13.869  1.0082 -0.9890 -0.5009
71219SOL    HW231268   9.434   0.341  13.867  0.8717 -0.3261 -1.8062
71220SOL     OW31269   0.201  13.781   2.320 -0.4260 -0.4464  0.3689
71220SOL    HW131270   0.223  13.751   2.408  1.4209 -4.3850 -1.2181
71220SOL    HW231271   0.116  13.740   2.302 -1.0688  0.7997  0.4107
71221SOL     OW31272   1.807   2.189  10.641  0.4872 -0.1552 -0.2856
71221SOL    HW131273   1.892   2.149  10.662  0.5564  0.3266  0.3816
71221SOL    HW231274   1.820   2.227  10.554  1.3647  1.0064  0.3245
71222SOL     OW31275  10.626  11.910   5.456 -0.1889  0.1981 -0.3132
71222SOL    HW131276  10.608  11.850   5.528 -0.3152 -1.4817 -1.7002
71222SOL    HW231277  10.596  11.995   5.488  0.3281 -0.3686  1.8352
71223SOL     OW31278   9.858  13.936  13.012 -0.2168 -0.0465  0.2294
71223SOL    HW131279   9.889  13.965  12.926  0.8408  0.0890  0.6379
71223SOL    HW231280   9.868  14.013  13.068  1.3293 -0.7688  1.0082
71224SOL     OW31281  13.333  12.164  14.058  0.1198 -0.3891 -0.0368
71224SOL    HW131282  13.246  12.196  14.083 -0.4401  0.2890 -2.6358
71224SOL    HW231283  13.391  12.238  14.075 -0.2219  0.0129 -0.5974
71225SOL     OW31284   4.822  13.559   8.718  0.1200 -0.3085 -0.9249
71225SOL    HW131285   4.788  13.515   8.796  0.6251 -2.2491 -1.7442
71225SOL    HW231286   4.914  13.533   8.714  0.4579  0.8756 -1.4552
71226SOL     OW31287   9.655  11.656   0.404  0.1469 -0.0673  0.6308
71226SOL    HW131288   9.560  11.654   0.393  0.0018  2.5903  0.7883
71226SOL    HW231289   9.669  11.638   0.497 -0.3707  1.2563  0.9880
71227SOL     OW31290   3.355  11.024   3.782  0.4268 -0.3854 -0.4347
71227SOL    HW131291   3.423  10.957   3.778  0.0941 -0.8166  0.5304
71227SOL    HW231292   3.337  11.033   3.876  0.7877  1.4041 -0.5095
71228SOL     OW31293  10.653  11.306   7.152 -0.0461  0.2799  0.4226
71228SOL    HW131294  10.623  11.283   7.064 -1.5571  2.2588  0.3819
71228SOL    HW231295  10.741  11.341   7.138 -0.3639  0.8009 -0.3467
71229SOL     OW31296   4.329  13.059  13.295 -0.0010  0.2040 -0.5150
71229SOL    HW131297   4.350  13.100  13.379  2.4185  2.8759 -2.2271
71229SOL    HW231298   4.234  13.061  13.290 -0.2799 -0.5769  2.3176
71230SOL     OW31299  12.512  11.288   4.072 -0.1663  0.1924 -0.0444
71230SOL    HW131300  12.518  11.292   3.977 -1.1075 -1.8941 -0.2416
71230SOL    HW231301  12.419  11.288   4.091 -0.0201 -0.7983  0.7706
71231SOL     OW31302   2.685  13.819   1.388 -0.0065  0.3443  0.5294
71231SOL    HW131303   2.706  13.902   1.431  0.6060 -0.9252  2.8854
71231SOL    HW231304   2.638  13.769   1.454  0.3055 -1.4669 -0.5504
71232SOL     OW31305  10.056  11.591  12.036 -0.0756  0.1201 -0.2714
71232SOL    HW131306   9.994  11.553  12.098  0.6501  0.5411  0.7337
71232SOL    HW231307  10.096  11.664  12.083  0.5349  0.4197 -1.2175
71233SOL     OW31308  12.004   1.441   6.437 -0.2145 -0.3003  0.2505
71233SOL    HW131309  11.957   1.395   6.507  1.0427  0.2570  1.5083
71233SOL    HW231310  11.977   1.532   6.446 -0.6599 -0.3414 -0.5356
71234SOL     OW31311  13.856  10.311   1.698  0.1693 -0.4262  0.6548
71234SOL    HW131312  13.882  10.394   1.659 -1.1807 -1.0968 -1.8958
71234SOL    HW231313  13.905  10.306   1.780  0.3506  2.8175  0.8695
71235SOL     OW31314   6.815   9.039  12.877  0.2360 -0.5907  0.1519
71235SOL    HW131315   6.837   9.051  12.785 -1.2623  0.1856 -0.1452
71235SOL    HW231316   6.730   8.994  12.875 -2.0189  3.1997  0.9937
71236SOL     OW31317  10.477   5.525   2.299 -0.1093 -0.0882 -0.2126
71236SOL    HW131318  10.521   5.475   2.231 -0.3342  2.0573 -2.0222
71236SOL    HW231319  10.411   5.577   2.253 -0.9657  0.6873  1.7657
71237SOL     OW31320   2.857   9.849   2.277 -0.3175  0.0223 -0.2922
71237SOL    HW131321   2.885   9.850   2.368  0.7284 -1.6772 -0.5614
71237SOL    HW231322   2.761   9.847   2.282 -0.3307  1.5063  0.7095
71238SOL     OW31323  12.146  10.646   6.691 -0.4463 -0.1411 -0.1303
71238SOL    HW131324  12.147  10.741   6.696  0.7554 -0.1057 -0.5916
71238SOL    HW231325  12.071  10.625   6.636  0.3388  0.6643 -1.5926
71239SOL     OW31326   8.960   8.544   4.275  0.1198  0.3345 -0.5172
71239SOL    HW131327   8.956   8.474   4.209 -0.6655  1.4239 -1.6696
71239SOL    HW231328   8.975   8.624   4.224  0.8331  1.0373  0.7626
71240SOL     OW31329  11.886   4.977   0.574 -0.3602 -0.0118  0.6877
71240SOL    HW131330  11.845   5.044   0.628  0.8209  0.9395  0.4475
71240SOL    HW231331  11.818   4.951   0.512 -1.3204 -0.1825  1.7838
71241SOL     OW31332   3.083  11.413  13.736  0.0223  0.3293 -0.0692
71241SOL    HW131333   2.994  11.377  13.742  0.9123 -1.7480  1.8244
71241SOL    HW231334   3.136  11.341  13.703  1.2859  1.0518  0.3436
71242SOL     OW31335  12.307  11.990   1.003 -0.2184 -0.2149 -0.4156
71242SOL    HW131336  12.337  12.081   0.994 -1.0838  0.4937  2.7437
71242SOL    HW231337  12.214  11.994   0.984 -0.0949 -0.6557 -1.1586
71243SOL     OW31338   0.405   8.411   3.533 -0.2693 -0.2675 -0.3007
71243SOL    HW131339   0.386   8.488   3.480 -0.8939  0.8415  1.4413
71243SOL    HW231340   0.366   8.430   3.619  1.1023 -1.7579  0.7322
71244SOL     OW31341   0.835   0.255  12.967 -0.3865  0.1364 -0.9268
71244SOL    HW131342   0.803   0.329  13.019  0.2037 -1.2115  1.4848
71244SOL    HW231343   0.760   0.196  12.961  0.6464 -1.7335  2.3335
71245SOL     OW31344   2.756   6.285   3.129  0.1432  0.5999  0.1681
71245SOL    HW131345   2.695   6.235   3.074 -0.9638  1.2780  0.7551
71245SOL    HW231346   2.836   6.232   3.130  0.0904  0.4007 -1.8227
71246SOL     OW31347   7.427  10.219   4.761 -0.6690 -0.1732  0.3070
71246SOL    HW131348   7.337  10.187   4.770 -0.1422 -1.3405  1.8447
71246SOL    HW231349   7.423  10.310   4.792 -1.8389  0.8232 -2.4618
71247SOL     OW31350  11.156   3.735   5.475  0.0948 -0.0818 -0.1677
71247SOL    HW131351  11.171   3.676   5.401 -0.1649 -0.3166 -0.0325
71247SOL    HW231352  11.096   3.688   5.532  2.2871 -1.0390  1.5203
71248SOL     OW31353  12.541   7.577   3.671 -0.0846  0.1246 -0.6376
71248SOL    HW131354  12.623   7.541   3.706 -0.5753 -1.2613 -0.8238
71248SOL    HW231355  12.508   7.634   3.740  1.1115  0.8548 -0.6330
71249SOL     OW31356  10.561   2.522  12.812 -0.0306 -0.0261  0.0879
71249SOL    HW131357  10.600   2.437  12.790  0.3895  0.0198  0.6349
71249SOL    HW231358  10.501   2.540  12.740 -0.0587 -0.7515 -0.0775
71250SOL     OW31359  11.002  11.140  11.361 -0.4495  0.3054 -0.4303
71250SOL    HW131360  11.052  11.059  11.353  0.1806  0.5263  1.0503
71250SOL    HW231361  10.915  11.112  11.388 -0.0605  0.1370  0.6992
71251SOL     OW31362   3.804   4.372   8.824 -0.1128 -0.0439  0.5002
71251SOL    HW131363   3.780   4.426   8.748 -1.2749 -2.2799 -0.8284
71251SOL    HW231364   3.734   4.308   8.830  0.9155 -1.0640  2.3795
71252SOL     OW31365  10.901   9.108   6.490 -0.1958  0.0019 -0.3811
71252SOL    HW131366  10.996   9.099   6.486 -0.1911  0.3550 -1.3040
71252SOL    HW231367  10.886   9.202   6.491 -0.5031 -0.0301  1.3186
71253SOL     OW31368   2.819   7.418   9.623  0.4546 -0.2326 -0.2539
71253SOL    HW131369   2.817   7.370   9.706  0.0533  1.8423  1.0069
71253SOL    HW231370   2.757   7.371   9.567  0.3369 -1.3762  0.7729
71254SOL     OW31371   5.885   5.412   1.084  0.6771 -0.0636 -0.0290
71254SOL    HW131372   5.817   5.409   1.016  2.0784 -0.5122 -1.4764
71254SOL    HW231373   5.956   5.463   1.044  1.9369 -1.1876  0.6839
71255SOL     OW31374  13.059  10.698  11.649 -0.4884 -0.2573  0.5205
71255SOL    HW131375  13.059  10.793  11.643 -1.3966 -0.3175 -2.1260
71255SOL    HW231376  12.982  10.671  11.599  1.9287 -2.4233 -2.4960
71256SOL     OW31377   3.667   7.833   0.265  0.6382 -0.4252  0.3004
71256SOL    HW131378   3.675   7.827   0.170  0.2551  1.4472  0.1238
71256SOL    HW231379   3.723   7.906   0.290 -2.4745  1.9371  0.9626
71257SOL     OW31380   4.225   6.541   3.115  0.4979  0.0438  0.1751
71257SOL    HW131381   4.236   6.624   3.069  0.8474  0.1739  0.4923
71257SOL    HW231382   4.277   6.550   3.195  0.3717 -0.4034  0.3126
71258SOL     OW31383   9.013   9.070   5.406 -0.0891 -0.6294 -0.2731
71258SOL    HW131384   8.974   9.158   5.412  1.8069  0.1837  1.1897
71258SOL    HW231385   9.087   9.081   5.346 -1.8183 -2.1014 -2.8442
71259SOL     OW31386  13.032   0.138   7.181 -0.5836 -0.2330  0.1891
71259SOL    HW131387  13.027   0.049   7.215 -1.3462 -0.3600 -0.2208
71259SOL    HW231388  12.995   0.192   7.251 -0.2374 -0.2474  0.3873
71260SOL     OW31389   0.212   2.422   2.596  0.0765  0.3307  0.0393
71260SOL    HW131390   0.118   2.435   2.613 -0.0899  1.3384 -1.4341
71260SOL    HW231391   0.237   2.498   2.544  1.4682 -0.4628 -0.4978
71261SOL     OW31392  11.962   3.719   0.941  0.0891  0.5799 -0.6984
71261SOL    HW131393  12.030   3.674   0.991  0.4098  0.9578 -0.7914
71261SOL    HW231394  12.008   3.756   0.866 -0.1829  1.0280 -0.6443
71262SOL     OW31395   2.384   1.525   3.242 -0.2014  0.8297 -0.1198
71262SOL    HW131396   2.474   1.554   3.226 -0.2020  0.4147 -0.9491
71262SOL    HW231397   2.392   1.432   3.261 -0.3880  0.9452  0.5288
71263SOL     OW31398   8.421  13.987   4.269 -0.0841  0.3164 -0.3900
71263SOL    HW131399   8.360  13.984   4.195  0.0257  1.5429 -0.5571
71263SOL    HW231400   8.430  14.080   4.288  0.8465  0.0816  0.3845
71264SOL     OW31401   8.975  11.772   4.478  0.2785 -0.1860 -0.1535
71264SOL    HW131402   8.972  11.851   4.532  0.9633  0.7723 -1.4894
71264SOL    HW231403   8.985  11.701   4.542 -0.9813  0.7106  1.1178
71265SOL     OW31404  11.637   8.053  13.946 -0.1079 -0.0442 -0.2922
71265SOL    HW131405  11.656   7.985  13.881  2.2618 -0.3350  0.6033
71265SOL    HW231406  11.632   8.006  14.029 -2.0782  0.4621 -0.0743
71266SOL     OW31407   9.395   4.815   1.040  0.0682 -0.1541  0.3644
71266SOL    HW131408   9.337   4.744   1.012 -1.1732  0.3962  1.4431
71266SOL    HW231409   9.368   4.890   0.987 -0.7972  0.3156  1.4277
71267SOL     OW31410   7.105   8.700   0.470  0.7578  0.4615 -0.2332
71267SOL    HW131411   7.134   8.623   0.520 -0.3636 -0.1530 -0.5077
71267SOL    HW231412   7.010   8.702   0.482  0.8625  2.5031  0.7491
71268SOL     OW31413   3.520   8.686   5.440  0.3515 -0.0180 -0.0111
71268SOL    HW131414   3.480   8.614   5.486 -1.6115  1.0659  0.0705
71268SOL    HW231415   3.450   8.722   5.385  1.5720  1.1127 -0.9037
71269SOL     OW31416   4.686   1.431   8.585  0.5193 -0.0561 -0.1909
71269SOL    HW131417   4.616   1.470   8.533  0.1706  1.2940  1.2411
71269SOL    HW231418   4.717   1.501   8.642  1.5231 -1.2316  0.7865
71270SOL     OW31419   3.273   6.004   7.467 -0.1376 -0.3563  0.1785
71270SOL    HW131420   3.258   6.069   7.535 -0.3330  0.5320 -0.6958
71270SOL    HW231421   3.368   6.001   7.456 -0.0062 -1.5001  1.4231
71271SOL     OW31422   6.574   8.153   4.547 -0.1667 -0.1751  0.1496
71271SOL    HW131423   6.497   8.145   4.491  0.3634  1.4021 -0.8646
71271SOL    HW231424   6.599   8.245   4.541  1.0694 -0.3909  1.4438
71272SOL     OW31425   8.087  13.489   5.163  0.2868 -0.5375  0.6902
71272SOL    HW131426   8.047  13.570   5.193  0.8348 -0.1044  0.2853
71272SOL    HW231427   8.044  13.470   5.080 -0.1530 -0.9081  0.9976
71273SOL     OW31428  12.087   4.805  12.729  0.6923  0.1410  0.2268
71273SOL    HW131429  12.158   4.818  12.667  1.6475 -1.8986  0.7994
71273SOL    HW231430  12.117   4.732  12.784 -1.7665 -0.6917  0.5765
71274SOL     OW31431   1.704   0.905   8.864  0.2126  0.3227 -0.2350
71274SOL    HW131432   1.777   0.843   8.863 -0.1714 -0.1363 -0.1523
71274SOL    HW231433   1.659   0.890   8.781 -0.7862 -0.6135  0.4487
71275SOL     OW31434   0.021   7.995  11.497  0.0419 -0.2474 -0.1512
71275SOL    HW131435   0.110   8.017  11.525 -0.3895  0.6534  0.5294
71275SOL    HW231436   0.033   7.953  11.411  0.9495  2.0470 -1.2122
71276SOL     OW31437  12.517   3.675   4.527  0.6334 -0.2927  1.1184
71276SOL    HW131438  12.596   3.623   4.543  0.9652  0.0944  0.7311
71276SOL    HW231439  12.465   3.620   4.469  0.9686 -0.2146  0.7390
71277SOL     OW31440  12.515   1.869   4.832 -0.1990 -0.1862  0.5263
71277SOL    HW131441  12.526   1.804   4.763  0.6671  0.9290 -0.4269
71277SOL    HW231442  12.561   1.947   4.800 -1.9113  1.1857  1.2470
71278SOL     OW31443   2.685   0.040   8.217  0.6253  0.2107 -0.4687
71278SOL    HW131444   2.750   0.100   8.180  0.7736  0.0078 -0.5372
71278SOL    HW231445   2.619   0.031   8.148 -0.3170  1.6716  0.1735
71279SOL     OW31446   1.988   5.824   2.524  0.3956  0.6301 -0.6061
71279SOL    HW131447   2.036   5.746   2.551  1.3129  1.1590 -0.6631
71279SOL    HW231448   1.978   5.875   2.604  0.7287  0.9396 -0.7606
71280SOL     OW31449   0.202   4.665  11.867 -0.2884  0.1426  0.4687
71280SOL    HW131450   0.206   4.760  11.854  0.0402  0.3491  1.8601
71280SOL    HW231451   0.138   4.654  11.937  0.7225 -0.5254  1.3206
71281SOL     OW31452  10.233   1.109  12.767  0.4660 -0.4343  0.6879
71281SOL    HW131453  10.198   1.147  12.847  1.5446  0.3158  0.8299
71281SOL    HW231454  10.325   1.091  12.788  0.6976 -0.4572 -0.3059
71282SOL     OW31455   2.400  10.900   9.168 -0.1898  0.5258 -0.8112
71282SOL    HW131456   2.481  10.933   9.129  0.6873 -0.7761 -0.1325
71282SOL    HW231457   2.405  10.926   9.260 -1.6592  2.4598 -1.2098
71283SOL     OW31458   3.864   6.575   4.131  0.1116  0.4094 -0.7751
71283SOL    HW131459   3.779   6.609   4.103  0.1844  0.0905 -1.3977
71283SOL    HW231460   3.910   6.651   4.165 -0.6921  0.4527  0.2467
71284SOL     OW31461   2.093   9.238  12.329 -0.3627  0.2773  0.1504
71284SOL    HW131462   2.098   9.332  12.348  0.0444  0.2991 -0.0497
71284SOL    HW231463   2.107   9.196  12.414  4.4656  0.3120 -0.3724
71285SOL     OW31464   2.676   2.130  13.528  0.1474 -0.1523  0.1527
71285SOL    HW131465   2.667   2.224  13.541  1.3047 -0.0040  0.0038
71285SOL    HW231466   2.622   2.110  13.452  0.4299  0.5025 -0.2213
71286SOL     OW31467   6.028   1.730   1.706  0.1584  0.7653 -0.2784
71286SOL    HW131468   6.033   1.706   1.614 -1.6556 -1.7287  0.1663
71286SOL    HW231469   5.949   1.784   1.713  0.1038  0.6706 -0.1539
71287SOL     OW31470   9.415   0.244   4.743 -0.2998 -0.0179 -0.1460
71287SOL    HW131471   9.392   0.313   4.805 -1.4331 -0.6972  0.2190
71287SOL    HW231472   9.356   0.172   4.764  2.5920 -2.1916  1.2807
71288SOL     OW31473   8.957  12.298   6.037 -0.2431  0.1173 -0.3919
71288SOL    HW131474   8.955  12.203   6.022 -0.6690  0.2263 -1.0955
71288SOL    HW231475   8.882  12.314   6.095 -0.2466  0.0394 -0.3744
71289SOL     OW31476   5.593   0.510   5.766 -0.6507 -0.2641  1.0453
71289SOL    HW131477   5.558   0.520   5.677  0.8553 -1.4190  0.2794
71289SOL    HW231478   5.614   0.599   5.793  1.6864 -0.1015 -0.9860
71290SOL     OW31479   5.859  13.109   8.072 -0.5879  0.3786  0.1093
71290SOL    HW131480   5.786  13.154   8.115 -0.5444 -0.8768  1.6214
71290SOL    HW231481   5.881  13.164   7.998 -2.6633  1.1179 -0.0302
71291SOL     OW31482   6.842   4.727   4.548 -0.6768 -0.3403 -0.1954
71291SOL    HW131483   6.796   4.801   4.588  0.8179  0.1096  0.8083
71291SOL    HW231484   6.773   4.667   4.522 -1.9066  1.1149 -0.4556
71292SOL     OW31485   6.492  13.411   5.686 -0.0253 -1.0347 -0.2201
71292SOL    HW131486   6.483  13.416   5.591 -1.5198 -1.1015 -0.0958
71292SOL    HW231487   6.470  13.321   5.708  3.6756 -2.0990 -0.0879
71293SOL     OW31488   8.329   8.988  11.580 -0.0506 -0.1405 -0.1107
71293SOL    HW131489   8.415   8.992  11.620  0.1522  3.7023 -0.5044
71293SOL    HW231490   8.340   8.934  11.503  1.7276 -0.6100  0.4421
71294SOL     OW31491   4.033   0.751   3.787 -0.5447  0.4699 -0.1051
71294SOL    HW131492   4.097   0.738   3.857 -0.9850  0.3468  0.2825
71294SOL    HW231493   3.967   0.809   3.825 -0.4386  0.9561 -0.6484
71295SOL     OW31494   1.746   1.154   4.024  0.2647 -0.1948  0.1806
71295SOL    HW131495   1.696   1.113   3.953 -0.6196 -1.4242  1.4524
71295SOL    HW231496   1.788   1.080   4.069  0.7920  0.5571  0.9494
71296SOL     OW31497   8.838  12.437   2.954 -0.4368  0.0743 -0.2116
71296SOL    HW131498   8.813  12.376   3.023  1.5199 -2.1385 -1.3070
71296SOL    HW231499   8.792  12.406   2.876  0.9358 -0.3170 -0.8904
71297SOL     OW31500   8.540  12.473  13.573 -0.2612 -0.4250 -0.4709
71297SOL    HW131501   8.539  12.384  13.539 -0.8315 -0.4360 -0.4289
71297SOL    HW231502   8.478  12.472  13.646  1.4610 -0.6056  1.0890
71298SOL     OW31503   8.896  10.921  12.528 -0.3525 -0.4982  0.1987
71298SOL    HW131504   8.870  10.831  12.544 -1.1066 -0.4924 -0.8444
71298SOL    HW231505   8.885  10.933  12.433  1.5333  0.1363 -0.0020
71299SOL     OW31506  13.366   9.767   2.135  0.4720  0.1361 -0.0770
71299SOL    HW131507  13.373   9.863   2.138  1.0739  0.1326 -0.9821
71299SOL    HW231508  13.429   9.737   2.200  0.8436  0.3403 -0.3397
71300SOL     OW31509   6.524  14.070   6.093 -0.4492  0.0561 -0.1676
71300SOL    HW131510   6.471  14.003   6.050 -0.3895  0.0328 -0.2051
71300SOL    HW231511   6.464  14.112   6.154 -1.2996  1.8616 -2.1034
71301SOL     OW31512   9.470  12.844   0.052  0.4828  0.0628  0.3478
71301SOL    HW131513   9.479  12.778   0.121 -0.5115 -0.8691 -0.3895
71301SOL    HW231514   9.507  12.923   0.091  0.7192 -0.6470  1.6465
71302SOL     OW31515  11.389  12.536   8.351  0.1181 -0.1489 -0.0859
71302SOL    HW131516  11.296  12.516   8.359 -0.1750  0.9172 -0.5660
71302SOL    HW231517  11.398  12.574   8.263  0.7088  1.1168  0.4870
71303SOL     OW31518  13.045   4.641  12.348  0.5382 -0.2857 -0.6443
71303SOL    HW131519  13.100   4.706  12.305 -0.3960  0.1691 -1.1748
71303SOL    HW231520  12.968   4.689  12.377  1.4225 -0.4334  2.1883
71304SOL     OW31521   3.991   6.478   5.200  0.0613  0.1716 -0.4738
71304SOL    HW131522   4.010   6.570   5.184  0.4960 -0.0522 -1.3019
71304SOL    HW231523   3.903   6.465   5.164  0.0533  0.2266 -0.4741
71305SOL     OW31524   8.768   3.967   5.851 -0.0208  0.0257  0.5831
71305SOL    HW131525   8.801   3.989   5.938  0.1698  0.9879  0.2817
71305SOL    HW231526   8.841   3.987   5.793  0.2719 -1.7373  0.3017
71306SOL     OW31527  13.285   2.367   6.119 -0.1259  0.2993 -0.0678
71306SOL    HW131528  13.218   2.426   6.085  0.1863  1.0229  0.5456
71306SOL    HW231529  13.362   2.422   6.131  0.9052 -0.7044 -1.6343
71307SOL     OW31530   6.385   0.658   0.111 -0.2596 -0.0728 -0.0564
71307SOL    HW131531   6.376   0.745   0.074  0.1697  0.2666  0.6082
71307SOL    HW231532   6.336   0.661   0.193  1.0015  0.0297  0.7227
71308SOL     OW31533   1.214  13.939   4.578  0.0069 -0.1278 -0.3477
71308SOL    HW131534   1.126  13.940   4.615 -0.2121  2.5739 -0.6863
71308SOL    HW231535   1.200  13.949   4.483  0.6520 -0.5230 -0.4891
71309SOL     OW31536  10.868  11.071   4.319  0.2390  0.8171 -0.3014
71309SOL    HW131537  10.778  11.045   4.297 -0.2074  1.1680  0.9867
71309SOL    HW231538  10.898  11.004   4.381  0.1766  1.6804  0.6951
71310SOL     OW31539   7.362   1.690  13.731  0.6382 -0.2842  0.1793
71310SOL    HW131540   7.405   1.771  13.761 -1.1956  0.2504  1.5231
71310SOL    HW231541   7.399   1.622  13.786  0.9118 -0.0972  0.2317
71311SOL     OW31542  12.324   5.039   3.645 -0.2862  0.4302  0.2183
71311SOL    HW131543  12.268   5.011   3.718  1.1545 -1.4728  0.6429
71311SOL    HW231544  12.265   5.089   3.589 -1.3939  2.3421  2.8257
71312SOL     OW31545   3.391   1.872  12.854  0.3556 -0.7325 -0.0641
71312SOL    HW131546   3.451   1.804  12.822 -2.3636 -3.0760 -0.5933
71312SOL    HW231547   3.329   1.825  12.910 -1.0336  1.5272  0.4156
71313SOL     OW31548   9.589  13.398   7.693 -0.0240 -0.0989  0.2822
71313SOL    HW131549   9.645  13.430   7.622 -0.3927  3.0732  1.2876
71313SOL    HW231550   9.556  13.314   7.661  0.7394  0.6518 -2.7881
71314SOL     OW31551  13.912   1.921  10.343  0.3672 -1.3356 -0.2016
71314SOL    HW131552  13.870   2.004  10.321  0.2621 -1.5817 -0.9510
71314SOL    HW231553  13.906   1.916  10.438  1.5129  0.1068 -0.0183
71315SOL     OW31554   5.469  13.294   1.624  0.0254 -0.6409  0.7542
71315SOL    HW131555   5.511  13.348   1.691  0.4227  0.3626 -0.2709
71315SOL    HW231556   5.538  13.237   1.592  0.6740  0.9240 -0.8439
71316SOL     OW31557  13.053  13.450  13.775  0.4165 -0.2596  0.1804
71316SOL    HW131558  13.006  13.532  13.762  1.7896  0.9241  1.9992
71316SOL    HW231559  12.986  13.387  13.800 -0.6043  0.4603 -0.6874
71317SOL     OW31560   9.258   8.747   8.815 -0.5398  0.2825  0.0759
71317SOL    HW131561   9.261   8.722   8.723  0.5955  0.3293  0.0945
71317SOL    HW231562   9.344   8.784   8.833 -0.9679  0.8626  0.9961
71318SOL     OW31563   7.260   2.417  10.111 -0.3590  0.3517  0.4605
71318SOL    HW131564   7.324   2.488  10.108 -1.3991  1.3176  0.1004
71318SOL    HW231565   7.293   2.352  10.049  0.1839  0.9177  0.1472
71319SOL     OW31566  11.674  10.529   8.337 -0.2094 -0.0238 -0.5602
71319SOL    HW131567  11.769  10.541   8.340 -0.2057 -0.0004 -0.7943
71319SOL    HW231568  11.640  10.602   8.388 -0.0236 -1.0986  1.2177
71320SOL     OW31569   1.114   8.347   6.367 -0.9651  0.1276 -0.6548
71320SOL    HW131570   1.144   8.263   6.403 -1.3286 -0.2437 -1.2125
71320SOL    HW231571   1.131   8.341   6.273 -1.6224  0.4056 -0.7975
71321SOL     OW31572   5.104   3.886  10.357  0.1274 -0.0862 -0.3877
71321SOL    HW131573   5.097   3.827  10.282 -2.5152  1.6807 -1.6779
71321SOL    HW231574   5.046   3.848  10.423 -2.0326  1.1721 -1.4276
71322SOL     OW31575   5.859   8.084   1.318  0.1440 -0.3551  0.1414
71322SOL    HW131576   5.886   8.048   1.234  0.1812 -2.2549  0.9140
71322SOL    HW231577   5.895   8.173   1.319 -1.0664  0.2611 -2.4123
71323SOL     OW31578   0.526   7.580   5.316  0.4236  0.2179  0.3818
71323SOL    HW131579   0.491   7.497   5.350  1.7244 -0.0870  1.0268
71323SOL    HW231580   0.595   7.604   5.377  2.8996 -0.3709 -1.9839
71324SOL     OW31581   3.134  13.388   8.447 -0.2797  0.1769  0.1523
71324SOL    HW131582   3.181  13.306   8.430  0.7473  0.4990  1.2698
71324SOL    HW231583   3.049  13.376   8.406  0.1300 -1.1538 -0.3635
71325SOL     OW31584   1.722   3.993   1.387 -0.2577  0.4530  0.2458
71325SOL    HW131585   1.669   3.966   1.461  1.0641  3.1675  2.3662
71325SOL    HW231586   1.694   4.083   1.368  0.8686  0.5442 -1.1738
71326SOL     OW31587   4.003   0.348   3.085  0.3172  0.2237  0.1677
71326SOL    HW131588   4.069   0.349   3.155 -0.8335 -2.7393  1.4840
71326SOL    HW231589   4.054   0.343   3.005  1.7954 -1.2768  1.1176
71327SOL     OW31590  12.157   2.744   5.281  0.5353 -0.5681 -0.1166
71327SOL    HW131591  12.218   2.814   5.256  1.9292 -1.5858  0.2768
71327SOL    HW231592  12.214   2.669   5.298 -0.8002 -1.3907  0.8797
71328SOL     OW31593   1.071   3.711   7.619  0.5430  0.3788 -0.0388
71328SOL    HW131594   1.101   3.799   7.594 -1.2301  0.4839 -2.0769
71328SOL    HW231595   1.148   3.656   7.611  1.5512  1.6165  0.6844
71329SOL     OW31596  11.337  10.035   7.392 -0.3777 -0.4304 -0.5421
71329SOL    HW131597  11.366   9.949   7.424  1.1786  0.6286  1.0941
71329SOL    HW231598  11.247  10.043   7.423 -0.3360 -1.2288 -0.1847
71330SOL     OW31599   6.384   6.452   2.979 -0.3253 -0.0673  0.5155
71330SOL    HW131600   6.427   6.472   2.896  0.7380 -0.5276  0.9454
71330SOL    HW231601   6.307   6.510   2.980 -1.0297 -0.8862 -1.3243
71331SOL     OW31602  12.158  10.410   2.724 -0.1022 -0.4435 -0.6457
71331SOL    HW131603  12.248  10.417   2.757 -0.2418 -0.9720 -0.1341
71331SOL    HW231604  12.141  10.316   2.722 -0.9944 -0.3096  0.2259
71332SOL     OW31605  10.242   5.135   3.765  0.4916  0.2812 -0.3419
71332SOL    HW131606  10.221   5.222   3.731  1.2883  0.7525  0.3374
71332SOL    HW231607  10.181   5.077   3.720 -2.3587  1.5585  1.6077
71333SOL     OW31608   8.168  13.487   5.483  0.1599  0.1952 -0.2867
71333SOL    HW131609   8.073  13.479   5.478  0.2540 -0.6073 -0.9747
71333SOL    HW231610   8.201  13.406   5.445  1.1181 -0.1435  1.1524
71334SOL     OW31611   4.971   8.875  12.206  0.1501  0.3010  0.2943
71334SOL    HW131612   4.934   8.836  12.127 -0.1522 -1.1847  1.1300
71334SOL    HW231613   5.063   8.892  12.185  0.2442 -0.7281 -0.1553
71335SOL     OW31614   9.259   8.369  12.941 -0.0730 -0.0180  0.1524
71335SOL    HW131615   9.307   8.363  13.024 -0.6485  0.7792  0.5484
71335SOL    HW231616   9.263   8.280  12.905  0.3311 -0.3330  0.9488
71336SOL     OW31617   2.037   8.092   7.178 -0.0162  0.3829  0.4845
71336SOL    HW131618   1.963   8.138   7.218 -0.2483  1.9977 -1.6553
71336SOL    HW231619   2.006   8.065   7.092  2.1923  2.4012 -1.1153
71337SOL     OW31620   5.329  11.418   8.483 -0.3773 -0.3788 -0.3007
71337SOL    HW131621   5.400  11.354   8.491 -1.1984 -1.7419 -2.7259
71337SOL    HW231622   5.249  11.365   8.484 -1.1490  0.7193 -1.2835
71338SOL     OW31623  12.663   7.845  13.532 -0.5600  0.1069  0.4043
71338SOL    HW131624  12.658   7.914  13.597 -0.4042  1.2916 -0.8010
71338SOL    HW231625  12.572   7.819  13.517 -0.6718  0.4970  0.4041
71339SOL     OW31626   9.145   4.665   6.425  0.1147  0.3727  0.0879
71339SOL    HW131627   9.136   4.736   6.489 -0.0552  0.5748 -0.1561
71339SOL    HW231628   9.236   4.636   6.433 -0.3280 -0.7391  1.5956
71340SOL     OW31629   0.239  13.150  12.263  0.5790 -0.4417  0.0517
71340SOL    HW131630   0.170  13.104  12.310  1.0860 -1.1211  0.1503
71340SOL    HW231631   0.256  13.096  12.186  1.3252 -0.5336  0.2734
71341SOL     OW31632   4.291  14.069   9.611  0.2092  0.1629 -0.2179
71341SOL    HW131633   4.329  14.143   9.659 -2.3403  2.3213 -1.2843
71341SOL    HW231634   4.351  13.997   9.628  0.7623  1.3695  4.2043
71342SOL     OW31635  12.717  13.461   8.871  0.1740  0.2205 -0.3270
71342SOL    HW131636  12.805  13.439   8.839  1.1369  0.2605  2.0854
71342SOL    HW231637  12.698  13.546   8.831  0.8007 -0.2262 -1.6327
71343SOL     OW31638   2.587   5.967   0.995 -0.5986  0.5983 -0.5252
71343SOL    HW131639   2.539   5.985   1.076 -0.1614  0.5071 -0.2406
71343SOL    HW231640   2.522   5.928   0.936 -0.9135  0.6430 -0.2117
71344SOL     OW31641   6.823  12.068   6.082 -0.3209  0.3295 -0.5414
71344SOL    HW131642   6.904  12.035   6.045  0.4185  1.0909  0.3464
71344SOL    HW231643   6.847  12.098   6.170 -1.5624  0.5417 -0.2567
71345SOL     OW31644   6.528   2.248   8.207 -0.3735  0.3639  0.3008
71345SOL    HW131645   6.490   2.201   8.282 -2.6196  1.9191  0.2291
71345SOL    HW231646   6.473   2.325   8.196  3.4181  3.4826  0.7943
71346SOL     OW31647   1.383   6.778   2.316 -0.4494 -0.1045 -0.0842
71346SOL    HW131648   1.289   6.792   2.321 -0.2333  2.2028 -1.0895
71346SOL    HW231649   1.395   6.718   2.243 -1.1258 -0.3162 -0.0244
71347SOL     OW31650   7.057  11.990  11.388 -0.0196  0.0229  0.2928
71347SOL    HW131651   7.145  12.008  11.355  0.8936  1.7648  3.2759
71347SOL    HW231652   7.071  11.934  11.464 -1.8868 -2.6196 -1.1615
71348SOL     OW31653   8.612  10.795   9.240 -0.1880 -0.1925  0.2086
71348SOL    HW131654   8.647  10.832   9.159  0.7199 -1.5214 -0.0305
71348SOL    HW231655   8.686  10.749   9.279 -0.8215 -0.2113  1.4163
71349SOL     OW31656  13.567   4.197   8.546 -0.1863 -0.6102 -0.3140
71349SOL    HW131657  13.654   4.230   8.570 -0.6546 -0.2633  0.9653
71349SOL    HW231658  13.584   4.140   8.471  1.0271  0.1660 -0.6686
71350SOL     OW31659   8.187   4.005   1.765 -0.1452 -0.3795  0.1369
71350SOL    HW131660   8.256   4.069   1.744 -2.2334  2.3409  1.0661
71350SOL    HW231661   8.118   4.022   1.701 -1.1720 -1.0403  1.0393
71351SOL     OW31662   4.143   4.727  10.482  0.5785  0.3255  0.2513
71351SOL    HW131663   4.132   4.787  10.555  1.6416 -0.1439  0.8338
71351SOL    HW231664   4.073   4.663  10.492 -0.8530  1.6956 -0.6498
71352SOL     OW31665   3.366   4.135   9.422  0.1800  0.4110  0.0275
71352SOL    HW131666   3.439   4.108   9.367 -0.2628  1.0429 -0.9149
71352SOL    HW231667   3.405   4.153   9.507  0.8245 -0.9562  0.0430
71353SOL     OW31668  13.156   1.862   1.481  0.1827 -0.2843 -0.0559
71353SOL    HW131669  13.213   1.908   1.419  0.4296  0.9366  1.0362
71353SOL    HW231670  13.166   1.910   1.563 -0.4452 -1.6254  0.8384
71354SOL     OW31671   8.258  11.818  11.001  0.1990 -0.3832 -0.1566
71354SOL    HW131672   8.324  11.853  11.060  0.2152 -1.0441  0.2181
71354SOL    HW231673   8.284  11.728  10.984 -0.1262 -0.3843 -0.7101
71355SOL     OW31674   5.316   0.934   2.708  0.0059  0.1742 -0.3972
71355SOL    HW131675   5.244   0.992   2.732  0.0469  0.3219 -0.6336
71355SOL    HW231676   5.273   0.854   2.676 -0.0524 -0.1703  0.5091
71356SOL     OW31677   2.679   0.342   4.561 -0.0023  0.5379  0.7675
71356SOL    HW131678   2.682   0.401   4.636  2.7216  0.9140  0.4456
71356SOL    HW231679   2.753   0.283   4.574  0.0647  0.1155 -1.2481
71357SOL     OW31680   9.255   4.591   0.230 -0.1328 -0.2138  0.2820
71357SOL    HW131681   9.323   4.652   0.201 -0.1076 -1.0048 -1.4331
71357SOL    HW231682   9.245   4.530   0.157 -1.7416 -0.9180  1.0486
71358SOL     OW31683   6.542  10.764   7.553 -0.1889 -0.2583 -0.7805
71358SOL    HW131684   6.592  10.741   7.632  0.1490  1.6401 -0.3973
71358SOL    HW231685   6.602  10.819   7.502 -1.9449  2.4516 -0.0973
71359SOL     OW31686  13.127  10.329   0.212  0.0552  0.2396  0.1949
71359SOL    HW131687  13.052  10.319   0.154  1.2557  0.1931 -1.4151
71359SOL    HW231688  13.091  10.316   0.300 -1.2374 -3.0793 -0.6807
71360SOL     OW31689   8.410   4.685   1.203  0.1077 -0.1511  0.1791
71360SOL    HW131690   8.441   4.597   1.183  0.8262  0.5046 -1.8091
71360SOL    HW231691   8.485   4.742   1.186 -0.6701  0.9508  0.3280
71361SOL     OW31692  13.268   3.245   0.783 -0.4441 -0.5553  0.5434
71361SOL    HW131693  13.207   3.182   0.744 -0.7405  0.6206 -0.9258
71361SOL    HW231694  13.213   3.298   0.841 -1.1760  1.3222 -1.7110
71362SOL     OW31695  13.283   8.670   4.899 -0.4371  0.1128 -0.0684
71362SOL    HW131696  13.295   8.764   4.913  0.0199  0.3943 -2.0420
71362SOL    HW231697  13.208   8.664   4.840  1.6967 -0.4501 -2.9464
71363SOL     OW31698   5.494   6.122  12.041 -0.2476  0.3208 -0.5293
71363SOL    HW131699   5.561   6.072  12.088 -1.0422  0.9122  1.3195
71363SOL    HW231700   5.455   6.058  11.981  0.7698 -0.4866 -0.3632
71364SOL     OW31701   6.425  12.020   4.478  0.3163  0.2261 -0.1241
71364SOL    HW131702   6.372  11.969   4.416  2.3676 -1.1928 -0.8165
71364SOL    HW231703   6.443  12.102   4.431  1.9187 -0.8624 -1.5451
71365SOL     OW31704   0.669   0.370   0.796 -0.2505 -0.0702 -0.3881
71365SOL    HW131705   0.604   0.303   0.816  0.2675 -0.5328 -0.2249
71365SOL    HW231706   0.700   0.399   0.882 -1.1551  1.0655 -0.4311
71366SOL     OW31707  14.014   9.187   4.021  0.3330 -0.0908  0.7476
71366SOL    HW131708  13.972   9.223   3.943  0.1104 -0.8564  0.5148
71366SOL    HW231709  13.975   9.237   4.093 -0.1261 -0.0058  0.4431
71367SOL     OW31710   8.489  13.983  10.019  0.3294 -0.4751 -0.4032
71367SOL    HW131711   8.506  14.076  10.010  0.7681 -0.5515 -0.3999
71367SOL    HW231712   8.393  13.975  10.016  0.3162 -0.0953 -1.0900
71368SOL     OW31713  13.987   8.623   3.656 -0.5893 -0.2469 -0.0971
71368SOL    HW131714  14.005   8.533   3.631 -1.0882 -0.1696 -0.7823
71368SOL    HW231715  14.013   8.675   3.579  2.3537  0.5101  1.2690
71369SOL     OW31716   1.976   3.340   7.954 -0.1992  0.5522 -0.3692
71369SOL    HW131717   1.903   3.282   7.933  0.1753  0.1698 -0.6220
71369SOL    HW231718   1.943   3.395   8.025 -0.1502 -0.7886  0.7332
71370SOL     OW31719   4.238  10.736  13.745 -0.6738  0.4295  0.0854
71370SOL    HW131720   4.226  10.715  13.838 -0.4899  2.5446  0.6403
71370SOL    HW231721   4.264  10.828  13.745  1.1299  0.0079 -1.9628
71371SOL     OW31722  12.087   2.951   8.030 -0.3517  0.2226  0.0672
71371SOL    HW131723  12.031   3.023   8.000 -0.3708  0.7912  1.4278
71371SOL    HW231724  12.081   2.952   8.125  1.1646 -0.3680  0.2092
71372SOL     OW31725   2.001   3.679   8.263 -0.4454  0.5954  0.2757
71372SOL    HW131726   1.952   3.597   8.253 -1.5275  1.2578  0.0495
71372SOL    HW231727   2.022   3.705   8.173 -0.2094  0.6403  0.3434
71373SOL     OW31728  13.371   3.926   1.946  0.0937  0.6045  0.1055
71373SOL    HW131729  13.432   3.853   1.961  0.3326  0.4783 -1.3475
71373SOL    HW231730  13.427   4.003   1.935 -0.0921  0.7635  0.2607
71374SOL     OW31731   6.177   1.640  13.520 -0.4703  0.3721  0.7179
71374SOL    HW131732   6.174   1.547  13.541 -1.0300 -0.1292 -1.3937
71374SOL    HW231733   6.089   1.661  13.490 -0.1116  1.3757  0.3414
71375SOL     OW31734   3.768   5.877  12.648  0.1735  0.6467  0.1827
71375SOL    HW131735   3.677   5.902  12.633  0.2508  1.1463  0.5050
71375SOL    HW231736   3.779   5.795  12.601 -0.2117  1.0146 -0.5620
71376SOL     OW31737   7.754   4.343   4.356  0.6075  0.5009 -0.1019
71376SOL    HW131738   7.716   4.398   4.288 -1.1048 -0.1059  0.3129
71376SOL    HW231739   7.703   4.364   4.435  1.1064 -0.3800  0.4727
71377SOL     OW31740   4.836   1.839   2.180  0.1550  0.1176  0.7415
71377SOL    HW131741   4.923   1.871   2.158  0.2795 -1.0566 -0.6151
71377SOL    HW231742   4.776   1.906   2.146  0.4630 -0.2826 -0.6672
71378SOL     OW31743   8.955  12.205   0.111  0.3002 -0.3059 -0.0781
71378SOL    HW131744   8.950  12.240   0.022  1.2741 -0.4059 -0.1893
71378SOL    HW231745   9.001  12.273   0.161  1.3618 -0.9895 -0.0805
71379SOL     OW31746   1.533  13.591   1.992 -0.0577  0.0420  1.0678
71379SOL    HW131747   1.626  13.609   1.977 -0.5072  1.3318 -0.4116
71379SOL    HW231748   1.514  13.632   2.076  0.6146  0.1532  1.1698
71380SOL     OW31749   6.129   1.435  11.295  0.1895  0.4728 -0.3099
71380SOL    HW131750   6.133   1.340  11.310 -1.6679  0.7233  2.5978
71380SOL    HW231751   6.194   1.471  11.356  0.7294  1.1352 -1.2423
71381SOL     OW31752  10.209   1.475   4.810 -0.1395  0.4112  0.0289
71381SOL    HW131753  10.159   1.459   4.890  0.0136  0.3514  0.1135
71381SOL    HW231754  10.248   1.390   4.788  1.0637  0.7394  0.7477
71382SOL     OW31755  10.466   5.316  12.757 -0.4049 -0.1098 -0.1367
71382SOL    HW131756  10.372   5.305  12.772 -0.3792  0.0363  0.1357
71382SOL    HW231757  10.471   5.371  12.679 -0.5398 -1.0252 -0.8119
71383SOL     OW31758  10.508   4.346   7.185 -1.2299  0.2493  0.6805
71383SOL    HW131759  10.545   4.431   7.160 -1.0497 -0.2162 -0.7510
71383SOL    HW231760  10.515   4.293   7.105  0.4523 -1.7411  2.0525
71384SOL     OW31761   8.782   5.349   9.840  0.3038 -0.2374  0.0998
71384SOL    HW131762   8.775   5.353   9.744  0.5763 -0.4763  0.0684
71384SOL    HW231763   8.747   5.433   9.870  0.0019 -0.2520 -0.1968
71385SOL     OW31764   6.883   5.334   1.787  0.1511  0.8398 -0.4476
71385SOL    HW131765   6.803   5.321   1.737 -0.1452  0.6596  0.0671
71385SOL    HW231766   6.854   5.349   1.877  0.6996  0.5028 -0.2017
71386SOL     OW31767   8.888   4.907  12.102  0.1239  0.2013 -0.1055
71386SOL    HW131768   8.840   4.825  12.108  0.1314  0.1009 -1.2566
71386SOL    HW231769   8.942   4.899  12.023  1.8591  0.4167  0.9880
71387SOL     OW31770   3.061   6.701  13.886  0.2369 -0.1977 -0.0243
71387SOL    HW131771   3.125   6.772  13.879  1.2660 -0.8940  1.5267
71387SOL    HW231772   3.037   6.681  13.795  0.0619  1.9538 -0.5104
71388SOL     OW31773   0.803   7.489   1.617  0.0921 -0.1372  0.0986
71388SOL    HW131774   0.860   7.556   1.581 -1.2219  0.1015 -1.7060
71388SOL    HW231775   0.858   7.411   1.623  1.0284  0.5029  0.0069
71389SOL     OW31776   0.790   7.836  10.985  0.7521 -0.2085  0.2575
71389SOL    HW131777   0.718   7.773  10.996  0.7816 -0.0626  1.4945
71389SOL    HW231778   0.789   7.886  11.066  2.1317 -0.0778  0.2081
71390SOL     OW31779  10.817   4.369   1.298  0.0479 -0.3074  0.4072
71390SOL    HW131780  10.861   4.339   1.377 -2.1447 -0.9886  1.4404
71390SOL    HW231781  10.836   4.302   1.233  2.5555  0.6639  0.0278
71391SOL     OW31782   6.418  10.188  13.704 -0.2047 -0.1770 -0.3530
71391SOL    HW131783   6.380  10.241  13.634  0.4725 -0.1771 -0.7247
71391SOL    HW231784   6.497  10.236  13.730  1.4450 -1.8906 -1.9300
71392SOL     OW31785   4.753  10.936   0.764 -0.6457 -0.6160 -0.1982
71392SOL    HW131786   4.721  10.988   0.690 -0.0067  0.6863  0.4096
71392SOL    HW231787   4.792  10.858   0.723 -1.4631 -0.5489 -1.1385
71393SOL     OW31788   1.876   7.603   0.529  0.0913 -0.1490  0.5752
71393SOL    HW131789   1.844   7.599   0.439  1.5975  0.3300 -0.0290
71393SOL    HW231790   1.856   7.517   0.566  0.7592 -0.9054 -0.7218
71394SOL     OW31791   8.983  13.908   6.144 -0.2712 -0.5109  0.0645
71394SOL    HW131792   8.948  13.823   6.117 -0.3457 -0.8558  1.1915
71394SOL    HW231793   8.907  13.954   6.181  0.1974 -0.8187  1.4703
71395SOL     OW31794   1.383   4.463  13.456  0.0408 -0.1568 -0.3321
71395SOL    HW131795   1.299   4.498  13.426  0.5970  0.3610 -1.3286
71395SOL    HW231796   1.429   4.438  13.375  1.0755  0.0978  0.1599
71396SOL     OW31797   2.340   7.863  13.191 -0.3215 -0.8231  0.6749
71396SOL    HW131798   2.364   7.953  13.169  2.8855 -1.4538  1.0686
71396SOL    HW231799   2.365   7.811  13.115  0.9725 -1.7149  1.6458
71397SOL     OW31800  12.767   0.080  11.348 -0.1342 -0.3252  0.1245
71397SOL    HW131801  12.703   0.084  11.276 -1.0142 -0.6696  0.8611
71397SOL    HW231802  12.845   0.122  11.313 -0.9862  0.7274 -0.5812
71398SOL     OW31803   7.323  10.715   8.957  0.3047  0.2366  0.0631
71398SOL    HW131804   7.236  10.714   8.997  0.5597 -2.4883  0.7667
71398SOL    HW231805   7.316  10.778   8.886 -1.6772  1.4869  1.2627
71399SOL     OW31806  13.228   0.617   8.854  0.2781 -0.3221  0.1502
71399SOL    HW131807  13.250   0.632   8.762  0.1116 -0.1076  0.1447
71399SOL    HW231808  13.257   0.696   8.899 -0.2563 -0.1371  0.1785
71400SOL     OW31809   4.479  13.634   9.119 -0.4837 -0.1983 -0.6494
71400SOL    HW131810   4.477  13.539   9.132  0.9341 -0.3937 -1.6389
71400SOL    HW231811   4.549  13.665   9.175 -0.1459  0.1026 -1.2247
71401SOL     OW31812  12.719  12.280   3.045  0.2278  0.3526  0.2525
71401SOL    HW131813  12.633  12.301   3.008  0.1634 -1.6198 -0.8646
71401SOL    HW231814  12.772  12.357   3.028 -0.3353  0.2363 -2.3876
71402SOL     OW31815  14.011   9.484   4.416  0.0035 -0.4847 -0.5457
71402SOL    HW131816  13.939   9.539   4.446  1.0112  0.9012 -0.5896
71402SOL    HW231817  14.033   9.518   4.329  2.2013  0.6818  0.3926
71403SOL     OW31818  12.532   1.104   1.325 -0.8521  0.4636  0.0760
71403SOL    HW131819  12.468   1.165   1.288 -2.1039  1.0157  2.9339
71403SOL    HW231820  12.498   1.083   1.412  0.8803 -2.3231  0.2067
71404SOL     OW31821  13.514   6.880   3.964  0.2626 -0.2624  0.2461
71404SOL    HW131822  13.471   6.823   3.900  1.7009 -1.1273  0.0115
71404SOL    HW231823  13.593   6.911   3.920  0.3635  0.5643  0.9805
71405SOL     OW31824  13.444  10.287  10.705  0.1210  0.1385 -0.5875
71405SOL    HW131825  13.534  10.261  10.685  0.0341 -1.3905  0.7524
71405SOL    HW231826  13.408  10.315  10.622  1.6185  0.0668 -1.2947
71406SOL     OW31827   7.627   1.345  14.061  0.9979 -0.1123 -0.1705
71406SOL    HW131828   7.659   1.349  14.151  0.2069  1.5884  0.0694
71406SOL    HW231829   7.644   1.255  14.034  0.8317 -0.8058  1.8365
71407SOL     OW31830   0.602  12.343   8.540 -0.0099  0.0251 -0.4760
71407SOL    HW131831   0.652  12.409   8.589  0.5909  0.5941 -1.8034
71407SOL    HW231832   0.510  12.370   8.550  0.0772 -0.0111  0.5113
71408SOL     OW31833  11.278  12.832  13.184  0.3940 -0.0312 -0.1049
71408SOL    HW131834  11.370  12.807  13.194  0.2064 -0.3316  1.0421
71408SOL    HW231835  11.279  12.928  13.192  0.6063 -0.0405  0.0023
71409SOL     OW31836  13.273   0.076  11.738 -0.3977  0.5032  0.5475
71409SOL    HW131837  13.213   0.004  11.720  0.2471  0.2691 -0.8020
71409SOL    HW231838  13.218   0.155  11.737 -0.5992  0.4023 -1.6317
71410SOL     OW31839  11.240   1.510   0.642 -0.6278 -0.2513 -0.0384
71410SOL    HW131840  11.195   1.472   0.566  0.0197  1.9577 -1.6195
71410SOL    HW231841  11.172   1.517   0.708 -1.8055 -0.1171 -1.2097
71411SOL     OW31842   3.197   7.511   5.153 -0.0141  0.2933 -0.1389
71411SOL    HW131843   3.173   7.577   5.217 -0.7578 -0.8000  0.7566
71411SOL    HW231844   3.121   7.506   5.094 -0.3805 -0.4291  0.3784
71412SOL     OW31845  13.907   0.898  11.411  0.6208 -0.1306 -0.4319
71412SOL    HW131846  13.904   0.873  11.503 -0.0010 -0.4753 -0.5421
71412SOL    HW231847  13.962   0.976  11.409 -0.6359  0.8066  0.4427
71413SOL     OW31848   3.756  11.241   2.912 -0.4892 -0.0590 -0.0107
71413SOL    HW131849   3.733  11.284   2.830  0.2351 -0.6815 -0.5530
71413SOL    HW231850   3.803  11.308   2.961  0.8939 -0.2749 -0.9745
71414SOL     OW31851  10.144   7.392   2.359 -0.3238  0.0725  0.1533
71414SOL    HW131852  10.056   7.419   2.385 -0.7304  2.6319 -3.1799
71414SOL    HW231853  10.134   7.300   2.335 -1.7193 -0.0900  1.2268
71415SOL     OW31854  10.178  11.000  10.941  0.2908  0.3090 -0.2160
71415SOL    HW131855  10.170  11.087  10.901  0.6208 -0.0323 -1.0450
71415SOL    HW231856  10.137  10.941  10.878  2.0780 -0.4232 -0.7521
71416SOL     OW31857   4.073  13.956   5.286 -0.7079  0.1745 -0.3163
71416SOL    HW131858   4.141  13.949   5.354 -1.3828  0.7734  0.4369
71416SOL    HW231859   4.107  14.021   5.225 -0.2447 -0.1181 -0.3747
71417SOL     OW31860   7.536   2.488  10.888  0.5400  0.3261 -0.5917
71417SOL    HW131861   7.528   2.578  10.859 -2.3631  0.5567  0.5385
71417SOL    HW231862   7.448   2.451  10.876  0.9125 -1.4820  1.5405
71418SOL     OW31863  11.781   5.692   1.269  0.4462 -1.3763  0.4196
71418SOL    HW131864  11.731   5.708   1.349  0.7094  0.0146  0.3334
71418SOL    HW231865  11.718   5.705   1.198  1.0031  0.9359  0.2875
71419SOL     OW31866  10.689   9.161  12.436  0.8560  0.3319  0.3833
71419SOL    HW131867  10.637   9.112  12.372  1.8255 -1.9575  1.2049
71419SOL    HW231868  10.768   9.187  12.387  0.4045  0.9469 -0.0250
71420SOL     OW31869   4.021  13.692   8.985  0.1698  0.3862  0.1290
71420SOL    HW131870   4.114  13.700   8.965  0.4353 -1.2131  0.5957
71420SOL    HW231871   4.013  13.607   9.029 -1.7382 -0.2366 -1.2771
71421SOL     OW31872  13.696  11.089  11.884  0.2255 -0.3868  0.2014
71421SOL    HW131873  13.616  11.062  11.838 -0.1324  0.2479  0.4404
71421SOL    HW231874  13.760  11.104  11.815 -0.4379  1.0059 -0.1338
71422SOL     OW31875   0.697   0.576   6.994  0.1851 -0.0424  0.1459
71422SOL    HW131876   0.785   0.607   7.016 -0.1119  0.8656  0.0851
71422SOL    HW231877   0.700   0.562   6.899  0.1157  0.4896  0.0625
71423SOL     OW31878  11.457   5.976  12.758  0.3165 -0.0732 -0.4366
71423SOL    HW131879  11.483   6.033  12.686  0.2060 -0.9121 -1.1599
71423SOL    HW231880  11.476   6.027  12.837  3.6444 -0.3845 -0.8784
71424SOL     OW31881  10.630  10.261  13.322 -0.1227 -0.1722 -0.0060
71424SOL    HW131882  10.649  10.169  13.304  1.5868 -0.2285  1.8123
71424SOL    HW231883  10.630  10.302  13.235  0.4547 -1.6330 -0.7385
71425SOL     OW31884   3.618  13.241  10.550  0.1886 -0.3690 -0.0734
71425SOL    HW131885   3.597  13.261  10.459 -2.8281 -0.3083  0.5220
71425SOL    HW231886   3.559  13.297  10.601  0.6973 -1.5157  1.8763
71426SOL     OW31887  11.345   4.101   9.923 -0.0291 -0.3924 -0.0467
71426SOL    HW131888  11.407   4.172   9.937 -2.0728  2.1882 -2.6287
71426SOL    HW231889  11.259   4.143   9.929 -1.3408 -2.3399 -2.7382
71427SOL     OW31890   8.095   5.884  12.878  0.3854  0.4176 -0.5143
71427SOL    HW131891   8.149   5.834  12.818 -2.0014 -1.4144 -1.2977
71427SOL    HW231892   8.020   5.912  12.825 -1.1548 -0.1386  1.2673
71428SOL     OW31893   9.258  11.895   7.806  0.6594  0.9368  0.4004
71428SOL    HW131894   9.241  11.896   7.712  1.0842  0.2329  0.3104
71428SOL    HW231895   9.187  11.842   7.843  1.6758 -0.6187  0.2120
71429SOL     OW31896   9.413   9.589   6.109 -0.0887  0.3789 -0.0171
71429SOL    HW131897   9.346   9.656   6.097 -1.6863 -1.0614  0.4035
71429SOL    HW231898   9.448   9.573   6.021 -0.7509  0.7152 -0.3436
71430SOL     OW31899   2.270   7.355   7.255 -0.5021 -0.2358 -0.1822
71430SOL    HW131900   2.183   7.393   7.267 -1.4390 -2.3372  0.1631
71430SOL    HW231901   2.282   7.351   7.160 -1.2447 -0.8359 -0.2650
71431SOL     OW31902   2.005   9.054   2.161  0.6007  0.7743  0.3436
71431SOL    HW131903   2.048   9.099   2.088  1.8721 -0.6438  0.1631
71431SOL    HW231904   2.074   9.045   2.227 -0.0258  0.3861  0.9586
71432SOL     OW31905   8.845   4.952   9.730  0.4086  0.1092 -0.1216
71432SOL    HW131906   8.907   4.912   9.790 -0.6315  0.5225  1.2906
71432SOL    HW231907   8.814   4.880   9.676  0.1803 -0.6028  0.9178
71433SOL     OW31908   5.629   7.619  10.233 -0.6831 -0.1582 -0.0101
71433SOL    HW131909   5.719   7.592  10.247 -1.1545 -0.8137  1.9874
71433SOL    HW231910   5.598   7.646  10.319 -1.4897  3.0652 -1.1452
71434SOL     OW31911   3.443  11.748   3.303 -0.2214  0.0655  0.2965
71434SOL    HW131912   3.452  11.751   3.398 -1.5211 -2.3178  0.5802
71434SOL    HW231913   3.518  11.696   3.273  0.7872  1.7142 -0.1443
71435SOL     OW31914   0.418  10.419   5.843 -0.0238  0.0432 -0.1675
71435SOL    HW131915   0.484  10.451   5.904 -1.6944  1.6367  0.9191
71435SOL    HW231916   0.373  10.350   5.891 -0.4596  0.3564 -0.1256
71436SOL     OW31917   6.317  10.444   1.800  0.3424  0.1939 -0.3044
71436SOL    HW131918   6.327  10.394   1.719 -0.0720  0.0535 -0.2721
71436SOL    HW231919   6.233  10.415   1.835  0.1943  0.7732 -0.1811
71437SOL     OW31920   2.958   5.277   0.513 -0.1234 -0.1762  0.0286
71437SOL    HW131921   3.035   5.332   0.531  0.4337  0.8562 -4.4738
71437SOL    HW231922   2.993   5.202   0.465 -1.7412 -0.6171 -0.5255
71438SOL     OW31923   5.992  12.671  12.245 -0.5224 -0.3248 -0.3774
71438SOL    HW131924   5.957  12.699  12.160 -1.6056  2.0946  0.7743
71438SOL    HW231925   5.917  12.632  12.290 -1.0891  2.0225  0.8980
71439SOL     OW31926   0.095  11.388   7.040 -0.4240  0.1693 -0.2894
71439SOL    HW131927   0.057  11.377   6.953  1.5942 -1.2563 -1.0647
71439SOL    HW231928   0.101  11.483   7.051 -1.8054  0.3915 -1.1574
71440SOL     OW31929  13.963  13.703   4.627 -0.1512  0.2165  0.9809
71440SOL    HW131930  13.929  13.752   4.551 -0.1089  0.4682  1.1240
71440SOL    HW231931  14.053  13.682   4.603 -0.3053 -0.1847  0.7301
71441SOL     OW31932  11.010  12.696   6.686  0.1015  0.2233 -0.4909
71441SOL    HW131933  11.018  12.716   6.779 -0.7472 -2.3691  0.2373
71441SOL    HW231934  11.097  12.713   6.650  0.5646  0.8539  0.8725
71442SOL     OW31935   8.259   4.004   2.903 -0.2201 -0.4316 -0.0723
71442SOL    HW131936   8.174   4.025   2.940  0.2593  1.9690 -0.1544
71442SOL    HW231937   8.241   3.980   2.812 -0.8033  0.1450 -0.1103
71443SOL     OW31938   9.767   0.359   3.514 -0.5683 -0.0739  0.4423
71443SOL    HW131939   9.716   0.410   3.578  0.5726  0.0765  1.2623
71443SOL    HW231940   9.747   0.268   3.535 -0.5869 -0.0160  0.6765
71444SOL     OW31941   8.386   0.417   9.213  0.3555 -0.6678  0.4562
71444SOL    HW131942   8.450   0.415   9.285  2.1061 -0.1627 -0.9870
71444SOL    HW231943   8.372   0.510   9.197  1.1201 -0.7419 -0.7667
71445SOL     OW31944  10.343   9.803   0.191  0.2953  0.1794  0.5263
71445SOL    HW131945  10.419   9.813   0.248  0.2499  0.3449  0.5576
71445SOL    HW231946  10.277   9.861   0.230  0.2057  0.1558  0.4078
71446SOL     OW31947  11.012   5.116   6.234 -0.5683  0.3022 -0.5819
71446SOL    HW131948  10.956   5.106   6.311 -1.2731 -0.6220 -1.1889
71446SOL    HW231949  11.095   5.149   6.269 -0.2439 -1.7895  0.8243
71447SOL     OW31950  13.871  11.216   1.012 -0.3636 -0.4068 -0.3226
71447SOL    HW131951  13.963  11.213   1.040 -0.1282 -0.2840 -1.0745
71447SOL    HW231952  13.822  11.211   1.094  0.3192  3.3208  0.4782
71448SOL     OW31953   0.368   3.381  11.572 -0.3992  0.1026 -0.6384
71448SOL    HW131954   0.345   3.289  11.587  0.2482  0.2238  1.6467
71448SOL    HW231955   0.460   3.386  11.599 -0.7006  1.5845  0.2175
71449SOL     OW31956   1.918  11.714   1.441  0.2466  0.1852 -0.1188
71449SOL    HW131957   2.004  11.688   1.472 -0.2920  0.4313  1.7147
71449SOL    HW231958   1.857  11.672   1.501 -0.8098  1.7437 -0.0289
71450SOL     OW31959  13.421  10.742   2.926  0.0393  0.2646 -0.6650
71450SOL    HW131960  13.430  10.686   3.003  0.6800  1.2496  0.0039
71450SOL    HW231961  13.426  10.831   2.961 -2.6103  0.8078 -1.4965
71451SOL     OW31962  11.995  10.527  13.657 -0.4782  0.5410  0.5579
71451SOL    HW131963  11.921  10.476  13.690  0.6355  0.3703  2.9581
71451SOL    HW231964  12.063  10.517  13.723  1.9667  0.1812 -1.8399
71452SOL     OW31965   1.060  12.947   9.127  0.5612 -0.1241 -0.4371
71452SOL    HW131966   1.070  12.984   9.040  1.7862 -0.4239 -0.4403
71452SOL    HW231967   1.053  12.853   9.113  1.6374 -0.2605 -0.1801
71453SOL     OW31968   4.831  10.994  10.829  0.5912  0.3811  1.0224
71453SOL    HW131969   4.925  11.003  10.815  0.3710 -0.4523 -1.7570
71453SOL    HW231970   4.793  11.069  10.783 -0.1752 -1.4231 -1.5438
71454SOL     OW31971   7.808  10.647  13.504  0.4614  0.5502  0.0295
71454SOL    HW131972   7.832  10.628  13.413 -2.1164  0.6015 -0.7406
71454SOL    HW231973   7.820  10.563  13.550  0.9168  0.2848 -0.5677
71455SOL     OW31974  13.736   9.884   1.685 -1.1114 -0.2466  0.5112
71455SOL    HW131975  13.658   9.893   1.740 -2.8648  1.0080 -1.9409
71455SOL    HW231976  13.746   9.969   1.643  1.9569 -0.2261  1.0779
71456SOL     OW31977   0.874   5.959   2.475 -0.6498  0.8660  0.0156
71456SOL    HW131978   0.945   5.983   2.416 -0.1456 -0.1319  0.1933
71456SOL    HW231979   0.887   5.866   2.491 -1.1373  0.9907  1.2277
71457SOL     OW31980  10.447  10.535   0.115  0.1017 -0.1461  0.0795
71457SOL    HW131981  10.456  10.630   0.122  0.3027 -0.1104 -0.5746
71457SOL    HW231982  10.366  10.522   0.065 -0.1806 -0.3344  0.5750
71458SOL     OW31983  10.318  11.022   4.896 -0.5420 -0.1294 -0.1197
71458SOL    HW131984  10.405  11.017   4.857 -0.4982  0.3272 -0.0776
71458SOL    HW231985  10.270  10.950   4.855 -0.6233  0.5861 -1.3367
71459SOL     OW31986   1.879   8.213   4.098  0.3604  0.1850 -0.2156
71459SOL    HW131987   1.823   8.166   4.160  0.0667  1.4232  0.5182
71459SOL    HW231988   1.851   8.305   4.107  1.5568  0.6306 -0.8712
71460SOL     OW31989  13.013   1.637   6.952 -0.5605  0.2063 -0.2146
71460SOL    HW131990  12.955   1.670   7.020 -0.0325 -0.6172  0.6554
71460SOL    HW231991  12.972   1.556   6.923 -1.0843  0.8337 -1.3127
71461SOL     OW31992   3.094   9.716  13.425  0.3321 -0.5681 -0.1489
71461SOL    HW131993   3.185   9.740  13.408  0.6952 -2.4935 -1.2107
71461SOL    HW231994   3.063   9.678  13.342 -1.6720  0.6681 -0.0318
71462SOL     OW31995   8.588   2.741   7.988  0.0123  0.9459 -0.0961
71462SOL    HW131996   8.560   2.728   7.897 -0.5838 -0.2475  0.2426
71462SOL    HW231997   8.669   2.792   7.980 -1.4232  3.2395 -1.1633
71463SOL     OW31998   5.798  13.293   8.717  0.4564  0.2847  0.3999
71463SOL    HW131999   5.832  13.205   8.700  1.9258  0.7695  0.6811
71463SOL    HW232000   5.810  13.306   8.811  0.1158  0.7403  0.3829
71464SOL     OW32001   0.574  11.994   2.838  0.7342  0.4071  0.4594
71464SOL    HW132002   0.512  12.027   2.774  0.2627 -2.7370 -0.9155
71464SOL    HW232003   0.650  11.966   2.786 -0.0030 -3.0050  0.9807
71465SOL     OW32004   8.327   4.064  13.386  0.1285  0.4110  0.3869
71465SOL    HW132005   8.404   4.073  13.330 -0.5372 -0.1624 -0.6774
71465SOL    HW232006   8.263   4.125  13.348 -0.3668 -0.0620  0.4425
71466SOL     OW32007   6.176   9.858   4.232 -0.0946  0.1079 -0.2494
71466SOL    HW132008   6.190   9.775   4.187 -2.1178 -0.4124  0.0208
71466SOL    HW232009   6.090   9.888   4.203 -0.3792  0.9948  1.3617
71467SOL     OW32010   3.461   1.332   3.148 -0.2120  0.0893 -0.4233
71467SOL    HW132011   3.373   1.362   3.171 -0.2187 -0.2627  0.0144
71467SOL    HW232012   3.518   1.374   3.212 -0.2270 -0.8595  0.2177
71468SOL     OW32013   7.831   4.648   1.788  0.4559 -0.0454  0.2462
71468SOL    HW132014   7.790   4.656   1.874  0.2458  1.2054  0.0498
71468SOL    HW232015   7.897   4.716   1.786  0.6220 -0.2136 -0.4947
71469SOL     OW32016  10.125   7.753   0.499  0.2411  0.2468  0.3934
71469SOL    HW132017  10.216   7.741   0.528  0.8338 -0.4661 -1.5984
71469SOL    HW232018  10.116   7.847   0.488  0.6898  0.3381  0.7444
71470SOL     OW32019  10.902   6.677   6.436 -0.6487  0.0170 -0.6079
71470SOL    HW132020  10.935   6.717   6.517 -0.0604 -0.7996 -0.4350
71470SOL    HW232021  10.955   6.717   6.367  0.0976 -0.6265 -0.4136
71471SOL     OW32022   2.442   6.953   5.273 -1.0044 -0.1460  0.3091
71471SOL    HW132023   2.395   6.994   5.346 -0.3949  1.7389 -0.2907
71471SOL    HW232024   2.431   7.015   5.201  2.4480  0.4738  0.1718
71472SOL     OW32025   3.296  10.520   3.654  0.4610 -0.0511  0.0636
71472SOL    HW132026   3.226  10.524   3.720  0.1449 -2.6607  0.0069
71472SOL    HW232027   3.250  10.505   3.571  1.0008 -1.9472  0.0479
71473SOL     OW32028   1.267   4.281   1.962  0.0682 -0.3664 -0.0528
71473SOL    HW132029   1.331   4.330   2.013  0.3224  0.4564 -1.1203
71473SOL    HW232030   1.300   4.191   1.962  0.4525 -0.2315  0.5966
71474SOL     OW32031   0.654  13.888  10.009 -0.4441  0.4355 -0.3001
71474SOL    HW132032   0.562  13.912  10.020 -0.9143 -1.2144 -0.3766
71474SOL    HW232033   0.692  13.960   9.958 -1.4026  1.6767  0.6708
71475SOL     OW32034  10.601  11.940  13.247 -0.2133 -0.0340 -0.1145
71475SOL    HW132035  10.543  11.875  13.205  1.8026 -1.6816 -0.5090
71475SOL    HW232036  10.559  12.024  13.230 -1.0828 -0.9081 -2.8000
71476SOL     OW32037   1.344   3.975   0.034  0.0912 -0.4457  0.3844
71476SOL    HW132038   1.266   3.937   0.074 -0.2666 -1.5284 -1.2111
71476SOL    HW232039   1.314   4.058  -0.003 -0.2325 -0.6716  0.1242
71477SOL     OW32040  12.305   6.316   0.067 -0.5315  0.1107 -0.5819
71477SOL    HW132041  12.222   6.269   0.081 -0.3910 -0.3961 -1.3841
71477SOL    HW232042  12.364   6.250   0.030  0.2134  0.4903 -0.0988
71478SOL     OW32043   6.999  10.000   1.551 -0.3362 -0.5367 -0.1808
71478SOL    HW132044   7.008   9.996   1.646  1.0491 -1.2036 -0.3030
71478SOL    HW232045   6.946   9.924   1.528  0.8563 -1.4323 -0.0642
71479SOL     OW32046  13.080   4.987  13.413 -0.0222  0.1997  0.3151
71479SOL    HW132047  13.021   4.929  13.365 -1.1396  0.6797  1.0575
71479SOL    HW232048  13.031   5.012  13.492  0.1326  2.6948 -0.2948
71480SOL     OW32049   9.233  12.578   1.647  0.1888 -0.0755  0.7010
71480SOL    HW132050   9.200  12.505   1.595 -1.8993 -0.5667  2.5792
71480SOL    HW232051   9.191  12.656   1.610 -0.8157 -0.3525  1.2251
71481SOL     OW32052   5.440  10.941   6.525 -0.4878 -0.1857 -0.1944
71481SOL    HW132053   5.490  11.018   6.554 -0.4595 -0.3974  0.3263
71481SOL    HW232054   5.455  10.937   6.431 -1.6550  1.3119 -0.4975
71482SOL     OW32055  13.716  11.179  10.121  0.0207 -0.7074 -0.6177
71482SOL    HW132056  13.632  11.134  10.113  0.6852 -2.1115 -0.0718
71482SOL    HW232057  13.725  11.228  10.039 -2.8886  2.3477  0.6852
71483SOL     OW32058   2.694   3.298  10.544  0.0837  0.6243  0.2144
71483SOL    HW132059   2.732   3.247  10.615  0.8499 -1.5233 -1.6476
71483SOL    HW232060   2.654   3.233  10.486 -1.1931  2.3667 -0.9698
71484SOL     OW32061   6.167  13.027   8.789  0.2013  0.0158  0.4731
71484SOL    HW132062   6.176  13.049   8.697  2.6550  1.3597  0.9435
71484SOL    HW232063   6.120  13.101   8.827 -1.5337 -0.9047  0.2378
71485SOL     OW32064  11.469   0.662   6.048  0.2417  0.3368  0.2905
71485SOL    HW132065  11.373   0.670   6.046 -0.0688 -2.4478 -0.3742
71485SOL    HW232066  11.489   0.634   6.138  0.1892 -0.8859 -0.0585
71486SOL     OW32067   3.675   2.653   0.823 -0.1389 -0.1437  0.5313
71486SOL    HW132068   3.755   2.607   0.847  0.2785 -0.0333 -0.5946
71486SOL    HW232069   3.639   2.602   0.751  0.3313  1.2436 -0.7434
71487SOL     OW32070   7.981   6.483   4.551  0.6998  0.1613 -0.7073
71487SOL    HW132071   7.933   6.409   4.515 -2.5467  1.7418  0.0409
71487SOL    HW232072   8.023   6.524   4.475  2.1990 -2.0587 -1.1835
71488SOL     OW32073   0.885   3.337   7.976 -0.0594 -0.5333 -0.2268
71488SOL    HW132074   0.934   3.277   8.031 -0.6658 -0.9040 -0.0765
71488SOL    HW232075   0.854   3.405   8.036  0.7623  0.0317 -0.4239
71489SOL     OW32076   0.862  11.518  13.670  0.7455  0.6702  0.3180
71489SOL    HW132077   0.925  11.512  13.742  0.3746  0.0843  0.5990
71489SOL    HW232078   0.840  11.427  13.649  0.9216  0.8324 -0.6025
71490SOL     OW32079   0.774   1.949  12.307  0.4603 -0.0259  0.4629
71490SOL    HW132080   0.697   1.984  12.260  0.8868 -0.4640 -0.5904
71490SOL    HW232081   0.812   1.885  12.246  2.4087  1.1080  0.4035
71491SOL     OW32082  10.435  12.836  13.036 -0.0445 -0.1379 -0.1677
71491SOL    HW132083  10.392  12.921  13.033 -0.7987 -0.4496  1.1618
71491SOL    HW232084  10.529  12.857  13.029 -0.0697  0.9932  2.0220
71492SOL     OW32085   9.559   6.530   1.883 -0.5983 -0.3034  0.4953
71492SOL    HW132086   9.597   6.502   1.800  0.3490 -0.0329  0.8141
71492SOL    HW232087   9.545   6.449   1.932  0.5185 -0.3632  0.7500
71493SOL     OW32088  12.480   7.671   1.412 -0.2444  0.1854 -0.2985
71493SOL    HW132089  12.469   7.728   1.336 -2.4551  0.1552 -0.0742
71493SOL    HW232090  12.444   7.587   1.384 -0.9240  0.1203  0.6987
71494SOL     OW32091   9.731  11.389  13.743  0.2691 -0.3067 -0.0409
71494SOL    HW132092   9.786  11.347  13.810 -0.0237  0.4022  0.6527
71494SOL    HW232093   9.714  11.319  13.680 -2.1363 -1.9825  2.2312
71495SOL     OW32094   0.988  10.164  10.058 -0.3206 -0.2254 -0.3587
71495SOL    HW132095   1.034  10.192  10.137 -0.4508 -1.7987  0.3313
71495SOL    HW232096   0.953  10.078  10.081 -1.1302 -0.3232 -1.8459
71496SOL     OW32097   1.373   4.958  10.473  0.4484  0.1429  0.0500
71496SOL    HW132098   1.339   4.977  10.385  0.5579  0.6813  0.1158
71496SOL    HW232099   1.296   4.954  10.529  0.4278  0.5439  0.0557
71497SOL     OW32100  10.663   8.455  12.027 -0.0548 -0.4870 -0.2098
71497SOL    HW132101  10.616   8.452  12.111  1.4817  0.4567  0.7289
71497SOL    HW232102  10.594   8.472  11.963 -1.1416 -0.1437  0.9931
71498SOL     OW32103   3.635  11.530   3.377  0.1653 -0.8261 -0.0180
71498SOL    HW132104   3.720  11.573   3.391  0.6933 -2.1726  1.2208
71498SOL    HW232105   3.653  11.463   3.312 -0.1739 -0.5139 -0.4341
71499SOL     OW32106   2.697   7.462  13.609 -0.4564 -0.2606  0.4168
71499SOL    HW132107   2.731   7.413  13.683  0.2846 -1.7370 -0.8460
71499SOL    HW232108   2.697   7.553  13.639  3.5024 -0.2615  1.0075
71500SOL     OW32109   0.638  11.137   6.401 -0.6561  0.0181  0.3233
71500SOL    HW132110   0.714  11.083   6.380  0.0304  1.5437 -1.4217
71500SOL    HW232111   0.657  11.172   6.488  1.2617  1.2830 -0.5352
71501SOL     OW32112   2.256   8.497   2.908 -0.1830  0.2049 -0.2930
71501SOL    HW132113   2.258   8.579   2.859 -0.0845  0.4628  0.1411
71501SOL    HW232114   2.307   8.514   2.987 -0.2196 -0.2527 -0.1650
71502SOL     OW32115   3.111   6.984   0.834 -0.3711 -0.0855  0.0641
71502SOL    HW132116   3.092   7.060   0.779 -0.6795  0.8166  1.3776
71502SOL    HW232117   3.062   7.000   0.915  0.6210 -1.0359  0.8771
71503SOL     OW32118   6.043   7.733   7.838 -0.2234  0.2112 -0.4571
71503SOL    HW132119   6.123   7.687   7.814 -1.3225 -1.2853 -1.4845
71503SOL    HW232120   6.033   7.716   7.932 -0.7132 -1.9613 -0.8356
71504SOL     OW32121   9.894   9.050   4.169 -0.0794  0.1731 -0.0530
71504SOL    HW132122   9.898   8.962   4.131  0.8671  0.9877 -1.9467
71504SOL    HW232123   9.807   9.055   4.208 -0.7639 -1.0511 -1.3212
71505SOL     OW32124   0.563   6.676   7.756  0.0160 -0.3345 -0.1111
71505SOL    HW132125   0.575   6.581   7.754 -0.7099 -0.5318  2.1837
71505SOL    HW232126   0.580   6.704   7.666 -1.0870 -2.7954 -1.1811
71506SOL     OW32127   8.338   7.769   4.829  0.2947  0.2023 -0.0029
71506SOL    HW132128   8.400   7.797   4.896 -1.4834  3.3846  0.5338
71506SOL    HW232129   8.359   7.823   4.753 -1.5830  1.1833  0.1195
71507SOL     OW32130  12.826   8.179   2.123  0.4372  0.0017 -0.2457
71507SOL    HW132131  12.755   8.136   2.077  1.5701  0.2686 -2.3430
71507SOL    HW232132  12.786   8.258   2.161 -0.4263  0.0372 -1.2077
71508SOL     OW32133   6.899   7.375   2.782 -0.6179 -0.2318  0.5402
71508SOL    HW132134   6.962   7.313   2.818  0.1491  0.9746  1.3863
71508SOL    HW232135   6.823   7.368   2.839 -0.6925 -0.6814  0.3869
71509SOL     OW32136  10.986   3.212   6.978  0.1833  0.3878 -0.0227
71509SOL    HW132137  11.049   3.210   7.051 -0.0038  2.0365  0.2269
71509SOL    HW232138  10.913   3.263   7.011 -0.5278 -0.0300 -0.9122
71510SOL     OW32139   1.159   3.927   7.454 -0.1678  0.1718 -0.1145
71510SOL    HW132140   1.208   3.911   7.373  4.2486  1.0490  2.0474
71510SOL    HW232141   1.118   4.012   7.440  0.4749  0.3007 -1.4569
71511SOL     OW32142   9.183   2.076  11.104 -0.2260  0.5278  0.1319
71511SOL    HW132143   9.116   2.137  11.074  0.4209  0.6371 -1.2052
71511SOL    HW232144   9.172   2.071  11.199 -2.4497  0.1322 -0.0931
71512SOL     OW32145   2.371  10.211   5.643 -0.0166  0.0281 -0.2997
71512SOL    HW132146   2.323  10.136   5.679  0.5828 -0.0332  0.3898
71512SOL    HW232147   2.328  10.287   5.681 -1.1412  0.0962 -1.6214
71513SOL     OW32148   2.137   5.971  10.676  0.0581 -0.3913  0.0484
71513SOL    HW132149   2.219   6.017  10.663 -0.2713 -0.1056 -1.0679
71513SOL    HW232150   2.159   5.878  10.668  0.0729 -0.2702 -1.4492
71514SOL     OW32151   7.401  11.517   0.488 -0.6530  0.8393  0.3387
71514SOL    HW132152   7.348  11.597   0.486 -1.8074  0.0971 -1.4416
71514SOL    HW232153   7.337  11.446   0.488  0.3534 -0.1228  2.3503
71515SOL     OW32154   3.038  11.035  11.481 -0.3639 -0.0727  0.1956
71515SOL    HW132155   3.104  11.094  11.519 -0.6390 -1.0757  2.4150
71515SOL    HW232156   3.058  10.949  11.521 -2.6594 -0.5113  0.5113
71516SOL     OW32157  11.430  11.954   7.005  0.1985 -0.4063 -0.3355
71516SOL    HW132158  11.437  12.045   6.978 -1.6902  0.1583  0.8779
71516SOL    HW232159  11.461  11.953   7.095 -1.5847 -0.5446  0.3129
71517SOL     OW32160   5.606   7.564   5.580 -0.2435  0.0258 -0.7509
71517SOL    HW132161   5.655   7.634   5.622  0.0191 -1.0906  0.8699
71517SOL    HW232162   5.529   7.608   5.542 -1.1109  0.9836  1.8804
71518SOL     OW32163   2.598   6.366   6.793 -0.6479  0.2563 -0.3620
71518SOL    HW132164   2.629   6.326   6.712  1.9369  0.7276  0.3015
71518SOL    HW232165   2.611   6.460   6.780  3.2810  0.2223  1.7251
71519SOL     OW32166   3.315   4.801  11.408  0.2957  0.4329  0.2886
71519SOL    HW132167   3.402   4.833  11.386 -0.3175  0.5246 -2.2819
71519SOL    HW232168   3.292   4.742  11.337 -1.9721  0.8246  0.6042
71520SOL     OW32169  11.152  10.088   3.097  0.1635 -0.1923  0.3278
71520SOL    HW132170  11.063  10.064   3.071  0.5243 -0.3748 -0.7513
71520SOL    HW232171  11.185  10.010   3.143 -0.2263 -0.1178  0.7453
71521SOL     OW32172   1.705   6.246   2.578 -0.2725 -0.0997 -0.2545
71521SOL    HW132173   1.730   6.282   2.663 -2.0471 -1.3371  0.8544
71521SOL    HW232174   1.706   6.322   2.519  0.7797  0.8216  0.9019
71522SOL     OW32175  12.893  10.282   5.455 -0.2040  0.1774  0.1313
71522SOL    HW132176  12.899  10.195   5.415 -0.2526 -0.2975  1.1197
71522SOL    HW232177  12.912  10.267   5.547 -0.7063  1.1520  0.4067
71523SOL     OW32178   2.209   3.550   4.521 -0.2630  0.1173 -0.0510
71523SOL    HW132179   2.148   3.488   4.481  2.3551 -2.7917  0.1370
71523SOL    HW232180   2.263   3.581   4.449  0.0659  0.2306  0.2412
71524SOL     OW32181  13.320   2.524  12.213  0.0656  0.1459 -0.3026
71524SOL    HW132182  13.283   2.496  12.297  0.5906  0.2631 -0.0294
71524SOL    HW232183  13.407   2.485  12.210  0.0586  0.1599 -0.7855
71525SOL     OW32184   9.181   1.344   2.630  0.1705 -0.5280  0.4781
71525SOL    HW132185   9.159   1.293   2.709  0.8620  1.0337  1.7386
71525SOL    HW232186   9.147   1.432   2.649  2.2113  0.4212 -0.0504
71526SOL     OW32187  12.827  11.428   5.961  0.2348  0.1962 -0.2057
71526SOL    HW132188  12.910  11.463   5.930  0.3031  1.6650  1.4760
71526SOL    HW232189  12.844  11.401   6.051 -0.9074 -0.3011 -0.1179
71527SOL     OW32190   9.443  12.287   4.178 -0.0800 -0.3135  0.4946
71527SOL    HW132191   9.508  12.227   4.143 -0.7163 -0.8560  0.2282
71527SOL    HW232192   9.471  12.374   4.148 -0.8444 -0.7945 -1.8043
71528SOL     OW32193   3.179   4.518   6.187  0.6654 -0.6744  0.1301
71528SOL    HW132194   3.268   4.521   6.151  0.6898  0.2105  0.2424
71528SOL    HW232195   3.173   4.596   6.242 -0.3459 -0.4612 -0.2618
71529SOL     OW32196  12.175  11.123   6.836 -0.0217  0.2164 -0.6624
71529SOL    HW132197  12.253  11.084   6.877 -0.1501 -2.3173 -2.6112
71529SOL    HW232198  12.115  11.050   6.824 -2.1690  1.8523 -0.5754
71530SOL     OW32199   2.157   8.770   4.869  0.3957  0.1744  0.6076
71530SOL    HW132200   2.229   8.831   4.881  0.4270  0.2238  0.2018
71530SOL    HW232201   2.177   8.697   4.927  0.7390  0.2188  0.5479
71531SOL     OW32202   8.827  13.052  10.031  0.1453 -0.1320 -0.0882
71531SOL    HW132203   8.878  13.116   9.981 -0.9606 -0.6764 -2.0275
71531SOL    HW232204   8.822  13.088  10.119  1.2571  1.4348 -0.6351
71532SOL     OW32205   1.868   8.056   4.923  0.1241 -0.3339  0.5994
71532SOL    HW132206   1.841   8.127   4.981 -0.7760 -0.5933  0.5284
71532SOL    HW232207   1.797   8.051   4.858  0.4281 -0.9532  0.3052
71533SOL     OW32208   7.629   2.593  11.166 -0.5890 -0.1480  0.5659
71533SOL    HW132209   7.654   2.521  11.224 -1.1558 -0.3317  0.5922
71533SOL    HW232210   7.593   2.550  11.088 -1.0267  0.1094  0.6254
71534SOL     OW32211   2.867  10.155   6.926  0.1086  0.3068 -0.0097
71534SOL    HW132212   2.921  10.233   6.912  1.3606 -0.0198  2.4039
71534SOL    HW232213   2.930  10.083   6.933 -0.8862 -0.6196 -0.2517
71535SOL     OW32214  13.171  11.436  12.060 -0.1114 -0.2407 -0.4382
71535SOL    HW132215  13.267  11.436  12.056 -0.0639  0.6553  0.3074
71535SOL    HW232216  13.151  11.475  12.145 -1.1430 -0.7938 -0.4113
71536SOL     OW32217  11.957   1.621   1.930 -0.1700  0.0396  0.2374
71536SOL    HW132218  11.912   1.556   1.984 -0.9284 -1.9662 -2.5951
71536SOL    HW232219  11.899   1.634   1.855  0.8986  2.5730 -0.2333
71537SOL     OW32220   1.209   4.850   7.524  0.2944 -0.3626  0.3615
71537SOL    HW132221   1.212   4.789   7.450 -0.5113  0.4530 -0.3560
71537SOL    HW232222   1.146   4.916   7.499  1.1450  0.7899  1.1371
71538SOL     OW32223   1.350   0.250   7.478  0.0808  0.1565 -0.1083
71538SOL    HW132224   1.377   0.177   7.533 -1.2403  0.4768  1.0334
71538SOL    HW232225   1.305   0.310   7.538  1.9091  2.3651 -0.8229
71539SOL     OW32226   8.930   5.268   1.303  0.2894 -0.3308  0.2529
71539SOL    HW132227   9.001   5.205   1.287  0.3543 -0.2030  0.0283
71539SOL    HW232228   8.966   5.328   1.367 -0.0892 -1.0401  1.1515
71540SOL     OW32229  13.913  11.954   8.708  0.0011 -0.1257  0.5252
71540SOL    HW132230  13.939  12.042   8.735 -0.5219  0.2721 -0.2163
71540SOL    HW232231  13.972  11.932   8.636 -0.1718 -0.1893  0.4024
71541SOL     OW32232  13.463   6.165   5.661  0.0720  0.1655  0.1492
71541SOL    HW132233  13.521   6.241   5.653 -0.3151  0.4572  0.0879
71541SOL    HW232234  13.465   6.124   5.575 -0.3231  0.5527 -0.0515
71542SOL     OW32235  11.889   0.916   1.141 -0.1063  0.2078  0.5063
71542SOL    HW132236  11.948   0.842   1.154  1.0775  0.8459 -0.9723
71542SOL    HW232237  11.945   0.993   1.151 -0.7351  0.8454 -0.6719
71543SOL     OW32238   6.710   7.895   8.680  0.1884  0.1089 -0.0308
71543SOL    HW132239   6.693   7.955   8.753  0.4287  1.1619 -0.8109
71543SOL    HW232240   6.632   7.840   8.676 -0.2807  0.7246  0.3725
71544SOL     OW32241   7.434   2.374  13.360  0.2056 -0.3774  0.2282
71544SOL    HW132242   7.368   2.397  13.425 -0.1704 -0.6446 -0.0584
71544SOL    HW232243   7.445   2.280  13.368  0.0596 -0.4324 -0.1867
71545SOL     OW32244  12.011  11.530   4.269 -0.0399  0.2472  0.6869
71545SOL    HW132245  12.023  11.620   4.239  1.1205 -0.0390  0.2484
71545SOL    HW232246  11.935  11.499   4.219  1.7038 -0.1571 -1.9578
71546SOL     OW32247   3.449   7.155  10.586  0.0889 -0.2120  0.2083
71546SOL    HW132248   3.511   7.170  10.658  0.0896  0.1465  0.1357
71546SOL    HW232249   3.363   7.158  10.628 -0.0316  1.8498 -0.0589
71547SOL     OW32250   8.842   8.217   8.883 -0.4516  0.5309 -0.2435
71547SOL    HW132251   8.752   8.187   8.898  0.5119 -1.9947  1.1462
71547SOL    HW232252   8.854   8.209   8.788 -0.9969 -1.4158 -0.1936
71548SOL     OW32253   9.628   0.736  12.338  0.1804  0.3626 -0.4093
71548SOL    HW132254   9.661   0.821  12.310 -0.4544  0.4683 -0.8704
71548SOL    HW232255   9.550   0.722  12.284 -0.4624  0.0799  0.5671
71549SOL     OW32256   4.617   3.069   0.728 -0.5570  0.5185  0.4627
71549SOL    HW132257   4.594   3.003   0.662  1.7683  0.4896 -0.3999
71549SOL    HW232258   4.589   3.152   0.690 -2.5401  0.2139  1.1014
71550SOL     OW32259   5.595   2.285   0.839  0.5155 -0.1636  0.1787
71550SOL    HW132260   5.552   2.231   0.773 -0.6971  0.4959  0.4030
71550SOL    HW232261   5.524   2.335   0.880  1.7061  3.0502 -1.2915
71551SOL     OW32262   3.266   2.157  12.749  0.1217  0.0317  0.3206
71551SOL    HW132263   3.200   2.211  12.793 -0.8153 -0.0076 -0.9685
71551SOL    HW232264   3.264   2.074  12.796 -1.3678 -0.2545 -0.2034
71552SOL     OW32265   9.816   4.774  10.488  0.8175  0.5421 -0.5039
71552SOL    HW132266   9.764   4.706  10.530  1.4819  0.2399 -0.1448
71552SOL    HW232267   9.828   4.840  10.556  0.5009  0.8319 -0.7303
71553SOL     OW32268  11.030  10.658   8.641  0.2375  0.0617  0.5614
71553SOL    HW132269  11.025  10.744   8.601 -0.4169 -0.1543  0.1586
71553SOL    HW232270  11.063  10.601   8.571  0.1100 -0.1187  0.6482
71554SOL     OW32271   7.166  10.205   7.220  0.3706 -0.5792 -0.0783
71554SOL    HW132272   7.176  10.121   7.176 -0.1036 -0.6361 -0.0822
71554SOL    HW232273   7.074  10.208   7.246 -0.0322  0.6022 -1.4562
71555SOL     OW32274   2.256   9.717   7.736  0.3563 -0.4475 -0.1919
71555SOL    HW132275   2.191   9.782   7.762  1.8011  0.4748  1.2838
71555SOL    HW232276   2.233   9.639   7.789  0.0789 -0.3432 -0.1557
71556SOL     OW32277   5.968   6.961   3.777 -0.8031  0.2546 -0.3512
71556SOL    HW132278   5.925   7.004   3.703  2.0083  1.0721 -1.6442
71556SOL    HW232279   6.003   6.880   3.741 -0.1998  0.2108  0.3021
71557SOL     OW32280   6.051   0.944  11.802  0.5550 -0.1939  0.1211
71557SOL    HW132281   6.073   0.880  11.869  0.3785  0.1528  0.5160
71557SOL    HW232282   6.129   0.950  11.747  0.9158 -0.0382  0.6475
71558SOL     OW32283   1.396   1.129  13.430 -0.9567 -0.2269 -0.3859
71558SOL    HW132284   1.484   1.100  13.406 -1.1638 -1.7363  0.5439
71558SOL    HW232285   1.405   1.223  13.446  0.6578 -0.4805  0.4029
71559SOL     OW32286   6.760   8.380   9.306  0.6270 -0.1510 -0.4053
71559SOL    HW132287   6.712   8.333   9.239 -0.4147  1.1957 -0.6523
71559SOL    HW232288   6.847   8.395   9.267  0.2159  0.1318 -1.2428
71560SOL     OW32289   8.717   5.707   8.900 -0.2520  0.0006 -0.0216
71560SOL    HW132290   8.690   5.793   8.866  1.6042  0.8787  0.5809
71560SOL    HW232291   8.663   5.694   8.977 -1.1728  0.2045 -0.6164
71561SOL     OW32292   0.969  12.613  10.421 -1.0275 -0.1821 -0.0439
71561SOL    HW132293   1.029  12.678  10.385 -1.8770 -0.5044 -2.1835
71561SOL    HW232294   0.935  12.653  10.501  1.6822  0.1490  1.0410
71562SOL     OW32295   6.814  12.600   2.003  0.3307 -0.2321  0.1057
71562SOL    HW132296   6.769  12.628   2.083  0.5856  1.2963 -0.2704
71562SOL    HW232297   6.851  12.514   2.026 -2.2130 -1.2696  0.6085
71563SOL     OW32298   2.127   1.672   1.357 -0.4240 -0.1387 -0.1649
71563SOL    HW132299   2.077   1.681   1.439 -0.1683  0.1216 -0.0335
71563SOL    HW232300   2.062   1.649   1.292 -1.0334  1.8993 -0.3556
71564SOL     OW32301  10.257   5.214   4.957 -0.1410 -0.0611  0.4349
71564SOL    HW132302  10.250   5.142   4.895 -0.0824 -0.4928  0.9294
71564SOL    HW232303  10.189   5.198   5.022  1.1728 -0.7833  1.6680
71565SOL     OW32304   5.953   5.422   5.824  0.1980 -0.6717 -0.4911
71565SOL    HW132305   5.886   5.361   5.792  0.0931  0.5236 -2.7586
71565SOL    HW232306   6.027   5.365   5.849 -0.0292 -1.8031 -2.1769
71566SOL     OW32307  10.414   3.028  12.912 -0.5997 -0.4840  0.5742
71566SOL    HW132308  10.338   3.022  12.854 -0.5977  0.1408  0.5032
71566SOL    HW232309  10.458   2.944  12.902 -1.2369 -0.8213  0.5540
71567SOL     OW32310   0.299   2.826   4.839 -0.3923  0.1843 -0.0372
71567SOL    HW132311   0.237   2.878   4.788  0.1463 -1.0072 -1.9949
71567SOL    HW232312   0.245   2.765   4.889 -0.8931  0.7040  0.0564
71568SOL     OW32313   7.991   6.247   3.543  0.6621  0.0161  0.4347
71568SOL    HW132314   7.922   6.305   3.513  1.2551 -0.2551 -1.6381
71568SOL    HW232315   8.038   6.222   3.463  2.9562 -0.0694  1.7079
71569SOL     OW32316   6.701   5.411  11.521 -0.0203  0.2544  0.3523
71569SOL    HW132317   6.721   5.472  11.450  0.8017 -0.4471 -0.0332
71569SOL    HW232318   6.608   5.426  11.540 -0.8650 -0.9951 -2.2992
71570SOL     OW32319  14.041   0.724   1.728 -0.2739 -1.0073 -0.1429
71570SOL    HW132320  14.017   0.804   1.681  2.0225 -0.4111 -0.4116
71570SOL    HW232321  13.975   0.716   1.798 -0.3334  1.3305  0.1262
71571SOL     OW32322  11.364   3.609   2.854 -0.1424 -0.4751  0.1100
71571SOL    HW132323  11.269   3.603   2.851 -0.3054  0.8181  1.5637
71571SOL    HW232324  11.395   3.536   2.800 -1.9473  0.0849 -1.8175
71572SOL     OW32325   5.043   6.120   2.796  0.0164  0.2284  0.0924
71572SOL    HW132326   5.028   6.059   2.868 -0.4001  0.8421  0.5315
71572SOL    HW232327   5.047   6.064   2.718  0.6872 -0.4592  0.6079
71573SOL     OW32328   4.976   4.984  10.667  0.5117  0.2861  0.1739
71573SOL    HW132329   4.938   5.057  10.715  0.2646  0.4589 -0.2720
71573SOL    HW232330   4.990   4.916  10.733  0.9145  0.7991  0.6219
71574SOL     OW32331   5.648  12.502   1.582 -0.7985 -0.0897 -0.1791
71574SOL    HW132332   5.641  12.548   1.499  1.3850 -0.6454 -0.7591
71574SOL    HW232333   5.737  12.521   1.613 -1.1560 -0.8318  1.4475
71575SOL     OW32334  13.076   5.742  13.265  0.3733  0.3740 -0.0963
71575SOL    HW132335  13.013   5.748  13.193  0.2130 -1.8512 -0.2284
71575SOL    HW232336  13.159   5.721  13.222  0.9309  1.8558  0.1940
71576SOL     OW32337   6.471   0.443   8.730 -0.5296  0.2983 -0.0081
71576SOL    HW132338   6.564   0.424   8.723 -0.5523 -0.4531  1.3892
71576SOL    HW232339   6.465   0.518   8.790 -0.8695 -0.5629  1.0754
71577SOL     OW32340   9.534   1.409   6.992 -0.0193  0.5742  0.1319
71577SOL    HW132341   9.614   1.443   6.952 -0.0158  0.1549 -0.2225
71577SOL    HW232342   9.563   1.340   7.051 -0.2929 -1.5891 -2.1188
71578SOL     OW32343   7.167   5.286   3.672 -0.3810 -0.0721  0.0352
71578SOL    HW132344   7.146   5.378   3.689  0.7596 -0.0574  1.6280
71578SOL    HW232345   7.163   5.278   3.577  1.6217  2.2168 -0.3599
71579SOL     OW32346   0.065  13.876  11.658 -0.1966  0.2473 -0.3852
71579SOL    HW132347  -0.007  13.859  11.597 -0.0468  1.9657 -1.1049
71579SOL    HW232348   0.045  13.962  11.696  0.3123 -0.2761  1.1334
71580SOL     OW32349   2.719   4.075  11.532  0.5730 -0.5557  0.1440
71580SOL    HW132350   2.714   4.089  11.626  0.1077  0.0227  0.0386
71580SOL    HW232351   2.642   4.120  11.497  0.2302 -1.5438 -0.4224
71581SOL     OW32352   6.849   3.068   1.983 -0.4652 -0.1052  0.3998
71581SOL    HW132353   6.900   3.122   2.044 -1.1788 -0.5635  1.4288
71581SOL    HW232354   6.780   3.127   1.952 -0.3845 -0.0101  0.3989
71582SOL     OW32355   0.143  11.369   2.109 -0.3876 -0.3304 -0.0624
71582SOL    HW132356   0.176  11.309   2.042  0.3260  0.3848 -0.3619
71582SOL    HW232357   0.118  11.448   2.060 -0.3390  0.0103  0.4521
71583SOL     OW32358   7.036  10.642   4.506  0.4115  0.6908 -0.0840
71583SOL    HW132359   7.023  10.549   4.527  0.0154  0.8834  0.5518
71583SOL    HW232360   6.952  10.683   4.527  0.4474  1.1287 -0.7751
71584SOL     OW32361  10.774  13.466   5.347  0.1280  0.2277  0.2211
71584SOL    HW132362  10.695  13.411   5.341 -1.0601  1.6340  1.9454
71584SOL    HW232363  10.768  13.506   5.434  4.2478 -1.8046  1.7237
71585SOL     OW32364   9.598  11.628   7.907 -0.1418 -0.4541  0.1004
71585SOL    HW132365   9.544  11.613   7.829  1.2124  1.7936 -1.3621
71585SOL    HW232366   9.680  11.583   7.888 -0.4313 -1.4497  1.0869
71586SOL     OW32367   2.386  11.313   8.439  0.0588 -0.0974 -0.2758
71586SOL    HW132368   2.360  11.231   8.481  0.0829 -0.4776 -0.9832
71586SOL    HW232369   2.423  11.286   8.355 -3.7336  0.8070 -2.4803
71587SOL     OW32370  13.662  13.093   0.441 -0.0253 -0.2496  0.1230
71587SOL    HW132371  13.701  13.067   0.524 -1.4864 -0.3932  0.8055
71587SOL    HW232372  13.644  13.186   0.451  1.2369  0.0873 -0.6513
71588SOL     OW32373   9.896  11.743   8.088 -0.9150 -0.8336 -0.1026
71588SOL    HW132374   9.878  11.664   8.139  0.3095 -0.4693  0.9311
71588SOL    HW232375   9.960  11.716   8.023  0.2484 -0.4949  0.8770
71589SOL     OW32376   4.402   7.330   5.161 -0.1865 -0.5150  0.3079
71589SOL    HW132377   4.487   7.296   5.133  0.2916 -0.6357  1.7903
71589SOL    HW232378   4.362   7.364   5.081  1.3204 -0.3235 -0.4053
71590SOL     OW32379   4.257   1.035  10.031 -0.6674  0.0954 -0.0946
71590SOL    HW132380   4.264   0.965  10.096 -0.2997  1.3421  1.2346
71590SOL    HW232381   4.327   1.096  10.052 -0.6038  0.5965 -1.6098
71591SOL     OW32382   9.400   2.749   4.161  0.4377  0.2546  0.2649
71591SOL    HW132383   9.462   2.736   4.233  2.7142 -3.3045 -1.9775
71591SOL    HW232384   9.453   2.786   4.090 -0.5773 -0.5386 -0.9583
71592SOL     OW32385  13.731   8.392   5.102  0.0007 -0.2362  0.1911
71592SOL    HW132386  13.772   8.378   5.017  0.2948 -0.9917  0.4480
71592SOL    HW232387  13.640   8.364   5.090 -0.7817  2.3856 -0.6605
71593SOL     OW32388   6.424  10.067  10.006 -0.4024 -0.0167  0.2749
71593SOL    HW132389   6.395   9.978   9.989  3.7719 -1.9888  2.0341
71593SOL    HW232390   6.462  10.097   9.923 -0.8824 -0.2877 -0.0426
71594SOL     OW32391   4.587  11.499  11.540 -0.6415  0.1052 -0.7095
71594SOL    HW132392   4.506  11.491  11.491 -1.1779 -0.2613  0.2125
71594SOL    HW232393   4.601  11.412  11.578  0.3051  0.1019 -1.0370
71595SOL     OW32394  12.751   1.425   3.323 -1.0290 -0.0126  0.1575
71595SOL    HW132395  12.751   1.359   3.253  0.7984  0.1472 -0.0618
71595SOL    HW232396  12.696   1.496   3.289 -1.8083 -0.8046 -0.2446
71596SOL     OW32397  13.740  12.409   0.103 -0.0993  0.1750  0.3341
71596SOL    HW132398  13.830  12.387   0.081  1.1204  2.0521  2.9208
71596SOL    HW232399  13.728  12.377   0.193 -2.1846 -0.4339 -0.1010
71597SOL     OW32400   9.910   6.027   1.298 -0.1414 -0.0546  0.0651
71597SOL    HW132401   9.946   6.070   1.220 -1.3342 -0.2551 -0.6131
71597SOL    HW232402   9.973   6.048   1.368  0.5408  0.7766 -0.7715
71598SOL     OW32403   8.658   7.097   1.880 -0.1061  0.2535 -0.2409
71598SOL    HW132404   8.719   7.091   1.954 -0.4836  3.2957  0.4645
71598SOL    HW232405   8.691   7.170   1.828 -1.5110  0.0525 -1.4605
71599SOL     OW32406  12.624  10.685   7.390  0.2608  0.3656 -0.3400
71599SOL    HW132407  12.681  10.644   7.324  0.4536 -0.4351  0.3125
71599SOL    HW232408  12.613  10.774   7.359 -0.4394 -0.2555 -1.9803
71600SOL     OW32409   4.284  14.065  10.597 -0.9080  0.2135 -0.0007
71600SOL    HW132410   4.226  14.092  10.526 -2.1470 -1.5726  0.2637
71600SOL    HW232411   4.225  14.041  10.668  0.1951 -0.8211  0.5897
71601SOL     OW32412   2.206  11.796   9.818 -0.1154 -0.6984  0.8836
71601SOL    HW132413   2.239  11.707   9.833  0.1601 -0.7399  0.1176
71601SOL    HW232414   2.156  11.790   9.737 -0.2459 -0.1926  0.9206
71602SOL     OW32415   8.107   0.533  11.985 -0.1835  0.3897  0.5041
71602SOL    HW132416   8.057   0.468  11.937  1.5761 -0.0966 -0.7608
71602SOL    HW232417   8.083   0.617  11.944  1.9070 -0.0849 -1.9495
71603SOL     OW32418   6.795   5.930   0.697 -0.0745 -0.3724 -0.0495
71603SOL    HW132419   6.720   5.962   0.647 -1.6036  0.4972  2.5557
71603SOL    HW232420   6.759   5.859   0.750  1.5812 -1.5986 -0.4753
71604SOL     OW32421   5.184  11.141   2.985 -0.1477  0.1699  1.0570
71604SOL    HW132422   5.166  11.234   2.970  1.7313  0.3775 -0.3328
71604SOL    HW232423   5.127  11.095   2.924 -1.6162  0.3315  2.2608
71605SOL     OW32424  12.284  13.229  11.291 -0.1956  0.0990 -0.5078
71605SOL    HW132425  12.222  13.156  11.284  0.5971 -0.6630  0.1420
71605SOL    HW232426  12.278  13.256  11.382  0.2408  0.1827 -0.5033
71606SOL     OW32427  10.817   4.781   4.633 -0.5220 -0.6227 -0.2636
71606SOL    HW132428  10.836   4.854   4.575 -1.3625 -0.6903 -0.6247
71606SOL    HW232429  10.778   4.821   4.711 -0.5112 -0.6447 -0.2462
71607SOL     OW32430   2.818   9.720  11.248 -0.1409  0.5132 -0.3330
71607SOL    HW132431   2.882   9.697  11.181  1.8655 -0.7120  1.8463
71607SOL    HW232432   2.843   9.808  11.277  1.0049 -0.1763  0.8964
71608SOL     OW32433   2.137   5.006   9.542 -0.0568  0.2995 -0.1654
71608SOL    HW132434   2.164   5.090   9.580  0.9917  0.2621 -0.7891
71608SOL    HW232435   2.042   5.013   9.533 -0.1395  0.9154  0.9716
71609SOL     OW32436   9.062   9.865   1.422  0.1875 -0.4520 -0.5216
71609SOL    HW132437   9.002   9.939   1.435 -0.1761 -0.8037 -0.1736
71609SOL    HW232438   9.148   9.905   1.412  0.3251 -0.0726  1.7537
71610SOL     OW32439   4.211  10.958  10.326 -0.3221 -0.2599 -0.0894
71610SOL    HW132440   4.286  10.962  10.386 -1.1176  0.0007  0.9114
71610SOL    HW232441   4.246  10.914  10.248  0.8181 -0.3265  0.4280
71611SOL     OW32442   8.524   4.445  14.008 -0.2222  0.1671 -0.3356
71611SOL    HW132443   8.564   4.526  14.040 -1.1949 -0.2198  2.0292
71611SOL    HW232444   8.593   4.379  14.019 -0.3190  0.1714  0.3126
71612SOL     OW32445   1.950   0.373  10.715  0.5170  0.1143 -0.1493
71612SOL    HW132446   1.882   0.424  10.760  0.0125 -0.7382  0.0938
71612SOL    HW232447   2.006   0.438  10.674 -0.2869  0.8512 -0.1127
71613SOL     OW32448  12.757   7.650   1.463  0.0734 -0.0974  0.4341
71613SOL    HW132449  12.779   7.706   1.537  1.7974  0.8143 -0.6901
71613SOL    HW232450  12.664   7.668   1.446 -0.2617 -0.1040  2.1516
71614SOL     OW32451   2.489   1.090   9.154 -0.1218  0.0948 -0.0576
71614SOL    HW132452   2.455   1.159   9.097 -0.5991 -1.3708 -1.6088
71614SOL    HW232453   2.411   1.056   9.199 -0.3105 -1.1332 -1.2462
71615SOL     OW32454  12.701   0.552  10.169 -0.5241  0.4250 -0.5907
71615SOL    HW132455  12.657   0.537  10.253 -0.8289  0.4988 -0.7343
71615SOL    HW232456  12.787   0.587  10.192 -1.1734  1.9325 -0.3270
71616SOL     OW32457  12.115   2.213   1.051  0.2140  0.1515  0.3301
71616SOL    HW132458  12.176   2.173   1.113 -0.3735 -1.6343 -0.1961
71616SOL    HW232459  12.028   2.191   1.084 -0.1137 -0.0245 -0.6202
71617SOL     OW32460   5.701   9.181   0.442  0.7564  0.4746  0.2270
71617SOL    HW132461   5.627   9.199   0.501 -0.4553 -1.0433 -0.7647
71617SOL    HW232462   5.754   9.118   0.490  1.1128  1.1052  0.6862
71618SOL     OW32463  12.580   2.805   5.910 -0.4193  0.3552  0.6859
71618SOL    HW132464  12.502   2.861   5.917  0.6804  1.7474  2.9999
71618SOL    HW232465  12.598   2.778   6.000  0.6281 -1.6577 -0.0527
71619SOL     OW32466   5.230  11.465   0.491 -0.1814  0.2234 -0.4469
71619SOL    HW132467   5.140  11.434   0.485  0.6443 -2.5447 -0.0513
71619SOL    HW232468   5.264  11.459   0.402  0.1822 -0.8473 -0.2588
71620SOL     OW32469   8.524   9.980  11.924  0.5107  0.3149  0.5580
71620SOL    HW132470   8.567   9.919  11.983 -2.3686 -0.9542  1.5105
71620SOL    HW232471   8.440   9.999  11.965 -0.6525  1.2422 -1.9904
71621SOL     OW32472   2.495  13.590  11.159  0.6003 -0.3826 -0.7663
71621SOL    HW132473   2.516  13.599  11.066  0.5526 -0.9705 -0.8408
71621SOL    HW232474   2.484  13.495  11.172  2.9715 -0.5706  0.3551
71622SOL     OW32475  14.002   4.000   3.862  0.4954  0.2011 -0.4579
71622SOL    HW132476  14.050   3.929   3.905 -0.0783  0.4937  0.6886
71622SOL    HW232477  13.991   3.969   3.772 -1.0649 -1.8886  0.3470
71623SOL     OW32478  12.505   9.486  10.310 -0.1292 -0.4988 -0.3894
71623SOL    HW132479  12.494   9.392  10.321  1.4117 -1.0279 -2.6100
71623SOL    HW232480  12.541   9.496  10.221 -0.0861  2.1679 -0.1643
71624SOL     OW32481   8.976  11.058   4.644  0.4833 -0.1064 -0.1356
71624SOL    HW132482   8.894  11.089   4.681 -0.0082  0.2398 -1.4592
71624SOL    HW232483   9.037  11.058   4.718 -0.5607  0.1098  0.7584
71625SOL     OW32484   1.007   0.753   3.518 -1.0303 -0.2192  0.2468
71625SOL    HW132485   1.047   0.782   3.600  0.7382  0.1733 -0.7074
71625SOL    HW232486   0.955   0.827   3.488  0.7737  0.8010 -0.4886
71626SOL     OW32487   4.979  11.512  11.223  0.2419 -0.7398  0.2714
71626SOL    HW132488   4.920  11.573  11.268  0.9088  0.0677  0.0768
71626SOL    HW232489   4.924  11.470  11.156 -1.2009 -3.1384  2.7527
71627SOL     OW32490   6.163   4.710   3.014  0.1857  0.0944 -0.2769
71627SOL    HW132491   6.224   4.636   3.022  1.1590  0.9409  0.2862
71627SOL    HW232492   6.217   4.787   3.028 -1.2133  0.8187  1.4462
71628SOL     OW32493   3.234  10.657  10.070 -0.2310 -0.8871  0.1906
71628SOL    HW132494   3.266  10.580  10.022 -0.7661 -0.3307 -1.1261
71628SOL    HW232495   3.141  10.639  10.084 -0.2509 -0.6960  0.3065
71629SOL     OW32496   3.503   9.660   8.999 -0.3026  0.5932 -0.2337
71629SOL    HW132497   3.599   9.663   9.004 -0.2871  2.4253 -0.8114
71629SOL    HW232498   3.484   9.575   8.959  1.0485  0.0304  0.2639
71630SOL     OW32499   2.054   9.933   3.153 -0.4313  0.1703 -0.0314
71630SOL    HW132500   2.006  10.011   3.181 -1.2994 -0.3305 -0.0744
71630SOL    HW232501   2.064   9.881   3.233  0.2195  0.3596  0.0133
71631SOL     OW32502   5.024   5.679  14.033  0.2747 -0.2053  0.1402
71631SOL    HW132503   5.080   5.735  13.979 -0.8613  0.9577  0.1172
71631SOL    HW232504   5.022   5.723  14.118 -0.1488 -0.5401  0.3050
71632SOL     OW32505  13.033   1.701   1.269  0.4535  0.4054 -0.0691
71632SOL    HW132506  13.089   1.761   1.318 -0.0923  0.6010  0.3215
71632SOL    HW232507  12.962   1.756   1.236 -0.1690 -0.0596  0.4797
71633SOL     OW32508   8.100   1.670  10.288  0.0797 -0.9659 -0.4687
71633SOL    HW132509   8.150   1.700  10.212 -1.4524 -1.3690 -1.6792
71633SOL    HW232510   8.074   1.750  10.333  1.0956 -0.7257 -0.2875
71634SOL     OW32511  13.669   2.085   0.004  0.2590  0.4555 -0.3792
71634SOL    HW132512  13.702   2.069   0.093  0.8929  1.2969 -0.4479
71634SOL    HW232513  13.598   2.148   0.016  1.3490  1.7768 -0.5780
71635SOL     OW32514   7.778  12.112   0.646 -0.4093  0.0771 -0.1244
71635SOL    HW132515   7.871  12.098   0.661 -0.3356 -1.2763 -1.5600
71635SOL    HW232516   7.761  12.202   0.675  1.1016 -0.0109  1.1184
71636SOL     OW32517  11.420   9.088  13.838  0.1737 -0.4783  0.4735
71636SOL    HW132518  11.448   8.999  13.856 -2.7685 -1.1609  2.1893
71636SOL    HW232519  11.387   9.085  13.748  0.7308 -0.8866  0.2746
71637SOL     OW32520  13.190   0.184   5.869  0.0533  0.3984 -0.4668
71637SOL    HW132521  13.280   0.208   5.891 -0.1321  0.7284 -0.0581
71637SOL    HW232522  13.197   0.094   5.835  0.8524  1.1955 -2.6244
71638SOL     OW32523   1.721  10.825  12.293 -0.3085 -0.1438 -0.5808
71638SOL    HW132524   1.707  10.751  12.352 -2.8197  0.1793 -0.6570
71638SOL    HW232525   1.807  10.858  12.317 -0.8631 -0.5075  2.4246
71639SOL     OW32526   5.370   3.598   8.591 -0.1442 -0.1103 -1.2606
71639SOL    HW132527   5.357   3.602   8.685  1.5392 -0.2307 -0.9941
71639SOL    HW232528   5.395   3.507   8.573 -0.4817 -0.0995 -1.8275
71640SOL     OW32529  10.202   9.944   3.675  0.4545  0.3218  0.2093
71640SOL    HW132530  10.199   9.861   3.627  1.1850  0.8647 -0.8268
71640SOL    HW232531  10.240  10.006   3.612 -0.0676  1.4390  0.9667
71641SOL     OW32532   0.185   7.350   1.530 -0.5318 -0.0651  0.0383
71641SOL    HW132533   0.227   7.407   1.594 -2.5740 -1.3044  2.6797
71641SOL    HW232534   0.252   7.285   1.509 -0.2168 -0.5083  2.1649
71642SOL     OW32535   9.092   4.791   8.321 -0.3421 -0.7044  0.4096
71642SOL    HW132536   9.019   4.754   8.272  0.8296 -1.9825 -0.4704
71642SOL    HW232537   9.170   4.753   8.280  1.2133  3.9475 -1.6957
71643SOL     OW32538   5.297   2.054  11.084 -0.4605  0.6584  0.1235
71643SOL    HW132539   5.277   2.078  10.994 -1.4409  0.0498  0.1594
71643SOL    HW232540   5.373   2.107  11.107 -0.6306  1.3341 -0.8223
71644SOL     OW32541   0.872  11.424   4.253 -0.1214 -0.1963  0.6700
71644SOL    HW132542   0.845  11.515   4.238 -1.5028 -0.5340  0.9531
71644SOL    HW232543   0.836  11.376   4.178 -1.0450 -0.7843  1.4624
71645SOL     OW32544   6.801   5.853   6.248 -0.1256 -0.3992  0.0231
71645SOL    HW132545   6.729   5.790   6.248 -1.6812  1.2672  0.1533
71645SOL    HW232546   6.801   5.889   6.159  1.2488 -1.1025 -0.2795
71646SOL     OW32547   0.532   4.520   8.685 -0.8773 -0.0649 -0.1749
71646SOL    HW132548   0.618   4.531   8.727 -1.1046  0.1787  0.2343
71646SOL    HW232549   0.548   4.537   8.592 -0.4016 -0.4340 -0.1676
71647SOL     OW32550  10.035   9.069  13.758 -0.4737  0.2793  0.0795
71647SOL    HW132551   9.951   9.032  13.784 -0.3720 -1.2182 -1.5371
71647SOL    HW232552  10.014   9.155  13.722 -1.3908 -0.2444 -0.6743
71648SOL     OW32553   1.428   3.928   8.362  0.2956 -0.5602  0.4297
71648SOL    HW132554   1.497   3.936   8.296  1.6208  0.4775  1.8597
71648SOL    HW232555   1.416   4.018   8.394 -1.3845 -0.8030  0.5669
71649SOL     OW32556   5.875   6.905  12.606 -0.4524  0.2937  0.0571
71649SOL    HW132557   5.925   6.824  12.601 -0.8908  0.0287 -0.0998
71649SOL    HW232558   5.834   6.913  12.520 -1.6449 -0.1265  0.5685
71650SOL     OW32559  10.085   6.848   5.067  0.0764  0.3935  0.5071
71650SOL    HW132560  10.012   6.865   5.009  1.5438 -0.3960 -1.7029
71650SOL    HW232561  10.150   6.915   5.045  0.7512 -0.0607  1.0556
71651SOL     OW32562   9.709   8.152   5.871  0.0244  0.6670  0.6308
71651SOL    HW132563   9.646   8.088   5.839  1.8740 -0.8304 -0.2782
71651SOL    HW232564   9.756   8.181   5.793  0.2008  2.0317  1.2192
71652SOL     OW32565  12.185  10.283   8.230  0.0988  0.3113 -0.1539
71652SOL    HW132566  12.206  10.371   8.199  1.0127  0.5944  1.1875
71652SOL    HW232567  12.115  10.253   8.172 -0.3758  1.9966 -0.4976
71653SOL     OW32568   6.738   5.065   4.870  0.2420 -0.1089  0.3155
71653SOL    HW132569   6.825   5.023   4.862  0.7501  0.8265  0.8403
71653SOL    HW232570   6.753   5.155   4.841 -0.6052  0.0051  0.2329
71654SOL     OW32571  11.143   9.494   3.031  0.2009 -0.0057  0.2932
71654SOL    HW132572  11.062   9.541   3.050 -0.1600  0.0312 -1.1885
71654SOL    HW232573  11.179   9.539   2.954  1.2403 -0.4982  0.4696
71655SOL     OW32574   8.363   0.451   8.505  0.0570 -0.5929 -0.5778
71655SOL    HW132575   8.386   0.404   8.425  1.1638 -2.3895  0.7258
71655SOL    HW232576   8.426   0.522   8.510  0.5195 -0.9772 -0.8798
71656SOL     OW32577  11.425   4.629  11.531  0.1110 -0.5215  0.3069
71656SOL    HW132578  11.454   4.682  11.457  1.1568  0.6023  1.4704
71656SOL    HW232579  11.484   4.653  11.602 -1.8812 -0.3015  1.9922
71657SOL     OW32580   8.828   6.898   4.072  0.2389 -0.1173  0.4743
71657SOL    HW132581   8.771   6.962   4.030 -0.0702  0.2677  1.4579
71657SOL    HW232582   8.884   6.866   4.001  0.3161  1.1506 -0.0595
71658SOL     OW32583  13.771   4.124  13.358 -0.1899 -0.5880  0.9017
71658SOL    HW132584  13.834   4.083  13.299 -0.9157  0.5198 -0.7147
71658SOL    HW232585  13.822   4.149  13.435  0.6852 -2.4812  0.9930
71659SOL     OW32586  10.031  11.772   4.673  0.2126 -0.1953  1.0182
71659SOL    HW132587  10.108  11.738   4.628  0.8889 -0.7642  2.5595
71659SOL    HW232588  10.025  11.863   4.643 -2.0018 -1.5603 -3.6958
71660SOL     OW32589   4.872   4.090   7.847 -0.5405 -0.0840 -0.2467
71660SOL    HW132590   4.851   4.077   7.940 -1.0947 -0.2554 -0.3939
71660SOL    HW232591   4.931   4.018   7.826 -0.4582 -0.0779 -0.0427
71661SOL     OW32592   3.238   2.418   7.882 -0.3304 -0.5339 -0.2725
71661SOL    HW132593   3.276   2.379   7.960 -0.5818  0.0781  0.1670
71661SOL    HW232594   3.216   2.344   7.825 -1.9942 -1.1397  1.0844
71662SOL     OW32595   5.000   9.318   4.088 -0.0851  0.4070  0.7067
71662SOL    HW132596   5.073   9.257   4.100 -1.9220 -1.9913  0.3659
71662SOL    HW232597   4.961   9.293   4.005 -1.9369  0.9251  1.3708
71663SOL     OW32598  13.327  12.615   0.743 -0.1701  0.1571 -0.0611
71663SOL    HW132599  13.283  12.587   0.663  0.1826 -1.1957  0.1863
71663SOL    HW232600  13.257  12.623   0.808 -0.2812 -0.2495 -0.1259
71664SOL     OW32601  12.809   0.234   8.644  0.3651 -0.3293 -0.4949
71664SOL    HW132602  12.796   0.298   8.575  1.2859  0.4474  0.0208
71664SOL    HW232603  12.774   0.152   8.609 -0.0302  0.2632 -1.5006
71665SOL     OW32604  13.221  13.476  12.729 -0.2079 -0.0051  0.2468
71665SOL    HW132605  13.135  13.434  12.721 -0.1016 -0.3422  0.8111
71665SOL    HW232606  13.203  13.559  12.773 -0.1586 -0.4064  1.0383
71666SOL     OW32607   5.198   2.796   1.068  0.2499 -0.5328 -0.1101
71666SOL    HW132608   5.279   2.818   1.113  0.1945 -0.9113  0.1849
71666SOL    HW232609   5.140   2.870   1.086  0.2554 -0.6407  0.3796
71667SOL     OW32610   5.706   1.738   8.093 -0.0198 -0.3291 -0.2048
71667SOL    HW132611   5.764   1.706   8.162 -0.4969 -0.1337  0.2970
71667SOL    HW232612   5.737   1.826   8.073  1.5174 -1.1849 -1.8355
71668SOL     OW32613   9.414   2.992   0.185 -0.0499 -0.3083 -0.4143
71668SOL    HW132614   9.490   2.994   0.243 -0.3298 -1.5588  0.0236
71668SOL    HW232615   9.416   2.904   0.146 -0.8865 -0.1126 -0.9193
71669SOL     OW32616   0.409   7.483   9.457  0.0361 -0.3009  0.0469
71669SOL    HW132617   0.471   7.549   9.487 -0.0481 -0.6509  1.0171
71669SOL    HW232618   0.463   7.408   9.432  0.2451  0.5509 -2.3310
71670SOL     OW32619   7.356  14.040  12.110 -0.3485  0.2077 -0.0564
71670SOL    HW132620   7.344  14.113  12.171  0.9505  0.4945 -0.1147
71670SOL    HW232621   7.415  13.980  12.155  2.4203  1.4210 -1.7438
71671SOL     OW32622   6.561  13.485   4.344 -0.3360 -0.5026  0.1326
71671SOL    HW132623   6.603  13.486   4.258  2.0305  2.6872  1.1147
71671SOL    HW232624   6.495  13.416   4.338  0.8831 -1.5866 -3.6261
71672SOL     OW32625  13.723   7.609   6.141 -0.1062  0.1416  0.2260
71672SOL    HW132626  13.773   7.672   6.089 -0.4566  0.0510 -0.2261
71672SOL    HW232627  13.788   7.568   6.198  0.2213  0.4914  0.1093
71673SOL     OW32628   9.727   5.742   2.541  0.2993 -0.2815  0.1999
71673SOL    HW132629   9.735   5.655   2.502 -0.0202  0.3329 -1.3043
71673SOL    HW232630   9.813   5.783   2.528  0.3701 -0.2676  0.6750
71674SOL     OW32631   0.080   2.977  11.342 -0.2791  0.3949 -0.4703
71674SOL    HW132632   0.059   3.065  11.308  0.6200  0.2142 -1.5620
71674SOL    HW232633   0.061   2.919  11.268  0.0530 -0.2205 -0.0677
71675SOL     OW32634   9.762  11.405   8.994  0.3645  0.0865 -0.1809
71675SOL    HW132635   9.749  11.412   9.088  0.1028  0.7648 -0.2617
71675SOL    HW232636   9.679  11.372   8.960  0.7792 -1.1326 -0.0795
71676SOL     OW32637  11.434   6.736   5.319 -0.1274  0.0410 -0.2540
71676SOL    HW132638  11.347   6.701   5.338  0.2104 -1.0426 -0.6521
71676SOL    HW232639  11.435   6.748   5.224 -0.0514  0.6509 -0.1838
71677SOL     OW32640  13.962   9.958   2.455  0.3230 -0.1886  0.1275
71677SOL    HW132641  14.050   9.931   2.483  0.9092  0.4511 -1.0415
71677SOL    HW232642  13.958   9.936   2.362 -1.1058 -1.0498  0.3643
71678SOL     OW32643   6.111  13.177   5.489  0.2954  0.0353 -0.4182
71678SOL    HW132644   6.093  13.238   5.561  0.1621 -0.4433 -0.0379
71678SOL    HW232645   6.166  13.227   5.428  1.6378  0.0023  0.7156
71679SOL     OW32646  11.541  10.718   9.049  0.2186  0.2156  0.0680
71679SOL    HW132647  11.473  10.731   9.115  0.1169  0.2332 -0.0400
71679SOL    HW232648  11.524  10.784   8.982  0.5274  0.4230  0.1898
71680SOL     OW32649  10.254   4.343   4.042 -0.7713  0.4153  0.1611
71680SOL    HW132650  10.308   4.416   4.013  0.7784 -1.1243 -1.0797
71680SOL    HW232651  10.308   4.297   4.106 -2.3762  1.2007  2.2028
71681SOL     OW32652   8.138   9.090  12.820  0.3001  0.1759 -0.3157
71681SOL    HW132653   8.200   9.021  12.793  0.8038  0.9668 -1.2507
71681SOL    HW232654   8.153   9.161  12.758 -1.8804  0.2355 -0.8545
71682SOL     OW32655   7.409  10.218  13.785  0.3810 -0.0124  0.0067
71682SOL    HW132656   7.359  10.294  13.758  0.1278  0.0085  0.5214
71682SOL    HW232657   7.471  10.202  13.713 -0.3076  0.0091 -0.5966
71683SOL     OW32658  13.442   8.561  12.723 -0.3381  0.0917 -0.1615
71683SOL    HW132659  13.397   8.625  12.667 -1.5158  0.5518  1.2521
71683SOL    HW232660  13.389   8.558  12.803  0.3966 -1.7415  0.2942
71684SOL     OW32661   1.060   6.551   0.126 -0.0050  0.3925  0.1980
71684SOL    HW132662   1.097   6.626   0.173  0.1158  0.8092 -0.5502
71684SOL    HW232663   0.965   6.564   0.132  0.0123  0.5026  0.2319
71685SOL     OW32664  10.310   8.373   4.475 -0.4084  0.6096  0.4463
71685SOL    HW132665  10.230   8.381   4.527 -0.5367  1.0961  0.1808
71685SOL    HW232666  10.286   8.313   4.404 -0.2919  0.1080  0.8190
71686SOL     OW32667  13.028   5.664   3.829  0.8460  0.6507  0.0426
71686SOL    HW132668  12.949   5.708   3.860  0.4969 -0.4119  0.7251
71686SOL    HW232669  13.026   5.674   3.734  0.7833  2.0767  0.1719
71687SOL     OW32670   9.881   2.953   0.980 -0.1825  0.0454 -0.4025
71687SOL    HW132671   9.971   2.925   0.997  0.1576  0.7331 -1.0020
71687SOL    HW232672   9.890   3.033   0.928 -1.1479 -0.3029 -1.1436
71688SOL     OW32673  11.551  10.434   9.030  0.3337 -0.5939  0.4200
71688SOL    HW132674  11.631  10.411   8.982 -0.4778  0.4271 -1.4937
71688SOL    HW232675  11.550  10.529   9.030  0.0560 -0.5700  2.1171
71689SOL     OW32676  11.426   7.813   1.339 -0.2908  0.1253  0.1383
71689SOL    HW132677  11.420   7.888   1.279  1.3343  0.9811  0.9724
71689SOL    HW232678  11.356   7.829   1.403 -2.3412 -1.0345 -1.6755
71690SOL     OW32679   5.450   3.760   0.399  0.7326 -0.5109 -0.4551
71690SOL    HW132680   5.414   3.673   0.416  0.9966 -0.7146 -0.9024
71690SOL    HW232681   5.461   3.799   0.485 -1.0873 -0.2090 -0.3344
71691SOL     OW32682   3.439  13.657   6.874 -0.6253 -0.1240 -0.1939
71691SOL    HW132683   3.430  13.697   6.960 -1.4252  0.6184 -0.6122
71691SOL    HW232684   3.375  13.585   6.874 -0.5917 -0.1539 -0.1563
71692SOL     OW32685   1.628   3.101  10.509 -0.4637  0.8084  0.2027
71692SOL    HW132686   1.653   3.052  10.588  0.9255 -1.0445 -1.2969
71692SOL    HW232687   1.581   3.038  10.455 -1.9612  2.2286 -0.2288
71693SOL     OW32688   9.092  11.620   7.965  0.3291 -0.4291 -0.6414
71693SOL    HW132689   9.180  11.607   8.001  0.3159  0.2077 -0.3746
71693SOL    HW232690   9.070  11.710   7.988  0.0361 -0.2399 -1.6498
71694SOL     OW32691   4.782  13.265  12.667 -0.2962  0.1461 -0.1262
71694SOL    HW132692   4.737  13.187  12.701 -2.1282  0.5666 -1.4497
71694SOL    HW232693   4.841  13.291  12.738 -0.9800 -1.3871  1.0589
71695SOL     OW32694   7.983   9.610   0.810 -0.4278 -0.0052  0.0653
71695SOL    HW132695   7.972   9.552   0.885  0.0354 -1.7107 -1.1333
71695SOL    HW232696   7.918   9.581   0.746 -0.7497  1.3518 -0.2730
71696SOL     OW32697  11.503  11.263  10.935 -0.1619  0.0725 -0.4282
71696SOL    HW132698  11.528  11.283  11.025 -2.2692  0.9743  0.0280
71696SOL    HW232699  11.515  11.169  10.926  1.4581  0.1848  0.3049
71697SOL     OW32700   1.245   1.806   8.846 -0.1294 -0.4621 -0.0234
71697SOL    HW132701   1.277   1.844   8.928 -0.9003 -0.6625  0.3831
71697SOL    HW232702   1.288   1.856   8.777 -3.0251  2.9464  0.4004
71698SOL     OW32703  11.735   1.319   9.621 -0.5659 -0.3512 -0.1500
71698SOL    HW132704  11.705   1.257   9.554 -0.8709  0.4017 -0.7399
71698SOL    HW232705  11.785   1.384   9.572 -0.7268  0.1716  0.3681
71699SOL     OW32706   3.386   2.252   8.475 -0.2445  0.1420 -0.1294
71699SOL    HW132707   3.411   2.298   8.555 -2.6935  0.9363  0.2601
71699SOL    HW232708   3.419   2.306   8.404  1.4802 -0.2914  0.2969
71700SOL     OW32709   0.829   3.184   3.605  0.1070  0.1684  0.3760
71700SOL    HW132710   0.749   3.237   3.615  0.1017  1.6045 -4.4969
71700SOL    HW232711   0.900   3.245   3.622  0.1140  0.1205  0.5131
71701SOL     OW32712   3.044   3.886   3.856  0.4756  0.2623 -0.2583
71701SOL    HW132713   3.090   3.849   3.780  0.0520 -0.5534 -0.1263
71701SOL    HW232714   3.027   3.977   3.831 -0.4283 -0.2218 -1.5095
71702SOL     OW32715   9.277   7.921   6.729 -0.2502  0.3258  0.2291
71702SOL    HW132716   9.233   7.842   6.699 -0.5346  0.6208 -0.1465
71702SOL    HW232717   9.220   7.993   6.701 -0.5740  0.6153  1.5687
71703SOL     OW32718   5.334  10.878   9.005  0.2298  0.1386 -0.5092
71703SOL    HW132719   5.366  10.937   9.074 -0.5291 -0.4274  0.3433
71703SOL    HW232720   5.317  10.936   8.931 -0.9574  1.1061  0.4705
71704SOL     OW32721  12.625   1.983  10.716  0.0748 -0.0912 -0.7373
71704SOL    HW132722  12.624   1.900  10.764 -1.3061  0.4225  0.1690
71704SOL    HW232723  12.718   2.006  10.710  0.3390 -0.2921  1.5292
71705SOL     OW32724   9.693   4.671  13.231  0.4493  0.3888 -0.8474
71705SOL    HW132725   9.757   4.672  13.302  0.9435  0.8576 -1.2841
71705SOL    HW232726   9.659   4.761  13.229  0.3170  0.3338 -1.0868
71706SOL     OW32727   3.327   6.495   9.032 -0.3941 -0.3943 -0.2366
71706SOL    HW132728   3.287   6.545   8.961 -1.3431 -1.3441 -0.4065
71706SOL    HW232729   3.414   6.533   9.042 -1.6737  2.5182  0.9215
71707SOL     OW32730   2.146   8.372   8.532 -0.1073 -0.8291 -0.1758
71707SOL    HW132731   2.193   8.358   8.614 -0.9467 -1.5459  0.1987
71707SOL    HW232732   2.105   8.287   8.513  1.1682 -1.1069 -2.0530
71708SOL     OW32733  10.969   2.872   4.661  0.4331 -0.3382 -0.3418
71708SOL    HW132734  10.979   2.859   4.756 -0.6026 -2.5044 -0.4635
71708SOL    HW232735  11.055   2.899   4.631  1.0778 -0.7148  1.0753
71709SOL     OW32736   4.514  11.107   2.746 -0.0276 -0.1505  0.0547
71709SOL    HW132737   4.569  11.040   2.785 -0.1892 -0.9253 -1.0106
71709SOL    HW232738   4.512  11.086   2.653 -2.8209 -0.6862  0.1412
71710SOL     OW32739   2.065  12.065  10.854  0.5876  0.5925 -0.6971
71710SOL    HW132740   2.011  12.022  10.920  0.4893  1.0058 -0.5072
71710SOL    HW232741   2.150  12.022  10.861  0.0718 -0.6602 -1.5732
71711SOL     OW32742  11.885   7.961  13.426 -0.2463  0.2922  0.2759
71711SOL    HW132743  11.861   7.997  13.511  0.9287  0.7503  0.4307
71711SOL    HW232744  11.910   8.037  13.373 -0.1952 -0.0581 -0.2184
71712SOL     OW32745   7.703   6.830   9.347  0.4954 -0.2026  0.2038
71712SOL    HW132746   7.660   6.768   9.289  1.4224  0.5809 -1.3849
71712SOL    HW232747   7.693   6.792   9.435 -2.3585 -0.6357 -0.2049
71713SOL     OW32748   9.445  13.572  13.091 -0.6085 -0.5969 -0.2036
71713SOL    HW132749   9.538  13.559  13.110 -1.2339 -2.1563  2.2832
71713SOL    HW232750   9.403  13.490  13.116 -3.1206  1.2688  2.4398
71714SOL     OW32751   3.902   9.158   1.252  0.3285 -0.3749  0.5257
71714SOL    HW132752   3.837   9.156   1.322 -0.5987 -0.0544 -0.3027
71714SOL    HW232753   3.851   9.156   1.171  1.3458 -0.1457 -0.1472
71715SOL     OW32754   2.164  13.964   5.338  0.3344 -0.3189 -0.0458
71715SOL    HW132755   2.159  14.015   5.257 -0.3503 -0.5859 -0.1788
71715SOL    HW232756   2.144  14.028   5.407 -0.3391 -0.3564 -0.1963
71716SOL     OW32757   7.664  12.475   0.531  0.2019  0.0615  0.1296
71716SOL    HW132758   7.635  12.554   0.484  0.1314  0.8122  1.3774
71716SOL    HW232759   7.632  12.402   0.479  0.6843  0.8509 -1.3180
71717SOL     OW32760   6.246  13.953  10.370  0.4025 -0.2296  0.5299
71717SOL    HW132761   6.292  13.952  10.455 -0.1537 -0.3422  0.8324
71717SOL    HW232762   6.259  14.042  10.338  0.3670 -0.0975  0.8737
71718SOL     OW32763   5.887  10.402  12.886  0.4163 -0.2221 -0.0325
71718SOL    HW132764   5.817  10.337  12.881 -0.4224  0.5891  0.7370
71718SOL    HW232765   5.950  10.375  12.819 -1.5018  0.0598 -2.0794
71719SOL     OW32766   8.728  13.681  11.613 -0.9182  0.0839 -0.5782
71719SOL    HW132767   8.646  13.645  11.580  0.1074 -2.4691 -0.6376
71719SOL    HW232768   8.795  13.618  11.583  1.0802  2.0912 -0.6061
71720SOL     OW32769   6.828   0.550   7.145  0.6351 -0.0427  0.0245
71720SOL    HW132770   6.774   0.482   7.104  4.1363 -2.7794 -0.5265
71720SOL    HW232771   6.890   0.575   7.077  0.5566  2.5373  0.8025
71721SOL     OW32772   1.975   5.533   5.909 -0.3846 -1.0064 -0.8668
71721SOL    HW132773   1.984   5.593   5.835  0.2601  0.3747  0.2787
71721SOL    HW232774   2.042   5.562   5.971 -0.4529 -2.5618 -0.0095
71722SOL     OW32775  12.905   9.328   1.317 -0.0339  0.7059  0.4005
71722SOL    HW132776  12.887   9.236   1.301  0.4906  0.5624  0.6224
71722SOL    HW232777  13.000   9.333   1.326 -0.1086  1.1756  0.9782
71723SOL     OW32778   9.973  11.315   9.345  0.8833 -0.5565  0.3346
71723SOL    HW132779   9.992  11.408   9.332  1.4720 -0.7962 -0.5968
71723SOL    HW232780   9.912  11.313   9.419 -0.6023  0.7193 -0.7794
71724SOL     OW32781   7.794  11.325   4.111 -0.1788 -0.4640  0.5860
71724SOL    HW132782   7.783  11.412   4.072  0.4623 -0.6581 -0.0479
71724SOL    HW232783   7.758  11.334   4.199  0.0800  0.5011  0.6071
71725SOL     OW32784   0.092  10.336   5.683 -0.2625 -0.6247  0.0788
71725SOL    HW132785   0.129  10.351   5.596  0.6933 -0.9848  0.4153
71725SOL    HW232786   0.026  10.405   5.693  1.5352  1.1579  0.1655
71726SOL     OW32787  13.973  11.076   2.424  0.0593  0.2358  0.0626
71726SOL    HW132788  14.001  11.156   2.378  0.8452 -0.5034 -0.7767
71726SOL    HW232789  14.052  11.043   2.466 -0.3597  0.1312  0.7867
71727SOL     OW32790   6.574  13.575  10.446 -0.5119  0.3826 -0.3140
71727SOL    HW132791   6.519  13.506  10.481  0.9916  0.2545  2.0942
71727SOL    HW232792   6.646  13.582  10.509 -0.2759  3.7234 -0.7363
71728SOL     OW32793   7.805  11.659   6.164 -0.0148 -0.4938  0.3124
71728SOL    HW132794   7.847  11.576   6.143  0.7595  0.1143 -0.6673
71728SOL    HW232795   7.734  11.667   6.101  1.3769  0.6416 -1.1950
71729SOL     OW32796   1.622   9.324   2.363  0.5693  0.0517 -0.0401
71729SOL    HW132797   1.624   9.349   2.455 -1.7429  0.2720  0.0057
71729SOL    HW232798   1.644   9.405   2.316 -1.2662  0.7918  0.2802
71730SOL     OW32799  12.509   5.319  11.926 -0.3064 -0.0874  0.3476
71730SOL    HW132800  12.506   5.227  11.952  1.7333 -0.9661 -2.0730
71730SOL    HW232801  12.417   5.342  11.910 -0.7894 -2.1030 -0.1225
71731SOL     OW32802   5.678   0.585  10.455 -0.0002  0.1661  0.1614
71731SOL    HW132803   5.754   0.630  10.418 -0.1168 -1.4350 -2.1862
71731SOL    HW232804   5.715   0.513  10.505  0.0540 -0.2190 -0.4290
71732SOL     OW32805  11.239  11.087   0.314  0.0445  0.1662 -0.3924
71732SOL    HW132806  11.187  11.026   0.367  0.0572  0.2928 -0.2337
71732SOL    HW232807  11.299  11.128   0.377  0.7242 -0.3833 -0.6699
71733SOL     OW32808   6.878   2.094   0.164 -1.2191 -0.2100  0.0489
71733SOL    HW132809   6.829   2.015   0.188  0.5990 -2.1165 -1.9909
71733SOL    HW232810   6.955   2.093   0.221 -0.7798 -0.3942 -0.5403
71734SOL     OW32811   3.356   8.671  12.361 -0.2264 -0.1966 -0.0994
71734SOL    HW132812   3.346   8.657  12.455 -1.1916  2.1456  0.2306
71734SOL    HW232813   3.287   8.733  12.338  0.7032  0.1986 -2.1353
71735SOL     OW32814   7.457   3.481   6.326  0.2024  0.5348 -0.6926
71735SOL    HW132815   7.456   3.389   6.352 -1.6868  0.7948  0.3930
71735SOL    HW232816   7.531   3.519   6.374  0.5533 -0.2741 -0.5827
71736SOL     OW32817  13.331   6.863   2.345 -0.6374  0.1359 -0.2444
71736SOL    HW132818  13.327   6.898   2.434 -1.6087 -1.1560  0.2503
71736SOL    HW232819  13.422   6.838   2.333 -0.3302  1.0702  0.0764
71737SOL     OW32820  13.639   7.237   4.674  0.9814  0.1075 -0.4136
71737SOL    HW132821  13.609   7.152   4.706 -1.7393  0.7632 -0.9644
71737SOL    HW232822  13.630   7.232   4.579  2.0236  0.6198 -0.5573
71738SOL     OW32823   0.332   8.300  11.082  0.2779  0.3692  0.0540
71738SOL    HW132824   0.303   8.257  11.163 -0.1547 -1.1369 -0.8656
71738SOL    HW232825   0.304   8.391  11.092  1.3598  0.5590  2.1375
71739SOL     OW32826   9.537   6.473   9.873  0.0739 -0.0914 -0.6911
71739SOL    HW132827   9.607   6.413   9.848  1.3249  0.4818  1.2147
71739SOL    HW232828   9.502   6.505   9.790  1.5662 -0.9695 -1.7054
71740SOL     OW32829  11.219  10.490  13.893 -0.5501  0.3293 -0.1942
71740SOL    HW132830  11.163  10.412  13.894 -1.2697  0.8475  0.3138
71740SOL    HW232831  11.159  10.563  13.881  0.1918  0.7671 -1.4239
71741SOL     OW32832   3.188   7.592  10.346 -1.1165  0.6029 -0.0174
71741SOL    HW132833   3.218   7.518  10.398 -2.6652  0.4239  0.6956
71741SOL    HW232834   3.256   7.659  10.357 -0.6806  0.0148  1.0090
71742SOL     OW32835  12.148   1.415   8.913  0.2191 -0.3463  0.1734
71742SOL    HW132836  12.138   1.373   8.828  0.9987 -0.1789 -0.0147
71742SOL    HW232837  12.060   1.443   8.937  0.0360 -0.1227 -0.7245
71743SOL     OW32838   4.071   7.103   2.806 -0.3723 -0.6736  0.8516
71743SOL    HW132839   3.991   7.112   2.754  0.1489  0.1074  0.1774
71743SOL    HW232840   4.039   7.089   2.895 -1.2764 -2.3103  0.3163
71744SOL     OW32841   6.129  12.376   6.279  0.2948  0.4379 -0.0219
71744SOL    HW132842   6.161  12.286   6.278  1.6270  0.7558  2.7982
71744SOL    HW232843   6.058  12.375   6.344  1.1265  1.6155  0.9395
71745SOL     OW32844   2.624   2.814  10.073 -0.1128 -0.5334 -0.1554
71745SOL    HW132845   2.586   2.750  10.012 -1.0888 -0.9268  0.8478
71745SOL    HW232846   2.615   2.774  10.159 -1.4472  1.2698  0.5938
71746SOL     OW32847   1.410  12.459   4.998 -0.7401  0.0640 -0.0856
71746SOL    HW132848   1.379  12.516   4.927 -0.1025  2.0381  1.1357
71746SOL    HW232849   1.452  12.519   5.060  1.6135 -1.9503  0.4256
71747SOL     OW32850  13.501   5.251   9.421  0.2417 -0.0496 -0.0703
71747SOL    HW132851  13.482   5.317   9.354 -0.2524 -0.4261 -0.3131
71747SOL    HW232852  13.574   5.201   9.384  1.6075  1.2506  0.7579
71748SOL     OW32853   6.840  10.175  12.419 -0.0327  0.1128 -0.1938
71748SOL    HW132854   6.779  10.193  12.491 -0.1967  0.5245 -0.4331
71748SOL    HW232855   6.839  10.079  12.412 -0.0093  0.0675  0.3539
71749SOL     OW32856   3.114   7.066   9.071  0.3140  0.0642  0.0149
71749SOL    HW132857   3.132   6.976   9.098  0.3966  0.1819  0.3578
71749SOL    HW232858   3.155   7.120   9.139 -0.8616  0.3509  0.5146
71750SOL     OW32859   8.460   4.803   8.397 -0.2356 -0.7923  0.0032
71750SOL    HW132860   8.519   4.835   8.466 -1.1587 -0.0797  0.4925
71750SOL    HW232861   8.433   4.716   8.427  0.0514 -0.8438  0.1127
71751SOL     OW32862   1.621   9.402   3.066  0.3142  0.1085 -0.0767
71751SOL    HW132863   1.629   9.496   3.051  0.4875 -0.0474 -1.0306
71751SOL    HW232864   1.591   9.366   2.982 -0.3794 -0.6114  0.4629
71752SOL     OW32865   8.211   2.427   8.952 -0.3725  0.1512 -0.3876
71752SOL    HW132866   8.283   2.461   8.900  0.1721 -0.0239  0.2370
71752SOL    HW232867   8.138   2.419   8.890  0.4647 -0.7528 -1.2921
71753SOL     OW32868  13.781  10.832   3.124  0.4154 -0.2307  0.5352
71753SOL    HW132869  13.842  10.760   3.110  0.2901 -0.1529 -0.4538
71753SOL    HW232870  13.823  10.907   3.081  0.2698  0.1477  1.0477
71754SOL     OW32871   1.109   0.594  12.696 -0.1430  0.0113 -0.1844
71754SOL    HW132872   1.069   0.560  12.775  0.4343 -0.6930 -0.1813
71754SOL    HW232873   1.118   0.688  12.711 -0.7402 -0.0050  0.2654
71755SOL     OW32874   7.073  13.116  13.116  0.8721 -0.5387  0.0980
71755SOL    HW132875   7.109  13.127  13.204 -1.4340 -0.5513  1.1271
71755SOL    HW232876   7.052  13.204  13.087 -1.5529 -0.7052  1.0836
71756SOL     OW32877   4.808   3.489   1.750 -0.4830 -0.3279 -0.3116
71756SOL    HW132878   4.773   3.418   1.697 -0.8961 -1.3040  1.2088
71756SOL    HW232879   4.733   3.518   1.802 -0.4437  1.5674 -1.2308
71757SOL     OW32880  12.599   8.737  11.645  0.5094  0.1765  0.5865
71757SOL    HW132881  12.679   8.746  11.696  0.7694 -0.6967  0.3360
71757SOL    HW232882  12.589   8.823  11.603  1.1470  0.3920  0.8558
71758SOL     OW32883   8.735   3.800   2.619 -0.1582 -0.3062  0.2798
71758SOL    HW132884   8.766   3.715   2.650  0.4844 -0.4266 -0.6590
71758SOL    HW232885   8.802   3.830   2.559 -1.5042 -0.2266 -1.2512
71759SOL     OW32886  13.301  11.397   8.953 -0.5211  0.1684  0.6165
71759SOL    HW132887  13.354  11.448   8.892 -1.3322  0.8073  0.4274
71759SOL    HW232888  13.364  11.342   8.999  0.6019  2.3274  1.8353
71760SOL     OW32889   1.592  13.211   3.997  0.2177 -0.1987  0.0223
71760SOL    HW132890   1.623  13.162   3.921  2.4451 -1.0505  1.3791
71760SOL    HW232891   1.648  13.289   4.000 -0.0513 -0.0218  0.6147
71761SOL     OW32892   3.856   4.263   2.581  0.0847 -0.1845  0.0867
71761SOL    HW132893   3.880   4.345   2.539 -1.9199  0.3694 -0.0825
71761SOL    HW232894   3.787   4.227   2.525  0.6007 -1.7568  0.4153
71762SOL     OW32895   2.663  10.461   2.763 -0.1766  0.4561 -0.1003
71762SOL    HW132896   2.581  10.465   2.713  0.4146  1.5002 -1.0462
71762SOL    HW232897   2.690  10.553   2.771  0.5198  0.1817  0.8511
71763SOL     OW32898   4.270   3.741  10.141 -0.1343 -0.2618 -0.1793
71763SOL    HW132899   4.178   3.750  10.164 -1.0304 -2.1405 -2.5990
71763SOL    HW232900   4.306   3.682  10.208 -0.7499  0.1783  0.5584
71764SOL     OW32901   3.086   0.712   0.417  0.0560 -0.1383  0.0036
71764SOL    HW132902   3.151   0.705   0.347 -2.0947 -0.9565 -2.0532
71764SOL    HW232903   3.058   0.622   0.433 -1.4338  0.2813 -0.0582
71765SOL     OW32904  13.948  11.143   5.012 -0.5574  0.2516  0.2195
71765SOL    HW132905  13.993  11.078   4.959  0.6264  0.1372  1.3273
71765SOL    HW232906  13.934  11.217   4.953 -1.2315 -0.6901 -0.8335
71766SOL     OW32907  12.153   7.113   0.762 -0.0854 -0.1885 -0.2113
71766SOL    HW132908  12.218   7.120   0.692  0.0489 -1.3533 -0.2222
71766SOL    HW232909  12.069   7.104   0.717 -0.0461 -0.5063 -0.2250
71767SOL     OW32910   2.950  11.163   0.567  0.2403 -0.6368  0.0435
71767SOL    HW132911   2.909  11.077   0.580  0.1146 -0.6107 -0.1706
71767SOL    HW232912   2.877  11.221   0.547  0.6018 -1.1157 -3.0736
71768SOL     OW32913  12.878   7.721  13.861 -0.3443  0.2184  0.5571
71768SOL    HW132914  12.787   7.702  13.840 -0.0375  1.2428 -2.0661
71768SOL    HW232915  12.877   7.739  13.955 -2.5641 -1.1833  0.8840
71769SOL     OW32916   7.337   0.708   8.458 -0.2264  0.0334  0.2348
71769SOL    HW132917   7.383   0.688   8.377 -0.3373  0.8764 -0.0432
71769SOL    HW232918   7.245   0.686   8.439 -0.8446  3.1693 -0.9946
71770SOL     OW32919  11.290   8.286   1.622 -0.4603  0.1407 -0.1835
71770SOL    HW132920  11.297   8.250   1.533 -1.2861 -0.1391 -0.1441
71770SOL    HW232921  11.198   8.274   1.645 -0.0228 -0.8795  1.1632
71771SOL     OW32922  13.534  11.832   8.534  0.0313  0.3318 -0.1808
71771SOL    HW132923  13.448  11.869   8.514  0.2315  1.2700  0.5995
71771SOL    HW232924  13.595  11.878   8.477 -0.1121 -1.3765 -1.8223
71772SOL     OW32925   7.792   3.762   2.667 -0.1107  0.8189 -0.6944
71772SOL    HW132926   7.789   3.694   2.599  1.0824  0.2464 -0.2090
71772SOL    HW232927   7.701   3.769   2.697 -0.0319 -1.9313  0.5302
71773SOL     OW32928  10.861   1.222   7.294 -0.0704  0.2667  0.2378
71773SOL    HW132929  10.785   1.213   7.352 -2.4581  3.1736 -2.1375
71773SOL    HW232930  10.850   1.153   7.229  0.0653 -0.0976  0.5923
71774SOL     OW32931  11.648   5.649   4.160  0.5643 -0.3486 -0.4289
71774SOL    HW132932  11.710   5.689   4.100  1.5737 -1.0963  0.0773
71774SOL    HW232933  11.703   5.604   4.225 -0.4916  0.1676  0.8692
71775SOL     OW32934   3.831   3.655   4.323 -0.3133  0.7317  0.3498
71775SOL    HW132935   3.819   3.580   4.382  0.5869 -0.1130 -0.5167
71775SOL    HW232936   3.747   3.701   4.326 -0.9047 -0.3378  0.8618
71776SOL     OW32937  10.910   9.196   7.684 -0.3452  0.4358 -0.3751
71776SOL    HW132938  10.957   9.259   7.739  0.2464 -0.3079 -0.0098
71776SOL    HW232939  10.904   9.117   7.737  0.1193 -0.2557 -1.3094
71777SOL     OW32940   3.253   5.221  11.130 -0.2265 -0.1262  0.2863
71777SOL    HW132941   3.183   5.287  11.134  0.3950  0.6551 -0.8700
71777SOL    HW232942   3.251   5.191  11.039  2.6549  1.9024 -0.5836
71778SOL     OW32943  12.361   9.019   5.664  0.4734  0.4857  0.0192
71778SOL    HW132944  12.318   9.105   5.655  0.0738  0.1970 -0.9924
71778SOL    HW232945  12.319   8.965   5.597 -1.7659 -1.5362  2.8014
71779SOL     OW32946   2.450  13.103   0.348  0.4108 -1.1101 -0.1667
71779SOL    HW132947   2.536  13.106   0.306 -0.4435 -1.0138 -2.0150
71779SOL    HW232948   2.388  13.121   0.277 -1.0662  0.3533  1.3909
71780SOL     OW32949   0.351   4.419   7.693 -0.7062 -0.4588 -1.0460
71780SOL    HW132950   0.431   4.369   7.709 -1.1724 -1.1056 -0.7217
71780SOL    HW232951   0.338   4.413   7.598  0.1639  0.4853 -1.2422
71781SOL     OW32952   0.935  12.866  11.163  0.0417  0.4469 -0.5193
71781SOL    HW132953   0.841  12.880  11.155 -0.0126  0.6822  0.4429
71781SOL    HW232954   0.964  12.930  11.228  1.3218  2.2023 -2.6811
71782SOL     OW32955   7.242  10.289  11.160  0.5232 -0.2231 -0.7570
71782SOL    HW132956   7.188  10.337  11.223  1.6862 -1.6239  1.4536
71782SOL    HW232957   7.251  10.348  11.085  0.3239  2.1900  1.0082
71783SOL     OW32958   2.392   5.346   8.438 -0.4644  0.1354  0.2153
71783SOL    HW132959   2.394   5.257   8.474 -1.0472  0.5918  1.4500
71783SOL    HW232960   2.322   5.390   8.486  0.6052  1.6093  0.5159
71784SOL     OW32961  11.891   4.551  10.904 -0.2783 -0.4501  0.4393
71784SOL    HW132962  11.916   4.538  10.996 -0.7112 -0.2219  0.5912
71784SOL    HW232963  11.813   4.496  10.892 -0.0193 -0.7528  0.1091
71785SOL     OW32964   2.910   8.888   3.044 -0.0201  0.0706  0.0237
71785SOL    HW132965   2.885   8.898   3.136 -0.6666 -0.4082 -0.0887
71785SOL    HW232966   2.998   8.851   3.046  1.4353  3.2323  0.4435
71786SOL     OW32967   3.315   1.789   7.669 -0.4904 -0.2410 -0.4526
71786SOL    HW132968   3.379   1.719   7.681  0.1953  0.4195 -0.0901
71786SOL    HW232969   3.315   1.806   7.575 -0.4361 -0.5256 -0.5047
71787SOL     OW32970  11.234   7.993   0.539 -0.1950 -0.2332  0.3713
71787SOL    HW132971  11.187   7.932   0.596 -0.4308 -0.1638  0.2492
71787SOL    HW232972  11.272   8.057   0.599  1.5015 -1.4550  0.6820
71788SOL     OW32973   9.054   0.387   2.582  0.4893  0.6004 -0.1000
71788SOL    HW132974   9.044   0.306   2.532 -0.5498  0.3375  0.5134
71788SOL    HW232975   9.027   0.456   2.521  0.3174  0.3893 -0.2645
71789SOL     OW32976  13.329   0.429  12.097  0.3633  0.0675 -0.4077
71789SOL    HW132977  13.325   0.387  12.183  0.1931  0.3418 -0.2788
71789SOL    HW232978  13.336   0.356  12.035  2.2057 -0.0840 -0.0706
71790SOL     OW32979  12.571   6.352   7.094 -0.2432 -0.0865 -0.3184
71790SOL    HW132980  12.537   6.415   7.158 -1.7016 -1.6416  0.5319
71790SOL    HW232981  12.658   6.329   7.127 -0.4920  0.0430  0.4495
71791SOL     OW32982   8.859  12.507   9.569  0.2154 -0.2206  0.2943
71791SOL    HW132983   8.918  12.434   9.549  1.7777  0.8351  0.7911
71791SOL    HW232984   8.895  12.581   9.520  0.7945  1.0392  2.4873
71792SOL     OW32985   4.768   6.597   0.787  0.0266  0.2168 -0.2277
71792SOL    HW132986   4.813   6.591   0.703 -0.5656 -0.0895 -0.5245
71792SOL    HW232987   4.835   6.574   0.852  0.1968 -0.6346 -0.6954
71793SOL     OW32988  10.378   8.231   3.193  0.2736 -0.3291 -0.2008
71793SOL    HW132989  10.408   8.175   3.265  0.1328 -0.0069  0.1081
71793SOL    HW232990  10.304   8.280   3.230  0.7904  0.5167 -0.2837
71794SOL     OW32991  11.661   1.276   9.088  0.0499  0.3405 -1.1355
71794SOL    HW132992  11.648   1.364   9.123 -0.8025  0.5468 -1.9084
71794SOL    HW232993  11.734   1.284   9.027  0.0736  0.4761 -1.0880
71795SOL     OW32994   6.395   5.566   2.423  0.2305  0.2645 -0.0207
71795SOL    HW132995   6.301   5.547   2.422  0.4416 -0.9746  0.7764
71795SOL    HW232996   6.402   5.655   2.389 -1.1209 -0.0813 -1.3277
71796SOL     OW32997  11.567   9.680   2.538 -0.0677  0.2776 -0.0990
71796SOL    HW132998  11.593   9.673   2.446  0.1914  1.7784 -0.1607
71796SOL    HW232999  11.472   9.691   2.535 -0.2989 -1.4559 -0.0689
71797SOL     OW33000   8.772   2.153   8.351  0.0379  0.3811  0.0957
71797SOL    HW133001   8.691   2.140   8.303 -0.5081 -1.9454  1.5165
71797SOL    HW233002   8.837   2.101   8.304 -0.4197 -1.6089  1.5071
71798SOL     OW33003  11.313   1.855  12.433 -0.2660  0.4120  0.2265
71798SOL    HW133004  11.291   1.767  12.400 -0.8869  0.7638 -0.3187
71798SOL    HW233005  11.395   1.877  12.389 -1.6160  1.3098 -1.9811
71799SOL     OW33006  10.653   4.690   3.617  0.2219 -0.0647  0.7472
71799SOL    HW133007  10.566   4.701   3.655 -0.3568  1.6447 -0.8841
71799SOL    HW233008  10.699   4.771   3.639  0.2423  0.4771 -1.1427
71800SOL     OW33009   2.158   5.350  13.934  0.2868  0.5112 -0.1551
71800SOL    HW133010   2.217   5.277  13.919  1.5468  1.5413 -0.4639
71800SOL    HW233011   2.125   5.338  14.022 -0.5344 -1.0972 -0.6535
71801SOL     OW33012  11.032   3.894   5.065 -0.6669 -0.1047  0.2637
71801SOL    HW133013  11.038   3.950   4.987  0.3693 -1.3507 -0.6002
71801SOL    HW233014  10.938   3.888   5.082 -0.7903  2.1710  0.6270
71802SOL     OW33015  13.961   2.788   8.185 -0.3050  0.1354 -0.1644
71802SOL    HW133016  13.912   2.812   8.106  0.5234  0.4145 -0.6019
71802SOL    HW233017  13.992   2.699   8.168 -3.8976 -1.6968  1.7037
71803SOL     OW33018   7.584  10.942  10.320 -0.2819 -0.4696  0.1715
71803SOL    HW133019   7.522  10.878  10.286  1.1097 -3.2254  2.4148
71803SOL    HW233020   7.570  10.942  10.414  1.9392  0.1301  0.5595
71804SOL     OW33021   0.841   6.591   6.687  0.1897 -0.8703  0.7313
71804SOL    HW133022   0.836   6.509   6.639 -0.7109 -0.1410 -0.4591
71804SOL    HW233023   0.933   6.618   6.679 -0.1744 -0.1502 -1.6884
71805SOL     OW33024   1.410  10.967   5.732  0.2008 -0.0847 -0.1629
71805SOL    HW133025   1.320  10.981   5.760 -0.1634 -0.2623 -1.1846
71805SOL    HW233026   1.412  11.001   5.642  1.0871 -0.3201 -0.2402
71806SOL     OW33027  10.169   8.879   7.964 -0.4177 -0.3785  0.4664
71806SOL    HW133028  10.264   8.885   7.975 -0.2420  0.3639 -1.1485
71806SOL    HW233029  10.133   8.944   8.026  0.0502 -1.2590  1.6957
71807SOL     OW33030  10.033  13.666   8.136  0.3737 -0.1971  0.2986
71807SOL    HW133031  10.117  13.688   8.176  0.7200 -1.2230  0.1603
71807SOL    HW233032  10.011  13.743   8.084  0.8189  0.4108  0.9930
71808SOL     OW33033   8.583   7.941   0.924  0.1073  0.0298 -0.5902
71808SOL    HW133034   8.606   7.850   0.905 -0.3980 -0.1565 -0.3082
71808SOL    HW233035   8.633   7.961   1.004  1.3865  0.4781 -1.4608
71809SOL     OW33036  12.825   7.934   4.283 -0.1748 -0.1763  0.2181
71809SOL    HW133037  12.859   7.851   4.316 -0.4753  0.1530  1.3855
71809SOL    HW233038  12.730   7.925   4.288 -0.3595 -0.8819 -2.5178
71810SOL     OW33039   5.458  11.062   6.994  0.1221 -0.1675  0.4456
71810SOL    HW133040   5.467  10.976   6.953  1.7838 -0.3322  1.0918
71810SOL    HW233041   5.507  11.121   6.937 -0.1962  0.1785  0.5269
71811SOL     OW33042  12.262   7.894   9.366  0.2115  0.2661  0.2988
71811SOL    HW133043  12.254   7.982   9.404 -0.2590 -0.2317  1.4044
71811SOL    HW233044  12.353   7.869   9.382  0.6602  0.9776 -1.0212
71812SOL     OW33045   5.731  11.821   8.202 -0.1242  0.1719  0.1727
71812SOL    HW133046   5.663  11.797   8.139 -1.0399  0.8487  0.8643
71812SOL    HW233047   5.687  11.883   8.261  0.7019 -0.4388  1.4676
71813SOL     OW33048   0.003   3.199   2.534 -0.5805 -0.0856 -0.2092
71813SOL    HW133049  -0.060   3.229   2.468  0.2902  1.0149 -0.5634
71813SOL    HW233050  -0.011   3.258   2.608 -0.0379  0.1101 -0.2582
71814SOL     OW33051   8.182  11.764   3.168 -0.1305 -0.2312 -0.3679
71814SOL    HW133052   8.154  11.713   3.244 -1.2415  1.0355  0.1088
71814SOL    HW233053   8.276  11.778   3.182 -0.2194 -0.4536  0.4985
71815SOL     OW33054   1.107   4.901   9.610 -0.1092 -0.7205 -0.6670
71815SOL    HW133055   1.030   4.934   9.564 -0.8487 -0.0050  1.0025
71815SOL    HW233056   1.072   4.843   9.678  0.9255 -1.4938 -0.7693
71816SOL     OW33057  13.596   4.774   8.869  0.4118  0.1971  0.1960
71816SOL    HW133058  13.593   4.736   8.781  1.0273  0.7698 -0.0838
71816SOL    HW233059  13.685   4.809   8.876  0.2008  0.6057  0.8562
71817SOL     OW33060   0.978  11.104   9.382  0.4182  0.1758 -0.3704
71817SOL    HW133061   0.913  11.066   9.324 -1.7774 -0.4568  2.3128
71817SOL    HW233062   0.934  11.179   9.422  1.4380 -0.0555  1.2758
71818SOL     OW33063  10.247   0.857   2.252 -0.1778  0.3074 -0.2011
71818SOL    HW133064  10.169   0.903   2.219  0.5387  0.6890 -1.4395
71818SOL    HW233065  10.245   0.773   2.206 -0.8928 -0.4964  1.2386
71819SOL     OW33066   2.131  10.055   2.744  0.1776 -0.0768  0.3011
71819SOL    HW133067   2.063  10.107   2.702  0.9185  1.5493  0.9684
71819SOL    HW233068   2.207  10.063   2.686  0.4339 -0.0107  0.6388
71820SOL     OW33069  12.021  13.062   6.194  0.6761  0.3400  0.2236
71820SOL    HW133070  12.040  13.107   6.112  0.2870 -1.3946 -0.8739
71820SOL    HW233071  11.927  13.050   6.193  0.7675 -0.4357  0.5116
71821SOL     OW33072  13.883   6.059   3.054 -0.4667  0.6734 -0.1796
71821SOL    HW133073  13.835   6.008   3.119  0.9190 -2.7477 -1.5910
71821SOL    HW233074  13.842   6.037   2.971  0.5618  1.4519 -0.9215
71822SOL     OW33075  12.432   2.268  12.351  0.1485 -0.2956  0.2530
71822SOL    HW133076  12.388   2.213  12.416  0.3701  0.1256  0.7636
71822SOL    HW233077  12.511   2.298  12.395  0.2214  0.1238 -0.1599
71823SOL     OW33078   5.511   4.652  10.867 -0.1551  0.5098 -0.0785
71823SOL    HW133079   5.461   4.723  10.826 -0.2814  1.6369  1.8855
71823SOL    HW233080   5.585   4.696  10.909  1.6793 -0.9462 -1.5627
71824SOL     OW33081  12.545   9.009   2.268  0.0237 -0.3067  0.2485
71824SOL    HW133082  12.490   8.986   2.193 -0.9726 -0.1499  0.9105
71824SOL    HW233083  12.548   9.104   2.267 -0.7545 -0.2558  0.9083
71825SOL     OW33084   1.210  12.403   5.289  0.3566  0.3261  0.5516
71825SOL    HW133085   1.283  12.345   5.266  0.3907  0.8975 -0.8770
71825SOL    HW233086   1.247  12.465   5.351  1.3466  1.1040 -0.7543
71826SOL     OW33087   9.189   5.471  12.057  0.1686  0.0191  0.9246
71826SOL    HW133088   9.107   5.424  12.039 -0.2967  1.1199  0.1237
71826SOL    HW233089   9.201   5.461  12.152 -0.9899  0.0066  1.0853
71827SOL     OW33090   4.129   4.088   8.376 -0.3634 -0.4153 -0.5138
71827SOL    HW133091   4.146   4.167   8.427 -1.4099  0.8715 -2.0385
71827SOL    HW233092   4.188   4.023   8.412 -0.9057  0.4478  2.1769
71828SOL     OW33093   3.160   3.792   3.610  0.4705  0.4498  0.2463
71828SOL    HW133094   3.176   3.699   3.596 -0.4102 -0.0791  2.4324
71828SOL    HW233095   3.107   3.819   3.535 -1.4268 -1.4406  0.8202
71829SOL     OW33096   5.687   9.640   0.964 -0.1632  0.3757 -0.1219
71829SOL    HW133097   5.674   9.650   1.059  0.6299 -0.2254  0.0597
71829SOL    HW233098   5.599   9.623   0.930 -0.5627  1.2840  0.4030
71830SOL     OW33099   5.864   6.667   4.263 -0.4422  0.6333  0.2096
71830SOL    HW133100   5.938   6.606   4.261 -0.8617 -0.0018  1.8900
71830SOL    HW233101   5.904   6.752   4.282 -0.0965  0.3795  0.6500
71831SOL     OW33102   7.000   1.901   9.409 -0.0167  0.3975  0.2985
71831SOL    HW133103   7.055   1.871   9.336 -0.6085  1.4786 -0.6147
71831SOL    HW233104   7.038   1.985   9.434 -1.5874  1.4616 -0.7496
71832SOL     OW33105   3.317   3.420   2.924  0.0709  0.2941  0.4682
71832SOL    HW133106   3.347   3.356   2.859 -0.7226 -0.9433  1.2777
71832SOL    HW233107   3.350   3.504   2.892 -1.3224 -0.0677 -2.2080
71833SOL     OW33108   2.863  12.788  12.696 -0.1654  0.3491 -0.1697
71833SOL    HW133109   2.818  12.872  12.704  0.1762  0.6134 -0.9270
71833SOL    HW233110   2.851  12.746  12.781  2.9972  2.8081  1.7440
71834SOL     OW33111  13.381  13.253   0.243  0.4159 -0.3462  0.2299
71834SOL    HW133112  13.424  13.176   0.206  1.1221  1.0013 -1.9045
71834SOL    HW233113  13.443  13.287   0.307  0.6989 -0.7359  0.1642
71835SOL     OW33114   1.003   4.809   0.809 -0.1695 -0.1974  0.4963
71835SOL    HW133115   0.975   4.725   0.771  1.8347 -0.6131 -0.1937
71835SOL    HW233116   0.999   4.871   0.736 -1.5208  0.3208  0.9745
71836SOL     OW33117   7.281   2.652  12.480 -0.0142  0.1898 -0.1293
71836SOL    HW133118   7.341   2.651  12.555  0.8432 -2.1053 -0.7712
71836SOL    HW233119   7.321   2.593  12.417 -1.4259  1.0067 -1.8651
71837SOL     OW33120   3.436   7.340   0.875 -0.5211  1.0638 -0.2689
71837SOL    HW133121   3.403   7.298   0.796  1.2229 -2.1719  0.5617
71837SOL    HW233122   3.367   7.329   0.940  0.7089 -3.1457  0.6515
71838SOL     OW33123   1.231   7.508   4.275 -0.0395 -0.0526  0.1375
71838SOL    HW133124   1.252   7.519   4.368 -1.1120 -1.8062  0.6342
71838SOL    HW233125   1.275   7.581   4.232  0.3454  0.9080  2.0359
71839SOL     OW33126   4.829  10.255  13.291  0.3260 -0.6992 -0.3325
71839SOL    HW133127   4.829  10.223  13.381 -1.3332  1.0732  0.3836
71839SOL    HW233128   4.922  10.268  13.270  0.8134 -2.3300  0.6268
71840SOL     OW33129   7.499   0.247  10.422  0.3103  0.0435  0.7855
71840SOL    HW133130   7.414   0.248  10.467 -0.8528  0.7010 -1.3132
71840SOL    HW233131   7.506   0.158  10.387  0.5489 -0.0281  1.0069
71841SOL     OW33132   1.980  12.192   5.448  0.2337 -0.2985  0.1817
71841SOL    HW133133   1.946  12.245   5.520  0.9495  1.1290 -0.4935
71841SOL    HW233134   2.043  12.248   5.403  2.2560 -2.2744  0.3554
71842SOL     OW33135  10.834   3.926   6.573  0.0071  0.2468 -0.5069
71842SOL    HW133136  10.775   3.851   6.566 -1.4421  1.4084 -1.3077
71842SOL    HW233137  10.818   3.977   6.494 -1.7341  3.2534  1.5487
71843SOL     OW33138   3.225   3.810   2.634  0.1516  0.8886  0.6429
71843SOL    HW133139   3.301   3.833   2.688 -0.8840  3.9427  0.9487
71843SOL    HW233140   3.149   3.829   2.689 -1.0457 -3.3780  0.8579
71844SOL     OW33141  11.799   2.991  13.012 -0.4270  0.2664 -0.4761
71844SOL    HW133142  11.786   2.951  12.925 -0.8623 -0.6705  0.0071
71844SOL    HW233143  11.835   3.078  12.993 -0.1835 -0.0577 -1.5878
71845SOL     OW33144  12.565   5.256   0.484 -0.0130 -0.6554  0.3353
71845SOL    HW133145  12.598   5.264   0.574  1.5886 -0.0332 -0.2599
71845SOL    HW233146  12.516   5.337   0.469  1.0383 -0.0309  0.1660
71846SOL     OW33147  12.985  14.044   4.702 -0.2620 -0.4559  0.1698
71846SOL    HW133148  12.929  14.122   4.712  2.3597  1.4387  1.3683
71846SOL    HW233149  12.924  13.971   4.697 -2.8534  1.5684  0.0525
71847SOL     OW33150   6.352   2.990   2.244  0.0015 -0.6232 -0.0621
71847SOL    HW133151   6.332   3.049   2.172  0.1471 -0.0212  0.3820
71847SOL    HW233152   6.445   2.968   2.232  0.7528  1.4775  1.3232
71848SOL     OW33153  13.494   1.025   3.439  0.5948 -0.0922  0.6640
71848SOL    HW133154  13.462   1.106   3.480  1.3903 -0.5414  2.2286
71848SOL    HW233155  13.588   1.039   3.429  0.6566 -0.6287  0.4803
71849SOL     OW33156  10.081   4.923   2.303 -0.0600 -0.6487 -0.5797
71849SOL    HW133157  10.074   4.971   2.385  0.0103 -0.6314 -0.5837
71849SOL    HW233158  10.157   4.867   2.315 -0.9903 -1.8519 -0.0030
71850SOL     OW33159   6.020   3.826   3.055 -0.0192 -0.3699 -0.6472
71850SOL    HW133160   6.094   3.772   3.028 -0.5080 -0.5134 -1.7682
71850SOL    HW233161   6.028   3.833   3.150 -0.4173 -3.1225 -0.3440
71851SOL     OW33162   0.652   8.694   1.140  0.0249  0.4496  0.3783
71851SOL    HW133163   0.718   8.719   1.075  0.3205  1.8757  1.1763
71851SOL    HW233164   0.703   8.656   1.212 -0.0717  0.9995  0.7424
71852SOL     OW33165   3.397   8.568  13.188  0.3205 -0.0042  0.4203
71852SOL    HW133166   3.325   8.621  13.224 -1.2618 -0.8896 -1.3044
71852SOL    HW233167   3.369   8.478  13.201  0.8179 -0.3610 -0.8802
71853SOL     OW33168   7.637  12.363  10.061 -0.1374  0.0228  0.0041
71853SOL    HW133169   7.597  12.404  10.138  1.7332 -2.0129  2.2059
71853SOL    HW233170   7.667  12.437  10.008 -0.8883  1.5087  1.5289
71854SOL     OW33171   8.768   4.970   3.780 -0.4046  0.4197  0.0699
71854SOL    HW133172   8.682   4.969   3.823 -1.2820 -0.5035 -1.6198
71854SOL    HW233173   8.784   4.879   3.756 -0.2308  0.9739 -2.0548
71855SOL     OW33174   6.419   7.339  12.665  0.3773  0.8504  0.1716
71855SOL    HW133175   6.381   7.301  12.586  0.6461 -0.2917  0.5831
71855SOL    HW233176   6.347   7.390  12.704 -0.5044 -0.5855  0.4837
71856SOL     OW33177   7.457   5.825   1.276 -0.2652 -0.1013 -0.0259
71856SOL    HW133178   7.388   5.787   1.221 -1.1486  1.9872 -0.4628
71856SOL    HW233179   7.497   5.892   1.222  1.6832 -0.8004  0.4811
71857SOL     OW33180   0.360  12.825  10.582  0.1094  0.0999  0.3809
71857SOL    HW133181   0.300  12.783  10.643  0.7918 -0.9018  0.3820
71857SOL    HW233182   0.351  12.919  10.599 -2.0369  0.0419 -0.1577
71858SOL     OW33183  13.306  12.943   8.980 -0.1313 -0.1924  0.2237
71858SOL    HW133184  13.241  12.972   8.915  0.2675  3.9189  1.4226
71858SOL    HW233185  13.377  13.007   8.973  1.2516 -1.3304  2.7568
71859SOL     OW33186   2.567   7.274  11.953 -0.1256  0.6553 -0.4834
71859SOL    HW133187   2.592   7.220  11.877 -1.0792 -2.9783  1.5232
71859SOL    HW233188   2.478   7.246  11.973  0.2474  1.1541  2.1772
71860SOL     OW33189   1.007  13.967   3.758  0.0228 -0.3158  0.3171
71860SOL    HW133190   1.056  14.047   3.776  0.3204 -1.1369  3.8214
71860SOL    HW233191   0.945  13.959   3.830  0.6285 -3.6607  0.6670
71861SOL     OW33192   5.110  10.994   0.940 -0.1721  0.5019 -0.0714
71861SOL    HW133193   5.062  11.074   0.917  1.0794  1.5758  0.9137
71861SOL    HW233194   5.166  11.020   1.013  0.8817 -1.0652 -0.2792
71862SOL     OW33195   7.563  10.263   3.920 -0.2060  0.0668 -0.6086
71862SOL    HW133196   7.500  10.192   3.927 -1.3901  1.2586  2.2675
71862SOL    HW233197   7.631  10.241   3.984 -1.5040  2.2586  1.6834
71863SOL     OW33198   5.008   9.983  13.958  0.6733  0.6936 -0.8970
71863SOL    HW133199   4.977   9.972  14.048 -1.7372  1.4025 -1.5846
71863SOL    HW233200   5.101   9.961  13.963  0.4337 -0.1272  1.5910
71864SOL     OW33201   1.999   8.532   0.050 -0.3686 -0.1175  0.1505
71864SOL    HW133202   1.969   8.474   0.119  1.1836 -1.0229  0.0966
71864SOL    HW233203   1.985   8.620   0.085 -1.3402 -0.5280  0.8419
71865SOL     OW33204   8.092  11.319  12.701 -1.3390 -0.0910 -0.2230
71865SOL    HW133205   8.166  11.267  12.668 -0.0663  0.9567  0.8478
71865SOL    HW233206   8.070  11.278  12.785 -0.1956  1.1489  0.7230
71866SOL     OW33207   7.611   8.875  12.017  0.2506 -0.4077  0.4563
71866SOL    HW133208   7.652   8.892  11.932 -2.5670  1.7622 -0.6579
71866SOL    HW233209   7.615   8.960  12.062 -2.2702 -0.2646  0.5316
71867SOL     OW33210  12.406   7.776  11.974  0.4944 -0.2553  0.1119
71867SOL    HW133211  12.312   7.788  11.987  0.5984 -0.0954  0.7581
71867SOL    HW233212  12.438   7.746  12.059  1.3816  1.9297  0.6330
71868SOL     OW33213   8.010   4.887  11.852 -0.0655 -0.0840  0.0596
71868SOL    HW133214   7.940   4.827  11.877 -0.5779  0.4510 -0.0873
71868SOL    HW233215   8.084   4.861  11.907 -0.7888  0.2352  1.2023
71869SOL     OW33216   3.921   6.071  10.132 -0.5404 -0.3255  0.0056
71869SOL    HW133217   3.998   6.076  10.076 -0.4814 -0.1537  0.0998
71869SOL    HW233218   3.896   5.979  10.131  0.4062 -0.6162  0.9591
71870SOL     OW33219   9.477   4.109   8.790 -0.3635  0.1030  0.1036
71870SOL    HW133220   9.475   4.080   8.699 -1.3711  2.9230 -0.8890
71870SOL    HW233221   9.570   4.109   8.813 -0.1602 -1.4392 -0.6086
71871SOL     OW33222   3.387   3.329  12.096  0.2369 -0.0649  0.4662
71871SOL    HW133223   3.464   3.348  12.042  0.0942 -3.4270 -1.1913
71871SOL    HW233224   3.328   3.403  12.081  1.7602  0.9163 -1.0038
71872SOL     OW33225  11.432   1.813   8.197 -0.0298 -0.0484  0.1305
71872SOL    HW133226  11.440   1.786   8.289  0.9205  2.0745  0.7461
71872SOL    HW233227  11.360   1.876   8.198 -0.0853 -0.0974 -0.6105
71873SOL     OW33228   9.732   5.935   5.656  0.1525 -0.1198  0.1174
71873SOL    HW133229   9.823   5.917   5.679  0.0683  0.8641  1.3360
71873SOL    HW233230   9.720   5.894   5.570  2.0952  0.7493 -0.6350
71874SOL     OW33231   8.220  11.834   0.658  0.2376 -0.2235 -0.3732
71874SOL    HW133232   8.231  11.774   0.584 -2.8778 -0.9049 -0.4039
71874SOL    HW233233   8.219  11.777   0.735 -2.2463 -0.2359 -0.3568
71875SOL     OW33234   4.681   7.295  10.559 -0.3117 -0.3308 -0.3575
71875SOL    HW133235   4.639   7.243  10.627 -2.0645  1.0355 -0.3038
71875SOL    HW233236   4.755   7.243  10.530 -0.9787 -2.0410  0.8810
71876SOL     OW33237   8.453   7.329  13.609 -0.0044 -0.5179 -0.6481
71876SOL    HW133238   8.475   7.367  13.694  0.1179  0.0532 -0.9311
71876SOL    HW233239   8.403   7.397  13.565 -2.0157 -1.6218 -0.1886
71877SOL     OW33240   6.770   9.751   3.109 -0.0715  0.3902  0.0050
71877SOL    HW133241   6.811   9.715   3.187 -3.0119 -0.7524  1.1847
71877SOL    HW233242   6.773   9.680   3.045  1.5075  1.0142 -0.6739
71878SOL     OW33243  10.141   1.378  12.054  0.5888 -0.3606  0.8929
71878SOL    HW133244  10.113   1.464  12.085  1.8844  0.5235 -0.2984
71878SOL    HW233245  10.141   1.323  12.133 -0.3768  0.6710  1.6487
71879SOL     OW33246   4.720   8.496   2.679 -0.3240 -0.8778 -0.1077
71879SOL    HW133247   4.666   8.569   2.710  0.0210  0.4230 -2.3644
71879SOL    HW233248   4.794   8.495   2.740  0.0785  1.2331 -0.4820
71880SOL     OW33249   8.648   2.602   5.446  0.0553  0.5220  0.0916
71880SOL    HW133250   8.637   2.622   5.353 -0.0759 -2.3986 -0.6216
71880SOL    HW233251   8.642   2.506   5.451  1.5668  0.4532  2.8969
71881SOL     OW33252   8.566   3.042   9.210 -0.6013 -0.1736 -0.7096
71881SOL    HW133253   8.621   3.116   9.236  0.3691 -0.5079 -1.7314
71881SOL    HW233254   8.531   3.066   9.125  0.5579 -1.2861 -1.5384
71882SOL     OW33255  11.811  12.264   4.780  0.0212  0.0270  0.5780
71882SOL    HW133256  11.898  12.294   4.806  0.0891  0.1793  0.1771
71882SOL    HW233257  11.754  12.339   4.795  0.1892  0.3622 -0.4162
71883SOL     OW33258   5.260   7.139   2.236  0.0633 -0.2348  0.3876
71883SOL    HW133259   5.208   7.201   2.288 -1.9080  0.8175 -2.5664
71883SOL    HW233260   5.203   7.063   2.225 -0.5024  0.4574 -1.9386
71884SOL     OW33261   8.018  13.771   6.077  0.6588  0.6887 -0.0661
71884SOL    HW133262   7.955  13.707   6.045 -0.6917  1.1130  1.6336
71884SOL    HW233263   8.101  13.723   6.080 -0.1439 -0.7358  0.3119
71885SOL     OW33264   3.742   7.653   8.160  0.4340 -0.0283 -0.2144
71885SOL    HW133265   3.708   7.740   8.140  1.2450 -0.0782 -2.0136
71885SOL    HW233266   3.837   7.661   8.152  0.4690 -1.3347 -1.6679
71886SOL     OW33267  12.498  13.646  10.251  0.5811  0.8209 -0.3160
71886SOL    HW133268  12.440  13.716  10.283  0.3530  0.8668 -0.8255
71886SOL    HW233269  12.528  13.603  10.331  3.0338  3.2892  0.2526
71887SOL     OW33270   2.774   2.486  11.815  0.6233  0.0416 -0.6188
71887SOL    HW133271   2.833   2.417  11.844  1.0565  0.1930 -1.1186
71887SOL    HW233272   2.814   2.567  11.848 -0.0449  0.0420  0.2325
71888SOL     OW33273   2.313  12.561   2.799  0.2956  0.6809  0.4369
71888SOL    HW133274   2.339  12.647   2.829 -0.6537  0.7193  1.1657
71888SOL    HW233275   2.283  12.515   2.877  0.2679 -0.1189 -0.0259
71889SOL     OW33276  10.541   9.648   1.618 -0.3435 -0.0934  0.0031
71889SOL    HW133277  10.591   9.729   1.623 -0.7936  0.3172 -1.5174
71889SOL    HW233278  10.566   9.609   1.534 -0.9528 -0.9741  0.2109
71890SOL     OW33279   6.528  13.540   1.733 -0.2779 -0.0640  0.0103
71890SOL    HW133280   6.483  13.489   1.666  0.1281 -2.2959  1.2978
71890SOL    HW233281   6.571  13.610   1.686 -0.3989 -1.2675 -1.9969
71891SOL     OW33282   0.488   5.545  12.943  0.0737  0.5829  1.1844
71891SOL    HW133283   0.417   5.492  12.980 -0.5682  0.9735  0.5356
71891SOL    HW233284   0.467   5.635  12.968  1.1600  0.5664  2.2824
71892SOL     OW33285   8.151  10.266   5.568 -0.2061 -0.0384  0.5113
71892SOL    HW133286   8.196  10.182   5.556 -1.2588 -0.5198 -0.2188
71892SOL    HW233287   8.152  10.307   5.482  0.0565  0.5808  0.8028
71893SOL     OW33288  11.340   1.852  11.247  0.1691  0.0960  0.2181
71893SOL    HW133289  11.277   1.780  11.249 -1.3269  1.2377 -1.9236
71893SOL    HW233290  11.313   1.907  11.321 -1.1018  0.3110 -0.3636
71894SOL     OW33291   9.441  12.639   9.039 -0.6971 -0.3299  0.1687
71894SOL    HW133292   9.533  12.640   9.011 -0.7624 -1.5925 -0.1496
71894SOL    HW233293   9.443  12.677   9.127  0.4456 -2.1192  0.9892
71895SOL     OW33294   9.401  10.685   0.417 -0.0215 -0.3542 -0.0624
71895SOL    HW133295   9.443  10.598   0.413  0.8532  0.0564 -0.0534
71895SOL    HW233296   9.472  10.745   0.439 -0.4351  0.4952 -0.9343
71896SOL     OW33297   4.204   0.264  11.710 -0.6854  0.4981  0.4614
71896SOL    HW133298   4.212   0.355  11.738 -1.9240  0.3343  1.4795
71896SOL    HW233299   4.142   0.266  11.638  1.7198  0.7907 -1.7511
71897SOL     OW33300   8.557  10.426   5.657  0.3478 -0.5069 -0.0978
71897SOL    HW133301   8.541  10.462   5.569  1.3529  0.2548  0.0100
71897SOL    HW233302   8.474  10.385   5.681  0.2814 -1.4344 -1.7231
71898SOL     OW33303  10.676   5.530   1.754 -0.1485  0.7831 -0.2450
71898SOL    HW133304  10.593   5.549   1.797 -0.0296  2.3523 -0.6530
71898SOL    HW233305  10.678   5.587   1.677  1.2237  0.6430 -0.3547
71899SOL     OW33306  11.276   0.037   2.863  0.1160 -0.6928  0.3899
71899SOL    HW133307  11.282   0.071   2.773  1.5576  0.1372  0.7639
71899SOL    HW233308  11.188   0.060   2.892  0.2039  0.5422 -0.2454
71900SOL     OW33309   3.584   9.399  11.314  0.0728  0.4344 -0.2139
71900SOL    HW133310   3.529   9.430  11.385  0.7298  0.9858  0.0589
71900SOL    HW233311   3.525   9.347  11.259 -1.0384  2.0380 -0.6188
71901SOL     OW33312  12.241   2.763  12.554 -0.3593 -0.3057  0.8238
71901SOL    HW133313  12.158   2.739  12.512 -1.1733  0.5742  1.8784
71901SOL    HW233314  12.250   2.701  12.626 -0.5884  0.1914  1.2856
71902SOL     OW33315  11.068  10.869   1.678  0.1097 -0.0680 -0.0344
71902SOL    HW133316  11.070  10.948   1.623  0.1905 -0.6251 -0.8528
71902SOL    HW233317  10.982  10.830   1.660  1.3428 -1.9886 -2.3336
71903SOL     OW33318  13.727   3.598   0.415 -0.4378 -0.0461 -0.8531
71903SOL    HW133319  13.773   3.628   0.337  0.0047  1.6295  0.0248
71903SOL    HW233320  13.745   3.504   0.418  2.3202  0.4053 -0.9694
71904SOL     OW33321  11.839   9.372  10.061 -0.0793 -1.1523 -0.1039
71904SOL    HW133322  11.824   9.462  10.090 -0.0899 -0.9531 -0.7164
71904SOL    HW233323  11.867   9.380   9.970 -0.2753 -1.7846 -0.2277
71905SOL     OW33324  10.006   1.552  10.009  0.0766 -0.4018  0.2847
71905SOL    HW133325  10.080   1.538   9.949  0.4901 -1.3423  0.9913
71905SOL    HW233326   9.942   1.485   9.985  0.1053 -0.5718  0.6683
71906SOL     OW33327   5.155   0.190  10.063 -0.0677 -0.3037 -0.3576
71906SOL    HW133328   5.109   0.190  10.147 -0.2414 -0.9160 -0.4541
71906SOL    HW233329   5.243   0.159  10.084  1.0104  2.7435  0.1898
71907SOL     OW33330   7.893   1.887  12.062 -0.0733 -0.2456  0.6937
71907SOL    HW133331   7.805   1.915  12.085 -0.0782  0.9815 -0.6652
71907SOL    HW233332   7.945   1.902  12.141 -0.6747  0.9825  0.8700
71908SOL     OW33333   2.010   5.267   7.648  0.3599 -0.4723  0.0512
71908SOL    HW133334   1.963   5.189   7.619 -0.4157 -0.2378  0.6276
71908SOL    HW233335   2.098   5.237   7.669  0.7093 -0.7906 -1.7609
71909SOL     OW33336   1.023   5.215   5.312 -0.2357  0.2206  0.3172
71909SOL    HW133337   0.980   5.295   5.341 -1.7127 -0.5757  0.4371
71909SOL    HW233338   1.022   5.159   5.390 -2.5301 -1.2372 -0.6517
71910SOL     OW33339   7.971   6.666   8.924 -0.2564 -0.2198 -0.0311
71910SOL    HW133340   8.013   6.589   8.885  0.6208  0.1669  0.1298
71910SOL    HW233341   7.958   6.642   9.016  0.9865  0.1963  0.2727
71911SOL     OW33342   8.999   2.077   9.848  0.4806  0.0582  0.4020
71911SOL    HW133343   9.059   2.016   9.806 -0.0036 -0.1234 -0.0375
71911SOL    HW233344   8.913   2.034   9.842  0.4793 -0.2207  2.0445
71912SOL     OW33345   8.827   8.372  12.572  0.0320  0.1894  0.3466
71912SOL    HW133346   8.892   8.348  12.506  1.6086  1.5298  1.3176
71912SOL    HW233347   8.794   8.289  12.604  2.4808 -0.6466  0.9426
71913SOL     OW33348   7.641  13.286   1.666  0.2529 -0.2036  0.3607
71913SOL    HW133349   7.615  13.296   1.574 -0.2162 -0.3821  0.4718
71913SOL    HW233350   7.579  13.341   1.714  0.5318 -0.0681  0.5645
71914SOL     OW33351   0.399  10.587   8.245  0.2964 -0.2345  0.0578
71914SOL    HW133352   0.429  10.525   8.311 -1.0009 -1.4029 -0.3865
71914SOL    HW233353   0.464  10.582   8.175  0.0417 -1.3949 -0.1217
71915SOL     OW33354   3.995   3.357  12.347  0.2824  0.7544 -0.8610
71915SOL    HW133355   4.004   3.267  12.377  1.3700  1.0445 -0.2641
71915SOL    HW233356   3.935   3.352  12.273 -1.3110 -0.1815  0.4374
71916SOL     OW33357  10.789   7.575   3.703 -0.6934 -0.4711  0.4674
71916SOL    HW133358  10.841   7.539   3.774 -0.2927  0.0488  0.4463
71916SOL    HW233359  10.803   7.515   3.630  0.8431  0.2791  0.1004
71917SOL     OW33360   9.668   4.250   5.326 -0.5979 -0.0403 -0.1472
71917SOL    HW133361   9.593   4.295   5.287 -1.1691 -2.2776 -1.7968
71917SOL    HW233362   9.744   4.281   5.277 -1.1375 -1.6944 -2.1553
71918SOL     OW33363   5.810  11.633  14.033 -0.1006 -1.3195  0.3246
71918SOL    HW133364   5.836  11.649  13.942  1.3338 -0.0428  0.9090
71918SOL    HW233365   5.752  11.557  14.028 -1.6947 -0.0820 -1.8647
71919SOL     OW33366   1.453  13.359   6.493 -0.1928 -0.0503  0.3933
71919SOL    HW133367   1.377  13.308   6.465 -0.1825 -0.5986  1.3202
71919SOL    HW233368   1.529  13.306   6.468 -0.1862 -0.6005  1.5079
71920SOL     OW33369   7.449   1.208   7.705  0.0908  0.1004 -0.1137
71920SOL    HW133370   7.516   1.141   7.687 -0.5353 -0.9953  1.4388
71920SOL    HW233371   7.480   1.252   7.784  0.8770  2.2415 -1.5291
71921SOL     OW33372   0.006   9.566   8.572 -0.1287  0.0955 -0.8583
71921SOL    HW133373  -0.035   9.616   8.643  0.5484  1.7015 -1.5336
71921SOL    HW233374  -0.064   9.553   8.508  0.2114  2.4842 -1.8331
71922SOL     OW33375   7.166  12.267   2.488 -0.4051  0.5810 -0.2150
71922SOL    HW133376   7.171  12.172   2.498  0.9182  0.7137  0.7787
71922SOL    HW233377   7.134  12.281   2.399  0.2666 -0.7976 -0.6995
71923SOL     OW33378   8.695  11.143   2.629  0.1452  0.2466  0.6372
71923SOL    HW133379   8.638  11.087   2.575  0.8570  1.3432 -1.3672
71923SOL    HW233380   8.770  11.087   2.649 -0.3291 -0.3163  0.8793
71924SOL     OW33381   9.851   1.612  13.051  0.2449 -0.6644 -0.1184
71924SOL    HW133382   9.840   1.520  13.074 -0.0105 -0.5391  0.3002
71924SOL    HW233383   9.795   1.658  13.114 -0.5198 -0.2980 -1.0380
71925SOL     OW33384   1.173   8.837   9.822  0.0989 -0.3593 -0.1976
71925SOL    HW133385   1.151   8.929   9.804  0.1028 -0.0034  1.4631
71925SOL    HW233386   1.203   8.837   9.913 -0.9749 -2.1852  0.2006
71926SOL     OW33387  10.641   3.628   0.783 -0.4636  0.1519 -0.4263
71926SOL    HW133388  10.608   3.540   0.768  0.0710 -0.0702 -0.3304
71926SOL    HW233389  10.734   3.623   0.760 -0.0162  0.2507  1.2419
71927SOL     OW33390   3.110   3.277   0.510 -0.3881  0.2052  0.2201
71927SOL    HW133391   3.093   3.350   0.451 -0.1220 -0.9854 -1.4216
71927SOL    HW233392   3.177   3.309   0.570 -2.7753  2.4434  1.8944
71928SOL     OW33393  12.514   5.836   2.081  0.1459  0.5678 -0.2914
71928SOL    HW133394  12.565   5.833   2.162 -0.5371  1.4446  0.2031
71928SOL    HW233395  12.556   5.904   2.029 -1.0885  2.0562  0.5660
71929SOL     OW33396  12.698  11.633  13.254 -0.3374 -0.3394  0.2218
71929SOL    HW133397  12.714  11.701  13.189 -1.0385 -0.8559 -0.5070
71929SOL    HW233398  12.774  11.638  13.313  0.5699 -0.2064 -0.9275
71930SOL     OW33399   2.513   4.694   4.177 -0.0869 -0.1314 -0.3002
71930SOL    HW133400   2.456   4.617   4.174 -0.5511  0.2310 -1.3949
71930SOL    HW233401   2.549   4.700   4.088  1.4607 -0.1968  0.2915
71931SOL     OW33402  12.167   7.791   8.290  0.0457 -0.1699  0.6556
71931SOL    HW133403  12.163   7.710   8.340  0.7049 -0.4844  0.2027
71931SOL    HW233404  12.248   7.833   8.318  0.0327  0.0189  0.4147
71932SOL     OW33405  13.134   6.689   2.851  0.7433 -0.3031  0.2856
71932SOL    HW133406  13.076   6.747   2.802  1.5790  0.7229  0.4532
71932SOL    HW233407  13.142   6.731   2.938  0.3686 -1.3486  0.8336
71933SOL     OW33408   8.337  12.838   8.041  0.7083  0.3347 -0.5856
71933SOL    HW133409   8.335  12.822   8.136  2.0597  1.5154 -0.3272
71933SOL    HW233410   8.290  12.763   8.004 -2.5736  1.3286  1.1644
71934SOL     OW33411   8.754   4.692   9.618 -0.3873  0.0843  0.5901
71934SOL    HW133412   8.665   4.718   9.641  0.4467  0.8364  3.2063
71934SOL    HW233413   8.744   4.604   9.581 -2.2771  0.4823  0.0472
71935SOL     OW33414   8.338  13.590   9.319  0.1204  0.4230 -0.1820
71935SOL    HW133415   8.345  13.680   9.286 -0.9338  0.5880  0.0058
71935SOL    HW233416   8.408  13.543   9.274  0.6611  1.3231 -0.3257
71936SOL     OW33417   6.581   4.252   3.456  0.2039 -0.0084  0.0243
71936SOL    HW133418   6.599   4.210   3.372  0.1912 -0.7614  0.3859
71936SOL    HW233419   6.635   4.203   3.519 -2.2988 -1.7009  0.9905
71937SOL     OW33420   2.579   9.144   9.141  0.0918 -0.4368 -0.1422
71937SOL    HW133421   2.598   9.236   9.123 -0.3425 -0.2162  0.5002
71937SOL    HW233422   2.658   9.098   9.112  0.7088  0.2374  0.4116
71938SOL     OW33423  11.591   4.199   3.832 -0.4477 -0.7388  0.3384
71938SOL    HW133424  11.579   4.266   3.899 -1.4671  1.0917 -1.5691
71938SOL    HW233425  11.564   4.241   3.750  2.1356 -2.3507 -1.5224
71939SOL     OW33426  12.548  13.932   6.293 -0.0625  0.1268  0.3215
71939SOL    HW133427  12.517  13.842   6.302 -0.1687  0.0657 -0.5573
71939SOL    HW233428  12.468  13.985   6.287  0.0001  0.2216  0.3138
71940SOL     OW33429  12.864  12.901   2.347  0.7634  0.0231  0.4849
71940SOL    HW133430  12.934  12.867   2.291 -0.0528  1.9003 -1.8408
71940SOL    HW233431  12.910  12.950   2.415  1.7864  1.3644 -1.0894
71941SOL     OW33432   3.177  12.500  11.850  0.0173  0.1737  0.1989
71941SOL    HW133433   3.239  12.479  11.780  1.2293  2.4561  0.5031
71941SOL    HW233434   3.093  12.512  11.805  0.2925 -0.5429 -0.5365
71942SOL     OW33435   1.573   4.490   0.911  0.2609 -0.1062  0.1953
71942SOL    HW133436   1.626   4.532   0.843  0.2309  0.8015  0.7178
71942SOL    HW233437   1.629   4.489   0.988 -0.1789  0.0792  0.5211
71943SOL     OW33438   9.375   3.642   4.800 -0.1709 -0.3303  0.3574
71943SOL    HW133439   9.389   3.728   4.840  0.7279 -0.5901  0.6230
71943SOL    HW233440   9.338   3.589   4.870  0.0362 -0.3793  0.4314
71944SOL     OW33441  11.620  10.048   4.733 -0.7174 -0.7048  0.3344
71944SOL    HW133442  11.680   9.987   4.777 -0.2188 -0.4529  0.0166
71944SOL    HW233443  11.666  10.132   4.735 -1.2193 -0.4245  0.4015
71945SOL     OW33444   7.257   3.973   1.479  0.3294  0.0072  0.4769
71945SOL    HW133445   7.345   4.006   1.457  0.0347 -0.0385 -0.8730
71945SOL    HW233446   7.205   3.991   1.401 -0.6586 -0.7242  0.9499
71946SOL     OW33447   2.934   9.285  12.092 -0.0107  0.3067 -0.2494
71946SOL    HW133448   2.997   9.315  12.158  0.7578 -3.3407  0.8667
71946SOL    HW233449   2.983   9.222  12.039 -2.2244 -1.3655 -0.4387
71947SOL     OW33450   3.550   6.627   4.819 -0.3195  0.6678  0.9640
71947SOL    HW133451   3.537   6.662   4.907 -3.2432  1.4266  0.3598
71947SOL    HW233452   3.467   6.645   4.774  0.1656 -1.8688 -1.2065
71948SOL     OW33453   1.764   7.603   9.391 -0.3971 -0.0079 -0.0577
71948SOL    HW133454   1.828   7.651   9.444  0.3646 -0.0178 -0.9217
71948SOL    HW233455   1.681   7.648   9.407 -0.1417  0.1331  0.9382
71949SOL     OW33456   7.979   4.073   4.022 -0.3034  0.1589  0.0510
71949SOL    HW133457   8.006   3.983   4.008  1.0091  0.4998  0.2655
71949SOL    HW233458   7.886   4.075   3.998 -0.7730 -1.5990  1.5456
71950SOL     OW33459   3.993   8.733   8.638 -0.0830  0.2490  0.4393
71950SOL    HW133460   3.938   8.791   8.585  0.3846  0.0401 -0.2962
71950SOL    HW233461   4.074   8.725   8.587 -1.0515 -3.1201 -0.8243
71951SOL     OW33462   0.576   8.401  12.159 -0.4632  0.2260  0.1207
71951SOL    HW133463   0.497   8.408  12.212  0.4882  2.7362  1.3563
71951SOL    HW233464   0.581   8.308  12.137 -1.8837 -0.6517  2.9359
71952SOL     OW33465   0.786   4.940   5.818 -0.0446 -0.0720  0.1072
71952SOL    HW133466   0.741   4.857   5.837  0.1088 -0.0264  0.6885
71952SOL    HW233467   0.730   5.007   5.856 -0.0819  0.0810 -0.2145
71953SOL     OW33468   3.008   9.644   7.658 -0.7450 -0.4947 -0.3547
71953SOL    HW133469   3.004   9.588   7.581 -0.4702  0.2317 -0.9136
71953SOL    HW233470   3.077   9.707   7.638  0.0779 -0.9490  0.9415
71954SOL     OW33471  11.822   9.892  10.220  0.2655  0.6150  0.7428
71954SOL    HW133472  11.898   9.858  10.174 -0.8869  0.5883 -1.2304
71954SOL    HW233473  11.858   9.954  10.284  2.0296 -0.6493  1.0620
71955SOL     OW33474  11.439   2.794   9.344 -0.0946  0.2048  0.3760
71955SOL    HW133475  11.510   2.810   9.406 -0.0890  1.1458  0.1339
71955SOL    HW233476  11.393   2.877   9.338  0.7174  0.5699 -1.8960
71956SOL     OW33477   2.295  11.764  12.165  0.1453 -0.6730  0.2269
71956SOL    HW133478   2.357  11.823  12.207  1.1863 -1.2592 -0.4436
71956SOL    HW233479   2.313  11.678  12.203  0.1345 -0.9493 -0.3831
71957SOL     OW33480   1.078   2.677   7.072  0.1111  0.4074  0.6348
71957SOL    HW133481   0.996   2.656   7.027  1.4607  0.1804 -1.9285
71957SOL    HW233482   1.103   2.597   7.117 -0.2486 -0.0507  0.0235
71958SOL     OW33483   6.879   3.427  11.289 -0.1810 -0.4561  0.1442
71958SOL    HW133484   6.973   3.437  11.272  0.0434 -2.1198  0.1912
71958SOL    HW233485   6.873   3.344  11.336 -1.5349  0.3780  1.5312
71959SOL     OW33486  11.683  11.048  14.090 -0.0007 -0.2900  0.0729
71959SOL    HW133487  11.700  11.134  14.052  1.7275 -0.5357  0.2307
71959SOL    HW233488  11.631  11.067  14.168 -1.8144  0.3779 -1.2083
71960SOL     OW33489   7.461   7.639   8.080  0.0361  0.1786  0.4395
71960SOL    HW133490   7.468   7.650   7.986 -2.1705 -0.4892  0.1420
71960SOL    HW233491   7.520   7.566   8.100 -0.6626 -0.7279 -0.6906
71961SOL     OW33492  12.254  12.439   8.170 -0.2167 -0.8521  0.3783
71961SOL    HW133493  12.193  12.391   8.115 -2.5843  2.9612 -0.7000
71961SOL    HW233494  12.232  12.413   8.260 -0.4287 -2.6837 -0.1672
71962SOL     OW33495   0.453   4.037   9.139 -0.1370  0.1615  0.2985
71962SOL    HW133496   0.478   4.105   9.077 -1.1422 -0.0951 -0.4172
71962SOL    HW233497   0.499   4.060   9.220  0.7236  0.8305 -0.3687
71963SOL     OW33498   8.079  11.617   8.136  0.1935 -0.3961  0.5268
71963SOL    HW133499   8.097  11.594   8.227  1.3128 -0.1086  0.3883
71963SOL    HW233500   8.032  11.700   8.141 -3.1210 -2.0924  0.9873
71964SOL     OW33501  13.134   0.653   4.124  0.3109  0.1260 -0.6247
71964SOL    HW133502  13.165   0.576   4.076  0.7891 -0.3339  0.4036
71964SOL    HW233503  13.043   0.662   4.097  0.2554 -0.7835 -0.7801
71965SOL     OW33504   1.191   9.982   9.287 -0.0632 -0.2887  0.0639
71965SOL    HW133505   1.122   9.916   9.285 -0.5104  0.1809 -1.5765
71965SOL    HW233506   1.216   9.987   9.379 -1.2288 -1.4805  0.4862
71966SOL     OW33507   9.487  12.260  10.644  0.2646 -0.5171  0.1610
71966SOL    HW133508   9.422  12.276  10.576  0.1876  1.7329  0.6682
71966SOL    HW233509   9.571  12.281  10.603  0.3700 -0.6103  0.3268
71967SOL     OW33510   8.126   9.572  10.002  0.3719 -0.2738  0.3085
71967SOL    HW133511   8.110   9.616  10.085  1.9600  0.4617  0.2645
71967SOL    HW233512   8.217   9.592   9.981  0.7883 -2.5458 -0.3729
71968SOL     OW33513   1.857   0.052  13.880 -0.1638  0.5629 -0.6465
71968SOL    HW133514   1.932   0.073  13.825  0.0076 -0.8501 -0.9895
71968SOL    HW233515   1.793   0.014  13.821 -0.6603  0.6123 -0.1493
71969SOL     OW33516  13.743  10.934   4.283  0.3542 -0.5977  0.2006
71969SOL    HW133517  13.766  10.979   4.365  3.6006 -0.0395 -0.8622
71969SOL    HW233518  13.715  11.004   4.224 -1.8276 -0.9812  0.7140
71970SOL     OW33519  11.582   9.663  10.541 -0.3646  0.2284  0.2462
71970SOL    HW133520  11.595   9.748  10.499 -0.9192  2.0511  3.3881
71970SOL    HW233521  11.505   9.626  10.499 -0.5669  1.6520 -0.6887
71971SOL     OW33522   1.237  12.957  10.529 -0.0160 -0.0313  0.3615
71971SOL    HW133523   1.282  13.028  10.485 -1.9929  0.9349 -0.2076
71971SOL    HW233524   1.262  12.966  10.621  0.6377  0.6967  0.1192
71972SOL     OW33525  12.112   6.982   6.078  0.4651  0.0555  0.0862
71972SOL    HW133526  12.050   7.052   6.058  1.0511  0.1158 -1.7006
71972SOL    HW233527  12.073   6.903   6.041  0.1580 -0.4531  1.4413
71973SOL     OW33528   6.364  12.374   4.079 -0.4017  0.0739  0.2402
71973SOL    HW133529   6.286  12.377   4.134 -1.0019  0.3928 -0.5987
71973SOL    HW233530   6.418  12.448   4.109 -1.4731  1.2621 -0.6446
71974SOL     OW33531   3.704  12.731   5.619  0.1209  0.7143 -0.5374
71974SOL    HW133532   3.713  12.792   5.692 -1.8497  0.5833 -0.1330
71974SOL    HW233533   3.679  12.648   5.659  1.1370  0.0631 -1.2130
71975SOL     OW33534   3.115  10.614   1.693  0.8628 -0.3117 -0.2412
71975SOL    HW133535   3.070  10.621   1.609 -0.8077 -0.7931  0.5480
71975SOL    HW233536   3.072  10.540   1.737  0.0222  1.3440  1.9418
71976SOL     OW33537  11.603   2.082  11.733 -0.6096 -0.4330  0.6692
71976SOL    HW133538  11.635   2.015  11.793 -2.8102 -1.9334  0.2653
71976SOL    HW233539  11.648   2.064  11.650 -1.4070 -1.6522  0.4791
71977SOL     OW33540  13.950   2.155   7.882  0.3478 -0.1424  0.3674
71977SOL    HW133541  13.915   2.066   7.877  3.4755 -1.7483  3.4060
71977SOL    HW233542  13.895   2.198   7.947  0.8906 -1.0235  1.4426
71978SOL     OW33543  10.637   4.791  12.832  0.1740  0.4604 -0.7487
71978SOL    HW133544  10.618   4.699  12.813 -0.0330 -0.0694  1.7093
71978SOL    HW233545  10.551   4.829  12.851  0.4535  0.6747  0.1140
71979SOL     OW33546   4.059   5.526  13.424  0.7305 -0.4921  0.0646
71979SOL    HW133547   4.107   5.472  13.488 -1.6912 -2.5610  0.3261
71979SOL    HW233548   4.018   5.462  13.365 -2.8398  0.9053  0.7476
71980SOL     OW33549   8.036   1.359   2.370 -0.3960  0.0711  0.1813
71980SOL    HW133550   8.018   1.452   2.380 -2.3860 -0.3554  0.9530
71980SOL    HW233551   8.087   1.336   2.448 -1.8865  0.0940  1.2171
71981SOL     OW33552   8.798  12.509  12.694 -0.3118  0.3513 -0.5773
71981SOL    HW133553   8.878  12.540  12.737  0.0894 -1.3392 -0.0341
71981SOL    HW233554   8.803  12.545  12.605 -0.5946  2.9725  0.3841
71982SOL     OW33555   7.533   0.375   8.793 -0.3647  0.2236 -0.0484
71982SOL    HW133556   7.441   0.349   8.793 -0.2801 -0.0884 -1.0456
71982SOL    HW233557   7.536   0.454   8.739 -0.0558  0.2691  0.0357
71983SOL     OW33558   9.982   5.541  11.714  0.0307 -0.0229  0.6895
71983SOL    HW133559  10.049   5.526  11.781 -0.1643  1.2993  1.1988
71983SOL    HW233560   9.943   5.625  11.737 -1.2418 -0.3698 -0.0832
71984SOL     OW33561   2.681   3.726   5.589 -0.0311  0.1333  0.3372
71984SOL    HW133562   2.704   3.784   5.662  1.5999 -0.1171  0.0584
71984SOL    HW233563   2.598   3.761   5.557 -0.9166  0.0958  2.4415
71985SOL     OW33564   4.227  13.167   0.679  0.0368  0.2423  0.0676
71985SOL    HW133565   4.268  13.189   0.763  2.8310  1.0700 -1.4182
71985SOL    HW233566   4.202  13.251   0.641  0.3799  0.0014 -0.6951
71986SOL     OW33567   2.550   7.817   7.949 -0.2152  0.4054  0.0149
71986SOL    HW133568   2.464   7.848   7.976 -0.5312 -1.7938  1.7790
71986SOL    HW233569   2.533   7.740   7.895  0.5990 -1.0142  1.6866
71987SOL     OW33570   3.867   4.489   6.581  0.0586 -0.3857  0.2976
71987SOL    HW133571   3.941   4.434   6.606  0.4883 -0.1645 -0.4658
71987SOL    HW233572   3.867   4.560   6.646  0.0759 -0.7712  0.7217
71988SOL     OW33573   2.683  10.435   9.748 -0.0281  0.1551  0.5016
71988SOL    HW133574   2.670  10.449   9.842  0.1980  0.7773  0.4448
71988SOL    HW233575   2.705  10.521   9.714 -0.1318 -0.0641 -0.1305
71989SOL     OW33576  13.761   9.433  12.060 -0.3236  0.6959  0.9118
71989SOL    HW133577  13.790   9.473  12.142 -1.1382  1.5851  0.7911
71989SOL    HW233578  13.682   9.482  12.037 -1.0309 -0.6147  0.4436
71990SOL     OW33579   2.834   8.232   9.990 -0.4682  0.0704  0.1340
71990SOL    HW133580   2.848   8.306   9.932  2.6823 -1.8638 -1.9178
71990SOL    HW233581   2.787   8.168   9.936 -0.6573 -0.4515  0.9031
71991SOL     OW33582   0.522  10.114   0.363 -0.4922  0.6032  0.1546
71991SOL    HW133583   0.523  10.094   0.457  1.3671 -2.0036 -0.2984
71991SOL    HW233584   0.429  10.121   0.341 -1.0504 -0.6155  1.8758
71992SOL     OW33585   2.602   5.889   3.121  0.4484  0.1402  0.2909
71992SOL    HW133586   2.567   5.844   3.198 -0.6484  2.3911  1.1796
71992SOL    HW233587   2.664   5.826   3.083 -0.8864 -2.0341  1.5037
71993SOL     OW33588   0.750  13.337   7.707 -0.0001  0.4913  0.5830
71993SOL    HW133589   0.723  13.416   7.659 -2.7273  0.6775  2.2163
71993SOL    HW233590   0.804  13.370   7.778  1.0091  0.5788 -0.1986
71994SOL     OW33591   4.549   6.206   8.384  0.0790 -0.3095  0.1500
71994SOL    HW133592   4.531   6.211   8.478 -1.4449  0.1848 -0.1511
71994SOL    HW233593   4.555   6.297   8.355  0.7300 -0.4597 -0.2148
71995SOL     OW33594   8.235   1.458   9.166  0.4797 -0.7165 -0.3012
71995SOL    HW133595   8.202   1.519   9.101  1.1728 -1.9902 -1.9134
71995SOL    HW233596   8.312   1.418   9.125  2.5964  0.2955  2.3065
71996SOL     OW33597   7.543   2.403  10.307 -0.0337 -0.0580  0.5639
71996SOL    HW133598   7.456   2.364  10.308 -0.0072 -0.1188  1.9115
71996SOL    HW233599   7.580   2.383  10.393  1.3247 -0.0460  0.0137
71997SOL     OW33600   0.910   0.430  12.003  0.2690  0.4122 -0.5674
71997SOL    HW133601   1.001   0.437  12.030 -0.3032 -1.1888  2.0678
71997SOL    HW233602   0.860   0.458  12.079 -1.4851  0.3931 -1.6509
71998SOL     OW33603   8.261  10.281   5.151  0.0644  0.1639 -0.5772
71998SOL    HW133604   8.265  10.187   5.166 -2.5327  0.1900  0.8280
71998SOL    HW233605   8.252  10.290   5.056 -2.5681 -1.2476 -0.5626
71999SOL     OW33606  13.824   5.567  13.002 -0.4840  0.3260  0.4727
71999SOL    HW133607  13.796   5.504  13.069 -1.2677  0.8357  0.6312
71999SOL    HW233608  13.819   5.652  13.045 -2.1943  0.7981 -0.5941
72000SOL     OW33609   6.112   9.388  13.368  0.1007 -0.4986  0.4003
72000SOL    HW133610   6.048   9.457  13.386 -1.0170 -1.8979  2.0900
72000SOL    HW233611   6.170   9.388  13.444  1.4202 -0.0446 -0.5690
72001SOL     OW33612  13.452   1.161  13.242  0.1253 -0.6901 -0.3709
72001SOL    HW133613  13.444   1.088  13.180  1.5611 -2.2193  1.1372
72001SOL    HW233614  13.533   1.205  13.215  1.6186 -2.2840  1.2077
72002SOL     OW33615   4.595   6.783  11.383 -0.4243  0.4430 -0.0693
72002SOL    HW133616   4.687   6.803  11.366 -0.3506 -0.3002 -0.5629
72002SOL    HW233617   4.582   6.696  11.346 -1.2527  0.4164  0.2671
72003SOL     OW33618   2.930   6.346   2.088  0.3360  0.4361  0.3232
72003SOL    HW133619   2.927   6.430   2.043 -0.7057 -0.3228 -1.1024
72003SOL    HW233620   2.843   6.336   2.126  0.2620 -0.2461 -0.0108
72004SOL     OW33621   1.155   1.324   2.154 -0.2936 -0.0638  0.3830
72004SOL    HW133622   1.222   1.268   2.195 -0.7069 -2.0449 -1.4483
72004SOL    HW233623   1.188   1.413   2.164  3.5200 -1.0187 -1.8518
72005SOL     OW33624   0.514   8.352  12.579 -0.7391  0.4897 -0.1741
72005SOL    HW133625   0.478   8.396  12.503  0.1638  0.9010 -0.3765
72005SOL    HW233626   0.604   8.384  12.585 -0.7152  0.2588  0.9044
72006SOL     OW33627   1.647   7.864   3.456 -0.4348  0.9893 -0.0412
72006SOL    HW133628   1.734   7.830   3.433 -0.1189  0.6794  1.5204
72006SOL    HW233629   1.590   7.831   3.386 -0.0404 -2.3574  1.0066
72007SOL     OW33630   3.028  12.755   1.527  0.0246 -0.2782 -0.9392
72007SOL    HW133631   2.994  12.666   1.515 -1.0311 -0.1009  0.4912
72007SOL    HW233632   3.024  12.769   1.622  1.4825  0.8013 -1.0117
72008SOL     OW33633   7.913   1.453   7.456 -0.0962  0.2068  0.6660
72008SOL    HW133634   7.912   1.479   7.548 -1.0005  0.9683  0.4565
72008SOL    HW233635   7.995   1.489   7.422  0.0196  0.3217  1.0623
72009SOL     OW33636  12.029   6.448  10.331  0.5860 -0.2312 -0.0173
72009SOL    HW133637  12.091   6.520  10.342  0.4070 -0.3291  1.9014
72009SOL    HW233638  12.082   6.369  10.340  0.3531 -0.3193  0.6023
72010SOL     OW33639   0.518  13.209   2.512  0.7846  0.0609  0.2375
72010SOL    HW133640   0.600  13.255   2.494  1.5795 -0.7977  1.5350
72010SOL    HW233641   0.543  13.117   2.522 -0.3592 -0.2445  0.4985
72011SOL     OW33642  12.172   9.333  12.837 -0.2588 -0.1823  0.2808
72011SOL    HW133643  12.207   9.366  12.920 -0.1642  1.2127 -0.2857
72011SOL    HW233644  12.124   9.254  12.861  1.1991 -0.7740  1.4245
72012SOL     OW33645   3.629   7.204   6.987 -0.1668  0.0610 -0.1725
72012SOL    HW133646   3.601   7.112   6.995 -1.3424  0.4370  0.3530
72012SOL    HW233647   3.718   7.205   7.021 -0.3798 -0.7821  0.4588
72013SOL     OW33648   4.683   7.540   3.885 -0.2348 -0.3120  0.5952
72013SOL    HW133649   4.628   7.592   3.826  1.0802  1.7481  1.0675
72013SOL    HW233650   4.683   7.590   3.967  1.8137 -0.5438  0.7837
72014SOL     OW33651  11.862   8.782   1.164  0.3898 -0.1283 -0.1510
72014SOL    HW133652  11.882   8.874   1.181  2.9039 -0.5517 -0.3685
72014SOL    HW233653  11.856   8.742   1.251  0.6096  0.0171 -0.0684
72015SOL     OW33654   7.257   2.267  11.581 -0.1199  0.2128  0.5145
72015SOL    HW133655   7.281   2.185  11.625 -1.2637 -0.7118 -0.5312
72015SOL    HW233656   7.181   2.299  11.630  0.3598  0.7012  0.9579
72016SOL     OW33657   4.176   9.637   2.583  0.8478  0.4134 -0.0220
72016SOL    HW133658   4.186   9.542   2.586 -0.0967  0.2461 -1.4401
72016SOL    HW233659   4.241   9.670   2.645 -0.6206 -1.2510  2.5464
72017SOL     OW33660   5.432   2.266   2.484  0.6689  0.3776  0.0110
72017SOL    HW133661   5.513   2.281   2.435 -0.6203 -0.3259 -2.4868
72017SOL    HW233662   5.454   2.198   2.547  2.2109  0.7833 -0.0499
72018SOL     OW33663   0.073  13.121   0.401  0.6676 -0.0135 -0.1640
72018SOL    HW133664   0.099  13.079   0.319 -0.4289 -0.1811 -0.4385
72018SOL    HW233665   0.069  13.050   0.464  0.0917 -0.1207 -0.3171
72019SOL     OW33666   8.366   0.389   6.173 -0.2590  0.0452 -0.2363
72019SOL    HW133667   8.325   0.356   6.093 -1.7940 -1.9950  1.2872
72019SOL    HW233668   8.428   0.320   6.197  0.6171  0.9134  0.0500
72020SOL     OW33669  10.861  10.267   3.761 -0.8024 -0.2561 -0.0672
72020SOL    HW133670  10.797  10.255   3.691 -0.7048 -0.0759 -0.1886
72020SOL    HW233671  10.868  10.181   3.802 -1.1561 -0.2672 -0.0245
72021SOL     OW33672   8.652  12.738   2.456  0.0003  0.1866 -0.1739
72021SOL    HW133673   8.670  12.644   2.455  0.0238  0.0246  3.2902
72021SOL    HW233674   8.725  12.776   2.407  1.1108 -1.4932  0.0700
72022SOL     OW33675   4.856   6.640   5.015  0.2175  0.3869  0.1322
72022SOL    HW133676   4.829   6.571   4.954 -0.3399 -0.7356  1.5946
72022SOL    HW233677   4.940   6.610   5.050 -0.2491  0.1943  1.1219
72023SOL     OW33678  11.533  11.056   8.023 -1.0229  0.5480  0.3138
72023SOL    HW133679  11.475  11.049   8.099 -0.0844  0.3203  1.0407
72023SOL    HW233680  11.550  11.150   8.015 -0.0750  0.4744  1.2338
72024SOL     OW33681   5.193  10.246  12.383 -0.4753  0.3837  0.3752
72024SOL    HW133682   5.213  10.168  12.332  0.6063  1.2757 -0.6401
72024SOL    HW233683   5.145  10.303  12.323  0.7999  1.4457  0.3086
72025SOL     OW33684  13.595   6.463   1.177 -0.2741  0.2312 -0.2625
72025SOL    HW133685  13.530   6.526   1.208  0.5493 -0.0016  2.1499
72025SOL    HW233686  13.550   6.378   1.182 -0.1265  0.1871  0.4251
72026SOL     OW33687   5.117  11.236   4.861 -0.2457  0.6044 -0.0773
72026SOL    HW133688   5.058  11.292   4.911 -0.3959  1.3022 -1.0065
72026SOL    HW233689   5.157  11.178   4.926 -1.5415  0.4835  0.6328
72027SOL     OW33690  11.470  11.253   6.132 -0.5462  0.1722  0.3181
72027SOL    HW133691  11.514  11.176   6.168 -0.0125  0.5105  0.3993
72027SOL    HW233692  11.401  11.217   6.076  1.3561 -0.4495 -1.7906
72028SOL     OW33693  13.226   1.975   9.885 -0.0820 -0.0389 -0.6349
72028SOL    HW133694  13.314   2.010   9.870  0.2084 -0.6890 -0.4678
72028SOL    HW233695  13.177   2.049   9.921  1.1798 -0.4132  2.0743
72029SOL     OW33696  12.415  11.455   4.282  0.2831 -0.0175 -0.0759
72029SOL    HW133697  12.449  11.369   4.309  2.5603  0.6817 -0.4418
72029SOL    HW233698  12.384  11.442   4.193  1.4916 -0.2939 -0.4776
72030SOL     OW33699   8.290  10.420   2.183 -0.3594 -0.0165  0.7034
72030SOL    HW133700   8.204  10.453   2.210 -1.1804 -2.2042  0.9395
72030SOL    HW233701   8.346  10.498   2.182 -1.7953  1.1406  2.7344
72031SOL     OW33702  10.637   1.592   9.666 -0.2115 -0.4211  0.3578
72031SOL    HW133703  10.653   1.619   9.757 -1.1138 -1.1560  0.7482
72031SOL    HW233704  10.701   1.642   9.615 -0.1467  0.5181  1.3222
72032SOL     OW33705   5.917   1.685  14.015 -0.1685 -0.0170  0.0221
72032SOL    HW133706   5.921   1.695  13.920 -2.6543 -1.6972 -0.3624
72032SOL    HW233707   5.878   1.766  14.047  0.3388  0.4057 -0.4182
72033SOL     OW33708   2.798  13.074   3.621  0.4883  0.0465 -0.3421
72033SOL    HW133709   2.720  13.028   3.588  0.4455 -0.9196  1.0182
72033SOL    HW233710   2.814  13.143   3.557 -0.2378 -1.0452 -1.7617
72034SOL     OW33711   3.778   1.457  14.035 -0.2327  0.4641 -0.3409
72034SOL    HW133712   3.695   1.427  14.071  0.3082  0.3872  0.8952
72034SOL    HW233713   3.841   1.388  14.057 -0.0212  0.0067 -2.1996
72035SOL     OW33714   5.576   3.417   6.726  0.5677  0.2338  0.2311
72035SOL    HW133715   5.487   3.394   6.700  0.6651 -0.6340  0.6073
72035SOL    HW233716   5.594   3.500   6.684 -0.2686  0.1961 -0.2001
72036SOL     OW33717   7.421   7.045   1.307 -0.0329 -0.7626 -0.2978
72036SOL    HW133718   7.372   6.998   1.240  1.0626 -0.8340 -1.0537
72036SOL    HW233719   7.354   7.095   1.354 -0.7872 -0.4868 -1.6162
72037SOL     OW33720  10.687   8.707  11.113 -0.6666 -0.7796 -0.0269
72037SOL    HW133721  10.661   8.711  11.205 -1.1170 -1.3919 -0.1233
72037SOL    HW233722  10.721   8.795  11.094 -0.0751 -0.8049  0.8611
72038SOL     OW33723  13.692  11.833  10.476 -0.0012  0.1391  0.0091
72038SOL    HW133724  13.634  11.757  10.478  1.9482 -1.4184  1.0638
72038SOL    HW233725  13.643  11.902  10.520 -2.3705 -0.0163 -2.1705
72039SOL     OW33726  11.959   9.793   1.528 -0.4707  0.1489 -0.2059
72039SOL    HW133727  12.001   9.712   1.555 -0.4441 -0.0114 -0.7139
72039SOL    HW233728  11.876   9.793   1.575 -0.8355 -0.5846 -0.8159
72040SOL     OW33729  11.955   4.372   7.238 -0.2735  0.5561  0.2285
72040SOL    HW133730  12.030   4.424   7.211 -0.7717  0.7430 -0.8641
72040SOL    HW233731  11.920   4.417   7.315 -0.9994  2.1715 -0.9762
72041SOL     OW33732   1.418   2.028  11.409 -0.0604 -0.6807 -0.0907
72041SOL    HW133733   1.490   2.062  11.462  0.0234 -0.1929 -0.5049
72041SOL    HW233734   1.365   1.976  11.470 -0.1998  0.2155  0.5647
72042SOL     OW33735   7.712  14.085  13.580 -0.3751 -0.2132  0.1317
72042SOL    HW133736   7.746  14.018  13.640  1.4603  1.6222  1.2794
72042SOL    HW233737   7.755  14.067  13.497 -0.0391 -0.5952  0.3855
72043SOL     OW33738   0.921   4.693   2.852 -0.0195  0.0087  0.0700
72043SOL    HW133739   0.953   4.604   2.841  1.6828  0.6770 -0.8220
72043SOL    HW233740   0.960   4.741   2.779 -0.4086  1.6029  0.8666
72044SOL     OW33741   9.691   1.119  13.612 -0.1888  0.2755 -0.0269
72044SOL    HW133742   9.693   1.036  13.566 -1.7803  0.3337 -0.2361
72044SOL    HW233743   9.612   1.116  13.665 -0.1369  1.5535  0.1623
72045SOL     OW33744   0.893   4.431  12.804 -0.0016 -0.3038 -0.3094
72045SOL    HW133745   0.855   4.455  12.888  1.7479 -0.0343  0.4379
72045SOL    HW233746   0.914   4.338  12.813 -1.7136 -0.8304 -1.2387
72046SOL     OW33747  13.066   8.194   5.743 -0.5228 -0.1548 -0.0393
72046SOL    HW133748  13.086   8.164   5.832 -2.1128  0.5010  0.5831
72046SOL    HW233749  13.092   8.287   5.743 -0.4559 -0.1714 -0.2992
72047SOL     OW33750   1.110   5.940  11.130 -0.1622 -0.4138  0.2765
72047SOL    HW133751   1.193   5.976  11.161  0.5585 -0.9840 -0.9491
72047SOL    HW233752   1.093   5.867  11.190 -0.3615  0.3662  1.2064
72048SOL     OW33753  10.411   5.164   9.179 -0.3081  0.2027 -0.1431
72048SOL    HW133754  10.413   5.074   9.214 -0.4141  0.2919  0.0906
72048SOL    HW233755  10.358   5.213   9.241  1.2399  0.8477  0.7228
72049SOL     OW33756   4.932   4.402   0.098  0.3735  0.1700 -0.2931
72049SOL    HW133757   4.976   4.374   0.178  1.7670  0.0677 -1.0612
72049SOL    HW233758   4.992   4.376   0.027 -0.9048  0.0949 -1.3828
72050SOL     OW33759   8.826  11.922  12.091 -0.0482 -0.0215  0.5047
72050SOL    HW133760   8.776  11.842  12.076  0.0845  0.0088 -0.1417
72050SOL    HW233761   8.896  11.896  12.152 -0.5126 -0.1878  0.9726
72051SOL     OW33762  10.669  10.229  12.401  0.7028  0.0790  0.2541
72051SOL    HW133763  10.730  10.202  12.469 -0.1448  1.5274  1.6732
72051SOL    HW233764  10.591  10.175  12.415  0.4746  0.4765  0.5330
72052SOL     OW33765   8.186   5.530   3.072  0.4134  0.1285  0.4246
72052SOL    HW133766   8.150   5.577   3.146  0.1042  0.9945 -0.2528
72052SOL    HW233767   8.186   5.594   3.000 -1.7204 -1.3796 -1.0429
72053SOL     OW33768   1.241   0.751   8.805  0.2567 -0.1263  0.1473
72053SOL    HW133769   1.149   0.767   8.827 -0.0807  0.5607 -1.5947
72053SOL    HW233770   1.284   0.736   8.889 -1.4935 -0.7178  0.9766
72054SOL     OW33771   3.621   6.435   5.383 -0.0491  0.5675  0.0966
72054SOL    HW133772   3.533   6.414   5.414 -0.6406  2.4337 -0.1903
72054SOL    HW233773   3.671   6.453   5.463  0.6024 -2.0588  0.3924
72055SOL     OW33774   2.332   2.953   9.478  0.0763 -0.5591  0.3239
72055SOL    HW133775   2.304   3.026   9.423 -0.9329 -1.4380 -0.3757
72055SOL    HW233776   2.422   2.974   9.503 -1.3745  2.8697  3.4699
72056SOL     OW33777   1.019   6.160  13.698  0.5377  0.5953  0.2323
72056SOL    HW133778   0.939   6.136  13.746 -0.3907  1.0434 -1.0313
72056SOL    HW233779   1.087   6.165  13.765 -0.3825 -0.3021  1.2712
72057SOL     OW33780   5.097   7.139   8.665 -0.0821  0.9409 -0.3231
72057SOL    HW133781   5.148   7.204   8.715 -0.2999 -0.5634  2.0074
72057SOL    HW233782   5.007   7.169   8.673 -0.1080  0.7491  0.1763
72058SOL     OW33783   3.358   8.201  10.820  0.4782 -0.0279 -0.3324
72058SOL    HW133784   3.420   8.172  10.887  1.6947  0.9841 -0.9694
72058SOL    HW233785   3.334   8.122  10.773  2.9827 -0.2349 -1.4282
72059SOL     OW33786   8.279   4.518   4.156 -0.3084  0.6345  0.3444
72059SOL    HW133787   8.266   4.565   4.074  2.1571  1.0364  0.1049
72059SOL    HW233788   8.205   4.457   4.160 -0.3854  0.4134 -2.3034
72060SOL     OW33789   2.234  13.890  13.282  0.3217 -0.7972  0.1779
72060SOL    HW133790   2.258  13.802  13.310  0.1212 -0.5781  1.0635
72060SOL    HW233791   2.281  13.903  13.200 -0.3365 -2.0544 -0.4201
72061SOL     OW33792   0.134   5.457   0.469  0.4481  0.4980 -0.6057
72061SOL    HW133793   0.076   5.451   0.545  1.7393 -1.8887  0.2986
72061SOL    HW233794   0.084   5.418   0.397 -0.4468  1.9668 -0.8235
72062SOL     OW33795   3.073   0.985   5.593 -0.1059 -0.0510 -0.6017
72062SOL    HW133796   3.035   0.897   5.606 -4.2725  1.4749 -0.9267
72062SOL    HW233797   3.100   1.012   5.681 -0.6638 -0.9280 -0.1390
72063SOL     OW33798   3.647  12.836   8.130 -0.3098 -0.3424 -0.2577
72063SOL    HW133799   3.639  12.823   8.225 -0.1935  2.0225  0.1404
72063SOL    HW233800   3.663  12.748   8.095 -1.7860 -1.4887  1.7360
72064SOL     OW33801   5.123  11.035  12.803  0.2241 -0.3360 -0.0838
72064SOL    HW133802   5.035  11.048  12.766  0.1649  1.3728  0.5821
72064SOL    HW233803   5.176  11.104  12.764  0.9061 -0.4138  0.6876
72065SOL     OW33804  13.678  10.774   8.279  0.5129  0.2458 -0.4544
72065SOL    HW133805  13.602  10.746   8.330  0.0465 -1.8718 -2.1273
72065SOL    HW233806  13.643  10.789   8.191  2.2154 -3.1904 -1.9368
72066SOL     OW33807   1.032   1.545  10.355  0.2287  0.4431  0.6204
72066SOL    HW133808   1.022   1.634  10.321 -0.3547  0.5579  1.0797
72066SOL    HW233809   1.059   1.556  10.446 -1.1049  0.1779  1.0708
72067SOL     OW33810   1.870   2.083   3.549  0.4950 -0.0687 -0.1740
72067SOL    HW133811   1.778   2.084   3.525 -0.1261 -4.0231  1.1776
72067SOL    HW233812   1.872   2.117   3.639  0.1135 -1.0069  0.2047
72068SOL     OW33813   3.975   7.326   8.463  0.3244 -0.5068 -0.0093
72068SOL    HW133814   3.996   7.238   8.434  0.8475  0.2924 -2.2652
72068SOL    HW233815   3.917   7.361   8.395 -0.5509  0.6150  1.2534
72069SOL     OW33816   3.704   4.568   1.218  0.3030 -0.1356  0.1147
72069SOL    HW133817   3.681   4.476   1.229  1.0889 -0.4087 -0.3746
72069SOL    HW233818   3.725   4.576   1.124 -1.7466  1.0241 -0.3105
72070SOL     OW33819   5.143   4.594   9.369  0.3861  0.0233  0.1975
72070SOL    HW133820   5.231   4.602   9.407  0.0390  1.7416  0.7558
72070SOL    HW233821   5.145   4.656   9.295  0.0164 -0.8333 -0.5384
72071SOL     OW33822   5.069   6.955   2.262 -0.3948  0.7648  0.1685
72071SOL    HW133823   5.075   6.976   2.355 -0.5147 -1.3715  0.7105
72071SOL    HW233824   4.985   6.909   2.253  0.5741 -0.9465 -0.5530
72072SOL     OW33825   9.113   1.476   1.317 -0.3894 -0.1588  0.1116
72072SOL    HW133826   9.181   1.426   1.273 -0.8990 -1.1893  0.4649
72072SOL    HW233827   9.083   1.540   1.252 -2.5347 -2.9235 -1.8153
72073SOL     OW33828   0.801   9.830  11.317  0.5987  0.0929 -0.3103
72073SOL    HW133829   0.751   9.896  11.269  1.9018  0.5333 -1.1028
72073SOL    HW233830   0.856   9.788  11.251  0.6940 -0.9356  0.4026
72074SOL     OW33831  13.611  10.555   9.908 -0.1412  0.0240  0.4659
72074SOL    HW133832  13.549  10.483   9.898  0.1573 -0.2001  0.2335
72074SOL    HW233833  13.624  10.588   9.820  2.1712 -1.6978  0.0735
72075SOL     OW33834   8.865   0.731   7.943  0.2465 -0.5476 -0.0896
72075SOL    HW133835   8.922   0.766   8.011 -1.7723 -0.5383  1.7227
72075SOL    HW233836   8.814   0.663   7.987 -0.1184 -1.5894 -2.0008
72076SOL     OW33837  14.053   0.247  12.946 -0.3283  0.1332  0.2022
72076SOL    HW133838  14.029   0.225  13.036  1.3562  1.8518  1.1551
72076SOL    HW233839  14.016   0.334  12.932 -0.7699 -0.2172 -0.8667
72077SOL     OW33840   8.625   2.801  11.589  0.2644 -0.1364  0.7109
72077SOL    HW133841   8.588   2.784  11.503  0.2643  0.6483  0.5525
72077SOL    HW233842   8.578   2.878  11.622  0.6585 -0.0815  1.1679
72078SOL     OW33843  10.314   0.590   8.232  0.0993  0.0775 -0.4109
72078SOL    HW133844  10.325   0.495   8.224 -1.8588 -0.2828  0.5667
72078SOL    HW233845  10.256   0.601   8.308  1.6351  2.1531  0.5582
72079SOL     OW33846  13.364   3.571  12.805 -0.1621  0.1983  0.6976
72079SOL    HW133847  13.342   3.625  12.729 -0.2780  1.2791  1.4726
72079SOL    HW233848  13.282   3.562  12.853 -0.0022 -0.1289  0.9120
72080SOL     OW33849  11.915   4.275  11.054 -0.3749 -0.0076 -0.4545
72080SOL    HW133850  11.848   4.331  11.095  1.2579  1.0514  0.8726
72080SOL    HW233851  11.901   4.189  11.093 -1.7352 -0.1372 -1.1418
72081SOL     OW33852   3.845   6.729   3.385  0.2297  0.0653 -0.5273
72081SOL    HW133853   3.889   6.774   3.313  0.5507  0.5370 -0.0446
72081SOL    HW233854   3.784   6.669   3.342 -1.6514  2.3478 -1.2137
72082SOL     OW33855  13.066   6.158  10.080  0.6884  0.3242  0.3255
72082SOL    HW133856  12.979   6.145  10.119  0.4295  1.8087  0.3372
72082SOL    HW233857  13.063   6.112   9.997  0.3651 -0.7661  0.9191
72083SOL     OW33858   5.900  11.764   1.802 -0.6813  0.2085 -0.2338
72083SOL    HW133859   5.933  11.720   1.724  2.6700 -0.5195  1.4235
72083SOL    HW233860   5.894  11.695   1.868  1.8383  1.5720  1.5945
72084SOL     OW33861  10.290   0.656   3.947 -0.0649  0.0873 -0.1371
72084SOL    HW133862  10.202   0.620   3.938 -0.4261  1.0255 -0.3556
72084SOL    HW233863  10.326   0.655   3.858  0.6903 -1.6029  0.1341
72085SOL     OW33864  10.197   4.398   0.431  0.6157 -0.2004  0.4613
72085SOL    HW133865  10.202   4.313   0.386  0.9872 -0.2914  0.6687
72085SOL    HW233866  10.254   4.388   0.507 -0.4454 -0.2330  1.2774
72086SOL     OW33867   0.262  13.351  11.409 -0.0797  0.3810  0.8253
72086SOL    HW133868   0.332  13.320  11.351  0.4937 -0.2325  1.8169
72086SOL    HW233869   0.261  13.446  11.397  0.6338  0.3501  0.4736
72087SOL     OW33870   7.910   8.479   3.625  0.3740 -0.2521  0.0235
72087SOL    HW133871   7.922   8.385   3.609 -0.3271 -0.1953 -1.0025
72087SOL    HW233872   7.884   8.514   3.539  2.4425  1.2092 -0.0752
72088SOL     OW33873  12.098  12.532   2.711 -0.5298  0.1016 -0.5289
72088SOL    HW133874  12.132  12.443   2.704  1.6441  0.8819 -0.7292
72088SOL    HW233875  12.122  12.560   2.799 -2.1191  0.1689 -0.0929
72089SOL     OW33876   1.250   8.406   3.608  0.4660 -0.1005 -0.0675
72089SOL    HW133877   1.212   8.487   3.641  0.2869 -1.1896  2.6393
72089SOL    HW233878   1.175   8.347   3.598  0.6239 -0.0699 -1.8000
72090SOL     OW33879   1.400  12.397   0.712  0.2649 -0.3350  0.2505
72090SOL    HW133880   1.411  12.442   0.796 -0.1187  1.2565 -0.5233
72090SOL    HW233881   1.484  12.409   0.667 -0.5519  1.5809 -0.8525
72091SOL     OW33882   0.397   6.178   1.407  0.2014  0.2384 -0.6199
72091SOL    HW133883   0.349   6.099   1.382  0.1405  0.4969 -1.3182
72091SOL    HW233884   0.475   6.145   1.452 -0.7360 -0.1856  0.7717
72092SOL     OW33885  11.014  12.296   8.391 -0.0003  0.1791 -0.1664
72092SOL    HW133886  10.976  12.270   8.475 -0.9880 -0.0252 -0.6595
72092SOL    HW233887  11.037  12.388   8.402 -0.3851  0.2276  0.2440
72093SOL     OW33888   6.925  13.553   9.758  0.8506  0.2151  0.5507
72093SOL    HW133889   6.916  13.648   9.755  0.4928  0.2016  1.0344
72093SOL    HW233890   6.973  13.530   9.678 -0.1470  0.6660 -0.1836
72094SOL     OW33891  10.833   6.169   4.673  0.3377 -0.1404 -0.2510
72094SOL    HW133892  10.908   6.111   4.657  1.3031  0.3365  2.1711
72094SOL    HW233893  10.842   6.238   4.607  0.7792 -1.2355 -1.3719
72095SOL     OW33894   1.393   7.139   0.642  0.0232 -0.4080  0.3766
72095SOL    HW133895   1.331   7.131   0.713 -0.7952 -0.4008 -0.3212
72095SOL    HW233896   1.468   7.185   0.680 -0.6280  0.0921  1.0773
72096SOL     OW33897   4.368   0.011   6.564  0.5986  0.2167 -0.2705
72096SOL    HW133898   4.315   0.085   6.537  0.1207 -0.6254 -1.7110
72096SOL    HW233899   4.437   0.050   6.619  0.0095  1.6281 -0.4904
72097SOL     OW33900   7.297   2.634   2.877 -0.0765  0.3657  0.0341
72097SOL    HW133901   7.312   2.725   2.903 -1.3022  0.2519  1.2283
72097SOL    HW233902   7.202   2.627   2.868  0.0070 -0.8046 -0.0500
72098SOL     OW33903   2.678   0.945   1.181 -0.1003  0.4962 -0.0405
72098SOL    HW133904   2.771   0.922   1.172 -0.0864  0.1250  0.9685
72098SOL    HW233905   2.679   1.036   1.210 -0.1089  1.0355 -1.5961
72099SOL     OW33906   4.738   1.816   0.143 -0.1652 -0.2620  0.1112
72099SOL    HW133907   4.793   1.893   0.129 -0.8504  0.2121 -0.0121
72099SOL    HW233908   4.747   1.765   0.062  0.6185 -0.5310  0.3581
72100SOL     OW33909   3.378   4.912  14.087  0.1849  0.1592 -0.6627
72100SOL    HW133910   3.471   4.891  14.085  0.1875  0.1102 -0.2606
72100SOL    HW233911   3.374   5.003  14.116  0.0766 -0.2048  0.5515
72101SOL     OW33912   5.292   0.595  12.686 -0.1457 -0.3336 -0.2789
72101SOL    HW133913   5.269   0.507  12.654  0.5114 -1.0028  0.9847
72101SOL    HW233914   5.249   0.600  12.772 -0.4527  0.7262 -0.4859
72102SOL     OW33915   6.207   5.014  11.455 -0.2453  0.0780 -0.0614
72102SOL    HW133916   6.157   4.934  11.471 -0.3625  0.1571 -0.0311
72102SOL    HW233917   6.202   5.062  11.538 -0.5107  0.3013 -0.2018
72103SOL     OW33918   6.057   9.294   5.220 -0.3736  0.6072  0.4834
72103SOL    HW133919   5.992   9.289   5.290  0.7933  0.4537  1.5802
72103SOL    HW233920   6.074   9.203   5.196 -0.8200  0.6607 -0.0665
72104SOL     OW33921   7.863   1.839   6.746  0.2826  0.0865  0.7361
72104SOL    HW133922   7.781   1.805   6.782  0.2853 -1.1321 -0.3597
72104SOL    HW233923   7.900   1.766   6.697  2.0227  0.6294  1.1768
72105SOL     OW33924   1.344   6.959   4.400  0.0600  0.3979  0.0960
72105SOL    HW133925   1.284   6.934   4.330  0.0697  0.8902 -0.0896
72105SOL    HW233926   1.292   7.017   4.457  0.1584  0.2875  0.3008
72106SOL     OW33927   1.792  12.816  11.244 -0.3446  0.3319 -0.0954
72106SOL    HW133928   1.856  12.887  11.257 -1.7841  1.6292  0.2228
72106SOL    HW233929   1.711  12.862  11.221 -0.7690 -1.3327 -2.2557
72107SOL     OW33930  10.388   3.947   8.330  0.0683  0.4346 -0.5139
72107SOL    HW133931  10.320   3.883   8.308 -0.4726  0.7988  0.0795
72107SOL    HW233932  10.433   3.963   8.247  0.9751 -1.5896 -0.4636
72108SOL     OW33933   9.742   4.122  13.366 -0.0990  0.0295  0.3574
72108SOL    HW133934   9.711   4.055  13.427  0.1227 -0.6382 -0.2592
72108SOL    HW233935   9.756   4.199  13.421  0.0988 -0.5619  1.1565
72109SOL     OW33936   3.363  11.659   2.650  0.1170 -0.4688  0.4663
72109SOL    HW133937   3.362  11.726   2.581 -3.4359  1.7509  2.3725
72109SOL    HW233938   3.308  11.589   2.616 -2.2417  0.9434  1.1870
72110SOL     OW33939   5.618  11.516   0.689  0.3887  0.1607 -0.3907
72110SOL    HW133940   5.594  11.608   0.677 -1.7931 -0.3520 -0.2527
72110SOL    HW233941   5.557  11.483   0.755  0.6101 -1.6014 -1.0165
72111SOL     OW33942  14.062   1.103   5.845 -0.0761  0.3931 -0.6816
72111SOL    HW133943  14.125   1.035   5.869 -2.1839 -2.1165 -1.7468
72111SOL    HW233944  14.020   1.126   5.927  0.4481  0.1836 -0.3469
72112SOL     OW33945   0.267   4.645   4.427  0.4018  0.2223  0.0763
72112SOL    HW133946   0.320   4.619   4.351  1.9220  1.3771  0.6762
72112SOL    HW233947   0.177   4.634   4.398  0.9363 -1.2730 -1.2008
72113SOL     OW33948   8.096   4.489   5.761  0.8871 -0.1451  0.8890
72113SOL    HW133949   8.097   4.435   5.840 -0.7711 -1.0188  0.3715
72113SOL    HW233950   8.162   4.448   5.704  0.6728 -0.7418  1.0585
72114SOL     OW33951  13.489   4.919   0.446 -0.5223  0.5357 -0.0192
72114SOL    HW133952  13.492   5.001   0.398  3.2876  0.2924 -0.5313
72114SOL    HW233953  13.405   4.880   0.422 -0.4828  2.1972 -3.4553
72115SOL     OW33954   5.434  10.565  13.329 -0.1986  0.2982 -0.2327
72115SOL    HW133955   5.396  10.536  13.246  0.1942 -0.1380 -0.2654
72115SOL    HW233956   5.487  10.642  13.306  0.7154 -0.4118 -0.5655
72116SOL     OW33957   2.746   9.565   7.334 -0.1280 -0.0394  0.2831
72116SOL    HW133958   2.786   9.625   7.272 -1.6446  0.4157 -0.3157
72116SOL    HW233959   2.819   9.522   7.378  0.9739  0.7420 -0.7423
72117SOL     OW33960   1.896   8.877   9.544  0.2466  0.2120 -0.3873
72117SOL    HW133961   1.910   8.808   9.479 -0.3891 -0.9560  0.6578
72117SOL    HW233962   1.984   8.902   9.572  0.4892 -0.4711 -0.5119
72118SOL     OW33963   5.865   5.743   6.055 -0.0663  0.1942  0.3282
72118SOL    HW133964   5.771   5.734   6.069 -0.2846 -0.5336 -1.4598
72118SOL    HW233965   5.895   5.791   6.133 -2.1337  1.7661  0.2564
72119SOL     OW33966   6.108   0.159  10.516 -0.5432 -0.2645 -0.6828
72119SOL    HW133967   6.190   0.132  10.557  0.2779  2.9715  0.0553
72119SOL    HW233968   6.119   0.136  10.423  0.6896 -0.9203 -0.3945
72120SOL     OW33969  10.553  13.286   2.339 -0.5429 -0.1200 -0.2031
72120SOL    HW133970  10.547  13.349   2.410  0.3428 -1.0576  0.7331
72120SOL    HW233971  10.628  13.231   2.362 -0.7706 -0.9744 -1.4278
72121SOL     OW33972   4.865  12.553  10.612  0.5386  0.0299 -0.0448
72121SOL    HW133973   4.786  12.593  10.647 -0.0434 -0.2685 -0.9718
72121SOL    HW233974   4.837  12.467  10.580  0.9267  0.4552 -1.6269
72122SOL     OW33975   4.452   0.949  10.983 -0.0100 -0.0225  0.8281
72122SOL    HW133976   4.461   0.859  10.953 -0.4967  0.1080  0.2461
72122SOL    HW233977   4.359   0.957  11.007  0.0721  0.2669  1.0536
72123SOL     OW33978  13.729   1.269   2.117 -0.3080 -0.0434 -0.2664
72123SOL    HW133979  13.717   1.321   2.196 -0.4630  0.2996 -0.5097
72123SOL    HW233980  13.774   1.190   2.146 -0.7512 -0.1201  0.2360
72124SOL     OW33981   3.692   9.715   7.262 -0.2256 -0.3941 -0.1392
72124SOL    HW133982   3.757   9.784   7.275  0.9368 -1.4523 -0.1523
72124SOL    HW233983   3.660   9.730   7.173 -0.0007  0.1334 -0.1373
72125SOL     OW33984   9.414   1.552   4.478  0.5896  0.0331  0.7057
72125SOL    HW133985   9.368   1.636   4.476  2.2405  0.9588 -1.0403
72125SOL    HW233986   9.484   1.564   4.542 -0.3096 -0.7012  1.8711
72126SOL     OW33987   3.444  12.698   2.704  0.1068 -0.6967  0.2017
72126SOL    HW133988   3.350  12.690   2.687  0.1914  1.0618 -1.4829
72126SOL    HW233989   3.486  12.646   2.636  0.3460  0.0069 -0.2086
72127SOL     OW33990   0.282   2.989   3.470  0.0982  0.0251 -0.7972
72127SOL    HW133991   0.365   2.952   3.499 -0.3645 -1.8023 -1.6996
72127SOL    HW233992   0.305   3.076   3.437  1.3598  0.2205  0.5033
72128SOL     OW33993   7.304   0.574   6.433 -0.1224  0.1067 -0.9324
72128SOL    HW133994   7.310   0.479   6.445  0.1872  0.2783  0.3852
72128SOL    HW233995   7.350   0.591   6.350  1.2615 -0.7211 -0.3672
72129SOL     OW33996   8.066   0.877   2.087  0.3379 -1.0509 -0.2316
72129SOL    HW133997   7.996   0.830   2.131 -1.2083  0.9446 -0.4397
72129SOL    HW233998   8.146   0.834   2.116 -0.6350 -0.5474  3.6716
72130SOL     OW33999   7.157   9.293  13.585  0.1301 -0.0348 -0.1780
72130SOL    HW134000   7.165   9.343  13.504  0.6304  2.3657  1.2705
72130SOL    HW234001   7.224   9.225  13.578  0.7868  0.7132 -1.3910
72131SOL     OW34002   4.058   0.503   4.568 -0.0736  0.7017 -0.2013
72131SOL    HW134003   3.977   0.552   4.559 -0.9804 -0.7660 -0.3370
72131SOL    HW234004   4.061   0.476   4.660 -0.2802 -0.1283 -0.4303
72132SOL     OW34005   3.992   7.060   7.022  0.1087  0.4223  0.6957
72132SOL    HW134006   4.017   7.152   7.011 -1.9211  1.0125  0.5703
72132SOL    HW234007   4.069   7.018   7.061  1.4390  1.9385 -0.1890
72133SOL     OW34008   2.662  12.271   2.030 -0.1216 -0.2631 -0.3389
72133SOL    HW134009   2.686  12.209   1.961 -0.6251  0.1911 -0.9290
72133SOL    HW234010   2.677  12.357   1.991 -0.3118 -0.0041  0.1572
72134SOL     OW34011   2.542   6.792   3.497  0.4559  0.1160 -0.2587
72134SOL    HW134012   2.596   6.824   3.424  0.2488 -1.0064 -0.9374
72134SOL    HW234013   2.475   6.738   3.455  0.1088 -0.2581  0.7446
72135SOL     OW34014  10.436   6.111  11.519 -0.4284  0.0058 -0.8037
72135SOL    HW134015  10.390   6.066  11.590  0.6163 -0.1997 -0.2532
72135SOL    HW234016  10.454   6.198  11.554  0.5192 -0.2563 -0.6304
72136SOL     OW34017   9.174   9.532   9.360  0.3420  0.1014 -0.3814
72136SOL    HW134018   9.188   9.457   9.303 -1.2915 -2.1155  1.8841
72136SOL    HW234019   9.236   9.519   9.432 -1.1802 -0.1366  0.9396
72137SOL     OW34020   4.042   3.568   7.444 -0.4163  0.1238  0.0601
72137SOL    HW134021   4.073   3.478   7.434  0.6810  0.5173 -0.3098
72137SOL    HW234022   4.035   3.580   7.539  1.7188  0.3443  0.2375
72138SOL     OW34023  11.423  11.965   5.171  0.7048  0.0335  0.1088
72138SOL    HW134024  11.456  12.012   5.247 -1.0475  1.7886 -0.1396
72138SOL    HW234025  11.357  11.905   5.206  1.0525 -0.3281  0.1450
72139SOL     OW34026  13.892   0.154   6.227  0.0569 -0.0712 -0.1103
72139SOL    HW134027  13.912   0.248   6.226 -0.0594 -0.0153  1.3233
72139SOL    HW234028  13.921   0.123   6.141  1.1904  1.0566 -0.1709
72140SOL     OW34029   2.190  11.900  12.457 -0.1958  0.4239  0.3919
72140SOL    HW134030   2.264  11.942  12.499  0.2867 -0.1722  0.1529
72140SOL    HW234031   2.137  11.972  12.423  1.0004  0.8278 -0.6728
72141SOL     OW34032   5.461   6.961  10.771 -0.1710 -0.0045 -0.5282
72141SOL    HW134033   5.433   6.922  10.854 -0.1302 -1.0116 -0.9748
72141SOL    HW234034   5.540   6.912  10.747 -0.1688  0.2944 -1.1464
72142SOL     OW34035   6.978   3.764   1.293 -0.0320  0.4271  0.0246
72142SOL    HW134036   7.037   3.835   1.268 -0.5503  0.3860 -1.4341
72142SOL    HW234037   6.890   3.799   1.277 -0.2691 -1.0465 -2.3444
72143SOL     OW34038   2.939   9.787   1.401 -0.7127  0.3053  0.0662
72143SOL    HW134039   2.859   9.839   1.397 -1.3515 -0.3909  2.1554
72143SOL    HW234040   2.968   9.796   1.492  0.9128 -0.4447 -0.3476
72144SOL     OW34041   4.933  11.766  13.729  0.6845  0.2915 -0.0309
72144SOL    HW134042   4.887  11.837  13.773  0.5147  0.8553 -1.0842
72144SOL    HW234043   4.871  11.735  13.663  1.0595 -0.3161 -0.1045
72145SOL     OW34044   7.868   1.366   4.135  0.0192  0.4379  0.4705
72145SOL    HW134045   7.905   1.454   4.148  1.8804 -0.1519 -0.4786
72145SOL    HW234046   7.887   1.320   4.217  2.9901 -0.3253 -0.5013
72146SOL     OW34047  10.664   0.945   2.387  0.1265 -0.0780 -0.1339
72146SOL    HW134048  10.575   0.911   2.388  0.2581 -0.5268 -1.5298
72146SOL    HW234049  10.661   1.022   2.443 -1.5401  0.8713 -1.4316
72147SOL     OW34050   3.123   6.025  12.825  0.1356  1.1929  0.6394
72147SOL    HW134051   3.209   6.010  12.864 -0.4444  0.4211  1.6848
72147SOL    HW234052   3.061   6.002  12.894 -0.9232  0.8367 -0.3843
72148SOL     OW34053   4.086  13.941  13.736  0.3645  0.2078  0.7693
72148SOL    HW134054   4.004  13.896  13.758 -0.8205  1.3789 -1.0186
72148SOL    HW234055   4.082  14.023  13.785 -0.7875  1.3945 -1.1837
72149SOL     OW34056   2.683   8.424  11.697  0.3262 -0.3547 -0.3493
72149SOL    HW134057   2.745   8.381  11.639  0.0983  0.3831 -1.1598
72149SOL    HW234058   2.629   8.352  11.731  0.1752 -0.7555 -1.3993
72150SOL     OW34059  10.099   8.034   9.134 -0.5625 -0.0624 -0.1906
72150SOL    HW134060  10.005   8.025   9.124 -0.6152 -0.1068  0.3551
72150SOL    HW234061  10.115   8.128   9.131 -0.2666 -0.0970 -3.4709
72151SOL     OW34062   3.067  10.145   6.318  0.2651 -0.0293 -0.0675
72151SOL    HW134063   3.022  10.090   6.254  0.0023  0.7157 -0.5379
72151SOL    HW234064   3.142  10.092   6.347  0.1208 -0.5561 -0.6378
72152SOL     OW34065  12.807  11.216  11.484 -0.1845 -0.1506  0.8237
72152SOL    HW134066  12.860  11.169  11.419 -2.1546 -1.7250  0.2372
72152SOL    HW234067  12.760  11.281  11.432  0.7245  0.8760  1.2570
72153SOL     OW34068   8.626  11.832   0.698 -0.6382  0.3985 -0.2308
72153SOL    HW134069   8.605  11.812   0.606  0.9730 -1.8310 -0.2002
72153SOL    HW234070   8.721  11.846   0.698 -0.5889  0.1425  1.1438
72154SOL     OW34071  13.589   4.413   2.483 -0.0936  0.7016  0.3941
72154SOL    HW134072  13.591   4.498   2.527 -1.2603  0.8486  0.1928
72154SOL    HW234073  13.499   4.406   2.450  0.3293 -0.0928 -0.6055
72155SOL     OW34074   1.610   3.314  10.676  0.2336  0.6052 -0.3680
72155SOL    HW134075   1.700   3.330  10.703  0.0625  2.1986 -0.6024
72155SOL    HW234076   1.616   3.246  10.609  1.2981  0.8393 -0.5210
72156SOL     OW34077   8.558   8.123   0.690  0.0223 -0.0730 -0.4968
72156SOL    HW134078   8.607   8.099   0.768  0.5007 -0.3532 -0.8749
72156SOL    HW234079   8.562   8.219   0.688  0.2050 -0.0752 -0.3025
72157SOL     OW34080   0.197  13.436  10.207  0.0009 -0.7203 -0.4279
72157SOL    HW134081   0.139  13.442  10.131  0.9041  0.7331 -1.0588
72157SOL    HW234082   0.259  13.508  10.194 -0.2355 -0.0035  2.0524
72158SOL     OW34083   5.539   1.891  11.669  0.4516 -0.5418 -0.5392
72158SOL    HW134084   5.448   1.919  11.671  0.3225 -0.8680 -1.3201
72158SOL    HW234085   5.584   1.959  11.619  0.6977 -0.2139  0.1302
72159SOL     OW34086  10.288   0.933   3.364  0.0144  0.3701 -0.1694
72159SOL    HW134087  10.353   0.989   3.406  1.1720  0.4157 -1.9162
72159SOL    HW234088  10.277   0.970   3.277 -1.4177 -0.4058 -0.3418
72160SOL     OW34089   3.324  13.547  12.854 -0.5431  0.2271  0.1577
72160SOL    HW134090   3.400  13.512  12.900 -0.4925 -0.8284 -0.6978
72160SOL    HW234091   3.335  13.642  12.860 -0.2583  0.1232  1.8254
72161SOL     OW34092   2.625  13.576  13.848 -0.3173 -0.0729  0.3016
72161SOL    HW134093   2.542  13.620  13.832 -0.6309 -0.1841  1.5184
72161SOL    HW234094   2.687  13.647  13.865 -0.2146 -0.0025 -0.3397
72162SOL     OW34095   4.366   8.997   3.983 -0.2981  0.0647 -0.1418
72162SOL    HW134096   4.403   9.046   4.057  1.4175 -1.4344  0.0568
72162SOL    HW234097   4.288   9.046   3.959  0.2041  1.7210  1.3698
72163SOL     OW34098  13.640  11.741  11.251 -0.2862 -0.5302  0.1031
72163SOL    HW134099  13.584  11.749  11.328 -0.9522 -0.7122 -0.3507
72163SOL    HW234100  13.662  11.648  11.248 -0.4739 -0.5690 -0.0719
72164SOL     OW34101   4.393   9.716   3.854  0.1131 -0.6658  0.5928
72164SOL    HW134102   4.435   9.790   3.812 -3.2196  1.4266  0.6175
72164SOL    HW234103   4.460   9.680   3.912  2.5995  0.7139 -1.2434
72165SOL     OW34104   6.820  11.268   6.773 -0.1212 -0.4681  0.2012
72165SOL    HW134105   6.728  11.262   6.797 -0.3336 -0.1051 -0.4988
72165SOL    HW234106   6.849  11.352   6.809  0.1748 -0.9652  1.1673
72166SOL     OW34107   2.797   9.024   4.841  0.0847 -0.5156  0.2923
72166SOL    HW134108   2.869   8.992   4.787 -0.9354 -1.7918 -0.3503
72166SOL    HW234109   2.768   8.948   4.891 -0.7849 -0.0096  0.5831
72167SOL     OW34110  10.608   1.686  12.833 -0.0689 -0.9127  0.2842
72167SOL    HW134111  10.637   1.637  12.756  0.8943 -0.3242  0.2558
72167SOL    HW234112  10.639   1.634  12.907  2.8081  0.5980  0.2747
72168SOL     OW34113   0.937   2.126   8.078 -0.2266 -0.0755  0.3873
72168SOL    HW134114   0.972   2.078   8.002 -0.2122  2.4440 -1.2943
72168SOL    HW234115   0.892   2.201   8.041  0.0611  1.4545  2.9208
72169SOL     OW34116   6.776  10.347  10.415 -0.3367  0.2798 -0.4907
72169SOL    HW134117   6.763  10.265  10.464 -1.2243  0.5560 -0.2457
72169SOL    HW234118   6.722  10.336  10.337 -0.9435  0.8727 -0.1627
72170SOL     OW34119   7.248   1.562  11.431 -0.1212  0.0001  1.1488
72170SOL    HW134120   7.291   1.522  11.355 -1.4574  3.2395 -1.5447
72170SOL    HW234121   7.186   1.496  11.460  0.2822 -1.2945 -0.7267
72171SOL     OW34122   1.353   0.558   0.310 -0.0291  0.4736 -0.4019
72171SOL    HW134123   1.435   0.545   0.356  0.2275  0.1448 -0.9467
72171SOL    HW234124   1.303   0.616   0.366 -1.2939 -2.8471  2.2404
72172SOL     OW34125   7.038   2.327   1.018  0.2031 -0.4808 -0.2635
72172SOL    HW134126   6.976   2.282   0.961  0.1213 -0.8690  0.1239
72172SOL    HW234127   7.117   2.273   1.015  0.8860  0.5484 -1.5467
72173SOL     OW34128   6.987  13.958  11.695 -0.0260 -0.6150  0.4749
72173SOL    HW134129   6.997  13.983  11.787  0.9214  0.7897  0.0297
72173SOL    HW234130   7.055  13.892  11.681  0.0238 -0.6171  0.7141
72174SOL     OW34131   2.697   7.651  12.834 -0.2265 -0.4784  0.1479
72174SOL    HW134132   2.738   7.568  12.809 -2.5444 -1.9253  0.8423
72174SOL    HW234133   2.659   7.684  12.753  0.5769 -0.1461 -0.1026
72175SOL     OW34134  10.603   8.724  11.770  0.1327  0.2790 -0.0263
72175SOL    HW134135  10.557   8.688  11.846 -0.2218 -0.7390 -0.7015
72175SOL    HW234136  10.692   8.741  11.801 -0.3422  1.0688  0.9463
72176SOL     OW34137   5.643  11.607   7.760  0.7687 -0.0519  0.4527
72176SOL    HW134138   5.652  11.693   7.801  1.0925  0.2063 -0.1394
72176SOL    HW234139   5.590  11.623   7.683 -0.5589 -0.6856  1.2077
72177SOL     OW34140  12.594  10.842  10.995  0.6035 -0.2172  0.6930
72177SOL    HW134141  12.541  10.762  11.002  2.5196 -1.5450  0.7457
72177SOL    HW234142  12.631  10.840  10.907  2.8411 -0.8957  1.5672
72178SOL     OW34143   0.790   5.371   4.001  0.0078  0.2732 -0.1773
72178SOL    HW134144   0.824   5.301   3.946 -0.8691 -0.0486 -0.3239
72178SOL    HW234145   0.862   5.434   4.008  0.4115 -0.0955 -0.9785
72179SOL     OW34146   0.885   8.395   8.909 -0.0622 -0.3990  0.0687
72179SOL    HW134147   0.894   8.300   8.897  3.1468 -0.2372  0.2319
72179SOL    HW234148   0.869   8.429   8.821 -1.2680 -1.0456  0.0131
72180SOL     OW34149   1.062   6.686  10.135  0.3085  0.0344  0.5595
72180SOL    HW134150   1.133   6.742  10.101  1.2677 -0.2695  1.9922
72180SOL    HW234151   1.106   6.623  10.191 -0.7878 -2.0106 -0.7759
72181SOL     OW34152   0.706   3.617   6.894 -0.6789 -0.2682  0.5539
72181SOL    HW134153   0.670   3.702   6.870 -0.9301 -0.5849 -0.2043
72181SOL    HW234154   0.684   3.607   6.987  1.3084  1.4664  1.2851
72182SOL     OW34155  10.668  12.251   6.252  0.3704  0.1788  0.7470
72182SOL    HW134156  10.681  12.216   6.163 -0.5788  0.0680  0.6421
72182SOL    HW234157  10.619  12.332   6.239  1.3971  0.8804  1.0894
72183SOL     OW34158   2.633  13.624   2.400 -0.2916 -0.8431  0.2846
72183SOL    HW134159   2.679  13.707   2.414  0.4329 -1.3954  1.3562
72183SOL    HW234160   2.540  13.646   2.409 -0.3269  0.3295 -2.0848
72184SOL     OW34161  10.602   3.900  13.569  0.1946 -0.6041  0.1317
72184SOL    HW134162  10.648   3.936  13.645 -0.6064  0.8997 -0.0585
72184SOL    HW234163  10.558   3.822  13.603  0.1798 -0.1790  1.1310
72185SOL     OW34164   4.069   0.738   2.312  0.3410  0.0892  0.6953
72185SOL    HW134165   3.986   0.784   2.321 -0.2135 -0.8971  0.7600
72185SOL    HW234166   4.081   0.693   2.396  0.5879 -0.3296  0.4452
72186SOL     OW34167   0.324   2.684   6.616  0.6070  0.1144 -0.9297
72186SOL    HW134168   0.360   2.606   6.576 -0.5597 -1.0900  0.2431
72186SOL    HW234169   0.367   2.757   6.571  1.0333 -1.1668 -2.7129
72187SOL     OW34170   4.808   0.178   6.448 -0.1772 -0.2763 -0.0186
72187SOL    HW134171   4.728   0.141   6.409 -0.5325 -1.9991  2.1742
72187SOL    HW234172   4.879   0.145   6.394 -0.7331 -1.6593  0.0584
72188SOL     OW34173   6.963  11.273   1.891 -0.0614  0.4891 -0.2382
72188SOL    HW134174   6.961  11.331   1.968 -0.6822 -1.1481  1.0278
72188SOL    HW234175   7.006  11.193   1.922 -0.5553 -0.3087 -1.5273
72189SOL     OW34176  11.217  11.288  10.972  0.3861 -0.0823  0.3543
72189SOL    HW134177  11.288  11.262  11.031  0.4344  1.2911  0.9446
72189SOL    HW234178  11.236  11.379  10.951 -0.9245  0.1492  0.0889
72190SOL     OW34179  13.503   5.193   1.983  0.5965  0.1064 -0.3105
72190SOL    HW134180  13.534   5.273   2.025  0.4441 -0.2392  0.4747
72190SOL    HW234181  13.583   5.141   1.970  0.4282 -0.6357  1.3975
72191SOL     OW34182   9.478   7.202   3.470 -0.2608  0.2271 -0.3712
72191SOL    HW134183   9.458   7.182   3.379 -1.7809 -3.2090  0.5380
72191SOL    HW234184   9.514   7.121   3.505  2.4918  2.1190  1.6254
72192SOL     OW34185  13.161   3.480   9.428  0.5197 -0.2201  0.3807
72192SOL    HW134186  13.139   3.525   9.347 -1.0530  0.3048  1.0672
72192SOL    HW234187  13.227   3.537   9.469  2.3395 -1.1576 -1.0885
72193SOL     OW34188   2.196   5.877   0.312 -0.2180 -0.3572  0.2267
72193SOL    HW134189   2.186   5.972   0.302 -0.9277 -0.3623  0.8368
72193SOL    HW234190   2.291   5.863   0.309 -0.0856  0.4116  0.4966
72194SOL     OW34191   4.297   7.088   3.645 -0.4862 -0.0709 -0.2657
72194SOL    HW134192   4.302   7.111   3.552  0.3889 -0.8466 -0.4210
72194SOL    HW234193   4.373   7.032   3.660  0.4625  1.5407  1.3384
72195SOL     OW34194  10.674   2.895   8.213  0.3873 -0.3799 -0.2193
72195SOL    HW134195  10.736   2.884   8.285 -0.4439 -0.1623  0.5467
72195SOL    HW234196  10.651   2.806   8.186  0.3301 -0.4683  0.1172
72196SOL     OW34197  11.357  12.548   5.304 -0.8356  0.4432  0.2576
72196SOL    HW134198  11.451  12.532   5.298 -0.8655  0.7555 -1.4087
72196SOL    HW234199  11.327  12.550   5.213 -2.6500 -0.7453  0.7827
72197SOL     OW34200  14.002   9.745   8.245  0.1536 -0.4835  0.5937
72197SOL    HW134201  13.968   9.800   8.175  0.0196 -1.4361 -0.1204
72197SOL    HW234202  14.096   9.762   8.246 -0.1121  1.0917  1.6079
72198SOL     OW34203   2.856   9.521   2.242 -0.4716  0.3890 -0.3708
72198SOL    HW134204   2.934   9.482   2.203 -0.5686 -0.3521  0.1609
72198SOL    HW234205   2.875   9.615   2.243  1.3490  0.0994  1.6933
72199SOL     OW34206   5.251   9.366   5.339 -0.9060 -0.0328 -0.0312
72199SOL    HW134207   5.289   9.296   5.286 -2.3186 -0.6532 -0.2746
72199SOL    HW234208   5.287   9.351   5.427  0.2643  0.0908 -0.4692
72200SOL     OW34209   3.738   4.913  10.287 -0.4679 -0.9678 -0.6500
72200SOL    HW134210   3.762   4.831  10.246 -0.9849 -2.4099  1.7121
72200SOL    HW234211   3.789   4.914  10.369 -0.4977  1.0578 -0.6086
72201SOL     OW34212   6.919   3.192  13.706 -0.6820  0.2374 -0.2593
72201SOL    HW134213   6.885   3.194  13.616 -1.5875 -0.0071  0.0662
72201SOL    HW234214   6.852   3.144  13.755 -0.9153  1.6133  0.8284
72202SOL     OW34215   5.282   5.873   2.261  0.3271  0.3304 -0.3853
72202SOL    HW134216   5.296   5.812   2.333  2.3655  1.3340  0.1553
72202SOL    HW234217   5.366   5.874   2.214 -0.7590  0.1397 -2.4717
72203SOL     OW34218  12.306   3.376  11.777  0.1155  1.0820 -0.8125
72203SOL    HW134219  12.217   3.409  11.769 -1.8566 -3.1405  0.5340
72203SOL    HW234220  12.328   3.387  11.870  0.6382  1.2885 -0.9545
72204SOL     OW34221   6.982  13.347  12.997 -0.0661 -0.2045 -0.1250
72204SOL    HW134222   7.003  13.428  12.952  1.3359  0.0394  0.9273
72204SOL    HW234223   6.928  13.298  12.934  0.4894  0.8048 -1.4223
72205SOL     OW34224   9.396  12.358   9.636 -1.0307  0.0858  0.0080
72205SOL    HW134225   9.404  12.431   9.575 -0.7605 -0.3342 -0.4645
72205SOL    HW234226   9.355  12.288   9.586 -0.5119 -0.3705  0.2048
72206SOL     OW34227  10.350   1.081   6.508  0.1040  0.5039  0.3957
72206SOL    HW134228  10.417   1.035   6.459  0.4414  1.1321  0.2596
72206SOL    HW234229  10.397   1.125   6.578 -0.4691 -1.1500  1.9056
72207SOL     OW34230  12.527   0.085   5.356 -0.2731 -0.0538  0.2727
72207SOL    HW134231  12.560   0.011   5.407  1.1767  0.0049 -0.5320
72207SOL    HW234232  12.600   0.111   5.300 -1.9281 -0.4581 -2.2587
72208SOL     OW34233   3.229  11.170  13.703 -0.0928 -1.0927  0.1646
72208SOL    HW134234   3.314  11.137  13.733 -0.8353 -1.2605  2.2417
72208SOL    HW234235   3.168  11.099  13.721 -1.2672  0.3330  2.1992
72209SOL     OW34236   3.471   9.388   6.242  0.7146  0.3433  0.5947
72209SOL    HW134237   3.452   9.387   6.335 -0.1711 -1.2200  0.4318
72209SOL    HW234238   3.425   9.465   6.208  0.4665  0.5234  1.3334
72210SOL     OW34239  12.837   7.912  13.147 -0.4092 -0.0421 -0.1082
72210SOL    HW134240  12.823   8.003  13.173 -0.6001 -0.5044  1.5173
72210SOL    HW234241  12.924   7.890  13.180 -0.7338 -0.7125  0.3298
72211SOL     OW34242   0.622   2.005   8.395 -0.0472 -0.0721 -0.2933
72211SOL    HW134243   0.564   2.079   8.377  0.5274  0.6001  0.5439
72211SOL    HW234244   0.598   1.976   8.483  2.0441  1.3736  0.8381
72212SOL     OW34245   0.958  10.844   4.938  0.0877 -0.3487 -0.1981
72212SOL    HW134246   0.961  10.749   4.951  0.6218 -0.4256 -0.8521
72212SOL    HW234247   0.971  10.856   4.844  2.1060  0.4645  0.1426
72213SOL     OW34248   0.374   6.790   1.993 -0.8638  0.4743  0.3539
72213SOL    HW134249   0.339   6.859   2.049 -1.1965  1.5008 -1.0427
72213SOL    HW234250   0.469   6.800   1.998 -0.9054  0.8602  0.3758
72214SOL     OW34251   0.571  10.771   4.963 -0.2676  0.2144 -0.1653
72214SOL    HW134252   0.556  10.752   4.871 -0.7217 -0.8800  0.1118
72214SOL    HW234253   0.498  10.728   5.008 -0.2584  1.0450  0.6794
72215SOL     OW34254  11.411   0.577   7.048 -0.0807  0.1330  0.3154
72215SOL    HW134255  11.366   0.595   7.131  0.8863  0.5118  0.7680
72215SOL    HW234256  11.340   0.565   6.985 -0.8320 -0.2130  1.2030
72216SOL     OW34257   8.871  10.137  10.947 -0.3341 -0.0974  0.0647
72216SOL    HW134258   8.886  10.226  10.915 -1.5226  0.1375  0.1342
72216SOL    HW234259   8.913  10.081  10.881 -2.4027  0.3908 -1.7688
72217SOL     OW34260   3.053   4.840   8.120  0.4173 -0.3243  0.0679
72217SOL    HW134261   3.003   4.916   8.151  0.3943 -0.5690  0.6420
72217SOL    HW234262   3.132   4.878   8.082 -0.0835  0.0526 -0.6266
72218SOL     OW34263   8.098  13.929  13.863 -0.1305  0.4087 -0.5481
72218SOL    HW134264   8.123  13.969  13.947 -0.8959 -0.5181  0.1263
72218SOL    HW234265   8.129  13.992  13.797  0.2361  1.2787  0.4295
72219SOL     OW34266   0.584   5.979   1.865 -0.3315  0.2526  0.4526
72219SOL    HW134267   0.620   6.032   1.936  1.0363 -0.8344  0.6250
72219SOL    HW234268   0.533   6.040   1.812 -1.8410  1.0001  2.6335
72220SOL     OW34269   0.811   6.895   2.658  0.2776  0.0706  0.5187
72220SOL    HW134270   0.823   6.942   2.576  2.4999  1.2602  1.4364
72220SOL    HW234271   0.801   6.803   2.633  1.4848  0.3290 -1.0582
72221SOL     OW34272  13.111   1.144   2.132 -0.2650  0.2618  0.4813
72221SOL    HW134273  13.029   1.173   2.092 -1.1951 -1.6612  0.8836
72221SOL    HW234274  13.084   1.089   2.205  1.3218 -2.2138 -0.6805
72222SOL     OW34275   3.017   7.233   1.111 -0.0405  0.2355  0.5857
72222SOL    HW134276   2.934   7.262   1.149 -0.6653  0.2865 -0.7612
72222SOL    HW234277   3.016   7.138   1.121 -0.7128  0.1429 -0.2779
72223SOL     OW34278  11.679  10.445  10.833  0.0625  0.4750  0.5514
72223SOL    HW134279  11.608  10.490  10.788  0.8799  1.2846  0.0164
72223SOL    HW234280  11.637  10.395  10.902 -1.1582 -0.2199 -0.6590
72224SOL     OW34281  13.484   8.986  10.996  0.1209 -0.1798  0.2789
72224SOL    HW134282  13.533   9.068  11.001 -0.9171  0.5696 -0.9976
72224SOL    HW234283  13.550   8.918  11.002  1.1288  0.7642  0.2858
72225SOL     OW34284  10.680  13.153  12.231  0.0319  0.3409 -0.5784
72225SOL    HW134285  10.584  13.158  12.234  0.1038  2.3785 -0.6630
72225SOL    HW234286  10.701  13.166  12.139  0.4331  1.8828 -0.2996
72226SOL     OW34287   9.271  13.713   9.314  0.1021 -0.5329  0.2468
72226SOL    HW134288   9.286  13.795   9.265  0.1766  0.5015  1.9372
72226SOL    HW234289   9.358  13.687   9.344 -0.0983 -0.4561  0.9019
72227SOL     OW34290   0.029  13.874   5.220  0.6557  0.2045  0.0278
72227SOL    HW134291  -0.021  13.852   5.142  1.9168 -0.4587 -0.6345
72227SOL    HW234292   0.118  13.842   5.202  0.8758 -0.4459  1.9390
72228SOL     OW34293   6.860   3.344   8.630 -0.2431  0.1172  0.3967
72228SOL    HW134294   6.776   3.385   8.651 -1.6344 -2.2799 -0.0798
72228SOL    HW234295   6.853   3.255   8.666  2.1592 -0.1008  0.4461
72229SOL     OW34296   2.645   5.826   0.607 -0.3811 -0.1541 -0.3125
72229SOL    HW134297   2.722   5.872   0.573 -0.5379 -0.5973 -1.3056
72229SOL    HW234298   2.588   5.896   0.640  0.3163  0.1942  0.1914
72230SOL     OW34299   8.693  13.194   0.575  0.2170  0.2720 -0.0809
72230SOL    HW134300   8.760  13.143   0.529  0.3347  0.2108  0.1574
72230SOL    HW234301   8.610  13.152   0.550  0.4345 -1.8093  2.2267
72231SOL     OW34302   1.726  10.866   3.473 -0.7859  0.1849  0.0166
72231SOL    HW134303   1.662  10.795   3.479  0.6777 -1.1687  0.2766
72231SOL    HW234304   1.789  10.847   3.543  0.7508  0.5659 -1.2028
72232SOL     OW34305   9.944  13.849   5.504 -0.5992 -0.0276  0.1010
72232SOL    HW134306  10.013  13.898   5.460 -0.2028 -0.4155  0.2860
72232SOL    HW234307   9.984  13.764   5.525 -0.3773  0.5452  2.2424
72233SOL     OW34308   9.770   4.178   9.662 -0.3226 -0.6306  0.2380
72233SOL    HW134309   9.712   4.251   9.637  2.2816  1.4413 -0.2065
72233SOL    HW234310   9.757   4.113   9.593 -1.2524  0.2798 -0.4925
72234SOL     OW34311   8.747   0.856  13.391 -0.6549 -0.2143  0.1102
72234SOL    HW134312   8.733   0.827  13.301  0.4114 -0.9519  0.1586
72234SOL    HW234313   8.828   0.907  13.388 -0.5672 -0.3100  0.6533
72235SOL     OW34314  11.770   3.872   4.875 -0.1530  0.0093 -0.1372
72235SOL    HW134315  11.805   3.852   4.788  0.4639 -1.9954  0.4961
72235SOL    HW234316  11.822   3.946   4.906  1.0568 -0.5905 -0.6772
72236SOL     OW34317   7.580   0.081   7.172  0.3984 -0.4746  0.0985
72236SOL    HW134318   7.569  -0.013   7.188  0.2706 -0.9071 -2.1712
72236SOL    HW234319   7.674   0.093   7.162  0.5344 -0.0998  1.6037
72237SOL     OW34320   0.863   1.956   8.298  0.2515 -0.0266  0.4796
72237SOL    HW134321   0.871   1.984   8.207 -0.5270  0.5140  0.5694
72237SOL    HW234322   0.785   2.002   8.330 -0.5098 -1.5508  0.9045
72238SOL     OW34323   2.594   6.248  11.405 -0.4934  0.6448 -0.3622
72238SOL    HW134324   2.643   6.316  11.360 -1.4872  0.9665 -0.9966
72238SOL    HW234325   2.560   6.290  11.483 -2.6909  1.4944 -1.6814
72239SOL     OW34326   8.953   0.255  10.689  0.6398 -0.4713 -0.4820
72239SOL    HW134327   8.968   0.341  10.727  0.2307 -1.0138  0.9558
72239SOL    HW234328   8.889   0.271  10.619 -0.5140  0.2254  0.6784
72240SOL     OW34329   6.256   7.707   9.028 -0.3564 -0.0121 -0.7449
72240SOL    HW134330   6.195   7.690   9.099 -0.1086 -1.0631 -0.7611
72240SOL    HW234331   6.332   7.653   9.049 -0.0570  0.0937 -1.5237
72241SOL     OW34332   8.276   8.849   4.152 -0.4649 -0.9775  0.1320
72241SOL    HW134333   8.248   8.799   4.229 -0.6696 -0.7696  0.1939
72241SOL    HW234334   8.338   8.791   4.108  0.3056 -0.7650  0.9058
72242SOL     OW34335   6.942   7.189   5.255 -0.3125  0.3799  0.1328
72242SOL    HW134336   6.942   7.280   5.224  1.3197 -0.0715 -1.2977
72242SOL    HW234337   7.027   7.154   5.229  0.4004 -0.6855  3.3641
72243SOL     OW34338  12.723   4.445   2.180 -0.0408  0.4671  0.1545
72243SOL    HW134339  12.717   4.414   2.270  1.3139  1.0085  0.4442
72243SOL    HW234340  12.716   4.540   2.186  1.4238  0.6076 -0.1676
72244SOL     OW34341  10.977  12.717   4.320 -0.0379 -0.3067 -0.3618
72244SOL    HW134342  10.889  12.680   4.325 -0.2970  0.4196  0.9528
72244SOL    HW234343  10.978  12.786   4.387  1.7872 -0.8575  0.2284
72245SOL     OW34344  13.689   7.695   7.558  0.5479  0.2060 -0.2254
72245SOL    HW134345  13.611   7.714   7.610  0.1703 -0.8049 -0.4064
72245SOL    HW234346  13.756   7.674   7.624  0.8149  1.5240 -0.0495
72246SOL     OW34347  10.973   6.595  13.240  0.1743  0.1616  0.0796
72246SOL    HW134348  10.948   6.679  13.203 -0.9904 -0.8913 -1.6817
72246SOL    HW234349  10.898   6.569  13.294  1.0224  0.7496  1.6060
72247SOL     OW34350  10.374   2.313  10.200 -0.6886  0.1241 -0.5988
72247SOL    HW134351  10.402   2.239  10.254  0.6470 -0.1378 -1.5670
72247SOL    HW234352  10.420   2.299  10.116 -1.7258  1.1596 -1.3688
72248SOL     OW34353  13.183   9.060   2.305  0.3673 -0.2015  0.2807
72248SOL    HW134354  13.260   9.087   2.255  0.1415 -0.4694 -0.2232
72248SOL    HW234355  13.115   9.047   2.238 -0.2963  0.6455  0.7783
72249SOL     OW34356  11.590   2.204  13.670  0.3367  0.3296 -0.0807
72249SOL    HW134357  11.621   2.175  13.585  1.1447  1.3563 -0.1475
72249SOL    HW234358  11.669   2.211  13.724 -0.1649 -0.3872  0.7969
72250SOL     OW34359   6.069  12.157   0.542  0.1324 -0.6497 -0.0793
72250SOL    HW134360   6.109  12.114   0.618 -2.2705 -1.9868  0.5403
72250SOL    HW234361   6.066  12.088   0.475 -0.4699 -0.3717 -0.3450
72251SOL     OW34362   7.815   3.379   3.179  0.0146 -0.1579 -0.1037
72251SOL    HW134363   7.745   3.314   3.184 -0.1530 -0.0353 -0.8018
72251SOL    HW234364   7.880   3.340   3.121 -1.9593  1.9426 -4.2069
72252SOL     OW34365   0.641   1.751   8.197  0.1842 -0.3130  0.2221
72252SOL    HW134366   0.693   1.810   8.252  0.0404  0.6433 -0.6407
72252SOL    HW234367   0.688   1.667   8.201  1.4951  0.3739 -0.1050
72253SOL     OW34368   0.194   5.680   0.080  0.0158 -0.3045  0.7977
72253SOL    HW134369   0.247   5.638   0.149  0.0411  0.4164  1.2248
72253SOL    HW234370   0.158   5.607   0.031  1.5232 -0.8299  0.3973
72254SOL     OW34371   1.289   9.619   2.538 -0.2633 -0.2438 -0.0087
72254SOL    HW134372   1.232   9.683   2.580 -0.5545  0.6836 -1.7151
72254SOL    HW234373   1.373   9.629   2.582 -0.3223  1.2951 -0.2004
72255SOL     OW34374   8.626   1.645  13.037  0.2228  0.6042 -0.0783
72255SOL    HW134375   8.650   1.552  13.037  0.1847  0.5935  0.0569
72255SOL    HW234376   8.669   1.681  13.114 -2.0117  0.0955  1.5123
72256SOL     OW34377  10.966   5.664   3.515 -0.3036 -0.4130 -0.0161
72256SOL    HW134378  10.990   5.587   3.565 -1.3355 -0.9607 -0.3238
72256SOL    HW234379  11.009   5.653   3.430  1.9908  0.8373  0.8835
72257SOL     OW34380   9.842   2.652   8.052 -0.4361  0.5317  0.2242
72257SOL    HW134381   9.934   2.679   8.043 -0.4983  0.6990  0.0759
72257SOL    HW234382   9.812   2.642   7.961 -0.4377  0.0412  0.2741
72258SOL     OW34383   8.931   0.203   8.531 -0.1223  0.0816 -0.1158
72258SOL    HW134384   9.023   0.228   8.533 -0.1310  0.0570  1.3641
72258SOL    HW234385   8.906   0.211   8.438  1.1055  1.0015 -0.3873
72259SOL     OW34386   5.143  13.256   1.140  0.2968  0.1931  0.3094
72259SOL    HW134387   5.119  13.257   1.232  0.3000 -1.2556  0.3420
72259SOL    HW234388   5.206  13.328   1.131  1.8964 -0.9068  1.8905
72260SOL     OW34389   3.112   0.240   1.102 -0.0616  0.6446 -0.1855
72260SOL    HW134390   3.112   0.160   1.048 -0.3444  1.1317 -0.9286
72260SOL    HW234391   3.200   0.275   1.093  0.6420 -0.5376  1.6291
72261SOL     OW34392   3.476   7.827   6.678 -0.3092 -0.0348  0.1730
72261SOL    HW134393   3.540   7.892   6.709 -1.1267 -0.5473  3.2848
72261SOL    HW234394   3.528   7.764   6.628  0.8854  1.6851 -0.8901
72262SOL     OW34395  11.327   5.472  11.977  0.3006 -0.2737  0.0571
72262SOL    HW134396  11.392   5.481  11.907  0.9141 -0.8178  0.5535
72262SOL    HW234397  11.374   5.498  12.056 -0.5742  0.9699  0.1983
72263SOL     OW34398   8.584  11.145  12.759 -0.1033 -0.1445 -0.1665
72263SOL    HW134399   8.615  11.107  12.841 -0.4398  0.8501  0.4272
72263SOL    HW234400   8.664  11.157  12.707  0.2985  0.5583  0.5880
72264SOL     OW34401   5.854  10.709   3.048  0.3389 -0.1379  0.5636
72264SOL    HW134402   5.940  10.679   3.018  0.8006 -0.8866  2.4680
72264SOL    HW234403   5.796  10.635   3.034  0.1631  0.1180 -0.0669
72265SOL     OW34404   2.923  13.027  10.060 -0.4824 -0.5507  0.0643
72265SOL    HW134405   2.952  13.053   9.973 -1.9178  2.0373  0.2506
72265SOL    HW234406   2.958  12.938  10.072  1.5941 -0.1418 -2.2246
72266SOL     OW34407   0.430  13.550   5.714  0.3243  0.5090 -0.0709
72266SOL    HW134408   0.473  13.515   5.792  0.1907  0.9700  0.2112
72266SOL    HW234409   0.372  13.479   5.686  0.9718  0.0328 -0.2287
72267SOL     OW34410  13.906  13.573   7.850  0.1707 -0.1472  0.2426
72267SOL    HW134411  13.981  13.559   7.908  0.2837  1.8313  0.6315
72267SOL    HW234412  13.850  13.497   7.865  0.9547 -0.4632  1.7712
72268SOL     OW34413   5.382   1.975   4.911  0.2250  0.2483  0.4277
72268SOL    HW134414   5.304   2.007   4.958 -0.2151 -0.4559  0.2027
72268SOL    HW234415   5.380   2.020   4.827 -1.9553 -2.2818 -1.0432
72269SOL     OW34416   8.436  11.747   8.978  0.0021 -0.1710 -0.0885
72269SOL    HW134417   8.423  11.652   8.971 -0.0175 -0.2998  1.4931
72269SOL    HW234418   8.354  11.785   8.946 -0.1271 -0.6867 -0.3795
72270SOL     OW34419   0.357   8.629   6.343 -0.5444 -0.0297  0.2567
72270SOL    HW134420   0.294   8.600   6.409 -0.6385 -0.8198 -0.1742
72270SOL    HW234421   0.307   8.691   6.289 -1.3214 -1.4896 -0.7676
72271SOL     OW34422   4.603   9.656  11.865  0.0622 -0.4819  0.1745
72271SOL    HW134423   4.569   9.575  11.905  0.6162 -0.2804  1.0751
72271SOL    HW234424   4.673   9.684  11.924 -0.8772  1.2879  0.5059
72272SOL     OW34425   7.071   0.311   4.206  0.2476 -0.4205 -0.3095
72272SOL    HW134426   7.033   0.345   4.124  1.0688 -1.9374 -1.3688
72272SOL    HW234427   7.156   0.275   4.180  0.9207 -0.1557  1.3962
72273SOL     OW34428   5.204   7.567  10.862 -0.5047  0.1942 -0.0392
72273SOL    HW134429   5.221   7.480  10.898 -0.1021  0.1007 -0.4304
72273SOL    HW234430   5.109   7.571  10.852 -0.4122 -1.0923 -2.1238
72274SOL     OW34431   3.153   5.480   7.822  0.1137  0.9580 -0.0183
72274SOL    HW134432   3.144   5.396   7.777  0.5666 -0.8163  2.9517
72274SOL    HW234433   3.247   5.498   7.820  0.5110 -0.4673  2.2677
72275SOL     OW34434   8.104   3.065   9.429 -0.0625 -0.3213 -0.3828
72275SOL    HW134435   8.080   2.975   9.406 -1.2921 -0.0863 -0.1098
72275SOL    HW234436   8.195   3.059   9.458  0.3219 -1.2391 -1.6767
72276SOL     OW34437  11.421   8.120  12.742 -0.1885 -0.7695  0.1973
72276SOL    HW134438  11.387   8.203  12.710 -0.2853 -0.5415  0.8810
72276SOL    HW234439  11.514   8.122  12.722 -0.1540 -0.4119  0.3972
72277SOL     OW34440   8.346  11.337  10.579  0.3230 -0.0048  0.0667
72277SOL    HW134441   8.260  11.324  10.539  0.3002 -0.2054  0.1795
72277SOL    HW234442   8.384  11.410  10.531 -0.6275  1.2611  1.1593
72278SOL     OW34443   5.635  10.197  12.958 -0.1884 -0.4978  0.2278
72278SOL    HW134444   5.684  10.132  13.008 -1.2378 -1.6117 -0.1287
72278SOL    HW234445   5.543  10.181  12.981 -0.5750 -0.0660 -0.9273
72279SOL     OW34446  10.738   2.883   0.031 -0.3564  0.3209  0.3984
72279SOL    HW134447  10.679   2.879  -0.044 -0.0428  0.2752  0.1514
72279SOL    HW234448  10.764   2.975   0.035 -0.7016  0.4100  0.7125
72280SOL     OW34449  12.773   4.810   1.707 -0.3625 -0.2104 -0.0387
72280SOL    HW134450  12.865   4.835   1.706 -0.9219  2.1155 -2.3428
72280SOL    HW234451  12.758   4.771   1.621 -1.6028 -0.2071  0.1624
72281SOL     OW34452  12.799   8.425   1.173 -0.4278 -0.3068  0.3233
72281SOL    HW134453  12.802   8.331   1.189  0.6955 -0.5199 -0.9399
72281SOL    HW234454  12.891   8.453   1.176 -0.7181  0.7049  0.3773
72282SOL     OW34455   2.793   5.047   3.791  0.4356  0.2780  0.3260
72282SOL    HW134456   2.862   5.092   3.743  1.0879 -0.6115  0.4209
72282SOL    HW234457   2.751   4.991   3.726 -1.2400  1.9260 -0.1143
72283SOL     OW34458  12.823  13.529  13.379 -0.1221 -0.2851  0.0103
72283SOL    HW134459  12.800  13.588  13.451  1.4998  0.4952 -0.0602
72283SOL    HW234460  12.863  13.585  13.313  0.4079 -1.2977 -0.5562
72284SOL     OW34461   9.452   6.028  13.076 -0.1362 -0.2211  0.4998
72284SOL    HW134462   9.389   5.976  13.125 -0.3416 -0.7885 -0.3361
72284SOL    HW234463   9.409   6.045  12.992  0.7601 -0.4859 -0.0286
72285SOL     OW34464  12.199   1.782   5.150  0.4440  0.3118  0.3573
72285SOL    HW134465  12.232   1.726   5.220  1.3402 -1.3858 -1.3375
72285SOL    HW234466  12.110   1.751   5.133  0.3466  0.5027  0.5139
72286SOL     OW34467   5.639   1.450  11.853  0.0982 -0.0886 -0.5067
72286SOL    HW134468   5.587   1.516  11.806 -0.4540 -1.2016 -1.5260
72286SOL    HW234469   5.645   1.376  11.792  1.3987 -0.6753  0.2812
72287SOL     OW34470   1.982  11.308   1.618 -0.2428 -0.0284 -0.3198
72287SOL    HW134471   1.977  11.217   1.590  1.4493  0.0797 -1.1243
72287SOL    HW234472   1.899  11.325   1.662 -0.8305 -1.7693 -0.6970
72288SOL     OW34473   0.418   7.434   7.885 -0.1619  0.2845  0.1856
72288SOL    HW134474   0.485   7.462   7.822  0.1287 -0.4555  0.1579
72288SOL    HW234475   0.335   7.445   7.839 -0.0650  1.1656  0.2023
72289SOL     OW34476   8.803  10.647   9.871 -0.4181  0.1087  0.1214
72289SOL    HW134477   8.720  10.644   9.824 -0.3052 -0.9014 -0.0429
72289SOL    HW234478   8.798  10.573   9.932 -0.7803  1.6875  2.1086
72290SOL     OW34479   0.662   7.116  12.514 -0.4173 -0.0514  0.1519
72290SOL    HW134480   0.702   7.149  12.594  1.1924 -1.8547  0.1591
72290SOL    HW234481   0.584   7.069  12.543  0.6452 -1.4628  0.7840
72291SOL     OW34482  10.898  12.933   7.040 -0.0291  0.0296  0.5428
72291SOL    HW134483  10.928  13.021   7.061  0.4279 -0.5245  2.4472
72291SOL    HW234484  10.844  12.944   6.962  2.0607  1.6026 -0.7966
72292SOL     OW34485   5.827   9.240   6.662 -0.0788 -0.1244 -0.1944
72292SOL    HW134486   5.790   9.300   6.597  2.0729  2.7107  0.9903
72292SOL    HW234487   5.765   9.242   6.734 -0.0318  0.7580 -0.1633
72293SOL     OW34488   2.612   9.185  13.660 -0.3717  0.2305  0.2481
72293SOL    HW134489   2.583   9.258  13.714  1.3750  0.4537  0.9488
72293SOL    HW234490   2.596   9.108  13.713 -1.4141  0.1545 -0.1467
72294SOL     OW34491  12.578   4.837   5.480 -0.1424  0.2890 -0.3722
72294SOL    HW134492  12.627   4.869   5.404 -0.1197  1.4705  0.1177
72294SOL    HW234493  12.501   4.795   5.443  0.7092 -0.6664 -1.1105
72295SOL     OW34494   0.705  11.394  14.054  0.2082  0.0429 -0.0519
72295SOL    HW134495   0.614  11.383  14.026  0.3698 -1.0994 -0.2038
72295SOL    HW234496   0.734  11.475  14.012  0.0980 -1.0096 -2.3315
72296SOL     OW34497   2.823  13.956   9.607 -0.0834  0.0952  0.1980
72296SOL    HW134498   2.740  13.924   9.571 -0.1637  0.4051  0.0971
72296SOL    HW234499   2.890  13.909   9.558 -0.1557  1.7062 -1.5810
72297SOL     OW34500   5.939  12.771   4.046  0.0804  0.8814 -0.2122
72297SOL    HW134501   5.859  12.813   4.079  0.0631  1.0127 -0.4169
72297SOL    HW234502   5.991  12.844   4.012  0.2802  0.7932 -0.0928
72298SOL     OW34503  10.891   4.456   7.548 -0.2669  0.1512  0.3830
72298SOL    HW134504  10.820   4.465   7.485 -0.8703  0.2235  1.0580
72298SOL    HW234505  10.920   4.365   7.538 -0.9747 -0.1117  0.6387
72299SOL     OW34506   5.649  13.735   2.844  0.3033  0.7638  0.5083
72299SOL    HW134507   5.734  13.778   2.841  0.2547  0.8160 -0.5627
72299SOL    HW234508   5.669  13.644   2.866  0.6854  0.6809 -0.1481
72300SOL     OW34509   4.478  13.042   7.280 -0.2483 -0.2339  0.5046
72300SOL    HW134510   4.411  13.025   7.214 -0.9531  2.7446  0.3012
72300SOL    HW234511   4.488  12.959   7.327 -2.1334 -1.4952 -1.1759
72301SOL     OW34512   6.691  11.206   2.149  0.0136 -0.0794  0.1766
72301SOL    HW134513   6.657  11.261   2.220 -0.8171 -1.7516  1.1473
72301SOL    HW234514   6.757  11.260   2.106 -0.1111  1.3250  1.6528
72302SOL     OW34515   8.789   9.474  13.921 -0.7103  0.0672  0.4708
72302SOL    HW134516   8.721   9.444  13.981  1.1926 -0.5771  2.4217
72302SOL    HW234517   8.841   9.536  13.972  1.4306 -1.0553 -0.2288
72303SOL     OW34518   6.935   2.405   1.255  0.2386 -0.3133 -0.0433
72303SOL    HW134519   6.963   2.391   1.165 -0.5260 -1.2127 -0.1609
72303SOL    HW234520   6.977   2.334   1.304 -0.1718 -0.4405  0.1275
72304SOL     OW34521   9.515   5.070  13.605  0.5794  0.4178  0.3260
72304SOL    HW134522   9.476   5.158  13.604  0.7017  0.4773  0.8024
72304SOL    HW234523   9.493   5.035  13.691  0.2486 -0.1469  0.0138
72305SOL     OW34524  11.894  13.991   2.320 -0.2907 -0.0014  0.7983
72305SOL    HW134525  11.823  13.940   2.280  0.5900  1.3296 -2.7529
72305SOL    HW234526  11.852  14.035   2.394 -2.5203 -1.2327  0.3613
72306SOL     OW34527  11.701  11.212   9.486  0.1585 -0.0949  0.3638
72306SOL    HW134528  11.657  11.258   9.414 -1.7327 -1.1732  0.7491
72306SOL    HW234529  11.719  11.281   9.550 -1.4581  0.3726  0.3845
72307SOL     OW34530   7.805   8.931  11.824  0.2474  0.2928  0.0457
72307SOL    HW134531   7.812   8.985  11.746  0.4961  0.7689  0.3899
72307SOL    HW234532   7.820   8.842  11.794  1.5729  0.6012 -0.2621
72308SOL     OW34533   4.025  12.450  12.260 -0.0132 -0.2571  0.4296
72308SOL    HW134534   4.041  12.378  12.321 -0.4333 -1.7435 -1.1239
72308SOL    HW234535   4.096  12.443  12.197 -0.9468 -0.3548 -0.6399
72309SOL     OW34536   1.265  11.612   0.150  0.0346 -0.4371 -0.7028
72309SOL    HW134537   1.227  11.614   0.238  0.7504  0.3770 -0.4014
72309SOL    HW234538   1.335  11.547   0.155  0.9922  0.6082 -0.2730
72310SOL     OW34539   1.088   8.173   1.028  0.2775  1.0106 -0.0512
72310SOL    HW134540   1.148   8.103   1.052 -0.9707 -0.1335 -0.1729
72310SOL    HW234541   1.083   8.228   1.106 -0.0958 -0.0385  0.6852
72311SOL     OW34542   8.162   2.032   2.580  0.0071  0.8686 -0.0756
72311SOL    HW134543   8.171   2.123   2.552 -2.2780  2.0354  2.5157
72311SOL    HW234544   8.248   2.008   2.614  0.8180  1.8025 -1.3843
72312SOL     OW34545   9.312   4.571   9.900  0.0911  0.6034 -0.4494
72312SOL    HW134546   9.371   4.584   9.825 -1.0413 -1.4226 -1.7906
72312SOL    HW234547   9.369   4.574   9.976  1.5670  1.0390 -1.5295
72313SOL     OW34548   4.686   3.318  10.225  0.6189  0.8860 -0.2088
72313SOL    HW134549   4.712   3.332  10.134 -0.5148 -0.2238 -0.7285
72313SOL    HW234550   4.591   3.309  10.222  0.7249 -1.2439  0.7676
72314SOL     OW34551   3.227   8.326   6.069 -0.4843 -0.2369 -0.0233
72314SOL    HW134552   3.318   8.300   6.056 -0.9666 -2.0687 -0.1046
72314SOL    HW234553   3.231   8.419   6.092  1.4492 -0.4275  0.5944
72315SOL     OW34554   8.371   1.313   3.790  0.0434 -0.2793 -0.1638
72315SOL    HW134555   8.294   1.363   3.766 -0.3137  0.1129  1.6086
72315SOL    HW234556   8.445   1.365   3.759 -0.3702  0.5313  0.1861
72316SOL     OW34557   1.625   6.068   3.205 -0.6622  0.2080 -0.4249
72316SOL    HW134558   1.540   6.085   3.165 -1.3417  3.1170  1.8612
72316SOL    HW234559   1.674   6.150   3.193  1.1661 -0.7875 -0.1851
72317SOL     OW34560   0.006  11.060   4.391 -0.1370  0.2501 -0.8001
72317SOL    HW134561  -0.008  10.965   4.386 -0.6527  0.1264  1.7942
72317SOL    HW234562   0.099  11.069   4.411  0.2959  0.4237 -2.6730
72318SOL     OW34563  13.991   1.243  10.693  0.4519  0.1948 -0.5826
72318SOL    HW134564  14.009   1.149  10.696  2.3979  0.5319 -0.5375
72318SOL    HW234565  14.034   1.274  10.614 -0.8560  0.9540 -1.0421
72319SOL     OW34566  12.343   4.942   9.078 -0.4607 -0.0613 -0.4924
72319SOL    HW134567  12.403   4.880   9.121 -1.4883  0.7741  2.3357
72319SOL    HW234568  12.367   4.936   8.985  3.3224 -0.4931  0.3170
72320SOL     OW34569   8.178  13.116   1.189  0.4322 -0.2312  0.2468
72320SOL    HW134570   8.118  13.105   1.115  0.1187 -1.3715  0.6452
72320SOL    HW234571   8.180  13.210   1.205 -3.0866 -0.2809  1.7186
72321SOL     OW34572   8.267   1.870   8.133  0.0175  0.0022 -0.0282
72321SOL    HW134573   8.204   1.940   8.117  1.8683  1.7263 -0.1505
72321SOL    HW234574   8.298   1.846   8.045 -0.1250 -0.5127  0.0602
72322SOL     OW34575  11.193   7.947  12.240  0.6097  0.2106  0.6471
72322SOL    HW134576  11.238   7.925  12.158 -0.4270 -0.5042  0.2437
72322SOL    HW234577  11.100   7.952  12.215 -0.0313 -2.4312  2.2146
72323SOL     OW34578   4.566  12.378  13.242  0.3447  0.6739  0.2529
72323SOL    HW134579   4.562  12.314  13.313 -0.2595 -0.9692 -1.1850
72323SOL    HW234580   4.657  12.375  13.212  0.1381 -0.1610 -0.3365
72324SOL     OW34581   0.541   6.124  11.431 -0.0988 -0.4176 -0.1381
72324SOL    HW134582   0.446   6.136  11.425  0.0531  0.8000 -0.3934
72324SOL    HW234583   0.569   6.114  11.340  0.0255 -0.6947 -0.0674
72325SOL     OW34584  10.658  14.046   2.953  0.1736  0.1421 -0.0736
72325SOL    HW134585  10.622  14.008   2.873 -2.8745  0.4916  1.0015
72325SOL    HW234586  10.634  14.138   2.949  0.2051  0.2186  1.0909
72326SOL     OW34587   0.428   5.987   3.833  0.2717  0.2757  0.4938
72326SOL    HW134588   0.440   5.894   3.849  0.7001  0.2055 -0.2173
72326SOL    HW234589   0.509   6.028   3.862  0.1163  0.4169  0.7307
72327SOL     OW34590   9.738  13.153   5.038 -0.0156 -0.2248  0.1573
72327SOL    HW134591   9.698  13.152   4.951 -2.0100  0.5939  1.0049
72327SOL    HW234592   9.723  13.064   5.072 -2.3514  0.4023  0.9383
72328SOL     OW34593   6.679  11.084   8.188  0.3484 -0.3507  0.0832
72328SOL    HW134594   6.643  11.015   8.132 -0.1132 -1.7077  1.9701
72328SOL    HW234595   6.606  11.145   8.200  0.1477 -0.5814  0.0446
72329SOL     OW34596   8.484   8.430   6.128 -0.0224 -0.4849  0.2223
72329SOL    HW134597   8.408   8.373   6.115  0.3999 -1.4154  1.6067
72329SOL    HW234598   8.447   8.510   6.165 -0.4274 -0.5422 -0.0525
72330SOL     OW34599  11.124   9.173  13.383 -0.1476 -0.2340 -0.1207
72330SOL    HW134600  11.193   9.176  13.317 -0.9234 -0.4284 -0.9581
72330SOL    HW234601  11.065   9.245  13.360 -1.2412 -1.2500 -0.5705
72331SOL     OW34602  11.545  12.316   9.791  0.0881  0.4334 -0.2200
72331SOL    HW134603  11.481  12.282   9.853  1.1613  0.1062  0.7362
72331SOL    HW234604  11.600  12.240   9.769  0.4210  0.8041 -0.6907
72332SOL     OW34605   3.290   7.688  10.646 -0.5877  0.0726  0.1360
72332SOL    HW134606   3.281   7.611  10.702  2.1848 -0.4984 -0.0286
72332SOL    HW234607   3.269   7.657  10.558  2.8461 -1.3128 -0.3473
72333SOL     OW34608   7.060   5.995   0.748  0.0766 -0.2408 -0.3454
72333SOL    HW134609   7.113   5.926   0.708  0.1680 -0.0604 -0.5345
72333SOL    HW234610   6.970   5.963   0.741  0.1512 -0.5238 -0.0709
72334SOL     OW34611  11.115   4.976  13.806 -0.6977  0.4804 -0.1129
72334SOL    HW134612  11.031   5.019  13.789 -0.5022  0.5099 -1.0335
72334SOL    HW234613  11.095   4.882  13.798 -0.4958  0.5091 -1.0827
72335SOL     OW34614   3.741  13.958   7.534 -0.2173  0.4216  0.3929
72335SOL    HW134615   3.743  13.936   7.441  0.8548 -1.8196  0.8733
72335SOL    HW234616   3.649  13.944   7.559 -0.1966 -0.5673 -0.0124
72336SOL     OW34617   8.010   9.538  13.220 -0.0859 -0.3889  0.1065
72336SOL    HW134618   8.090   9.589  13.203  0.4281 -0.7037  1.4839
72336SOL    HW234619   7.939   9.598  13.197  0.5307  0.1111 -0.5638
72337SOL     OW34620   8.572  12.677   6.222 -0.1258  1.0180  0.1059
72337SOL    HW134621   8.607  12.589   6.237  0.3906  1.4628  1.7399
72337SOL    HW234622   8.564  12.714   6.310 -3.9777  1.2478 -0.1503
72338SOL     OW34623   1.869   5.403  11.805 -0.3884 -0.0379  0.3562
72338SOL    HW134624   1.814   5.400  11.883  0.3883  0.2900  0.9294
72338SOL    HW234625   1.927   5.328  11.814  0.5025  0.6771  0.7134
72339SOL     OW34626  10.472   1.076  10.625 -0.7553 -0.0430  0.3060
72339SOL    HW134627  10.456   1.099  10.533 -1.3710 -0.3609  0.3249
72339SOL    HW234628  10.545   1.131  10.652 -1.5972  1.2385  0.0854
72340SOL     OW34629  10.393   4.169   5.639  0.1492  0.7399 -0.6409
72340SOL    HW134630  10.354   4.239   5.692 -1.4595 -0.6123  0.0830
72340SOL    HW234631  10.481   4.159   5.673 -0.3300  0.9844  0.7303
72341SOL     OW34632   0.241   0.753  12.797  0.0546 -0.6670  0.8963
72341SOL    HW134633   0.298   0.804  12.854 -0.4998 -0.4074  1.2270
72341SOL    HW234634   0.157   0.798  12.801  0.7004  1.1517 -2.4682
72342SOL     OW34635  12.615   5.292   4.428  0.2203 -0.1235  0.5758
72342SOL    HW134636  12.573   5.284   4.514  0.9248 -0.4293  0.8947
72342SOL    HW234637  12.696   5.242   4.436 -0.5473 -1.6972 -0.8250
72343SOL     OW34638  12.641   8.574   8.530  0.5718  0.0006  0.3614
72343SOL    HW134639  12.682   8.660   8.520 -0.9476  0.7412  0.0646
72343SOL    HW234640  12.671   8.542   8.614  0.9572  0.9531  0.5985
72344SOL     OW34641  11.755  13.390   0.165 -0.4071  0.2576  0.2190
72344SOL    HW134642  11.836  13.355   0.203 -0.6258 -0.7320 -0.1966
72344SOL    HW234643  11.775  13.404   0.073 -0.9719 -0.8646 -0.0861
72345SOL     OW34644  10.767  12.278   9.274  0.4693 -0.0126  0.2610
72345SOL    HW134645  10.697  12.218   9.300  0.1953 -0.6242 -1.6815
72345SOL    HW234646  10.834  12.267   9.341 -0.7582 -0.3774  1.4721
72346SOL     OW34647  13.098   7.773   7.024  0.1544 -0.0553  0.6293
72346SOL    HW134648  13.176   7.799   6.975  0.9931  0.2444  2.0686
72346SOL    HW234649  13.044   7.852   7.028 -0.0888 -0.1726 -0.0647
72347SOL     OW34650   5.834   5.316   1.822  0.1972 -0.2408 -0.0802
72347SOL    HW134651   5.787   5.283   1.898  0.6869 -1.0726 -0.1277
72347SOL    HW234652   5.829   5.245   1.758  0.1698  0.2755 -0.6652
72348SOL     OW34653   4.641  10.887   8.431 -0.0935  0.4137 -0.2615
72348SOL    HW134654   4.724  10.885   8.385  0.7189  1.6373  1.0733
72348SOL    HW234655   4.660  10.929   8.514 -1.9223  0.1268  0.3617
72349SOL     OW34656   0.452  12.821   8.923 -0.1744 -0.5484  1.0073
72349SOL    HW134657   0.518  12.891   8.930  0.4101 -0.8896 -0.5481
72349SOL    HW234658   0.499  12.742   8.947 -0.0723 -0.7500  0.1886
72350SOL     OW34659   6.697   9.891  13.419  0.5214  0.2040  0.2113
72350SOL    HW134660   6.651   9.944  13.354 -0.8197 -0.0396  0.9452
72350SOL    HW234661   6.749   9.953  13.469 -2.0633  1.1068  1.9547
72351SOL     OW34662  11.629   2.739   1.502 -0.1231  0.2523  0.4988
72351SOL    HW134663  11.689   2.741   1.427 -2.0907 -1.3864 -1.2557
72351SOL    HW234664  11.677   2.693   1.570  0.4201 -1.6656 -1.1008
72352SOL     OW34665  10.117   1.205  12.263 -1.1279  0.7219  0.7242
72352SOL    HW134666  10.194   1.244  12.303 -1.4569  0.5595  1.5381
72352SOL    HW234667  10.143   1.115  12.244 -0.4841  1.2006 -0.8308
72353SOL     OW34668   8.638   5.440   2.071 -0.0350  0.0747 -1.0790
72353SOL    HW134669   8.548   5.428   2.040 -0.2493 -0.3920 -0.3119
72353SOL    HW234670   8.668   5.352   2.093 -1.2177  0.5528  3.5656
72354SOL     OW34671   8.751  10.823   2.393 -0.0238  0.5135  0.1826
72354SOL    HW134672   8.665  10.863   2.404  0.2183  0.8716  0.8768
72354SOL    HW234673   8.806  10.867   2.458  0.1517 -1.2269  1.2769
72355SOL     OW34674   6.027   0.485   9.880  0.4316 -0.0429 -0.5886
72355SOL    HW134675   5.938   0.499   9.850  0.6027  0.8139 -0.7121
72355SOL    HW234676   6.017   0.451   9.969 -0.0020  1.2442 -0.1274
72356SOL     OW34677   7.744   1.407   5.992  0.0530 -1.0598 -0.0769
72356SOL    HW134678   7.758   1.355   5.914  3.2953 -1.7069  0.7684
72356SOL    HW234679   7.797   1.364   6.060 -0.1009  1.2085  1.6348
72357SOL     OW34680   2.004   7.700   2.382  0.4657 -0.0929 -0.0780
72357SOL    HW134681   2.089   7.742   2.366  1.5385 -1.7311  0.9709
72357SOL    HW234682   1.940   7.770   2.371  2.0313  1.4379  0.0982
72358SOL     OW34683  10.454  13.658  11.836  0.6793 -0.3691  0.0670
72358SOL    HW134684  10.406  13.580  11.865 -1.2050  0.7273  0.0279
72358SOL    HW234685  10.402  13.732  11.867  2.2571  0.9005 -0.1785
72359SOL     OW34686   2.146   9.543   5.675  0.5193  0.0108 -0.0826
72359SOL    HW134687   2.164   9.512   5.586  1.1853 -1.2503  0.4710
72359SOL    HW234688   2.160   9.467   5.731 -1.9776  0.1926  0.9209
72360SOL     OW34689  14.063   0.048  11.049 -0.2599 -0.2618 -0.0520
72360SOL    HW134690  14.128  -0.016  11.019 -1.3890 -1.1987 -0.6039
72360SOL    HW234691  14.040   0.097  10.970  0.8349  1.0750  0.4320
72361SOL     OW34692   6.526  11.239   9.836 -0.4333  0.0626 -0.4542
72361SOL    HW134693   6.599  11.301   9.834 -1.6492  1.5604 -2.2252
72361SOL    HW234694   6.543  11.181   9.762 -0.2872 -0.5445  0.0494
72362SOL     OW34695  12.074   7.380   7.417  1.0720  0.0418 -0.5172
72362SOL    HW134696  12.162   7.413   7.403  0.7396  0.4361 -1.8485
72362SOL    HW234697  12.079   7.287   7.393  1.3645 -0.2078  0.4818
72363SOL     OW34698   2.602   3.414   2.724  0.4362  0.3390 -0.8622
72363SOL    HW134699   2.584   3.344   2.661 -3.5879  0.3649 -0.0149
72363SOL    HW234700   2.643   3.369   2.798  1.8666 -0.2813 -1.9604
72364SOL     OW34701   8.708   1.197   8.298  0.2285 -0.1619  0.7053
72364SOL    HW134702   8.784   1.226   8.347  2.1728 -1.9811 -1.0430
72364SOL    HW234703   8.698   1.105   8.322 -1.5269  0.0671  0.9769
72365SOL     OW34704  11.634   4.877   6.939 -0.0652  0.1857 -0.3441
72365SOL    HW134705  11.710   4.887   6.996  2.0236  2.1837 -3.1677
72365SOL    HW234706  11.660   4.919   6.857 -2.6535 -2.7884 -2.9755
72366SOL     OW34707   2.622   0.466  11.878  0.1467  0.4464 -0.7632
72366SOL    HW134708   2.615   0.551  11.920  0.8323  1.5297 -2.7243
72366SOL    HW234709   2.710   0.435  11.901 -0.4676 -0.2569  0.7921
72367SOL     OW34710  13.584  13.528   1.396 -0.0173  0.3603  0.8292
72367SOL    HW134711  13.576  13.546   1.302 -0.3851 -2.1525  0.3199
72367SOL    HW234712  13.508  13.571   1.435  0.9820  2.8090  0.2749
72368SOL     OW34713   1.838   4.902   0.697 -0.1446 -0.5533  0.1367
72368SOL    HW134714   1.909   4.902   0.633 -0.9697  0.1328 -0.8245
72368SOL    HW234715   1.758   4.896   0.644 -0.8628  0.3326  1.0720
72369SOL     OW34716  10.931  10.461  10.954  0.2112  0.7348 -0.0706
72369SOL    HW134717  10.977  10.393  10.905  0.1409  1.1402 -0.7280
72369SOL    HW234718  10.972  10.543  10.925 -0.4954  1.0563 -0.1898
72370SOL     OW34719  12.485   6.986  13.167  0.6990 -0.5639 -0.7105
72370SOL    HW134720  12.560   6.949  13.214  0.9488 -4.9451 -3.9517
72370SOL    HW234721  12.522   7.058  13.116  2.3656 -1.4703 -0.8715
72371SOL     OW34722  12.087   9.224   4.108 -0.3523  0.8074  0.3114
72371SOL    HW134723  12.094   9.145   4.162 -1.5114  0.2802 -0.2765
72371SOL    HW234724  12.174   9.233   4.068 -0.7280 -1.2980 -1.1281
72372SOL     OW34725  10.942   6.159   3.120  0.1682  0.6719 -0.1654
72372SOL    HW134726  10.910   6.161   3.210 -0.0285  1.6381 -0.2410
72372SOL    HW234727  11.037   6.164   3.128  0.1233  1.3918 -0.0194
72373SOL     OW34728  13.467   2.381   8.916  0.3096  0.2117  0.0600
72373SOL    HW134729  13.393   2.342   8.870  0.9940 -2.9678  1.3339
72373SOL    HW234730  13.436   2.466   8.947 -3.1696 -1.3593  1.3381
72374SOL     OW34731   3.965   2.311   2.301  0.2823  0.1132 -0.3009
72374SOL    HW134732   3.931   2.399   2.316 -1.5474 -0.8006  1.2959
72374SOL    HW234733   4.034   2.301   2.366  1.8040  0.9398 -1.6814
72375SOL     OW34734   0.539   4.516   0.302 -0.2686 -0.0164 -0.2946
72375SOL    HW134735   0.521   4.465   0.381  1.0139 -0.0308  0.0080
72375SOL    HW234736   0.474   4.485   0.239  0.0875 -1.5880  0.0641
72376SOL     OW34737   5.844   6.508   2.987 -0.1568 -0.4146 -0.3187
72376SOL    HW134738   5.875   6.464   3.066  0.6231  1.1258  0.2670
72376SOL    HW234739   5.795   6.440   2.939  0.1562 -1.6196  1.0141
72377SOL     OW34740  10.770  10.220   4.824  0.3971  0.3859 -0.0584
72377SOL    HW134741  10.854  10.189   4.859  0.3556  2.6843  2.3880
72377SOL    HW234742  10.713  10.143   4.825  1.6814 -0.5962  0.9418
72378SOL     OW34743   4.395   1.037   5.197  0.7358 -0.3378  0.4964
72378SOL    HW134744   4.395   0.942   5.192  2.0478 -0.3239 -0.1382
72378SOL    HW234745   4.439   1.057   5.279  2.6763 -0.2759 -0.5167
72379SOL     OW34746   2.861   0.674  13.926  0.0116  0.2964  0.0462
72379SOL    HW134747   2.863   0.591  13.878  1.6679 -0.0630  0.6801
72379SOL    HW234748   2.927   0.728  13.883  0.3903  0.5348  0.9008
72380SOL     OW34749   8.048  12.627   8.704 -0.0864  0.0114  0.2904
72380SOL    HW134750   8.137  12.618   8.668 -0.4953  0.7419 -0.9517
72380SOL    HW234751   8.054  12.703   8.762 -0.0029  0.3359 -0.1394
72381SOL     OW34752   2.138   3.129   1.830  0.0902 -0.2715  0.1242
72381SOL    HW134753   2.215   3.184   1.843 -0.0902 -0.1772  0.8029
72381SOL    HW234754   2.147   3.098   1.740  1.1115 -0.5559  0.3048
72382SOL     OW34755  10.946   5.919  13.497 -0.2708  0.3260  0.0735
72382SOL    HW134756  10.906   5.999  13.464 -1.3952 -0.4010 -0.4210
72382SOL    HW234757  11.040   5.932  13.487 -0.4944  0.3977 -2.9853
72383SOL     OW34758   5.652   0.489   8.595  0.2614 -0.0930  0.3675
72383SOL    HW134759   5.642   0.447   8.510  2.0303  1.6133 -0.7412
72383SOL    HW234760   5.669   0.581   8.576 -1.3656  0.8066  2.6524
72384SOL     OW34761   7.836   8.546   2.182  0.2599  0.8536  0.2424
72384SOL    HW134762   7.789   8.601   2.245 -0.2121 -0.4975  1.0975
72384SOL    HW234763   7.869   8.608   2.117  0.9290  2.3132  1.8990
72385SOL     OW34764   4.770   5.994   9.547  0.2564  0.7353 -0.2657
72385SOL    HW134765   4.766   6.089   9.535 -1.6855  0.7176 -0.1303
72385SOL    HW234766   4.703   5.976   9.612  0.0891 -0.8142 -0.8311
72386SOL     OW34767   3.506   1.076   7.145 -0.0205 -0.3522  0.2575
72386SOL    HW134768   3.581   1.134   7.135 -0.6781  0.3941 -0.4795
72386SOL    HW234769   3.450   1.096   7.070  0.3454 -2.8912 -0.8013
72387SOL     OW34770  13.121  10.488   8.242 -0.3523  0.2667  0.2084
72387SOL    HW134771  13.163  10.435   8.174 -1.0979 -0.6574  0.4457
72387SOL    HW234772  13.027  10.471   8.231 -0.4850  0.1563  1.4209
72388SOL     OW34773   7.307   0.316   7.877 -0.4414 -0.4806  0.1197
72388SOL    HW134774   7.320   0.232   7.921  0.9269  0.1511  1.0201
72388SOL    HW234775   7.392   0.336   7.838 -0.8900  0.2535 -0.5168
72389SOL     OW34776   6.140  13.936   4.164  0.5777 -0.2115  0.7696
72389SOL    HW134777   6.171  13.846   4.170 -0.0110 -0.4587  0.1372
72389SOL    HW234778   6.203  13.980   4.108  0.9791 -0.1678  1.2421
72390SOL     OW34779  12.311  11.212   5.692  0.1059 -0.3972 -0.1108
72390SOL    HW134780  12.394  11.183   5.732  0.5157  0.9114  0.0332
72390SOL    HW234781  12.327  11.206   5.598  1.6591  3.0400 -0.2199
72391SOL     OW34782   7.433   0.494  11.500 -0.3069 -0.3195 -0.4165
72391SOL    HW134783   7.373   0.569  11.503  0.6833  0.4952  0.5551
72391SOL    HW234784   7.379   0.420  11.474 -1.4743  0.6065 -0.7219
72392SOL     OW34785  11.546   1.395   9.793  0.1898 -0.2474 -0.0120
72392SOL    HW134786  11.586   1.459   9.852 -0.1282  1.7507 -1.8199
72392SOL    HW234787  11.608   1.387   9.721 -0.5347 -0.7266 -0.5991
72393SOL     OW34788   9.637   5.936   0.003  0.2945  0.4822  0.1118
72393SOL    HW134789   9.703   6.005   0.007 -1.1290  2.1591 -2.3818
72393SOL    HW234790   9.686   5.857  -0.019  1.6594  1.3439 -0.0891
72394SOL     OW34791   0.910   7.567   5.307 -0.2409 -0.6796  0.2857
72394SOL    HW134792   0.869   7.583   5.392  1.3247  1.4026  0.7103
72394SOL    HW234793   0.873   7.634   5.250  0.3728 -0.6527 -0.0833
72395SOL     OW34794   7.337   8.736   4.520 -0.1843 -0.2444  0.5193
72395SOL    HW134795   7.315   8.748   4.613  1.1082 -0.2031  0.8350
72395SOL    HW234796   7.306   8.648   4.499 -1.3603  0.1059  0.7114
72396SOL     OW34797   7.263   0.832  12.105  0.1807  0.1223  0.1585
72396SOL    HW134798   7.217   0.913  12.084 -0.5541 -0.6733 -1.4833
72396SOL    HW234799   7.213   0.764  12.060  1.5706 -1.0746  0.3620
72397SOL     OW34800  11.253  13.812  13.194 -0.3386  0.3771 -0.6832
72397SOL    HW134801  11.160  13.788  13.192 -0.3899  0.6115 -1.1238
72397SOL    HW234802  11.260  13.871  13.270 -0.0646 -1.5614  0.8923
72398SOL     OW34803   4.222  12.824   3.899 -0.2490 -0.1778 -0.0791
72398SOL    HW134804   4.236  12.842   3.992 -1.0871  1.9096 -0.3070
72398SOL    HW234805   4.307  12.796   3.867  0.6244  1.2321  0.8855
72399SOL     OW34806   4.425  12.515  13.490  0.1981 -0.3182 -0.3578
72399SOL    HW134807   4.456  12.539  13.577 -0.9618  1.3125 -0.3444
72399SOL    HW234808   4.503  12.480  13.446  0.9633 -0.5213  1.0907
72400SOL     OW34809   3.442   3.671   2.840  0.1024 -0.1426  0.0015
72400SOL    HW134810   3.519   3.640   2.888 -0.1547  0.7850  1.0470
72400SOL    HW234811   3.477   3.717   2.764  0.4994 -3.1008 -1.7599
72401SOL     OW34812  10.061  10.822   7.730  0.1823  0.5977 -0.3436
72401SOL    HW134813  10.004  10.897   7.715 -0.1340 -0.0260 -2.6143
72401SOL    HW234814  10.006  10.746   7.709  1.0360 -0.1727  0.1479
72402SOL     OW34815   6.482   4.926   3.438 -0.0285  0.2367  0.5426
72402SOL    HW134816   6.480   4.852   3.500 -2.5276 -0.3045 -0.0943
72402SOL    HW234817   6.568   4.920   3.397  0.1640 -1.8081  1.1344
72403SOL     OW34818   7.431  12.865   5.127 -0.2551  0.4214  0.6115
72403SOL    HW134819   7.506  12.822   5.167 -0.1265 -1.4468 -1.4068
72403SOL    HW234820   7.360  12.801   5.134 -0.3650  0.2197 -1.5113
72404SOL     OW34821  11.364   7.235   6.800  0.3881 -0.1982 -0.1782
72404SOL    HW134822  11.378   7.266   6.889 -1.7618 -1.6784  0.7618
72404SOL    HW234823  11.308   7.302   6.759  0.4711 -0.0539 -0.0528
72405SOL     OW34824  10.382  13.782   5.447 -0.1635 -0.1127 -0.2778
72405SOL    HW134825  10.471  13.772   5.480 -0.4749 -0.0810  0.5961
72405SOL    HW234826  10.350  13.693   5.435  0.4097 -0.1392 -1.8205
72406SOL     OW34827   8.998  13.724  12.477  0.0380 -0.1363  0.6253
72406SOL    HW134828   9.062  13.759  12.539 -0.1273  1.0507  0.1511
72406SOL    HW234829   8.957  13.802  12.439 -0.0240 -0.8323 -0.8039
72407SOL     OW34830   1.730   1.587   3.536 -0.0874 -0.0214 -0.0411
72407SOL    HW134831   1.822   1.612   3.543 -0.1510  0.1600  0.1633
72407SOL    HW234832   1.684   1.670   3.522 -0.0637 -0.2477 -1.7401
72408SOL     OW34833   0.546   1.663   9.953 -0.0909 -0.1434 -0.3553
72408SOL    HW134834   0.550   1.624   9.866 -1.9481 -1.5345  0.1165
72408SOL    HW234835   0.597   1.604  10.009  0.0238  0.0458 -0.2562
72409SOL     OW34836  13.485   0.665   7.992  0.5228  0.5006  0.2038
72409SOL    HW134837  13.441   0.600   7.936  2.3905 -0.4009 -0.3085
72409SOL    HW234838  13.504   0.738   7.934  0.9273  0.2964  0.0755
72410SOL     OW34839   8.847   3.867   9.487  0.6975 -0.4311  0.3882
72410SOL    HW134840   8.760   3.905   9.498  1.0913  0.1397  1.8080
72410SOL    HW234841   8.906   3.943   9.485  1.2742 -0.8622  0.7367
72411SOL     OW34842   5.880  12.846   6.480  0.2507 -0.1149 -0.7190
72411SOL    HW134843   5.912  12.901   6.409  1.8185  0.1830  0.1739
72411SOL    HW234844   5.913  12.887   6.560 -0.2586 -1.2276  0.0977
72412SOL     OW34845   7.446  12.397   8.085  0.4256  0.3081  0.2972
72412SOL    HW134846   7.374  12.357   8.037 -1.0307  0.5212  2.1883
72412SOL    HW234847   7.472  12.472   8.032 -0.6691  0.1608 -0.4761
72413SOL     OW34848   6.271  10.335  13.530  0.2222  0.2974  0.0010
72413SOL    HW134849   6.190  10.350  13.579 -0.0675  0.2600 -0.4568
72413SOL    HW234850   6.244  10.278  13.457  1.3249 -2.8762  1.8859
72414SOL     OW34851  13.463   8.752   0.164 -0.0449  0.6242  0.0706
72414SOL    HW134852  13.480   8.826   0.222  1.1883  1.2033 -0.9671
72414SOL    HW234853  13.404   8.695   0.213 -2.9900  3.3822  0.0331
72415SOL     OW34854   7.101  12.745  12.333 -0.4415 -0.3965 -0.6124
72415SOL    HW134855   7.044  12.679  12.295 -1.6253 -0.3212  0.9428
72415SOL    HW234856   7.041  12.812  12.367  0.6311  0.3305 -0.0894
72416SOL     OW34857   9.718   0.522   9.499 -0.2433 -0.0122 -0.1993
72416SOL    HW134858   9.692   0.493   9.587 -0.4446  1.7790  0.3741
72416SOL    HW234859   9.780   0.455   9.469 -0.9879 -1.2158  0.8571
72417SOL     OW34860   4.191   4.399   0.681  0.3133 -0.1324 -0.3467
72417SOL    HW134861   4.135   4.407   0.758 -0.0642 -0.7702 -0.5513
72417SOL    HW234862   4.229   4.487   0.669 -0.1987  0.1525  0.1253
72418SOL     OW34863   0.022  10.423   9.170 -0.7695  0.4969 -0.0359
72418SOL    HW134864  -0.018  10.491   9.115 -0.8114  0.7546  0.3049
72418SOL    HW234865   0.009  10.455   9.260 -2.1714 -0.6898  0.2252
72419SOL     OW34866   9.943   0.193   0.564  0.1713 -0.2624 -0.0106
72419SOL    HW134867  10.030   0.200   0.604  0.3421  2.2286 -0.6231
72419SOL    HW234868   9.937   0.270   0.507 -3.3516  1.0326  1.8484
72420SOL     OW34869   6.209  13.531   1.408 -0.1351  0.3079 -0.5002
72420SOL    HW134870   6.134  13.484   1.446  0.4991  0.3156  0.8068
72420SOL    HW234871   6.173  13.617   1.385 -0.1301  1.0454  1.9586
72421SOL     OW34872   3.382   1.778  12.528  0.0268 -0.3353 -0.1064
72421SOL    HW134873   3.306   1.833  12.545 -0.6607 -1.6574  1.3141
72421SOL    HW234874   3.376   1.756  12.435 -0.7700  0.3705 -0.2356
72422SOL     OW34875   4.761   3.116  10.387  0.4320  0.0474  0.3380
72422SOL    HW134876   4.740   3.197  10.340 -1.2756  0.7428  2.1864
72422SOL    HW234877   4.757   3.048  10.319 -1.1782  1.0993 -0.6865
72423SOL     OW34878   8.447   0.415   2.808 -0.2564 -0.1599  0.2422
72423SOL    HW134879   8.365   0.462   2.799 -1.3627 -2.1235 -0.5202
72423SOL    HW234880   8.480   0.440   2.895 -1.2060  1.2677  0.2275
72424SOL     OW34881  12.078   4.654   8.937  0.8796  0.1633 -0.2319
72424SOL    HW134882  12.095   4.694   8.851 -2.8146  0.6053 -0.9461
72424SOL    HW234883  12.084   4.726   8.999  1.1950  0.3541 -0.4807
72425SOL     OW34884   0.900   4.152   1.005  0.3083  0.5282 -0.6557
72425SOL    HW134885   0.893   4.232   1.057 -0.2131  0.5850 -0.8124
72425SOL    HW234886   0.985   4.115   1.030  0.6009  1.1808 -0.6602
72426SOL     OW34887   4.065   0.264  10.631  1.1039  0.5413 -0.0033
72426SOL    HW134888   4.020   0.181  10.649  1.5579  0.9107  3.4738
72426SOL    HW234889   3.994   0.325  10.611  0.6412 -0.3030 -1.0712
72427SOL     OW34890   2.518   5.774   5.765  0.3236  0.4226 -0.2454
72427SOL    HW134891   2.497   5.685   5.792 -0.2283  0.1400 -1.5271
72427SOL    HW234892   2.543   5.818   5.846 -1.1390 -0.3980  0.7039
72428SOL     OW34893   1.686   7.760   2.967  0.0864 -0.0189 -0.3102
72428SOL    HW134894   1.647   7.844   2.941  0.7846 -0.0427 -1.4863
72428SOL    HW234895   1.773   7.783   2.998  0.7311 -0.4291 -1.7731
72429SOL     OW34896  10.257   8.144   0.889 -0.4116 -0.0696  0.1216
72429SOL    HW134897  10.240   8.237   0.879  0.4039  0.0040 -0.5908
72429SOL    HW234898  10.209   8.103   0.817 -0.2877 -0.1520  0.0858
72430SOL     OW34899   2.163   0.015   5.068 -0.0242 -0.2302  0.0795
72430SOL    HW134900   2.085   0.070   5.056  0.3640  0.4726  0.6757
72430SOL    HW234901   2.138  -0.070   5.033 -0.2216  0.6653 -2.1559
72431SOL     OW34902   5.458   3.696   8.256 -0.3502 -0.1986 -0.0125
72431SOL    HW134903   5.452   3.601   8.269 -0.0919 -0.0156  1.7405
72431SOL    HW234904   5.518   3.707   8.183 -0.4511 -1.3913 -0.2893
72432SOL     OW34905   7.364  11.268   2.999 -0.2921  0.0287 -0.4160
72432SOL    HW134906   7.437  11.306   2.950  0.1417 -0.3124 -0.0447
72432SOL    HW234907   7.402  11.242   3.083 -1.2578  1.5838  0.5488
72433SOL     OW34908   5.000  12.343   2.232  0.0794 -0.8019  0.0602
72433SOL    HW134909   5.050  12.423   2.246  1.4233 -1.6950  0.5591
72433SOL    HW234910   5.049  12.294   2.167  0.1778 -1.9416  0.9535
72434SOL     OW34911   6.541   9.395   0.049  0.4585 -0.5914 -0.0914
72434SOL    HW134912   6.450   9.385   0.078  0.0745  0.2723 -0.9371
72434SOL    HW234913   6.536   9.452  -0.027  1.6043 -1.4069 -0.8228
72435SOL     OW34914   9.517   3.700  13.444  0.1257 -0.3440 -0.6471
72435SOL    HW134915   9.575   3.640  13.490  1.6326  0.9526 -0.8071
72435SOL    HW234916   9.450   3.723  13.509 -0.5016 -2.1454 -0.5836
72436SOL     OW34917  10.478   8.178   7.516 -0.1969 -0.0451  0.0870
72436SOL    HW134918  10.460   8.266   7.551 -0.8364  0.6399 -1.8555
72436SOL    HW234919  10.573   8.170   7.520 -0.0765  1.0070 -0.3164
72437SOL     OW34920   9.793   5.368   7.169 -0.0186 -0.0050 -0.2419
72437SOL    HW134921   9.815   5.390   7.079 -1.5139 -2.2192 -1.2365
72437SOL    HW234922   9.859   5.302   7.194  1.5216  1.9133  1.0053
72438SOL     OW34923  12.295   2.474   6.533 -0.2096 -0.5733  0.4231
72438SOL    HW134924  12.288   2.431   6.618  3.5122 -1.6369  0.3713
72438SOL    HW234925  12.354   2.548   6.549 -2.0884  1.3058 -0.6791
72439SOL     OW34926   2.161   6.963   4.876  0.1291  0.4493 -0.3486
72439SOL    HW134927   2.156   6.868   4.870  0.6529  0.4486 -0.9299
72439SOL    HW234928   2.195   6.990   4.791 -2.7520  1.4017 -1.2928
72440SOL     OW34929   5.509  14.055   8.883 -0.5246  0.1940 -0.6523
72440SOL    HW134930   5.445  14.082   8.948 -0.5275  0.6414 -0.8354
72440SOL    HW234931   5.593  14.082   8.919 -0.2518 -1.7787  0.3161
72441SOL     OW34932   0.354   8.647   4.820  0.1580 -0.1682 -0.1708
72441SOL    HW134933   0.366   8.554   4.801 -1.9437 -0.1278 -2.0940
72441SOL    HW234934   0.342   8.688   4.734 -3.1535  1.1995  0.7929
72442SOL     OW34935   6.034   1.782   2.782  0.3445  0.2698 -0.3567
72442SOL    HW134936   6.038   1.852   2.848  1.2934 -0.4251  0.3424
72442SOL    HW234937   6.072   1.821   2.703 -0.8838  1.1420 -0.5541
72443SOL     OW34938   4.680   9.166   8.458 -0.5299 -0.7548 -0.2520
72443SOL    HW134939   4.685   9.127   8.370  0.6615 -1.1365 -0.0307
72443SOL    HW234940   4.594   9.138   8.491 -0.4464 -1.7179 -0.7911
72444SOL     OW34941   7.692  12.565  13.000  0.0486 -0.8418  0.2814
72444SOL    HW134942   7.635  12.492  13.024 -2.4968  0.8895 -0.0919
72444SOL    HW234943   7.700  12.559  12.905 -2.5237  0.7999 -0.1574
72445SOL     OW34944  10.873  10.777   9.857  0.2614 -0.1245  0.7449
72445SOL    HW134945  10.879  10.690   9.897 -0.7061 -1.0747 -1.0511
72445SOL    HW234946  10.813  10.765   9.784 -0.0743  2.1380  0.5956
72446SOL     OW34947   0.027   9.955   7.875 -0.7850  0.0422  0.2479
72446SOL    HW134948   0.038   9.861   7.865  0.3931 -0.0277  1.9184
72446SOL    HW234949   0.101   9.994   7.829 -1.9508  0.2580 -1.5493
72447SOL     OW34950  10.204   2.342  10.861 -0.7593  0.3681  0.5479
72447SOL    HW134951  10.171   2.430  10.841  0.7581  1.3069  1.9550
72447SOL    HW234952  10.179   2.327  10.952 -0.6161 -0.4791  0.4550
72448SOL     OW34953   5.430   4.461   5.134  0.0001  0.7483  0.1572
72448SOL    HW134954   5.482   4.381   5.123  1.6017  1.8996 -1.2478
72448SOL    HW234955   5.478   4.513   5.198 -0.9888  0.6436  1.0069
72449SOL     OW34956   9.387  11.981   5.019  0.3558 -0.1322  0.3850
72449SOL    HW134957   9.368  11.903   4.967 -0.5496  0.1809  0.2126
72449SOL    HW234958   9.326  12.047   4.985 -1.0884 -0.2424  2.5744
72450SOL     OW34959   1.432   0.181  12.150 -0.3191 -0.3130 -0.0899
72450SOL    HW134960   1.340   0.198  12.172 -1.1988 -2.0917 -2.0473
72450SOL    HW234961   1.481   0.243  12.204 -2.6452  0.6440  1.0831
72451SOL     OW34962  11.234  12.119   8.436  0.0177  0.6010  0.3610
72451SOL    HW134963  11.154  12.161   8.403 -0.0207  1.0289  0.9922
72451SOL    HW234964  11.285  12.100   8.357 -1.2917 -0.9317 -0.1887
72452SOL     OW34965   8.219   0.099   0.690  0.1316 -0.2731  0.7033
72452SOL    HW134966   8.129   0.126   0.670  0.1513 -0.2317  0.6708
72452SOL    HW234967   8.231   0.125   0.782  0.4291  0.5943  0.4348
72453SOL     OW34968   0.584   6.938   5.603  0.0247 -0.2351 -0.5696
72453SOL    HW134969   0.510   6.951   5.543 -0.1424  0.9359 -0.1386
72453SOL    HW234970   0.631   6.863   5.567 -1.1703 -0.7782 -1.0529
72454SOL     OW34971  10.247   0.209   0.581 -0.4296 -0.1093  0.2534
72454SOL    HW134972  10.342   0.220   0.580 -0.4888  0.4373 -0.5671
72454SOL    HW234973  10.227   0.180   0.670  0.5083 -0.2864  0.4147
72455SOL     OW34974   7.713   3.496   2.525  0.1478  0.1114  0.5485
72455SOL    HW134975   7.674   3.470   2.442 -2.2281  0.9727  1.3320
72455SOL    HW234976   7.669   3.442   2.590 -0.5653  1.8754  1.5880
72456SOL     OW34977   6.929   2.075   7.568 -0.8795  0.1078 -0.1864
72456SOL    HW134978   6.852   2.125   7.596 -0.9491 -0.2356  0.2552
72456SOL    HW234979   6.940   2.097   7.476 -1.2844  0.4501 -0.1568
72457SOL     OW34980  10.536  10.263   5.884 -0.2646  0.2882  0.2704
72457SOL    HW134981  10.449  10.249   5.847  0.2179  1.1781 -1.3110
72457SOL    HW234982  10.565  10.176   5.911 -0.3070 -0.6557 -2.3790
72458SOL     OW34983   7.853   0.579   4.629 -0.0684 -0.1597 -0.0207
72458SOL    HW134984   7.931   0.527   4.650 -0.6755 -1.5436 -1.0128
72458SOL    HW234985   7.850   0.645   4.698  1.0731 -1.0802  0.9855
72459SOL     OW34986  10.974   1.255   1.991 -0.3860 -0.5243  0.2989
72459SOL    HW134987  11.044   1.240   1.927  0.5559 -0.1844  1.2233
72459SOL    HW234988  10.928   1.171   1.997  1.5974 -1.5810  1.6126
72460SOL     OW34989  10.872  11.201   6.161 -0.1525 -0.0177 -0.4261
72460SOL    HW134990  10.934  11.224   6.091  1.2359 -1.9301  0.0784
72460SOL    HW234991  10.876  11.274   6.222  1.0570  0.2398 -0.7888
72461SOL     OW34992  10.070   6.524  11.132  0.2417  0.0646  0.3084
72461SOL    HW134993  10.085   6.543  11.040 -0.5161 -0.4878  0.0664
72461SOL    HW234994   9.988   6.569  11.153 -0.6774 -1.4801  0.1645
72462SOL     OW34995   9.489  12.798  11.022 -0.1126  0.4278  0.0727
72462SOL    HW134996   9.413  12.854  11.007  1.2082  1.9207 -1.4390
72462SOL    HW234997   9.496  12.745  10.942 -1.5613 -2.3336  1.6083
72463SOL     OW34998  10.202   1.556   3.378  0.2599  0.2382 -0.1516
72463SOL    HW134999  10.211   1.602   3.295  1.9923  0.5696  0.1749
72463SOL    HW235000  10.134   1.490   3.362  0.7153  0.1452 -1.9018
72464SOL     OW35001   2.312   7.170  12.001  0.0143  0.3639  0.2191
72464SOL    HW135002   2.271   7.102  11.948  0.4857 -0.1716  0.5274
72464SOL    HW235003   2.271   7.162  12.086  1.8614 -1.3080  1.0507
72465SOL     OW35004   1.074   7.763   5.855 -0.0550 -0.3721 -0.1227
72465SOL    HW135005   1.005   7.698   5.868 -0.7710  0.3022 -0.4804
72465SOL    HW235006   1.107   7.746   5.767 -2.8472  2.0658 -1.8476
72466SOL     OW35007   3.586  10.225  10.355  0.5146 -0.4439 -0.1293
72466SOL    HW135008   3.523  10.268  10.297 -0.6484 -0.5807  0.9744
72466SOL    HW235009   3.612  10.292  10.418  2.7485  0.0665 -1.4926
72467SOL     OW35010   8.268   6.380  11.232 -0.1084 -0.3946  0.4530
72467SOL    HW135011   8.246   6.387  11.324 -0.0658 -0.2209  0.4510
72467SOL    HW235012   8.252   6.468  11.197 -0.4547 -0.5487  0.2235
72468SOL     OW35013   1.653   7.126   3.335 -0.1769 -0.4201 -0.5832
72468SOL    HW135014   1.747   7.109   3.329  0.2516  0.7986  1.6318
72468SOL    HW235015   1.643   7.219   3.313 -0.4568  0.1445  1.6601
72469SOL     OW35016  13.727   0.366  11.780 -0.1006  0.3166  0.9786
72469SOL    HW135017  13.660   0.298  11.768  0.2694 -0.3105  2.2448
72469SOL    HW235018  13.769   0.344  11.863 -0.1886  2.3039  1.6074
72470SOL     OW35019   4.683   0.884  12.581  0.3188  0.1795  0.0386
72470SOL    HW135020   4.693   0.875  12.676  0.0523 -2.5227 -0.1130
72470SOL    HW235021   4.606   0.939  12.570  1.5830  2.3635  1.3093
72471SOL     OW35022  12.668   7.808   0.785  0.0332  0.6859 -0.8605
72471SOL    HW135023  12.668   7.884   0.842 -2.4504  0.0936  0.0559
72471SOL    HW235024  12.701   7.737   0.840 -0.6890  0.4739 -0.6898
72472SOL     OW35025   0.347   4.688   7.345  0.4729 -0.4000  0.2328
72472SOL    HW135026   0.321   4.773   7.382  0.5042 -0.0262 -0.5824
72472SOL    HW235027   0.303   4.685   7.260 -1.6867 -2.3403  1.2877
72473SOL     OW35028   6.910   4.763  12.786  0.0307  0.1519 -0.2086
72473SOL    HW135029   6.922   4.791  12.877 -1.0210  0.6573 -0.2169
72473SOL    HW235030   6.981   4.806  12.738  0.9874 -0.6360  0.4593
72474SOL     OW35031   9.413  11.685   6.411  0.0557 -0.3232  0.3338
72474SOL    HW135032   9.367  11.657   6.490  1.7713  0.0495  1.4941
72474SOL    HW235033   9.493  11.726   6.442  1.2710 -1.0729 -1.6305
72475SOL     OW35034   2.609   3.088   1.722  0.1044 -0.0343 -0.5408
72475SOL    HW135035   2.683   3.068   1.664  1.7086  3.4002  0.0533
72475SOL    HW235036   2.591   3.006   1.767  0.7650 -2.0640 -3.6595
72476SOL     OW35037   5.225   1.547  10.856  0.1951 -0.1245  0.5672
72476SOL    HW135038   5.235   1.463  10.899  0.7155  0.1098  0.9041
72476SOL    HW235039   5.211   1.609  10.927 -1.5995 -0.1147  0.2599
72477SOL     OW35040   4.212   1.401   8.567  0.0276 -0.0623 -0.2278
72477SOL    HW135041   4.287   1.342   8.564 -0.1821 -0.8153  3.5904
72477SOL    HW235042   4.248   1.485   8.595 -0.4567 -0.6198  2.3911
72478SOL     OW35043   5.351   2.409   6.834 -1.0287  0.2657  0.0983
72478SOL    HW135044   5.274   2.418   6.778 -0.0787 -1.8651 -1.7216
72478SOL    HW235045   5.356   2.315   6.853  1.0317  0.3562  0.2326
72479SOL     OW35046   2.829   0.685   8.202  0.0339 -0.2913  0.5198
72479SOL    HW135047   2.906   0.684   8.260 -0.4113 -0.0253  1.1260
72479SOL    HW235048   2.816   0.777   8.180 -0.6490 -0.2128  1.1738
72480SOL     OW35049   7.214  11.630   0.731  0.1639 -0.0434  0.4580
72480SOL    HW135050   7.176  11.660   0.814 -2.9968 -2.3783  0.0296
72480SOL    HW235051   7.235  11.538   0.746 -1.2143 -0.7409 -1.4762
72481SOL     OW35052   9.277   9.978   0.670  0.4936  0.3099 -0.2732
72481SOL    HW135053   9.198   9.986   0.723 -0.3414  1.1837 -1.5763
72481SOL    HW235054   9.331   9.915   0.717 -0.4622  0.5830  1.2622
72482SOL     OW35055   8.840   2.849  10.503 -1.0559  0.0261  0.3111
72482SOL    HW135056   8.785   2.894  10.440 -0.3263  2.1190  1.0683
72482SOL    HW235057   8.810   2.880  10.589 -0.7298 -1.2135  0.9120
72483SOL     OW35058   0.617   4.680  13.210  0.3157  0.6175 -0.1576
72483SOL    HW135059   0.546   4.732  13.171  1.7117  1.8517 -1.1822
72483SOL    HW235060   0.573   4.606  13.251 -1.4755  0.7586 -1.6846
72484SOL     OW35061  11.380   7.133   5.671  0.5586 -0.6848 -0.2190
72484SOL    HW135062  11.367   7.117   5.578 -0.3638 -1.7406  0.0632
72484SOL    HW235063  11.403   7.225   5.677 -2.9096  0.3576 -1.1955
72485SOL     OW35064  12.130   5.757  11.418 -0.3694  0.3824 -0.1386
72485SOL    HW135065  12.115   5.729  11.328 -0.2846  1.0221 -0.3567
72485SOL    HW235066  12.217   5.796  11.417 -0.1535 -0.0699  0.3376
72486SOL     OW35067   0.528  12.494   4.406  0.3874  0.1485 -0.1407
72486SOL    HW135068   0.449  12.493   4.459  1.5519 -1.2228  1.7044
72486SOL    HW235069   0.590  12.547   4.456  1.4404 -0.9779 -0.1726
72487SOL     OW35070   0.355   6.991   1.307  0.7744 -0.4140 -0.1812
72487SOL    HW135071   0.389   7.081   1.309  2.4715 -1.0033 -0.3818
72487SOL    HW235072   0.294   6.986   1.380 -0.7325  1.3851 -1.2213
72488SOL     OW35073   7.163   6.465  13.485  0.1628 -0.5227 -0.2235
72488SOL    HW135074   7.149   6.527  13.557  2.1241  0.3930 -0.5517
72488SOL    HW235075   7.136   6.381  13.521  0.2127  0.0646  1.2826
72489SOL     OW35076   8.054   2.287   8.248  0.0779  0.1779 -0.1438
72489SOL    HW135077   8.099   2.309   8.167  2.0030  0.0689  0.8308
72489SOL    HW235078   8.027   2.372   8.284  1.7340  0.5231  0.4247
72490SOL     OW35079   9.398   2.239  10.688 -0.1964 -0.0497  0.1081
72490SOL    HW135080   9.321   2.296  10.690 -0.2534 -0.0643 -0.9845
72490SOL    HW235081   9.411   2.212  10.779 -2.4516 -1.3022  0.1413
72491SOL     OW35082   5.092   1.058  14.003 -0.7737  0.0990  0.3267
72491SOL    HW135083   5.170   1.044  13.949 -0.8165  0.6003  0.1364
72491SOL    HW235084   5.095   0.986  14.067 -0.2950 -0.0346  0.1613
72492SOL     OW35085   8.434   1.785   9.294 -0.1472  0.5884 -0.3330
72492SOL    HW135086   8.420   1.698   9.331 -0.0104  0.4278 -0.6461
72492SOL    HW235087   8.444   1.769   9.200  0.8671  0.8248 -0.2865
72493SOL     OW35088   8.421   9.374   2.381  0.3102 -0.1222 -0.1637
72493SOL    HW135089   8.455   9.444   2.437  1.4409 -1.2436  0.6018
72493SOL    HW235090   8.455   9.394   2.294 -1.3240  1.5492 -0.4940
72494SOL     OW35091   2.625  12.155   4.255  0.0666 -0.1731  0.1715
72494SOL    HW135092   2.610  12.224   4.320  1.1921 -0.7083  1.0417
72494SOL    HW235093   2.537  12.132   4.224 -0.3574  1.4504  0.0450
72495SOL     OW35094  13.472   1.052   1.183  0.1118 -0.2730  0.2710
72495SOL    HW135095  13.542   0.994   1.154  1.3418  1.6845 -0.8554
72495SOL    HW235096  13.410   0.993   1.227  2.2635 -2.1166  1.0457
72496SOL     OW35097  10.149   1.810   1.222 -0.4454  0.0605  0.1857
72496SOL    HW135098  10.125   1.902   1.208  0.1911  0.0669 -1.0553
72496SOL    HW235099  10.217   1.813   1.289 -0.6789  0.4651  0.4082
72497SOL     OW35100  10.857   6.572   0.276  0.1213  0.0045  0.5166
72497SOL    HW135101  10.828   6.610   0.359  0.2703  0.6080  0.2927
72497SOL    HW235102  10.929   6.628   0.247  0.7208 -0.7756  0.4621
72498SOL     OW35103  10.907  12.355  11.967  0.3840  0.1782 -0.4637
72498SOL    HW135104  10.996  12.385  11.986  0.5789 -0.5657 -0.1544
72498SOL    HW235105  10.865  12.349  12.052 -0.3620  1.6822 -0.6992
72499SOL     OW35106   0.645   7.854   2.099 -0.2432  0.0580  0.2169
72499SOL    HW135107   0.602   7.870   2.183 -1.2569  2.1213 -0.6294
72499SOL    HW235108   0.738   7.853   2.119 -0.5002 -0.5607  1.5012
72500SOL     OW35109  13.344  10.482   4.952 -0.7264 -0.0632 -0.4960
72500SOL    HW135110  13.397  10.418   4.999 -0.7301  1.0326  1.0734
72500SOL    HW235111  13.383  10.487   4.865  0.1873 -1.0909 -0.1564
72501SOL     OW35112   8.192   9.045   3.383  0.3089 -0.6144  0.3147
72501SOL    HW135113   8.121   8.983   3.367  0.1001 -0.8347  1.9677
72501SOL    HW235114   8.213   9.080   3.296 -2.0951 -0.2285 -0.1666
72502SOL     OW35115   0.800   4.678  12.498  0.5203 -0.7796 -0.2199
72502SOL    HW135116   0.800   4.735  12.421  0.6528 -0.4437  0.0255
72502SOL    HW235117   0.765   4.733  12.568 -0.8303 -1.4798 -0.3260
72503SOL     OW35118  13.280  11.097   0.774 -0.6148  0.2287 -0.2782
72503SOL    HW135119  13.258  11.016   0.821  1.7531 -1.2733 -1.5447
72503SOL    HW235120  13.246  11.083   0.685  0.1674  0.4265 -0.6140
72504SOL     OW35121   5.434  10.386   1.902 -0.1137  0.0557 -0.0791
72504SOL    HW135122   5.511  10.332   1.885 -0.6964 -1.0218  0.5221
72504SOL    HW235123   5.460  10.444   1.974  0.7130  1.0308 -1.1313
72505SOL     OW35124   6.651   2.298   3.560 -0.3068 -0.5150 -0.0126
72505SOL    HW135125   6.604   2.342   3.488 -0.6385 -0.5637  0.1733
72505SOL    HW235126   6.596   2.223   3.582 -1.4688  0.8390  1.9389
72506SOL     OW35127  12.960   0.419   4.437  0.1226  0.1944  0.0850
72506SOL    HW135128  12.999   0.409   4.524  0.6429  0.4733 -0.1118
72506SOL    HW235129  12.866   0.419   4.453  0.2176  0.8702  0.7245
72507SOL     OW35130  11.359   4.413   2.452 -0.2212  0.4365  0.2193
72507SOL    HW135131  11.326   4.432   2.364  2.5246  1.2545 -0.7417
72507SOL    HW235132  11.450   4.384   2.437 -0.0285 -0.4586  2.7303
72508SOL     OW35133   4.826   9.214   1.272 -0.5698 -0.4104 -0.8787
72508SOL    HW135134   4.878   9.218   1.192 -1.7727 -3.1640 -1.9008
72508SOL    HW235135   4.853   9.292   1.321  3.0471 -0.6273 -2.1928
72509SOL     OW35136   5.695   3.286  13.986 -0.4762 -0.0491  0.1426
72509SOL    HW135137   5.605   3.266  13.959 -1.1476  0.5475  1.8137
72509SOL    HW235138   5.743   3.295  13.903 -2.1149  0.3429 -0.8163
72510SOL     OW35139   2.065   9.529  11.427 -0.4879 -0.4516 -0.1164
72510SOL    HW135140   1.990   9.511  11.370 -1.0155  1.7517 -0.2132
72510SOL    HW235141   2.035   9.508  11.515 -0.5424 -1.4028 -0.3489
72511SOL     OW35142   4.577   3.521  13.117  0.2957 -0.6334 -0.0832
72511SOL    HW135143   4.659   3.565  13.096  0.8867 -1.6578  0.0335
72511SOL    HW235144   4.546   3.486  13.033  0.4456 -1.0147  0.0172
72512SOL     OW35145   0.755   1.153   5.435 -0.0039 -0.4737 -0.0831
72512SOL    HW135146   0.820   1.204   5.386 -0.2903  0.0832  0.1015
72512SOL    HW235147   0.671   1.183   5.400 -0.2396  0.4119  1.2022
72513SOL     OW35148  12.975   1.415   8.967 -0.3259 -0.5779  0.0743
72513SOL    HW135149  13.053   1.464   8.941 -0.7379 -1.4770 -3.3012
72513SOL    HW235150  12.946   1.372   8.887 -4.6165  0.0946  1.0213
72514SOL     OW35151   1.548  11.231   6.112 -0.4159 -0.2336 -0.2589
72514SOL    HW135152   1.610  11.274   6.171 -0.6351  0.7475 -0.7229
72514SOL    HW235153   1.593  11.152   6.084 -0.8307 -1.4807  2.2810
72515SOL     OW35154   6.116   6.826   4.927 -0.6166  0.0276 -0.1995
72515SOL    HW135155   6.104   6.854   5.018  0.0760 -0.7258  0.1386
72515SOL    HW235156   6.032   6.788   4.903  0.0698 -2.6242  1.1901
72516SOL     OW35157  11.336  12.308  11.576  0.5861 -0.1830  0.0257
72516SOL    HW135158  11.381  12.340  11.654  0.3723  1.2976 -0.4118
72516SOL    HW235159  11.314  12.217  11.596  2.0239 -0.3473  1.0036
72517SOL     OW35160   8.181   5.886   3.527 -1.2452 -0.0704  0.2167
72517SOL    HW135161   8.188   5.942   3.604 -0.6083 -0.2969  0.3337
72517SOL    HW235162   8.268   5.891   3.486 -1.3361 -0.5736 -0.0464
72518SOL     OW35163   1.582   6.244   5.919 -0.0626  0.3261 -0.1124
72518SOL    HW135164   1.656   6.197   5.958  0.7432 -0.2614 -2.1962
72518SOL    HW235165   1.615   6.332   5.903 -0.7246  0.8781  1.3908
72519SOL     OW35166  12.198  12.995   7.202 -0.3640 -0.4771 -0.4363
72519SOL    HW135167  12.195  13.043   7.284 -0.7214 -0.1744 -0.6244
72519SOL    HW235168  12.123  12.935   7.206  0.4019 -1.4321  0.0418
72520SOL     OW35169   5.804  10.823  11.221  0.1425 -0.3372 -0.1594
72520SOL    HW135170   5.740  10.866  11.164  1.2888 -1.2146 -2.2185
72520SOL    HW235171   5.888  10.858  11.193  0.6485  1.0332  2.7166
72521SOL     OW35172  14.059   2.147   8.187  0.0993 -0.0629  0.2759
72521SOL    HW135173  13.968   2.175   8.183  0.0802 -0.1203  0.3128
72521SOL    HW235174  14.061   2.063   8.140  0.1183 -0.0995  0.3422
72522SOL     OW35175   7.126   5.529  12.847 -0.0178 -0.8540  0.0846
72522SOL    HW135176   7.167   5.615  12.853  0.9285 -1.3132  0.4571
72522SOL    HW235177   7.177   5.483  12.780  0.8927 -1.8464  1.4021
72523SOL     OW35178  11.915  11.138  10.176 -0.1920 -0.6016  0.2271
72523SOL    HW135179  11.831  11.121  10.134 -0.2283 -2.4874  0.9800
72523SOL    HW235180  11.959  11.053  10.179  0.5865 -0.1878  2.3155
72524SOL     OW35181   3.087   8.558   0.092 -0.2912  0.4072 -0.3177
72524SOL    HW135182   3.074   8.650   0.069  1.0815  0.2892 -1.6759
72524SOL    HW235183   3.144   8.560   0.169 -2.0565  0.6984  1.0730
72525SOL     OW35184   9.535   1.185   2.111 -0.2150  0.0247 -0.1002
72525SOL    HW135185   9.531   1.223   2.023 -2.0333 -0.3079 -0.1848
72525SOL    HW235186   9.448   1.148   2.126  1.0749 -3.1392  0.4189
72526SOL     OW35187   2.284  12.431   2.556  0.2996  0.7008  0.5194
72526SOL    HW135188   2.301  12.508   2.610 -0.8643  0.3021  1.4908
72526SOL    HW235189   2.255  12.364   2.618 -1.4683  0.3363 -0.6400
72527SOL     OW35190  13.058   4.708   2.675 -0.2295  0.4808 -0.4807
72527SOL    HW135191  13.066   4.744   2.587  0.2489 -1.0902 -1.1209
72527SOL    HW235192  13.005   4.771   2.723  0.2212  1.7791 -1.6489
72528SOL     OW35193   6.881  10.391   3.957  0.3506  0.2428  0.4043
72528SOL    HW135194   6.907  10.300   3.975  1.7799  0.4623 -0.3892
72528SOL    HW235195   6.786  10.389   3.956  0.3596 -1.4778 -0.7086
72529SOL     OW35196   4.890  12.912  11.376 -0.0643  0.4819 -0.2154
72529SOL    HW135197   4.884  12.849  11.448  1.5732  2.7610  2.0976
72529SOL    HW235198   4.800  12.940  11.361 -0.2711  1.6480  2.6654
72530SOL     OW35199   4.444   2.336  11.086 -0.2176  0.2409 -0.5868
72530SOL    HW135200   4.467   2.317  10.994 -0.2457  1.0550 -0.7712
72530SOL    HW235201   4.351   2.316  11.092 -0.5418  1.5312 -1.1193
72531SOL     OW35202   0.470   5.688   3.130 -0.6645 -0.4377  0.2207
72531SOL    HW135203   0.564   5.692   3.143 -0.8878 -0.1710  2.0566
72531SOL    HW235204   0.440   5.778   3.139 -1.2665 -0.7336  1.4067
72532SOL     OW35205   3.540   3.233  10.447 -0.2568  0.0682 -0.0421
72532SOL    HW135206   3.635   3.230  10.436 -0.3780 -1.1303 -1.0693
72532SOL    HW235207   3.526   3.214  10.539  0.5033  0.2011  0.1056
72533SOL     OW35208   1.148  12.213   3.958  0.9811  0.4768  0.1780
72533SOL    HW135209   1.184  12.125   3.969 -1.1246 -0.3872  0.6347
72533SOL    HW235210   1.080  12.204   3.892  1.6495  2.0866 -0.7994
72534SOL     OW35211  13.461  10.022  13.045 -0.1559 -1.0475  0.0484
72534SOL    HW135212  13.402   9.951  13.019  0.0998 -1.7224  1.2732
72534SOL    HW235213  13.548   9.984  13.041  0.1043 -0.4108 -0.5379
72535SOL     OW35214   5.454   9.975   1.189 -0.0682 -0.5249 -0.1325
72535SOL    HW135215   5.397   9.955   1.263  1.5942 -1.5371  0.9197
72535SOL    HW235216   5.451  10.071   1.182  0.0587 -0.3764  1.5042
72536SOL     OW35217  11.945  13.294   8.918 -0.4706 -0.1833 -0.3210
72536SOL    HW135218  11.928  13.249   8.835  1.0149 -0.8192 -0.3183
72536SOL    HW235219  11.990  13.229   8.972 -1.3702  0.2378  0.9865
72537SOL     OW35220   7.047   3.075   0.879 -0.3967 -0.0842  0.0074
72537SOL    HW135221   7.079   3.003   0.824 -1.3395 -1.1761  0.8289
72537SOL    HW235222   6.953   3.058   0.888 -0.8686  1.8760 -0.6701
72538SOL     OW35223  14.034  13.036   4.594  0.2056  0.2393 -0.3798
72538SOL    HW135224  13.969  12.993   4.650 -0.7941  1.8786 -0.2268
72538SOL    HW235225  14.117  12.994   4.616 -0.5952 -1.0343  0.3321
72539SOL     OW35226   5.097   4.734   6.941  0.0796 -0.0810 -0.0710
72539SOL    HW135227   5.088   4.829   6.937  0.3510 -0.0104  0.7606
72539SOL    HW235228   5.098   4.714   7.034 -0.4750 -0.9557 -0.2415
72540SOL     OW35229  10.581  12.860   1.256  0.2186  0.3654  0.2814
72540SOL    HW135230  10.597  12.833   1.346  2.2890 -0.6743 -0.3411
72540SOL    HW235231  10.624  12.946   1.249  0.3696  0.2832  0.1938
72541SOL     OW35232   3.364   1.200   4.696 -0.2163 -0.1157  0.2547
72541SOL    HW135233   3.333   1.261   4.763  2.0725  0.5289  0.8121
72541SOL    HW235234   3.430   1.249   4.647  0.5609 -1.6441 -0.2955
72542SOL     OW35235  12.958   0.068   1.985  0.3104  0.0446 -0.2808
72542SOL    HW135236  13.034   0.062   1.928  1.5280  1.1519  1.1205
72542SOL    HW235237  12.898  -0.000   1.954  1.9760 -1.0326 -1.2685
72543SOL     OW35238   3.851   5.948   9.369 -0.0112 -0.3039  0.2892
72543SOL    HW135239   3.845   6.003   9.291  0.1281  0.5030  0.8344
72543SOL    HW235240   3.762   5.917   9.383 -0.4067  1.0508  0.8654
72544SOL     OW35241  10.594   8.995  12.215  0.3313  0.4909  0.3708
72544SOL    HW135242  10.514   8.978  12.265 -0.2952 -0.8708 -1.0074
72544SOL    HW235243  10.563   9.017  12.127  1.4495 -0.9134 -0.4212
72545SOL     OW35244   3.679   9.604   4.053  0.3318 -0.1473 -0.7488
72545SOL    HW135245   3.617   9.546   4.098  0.9365  0.1947  0.5888
72545SOL    HW235246   3.625   9.655   3.992 -0.8442  0.5716  0.8121
72546SOL     OW35247  10.171   7.910  12.391 -0.2349 -0.3330  0.1240
72546SOL    HW135248  10.143   7.844  12.327 -0.0548 -0.0956 -0.1979
72546SOL    HW235249  10.123   7.887  12.471 -1.2322 -0.0281 -0.3774
72547SOL     OW35250  12.375   4.861   3.217 -0.1788 -0.1528 -0.4017
72547SOL    HW135251  12.395   4.790   3.278 -0.1629 -0.2824 -0.5572
72547SOL    HW235252  12.459   4.880   3.174 -0.0729  0.2973 -0.0055
72548SOL     OW35253   9.323   0.886   0.876 -0.4260 -0.1924 -0.2967
72548SOL    HW135254   9.304   0.956   0.814 -1.7050 -0.3460 -0.1123
72548SOL    HW235255   9.328   0.807   0.823  1.7202  0.0736 -0.6043
72549SOL     OW35256   7.815   4.109   3.750  0.3437 -0.5832  0.7979
72549SOL    HW135257   7.892   4.073   3.706  0.2875 -0.5080  0.6370
72549SOL    HW235258   7.755   4.035   3.759  0.2311 -0.5331  0.4731
72550SOL     OW35259  13.330  12.794   9.290 -0.4634 -0.2938  0.1063
72550SOL    HW135260  13.410  12.836   9.260  0.7862 -1.6565  1.3917
72550SOL    HW235261  13.360  12.720   9.343 -2.5619  0.0019  1.8146
72551SOL     OW35262   7.901   1.244   5.502 -0.4612  0.3583 -0.0289
72551SOL    HW135263   7.917   1.153   5.527 -0.0629  0.1360 -1.0640
72551SOL    HW235264   7.873   1.240   5.411  0.8075  1.3729 -0.4912
72552SOL     OW35265   1.569  10.377   1.363  0.3612  0.0380 -0.0093
72552SOL    HW135266   1.567  10.423   1.279 -1.1410 -0.0230 -0.0395
72552SOL    HW235267   1.545  10.287   1.341  0.7485 -0.1592  0.3802
72553SOL     OW35268   3.335  10.202  12.175  0.5107  0.3796  0.5030
72553SOL    HW135269   3.349  10.294  12.152  1.3891 -0.0557 -0.8774
72553SOL    HW235270   3.249  10.181  12.139  0.2414  0.6924  0.9568
72554SOL     OW35271   2.214   7.551  10.736  0.2972 -0.2897 -0.6828
72554SOL    HW135272   2.195   7.551  10.643 -0.4915 -0.8067 -0.5278
72554SOL    HW235273   2.262   7.468  10.751  2.4646  0.8255 -1.0067
72555SOL     OW35274  11.055   1.894   6.634 -0.0251  0.2775  0.3930
72555SOL    HW135275  11.068   1.800   6.646  0.4773 -0.0582 -2.1802
72555SOL    HW235276  11.141   1.929   6.613 -0.7464  0.6116 -2.3315
72556SOL     OW35277   5.460  12.990  10.253 -0.6920 -0.2047 -0.4575
72556SOL    HW135278   5.535  12.954  10.301  0.8279  1.1174 -1.7403
72556SOL    HW235279   5.395  13.010  10.321  0.3439 -0.8273  0.7468
72557SOL     OW35280   3.956   9.182   8.122 -0.7572  0.5242  0.1541
72557SOL    HW135281   4.031   9.197   8.065 -0.4909 -1.1956  0.0084
72557SOL    HW235282   3.889   9.145   8.065 -0.1985 -2.0220  1.0104
72558SOL     OW35283   8.173   0.611  11.022  0.4262 -0.2777 -0.1386
72558SOL    HW135284   8.158   0.700  10.991  0.0671 -0.5600 -0.7988
72558SOL    HW235285   8.112   0.557  10.971  1.1459 -0.9938 -0.2548
72559SOL     OW35286  13.124  11.397  10.873  0.3305 -0.1976 -0.0588
72559SOL    HW135287  13.110  11.418  10.965 -0.5603 -1.5831  0.1497
72559SOL    HW235288  13.144  11.303  10.872 -0.9176 -0.4930 -1.3686
72560SOL     OW35289   1.003  13.148  13.829  0.2413  0.6108 -0.2756
72560SOL    HW135290   0.929  13.205  13.851 -1.3218 -1.7544  1.0908
72560SOL    HW235291   1.073  13.208  13.805 -0.9413  3.1533  2.0397
72561SOL     OW35292   5.875  10.188   1.394  0.9703  0.0843  0.1223
72561SOL    HW135293   5.798  10.135   1.411 -0.1530  1.4035 -0.6536
72561SOL    HW235294   5.894  10.173   1.301 -0.4023  2.2428 -0.5916
72562SOL     OW35295   4.982  12.028  11.792  0.1065 -0.6547  0.0803
72562SOL    HW135296   4.893  12.055  11.770  0.2771 -0.4062 -0.3117
72562SOL    HW235297   5.030  12.110  11.805  0.2940 -0.7855  0.2277
72563SOL     OW35298   3.119  10.010   2.005 -0.3439 -0.0386  0.0957
72563SOL    HW135299   3.185   9.949   1.972 -0.8771 -0.4523 -0.2151
72563SOL    HW235300   3.157  10.096   1.990  0.6009 -0.2829  0.9188
72564SOL     OW35301   0.125   0.232   9.192 -0.0480 -0.2584  0.4761
72564SOL    HW135302   0.069   0.162   9.159 -2.0446  0.5609  1.8987
72564SOL    HW235303   0.082   0.261   9.272  0.4187  2.9046 -0.2796
72565SOL     OW35304   8.406  10.640   5.850 -0.6145  0.1700  0.0389
72565SOL    HW135305   8.349  10.627   5.925 -1.6072  1.1975 -0.5091
72565SOL    HW235306   8.453  10.557   5.840 -1.3533 -0.3789  1.0492
72566SOL     OW35307  10.688   0.781   0.790  0.6536  0.1126  0.6350
72566SOL    HW135308  10.610   0.834   0.769  1.0517 -0.5550 -3.3993
72566SOL    HW235309  10.758   0.846   0.802  0.1688  0.6183  0.7772
72567SOL     OW35310   1.509   8.072  12.889  0.5029 -0.8208  0.4315
72567SOL    HW135311   1.514   8.166  12.874 -2.6553 -0.7246 -0.7095
72567SOL    HW235312   1.427   8.058  12.936 -0.3309 -3.1211 -1.4513
72568SOL     OW35313   4.228   3.388   2.083  0.1737  0.2299 -0.0969
72568SOL    HW135314   4.202   3.479   2.101  0.4214  0.3437 -0.3061
72568SOL    HW235315   4.183   3.366   2.001  1.4768  0.7525 -0.9805
72569SOL     OW35316   3.441   0.380   3.065  0.2433  0.2322 -0.0619
72569SOL    HW135317   3.527   0.343   3.084 -1.0403 -2.0251  1.9205
72569SOL    HW235318   3.379   0.311   3.088 -2.1421  1.7554 -1.4332
72570SOL     OW35319  11.577  13.419   3.016 -0.1473  0.1671 -0.3058
72570SOL    HW135320  11.616  13.505   3.031  1.3937 -0.5779  0.1495
72570SOL    HW235321  11.552  13.388   3.103  0.9997 -0.5867 -0.2175
72571SOL     OW35322   1.694  11.096  13.241  0.0744 -0.5307  0.6639
72571SOL    HW135323   1.762  11.141  13.191 -0.5533 -0.3776 -0.0650
72571SOL    HW235324   1.676  11.155  13.314  0.2146 -0.2323  0.4601
72572SOL     OW35325   0.663   8.183   8.672  0.2825 -0.3687 -0.5459
72572SOL    HW135326   0.645   8.101   8.718  2.0455 -1.2372 -1.3061
72572SOL    HW235327   0.746   8.214   8.709 -0.3251  1.0756 -0.3059
72573SOL     OW35328   3.710   7.031   4.619 -0.0099 -0.2253  0.2377
72573SOL    HW135329   3.661   6.981   4.553 -0.9801 -1.4444  1.8004
72573SOL    HW235330   3.766   6.966   4.661  0.9958  0.6471  0.2868
72574SOL     OW35331   4.173   6.605   1.557  0.6634 -0.4019 -0.2992
72574SOL    HW135332   4.187   6.683   1.611 -0.1236  0.7348 -1.6724
72574SOL    HW235333   4.121   6.547   1.612  2.0284 -0.3947  1.0856
72575SOL     OW35334  10.548   5.925  13.770  0.2270  0.1741  0.6201
72575SOL    HW135335  10.576   5.866  13.700 -0.9431 -1.5852  1.5802
72575SOL    HW235336  10.609   5.999  13.764  1.8246 -1.1595 -0.5540
72576SOL     OW35337   1.913  13.314   2.198 -0.1788 -0.2553  0.2268
72576SOL    HW135338   1.827  13.277   2.219 -0.4711  1.6607  2.8349
72576SOL    HW235339   1.976  13.248   2.228 -0.6981 -0.7258  0.2925
72577SOL     OW35340  11.001   5.761  12.625 -0.2667 -0.7957 -0.4849
72577SOL    HW135341  11.090   5.796  12.618  0.2985 -1.3275  2.5067
72577SOL    HW235342  10.956   5.822  12.683 -1.3859 -1.3451 -0.7546
72578SOL     OW35343   0.398   9.012   5.699 -0.6879 -0.0274  0.0890
72578SOL    HW135344   0.461   8.986   5.765  0.3197  1.7785 -0.1129
72578SOL    HW235345   0.363   8.929   5.666 -1.4277 -1.0011  3.0028
72579SOL     OW35346  13.851   8.002   6.886  0.7807 -0.0310  0.2482
72579SOL    HW135347  13.840   7.907   6.882  2.5914 -0.2443 -0.7640
72579SOL    HW235348  13.794   8.030   6.958 -0.6645 -1.7248 -0.1784
72580SOL     OW35349  12.605  12.276   6.124  0.8334  0.2640 -0.0093
72580SOL    HW135350  12.581  12.202   6.068  0.7786  0.5696 -0.3928
72580SOL    HW235351  12.694  12.298   6.098  0.7954  0.4269 -0.0046
72581SOL     OW35352   0.150   8.239   1.461 -0.0371  0.5459  0.6189
72581SOL    HW135353   0.098   8.159   1.467  1.5532 -0.5589  0.3582
72581SOL    HW235354   0.090   8.303   1.423 -1.2334 -0.6311  0.4258
72582SOL     OW35355  11.419  13.356   6.428  0.4688 -0.2460  0.3818
72582SOL    HW135356  11.327  13.333   6.441  0.0121  2.1752  1.9727
72582SOL    HW235357  11.461  13.335   6.511  1.4731 -1.6218 -0.4313
72583SOL     OW35358   1.951   7.096   2.459 -0.0337  0.3961  1.2282
72583SOL    HW135359   1.890   7.158   2.498 -1.0117  1.0109 -1.1308
72583SOL    HW235360   2.038   7.132   2.479 -0.5643  2.7070 -0.2128
72584SOL     OW35361   7.227  12.416  10.598  0.5218  0.2272  0.4461
72584SOL    HW135362   7.189  12.460  10.674  1.5085  1.2053  0.3970
72584SOL    HW235363   7.311  12.382  10.631  0.0860 -1.0441  0.2986
72585SOL     OW35364   5.380   7.430   6.033  0.2658  0.5970 -0.3653
72585SOL    HW135365   5.444   7.453   6.100 -0.1656  0.9205 -0.0625
72585SOL    HW235366   5.299   7.472   6.061 -0.1970 -0.1771 -0.5094
72586SOL     OW35367   7.583  11.361   1.859 -0.7717 -0.1622  0.1185
72586SOL    HW135368   7.530  11.283   1.876 -1.2025  0.2549  0.7273
72586SOL    HW235369   7.629  11.377   1.942 -0.2969 -0.0574 -0.1576
72587SOL     OW35370   1.823  10.394   4.405 -0.5417  0.0721 -0.0835
72587SOL    HW135371   1.893  10.333   4.380  1.4025  1.0509  2.4864
72587SOL    HW235372   1.743  10.341   4.404  0.6369 -1.8106 -0.4939
72588SOL     OW35373   9.763  11.924   5.857 -0.3218 -0.2429  0.3725
72588SOL    HW135374   9.819  11.999   5.876 -0.8242 -0.1144  1.4006
72588SOL    HW235375   9.822  11.857   5.823  0.2036  0.4450 -0.0946
72589SOL     OW35376   3.625   0.833   3.500  0.5076 -0.2285  0.3461
72589SOL    HW135377   3.623   0.863   3.591 -2.0676  1.6312 -0.2029
72589SOL    HW235378   3.640   0.913   3.449  1.3090 -1.1401 -0.9093
72590SOL     OW35379   3.254  13.651   5.990  0.3202 -0.2466 -0.5177
72590SOL    HW135380   3.314  13.643   5.915  2.6379  1.4998  1.0226
72590SOL    HW235381   3.259  13.566   6.034  1.6141 -0.1794 -0.4980
72591SOL     OW35382  11.829  12.690  11.677  0.2454 -0.3045 -0.9819
72591SOL    HW135383  11.870  12.707  11.762  0.5746  0.5462 -1.2900
72591SOL    HW235384  11.758  12.629  11.696 -0.4238  0.7485  0.0942
72592SOL     OW35385   3.957   5.178   5.712  0.0689 -0.5929 -0.4760
72592SOL    HW135386   3.950   5.086   5.685  1.1029 -0.8954  0.2223
72592SOL    HW235387   3.874   5.217   5.685  0.7522 -0.9677 -3.5639
72593SOL     OW35388   4.547   4.554   7.247  0.3576  0.0453  0.9671
72593SOL    HW135389   4.575   4.494   7.178 -0.1343 -0.4977  1.2268
72593SOL    HW235390   4.464   4.517   7.278 -0.5746  1.5181  0.3147
72594SOL     OW35391   9.123   9.720   8.436  0.0414 -0.2749 -0.3282
72594SOL    HW135392   9.033   9.688   8.426  0.1338 -0.7355  0.3094
72594SOL    HW235393   9.124   9.763   8.521 -0.0080  1.2089 -1.0499
72595SOL     OW35394   0.201   8.113   9.416  0.3908 -0.2593 -0.1300
72595SOL    HW135395   0.237   8.196   9.384  0.5493  0.0539  0.8223
72595SOL    HW235396   0.130   8.139   9.475 -0.1347 -0.8282 -0.5090
72596SOL     OW35397   2.571   6.617   6.647  0.1832 -0.6096 -0.1067
72596SOL    HW135398   2.608   6.675   6.580 -0.1544 -0.4752 -0.1752
72596SOL    HW235399   2.520   6.553   6.598 -0.9261  0.1049  0.0773
72597SOL     OW35400   7.534  12.700  12.802 -0.4693 -0.3515  0.0369
72597SOL    HW135401   7.485  12.625  12.835 -0.3063 -0.7956 -0.7077
72597SOL    HW235402   7.469  12.752  12.754 -0.6620  0.1859  0.8664
72598SOL     OW35403   9.539  12.682   0.288 -0.3217 -0.9374 -0.0546
72598SOL    HW135404   9.553  12.613   0.353 -0.2383 -0.1541  0.7940
72598SOL    HW235405   9.471  12.738   0.326  1.3485  0.8543  0.5162
72599SOL     OW35406  13.205   0.452   3.229  0.4818 -0.0405 -0.0351
72599SOL    HW135407  13.164   0.528   3.188  2.6707  0.8129 -0.8054
72599SOL    HW235408  13.194   0.381   3.166 -0.2611  0.0185  0.0229
72600SOL     OW35409   5.383   3.213   4.388  0.2499  0.6329  0.1691
72600SOL    HW135410   5.363   3.265   4.465 -0.3635  0.0385  0.4275
72600SOL    HW235411   5.433   3.138   4.422  1.7413  1.3909 -0.2890
72601SOL     OW35412   4.032   5.486  11.786  0.1511 -0.2264  0.2030
72601SOL    HW135413   4.100   5.420  11.773 -1.5054 -1.9638  0.0040
72601SOL    HW235414   4.008   5.514  11.697 -0.3566 -0.6578  0.1997
72602SOL     OW35415   0.714   2.378   8.543 -0.2241 -0.0421  0.2524
72602SOL    HW135416   0.647   2.315   8.571 -1.2577 -0.2275 -2.4123
72602SOL    HW235417   0.724   2.363   8.449  1.2012  2.2429 -0.0387
72603SOL     OW35418   5.209   1.800   2.395 -0.0262 -0.3557 -0.4289
72603SOL    HW135419   5.115   1.792   2.411 -0.3315  0.9680 -1.4017
72603SOL    HW235420   5.248   1.729   2.445 -1.3165  0.5920  2.0836
72604SOL     OW35421  11.880   5.965   1.710  0.4087 -0.9045 -0.2355
72604SOL    HW135422  11.919   5.883   1.680 -0.1572 -1.1011 -0.4628
72604SOL    HW235423  11.834   5.941   1.791 -1.5764 -1.3246 -1.4081
72605SOL     OW35424   2.181  12.581   5.650  0.2199 -0.2934 -0.2530
72605SOL    HW135425   2.271  12.615   5.656  0.1030 -0.1839  1.5068
72605SOL    HW235426   2.188  12.491   5.681 -0.3302 -0.1664  0.2477
72606SOL     OW35427   6.142   1.125  11.254  0.3254  0.2043  0.0095
72606SOL    HW135428   6.122   1.040  11.292 -1.6199  0.2029 -0.8750
72606SOL    HW235429   6.232   1.117  11.223  0.7381 -0.9473  1.4311
72607SOL     OW35430   9.179  12.144  11.946  0.1360 -0.4441 -0.1529
72607SOL    HW135431   9.265  12.123  11.909 -0.1287 -0.3612 -0.8134
72607SOL    HW235432   9.127  12.174  11.872 -0.0394  0.8724  0.4719
72608SOL     OW35433   1.206   9.216   7.148 -0.0735  0.1118 -0.3022
72608SOL    HW135434   1.200   9.282   7.217 -0.7412  0.6141 -0.8192
72608SOL    HW235435   1.257   9.145   7.187 -1.0594  0.0621  0.9661
72609SOL     OW35436   9.789   1.386   4.793 -0.3791 -0.0724  0.5621
72609SOL    HW135437   9.819   1.324   4.726 -1.4320 -0.5371  0.4962
72609SOL    HW235438   9.796   1.337   4.875  2.3550  0.9830  1.0775
72610SOL     OW35439   2.603   9.448   8.463  0.2682 -0.0393  0.5913
72610SOL    HW135440   2.582   9.467   8.554 -0.6481 -1.9364  0.8368
72610SOL    HW235441   2.536   9.494   8.413 -0.1959 -0.2664  0.9877
72611SOL     OW35442  10.522   4.658   9.124  0.4993  0.3601  0.0144
72611SOL    HW135443  10.514   4.569   9.157 -0.2088  0.8773  1.3168
72611SOL    HW235444  10.523   4.648   9.029  0.1558 -1.0092  0.1279
72612SOL     OW35445   4.006   2.701   4.611 -0.3149  0.3518  0.4743
72612SOL    HW135446   3.958   2.766   4.663 -1.8209  0.7913 -1.3720
72612SOL    HW235447   3.949   2.681   4.538  1.7506 -0.1858 -1.0984
72613SOL     OW35448   3.693   2.276   6.060 -0.1350  0.4228 -0.4603
72613SOL    HW135449   3.725   2.356   6.101 -0.0657  0.9256 -1.4646
72613SOL    HW235450   3.619   2.305   6.006 -1.0824 -0.4264  0.3384
72614SOL     OW35451   7.943   1.370  10.101 -0.1140  0.3127  0.0340
72614SOL    HW135452   8.023   1.325  10.074  1.5583  3.0259  0.0740
72614SOL    HW235453   7.936   1.444  10.041 -1.8528  0.9147  0.9128
72615SOL     OW35454   4.241   7.153   3.316 -0.4999 -0.1929  0.1447
72615SOL    HW135455   4.261   7.061   3.335  2.0320  0.5125  1.5508
72615SOL    HW235456   4.306   7.178   3.250 -0.7999  0.7139  0.1864
72616SOL     OW35457  12.760   2.569   9.044 -0.7521 -1.0259  0.2327
72616SOL    HW135458  12.696   2.620   8.994 -1.1708 -1.9687 -0.2150
72616SOL    HW235459  12.771   2.618   9.126 -0.6625  0.1038 -0.4389
72617SOL     OW35460   0.740   0.310   7.597 -0.1991  0.1225  0.0602
72617SOL    HW135461   0.752   0.215   7.591 -3.0005 -0.3452  0.3549
72617SOL    HW235462   0.735   0.328   7.690  2.9284  1.0622  0.1515
72618SOL     OW35463  11.730   7.286   1.201 -0.0612 -0.1152 -0.1444
72618SOL    HW135464  11.646   7.303   1.243 -0.8622 -1.3829 -1.1382
72618SOL    HW235465  11.728   7.192   1.182  1.7360 -0.2335  0.1044
72619SOL     OW35466   3.446   5.688  11.040  0.1524  0.0590 -0.4810
72619SOL    HW135467   3.447   5.659  10.949 -1.3049 -0.6480 -0.3131
72619SOL    HW235468   3.529   5.733  11.053  0.7118 -0.5112 -1.9365
72620SOL     OW35469   7.904   0.723  11.864 -0.5683  0.1942  0.3834
72620SOL    HW135470   7.915   0.775  11.944 -0.7993  1.9219 -0.6559
72620SOL    HW235471   7.811   0.701  11.861 -0.5215 -0.0475  0.6842
72621SOL     OW35472   5.442   6.638   6.866  0.4692  0.1948  0.3803
72621SOL    HW135473   5.529   6.651   6.829  0.0837 -0.9083 -0.9699
72621SOL    HW235474   5.387   6.703   6.823 -0.1038 -1.4713 -1.5267
72622SOL     OW35475  13.792   4.246  13.052  0.1458  0.3531 -0.0961
72622SOL    HW135476  13.828   4.192  13.122 -0.6971  0.6956  0.6135
72622SOL    HW235477  13.710   4.280  13.087 -0.3779  0.3887 -1.3210
72623SOL     OW35478  13.668   6.784  11.437 -0.6326 -0.4396  0.2524
72623SOL    HW135479  13.608   6.711  11.421  0.4507 -1.5859  1.1660
72623SOL    HW235480  13.634   6.827  11.516  0.0830 -1.5316  1.2013
72624SOL     OW35481   9.325   0.215   5.162  0.2344  0.3118 -0.3428
72624SOL    HW135482   9.303   0.287   5.221  1.6106 -0.4093  1.1359
72624SOL    HW235483   9.360   0.258   5.083 -1.0157  1.2784 -0.3899
72625SOL     OW35484   6.547   1.973  10.242  0.2922 -0.3172 -0.3342
72625SOL    HW135485   6.474   1.946  10.188 -0.4220 -1.0738  0.9464
72625SOL    HW235486   6.521   2.057  10.278  0.5777 -0.0231 -0.8037
72626SOL     OW35487   0.203   1.122  13.576  0.8374  0.6360  0.3614
72626SOL    HW135488   0.291   1.145  13.549  0.1208  1.2795 -1.5451
72626SOL    HW235489   0.187   1.036  13.536  1.3265 -0.5534  2.5103
72627SOL     OW35490  12.925  10.881   2.126  0.3771  0.1592  0.0372
72627SOL    HW135491  12.924  10.793   2.163 -2.0624  0.3176  0.5182
72627SOL    HW235492  12.973  10.934   2.190  0.9656 -0.6028  0.2383
72628SOL     OW35493   7.959  11.122  13.603 -0.3526 -0.0988 -0.1251
72628SOL    HW135494   8.000  11.055  13.547 -2.0580 -1.8605  0.6269
72628SOL    HW235495   7.904  11.172  13.543 -0.9796 -0.9794 -0.3052
72629SOL     OW35496   5.164   9.954   4.397 -0.0368 -0.0764  0.1727
72629SOL    HW135497   5.208  10.010   4.333  0.2753 -1.3326 -0.7639
72629SOL    HW235498   5.081   9.930   4.355 -0.5344  0.3196  0.9029
72630SOL     OW35499  11.061   6.057   0.272  0.5041  0.2379 -0.3505
72630SOL    HW135500  11.005   6.134   0.261  0.9120  0.2736 -2.6669
72630SOL    HW235501  11.046   6.005   0.193  3.4070  0.0618 -0.9088
72631SOL     OW35502  10.778   9.195  12.957 -0.0187  0.1192  0.2293
72631SOL    HW135503  10.747   9.126  13.015 -0.5284 -0.2252 -0.4364
72631SOL    HW235504  10.864   9.165  12.928  0.0582  0.0963  0.4774
72632SOL     OW35505   2.191   2.123   9.070 -0.0492  0.6901 -0.0458
72632SOL    HW135506   2.199   2.196   9.009  0.9480  1.0404  0.4725
72632SOL    HW235507   2.242   2.150   9.146  0.6663 -0.6984  0.0016
72633SOL     OW35508   9.989  12.318  11.723  0.2880 -0.0969 -0.4042
72633SOL    HW135509  10.084  12.319  11.724  0.2900  0.0604 -0.8307
72633SOL    HW235510   9.966  12.288  11.635 -0.0459 -1.2714  0.0576
72634SOL     OW35511   4.876   0.112   7.554  0.1009 -0.0546  0.6407
72634SOL    HW135512   4.790   0.086   7.519 -0.5045  1.3574  0.9786
72634SOL    HW235513   4.854   0.168   7.629  1.3352  0.1600  0.8489
72635SOL     OW35514  10.587   6.861  13.123 -0.2763  0.2812 -0.4553
72635SOL    HW135515  10.577   6.792  13.057 -0.5896 -0.9532  0.8424
72635SOL    HW235516  10.590   6.815  13.206  0.0066  1.8175  0.4283
72636SOL     OW35517   6.307   1.337   1.743 -0.2752 -0.4159 -0.6936
72636SOL    HW135518   6.303   1.289   1.660  0.3679 -1.4056 -0.1599
72636SOL    HW235519   6.369   1.408   1.726 -1.1291  0.1815 -1.4432
72637SOL     OW35520   3.328  10.144  10.809  0.0284  0.0583  0.1163
72637SOL    HW135521   3.293  10.225  10.846  0.7066  0.6381 -0.4845
72637SOL    HW235522   3.258  10.080  10.823 -0.1657  0.5220  1.3793
72638SOL     OW35523   4.250   6.133  12.136  0.1056 -0.3439 -0.7066
72638SOL    HW135524   4.282   6.223  12.143 -0.0239 -0.3281 -0.2552
72638SOL    HW235525   4.321   6.085  12.093  0.8888 -0.3726  0.5459
72639SOL     OW35526   7.039   3.114   5.120  0.1621  0.2161 -0.0664
72639SOL    HW135527   7.005   3.085   5.036  0.4039 -0.3135  0.0108
72639SOL    HW235528   7.084   3.037   5.155 -1.6891 -0.2376  1.4864
72640SOL     OW35529  11.965  13.429  12.835 -0.5774  0.4082  0.4731
72640SOL    HW135530  11.985  13.342  12.867  0.6042  0.8923  1.1309
72640SOL    HW235531  12.009  13.488  12.896 -1.8523  1.4945  0.3953
72641SOL     OW35532   1.290   8.549   4.130  0.0044 -0.2014  0.4743
72641SOL    HW135533   1.311   8.572   4.221  2.4543  1.6021 -0.4188
72641SOL    HW235534   1.311   8.456   4.124  0.6783 -0.1398  1.5438
72642SOL     OW35535  10.295   4.362  11.461  0.0950  0.0713 -0.4128
72642SOL    HW135536  10.328   4.298  11.398 -0.5001 -1.1914  0.5172
72642SOL    HW235537  10.322   4.329  11.546 -1.9803 -0.0583  0.2423
72643SOL     OW35538   1.100  13.453   9.761  0.0457  0.0300 -0.8664
72643SOL    HW135539   1.121  13.451   9.854 -1.1672 -3.2190 -0.5217
72643SOL    HW235540   1.067  13.541   9.746  1.6463  1.1149  1.3947
72644SOL     OW35541   2.359   3.308   3.704  0.3411  0.0229 -0.0532
72644SOL    HW135542   2.316   3.232   3.664  0.5934  0.4089 -1.0830
72644SOL    HW235543   2.435   3.325   3.649 -1.1320  2.6460 -1.4954
72645SOL     OW35544  13.934   5.568   4.661 -0.0676 -0.3245  0.2548
72645SOL    HW135545  13.969   5.657   4.653 -1.6114  0.2796 -0.1244
72645SOL    HW235546  13.972   5.521   4.587 -1.8820  0.9846 -1.6338
72646SOL     OW35547   9.041   5.196   2.876 -0.1885  0.4393 -0.0447
72646SOL    HW135548   9.029   5.216   2.783  0.7231 -1.5969 -0.6563
72646SOL    HW235549   9.134   5.175   2.884  0.0865  2.0671  1.6773
72647SOL     OW35550   8.543  11.717   1.438 -0.2094  0.1340 -0.2079
72647SOL    HW135551   8.462  11.667   1.450 -0.2006 -0.3549 -1.8927
72647SOL    HW235552   8.522  11.804   1.471 -1.3681 -0.0338 -0.4360
72648SOL     OW35553  13.321   9.652   5.868  0.3679 -0.2371 -0.4270
72648SOL    HW135554  13.383   9.721   5.894  0.2142 -0.5986  1.0006
72648SOL    HW235555  13.256   9.651   5.939 -0.6334 -0.6444 -1.3323
72649SOL     OW35556   2.096   8.810   3.491  0.3242  0.5206 -0.0480
72649SOL    HW135557   2.111   8.727   3.446  0.3244 -0.3266  1.4490
72649SOL    HW235558   2.029   8.854   3.439 -0.7669 -1.0898 -0.0556
72650SOL     OW35559   9.512   2.877   0.716 -0.1372  0.2946 -0.1092
72650SOL    HW135560   9.500   2.958   0.666  0.2322  0.6662  0.3936
72650SOL    HW235561   9.446   2.818   0.681  0.5348  0.3201 -1.5069
72651SOL     OW35562   7.632   4.831  11.846  0.4515 -0.4645  0.0497
72651SOL    HW135563   7.660   4.846  11.756 -0.3351  0.4568 -0.0584
72651SOL    HW235564   7.703   4.781  11.886  0.8107 -0.8862 -1.0789
72652SOL     OW35565  10.045   7.068   2.980  0.6773  0.1778 -0.2961
72652SOL    HW135566  10.043   6.973   2.989  2.7160  0.0834 -0.2318
72652SOL    HW235567  10.112   7.096   3.042  0.0775  1.6759 -0.2809
72653SOL     OW35568   1.739  13.435   7.149  0.1391 -0.9397 -0.1410
72653SOL    HW135569   1.687  13.366   7.107  0.1578 -0.4513 -0.9911
72653SOL    HW235570   1.686  13.514   7.141  1.5009 -0.1556 -2.1772
72654SOL     OW35571  13.563   8.639   4.206 -0.5115 -0.1486  0.1923
72654SOL    HW135572  13.596   8.553   4.179  1.5165  0.2706  1.1020
72654SOL    HW235573  13.576   8.695   4.130 -0.1994 -0.2648  0.1583
72655SOL     OW35574   4.927   0.409   2.060 -0.2965  0.4030 -0.0361
72655SOL    HW135575   4.867   0.375   1.993 -0.2274  0.1692  0.0179
72655SOL    HW235576   4.985   0.335   2.079 -1.0471  0.0808  1.1343
72656SOL     OW35577   2.319   5.864   0.936 -0.7135  0.1929  0.0945
72656SOL    HW135578   2.249   5.827   0.990 -1.9446  1.2420 -0.7143
72656SOL    HW235579   2.296   5.956   0.928 -0.5068  0.1052 -2.0910
72657SOL     OW35580   7.724   5.422   3.043  0.1897 -0.6049  0.5816
72657SOL    HW135581   7.805   5.459   3.008 -1.0351  0.4100 -1.3431
72657SOL    HW235582   7.654   5.470   2.999 -1.4887 -2.0671  1.4932
72658SOL     OW35583   1.285   3.782   9.341 -0.5652  0.2751  0.3022
72658SOL    HW135584   1.215   3.846   9.353 -0.3413  0.3499  1.2551
72658SOL    HW235585   1.364   3.836   9.329 -0.6401  0.1910 -0.6979
72659SOL     OW35586   0.505   1.389   3.964  1.0126  0.6664  0.3581
72659SOL    HW135587   0.479   1.469   3.917  2.0146  0.9576  0.2740
72659SOL    HW235588   0.541   1.421   4.047 -0.2661  0.1855  1.1132
72660SOL     OW35589   8.266   4.058  10.685  0.2380  0.2494 -0.6854
72660SOL    HW135590   8.295   4.092  10.601 -0.5349  1.8553 -0.3493
72660SOL    HW235591   8.274   3.963  10.677 -0.3683  0.3309 -2.7562
72661SOL     OW35592  12.743   3.927  13.319  0.8942 -0.5228 -0.3086
72661SOL    HW135593  12.698   4.000  13.361 -1.4075 -0.7227 -2.1449
72661SOL    HW235594  12.764   3.867  13.390 -0.4188  0.3219  0.8429
72662SOL     OW35595   1.304   0.675   4.499 -0.0997 -0.3803  0.1787
72662SOL    HW135596   1.290   0.625   4.419 -0.5365  1.0520 -0.6628
72662SOL    HW235597   1.395   0.656   4.524  0.1530 -0.5719 -0.8478
72663SOL     OW35598   3.668   7.843   5.193  0.6107  0.3812 -0.6966
72663SOL    HW135599   3.749   7.819   5.238 -0.1934 -0.3495  0.4061
72663SOL    HW235600   3.686   7.929   5.155  0.9213  1.6532  2.1178
72664SOL     OW35601  11.945  12.205   3.714  0.3199 -0.0165  0.1437
72664SOL    HW135602  12.040  12.201   3.726  0.8732  1.3051 -2.9248
72664SOL    HW235603  11.928  12.295   3.687 -1.9675  0.0056  1.3868
72665SOL     OW35604   6.039  12.468   0.123 -0.2067 -0.3346  0.2020
72665SOL    HW135605   6.041  12.383   0.079  0.4202 -0.3318  0.2133
72665SOL    HW235606   6.034  12.446   0.216  0.7484 -0.3827  0.2559
72666SOL     OW35607   7.622   6.982   8.724 -0.0000  0.5226  0.1120
72666SOL    HW135608   7.609   7.075   8.743  2.0822  0.6958  0.9181
72666SOL    HW235609   7.612   6.939   8.809  2.2882  0.4416  0.4006
72667SOL     OW35610   0.261  10.155   9.779  0.5859 -0.5875  0.4017
72667SOL    HW135611   0.295  10.066   9.787 -3.3119 -2.3149 -0.0125
72667SOL    HW235612   0.189  10.159   9.843  0.7140  2.3655  0.4982
72668SOL     OW35613   4.517   7.189   3.184  0.2317 -0.0404 -0.2155
72668SOL    HW135614   4.489   7.280   3.179  0.4887  0.0118 -0.7863
72668SOL    HW235615   4.595   7.184   3.129 -0.9048 -1.0079 -1.8801
72669SOL     OW35616   3.005  12.824   6.428 -0.1744 -0.1387 -0.2709
72669SOL    HW135617   3.012  12.899   6.368  0.0417  0.0452 -0.0164
72669SOL    HW235618   2.912  12.823   6.453 -0.0755  0.3682  0.1352
72670SOL     OW35619   0.721   6.050   6.488 -0.8133 -0.1286  0.3367
72670SOL    HW135620   0.815   6.065   6.484 -0.7613 -0.5844 -0.5498
72670SOL    HW235621   0.684   6.135   6.508 -0.0695 -0.4797  3.7627
72671SOL     OW35622   9.353   0.445   3.652  0.4281 -0.2572 -0.0311
72671SOL    HW135623   9.357   0.429   3.558  0.8500 -2.8443  0.3521
72671SOL    HW235624   9.422   0.510   3.668  1.8591 -1.4022 -1.2531
72672SOL     OW35625   4.627   8.025   4.188 -0.0969  0.0266 -0.2082
72672SOL    HW135626   4.577   8.080   4.128  0.1107 -0.9690 -1.3208
72672SOL    HW235627   4.719   8.046   4.168 -0.0165  0.8670  0.9050
72673SOL     OW35628  12.090   1.451   8.091 -0.4309  0.2861 -0.0608
72673SOL    HW135629  12.039   1.370   8.094 -0.8128  0.5411  0.5493
72673SOL    HW235630  12.064   1.499   8.169 -0.7124  1.3028 -0.7477
72674SOL     OW35631  10.402   1.783   7.005  0.2225  0.5829 -0.1467
72674SOL    HW135632  10.385   1.877   6.994 -1.1333  0.4004  0.1590
72674SOL    HW235633  10.359   1.761   7.087  0.9478 -0.2184  0.0257
72675SOL     OW35634   9.416   7.365   4.786  0.5875  0.8064 -0.1281
72675SOL    HW135635   9.429   7.440   4.843 -2.0573 -0.0027  1.7189
72675SOL    HW235636   9.471   7.296   4.824  0.1726  0.7705  0.4166
72676SOL     OW35637   6.683  10.055   6.662  0.2371  0.2909  0.4324
72676SOL    HW135638   6.640  10.135   6.691  0.0155  0.0461  0.7785
72676SOL    HW235639   6.657  10.046   6.570  1.6135  1.5078 -0.1056
72677SOL     OW35640   4.375   1.808  12.989  0.0117  0.0531  0.1730
72677SOL    HW135641   4.306   1.780  13.050  0.2207 -2.1406 -0.4935
72677SOL    HW235642   4.444   1.743  13.000  0.5469  0.2760 -1.5366
72678SOL     OW35643   6.012   9.602   1.125  0.3355  0.1934  0.3188
72678SOL    HW135644   5.919   9.626   1.120  0.4008  0.3443 -0.2956
72678SOL    HW235645   6.056   9.663   1.065  0.8582  0.2445  0.7497
72679SOL     OW35646   5.550  12.433   7.420 -0.2064 -0.3198 -0.1754
72679SOL    HW135647   5.550  12.338   7.423 -0.9391 -0.3557 -1.0056
72679SOL    HW235648   5.473  12.456   7.369 -0.3498  0.7420  0.4697
72680SOL     OW35649   2.238  14.067   7.127  0.9968  0.0875 -0.1743
72680SOL    HW135650   2.162  14.011   7.114 -0.0782  1.6181 -0.7408
72680SOL    HW235651   2.303  14.035   7.065 -0.0528  0.2443 -1.3882
72681SOL     OW35652   8.947  10.773   4.192  0.1051 -0.3190 -0.3145
72681SOL    HW135653   8.919  10.733   4.274 -0.9621 -0.8682 -0.9313
72681SOL    HW235654   9.017  10.717   4.160  0.1134 -0.4422 -0.0785
72682SOL     OW35655  11.572   7.003   7.165  0.6355  0.0777  0.1748
72682SOL    HW135656  11.627   6.925   7.155 -0.0512 -0.2469 -1.2970
72682SOL    HW235657  11.522   7.008   7.083  1.8868  3.0122 -0.5501
72683SOL     OW35658   5.165   1.909   1.034 -0.1523  0.1122 -0.0030
72683SOL    HW135659   5.152   1.819   1.064  0.3895  0.3669  1.0439
72683SOL    HW235660   5.114   1.915   0.953 -0.2823 -1.0986 -0.0260
72684SOL     OW35661   4.239   0.862   9.385 -0.3888 -0.0551  0.0857
72684SOL    HW135662   4.223   0.797   9.316 -1.8472 -1.1413  1.3877
72684SOL    HW235663   4.308   0.823   9.439  0.5742  0.6880 -0.5466
72685SOL     OW35664   0.525   1.849   4.199 -0.4503  0.2548 -0.3873
72685SOL    HW135665   0.598   1.877   4.144  0.1601 -0.0273  0.2670
72685SOL    HW235666   0.539   1.756   4.211 -0.7079  0.2751  0.0681
72686SOL     OW35667   8.605   9.305   0.897  0.4277 -0.4008  0.3101
72686SOL    HW135668   8.589   9.361   0.821 -2.7424 -1.5035  0.0050
72686SOL    HW235669   8.584   9.217   0.867  2.1082 -1.3287  1.6849
72687SOL     OW35670   8.679   3.428  11.567  0.2315  0.3102  0.3935
72687SOL    HW135671   8.657   3.389  11.652  0.6080 -0.1162  0.3007
72687SOL    HW235672   8.599   3.418  11.515 -0.5963  2.1174  1.2147
72688SOL     OW35673   0.408   6.186   5.439 -0.3131  0.2236  0.6855
72688SOL    HW135674   0.445   6.267   5.474 -0.0012  0.1857  0.4541
72688SOL    HW235675   0.377   6.210   5.352  1.3443 -0.2836 -0.0915
72689SOL     OW35676   1.167   4.269   1.213  0.3538  0.0414  0.1262
72689SOL    HW135677   1.115   4.321   1.274 -0.7849 -3.4987  2.4636
72689SOL    HW235678   1.250   4.255   1.258  1.7033  1.8013 -1.6106
72690SOL     OW35679   9.469   6.389   0.818  0.5623 -0.1886  0.1983
72690SOL    HW135680   9.530   6.329   0.775  1.2949  0.6502  0.0595
72690SOL    HW235681   9.495   6.476   0.788  1.4481  0.4865  2.7277
72691SOL     OW35682   0.942  12.586   5.730 -0.0519  0.7545  0.7985
72691SOL    HW135683   0.910  12.652   5.792  0.5844  2.3374 -0.4879
72691SOL    HW235684   0.911  12.503   5.766  1.1281  1.4776  3.7442
72692SOL     OW35685  10.416   9.832  13.579 -0.0111  0.5741  0.5352
72692SOL    HW135686  10.370   9.915  13.587 -0.3572  0.4927 -0.4853
72692SOL    HW235687  10.353   9.766  13.610 -1.0535  0.3422 -1.8568
72693SOL     OW35688   3.523  10.035   2.351  0.0203  0.2411  0.1221
72693SOL    HW135689   3.455   9.968   2.349  0.3270 -0.1957  2.1578
72693SOL    HW235690   3.475  10.117   2.339 -0.2305 -0.3078 -3.5938
72694SOL     OW35691   9.085  13.480   4.296  0.1130 -0.3466 -0.6903
72694SOL    HW135692   9.117  13.474   4.386 -0.9181 -0.5829 -0.3252
72694SOL    HW235693   9.127  13.407   4.251  0.7224 -0.1620 -0.4276
72695SOL     OW35694   8.822   4.748  13.000  0.2713 -0.3084  1.1416
72695SOL    HW135695   8.785   4.832  12.975  1.0294 -0.9699 -2.9560
72695SOL    HW235696   8.757   4.683  12.974  0.9682 -1.1139  1.3331
72696SOL     OW35697   1.302   5.637  11.830  0.2182 -0.0961  0.6569
72696SOL    HW135698   1.216   5.611  11.798  1.0334 -1.4690 -0.5236
72696SOL    HW235699   1.287   5.658  11.923 -1.0767 -1.9291  0.9176
72697SOL     OW35700  13.157   9.396   0.869 -0.8035 -0.3043  0.5536
72697SOL    HW135701  13.072   9.388   0.911 -1.1232  1.1179  0.2423
72697SOL    HW235702  13.161   9.488   0.841  1.0558 -0.1850  1.0772
72698SOL     OW35703  12.676   8.056   8.123  0.3271  0.1639  0.3621
72698SOL    HW135704  12.585   8.043   8.150  0.9416  2.4805  4.2220
72698SOL    HW235705  12.700   7.974   8.079 -2.9942 -1.2994  0.9890
72699SOL     OW35706   6.634   1.126  10.274  0.4041 -0.0845 -0.0359
72699SOL    HW135707   6.725   1.097  10.270  1.0875  1.6765  1.3201
72699SOL    HW235708   6.619   1.169  10.189  1.9107  2.3383  0.8121
72700SOL     OW35709  12.894   8.394   6.805  0.4709  0.5633  0.1831
72700SOL    HW135710  12.844   8.313   6.793 -0.9133  1.5050 -0.7776
72700SOL    HW235711  12.962   8.372   6.868 -0.0702 -1.2571  0.1758
72701SOL     OW35712   2.606   1.051  12.804 -0.2785  0.2980 -0.4480
72701SOL    HW135713   2.621   1.140  12.833  0.5048  0.3444 -0.9631
72701SOL    HW235714   2.603   0.999  12.884  0.4539  0.6170 -0.2087
72702SOL     OW35715   1.025  13.752   5.716 -0.2420  0.0451  0.0673
72702SOL    HW135716   0.955  13.781   5.657  0.3922  1.4817 -0.0083
72702SOL    HW235717   1.098  13.811   5.697  1.9238 -2.8794 -1.6312
72703SOL     OW35718   7.555   5.968   3.229 -0.0885  0.2132 -0.0945
72703SOL    HW135719   7.643   6.001   3.247 -0.2678  1.1774 -0.9332
72703SOL    HW235720   7.496   6.035   3.263 -0.4555  0.9147 -1.9882
72704SOL     OW35721   3.257  12.844   8.856 -0.0290  0.7670  0.0344
72704SOL    HW135722   3.189  12.810   8.799  0.3068  1.6770 -0.9426
72704SOL    HW235723   3.211  12.904   8.915 -0.4612 -0.5727  1.1233
72705SOL     OW35724  12.657  11.236   2.203 -0.4881 -0.0195 -0.2170
72705SOL    HW135725  12.665  11.283   2.120 -0.1360 -0.7968 -0.6373
72705SOL    HW235726  12.654  11.144   2.177 -2.4902 -0.2041  0.4947
72706SOL     OW35727  13.467   3.918  10.597 -0.4200 -0.4427 -0.4598
72706SOL    HW135728  13.487   3.979  10.668 -1.2388 -2.1153  1.3007
72706SOL    HW235729  13.535   3.851  10.603  0.4024  0.1543 -2.2892
72707SOL     OW35730  10.239  13.115   1.259 -0.1521 -0.4266 -0.7340
72707SOL    HW135731  10.152  13.096   1.296  0.5496 -0.0047  1.2717
72707SOL    HW235732  10.292  13.039   1.284  0.6788  0.4866  0.3671
72708SOL     OW35733   0.220  13.725   9.931 -0.0649 -0.4890 -0.1595
72708SOL    HW135734   0.140  13.681   9.960 -0.8059  0.2008 -1.1053
72708SOL    HW235735   0.240  13.685   9.846  1.3070 -1.5193  0.5964
72709SOL     OW35736   2.290   8.226  13.612  0.2600 -0.1810  0.6102
72709SOL    HW135737   2.304   8.276  13.693 -1.3749 -0.8113  1.3350
72709SOL    HW235738   2.320   8.138  13.633 -1.4448 -0.6982  1.0541
72710SOL     OW35739   8.701   1.427  12.761 -0.0966 -0.1772  0.6001
72710SOL    HW135740   8.607   1.415  12.751 -0.1279  0.3717  0.1606
72710SOL    HW235741   8.712   1.454  12.852 -0.4695  0.5939  0.4327
72711SOL     OW35742  10.816   8.782   2.533 -0.1794 -0.6162 -0.4201
72711SOL    HW135743  10.746   8.847   2.527  0.2811 -0.2438 -2.3548
72711SOL    HW235744  10.776   8.701   2.501  0.1430 -0.5141 -1.0833
72712SOL     OW35745   3.588  11.231   0.486  0.6395 -0.4781  0.1194
72712SOL    HW135746   3.626  11.168   0.424 -0.8785 -1.7668  0.4467
72712SOL    HW235747   3.556  11.302   0.431  0.6142 -0.9235 -0.4584
72713SOL     OW35748   0.544   1.387   1.227  0.3800 -0.1102 -0.0793
72713SOL    HW135749   0.517   1.302   1.262 -0.8306  0.0265 -0.6269
72713SOL    HW235750   0.465   1.422   1.187  0.8158  1.3753  0.3179
72714SOL     OW35751   8.106  11.098   4.294 -0.0297  0.3038 -0.1221
72714SOL    HW135752   8.160  11.024   4.323  0.0028  1.0386  1.8393
72714SOL    HW235753   8.077  11.073   4.206 -1.0346 -2.6169  0.9230
72715SOL     OW35754  10.874   7.497   2.358  0.1344  0.2783 -0.7349
72715SOL    HW135755  10.873   7.421   2.299 -2.2470 -1.1650  0.9655
72715SOL    HW235756  10.912   7.464   2.439 -2.7166  0.1807  0.7066
72716SOL     OW35757   6.692   6.394   2.313 -0.1405 -0.6479  0.1678
72716SOL    HW135758   6.756   6.396   2.384 -1.4927 -0.0794  1.4126
72716SOL    HW235759   6.744   6.376   2.235  1.7829  1.3097  0.8771
72717SOL     OW35760  12.202   4.338   2.556  0.1758  0.0639 -0.2771
72717SOL    HW135761  12.123   4.374   2.596  0.0245  0.7443 -1.1443
72717SOL    HW235762  12.255   4.306   2.629  0.2357  1.9083  0.5241
72718SOL     OW35763   5.262   4.396  10.149  0.1146  0.2287 -0.2584
72718SOL    HW135764   5.336   4.340  10.171  0.1328  0.1042 -0.6198
72718SOL    HW235765   5.267   4.470  10.210  0.2792 -0.0026  0.0051
72719SOL     OW35766   8.863  12.040  13.402 -0.1602 -0.2900  0.2679
72719SOL    HW135767   8.899  12.012  13.318  0.4856  2.1886 -0.3456
72719SOL    HW235768   8.870  11.962  13.458  2.0987 -1.1681 -1.1041
72720SOL     OW35769   1.639  10.897   3.066  0.0328  0.2285  0.3873
72720SOL    HW135770   1.605  10.807   3.066  1.6111 -0.4054 -0.7423
72720SOL    HW235771   1.565  10.950   3.037 -1.1483 -0.5803  1.7751
72721SOL     OW35772   7.760  12.808  12.340  0.4409  0.4959 -0.3079
72721SOL    HW135773   7.831  12.858  12.301  0.8210  0.5369  0.4132
72721SOL    HW235774   7.795  12.779  12.425 -0.3272  0.3464 -0.0328
72722SOL     OW35775   0.930   1.270   9.165  0.0635 -0.4059  0.6569
72722SOL    HW135776   1.012   1.222   9.157  0.3118  0.2029 -0.7287
72722SOL    HW235777   0.949   1.356   9.130 -0.8008  0.2147  1.6482
72723SOL     OW35778   8.934   7.915   4.438 -0.5539 -0.4505 -0.4054
72723SOL    HW135779   8.903   7.825   4.452  1.6879 -1.4615 -1.4750
72723SOL    HW235780   8.983   7.936   4.517  0.8260 -1.0683 -1.0683
72724SOL     OW35781   3.607   1.369   8.929 -0.0322 -0.1942 -0.0724
72724SOL    HW135782   3.695   1.339   8.952  0.3924  1.4450  0.5247
72724SOL    HW235783   3.562   1.289   8.899  1.8153 -0.9683 -0.9477
72725SOL     OW35784   9.790  13.620   6.903  0.0424  0.4430 -0.2409
72725SOL    HW135785   9.833  13.672   6.836 -2.4379 -0.4244 -2.6811
72725SOL    HW235786   9.714  13.672   6.928 -0.0268 -0.0440  0.6023
72726SOL     OW35787  11.824  12.565   7.928  0.2858 -0.6030 -0.4566
72726SOL    HW135788  11.880  12.585   7.853  1.5365  1.3171  0.8809
72726SOL    HW235789  11.750  12.625   7.919 -0.4880 -1.6008 -1.0356
72727SOL     OW35790   0.134   1.870  10.503 -0.2608 -0.0435 -0.3898
72727SOL    HW135791   0.072   1.798  10.516 -1.3511  0.3618 -2.8685
72727SOL    HW235792   0.220   1.826  10.500 -0.8747 -1.2676 -1.5727
72728SOL     OW35793   8.465   3.325   7.436 -0.1162  0.2906 -0.1693
72728SOL    HW135794   8.457   3.392   7.368 -0.9122 -0.3568 -0.7500
72728SOL    HW235795   8.439   3.369   7.517  2.6861  1.6028  0.1200
72729SOL     OW35796   7.570   6.827   6.005  0.1581 -0.2982 -0.3796
72729SOL    HW135797   7.548   6.799   6.094  2.2400 -0.6340  0.0799
72729SOL    HW235798   7.492   6.873   5.974  0.2126  2.0645  2.5626
72730SOL     OW35799   5.562   1.139   6.226  0.2387  0.2417  0.0682
72730SOL    HW135800   5.526   1.177   6.146  0.0303 -0.2771 -0.0900
72730SOL    HW235801   5.628   1.076   6.195 -0.6716 -0.8337  0.2469
72731SOL     OW35802  12.392   2.776   6.362 -0.4065 -0.2799 -0.1751
72731SOL    HW135803  12.302   2.806   6.349  0.5218  2.7592 -0.3675
72731SOL    HW235804  12.444   2.832   6.304  1.6509 -1.8277  0.0886
72732SOL     OW35805  13.872   0.216   3.435  0.1792 -0.0470 -0.0253
72732SOL    HW135806  13.938   0.205   3.366 -0.6309 -0.3155 -0.7815
72732SOL    HW235807  13.882   0.307   3.463  1.3735 -0.2910  0.4184
72733SOL     OW35808  10.284  10.680   6.761 -0.5497  0.0314 -0.0831
72733SOL    HW135809  10.377  10.703   6.754 -0.3963  0.1850  1.9548
72733SOL    HW235810  10.260  10.653   6.672  0.9378  1.7956 -1.1007
72734SOL     OW35811   5.338   5.623   1.327 -0.3637  0.4301 -0.2706
72734SOL    HW135812   5.266   5.685   1.335  0.0245  1.0590 -1.4238
72734SOL    HW235813   5.417   5.673   1.345  0.0656  0.6424 -2.4406
72735SOL     OW35814   6.264   1.232   8.345 -0.5265 -0.5285 -0.0737
72735SOL    HW135815   6.309   1.147   8.350 -0.1136 -0.2958  0.2403
72735SOL    HW235816   6.334   1.296   8.354 -1.0403 -0.1529  1.5653
72736SOL     OW35817  12.315  12.158   7.577 -0.8063 -0.1822  0.2767
72736SOL    HW135818  12.274  12.175   7.492  1.0368 -0.6833 -0.7562
72736SOL    HW235819  12.359  12.240   7.599 -0.0730 -0.5048  0.0326
72737SOL     OW35820   5.794   1.737  12.209 -0.4968 -0.4159 -0.0083
72737SOL    HW135821   5.741   1.703  12.137 -1.3994  0.0894  0.4030
72737SOL    HW235822   5.742   1.720  12.287  1.1713 -2.4378  0.7460
72738SOL     OW35823   8.048  10.460   1.274 -0.8986  0.2278 -0.3463
72738SOL    HW135824   8.032  10.554   1.260  0.4922  0.8024  1.5440
72738SOL    HW235825   8.080  10.429   1.190 -0.9483  1.5393 -0.8865
72739SOL     OW35826   7.924   0.718   0.429 -0.1266 -0.6165 -0.1538
72739SOL    HW135827   7.922   0.637   0.378  1.7176  0.0661 -1.4274
72739SOL    HW235828   7.846   0.766   0.401 -0.2708 -1.1793 -0.7331
72740SOL     OW35829   0.960   6.214   4.279  0.0568  0.2832  0.4513
72740SOL    HW135830   0.898   6.142   4.270 -0.0666  0.0933  2.3607
72740SOL    HW235831   1.018   6.206   4.203  0.3435 -2.1291  0.8323
72741SOL     OW35832   8.204   3.491  12.276  0.6891  0.2094 -0.4456
72741SOL    HW135833   8.121   3.445  12.261  1.4746 -1.2758 -0.3689
72741SOL    HW235834   8.262   3.425  12.314  2.5429  0.6725 -2.2943
72742SOL     OW35835   7.255  11.841   4.193 -1.0639  0.6901 -0.7956
72742SOL    HW135836   7.206  11.913   4.233 -1.8026 -1.2969  2.2306
72742SOL    HW235837   7.337  11.880   4.164 -1.4377  2.7357  0.7172
72743SOL     OW35838   1.398   9.083   1.897  0.1221 -0.9688 -0.1757
72743SOL    HW135839   1.306   9.087   1.925 -0.0472 -0.0220 -0.8237
72743SOL    HW235840   1.425   9.175   1.892  0.8196 -1.2055 -0.9069
72744SOL     OW35841   0.450   5.707  11.102 -0.2537  0.0071  0.2192
72744SOL    HW135842   0.373   5.719  11.046  0.2467  0.6207 -0.3486
72744SOL    HW235843   0.460   5.612  11.109 -0.5869 -0.0743 -0.3678
72745SOL     OW35844   1.677  12.513   9.099 -0.5670 -0.4660 -0.1708
72745SOL    HW135845   1.694  12.454   9.025 -1.0677 -1.2490  0.3263
72745SOL    HW235846   1.621  12.463   9.158  0.0011  0.0698  0.8547
72746SOL     OW35847  11.347   5.505   1.786  0.7443 -0.0301 -0.1125
72746SOL    HW135848  11.430   5.501   1.739  1.0249 -1.3823  0.4552
72746SOL    HW235849  11.369   5.481   1.876 -0.1578  0.2216  0.1863
72747SOL     OW35850   5.604  10.753   8.853 -0.2671 -0.4776  0.3403
72747SOL    HW135851   5.531  10.692   8.847 -0.9272  0.4205 -1.5284
72747SOL    HW235852   5.598  10.806   8.773  1.8509  0.2692  0.6130
72748SOL     OW35853  13.634  10.582   5.642 -0.0013  0.4988  0.4346
72748SOL    HW135854  13.659  10.524   5.714 -0.2633 -1.5450 -1.0136
72748SOL    HW235855  13.716  10.625   5.617  1.3374 -2.7101 -1.3264
72749SOL     OW35856   5.459   8.500   4.569 -0.0326 -0.0352  0.2554
72749SOL    HW135857   5.411   8.553   4.505 -0.5854  0.8001  1.3356
72749SOL    HW235858   5.533   8.556   4.595  1.1269 -0.9994 -0.8075
72750SOL     OW35859  10.397   7.095   1.025  0.3532  0.8246  0.2029
72750SOL    HW135860  10.480   7.048   1.013 -0.0413  0.1503  0.0348
72750SOL    HW235861  10.402   7.168   0.963  1.0183  1.0702  0.5367
72751SOL     OW35862   6.615  13.250   5.235 -0.7412 -0.1889  0.1579
72751SOL    HW135863   6.564  13.320   5.275 -3.0313 -1.0399 -1.0593
72751SOL    HW235864   6.598  13.260   5.141  3.6215  1.1508 -0.7489
72752SOL     OW35865   2.294   2.127   3.815  0.0980  0.4474  0.2659
72752SOL    HW135866   2.210   2.083   3.823 -0.3464  1.0536 -0.8266
72752SOL    HW235867   2.359   2.061   3.841 -0.3721 -1.5524 -3.0308
72753SOL     OW35868   8.292   1.373  10.879 -0.5127 -0.0067  0.0972
72753SOL    HW135869   8.229   1.438  10.911  1.1054  1.5059  0.3384
72753SOL    HW235870   8.332   1.414  10.802  1.7210  0.0514  1.2070
72754SOL     OW35871   2.429  10.853   6.360 -0.2527 -0.2109  0.5493
72754SOL    HW135872   2.425  10.907   6.282  0.1348  1.6010  1.7215
72754SOL    HW235873   2.447  10.765   6.328 -0.9674  0.3222 -1.4347
72755SOL     OW35874   5.818   6.553  12.518 -0.0471  0.1582 -0.3423
72755SOL    HW135875   5.843   6.486  12.455 -2.0829 -0.4681 -0.5238
72755SOL    HW235876   5.783   6.624  12.464  0.2810  0.5615 -0.0316
72756SOL     OW35877   4.391   4.528   1.680 -0.0454 -0.7942  0.2605
72756SOL    HW135878   4.432   4.590   1.739  1.0162  0.4432 -1.6928
72756SOL    HW235879   4.454   4.456   1.673 -0.2036 -0.9745  0.6813
72757SOL     OW35880  11.089   4.612  13.495 -0.1949  0.1389 -0.3098
72757SOL    HW135881  11.086   4.517  13.508  0.2105  0.2656  0.8067
72757SOL    HW235882  11.111   4.623  13.402  3.5679 -0.9010  0.3207
72758SOL     OW35883   2.177   0.034   8.600 -0.5618  0.1648 -0.3004
72758SOL    HW135884   2.180  -0.024   8.677 -0.9938  0.4979 -0.0267
72758SOL    HW235885   2.256   0.013   8.551  0.4914  0.9717  0.9919
72759SOL     OW35886   1.030  10.434   4.427  0.5298  0.2592  0.0524
72759SOL    HW135887   0.974  10.493   4.477 -1.3307  0.3331 -1.9603
72759SOL    HW235888   1.097  10.405   4.489  0.3079  2.8741  1.6263
72760SOL     OW35889   8.147   1.464   1.774  0.1651 -0.1527 -0.3174
72760SOL    HW135890   8.097   1.412   1.838 -1.7047  1.5155 -0.3326
72760SOL    HW235891   8.239   1.450   1.799 -0.4672  0.1520  2.5390
72761SOL     OW35892   0.241   7.186   9.796 -0.1830  0.2554  0.1925
72761SOL    HW135893   0.315   7.191   9.736  1.2350  1.9751  1.9386
72761SOL    HW235894   0.173   7.239   9.754 -0.0937 -0.5196 -0.9681
72762SOL     OW35895   5.493   7.542   2.303  0.1402 -0.1577  0.2399
72762SOL    HW135896   5.426   7.601   2.268 -0.2956 -1.0875 -0.5622
72762SOL    HW235897   5.570   7.597   2.313  0.6061  0.0270 -3.2028
72763SOL     OW35898   6.915  10.182  12.943  0.1581 -0.1221 -0.2143
72763SOL    HW135899   6.933  10.099  12.899 -1.4422 -0.3427 -0.5382
72763SOL    HW235900   6.919  10.248  12.873  0.8263 -0.0020 -0.0702
72764SOL     OW35901   6.704   4.275   5.294  0.1074  0.1836 -0.0238
72764SOL    HW135902   6.665   4.198   5.254  0.2719  0.1368 -0.0946
72764SOL    HW235903   6.634   4.340   5.295  0.1531  0.2477 -0.5564
72765SOL     OW35904   5.487   3.127   8.141 -0.6059  0.0774  0.1802
72765SOL    HW135905   5.447   3.041   8.153  1.5728 -0.9209  0.6289
72765SOL    HW235906   5.580   3.113   8.156 -0.2279  2.5919  0.5695
72766SOL     OW35907   3.602  13.529  10.697 -0.0430 -0.3081 -0.1998
72766SOL    HW135908   3.593  13.624  10.708 -0.3368 -0.6665  4.3932
72766SOL    HW235909   3.515  13.500  10.671  0.1533  0.6255 -2.0910
72767SOL     OW35910  14.069  10.325   8.650 -0.5489  0.3368  0.1804
72767SOL    HW135911  14.082  10.348   8.558 -1.3255  0.1652  0.0222
72767SOL    HW235912  14.151  10.349   8.693 -0.0514  0.0837 -0.6202
72768SOL     OW35913   1.400   7.613   2.989  0.2902 -0.3592 -0.3373
72768SOL    HW135914   1.482   7.566   3.004  0.3135 -0.0266  0.6262
72768SOL    HW235915   1.415   7.662   2.908  0.1822 -2.1561 -1.4883
72769SOL     OW35916   4.698  10.897   9.176 -0.2570  0.7227  0.3767
72769SOL    HW135917   4.610  10.925   9.200 -1.1792 -0.9457 -0.8884
72769SOL    HW235918   4.700  10.901   9.081  0.4718 -0.8275  0.2949
72770SOL     OW35919   5.159   8.997   0.910  0.1023  0.2201 -0.1057
72770SOL    HW135920   5.138   8.989   0.817  1.7370  0.9110 -0.5634
72770SOL    HW235921   5.238   9.051   0.913 -1.2085  2.2227  1.8193
72771SOL     OW35922   2.180   7.498  11.487 -0.3884  0.0717  0.0576
72771SOL    HW135923   2.186   7.593  11.496 -0.2643  0.1107 -0.3939
72771SOL    HW235924   2.099   7.484  11.437 -1.8802 -0.2152  2.4007
72772SOL     OW35925  11.764   3.197  12.564 -0.5376 -0.5484  0.0030
72772SOL    HW135926  11.786   3.246  12.643 -0.8953 -1.8779  0.9589
72772SOL    HW235927  11.822   3.233  12.497  0.7086 -0.2974  1.1750
72773SOL     OW35928   0.623   5.741   9.300 -0.3159 -0.2012  0.0374
72773SOL    HW135929   0.578   5.797   9.236  0.1966  0.2605  0.0808
72773SOL    HW235930   0.562   5.668   9.314 -1.3162  0.7152  0.5488
72774SOL     OW35931   1.191  10.919  12.497 -0.2927  0.5189  0.3130
72774SOL    HW135932   1.102  10.948  12.477 -0.9975  0.1606  2.6853
72774SOL    HW235933   1.220  10.978  12.567  1.7409  1.2246 -1.0365
72775SOL     OW35934  12.163   7.848  12.740 -0.1374  0.2310  0.0237
72775SOL    HW135935  12.144   7.770  12.791  0.9442 -0.3701 -0.4682
72775SOL    HW235936  12.205   7.908  12.802  1.0518 -0.4476 -0.1035
72776SOL     OW35937  11.408   8.023   4.149 -0.4750 -0.4101 -0.2732
72776SOL    HW135938  11.347   8.027   4.223 -0.8158  1.6172 -0.6179
72776SOL    HW235939  11.358   8.057   4.075  0.4828 -0.5415 -0.9928
72777SOL     OW35940   4.266   3.718   2.072 -0.4638  0.2216 -0.1114
72777SOL    HW135941   4.284   3.753   2.160 -0.3801  0.5710 -0.2659
72777SOL    HW235942   4.336   3.753   2.017  0.3957 -1.2684 -0.0195
72778SOL     OW35943   8.850   0.700   0.466  0.0347  0.9079  0.0277
72778SOL    HW135944   8.879   0.609   0.466  0.0720  0.8945  1.3965
72778SOL    HW235945   8.813   0.714   0.379  1.4310  0.0513 -0.7433
72779SOL     OW35946  12.072   4.880  14.051  0.5128  0.0887 -0.5393
72779SOL    HW135947  11.983   4.917  14.053  0.6744  0.4694  0.0132
72779SOL    HW235948  12.105   4.893  14.140  1.0740 -0.1789 -0.7031
72780SOL     OW35949  11.173   4.795   1.130 -0.6413  0.0971 -0.2362
72780SOL    HW135950  11.113   4.759   1.196  0.1668 -0.4241  0.2269
72780SOL    HW235951  11.151   4.888   1.125 -0.8414  0.0989  0.6261
72781SOL     OW35952   4.334   4.098  10.367  0.2524 -0.3336 -0.7579
72781SOL    HW135953   4.370   4.175  10.323 -0.0687  0.5211  0.4113
72781SOL    HW235954   4.406   4.036  10.370  0.9634  0.4870 -0.4441
72782SOL     OW35955   0.230   4.487  13.676  0.5595 -0.3435  0.0528
72782SOL    HW135956   0.146   4.531  13.685  0.8813  0.2759  0.0268
72782SOL    HW235957   0.295   4.557  13.679  1.0405 -0.7552 -0.5375
72783SOL     OW35958  12.531   9.450   0.743  0.0535 -0.0336  0.0728
72783SOL    HW135959  12.564   9.481   0.658  1.1351  0.5721  0.6854
72783SOL    HW235960  12.590   9.379   0.766 -0.0301  0.0252  0.4681
72784SOL     OW35961   4.065  12.296  10.198  0.0482 -0.5623  0.1812
72784SOL    HW135962   4.098  12.374  10.151 -1.0519 -0.0098  0.3011
72784SOL    HW235963   3.985  12.273  10.152 -0.8960 -0.1869  1.5890
72785SOL     OW35964   9.713   2.687   0.320 -0.6304 -0.3707 -0.1257
72785SOL    HW135965   9.630   2.654   0.355  0.0120 -3.0137 -0.9068
72785SOL    HW235966   9.750   2.737   0.392 -1.8888 -1.0189  1.0265
72786SOL     OW35967   6.275   3.593  11.422 -0.1339  0.2908  0.8809
72786SOL    HW135968   6.207   3.537  11.384 -2.8489  2.4624  2.0994
72786SOL    HW235969   6.306   3.647  11.349 -1.6999  1.0490  0.7292
72787SOL     OW35970  11.265   8.134   3.936 -0.0726 -0.6444 -0.4603
72787SOL    HW135971  11.230   8.174   3.857 -0.6892 -0.3030 -0.0277
72787SOL    HW235972  11.203   8.065   3.958  0.0770 -0.7161 -0.2565
72788SOL     OW35973   5.011   9.531  12.653  0.2687 -0.2089 -0.0979
72788SOL    HW135974   4.970   9.536  12.567 -2.0775  1.3001  1.0159
72788SOL    HW235975   4.946   9.489  12.709  0.2597  1.9661  1.6792
72789SOL     OW35976   5.323  13.180  12.297 -0.4985 -0.1646 -0.4125
72789SOL    HW135977   5.325  13.088  12.326  1.1154  0.4858  1.8899
72789SOL    HW235978   5.231  13.204  12.302 -0.7112 -1.1007  1.1115
72790SOL     OW35979   2.143   1.098   1.751  0.1779  0.3933  0.3947
72790SOL    HW135980   2.108   1.018   1.712 -0.7569  0.4712  1.0532
72790SOL    HW235981   2.203   1.067   1.819  0.8850  0.2587 -0.2822
72791SOL     OW35982   5.718   3.644  13.000 -0.2588 -0.4382 -0.2737
72791SOL    HW135983   5.662   3.653  12.923  0.7932  0.2388 -0.9942
72791SOL    HW235984   5.746   3.734  13.019  2.2312 -0.9226 -1.2442
72792SOL     OW35985  13.204   5.931   7.367 -0.0657  0.0994 -0.5727
72792SOL    HW135986  13.292   5.907   7.339  0.3687  1.2126 -0.2173
72792SOL    HW235987  13.165   5.971   7.290 -0.1886 -0.1935 -0.6646
72793SOL     OW35988  10.213   3.500   0.651  0.0130 -0.5645 -0.2716
72793SOL    HW135989  10.243   3.431   0.591  1.0527 -0.4547  0.0953
72793SOL    HW235990  10.158   3.454   0.714 -0.2429 -0.8621 -0.7049
72794SOL     OW35991  12.892   1.780  12.098 -0.2538  0.1160 -0.4384
72794SOL    HW135992  12.807   1.751  12.130 -0.5634  0.3305 -1.0334
72794SOL    HW235993  12.933   1.824  12.173 -0.0389 -1.2582  0.2785
72795SOL     OW35994  13.858   2.438  11.832  0.0483  0.2980 -0.4078
72795SOL    HW135995  13.839   2.523  11.790 -1.1232  1.3019  1.9357
72795SOL    HW235996  13.831   2.373  11.767 -0.5341  1.7369 -1.6808
72796SOL     OW35997  10.520   5.573   0.364  0.1382 -0.2594 -0.0819
72796SOL    HW135998  10.588   5.640   0.358 -0.6768  0.6646  0.5756
72796SOL    HW235999  10.458   5.596   0.295 -0.4022 -0.0069  0.4739
72797SOL     OW36000   1.967   1.385   3.692 -0.3458  0.0670  0.4189
72797SOL    HW136001   1.955   1.297   3.657  0.5722  0.1801 -0.1964
72797SOL    HW236002   1.953   1.443   3.617  0.3366  0.3740  0.5205
72798SOL     OW36003  10.695   2.330   9.525  0.3062 -0.4460  0.2839
72798SOL    HW136004  10.662   2.272   9.456  0.9210 -0.3430 -0.1052
72798SOL    HW236005  10.724   2.408   9.478  0.4249 -0.2401  0.6981
72799SOL     OW36006  12.033   1.422  12.956  0.0656 -0.4345 -0.4468
72799SOL    HW136007  12.039   1.482  13.030 -0.7880  1.3954 -1.7640
72799SOL    HW236008  12.121   1.387  12.945  0.1030 -1.1134  1.6682
72800SOL     OW36009  11.016   3.097   3.161 -0.0813  0.3930  0.2369
72800SOL    HW136010  10.988   3.017   3.205  0.8796 -0.7612 -1.1654
72800SOL    HW236011  10.963   3.101   3.082 -0.3077  1.3137  0.4172
72801SOL     OW36012   7.251  13.917   7.269  0.2579  0.8266 -0.7401
72801SOL    HW136013   7.278  13.900   7.178  0.9115  0.7502 -0.5369
72801SOL    HW236014   7.197  13.842   7.292  2.9909 -1.0542  0.0924
72802SOL     OW36015  10.475   2.229   1.134  0.1735 -0.5302  0.2360
72802SOL    HW136016  10.441   2.248   1.222 -0.8637 -1.6241  0.0984
72802SOL    HW236017  10.477   2.133   1.130 -2.6021 -0.6385 -1.9018
72803SOL     OW36018   7.500  13.767   2.185 -0.0761  0.2319  0.0423
72803SOL    HW136019   7.578  13.766   2.130 -0.4540  0.2642 -0.5058
72803SOL    HW236020   7.444  13.834   2.145  0.3380  1.5033  1.4696
72804SOL     OW36021   0.630  10.253   7.760 -0.3192 -0.2266 -0.1704
72804SOL    HW136022   0.575  10.191   7.807 -0.8256  0.3738  0.0332
72804SOL    HW236023   0.582  10.336   7.762 -0.1487 -0.0737 -1.3648
72805SOL     OW36024  13.741  12.332   2.194 -0.1843  0.3092 -0.1501
72805SOL    HW136025  13.704  12.374   2.117  0.6460  1.2212 -0.0777
72805SOL    HW236026  13.774  12.248   2.163  2.3406  1.6406 -1.3833
72806SOL     OW36027   6.130   6.252   5.739 -0.2022  0.2647 -0.3420
72806SOL    HW136028   6.223   6.238   5.720  0.0778  0.5238  0.7603
72806SOL    HW236029   6.122   6.233   5.833 -1.6742 -1.7999 -0.8264
72807SOL     OW36030  10.244   0.840   8.624 -0.2213 -0.6010  0.4299
72807SOL    HW136031  10.338   0.850   8.639 -0.0114  1.2655 -1.5967
72807SOL    HW236032  10.223   0.905   8.557 -2.5648 -2.3457 -0.7164
72808SOL     OW36033  12.246   8.917  10.739  0.2227 -0.3125 -0.1195
72808SOL    HW136034  12.312   8.856  10.707 -0.4176 -0.5986 -0.9379
72808SOL    HW236035  12.273   9.002  10.704 -0.6576 -0.6715 -1.8259
72809SOL     OW36036   5.740   6.998  12.363  0.2520  0.4059  0.3973
72809SOL    HW136037   5.684   6.922  12.350 -0.3955  0.8716  0.4227
72809SOL    HW236038   5.690   7.072  12.328  0.0808  1.1059  1.9871
72810SOL     OW36039   9.779   7.546  12.994 -0.1767  0.3682 -0.7471
72810SOL    HW136040   9.805   7.567  13.083 -1.5725  0.0201 -0.2248
72810SOL    HW236041   9.703   7.488  13.004  0.5292 -0.8947 -2.1560
72811SOL     OW36042  12.490   6.127  14.074 -0.5349 -0.2441 -0.9740
72811SOL    HW136043  12.580   6.158  14.091 -0.7519  0.5185 -1.1944
72811SOL    HW236044  12.491   6.036  14.102  0.0887 -0.0111 -0.1771
72812SOL     OW36045   9.356   3.210   1.293 -0.6041 -0.1042  0.0724
72812SOL    HW136046   9.272   3.175   1.260  0.2943 -0.9697 -1.4195
72812SOL    HW236047   9.417   3.137   1.284  0.2145  0.3410  1.6841
72813SOL     OW36048   7.847   7.307   9.860  0.6152 -0.0974  0.0451
72813SOL    HW136049   7.893   7.287   9.779  1.3739  2.0946 -0.1308
72813SOL    HW236050   7.902   7.270   9.929  1.7093  0.8433 -0.2816
72814SOL     OW36051   0.797   0.560  12.614  0.4497 -0.4830  0.0506
72814SOL    HW136052   0.737   0.508  12.559 -0.6592  0.0096  0.7550
72814SOL    HW236053   0.883   0.523  12.597  0.0602 -0.7247 -1.5821
72815SOL     OW36054   8.208   1.994   6.378 -0.2069 -0.1519 -0.0536
72815SOL    HW136055   8.295   2.034   6.376 -0.6734  0.8730 -0.3557
72815SOL    HW236056   8.176   2.000   6.288 -1.3753  1.3096  0.4056
72816SOL     OW36057  12.734  13.835   0.708 -0.1774  0.1033  0.1394
72816SOL    HW136058  12.751  13.921   0.745  3.1200  0.3173 -1.5364
72816SOL    HW236059  12.653  13.846   0.658 -0.0591  2.0778  0.3090
72817SOL     OW36060   0.717   0.803   9.296  0.3006 -0.2367 -0.2937
72817SOL    HW136061   0.756   0.720   9.268 -1.0030 -0.6158 -1.0617
72817SOL    HW236062   0.759   0.823   9.380  1.4582 -1.0814 -0.6522
72818SOL     OW36063  13.765   0.272   6.909  0.6269  0.4456  0.1148
72818SOL    HW136064  13.689   0.268   6.967  0.7587 -2.1712  0.2366
72818SOL    HW236065  13.780   0.181   6.883  2.0829  1.2293 -2.0749
72819SOL     OW36066  13.588  13.036   7.905 -0.4214 -0.2405  0.6029
72819SOL    HW136067  13.519  13.092   7.940  0.0173 -0.1214  1.3053
72819SOL    HW236068  13.543  12.977   7.845 -1.1086 -0.0880  0.9578
72820SOL     OW36069   0.039  11.955   9.804  0.7468 -0.0735 -0.2417
72820SOL    HW136070  -0.029  11.911   9.854  0.5281  1.6712  1.0722
72820SOL    HW236071  -0.007  11.998   9.732  0.3456  1.3160  0.7878
72821SOL     OW36072  10.417  11.766   5.996  0.5559  0.6482 -0.5596
72821SOL    HW136073  10.434  11.689   6.049  1.3417  0.8257 -0.5466
72821SOL    HW236074  10.323  11.782   6.007  0.1935 -0.7989 -1.2401
72822SOL     OW36075   3.236   9.722   4.234  0.3832  0.5063  0.1118
72822SOL    HW136076   3.213   9.629   4.229  0.3420  0.5544 -0.7934
72822SOL    HW236077   3.160   9.767   4.199 -0.2620  1.0041  2.0326
72823SOL     OW36078   6.361  12.345  11.619  0.1251  0.1717 -0.0001
72823SOL    HW136079   6.275  12.319  11.585  0.6109 -1.9329  0.1940
72823SOL    HW236080   6.419  12.273  11.594  1.5916  1.0131  0.8440
72824SOL     OW36081   4.921   9.339   0.836  0.3747  0.0458 -0.0582
72824SOL    HW136082   4.871   9.408   0.793 -1.2508 -0.6114  0.6702
72824SOL    HW236083   4.987   9.313   0.772  0.2545  1.4395 -0.7863
72825SOL     OW36084  13.411  10.311   9.466 -0.3421  0.4363 -0.0977
72825SOL    HW136085  13.413  10.221   9.436  0.9040 -0.1238  1.4991
72825SOL    HW236086  13.474  10.357   9.411  0.8991 -0.2569  0.7148
72826SOL     OW36087   6.735  12.995   5.012  0.0356 -0.2528 -0.1533
72826SOL    HW136088   6.812  13.042   5.045  0.7736 -1.4748 -0.0508
72826SOL    HW236089   6.703  13.049   4.940  0.7241  0.5032  0.0850
72827SOL     OW36090   1.595  11.413   4.418  0.2850 -0.6202 -0.6265
72827SOL    HW136091   1.630  11.331   4.454  2.1463  0.4219  0.0406
72827SOL    HW236092   1.672  11.468   4.403 -0.8960  0.9016 -1.3603
72828SOL     OW36093   5.082   1.772   7.381 -0.0667 -0.2521 -0.0689
72828SOL    HW136094   5.075   1.792   7.474  0.4442 -0.4431  0.0129
72828SOL    HW236095   5.169   1.733   7.371 -0.7355 -1.7125 -0.3596
72829SOL     OW36096   7.456   1.726   1.755  0.1126  0.3832 -0.3452
72829SOL    HW136097   7.400   1.742   1.831  1.2291  0.8938  0.3984
72829SOL    HW236098   7.508   1.649   1.780 -0.0124  0.1133 -0.8949
72830SOL     OW36099   2.405   5.567   2.517 -0.3814 -0.7123 -0.1531
72830SOL    HW136100   2.452   5.491   2.553  0.3948  0.3133  1.0750
72830SOL    HW236101   2.313   5.551   2.538 -0.4840 -2.1909 -1.5544
72831SOL     OW36102   2.073   8.475  10.954 -0.4465 -0.0667  0.3771
72831SOL    HW136103   2.093   8.536  10.883 -0.9905  0.1647  0.4114
72831SOL    HW236104   2.126   8.506  11.028  2.4072 -2.0552 -0.6995
72832SOL     OW36105   9.436  11.207  11.412  0.8052  0.5339  0.3791
72832SOL    HW136106   9.373  11.275  11.391  0.2556 -0.6765 -2.3023
72832SOL    HW236107   9.498  11.208  11.339  0.7697 -1.7933  0.2348
72833SOL     OW36108  13.982  13.089  11.529 -0.6894  0.3869  0.3237
72833SOL    HW136109  13.945  13.111  11.443 -1.2104  1.6175  0.8329
72833SOL    HW236110  13.975  13.170  11.579 -3.0885 -0.9926  2.4850
72834SOL     OW36111   3.479   7.453   9.202 -1.3740  0.0092  0.0976
72834SOL    HW136112   3.547   7.387   9.198  0.3616  1.6872  0.6025
72834SOL    HW236113   3.397   7.404   9.192 -0.1470 -2.1151 -0.0303
72835SOL     OW36114   0.304   9.282   1.876  0.3013  0.4140  0.4802
72835SOL    HW136115   0.295   9.247   1.965  1.2293 -0.0980  0.3878
72835SOL    HW236116   0.387   9.245   1.845 -1.5751 -2.1915 -1.8394
72836SOL     OW36117  12.603  11.245   5.921 -0.1133 -1.1226 -0.1389
72836SOL    HW136118  12.682  11.294   5.946 -0.7560 -0.9895  1.7804
72836SOL    HW236119  12.626  11.153   5.938  0.7053 -1.4753 -2.6928
72837SOL     OW36120   6.550  12.025   6.497 -0.4118  0.6799 -0.2120
72837SOL    HW136121   6.503  12.108   6.493 -0.6861  0.4935 -1.7304
72837SOL    HW236122   6.567  12.010   6.590 -0.7336  2.2124  0.1110
72838SOL     OW36123   7.188  11.063   3.589  0.0724 -0.4511  0.6541
72838SOL    HW136124   7.156  11.019   3.668 -0.1143 -0.9704  0.2915
72838SOL    HW236125   7.119  11.127   3.568 -0.8528 -1.6900 -0.2276
72839SOL     OW36126   8.179   7.696   3.853  0.3920  0.0410  0.2108
72839SOL    HW136127   8.140   7.743   3.927  0.3448  0.8413 -0.3051
72839SOL    HW236128   8.105   7.656   3.808  0.4225 -0.4564  0.6015
72840SOL     OW36129   2.774  12.818   6.896  0.1398 -0.3424  0.0141
72840SOL    HW136130   2.738  12.729   6.900  2.3704 -1.3656 -0.9605
72840SOL    HW236131   2.715  12.865   6.837 -0.5005 -1.4755 -0.2876
72841SOL     OW36132   4.901  11.601   0.151 -0.1682  0.9743  0.0750
72841SOL    HW136133   4.837  11.597   0.079  1.1760 -0.1348 -1.1208
72841SOL    HW236134   4.912  11.694   0.168  1.0722  1.4329 -2.7040
72842SOL     OW36135  11.102   7.346   6.105  0.6535 -0.0145 -0.1436
72842SOL    HW136136  11.053   7.316   6.182  0.8234  0.6574  0.2338
72842SOL    HW236137  11.060   7.301   6.032  0.5823 -0.7779  0.3508
72843SOL     OW36138   5.136   4.959  12.990 -0.1641  0.5805 -0.4881
72843SOL    HW136139   5.122   4.864  12.989 -0.1996  0.5854 -0.4488
72843SOL    HW236140   5.202   4.973  12.923 -0.9169  0.6484 -1.2357
72844SOL     OW36141   5.725  13.706   8.295 -0.6068  0.5227 -0.3273
72844SOL    HW136142   5.701  13.671   8.209 -1.4364 -0.4293  0.2573
72844SOL    HW236143   5.818  13.725   8.289 -0.1194 -1.6699 -0.7734
72845SOL     OW36144   1.810  10.762  10.754 -0.0836  0.4824  0.0225
72845SOL    HW136145   1.810  10.850  10.715  0.4763  0.1949 -0.6510
72845SOL    HW236146   1.901  10.747  10.778 -0.0104 -0.2662 -0.6923
72846SOL     OW36147  12.604   9.849  13.388 -0.3458 -0.0149 -0.0930
72846SOL    HW136148  12.635   9.897  13.466 -1.5175  0.5206  0.0669
72846SOL    HW236149  12.566   9.917  13.332 -0.1928 -0.5022 -0.7983
72847SOL     OW36150   4.051   6.578  13.799  0.1166 -0.5980  0.1986
72847SOL    HW136151   4.032   6.491  13.833 -1.1626 -0.1192  0.7829
72847SOL    HW236152   3.973   6.629  13.820  0.2036  0.2995 -1.4766
72848SOL     OW36153   7.043   3.497   0.183  0.6250  0.0336  0.0719
72848SOL    HW136154   6.992   3.433   0.232 -0.3080  0.6690 -0.0341
72848SOL    HW236155   7.133   3.465   0.188  0.3988 -0.4715  1.2970
72849SOL     OW36156   3.077   8.435  13.578 -0.0940 -0.0887 -0.2233
72849SOL    HW136157   3.050   8.512  13.527  1.0194 -0.9401 -2.1929
72849SOL    HW236158   3.161   8.460  13.616 -0.0036 -0.1158 -0.4021
72850SOL     OW36159  13.284   6.116  13.236 -0.1627  0.2436 -0.6894
72850SOL    HW136160  13.375   6.088  13.242 -0.0978  0.6316  0.5152
72850SOL    HW236161  13.288   6.200  13.191  0.2533  0.9158  0.5325
72851SOL     OW36162   6.690  12.716  13.669  0.0797  0.3474  0.0192
72851SOL    HW136163   6.703  12.668  13.751 -1.1582 -1.3737 -0.7298
72851SOL    HW236164   6.778  12.740  13.641  0.5610  0.5120  1.5653
72852SOL     OW36165   6.700   3.742   7.625 -0.0862  0.1462  0.9044
72852SOL    HW136166   6.625   3.721   7.680 -0.0514  1.3803  1.4415
72852SOL    HW236167   6.771   3.688   7.659 -0.6705 -0.9086  0.4962
72853SOL     OW36168   8.878   3.011   7.423 -0.0779  0.1790 -0.4211
72853SOL    HW136169   8.965   3.012   7.384 -0.1675  0.3535 -0.6222
72853SOL    HW236170   8.822   2.970   7.358  0.0286 -0.8170  0.1031
72854SOL     OW36171  11.107  13.788  13.948  0.3022 -0.2045 -0.3517
72854SOL    HW136172  11.133  13.821  14.034 -0.4406  0.9783 -0.5585
72854SOL    HW236173  11.038  13.725  13.966  0.0380  0.1559 -0.0880
72855SOL     OW36174   3.875   6.588   2.841  0.1320  0.2144 -0.0966
72855SOL    HW136175   3.918   6.507   2.866 -0.5727 -0.3629 -0.7014
72855SOL    HW236176   3.838   6.570   2.754  1.3051  1.6805 -0.9534
72856SOL     OW36177   7.173  12.627   6.820  0.0101  0.0136 -0.2215
72856SOL    HW136178   7.160  12.622   6.726 -1.5767 -0.6151  0.0102
72856SOL    HW236179   7.155  12.719   6.842  1.9257  0.5655 -0.6927
72857SOL     OW36180   3.874  10.156  13.951 -0.4864 -0.3671 -0.2334
72857SOL    HW136181   3.839  10.119  13.870 -1.8388  0.8430 -0.2653
72857SOL    HW236182   3.945  10.214  13.922  0.2176 -1.2810 -0.3698
72858SOL     OW36183   2.673   6.812   8.813  0.2611 -0.0725 -0.2191
72858SOL    HW136184   2.603   6.837   8.873 -0.1862  1.2654 -1.2426
72858SOL    HW236185   2.676   6.883   8.749  3.0151  0.2869  0.1630
72859SOL     OW36186  12.077   3.788  10.866  0.1432 -0.1004 -0.2013
72859SOL    HW136187  12.048   3.827  10.783 -0.8211  0.2478  0.2740
72859SOL    HW236188  11.999   3.742  10.898  0.5853 -0.4423  0.3898
72860SOL     OW36189  12.420   5.988  13.221 -0.1134  0.1518 -0.0426
72860SOL    HW136190  12.336   5.980  13.266  0.0806 -1.0965  0.1398
72860SOL    HW236191  12.433   5.903  13.180  1.0050  0.3741 -0.1856
72861SOL     OW36192   1.992   9.209  12.066  0.3878 -0.4514  0.1778
72861SOL    HW136193   2.036   9.199  12.150  1.6392  1.4900 -0.1936
72861SOL    HW236194   1.987   9.303  12.052 -0.5669 -0.7175 -1.5425
72862SOL     OW36195  11.714  14.061  11.111  0.0653  0.0342 -0.3136
72862SOL    HW136196  11.641  14.124  11.114  0.7953  0.8728  0.4867
72862SOL    HW236197  11.705  14.011  11.193 -0.8703 -1.3607 -1.2211
72863SOL     OW36198   3.379   0.693   9.727 -0.3005 -0.6560 -0.2113
72863SOL    HW136199   3.310   0.682   9.661 -1.4239 -2.3631  1.1650
72863SOL    HW236200   3.457   0.657   9.687 -0.2803  0.8395 -1.6095
72864SOL     OW36201  10.868  10.071   6.134  0.0265 -0.1727  0.5226
72864SOL    HW136202  10.925  10.106   6.066  0.8813 -0.3069  1.1528
72864SOL    HW236203  10.821   9.999   6.091 -1.2520  1.2445 -0.5873
72865SOL     OW36204   9.841   0.323  13.160  0.1209  0.1884 -0.4542
72865SOL    HW136205   9.837   0.391  13.228  1.6458  1.7243 -1.8160
72865SOL    HW236206   9.821   0.242  13.207 -1.8161  1.5183  1.2442
72866SOL     OW36207   8.708   0.877   7.326  0.2645 -0.3866  0.7230
72866SOL    HW136208   8.774   0.825   7.281  1.1510  1.8867 -0.7376
72866SOL    HW236209   8.757   0.937   7.382 -0.6119  0.3276  0.7577
72867SOL     OW36210   0.465   9.706  11.045  0.1012  0.3921 -0.1634
72867SOL    HW136211   0.503   9.788  11.012 -1.5499  1.0212 -0.5868
72867SOL    HW236212   0.411   9.733  11.119  0.3932 -0.4864  0.3861
72868SOL     OW36213   4.995  10.160   7.080  1.0876  0.1067  0.2599
72868SOL    HW136214   5.010  10.104   7.156  1.4376  0.5455  0.5177
72868SOL    HW236215   5.012  10.103   7.004 -2.5453 -1.3751  0.3549
72869SOL     OW36216  13.248  10.814   1.989 -0.0534 -0.3769  0.2046
72869SOL    HW136217  13.339  10.830   1.964  0.0578 -0.4348  0.5663
72869SOL    HW236218  13.245  10.834   2.082 -0.2897 -0.9004  0.3118
72870SOL     OW36219   8.756   3.696  11.664  0.1327  0.0992  0.0362
72870SOL    HW136220   8.700   3.623  11.638 -0.2803  1.1353 -2.2058
72870SOL    HW236221   8.837   3.683  11.615  0.9312  0.0016  1.3175
72871SOL     OW36222   4.180   5.035   8.727  0.7202  0.4465 -0.1394
72871SOL    HW136223   4.112   5.091   8.689  2.0680  0.7865 -2.1971
72871SOL    HW236224   4.192   4.965   8.663  0.9740 -0.6830  1.1175
72872SOL     OW36225   6.866   3.793  13.429  0.6822  0.1116 -0.3130
72872SOL    HW136226   6.928   3.730  13.467 -0.2153 -1.0444 -0.7014
72872SOL    HW236227   6.877   3.783  13.335  2.1676  2.2294 -0.4289
72873SOL     OW36228   4.674   0.614   1.063  0.1892 -0.3453 -0.2932
72873SOL    HW136229   4.713   0.638   1.147  2.1102  2.3777 -1.8272
72873SOL    HW236230   4.582   0.638   1.072  0.9272  2.7156  0.1620
72874SOL     OW36231   2.769   9.681   6.151 -0.0021  0.1655 -0.1200
72874SOL    HW136232   2.733   9.606   6.199 -0.4536 -1.1370 -2.3272
72874SOL    HW236233   2.724   9.678   6.066  0.6880  2.3881 -0.6255
72875SOL     OW36234   2.382   2.254   2.513 -0.0188  0.2544 -0.4814
72875SOL    HW136235   2.324   2.318   2.472 -1.1999  0.6447  1.6475
72875SOL    HW236236   2.444   2.231   2.444  0.3848  3.5559 -1.4013
72876SOL     OW36237  12.045   9.338   0.760 -0.5015  0.1732  0.2064
72876SOL    HW136238  12.136   9.308   0.769 -1.3369 -2.8695 -0.5960
72876SOL    HW236239  12.052   9.418   0.708  1.7351  0.2584  0.5290
72877SOL     OW36240   3.927   7.892   8.349  1.0584  0.2923  0.8946
72877SOL    HW136241   3.918   7.798   8.366 -2.9416  0.1053 -1.1131
72877SOL    HW236242   3.973   7.896   8.265  0.5420  0.0666  0.5981
72878SOL     OW36243   5.848   5.283   4.126 -0.1265 -0.1081  0.3681
72878SOL    HW136244   5.913   5.314   4.190  1.2170 -1.9308 -0.0515
72878SOL    HW236245   5.899   5.234   4.062 -1.7140 -0.0285 -1.0208
72879SOL     OW36246   5.764  10.982   3.150  0.1881  0.6665  0.2991
72879SOL    HW136247   5.801  11.070   3.150 -0.6418  1.0339  0.2274
72879SOL    HW236248   5.671  10.996   3.170 -0.1254 -0.1112 -0.5405
72880SOL     OW36249   2.539  13.474   2.033  0.1704  0.4408  0.4055
72880SOL    HW136250   2.472  13.508   2.093 -0.2555  1.2670 -0.5013
72880SOL    HW236251   2.592  13.415   2.087 -1.0207  0.1091  1.2534
72881SOL     OW36252   6.353   2.500   8.187 -0.1749 -0.1988 -0.4114
72881SOL    HW136253   6.258   2.497   8.201 -0.4917  2.1181 -1.6282
72881SOL    HW236254   6.362   2.508   8.092  1.0493  2.6836 -0.1466
72882SOL     OW36255   1.656  10.780   8.364  0.4686 -0.0603 -0.6658
72882SOL    HW136256   1.644  10.875   8.353 -0.0480 -0.1462 -0.8596
72882SOL    HW236257   1.590  10.741   8.308  1.5001 -0.5598 -1.5771
72883SOL     OW36258  13.543  10.036  12.589  0.2302  0.2126  0.1303
72883SOL    HW136259  13.448  10.030  12.601 -0.0081  0.5363 -1.4004
72883SOL    HW236260  13.563  10.129  12.602  0.0704  0.4440 -1.1623
72884SOL     OW36261  12.651   2.613  12.355 -0.0910 -0.4297 -0.0902
72884SOL    HW136262  12.567   2.652  12.330 -0.3293  0.2295  1.5687
72884SOL    HW236263  12.715   2.657  12.300 -0.5869  0.9048  0.3417
72885SOL     OW36264   6.745   1.892  10.040 -0.1268 -0.1219 -0.1743
72885SOL    HW136265   6.787   1.949  10.104  0.9654 -1.5106  0.4193
72885SOL    HW236266   6.677   1.846  10.089  0.1704 -0.5932 -0.1916
72886SOL     OW36267   5.347   6.401   1.858  0.0599 -0.6929 -0.4877
72886SOL    HW136268   5.333   6.481   1.909  0.4759 -0.8901 -0.0539
72886SOL    HW236269   5.271   6.396   1.800 -1.0169 -1.0585  0.9003
72887SOL     OW36270   8.897  10.683   3.066 -0.0015  0.2957  0.3108
72887SOL    HW136271   8.852  10.662   3.148 -0.5847 -0.4764 -0.2024
72887SOL    HW236272   8.843  10.750   3.025  0.3472  0.7600  0.5934
72888SOL     OW36273   4.695  13.898  10.089  0.1451 -0.1121 -0.5085
72888SOL    HW136274   4.684  13.864  10.178 -1.4413  1.7572  0.0841
72888SOL    HW236275   4.753  13.835  10.047  0.5252 -1.3495  1.6761
72889SOL     OW36276  11.422   6.753   2.517  0.2233  0.4703  0.3434
72889SOL    HW136277  11.335   6.736   2.480 -0.2860 -0.2871  1.8332
72889SOL    HW236278  11.419   6.846   2.541 -1.2121 -0.1412  2.8839
72890SOL     OW36279  12.742  10.117   7.690 -0.1479  0.0629  0.2794
72890SOL    HW136280  12.814  10.054   7.684  1.1519  1.5286 -0.4484
72890SOL    HW236281  12.679  10.077   7.750  1.0206 -1.5204  0.5068
72891SOL     OW36282   8.363   3.061   8.024  0.0252  0.7783 -0.2279
72891SOL    HW136283   8.406   3.132   8.073  0.2104  0.8193 -0.4516
72891SOL    HW236284   8.334   3.000   8.092 -0.6860  1.3712  0.0118
72892SOL     OW36285   1.930  13.680  11.072  0.1257  0.1862 -0.5885
72892SOL    HW136286   1.925  13.774  11.085 -1.3881  0.3893 -2.2150
72892SOL    HW236287   2.020  13.665  11.041  0.5421  0.9976  0.1741
72893SOL     OW36288   0.656   7.170   0.561  0.0505  0.6901 -0.7641
72893SOL    HW136289   0.731   7.228   0.572 -0.0469  0.6210  0.3727
72893SOL    HW236290   0.693   7.090   0.524  1.1114 -0.4914  2.5051
72894SOL     OW36291   8.820   1.215   3.514 -0.2337 -0.3356 -0.1060
72894SOL    HW136292   8.760   1.144   3.536 -2.2055  1.5355  0.8403
72894SOL    HW236293   8.856   1.244   3.598  1.0195 -0.5615 -0.5364
72895SOL     OW36294   1.894   3.166   8.215  0.2107  0.4514  0.8240
72895SOL    HW136295   1.858   3.085   8.180  0.6810 -0.1446  1.6859
72895SOL    HW236296   1.923   3.143   8.304  2.4849  0.9361  0.2725
72896SOL     OW36297  11.913  13.217   4.013 -0.2522 -0.2900  0.2104
72896SOL    HW136298  11.865  13.268   3.947  0.3856 -0.4773 -0.4039
72896SOL    HW236299  11.965  13.155   3.962  1.2865  0.4577  0.8100
72897SOL     OW36300  13.651   5.244   6.860 -0.0695 -0.4277 -0.2193
72897SOL    HW136301  13.566   5.289   6.862  0.5849  0.8569  1.2946
72897SOL    HW236302  13.630   5.155   6.831 -1.6449  0.3931 -1.7898
72898SOL     OW36303   1.387   3.384   6.900 -0.3476  0.2145  0.0284
72898SOL    HW136304   1.421   3.326   6.832  1.1332  1.7767 -0.6343
72898SOL    HW236305   1.462   3.437   6.928 -1.5274  1.5447  0.8840
72899SOL     OW36306  11.100  10.403   3.782  0.2156  0.2601 -0.0134
72899SOL    HW136307  11.029  10.341   3.764  2.3556 -2.5690  0.5742
72899SOL    HW236308  11.072  10.449   3.861 -1.1121 -0.4761 -0.0195
72900SOL     OW36309  12.669   7.332   3.369 -0.1158  0.2798 -0.2867
72900SOL    HW136310  12.575   7.331   3.351 -0.0565 -0.0232 -0.6101
72900SOL    HW236311  12.677   7.298   3.458 -0.2796 -0.2305 -0.4611
72901SOL     OW36312  10.467  13.214   2.971 -0.1556 -0.3100  0.0840
72901SOL    HW136313  10.460  13.247   2.882 -2.7360  0.7390  0.5576
72901SOL    HW236314  10.515  13.132   2.964 -0.1553 -0.1563 -2.2429
72902SOL     OW36315  11.232   5.196  10.565 -0.5082  0.1140  0.1218
72902SOL    HW136316  11.238   5.200  10.660  3.0199 -1.4388  0.1167
72902SOL    HW236317  11.273   5.277  10.535 -0.2565 -0.0801 -0.0615
72903SOL     OW36318   4.020   1.886   9.647 -0.0195  0.1517 -0.0125
72903SOL    HW136319   3.977   1.963   9.684 -2.9703 -1.2428 -0.1825
72903SOL    HW236320   4.020   1.822   9.718  0.3333 -0.3909 -0.4899
72904SOL     OW36321   9.410   1.146   5.141  0.3823  0.4095 -0.7513
72904SOL    HW136322   9.344   1.132   5.209 -0.7924  1.0356 -1.7218
72904SOL    HW236323   9.418   1.242   5.136  1.6264  0.3398 -0.4298
72905SOL     OW36324   9.217  12.860  11.080 -0.1599 -0.0178 -0.0905
72905SOL    HW136325   9.184  12.898  10.999  0.1746  0.7454  0.1268
72905SOL    HW236326   9.166  12.902  11.150 -1.1459 -1.3978  0.0596
72906SOL     OW36327   3.880   0.868   7.001 -0.1391 -0.2006  0.4392
72906SOL    HW136328   3.872   0.928   6.927 -1.2774  1.6508  1.9438
72906SOL    HW236329   3.789   0.853   7.030  0.2038 -1.7209  0.8387
72907SOL     OW36330  12.192   4.549   3.071  0.0935  0.8103 -0.0780
72907SOL    HW136331  12.257   4.490   3.033 -0.0719 -0.4380  1.4754
72907SOL    HW236332  12.244   4.617   3.115  0.3587  0.2561  0.4878
72908SOL     OW36333   8.582  12.076  14.018 -0.3605  0.1300 -0.3020
72908SOL    HW136334   8.550  12.125  14.094 -0.6941 -0.5831  0.0252
72908SOL    HW236335   8.651  12.020  14.053 -1.0831 -0.8147 -0.3511
72909SOL     OW36336   5.217   7.362   6.834 -0.3383 -0.1028  0.2676
72909SOL    HW136337   5.304   7.328   6.813 -1.1127 -1.9383 -0.2286
72909SOL    HW236338   5.159   7.286   6.827 -1.7462  0.6793  2.3189
72910SOL     OW36339   1.499   6.682  10.671  0.2139  0.7257  0.5700
72910SOL    HW136340   1.536   6.623  10.605  1.2345  1.2679  0.6347
72910SOL    HW236341   1.519   6.639  10.754  0.5561  0.9287  0.5960
72911SOL     OW36342   8.508   4.365  12.616 -0.5026 -0.0081  0.3925
72911SOL    HW136343   8.431   4.318  12.647  0.2436 -1.2854  0.3779
72911SOL    HW236344   8.530   4.322  12.533  0.9409 -0.5073  1.0031
72912SOL     OW36345   0.415   2.553  13.233 -0.8378 -0.4315  0.1259
72912SOL    HW136346   0.446   2.545  13.323 -0.7285  0.8201  0.2143
72912SOL    HW236347   0.419   2.647  13.215 -1.4639 -0.6081 -0.9715
72913SOL     OW36348  10.700   4.580   5.395 -0.1018  0.2239  0.1966
72913SOL    HW136349  10.649   4.651   5.355 -2.9076 -1.9845 -0.4356
72913SOL    HW236350  10.663   4.570   5.482  0.8088  0.0440  0.5690
72914SOL     OW36351   1.955  13.976  11.754  0.2025 -0.0562  0.0149
72914SOL    HW136352   1.905  14.056  11.739  0.8167  0.2896 -0.2471
72914SOL    HW236353   1.910  13.932  11.826  0.4207  1.0113  0.8364
72915SOL     OW36354   4.500  11.868  13.920 -0.4639 -0.1215 -0.5228
72915SOL    HW136355   4.497  11.936  13.853 -0.8753  0.4110  0.0248
72915SOL    HW236356   4.538  11.910  13.996  0.0016 -0.7234 -0.4120
72916SOL     OW36357   0.453   9.695   8.037 -0.3392 -0.0982 -0.2420
72916SOL    HW136358   0.397   9.638   7.984 -1.0358 -0.1545  0.5353
72916SOL    HW236359   0.398   9.722   8.110  0.2685  0.8512 -0.1127
72917SOL     OW36360   8.601   3.972   2.827  0.6136  0.0847  0.8209
72917SOL    HW136361   8.617   4.057   2.784  2.3790  0.1219  1.4349
72917SOL    HW236362   8.653   3.910   2.777  0.4897 -0.3604  1.2367
72918SOL     OW36363   3.812  12.415   9.938  0.2283 -0.0373 -0.8133
72918SOL    HW136364   3.817  12.461   9.854  2.3078  0.7323 -0.3128
72918SOL    HW236365   3.876  12.345   9.932 -0.0191 -0.3376 -0.0833
72919SOL     OW36366   2.333   0.381   7.687 -0.3684 -0.3150  0.1973
72919SOL    HW136367   2.388   0.426   7.750 -0.0510 -1.4909  0.7889
72919SOL    HW236368   2.375   0.296   7.675 -0.6615 -0.2797 -1.2777
72920SOL     OW36369   9.201   0.416   9.349  0.3448 -0.1663  0.1364
72920SOL    HW136370   9.255   0.464   9.286  1.0754 -1.4366 -0.2334
72920SOL    HW236371   9.200   0.472   9.427 -1.1626  1.7768 -1.1842
72921SOL     OW36372   3.223   3.076   4.184 -0.1358  0.5248 -0.0865
72921SOL    HW136373   3.228   3.034   4.270  4.7686  1.8979  0.5636
72921SOL    HW236374   3.243   3.006   4.122 -0.2540  0.2397  0.1939
72922SOL     OW36375   4.338   0.981  11.361 -0.0552 -0.0158 -0.0278
72922SOL    HW136376   4.398   0.952  11.430 -0.9665 -0.3388  0.6568
72922SOL    HW236377   4.378   1.061  11.327  0.2702  0.3249  1.0808
72923SOL     OW36378   4.810  13.868   0.643 -0.4538  0.1280  0.8631
72923SOL    HW136379   4.879  13.913   0.693 -0.8436  1.5697  0.1459
72923SOL    HW236380   4.731  13.920   0.658 -0.8800 -0.1959 -0.1594
72924SOL     OW36381   4.311   9.237   2.902  0.4024 -0.4585 -0.0249
72924SOL    HW136382   4.290   9.268   2.989 -0.5023 -0.2199 -0.3186
72924SOL    HW236383   4.395   9.192   2.912  0.2378 -0.5579  0.9858
72925SOL     OW36384   6.337   7.541   0.445 -0.1740 -0.1956 -0.0218
72925SOL    HW136385   6.341   7.537   0.349  0.9229 -0.2295  0.0199
72925SOL    HW236386   6.405   7.481   0.474  0.8185  1.2499  0.7601
72926SOL     OW36387  13.078   8.035   1.354  0.2924 -0.4452  0.4513
72926SOL    HW136388  13.094   7.987   1.273 -0.8873  0.1629 -0.1635
72926SOL    HW236389  13.010   7.984   1.399  0.9311 -0.7727  1.0780
72927SOL     OW36390   0.173   7.356   4.924  0.3605  0.3627  0.1438
72927SOL    HW136391   0.183   7.442   4.965 -1.2745  1.0157 -0.7328
72927SOL    HW236392   0.092   7.362   4.875  0.4262 -1.5670 -0.2933
72928SOL     OW36393  10.203   6.301   2.822  0.5056  0.3365  1.2158
72928SOL    HW136394  10.240   6.269   2.905  0.8441 -0.2784  0.8379
72928SOL    HW236395  10.240   6.242   2.756 -0.5624  0.1876  0.7422
72929SOL     OW36396   1.039   6.013  12.919 -0.4192  0.2063 -0.1721
72929SOL    HW136397   0.948   6.041  12.923 -0.1778  0.8895  0.9837
72929SOL    HW236398   1.079   6.050  12.998  1.0987  0.7710 -1.1679
72930SOL     OW36399  12.702   8.240   7.226 -0.1693 -0.0109  0.2555
72930SOL    HW136400  12.782   8.210   7.268 -0.1224  0.5519  0.5832
72930SOL    HW236401  12.727   8.322   7.182 -0.4967  0.0277  0.1357
72931SOL     OW36402  11.002   5.416   3.652 -0.3722  0.0697  0.2788
72931SOL    HW136403  11.083   5.376   3.621 -1.0048 -0.8532 -0.2090
72931SOL    HW236404  11.012   5.420   3.748  0.3525  0.2170  0.2015
72932SOL     OW36405   2.623   6.321   2.220  0.4014  0.0225  0.0379
72932SOL    HW136406   2.534   6.295   2.243  0.7378 -0.8491  0.3880
72932SOL    HW236407   2.612   6.391   2.156 -0.5779  2.0846  2.2907
72933SOL     OW36408  11.624   2.203   6.295  0.2193 -0.1596  0.3303
72933SOL    HW136409  11.683   2.140   6.336  2.3991  0.0318 -2.2550
72933SOL    HW236410  11.647   2.287   6.334 -0.6720 -0.4943  1.6585
72934SOL     OW36411   2.313   8.449   9.704  0.0647  0.2030 -0.0131
72934SOL    HW136412   2.386   8.389   9.686  0.4317  0.9189 -0.9823
72934SOL    HW236413   2.261   8.404   9.771  0.9537 -0.6792  0.1085
72935SOL     OW36414   9.850   0.447   8.828 -0.3624  0.2349 -0.5285
72935SOL    HW136415   9.938   0.482   8.842 -0.5755  1.0367 -1.1396
72935SOL    HW236416   9.826   0.409   8.912 -0.0136  1.3457  0.0965
72936SOL     OW36417   4.053   1.565   0.105 -0.3439 -0.0855 -0.7540
72936SOL    HW136418   3.980   1.568   0.167  0.0372  0.2686 -0.3112
72936SOL    HW236419   4.019   1.609   0.027 -0.1246  1.4900 -0.0102
72937SOL     OW36420   1.324  10.945   8.268 -0.0132  0.1662  0.2052
72937SOL    HW136421   1.333  10.880   8.337  0.7821  1.3791  1.2802
72937SOL    HW236422   1.267  11.012   8.306 -0.4097  0.3574 -0.6973
72938SOL     OW36423   5.859   7.389   3.200  0.1648 -0.6411 -0.2239
72938SOL    HW136424   5.784   7.420   3.149 -0.2251 -1.8458 -0.4092
72938SOL    HW236425   5.936   7.414   3.148 -0.1442 -0.1241 -0.4303
72939SOL     OW36426   8.308   4.859   4.266 -0.4302  0.2737 -0.3676
72939SOL    HW136427   8.332   4.937   4.217  1.7407  1.1609  1.9115
72939SOL    HW236428   8.385   4.802   4.260 -1.1033 -0.7023 -0.0543
72940SOL     OW36429   4.646   2.489  12.944 -0.0982 -0.1373  0.1443
72940SOL    HW136430   4.642   2.519  12.853 -0.7250 -1.4433 -0.2789
72940SOL    HW236431   4.730   2.444  12.951 -0.1616 -0.2542  0.1453
72941SOL     OW36432  13.528   6.796   1.001  0.0737  0.9590  0.2346
72941SOL    HW136433  13.541   6.756   1.087  0.7850 -2.0931 -1.1824
72941SOL    HW236434  13.435   6.822   1.000 -0.1443  0.2986  1.6019
72942SOL     OW36435   4.531   2.003   8.137  0.3815  0.1160  0.4051
72942SOL    HW136436   4.522   2.093   8.168 -0.1543 -0.2956  1.4526
72942SOL    HW236437   4.530   1.949   8.216 -0.6752 -0.9296 -0.2968
72943SOL     OW36438   0.672  13.666  10.370 -0.1795 -0.7814  0.1380
72943SOL    HW136439   0.678  13.599  10.438 -2.7919 -1.4618 -0.2241
72943SOL    HW236440   0.579  13.688  10.365 -0.1232 -0.7424 -3.1629
72944SOL     OW36441  13.417   5.026   7.803 -0.0108  0.4390 -0.3895
72944SOL    HW136442  13.399   5.024   7.709  0.1473 -0.2809 -0.4111
72944SOL    HW236443  13.445   4.936   7.824 -1.7606  0.0895  0.6619
72945SOL     OW36444   4.556   8.418   4.078 -0.6252 -0.5868 -0.2155
72945SOL    HW136445   4.650   8.418   4.061 -0.5338 -0.9349  0.2606
72945SOL    HW236446   4.549   8.437   4.172 -1.0575  0.1337 -0.3872
72946SOL     OW36447   3.545   9.278  12.985  0.6077 -0.0127 -0.2635
72946SOL    HW136448   3.532   9.350  13.047  0.6971  0.7524 -1.1160
72946SOL    HW236449   3.639   9.262  12.986  0.4055 -1.3404  1.2473
72947SOL     OW36450  10.248   9.368   5.569 -0.1267  0.2072  0.6082
72947SOL    HW136451  10.314   9.300   5.582  0.8018  1.2472  1.4905
72947SOL    HW236452  10.164   9.322   5.578  0.4771 -0.7289  1.7450
72948SOL     OW36453   8.130  13.337   8.013 -0.0505  0.1249  0.4144
72948SOL    HW136454   8.202  13.284   8.048 -0.2930 -0.4147  0.1046
72948SOL    HW236455   8.078  13.276   7.961 -1.4732  0.2160  1.6818
72949SOL     OW36456   4.156   3.728  11.470 -0.4409 -0.6185 -0.3984
72949SOL    HW136457   4.097   3.783  11.418 -0.7403 -0.3724  0.1929
72949SOL    HW236458   4.217   3.790  11.510 -0.5964 -0.7435  0.0343
72950SOL     OW36459   5.505  10.558  12.696  0.2495  0.1800 -0.0779
72950SOL    HW136460   5.513  10.587  12.787 -1.8091 -2.8414  1.2293
72950SOL    HW236461   5.582  10.504  12.681  1.4216  1.9515 -0.7690
72951SOL     OW36462   8.953  14.035   8.112  0.5650  0.3446 -0.2654
72951SOL    HW136463   8.950  14.055   8.018 -0.7379  0.3874 -0.2382
72951SOL    HW236464   8.978  13.943   8.117 -0.7445 -0.0727 -0.7496
72952SOL     OW36465   9.906   3.276   9.226  0.4069 -0.4678  0.6324
72952SOL    HW136466   9.851   3.354   9.230 -2.0309 -1.7962 -2.3627
72952SOL    HW236467   9.858   3.210   9.276  1.1604 -0.7568  0.9975
72953SOL     OW36468   7.126   3.071   5.467  0.0405 -0.5128 -0.1002
72953SOL    HW136469   7.059   3.115   5.519 -1.3684 -1.7211 -0.8167
72953SOL    HW236470   7.088   3.064   5.380  0.8478 -1.8146 -0.3708
72954SOL     OW36471   5.168   5.127  11.537  0.3544 -0.0013 -0.8936
72954SOL    HW136472   5.211   5.212  11.524  0.6709 -0.2361 -1.4135
72954SOL    HW236473   5.161   5.090  11.449 -0.8173 -0.0196 -0.8049
72955SOL     OW36474   4.013  13.836   7.597 -0.4894 -0.1135 -0.1669
72955SOL    HW136475   3.921  13.810   7.600  0.1073 -2.4779  3.0310
72955SOL    HW236476   4.054  13.772   7.539 -0.5405 -0.4915  0.2062
72956SOL     OW36477   5.612  13.208   0.367  0.4252 -0.5724  0.2525
72956SOL    HW136478   5.665  13.266   0.422  1.0189 -1.6365  0.8152
72956SOL    HW236479   5.553  13.268   0.321  1.6311  0.5819  0.1335
72957SOL     OW36480  13.657   4.055   8.323  0.1974  0.2854  0.1942
72957SOL    HW136481  13.753   4.059   8.327  0.1323  1.0757  1.6993
72957SOL    HW236482  13.637   4.067   8.230  1.5603  0.1178 -0.1428
72958SOL     OW36483   1.554  12.926   6.919 -0.3302 -0.1950  0.1016
72958SOL    HW136484   1.522  12.845   6.879  0.4674 -0.4516 -0.0291
72958SOL    HW236485   1.474  12.973   6.944 -0.9308  0.4926 -2.7477
72959SOL     OW36486   1.071   5.566   3.727 -0.1711  0.0757  0.1048
72959SOL    HW136487   1.127   5.631   3.687 -0.6863  0.5036  0.0672
72959SOL    HW236488   0.986   5.577   3.683 -0.2156 -0.7454 -0.0401
72960SOL     OW36489   2.652   3.367   2.342  0.3393 -0.5502 -0.3278
72960SOL    HW136490   2.702   3.363   2.424 -0.9137  0.1908  0.4901
72960SOL    HW236491   2.648   3.276   2.313 -2.4982 -1.4947  2.4985
72961SOL     OW36492   5.483   9.931  10.641  0.3085 -0.0252  0.0743
72961SOL    HW136493   5.473   9.894  10.729  0.3309  0.8747  0.4746
72961SOL    HW236494   5.444  10.018  10.648 -0.6051 -0.3205 -1.0885
72962SOL     OW36495   7.492   2.531   4.094  0.0322  0.2180 -0.0820
72962SOL    HW136496   7.538   2.491   4.020 -3.3819 -0.9097 -1.8152
72962SOL    HW236497   7.485   2.461   4.159 -0.8944 -0.2757 -0.6827
72963SOL     OW36498  12.994   6.079   0.113  0.1024 -0.6220 -0.0594
72963SOL    HW136499  13.044   6.077   0.031  2.8030 -1.9247  1.4856
72963SOL    HW236500  12.967   5.987   0.126 -1.3905 -0.2116 -0.0532
72964SOL     OW36501   9.505  12.217  11.739 -0.0980 -0.4100  0.4661
72964SOL    HW136502   9.537  12.227  11.650 -2.8103 -0.5687 -0.6364
72964SOL    HW236503   9.471  12.304  11.762 -0.6817 -0.7211  0.7923
72965SOL     OW36504   3.513   3.751  12.072  0.2401 -0.5039 -0.2032
72965SOL    HW136505   3.558   3.767  11.989 -2.7816 -1.6199 -2.2710
72965SOL    HW236506   3.423   3.781  12.056 -0.3282 -0.1458  2.9523
72966SOL     OW36507  13.302   9.479   7.744 -0.0950 -0.1134  0.0768
72966SOL    HW136508  13.221   9.457   7.792  0.4261 -0.6312  0.7411
72966SOL    HW236509  13.372   9.437   7.795  0.4805 -0.7299 -1.1776
72967SOL     OW36510   8.578   9.298   5.261  0.1185  0.2843  0.3220
72967SOL    HW136511   8.485   9.319   5.253  0.0025 -0.6013 -0.8656
72967SOL    HW236512   8.585   9.250   5.344 -0.6763 -0.5871 -0.0966
72968SOL     OW36513   3.815   7.277  11.933  0.0940  0.0521  0.4654
72968SOL    HW136514   3.824   7.370  11.957  1.6888  0.5867 -1.8031
72968SOL    HW236515   3.845   7.274  11.842 -0.1786 -2.6673  0.4087
72969SOL     OW36516   9.960  13.649   6.403  0.2420 -0.2300  0.4484
72969SOL    HW136517   9.948  13.681   6.313  1.0003 -1.8539 -0.2715
72969SOL    HW236518   9.881  13.600   6.422  0.9630 -1.6792 -0.1637
72970SOL     OW36519  11.192   0.002  13.753 -0.4355 -0.1394  0.5179
72970SOL    HW136520  11.283   0.020  13.727 -0.0370 -0.4205  1.6685
72970SOL    HW236521  11.140   0.060  13.698  0.5613  1.5528  1.2661
72971SOL     OW36522   2.393   2.337   1.325 -0.5164 -0.1843 -0.2813
72971SOL    HW136523   2.339   2.380   1.391 -0.7387  0.4629 -0.8663
72971SOL    HW236524   2.483   2.349   1.356 -0.6038  0.3362 -0.2085
72972SOL     OW36525   3.303   2.487   6.250 -0.6241 -0.1758 -0.2972
72972SOL    HW136526   3.248   2.564   6.265 -0.2597 -0.3277  2.5030
72972SOL    HW236527   3.388   2.524   6.225 -0.8688  0.2743 -0.4826
72973SOL     OW36528  11.767   0.988   8.756 -0.0656  0.1931  0.1949
72973SOL    HW136529  11.796   0.897   8.759  1.1372  0.3703 -2.7862
72973SOL    HW236530  11.838   1.038   8.797  0.4478 -0.0251 -0.4092
72974SOL     OW36531  11.470  11.053   7.614  0.0064 -0.2773 -0.3194
72974SOL    HW136532  11.554  11.016   7.587  0.1410 -0.2775  0.0907
72974SOL    HW236533  11.414  11.042   7.538 -0.0601 -1.6764 -0.0998
72975SOL     OW36534   0.619   3.303   6.457  0.7719 -0.4326 -0.5483
72975SOL    HW136535   0.573   3.317   6.374 -1.1292  0.4730  0.6030
72975SOL    HW236536   0.635   3.391   6.492  0.7487 -0.8159  0.4648
72976SOL     OW36537   3.991  10.888   1.216  0.1881 -0.2000  0.4482
72976SOL    HW136538   3.954  10.802   1.239 -0.4262  0.2343  1.1035
72976SOL    HW236539   3.930  10.923   1.151  0.8550 -0.5751 -0.4014
72977SOL     OW36540  11.089   5.195   7.012 -0.1511 -0.5874  0.0597
72977SOL    HW136541  11.169   5.185   6.960 -0.8748 -1.4340 -0.9401
72977SOL    HW236542  11.019   5.204   6.948 -0.8583  0.3080  0.9216
72978SOL     OW36543  13.766   9.728   8.358  0.1890 -0.3958 -0.1385
72978SOL    HW136544  13.852   9.748   8.320  1.4445 -0.5884  2.4299
72978SOL    HW236545  13.727   9.814   8.373  1.3883 -0.1156  1.7117
72979SOL     OW36546  11.424   0.427   4.882  0.0211  0.2943  0.4635
72979SOL    HW136547  11.397   0.335   4.870 -1.3348  0.6588  0.5401
72979SOL    HW236548  11.513   0.430   4.849  0.3749 -1.2272  1.1670
72980SOL     OW36549  14.058  10.398  12.281 -0.4504  0.2158  0.2075
72980SOL    HW136550  14.068  10.304  12.261 -2.4792 -0.1631  0.7330
72980SOL    HW236551  14.003  10.431  12.210 -0.7787  0.7081  0.6848
72981SOL     OW36552   5.878   0.288   1.450 -0.3880 -0.9872 -0.1002
72981SOL    HW136553   5.970   0.308   1.465 -0.9187 -0.3948  2.9291
72981SOL    HW236554   5.877   0.194   1.430  0.8414 -0.9929 -0.2179
72982SOL     OW36555  13.654   1.812  12.813  0.2321  0.0269  0.3758
72982SOL    HW136556  13.610   1.883  12.766 -0.3646 -0.5586  0.0319
72982SOL    HW236557  13.587   1.744  12.823  0.5730 -0.1814  1.3827
72983SOL     OW36558   7.080  10.652   6.139 -0.0413  0.0952  0.1521
72983SOL    HW136559   7.152  10.611   6.187  0.1795  1.6701  1.2433
72983SOL    HW236560   7.006  10.592   6.152  0.4030 -0.2632  1.2049
72984SOL     OW36561   9.984   3.567  11.976  0.5271 -0.2795  0.5142
72984SOL    HW136562   9.894   3.535  11.972  0.5710 -0.3222 -1.6702
72984SOL    HW236563  10.006   3.587  11.885  2.1384  1.4114  1.2042
72985SOL     OW36564  11.054  13.185  12.217  0.2615 -0.0072 -0.5476
72985SOL    HW136565  10.985  13.247  12.240  1.2869  0.8653  0.3500
72985SOL    HW236566  11.082  13.148  12.301 -0.5885 -2.0383 -1.0881
72986SOL     OW36567  14.052   2.829  13.373 -0.0366 -0.3386  0.3792
72986SOL    HW136568  14.130   2.855  13.324  0.3498  0.2565  1.2863
72986SOL    HW236569  14.071   2.855  13.463 -0.3305 -2.2825  1.0386
72987SOL     OW36570  12.558   3.274   3.688  0.1219 -0.6778 -0.2035
72987SOL    HW136571  12.524   3.206   3.630  1.1159  0.4868 -2.2906
72987SOL    HW236572  12.651   3.253   3.697 -0.1459 -1.2511  1.6515
72988SOL     OW36573   2.350   8.707   8.277 -0.5414 -0.2166 -0.2845
72988SOL    HW136574   2.345   8.757   8.358  0.3789  0.6097 -0.7018
72988SOL    HW236575   2.444   8.708   8.255 -0.8135 -0.1414 -1.5132
72989SOL     OW36576   9.499  13.079  10.556 -0.4468 -0.2226  0.1398
72989SOL    HW136577   9.533  12.989  10.554  0.7982  0.2085  0.7384
72989SOL    HW236578   9.476  13.097  10.465 -0.0521 -0.9138 -0.1124
72990SOL     OW36579   8.977   7.789   4.725 -0.1674  0.2256  0.0569
72990SOL    HW136580   9.044   7.847   4.688 -0.5608  1.5496  1.3499
72990SOL    HW236581   8.997   7.785   4.818 -0.2117 -1.6839  0.0150
72991SOL     OW36582   4.833   2.025   9.357  0.1621 -0.0298  0.2520
72991SOL    HW136583   4.807   1.984   9.439 -0.4233 -0.8906 -0.3568
72991SOL    HW236584   4.900   1.967   9.321  0.9686  0.7357  0.4680
72992SOL     OW36585   5.600   3.113   9.180 -0.4661  0.4950 -0.1028
72992SOL    HW136586   5.562   3.112   9.268 -0.7580 -0.4117 -0.2346
72992SOL    HW236587   5.525   3.104   9.121 -0.1989  0.3331 -0.4241
72993SOL     OW36588  11.863   1.030   5.358  0.3091 -0.2307 -0.0481
72993SOL    HW136589  11.902   1.105   5.403  0.0310  0.1218 -0.3857
72993SOL    HW236590  11.850   0.965   5.427 -0.2286  0.3487  0.4069
72994SOL     OW36591   5.487   2.708   3.131 -0.0372  0.4470  0.0616
72994SOL    HW136592   5.514   2.792   3.169  1.0818 -0.5305  1.5820
72994SOL    HW236593   5.560   2.683   3.075  1.8878 -1.5770  3.1572
72995SOL     OW36594  13.720   7.535   1.174 -0.3213  0.2450  0.4480
72995SOL    HW136595  13.793   7.554   1.233  1.2168 -1.1694 -0.8852
72995SOL    HW236596  13.753   7.559   1.087 -2.2537  1.5641  0.0286
72996SOL     OW36597   0.134  11.360   3.718 -0.0528  0.0552 -0.6105
72996SOL    HW136598   0.103  11.289   3.774 -2.3368  1.2851 -0.1815
72996SOL    HW236599   0.057  11.415   3.704  1.0169  1.1087 -3.0087
72997SOL     OW36600  12.566   1.310   7.169  0.0767 -0.5912  0.2030
72997SOL    HW136601  12.618   1.386   7.193 -0.0751 -0.4542  0.1007
72997SOL    HW236602  12.511   1.340   7.097 -0.9748 -0.3991  1.0605
72998SOL     OW36603   7.106   4.529   2.615  0.0672 -0.5890  0.4222
72998SOL    HW136604   7.139   4.536   2.705  1.1835 -3.0677  0.2735
72998SOL    HW236605   7.020   4.572   2.618  1.1223  1.6182  2.0217
72999SOL     OW36606   1.929   0.573   9.603 -0.2304 -0.7235 -0.5104
72999SOL    HW136607   2.011   0.595   9.560 -0.9568 -0.8659 -2.0756
72999SOL    HW236608   1.930   0.478   9.610 -0.3141 -0.7364 -0.6622
73000SOL     OW36609   3.120   6.167   1.071  0.3123  0.1601 -0.3899
73000SOL    HW136610   3.188   6.100   1.065  1.2825  1.2320 -1.8492
73000SOL    HW236611   3.146   6.235   1.009 -1.3077  1.3195  0.1126
73001SOL     OW36612  10.753  11.352   5.610 -0.4749  0.2124  0.2791
73001SOL    HW136613  10.769  11.445   5.595  1.9286 -0.1313  0.3826
73001SOL    HW236614  10.664  11.338   5.576 -0.8811  2.5013  0.1992
73002SOL     OW36615   1.850   2.684   5.898 -0.3039  0.7648  0.5720
73002SOL    HW136616   1.900   2.603   5.903  0.4210  1.1821  0.2090
73002SOL    HW236617   1.822   2.690   5.806 -0.1818  1.0235  0.5495
73003SOL     OW36618   2.178   3.791   8.466 -0.1162  0.1963  0.2595
73003SOL    HW136619   2.107   3.752   8.415  1.1772 -0.8442 -0.8140
73003SOL    HW236620   2.167   3.755   8.554 -0.2809 -0.8193 -0.1626
73004SOL     OW36621  12.216   2.187   6.111  0.0499 -0.4959  0.0340
73004SOL    HW136622  12.228   2.135   6.190 -1.9196  1.3322  1.6776
73004SOL    HW236623  12.121   2.189   6.098  0.3209 -0.8997 -2.5378
73005SOL     OW36624   5.549  11.519   2.043 -0.2134  0.4522  0.1989
73005SOL    HW136625   5.493  11.455   2.087 -1.7338  1.7907  0.3397
73005SOL    HW236626   5.488  11.579   2.001  1.1844  0.5478 -1.8337
73006SOL     OW36627   4.870  11.054  12.601  0.0729 -0.0139 -0.2038
73006SOL    HW136628   4.799  11.082  12.544 -0.5886 -1.9168 -0.3718
73006SOL    HW236629   4.924  10.997  12.546  2.1355  1.8326 -0.2630
73007SOL     OW36630  13.298   3.046   5.488  1.0899 -0.3137 -0.0380
73007SOL    HW136631  13.339   3.127   5.456  0.6671  0.4741  1.3341
73007SOL    HW236632  13.315   2.982   5.419 -0.2004  1.3961 -2.0621
73008SOL     OW36633   4.667   4.728   4.960 -0.4570 -0.3847  0.5674
73008SOL    HW136634   4.619   4.764   4.885 -2.1405 -1.4928  1.0418
73008SOL    HW236635   4.598   4.702   5.022  0.7506 -2.0111  1.3134
73009SOL     OW36636   5.113   0.298   5.977 -0.1571 -0.0041 -0.1698
73009SOL    HW136637   5.037   0.242   5.964  0.6271 -1.0549 -0.4244
73009SOL    HW236638   5.175   0.243   6.024  0.3864  0.8826  0.1695
73010SOL     OW36639   2.291   4.025   7.313  0.2251  0.1054 -1.0371
73010SOL    HW136640   2.248   3.949   7.353 -0.2930  0.7982 -0.2394
73010SOL    HW236641   2.282   4.094   7.378  2.5669  0.2965 -0.8304
73011SOL     OW36642   1.639  12.556   0.597 -0.1428 -0.0932  0.4508
73011SOL    HW136643   1.554  12.592   0.571 -0.4569 -1.2059 -0.1130
73011SOL    HW236644   1.678  12.525   0.516  0.5882 -0.0496  0.7822
73012SOL     OW36645   7.766   8.421   5.489 -0.5269 -0.0899 -0.4879
73012SOL    HW136646   7.714   8.342   5.497  1.2582 -1.4591 -1.7025
73012SOL    HW236647   7.856   8.390   5.479  0.2147  2.0872 -1.1876
73013SOL     OW36648  13.588   2.276   5.354  0.0954 -0.1612  0.1628
73013SOL    HW136649  13.656   2.303   5.415  2.0804 -1.4341 -1.3416
73013SOL    HW236650  13.531   2.218   5.405  0.9982 -0.2491  1.0918
73014SOL     OW36651   8.211   0.021  13.436  0.2943  0.2176 -0.8728
73014SOL    HW136652   8.129   0.065  13.459 -0.5111 -1.0047 -1.3037
73014SOL    HW236653   8.279   0.073  13.479 -0.7226  1.1203 -0.3111
73015SOL     OW36654   9.369  13.655   8.991  1.2572  0.2266  0.1401
73015SOL    HW136655   9.312  13.666   8.915  1.0877 -0.1633  0.2076
73015SOL    HW236656   9.341  13.571   9.030 -0.0844  1.3755  1.8435
73016SOL     OW36657  12.469   7.606   4.674  0.9159  0.4211 -0.4430
73016SOL    HW136658  12.563   7.619   4.685  0.7286  1.3798  0.1876
73016SOL    HW236659  12.429   7.673   4.730 -0.1460 -0.5460  0.0023
73017SOL     OW36660  13.597  10.529  12.425 -0.4156 -0.3036  0.0887
73017SOL    HW136661  13.656  10.467  12.383 -1.4520 -0.2573 -1.5214
73017SOL    HW236662  13.579  10.595  12.358 -1.3818  0.3073  0.9165
73018SOL     OW36663   2.119  12.690  12.164  0.0213  0.3857 -0.4033
73018SOL    HW136664   2.079  12.605  12.148 -1.4600  0.9637  0.0543
73018SOL    HW236665   2.160  12.714  12.081  0.8116 -0.9216 -0.4228
73019SOL     OW36666   1.898   5.398   3.068 -0.3581 -0.3141  0.1797
73019SOL    HW136667   1.807   5.368   3.061  0.2665 -1.9117 -3.6219
73019SOL    HW236668   1.950   5.325   3.034  2.1250  1.6120 -0.4643
73020SOL     OW36669  12.184  11.121   2.461  0.3393  0.6086  0.8439
73020SOL    HW136670  12.243  11.070   2.407 -0.5294  0.2178  0.2477
73020SOL    HW236671  12.115  11.151   2.402 -1.4152 -1.0203  1.9385
73021SOL     OW36672   3.757   8.752   9.745  0.2970 -0.3912 -0.3171
73021SOL    HW136673   3.700   8.694   9.695 -0.4496 -0.2488  0.3428
73021SOL    HW236674   3.786   8.818   9.682 -1.0162  0.0705 -0.4759
73022SOL     OW36675   8.872   0.774   0.004  0.3109 -0.3140  0.2377
73022SOL    HW136676   8.950   0.794   0.056  0.1316  0.4175  0.2353
73022SOL    HW236677   8.809   0.738   0.068  0.5782 -0.7157  0.2749
73023SOL     OW36678   7.998  13.814   3.361  0.1002 -0.1822  0.4845
73023SOL    HW136679   8.001  13.729   3.317  1.2888 -0.8969  1.8632
73023SOL    HW236680   8.086  13.850   3.348 -0.0715  0.3581  0.8202
73024SOL     OW36681   4.536  10.586   7.521 -0.0858  0.5652  0.0742
73024SOL    HW136682   4.455  10.577   7.470  0.3597 -0.1605 -0.5330
73024SOL    HW236683   4.589  10.647   7.470 -0.0968  0.7481  0.2798
73025SOL     OW36684   0.968  12.256   1.988 -0.0169 -0.3154  0.4956
73025SOL    HW136685   0.950  12.349   1.977  0.4376 -0.2071  0.6338
73025SOL    HW236686   1.036  12.237   1.924  0.0661 -0.4966  0.6382
73026SOL     OW36687   2.155  11.237   2.658  0.0628 -0.0040  0.2393
73026SOL    HW136688   2.091  11.282   2.714  0.6925 -0.9797  1.8178
73026SOL    HW236689   2.227  11.215   2.717  2.2922  1.7457 -1.6171
73027SOL     OW36690   2.720  11.323   8.081 -0.7281 -0.1347  0.0170
73027SOL    HW136691   2.663  11.280   8.145 -0.1299 -1.1500 -0.1258
73027SOL    HW236692   2.791  11.261   8.066 -1.3546 -0.3614 -2.3765
73028SOL     OW36693   8.031   1.527  12.034 -0.0387 -0.4058  0.2421
73028SOL    HW136694   7.984   1.446  12.012 -0.1240 -0.3050  0.0472
73028SOL    HW236695   8.083   1.546  11.955 -2.2463  1.3330 -0.9214
73029SOL     OW36696   3.693  11.535   7.353  0.3726 -0.1848 -0.1754
73029SOL    HW136697   3.670  11.491   7.435 -0.1607  0.8685  0.2635
73029SOL    HW236698   3.609  11.558   7.314  0.6195 -0.9453 -1.1827
73030SOL     OW36699  10.207  13.783   8.342  0.5058 -0.1649  0.6926
73030SOL    HW136700  10.254  13.734   8.275  1.2019  0.2371  0.8685
73030SOL    HW236701  10.251  13.759   8.424  0.4028  0.2073  0.8613
73031SOL     OW36702   6.426   0.084   4.314  0.3265  0.1746 -0.4925
73031SOL    HW136703   6.448   0.015   4.376 -1.3172  0.8766  0.9551
73031SOL    HW236704   6.436   0.165   4.364 -0.0850  0.8280 -1.4454
73032SOL     OW36705   6.638   4.423   4.178  0.2219 -0.2661  0.1554
73032SOL    HW136706   6.730   4.435   4.153  0.5343  0.3198  1.5099
73032SOL    HW236707   6.634   4.332   4.209  0.1194 -0.5869 -0.7635
73033SOL     OW36708  12.388   7.349   5.680 -0.2383 -0.0435 -0.4235
73033SOL    HW136709  12.360   7.269   5.724  1.0164 -0.1312  0.2609
73033SOL    HW236710  12.317   7.370   5.620 -0.8020 -1.3918 -0.2486
73034SOL     OW36711   4.146   2.672  13.443 -0.3455 -0.1139  0.9280
73034SOL    HW136712   4.131   2.661  13.537 -1.8514  1.4893  0.9383
73034SOL    HW236713   4.060   2.660  13.404 -0.0830  1.0216 -0.0432
73035SOL     OW36714  13.674   6.643  13.669 -0.0529 -0.0297  0.3654
73035SOL    HW136715  13.706   6.578  13.733  1.3294  0.7407  0.4896
73035SOL    HW236716  13.641   6.590  13.596  2.4603 -0.9206 -0.2211
73036SOL     OW36717   7.280   4.350   8.682  0.2325 -0.0498 -0.2518
73036SOL    HW136718   7.220   4.405   8.632  0.0824  1.0210  1.0640
73036SOL    HW236719   7.285   4.391   8.768  1.5608 -1.0675  0.1962
73037SOL     OW36720   1.618   9.865   4.328  0.0946 -0.5820 -0.5803
73037SOL    HW136721   1.527   9.837   4.313 -0.2163 -0.4270  0.8615
73037SOL    HW236722   1.610   9.941   4.384  1.0917  0.2925 -1.5787
73038SOL     OW36723   5.335  13.383  11.275  0.1015 -0.1183 -0.3111
73038SOL    HW136724   5.417  13.423  11.249  0.0113  0.8665  0.8393
73038SOL    HW236725   5.348  13.289  11.260  0.7902  0.1846 -1.7781
73039SOL     OW36726   2.289  13.768   1.344  0.1684 -0.2215 -0.4104
73039SOL    HW136727   2.315  13.682   1.376  0.1316  0.0700  0.4255
73039SOL    HW236728   2.208  13.789   1.392  0.9119  0.8567  0.4191
73040SOL     OW36729  13.647   0.779   3.887  0.0551  0.3515  0.1200
73040SOL    HW136730  13.601   0.806   3.807 -0.5976  1.3363  0.8066
73040SOL    HW236731  13.581   0.784   3.956  0.5395 -0.7644  0.6892
73041SOL     OW36732   8.114   9.074  13.467 -0.1862 -0.1257  0.6645
73041SOL    HW136733   8.089   9.156  13.424  0.3161 -0.6077 -0.5972
73041SOL    HW236734   8.063   9.007  13.423 -0.2469 -0.5528  1.3718
73042SOL     OW36735   1.933   8.969   3.233 -0.1114 -0.5408  0.0222
73042SOL    HW136736   1.889   9.020   3.301  0.3031  0.5703 -0.5160
73042SOL    HW236737   1.924   9.022   3.154  0.2669 -1.3485 -0.5769
73043SOL     OW36738   9.495   2.161   8.632  0.2877  0.1386 -0.1884
73043SOL    HW136739   9.406   2.170   8.598 -0.5410 -1.1294  1.4897
73043SOL    HW236740   9.496   2.076   8.675  1.2997  1.4621  2.6862
73044SOL     OW36741   3.206   2.305   4.478 -0.2323  0.4915  0.0251
73044SOL    HW136742   3.156   2.223   4.483 -0.1317  0.4851  1.0472
73044SOL    HW236743   3.289   2.285   4.520  0.0341  0.9485 -0.2818
73045SOL     OW36744  12.724  10.755  13.057 -0.3842  1.1620  0.4118
73045SOL    HW136745  12.664  10.751  13.131 -0.9155  1.1060 -0.0166
73045SOL    HW236746  12.764  10.842  13.062 -0.4246  1.1583  0.7578
73046SOL     OW36747   8.588  12.234   6.202  0.1891 -0.1537  0.3466
73046SOL    HW136748   8.520  12.268   6.260  1.2831 -1.4872  2.5118
73046SOL    HW236749   8.638  12.173   6.256  1.3492 -1.4028 -1.9898
73047SOL     OW36750   0.187   8.827   7.105 -0.3844 -0.4496 -0.0081
73047SOL    HW136751   0.279   8.851   7.094  0.5925 -2.2536  2.9970
73047SOL    HW236752   0.181   8.738   7.071 -1.2519 -0.0712 -0.8889
73048SOL     OW36753   3.302   5.784  13.539 -0.7863 -0.0635  0.5452
73048SOL    HW136754   3.346   5.853  13.491 -0.3716 -0.7503 -0.0849
73048SOL    HW236755   3.216   5.820  13.560 -0.1592  1.0755  1.2777
73049SOL     OW36756   2.791   8.583  11.892  0.0987 -0.2857  0.1807
73049SOL    HW136757   2.759   8.526  11.823  0.5405  1.6954 -1.7741
73049SOL    HW236758   2.802   8.526  11.968  0.5527 -2.7808 -1.6443
73050SOL     OW36759   3.883   2.346  10.996  0.2141 -0.9528  0.6818
73050SOL    HW136760   3.817   2.282  11.027 -1.2031 -0.1802 -0.6315
73050SOL    HW236761   3.941   2.295  10.940 -0.0174 -1.3932  0.8353
73051SOL     OW36762   1.312  12.896   0.618  0.3029 -0.4478  0.3604
73051SOL    HW136763   1.271  12.813   0.595 -0.2125 -0.8184  2.3889
73051SOL    HW236764   1.286  12.912   0.709  0.0736  2.1363 -0.0615
73052SOL     OW36765   9.676   8.217   2.551  0.6694  0.0905  0.7152
73052SOL    HW136766   9.674   8.279   2.477 -1.8976 -0.8917 -0.1547
73052SOL    HW236767   9.721   8.140   2.516  1.2209  0.3542  0.8339
73053SOL     OW36768  12.190   5.060   9.450  0.3883 -0.0755  0.3185
73053SOL    HW136769  12.248   5.129   9.483 -0.6425  1.5763 -1.1051
73053SOL    HW236770  12.102   5.096   9.464 -0.1432 -0.6580 -1.3436
73054SOL     OW36771   2.648   0.324   1.146 -0.4480 -0.1486 -0.2907
73054SOL    HW136772   2.614   0.360   1.228 -0.3866 -0.7111 -0.0079
73054SOL    HW236773   2.572   0.319   1.088 -0.5157  0.1433 -0.2251
73055SOL     OW36774   4.852   8.803   5.121 -0.2935 -0.0317  0.2066
73055SOL    HW136775   4.773   8.810   5.068 -1.3056  1.3204  1.7709
73055SOL    HW236776   4.844   8.875   5.184  3.0223  1.2043 -0.6269
73056SOL     OW36777   0.436   9.095   3.477  0.2374 -0.3706  0.3265
73056SOL    HW136778   0.389   9.021   3.437  2.1503 -1.9832  0.8669
73056SOL    HW236779   0.496   9.125   3.408 -1.0044  1.1952 -0.1237
73057SOL     OW36780   6.337   3.949   5.661  0.0115 -0.0141 -0.3971
73057SOL    HW136781   6.406   4.001   5.620  0.4491  1.8439  2.4107
73057SOL    HW236782   6.264   4.011   5.670 -0.0769 -0.3436  1.4692
73058SOL     OW36783   2.466  13.784   3.711  0.8241 -0.2392 -0.1636
73058SOL    HW136784   2.523  13.805   3.637  0.7098  0.7070  0.0068
73058SOL    HW236785   2.513  13.718   3.760  0.8363 -0.9999 -1.1615
73059SOL     OW36786  11.107   2.877   1.693 -0.3920  0.3748  0.4916
73059SOL    HW136787  11.150   2.843   1.771 -1.6828 -1.9248  0.2689
73059SOL    HW236788  11.039   2.936   1.727  0.9936  1.8036  0.9264
73060SOL     OW36789  10.081   3.246   3.203  0.2314 -0.2663 -0.2887
73060SOL    HW136790  10.136   3.228   3.279 -2.5279 -1.5587  1.5693
73060SOL    HW236791  10.046   3.334   3.218 -2.1576 -1.3866  1.3175
73061SOL     OW36792  12.647   3.740  12.189  0.1979  0.2337  0.2037
73061SOL    HW136793  12.578   3.788  12.235  1.2660  1.8106  0.2502
73061SOL    HW236794  12.706   3.710  12.259  0.5033  0.4608  0.0465
73062SOL     OW36795   8.212   2.783   8.211 -0.1595  0.0388  0.1873
73062SOL    HW136796   8.147   2.852   8.201  1.1214  1.4529  1.1880
73062SOL    HW236797   8.201   2.728   8.133 -1.5169  1.0935 -0.3977
73063SOL     OW36798  13.455   7.211   2.162 -0.1455 -0.1885  0.0073
73063SOL    HW136799  13.428   7.191   2.252  0.0551  1.8462  0.5663
73063SOL    HW236800  13.541   7.170   2.154 -0.9208 -1.9284  0.0985
73064SOL     OW36801   2.839  13.331   8.488 -0.1117  0.4564 -0.0237
73064SOL    HW136802   2.749  13.361   8.494  0.4200  2.0139  0.9224
73064SOL    HW236803   2.890  13.401   8.530  1.5287 -0.3753 -0.5441
73065SOL     OW36804   1.881   5.496   9.836 -0.3621 -0.0703 -0.0027
73065SOL    HW136805   1.904   5.532   9.922 -0.2284 -0.0937 -0.0295
73065SOL    HW236806   1.788   5.517   9.826  0.2940  2.6884 -1.1758
73066SOL     OW36807   7.251   4.288  12.200  0.0378  0.5158  0.4114
73066SOL    HW136808   7.265   4.311  12.108 -1.1941  0.3353  0.1667
73066SOL    HW236809   7.172   4.234  12.200  0.1157  0.3725  1.5660
73067SOL     OW36810   1.983  10.992  12.322  0.5081  0.1712 -0.4576
73067SOL    HW136811   1.957  11.079  12.292 -1.8037 -0.5611 -0.7537
73067SOL    HW236812   2.053  11.009  12.384 -0.3137  2.3034  0.0004
73068SOL     OW36813   4.926   7.538   8.411  0.2211  0.2670 -0.6058
73068SOL    HW136814   5.003   7.492   8.379  0.0902 -0.0314 -0.5005
73068SOL    HW236815   4.855   7.475   8.403  0.2102  0.1321  0.3940
73069SOL     OW36816  12.330   8.711   4.363 -0.2337  0.3964 -0.1166
73069SOL    HW136817  12.394   8.654   4.321  0.4750  0.4681  0.8362
73069SOL    HW236818  12.260   8.720   4.299  1.0162  0.8754 -1.4843
73070SOL     OW36819   3.094   9.458  12.586 -0.1205 -0.3255  0.5794
73070SOL    HW136820   3.063   9.445  12.676  0.1141 -0.2747  0.6705
73070SOL    HW236821   3.099   9.370  12.549 -1.6229 -0.2426  0.1292
73071SOL     OW36822  13.915  13.738   7.639  0.4587  0.3008  0.0694
73071SOL    HW136823  13.929  13.725   7.733  0.0202  0.3650  0.1432
73071SOL    HW236824  13.828  13.701   7.622  0.5445  0.2677 -0.3154
73072SOL     OW36825   0.460   3.048   0.402  0.5855 -0.2760 -0.3269
73072SOL    HW136826   0.369   3.031   0.380  0.8828 -0.1539 -1.7741
73072SOL    HW236827   0.477   2.996   0.480 -0.6143 -0.5854 -0.2647
73073SOL     OW36828   6.393  12.630   7.198 -0.2380 -0.0434  0.2976
73073SOL    HW136829   6.328  12.564   7.224 -0.4202  0.8685  2.3973
73073SOL    HW236830   6.452  12.583   7.139 -1.8086 -1.3670 -0.3066
73074SOL     OW36831   3.438   7.498   1.556  0.5134  0.0624  0.6376
73074SOL    HW136832   3.463   7.577   1.605  1.7827 -0.8240  1.5005
73074SOL    HW236833   3.522   7.454   1.538 -0.0811 -0.4977 -0.8652
73075SOL     OW36834   6.837  13.883  11.011 -0.0088  0.5514 -0.4839
73075SOL    HW136835   6.919  13.839  10.988  0.9982  1.4956  1.0955
73075SOL    HW236836   6.776  13.811  11.029  0.6325 -0.1707 -1.1208
73076SOL     OW36837   1.825  12.224  10.590  0.0607 -0.2776  0.3321
73076SOL    HW136838   1.867  12.310  10.588 -0.6114  0.1039  1.5407
73076SOL    HW236839   1.740  12.239  10.548  1.4040 -1.2726 -3.0533
73077SOL     OW36840   6.003   9.026   5.152  0.7158  0.3351 -0.1069
73077SOL    HW136841   6.018   8.937   5.182  0.5044 -1.2458 -4.0317
73077SOL    HW236842   5.924   9.020   5.097  0.5958  2.9681 -0.3574
73078SOL     OW36843   1.117   3.605   2.495  0.6508  0.2365  0.6426
73078SOL    HW136844   1.102   3.581   2.586  0.3047  1.2510  0.8612
73078SOL    HW236845   1.054   3.553   2.445  0.8334 -0.3112  0.9827
73079SOL     OW36846   8.909   0.992  12.774 -0.3194 -0.0062  0.5058
73079SOL    HW136847   8.816   1.013  12.772 -0.3229 -0.0299 -1.3865
73079SOL    HW236848   8.941   1.033  12.854 -1.8988  0.1781  1.0829
73080SOL     OW36849   6.291   3.885   7.486  0.3459  0.3089  0.8916
73080SOL    HW136850   6.373   3.933   7.494 -0.0595  1.7082 -1.9572
73080SOL    HW236851   6.312   3.808   7.434 -0.2744  1.3899 -1.0863
73081SOL     OW36852   9.275   5.494   7.160 -0.4582  0.3540 -0.1359
73081SOL    HW136853   9.182   5.508   7.179 -0.5446  0.4473 -0.5942
73081SOL    HW236854   9.280   5.499   7.064  0.2583  1.7934 -0.0499
73082SOL     OW36855   6.275   3.498  12.409 -0.4042  0.2843 -0.1830
73082SOL    HW136856   6.230   3.573  12.447 -0.7939 -1.5787  3.4016
73082SOL    HW236857   6.216   3.424  12.422  1.1755 -1.1908 -0.9192
73083SOL     OW36858   7.668   5.015   1.604 -0.5616  0.0484  0.2271
73083SOL    HW136859   7.624   4.961   1.538 -1.4540  0.0895  0.7670
73083SOL    HW236860   7.598   5.039   1.665  0.2192  0.1106  1.1204
73084SOL     OW36861   0.779   9.490  10.192 -0.0367 -0.0522  0.1538
73084SOL    HW136862   0.746   9.445  10.114 -0.4151  0.4933 -0.0085
73084SOL    HW236863   0.749   9.436  10.266  0.5804 -0.7364 -0.0824
73085SOL     OW36864   1.194  13.813   9.659 -0.0624  0.3248  0.1270
73085SOL    HW136865   1.204  13.908   9.651 -1.8454  0.4050 -2.5264
73085SOL    HW236866   1.242  13.778   9.584 -0.8614 -0.7270  0.0854
73086SOL     OW36867  12.913  12.299  10.642 -0.0339  0.2102 -0.4669
73086SOL    HW136868  12.966  12.226  10.674 -0.7297 -0.5798 -1.0429
73086SOL    HW236869  12.836  12.300  10.700 -1.0915 -0.9541 -1.7828
73087SOL     OW36870  12.988  12.382   1.718 -0.2479  0.1169 -0.3405
73087SOL    HW136871  13.073  12.342   1.737 -0.2994 -0.1504 -0.6625
73087SOL    HW236872  12.993  12.405   1.625 -0.3917  0.4349 -0.2703
73088SOL     OW36873   2.431   6.156   5.117  0.0567 -0.3338 -0.0664
73088SOL    HW136874   2.481   6.147   5.035  0.9884 -1.2629  0.5737
73088SOL    HW236875   2.479   6.223   5.166 -0.5111  0.2346 -0.2823
73089SOL     OW36876   2.836   5.504  13.810  0.2944 -0.4982  0.4920
73089SOL    HW136877   2.917   5.522  13.857 -0.0522  0.7129  0.6462
73089SOL    HW236878   2.793   5.437  13.863  0.1125  0.5384  1.6879
73090SOL     OW36879  12.417  13.831  11.915  0.3875 -0.2499  0.4094
73090SOL    HW136880  12.384  13.742  11.909  2.4585 -1.0089 -0.9019
73090SOL    HW236881  12.477  13.840  11.840  1.3068  1.7744  1.2923
73091SOL     OW36882   7.515  13.771   7.483 -0.2178 -0.1126  0.3623
73091SOL    HW136883   7.524  13.866   7.491 -0.0604  0.2535 -2.7294
73091SOL    HW236884   7.466  13.744   7.560  2.6833  1.9067  3.1697
73092SOL     OW36885   5.339  12.817   7.174  0.0566  0.6884  0.1788
73092SOL    HW136886   5.393  12.842   7.098  0.3086 -0.9416 -0.2150
73092SOL    HW236887   5.249  12.825   7.143  0.1534  0.2693 -0.2156
73093SOL     OW36888  12.326   3.225   5.365 -0.5562  0.5912 -0.8521
73093SOL    HW136889  12.360   3.145   5.405 -1.0494 -0.3577 -2.2463
73093SOL    HW236890  12.392   3.248   5.299 -0.3736  1.4066 -0.4013
73094SOL     OW36891  10.629   8.037   6.144 -0.1084 -0.4365  0.0816
73094SOL    HW136892  10.538   8.030   6.117 -0.5077  1.5408  0.7373
73094SOL    HW236893  10.626   8.033   6.240  0.2014  1.6602  0.2277
73095SOL     OW36894   4.907   5.202   3.153 -0.4633 -0.4704 -0.2238
73095SOL    HW136895   4.959   5.134   3.196 -0.8045 -0.3324  0.4226
73095SOL    HW236896   4.971   5.266   3.123 -0.3341  0.6971  2.3100
73096SOL     OW36897  10.531  13.011   1.840  0.3225 -0.2146 -0.9610
73096SOL    HW136898  10.572  12.965   1.913  3.2387  2.2789 -0.8421
73096SOL    HW236899  10.510  13.097   1.874 -0.2248  0.3018 -2.5103
73097SOL     OW36900  13.377  10.214   0.404  0.3262 -0.1950 -0.0626
73097SOL    HW136901  13.416  10.155   0.468  1.0109  0.1656 -0.1331
73097SOL    HW236902  13.451  10.264   0.370 -0.0050 -0.5005 -1.2681
73098SOL     OW36903   6.946   9.791   4.141  0.5820 -0.1794 -0.4143
73098SOL    HW136904   6.926   9.873   4.185 -1.4264 -0.7540 -0.1801
73098SOL    HW236905   6.910   9.802   4.053  1.3496 -0.3908 -0.7661
73099SOL     OW36906   6.417   4.214   0.598  0.9881  0.0755 -0.2677
73099SOL    HW136907   6.378   4.260   0.524 -0.5136 -2.9739 -1.5606
73099SOL    HW236908   6.366   4.243   0.674  0.1626  0.6067 -1.0022
73100SOL     OW36909  10.079   4.653  10.543  0.3077  0.3555 -0.4311
73100SOL    HW136910  10.114   4.590  10.480  2.0557  0.7140  0.1226
73100SOL    HW236911  10.024   4.711  10.490  0.4091 -0.3429 -1.3372
73101SOL     OW36912   9.517  12.570  12.739  0.5016 -0.1096 -0.0929
73101SOL    HW136913   9.459  12.580  12.663  0.3840  0.6031  0.0819
73101SOL    HW236914   9.465  12.522  12.803  0.6119 -0.7438 -0.4655
73102SOL     OW36915   1.688  13.135   1.604  0.0644  0.0863  0.1898
73102SOL    HW136916   1.639  13.076   1.661 -2.2856 -1.9425 -3.5532
73102SOL    HW236917   1.644  13.219   1.613  0.1327 -0.0169  1.7250
73103SOL     OW36918   1.562  10.839   7.103 -0.0998 -0.5505  0.0083
73103SOL    HW136919   1.552  10.772   7.035  0.3381 -1.2207  0.6013
73103SOL    HW236920   1.656  10.842   7.121 -0.3057 -1.0803  1.2777
73104SOL     OW36921  11.236   8.737   2.641 -0.7156 -0.3035  0.1278
73104SOL    HW136922  11.206   8.799   2.574 -0.8369  0.2401  0.6758
73104SOL    HW236923  11.328   8.758   2.654 -0.5839 -0.6871 -0.1607
73105SOL     OW36924   4.461   0.401   2.875 -0.6838 -0.2480  0.1423
73105SOL    HW136925   4.542   0.360   2.845 -1.3814 -0.8418 -0.9877
73105SOL    HW236926   4.407   0.327   2.905  0.1858  0.3145  3.5782
73106SOL     OW36927   2.127   2.038  12.016  0.1424 -0.0712 -0.1066
73106SOL    HW136928   2.075   1.995  11.948  0.0796  1.7949 -1.2853
73106SOL    HW236929   2.213   2.052  11.976  0.1419  0.9627  0.2263
73107SOL     OW36930   5.259   9.512   9.349  0.0226 -0.2230 -0.3888
73107SOL    HW136931   5.242   9.423   9.319 -0.2360  0.2876 -1.8347
73107SOL    HW236932   5.333   9.504   9.410  2.2919 -1.0455 -3.0613
73108SOL     OW36933  13.795  12.249   9.925  0.2638  0.1233  0.2093
73108SOL    HW136934  13.721  12.291   9.968  0.1990  1.4899 -1.1591
73108SOL    HW236935  13.831  12.189   9.991 -0.0858  1.8097  1.9952
73109SOL     OW36936  11.184  13.503  11.959 -0.3158 -0.0061 -0.0743
73109SOL    HW136937  11.230  13.421  11.973 -1.0343 -0.2929  0.7523
73109SOL    HW236938  11.132  13.489  11.879  0.9228  0.2958 -0.9643
73110SOL     OW36939   0.500   2.255  13.501 -0.2258 -0.5095  0.1201
73110SOL    HW136940   0.457   2.277  13.419  0.2112  0.2405  0.0803
73110SOL    HW236941   0.518   2.340  13.542  0.0839 -0.8559  0.7126
73111SOL     OW36942   1.449   0.262   7.211  0.1298 -0.1479 -0.4024
73111SOL    HW136943   1.399   0.216   7.278  0.4348  0.6180  0.3790
73111SOL    HW236944   1.526   0.295   7.258  0.9389 -0.5883 -1.3947
73112SOL     OW36945   2.370   1.338   3.958  0.3954 -0.4437 -0.2223
73112SOL    HW136946   2.307   1.270   3.982  0.5482 -0.2635  0.7530
73112SOL    HW236947   2.413   1.361   4.041  0.5964  0.5877 -0.5970
73113SOL     OW36948  14.077  11.466   1.423 -0.0688 -0.3890  0.4302
73113SOL    HW136949  14.172  11.466   1.417  0.0406  1.0973  1.6170
73113SOL    HW236950  14.058  11.414   1.502 -0.3225 -1.4953 -0.3304
73114SOL     OW36951   7.122  13.923  10.574 -0.1665  0.4871 -0.4935
73114SOL    HW136952   7.172  13.857  10.527 -0.5619 -1.3633  1.5229
73114SOL    HW236953   7.032  13.911  10.546 -0.1318  0.7152 -0.7075
73115SOL     OW36954   9.425   7.807   0.076  0.2865 -0.0154  0.6472
73115SOL    HW136955   9.336   7.839   0.060  0.7014  0.5939 -0.5493
73115SOL    HW236956   9.477   7.841   0.003  1.2353 -1.4929  0.5900
73116SOL     OW36957  12.105  13.330   0.603 -0.4311 -0.0146  0.6900
73116SOL    HW136958  12.151  13.296   0.680 -0.6269  1.1900  1.3591
73116SOL    HW236959  12.150  13.290   0.528 -0.2633 -1.2357  1.4137
73117SOL     OW36960  14.058   9.516   5.477  0.0782  0.2720  0.0179
73117SOL    HW136961  14.012   9.539   5.397  0.1889  0.1674 -0.0773
73117SOL    HW236962  14.136   9.571   5.476 -0.7720  1.5388  0.9267
73118SOL     OW36963   2.749   0.907   7.756  0.1656  0.2179  0.0893
73118SOL    HW136964   2.842   0.885   7.754  0.3677  1.0636 -0.2961
73118SOL    HW236965   2.745   0.994   7.796 -0.4691  0.1220  0.2463
73119SOL     OW36966  11.734   7.635  11.044 -1.0550  0.3008  0.2794
73119SOL    HW136967  11.650   7.678  11.032 -1.6553 -1.2506 -1.4834
73119SOL    HW236968  11.798   7.696  11.006 -2.0524 -0.8097 -3.6220
73120SOL     OW36969   2.610   2.946  13.616  0.2939  0.4684 -0.4053
73120SOL    HW136970   2.674   3.016  13.628  0.1525  0.5058  0.1911
73120SOL    HW236971   2.526   2.991  13.607  0.2373  0.3896 -0.2811
73121SOL     OW36972   0.306   9.782   9.968  0.4325 -0.0462  0.3230
73121SOL    HW136973   0.354   9.830  10.035  0.2869  0.8625 -0.2073
73121SOL    HW236974   0.214   9.791   9.993  0.3805  0.2662  0.0163
73122SOL     OW36975   7.180   4.799  13.287  0.0420  0.5793 -0.1790
73122SOL    HW136976   7.270   4.766  13.297 -0.4366 -0.4719  1.0656
73122SOL    HW236977   7.191   4.889  13.256  1.4852  0.0902 -1.2349
73123SOL     OW36978   8.867  13.325   5.741 -0.8450  0.3292  0.1694
73123SOL    HW136979   8.787  13.356   5.699 -0.0254 -0.9838 -2.5502
73123SOL    HW236980   8.931  13.394   5.726 -0.2575 -0.5883 -1.8530
73124SOL     OW36981   9.644  10.992   9.680  0.7227  0.4080  0.6450
73124SOL    HW136982   9.632  10.926   9.612  0.7091  1.0105  0.0457
73124SOL    HW236983   9.600  10.956   9.757  0.3514 -0.0931  0.2060
73125SOL     OW36984   7.136   1.824   7.457 -0.0453  0.5609 -0.7189
73125SOL    HW136985   7.190   1.869   7.392  0.0939  2.2112  0.4787
73125SOL    HW236986   7.081   1.764   7.405  2.3238 -0.6039 -2.0443
73126SOL     OW36987   8.760  11.041   7.310  0.2700 -0.1094  0.0086
73126SOL    HW136988   8.854  11.051   7.327  0.4264  1.4996 -1.5235
73126SOL    HW236989   8.719  11.112   7.359  0.0825  0.5560 -1.1020
73127SOL     OW36990  11.208   9.521   0.679  0.2145  0.7579  0.1739
73127SOL    HW136991  11.269   9.547   0.610 -0.2373 -1.0703 -0.9958
73127SOL    HW236992  11.261   9.466   0.738 -0.6127 -2.5417 -1.9407
73128SOL     OW36993   7.859  11.796   9.959 -0.3923 -0.6244  0.0484
73128SOL    HW136994   7.901  11.875   9.924 -0.6255 -0.5811 -0.1323
73128SOL    HW236995   7.766  11.806   9.938 -0.7572  0.0196  1.7964
73129SOL     OW36996   8.245   7.866   5.276  0.3944 -0.1438  0.1764
73129SOL    HW136997   8.210   7.955   5.283 -1.2294 -0.7122 -0.3283
73129SOL    HW236998   8.286   7.863   5.190 -1.0137 -0.3526 -0.5094
73130SOL     OW36999  12.632   9.395   7.536 -0.4338 -0.3359 -0.4410
73130SOL    HW137000  12.664   9.424   7.451 -0.5473 -2.4457 -1.2699
73130SOL    HW237001  12.709   9.360   7.581 -0.4241  0.5133  0.2316
73131SOL     OW37002  11.788   6.861   1.686  0.3160  0.0275  0.0454
73131SOL    HW137003  11.777   6.898   1.598 -1.0711  1.5957  0.8262
73131SOL    HW237004  11.699   6.849   1.719  0.7358 -2.4888  0.5282
73132SOL     OW37005  11.984   9.109   6.965  0.5973  0.2088  0.5099
73132SOL    HW137006  11.980   9.123   7.060  0.0588  1.9795  0.2548
73132SOL    HW237007  12.022   9.189   6.930 -0.9659  0.3600 -0.9402
73133SOL     OW37008  11.855  11.796   4.128  0.7641 -0.0028 -0.1439
73133SOL    HW137009  11.792  11.746   4.180  1.1767 -1.4933 -1.0193
73133SOL    HW237010  11.829  11.888   4.139 -0.8471 -0.5103  0.4266
73134SOL     OW37011  11.649   6.105   0.352 -0.2676 -0.2622 -0.0197
73134SOL    HW137012  11.717   6.141   0.293 -2.1781  0.8118 -1.7053
73134SOL    HW237013  11.667   6.011   0.355  0.2799 -0.2531 -1.8444
73135SOL     OW37014   5.956  11.807  11.240 -0.1307 -0.5116 -0.1653
73135SOL    HW137015   5.861  11.812  11.253  0.0199 -0.9147  1.2257
73135SOL    HW237016   5.973  11.714  11.223  0.2659 -0.9323  2.1496
73136SOL     OW37017  10.106   7.984   4.078  0.2655 -0.5347  0.0807
73136SOL    HW137018  10.110   8.013   3.987  0.5304 -2.1759 -0.4674
73136SOL    HW237019  10.012   7.973   4.095  0.2058 -0.0712  0.0633
73137SOL     OW37020   6.720   2.367  12.658 -0.5544 -0.2141  0.2026
73137SOL    HW137021   6.811   2.397  12.661 -1.0753  1.5105 -0.1865
73137SOL    HW237022   6.698   2.365  12.565 -1.1495  0.1818  0.3254
73138SOL     OW37023  10.191   4.927  11.097  0.0561  0.0402  0.2342
73138SOL    HW137024  10.256   4.879  11.045 -0.2917  0.9336 -1.0832
73138SOL    HW237025  10.221   4.917  11.187  1.0260 -1.0616 -0.1745
73139SOL     OW37026  11.108  11.493   8.055  0.1764  0.6114  0.1668
73139SOL    HW137027  11.198  11.490   8.088 -0.1979 -0.8659  1.1545
73139SOL    HW237028  11.055  11.510   8.133 -0.5582 -0.6623 -0.0297
73140SOL     OW37029   0.366  11.426   0.723 -0.2086 -0.4859  0.6036
73140SOL    HW137030   0.348  11.474   0.803  0.0143 -2.0405  1.6137
73140SOL    HW237031   0.279  11.399   0.691 -0.2385 -0.7410  0.8924
73141SOL     OW37032   9.791   6.332   4.166 -0.0763 -0.4179 -0.0588
73141SOL    HW137033   9.752   6.276   4.232 -0.4584 -0.2504 -0.1415
73141SOL    HW237034   9.880   6.299   4.155 -0.9051 -2.3249 -1.5684
73142SOL     OW37035   1.643   9.523   6.076  0.1960 -0.3806 -0.1070
73142SOL    HW137036   1.691   9.570   6.144 -0.9535  1.1102 -0.2621
73142SOL    HW237037   1.683   9.551   5.994 -0.9816  1.0373 -0.2514
73143SOL     OW37038   2.113   2.208   5.923  0.6723 -0.7352  0.3880
73143SOL    HW137039   2.045   2.253   5.873  2.9211 -0.1302 -2.4407
73143SOL    HW237040   2.077   2.121   5.939 -0.4143 -0.8022 -1.9533
73144SOL     OW37041   4.602   8.703   5.671 -0.0221 -0.0689 -0.1746
73144SOL    HW137042   4.618   8.608   5.674 -2.6705 -0.5649  1.6060
73144SOL    HW237043   4.520   8.712   5.624  1.4073  1.6494 -2.5208
73145SOL     OW37044   7.883  12.366   4.269 -0.1456 -0.4837  0.0027
73145SOL    HW137045   7.914  12.281   4.300  1.0124  0.0575  0.3571
73145SOL    HW237046   7.799  12.378   4.312 -0.4546 -1.5639 -0.2645
73146SOL     OW37047   4.782   3.796   2.691  0.0505  0.3384 -0.0884
73146SOL    HW137048   4.732   3.875   2.710  0.5918  0.6158  0.2119
73146SOL    HW237049   4.807   3.805   2.600 -1.8749 -0.6138 -0.7685
73147SOL     OW37050   1.058   0.577  11.284 -0.1783 -0.0207 -0.5289
73147SOL    HW137051   1.088   0.554  11.196 -0.0419 -1.9513 -0.0339
73147SOL    HW237052   1.012   0.499  11.315  0.2362  0.3987  1.3131
73148SOL     OW37053   6.561  13.149   8.252  0.2041 -0.0715 -0.4138
73148SOL    HW137054   6.638  13.165   8.196  0.6702  0.3989  0.3495
73148SOL    HW237055   6.511  13.083   8.204  1.0231 -0.3041 -0.9821
73149SOL     OW37056  10.911  11.225   8.500  0.0734  0.2822  0.4264
73149SOL    HW137057  10.914  11.297   8.437  0.8855 -0.6298 -0.6081
73149SOL    HW237058  10.908  11.268   8.586  2.1739  1.5785 -0.0882
73150SOL     OW37059   5.737   4.310   0.843 -0.4595 -0.1681 -0.4830
73150SOL    HW137060   5.690   4.352   0.771 -0.1213 -0.9913 -1.1956
73150SOL    HW237061   5.703   4.353   0.922  0.4122  2.0046 -1.1995
73151SOL     OW37062   1.427  13.122   4.584 -0.1749  0.4479 -0.3547
73151SOL    HW137063   1.520  13.106   4.568 -0.0556 -0.7313  1.2353
73151SOL    HW237064   1.395  13.164   4.504  1.2578 -1.0775 -1.8124
73152SOL     OW37065  10.807   5.972   3.805 -0.3300 -0.1177  0.6389
73152SOL    HW137066  10.839   6.005   3.721 -0.8742  0.0867  0.5110
73152SOL    HW237067  10.846   5.885   3.813 -0.6625 -0.3329 -0.0424
73153SOL     OW37068   3.144   2.786  12.675  0.2769 -0.2455 -0.1845
73153SOL    HW137069   3.152   2.862  12.732  1.1224 -0.6331  0.2304
73153SOL    HW237070   3.051   2.765  12.675  0.4319 -1.2053  2.3437
73154SOL     OW37071   9.660  12.946   5.639  0.1973  0.0015  0.6179
73154SOL    HW137072   9.695  12.908   5.719 -0.0130 -0.1229  0.6524
73154SOL    HW237073   9.565  12.945   5.652  0.2095  1.4482  1.0488
73155SOL     OW37074  11.660   9.469   2.351  0.0730 -0.5434 -0.1053
73155SOL    HW137075  11.570   9.494   2.331 -0.4278 -2.2162 -0.0249
73155SOL    HW237076  11.686   9.412   2.279  0.6092 -1.1392  0.5425
73156SOL     OW37077   8.461   4.183   5.503  0.2035 -0.5648 -0.6624
73156SOL    HW137078   8.449   4.109   5.443 -0.3165 -0.6755 -0.4344
73156SOL    HW237079   8.371   4.211   5.524  0.3729 -0.5733  0.1140
73157SOL     OW37080  13.663   0.620   0.461 -0.0319  0.3742 -0.4959
73157SOL    HW137081  13.731   0.612   0.395  0.9406  0.3695  0.4820
73157SOL    HW237082  13.708   0.608   0.545 -1.4405 -0.9293  0.1373
73158SOL     OW37083  11.953   7.788  10.927  0.1122 -0.2134 -0.3085
73158SOL    HW137084  11.944   7.716  10.864  2.2377 -1.0049  0.1877
73158SOL    HW237085  12.006   7.751  10.998 -0.1300  1.3890  0.7665
73159SOL     OW37086   4.249   4.564   1.061  0.0294  0.5467 -0.6929
73159SOL    HW137087   4.273   4.488   1.007 -1.4893  0.9758 -2.0823
73159SOL    HW237088   4.228   4.527   1.147  0.3955 -0.4639 -1.0228
73160SOL     OW37089   9.698   1.252   7.137 -0.0591  0.2604  0.5982
73160SOL    HW137090   9.780   1.298   7.117  0.9867 -2.1133 -0.9991
73160SOL    HW237091   9.709   1.222   7.227  1.1312 -0.5576  0.2055
73161SOL     OW37092   8.809   2.106   6.079 -0.1501 -0.6793 -0.2908
73161SOL    HW137093   8.899   2.079   6.100 -0.0341  0.8640  1.5740
73161SOL    HW237094   8.786   2.056   6.001  2.7524 -0.2571 -1.5617
73162SOL     OW37095   5.852  12.148   8.550 -0.0260  0.3671 -0.1665
73162SOL    HW137096   5.930  12.199   8.569  0.4365 -0.4701  0.2167
73162SOL    HW237097   5.809  12.137   8.635  1.1578 -1.9375  0.2121
73163SOL     OW37098   2.548  13.255   8.374 -0.0982  0.0924  0.7346
73163SOL    HW137099   2.588  13.339   8.396 -0.0834 -1.0758  6.4772
73163SOL    HW237100   2.471  13.250   8.429 -0.4740 -3.4358  0.1040
73164SOL     OW37101  12.854   1.367   5.305  0.0617  0.2500 -0.1673
73164SOL    HW137102  12.902   1.370   5.223 -1.1600  1.8749 -0.8867
73164SOL    HW237103  12.848   1.459   5.332 -1.8039  0.0122  0.3596
73165SOL     OW37104   6.929   5.253  12.151 -0.5855 -0.5688 -0.7906
73165SOL    HW137105   7.002   5.228  12.207 -1.1007 -2.3703 -0.8246
73165SOL    HW237106   6.969   5.277  12.068  0.0924  0.7938 -0.1058
73166SOL     OW37107   9.029   2.518   1.779  0.1972  0.0961 -0.1083
73166SOL    HW137108   8.940   2.531   1.745 -0.1060 -0.6552  0.3729
73166SOL    HW237109   9.082   2.582   1.732 -0.6947  0.9424 -0.0121
73167SOL     OW37110   5.056   3.912   7.751 -0.7222 -0.2270  0.1177
73167SOL    HW137111   5.150   3.925   7.764 -1.1258  1.7911  1.5482
73167SOL    HW237112   5.040   3.940   7.661  0.4582 -3.7715 -1.3624
73168SOL     OW37113   4.530   3.691  11.869 -0.3125 -0.0280  0.0818
73168SOL    HW137114   4.479   3.610  11.868 -0.9314  0.2948  1.9151
73168SOL    HW237115   4.617   3.664  11.897 -0.4152 -0.1059  0.3244
73169SOL     OW37116   9.882   6.707   0.411  0.1901  0.0624 -0.0132
73169SOL    HW137117   9.935   6.630   0.393 -0.2545 -0.9074  2.4695
73169SOL    HW237118   9.794   6.682   0.383 -0.0846 -0.6348  1.3858
73170SOL     OW37119   4.461  10.285  12.454  0.3802  0.2646  0.0512
73170SOL    HW137120   4.477  10.320  12.542 -0.3281  0.1280  0.2460
73170SOL    HW237121   4.484  10.357  12.395  0.8641  0.3561  0.3519
73171SOL     OW37122   7.694   8.607   7.396  0.1592  0.3793  0.3719
73171SOL    HW137123   7.639   8.660   7.339  0.2476  1.4932  1.2844
73171SOL    HW237124   7.640   8.591   7.474 -0.6896 -2.7328 -0.6952
73172SOL     OW37125   6.258  12.038  13.394  0.3371 -0.8271  0.3264
73172SOL    HW137126   6.267  12.122  13.438 -1.2207  0.0522 -0.9072
73172SOL    HW237127   6.179  11.999  13.432 -0.3573 -0.5860 -0.8240
73173SOL     OW37128  12.914  13.401   5.222  0.0210 -0.8367  0.1871
73173SOL    HW137129  12.992  13.350   5.244  1.2147  0.5719 -0.5721
73173SOL    HW237130  12.924  13.482   5.272 -0.8845 -0.5690 -0.0487
73174SOL     OW37131   9.529   2.399  13.405  0.7335 -0.2973 -0.1721
73174SOL    HW137132   9.578   2.432  13.329 -0.2639  0.8487 -0.3408
73174SOL    HW237133   9.439   2.393  13.375  0.6897 -2.2417  0.1896
73175SOL     OW37134   1.978  12.775   8.005 -0.1044 -0.1168  0.1280
73175SOL    HW137135   2.014  12.693   8.039 -0.6750 -0.3480  0.1947
73175SOL    HW237136   1.884  12.770   8.025 -0.2763  0.2032 -0.5640
73176SOL     OW37137   4.843  11.491   1.565  0.2959  0.2389  0.3895
73176SOL    HW137138   4.754  11.515   1.591  1.4148  2.0616  2.9659
73176SOL    HW237139   4.865  11.552   1.495 -1.2330 -1.8695 -2.1200
73177SOL     OW37140  12.260   6.013   4.949  0.1201  0.6971  0.2665
73177SOL    HW137141  12.222   6.016   4.861 -0.1038  1.0884  0.3728
73177SOL    HW237142  12.188   5.984   5.005 -0.0345  1.4504  0.4704
73178SOL     OW37143   3.161  11.452   8.965  0.2843 -0.0845 -0.0599
73178SOL    HW137144   3.099  11.469   8.894  2.6961  1.4246 -1.9432
73178SOL    HW237145   3.185  11.360   8.954  0.9101  0.2224 -1.5021
73179SOL     OW37146   6.913   1.309  13.199 -0.7362 -0.2403 -0.2032
73179SOL    HW137147   6.843   1.310  13.264 -1.3296  1.9004 -0.7883
73179SOL    HW237148   6.960   1.391  13.214  0.1562 -0.5136 -1.3971
73180SOL     OW37149  12.256   1.163   6.217  0.0842  0.2757  0.2330
73180SOL    HW137150  12.162   1.174   6.232 -0.0148 -1.0172  0.6397
73180SOL    HW237151  12.298   1.209   6.290 -0.1864  1.5444 -0.3728
73181SOL     OW37152   0.629   4.353   4.392 -0.2841  0.6466  0.3288
73181SOL    HW137153   0.563   4.300   4.346  0.4336  1.3114 -1.5878
73181SOL    HW237154   0.579   4.425   4.430 -0.7668  0.8970 -0.7186
73182SOL     OW37155   9.056  11.405  10.993 -0.1153 -0.2470  0.1547
73182SOL    HW137156   9.088  11.466  11.059 -0.9039  0.5862 -0.2140
73182SOL    HW237157   9.135  11.376  10.947  0.5284 -1.4061  1.8880
73183SOL     OW37158   9.601   3.130   2.598  0.3984  0.2663  0.7868
73183SOL    HW137159   9.696   3.140   2.597  0.4925 -0.5310  0.7326
73183SOL    HW237160   9.568   3.212   2.561  1.0934  0.2886  0.1735
73184SOL     OW37161   3.795  11.460   6.888  0.5739 -0.2598  0.3531
73184SOL    HW137162   3.750  11.507   6.817 -0.2978 -0.6293  0.6397
73184SOL    HW237163   3.881  11.438   6.851 -0.0917 -0.9951 -0.8379
73185SOL     OW37164   0.700  12.202   3.008  0.6706  0.6677 -0.0974
73185SOL    HW137165   0.655  12.128   2.968  0.8498  0.7452 -0.4421
73185SOL    HW237166   0.630  12.252   3.051  0.4124  0.8222 -0.6871
73186SOL     OW37167  12.268   8.377  11.045 -0.0030  0.0368  0.1210
73186SOL    HW137168  12.282   8.460  11.000  1.8400  0.1368  0.7682
73186SOL    HW237169  12.268   8.400  11.138  0.0666 -0.6168  0.2877
73187SOL     OW37170  13.592   9.896   9.306 -0.2290 -0.4079  0.3959
73187SOL    HW137171  13.687   9.892   9.292 -0.4081  2.1502 -2.7241
73187SOL    HW237172  13.577   9.984   9.340 -1.6449  0.5461 -2.3928
73188SOL     OW37173  12.798  11.684  12.079 -0.1701 -0.5377  0.8407
73188SOL    HW137174  12.777  11.625  12.007 -1.7597  1.1091 -0.1093
73188SOL    HW237175  12.894  11.693  12.075 -0.1945 -0.7005 -0.9033
73189SOL     OW37176  13.798   8.554  11.912 -0.7061  0.0549 -0.3880
73189SOL    HW137177  13.846   8.471  11.921  0.0446  0.6547  1.4794
73189SOL    HW237178  13.766   8.552  11.822  1.0187 -1.3474 -1.0457
73190SOL     OW37179   6.911   5.906   2.235 -0.2056  0.2189  0.0892
73190SOL    HW137180   6.992   5.957   2.241  0.6972 -1.1527 -0.0003
73190SOL    HW237181   6.894   5.876   2.324  0.2482 -0.7374 -0.1256
73191SOL     OW37182   7.160   1.078   0.155  0.6975 -0.1007 -0.1509
73191SOL    HW137183   7.219   1.148   0.182  1.8294 -1.0574 -0.0714
73191SOL    HW237184   7.212   0.998   0.162 -0.7896 -1.0624  0.5017
73192SOL     OW37185   0.974   7.165   9.931  0.7774  0.3489  0.5023
73192SOL    HW137186   0.990   7.087   9.984 -0.1098  1.0464  1.8792
73192SOL    HW237187   1.008   7.237   9.984 -0.8425  1.1517  0.5198
73193SOL     OW37188   5.094   8.377  13.062  0.4485 -0.7528 -0.4879
73193SOL    HW137189   5.041   8.453  13.036  1.3872  0.8652  1.9339
73193SOL    HW237190   5.124   8.339  12.980 -1.8928  0.1222 -1.8399
73194SOL     OW37191  10.673  11.267   9.764  0.3855 -0.1211  0.6425
73194SOL    HW137192  10.727  11.279   9.686  1.6408 -1.0687  1.3362
73194SOL    HW237193  10.705  11.186   9.804 -1.3082 -0.5159  1.2875
73195SOL     OW37194  13.261  14.060   7.441  0.3938  0.0731  0.1195
73195SOL    HW137195  13.286  14.110   7.363  0.4777 -0.1729 -0.0140
73195SOL    HW237196  13.181  14.103   7.473  1.8200  1.8551  1.4668
73196SOL     OW37197  10.256   9.927  12.941  0.5808 -0.3213  0.7499
73196SOL    HW137198  10.220   9.943  12.854  1.0290 -1.0691  0.4185
73196SOL    HW237199  10.340   9.883  12.925  1.1411  0.4170  1.5332
73197SOL     OW37200  13.568  11.088  13.097  0.2755 -0.4890  0.4516
73197SOL    HW137201  13.549  11.178  13.073 -0.8148 -0.1241  2.4863
73197SOL    HW237202  13.591  11.045  13.014 -1.2863  1.1220 -0.8937
73198SOL     OW37203   5.919   9.726   0.548 -0.3289  0.1753  0.3255
73198SOL    HW137204   5.903   9.820   0.545 -0.5881  0.1096 -1.3875
73198SOL    HW237205   5.869   9.691   0.474  0.2426 -1.2281  0.5823
73199SOL     OW37206   5.962   6.481   2.339 -0.4637  0.8603 -0.0506
73199SOL    HW137207   5.963   6.538   2.263 -1.7540  0.6797 -0.2236
73199SOL    HW237208   6.053   6.455   2.351 -0.3872 -0.2633 -2.4277
73200SOL     OW37209   7.805   1.294   0.621 -0.0111  0.1324 -0.2503
73200SOL    HW137210   7.720   1.304   0.579 -0.3025 -0.6475  0.1514
73200SOL    HW237211   7.819   1.377   0.667 -1.4027 -0.4060  1.2147
73201SOL     OW37212   6.616  11.323  12.424 -0.2140 -0.3713  0.5657
73201SOL    HW137213   6.591  11.393  12.364 -1.1833 -1.5546 -0.4622
73201SOL    HW237214   6.561  11.337  12.502  0.0870  0.3798  0.6564
73202SOL     OW37215  12.995   2.968  12.287 -0.6769 -0.1968  0.2374
73202SOL    HW137216  13.007   3.025  12.211 -0.2077 -0.1414  0.3499
73202SOL    HW237217  13.041   3.013  12.358 -0.4257 -0.6403  0.3608
73203SOL     OW37218  13.239   3.551  10.985  0.9112 -0.2315  0.0975
73203SOL    HW137219  13.197   3.474  10.947  1.6599 -0.8373  0.4680
73203SOL    HW237220  13.290   3.589  10.914  1.9200 -1.0808  0.3475
73204SOL     OW37221   2.863   8.953   0.975  0.0032 -0.1069 -0.1077
73204SOL    HW137222   2.884   9.033   0.928  1.5461 -0.3945  0.0522
73204SOL    HW237223   2.774   8.930   0.945 -0.8943  2.1991  0.6400
73205SOL     OW37224   3.721   2.338   3.572  0.3477 -0.4081  0.0619
73205SOL    HW137225   3.684   2.289   3.645 -0.7052  0.2071 -0.0283
73205SOL    HW237226   3.666   2.314   3.497 -1.0895  1.8633  0.2866
73206SOL     OW37227   8.784   9.416   5.182 -0.2043 -0.0536  0.1855
73206SOL    HW137228   8.756   9.475   5.112  0.1194 -0.5147 -0.3397
73206SOL    HW237229   8.704   9.370   5.207 -0.2850 -0.0167 -0.0037
73207SOL     OW37230   0.655   6.478   6.916  0.1977 -0.0609  0.5179
73207SOL    HW137231   0.735   6.527   6.936 -0.7718  1.6167  0.4797
73207SOL    HW237232   0.640   6.493   6.823 -2.0423  2.7252  1.1853
73208SOL     OW37233  13.256  11.711   0.654  0.0106  0.7736  0.3106
73208SOL    HW137234  13.338  11.740   0.613 -0.4875  1.3561 -0.2828
73208SOL    HW237235  13.194  11.782   0.637 -0.4755  0.5886  1.2337
73209SOL     OW37236  10.984  10.405   0.070  0.1629  0.0628 -0.0327
73209SOL    HW137237  11.052  10.358   0.022 -0.2632  0.2956 -0.8875
73209SOL    HW237238  10.973  10.356   0.151  0.1052 -1.0081 -0.6662
73210SOL     OW37239   9.455  10.679   5.595  0.4372 -0.0125 -0.9408
73210SOL    HW137240   9.479  10.735   5.669 -2.2196 -0.9259  0.7607
73210SOL    HW237241   9.427  10.740   5.527  3.4210  0.8706 -1.5177
73211SOL     OW37242  11.339   3.232   4.177 -0.0034  0.0724 -0.7388
73211SOL    HW137243  11.305   3.321   4.167  1.5889  0.9359  0.9762
73211SOL    HW237244  11.274   3.187   4.231 -0.2505  0.5396 -0.6456
73212SOL     OW37245   5.351   0.154   8.003  0.3411  0.2629  0.0334
73212SOL    HW137246   5.279   0.096   7.978 -0.2565  0.9474  0.1267
73212SOL    HW237247   5.374   0.201   7.923  1.6215 -0.9143 -0.3317
73213SOL     OW37248  13.002  11.785  12.706 -0.1324 -0.4035 -0.1912
73213SOL    HW137249  13.020  11.879  12.702  0.2566 -0.4791 -0.2637
73213SOL    HW237250  13.074  11.748  12.758  0.0622 -0.7422 -0.6887
73214SOL     OW37251   7.690  13.452  11.752  0.4683  0.2751  0.4257
73214SOL    HW137252   7.767  13.459  11.809  1.5682 -1.5206 -0.7681
73214SOL    HW237253   7.642  13.377  11.786  1.8070 -1.6435 -1.6918
73215SOL     OW37254   5.980   1.130  14.048  0.4194 -0.9477  0.0391
73215SOL    HW137255   5.940   1.078  13.979 -1.2568 -0.8659  0.9105
73215SOL    HW237256   5.946   1.218  14.034  0.1930 -0.8970  0.8573
73216SOL     OW37257   5.185   1.039  10.638 -0.1133 -0.5041 -0.3629
73216SOL    HW137258   5.272   1.078  10.642 -0.6659  0.6897  2.3534
73216SOL    HW237259   5.186   0.988  10.557  2.8392  0.0123 -0.7911
73217SOL     OW37260   5.260   9.280   3.231 -0.4776  0.3482 -0.3793
73217SOL    HW137261   5.260   9.186   3.214 -2.3812 -0.5013  3.2882
73217SOL    HW237262   5.352   9.305   3.228 -0.0379 -1.2369 -2.8201
73218SOL     OW37263   3.568   4.447  11.438  0.4954  0.3339 -0.0494
73218SOL    HW137264   3.653   4.463  11.398  0.7427  0.9769  0.7003
73218SOL    HW237265   3.521   4.392  11.375  0.5730  1.9346 -1.5915
73219SOL     OW37266   8.907  12.245   0.831 -0.1562  0.5108  0.1437
73219SOL    HW137267   8.949  12.162   0.852  3.0823  1.8724 -0.3026
73219SOL    HW237268   8.906  12.293   0.915  3.0796  1.9502 -0.4664
73220SOL     OW37269  11.302   9.615   5.087  0.0379  0.0197 -0.1102
73220SOL    HW137270  11.293   9.657   5.172  2.2822 -2.7608  1.7009
73220SOL    HW237271  11.373   9.662   5.044 -1.0784  1.4125 -0.5001
73221SOL     OW37272   4.098   6.248  10.759 -0.4857 -0.3756  0.1631
73221SOL    HW137273   4.103   6.277  10.850 -1.0709  1.8134 -0.4582
73221SOL    HW237274   4.155   6.308  10.711  1.6376 -2.8803 -0.6736
73222SOL     OW37275   3.123  10.764   0.862  0.0829  0.2324  0.2594
73222SOL    HW137276   3.066  10.795   0.792 -1.8901  2.3376  2.5865
73222SOL    HW237277   3.202  10.817   0.854  1.1394 -1.5400 -1.9858
73223SOL     OW37278   9.773   9.298   2.859  0.2076  0.2173  0.5686
73223SOL    HW137279   9.819   9.221   2.826  2.7305  1.0204  1.9334
73223SOL    HW237280   9.688   9.297   2.814  1.1887 -1.8766 -1.4247
73224SOL     OW37281   8.306   1.253   1.186  0.6416 -0.0679 -0.1280
73224SOL    HW137282   8.312   1.273   1.093  1.1726 -1.9373 -0.5367
73224SOL    HW237283   8.252   1.175   1.190  0.6305 -0.0109  1.1423
73225SOL     OW37284   3.182   1.737  12.998  0.9645  0.1835 -0.3321
73225SOL    HW137285   3.191   1.780  13.084 -0.4247 -0.1392 -0.0120
73225SOL    HW237286   3.197   1.644  13.016 -0.8914 -0.1084 -0.1201
73226SOL     OW37287  12.458  10.559   0.639  0.1196 -0.0212 -0.3635
73226SOL    HW137288  12.546  10.545   0.672 -0.1277  1.2589  0.9643
73226SOL    HW237289  12.408  10.484   0.670  0.4822 -0.1317 -0.0468
73227SOL     OW37290   7.245   9.171   3.901 -0.3850  0.2085 -0.1978
73227SOL    HW137291   7.306   9.191   3.973  0.4056 -2.0440 -0.1514
73227SOL    HW237292   7.158   9.182   3.939 -0.0126  1.9449  0.2034
73228SOL     OW37293   2.704   7.545   2.078 -0.3079 -0.1921  0.8825
73228SOL    HW137294   2.680   7.569   2.168  0.0697  0.1844  0.8870
73228SOL    HW237295   2.798   7.528   2.082 -0.1983  0.2844  0.4632
73229SOL     OW37296   8.071  10.501  13.693  0.2978  0.8133  0.2485
73229SOL    HW137297   8.100  10.472  13.607 -1.3338 -0.0201 -0.0503
73229SOL    HW237298   8.129  10.454  13.754 -0.0977 -0.4787 -0.3364
73230SOL     OW37299  10.701   5.540  11.226  0.4644  0.3649  0.1693
73230SOL    HW137300  10.660   5.625  11.211 -1.8263 -0.4932  1.0661
73230SOL    HW237301  10.690   5.524  11.320  1.2980 -0.7105  0.1087
73231SOL     OW37302  12.063  10.029   2.386 -0.0927 -0.1102  0.6832
73231SOL    HW137303  12.037   9.954   2.440  0.7588 -0.9456 -0.0396
73231SOL    HW237304  11.981  10.074   2.366 -0.8788 -2.0300 -0.6067
73232SOL     OW37305  10.655   7.971   7.005  0.1258 -0.3722  0.6671
73232SOL    HW137306  10.682   8.037   6.941  0.8663 -0.1915  1.1476
73232SOL    HW237307  10.720   7.902   6.997 -0.2908 -0.7656  0.6075
73233SOL     OW37308  11.956  12.010  10.796  0.1167 -0.1875  0.3492
73233SOL    HW137309  12.033  12.038  10.846 -0.7169  2.2064  0.4329
73233SOL    HW237310  11.992  11.974  10.715  1.3762  1.3341  0.1699
73234SOL     OW37311   2.380  12.299   0.189 -0.5150 -0.4207 -0.3683
73234SOL    HW137312   2.372  12.208   0.159 -0.5634 -0.1581 -1.1459
73234SOL    HW237313   2.309  12.346   0.144  0.7554  0.4171 -1.5693
73235SOL     OW37314   7.715   4.510   0.133  0.6098  0.2130  0.4741
73235SOL    HW137315   7.733   4.467   0.050  1.6109 -0.3075  0.9507
73235SOL    HW237316   7.700   4.602   0.110 -0.0710 -0.1054 -0.3755
73236SOL     OW37317   5.861  10.096   3.616 -0.4513  0.1088 -0.0452
73236SOL    HW137318   5.779  10.122   3.573 -1.8228  0.2572  2.5009
73236SOL    HW237319   5.868  10.002   3.600 -1.0073  0.1333 -0.4610
73237SOL     OW37320   3.576   8.192   6.564 -0.0327  0.0267  0.1613
73237SOL    HW137321   3.500   8.199   6.622 -0.7260 -0.4067 -0.6681
73237SOL    HW237322   3.540   8.166   6.479  0.9225  0.8827 -0.5514
73238SOL     OW37323   1.766  10.467  12.716 -0.1595  0.3243  0.4654
73238SOL    HW137324   1.803  10.390  12.758  1.3162  0.7775  0.0509
73238SOL    HW237325   1.818  10.479  12.637 -2.7310 -0.4252 -1.5062
73239SOL     OW37326   7.760  12.212   9.162 -0.3175  0.5647  0.2376
73239SOL    HW137327   7.728  12.238   9.248 -1.2348 -1.4795  0.5552
73239SOL    HW237328   7.853  12.233   9.164 -0.7397  2.6794  0.8450
73240SOL     OW37329   8.480  11.596   7.425  0.6871  0.6587 -0.4578
73240SOL    HW137330   8.573  11.618   7.418  0.8002  1.2331  1.9610
73240SOL    HW237331   8.438  11.679   7.451 -0.2091  0.0120  0.2173
73241SOL     OW37332   4.416  11.485   5.654  0.3195 -0.1785 -0.4236
73241SOL    HW137333   4.508  11.506   5.639  0.7381 -1.3743  0.3274
73241SOL    HW237334   4.376  11.569   5.679  1.0635  0.4630 -1.3270
73242SOL     OW37335   2.755   0.552   3.125  0.3757  0.3364  0.0762
73242SOL    HW137336   2.796   0.577   3.042 -1.1136  0.1160 -0.7748
73242SOL    HW237337   2.698   0.626   3.146  0.3751  0.1749  0.6427
73243SOL     OW37338   2.896  11.726   3.775 -0.4058 -0.4390  0.0205
73243SOL    HW137339   2.883  11.689   3.862  0.0487 -0.2419  0.1746
73243SOL    HW237340   2.985  11.761   3.776 -1.2129  1.7692  0.3025
73244SOL     OW37341   4.335  13.296   8.048 -0.4225  0.3354 -0.3205
73244SOL    HW137342   4.299  13.302   8.137 -1.8273 -0.4216 -0.8107
73244SOL    HW237343   4.328  13.385   8.014  0.7201  0.7747  0.5240
73245SOL     OW37344   0.768  13.397   5.079 -0.1643 -0.6066 -0.0345
73245SOL    HW137345   0.845  13.421   5.130 -0.1911  1.3546 -0.8123
73245SOL    HW237346   0.801  13.385   4.990 -0.6822 -0.1396 -0.2961
73246SOL     OW37347   3.908   5.113   9.919  0.0802  0.0104 -0.3589
73246SOL    HW137348   3.852   5.112   9.997  0.5099  1.5416  0.0029
73246SOL    HW237349   3.854   5.076   9.850 -0.7905 -0.0908  0.3607
73247SOL     OW37350   3.826   4.078   1.609  0.1671 -0.9562 -0.4107
73247SOL    HW137351   3.885   4.152   1.605  0.5599 -1.0253  2.2860
73247SOL    HW237352   3.846   4.026   1.531 -0.0221  1.6250 -2.2867
73248SOL     OW37353   1.911   9.707   2.357 -0.0800 -0.7526  0.1708
73248SOL    HW137354   1.860   9.778   2.397  1.5415 -0.2620  1.5157
73248SOL    HW237355   1.903   9.722   2.263  0.6277  1.5759  0.4152
73249SOL     OW37356   7.751  11.774   0.051 -0.3673  0.5442 -0.2431
73249SOL    HW137357   7.774  11.856   0.094  1.4546 -0.1044  0.0955
73249SOL    HW237358   7.800  11.707   0.099 -1.7971 -0.7639 -0.5131
73250SOL     OW37359   7.067  10.908   0.560  0.0580  0.7765  0.1633
73250SOL    HW137360   7.127  10.837   0.581  0.1619 -0.0300 -2.4851
73250SOL    HW237361   6.981  10.875   0.585  0.1937 -0.0042 -0.3852
73251SOL     OW37362   8.284   3.939  14.055  0.8368  0.5685 -0.5882
73251SOL    HW137363   8.223   3.945  13.981  0.5617  0.8178 -0.3414
73251SOL    HW237364   8.350   4.005  14.037  0.2337  1.3122 -0.1205
73252SOL     OW37365   2.341   7.817   7.536  0.0879  0.4484  0.4853
73252SOL    HW137366   2.392   7.737   7.546 -0.8008 -0.2875 -0.6361
73252SOL    HW237367   2.398   7.876   7.487  0.2292  0.0002  0.1109
73253SOL     OW37368   2.949  10.735  10.377  0.3306 -0.1179  0.3731
73253SOL    HW137369   2.924  10.826  10.395 -2.7963 -1.2224  2.4131
73253SOL    HW237370   2.998  10.708  10.455  1.1977 -0.2381 -0.2015
73254SOL     OW37371   1.568  13.820   3.635  0.8384  0.1869  0.3708
73254SOL    HW137372   1.650  13.821   3.684  0.5166 -0.2896  0.9427
73254SOL    HW237373   1.512  13.760   3.684  0.8067 -1.0294 -1.0790
73255SOL     OW37374   1.340   3.922   1.000 -0.2061  0.2857 -0.3400
73255SOL    HW137375   1.398   3.929   0.924  1.2906 -0.0226  0.7329
73255SOL    HW237376   1.383   3.974   1.068 -0.8172 -0.5169  0.6976
73256SOL     OW37377  10.342   7.628  14.049 -0.6202  0.1198 -0.0504
73256SOL    HW137378  10.329   7.687  13.974 -1.8222  1.2083  0.9452
73256SOL    HW237379  10.253   7.603  14.074 -0.1463 -1.8100 -0.1599
73257SOL     OW37380   8.624   3.751   1.664  0.0156 -0.3354 -0.2064
73257SOL    HW137381   8.529   3.744   1.657  0.1185 -0.8541 -1.2170
73257SOL    HW237382   8.641   3.845   1.671 -0.6798 -0.3162  2.0231
73258SOL     OW37383   4.959   6.528   8.285 -0.2542 -0.2424  0.3538
73258SOL    HW137384   5.033   6.486   8.243  2.4425 -0.7985  4.9313
73258SOL    HW237385   4.976   6.622   8.277 -1.0978 -0.2163 -1.6376
73259SOL     OW37386   0.465   4.264   8.733 -0.2706  0.6459  0.0668
73259SOL    HW137387   0.443   4.217   8.652  0.9711 -0.1727  0.1662
73259SOL    HW237388   0.495   4.350   8.704  1.8692 -0.2455 -0.5378
73260SOL     OW37389   9.119   8.565   5.339 -0.6029 -0.1070  0.2776
73260SOL    HW137390   9.177   8.634   5.373 -1.6278  0.1617  1.5300
73260SOL    HW237391   9.177   8.510   5.287  1.1720 -0.7190  2.7012
73261SOL     OW37392  12.359  13.469   4.363 -0.0435 -0.7438  0.6286
73261SOL    HW137393  12.335  13.454   4.272 -0.3367  2.4770  0.0498
73261SOL    HW237394  12.280  13.508   4.402  1.0201  0.7064  1.4091
73262SOL     OW37395  11.382   2.275   9.363  0.1482 -0.6579  0.0521
73262SOL    HW137396  11.417   2.269   9.452 -1.8457 -0.7389  0.8895
73262SOL    HW237397  11.349   2.365   9.356  1.6094 -0.1841 -1.1623
73263SOL     OW37398  10.359   7.497   4.400  0.0340  0.3359 -0.4949
73263SOL    HW137399  10.363   7.432   4.330 -1.0474  0.4096 -0.6522
73263SOL    HW237400  10.266   7.498   4.425  0.5469 -0.3786  1.5870
73264SOL     OW37401   9.805  12.297  11.198 -0.2470  0.0556 -0.5866
73264SOL    HW137402   9.800  12.389  11.175 -0.4378  0.4138  0.7537
73264SOL    HW237403   9.844  12.296  11.286 -0.2745 -1.1293 -0.5601
73265SOL     OW37404  12.670   1.551   9.601 -0.0947 -0.2757  0.0822
73265SOL    HW137405  12.684   1.637   9.561  0.5641  0.2424  1.3877
73265SOL    HW237406  12.581   1.527   9.574  0.4305 -0.1406 -1.9776
73266SOL     OW37407   8.787   8.208   2.138 -0.2093  0.0451  0.3752
73266SOL    HW137408   8.782   8.115   2.116  1.1265  0.1829 -0.6528
73266SOL    HW237409   8.697   8.233   2.159 -1.3243 -0.5803 -3.0871
73267SOL     OW37410   5.295   0.464   3.825  0.2130 -0.5188  0.6567
73267SOL    HW137411   5.276   0.392   3.766 -1.0827  1.3831 -1.4085
73267SOL    HW237412   5.238   0.535   3.795  1.2016  1.2807  2.7688
73268SOL     OW37413  12.822  12.409  11.435 -0.9461  0.1930 -0.0199
73268SOL    HW137414  12.869  12.328  11.453 -2.1456 -0.9485 -1.7539
73268SOL    HW237415  12.815  12.413  11.340 -2.3008  1.5053  0.0879
73269SOL     OW37416  12.436   2.808   7.742 -0.0356  0.1918 -0.3397
73269SOL    HW137417  12.366   2.874   7.745  0.1849  0.4060  0.2968
73269SOL    HW237418  12.393   2.730   7.708 -0.9421 -0.0859  1.3214
73270SOL     OW37419   8.100   9.313   6.881 -0.2810  0.0150 -0.4786
73270SOL    HW137420   8.084   9.338   6.972 -0.7964 -0.9482 -0.2796
73270SOL    HW237421   8.132   9.223   6.886  0.2516  0.1499 -1.2241
73271SOL     OW37422   2.722  12.298   6.626  0.3651  0.0133 -0.4121
73271SOL    HW137423   2.702  12.247   6.548 -1.7834  0.9932 -0.5917
73271SOL    HW237424   2.639  12.300   6.675  1.7379 -0.8818  2.1181
73272SOL     OW37425  10.088   2.856  13.273  0.2620 -0.1423 -0.2148
73272SOL    HW137426  10.081   2.806  13.355  2.4187 -1.4834 -0.7705
73272SOL    HW237427  10.180   2.881  13.268 -0.5035  2.9391 -0.5786
73273SOL     OW37428  10.860  12.428   9.796  0.2806 -0.2181  0.0499
73273SOL    HW137429  10.922  12.420   9.724  0.2347  1.3943 -0.2065
73273SOL    HW237430  10.830  12.519   9.792 -2.6708 -1.1191 -0.3042
73274SOL     OW37431   9.899   0.857   3.775 -0.0654 -0.0519  0.5248
73274SOL    HW137432   9.828   0.810   3.731  0.6612 -1.4821  0.8100
73274SOL    HW237433   9.899   0.821   3.864  0.3237  0.7267  0.8429
73275SOL     OW37434   2.755  12.673  13.467  0.3628 -0.1215 -0.5255
73275SOL    HW137435   2.801  12.725  13.401  0.6149 -0.0207 -0.2726
73275SOL    HW237436   2.741  12.733  13.540  3.0402 -1.0393  0.8997
73276SOL     OW37437   2.359   7.625   5.528  0.5198 -0.0840 -0.2709
73276SOL    HW137438   2.438   7.591   5.570  0.9105 -1.4428 -1.9927
73276SOL    HW237439   2.369   7.602   5.436 -0.7687  1.8865 -0.9563
73277SOL     OW37440   3.883   3.303  12.117 -0.1661 -0.0011  0.2267
73277SOL    HW137441   3.794   3.318  12.150 -0.7685  1.2273 -1.7619
73277SOL    HW237442   3.870   3.277  12.026  1.5187 -0.4601  0.0861
73278SOL     OW37443  11.881   4.717   0.719  0.3600 -0.0770 -0.6213
73278SOL    HW137444  11.786   4.704   0.712  0.2484  0.9004 -1.1649
73278SOL    HW237445  11.896   4.802   0.677  1.5143 -0.3453 -0.7697
73279SOL     OW37446   7.410   1.248   1.812 -0.3667 -0.3133  0.0853
73279SOL    HW137447   7.453   1.309   1.871  0.2250 -0.3238 -0.3144
73279SOL    HW237448   7.434   1.161   1.845  0.9759 -0.3364 -0.8233
73280SOL     OW37449   5.808  13.399  11.378  0.0933  0.6225 -0.1513
73280SOL    HW137450   5.896  13.429  11.356  0.9322 -1.9652 -0.7230
73280SOL    HW237451   5.814  13.370  11.468 -0.0884  0.1821 -0.2767
73281SOL     OW37452   4.050  11.235   2.690  0.2790 -0.8843  0.4319
73281SOL    HW137453   4.097  11.164   2.647 -0.5667 -1.4716  0.4436
73281SOL    HW237454   4.090  11.241   2.776  1.8355  0.1446 -0.3138
73282SOL     OW37455   5.211   5.801   2.645  0.2203  0.3490 -0.1572
73282SOL    HW137456   5.177   5.720   2.681  0.1833  1.1520  1.6889
73282SOL    HW237457   5.135   5.841   2.601 -0.2771  0.3607  0.7017
73283SOL     OW37458  10.443   6.883   1.693  0.1960 -0.1189  0.0402
73283SOL    HW137459  10.361   6.850   1.657 -0.7757  1.1847  0.9407
73283SOL    HW237460  10.419   6.964   1.738  1.6691 -0.5663  1.7879
73284SOL     OW37461   3.438   3.402   8.520 -0.3117  0.4654  0.0080
73284SOL    HW137462   3.387   3.479   8.494 -0.1264  0.2858 -0.9142
73284SOL    HW237463   3.520   3.410   8.471 -0.8022 -0.9769 -1.1211
73285SOL     OW37464   7.639  11.513  14.026 -0.0072  0.2505 -0.0820
73285SOL    HW137465   7.621  11.461  14.104  1.2330 -0.0678  0.0059
73285SOL    HW237466   7.632  11.451  13.954 -0.6026  0.4266 -0.1839
73286SOL     OW37467   2.482   7.887   2.404 -0.0322 -0.1341  0.1904
73286SOL    HW137468   2.511   7.935   2.482  0.0382 -0.2455  0.2331
73286SOL    HW237469   2.521   7.935   2.331 -0.0841 -0.0403  0.2245
73287SOL     OW37470  10.214  11.176   6.939 -0.4843  0.0428  0.0887
73287SOL    HW137471  10.293  11.131   6.968  1.0279  0.7330 -2.6464
73287SOL    HW237472  10.190  11.231   7.013  0.8160 -1.1489  1.4613
73288SOL     OW37473  10.973   7.190   3.731  0.8015 -0.2592 -0.2331
73288SOL    HW137474  10.959   7.222   3.642 -0.8265  1.7367  0.6657
73288SOL    HW237475  10.886   7.167   3.762  1.5370 -2.4617  0.3504
73289SOL     OW37476   2.911  13.617  13.533  0.3267 -0.1480  0.3212
73289SOL    HW137477   2.881  13.568  13.610 -1.1914  1.0717  0.5632
73289SOL    HW237478   2.942  13.549  13.473 -1.4517 -1.4396  0.7477
73290SOL     OW37479  12.158  13.332   8.054 -0.6674 -0.5189  0.2696
73290SOL    HW137480  12.149  13.237   8.051  1.2589 -0.8252  1.9964
73290SOL    HW237481  12.144  13.361   7.964  0.1285 -2.5719 -0.5578
73291SOL     OW37482   0.783   1.606   7.717 -0.1434 -0.4225  0.0515
73291SOL    HW137483   0.825   1.570   7.795 -0.6378 -1.1631 -0.0140
73291SOL    HW237484   0.855   1.641   7.665  0.3419 -1.1893  0.1929
73292SOL     OW37485   7.094   3.053   3.856  0.0635  0.6253  0.1701
73292SOL    HW137486   7.108   3.000   3.935 -0.5685  0.6054  0.2681
73292SOL    HW237487   7.174   3.041   3.805 -0.3457 -0.9903 -0.1380
73293SOL     OW37488   3.075   1.390   5.421  0.1938 -0.3458 -0.6749
73293SOL    HW137489   3.034   1.462   5.373 -0.6307 -1.9618 -2.4974
73293SOL    HW237490   3.163   1.423   5.442 -0.4597  1.5147 -0.6122
73294SOL     OW37491  13.043   1.225  12.886 -0.0717  0.3160 -0.3735
73294SOL    HW137492  13.114   1.276  12.924  0.4059 -0.9573  0.5190
73294SOL    HW237493  12.972   1.288  12.874  0.5808  1.2431  0.4473
73295SOL     OW37494  10.450   9.775  12.546  0.0351 -0.0717 -1.3072
73295SOL    HW137495  10.495   9.721  12.481  0.2443 -1.9510  0.2979
73295SOL    HW237496  10.360   9.783  12.513  0.4546  0.1231 -2.4467
73296SOL     OW37497   9.158  10.445   5.494 -0.1000 -0.3204 -0.8131
73296SOL    HW137498   9.082  10.486   5.452 -0.3688 -2.4556 -2.6542
73296SOL    HW237499   9.232  10.467   5.438  1.2487  3.5384  2.1022
73297SOL     OW37500  11.904   0.983   3.191 -0.2827 -0.4609 -0.2287
73297SOL    HW137501  11.927   1.076   3.188 -0.8018 -0.3327 -0.4187
73297SOL    HW237502  11.932   0.953   3.277 -0.2433 -0.0910 -0.1137
73298SOL     OW37503  11.836   4.538   5.280  0.1574 -0.0291  0.5868
73298SOL    HW137504  11.820   4.632   5.275  1.1973  0.2241  1.6657
73298SOL    HW237505  11.918   4.525   5.231  1.2978  0.0117  2.3945
73299SOL     OW37506  13.283   8.896   4.496  0.5765  0.7224 -0.1880
73299SOL    HW137507  13.340   8.946   4.554  0.9274  0.5572 -0.3886
73299SOL    HW237508  13.194   8.925   4.520  0.6104 -0.3220  1.3775
73300SOL     OW37509  10.997   9.864   1.614 -0.0868  0.5191 -0.1807
73300SOL    HW137510  11.060   9.871   1.542 -0.3680 -0.8821 -0.6041
73300SOL    HW237511  11.038   9.803   1.675 -0.8734 -0.1982 -0.3319
73301SOL     OW37512   5.847  12.041   6.720  0.3783 -0.3435 -0.5862
73301SOL    HW137513   5.798  11.962   6.698 -2.9369  1.5954 -0.8254
73301SOL    HW237514   5.873  12.078   6.636  0.0788 -0.0918 -0.5663
73302SOL     OW37515   2.498  12.362   6.837 -0.2551 -0.4358 -0.4836
73302SOL    HW137516   2.450  12.419   6.898  0.9981  0.8400 -0.6352
73302SOL    HW237517   2.451  12.371   6.754 -1.2661 -1.2491 -0.0186
73303SOL     OW37518  13.880   5.242   1.781 -0.2301  0.6413  0.0136
73303SOL    HW137519  13.832   5.164   1.755 -2.1733  1.2721  1.5164
73303SOL    HW237520  13.960   5.209   1.822 -2.1426 -0.7687  2.9099
73304SOL     OW37521   0.756   7.308   2.288  0.4209  0.0846 -0.1036
73304SOL    HW137522   0.783   7.367   2.218 -0.9593 -0.6796 -1.3496
73304SOL    HW237523   0.754   7.221   2.246 -0.0769 -0.4434  0.9784
73305SOL     OW37524   9.862   2.074   0.710  0.3559 -0.0973  0.4111
73305SOL    HW137525   9.831   2.088   0.800  3.8104 -1.2365  1.9836
73305SOL    HW237526   9.934   2.136   0.700  0.7058 -0.7167 -1.1827
73306SOL     OW37527  10.530   2.300   9.947 -0.0864  0.3198 -0.1316
73306SOL    HW137528  10.455   2.293   9.888 -0.2262  1.9769 -0.2063
73306SOL    HW237529  10.573   2.215   9.941 -1.7351 -0.5341 -0.3743
73307SOL     OW37530   9.630   9.332   0.768  0.2876 -0.2225  0.6586
73307SOL    HW137531   9.605   9.351   0.859  0.5732 -0.8560  0.8734
73307SOL    HW237532   9.576   9.257   0.743 -0.6349  0.6602 -0.0958
73308SOL     OW37533  13.675  10.717   5.212  0.3839  0.4427 -0.4131
73308SOL    HW137534  13.595  10.667   5.227  1.8565 -1.4316  1.8333
73308SOL    HW237535  13.665  10.796   5.265  0.2725 -0.1215  0.4277
73309SOL     OW37536   4.232  10.557  11.507  0.1768  0.1116 -0.0037
73309SOL    HW137537   4.241  10.628  11.443 -0.5904  1.2478  1.0824
73309SOL    HW237538   4.298  10.493  11.482  0.8480  1.1782 -1.0893
73310SOL     OW37539  11.181   4.298   1.509 -0.0967  0.5822 -0.6064
73310SOL    HW137540  11.104   4.242   1.518  1.2468 -1.2508  0.0972
73310SOL    HW237541  11.207   4.288   1.417  0.4534 -0.4325 -0.3548
73311SOL     OW37542  13.982   5.593  12.021 -0.0850  0.4105  0.4025
73311SOL    HW137543  13.956   5.592  11.929 -0.5426  1.2084  0.5103
73311SOL    HW237544  13.920   5.653  12.063  1.4095  1.7458  0.8218
73312SOL     OW37545   6.820  12.534   9.591  0.2630  0.0172 -0.1048
73312SOL    HW137546   6.838  12.511   9.682 -0.1808  0.1761  0.0290
73312SOL    HW237547   6.902  12.517   9.544  0.8825  1.1366  0.5440
73313SOL     OW37548  11.018   1.321  10.789 -0.3267 -0.3387  0.2690
73313SOL    HW137549  11.091   1.325  10.727 -0.4047  0.6134  0.2151
73313SOL    HW237550  11.056   1.287  10.870  0.3635  0.8131  0.4596
73314SOL     OW37551   3.695   3.584   2.925 -0.6758  0.3907  0.0799
73314SOL    HW137552   3.773   3.638   2.937  0.1472 -0.7521  0.1269
73314SOL    HW237553   3.729   3.502   2.889 -1.5833 -0.9494  2.0969
73315SOL     OW37554   9.206  13.102   7.086 -0.2915  0.4973  0.4083
73315SOL    HW137555   9.176  13.054   7.009 -0.9329  0.3208  0.7613
73315SOL    HW237556   9.270  13.044   7.126 -0.7711  0.0967  0.6133
73316SOL     OW37557   2.816  13.552   7.252 -0.2322 -0.8300 -0.1594
73316SOL    HW137558   2.844  13.635   7.214  0.4857 -0.4008  1.2221
73316SOL    HW237559   2.898  13.506   7.274 -0.6145 -1.3519  0.2242
73317SOL     OW37560   5.429   7.005   4.635  0.2202  0.0993  0.9715
73317SOL    HW137561   5.362   7.048   4.689  0.0101 -1.4936  2.0454
73317SOL    HW237562   5.473   6.944   4.694  1.7830  0.1833 -0.0362
73318SOL     OW37563   1.835  12.200   8.148  0.1381  0.3054  0.4256
73318SOL    HW137564   1.811  12.139   8.079  0.2187  0.6766  0.0671
73318SOL    HW237565   1.843  12.146   8.226 -0.4639 -0.0415  0.2567
73319SOL     OW37566  12.104  12.550   7.356 -0.5808 -0.3097  0.4104
73319SOL    HW137567  12.075  12.640   7.348 -1.9522 -0.5619  1.9457
73319SOL    HW237568  12.024  12.499   7.364  0.1067 -1.8410 -1.4565
73320SOL     OW37569   4.198   3.782  13.894 -0.3541  0.6320 -0.5365
73320SOL    HW137570   4.267   3.740  13.945  0.7837  2.7788 -0.1990
73320SOL    HW237571   4.141   3.710  13.867  1.4123 -1.0835  0.0870
73321SOL     OW37572  12.427   0.659   0.065  0.0928 -0.7571  0.0483
73321SOL    HW137573  12.481   0.672  -0.013  0.5411  1.3052  0.6425
73321SOL    HW237574  12.489   0.634   0.133  0.1874  0.4480  0.4402
73322SOL     OW37575   3.195   6.700   6.581  0.1645  0.0648  0.0478
73322SOL    HW137576   3.177   6.792   6.602  2.9379  0.6199  0.3932
73322SOL    HW237577   3.133   6.651   6.635 -0.2430  1.7112  1.1604
73323SOL     OW37578   8.808   6.866   3.558  0.5933  0.1755  0.3205
73323SOL    HW137579   8.734   6.808   3.540 -0.0780  1.1304 -0.0642
73323SOL    HW237580   8.769   6.952   3.573  1.6354  0.7384 -0.0708
73324SOL     OW37581  10.367   3.842   1.249 -0.3380 -0.4294  0.3808
73324SOL    HW137582  10.335   3.830   1.160  0.7323  2.5314 -0.5266
73324SOL    HW237583  10.426   3.769   1.263 -2.4517 -2.3800 -0.3039
73325SOL     OW37584  13.722   4.839   9.331  0.6114  0.3325 -0.0309
73325SOL    HW137585  13.700   4.905   9.396 -0.2688 -0.5266  0.5805
73325SOL    HW237586  13.767   4.887   9.262  0.5937  1.4456  0.7090
73326SOL     OW37587   3.790   5.360   8.090 -0.6781 -0.2910  0.0849
73326SOL    HW137588   3.827   5.434   8.138  1.2908 -0.1473 -1.4983
73326SOL    HW237589   3.864   5.302   8.074 -1.6498 -1.2958 -0.9855
73327SOL     OW37590   9.417  10.559   7.094  0.3472  0.1069 -0.1003
73327SOL    HW137591   9.392  10.651   7.091  1.1849  0.4174  1.2144
73327SOL    HW237592   9.510  10.559   7.074  0.2554 -0.5185 -0.5446
73328SOL     OW37593  12.939  11.099  10.666  0.3219 -0.1089 -0.0205
73328SOL    HW137594  12.856  11.144  10.647  0.0981 -0.4978  0.0217
73328SOL    HW237595  12.918  11.006  10.658  1.1364 -0.1922 -1.5719
73329SOL     OW37596  12.492   5.468   1.049 -0.4793 -0.1241  0.3830
73329SOL    HW137597  12.460   5.397   0.994 -1.7094 -1.6171  2.8821
73329SOL    HW237598  12.578   5.438   1.079 -0.4307  0.0518  0.4229
73330SOL     OW37599  12.694   1.322   4.214  0.0859 -0.0588 -0.1908
73330SOL    HW137600  12.787   1.325   4.238  0.4440  3.3540 -1.4746
73330SOL    HW237601  12.666   1.413   4.217 -3.3162 -0.9923  0.2422
73331SOL     OW37602   2.776   8.113   6.287  0.1265 -0.2983  0.1486
73331SOL    HW137603   2.760   8.204   6.262  2.3358  0.1386  0.1967
73331SOL    HW237604   2.866   8.095   6.259 -0.1801 -2.4154  0.3336
73332SOL     OW37605   1.563   1.848  13.619  0.1937 -0.3784  0.1441
73332SOL    HW137606   1.527   1.933  13.592 -0.3996 -1.1226 -1.5686
73332SOL    HW237607   1.486   1.793  13.633  0.5974 -1.1739 -0.6795
73333SOL     OW37608  12.712  13.436   6.399 -0.1253  0.0351  0.4807
73333SOL    HW137609  12.682  13.520   6.433 -4.8300 -1.5405  0.8725
73333SOL    HW237610  12.728  13.453   6.306 -0.9119  1.3991  0.5658
73334SOL     OW37611   3.250   5.786   7.300  0.0430 -0.2524 -0.2979
73334SOL    HW137612   3.256   5.711   7.360  0.3832 -0.2982 -0.3889
73334SOL    HW237613   3.241   5.862   7.358  1.0177 -0.2265 -0.1566
73335SOL     OW37614   4.801  10.113   9.786 -0.3448 -0.3127 -0.3890
73335SOL    HW137615   4.873  10.107   9.723  0.2064 -1.6140  0.3090
73335SOL    HW237616   4.842  10.096   9.871 -0.5192  4.1912  0.8158
73336SOL     OW37617   6.698   8.424   4.031 -0.6783 -0.4662 -0.0170
73336SOL    HW137618   6.700   8.376   3.947 -1.0783 -0.1391 -0.2171
73336SOL    HW237619   6.645   8.369   4.088 -2.2682  0.3492 -0.6446
73337SOL     OW37620   0.904   1.411   5.531 -0.5776 -0.1485 -0.8254
73337SOL    HW137621   0.878   1.497   5.497  0.0731  0.8347  1.0354
73337SOL    HW237622   0.825   1.377   5.572 -0.1701  0.8186  0.8396
73338SOL     OW37623   3.856  10.559  13.802 -0.1774  0.2272  0.2792
73338SOL    HW137624   3.786  10.618  13.775  0.0032  0.1695 -0.3340
73338SOL    HW237625   3.832  10.474  13.766  0.7504  0.4386 -0.9012
73339SOL     OW37626  11.101   9.978  12.100  0.0451 -0.8521 -0.2683
73339SOL    HW137627  11.135  10.051  12.048  2.1163 -0.8243  1.0122
73339SOL    HW237628  11.069   9.915  12.035  1.5133 -0.3436 -1.5574
73340SOL     OW37629  10.159   4.228   5.848 -0.2876 -0.2558  0.1965
73340SOL    HW137630  10.091   4.268   5.903 -0.2338  0.8482 -0.5164
73340SOL    HW237631  10.113   4.203   5.768  0.0243 -0.0834 -0.0365
73341SOL     OW37632  10.529   2.779   8.930 -0.0747 -0.3084 -0.1144
73341SOL    HW137633  10.533   2.827   9.013 -1.2235  1.1119 -0.8204
73341SOL    HW237634  10.436   2.784   8.905 -0.0408 -2.1227 -0.6849
73342SOL     OW37635   9.867   7.969  12.499 -1.0489 -0.0959 -0.2243
73342SOL    HW137636   9.814   7.980  12.578 -0.6614 -1.6797  0.2937
73342SOL    HW237637   9.915   7.888  12.513  0.9839  0.9027 -1.0126
73343SOL     OW37638   1.477  13.994   4.444  0.3536  0.1270 -0.1012
73343SOL    HW137639   1.445  13.948   4.521 -0.7041 -0.4823 -0.8694
73343SOL    HW237640   1.461  14.086   4.461 -0.2720 -0.0412  0.2398
73344SOL     OW37641  11.200   5.642   0.584  0.0366 -0.8076 -0.3495
73344SOL    HW137642  11.156   5.712   0.537  0.7236 -0.7004 -0.8416
73344SOL    HW237643  11.182   5.563   0.532 -0.6830 -0.9929  0.1688
73345SOL     OW37644  13.099  13.158   1.583  0.4566  0.1361 -0.1720
73345SOL    HW137645  13.028  13.222   1.587  0.0661 -0.3103  0.2673
73345SOL    HW237646  13.161  13.194   1.520  0.1535  0.8497 -0.0689
73346SOL     OW37647   2.894  10.367   4.892  0.0406 -0.3183  0.2275
73346SOL    HW137648   2.904  10.398   4.982  1.0931  0.4477 -0.1303
73346SOL    HW237649   2.974  10.395   4.848  0.5310 -2.5815 -0.4308
73347SOL     OW37650   6.600   7.197   4.039  0.0392 -0.6946 -0.4421
73347SOL    HW137651   6.541   7.268   4.062 -1.6373 -2.0444 -0.3679
73347SOL    HW237652   6.607   7.202   3.944  1.6948  0.8555 -0.2904
73348SOL     OW37653   4.872   7.184   2.667 -0.0170  0.2470  0.0039
73348SOL    HW137654   4.840   7.229   2.588  0.5466  0.3633 -0.1693
73348SOL    HW237655   4.882   7.254   2.732  0.6884  0.3612 -0.2102
73349SOL     OW37656  12.453   4.357   8.244  0.2654  0.0996 -0.3113
73349SOL    HW137657  12.530   4.322   8.200  0.7368  0.2004  0.4225
73349SOL    HW237658  12.444   4.305   8.324 -0.6144 -0.1182 -0.5377
73350SOL     OW37659   0.753   9.199   6.627 -0.3881  0.8079 -0.1037
73350SOL    HW137660   0.788   9.288   6.626 -2.2851  1.6381  1.6541
73350SOL    HW237661   0.820   9.147   6.671  1.3615  0.9865 -2.3468
73351SOL     OW37662  10.194   6.137   5.124  0.3467  0.7209 -0.2541
73351SOL    HW137663  10.230   6.225   5.133  0.5503  0.5448  0.7505
73351SOL    HW237664  10.269   6.079   5.131 -0.0051  0.3878  1.0370
73352SOL     OW37665  13.923   2.698   8.461 -0.1435  0.5267  0.4545
73352SOL    HW137666  13.973   2.739   8.391 -1.6660  0.9843 -0.4012
73352SOL    HW237667  13.947   2.606   8.457  0.6120  0.7298  0.0688
73353SOL     OW37668   1.563  10.477  11.706  0.4404 -0.2426 -0.1459
73353SOL    HW137669   1.627  10.442  11.643 -0.6842 -0.6424 -1.1177
73353SOL    HW237670   1.560  10.571  11.688  0.4737 -0.2834 -0.3680
73354SOL     OW37671  14.058  12.503   4.083 -0.4812 -0.0779  0.1946
73354SOL    HW137672  14.095  12.484   4.169  0.3820 -1.9040 -0.5141
73354SOL    HW237673  14.133  12.504   4.025 -1.2275 -0.9115 -0.8310
73355SOL     OW37674   9.971   7.616   1.191  0.3638  0.1917 -0.2885
73355SOL    HW137675  10.051   7.620   1.139  0.3161  0.4793 -0.3427
73355SOL    HW237676   9.922   7.543   1.153  1.6481 -1.5746  1.2987
73356SOL     OW37677   1.095   4.034   0.501 -0.3627  0.1808  0.2172
73356SOL    HW137678   1.066   4.114   0.457 -2.9039 -0.2109  0.9904
73356SOL    HW237679   1.171   4.061   0.552 -0.8047  1.9831  0.0022
73357SOL     OW37680   9.501   3.692   2.879 -0.1225  0.3295 -0.1489
73357SOL    HW137681   9.466   3.749   2.811 -1.6012  1.9462  1.8430
73357SOL    HW237682   9.523   3.611   2.833 -0.9605  1.3635 -2.5390
73358SOL     OW37683  13.673   0.552  11.059 -0.0044  0.5959  0.3264
73358SOL    HW137684  13.742   0.522  11.000  0.4831  0.4958  0.9404
73358SOL    HW237685  13.717   0.613  11.118  0.0716 -1.1458  2.1581
73359SOL     OW37686   2.266  12.171   3.206 -0.1378  0.1852  0.0953
73359SOL    HW137687   2.248  12.078   3.190 -0.6444  0.6506 -2.4418
73359SOL    HW237688   2.181  12.207   3.232 -1.0027  0.6575 -3.0292
73360SOL     OW37689   3.865   7.651   7.329  0.6386 -0.3493 -0.1748
73360SOL    HW137690   3.823   7.708   7.264 -1.5889 -0.0317  1.4494
73360SOL    HW237691   3.833   7.563   7.308  0.1178 -0.2822  0.3261
73361SOL     OW37692   2.822   1.830   6.935 -0.4721  0.3820  0.5650
73361SOL    HW137693   2.836   1.921   6.910  2.0385  0.0111  0.3228
73361SOL    HW237694   2.777   1.791   6.859  1.0496  0.8147 -0.6272
73362SOL     OW37695   9.851  12.300   4.761 -0.2896  0.5169  0.1978
73362SOL    HW137696   9.764  12.301   4.720 -0.5194 -0.4601  0.6214
73362SOL    HW237697   9.903  12.360   4.708 -0.9552  0.3534 -0.6731
73363SOL     OW37698   5.987   5.923   6.237 -0.4730  0.4759 -0.3454
73363SOL    HW137699   6.070   5.933   6.191 -0.0610  0.1891  0.3183
73363SOL    HW237700   5.997   5.976   6.316 -1.2239  1.0793 -0.6532
73364SOL     OW37701   1.419   5.066   5.465 -0.3063  0.6436  0.2073
73364SOL    HW137702   1.414   4.970   5.464 -0.3190  0.6232  1.2685
73364SOL    HW237703   1.328   5.094   5.449 -0.2602  0.4907 -0.3525
73365SOL     OW37704   4.026   2.927  10.554 -0.2907  0.3130  0.5179
73365SOL    HW137705   4.081   2.866  10.603  0.0407 -1.3414 -1.7990
73365SOL    HW237706   3.953   2.874  10.523 -0.4579  1.2937 -0.8259
73366SOL     OW37707  13.153   1.132   1.554 -0.1104  0.2827  0.0173
73366SOL    HW137708  13.168   1.063   1.490  0.2201  0.9831 -0.6763
73366SOL    HW237709  13.149   1.087   1.638 -0.5367 -0.6456 -0.4940
73367SOL     OW37710   0.531   2.062   1.515  0.1007  0.0289  0.0256
73367SOL    HW137711   0.472   2.078   1.442  0.5115  0.2507 -0.2557
73367SOL    HW237712   0.559   2.149   1.543  0.4057 -0.0838  0.0712
73368SOL     OW37713  10.888   4.871   9.449 -0.0532  0.1597  0.0262
73368SOL    HW137714  10.926   4.938   9.505 -0.9549  1.4026 -0.7831
73368SOL    HW237715  10.828   4.823   9.506  0.2067  0.3791  0.4884
73369SOL     OW37716   7.836   4.038   1.040  0.1216 -0.9776  0.6228
73369SOL    HW137717   7.825   3.987   0.960  0.2051 -0.8540  0.5328
73369SOL    HW237718   7.753   4.028   1.087 -0.2844 -0.2506  0.0644
73370SOL     OW37719   7.573  11.158   9.614  0.1647 -1.2001  0.5885
73370SOL    HW137720   7.644  11.165   9.550  1.5726 -3.2740  1.7910
73370SOL    HW237721   7.594  11.224   9.681 -0.0411 -0.6139  0.0880
73371SOL     OW37722   9.955   0.044  10.128  0.0906  0.0700  0.0893
73371SOL    HW137723  10.001   0.119  10.165  4.0331 -2.2791  0.5105
73371SOL    HW237724   9.976  -0.028  10.187 -0.9962 -1.9908 -1.8947
73372SOL     OW37725   3.934  12.850   1.738 -0.3064  0.3111  0.6056
73372SOL    HW137726   3.943  12.870   1.645 -0.7349  1.9336  0.8738
73372SOL    HW237727   4.001  12.903   1.781 -0.2446 -0.2654  1.2458
73373SOL     OW37728  10.912   6.334   7.474  0.1074 -0.0557  0.3277
73373SOL    HW137729  10.966   6.282   7.415  0.4546  1.6381 -0.9238
73373SOL    HW237730  10.824   6.298   7.464  0.7005 -1.9371  1.3394
73374SOL     OW37731   5.695   6.651  13.068  0.3236 -0.2186 -0.0385
73374SOL    HW137732   5.757   6.649  13.141  0.9164  0.0796 -0.5262
73374SOL    HW237733   5.749   6.645  12.989 -0.4271 -3.1384 -0.4715
73375SOL     OW37734  10.052   5.447  10.815  0.0097  0.5199  0.5112
73375SOL    HW137735  10.042   5.353  10.801  0.2667  0.6191 -0.3928
73375SOL    HW237736  10.143   5.458  10.845  0.9656  0.7497 -2.2406
73376SOL     OW37737   2.375  11.103  12.650 -0.5247 -0.3000  0.0487
73376SOL    HW137738   2.410  11.057  12.575  0.2268 -1.0081  0.8146
73376SOL    HW237739   2.430  11.181  12.658 -0.4515 -0.3471  0.0041
73377SOL     OW37740   8.526   4.014   7.212 -0.2742 -0.1161 -0.0790
73377SOL    HW137741   8.553   4.067   7.137 -1.1040  0.0676 -0.2576
73377SOL    HW237742   8.523   3.924   7.179  0.0400 -0.1288 -0.0760
73378SOL     OW37743   5.531   6.152   4.566 -0.6932 -1.2163  0.2033
73378SOL    HW137744   5.469   6.082   4.545  0.1134 -1.2855 -2.2741
73378SOL    HW237745   5.588   6.157   4.489  1.2194  0.0962  1.6032
73379SOL     OW37746   5.036   5.159   1.666 -0.5188 -0.5619  0.3855
73379SOL    HW137747   4.968   5.127   1.607 -0.9846  0.1986  0.5056
73379SOL    HW237748   4.995   5.230   1.715  0.5828  0.4466 -0.1113
73380SOL     OW37749  10.272   3.878   7.577 -0.1574  0.2138 -0.0893
73380SOL    HW137750  10.275   3.787   7.549  1.4578  0.3482 -0.4272
73380SOL    HW237751  10.180   3.902   7.570 -0.5452 -1.2681 -0.3778
73381SOL     OW37752   2.756  13.297   2.889 -0.1153 -0.8901 -0.0758
73381SOL    HW137753   2.713  13.382   2.878  0.0058 -0.9402 -0.9488
73381SOL    HW237754   2.770  13.265   2.800 -0.3251 -1.9146  0.2488
73382SOL     OW37755   1.065   3.941   8.831  0.4126  0.1706  0.5352
73382SOL    HW137756   1.023   3.978   8.753 -0.0778  1.3687  1.3253
73382SOL    HW237757   1.148   3.907   8.800 -0.0847 -0.0214 -0.6366
73383SOL     OW37758   9.507  12.108  12.171 -0.2118 -0.2014  0.7063
73383SOL    HW137759   9.542  12.072  12.252  0.1428 -0.7851  0.3028
73383SOL    HW237760   9.584  12.142  12.125 -0.4884  0.6836  0.8855
73384SOL     OW37761   3.446   2.328  13.239 -0.2243 -0.1421 -0.3042
73384SOL    HW137762   3.481   2.239  13.242  1.3214  0.4487  0.7461
73384SOL    HW237763   3.378   2.329  13.306 -0.5508 -0.6386 -0.6213
73385SOL     OW37764  11.257   2.412   6.553 -0.5553  0.0006 -0.2060
73385SOL    HW137765  11.176   2.380   6.592  0.1071  0.3022  1.5056
73385SOL    HW237766  11.295   2.335   6.509 -0.3558 -0.9159  1.4711
73386SOL     OW37767   8.292   9.007  11.963 -0.0215  0.3997 -1.3874
73386SOL    HW137768   8.278   9.028  12.055  0.1236 -0.0809 -1.2542
73386SOL    HW237769   8.352   9.074  11.931  0.5984  0.0681 -0.9191
73387SOL     OW37770  11.682   8.699   5.597 -0.3813 -0.2116  0.2935
73387SOL    HW137771  11.729   8.740   5.669 -0.0977  0.7656 -0.4183
73387SOL    HW237772  11.686   8.763   5.526 -1.7251 -0.6147 -0.1905
73388SOL     OW37773  13.898   6.018  11.273  0.4559 -0.2608 -0.4869
73388SOL    HW137774  13.812   6.042  11.308 -0.1273 -1.4255 -1.0425
73388SOL    HW237775  13.931   6.098  11.233 -0.5635  0.0962 -0.6406
73389SOL     OW37776   0.961   3.939   8.106  0.0154  0.3699 -0.4336
73389SOL    HW137777   0.951   3.877   8.179  1.4025  0.0733 -0.4620
73389SOL    HW237778   0.984   3.884   8.031 -0.2884  0.7801 -0.8323
73390SOL     OW37779  10.306  13.379  10.099  0.0020  0.4017 -0.0627
73390SOL    HW137780  10.394  13.359  10.129 -0.0899  0.2242  0.0918
73390SOL    HW237781  10.295  13.472  10.115  0.3460  0.5294 -0.5583
73391SOL     OW37782   3.411   3.291   7.045 -0.2546 -0.4304 -0.1986
73391SOL    HW137783   3.421   3.242   7.127  1.4273  1.6851  0.9473
73391SOL    HW237784   3.498   3.289   7.005  0.0165  1.9551  0.1504
73392SOL     OW37785  11.801   6.305   4.556 -0.5715 -0.3709 -0.3765
73392SOL    HW137786  11.784   6.398   4.573 -1.1360 -0.4817 -0.3145
73392SOL    HW237787  11.861   6.279   4.625  0.2145  0.1400 -0.8535
73393SOL     OW37788   0.244   3.460  12.767 -0.3311  0.7892  0.7435
73393SOL    HW137789   0.281   3.486  12.683 -0.7501 -0.2414  0.2105
73393SOL    HW237790   0.319   3.444  12.823  0.0830 -0.9259 -0.2126
73394SOL     OW37791   0.120   9.959   9.360  0.4025  0.7564  0.0683
73394SOL    HW137792   0.180   9.889   9.385  0.5980  0.8848 -0.0365
73394SOL    HW237793   0.132   9.968   9.265 -0.7889 -0.1565 -0.1930
73395SOL     OW37794   1.363   9.253   6.488  0.2339  0.2885  0.5852
73395SOL    HW137795   1.402   9.205   6.415 -1.7507 -1.0611  0.3351
73395SOL    HW237796   1.393   9.343   6.476  0.9968 -0.1579 -1.1467
73396SOL     OW37797   3.968   4.833   4.104 -1.0282 -0.2704 -0.9588
73396SOL    HW137798   3.895   4.780   4.137 -0.8421  0.2572  0.3729
73396SOL    HW237799   4.046   4.794   4.144 -0.8112  0.5008 -0.6046
73397SOL     OW37800  11.997   9.822   5.986 -0.9142 -0.3334 -0.3749
73397SOL    HW137801  11.946   9.876   5.926  0.0611 -0.2555 -1.1641
73397SOL    HW237802  12.003   9.737   5.942  1.4921  0.2791 -1.4266
73398SOL     OW37803   5.235   7.904  12.608 -0.2208 -0.2481  0.1544
73398SOL    HW137804   5.293   7.872  12.678 -0.5929 -2.6936 -0.5762
73398SOL    HW237805   5.295   7.940  12.543  0.4537 -1.6750 -0.0559
73399SOL     OW37806  11.967   6.730   2.589 -0.3214 -0.9824  0.5441
73399SOL    HW137807  11.998   6.805   2.537 -0.8271 -0.2587  1.2792
73399SOL    HW237808  12.035   6.717   2.655 -1.1012 -0.0020  1.5585
73400SOL     OW37809   4.120   0.894   4.014  1.0998  0.2240  0.2995
73400SOL    HW137810   4.198   0.949   4.024  0.8915  0.6561 -0.4284
73400SOL    HW237811   4.047   0.955   4.017  0.9224  0.2034 -1.9606
73401SOL     OW37812  12.581   4.118   4.565 -0.0283  0.1739  0.0120
73401SOL    HW137813  12.527   4.072   4.630 -0.7158  0.4549 -0.3484
73401SOL    HW237814  12.541   4.096   4.481  0.3997  0.4246 -0.2627
73402SOL     OW37815  13.717   7.196   6.106 -0.1877  0.1325  0.3031
73402SOL    HW137816  13.753   7.250   6.036 -0.0347 -0.9040 -0.4523
73402SOL    HW237817  13.702   7.111   6.065  1.7614 -1.1277  1.9840
73403SOL     OW37818   2.204   7.959  10.142  0.3955  0.0223 -0.1817
73403SOL    HW137819   2.206   7.945  10.047  1.2224  0.7280 -0.2857
73403SOL    HW237820   2.295   7.976  10.166  0.0420  0.9923  0.5576
73404SOL     OW37821  11.560   8.203   2.373 -0.0064  0.6905 -0.2849
73404SOL    HW137822  11.596   8.236   2.455  0.3124 -0.5891  0.1168
73404SOL    HW237823  11.635   8.196   2.315 -0.2190  1.5162 -0.6843
73405SOL     OW37824   7.918  13.850   9.967 -0.1747 -0.9321  0.2876
73405SOL    HW137825   7.941  13.842   9.874  2.1982 -1.6809  0.8738
73405SOL    HW237826   7.852  13.782   9.981 -1.1859 -0.2667 -0.9868
73406SOL     OW37827  10.087   4.603   5.056  0.5250  0.3436 -0.0739
73406SOL    HW137828  10.023   4.563   4.999  1.0304 -0.9420  0.2152
73406SOL    HW237829  10.113   4.684   5.012  0.5397 -0.3725 -1.4011
73407SOL     OW37830   4.138   1.290  13.852  0.0909  0.0676  0.2682
73407SOL    HW137831   4.142   1.216  13.791 -0.3524 -0.2775  0.6515
73407SOL    HW237832   4.224   1.330  13.847  0.1283 -0.0811 -0.4335
73408SOL     OW37833   0.117   7.938   3.504 -0.5285 -0.5032 -0.4195
73408SOL    HW137834   0.136   7.856   3.551 -1.7346 -0.6370 -0.1330
73408SOL    HW237835   0.156   8.006   3.559 -0.6248 -0.7865  0.0062
73409SOL     OW37836   7.117   4.325   2.091  0.3770  0.2262 -0.5571
73409SOL    HW137837   7.117   4.270   2.169  0.7386  0.3325 -0.4828
73409SOL    HW237838   7.041   4.382   2.102  0.9717  0.8964  0.1811
73410SOL     OW37839   5.554   2.134  13.528 -0.0827 -0.5557 -0.1600
73410SOL    HW137840   5.618   2.204  13.537 -0.2930 -0.4422  0.4921
73410SOL    HW237841   5.485   2.156  13.591  0.4691 -2.0397  1.0152
73411SOL     OW37842  11.133  10.578  13.151  0.6347 -0.3003 -0.0393
73411SOL    HW137843  11.125  10.554  13.244 -2.2483 -0.0035 -0.0972
73411SOL    HW237844  11.191  10.653  13.151 -0.0800  0.3219  1.7007
73412SOL     OW37845   8.325  11.677   2.587 -0.4567 -0.0993  0.2808
73412SOL    HW137846   8.402  11.702   2.535  0.4998  0.3639  1.8542
73412SOL    HW237847   8.308  11.586   2.560  0.4409 -0.1100 -0.3233
73413SOL     OW37848   6.394  11.140  12.053 -0.0523  0.3708  0.4088
73413SOL    HW137849   6.405  11.235  12.055 -1.4316  0.6099 -1.1200
73413SOL    HW237850   6.355  11.118  12.137  0.4167  1.1207  0.8338
73414SOL     OW37851   4.597   2.764   8.666 -0.1418 -0.3291  0.0434
73414SOL    HW137852   4.669   2.827   8.656 -1.2581  1.1189  0.6408
73414SOL    HW237853   4.606   2.733   8.756 -0.1664 -0.2694  0.0671
73415SOL     OW37854   7.590  13.064  13.416 -0.4875  0.0096  0.0405
73415SOL    HW137855   7.533  13.124  13.368 -0.1952  2.5898  2.5882
73415SOL    HW237856   7.679  13.091  13.390 -0.2701  2.3633  2.7460
73416SOL     OW37857   1.001   7.866   3.800 -0.0563 -0.2616  0.4060
73416SOL    HW137858   1.006   7.777   3.764  0.3342 -0.6858  1.4844
73416SOL    HW237859   0.919   7.901   3.764  0.5334 -0.4714 -1.2755
73417SOL     OW37860   8.365   0.837   6.730  0.4122  0.2021 -0.2347
73417SOL    HW137861   8.336   0.887   6.653  0.8887  1.4802  0.4018
73417SOL    HW237862   8.457   0.818   6.713  0.8455  1.5040  0.5166
73418SOL     OW37863   3.199  13.362   6.333  0.1305 -0.3141  0.0898
73418SOL    HW137864   3.280  13.392   6.375  0.8059 -0.8998 -0.7748
73418SOL    HW237865   3.156  13.310   6.401  1.1744 -1.1773  0.1408
73419SOL     OW37866  11.285  11.438   7.136 -0.8139 -0.2342  0.3325
73419SOL    HW137867  11.251  11.527   7.126  1.9458  1.0216  1.0586
73419SOL    HW237868  11.287  11.423   7.230  0.9822 -0.0192  0.3757
73420SOL     OW37869  13.575   1.377   7.486 -0.1966 -0.3280  0.0312
73420SOL    HW137870  13.593   1.459   7.441 -3.2027 -0.5997 -1.9484
73420SOL    HW237871  13.651   1.321   7.467 -0.0481  0.5698 -2.3183
73421SOL     OW37872   4.185  13.438   5.518 -0.1766  0.0368 -0.2407
73421SOL    HW137873   4.130  13.435   5.439 -1.3916  3.1951  0.3441
73421SOL    HW237874   4.122  13.435   5.590  0.6849  0.3159  0.5318
73422SOL     OW37875   4.662   2.904   4.723 -0.5350  0.9488 -0.1835
73422SOL    HW137876   4.648   2.918   4.629 -3.0783  0.9662  0.1407
73422SOL    HW237877   4.719   2.827   4.727 -0.1465  1.1081 -1.7342
73423SOL     OW37878   2.761  11.455  10.687 -0.1870  0.0787 -0.3355
73423SOL    HW137879   2.766  11.378  10.629 -0.6692 -0.6341  0.5461
73423SOL    HW237880   2.689  11.435  10.747  0.8664  0.3842  1.0856
73424SOL     OW37881   1.193   3.777   5.396 -0.0749 -0.1843  0.5197
73424SOL    HW137882   1.126   3.731   5.447  0.1815 -0.4960  0.5781
73424SOL    HW237883   1.152   3.794   5.312 -0.2818 -0.2331  0.6089
73425SOL     OW37884  12.692  12.492  10.911  0.0325  0.1839 -0.1933
73425SOL    HW137885  12.617  12.547  10.937 -0.1637 -0.6007  1.0147
73425SOL    HW237886  12.754  12.553  10.871 -1.5925  0.7302 -2.0128
73426SOL     OW37887   2.170   8.914   0.180  0.0144 -0.2440 -0.0852
73426SOL    HW137888   2.169   8.919   0.276  0.8061  1.0790 -0.1132
73426SOL    HW237889   2.258   8.884   0.159  0.0179 -0.0106 -0.4073
73427SOL     OW37890   7.473  11.562   4.232 -0.3056  0.1919  0.3448
73427SOL    HW137891   7.466  11.484   4.287 -0.8752 -0.1570 -0.2138
73427SOL    HW237892   7.493  11.633   4.293  2.7397 -0.7547  0.6170
73428SOL     OW37893   4.171   4.886   0.784 -0.5999 -0.1665 -0.2315
73428SOL    HW137894   4.150   4.863   0.693 -0.0776  0.8197 -0.6082
73428SOL    HW237895   4.090   4.870   0.831 -0.7519 -1.1262 -0.7834
73429SOL     OW37896   5.696   3.563   0.241 -0.1930 -0.1579  0.4659
73429SOL    HW137897   5.783   3.576   0.278  0.4929 -0.3824 -1.0036
73429SOL    HW237898   5.669   3.650   0.214  0.9340 -0.4702 -1.9065
73430SOL     OW37899  14.084   6.858  11.135 -0.2226  0.5529  0.1372
73430SOL    HW137900  14.145   6.808  11.189  0.8748  0.7808 -0.8499
73430SOL    HW237901  14.000   6.849  11.179  0.2168 -1.0215  0.7190
73431SOL     OW37902   1.554  11.949   5.142  0.3794 -0.6406 -0.2061
73431SOL    HW137903   1.609  12.000   5.201  0.5694  1.0220 -1.7424
73431SOL    HW237904   1.614  11.884   5.104  1.0246  0.3226 -0.8940
73432SOL     OW37905   7.049  12.699  12.875 -0.2674  0.4005  0.5693
73432SOL    HW137906   7.061  12.750  12.795  1.7457 -0.0553  0.5154
73432SOL    HW237907   7.129  12.715  12.925 -0.4537 -1.1758  1.4165
73433SOL     OW37908   0.071   2.610   8.073  0.1333  0.2240  1.0236
73433SOL    HW137909   0.143   2.554   8.102  0.5169 -0.6270 -1.3051
73433SOL    HW237910   0.112   2.673   8.013 -1.0661 -0.6974 -0.8722
73434SOL     OW37911   1.425  11.687  14.026 -0.3436  0.1617 -0.2897
73434SOL    HW137912   1.510  11.687  14.070 -0.5201 -0.7278  0.0747
73434SOL    HW237913   1.362  11.671  14.096 -0.8338  0.9623 -0.5378
73435SOL     OW37914   3.661   7.376  13.479  0.2376  0.5274 -0.0427
73435SOL    HW137915   3.672   7.418  13.564  1.5703  0.4998 -0.1826
73435SOL    HW237916   3.586   7.318  13.491  0.2870  0.6603  1.0529
73436SOL     OW37917   4.287   4.270  10.581  0.1928 -0.5261 -0.4830
73436SOL    HW137918   4.228   4.332  10.539 -0.2632 -0.4883  0.1921
73436SOL    HW237919   4.298   4.200  10.517 -1.1412 -0.8699 -0.3676
73437SOL     OW37920   9.335   9.152   1.887 -0.3967  0.0822 -0.1215
73437SOL    HW137921   9.363   9.115   1.804 -0.6469 -0.0677 -0.1391
73437SOL    HW237922   9.271   9.090   1.921 -1.3724  0.8491 -0.4980
73438SOL     OW37923  12.259   3.625   0.927 -0.1163 -0.2966  0.1832
73438SOL    HW137924  12.215   3.587   1.003 -0.4622 -2.6794 -1.0945
73438SOL    HW237925  12.222   3.578   0.852  1.3580  0.8201 -1.3306
73439SOL     OW37926   6.335  14.086   3.158  0.1339 -0.2273 -0.0367
73439SOL    HW137927   6.308  14.167   3.201 -0.2255 -0.9441  1.1296
73439SOL    HW237928   6.267  14.070   3.092 -1.7503 -1.3897  2.0716
73440SOL     OW37929   3.844   0.232   1.460 -0.1675  0.6798  0.1535
73440SOL    HW137930   3.880   0.205   1.375  0.0062  0.5198  0.2781
73440SOL    HW237931   3.803   0.153   1.495 -0.3195  0.7696  0.1787
73441SOL     OW37932   9.779   2.080   6.817  0.0731 -0.3346 -0.4697
73441SOL    HW137933   9.831   2.116   6.889  1.6630 -0.5349 -1.4604
73441SOL    HW237934   9.742   1.999   6.852  0.7646 -0.3896  0.1524
73442SOL     OW37935   3.089   9.706   5.922  0.1312 -0.3455 -0.7375
73442SOL    HW137936   3.035   9.771   5.877 -1.0556 -1.8998 -1.6574
73442SOL    HW237937   3.102   9.636   5.858  1.2425 -1.0957  0.2569
73443SOL     OW37938   9.180  12.696   0.770 -0.4852  0.1099  0.4100
73443SOL    HW137939   9.099  12.653   0.798  0.4560 -2.4219 -0.4554
73443SOL    HW237940   9.232  12.704   0.850 -0.2565 -1.4484  0.4477
73444SOL     OW37941   9.348  13.210  12.710 -0.0175  0.3513  0.3008
73444SOL    HW137942   9.276  13.252  12.664 -1.1972 -0.1477  1.6212
73444SOL    HW237943   9.307  13.141  12.762  1.4638 -0.2268  0.7681
73445SOL     OW37944  12.430   6.994   4.021 -0.8103 -0.4413 -0.1168
73445SOL    HW137945  12.364   7.041   4.071 -2.0829 -0.6238 -1.5403
73445SOL    HW237946  12.478   6.944   4.087 -0.8516  1.1222  1.1678
73446SOL     OW37947   3.559   0.669   6.561 -0.1011  0.3908  0.4307
73446SOL    HW137948   3.623   0.650   6.492 -0.7643  0.6271 -0.2530
73446SOL    HW237949   3.600   0.635   6.641  0.1102 -1.0730 -0.2662
73447SOL     OW37950  13.513  12.902   0.781  0.6327  0.3234  0.5589
73447SOL    HW137951  13.560  12.832   0.736 -0.5115 -0.8241  1.1145
73447SOL    HW237952  13.437  12.920   0.725 -0.8700 -1.1984  2.0033
73448SOL     OW37953   1.707   5.559  12.630 -0.7826 -0.2729  0.0958
73448SOL    HW137954   1.773   5.611  12.677  0.2395  0.1744 -1.7262
73448SOL    HW237955   1.703   5.477  12.678  1.2724 -0.3828  0.1714
73449SOL     OW37956   4.790   6.796   7.468  0.1784 -0.2443 -0.4882
73449SOL    HW137957   4.753   6.730   7.409 -2.0864  1.0195 -0.5710
73449SOL    HW237958   4.737   6.790   7.547  0.8872  0.5080  0.0535
73450SOL     OW37959  12.120  10.830  13.965  0.0476  0.1681 -0.3801
73450SOL    HW137960  12.030  10.851  13.989 -0.1574  1.0071 -1.7470
73450SOL    HW237961  12.164  10.914  13.961  0.8917 -0.2334  0.2286
73451SOL     OW37962   4.211   7.338   0.042  0.3250 -0.5249 -0.4922
73451SOL    HW137963   4.172   7.317  -0.043 -0.2405  0.1781 -0.4109
73451SOL    HW237964   4.208   7.434   0.047 -1.0680 -0.6196  0.9824
73452SOL     OW37965   0.466   5.618   6.457 -0.0172  0.4885  0.0662
73452SOL    HW137966   0.500   5.565   6.385  0.4381 -1.1762  1.4355
73452SOL    HW237967   0.538   5.677   6.479  0.1072  0.5026 -0.3744
73453SOL     OW37968   4.486   5.304   3.290 -0.2779 -0.5125  0.0875
73453SOL    HW137969   4.558   5.357   3.325 -0.1820 -0.9745  0.6170
73453SOL    HW237970   4.499   5.304   3.195  1.5125 -2.0838  0.2526
73454SOL     OW37971   4.557  12.912   4.523 -0.3977 -0.1196 -0.6704
73454SOL    HW137972   4.567  13.007   4.529 -0.2748 -0.1892  0.5224
73454SOL    HW237973   4.470  12.895   4.557  0.0641 -0.5265  0.3645
73455SOL     OW37974   6.163   1.112   3.468 -0.2250 -0.4250 -0.3747
73455SOL    HW137975   6.246   1.123   3.515  0.0061  0.4186 -0.9504
73455SOL    HW237976   6.173   1.030   3.421  0.1400 -0.5147 -0.1481
73456SOL     OW37977   9.238   3.069  11.596 -0.3328  0.0458  0.2219
73456SOL    HW137978   9.237   3.045  11.689  2.7768 -1.8043 -0.0443
73456SOL    HW237979   9.323   3.112  11.584 -1.9382  3.0494 -1.2563
73457SOL     OW37980   6.015   7.742   2.362  0.2116  0.2764  0.3703
73457SOL    HW137981   6.047   7.809   2.423  0.3170  0.3959  0.1841
73457SOL    HW237982   5.946   7.696   2.411  0.0575  0.5973  0.4550
73458SOL     OW37983   1.225  13.772   0.111 -0.3346  0.2528 -0.5570
73458SOL    HW137984   1.308  13.808   0.142  0.1307  0.8303 -2.3663
73458SOL    HW237985   1.159  13.832   0.145 -0.0047 -0.0279  0.6237
73459SOL     OW37986   4.293   9.246   9.456 -0.2419 -0.0991 -0.6253
73459SOL    HW137987   4.216   9.255   9.511 -1.5003  0.1601 -2.3389
73459SOL    HW237988   4.349   9.185   9.503 -1.9266 -1.0595  0.2383
73460SOL     OW37989   3.894   2.989   8.957 -0.3673  0.1338 -0.8728
73460SOL    HW137990   3.889   3.024   8.868  0.1023 -0.1411 -1.0085
73460SOL    HW237991   3.975   3.024   8.993 -1.2203  1.3447 -0.0695
73461SOL     OW37992   8.329   3.054   2.213 -0.0612 -0.1060 -0.5391
73461SOL    HW137993   8.246   3.009   2.230  0.2533 -0.4526  0.1271
73461SOL    HW237994   8.395   2.985   2.216  0.4068  0.3604  0.2921
73462SOL     OW37995   9.814  13.061  12.025  0.2114  0.0437 -0.5387
73462SOL    HW137996   9.838  12.990  11.966 -0.8503  0.3790 -1.4051
73462SOL    HW237997   9.833  13.141  11.977  0.2043  0.3374 -0.0667
73463SOL     OW37998   1.947   8.923   4.392  0.3059 -0.1911 -0.2403
73463SOL    HW137999   1.899   8.869   4.455 -1.3924  0.7355 -0.6722
73463SOL    HW238000   1.918   9.012   4.409 -0.9179  0.0197 -2.8432
73464SOL     OW38001  10.562  11.478   1.805 -0.0547  0.5746 -0.2017
73464SOL    HW138002  10.565  11.389   1.839 -0.4499  0.9057  0.7429
73464SOL    HW238003  10.631  11.482   1.739 -0.4307 -0.6016 -0.6780
73465SOL     OW38004   3.114   6.922   4.886  0.1150 -0.4326 -0.2318
73465SOL    HW138005   3.170   6.856   4.926  0.8519 -0.6314 -1.5427
73465SOL    HW238006   3.156   6.942   4.803 -1.3037  0.0602 -0.8576
73466SOL     OW38007   2.848  13.451   1.108 -0.1424 -0.1313 -0.5946
73466SOL    HW138008   2.881  13.370   1.069  0.1112 -2.0063  3.1140
73466SOL    HW238009   2.760  13.430   1.139 -0.1106  1.0316  0.3677
73467SOL     OW38010   1.650   4.230  12.808  0.0011 -0.0413  0.0305
73467SOL    HW138011   1.725   4.276  12.845  0.3548  0.0387 -0.7560
73467SOL    HW238012   1.651   4.253  12.715 -0.3707 -0.8756 -0.1939
73468SOL     OW38013   5.158   7.750   3.752  0.2640 -0.6276  0.2451
73468SOL    HW138014   5.132   7.692   3.824 -1.3264 -1.5265 -0.9897
73468SOL    HW238015   5.186   7.692   3.682  0.8838  0.2031 -0.2227
73469SOL     OW38016   7.525   4.165   5.930 -0.6085  0.1517 -0.7758
73469SOL    HW138017   7.540   4.260   5.938 -0.0337 -0.0108  0.2378
73469SOL    HW238018   7.553   4.144   5.841 -0.3618  0.8736 -0.8763
73470SOL     OW38019   6.246  13.701   7.927  0.2789  0.7545 -0.2311
73470SOL    HW138020   6.165  13.666   7.965 -0.2242 -0.5615 -2.3540
73470SOL    HW238021   6.305  13.711   8.002 -0.9350 -0.8877  1.0296
73471SOL     OW38022   9.391   5.423  11.211 -0.4317  0.0951  0.4936
73471SOL    HW138023   9.408   5.514  11.187 -1.5707  0.5156  1.1993
73471SOL    HW238024   9.436   5.372  11.143 -0.5930  1.1945 -0.4819
73472SOL     OW38025  12.665  12.004   2.472  0.5062  0.4056 -0.3028
73472SOL    HW138026  12.599  12.006   2.541 -1.4545 -0.7586 -2.0322
73472SOL    HW238027  12.647  11.925   2.423  2.2381  0.8572 -1.8043
73473SOL     OW38028   6.860  10.441   1.460 -1.2559 -0.3597  0.4512
73473SOL    HW138029   6.851  10.459   1.366  1.1894 -2.1952 -0.2381
73473SOL    HW238030   6.821  10.517   1.503 -1.8383  0.8572 -2.0456
73474SOL     OW38031   1.060   4.629   6.448 -0.0438 -0.2557 -0.0942
73474SOL    HW138032   0.975   4.636   6.491  0.0577 -1.7731  0.4042
73474SOL    HW238033   1.121   4.608   6.519  0.1811 -2.4876 -0.8925
73475SOL     OW38034   4.205  13.574   8.146  0.6698 -0.2330 -0.2339
73475SOL    HW138035   4.297  13.561   8.166  0.5234  0.5127  1.0233
73475SOL    HW238036   4.173  13.634   8.214 -0.5892  0.0249 -1.0025
73476SOL     OW38037   5.232   8.544   5.534  0.4490 -0.4729 -0.1710
73476SOL    HW138038   5.223   8.631   5.574 -0.5223 -0.4498 -0.4095
73476SOL    HW238039   5.266   8.562   5.446 -0.7341 -0.2264 -0.6022
73477SOL     OW38040   8.899  10.261   5.325  0.3266 -0.0998  0.1147
73477SOL    HW138041   8.836  10.189   5.322 -1.1171  1.0956  0.4117
73477SOL    HW238042   8.867  10.316   5.397  0.8495  1.3062 -0.7093
73478SOL     OW38043   6.469  10.259   2.186 -0.3276 -0.3850 -0.2889
73478SOL    HW138044   6.471  10.170   2.151 -1.7032 -0.4391 -0.2984
73478SOL    HW238045   6.425  10.249   2.271  1.3925 -0.0066  0.6757
73479SOL     OW38046  10.379  11.025  11.757  0.3522 -0.1157  0.2221
73479SOL    HW138047  10.350  10.958  11.695  1.0152 -0.1596 -0.0524
73479SOL    HW238048  10.444  10.981  11.812  0.4279  0.1671  0.3620
73480SOL     OW38049   1.945   8.851   9.996  0.6078  0.4279  0.6624
73480SOL    HW138050   1.988   8.925  10.040 -0.6505  0.8950  1.1469
73480SOL    HW238051   2.017   8.801   9.958  1.5321  1.5809  0.8258
73481SOL     OW38052   5.580  13.157  12.138  0.2467  0.4097 -0.1614
73481SOL    HW138053   5.646  13.181  12.203  0.1502  0.2231  0.0078
73481SOL    HW238054   5.498  13.193  12.173  0.0248 -0.5030  0.3056
73482SOL     OW38055  13.047  13.471  11.628  0.0355 -0.0343 -0.0327
73482SOL    HW138056  13.060  13.540  11.694  0.3675  1.2858 -1.4205
73482SOL    HW238057  13.123  13.479  11.570  0.0863 -1.6143 -0.2175
73483SOL     OW38058   9.404   2.928   7.053 -0.0567  0.1163  0.4795
73483SOL    HW138059   9.442   2.895   7.134 -0.6668  1.1056  1.1905
73483SOL    HW238060   9.461   2.894   6.984  1.2510  0.3600  1.4071
73484SOL     OW38061   8.724   9.620   6.072  0.2533 -0.0796 -0.0657
73484SOL    HW138062   8.772   9.660   6.144  0.4700  0.0592 -0.2843
73484SOL    HW238063   8.727   9.685   6.002  1.4412 -0.8387 -0.7641
73485SOL     OW38064   7.251  11.629   2.045  0.7783 -0.4413 -0.2493
73485SOL    HW138065   7.182  11.679   2.089  0.6094 -0.5411 -0.4076
73485SOL    HW238066   7.319  11.695   2.027  0.5794 -0.2793 -0.4078
73486SOL     OW38067   4.137   4.207   2.436 -0.0229 -0.5100 -0.3198
73486SOL    HW138068   4.211   4.267   2.436 -0.1818 -0.3018  0.7236
73486SOL    HW238069   4.061   4.261   2.459 -0.1632 -1.0941  0.6664
73487SOL     OW38070  12.411  13.471   6.416 -0.0512  0.4179 -0.9898
73487SOL    HW138071  12.474  13.402   6.397  0.5491  0.4393  0.7142
73487SOL    HW238072  12.329  13.425   6.435  1.1519 -0.3094  3.6977
73488SOL     OW38073   8.951  11.360   5.596 -0.1966  0.5113 -0.3518
73488SOL    HW138074   8.922  11.424   5.661 -1.0043  0.3179 -0.5126
73488SOL    HW238075   8.979  11.413   5.522  3.1675  0.9038  0.9970
73489SOL     OW38076   8.069   2.209   9.886  0.6155 -0.2559 -0.0111
73489SOL    HW138077   8.032   2.214   9.798 -1.2625  0.0973  0.7676
73489SOL    HW238078   8.152   2.162   9.874  0.8952  0.6318 -2.0945
73490SOL     OW38079   8.060   0.912  13.798  0.1719  0.0701  0.0600
73490SOL    HW138080   8.076   0.821  13.820 -1.4242  0.0310  1.2700
73490SOL    HW238081   8.107   0.926  13.716  1.4516 -1.4798  0.4843
73491SOL     OW38082   4.905   0.576   5.588 -0.8106 -0.4504  0.7769
73491SOL    HW138083   4.940   0.573   5.677  0.1575 -1.3020  0.3835
73491SOL    HW238084   4.927   0.490   5.551  0.4925  0.5558 -0.9115
73492SOL     OW38085   4.096   7.491   0.563  0.4446 -0.7157 -0.5639
73492SOL    HW138086   4.122   7.437   0.489  0.8236 -0.3375 -0.7044
73492SOL    HW238087   4.109   7.581   0.534 -0.8598 -0.5100 -0.5828
73493SOL     OW38088   9.911   2.423  12.078  0.0632 -0.3353 -0.3303
73493SOL    HW138089   9.840   2.375  12.034 -0.1890 -0.6046  0.3535
73493SOL    HW238090   9.893   2.515  12.058  0.3592 -0.4861 -1.3733
73494SOL     OW38091  11.714  12.800   6.425  0.1319  0.0304  0.1380
73494SOL    HW138092  11.647  12.738   6.395  2.5008 -1.6477 -2.1292
73494SOL    HW238093  11.690  12.883   6.382 -1.2581 -0.1117  0.5751
73495SOL     OW38094   8.476   9.998   9.916 -0.6135 -0.2669 -0.3652
73495SOL    HW138095   8.514  10.082   9.943  0.1470 -1.4169  2.5367
73495SOL    HW238096   8.535   9.966   9.847  1.4996 -0.1776  1.2781
73496SOL     OW38097   2.293   7.550   6.888  0.3707 -0.3118  0.2768
73496SOL    HW138098   2.298   7.585   6.799  0.4461 -1.8271 -0.3463
73496SOL    HW238099   2.218   7.593   6.927 -0.1568 -0.2204 -0.8036
73497SOL     OW38100   0.387  11.598  11.220 -0.0291  0.1708 -0.0899
73497SOL    HW138101   0.356  11.682  11.255 -0.4374 -0.0972  0.2030
73497SOL    HW238102   0.470  11.618  11.178  0.3243  0.5563  0.7778
73498SOL     OW38103   4.190   5.574   5.693 -0.1398  0.1730 -0.0431
73498SOL    HW138104   4.142   5.615   5.765 -1.2969  0.2997 -0.8519
73498SOL    HW238105   4.257   5.638   5.670  2.1535 -1.0493  2.7432
73499SOL     OW38106   8.402   2.648  10.151  0.2516 -0.2678 -0.5660
73499SOL    HW138107   8.312   2.628  10.178  0.9585 -0.8808  1.4600
73499SOL    HW238108   8.446   2.563  10.152  0.9934  0.1050 -1.0505
73500SOL     OW38109   9.131   1.917  10.837  0.2130  0.4515 -0.4503
73500SOL    HW138110   9.171   1.829  10.837  1.5445  0.9911 -2.4874
73500SOL    HW238111   9.166   1.959  10.915 -1.4713 -1.2007  1.3000
73501SOL     OW38112   0.949  10.300  12.547 -0.1232 -0.1929  0.5069
73501SOL    HW138113   0.869  10.312  12.599 -0.1484  1.6900  0.1088
73501SOL    HW238114   0.918  10.266  12.463 -0.4349 -0.0799  0.5753
73502SOL     OW38115   3.564  12.209  13.067 -1.0124  0.2020  0.1118
73502SOL    HW138116   3.614  12.161  13.133 -1.3321  2.0045  1.7589
73502SOL    HW238117   3.631  12.253  13.014 -0.7763 -0.6609 -0.3298
73503SOL     OW38118   1.145   2.508   5.480 -0.3325  0.1969  0.1579
73503SOL    HW138119   1.155   2.421   5.518  1.9609 -0.1327 -0.9914
73503SOL    HW238120   1.226   2.522   5.432 -0.6227  3.0063  0.3217
73504SOL     OW38121   3.811   1.191  12.204  0.8450  0.2314  0.5037
73504SOL    HW138122   3.787   1.170  12.114  1.7022  0.3158  0.2494
73504SOL    HW238123   3.785   1.283  12.215 -0.5353 -0.1686  0.8006
73505SOL     OW38124   0.538   3.023  12.256  0.0963 -0.3746  0.2234
73505SOL    HW138125   0.551   3.002  12.348 -1.0492  1.0389  0.7529
73505SOL    HW238126   0.470   3.091  12.256 -2.3002 -2.5642 -1.8478
73506SOL     OW38127   6.191  11.627   6.832  0.1501 -0.4894 -0.4298
73506SOL    HW138128   6.107  11.668   6.813  0.2711  0.3662  0.7308
73506SOL    HW238129   6.205  11.642   6.926  1.6549 -0.4943 -0.6171
73507SOL     OW38130   8.271  12.541  12.403  0.0946  0.3663  0.1904
73507SOL    HW138131   8.273  12.500  12.490 -0.2512  3.3020  1.7082
73507SOL    HW238132   8.349  12.597  12.402  1.4137 -1.3337 -2.4083
73508SOL     OW38133   9.168   3.551   3.848 -0.2829 -0.0606 -0.4567
73508SOL    HW138134   9.147   3.534   3.756  1.3207 -1.5348 -0.5966
73508SOL    HW238135   9.117   3.487   3.897 -0.4737  0.1504 -0.3770
73509SOL     OW38136  11.313  13.728   1.719  0.7618  0.1265 -0.7496
73509SOL    HW138137  11.269  13.796   1.770 -0.2416 -0.1278 -1.2591
73509SOL    HW238138  11.403  13.727   1.753  0.2128  0.1941  0.7782
73510SOL     OW38139  11.656   0.256   5.514 -0.3497  0.1347 -0.1964
73510SOL    HW138140  11.596   0.208   5.457  1.4370  0.8298 -2.8673
73510SOL    HW238141  11.609   0.335   5.538 -0.9189  0.1478 -1.3179
73511SOL     OW38142   3.765   0.659   5.302 -0.0021  0.1932 -0.0320
73511SOL    HW138143   3.737   0.691   5.216  0.3007 -0.3762 -0.3438
73511SOL    HW238144   3.857   0.684   5.308 -0.4408  1.7254  0.8358
73512SOL     OW38145   3.816   1.630   3.831  0.1404 -0.0654  0.0740
73512SOL    HW138146   3.729   1.590   3.834  0.4339 -0.6671  1.1547
73512SOL    HW238147   3.807   1.712   3.881  0.3381 -0.4528  0.7613
73513SOL     OW38148  13.736  12.517   8.340 -0.2032  0.0725 -0.0291
73513SOL    HW138149  13.830  12.497   8.347 -0.4902 -1.0283  1.2470
73513SOL    HW238150  13.707  12.524   8.431 -1.0345  2.2128 -0.4043
73514SOL     OW38151   0.025   9.721  11.553 -0.3625 -0.1344  0.0521
73514SOL    HW138152  -0.048   9.685  11.503  0.2346 -0.9724 -0.2182
73514SOL    HW238153   0.101   9.668  11.529 -0.0358 -0.5220  1.7746
73515SOL     OW38154   8.539  10.607   4.048 -0.1603 -0.8975  0.3378
73515SOL    HW138155   8.551  10.540   3.981  0.2736 -0.8755  0.3914
73515SOL    HW238156   8.444  10.612   4.060 -0.2789 -0.4551 -0.7075
73516SOL     OW38157   2.667   5.259  10.089 -0.5893  0.1501 -0.0792
73516SOL    HW138158   2.739   5.248  10.027 -1.1331 -0.2162 -0.6561
73516SOL    HW238159   2.596   5.206  10.053 -0.3906 -1.4433  1.7044
73517SOL     OW38160   0.216   1.225  11.289  0.0816  0.6011 -0.2573
73517SOL    HW138161   0.176   1.280  11.356  0.1815 -0.6069  0.8428
73517SOL    HW238162   0.156   1.150  11.281  0.3835  0.4359 -1.0786
73518SOL     OW38163  12.157  10.474  13.860  0.1504 -0.0482  0.2982
73518SOL    HW138164  12.154  10.415  13.936  0.0527  1.5897  1.6350
73518SOL    HW238165  12.229  10.534  13.880  0.2173  0.3151 -0.9871
73519SOL     OW38166   6.480  13.637   8.299 -0.0180 -0.6548  0.2732
73519SOL    HW138167   6.533  13.716   8.312  1.0771 -1.1186 -1.0499
73519SOL    HW238168   6.509  13.577   8.368 -0.5231 -0.0768  1.0001
73520SOL     OW38169  13.158   1.341   8.024 -0.4509  0.0279 -0.1590
73520SOL    HW138170  13.133   1.372   7.937 -1.4787  0.5066  0.2892
73520SOL    HW238171  13.245   1.377   8.038 -0.6695  0.7633 -0.6109
73521SOL     OW38172  13.189   5.566   4.010 -0.0705  0.1849 -0.1584
73521SOL    HW138173  13.112   5.593   3.961  0.6910  0.5803 -1.1818
73521SOL    HW238174  13.245   5.644   4.011  1.1688 -0.6542 -1.1590
73522SOL     OW38175   9.783   3.554  12.945  0.2825 -0.1025  0.0073
73522SOL    HW138176   9.851   3.505  12.993  1.5377  1.1101 -0.4590
73522SOL    HW238177   9.820   3.641  12.934 -1.5061  0.6972 -0.0128
73523SOL     OW38178   9.257   8.700   7.854  0.8451 -0.6286  0.2212
73523SOL    HW138179   9.288   8.790   7.856 -0.0229 -0.3296  0.8613
73523SOL    HW238180   9.337   8.647   7.848  1.4163  0.1505  0.7455
73524SOL     OW38181   4.919  11.765   9.374 -0.4922  0.2985  0.1348
73524SOL    HW138182   4.843  11.790   9.428 -0.9796 -1.6692  0.4383
73524SOL    HW238183   4.988  11.746   9.438 -0.7131 -0.8989  0.0428
73525SOL     OW38184   2.405   7.894   3.975 -0.4348  0.1021 -0.1951
73525SOL    HW138185   2.437   7.810   3.942  1.3107  0.3042  0.8770
73525SOL    HW238186   2.385   7.878   4.067  0.7831  1.0429  0.2616
73526SOL     OW38187   7.383  12.431   6.368 -0.3222  0.3708 -0.0086
73526SOL    HW138188   7.367  12.337   6.361 -1.8638  0.6424 -0.6336
73526SOL    HW238189   7.346  12.455   6.453 -0.6891  0.5359 -0.2103
73527SOL     OW38190   1.452  10.606   8.196 -0.2154 -0.4598  0.0743
73527SOL    HW138191   1.376  10.591   8.252 -0.2624 -2.4453 -0.4613
73527SOL    HW238192   1.509  10.531   8.211  0.2894 -0.4825 -1.7155
73528SOL     OW38193   1.553   0.254   4.440  0.0701  0.2933 -0.2557
73528SOL    HW138194   1.574   0.212   4.524 -1.7012 -1.0596 -0.4290
73528SOL    HW238195   1.606   0.207   4.376 -1.1634 -1.0984 -0.3124
73529SOL     OW38196   0.938  12.617   5.457  0.0549  0.1361 -0.3279
73529SOL    HW138197   0.863  12.673   5.439  0.1961 -0.0099 -1.3989
73529SOL    HW238198   0.930  12.595   5.550 -0.9039  0.5825 -0.3000
73530SOL     OW38199   8.186   3.409  10.108  0.2744  0.7988 -0.0431
73530SOL    HW138200   8.198   3.499  10.139  1.7303  0.7508 -0.4016
73530SOL    HW238201   8.274   3.373  10.102 -0.1241 -0.0118 -1.8021
73531SOL     OW38202   7.417   5.998   0.514 -0.1506  0.2537  0.3821
73531SOL    HW138203   7.495   5.971   0.562 -0.1350  0.2086  0.3325
73531SOL    HW238204   7.440   5.982   0.422  0.0137  0.8383  0.3222
73532SOL     OW38205   4.902  13.498   4.283 -0.0973 -0.5524  0.4048
73532SOL    HW138206   4.838  13.520   4.351 -0.8472 -1.0004 -0.1382
73532SOL    HW238207   4.862  13.425   4.235  0.9095 -0.9727  0.1672
73533SOL     OW38208   4.593   3.287   8.381 -0.1461  0.1956 -0.2730
73533SOL    HW138209   4.618   3.379   8.391  0.8448  0.1295 -1.8147
73533SOL    HW238210   4.503   3.283   8.414 -0.2686  1.7538 -0.3486
73534SOL     OW38211   3.736  11.009   7.466 -0.0665  0.1995  0.5695
73534SOL    HW138212   3.651  10.966   7.477 -0.5821  1.4877  2.0167
73534SOL    HW238213   3.733  11.084   7.526  1.2784  1.5164 -0.9234
73535SOL     OW38214   2.339   6.090   7.204 -0.0446  0.6506 -0.0058
73535SOL    HW138215   2.295   6.006   7.191 -1.3163  1.5480 -1.8231
73535SOL    HW238216   2.431   6.067   7.217 -0.5749 -1.0880  0.9357
73536SOL     OW38217  13.612  13.547   5.978 -0.4051 -0.0537 -0.5630
73536SOL    HW138218  13.646  13.637   5.981  1.0564 -0.5630 -1.1873
73536SOL    HW238219  13.574  13.533   6.065  1.3467  0.4305  0.3179
73537SOL     OW38220  12.714   4.650   7.082 -0.0541 -0.2195  0.2913
73537SOL    HW138221  12.623   4.638   7.053  0.4101 -1.3538 -0.7690
73537SOL    HW238222  12.765   4.592   7.027  1.1701 -0.7262  1.8741
73538SOL     OW38223   6.982   2.445  12.677 -0.2858  0.2400  0.0356
73538SOL    HW138224   7.057   2.450  12.737  1.1573  2.3099 -1.7542
73538SOL    HW238225   7.019   2.408  12.596 -0.9052  2.0591 -1.1531
73539SOL     OW38226   7.408   3.839  11.556  0.5592 -0.2211  0.4406
73539SOL    HW138227   7.397   3.859  11.463  0.4178 -1.6526  0.1255
73539SOL    HW238228   7.500   3.815  11.565  0.5664 -0.1130  0.6700
73540SOL     OW38229  12.897   1.660  10.492 -0.2098  0.2332 -0.3992
73540SOL    HW138230  12.912   1.624  10.405 -1.9013  1.3076 -1.1815
73540SOL    HW238231  12.814   1.706  10.485 -0.7139 -0.2027  1.9670
73541SOL     OW38232  11.779   0.320  13.870  0.1017  0.2077 -0.8381
73541SOL    HW138233  11.746   0.279  13.950  1.1267 -1.4396 -1.1981
73541SOL    HW238234  11.753   0.412  13.877  1.8915  0.6479  2.3873
73542SOL     OW38235   7.721   9.857   0.234  0.0497  0.8710 -0.6688
73542SOL    HW138236   7.770   9.925   0.280  1.8269  0.9545 -2.5449
73542SOL    HW238237   7.666   9.905   0.172  0.1831  0.6581 -0.9550
73543SOL     OW38238   3.967   0.522   0.058 -0.1836  0.3813 -0.2111
73543SOL    HW138239   3.992   0.610   0.031  1.7634 -0.5477 -1.7006
73543SOL    HW238240   3.961   0.527   0.154 -0.9444  2.2955 -0.3196
73544SOL     OW38241   9.397   6.531   1.026 -0.8730 -0.3971 -0.3785
73544SOL    HW138242   9.438   6.477   0.959 -1.1504 -1.4769  0.3005
73544SOL    HW238243   9.407   6.481   1.107  0.1340  1.2152  0.5532
73545SOL     OW38244   6.210   3.406   1.735  0.1579 -0.3503 -0.6601
73545SOL    HW138245   6.290   3.353   1.741 -0.9693 -2.3570 -1.8600
73545SOL    HW238246   6.219   3.453   1.652  1.1942  1.4862  0.4430
73546SOL     OW38247   0.517   7.209   4.555  0.5659 -0.0683  0.4508
73546SOL    HW138248   0.540   7.159   4.634  2.1032  0.0015  0.0729
73546SOL    HW238249   0.443   7.264   4.583  0.5562 -0.6320  1.6149
73547SOL     OW38250   0.722   0.053  10.630  0.3555 -0.3317  0.2590
73547SOL    HW138251   0.711   0.068  10.724  1.3916  0.9252  0.2090
73547SOL    HW238252   0.637   0.020  10.600 -0.0228 -0.6327  1.6089
73548SOL     OW38253   0.335  10.744   4.472  0.6061 -0.5832  0.0874
73548SOL    HW138254   0.322  10.794   4.392 -0.9968  0.7562  1.1062
73548SOL    HW238255   0.418  10.777   4.508  1.3617 -1.2396 -1.0160
73549SOL     OW38256   8.521   6.856  13.935 -0.6443 -0.0995 -0.5982
73549SOL    HW138257   8.482   6.943  13.925 -0.0445  0.1373 -0.9145
73549SOL    HW238258   8.614   6.873  13.953 -0.7772 -0.6332  0.7182
73550SOL     OW38259  12.041   8.004   2.312 -0.2285  0.2484 -0.5786
73550SOL    HW138260  12.063   7.911   2.316 -1.5499 -0.0582  0.0562
73550SOL    HW238261  12.114   8.043   2.263  1.8336 -0.6396  1.5575
73551SOL     OW38262  11.663   8.396   5.406  0.1208 -0.0313 -0.0213
73551SOL    HW138263  11.627   8.411   5.494  1.5808 -0.7285  0.7310
73551SOL    HW238264  11.656   8.481   5.362 -0.7147  0.3047  0.7249
73552SOL     OW38265   6.047  12.509   2.558  0.2944 -0.4521 -0.1981
73552SOL    HW138266   6.064  12.603   2.550 -1.5881 -0.1245 -0.6871
73552SOL    HW238267   6.015  12.483   2.472  1.7968 -1.8071 -0.3999
73553SOL     OW38268  13.536   0.228  12.998 -0.3334  0.0324 -0.5296
73553SOL    HW138269  13.553   0.170  13.072 -0.1445  0.6003 -0.1149
73553SOL    HW238270  13.537   0.316  13.036 -0.8124  0.2966 -1.1072
73554SOL     OW38271  12.849  11.966  11.889  0.1787 -0.0813  0.6609
73554SOL    HW138272  12.788  11.960  11.963  1.4624 -2.0666  1.6799
73554SOL    HW238273  12.817  11.901  11.826  0.3881 -0.0805  0.5511
73555SOL     OW38274   9.922   0.912  10.334 -0.1829  0.4070  0.2980
73555SOL    HW138275   9.991   0.964  10.374  0.9331 -1.9799  1.6724
73555SOL    HW238276   9.960   0.826  10.321 -3.0227 -1.2002  1.6359
73556SOL     OW38277   6.750  14.000  13.711 -0.0586 -0.4633  0.2453
73556SOL    HW138278   6.662  13.995  13.749  0.3419 -2.6854  1.0404
73556SOL    HW238279   6.755  13.926  13.651  0.6072  0.8427 -1.3680
73557SOL     OW38280  11.074   9.213   8.913  0.4921 -0.4064  0.2242
73557SOL    HW138281  11.054   9.287   8.855  0.2245 -0.7439 -0.1141
73557SOL    HW238282  11.113   9.147   8.856 -0.4262 -1.0216  0.2916
73558SOL     OW38283  13.688   6.805  12.475 -0.2546  0.7600  0.1003
73558SOL    HW138284  13.617   6.866  12.453 -1.1671  1.2586  3.7761
73558SOL    HW238285  13.760   6.860  12.505  1.5611  0.2136 -2.8923
73559SOL     OW38286   0.462   7.019   4.091 -0.1846  0.4098 -0.2927
73559SOL    HW138287   0.430   7.044   4.177  1.3121  0.4806  0.2678
73559SOL    HW238288   0.434   6.928   4.081 -0.1290  0.3105  0.3942
73560SOL     OW38289   6.343   9.065   7.849  0.0806  0.3115  0.1400
73560SOL    HW138290   6.304   9.113   7.922 -0.5965  1.9891 -1.2620
73560SOL    HW238291   6.425   9.030   7.884 -0.2184  1.1036  1.6793
73561SOL     OW38292   1.505   2.149  13.554 -0.0390 -0.3805  0.2872
73561SOL    HW138293   1.479   2.231  13.595 -0.0932 -0.2679  0.0255
73561SOL    HW238294   1.485   2.161  13.461 -0.0772 -0.6988  0.2532
73562SOL     OW38295   3.664  12.016   8.027  0.2700  0.4340 -0.1231
73562SOL    HW138296   3.632  12.102   8.000  0.5634  0.4402 -0.4596
73562SOL    HW238297   3.671  12.021   8.122 -0.8317  0.3983 -0.0261
73563SOL     OW38298  10.086   4.209   1.091  0.2194  0.2319  0.7067
73563SOL    HW138299  10.115   4.118   1.095 -2.8549 -0.9467 -0.6255
73563SOL    HW238300  10.033   4.221   1.170  0.3551  0.7952  0.7179
73564SOL     OW38301   5.882  13.345  13.904  0.3473 -0.5875  0.2352
73564SOL    HW138302   5.921  13.367  13.989 -0.0772 -1.6816  0.7297
73564SOL    HW238303   5.954  13.307  13.853  0.9932  1.4602 -0.4914
73565SOL     OW38304   9.116  10.687   8.951  0.3344  0.6453  0.7484
73565SOL    HW138305   9.026  10.682   8.983 -0.4985 -0.6376 -1.5604
73565SOL    HW238306   9.127  10.777   8.922 -0.1791  0.8132  1.0758
73566SOL     OW38307   9.822   3.406  11.726 -0.3835 -0.1003 -0.0808
73566SOL    HW138308   9.890   3.472  11.735 -0.2308 -0.5102  2.4706
73566SOL    HW238309   9.764   3.421  11.800 -0.8779 -2.2057  0.0179
73567SOL     OW38310  12.975   5.830  10.969 -0.6439  0.3416  0.2058
73567SOL    HW138311  13.058   5.783  10.965 -0.7643  0.1235  0.2344
73567SOL    HW238312  12.930   5.807  10.887 -1.3583 -0.8253  0.9114
73568SOL     OW38313   3.957   9.714   8.424 -0.0042  0.0821 -0.1504
73568SOL    HW138314   3.925   9.699   8.335  1.1664  0.0086 -0.5761
73568SOL    HW238315   4.046   9.681   8.424  0.0824  0.2477  1.0100
73569SOL     OW38316   1.232   3.079   4.916  0.5407 -0.2423  0.0347
73569SOL    HW138317   1.195   3.135   4.847 -0.2813  0.2649  0.8733
73569SOL    HW238318   1.185   2.996   4.906 -3.1447  1.2214  2.8801
73570SOL     OW38319  12.650   3.938   8.108  0.5054 -0.6478 -0.3487
73570SOL    HW138320  12.659   3.898   8.195  0.2423 -0.3450 -0.1811
73570SOL    HW238321  12.733   3.918   8.065  2.0140  1.9556  1.1054
73571SOL     OW38322  11.506  10.645   7.884 -0.0063  0.0863  0.5423
73571SOL    HW138323  11.533  10.589   7.957  0.3584  0.7147  0.8952
73571SOL    HW238324  11.412  10.658   7.896  0.0403  0.1257  0.8551
73572SOL     OW38325   2.487  11.373  12.901  0.0600 -0.2125  0.3298
73572SOL    HW138326   2.505  11.466  12.890  1.2595 -0.2266  1.8607
73572SOL    HW238327   2.511  11.334  12.817 -1.3066  0.9407 -0.6383
73573SOL     OW38328   8.959  12.028   1.522 -0.0227 -0.0619  0.1981
73573SOL    HW138329   8.883  12.087   1.525  0.2410  0.2988 -0.0833
73573SOL    HW238330   9.014  12.057   1.595  0.1824  0.1471 -0.0366
73574SOL     OW38331  11.194  13.023  13.492  0.2678  0.2059  0.1422
73574SOL    HW138332  11.200  13.050  13.401 -0.2991 -0.2282 -0.0339
73574SOL    HW238333  11.274  12.973  13.508  0.8997  1.2277  0.2156
73575SOL     OW38334   0.939   5.131   6.798 -0.2434  0.4206 -0.3987
73575SOL    HW138335   0.995   5.065   6.839  0.6876  1.5478  0.1828
73575SOL    HW238336   0.926   5.099   6.709  0.7984 -0.1916 -0.3474
73576SOL     OW38337  10.082  10.635   6.523 -0.1732  0.4510 -0.2590
73576SOL    HW138338  10.051  10.544   6.533 -0.7383  0.5931 -0.6646
73576SOL    HW238339  10.024  10.685   6.580 -1.6608  0.9141 -2.1085
73577SOL     OW38340   2.194   6.885   6.664 -0.2910  0.3548 -0.0194
73577SOL    HW138341   2.225   6.816   6.606  0.2796 -0.4019  1.1351
73577SOL    HW238342   2.101   6.894   6.644 -0.0245  0.3976 -1.3006
73578SOL     OW38343   8.829  11.009   8.578  0.3549 -0.1128 -0.1303
73578SOL    HW138344   8.781  11.060   8.513  2.8429  3.4660  0.5699
73578SOL    HW238345   8.894  10.961   8.526 -0.8464 -1.2585 -0.6342
73579SOL     OW38346   8.042  13.353   0.286 -0.1625  1.1579  0.0753
73579SOL    HW138347   8.129  13.370   0.248 -0.0937 -1.0433 -0.8788
73579SOL    HW238348   8.023  13.432   0.337  1.6439  2.4179 -1.0698
73580SOL     OW38349   8.240  12.661   9.500 -0.1806 -0.2522 -0.0206
73580SOL    HW138350   8.325  12.618   9.513  1.7717  2.2800 -2.9154
73580SOL    HW238351   8.218  12.697   9.585  2.9429  1.0165  0.3828
73581SOL     OW38352   7.724  12.616   4.853  0.2771 -0.2564 -0.3406
73581SOL    HW138353   7.679  12.608   4.937 -0.4082 -2.1998 -0.8473
73581SOL    HW238354   7.770  12.700   4.858 -0.6189  0.1652  1.5391
73582SOL     OW38355  12.004   3.488   2.277  0.5657  0.5251  0.3714
73582SOL    HW138356  12.076   3.549   2.292  1.6751 -0.2791 -1.3463
73582SOL    HW238357  11.933   3.543   2.245  0.5065  1.2922  1.7663
73583SOL     OW38358   0.060  13.784  13.227 -0.2081 -0.0980 -0.5052
73583SOL    HW138359  -0.007  13.852  13.221  1.4363  1.4909 -2.3084
73583SOL    HW238360   0.125  13.819  13.288 -1.4378 -2.1150  2.1196
73584SOL     OW38361   6.282   4.936   2.058  0.4502  0.5492  0.4390
73584SOL    HW138362   6.200   4.894   2.081  0.9316 -0.0674  1.0785
73584SOL    HW238363   6.291   4.922   1.963  2.1034 -3.7101  0.9795
73585SOL     OW38364  10.640   9.374  10.388  0.3004  0.0364 -0.4969
73585SOL    HW138365  10.719   9.403  10.342  0.7664 -0.0902  0.2077
73585SOL    HW238366  10.670   9.302  10.443 -0.0596  0.7654  0.6807
73586SOL     OW38367   7.857   8.998   3.019 -0.1483  0.0354 -0.1431
73586SOL    HW138368   7.849   9.034   3.107  0.2055 -1.4238  0.5145
73586SOL    HW238369   7.811   9.061   2.963 -0.3740  0.9857  1.0693
73587SOL     OW38370  11.859  13.047   7.551  0.6174  0.3750  0.0837
73587SOL    HW138371  11.877  12.981   7.618 -0.2728  0.9338  0.9074
73587SOL    HW238372  11.810  13.000   7.484 -0.4684  0.2807  0.9107
73588SOL     OW38373   4.502  10.929   3.205  0.1757  0.1029  0.5758
73588SOL    HW138374   4.563  11.001   3.225  0.9470 -0.4779  0.3490
73588SOL    HW238375   4.522  10.906   3.114  0.4172 -0.8584  0.8683
73589SOL     OW38376  10.657   4.811   7.235  0.4465 -0.2239  0.1593
73589SOL    HW138377  10.648   4.898   7.195 -0.3439 -0.6228 -0.5483
73589SOL    HW238378  10.692   4.829   7.322  0.4010  0.8039 -0.0232
73590SOL     OW38379   2.600   2.906   4.656  0.2777  0.1094 -0.1043
73590SOL    HW138380   2.642   2.905   4.742 -0.5674 -0.3911  0.3267
73590SOL    HW238381   2.599   2.814   4.630  3.1810  0.5014 -2.0376
73591SOL     OW38382   4.860   3.785  14.002  0.6007  0.5535  0.4488
73591SOL    HW138383   4.853   3.815  13.911 -0.2215 -0.4968  0.1369
73591SOL    HW238384   4.792   3.833  14.048 -1.3939 -1.4306 -0.2504
73592SOL     OW38385   1.144   9.041   6.944 -0.5242 -0.0933 -0.1302
73592SOL    HW138386   1.168   9.099   7.016 -2.9001 -1.7846  2.1825
73592SOL    HW238387   1.223   8.989   6.929  0.8153  1.9202 -0.5551
73593SOL     OW38388  10.056   4.766   0.060 -0.0800  0.9887 -0.2406
73593SOL    HW138389   9.999   4.838   0.084 -0.1312  0.4943  1.2093
73593SOL    HW238390  10.103   4.744   0.140 -0.6382 -1.0958 -0.4169
73594SOL     OW38391   7.703   6.210  12.216 -0.0608 -0.5136 -0.0732
73594SOL    HW138392   7.722   6.296  12.178 -0.4752 -0.5716 -0.4246
73594SOL    HW238393   7.756   6.149  12.165 -1.7094 -0.7767 -1.5997
73595SOL     OW38394  12.897   1.478   5.726  0.7072  0.4049 -0.4231
73595SOL    HW138395  12.810   1.518   5.730  0.7667  0.4711  1.7847
73595SOL    HW238396  12.955   1.548   5.696  0.0270  0.3770 -1.8471
73596SOL     OW38397  10.318   5.861  12.458  0.0711 -0.4948 -0.1395
73596SOL    HW138398  10.353   5.788  12.510  2.8623 -0.3156 -1.5427
73596SOL    HW238399  10.389   5.925  12.457 -0.8106  0.5348 -2.1681
73597SOL     OW38400   9.797   1.931   4.741  0.0376 -0.1736  0.1430
73597SOL    HW138401   9.813   1.894   4.828 -2.7740 -0.8849  0.4579
73597SOL    HW238402   9.822   1.861   4.681  0.3499 -0.3410  0.4628
73598SOL     OW38403   7.167   5.788  13.477 -0.0826 -0.5625 -0.1565
73598SOL    HW138404   7.129   5.865  13.520  0.7605 -0.0067 -0.3847
73598SOL    HW238405   7.160   5.807  13.383  3.1198  0.7876 -0.2221
73599SOL     OW38406   4.833   6.891   4.173  0.4564 -0.5223  0.1779
73599SOL    HW138407   4.830   6.984   4.151  0.7747 -0.7552 -0.8814
73599SOL    HW238408   4.793   6.847   4.098 -0.4507 -1.1889  1.0356
73600SOL     OW38409  13.528  11.446   3.305  0.3806 -0.2524 -0.3906
73600SOL    HW138410  13.515  11.489   3.220 -0.0110 -1.2147 -0.8321
73600SOL    HW238411  13.581  11.369   3.285 -0.8045 -1.2065  0.0171
73601SOL     OW38412   8.542   9.867   7.658  0.1112  0.8476  0.6849
73601SOL    HW138413   8.596   9.881   7.736  1.6882  1.7262 -0.4998
73601SOL    HW238414   8.590   9.801   7.608 -0.3491  1.0273 -0.0050
73602SOL     OW38415   1.001   8.637   9.028 -0.1871 -0.2520  0.1898
73602SOL    HW138416   0.938   8.568   9.006 -1.8067 -0.7071  5.0413
73602SOL    HW238417   0.961   8.717   8.994 -1.3442 -1.0352 -0.3830
73603SOL     OW38418   0.844   0.153  11.654 -0.1263  0.2115 -0.6118
73603SOL    HW138419   0.927   0.125  11.693  0.0581  0.1895 -1.0209
73603SOL    HW238420   0.868   0.189  11.569 -0.4364  1.0190 -0.3701
73604SOL     OW38421   5.747   6.735   3.149 -0.2431 -0.0863  0.1344
73604SOL    HW138422   5.803   6.673   3.103 -0.7646  0.5132 -1.3420
73604SOL    HW238423   5.803   6.810   3.168  0.3511 -0.8931  1.7992
73605SOL     OW38424   0.265   4.949   1.391 -0.0058  0.2275 -0.1502
73605SOL    HW138425   0.204   4.977   1.459  0.0967  1.9460 -0.7155
73605SOL    HW238426   0.211   4.902   1.327 -0.7480  1.5905 -0.5679
73606SOL     OW38427  10.430   1.369   7.867  0.2206  0.1035  0.2040
73606SOL    HW138428  10.502   1.389   7.927 -1.5481  2.4952  1.7478
73606SOL    HW238429  10.373   1.310   7.916 -0.5865  1.0444  0.4404
73607SOL     OW38430   7.074   1.994   5.753 -0.0577  0.3971 -0.1533
73607SOL    HW138431   7.057   2.038   5.670 -0.6533  0.1781 -0.1531
73607SOL    HW238432   7.051   2.059   5.820  1.7464  1.0830 -0.1293
73608SOL     OW38433   8.761   3.248   4.062  0.8394  0.5921 -0.0334
73608SOL    HW138434   8.685   3.282   4.015  0.1182 -0.2127  0.5324
73608SOL    HW238435   8.740   3.259   4.154  2.3657  2.4220  0.1572
73609SOL     OW38436   7.307  13.852   6.159  0.4311 -0.0974  0.2025
73609SOL    HW138437   7.284  13.818   6.245 -0.5148  0.5191  0.2122
73609SOL    HW238438   7.401  13.870   6.163  0.1890  0.9839  1.4780
73610SOL     OW38439  13.833   6.933   7.058 -0.2273 -0.0309 -0.0225
73610SOL    HW138440  13.853   6.858   7.115  0.1951  0.9262  1.1197
73610SOL    HW238441  13.741   6.953   7.075 -0.4237 -0.4566 -0.5477
73611SOL     OW38442   9.724   6.599   4.171 -0.3670  0.1798 -0.0832
73611SOL    HW138443   9.758   6.509   4.164 -1.0462 -0.0316 -0.6889
73611SOL    HW238444   9.634   6.589   4.199  0.0261  0.7483  1.4904
73612SOL     OW38445   8.132   1.373  10.372  0.3952  0.1931 -0.2894
73612SOL    HW138446   8.115   1.466  10.357  0.5931  0.2255 -0.3245
73612SOL    HW238447   8.096   1.355  10.459  0.4244  0.3196 -0.2514
73613SOL     OW38448  12.647  11.818   3.190 -0.3710  0.1734 -0.0129
73613SOL    HW138449  12.597  11.775   3.121  0.2944 -0.3076 -0.2046
73613SOL    HW238450  12.696  11.887   3.145 -0.4941  0.3377  0.1015
73614SOL     OW38451   2.252   1.591  12.254  0.4539  0.1467 -0.0877
73614SOL    HW138452   2.224   1.519  12.310  1.9272  0.6161  1.3452
73614SOL    HW238453   2.276   1.661  12.315 -3.6445  3.0519 -1.4187
73615SOL     OW38454   8.862  11.648  11.215  0.1261  0.1159  0.0601
73615SOL    HW138455   8.777  11.604  11.216 -0.0321  0.4018  1.9325
73615SOL    HW238456   8.853  11.713  11.145 -0.5308 -1.0568 -1.0001
73616SOL     OW38457   8.155   6.478   0.032  0.6835 -0.1245 -0.0288
73616SOL    HW138458   8.100   6.458  -0.043  0.9639 -0.0200 -0.2649
73616SOL    HW238459   8.096   6.472   0.108  0.2041  0.6210 -0.3360
73617SOL     OW38460   6.120  12.369   0.378 -0.5410  0.6691 -0.0610
73617SOL    HW138461   6.090  12.299   0.436  1.2607  0.0736  0.1921
73617SOL    HW238462   6.204  12.396   0.414 -0.3462  1.7145 -1.2354
73618SOL     OW38463  10.439   5.198   3.437  0.1985  0.2384 -0.7144
73618SOL    HW138464  10.385   5.148   3.375 -0.3358 -0.7906  0.5271
73618SOL    HW238465  10.518   5.145   3.448 -0.6261 -0.7281  1.0694
73619SOL     OW38466   3.013  12.624   5.115  0.4200 -0.1378 -0.5556
73619SOL    HW138467   3.060  12.586   5.041  1.0002  1.0747 -0.8482
73619SOL    HW238468   2.975  12.705   5.080  0.2688  0.1859  0.3333
73620SOL     OW38469  10.188   4.976   1.458 -0.4107 -0.0387 -0.5461
73620SOL    HW138470  10.283   4.975   1.468 -0.3784  0.3992 -0.8020
73620SOL    HW238471  10.168   4.896   1.409  0.0592  0.9673 -2.4845
73621SOL     OW38472  13.677  10.615   4.400  0.4943 -0.0037 -0.0149
73621SOL    HW138473  13.705  10.526   4.376  1.4992  0.4042 -0.4530
73621SOL    HW238474  13.630  10.646   4.323 -1.8429 -0.9147  0.9535
73622SOL     OW38475   2.073  11.292   7.745 -0.2632  0.2947 -0.3556
73622SOL    HW138476   2.020  11.371   7.748 -0.8328 -0.0947  0.2897
73622SOL    HW238477   2.037  11.236   7.815  0.4986 -0.2925 -0.4126
73623SOL     OW38478   6.244  11.390   9.312 -0.0848 -0.0340 -0.2425
73623SOL    HW138479   6.190  11.316   9.338  1.6787 -0.7885  1.5288
73623SOL    HW238480   6.253  11.442   9.392  1.0770  0.5303 -0.7184
73624SOL     OW38481  12.327   0.046   1.460 -0.0177 -0.4645 -0.2524
73624SOL    HW138482  12.317   0.141   1.455  0.2970 -0.4814 -2.1546
73624SOL    HW238483  12.355   0.021   1.372 -2.2962 -2.5665 -0.4710
73625SOL     OW38484  10.266   2.331   4.258  0.0093 -0.1209 -0.0851
73625SOL    HW138485  10.194   2.392   4.270 -0.8218 -0.9848 -0.5494
73625SOL    HW238486  10.339   2.385   4.228 -0.6361  0.6753 -0.2445
73626SOL     OW38487  11.854  10.438  11.845  0.2373  0.2276  0.3740
73626SOL    HW138488  11.832  10.530  11.830 -0.1835  0.2586  1.1645
73626SOL    HW238489  11.930  10.422  11.789  0.3225  1.0582  0.2464
73627SOL     OW38490   6.650   0.323   3.236 -0.0982 -0.3291 -0.4756
73627SOL    HW138491   6.699   0.401   3.210 -1.7473  1.1813  0.6955
73627SOL    HW238492   6.594   0.304   3.160  0.1787 -0.2497 -0.7006
73628SOL     OW38493   3.521  10.730   6.031  0.3272 -0.0037  0.2583
73628SOL    HW138494   3.516  10.723   6.126 -1.1213 -1.3076  0.1274
73628SOL    HW238495   3.615  10.731   6.012  0.6430 -0.7650  1.6382
73629SOL     OW38496   1.812   3.847  12.624  0.1803 -0.2647 -0.3022
73629SOL    HW138497   1.761   3.910  12.573  0.8449 -0.6372 -1.4810
73629SOL    HW238498   1.833   3.893  12.705 -1.8558 -0.0496  0.1510
73630SOL     OW38499   7.919  13.262   5.852  0.2067  0.7113  0.5441
73630SOL    HW138500   7.911  13.231   5.762 -0.7411 -0.9379  1.1667
73630SOL    HW238501   7.843  13.225   5.898  1.1282  0.7940  2.2254
73631SOL     OW38502   3.666   1.131   6.528  0.4043 -0.0977  0.2471
73631SOL    HW138503   3.758   1.141   6.502 -0.0574  1.6794 -0.8949
73631SOL    HW238504   3.640   1.046   6.493  1.7145 -0.8047  0.9476
73632SOL     OW38505   3.869   2.894   4.731 -0.0999 -0.3655  0.1916
73632SOL    HW138506   3.844   2.923   4.643  2.2299  3.8221  0.6226
73632SOL    HW238507   3.843   2.966   4.788  0.7222 -1.8391  2.5590
73633SOL     OW38508   6.725   1.789   5.069 -0.0295  0.4357 -1.1254
73633SOL    HW138509   6.736   1.760   4.979 -0.6756 -0.7664 -0.8471
73633SOL    HW238510   6.671   1.721   5.110 -0.7759  1.5655 -0.1436
73634SOL     OW38511   0.695   4.665  11.968  0.2577 -0.2501 -0.2512
73634SOL    HW138512   0.784   4.660  11.935  0.4402 -2.2808  0.4025
73634SOL    HW238513   0.696   4.612  12.048 -1.2094  0.8559  0.5513
73635SOL     OW38514   6.397   4.995   7.846  0.5858  0.2943 -0.0681
73635SOL    HW138515   6.399   4.923   7.909  0.7683  1.2312  1.0322
73635SOL    HW238516   6.478   4.987   7.797  0.9333  0.1551  0.5226
73636SOL     OW38517  12.778   1.668   0.220 -0.8932  0.1289 -0.4409
73636SOL    HW138518  12.717   1.713   0.163  0.6345  1.0716 -1.4158
73636SOL    HW238519  12.848   1.639   0.162  0.0053 -0.1484  0.7410
73637SOL     OW38520   5.022   1.363   8.287  0.3522  0.2203 -0.5493
73637SOL    HW138521   4.966   1.306   8.339  1.2448 -1.4912 -1.4008
73637SOL    HW238522   4.972   1.379   8.207  1.4386 -2.2419 -1.8141
73638SOL     OW38523  11.020   1.403   2.207 -0.2237  0.2306  0.0832
73638SOL    HW138524  11.009   1.347   2.130 -0.9844 -0.2594  0.5375
73638SOL    HW238525  11.075   1.352   2.266 -0.5691  0.1321  0.3239
73639SOL     OW38526  12.778   6.455  13.537 -0.1507 -0.0232  0.3857
73639SOL    HW138527  12.797   6.549  13.535  0.6096 -0.1795 -0.6485
73639SOL    HW238528  12.864   6.413  13.534 -0.5051 -0.7314 -1.4155
73640SOL     OW38529   8.420  11.523   8.599  0.4279  0.2693 -0.0481
73640SOL    HW138530   8.397  11.601   8.550  0.3318 -0.6280 -1.5167
73640SOL    HW238531   8.465  11.555   8.677 -0.1223  1.7870 -0.3309
73641SOL     OW38532   9.915  12.730   1.670  0.0803  0.0451 -0.4825
73641SOL    HW138533   9.976  12.684   1.727  2.0887  1.5043 -1.3357
73641SOL    HW238534   9.932  12.694   1.583 -0.0912  0.6428 -0.7715
73642SOL     OW38535   8.125   9.331  13.376 -0.0880 -0.0480 -0.6530
73642SOL    HW138536   8.060   9.380  13.325  0.5784  1.3206 -0.2327
73642SOL    HW238537   8.179   9.398  13.416  0.0543 -1.1122  1.0251
73643SOL     OW38538   9.080  13.384  11.819  0.1683 -0.5433 -0.5487
73643SOL    HW138539   9.016  13.414  11.754 -1.1182  0.3222  1.0429
73643SOL    HW238540   9.131  13.463  11.840  2.1155 -1.3015 -2.0839
73644SOL     OW38541   6.754  12.142   5.365  0.0673 -0.0137 -0.1075
73644SOL    HW138542   6.690  12.088   5.320  0.9347  0.6863 -2.2898
73644SOL    HW238543   6.837  12.095   5.355  0.4136  0.5417  0.1079
73645SOL     OW38544  12.668   5.475   3.948 -0.0638  0.1256  0.4021
73645SOL    HW138545  12.591   5.521   3.915  0.8574  0.4323 -1.4027
73645SOL    HW238546  12.632   5.408   4.006 -1.6385  0.7333  0.1866
73646SOL     OW38547  12.708   9.866   0.607  0.2763 -0.1380  0.1053
73646SOL    HW138548  12.787   9.827   0.570 -0.7360 -2.3614  0.1243
73646SOL    HW238549  12.678   9.802   0.672 -1.2340  0.9138  0.4938
73647SOL     OW38550   0.318   2.860  10.250  0.6942  0.1361  0.0873
73647SOL    HW138551   0.390   2.914  10.281  1.6021 -0.1991 -1.3449
73647SOL    HW238552   0.335   2.773  10.287 -0.1807  0.5314  1.5051
73648SOL     OW38553   9.292   7.737   4.344  0.2007 -0.1292 -0.7352
73648SOL    HW138554   9.366   7.733   4.404 -1.4833  0.0493  1.4596
73648SOL    HW238555   9.290   7.828   4.315 -0.0789  0.2428  0.4279
73649SOL     OW38556   0.141   3.980  13.492 -0.0329  0.0204  0.8177
73649SOL    HW138557   0.153   4.075  13.494  0.1571 -0.0071  1.4909
73649SOL    HW238558   0.220   3.945  13.535  0.0093 -0.4517  0.3600
73650SOL     OW38559   4.995   9.390   2.950  0.3428 -0.0304  0.6825
73650SOL    HW138560   5.003   9.458   3.017  1.4164 -0.2951  0.8395
73650SOL    HW238561   4.901   9.387   2.930  0.1970  1.0382  1.1396
73651SOL     OW38562   2.875   7.656   0.307  0.6015 -0.1758  0.3113
73651SOL    HW138563   2.927   7.610   0.241 -0.9746  0.2721 -1.3311
73651SOL    HW238564   2.875   7.597   0.382  1.9475 -0.9931 -0.2883
73652SOL     OW38565   3.680  11.838   3.036 -0.1887 -0.1638 -0.1756
73652SOL    HW138566   3.657  11.855   2.945  1.1551  1.7504 -0.2166
73652SOL    HW238567   3.688  11.742   3.042 -1.7036 -0.4265 -1.6666
73653SOL     OW38568   4.203   4.390   0.296  0.0645  0.1433  0.7710
73653SOL    HW138569   4.162   4.334   0.361  1.2792 -1.3048  0.3403
73653SOL    HW238570   4.297   4.378   0.309  0.3825 -1.4727 -2.2338
73654SOL     OW38571   4.071  10.714  11.710 -0.3335  0.1115  0.2039
73654SOL    HW138572   4.055  10.806  11.693  1.4547  0.4335  0.0923
73654SOL    HW238573   4.087  10.675  11.624 -1.7285 -0.4840  0.1707
73655SOL     OW38574  12.340  13.953   2.387 -0.0204  0.0542 -0.6802
73655SOL    HW138575  12.263  13.934   2.333  0.1834  0.2107 -1.0353
73655SOL    HW238576  12.413  13.918   2.336  0.0414 -1.0684  0.1590
73656SOL     OW38577   3.895  10.151   9.572 -0.2434 -0.2630 -0.3790
73656SOL    HW138578   3.854  10.197   9.644 -0.7408 -0.7433 -0.3482
73656SOL    HW238579   3.974  10.202   9.552 -0.3215  0.0983  0.2244
73657SOL     OW38580   1.239   0.334   4.540 -0.3237  0.1808  0.6655
73657SOL    HW138581   1.311   0.352   4.601  0.8904 -1.1793 -0.2889
73657SOL    HW238582   1.176   0.283   4.591 -1.0245  2.0040  1.7221
73658SOL     OW38583   1.878   2.351  12.099 -1.1285  0.2158 -0.1704
73658SOL    HW138584   1.790   2.334  12.066 -0.9275  0.0959 -0.6647
73658SOL    HW238585   1.879   2.445  12.118 -1.5101  0.1252  0.2929
73659SOL     OW38586  13.713   7.712   0.657 -0.5601  0.1775  0.2996
73659SOL    HW138587  13.718   7.786   0.596  1.0282 -0.6355 -0.6297
73659SOL    HW238588  13.622   7.683   0.651 -0.7363  0.8750 -0.7750
73660SOL     OW38589   4.159   7.528   2.915  0.2328  0.2426  0.0652
73660SOL    HW138590   4.191   7.613   2.884 -0.9531  1.3365  1.6727
73660SOL    HW238591   4.168   7.470   2.839 -0.1351  2.1217 -1.5030
73661SOL     OW38592   9.709  13.459  13.061 -0.5063  0.1773 -0.4931
73661SOL    HW138593   9.687  13.388  13.000 -0.2655  0.1272 -0.5228
73661SOL    HW238594   9.775  13.421  13.119  0.6530  0.7991 -1.3726
73662SOL     OW38595   8.373  12.684   3.230 -0.1047 -0.3372  0.1861
73662SOL    HW138596   8.406  12.641   3.308  1.0174  1.4307  0.7438
73662SOL    HW238597   8.292  12.637   3.210  0.6878 -2.2281  1.1037
73663SOL     OW38598  10.539   9.772   3.793 -0.1713 -0.2349  0.5575
73663SOL    HW138599  10.486   9.846   3.821 -0.2028 -0.7592  1.9864
73663SOL    HW238600  10.533   9.710   3.866 -0.3921 -1.7749 -0.7146
73664SOL     OW38601   2.622   3.522  11.930  0.2454  0.3318  0.6013
73664SOL    HW138602   2.629   3.613  11.900  0.8860 -0.2116 -1.0565
73664SOL    HW238603   2.712   3.490  11.929  0.0442 -0.2719  1.3666
73665SOL     OW38604   9.218  14.004   1.640 -0.8137  0.0973  0.5227
73665SOL    HW138605   9.128  13.971   1.636 -0.1948 -1.6554  0.0655
73665SOL    HW238606   9.247  14.005   1.549  0.0715 -0.6951  0.7798
73666SOL     OW38607   7.866  12.385   6.158 -0.7099 -0.4601 -0.0473
73666SOL    HW138608   7.829  12.359   6.242  0.1801 -1.1972  0.1311
73666SOL    HW238609   7.961  12.380   6.170 -0.5617 -0.1352 -0.9573
73667SOL     OW38610  11.949   1.872   4.307  0.2653 -0.3442  0.4843
73667SOL    HW138611  11.968   1.960   4.337  0.2731 -0.1164 -0.1699
73667SOL    HW238612  12.027   1.845   4.258 -0.8151  0.4200 -1.8055
73668SOL     OW38613  10.478   4.327   4.887  0.6117  0.0888  0.2273
73668SOL    HW138614  10.511   4.363   4.804  0.0138  1.2957  0.4933
73668SOL    HW238615  10.556   4.296   4.932  1.2559  1.6938  0.2779
73669SOL     OW38616   9.826  11.089   7.950  0.2771  0.1402  0.8145
73669SOL    HW138617   9.771  11.011   7.955  1.4385 -1.1113 -2.6137
73669SOL    HW238618   9.773  11.154   7.905  0.1101  0.5153  1.5456
73670SOL     OW38619   7.595   0.812  13.092  0.0843  0.1906 -0.1673
73670SOL    HW138620   7.525   0.851  13.039 -1.6313 -0.1034  1.7265
73670SOL    HW238621   7.550   0.783  13.172  2.2213 -0.9812  0.6812
73671SOL     OW38622   8.809   3.278   0.243 -0.3664 -0.8074 -0.0338
73671SOL    HW138623   8.855   3.358   0.219  0.4568 -1.4978 -0.8253
73671SOL    HW238624   8.720   3.306   0.263 -0.2968  0.2083 -1.0748
73672SOL     OW38625   9.811  13.009   9.321 -0.7172  0.4966  0.2137
73672SOL    HW138626   9.815  12.929   9.375 -0.1738  0.6711  0.4457
73672SOL    HW238627   9.750  12.988   9.251  0.9992 -0.8899 -0.9442
73673SOL     OW38628  10.823   9.762   1.866 -0.2835  0.1779 -0.0824
73673SOL    HW138629  10.847   9.764   1.773  0.0060 -0.3306 -0.0258
73673SOL    HW238630  10.745   9.817   1.873  0.8626  1.9167 -0.2843
73674SOL     OW38631   1.598   3.001   3.115  0.0182 -0.1153  0.0779
73674SOL    HW138632   1.611   2.967   3.027  0.1783 -1.6196  0.6652
73674SOL    HW238633   1.598   2.924   3.172 -0.5365  0.7828  1.3520
73675SOL     OW38634   5.652   2.058  10.095 -0.2242  0.2671 -0.1468
73675SOL    HW138635   5.689   1.973  10.070 -1.9483 -0.2832 -0.9922
73675SOL    HW238636   5.626   2.047  10.186 -2.2204 -0.8317 -0.7878
73676SOL     OW38637  13.189  12.279  13.567 -0.0314 -0.4825  0.5721
73676SOL    HW138638  13.127  12.351  13.566 -0.5659 -0.9022  1.7663
73676SOL    HW238639  13.183  12.242  13.656 -0.5765 -2.6651 -0.2913
73677SOL     OW38640   9.108   9.077   4.977 -0.3787  0.6418 -0.3584
73677SOL    HW138641   9.028   9.128   4.988  0.0723  1.0975  1.0896
73677SOL    HW238642   9.162   9.129   4.918 -0.3465  1.3494  0.2809
73678SOL     OW38643   4.931  11.324   6.370 -0.1178  0.0080 -0.4290
73678SOL    HW138644   4.906  11.259   6.436 -2.1799  1.1175 -0.0390
73678SOL    HW238645   5.026  11.316   6.364  0.3507  0.4604  3.3683
73679SOL     OW38646  13.914   5.087  12.962  0.5312  0.1934 -0.0141
73679SOL    HW138647  13.992   5.138  12.983 -0.8827  2.1155  0.8383
73679SOL    HW238648  13.863   5.143  12.904 -0.9202 -0.3764  0.6559
73680SOL     OW38649   8.022   3.513  10.476 -0.4638 -0.0229  0.2337
73680SOL    HW138650   7.972   3.593  10.494  0.3819  0.7268 -0.6773
73680SOL    HW238651   8.006   3.495  10.384 -0.2014 -0.6045  0.2981
73681SOL     OW38652  12.624   7.222   3.979 -0.0953 -0.5109  0.5737
73681SOL    HW138653  12.675   7.164   3.923 -1.7223 -0.5406 -0.9588
73681SOL    HW238654  12.555   7.167   4.015 -0.9966  0.1946 -0.0197
73682SOL     OW38655   1.664  13.281   2.764  0.3380 -0.1728  0.3606
73682SOL    HW138656   1.611  13.304   2.840 -0.9371  0.6528 -0.7260
73682SOL    HW238657   1.742  13.337   2.771 -1.7632  3.2941 -1.1456
73683SOL     OW38658   3.956   4.163   3.799  0.3541  0.1829 -0.1594
73683SOL    HW138659   4.043   4.187   3.832  1.0241  0.3756 -1.9733
73683SOL    HW238660   3.946   4.071   3.825  0.7688  0.3777  0.7248
73684SOL     OW38661  12.117   4.074  13.066 -0.0386 -0.1982  0.1181
73684SOL    HW138662  12.137   4.017  13.140 -1.6468  0.8841  1.4736
73684SOL    HW238663  12.176   4.149  13.077 -0.5845  0.1743  0.6120
73685SOL     OW38664  11.025   7.828   4.503  0.0811  0.3058 -0.7922
73685SOL    HW138665  10.969   7.906   4.510 -1.6348 -1.0139  1.6194
73685SOL    HW238666  10.979   7.772   4.441 -0.0834  0.1402 -0.5218
73686SOL     OW38667   0.011   0.575   2.994 -0.5212 -0.5697  0.7214
73686SOL    HW138668   0.001   0.486   3.030 -1.8558 -0.0398  1.7436
73686SOL    HW238669   0.054   0.624   3.064 -0.2425 -0.2746  0.3478
73687SOL     OW38670   1.336  13.341   2.470  0.1889  0.4912  0.8690
73687SOL    HW138671   1.265  13.301   2.419  0.7735  1.8041 -1.1113
73687SOL    HW238672   1.293  13.375   2.548 -0.9884 -0.5333  0.7049
73688SOL     OW38673   9.892  10.017   2.500  0.0555  0.3107  0.2259
73688SOL    HW138674   9.982  10.018   2.533 -0.3340 -0.1692  1.3783
73688SOL    HW238675   9.879  10.104   2.463  1.0218  0.3516 -0.0461
73689SOL     OW38676  10.961   5.119   3.421  0.1131 -0.3436 -0.5896
73689SOL    HW138677  11.039   5.099   3.370 -0.5856 -2.2190 -0.9729
73689SOL    HW238678  10.953   5.215   3.416  2.2030 -0.1369 -0.7625
73690SOL     OW38679   6.789   7.361   1.541  0.1884 -0.6499  0.1550
73690SOL    HW138680   6.854   7.416   1.584 -0.7440  0.3638  0.3079
73690SOL    HW238681   6.775   7.288   1.601  0.8218 -0.6256  0.3404
73691SOL     OW38682   6.871   1.065   7.478  0.5815 -0.2142 -0.1455
73691SOL    HW138683   6.913   1.128   7.538  1.8765  0.3632 -1.5973
73691SOL    HW238684   6.867   1.111   7.394 -0.2167 -1.4050 -0.7836
73692SOL     OW38685  13.630   9.674   1.975  0.7959 -0.2730 -0.1414
73692SOL    HW138686  13.594   9.763   1.973 -1.1507 -0.9538 -3.4652
73692SOL    HW238687  13.554   9.618   1.965  2.0901 -2.2983  0.8546
73693SOL     OW38688  11.797   3.026   2.779 -0.4165  0.3858 -0.2587
73693SOL    HW138689  11.780   3.115   2.811  1.8000  1.0644 -0.8368
73693SOL    HW238690  11.744   3.019   2.700 -0.9429  1.0322  0.0261
73694SOL     OW38691  11.077   3.720  10.771 -0.0115  0.2837 -0.6247
73694SOL    HW138692  11.146   3.779  10.740 -1.2799  1.0911 -1.9930
73694SOL    HW238693  11.015   3.714  10.698  0.4101 -3.3576 -0.8744
73695SOL     OW38694  12.635   1.528   3.609  0.0278 -0.0031 -0.4460
73695SOL    HW138695  12.624   1.577   3.527 -2.5788  0.4628  0.1032
73695SOL    HW238696  12.582   1.449   3.597 -0.7611  0.2861  0.9337
73696SOL     OW38697   8.539  13.192   5.691  0.1266  0.2482 -0.3609
73696SOL    HW138698   8.541  13.104   5.728  1.3544  1.4335  2.7359
73696SOL    HW238699   8.452  13.226   5.712  0.4264  0.5200  0.4802
73697SOL     OW38700   0.422   7.419   9.101 -0.0473 -0.2967 -0.2074
73697SOL    HW138701   0.487   7.435   9.032 -0.1004  1.3160  0.0787
73697SOL    HW238702   0.439   7.487   9.166 -3.5142  1.7310 -1.2001
73698SOL     OW38703  11.231   6.193  11.039  0.6056  0.2949 -0.2346
73698SOL    HW138704  11.317   6.177  11.001  0.2573 -2.2006 -0.1648
73698SOL    HW238705  11.248   6.243  11.119  1.8186  1.1034 -0.9705
73699SOL     OW38706   0.825   2.437   5.965  0.2959  0.2932 -0.0446
73699SOL    HW138707   0.746   2.406   6.008 -0.5562  1.2984 -0.8263
73699SOL    HW238708   0.839   2.375   5.894  1.8273 -1.4943  1.7023
73700SOL     OW38709   1.276   3.993   6.368 -0.0822  0.2910  0.1019
73700SOL    HW138710   1.335   4.034   6.431 -1.3885 -0.5646  1.9514
73700SOL    HW238711   1.191   4.035   6.383 -0.8839 -1.3552  0.3645
73701SOL     OW38712  10.131   9.018   1.722 -0.5119 -0.2285 -0.1478
73701SOL    HW138713  10.064   9.084   1.740 -0.4429 -0.6153  1.7278
73701SOL    HW238714  10.209   9.050   1.769 -0.1250 -1.0297 -0.2263
73702SOL     OW38715   5.176  10.959   8.587 -0.4944  0.1491 -0.4199
73702SOL    HW138716   5.203  10.874   8.552  0.9873  0.4611 -0.0938
73702SOL    HW238717   5.121  10.937   8.662 -0.0360 -0.5346 -0.2722
73703SOL     OW38718   9.206   1.969   9.698 -0.0187  0.4925 -0.2788
73703SOL    HW138719   9.222   1.985   9.605  0.4815 -0.9922 -0.4726
73703SOL    HW238720   9.293   1.968   9.737 -0.1569 -0.0314  0.0128
73704SOL     OW38721   1.252  12.686   4.221 -0.1604  0.2526  0.1102
73704SOL    HW138722   1.260  12.688   4.316  0.2629  1.8328  0.0671
73704SOL    HW238723   1.181  12.624   4.204 -1.9608  1.7984  1.5956
73705SOL     OW38724   7.904   8.313   1.764  0.2307  0.4066 -0.1894
73705SOL    HW138725   7.979   8.357   1.804 -0.7065  1.2468  0.7058
73705SOL    HW238726   7.884   8.365   1.686  0.6341  0.1189 -0.4876
73706SOL     OW38727   4.679  11.685  10.738  0.2276 -0.1988  0.2062
73706SOL    HW138728   4.729  11.765  10.724 -0.5128 -0.0770 -2.1498
73706SOL    HW238729   4.741  11.627  10.783  1.2718  1.1609  0.6022
73707SOL     OW38730   2.624   0.463   4.831  0.4333  0.6080 -0.3429
73707SOL    HW138731   2.577   0.527   4.778  0.2039 -1.1002 -2.3200
73707SOL    HW238732   2.588   0.473   4.919 -1.8373  1.0704 -1.2702
73708SOL     OW38733   1.617   5.900   1.079 -0.2576  0.1471  0.5172
73708SOL    HW138734   1.617   5.977   1.137  0.5734  0.4274  0.1583
73708SOL    HW238735   1.660   5.832   1.131  1.3208  0.6498 -0.0534
73709SOL     OW38736   2.255   7.652  13.631 -0.3889 -0.0466 -0.1248
73709SOL    HW138737   2.245   7.629  13.538 -0.0824  0.4806 -0.2930
73709SOL    HW238738   2.347   7.678  13.639 -0.6287  0.7347  0.1401
73710SOL     OW38739   0.617   3.863   5.304 -0.5726  0.1328  0.2636
73710SOL    HW138740   0.550   3.827   5.362 -0.8310 -0.8343 -0.5929
73710SOL    HW238741   0.680   3.905   5.362 -2.0597  1.3361  1.0773
73711SOL     OW38742  11.745   1.153   2.472 -0.2818  0.2870  0.0813
73711SOL    HW138743  11.736   1.059   2.489  2.5562  0.4311  3.5231
73711SOL    HW238744  11.655   1.186   2.476 -1.2061 -2.0267  0.4122
73712SOL     OW38745   9.797   8.139   5.623  0.5792 -0.2346  0.0013
73712SOL    HW138746   9.891   8.119   5.619  1.0716  1.9854 -1.0860
73712SOL    HW238747   9.755   8.063   5.582  1.8403 -1.3845  0.7273
73713SOL     OW38748   4.033   5.080   7.621 -0.6008 -0.4171 -0.1579
73713SOL    HW138749   4.044   5.037   7.706 -0.1990 -0.5854 -0.2913
73713SOL    HW238750   3.968   5.149   7.636 -1.2376 -1.0521  0.0678
73714SOL     OW38751   1.173  11.713   1.781  0.4977  0.0227  0.0257
73714SOL    HW138752   1.172  11.696   1.686  1.0314 -0.2444  0.0620
73714SOL    HW238753   1.203  11.630   1.819  0.3043  0.1395  0.4271
73715SOL     OW38754   5.150   1.624   3.748 -0.1790  0.0185 -0.1918
73715SOL    HW138755   5.188   1.556   3.692 -1.4727 -0.0158 -1.0768
73715SOL    HW238756   5.173   1.706   3.705  0.6589  0.1107  0.4153
73716SOL     OW38757   9.768   4.690   5.584  0.4902 -0.0722 -0.2072
73716SOL    HW138758   9.730   4.609   5.550 -0.0078  0.5071 -1.0756
73716SOL    HW238759   9.852   4.698   5.539 -0.3755  0.9407 -1.7755
73717SOL     OW38760   9.542  12.647  12.374  0.0081  0.2117  0.0534
73717SOL    HW138761   9.504  12.695  12.447 -0.4872 -2.2606  1.5524
73717SOL    HW238762   9.549  12.557  12.406  0.4014 -0.8523 -2.7400
73718SOL     OW38763  10.657   2.275  10.485 -0.4713 -0.0282 -0.3941
73718SOL    HW138764  10.662   2.351  10.428 -1.2587 -0.3826 -0.9511
73718SOL    HW238765  10.592   2.299  10.552 -0.0300  0.1410 -0.0245
73719SOL     OW38766  11.559   3.405   4.300  0.2494 -0.4922 -0.5121
73719SOL    HW138767  11.513   3.370   4.224  0.0334 -2.3108  0.4042
73719SOL    HW238768  11.489   3.427   4.362  0.5109 -2.3866  0.5199
73720SOL     OW38769   3.883  13.084   2.415 -0.5125 -0.1591 -0.3621
73720SOL    HW138770   3.831  13.007   2.435 -0.1024 -0.8278 -1.7618
73720SOL    HW238771   3.820  13.156   2.414 -1.2507 -0.8014 -1.1236
73721SOL     OW38772  13.816   2.585   5.759  0.3334  0.4636 -0.0819
73721SOL    HW138773  13.745   2.526   5.783  1.5251 -1.9337 -2.0656
73721SOL    HW238774  13.789   2.623   5.676  0.1862  1.7437  0.5221
73722SOL     OW38775   0.724   4.331  12.099 -0.2525  0.2599  0.0017
73722SOL    HW138776   0.745   4.264  12.163 -0.6732 -0.0298 -0.1567
73722SOL    HW238777   0.792   4.323  12.032  0.1710  0.5440  0.3870
73723SOL     OW38778  10.532   0.282   1.278  1.0659  0.1499 -0.2256
73723SOL    HW138779  10.589   0.221   1.231 -0.1672 -0.6532 -0.7366
73723SOL    HW238780  10.505   0.346   1.212  0.7078  0.0325 -0.1951
73724SOL     OW38781   2.948   7.282   1.489  0.1788  0.4713 -0.7174
73724SOL    HW138782   2.989   7.229   1.421  0.9979  0.8478 -0.5339
73724SOL    HW238783   3.012   7.351   1.506  0.7932 -0.5884  1.6484
73725SOL     OW38784   4.803   1.970   5.763 -0.1564 -0.0137 -0.5965
73725SOL    HW138785   4.891   1.939   5.743  0.8247  2.5472 -0.6761
73725SOL    HW238786   4.750   1.937   5.690  0.9007 -0.9091 -0.9985
73726SOL     OW38787  13.263  11.916   6.369 -0.2466 -0.1609  0.3605
73726SOL    HW138788  13.337  11.856   6.370 -0.1977 -0.1778 -1.2662
73726SOL    HW238789  13.296  11.997   6.408  0.3650 -0.4556  0.4524
73727SOL     OW38790  12.397   2.618  13.017  0.5090  0.0320 -0.1381
73727SOL    HW138791  12.413   2.545  13.077  0.3368 -0.0872 -0.2352
73727SOL    HW238792  12.433   2.695  13.062  4.1555 -0.6226 -1.6156
73728SOL     OW38793  11.289  10.264   6.321  0.1220  0.4081  0.2524
73728SOL    HW138794  11.379  10.243   6.297 -0.6341 -0.1315 -2.5012
73728SOL    HW238795  11.264  10.335   6.262 -1.7541 -0.6284 -0.3253
73729SOL     OW38796   2.179   5.300   4.879 -0.1804 -0.1409  0.4048
73729SOL    HW138797   2.177   5.338   4.792 -0.1324 -0.4009  0.2871
73729SOL    HW238798   2.250   5.236   4.875 -1.8076 -2.0161 -0.1695
73730SOL     OW38799   0.371   4.501   0.699  0.5420  0.2805 -0.1416
73730SOL    HW138800   0.401   4.464   0.781 -2.4061  0.7512  1.2522
73730SOL    HW238801   0.400   4.593   0.702  2.3694 -0.2175 -0.7480
73731SOL     OW38802  10.306  11.612   2.217 -0.1803  0.3333  0.0016
73731SOL    HW138803  10.323  11.535   2.162 -1.7202 -0.6267  0.8026
73731SOL    HW238804  10.336  11.586   2.304 -0.7004  0.6339  0.2755
73732SOL     OW38805   3.695  10.656  12.848  0.0585  0.1569  0.3525
73732SOL    HW138806   3.773  10.631  12.798 -0.6406  1.0682 -1.2432
73732SOL    HW238807   3.717  10.741  12.885 -0.0225  0.2158  0.2644
73733SOL     OW38808   0.164   8.785  11.858  0.6063  0.5630 -0.1641
73733SOL    HW138809   0.256   8.760  11.869  0.3960 -0.8110 -1.2143
73733SOL    HW238810   0.153   8.794  11.764 -0.1048  1.7743  0.0161
73734SOL     OW38811  13.671  10.983   8.560  0.0720 -0.3601  0.1412
73734SOL    HW138812  13.617  11.035   8.501  0.3570 -1.0087 -0.7129
73734SOL    HW238813  13.630  10.897   8.560  1.3772 -1.0234 -0.9492
73735SOL     OW38814  10.960   1.458   7.212  0.3256  0.2173 -0.0783
73735SOL    HW138815  10.946   1.512   7.290 -2.3286  0.7733 -0.8201
73735SOL    HW238816  10.954   1.368   7.243 -1.4059  0.4284  0.3395
73736SOL     OW38817   5.440  13.252  10.981  0.2535 -0.1951 -0.1929
73736SOL    HW138818   5.479  13.203  10.909  1.9674  2.9122 -1.5557
73736SOL    HW238819   5.510  13.259  11.046  0.3456  1.1767 -0.4249
73737SOL     OW38820   5.546  13.155   7.501 -0.1079 -0.2762  0.0868
73737SOL    HW138821   5.453  13.150   7.523 -0.4200  0.7014 -0.9060
73737SOL    HW238822   5.584  13.077   7.539 -1.2635 -0.4788  0.8786
73738SOL     OW38823  10.379   1.468   7.076 -0.3801  0.1660  0.0399
73738SOL    HW138824  10.373   1.372   7.080  1.1556 -0.0078 -0.9292
73738SOL    HW238825  10.464   1.488   7.116 -1.5603  1.3431  2.1676
73739SOL     OW38826   2.727   4.044   3.738 -0.4721  0.0878 -0.4007
73739SOL    HW138827   2.822   4.032   3.734 -0.3121  1.2761 -0.4102
73739SOL    HW238828   2.697   4.023   3.650 -0.4327 -1.8319 -0.0029
73740SOL     OW38829   0.172  13.992   1.689 -0.2020  0.6901  0.0909
73740SOL    HW138830   0.217  13.929   1.632 -0.2291  0.6867  0.0735
73740SOL    HW238831   0.095  14.018   1.639 -2.2600 -2.0381  1.5449
73741SOL     OW38832   4.202   5.775   9.735 -0.0288  0.9100  0.6468
73741SOL    HW138833   4.211   5.683   9.710 -0.1691  1.1812 -0.4434
73741SOL    HW238834   4.116   5.801   9.703  0.3820  1.6666  0.1242
73742SOL     OW38835   4.060   4.376   4.390  0.0569  0.1859  0.1163
73742SOL    HW138836   4.142   4.336   4.360  0.3396  0.6904  0.2181
73742SOL    HW238837   4.006   4.380   4.311  1.1786  2.4666 -0.6205
73743SOL     OW38838  11.137   4.617   7.833 -0.0340 -0.0625 -0.6500
73743SOL    HW138839  11.172   4.583   7.751  1.4978  2.2182 -1.0283
73743SOL    HW238840  11.151   4.712   7.828 -1.3858  0.3279  1.5648
73744SOL     OW38841   6.003   4.813  11.488 -0.0219  0.1726 -0.2096
73744SOL    HW138842   5.927   4.803  11.546  0.0116  0.4930 -0.1044
73744SOL    HW238843   6.050   4.731  11.495  1.7439  1.2867  2.7656
73745SOL     OW38844  13.215  10.842   0.918 -0.3862 -0.5343  0.2337
73745SOL    HW138845  13.227  10.762   0.968  1.3102 -0.2215  0.3687
73745SOL    HW238846  13.234  10.817   0.828 -0.1768 -0.3591  0.2287
73746SOL     OW38847   2.878   3.567  12.221  0.1721 -0.0221 -0.0594
73746SOL    HW138848   2.792   3.584  12.258  0.3042  0.1209  0.1806
73746SOL    HW238849   2.933   3.638  12.253  0.6941 -0.8114  0.8407
73747SOL     OW38850   0.609  12.230   6.028  0.1943 -0.0242  0.1454
73747SOL    HW138851   0.601  12.166   5.957  3.4137  0.9773 -1.3024
73747SOL    HW238852   0.585  12.313   5.986 -0.3913  0.2451  0.9946
73748SOL     OW38853   7.933   1.298   6.600  0.0965 -0.7277  0.0991
73748SOL    HW138854   7.843   1.324   6.578  0.3482  2.1224  1.8512
73748SOL    HW238855   7.926   1.264   6.690  0.7714 -0.3207  0.3122
73749SOL     OW38856   4.287   9.971   0.175 -0.0107  0.2599 -0.3235
73749SOL    HW138857   4.220  10.039   0.168 -0.3271 -0.0942 -0.7544
73749SOL    HW238858   4.244   9.899   0.221  0.2851  0.2988  0.0175
73750SOL     OW38859  11.677   7.953   4.094 -0.1623  0.2923 -0.1994
73750SOL    HW138860  11.582   7.952   4.103 -0.0447 -1.8212  1.8594
73750SOL    HW238861  11.697   8.038   4.055 -2.8127  1.1461  0.1197
73751SOL     OW38862   3.082  12.704   2.921  0.6344 -0.4047  0.2400
73751SOL    HW138863   3.073  12.610   2.907  0.9831 -0.6242  1.4223
73751SOL    HW238864   3.001  12.741   2.886  0.8671 -1.0416 -1.0220
73752SOL     OW38865   3.075   2.129   8.748  0.5605 -0.3595 -0.0744
73752SOL    HW138866   3.098   2.149   8.658 -0.6103  0.2469 -0.2707
73752SOL    HW238867   2.984   2.100   8.743 -0.0724  1.2639  1.0649
73753SOL     OW38868   9.186   5.857  13.649 -0.1463 -0.4453  0.1981
73753SOL    HW138869   9.120   5.875  13.582 -2.3644 -0.9198  2.1319
73753SOL    HW238870   9.193   5.762  13.650 -0.6227 -0.4745  1.0766
73754SOL     OW38871  12.203   0.240  11.312 -0.5380  0.1865 -0.3919
73754SOL    HW138872  12.235   0.150  11.311 -1.5163 -0.1713 -0.7864
73754SOL    HW238873  12.209   0.269  11.221 -1.6858 -0.0255 -0.5448
73755SOL     OW38874   2.352   5.740  12.123 -0.0079 -0.1211  0.4819
73755SOL    HW138875   2.415   5.735  12.051  2.1838 -2.5362  2.3856
73755SOL    HW238876   2.271   5.705  12.086  1.2160 -1.8507 -0.7318
73756SOL     OW38877   1.655   5.194   5.508  0.2531 -0.5577  0.3820
73756SOL    HW138878   1.694   5.125   5.562  0.2139 -1.7178 -1.0045
73756SOL    HW238879   1.568   5.159   5.485  1.2079 -1.3175 -2.4986
73757SOL     OW38880  12.265   1.134   4.308  0.1287  0.0459 -0.5667
73757SOL    HW138881  12.178   1.170   4.289 -0.0395 -0.4423 -0.7197
73757SOL    HW238882  12.282   1.161   4.399 -0.5899 -0.6614 -0.2119
73758SOL     OW38883  10.337  13.886   6.306 -0.2365 -0.2008  0.3921
73758SOL    HW138884  10.272  13.949   6.273 -1.0928  0.0092  2.3147
73758SOL    HW238885  10.385  13.934   6.373  1.0999 -0.7431 -0.1472
73759SOL     OW38886   8.586   3.793   5.776 -0.0465  0.0150 -0.2611
73759SOL    HW138887   8.501   3.829   5.753 -1.0902 -1.2665  1.3958
73759SOL    HW238888   8.640   3.870   5.796 -0.9392  0.8121 -0.8435
73760SOL     OW38889   5.243   6.692   1.695  0.1778  0.0264 -0.3581
73760SOL    HW138890   5.204   6.608   1.716  1.1870 -0.6633 -1.1597
73760SOL    HW238891   5.170   6.745   1.663 -0.2966 -0.8812 -0.8146
73761SOL     OW38892   9.208   8.275   6.441  0.3663 -0.3700 -0.0863
73761SOL    HW138893   9.256   8.233   6.370 -0.9514  0.5459 -1.5949
73761SOL    HW238894   9.243   8.364   6.445 -0.5871  0.0444 -0.6352
73762SOL     OW38895  11.596  12.699   1.700 -0.0093 -0.0652 -0.0194
73762SOL    HW138896  11.558  12.731   1.618  0.9991 -0.5609 -0.7090
73762SOL    HW238897  11.622  12.609   1.681  1.2266  0.1621  0.4929
73763SOL     OW38898   9.464   9.079  10.802 -0.5767  0.0978  0.4352
73763SOL    HW138899   9.437   9.021  10.873  1.1038 -2.7615 -1.0730
73763SOL    HW238900   9.412   9.051  10.727  1.0756 -0.3218 -0.6140
73764SOL     OW38901   2.277   1.400  13.983  0.2701  0.4394  0.0932
73764SOL    HW138902   2.202   1.379  14.038  1.0816 -1.3715  0.5657
73764SOL    HW238903   2.263   1.350  13.903  1.1163 -0.1850  0.3185
73765SOL     OW38904   7.332   9.499   5.781  0.1714 -0.3029 -0.3221
73765SOL    HW138905   7.249   9.525   5.741  0.2950  0.4107 -0.1328
73765SOL    HW238906   7.344   9.561   5.854  1.0996 -0.0735 -0.6526
73766SOL     OW38907   3.063   3.857   4.776  0.2137  0.1883  0.6278
73766SOL    HW138908   3.147   3.861   4.731 -0.3857 -2.4118 -0.9214
73766SOL    HW238909   2.998   3.878   4.709 -0.4941 -0.1038  1.2011
73767SOL     OW38910   7.993   9.773  12.025 -0.3101 -0.4370 -0.6637
73767SOL    HW138911   8.053   9.711  11.983  1.2122  0.1554  0.5473
73767SOL    HW238912   8.049   9.825  12.082 -2.1861 -0.8223  1.6556
73768SOL     OW38913   9.080  10.409   0.292  0.7504 -0.0896  0.6941
73768SOL    HW138914   8.996  10.454   0.285 -0.1429 -1.8269 -0.5620
73768SOL    HW238915   9.069  10.349   0.367  2.4042  2.5526  3.2683
73769SOL     OW38916   0.934   2.736  13.875  0.1680 -0.2613 -0.3883
73769SOL    HW138917   0.856   2.787  13.898  1.8222  2.5275 -0.4530
73769SOL    HW238918   0.959   2.768  13.788  1.0530 -1.5522 -0.6407
73770SOL     OW38919  12.539  11.044   3.707  0.2690  0.0243 -0.3300
73770SOL    HW138920  12.605  11.052   3.638 -1.1668  0.1785 -1.7529
73770SOL    HW238921  12.553  11.120   3.763 -0.1349  1.3489 -1.9403
73771SOL     OW38922  10.431   6.999   5.970  0.3734  0.2127 -0.1337
73771SOL    HW138923  10.456   7.017   6.060 -0.0897 -0.4693  0.1424
73771SOL    HW238924  10.451   6.906   5.958 -0.0854  0.1640 -0.5535
73772SOL     OW38925  12.760  14.078  10.288 -0.6974 -0.0011 -0.2032
73772SOL    HW138926  12.671  14.055  10.261 -0.0368 -1.6264 -1.1307
73772SOL    HW238927  12.778  14.161  10.243 -1.4170 -0.1318 -0.7490
73773SOL     OW38928   1.454   1.048   0.665  0.7499 -0.4751  0.1124
73773SOL    HW138929   1.522   0.998   0.621  0.8086 -1.0850  0.8732
73773SOL    HW238930   1.483   1.139   0.659 -1.0167  0.0483 -4.3223
73774SOL     OW38931   9.422  13.896   2.908  0.0492 -0.2619  0.0704
73774SOL    HW138932   9.356  13.955   2.873 -0.2334 -0.5507  0.1014
73774SOL    HW238933   9.452  13.845   2.833 -1.6693 -1.9616  0.4269
73775SOL     OW38934   1.755   4.189   8.436  0.2475 -0.0360  0.3340
73775SOL    HW138935   1.820   4.211   8.370  1.6050  2.0419  2.1883
73775SOL    HW238936   1.794   4.115   8.484  0.1361 -0.3208 -0.0116
73776SOL     OW38937   5.311   3.418   5.295  0.2946  0.3416 -0.4644
73776SOL    HW138938   5.243   3.394   5.358  1.3955 -1.0035  0.2464
73776SOL    HW238939   5.344   3.502   5.327 -0.5953  0.7130 -0.4802
73777SOL     OW38940   6.000   1.726   9.255 -0.7549 -0.0735 -0.1598
73777SOL    HW138941   6.005   1.759   9.166 -0.1102 -1.5679 -0.7254
73777SOL    HW238942   6.088   1.740   9.291 -0.3742 -1.3940 -0.5208
73778SOL     OW38943   6.372  11.073   1.228 -0.3960  0.2378  0.1658
73778SOL    HW138944   6.454  11.024   1.220  0.6336  2.0813 -1.0795
73778SOL    HW238945   6.317  11.017   1.284  1.5422 -1.2198  0.7365
73779SOL     OW38946   0.066   9.377   5.852  0.1884  0.8039 -0.3089
73779SOL    HW138947   0.155   9.344   5.867  0.6320  2.4287  0.9301
73779SOL    HW238948   0.079   9.457   5.801 -0.6429  0.5853 -0.8837
73780SOL     OW38949   2.156   5.496  11.464 -0.8388 -0.0715 -0.1201
73780SOL    HW138950   2.085   5.559  11.472  0.3804  1.5073 -1.1743
73780SOL    HW238951   2.232   5.539  11.503  0.2660 -0.4359 -1.7264
73781SOL     OW38952   6.947   9.222  11.772  0.1834  0.0774 -0.4289
73781SOL    HW138953   6.901   9.226  11.855  0.5646  0.1091 -0.2175
73781SOL    HW238954   6.878   9.225  11.706 -0.1654 -0.6201 -0.1079
73782SOL     OW38955   3.395   5.695   9.386 -0.1913  0.0736 -0.3890
73782SOL    HW138956   3.306   5.663   9.402 -0.8794  1.9993 -0.1948
73782SOL    HW238957   3.445   5.616   9.364 -1.7446 -1.1538  0.3200
73783SOL     OW38958   3.840   4.667  11.087 -0.6366  0.1317  0.5102
73783SOL    HW138959   3.923   4.624  11.109 -1.7139 -1.8975  0.8169
73783SOL    HW238960   3.815   4.629  11.003 -1.3497  0.5679  0.5171
73784SOL     OW38961   4.894  13.485   1.654 -0.3077  0.0837  0.1309
73784SOL    HW138962   4.970  13.444   1.695 -1.2943  0.8144  2.9350
73784SOL    HW238963   4.920  13.576   1.641 -1.1688  0.8301  2.8577
73785SOL     OW38964   0.683   2.837   2.804 -0.1341 -0.0574  0.2054
73785SOL    HW138965   0.664   2.891   2.727  0.9010 -1.0184 -0.7442
73785SOL    HW238966   0.778   2.836   2.810 -0.2077  0.1855  1.6451
73786SOL     OW38967   4.150   8.960   2.980  0.1193  0.2501  0.4377
73786SOL    HW138968   4.155   8.865   2.964  0.1687  0.6412 -2.3295
73786SOL    HW238969   4.186   8.999   2.901 -1.0631  2.6201  0.9967
73787SOL     OW38970  10.561   3.644   5.268 -0.0290 -0.4707  0.5998
73787SOL    HW138971  10.501   3.570   5.275  0.3151 -0.8779 -0.4934
73787SOL    HW238972  10.507   3.715   5.234  0.0088 -0.7379 -0.0439
73788SOL     OW38973   0.062  12.084   2.731  0.1693  0.1800 -0.1264
73788SOL    HW138974   0.097  12.000   2.759  0.2075 -0.6623 -2.4975
73788SOL    HW238975  -0.024  12.063   2.695 -0.9471  1.5788  1.5810
73789SOL     OW38976   8.185   0.224   9.257  0.4326 -0.1815 -0.1255
73789SOL    HW138977   8.113   0.284   9.239  1.4654  1.1349 -0.0130
73789SOL    HW238978   8.264   0.272   9.230  1.2908 -1.4725  0.0087
73790SOL     OW38979   6.119  13.060  13.108  0.3160 -0.2152  0.2326
73790SOL    HW138980   6.088  12.977  13.144 -2.9571  0.8831  0.2923
73790SOL    HW238981   6.162  13.104  13.181  0.8614 -1.2571  0.5644
73791SOL     OW38982  12.384   9.977  10.330 -0.0471  0.4000  0.0242
73791SOL    HW138983  12.356  10.003  10.418 -1.1356  3.1277 -1.0274
73791SOL    HW238984  12.467   9.932  10.344 -1.3229 -1.3730  2.6108
73792SOL     OW38985   6.549   6.188   4.582 -0.6520  0.5391  0.1136
73792SOL    HW138986   6.566   6.095   4.568 -1.0715  0.6843 -1.5372
73792SOL    HW238987   6.570   6.229   4.498  1.6436  2.2639  1.4241
73793SOL     OW38988   5.315  11.580   7.890 -0.0236 -0.2503  0.4471
73793SOL    HW138989   5.339  11.654   7.946  0.5951  1.0650 -1.4516
73793SOL    HW238990   5.316  11.616   7.801 -1.2405 -2.1821 -0.4069
73794SOL     OW38991   9.325   9.835   1.712  0.2136 -0.2037 -0.2221
73794SOL    HW138992   9.282   9.785   1.643 -0.7601  0.6542 -0.2785
73794SOL    HW238993   9.408   9.862   1.675 -0.2740  0.2018 -1.0498
73795SOL     OW38994  12.566  12.062   1.594  0.2911  0.6442  0.3389
73795SOL    HW138995  12.492  12.010   1.562 -0.0796  1.0529  0.5273
73795SOL    HW238996  12.580  12.128   1.526 -0.3644  1.3854  0.9062
73796SOL     OW38997   9.732  10.780   8.399 -0.0309 -0.0667 -0.0222
73796SOL    HW138998   9.797  10.742   8.459 -0.5153 -1.6314 -0.4504
73796SOL    HW238999   9.752  10.874   8.399  1.4327 -0.3434  0.8092
73797SOL     OW39000   2.899   0.220   5.953  0.6403  0.0290 -0.3392
73797SOL    HW139001   2.846   0.235   6.032  1.9907  0.2858  0.5587
73797SOL    HW239002   2.836   0.191   5.887 -0.6154  0.3545  0.6684
73798SOL     OW39003   6.660   2.265   5.665  0.1198  0.1694  0.2126
73798SOL    HW139004   6.687   2.321   5.737  0.9384  0.1655 -0.0871
73798SOL    HW239005   6.692   2.178   5.688 -0.4424 -0.0204  0.2918
73799SOL     OW39006   2.797  11.314   9.372 -0.0694  1.1034 -0.3820
73799SOL    HW139007   2.856  11.357   9.310 -1.0345  1.1108 -1.3305
73799SOL    HW239008   2.782  11.379   9.440  1.6875  0.7940  0.3650
73800SOL     OW39009  14.048  11.884   4.721  0.2390 -0.5357  0.0658
73800SOL    HW139010  14.019  11.958   4.774 -0.8493  0.1427 -1.3763
73800SOL    HW239011  14.139  11.871   4.746  0.6801  1.7518 -0.0902
73801SOL     OW39012  10.489   1.101   3.449 -0.2741 -0.4484 -0.1751
73801SOL    HW139013  10.528   1.093   3.536 -0.2032 -0.4903 -0.2096
73801SOL    HW239014  10.469   1.194   3.440 -3.3756 -0.8451  1.2007
73802SOL     OW39015   2.234   4.437  10.443 -0.6012  0.0355 -0.0832
73802SOL    HW139016   2.274   4.520  10.471 -0.7229 -0.1012  0.5153
73802SOL    HW239017   2.167   4.463  10.380  0.3414  0.2779 -1.0247
73803SOL     OW39018   0.763  13.821   5.947  0.1926 -0.1286  0.4373
73803SOL    HW139019   0.840  13.814   5.891  1.8016  3.4482  1.8638
73803SOL    HW239020   0.794  13.794   6.034 -0.6230 -0.1951  0.7155
73804SOL     OW39021   9.608  10.671   0.698  0.7201 -0.1135 -0.1317
73804SOL    HW139022   9.660  10.688   0.777 -0.9015  0.2120  0.9025
73804SOL    HW239023   9.638  10.737   0.635  1.7610 -0.1263  0.3315
73805SOL     OW39024  11.599  13.969   4.600 -0.9349 -0.0425 -0.1961
73805SOL    HW139025  11.552  14.051   4.587  0.3859  0.6893 -0.5137
73805SOL    HW239026  11.565  13.936   4.684 -1.4832  0.8123 -0.0628
73806SOL     OW39027   0.837  13.004   2.730  0.0716  0.2037  0.1168
73806SOL    HW139028   0.770  13.033   2.792 -1.0799 -0.0872 -0.9477
73806SOL    HW239029   0.858  12.915   2.757 -1.8338 -0.6484 -0.9807
73807SOL     OW39030  12.645   2.138   5.661 -0.4362  0.7861  0.6444
73807SOL    HW139031  12.610   2.118   5.747  0.9665 -0.1198  1.0227
73807SOL    HW239032  12.702   2.214   5.675 -1.7090  1.8917  0.1298
73808SOL     OW39033  13.743   8.100   4.862 -0.5396 -0.1631  0.4794
73808SOL    HW139034  13.660   8.119   4.819 -1.3624  0.0057  2.0580
73808SOL    HW239035  13.798   8.177   4.845 -2.2694  1.8080  3.0582
73809SOL     OW39036   8.943   6.794   8.022 -0.5422  0.6112  0.1751
73809SOL    HW139037   8.941   6.873   7.968 -1.3315  1.7075  1.7297
73809SOL    HW239038   9.035   6.768   8.024 -0.5043  0.5192 -1.6865
73810SOL     OW39039   1.819   1.043   2.609 -0.2117  0.5771 -0.1708
73810SOL    HW139040   1.724   1.052   2.597 -0.4144 -0.5478  0.5021
73810SOL    HW239041   1.829   0.979   2.679  1.0102  2.2400  1.3027
73811SOL     OW39042   1.869  13.941   6.689  0.4848 -0.4453  0.3328
73811SOL    HW139043   1.925  13.987   6.751  0.6506  1.4156 -1.0887
73811SOL    HW239044   1.787  13.991   6.689  0.3815 -0.5880 -0.7011
73812SOL     OW39045   1.268   7.857  10.957 -0.3176 -0.5402 -0.1386
73812SOL    HW139046   1.280   7.762  10.949 -1.7919 -0.7550 -0.0594
73812SOL    HW239047   1.279   7.889  10.867  0.5565 -0.7344 -0.1071
73813SOL     OW39048   6.988   4.507   4.467  0.1183 -0.1321 -0.7785
73813SOL    HW139049   6.955   4.589   4.505 -0.1484 -0.0941 -1.0900
73813SOL    HW239050   7.039   4.467   4.537  1.6997  1.1303 -1.1458
73814SOL     OW39051  10.438  13.675   4.933  0.2391  0.4388  0.0204
73814SOL    HW139052  10.506  13.687   4.999 -0.8655 -0.4206  1.3616
73814SOL    HW239053  10.365  13.730   4.963  0.7281  2.4611 -2.1127
73815SOL     OW39054  11.311   7.529  11.486 -0.3089  0.1041 -0.4001
73815SOL    HW139055  11.256   7.495  11.557 -0.7252  0.4772 -0.5396
73815SOL    HW239056  11.391   7.476  11.490  0.2253  0.9918  1.1693
73816SOL     OW39057   9.751  11.482   6.176  0.0264  0.2217  0.2852
73816SOL    HW139058   9.761  11.470   6.081  0.0541 -3.0959  0.6171
73816SOL    HW239059   9.657  11.473   6.191  0.1813 -0.7385  0.7198
73817SOL     OW39060   0.750   9.492   4.287 -0.1948  0.2381 -0.6256
73817SOL    HW139061   0.775   9.584   4.295  0.2307 -0.0086  1.1196
73817SOL    HW239062   0.657   9.490   4.312  0.3038 -0.0576  1.3697
73818SOL     OW39063   8.601   8.986   8.645  0.6630 -0.4429 -0.1628
73818SOL    HW139064   8.569   8.955   8.561 -0.4396 -0.6697  0.3241
73818SOL    HW239065   8.528   9.033   8.684  0.9022 -0.9583  0.9767
73819SOL     OW39066   7.653  12.589   6.412 -1.0665  0.5222  0.3960
73819SOL    HW139067   7.564  12.609   6.383 -0.8592  0.8209 -0.0456
73819SOL    HW239068   7.706  12.661   6.378 -0.1452 -1.1725 -2.0610
73820SOL     OW39069   9.968   2.743   7.033 -0.7590  0.1423 -0.3531
73820SOL    HW139070   9.880   2.711   7.010 -1.2164  1.0074  0.1682
73820SOL    HW239071   9.964   2.759   7.127 -0.3225  1.0404 -0.4810
73821SOL     OW39072   2.389   1.374   7.295 -0.4154  0.0903  0.0409
73821SOL    HW139073   2.389   1.461   7.256  0.0273 -0.0432 -0.2637
73821SOL    HW239074   2.469   1.332   7.262 -1.4512 -1.0367 -1.1575
73822SOL     OW39075   4.171  11.913   1.614 -0.0609  0.3693  0.4125
73822SOL    HW139076   4.116  11.864   1.675  1.7253  0.0556  1.8331
73822SOL    HW239077   4.259  11.906   1.650  1.2872 -0.7217 -2.7350
73823SOL     OW39078  12.721   2.084  12.782  0.4638 -0.1888  1.0399
73823SOL    HW139079  12.670   2.003  12.786  1.6461 -1.0065  0.1806
73823SOL    HW239080  12.805   2.058  12.743  1.3756  1.2034  1.9759
73824SOL     OW39081   1.371   2.241   9.747  0.4867 -0.3433 -0.3220
73824SOL    HW139082   1.428   2.316   9.765  1.5588 -1.2923  0.4382
73824SOL    HW239083   1.357   2.243   9.652 -0.8560  1.7246 -0.1305
73825SOL     OW39084   5.111  11.520  12.764  0.0883 -0.0121  0.3629
73825SOL    HW139085   5.182  11.546  12.705 -0.7683  1.2796 -0.1258
73825SOL    HW239086   5.078  11.438  12.726  1.6909 -0.9828  0.9506
73826SOL     OW39087   4.714  12.723  12.055 -1.0851 -0.3954 -0.5916
73826SOL    HW139088   4.641  12.714  11.994 -1.2844  1.6041 -0.7219
73826SOL    HW239089   4.732  12.817  12.056  2.3588 -0.9035 -1.5759
73827SOL     OW39090   4.115   9.092   2.437  0.1037 -0.2424 -0.1686
73827SOL    HW139091   4.024   9.114   2.420 -0.0018 -0.7535 -0.2837
73827SOL    HW239092   4.127   9.111   2.530  0.2631  1.1067 -0.4416
73828SOL     OW39093   6.396   5.817   2.298  0.2141  0.6138  0.3953
73828SOL    HW139094   6.334   5.889   2.290  0.4506  0.7271 -0.5613
73828SOL    HW239095   6.395   5.775   2.212 -1.5590 -1.9222  1.5563
73829SOL     OW39096  10.280  12.854   1.369  0.1459  0.3838  0.7813
73829SOL    HW139097  10.285  12.828   1.461 -0.3165  0.4867  0.8419
73829SOL    HW239098  10.330  12.788   1.322 -1.1779 -0.7631  0.9149
73830SOL     OW39099   0.642   1.620   4.444  0.0102  0.4132  0.3176
73830SOL    HW139100   0.598   1.542   4.411 -0.1545 -0.0948  1.6666
73830SOL    HW239101   0.729   1.590   4.471 -0.0084  0.7143  0.7334
73831SOL     OW39102   3.195  10.883  12.017  0.1734  0.3671  0.3842
73831SOL    HW139103   3.136  10.875  11.942 -0.6033  1.0666  0.8909
73831SOL    HW239104   3.214  10.793  12.043 -0.5612  0.1247  0.1097
73832SOL     OW39105   9.019   3.649  12.676  0.0790 -0.3588 -0.1565
73832SOL    HW139106   8.962   3.672  12.749  2.8552  1.0538  1.7164
73832SOL    HW239107   8.970   3.676  12.598 -2.3671 -0.5730  1.2143
73833SOL     OW39108  10.956   2.523   7.794 -0.4737  0.6304  0.4421
73833SOL    HW139109  10.912   2.537   7.878 -0.0783 -0.7034  0.8927
73833SOL    HW239110  11.009   2.602   7.782  1.1473 -0.0207  2.5261
73834SOL     OW39111  13.340   5.490   8.357 -0.2628  0.2297 -0.1860
73834SOL    HW139112  13.313   5.569   8.403 -0.0323  0.6211 -0.7124
73834SOL    HW239113  13.336   5.513   8.264  0.4441 -0.1618 -0.3256
73835SOL     OW39114  10.496  11.075  13.532 -0.3020 -0.2510 -0.1580
73835SOL    HW139115  10.408  11.106  13.513  0.7544  2.2826 -1.3512
73835SOL    HW239116  10.507  10.996  13.478 -1.2572  0.3972 -1.3323
73836SOL     OW39117   3.165  10.600   4.915 -0.2062  0.3700 -0.0838
73836SOL    HW139118   3.148  10.682   4.868 -1.2268  0.3102  0.1657
73836SOL    HW239119   3.254  10.576   4.889  0.1908  1.6553 -0.0167
73837SOL     OW39120  11.305   4.324   4.176 -0.4793  0.0404 -0.0259
73837SOL    HW139121  11.274   4.314   4.086 -0.5795 -0.3779  0.0518
73837SOL    HW239122  11.378   4.385   4.170 -0.3428 -0.1593 -0.4209
73838SOL     OW39123   3.658   5.060   5.270 -0.2819  0.1118  0.6920
73838SOL    HW139124   3.569   5.087   5.292 -0.7273 -0.2979 -0.5445
73838SOL    HW239125   3.664   4.970   5.301 -0.1980  0.2288  1.0218
73839SOL     OW39126   4.836  13.505  11.841  0.1058 -0.0963  0.2619
73839SOL    HW139127   4.822  13.411  11.837 -0.4186 -0.0664  1.2327
73839SOL    HW239128   4.926  13.517  11.810  0.0489 -0.8662 -0.2241
73840SOL     OW39129   6.304  11.082   2.433 -0.3091  0.0240 -0.1582
73840SOL    HW139130   6.284  11.166   2.475  0.0223  0.3860 -0.6872
73840SOL    HW239131   6.314  11.105   2.340 -0.9243 -0.7297 -0.4170
73841SOL     OW39132   2.388   4.835  12.728  0.5521 -0.0034  0.1544
73841SOL    HW139133   2.470   4.818  12.774  0.4244  2.0067  1.2732
73841SOL    HW239134   2.333   4.759  12.747  1.1187 -0.0061  1.9540
73842SOL     OW39135   9.842   4.367  13.496  0.0008  0.6000 -0.5465
73842SOL    HW139136   9.850   4.462  13.487  0.5531  0.6275  0.1255
73842SOL    HW239137   9.885   4.347  13.579  0.6832 -0.3401 -1.1042
73843SOL     OW39138   4.647   4.324   2.877 -0.0149 -0.8076  0.3723
73843SOL    HW139139   4.613   4.400   2.925 -1.3627 -1.2440  0.1308
73843SOL    HW239140   4.574   4.293   2.825  0.9909 -1.2936 -0.8095
73844SOL     OW39141   0.239   9.244  12.762 -0.4811  0.2187  0.2801
73844SOL    HW139142   0.151   9.217  12.790 -0.8664  1.1853  0.0446
73844SOL    HW239143   0.224   9.325  12.713  0.6196  0.8390  0.9357
73845SOL     OW39144   8.741   4.839   5.972  0.1069  0.1178  0.2518
73845SOL    HW139145   8.785   4.828   5.888 -2.2324 -1.6983 -0.8783
73845SOL    HW239146   8.776   4.769   6.027  0.5042  0.3276  0.2700
73846SOL     OW39147   7.878   2.382   9.172  0.0938 -0.0358  0.3359
73846SOL    HW139148   7.833   2.449   9.122  2.0524 -0.0554 -1.6044
73846SOL    HW239149   7.889   2.420   9.259 -0.5089  1.3741 -0.1855
73847SOL     OW39150  13.241  11.748   9.755  0.7081 -0.1172 -0.1920
73847SOL    HW139151  13.320  11.721   9.801  0.8330  0.4524 -0.0594
73847SOL    HW239152  13.172  11.742   9.821  0.3760 -1.9147 -0.6657
73848SOL     OW39153   9.535   5.541   1.809 -0.1510 -0.2845 -0.1874
73848SOL    HW139154   9.562   5.453   1.783 -0.0688  0.6486 -3.8461
73848SOL    HW239155   9.467   5.565   1.746  1.2340  2.9882 -0.6636
73849SOL     OW39156   2.732   4.973   9.262  0.0047  0.6364 -0.6004
73849SOL    HW139157   2.814   4.930   9.238  0.7966  1.5163  0.4109
73849SOL    HW239158   2.676   4.902   9.293  0.6678  0.1057 -0.5851
73850SOL     OW39159   0.284   3.830   8.035  0.5675 -0.1511  0.2224
73850SOL    HW139160   0.260   3.776   7.960 -0.5105 -0.3425  0.6911
73850SOL    HW239161   0.311   3.767   8.102 -1.2332 -0.1911  0.9650
73851SOL     OW39162   4.604   8.830   2.529  0.4399  0.1974 -0.6753
73851SOL    HW139163   4.690   8.818   2.489  0.4519 -0.4218 -0.4839
73851SOL    HW239164   4.588   8.924   2.525  1.6253  0.4621  0.3165
73852SOL     OW39165   1.372   2.473  11.305 -0.7029 -0.6164  0.5433
73852SOL    HW139166   1.377   2.568  11.304  0.0539 -0.6372 -1.3208
73852SOL    HW239167   1.463   2.444  11.297 -0.8688 -1.5262  1.6680
73853SOL     OW39168   0.691   8.986   5.403 -0.2309 -0.1329  0.6711
73853SOL    HW139169   0.684   9.040   5.481  0.5266  0.9769 -0.0001
73853SOL    HW239170   0.633   9.026   5.339  0.6491  0.1697  0.0300
73854SOL     OW39171   8.477   8.801   0.595  0.0114 -0.1419 -0.0917
73854SOL    HW139172   8.500   8.743   0.667 -0.1809 -1.7343 -1.2590
73854SOL    HW239173   8.559   8.845   0.572 -0.1857  1.4567  1.9290
73855SOL     OW39174  11.674   0.159   1.662 -0.2784  0.0885  0.9481
73855SOL    HW139175  11.767   0.180   1.654 -0.4488  0.6051  0.1664
73855SOL    HW239176  11.634   0.196   1.583 -0.6665 -2.8038 -0.3601
73856SOL     OW39177   6.183   9.356   6.322 -0.6673 -0.1723  0.2531
73856SOL    HW139178   6.216   9.345   6.411 -0.3036  1.1457  0.3055
73856SOL    HW239179   6.245   9.307   6.268  0.2028  0.5364  0.5642
73857SOL     OW39180   1.334  10.753   2.699 -0.3384  0.0216  0.1460
73857SOL    HW139181   1.416  10.802   2.691  0.0643 -0.7106 -0.3364
73857SOL    HW239182   1.311  10.761   2.791 -0.1321  0.8671  0.1385
73858SOL     OW39183   5.346   1.395   4.518  0.1933 -0.1537  0.0671
73858SOL    HW139184   5.392   1.311   4.514  0.5353 -0.0137  0.7281
73858SOL    HW239185   5.336   1.412   4.612 -0.7298  0.0884 -0.0660
73859SOL     OW39186  13.813  10.263   4.587  0.5151 -0.2691  0.3629
73859SOL    HW139187  13.777  10.294   4.671 -0.0382 -2.9726  1.2332
73859SOL    HW239188  13.862  10.338   4.553  0.9817  0.8789  3.2349
73860SOL     OW39189  12.768   6.716  12.825  0.0057  0.3854  0.0267
73860SOL    HW139190  12.703   6.779  12.795 -1.6544 -1.2810 -0.0662
73860SOL    HW239191  12.788   6.663  12.748 -1.7618 -1.7695  0.9170
73861SOL     OW39192   7.068   1.278  10.151 -0.3833  0.3778  0.1511
73861SOL    HW139193   7.036   1.336  10.220  0.5662  1.6098 -0.3877
73861SOL    HW239194   7.163   1.288  10.153 -0.3756  1.6071 -2.2234
73862SOL     OW39195   1.727   6.965   4.833  0.6816 -0.2984  0.1019
73862SOL    HW139196   1.790   6.908   4.789 -0.4956 -0.5209 -1.3878
73862SOL    HW239197   1.678   7.006   4.761 -0.2852  0.5204  1.1959
73863SOL     OW39198   7.299   6.872   8.994 -0.2784 -0.0252  0.4294
73863SOL    HW139199   7.316   6.965   9.010  1.1645 -0.3213  0.7048
73863SOL    HW239200   7.289   6.865   8.899  3.5077 -0.1461 -0.0785
73864SOL     OW39201  10.291   6.083  11.130 -0.0823 -0.0643 -0.1207
73864SOL    HW139202  10.261   6.166  11.168  1.5302  0.2390  0.5990
73864SOL    HW239203  10.294   6.099  11.036  2.4237  1.5481  0.1354
73865SOL     OW39204  12.320  12.841   4.707 -0.6150  0.0502  0.2114
73865SOL    HW139205  12.321  12.892   4.627 -0.6396  0.6058  0.5614
73865SOL    HW239206  12.243  12.873   4.755 -0.0927  0.3615  0.8594
73866SOL     OW39207   4.279   0.577   3.626 -0.2244  0.4827 -0.4800
73866SOL    HW139208   4.344   0.641   3.655  0.8913 -0.3983 -0.9123
73866SOL    HW239209   4.232   0.621   3.555 -0.7504  1.4731  0.4724
73867SOL     OW39210   8.654   2.616   5.169 -0.3449 -0.1762 -0.4108
73867SOL    HW139211   8.718   2.636   5.101  1.5356 -0.3046  1.2417
73867SOL    HW239212   8.662   2.522   5.183 -0.3196 -0.0671  0.3483
73868SOL     OW39213   5.936   7.170   0.893 -0.4000 -0.2612 -0.7125
73868SOL    HW139214   5.946   7.246   0.834 -0.7042 -0.4292 -0.9847
73868SOL    HW239215   6.018   7.167   0.942 -0.9148  1.0676  0.2926
73869SOL     OW39216   0.386   6.950  10.126  0.5593 -0.1728 -0.4671
73869SOL    HW139217   0.398   6.955  10.221  2.2552  0.3206 -0.6803
73869SOL    HW239218   0.474   6.941  10.090  0.1984  1.8329 -2.1074
73870SOL     OW39219   0.690   9.659   9.799  0.1699  0.0839 -0.1106
73870SOL    HW139220   0.779   9.626   9.812 -0.2501 -0.5669  1.3808
73870SOL    HW239221   0.639   9.619   9.870 -0.9879  1.6375 -0.0059
73871SOL     OW39222   2.688   7.221   9.462 -0.6657  0.3596 -0.6931
73871SOL    HW139223   2.635   7.178   9.530  0.0860  0.6998  0.1359
73871SOL    HW239224   2.767   7.168   9.458  1.1422  2.6052  1.7151
73872SOL     OW39225   2.985   1.838   8.892 -0.7026  0.8334 -0.1589
73872SOL    HW139226   3.040   1.912   8.867  0.6909 -0.7216 -1.9945
73872SOL    HW239227   2.897   1.861   8.862 -0.5584  2.2017  0.3801
73873SOL     OW39228  11.106  11.661   6.185 -0.0012  0.1665 -0.7950
73873SOL    HW139229  11.163  11.585   6.180 -0.0649 -0.1687  2.1514
73873SOL    HW239230  11.160  11.729   6.225 -1.3936  0.0418  1.4228
73874SOL     OW39231   2.018   2.130   1.220  0.2038  0.0800  0.6372
73874SOL    HW139232   1.927   2.136   1.249  0.0305  2.1773 -0.1997
73874SOL    HW239233   2.062   2.203   1.265  1.3739 -0.6236  0.6642
73875SOL     OW39234   5.858   0.006   1.887  0.0507  0.0902 -0.1929
73875SOL    HW139235   5.881   0.000   1.979  1.1066  1.0347 -0.3795
73875SOL    HW239236   5.936  -0.024   1.841  0.1553  1.2312 -0.7984
73876SOL     OW39237   1.302  10.936   7.180  0.5824 -0.4429 -0.8361
73876SOL    HW139238   1.319  10.991   7.257 -0.5550  0.9292 -1.5207
73876SOL    HW239239   1.388  10.923   7.140  1.0809 -0.5532  0.2499
73877SOL     OW39240   4.843   0.623   8.339  0.1126  0.0735  0.2724
73877SOL    HW139241   4.903   0.576   8.397  0.0930  0.5142  0.6628
73877SOL    HW239242   4.898   0.686   8.293  0.0924 -0.1266 -0.0241
73878SOL     OW39243  13.830   1.170   6.980  0.5979  0.1161 -0.0429
73878SOL    HW139244  13.812   1.080   6.951  0.9516  0.1776 -0.4505
73878SOL    HW239245  13.865   1.214   6.903  0.0887  0.7085  0.0581
73879SOL     OW39246   7.782  13.361   8.226  0.0871 -0.0730  0.4429
73879SOL    HW139247   7.792  13.338   8.318  3.6412 -0.8901  0.0297
73879SOL    HW239248   7.846  13.431   8.212 -0.6747  0.3393 -1.3212
73880SOL     OW39249  12.097   2.262   5.196 -0.3597  0.3296  0.0681
73880SOL    HW139250  12.045   2.290   5.121 -1.6599 -0.3343  0.7019
73880SOL    HW239251  12.151   2.190   5.162 -1.5921 -0.5758 -0.0402
73881SOL     OW39252   8.484   8.258   2.185 -0.3997  0.1505  0.0066
73881SOL    HW139253   8.496   8.166   2.161 -0.5128  0.4302 -1.1754
73881SOL    HW239254   8.481   8.257   2.281 -1.6929 -1.2490 -0.0031
73882SOL     OW39255   9.197  13.653   6.749  0.1652 -0.4681 -0.3516
73882SOL    HW139256   9.142  13.722   6.713  0.8636  0.2310 -0.1045
73882SOL    HW239257   9.220  13.598   6.674  0.6732  0.3229 -0.7819
73883SOL     OW39258   5.295   5.361  13.790 -0.0492 -0.2612 -0.1023
73883SOL    HW139259   5.319   5.439  13.841 -0.9879 -1.0952  1.7509
73883SOL    HW239260   5.340   5.289  13.835  0.9888 -0.7920 -1.9235
73884SOL     OW39261   7.103  11.071   5.412  0.6305 -0.0624  0.0885
73884SOL    HW139262   7.176  11.087   5.472  0.3103 -2.9000  1.3820
73884SOL    HW239263   7.025  11.073   5.467 -0.2795  2.1537 -1.1455
73885SOL     OW39264   8.246   2.002  12.126  0.5655  0.2406 -0.0703
73885SOL    HW139265   8.238   2.095  12.146 -4.1135  0.5318 -2.0277
73885SOL    HW239266   8.257   2.000  12.031  2.0274 -1.2665  0.0909
73886SOL     OW39267   5.154   2.596   7.113  0.0280 -0.4298 -0.6046
73886SOL    HW139268   5.141   2.689   7.134 -0.6225 -0.9631  1.6975
73886SOL    HW239269   5.196   2.597   7.027 -0.0305  1.9892 -0.6966
73887SOL     OW39270   8.989   8.383   7.416  0.3349 -0.0540  0.2188
73887SOL    HW139271   8.898   8.403   7.392 -0.0930 -0.8052  1.1463
73887SOL    HW239272   9.038   8.393   7.334 -0.4190  1.2762 -0.0963
73888SOL     OW39273   9.298   8.304   8.554  0.2434  0.1115 -0.0366
73888SOL    HW139274   9.306   8.278   8.462  0.7714 -2.0417  0.5685
73888SOL    HW239275   9.387   8.327   8.580  0.1744  0.2589  0.0690
73889SOL     OW39276   4.441  13.773   0.861 -0.2425 -0.5201 -0.1735
73889SOL    HW139277   4.509  13.729   0.810 -0.8328 -1.5192 -0.1166
73889SOL    HW239278   4.440  13.863   0.827  0.0424 -0.9111 -1.2530
73890SOL     OW39279   7.545   8.105   3.488  0.4118  0.3408 -0.1874
73890SOL    HW139280   7.545   8.196   3.458 -1.6773  0.0129 -1.4571
73890SOL    HW239281   7.588   8.107   3.573  0.8018  2.4421 -0.3832
73891SOL     OW39282   1.381  13.156   0.553 -0.2841 -0.3387 -0.2237
73891SOL    HW139283   1.346  13.067   0.561  0.5356 -0.5852  0.9895
73891SOL    HW239284   1.432  13.168   0.633 -0.3594  1.2242 -0.3918
73892SOL     OW39285   6.799   5.901   3.315  0.7455  0.4440 -0.2783
73892SOL    HW139286   6.710   5.917   3.348  0.3204 -1.0580 -0.6157
73892SOL    HW239287   6.792   5.818   3.268  2.3760  0.2049 -0.1535
73893SOL     OW39288   9.582   7.886   1.751 -0.2598  0.1371 -0.9050
73893SOL    HW139289   9.529   7.892   1.672  0.6390 -0.9618 -1.6251
73893SOL    HW239290   9.583   7.792   1.772  1.8434  0.0449 -1.2452
73894SOL     OW39291   8.688  13.212   5.366  0.7185 -0.1188  0.1030
73894SOL    HW139292   8.658  13.272   5.435  1.4381  0.4400 -0.0490
73894SOL    HW239293   8.692  13.267   5.287  1.9667 -0.1893  0.0860
73895SOL     OW39294   3.167   7.639   0.444 -0.3109  0.5615  0.2657
73895SOL    HW139295   3.194   7.598   0.526 -0.8076  0.3584  0.3314
73895SOL    HW239296   3.137   7.727   0.469 -1.0418  0.2833  0.3943
73896SOL     OW39297   6.983   2.993   6.346  0.5592  0.6424 -0.0718
73896SOL    HW139298   7.069   3.026   6.373  1.0241  1.2829 -2.1373
73896SOL    HW239299   6.937   2.974   6.428  1.6677  2.8983  1.1594
73897SOL     OW39300   8.606  12.741   0.866  0.3093  0.1455 -0.2715
73897SOL    HW139301   8.656  12.690   0.802  0.5230  1.3368 -1.0815
73897SOL    HW239302   8.563  12.809   0.814  0.9289  1.4893  0.9103
73898SOL     OW39303  12.182   2.945  12.862 -0.2662  0.1564  0.4493
73898SOL    HW139304  12.115   2.992  12.812 -0.1701  1.6843  1.6988
73898SOL    HW239305  12.253   2.932  12.799  0.0018  2.3449  0.2424
73899SOL     OW39306  10.975   8.184   3.053 -0.0451  0.2793 -0.2187
73899SOL    HW139307  10.977   8.278   3.072  0.6252  0.2425 -0.1085
73899SOL    HW239308  11.067   8.158   3.050 -0.1828 -0.1061 -1.5838
73900SOL     OW39309   5.342   8.620  12.443  0.2948  0.2221  1.1080
73900SOL    HW139310   5.432   8.622  12.477  1.5992  1.6104 -2.0618
73900SOL    HW239311   5.340   8.541  12.389  0.2419  1.1432 -0.2685
73901SOL     OW39312   6.329  11.024  11.045  0.0631  0.2679 -0.1793
73901SOL    HW139313   6.255  11.007  10.986 -0.7934  0.1467  0.8851
73901SOL    HW239314   6.320  11.117  11.068  1.1087  0.6352 -1.1590
73902SOL     OW39315   5.237   4.439  12.663  0.1297  0.2480 -0.2561
73902SOL    HW139316   5.286   4.381  12.721 -0.6891  0.1681  0.3704
73902SOL    HW239317   5.214   4.385  12.587  0.3964  0.0918 -0.2246
73903SOL     OW39318   7.503   0.406   5.324 -0.3792 -0.1470 -0.1123
73903SOL    HW139319   7.595   0.398   5.299 -0.4683  0.4971 -0.6672
73903SOL    HW239320   7.491   0.339   5.392 -0.1999 -2.0855 -1.9048
73904SOL     OW39321  11.226   7.515   2.517  0.0707 -0.3076 -0.0003
73904SOL    HW139322  11.148   7.564   2.491 -0.3735 -0.5967  0.7507
73904SOL    HW239323  11.225   7.437   2.462 -1.5957 -1.5878  1.6716
73905SOL     OW39324   5.562   7.705   4.601  0.1470 -0.0292  0.3709
73905SOL    HW139325   5.549   7.663   4.516  1.2476 -0.0085  0.1830
73905SOL    HW239326   5.617   7.645   4.651 -1.3781 -0.5599  1.5005
73906SOL     OW39327   6.669   5.103   1.383  0.6465  0.1094 -0.0921
73906SOL    HW139328   6.585   5.148   1.368  1.8040  1.9518 -1.3963
73906SOL    HW239329   6.666   5.079   1.476 -0.4523  2.1070  0.4559
73907SOL     OW39330  11.776   0.545   4.072  0.0072 -0.0648 -0.5290
73907SOL    HW139331  11.734   0.530   3.987 -0.3100 -2.7399  0.0249
73907SOL    HW239332  11.703   0.558   4.132  0.2240  1.3338 -0.5163
73908SOL     OW39333   4.990   5.387  14.087 -0.2126 -0.1611  0.2820
73908SOL    HW139334   5.067   5.433  14.054  0.0303 -0.2148  0.7615
73908SOL    HW239335   5.009   5.373  14.180 -1.6744  1.7207  0.9412
73909SOL     OW39336   0.965   5.912  11.786 -0.0634 -0.0933  0.0288
73909SOL    HW139337   1.013   5.932  11.867  1.7636  0.2118 -1.0782
73909SOL    HW239338   1.010   5.962  11.719 -1.3946 -0.5443 -1.2430
73910SOL     OW39339   5.305   2.369  12.312 -0.2885  0.3105 -0.1768
73910SOL    HW139340   5.340   2.454  12.337 -0.0978 -0.5545  2.9431
73910SOL    HW239341   5.382   2.318  12.284  0.0682  0.2561  0.8742
73911SOL     OW39342   5.289   7.524  12.855  0.0513 -0.0301 -0.0558
73911SOL    HW139343   5.332   7.450  12.898  1.5461  0.3208 -0.8680
73911SOL    HW239344   5.218   7.485  12.805  0.0367 -0.7634  0.5208
73912SOL     OW39345  12.963   5.963   9.520 -0.0588 -0.2833 -0.0461
73912SOL    HW139346  13.049   5.922   9.514  0.5629  1.0329 -0.3155
73912SOL    HW239347  12.950   6.005   9.436 -0.3545  0.7083  0.4813
73913SOL     OW39348   2.076  13.085   0.257  0.0749  0.5894  0.8623
73913SOL    HW139349   2.090  13.145   0.185 -1.0649  0.5917  0.6224
73913SOL    HW239350   2.101  13.134   0.335  1.2937  0.5944  0.4837
73914SOL     OW39351  12.763   1.357   2.583 -0.1441  0.3407 -0.4705
73914SOL    HW139352  12.774   1.304   2.504 -0.1469 -1.3230  0.5907
73914SOL    HW239353  12.669   1.374   2.587 -0.0377  1.1534 -1.2581
73915SOL     OW39354  10.270   1.863  12.125 -0.3481  0.0940  0.6309
73915SOL    HW139355  10.259   1.957  12.110 -0.3535 -0.0898 -0.6161
73915SOL    HW239356  10.315   1.831  12.046 -1.1334 -1.0965  0.6398
73916SOL     OW39357  12.445   5.231   3.889  0.0053  0.3546 -0.2953
73916SOL    HW139358  12.429   5.137   3.886 -1.0561  0.3152  2.7452
73916SOL    HW239359  12.368   5.270   3.848 -0.0103 -0.0933 -0.6967
73917SOL     OW39360  10.605   9.776  13.122  0.2521 -0.3916  0.1474
73917SOL    HW139361  10.565   9.765  13.036 -2.6564 -1.7019  1.5387
73917SOL    HW239362  10.586   9.694  13.168 -0.5496  1.2066  2.8796
73918SOL     OW39363   6.698   9.377   5.564  0.0060  0.0200  0.0231
73918SOL    HW139364   6.744   9.415   5.638 -0.1671 -1.0536  0.6955
73918SOL    HW239365   6.748   9.299   5.541 -0.8133 -0.5197  0.0239
73919SOL     OW39366   6.137   6.563  12.887 -0.6425 -0.4601  0.1740
73919SOL    HW139367   6.215   6.614  12.905 -0.3168 -1.0453  0.4603
73919SOL    HW239368   6.168   6.473  12.879 -1.0756 -0.5294 -1.1704
73920SOL     OW39369   8.389   3.433   9.418 -0.2755  0.0976 -0.6732
73920SOL    HW139370   8.313   3.492   9.420 -0.2315  0.2038 -1.5830
73920SOL    HW239371   8.356   3.354   9.376 -0.7331 -1.1646  1.8639
73921SOL     OW39372   0.927   5.023  12.048 -0.0123 -0.1092 -0.0016
73921SOL    HW139373   0.919   5.117  12.064 -2.1117 -0.6591  3.1253
73921SOL    HW239374   1.008   4.998  12.091 -0.3574  0.0498  0.7662
73922SOL     OW39375   4.716  13.076   6.087  0.2250  0.2446  0.4941
73922SOL    HW139376   4.807  13.081   6.115  0.3322  0.6022  0.0994
73922SOL    HW239377   4.688  12.988   6.111  0.4043  0.4328  1.4237
73923SOL     OW39378   7.446   6.574   4.322  0.4118  0.4218 -0.1547
73923SOL    HW139379   7.356   6.606   4.333  0.5151  0.5903  0.2235
73923SOL    HW239380   7.462   6.580   4.228 -0.4926 -1.0267 -0.4378
73924SOL     OW39381  13.265   4.855   2.822  0.4328 -0.0784  0.4483
73924SOL    HW139382  13.228   4.942   2.836  0.6036  0.1785 -0.6323
73924SOL    HW239383  13.200   4.810   2.767 -0.0865 -0.9581  1.7260
73925SOL     OW39384   5.160   2.294   4.946 -0.2216 -0.7034  0.0547
73925SOL    HW139385   5.102   2.238   4.894 -1.5798  0.7105 -0.0242
73925SOL    HW239386   5.110   2.314   5.025  0.7095 -0.5433  0.6228
73926SOL     OW39387  11.090   1.639   4.831  0.1191 -0.5481  0.0174
73926SOL    HW139388  11.093   1.659   4.924 -0.7016 -0.0973 -0.0478
73926SOL    HW239389  11.000   1.658   4.805  0.8089  1.2165 -1.2836
73927SOL     OW39390   4.328   8.779  12.285 -0.3383 -0.2837  0.7652
73927SOL    HW139391   4.376   8.731  12.353 -0.5628 -3.2094 -0.9894
73927SOL    HW239392   4.259   8.719  12.257 -1.7479  1.7617 -0.4840
73928SOL     OW39393   7.871  12.264   8.385  0.1548  0.0148  0.1089
73928SOL    HW139394   7.939  12.200   8.365 -0.7126 -0.6796 -0.7018
73928SOL    HW239395   7.909  12.348   8.360  0.4253 -0.4525 -1.1101
73929SOL     OW39396  11.063  13.874  10.342  0.4387  0.0674  0.2642
73929SOL    HW139397  11.004  13.836  10.276  2.0857 -0.4660 -0.9753
73929SOL    HW239398  11.006  13.925  10.399 -1.3411 -1.2019 -0.2997
73930SOL     OW39399   3.780   8.096   8.090 -0.3735 -0.0753 -0.1123
73930SOL    HW139400   3.866   8.070   8.122 -1.1912 -1.5775  1.0320
73930SOL    HW239401   3.787   8.091   7.995 -0.0312 -3.5057 -0.0535
73931SOL     OW39402  12.699  10.169   0.280 -0.0521 -0.1879 -0.3463
73931SOL    HW139403  12.746  10.085   0.280  3.0685  1.3784 -0.8542
73931SOL    HW239404  12.703  10.198   0.188  0.6825  1.3490  0.1381
73932SOL     OW39405   3.807   4.579  14.023  0.4261  0.3715 -0.7555
73932SOL    HW139406   3.807   4.483  14.024  0.9950  0.3701  0.3746
73932SOL    HW239407   3.880   4.603  14.079  0.2654  1.4805 -1.0036
73933SOL     OW39408   3.365   8.776   2.192 -0.1883  0.3871  0.1226
73933SOL    HW139409   3.311   8.768   2.270 -1.7784 -2.5210 -1.1191
73933SOL    HW239410   3.407   8.691   2.183  0.8232  1.0051 -1.6019
73934SOL     OW39411  13.083   3.388   6.426  0.3883 -0.0317 -0.3230
73934SOL    HW139412  13.147   3.454   6.454  0.5644 -0.4072  0.1816
73934SOL    HW239413  13.014   3.438   6.382 -0.2835  0.6819  1.4446
73935SOL     OW39414   8.087  12.952   8.465  0.0081 -0.4066  0.3862
73935SOL    HW139415   8.038  13.019   8.416 -0.1848 -0.1602  0.9071
73935SOL    HW239416   8.081  12.980   8.557 -0.6032 -1.4684  0.6837
73936SOL     OW39417   5.422   5.682   2.041  0.1964 -0.0279  0.5979
73936SOL    HW139418   5.380   5.628   2.108 -0.8843 -1.8673 -1.4416
73936SOL    HW239419   5.486   5.734   2.089 -1.4619 -0.2228  3.2383
73937SOL     OW39420   2.467  12.081   9.767  0.1931 -0.6824  0.0726
73937SOL    HW139421   2.396  12.075   9.703  0.7332  0.0225 -0.6191
73937SOL    HW239422   2.547  12.091   9.714  0.5444  0.9918  0.8250
73938SOL     OW39423   0.137  12.927   9.656 -0.0482 -0.1618  0.7657
73938SOL    HW139424   0.195  12.876   9.712 -2.6312 -1.5541  2.4021
73938SOL    HW239425   0.067  12.956   9.715 -0.5105  2.3428 -0.8568
73939SOL     OW39426  11.367   5.805   0.343 -0.5878  0.2348 -0.2121
73939SOL    HW139427  11.458   5.813   0.369 -0.9902 -0.1716  1.4639
73939SOL    HW239428  11.323   5.771   0.422 -2.1459  0.2919 -1.0280
73940SOL     OW39429   1.649   6.392   6.886 -0.4179  0.6133  0.0629
73940SOL    HW139430   1.661   6.385   6.981  2.2058  1.6728 -0.1206
73940SOL    HW239431   1.733   6.365   6.849 -1.4214  0.1100 -2.0053
73941SOL     OW39432  12.240   8.571   0.446  0.3695 -0.2383  0.0153
73941SOL    HW139433  12.193   8.536   0.522 -0.5642 -0.1365 -0.5056
73941SOL    HW239434  12.315   8.618   0.484 -0.5260  0.5037  0.9194
73942SOL     OW39435   1.743   7.100  13.926 -0.0698  0.1409  0.5175
73942SOL    HW139436   1.714   7.119  14.016  0.6322  1.9936  0.3998
73942SOL    HW239437   1.834   7.073  13.936 -0.0220  0.2503  0.3760
73943SOL     OW39438   4.789   0.224  12.228 -0.5388 -0.1815  0.5024
73943SOL    HW139439   4.699   0.255  12.233  0.3715  2.8208  0.7366
73943SOL    HW239440   4.800   0.195  12.137 -1.7179 -0.5778  0.4742
73944SOL     OW39441   2.905  10.080   0.185  0.0968 -0.5565  0.2490
73944SOL    HW139442   2.835  10.142   0.206  0.2610 -0.0130 -0.7545
73944SOL    HW239443   2.864  10.016   0.127  0.9159  1.0870 -2.3285
73945SOL     OW39444  12.239   9.420  10.495  0.0776 -0.2853 -0.6186
73945SOL    HW139445  12.323   9.396  10.533 -0.0497  0.5109  0.1764
73945SOL    HW239446  12.258   9.432  10.402  0.9611  0.4229 -0.3596
73946SOL     OW39447   2.697   0.575   6.459  0.0688 -0.1265 -0.2226
73946SOL    HW139448   2.611   0.563   6.419 -0.3765 -0.8676  0.9412
73946SOL    HW239449   2.724   0.663   6.431 -0.3483 -0.4968 -1.8914
73947SOL     OW39450   3.843  10.664   5.323 -0.8179 -0.2760  0.2782
73947SOL    HW139451   3.818  10.604   5.253 -0.5501  0.2498 -0.2843
73947SOL    HW239452   3.876  10.608   5.393  0.5850 -0.7424 -0.7144
73948SOL     OW39453   4.901   1.560   8.741 -0.3992  0.0936 -0.1102
73948SOL    HW139454   4.844   1.634   8.764  0.3064 -0.0175  2.3163
73948SOL    HW239455   4.990   1.595   8.748 -0.0816 -0.2027 -2.1155
73949SOL     OW39456   0.071   8.154   0.205  0.9029 -0.3637  0.2460
73949SOL    HW139457   0.130   8.189   0.272  1.9241 -0.3218 -0.6591
73949SOL    HW239458   0.073   8.059   0.219  2.8833 -0.5809 -1.0849
73950SOL     OW39459   2.314  10.945   3.025 -1.0212  0.5833  0.2755
73950SOL    HW139460   2.305  11.017   3.087  1.9513 -0.8217  2.5441
73950SOL    HW239461   2.361  10.877   3.073 -0.9299 -1.6829 -2.7315
73951SOL     OW39462   0.623   3.195  13.640 -0.0454 -0.5116 -0.0367
73951SOL    HW139463   0.643   3.162  13.552  0.5713 -1.3971  0.4213
73951SOL    HW239464   0.554   3.259  13.626  0.3399 -0.3325 -1.2166
73952SOL     OW39465   4.639  13.047   9.881  0.3436 -0.3491  0.5036
73952SOL    HW139466   4.706  12.989   9.844  1.1041  0.9947 -0.2758
73952SOL    HW239467   4.600  12.994   9.951  2.4376 -1.0890  1.2234
73953SOL     OW39468   5.630   3.304  11.796  0.6832  0.2147  0.5126
73953SOL    HW139469   5.678   3.230  11.833  1.3163 -0.4250 -1.4832
73953SOL    HW239470   5.683   3.334  11.723 -0.9771  0.7907 -0.5272
73954SOL     OW39471   2.264   9.157   4.269 -0.0965 -0.1468  0.2232
73954SOL    HW139472   2.271   9.251   4.258 -2.4812 -0.0344 -1.0654
73954SOL    HW239473   2.242   9.144   4.361  1.5024  0.4309  0.7016
73955SOL     OW39474   9.182   7.041  13.171 -0.0490 -0.6167 -0.1452
73955SOL    HW139475   9.127   7.086  13.106 -0.3228  0.3822  0.7420
73955SOL    HW239476   9.228   6.974  13.121 -0.5462 -0.1322 -1.2990
73956SOL     OW39477   6.081  13.982   1.771  0.5224  0.3523  0.0761
73956SOL    HW139478   6.174  13.997   1.754  0.9470 -2.1668 -0.3461
73956SOL    HW239479   6.069  13.889   1.752 -1.8242  0.3274  1.3330
73957SOL     OW39480   5.766   9.119   3.713 -0.0451 -0.4546  0.3685
73957SOL    HW139481   5.765   9.181   3.640  0.2363  0.0856  0.8098
73957SOL    HW239482   5.843   9.065   3.698 -0.6818 -1.1799 -0.3995
73958SOL     OW39483  13.983   2.541   3.578  0.3919  0.5792 -0.3874
73958SOL    HW139484  14.003   2.607   3.645  3.2159 -2.1958  1.8353
73958SOL    HW239485  14.012   2.580   3.496  2.1338  2.1036  0.8625
73959SOL     OW39486   8.319  11.548   1.481 -0.1017  0.2011 -0.4654
73959SOL    HW139487   8.324  11.511   1.393  1.0076  2.5133 -1.4862
73959SOL    HW239488   8.227  11.570   1.492 -0.4313 -1.0462 -0.6002
73960SOL     OW39489   9.716   4.354  12.903  0.0275 -0.2732 -0.5488
73960SOL    HW139490   9.628   4.331  12.875  0.1457 -1.0181 -0.3324
73960SOL    HW239491   9.769   4.278  12.879  0.4335 -0.2219  0.1773
73961SOL     OW39492   6.151   6.176   6.043 -0.2746  0.1468 -1.0380
73961SOL    HW139493   6.243   6.194   6.060 -0.5727 -0.1747  1.3414
73961SOL    HW239494   6.146   6.080   6.033 -0.4697  0.0503 -0.0959
73962SOL     OW39495  13.880   4.938  13.181  0.0229 -0.3643 -0.2027
73962SOL    HW139496  13.807   4.956  13.240  1.1420 -0.4247  1.2512
73962SOL    HW239497  13.883   5.014  13.122 -0.7683 -0.0374  0.1665
73963SOL     OW39498  10.646   7.171  13.759  0.1830 -0.5891  0.0620
73963SOL    HW139499  10.711   7.240  13.769 -0.4873  0.2309 -1.0482
73963SOL    HW239500  10.696   7.094  13.730  0.7725 -0.2378  0.1470
73964SOL     OW39501   5.587  11.343   1.647  0.0365  0.4810  0.0191
73964SOL    HW139502   5.607  11.262   1.601  0.3802  0.8847 -0.5615
73964SOL    HW239503   5.666  11.397   1.636 -0.6434  1.3676 -0.6730
73965SOL     OW39504  11.242   5.902   5.375  0.0600  0.4159 -0.1924
73965SOL    HW139505  11.177   5.958   5.333 -0.2620 -0.4154 -0.8486
73965SOL    HW239506  11.267   5.839   5.307  0.7149  0.0266  0.3909
73966SOL     OW39507   3.698   8.186   6.067  0.2435  0.4353 -0.5224
73966SOL    HW139508   3.627   8.220   6.122 -1.2546 -0.9316 -1.5181
73966SOL    HW239509   3.747   8.128   6.125  0.4200  1.2054  0.1152
73967SOL     OW39510  10.752   8.713   3.251 -0.1125 -0.3219 -0.1070
73967SOL    HW139511  10.819   8.777   3.225 -0.4694  0.1922  0.2025
73967SOL    HW239512  10.788   8.628   3.227 -0.2592  0.0927 -1.9343
73968SOL     OW39513   3.008   5.439   3.858 -0.1679  0.3615  0.4594
73968SOL    HW139514   3.045   5.513   3.906 -0.5622  0.0651  1.2437
73968SOL    HW239515   3.081   5.378   3.849 -0.1199  0.3694  0.7844
73969SOL     OW39516   2.647  13.049   8.731  0.4465 -0.0596 -0.1479
73969SOL    HW139517   2.680  13.077   8.816 -0.5619 -0.7593  0.4885
73969SOL    HW239518   2.553  13.062   8.736  0.3135 -0.6510 -0.9458
73970SOL     OW39519   5.134   4.369  11.761  0.5534  0.4243  0.0925
73970SOL    HW139520   5.082   4.402  11.687  0.2922 -0.1439  0.0173
73970SOL    HW239521   5.114   4.430  11.833 -1.9992 -0.9805  0.7305
73971SOL     OW39522   2.753  13.964   3.140  0.2790  0.1432 -0.1442
73971SOL    HW139523   2.725  13.877   3.168 -0.5488  0.4993  0.1521
73971SOL    HW239524   2.811  13.994   3.210  1.2450 -0.4999 -0.6476
73972SOL     OW39525  13.611   3.538   7.886  0.1460 -0.9317  0.3440
73972SOL    HW139526  13.582   3.629   7.882 -0.5794 -1.1717  0.0457
73972SOL    HW239527  13.625   3.521   7.979 -2.1465 -1.2603  0.6754
73973SOL     OW39528   0.923  10.163   8.396 -0.0446  0.5410 -0.1539
73973SOL    HW139529   0.841  10.149   8.350  0.0615 -1.9452  0.2843
73973SOL    HW239530   0.962  10.240   8.354 -2.2303  1.3248 -0.8348
73974SOL     OW39531   0.593  14.080   0.824 -0.4859  0.2318  0.3043
73974SOL    HW139532   0.663  14.123   0.872  0.3172  0.1829 -0.7733
73974SOL    HW239533   0.624  13.990   0.812 -0.3453  0.4135 -0.8609
73975SOL     OW39534   4.046   9.281  10.318 -0.0255 -0.2037  0.4980
73975SOL    HW139535   4.063   9.364  10.274 -0.5447  0.2396  1.1135
73975SOL    HW239536   3.966   9.247  10.277  1.1371 -1.2915 -0.9833
73976SOL     OW39537  10.971   3.510   9.201  0.7032  0.5806  0.0589
73976SOL    HW139538  11.062   3.537   9.188  1.4278 -0.5846  2.0843
73976SOL    HW239539  10.930   3.585   9.245  1.1440  0.5086  0.6039
73977SOL     OW39540  11.752   8.866  12.381 -0.0084 -0.1786  0.0295
73977SOL    HW139541  11.673   8.884  12.330 -0.8408  0.5826  1.5158
73977SOL    HW239542  11.719   8.836  12.466  1.3210 -0.3699  0.5029
73978SOL     OW39543   2.830   9.766  11.678 -0.1676 -0.1578 -0.4085
73978SOL    HW139544   2.787   9.830  11.622 -0.1970  0.2144  0.0401
73978SOL    HW239545   2.759   9.722  11.724 -0.1271 -0.2505 -0.4338
73979SOL     OW39546   6.181  12.462  12.332  0.0029 -0.0719  0.5570
73979SOL    HW139547   6.149  12.538  12.282  1.1833 -0.7076 -1.2911
73979SOL    HW239548   6.188  12.493  12.422 -2.6998  1.0055  0.5101
73980SOL     OW39549   3.491   8.386   0.429 -0.3728 -0.3210  0.0813
73980SOL    HW139550   3.542   8.384   0.348 -0.1927 -1.2586  0.2011
73980SOL    HW239551   3.445   8.302   0.430 -0.7336 -0.1227  0.7282
73981SOL     OW39552   4.473   3.280  10.944  0.3908  0.2031  0.2579
73981SOL    HW139553   4.397   3.322  10.986 -0.1380 -0.0668 -0.4009
73981SOL    HW239554   4.454   3.187  10.948 -0.0715  0.1944 -1.2646
73982SOL     OW39555  13.657  14.026   2.282  0.4666  0.1518 -0.0401
73982SOL    HW139556  13.683  14.025   2.189 -0.3671 -0.5349 -0.2855
73982SOL    HW239557  13.713  13.960   2.323  0.2625 -0.1485 -0.2354
73983SOL     OW39558  12.646   0.760   7.024  0.3991  0.3633 -0.4579
73983SOL    HW139559  12.633   0.691   6.959  0.2610 -1.2928  1.2489
73983SOL    HW239560  12.564   0.763   7.073  0.9048  0.7692  0.3815
73984SOL     OW39561  12.323  12.759  12.915 -0.3298 -0.2128 -0.2638
73984SOL    HW139562  12.416  12.748  12.895 -0.4786 -1.5630 -0.3194
73984SOL    HW239563  12.292  12.670  12.931 -1.4537  0.2949  0.4884
73985SOL     OW39564   1.429   0.397   3.521  0.0697  0.1823 -0.6812
73985SOL    HW139565   1.369   0.449   3.575  0.6554 -0.4543  0.6195
73985SOL    HW239566   1.379   0.319   3.497  0.5421 -0.6426  0.9167
73986SOL     OW39567  13.278  12.310   5.771 -0.1152  0.0702 -0.4792
73986SOL    HW139568  13.312  12.372   5.707 -1.4234 -0.5262 -1.8107
73986SOL    HW239569  13.234  12.365   5.836 -0.7231  0.5767 -1.3063
73987SOL     OW39570   4.220  10.918   8.803  0.6513  0.0867  0.2936
73987SOL    HW139571   4.186  10.979   8.738 -0.0712  0.1023  0.6770
73987SOL    HW239572   4.162  10.928   8.879  0.1392 -1.4885  0.1551
73988SOL     OW39573   8.985   2.160   8.545  0.4244 -0.1131 -0.3183
73988SOL    HW139574   8.929   2.132   8.472 -0.7009 -0.6221  0.7004
73988SOL    HW239575   8.966   2.253   8.554  1.5726  0.2661 -1.4995
73989SOL     OW39576   6.888   2.973   0.525  0.0094  0.3055 -0.1480
73989SOL    HW139577   6.939   2.893   0.532 -0.9664 -0.3304 -0.0979
73989SOL    HW239578   6.949   3.038   0.489  1.3114  0.0308  1.4483
73990SOL     OW39579   5.411  13.341   6.279 -0.0898  0.0664 -0.8767
73990SOL    HW139580   5.472  13.396   6.328 -2.1334  1.7328 -0.0164
73990SOL    HW239581   5.351  13.306   6.346 -1.4644  0.3893 -1.8813
73991SOL     OW39582   8.388   2.634  12.364  0.1601 -0.0876  0.3936
73991SOL    HW139583   8.333   2.699  12.409 -1.1459 -0.5913 -0.4434
73991SOL    HW239584   8.345   2.550  12.381  1.0527 -0.5838  0.2763
73992SOL     OW39585   5.592  10.054   5.381  0.3613 -1.1136  0.1614
73992SOL    HW139586   5.609  10.120   5.315 -0.5837 -1.6032 -0.5921
73992SOL    HW239587   5.607  10.099   5.465 -0.1856  0.0247 -0.3301
73993SOL     OW39588   5.165   7.933   3.403 -0.3752 -0.0172  0.1337
73993SOL    HW139589   5.082   7.943   3.450 -1.5924 -0.1563 -1.8526
73993SOL    HW239590   5.173   8.013   3.351  1.8329  0.9358  1.7925
73994SOL     OW39591   5.923   9.792   0.207  0.4603  0.2718  0.0709
73994SOL    HW139592   6.003   9.787   0.258  0.8650  1.1473 -0.4658
73994SOL    HW239593   5.856   9.754   0.264  0.9199  1.1043  1.2105
73995SOL     OW39594   0.495   4.059   3.787  0.0615  0.6576  0.1826
73995SOL    HW139595   0.428   3.991   3.794  1.3651 -0.6338  0.7977
73995SOL    HW239596   0.519   4.078   3.878  0.3917  1.2340 -0.0228
73996SOL     OW39597   0.297   9.245  13.060 -0.0447 -0.3043  0.2917
73996SOL    HW139598   0.361   9.200  13.115  0.3889 -0.3457 -0.2417
73996SOL    HW239599   0.348   9.277  12.985 -0.4063  0.7799  0.4932
73997SOL     OW39600  13.814   0.168   2.301 -0.1739  0.1502  1.1953
73997SOL    HW139601  13.851   0.166   2.389  0.0386 -1.1621  1.0994
73997SOL    HW239602  13.747   0.100   2.301  0.9385 -1.0122 -0.0928
73998SOL     OW39603   9.995   5.428   0.380  0.0503 -0.1073  0.2060
73998SOL    HW139604   9.937   5.376   0.434 -1.6294  1.5996  0.1529
73998SOL    HW239605  10.070   5.447   0.436 -0.2264 -0.8967  0.8616
73999SOL     OW39606  11.713  11.660  12.886  0.3268 -0.3649  0.2258
73999SOL    HW139607  11.625  11.666  12.851 -0.0595  2.0158  1.4224
73999SOL    HW239608  11.770  11.650  12.810 -0.7823  0.6324 -0.7504
74000SOL     OW39609  11.569   3.371   6.744  0.2204  0.4048 -0.0984
74000SOL    HW139610  11.619   3.412   6.814 -0.4934  1.4205 -0.1629
74000SOL    HW239611  11.490   3.425   6.736  0.4867  0.5943 -1.9645
74001SOL     OW39612   2.685   5.648   1.597 -0.2197  0.4296  0.1674
74001SOL    HW139613   2.638   5.580   1.548 -1.7251 -0.2270  2.3637
74001SOL    HW239614   2.639   5.729   1.576 -2.3827 -0.1742  2.1126
74002SOL     OW39615   1.005   5.394   6.714 -0.3910  0.5547  0.1642
74002SOL    HW139616   0.953   5.406   6.635 -0.8486  0.7391  0.4882
74002SOL    HW239617   1.006   5.299   6.728  2.1914  0.1879 -1.7070
74003SOL     OW39618   7.329  11.890   7.622  0.5044  0.1344 -0.2763
74003SOL    HW139619   7.367  11.816   7.574  0.3661 -1.1996  1.5760
74003SOL    HW239620   7.390  11.962   7.606 -0.1053  0.1018 -3.3134
74004SOL     OW39621   3.812   5.549   0.699 -0.4684  0.4265  0.5977
74004SOL    HW139622   3.862   5.467   0.706 -1.5175 -0.1207  2.2161
74004SOL    HW239623   3.848   5.592   0.622  1.7787 -0.4349  1.0803
74005SOL     OW39624   3.833   1.086   9.716 -0.1951  0.1019  0.2041
74005SOL    HW139625   3.807   0.994   9.723 -2.2439  0.6575  0.6685
74005SOL    HW239626   3.828   1.120   9.805  0.7838  0.6214  0.0771
74006SOL     OW39627  14.002   9.744   1.736  0.1049 -0.5415  0.2922
74006SOL    HW139628  14.074   9.805   1.754  0.3469 -0.6085 -0.4079
74006SOL    HW239629  13.928   9.801   1.714  0.3472 -0.4927 -0.4202
74007SOL     OW39630  11.614   5.218   2.245 -0.4572  0.2930  0.0186
74007SOL    HW139631  11.666   5.268   2.308 -0.7529  0.1412  0.3843
74007SOL    HW239632  11.653   5.238   2.160 -0.0886  0.5368  0.2462
74008SOL     OW39633   1.434  11.731   0.834 -0.1564  0.0366 -0.1008
74008SOL    HW139634   1.528  11.733   0.817  0.0398 -0.3049  0.8878
74008SOL    HW239635   1.401  11.661   0.777 -0.1347  1.3617 -1.8361
74009SOL     OW39636   2.177  12.900   5.743 -0.2190  0.8406 -0.1596
74009SOL    HW139637   2.240  12.892   5.671 -0.3291  0.3715 -0.2077
74009SOL    HW239638   2.192  12.988   5.778 -1.0643  1.6005 -1.6033
74010SOL     OW39639  13.858   7.762   1.751  0.1627  0.2227  0.2693
74010SOL    HW139640  13.881   7.832   1.813 -0.3352  1.1706 -0.5786
74010SOL    HW239641  13.762   7.758   1.754  0.2408 -2.5190  2.5116
74011SOL     OW39642   7.211   8.868  13.098 -0.3551 -0.0208  0.3252
74011SOL    HW139643   7.257   8.911  13.170 -2.7166  1.3323  1.1692
74011SOL    HW239644   7.250   8.905  13.019  0.1388  0.9194  0.9871
74012SOL     OW39645   9.962   5.364  12.611 -0.0891 -1.2942  0.2481
74012SOL    HW139646   9.868   5.380  12.621  0.1081  0.4064 -0.3010
74012SOL    HW239647   9.968   5.301  12.539 -0.9003 -3.8201  2.2546
74013SOL     OW39648   9.202   9.466  14.046 -0.2556  0.4405 -0.2722
74013SOL    HW139649   9.164   9.402  14.106  0.5944 -1.2173 -1.4294
74013SOL    HW239650   9.292   9.478  14.078  0.0367 -0.0588 -0.8860
74014SOL     OW39651   0.649   7.978   8.083  0.2013  0.5571  0.0006
74014SOL    HW139652   0.715   8.014   8.142  0.2605  1.9247 -0.8687
74014SOL    HW239653   0.569   8.028   8.103 -0.3778 -0.5087  0.4583
74015SOL     OW39654   9.258  12.301   8.938  0.5061  0.0878  0.4676
74015SOL    HW139655   9.210  12.316   9.020  1.6530 -0.0086  1.1790
74015SOL    HW239656   9.236  12.211   8.913  0.1240  0.1299  0.6433
74016SOL     OW39657  13.179   1.400   7.176  0.2735 -0.2714  0.8493
74016SOL    HW139658  13.200   1.309   7.197  0.4754 -1.0070 -2.1737
74016SOL    HW239659  13.091   1.397   7.140  0.3418  0.7243  0.5751
74017SOL     OW39660  12.102   9.880  11.128  0.6708 -0.6161  0.2008
74017SOL    HW139661  12.026   9.872  11.185  0.0564  1.2796 -0.2839
74017SOL    HW239662  12.174   9.905  11.186  0.2342  0.5093  0.2740
74018SOL     OW39663  13.988   5.353   6.191  0.2978 -0.0187  0.3631
74018SOL    HW139664  13.923   5.400   6.139 -1.8499 -0.6876  2.2567
74018SOL    HW239665  14.039   5.422   6.234 -2.1791  0.7263  2.3595
74019SOL     OW39666  10.793  12.550  11.822  0.1888  0.7336  0.4164
74019SOL    HW139667  10.758  12.576  11.908 -1.4189 -2.2308  0.8207
74019SOL    HW239668  10.855  12.480  11.842 -0.1087  0.0905 -0.7964
74020SOL     OW39669  11.893   3.723   2.736 -0.3533  0.4426 -0.0330
74020SOL    HW139670  11.892   3.803   2.684  1.8068  2.5406  2.8630
74020SOL    HW239671  11.819   3.733   2.796 -0.5830 -0.1813 -0.2007
74021SOL     OW39672  10.996   9.946   2.562 -0.1260 -0.3611  0.3753
74021SOL    HW139673  11.057   9.893   2.614  0.6413 -1.4135 -1.5114
74021SOL    HW239674  10.923   9.887   2.543 -1.0564  0.4284  1.3163
74022SOL     OW39675  11.905   4.392  11.477 -0.5465 -0.1019 -0.0075
74022SOL    HW139676  11.972   4.435  11.530  1.6857 -2.0294 -1.1146
74022SOL    HW239677  11.890   4.451  11.404 -2.1575  1.6119  1.5905
74023SOL     OW39678  12.222  11.920   8.251  0.1184 -0.0845 -0.5110
74023SOL    HW139679  12.170  11.974   8.311  0.7674  0.0796 -0.0874
74023SOL    HW239680  12.310  11.957   8.255  0.3231 -0.5043 -1.0428
74024SOL     OW39681   1.920   2.465   8.259  0.1188  0.3495  0.2812
74024SOL    HW139682   1.960   2.533   8.312  0.6998 -0.2135  0.5720
74024SOL    HW239683   1.863   2.417   8.320  1.8050 -1.1438  0.7559
74025SOL     OW39684   7.924  13.372   9.156  0.5122  0.4687  0.1381
74025SOL    HW139685   7.869  13.433   9.205  0.3917  1.3351 -1.0252
74025SOL    HW239686   7.895  13.285   9.184 -0.0228  0.9344  1.0606
74026SOL     OW39687   8.633   2.143   9.831  0.2891 -0.5004  0.0388
74026SOL    HW139688   8.688   2.067   9.850  1.6259  0.8734  2.1354
74026SOL    HW239689   8.678   2.217   9.874 -0.6639  1.6082 -2.3146
74027SOL     OW39690   1.646   3.271   5.089 -0.2756 -0.9433 -0.3759
74027SOL    HW139691   1.659   3.364   5.107  0.8067 -1.2681  0.6695
74027SOL    HW239692   1.564   3.266   5.040 -0.9840  0.4349  0.6459
74028SOL     OW39693   6.537   2.352   8.793  0.4802 -0.4414 -0.3868
74028SOL    HW139694   6.581   2.267   8.791  1.4638  0.0664 -1.3813
74028SOL    HW239695   6.527   2.376   8.701  0.8116  0.8145 -0.1166
74029SOL     OW39696   9.029  11.766  12.950  0.3473  0.0953 -0.4961
74029SOL    HW139697   9.086  11.707  12.900 -0.4647  0.1532 -1.5226
74029SOL    HW239698   8.961  11.793  12.887 -0.9900 -0.2116  0.7594
74030SOL     OW39699  12.435   8.193  11.334  0.3793 -0.3997 -0.2492
74030SOL    HW139700  12.484   8.221  11.257  0.2706 -0.1257 -0.2211
74030SOL    HW239701  12.386   8.271  11.361 -0.0634 -0.6637 -0.2692
74031SOL     OW39702   3.560  12.245   8.943 -0.0406  0.0526 -0.1061
74031SOL    HW139703   3.646  12.206   8.930  0.3781  1.0150 -0.2992
74031SOL    HW239704   3.540  12.287   8.859 -0.3999  0.4001  0.1471
74032SOL     OW39705   9.260  11.834   5.944 -0.2799  0.0153 -0.4433
74032SOL    HW139706   9.303  11.887   5.877  0.3737 -1.2883 -1.1029
74032SOL    HW239707   9.332  11.803   6.000 -0.4922 -1.0591 -0.7357
74033SOL     OW39708   9.546  10.465  13.178 -0.0131 -0.3113 -0.2242
74033SOL    HW139709   9.562  10.421  13.095  0.2863  0.1510 -0.4130
74033SOL    HW239710   9.578  10.404  13.244 -0.7331 -0.9111 -0.4127
74034SOL     OW39711   4.485   3.973   5.966  0.2620  0.3903  0.2322
74034SOL    HW139712   4.483   3.877   5.971  2.5244  0.2295 -0.6953
74034SOL    HW239713   4.393   3.999   5.957 -0.6509 -1.5119  2.7686
74035SOL     OW39714   0.097   2.868   1.208 -0.2866  0.0967  0.1311
74035SOL    HW139715   0.068   2.952   1.241 -0.7043 -0.2352  0.6161
74035SOL    HW239716   0.067   2.804   1.273  2.0216 -0.2102  0.9907
74036SOL     OW39717   4.790   3.338   2.024 -0.9506  0.4337 -0.3236
74036SOL    HW139718   4.753   3.426   2.029 -0.1069  0.7980 -0.3259
74036SOL    HW239719   4.760   3.295   2.103 -0.6434  1.0151  0.1150
74037SOL     OW39720   0.321   0.556   3.224  0.3209 -0.3636 -0.2422
74037SOL    HW139721   0.367   0.593   3.299 -0.2401  0.0374 -0.0890
74037SOL    HW239722   0.318   0.462   3.242  2.3289 -0.6087 -0.9448
74038SOL     OW39723   7.421   9.878   9.088 -0.5401 -0.3029 -0.4635
74038SOL    HW139724   7.452   9.803   9.037  1.4137 -0.8067  1.3274
74038SOL    HW239725   7.402   9.843   9.175  1.5136  1.3920  0.7748
74039SOL     OW39726   5.735   8.975  12.313 -0.0478  0.2287 -0.4561
74039SOL    HW139727   5.785   9.034  12.368  1.8140 -1.5558 -0.1265
74039SOL    HW239728   5.736   9.016  12.226  0.0461  1.3032  0.0409
74040SOL     OW39729   2.011   2.694  10.508 -0.1293 -0.2787 -0.2602
74040SOL    HW139730   2.049   2.777  10.533 -0.0725 -0.3033 -0.2639
74040SOL    HW239731   2.086   2.634  10.502 -0.2722 -0.5524  0.6210
74041SOL     OW39732  11.530   2.339  10.729 -0.0147 -0.1099  0.3627
74041SOL    HW139733  11.526   2.253  10.770  0.2019 -0.9672 -1.3246
74041SOL    HW239734  11.611   2.338  10.679  0.1396  1.2043  0.5392
74042SOL     OW39735   2.183  12.872   5.054 -0.0788 -0.0539  0.0122
74042SOL    HW139736   2.268  12.832   5.031  0.4726  2.2538 -2.6356
74042SOL    HW239737   2.119  12.805   5.033  1.0204 -1.4193  0.8605
74043SOL     OW39738   8.572   9.344   4.149 -0.3893 -0.7190  0.9865
74043SOL    HW139739   8.500   9.289   4.179 -0.5513 -1.3661 -0.4936
74043SOL    HW239740   8.579   9.326   4.055  1.0727  0.0538  0.9081
74044SOL     OW39741  13.913   8.201   2.772 -0.0932 -0.3454  0.0790
74044SOL    HW139742  13.886   8.172   2.859  1.3906 -0.1366  0.6340
74044SOL    HW239743  13.840   8.178   2.715 -1.1146 -0.4256  1.3869
74045SOL     OW39744   1.266   8.464  11.403  0.0321  0.5090  0.2980
74045SOL    HW139745   1.243   8.521  11.330  0.2298  0.8949  0.5324
74045SOL    HW239746   1.183   8.426  11.431  0.0510 -0.2993 -0.6543
74046SOL     OW39747   4.612   4.286  10.601  0.3024  0.2359 -0.2254
74046SOL    HW139748   4.517   4.292  10.604  0.3478  1.0906 -0.3464
74046SOL    HW239749   4.642   4.376  10.591  1.1803  0.1563  1.3065
74047SOL     OW39750  13.214  10.692   9.215 -0.3958 -0.3048  0.0591
74047SOL    HW139751  13.206  10.787   9.208 -2.7614 -0.4392  0.1749
74047SOL    HW239752  13.123  10.661   9.220  0.3252 -2.5775 -0.0757
74048SOL     OW39753  11.747   1.764   1.523 -0.0924  0.1338  0.6144
74048SOL    HW139754  11.782   1.688   1.569  0.0439 -0.3442 -0.2597
74048SOL    HW239755  11.684   1.803   1.584  0.2092 -0.3846  1.2622
74049SOL     OW39756   3.733   2.719  14.082 -0.3556  0.1702 -0.5698
74049SOL    HW139757   3.648   2.677  14.094  0.0828 -0.5468  0.1964
74049SOL    HW239758   3.731   2.793  14.143  0.5680 -1.4573  1.5639
74050SOL     OW39759  13.246   5.992   0.999  0.2122 -0.0103 -0.3039
74050SOL    HW139760  13.221   5.943   0.921 -2.6448  1.4861 -0.4693
74050SOL    HW239761  13.336   6.020   0.982  1.5237 -3.9150 -0.7360
74051SOL     OW39762  13.514   3.167   2.887  0.1896 -0.1050  0.0139
74051SOL    HW139763  13.584   3.136   2.830 -0.4812  1.3803 -1.7027
74051SOL    HW239764  13.499   3.257   2.860 -3.4898 -0.8025 -0.8794
74052SOL     OW39765  13.121   8.234   7.038 -0.0028  0.2289 -0.2923
74052SOL    HW139766  13.141   8.304   7.100  1.5830 -0.2264 -0.2579
74052SOL    HW239767  13.143   8.271   6.952 -1.4242  0.5787 -0.5252
74053SOL     OW39768   0.807   4.474   1.839  0.2286 -0.1008 -0.6890
74053SOL    HW139769   0.824   4.436   1.925 -1.0615 -1.7958 -1.1482
74053SOL    HW239770   0.736   4.537   1.854  0.4992  0.1431 -0.4087
74054SOL     OW39771  10.923   0.923   3.338 -0.1769  0.5092 -0.2727
74054SOL    HW139772  10.927   0.858   3.408 -0.0040  1.3756  0.5408
74054SOL    HW239773  10.912   1.006   3.383 -0.7721  1.0173 -1.3113
74055SOL     OW39774   1.161   2.655   4.547 -0.1117  0.3976  0.3858
74055SOL    HW139775   1.111   2.735   4.529  0.2233  0.6222  0.4303
74055SOL    HW239776   1.102   2.602   4.601  0.1753  1.2320  1.5727
74056SOL     OW39777   3.808  10.675   6.877 -0.6485  0.1002  0.4632
74056SOL    HW139778   3.773  10.763   6.866  0.3398  0.5542  0.8684
74056SOL    HW239779   3.828  10.669   6.970  0.3391 -0.1516  0.2417
74057SOL     OW39780   0.994  12.665   6.994  0.3086  0.2565 -0.0706
74057SOL    HW139781   0.994  12.760   6.994 -0.3719  0.2708 -0.7086
74057SOL    HW239782   1.027  12.640   7.080  0.6581  1.0638  0.0351
74058SOL     OW39783   2.221  13.535   6.719  0.2153  0.1501 -0.5686
74058SOL    HW139784   2.189  13.550   6.630  0.1677  0.1529 -0.5511
74058SOL    HW239785   2.246  13.622   6.750 -0.8223  0.3180 -0.1679
74059SOL     OW39786   6.679   3.352  10.578 -0.6208  0.0611 -0.1404
74059SOL    HW139787   6.719   3.396  10.503  1.6779  1.5534  1.7781
74059SOL    HW239788   6.706   3.260  10.569  1.9609  0.7047  0.1624
74060SOL     OW39789   9.107   1.107   7.500 -0.0637 -0.1770 -0.1534
74060SOL    HW139790   9.143   1.121   7.588  0.4315  0.1223 -0.4006
74060SOL    HW239791   9.133   1.017   7.478 -0.7243 -0.4800  0.2482
74061SOL     OW39792   0.349  12.761  10.333  0.5880 -0.7420  0.0379
74061SOL    HW139793   0.359  12.786  10.425  1.7547 -0.6991 -0.0869
74061SOL    HW239794   0.266  12.800  10.306 -0.5103 -1.9632  1.4566
74062SOL     OW39795   1.166   4.524   3.057 -0.4949 -0.2009 -0.0246
74062SOL    HW139796   1.157   4.562   2.969  0.9881 -0.5820 -0.3562
74062SOL    HW239797   1.252   4.553   3.087 -0.3375 -1.3478  0.6694
74063SOL     OW39798   1.993   8.473  11.281  0.5152 -0.2568 -0.4623
74063SOL    HW139799   1.902   8.488  11.255  0.3836 -1.8128 -1.0008
74063SOL    HW239800   1.988   8.405  11.349  0.9190  2.9976  3.1751
74064SOL     OW39801   9.471   6.884  12.585  0.2511 -0.0393 -0.1805
74064SOL    HW139802   9.494   6.968  12.626 -0.9141  0.5980 -0.7756
74064SOL    HW239803   9.555   6.850  12.553  1.3200 -0.8109  3.0474
74065SOL     OW39804   9.839   4.104   7.161  0.4742 -0.3578 -0.5969
74065SOL    HW139805   9.899   4.053   7.215  0.2990 -1.2303 -1.1994
74065SOL    HW239806   9.799   4.167   7.221  0.7385 -0.8972  0.1555
74066SOL     OW39807   4.886   4.168   2.157  0.5418 -0.3791  0.1417
74066SOL    HW139808   4.815   4.109   2.131  1.3188 -1.5909  0.6862
74066SOL    HW239809   4.947   4.166   2.084  0.2723  0.2392 -0.0998
74067SOL     OW39810   0.388   1.691  11.674  0.1756  0.4308  0.1715
74067SOL    HW139811   0.397   1.631  11.748  1.6435  0.7536  0.2942
74067SOL    HW239812   0.384   1.778  11.714  4.3745  0.9364 -0.1117
74068SOL     OW39813   0.197  10.989   5.008 -0.0222 -0.4175 -0.3251
74068SOL    HW139814   0.266  11.007   4.944  0.7041  0.4183  0.6585
74068SOL    HW239815   0.200  11.063   5.069 -0.9081 -1.0189  0.4840
74069SOL     OW39816   8.856   0.150  11.688 -0.0585 -0.1529  0.2493
74069SOL    HW139817   8.815   0.064  11.677 -0.0929 -0.1257  0.1675
74069SOL    HW239818   8.896   0.146  11.776  4.5305 -2.2067 -1.5882
74070SOL     OW39819   1.105   6.403   9.400  0.1774  0.2240  0.2400
74070SOL    HW139820   1.105   6.495   9.374 -0.0263  0.4214  0.9130
74070SOL    HW239821   1.017   6.388   9.434  0.3269 -0.1122  0.4874
74071SOL     OW39822   5.935  13.305   2.806 -0.6168  0.3822  0.1073
74071SOL    HW139823   5.992  13.352   2.746 -1.6187 -0.9698 -2.0601
74071SOL    HW239824   5.976  13.315   2.892  1.6762  1.2133 -1.0032
74072SOL     OW39825  13.660   2.965   8.745 -0.0033 -0.1412 -0.7609
74072SOL    HW139826  13.590   2.969   8.810  0.1917  0.9950 -0.6053
74072SOL    HW239827  13.720   3.035   8.769  1.5182 -1.4366 -0.5421
74073SOL     OW39828  13.997   8.981  14.030  0.1264  0.1251  0.0175
74073SOL    HW139829  13.942   9.037  13.975  1.2348  1.5044  0.2470
74073SOL    HW239830  14.056   9.042  14.075  0.4260 -1.1178  1.3953
74074SOL     OW39831  11.005   5.640   8.485  0.1657 -0.3800 -0.4073
74074SOL    HW139832  11.010   5.549   8.455 -1.6762 -0.9169  0.7438
74074SOL    HW239833  10.995   5.691   8.404  3.1572 -0.9309 -1.2364
74075SOL     OW39834  10.369   5.973   8.325  0.1746 -0.2398  0.4648
74075SOL    HW139835  10.337   5.978   8.234  0.5949  0.4886  0.3486
74075SOL    HW239836  10.369   6.064   8.355 -1.7082 -0.6259  1.8277
74076SOL     OW39837  10.022  12.137   1.135 -0.1322 -0.0893 -0.1341
74076SOL    HW139838   9.927  12.128   1.128 -0.0109 -1.8772  0.0950
74076SOL    HW239839  10.055  12.095   1.055  0.5151 -1.4797  0.8303
74077SOL     OW39840   0.270   4.263   7.000 -0.3367 -0.3260  0.0112
74077SOL    HW139841   0.335   4.206   7.040 -0.4775 -0.3349  0.2264
74077SOL    HW239842   0.322   4.335   6.962 -0.0951 -0.9713 -0.9129
74078SOL     OW39843   4.930   1.786   8.940  0.0596  0.4782 -0.7909
74078SOL    HW139844   4.930   1.763   9.033 -0.7481  1.2867 -0.5717
74078SOL    HW239845   5.004   1.846   8.930  0.2574  0.2496 -0.7111
74079SOL     OW39846   2.651  12.595   7.084  0.4761 -0.3498 -0.2190
74079SOL    HW139847   2.654  12.549   7.168 -0.6689  2.7223  1.6642
74079SOL    HW239848   2.561  12.583   7.053  1.1185 -2.2104 -1.5817
74080SOL     OW39849   9.126   9.925   5.302 -0.3801 -0.4919 -0.5568
74080SOL    HW139850   9.208   9.880   5.280  0.2540  0.5590 -0.3926
74080SOL    HW239851   9.153  10.004   5.347 -1.5332 -0.5671  0.3119
74081SOL     OW39852   3.730   5.620   4.373  0.1137  0.0707  0.9229
74081SOL    HW139853   3.686   5.540   4.400 -0.1540  0.0236  0.3797
74081SOL    HW239854   3.823   5.598   4.370 -0.0608 -0.6066 -0.4399
74082SOL     OW39855   7.301   6.711   3.819  0.1581 -0.2402 -0.1972
74082SOL    HW139856   7.378   6.712   3.763  0.6545 -1.7580  0.4106
74082SOL    HW239857   7.232   6.673   3.765  0.0618  0.2903 -0.4535
74083SOL     OW39858   9.253   3.256  11.054 -0.2362  0.0342 -1.0374
74083SOL    HW139859   9.304   3.308  10.993 -0.0101  1.0818  0.0054
74083SOL    HW239860   9.174   3.231  11.005 -0.0432  0.8205 -1.7655
74084SOL     OW39861  12.465   9.215  10.369  0.0843  0.1085  0.3616
74084SOL    HW139862  12.406   9.140  10.368  0.3593 -0.1122  0.4870
74084SOL    HW239863  12.525   9.198  10.442  0.8084 -0.0655 -0.2623
74085SOL     OW39864   9.946   0.903   0.952 -0.5644 -0.3701 -0.7170
74085SOL    HW139865  10.031   0.859   0.952 -0.6432 -0.5354  0.0780
74085SOL    HW239866   9.887   0.841   0.909 -0.6733 -1.0651  0.3938
74086SOL     OW39867   8.828   7.660   4.411  0.1467 -0.3781  0.3386
74086SOL    HW139868   8.867   7.573   4.402 -1.5186 -1.3534  1.8544
74086SOL    HW239869   8.756   7.648   4.473 -1.5360  1.6416 -1.0577
74087SOL     OW39870   3.065  14.069   0.073  0.1112  0.3998  0.0761
74087SOL    HW139871   3.003  14.099   0.139  0.3554  0.8458  0.1072
74087SOL    HW239872   3.122  14.008   0.120 -0.3184 -0.0377  0.0390
74088SOL     OW39873   0.184  12.122  12.635 -0.1580 -0.0351 -0.7448
74088SOL    HW139874   0.272  12.131  12.599  0.7884  0.1098  1.4030
74088SOL    HW239875   0.183  12.181  12.711 -1.9599 -0.3735 -0.4499
74089SOL     OW39876   9.144  13.741   3.129 -0.2361 -0.8389 -0.0329
74089SOL    HW139877   9.119  13.679   3.198  0.9404 -0.8556  0.3911
74089SOL    HW239878   9.239  13.747   3.135 -0.1374 -0.6523 -1.5047
74090SOL     OW39879   1.089   6.052   5.939  0.0735 -0.1062 -0.1333
74090SOL    HW139880   1.127   6.007   5.864  1.1839 -0.9532  0.9104
74090SOL    HW239881   1.128   6.140   5.936  0.8312 -0.4398 -0.0084
74091SOL     OW39882   5.127   0.169  12.029 -0.5997  0.5204 -0.2210
74091SOL    HW139883   5.032   0.157  12.024 -0.8199  1.6488  0.6998
74091SOL    HW239884   5.139   0.264  12.033  0.1205  0.5245  4.9455
74092SOL     OW39885   7.121  11.616  10.075  0.0562 -0.0262 -0.1534
74092SOL    HW139886   7.034  11.577  10.080  1.0376 -2.2784  0.3790
74092SOL    HW239887   7.146  11.608   9.983  0.1225 -0.3745 -0.1063
74093SOL     OW39888  12.099   8.432   0.242 -0.0257 -0.1377 -0.2993
74093SOL    HW139889  12.057   8.361   0.292 -0.7554  1.1644  1.0388
74093SOL    HW239890  12.161   8.470   0.304  1.0595 -0.1973 -1.3251
74094SOL     OW39891   5.469   5.571   0.818  0.0226 -0.1655  0.0568
74094SOL    HW139892   5.518   5.515   0.757 -0.5410 -0.1655 -0.4015
74094SOL    HW239893   5.458   5.654   0.772  0.2396  0.0893  0.4573
74095SOL     OW39894  12.022   1.477   5.494  0.2571  0.7511  0.2234
74095SOL    HW139895  12.028   1.484   5.589  0.9927  1.0636  0.1606
74095SOL    HW239896  11.990   1.563   5.466  0.0731  0.6697  0.1803
74096SOL     OW39897   3.621  11.230   6.755 -0.3638 -0.2731 -0.1883
74096SOL    HW139898   3.658  11.233   6.667  1.8899 -0.1175  0.7042
74096SOL    HW239899   3.557  11.301   6.756 -0.6991 -0.5117 -1.7895
74097SOL     OW39900  13.415  10.895   9.562 -0.6747 -0.0543 -0.6803
74097SOL    HW139901  13.415  10.816   9.508  0.7044  0.3468 -1.3505
74097SOL    HW239902  13.347  10.881   9.627 -1.3364 -1.2314 -1.5851
74098SOL     OW39903   8.418  10.376  12.554 -0.0014  0.5156  0.3393
74098SOL    HW139904   8.492  10.417  12.510 -1.4091  2.2735 -0.5546
74098SOL    HW239905   8.393  10.304  12.496  1.5168 -0.6438  1.0959
74099SOL     OW39906  10.956  10.267  10.124 -0.4538 -0.4490 -0.2453
74099SOL    HW139907  10.978  10.188  10.074  0.9325 -0.2066 -0.0657
74099SOL    HW239908  11.032  10.281  10.180 -0.6512  1.0661 -0.3340
74100SOL     OW39909   9.090   5.583  10.883  0.2080  0.3217 -0.1937
74100SOL    HW139910   9.062   5.650  10.820  2.6097  0.4515 -1.2488
74100SOL    HW239911   9.179   5.561  10.856  0.2922 -1.7195  1.4808
74101SOL     OW39912   3.696   0.989  13.127  0.4353 -0.1333 -0.0432
74101SOL    HW139913   3.630   0.998  13.195  0.3431 -2.2040  0.2187
74101SOL    HW239914   3.685   1.066  13.071 -1.6706 -0.0483  0.4236
74102SOL     OW39915   1.401   3.376  12.632 -0.2615  0.1468  0.3068
74102SOL    HW139916   1.361   3.298  12.671  0.8325 -0.4669  0.2184
74102SOL    HW239917   1.470   3.401  12.693  1.0438 -0.4452 -0.8758
74103SOL     OW39918  11.160   9.979  13.751 -0.4085 -0.6662  0.3589
74103SOL    HW139919  11.125   9.934  13.828  0.4342 -0.9474  0.5840
74103SOL    HW239920  11.239   9.931  13.728  0.9366  1.0775  1.0539
74104SOL     OW39921   9.669   9.657   3.367  0.6850  0.0892 -0.4380
74104SOL    HW139922   9.673   9.690   3.457  1.2801  1.0031 -0.7932
74104SOL    HW239923   9.616   9.577   3.374 -0.8170  1.1130  0.4481
74105SOL     OW39924   1.001   7.646   1.931 -0.6073  0.2692 -0.4215
74105SOL    HW139925   1.073   7.592   1.898 -1.2708 -0.3285 -0.9167
74105SOL    HW239926   0.969   7.693   1.854  0.6821  2.2761  0.1892
74106SOL     OW39927   3.479   9.934  13.669 -0.0158  0.0900  0.1177
74106SOL    HW139928   3.446  10.016  13.634 -1.1121 -0.0123  0.8641
74106SOL    HW239929   3.411   9.869  13.648  1.7354 -1.1270 -2.3197
74107SOL     OW39930   8.247  11.252   6.158  0.0493 -0.0986  0.4210
74107SOL    HW139931   8.293  11.230   6.239 -0.2648 -0.3497  0.5339
74107SOL    HW239932   8.315  11.255   6.091  0.1920 -0.7036  0.5403
74108SOL     OW39933  12.498   1.223   0.761 -0.7305  0.2297 -0.1547
74108SOL    HW139934  12.544   1.299   0.796 -0.5849  0.2922 -0.4794
74108SOL    HW239935  12.528   1.216   0.670  1.0958 -1.6016  0.4961
74109SOL     OW39936  13.446   7.200   2.702 -0.0603 -0.8059  1.0585
74109SOL    HW139937  13.470   7.292   2.711  2.2601 -1.3179  0.8350
74109SOL    HW239938  13.362   7.192   2.748  0.9159  0.9207  3.3562
74110SOL     OW39939   7.176   3.675  10.010 -0.0641  0.4797  0.3363
74110SOL    HW139940   7.176   3.764   9.975  0.5955  0.3994  0.1085
74110SOL    HW239941   7.251   3.633   9.967  0.4656  0.2256  1.4821
74111SOL     OW39942  10.740   0.434   7.592  0.0277  0.0501  0.2284
74111SOL    HW139943  10.737   0.386   7.509 -1.4166 -1.6966  1.2066
74111SOL    HW239944  10.648   0.444   7.617  0.4372  0.4919  1.6379
74112SOL     OW39945   6.305   3.912   1.501  0.0052  0.3204  0.3069
74112SOL    HW139946   6.400   3.918   1.487  0.3115 -1.2603  1.3814
74112SOL    HW239947   6.289   3.819   1.517 -1.8878  0.4192 -0.7559
74113SOL     OW39948   4.127   6.487  11.440 -0.1749  0.4087 -0.0823
74113SOL    HW139949   4.041   6.495  11.481  0.2672  1.5171  0.6702
74113SOL    HW239950   4.141   6.571  11.395  0.3812  0.1269 -0.4549
74114SOL     OW39951  13.557   6.861  10.689 -0.0761  0.0319 -0.1705
74114SOL    HW139952  13.480   6.807  10.708 -0.6854  0.6235 -0.9633
74114SOL    HW239953  13.536   6.906  10.608  1.7507 -1.0267 -1.3068
74115SOL     OW39954  11.550  13.000   6.869 -0.2028 -0.4516 -0.1097
74115SOL    HW139955  11.507  13.085   6.871 -2.0424 -1.3337  1.0799
74115SOL    HW239956  11.504  12.952   6.799 -0.6940 -1.1577  0.6733
74116SOL     OW39957  10.357   1.782   0.409 -0.9835 -0.0726 -0.1725
74116SOL    HW139958  10.318   1.861   0.447  0.5688  1.1435 -1.0016
74116SOL    HW239959  10.410   1.746   0.480 -0.3119  0.6381 -0.2903
74117SOL     OW39960   0.547  10.326   2.299 -0.4632 -0.1722  0.3823
74117SOL    HW139961   0.507  10.302   2.382 -2.3735  1.4918  0.0200
74117SOL    HW239962   0.621  10.382   2.323  0.4368 -1.5900  1.0006
74118SOL     OW39963   1.565   8.669   0.554  0.1472  0.3864  0.0466
74118SOL    HW139964   1.657   8.688   0.575 -0.1101  0.5703  1.0716
74118SOL    HW239965   1.569   8.600   0.488  1.0262  0.4310  0.0440
74119SOL     OW39966   1.867   0.821   7.383 -0.8262  0.0500  0.2030
74119SOL    HW139967   1.957   0.838   7.358 -0.8034  0.0050  0.2536
74119SOL    HW239968   1.837   0.902   7.424 -0.5956 -0.1604  0.7967
74120SOL     OW39969   2.921  12.112  10.132  0.3862  0.0821 -0.2585
74120SOL    HW139970   2.943  12.103  10.225 -1.5099 -0.6572  0.1747
74120SOL    HW239971   3.004  12.130  10.089  1.4088 -0.1959  1.5056
74121SOL     OW39972   6.618   6.784  13.065 -0.6145  0.0408 -0.3810
74121SOL    HW139973   6.688   6.720  13.075 -0.9368 -0.4629 -1.3106
74121SOL    HW239974   6.581   6.792  13.153 -0.2206 -0.6409 -0.1458
74122SOL     OW39975   9.474  10.847   8.166 -0.0482  0.4385 -0.5037
74122SOL    HW139976   9.569  10.853   8.168  0.1112 -1.1612 -1.6829
74122SOL    HW239977   9.446  10.920   8.110  0.8644 -1.6164 -3.9192
74123SOL     OW39978   9.190   8.852  12.586  0.2081  0.0837  0.2374
74123SOL    HW139979   9.272   8.801  12.586  1.3722  1.8661  0.3873
74123SOL    HW239980   9.145   8.826  12.666  0.6292 -0.9001  0.1719
74124SOL     OW39981  12.610   3.064   5.745 -0.0414 -0.2222  0.4124
74124SOL    HW139982  12.697   3.081   5.709  0.0263  1.3231  1.2189
74124SOL    HW239983  12.626   3.006   5.820  0.2159 -0.3995  0.2229
74125SOL     OW39984  13.450   5.812  11.405  0.3681  0.0363 -0.4880
74125SOL    HW139985  13.495   5.749  11.348 -0.4161 -0.9495 -0.0557
74125SOL    HW239986  13.497   5.806  11.488 -0.6061 -1.1004  0.0077
74126SOL     OW39987   0.868   8.393   5.492  0.1247  0.1817 -0.2264
74126SOL    HW139988   0.907   8.436   5.568 -0.6351 -0.5293  0.5879
74126SOL    HW239989   0.942   8.376   5.433  1.2172 -1.8323  1.6013
74127SOL     OW39990   5.341   9.832   1.667  0.2797  0.1016  0.0212
74127SOL    HW139991   5.355   9.917   1.709  0.5281  0.9640 -1.6964
74127SOL    HW239992   5.271   9.792   1.718 -0.1089  1.5097  0.6651
74128SOL     OW39993   0.191   5.523   2.949  0.4363  0.3307 -0.5739
74128SOL    HW139994   0.223   5.613   2.939 -0.3995  0.6477 -0.5065
74128SOL    HW239995   0.237   5.489   3.025  1.3485  0.4249 -1.0636
74129SOL     OW39996   6.088  11.517   4.382  0.1072 -0.2237 -0.2991
74129SOL    HW139997   6.084  11.435   4.333  1.1390 -0.4224 -0.0957
74129SOL    HW239998   5.997  11.544   4.393 -0.1767 -0.5574 -1.6660
74130SOL     OW39999   1.510  14.036   1.110 -1.0926 -0.2767  0.5747
74130SOL    HW140000   1.441  14.000   1.054  1.3438  0.6332 -3.4244
74130SOL    HW240001   1.557  13.959   1.143 -1.7609 -0.8585  0.2009
74131SOL     OW40002   0.220  10.313  14.002 -0.1664 -0.0738 -0.4546
74131SOL    HW140003   0.295  10.282  14.053 -1.2469 -1.7519  0.1934
74131SOL    HW240004   0.255  10.329  13.915  0.8186 -1.5011 -0.3459
74132SOL     OW40005   4.125  13.733   4.265  0.3574 -0.5101  0.9650
74132SOL    HW140006   4.081  13.697   4.341  0.7261 -1.1559  0.8803
74132SOL    HW240007   4.196  13.787   4.302 -1.0083  1.2672  1.1218
74133SOL     OW40008   2.630   2.480  13.099 -0.4696 -0.2436  0.1872
74133SOL    HW140009   2.588   2.438  13.174 -0.9229  0.0231  0.0888
74133SOL    HW240010   2.569   2.548  13.073 -1.7697 -2.2085 -2.2918
74134SOL     OW40011   8.002   1.300  10.609 -0.0868  0.1199 -0.2433
74134SOL    HW140012   7.980   1.376  10.663  0.2920  1.3285 -1.7394
74134SOL    HW240013   8.041   1.238  10.671 -1.3966  0.6710  1.2053
74135SOL     OW40014  11.874   8.172   4.862  0.1067 -0.3538  0.0915
74135SOL    HW140015  11.955   8.218   4.844  0.3718 -0.4641  0.9713
74135SOL    HW240016  11.805   8.238   4.848  0.3090 -0.3184 -0.8612
74136SOL     OW40017   1.792   7.148   0.334  0.2056 -0.0564 -0.2277
74136SOL    HW140018   1.745   7.140   0.251  1.3200 -1.4953 -0.7635
74136SOL    HW240019   1.740   7.211   0.385 -2.4827 -1.7448 -0.6564
74137SOL     OW40020   9.878  12.930   1.922  0.5149 -0.2785 -0.1924
74137SOL    HW140021   9.796  12.975   1.902  0.4153 -0.4262 -0.1180
74137SOL    HW240022   9.851  12.850   1.968  0.7091 -0.2481 -0.0270
74138SOL     OW40023   1.240   0.785   5.206 -0.4963  0.0272 -0.2638
74138SOL    HW140024   1.197   0.818   5.285  1.2777 -0.4950  0.9750
74138SOL    HW240025   1.279   0.863   5.166 -1.4717  0.3062 -0.6978
74139SOL     OW40026   9.808  12.303   0.092 -1.0266  0.0946 -0.2754
74139SOL    HW140027   9.856  12.384   0.075 -1.0708  0.2202  0.1708
74139SOL    HW240028   9.763  12.319   0.175  2.2335 -1.8216  2.1001
74140SOL     OW40029  11.958   3.562   7.052 -0.1396 -0.4363  0.1717
74140SOL    HW140030  11.918   3.642   7.017  1.1600 -0.1422 -0.7208
74140SOL    HW240031  11.893   3.528   7.113 -1.6930  0.0889 -1.0975
74141SOL     OW40032  10.961   1.504   9.965  0.2854  0.0894 -0.3671
74141SOL    HW140033  11.031   1.509  10.030 -0.6623  1.7844  0.6142
74141SOL    HW240034  11.005   1.518   9.881  1.4171 -1.3203 -0.0440
74142SOL     OW40035   7.807   2.339  10.876  0.5308 -0.1267  0.1339
74142SOL    HW140036   7.853   2.422  10.882 -0.5252  0.4932 -0.1762
74142SOL    HW240037   7.714   2.362  10.879  0.1562 -1.0892 -2.1684
74143SOL     OW40038   9.592   5.384   1.118  0.1292  0.3224 -0.2379
74143SOL    HW140039   9.586   5.472   1.156 -0.2361  0.7728 -1.3141
74143SOL    HW240040   9.661   5.341   1.169 -1.0051  0.5587  1.5813
74144SOL     OW40041   7.512   8.772   0.531 -0.5434  0.1887  0.3918
74144SOL    HW140042   7.575   8.733   0.592  0.3919  2.0597  0.7148
74144SOL    HW240043   7.429   8.770   0.578 -0.4878 -1.2023  0.4582
74145SOL     OW40044   5.962  10.872  12.332  0.1184  0.1973 -0.6692
74145SOL    HW140045   6.021  10.947  12.343  1.6367 -1.1595  1.0388
74145SOL    HW240046   5.887  10.893  12.388 -0.6700  1.4968 -2.1126
74146SOL     OW40047   4.167   0.757   1.248 -0.3641  0.1931  0.1528
74146SOL    HW140048   4.075   0.732   1.256  0.1503 -2.1091 -0.4044
74146SOL    HW240049   4.215   0.686   1.291  1.1790  1.1721  0.1386
74147SOL     OW40050   2.878  11.417  12.082  0.5843 -0.3187 -0.0654
74147SOL    HW140051   2.959  11.431  12.033 -0.4667  0.2878 -1.7178
74147SOL    HW240052   2.865  11.498  12.132 -0.3823  0.7330 -1.9411
74148SOL     OW40053   4.838   7.682   3.671 -0.1073  0.0029  0.4893
74148SOL    HW140054   4.859   7.723   3.755  0.7308  1.1725 -0.2540
74148SOL    HW240055   4.836   7.588   3.689  1.1090  0.1730  1.5998
74149SOL     OW40056   7.592   2.593   1.779 -0.6224 -0.4193  0.4101
74149SOL    HW140057   7.666   2.572   1.722 -1.5227 -0.6194 -0.7265
74149SOL    HW240058   7.632   2.629   1.858  0.6647  0.5186 -0.6167
74150SOL     OW40059   3.968  12.018   8.705  0.2955 -0.5721 -0.4429
74150SOL    HW140060   4.021  12.095   8.687 -1.0260  0.7519  1.0206
74150SOL    HW240061   3.937  11.990   8.619  0.0828  1.0686 -0.9352
74151SOL     OW40062  11.267   5.161  10.847 -0.3480 -0.3864  0.8429
74151SOL    HW140063  11.351   5.122  10.870 -0.9708 -1.5497  1.2360
74151SOL    HW240064  11.278   5.255  10.865  1.3087 -0.2721 -0.4669
74152SOL     OW40065  11.500   0.662   8.719  0.1455  0.2440 -0.5579
74152SOL    HW140066  11.461   0.644   8.633 -1.5521 -2.6078  0.6654
74152SOL    HW240067  11.560   0.589   8.734 -1.1582 -0.4879  1.4880
74153SOL     OW40068  11.319   8.446  12.273  0.2249  0.3918  0.1060
74153SOL    HW140069  11.343   8.506  12.202  1.9966 -0.4393 -0.0670
74153SOL    HW240070  11.370   8.367  12.254 -1.0068 -0.6659  1.0801
74154SOL     OW40071  11.667  13.648   0.516 -0.4970  0.1565 -0.7259
74154SOL    HW140072  11.749  13.598   0.519  1.3459  2.9816 -0.8977
74154SOL    HW240073  11.656  13.671   0.423 -1.7083 -0.4502 -0.7584
74155SOL     OW40074  13.296   5.147  11.961 -0.6579 -0.2849  0.5573
74155SOL    HW140075  13.338   5.178  12.041 -1.0789  1.1250  0.2527
74155SOL    HW240076  13.327   5.057  11.951  0.7641  0.0848  1.3779
74156SOL     OW40077   0.728   6.769   7.529  0.1918 -0.3296 -0.3874
74156SOL    HW140078   0.762   6.830   7.464 -3.5398  2.6626  0.0696
74156SOL    HW240079   0.712   6.688   7.481  1.3385  0.4255 -2.1328
74157SOL     OW40080   3.357  13.509   4.448  0.1535  0.0733  0.1110
74157SOL    HW140081   3.271  13.526   4.410  0.4238 -1.3097 -1.2454
74157SOL    HW240082   3.382  13.591   4.489 -1.4502  0.7507 -0.1797
74158SOL     OW40083   3.329   7.326  12.342  0.0979  0.3987 -0.5007
74158SOL    HW140084   3.345   7.419  12.332  1.3555  0.1298 -1.2416
74158SOL    HW240085   3.335   7.310  12.436  0.4461  0.9772 -0.4212
74159SOL     OW40086  13.047   1.506   4.832 -0.2591  0.0838  0.3740
74159SOL    HW140087  12.983   1.486   4.764 -0.0322 -1.5637  0.5922
74159SOL    HW240088  13.067   1.599   4.820 -2.2048  0.4828 -0.0821
74160SOL     OW40089   2.018  11.921   5.479 -0.4425 -0.3766  0.1891
74160SOL    HW140090   2.049  11.919   5.569  0.2083 -0.2492 -0.0270
74160SOL    HW240091   1.991  12.012   5.464 -1.0639 -0.5192  0.4208
74161SOL     OW40092   8.619   6.965   9.841 -0.6546  0.6804  0.2025
74161SOL    HW140093   8.566   6.955   9.762  0.1102  1.3441 -0.4154
74161SOL    HW240094   8.642   6.876   9.866 -0.0116  0.4978 -0.9548
74162SOL     OW40095   2.430  12.806   9.791  0.3623  0.1247  0.0242
74162SOL    HW140096   2.491  12.792   9.864 -1.4497 -0.4428  1.5061
74162SOL    HW240097   2.487  12.827   9.717  2.3357 -0.0446  1.3907
74163SOL     OW40098   3.103   4.319   9.028  0.1974 -0.3866 -0.3075
74163SOL    HW140099   3.146   4.308   9.113  0.0165 -2.0201 -0.3870
74163SOL    HW240100   3.013   4.343   9.050 -0.3468 -2.5347  0.0829
74164SOL     OW40101  13.301   9.354  11.270 -0.5392 -0.3958  0.1987
74164SOL    HW140102  13.274   9.423  11.209 -1.1537 -0.2625  0.6236
74164SOL    HW240103  13.226   9.296  11.276 -0.9194  0.2222  1.7409
74165SOL     OW40104   9.665  11.194  13.543  0.5133  0.5023 -0.0168
74165SOL    HW140105   9.733  11.127  13.553 -0.5255 -0.8135 -1.3640
74165SOL    HW240106   9.594  11.165  13.600 -0.5916 -0.4944 -1.8184
74166SOL     OW40107  11.426   9.863  11.334  0.0141 -0.2474 -0.3124
74166SOL    HW140108  11.477   9.783  11.345 -0.6363 -0.8747 -1.7026
74166SOL    HW240109  11.336   9.837  11.351 -0.2695  0.0444 -1.2877
74167SOL     OW40110   4.786  12.162   8.922  0.8228 -0.3698  0.0036
74167SOL    HW140111   4.825  12.203   8.999  0.8150 -1.5723  0.6695
74167SOL    HW240112   4.856  12.160   8.858  1.3365 -0.8521  0.5623
74168SOL     OW40113   5.756  10.414   0.978 -0.8736 -0.1501 -0.1906
74168SOL    HW140114   5.714  10.368   0.905 -0.7650 -0.9021  0.2094
74168SOL    HW240115   5.695  10.404   1.051  0.3481 -2.0438  0.6553
74169SOL     OW40116   6.444   1.445   9.219  0.2534 -0.3427 -0.3571
74169SOL    HW140117   6.364   1.436   9.270 -0.6017  2.9383 -0.9144
74169SOL    HW240118   6.514   1.448   9.284 -0.2185 -1.4522  0.2305
74170SOL     OW40119   1.967   2.342   2.418  0.2250  0.7890  0.1290
74170SOL    HW140120   1.977   2.385   2.503 -0.8291 -2.0895  1.8468
74170SOL    HW240121   1.894   2.282   2.430  0.1945  0.0959 -2.7923
74171SOL     OW40122  12.106  11.064  13.098  0.6016 -0.2566  0.3149
74171SOL    HW140123  12.051  10.986  13.089  0.1456  0.0944  0.0765
74171SOL    HW240124  12.165  11.061  13.023  0.6951 -0.4587  0.3953
74172SOL     OW40125  10.697   3.055   5.143 -0.0431  0.0120  0.0220
74172SOL    HW140126  10.621   3.061   5.084 -0.9085  2.0820  1.2230
74172SOL    HW240127  10.681   2.978   5.196 -1.2114  0.2993  0.1096
74173SOL     OW40128   9.335   0.479   7.331  0.0049 -0.2951 -0.2377
74173SOL    HW140129   9.377   0.402   7.293  0.3500  0.8024 -2.2461
74173SOL    HW240130   9.407   0.532   7.364 -0.0958 -0.1293 -0.2818
74174SOL     OW40131   6.192   3.723  12.584  0.2668 -1.3151 -0.6221
74174SOL    HW140132   6.100   3.743  12.597  0.2150 -1.1910 -1.1401
74174SOL    HW240133   6.225   3.796  12.530  0.4976 -1.7205 -1.0335
74175SOL     OW40134  12.202   5.231  12.190  0.6260 -0.2813 -0.1507
74175SOL    HW140135  12.286   5.210  12.150  0.9847 -0.1597  0.5289
74175SOL    HW240136  12.209   5.324  12.213 -0.0374 -0.0299 -0.9129
74176SOL     OW40137  13.037   0.906   1.769  0.0274 -0.5257  0.7330
74176SOL    HW140138  12.983   0.926   1.693  0.9754 -1.8369 -0.3375
74176SOL    HW240139  13.085   0.987   1.786  0.2521 -0.3814 -0.4612
74177SOL     OW40140   0.912   9.046   6.803 -0.6443 -0.0574  0.2529
74177SOL    HW140141   0.892   8.954   6.786 -0.2826 -0.2989  1.0888
74177SOL    HW240142   1.001   9.045   6.838  0.6262  0.9014 -2.6159
74178SOL     OW40143  13.408   3.717  10.815 -0.0311 -0.2306 -0.1217
74178SOL    HW140144  13.435   3.764  10.894 -1.3121 -0.9002  0.7508
74178SOL    HW240145  13.409   3.783  10.746 -1.0717  0.9221  0.9193
74179SOL     OW40146   1.615   6.093   8.503  0.5012  0.3751 -0.2112
74179SOL    HW140147   1.568   6.012   8.525  1.8293 -0.4776 -0.3415
74179SOL    HW240148   1.695   6.089   8.556  1.8014  0.3104 -2.0546
74180SOL     OW40149   1.654   2.281   6.935 -0.6039  0.5236 -0.1736
74180SOL    HW140150   1.716   2.209   6.936 -1.2150 -0.0224 -0.7545
74180SOL    HW240151   1.625   2.287   6.844 -0.3392  1.7031 -0.2016
74181SOL     OW40152  10.754  11.226   2.094  0.4856 -0.0314  0.2425
74181SOL    HW140153  10.844  11.200   2.074  1.0008  0.8694  1.2404
74181SOL    HW240154  10.735  11.183   2.178  0.1614  0.1884  0.2848
74182SOL     OW40155   7.238   0.396   3.844  0.4398 -0.4574 -0.0751
74182SOL    HW140156   7.330   0.385   3.868  0.3973 -0.0724  0.2743
74182SOL    HW240157   7.227   0.341   3.767  1.1297  0.0020 -0.5199
74183SOL     OW40158  13.603   7.004   5.301  0.2990  0.2763 -0.0713
74183SOL    HW140159  13.666   6.941   5.334  1.0691  1.7052  1.3574
74183SOL    HW240160  13.530   7.000   5.362 -0.5969 -0.6765 -1.1634
74184SOL     OW40161  13.309   0.442  10.767  0.1196  0.5046 -0.3335
74184SOL    HW140162  13.273   0.353  10.764  1.0642  0.1374 -2.2160
74184SOL    HW240163  13.318   0.461  10.860  0.0031 -1.4265  0.1087
74185SOL     OW40164   7.625   1.576  10.010  0.6783  0.5862 -0.3192
74185SOL    HW140165   7.641   1.489  10.046  0.1110  0.0061 -1.4171
74185SOL    HW240166   7.706   1.597   9.962  0.3272  0.0736 -1.1629
74186SOL     OW40167   0.235  13.950   6.910 -0.7686  0.1750  0.1599
74186SOL    HW140168   0.268  14.001   6.984 -1.0596 -0.0408  0.4400
74186SOL    HW240169   0.313  13.932   6.857 -0.0954 -1.8323  1.7047
74187SOL     OW40170   4.689   5.695   0.007 -0.6189 -0.4982 -0.1910
74187SOL    HW140171   4.608   5.648  -0.012 -1.1166  0.3284 -0.1393
74187SOL    HW240172   4.668   5.751   0.081  0.0219 -0.3332 -0.1290
74188SOL     OW40173   0.959  12.636   4.694 -0.5951  0.2804  0.0457
74188SOL    HW140174   0.948  12.702   4.625 -0.5263 -0.3433 -0.5722
74188SOL    HW240175   0.930  12.554   4.653  0.7246 -0.3349  0.3117
74189SOL     OW40176   3.033   5.841   0.001 -0.6268 -0.1632  0.2331
74189SOL    HW140177   3.091   5.895  -0.052 -1.1122  1.2302  1.0683
74189SOL    HW240178   3.079   5.830   0.084  0.6643 -3.3102 -0.7329
74190SOL     OW40179   2.142   4.668  11.443 -0.3653 -0.0541 -0.1841
74190SOL    HW140180   2.054   4.646  11.413 -1.1744  0.6843  1.5161
74190SOL    HW240181   2.143   4.643  11.536  0.9043  0.7793  0.0554
74191SOL     OW40182   9.608  10.873   0.485 -0.0853 -0.5503  0.2940
74191SOL    HW140183   9.702  10.861   0.470 -0.0023  0.6490 -0.2902
74191SOL    HW240184   9.586  10.951   0.434 -1.6324 -1.4506 -0.4750
74192SOL     OW40185  10.805   5.318   1.667 -0.6473  0.3895 -0.5995
74192SOL    HW140186  10.900   5.327   1.661 -0.5601 -0.3015 -0.3140
74192SOL    HW240187  10.775   5.404   1.696 -0.1001  0.5726 -0.5594
74193SOL     OW40188   0.146  13.523  13.468  0.4148  0.0596  0.3304
74193SOL    HW140189   0.058  13.532  13.432 -0.0112  0.5669  1.4279
74193SOL    HW240190   0.165  13.609  13.506  0.1295 -0.8509  2.7572
74194SOL     OW40191  11.287   6.378   5.597 -0.3941  0.1038 -0.1741
74194SOL    HW140192  11.285   6.359   5.691  0.4082  2.4112  0.3889
74194SOL    HW240193  11.242   6.304   5.556  0.2700 -1.5541  1.9018
74195SOL     OW40194  10.140  13.266   8.482  0.1656  0.1514 -0.1310
74195SOL    HW140195  10.086  13.219   8.419 -0.6060 -0.6926  1.1209
74195SOL    HW240196  10.098  13.251   8.567  1.9900  0.0321  0.8093
74196SOL     OW40197   5.124   7.403  12.683  0.1009 -0.1681  0.4416
74196SOL    HW140198   5.144   7.309  12.690  1.3362  0.1128  0.8779
74196SOL    HW240199   5.067   7.409  12.606 -0.8441 -1.3930  0.9980
74197SOL     OW40200   3.603   6.754   5.591  0.1066 -0.3918 -0.5491
74197SOL    HW140201   3.608   6.846   5.615  0.9995 -0.0047 -2.0985
74197SOL    HW240202   3.550   6.714   5.661  0.4496  1.1005  0.6231
74198SOL     OW40203  13.013  14.075   3.212 -0.2017 -0.1619 -0.0002
74198SOL    HW140204  12.965  14.135   3.270  2.7909  2.0740  0.3791
74198SOL    HW240205  12.951  14.058   3.141 -1.9663  1.6455  0.9806
74199SOL     OW40206   3.556   1.088  12.037 -0.1288  0.3469  0.4205
74199SOL    HW140207   3.639   1.098  11.991 -0.3916  0.3312 -0.0652
74199SOL    HW240208   3.513   1.015  11.992 -0.9834  1.2229 -0.2149
74200SOL     OW40209  12.487  10.451   4.502  0.2672 -0.0265 -0.0810
74200SOL    HW140210  12.517  10.459   4.593  0.8881  0.4257 -0.3124
74200SOL    HW240211  12.513  10.363   4.476  0.4073 -0.0340  0.0786
74201SOL     OW40212   0.407  13.615   7.926 -0.0100 -0.2529  0.0661
74201SOL    HW140213   0.332  13.639   7.981 -0.2330  0.0775 -0.3778
74201SOL    HW240214   0.428  13.695   7.878 -0.4924 -0.8200 -1.1229
74202SOL     OW40215   0.378   1.609   3.808  1.1745 -0.7081  0.7672
74202SOL    HW140216   0.363   1.588   3.716  0.1049  0.6647  0.6009
74202SOL    HW240217   0.395   1.703   3.809 -1.9953 -0.0291  2.2694
74203SOL     OW40218   0.225  10.166  12.372  0.2491 -0.3374  0.1049
74203SOL    HW140219   0.245  10.229  12.441 -1.7724  1.9962 -1.2726
74203SOL    HW240220   0.129  10.168  12.365  0.3359 -1.3001 -2.0225
74204SOL     OW40221  10.010   7.987  12.867 -0.4400  0.1013 -0.3303
74204SOL    HW140222   9.918   7.972  12.848 -1.1234 -0.3086  2.8120
74204SOL    HW240223  10.047   7.899  12.880 -0.7980  0.2854  2.8558
74205SOL     OW40224   2.072  13.835  11.350  0.5454  0.2863 -0.1033
74205SOL    HW140225   2.141  13.781  11.312  1.5298  0.9428  0.6932
74205SOL    HW240226   2.030  13.877  11.275  0.0487 -1.2244 -0.7005
74206SOL     OW40227   7.919   2.572  10.528  0.2139  0.1647 -0.1621
74206SOL    HW140228   7.889   2.486  10.501 -0.3944  0.7529 -1.4416
74206SOL    HW240229   7.962   2.608  10.450 -0.2021  1.3118  0.1194
74207SOL     OW40230   0.621   1.976  12.596  0.3748  0.6230  0.1891
74207SOL    HW140231   0.583   1.955  12.511 -1.5550  1.8592  0.6835
74207SOL    HW240232   0.599   1.901  12.651 -1.5000  1.3380  0.4795
74208SOL     OW40233   2.484  11.967   0.711  0.0397  0.1234 -0.4568
74208SOL    HW140234   2.567  11.981   0.665  0.4008 -0.6703 -0.0814
74208SOL    HW240235   2.459  12.054   0.743  1.2822  0.2233  0.3306
74209SOL     OW40236   4.196   0.678   5.418 -0.1639 -0.3991  0.4127
74209SOL    HW140237   4.198   0.582   5.418 -0.1961 -0.4010 -0.3089
74209SOL    HW240238   4.215   0.702   5.509 -0.7036 -1.1002  0.7253
74210SOL     OW40239  10.372  13.038   7.224 -0.0197 -0.3522  0.0224
74210SOL    HW140240  10.358  12.959   7.172  0.3321 -1.0748  1.0012
74210SOL    HW240241  10.467  13.041   7.239 -0.1621 -0.3999  0.9936
74211SOL     OW40242   4.763   2.716  13.138 -0.3661 -0.1438 -0.3874
74211SOL    HW140243   4.746   2.700  13.045 -1.2381 -0.9377 -0.1124
74211SOL    HW240244   4.838   2.661  13.158 -0.3858 -0.2324 -0.5535
74212SOL     OW40245   2.931   6.437  12.127  0.2390 -0.1273  0.6685
74212SOL    HW140246   2.887   6.360  12.091 -1.4707  0.4425  1.4342
74212SOL    HW240247   2.978   6.474  12.053 -0.7210 -0.6719 -0.2409
74213SOL     OW40248   6.733   5.755   0.913  0.2126  0.3880 -0.5973
74213SOL    HW140249   6.637   5.759   0.920  0.1181 -0.6680 -1.1121
74213SOL    HW240250   6.753   5.661   0.913  1.3291  0.6017  0.4309
74214SOL     OW40251  11.942  12.100   4.200 -0.0248  0.3852 -0.0863
74214SOL    HW140252  11.925  12.080   4.292 -1.8319  0.5495 -0.3379
74214SOL    HW240253  12.035  12.082   4.188  0.3506  0.7991  1.8759
74215SOL     OW40254   8.803   7.310   3.902  0.0817 -0.3259 -0.0016
74215SOL    HW140255   8.877   7.330   3.959  0.6806 -1.7720 -0.2307
74215SOL    HW240256   8.734   7.280   3.961 -0.6649  1.8371  0.2992
74216SOL     OW40257   0.035   2.718   6.627  0.0770  0.4856  0.5544
74216SOL    HW140258   0.130   2.711   6.627 -0.0096 -1.1390  1.4070
74216SOL    HW240259   0.004   2.629   6.607 -1.2614  0.9504  0.4308
74217SOL     OW40260  13.286   2.943  13.723 -0.1747  0.1922 -0.1683
74217SOL    HW140261  13.205   2.963  13.678 -0.4355  1.2591  0.7352
74217SOL    HW240262  13.354   2.956  13.657 -0.6712  0.0053 -0.7248
74218SOL     OW40263   9.552   2.530  12.105  0.3292  0.9752  0.3997
74218SOL    HW140264   9.648   2.523  12.099  0.3473  0.9269  0.7277
74218SOL    HW240265   9.521   2.491  12.024  0.5823  0.8119  0.3775
74219SOL     OW40266  10.060  10.603  12.282  0.0676  0.1041  0.3590
74219SOL    HW140267  10.004  10.527  12.266  0.4446 -0.0515 -0.2486
74219SOL    HW240268  10.098  10.587  12.369  2.5111 -1.9367 -0.9578
74220SOL     OW40269   9.023   3.740   0.282  0.7598 -0.2812  0.3920
74220SOL    HW140270   9.028   3.712   0.191  0.5112  0.3364  0.1808
74220SOL    HW240271   8.972   3.821   0.279  2.2591  0.7136  0.8732
74221SOL     OW40272   1.898   9.998   4.173 -0.3571  0.3247  0.1312
74221SOL    HW140273   1.848   9.928   4.130 -1.5125  0.4683  1.1621
74221SOL    HW240274   1.984   9.996   4.131 -1.1254 -0.1402 -1.5087
74222SOL     OW40275  13.805   6.584  13.922 -0.1612 -0.3544 -0.0278
74222SOL    HW140276  13.761   6.667  13.939 -0.6182 -0.3630 -1.1158
74222SOL    HW240277  13.863   6.572  13.998 -0.4013  0.7372  0.3481
74223SOL     OW40278   5.354   9.574  13.780  0.4350  0.1803 -0.5563
74223SOL    HW140279   5.297   9.540  13.711  0.0825  0.6433 -0.4994
74223SOL    HW240280   5.442   9.545  13.755  0.1753 -0.5660 -0.6317
74224SOL     OW40281   4.237   5.316  10.868 -0.1250  0.1267 -0.5886
74224SOL    HW140282   4.207   5.299  10.779  1.3954 -0.3261 -1.0404
74224SOL    HW240283   4.320   5.361  10.857 -0.6149  1.3903  0.6208
74225SOL     OW40284  13.815  12.288   8.555 -0.4393  0.6336  0.2312
74225SOL    HW140285  13.905  12.255   8.547 -0.7509 -0.1228 -0.2042
74225SOL    HW240286  13.804  12.305   8.649 -1.3401 -3.6626  1.1071
74226SOL     OW40287   9.599  10.219   9.916  0.0262  0.1711 -0.4683
74226SOL    HW140288   9.663  10.277   9.957 -0.8483  0.8879 -0.0832
74226SOL    HW240289   9.514  10.251   9.946 -0.4934 -1.3600 -0.1975
74227SOL     OW40290  10.252   4.040  12.656  0.2056 -0.1784 -0.4576
74227SOL    HW140291  10.217   3.970  12.710 -2.6280  0.8817 -0.7430
74227SOL    HW240292  10.197   4.041  12.577  1.4778  1.0547 -1.4037
74228SOL     OW40293   6.554  11.087   1.722 -0.0038  0.0369  0.2645
74228SOL    HW140294   6.607  11.087   1.801 -0.2265  0.8659  0.4325
74228SOL    HW240295   6.490  11.018   1.735 -0.5686  0.7140  1.1959
74229SOL     OW40296   7.601   8.471   0.810  0.0681 -0.4858 -0.6183
74229SOL    HW140297   7.607   8.561   0.779 -0.0260 -0.3302 -0.1991
74229SOL    HW240298   7.648   8.419   0.745  1.1020  0.0031 -0.2827
74230SOL     OW40299   7.309   2.036   8.549 -0.2977 -0.1837  0.0359
74230SOL    HW140300   7.221   2.073   8.547 -1.2544 -2.3947 -0.7082
74230SOL    HW240301   7.336   2.033   8.458 -0.9193 -2.7260 -0.1324
74231SOL     OW40302   1.224   7.693  11.937 -0.2979  0.5233 -0.1349
74231SOL    HW140303   1.172   7.749  11.995  0.7896  0.6768  0.7165
74231SOL    HW240304   1.182   7.608  11.941  0.6212  0.1090  2.1245
74232SOL     OW40305  11.452   0.475   2.259 -0.7818  0.1516  0.2497
74232SOL    HW140306  11.517   0.506   2.322 -2.0547  0.6186  1.3706
74232SOL    HW240307  11.436   0.384   2.283 -2.6379  0.8422  1.8652
74233SOL     OW40308   7.966   4.343  12.174  0.2709 -0.1591  0.0005
74233SOL    HW140309   7.939   4.253  12.154 -0.3984  0.3712 -1.7373
74233SOL    HW240310   8.046   4.356  12.124 -0.3719  0.6167 -0.8556
74234SOL     OW40311  12.641   7.045  14.080 -0.0920 -0.1484  0.0940
74234SOL    HW140312  12.725   7.062  14.038 -0.4160 -0.3383 -0.6323
74234SOL    HW240313  12.636   7.109  14.151 -0.5804  1.7464 -1.5733
74235SOL     OW40314   9.518   0.894   6.322 -0.6303 -0.0981  0.4036
74235SOL    HW140315   9.560   0.906   6.407 -1.1283 -0.9503  0.7778
74235SOL    HW240316   9.428   0.924   6.335 -0.4278  0.7874 -0.1302
74236SOL     OW40317   3.256   3.265   2.146 -0.2821 -0.5888  0.0152
74236SOL    HW140318   3.192   3.197   2.167  0.6265 -1.5222 -0.2167
74236SOL    HW240319   3.279   3.250   2.055  1.1568 -1.0125  0.4209
74237SOL     OW40320   4.811   6.630   2.731  0.6295  0.3172 -0.4731
74237SOL    HW140321   4.820   6.687   2.808 -0.1173  1.8900 -1.4962
74237SOL    HW240322   4.718   6.607   2.729  0.9394 -1.0565 -0.0237
74238SOL     OW40323   2.023   4.368   4.598  0.0702  0.4771  0.3296
74238SOL    HW140324   2.043   4.292   4.652  0.9989 -0.3123 -1.0813
74238SOL    HW240325   1.988   4.333   4.517  0.9823  1.5162 -0.5469
74239SOL     OW40326   8.967  13.967  11.095 -0.1364  0.4240 -0.0184
74239SOL    HW140327   9.014  14.045  11.125 -0.4259  0.3697  0.5999
74239SOL    HW240328   8.965  13.975  11.000 -1.9040  2.2069  0.1016
74240SOL     OW40329  11.751   9.061   6.808  0.0430  0.0663 -0.7227
74240SOL    HW140330  11.717   8.972   6.820  0.3728 -0.0038 -0.2785
74240SOL    HW240331  11.829   9.064   6.863  1.3466 -0.1013 -2.4861
74241SOL     OW40332   3.671   6.827   1.393  0.2650 -0.3145  0.1452
74241SOL    HW140333   3.661   6.856   1.302 -0.9332 -0.1504  0.3025
74241SOL    HW240334   3.757   6.786   1.397  1.1883  1.4545 -0.5742
74242SOL     OW40335  11.246   3.354  13.553  0.3787 -0.2628 -0.2667
74242SOL    HW140336  11.213   3.393  13.472 -1.6814 -2.9841 -0.8991
74242SOL    HW240337  11.334   3.324  13.531  0.0975 -0.3814 -1.2920
74243SOL     OW40338   4.266   1.871   3.383 -0.1911 -1.2285  0.5381
74243SOL    HW140339   4.263   1.965   3.404  2.0932 -1.1340  0.7133
74243SOL    HW240340   4.178   1.851   3.350 -0.5422  1.1212 -0.1397
74244SOL     OW40341  13.248   7.187   1.288  0.1154 -0.6275  0.3442
74244SOL    HW140342  13.207   7.229   1.212  1.7159  0.8291  0.2387
74244SOL    HW240343  13.312   7.126   1.249  2.1928  1.3783  0.4333
74245SOL     OW40344  13.274   2.655  10.804  0.4749  0.0275  0.5013
74245SOL    HW140345  13.185   2.655  10.768  0.7130  2.3276 -0.2642
74245SOL    HW240346  13.313   2.574  10.773 -1.2591 -0.9053  0.6311
74246SOL     OW40347   2.807  13.571   2.626  0.8106  0.2616 -0.3287
74246SOL    HW140348   2.741  13.558   2.558  0.4598 -0.5537  0.1554
74246SOL    HW240349   2.756  13.600   2.702  1.2297  1.4481 -0.4760
74247SOL     OW40350  12.393  12.941   2.862 -0.7376 -0.1530 -0.0224
74247SOL    HW140351  12.464  12.992   2.823 -1.3711  0.0968 -0.8767
74247SOL    HW240352  12.335  12.922   2.789 -2.8050  1.6703  1.0393
74248SOL     OW40353   5.493   4.350   5.399 -0.2396 -0.2846 -0.7453
74248SOL    HW140354   5.498   4.445   5.399 -0.6447 -0.2484  0.6242
74248SOL    HW240355   5.561   4.322   5.461 -1.3052 -0.7921  0.2273
74249SOL     OW40356   0.671   1.392  13.070  0.2562 -0.0097 -0.5064
74249SOL    HW140357   0.593   1.444  13.089 -0.8317 -2.7434  4.1597
74249SOL    HW240358   0.648   1.303  13.095  3.6112 -1.8586 -3.1280
74250SOL     OW40359   8.793   6.209   8.912  0.0652  0.2611  0.6581
74250SOL    HW140360   8.706   6.170   8.921  0.4906 -1.4150 -1.4938
74250SOL    HW240361   8.824   6.222   9.002 -2.2074  0.4791  1.4540
74251SOL     OW40362   0.456   4.380   5.811  0.0475  0.6510 -0.6257
74251SOL    HW140363   0.458   4.391   5.906 -0.9126 -1.1984 -0.3495
74251SOL    HW240364   0.548   4.368   5.786  1.1114  6.4203 -0.7819
74252SOL     OW40365   2.424   6.256   0.242  0.3984 -0.2073  0.0312
74252SOL    HW140366   2.343   6.222   0.281 -0.3985  0.0539 -1.3220
74252SOL    HW240367   2.481   6.274   0.317 -0.6644 -0.7139  0.9980
74253SOL     OW40368   2.140   8.533   1.802  0.4029  0.0844 -0.2586
74253SOL    HW140369   2.148   8.616   1.755  1.5267  1.0532  1.4935
74253SOL    HW240370   2.047   8.524   1.820  0.3015  1.1209 -0.2235
74254SOL     OW40371   8.054  12.710   3.960 -0.5999 -0.1536 -0.2152
74254SOL    HW140372   8.130  12.761   3.986 -0.5298  0.2329 -1.1673
74254SOL    HW240373   8.054  12.635   4.021  0.6437 -0.2597 -0.3166
74255SOL     OW40374  10.122   2.483   1.988  0.3821 -0.6844 -0.3021
74255SOL    HW140375  10.035   2.457   1.957  0.8271 -0.6235 -1.6695
74255SOL    HW240376  10.173   2.494   1.908  1.5271 -0.2736  0.4694
74256SOL     OW40377   4.618  11.418   5.400  0.6385  0.4128 -0.2383
74256SOL    HW140378   4.574  11.343   5.439  1.6280 -0.2366 -0.3190
74256SOL    HW240379   4.658  11.464   5.475  0.1045  0.8151 -0.1973
74257SOL     OW40380  11.525  10.591   0.308  0.2428  0.1089  0.4300
74257SOL    HW140381  11.438  10.582   0.349  0.6795 -0.5104  1.2604
74257SOL    HW240382  11.508  10.631   0.223 -0.7659  0.8708  0.9715
74258SOL     OW40383   1.402   0.022   7.055  0.2443  0.0739  0.9220
74258SOL    HW140384   1.407   0.040   6.962  2.8042 -2.1319  0.5087
74258SOL    HW240385   1.419   0.106   7.097  3.5486  0.3775 -0.7125
74259SOL     OW40386  12.858   4.048   4.147  0.0313  0.8321 -0.6051
74259SOL    HW140387  12.826   4.120   4.202 -1.3080  0.6641 -1.1335
74259SOL    HW240388  12.879   3.978   4.209 -2.8702  0.0952 -0.3094
74260SOL     OW40389   1.864   9.393   5.194  0.6830  0.2066 -0.7740
74260SOL    HW140390   1.908   9.312   5.168  1.4129  0.3722 -0.0914
74260SOL    HW240391   1.776   9.385   5.157  0.0786 -1.7884  0.8578
74261SOL     OW40392   7.273   3.884  12.837 -0.7281 -0.1244  0.4675
74261SOL    HW140393   7.192   3.838  12.815 -0.4226 -1.0232  1.1363
74261SOL    HW240394   7.309   3.913  12.753 -0.0150 -2.6918 -0.1969
74262SOL     OW40395   3.948  12.852  11.037 -0.0617 -0.0743 -0.1118
74262SOL    HW140396   3.982  12.934  11.071  2.2699 -0.0881 -2.1422
74262SOL    HW240397   3.912  12.874  10.951  1.0676 -1.1700 -0.9215
74263SOL     OW40398   2.986  11.764  11.386 -0.4050  0.2685  0.0634
74263SOL    HW140399   2.957  11.854  11.371 -0.3636  0.5169  1.3302
74263SOL    HW240400   3.081  11.769  11.385 -0.3968  0.3640  0.7305
74264SOL     OW40401   3.805   4.804   2.081  0.0469 -0.3043 -0.8139
74264SOL    HW140402   3.817   4.893   2.050 -1.2303  0.1054 -0.2006
74264SOL    HW240403   3.847   4.749   2.015 -0.5524  0.6655 -2.0435
74265SOL     OW40404   6.923  10.843   2.239 -0.3225 -0.6173 -0.3485
74265SOL    HW140405   6.836  10.883   2.232 -0.3984 -0.8759 -0.8960
74265SOL    HW240406   6.910  10.768   2.298 -0.4151 -0.5006 -0.2205
74266SOL     OW40407   9.621  12.735  11.384 -0.6286 -0.2172  0.7519
74266SOL    HW140408   9.712  12.716  11.406 -0.5365 -0.1359  0.4521
74266SOL    HW240409   9.593  12.801  11.447 -0.4334 -0.1344  0.7507
74267SOL     OW40410   4.457  12.881   2.858  0.6130  0.5949  0.0855
74267SOL    HW140411   4.457  12.957   2.801  0.9557  1.8659  1.6958
74267SOL    HW240412   4.372  12.884   2.903  0.3650 -0.3459 -0.2879
74268SOL     OW40413   1.849   4.610  10.456  0.1015  0.3151  0.3201
74268SOL    HW140414   1.762   4.594  10.418  0.7548  0.9884 -1.5757
74268SOL    HW240415   1.870   4.530  10.503 -0.7697 -0.5955 -0.7897
74269SOL     OW40416   4.623  13.447  12.178 -0.0206  0.1275 -0.5048
74269SOL    HW140417   4.642  13.487  12.094 -0.5797  1.6038  0.0430
74269SOL    HW240418   4.633  13.518  12.242  1.1085 -1.1002  0.7778
74270SOL     OW40419  12.822  12.390   7.421 -0.1937 -0.2482 -0.3368
74270SOL    HW140420  12.909  12.365   7.391  0.3961  2.1637 -0.8362
74270SOL    HW240421  12.785  12.442   7.349 -1.2070  0.5032  0.6804
74271SOL     OW40422   1.767   5.383   8.336 -0.5054  0.4989  0.0526
74271SOL    HW140423   1.790   5.303   8.383 -0.7673  0.2969 -0.1572
74271SOL    HW240424   1.672   5.377   8.324 -0.7182  1.4320  1.1294
74272SOL     OW40425  11.311   0.316  13.370  0.0077 -0.0507  0.2752
74272SOL    HW140426  11.257   0.272  13.304  2.3671 -1.7544 -0.6361
74272SOL    HW240427  11.324   0.404  13.335 -1.5225  0.1596  0.1677
74273SOL     OW40428  10.649   6.927   6.932  0.0784 -0.2845  0.0883
74273SOL    HW140429  10.679   6.842   6.898 -0.1441 -0.4680  0.3488
74273SOL    HW240430  10.565   6.908   6.975 -0.7775  0.3320 -1.2230
74274SOL     OW40431   5.789   6.982  10.642 -0.0843 -0.5673 -0.1911
74274SOL    HW140432   5.796   6.889  10.663 -1.3335 -0.6114  0.0975
74274SOL    HW240433   5.715   6.987  10.581 -0.7754  0.3559  0.6777
74275SOL     OW40434   3.297  12.376   2.184 -0.0335  0.3820 -0.2995
74275SOL    HW140435   3.332  12.455   2.225  1.1291  0.0254 -0.5724
74275SOL    HW240436   3.205  12.397   2.166  0.2956  1.7358 -0.5273
74276SOL     OW40437   6.762  13.173   7.371  0.4467  0.0713  0.1621
74276SOL    HW140438   6.689  13.165   7.432 -1.9442  0.0598 -2.4672
74276SOL    HW240439   6.806  13.088   7.375  0.2451  0.0210  1.6922
74277SOL     OW40440   2.950   8.796  10.393 -0.4247  0.3041 -0.1840
74277SOL    HW140441   3.018   8.738  10.428 -1.2789  0.1063  1.2262
74277SOL    HW240442   2.942   8.866  10.458 -2.7031 -0.5549  0.5495
74278SOL     OW40443   1.079  10.588   7.840 -0.5016  0.8280 -0.1156
74278SOL    HW140444   1.158  10.555   7.882  0.7721  1.1582 -2.0958
74278SOL    HW240445   1.029  10.510   7.817 -1.2817  0.6484  2.0037
74279SOL     OW40446  11.104   0.188  11.514 -0.1740 -0.1124 -0.3242
74279SOL    HW140447  11.080   0.171  11.422  1.1776 -0.6127 -0.6096
74279SOL    HW240448  11.125   0.101  11.549  0.3910  0.2004  0.1343
74280SOL     OW40449   4.025   4.125   3.476 -0.2369  0.2369 -0.2368
74280SOL    HW140450   3.974   4.052   3.511 -0.7696  0.1505 -1.1588
74280SOL    HW240451   3.980   4.203   3.506  0.5007  0.2162  1.0028
74281SOL     OW40452   0.685   3.164   4.656  0.8971  0.1147 -0.2836
74281SOL    HW140453   0.701   3.111   4.734  1.2917 -2.1717 -1.8256
74281SOL    HW240454   0.592   3.186   4.661  0.9483  0.1540  0.9009
74282SOL     OW40455   8.209   3.544   1.532 -0.3413 -0.5110 -0.1951
74282SOL    HW140456   8.165   3.488   1.596  0.1420  1.1775  1.6990
74282SOL    HW240457   8.298   3.509   1.526 -0.4036 -0.7090  0.0147
74283SOL     OW40458  10.138   8.981   2.960  0.3144  0.1775  0.2707
74283SOL    HW140459  10.089   8.914   2.912  1.5833 -0.5641 -0.0274
74283SOL    HW240460  10.071   9.026   3.012 -1.0139  0.5937 -1.6845
74284SOL     OW40461   2.555  10.552   4.565 -0.1585  0.1463  0.0777
74284SOL    HW140462   2.627  10.615   4.562 -1.2569  1.5472  1.1973
74284SOL    HW240463   2.559  10.506   4.482  2.7906 -0.7391  0.6084
74285SOL     OW40464   4.468   3.925   3.074  0.1357  0.0285  0.5632
74285SOL    HW140465   4.462   4.021   3.079  1.1797  0.0322  3.2869
74285SOL    HW240466   4.517   3.900   3.152 -0.5815 -2.7999  0.2013
74286SOL     OW40467   0.363   7.030   0.618 -0.7224 -0.5839 -0.3892
74286SOL    HW140468   0.428   7.003   0.682 -0.3683  2.3338  0.6271
74286SOL    HW240469   0.368   6.964   0.549  0.8225 -2.3188  1.2797
74287SOL     OW40470   3.326   3.792   3.060 -0.7416  0.0964  0.2355
74287SOL    HW140471   3.353   3.757   2.975  0.4806  2.2964 -0.3582
74287SOL    HW240472   3.233   3.810   3.050 -0.0242  3.4733 -1.9544
74288SOL     OW40473   2.006  13.557   2.574  0.3930 -0.2087  0.2292
74288SOL    HW140474   1.933  13.570   2.513 -0.0976 -1.7418  0.4547
74288SOL    HW240475   2.042  13.645   2.587  0.6636  0.1677 -2.4460
74289SOL     OW40476   4.024  13.873   6.198 -0.0964 -0.3577  0.0412
74289SOL    HW140477   4.010  13.780   6.182  2.9128 -0.8425 -0.3205
74289SOL    HW240478   4.068  13.876   6.283  0.9393  0.6034 -0.5068
74290SOL     OW40479  11.312   5.006  12.323  0.5340 -0.5366  0.9505
74290SOL    HW140480  11.287   5.045  12.240  1.0823 -0.4702  0.8170
74290SOL    HW240481  11.401   5.036  12.339  1.3612 -2.5167  0.3499
74291SOL     OW40482  12.883   4.915   0.326 -0.3846  0.2544 -0.9055
74291SOL    HW140483  12.930   4.998   0.337 -1.4946  1.0705 -2.0419
74291SOL    HW240484  12.903   4.866   0.405  0.6113  1.4592 -0.3748
74292SOL     OW40485  10.080   9.103   5.393  0.4433 -0.3493  0.2026
74292SOL    HW140486  10.171   9.121   5.371 -0.0892  2.1541 -0.2679
74292SOL    HW240487  10.051   9.181   5.441 -1.8162 -0.4989 -0.7905
74293SOL     OW40488   1.964   2.718   1.531  0.3745 -0.5523  0.0262
74293SOL    HW140489   2.047   2.671   1.543  0.4450 -0.3789  0.2253
74293SOL    HW240490   1.956   2.728   1.436  0.4373 -0.8258 -0.0090
74294SOL     OW40491  11.565   7.396   2.470 -0.0673  0.6122  0.4177
74294SOL    HW140492  11.658   7.383   2.485  0.1056  2.3120  0.9980
74294SOL    HW240493  11.548   7.356   2.385  0.9688 -0.5821  0.7449
74295SOL     OW40494   7.403   8.552  14.050  0.3219  0.2937  0.6891
74295SOL    HW140495   7.334   8.593  14.102  1.0131  1.2520  0.8801
74295SOL    HW240496   7.463   8.624  14.028  0.7796 -0.3498 -0.2444
74296SOL     OW40497   7.067  11.690   3.561  0.5083  0.1565 -0.1823
74296SOL    HW140498   7.139  11.696   3.499  1.9762 -0.8684  1.3458
74296SOL    HW240499   7.108  11.696   3.647 -1.3376  0.4329  0.7517
74297SOL     OW40500   5.403   4.654  12.440 -0.1115 -0.0570 -0.4445
74297SOL    HW140501   5.309   4.661  12.456 -0.0623 -0.6640  0.1338
74297SOL    HW240502   5.442   4.726  12.490 -0.0251 -1.4875  1.6775
74298SOL     OW40503  13.285  13.815  10.072  0.1376 -0.3616  0.0693
74298SOL    HW140504  13.289  13.743  10.135  1.1416 -1.0558 -0.7527
74298SOL    HW240505  13.342  13.787  10.000  0.0944  1.0094 -0.5250
74299SOL     OW40506   3.865   5.300   7.692  0.0769  0.1376  0.0486
74299SOL    HW140507   3.772   5.278   7.692  0.0604  0.1207 -1.1384
74299SOL    HW240508   3.868   5.393   7.671  0.3591 -0.2169 -1.6262
74300SOL     OW40509  12.047   8.861  11.178 -0.3696  0.7953  0.4475
74300SOL    HW140510  12.132   8.832  11.144 -1.2827  0.5121 -1.7785
74300SOL    HW240511  11.995   8.781  11.180 -1.5401  1.4412 -1.4114
74301SOL     OW40512  12.557  13.680  13.153 -0.0605 -0.1071 -0.2640
74301SOL    HW140513  12.510  13.622  13.093 -0.0562 -3.6898  2.8349
74301SOL    HW240514  12.644  13.641  13.160  0.5430  1.3336  0.6304
74302SOL     OW40515   3.426  14.047   1.363  0.1794  0.7005  0.0121
74302SOL    HW140516   3.423  14.029   1.457 -1.6426  1.2880  0.1130
74302SOL    HW240517   3.443  13.962   1.323 -0.4982  0.1745  0.8066
74303SOL     OW40518   6.829   6.535   1.079 -0.3024 -0.6460 -0.2792
74303SOL    HW140519   6.800   6.454   1.121  0.5305 -0.6226  0.3376
74303SOL    HW240520   6.793   6.605   1.134 -0.9754 -0.5804 -0.7818
74304SOL     OW40521   6.536  13.005   8.767 -0.0187 -0.1592  0.0385
74304SOL    HW140522   6.554  13.042   8.680  3.2187 -1.2436  0.1135
74304SOL    HW240523   6.591  13.057   8.826  0.4394 -1.6109  0.9169
74305SOL     OW40524   6.370   7.952   7.490 -0.0016  0.3377 -0.6793
74305SOL    HW140525   6.336   7.920   7.407 -0.7211 -1.8199  0.3834
74305SOL    HW240526   6.298   8.003   7.528  0.0007  0.5502 -0.9606
74306SOL     OW40527   8.555   7.362  12.346 -0.0285  0.4885 -0.1807
74306SOL    HW140528   8.633   7.414  12.326 -0.3192  0.8038 -0.4976
74306SOL    HW240529   8.520   7.401  12.426  0.1816  0.2938  0.0094
74307SOL     OW40530   9.724  12.326   0.358 -0.2972 -0.1002 -0.3121
74307SOL    HW140531   9.743  12.377   0.437 -0.8250  1.1199 -0.9422
74307SOL    HW240532   9.754  12.238   0.379  1.0964  0.5548  0.6562
74308SOL     OW40533  12.674   0.977   1.146  0.0684 -0.2021  0.4565
74308SOL    HW140534  12.613   1.005   1.214 -0.0758 -0.6919  0.5331
74308SOL    HW240535  12.759   1.011   1.174 -0.0063 -0.3274  0.8338
74309SOL     OW40536   7.078  11.436  13.849 -0.4125 -0.1709  0.8696
74309SOL    HW140537   7.025  11.358  13.866 -0.9336  0.2946  1.4370
74309SOL    HW240538   7.167  11.411  13.873 -0.6054 -0.5407  1.1964
74310SOL     OW40539   8.597   1.713   2.277  0.1755 -0.0495 -0.3339
74310SOL    HW140540   8.609   1.624   2.311  1.9752  0.8122  1.5810
74310SOL    HW240541   8.675   1.729   2.224  0.2718  0.6382  0.0001
74311SOL     OW40542   1.887  12.334   1.527  0.3027  0.8326  0.1756
74311SOL    HW140543   1.838  12.253   1.510  1.3303  0.4815 -1.2993
74311SOL    HW240544   1.831  12.403   1.490  0.4070  0.5507 -0.5315
74312SOL     OW40545   8.199   1.139   1.579  0.1446 -0.2950 -0.2060
74312SOL    HW140546   8.215   1.131   1.673  0.4386 -0.0278 -0.2329
74312SOL    HW240547   8.177   1.050   1.551  0.1358 -0.3895  0.1006
74313SOL     OW40548   1.813   7.554   9.147  0.2296  0.2415 -0.4560
74313SOL    HW140549   1.821   7.645   9.118  0.1667  0.1829 -0.6601
74313SOL    HW240550   1.801   7.560   9.241 -1.3342  0.5323 -0.6532
74314SOL     OW40551   5.530   9.886   3.272 -0.4394  0.0782  0.2042
74314SOL    HW140552   5.546   9.838   3.354 -1.6801 -0.3555  0.2107
74314SOL    HW240553   5.591   9.847   3.209 -1.3083 -1.4492  0.2440
74315SOL     OW40554   0.398   0.451   7.640 -0.1333  0.6065  0.2060
74315SOL    HW140555   0.310   0.465   7.606  0.4026  0.7651 -1.1967
74315SOL    HW240556   0.387   0.386   7.709 -1.4034  0.9661  0.3733
74316SOL     OW40557   0.596   1.394  13.541  0.4124 -0.1058  0.1693
74316SOL    HW140558   0.603   1.477  13.587 -2.0884 -0.0746  0.5947
74316SOL    HW240559   0.540   1.412  13.466 -0.4161 -1.4613  0.4282
74317SOL     OW40560   0.161   3.905  11.891 -0.2876  0.2914 -0.5143
74317SOL    HW140561   0.180   3.818  11.928 -1.9738 -0.1294 -0.5240
74317SOL    HW240562   0.247   3.942  11.871  0.4713 -1.5614 -0.9310
74318SOL     OW40563  10.334   9.526   3.767  0.7584 -0.6091  0.4523
74318SOL    HW140564  10.378   9.529   3.852  0.5087  0.2728  0.5575
74318SOL    HW240565  10.347   9.436   3.737  2.7220 -0.3591  0.4205
74319SOL     OW40566   2.969   9.267  10.956  0.0227 -0.3734  0.4717
74319SOL    HW140567   2.900   9.333  10.967 -0.6105 -1.0683  0.7567
74319SOL    HW240568   2.950   9.227  10.871  1.6558  1.2235 -0.7252
74320SOL     OW40569  11.826  11.523   5.938 -0.2239 -0.0293 -0.2321
74320SOL    HW140570  11.877  11.551   5.861  0.8526 -0.1306  0.4138
74320SOL    HW240571  11.864  11.573   6.011 -0.9001 -0.2941  0.3142
74321SOL     OW40572   0.008   7.372  12.769  0.4761  0.2103  0.3628
74321SOL    HW140573   0.025   7.466  12.762  0.2203  0.7653  4.4989
74321SOL    HW240574  -0.077   7.360  12.727  0.2141  1.9826  0.2817
74322SOL     OW40575   6.971   9.138   8.663  0.8647  0.6219  0.3965
74322SOL    HW140576   6.876   9.130   8.654  0.8326  0.9360  0.4420
74322SOL    HW240577   6.994   9.211   8.606  1.0898  0.5036  0.3344
74323SOL     OW40578   3.257  11.890   1.637  0.2170 -0.9061 -0.2235
74323SOL    HW140579   3.180  11.881   1.580 -0.4063 -0.1833  0.4897
74323SOL    HW240580   3.286  11.800   1.652  0.0035 -1.1369 -1.1642
74324SOL     OW40581   0.569   1.176   1.961  0.2871  0.1953  0.1717
74324SOL    HW140582   0.587   1.243   2.027 -0.9626  1.5240 -0.7785
74324SOL    HW240583   0.611   1.208   1.881  1.6461 -1.3081  0.2242
74325SOL     OW40584   2.650   4.915   3.613 -0.0506 -0.0112 -0.0025
74325SOL    HW140585   2.560   4.922   3.643  0.8848  0.5022  3.0665
74325SOL    HW240586   2.662   4.821   3.597 -0.9265 -0.1797  0.2552
74326SOL     OW40587   1.457   5.061   3.352  0.2147  0.3266  0.2514
74326SOL    HW140588   1.394   4.989   3.360  0.0508  0.3185 -0.9479
74326SOL    HW240589   1.420   5.118   3.285  1.3802  0.4271 -0.3248
74327SOL     OW40590   4.302   2.019   7.920  0.0532  0.3180  0.8643
74327SOL    HW140591   4.340   1.936   7.949  0.0835  0.2505  0.6311
74327SOL    HW240592   4.280   2.005   7.828 -1.9926 -0.1963  1.3638
74328SOL     OW40593   0.744  13.646   9.124 -0.2814  0.1478  0.4049
74328SOL    HW140594   0.657  13.666   9.091  0.4166 -0.1569 -1.8554
74328SOL    HW240595   0.736  13.559   9.163 -0.5578 -0.9996 -2.0262
74329SOL     OW40596   2.630  12.113   6.458  0.4670  0.1608 -0.1586
74329SOL    HW140597   2.643  12.119   6.364  0.8135  1.1263 -0.0535
74329SOL    HW240598   2.695  12.049   6.487 -1.5328 -2.4468 -0.9296
74330SOL     OW40599   5.300   3.517   0.810  0.4057 -0.1872 -0.8766
74330SOL    HW140600   5.242   3.522   0.886  0.4521  1.8722 -0.9305
74330SOL    HW240601   5.385   3.491   0.846  0.2551  0.0916 -0.3193
74331SOL     OW40602  10.012  11.617  13.385 -0.0500 -0.1392  0.1291
74331SOL    HW140603   9.986  11.615  13.478  0.7626 -1.0883  0.3564
74331SOL    HW240604   9.943  11.567  13.340 -1.4456  1.8533 -0.0915
74332SOL     OW40605   7.516   4.732   3.269  0.6249 -0.3622 -0.5403
74332SOL    HW140606   7.582   4.714   3.202  1.2116 -2.1851  0.4433
74332SOL    HW240607   7.540   4.674   3.342 -1.8997 -0.8825 -0.0315
74333SOL     OW40608  11.959  11.482   2.916 -0.4360 -0.1396 -0.7045
74333SOL    HW140609  12.033  11.424   2.927  0.8115  1.6156  0.8201
74333SOL    HW240610  11.954  11.531   2.999 -0.7134  2.6089 -2.2020
74334SOL     OW40611   5.483   3.744  10.806  0.1898  0.2513 -0.7954
74334SOL    HW140612   5.455   3.653  10.804 -1.6278  0.7521 -0.2562
74334SOL    HW240613   5.497   3.768  10.715 -0.6795 -0.1939 -1.0521
74335SOL     OW40614  12.911   8.129  11.880 -0.5101 -0.1049  0.1861
74335SOL    HW140615  12.998   8.090  11.889 -0.2069  0.4581 -0.2396
74335SOL    HW240616  12.911   8.167  11.792 -0.1988  2.2382  1.1162
74336SOL     OW40617   0.182  12.014   0.836 -0.9033 -0.5061 -0.3615
74336SOL    HW140618   0.095  11.986   0.807 -1.2366 -2.0133  1.8339
74336SOL    HW240619   0.206  11.951   0.904  0.9670  1.1556  0.6232
74337SOL     OW40620  14.090   6.202   7.026 -0.3802 -0.1532 -0.7044
74337SOL    HW140621  14.174   6.182   6.984 -0.0536 -2.0028  0.6892
74337SOL    HW240622  14.025   6.159   6.971 -0.1014 -1.2272 -0.2301
74338SOL     OW40623   5.267   1.538   6.074  0.1348  0.2596 -0.1435
74338SOL    HW140624   5.360   1.559   6.079  0.4157 -1.2173  1.7602
74338SOL    HW240625   5.250   1.482   6.149 -1.4719 -2.6291 -2.4303
74339SOL     OW40626  11.464  10.491  13.095 -0.0456 -0.4561 -0.5107
74339SOL    HW140627  11.554  10.459  13.096 -0.5637 -1.9938 -0.2994
74339SOL    HW240628  11.418  10.435  13.157 -1.1529  0.3190 -0.6035
74340SOL     OW40629   5.700   2.306   5.103 -0.7239 -0.5569 -0.3047
74340SOL    HW140630   5.637   2.378   5.105 -0.4607 -0.3336 -0.0013
74340SOL    HW240631   5.670   2.246   5.172  1.1900  1.0904  2.1424
74341SOL     OW40632   2.268   4.945   9.951  0.1679  0.0101  0.0833
74341SOL    HW140633   2.315   4.949   9.868 -0.0394 -2.1207 -0.1826
74341SOL    HW240634   2.176   4.962   9.928  0.4319  1.9655  0.2913
74342SOL     OW40635  13.588   6.985   2.032 -0.0417  0.2412 -0.5966
74342SOL    HW140636  13.663   6.936   1.999  0.2520  0.3910 -0.1547
74342SOL    HW240637  13.513   6.928   2.017  0.5032 -1.1326  1.5718
74343SOL     OW40638  12.906   9.203  11.974 -0.4579 -0.4085  0.2351
74343SOL    HW140639  12.826   9.156  11.999  0.0700 -0.9274  0.9935
74343SOL    HW240640  12.884   9.295  11.987 -0.6909 -0.5852  1.2036
74344SOL     OW40641   8.435   1.439  11.281 -1.0974  0.4939  0.1043
74344SOL    HW140642   8.449   1.518  11.229  1.5670 -0.2158 -0.4104
74344SOL    HW240643   8.499   1.376  11.247 -1.6767 -1.1817  1.9173
74345SOL     OW40644   7.516   5.154   0.865  0.2868 -0.4009 -0.3054
74345SOL    HW140645   7.510   5.220   0.797  0.5602 -0.7610 -0.6882
74345SOL    HW240646   7.433   5.160   0.913 -0.5423 -1.1291 -1.5878
74346SOL     OW40647   2.103   6.222  12.990  0.1348  0.5463  0.0151
74346SOL    HW140648   2.116   6.203  12.897  3.0542 -0.6258  0.5790
74346SOL    HW240649   2.077   6.139  13.028 -0.3238  0.8554  0.3843
74347SOL     OW40650   2.849  12.829   0.456  0.0469  0.1319 -0.1157
74347SOL    HW140651   2.907  12.763   0.496 -1.3134 -0.5934  0.7472
74347SOL    HW240652   2.882  12.913   0.489  0.8567 -0.2336  0.0280
74348SOL     OW40653   3.329   4.467   1.476 -0.6291  0.2594 -0.4584
74348SOL    HW140654   3.262   4.427   1.420 -2.9840  1.5028  1.3356
74348SOL    HW240655   3.355   4.398   1.536  0.7018 -0.5877 -1.9142
74349SOL     OW40656   4.568  13.041  11.660  0.8750  0.1604  0.4515
74349SOL    HW140657   4.473  13.038  11.670  0.7381  0.6973 -0.5823
74349SOL    HW240658   4.594  12.949  11.649  0.3371  0.0900 -0.3435
74350SOL     OW40659   8.604   3.067   7.214  0.2753 -0.0442 -0.5965
74350SOL    HW140660   8.642   2.985   7.185 -2.2861 -1.5489  0.0457
74350SOL    HW240661   8.564   3.047   7.299 -0.1328  1.9637 -0.2456
74351SOL     OW40662  14.050   0.928   9.460 -0.0853 -0.4396  0.3125
74351SOL    HW140663  14.016   0.997   9.517 -1.8336 -2.1133  1.4025
74351SOL    HW240664  13.973   0.893   9.415  1.0084 -0.4512 -1.6981
74352SOL     OW40665   1.224   1.630   4.202  0.2633 -0.3286 -0.1427
74352SOL    HW140666   1.163   1.559   4.225  1.0153 -1.0114 -0.1951
74352SOL    HW240667   1.284   1.590   4.138 -0.4597  0.9102 -1.6664
74353SOL     OW40668   2.029  13.068   1.727 -0.0357  0.2124 -0.9259
74353SOL    HW140669   1.943  13.069   1.684 -0.3454 -0.1098 -0.3356
74353SOL    HW240670   2.009  13.043   1.818  0.7168 -0.1219 -0.8489
74354SOL     OW40671   6.629   4.041   0.047  0.0687  0.2498  0.3301
74354SOL    HW140672   6.667   3.997   0.123 -0.2951  1.4044  1.2041
74354SOL    HW240673   6.667   4.129   0.048 -0.7450  0.6256 -0.1979
74355SOL     OW40674   1.152  13.122   2.751 -0.4293  0.7733 -0.1620
74355SOL    HW140675   1.112  13.036   2.760 -1.4412  1.3899  1.9792
74355SOL    HW240676   1.242  13.110   2.781 -0.5707  0.4375  0.1385
74356SOL     OW40677   0.141   7.171   4.027  0.7143  0.5443 -0.3714
74356SOL    HW140678   0.172   7.154   3.938  2.5291  0.8248  0.1601
74356SOL    HW240679   0.202   7.122   4.083 -2.1272 -2.1227  0.6863
74357SOL     OW40680   0.375   1.836   8.268 -0.3558 -0.0628  0.4233
74357SOL    HW140681   0.460   1.793   8.277 -0.5200 -0.6555 -0.6638
74357SOL    HW240682   0.389   1.905   8.203 -0.8832 -0.7060 -0.3933
74358SOL     OW40683  10.991   2.673   3.949 -0.1585 -0.3003  0.3714
74358SOL    HW140684  10.993   2.665   3.854  1.6516  1.0856  0.2531
74358SOL    HW240685  11.082   2.685   3.974 -0.6264 -0.4341  2.2862
74359SOL     OW40686  12.420   9.486   4.063  0.1031  0.0585  0.1350
74359SOL    HW140687  12.398   9.549   4.132  0.5319  1.0933 -0.6400
74359SOL    HW240688  12.339   9.478   4.012  0.0969  0.1307  0.1310
74360SOL     OW40689  11.763  10.714   0.766  0.5987  0.2207 -0.3560
74360SOL    HW140690  11.736  10.801   0.795 -1.4068 -0.4189 -0.2125
74360SOL    HW240691  11.683  10.671   0.738  1.0376 -2.5842  2.1990
74361SOL     OW40692  13.631  10.853   0.150 -0.4053 -0.1583 -0.0224
74361SOL    HW140693  13.637  10.930   0.093  0.6289 -0.3263 -0.1593
74361SOL    HW240694  13.654  10.885   0.237 -1.3223 -0.0410  0.1866
74362SOL     OW40695   8.704   4.198   0.406  0.5065 -0.4433  0.2132
74362SOL    HW140696   8.664   4.246   0.333  2.5133 -0.5092 -1.0085
74362SOL    HW240697   8.778   4.253   0.432 -0.1425 -0.4522  2.2129
74363SOL     OW40698  11.724   6.353   1.263  0.5018  0.7004  0.6545
74363SOL    HW140699  11.634   6.351   1.231  0.2916 -0.8450  1.2454
74363SOL    HW240700  11.749   6.445   1.260 -0.7386  1.0250 -0.4977
74364SOL     OW40701   1.605   6.592   1.420 -0.0200  0.1360 -0.2023
74364SOL    HW140702   1.676   6.613   1.359  1.4960 -0.9636  1.0756
74364SOL    HW240703   1.566   6.512   1.386  1.8050 -1.3384  0.9399
74365SOL     OW40704  13.313   4.767   2.465  0.4074  0.1396  0.1150
74365SOL    HW140705  13.248   4.712   2.421  1.4794 -0.9245 -0.1882
74365SOL    HW240706  13.379   4.705   2.496  0.4835  1.0330  1.8524
74366SOL     OW40707   3.323   0.907   5.785 -0.1424 -0.4181 -0.3760
74366SOL    HW140708   3.252   0.928   5.846  1.4055 -1.4370  1.9222
74366SOL    HW240709   3.278   0.872   5.707 -2.1861  0.5117  0.3227
74367SOL     OW40710  13.208  13.690   4.645 -0.8098 -0.2351  0.5167
74367SOL    HW140711  13.174  13.708   4.733 -1.9214 -0.4077  0.1392
74367SOL    HW240712  13.236  13.598   4.649  1.6711  0.5062  1.4481
74368SOL     OW40713   0.439   0.975   2.731 -0.3568  0.4847  0.1399
74368SOL    HW140714   0.524   0.994   2.692  0.4282 -3.1016 -0.2814
74368SOL    HW240715   0.460   0.927   2.811 -2.0203  1.9581  1.5360
74369SOL     OW40716   4.173  12.346   2.625  0.2432  0.8823  0.2457
74369SOL    HW140717   4.156  12.373   2.535  0.4226  0.5500  0.1119
74369SOL    HW240718   4.264  12.372   2.641  0.6607 -0.2866 -0.1291
74370SOL     OW40719  13.626   1.956   1.644  0.1796 -0.1375 -0.0838
74370SOL    HW140720  13.716   1.926   1.630 -0.1958 -0.8391 -1.2033
74370SOL    HW240721  13.606   1.932   1.734  1.4011  0.8491  0.4829
74371SOL     OW40722   5.638   5.079  12.904 -0.3842 -0.3364 -0.3928
74371SOL    HW140723   5.666   5.170  12.893  1.9445 -0.5705  2.4019
74371SOL    HW240724   5.578   5.081  12.979 -1.1443 -1.0269 -0.9553
74372SOL     OW40725   9.630   3.551   0.770 -0.5282 -0.5414  0.2033
74372SOL    HW140726   9.585   3.475   0.809  0.4165  0.0615  2.6522
74372SOL    HW240727   9.721   3.522   0.761 -0.3842 -0.0572  0.0980
74373SOL     OW40728   2.411   9.605   2.075 -0.1317  0.5555 -0.0170
74373SOL    HW140729   2.452   9.564   2.151  1.8031  0.9163 -0.8092
74373SOL    HW240730   2.390   9.694   2.103 -4.2866 -0.7205  1.6902
74374SOL     OW40731   0.122  10.706   2.356 -0.0320  0.2411 -0.0076
74374SOL    HW140732   0.045  10.762   2.368  0.7350  1.9110 -2.3199
74374SOL    HW240733   0.107  10.662   2.273  0.6288 -0.9874  0.4952
74375SOL     OW40734   0.856   1.258  13.919  0.3383 -0.2927 -0.1309
74375SOL    HW140735   0.847   1.301  14.004  1.5442 -0.0551 -0.1050
74375SOL    HW240736   0.936   1.295  13.881 -0.4164 -0.0439 -1.5871
74376SOL     OW40737   3.559   9.166  10.536  0.2802  0.6552 -0.0456
74376SOL    HW140738   3.615   9.131  10.605  1.5207 -0.9656 -1.7883
74376SOL    HW240739   3.524   9.248  10.573  1.8323  0.4700  2.0178
74377SOL     OW40740   5.414  14.030  10.315 -0.3147 -0.3423 -0.5808
74377SOL    HW140741   5.341  13.968  10.322 -0.2549 -0.4288 -0.7185
74377SOL    HW240742   5.492  13.974  10.313 -0.2111 -0.2350  0.0748
74378SOL     OW40743  11.171  12.770   0.424  0.0456  0.6923 -0.1069
74378SOL    HW140744  11.105  12.714   0.384  0.3132  0.5171 -0.3052
74378SOL    HW240745  11.214  12.714   0.488 -1.3368  1.3657  1.4786
74379SOL     OW40746   3.508   1.785   1.701 -0.1805 -0.1641  0.1709
74379SOL    HW140747   3.534   1.843   1.630 -0.9356  0.1485  0.1392
74379SOL    HW240748   3.476   1.706   1.657  1.5481 -0.9363  0.2289
74380SOL     OW40749   0.319   9.982  13.951  0.2297 -0.0190 -0.0810
74380SOL    HW140750   0.365  10.059  13.919 -0.0903 -0.1422 -0.8560
74380SOL    HW240751   0.285  10.008  14.037  0.5390  0.5329 -0.1233
74381SOL     OW40752   3.153   0.274   6.499  0.4428  0.1621  0.1462
74381SOL    HW140753   3.207   0.352   6.514  0.5623  0.0162  0.4961
74381SOL    HW240754   3.068   0.309   6.472  0.6357  0.3999 -0.1544
74382SOL     OW40755   7.285   4.980  10.848 -0.9602 -0.4918 -0.5567
74382SOL    HW140756   7.197   4.963  10.814 -1.5102 -0.1718  0.6321
74382SOL    HW240757   7.278   4.961  10.941  0.2869 -0.6109 -0.4772
74383SOL     OW40758   4.463   7.544   0.145 -0.0758  0.5824 -0.3042
74383SOL    HW140759   4.555   7.518   0.145  0.4355  2.1322  1.5215
74383SOL    HW240760   4.436   7.540   0.054  1.0424 -2.3686 -0.5984
74384SOL     OW40761   1.659   7.637   4.336  0.1546 -0.3304 -0.1111
74384SOL    HW140762   1.752   7.657   4.339 -0.4262  2.7564  1.3655
74384SOL    HW240763   1.628   7.652   4.426 -1.7697 -1.2976 -0.5571
74385SOL     OW40764  10.671   4.610   1.623 -0.0700  0.2332 -0.3927
74385SOL    HW140765  10.750   4.641   1.668  0.0537 -0.0395 -0.4203
74385SOL    HW240766  10.656   4.522   1.659 -1.6838  1.1394  1.3508
74386SOL     OW40767   7.253   6.218   3.517  0.8472 -0.1885  0.3301
74386SOL    HW140768   7.305   6.279   3.464 -0.7381 -0.9290 -2.1995
74386SOL    HW240769   7.166   6.219   3.477  0.1257 -2.3506  1.6790
74387SOL     OW40770   0.786   1.470  12.517 -0.0496 -0.3056  0.3685
74387SOL    HW140771   0.853   1.537  12.497 -0.6719 -0.0150 -0.8613
74387SOL    HW240772   0.799   1.450  12.609  1.4863  0.0310  0.2544
74388SOL     OW40773   0.694   6.261  13.962 -0.3436  0.2018  0.2754
74388SOL    HW140774   0.750   6.200  13.914  1.0732  0.1964  1.8490
74388SOL    HW240775   0.610   6.217  13.968 -0.1251 -0.4103 -0.9211
74389SOL     OW40776   0.942   8.377   2.470  0.2173  0.2977  0.5236
74389SOL    HW140777   1.009   8.438   2.500  1.9889 -1.6388  0.7548
74389SOL    HW240778   0.902   8.344   2.551 -0.0897  0.4459  0.4352
74390SOL     OW40779   5.705  11.868   6.543 -0.5191  0.4896  0.2683
74390SOL    HW140780   5.643  11.935   6.572  0.4280  2.1765 -1.4192
74390SOL    HW240781   5.720  11.887   6.450  0.8461 -1.2408  0.0771
74391SOL     OW40782   8.942  13.056   5.240 -0.0908  0.5241 -0.3388
74391SOL    HW140783   9.026  13.086   5.276 -0.0701  0.8034 -0.6135
74391SOL    HW240784   8.876  13.106   5.289 -0.0878  0.4432 -0.2530
74392SOL     OW40785   8.919   8.192   4.350 -0.0291 -0.0010  0.2620
74392SOL    HW140786   8.932   8.116   4.407 -3.4734 -0.2646  0.9596
74392SOL    HW240787   8.891   8.155   4.266  0.0840  0.4620  0.0176
74393SOL     OW40788  13.015   0.597   3.648  0.2647 -0.2296 -0.1750
74393SOL    HW140789  12.934   0.558   3.681  0.2167  2.1489  3.0768
74393SOL    HW240790  13.082   0.531   3.666 -0.4841 -0.8716  0.3316
74394SOL     OW40791   9.450   4.619   9.651  0.5465  0.1447  0.6543
74394SOL    HW140792   9.528   4.659   9.613 -0.3035  1.7272  0.4646
74394SOL    HW240793   9.394   4.599   9.576  0.6095 -0.6685  0.8114
74395SOL     OW40794   0.200  11.421   7.403  0.3708 -0.5104 -0.5803
74395SOL    HW140795   0.219  11.499   7.351 -0.6039 -0.2038 -0.5068
74395SOL    HW240796   0.275  11.364   7.389 -0.3077 -0.9005 -3.1872
74396SOL     OW40797   3.627  13.040   3.346  0.1890 -0.8014 -0.3369
74396SOL    HW140798   3.616  13.091   3.266 -0.3451 -0.2580  0.0763
74396SOL    HW240799   3.627  12.949   3.316 -1.9614 -0.7120 -0.7704
74397SOL     OW40800   8.641   4.355   0.665 -0.2393  0.5560 -0.2182
74397SOL    HW140801   8.661   4.276   0.715 -0.3379  0.1274 -0.8513
74397SOL    HW240802   8.552   4.341   0.632  0.1344  0.4514 -1.2239
74398SOL     OW40803   0.482   5.210  10.940  0.6339  0.3695 -0.0154
74398SOL    HW140804   0.551   5.240  10.880  0.0613  1.2638 -0.2482
74398SOL    HW240805   0.464   5.120  10.913 -0.0941  0.9752 -1.6486
74399SOL     OW40806  10.150   8.208   1.188 -0.1531  0.1705 -0.3813
74399SOL    HW140807  10.156   8.143   1.118 -0.8401 -0.0547 -0.2346
74399SOL    HW240808  10.056   8.225   1.197 -0.0389  0.5137  0.2020
74400SOL     OW40809  13.450   6.316   9.549 -0.6197 -0.2054  0.1013
74400SOL    HW140810  13.416   6.394   9.505 -0.2828 -0.2460 -0.2338
74400SOL    HW240811  13.386   6.248   9.530  0.5574 -0.7845 -2.1556
74401SOL     OW40812   5.168  11.602   6.538  0.0010  0.1077  0.1019
74401SOL    HW140813   5.240  11.599   6.475 -2.1790  1.4962 -2.6981
74401SOL    HW240814   5.177  11.687   6.580  0.2232  0.1082  0.0561
74402SOL     OW40815  12.591   6.422   2.292 -0.4319 -0.4424 -0.2370
74402SOL    HW140816  12.676   6.422   2.248 -0.1838 -0.3356  0.2383
74402SOL    HW240817  12.611   6.434   2.384 -1.0078  0.4737 -0.2077
74403SOL     OW40818  13.644   3.238  12.515  0.5967 -0.4288  0.0972
74403SOL    HW140819  13.552   3.256  12.532  0.5623  0.3700 -0.8583
74403SOL    HW240820  13.645   3.198  12.427  1.1693 -0.2962  0.0378
74404SOL     OW40821   1.144  10.868   6.796  0.4449  0.2782 -0.1329
74404SOL    HW140822   1.233  10.838   6.779  1.2024  0.9199  2.3541
74404SOL    HW240823   1.138  10.952   6.751  0.7264 -0.2357 -1.1593
74405SOL     OW40824  11.548   4.098  14.010  0.2079  0.0559  0.5119
74405SOL    HW140825  11.563   4.192  14.010 -0.8099  0.2343 -0.1496
74405SOL    HW240826  11.634   4.060  14.031  0.5389  1.1262  1.1705
74406SOL     OW40827   9.084  10.357  10.012  0.5013  0.2304  0.3794
74406SOL    HW140828   9.152  10.307   9.968  0.3178 -0.0352  0.3933
74406SOL    HW240829   9.004  10.336   9.964  0.4983  0.8802  0.0894
74407SOL     OW40830   4.491   9.779  11.655 -0.2592 -0.5028 -0.0237
74407SOL    HW140831   4.526   9.749  11.739  0.5330  0.8832  0.1917
74407SOL    HW240832   4.396   9.780  11.667 -0.1750 -0.7390  0.7055
74408SOL     OW40833  13.818   7.702   8.575 -0.4012 -0.3021 -0.3779
74408SOL    HW140834  13.775   7.619   8.592 -0.1390 -0.6468 -1.3283
74408SOL    HW240835  13.875   7.716   8.650 -0.9426 -0.6502  0.1002
74409SOL     OW40836   4.372   1.008   2.705  0.0638  0.1727  0.0303
74409SOL    HW140837   4.297   0.965   2.664  0.1206  0.1150 -0.0128
74409SOL    HW240838   4.422   1.045   2.631 -1.2130  2.3389  0.1766
74410SOL     OW40839   0.875  11.854  12.083 -0.4562  0.6190  0.0731
74410SOL    HW140840   0.845  11.939  12.051 -1.9554  0.3553  0.6856
74410SOL    HW240841   0.835  11.791  12.024 -1.7387  0.2242  1.2976
74411SOL     OW40842   8.763   3.252   4.326 -0.4844  0.1591  0.7164
74411SOL    HW140843   8.847   3.209   4.347  0.5919  2.2952  1.0453
74411SOL    HW240844   8.741   3.300   4.405 -1.5677  0.3709  0.2965
74412SOL     OW40845   5.605   0.832   1.564 -0.0735 -0.1949  0.3135
74412SOL    HW140846   5.632   0.895   1.630 -1.8574  0.5839  0.3461
74412SOL    HW240847   5.514   0.854   1.545  0.4339 -0.2500 -2.5874
74413SOL     OW40848  10.241   1.502   0.346  0.2055  0.3117 -0.7430
74413SOL    HW140849  10.294   1.575   0.375 -1.3905  1.0823  0.4046
74413SOL    HW240850  10.227   1.449   0.425 -0.0875 -0.2945 -1.1845
74414SOL     OW40851   0.211   8.546  11.064  0.1042  0.0988 -0.3572
74414SOL    HW140852   0.121   8.572  11.083  0.2208  0.0684  0.2527
74414SOL    HW240853   0.265   8.599  11.122  0.5107  0.4148 -1.0099
74415SOL     OW40854   0.440   0.049   1.491 -0.0329 -0.3861 -0.3250
74415SOL    HW140855   0.373   0.027   1.426 -0.1543 -1.2013  0.0600
74415SOL    HW240856   0.474  -0.036   1.520 -0.0214 -0.0358  0.7195
74416SOL     OW40857  12.964  12.219   7.615 -0.3926 -0.1577  0.1798
74416SOL    HW140858  12.961  12.149   7.549  1.2559 -0.6396  0.5564
74416SOL    HW240859  12.925  12.295   7.572 -2.7941 -1.4331 -0.0332
74417SOL     OW40860   1.649   0.901  12.252 -0.0709 -0.3030  0.4364
74417SOL    HW140861   1.735   0.921  12.215  0.1638  2.4714  2.1722
74417SOL    HW240862   1.647   0.805  12.258  2.1743 -0.5373 -1.1774
74418SOL     OW40863   1.727  11.795   4.668  0.2406  0.3606 -0.4715
74418SOL    HW140864   1.722  11.700   4.673 -0.6982  0.4474  0.9614
74418SOL    HW240865   1.813  11.817   4.704 -0.2087  0.1163  0.8018
74419SOL     OW40866   5.503   8.072   4.276 -0.4581 -0.0472 -0.0588
74419SOL    HW140867   5.479   8.163   4.258  1.6313  0.5002 -0.4265
74419SOL    HW240868   5.433   8.020   4.236 -0.6596  1.3728 -1.6809
74420SOL     OW40869  12.969  11.239   4.348  0.2741  0.2287  0.3055
74420SOL    HW140870  12.889  11.243   4.295  0.0779 -1.0268  0.4948
74420SOL    HW240871  12.943  11.193   4.428  0.4857  2.3478  1.7020
74421SOL     OW40872   1.384   4.414  11.432 -0.5786 -0.6450 -0.0608
74421SOL    HW140873   1.434   4.400  11.352 -1.1125 -0.3390 -0.4495
74421SOL    HW240874   1.451   4.417  11.501 -0.0437 -0.0364 -0.5965
74422SOL     OW40875   8.370   5.134   0.351  0.4319  0.0969  0.1012
74422SOL    HW140876   8.306   5.149   0.281  1.2210  2.2667 -0.2549
74422SOL    HW240877   8.317   5.115   0.428 -0.5504 -0.2407 -0.6370
74423SOL     OW40878   9.603   7.017   3.209 -0.2247 -0.6505 -0.2052
74423SOL    HW140879   9.515   6.991   3.235  0.3923 -2.1573  0.5047
74423SOL    HW240880   9.590   7.092   3.152 -1.9728 -0.9343 -0.2361
74424SOL     OW40881  13.221   9.625  12.417  0.0784  0.1597 -0.3064
74424SOL    HW140882  13.231   9.537  12.454 -0.5703 -0.5061 -1.6636
74424SOL    HW240883  13.304   9.668  12.438  1.3423 -1.5205 -1.5394
74425SOL     OW40884   2.669   6.791  13.600  0.1085 -0.1111  0.2016
74425SOL    HW140885   2.610   6.724  13.565  0.5143 -0.7240  0.6615
74425SOL    HW240886   2.705   6.835  13.523 -1.3391  0.6293 -0.0804
74426SOL     OW40887  13.562   8.731  12.182 -0.0065 -0.4311 -0.0009
74426SOL    HW140888  13.637   8.717  12.240  2.0703  1.7828 -1.9621
74426SOL    HW240889  13.554   8.648  12.134  1.5458 -0.5470 -0.1190
74427SOL     OW40890   1.961   2.442   0.510 -0.5026  0.3662 -0.0689
74427SOL    HW140891   1.944   2.524   0.557  0.9519  0.5309  0.2114
74427SOL    HW240892   1.940   2.373   0.573  2.8220  0.5787  1.5010
74428SOL     OW40893   4.118   2.527  13.722 -0.0385 -0.2831  0.3036
74428SOL    HW140894   4.054   2.581  13.768  1.4139  0.6978  1.2535
74428SOL    HW240895   4.201   2.542  13.768  0.7121 -2.2823 -0.2450
74429SOL     OW40896  12.830   0.502  12.801  0.0489 -0.6024  0.0686
74429SOL    HW140897  12.809   0.594  12.814  0.7585 -0.5153  0.6725
74429SOL    HW240898  12.869   0.499  12.714 -1.3225 -0.5789 -0.5603
74430SOL     OW40899   7.102  13.224   0.836 -0.2876 -1.1666 -0.1952
74430SOL    HW140900   7.138  13.195   0.752  0.3739 -0.0854 -0.3144
74430SOL    HW240901   7.039  13.292   0.812  1.1984  0.4382  0.2210
74431SOL     OW40902   1.501  13.073   9.109 -0.3648 -0.2412  0.0148
74431SOL    HW140903   1.422  13.043   9.154 -0.3690 -0.4434 -0.1264
74431SOL    HW240904   1.541  12.993   9.075  0.2096 -0.2009  0.5783
74432SOL     OW40905  13.411  11.266   0.106  0.8038 -0.3131 -0.0061
74432SOL    HW140906  13.442  11.234   0.190 -0.4600 -1.6763 -0.0154
74432SOL    HW240907  13.343  11.330   0.128  0.7951 -0.3282  0.0109
74433SOL     OW40908   5.730   3.885  10.074  0.2760  0.4445 -0.0900
74433SOL    HW140909   5.803   3.827  10.096 -0.0980 -0.2116 -0.5569
74433SOL    HW240910   5.746   3.912   9.984 -1.3982 -1.8176 -1.1506
74434SOL     OW40911   0.260   8.238  13.836 -0.4180 -0.0755 -0.1951
74434SOL    HW140912   0.293   8.303  13.898 -0.4768  0.1634 -0.4125
74434SOL    HW240913   0.320   8.243  13.762 -0.0696 -0.6937  0.0386
74435SOL     OW40914   4.617  12.399  12.294 -0.5136 -0.2538 -0.0045
74435SOL    HW140915   4.532  12.380  12.253 -0.3517 -1.4467  0.1902
74435SOL    HW240916   4.616  12.348  12.375  0.3034 -0.0856  0.1134
74436SOL     OW40917   4.153   9.949   4.018 -0.2373  0.1783  0.4920
74436SOL    HW140918   4.069   9.966   3.975 -0.2166  1.1829  0.8286
74436SOL    HW240919   4.175   9.859   3.992 -0.0741  0.8345 -1.8551
74437SOL     OW40920   8.678   0.179   7.812 -0.3107  0.7995  0.1307
74437SOL    HW140921   8.592   0.191   7.771 -0.3000 -0.5400 -0.3378
74437SOL    HW240922   8.686   0.084   7.824  0.2762  1.0367  1.9958
74438SOL     OW40923   6.587   9.531  13.447 -0.0619  0.8354 -0.1111
74438SOL    HW140924   6.594   9.451  13.499  2.7223  1.0137 -0.0276
74438SOL    HW240925   6.603   9.602  13.510  0.9475  1.2087 -0.7608
74439SOL     OW40926  10.523   2.522   8.251  0.1012  0.4064  0.6016
74439SOL    HW140927  10.560   2.553   8.334  0.3769  2.8534 -0.3417
74439SOL    HW240928  10.591   2.541   8.186 -1.6071  2.4110 -0.7444
74440SOL     OW40929   9.542  13.729   8.249  0.0942 -0.4567 -0.1697
74440SOL    HW140930   9.532  13.635   8.238 -1.1780 -0.4034  0.3152
74440SOL    HW240931   9.630  13.740   8.285  0.1293 -1.4857  0.0894
74441SOL     OW40932   3.033  13.012  11.763  0.2022  0.2086 -0.0671
74441SOL    HW140933   3.023  13.053  11.849  1.0001 -0.0631  0.1697
74441SOL    HW240934   3.016  12.919  11.779 -1.0977  0.3615 -0.5007
74442SOL     OW40935   1.883   1.860  10.233  0.6124  0.0464  0.1200
74442SOL    HW140936   1.936   1.924  10.281 -0.2124 -0.4612  1.7816
74442SOL    HW240937   1.930   1.777  10.243  0.7680  0.0513 -0.5209
74443SOL     OW40938  11.071   4.668   0.118 -0.4046 -1.2587 -0.3096
74443SOL    HW140939  11.109   4.664   0.030 -0.1089 -0.8725 -0.2046
74443SOL    HW240940  11.121   4.737   0.162 -1.4359 -0.5175 -0.2614
74444SOL     OW40941   2.909   2.607  13.809  0.2580  0.1770 -0.1676
74444SOL    HW140942   2.842   2.552  13.849  0.5617  1.3006  2.0511
74444SOL    HW240943   2.865   2.691  13.793  0.3418 -0.0244 -1.6197
74445SOL     OW40944   9.951  11.137   1.260  0.1977  0.0198 -0.0234
74445SOL    HW140945  10.035  11.178   1.281  0.3647  0.2688 -1.1403
74445SOL    HW240946   9.940  11.069   1.327  0.8771  0.5450  0.6361
74446SOL     OW40947   5.694   6.488  13.829  0.3886 -0.3762  0.2621
74446SOL    HW140948   5.711   6.502  13.736 -0.9232  0.8966  0.1838
74446SOL    HW240949   5.687   6.392  13.837  0.6263 -0.5103 -0.9168
74447SOL     OW40950  10.967  10.132  10.536  0.3230  0.4117  0.3045
74447SOL    HW140951  10.905  10.203  10.550  0.8646  0.6559  1.5911
74447SOL    HW240952  10.953  10.073  10.610  0.5475 -0.3259 -0.2317
74448SOL     OW40953  11.004   2.343   0.536  0.1878 -0.4635 -0.1291
74448SOL    HW140954  11.095   2.368   0.520  0.0977  2.1165  2.4832
74448SOL    HW240955  10.956   2.373   0.458  1.2193  0.7674 -0.3222
74449SOL     OW40956  12.878   2.970   6.064  0.3151 -1.1113 -0.3332
74449SOL    HW140957  12.837   2.955   6.150  0.1292 -2.0689 -0.5765
74449SOL    HW240958  12.948   2.906   6.059  0.6171 -0.7589 -0.7227
74450SOL     OW40959   0.660   6.551  12.221  0.5241 -0.3893 -0.2684
74450SOL    HW140960   0.755   6.541  12.220  0.7238 -1.4384  4.2603
74450SOL    HW240961   0.626   6.462  12.209  0.2693 -0.3455  0.0874
74451SOL     OW40962   3.529   2.811  12.414  0.8297  0.1433  0.3180
74451SOL    HW140963   3.598   2.822  12.480 -0.6825  0.5692  1.8975
74451SOL    HW240964   3.508   2.900  12.387  1.5889 -0.0386 -0.9557
74452SOL     OW40965   6.213  10.851  12.907 -0.4918 -0.2449  0.3622
74452SOL    HW140966   6.206  10.947  12.900 -1.2292 -0.3320 -0.2636
74452SOL    HW240967   6.132  10.825  12.952  0.5660 -0.4248  2.2602
74453SOL     OW40968   8.101   8.851   5.916 -0.4972 -0.3660  0.1050
74453SOL    HW140969   8.080   8.899   5.996  1.0607  0.3819  0.1058
74453SOL    HW240970   8.196   8.843   5.917 -0.1454  1.7021 -2.7683
74454SOL     OW40971   5.853   5.294   4.802  0.3819 -0.5498  0.6602
74454SOL    HW140972   5.832   5.316   4.711  0.0519 -1.2539  0.5528
74454SOL    HW240973   5.873   5.377   4.844 -1.0341 -0.0280  0.3500
74455SOL     OW40974   2.790   8.935   1.356  0.4757  0.0526 -1.2393
74455SOL    HW140975   2.867   8.915   1.409 -1.2838  0.0039  1.5140
74455SOL    HW240976   2.782   8.861   1.296  1.6763 -0.7006 -0.5016
74456SOL     OW40977   3.952   1.611   7.114 -0.0493 -0.0600  0.0018
74456SOL    HW140978   3.970   1.624   7.021 -0.0058  0.9625  0.1488
74456SOL    HW240979   3.881   1.672   7.135 -0.7328 -0.9686  0.4292
74457SOL     OW40980  11.942  10.467  12.940  0.0321  0.3873  0.5759
74457SOL    HW140981  12.027  10.426  12.924 -0.7626 -0.7349 -0.9926
74457SOL    HW240982  11.930  10.528  12.867 -0.5481  0.4721  0.7361
74458SOL     OW40983   1.438   8.246   6.547  0.4489 -0.1193 -0.0971
74458SOL    HW140984   1.487   8.322   6.515 -0.2592  0.1768 -0.4965
74458SOL    HW240985   1.406   8.202   6.468  0.2361 -0.4193  0.1491
74459SOL     OW40986   5.686  12.013   4.542  0.4229 -0.2685 -0.4052
74459SOL    HW140987   5.752  11.992   4.609 -0.3101  1.6523  1.0012
74459SOL    HW240988   5.734  12.009   4.460  2.0722  0.1414  0.4846
74460SOL     OW40989  10.790  13.813   3.513 -0.2714 -0.0313  0.6081
74460SOL    HW140990  10.797  13.735   3.568  0.4056 -1.1416 -0.9931
74460SOL    HW240991  10.725  13.790   3.447  0.7481  0.3345 -0.5442
74461SOL     OW40992   6.622   5.931   4.550 -0.1327 -0.0413 -0.1142
74461SOL    HW140993   6.688   5.912   4.616  1.6658  2.6302 -0.9415
74461SOL    HW240994   6.654   5.889   4.470  0.2234  0.6202 -0.3334
74462SOL     OW40995  12.945   6.961   8.498 -0.0360  0.2520  1.0231
74462SOL    HW140996  13.025   6.986   8.453  0.3907  0.0233  1.6440
74462SOL    HW240997  12.974   6.926   8.582 -0.8639  1.6531  1.9416
74463SOL     OW40998   7.639  13.936   4.185 -0.2540  0.6344  0.6166
74463SOL    HW140999   7.695  13.858   4.184  0.1758  0.7589 -3.5321
74463SOL    HW241000   7.550  13.903   4.173 -0.5398  0.7160  2.2045
74464SOL     OW41001   2.045   9.417   6.119  0.2084 -0.0102 -0.4131
74464SOL    HW141002   2.036   9.364   6.040 -0.0677  0.6931 -0.8693
74464SOL    HW241003   2.046   9.507   6.087  2.5675  0.2344  0.1642
74465SOL     OW41004   1.933   5.547   8.557 -0.1944 -0.5584 -0.2258
74465SOL    HW141005   1.903   5.635   8.579 -0.3497 -0.8064  0.5806
74465SOL    HW241006   1.941   5.547   8.461 -0.3762  0.2682 -0.2440
74466SOL     OW41007   7.522   3.326   2.992 -0.2054 -0.6610  0.6000
74466SOL    HW141008   7.543   3.239   3.024 -0.7092  0.0346  2.9668
74466SOL    HW241009   7.447   3.354   3.044 -0.3928  0.9846 -0.4668
74467SOL     OW41010   8.333   6.863   0.052  0.1346  0.6572  0.1583
74467SOL    HW141011   8.302   6.953   0.056 -0.7361  0.4203 -1.0320
74467SOL    HW241012   8.404   6.864  -0.012  0.5497  0.5992  0.6044
74468SOL     OW41013  10.462   2.498   1.511 -0.2346  0.3033 -0.0796
74468SOL    HW141014  10.445   2.591   1.529 -0.2970  0.3829 -0.5378
74468SOL    HW241015  10.541   2.478   1.562 -0.9402  0.2716  1.0256
74469SOL     OW41016   2.919   1.225   6.549 -0.4022 -0.7501  0.3897
74469SOL    HW141017   2.923   1.242   6.643 -1.7825  0.9119  0.1849
74469SOL    HW241018   2.869   1.144   6.541  0.7405 -1.5608  1.1001
74470SOL     OW41019  11.743   6.441   2.065  0.1236  0.3134  0.4383
74470SOL    HW141020  11.669   6.415   2.119 -0.1163  0.8356  0.3619
74470SOL    HW241021  11.792   6.360   2.051  0.1375  0.1523  1.3604
74471SOL     OW41022   8.626   3.688  13.281 -0.6134  0.0101  0.2292
74471SOL    HW141023   8.632   3.782  13.297  2.2346 -0.0644  0.2083
74471SOL    HW241024   8.713   3.664  13.249 -1.5510 -2.4832 -0.7381
74472SOL     OW41025  13.337   6.743   8.783  0.1719 -0.1025  0.2988
74472SOL    HW141026  13.422   6.785   8.771  0.2661 -0.4400 -0.2700
74472SOL    HW241027  13.358   6.651   8.797 -0.0149  0.0621  1.8291
74473SOL     OW41028   7.672   6.000   1.640  0.4674 -0.1292  0.1857
74473SOL    HW141029   7.754   6.030   1.602 -1.1815  1.8765 -2.1512
74473SOL    HW241030   7.665   6.049   1.722  0.6574  1.4069 -0.6634
74474SOL     OW41031   9.779  12.636   4.831  0.2097 -0.1340 -0.3261
74474SOL    HW141032   9.743  12.581   4.901 -0.5180 -1.0145 -1.3607
74474SOL    HW241033   9.874  12.624   4.837  0.2026  0.2489  0.8520
74475SOL     OW41034   0.990   0.477   7.545  0.1535  0.0851  0.0983
74475SOL    HW141035   0.945   0.407   7.498 -0.0912 -0.7479  1.5145
74475SOL    HW241036   1.045   0.432   7.610 -0.4746  1.1919  1.4611
74476SOL     OW41037  12.620   3.549   1.979 -0.4712  0.1266 -0.0688
74476SOL    HW141038  12.636   3.606   1.904  0.0769  1.3747  0.9684
74476SOL    HW241039  12.535   3.577   2.013 -0.0794  0.5177  0.6007
74477SOL     OW41040  11.856  12.640   8.187 -0.0560 -0.2333 -0.2291
74477SOL    HW141041  11.844  12.606   8.098  1.3747 -0.3845 -0.4004
74477SOL    HW241042  11.859  12.562   8.242  0.4663 -0.2297 -0.2478
74478SOL     OW41043   5.331  12.739   5.040  0.5133  0.6218 -0.0145
74478SOL    HW141044   5.347  12.765   4.950  2.0461  1.2002  0.3894
74478SOL    HW241045   5.382  12.659   5.051  0.3585  0.5702  0.3542
74479SOL     OW41046   4.713   8.793   2.996 -0.1935 -0.0018 -0.0689
74479SOL    HW141047   4.732   8.885   3.012 -2.8673  0.3589  1.7163
74479SOL    HW241048   4.652   8.793   2.922 -0.2955 -0.2879  0.0119
74480SOL     OW41049  10.919  14.086  10.457 -0.3212  0.1659 -0.9494
74480SOL    HW141050  10.838  14.052  10.420 -0.8660 -0.1441  0.4366
74480SOL    HW241051  10.895  14.171  10.494 -0.5604 -0.7805  1.2312
74481SOL     OW41052   9.335   0.545  12.449  0.2635 -0.0964 -0.3115
74481SOL    HW141053   9.383   0.587  12.378  2.3103  0.0256  1.0538
74481SOL    HW241054   9.251   0.521  12.411  0.3449  2.1251 -2.0846
74482SOL     OW41055  13.750   1.589  12.087  0.1862  0.4862 -0.2577
74482SOL    HW141056  13.829   1.629  12.050 -0.1168  0.8198 -0.5513
74482SOL    HW241057  13.684   1.601  12.019 -0.4189  1.2215  0.4489
74483SOL     OW41058   9.057   5.903   3.726  0.2136 -0.5232  0.0697
74483SOL    HW141059   9.151   5.915   3.741 -0.0757 -0.1594  1.7167
74483SOL    HW241060   9.050   5.818   3.683  1.2075 -1.0808  0.9718
74484SOL     OW41061   0.198   0.782   7.822  0.1236  0.3424  0.1280
74484SOL    HW141062   0.161   0.842   7.887  0.1005 -0.6053  1.0241
74484SOL    HW241063   0.204   0.698   7.868  1.1646 -0.0905 -0.7508
74485SOL     OW41064   2.246   9.388  11.043  0.0456 -0.0078  0.5694
74485SOL    HW141065   2.273   9.400  11.134 -1.9379  1.7499  1.0205
74485SOL    HW241066   2.162   9.433  11.037 -0.8456 -1.7441 -1.6702
74486SOL     OW41067   1.652   4.035  10.187  0.4884 -0.3179  0.1473
74486SOL    HW141068   1.573   3.982  10.203  1.1741 -2.1549 -2.0393
74486SOL    HW241069   1.629   4.089  10.111  0.2398  1.7549  1.5952
74487SOL     OW41070   4.215   6.282   3.254 -0.5481  0.1699 -0.1778
74487SOL    HW141071   4.236   6.309   3.343  0.9137 -0.4974 -0.2862
74487SOL    HW241072   4.205   6.364   3.206 -2.6490  0.5610  0.8432
74488SOL     OW41073   6.045  11.417   3.587 -0.6152 -0.0587 -0.7883
74488SOL    HW141074   6.017  11.495   3.636  1.4490  0.7084 -0.7633
74488SOL    HW241075   5.984  11.411   3.514 -1.1898  1.2003 -0.4305
74489SOL     OW41076   6.253  10.742   5.336  0.0176  0.6989  0.2318
74489SOL    HW141077   6.281  10.833   5.344 -2.3503  1.4657  0.4586
74489SOL    HW241078   6.236  10.714   5.426 -0.4952  0.4450  0.0587
74490SOL     OW41079   4.601   0.511   8.432 -0.2601 -0.1766  0.1894
74490SOL    HW141080   4.689   0.544   8.414 -0.0591 -1.2704 -0.9351
74490SOL    HW241081   4.612   0.417   8.446 -0.6036  0.2242  4.7467
74491SOL     OW41082  13.192   1.555   8.921 -0.5118 -0.5779 -0.4751
74491SOL    HW141083  13.277   1.510   8.920  0.8672  1.8378 -0.0839
74491SOL    HW241084  13.211   1.640   8.961 -2.4295  1.3548 -3.3321
74492SOL     OW41085   0.761   4.141   7.614 -0.1003  0.2549 -0.6308
74492SOL    HW141086   0.856   4.133   7.612 -0.0581  0.3282  0.4436
74492SOL    HW241087   0.732   4.067   7.667 -0.6777 -0.0209 -1.3270
74493SOL     OW41088   6.693  10.378  11.963 -0.4157  0.4922 -0.4637
74493SOL    HW141089   6.702  10.376  12.058  0.2022 -0.4293 -0.5357
74493SOL    HW241090   6.668  10.289  11.939  0.7037  0.3871 -1.2910
74494SOL     OW41091   4.217   9.794  13.567 -0.1059 -0.2515 -0.6020
74494SOL    HW141092   4.256   9.802  13.480  1.4008  1.1372  0.1447
74494SOL    HW241093   4.218   9.701  13.586 -0.1530 -0.5371 -1.9394
74495SOL     OW41094   3.735   7.479   0.550  0.8009  0.5709 -0.3231
74495SOL    HW141095   3.771   7.549   0.495  1.2450  0.3517 -0.3102
74495SOL    HW241096   3.808   7.420   0.565  0.1957 -0.4151 -1.1400
74496SOL     OW41097   1.491   0.612   8.146  0.3160  0.5601  0.3556
74496SOL    HW141098   1.494   0.545   8.078 -0.4588  0.2539  0.6109
74496SOL    HW241099   1.398   0.634   8.154  0.2379 -0.1831  2.0519
74497SOL     OW41100   5.025  10.642  10.851  0.3531 -0.1720 -0.2430
74497SOL    HW141101   5.029  10.707  10.920  1.0435 -0.6895  0.2191
74497SOL    HW241102   4.942  10.659  10.806 -0.4587 -0.2718  1.1501
74498SOL     OW41103   3.689   4.620   2.396 -0.4286 -0.7049 -0.0205
74498SOL    HW141104   3.695   4.525   2.389 -0.2754 -0.7165  0.2817
74498SOL    HW241105   3.664   4.649   2.308  1.0365 -0.8974 -0.5197
74499SOL     OW41106   6.818  13.653   5.746 -0.0359 -0.3047 -0.4216
74499SOL    HW141107   6.849  13.677   5.658  0.1294 -0.6107 -0.4466
74499SOL    HW241108   6.828  13.734   5.797 -1.5858  0.3321 -1.0598
74500SOL     OW41109  13.715   9.520   8.555 -0.1739 -0.1578 -0.0889
74500SOL    HW141110  13.715   9.584   8.484 -0.1188 -0.3634 -0.2782
74500SOL    HW241111  13.639   9.465   8.538 -1.7517  1.3941  1.5080
74501SOL     OW41112   7.421  11.787   3.232 -0.1415 -0.0335  0.6440
74501SOL    HW141113   7.387  11.703   3.204  1.8538 -0.0302 -2.2290
74501SOL    HW241114   7.486  11.810   3.165  1.3453  2.5155  2.7745
74502SOL     OW41115   9.611   4.024   8.501  0.9962 -0.0384  0.0425
74502SOL    HW141116   9.703   4.051   8.493  0.7316  0.9626  0.1779
74502SOL    HW241117   9.578   4.022   8.411  1.6216 -2.2328 -0.1831
74503SOL     OW41118   3.691  12.673   7.114  0.0399 -0.1944  0.5647
74503SOL    HW141119   3.737  12.753   7.138 -0.2887 -0.0660  0.7846
74503SOL    HW241120   3.722  12.608   7.177  0.0951 -0.1672  0.5657
74504SOL     OW41121  10.064  13.430   2.327  0.1051  0.3248  0.5745
74504SOL    HW141122  10.012  13.356   2.358  1.2502 -0.5410  0.5196
74504SOL    HW241123  10.148  13.391   2.300 -0.2701  1.2213 -2.2069
74505SOL     OW41124  14.070   7.481   8.494 -0.2702  0.4223  0.2835
74505SOL    HW141125  14.082   7.557   8.437  1.8251 -0.3231 -0.3767
74505SOL    HW241126  14.098   7.511   8.580  3.8000 -0.3366 -0.5804
74506SOL     OW41127  11.979  11.862  11.794  0.6014  0.1367 -0.5957
74506SOL    HW141128  11.976  11.846  11.700 -2.1981  1.7703 -0.8973
74506SOL    HW241129  11.934  11.788  11.833 -0.4912  0.6596 -0.8163
74507SOL     OW41130   0.582   9.700  11.838 -0.1900  0.2821  0.1022
74507SOL    HW141131   0.523   9.628  11.860  1.4233 -1.5977 -1.4225
74507SOL    HW241132   0.666   9.675  11.875  0.4861  1.1831 -0.7668
74508SOL     OW41133   5.911   4.580  12.122  0.0464 -0.9965 -0.1630
74508SOL    HW141134   6.005   4.595  12.117  0.0374 -1.2981 -1.5401
74508SOL    HW241135   5.875   4.663  12.151  0.5715 -0.2999 -1.4674
74509SOL     OW41136   0.562   3.052   8.589  0.5636 -0.1693  0.6105
74509SOL    HW141137   0.525   2.968   8.564 -0.2373  0.4235 -0.2361
74509SOL    HW241138   0.579   3.044   8.683  0.9697 -1.4356  0.4454
74510SOL     OW41139   7.448  11.407   1.341  0.4297  0.5336 -0.1499
74510SOL    HW141140   7.437  11.439   1.431 -1.6650 -1.0763  0.2317
74510SOL    HW241141   7.372  11.439   1.294 -1.4817 -3.1102  0.1107
74511SOL     OW41142   7.177   2.047   0.247 -0.6457 -0.0686 -0.0051
74511SOL    HW141143   7.222   1.963   0.248  0.6217  0.4800 -2.8765
74511SOL    HW241144   7.225   2.101   0.310  0.6969 -0.4817 -0.6520
74512SOL     OW41145   8.771   8.975  13.958 -0.0603 -0.0490  0.2022
74512SOL    HW141146   8.757   9.061  13.997 -1.3067 -0.3425  0.4447
74512SOL    HW241147   8.726   8.914  14.016 -1.4973 -0.5586 -1.3444
74513SOL     OW41148   7.045   9.923  13.923  0.5403  0.4081 -0.2189
74513SOL    HW141149   6.969   9.888  13.970  0.5352 -0.3405 -0.7702
74513SOL    HW241150   7.034   9.893  13.833  2.4100 -1.2949  0.0452
74514SOL     OW41151   3.522   4.698   0.253 -0.0695  0.1742  0.1559
74514SOL    HW141152   3.607   4.657   0.269 -0.3498  0.0444  1.4061
74514SOL    HW241153   3.543   4.775   0.199  1.0835  1.0543  1.7580
74515SOL     OW41154  12.941   8.434   9.796 -0.1118 -0.7539  0.2043
74515SOL    HW141155  13.011   8.460   9.857  0.4652 -3.1528  0.6403
74515SOL    HW241156  12.986   8.384   9.728 -1.2638 -1.3772 -0.1210
74516SOL     OW41157   6.602   9.567  13.939 -0.4408  0.1933  0.0496
74516SOL    HW141158   6.601   9.663  13.938 -0.0151  0.2415  1.5755
74516SOL    HW241159   6.694   9.544  13.946 -0.4830 -0.3680 -1.0389
74517SOL     OW41160   7.314   3.883   9.766 -0.0237  0.1682  0.5428
74517SOL    HW141161   7.379   3.952   9.781  1.1660 -1.2807  2.5024
74517SOL    HW241162   7.256   3.888   9.842  1.2976 -2.2045  1.8145
74518SOL     OW41163   5.498   3.599   4.309  0.1258 -0.3419  0.5197
74518SOL    HW141164   5.475   3.689   4.284 -0.5006 -0.6153  0.0699
74518SOL    HW241165   5.593   3.600   4.318  0.4179 -0.2067 -1.9193
74519SOL     OW41166   7.003   9.490   2.958 -0.3131  0.2746  0.1468
74519SOL    HW141167   6.915   9.521   2.937  0.3531  1.9570 -0.2746
74519SOL    HW241168   7.031   9.545   3.031  0.3506 -0.3300  0.3569
74520SOL     OW41169   6.111   4.187   9.936 -0.3856  0.4505 -0.1013
74520SOL    HW141170   6.198   4.180   9.896  0.1784  1.9309  0.7746
74520SOL    HW241171   6.078   4.272   9.907 -0.4041  1.0886  1.6734
74521SOL     OW41172   5.094   1.013  13.686 -0.4725 -0.7167 -0.4298
74521SOL    HW141173   5.095   1.109  13.693  2.1870 -0.7791  1.6562
74521SOL    HW241174   5.007   0.987  13.717 -0.5377  0.9438  0.8998
74522SOL     OW41175  13.004   9.104   4.793  1.2732  0.8716 -0.5174
74522SOL    HW141176  12.928   9.149   4.829  0.2618 -0.1696 -1.2793
74522SOL    HW241177  13.000   9.016   4.831  1.3457  0.4024 -1.5519
74523SOL     OW41178   9.233   2.253  12.563  0.0197  0.2252 -0.2094
74523SOL    HW141179   9.191   2.233  12.479  1.9787 -1.7971 -0.7945
74523SOL    HW241180   9.308   2.309  12.539  0.5951 -0.3723  0.1713
74524SOL     OW41181   5.521   5.080   2.150 -0.7930  1.2148  0.4770
74524SOL    HW141182   5.477   5.073   2.065  1.6337  1.1774 -0.8669
74524SOL    HW241183   5.517   4.991   2.187 -1.4932  1.1368  0.2256
74525SOL     OW41184   0.210   3.544   1.539  0.7590 -0.7445  0.5484
74525SOL    HW141185   0.202   3.470   1.479 -0.6502 -1.9240  2.0949
74525SOL    HW241186   0.162   3.516   1.617  0.3917  1.7144  1.2742
74526SOL     OW41187   1.593  13.375   2.520 -0.3900  0.1437 -0.1973
74526SOL    HW141188   1.506  13.362   2.482 -0.5002 -0.9323  0.3862
74526SOL    HW241189   1.592  13.324   2.601  0.4821  0.8654  0.2871
74527SOL     OW41190   7.831   0.690   7.406  0.7238 -0.3522  0.0289
74527SOL    HW141191   7.829   0.664   7.498  2.1811 -0.4403  0.0654
74527SOL    HW241192   7.782   0.772   7.402 -0.3686 -0.9616  0.6589
74528SOL     OW41193   5.777   7.164   5.056 -0.3793  0.2726  0.1131
74528SOL    HW141194   5.835   7.096   5.090 -0.3066  0.2649 -0.0263
74528SOL    HW241195   5.693   7.147   5.099 -0.1905  0.4991  0.5867
74529SOL     OW41196   1.276   3.973   3.491  0.4479  0.2510 -0.4358
74529SOL    HW141197   1.222   4.046   3.521 -0.8827 -0.5344 -0.8041
74529SOL    HW241198   1.231   3.942   3.412  0.4105 -1.5613  0.2397
74530SOL     OW41199  12.721   0.367   5.572 -0.8396 -0.5168 -0.3097
74530SOL    HW141200  12.773   0.365   5.652  0.3531 -0.0550 -1.0305
74530SOL    HW241201  12.774   0.318   5.509 -1.3322 -0.1232 -1.0454
74531SOL     OW41202   5.576   7.557   4.919  0.2082 -0.5088  0.2256
74531SOL    HW141203   5.576   7.479   4.864  0.6982 -0.8297  0.6783
74531SOL    HW241204   5.570   7.524   5.009  0.0568 -0.0101  0.4039
74532SOL     OW41205  14.091   6.853   4.252  0.0894 -0.2507  0.5699
74532SOL    HW141206  14.094   6.813   4.339 -0.2258 -0.4107  0.5105
74532SOL    HW241207  14.096   6.780   4.191  1.2058 -0.0780  0.4344
74533SOL     OW41208   8.363  12.287   7.966 -0.2745  0.2092  0.2191
74533SOL    HW141209   8.291  12.247   8.015  0.4433  0.8048  1.8363
74533SOL    HW241210   8.438  12.281   8.025  0.5469  1.3245 -0.6693
74534SOL     OW41211  11.666   3.409  13.337  0.2698 -0.3687 -0.1123
74534SOL    HW141212  11.719   3.387  13.414 -0.0521 -0.6905  0.0215
74534SOL    HW241213  11.710   3.484  13.298  0.5293 -0.3027  0.2985
74535SOL     OW41214   0.548  13.899   3.536  0.4522  0.1263  0.5692
74535SOL    HW141215   0.469  13.941   3.502  0.0912 -0.7032  0.3657
74535SOL    HW241216   0.604  13.886   3.460  1.5739  2.3139  0.9508
74536SOL     OW41217   4.298   6.020   9.792 -0.3274 -0.3924 -1.0322
74536SOL    HW141218   4.229   6.080   9.821 -0.4832 -1.5588  1.1934
74536SOL    HW241219   4.257   5.934   9.796  1.1353 -1.0674 -0.0287
74537SOL     OW41220  13.655  10.504   7.900  0.0145  0.2947  0.5991
74537SOL    HW141221  13.580  10.448   7.876  1.9629 -2.5322  0.5898
74537SOL    HW241222  13.652  10.508   7.995 -0.9060  1.4118  0.5482
74538SOL     OW41223   8.280   8.116   7.530 -0.0092 -0.4670  0.3054
74538SOL    HW141224   8.260   8.150   7.618 -1.7975  1.1554 -0.6382
74538SOL    HW241225   8.370   8.145   7.514  0.0178  0.0392  1.2453
74539SOL     OW41226   6.012   9.024   1.079  0.1208  0.0474 -0.5470
74539SOL    HW141227   5.928   9.068   1.091  0.0288 -0.3866  0.5097
74539SOL    HW241228   5.992   8.931   1.088  0.6419 -0.0879 -0.7499
74540SOL     OW41229  12.197   1.187  13.798  0.1793  0.2321  0.9405
74540SOL    HW141230  12.106   1.188  13.768  0.5772 -1.3837 -0.5376
74540SOL    HW241231  12.228   1.277  13.785  0.0978 -0.1164 -3.1733
74541SOL     OW41232   8.885   2.111   1.847 -0.3812  0.1670  0.3771
74541SOL    HW141233   8.934   2.031   1.866  0.1476  0.3248 -0.2651
74541SOL    HW241234   8.810   2.082   1.796 -0.3284  0.0462  0.3690
74542SOL     OW41235   7.055   1.133  13.744 -0.5291 -0.5541  0.1121
74542SOL    HW141236   7.059   1.089  13.829  0.4827  0.1171  0.4339
74542SOL    HW241237   7.101   1.216  13.758 -0.8025 -0.2094 -0.9604
74543SOL     OW41238   4.297  10.190   2.275  0.2022 -0.1511 -0.5628
74543SOL    HW141239   4.311  10.106   2.232 -0.0150  0.5153 -2.0113
74543SOL    HW241240   4.375  10.205   2.327  0.0770 -1.4169  0.0045
74544SOL     OW41241   7.893  13.207  14.091  0.1849 -0.0387  0.0010
74544SOL    HW141242   7.969  13.162  14.127  0.0763  0.6280  1.1126
74544SOL    HW241243   7.820  13.147  14.106  0.3702 -0.3631 -0.3905
74545SOL     OW41244   8.733   0.976   6.873 -0.5037 -0.1295  0.1224
74545SOL    HW141245   8.777   1.059   6.894 -0.0964  0.1849 -1.7751
74545SOL    HW241246   8.669   1.000   6.806 -3.7534 -0.5558  2.7727
74546SOL     OW41247   0.738   0.561   6.718 -0.0989 -0.3856 -0.4311
74546SOL    HW141248   0.730   0.466   6.715  0.6537 -0.4509 -0.7207
74546SOL    HW241249   0.827   0.576   6.749 -0.0019  0.2190 -0.9810
74547SOL     OW41250   5.838   0.029   1.395 -0.3007 -0.4029 -0.1294
74547SOL    HW141251   5.841  -0.038   1.462  2.5340  0.0262  0.3012
74547SOL    HW241252   5.884  -0.009   1.320 -4.2060 -1.2361 -2.3472
74548SOL     OW41253  12.910  11.795   8.483  0.4034  0.7922 -1.0431
74548SOL    HW141254  12.883  11.801   8.391 -1.1216  1.5437 -0.5897
74548SOL    HW241255  12.959  11.876   8.499 -0.7046  1.4508 -0.8177
74549SOL     OW41256   8.341   6.251   9.926 -0.4482 -0.5252  0.5566
74549SOL    HW141257   8.379   6.237  10.012 -0.2298 -0.7614  0.4238
74549SOL    HW241258   8.413   6.237   9.865 -0.3694  0.5572  0.3782
74550SOL     OW41259   3.294   3.521   3.543  0.2880  0.0762  0.4311
74550SOL    HW141260   3.250   3.436   3.538 -1.4893  0.9904 -0.6420
74550SOL    HW241261   3.314   3.541   3.451 -0.9845  1.5998  0.4518
74551SOL     OW41262   9.459   1.996   8.150 -0.3964  0.4000  0.0800
74551SOL    HW141263   9.478   1.915   8.103 -0.7409  0.8337 -0.8233
74551SOL    HW241264   9.514   1.992   8.228 -0.4219 -0.7089  0.0536
74552SOL     OW41265   8.956   3.802  13.489 -0.0606 -0.0732  0.0885
74552SOL    HW141266   8.977   3.893  13.466 -0.9253 -0.4081 -2.3972
74552SOL    HW241267   9.041   3.761  13.504  0.6101  0.4688 -1.8509
74553SOL     OW41268   2.210   4.249   8.720  0.1015 -0.4850 -0.1066
74553SOL    HW141269   2.161   4.194   8.659  1.9498 -1.6585 -0.6134
74553SOL    HW241270   2.261   4.187   8.772 -0.9049  0.5194  2.2442
74554SOL     OW41271   2.584   1.915  12.488 -0.3642  0.1261  0.3435
74554SOL    HW141272   2.563   1.879  12.574 -0.4677 -1.2716 -0.2292
74554SOL    HW241273   2.596   2.008  12.503  2.4300 -0.4329  2.3992
74555SOL     OW41274   7.502   5.069   1.818 -0.4826  0.4136  0.6556
74555SOL    HW141275   7.543   5.091   1.902  0.3542 -0.9577  0.6373
74555SOL    HW241276   7.496   4.974   1.819 -1.4475  0.4476 -0.4031
74556SOL     OW41277   1.534   0.878  13.728  0.6006 -0.4785  0.2111
74556SOL    HW141278   1.594   0.934  13.678  0.9362 -0.2697  0.8343
74556SOL    HW241279   1.508   0.810  13.666  3.2077 -1.8724  0.4962
74557SOL     OW41280   8.962  13.456   9.324  0.5245 -0.4217 -0.5105
74557SOL    HW141281   8.885  13.432   9.376 -0.6651  1.6174 -1.2371
74557SOL    HW241282   9.002  13.528   9.371  1.3616 -0.7249 -0.7344
74558SOL     OW41283  11.744   6.363   6.678  0.0342 -0.3611  0.6187
74558SOL    HW141284  11.747   6.443   6.626 -0.6727 -1.2216 -0.8037
74558SOL    HW241285  11.684   6.383   6.749 -0.4069  0.2667  0.0799
74559SOL     OW41286   7.212  10.437  13.266  0.1950  0.0515 -0.3856
74559SOL    HW141287   7.252  10.520  13.292  0.9982 -0.4883  0.1584
74559SOL    HW241288   7.124  10.441  13.302  0.3977  0.4615  0.0790
74560SOL     OW41289   1.305   6.331   2.381  0.9577 -0.0215  0.4912
74560SOL    HW141290   1.230   6.342   2.323  0.6039 -1.2266  0.7058
74560SOL    HW241291   1.330   6.239   2.371 -0.5167 -0.9279  3.8983
74561SOL     OW41292   2.158  13.531   8.081 -0.0020 -0.0977 -0.4913
74561SOL    HW141293   2.168  13.552   8.174 -0.9024 -0.5926 -0.2775
74561SOL    HW241294   2.074  13.569   8.056 -0.5724 -1.4258 -0.6717
74562SOL     OW41295   5.149  10.394   3.595 -0.4103  0.0913  0.5419
74562SOL    HW141296   5.178  10.395   3.504 -0.6601  1.1961  0.4616
74562SOL    HW241297   5.068  10.343   3.594  0.8250 -1.9803  0.5758
74563SOL     OW41298   8.095  11.122   5.850  0.3072  0.0323  0.0903
74563SOL    HW141299   8.056  11.052   5.797 -2.6367  0.3403  1.6172
74563SOL    HW241300   8.106  11.082   5.937  1.4408  0.6265  0.2336
74564SOL     OW41301   5.519   3.248   7.879  0.0927 -0.1666  0.2706
74564SOL    HW141302   5.439   3.213   7.839 -0.9434  1.9377  0.3901
74564SOL    HW241303   5.527   3.199   7.962  0.6254 -2.4577 -1.0416
74565SOL     OW41304   1.039   3.028  13.535 -0.2401  0.2102  0.5977
74565SOL    HW141305   1.099   3.078  13.480  1.2133  0.7306  2.5614
74565SOL    HW241306   0.988   2.976  13.474  1.9535  0.0215 -1.1731
74566SOL     OW41307   5.735   3.982   1.300 -0.0755 -0.5319 -0.2054
74566SOL    HW141308   5.702   4.070   1.281 -1.3460 -1.3763 -2.2968
74566SOL    HW241309   5.761   3.985   1.392 -2.7587  1.2465  0.6170
74567SOL     OW41310   7.054   0.537   9.080  0.3743 -0.2565  0.1040
74567SOL    HW141311   7.143   0.558   9.109 -0.7845  0.3924  3.7458
74567SOL    HW241312   7.038   0.450   9.117 -1.4902  0.9627  2.4619
74568SOL     OW41313   7.160   8.169   0.114  0.7934  0.2230 -0.7033
74568SOL    HW141314   7.194   8.227   0.182  0.7893  1.0432 -1.3875
74568SOL    HW241315   7.220   8.181   0.040 -0.2568  0.7525 -1.4916
74569SOL     OW41316   6.655   0.354   7.011 -0.5803 -0.1945 -0.1263
74569SOL    HW141317   6.678   0.301   6.934 -0.7911 -1.3378  0.5802
74569SOL    HW241318   6.564   0.332   7.029 -0.3285 -0.4623  0.8645
74570SOL     OW41319   9.106  10.037   1.164 -0.5727  0.3808  0.3403
74570SOL    HW141320   9.062   9.952   1.168  1.0691 -0.5346 -0.3299
74570SOL    HW241321   9.197  10.017   1.143  0.0471  2.2633  1.0075
74571SOL     OW41322   2.927  11.875  12.134  0.1342  0.1727  0.0823
74571SOL    HW141323   2.919  11.969  12.122 -0.6845  0.1055  0.0812
74571SOL    HW241324   2.881  11.837  12.060  2.6381 -0.2627 -1.3682
74572SOL     OW41325   8.162  14.007   6.546  0.0846  0.0142  0.3159
74572SOL    HW141326   8.155  13.938   6.480  1.1180 -0.4023  0.6146
74572SOL    HW241327   8.105  13.978   6.617  0.3723 -0.4518  0.3644
74573SOL     OW41328   8.430   6.424   8.596  0.0504 -0.1706 -0.5136
74573SOL    HW141329   8.517   6.432   8.635  0.9654 -2.8546 -1.7527
74573SOL    HW241330   8.443   6.445   8.504 -0.4914 -1.0579 -0.8076
74574SOL     OW41331  13.070   6.822   1.753 -0.5485 -0.5726 -0.4036
74574SOL    HW141332  13.126   6.762   1.704  0.4163 -0.0140 -0.0179
74574SOL    HW241333  13.103   6.909   1.730  0.4354 -0.2977  1.7527
74575SOL     OW41334  13.135   8.743   7.197  0.4301 -0.3378 -0.0448
74575SOL    HW141335  13.161   8.776   7.111  0.7454 -0.8215 -0.1360
74575SOL    HW241336  13.055   8.693   7.181  0.4207 -0.3253 -0.0356
74576SOL     OW41337  10.487   1.841   5.069 -0.3687  0.1059 -0.2227
74576SOL    HW141338  10.485   1.747   5.051 -0.0347 -0.0903  0.6975
74576SOL    HW241339  10.407   1.858   5.118  0.2094  0.0370  0.7704
74577SOL     OW41340  13.098   0.190  13.624  0.1973 -0.3316  0.1116
74577SOL    HW141341  13.021   0.237  13.658 -0.3411 -1.2457  0.1958
74577SOL    HW241342  13.101   0.109  13.675  1.1887 -0.3343  0.0587
74578SOL     OW41343   3.120   0.129   1.925  0.6727  0.5127 -0.4593
74578SOL    HW141344   3.061   0.203   1.913  1.7713  1.7325  1.1710
74578SOL    HW241345   3.178   0.131   1.848 -0.2833  0.3703 -1.1953
74579SOL     OW41346   8.051   8.800  12.175 -0.0849  0.2846  0.0140
74579SOL    HW141347   8.105   8.732  12.136 -2.9199 -2.6678  0.7626
74579SOL    HW241348   8.030   8.859  12.102  0.9444 -0.7016 -1.1216
74580SOL     OW41349   3.753  13.354   7.676 -0.2755 -0.1079  0.4419
74580SOL    HW141350   3.783  13.342   7.586 -0.7503 -0.3124  0.3087
74580SOL    HW241351   3.831  13.381   7.724  0.4371 -1.8250  0.3445
74581SOL     OW41352   2.453   9.764  10.768 -0.0657  0.0644  0.0497
74581SOL    HW141353   2.361   9.790  10.768  0.4133  2.1257 -1.9317
74581SOL    HW241354   2.460   9.701  10.696  0.0553 -0.1767  0.2698
74582SOL     OW41355   8.536  12.629  12.226  0.0368  0.1821  0.1944
74582SOL    HW141356   8.465  12.610  12.165 -0.2188  0.7231  0.3153
74582SOL    HW241357   8.610  12.656  12.171  0.7750 -2.1610 -0.0646
74583SOL     OW41358   6.697   0.697  11.764  0.4002 -0.1650  0.0423
74583SOL    HW141359   6.736   0.714  11.849  0.1848 -0.5507  0.2219
74583SOL    HW241360   6.626   0.635  11.782  0.6401 -0.5966 -0.4784
74584SOL     OW41361   0.528   9.393   5.487  0.1409  0.0534 -0.0846
74584SOL    HW141362   0.532   9.403   5.391 -1.4172 -1.6579 -0.3924
74584SOL    HW241363   0.527   9.483   5.520  2.1562  0.7011 -1.5500
74585SOL     OW41364   6.188  11.740  13.019 -0.4092 -0.6120  0.1245
74585SOL    HW141365   6.163  11.650  12.999  1.0354 -0.6763 -1.5557
74585SOL    HW241366   6.127  11.794  12.969  0.1249 -0.7034 -0.6346
74586SOL     OW41367   6.054  12.305   8.629 -0.3771 -0.1369 -0.4470
74586SOL    HW141368   6.102  12.292   8.711 -1.5613  0.8439  0.4360
74586SOL    HW241369   6.122  12.326   8.565  0.5274 -0.4344  0.3828
74587SOL     OW41370  12.056  10.287  13.454  0.1187  0.6414  0.3773
74587SOL    HW141371  12.069  10.382  13.447 -1.0462  0.8269  0.4607
74587SOL    HW241372  11.963  10.274  13.433  0.2012 -0.4550  0.6189
74588SOL     OW41373  10.397   3.447   5.771  0.2715  0.0650  0.2119
74588SOL    HW141374  10.490   3.458   5.790  0.2044 -0.5441  0.9165
74588SOL    HW241375  10.354   3.510   5.830  0.3319  2.1907 -1.8542
74589SOL     OW41376  10.109   3.979   2.345 -0.1091 -0.1912  0.1359
74589SOL    HW141377  10.117   4.004   2.437 -1.7427 -0.5310  0.3869
74589SOL    HW241378  10.154   4.049   2.298  1.7594 -0.5909  1.2178
74590SOL     OW41379  12.177   3.678   2.395 -0.9730 -0.0657 -0.2147
74590SOL    HW141380  12.190   3.680   2.490  1.5685 -1.8800 -0.4345
74590SOL    HW241381  12.246   3.735   2.360  1.0591 -2.8092 -1.0642
74591SOL     OW41382   5.030   5.684   1.065  0.1226 -0.0691 -0.5497
74591SOL    HW141383   4.938   5.691   1.088  0.4813 -0.5136  1.1609
74591SOL    HW241384   5.076   5.732   1.134  1.3413 -2.6298  0.5828
74592SOL     OW41385  12.867   4.354   7.227  0.3054  0.2146 -0.2379
74592SOL    HW141386  12.817   4.410   7.286  0.6966  1.2567 -0.8602
74592SOL    HW241387  12.839   4.265   7.248  1.2920  0.4459  2.3005
74593SOL     OW41388  11.294   0.340   2.658  0.7310 -0.4097 -0.2912
74593SOL    HW141389  11.371   0.308   2.706 -0.9328 -1.3581  1.9191
74593SOL    HW241390  11.250   0.260   2.629 -0.0804  0.0899 -0.4535
74594SOL     OW41391   9.212   6.706   9.764  0.5788 -0.0334 -0.3995
74594SOL    HW141392   9.198   6.799   9.745 -1.6896 -0.2200  0.1498
74594SOL    HW241393   9.239   6.669   9.681  1.0860  1.0305 -0.7315
74595SOL     OW41394  10.739  13.744  12.966 -0.0031  0.1357 -0.0468
74595SOL    HW141395  10.691  13.810  12.916  1.3926  0.5038 -0.9414
74595SOL    HW241396  10.672  13.701  13.019 -1.0396  1.8673  0.1165
74596SOL     OW41397   2.981   1.148   5.304 -0.0767 -0.6471  0.0275
74596SOL    HW141398   2.926   1.222   5.278  0.1454 -0.6607 -0.4881
74596SOL    HW241399   3.031   1.180   5.378  0.9026  0.1202 -0.9501
74597SOL     OW41400  12.773   8.809   8.501  0.1916  0.3196 -0.4410
74597SOL    HW141401  12.843   8.757   8.463  2.0390  1.6109  1.0204
74597SOL    HW241402  12.803   8.830   8.589 -3.8071 -2.4248  1.8973
74598SOL     OW41403  13.605   5.170   0.112  0.0745  0.7689  0.0664
74598SOL    HW141404  13.641   5.084   0.091  0.4494  0.8331  0.4286
74598SOL    HW241405  13.585   5.165   0.205 -1.1158  0.6491 -0.1830
74599SOL     OW41406   4.807   3.577   1.112 -0.2821 -0.1287 -0.2579
74599SOL    HW141407   4.725   3.605   1.071 -0.1508  0.4698 -0.1257
74599SOL    HW241408   4.876   3.617   1.059 -0.0769 -0.4358 -0.2291
74600SOL     OW41409  11.765   5.299   5.158  0.2515 -0.1327 -0.1631
74600SOL    HW141410  11.787   5.325   5.069  0.3759 -0.8143 -0.3420
74600SOL    HW241411  11.784   5.375   5.212  1.8822 -0.2859 -0.4810
74601SOL     OW41412  11.465  12.790   8.223  0.6103 -0.2949  0.0382
74601SOL    HW141413  11.523  12.783   8.299 -1.4350 -0.6587  1.6822
74601SOL    HW241414  11.420  12.874   8.235 -0.9021 -1.0840  0.1744
74602SOL     OW41415   9.206  14.020   0.318 -0.0024  0.6430 -0.1616
74602SOL    HW141416   9.131  14.073   0.348 -1.5664 -1.8095  0.5563
74602SOL    HW241417   9.224  14.053   0.231 -0.3161  2.9115  0.5537
74603SOL     OW41418  11.376   7.002  12.240  0.4347 -0.5818 -0.7457
74603SOL    HW141419  11.382   7.035  12.330 -0.7672 -1.3975 -0.3336
74603SOL    HW241420  11.436   7.058  12.190  0.0928  0.7962  0.3000
74604SOL     OW41421   6.761  12.305   7.741 -0.4840 -0.3458 -0.0349
74604SOL    HW141422   6.734  12.387   7.700  0.1525 -1.0422 -1.9503
74604SOL    HW241423   6.727  12.311   7.831 -1.0458  1.6901 -0.3247
74605SOL     OW41424   2.442   7.954   0.954  0.4215 -0.1303  0.7173
74605SOL    HW141425   2.420   7.887   1.019 -0.4599  0.4811  1.0817
74605SOL    HW241426   2.386   8.029   0.978  0.8733  0.4809 -0.0985
74606SOL     OW41427   7.517  11.868  10.217 -0.4065  0.4076  0.6341
74606SOL    HW141428   7.468  11.823  10.286 -0.8564 -0.5827 -0.2946
74606SOL    HW241429   7.608  11.839  10.231 -0.7363 -1.1343 -0.1577
74607SOL     OW41430   1.377   7.676  11.192 -0.1036  0.0847 -0.9007
74607SOL    HW141431   1.416   7.731  11.123  0.6164  0.1287 -0.4689
74607SOL    HW241432   1.413   7.711  11.273 -0.9473  0.0286 -0.4938
74608SOL     OW41433   3.142   5.765   6.694  0.4864 -0.1098 -0.4087
74608SOL    HW141434   3.160   5.739   6.604  1.1716 -2.1355  0.2259
74608SOL    HW241435   3.080   5.837   6.688 -0.8656 -1.3567 -2.4534
74609SOL     OW41436   2.721   3.932   9.048 -0.3255  0.2096  0.2055
74609SOL    HW141437   2.635   3.960   9.016 -0.3920  0.9941  1.0179
74609SOL    HW241438   2.734   3.845   9.010 -1.2293  0.3184 -0.3788
74610SOL     OW41439  10.040   7.868   3.485 -0.0081 -0.1259 -0.2395
74610SOL    HW141440  10.080   7.782   3.497 -0.8685 -0.8249 -2.0182
74610SOL    HW241441  10.087   7.925   3.546  2.1136 -1.3865 -0.5838
74611SOL     OW41442   8.702  10.484   6.401 -0.1770 -0.1291 -0.3297
74611SOL    HW141443   8.722  10.505   6.310 -0.4251  1.4002 -0.0576
74611SOL    HW241444   8.625  10.427   6.396  1.9286 -3.1325 -1.2046
74612SOL     OW41445  10.511   8.937   4.008  0.0011 -0.6345  0.2040
74612SOL    HW141446  10.546   8.929   3.919  1.1536  1.2532  0.4130
74612SOL    HW241447  10.487   8.848   4.033 -0.5854 -1.1853 -2.0671
74613SOL     OW41448  13.156   2.108  11.610  0.7874 -0.2072 -0.3008
74613SOL    HW141449  13.220   2.065  11.666 -0.5059 -0.7422  0.8131
74613SOL    HW241450  13.190   2.197  11.598  1.3769 -0.2687  0.8377
74614SOL     OW41451   2.443  12.373   3.984  0.2447 -0.2151 -0.2978
74614SOL    HW141452   2.442  12.329   4.069  1.5025 -0.7335 -0.5221
74614SOL    HW241453   2.454  12.302   3.921  0.0851  0.2315 -0.8351
74615SOL     OW41454   1.393   1.373   6.948  0.2944 -0.1256 -0.0576
74615SOL    HW141455   1.351   1.336   7.025  1.7839 -1.5773  0.1260
74615SOL    HW241456   1.348   1.330   6.874 -0.6141  0.6965 -0.0095
74616SOL     OW41457   7.968  13.257  12.831  0.1665  0.4241  0.6754
74616SOL    HW141458   7.956  13.351  12.843 -1.3360  0.6269 -1.7424
74616SOL    HW241459   7.894  13.217  12.876  0.0830  0.4983  0.6051
74617SOL     OW41460   2.240   6.502   2.785  0.0031 -0.2688 -0.3144
74617SOL    HW141461   2.213   6.423   2.830 -0.0287  0.3657  0.8133
74617SOL    HW241462   2.323   6.479   2.743 -0.1636 -0.9803 -0.2528
74618SOL     OW41463  13.604   1.789   7.143  0.2498  0.3081  0.2985
74618SOL    HW141464  13.567   1.825   7.063 -0.2497  2.3346  1.3742
74618SOL    HW241465  13.558   1.706   7.155 -1.1663  0.9462 -0.4350
74619SOL     OW41466  10.769   3.268   2.439  0.5237 -0.0479  0.1105
74619SOL    HW141467  10.849   3.248   2.390  0.7911  2.4244 -0.5916
74619SOL    HW241468  10.701   3.274   2.371  0.6392  2.0945  0.1035
74620SOL     OW41469  12.805   5.420  13.118  0.1564 -0.5918 -0.2335
74620SOL    HW141470  12.789   5.503  13.162  0.4564 -0.1595 -0.9294
74620SOL    HW241471  12.897   5.400  13.136  0.5199  0.0058 -1.3346
74621SOL     OW41472   0.557   0.860   7.129 -0.3305 -0.4957 -0.2251
74621SOL    HW141473   0.553   0.817   7.044  0.9296 -1.2346  0.0722
74621SOL    HW241474   0.540   0.790   7.192 -0.1860 -0.1717  0.1794
74622SOL     OW41475  13.760   4.639  13.782 -0.9684  0.8475  0.8382
74622SOL    HW141476  13.757   4.671  13.691  0.4591  0.5850  0.6751
74622SOL    HW241477  13.809   4.706  13.829 -1.4496  0.8348  1.3756
74623SOL     OW41478   0.933   5.496   8.572 -0.1285  0.3806  0.0209
74623SOL    HW141479   1.025   5.491   8.595 -0.2512 -1.8757  0.2645
74623SOL    HW241480   0.913   5.590   8.572  2.1145  0.9130  0.0488
74624SOL     OW41481   8.377   6.490   8.333  0.0302  0.5008 -0.0147
74624SOL    HW141482   8.282   6.487   8.345  0.2011 -0.2398  1.3023
74624SOL    HW241483   8.389   6.515   8.241 -1.4294  0.8538 -0.1233
74625SOL     OW41484  13.507   5.546  10.396  0.3103 -0.4437 -0.1548
74625SOL    HW141485  13.445   5.486  10.438  1.4000 -1.9414 -0.6210
74625SOL    HW241486  13.577   5.490  10.364  1.7129  1.1651 -0.0400
74626SOL     OW41487  13.203   4.677   3.026  0.1983 -0.3322  0.3577
74626SOL    HW141488  13.284   4.672   3.077  0.5898 -0.1819 -0.2386
74626SOL    HW241489  13.214   4.755   2.971 -0.1219 -0.6110 -0.1094
74627SOL     OW41490  11.658   7.676   9.898  0.1016 -0.5515  0.0121
74627SOL    HW141491  11.624   7.681   9.987 -0.0786  0.2892 -0.1010
74627SOL    HW241492  11.628   7.591   9.866  1.2610 -1.4420  1.1874
74628SOL     OW41493  13.463   8.533   7.666 -0.0729  0.4493  0.1679
74628SOL    HW141494  13.459   8.565   7.756 -1.4789  1.0736 -0.0873
74628SOL    HW241495  13.549   8.561   7.634  0.1654  0.8100  1.0982
74629SOL     OW41496   4.118   7.986   7.249 -0.3813  0.2502  0.8518
74629SOL    HW141497   4.091   7.980   7.157 -0.1071  0.9069  0.7259
74629SOL    HW241498   4.162   8.071   7.256 -1.5452  0.8053  1.8802
74630SOL     OW41499   9.270   4.053  11.482 -0.0300 -0.4425 -0.0832
74630SOL    HW141500   9.357   4.056  11.520  0.3161 -1.4500 -0.7437
74630SOL    HW241501   9.280   4.090  11.394 -0.8276  1.9040  0.7427
74631SOL     OW41502   8.492   0.356   8.981 -0.5790 -0.1005  0.0318
74631SOL    HW141503   8.587   0.353   8.991 -0.5301  0.8384 -0.0306
74631SOL    HW241504   8.460   0.378   9.069 -0.7287 -0.2636  0.0186
74632SOL     OW41505   7.748   9.773   4.682 -0.3470 -0.4650 -0.6458
74632SOL    HW141506   7.705   9.691   4.658  0.1354 -0.6463 -0.8993
74632SOL    HW241507   7.703   9.840   4.631 -0.4538 -0.6296 -0.7669
74633SOL     OW41508  12.422  13.297  10.893  0.0510 -0.7968  0.4778
74633SOL    HW141509  12.469  13.380  10.902 -2.1727  0.3898  1.8862
74633SOL    HW241510  12.375  13.305  10.810 -0.0813 -0.7089  0.5622
74634SOL     OW41511   1.454   5.722  12.715 -0.7913  0.4116  0.7501
74634SOL    HW141512   1.517   5.704  12.784  0.4035  3.4922  0.6536
74634SOL    HW241513   1.374   5.748  12.760 -0.8812 -0.1428  0.9153
74635SOL     OW41514  12.917   4.519  13.218  0.4043  0.0926  0.3132
74635SOL    HW141515  12.822   4.527  13.205  0.4281  0.4508  0.3565
74635SOL    HW241516  12.927   4.496  13.310  0.3772  0.4334  0.4019
74636SOL     OW41517   5.158   9.344  13.598 -0.0063  0.3886 -0.0568
74636SOL    HW141518   5.119   9.314  13.680  0.5844  0.2885  0.1949
74636SOL    HW241519   5.088   9.335  13.533  0.0655 -1.3661  0.0371
74637SOL     OW41520  12.298   8.097   2.230 -0.0674 -0.0008  0.4076
74637SOL    HW141521  12.313   8.191   2.235 -0.2024  0.0673 -0.3911
74637SOL    HW241522  12.339   8.062   2.309 -1.5686  0.9309  1.6610
74638SOL     OW41523   5.814   8.069  13.684  0.3037 -0.2825 -0.4561
74638SOL    HW141524   5.784   8.156  13.657 -0.2291  0.3482  1.8865
74638SOL    HW241525   5.833   8.079  13.777  1.7878 -2.3067 -0.4828
74639SOL     OW41526  13.569  10.283   5.576 -0.2784  0.0087 -0.1050
74639SOL    HW141527  13.636  10.220   5.550 -1.2592 -0.5185 -1.4660
74639SOL    HW241528  13.604  10.368   5.548  0.4573 -0.0685  0.5388
74640SOL     OW41529   2.842  12.244   8.557  0.2417  0.3510 -0.1412
74640SOL    HW141530   2.867  12.333   8.583  0.6164  0.2554 -0.1698
74640SOL    HW241531   2.893  12.226   8.478  0.0406  0.1743 -0.2318
74641SOL     OW41532  13.949   0.103   6.498  0.0344 -0.0271 -0.4266
74641SOL    HW141533  14.016   0.154   6.544  0.2832  0.4820 -1.3405
74641SOL    HW241534  13.971   0.111   6.406 -0.6230 -0.8136 -0.6657
74642SOL     OW41535   4.606   4.968   0.172 -0.0460 -0.3763  0.2011
74642SOL    HW141536   4.536   4.980   0.108  1.0068 -0.7666 -1.0518
74642SOL    HW241537   4.569   5.003   0.254 -1.6577 -0.4799 -0.4363
74643SOL     OW41538  13.728   5.356  11.321  0.1508 -0.2257 -0.3429
74643SOL    HW141539  13.741   5.290  11.252 -1.7777  0.8507 -1.7994
74643SOL    HW241540  13.816   5.368  11.358  1.0576 -1.5924 -1.8961
74644SOL     OW41541  11.899  10.272   7.299 -0.1655 -0.1698 -0.3038
74644SOL    HW141542  11.840  10.342   7.271  0.0739 -0.0666 -0.5647
74644SOL    HW241543  11.982  10.292   7.255  0.4215  0.3688  1.0029
74645SOL     OW41544  11.548   5.004   9.953  0.0835  0.0689  0.2872
74645SOL    HW141545  11.631   4.959   9.969 -0.6911 -1.5270  0.0378
74645SOL    HW241546  11.489   4.935   9.920 -1.1801  1.2666 -0.0662
74646SOL     OW41547   3.821   5.206   3.504 -0.7206 -0.4904 -0.5449
74646SOL    HW141548   3.795   5.117   3.527 -1.8031  0.3632  1.9309
74646SOL    HW241549   3.740   5.247   3.473 -0.6810  0.1320  0.1431
74647SOL     OW41550   1.864  13.048   3.611  0.1726 -0.8012  0.4709
74647SOL    HW141551   1.869  13.019   3.519 -0.0962 -0.6880  0.4204
74647SOL    HW241552   1.951  13.083   3.630 -0.0361  0.0004 -0.0171
74648SOL     OW41553   1.328  10.352   4.267 -0.2364  0.2870 -0.0877
74648SOL    HW141554   1.331  10.339   4.362 -0.2306  0.8019 -0.0155
74648SOL    HW241555   1.393  10.420   4.250  0.0981 -0.1327 -0.5220
74649SOL     OW41556   6.363   6.483   0.140 -0.2863 -0.4191  0.4483
74649SOL    HW141557   6.304   6.430   0.086 -0.6297 -2.2352  2.4642
74649SOL    HW241558   6.307   6.522   0.206  0.3352  0.5316  0.4286
74650SOL     OW41559   6.625   5.185  13.271  0.4716 -0.3229  0.1707
74650SOL    HW141560   6.645   5.273  13.240  1.2902  0.1365  1.9497
74650SOL    HW241561   6.669   5.127  13.208  2.1904  0.5818  0.4936
74651SOL     OW41562  12.368  11.723   9.702  0.3778  0.3252 -0.4068
74651SOL    HW141563  12.403  11.689   9.784  0.0271 -1.0862 -0.8023
74651SOL    HW241564  12.442  11.769   9.661  0.2313  2.0732  1.1990
74652SOL     OW41565   6.725   4.041  13.117  0.4000 -0.4592 -0.5643
74652SOL    HW141566   6.708   4.113  13.056  0.3602 -0.9232 -1.1100
74652SOL    HW241567   6.780   4.079  13.185 -2.1691  0.9376  0.8915
74653SOL     OW41568   7.954   7.495  10.168 -0.1754  0.5004  0.5841
74653SOL    HW141569   7.893   7.429  10.203  0.0258  0.3995  0.7511
74653SOL    HW241570   7.905   7.540  10.100 -0.3914  0.3272  0.6245
74654SOL     OW41571   0.803   5.811   2.764  0.2200  0.3279 -0.3041
74654SOL    HW141572   0.810   5.760   2.683 -1.4831  1.4828 -1.2379
74654SOL    HW241573   0.777   5.898   2.735  0.2036  0.9346  1.4621
74655SOL     OW41574  13.718   3.555   7.613 -0.0665 -0.2174  0.1039
74655SOL    HW141575  13.637   3.604   7.601  0.2609  0.0553 -1.1584
74655SOL    HW241576  13.721   3.536   7.707 -1.3759  0.1199  0.2318
74656SOL     OW41577  10.699  10.392   9.276 -0.0501  0.0626  0.0043
74656SOL    HW141578  10.751  10.417   9.352  1.7841  0.6966 -1.3923
74656SOL    HW241579  10.741  10.437   9.203 -0.9562 -1.5678 -1.5844
74657SOL     OW41580   9.763  13.265   8.383 -0.0857  0.0818 -0.6265
74657SOL    HW141581   9.842  13.319   8.379  1.0866 -1.4113  1.0274
74657SOL    HW241582   9.720  13.293   8.464 -1.3515  0.9184 -1.5339
74658SOL     OW41583  10.854   0.399   7.155  0.2827 -0.1588  0.0444
74658SOL    HW141584  10.923   0.339   7.125  0.3485  0.3350 -0.8237
74658SOL    HW241585  10.901   0.469   7.200  0.2072 -0.7188  1.0337
74659SOL     OW41586   7.553   3.536   2.281  0.0559 -0.3005 -0.3014
74659SOL    HW141587   7.551   3.631   2.289 -1.1256 -0.2576 -0.9056
74659SOL    HW241588   7.515   3.518   2.195 -1.8680 -1.3963  0.7057
74660SOL     OW41589   8.744  10.006  12.264 -0.9346 -0.1652  0.3318
74660SOL    HW141590   8.788  10.025  12.181 -2.0554  0.3009 -0.1728
74660SOL    HW241591   8.797   9.936  12.304 -0.5700 -0.6222 -0.9216
74661SOL     OW41592   6.858  11.240   7.200 -0.3548  0.4223 -0.0893
74661SOL    HW141593   6.830  11.321   7.243  0.9248  1.4345 -1.0733
74661SOL    HW241594   6.888  11.184   7.272  2.1910  2.2493  0.3862
74662SOL     OW41595  11.348   0.183   7.916  0.0269  0.3489  0.7047
74662SOL    HW141596  11.313   0.140   7.838 -0.9816  1.6783  0.3753
74662SOL    HW241597  11.439   0.203   7.894  0.5065 -1.5114  0.8572
74663SOL     OW41598  12.737   6.197   0.067  0.4737  0.2201  1.0630
74663SOL    HW141599  12.823   6.164   0.094  0.8417 -0.5187 -0.8951
74663SOL    HW241600  12.756   6.278   0.021 -0.0044  0.6644  1.6320
74664SOL     OW41601  10.424  10.623   7.958  0.1625 -0.0793  0.2710
74664SOL    HW141602  10.410  10.681   7.883 -0.8788  0.0492  0.5516
74664SOL    HW241603  10.339  10.619   8.002  0.8412  0.1300  1.6583
74665SOL     OW41604  10.492   1.769   0.642  0.2293  0.0033 -0.4310
74665SOL    HW141605  10.494   1.858   0.677  0.9827 -0.8502  1.9447
74665SOL    HW241606  10.440   1.720   0.706 -0.3292 -1.2482 -1.7810
74666SOL     OW41607   2.722   5.772  12.865 -0.2914  0.0360  0.1878
74666SOL    HW141608   2.637   5.807  12.891 -0.5797 -0.3243 -0.2390
74666SOL    HW241609   2.723   5.780  12.770  0.4045  0.5837  0.2341
74667SOL     OW41610  13.885   1.949   9.062 -0.2009 -0.1811  0.3711
74667SOL    HW141611  13.834   1.868   9.063  0.0098 -0.3412 -0.4176
74667SOL    HW241612  13.958   1.932   9.121 -0.8946 -0.0501  1.2963
74668SOL     OW41613  11.551   6.530   2.439  0.3215  0.1144 -0.3783
74668SOL    HW141614  11.574   6.593   2.370  0.3572  1.6247  0.9620
74668SOL    HW241615  11.488   6.575   2.493  0.1136 -1.1392  0.4737
74669SOL     OW41616   0.536  13.290   2.777 -0.5173  0.1962  0.3783
74669SOL    HW141617   0.518  13.289   2.683  0.7288 -0.2033  0.1249
74669SOL    HW241618   0.453  13.317   2.817 -0.9181  0.9144 -0.8665
74670SOL     OW41619   8.352   8.578   6.323 -0.2939  0.1916 -0.8471
74670SOL    HW141620   8.321   8.666   6.298  1.3750  1.4937  1.3203
74670SOL    HW241621   8.278   8.540   6.371 -1.9384 -0.6721 -3.7933
74671SOL     OW41622  12.333   0.283   8.424 -0.0801 -0.1311  0.5041
74671SOL    HW141623  12.304   0.304   8.335  0.8470  1.1978  0.4836
74671SOL    HW241624  12.372   0.364   8.456  2.2865 -1.3764  1.0368
74672SOL     OW41625  10.796   1.153   5.069 -0.3717  0.2514 -0.1201
74672SOL    HW141626  10.774   1.151   4.976  1.2017 -0.8307 -0.5095
74672SOL    HW241627  10.720   1.195   5.111  0.1869  3.8434 -2.2448
74673SOL     OW41628   2.486   7.509   0.628 -0.2513  0.2370 -0.2199
74673SOL    HW141629   2.414   7.570   0.611 -0.9439 -0.5352 -0.1466
74673SOL    HW241630   2.448   7.422   0.612  0.1312 -0.3082  1.5415
74674SOL     OW41631   2.802   6.210  12.026  0.4314  0.7053 -0.0834
74674SOL    HW141632   2.871   6.183  11.965  0.3481  1.6076 -0.5844
74674SOL    HW241633   2.796   6.137  12.088  1.4526  0.3728 -0.3543
74675SOL     OW41634   2.018   2.369   1.341  0.5115  1.1196 -0.5116
74675SOL    HW141635   2.016   2.414   1.257  2.9062 -0.2045 -1.3679
74675SOL    HW241636   2.075   2.422   1.396 -0.8420  1.8440  0.2341
74676SOL     OW41637  11.841  10.992   7.681  0.5399 -0.3676  0.1021
74676SOL    HW141638  11.766  10.981   7.739  0.4847  0.0013  0.1068
74676SOL    HW241639  11.821  10.938   7.604 -0.1369  0.4020 -0.2782
74677SOL     OW41640  13.857   0.338  12.030 -0.5142  0.1103  0.0946
74677SOL    HW141641  13.932   0.335  11.971 -1.4649  0.1554 -1.1720
74677SOL    HW241642  13.894   0.358  12.116  0.8048  1.4503 -0.7322
74678SOL     OW41643   2.458   6.927   7.229 -0.5794  0.3400 -0.5071
74678SOL    HW141644   2.429   6.984   7.300 -0.6556  0.8160 -0.9077
74678SOL    HW241645   2.413   6.962   7.151 -2.3053 -1.5513 -0.4429
74679SOL     OW41646  11.374   2.076   1.753  0.1536  0.3018 -0.6785
74679SOL    HW141647  11.378   2.130   1.674  0.0504 -1.1807 -1.7560
74679SOL    HW241648  11.344   1.991   1.721 -0.7902 -0.0841  1.1132
74680SOL     OW41649   2.887   9.090   0.714 -0.1107  0.7125 -0.3236
74680SOL    HW141650   2.795   9.116   0.713 -0.9840 -1.9649  1.0228
74680SOL    HW241651   2.912   9.090   0.621 -0.6392  3.8113 -0.5804
74681SOL     OW41652   2.706   5.468   3.698 -0.0058 -0.5647 -0.0212
74681SOL    HW141653   2.648   5.396   3.722  0.1198 -1.9337 -3.2307
74681SOL    HW241654   2.789   5.425   3.675 -0.3205  0.2765 -3.2691
74682SOL     OW41655  13.328   9.279   8.329 -0.1175 -0.2086 -0.4146
74682SOL    HW141656  13.387   9.209   8.299 -0.8737 -0.0038 -2.5807
74682SOL    HW241657  13.251   9.233   8.363  0.3267 -0.4341  0.3134
74683SOL     OW41658   5.393   9.918   0.756 -0.3814  0.4423  0.5010
74683SOL    HW141659   5.448   9.987   0.720  0.0816  0.1752  0.6842
74683SOL    HW241660   5.364   9.868   0.679 -0.0835  0.3778  0.4302
74684SOL     OW41661   2.904   6.667  10.140  0.4665 -0.1471 -0.2627
74684SOL    HW141662   2.971   6.729  10.113  1.2924 -1.8093 -2.3791
74684SOL    HW241663   2.929   6.641  10.229  0.5607  1.8619  0.3328
74685SOL     OW41664   0.415   3.449   6.277  0.1620 -0.2761 -0.4674
74685SOL    HW141665   0.373   3.492   6.351  3.0161  0.7295  0.6977
74685SOL    HW241666   0.342   3.413   6.226 -2.0431  1.1532  1.4622
74686SOL     OW41667   8.403   1.592   6.112 -0.0368 -0.0760  0.5579
74686SOL    HW141668   8.377   1.504   6.084 -1.3417 -0.0865  1.6749
74686SOL    HW241669   8.373   1.649   6.041  1.7007 -0.5873 -0.6442
74687SOL     OW41670   4.975   6.305  11.613  0.0805 -0.1890  0.2414
74687SOL    HW141671   5.051   6.270  11.659  0.9801 -0.7759 -1.6283
74687SOL    HW241672   4.970   6.256  11.532 -2.2026 -0.0296  0.2014
74688SOL     OW41673   6.565   2.329   6.098 -1.0541 -0.1658  0.3195
74688SOL    HW141674   6.481   2.331   6.051 -1.1986  0.9175  0.6020
74688SOL    HW241675   6.605   2.413   6.079 -0.2847 -0.4492  0.6597
74689SOL     OW41676   5.538  11.858   9.319 -0.4669  0.6975 -0.5370
74689SOL    HW141677   5.445  11.873   9.336 -0.6417 -0.2404 -0.6445
74689SOL    HW241678   5.581  11.936   9.355 -1.1549  0.4754  0.8567
74690SOL     OW41679   7.730   9.562   1.652  0.3689  0.2692  0.8580
74690SOL    HW141680   7.641   9.550   1.685 -0.1342  1.9089  0.1778
74690SOL    HW241681   7.754   9.477   1.616 -0.6634 -0.3749  1.6445
74691SOL     OW41682   8.326   2.991   1.165 -0.0573 -0.3310  0.5470
74691SOL    HW141683   8.302   3.049   1.237 -0.4061 -1.9047  1.7645
74691SOL    HW241684   8.262   3.010   1.097  0.4484  1.3894  0.5076
74692SOL     OW41685   5.987   4.224   1.817  0.2756 -0.6385  0.2110
74692SOL    HW141686   5.984   4.315   1.790  2.6826 -0.0566  1.7083
74692SOL    HW241687   6.059   4.186   1.767  0.4565 -1.2611  0.9305
74693SOL     OW41688   9.436  12.584   8.490 -0.4415  0.0108  0.2728
74693SOL    HW141689   9.347  12.564   8.462 -0.7140  0.3820  0.8438
74693SOL    HW241690   9.428  12.669   8.534  0.3535  0.4883 -0.4787
74694SOL     OW41691  12.605   0.603   0.267 -0.5504 -0.3646  0.6160
74694SOL    HW141692  12.649   0.637   0.345 -1.3562 -0.2522  1.0266
74694SOL    HW241693  12.552   0.531   0.298 -0.9974 -0.2220  0.1953
74695SOL     OW41694   6.098   9.540   6.057  0.5552  0.3042  0.6220
74695SOL    HW141695   6.133   9.455   6.083 -1.0465 -0.2915  0.9568
74695SOL    HW241696   6.051   9.571   6.134 -1.3068  0.1276 -0.3657
74696SOL     OW41697  12.699   6.256  13.847  0.2078 -0.3066  0.0551
74696SOL    HW141698  12.689   6.334  13.901 -4.5787 -1.1209  0.7366
74696SOL    HW241699  12.645   6.272  13.770  1.0212 -2.0570 -0.9473
74697SOL     OW41700   7.645   1.541   5.629 -0.4260 -0.6916  0.4584
74697SOL    HW141701   7.675   1.460   5.671  2.9544  0.3285  0.2866
74697SOL    HW241702   7.586   1.580   5.693  2.1762 -0.6972  3.0577
74698SOL     OW41703   4.851  12.842   6.993  0.0021  0.9171  0.1508
74698SOL    HW141704   4.819  12.901   6.925 -0.2101 -0.2261 -0.7566
74698SOL    HW241705   4.830  12.754   6.962  0.4113  0.3341  1.4261
74699SOL     OW41706   0.235   6.162   6.323  0.0385  0.5594 -0.1206
74699SOL    HW141707   0.218   6.257   6.320  0.6530  0.6882  0.2484
74699SOL    HW241708   0.296   6.151   6.396 -0.4191 -0.1927  0.1580
74700SOL     OW41709   5.238   5.174  10.359 -0.3067 -0.4129  0.0516
74700SOL    HW141710   5.324   5.184  10.400 -1.0614  0.3273  1.5415
74700SOL    HW241711   5.207   5.263  10.345 -1.0181 -0.6675 -0.0346
74701SOL     OW41712   7.478   9.300   4.653 -0.2067  0.1676  0.0508
74701SOL    HW141713   7.385   9.318   4.638 -0.7473 -1.6333  0.9769
74701SOL    HW241714   7.497   9.224   4.598  0.7106  0.4794 -0.0775
74702SOL     OW41715   9.884   6.007   6.032 -0.1001 -0.0907 -0.7512
74702SOL    HW141716   9.799   5.981   6.067  0.2203 -1.3554 -0.8745
74702SOL    HW241717   9.914   5.931   5.981  1.2562  0.1930 -0.4200
74703SOL     OW41718   6.092   6.481   3.555 -0.2000 -0.2346  0.3066
74703SOL    HW141719   6.126   6.409   3.501 -1.4202 -1.3261  0.9406
74703SOL    HW241720   6.012   6.446   3.595 -0.8825  1.5166  0.5706
74704SOL     OW41721   7.483  11.946   2.439 -0.2951  0.0753 -0.7426
74704SOL    HW141722   7.487  11.962   2.533 -2.2249 -0.4028 -0.5357
74704SOL    HW241723   7.463  12.032   2.401  2.6593  0.7441 -0.9933
74705SOL     OW41724   3.406  12.674   3.511 -0.1558 -0.5762  0.0229
74705SOL    HW141725   3.444  12.683   3.598 -2.4763 -0.7078  1.1118
74705SOL    HW241726   3.478  12.640   3.457  1.2823 -0.6716  1.8972
74706SOL     OW41727   0.842  13.302  12.142 -0.2760  0.1777 -0.5617
74706SOL    HW141728   0.791  13.380  12.120 -0.1534  0.1067 -1.1205
74706SOL    HW241729   0.905  13.333  12.207 -2.5877 -0.2782  2.0452
74707SOL     OW41730   3.679   3.792   7.216  0.5695  0.8365  0.1175
74707SOL    HW141731   3.644   3.793   7.127 -1.3495 -1.3387  0.7495
74707SOL    HW241732   3.769   3.762   7.206  0.2748  0.3008 -1.0739
74708SOL     OW41733  10.742   4.624  13.510 -0.4349  0.2555 -0.1276
74708SOL    HW141734  10.754   4.548  13.453  0.5841  0.7024 -0.5232
74708SOL    HW241735  10.828   4.638  13.550 -0.4796  1.4885 -0.4286
74709SOL     OW41736  13.741   5.713   9.514 -0.2285  0.1300 -0.3065
74709SOL    HW141737  13.772   5.650   9.449 -2.6976  0.1040 -1.5458
74709SOL    HW241738  13.673   5.666   9.563 -1.9184  1.6803 -1.0551
74710SOL     OW41739   1.449   9.617   8.765  0.0004  1.0818 -0.1966
74710SOL    HW141740   1.493   9.577   8.840 -0.2770 -0.8866 -1.0161
74710SOL    HW241741   1.492   9.579   8.688 -3.3930 -1.4819 -1.0501
74711SOL     OW41742   9.505   1.908   5.973 -0.4024  0.6341 -0.3190
74711SOL    HW141743   9.462   1.977   5.923 -1.1105 -0.7851 -1.7379
74711SOL    HW241744   9.540   1.953   6.050 -1.4591  2.4316 -0.8299
74712SOL     OW41745  11.581   3.708   4.578 -0.0843  0.2639  0.5230
74712SOL    HW141746  11.559   3.684   4.668 -0.8438  0.5371  0.4120
74712SOL    HW241747  11.524   3.654   4.524  2.4349 -2.1708  0.0674
74713SOL     OW41748   1.040   7.715  10.020 -0.3927 -0.1349  0.3579
74713SOL    HW141749   0.970   7.655   9.993 -0.6890  0.1788  0.4121
74713SOL    HW241750   0.993   7.791  10.056 -0.0598  0.6284 -0.7671
74714SOL     OW41751   0.026   3.477  11.345 -0.1982  0.2537  0.5925
74714SOL    HW141752  -0.045   3.466  11.282  2.0107  2.0999 -2.5108
74714SOL    HW241753   0.025   3.570  11.367  1.2978  0.3701  0.3212
74715SOL     OW41754   5.702  13.181   8.295  0.0791 -0.2828  0.6095
74715SOL    HW141755   5.618  13.158   8.334  1.0275 -0.2915  2.8547
74715SOL    HW241756   5.757  13.104   8.309  1.0030  0.4184  0.9708
74716SOL     OW41757  13.426   2.327   3.689 -0.5026 -0.4376  0.1496
74716SOL    HW141758  13.498   2.385   3.714 -0.9973 -0.1228  0.8715
74716SOL    HW241759  13.355   2.387   3.666 -0.5219 -0.7447 -0.6400
74717SOL     OW41760   2.285  10.312  13.542  0.1727 -0.0382 -0.1982
74717SOL    HW141761   2.304  10.399  13.577  1.0324 -0.9293  1.7444
74717SOL    HW241762   2.203  10.287  13.586 -1.2591  0.5777 -2.3729
74718SOL     OW41763   6.212  11.522   3.390 -0.4669 -0.4956  0.5871
74718SOL    HW141764   6.259  11.603   3.412  1.4765 -1.3430 -0.1819
74718SOL    HW241765   6.157  11.505   3.466 -0.2898  1.0898  1.1203
74719SOL     OW41766   4.280  10.339   6.122  0.5936  0.2227 -0.2990
74719SOL    HW141767   4.222  10.400   6.168  0.0577 -0.5089  0.0151
74719SOL    HW241768   4.312  10.281   6.191 -1.2608 -1.7219 -0.9984
74720SOL     OW41769   2.697   4.642   7.634 -0.1077  0.5303 -0.2170
74720SOL    HW141770   2.749   4.568   7.666  0.4171  1.0518  0.1456
74720SOL    HW241771   2.654   4.608   7.555  1.0733  0.1997 -0.7373
74721SOL     OW41772   9.595   7.735   9.946 -0.4204 -0.3391 -0.4834
74721SOL    HW141773   9.505   7.752   9.920 -0.5602  0.9492  0.7082
74721SOL    HW241774   9.641   7.719   9.863 -1.6461 -0.6023 -1.1394
74722SOL     OW41775   4.650  10.239   9.595 -0.0232  0.1607 -0.0947
74722SOL    HW141776   4.708  10.194   9.657  0.5216 -2.8609 -2.5706
74722SOL    HW241777   4.562  10.226   9.632  0.3954 -0.1604  0.8326
74723SOL     OW41778   4.834  10.913  11.802 -0.4364 -0.7760 -0.5300
74723SOL    HW141779   4.782  10.834  11.817 -0.5946 -0.5182  0.3186
74723SOL    HW241780   4.913  10.881  11.757  0.1300 -1.6186  0.9960
74724SOL     OW41781   6.268   3.792   0.346  0.2977  0.2753  0.1684
74724SOL    HW141782   6.354   3.826   0.370  0.3496  1.9301 -2.0272
74724SOL    HW241783   6.206   3.857   0.380  0.1006  0.3602 -0.3386
74725SOL     OW41784   2.100  10.322  11.877  0.1880  0.2816 -0.0366
74725SOL    HW141785   2.010  10.347  11.898  0.2013 -0.4884  1.0734
74725SOL    HW241786   2.153  10.363  11.945  0.4844 -0.5924  0.2721
74726SOL     OW41787   2.268  11.389   5.761 -0.0877 -0.5765 -0.2014
74726SOL    HW141788   2.362  11.385   5.775  0.0565  1.3585 -0.3421
74726SOL    HW241789   2.251  11.325   5.692  1.1422 -0.8556 -0.2568
74727SOL     OW41790   6.106   7.169   0.307  0.0928 -0.0777  0.1266
74727SOL    HW141791   6.065   7.133   0.385 -1.3364  0.1933 -0.4617
74727SOL    HW241792   6.152   7.095   0.267 -1.7645 -1.0077 -0.4052
74728SOL     OW41793   0.670   1.475   0.350  0.1208 -0.0484 -0.2401
74728SOL    HW141794   0.576   1.474   0.332  0.0047 -2.2253  0.1171
74728SOL    HW241795   0.699   1.385   0.330  2.2444  0.6984 -0.8695
74729SOL     OW41796   6.086   2.368   0.944  0.5079  0.4060 -0.3216
74729SOL    HW141797   6.171   2.410   0.934  0.3075  0.6076 -1.3356
74729SOL    HW241798   6.092   2.289   0.891  0.8149 -0.7815  1.4213
74730SOL     OW41799   1.450   9.072   7.160  0.6449 -0.1066 -0.0959
74730SOL    HW141800   1.513   9.052   7.230  0.9265  0.6647 -0.1121
74730SOL    HW241801   1.447   8.993   7.106 -0.1518 -1.0088  1.2058
74731SOL     OW41802   4.341  10.085   3.086 -0.6662  0.0981  0.6769
74731SOL    HW141803   4.247  10.104   3.078 -0.9841 -1.0748  1.2444
74731SOL    HW241804   4.345   9.989   3.092  0.6608  0.0616 -0.3638
74732SOL     OW41805   1.177   6.908   5.392  0.1534  0.0806 -0.2229
74732SOL    HW141806   1.267   6.903   5.425 -0.2298 -1.9123  0.6406
74732SOL    HW241807   1.178   6.982   5.331  2.3679  0.0733 -0.2671
74733SOL     OW41808   3.859  12.273   8.257  0.2014 -0.4868 -0.4151
74733SOL    HW141809   3.850  12.266   8.161  1.4593 -0.6572 -0.5362
74733SOL    HW241810   3.899  12.358   8.271  0.2158 -0.5545 -0.0428
74734SOL     OW41811   3.668   4.900  10.688  0.6565 -0.2914 -0.2499
74734SOL    HW141812   3.705   4.915  10.776 -1.5288  2.0286  0.3866
74734SOL    HW241813   3.662   4.804  10.681 -0.9980 -0.5669  3.0212
74735SOL     OW41814  10.728  12.782   6.327 -0.5221 -0.4687 -0.5023
74735SOL    HW141815  10.787  12.751   6.395  0.7067  1.5681 -0.5462
74735SOL    HW241816  10.657  12.825   6.375  0.4182  1.0970 -0.4272
74736SOL     OW41817  13.128   3.279  13.302 -0.4821  0.3763  0.5654
74736SOL    HW141818  13.195   3.260  13.236 -0.3291 -1.6630  1.2207
74736SOL    HW241819  13.102   3.369  13.285  0.1684  0.2006 -1.7215
74737SOL     OW41820   2.959  12.130   0.518  0.0396 -0.8687 -0.0483
74737SOL    HW141821   3.037  12.182   0.496 -0.8091 -0.1424 -1.5041
74737SOL    HW241822   2.895  12.195   0.545 -0.8466 -1.1812 -1.3045
74738SOL     OW41823  13.654   0.873   2.330 -0.3350 -0.5453 -0.1431
74738SOL    HW141824  13.744   0.845   2.311 -0.7610 -1.0522 -1.4994
74738SOL    HW241825  13.643   0.853   2.423  0.3106 -2.3440 -0.4040
74739SOL     OW41826  10.613   0.802   3.944  0.3157  0.7033 -0.0664
74739SOL    HW141827  10.520   0.811   3.923  0.7710  2.0633 -1.7326
74739SOL    HW241828  10.645   0.736   3.882  0.7247  1.2705 -0.4708
74740SOL     OW41829  10.380   3.786   7.803 -0.5168  0.0333 -0.3552
74740SOL    HW141830  10.397   3.695   7.782  0.9745  0.2151 -0.0706
74740SOL    HW241831  10.361   3.828   7.719  0.9808 -0.1227 -0.8063
74741SOL     OW41832   8.794   1.441  13.968 -0.5200 -0.2415 -0.2146
74741SOL    HW141833   8.722   1.461  14.027 -0.9401 -1.1539 -0.4008
74741SOL    HW241834   8.757   1.454  13.880 -0.0193  0.7095 -0.3011
74742SOL     OW41835   6.718   3.867  12.564 -0.2591  0.6623 -0.3991
74742SOL    HW141836   6.731   3.855  12.657  0.5817 -0.0137 -0.6007
74742SOL    HW241837   6.623   3.863  12.552 -0.3434  0.3688  0.3675
74743SOL     OW41838  11.607   3.921   0.325 -0.2943  0.0507 -0.0529
74743SOL    HW141839  11.565   3.879   0.400 -0.8080 -3.3452 -2.0556
74743SOL    HW241840  11.699   3.895   0.332 -0.4411 -0.7064 -0.8276
74744SOL     OW41841  11.481   7.630   2.563  0.7079 -0.0809 -0.0147
74744SOL    HW141842  11.509   7.549   2.521  1.9320 -1.0182  2.4506
74744SOL    HW241843  11.391   7.614   2.591 -0.0216  0.4538 -1.8908
74745SOL     OW41844   4.787   4.330   6.777 -1.0952 -0.2472  0.2847
74745SOL    HW141845   4.842   4.293   6.846 -0.8189 -0.0482  0.1742
74745SOL    HW241846   4.781   4.261   6.711 -0.5351 -0.0850  0.0535
74746SOL     OW41847   0.331  12.405   0.537 -0.3063  0.3052 -0.0656
74746SOL    HW141848   0.244  12.396   0.499 -0.5732 -1.3630  0.8984
74746SOL    HW241849   0.337  12.337   0.603  1.4146  0.9591  0.5207
74747SOL     OW41850   4.160   4.464   9.546 -0.0361  0.8095 -0.5297
74747SOL    HW141851   4.226   4.523   9.582  0.5034  0.9290 -1.6789
74747SOL    HW241852   4.110   4.518   9.485 -1.7066  0.9143  0.8482
74748SOL     OW41853  12.077   0.570   2.727 -0.5194 -0.5031 -0.1066
74748SOL    HW141854  12.042   0.568   2.817  1.6363  2.0057  0.9266
74748SOL    HW241855  12.096   0.663   2.712  2.1810 -1.2499 -1.9227
74749SOL     OW41856   4.663   3.875   3.316  0.7178  0.0317 -0.6967
74749SOL    HW141857   4.617   3.816   3.375 -0.8847 -0.0342 -1.9223
74749SOL    HW241858   4.720   3.926   3.373 -0.9983  0.2225  0.9742
74750SOL     OW41859   0.637   9.677   1.468 -0.2800  0.5039  0.3837
74750SOL    HW141860   0.563   9.729   1.436 -0.4662 -1.3397 -2.6140
74750SOL    HW241861   0.706   9.692   1.403  1.5363  1.0487  2.3437
74751SOL     OW41862   8.712  11.414   2.266 -0.1908 -0.0966  0.1768
74751SOL    HW141863   8.789  11.363   2.242 -1.2447 -1.3308 -0.7230
74751SOL    HW241864   8.721  11.429   2.360  0.8569 -0.7225  0.1844
74752SOL     OW41865  10.791   1.754   9.492 -0.4522 -0.5044  0.2931
74752SOL    HW141866  10.718   1.791   9.443 -0.3163 -1.9670 -1.0839
74752SOL    HW241867  10.868   1.776   9.440 -0.2692 -1.8162 -0.0201
74753SOL     OW41868   5.857   6.490   6.876  0.0904 -0.4615  0.2466
74753SOL    HW141869   5.894   6.420   6.822  0.6539 -0.4624  0.6268
74753SOL    HW241870   5.917   6.564   6.864 -0.3414 -0.1351  0.0764
74754SOL     OW41871  12.196   4.555   4.768 -0.2250  0.1196  0.1706
74754SOL    HW141872  12.257   4.521   4.833  1.0947 -1.0682 -1.5866
74754SOL    HW241873  12.217   4.507   4.688 -1.3897  1.9009 -1.2964
74755SOL     OW41874   7.904   1.482   3.036  0.2151  0.1654  0.0512
74755SOL    HW141875   7.819   1.518   3.013 -0.2393 -0.6258  0.4554
74755SOL    HW241876   7.887   1.390   3.058  0.8600  0.4823  2.0525
74756SOL     OW41877  11.964   2.354   0.866  0.1233 -0.5664  0.7669
74756SOL    HW141878  11.991   2.442   0.893 -0.0144 -0.6183  1.0811
74756SOL    HW241879  12.032   2.296   0.900  0.3097 -0.5638  0.4000
74757SOL     OW41880   7.487  13.921   2.905  0.3889  0.2991 -0.5869
74757SOL    HW141881   7.559  13.981   2.885  0.0066  0.7676 -0.5790
74757SOL    HW241882   7.522  13.834   2.885  1.3154  0.4170  0.4010
74758SOL     OW41883  11.306  12.115  12.658 -0.0376 -0.5075 -0.0975
74758SOL    HW141884  11.224  12.077  12.625 -0.4726  0.4169 -0.1174
74758SOL    HW241885  11.366  12.109  12.584 -0.4782 -0.0415 -0.5024
74759SOL     OW41886   3.432  11.896   5.582 -0.4850  0.5418  0.7943
74759SOL    HW141887   3.487  11.953   5.635 -1.1929  1.2728  0.7716
74759SOL    HW241888   3.351  11.887   5.633 -0.0323 -1.2488  1.2539
74760SOL     OW41889   1.424   2.180   0.740 -0.1093  0.1232  0.0880
74760SOL    HW141890   1.399   2.091   0.713  1.2736 -0.5202  0.8332
74760SOL    HW241891   1.341   2.223   0.760 -0.9602 -0.3929 -2.0282
74761SOL     OW41892   2.368   1.254   1.709 -0.6498  0.4069 -0.1516
74761SOL    HW141893   2.291   1.197   1.708 -0.6712  0.4334  0.0560
74761SOL    HW241894   2.337   1.337   1.674 -0.4618  0.0906 -1.1115
74762SOL     OW41895   0.937   5.630   9.146  0.3565  0.2564 -0.2489
74762SOL    HW141896   0.861   5.629   9.088  0.3498 -0.2490 -0.2348
74762SOL    HW241897   0.911   5.686   9.219 -0.2136 -0.3583  0.0352
74763SOL     OW41898   8.675   2.711   4.727  0.1929 -0.3582 -0.5908
74763SOL    HW141899   8.678   2.615   4.725 -1.9783 -0.4786 -0.2675
74763SOL    HW241900   8.711   2.738   4.643  0.2179 -1.4807 -0.9564
74764SOL     OW41901   5.878  10.839   2.628  0.4969 -0.5154  0.4689
74764SOL    HW141902   5.829  10.827   2.709  2.3728  0.3811  1.7988
74764SOL    HW241903   5.866  10.932   2.606  0.0571 -0.7364 -0.2552
74765SOL     OW41904   1.634  11.070   5.875  0.2982  0.0618  1.3437
74765SOL    HW141905   1.558  11.021   5.844  0.5889 -0.4231  1.3832
74765SOL    HW241906   1.643  11.142   5.812  0.9330 -0.9559  0.2329
74766SOL     OW41907   0.165   5.236   9.504 -0.2077  0.3637 -0.0918
74766SOL    HW141908   0.204   5.168   9.449 -0.3878 -0.7403  1.1128
74766SOL    HW241909   0.178   5.317   9.454 -0.2898 -0.5804 -1.7059
74767SOL     OW41910   6.195   1.908   0.086 -0.4877  0.2790 -0.0602
74767SOL    HW141911   6.128   1.857   0.133 -2.3589  1.8033 -0.9316
74767SOL    HW241912   6.207   1.987   0.139  0.5634  0.0823  0.0185
74768SOL     OW41913  12.196   2.296  12.184 -0.0879  0.5899 -0.3313
74768SOL    HW141914  12.247   2.313  12.263 -0.1427  0.8043 -0.3410
74768SOL    HW241915  12.255   2.245  12.128  0.9823  2.7609 -1.3085
74769SOL     OW41916  13.354   3.866   3.910 -0.2129 -0.0563  0.6072
74769SOL    HW141917  13.299   3.797   3.946 -1.2105  0.0490 -0.6667
74769SOL    HW241918  13.369   3.841   3.819  0.9744  0.4640  0.6346
74770SOL     OW41919   0.823   5.491   1.040  0.3018  0.0020  0.3907
74770SOL    HW141920   0.808   5.399   1.063  1.2909  0.3060  2.4750
74770SOL    HW241921   0.907   5.491   0.995 -1.2711 -0.4845 -2.8648
74771SOL     OW41922   3.114   1.930  13.719 -0.0437  0.0213 -0.1372
74771SOL    HW141923   3.056   1.878  13.774  0.5724  0.6745  1.1681
74771SOL    HW241924   3.137   2.006  13.773  1.1533  0.3191 -1.0242
74772SOL     OW41925   9.116   3.241  12.501 -0.3488  0.3891  0.2971
74772SOL    HW141926   9.186   3.300  12.529 -0.1824  0.4877 -0.3121
74772SOL    HW241927   9.094   3.191  12.580  0.7133  0.0547  0.4012
74773SOL     OW41928  12.475  10.022   7.825  0.6938 -0.0980 -0.4432
74773SOL    HW141929  12.416  10.086   7.863  0.2889 -1.2578  0.9950
74773SOL    HW241930  12.439  10.004   7.739 -0.8482 -0.4843  0.2486
74774SOL     OW41931   5.667  10.233   4.123 -0.1229 -0.4197 -0.3503
74774SOL    HW141932   5.742  10.264   4.072 -1.0360 -0.7060 -1.9332
74774SOL    HW241933   5.610  10.309   4.130  0.5382 -0.0261  1.3893
74775SOL     OW41934  13.915  13.267   7.876 -0.1925 -0.3665 -0.0092
74775SOL    HW141935  14.010  13.277   7.877 -0.2085 -0.2303  1.0387
74775SOL    HW241936  13.899  13.199   7.811  0.4913  0.7673 -1.4023
74776SOL     OW41937   4.251  13.244   3.344 -0.2873  0.1954  0.0950
74776SOL    HW141938   4.295  13.324   3.316  0.3750  0.7360  2.4734
74776SOL    HW241939   4.319  13.193   3.388 -1.0850 -0.9367  0.0799
74777SOL     OW41940   5.332   9.040   6.256  0.4224  0.1148 -1.0287
74777SOL    HW141941   5.319   9.086   6.338 -0.5066 -1.3047 -0.3342
74777SOL    HW241942   5.426   9.021   6.253  0.2845 -0.9157  0.3426
74778SOL     OW41943  12.471   5.608   6.170  0.3365  0.2214 -0.0368
74778SOL    HW141944  12.557   5.580   6.139 -0.0774 -2.3435  0.9175
74778SOL    HW241945  12.469   5.702   6.153  2.0933 -0.1342 -2.9739
74779SOL     OW41946  12.894   5.168   2.890  0.3731  0.0497  0.8038
74779SOL    HW141947  12.911   5.170   2.984  1.5649 -1.3460  0.6597
74779SOL    HW241948  12.802   5.193   2.882 -0.0476 -0.7987  2.4328
74780SOL     OW41949   5.468  12.545   3.795  0.9994 -0.0525  0.2269
74780SOL    HW141950   5.508  12.562   3.710  0.7953 -0.2606  0.0886
74780SOL    HW241951   5.395  12.607   3.801 -0.3161 -1.4426 -0.6684
74781SOL     OW41952   7.262  12.683  13.041  0.0737 -0.1098  0.2789
74781SOL    HW141953   7.330  12.685  13.109 -0.0903  0.0445  0.4415
74781SOL    HW241954   7.292  12.617  12.979  0.9312  0.7333 -0.2380
74782SOL     OW41955  10.081   9.550  12.972 -0.1880 -0.0057 -0.0907
74782SOL    HW141956  10.089   9.548  12.877  1.1242  4.7176 -0.3234
74782SOL    HW241957  10.097   9.460  12.999  1.3029 -1.2045 -4.2001
74783SOL     OW41958   7.829  12.221   4.924 -0.1948  0.1243  0.1897
74783SOL    HW141959   7.874  12.136   4.930  0.5116  0.4437 -0.3512
74783SOL    HW241960   7.829  12.255   5.013  0.4160 -0.0013  0.2414
74784SOL     OW41961   1.019  10.978   7.663 -0.3832  0.0465 -0.1191
74784SOL    HW141962   0.993  10.944   7.577  0.3538 -1.0227  0.0628
74784SOL    HW241963   1.101  10.932   7.682 -0.8283 -0.1429  1.4121
74785SOL     OW41964   6.501  12.485  13.990  0.0260  0.5642 -0.5857
74785SOL    HW141965   6.502  12.390  14.006  1.2659  0.8557  1.4835
74785SOL    HW241966   6.593  12.510  13.985 -0.2534  1.3497 -3.7784
74786SOL     OW41967  13.506   3.637   0.845  0.1139  0.1687  0.3218
74786SOL    HW141968  13.552   3.704   0.794  0.4523 -0.0021  0.4013
74786SOL    HW241969  13.474   3.575   0.780  0.6270 -0.0999  0.3257
74787SOL     OW41970   7.204   9.011   3.041 -0.3757 -0.5008 -0.4174
74787SOL    HW141971   7.168   9.094   3.072  0.5082 -0.3919  0.3781
74787SOL    HW241972   7.298   9.018   3.060  0.0232 -0.9198 -2.0770
74788SOL     OW41973   1.364   8.995  10.472  0.4173 -0.3193 -0.4315
74788SOL    HW141974   1.364   9.074  10.418  0.0757  0.4400  0.6317
74788SOL    HW241975   1.431   8.939  10.433  2.1889  1.3858  0.0097
74789SOL     OW41976  11.279   9.123   1.756  0.3427 -0.2610 -0.2507
74789SOL    HW141977  11.229   9.161   1.827  1.9110  0.3086  0.5845
74789SOL    HW241978  11.260   9.029   1.761 -0.9794 -0.0141 -0.2675
74790SOL     OW41979   5.358   1.405   5.418  0.0080 -0.0182 -0.4855
74790SOL    HW141980   5.370   1.394   5.512  1.0978 -1.8926 -0.7953
74790SOL    HW241981   5.268   1.435   5.409  0.2909  1.5079  1.2050
74791SOL     OW41982   0.910   9.027   1.544 -0.3626 -0.0041  0.4500
74791SOL    HW141983   0.964   9.005   1.468  0.7498  0.9164  0.9333
74791SOL    HW241984   0.899   8.944   1.591 -3.2655 -1.1580 -1.9901
74792SOL     OW41985   5.510   3.248  12.308  0.0701 -0.4207 -0.7559
74792SOL    HW141986   5.503   3.322  12.369  1.7302  1.4693 -2.6535
74792SOL    HW241987   5.528   3.172  12.363 -0.9019  0.7155  1.2350
74793SOL     OW41988   9.711   1.891   9.863 -0.0471 -0.1384 -0.4503
74793SOL    HW141989   9.695   1.911   9.955  2.8781  0.8932 -0.0864
74793SOL    HW241990   9.741   1.800   9.862  1.5428  0.3516 -0.1100
74794SOL     OW41991   6.315   1.100   6.823 -0.3027  0.0340 -0.0663
74794SOL    HW141992   6.276   1.174   6.870  0.3326  0.7683 -0.6629
74794SOL    HW241993   6.392   1.077   6.874 -0.6234 -0.3728  0.2415
74795SOL     OW41994   8.713   0.459   0.019  0.0406  0.1355  0.2920
74795SOL    HW141995   8.695   0.379  -0.031  0.4521  0.1254  0.1559
74795SOL    HW241996   8.671   0.529  -0.031 -1.1561 -0.1143  0.9182
74796SOL     OW41997   4.901  10.293   0.180 -0.1468 -0.1646  0.3724
74796SOL    HW141998   4.913  10.202   0.209 -0.3874  0.0186  1.0581
74796SOL    HW241999   4.839  10.330   0.243  0.4327  0.6635  0.4603
74797SOL     OW42000   8.890   3.054   1.275 -0.0601  0.0622 -0.3550
74797SOL    HW142001   8.847   3.057   1.360 -0.1525  0.3659 -0.4133
74797SOL    HW242002   8.870   3.138   1.234 -1.8989 -0.9427 -1.6189
74798SOL     OW42003   0.385   4.132   4.449 -0.2256 -0.4370  0.5913
74798SOL    HW142004   0.342   4.076   4.513 -0.0224  1.7751  2.7948
74798SOL    HW242005   0.314   4.183   4.410 -0.2391 -1.1284 -0.3285
74799SOL     OW42006   8.161  14.073   5.791 -0.6722 -0.1518 -0.0303
74799SOL    HW142007   8.183  14.030   5.874  1.2098  0.9779  0.1221
74799SOL    HW242008   8.153  14.002   5.728 -0.4630 -0.9132  0.7832
74800SOL     OW42009  10.709  10.291   5.112  0.2347  0.2781 -0.4843
74800SOL    HW142010  10.680  10.289   5.021  0.9166  0.0934 -0.7078
74800SOL    HW242011  10.746  10.379   5.124 -0.3413  0.4853 -0.2271
74801SOL     OW42012  12.110   5.657   8.547  0.1473  0.2804  0.4488
74801SOL    HW142013  12.052   5.600   8.496 -0.4537  1.6878 -0.5051
74801SOL    HW242014  12.125   5.733   8.491  1.7106  0.6472  1.2957
74802SOL     OW42015   8.071   7.234   7.448 -0.3810 -0.7878 -0.1021
74802SOL    HW142016   8.133   7.295   7.408 -0.0185 -0.1167  1.4327
74802SOL    HW242017   8.079   7.154   7.395  0.5307 -0.1468 -0.9674
74803SOL     OW42018   6.642   2.177   7.264  0.2255 -0.3188 -0.0630
74803SOL    HW142019   6.611   2.225   7.341  1.4348 -1.0752  0.9473
74803SOL    HW242020   6.737   2.176   7.273  0.3963 -0.3426 -1.6435
74804SOL     OW42021  13.949   0.489  12.870 -0.5425  0.2084 -0.2292
74804SOL    HW142022  13.918   0.566  12.919  1.4568 -0.8101  2.9440
74804SOL    HW242023  14.002   0.526  12.799 -1.4055  1.7492 -0.1247
74805SOL     OW42024   9.917   3.930   9.401  0.0335  0.8370  0.4880
74805SOL    HW142025   9.853   3.979   9.349  0.2030 -2.0962 -2.8032
74805SOL    HW242026   9.863   3.873   9.457 -0.1533  1.2455  0.7351
74806SOL     OW42027  11.799   8.130   5.534  0.1507  0.4035 -0.1687
74806SOL    HW142028  11.826   8.135   5.626 -1.5895 -0.2668  0.4227
74806SOL    HW242029  11.738   8.202   5.523  0.1511  0.3214 -0.7242
74807SOL     OW42030   8.739   0.221   1.026  0.0197 -0.0101  0.0809
74807SOL    HW142031   8.660   0.253   1.071 -0.8927 -1.6870 -0.2476
74807SOL    HW242032   8.718   0.228   0.933  0.7703  0.7059 -0.0465
74808SOL     OW42033  13.948  10.977  13.439  0.3060 -0.1431  0.5052
74808SOL    HW142034  13.915  10.966  13.528 -0.1744  0.1143  0.3645
74808SOL    HW242035  13.923  11.067  13.416  1.5954  0.2478  0.5903
74809SOL     OW42036   2.995   1.172   7.244 -0.5203  0.0857 -0.1819
74809SOL    HW142037   3.057   1.180   7.172 -0.0704  0.5230  0.2444
74809SOL    HW242038   2.970   1.263   7.264  0.6270  0.1224  1.2826
74810SOL     OW42039   7.173   0.107  13.119 -0.4075  0.5877  0.0786
74810SOL    HW142040   7.146   0.199  13.115  1.1975  1.0226 -2.0878
74810SOL    HW242041   7.219   0.091  13.037  2.0769 -1.3029  1.6994
74811SOL     OW42042   3.572   8.765   3.703 -0.2040  0.4991 -0.2322
74811SOL    HW142043   3.508   8.728   3.643  0.0123 -0.2286 -0.0178
74811SOL    HW242044   3.540   8.854   3.721 -2.3794 -0.5578  1.6189
74812SOL     OW42045   1.018  13.320   2.605  0.3895  0.6852 -0.2564
74812SOL    HW142046   1.047  13.371   2.681 -0.1347  0.2421  0.2525
74812SOL    HW242047   1.041  13.230   2.627 -1.6586  0.2422  0.3628
74813SOL     OW42048  12.585   0.714  11.739  0.2577 -0.1985 -0.0119
74813SOL    HW142049  12.679   0.717  11.757  0.0549  0.3017  1.0634
74813SOL    HW242050  12.554   0.635  11.782 -0.0741  0.5139  1.1199
74814SOL     OW42051   6.103   2.403   3.768 -0.1458 -0.1538 -0.1839
74814SOL    HW142052   6.171   2.362   3.714 -0.2806  0.4968 -0.8512
74814SOL    HW242053   6.150   2.466   3.823 -0.1568 -0.0037 -0.3474
74815SOL     OW42054  13.221   0.549  12.887  0.0893  0.3701 -0.2035
74815SOL    HW142055  13.157   0.606  12.843  0.3379  0.2645 -0.7124
74815SOL    HW242056  13.204   0.462  12.851 -0.7695 -0.0280  1.1009
74816SOL     OW42057   7.119   7.108   5.507 -0.1993 -0.2583 -0.3270
74816SOL    HW142058   7.122   7.203   5.498  0.8674 -0.2886 -0.4622
74816SOL    HW242059   7.132   7.075   5.418 -0.6100 -0.5268 -0.2880
74817SOL     OW42060  13.360   9.745   4.185 -0.4411  0.0263 -0.2515
74817SOL    HW142061  13.321   9.829   4.208  0.5325  0.4478 -0.1141
74817SOL    HW242062  13.288   9.683   4.192 -0.9700  0.7066  0.4907
74818SOL     OW42063  11.776  12.390   5.456  0.0302  0.0895  0.2440
74818SOL    HW142064  11.836  12.456   5.423  0.1593  1.2738  2.6238
74818SOL    HW242065  11.832  12.316   5.481  0.4392  0.7606  1.4271
74819SOL     OW42066  12.280   1.382   0.932 -0.0427 -0.0445  0.4993
74819SOL    HW142067  12.334   1.400   0.854 -0.3262  1.3822  0.6156
74819SOL    HW242068  12.190   1.394   0.902 -0.1346  1.1316  1.1696
74820SOL     OW42069   3.884   8.321   9.806 -0.3383 -0.4156 -0.2248
74820SOL    HW142070   3.916   8.409   9.789 -0.6052  0.7501  4.1083
74820SOL    HW242071   3.963   8.270   9.824 -0.3148 -0.3663 -0.1889
74821SOL     OW42072   4.021   2.926  12.091  0.1385 -0.5350 -0.2314
74821SOL    HW142073   3.985   2.898  12.175  1.1413  0.4004  0.5245
74821SOL    HW242074   3.950   2.909  12.028 -0.5134 -1.5110  0.7405
74822SOL     OW42075  13.479   8.269  13.144  0.2304 -0.0250  0.1486
74822SOL    HW142076  13.472   8.363  13.159  0.5349 -0.2868  2.1904
74822SOL    HW242077  13.515   8.234  13.225 -1.8678 -2.1589  0.2733
74823SOL     OW42078   3.222   0.397   1.688 -0.2023 -0.1138 -0.7539
74823SOL    HW142079   3.261   0.310   1.694 -0.0229  0.0537  0.9717
74823SOL    HW242080   3.289   0.449   1.643  0.3951 -0.4829 -0.3087
74824SOL     OW42081   1.167   6.489  10.889  0.0115 -0.7285  0.5616
74824SOL    HW142082   1.234   6.430  10.922 -0.2549 -1.4477 -0.1408
74824SOL    HW242083   1.129   6.443  10.814 -0.7342 -0.0011  0.4708
74825SOL     OW42084   5.147  13.089  11.419 -0.7865  0.1425 -0.3336
74825SOL    HW142085   5.092  13.028  11.370  1.1425 -1.4039 -0.7040
74825SOL    HW242086   5.220  13.108  11.360  0.4799 -0.0432  1.1196
74826SOL     OW42087   1.805  10.667   6.918 -0.2049 -0.0393 -0.4955
74826SOL    HW142088   1.851  10.602   6.970  0.1133 -0.6736 -1.5389
74826SOL    HW242089   1.869  10.737   6.904 -1.2507  1.7768  2.6895
74827SOL     OW42090   1.888   6.362  13.636 -0.3368 -0.1880 -0.3585
74827SOL    HW142091   1.974   6.389  13.670 -0.1738 -0.9198 -0.1830
74827SOL    HW242092   1.894   6.375  13.542 -0.8284  1.9688 -0.1422
74828SOL     OW42093  11.330  10.524   1.862 -0.0745 -0.2615  0.3192
74828SOL    HW142094  11.408  10.470   1.852 -0.5194 -0.7668 -0.6796
74828SOL    HW242095  11.356  10.611   1.833 -0.6434 -1.1222 -3.3359
74829SOL     OW42096   3.396   1.987   5.373  0.3041 -0.1530 -0.0455
74829SOL    HW142097   3.377   2.072   5.332  4.0000 -0.3968 -2.8330
74829SOL    HW242098   3.316   1.936   5.361 -0.6545  1.6488 -2.0240
74830SOL     OW42099   3.044   6.108  13.271 -0.1115  0.1126  0.0186
74830SOL    HW142100   3.119   6.077  13.219 -1.6649 -0.2881 -2.0969
74830SOL    HW242101   3.053   6.203  13.270  0.1419  0.0858 -0.5635
74831SOL     OW42102   2.664   9.553   5.004 -0.4448 -0.1803  0.9176
74831SOL    HW142103   2.603   9.610   5.051 -0.8129  1.0401 -0.9479
74831SOL    HW242104   2.607   9.500   4.947  0.1095 -0.0322  0.2094
74832SOL     OW42105  11.502   1.771   9.999 -0.1803 -0.4362  0.0401
74832SOL    HW142106  11.472   1.684  10.026 -1.1008 -0.3746 -0.7302
74832SOL    HW242107  11.530   1.759   9.908 -0.1408  0.0344 -0.0132
74833SOL     OW42108  12.774   5.727   4.018 -0.1899 -0.4639  0.3987
74833SOL    HW142109  12.749   5.740   3.926 -0.2737 -0.7685  0.3780
74833SOL    HW242110  12.753   5.636   4.036  1.3222 -0.8693  0.2521
74834SOL     OW42111  10.338   9.841   4.794  0.1751  0.3924 -0.1391
74834SOL    HW142112  10.302   9.923   4.759 -2.4881 -0.4557  0.3697
74834SOL    HW242113  10.412   9.821   4.737  0.7711  3.0057 -0.4142
74835SOL     OW42114   3.709   0.380   2.970 -0.1081  0.3809  0.1554
74835SOL    HW142115   3.685   0.434   3.045  0.0256 -0.2257  0.6495
74835SOL    HW242116   3.800   0.355   2.987  0.6251  1.9060 -1.2383
74836SOL     OW42117   8.975   0.908   5.670 -0.2575  0.2343 -0.0628
74836SOL    HW142118   8.978   0.814   5.650 -1.4457 -0.1870  1.5129
74836SOL    HW242119   9.067   0.933   5.680  0.2331 -0.1714 -2.8241
74837SOL     OW42120   5.217   3.371   5.555  0.2581 -0.2853 -0.2262
74837SOL    HW142121   5.163   3.395   5.630 -2.3099 -0.1435 -1.9948
74837SOL    HW242122   5.231   3.277   5.565  0.4256 -0.1699  0.6990
74838SOL     OW42123   3.995   2.338   6.994 -0.3812 -0.2625  0.4791
74838SOL    HW142124   4.008   2.406   7.060 -0.7340 -0.1499  0.4339
74838SOL    HW242125   3.904   2.349   6.966 -0.2418 -0.3333 -0.0021
74839SOL     OW42126   4.716   6.296   1.827  0.0239 -0.2709 -0.3452
74839SOL    HW142127   4.809   6.300   1.850  0.5778  0.6920 -2.4510
74839SOL    HW242128   4.707   6.214   1.778 -0.3786 -0.6593  0.3728
74840SOL     OW42129   1.159   1.272   7.683  0.0073  0.0918  0.0356
74840SOL    HW142130   1.234   1.311   7.638 -1.0457  0.7467 -1.2051
74840SOL    HW242131   1.085   1.327   7.658 -1.1134 -1.3000  0.2038
74841SOL     OW42132   7.797  10.133  11.041 -0.0409  0.6404 -0.1200
74841SOL    HW142133   7.866  10.067  11.045  0.1105  0.7803 -0.4542
74841SOL    HW242134   7.727  10.097  11.096 -0.0051  0.1497 -0.3930
74842SOL     OW42135   0.348   5.076   9.325  0.3785  0.3871  0.3069
74842SOL    HW142136   0.332   4.997   9.272 -0.8186  1.2508 -0.6830
74842SOL    HW242137   0.374   5.142   9.261 -1.0894  1.4582  0.7690
74843SOL     OW42138  13.289   5.655  13.096  0.0751 -0.0212 -0.2704
74843SOL    HW142139  13.346   5.731  13.101  0.4817 -0.3923  1.1568
74843SOL    HW242140  13.338   5.591  13.044  0.4648  0.0856 -0.0356
74844SOL     OW42141   1.411   4.666  10.635 -0.1003  0.3431 -0.0377
74844SOL    HW142142   1.372   4.609  10.701 -0.6602 -1.5705 -1.9235
74844SOL    HW242143   1.500   4.682  10.667  0.2870 -2.1250  0.3232
74845SOL     OW42144   5.228   1.788   9.699  0.1213  0.5493 -0.1473
74845SOL    HW142145   5.288   1.830   9.761  2.1935 -0.7119 -1.1870
74845SOL    HW242146   5.227   1.696   9.725 -0.2351  0.2978 -1.0039
74846SOL     OW42147   0.448  10.440   1.780 -0.0190 -0.3102  0.0830
74846SOL    HW142148   0.524  10.480   1.823 -0.9470 -0.9409  2.4615
74846SOL    HW242149   0.481  10.412   1.694  1.6130  2.1033 -0.1804
74847SOL     OW42150   8.747   7.634  13.514  0.3827 -0.7095  0.2913
74847SOL    HW142151   8.797   7.571  13.566 -0.2022 -0.7524  0.8238
74847SOL    HW242152   8.662   7.639  13.558  0.8069  1.3760  1.0128
74848SOL     OW42153   3.193   9.292  11.076  0.0089 -0.3590 -0.2923
74848SOL    HW142154   3.181   9.247  11.159  0.1036  0.6512  0.2800
74848SOL    HW242155   3.106   9.290  11.035 -0.3874  0.4282  0.4965
74849SOL     OW42156   2.841   9.959   8.103 -0.1423  0.1321 -0.5944
74849SOL    HW142157   2.813   9.894   8.167  0.3953  0.3812 -0.0998
74849SOL    HW242158   2.767   9.966   8.042 -0.1660 -1.0074 -0.7116
74850SOL     OW42159  10.478   0.580   4.580  0.0605 -0.7347  0.1097
74850SOL    HW142160  10.512   0.561   4.493  0.6552 -0.1505  0.2025
74850SOL    HW242161  10.466   0.495   4.621 -0.8876 -1.0556 -0.7762
74851SOL     OW42162   4.596   1.160   6.407 -0.1200  0.6416 -0.4275
74851SOL    HW142163   4.622   1.232   6.464 -1.7824 -0.0320  1.2676
74851SOL    HW242164   4.501   1.162   6.406 -0.2612 -1.9207  0.2156
74852SOL     OW42165   1.549   4.788   2.828  0.4441 -0.2607  0.5001
74852SOL    HW142166   1.607   4.752   2.761  1.0543 -1.4561  1.6294
74852SOL    HW242167   1.528   4.713   2.885  0.6358  0.8831  2.1325
74853SOL     OW42168   3.107   0.350   0.200 -0.4510  0.6259 -0.3089
74853SOL    HW142169   3.134   0.297   0.126  1.0628  1.9340 -0.7444
74853SOL    HW242170   3.044   0.412   0.164  0.3283  1.2999 -0.5544
74854SOL     OW42171   1.408  12.630   8.949 -0.2453  0.1228  0.4639
74854SOL    HW142172   1.319  12.595   8.949 -0.6066  0.9943 -0.3113
74854SOL    HW242173   1.464  12.553   8.948 -1.0027 -0.4404  0.1916
74855SOL     OW42174   3.972  13.163   8.168  0.2442  0.0426  0.1630
74855SOL    HW142175   3.949  13.193   8.256 -1.3276  0.1109 -0.2567
74855SOL    HW242176   4.040  13.096   8.183 -0.0526  0.0041  1.4267
74856SOL     OW42177  12.495  11.284   0.596  0.2888 -0.4075  0.2517
74856SOL    HW142178  12.524  11.373   0.617 -0.4012 -0.1460  0.1286
74856SOL    HW242179  12.558  11.253   0.530  0.9080 -0.2547  0.7663
74857SOL     OW42180  10.488   4.713   6.219 -0.3007 -0.3556 -0.0473
74857SOL    HW142181  10.450   4.643   6.166  0.0008  0.8432 -1.9538
74857SOL    HW242182  10.537   4.767   6.156  1.0251  0.5178  1.6531
74858SOL     OW42183   5.542   5.646   1.108 -0.4889  0.2553  0.3427
74858SOL    HW142184   5.465   5.618   1.158 -0.4878 -0.6423 -0.1244
74858SOL    HW242185   5.515   5.636   1.017  0.4656 -0.9761  0.1616
74859SOL     OW42186   7.312   8.747   1.813  0.2560  0.0755 -0.2733
74859SOL    HW142187   7.237   8.721   1.866  0.4348  4.1773  2.4170
74859SOL    HW242188   7.387   8.701   1.852  0.0675  1.3992  1.7449
74860SOL     OW42189  10.605   3.738   9.034  0.4410 -0.1108 -0.3090
74860SOL    HW142190  10.564   3.695   9.109  0.6969 -0.8291 -0.5715
74860SOL    HW242191  10.674   3.792   9.072  0.5825 -0.4855 -0.0218
74861SOL     OW42192   1.186  11.486   8.624  0.6389  0.2161  0.1439
74861SOL    HW142193   1.202  11.392   8.631  2.0190  0.4555  0.3525
74861SOL    HW242194   1.121  11.494   8.554  0.8753 -0.8517 -0.2121
74862SOL     OW42195   5.179   4.557   5.192  0.2617 -0.1384  0.4782
74862SOL    HW142196   5.251   4.517   5.144 -0.5840 -2.0559  0.7254
74862SOL    HW242197   5.100   4.533   5.143 -0.4296 -0.3240  1.6260
74863SOL     OW42198  12.236   7.411   6.784 -0.4158 -0.0861  0.1981
74863SOL    HW142199  12.176   7.469   6.737 -0.7500 -1.3320 -1.0153
74863SOL    HW242200  12.261   7.459   6.862 -0.4952  1.7519 -0.8621
74864SOL     OW42201   3.756   7.190  10.618  0.1261  0.3069  0.3367
74864SOL    HW142202   3.729   7.100  10.634 -0.4039 -0.5057 -3.9900
74864SOL    HW242203   3.850   7.190  10.633  0.2308 -1.1602 -0.1631
74865SOL     OW42204   1.601  12.424  12.726  0.0176  0.0228  0.2933
74865SOL    HW142205   1.519  12.384  12.697  0.5074 -0.2048 -0.8568
74865SOL    HW242206   1.573  12.498  12.781 -1.0407  1.0303 -1.4725
74866SOL     OW42207   5.668   7.521   5.871 -0.0574  0.3993 -0.1158
74866SOL    HW142208   5.684   7.607   5.833  0.6178  0.4471  0.2584
74866SOL    HW242209   5.648   7.539   5.963 -2.4954  0.3558 -0.5747
74867SOL     OW42210  13.182   3.796   7.450 -0.0014  0.7768  0.1305
74867SOL    HW142211  13.157   3.704   7.440  1.0691  0.2554  1.7647
74867SOL    HW242212  13.241   3.796   7.525  2.4623  2.3602 -1.6630
74868SOL     OW42213  11.935   0.152  11.044 -0.3938 -0.0240  0.4460
74868SOL    HW142214  11.871   0.084  11.061 -0.6020 -0.1202 -0.6088
74868SOL    HW242215  11.903   0.229  11.090 -1.8133  0.2013 -0.8404
74869SOL     OW42216   9.006   0.205   3.891 -0.2110  0.5221  0.1062
74869SOL    HW142217   9.101   0.219   3.881 -0.0848  1.0326  1.7645
74869SOL    HW242218   8.967   0.283   3.851  0.1634  1.2584  1.1201
74870SOL     OW42219  13.648   6.031   8.500  0.1623 -0.7069 -0.0479
74870SOL    HW142220  13.632   5.987   8.416 -1.4027 -1.3602  0.5705
74870SOL    HW242221  13.571   6.085   8.514  1.6746  1.6743 -0.3764
74871SOL     OW42222   5.061   0.136  13.137  0.6406  0.0235  0.1999
74871SOL    HW142223   5.043   0.067  13.201  1.5121 -0.3165  0.0976
74871SOL    HW242224   5.156   0.136  13.128  0.4864 -1.5067 -2.7658
74872SOL     OW42225   8.536  12.279   7.520 -0.3801 -0.1124 -0.0678
74872SOL    HW142226   8.461  12.236   7.479  0.2067 -1.2247  0.0133
74872SOL    HW242227   8.496  12.341   7.582 -1.2391  0.0264 -0.7377
74873SOL     OW42228   1.553   2.511   1.154  0.6891  0.1438 -0.0458
74873SOL    HW142229   1.575   2.512   1.061  1.2090 -1.2844  0.0412
74873SOL    HW242230   1.466   2.473   1.158 -0.0325  1.7115 -0.0439
74874SOL     OW42231   4.175  11.865   1.934 -0.2851  0.1978  0.4812
74874SOL    HW142232   4.102  11.803   1.935  0.5908 -0.9175 -0.4526
74874SOL    HW242233   4.252  11.810   1.952  0.3045  1.3984  1.8278
74875SOL     OW42234   7.070   1.703   1.529 -0.5740 -0.3557 -0.1105
74875SOL    HW142235   7.110   1.644   1.593  1.5682  1.1668  0.0549
74875SOL    HW242236   7.059   1.786   1.577  0.4136  0.6064 -1.4545
74876SOL     OW42237   3.469   9.401   6.537  0.0303 -0.4400 -0.4679
74876SOL    HW142238   3.553   9.439   6.509  0.0728  0.5281  0.8873
74876SOL    HW242239   3.444   9.453   6.613 -0.8059 -2.0407  0.3822
74877SOL     OW42240   0.533  12.941  11.734  0.3637 -0.2025  0.3702
74877SOL    HW142241   0.509  12.876  11.668 -1.2139 -0.2997  1.0090
74877SOL    HW242242   0.628  12.950  11.725  0.2586 -0.6139 -1.5255
74878SOL     OW42243   4.325   3.864   9.489  0.8598  0.0394  0.0095
74878SOL    HW142244   4.235   3.848   9.519  0.5199 -0.0406 -1.0130
74878SOL    HW242245   4.374   3.787   9.518  0.7384  0.3439  1.0685
74879SOL     OW42246   7.706  11.734   1.115 -0.0584  0.0625 -0.3964
74879SOL    HW142247   7.794  11.756   1.147  0.6827 -2.3361 -0.5576
74879SOL    HW242248   7.693  11.790   1.039  2.1022 -0.7116 -1.4307
74880SOL     OW42249   9.606   0.777  13.212  0.2298  0.6311 -0.1269
74880SOL    HW142250   9.532   0.763  13.152 -0.0090  0.8421  0.1208
74880SOL    HW242251   9.630   0.868  13.199  0.1454  0.6911  0.1347
74881SOL     OW42252   9.259  11.395  11.320 -0.0427 -0.2617 -0.4688
74881SOL    HW142253   9.247  11.428  11.409 -0.8663 -1.0076 -0.2773
74881SOL    HW242254   9.205  11.452  11.265 -0.8389 -0.7757 -0.2475
74882SOL     OW42255   2.194   6.213  10.492  0.0075 -0.4369 -0.2391
74882SOL    HW142256   2.232   6.175  10.413  0.0499 -0.1113 -0.3746
74882SOL    HW242257   2.257   6.280  10.519 -0.9470  0.8235 -1.0423
74883SOL     OW42258   8.340  13.108   0.849 -0.4195 -0.0614 -0.0258
74883SOL    HW142259   8.296  13.181   0.806 -1.1749  0.6759  1.8528
74883SOL    HW242260   8.317  13.031   0.797 -0.2586  0.9235 -1.5985
74884SOL     OW42261   0.869  13.698   2.552 -0.7403 -0.4993 -0.1812
74884SOL    HW142262   0.793  13.714   2.608  0.3311 -1.5753  1.6738
74884SOL    HW242263   0.851  13.613   2.511 -1.6520  0.4157 -1.7676
74885SOL     OW42264   3.059   1.395   2.087 -0.3723  0.2320 -0.2328
74885SOL    HW142265   3.040   1.410   2.179  0.2907  0.1777 -0.0897
74885SOL    HW242266   3.147   1.430   2.073 -0.8401  1.1398 -1.0703
74886SOL     OW42267  13.645   9.483   9.856 -0.3719 -0.1613 -0.1336
74886SOL    HW142268  13.620   9.404   9.904 -0.1411  0.9451  1.8883
74886SOL    HW242269  13.731   9.507   9.890  0.5748 -0.2391 -2.3159
74887SOL     OW42270   6.136   3.424   9.587 -1.0595 -0.4292  0.0547
74887SOL    HW142271   6.108   3.338   9.618  0.5914 -0.7624  0.7465
74887SOL    HW242272   6.213   3.444   9.640  0.0965  0.3424 -1.8277
74888SOL     OW42273   8.516  11.566  10.481 -0.8614 -0.1354  0.3545
74888SOL    HW142274   8.541  11.589  10.570 -0.1232 -0.1740  0.1641
74888SOL    HW242275   8.547  11.639  10.428  1.0685 -1.2952 -0.1948
74889SOL     OW42276  12.928   8.614  11.571  0.5699  0.0697 -0.4626
74889SOL    HW142277  12.929   8.634  11.664 -1.8231  0.4768 -0.4616
74889SOL    HW242278  12.912   8.698  11.528 -0.1053 -0.3662 -1.0986
74890SOL     OW42279   5.419   3.226  10.119 -0.1877  0.2799 -0.1955
74890SOL    HW142280   5.479   3.299  10.134  1.1318 -0.9285  0.7773
74890SOL    HW242281   5.476   3.154  10.092 -1.5928 -0.0673 -2.4913
74891SOL     OW42282   3.482  10.182   1.178  0.5962  0.3441 -1.0688
74891SOL    HW142283   3.578  10.182   1.185  0.5784  0.3935 -0.8396
74891SOL    HW242284   3.455  10.104   1.226  0.4760  0.7079 -0.5420
74892SOL     OW42285   3.945  11.574   2.998  0.0745 -0.1296  0.0620
74892SOL    HW142286   3.933  11.668   2.981 -0.2633 -0.2120 -0.1635
74892SOL    HW242287   4.028  11.553   2.956  1.2841  0.5385  1.9926
74893SOL     OW42288  11.020   9.350   8.673  0.3475 -0.2768  0.1441
74893SOL    HW142289  11.062   9.418   8.620  0.1888  0.6374  1.1540
74893SOL    HW242290  10.927   9.361   8.656  0.3200 -0.2177  0.3314
74894SOL     OW42291   2.388   5.411  12.297  0.1757 -0.6075 -0.0745
74894SOL    HW142292   2.395   5.316  12.292 -0.7703 -0.6755 -0.2624
74894SOL    HW242293   2.336   5.435  12.220 -1.9852 -0.2266  1.4383
74895SOL     OW42294   1.722   9.562   8.213 -0.0656 -0.3195  0.2864
74895SOL    HW142295   1.666   9.613   8.271 -0.6354 -1.8718  1.1775
74895SOL    HW242296   1.799   9.617   8.199 -0.0123  0.2163  2.3362
74896SOL     OW42297   4.450   2.781   0.759 -0.1736 -0.0277  0.5503
74896SOL    HW142298   4.529   2.788   0.704 -0.2562  0.4733  0.4903
74896SOL    HW242299   4.484   2.765   0.847 -0.0079  0.1644  0.5221
74897SOL     OW42300   7.608  11.365   0.161 -0.4908 -0.4491  0.2467
74897SOL    HW142301   7.648  11.392   0.244  1.0402 -2.6110  0.2916
74897SOL    HW242302   7.529  11.317   0.186 -0.6057 -0.1835  0.3948
74898SOL     OW42303   4.688   2.026   0.920 -0.2917  0.3429 -0.4762
74898SOL    HW142304   4.685   1.937   0.884  0.5847  0.7681 -1.6724
74898SOL    HW242305   4.610   2.069   0.886  0.1071  0.4982 -1.1946
74899SOL     OW42306   5.571  13.946   8.027 -0.2208 -0.6945 -0.6144
74899SOL    HW142307   5.648  13.944   7.970 -0.5472  1.3955 -1.2362
74899SOL    HW242308   5.497  13.943   7.967 -0.6071 -0.9144 -0.1322
74900SOL     OW42309   0.400   1.108  13.858 -0.8490  0.7692 -0.3074
74900SOL    HW142310   0.425   1.036  13.800 -0.6226 -1.4160  2.3013
74900SOL    HW242311   0.459   1.179  13.834 -0.0823 -0.3649 -2.0321
74901SOL     OW42312   9.356   3.067  12.683 -0.2277 -0.4235  0.3030
74901SOL    HW142313   9.435   3.110  12.717 -1.6497  1.8929  0.9472
74901SOL    HW242314   9.389   2.999  12.625  2.3358 -2.6721  3.9575
74902SOL     OW42315   2.241   3.466   8.365  0.4118  0.0677  0.6327
74902SOL    HW142316   2.193   3.545   8.340 -1.4369 -1.0963  0.3032
74902SOL    HW242317   2.251   3.417   8.283  1.5792 -0.0339  0.8201
74903SOL     OW42318   6.276   3.291   1.328  0.0120 -0.2093  0.6733
74903SOL    HW142319   6.251   3.202   1.352 -0.3539  0.0289  1.1858
74903SOL    HW242320   6.360   3.304   1.371 -0.9343  0.4372  2.3909
74904SOL     OW42321  12.044   3.016  13.472  0.1025  0.2579 -0.3526
74904SOL    HW142322  12.094   3.089  13.506  0.6779 -1.2465  2.3105
74904SOL    HW242323  12.110   2.950  13.448 -0.4311 -1.2033  1.8784
74905SOL     OW42324  13.172  13.515   6.626 -0.7364 -0.2525 -0.0366
74905SOL    HW142325  13.096  13.543   6.677 -1.1003 -2.2566  0.5959
74905SOL    HW242326  13.187  13.425   6.652  1.3558 -0.1869 -0.7930
74906SOL     OW42327   1.234   6.545  10.361 -0.3723 -0.5590  0.2966
74906SOL    HW142328   1.200   6.475  10.418  0.5699  0.3054  1.9901
74906SOL    HW242329   1.227   6.624  10.414 -0.2271  0.4389 -1.1268
74907SOL     OW42330  10.260  10.730   7.534 -0.2519  0.2979 -0.3135
74907SOL    HW142331  10.318  10.690   7.469  0.7719  0.5898  0.4036
74907SOL    HW242332  10.175  10.735   7.490  0.6444  1.4899 -2.0486
74908SOL     OW42333  13.776   0.009   4.043  0.7122  0.5394  0.4441
74908SOL    HW142334  13.783  -0.072   4.093  0.1469  0.6339  0.6847
74908SOL    HW242335  13.683   0.016   4.021  1.0484  0.1364 -1.2335
74909SOL     OW42336  13.708   5.929   4.495 -0.2434 -0.6486  0.0856
74909SOL    HW142337  13.652   5.933   4.573  0.0495  1.4028  0.2306
74909SOL    HW242338  13.648   5.901   4.425 -0.7915 -1.2583  0.7737
74910SOL     OW42339   2.900   3.660   7.211  0.3924  0.6729 -0.0719
74910SOL    HW142340   2.833   3.696   7.269  0.0336  1.1295 -0.7534
74910SOL    HW242341   2.919   3.730   7.149  1.0309  0.3196 -0.2927
74911SOL     OW42342   5.376  10.859   4.947 -0.4265  0.0668  0.4351
74911SOL    HW142343   5.455  10.836   4.997 -1.1672 -2.3035  0.6499
74911SOL    HW242344   5.305  10.852   5.011 -1.1890 -1.3892 -0.5094
74912SOL     OW42345   8.819  13.695   6.911 -0.2179 -0.4231  0.1416
74912SOL    HW142346   8.823  13.693   6.816 -1.6829  1.0088  0.0173
74912SOL    HW242347   8.894  13.643   6.939  0.8464 -0.0053 -1.7810
74913SOL     OW42348   4.526  12.561  11.134  0.1014  0.3026  0.0278
74913SOL    HW142349   4.566  12.619  11.199  0.8604  0.2759 -0.3991
74913SOL    HW242350   4.586  12.486  11.129 -0.7141 -0.3925  0.3620
74914SOL     OW42351  11.441   2.583   5.121  0.1148  0.0376 -0.5061
74914SOL    HW142352  11.427   2.489   5.111  1.1419 -0.6155  2.9511
74914SOL    HW242353  11.516   2.602   5.065 -0.2158 -1.1241 -1.3965
74915SOL     OW42354   1.344   5.250   8.605 -0.8910 -0.5576  0.4216
74915SOL    HW142355   1.420   5.192   8.611 -1.7664 -1.5924  2.6427
74915SOL    HW242356   1.301   5.226   8.523  0.2503 -1.1165 -0.0341
74916SOL     OW42357  12.314   5.491   9.165 -0.1455  0.1898  0.1117
74916SOL    HW142358  12.290   5.401   9.142 -1.2940  0.5429 -0.0806
74916SOL    HW242359  12.231   5.537   9.177  0.4100  0.9002  1.5416
74917SOL     OW42360  13.579  12.366   8.987  0.6519  0.6626 -0.5113
74917SOL    HW142361  13.520  12.330   9.053 -1.3748  1.6585 -1.6962
74917SOL    HW242362  13.593  12.294   8.925  0.9508  0.3335 -0.0680
74918SOL     OW42363   4.060   3.566   3.638 -0.2172  0.0959 -0.0049
74918SOL    HW142364   4.124   3.554   3.568  2.6557 -0.4579  2.5061
74918SOL    HW242365   4.082   3.651   3.676 -1.8277  0.4627  0.2137
74919SOL     OW42366  12.190   8.432  13.813 -0.6596  0.2050  0.2272
74919SOL    HW142367  12.106   8.462  13.847 -1.3989 -1.6387  0.1604
74919SOL    HW242368  12.179   8.337  13.803  0.7057  0.2026 -1.8255
74920SOL     OW42369   7.088   5.450  13.230  0.0736  0.4384 -0.4112
74920SOL    HW142370   7.163   5.507  13.212  2.0217 -1.9469 -0.3782
74920SOL    HW242371   7.086   5.389  13.156  0.3061 -1.6233  1.2077
74921SOL     OW42372   9.737   2.525  11.076 -0.1922  0.0910 -0.3418
74921SOL    HW142373   9.722   2.539  10.983 -1.1212  0.0703 -0.2006
74921SOL    HW242374   9.825   2.561  11.092 -0.6006  1.4043 -0.9346
74922SOL     OW42375   2.714  12.048  13.580  0.2200 -0.4786 -0.0310
74922SOL    HW142376   2.727  11.953  13.585  1.1748 -0.3121  0.7520
74922SOL    HW242377   2.748  12.082  13.662  2.4634  0.8154 -1.4069
74923SOL     OW42378  11.238   4.944   4.702 -0.3228 -0.3041 -0.2309
74923SOL    HW142379  11.263   4.988   4.621  1.1195 -1.1113 -0.2468
74923SOL    HW242380  11.303   4.875   4.714 -1.0048 -0.7517  1.1778
74924SOL     OW42381   5.539   9.795   5.822  0.2695 -0.2192 -0.0562
74924SOL    HW142382   5.515   9.888   5.832 -0.4149 -0.5157  1.2606
74924SOL    HW242383   5.569   9.788   5.731  2.7259  1.7920  0.5042
74925SOL     OW42384  11.905  10.311   7.941  0.2509 -0.4098 -0.1911
74925SOL    HW142385  11.934  10.395   7.978  0.2451  0.3241 -1.7870
74925SOL    HW242386  11.819  10.330   7.904 -0.6431 -1.6375  1.1687
74926SOL     OW42387   3.582   1.522   9.872 -0.3389  0.0937 -0.1282
74926SOL    HW142388   3.499   1.512   9.918 -0.3018  0.0819 -0.0630
74926SOL    HW242389   3.649   1.508   9.940 -0.2841  0.3375 -0.1281
74927SOL     OW42390   1.312   5.189   9.971  0.4318 -0.2908 -0.5752
74927SOL    HW142391   1.298   5.168   9.879 -0.4595  0.0325 -0.5222
74927SOL    HW242392   1.224   5.192  10.009  0.6658  1.1927 -0.0730
74928SOL     OW42393   6.350   6.721   6.063 -0.2649 -0.4659  0.6323
74928SOL    HW142394   6.298   6.661   6.010 -0.3332 -0.8296  1.1067
74928SOL    HW242395   6.364   6.797   6.006  0.8196 -1.4045 -0.3823
74929SOL     OW42396  11.005  13.056   1.540  0.3297  0.3415  0.4618
74929SOL    HW142397  10.918  13.020   1.559  0.3660  1.0143  2.0191
74929SOL    HW242398  10.987  13.140   1.498  0.1899  0.9634  1.7182
74930SOL     OW42399  11.212   2.922   3.837  0.2579  0.2712 -0.3710
74930SOL    HW142400  11.158   2.984   3.887 -2.4795 -2.4750  0.3695
74930SOL    HW242401  11.231   2.852   3.899  0.9150 -0.9514 -1.9101
74931SOL     OW42402  11.701   0.538   6.879 -0.4639  0.8459 -0.0710
74931SOL    HW142403  11.632   0.566   6.939  0.2991 -0.0698  1.3064
74931SOL    HW242404  11.661   0.541   6.792 -2.3126  0.1001  0.7014
74932SOL     OW42405   1.895   8.425   2.821 -0.4767  0.3661 -0.3722
74932SOL    HW142406   1.877   8.445   2.913  0.6682  1.6293 -0.3958
74932SOL    HW242407   1.962   8.488   2.795 -0.1776 -0.5059 -1.8487
74933SOL     OW42408   0.131  11.042   2.492 -0.5043  0.2979  0.1867
74933SOL    HW142409   0.181  11.017   2.414 -0.8501 -1.0826  0.3748
74933SOL    HW242410   0.198  11.064   2.557 -0.1721  0.1250 -0.0897
74934SOL     OW42411   3.797  10.037   7.116  0.0948 -0.6789 -0.0415
74934SOL    HW142412   3.813  10.118   7.164  0.1485 -0.1582 -0.9234
74934SOL    HW242413   3.705  10.042   7.090  0.3092 -0.5284 -0.7832
74935SOL     OW42414   9.862  13.776   4.750  0.0041  0.5760 -0.1586
74935SOL    HW142415   9.879  13.682   4.747 -0.4735  0.5124 -1.3797
74935SOL    HW242416   9.843  13.800   4.659 -0.0469  1.8211  0.1637
74936SOL     OW42417  14.030   2.221   1.509 -0.2649 -0.2665 -0.3151
74936SOL    HW142418  14.019   2.315   1.524  0.8610 -0.3455  1.1669
74936SOL    HW242419  14.061   2.187   1.592 -0.3611 -1.9216 -0.9254
74937SOL     OW42420  12.465   5.364  13.862  0.5555 -0.0018 -0.2347
74937SOL    HW142421  12.439   5.338  13.951  1.4547 -1.6648 -0.4025
74937SOL    HW242422  12.532   5.299  13.838  0.1696  0.2925 -2.2105
74938SOL     OW42423   0.002   1.038   4.825  0.6296 -0.2258 -0.0106
74938SOL    HW142424   0.040   1.126   4.828 -0.0638  0.0529  1.0465
74938SOL    HW242425   0.077   0.979   4.829  1.0652  0.3163 -0.1315
74939SOL     OW42426  12.153  12.455   0.528 -0.1481  0.4712 -0.3822
74939SOL    HW142427  12.236  12.471   0.484  0.0482 -0.7517 -0.5036
74939SOL    HW242428  12.169  12.477   0.619  0.3885  0.0361 -0.3639
74940SOL     OW42429   9.511   2.442   1.028  0.3614  0.0987  0.1753
74940SOL    HW142430   9.589   2.452   0.972  0.1634  2.6887  0.2519
74940SOL    HW242431   9.541   2.387   1.100  1.6317 -0.3703 -0.6617
74941SOL     OW42432   1.443   0.571   6.836  0.0374  0.1460  0.6830
74941SOL    HW142433   1.533   0.552   6.860  1.3649  0.3166 -3.4828
74941SOL    HW242434   1.401   0.485   6.830  0.2867 -0.0243  1.2861
74942SOL     OW42435   6.668  11.339   9.404  0.0173 -0.5981  0.1140
74942SOL    HW142436   6.633  11.427   9.419 -0.3857 -0.4587 -1.4416
74942SOL    HW242437   6.757  11.355   9.370  0.1388 -0.8169  0.3247
74943SOL     OW42438   9.652   6.607  13.261  0.2708  0.5149  0.1486
74943SOL    HW142439   9.618   6.656  13.336  0.4004  1.0458 -0.1406
74943SOL    HW242440   9.589   6.535  13.250 -0.5000  1.2129 -0.0758
74944SOL     OW42441   3.335   2.592  12.184 -0.1301  0.1638  0.1911
74944SOL    HW142442   3.364   2.518  12.237 -0.2492 -0.6057 -0.8153
74944SOL    HW242443   3.290   2.649  12.247  2.2026  0.6976  1.5037
74945SOL     OW42444   4.224  11.488   8.734  0.1409 -0.2614  0.1929
74945SOL    HW142445   4.226  11.538   8.815 -0.4287  0.1854 -0.0613
74945SOL    HW242446   4.273  11.408   8.754 -1.0719 -0.7595  1.3933
74946SOL     OW42447  11.101   5.633   1.723  0.2495 -0.5633 -0.1937
74946SOL    HW142448  11.184   5.595   1.750  0.3023 -0.4176 -0.1446
74946SOL    HW242449  11.056   5.653   1.805 -0.1336 -1.2835 -0.2238
74947SOL     OW42450   9.823   3.078   6.329  0.3871  0.6528 -0.2142
74947SOL    HW142451   9.896   3.100   6.387  1.2763  1.3240 -1.5354
74947SOL    HW242452   9.812   3.156   6.274 -2.1066  1.0333  0.6836
74948SOL     OW42453   0.563   8.275   5.091 -0.1073 -0.2482 -0.4900
74948SOL    HW142454   0.638   8.332   5.078 -0.5549 -0.0090 -2.4261
74948SOL    HW242455   0.533   8.254   5.002 -2.3919 -0.2282  0.1956
74949SOL     OW42456  13.236   6.260   8.875 -0.4474  0.1128 -0.2764
74949SOL    HW142457  13.220   6.256   8.781 -1.4218 -1.2289 -0.0928
74949SOL    HW242458  13.266   6.172   8.898  0.2437  0.5573  0.6050
74950SOL     OW42459   3.844   7.529   2.428  0.0599 -0.1958  0.6170
74950SOL    HW142460   3.767   7.483   2.462 -0.2863 -0.2287 -0.2024
74950SOL    HW242461   3.907   7.460   2.409 -0.1354 -0.2632  0.2103
74951SOL     OW42462  12.983   5.769  13.002  0.8998 -0.9786  0.6313
74951SOL    HW142463  12.920   5.839  13.016  0.0371 -1.6186  0.0883
74951SOL    HW242464  13.043   5.802  12.935 -2.3481 -2.4017 -3.3902
74952SOL     OW42465   6.736  14.003   7.001 -0.2226 -0.1282 -0.2249
74952SOL    HW142466   6.644  13.983   7.020 -0.0058 -0.9558 -0.0063
74952SOL    HW242467   6.754  13.955   6.920 -0.0072  0.1177 -0.3226
74953SOL     OW42468   1.914   1.342   3.345  0.2904 -0.8414 -0.3635
74953SOL    HW142469   1.902   1.328   3.251 -2.2208 -0.6956 -0.1313
74953SOL    HW242470   1.866   1.422   3.364  3.4174  0.9501  0.5821
74954SOL     OW42471   6.971   4.771   1.230  0.1295  0.6172 -0.7204
74954SOL    HW142472   7.033   4.732   1.169  0.7986  0.3288  0.1310
74954SOL    HW242473   6.900   4.707   1.237  0.8117 -0.0725  0.0136
74955SOL     OW42474   1.833   5.332  10.173 -0.9304  0.4009 -0.0378
74955SOL    HW142475   1.899   5.388  10.132 -0.6043  0.3959  0.4771
74955SOL    HW242476   1.750   5.364  10.139 -0.6953  0.7126 -0.3250
74956SOL     OW42477   7.484   0.972   3.960 -0.7089  0.0620  0.2832
74956SOL    HW142478   7.467   0.911   3.888 -0.7033  2.3125 -1.7380
74956SOL    HW242479   7.579   0.976   3.966 -0.7118 -0.3046  0.5800
74957SOL     OW42480   9.135  13.567  10.857 -0.1926 -0.1663  0.2919
74957SOL    HW142481   9.122  13.608  10.771  1.1878  1.4115  0.7708
74957SOL    HW242482   9.048  13.537  10.883 -0.8440  0.3787 -1.1369
74958SOL     OW42483   3.621   4.626  10.718 -0.1466  0.0896 -0.1815
74958SOL    HW142484   3.560   4.564  10.678 -1.2271  0.5994  0.6375
74958SOL    HW242485   3.672   4.573  10.779 -0.0748 -0.2491 -0.5267
74959SOL     OW42486   2.697   4.001  10.470  0.1912 -0.2003  0.2782
74959SOL    HW142487   2.615   4.049  10.466  0.7263  0.7013 -0.6313
74959SOL    HW242488   2.680   3.927  10.527 -1.5099 -0.5255 -0.6054
74960SOL     OW42489   3.288  11.341   4.038  0.4657 -0.2212 -0.2712
74960SOL    HW142490   3.368  11.317   4.086  1.0908  0.3512 -1.0158
74960SOL    HW242491   3.241  11.258   4.027  0.4234 -0.4067  1.1054
74961SOL     OW42492   2.971   4.962   7.377  0.2567  0.2095 -0.2127
74961SOL    HW142493   2.898   5.024   7.376 -1.1291 -1.3190 -0.4758
74961SOL    HW242494   2.980   4.934   7.286 -0.8660 -1.7655  0.2039
74962SOL     OW42495   0.775  13.778  11.555 -0.3416  0.0961 -0.2468
74962SOL    HW142496   0.865  13.746  11.549 -0.3301 -0.1170  0.8548
74962SOL    HW242497   0.739  13.736  11.633 -1.2402  0.5747 -0.3816
74963SOL     OW42498   6.819   8.782  10.478  0.5136  0.3454  0.1106
74963SOL    HW142499   6.727   8.802  10.461 -1.0624 -3.2491  3.1904
74963SOL    HW242500   6.862   8.868  10.477 -3.0814  2.3472 -0.0412
74964SOL     OW42501   2.861  11.467   3.503  0.4212 -0.3754  0.0091
74964SOL    HW142502   2.774  11.454   3.464 -0.4777  1.9566  1.0623
74964SOL    HW242503   2.872  11.562   3.505  2.2187 -0.5684  1.6036
74965SOL     OW42504   0.062   2.306   6.313  0.4465 -0.7904 -0.6933
74965SOL    HW142505   0.064   2.323   6.407  2.5554 -1.7849 -0.5001
74965SOL    HW242506   0.057   2.392   6.273 -0.5021 -0.3578  0.3257
74966SOL     OW42507   9.577   3.797   1.351 -0.4041  0.2166  0.4875
74966SOL    HW142508   9.582   3.724   1.290  0.1295  1.1607 -0.6308
74966SOL    HW242509   9.493   3.786   1.395 -2.1100  1.0066 -2.3595
74967SOL     OW42510   9.798  10.289  11.145 -0.1537 -0.0678  0.3804
74967SOL    HW142511   9.811  10.261  11.236 -1.9128  2.0533  1.3873
74967SOL    HW242512   9.847  10.371  11.138 -2.7998  1.6422  0.5764
74968SOL     OW42513   1.349   9.857   7.100 -0.2330 -0.4775 -0.8763
74968SOL    HW142514   1.433   9.847   7.146  0.6324  0.8819 -2.0873
74968SOL    HW242515   1.299   9.916   7.156 -0.0354 -0.5722 -0.5957
74969SOL     OW42516  10.636   0.544   2.770 -0.4767 -0.8035  0.3559
74969SOL    HW142517  10.563   0.539   2.709 -1.4079  1.2586  1.2018
74969SOL    HW242518  10.709   0.578   2.717 -0.2007 -2.4649 -0.3893
74970SOL     OW42519   5.818   4.544   9.498  0.2233  0.0653 -0.7489
74970SOL    HW142520   5.807   4.612   9.432  0.3925  0.5471 -0.2830
74970SOL    HW242521   5.741   4.552   9.554  1.1963  1.1951  0.4835
74971SOL     OW42522   0.465   7.195  11.348  0.2078 -0.4590  0.1372
74971SOL    HW142523   0.519   7.123  11.315 -1.2750 -2.4624  1.8018
74971SOL    HW242524   0.427   7.234  11.269  0.7691 -1.7271 -0.8010
74972SOL     OW42525   9.313   6.588   4.803 -0.0710 -0.4630 -0.0987
74972SOL    HW142526   9.375   6.644   4.849  0.0973 -1.3296  0.7662
74972SOL    HW242527   9.227   6.622   4.828 -0.0060 -1.4565  1.6195
74973SOL     OW42528   0.223   1.439   8.008  0.9840 -0.2953  0.5651
74973SOL    HW142529   0.304   1.441   7.956  0.5912 -1.3717 -0.1326
74973SOL    HW242530   0.208   1.346   8.024  0.4292 -0.0364  1.5784
74974SOL     OW42531  11.350   7.377  14.015  0.6078  0.6317 -0.2798
74974SOL    HW142532  11.379   7.341  13.932  0.2011  1.9764 -1.0343
74974SOL    HW242533  11.424   7.430  14.046 -0.0440  1.9697 -0.9326
74975SOL     OW42534   8.234   3.102   5.835 -0.1716  0.3224  0.4369
74975SOL    HW142535   8.277   3.160   5.898  0.5971  0.8027 -0.5139
74975SOL    HW242536   8.189   3.161   5.774  0.6658 -0.0494 -0.5739
74976SOL     OW42537   1.632  11.492   2.651 -0.0663  0.0516 -0.3060
74976SOL    HW142538   1.573  11.505   2.576 -1.6384 -1.5508  0.5902
74976SOL    HW242539   1.591  11.539   2.723  1.2992  1.3587 -0.3315
74977SOL     OW42540   1.567   8.842  11.850  0.3867  0.1410 -0.2365
74977SOL    HW142541   1.627   8.788  11.902 -0.6884 -0.5500  0.3089
74977SOL    HW242542   1.609   8.928  11.847  0.6253  0.1188  1.5300
74978SOL     OW42543   7.334   8.211   0.599 -0.0485  0.3126 -0.3410
74978SOL    HW142544   7.423   8.246   0.596  0.4807 -1.0205 -1.2744
74978SOL    HW242545   7.339   8.137   0.660 -1.1301  1.7187  1.5554
74979SOL     OW42546  12.217   9.800   1.723  0.2177 -0.6422 -0.6965
74979SOL    HW142547  12.167   9.880   1.705  2.3490  0.5799 -1.6129
74979SOL    HW242548  12.249   9.772   1.637  3.4850  0.3561  0.0696
74980SOL     OW42549   3.408  11.574   7.266  0.3486 -0.0772 -0.0810
74980SOL    HW142550   3.434  11.559   7.175 -0.5369  0.0704 -0.3744
74980SOL    HW242551   3.312  11.568   7.264  0.3519 -0.6699  0.9552
74981SOL     OW42552   2.573   6.556   2.588  0.3784  0.0902  0.3369
74981SOL    HW142553   2.610   6.505   2.661  0.2636  0.1873  0.4632
74981SOL    HW242554   2.560   6.643   2.624  0.6128  0.2207  0.1074
74982SOL     OW42555   2.294   1.331   0.539  0.2646  0.3907 -0.0822
74982SOL    HW142556   2.303   1.298   0.449  1.5711 -0.7295  0.4137
74982SOL    HW242557   2.254   1.259   0.587  2.2899 -0.2257  0.8231
74983SOL     OW42558   8.591   8.531   3.891  0.2459 -0.4086  0.0869
74983SOL    HW142559   8.555   8.443   3.893  0.3509 -0.4949 -1.1286
74983SOL    HW242560   8.632   8.542   3.976  1.0524 -1.8777 -0.0857
74984SOL     OW42561   5.521   1.485   3.698 -0.2676  0.2655  0.3948
74984SOL    HW142562   5.503   1.573   3.730  1.5554  0.6178  0.5710
74984SOL    HW242563   5.497   1.428   3.770 -1.7288  0.5587  0.1794
74985SOL     OW42564  13.733   0.764   5.398  0.1332  0.2767  0.3717
74985SOL    HW142565  13.799   0.736   5.335 -1.1898  0.9786 -1.4032
74985SOL    HW242566  13.666   0.696   5.395 -0.3888  0.7886  0.3262
74986SOL     OW42567  12.303  13.749   2.867  0.3072  0.2117 -0.3427
74986SOL    HW142568  12.270  13.776   2.782  0.0163  1.5791  0.1779
74986SOL    HW242569  12.382  13.801   2.881  1.6374 -1.6052 -0.7071
74987SOL     OW42570   7.235  13.170   2.681  0.2741  0.0577  0.5258
74987SOL    HW142571   7.329  13.170   2.699  0.7919  1.9970 -1.6932
74987SOL    HW242572   7.228  13.137   2.591 -1.0544  1.0407  0.2385
74988SOL     OW42573   2.984   2.977   3.536 -0.2024  0.0729  0.4499
74988SOL    HW142574   2.920   3.034   3.494  0.0994 -0.2329 -0.4543
74988SOL    HW242575   2.932   2.907   3.576 -0.5339  0.6952  1.1233
74989SOL     OW42576   3.057   7.471  11.095  0.4599  0.1035  0.4256
74989SOL    HW142577   3.143   7.430  11.088 -0.2753 -1.3853 -0.2728
74989SOL    HW242578   3.068   7.541  11.159  3.0962  2.3385 -2.1914
74990SOL     OW42579   2.066   9.956   8.313 -0.1832 -0.0591 -0.3905
74990SOL    HW142580   2.106  10.029   8.361 -0.3192  0.1416 -0.5780
74990SOL    HW242581   2.097   9.967   8.223  2.0993 -1.8717  0.0916
74991SOL     OW42582   2.065   1.186  12.189 -0.2813 -0.3045  0.2760
74991SOL    HW142583   2.148   1.185  12.236 -0.0263  3.3170  0.1164
74991SOL    HW242584   2.083   1.230  12.107 -2.2697  0.2080  0.0598
74992SOL     OW42585   0.426   8.693  13.017  0.0564 -0.0609 -0.0700
74992SOL    HW142586   0.468   8.618  13.058 -1.2109 -2.1459 -2.3417
74992SOL    HW242587   0.482   8.713  12.942 -1.9663 -1.8380 -2.1870
74993SOL     OW42588   5.139   5.657   8.284  0.1784 -0.4109  0.3479
74993SOL    HW142589   5.116   5.737   8.236  1.6309  0.7539  1.5170
74993SOL    HW242590   5.059   5.634   8.331 -0.1421  0.5831  0.3069
74994SOL     OW42591  10.604  11.824   1.265  0.4154  0.1564 -0.0589
74994SOL    HW142592  10.614  11.750   1.326  1.9925  0.0481 -0.4117
74994SOL    HW242593  10.579  11.897   1.321  1.7657  0.0412  0.7615
74995SOL     OW42594  12.895   0.691   5.590 -0.2625 -0.2217  0.4202
74995SOL    HW142595  12.908   0.772   5.540 -0.4703 -0.1857  0.4248
74995SOL    HW242596  12.929   0.622   5.533  0.0306 -0.1212  0.4673
74996SOL     OW42597  12.986   7.210  11.567 -0.1186 -0.4804 -0.3881
74996SOL    HW142598  12.984   7.181  11.475  1.4825 -0.7070 -0.3767
74996SOL    HW242599  13.048   7.282  11.567 -1.3306  0.5908  0.2541
74997SOL     OW42600   1.685  11.941   5.974 -0.4583  0.3620  0.0107
74997SOL    HW142601   1.632  11.878   5.926  0.5646  0.6289 -1.5145
74997SOL    HW242602   1.734  11.888   6.037  2.4037 -0.8993 -2.9771
74998SOL     OW42603   9.894  11.213   7.229  0.3875 -0.6203  0.5692
74998SOL    HW142604   9.986  11.192   7.239  0.6518  0.9810  2.1261
74998SOL    HW242605   9.887  11.304   7.258 -1.1443  0.4566 -2.6089
74999SOL     OW42606   1.217   1.856   3.790  0.1599 -0.3170  0.2797
74999SOL    HW142607   1.223   1.765   3.821 -2.7954 -0.6413  0.1506
74999SOL    HW242608   1.161   1.899   3.854 -0.8242  0.6708 -1.1996
75000SOL     OW42609  13.142   6.155   6.173  0.3216 -0.3138 -0.5078
75000SOL    HW142610  13.084   6.204   6.232  0.0121 -1.2358 -0.0351
75000SOL    HW242611  13.187   6.223   6.123  0.9879  0.5198  1.1525
75001SOL     OW42612   7.903   7.037  11.147 -0.2517  0.0040  0.0417
75001SOL    HW142613   7.851   7.049  11.068  0.2513  0.8951 -0.1601
75001SOL    HW242614   7.855   7.086  11.215 -1.2116 -1.5475  0.5552
75002SOL     OW42615  10.210   2.986  10.665 -0.3311  0.2481  0.4344
75002SOL    HW142616  10.259   3.068  10.675  1.2114 -0.8081  2.1906
75002SOL    HW242617  10.154   3.001  10.588  0.9206  2.4239 -0.1467
75003SOL     OW42618   7.385   4.361   1.404  0.3368 -0.5009 -0.3075
75003SOL    HW142619   7.305   4.321   1.369  1.4015 -1.0193 -2.3025
75003SOL    HW242620   7.431   4.289   1.447  1.1827 -0.9759 -1.9284
75004SOL     OW42621   6.666   8.928   3.833  0.1922 -0.1497  0.3661
75004SOL    HW142622   6.705   8.935   3.745 -0.0770  0.6391  0.3049
75004SOL    HW242623   6.581   8.970   3.824  0.7890  1.3325  1.3874
75005SOL     OW42624   5.910  11.497   5.347  0.1986  0.4931  0.2671
75005SOL    HW142625   5.953  11.529   5.426  0.5221  2.6131 -0.6857
75005SOL    HW242626   5.982  11.470   5.289  0.2957  2.9999 -0.8992
75006SOL     OW42627   9.503  12.337   8.846  0.3333 -0.2828 -0.5411
75006SOL    HW142628   9.408  12.340   8.860  0.6186  3.3897  2.0065
75006SOL    HW242629   9.523  12.419   8.801  2.4310 -0.5320 -0.1478
75007SOL     OW42630  10.434  10.092  11.485  0.0935 -0.2690  0.0087
75007SOL    HW142631  10.466  10.119  11.571  1.3487  0.5959 -0.7041
75007SOL    HW242632  10.507  10.108  11.426 -1.2211  0.5049 -1.4735
75008SOL     OW42633   1.747  13.064   5.988  0.4217  0.4593  0.1890
75008SOL    HW142634   1.836  13.074   5.952  0.7659  0.1579  0.9414
75008SOL    HW242635   1.689  13.087   5.915  1.1103  0.0541 -0.4965
75009SOL     OW42636   1.491   2.780  13.905 -0.3131  0.0326 -0.2091
75009SOL    HW142637   1.573   2.814  13.870  0.0851 -1.1339 -0.4421
75009SOL    HW242638   1.436   2.766  13.829  0.7288 -2.9797 -0.5663
75010SOL     OW42639   1.761  11.692  10.813  0.0609 -0.2271  0.1836
75010SOL    HW142640   1.774  11.784  10.838 -1.8167 -0.2820  1.5807
75010SOL    HW242641   1.677  11.668  10.853  0.8709 -2.7901  0.5078
75011SOL     OW42642   2.869   4.051   0.835  0.7436 -0.0582 -0.1785
75011SOL    HW142643   2.853   3.987   0.904  0.6708  0.8003  0.6377
75011SOL    HW242644   2.853   4.004   0.753  1.2090 -1.2059  0.3697
75012SOL     OW42645  12.981  13.065  12.065 -0.0057 -0.0849 -0.0346
75012SOL    HW142646  12.979  13.156  12.095  1.9482  0.1478 -0.5025
75012SOL    HW242647  12.917  13.020  12.121 -0.6631  1.4639  0.5206
75013SOL     OW42648   2.792   3.413   1.599 -0.2608  0.2293 -0.1092
75013SOL    HW142649   2.765   3.427   1.508 -0.5169 -0.2155 -0.1064
75013SOL    HW242650   2.812   3.500   1.632  2.0891  0.2397 -1.2860
75014SOL     OW42651   2.269  12.446   6.686  0.4627 -0.0241  0.0861
75014SOL    HW142652   2.228  12.424   6.602 -0.4518  1.0930  0.2184
75014SOL    HW242653   2.201  12.494   6.734  2.0561  2.3975  0.0939
75015SOL     OW42654   7.779   0.244  11.744  0.1754 -0.1560  0.1569
75015SOL    HW142655   7.870   0.225  11.764  0.3532 -2.0844 -2.1000
75015SOL    HW242656   7.730   0.211  11.819  1.3248  2.7176  2.3754
75016SOL     OW42657   4.339  13.497   7.031 -0.5400 -0.7573 -0.3700
75016SOL    HW142658   4.320  13.403   7.035  0.2137 -0.8685  1.0560
75016SOL    HW242659   4.266  13.537   7.078 -0.0369 -0.7641  0.4262
75017SOL     OW42660   4.320  10.466   9.482  0.3072 -0.1070 -0.3372
75017SOL    HW142661   4.287  10.479   9.394 -2.6959 -0.8468  0.5497
75017SOL    HW242662   4.412  10.442   9.470  0.0935  0.1640 -3.2071
75018SOL     OW42663  10.499   3.084   8.538 -0.6353  0.4695  0.4988
75018SOL    HW142664  10.530   3.150   8.477  0.7682 -0.9792 -0.4091
75018SOL    HW242665  10.430   3.037   8.491 -1.0446  0.7272  0.8313
75019SOL     OW42666   3.176   4.017   8.097 -1.4884  0.0575 -0.2112
75019SOL    HW142667   3.187   3.923   8.079 -1.0528  0.3178 -1.4533
75019SOL    HW242668   3.248   4.039   8.156 -1.6793 -0.4144  0.2053
75020SOL     OW42669   4.546  10.698   1.082 -0.4163  0.3525 -0.1969
75020SOL    HW142670   4.634  10.661   1.090 -1.0098 -1.5858 -1.7599
75020SOL    HW242671   4.526  10.732   1.169  0.1661 -3.2087  1.5366
75021SOL     OW42672   8.117   4.226   2.724  0.5692  0.6106 -0.6951
75021SOL    HW142673   8.210   4.235   2.703  1.3369  0.2066  2.0828
75021SOL    HW242674   8.106   4.276   2.805 -1.3466 -0.3872 -0.2817
75022SOL     OW42675   2.739  13.416   7.933  0.0300 -0.0968 -0.1164
75022SOL    HW142676   2.648  13.437   7.911 -0.0175  1.5770  1.4781
75022SOL    HW242677   2.746  13.322   7.917 -1.6294 -0.0526 -1.4069
75023SOL     OW42678  12.683  13.817   3.494  0.2321 -0.5520  0.7427
75023SOL    HW142679  12.674  13.868   3.413  2.2604 -1.4932 -0.1567
75023SOL    HW242680  12.643  13.732   3.473 -0.2383 -0.4363  1.1381
75024SOL     OW42681   9.380   4.351  13.375  0.2247  0.0152  0.2094
75024SOL    HW142682   9.439   4.394  13.437  0.5393 -0.5932  0.3484
75024SOL    HW242683   9.414   4.375  13.288  0.6016 -0.2256  0.2888
75025SOL     OW42684   3.055  10.098   1.709 -0.6446  0.2114 -0.3209
75025SOL    HW142685   3.013  10.079   1.626  0.9148  1.5802 -1.4944
75025SOL    HW242686   3.021  10.184   1.734  0.5390  0.8050 -0.6956
75026SOL     OW42687  12.949  10.299   9.500 -0.0406 -0.3222 -0.0998
75026SOL    HW142688  12.883  10.310   9.569 -0.2899 -1.7308 -0.0988
75026SOL    HW242689  12.987  10.387   9.490 -0.1416 -0.0430  1.6723
75027SOL     OW42690   1.891   5.483  12.391  0.4884 -0.0635 -0.3071
75027SOL    HW142691   1.829   5.550  12.360 -0.6017 -1.5705 -1.5828
75027SOL    HW242692   1.847   5.444  12.467 -0.2042 -1.1273 -1.2075
75028SOL     OW42693   1.532  12.860  11.316  0.6422  0.5193  0.1119
75028SOL    HW142694   1.507  12.803  11.389  0.3918 -0.5097 -0.7530
75028SOL    HW242695   1.569  12.937  11.358  1.3492 -0.4369  1.3233
75029SOL     OW42696   9.514  12.862   8.292  0.4085  0.2674  0.4363
75029SOL    HW142697   9.429  12.875   8.250  0.5084 -2.2721 -0.7648
75029SOL    HW242698   9.578  12.882   8.223  0.6472 -1.4460  0.1274
75030SOL     OW42699   5.814   5.057   4.536 -0.1691 -0.6267 -0.0778
75030SOL    HW142700   5.721   5.047   4.558  0.1721 -2.5704  0.6161
75030SOL    HW242701   5.859   4.997   4.595  1.3118 -1.6016 -2.0997
75031SOL     OW42702   6.738   6.706   6.674  0.3396  0.1632  0.2928
75031SOL    HW142703   6.683   6.631   6.699  2.0924 -0.7693  1.5718
75031SOL    HW242704   6.750   6.697   6.580 -1.2691  0.1370  0.0529
75032SOL     OW42705  12.025   8.026   0.907 -0.1085  0.3033 -0.2373
75032SOL    HW142706  11.964   7.966   0.950  1.2054 -0.7176  0.2734
75032SOL    HW242707  12.049   7.981   0.826  0.8035  0.1605  0.0960
75033SOL     OW42708  10.649  13.833   5.874  0.2962  0.0618  0.0055
75033SOL    HW142709  10.570  13.871   5.837  0.8778  1.6960  0.3772
75033SOL    HW242710  10.649  13.861   5.966  0.9100 -0.5941  0.2245
75034SOL     OW42711  12.616   6.804   2.823 -0.4316 -0.2571 -0.1445
75034SOL    HW142712  12.700   6.839   2.853 -0.8069 -0.5408  1.3505
75034SOL    HW242713  12.570   6.878   2.785 -0.4603  0.4747  1.2533
75035SOL     OW42714   6.277   1.332   6.361  0.4371 -0.1812  0.0753
75035SOL    HW142715   6.254   1.324   6.268  0.9452 -0.4510 -0.0332
75035SOL    HW242716   6.372   1.348   6.361  0.7071 -1.6090  0.5938
75036SOL     OW42717   2.507  12.445  12.233  0.1228 -0.2073 -0.5992
75036SOL    HW142718   2.466  12.499  12.301  2.3195 -0.5250  1.1046
75036SOL    HW242719   2.434  12.408  12.184 -1.6992 -1.1749  2.5698
75037SOL     OW42720   8.062   2.511   7.492 -0.0667 -0.0944  0.2248
75037SOL    HW142721   8.055   2.524   7.397 -2.0915 -0.5441  0.2473
75037SOL    HW242722   8.009   2.433   7.508 -0.1301  0.2503  1.7877
75038SOL     OW42723   2.258   2.808   6.868 -0.1901 -0.4437  0.2752
75038SOL    HW142724   2.209   2.809   6.951 -1.0790  0.6857 -0.2470
75038SOL    HW242725   2.350   2.802   6.895 -0.3029  1.9135  1.4640
75039SOL     OW42726   6.624   5.742   6.574  0.0246  0.1064  0.5091
75039SOL    HW142727   6.545   5.785   6.606 -0.5311 -1.7017  1.6988
75039SOL    HW242728   6.682   5.814   6.550 -2.3722  1.4832 -1.5387
75040SOL     OW42729  10.571   8.306   5.128 -0.4188 -0.6429 -0.1331
75040SOL    HW142730  10.528   8.225   5.103 -0.9672 -0.7130  0.9884
75040SOL    HW242731  10.664   8.287   5.120 -0.5527 -0.8410 -1.4882
75041SOL     OW42732  10.724  12.974   4.085 -0.6092  0.4937  0.2124
75041SOL    HW142733  10.704  13.037   4.016 -2.9566  1.3737  1.5782
75041SOL    HW242734  10.719  13.024   4.166  0.3826 -0.8680  1.1743
75042SOL     OW42735  14.086  13.323   9.544  0.0237 -0.0038 -0.1959
75042SOL    HW142736  14.069  13.237   9.503 -0.4518  0.4715 -1.0285
75042SOL    HW242737  14.179  13.338   9.528 -0.0045 -0.1360 -0.5110
75043SOL     OW42738   1.033   8.062   3.356 -0.4220  0.5676  0.5236
75043SOL    HW142739   1.024   7.970   3.378  1.4119  0.1002 -0.4929
75043SOL    HW242740   1.048   8.063   3.261 -0.3840  1.9052  0.5232
75044SOL     OW42741   4.302   6.358  13.153  0.3263 -0.0489 -0.3189
75044SOL    HW142742   4.269   6.338  13.066  0.0433 -1.0788  0.0061
75044SOL    HW242743   4.306   6.454  13.156 -0.8268  0.0427 -1.0349
75045SOL     OW42744   7.372   2.087  13.642  0.1512 -0.1889 -0.3004
75045SOL    HW142745   7.315   2.085  13.565  0.2813  1.0478 -0.4522
75045SOL    HW242746   7.338   2.157  13.696  0.2212 -0.8837  0.6678
75046SOL     OW42747  10.309   9.177   5.299  0.0713 -0.3381  0.4995
75046SOL    HW142748  10.312   9.272   5.304  0.6290 -0.3453  0.3655
75046SOL    HW242749  10.337   9.156   5.210 -1.9233 -0.5571 -0.1389
75047SOL     OW42750   6.867  13.149  12.603  0.7774  0.1175 -0.1695
75047SOL    HW142751   6.939  13.109  12.553  0.3874  0.0492 -0.6810
75047SOL    HW242752   6.911  13.192  12.677  1.5812  1.9292 -1.6194
75048SOL     OW42753   2.709   0.770   3.503  0.5231  0.6230  0.1256
75048SOL    HW142754   2.662   0.811   3.576  0.8942  1.7678 -0.2628
75048SOL    HW242755   2.763   0.703   3.544  1.2332  1.7002  1.0070
75049SOL     OW42756   2.097   0.029  12.211  0.1062 -0.2144 -0.1147
75049SOL    HW142757   2.004   0.023  12.191  0.1327  0.6271 -0.5467
75049SOL    HW242758   2.125  -0.061  12.225 -0.8372 -0.4466  0.3216
75050SOL     OW42759  12.568   4.656   4.462  0.0698  0.0548 -0.1908
75050SOL    HW142760  12.487   4.605   4.453  0.5365 -0.9965  1.1975
75050SOL    HW242761  12.543   4.731   4.515  0.1880 -0.8221  1.1583
75051SOL     OW42762  13.653   2.112   3.397  0.1000 -0.5916 -0.2181
75051SOL    HW142763  13.665   2.093   3.304 -0.9669  0.0816 -0.5188
75051SOL    HW242764  13.559   2.132   3.405 -0.0063 -1.5391  1.1690
75052SOL     OW42765   9.620  10.626   4.115  0.3554 -0.1183  0.4635
75052SOL    HW142766   9.665  10.615   4.199 -0.6609 -0.4960  0.9731
75052SOL    HW242767   9.532  10.592   4.131  0.5936 -1.6477 -1.1790
75053SOL     OW42768  13.270  11.093  12.306 -0.2686  0.3929  0.0975
75053SOL    HW142769  13.284  11.039  12.383 -1.4686 -0.3969 -0.2218
75053SOL    HW242770  13.254  11.030  12.235 -0.8398  1.1400 -0.4503
75054SOL     OW42771  12.598   1.390  11.718  0.4090 -0.5440  0.2318
75054SOL    HW142772  12.692   1.393  11.702  0.2156 -1.5314 -1.3718
75054SOL    HW242773  12.561   1.453  11.656 -0.1092 -1.8372 -0.8523
75055SOL     OW42774   9.037  11.731  13.221  0.2616  0.7302  0.3380
75055SOL    HW142775   9.106  11.668  13.241 -0.7584 -0.1209  1.2637
75055SOL    HW242776   9.029  11.728  13.125  0.3788 -0.3754  0.3548
75056SOL     OW42777   9.844  11.045   4.744 -0.3412 -0.5183  0.3849
75056SOL    HW142778   9.806  11.132   4.747  1.0561  0.1707 -0.7441
75056SOL    HW242779   9.891  11.036   4.827  0.2151  0.1605  0.1539
75057SOL     OW42780   5.194  10.397   5.342 -0.1547 -0.9078  0.5288
75057SOL    HW142781   5.114  10.393   5.290  0.2382 -1.7312 -0.0386
75057SOL    HW242782   5.201  10.310   5.383 -0.3870 -0.3145  1.8671
75058SOL     OW42783   9.148  11.107   8.324 -0.7845 -0.1375  0.4992
75058SOL    HW142784   9.060  11.110   8.287 -0.9384  1.2490  0.9226
75058SOL    HW242785   9.203  11.153   8.259 -0.4197 -0.7514  0.3667
75059SOL     OW42786   6.516   8.626   5.449 -0.4416 -0.0073  0.0401
75059SOL    HW142787   6.573   8.694   5.415 -0.0768 -0.7057 -0.7662
75059SOL    HW242788   6.435   8.635   5.399 -0.1361 -0.6132 -0.5878
75060SOL     OW42789   9.417   5.727   2.234 -0.3041  0.4368  0.3073
75060SOL    HW142790   9.410   5.699   2.326  0.3241 -0.3210  0.1369
75060SOL    HW242791   9.437   5.646   2.187  0.8079  1.0538 -0.3090
75061SOL     OW42792  13.709   3.649   6.292 -0.3211 -0.2058  0.1079
75061SOL    HW142793  13.771   3.720   6.275  1.9046 -1.9933  0.1520
75061SOL    HW242794  13.637   3.690   6.340  0.2021  2.2229 -1.0571
75062SOL     OW42795   2.925   5.351   4.966  0.0200 -0.1685 -0.0046
75062SOL    HW142796   3.001   5.392   4.924  0.0540 -0.1002  0.1238
75062SOL    HW242797   2.857   5.417   4.962  0.0005 -0.1892 -0.0188
75063SOL     OW42798  13.894   1.442  13.283  0.6842  0.0659 -0.9812
75063SOL    HW142799  13.979   1.457  13.242  0.4197  0.2716 -1.4658
75063SOL    HW242800  13.841   1.518  13.256 -0.4337 -1.2714 -2.7730
75064SOL     OW42801  11.664   2.004   6.657 -0.4027  0.1369  0.8744
75064SOL    HW142802  11.686   1.990   6.565 -2.4286 -1.4924  0.5780
75064SOL    HW242803  11.713   2.083   6.681  0.3058  0.5170 -1.5252
75065SOL     OW42804   4.575   0.115  13.582 -0.4625 -0.2864  0.5513
75065SOL    HW142805   4.511   0.049  13.555  0.8519 -0.9926 -1.0409
75065SOL    HW242806   4.656   0.088  13.539  0.0755  2.5574 -0.4731
75066SOL     OW42807   6.143   6.706   0.960 -0.0422  0.8423 -0.6546
75066SOL    HW142808   6.121   6.614   0.974  0.2585  0.9508  0.6493
75066SOL    HW242809   6.225   6.719   1.009 -0.6851  2.0792  0.1332
75067SOL     OW42810   2.935   7.286   8.064 -0.1527  0.6532  0.0108
75067SOL    HW142811   2.914   7.196   8.087 -0.8890  0.6777 -0.5230
75067SOL    HW242812   2.975   7.280   7.977  1.0053  0.7267  0.5168
75068SOL     OW42813   5.077  12.823   2.142 -0.2993  0.0038 -0.2545
75068SOL    HW142814   5.117  12.839   2.227 -0.0896  1.7067 -0.6515
75068SOL    HW242815   5.018  12.749   2.157  1.8381 -1.6487  0.6817
75069SOL     OW42816   4.383   7.297  12.467 -0.5114 -0.2095 -0.0229
75069SOL    HW142817   4.422   7.319  12.382  0.8077 -2.3741 -0.0583
75069SOL    HW242818   4.387   7.379  12.517  1.5974  0.3450 -0.9950
75070SOL     OW42819   6.565   3.412   3.952  0.0808  0.0647  0.4006
75070SOL    HW142820   6.660   3.419   3.940  0.3131 -0.7052  1.6146
75070SOL    HW242821   6.551   3.433   4.045 -0.8424 -0.5926  0.4280
75071SOL     OW42822   4.292   1.369  11.148  0.2124  0.2631 -0.0302
75071SOL    HW142823   4.326   1.310  11.215 -0.6163 -0.3856 -0.1715
75071SOL    HW242824   4.202   1.387  11.175 -0.5883 -1.0784 -1.6475
75072SOL     OW42825   4.496  12.093   1.140  0.0500 -0.1473 -0.3655
75072SOL    HW142826   4.503  12.063   1.049  0.3323 -0.1771 -0.3334
75072SOL    HW242827   4.403  12.084   1.161 -0.0587  0.1003 -0.7357
75073SOL     OW42828   0.283  10.699   8.649  0.5108  0.3033 -0.1370
75073SOL    HW142829   0.290  10.768   8.583  2.2610 -0.6187 -0.9912
75073SOL    HW242830   0.209  10.725   8.703  1.1609  2.8946 -0.3587
75074SOL     OW42831   7.574   7.120   7.872 -0.2423 -0.1532 -1.3237
75074SOL    HW142832   7.493   7.133   7.823 -0.6103  1.1288 -0.4567
75074SOL    HW242833   7.571   7.029   7.901 -0.7414 -0.4809 -2.3856
75075SOL     OW42834   9.386   2.816   1.314  0.6721  0.1928  0.2716
75075SOL    HW142835   9.447   2.744   1.333  0.0782 -0.1890  0.7556
75075SOL    HW242836   9.316   2.776   1.263  0.1315  0.3414  0.8914
75076SOL     OW42837   0.456   0.248   8.332 -0.5967  0.3826 -0.3111
75076SOL    HW142838   0.395   0.269   8.403  0.0420  0.8442  0.1084
75076SOL    HW242839   0.508   0.174   8.366 -0.8816  0.0250 -0.6462
75077SOL     OW42840   9.206  10.965   9.115 -0.5743  0.1242 -0.4185
75077SOL    HW142841   9.127  10.931   9.157 -1.7812  1.2947 -1.6418
75077SOL    HW242842   9.271  10.895   9.126 -2.3934 -1.8114 -1.2596
75078SOL     OW42843  13.538   2.640  12.796 -0.6285 -0.6568 -0.3140
75078SOL    HW142844  13.628   2.630  12.826 -1.5213 -1.1137  2.5592
75078SOL    HW242845  13.517   2.732  12.812 -0.8112 -0.6428 -0.6140
75079SOL     OW42846   1.062   8.725   2.395  0.3398 -0.5678 -0.2933
75079SOL    HW142847   1.089   8.649   2.446  0.6478 -0.4055 -0.2082
75079SOL    HW242848   1.077   8.800   2.453  1.0146 -0.3488 -0.7263
75080SOL     OW42849   7.432   4.918  12.156 -0.0543  0.0451 -0.2229
75080SOL    HW142850   7.475   5.000  12.130 -2.3831  0.7675 -2.1557
75080SOL    HW242851   7.497   4.850  12.138  1.8296  1.3718  1.1362
75081SOL     OW42852   0.275  12.468   2.593 -0.4353 -0.2358 -0.0734
75081SOL    HW142853   0.206  12.498   2.652 -0.5581  2.6322 -1.5110
75081SOL    HW242854   0.261  12.517   2.512  2.6346 -0.3266 -0.7921
75082SOL     OW42855   4.983   6.605   2.984  0.3807 -0.5016  0.1288
75082SOL    HW142856   4.910   6.665   2.994 -1.9591 -2.0403 -4.5889
75082SOL    HW242857   5.052   6.658   2.942  0.8037  0.1725  1.5967
75083SOL     OW42858  11.759   3.507   8.169 -0.5578 -0.0119  0.3519
75083SOL    HW142859  11.734   3.596   8.144 -0.8175 -0.7598 -2.2638
75083SOL    HW242860  11.827   3.520   8.235  0.3281  2.1610 -0.8777
75084SOL     OW42861  12.830   0.415   3.820  0.2602  0.0919  0.8008
75084SOL    HW142862  12.758   0.394   3.879 -0.0369  1.4361  0.9555
75084SOL    HW242863  12.888   0.339   3.825 -0.9869 -0.9039  0.8889
75085SOL     OW42864  11.602  10.533   7.443  0.1539  0.0286 -0.1433
75085SOL    HW142865  11.623  10.515   7.535  0.4432  2.2494  0.2899
75085SOL    HW242866  11.507  10.522   7.438  0.1885 -0.5485  0.2964
75086SOL     OW42867   9.180   8.890   4.629 -0.2843  0.4179 -0.1860
75086SOL    HW142868   9.235   8.934   4.694 -0.0259 -0.3515  0.1217
75086SOL    HW242869   9.135   8.962   4.584  1.6403  1.1484 -1.0792
75087SOL     OW42870   6.534   4.288  13.856 -0.0106  0.0950 -0.3872
75087SOL    HW142871   6.470   4.303  13.786  0.4559  2.5385 -0.3783
75087SOL    HW242872   6.490   4.230  13.917 -0.5406 -1.9145 -2.5376
75088SOL     OW42873   9.691  12.322  12.798 -0.0336 -0.0080  0.4921
75088SOL    HW142874   9.655  12.328  12.710  1.1304  2.2771  0.0874
75088SOL    HW242875   9.631  12.373  12.852  0.3234  0.3138  0.5957
75089SOL     OW42876   6.183   0.500   1.030 -1.0765  0.0288 -0.0499
75089SOL    HW142877   6.164   0.551   1.109  0.4279  0.5780 -0.0095
75089SOL    HW242878   6.208   0.414   1.063 -2.3769 -0.3841 -0.0591
75090SOL     OW42879   1.163   2.633  10.916 -0.1963 -0.1416  0.2452
75090SOL    HW142880   1.195   2.550  10.881  2.2857  0.9177 -0.2616
75090SOL    HW242881   1.235   2.666  10.969 -0.6156  2.1990 -0.4952
75091SOL     OW42882   8.337   9.426  11.810 -1.2500 -0.1341  0.4836
75091SOL    HW142883   8.278   9.488  11.852 -0.9220  0.3630  0.2312
75091SOL    HW242884   8.327   9.443  11.716 -1.7565 -1.0251  0.3625
75092SOL     OW42885  11.723   6.154  10.953 -0.0951  0.5377  0.3938
75092SOL    HW142886  11.762   6.077  10.912 -1.5462  0.2530 -0.5316
75092SOL    HW242887  11.797   6.200  10.993  0.8035 -1.2892  0.9260
75093SOL     OW42888   5.080   9.485   1.120 -0.0508 -0.5714 -0.2021
75093SOL    HW142889   5.132   9.442   1.052  0.1640  0.0192 -0.4211
75093SOL    HW242890   5.132   9.476   1.200 -0.3143 -1.2866 -0.1007
75094SOL     OW42891   4.703   8.551   5.304 -0.4076  0.3454 -0.3227
75094SOL    HW142892   4.786   8.573   5.347 -0.2447  1.9827 -1.3726
75094SOL    HW242893   4.728   8.491   5.234  0.0164  1.2504 -0.9797
75095SOL     OW42894   3.475  11.546  10.202  0.2132  0.0305 -0.2710
75095SOL    HW142895   3.447  11.637  10.196 -1.0175 -0.3183 -0.1959
75095SOL    HW242896   3.566  11.546  10.172  0.6610  1.4801  1.0108
75096SOL     OW42897   5.137   3.277   2.257  0.3296 -0.0345  0.2223
75096SOL    HW142898   5.143   3.185   2.232  0.1168  0.0982 -0.3193
75096SOL    HW242899   5.212   3.291   2.315  0.8497 -0.3326 -0.3696
75097SOL     OW42900  11.197  13.890  12.134  0.2468  0.2811 -0.2539
75097SOL    HW142901  11.164  13.805  12.163 -1.7431  1.1729  0.2695
75097SOL    HW242902  11.202  13.882  12.039 -2.2296  0.2773 -0.4495
75098SOL     OW42903   7.271  12.184   1.719 -0.0494 -0.2540 -0.2181
75098SOL    HW142904   7.321  12.123   1.773 -1.0303 -1.7875 -0.9392
75098SOL    HW242905   7.222  12.127   1.659  0.6823  1.3308 -2.4438
75099SOL     OW42906  12.591   1.646   3.973  0.6660 -0.6329 -0.1540
75099SOL    HW142907  12.666   1.603   3.932  0.3748  0.9878 -2.6321
75099SOL    HW242908  12.619   1.737   3.984 -0.6841 -0.1478 -0.5181
75100SOL     OW42909   7.685  13.455   5.363  0.2345  0.0847  0.2242
75100SOL    HW142910   7.721  13.518   5.426  1.3437  0.1647 -0.4689
75100SOL    HW242911   7.620  13.406   5.413 -1.0791  2.1397  0.6615
75101SOL     OW42912   7.266  13.822   6.450 -0.1194  0.3726 -0.0617
75101SOL    HW142913   7.358  13.800   6.467  0.0386 -0.1164 -1.4298
75101SOL    HW242914   7.267  13.917   6.439 -0.0030  0.5295  1.1381
75102SOL     OW42915   5.741   1.134  13.499 -0.2696  0.1611 -0.2807
75102SOL    HW142916   5.725   1.209  13.441  1.1629  0.9511  0.2916
75102SOL    HW242917   5.746   1.059  13.440  1.0310  0.9237 -1.1939
75103SOL     OW42918   0.392   0.687   6.347  0.7411 -0.0509 -0.7855
75103SOL    HW142919   0.469   0.669   6.402  0.4186 -1.8110 -0.8548
75103SOL    HW242920   0.325   0.628   6.380 -1.0394  2.3100  0.0786
75104SOL     OW42921   9.755  10.273   3.416 -0.3117 -0.2045 -0.2945
75104SOL    HW142922   9.778  10.183   3.394  0.2776  0.0901 -0.9462
75104SOL    HW242923   9.682  10.294   3.359 -1.3876 -0.7060  0.8415
75105SOL     OW42924   7.989  13.727   5.264  0.4936 -0.1984 -0.5123
75105SOL    HW142925   7.944  13.765   5.189  0.3229 -0.3574 -0.4943
75105SOL    HW242926   7.924  13.730   5.334  0.5274 -0.3840 -0.4715
75106SOL     OW42927   9.435  10.980   4.903 -0.2892  0.2464 -0.7879
75106SOL    HW142928   9.488  10.921   4.850  1.2159  0.2417  0.6177
75106SOL    HW242929   9.448  10.949   4.993 -2.9019  0.1201 -0.3756
75107SOL     OW42930  12.133   4.552   6.615  0.0073  0.5207 -0.2629
75107SOL    HW142931  12.066   4.599   6.665  0.5127  0.0350  0.9143
75107SOL    HW242932  12.104   4.461   6.615  0.4341  0.3830 -0.1367
75108SOL     OW42933   9.298   3.470  14.003  0.0221 -0.2030  0.1718
75108SOL    HW142934   9.337   3.451  14.089  1.5608  1.4801 -0.0876
75108SOL    HW242935   9.353   3.423  13.941  0.5119  0.6640 -0.0638
75109SOL     OW42936   2.270   6.410   8.492  0.0616 -0.2266 -0.4916
75109SOL    HW142937   2.259   6.316   8.500 -1.4495 -0.0785 -0.6353
75109SOL    HW242938   2.335   6.420   8.422 -0.2495 -1.1578 -0.9359
75110SOL     OW42939  13.524   9.477   4.004 -0.6353 -0.3823  0.1149
75110SOL    HW142940  13.492   9.422   4.075 -2.6946  1.7060  0.9313
75110SOL    HW242941  13.459   9.547   3.997  1.8345  1.9971 -0.7678
75111SOL     OW42942   9.750   1.442   7.606 -0.2563 -0.1010  0.4173
75111SOL    HW142943   9.707   1.378   7.549 -0.6362 -0.0047  0.5994
75111SOL    HW242944   9.837   1.453   7.566  0.2347 -1.5579  0.9907
75112SOL     OW42945   3.960  12.337   9.021  0.2957 -0.2888 -0.1607
75112SOL    HW142946   3.952  12.431   9.034 -3.0370 -0.6901  2.0377
75112SOL    HW242947   4.052  12.323   8.998  1.1523  3.3495  0.4749
75113SOL     OW42948  13.817   4.346   7.962 -0.0189  0.0829 -0.6603
75113SOL    HW142949  13.770   4.426   7.939  0.3151  0.5144  0.1321
75113SOL    HW242950  13.872   4.371   8.037 -1.5809 -1.4144  1.1049
75114SOL     OW42951   7.278   0.446   7.034 -0.4057 -0.1729 -0.0660
75114SOL    HW142952   7.303   0.364   7.076  0.4737  0.7403  1.2658
75114SOL    HW242953   7.299   0.514   7.098 -2.0517  1.0401 -0.7182
75115SOL     OW42954  13.379  10.128  11.143  0.4506  0.4215  0.2158
75115SOL    HW142955  13.344  10.080  11.218 -3.2345  2.4005  0.0096
75115SOL    HW242956  13.437  10.194  11.182  2.1420 -1.3046  0.8103
75116SOL     OW42957   5.068   1.599   3.157  1.0634  0.0499 -0.1511
75116SOL    HW142958   5.131   1.666   3.184  0.7423  1.1863 -2.0433
75116SOL    HW242959   5.122   1.523   3.136  1.5385  0.0688  0.9162
75117SOL     OW42960   8.109   1.743  11.287 -0.4132  0.0197  0.1275
75117SOL    HW142961   8.160   1.666  11.313 -2.0593 -0.9065  0.8259
75117SOL    HW242962   8.083   1.725  11.196 -0.2933  0.0358  0.0906
75118SOL     OW42963   7.073   3.712  10.623 -0.4700 -0.2686  0.2248
75118SOL    HW142964   7.001   3.728  10.562 -0.1519  0.1575 -0.0444
75118SOL    HW242965   7.030   3.681  10.703 -1.0124  0.6321  0.2962
75119SOL     OW42966   4.881   3.695   6.921  0.1097  0.5465  0.7038
75119SOL    HW142967   4.804   3.693   6.865  0.7919 -1.1801 -0.2528
75119SOL    HW242968   4.946   3.642   6.875  1.1160  0.0945  2.5384
75120SOL     OW42969   6.069   2.484  10.497 -0.2374 -0.4067 -0.1583
75120SOL    HW142970   6.019   2.472  10.417 -0.1233 -1.4711 -0.0845
75120SOL    HW242971   6.022   2.552  10.545 -0.5307 -0.0486 -0.9445
75121SOL     OW42972   3.000   4.463   4.263  0.1645 -0.4067 -0.5720
75121SOL    HW142973   3.035   4.519   4.194  1.1767 -1.3965 -0.8909
75121SOL    HW242974   2.908   4.489   4.270  1.0838  3.0402  1.0294
75122SOL     OW42975  10.163  12.296  10.218  0.4597 -0.4423 -0.7619
75122SOL    HW142976  10.172  12.210  10.176 -1.7193 -1.9589  1.5761
75122SOL    HW242977  10.112  12.348  10.156 -0.4042 -1.6967 -1.1330
75123SOL     OW42978  12.504   2.271   4.003  0.6185 -0.5093  0.1218
75123SOL    HW142979  12.560   2.201   3.968  0.5332 -0.3043 -0.4338
75123SOL    HW242980  12.564   2.327   4.053  0.6311 -1.1573  0.8500
75124SOL     OW42981   5.991   1.974   0.933  0.5251 -0.9613  0.5664
75124SOL    HW142982   5.939   2.045   0.971  2.9553  0.2620  1.8619
75124SOL    HW242983   5.977   1.983   0.838 -1.9801 -1.0934  0.8487
75125SOL     OW42984   2.730   3.285   2.936 -0.0691 -0.4183 -0.1229
75125SOL    HW142985   2.663   3.256   2.998  0.7876 -0.6645  0.7188
75125SOL    HW242986   2.796   3.328   2.990  1.5504 -2.1537 -0.5874
75126SOL     OW42987   9.515  13.863   3.712  0.4498 -0.5582 -0.0935
75126SOL    HW142988   9.531  13.774   3.680 -0.1758 -0.8318  0.3298
75126SOL    HW242989   9.437  13.855   3.767  0.2968  0.2855 -0.1764
75127SOL     OW42990   0.577   3.707   4.378 -0.3219  0.4942 -0.1911
75127SOL    HW142991   0.537   3.782   4.335 -1.8079 -1.7008 -2.9277
75127SOL    HW242992   0.508   3.671   4.434 -0.4179 -0.2271 -0.7705
75128SOL     OW42993  13.976   4.726   9.866 -0.0332  0.1725 -0.0996
75128SOL    HW142994  14.054   4.748   9.918  0.6630 -1.5314 -0.3741
75128SOL    HW242995  14.010   4.718   9.776  0.5633 -5.1015  0.3115
75129SOL     OW42996   4.622   1.436  10.062 -0.4754  0.3403 -0.6909
75129SOL    HW142997   4.625   1.532  10.059  2.0341  0.3244 -1.3611
75129SOL    HW242998   4.626   1.416  10.156 -3.2632  0.8143 -0.3798
75130SOL     OW42999   8.281  10.664   3.584  0.1528 -0.2700 -0.0111
75130SOL    HW143000   8.342  10.664   3.510 -1.2170  3.0078 -1.3531
75130SOL    HW243001   8.204  10.618   3.551  0.6231 -1.4513  0.4938
75131SOL     OW43002  13.813  13.975  11.191 -0.5321  0.0285  0.0892
75131SOL    HW143003  13.793  14.045  11.253 -1.1272 -2.3554  2.7446
75131SOL    HW243004  13.898  13.941  11.219 -0.3203 -0.4622 -1.0590
75132SOL     OW43005   4.761   5.198   1.057  0.2932 -0.0890 -0.0502
75132SOL    HW143006   4.842   5.192   1.109  0.3457 -0.2915 -0.1534
75132SOL    HW243007   4.691   5.206   1.122  0.4824  1.2593  0.0296
75133SOL     OW43008   1.943   1.223  12.940 -0.3302  0.1141  0.4233
75133SOL    HW143009   1.937   1.195  13.031  2.1779 -2.8618 -0.1741
75133SOL    HW243010   1.947   1.142  12.890 -2.0844  1.6252 -2.4858
75134SOL     OW43011  12.091  13.338   2.333  0.2876  0.3598  0.8869
75134SOL    HW143012  12.184  13.362   2.331  0.9097 -1.8463 -0.6563
75134SOL    HW243013  12.088  13.263   2.393 -0.0801 -0.9581 -0.7282
75135SOL     OW43014   0.987  13.026   3.050  0.3335  0.6771  0.1185
75135SOL    HW143015   0.928  12.955   3.021 -0.3894  1.3898 -0.1905
75135SOL    HW243016   0.929  13.090   3.090  1.2097  0.1475  2.3597
75136SOL     OW43017   6.016   8.113  10.163  0.3291  0.5834 -0.0889
75136SOL    HW143018   6.064   8.030  10.166 -0.7063 -0.0108  1.1334
75136SOL    HW243019   6.082   8.180  10.182  0.8191 -0.1547  0.8964
75137SOL     OW43020   0.464  10.901  11.863  0.4504  0.1937  0.2914
75137SOL    HW143021   0.428  10.833  11.807  0.4402  0.8022 -0.4681
75137SOL    HW243022   0.546  10.864  11.897  1.2455  0.3508 -1.3438
75138SOL     OW43023   4.803  14.036  13.516  0.0156 -0.0961  0.5209
75138SOL    HW143024   4.891  14.014  13.488 -1.1612 -2.3016 -1.8733
75138SOL    HW243025   4.793  13.992  13.601  0.3602 -2.3339 -0.5273
75139SOL     OW43026   3.550   4.299  10.157  0.4638  0.1073 -0.3418
75139SOL    HW143027   3.538   4.208  10.182 -1.2126  0.4673  0.3528
75139SOL    HW243028   3.540   4.299  10.062  0.6286 -0.4546 -0.3614
75140SOL     OW43029  12.729   3.063   2.982  0.2552  0.1775 -0.0437
75140SOL    HW143030  12.698   2.975   3.000  1.0208 -0.0967 -0.0409
75140SOL    HW243031  12.658   3.103   2.932 -0.0780 -0.4536 -0.0894
75141SOL     OW43032   2.752   3.184   1.077  0.5341  0.0295  0.6250
75141SOL    HW143033   2.713   3.122   1.138  0.7231 -0.8882 -0.1711
75141SOL    HW243034   2.773   3.132   1.000 -1.3783  1.4632 -0.9896
75142SOL     OW43035   1.508   6.266   0.085  0.3167 -0.1845 -0.0909
75142SOL    HW143036   1.516   6.238  -0.006 -1.0706 -2.3519  0.3831
75142SOL    HW243037   1.561   6.203   0.135 -0.1739  0.0355  0.7314
75143SOL     OW43038  11.944  11.542   6.961 -0.2611 -0.0030 -0.5731
75143SOL    HW143039  11.963  11.448   6.961  3.2792  0.5753 -0.0363
75143SOL    HW243040  11.915  11.561   6.872  0.1550 -1.4296 -1.0439
75144SOL     OW43041  10.514   8.517  11.318  0.1639 -0.3328  0.0416
75144SOL    HW143042  10.575   8.545  11.386  0.2253  0.9146 -0.4827
75144SOL    HW243043  10.488   8.428  11.342 -0.7401  0.4900  2.3380
75145SOL     OW43044   5.233  13.946   8.950 -0.2550  0.4065 -0.6853
75145SOL    HW143045   5.223  14.035   8.985 -1.0666  0.0453  0.0281
75145SOL    HW243046   5.280  13.899   9.019 -0.9314 -0.0362 -0.5156
75146SOL     OW43047   3.495   2.733   7.158  0.0947  0.4198 -0.5295
75146SOL    HW143048   3.450   2.791   7.219  1.0826 -0.1510  0.7953
75146SOL    HW243049   3.453   2.648   7.169  1.6749 -0.2270  1.0379
75147SOL     OW43050   4.527   1.837  12.050 -0.1272  0.6947  0.0266
75147SOL    HW143051   4.523   1.836  12.146 -1.6093 -0.8962 -0.0142
75147SOL    HW243052   4.448   1.883  12.023 -0.9539 -0.9399 -0.4354
75148SOL     OW43053  12.811  11.373   3.896 -0.4730  0.5452  0.4676
75148SOL    HW143054  12.790  11.340   3.809  0.9567  0.9496 -0.0702
75148SOL    HW243055  12.852  11.298   3.941  0.5356  0.8691  0.1068
75149SOL     OW43056  11.173   2.580   1.787  0.1827  0.4337 -0.5961
75149SOL    HW143057  11.188   2.596   1.694  0.8448  0.2414 -0.5221
75149SOL    HW243058  11.229   2.642   1.832  0.5221 -0.0588 -0.3249
75150SOL     OW43059  12.768   8.715   0.787  0.2767  0.7131 -0.2954
75150SOL    HW143060  12.847   8.706   0.841 -0.7612  1.1581  1.3958
75150SOL    HW243061  12.750   8.627   0.755  0.2092  0.1471  1.2073
75151SOL     OW43062   8.972  11.010   8.803 -0.0947  0.6415 -0.0371
75151SOL    HW143063   8.923  11.009   8.721 -0.3984  0.5007  0.1444
75151SOL    HW243064   8.931  10.942   8.856  0.4746  0.3247  0.0156
75152SOL     OW43065   0.229   2.145   8.704 -0.6467 -0.5934  0.3396
75152SOL    HW143066   0.203   2.220   8.757  1.1873  0.2967  0.0545
75152SOL    HW243067   0.182   2.158   8.621 -1.3492 -0.4845  0.7416
75153SOL     OW43068   6.717  12.712   5.752 -0.6636  0.3774  0.3688
75153SOL    HW143069   6.708  12.638   5.692  1.2383 -0.2190  0.7489
75153SOL    HW243070   6.786  12.766   5.714 -0.9926  1.1881  0.8782
75154SOL     OW43071   5.390  13.511   3.806  0.4758 -0.2968 -0.6846
75154SOL    HW143072   5.367  13.451   3.877  1.9771 -1.1679 -0.9138
75154SOL    HW243073   5.309  13.520   3.756 -0.3817 -0.3266  0.6458
75155SOL     OW43074   8.210   1.343   5.027 -0.1779 -0.0039 -0.4848
75155SOL    HW143075   8.129   1.304   5.058 -0.0771  0.5546  0.5389
75155SOL    HW243076   8.272   1.270   5.022 -0.0301 -0.0519  1.2541
75156SOL     OW43077   2.003   8.507  13.665  0.2002  0.4807  0.0777
75156SOL    HW143078   2.036   8.427  13.707  0.0688  0.4865  0.1947
75156SOL    HW243079   1.923   8.480  13.621 -1.3432  1.0664  2.3296
75157SOL     OW43080   4.855  11.250  13.020  0.3568 -0.4332 -0.5601
75157SOL    HW143081   4.846  11.245  12.924  0.6672  0.0431 -0.6180
75157SOL    HW243082   4.781  11.305  13.047 -1.0252 -2.3179 -0.2852
75158SOL     OW43083   4.364   5.728   3.686  0.3643 -0.2147  0.1280
75158SOL    HW143084   4.292   5.669   3.663 -0.4059  0.5361  0.5731
75158SOL    HW243085   4.360   5.797   3.620  0.7535 -0.2197  0.0938
75159SOL     OW43086  11.256   6.699   6.596  0.1469 -0.4140  0.0360
75159SOL    HW143087  11.346   6.703   6.628 -0.2847  1.0522  1.1792
75159SOL    HW243088  11.231   6.607   6.607  2.1174 -1.3309 -2.2351
75160SOL     OW43089   8.119   8.072  13.478 -0.2550 -0.4605  0.2115
75160SOL    HW143090   8.142   8.165  13.475 -0.3274 -0.3909  1.3556
75160SOL    HW243091   8.092   8.057  13.568 -1.1927 -1.3787 -0.2040
75161SOL     OW43092   5.385   9.140  11.506 -0.5274 -0.2859  0.4875
75161SOL    HW143093   5.391   9.044  11.506  0.6540 -0.2575 -0.8794
75161SOL    HW243094   5.296   9.159  11.535 -1.0762 -1.8337 -0.0768
75162SOL     OW43095   8.611  13.827  10.228 -0.2736 -0.3569 -0.2884
75162SOL    HW143096   8.544  13.790  10.286 -0.8969 -1.0350 -1.3952
75162SOL    HW243097   8.562  13.877  10.164  0.2385 -1.0469 -1.2565
75163SOL     OW43098   1.112   2.827   2.468 -0.3964  0.1960 -0.4181
75163SOL    HW143099   1.139   2.735   2.463  0.5086  0.3714  0.9355
75163SOL    HW243100   1.100   2.853   2.377 -1.9883 -1.6274 -0.8053
75164SOL     OW43101  13.722   5.462   6.439  0.2396 -0.1544  0.0977
75164SOL    HW143102  13.643   5.409   6.451  0.1722  0.4172  3.0378
75164SOL    HW243103  13.783   5.428   6.504  1.1132  1.6517  0.2938
75165SOL     OW43104   2.754  13.013   2.720 -0.1435  0.2457 -0.4953
75165SOL    HW143105   2.765  13.002   2.814 -0.2878 -0.1460 -0.5220
75165SOL    HW243106   2.831  12.972   2.681 -0.2794  0.0550 -0.5640
75166SOL     OW43107   4.817   3.350  13.810 -0.5255  0.0958  0.3375
75166SOL    HW143108   4.846   3.438  13.831  0.1407 -0.4283  1.7762
75166SOL    HW243109   4.825   3.302  13.893 -0.3129 -1.4446 -0.5354
75167SOL     OW43110  10.819   8.214   5.066  0.1867  1.0163  0.3323
75167SOL    HW143111  10.864   8.193   4.985 -1.6308 -0.6842 -0.2976
75167SOL    HW243112  10.890   8.230   5.129  1.6378  0.2752 -1.0453
75168SOL     OW43113   3.964   0.760   8.324 -0.2701 -0.2349  0.2739
75168SOL    HW143114   4.029   0.708   8.276  1.2413 -0.3505  2.3151
75168SOL    HW243115   3.885   0.754   8.271  0.7399 -1.9981 -1.1499
75169SOL     OW43116   4.276   4.365   7.929 -0.2542 -0.1222  0.3049
75169SOL    HW143117   4.318   4.450   7.924 -1.7260  0.6641  0.7077
75169SOL    HW243118   4.287   4.327   7.842  0.9082  0.2127  0.2894
75170SOL     OW43119   4.125   1.609   4.050  0.0804  0.3526  0.0334
75170SOL    HW143120   4.160   1.692   4.018  1.2098  0.2548  0.9273
75170SOL    HW243121   4.138   1.548   3.977 -1.3605  1.0870 -0.8656
75171SOL     OW43122   5.870   3.483  10.304  0.8669 -0.0439  0.0680
75171SOL    HW143123   5.937   3.498  10.238 -0.5067 -2.0964 -2.0005
75171SOL    HW243124   5.911   3.424  10.367  1.9402  1.2549  0.6170
75172SOL     OW43125   7.180   4.994  12.023  0.0575  0.0763 -0.6033
75172SOL    HW143126   7.254   4.934  12.033  1.6811  1.1170 -4.4021
75172SOL    HW243127   7.210   5.059  11.960 -3.3661  1.9672 -0.5599
75173SOL     OW43128   4.679   4.454  14.088  0.5310 -0.1551 -0.1382
75173SOL    HW143129   4.642   4.542  14.085 -2.2249 -1.2362 -0.4519
75173SOL    HW243130   4.743   4.457  14.159  0.0351  1.9080  0.2805
75174SOL     OW43131   5.813   5.876  12.575 -0.6968  0.3681 -0.2416
75174SOL    HW143132   5.744   5.942  12.572 -0.8108  0.2287 -1.0915
75174SOL    HW243133   5.887   5.922  12.616 -1.1452  0.6496  0.2733
75175SOL     OW43134   2.794  13.044  12.151  0.1410 -0.2218  0.0408
75175SOL    HW143135   2.848  13.111  12.109  0.1126 -0.1041  0.1943
75175SOL    HW243136   2.723  13.092  12.193  0.2780 -0.3227  0.3906
75176SOL     OW43137  12.583   0.131   1.747  0.1968  0.2636  0.0403
75176SOL    HW143138  12.518   0.199   1.764 -1.8294 -1.2236 -1.3166
75176SOL    HW243139  12.575   0.072   1.821 -1.3335 -0.8313 -0.9333
75177SOL     OW43140  12.097   5.062  13.330  0.6634 -0.0767  0.5077
75177SOL    HW143141  12.167   5.081  13.267 -0.9281  0.4377 -1.1821
75177SOL    HW243142  12.136   5.082  13.415  2.3154  0.9989 -0.4403
75178SOL     OW43143  10.516   3.319  11.321  0.5455 -0.5755 -0.0955
75178SOL    HW143144  10.589   3.263  11.350  0.5632 -0.7600 -0.4884
75178SOL    HW243145  10.558   3.386  11.266  0.2483 -1.6248 -1.6646
75179SOL     OW43146   0.809   5.408  10.043  0.2858  0.1117  0.1447
75179SOL    HW143147   0.770   5.381  10.126  0.5689  1.0838  0.6089
75179SOL    HW243148   0.746   5.379   9.976 -0.5559  0.4162  0.7820
75180SOL     OW43149   3.852   8.961   4.496  0.3845  0.1233  0.0683
75180SOL    HW143150   3.806   9.010   4.565 -0.1164 -0.9117  0.4889
75180SOL    HW243151   3.901   9.028   4.449 -1.0520  1.1871  0.0029
75181SOL     OW43152   1.231   5.504  12.404  0.0059 -0.4059  0.1564
75181SOL    HW143153   1.170   5.457  12.461  0.5546 -1.7927 -0.3597
75181SOL    HW243154   1.313   5.506  12.454  0.1113 -0.3921 -0.0185
75182SOL     OW43155   8.726   2.955   4.091  0.6911 -0.2056  0.6747
75182SOL    HW143156   8.658   2.943   4.024  0.3522 -0.9035  1.1334
75182SOL    HW243157   8.734   3.050   4.099 -0.3317 -0.1041  0.7014
75183SOL     OW43158  11.599  10.950   0.819  0.3326 -0.6252  0.2069
75183SOL    HW143159  11.533  10.959   0.888  1.8337 -1.2197  1.7965
75183SOL    HW243160  11.658  11.023   0.834 -0.4367  0.4791 -1.8199
75184SOL     OW43161  10.025   7.657   3.232 -0.3547  0.4918 -0.2138
75184SOL    HW143162  10.045   7.639   3.324  1.0153  0.4059 -0.5038
75184SOL    HW243163   9.933   7.684   3.232 -0.7847 -0.8387  0.9973
75185SOL     OW43164  13.059  13.783   4.853 -0.2173 -0.8584  0.1260
75185SOL    HW143165  13.043  13.813   4.942 -2.3121 -1.5726  0.0516
75185SOL    HW243166  12.984  13.727   4.832  0.6048 -1.3500 -1.8152
75186SOL     OW43167   1.279  13.001   9.250 -0.4799 -0.1640 -0.2889
75186SOL    HW143168   1.198  12.976   9.206 -0.2430 -0.2448 -0.6867
75186SOL    HW243169   1.272  12.962   9.337 -0.5067 -0.8814 -0.6021
75187SOL     OW43170   2.757   9.456  10.920  0.1545 -0.2210  0.6017
75187SOL    HW143171   2.683   9.506  10.956 -1.2893 -1.1325 -0.9308
75187SOL    HW243172   2.781   9.503  10.841  0.1923 -0.7612  0.2867
75188SOL     OW43173   0.171   1.668   8.193  0.3200  0.1168 -0.5271
75188SOL    HW143174   0.213   1.592   8.152  0.3373 -0.6750  0.8577
75188SOL    HW243175   0.243   1.718   8.230  0.1945 -0.2303  0.2101
75189SOL     OW43176   2.175   8.786   1.046  0.1302  0.3670  0.0051
75189SOL    HW143177   2.104   8.825   0.995  0.2114 -0.1670 -0.5314
75189SOL    HW243178   2.172   8.831   1.130 -0.2050  1.0441 -0.3640
75190SOL     OW43179   6.387  12.672   9.722 -0.4866 -0.1294  0.6658
75190SOL    HW143180   6.422  12.750   9.679 -2.0395 -0.0761 -0.6121
75190SOL    HW243181   6.337  12.706   9.796  0.5175 -0.0731  1.3301
75191SOL     OW43182   2.900  10.867   9.809 -0.1122 -0.4988 -0.5519
75191SOL    HW143183   2.834  10.908   9.753  0.6531  1.6311 -0.0067
75191SOL    HW243184   2.867  10.879   9.898  0.4848 -0.4118 -0.3369
75192SOL     OW43185  13.954   6.097  11.673  0.7532 -0.2903 -0.0795
75192SOL    HW143186  13.920   6.030  11.613  2.4453 -0.4148 -0.9749
75192SOL    HW243187  14.048   6.081  11.675  0.6965 -0.7270  3.2257
75193SOL     OW43188  10.446   6.713  11.406  0.0281  0.4839  0.0005
75193SOL    HW143189  10.459   6.626  11.368  1.6911  0.5883  0.2481
75193SOL    HW243190  10.352   6.730  11.397 -0.7534 -2.1841  1.7996
75194SOL     OW43191   0.933   8.225  13.072  0.9933  0.3255 -0.1555
75194SOL    HW143192   0.848   8.206  13.033  1.4085 -0.4129 -0.7044
75194SOL    HW243193   0.929   8.186  13.159  2.1653 -3.3220 -1.5631
75195SOL     OW43194  13.197   0.871   9.858  0.0784  0.3082 -0.4514
75195SOL    HW143195  13.246   0.803   9.905  1.2224  0.2525 -1.6404
75195SOL    HW243196  13.106   0.854   9.879  0.4643 -0.5343  0.6524
75196SOL     OW43197   8.575  10.580  13.241  0.4013  0.0388 -0.6302
75196SOL    HW143198   8.509  10.596  13.174  0.5022  1.4513 -0.4138
75196SOL    HW243199   8.574  10.659  13.296  0.4283 -1.0132  0.9540
75197SOL     OW43200   7.512  12.033  11.904 -0.1337 -0.1690 -0.0631
75197SOL    HW143201   7.488  12.086  11.828 -0.9319  0.1831  0.4171
75197SOL    HW243202   7.439  11.972  11.914  0.6200 -1.1373 -0.3996
75198SOL     OW43203  13.980   2.092  12.458 -0.2809  0.0172 -0.4489
75198SOL    HW143204  13.900   2.128  12.421 -0.4102 -0.2659 -0.4462
75198SOL    HW243205  13.950   2.027  12.522 -0.0381 -0.8368 -1.1900
75199SOL     OW43206   3.253   5.630   1.180 -0.1284 -0.4233  0.1556
75199SOL    HW143207   3.264   5.722   1.157 -0.1225 -0.6723 -0.8882
75199SOL    HW243208   3.313   5.583   1.123 -0.8567 -1.1499 -0.0439
75200SOL     OW43209   7.049  12.146   0.914  0.4652 -0.4162 -0.0281
75200SOL    HW143210   7.081  12.224   0.869  0.0787 -1.1954 -1.7274
75200SOL    HW243211   6.988  12.105   0.852  0.6948 -2.0997  0.7951
75201SOL     OW43212   2.584   6.553   1.140 -0.5737 -0.2862 -0.7574
75201SOL    HW143213   2.674   6.568   1.169  0.0677 -0.3197 -2.6154
75201SOL    HW243214   2.584   6.464   1.106 -1.7951 -0.9527  0.8018
75202SOL     OW43215   8.236  12.495  13.489  0.2531  0.0561  0.3195
75202SOL    HW143216   8.282  12.552  13.428  1.9222 -0.1924  1.2609
75202SOL    HW243217   8.291  12.495  13.568 -0.5301 -1.5748  0.9228
75203SOL     OW43218   9.282   7.487  11.784 -0.5362  0.0313 -0.1406
75203SOL    HW143219   9.339   7.410  11.782 -0.7738 -0.2822  2.1071
75203SOL    HW243220   9.198   7.454  11.815 -1.3739  0.8190 -1.5178
75204SOL     OW43221   9.523   9.321  11.468 -0.3502 -0.2902 -0.1403
75204SOL    HW143222   9.601   9.294  11.420 -1.4625 -1.9175 -1.1535
75204SOL    HW243223   9.474   9.375  11.405 -0.1588  0.5620  0.4243
75205SOL     OW43224   0.183  11.227   3.475  0.2189 -0.1595 -0.1005
75205SOL    HW143225   0.186  11.298   3.411 -1.8363 -0.2043 -0.3133
75205SOL    HW243226   0.190  11.271   3.560 -1.3491  0.3894 -0.2161
75206SOL     OW43227   2.557   4.683  12.439  0.6799  0.2432  0.1248
75206SOL    HW143228   2.611   4.658  12.364  0.0805 -1.0899  0.1066
75206SOL    HW243229   2.620   4.718  12.503  1.2346  1.0623 -0.8464
75207SOL     OW43230   7.985   1.120  13.619  0.0034  0.2502  0.1061
75207SOL    HW143231   7.990   1.027  13.596  0.4627  0.7642 -2.1555
75207SOL    HW243232   7.892   1.140  13.621 -0.0654  0.1222 -1.2331
75208SOL     OW43233  10.290   4.277   6.364  0.1617 -0.1869  0.2020
75208SOL    HW143234  10.384   4.295   6.366  0.0780  0.2128  1.3320
75208SOL    HW243235  10.265   4.270   6.456 -0.5025 -2.5387 -0.0956
75209SOL     OW43236   5.624   7.405   3.521 -0.4064  0.1368 -0.0533
75209SOL    HW143237   5.593   7.437   3.436 -0.6663  2.4565  0.8424
75209SOL    HW243238   5.714   7.437   3.528 -0.8044  1.0991  1.0394
75210SOL     OW43239   7.445   2.561   9.026  0.4973 -0.0444  0.0663
75210SOL    HW143240   7.494   2.482   9.049  0.0844 -0.0623  0.9095
75210SOL    HW243241   7.359   2.548   9.066 -0.3076 -0.1372 -1.6029
75211SOL     OW43242   3.815   8.703   5.216  0.1038  0.0988  0.2550
75211SOL    HW143243   3.833   8.710   5.310 -0.0158 -1.5457  0.4331
75211SOL    HW243244   3.901   8.686   5.176 -0.0661 -0.9264  0.2936
75212SOL     OW43245  10.203  11.435  13.299  0.3762  0.3791 -0.1232
75212SOL    HW143246  10.152  11.498  13.350 -0.1110 -1.3334  1.6428
75212SOL    HW243247  10.294  11.450  13.324  0.2411  0.2419  0.4552
75213SOL     OW43248   3.529   9.855   9.823  0.2676 -0.2658  0.1139
75213SOL    HW143249   3.514   9.783   9.762  0.6439 -0.0639 -0.2203
75213SOL    HW243250   3.446   9.903   9.824 -0.4933 -1.5540  1.4846
75214SOL     OW43251   0.170   6.075  10.403 -0.2004  0.2023  0.3187
75214SOL    HW143252   0.139   5.992  10.441  1.4233  0.7627  3.2104
75214SOL    HW243253   0.159   6.139  10.474 -0.6949  2.3394 -1.5851
75215SOL     OW43254   0.628   8.918  10.708  0.2896  0.0522 -0.0087
75215SOL    HW143255   0.714   8.944  10.742  0.2276  1.4693 -0.8581
75215SOL    HW243256   0.644   8.835  10.662  0.9476 -0.3271  0.8882
75216SOL     OW43257  12.244   2.932   4.184 -0.2995  0.2034  0.8375
75216SOL    HW143258  12.264   2.946   4.092 -1.1087 -0.5197  0.5361
75216SOL    HW243259  12.169   2.872   4.184 -0.4245  0.3262  1.9596
75217SOL     OW43260   4.470   0.409   7.598 -0.0802  0.1470 -0.0801
75217SOL    HW143261   4.409   0.473   7.561 -0.1170  0.2851  0.2173
75217SOL    HW243262   4.413   0.349   7.647  0.0309  0.3250  0.2680
75218SOL     OW43263   1.021  10.801   8.597 -0.4524 -0.5814 -0.4523
75218SOL    HW143264   0.965  10.851   8.538  1.1661  0.4876 -1.1477
75218SOL    HW243265   0.978  10.807   8.682 -2.0422 -0.8824 -1.1842
75219SOL     OW43266  11.573   2.526  10.148 -0.6395 -0.0123 -0.3069
75219SOL    HW143267  11.637   2.523  10.220  0.2125 -1.6847 -1.0800
75219SOL    HW243268  11.627   2.533  10.069 -1.5771  2.5673 -0.8176
75220SOL     OW43269   0.037   3.178   6.300 -0.1493  0.2897 -0.3553
75220SOL    HW143270   0.057   3.114   6.369 -3.2879  0.3657  0.8015
75220SOL    HW243271  -0.014   3.246   6.344 -0.5600  1.3881 -2.3797
75221SOL     OW43272  13.091   5.508  10.812  0.1073 -0.0836  0.3230
75221SOL    HW143273  13.131   5.574  10.755 -1.6710  1.0116  0.2489
75221SOL    HW243274  13.104   5.543  10.900 -0.1186 -0.0398  0.3395
75222SOL     OW43275  10.618   0.479   4.045  0.4912  0.3157 -0.1341
75222SOL    HW143276  10.583   0.494   3.957  1.0139  0.0606 -0.3879
75222SOL    HW243277  10.541   0.482   4.102 -0.1360 -1.4374 -0.8097
75223SOL     OW43278   9.336   7.998   5.691 -0.0338 -0.1950 -0.2127
75223SOL    HW143279   9.338   8.092   5.675 -0.4535 -0.2686 -0.7390
75223SOL    HW243280   9.411   7.981   5.748 -0.4641  0.5920  0.6147
75224SOL     OW43281   4.383   7.792   2.031  0.2082 -0.9257  0.3686
75224SOL    HW143282   4.390   7.858   2.100  0.9841 -0.0708 -0.4949
75224SOL    HW243283   4.461   7.738   2.043  0.7404 -0.3264 -0.2603
75225SOL     OW43284   0.434   0.677  12.586  0.0591  0.7750 -0.3494
75225SOL    HW143285   0.419   0.753  12.531 -1.3964  0.0870 -0.9721
75225SOL    HW243286   0.364   0.680  12.651  0.5135  0.4529  0.1625
75226SOL     OW43287   7.590   3.458   4.528 -0.4501  0.2069 -0.1213
75226SOL    HW143288   7.509   3.434   4.574 -1.7167  1.0323 -1.8203
75226SOL    HW243289   7.588   3.554   4.526  0.3106  0.2169 -0.6238
75227SOL     OW43290   5.566   6.419  12.583 -0.3693 -0.5072  0.2327
75227SOL    HW143291   5.643   6.476  12.589  1.6697 -3.1281  1.7805
75227SOL    HW243292   5.518   6.436  12.664 -2.4271  2.2432 -1.4219
75228SOL     OW43293   2.910   2.002   3.425 -0.0231 -0.3249 -0.1530
75228SOL    HW143294   2.859   2.010   3.344 -1.6794 -0.8663  0.7867
75228SOL    HW243295   2.942   2.091   3.441  0.7368 -0.2926 -1.6176
75229SOL     OW43296  13.138  12.889  13.417 -0.8917  0.2519 -0.6104
75229SOL    HW143297  13.188  12.967  13.392  2.7747 -1.3823  0.7589
75229SOL    HW243298  13.115  12.905  13.509 -0.1264 -0.2297 -0.3250
75230SOL     OW43299   4.467  12.930   8.107  0.1193 -0.4518  0.1987
75230SOL    HW143300   4.486  13.007   8.053 -0.2667  0.1822  0.9508
75230SOL    HW243301   4.449  12.861   8.044  1.7225 -0.2677 -0.5049
75231SOL     OW43302   3.910   5.046   6.460  0.3229  0.2027 -0.1831
75231SOL    HW143303   3.878   4.974   6.516  1.2837 -0.1965 -0.1173
75231SOL    HW243304   3.847   5.050   6.388  0.1994 -0.6558 -0.1420
75232SOL     OW43305   5.181   2.841   4.611 -0.2773  0.3886  0.1886
75232SOL    HW143306   5.239   2.888   4.672  1.8620 -1.4554 -0.3014
75232SOL    HW243307   5.148   2.910   4.553  0.9471  1.6085  0.8688
75233SOL     OW43308   4.229   6.581  12.303  0.2963 -0.1960  0.2584
75233SOL    HW143309   4.174   6.573  12.381  0.5534 -0.0608  0.4535
75233SOL    HW243310   4.256   6.673  12.301  0.6368 -0.2931  0.2490
75234SOL     OW43311  10.178  13.468  13.825 -0.0672  0.0179 -0.0686
75234SOL    HW143312  10.138  13.530  13.764 -0.4335 -0.5849 -0.4572
75234SOL    HW243313  10.195  13.519  13.904 -2.6948  0.0597  0.5529
75235SOL     OW43314  13.301   9.522   4.449 -0.2743 -0.1595  0.4227
75235SOL    HW143315  13.206   9.524   4.440 -0.1864 -0.7612 -0.7164
75235SOL    HW243316  13.327   9.435   4.418  0.6965  0.1837  0.2373
75236SOL     OW43317  11.188   2.921   5.400 -0.0620  0.0997 -0.3328
75236SOL    HW143318  11.094   2.935   5.394  0.2772  2.2945 -2.1645
75236SOL    HW243319  11.202   2.836   5.359 -1.2068  0.0837 -0.7254
75237SOL     OW43320  13.997   6.634  10.358 -0.5241  0.2609  0.3911
75237SOL    HW143321  14.015   6.608  10.268  1.2892  0.8055  0.5556
75237SOL    HW243322  13.905   6.659  10.359 -0.6048  0.0809 -1.2581
75238SOL     OW43323   5.630   4.963   9.254  0.5967 -0.3483  0.2700
75238SOL    HW143324   5.706   5.016   9.276  2.1714 -0.6581 -3.7431
75238SOL    HW243325   5.556   5.023   9.265  2.0808  2.1131 -1.9160
75239SOL     OW43326   2.312   5.847   8.344 -0.0592  0.0748 -0.3031
75239SOL    HW143327   2.243   5.810   8.288 -0.8141 -0.4109  0.9066
75239SOL    HW243328   2.377   5.880   8.282 -1.1779  0.1831 -1.4861
75240SOL     OW43329   3.707   8.271   8.278 -0.2306  0.0526  0.9057
75240SOL    HW143330   3.664   8.208   8.220  1.1807  0.6883 -0.9369
75240SOL    HW243331   3.687   8.356   8.240  1.0674  0.4683  1.0948
75241SOL     OW43332   5.922  10.747   2.250 -0.2725 -0.1080 -0.4780
75241SOL    HW143333   5.990  10.789   2.303 -0.8210 -1.9478  1.8559
75241SOL    HW243334   5.970  10.690   2.191  0.2994  1.0481 -1.1832
75242SOL     OW43335  10.926   6.273   4.925  0.0305  0.5182  0.3293
75242SOL    HW143336  10.970   6.191   4.948  0.8527  0.4117 -1.4273
75242SOL    HW243337  10.841   6.244   4.889 -0.1174  0.5050  0.6896
75243SOL     OW43338   2.839  12.139  12.220  0.2592  0.3922  0.1311
75243SOL    HW143339   2.914  12.187  12.185 -0.4372  0.9048 -0.7042
75243SOL    HW243340   2.841  12.156  12.314  0.1074  1.9392 -0.1362
75244SOL     OW43341  11.836   6.757  12.761  0.4914  0.0030  0.1733
75244SOL    HW143342  11.848   6.676  12.711  0.3726 -0.3852  0.7634
75244SOL    HW243343  11.856   6.733  12.851 -1.4693  0.1452  0.6846
75245SOL     OW43344   0.278   5.187  12.403 -0.4703  0.2268  0.2937
75245SOL    HW143345   0.362   5.211  12.363  0.4199 -0.5871  1.5822
75245SOL    HW243346   0.284   5.093  12.418 -0.6845  0.4769  2.3642
75246SOL     OW43347   0.085   9.263   4.871  0.5200 -0.5066  0.0812
75246SOL    HW143348  -0.011   9.261   4.868  0.4725 -2.3308  1.2434
75246SOL    HW243349   0.112   9.210   4.795  0.5289 -1.8668  1.0064
75247SOL     OW43350   0.437  12.647  12.725  0.1852  0.0709 -0.5183
75247SOL    HW143351   0.465  12.683  12.809  0.1607 -0.1513 -0.4146
75247SOL    HW243352   0.349  12.614  12.741 -1.4323  3.4727 -1.5812
75248SOL     OW43353   8.945  11.177   4.410 -0.3045 -0.2043  0.2021
75248SOL    HW143354   9.024  11.229   4.404  0.9402 -2.1327 -2.1532
75248SOL    HW243355   8.953  11.129   4.493  2.6486 -2.6202 -1.2748
75249SOL     OW43356  13.660   2.903  12.042  0.0859  0.3534  0.3179
75249SOL    HW143357  13.643   2.820  11.998  2.7024  1.1984 -2.5795
75249SOL    HW243358  13.666   2.880  12.135 -2.2705 -2.0984 -0.0051
75250SOL     OW43359   3.705  12.613   7.991 -0.4073  0.3123  0.1771
75250SOL    HW143360   3.624  12.569   7.966  0.0698 -0.0447 -0.7974
75250SOL    HW243361   3.740  12.647   7.909  0.2478  0.7800  0.6419
75251SOL     OW43362   2.072  13.226   7.382 -0.4499  0.5250  0.5860
75251SOL    HW143363   2.091  13.251   7.472 -4.0738  1.0245  1.3512
75251SOL    HW243364   1.992  13.175   7.387  0.1570 -0.9540 -2.2412
75252SOL     OW43365  10.186   9.053   9.914 -0.0321  0.2128 -0.3341
75252SOL    HW143366  10.102   9.048   9.961  0.9130 -1.2683  1.3434
75252SOL    HW243367  10.242   9.105   9.972  1.9107 -3.6768  1.6550
75253SOL     OW43368  10.702   5.541  10.485  0.4073 -0.2380 -0.5076
75253SOL    HW143369  10.725   5.632  10.504 -1.5327  0.4527 -1.2560
75253SOL    HW243370  10.678   5.504  10.570  2.6695 -0.5695  0.0593
75254SOL     OW43371   8.944  10.374   7.332  0.5075 -0.0376  0.3121
75254SOL    HW143372   8.880  10.354   7.400  1.5502  0.6111  1.5197
75254SOL    HW243373   8.986  10.290   7.313  0.5208 -0.1386  0.7862
75255SOL     OW43374   7.540   6.935   0.960  0.7965 -0.5822  0.2960
75255SOL    HW143375   7.566   7.022   0.990  0.2418  0.3312 -1.7016
75255SOL    HW243376   7.623   6.887   0.953  1.2951  0.3203 -0.1650
75256SOL     OW43377  10.259   5.134   0.456 -0.3280  0.0423 -0.3619
75256SOL    HW143378  10.320   5.207   0.449  1.0823 -1.1433 -0.8058
75256SOL    HW243379  10.201   5.144   0.380  0.5089  0.1192 -1.0045
75257SOL     OW43380  10.143  13.892   9.189 -0.3757 -0.9075 -0.1602
75257SOL    HW143381  10.131  13.884   9.284 -0.9028  1.0821 -0.0096
75257SOL    HW243382  10.054  13.884   9.153 -0.7128  1.7026 -0.1249
75258SOL     OW43383   3.265   0.654  13.354  0.0072  0.2539  0.4347
75258SOL    HW143384   3.198   0.707  13.312 -1.5262  0.3473  2.8418
75258SOL    HW243385   3.296   0.708  13.427  0.2297 -1.1359  1.4005
75259SOL     OW43386   5.820   7.755   3.835 -0.7546  0.1365 -0.3133
75259SOL    HW143387   5.742   7.710   3.865  0.7760 -2.7812 -0.3883
75259SOL    HW243388   5.884   7.686   3.818  1.5776  2.3007 -1.1388
75260SOL     OW43389   2.615   8.006   2.210 -0.5967  0.3366  0.1598
75260SOL    HW143390   2.672   7.939   2.171 -0.4307  0.0009  0.9537
75260SOL    HW243391   2.648   8.089   2.176  0.5606  0.1693  0.8149
75261SOL     OW43392   6.386  12.592   1.867  0.4075  0.2616  0.1767
75261SOL    HW143393   6.367  12.534   1.940 -1.5788  0.6096  0.0078
75261SOL    HW243394   6.447  12.657   1.902  0.9412 -0.6517  0.9742
75262SOL     OW43395   7.436   2.963   0.637  0.2824 -0.0713  0.0179
75262SOL    HW143396   7.441   3.049   0.593 -2.7678 -0.5411 -1.5589
75262SOL    HW243397   7.487   2.905   0.581 -0.6286  0.0697 -1.0190
75263SOL     OW43398   7.012  12.402   3.482 -0.8500  0.3015  0.3887
75263SOL    HW143399   7.060  12.391   3.563 -1.2494 -0.9677  0.4721
75263SOL    HW243400   6.992  12.313   3.453 -3.6264  0.7233  0.6531
75264SOL     OW43401   3.656  11.211  12.366  0.2737  0.4720  0.3233
75264SOL    HW143402   3.588  11.272  12.394  1.2609  0.7847  2.2186
75264SOL    HW243403   3.622  11.124  12.389 -0.8470  0.2789 -1.7761
75265SOL     OW43404   9.261   6.987   3.977  0.3046 -0.6406 -0.6551
75265SOL    HW143405   9.311   6.915   4.016 -0.7671 -0.2843  1.4826
75265SOL    HW243406   9.326   7.054   3.959  0.9131 -1.0538 -0.0264
75266SOL     OW43407   5.873   3.267  13.248 -0.2120  0.3912  0.2649
75266SOL    HW143408   5.951   3.280  13.301  0.7821 -1.3441 -0.6992
75266SOL    HW243409   5.810   3.225  13.308 -0.5126  1.9718  1.0941
75267SOL     OW43410   0.624   4.046   0.987  0.0519  0.0094 -0.1233
75267SOL    HW143411   0.717   4.064   0.979 -0.1944  0.7220 -1.8285
75267SOL    HW243412   0.617   3.951   0.987  0.6687 -0.0892 -2.3254
75268SOL     OW43413   2.454   1.726   7.334 -0.2649 -0.3829 -0.0367
75268SOL    HW143414   2.477   1.670   7.408  0.8447  0.7188  0.4993
75268SOL    HW243415   2.524   1.791   7.331 -1.6333  1.1440 -0.4461
75269SOL     OW43416   0.698  13.035   0.146 -0.5279 -0.1086 -0.6228
75269SOL    HW143417   0.647  12.956   0.129 -1.5859  0.4724 -0.2579
75269SOL    HW243418   0.651  13.079   0.217 -0.0297  0.9106 -0.9043
75270SOL     OW43419   8.125   7.034   4.472  0.0792  0.4549  0.8598
75270SOL    HW143420   8.064   6.962   4.490 -0.3083  0.2776 -0.9910
75270SOL    HW243421   8.070   7.102   4.434  1.0311  0.2358 -0.9858
75271SOL     OW43422   0.956   0.724   8.031  0.3851 -0.3059  0.5692
75271SOL    HW143423   0.927   0.697   7.944  0.6525 -1.8874  0.9408
75271SOL    HW243424   0.875   0.749   8.077 -0.3269 -3.1355  1.0753
75272SOL     OW43425  10.638   6.191   7.012 -0.0309  0.1446  0.0493
75272SOL    HW143426  10.639   6.116   7.072 -1.7596  0.3400  0.3484
75272SOL    HW243427  10.730   6.202   6.988  0.5544 -0.6597  1.7455
75273SOL     OW43428  13.885   8.667   9.132 -0.3152 -0.0325 -0.1783
75273SOL    HW143429  13.874   8.676   9.227 -0.0581  3.1133 -0.3565
75273SOL    HW243430  13.840   8.585   9.111 -3.5773  0.9123  2.2111
75274SOL     OW43431  12.563  11.949   8.670 -0.5194  0.6295  0.5871
75274SOL    HW143432  12.525  12.010   8.607  0.3607  0.3784 -0.1990
75274SOL    HW243433  12.643  11.992   8.701 -0.8289  0.6555  1.3829
75275SOL     OW43434   4.416   4.625  13.504  0.2539 -0.2761  0.1140
75275SOL    HW143435   4.485   4.651  13.565 -0.3203  0.0393  0.6444
75275SOL    HW243436   4.335   4.629  13.556 -0.0133 -1.9421 -0.1214
75276SOL     OW43437  11.007   2.678  13.378 -0.0318 -0.0413 -0.3770
75276SOL    HW143438  10.946   2.691  13.305 -0.7377  0.5570  0.3109
75276SOL    HW243439  10.958   2.705  13.456  1.0488  0.2715  0.2108
75277SOL     OW43440   8.512   6.447   4.729 -0.8093  0.1186 -0.7473
75277SOL    HW143441   8.420   6.446   4.754 -0.5570 -0.3114  0.1910
75277SOL    HW243442   8.537   6.354   4.727 -0.1195  0.2764  0.0773
75278SOL     OW43443   0.566  12.311  11.397 -0.9291  0.2195  0.2227
75278SOL    HW143444   0.632  12.273  11.339  0.4267  1.6879  0.7456
75278SOL    HW243445   0.616  12.365  11.458 -2.7679  3.5710 -1.0048
75279SOL     OW43446  10.609  13.786  10.698  0.1886 -0.4318  0.7317
75279SOL    HW143447  10.652  13.776  10.612  1.6524 -3.0982  1.6688
75279SOL    HW243448  10.653  13.861  10.737  0.2430  0.1670 -0.4264
75280SOL     OW43449   0.162   7.603  10.396  0.1845 -0.0626  0.6462
75280SOL    HW143450   0.239   7.556  10.365  0.4861  0.7388  0.1622
75280SOL    HW243451   0.088   7.552  10.363  0.4989 -0.6707  0.8633
75281SOL     OW43452   1.473   5.763   2.474 -0.2520  0.2270 -0.2439
75281SOL    HW143453   1.557   5.745   2.432  0.8837  0.2831  1.8753
75281SOL    HW243454   1.482   5.851   2.509 -1.0132  0.0390  0.4474
75282SOL     OW43455  10.174   4.240   1.672  0.3872 -0.8640 -0.0004
75282SOL    HW143456  10.244   4.193   1.628  2.1522 -0.0892  1.8343
75282SOL    HW243457  10.191   4.332   1.652 -1.1647 -0.7373 -0.9388
75283SOL     OW43458   8.529   0.957   0.505 -0.2913  0.1323 -0.4401
75283SOL    HW143459   8.442   0.918   0.511 -1.2004  2.2577  3.1242
75283SOL    HW243460   8.573   0.928   0.585  1.0709  1.6711 -0.5854
75284SOL     OW43461   4.058   6.197   2.302  0.4905 -0.3731  0.5638
75284SOL    HW143462   4.132   6.256   2.316  1.6123 -1.3873 -0.7495
75284SOL    HW243463   4.066   6.132   2.372 -0.1905  0.4479  1.4373
75285SOL     OW43464   1.964   3.747  13.149  0.1013 -0.2839  0.1345
75285SOL    HW143465   2.023   3.731  13.076  1.3586  0.7110  0.8878
75285SOL    HW243466   1.991   3.831  13.184 -1.6013  0.0689  0.6996
75286SOL     OW43467   4.687   6.654  13.330 -0.0309  0.2286 -0.4564
75286SOL    HW143468   4.759   6.685  13.275 -1.0514  1.0648 -1.3650
75286SOL    HW243469   4.684   6.717  13.403  0.1164  0.2234 -0.4463
75287SOL     OW43470  10.377  10.688   8.879  0.0939  0.2987 -0.3733
75287SOL    HW143471  10.426  10.650   8.951  1.5292 -0.9294 -1.9274
75287SOL    HW243472  10.425  10.767   8.855  1.3226 -0.7993 -1.7655
75288SOL     OW43473  10.932   2.669   4.303  0.2695  0.2057 -0.0933
75288SOL    HW143474  10.954   2.743   4.247 -0.4460 -1.2084 -2.3614
75288SOL    HW243475  11.012   2.654   4.354  0.8549  1.7135 -0.5078
75289SOL     OW43476  12.152   2.273   4.075  0.0115 -0.1930  0.9464
75289SOL    HW143477  12.193   2.344   4.025 -1.1683 -0.2041 -0.1154
75289SOL    HW243478  12.084   2.240   4.016 -1.2368 -0.4295  2.4600
75290SOL     OW43479   7.006   8.105   2.265  0.1056 -0.4313 -0.1503
75290SOL    HW143480   7.021   8.076   2.355  1.9149 -0.7116 -0.4926
75290SOL    HW243481   7.003   8.025   2.214 -0.6683 -0.2602 -0.3821
75291SOL     OW43482   3.235   3.760   5.413  0.2514  0.0181  0.2021
75291SOL    HW143483   3.231   3.785   5.505 -0.0506  0.0613  0.1770
75291SOL    HW243484   3.148   3.780   5.379  0.8599  1.5945 -0.5116
75292SOL     OW43485  13.892   8.186  11.261  0.0451  0.0643  0.4511
75292SOL    HW143486  13.874   8.164  11.352  2.0280 -3.2176  0.1866
75292SOL    HW243487  13.833   8.130  11.210  2.2672 -1.7786 -0.2357
75293SOL     OW43488   1.872  10.573   9.502  0.5770  0.4103 -0.1278
75293SOL    HW143489   1.919  10.599   9.422 -1.0382  0.6789 -1.0448
75293SOL    HW243490   1.929  10.599   9.573  1.8228  0.7015 -1.1929
75294SOL     OW43491   5.615  13.108   7.862  0.0714  0.1768 -0.4342
75294SOL    HW143492   5.683  13.043   7.840  0.7446  1.2484 -1.6698
75294SOL    HW243493   5.659  13.170   7.920  0.0988  0.7404 -1.0446
75295SOL     OW43494   0.013   0.620   6.348  0.2916 -0.5200 -0.1277
75295SOL    HW143495   0.052   0.644   6.264  0.1204 -0.8942 -0.3142
75295SOL    HW243496  -0.057   0.559   6.326  0.0369 -0.3717  0.2629
75296SOL     OW43497   1.365  12.438  12.502 -0.1025 -0.3862  0.1302
75296SOL    HW143498   1.297  12.410  12.441  0.6504  0.2985 -1.0563
75296SOL    HW243499   1.324  12.429  12.589 -2.6499  2.4261 -0.6183
75297SOL     OW43500   5.459  11.933   6.202  0.2997  0.7070 -0.1861
75297SOL    HW143501   5.418  11.857   6.161  0.0637 -0.5778  2.2402
75297SOL    HW243502   5.414  12.008   6.163 -2.0199 -0.5383 -0.0972
75298SOL     OW43503  10.429  13.011   2.373 -0.2307 -0.3812 -0.3177
75298SOL    HW143504  10.431  13.087   2.315 -1.1530 -2.1977 -2.9351
75298SOL    HW243505  10.340  13.010   2.408  0.2249  0.5257  0.9173
75299SOL     OW43506   4.383  13.849  13.002  0.2870 -0.0564  0.2396
75299SOL    HW143507   4.421  13.935  13.021 -2.6040  1.0083  1.7651
75299SOL    HW243508   4.359  13.853  12.909  1.9573 -0.0616 -0.2410
75300SOL     OW43509   1.255   4.087   4.804 -0.1170 -0.1531  0.3151
75300SOL    HW143510   1.234   4.002   4.840 -0.6523 -0.4695 -0.7071
75300SOL    HW243511   1.193   4.099   4.732 -0.1868  1.1895  0.5702
75301SOL     OW43512  10.035   2.716  13.506 -0.1189  0.7160 -0.0287
75301SOL    HW143513   9.973   2.768  13.557 -0.3734  0.1828  0.2159
75301SOL    HW243514  10.037   2.631  13.550 -0.4885  0.1779 -1.0190
75302SOL     OW43515   2.071   6.316   2.283 -0.0938  0.0617 -0.1773
75302SOL    HW143516   2.070   6.341   2.375  0.9181  1.5742 -0.5447
75302SOL    HW243517   2.039   6.225   2.282 -1.7684  0.5793  1.4520
75303SOL     OW43518   4.206  10.578   3.725 -0.1554  0.7433  0.4346
75303SOL    HW143519   4.144  10.508   3.746  1.0131 -0.6472 -0.5476
75303SOL    HW243520   4.162  10.630   3.658 -0.0046 -0.7292 -0.8849
75304SOL     OW43521  10.239  13.855   9.983 -0.2475  0.0713 -0.0875
75304SOL    HW143522  10.207  13.808   9.907 -0.4795  1.5331 -0.9362
75304SOL    HW243523  10.212  13.946   9.969  1.5927  0.8044  0.6536
75305SOL     OW43524   2.996   6.381   9.334 -0.5717 -0.5444  0.9036
75305SOL    HW143525   2.986   6.337   9.418 -1.8366 -1.5526  0.2674
75305SOL    HW243526   2.909   6.375   9.293 -0.2717  0.8438 -0.0407
75306SOL     OW43527   9.299  11.833  13.914 -0.4514 -0.1248  0.0503
75306SOL    HW143528   9.329  11.809  13.827 -1.7419 -1.1602 -0.1406
75306SOL    HW243529   9.342  11.917  13.932  1.9864 -1.1774 -0.4389
75307SOL     OW43530   3.875   7.501  13.307 -0.7487 -0.2683 -0.2288
75307SOL    HW143531   3.801   7.449  13.341  0.8593 -2.5319  0.0068
75307SOL    HW243532   3.951   7.445  13.320  0.8313  1.4062 -1.8110
75308SOL     OW43533   3.813   9.657   0.887 -0.8259  0.3983 -0.0860
75308SOL    HW143534   3.752   9.718   0.846 -0.5581 -0.4518 -1.8663
75308SOL    HW243535   3.819   9.686   0.978 -1.7284  2.1737 -0.5499
75309SOL     OW43536   7.043   7.292   2.521 -0.1121 -0.0656 -0.6892
75309SOL    HW143537   7.012   7.368   2.473 -0.6265 -0.2961 -0.7294
75309SOL    HW243538   6.978   7.279   2.591  0.0531 -0.3677 -0.5871
75310SOL     OW43539  12.503   6.860   1.106 -0.3573 -0.6397  0.0673
75310SOL    HW143540  12.445   6.886   1.035 -0.7136  2.0140  1.2050
75310SOL    HW243541  12.466   6.779   1.141 -1.5213 -0.6854 -1.2317
75311SOL     OW43542  12.873   0.412   7.883 -0.0551 -0.1781  0.1760
75311SOL    HW143543  12.798   0.471   7.893  0.7824  0.6044  2.5460
75311SOL    HW243544  12.866   0.353   7.958  1.0810 -0.8283 -0.2151
75312SOL     OW43545   9.353   9.593   8.348  0.0236  0.3948  0.1306
75312SOL    HW143546   9.281   9.645   8.384 -0.8216 -1.5074  1.3139
75312SOL    HW243547   9.414   9.583   8.421 -0.5920 -1.5487  0.4394
75313SOL     OW43548   5.303  11.954   4.483 -0.1870  0.4284 -0.2334
75313SOL    HW143549   5.358  11.977   4.408  0.5847 -0.6848 -0.0440
75313SOL    HW243550   5.234  12.020   4.484  0.9031  1.6315 -0.7415
75314SOL     OW43551  13.555   5.344   4.645 -0.4217 -0.3109 -0.2116
75314SOL    HW143552  13.560   5.355   4.740 -1.6472 -2.8815  0.2295
75314SOL    HW243553  13.644   5.318   4.619 -0.2167 -0.1505  0.3189
75315SOL     OW43554   5.597  13.217   4.182  0.1370 -0.2299 -0.2003
75315SOL    HW143555   5.551  13.301   4.172  1.2098  0.1883 -2.2343
75315SOL    HW243556   5.527  13.153   4.197 -0.6570  1.0673  2.0385
75316SOL     OW43557   9.370   7.996   2.623 -0.0372  0.1009 -0.2059
75316SOL    HW143558   9.368   8.082   2.582 -1.3293  0.0617 -0.2808
75316SOL    HW243559   9.338   7.936   2.555 -1.9276 -0.0080  0.7015
75317SOL     OW43560   6.031  11.524   6.168 -0.4789  0.3607  0.4990
75317SOL    HW143561   6.088  11.539   6.243  1.3917 -2.6926 -0.1285
75317SOL    HW243562   5.953  11.482   6.205  0.0339 -0.2825  0.8869
75318SOL     OW43563  12.910   9.855  13.733  0.0095  0.2378  0.0277
75318SOL    HW143564  12.867   9.823  13.813  0.0915 -0.2232 -0.1105
75318SOL    HW243565  12.981   9.792  13.717  1.3855  1.5206  0.8037
75319SOL     OW43566   3.096   4.758  10.809  0.4566  0.2598 -0.2706
75319SOL    HW143567   3.188   4.780  10.820  0.6969 -0.8620  0.0787
75319SOL    HW243568   3.069   4.805  10.730  1.6235 -0.2639 -1.0046
75320SOL     OW43569   3.624  13.053  10.780  0.3157  0.0492  0.6295
75320SOL    HW143570   3.615  13.125  10.718 -0.8128  0.2166  0.9633
75320SOL    HW243571   3.545  13.058  10.834 -0.2594 -2.0109  0.0580
75321SOL     OW43572  10.596  10.555   2.441  0.3842 -0.5502 -0.2416
75321SOL    HW143573  10.603  10.649   2.429 -0.0459 -0.6250 -1.1698
75321SOL    HW243574  10.622  10.540   2.532 -3.7040  0.9573  1.3918
75322SOL     OW43575  13.150  11.378  11.435  0.4079 -0.2259 -0.0097
75322SOL    HW143576  13.072  11.398  11.488 -0.3419 -1.9280 -0.3821
75322SOL    HW243577  13.222  11.422  11.480 -0.6591  0.8012  0.7512
75323SOL     OW43578   8.927   0.684   4.813  0.1768  0.2334  0.0786
75323SOL    HW143579   8.863   0.680   4.884  0.2392  1.2344  0.2159
75323SOL    HW243580   8.896   0.756   4.757  1.0861  0.6298  0.0612
75324SOL     OW43581   8.163   2.790  13.854  0.0178 -0.3679  0.1081
75324SOL    HW143582   8.174   2.707  13.901  0.1980 -0.8010 -0.6803
75324SOL    HW243583   8.200   2.855  13.913  0.4503 -0.9310  0.4769
75325SOL     OW43584   9.588   9.721  12.229 -0.2316 -0.0128 -0.0259
75325SOL    HW143585   9.639   9.723  12.310  2.2436  0.7949 -1.4864
75325SOL    HW243586   9.586   9.812  12.199  0.1253 -0.4573 -1.5239
75326SOL     OW43587   8.697   8.616  12.582  0.0468 -0.4124 -0.2112
75326SOL    HW143588   8.609   8.604  12.547  0.1323 -0.9828 -0.2341
75326SOL    HW243589   8.732   8.528  12.591  0.9130 -0.1635 -0.9581
75327SOL     OW43590   1.686   0.316  11.838 -0.0295 -0.2652  0.5710
75327SOL    HW143591   1.625   0.252  11.801  0.8159 -0.2065 -1.0184
75327SOL    HW243592   1.747   0.334  11.767  1.0863  0.6309  1.7185
75328SOL     OW43593   3.397   3.142   8.597  0.1967 -0.0721  0.1456
75328SOL    HW143594   3.453   3.110   8.526  0.6570 -0.0433  0.4945
75328SOL    HW243595   3.409   3.237   8.595  0.6257 -0.1102  0.5986
75329SOL     OW43596   4.567   7.589   0.662 -0.0363 -0.7964 -0.2834
75329SOL    HW143597   4.508   7.524   0.624  0.0488 -0.1220 -1.6523
75329SOL    HW243598   4.655   7.551   0.650  0.0776 -0.1222 -1.8182
75330SOL     OW43599   5.987  10.466   1.345  0.3038  0.4952 -0.0464
75330SOL    HW143600   5.935  10.395   1.382 -0.3630  0.9520 -0.0872
75330SOL    HW243601   6.014  10.518   1.422 -1.1210  1.4713 -0.1704
75331SOL     OW43602   5.252   4.137   3.277  0.5785  0.6309  0.0479
75331SOL    HW143603   5.323   4.173   3.223  2.0085 -1.0373  0.7088
75331SOL    HW243604   5.185   4.111   3.214  1.0153  1.2548 -0.6956
75332SOL     OW43605  10.974   8.465   6.720  0.7948 -0.2395  0.4174
75332SOL    HW143606  11.004   8.492   6.633  0.0449  0.6031  0.4062
75332SOL    HW243607  11.049   8.480   6.777  0.0536  3.2454  0.6719
75333SOL     OW43608   3.524  13.444   2.954  0.4967 -0.1193  0.4640
75333SOL    HW143609   3.542  13.538   2.958  1.6853 -0.3010  0.0401
75333SOL    HW243610   3.599  13.404   2.999 -0.1884 -0.8434  0.9758
75334SOL     OW43611   5.700   9.273   0.036 -0.7352  0.2434 -0.3864
75334SOL    HW143612   5.659   9.189   0.015  0.2252 -0.1217 -0.8787
75334SOL    HW243613   5.776   9.278  -0.022  0.0906  0.7472  0.6896
75335SOL     OW43614   0.027   7.374   0.144  0.0658  0.0222  0.0810
75335SOL    HW143615   0.003   7.407   0.231  1.5472  1.6070 -0.0473
75335SOL    HW243616  -0.052   7.387   0.091  0.1852  2.3930  0.3547
75336SOL     OW43617   3.244   1.234  12.548  0.7465  0.0093  0.3920
75336SOL    HW143618   3.253   1.294  12.474 -3.0075 -0.4477 -0.6685
75336SOL    HW243619   3.214   1.291  12.620 -0.3357 -0.1604  0.1021
75337SOL     OW43620  13.248   3.392   7.216  0.0305  0.1577 -0.5708
75337SOL    HW143621  13.159   3.420   7.238  0.1879 -0.1889  0.5466
75337SOL    HW243622  13.270   3.442   7.137  0.3612  3.3009  1.3613
75338SOL     OW43623  12.276   1.057   3.930 -0.2003 -0.1549  0.2583
75338SOL    HW143624  12.322   1.107   3.863  0.5447 -0.1835  0.7374
75338SOL    HW243625  12.221   1.121   3.975 -1.4160 -0.2961 -0.9567
75339SOL     OW43626   3.359   2.541   4.356  0.0711  0.1549 -0.3375
75339SOL    HW143627   3.283   2.493   4.388 -0.1245  0.7088  0.0497
75339SOL    HW243628   3.354   2.626   4.401  1.2756 -0.0398  0.2054
75340SOL     OW43629  12.723  11.487   9.592 -0.4038  0.2457 -0.4577
75340SOL    HW143630  12.786  11.435   9.542 -1.8049 -0.4645 -1.5791
75340SOL    HW243631  12.742  11.467   9.683  0.3743 -0.7132 -0.8122
75341SOL     OW43632   7.567   7.100   3.116  0.0638  0.2739 -0.3024
75341SOL    HW143633   7.628   7.048   3.063 -1.0241  0.2571 -1.6153
75341SOL    HW243634   7.518   7.151   3.051  0.6719  2.4889  0.9119
75342SOL     OW43635   1.124   9.566   5.492  0.4859 -0.4476 -0.0855
75342SOL    HW143636   1.142   9.614   5.412 -3.2148  0.5198 -0.5575
75342SOL    HW243637   1.174   9.611   5.560  1.0055  0.9156 -1.3368
75343SOL     OW43638  13.375   5.353  10.779 -0.1415  0.3846 -0.1967
75343SOL    HW143639  13.375   5.272  10.728  2.3842  0.2805 -0.1400
75343SOL    HW243640  13.461   5.391  10.763 -1.2279  3.0526 -0.1511
75344SOL     OW43641  13.803   0.506   7.686 -0.1939 -0.0191 -0.7052
75344SOL    HW143642  13.890   0.524   7.723  0.5354 -2.0381 -1.2701
75344SOL    HW243643  13.756   0.462   7.756 -0.0271 -0.7333 -1.0284
75345SOL     OW43644   7.935   1.865  10.397 -0.4087  0.4889  0.2971
75345SOL    HW143645   7.875   1.861  10.472 -0.1708 -0.8338  0.4360
75345SOL    HW243646   7.881   1.842  10.322 -0.2143 -0.1410  0.3446
75346SOL     OW43647   6.832   6.168   5.199  0.0839  0.0395 -0.3793
75346SOL    HW143648   6.871   6.216   5.126 -0.5718 -0.7373 -1.2695
75346SOL    HW243649   6.905   6.150   5.258  0.4969  1.2834 -0.4927
75347SOL     OW43650   2.245  13.587   8.601  0.3881 -0.0183  0.2503
75347SOL    HW143651   2.224  13.597   8.694  3.1521  2.6662  0.7514
75347SOL    HW243652   2.231  13.494   8.583 -1.8788 -0.3127  2.8375
75348SOL     OW43653   0.434  12.002   1.417 -0.2898 -0.1751 -0.3219
75348SOL    HW143654   0.394  12.085   1.444 -1.9361 -0.8440 -0.5966
75348SOL    HW243655   0.517  12.027   1.377 -0.9034  1.3703 -0.6891
75349SOL     OW43656   6.705   8.508  12.610  0.3465  0.9565 -0.1576
75349SOL    HW143657   6.751   8.563  12.673  3.2293  2.3671 -3.1845
75349SOL    HW243658   6.753   8.520  12.528 -2.4062 -1.6682 -2.3955
75350SOL     OW43659   2.336   5.570   7.239 -0.0900  0.5398 -0.0603
75350SOL    HW143660   2.335   5.602   7.329 -0.8637  1.1364 -0.2742
75350SOL    HW243661   2.310   5.478   7.247 -2.5647  1.1788  0.1349
75351SOL     OW43662   5.570   6.833   4.805 -0.1527 -0.2566  0.6514
75351SOL    HW143663   5.585   6.744   4.839 -1.7922 -0.3986  1.0961
75351SOL    HW243664   5.628   6.840   4.730 -1.2600 -2.3910 -0.4875
75352SOL     OW43665  12.464   6.191  10.864 -0.0354  0.0690  0.4700
75352SOL    HW143666  12.442   6.228  10.949 -0.2130  2.1158 -0.4108
75352SOL    HW243667  12.559   6.175  10.869 -0.2402 -1.0057  1.4310
75353SOL     OW43668   7.922   5.363   2.820 -0.1105 -0.3457  0.6036
75353SOL    HW143669   7.967   5.359   2.736 -0.3153  0.2465  0.4617
75353SOL    HW243670   7.918   5.456   2.841  2.1886 -0.5902  2.5186
75354SOL     OW43671  12.044   8.939  13.474  0.3275  0.3663  0.3099
75354SOL    HW143672  12.127   8.892  13.482  0.0385 -0.1608  0.2788
75354SOL    HW243673  12.042   8.969  13.383  0.0797 -0.4113  0.0472
75355SOL     OW43674   1.836  10.404   0.798  0.2350 -0.0515  0.0510
75355SOL    HW143675   1.784  10.479   0.769  1.3137  1.4376  1.7973
75355SOL    HW243676   1.892  10.383   0.723 -0.1612  0.7982 -0.4917
75356SOL     OW43677   6.865  10.110   5.699  0.6385 -0.3488  0.0623
75356SOL    HW143678   6.861  10.033   5.757 -0.7790  0.9169  1.7498
75356SOL    HW243679   6.834  10.182   5.753  0.9201  1.2447 -1.8020
75357SOL     OW43680   8.168   3.579   9.452 -0.0499 -0.6656  0.6229
75357SOL    HW143681   8.127   3.492   9.447 -1.5163  0.0698 -1.8015
75357SOL    HW243682   8.113   3.628   9.513  0.5323 -1.2555  1.6642
75358SOL     OW43683  13.725  10.213   9.571 -0.1729 -0.7927  0.3410
75358SOL    HW143684  13.749  10.200   9.479  0.9855 -0.1401  0.5311
75358SOL    HW243685  13.804  10.249   9.611 -1.0199  0.0237  1.3385
75359SOL     OW43686   6.171   9.530   2.667  0.0132 -0.1888 -0.2731
75359SOL    HW143687   6.251   9.581   2.652 -0.7533  0.2218 -3.7614
75359SOL    HW243688   6.146   9.552   2.757  1.7887  2.6085 -0.3332
75360SOL     OW43689   6.372   0.935   0.807  0.4399 -0.2127 -0.0310
75360SOL    HW143690   6.459   0.975   0.798 -0.1788  1.6027  1.3402
75360SOL    HW243691   6.313   1.009   0.820 -0.9118 -1.5012  1.8203
75361SOL     OW43692   0.646   3.735   2.981 -0.2850 -0.6685  0.0489
75361SOL    HW143693   0.680   3.709   3.067 -0.6298 -0.5973  0.2096
75361SOL    HW243694   0.552   3.743   2.994 -0.2025  0.6315  0.0056
75362SOL     OW43695   8.509   6.174   5.328 -0.7094 -0.4640  0.0902
75362SOL    HW143696   8.498   6.241   5.261 -0.0644 -0.1033  0.3317
75362SOL    HW243697   8.602   6.150   5.322 -0.9779 -1.4890 -0.1358
75363SOL     OW43698  13.419   3.718   8.020 -0.4000 -0.4360 -0.3588
75363SOL    HW143699  13.363   3.652   7.979 -1.5568  0.6591 -0.5865
75363SOL    HW243700  13.418   3.695   8.113 -3.7478  1.2420  0.1729
75364SOL     OW43701   9.584   0.629  10.394 -0.0362  0.3179 -0.2656
75364SOL    HW143702   9.659   0.621  10.335  1.9906  0.3160  2.1525
75364SOL    HW243703   9.555   0.720  10.384  1.7381  0.9785  0.3477
75365SOL     OW43704   0.917   2.932  13.323  0.0795 -0.5513 -0.8438
75365SOL    HW143705   0.890   2.981  13.245 -0.3117  0.1969 -0.2492
75365SOL    HW243706   0.998   2.889  13.297 -0.8526 -1.6021 -2.1791
75366SOL     OW43707  12.987   8.165   7.334  0.2105 -0.6083 -0.5184
75366SOL    HW143708  13.061   8.222   7.314 -2.0846  3.2609  0.9149
75366SOL    HW243709  13.012   8.121   7.416  1.4340 -0.4912 -0.8101
75367SOL     OW43710  10.644   6.558   2.545 -0.2021 -0.0463 -0.6972
75367SOL    HW143711  10.626   6.550   2.452 -1.1807  1.4730 -0.6868
75367SOL    HW243712  10.557   6.557   2.586  0.0861  1.1985 -0.0035
75368SOL     OW43713  13.951  12.169  13.497 -0.2667  0.1750  0.3145
75368SOL    HW143714  14.024  12.118  13.463 -0.2590  0.0679  0.4900
75368SOL    HW243715  13.958  12.161  13.592  0.0783  0.9920  0.3621
75369SOL     OW43716  10.623   9.855   3.493 -0.1721  0.4561  0.1468
75369SOL    HW143717  10.716   9.858   3.517 -0.0098  0.0754 -0.4272
75369SOL    HW243718  10.602   9.945   3.469 -0.1977  0.7352  1.1739
75370SOL     OW43719   0.899   3.218   0.893  0.0370  0.3788  0.3912
75370SOL    HW143720   0.979   3.251   0.935  0.2510 -0.0799  0.3447
75370SOL    HW243721   0.912   3.235   0.800  1.1309 -1.8373  0.0905
75371SOL     OW43722   0.869   8.213   8.218  0.9372  0.1691  0.0282
75371SOL    HW143723   0.904   8.300   8.237  1.0584 -0.1668  1.4700
75371SOL    HW243724   0.859   8.211   8.123  0.6203  1.8686  0.0075
75372SOL     OW43725   5.428   4.649   3.441  0.4680  0.0985  0.2791
75372SOL    HW143726   5.364   4.702   3.487  0.1193 -0.0708 -0.0057
75372SOL    HW243727   5.481   4.609   3.510 -0.1053 -0.2278  0.5392
75373SOL     OW43728  12.595  12.597  13.388  0.0065  0.2451  0.2822
75373SOL    HW143729  12.550  12.536  13.329  0.6721 -0.6034  0.6373
75373SOL    HW243730  12.530  12.614  13.457 -0.0732 -0.3386  0.3637
75374SOL     OW43731   6.668   6.872  14.086 -0.1254  0.1384  0.2750
75374SOL    HW143732   6.594   6.923  14.117 -1.0554  0.1094 -1.7280
75374SOL    HW243733   6.629   6.804  14.030  1.4526  1.4322 -2.6329
75375SOL     OW43734   5.825  13.098   6.056  0.1665  0.3869 -0.4874
75375SOL    HW143735   5.756  13.164   6.068  0.9009  1.2573 -0.8925
75375SOL    HW243736   5.832  13.088   5.961 -1.0633 -1.5247 -0.4149
75376SOL     OW43737   3.966  13.093   7.559 -0.2516  0.5847  0.1158
75376SOL    HW143738   4.012  13.068   7.639  1.4260  0.8761 -0.7215
75376SOL    HW243739   3.968  13.014   7.505 -0.3466  0.7288 -0.1006
75377SOL     OW43740   0.923  12.913   3.616  0.0117 -0.0285  0.3570
75377SOL    HW143741   0.896  12.824   3.638  0.5346 -0.1891  0.3810
75377SOL    HW243742   0.887  12.968   3.686  0.8128 -0.4030  1.0832
75378SOL     OW43743   3.672  10.129  13.506  0.3387 -0.2376  0.0201
75378SOL    HW143744   3.749  10.076  13.487 -0.1221 -1.0512  0.3698
75378SOL    HW243745   3.614  10.114  13.431  0.6484  0.6575 -0.4207
75379SOL     OW43746   1.928   1.461  13.853 -0.2460 -0.6404  0.1424
75379SOL    HW143747   1.925   1.508  13.936  1.7795 -0.3192  0.0719
75379SOL    HW243748   1.850   1.405  13.855  0.0806 -1.1477  2.5772
75380SOL     OW43749   6.187   5.793   1.064 -0.1869 -0.3568 -0.0665
75380SOL    HW143750   6.136   5.859   1.016 -2.4902 -1.5143  0.6330
75380SOL    HW243751   6.242   5.845   1.123 -1.5276  0.9722  0.0793
75381SOL     OW43752   5.474  13.799   6.471  0.1387 -0.1392 -0.4467
75381SOL    HW143753   5.483  13.871   6.533  1.1975 -0.5341 -0.1129
75381SOL    HW243754   5.516  13.830   6.391 -1.7970  0.6163 -1.2161
75382SOL     OW43755  12.324   3.629  12.161 -0.2007 -0.1438  0.0312
75382SOL    HW143756  12.313   3.681  12.082  0.2098 -1.3942 -0.8663
75382SOL    HW243757  12.387   3.679  12.214 -0.8616  0.9431 -0.1887
75383SOL     OW43758   9.546   8.102   3.022  0.3456  0.5888 -0.2178
75383SOL    HW143759   9.592   8.019   3.033  0.5998  0.8640  0.9489
75383SOL    HW243760   9.454   8.078   3.012  0.3573  0.1825  0.5896
75384SOL     OW43761  13.674  12.919   4.201  0.0006  0.0327 -0.2755
75384SOL    HW143762  13.672  12.824   4.208  1.9578  0.0558  2.2182
75384SOL    HW243763  13.583  12.945   4.193 -0.6202 -2.0263 -0.3564
75385SOL     OW43764   0.427   8.278   1.487  0.0899 -0.0566 -0.0350
75385SOL    HW143765   0.434   8.183   1.481 -1.4171 -0.1064 -1.8467
75385SOL    HW243766   0.333   8.296   1.491  0.3215  1.3719 -0.3591
75386SOL     OW43767   5.791   5.606  14.047 -0.0583  0.1815  0.3226
75386SOL    HW143768   5.736   5.652  14.111  0.4586 -1.1982  1.8453
75386SOL    HW243769   5.830   5.676  13.995 -2.0284  1.2703  0.1985
75387SOL     OW43770   6.003   8.821  13.070  0.3025  0.1260 -0.2232
75387SOL    HW143771   5.963   8.907  13.061  1.8814  0.9203  0.1235
75387SOL    HW243772   6.096   8.838  13.076  0.5290 -1.4468  2.0008
75388SOL     OW43773   5.397   0.443   5.080  0.3807 -0.1841  0.2592
75388SOL    HW143774   5.475   0.397   5.050  0.1008 -0.7448  0.3717
75388SOL    HW243775   5.353   0.380   5.137 -0.7512 -0.3322 -0.7291
75389SOL     OW43776   6.614  13.135  10.238 -0.5573 -0.3821  0.0680
75389SOL    HW143777   6.610  13.055  10.186  3.0324  0.0670 -1.1367
75389SOL    HW243778   6.590  13.107  10.327  1.3911 -3.0472 -0.1378
75390SOL     OW43779   8.276   9.582   2.118 -0.5001  0.3172 -0.4937
75390SOL    HW143780   8.222   9.646   2.072 -2.0097 -0.8460 -0.4649
75390SOL    HW243781   8.226   9.563   2.198  2.0073  2.2339  1.6809
75391SOL     OW43782   7.853   8.763  10.777 -0.5088 -0.0755  0.1038
75391SOL    HW143783   7.889   8.700  10.839  1.8136 -0.7604 -1.7856
75391SOL    HW243784   7.914   8.837  10.779  0.6855 -0.8693 -2.5344
75392SOL     OW43785   7.328   9.897   4.332  0.5722  0.1584 -0.2774
75392SOL    HW143786   7.383   9.822   4.311  0.9521  0.1143  0.8023
75392SOL    HW243787   7.335   9.906   4.427 -0.8517  0.4867 -0.1731
75393SOL     OW43788   7.471   5.571   2.721  0.0608 -0.1134  0.1795
75393SOL    HW143789   7.401   5.594   2.661 -0.6881 -0.7214  0.7877
75393SOL    HW243790   7.546   5.551   2.665 -0.3742  0.1450 -0.5007
75394SOL     OW43791  10.503  11.936   1.516  0.1572  0.2645 -0.4019
75394SOL    HW143792  10.558  11.964   1.589 -1.2549 -2.3056  1.7982
75394SOL    HW243793  10.416  11.969   1.536 -0.7982 -2.5180  0.5259
75395SOL     OW43794   6.965   5.879   8.708 -0.0478 -0.8580  0.8793
75395SOL    HW143795   6.926   5.885   8.621  1.9840  0.4943 -0.0170
75395SOL    HW243796   6.975   5.784   8.722 -1.0964 -1.1267 -0.0142
75396SOL     OW43797  11.489  12.373   7.964  0.0830  0.2582 -0.1801
75396SOL    HW143798  11.395  12.363   7.947  0.3825 -0.1854 -1.8022
75396SOL    HW243799  11.501  12.468   7.973 -0.7378  0.2249  1.6823
75397SOL     OW43800  12.892   6.644   1.147 -0.2970 -0.3718 -0.1314
75397SOL    HW143801  12.871   6.617   1.237 -1.1576 -1.0719 -0.5345
75397SOL    HW243802  12.859   6.733   1.141  1.2093  0.2908  0.7369
75398SOL     OW43803   0.235   1.292   1.248 -0.1621  0.2761  0.1379
75398SOL    HW143804   0.170   1.237   1.291 -0.6792  1.0181  0.3154
75398SOL    HW243805   0.259   1.243   1.169 -1.6107  0.4120 -0.4052
75399SOL     OW43806   0.870   7.032   2.412 -0.1573 -0.3469  0.5061
75399SOL    HW143807   0.926   7.108   2.424 -0.0786 -0.4998  1.1509
75399SOL    HW243808   0.896   6.996   2.328 -1.2117  1.1783 -0.5236
75400SOL     OW43809   3.109   4.041   6.486  0.3712  0.4348  0.2497
75400SOL    HW143810   3.069   3.992   6.414 -1.6389  1.7985  0.3676
75400SOL    HW243811   3.195   4.066   6.453  0.9657 -2.0360 -0.2773
75401SOL     OW43812  13.683   1.798   3.475 -0.2572  0.0809  0.1453
75401SOL    HW143813  13.670   1.880   3.523 -1.9385 -0.4574  0.6745
75401SOL    HW243814  13.714   1.736   3.542  0.1906  0.0671 -0.0739
75402SOL     OW43815  13.113   9.728   2.012 -0.1742  0.8122 -0.0189
75402SOL    HW143816  13.190   9.736   2.068 -1.3761  2.5346  1.5127
75402SOL    HW243817  13.056   9.667   2.058 -0.3578  0.7057 -0.3819
75403SOL     OW43818   5.628  12.699  13.440  0.2693  0.3652 -0.6812
75403SOL    HW143819   5.604  12.787  13.469 -0.2108 -0.0737  0.2821
75403SOL    HW243820   5.545  12.656  13.421  0.4104 -0.3301  0.2062
75404SOL     OW43821   9.798   3.507   2.081  0.0355  0.1741 -0.0567
75404SOL    HW143822   9.857   3.454   2.134  0.3307  1.6479  1.1689
75404SOL    HW243823   9.843   3.517   1.997  0.4983 -0.5274  0.1015
75405SOL     OW43824  10.749   5.452   2.433  0.5294 -0.3563  0.2533
75405SOL    HW143825  10.824   5.438   2.374  1.5243  1.5311  0.9986
75405SOL    HW243826  10.686   5.501   2.380  1.1965  0.8683  0.5692
75406SOL     OW43827   5.576   4.404   1.837  0.4026 -0.2515 -0.0909
75406SOL    HW143828   5.487   4.434   1.818  1.0752  0.3668 -2.6594
75406SOL    HW243829   5.621   4.406   1.752  2.7265 -1.0709  1.0266
75407SOL     OW43830   5.635  13.040   6.401 -0.5083 -0.1888  0.2838
75407SOL    HW143831   5.645  12.971   6.334  0.7648 -0.5552  0.8189
75407SOL    HW243832   5.725  13.068   6.420 -0.6420 -1.2615  3.0228
75408SOL     OW43833   7.713   2.411   0.878  0.0952  0.4614 -0.0031
75408SOL    HW143834   7.676   2.402   0.790  0.8384 -0.9286 -0.2094
75408SOL    HW243835   7.807   2.402   0.865  0.1349 -1.0537  1.0374
75409SOL     OW43836   2.032  12.321  13.288 -0.2153  0.2619 -0.1019
75409SOL    HW143837   1.956  12.272  13.320 -1.9386  2.4344 -0.5986
75409SOL    HW243838   2.061  12.273  13.211 -0.8216 -0.8344  0.3349
75410SOL     OW43839   3.223  13.722   4.735 -0.8889 -0.6195  0.3187
75410SOL    HW143840   3.269  13.642   4.758 -0.1439 -0.1041  0.6571
75410SOL    HW243841   3.263  13.749   4.652 -1.3231 -0.7435  0.0695
75411SOL     OW43842  12.494   7.568  14.009  0.0451  0.0219  0.3090
75411SOL    HW143843  12.406   7.543  13.982 -0.4537  0.1646  1.7500
75411SOL    HW243844  12.528   7.619  13.935 -0.9941 -0.2075 -0.3430
75412SOL     OW43845  13.549   0.446   6.439  0.5469 -0.3263  0.1474
75412SOL    HW143846  13.485   0.443   6.368 -1.4178 -0.1710  1.8138
75412SOL    HW243847  13.570   0.355   6.457 -0.1727 -0.4502  0.3923
75413SOL     OW43848   7.657  11.078  13.962 -0.5467  0.0565  0.0891
75413SOL    HW143849   7.684  11.156  13.913 -1.9428 -0.7078 -2.0452
75413SOL    HW243850   7.730  11.017  13.952 -0.3366  0.3296 -0.0502
75414SOL     OW43851   2.459   1.816  13.017  0.6971 -0.1381 -0.2254
75414SOL    HW143852   2.461   1.741  13.077 -0.2527 -0.8006 -0.9973
75414SOL    HW243853   2.491   1.782  12.934 -1.2130 -0.1283 -1.0216
75415SOL     OW43854   4.659  12.803   6.139 -0.0684 -0.6304  0.1182
75415SOL    HW143855   4.729  12.741   6.122  2.7232  2.5927 -1.3836
75415SOL    HW243856   4.615  12.815   6.055 -1.8997 -1.8588  0.8203
75416SOL     OW43857   7.830   7.900   0.881  0.5584 -0.6852 -0.1778
75416SOL    HW143858   7.903   7.955   0.908 -1.1109  0.9152  1.3011
75416SOL    HW243859   7.869   7.814   0.864  3.2175  0.7944 -2.3310
75417SOL     OW43860   7.849  12.564  11.977  0.1688 -0.5279 -0.0720
75417SOL    HW143861   7.770  12.525  11.939  0.8906 -1.5753 -0.5188
75417SOL    HW243862   7.890  12.494  12.027  1.2974 -0.2636 -0.5878
75418SOL     OW43863   2.226   6.058   7.561 -0.0870 -0.1496  0.0503
75418SOL    HW143864   2.246   6.134   7.506  2.5976 -1.0446 -0.4009
75418SOL    HW243865   2.283   5.988   7.527 -0.1577 -1.4651  2.3967
75419SOL     OW43866   6.870   8.407  13.893  0.0122  0.3800  0.7550
75419SOL    HW143867   6.855   8.433  13.802  0.7384  0.7387  0.7354
75419SOL    HW243868   6.807   8.335  13.908  1.1557 -0.9699 -0.6193
75420SOL     OW43869   5.644   1.256  13.270  0.0710 -0.4312  0.3044
75420SOL    HW143870   5.718   1.237  13.212  0.9087 -0.7076  1.4196
75420SOL    HW243871   5.586   1.180  13.260 -0.7242  0.3615 -1.5236
75421SOL     OW43872   0.346  12.925   1.621 -0.0563 -0.3287 -0.8487
75421SOL    HW143873   0.308  12.995   1.674  0.0294 -1.1807  0.3844
75421SOL    HW243874   0.295  12.848   1.643 -0.2507 -0.6523 -2.3158
75422SOL     OW43875   4.462   8.692  12.508  0.1542  0.1180  0.4950
75422SOL    HW143876   4.533   8.720  12.566 -0.4328  0.0690  1.2400
75422SOL    HW243877   4.478   8.598  12.495  0.7105  0.2748 -0.0378
75423SOL     OW43878   6.151  13.915   8.789 -0.1834  0.3844  0.4165
75423SOL    HW143879   6.169  14.007   8.811 -1.4469  1.0012 -0.9048
75423SOL    HW243880   6.083  13.889   8.850  0.3585  0.2373  0.9634
75424SOL     OW43881  13.197   7.125   3.536  0.3544 -0.6467 -0.5914
75424SOL    HW143882  13.186   7.030   3.527  1.5369 -0.7976 -0.5910
75424SOL    HW243883  13.258   7.135   3.609  0.8335  0.0820 -1.0850
75425SOL     OW43884   4.775   6.272   7.380 -0.1145  0.6808  0.6383
75425SOL    HW143885   4.866   6.269   7.412 -0.2854  0.8545  1.1630
75425SOL    HW243886   4.782   6.298   7.289  0.4633 -0.8967  0.2038
75426SOL     OW43887   0.106   5.988  10.797 -0.2070  0.2166  0.0427
75426SOL    HW143888   0.192   6.030  10.800 -0.0780  0.0059 -0.4919
75426SOL    HW243889   0.045   6.056  10.823  0.0922  0.4620  0.1135
75427SOL     OW43890   5.933   2.591  12.037 -0.0918  0.6059 -0.3323
75427SOL    HW143891   5.984   2.511  12.026 -1.1936 -0.7357  2.8807
75427SOL    HW243892   5.999   2.659  12.052  0.8780 -0.6080  1.2684
75428SOL     OW43893  10.168  12.179   9.625 -0.5088  0.4292  0.1801
75428SOL    HW143894  10.147  12.249   9.686  0.9523  0.2654  0.9178
75428SOL    HW243895  10.118  12.103   9.657 -1.5224  0.9293 -0.1929
75429SOL     OW43896   2.574   0.637   2.565  0.0905  0.1172 -0.1360
75429SOL    HW143897   2.623   0.700   2.511  1.4121 -0.1819  0.6757
75429SOL    HW243898   2.484   0.668   2.560  0.5713  1.5813 -0.4692
75430SOL     OW43899  12.936  12.491   9.545  0.4236  0.2545  0.4771
75430SOL    HW143900  13.017  12.542   9.549  0.3977  0.3386  0.0014
75430SOL    HW243901  12.870  12.552   9.512  0.7097 -0.4420 -1.5516
75431SOL     OW43902   7.163   9.758   2.650  0.3107 -0.8078 -0.4034
75431SOL    HW143903   7.105   9.731   2.721  0.2219  0.8133  0.1860
75431SOL    HW243904   7.137   9.847   2.630  2.7203  0.0839  0.0370
75432SOL     OW43905   1.405  11.396  10.967 -0.6093 -0.0024 -0.1510
75432SOL    HW143906   1.476  11.361  10.913  0.7045  0.1629  1.3910
75432SOL    HW243907   1.331  11.337  10.952  0.8649 -2.1575  0.7091
75433SOL     OW43908   0.004   8.613  10.713  0.4647 -0.3406  0.1651
75433SOL    HW143909   0.074   8.669  10.747 -0.1741  1.0087 -0.6393
75433SOL    HW243910  -0.075   8.668  10.719 -0.0133 -0.7683 -1.5943
75434SOL     OW43911  13.644   8.442   7.305 -0.6632 -0.4382  0.6485
75434SOL    HW143912  13.699   8.364   7.307  0.4206  0.2694  0.0171
75434SOL    HW243913  13.639   8.464   7.212  0.5087  1.2045  0.9308
75435SOL     OW43914   4.036   1.147  10.198  0.2727 -0.4330  0.2847
75435SOL    HW143915   4.123   1.144  10.157  0.2126 -0.1262  0.1298
75435SOL    HW243916   3.977   1.110  10.132 -0.0716  1.4860 -0.5820
75436SOL     OW43917   5.485   4.054  11.180  0.4042 -0.1733  0.1013
75436SOL    HW143918   5.506   4.027  11.091 -1.2658  2.8605 -1.4103
75436SOL    HW243919   5.518   4.144  11.185 -2.1785  0.7932  1.4100
75437SOL     OW43920  11.682   0.197  13.188 -0.4377 -0.5528 -0.3018
75437SOL    HW143921  11.660   0.288  13.169  1.4530 -0.5406 -2.9147
75437SOL    HW243922  11.632   0.146  13.125  0.8297 -1.0655 -0.9275
75438SOL     OW43923   9.269   7.668   3.560  0.1641  1.3971  0.0391
75438SOL    HW143924   9.202   7.736   3.557 -0.6916  0.5481 -1.8433
75438SOL    HW243925   9.262   7.631   3.648  0.2570  3.3059  0.9019
75439SOL     OW43926   9.310   3.736  11.939  0.3259 -0.3165 -0.1875
75439SOL    HW143927   9.275   3.650  11.914  2.8647 -1.3191 -0.5856
75439SOL    HW243928   9.257   3.798  11.890 -1.3236 -1.6374 -0.1974
75440SOL     OW43929   0.978   8.108   9.625  0.3221  0.2024 -0.3317
75440SOL    HW143930   0.885   8.116   9.607  0.5449  1.3140 -1.0926
75440SOL    HW243931   0.984   8.101   9.720 -0.6411 -1.8951 -0.3640
75441SOL     OW43932  13.673   8.116  12.664 -0.0590  0.1309  0.5532
75441SOL    HW143933  13.630   8.198  12.636  2.3654  1.4121  0.2899
75441SOL    HW243934  13.667   8.117  12.759 -3.6563 -1.5669  0.5017
75442SOL     OW43935  12.897   9.326  12.809  0.2082 -0.3107  0.1414
75442SOL    HW143936  12.981   9.282  12.800 -0.1659 -0.9126 -0.5159
75442SOL    HW243937  12.843   9.290  12.739 -0.3042  0.7702 -0.0375
75443SOL     OW43938   5.539  13.251   6.543 -0.4907 -0.5311 -0.6584
75443SOL    HW143939   5.543  13.332   6.493  1.5185  0.6024  1.1874
75443SOL    HW243940   5.541  13.182   6.476 -1.1524  0.8921 -2.2307
75444SOL     OW43941  11.436  11.781   3.591 -0.1019  0.4111 -0.3462
75444SOL    HW143942  11.434  11.807   3.499  0.1512  0.2441 -0.4012
75444SOL    HW243943  11.432  11.685   3.589 -0.3793  0.4168 -0.1710
75445SOL     OW43944   7.959  13.069   1.414 -0.0280  0.0072  0.3146
75445SOL    HW143945   7.923  13.150   1.378 -0.9707 -1.3505 -2.0421
75445SOL    HW243946   7.898  13.045   1.483  0.2525  1.2615  1.0294
75446SOL     OW43947   5.825   5.370  13.873  0.2983 -0.5037  0.2194
75446SOL    HW143948   5.852   5.424  13.947 -0.5081 -1.3503  1.1649
75446SOL    HW243949   5.730   5.381  13.870  0.0356 -2.3473  0.8460
75447SOL     OW43950   7.766   2.707   3.858  0.5325  0.0730 -0.8066
75447SOL    HW143951   7.831   2.640   3.837  0.4145 -0.5308  0.6362
75447SOL    HW243952   7.732   2.735   3.773  2.5188  0.2748 -1.5890
75448SOL     OW43953   1.515  10.433   7.545 -0.3440 -0.7329  0.3572
75448SOL    HW143954   1.572  10.364   7.512 -1.6188 -1.3026 -0.7526
75448SOL    HW243955   1.555  10.461   7.628  1.4542 -1.1714 -0.3337
75449SOL     OW43956  11.476  14.008  10.507 -0.1184 -0.0448 -0.1165
75449SOL    HW143957  11.404  14.045  10.559  1.3103  0.2718  1.7162
75449SOL    HW243958  11.516  14.083  10.464 -0.6233 -0.1804 -0.8501
75450SOL     OW43959   3.927   8.485   3.424  0.1892  0.1790  0.2123
75450SOL    HW143960   3.995   8.552   3.427  1.0730 -0.6382 -0.8497
75450SOL    HW243961   3.895   8.486   3.334 -0.5127 -0.1305  0.4448
75451SOL     OW43962   2.278  12.865  14.008  0.0001  0.3007  0.3268
75451SOL    HW143963   2.260  12.774  13.986 -0.1462 -0.1565  2.1953
75451SOL    HW243964   2.362  12.863  14.053 -0.6651  0.8651  1.6587
75452SOL     OW43965   2.574   6.755   9.125  0.2522  0.1495  0.1308
75452SOL    HW143966   2.516   6.693   9.170 -1.1507  1.0138 -0.4122
75452SOL    HW243967   2.524   6.836   9.123  0.4359  0.2728 -2.5677
75453SOL     OW43968  10.275   8.582  13.393  0.2745  0.0486  0.1523
75453SOL    HW143969  10.247   8.535  13.314 -3.7152  0.9346  0.7865
75453SOL    HW243970  10.300   8.513  13.455  1.0936 -0.7889 -1.0729
75454SOL     OW43971  12.363   6.590   2.372 -1.3783 -0.2457  0.1797
75454SOL    HW143972  12.332   6.671   2.331 -1.1042 -0.1760  0.1124
75454SOL    HW243973  12.445   6.570   2.328 -0.4524  0.4801  1.4858
75455SOL     OW43974   3.246   8.937   2.817  0.5216  0.0137 -0.0995
75455SOL    HW143975   3.335   8.971   2.812 -0.1970  1.8719 -1.4026
75455SOL    HW243976   3.246   8.863   2.756  1.1643 -0.0134 -0.0758
75456SOL     OW43977   5.578   2.768  11.700  0.2251 -0.4741  0.1111
75456SOL    HW143978   5.539   2.841  11.749 -0.3407 -0.3455 -0.5248
75456SOL    HW243979   5.667   2.761  11.735  0.9581  1.7650 -1.1262
75457SOL     OW43980   2.201  12.229   2.739  0.4334 -0.2675 -0.5975
75457SOL    HW143981   2.197  12.274   2.823 -1.8615 -0.3035 -0.6309
75457SOL    HW243982   2.184  12.137   2.760  0.8391 -0.4478 -1.0169
75458SOL     OW43983  11.718   2.763   7.984  0.2752 -0.3381 -0.2104
75458SOL    HW143984  11.798   2.810   7.960  0.2031 -0.0834  0.0392
75458SOL    HW243985  11.728   2.677   7.943  0.7336 -0.3509 -0.0867
75459SOL     OW43986   1.537   6.458   1.030  0.5900  0.2968 -0.1670
75459SOL    HW143987   1.620   6.473   1.076  0.5249  0.4930 -0.1121
75459SOL    HW243988   1.558   6.477   0.938 -0.0247  2.9708  0.1630
75460SOL     OW43989  12.087   0.855  10.083 -0.0591  0.1349  0.1447
75460SOL    HW143990  12.029   0.912  10.134  0.2329  1.1783 -0.6380
75460SOL    HW243991  12.132   0.915  10.023  2.0361 -0.6101  0.8973
75461SOL     OW43992  12.680   7.169  12.035  0.0952  0.1006  0.3716
75461SOL    HW143993  12.757   7.197  12.085 -0.4268 -0.5337  1.5949
75461SOL    HW243994  12.616   7.239  12.049  0.6016  0.8740 -1.0663
75462SOL     OW43995  10.023   2.730   2.600 -0.6488 -0.0396 -0.3048
75462SOL    HW143996   9.994   2.782   2.525 -0.3777 -0.3256 -0.6089
75462SOL    HW243997  10.109   2.696   2.575 -0.0522  0.7598  0.5710
75463SOL     OW43998  12.830  10.859   0.891 -0.1013 -0.3690  0.0804
75463SOL    HW143999  12.758  10.796   0.889 -0.8529  0.4420 -1.8604
75463SOL    HW244000  12.850  10.874   0.798  0.6855  1.5024  0.5099
75464SOL     OW44001   1.099   0.114   4.064 -0.3588  0.5241 -0.6050
75464SOL    HW144002   1.093   0.062   4.144 -1.2834  1.7499  0.1770
75464SOL    HW244003   1.112   0.204   4.096  1.9072  0.7478 -1.9069
75465SOL     OW44004   9.252   2.753   3.872 -0.2356 -1.1258 -0.1437
75465SOL    HW144005   9.277   2.746   3.964  0.8116  0.1731 -0.2867
75465SOL    HW244006   9.328   2.720   3.824  1.4657  2.8946 -0.5916
75466SOL     OW44007   8.014   5.905   8.596  0.0968 -0.9308  1.0134
75466SOL    HW144008   8.034   5.940   8.683  1.0136  0.0833  0.4092
75466SOL    HW244009   8.072   5.952   8.537  0.7615 -2.8451  0.0398
75467SOL     OW44010   7.881  13.855  14.084 -0.2444  0.1428 -0.1659
75467SOL    HW144011   7.963  13.901  14.104  0.6956 -0.6905 -1.8333
75467SOL    HW244012   7.906  13.762  14.081 -1.6029 -0.2948  0.8023
75468SOL     OW44013   6.296   2.081  10.608  0.7049  0.0389  0.3135
75468SOL    HW144014   6.360   2.077  10.679 -0.7649  0.3743  1.7184
75468SOL    HW244015   6.341   2.128  10.538  2.5960 -1.3206  0.5438
75469SOL     OW44016   3.144   5.639  12.338  0.3999 -0.1899  0.0712
75469SOL    HW144017   3.066   5.663  12.288 -0.6690 -0.0801  1.7350
75469SOL    HW244018   3.187   5.722  12.357  0.0748 -0.1117  0.4783
75470SOL     OW44019  14.086   9.941  11.042  0.0217  0.0077 -0.8224
75470SOL    HW144020  14.162   9.922  10.989 -0.0098  0.5644 -1.0774
75470SOL    HW244021  14.086   9.874  11.111  0.5209 -0.2181 -1.0439
75471SOL     OW44022  11.077  10.989   6.113 -0.4113  0.1971  0.2893
75471SOL    HW144023  11.086  11.055   6.182 -0.2091  1.1374 -0.6112
75471SOL    HW244024  10.982  10.979   6.102 -0.4548  0.8677 -0.0404
75472SOL     OW44025   3.332   5.676  14.088 -0.3786  0.0967  0.1816
75472SOL    HW144026   3.308   5.701  13.999 -2.6469 -0.3429  0.6127
75472SOL    HW244027   3.364   5.758  14.127  2.2611 -0.0367 -1.4380
75473SOL     OW44028   3.294  12.222  13.011 -0.2093 -0.6852 -0.2921
75473SOL    HW144029   3.389  12.209  13.014 -0.2397 -1.0082 -0.6607
75473SOL    HW244030   3.282  12.298  12.954 -0.1069  0.1732  0.7923
75474SOL     OW44031   6.578   1.979   7.006 -0.0560  0.1643 -0.1804
75474SOL    HW144032   6.592   1.999   7.099  0.3366  0.4711 -0.3035
75474SOL    HW244033   6.517   1.906   7.006  0.8359 -0.6002  0.3483
75475SOL     OW44034   6.780   4.537  13.602  0.4073 -0.3507 -0.4708
75475SOL    HW144035   6.852   4.595  13.625  0.8230 -0.6385 -1.0093
75475SOL    HW244036   6.718   4.545  13.674  1.6455 -1.2058  0.7344
75476SOL     OW44037   1.110  13.203   6.702  0.3494  0.0292  0.9118
75476SOL    HW144038   1.195  13.189   6.742 -0.3697 -1.4501  2.0282
75476SOL    HW244039   1.103  13.135   6.634 -0.2100 -0.3310  1.3166
75477SOL     OW44040   3.675  12.009   2.212  0.4805  0.3224 -0.4052
75477SOL    HW144041   3.604  12.071   2.199  1.5320  1.3101 -1.6775
75477SOL    HW244042   3.697  11.979   2.124  0.8038 -0.9562  0.0855
75478SOL     OW44043   3.415   7.550  13.576 -0.3286 -0.0479 -0.4608
75478SOL    HW144044   3.397   7.635  13.536  0.9589  0.3641 -0.2098
75478SOL    HW244045   3.510   7.539  13.567 -0.1981 -0.5666  1.2717
75479SOL     OW44046   8.948   9.738  11.945  0.2944  0.4062 -0.5340
75479SOL    HW144047   9.026   9.753  11.999  1.5725 -0.7251 -1.9751
75479SOL    HW244048   8.886   9.696  12.004  0.4253  2.0505  0.8567
75480SOL     OW44049  10.715   1.588  13.120  0.8116  0.1135  0.0092
75480SOL    HW144050  10.755   1.502  13.112 -1.1407 -0.6845 -2.9703
75480SOL    HW244051  10.682   1.592  13.209 -0.1383 -2.8001 -0.1009
75481SOL     OW44052   9.122   3.830   9.374  0.1198 -0.4274 -0.0999
75481SOL    HW144053   9.033   3.810   9.404 -0.5387  1.0140 -1.0381
75481SOL    HW244054   9.153   3.747   9.337 -0.4957 -1.1804  0.9959
75482SOL     OW44055   2.832   7.114   9.083  0.2599  0.1227  0.0160
75482SOL    HW144056   2.848   7.078   9.170  2.4928  1.8470  0.3999
75482SOL    HW244057   2.901   7.077   9.028  2.3026  3.1404  0.3049
75483SOL     OW44058  10.616   3.815   9.654  0.4976  0.5374  0.0750
75483SOL    HW144059  10.589   3.798   9.744 -0.3354  0.2090 -0.2224
75483SOL    HW244060  10.536   3.847   9.611  1.3038  2.4462 -0.1118
75484SOL     OW44061  11.930   9.140  12.877 -0.3153  0.3505  0.0122
75484SOL    HW144062  11.887   9.116  12.959 -1.6379  1.2474 -0.4013
75484SOL    HW244063  11.861   9.177  12.823  0.7464  0.7366 -1.1280
75485SOL     OW44064  12.384  12.133   5.029  0.3285 -0.0277 -0.2290
75485SOL    HW144065  12.463  12.086   5.003 -0.6397 -1.4992 -0.6168
75485SOL    HW244066  12.358  12.182   4.951 -0.1550 -0.9965 -0.6843
75486SOL     OW44067  13.673   7.027   8.933  0.4619 -0.0925  0.4773
75486SOL    HW144068  13.709   7.112   8.959  0.8394  0.4842 -1.6948
75486SOL    HW244069  13.741   6.964   8.953  0.6854  0.3008  0.9585
75487SOL     OW44070   3.575   0.140   8.579  0.3717 -0.0126 -0.1187
75487SOL    HW144071   3.608   0.204   8.642 -0.3638  0.3853 -0.1331
75487SOL    HW244072   3.634   0.065   8.589  0.2831  0.0475  1.0364
75488SOL     OW44073   2.212  11.122  10.508  0.7745 -0.6322 -0.3070
75488SOL    HW144074   2.302  11.144  10.529  0.7744 -1.4368  0.5650
75488SOL    HW244075   2.201  11.031  10.537 -1.0669  0.2546  2.1009
75489SOL     OW44076  12.042   3.612  12.322  0.1570 -0.0005  0.4976
75489SOL    HW144077  12.086   3.554  12.261 -0.2394  0.6412 -0.4236
75489SOL    HW244078  11.968   3.561  12.356 -0.1270 -0.0838 -0.2251
75490SOL     OW44079  13.938  11.282   7.551  0.1365 -0.0431  0.2428
75490SOL    HW144080  13.965  11.192   7.567 -2.3783 -1.5479 -2.8468
75490SOL    HW244081  13.849  11.287   7.585 -0.7349  0.3605 -1.9220
75491SOL     OW44082  11.865   8.404   0.568 -0.1338 -0.1477  0.1034
75491SOL    HW144083  11.890   8.365   0.484 -0.4559  2.1903 -1.1901
75491SOL    HW244084  11.812   8.480   0.543  1.3304  1.7373  2.3492
75492SOL     OW44085  13.027   4.447   3.685  0.0138  0.0669 -0.4120
75492SOL    HW144086  12.965   4.498   3.738 -1.4778 -0.3257 -1.7108
75492SOL    HW244087  13.000   4.356   3.700 -0.3797 -0.0497 -1.7522
75493SOL     OW44088  12.118  10.347   7.139 -0.8002  0.2014  0.5849
75493SOL    HW144089  12.068  10.419   7.102  0.8272  1.8528  1.4563
75493SOL    HW244090  12.207  10.381   7.149  0.0173 -1.9008  1.1168
75494SOL     OW44091   9.320  11.351   3.233 -0.5896 -0.4234  0.1111
75494SOL    HW144092   9.336  11.335   3.140  1.8178 -2.1503  0.7096
75494SOL    HW244093   9.323  11.446   3.241  4.1987 -0.2000 -1.0029
75495SOL     OW44094   7.251   6.029   5.216 -0.0781 -0.0438  0.2287
75495SOL    HW144095   7.198   5.959   5.253 -0.8593 -0.8747 -2.2072
75495SOL    HW244096   7.339   5.991   5.208 -0.0936 -0.1334  0.4740
75496SOL     OW44097   5.877   4.301  12.366  0.2137  0.5232  0.2917
75496SOL    HW144098   5.891   4.223  12.420  0.5379 -0.2756 -0.8912
75496SOL    HW244099   5.940   4.365  12.399 -0.3981  0.4579  1.6026
75497SOL     OW44100   1.373   6.984   8.692 -0.1633 -0.2396  0.6996
75497SOL    HW144101   1.453   7.032   8.713  0.4104 -0.6812 -0.3929
75497SOL    HW244102   1.390   6.895   8.723  0.4746 -0.7597 -1.0445
75498SOL     OW44103  12.344   3.782  11.925  0.4280  0.0487  0.1758
75498SOL    HW144104  12.355   3.877  11.919 -2.6581  0.5208  0.4149
75498SOL    HW244105  12.281   3.761  11.857  0.4144 -1.7127  0.6920
75499SOL     OW44106   8.749  13.745   0.403  0.1532  0.7164  0.7714
75499SOL    HW144107   8.833  13.762   0.445  0.5155  1.2733 -0.1396
75499SOL    HW244108   8.693  13.818   0.428  0.6636  1.5565 -0.4356
75500SOL     OW44109   1.836   0.000  12.233  0.4102 -0.0111 -0.0311
75500SOL    HW144110   1.777  -0.068  12.264 -0.4004  0.9047  0.4600
75500SOL    HW244111   1.786   0.048  12.167  0.6521  0.6606  0.2626
75501SOL     OW44112  12.298  11.281  12.097 -0.0266 -0.2775  0.0269
75501SOL    HW144113  12.264  11.299  12.009 -0.1003  2.0557  0.4554
75501SOL    HW244114  12.223  11.293  12.155 -0.2718 -2.9987  0.3685
75502SOL     OW44115   8.591   2.509  10.571 -1.0047  0.4785 -0.6816
75502SOL    HW144116   8.612   2.493  10.663  0.2111  0.9166 -0.8632
75502SOL    HW244117   8.521   2.574  10.574  0.4172  2.0471 -0.0637
75503SOL     OW44118   5.214   6.570   4.762 -0.1480  0.0892  0.1398
75503SOL    HW144119   5.211   6.665   4.747 -0.9950 -0.1546 -1.4811
75503SOL    HW244120   5.270   6.537   4.692  1.2281 -0.5200  1.4677
75504SOL     OW44121   6.043   4.074   2.895 -0.1477 -0.2769 -0.9726
75504SOL    HW144122   6.029   3.994   2.947 -0.3145  0.4009  0.0629
75504SOL    HW244123   6.138   4.088   2.900 -0.3069  0.5479  0.3719
75505SOL     OW44124   3.265   5.447   2.419  0.1413  0.3269  0.5513
75505SOL    HW144125   3.359   5.450   2.402 -0.2121  2.0772 -1.5367
75505SOL    HW244126   3.250   5.512   2.487  0.4571 -0.3379  1.2838
75506SOL     OW44127   9.636  13.833  10.603  0.1011  0.3188 -0.0603
75506SOL    HW144128   9.674  13.908  10.558 -1.7753  2.2200  1.3229
75506SOL    HW244129   9.544  13.855  10.614 -0.0025 -1.0144  2.6473
75507SOL     OW44130  11.889  10.557  11.228 -0.2001  0.1095  0.0189
75507SOL    HW144131  11.966  10.606  11.256 -0.3177  0.2609  0.0709
75507SOL    HW244132  11.925  10.476  11.190  0.0337  0.5961 -0.8305
75508SOL     OW44133  11.740   5.184   3.187 -0.3807 -0.4549  0.1793
75508SOL    HW144134  11.645   5.170   3.192 -0.2012 -2.4563 -1.0927
75508SOL    HW244135  11.775   5.142   3.266 -0.5980  1.4129  1.3347
75509SOL     OW44136   7.795   6.652   9.913 -0.1238 -0.3976 -0.8469
75509SOL    HW144137   7.754   6.568   9.936 -1.9075  0.8391  0.8444
75509SOL    HW244138   7.779   6.707   9.990 -0.1985  1.9063 -2.4323
75510SOL     OW44139   1.688   2.544   2.726 -0.1645 -0.4335 -0.1975
75510SOL    HW144140   1.619   2.479   2.710  1.0600 -1.8970  0.2577
75510SOL    HW244141   1.760   2.517   2.669 -0.2113  1.5710 -1.3086
75511SOL     OW44142   6.480   7.332   0.065  0.1864 -0.1931  0.0479
75511SOL    HW144143   6.427   7.378   0.130  0.3571 -1.1771  0.9010
75511SOL    HW244144   6.467   7.382  -0.016 -1.8731 -0.3025  0.2733
75512SOL     OW44145   4.757   3.476   9.697  0.6591 -0.3278  0.1281
75512SOL    HW144146   4.853   3.476   9.696  0.6713  0.9646 -0.6413
75512SOL    HW244147   4.732   3.465   9.605  0.0444 -1.0246  0.3624
75513SOL     OW44148  13.524  11.014   1.550 -0.5633  0.4506  0.0822
75513SOL    HW144149  13.545  11.007   1.643 -0.3762  2.3236  0.2256
75513SOL    HW244150  13.500  10.925   1.524 -0.9029 -0.0696  1.9842
75514SOL     OW44151  12.552   1.484   6.160  0.0301  0.0346  0.3091
75514SOL    HW144152  12.563   1.441   6.244 -1.5751  0.3200  0.7008
75514SOL    HW244153  12.588   1.422   6.096 -0.0185 -0.8033  1.0779
75515SOL     OW44154   1.808   6.531  11.242 -0.2656  0.2172  0.0107
75515SOL    HW144155   1.762   6.467  11.189  2.3906 -1.4223 -0.5222
75515SOL    HW244156   1.778   6.514  11.332 -1.8443  0.3214 -0.4805
75516SOL     OW44157  12.597   2.392   8.764  0.6050  0.2446 -0.6494
75516SOL    HW144158  12.572   2.479   8.733  0.8018  0.2886 -0.6858
75516SOL    HW244159  12.689   2.399   8.786  0.3256  0.3827  0.5516
75517SOL     OW44160   0.253  11.737   7.365 -0.2511  0.8242 -0.3545
75517SOL    HW144161   0.333  11.703   7.325 -0.8761  1.0055 -1.8576
75517SOL    HW244162   0.267  11.832   7.370 -0.5559  0.9264 -1.1491
75518SOL     OW44163   3.053   4.659   6.827  0.6072 -0.1493  1.0481
75518SOL    HW144164   3.008   4.609   6.895  2.9167 -1.3774  1.7848
75518SOL    HW244165   3.061   4.598   6.754  0.7952  0.1666  0.8032
75519SOL     OW44166   3.136   3.012   4.856 -0.2245  0.1927 -0.1023
75519SOL    HW144167   3.083   2.988   4.779 -0.2231 -0.4550  0.0929
75519SOL    HW244168   3.205   2.946   4.858 -0.6891 -0.2768  0.9210
75520SOL     OW44169   7.105  10.978   6.324  0.5554 -0.3042  0.1256
75520SOL    HW144170   7.021  10.997   6.365 -1.0820 -4.2021 -0.9818
75520SOL    HW244171   7.110  11.039   6.251  0.1565  1.9211  1.8512
75521SOL     OW44172   1.139   0.271  11.745 -0.5427 -0.1104  0.3848
75521SOL    HW144173   1.133   0.314  11.660  0.5989 -0.7080 -0.0123
75521SOL    HW244174   1.230   0.283  11.772 -0.7795 -0.3066  1.3318
75522SOL     OW44175  13.367   7.194   4.443 -0.0052 -0.7440  0.5607
75522SOL    HW144176  13.457   7.211   4.414  0.3114  0.3887  2.0892
75522SOL    HW244177  13.324   7.158   4.365  1.6467 -0.9281 -0.3285
75523SOL     OW44178   2.951   7.219  11.183  0.3245 -0.1769 -0.0848
75523SOL    HW144179   2.946   7.311  11.156  0.5198 -0.4227 -0.9969
75523SOL    HW244180   3.038   7.191  11.155 -0.3902 -1.1281 -1.5023
75524SOL     OW44181   3.571  10.230   1.696 -0.1586  0.0768 -0.2116
75524SOL    HW144182   3.556  10.308   1.750 -1.0237 -0.1323 -0.1288
75524SOL    HW244183   3.585  10.160   1.759  0.4510  0.1311 -0.2844
75525SOL     OW44184   2.622  10.888   5.129  0.3807  0.6321 -0.2137
75525SOL    HW144185   2.577  10.970   5.149  1.6341  1.7615 -1.7461
75525SOL    HW244186   2.572  10.851   5.056 -0.9633 -0.7196  1.2897
75526SOL     OW44187   1.108  12.589   3.520  0.1748  0.3775  0.6777
75526SOL    HW144188   1.179  12.578   3.457  1.5653 -1.0246  2.3761
75526SOL    HW244189   1.129  12.670   3.565 -0.9756  1.5338 -0.7744
75527SOL     OW44190   0.061  11.070   2.960 -0.1200  0.1788 -0.3447
75527SOL    HW144191   0.140  11.124   2.951 -0.7086  0.9349 -1.1946
75527SOL    HW244192   0.090  10.981   2.942  0.4506  0.5167 -1.1608
75528SOL     OW44193  12.129  12.289   5.939  0.2154 -0.3196  0.2634
75528SOL    HW144194  12.209  12.238   5.924 -0.6138 -1.8364  0.8168
75528SOL    HW244195  12.096  12.309   5.851  0.9388 -0.0804  0.0395
75529SOL     OW44196   6.500   8.888  13.791 -0.2791  0.3879 -0.0258
75529SOL    HW144197   6.408   8.908  13.776 -0.3907  1.1103  1.4369
75529SOL    HW244198   6.500   8.796  13.819 -0.3895 -0.0082 -1.2531
75530SOL     OW44199   3.160  11.494   0.843  0.3593  0.5281  0.1119
75530SOL    HW144200   3.171  11.471   0.751 -0.9158 -0.8195  0.2702
75530SOL    HW244201   3.187  11.416   0.891  0.3221  0.9646  0.8531
75531SOL     OW44202  10.870  13.998   6.549 -0.9328  0.7261 -1.0169
75531SOL    HW144203  10.949  13.944   6.558  0.0885  2.0565 -1.6359
75531SOL    HW244204  10.840  14.012   6.638 -1.2189 -0.8364 -0.8426
75532SOL     OW44205   4.015   3.504   7.725  0.2284 -0.0741 -0.2194
75532SOL    HW144206   4.009   3.482   7.818  1.2844  1.4444  0.2391
75532SOL    HW244207   3.928   3.537   7.703 -0.0880 -0.6325  0.1604
75533SOL     OW44208   4.818   9.152   8.025 -0.1090 -0.0719  0.3072
75533SOL    HW144209   4.838   9.080   7.965  2.1430 -1.8184  2.8784
75533SOL    HW244210   4.868   9.226   7.991 -0.2641 -0.4989 -0.8950
75534SOL     OW44211   1.990   0.382   8.859 -0.2167  0.3092  0.4027
75534SOL    HW144212   2.022   0.385   8.768 -0.0361  1.3249  0.4902
75534SOL    HW244213   1.897   0.360   8.851 -0.2967  0.7926 -0.0601
75535SOL     OW44214  13.871   9.716  10.607  0.1634 -0.8314 -0.6702
75535SOL    HW144215  13.796   9.666  10.639 -0.9830  0.5907 -1.0716
75535SOL    HW244216  13.917   9.743  10.686  0.7754 -2.4090 -0.4388
75536SOL     OW44217   8.567   0.239   8.591 -0.4607 -0.1279  0.2512
75536SOL    HW144218   8.471   0.241   8.583 -0.4593 -0.8767 -0.0443
75536SOL    HW244219   8.597   0.230   8.501 -0.0674  0.9287  0.2559
75537SOL     OW44220   3.544   1.468   6.994  0.1608 -0.0772 -0.1237
75537SOL    HW144221   3.542   1.564   7.003 -2.1102  0.1048 -1.6115
75537SOL    HW244222   3.632   1.449   6.964  0.9806  1.4236  1.1649
75538SOL     OW44223  11.934   6.987   2.771  0.0818  0.8359  0.0347
75538SOL    HW144224  11.962   7.004   2.681 -0.7854 -1.1859 -0.6659
75538SOL    HW244225  11.979   6.906   2.796 -1.1175  0.3536  0.7318
75539SOL     OW44226   2.297   2.879   5.057  0.4616  0.4290  0.2180
75539SOL    HW144227   2.327   2.800   5.011 -0.6560 -1.2553  2.2044
75539SOL    HW244228   2.207   2.891   5.028  0.3613  0.4619  0.5408
75540SOL     OW44229  11.272  13.908   9.371  0.1557  0.1266  0.4154
75540SOL    HW144230  11.342  13.950   9.422  0.8901 -0.6584  0.0695
75540SOL    HW244231  11.290  13.814   9.378  0.9105  0.0110 -2.1216
75541SOL     OW44232  10.478   9.265   1.333  0.1257 -0.0990  0.1622
75541SOL    HW144233  10.539   9.224   1.393  0.3779  0.0811  0.0301
75541SOL    HW244234  10.505   9.235   1.246 -0.1040 -0.1887  0.1200
75542SOL     OW44235  11.420  12.108   1.715 -0.2519 -0.1904  0.4946
75542SOL    HW144236  11.501  12.111   1.663 -0.3185 -1.0923  0.3228
75542SOL    HW244237  11.428  12.182   1.776  1.2891 -0.9893  1.3316
75543SOL     OW44238   7.056   7.663   3.902 -0.2261  0.2751 -0.1016
75543SOL    HW144239   7.002   7.627   3.832 -0.7990  1.2030 -0.1559
75543SOL    HW244240   7.024   7.752   3.913 -0.2134  0.1182  1.4149
75544SOL     OW44241   9.252   1.318   9.004  0.3917  0.1779  0.0488
75544SOL    HW144242   9.320   1.369   8.960  0.1925 -0.1801 -0.6884
75544SOL    HW244243   9.238   1.364   9.087 -0.3960  1.8421 -0.9421
75545SOL     OW44244  12.381   3.072   6.690  0.0908 -0.2408  0.1245
75545SOL    HW144245  12.322   3.141   6.718 -0.8166 -1.2238  0.6829
75545SOL    HW244246  12.442   3.116   6.630 -1.0877  0.8294 -0.3345
75546SOL     OW44247   3.254  10.459   1.477  0.2164 -0.3599  0.0750
75546SOL    HW144248   3.231  10.440   1.386  1.1832 -0.3483 -0.1775
75546SOL    HW244249   3.349  10.456   1.479  0.2676  1.0904  0.7776
75547SOL     OW44250   5.055   7.770   0.331 -0.1319 -0.0679 -0.1834
75547SOL    HW144251   5.053   7.715   0.253  0.3424 -0.7853  0.3010
75547SOL    HW244252   5.148   7.787   0.346  0.0734 -2.4023  1.8926
75548SOL     OW44253   6.820  13.876   6.785  0.5813 -0.0175  0.3520
75548SOL    HW144254   6.857  13.929   6.715  1.0166 -0.6994  0.0613
75548SOL    HW244255   6.886  13.810   6.803 -0.3321 -1.0267  0.0798
75549SOL     OW44256   7.307   0.415   5.105 -0.2037  0.0478 -0.0614
75549SOL    HW144257   7.350   0.455   5.029  0.8345 -1.4097 -0.2706
75549SOL    HW244258   7.367   0.431   5.178 -0.8989  0.8831  0.3525
75550SOL     OW44259   3.842   1.285   2.131  0.6465 -0.0434  0.1757
75550SOL    HW144260   3.816   1.310   2.042 -0.6735 -0.5653  0.3978
75550SOL    HW244261   3.932   1.253   2.121  1.0908  1.3631 -0.6924
75551SOL     OW44262  12.690  12.591   4.535  0.1660  0.1237  0.4554
75551SOL    HW144263  12.635  12.625   4.606  0.0756  1.1427 -0.0769
75551SOL    HW244264  12.727  12.670   4.494 -0.5622 -0.3724 -1.2510
75552SOL     OW44265  11.714   5.533   0.042 -0.4379  0.0325 -0.0031
75552SOL    HW144266  11.747   5.583  -0.032  0.3761  0.9224  0.9201
75552SOL    HW244267  11.764   5.452   0.040 -1.3064 -0.4977 -1.1338
75553SOL     OW44268   0.557   0.441   1.947  0.1377 -0.8980 -0.1204
75553SOL    HW144269   0.463   0.431   1.955 -0.1533  2.2699  2.2032
75553SOL    HW244270   0.594   0.392   2.020  0.3107 -1.7338 -0.7479
75554SOL     OW44271   9.538  10.229   6.213  0.2404  0.3331 -0.3423
75554SOL    HW144272   9.496  10.148   6.183 -0.3146 -0.1428  1.5874
75554SOL    HW244273   9.466  10.290   6.228  0.4512  0.4257  0.3551
75555SOL     OW44274   1.997   9.302   1.675 -0.0434 -0.1418 -0.3017
75555SOL    HW144275   2.004   9.379   1.619  0.2057 -0.3294 -0.5306
75555SOL    HW244276   2.088   9.278   1.695 -0.0831 -0.9808 -1.0715
75556SOL     OW44277   2.226   2.785   1.360 -0.6273  0.1632  0.0298
75556SOL    HW144278   2.240   2.836   1.440 -0.8002  0.3887 -0.0848
75556SOL    HW244279   2.261   2.698   1.382  1.3777  0.8111 -0.3846
75557SOL     OW44280   1.661  13.709   2.944 -0.7166 -0.3889 -0.1120
75557SOL    HW144281   1.681  13.663   3.026 -0.2963  1.5841  0.9601
75557SOL    HW244282   1.571  13.686   2.925 -1.5498  0.7058  2.1007
75558SOL     OW44283  10.526  10.944   2.871  0.3946 -0.1573 -0.0107
75558SOL    HW144284  10.495  11.009   2.807 -0.8547 -0.3318  0.4051
75558SOL    HW244285  10.504  10.981   2.956  0.1895 -0.8634  0.2499
75559SOL     OW44286   6.251   4.871   1.787  0.4855 -0.0192 -0.1023
75559SOL    HW144287   6.212   4.783   1.790 -1.9095  0.9727  0.2506
75559SOL    HW244288   6.299   4.874   1.704  0.1284 -1.4625 -0.3825
75560SOL     OW44289  12.859   1.304  11.422  0.3178  0.2189 -0.3707
75560SOL    HW144290  12.878   1.398  11.423  2.5005 -0.1313 -1.8815
75560SOL    HW244291  12.924   1.267  11.482  1.0854 -0.5276 -1.6230
75561SOL     OW44292   2.994   2.347  10.271  0.1481 -0.5705 -0.9720
75561SOL    HW144293   3.032   2.260  10.280  0.4952 -0.3953 -0.7235
75561SOL    HW244294   2.940   2.358  10.349 -0.6603 -0.9313 -1.4607
75562SOL     OW44295   6.386   3.395   6.039  0.3063 -0.2082 -0.1472
75562SOL    HW144296   6.446   3.334   5.997 -0.3166  0.3448 -1.9060
75562SOL    HW244297   6.299   3.370   6.007 -0.3634 -0.4541  1.6930
75563SOL     OW44298   1.712   3.017  10.748  0.6172 -0.3711  1.0123
75563SOL    HW144299   1.726   2.925  10.770 -0.6935 -0.5902  0.9814
75563SOL    HW244300   1.735   3.065  10.828 -1.0979 -0.9267  1.8720
75564SOL     OW44301  11.953  10.892   4.640  0.2713  0.2723  0.1176
75564SOL    HW144302  11.859  10.884   4.626  0.3174 -1.1307  0.4722
75564SOL    HW244303  11.993  10.850   4.564  0.5717 -1.2847  1.1029
75565SOL     OW44304   1.858   6.048   8.594  0.5557  0.0806  0.4057
75565SOL    HW144305   1.894   6.092   8.517 -1.2841  0.4152 -0.3299
75565SOL    HW244306   1.861   6.114   8.663 -0.7676  0.9296 -0.2864
75566SOL     OW44307   3.700  10.858   6.596 -0.5340 -0.0078 -0.1542
75566SOL    HW144308   3.749  10.924   6.646 -0.6932  0.4589 -0.6057
75566SOL    HW244309   3.750  10.777   6.608 -2.0257 -0.6111  3.0587
75567SOL     OW44310  10.951   5.134  13.661 -0.3605 -0.2356 -0.6473
75567SOL    HW144311  11.008   5.186  13.604 -0.7493  1.4727  0.4682
75567SOL    HW244312  10.862   5.159  13.635 -0.5506  1.2323  1.2150
75568SOL     OW44313  13.322   1.968   0.850 -0.1275 -0.0453  0.5399
75568SOL    HW144314  13.341   1.954   0.758  1.9113  0.1472  0.8995
75568SOL    HW244315  13.304   2.061   0.858 -2.4245 -0.3735  0.0440
75569SOL     OW44316   6.214   2.554   8.704  0.2535  0.1675  0.1172
75569SOL    HW144317   6.288   2.512   8.660  0.3174 -1.2764  1.5084
75569SOL    HW244318   6.239   2.555   8.797 -1.2918  0.0321  0.5614
75570SOL     OW44319   2.232   0.190  12.648  0.4908 -0.0641  0.7502
75570SOL    HW144320   2.307   0.216  12.702  0.5372  0.2693  0.5341
75570SOL    HW244321   2.266   0.189  12.559 -0.2114  2.0845  0.3777
75571SOL     OW44322   1.107   2.527   2.446 -0.1370  0.1490  0.5501
75571SOL    HW144323   1.011   2.522   2.452 -0.2525 -1.7059 -1.3942
75571SOL    HW244324   1.138   2.496   2.531 -1.1768  2.5944  1.9324
75572SOL     OW44325   4.644   1.209  14.058 -0.7684  0.1032  0.7639
75572SOL    HW144326   4.575   1.242  14.001 -0.9438 -1.3776  0.0761
75572SOL    HW244327   4.720   1.197  14.000 -0.2442  0.6808  1.3011
75573SOL     OW44328   6.744  10.577   0.477  0.4079 -0.3848 -0.4525
75573SOL    HW144329   6.804  10.510   0.510 -1.1869 -0.5716  2.4222
75573SOL    HW244330   6.658  10.546   0.505 -0.5789  1.8626 -0.8641
75574SOL     OW44331   5.422  12.455   5.111 -0.0118  0.3144  0.3803
75574SOL    HW144332   5.517  12.456   5.122 -0.1132  1.3037  1.3357
75574SOL    HW244333   5.387  12.443   5.200 -0.7853 -1.1330 -0.0780
75575SOL     OW44334  10.494   1.617   2.180  0.2598 -0.2489 -0.7938
75575SOL    HW144335  10.475   1.541   2.235  1.8226  0.4029  0.7311
75575SOL    HW244336  10.581   1.599   2.143  0.5669  0.6997 -0.5597
75576SOL     OW44337  11.924   9.220  12.344  0.1837 -0.0665  0.2260
75576SOL    HW144338  11.945   9.174  12.425 -1.0199 -0.2686  0.4310
75576SOL    HW244339  11.979   9.299  12.347 -0.6371  0.4842  1.7671
75577SOL     OW44340  12.978   5.678   0.318  0.4270  0.3566  0.5497
75577SOL    HW144341  12.926   5.759   0.324 -1.0422 -0.5532  0.8066
75577SOL    HW244342  12.938   5.630   0.245  0.1193 -0.8908  1.5039
75578SOL     OW44343   2.021   6.075  10.138 -0.0463  0.1564  0.5249
75578SOL    HW144344   1.971   6.140  10.188  1.6318  0.0363  2.4622
75578SOL    HW244345   2.034   6.002  10.199 -0.4339 -1.3140 -1.0644
75579SOL     OW44346  10.324   1.070   4.431 -0.2256  0.3895  0.6628
75579SOL    HW144347  10.261   1.002   4.409 -0.0750  0.7748 -1.1510
75579SOL    HW244348  10.330   1.124   4.352  2.3170  0.4072  0.7617
75580SOL     OW44349  13.100   3.939   4.533 -0.1311  0.4714  0.7113
75580SOL    HW144350  13.136   3.853   4.559  1.3053  0.6755 -0.4650
75580SOL    HW244351  13.175   3.998   4.539 -1.4296  2.0278  2.9804
75581SOL     OW44352   6.464  13.593  11.824  0.4271  0.2923  0.0648
75581SOL    HW144353   6.473  13.562  11.914  1.2771  1.0135  0.2494
75581SOL    HW244354   6.542  13.558  11.780  0.1835  0.2201 -0.3114
75582SOL     OW44355   4.066   4.323  10.157 -0.1106 -0.4084 -0.1010
75582SOL    HW144356   3.987   4.270  10.148  0.1175 -0.6484 -0.6964
75582SOL    HW244357   4.128   4.285  10.095  0.1371  0.4023 -0.3554
75583SOL     OW44358   8.782   0.839  11.068  0.3492 -0.2649 -0.0010
75583SOL    HW144359   8.704   0.842  11.124  0.1246 -2.2269 -0.1349
75583SOL    HW244360   8.817   0.928  11.071  0.3203 -0.2453  3.2205
75584SOL     OW44361   6.750   9.832  13.054 -0.5261  0.0061  0.1599
75584SOL    HW144362   6.817   9.878  13.106 -0.3100  0.4176 -0.4593
75584SOL    HW244363   6.724   9.758  13.108  1.9755 -1.4144 -0.4263
75585SOL     OW44364  11.295   8.287   2.368  0.4028 -0.5514 -0.1503
75585SOL    HW144365  11.374   8.233   2.357 -0.6418 -1.9015 -1.3359
75585SOL    HW244366  11.283   8.293   2.463  2.8504  1.1156  0.1590
75586SOL     OW44367   2.076  12.410   8.603  0.3161 -0.0182  0.0495
75586SOL    HW144368   2.076  12.385   8.511  0.6743 -0.1077  0.0727
75586SOL    HW244369   2.158  12.376   8.638  1.1880  1.8236 -0.1043
75587SOL     OW44370   4.376   9.099   1.368  0.2274  0.3330 -0.3760
75587SOL    HW144371   4.410   9.019   1.407  0.9309  1.5430  1.7212
75587SOL    HW244372   4.359   9.077   1.277  1.0919 -1.9644 -0.0485
75588SOL     OW44373   3.444   2.393   9.818  1.2576  0.1939  0.2975
75588SOL    HW144374   3.437   2.301   9.791  1.7101  0.5262 -0.9959
75588SOL    HW244375   3.354   2.419   9.838  0.9577 -0.1906 -0.5141
75589SOL     OW44376   7.221  13.808  10.309  0.6783 -0.1304 -0.7367
75589SOL    HW144377   7.244  13.894  10.276 -0.5261  0.0664 -1.1178
75589SOL    HW244378   7.226  13.750  10.233 -1.2161  0.1547 -1.1375
75590SOL     OW44379   1.672   4.667   8.377 -0.0419  0.0630 -0.4094
75590SOL    HW144380   1.584   4.706   8.379 -0.3583 -0.6525 -0.1345
75590SOL    HW244381   1.707   4.693   8.292 -1.1111 -0.9240 -1.1795
75591SOL     OW44382   1.721   0.548   4.074  0.0146  0.4505 -0.3809
75591SOL    HW144383   1.666   0.578   4.146  1.6971  0.7503  0.8261
75591SOL    HW244384   1.809   0.547   4.109  0.6929 -0.9558 -1.9681
75592SOL     OW44385   9.619   8.092  13.665  0.1691 -0.6454  0.1700
75592SOL    HW144386   9.589   8.183  13.662 -1.1160 -1.0702 -1.8102
75592SOL    HW244387   9.713   8.098  13.678  0.0608  0.9574  0.4298
75593SOL     OW44388   4.023   2.306  12.563  0.2682 -0.5394  0.5660
75593SOL    HW144389   4.017   2.297  12.658  0.2372  2.0531  0.8770
75593SOL    HW244390   3.932   2.311  12.534  0.0451 -4.8235 -0.1633
75594SOL     OW44391   1.177   2.848   9.583 -0.3595  0.1203 -0.1090
75594SOL    HW144392   1.107   2.783   9.580 -1.3582  1.1695 -2.4970
75594SOL    HW244393   1.132   2.931   9.596  0.5200  0.6942 -0.6374
75595SOL     OW44394  12.283   2.158  10.549 -0.1102 -0.3688 -0.1520
75595SOL    HW144395  12.213   2.168  10.486  1.0970  0.1754 -1.4465
75595SOL    HW244396  12.298   2.246  10.584  1.1627 -0.1206 -1.2689
75596SOL     OW44397   5.745   3.553  10.625  0.2824  0.3783  0.3804
75596SOL    HW144398   5.718   3.645  10.628  0.0096  0.3749 -0.9396
75596SOL    HW244399   5.696   3.517  10.551  0.2301 -0.8881  1.0017
75597SOL     OW44400   5.530  12.551   0.691  0.2589  0.0065 -1.1621
75597SOL    HW144401   5.450  12.586   0.730  1.1476 -0.5858  1.3926
75597SOL    HW244402   5.568  12.624   0.643 -0.6719  0.9473 -0.4968
75598SOL     OW44403   8.398   8.026   5.047 -0.0281 -0.4215  0.1969
75598SOL    HW144404   8.329   8.074   5.002  0.2306 -1.0809 -0.9515
75598SOL    HW244405   8.479   8.058   5.007  0.2172 -0.8628  0.3375
75599SOL     OW44406   1.713   8.812  11.595  0.2441  0.4236  0.2639
75599SOL    HW144407   1.682   8.827  11.684  0.2991 -0.2774  0.4018
75599SOL    HW244408   1.704   8.898  11.552  0.8510  0.9386  1.1297
75600SOL     OW44409   5.628   2.361  11.092 -0.3046 -0.0580  0.1592
75600SOL    HW144410   5.561   2.416  11.133 -2.0840 -0.6319 -1.8099
75600SOL    HW244411   5.585   2.323  11.015  2.7105  0.7772 -2.1569
75601SOL     OW44412   1.458  14.080   1.448  0.0225  0.3180 -0.0686
75601SOL    HW144413   1.444  14.138   1.372 -1.6485  1.0239  0.7327
75601SOL    HW244414   1.525  14.018   1.418  0.3512  1.3725 -1.6731
75602SOL     OW44415   9.830   8.687   1.475 -0.3441  0.5202  0.4025
75602SOL    HW144416   9.918   8.717   1.453  0.0964  0.2787  1.7549
75602SOL    HW244417   9.785   8.681   1.390  0.4484  2.1213 -0.1766
75603SOL     OW44418   0.040   2.519   5.541 -0.3360 -0.0888  0.3852
75603SOL    HW144419   0.075   2.577   5.473 -0.5498  0.2098  0.5277
75603SOL    HW244420  -0.022   2.574   5.589  0.8257  0.1277  1.6998
75604SOL     OW44421  12.927   9.225  13.454 -0.4501 -0.2739  0.2054
75604SOL    HW144422  12.910   9.305  13.503 -2.0470 -0.8849  0.7089
75604SOL    HW244423  13.017   9.235  13.422 -0.8473  2.0381 -0.3756
75605SOL     OW44424   4.169   4.815   1.118  0.1199  0.4047  0.1260
75605SOL    HW144425   4.096   4.817   1.057  1.6364  0.6385 -1.7811
75605SOL    HW244426   4.203   4.726   1.112  1.2661  0.8723 -0.6474
75606SOL     OW44427   9.243  11.384   5.080 -0.3550 -0.2020 -0.4227
75606SOL    HW144428   9.316  11.437   5.110  0.5320 -0.5165 -1.9063
75606SOL    HW244429   9.283  11.304   5.047 -1.5469 -1.1849  0.4305
75607SOL     OW44430   5.728   0.912  13.887 -0.0083 -0.2765 -0.2871
75607SOL    HW144431   5.679   0.917  13.968  1.9049  0.4019  0.8999
75607SOL    HW244432   5.744   0.819  13.874  0.0024 -0.3632  0.3201
75608SOL     OW44433   7.526   9.458   4.029 -0.1122 -0.1457  0.5278
75608SOL    HW144434   7.610   9.486   3.994 -1.1285  1.3404 -0.8444
75608SOL    HW244435   7.462   9.489   3.966 -1.6351 -2.4076  0.8398
75609SOL     OW44436   0.960   4.419   5.874  0.2522  0.0659  0.0989
75609SOL    HW144437   0.973   4.511   5.852  1.7596 -0.4321 -1.2382
75609SOL    HW244438   1.027   4.402   5.941  0.9335 -0.4008 -0.6912
75610SOL     OW44439  11.941  13.769   0.442 -0.0595  0.1390 -0.2990
75610SOL    HW144440  12.013  13.707   0.435  1.1305  1.2964  1.1352
75610SOL    HW244441  11.910  13.760   0.532 -0.9405  0.5061 -0.5471
75611SOL     OW44442  10.820  11.861   4.518  0.1423 -0.0900  0.2736
75611SOL    HW144443  10.769  11.813   4.453  0.3266 -0.3713  0.3386
75611SOL    HW244444  10.765  11.936   4.540 -0.5103 -0.7044  0.7850
75612SOL     OW44445   3.612   5.784   8.637 -0.5306 -0.1655  0.2979
75612SOL    HW144446   3.554   5.720   8.677 -1.4923 -0.2412 -1.1638
75612SOL    HW244447   3.555   5.855   8.609  0.0390 -0.2678 -1.2246
75613SOL     OW44448   9.881  10.375   0.769  0.6550  0.3818  0.0536
75613SOL    HW144449   9.801  10.323   0.774  0.6482  0.4035  0.1809
75613SOL    HW244450   9.876  10.434   0.844  1.0830 -0.0444  0.4325
75614SOL     OW44451   4.111  10.654   4.090  0.7118  0.2125  0.1176
75614SOL    HW144452   4.117  10.748   4.106  1.4554  0.0025  1.1158
75614SOL    HW244453   4.022  10.642   4.054  0.2275  1.1515  0.9554
75615SOL     OW44454   4.149   5.978   0.602 -0.4747 -0.0231  0.5032
75615SOL    HW144455   4.072   5.922   0.591 -1.0449  0.4679  1.7722
75615SOL    HW244456   4.223   5.921   0.584 -1.0227 -1.2905  2.0390
75616SOL     OW44457   2.471   3.131  11.869 -0.1807  0.0942 -0.2409
75616SOL    HW144458   2.449   3.122  11.961  0.6061 -1.6356 -0.1828
75616SOL    HW244459   2.398   3.090  11.822 -0.2312  0.3125 -0.3558
75617SOL     OW44460  12.296   5.040   0.524 -0.1157 -0.5648 -0.2935
75617SOL    HW144461  12.351   5.113   0.494 -0.7032  0.2037  0.4383
75617SOL    HW244462  12.347   4.999   0.594  0.2455 -0.9211 -0.7523
75618SOL     OW44463   9.380  11.131   7.238  0.6851 -0.2160  0.0086
75618SOL    HW144464   9.366  11.165   7.149  0.0406 -0.1393  0.1393
75618SOL    HW244465   9.475  11.140   7.251  0.7435  0.0731 -0.5493
75619SOL     OW44466   4.292  13.053  12.261 -0.3935 -0.5233 -0.2995
75619SOL    HW144467   4.375  13.097  12.244  0.1635 -1.3575  0.2317
75619SOL    HW244468   4.229  13.125  12.270  0.6837  0.2480  1.5869
75620SOL     OW44469  10.331   3.897   5.416  0.3272  0.0195  0.0159
75620SOL    HW144470  10.272   3.829   5.448  1.4176 -1.3896 -0.8798
75620SOL    HW244471  10.272   3.965   5.381 -0.7781 -1.1523 -0.4736
75621SOL     OW44472   6.596  11.511   6.639 -0.3347  0.3318  0.7482
75621SOL    HW144473   6.534  11.576   6.672 -0.2651  0.5790  0.3847
75621SOL    HW244474   6.603  11.447   6.710 -0.5880  0.5910  1.0076
75622SOL     OW44475   6.435   4.866  11.405  0.3631 -0.2041  0.2346
75622SOL    HW144476   6.369   4.811  11.362  0.1685  0.9082 -0.9784
75622SOL    HW244477   6.384   4.931  11.453  0.5524  0.3147 -0.2498
75623SOL     OW44478  13.498  13.711   9.461  0.1564 -0.0056  0.0771
75623SOL    HW144479  13.408  13.712   9.495  0.5703  0.2744  1.1918
75623SOL    HW244480  13.497  13.644   9.392 -0.3260 -1.6783  1.6537
75624SOL     OW44481   3.605  10.701   4.725 -0.0189 -0.4576 -0.4728
75624SOL    HW144482   3.655  10.767   4.677  1.6868 -1.2336  0.1932
75624SOL    HW244483   3.614  10.727   4.817 -0.7218 -0.7080 -0.3255
75625SOL     OW44484  13.825   2.813   4.195 -0.2710  0.6829 -0.2996
75625SOL    HW144485  13.752   2.822   4.257 -1.1190  0.6323 -1.2654
75625SOL    HW244486  13.850   2.721   4.200 -0.7850  0.5292 -0.5177
75626SOL     OW44487   9.912   4.197   9.328  0.0542  0.1632 -0.3270
75626SOL    HW144488   9.863   4.278   9.310 -1.2862 -0.3289  0.8886
75626SOL    HW244489   9.974   4.223   9.397  0.9410  0.5772 -1.2545
75627SOL     OW44490  10.607   0.750  11.717 -0.0388  0.3526  0.1461
75627SOL    HW144491  10.699   0.727  11.707  0.1964  0.5386  1.5593
75627SOL    HW244492  10.598   0.834  11.673 -0.0276 -0.5794 -1.7373
75628SOL     OW44493   0.370   1.765  13.382 -0.1955 -0.4886  0.0960
75628SOL    HW144494   0.281   1.796  13.395 -0.2654 -0.9894  0.8832
75628SOL    HW244495   0.362   1.670  13.371  0.3704 -0.7602  1.7857
75629SOL     OW44496   5.429   4.278   2.201 -0.0135 -0.0780  0.1032
75629SOL    HW144497   5.355   4.299   2.144  0.2198  0.0553 -0.1520
75629SOL    HW244498   5.394   4.287   2.290 -0.5111 -0.7712 -0.0210
75630SOL     OW44499  11.794  10.266  13.340  0.2723  0.3063 -0.1233
75630SOL    HW144500  11.720  10.305  13.387  0.7803  0.9254  0.1656
75630SOL    HW244501  11.757  10.188  13.298 -0.5146  0.5399  0.1257
75631SOL     OW44502   2.605  11.146   7.353 -0.7484 -0.2524  0.1115
75631SOL    HW144503   2.555  11.074   7.392  1.7463 -0.5209  3.2660
75631SOL    HW244504   2.571  11.225   7.395  0.9663 -0.3816  1.8461
75632SOL     OW44505   3.916   2.743   0.650  0.1989 -0.6372 -0.2955
75632SOL    HW144506   3.931   2.753   0.556  1.4866 -0.4447 -0.0868
75632SOL    HW244507   3.857   2.815   0.673 -1.4153 -1.6029 -1.2170
75633SOL     OW44508  13.229   6.729   0.299 -0.2921  0.0638 -0.4303
75633SOL    HW144509  13.176   6.699   0.373  0.2080 -2.2581 -0.9487
75633SOL    HW244510  13.165   6.760   0.235 -1.0575 -1.9561 -0.7241
75634SOL     OW44511   7.998   1.647   2.259 -0.5210 -0.1564 -0.1176
75634SOL    HW144512   8.073   1.661   2.202 -1.3850 -0.5663 -1.3868
75634SOL    HW244513   8.034   1.652   2.348  0.9573 -0.1657 -0.6962
75635SOL     OW44514  12.652   3.054  13.509  0.1370  0.3802  0.5420
75635SOL    HW144515  12.672   3.032  13.600 -0.1859 -1.1938  0.2681
75635SOL    HW244516  12.623   3.145  13.512 -1.3089 -0.0659  2.2631
75636SOL     OW44517  12.819   1.896   4.591 -0.2247 -0.1008 -0.2066
75636SOL    HW144518  12.870   1.920   4.514 -1.6704 -0.8017 -1.4135
75636SOL    HW244519  12.872   1.829   4.635  0.0860 -0.5375 -1.2190
75637SOL     OW44520   3.096  12.906   2.272 -0.5320  0.4017  0.0346
75637SOL    HW144521   3.085  12.887   2.179  1.0460 -0.4442 -0.0202
75637SOL    HW244522   3.106  13.001   2.275 -0.7674  0.4560 -0.6407
75638SOL     OW44523   9.019   8.732   5.129  0.1627 -0.0007  0.2834
75638SOL    HW144524   8.989   8.693   5.211 -0.1232  1.4230  0.8692
75638SOL    HW244525   8.947   8.787   5.100  0.4766 -0.0589 -0.6421
75639SOL     OW44526   4.606   9.788   7.023  0.3166  0.0169 -0.0253
75639SOL    HW144527   4.580   9.840   6.947  0.8395  0.7959  0.3208
75639SOL    HW244528   4.574   9.700   7.003 -1.0761  0.5692 -0.3773
75640SOL     OW44529   9.382   0.279   8.751 -0.1309  0.0742 -0.7298
75640SOL    HW144530   9.320   0.259   8.681  0.2189 -2.0134 -0.5092
75640SOL    HW244531   9.450   0.211   8.742  0.0145 -0.1270  1.4885
75641SOL     OW44532   1.808   2.828   8.851 -0.5017  0.4610 -0.2551
75641SOL    HW144533   1.754   2.821   8.929 -0.4882 -0.3351 -0.3085
75641SOL    HW244534   1.877   2.889   8.875 -1.8147  2.0949 -0.4264
75642SOL     OW44535   6.638   7.832   1.464 -0.1173  0.1758  0.3299
75642SOL    HW144536   6.633   7.822   1.369  2.9893 -1.1082  0.2027
75642SOL    HW244537   6.580   7.763   1.499  0.4604 -0.8253 -0.6478
75643SOL     OW44538  13.443  11.123   7.211  0.6154 -0.4624 -0.3698
75643SOL    HW144539  13.533  11.092   7.193  0.2727 -1.1486 -0.9828
75643SOL    HW244540  13.393  11.043   7.223 -0.0994 -0.1120 -0.9631
75644SOL     OW44541  13.766   8.235  10.332 -0.4381  0.0536  0.0983
75644SOL    HW144542  13.827   8.251  10.404 -1.0524  0.6739  0.4923
75644SOL    HW244543  13.796   8.293  10.262  1.3498 -1.9476 -0.9011
75645SOL     OW44544  10.019   2.080   5.882 -0.7242 -0.3341 -0.1463
75645SOL    HW144545  10.111   2.066   5.904 -0.6744  0.5887  0.3024
75645SOL    HW244546  10.021   2.144   5.811 -1.0212 -0.3179 -0.1411
75646SOL     OW44547   4.720   7.742   2.648  0.6059 -0.0880 -0.0013
75646SOL    HW144548   4.733   7.812   2.584 -0.4356  1.1841  1.1244
75646SOL    HW244549   4.786   7.759   2.715  1.3737 -1.1380 -0.4422
75647SOL     OW44550  13.961   6.873  11.821  0.4534 -0.2189  0.3264
75647SOL    HW144551  13.865   6.875  11.817  0.5029  0.6755 -1.0308
75647SOL    HW244552  13.981   6.805  11.887 -1.0960 -0.3255  0.7253
75648SOL     OW44553   0.636  13.328  10.779 -0.1369  0.4876  0.0825
75648SOL    HW144554   0.718  13.282  10.757  1.1795  2.5181  0.4817
75648SOL    HW244555   0.615  13.298  10.867  1.0697  1.0886  0.5994
75649SOL     OW44556   2.941   7.191  12.613 -0.0664 -0.7771 -0.0543
75649SOL    HW144557   3.030   7.225  12.613 -0.3422 -0.0059 -0.3789
75649SOL    HW244558   2.949   7.100  12.587  0.6371 -0.7504  0.0603
75650SOL     OW44559   0.979  10.446   8.288 -0.3727  0.3327  0.1215
75650SOL    HW144560   0.923  10.430   8.364 -0.0598  1.0289  0.5056
75650SOL    HW244561   0.922  10.432   8.212 -0.2639 -2.1689  0.3966
75651SOL     OW44562   1.028   0.724  13.218  0.5090 -0.0038 -0.0551
75651SOL    HW144563   0.997   0.739  13.128  0.9510  1.2174 -0.0132
75651SOL    HW244564   0.949   0.698  13.266 -0.0686  1.0535 -0.4042
75652SOL     OW44565  12.446   1.083   2.244 -0.1656 -0.5402  0.5972
75652SOL    HW144566  12.416   1.008   2.192  0.9701 -1.3273  1.0542
75652SOL    HW244567  12.402   1.073   2.328 -2.7280  1.2258 -0.3752
75653SOL     OW44568   3.067  11.600   6.306  0.0487 -0.1953  0.1224
75653SOL    HW144569   3.049  11.514   6.268  1.7493 -1.4217  1.8700
75653SOL    HW244570   3.142  11.633   6.257 -1.1802  0.7819 -1.1751
75654SOL     OW44571  11.326  14.092   1.676 -0.4569 -0.0839 -0.4828
75654SOL    HW144572  11.284  14.176   1.657 -3.2892 -1.7664 -2.2920
75654SOL    HW244573  11.399  14.087   1.614 -0.4173  0.9039 -0.5338
75655SOL     OW44574   7.405  12.570   2.512  0.6506  0.0983 -0.2684
75655SOL    HW144575   7.409  12.550   2.606  0.6995 -0.1623 -0.3252
75655SOL    HW244576   7.494  12.597   2.490  1.4280 -2.6078 -0.8454
75656SOL     OW44577   0.692   0.952   6.429 -0.1005 -0.1624 -0.0699
75656SOL    HW144578   0.619   0.988   6.479 -0.8223 -1.2382 -0.3271
75656SOL    HW244579   0.655   0.933   6.343  0.1381 -1.8516  0.1669
75657SOL     OW44580  11.462   5.112   2.884  0.1367 -0.2588 -0.5138
75657SOL    HW144581  11.462   5.112   2.980 -3.1762  1.3612 -0.3832
75657SOL    HW244582  11.409   5.036   2.860  1.3470 -0.9324 -1.1188
75658SOL     OW44583   4.982   4.217   6.948 -0.3219 -0.2386 -0.0347
75658SOL    HW144584   4.966   4.136   6.997  3.0964 -0.2531  1.3249
75658SOL    HW244585   5.042   4.191   6.878  0.6340  1.0371  0.2762
75659SOL     OW44586   7.832  10.096  11.771 -0.0022  0.8656  0.2804
75659SOL    HW144587   7.885  10.132  11.842 -0.1991  2.4166 -0.3119
75659SOL    HW244588   7.761  10.160  11.760  0.3801  1.0132 -1.7119
75660SOL     OW44589   3.710   5.902  10.660 -0.0464  0.3774 -0.3001
75660SOL    HW144590   3.706   5.978  10.603  0.3002  0.0459 -0.7735
75660SOL    HW244591   3.789   5.916  10.713 -0.8391  1.1221  0.7509
75661SOL     OW44592  12.849   4.098   8.416 -0.1221 -0.6111  0.0788
75661SOL    HW144593  12.896   4.114   8.498  0.1884 -2.0045  0.1954
75661SOL    HW244594  12.903   4.035   8.369 -0.3151  0.1384 -1.2039
75662SOL     OW44595  11.785   2.302   7.298 -0.3711  0.0263  0.0949
75662SOL    HW144596  11.789   2.242   7.373 -0.5378  1.0236  0.9188
75662SOL    HW244597  11.736   2.378   7.330  0.1637  0.7753 -0.8100
75663SOL     OW44598   0.742   2.238   3.379 -0.1197 -1.0139  0.3432
75663SOL    HW144599   0.822   2.186   3.386  2.0207  1.9088 -0.6806
75663SOL    HW244600   0.707   2.216   3.292  0.5319 -1.0279  0.0813
75664SOL     OW44601   4.670   6.206  13.782 -0.5769 -0.1260  0.4138
75664SOL    HW144602   4.664   6.292  13.741  2.6524  0.4202  0.8534
75664SOL    HW244603   4.678   6.145  13.709  0.6375  0.3549  0.1270
75665SOL     OW44604   5.805  11.461   2.860 -0.3036  0.0878 -0.0585
75665SOL    HW144605   5.896  11.473   2.888  0.2099  0.2714 -1.7205
75665SOL    HW244606   5.793  11.524   2.790 -2.1239  0.9090  0.9288
75666SOL     OW44607   7.818  12.970   8.893  0.4622  0.4220 -0.2564
75666SOL    HW144608   7.898  13.016   8.918  0.0779  1.5803 -1.0529
75666SOL    HW244609   7.805  12.993   8.801 -0.1589 -0.7004 -0.4705
75667SOL     OW44610   8.013   4.834   8.194 -0.3369  0.1058  0.1689
75667SOL    HW144611   8.101   4.869   8.204  1.2621 -3.3321 -0.4512
75667SOL    HW244612   8.010   4.802   8.104 -2.4625  0.6273 -0.0036
75668SOL     OW44613   8.950   4.210   4.261  0.0586  0.2606  0.1324
75668SOL    HW144614   8.997   4.127   4.257 -0.3473 -0.1310  2.1562
75668SOL    HW244615   8.966   4.242   4.350 -0.8124  1.7341 -0.2068
75669SOL     OW44616  13.685  12.150  10.300  1.0205  0.0574 -0.4116
75669SOL    HW144617  13.643  12.109  10.224 -2.1444 -2.4872  2.4415
75669SOL    HW244618  13.741  12.081  10.336  0.2131  0.1860  1.1622
75670SOL     OW44619  14.054   4.087   1.035 -0.2533 -0.4063 -0.1817
75670SOL    HW144620  14.050   4.097   1.130  2.1040  1.2465 -0.1758
75670SOL    HW244621  13.999   4.157   1.001  0.0666 -0.0782 -0.0300
75671SOL     OW44622  12.205   6.494   0.572 -0.2310  0.0585  0.3397
75671SOL    HW144623  12.164   6.581   0.564 -2.1276 -0.8052  0.0883
75671SOL    HW244624  12.244   6.478   0.486  0.2996  0.7263  0.4476
75672SOL     OW44625   2.505   5.355   9.550  0.1087  0.2602  0.0512
75672SOL    HW144626   2.505   5.280   9.490 -0.3454 -1.1650  1.7378
75672SOL    HW244627   2.598   5.370   9.569  0.1534 -0.8399  0.7986
75673SOL     OW44628   2.275  13.786   0.672 -0.2691 -0.1192  0.1016
75673SOL    HW144629   2.244  13.775   0.582 -2.0580 -0.9385  0.7692
75673SOL    HW244630   2.321  13.705   0.692  0.6646  0.3099 -0.2505
75674SOL     OW44631  10.159  11.894  13.311  0.4464 -0.3067  0.2937
75674SOL    HW144632  10.091  11.828  13.326  1.5019 -1.4458  0.2445
75674SOL    HW244633  10.231  11.845  13.271  1.7881  0.6129  1.4811
75675SOL     OW44634  13.612   5.773  10.559 -0.3451 -0.1921 -0.1951
75675SOL    HW144635  13.586   5.727  10.479 -0.5454 -0.8663  0.2445
75675SOL    HW244636  13.698   5.737  10.579  0.8749  1.8213 -1.4847
75676SOL     OW44637  13.153   4.338   1.700 -0.3755 -0.4154  0.1757
75676SOL    HW144638  13.058   4.344   1.689 -0.2613  1.2072 -0.1773
75676SOL    HW244639  13.187   4.339   1.610 -0.0625 -2.7391  0.2128
75677SOL     OW44640   1.268   9.814   1.771  0.1431  0.1172 -0.2118
75677SOL    HW144641   1.186   9.827   1.818  0.7288 -2.7435  1.8948
75677SOL    HW244642   1.242   9.783   1.685 -0.9310  2.7659 -0.9380
75678SOL     OW44643   1.628   4.570  12.037 -0.2071 -0.4895  0.0604
75678SOL    HW144644   1.581   4.654  12.039  0.2155 -0.2389 -0.4324
75678SOL    HW244645   1.700   4.584  11.976  1.1371 -0.5458  1.5743
75679SOL     OW44646   1.249   3.080  10.913 -0.1080  0.0121  0.2711
75679SOL    HW144647   1.316   3.149  10.914  1.1401 -1.1652 -0.1317
75679SOL    HW244648   1.221   3.073  11.004 -0.6018  1.3578  0.2530
75680SOL     OW44649   1.790   8.214   5.122  0.3577  0.2901 -0.5988
75680SOL    HW144650   1.829   8.220   5.209  0.7723  2.4380 -0.8747
75680SOL    HW244651   1.746   8.298   5.110 -0.1877 -0.1963 -2.2316
75681SOL     OW44652  12.706   4.214   5.892 -0.0387  0.2204  0.0037
75681SOL    HW144653  12.681   4.138   5.839 -1.6125  1.2223 -0.7630
75681SOL    HW244654  12.629   4.230   5.947  0.6599  0.6760  0.8763
75682SOL     OW44655  13.263   3.758   3.501 -0.0673 -0.0840 -0.6251
75682SOL    HW144656  13.180   3.795   3.531 -0.4476 -1.1646 -0.3060
75682SOL    HW244657  13.308   3.831   3.460 -0.9289  0.6568 -0.2851
75683SOL     OW44658   5.835   2.543   8.784 -0.3711 -0.1793  0.1114
75683SOL    HW144659   5.913   2.490   8.769  0.1025 -0.4412  2.8465
75683SOL    HW244660   5.762   2.486   8.759  0.1361 -2.2180  2.7630
75684SOL     OW44661   0.482  12.346  13.219  0.4881  0.7852  0.1228
75684SOL    HW144662   0.400  12.331  13.266 -0.8337 -0.2049 -2.3183
75684SOL    HW244663   0.483  12.440  13.201 -0.4670  0.6984 -0.4172
75685SOL     OW44664   2.890   9.842  13.108 -0.2748 -0.0042 -0.3198
75685SOL    HW144665   2.980   9.863  13.132 -0.8173  1.2964  0.7360
75685SOL    HW244666   2.878   9.885  13.023 -0.3462  1.2130  0.2727
75686SOL     OW44667  12.150   6.398   1.362  0.1740 -0.2278  0.0386
75686SOL    HW144668  12.192   6.328   1.314  2.4461  0.3274  1.0708
75686SOL    HW244669  12.216   6.428   1.425 -1.1378  1.9694  0.5151
75687SOL     OW44670  10.118   8.178  13.005 -0.0156  0.5329  0.2794
75687SOL    HW144671  10.073   8.115  12.948  0.3211  1.2884 -0.8467
75687SOL    HW244672  10.211   8.166  12.985  0.1413  0.4874  1.0154
75688SOL     OW44673   0.953  10.569   1.231  0.1161  0.6488 -0.6827
75688SOL    HW144674   0.950  10.481   1.192 -2.1988  0.6476 -0.6397
75688SOL    HW244675   0.863  10.585   1.260  1.0480  1.9605  1.7818
75689SOL     OW44676  13.158   5.245   4.817 -0.2161 -0.4975  0.2387
75689SOL    HW144677  13.220   5.312   4.789 -0.2652  0.5543  2.4039
75689SOL    HW244678  13.190   5.219   4.904 -2.2996 -0.5403  1.0469
75690SOL     OW44679   0.980   5.420   9.572  0.2608 -0.0972 -0.7885
75690SOL    HW144680   1.022   5.496   9.612  0.5004 -0.8028  0.3594
75690SOL    HW244681   0.915   5.457   9.512  0.9875  1.0005 -0.9249
75691SOL     OW44682  13.665   9.124  11.248 -0.1113 -0.3504  0.1695
75691SOL    HW144683  13.638   9.177  11.173  1.3242  1.6863  1.0291
75691SOL    HW244684  13.584   9.109  11.297 -0.5462  1.0569 -0.0905
75692SOL     OW44685   5.668   0.789   5.770 -0.5395  0.0057 -0.1742
75692SOL    HW144686   5.759   0.817   5.771 -0.3488 -0.5906  0.3454
75692SOL    HW244687   5.621   0.858   5.724 -0.2338  1.6131  1.7904
75693SOL     OW44688   3.920  13.008   9.166  0.3414  1.0455 -0.5655
75693SOL    HW144689   3.842  12.953   9.155  0.0183  1.0818  1.2036
75693SOL    HW244690   3.887  13.098   9.157  0.3197  1.0367 -0.5707
75694SOL     OW44691  14.006  13.634   1.035 -0.0655  0.2140  0.7637
75694SOL    HW144692  14.084  13.579   1.044  0.1984  0.5176  0.3442
75694SOL    HW244693  14.039  13.717   1.000 -0.6006  0.2858  0.4263
75695SOL     OW44694   7.616   9.552  10.144  0.1831  0.1183 -0.4263
75695SOL    HW144695   7.594   9.613  10.215  1.9010 -0.1429  0.3719
75695SOL    HW244696   7.545   9.488  10.146  0.2313  0.0576  1.1466
75696SOL     OW44697  12.449   5.026   8.526  0.2222  0.3589  0.3737
75696SOL    HW144698  12.513   5.096   8.515  0.2607  0.0753 -1.3781
75696SOL    HW244699  12.464   4.967   8.453 -1.4112 -0.2043  0.4423
75697SOL     OW44700  10.749   9.606  12.883 -0.0605  0.1333  0.3675
75697SOL    HW144701  10.763   9.693  12.846  2.5324  0.0477  0.9581
75697SOL    HW244702  10.824   9.592  12.941 -1.8081 -1.4451  2.3865
75698SOL     OW44703   8.374  13.082   4.433  0.2622 -0.0707 -0.1401
75698SOL    HW144704   8.448  13.090   4.373  1.3045 -1.7592  0.8398
75698SOL    HW244705   8.410  13.102   4.519 -0.8966  0.9893  0.1272
75699SOL     OW44706  12.130   0.697  14.065  0.3176 -0.7345  0.1845
75699SOL    HW144707  12.110   0.788  14.043  0.8076 -0.7289 -0.2527
75699SOL    HW244708  12.045   0.654  14.069 -0.0200 -0.0244  1.4885
75700SOL     OW44709   3.832   0.548  13.038 -0.7047 -0.6085 -0.6622
75700SOL    HW144710   3.886   0.500  12.975 -0.5831 -0.2671 -0.8198
75700SOL    HW244711   3.839   0.639  13.011 -0.2387 -0.3921  0.1412
75701SOL     OW44712   3.990   7.741   8.082 -0.0053 -0.4785 -0.2843
75701SOL    HW144713   4.012   7.834   8.088 -1.9729 -0.0497  2.0037
75701SOL    HW244714   3.964   7.728   7.991  3.0832  0.4412 -1.4230
75702SOL     OW44715   7.446  13.660   3.763  0.2344 -0.4975  0.5649
75702SOL    HW144716   7.405  13.723   3.704 -0.1095 -2.0084 -0.9041
75702SOL    HW244717   7.375  13.601   3.789  0.8798 -1.3716  0.4151
75703SOL     OW44718   9.179   5.015   0.482  0.3601 -0.0844  0.4691
75703SOL    HW144719   9.152   4.935   0.526  0.4928  0.6543  1.9619
75703SOL    HW244720   9.104   5.040   0.427  0.4536 -1.3814 -0.2821
75704SOL     OW44721   4.642   3.095  12.206  0.0411  0.5964 -0.1313
75704SOL    HW144722   4.683   3.096  12.293 -0.3540  1.6286  0.0640
75704SOL    HW244723   4.679   3.019  12.163  2.7006  1.8101 -0.1972
75705SOL     OW44724   0.458   7.001   8.513  0.0385 -0.3171 -0.7679
75705SOL    HW144725   0.531   7.044   8.558  0.0039 -0.9288 -0.1199
75705SOL    HW244726   0.498   6.926   8.468 -0.1945 -0.6617 -0.3985
75706SOL     OW44727   5.477  10.324  13.472 -0.3128 -0.2280  0.0221
75706SOL    HW144728   5.543  10.282  13.416  0.2673 -2.0368  1.9076
75706SOL    HW244729   5.465  10.411  13.434  2.1629 -0.3264 -1.2165
75707SOL     OW44730   2.454  11.887   0.240  0.0210  0.3412 -0.3176
75707SOL    HW144731   2.442  11.914   0.149  0.9776  0.2893 -0.4663
75707SOL    HW244732   2.530  11.937   0.271 -0.2241  0.2749  0.4221
75708SOL     OW44733   4.997   1.851   6.142 -0.5766  0.4755 -0.2536
75708SOL    HW144734   4.984   1.782   6.206  0.4654  1.2267  0.8180
75708SOL    HW244735   5.089   1.843   6.116  0.2014  2.6452  1.4391
75709SOL     OW44736   4.675   6.322  11.089 -0.4505 -0.9004 -0.1000
75709SOL    HW144737   4.758   6.370  11.096 -0.6683 -0.4477 -0.5410
75709SOL    HW244738   4.702   6.231  11.075 -0.0052 -0.5717 -1.5427
75710SOL     OW44739   4.741  11.794   5.233 -0.1624 -0.4723 -0.0151
75710SOL    HW144740   4.746  11.856   5.161  0.6006  0.4410  0.7945
75710SOL    HW244741   4.654  11.805   5.270 -0.2443 -0.3134 -0.2603
75711SOL     OW44742  13.119  10.172  13.524  0.3361 -0.0477 -0.2504
75711SOL    HW144743  13.172  10.092  13.526  0.8159  0.2354  2.6693
75711SOL    HW244744  13.038  10.146  13.480  1.5291 -1.3692 -1.8109
75712SOL     OW44745   0.108  12.711  13.828  0.2252 -0.1641 -0.4418
75712SOL    HW144746   0.200  12.713  13.855  0.1448  0.1195 -0.1888
75712SOL    HW244747   0.060  12.689  13.908  0.0267  0.2350 -0.4470
75713SOL     OW44748   4.628  10.557  12.021 -0.3592 -0.3653  0.2918
75713SOL    HW144749   4.671  10.607  11.952  0.9846 -1.1286  0.5392
75713SOL    HW244750   4.656  10.600  12.102 -0.8738 -0.2687  0.4194
75714SOL     OW44751   1.279   6.645  13.297  0.8246  0.5414 -0.0779
75714SOL    HW144752   1.367   6.621  13.327  0.5650  0.8260  0.9296
75714SOL    HW244753   1.268   6.736  13.326 -0.3493  0.0457  1.0735
75715SOL     OW44754  11.916   5.928  11.449  0.4641  0.0752  0.5290
75715SOL    HW144755  11.883   5.948  11.361  2.2982  0.7077 -0.0635
75715SOL    HW244756  11.973   5.851  11.435  1.5228  0.7608  0.9634
75716SOL     OW44757   0.697   1.830   7.221  0.1407 -0.1306  0.6851
75716SOL    HW144758   0.786   1.860   7.206  0.4452 -0.9916  0.7368
75716SOL    HW244759   0.653   1.840   7.137 -0.1089  1.5271  0.9635
75717SOL     OW44760  12.656   0.787   8.966 -0.3710  0.0155  0.0544
75717SOL    HW144761  12.745   0.760   8.947  0.4711  1.2796  1.8655
75717SOL    HW244762  12.656   0.804   9.060 -2.7346 -0.6550  0.2550
75718SOL     OW44763   4.571   9.872  11.393  0.6604  0.1785  0.5033
75718SOL    HW144764   4.530   9.839  11.473  0.6198  0.3341  0.5482
75718SOL    HW244765   4.651   9.915  11.423  0.9294 -0.2495  0.3992
75719SOL     OW44766   5.307   0.817   5.888 -0.2535  0.1480 -0.0560
75719SOL    HW144767   5.347   0.742   5.933 -1.0481  0.0219  0.4527
75719SOL    HW244768   5.312   0.888   5.953  0.1798  0.4474 -0.4105
75720SOL     OW44769   0.699   7.641   7.527  0.0097  0.4219 -0.2956
75720SOL    HW144770   0.725   7.733   7.535  0.7518  0.0958  1.6641
75720SOL    HW244771   0.716   7.618   7.436  4.1447  1.0153  0.1684
75721SOL     OW44772   4.808   2.051   6.016 -0.1485 -0.0802  0.0555
75721SOL    HW144773   4.819   2.032   5.923  2.0134  2.1039 -0.2253
75721SOL    HW244774   4.861   1.985   6.061  1.7149  0.9787 -0.5092
75722SOL     OW44775   6.933  12.901  11.852 -0.1378 -0.1506 -0.5815
75722SOL    HW144776   6.882  12.980  11.868 -1.4917 -1.1129  0.0161
75722SOL    HW244777   6.992  12.895  11.927 -0.1009  0.2405 -0.5783
75723SOL     OW44778  13.759   9.699   0.162 -0.2857  0.1332 -0.2374
75723SOL    HW144779  13.758   9.656   0.076 -1.5971  0.7980 -0.5814
75723SOL    HW244780  13.850   9.692   0.190 -0.0254 -0.9788 -1.2246
75724SOL     OW44781  10.064   1.557  12.459 -0.0937 -0.0365  0.3343
75724SOL    HW144782   9.969   1.562  12.465 -0.3911 -1.9437 -1.4154
75724SOL    HW244783  10.085   1.466  12.480  0.8777 -0.6531 -2.6998
75725SOL     OW44784  11.039   8.093   1.423 -0.3042  0.1540 -0.8398
75725SOL    HW144785  11.010   8.142   1.500 -2.2081  0.8938 -1.9523
75725SOL    HW244786  11.128   8.126   1.406  0.1513 -0.0223  0.9983
75726SOL     OW44787  13.272  12.498  12.101 -0.5986  0.6246  0.5098
75726SOL    HW144788  13.254  12.409  12.071  3.2023 -0.5956  1.2025
75726SOL    HW244789  13.188  12.544  12.096 -2.2915 -2.3949 -1.7978
75727SOL     OW44790   1.026   9.819  12.076 -0.2628 -0.3347 -0.5910
75727SOL    HW144791   1.082   9.887  12.039 -0.6805  0.1976 -0.2753
75727SOL    HW244792   1.021   9.841  12.169  0.4012 -1.3794 -0.2986
75728SOL     OW44793   2.422   6.684  13.895 -0.1143  0.0608 -0.1684
75728SOL    HW144794   2.460   6.673  13.982 -2.4972  0.6901  1.0256
75728SOL    HW244795   2.475   6.754  13.855 -0.6071  1.6928  1.8339
75729SOL     OW44796   2.964   6.605   2.626  0.3378 -0.0189 -0.4308
75729SOL    HW144797   2.881   6.605   2.577  0.3608 -3.3370 -0.7107
75729SOL    HW244798   2.939   6.577   2.714  0.9391  1.0612  0.0992
75730SOL     OW44799   1.766   0.255   6.182  0.0968  0.1014  0.0485
75730SOL    HW144800   1.788   0.264   6.090  1.2474 -2.5885 -0.0136
75730SOL    HW244801   1.691   0.196   6.185  0.8993 -0.9223  0.8586
75731SOL     OW44802   8.665   0.878   0.757  0.3553 -0.0575 -0.3994
75731SOL    HW144803   8.635   0.812   0.819 -0.7074 -2.5450 -3.3291
75731SOL    HW244804   8.761   0.872   0.760  0.2933 -1.0151  0.1083
75732SOL     OW44805   9.082   1.130   9.030 -0.2371  0.1040 -0.0017
75732SOL    HW144806   9.129   1.207   8.997 -0.3608  0.7970  1.3870
75732SOL    HW244807   9.017   1.165   9.091 -1.8020 -0.9307 -0.9692
75733SOL     OW44808   7.983  10.774  12.267 -0.1154 -0.0264 -0.1596
75733SOL    HW144809   7.992  10.757  12.360  0.4604 -0.3590 -0.2760
75733SOL    HW244810   7.984  10.870  12.260 -0.7070  0.0121  0.2222
75734SOL     OW44811   9.275   2.224   1.506  0.6933  0.2572 -0.1819
75734SOL    HW144812   9.221   2.256   1.578  1.1425  1.8290 -0.5057
75734SOL    HW244813   9.242   2.269   1.429  0.4097 -1.1991 -0.9388
75735SOL     OW44814   3.317   2.573   4.091 -0.4578  0.1011  0.2888
75735SOL    HW144815   3.347   2.562   4.181 -1.3080 -1.2221  0.4371
75735SOL    HW244816   3.222   2.582   4.098 -0.4748  0.5751 -0.4391
75736SOL     OW44817   2.154   9.643   7.313 -0.4811  0.5269  0.5192
75736SOL    HW144818   2.219   9.587   7.270  0.1784  1.2780  0.5177
75736SOL    HW244819   2.205   9.707   7.362 -1.1713  2.0741 -0.6745
75737SOL     OW44820   8.009   2.612   1.074 -0.5967  0.2595 -0.5060
75737SOL    HW144821   8.054   2.606   0.990  1.9982  3.2040  0.4459
75737SOL    HW244822   7.978   2.702   1.078  1.3085  0.9174  2.4676
75738SOL     OW44823   1.012   6.099   1.930  0.4217  0.1763 -0.2506
75738SOL    HW144824   1.035   6.191   1.918  1.3174 -0.0787 -0.5311
75738SOL    HW244825   1.096   6.053   1.937 -0.0139 -0.5731  0.2788
75739SOL     OW44826  13.720  10.724  10.390  0.2125  0.3104  0.0897
75739SOL    HW144827  13.697  10.644  10.439  3.9836 -0.2229  1.3416
75739SOL    HW244828  13.760  10.692  10.309  1.8840  0.8588  0.6616
75740SOL     OW44829   9.870  12.774   7.498 -0.0266 -0.5507 -0.0252
75740SOL    HW144830   9.862  12.856   7.449  0.0453 -0.1632  0.6127
75740SOL    HW244831   9.947  12.785   7.553 -1.1112 -0.2674  1.5148
75741SOL     OW44832  10.504   5.021   7.444  0.0068 -0.5317 -0.0557
75741SOL    HW144833  10.579   4.960   7.445  0.9807  0.6258  0.1923
75741SOL    HW244834  10.485   5.033   7.351  0.3128 -0.6295 -0.1332
75742SOL     OW44835  14.016  13.599  12.517 -0.2128  0.3171  0.3982
75742SOL    HW144836  14.107  13.627  12.517 -0.0781 -0.1159  0.3751
75742SOL    HW244837  14.013  13.526  12.455 -0.7567  0.9174 -0.3114
75743SOL     OW44838   2.521  10.876   3.661 -0.2624 -0.0737  0.2257
75743SOL    HW144839   2.587  10.943   3.642 -0.6731 -0.1084 -1.4879
75743SOL    HW244840   2.530  10.813   3.589  0.0789 -1.8748  1.7606
75744SOL     OW44841  11.132   9.695   8.071  0.0159 -0.1996 -0.0062
75744SOL    HW144842  11.205   9.724   8.126 -0.6348  0.1689  0.6970
75744SOL    HW244843  11.148   9.602   8.056 -0.9448 -0.9187  2.7717
75745SOL     OW44844   8.414   4.756   2.791 -0.1406  0.3314 -0.1910
75745SOL    HW144845   8.337   4.701   2.776  0.3513  0.1893 -2.5752
75745SOL    HW244846   8.380   4.831   2.840 -0.9253 -1.7256  2.6483
75746SOL     OW44847   9.563   3.017   6.305  0.3816 -0.6928 -0.2066
75746SOL    HW144848   9.526   3.099   6.339 -0.4247  0.4335 -3.4158
75746SOL    HW244849   9.657   3.035   6.299  0.2056  0.0564 -0.9389
75747SOL     OW44850  11.047   6.848   5.365  0.6329 -0.0279  0.4108
75747SOL    HW144851  10.955   6.821   5.372  1.0516 -1.4262  0.7455
75747SOL    HW244852  11.064   6.852   5.271  0.5325 -0.8911  0.3489
75748SOL     OW44853   0.647   7.393  12.517 -0.2865  0.1949  0.0601
75748SOL    HW144854   0.689   7.477  12.497  0.0649 -0.1898 -0.8729
75748SOL    HW244855   0.554   7.414  12.527  0.0852  1.0951  2.3671
75749SOL     OW44856  11.414  13.621   8.328  0.2665 -0.1331  0.3135
75749SOL    HW144857  11.445  13.590   8.243 -2.3489  1.3366 -1.3337
75749SOL    HW244858  11.481  13.682   8.358  0.1106  1.3181 -2.0216
75750SOL     OW44859   3.174   1.815   9.613 -0.3223  0.2370 -0.4220
75750SOL    HW144860   3.218   1.790   9.531  0.0768  0.7968 -0.3875
75750SOL    HW244861   3.235   1.788   9.681 -1.6018 -2.2177 -0.1645
75751SOL     OW44862   8.450   8.305   8.043  0.5023  0.3859  0.3471
75751SOL    HW144863   8.496   8.274   8.121 -2.0282  1.1782  2.3032
75751SOL    HW244864   8.430   8.397   8.062 -1.6029  0.1530 -0.4610
75752SOL     OW44865  13.390   8.036  13.788 -0.6695  0.1891  0.5756
75752SOL    HW144866  13.394   7.942  13.807 -1.1166  0.2297  0.8907
75752SOL    HW244867  13.471   8.071  13.827  0.7694 -0.4097 -1.7191
75753SOL     OW44868   2.453  12.658   6.593  0.0382  0.1946  0.4396
75753SOL    HW144869   2.436  12.744   6.631  0.9244 -0.4551  2.4737
75753SOL    HW244870   2.379  12.604   6.621 -0.6369  0.3070 -1.0244
75754SOL     OW44871  10.168  10.884   4.431  0.0804  0.1864  0.1738
75754SOL    HW144872  10.164  10.804   4.379  0.7850  0.2749 -0.0240
75754SOL    HW244873  10.115  10.947   4.382  0.2413  0.0923 -0.1227
75755SOL     OW44874   6.733   7.646  13.854 -0.1230 -0.3407 -0.4877
75755SOL    HW144875   6.713   7.614  13.766  0.0012  1.1416 -1.0989
75755SOL    HW244876   6.658   7.619  13.908  1.0965 -3.7964 -0.2962
75756SOL     OW44877   5.126  11.009   3.879 -0.0632  0.2367 -0.6764
75756SOL    HW144878   5.076  11.090   3.869  0.6067  1.1734  2.4291
75756SOL    HW244879   5.061  10.945   3.908 -0.0463  0.6136  0.2334
75757SOL     OW44880   7.918   9.686  11.348 -0.3147 -0.0138  0.2907
75757SOL    HW144881   7.951   9.668  11.259  0.4576  0.3146  0.4989
75757SOL    HW244882   7.829   9.719  11.334  0.2135  1.1939 -0.4660
75758SOL     OW44883  11.583   9.503   5.347  0.8391  0.1062 -0.1010
75758SOL    HW144884  11.658   9.551   5.383  0.8233 -1.3394  2.0473
75758SOL    HW244885  11.544   9.564   5.285  3.4063  1.1425 -0.8436
75759SOL     OW44886  13.778   3.424  13.601 -0.0407 -0.1537  0.0136
75759SOL    HW144887  13.797   3.510  13.565 -2.5387 -0.0104 -1.1711
75759SOL    HW244888  13.864   3.387  13.623  1.0973  2.5339  0.4314
75760SOL     OW44889   0.216   0.514   2.482 -0.1587  0.3089 -0.4969
75760SOL    HW144890   0.311   0.507   2.486 -0.2188 -0.1321  0.7370
75760SOL    HW244891   0.197   0.606   2.499  0.0755  0.6931 -2.1280
75761SOL     OW44892   5.959  12.735   0.920 -0.0443 -0.9632  0.7603
75761SOL    HW144893   5.875  12.754   0.878  0.9878  0.8701 -0.6414
75761SOL    HW244894   5.946  12.759   1.012 -1.3348 -1.7363  0.8068
75762SOL     OW44895   7.734   8.146  13.586  0.0869  0.5686 -0.2463
75762SOL    HW144896   7.703   8.061  13.556  0.6859  0.2953 -0.0853
75762SOL    HW244897   7.737   8.138  13.682  0.3848  0.6903 -0.2454
75763SOL     OW44898   8.844   8.174   3.070 -0.2639 -0.8789 -0.0586
75763SOL    HW144899   8.828   8.223   2.989  1.6590 -0.2286 -0.1030
75763SOL    HW244900   8.861   8.085   3.041 -0.2679 -0.8004 -0.3046
75764SOL     OW44901  10.694   0.093   5.907  0.1452 -0.0073 -0.1354
75764SOL    HW144902  10.647   0.174   5.888  0.3581  0.6360  1.8384
75764SOL    HW244903  10.783   0.110   5.875 -0.0538  0.1492 -0.6185
75765SOL     OW44904   4.938   8.256   5.861  0.9609 -0.0170 -0.0233
75765SOL    HW144905   4.914   8.188   5.798  1.3229 -0.7059  0.5693
75765SOL    HW244906   4.899   8.227   5.944  1.9526 -0.0282  0.4550
75766SOL     OW44907  13.895   1.885   8.603  0.4885  1.0530 -0.3858
75766SOL    HW144908  13.872   1.901   8.512 -0.1656 -0.5762 -0.5317
75766SOL    HW244909  13.811   1.874   8.648  0.8521  0.0164  0.0594
75767SOL     OW44910   0.561   1.911   0.345  0.5373  0.7115 -0.1468
75767SOL    HW144911   0.568   1.841   0.409 -0.4793 -0.4270 -1.2240
75767SOL    HW244912   0.611   1.880   0.269 -1.0282  0.4721 -1.1470
75768SOL     OW44913   3.037   1.135  12.844 -0.1972  0.0045  0.3229
75768SOL    HW144914   2.993   1.065  12.795 -1.7615 -0.1820  1.9108
75768SOL    HW244915   3.114   1.092  12.882  0.4676 -0.0937 -1.0580
75769SOL     OW44916   7.934  12.154  13.277  0.2853 -0.0139  0.2143
75769SOL    HW144917   7.895  12.128  13.361  1.2690  0.2959  0.7947
75769SOL    HW244918   8.014  12.200  13.302 -1.2545  3.5188 -0.7302
75770SOL     OW44919  13.781   4.661  11.080  0.4876 -0.1870 -0.0130
75770SOL    HW144920  13.863   4.670  11.129  1.0819 -0.3107 -0.9590
75770SOL    HW244921  13.781   4.570  11.051 -0.2043 -0.3052  0.3563
75771SOL     OW44922   1.647   8.473   7.827  0.0541  0.0331  0.1569
75771SOL    HW144923   1.616   8.530   7.897  1.9068 -0.1594  1.1809
75771SOL    HW244924   1.708   8.528   7.777 -0.9845  0.0634 -1.1175
75772SOL     OW44925   6.398   2.739   1.593  0.4627 -0.3745  0.4253
75772SOL    HW144926   6.404   2.644   1.583  0.7383 -0.2714 -0.4051
75772SOL    HW244927   6.361   2.750   1.681  3.3737 -1.2080  1.8829
75773SOL     OW44928  12.277   2.026  12.979 -0.4048  0.4119 -0.1794
75773SOL    HW144929  12.338   2.089  12.941  0.3566 -0.3674 -0.2582
75773SOL    HW244930  12.195   2.042  12.932 -0.3103  1.5396  0.0043
75774SOL     OW44931  10.243   1.721   1.679 -0.7917 -0.2221 -0.1886
75774SOL    HW144932  10.260   1.745   1.770 -0.8435 -0.4152 -0.1276
75774SOL    HW244933  10.153   1.749   1.663 -0.2897  1.2264 -0.6527
75775SOL     OW44934   2.649  10.897  10.429 -0.2002  0.2493 -0.4368
75775SOL    HW144935   2.681  10.980  10.394  1.1530 -0.4231 -0.8947
75775SOL    HW244936   2.668  10.834  10.360  2.2079 -1.0652  1.2705
75776SOL     OW44937   7.479   0.922   5.254  0.1170  0.1084  0.2162
75776SOL    HW144938   7.430   0.840   5.244 -0.9857  0.8195 -0.5784
75776SOL    HW244939   7.541   0.905   5.324  0.4194 -1.6406 -0.4144
75777SOL     OW44940  12.632   1.302   1.954  0.4995  0.2200  0.0037
75777SOL    HW144941  12.687   1.303   2.032  1.3415  1.9611 -0.5611
75777SOL    HW244942  12.669   1.233   1.898 -0.5327 -1.5239  1.3699
75778SOL     OW44943   7.259   5.092   1.024 -0.0485 -0.1172 -0.4700
75778SOL    HW144944   7.216   5.106   1.108 -0.0752 -0.1370 -0.4807
75778SOL    HW244945   7.220   5.157   0.966 -0.3710 -0.4226 -0.5930
75779SOL     OW44946  12.700   6.351  13.017  0.2185 -0.5154 -0.2557
75779SOL    HW144947  12.636   6.312  13.077  0.3480 -0.0218  0.2089
75779SOL    HW244948  12.668   6.329  12.930 -0.8955  0.2268 -0.0457
75780SOL     OW44949  11.259  13.628   3.812 -0.0786  0.4150  1.0238
75780SOL    HW144950  11.333  13.571   3.794 -2.0125 -1.9991  0.1281
75780SOL    HW244951  11.216  13.640   3.727 -2.5530 -1.1004  1.9476
75781SOL     OW44952   4.086   1.872  13.570  0.1182 -0.1225 -0.1445
75781SOL    HW144953   3.991   1.857  13.566  0.2155 -1.0203  0.4876
75781SOL    HW244954   4.098   1.927  13.647  0.2050 -1.0611  0.5375
75782SOL     OW44955   6.084  10.525  11.808  0.4795  0.3972  0.0717
75782SOL    HW144956   6.108  10.458  11.745 -0.7953 -0.6647  0.6698
75782SOL    HW244957   6.151  10.518  11.876  0.9613  0.4720 -0.3900
75783SOL     OW44958  12.634   7.614   2.648 -0.6267  0.0952 -0.1113
75783SOL    HW144959  12.690   7.647   2.577 -2.9158  1.4098 -1.4484
75783SOL    HW244960  12.638   7.683   2.715 -0.7083  0.2259 -0.2396
75784SOL     OW44961   2.722   4.706  13.308  0.4389  0.6289  0.3528
75784SOL    HW144962   2.682   4.793  13.303 -0.8573  0.2356  2.8582
75784SOL    HW244963   2.790   4.715  13.374 -1.0413 -0.6974  2.1328
75785SOL     OW44964   2.066   8.706  10.367  0.0104  0.0284  0.3221
75785SOL    HW144965   2.008   8.640  10.407  0.5116 -1.5423 -1.3978
75785SOL    HW244966   2.139   8.655  10.333  1.4856  1.7617  0.7458
75786SOL     OW44967   2.223   2.402   6.973  0.0742 -0.1828 -0.0516
75786SOL    HW144968   2.208   2.326   7.029 -1.3282  0.0968 -0.0119
75786SOL    HW244969   2.307   2.437   7.003  0.6684 -1.6079  0.0279
75787SOL     OW44970   3.883   8.225   7.141 -0.0014 -0.0662 -0.0380
75787SOL    HW144971   3.932   8.306   7.154  0.3449  0.1388 -2.1801
75787SOL    HW244972   3.818   8.247   7.074 -1.5325 -0.9429  1.0895
75788SOL     OW44973   7.475   4.788   1.157  0.6055  0.0350 -0.4903
75788SOL    HW144974   7.417   4.787   1.081 -0.6461  2.1406  0.3683
75788SOL    HW244975   7.478   4.697   1.186 -0.4151 -0.4862 -1.9010
75789SOL     OW44976  11.501   0.109   1.218 -0.3800 -0.3006  0.0553
75789SOL    HW144977  11.506   0.074   1.129 -0.4690  0.1986 -0.1494
75789SOL    HW244978  11.436   0.179   1.212 -1.4442 -1.1931  0.8329
75790SOL     OW44979   0.663   7.631   0.458  0.8098  0.0784 -0.8418
75790SOL    HW144980   0.685   7.540   0.435  1.4148 -0.3703  1.2001
75790SOL    HW244981   0.747   7.677   0.454  1.0636 -0.1574  0.8488
75791SOL     OW44982   0.542   9.451   8.339 -0.1213  0.4493  0.0265
75791SOL    HW144983   0.468   9.403   8.304  0.5278 -0.8112  0.3187
75791SOL    HW244984   0.587   9.487   8.263  0.2130 -0.6667 -0.3110
75792SOL     OW44985   9.323   3.701  12.931 -0.1375  0.1214 -0.1172
75792SOL    HW144986   9.351   3.615  12.899  0.0790 -0.0494  0.4994
75792SOL    HW244987   9.352   3.763  12.864 -1.9620 -0.4424 -1.5156
75793SOL     OW44988  11.871   1.231  12.504  0.4605 -0.2063  0.1951
75793SOL    HW144989  11.794   1.184  12.472  0.3094 -0.6901  1.2249
75793SOL    HW244990  11.844   1.268  12.587  1.4695 -0.7607  0.7926
75794SOL     OW44991   4.064   0.364   4.840 -0.1228  0.5373 -0.3067
75794SOL    HW144992   4.102   0.435   4.892 -0.0012  0.2940 -0.0586
75794SOL    HW244993   3.971   0.365   4.862  0.0241  0.0549  0.3788
75795SOL     OW44994  12.150   2.147   5.615 -0.1331 -0.2234 -0.1474
75795SOL    HW144995  12.244   2.126   5.619  0.5651  2.6109  1.8716
75795SOL    HW244996  12.113   2.105   5.692 -0.6354 -1.5743 -1.0940
75796SOL     OW44997  11.316   5.545  13.988  0.4722  0.3020  0.0139
75796SOL    HW144998  11.371   5.541  14.066  0.5858 -0.0930 -0.0842
75796SOL    HW244999  11.354   5.480  13.929  0.1713  0.3475 -0.2304
75797SOL     OW45000   2.647   1.868   2.844  0.0334 -0.6489 -0.2943
75797SOL    HW145001   2.639   1.952   2.797 -0.9512 -0.9530 -0.7049
75797SOL    HW245002   2.560   1.854   2.882 -0.6062 -2.6877 -2.3192
75798SOL     OW45003   1.425  11.572   0.405  0.3189 -0.0203  0.0158
75798SOL    HW145004   1.492  11.528   0.353 -0.1144 -1.6113  0.7457
75798SOL    HW245005   1.373  11.501   0.441 -0.2620  1.1011  1.4598
75799SOL     OW45006   8.083   1.166   6.422 -0.1821  0.0709  0.1699
75799SOL    HW145007   8.014   1.217   6.465 -1.6171 -1.8472  0.2498
75799SOL    HW245008   8.057   1.162   6.330 -1.2930 -2.2411  0.5121
75800SOL     OW45009   3.194   9.922   1.082 -0.2086 -0.5597 -0.1389
75800SOL    HW145010   3.214   9.938   1.174  0.1732  0.8579 -0.4364
75800SOL    HW245011   3.172   9.830   1.077 -0.8754 -0.5063  1.4856
75801SOL     OW45012   8.843   9.572  11.740 -0.2034 -0.1356 -0.2184
75801SOL    HW145013   8.854   9.486  11.781 -0.2029  0.0186  0.1117
75801SOL    HW245014   8.883   9.633  11.802  1.9615 -0.1299 -1.5500
75802SOL     OW45015   3.190   9.111  10.697  0.6099 -0.0467  0.1288
75802SOL    HW145016   3.265   9.051  10.696 -0.1380 -1.0142  0.9653
75802SOL    HW245017   3.209   9.173  10.626  1.6605 -0.9383 -0.4047
75803SOL     OW45018  13.724   0.979   9.540 -0.5384  0.3219 -0.0329
75803SOL    HW145019  13.703   0.920   9.613  0.3716 -0.7400 -0.6051
75803SOL    HW245020  13.733   0.921   9.464 -0.2189  1.2729 -0.7338
75804SOL     OW45021  12.228   5.847   0.509  0.1567 -0.1382 -0.1419
75804SOL    HW145022  12.241   5.891   0.593  0.9359  3.0974 -1.7724
75804SOL    HW245023  12.133   5.839   0.500  0.0864 -2.1987  1.7453
75805SOL     OW45024   5.507  13.457   4.208 -0.1933  0.1104 -0.2210
75805SOL    HW145025   5.550  13.443   4.292  1.2558  1.3084 -0.7073
75805SOL    HW245026   5.500  13.553   4.201  0.4787  0.0696 -1.8115
75806SOL     OW45027   0.010  13.255   3.937  0.1814  0.2600 -0.0052
75806SOL    HW145028   0.059  13.183   3.896 -1.0811 -0.2220 -0.7622
75806SOL    HW245029  -0.069  13.262   3.883 -0.1548  1.5981  0.6378
75807SOL     OW45030   7.127  12.987   1.648  0.2239 -0.2667 -0.3757
75807SOL    HW145031   7.181  12.909   1.632  0.7998 -0.0997  0.6393
75807SOL    HW245032   7.038  12.954   1.651  0.4037 -0.7851 -0.6189
75808SOL     OW45033   0.733   9.644   6.691  0.3953 -0.1847  0.3700
75808SOL    HW145034   0.827   9.653   6.704  0.9531 -2.3433 -1.4260
75808SOL    HW245035   0.707   9.570   6.747  0.3477 -1.3097 -1.0744
75809SOL     OW45036  12.958   4.949   5.692 -0.6095  0.7331  0.1516
75809SOL    HW145037  13.022   4.970   5.624 -0.9519 -1.2804 -0.8658
75809SOL    HW245038  13.002   4.968   5.774 -0.1637  3.2183 -0.5535
75810SOL     OW45039   7.949   7.063   9.496 -0.6067  0.6208 -0.0995
75810SOL    HW145040   7.862   7.044   9.461 -0.8398  0.3998  0.5896
75810SOL    HW245041   7.991   6.978   9.504  0.7440  0.8634 -3.0375
75811SOL     OW45042   4.240   4.783   8.566  0.4719 -0.8255 -0.5367
75811SOL    HW145043   4.311   4.757   8.626  0.2871 -2.6336 -1.0485
75811SOL    HW245044   4.181   4.709   8.566 -1.2594  0.4920 -0.4419
75812SOL     OW45045  11.137   2.354  12.734 -0.1124  0.2626 -0.1280
75812SOL    HW145046  11.213   2.303  12.761 -0.8769 -0.5820  0.5230
75812SOL    HW245047  11.164   2.445  12.742  0.3248  0.0096  1.6992
75813SOL     OW45048  13.345   6.755   7.316 -0.1759 -0.4469  0.0244
75813SOL    HW145049  13.367   6.665   7.337  1.8131  0.1510  0.6955
75813SOL    HW245050  13.307   6.790   7.396  0.8544 -0.1674  0.4078
75814SOL     OW45051   3.934   6.322   1.814  0.0592  0.2378 -0.1217
75814SOL    HW145052   3.871   6.290   1.750 -0.0955  1.1313 -0.4397
75814SOL    HW245053   3.903   6.288   1.898 -0.5727  0.2630 -0.3397
75815SOL     OW45054   3.373   8.276   1.400  0.0496 -0.1128 -0.2390
75815SOL    HW145055   3.376   8.362   1.360  0.1948  1.1591  2.2815
75815SOL    HW245056   3.460   8.238   1.383  0.4529  0.7996 -0.2483
75816SOL     OW45057  13.712  11.550  13.131  0.1103  0.0395  0.1031
75816SOL    HW145058  13.747  11.460  13.132 -0.7711 -0.3748 -1.6799
75816SOL    HW245059  13.655  11.554  13.208  0.3154 -0.8579  0.3199
75817SOL     OW45060   9.112   2.022  11.416  0.1594 -0.1697  0.0805
75817SOL    HW145061   9.164   2.102  11.413 -0.7239  0.4362  0.3488
75817SOL    HW245062   9.164   1.961  11.469  0.9402  0.1451 -0.3168
75818SOL     OW45063  12.681  12.779   1.466  0.1970 -0.2700  0.2007
75818SOL    HW145064  12.708  12.778   1.374  0.5196 -0.6168  0.2964
75818SOL    HW245065  12.755  12.821   1.511  1.1250 -2.2479  0.6221
75819SOL     OW45066   1.666   6.223   2.871  0.4879  0.1891 -0.3638
75819SOL    HW145067   1.744   6.248   2.820  0.4774  2.4640  0.6230
75819SOL    HW245068   1.691   6.237   2.962 -0.3395 -1.3717  0.1488
75820SOL     OW45069  13.970   2.172   8.618 -0.1118 -0.4162 -0.0468
75820SOL    HW145070  14.041   2.169   8.554 -0.2906  0.3390 -0.2995
75820SOL    HW245071  13.928   2.086   8.612  0.2223 -0.5494 -0.5454
75821SOL     OW45072   6.269  12.232   6.779  0.0101  0.0024  0.4644
75821SOL    HW145073   6.362  12.255   6.776  0.1642 -0.4518  1.4283
75821SOL    HW245074   6.268  12.136   6.778 -0.5241 -0.0111 -0.9839
75822SOL     OW45075  12.018   4.822   3.018  0.2802 -0.2552 -0.4677
75822SOL    HW145076  11.975   4.771   2.949  1.3607  0.1570 -1.4758
75822SOL    HW245077  12.036   4.907   2.977  2.9453 -0.7367 -0.4762
75823SOL     OW45078   4.056  11.606   6.240  0.1857 -0.3555  0.1013
75823SOL    HW145079   3.993  11.664   6.283  0.3812 -0.0688  0.0032
75823SOL    HW245080   4.051  11.629   6.148  1.4791  0.7013  0.2555
75824SOL     OW45081  12.121  11.682  12.836 -0.4328 -0.3225  0.4649
75824SOL    HW145082  12.034  11.721  12.837  0.2715  1.2957  0.6190
75824SOL    HW245083  12.109  11.596  12.878 -1.9523 -0.1747  0.3852
75825SOL     OW45084   9.123  10.168   5.484  0.2852 -0.7460 -0.1426
75825SOL    HW145085   9.054  10.182   5.420  0.1690 -1.1722 -0.1104
75825SOL    HW245086   9.127  10.250   5.533  2.2118  0.6720 -2.4266
75826SOL     OW45087  11.769   8.822   6.111 -0.6700  0.8439 -0.3269
75826SOL    HW145088  11.737   8.887   6.173  1.5646  0.8900  0.8901
75826SOL    HW245089  11.865   8.827   6.118 -0.2752 -3.9385  1.4460
75827SOL     OW45090   2.711   5.809   7.042  0.0496 -0.2958  0.8472
75827SOL    HW145091   2.734   5.806   7.135  1.8004  0.1249  0.4648
75827SOL    HW245092   2.723   5.901   7.018  1.3805 -0.7119 -0.1895
75828SOL     OW45093  13.211   5.794   3.601  0.0802 -0.0141 -0.3994
75828SOL    HW145094  13.230   5.716   3.653 -0.0272 -0.6190 -1.2472
75828SOL    HW245095  13.230   5.768   3.511 -3.1550 -0.2065 -1.1655
75829SOL     OW45096   8.437  11.752  12.365  0.5413  0.5489 -0.4313
75829SOL    HW145097   8.482  11.700  12.299 -1.0095 -1.8424  0.2810
75829SOL    HW245098   8.363  11.792  12.318  0.5386  0.4138 -0.5415
75830SOL     OW45099  12.730   3.541  12.383 -0.0615 -0.2437  0.0240
75830SOL    HW145100  12.640   3.557  12.414  0.2139 -3.3921  3.1386
75830SOL    HW245101  12.781   3.535  12.464  3.0353  1.3588 -1.6622
75831SOL     OW45102   8.315   7.172   5.512 -0.0449  0.2771 -0.7411
75831SOL    HW145103   8.309   7.118   5.433 -0.0371 -1.3427  0.3117
75831SOL    HW245104   8.409   7.176   5.531  0.1327  2.2107 -1.7868
75832SOL     OW45105  11.812   4.470   0.133 -0.5530 -0.0749 -0.3536
75832SOL    HW145106  11.872   4.402   0.163  1.2740  2.1694  1.4094
75832SOL    HW245107  11.810   4.460   0.038  1.1895 -1.3686 -0.3005
75833SOL     OW45108   9.307   0.480  11.910 -0.2157 -0.2956 -0.1449
75833SOL    HW145109   9.373   0.422  11.946  0.2100 -0.1821 -0.7243
75833SOL    HW245110   9.357   0.548  11.864 -0.6966 -1.3796 -2.4428
75834SOL     OW45111   1.674  11.666   0.047 -0.1834  0.5607  0.3551
75834SOL    HW145112   1.709  11.705  -0.034 -1.1102  0.1062 -0.2810
75834SOL    HW245113   1.711  11.578   0.049 -1.4610 -0.0294 -0.4750
75835SOL     OW45114  13.156  11.308   9.325 -0.0271 -0.4837 -0.1844
75835SOL    HW145115  13.198  11.222   9.327  0.5091 -0.2199  0.2329
75835SOL    HW245116  13.228  11.370   9.315 -0.3854 -0.0675 -0.2254
75836SOL     OW45117  10.648   8.262  13.238 -0.3951 -0.1800  0.1299
75836SOL    HW145118  10.716   8.196  13.252  0.7772  1.3363  2.1973
75836SOL    HW245119  10.565   8.213  13.247  0.4228 -1.3600  1.8996
75837SOL     OW45120   9.973   4.615   0.693  0.7312  0.0205 -0.2157
75837SOL    HW145121  10.053   4.663   0.673  0.2921  0.3728 -1.2073
75837SOL    HW245122   9.978   4.536   0.640  0.3869  0.0837 -0.3464
75838SOL     OW45123   0.173   0.759   4.787  0.0503  0.2963 -0.0941
75838SOL    HW145124   0.182   0.664   4.787 -1.4920  0.0852  2.0943
75838SOL    HW245125   0.187   0.785   4.878 -1.0952  1.9688 -0.3469
75839SOL     OW45126   2.127  10.724   5.239 -0.2430 -0.1511 -0.0079
75839SOL    HW145127   2.161  10.810   5.215  1.3662 -1.3274 -2.4560
75839SOL    HW245128   2.182  10.696   5.312 -0.9151  0.9568  0.9413
75840SOL     OW45129  13.229   7.769   1.817 -0.2531 -0.1093  0.2873
75840SOL    HW145130  13.143   7.776   1.775  0.0899 -0.0853 -0.4312
75840SOL    HW245131  13.264   7.686   1.786  1.0402  1.0169 -1.5224
75841SOL     OW45132   2.745   9.127  13.163  0.2894  0.0262 -0.1113
75841SOL    HW145133   2.820   9.104  13.108 -0.5184 -2.6231 -0.2256
75841SOL    HW245134   2.676   9.150  13.101 -0.2375 -1.7411 -0.2443
75842SOL     OW45135  10.527   0.457   1.733  0.6827  0.1042 -0.0754
75842SOL    HW145136  10.535   0.395   1.661  3.3735  0.2542 -0.0011
75842SOL    HW245137  10.539   0.405   1.812 -2.3945 -0.0815  0.3902
75843SOL     OW45138   9.613   1.722   5.556 -0.0436 -0.5480  0.1597
75843SOL    HW145139   9.584   1.707   5.646 -1.1069  2.5775  0.4318
75843SOL    HW245140   9.596   1.814   5.540  0.8848 -0.8171 -3.0106
75844SOL     OW45141   6.813   4.458   9.922  0.4875  0.3340  0.2184
75844SOL    HW145142   6.766   4.536   9.952  1.0799  0.9166 -0.3492
75844SOL    HW245143   6.888   4.451   9.981  0.7450  0.5250 -0.0843
75845SOL     OW45144   3.536   0.811   5.951  0.0392 -0.0925  0.3328
75845SOL    HW145145   3.550   0.883   6.012 -0.0894 -0.9318  1.3676
75845SOL    HW245146   3.462   0.840   5.897 -0.5741  0.1834  1.3082
75846SOL     OW45147  12.444   9.632  14.035 -0.6462 -0.1820  0.2672
75846SOL    HW145148  12.420   9.576  14.109 -0.7349  0.8517  1.0443
75846SOL    HW245149  12.404   9.589  13.959 -1.5224 -0.6648  0.9719
75847SOL     OW45150  12.541   3.839  10.785  0.0948  0.3896  0.0177
75847SOL    HW145151  12.520   3.871  10.697  0.1659  0.2662 -0.0441
75847SOL    HW245152  12.554   3.918  10.837  1.4094  0.4765 -0.4013
75848SOL     OW45153   0.606   1.818   1.168  0.2703 -0.0890  0.1999
75848SOL    HW145154   0.550   1.884   1.209  0.5874 -0.6777  1.6465
75848SOL    HW245155   0.595   1.832   1.074  0.2046  1.9059  0.4634
75849SOL     OW45156  10.944   9.031   1.036 -0.5848  0.4514 -0.5695
75849SOL    HW145157  10.934   9.049   1.129  2.0299 -0.1939 -0.0886
75849SOL    HW245158  10.934   9.117   0.994 -2.6066  0.6229  0.1695
75850SOL     OW45159   3.725  14.021  13.011 -0.0332 -0.1860 -0.4246
75850SOL    HW145160   3.704  13.949  12.953  0.5983 -1.0157  0.3444
75850SOL    HW245161   3.805  13.993  13.056 -1.1624 -0.1344  1.7567
75851SOL     OW45162  13.349   8.523   2.848 -0.4536  0.1239  0.0758
75851SOL    HW145163  13.304   8.461   2.791  1.5345 -1.3950  0.0644
75851SOL    HW245164  13.387   8.588   2.788  0.2591 -0.5585 -0.2341
75852SOL     OW45165   5.423  10.910   3.168 -0.2580 -0.1115 -0.6475
75852SOL    HW145166   5.381  10.996   3.174 -1.4261 -0.7918  1.7698
75852SOL    HW245167   5.367  10.860   3.108 -2.9167 -0.9010  2.2616
75853SOL     OW45168  13.153  12.435   6.942  0.3185 -0.4690 -0.1893
75853SOL    HW145169  13.211  12.361   6.925  2.7688  1.2031  0.3796
75853SOL    HW245170  13.206  12.512   6.923 -1.2995  1.1924  1.6044
75854SOL     OW45171  11.096   4.615   4.695  0.0550  0.3596  0.5986
75854SOL    HW145172  11.012   4.655   4.715 -0.7430 -1.0258  0.1230
75854SOL    HW245173  11.094   4.600   4.601  1.6922  2.1687  0.2158
75855SOL     OW45174   0.958  11.363  10.560  0.0549  0.4823 -0.2578
75855SOL    HW145175   0.975  11.408  10.478 -1.8557  0.2093 -0.8418
75855SOL    HW245176   0.941  11.272  10.535 -0.1839  0.3137  0.4723
75856SOL     OW45177  10.480   5.363   1.259 -0.0333  0.0848  0.0244
75856SOL    HW145178  10.395   5.317   1.259 -0.1260  0.1319  2.2444
75856SOL    HW245179  10.457   5.455   1.265  0.1902  0.1954 -0.7069
75857SOL     OW45180   1.118   7.173  13.475  0.1398 -0.1331 -0.0328
75857SOL    HW145181   1.079   7.149  13.390  0.9537 -0.4292 -0.3363
75857SOL    HW245182   1.198   7.220  13.451 -0.4461  1.2229  0.5747
75858SOL     OW45183  13.876  11.948  12.252  0.0862  0.3596 -0.1018
75858SOL    HW145184  13.850  11.938  12.343 -0.2801 -1.9099 -0.3894
75858SOL    HW245185  13.848  12.036  12.228 -2.6349 -0.0752  1.1123
75859SOL     OW45186   9.678  12.438   5.022 -0.1598  0.2937 -0.0435
75859SOL    HW145187   9.757  12.385   5.031  0.2726  0.4884 -2.2026
75859SOL    HW245188   9.606  12.376   5.035  0.3375 -0.1975  0.4051
75860SOL     OW45189   0.282   1.913   4.073 -0.5132 -0.2288 -0.3089
75860SOL    HW145190   0.207   1.935   4.128 -0.6254  0.5935 -0.7852
75860SOL    HW245191   0.353   1.894   4.136 -0.8358 -0.0135  0.1238
75861SOL     OW45192   7.970   9.435   6.312 -0.0160  0.7243  0.1757
75861SOL    HW145193   7.958   9.524   6.343  1.6288  0.6647  1.0996
75861SOL    HW245194   7.951   9.439   6.218 -0.2084  1.9729  0.2574
75862SOL     OW45195  11.629   7.309   6.215  0.1717 -0.8329 -0.4131
75862SOL    HW145196  11.543   7.343   6.241  0.3922 -0.3283 -0.3411
75862SOL    HW245197  11.676   7.385   6.181  1.7491 -0.3664  2.4902
75863SOL     OW45198   0.865   0.607   9.159  0.1330  0.0090  0.4962
75863SOL    HW145199   0.928   0.676   9.137  0.1329 -0.5856 -1.5244
75863SOL    HW245200   0.913   0.549   9.218  0.6819  0.8070  0.8571
75864SOL     OW45201   2.456  11.103   0.086 -0.3542  0.2864  0.2141
75864SOL    HW145202   2.435  11.108  -0.008  0.8067  0.7964 -0.0445
75864SOL    HW245203   2.435  11.191   0.119 -1.6963 -0.1861  0.6586
75865SOL     OW45204   5.067   2.074   7.886  0.9038 -0.3294 -0.4607
75865SOL    HW145205   5.010   2.146   7.914  0.6380 -0.4454 -0.7019
75865SOL    HW245206   5.007   2.007   7.853  1.1521 -0.6593 -0.2483
75866SOL     OW45207   3.115  10.754   7.633  0.2166  0.6588 -0.3592
75866SOL    HW145208   3.066  10.678   7.602  0.3241  0.3352  0.2506
75866SOL    HW245209   3.160  10.786   7.555 -0.3053  0.4606 -0.7479
75867SOL     OW45210   5.845   9.232   9.027  0.5620  0.0717  0.0476
75867SOL    HW145211   5.906   9.212   8.956 -0.5445 -1.3650 -0.5556
75867SOL    HW245212   5.769   9.271   8.983  0.2679  0.0734  0.5531
75868SOL     OW45213  12.674   7.063   2.125  0.2289 -0.0814 -0.1685
75868SOL    HW145214  12.670   7.101   2.037  1.6751  0.1083 -0.1796
75868SOL    HW245215  12.583   7.063   2.155  0.0438  2.9808 -0.3627
75869SOL     OW45216   6.273   3.683   2.557 -0.8113  0.2351 -0.5261
75869SOL    HW145217   6.365   3.660   2.562 -0.4740  1.4371 -0.9586
75869SOL    HW245218   6.257   3.738   2.633 -1.0816  0.3306 -0.6501
75870SOL     OW45219  11.865  11.177  11.357  0.2048  0.4901 -0.2535
75870SOL    HW145220  11.931  11.242  11.335  0.8165 -0.0142  0.0698
75870SOL    HW245221  11.823  11.211  11.436  0.1648  0.7392 -0.3787
75871SOL     OW45222   0.854   7.048   1.153  0.4026 -0.1199  0.0400
75871SOL    HW145223   0.801   7.011   1.224  2.0637 -0.7314  1.0174
75871SOL    HW245224   0.875   7.137   1.183 -0.4198  0.2970 -0.5664
75872SOL     OW45225   9.745  10.668   1.854 -0.4683 -0.0324 -0.0673
75872SOL    HW145226   9.745  10.740   1.790 -1.1054 -0.3952 -0.4896
75872SOL    HW245227   9.721  10.710   1.937 -0.3036  0.3321 -0.2009
75873SOL     OW45228   1.382   6.825  13.555  0.5389 -0.8757 -0.2285
75873SOL    HW145229   1.360   6.763  13.624 -0.4311 -2.2863 -1.7250
75873SOL    HW245230   1.441   6.888  13.597  0.0473 -1.7134  1.8278
75874SOL     OW45231   7.426   7.360  13.867  0.4246 -0.5820  0.3243
75874SOL    HW145232   7.330   7.360  13.871  0.4196 -0.9168  0.2273
75874SOL    HW245233   7.453   7.319  13.950  0.5016  0.1528  0.6718
75875SOL     OW45234   5.908   4.386  11.400  0.3843 -0.1766  0.3283
75875SOL    HW145235   5.916   4.405  11.493  0.0872  1.1661  0.1014
75875SOL    HW245236   5.874   4.296  11.396 -2.4286  0.7024  1.6106
75876SOL     OW45237   8.275   6.963   0.966 -0.1147  0.6362  0.0313
75876SOL    HW145238   8.239   7.007   1.043  1.1883 -0.4499  1.3180
75876SOL    HW245239   8.294   6.874   0.996  0.3174  0.1473 -1.5877
75877SOL     OW45240   5.820   8.657   0.638  0.8585 -0.3788 -0.1365
75877SOL    HW145241   5.732   8.651   0.599 -0.3937  1.6985  2.1206
75877SOL    HW245242   5.874   8.602   0.581 -1.8579 -1.7427 -1.6536
75878SOL     OW45243   6.395   2.676   6.854 -0.2224 -0.2158 -0.1261
75878SOL    HW145244   6.395   2.772   6.857  0.2669 -0.2407  1.0663
75878SOL    HW245245   6.450   2.656   6.778 -0.7016  0.4413 -0.6664
75879SOL     OW45246   5.515   9.711   3.800 -0.3985 -0.2345 -0.2500
75879SOL    HW145247   5.420   9.706   3.807 -0.3039 -0.5024  0.9156
75879SOL    HW245248   5.547   9.630   3.839  0.4086  1.1352  2.1397
75880SOL     OW45249   0.581   3.672   9.128  0.3511  0.3368 -0.0846
75880SOL    HW145250   0.586   3.764   9.154 -0.4584  0.5845 -0.7740
75880SOL    HW245251   0.497   3.642   9.163  1.0113 -0.4206  0.9486
75881SOL     OW45252  13.069  13.569   8.856  0.2528  0.0624 -0.0796
75881SOL    HW145253  13.153  13.555   8.813 -0.6695 -0.9983 -1.6937
75881SOL    HW245254  13.010  13.507   8.812 -1.3327  0.6720  1.0973
75882SOL     OW45255  11.066   0.861   9.333  0.2221 -0.4408  0.1322
75882SOL    HW145256  11.086   0.787   9.391  0.7198 -2.7278 -2.6890
75882SOL    HW245257  11.149   0.882   9.291 -0.4867 -0.3862 -1.3126
75883SOL     OW45258  12.827   8.519   6.227 -0.2210  0.0615  0.1451
75883SOL    HW145259  12.735   8.500   6.208 -0.7843  1.5901  1.1225
75883SOL    HW245260  12.847   8.598   6.177  0.7583 -0.5924 -0.5239
75884SOL     OW45261   4.012   2.850   2.427 -0.2113  0.2303 -0.1103
75884SOL    HW145262   3.953   2.896   2.487  0.0278 -0.5102  0.7222
75884SOL    HW245263   4.090   2.906   2.422 -0.6260  0.7768 -0.5125
75885SOL     OW45264   4.327   0.522   6.959  0.8421  0.0242  0.2083
75885SOL    HW145265   4.370   0.455   7.012  0.7524 -0.7767 -0.7113
75885SOL    HW245266   4.253   0.550   7.013  1.9633  0.7737  1.4151
75886SOL     OW45267  11.607  11.253   8.219  0.2830  0.2800  0.5014
75886SOL    HW145268  11.630  11.164   8.192 -0.4550  0.5125 -1.0133
75886SOL    HW245269  11.586  11.245   8.312 -1.3900 -1.4882  0.0592
75887SOL     OW45270  10.716   2.377  10.139  0.3526 -0.7811 -0.2164
75887SOL    HW145271  10.723   2.447  10.204 -0.2072  0.4275 -1.4048
75887SOL    HW245272  10.626   2.384  10.107  0.2919 -2.0581 -0.3590
75888SOL     OW45273   8.675  13.371   3.556  0.4542  0.0613 -0.1693
75888SOL    HW145274   8.583  13.346   3.551 -0.0227 -0.0592  4.6363
75888SOL    HW245275   8.674  13.466   3.558  0.1234  0.0593  1.8008
75889SOL     OW45276   6.822   5.036   4.393 -0.4482 -0.1300  0.1796
75889SOL    HW145277   6.784   4.994   4.470 -0.9639  0.6502  0.3566
75889SOL    HW245278   6.797   5.128   4.400 -0.0749  0.0486 -0.6586
75890SOL     OW45279  13.490   8.628   6.574  0.3061  0.2276  0.5862
75890SOL    HW145280  13.543   8.688   6.522 -0.4746  0.4171 -0.0036
75890SOL    HW245281  13.471   8.556   6.515 -2.2852  1.3791 -0.0996
75891SOL     OW45282   2.351   6.269   2.272  0.5100 -0.1016 -0.1655
75891SOL    HW145283   2.368   6.222   2.354 -1.5826 -0.1277  0.3201
75891SOL    HW245284   2.263   6.306   2.284  1.3591  2.4595 -1.2306
75892SOL     OW45285   8.333  13.043   9.605  0.9497 -0.5313  0.4370
75892SOL    HW145286   8.244  13.067   9.629  0.8260 -0.5728  0.0228
75892SOL    HW245287   8.374  13.126   9.580  0.5816 -0.7158 -0.8044
75893SOL     OW45288   8.489   2.791   8.245  0.6356 -0.3040 -0.3107
75893SOL    HW145289   8.396   2.778   8.228  0.4716 -0.7029  0.8284
75893SOL    HW245290   8.533   2.741   8.176 -0.0014 -1.8051  0.3174
75894SOL     OW45291  10.999   9.235  12.423  0.0727 -0.2146 -0.1548
75894SOL    HW145292  10.994   9.169  12.354 -0.3405  0.3702 -0.6868
75894SOL    HW245293  11.062   9.199  12.486 -0.7383 -1.4885 -0.0358
75895SOL     OW45294   0.278   2.768   7.041  0.2055  0.8782 -0.0160
75895SOL    HW145295   0.317   2.686   7.011  1.4205  1.7274 -0.8907
75895SOL    HW245296   0.236   2.804   6.963  0.3395  1.4404  0.1690
75896SOL     OW45297   3.082   3.876  10.699  0.6691 -0.0623  0.8131
75896SOL    HW145298   3.019   3.948  10.702  0.7368  0.0701 -0.4515
75896SOL    HW245299   3.110   3.865  10.790 -0.8343  0.1670  1.3272
75897SOL     OW45300   3.038   3.424   4.375 -0.0672  0.4547  0.1306
75897SOL    HW145301   3.012   3.372   4.299  2.6132 -0.0859 -0.4883
75897SOL    HW245302   3.044   3.514   4.341 -0.5313  0.5046  0.1630
75898SOL     OW45303   3.928   5.244   4.955 -0.1433 -0.7135 -0.4653
75898SOL    HW145304   3.919   5.246   5.050  1.4718  0.3820 -0.2978
75898SOL    HW245305   3.907   5.153   4.931 -1.4318 -0.7842  0.8044
75899SOL     OW45306   8.267  12.780  11.095 -0.3350 -0.2805 -0.0763
75899SOL    HW145307   8.289  12.751  11.184 -0.6211 -0.1478  0.0384
75899SOL    HW245308   8.255  12.699  11.046 -0.3041 -0.3545  0.0372
75900SOL     OW45309   0.523  10.770   3.434 -0.0630 -0.3986 -0.1276
75900SOL    HW145310   0.439  10.768   3.481 -0.0567  0.0042 -0.0930
75900SOL    HW245311   0.557  10.681   3.443  0.0221 -0.2858  0.7932
75901SOL     OW45312   5.948   1.977  10.931 -0.1913  0.7120 -0.1537
75901SOL    HW145313   5.864   1.947  10.965 -0.1531 -0.1606 -0.8153
75901SOL    HW245314   5.952   1.943  10.842  1.2474 -0.0170  0.1603
75902SOL     OW45315  13.411   2.710   9.567 -0.5443  0.6897  0.6266
75902SOL    HW145316  13.474   2.780   9.581  1.8879 -1.5988  2.0782
75902SOL    HW245317  13.381   2.722   9.477  1.9092  1.9627 -0.1037
75903SOL     OW45318   4.554   2.492  13.982 -0.6458 -0.5511 -0.7184
75903SOL    HW145319   4.496   2.518  13.910 -1.0769  3.2025  0.7394
75903SOL    HW245320   4.639   2.481  13.941 -0.8950  1.4170 -1.9166
75904SOL     OW45321  13.941   6.868   4.835 -0.2491  0.0346  0.0254
75904SOL    HW145322  13.894   6.931   4.889 -2.1130 -0.0623 -1.3747
75904SOL    HW245323  13.922   6.894   4.745 -0.4985 -2.0738 -0.6007
75905SOL     OW45324  11.323   7.561   3.440 -0.1384 -0.0361 -0.2008
75905SOL    HW145325  11.255   7.574   3.506  0.9963 -0.1118  1.0410
75905SOL    HW245326  11.402   7.542   3.491  0.9503  0.6326 -1.5590
75906SOL     OW45327  12.390  12.432   5.007  0.5058  0.1471 -0.1952
75906SOL    HW145328  12.338  12.417   4.928  0.6107 -0.8619 -0.0840
75906SOL    HW245329  12.480  12.439   4.975  0.7325 -1.7141 -0.0435
75907SOL     OW45330   6.860   5.846   8.468  0.1693 -0.5177 -0.6414
75907SOL    HW145331   6.833   5.936   8.454  1.3282 -0.3246 -1.9055
75907SOL    HW245332   6.813   5.796   8.401  0.0429 -0.7397 -0.3869
75908SOL     OW45333   2.607   2.912  12.816 -0.8254  0.3281  0.0912
75908SOL    HW145334   2.617   2.847  12.886 -0.2713  0.1655 -0.1353
75908SOL    HW245335   2.677   2.975  12.831 -0.6195  0.2185 -0.3938
75909SOL     OW45336  13.037   1.443   2.630 -0.1164 -0.4977  0.0852
75909SOL    HW145337  13.071   1.461   2.542  2.9394 -2.4477  0.7204
75909SOL    HW245338  12.955   1.396   2.615  0.0824 -0.3588 -1.6997
75910SOL     OW45339   9.048   2.574   3.479 -0.3004 -0.3833 -0.1122
75910SOL    HW145340   9.050   2.624   3.561  1.6444  0.1071 -0.4016
75910SOL    HW245341   9.004   2.632   3.417  0.0790  0.1071  0.0708
75911SOL     OW45342   5.300  12.105   6.071  0.2261  0.8453 -0.3902
75911SOL    HW145343   5.221  12.059   6.100  0.8849  0.8878  1.6112
75911SOL    HW245344   5.302  12.092   5.976 -0.8469 -1.2953 -0.1773
75912SOL     OW45345  12.874   0.159   1.690  0.0893 -0.2589  0.4763
75912SOL    HW145346  12.913   0.103   1.623  2.0786  0.7882  0.6754
75912SOL    HW245347  12.832   0.098   1.751 -0.2465 -1.3265 -0.7941
75913SOL     OW45348   8.407   9.608   2.696  0.1642 -0.2646 -0.2712
75913SOL    HW145349   8.486   9.576   2.740  0.4431  1.1449  0.3333
75913SOL    HW245350   8.441   9.649   2.615  0.0051 -0.1115 -0.2615
75914SOL     OW45351   3.768   7.344   3.287  0.0322 -0.0987  0.1554
75914SOL    HW145352   3.700   7.386   3.340 -0.7777  0.2811 -1.1588
75914SOL    HW245353   3.847   7.349   3.342 -1.0134 -0.7304  1.7784
75915SOL     OW45354   5.188   6.329   1.102  0.4704  0.7170 -0.8073
75915SOL    HW145355   5.261   6.306   1.159 -0.3640  0.0699  0.0327
75915SOL    HW245356   5.129   6.253   1.107 -1.9520  2.5852  1.3260
75916SOL     OW45357   1.053   8.591   5.586  0.6689  0.0033 -0.2671
75916SOL    HW145358   1.063   8.687   5.585  0.8172 -0.0108 -0.1981
75916SOL    HW245359   1.142   8.558   5.581  0.6274 -0.1312 -0.1263
75917SOL     OW45360  11.510   8.681  10.691 -0.3297  0.1220  0.3381
75917SOL    HW145361  11.544   8.716  10.773 -1.0212  0.8252  0.3396
75917SOL    HW245362  11.538   8.590  10.690 -1.2241 -0.2103  1.8777
75918SOL     OW45363  12.573  14.068   1.538  0.0659 -0.2265 -0.4897
75918SOL    HW145364  12.478  14.076   1.529  0.0514  0.7846  0.3807
75918SOL    HW245365  12.594  14.121   1.615  0.7541 -3.8625  2.1590
75919SOL     OW45366  12.042  10.878   8.246  0.0360  0.5225  0.6318
75919SOL    HW145367  12.006  10.844   8.165 -1.7975 -0.3282  1.7337
75919SOL    HW245368  12.088  10.804   8.285  1.8103  1.2065 -0.0652
75920SOL     OW45369  10.657   9.926  11.277 -0.0324 -0.0770 -0.1995
75920SOL    HW145370  10.648   9.971  11.192 -2.6889  2.0083  1.0467
75920SOL    HW245371  10.707   9.987  11.331  0.3535 -0.7376  0.1997
75921SOL     OW45372  12.611   9.572   1.191  0.0190  0.1606 -0.1479
75921SOL    HW145373  12.615   9.666   1.205 -0.5058  0.2854 -0.7780
75921SOL    HW245374  12.532   9.544   1.239  1.6440 -0.4192  2.3607
75922SOL     OW45375   2.200   6.251   3.623 -0.0675  0.5036 -0.2520
75922SOL    HW145376   2.250   6.212   3.552  0.6762  0.8056  0.0982
75922SOL    HW245377   2.112   6.213   3.615  0.4299 -0.6436 -0.3716
75923SOL     OW45378   4.153   5.540   6.752  0.0722  0.7781 -0.1230
75923SOL    HW145379   4.150   5.447   6.774  0.0933  0.4074 -1.5445
75923SOL    HW245380   4.065   5.560   6.721 -0.2065  1.4910  1.0675
75924SOL     OW45381   1.009   4.309   6.862  0.4007  0.0753  0.3164
75924SOL    HW145382   0.915   4.292   6.857  0.0464  1.8366  0.2794
75924SOL    HW245383   1.025   4.330   6.954  0.9292 -0.9565  0.4818
75925SOL     OW45384   9.711  10.171   9.174  0.3934 -0.1539 -0.9148
75925SOL    HW145385   9.660  10.132   9.103 -0.1035  0.4801 -0.9216
75925SOL    HW245386   9.707  10.265   9.157 -0.3804  0.0791  0.3538
75926SOL     OW45387  10.677   0.046   2.658 -0.6527  0.1401  0.1955
75926SOL    HW145388  10.712   0.028   2.571 -1.2658 -0.7720  0.1227
75926SOL    HW245389  10.655   0.139   2.656 -0.9870  0.0559 -0.7529
75927SOL     OW45390  13.989  13.499   6.326  0.0016  0.0901 -0.3960
75927SOL    HW145391  14.041  13.580   6.326 -1.5679  1.2818  2.7654
75927SOL    HW245392  13.900  13.529   6.311 -0.3996 -1.3106 -0.9285
75928SOL     OW45393   5.977  10.378   0.102  0.0095 -0.3981 -0.0707
75928SOL    HW145394   6.020  10.306   0.148 -0.9348 -0.0326  1.4538
75928SOL    HW245395   6.045  10.414   0.045  1.1484 -1.0486  0.8397
75929SOL     OW45396   8.770  11.126   1.989 -0.1359 -0.3439 -0.3831
75929SOL    HW145397   8.784  11.207   1.941  1.7492 -0.5251 -0.2281
75929SOL    HW245398   8.786  11.057   1.924  0.0556 -0.5844 -0.0851
75930SOL     OW45399   4.281   7.458   3.987 -0.0210 -0.4447  0.0752
75930SOL    HW145400   4.272   7.544   3.945  0.2400  0.2617  1.4134
75930SOL    HW245401   4.337   7.408   3.928 -0.1609  0.2988 -0.7148
75931SOL     OW45402   7.484  13.873   5.216  0.5429 -0.3830 -0.5532
75931SOL    HW145403   7.494  13.800   5.155  0.0468 -0.1888 -0.8786
75931SOL    HW245404   7.539  13.942   5.179 -1.6337  0.6199 -2.2355
75932SOL     OW45405   5.873   6.691   6.480 -0.2404  0.0459  0.4103
75932SOL    HW145406   5.800   6.652   6.431 -1.2614 -1.4466  2.9053
75932SOL    HW245407   5.941   6.624   6.477 -1.2907 -1.3195  3.0757
75933SOL     OW45408   3.898   3.608   1.598  0.7419 -0.2697 -0.8636
75933SOL    HW145409   3.877   3.671   1.667  0.1532 -0.5739 -0.7562
75933SOL    HW245410   3.821   3.551   1.594  1.3874 -1.1587 -0.7568
75934SOL     OW45411   7.761   2.661   2.259 -0.3874 -0.2244 -0.3307
75934SOL    HW145412   7.674   2.693   2.235  0.2889  1.3464 -0.8122
75934SOL    HW245413   7.774   2.693   2.348  0.5662  1.5575 -1.0538
75935SOL     OW45414  11.571  11.981   1.004 -0.4864 -0.5558 -0.1154
75935SOL    HW145415  11.486  12.015   0.978 -0.2783  0.0441 -0.0176
75935SOL    HW245416  11.581  11.901   0.952 -0.8127 -0.2708 -0.6289
75936SOL     OW45417   9.888  11.288  12.273  0.1388  0.0460  0.0563
75936SOL    HW145418   9.952  11.221  12.251  1.2972  0.9313  0.6350
75936SOL    HW245419   9.804  11.242  12.270  0.6333 -0.8540 -1.9711
75937SOL     OW45420   1.963   5.165   7.123  0.3712  0.3207 -0.2898
75937SOL    HW145421   1.984   5.252   7.158  0.6856 -0.1503  0.7242
75937SOL    HW245422   1.979   5.173   7.029 -0.7722  1.6982 -0.4083
75938SOL     OW45423   0.522  11.106  14.031 -0.1512 -0.3153  0.1132
75938SOL    HW145424   0.524  11.013  14.056 -0.7932 -0.1376  0.8537
75938SOL    HW245425   0.429  11.126  14.020 -0.1533  0.6579  1.5928
75939SOL     OW45426   3.032   6.170   4.128 -0.5139 -0.0079 -0.3227
75939SOL    HW145427   3.115   6.127   4.107 -0.2581  0.2885  0.0697
75939SOL    HW245428   2.972   6.097   4.148 -0.4007 -0.2300 -0.7739
75940SOL     OW45429   3.505   8.754   8.010 -0.1313  0.4586  0.0777
75940SOL    HW145430   3.484   8.832   8.062  2.7500  1.3058  0.1490
75940SOL    HW245431   3.601   8.748   8.014 -0.0909 -1.6457 -2.0555
75941SOL     OW45432  13.804   4.287  11.652  0.3623 -0.1925 -0.2608
75941SOL    HW145433  13.793   4.295  11.557  0.2024  0.0612 -0.2225
75941SOL    HW245434  13.811   4.377  11.683  2.1249 -0.3054 -0.2234
75942SOL     OW45435   4.141  13.430   1.587 -0.3839 -0.4403 -0.6502
75942SOL    HW145436   4.089  13.363   1.632 -0.4223  0.4430  0.6672
75942SOL    HW245437   4.220  13.438   1.640  0.7383 -1.1257 -2.1378
75943SOL     OW45438   4.672  10.851   1.377  0.4679 -0.2077 -0.4483
75943SOL    HW145439   4.677  10.842   1.472  0.0254 -1.2769 -0.5091
75943SOL    HW245440   4.727  10.781   1.343 -0.8077 -0.9978 -0.9676
75944SOL     OW45441  12.502  11.633   8.468  0.1357  0.2858  0.3505
75944SOL    HW145442  12.571  11.672   8.521  0.3483  2.8351 -1.6292
75944SOL    HW245443  12.521  11.539   8.468  3.3921  0.8413  0.2133
75945SOL     OW45444   6.717   8.365   5.174  0.4509 -0.5288 -0.4478
75945SOL    HW145445   6.808   8.351   5.199  0.5084  0.3520 -0.1451
75945SOL    HW245446   6.670   8.290   5.213  0.7360  0.1132  1.2128
75946SOL     OW45447   7.103   9.254   3.087 -0.3194 -0.4311 -0.4232
75946SOL    HW145448   7.021   9.249   3.136  0.4464 -1.2924  0.8259
75946SOL    HW245449   7.098   9.339   3.042 -1.3770  0.0713  0.5709
75947SOL     OW45450   1.375  12.976  13.678 -0.3334  0.1987 -0.0409
75947SOL    HW145451   1.385  13.064  13.713  0.9210  0.7182 -1.5856
75947SOL    HW245452   1.423  12.977  13.595 -3.0216 -0.9400 -1.7875
75948SOL     OW45453   9.947   8.184   4.264 -0.0090 -0.5638  0.0310
75948SOL    HW145454  10.006   8.236   4.319  0.1706 -1.9405  1.1957
75948SOL    HW245455   9.921   8.244   4.193  1.2020  0.6853  0.5956
75949SOL     OW45456   0.462   7.172   8.216  0.1412  0.1338 -0.4169
75949SOL    HW145457   0.534   7.225   8.248 -0.8556  1.1995  0.1561
75949SOL    HW245458   0.402   7.166   8.291  0.1377 -1.6676 -0.5216
75950SOL     OW45459  13.711  13.898   1.167  0.5360 -0.3070 -0.3655
75950SOL    HW145460  13.626  13.863   1.140  0.5591 -0.7964  0.1705
75950SOL    HW245461  13.701  13.916   1.260  1.6705 -2.4611  0.2521
75951SOL     OW45462   3.494   1.309  11.056 -0.1896 -0.2608 -0.5141
75951SOL    HW145463   3.580   1.270  11.041 -0.0734 -0.4713  0.5984
75951SOL    HW245464   3.511   1.380  11.118 -0.8294 -0.3685 -0.2095
75952SOL     OW45465  13.513   9.759   8.825 -0.5993  0.4784 -0.3044
75952SOL    HW145466  13.475   9.693   8.767  1.3806 -0.2077 -0.9028
75952SOL    HW245467  13.505   9.721   8.913  0.8625 -0.8032 -0.6741
75953SOL     OW45468  12.581  10.891   8.937 -0.0483  0.0935  0.3348
75953SOL    HW145469  12.498  10.858   8.904 -0.1735  1.5686 -0.9226
75953SOL    HW245470  12.602  10.965   8.880  0.8430  1.3714  2.2212
75954SOL     OW45471  12.478  12.686   9.174 -0.0810 -0.1532 -0.2372
75954SOL    HW145472  12.487  12.627   9.249  0.1219 -0.3111 -0.3822
75954SOL    HW245473  12.384  12.697   9.163 -0.0990  0.4780  0.5086
75955SOL     OW45474   9.051   8.960   0.103 -0.2066 -0.0282  0.2816
75955SOL    HW145475   9.018   8.983   0.017  1.4283  0.4597 -0.2520
75955SOL    HW245476   9.110   8.886   0.088  1.5882  1.2479  0.6358
75956SOL     OW45477   8.561   0.876   1.100  0.0632 -0.3204  1.0188
75956SOL    HW145478   8.622   0.826   1.154  0.2640 -0.9642  0.2069
75956SOL    HW245479   8.481   0.825   1.100 -0.0338 -0.1694  0.9468
75957SOL     OW45480   5.597   2.504   9.971  0.3406  0.0263 -0.5942
75957SOL    HW145481   5.640   2.450  10.038  0.2758  1.8799  1.0256
75957SOL    HW245482   5.665   2.521   9.907  0.7164 -0.8797 -0.4551
75958SOL     OW45483   0.093   6.697   9.774 -0.1585  0.0409 -0.3971
75958SOL    HW145484   0.052   6.618   9.738 -2.3723  1.9919 -2.4781
75958SOL    HW245485   0.151   6.728   9.705  1.7363 -0.3390  0.9105
75959SOL     OW45486   0.892  13.059  13.537  0.1788  0.2083  0.5080
75959SOL    HW145487   0.900  13.029  13.628 -0.3926 -2.7201 -0.3084
75959SOL    HW245488   0.978  13.093  13.515  0.2619  1.1733  2.1933
75960SOL     OW45489  11.657   2.000   0.612  0.1658  0.0801 -0.1154
75960SOL    HW145490  11.735   1.944   0.611 -1.0226 -1.6932  0.8242
75960SOL    HW245491  11.671   2.062   0.540  1.2302 -1.9485 -1.7726
75961SOL     OW45492   8.827  12.054  10.120 -0.6453  0.4692 -0.2040
75961SOL    HW145493   8.835  11.969  10.164 -0.4988 -0.1758 -1.4059
75961SOL    HW245494   8.782  12.033  10.038  1.6645  1.0949 -1.7161
75962SOL     OW45495   0.423  13.610  11.571 -0.2169 -0.5583  0.0481
75962SOL    HW145496   0.447  13.521  11.598 -0.3879 -0.3998  0.7624
75962SOL    HW245497   0.452  13.665  11.644 -2.6417 -0.3409  0.9523
75963SOL     OW45498   7.183   1.379   2.897  0.0588 -0.1122 -0.3818
75963SOL    HW145499   7.128   1.428   2.959  2.2444  0.1859  1.4662
75963SOL    HW245500   7.220   1.446   2.840 -0.3644 -0.1470 -0.7011
75964SOL     OW45501  10.505   2.973   2.089 -0.1918  0.6896 -0.2102
75964SOL    HW145502  10.430   2.914   2.091  0.2806  0.0956  0.3715
75964SOL    HW245503  10.489   3.034   2.162 -0.1677  0.6366 -0.1605
75965SOL     OW45504  11.385   6.377   4.902  0.0210 -0.5845 -0.1888
75965SOL    HW145505  11.290   6.373   4.895  0.0076 -1.5731  0.3834
75965SOL    HW245506  11.402   6.442   4.970 -0.2802 -1.0471  0.3330
75966SOL     OW45507  10.076   7.546   3.483  0.3799 -0.2167 -0.2348
75966SOL    HW145508  10.034   7.530   3.568 -2.0154 -0.9245 -1.4807
75966SOL    HW245509  10.091   7.459   3.447  0.6567  0.0991 -0.8860
75967SOL     OW45510   6.482   2.783  10.799 -0.4852 -0.0100 -0.1848
75967SOL    HW145511   6.531   2.769  10.718  0.0086 -1.1315  0.2853
75967SOL    HW245512   6.492   2.701  10.848 -0.4874  0.7584  1.1667
75968SOL     OW45513   0.021   2.286  11.159 -0.0488  0.3725  0.4875
75968SOL    HW145514  -0.070   2.308  11.137 -0.6432  0.3084  2.6475
75968SOL    HW245515   0.034   2.200  11.120 -0.7823  0.5318 -0.1505
75969SOL     OW45516  13.030   3.906   9.627 -0.4816 -0.1773  0.5649
75969SOL    HW145517  12.939   3.892   9.602 -0.3828  1.3226 -0.7838
75969SOL    HW245518  13.081   3.874   9.552  0.0575  0.0560  0.8217
75970SOL     OW45519   7.845  12.179   1.068 -0.7852  0.9757 -0.2758
75970SOL    HW145520   7.832  12.256   1.013  0.6618  1.7372  0.4014
75970SOL    HW245521   7.925  12.139   1.035 -0.3967  0.9351  0.6862
75971SOL     OW45522   1.945  13.975   8.205  0.6114 -0.0021 -0.5909
75971SOL    HW145523   2.020  13.916   8.216 -0.5997 -1.3027  1.3219
75971SOL    HW245524   1.974  14.058   8.242  1.1508 -0.4736  0.0729
75972SOL     OW45525   1.284  11.437   3.050  0.2503  0.1379 -0.4885
75972SOL    HW145526   1.290  11.362   3.109 -0.4857  1.1908  0.9695
75972SOL    HW245527   1.360  11.491   3.073  0.2424  0.3168 -0.8768
75973SOL     OW45528   0.708  10.772  13.881 -0.3677 -0.0083 -0.3732
75973SOL    HW145529   0.615  10.777  13.905 -0.2531  0.9748 -0.0836
75973SOL    HW245530   0.708  10.748  13.789 -0.9282  0.2817 -0.4561
75974SOL     OW45531   7.214   9.065   1.117 -0.1078  0.0851  0.5079
75974SOL    HW145532   7.228   9.005   1.190  0.0709  0.0717  0.4618
75974SOL    HW245533   7.148   9.127   1.150  1.9555  1.7885  1.7266
75975SOL     OW45534   3.350  10.324   7.940  0.2998  0.2226 -0.0263
75975SOL    HW145535   3.411  10.280   7.880  0.0740  0.0132 -0.1004
75975SOL    HW245536   3.306  10.253   7.987 -1.5806  0.2544 -1.6115
75976SOL     OW45537   4.054   2.999   3.312 -0.1948  0.1752  0.0137
75976SOL    HW145538   4.109   3.068   3.275 -0.6400  0.2141 -0.6022
75976SOL    HW245539   4.015   3.037   3.390  0.7068  0.1208  0.5030
75977SOL     OW45540  13.524   9.912   1.818  0.3627  1.0311  0.1325
75977SOL    HW145541  13.458   9.970   1.856 -0.0687 -0.5606  1.9854
75977SOL    HW245542  13.473   9.843   1.776  0.8723  1.3628 -1.0540
75978SOL     OW45543   3.751   6.036   3.094 -0.4154  0.1681  0.0100
75978SOL    HW145544   3.711   6.119   3.121  0.7503  0.2714  1.5750
75978SOL    HW245545   3.842   6.044   3.121 -0.3779 -1.7874  0.6118
75979SOL     OW45546   8.830  13.034   4.801 -0.1160 -0.6476  0.4603
75979SOL    HW145547   8.844  13.080   4.718 -1.0189  0.2715  0.7855
75979SOL    HW245548   8.910  12.983   4.815 -0.5251 -1.9699 -1.6684
75980SOL     OW45549  13.368  10.675   6.256 -0.2582  0.1188  0.1000
75980SOL    HW145550  13.439  10.721   6.302  0.6010  0.4659 -1.4959
75980SOL    HW245551  13.347  10.601   6.313  0.2013  0.9610  1.4234
75981SOL     OW45552   0.971  13.240  13.232  0.0830 -0.2511  0.0452
75981SOL    HW145553   1.063  13.215  13.223 -0.2968 -1.6019 -0.2613
75981SOL    HW245554   0.923  13.157  13.235 -0.8723  0.2784  3.3458
75982SOL     OW45555   2.938   1.695  11.119  0.3403  0.0428 -0.1009
75982SOL    HW145556   2.919   1.646  11.199 -1.5512  0.0215 -0.5085
75982SOL    HW245557   3.033   1.704  11.118  0.4839 -0.8929  1.5859
75983SOL     OW45558   8.325   6.034   0.084  0.1204  0.5299  0.3639
75983SOL    HW145559   8.383   6.056   0.011  0.8620  0.3161  0.8777
75983SOL    HW245560   8.308   6.118   0.126 -0.3483  0.6609 -0.0751
75984SOL     OW45561   5.774   4.718   8.614 -0.1145  0.1857 -0.1531
75984SOL    HW145562   5.698   4.723   8.556 -0.8596 -0.0602  0.7757
75984SOL    HW245563   5.833   4.655   8.571 -1.4047 -1.3032  0.1894
75985SOL     OW45564   2.286  12.306   1.911 -0.1437 -0.2408 -0.0662
75985SOL    HW145565   2.259  12.215   1.924 -1.6582  0.0399 -0.9330
75985SOL    HW245566   2.230  12.338   1.840  1.5389  0.8785 -0.9644
75986SOL     OW45567   0.759  13.492   5.810  0.0816 -0.8013  0.3751
75986SOL    HW145568   0.743  13.551   5.736  3.1641  1.3520  1.2105
75986SOL    HW245569   0.815  13.423   5.775  1.1357 -0.0522  0.5539
75987SOL     OW45570   7.852   3.609   0.975 -0.0935 -0.1281  0.5227
75987SOL    HW145571   7.773   3.556   0.979  0.4836 -1.0824 -0.3009
75987SOL    HW245572   7.848   3.653   0.890  0.4575 -0.5329  0.2760
75988SOL     OW45573  12.682   6.828   9.602 -0.0518  0.3864 -0.1453
75988SOL    HW145574  12.626   6.752   9.588 -0.7228  0.8884 -0.2065
75988SOL    HW245575  12.741   6.829   9.526 -1.2454  0.9664 -1.1052
75989SOL     OW45576  13.280   7.528   8.040  0.2822 -0.0450  0.1182
75989SOL    HW145577  13.227   7.584   8.097 -0.4053  0.4369 -0.9772
75989SOL    HW245578  13.355   7.504   8.095  0.5752  1.8913  0.6512
75990SOL     OW45579   8.760   4.919   4.916  0.1855 -0.4096  0.7029
75990SOL    HW145580   8.805   4.850   4.869 -1.4316  0.0753 -1.7097
75990SOL    HW245581   8.717   4.875   4.989  0.1436 -1.7470 -0.1067
75991SOL     OW45582   8.167  12.505  11.582 -0.2622  1.0167  0.9387
75991SOL    HW145583   8.222  12.457  11.644 -1.2031  0.5693  1.4545
75991SOL    HW245584   8.218  12.583  11.560  2.9400 -1.6809 -2.5881
75992SOL     OW45585   2.112  11.491   9.471 -0.3713  0.9480 -0.5250
75992SOL    HW145586   2.167  11.540   9.410  0.7244 -1.0177 -1.1670
75992SOL    HW245587   2.173  11.434   9.518 -1.7464 -0.8636 -0.8367
75993SOL     OW45588   1.860  11.522   3.330 -0.0166  0.5373  0.4223
75993SOL    HW145589   1.918  11.570   3.389 -1.4764 -0.0729  2.4680
75993SOL    HW245590   1.799  11.588   3.297  1.4964  1.0997 -1.4067
75994SOL     OW45591   4.694   0.508  12.123 -0.2378  0.4552  0.1914
75994SOL    HW145592   4.659   0.554  12.046 -1.9499  0.7155  1.0746
75994SOL    HW245593   4.633   0.435  12.137  1.9081 -1.6408 -0.6314
75995SOL     OW45594   0.482   1.081   7.330  0.1474 -0.6998 -1.1337
75995SOL    HW145595   0.527   1.027   7.265  1.3069  1.3440 -2.1213
75995SOL    HW245596   0.535   1.161   7.336  0.4781 -1.0096  2.8271
75996SOL     OW45597   6.624   8.929  10.257  1.1899  0.4205  0.6747
75996SOL    HW145598   6.586   9.000  10.308  0.1587  0.3815 -0.0223
75996SOL    HW245599   6.659   8.971  10.179  0.7666  0.1893  0.3606
75997SOL     OW45600   6.106   2.415  11.860 -0.0734 -0.3794  0.6159
75997SOL    HW145601   6.088   2.405  11.767 -1.3593 -0.7137  0.8780
75997SOL    HW245602   6.200   2.396  11.869 -0.1974 -1.6104 -0.4202
75998SOL     OW45603   6.588   4.340   4.623 -0.7174 -0.4419 -0.2011
75998SOL    HW145604   6.561   4.352   4.714 -0.6340 -2.1701  0.0848
75998SOL    HW245605   6.678   4.306   4.629 -0.8865 -1.0409 -0.9051
75999SOL     OW45606   9.440  10.150   3.559  0.2249  0.3578 -0.2479
75999SOL    HW145607   9.419  10.181   3.471 -0.8119  0.8616  0.1592
75999SOL    HW245608   9.492  10.071   3.545  0.6836  0.8292 -1.3066
76000SOL     OW45609  12.545   7.298   7.702  0.0110  0.3135 -0.6877
76000SOL    HW145610  12.518   7.347   7.780  1.0863  2.9156 -1.8207
76000SOL    HW245611  12.473   7.238   7.685 -1.2121  1.1938  1.0908
76001SOL     OW45612  10.837   1.725   0.461 -0.1786  0.3420  0.0770
76001SOL    HW145613  10.792   1.778   0.395 -0.5996 -0.4957 -0.3307
76001SOL    HW245614  10.873   1.789   0.523 -2.4393  1.0261  0.7555
76002SOL     OW45615  12.882   1.765   1.508  0.6407  0.5184 -0.1021
76002SOL    HW145616  12.970   1.803   1.500 -0.2109  2.6239 -0.2705
76002SOL    HW245617  12.866   1.721   1.425  0.7467  1.9969 -0.9278
76003SOL     OW45618   1.993   0.698   8.248 -0.5785 -0.3656  0.1383
76003SOL    HW145619   2.068   0.652   8.285  0.6177  1.3867  0.0021
76003SOL    HW245620   1.961   0.639   8.179  0.0194 -1.5932  0.8780
76004SOL     OW45621   3.105   0.895   7.322 -0.2958 -0.2900 -0.3199
76004SOL    HW145622   3.142   0.950   7.390 -0.9196 -0.6617  0.3268
76004SOL    HW245623   3.027   0.942   7.292 -0.0722 -0.1696 -0.7242
76005SOL     OW45624  11.771   7.376   4.660  0.7308 -0.3515  0.2611
76005SOL    HW145625  11.814   7.450   4.616 -0.0146 -0.7301 -1.1910
76005SOL    HW245626  11.713   7.340   4.593  0.7439 -1.9753  1.0860
76006SOL     OW45627  13.669   6.836  13.409 -0.1432  0.0945 -0.5104
76006SOL    HW145628  13.699   6.923  13.381 -0.3822  0.2134 -0.3897
76006SOL    HW245629  13.691   6.779  13.334  1.5740 -0.0709  0.0666
76007SOL     OW45630  11.930   7.950   7.332  0.5468  0.4793  0.0603
76007SOL    HW145631  11.865   7.896   7.288 -0.0798  1.5422 -0.3465
76007SOL    HW245632  12.010   7.897   7.331 -0.0473 -0.4283 -0.3206
76008SOL     OW45633   9.264  13.021   3.480  0.6399 -0.7819 -0.9601
76008SOL    HW145634   9.262  12.977   3.565 -0.1170 -0.9186 -1.0465
76008SOL    HW245635   9.195  12.978   3.429  2.0383 -1.7111 -2.1585
76009SOL     OW45636  11.267   1.147   0.409  0.1045  0.2482 -0.1631
76009SOL    HW145637  11.314   1.064   0.398  0.0563  0.4377 -2.2590
76009SOL    HW245638  11.335   1.208   0.438  0.0583 -0.5500  1.8109
76010SOL     OW45639   6.998   5.673   6.120 -0.0984  0.7266 -0.7140
76010SOL    HW145640   6.960   5.700   6.204  0.4150  1.2923 -0.6559
76010SOL    HW245641   6.946   5.719   6.054 -0.9276 -0.2338 -0.7486
76011SOL     OW45642  13.737   7.535  10.657  0.0702 -0.3916  0.5304
76011SOL    HW145643  13.643   7.544  10.672  0.0026 -0.0338 -0.0925
76011SOL    HW245644  13.760   7.454  10.703 -0.0077  0.9113  3.0493
76012SOL     OW45645   9.126  12.826   1.552 -0.0425  0.6186  0.1138
76012SOL    HW145646   9.205  12.876   1.531  0.4516 -0.5051 -0.7979
76012SOL    HW245647   9.061  12.858   1.490  0.2031  0.3038 -0.3090
76013SOL     OW45648   0.762   0.783   5.230  0.5090 -0.4931 -0.2302
76013SOL    HW145649   0.820   0.736   5.289 -0.0564  1.2914  1.8542
76013SOL    HW245650   0.694   0.820   5.286 -0.7767  0.2584 -2.1607
76014SOL     OW45651   1.903   7.144  10.796  0.3404  0.4801 -0.4586
76014SOL    HW145652   1.885   7.051  10.783 -1.9085  0.6904  0.7673
76014SOL    HW245653   1.818   7.183  10.815  1.2437  2.8004 -0.8340
76015SOL     OW45654   1.681   6.614   3.365  0.8483  0.2978  0.3400
76015SOL    HW145655   1.674   6.693   3.419  0.6270 -0.2423  1.1199
76015SOL    HW245656   1.599   6.567   3.379  1.2635 -0.4169  0.4584
76016SOL     OW45657   9.661  10.076   1.098  0.4625  0.2918  0.0131
76016SOL    HW145658   9.571  10.058   1.124 -0.8203  4.3736 -0.8821
76016SOL    HW245659   9.708  10.089   1.181 -0.3953  0.5377  0.4750
76017SOL     OW45660   9.165  10.026  12.561  0.0020 -0.0255  0.3221
76017SOL    HW145661   9.166  10.122  12.558 -0.2146 -0.0422 -0.5713
76017SOL    HW245662   9.203  10.005  12.646 -0.5396  0.8667  0.8145
76018SOL     OW45663  10.003  11.644  10.126  0.2579 -0.4461  0.1257
76018SOL    HW145664   9.969  11.616  10.211 -0.6392 -0.6167 -0.2765
76018SOL    HW245665   9.985  11.738  10.123 -0.2694 -0.5528 -0.1246
76019SOL     OW45666   9.712   0.967   4.592 -0.2514 -0.1840  0.2371
76019SOL    HW145667   9.669   1.000   4.513  0.6986  0.5596  0.0175
76019SOL    HW245668   9.641   0.962   4.656 -1.0267 -0.7410 -0.6287
76020SOL     OW45669  10.993   1.589   8.024 -0.3154 -0.4056  0.1079
76020SOL    HW145670  11.084   1.561   8.036 -0.0984  0.2652  0.0734
76020SOL    HW245671  10.969   1.556   7.938  1.1685  2.5943 -1.6266
76021SOL     OW45672  10.321   5.384   0.155 -1.5483 -0.6706  0.2943
76021SOL    HW145673  10.275   5.345   0.081  0.1336  1.1540 -1.8528
76021SOL    HW245674  10.409   5.347   0.150 -1.3219 -0.2791  1.2349
76022SOL     OW45675   2.469   9.585   4.774 -0.0177  0.4462  0.2746
76022SOL    HW145676   2.413   9.511   4.795 -0.1643  1.0586  2.1833
76022SOL    HW245677   2.442   9.654   4.834 -0.9033  2.5935 -2.3864
76023SOL     OW45678   2.389  10.078   1.861  0.6405  0.0096  0.4697
76023SOL    HW145679   2.453  10.068   1.791 -0.4106  0.9893 -0.6968
76023SOL    HW245680   2.439  10.107   1.936  1.9410 -1.9555  0.4387
76024SOL     OW45681  11.058   1.427  13.687  0.1003 -0.3443 -0.1028
76024SOL    HW145682  11.108   1.434  13.605  0.2215 -0.3512 -0.0304
76024SOL    HW245683  11.125   1.410  13.754  0.2179  1.4897  0.2923
76025SOL     OW45684  13.051   5.813   2.760 -0.2370  0.0247 -0.0671
76025SOL    HW145685  13.012   5.830   2.674 -0.9083  3.6016  0.7904
76025SOL    HW245686  13.135   5.772   2.740 -0.1695  1.1522 -2.4889
76026SOL     OW45687  12.874   3.604   8.617  0.0370 -0.2514  0.2994
76026SOL    HW145688  12.841   3.693   8.617  0.7434  0.0165  0.8697
76026SOL    HW245689  12.800   3.551   8.586 -0.1721  0.6008 -0.7244
76027SOL     OW45690   2.375   2.162   8.761  0.2417 -0.2183 -0.2883
76027SOL    HW145691   2.453   2.177   8.708 -0.1008 -0.3306 -0.8319
76027SOL    HW245692   2.406   2.110   8.835  1.0942  1.5730  0.6755
76028SOL     OW45693  10.491   2.843   6.565  0.4298  0.4726 -0.3914
76028SOL    HW145694  10.558   2.911   6.573 -0.2432  1.3498 -1.8630
76028SOL    HW245695  10.442   2.866   6.486 -4.1173  2.1538  2.5201
76029SOL     OW45696  12.691  13.865   6.047  0.4514 -0.1077  0.1164
76029SOL    HW145697  12.695  13.771   6.066  0.4085  0.0369  0.8851
76029SOL    HW245698  12.644  13.902   6.122  0.4914  0.5304 -0.1706
76030SOL     OW45699  12.090   0.729  12.676 -0.0402 -0.2667 -0.2459
76030SOL    HW145700  12.150   0.803  12.683  1.2777 -1.3951  1.0990
76030SOL    HW245701  12.040   0.747  12.597 -1.1093  2.9768  0.9936
76031SOL     OW45702  13.220   8.275   4.285  0.0577  0.0633 -0.2822
76031SOL    HW145703  13.142   8.242   4.330 -0.1763  0.5647 -0.3202
76031SOL    HW245704  13.293   8.226   4.325 -0.2920 -0.5805 -0.4133
76032SOL     OW45705   4.655  12.439  11.519  0.1740 -0.6859 -0.5049
76032SOL    HW145706   4.599  12.369  11.487 -2.3961  1.0208 -0.0831
76032SOL    HW245707   4.622  12.458  11.607 -0.5215  2.2151 -1.2782
76033SOL     OW45708   7.559  10.440   6.952  0.1487 -0.2171 -0.0534
76033SOL    HW145709   7.554  10.532   6.924 -0.4859  0.1724  1.2243
76033SOL    HW245710   7.480  10.427   7.004  0.8219 -1.1365  0.7790
76034SOL     OW45711   2.930   1.568  13.183 -0.3434  0.1171 -0.3216
76034SOL    HW145712   2.953   1.483  13.149 -1.3635 -0.1648 -0.3504
76034SOL    HW245713   3.013   1.616  13.189 -0.0735  0.0637 -2.8131
76035SOL     OW45714   6.601   9.751   4.486  0.4150  0.7083  0.0375
76035SOL    HW145715   6.692   9.770   4.506  0.3615  0.3467  0.6386
76035SOL    HW245716   6.588   9.661   4.516  0.7318 -0.4516 -2.9345
76036SOL     OW45717   6.638   7.456   0.872 -0.6274  0.1569 -0.3726
76036SOL    HW145718   6.554   7.501   0.877 -0.3202  0.6771  0.4124
76036SOL    HW245719   6.621   7.379   0.818 -2.0521 -0.6788  1.1588
76037SOL     OW45720   9.560  13.513   8.736 -0.4612  0.0480  0.1805
76037SOL    HW145721   9.474  13.554   8.727 -1.1627 -1.2414  0.7977
76037SOL    HW245722   9.616  13.584   8.767 -1.1904  1.0141 -0.6387
76038SOL     OW45723   6.635   7.260   2.530  0.2412 -0.2854 -0.6536
76038SOL    HW145724   6.570   7.197   2.498 -0.0684  0.3755 -1.3496
76038SOL    HW245725   6.703   7.260   2.462 -0.9719  1.9930 -1.9732
76039SOL     OW45726   2.862   2.703   3.621 -0.5858 -0.1023 -0.1295
76039SOL    HW145727   2.831   2.679   3.708  0.8516 -0.9428  0.1814
76039SOL    HW245728   2.948   2.662   3.613 -0.2175  0.8358 -1.5454
76040SOL     OW45729   4.991   9.086  12.791 -0.1217 -0.1762 -0.2596
76040SOL    HW145730   5.007   9.005  12.838  1.0741  1.9546  3.3845
76040SOL    HW245731   4.910   9.120  12.828 -1.4916 -0.3118 -2.8661
76041SOL     OW45732   1.124   9.286   8.137  0.5349 -0.2804 -0.8034
76041SOL    HW145733   1.123   9.276   8.232  0.0812  1.3778 -0.6058
76041SOL    HW245734   1.202   9.238   8.109  2.0611  1.2195  0.6656
76042SOL     OW45735   1.872   8.743   8.317 -0.1694 -0.8755 -0.4551
76042SOL    HW145736   1.909   8.659   8.344 -0.1338 -1.0649 -1.0951
76042SOL    HW245737   1.943   8.789   8.274 -0.0673 -0.3316  0.2709
76043SOL     OW45738  14.027   3.407  13.786  0.4642 -0.3751 -0.1062
76043SOL    HW145739  14.063   3.476  13.842 -1.3725  0.8177 -0.3149
76043SOL    HW245740  13.955   3.371  13.836  0.2578 -0.8971 -0.7668
76044SOL     OW45741  11.629  11.656   0.335  0.0813  0.3601 -0.2270
76044SOL    HW145742  11.600  11.611   0.255 -0.3243 -1.2756  0.7966
76044SOL    HW245743  11.724  11.658   0.327  0.1456 -1.1011 -0.1169
76045SOL     OW45744   1.592  12.395  13.395  0.2340  0.4204 -0.1189
76045SOL    HW145745   1.625  12.459  13.459  0.8629  0.1857 -0.2019
76045SOL    HW245746   1.664  12.385  13.332 -1.7626  3.8217 -3.3389
76046SOL     OW45747   1.682   6.302   9.106 -0.7716 -0.0062 -0.3819
76046SOL    HW145748   1.744   6.295   9.033 -0.8789  1.4785 -0.6483
76046SOL    HW245749   1.629   6.379   9.085 -1.6599 -0.3156  0.6385
76047SOL     OW45750  12.985  10.916   5.962  0.4862  0.0603 -0.3667
76047SOL    HW145751  13.053  10.979   5.939 -0.2031  2.2591  2.9049
76047SOL    HW245752  13.013  10.878   6.045 -1.0195 -0.9686 -0.2787
76048SOL     OW45753  13.413   0.070  11.075 -0.0288 -0.2313 -0.4915
76048SOL    HW145754  13.346   0.138  11.072 -0.1729 -0.2474  1.2762
76048SOL    HW245755  13.490   0.111  11.033 -1.1152 -0.2764 -2.6728
76049SOL     OW45756   3.897   1.126   6.068  0.3683 -0.3494  0.8760
76049SOL    HW145757   3.828   1.183   6.034  0.7246  0.9220  2.1951
76049SOL    HW245758   3.864   1.097   6.153  0.8686 -0.8746  0.8985
76050SOL     OW45759   7.655   4.189   2.099 -0.3062  0.2431 -0.1389
76050SOL    HW145760   7.650   4.197   2.194 -2.0567 -1.8808  0.0295
76050SOL    HW245761   7.583   4.131   2.076  1.5877 -1.4075 -2.4913
76051SOL     OW45762  10.350   9.988   3.939  0.3009  0.3184  0.2747
76051SOL    HW145763  10.280   9.960   3.879  2.4773 -1.5171 -1.6252
76051SOL    HW245764  10.326   9.949   4.023 -0.4674 -1.1762 -0.5827
76052SOL     OW45765   0.478  10.092  10.612 -0.6219 -0.1968  0.1696
76052SOL    HW145766   0.525  10.023  10.659 -0.6883 -0.2029  0.2271
76052SOL    HW245767   0.543  10.129  10.553 -0.5638 -0.2542  0.1973
76053SOL     OW45768  12.191  13.373   6.940 -0.2073  0.0927  0.3072
76053SOL    HW145769  12.228  13.330   6.862 -0.8474  0.5153 -0.2424
76053SOL    HW245770  12.265  13.420   6.979  0.2884 -0.7448  0.3867
76054SOL     OW45771  11.541  11.655   6.380 -0.1355  0.7778  0.0755
76054SOL    HW145772  11.609  11.593   6.405 -1.9984 -0.8316  1.5241
76054SOL    HW245773  11.578  11.741   6.399  1.0298 -0.1058  2.1191
76055SOL     OW45774   2.866  11.839  12.755 -0.4749  0.6824 -0.1359
76055SOL    HW145775   2.883  11.811  12.845 -5.0638  1.1093  1.0953
76055SOL    HW245776   2.882  11.934  12.757  4.0730  0.1919 -1.3066
76056SOL     OW45777   2.037   1.080   7.793  0.0661  0.0364 -0.8103
76056SOL    HW145778   2.001   1.058   7.879 -2.0559 -0.4622 -1.7651
76056SOL    HW245779   2.075   0.998   7.761  1.0431  0.2716 -0.3029
76057SOL     OW45780   3.138   0.619  12.233  0.3081 -0.7996  0.2623
76057SOL    HW145781   3.168   0.559  12.165  1.5406 -0.5077  0.5314
76057SOL    HW245782   3.178   0.586  12.314 -1.1279 -1.1402  0.8715
76058SOL     OW45783   0.693  10.706   9.155  0.3721  0.3274  0.2717
76058SOL    HW145784   0.748  10.783   9.174  1.2517 -0.4512  0.9512
76058SOL    HW245785   0.611  10.724   9.201 -0.7177  2.3284 -2.1785
76059SOL     OW45786  13.035   7.500   1.378  0.0249  0.5520 -0.1615
76059SOL    HW145787  12.987   7.570   1.422  0.8315  0.3471  1.0872
76059SOL    HW245788  13.124   7.535   1.366  0.0743  0.2392 -0.7627
76060SOL     OW45789   2.914   4.203   9.437 -0.2320  0.1831  0.4235
76060SOL    HW145790   2.848   4.177   9.373 -0.9552 -0.5248  1.4241
76060SOL    HW245791   2.992   4.223   9.384  0.1885 -3.3190 -0.5531
76061SOL     OW45792   7.294   0.448  11.877 -0.4836 -0.4810 -0.0294
76061SOL    HW145793   7.241   0.380  11.835 -0.4569 -0.9543  0.6896
76061SOL    HW245794   7.347   0.401  11.941  0.3449  0.0673 -0.2816
76062SOL     OW45795   8.431   7.092   2.271 -0.0731  0.1511 -0.5411
76062SOL    HW145796   8.413   7.161   2.206  1.5702 -0.4390 -1.6869
76062SOL    HW245797   8.433   7.138   2.355 -1.6669  1.0333 -0.9408
76063SOL     OW45798   3.143   1.117   0.214 -0.1489 -0.6764  0.0636
76063SOL    HW145799   3.096   1.042   0.249 -2.2290  0.0915 -0.9292
76063SOL    HW245800   3.122   1.117   0.121  2.7795 -0.9146 -0.6942
76064SOL     OW45801  11.874  11.945  12.764  0.3655 -0.3522 -0.1325
76064SOL    HW145802  11.930  12.020  12.743  1.6043 -1.3940 -0.6773
76064SOL    HW245803  11.894  11.924  12.856  1.9755 -1.5918 -0.7267
76065SOL     OW45804   4.302   0.908  10.318  0.5179  0.3349 -0.3816
76065SOL    HW145805   4.277   0.818  10.300  1.0019  0.1330 -0.0734
76065SOL    HW245806   4.396   0.904  10.337  0.0433  0.4844  2.3261
76066SOL     OW45807   9.355   3.413   6.217 -0.4258  0.0315  0.4425
76066SOL    HW145808   9.398   3.484   6.170  0.8451 -0.3530  0.9718
76066SOL    HW245809   9.262   3.423   6.197 -0.3086  1.9800  0.7096
76067SOL     OW45810  12.714   1.249   9.251  0.1068 -0.3056  0.0534
76067SOL    HW145811  12.801   1.211   9.260 -0.4300 -1.0824  2.4535
76067SOL    HW245812  12.729   1.331   9.204  2.3785  0.3774  1.8028
76068SOL     OW45813   3.609  11.370   0.910  0.3380  0.3686 -0.1702
76068SOL    HW145814   3.558  11.401   0.985  0.4241  0.7476 -0.2671
76068SOL    HW245815   3.551  11.382   0.835  0.6057  0.8967 -0.2947
76069SOL     OW45816   3.832   4.312   9.806  0.3027 -0.0791  0.1010
76069SOL    HW145817   3.876   4.321   9.722  0.2695  0.6572  0.1537
76069SOL    HW245818   3.794   4.224   9.805 -0.1025  0.0963 -0.8462
76070SOL     OW45819   3.406   6.962   9.743 -0.0296 -0.4266  0.1052
76070SOL    HW145820   3.451   7.002   9.668 -2.2905  0.6285 -0.7930
76070SOL    HW245821   3.465   6.976   9.817  1.3230  0.4018 -1.0722
76071SOL     OW45822   4.722   6.642   3.401  0.3013 -0.2145  0.3114
76071SOL    HW145823   4.708   6.600   3.316 -0.5566 -0.0631  0.3658
76071SOL    HW245824   4.706   6.735   3.384 -0.8073 -0.2960  0.8222
76072SOL     OW45825  10.819  11.954   5.265 -0.1438  0.0388 -0.2632
76072SOL    HW145826  10.745  11.957   5.325 -0.6469 -0.4082 -0.8534
76072SOL    HW245827  10.815  12.038   5.218  0.7395  0.7527  0.8778
76073SOL     OW45828  13.390   3.063   8.654 -0.3795 -0.0122 -0.0415
76073SOL    HW145829  13.438   3.014   8.721 -0.2762 -0.5832 -0.5233
76073SOL    HW245830  13.458   3.114   8.609 -0.4643  0.4545  0.3562
76074SOL     OW45831   0.965  10.790   1.831 -0.1056  0.1539 -0.7759
76074SOL    HW145832   0.890  10.826   1.783  0.1589  0.6845 -0.8000
76074SOL    HW245833   1.002  10.724   1.773 -0.1119  0.4143 -1.0774
76075SOL     OW45834   0.511  12.279   8.995 -0.2950  0.1703 -0.0316
76075SOL    HW145835   0.525  12.224   8.918  0.8995 -2.4704  1.9172
76075SOL    HW245836   0.600  12.298   9.027 -0.7678 -0.2336  1.6160
76076SOL     OW45837   7.835  13.769   4.522  0.3587 -0.0939  0.2638
76076SOL    HW145838   7.876  13.855   4.509 -0.7110  0.4147  0.1237
76076SOL    HW245839   7.844  13.725   4.437 -1.4813  0.9646 -0.5537
76077SOL     OW45840   8.859  10.887   2.129  0.5534 -0.2038 -0.4527
76077SOL    HW145841   8.794  10.947   2.094  0.9376  1.1546  1.0295
76077SOL    HW245842   8.832  10.872   2.219  1.1924 -1.2506 -0.4173
76078SOL     OW45843  11.770  12.116   9.645 -0.3378 -0.3731  0.4801
76078SOL    HW145844  11.851  12.069   9.630  1.0240  1.3194  2.1168
76078SOL    HW245845  11.770  12.185   9.578 -0.3991 -0.3049  0.5506
76079SOL     OW45846   0.977   6.798  12.209 -0.0001  0.1462 -0.0833
76079SOL    HW145847   1.033   6.745  12.153  0.4211  2.1047 -1.6371
76079SOL    HW245848   0.899   6.815  12.156 -0.6299  0.1636  0.8198
76080SOL     OW45849   4.130   4.029  13.924  0.5724  0.1961 -0.0750
76080SOL    HW145850   4.212   4.065  13.959  0.9066 -0.8635  0.2951
76080SOL    HW245851   4.156   3.946  13.884 -0.3459 -0.2051  0.1365
76081SOL     OW45852   6.402   7.533   3.725 -0.0533  0.1286  0.0087
76081SOL    HW145853   6.478   7.530   3.667 -0.0749 -0.0637 -0.0101
76081SOL    HW245854   6.398   7.624   3.755 -0.3060  0.3313 -0.6396
76082SOL     OW45855   8.844   6.919  12.587 -0.2715  0.4073 -0.1152
76082SOL    HW145856   8.896   6.839  12.597 -1.9276 -0.6842  0.2697
76082SOL    HW245857   8.821   6.944  12.676 -1.0528  0.3922 -0.3018
76083SOL     OW45858   8.510  13.779   5.277 -0.2328 -0.0607  0.0158
76083SOL    HW145859   8.567  13.709   5.308  0.8024  0.0174 -1.5840
76083SOL    HW245860   8.429  13.769   5.327  0.7876 -0.8486  1.5696
76084SOL     OW45861   2.844   5.592   2.279 -0.6676 -0.2887 -0.4709
76084SOL    HW145862   2.934   5.621   2.293 -0.9732  1.5004 -1.8595
76084SOL    HW245863   2.796   5.627   2.354  0.0475 -3.0481  1.4425
76085SOL     OW45864   1.994   9.012   5.381 -0.1344 -0.0119  0.0661
76085SOL    HW145865   1.901   9.004   5.402 -0.1939 -0.6542 -0.4129
76085SOL    HW245866   2.029   8.924   5.393 -0.1423 -0.3971 -2.3307
76086SOL     OW45867   9.329   1.197  12.133 -0.3181  0.1790  0.5205
76086SOL    HW145868   9.241   1.175  12.104 -0.0671 -1.9695  1.2023
76086SOL    HW245869   9.379   1.207  12.051 -1.0046  0.6830  0.1511
76087SOL     OW45870   6.382   5.864   0.435  0.6193  0.1461 -0.3294
76087SOL    HW145871   6.352   5.954   0.446  0.7779  0.1001  0.5244
76087SOL    HW245872   6.476   5.867   0.453  0.5281 -0.2804  0.2560
76088SOL     OW45873  10.381   7.958   6.079  0.1597 -0.2558  0.4034
76088SOL    HW145874  10.372   7.969   5.984  0.6639 -0.1465  0.3692
76088SOL    HW245875  10.299   7.993   6.114  0.5145  0.9369  0.0918
76089SOL     OW45876  11.841   0.646   8.904 -0.0125  0.1183 -0.8331
76089SOL    HW145877  11.826   0.721   8.962  3.2068 -0.4987  1.0937
76089SOL    HW245878  11.878   0.684   8.825  0.2998  0.6826 -0.4270
76090SOL     OW45879   8.263   8.666   1.975 -0.0144  0.2037  0.2570
76090SOL    HW145880   8.218   8.689   2.056 -0.6793  0.4252 -0.1688
76090SOL    HW245881   8.356   8.667   1.998 -0.2216 -0.3429  1.1667
76091SOL     OW45882   0.053   7.794   1.364 -0.0388 -0.2315 -0.0639
76091SOL    HW145883   0.032   7.867   1.421 -0.6690 -0.6442  0.2439
76091SOL    HW245884   0.115   7.741   1.415 -2.4394 -1.9023  1.3073
76092SOL     OW45885  12.558   9.778   0.351  0.1954  0.0428  0.3747
76092SOL    HW145886  12.580   9.703   0.406  0.3187 -1.0487 -1.0899
76092SOL    HW245887  12.625   9.843   0.372  1.7792 -1.2915 -0.2529
76093SOL     OW45888   6.792   0.493   3.703 -0.4078  0.7077  0.1555
76093SOL    HW145889   6.862   0.556   3.723  0.2195  0.3361 -0.8044
76093SOL    HW245890   6.718   0.547   3.676 -0.1575  1.0613  0.1694
76094SOL     OW45891  12.769  13.348   3.221 -0.5062  0.3089  0.7812
76094SOL    HW145892  12.788  13.436   3.188 -0.7029  0.3817  0.8588
76094SOL    HW245893  12.854  13.306   3.229 -0.4346  0.4054  0.4990
76095SOL     OW45894  13.579  12.396  10.321 -0.0649 -0.2903  0.1150
76095SOL    HW145895  13.622  12.311  10.319  0.2453 -0.1769  1.2117
76095SOL    HW245896  13.594  12.428  10.410  0.0937  1.0527 -0.3781
76096SOL     OW45897  10.098  12.241   2.670 -0.0343 -0.3171 -0.1246
76096SOL    HW145898  10.092  12.280   2.757 -0.4644 -1.9391  0.6014
76096SOL    HW245899  10.079  12.313   2.610  0.7608  0.9472  1.0841
76097SOL     OW45900  11.501   0.876   2.129  0.2148  0.2023  0.5996
76097SOL    HW145901  11.452   0.847   2.206  2.3557 -1.7892  1.3260
76097SOL    HW245902  11.508   0.971   2.140 -0.8926  0.1639  2.0007
76098SOL     OW45903  10.612  11.727  11.453 -0.0543  0.4104 -0.6060
76098SOL    HW145904  10.541  11.761  11.506  0.2226  1.8651 -1.1177
76098SOL    HW245905  10.596  11.763  11.365  0.6076 -0.2750 -1.0183
76099SOL     OW45906  10.236   5.488   9.179 -0.4171  0.5856 -0.1068
76099SOL    HW145907  10.237   5.561   9.240 -1.3942 -0.2812  0.9863
76099SOL    HW245908  10.187   5.520   9.103  2.8920  2.5199 -1.6335
76100SOL     OW45909   0.958   9.302   6.991 -0.2159 -0.0829 -0.3403
76100SOL    HW145910   1.052   9.316   6.997 -0.1180 -1.0454  0.3952
76100SOL    HW245911   0.936   9.243   7.063 -1.5045  0.7150 -0.0277
76101SOL     OW45912   2.905   3.525  11.962 -0.0813 -0.1742 -0.0531
76101SOL    HW145913   2.946   3.603  11.925  0.1957 -0.8288 -1.1604
76101SOL    HW245914   2.906   3.540  12.057 -3.4965  2.9089 -0.2905
76102SOL     OW45915   2.986   2.838  11.561  0.5723  0.3687  0.1106
76102SOL    HW145916   2.934   2.918  11.556  1.9587  1.2843 -0.1071
76102SOL    HW245917   2.922   2.770  11.583 -0.5519  1.6068  0.8374
76103SOL     OW45918   2.690  13.874   4.231 -0.4565 -0.4350  0.0604
76103SOL    HW145919   2.639  13.887   4.152  1.3357 -0.2978 -1.1387
76103SOL    HW245920   2.727  13.786   4.222 -1.0718 -0.8352  1.2626
76104SOL     OW45921   4.110   7.396   5.121 -0.3839 -0.4435 -0.2349
76104SOL    HW145922   4.092   7.419   5.213 -0.9614  0.4587 -0.5531
76104SOL    HW245923   4.165   7.467   5.090 -0.8669 -0.3133 -0.8082
76105SOL     OW45924   5.067  11.515   2.691 -0.1185 -0.6387 -1.0097
76105SOL    HW145925   5.160  11.496   2.676  0.2791 -1.6227  2.0614
76105SOL    HW245926   5.067  11.597   2.741 -0.6094 -2.0721  1.5020
76106SOL     OW45927   9.154  12.298   7.941  0.6463 -0.1261 -0.4970
76106SOL    HW145928   9.068  12.302   7.898  0.4464 -0.2344 -0.1170
76106SOL    HW245929   9.206  12.241   7.885  0.3950 -0.2500 -0.6079
76107SOL     OW45930  13.839   8.513  12.595  0.0402  0.0324  0.4344
76107SOL    HW145931  13.833   8.442  12.531 -0.0980 -1.6693  2.2362
76107SOL    HW245932  13.933   8.531  12.603  0.0447  0.3749 -0.3601
76108SOL     OW45933   0.624   5.942   0.476  0.3459  0.1714 -0.3695
76108SOL    HW145934   0.718   5.940   0.495 -0.2910  0.1979  3.7076
76108SOL    HW245935   0.609   6.029   0.438  1.8524  0.4851 -0.3125
76109SOL     OW45936   5.942   0.526   0.839  0.1287  0.3890 -0.0248
76109SOL    HW145937   5.933   0.554   0.748 -0.1918  1.7701  0.4051
76109SOL    HW245938   5.868   0.467   0.853  0.7139 -0.5661 -0.9150
76110SOL     OW45939   3.765  10.958   6.880  0.0740  0.1470  0.5529
76110SOL    HW145940   3.765  11.042   6.835  1.6442 -0.1233 -0.0366
76110SOL    HW245941   3.706  10.970   6.954 -1.3844  1.0723 -0.7199
76111SOL     OW45942   2.815   6.453  13.637 -0.0880 -0.0053 -0.4674
76111SOL    HW145943   2.810   6.422  13.727 -0.5501 -3.3468 -1.4927
76111SOL    HW245944   2.731   6.496  13.622 -0.3481 -0.1734  0.4526
76112SOL     OW45945   7.949  10.719  11.623 -0.3594 -0.4755 -0.1879
76112SOL    HW145946   7.977  10.809  11.642  2.5854 -1.5287  1.1524
76112SOL    HW245947   7.920  10.722  11.532 -0.7796  1.9074 -0.0492
76113SOL     OW45948  10.417   9.553   8.713 -0.7577  0.1041 -0.2670
76113SOL    HW145949  10.488   9.614   8.731 -0.9069  0.1600  0.1348
76113SOL    HW245950  10.446   9.505   8.635  0.1989 -0.6172  0.5182
76114SOL     OW45951   0.866  10.607  13.591 -0.1931  0.2158 -0.2940
76114SOL    HW145952   0.776  10.641  13.583 -0.7148 -1.2719 -1.1050
76114SOL    HW245953   0.861  10.518  13.557  1.2779 -0.4481  1.1153
76115SOL     OW45954   6.355   7.848   0.314 -0.4063  0.1943 -0.6662
76115SOL    HW145955   6.415   7.809   0.378  0.2711  2.6940  0.3808
76115SOL    HW245956   6.413   7.888   0.249 -1.0721 -0.9539 -1.9878
76116SOL     OW45957   7.600   0.556  11.988 -0.2973  0.0780  0.1851
76116SOL    HW145958   7.619   0.541  11.896 -1.1914 -0.6768  0.1076
76116SOL    HW245959   7.505   0.564  11.992 -0.3247 -0.4931  1.1134
76117SOL     OW45960  14.049   6.451   6.531 -0.1023 -0.3880 -0.5123
76117SOL    HW145961  14.075   6.518   6.595 -0.8046  1.6219 -2.2234
76117SOL    HW245962  14.128   6.433   6.481 -0.3864  0.8812 -1.4821
76118SOL     OW45963   8.251   7.572  13.783  1.0321 -0.0203  0.0159
76118SOL    HW145964   8.267   7.639  13.717  0.5405  0.4473  0.3568
76118SOL    HW245965   8.156   7.572  13.793  0.7809 -2.4229 -1.6701
76119SOL     OW45966  11.740   0.248   6.068  0.2419 -0.0202  0.5646
76119SOL    HW145967  11.775   0.181   6.010  1.0354  0.1852  0.7940
76119SOL    HW245968  11.679   0.298   6.014  1.1406  0.3110 -0.1467
76120SOL     OW45969   7.280   1.022  11.136 -0.4067  0.0872  0.1296
76120SOL    HW145970   7.305   0.961  11.205 -1.7288 -0.1073  0.4685
76120SOL    HW245971   7.300   0.975  11.055  0.3138 -0.0476  0.3793
76121SOL     OW45972   5.942   0.240  13.571 -0.0073  0.5180  0.4516
76121SOL    HW145973   5.851   0.212  13.575 -0.3425  1.4648 -0.2073
76121SOL    HW245974   5.968   0.224  13.481  0.1025  1.3669  0.3266
76122SOL     OW45975   6.452   8.128   5.046 -0.5077  0.7935  0.1480
76122SOL    HW145976   6.535   8.134   4.998  0.5470 -1.0565  1.5906
76122SOL    HW245977   6.463   8.185   5.121 -0.2355  0.0262  0.7063
76123SOL     OW45978   5.663  12.197  12.658 -0.9394 -0.2389  0.0149
76123SOL    HW145979   5.697  12.142  12.588  1.3302  1.0862 -0.0264
76123SOL    HW245980   5.638  12.135  12.727 -1.4975 -1.4567 -1.2472
76124SOL     OW45981   7.323  10.870   0.143 -0.3780  0.0185  0.2853
76124SOL    HW145982   7.246  10.885   0.089  0.4542  2.5048 -0.3440
76124SOL    HW245983   7.394  10.855   0.080 -0.5596 -4.5512  0.8275
76125SOL     OW45984   1.447   7.960   4.893 -0.0073 -0.0990 -0.4899
76125SOL    HW145985   1.448   7.865   4.882 -0.5346 -0.1250 -0.3740
76125SOL    HW245986   1.504   7.976   4.968  1.8534 -0.1163 -1.8404
76126SOL     OW45987   2.554  10.291  13.475  0.5383 -0.0058  0.4207
76126SOL    HW145988   2.579  10.206  13.511 -0.9831  0.0564  1.7402
76126SOL    HW245989   2.469  10.309  13.514  0.6583  1.9622 -0.1418
76127SOL     OW45990   1.502   3.695   0.035  0.3348 -0.0123 -0.3916
76127SOL    HW145991   1.572   3.750   0.000 -0.0635  0.8360  0.1051
76127SOL    HW245992   1.535   3.667   0.121 -0.4766  1.5924  0.5098
76128SOL     OW45993   0.293  13.079  10.595 -0.2288  0.4427  0.3513
76128SOL    HW145994   0.248  13.055  10.514  0.9926 -1.7083  0.2269
76128SOL    HW245995   0.270  13.170  10.609 -3.0726 -0.0133 -0.6918
76129SOL     OW45996  11.586  13.468   3.684 -0.5300  0.2168  0.2387
76129SOL    HW145997  11.677  13.438   3.691 -1.1303 -2.0930 -0.9776
76129SOL    HW245998  11.589  13.534   3.615  0.1601 -0.2365 -0.1859
76130SOL     OW45999   2.532   4.323  13.460 -0.0393 -0.1708 -0.5544
76130SOL    HW146000   2.572   4.366  13.536 -0.5722 -1.1545  0.3128
76130SOL    HW246001   2.454   4.375  13.442  1.4022  1.6254 -2.1114
76131SOL     OW46002   0.211   0.354   6.940 -0.4195  0.2451  0.0644
76131SOL    HW146003   0.287   0.384   6.990 -0.8381  0.9719  0.2836
76131SOL    HW246004   0.195   0.425   6.878 -0.8179  0.0226 -0.0832
76132SOL     OW46005   8.601   8.115   9.310  0.2392  0.4008 -1.0671
76132SOL    HW146006   8.685   8.070   9.319  1.1555  2.3261  0.8787
76132SOL    HW246007   8.617   8.204   9.343 -3.2435 -0.0002  2.5222
76133SOL     OW46008  13.006   1.748   8.818  0.4190 -0.0764  0.0815
76133SOL    HW146009  13.060   1.677   8.852 -0.4337 -1.4185 -1.2429
76133SOL    HW246010  12.918   1.711   8.813  0.0856  0.8417 -1.3181
76134SOL     OW46011   8.551   9.401  12.447 -0.3176 -0.0301  0.0886
76134SOL    HW146012   8.551   9.490  12.483 -0.4797 -0.4191  1.0829
76134SOL    HW246013   8.608   9.352  12.505  0.8410 -0.2928 -1.2334
76135SOL     OW46014   2.382  13.947  11.181  0.2645 -0.0029 -0.0553
76135SOL    HW146015   2.381  13.895  11.101 -0.1935  0.0991 -0.1166
76135SOL    HW246016   2.358  13.885  11.250  1.1069 -0.2010  0.0802
76136SOL     OW46017   7.337   0.770  11.309  0.1338 -0.1439  0.8748
76136SOL    HW146018   7.403   0.709  11.277 -1.9371 -1.7917 -0.5702
76136SOL    HW246019   7.334   0.755  11.404  1.3093 -0.5317  0.8600
76137SOL     OW46020  13.181   3.353   2.035  0.5342  0.0255 -0.6458
76137SOL    HW146021  13.099   3.336   2.081  0.1982  2.1192 -0.3897
76137SOL    HW246022  13.162   3.428   1.978  1.9446 -0.2144 -1.4916
76138SOL     OW46023  13.665   3.490   1.022  0.0671  0.0719 -0.1312
76138SOL    HW146024  13.597   3.517   0.962 -0.2528  0.7071  0.5068
76138SOL    HW246025  13.632   3.514   1.109 -0.4384 -2.6825  0.5508
76139SOL     OW46026   1.231   2.502  13.616 -0.0578  0.5975 -0.5377
76139SOL    HW146027   1.209   2.465  13.701 -0.8671 -2.1356 -1.8069
76139SOL    HW246028   1.163   2.568  13.600  0.4235  1.5371  1.1111
76140SOL     OW46029  10.719   0.320   8.568 -0.1209  0.1659 -0.1305
76140SOL    HW146030  10.716   0.250   8.502 -0.3253 -0.8964  0.9640
76140SOL    HW246031  10.809   0.354   8.562  0.5150 -1.3159  0.4055
76141SOL     OW46032   7.524   9.021   4.082  0.8787 -0.1396 -0.4173
76141SOL    HW146033   7.454   8.957   4.068  0.3339  0.0179  1.2688
76141SOL    HW246034   7.587   8.975   4.137  2.0269 -0.2080 -1.7607
76142SOL     OW46035   7.864  12.211  10.032  0.2456  0.3853 -0.0177
76142SOL    HW146036   7.773  12.239  10.043  0.7587  2.3647 -0.4043
76142SOL    HW246037   7.885  12.231   9.941  0.9150 -0.6089 -0.0993
76143SOL     OW46038   7.053   4.760  11.102  0.1753  0.2639 -0.0702
76143SOL    HW146039   7.011   4.739  11.185  1.1655 -0.2256  0.3287
76143SOL    HW246040   7.035   4.684  11.046  0.6276 -0.0033  0.1432
76144SOL     OW46041  12.212   1.720   2.551 -0.2389 -0.2012  0.3153
76144SOL    HW146042  12.137   1.738   2.495 -1.6554 -0.7809  1.9414
76144SOL    HW246043  12.268   1.797   2.541 -0.5232 -0.1929 -1.6866
76145SOL     OW46044   5.991  10.765   0.278 -0.3565 -0.7131  0.2245
76145SOL    HW146045   5.967  10.832   0.342 -1.2265 -0.6877 -0.1192
76145SOL    HW246046   5.991  10.683   0.328  0.9887 -0.4384  0.7109
76146SOL     OW46047  11.987   1.775   2.345  0.4618 -0.0590 -0.0692
76146SOL    HW146048  11.961   1.683   2.351  0.1988  0.0813  1.0636
76146SOL    HW246049  12.016   1.785   2.254 -1.1877 -0.8138 -0.7086
76147SOL     OW46050   9.214   4.996  13.826 -0.2547  0.7424 -0.2909
76147SOL    HW146051   9.304   5.007  13.857  0.2168  2.1424 -1.9973
76147SOL    HW246052   9.218   4.921  13.765 -0.3419  0.5346 -0.0429
76148SOL     OW46053  12.243   2.084   2.230 -0.0105 -0.0466  0.5144
76148SOL    HW146054  12.254   2.017   2.163  0.0085 -0.0945  0.5657
76148SOL    HW246055  12.252   2.167   2.183  1.9065 -0.0690  0.7549
76149SOL     OW46056   0.724   7.429   3.154 -0.0001 -0.1376  0.2915
76149SOL    HW146057   0.760   7.374   3.086 -1.2278 -0.4617 -0.1252
76149SOL    HW246058   0.772   7.404   3.233  1.7764  0.5894 -0.5089
76150SOL     OW46059   4.770  11.468   6.161  0.0533 -0.4539 -0.5794
76150SOL    HW146060   4.775  11.558   6.194 -0.0212  0.3095 -2.4644
76150SOL    HW246061   4.835  11.419   6.212 -0.5563  0.4418  1.1091
76151SOL     OW46062   3.114   3.868  11.409  0.1631  0.1621  0.3909
76151SOL    HW146063   3.150   3.894  11.494  1.1903  1.2244 -0.3305
76151SOL    HW246064   3.186   3.820  11.366  0.8892  2.4310 -1.1305
76152SOL     OW46065   0.258   6.328   9.653 -0.6327  0.3450 -0.3202
76152SOL    HW146066   0.177   6.310   9.702 -0.1588 -0.2420  0.2642
76152SOL    HW246067   0.228   6.344   9.564 -1.5282  1.6485  0.1888
76153SOL     OW46068   9.902   8.110  13.692  0.4227 -1.1249 -0.0605
76153SOL    HW146069   9.920   8.203  13.679  1.8259 -1.0969  1.6325
76153SOL    HW246070   9.989   8.069  13.691  0.0144 -2.0939  1.3286
76154SOL     OW46071   3.936   3.725   9.508  0.0737  0.4066 -0.1076
76154SOL    HW146072   3.943   3.638   9.470  1.7042  0.4916 -0.0332
76154SOL    HW246073   3.967   3.784   9.439  0.1017  0.8341  0.2665
76155SOL     OW46074  13.849  10.183  13.574 -0.7647  0.0435 -0.2871
76155SOL    HW146075  13.840  10.148  13.662  1.2835 -0.3472 -0.1677
76155SOL    HW246076  13.891  10.268  13.586  0.9359 -0.6626 -0.9127
76156SOL     OW46077   1.139   5.516   0.046 -0.2860 -0.2185  0.2957
76156SOL    HW146078   1.172   5.603   0.072 -0.5989 -0.2050  0.6581
76156SOL    HW246079   1.203   5.484  -0.018 -0.9687  0.9082 -0.9897
76157SOL     OW46080   3.306   8.355  12.767  0.3558 -0.0510 -0.2801
76157SOL    HW146081   3.228   8.385  12.814  0.2458  0.4099 -0.7400
76157SOL    HW246082   3.274   8.286  12.708  0.1196  0.7402 -1.1040
76158SOL     OW46083  12.554   0.814   8.697  0.8023  0.1161 -0.1248
76158SOL    HW146084  12.469   0.804   8.741  0.1780 -2.0902 -1.6644
76158SOL    HW246085  12.618   0.812   8.768 -0.2705 -1.3987  0.8585
76159SOL     OW46086   5.593   6.469  11.763  0.1803 -0.2193  0.0635
76159SOL    HW146087   5.553   6.389  11.798  0.8113 -0.7982 -0.4993
76159SOL    HW246088   5.674   6.480  11.813 -0.3144  0.5407  0.7049
76160SOL     OW46089  12.335   5.763   9.924 -0.2553  0.0560 -0.1497
76160SOL    HW146090  12.304   5.722   9.843  0.0480  0.9899 -0.7504
76160SOL    HW246091  12.260   5.758   9.983 -0.2118 -1.3862 -0.1874
76161SOL     OW46092   9.437   1.140  10.537  0.1401  0.1113 -0.4622
76161SOL    HW146093   9.491   1.153  10.460 -1.0656 -1.4468 -1.6183
76161SOL    HW246094   9.491   1.088  10.597  1.3834  2.0042  0.1657
76162SOL     OW46095   0.691   9.835   0.945  0.0635 -0.1334 -0.1199
76162SOL    HW146096   0.751   9.761   0.944 -1.3665 -1.3572  0.2501
76162SOL    HW246097   0.631   9.816   1.018 -1.1914  0.6493 -0.9080
76163SOL     OW46098   2.910  13.841  12.446 -0.4996  0.7969 -0.5146
76163SOL    HW146099   2.965  13.807  12.517 -1.7279  0.3095  0.2278
76163SOL    HW246100   2.829  13.792  12.452 -1.0873  1.5973 -1.5082
76164SOL     OW46101   3.515  10.450   4.446 -0.4894  0.2508  0.1923
76164SOL    HW146102   3.479  10.476   4.531  3.4727  0.8830  1.8941
76164SOL    HW246103   3.481  10.361   4.432 -0.9889 -0.0182  2.6490
76165SOL     OW46104  12.638  13.831   6.894  0.3892 -0.1224  0.0189
76165SOL    HW146105  12.699  13.876   6.835  0.4402  0.0868  0.2280
76165SOL    HW246106  12.564  13.806   6.838  0.5888 -0.2233 -0.2003
76166SOL     OW46107   8.470  11.436   0.092 -0.4833  1.0020  0.4414
76166SOL    HW146108   8.417  11.358   0.079  0.7320 -0.3016  2.8250
76166SOL    HW246109   8.410  11.501   0.127 -1.7527  1.6290 -2.5754
76167SOL     OW46110   5.180   7.103   1.191 -0.0390 -0.1137 -0.6058
76167SOL    HW146111   5.091   7.068   1.182  0.9573 -2.7819 -0.9515
76167SOL    HW246112   5.195   7.152   1.110 -1.8971  2.3639  0.4027
76168SOL     OW46113  13.687  12.754  10.404  0.1472  0.1304 -0.2930
76168SOL    HW146114  13.705  12.712  10.320  0.5538  0.4035 -0.3396
76168SOL    HW246115  13.668  12.845  10.382  0.6651  0.3014 -0.0519
76169SOL     OW46116   9.602  10.384   4.949 -0.2603 -0.2549 -0.4282
76169SOL    HW146117   9.569  10.295   4.950  0.9730 -0.7559  1.4479
76169SOL    HW246118   9.662  10.388   5.023  0.8788  1.7073 -1.3725
76170SOL     OW46119   6.904  10.961  11.617 -0.2678 -0.4835 -0.0511
76170SOL    HW146120   6.836  11.026  11.630  1.7250  1.4821  1.2262
76170SOL    HW246121   6.860  10.877  11.632 -2.3424  0.6863  0.8283
76171SOL     OW46122   6.483   3.739  10.035  0.1062 -0.0897 -0.0057
76171SOL    HW146123   6.483   3.659  10.088 -0.0754  1.0862  1.8904
76171SOL    HW246124   6.421   3.796  10.080 -0.5888  0.7429 -1.9513
76172SOL     OW46125   8.317   2.430   3.748 -0.1581 -0.0951  0.0486
76172SOL    HW146126   8.363   2.514   3.739  1.7756 -0.9844  0.9813
76172SOL    HW246127   8.303   2.400   3.658  1.0281  0.2667 -0.2714
76173SOL     OW46128   2.520   8.714   0.748  0.5741  0.0586  0.4170
76173SOL    HW146129   2.464   8.681   0.819 -0.5814  1.8950  0.4341
76173SOL    HW246130   2.516   8.646   0.681 -2.4722  0.4690  0.0388
76174SOL     OW46131  10.726   9.307   5.125  0.4190 -0.1017  0.6584
76174SOL    HW146132  10.816   9.341   5.120  0.3010  0.3097  1.2543
76174SOL    HW246133  10.723   9.238   5.058  1.1731 -0.1116  0.6243
76175SOL     OW46134  12.569   1.815  13.287  0.4172  0.0925  0.0270
76175SOL    HW146135  12.579   1.723  13.308 -0.4889 -0.1701 -0.6122
76175SOL    HW246136  12.476   1.834  13.304  0.8795  1.2662  1.5297
76176SOL     OW46137   1.176   6.462   7.584  0.1540  0.6997 -0.0344
76176SOL    HW146138   1.201   6.473   7.493  0.4779 -0.8617 -0.1550
76176SOL    HW246139   1.080   6.458   7.583  0.1682 -2.5512 -0.7928
76177SOL     OW46140  11.688   0.704   4.839  0.7912 -0.5233  0.3155
76177SOL    HW146141  11.758   0.726   4.778  0.0620  0.0163 -0.3448
76177SOL    HW246142  11.624   0.657   4.786  0.3869 -0.5055  0.7810
76178SOL     OW46143   6.671   3.612  10.676 -0.0204  0.5488 -0.1647
76178SOL    HW146144   6.713   3.527  10.662 -1.4670 -0.1338 -0.5550
76178SOL    HW246145   6.595   3.592  10.731 -0.3288  1.6043 -0.1900
76179SOL     OW46146   7.741  11.905   5.777 -0.3680 -0.7971  0.1754
76179SOL    HW146147   7.753  11.981   5.833 -1.8898 -0.2095 -0.2568
76179SOL    HW246148   7.823  11.896   5.730 -1.2324  2.7350 -2.3635
76180SOL     OW46149   1.634   1.569   2.995  0.3939  0.0111  0.0233
76180SOL    HW146150   1.711   1.595   2.944  0.5454  0.3450  0.4208
76180SOL    HW246151   1.663   1.574   3.086  0.5628 -1.9118  0.1298
76181SOL     OW46152  12.884   1.852   3.691 -0.6880 -0.0271 -0.3932
76181SOL    HW146153  12.804   1.799   3.690  0.2057 -1.5522  1.8313
76181SOL    HW246154  12.877   1.904   3.771 -0.0861  0.9232 -0.9404
76182SOL     OW46155   9.835   7.894   5.160 -0.1461 -0.6660  0.4464
76182SOL    HW146156   9.896   7.853   5.098  0.6376 -0.2840  0.9425
76182SOL    HW246157   9.829   7.831   5.233  0.3182 -0.3312  0.7785
76183SOL     OW46158   2.119  11.025   8.853 -0.0526  0.1118 -0.2179
76183SOL    HW146159   2.026  11.046   8.856 -0.2756 -0.8973  0.1067
76183SOL    HW246160   2.130  10.954   8.917  0.8619 -0.0552 -0.5498
76184SOL     OW46161  13.598   3.775   1.997  0.2578 -0.6064  0.1624
76184SOL    HW146162  13.628   3.707   2.057  1.5420  0.5302  0.8744
76184SOL    HW246163  13.638   3.855   2.030  0.1080  0.2417 -1.5995
76185SOL     OW46164   1.434  11.205  13.392  0.3131  0.1418 -0.2430
76185SOL    HW146165   1.488  11.161  13.457  0.6093  2.0112  0.8648
76185SOL    HW246166   1.373  11.257  13.444  0.5297  1.6600 -1.4402
76186SOL     OW46167   3.164   4.211   7.686  0.3743  0.0177 -0.3035
76186SOL    HW146168   3.207   4.127   7.701 -0.0314  0.2082  2.3519
76186SOL    HW246169   3.230   4.276   7.711 -0.0797  0.4289 -0.1549
76187SOL     OW46170  13.084   0.794   6.852  0.2366  0.0994 -0.3526
76187SOL    HW146171  13.130   0.733   6.795  0.5883  0.2397 -0.2183
76187SOL    HW246172  13.130   0.877   6.842  1.2727 -0.2290  1.2942
76188SOL     OW46173   5.328   1.782   0.024 -0.1713  0.0007 -0.4050
76188SOL    HW146174   5.325   1.795   0.119  0.9570  0.2996 -0.3865
76188SOL    HW246175   5.360   1.692   0.014 -2.0058 -0.6684 -0.5216
76189SOL     OW46176  10.334   9.937   4.394 -0.0152  0.2167  0.2927
76189SOL    HW146177  10.295   9.995   4.328  0.1988 -0.8290 -0.7888
76189SOL    HW246178  10.413   9.903   4.352  0.9939  0.7425  1.6958
76190SOL     OW46179   9.197   9.787  12.097  0.8162  0.4194  0.4181
76190SOL    HW146180   9.177   9.802  12.189  1.8128 -1.3593  0.9604
76190SOL    HW246181   9.223   9.874  12.064  0.1433  1.1403  1.7075
76191SOL     OW46182  12.365   1.209  11.126  0.0378 -0.3958 -0.5012
76191SOL    HW146183  12.359   1.188  11.219  1.8880 -1.6789 -0.6161
76191SOL    HW246184  12.428   1.280  11.121 -0.5777  0.1401 -0.7328
76192SOL     OW46185   8.689   6.047  11.550  0.2451  0.4025  0.0394
76192SOL    HW146186   8.720   6.039  11.641 -1.8000  0.7309  0.8286
76192SOL    HW246187   8.715   6.136  11.524 -0.6108  0.9394  0.9350
76193SOL     OW46188   9.031  10.988  10.276 -0.0858  0.6589 -0.3295
76193SOL    HW146189   8.993  10.910  10.235  1.2862  0.2351 -0.8449
76193SOL    HW246190   8.955  11.042  10.298 -1.0670 -0.7100 -0.1487
76194SOL     OW46191   4.878   3.877   6.509 -0.3786 -0.4438  0.0231
76194SOL    HW146192   4.808   3.935   6.480  0.4452  0.3735 -0.3505
76194SOL    HW246193   4.850   3.790   6.479  0.0622  0.2421 -2.6114
76195SOL     OW46194   9.002  11.633   0.952  0.2405  0.4332 -0.2210
76195SOL    HW146195   9.055  11.612   0.876  0.1926  0.0062 -0.1380
76195SOL    HW246196   8.923  11.579   0.943  0.7830 -0.5802  0.7626
76196SOL     OW46197   7.183   2.732   3.698 -0.7840  0.1903  0.1758
76196SOL    HW146198   7.159   2.799   3.633 -1.4562 -0.4540 -0.2538
76196SOL    HW246199   7.103   2.681   3.710 -0.4966 -0.0527  1.0882
76197SOL     OW46200   9.000   2.425  13.302  0.3036 -0.0003 -0.4743
76197SOL    HW146201   8.976   2.344  13.257  1.8827 -0.9836  0.3628
76197SOL    HW246202   8.965   2.415  13.391  1.0318 -0.0622 -0.1856
76198SOL     OW46203  11.873  11.423  13.716  0.1802  0.0613 -0.1287
76198SOL    HW146204  11.888  11.340  13.671  1.9535 -0.2185  0.8880
76198SOL    HW246205  11.945  11.429  13.779 -1.0868  1.3785  1.2652
76199SOL     OW46206   8.523   2.088   1.790  0.1426  0.0784  0.3663
76199SOL    HW146207   8.548   2.008   1.837  0.1012 -0.9382 -1.2631
76199SOL    HW246208   8.441   2.066   1.746  0.6936  0.6426 -0.9972
76200SOL     OW46209   3.951   8.692   2.323  0.1197 -0.2460 -0.0781
76200SOL    HW146210   4.037   8.733   2.330 -0.6682  1.5327 -0.2665
76200SOL    HW246211   3.968   8.609   2.279  1.9623 -0.8090  1.5687
76201SOL     OW46212   8.353   8.943   3.592 -0.1221  0.0498 -0.5042
76201SOL    HW146213   8.423   8.879   3.604  0.7089  1.1549  0.8792
76201SOL    HW246214   8.331   8.937   3.499  1.0547 -1.0748 -0.7456
76202SOL     OW46215   6.472  10.371  11.663 -0.1098 -0.2160 -0.3047
76202SOL    HW146216   6.414  10.297  11.681  0.0831 -0.7516 -1.8082
76202SOL    HW246217   6.434  10.413  11.586 -0.7435  1.8389  1.0433
76203SOL     OW46218   3.590   8.412   2.826  0.4631 -0.2025 -0.2684
76203SOL    HW146219   3.521   8.471   2.856  1.1449  0.6700 -0.3966
76203SOL    HW246220   3.662   8.469   2.800  1.2773 -1.0998 -0.0666
76204SOL     OW46221  13.027   5.762  12.186  0.7775 -0.3015 -0.1824
76204SOL    HW146222  13.023   5.858  12.189 -1.0340 -0.3436 -0.0064
76204SOL    HW246223  13.115   5.742  12.156  1.8185  1.3881  1.5569
76205SOL     OW46224   2.225   4.234   5.731 -0.6228  0.4629  0.7477
76205SOL    HW146225   2.213   4.295   5.659 -1.1916 -0.5439 -0.0426
76205SOL    HW246226   2.232   4.289   5.809 -0.2063  1.5622 -0.0391
76206SOL     OW46227   3.478   4.724   1.041  0.3572  0.1993 -0.1981
76206SOL    HW146228   3.415   4.761   0.979 -0.4277  0.8644  0.9537
76206SOL    HW246229   3.546   4.792   1.049 -0.0862  0.5793  0.4481
76207SOL     OW46230   6.220   7.270   2.453 -0.1422  0.0423  0.0548
76207SOL    HW146231   6.169   7.189   2.447 -0.1048  0.0598 -0.6892
76207SOL    HW246232   6.157   7.339   2.432  0.1948  0.0520 -0.9999
76208SOL     OW46233   9.661  12.934   2.190 -0.3436  0.2054  0.4960
76208SOL    HW146234   9.606  12.931   2.112  0.7948  1.1243 -0.3674
76208SOL    HW246235   9.607  12.978   2.256 -0.9157  0.4372 -0.1181
76209SOL     OW46236   7.815   2.310   4.096  0.0306  0.2828  0.0674
76209SOL    HW146237   7.795   2.241   4.033 -1.6584  0.4740  0.3673
76209SOL    HW246238   7.825   2.389   4.044 -1.6304  0.4941  0.0382
76210SOL     OW46239   2.789   7.016   2.486  0.0257  0.7096 -0.7110
76210SOL    HW146240   2.698   7.000   2.510  0.1173  0.5658 -0.4592
76210SOL    HW246241   2.794   7.111   2.472 -0.4563  0.5771 -1.9475
76211SOL     OW46242   3.478  13.005  11.478 -0.5714  0.1756  0.8802
76211SOL    HW146243   3.522  13.065  11.538  0.1536  0.4066  0.1370
76211SOL    HW246244   3.414  12.960  11.532 -1.6148  2.1003  1.3285
76212SOL     OW46245   1.940  11.171   3.457 -0.2812 -0.1459 -0.3740
76212SOL    HW146246   1.857  11.187   3.414 -0.0255 -0.7212 -1.1089
76212SOL    HW246247   1.917  11.146   3.546 -1.0287 -2.0396 -1.0361
76213SOL     OW46248   9.921   2.411   1.818 -0.5070  0.5555  0.0798
76213SOL    HW146249   9.962   2.399   1.733 -1.1608 -0.0168 -0.1753
76213SOL    HW246250   9.842   2.356   1.814  0.2509 -0.7451  1.6067
76214SOL     OW46251   0.620   8.440  14.060  0.1021 -0.0258 -0.4758
76214SOL    HW146252   0.630   8.532  14.034 -2.1521  0.0400 -1.3105
76214SOL    HW246253   0.577   8.444  14.146  0.5866 -0.3102 -0.2142
76215SOL     OW46254   1.896   0.441   3.063 -0.4277  0.1221  0.0869
76215SOL    HW146255   1.861   0.379   3.128 -0.6307 -1.9853 -1.9060
76215SOL    HW246256   1.989   0.445   3.083 -0.6324  0.2702  1.0910
76216SOL     OW46257   2.204   0.917   5.328  0.0034 -0.1688  0.6149
76216SOL    HW146258   2.295   0.949   5.321 -0.0638  0.0441  0.7080
76216SOL    HW246259   2.212   0.829   5.364  0.2333 -0.4996 -0.2228
76217SOL     OW46260   8.744   5.879   0.670 -0.4485  0.2455  0.0686
76217SOL    HW146261   8.653   5.859   0.695 -0.4568 -0.0748 -0.1978
76217SOL    HW246262   8.735   5.936   0.594 -0.4459 -0.7786 -0.7305
76218SOL     OW46263   9.603  12.965  10.112 -0.2663  0.2282 -0.0029
76218SOL    HW146264   9.516  13.005  10.114 -1.0073 -1.2548 -0.7739
76218SOL    HW246265   9.586  12.871  10.104  1.4099 -0.1300  0.2619
76219SOL     OW46266   4.749  13.117   8.197  0.1097  0.5646 -0.0852
76219SOL    HW146267   4.732  13.210   8.182 -3.4598 -0.0467 -0.6790
76219SOL    HW246268   4.731  13.075   8.113  1.5703 -0.7387  0.1961
76220SOL     OW46269   0.417   2.313   2.766 -0.0317 -0.2408 -0.2253
76220SOL    HW146270   0.436   2.379   2.833  0.8919  1.2813 -1.8977
76220SOL    HW246271   0.343   2.349   2.717 -0.3186 -1.0572 -0.4136
76221SOL     OW46272   2.687   4.845   2.089  0.2053 -0.3385 -0.1039
76221SOL    HW146273   2.764   4.881   2.045  0.3190 -1.9324 -1.3350
76221SOL    HW246274   2.718   4.817   2.175  0.3307  1.5005  0.4811
76222SOL     OW46275   1.200   4.221   3.874 -0.3674 -0.3480 -0.0903
76222SOL    HW146276   1.185   4.214   3.780 -1.7990 -0.8575  0.1497
76222SOL    HW246277   1.147   4.151   3.912 -1.8413  1.3746  1.2466
76223SOL     OW46278   2.991   1.536   8.606 -0.1799 -0.5680  0.3226
76223SOL    HW146279   2.940   1.521   8.686  0.3360 -1.7417  0.4526
76223SOL    HW246280   2.935   1.502   8.535 -0.3674 -0.1147  0.2498
76224SOL     OW46281   7.206   1.866   3.071  0.3336 -0.3593  0.1824
76224SOL    HW146282   7.247   1.877   3.157  0.4015 -2.2114  0.4094
76224SOL    HW246283   7.128   1.921   3.075  0.6998  0.1183  1.1725
76225SOL     OW46284   6.826   3.533   3.767 -0.1462  0.0118  0.0349
76225SOL    HW146285   6.821   3.490   3.852  1.4592 -0.1015  0.0878
76225SOL    HW246286   6.774   3.613   3.778  0.0684  0.0143  1.1232
76226SOL     OW46287  11.605  10.775  12.131 -0.2597 -0.0451 -0.1035
76226SOL    HW146288  11.570  10.721  12.060  1.5704 -1.0119 -0.3335
76226SOL    HW246289  11.659  10.715  12.183  1.0376  1.3241  0.2169
76227SOL     OW46290   3.982   2.367   4.926  0.1983 -0.0993  0.8065
76227SOL    HW146291   3.903   2.396   4.879  2.4499  1.0308 -2.6839
76227SOL    HW246292   3.981   2.272   4.918  0.4489  0.0312 -1.7227
76228SOL     OW46293  11.964   7.535   3.592 -0.3716  0.3059 -0.0500
76228SOL    HW146294  11.986   7.627   3.611  0.5450  0.6954 -2.5341
76228SOL    HW246295  11.911   7.540   3.512  1.9509 -1.3697 -1.8407
76229SOL     OW46296   2.322   0.730   9.783 -0.2512  0.6106 -0.1823
76229SOL    HW146297   2.406   0.776   9.779 -0.4856  1.0272 -0.4228
76229SOL    HW246298   2.276   0.769   9.857 -0.4518  0.7610 -0.3860
76230SOL     OW46299   9.675   3.825   3.652  0.0116  0.1541  0.3915
76230SOL    HW146300   9.647   3.916   3.650 -1.3804 -0.2074  1.5550
76230SOL    HW246301   9.594   3.775   3.647  0.7788 -1.0502 -0.6989
76231SOL     OW46302   1.205   9.086   0.613  0.1062  0.0816 -0.0042
76231SOL    HW146303   1.275   9.024   0.636 -0.3289  0.1320  1.5917
76231SOL    HW246304   1.248   9.151   0.559  0.6846 -1.3396 -1.3333
76232SOL     OW46305  11.928   6.705  13.959 -0.1410  0.0203 -0.4677
76232SOL    HW146306  11.908   6.648  13.885  0.6207  0.1555 -0.7885
76232SOL    HW246307  11.860   6.773  13.956 -0.6360 -0.4694 -0.5008
76233SOL     OW46308   6.330   6.931   7.519 -0.3936  0.8516  0.0580
76233SOL    HW146309   6.302   6.912   7.608  0.0935  0.1483  0.0721
76233SOL    HW246310   6.248   6.940   7.470 -0.6731 -0.6295  0.2089
76234SOL     OW46311   4.817  11.387   7.113 -0.2301  0.0569 -0.0753
76234SOL    HW146312   4.901  11.396   7.067 -1.0021 -0.1134 -1.5932
76234SOL    HW246313   4.840  11.392   7.206  1.3843  0.6296 -0.4637
76235SOL     OW46314   5.591  10.305   3.597  0.5809 -0.0646 -0.6529
76235SOL    HW146315   5.558  10.232   3.543  2.5561 -0.8896 -0.8133
76235SOL    HW246316   5.538  10.301   3.676 -0.0259 -1.0435 -1.0853
76236SOL     OW46317   9.858   2.464   6.748 -0.4840 -0.5351 -0.2655
76236SOL    HW146318   9.883   2.393   6.690 -0.5647 -1.5306  0.8707
76236SOL    HW246319   9.925   2.464   6.816 -0.7357  0.1786 -0.0046
76237SOL     OW46320   7.021  12.423   8.008 -0.5753 -0.4861 -0.0779
76237SOL    HW146321   6.956  12.485   7.976 -0.1311  0.6291  1.0666
76237SOL    HW246322   6.978  12.379   8.082  0.2016  0.8351  1.2021
76238SOL     OW46323   0.951   2.887   3.150  0.1841 -0.0282  0.4516
76238SOL    HW146324   0.925   2.972   3.184  0.4864 -0.9138  3.1925
76238SOL    HW246325   1.040   2.900   3.116 -0.7637  1.2727 -1.7056
76239SOL     OW46326  12.589   3.959  11.324 -0.2478  0.5281  0.6118
76239SOL    HW146327  12.637   3.877  11.321 -1.2089 -0.0447  0.3160
76239SOL    HW246328  12.643   4.021  11.275  1.3521  0.5783  2.3193
76240SOL     OW46329   0.935   1.039   6.061  0.4873  0.2860  0.3518
76240SOL    HW146330   0.936   1.108   6.128 -1.3746 -0.0409  0.7672
76240SOL    HW246331   0.866   1.065   6.000  1.9257  0.3984 -1.3004
76241SOL     OW46332   8.324  13.125  11.377 -0.2853 -0.4010 -0.6221
76241SOL    HW146333   8.284  13.200  11.421  0.7138  0.0227 -0.4129
76241SOL    HW246334   8.346  13.158  11.289 -0.2098 -0.5619 -0.6641
76242SOL     OW46335   3.151  11.143   0.777  0.6180  0.3170 -0.0545
76242SOL    HW146336   3.083  11.141   0.709  0.0216  2.1798  0.4214
76242SOL    HW246337   3.218  11.083   0.745 -1.0916 -1.3831 -0.6912
76243SOL     OW46338   9.743   9.227  11.788  0.2285  0.2927  0.3800
76243SOL    HW146339   9.652   9.227  11.759  0.7525  0.9449 -1.3985
76243SOL    HW246340   9.745   9.164  11.859 -1.4833 -0.2245  0.0252
76244SOL     OW46341  11.609  13.420   1.590 -0.2868  0.0589  0.0577
76244SOL    HW146342  11.607  13.468   1.672 -1.1472  0.0172  0.0757
76244SOL    HW246343  11.632  13.485   1.524 -0.7564  0.3549  0.1775
76245SOL     OW46344   2.888  10.128   1.098  0.1226  0.1489 -0.7226
76245SOL    HW146345   2.915  10.188   1.029  0.1030 -0.5026 -1.2970
76245SOL    HW246346   2.907  10.041   1.064 -1.6491 -0.2864 -0.7103
76246SOL     OW46347   6.411   2.783   3.999 -0.7196  0.0603 -0.2201
76246SOL    HW146348   6.432   2.846   4.067 -2.1506  2.7995 -2.1245
76246SOL    HW246349   6.487   2.784   3.940 -0.4916 -0.4804  0.0582
76247SOL     OW46350   4.083  14.062   8.546  0.6577  0.0341  0.1208
76247SOL    HW146351   4.057  14.103   8.628 -0.0774 -1.3591  0.6151
76247SOL    HW246352   4.008  14.075   8.488  0.3630 -0.7309  0.3271
76248SOL     OW46353   3.566   8.469  10.340 -0.4704  0.1037  0.2605
76248SOL    HW146354   3.476   8.497  10.354 -0.6372  0.7252 -1.7188
76248SOL    HW246355   3.618   8.524  10.398 -1.2674  0.5210  0.5937
76249SOL     OW46356   4.628   7.736   1.652 -0.3367  0.1276  0.1620
76249SOL    HW146357   4.628   7.685   1.733 -1.8037 -0.3930 -0.1188
76249SOL    HW246358   4.669   7.819   1.675  0.2437 -0.4229  1.1587
76250SOL     OW46359   5.643  10.157  13.357  0.2184  0.0263  0.0542
76250SOL    HW146360   5.676  10.125  13.273  0.9988  0.9468 -0.0052
76250SOL    HW246361   5.718  10.153  13.416 -0.2847 -0.4782  0.6803
76251SOL     OW46362  10.060   3.053   3.993 -0.4069 -0.4671  0.2615
76251SOL    HW146363  10.137   3.021   4.040  0.8056 -0.6281 -1.7230
76251SOL    HW246364  10.093   3.122   3.936 -1.5132 -1.2443 -1.3991
76252SOL     OW46365   5.824  11.851   9.475 -0.2256  0.4208  0.1780
76252SOL    HW146366   5.804  11.890   9.560 -0.8444 -0.4665  0.4626
76252SOL    HW246367   5.821  11.756   9.490  0.7614  0.2479 -0.5896
76253SOL     OW46368   6.794   5.244   5.712  0.1712  0.0167  0.3315
76253SOL    HW146369   6.700   5.250   5.698  0.1408  0.8581  0.8759
76253SOL    HW246370   6.808   5.274   5.801  0.7901 -1.6274  0.8299
76254SOL     OW46371   9.263   6.643   3.414  0.0535  0.2641 -0.2829
76254SOL    HW146372   9.187   6.698   3.431 -1.4557 -1.9400  0.5521
76254SOL    HW246373   9.311   6.641   3.496  0.0641  0.2850 -0.2888
76255SOL     OW46374   0.544   9.454  11.032  0.0015 -0.7121 -0.3430
76255SOL    HW146375   0.525   9.543  11.062 -0.6429 -0.6092 -1.0283
76255SOL    HW246376   0.613   9.466  10.966 -1.2750 -0.5164 -1.6893
76256SOL     OW46377   7.084   1.289   8.544  0.0591  0.1651  0.4237
76256SOL    HW146378   7.094   1.377   8.580  0.3423  1.3669 -2.3380
76256SOL    HW246379   7.171   1.267   8.511 -0.4203 -0.3682 -0.5298
76257SOL     OW46380  13.261   3.443   1.361 -0.0424 -0.0995 -0.0017
76257SOL    HW146381  13.200   3.444   1.287 -0.2686 -1.1719  0.1582
76257SOL    HW246382  13.237   3.365   1.410  0.6081  0.1950  0.7926
76258SOL     OW46383   3.108   0.438   3.012 -0.3416 -0.3817 -0.0546
76258SOL    HW146384   3.155   0.366   3.055  2.0808  1.0388 -0.1879
76258SOL    HW246385   3.139   0.436   2.921 -1.5057 -0.1589 -0.4701
76259SOL     OW46386   1.121   2.648   9.128 -0.0261  0.3789 -0.3189
76259SOL    HW146387   1.055   2.632   9.195  1.5020  0.2735  1.2354
76259SOL    HW246388   1.202   2.664   9.177  1.5175 -1.2370 -2.1575
76260SOL     OW46389   2.427   5.131  12.320 -0.0418  0.4740  0.7207
76260SOL    HW146390   2.353   5.139  12.379 -0.2030 -2.0287  0.9645
76260SOL    HW246391   2.501   5.109  12.377  0.2922  0.2635  0.2149
76261SOL     OW46392   0.403   1.908   5.064 -0.0853 -0.0080  0.3935
76261SOL    HW146393   0.424   1.817   5.083 -0.0394  0.0242  0.4983
76261SOL    HW246394   0.313   1.906   5.030 -0.1495 -0.0722  0.5649
76262SOL     OW46395   1.055  11.563   4.538  0.3990 -0.1477 -0.1885
76262SOL    HW146396   1.052  11.469   4.553 -2.1777  0.0304  1.0846
76262SOL    HW246397   1.028  11.601   4.622  3.1452  1.8608 -0.0849
76263SOL     OW46398   9.592   9.796   6.325  0.0846 -0.4940  0.4181
76263SOL    HW146399   9.664   9.749   6.283 -1.1395 -0.4406 -1.9405
76263SOL    HW246400   9.534   9.727   6.359  0.3261 -0.5845  0.6436
76264SOL     OW46401  10.081  12.631  12.516 -0.1677 -0.7529 -0.5052
76264SOL    HW146402  10.059  12.566  12.450 -0.7545  0.3744 -1.4620
76264SOL    HW246403  10.019  12.703  12.500 -0.9182 -0.7833  1.8083
76265SOL     OW46404   2.912   0.137   4.851 -0.0003  0.3624 -0.3544
76265SOL    HW146405   2.935   0.154   4.759  0.2280 -0.9346 -0.5581
76265SOL    HW246406   2.979   0.182   4.901  0.3341  0.4205 -0.8485
76266SOL     OW46407   6.317   7.458   1.087 -0.1044 -0.9157  0.8845
76266SOL    HW146408   6.351   7.491   1.004  0.4931 -0.5300  1.2692
76266SOL    HW246409   6.247   7.519   1.109  1.5681  0.7410  2.0309
76267SOL     OW46410   1.394   8.977   2.158  0.7305  0.1239 -1.0479
76267SOL    HW146411   1.441   8.991   2.075 -0.0166 -0.3168 -1.5613
76267SOL    HW246412   1.329   8.910   2.137  0.4074  0.1435 -0.1414
76268SOL     OW46413  12.627  13.925   3.231 -0.3388  0.1649 -0.2061
76268SOL    HW146414  12.700  13.934   3.170  0.1134  0.8553  0.4229
76268SOL    HW246415  12.562  13.873   3.184  0.4611 -0.2542 -0.8580
76269SOL     OW46416   3.843   7.389   9.437  0.5357  0.2850 -0.1081
76269SOL    HW146417   3.817   7.419   9.524  0.6076 -0.2855  0.1181
76269SOL    HW246418   3.935   7.414   9.429  0.6810 -0.1414  0.2008
76270SOL     OW46419   1.791  11.787   0.998 -0.2624  0.5621  0.2264
76270SOL    HW146420   1.845  11.862   0.973  1.2988 -0.5175  0.2141
76270SOL    HW246421   1.757  11.810   1.084 -0.0051  1.3762  0.1221
76271SOL     OW46422   4.320   0.403   8.284 -0.0346 -0.3323 -0.4896
76271SOL    HW146423   4.262   0.333   8.253  1.0176 -0.4627 -2.2661
76271SOL    HW246424   4.383   0.359   8.341 -0.1764 -0.5966 -0.5338
76272SOL     OW46425  12.792   6.223  11.708 -0.2581 -0.4184 -0.0621
76272SOL    HW146426  12.751   6.309  11.715 -0.4183 -0.4716 -0.3240
76272SOL    HW246427  12.720   6.161  11.716 -0.2174 -0.5152 -0.4288
76273SOL     OW46428   4.189   9.527  13.572  0.3349 -0.0610 -0.0745
76273SOL    HW146429   4.106   9.520  13.526  0.5267 -1.0674 -0.2915
76273SOL    HW246430   4.207   9.438  13.603  1.4479  0.0858 -0.2447
76274SOL     OW46431   6.253   0.684  11.388  0.1089  0.6158  0.1521
76274SOL    HW146432   6.207   0.629  11.325 -0.4681  1.8688 -0.5794
76274SOL    HW246433   6.343   0.652  11.387 -0.4126 -0.8960  0.4615
76275SOL     OW46434  13.455  13.457   9.287  0.3155 -0.3013  0.1555
76275SOL    HW146435  13.444  13.363   9.275  0.8302 -0.2952 -0.4160
76275SOL    HW246436  13.367  13.490   9.305  0.2316 -0.9886  1.1081
76276SOL     OW46437  12.525   3.130   4.341 -0.9240  0.4259 -0.0298
76276SOL    HW146438  12.500   3.037   4.341  1.0233 -0.1460  0.6797
76276SOL    HW246439  12.552   3.148   4.431 -1.3887  1.7465 -0.1300
76277SOL     OW46440  12.312   6.807   9.597 -0.3294 -0.1127 -0.3726
76277SOL    HW146441  12.361   6.888   9.585 -0.0254 -0.1797  0.3775
76277SOL    HW246442  12.373   6.748   9.642 -1.2986  0.0392  1.2138
76278SOL     OW46443  13.932  12.510   4.969 -0.1341  0.5499  0.7465
76278SOL    HW146444  13.856  12.512   4.912  0.7199  0.6301 -0.4182
76278SOL    HW246445  13.964  12.420   4.964  0.8217  0.9219 -0.1088
76279SOL     OW46446  12.543   8.270  10.329 -0.2206 -0.3075 -0.2322
76279SOL    HW146447  12.516   8.351  10.287 -1.4489 -0.4744  0.2105
76279SOL    HW246448  12.480   8.257  10.400  0.6556 -1.0424  0.4397
76280SOL     OW46449  11.796   6.915  12.270  0.0595 -0.0500 -0.1334
76280SOL    HW146450  11.851   6.938  12.195  0.2887 -1.7084 -0.5017
76280SOL    HW246451  11.721   6.870  12.232 -0.6390  0.5154  0.5272
76281SOL     OW46452   4.216  12.126  10.050 -0.7079 -0.1463  0.6648
76281SOL    HW146453   4.169  12.158  10.127 -0.2006  0.0268  0.9045
76281SOL    HW246454   4.263  12.049  10.080  0.1782  0.4141  0.7521
76282SOL     OW46455   5.627  12.603   2.103 -0.8095 -0.0374 -0.0259
76282SOL    HW146456   5.659  12.678   2.054  0.9927 -0.2641  0.7106
76282SOL    HW246457   5.534  12.596   2.080 -0.9269  2.1744 -0.3734
76283SOL     OW46458  10.992  10.206  11.425 -0.0621 -0.2992  1.1077
76283SOL    HW146459  11.015  10.287  11.380 -0.8060 -1.2503 -1.0839
76283SOL    HW246460  11.032  10.215  11.512  1.0069  1.8160  0.4580
76284SOL     OW46461  10.980   9.545   7.556 -0.8411  0.0426 -0.5124
76284SOL    HW146462  10.964   9.480   7.488 -0.5103  0.3601 -0.9002
76284SOL    HW246463  10.897   9.550   7.604 -0.8438 -0.7211 -0.4208
76285SOL     OW46464   3.169   6.439  14.068  0.1961  0.2371  0.7218
76285SOL    HW146465   3.144   6.358  14.112 -0.4046  0.3701  0.6310
76285SOL    HW246466   3.104   6.450  13.998  1.5820 -0.3804 -0.7208
76286SOL     OW46467   3.491   7.551   9.756  0.0498 -0.1323  0.0328
76286SOL    HW146468   3.481   7.478   9.696 -1.0100 -0.3361  0.4431
76286SOL    HW246469   3.473   7.629   9.703 -1.8094 -0.3664  0.2651
76287SOL     OW46470   2.966   6.221  11.409  0.2824 -0.2315  0.5722
76287SOL    HW146471   2.899   6.265  11.357 -0.8268 -1.0448  1.2714
76287SOL    HW246472   2.998   6.289  11.469  1.7778  0.7986 -1.2763
76288SOL     OW46473   6.092  11.423   5.144  0.3166  0.2373 -0.2388
76288SOL    HW146474   6.020  11.443   5.084 -0.5914 -0.3171  0.6162
76288SOL    HW246475   6.164  11.395   5.088 -0.2805  0.3961 -1.1011
76289SOL     OW46476   2.238   1.451   3.667  0.2580 -0.2184 -0.3622
76289SOL    HW146477   2.153   1.410   3.684  1.1786 -1.0370  3.1024
76289SOL    HW246478   2.298   1.378   3.652  0.6434  0.2708 -1.2809
76290SOL     OW46479   2.894   6.614   2.193 -0.4069 -0.7480  0.2832
76290SOL    HW146480   2.818   6.612   2.136 -0.9677 -2.4459  1.0302
76290SOL    HW246481   2.864   6.577   2.276  0.6902  0.5587  1.3235
76291SOL     OW46482   3.636   4.313  12.625 -0.5414  0.0271 -0.1435
76291SOL    HW146483   3.619   4.219  12.623 -0.6096  0.0348  0.0798
76291SOL    HW246484   3.567   4.351  12.572  0.5246 -0.2023 -1.7842
76292SOL     OW46485   0.073   9.216   6.975 -0.3056  0.1289  0.4722
76292SOL    HW146486   0.139   9.285   6.986 -0.2806 -0.1555  2.5057
76292SOL    HW246487   0.114   9.153   6.916  1.4754 -0.2242  1.9776
76293SOL     OW46488   0.170   0.800   2.817  1.0778 -0.3243  0.2527
76293SOL    HW146489   0.197   0.710   2.802  0.0921 -0.3676 -1.4992
76293SOL    HW246490   0.091   0.792   2.871 -1.0584 -0.8170 -2.6766
76294SOL     OW46491   0.959  11.129   8.602 -0.0149 -0.0456 -0.4188
76294SOL    HW146492   0.889  11.079   8.558  0.4808 -2.3429  1.2145
76294SOL    HW246493   0.917  11.212   8.626 -1.8199 -0.8452 -0.5802
76295SOL     OW46494  12.240   5.510   1.443  0.1070 -0.4871 -0.7467
76295SOL    HW146495  12.159   5.557   1.463  0.1376 -0.9012  0.4253
76295SOL    HW246496  12.309   5.567   1.474  0.1011 -1.8594  2.0571
76296SOL     OW46497   1.960  12.014   5.131 -0.5313  0.1864  0.1399
76296SOL    HW146498   2.041  12.035   5.083 -0.5017  0.6928  0.4004
76296SOL    HW246499   1.916  11.949   5.077  0.4942 -0.8070  0.4397
76297SOL     OW46500   0.741   6.065  11.792  0.8100 -0.3625 -0.4272
76297SOL    HW146501   0.824   6.023  11.772  1.0189 -0.2555  0.1907
76297SOL    HW246502   0.764   6.139  11.848  0.3214 -0.2213 -0.4068
76298SOL     OW46503   6.424  11.016  13.332 -0.1608  0.0708  0.1371
76298SOL    HW146504   6.407  11.063  13.251 -0.1587  0.2007  0.2110
76298SOL    HW246505   6.484  10.946  13.307  1.1000  1.0390  0.2844
76299SOL     OW46506   0.027   9.024  10.526  0.5171 -0.1552 -0.0939
76299SOL    HW146507  -0.011   8.951  10.575 -1.6630  1.2397  0.4040
76299SOL    HW246508   0.109   9.044  10.572 -1.9734  1.9221  3.9948
76300SOL     OW46509  13.277   2.043   2.652 -0.5300  0.2535  0.3716
76300SOL    HW146510  13.237   1.964   2.617 -0.0630  0.4894 -0.7679
76300SOL    HW246511  13.214   2.113   2.634 -1.0742  0.1055  1.6475
76301SOL     OW46512  12.902   6.564   0.717  0.1821 -0.6524 -0.2208
76301SOL    HW146513  12.931   6.533   0.803 -1.2955 -0.7573  0.2725
76301SOL    HW246514  12.892   6.484   0.665 -0.8764 -0.7874  0.1628
76302SOL     OW46515   7.792   3.139  11.453  0.0393 -0.3881 -0.0276
76302SOL    HW146516   7.750   3.208  11.402  0.6131 -0.7781 -1.0594
76302SOL    HW246517   7.811   3.179  11.538  3.2534  1.7912 -1.5980
76303SOL     OW46518  13.342   2.677   9.850 -0.1335 -0.0280 -0.1215
76303SOL    HW146519  13.284   2.750   9.827 -0.8098  0.5600  3.0660
76303SOL    HW246520  13.428   2.718   9.858 -0.3817  0.3203  0.9410
76304SOL     OW46521   6.768   4.007   7.595 -0.2050  0.2416 -0.0668
76304SOL    HW146522   6.753   4.047   7.681  1.7420  1.1459 -0.0908
76304SOL    HW246523   6.756   3.914   7.609 -0.0030  0.3822  1.1773
76305SOL     OW46524   3.948   6.731   1.418  0.6058 -0.1852 -0.3064
76305SOL    HW146525   4.021   6.770   1.369  0.6621  0.1756  0.0565
76305SOL    HW246526   3.988   6.692   1.495  0.6244 -1.5374 -0.9823
76306SOL     OW46527   1.472   5.399   8.350  0.0194  0.3420 -0.3596
76306SOL    HW146528   1.384   5.361   8.345  0.3408 -0.2504 -3.8920
76306SOL    HW246529   1.480   5.429   8.441 -3.0686 -1.3105  0.5942
76307SOL     OW46530   3.041   9.364   3.871  0.0668 -0.5590 -0.3407
76307SOL    HW146531   3.018   9.443   3.921  0.7695 -0.7880  0.3575
76307SOL    HW246532   3.136   9.365   3.868  0.1135 -1.7964  0.3529
76308SOL     OW46533   8.910   3.677  12.425 -0.1867  0.8818 -0.1386
76308SOL    HW146534   8.872   3.590  12.413 -1.6163  1.4679 -0.1505
76308SOL    HW246535   8.959   3.694  12.345 -1.8853  1.0119 -1.2162
76309SOL     OW46536   5.366  14.020   5.736 -0.1766 -0.6940 -0.0883
76309SOL    HW146537   5.415  14.011   5.818  0.0187  0.1160 -0.1060
76309SOL    HW246538   5.289  14.072   5.759 -0.6589 -1.3439 -0.2115
76310SOL     OW46539   4.618   3.884  10.699  0.1286  0.3976 -0.0831
76310SOL    HW146540   4.589   3.912  10.612  2.2695  1.4188 -0.5481
76310SOL    HW246541   4.660   3.799  10.685 -1.0770 -0.2867  0.2978
76311SOL     OW46542   0.971   6.796  12.877 -0.3197  0.4020  0.7698
76311SOL    HW146543   1.054   6.823  12.917  0.0655  0.5144 -0.0921
76311SOL    HW246544   0.993   6.778  12.786 -0.2774 -3.8975  1.4028
76312SOL     OW46545   4.867  11.315  14.027  0.3349 -0.3178  0.1354
76312SOL    HW146546   4.816  11.371  13.969  2.0793  0.1774 -0.9960
76312SOL    HW246547   4.932  11.374  14.066  0.7817 -1.1396  0.6523
76313SOL     OW46548   8.016   8.987   4.082 -0.4941 -0.2938 -0.5063
76313SOL    HW146549   7.997   9.001   4.174 -1.3139  1.4864 -0.9001
76313SOL    HW246550   8.102   8.946   4.081  0.2136  1.0243  1.0190
76314SOL     OW46551   4.289   0.465  11.405  0.2733  0.0588  0.1799
76314SOL    HW146552   4.316   0.409  11.333  2.1656 -0.0278  0.8935
76314SOL    HW246553   4.294   0.554  11.370 -2.4335 -0.1060 -0.8576
76315SOL     OW46554   3.195   3.982  11.633 -0.5994 -0.1126 -0.2179
76315SOL    HW146555   3.152   4.006  11.715  0.9836 -1.9535  1.2527
76315SOL    HW246556   3.270   4.042  11.628  0.2481 -1.0695  0.5962
76316SOL     OW46557   8.804   5.899  12.212  0.4405 -0.0036 -0.6739
76316SOL    HW146558   8.722   5.853  12.196 -0.6849  1.6004  0.1926
76316SOL    HW246559   8.871   5.830  12.214 -1.2734 -1.7327  1.5997
76317SOL     OW46560  10.235  10.537   4.517 -0.3634  0.3793 -0.1813
76317SOL    HW146561  10.230  10.580   4.602  3.4779 -0.1035  0.4835
76317SOL    HW246562  10.320  10.563   4.482 -0.3488 -2.1124 -2.3205
76318SOL     OW46563   5.002   6.448   9.721  0.2002  0.1601 -0.4402
76318SOL    HW146564   5.079   6.489   9.760 -1.1659  2.4769  0.0068
76318SOL    HW246565   4.967   6.392   9.791  0.5398  0.4044 -0.0697
76319SOL     OW46566   2.429   6.879  11.875 -0.2426  0.1228  0.0141
76319SOL    HW146567   2.334   6.882  11.887 -0.3567 -1.6758 -0.1589
76319SOL    HW246568   2.464   6.901  11.962 -0.8566 -0.5062  0.4376
76320SOL     OW46569   8.698   6.297   3.328 -0.3449  0.1415  0.4694
76320SOL    HW146570   8.770   6.295   3.265 -1.0420 -2.0899 -0.3625
76320SOL    HW246571   8.622   6.320   3.276 -0.5470  0.5940  0.9633
76321SOL     OW46572   5.438   6.956   2.782  0.4872  0.1038 -0.8084
76321SOL    HW146573   5.526   6.934   2.814  0.5533  2.4310  0.8712
76321SOL    HW246574   5.379   6.928   2.852  0.1579  0.9343 -0.7431
76322SOL     OW46575  13.127   6.131  13.971 -0.0872  0.5354 -0.3980
76322SOL    HW146576  13.052   6.188  13.959  0.1987  0.8122 -0.8816
76322SOL    HW246577  13.202   6.190  13.976  0.1810  0.2169 -0.6394
76323SOL     OW46578  13.356   9.909  10.989  0.3176  0.1735 -0.2989
76323SOL    HW146579  13.367  10.001  11.013 -0.6746 -0.3490  2.6647
76323SOL    HW246580  13.425   9.864  11.037 -1.4757 -0.9314  1.3954
76324SOL     OW46581   2.092   7.983   5.086 -0.2294 -0.1324  0.1725
76324SOL    HW146582   2.148   7.946   5.018 -0.1179  1.1734 -0.4864
76324SOL    HW246583   2.016   8.018   5.039 -0.4773  0.1836  0.7879
76325SOL     OW46584   2.302   9.728   1.184 -0.5416  0.0123 -0.4603
76325SOL    HW146585   2.305   9.769   1.098 -1.6650 -0.2417 -0.6418
76325SOL    HW246586   2.209   9.732   1.209 -0.2302  0.0972  0.7456
76326SOL     OW46587   9.339  12.222   8.295  0.1068  0.3633 -0.8105
76326SOL    HW146588   9.245  12.240   8.290 -0.3379 -1.2105  0.8690
76326SOL    HW246589   9.345  12.127   8.306  1.8244  0.5465  0.2383
76327SOL     OW46590  11.232   0.173   9.828  0.4662  0.2693 -0.3633
76327SOL    HW146591  11.278   0.111   9.885  0.9022  1.4153  0.5918
76327SOL    HW246592  11.183   0.229   9.888 -1.3074 -0.2104 -1.3114
76328SOL     OW46593  11.107   9.203   1.940 -0.0593  0.3835 -0.5761
76328SOL    HW146594  11.066   9.128   1.985  2.0866 -0.6077 -0.1482
76328SOL    HW246595  11.035   9.244   1.893 -1.5843 -1.1273  0.2984
76329SOL     OW46596  10.922   5.861   5.636 -0.1043  0.3901 -0.0017
76329SOL    HW146597  10.899   5.950   5.609 -0.5881 -0.2113 -1.7375
76329SOL    HW246598  10.863   5.805   5.586  1.0721 -0.9578  0.0377
76330SOL     OW46599  11.732   5.002   9.302  0.1391  0.1656 -0.2724
76330SOL    HW146600  11.819   5.035   9.280  0.3399 -0.6512 -0.7396
76330SOL    HW246601  11.673   5.075   9.283  0.6356  0.4618 -0.7114
76331SOL     OW46602   8.112  12.302   6.556  0.2905  0.0381  0.1403
76331SOL    HW146603   8.050  12.375   6.554 -0.4540 -0.5150  1.7906
76331SOL    HW246604   8.128  12.283   6.464 -1.3431  0.7471 -0.3339
76332SOL     OW46605   1.405   6.368  10.936 -0.0433  0.7386  0.0526
76332SOL    HW146606   1.441   6.452  10.963  1.8155 -0.1056  0.3925
76332SOL    HW246607   1.469   6.334  10.873  0.7594 -1.6011  1.9656
76333SOL     OW46608   7.596   2.408   3.876 -0.2437 -0.0007  0.0986
76333SOL    HW146609   7.671   2.436   3.823  0.8344 -0.2217  1.4497
76333SOL    HW246610   7.520   2.442   3.829  0.7545  1.2284 -0.7124
76334SOL     OW46611   4.686  13.032   0.363 -0.0230 -0.0814  0.0328
76334SOL    HW146612   4.771  13.075   0.366  1.1967 -2.3971  1.5375
76334SOL    HW246613   4.650  13.043   0.451 -0.8775  0.0916 -0.3286
76335SOL     OW46614   2.428   5.815   2.874  0.4930  0.0528 -0.7265
76335SOL    HW146615   2.416   5.721   2.884 -3.4452  0.4652  0.0662
76335SOL    HW246616   2.451   5.846   2.961  1.1150 -0.0796 -0.8398
76336SOL     OW46617  10.211  13.567   6.455  0.5060 -0.5871 -0.1974
76336SOL    HW146618  10.119  13.592   6.439  0.1117 -2.8663 -1.9390
76336SOL    HW246619  10.238  13.623   6.527 -1.8822  1.0174 -0.4210
76337SOL     OW46620   8.808  13.105   9.148 -0.4165  0.0801 -0.3795
76337SOL    HW146621   8.817  13.197   9.124  0.4999  0.5835  1.6956
76337SOL    HW246622   8.826  13.103   9.242  0.3780 -2.3381 -0.5202
76338SOL     OW46623   7.613   1.064  11.413 -0.6082  0.2911  0.0363
76338SOL    HW146624   7.566   0.985  11.386 -3.2392  1.4714  0.8826
76338SOL    HW246625   7.675   1.080  11.342  0.0345 -2.5102 -0.1457
76339SOL     OW46626   3.521   9.433   7.449 -0.0261  0.4972 -0.0354
76339SOL    HW146627   3.434   9.415   7.414  0.0655  0.5546 -0.2995
76339SOL    HW246628   3.581   9.401   7.381  0.1696  0.0229  0.3484
76340SOL     OW46629   1.161  11.008  12.214  0.2606  0.6412 -0.3241
76340SOL    HW146630   1.081  10.968  12.248  0.4803 -0.4129 -1.0011
76340SOL    HW246631   1.132  11.060  12.139  0.2308  0.0610 -0.7221
76341SOL     OW46632   6.797  11.432   1.732  0.5151  0.2710  0.2247
76341SOL    HW146633   6.873  11.458   1.680  0.6783 -0.6700 -0.0393
76341SOL    HW246634   6.834  11.393   1.811  0.2900  0.6523  0.5192
76342SOL     OW46635   9.293  10.084  10.928  0.0699 -0.1250  0.0863
76342SOL    HW146636   9.378  10.070  10.887 -0.9810 -0.8281 -1.9920
76342SOL    HW246637   9.251   9.997  10.927 -1.0576  0.4021  0.1443
76343SOL     OW46638  10.590   4.749   8.870 -0.3072 -0.4143 -0.0077
76343SOL    HW146639  10.681   4.721   8.855 -0.5628 -1.2145 -0.1448
76343SOL    HW246640  10.557   4.769   8.782 -0.8775 -2.1462 -0.2359
76344SOL     OW46641   7.407  10.924  11.298  0.2701  0.0598 -0.3755
76344SOL    HW146642   7.333  10.929  11.359 -1.5951 -0.0373 -2.5059
76344SOL    HW246643   7.405  10.835  11.264  0.4636  0.4570 -1.4941
76345SOL     OW46644   3.163   9.800  11.295  0.6099  0.0409  0.4354
76345SOL    HW146645   3.246   9.823  11.254  1.3800 -1.5624  1.0019
76345SOL    HW246646   3.108   9.768  11.224  0.8294  0.2113  0.1904
76346SOL     OW46647   4.355   4.341  10.831  0.3555 -0.7371 -0.0456
76346SOL    HW146648   4.371   4.433  10.811 -0.0817 -0.2656  1.5567
76346SOL    HW246649   4.296   4.311  10.762 -1.0381  0.7338  0.4296
76347SOL     OW46650   0.098   1.698   0.115  0.1984 -0.1727 -0.1843
76347SOL    HW146651   0.092   1.631   0.047 -1.1917  1.4026 -1.6934
76347SOL    HW246652   0.161   1.761   0.081  0.9856 -0.3496  0.9140
76348SOL     OW46653  10.007   2.616   4.745 -0.0874  0.2004  0.3012
76348SOL    HW146654  10.031   2.531   4.708  2.1815  0.5462  0.7960
76348SOL    HW246655   9.938   2.649   4.688 -1.4998 -2.2143  0.4798
76349SOL     OW46656   0.279  10.980  12.058  0.4674  0.2875 -0.0752
76349SOL    HW146657   0.307  11.070  12.070 -0.0996  0.6181 -1.1300
76349SOL    HW246658   0.336  10.945  11.989 -0.0094  0.1771 -0.4208
76350SOL     OW46659   6.546   9.643   6.052 -0.0082  0.3839 -0.4181
76350SOL    HW146660   6.595   9.703   6.109 -1.1594  2.1120 -1.1643
76350SOL    HW246661   6.461   9.686   6.039 -1.0277 -1.6009 -0.7167
76351SOL     OW46662  10.999   9.991   5.403  0.3153 -0.1253  0.5088
76351SOL    HW146663  10.936   9.981   5.332  0.8273 -0.5118  0.1003
76351SOL    HW246664  10.974   9.924   5.467 -0.7659  0.8805  1.1790
76352SOL     OW46665   9.242   2.438  11.940  0.3717  0.2177 -0.1117
76352SOL    HW146666   9.191   2.366  11.977  2.4607  0.1807  3.0905
76352SOL    HW246667   9.200   2.517  11.974 -0.3530  0.4655 -1.4877
76353SOL     OW46668   0.068   0.793   1.415  0.1251  0.3664  0.5653
76353SOL    HW146669   0.044   0.848   1.490  0.2306  0.8515  0.2489
76353SOL    HW246670   0.018   0.712   1.427  0.2632  0.3777  1.2425
76354SOL     OW46671  13.307   3.882  12.005 -0.1420  0.4678  0.2964
76354SOL    HW146672  13.322   3.974  12.023 -0.3661  1.1750 -2.6464
76354SOL    HW246673  13.373   3.858  11.940  0.0852 -1.5626  1.1719
76355SOL     OW46674  10.079   5.926   4.292  0.1620 -0.9447 -0.3028
76355SOL    HW146675  10.114   5.852   4.342  0.4966 -0.1386  0.6908
76355SOL    HW246676  10.064   5.891   4.204  3.8026 -1.2448 -0.9274
76356SOL     OW46677  14.073   7.721   6.942 -0.2500  0.1386  0.0089
76356SOL    HW146678  14.039   7.670   6.869 -2.0662  2.7479 -1.1034
76356SOL    HW246679  14.002   7.723   7.006 -0.6230  1.9399 -0.3891
76357SOL     OW46680   4.861  11.211   9.927  0.2348  0.1047 -0.1302
76357SOL    HW146681   4.844  11.182  10.016  0.0039 -0.4046 -0.3369
76357SOL    HW246682   4.955  11.198   9.914  0.3367  0.5408  0.1653
76358SOL     OW46683   8.499   6.706   4.272 -0.2515 -0.4501 -0.7005
76358SOL    HW146684   8.439   6.635   4.294 -0.2633 -0.4291 -0.6648
76358SOL    HW246685   8.531   6.738   4.356  0.8311 -1.3314 -0.7430
76359SOL     OW46686   6.477   3.103  10.870 -0.3708  0.3176 -0.7710
76359SOL    HW146687   6.449   3.019  10.904  0.5289  0.5246  0.5544
76359SOL    HW246688   6.458   3.099  10.776 -1.9000 -0.6914 -0.4420
76360SOL     OW46689  13.763   9.422   3.495  0.1156 -0.4498  0.3490
76360SOL    HW146690  13.724   9.391   3.576 -1.3284 -0.4386 -0.3138
76360SOL    HW246691  13.739   9.514   3.491  0.1983 -0.4465 -0.0758
76361SOL     OW46692   9.239   8.179   0.339 -0.1168 -0.5686 -0.4561
76361SOL    HW146693   9.222   8.166   0.432  0.3974  0.7620 -0.1613
76361SOL    HW246694   9.152   8.177   0.299 -0.4974  0.4597  0.2763
76362SOL     OW46695  11.416   4.935   0.379  0.2339 -0.5776 -0.4166
76362SOL    HW146696  11.373   5.021   0.375 -0.6150 -0.7604  2.4470
76362SOL    HW246697  11.349   4.877   0.416  1.5558 -1.8998 -0.0322
76363SOL     OW46698  12.590  13.671  11.506 -0.8185 -0.0304  0.1753
76363SOL    HW146699  12.619  13.754  11.544  0.8357 -0.1501 -0.7380
76363SOL    HW246700  12.658  13.608  11.529 -2.1871 -1.2494  1.0990
76364SOL     OW46701  12.434   3.909   5.749  0.1867  0.5902  0.3367
76364SOL    HW146702  12.483   3.916   5.831 -0.2331  1.8918  0.5001
76364SOL    HW246703  12.438   3.816   5.727  1.0573  0.3592  1.3667
76365SOL     OW46704   7.200   3.952   5.689 -0.3999 -0.0662 -0.1052
76365SOL    HW146705   7.272   4.015   5.685 -0.0418 -0.4626  0.0605
76365SOL    HW246706   7.151   3.967   5.608  0.9833 -1.1260 -1.1817
76366SOL     OW46707   4.886   8.355   9.899  0.2157 -0.3436  0.4775
76366SOL    HW146708   4.853   8.367   9.810  0.9337  2.9909  0.5460
76366SOL    HW246709   4.931   8.271   9.897 -1.4962 -1.3089 -1.7109
76367SOL     OW46710  11.603   5.324  13.336  0.2809  0.1142  0.1407
76367SOL    HW146711  11.698   5.318  13.344  0.1246 -2.2973  0.8566
76367SOL    HW246712  11.587   5.319  13.242  0.8096 -0.4508  0.0780
76368SOL     OW46713   1.795   1.283  13.294 -0.5673 -0.2208  0.0398
76368SOL    HW146714   1.749   1.361  13.325 -3.1712 -1.7104  0.2138
76368SOL    HW246715   1.757   1.211  13.346 -0.0902 -1.9044 -1.8321
76369SOL     OW46716  13.398   7.636   4.487 -0.3449  0.0674 -0.1387
76369SOL    HW146717  13.361   7.611   4.403  3.0191  0.0884 -1.7812
76369SOL    HW246718  13.413   7.554   4.533 -1.5648  0.0224  0.2294
76370SOL     OW46719   7.186  13.416   4.317  0.4069  0.2374 -0.1728
76370SOL    HW146720   7.152  13.343   4.370  2.9238  0.4425  1.8659
76370SOL    HW246721   7.220  13.373   4.238  0.0521 -0.5407  0.0794
76371SOL     OW46722   4.089  10.300  13.103 -0.1120 -0.0717  0.5300
76371SOL    HW146723   4.017  10.354  13.070  0.6268 -0.4189 -1.8127
76371SOL    HW246724   4.166  10.358  13.100  0.1198 -0.3474  0.9869
76372SOL     OW46725   4.653   5.195   5.046  0.3271 -0.6045  0.1442
76372SOL    HW146726   4.566   5.159   5.029  0.1051  0.2320 -0.5292
76372SOL    HW246727   4.713   5.131   5.008  0.1615 -2.3008  2.4573
76373SOL     OW46728   3.648  11.063  11.411  0.0708 -0.1155 -0.2973
76373SOL    HW146729   3.686  11.013  11.483  0.3694 -0.8395 -0.9492
76373SOL    HW246730   3.628  10.998  11.344 -1.0067  0.4331 -0.5362
76374SOL     OW46731   4.589   0.069   5.503  0.4713  0.3749 -0.2120
76374SOL    HW146732   4.515   0.128   5.490  0.1801 -0.4361 -2.7197
76374SOL    HW246733   4.653   0.094   5.437  1.5111 -0.3705  0.4746
76375SOL     OW46734   1.509   9.769  10.271  0.1510  0.0170  0.2624
76375SOL    HW146735   1.453   9.704  10.313 -0.1803 -0.2325 -0.5615
76375SOL    HW246736   1.574   9.717  10.224 -0.7010  0.2519 -1.2106
76376SOL     OW46737   0.907   9.764   7.759 -0.2787 -0.1798 -0.3355
76376SOL    HW146738   0.979   9.825   7.772  0.2848 -1.1195  1.1528
76376SOL    HW246739   0.835   9.798   7.813 -0.0605 -0.6560  0.2651
76377SOL     OW46740   3.179   6.986   6.619 -0.3871  0.3543  0.3471
76377SOL    HW146741   3.207   7.014   6.532 -1.0233  1.3740  0.4593
76377SOL    HW246742   3.221   7.048   6.679 -2.6093  1.7619  0.5320
76378SOL     OW46743   1.054   5.349   0.889 -0.9705  0.2937 -0.3380
76378SOL    HW146744   1.127   5.324   0.832 -2.4588 -1.8584 -1.4507
76378SOL    HW246745   1.080   5.318   0.976 -1.0026 -1.6141 -0.9523
76379SOL     OW46746   8.692   2.899  12.127  0.2168  0.2945  0.2423
76379SOL    HW146747   8.782   2.880  12.152  0.3990  0.1220 -0.5327
76379SOL    HW246748   8.639   2.855  12.193  0.6938 -0.0905  0.3746
76380SOL     OW46749  10.403  13.122  12.981  0.3074  0.2143  0.0041
76380SOL    HW146750  10.354  13.203  12.968  1.2841  0.7556 -0.3864
76380SOL    HW246751  10.453  13.111  12.900  0.2235 -0.7660  0.0698
76381SOL     OW46752   3.514   3.269   5.419  0.5249  0.1629  0.2574
76381SOL    HW146753   3.481   3.182   5.396  2.8423 -1.1019  1.3260
76381SOL    HW246754   3.483   3.284   5.509 -2.8742  2.1406 -1.0590
76382SOL     OW46755   9.000   1.736   5.902  0.3456 -0.2808  0.7587
76382SOL    HW146756   9.007   1.652   5.946  0.5860 -1.4989 -1.4788
76382SOL    HW246757   9.087   1.751   5.864 -0.2660 -0.0401 -0.5898
76383SOL     OW46758   9.583   1.566   4.715 -0.0117 -0.4861  0.5532
76383SOL    HW146759   9.661   1.514   4.734  0.3668  0.1369  0.7287
76383SOL    HW246760   9.582   1.634   4.782 -0.7397 -0.5131  0.5842
76384SOL     OW46761  10.694   9.956   2.795  0.2378 -0.4074  0.5100
76384SOL    HW146762  10.790   9.950   2.790  0.1944 -0.3654 -1.7258
76384SOL    HW246763  10.673  10.036   2.748 -0.8507  0.6085  2.6093
76385SOL     OW46764   3.161  11.536   1.933 -0.1366 -1.1750 -0.5056
76385SOL    HW146765   3.171  11.441   1.924  1.5899 -1.2759  1.5169
76385SOL    HW246766   3.217  11.572   1.864  0.7797 -1.6773 -0.0546
76386SOL     OW46767  13.316   7.868   6.909 -0.1856  0.3603  0.0709
76386SOL    HW146768  13.385   7.854   6.974  0.5439  1.7461 -0.3769
76386SOL    HW246769  13.361   7.863   6.825 -0.2818  2.8230 -0.1915
76387SOL     OW46770  12.627   3.123   1.270 -0.2401 -0.8876  0.1361
76387SOL    HW146771  12.677   3.203   1.254 -1.7904  0.3433  1.1937
76387SOL    HW246772  12.690   3.063   1.311  1.0510 -0.4179 -1.0742
76388SOL     OW46773   5.160   6.167   3.152 -0.0131  0.5300 -0.1465
76388SOL    HW146774   5.124   6.202   3.233  0.3205  0.6189 -0.0376
76388SOL    HW246775   5.127   6.226   3.084 -0.1087  0.5860 -0.0511
76389SOL     OW46776   1.711   5.820  12.462 -0.7603 -0.1678  0.3274
76389SOL    HW146777   1.667   5.885  12.516 -0.7756 -1.2798  1.7005
76389SOL    HW246778   1.705   5.739  12.512 -0.0819 -1.0764 -0.9954
76390SOL     OW46779   2.114   7.478   6.355 -0.5639 -0.1379 -0.1311
76390SOL    HW146780   2.046   7.432   6.405 -1.1245  0.9331  0.1346
76390SOL    HW246781   2.136   7.554   6.410 -1.0560  0.9621 -1.4098
76391SOL     OW46782   3.506   4.373   6.871  0.2824  0.2979 -0.5615
76391SOL    HW146783   3.516   4.434   6.943  0.0879  0.3662 -0.5936
76391SOL    HW246784   3.483   4.290   6.913 -3.6948  1.1371 -0.6954
76392SOL     OW46785   5.836  12.344   5.599  0.3377 -0.0056 -0.1365
76392SOL    HW146786   5.885  12.262   5.598  0.9626  0.3566 -1.4102
76392SOL    HW246787   5.834  12.369   5.691  1.3118 -0.7635  0.1076
76393SOL     OW46788   0.596  13.899   1.089 -0.9145  0.5959 -0.3433
76393SOL    HW146789   0.608  13.895   0.994  1.0043 -0.6274 -0.0978
76393SOL    HW246790   0.639  13.981   1.114 -0.4752  0.3995 -0.4327
76394SOL     OW46791   3.474   0.785   8.677 -0.0319 -0.3281 -0.1929
76394SOL    HW146792   3.539   0.731   8.722 -0.6702 -0.8892  0.0850
76394SOL    HW246793   3.453   0.735   8.598 -1.0600 -0.8065  0.3585
76395SOL     OW46794   3.118   5.969   3.369 -0.1459  0.1761  0.1487
76395SOL    HW146795   3.135   5.938   3.280  3.3330  0.5546  0.5156
76395SOL    HW246796   3.079   5.894   3.413  0.2149 -0.8125 -1.1318
76396SOL     OW46797   1.094   0.041  12.606  0.0724 -0.3494 -0.0530
76396SOL    HW146798   1.114   0.113  12.546  0.0959  0.5302  0.9810
76396SOL    HW246799   1.177  -0.005  12.616  0.2460 -0.0561 -0.1130
76397SOL     OW46800   0.216  11.721   5.197 -0.7886 -0.3403 -0.8484
76397SOL    HW146801   0.287  11.696   5.136  0.5150 -0.3645  0.6123
76397SOL    HW246802   0.193  11.639   5.241 -0.1133  0.0543  0.2838
76398SOL     OW46803   4.451   2.361  10.044 -0.0334  1.0198 -0.4568
76398SOL    HW146804   4.408   2.290   9.995  0.1367  0.6130 -0.0291
76398SOL    HW246805   4.493   2.414   9.977 -1.3919  1.5692 -0.9108
76399SOL     OW46806   7.239   6.776   7.007  0.4647 -0.4412  0.2228
76399SOL    HW146807   7.207   6.791   7.096  0.1431 -0.0980  0.0537
76399SOL    HW246808   7.189   6.838   6.953 -0.0241 -1.2900 -0.3252
76400SOL     OW46809   6.765   5.818   4.793 -0.0957 -0.2127  0.2408
76400SOL    HW146810   6.684   5.865   4.814 -0.6244 -0.8787 -0.2517
76400SOL    HW246811   6.754   5.732   4.833 -0.0558 -0.6406 -0.6337
76401SOL     OW46812   0.886   9.870  10.615 -0.4618 -0.7787  0.0711
76401SOL    HW146813   0.954   9.811  10.648  3.0495  1.4470 -2.4703
76401SOL    HW246814   0.887   9.858  10.520  0.1510  2.9117 -0.5395
76402SOL     OW46815   3.218   1.735   2.064 -0.1056  0.2510  0.3863
76402SOL    HW146816   3.296   1.715   2.014 -0.3463  3.0950 -1.3330
76402SOL    HW246817   3.249   1.785   2.139  0.0638 -2.4592  2.2628
76403SOL     OW46818  10.251   0.230   4.126  0.0148  0.5047  0.2423
76403SOL    HW146819  10.312   0.181   4.183  1.2386 -0.4536 -1.7780
76403SOL    HW246820  10.177   0.171   4.116 -0.1722  0.6442  0.7462
76404SOL     OW46821   0.189   9.412   1.681  0.3936 -0.2812  0.5373
76404SOL    HW146822   0.238   9.373   1.753  0.2008 -0.5709  0.5166
76404SOL    HW246823   0.254   9.457   1.628  0.5918 -0.4047  0.6760
76405SOL     OW46824  13.669   9.274  13.580  0.2787 -0.3519 -0.3410
76405SOL    HW146825  13.764   9.272  13.570  0.4230 -0.0098  0.8323
76405SOL    HW246826  13.653   9.222  13.659 -0.2271  2.1960  1.3198
76406SOL     OW46827   4.708   1.196   8.772 -0.2811  1.3047 -0.1160
76406SOL    HW146828   4.691   1.268   8.711  1.3638  1.1203 -0.8544
76406SOL    HW246829   4.740   1.125   8.717 -0.3954  0.5393  0.7851
76407SOL     OW46830  11.711   6.382  12.007  0.4536 -0.5084 -0.0019
76407SOL    HW146831  11.750   6.395  11.920 -0.6758  1.1616 -0.3064
76407SOL    HW246832  11.705   6.471  12.043 -0.4533 -1.0321  1.1839
76408SOL     OW46833   1.433   8.406  11.056 -0.0787  0.5311  0.2227
76408SOL    HW146834   1.390   8.490  11.072  0.0345  0.4518  1.0332
76408SOL    HW246835   1.515   8.428  11.012 -1.2218  0.6306 -1.9735
76409SOL     OW46836  13.122   4.367   0.018  0.0086 -0.7695 -0.1833
76409SOL    HW146837  13.067   4.386  -0.058  0.8508  1.5816 -0.2944
76409SOL    HW246838  13.211   4.366  -0.016  0.5160  1.6092  0.8777
76410SOL     OW46839  13.699   8.359   6.539 -0.3858 -0.4891  0.5334
76410SOL    HW146840  13.707   8.374   6.633 -0.1725  0.7544  0.3338
76410SOL    HW246841  13.739   8.273   6.525 -0.8050 -0.8804  1.6258
76411SOL     OW46842   7.935   4.199   4.486 -0.4352  0.0419 -0.9046
76411SOL    HW146843   7.887   4.221   4.566  0.4350 -2.9220  0.5729
76411SOL    HW246844   7.870   4.205   4.416 -1.5680  1.3506  0.2053
76412SOL     OW46845   7.274  12.142   2.853  0.5221 -0.4908  0.1016
76412SOL    HW146846   7.195  12.195   2.865  1.1119  0.5754 -0.6092
76412SOL    HW246847   7.241  12.054   2.838 -0.4888 -0.2985  1.0582
76413SOL     OW46848  13.769   4.329   3.326  0.0676 -0.8199 -0.2778
76413SOL    HW146849  13.718   4.294   3.399 -0.1090 -0.7023 -0.3453
76413SOL    HW246850  13.708   4.385   3.278 -0.1377 -1.7768 -1.1709
76414SOL     OW46851  13.646   4.273   1.162  0.4257  0.0269 -0.1663
76414SOL    HW146852  13.741   4.266   1.147  0.3794 -1.3038  0.0333
76414SOL    HW246853  13.615   4.328   1.091  1.1768 -0.5910 -1.0036
76415SOL     OW46854   6.187   9.193   2.862  0.0679  0.4079  0.3986
76415SOL    HW146855   6.127   9.250   2.814  0.8815  0.9175 -0.0315
76415SOL    HW246856   6.133   9.151   2.928 -1.0263 -0.0692 -0.7604
76416SOL     OW46857   4.922   5.390  11.413 -0.6982  0.1536 -0.1951
76416SOL    HW146858   4.976   5.401  11.491  2.3530  0.1082 -2.1371
76416SOL    HW246859   4.915   5.295  11.401  0.6037  0.1442 -1.0457
76417SOL     OW46860   3.245   6.928   1.899 -0.6934 -0.3653  0.0823
76417SOL    HW146861   3.332   6.952   1.868 -0.6799 -1.6383 -0.9523
76417SOL    HW246862   3.260   6.892   1.986 -0.2748  0.0337  0.1791
76418SOL     OW46863  11.887   5.443   4.955 -0.2932  0.0779 -0.0266
76418SOL    HW146864  11.812   5.480   4.908  0.6359  0.2718 -1.3966
76418SOL    HW246865  11.920   5.516   5.008 -0.6239  0.1909  0.0275
76419SOL     OW46866   7.970   9.640   4.106  0.1318  0.4070  0.2059
76419SOL    HW146867   8.035   9.570   4.096  0.2998  0.8527 -2.3028
76419SOL    HW246868   7.995   9.682   4.189  1.7048 -0.7729  0.3968
76420SOL     OW46869   6.471  13.016   4.060 -0.2789  0.4264 -0.1387
76420SOL    HW146870   6.483  12.926   4.030 -0.0220  0.1544  0.7347
76420SOL    HW246871   6.417  13.057   3.993  0.0318 -0.2324 -0.8052
76421SOL     OW46872   4.246  10.584   7.372 -0.1584 -0.0434 -0.0825
76421SOL    HW146873   4.222  10.512   7.314  0.5276  0.1550 -0.6298
76421SOL    HW246874   4.226  10.553   7.460 -1.0921 -0.3994 -0.4114
76422SOL     OW46875   8.121   0.401   8.592  0.1072 -0.3427 -0.5155
76422SOL    HW146876   8.201   0.443   8.559 -0.8362  2.5541  0.5806
76422SOL    HW246877   8.150   0.351   8.668  1.0987 -0.7852 -1.1519
76423SOL     OW46878   3.310   9.563  11.776 -0.6846 -0.5716 -0.9224
76423SOL    HW146879   3.401   9.586  11.794 -0.9632 -0.0134 -0.1150
76423SOL    HW246880   3.297   9.586  11.684 -0.4584  0.9519 -0.6054
76424SOL     OW46881   0.950   6.045   9.525 -0.3619  0.0530 -0.2657
76424SOL    HW146882   0.952   6.084   9.613 -1.1464  0.4785 -0.4342
76424SOL    HW246883   0.950   6.119   9.465  1.3432 -0.2321 -0.6806
76425SOL     OW46884  11.019   1.573   9.721  0.5758 -0.6665 -0.1703
76425SOL    HW146885  11.003   1.490   9.677  1.0824 -1.8124  1.6759
76425SOL    HW246886  11.110   1.595   9.699  1.4373 -2.1707  1.6555
76426SOL     OW46887   1.715   7.377   3.609  0.0301  0.7427  0.2291
76426SOL    HW146888   1.803   7.391   3.644 -0.3322  1.8264  0.7731
76426SOL    HW246889   1.715   7.423   3.525 -0.1423  1.1018  0.4255
76427SOL     OW46890  11.665   6.474  11.459  0.1886  0.5159 -0.1071
76427SOL    HW146891  11.632   6.433  11.378 -1.5773  0.6435  0.5115
76427SOL    HW246892  11.716   6.549  11.428 -0.0056  0.2508 -1.1192
76428SOL     OW46893   9.387   2.794  11.908  0.4875  0.1413 -0.0084
76428SOL    HW146894   9.338   2.875  11.895 -0.5262 -0.2654  1.0370
76428SOL    HW246895   9.333   2.744  11.970  1.4430 -1.0228 -0.0897
76429SOL     OW46896   9.272   9.369   3.025  0.0452  0.4779  0.0382
76429SOL    HW146897   9.242   9.459   3.014 -1.4083  0.0985  0.6172
76429SOL    HW246898   9.192   9.318   3.032  0.8126 -1.0907 -1.8202
76430SOL     OW46899   8.989   2.934   2.937 -0.3336  0.1633  0.1039
76430SOL    HW146900   9.006   2.860   2.996 -0.8875 -0.7604 -0.8550
76430SOL    HW246901   9.050   3.002   2.965 -2.0975  0.6802  3.2860
76431SOL     OW46902  10.402   7.511  13.412  0.3528  0.6022 -0.6716
76431SOL    HW146903  10.309   7.496  13.397  0.8192 -0.4584 -2.9506
76431SOL    HW246904  10.437   7.425  13.435  0.4823  1.3794  2.4712
76432SOL     OW46905  11.131   5.168   5.742 -0.0705  0.9811 -0.2812
76432SOL    HW146906  11.074   5.098   5.711  0.5838 -1.3495  3.1536
76432SOL    HW246907  11.220   5.138   5.721  0.2267  0.5915  1.3793
76433SOL     OW46908   3.321  12.490   9.267 -0.1024  0.3580  0.3224
76433SOL    HW146909   3.269  12.549   9.212 -0.7604 -0.3852  0.1267
76433SOL    HW246910   3.411  12.507   9.241 -0.3811  0.2329 -0.7872
76434SOL     OW46911  10.957  13.431   9.069  0.1218 -0.1204  0.6693
76434SOL    HW146912  11.047  13.435   9.037 -0.4576  0.4258 -0.9733
76434SOL    HW246913  10.931  13.522   9.080  0.4321 -0.2751  3.2226
76435SOL     OW46914   4.336   3.423   8.810  0.0236  0.1453 -0.1825
76435SOL    HW146915   4.316   3.438   8.718 -2.0680  1.6349  0.4325
76435SOL    HW246916   4.394   3.495   8.834  2.2291 -1.3316 -0.7182
76436SOL     OW46917  10.831  11.891   2.325 -0.2807  0.3958 -0.0728
76436SOL    HW146918  10.757  11.845   2.285 -0.5067  0.6339  0.0659
76436SOL    HW246919  10.835  11.975   2.280 -0.6594  0.7461  0.5167
76437SOL     OW46920  10.473   6.317   4.665 -0.4255  0.2198  0.1099
76437SOL    HW146921  10.517   6.259   4.727 -1.0947  0.6315  0.9907
76437SOL    HW246922  10.544   6.367   4.625  0.1121 -0.8220 -0.2723
76438SOL     OW46923  13.321   4.717  12.618 -0.4867 -0.4914 -0.3554
76438SOL    HW146924  13.413   4.734  12.636  0.0025 -0.4075 -2.7156
76438SOL    HW246925  13.285   4.691  12.703  1.3610  0.8571  0.9173
76439SOL     OW46926   6.659   3.720   1.551 -0.1848 -0.2220 -0.4630
76439SOL    HW146927   6.709   3.745   1.628  1.3868 -0.3257 -1.4012
76439SOL    HW246928   6.714   3.655   1.507 -1.1778 -0.3783 -1.5215
76440SOL     OW46929   4.065  12.059   0.180 -0.3464  0.0900  0.0706
76440SOL    HW146930   4.123  12.070   0.105 -1.3851 -0.9481 -0.9262
76440SOL    HW246931   4.038  12.148   0.202  2.2022  0.6859  1.0958
76441SOL     OW46932   0.725   1.108  12.323  0.1921  0.4475 -0.2794
76441SOL    HW146933   0.694   1.022  12.352 -0.1323  0.8210  0.5192
76441SOL    HW246934   0.700   1.167  12.394 -2.1510  1.7135 -2.0054
76442SOL     OW46935   6.527   4.036  13.350  0.0050 -1.0602 -0.0359
76442SOL    HW146936   6.585   4.001  13.282 -0.0013 -1.0054 -0.0687
76442SOL    HW246937   6.517   4.129  13.328  1.0308 -0.7376  0.7430
76443SOL     OW46938   1.037   6.729   3.284  0.1942 -0.1756 -0.0154
76443SOL    HW146939   1.109   6.667   3.268  0.4756 -0.0425  0.6883
76443SOL    HW246940   1.072   6.789   3.350  0.4661  1.6597 -1.7452
76444SOL     OW46941   2.663   5.961  10.173 -0.4484 -0.7905 -0.0428
76444SOL    HW146942   2.750   5.931  10.147 -0.2674  0.6807 -1.2324
76444SOL    HW246943   2.677   6.001  10.259 -0.1934 -1.6207  0.3140
76445SOL     OW46944   6.679   1.563   6.629  0.4769  0.3029 -0.4985
76445SOL    HW146945   6.675   1.467   6.639  0.7398  0.3727  0.3914
76445SOL    HW246946   6.612   1.595   6.690 -0.3591  0.6563 -1.5797
76446SOL     OW46947   2.003   6.376  11.086 -0.5189  0.2868 -0.1535
76446SOL    HW146948   2.096   6.393  11.098 -0.2832 -0.8749 -0.1726
76446SOL    HW246949   1.959   6.434  11.148  0.3698 -1.1760  1.9604
76447SOL     OW46950   4.756  10.860   1.674 -0.0393  0.3997  0.4842
76447SOL    HW146951   4.727  10.945   1.706 -0.7782 -0.5772  2.5903
76447SOL    HW246952   4.848  10.872   1.651 -0.4666  2.0545 -0.4508
76448SOL     OW46953   5.082   3.593   4.611 -0.5002 -0.0747 -0.1491
76448SOL    HW146954   4.998   3.622   4.575 -0.5172  1.5332  1.0351
76448SOL    HW246955   5.139   3.669   4.601  0.9743 -1.2953 -1.3206
76449SOL     OW46956  10.832   9.608   4.263 -0.4973  0.6026 -0.1371
76449SOL    HW146957  10.895   9.538   4.279 -1.0190  0.1492 -0.0352
76449SOL    HW246958  10.747   9.570   4.286 -0.6669  1.6255  1.0597
76450SOL     OW46959   0.992   7.114   6.875  0.0797 -0.3306  0.1971
76450SOL    HW146960   1.075   7.101   6.920  0.3372  1.0181  0.1494
76450SOL    HW246961   0.963   7.202   6.902 -0.4461 -0.0496 -1.1713
76451SOL     OW46962   9.760  13.306   6.544 -0.4612 -0.2456  0.4648
76451SOL    HW146963   9.719  13.285   6.628  2.0706  1.0514  2.1713
76451SOL    HW246964   9.849  13.272   6.552 -0.0255  0.2948 -1.5322
76452SOL     OW46965   0.141  10.305   5.128 -0.1377  0.3294 -0.0383
76452SOL    HW146966   0.125  10.398   5.110 -1.5084  0.1033 -0.1218
76452SOL    HW246967   0.077  10.259   5.073 -0.1472 -0.6236  0.7467
76453SOL     OW46968   9.144   6.598   6.400 -0.2287 -0.0460  0.0449
76453SOL    HW146969   9.160   6.650   6.479 -1.5350  0.4010  0.0281
76453SOL    HW246970   9.061   6.553   6.416 -0.5643  0.1238 -1.1094
76454SOL     OW46971   8.309   8.462   3.632  0.1547 -0.0461  0.3157
76454SOL    HW146972   8.284   8.543   3.586  1.2066  0.4911  0.6633
76454SOL    HW246973   8.257   8.394   3.590 -0.3496  0.7315 -0.3534
76455SOL     OW46974  10.724  13.785   4.923 -0.2622  0.0233 -0.2950
76455SOL    HW146975  10.793  13.718   4.931 -1.1106 -0.8644 -0.2607
76455SOL    HW246976  10.676  13.779   5.005 -0.7042  0.2842 -0.5348
76456SOL     OW46977   7.721   1.192  11.642 -0.6404 -0.3802 -0.2248
76456SOL    HW146978   7.712   1.177  11.548  3.5254  0.3575 -0.9742
76456SOL    HW246979   7.756   1.109  11.676  1.7804  0.5335 -0.2513
76457SOL     OW46980   4.661   0.307   3.498 -0.1862 -0.4566  0.1669
76457SOL    HW146981   4.704   0.365   3.561 -0.8723 -0.3051  0.5021
76457SOL    HW246982   4.642   0.227   3.547 -1.0566 -0.1993  0.2673
76458SOL     OW46983   7.936  12.224   8.724  0.6620 -0.0146  0.1614
76458SOL    HW146984   7.900  12.168   8.792 -0.2227  0.3593  0.0113
76458SOL    HW246985   7.876  12.298   8.719  2.7594  1.9193  1.6119
76459SOL     OW46986   6.107   6.784   5.244  0.3103 -0.4926 -0.5051
76459SOL    HW146987   6.028   6.837   5.229  0.8189  0.1170 -1.0972
76459SOL    HW246988   6.149   6.825   5.319  1.0967  0.4274 -1.4300
76460SOL     OW46989  12.655   9.781  10.081 -0.2451  0.3011  0.1374
76460SOL    HW146990  12.566   9.746  10.071  0.5259 -2.0979  0.9420
76460SOL    HW246991  12.702   9.751  10.003  0.2243  0.3356  0.4011
76461SOL     OW46992  12.930   5.802   9.757  0.4306  0.2364  0.8994
76461SOL    HW146993  12.878   5.863   9.810 -0.5016 -0.5076  0.8884
76461SOL    HW246994  12.941   5.845   9.673  0.4644  0.7184  1.1499
76462SOL     OW46995   2.870   0.234   8.096 -0.3061  0.0491  0.2699
76462SOL    HW146996   2.815   0.290   8.041  1.1611  1.8048  0.4993
76462SOL    HW246997   2.944   0.210   8.040  1.2869  1.9749  1.4142
76463SOL     OW46998   6.816   0.078  13.247  0.6208  0.6666  0.0712
76463SOL    HW146999   6.849   0.163  13.277  0.2733  0.9384 -0.3102
76463SOL    HW247000   6.723   0.092  13.232  0.3870 -0.0129  0.8187
76464SOL     OW47001  13.520   8.131   4.704  0.6131 -0.3435 -0.3237
76464SOL    HW147002  13.484   8.220   4.703  1.6433  0.1083  0.9622
76464SOL    HW247003  13.444   8.075   4.686  0.0452  0.7986 -1.6737
76465SOL     OW47004   3.997  12.298   5.065  0.6792  0.3255  0.2395
76465SOL    HW147005   4.081  12.335   5.093  0.4744  0.3352  0.8668
76465SOL    HW247006   3.946  12.293   5.146 -0.7563  2.4577 -0.4531
76466SOL     OW47007   5.684   2.164   1.542 -0.0918 -0.0711 -0.2504
76466SOL    HW147008   5.662   2.071   1.547 -3.0887  0.6183  2.9362
76466SOL    HW247009   5.615   2.203   1.488 -1.3964  0.8051  1.9363
76467SOL     OW47010   6.251   2.934  11.044 -0.4199  0.4086 -0.3337
76467SOL    HW147011   6.222   2.864  10.986 -2.1032  0.5341  0.3197
76467SOL    HW247012   6.203   3.011  11.014  2.2470  1.6766 -1.8150
76468SOL     OW47013   8.407   0.947  10.178  0.1348 -0.5316  0.2522
76468SOL    HW147014   8.409   0.935  10.083 -0.9249  4.1298 -0.6010
76468SOL    HW247015   8.339   0.886  10.208  0.5168 -2.1457 -1.9178
76469SOL     OW47016   3.211   6.348   2.407  0.6401  0.3798  0.3413
76469SOL    HW147017   3.286   6.345   2.348  0.9847  0.2883  0.7726
76469SOL    HW247018   3.250   6.356   2.495  0.2005 -1.3820  0.7334
76470SOL     OW47019   8.550  13.635  10.477  0.5984  0.0594 -0.2382
76470SOL    HW147020   8.464  13.595  10.487  1.0468 -0.7352  0.6710
76470SOL    HW247021   8.597  13.575  10.418  0.6356  0.3043 -0.4568
76471SOL     OW47022   0.525   1.346   9.428 -0.4627 -0.4794 -0.1617
76471SOL    HW147023   0.597   1.363   9.488 -2.2009  0.4801  1.7968
76471SOL    HW247024   0.478   1.272   9.466 -1.2764 -0.2220 -0.6187
76472SOL     OW47025   2.994  13.745   0.695  0.4307  0.1887  0.1297
76472SOL    HW147026   2.977  13.673   0.756  1.1629  0.3686  0.5537
76472SOL    HW247027   2.955  13.821   0.737  0.5682  0.2343  0.1735
76473SOL     OW47028   6.597  13.341   0.733  0.0056  0.4561  0.4562
76473SOL    HW147029   6.550  13.305   0.809  0.8369  0.2602  0.8943
76473SOL    HW247030   6.671  13.388   0.771 -0.5661  1.8841 -0.1664
76474SOL     OW47031   3.270   5.631   4.121  0.1160  0.1906 -0.4194
76474SOL    HW147032   3.365   5.629   4.128  0.1171  1.4372  0.0779
76474SOL    HW247033   3.252   5.693   4.050 -0.3292  0.1004 -0.3858
76475SOL     OW47034   4.476   2.014   0.029 -0.1850 -0.6497 -0.2515
76475SOL    HW147035   4.543   2.051   0.087 -1.2490  2.0002 -0.5788
76475SOL    HW247036   4.412   1.976   0.089  0.3642 -0.9594  0.1566
76476SOL     OW47037   8.041  12.943   9.162 -0.0620  0.2757 -0.2429
76476SOL    HW147038   8.070  12.918   9.249  0.8015 -0.7335 -0.7994
76476SOL    HW247039   7.977  12.876   9.138 -0.9691  1.0463 -0.0534
76477SOL     OW47040   8.633   7.087  13.808  0.8026 -0.5383 -0.0949
76477SOL    HW147041   8.550   7.102  13.762 -0.1610 -0.9921  1.4128
76477SOL    HW247042   8.632   7.150  13.879  0.6704 -2.0109  1.2704
76478SOL     OW47043  12.372   3.246  13.018 -0.2354  0.5188 -0.3283
76478SOL    HW147044  12.456   3.225  12.977 -1.1132  1.1075 -2.5842
76478SOL    HW247045  12.350   3.169  13.070  0.3670 -0.8504 -2.0045
76479SOL     OW47046  13.592  12.643   4.178 -0.0013  0.7624  0.2345
76479SOL    HW147047  13.628  12.632   4.090 -0.8282 -0.3634  0.0170
76479SOL    HW247048  13.647  12.588   4.234 -0.3902  0.3056  0.1697
76480SOL     OW47049   0.634   4.220   7.038  0.1175  0.2129  0.0868
76480SOL    HW147050   0.583   4.145   7.070 -1.7953  1.7877  0.9557
76480SOL    HW247051   0.608   4.292   7.095  2.6946  1.3631 -0.0461
76481SOL     OW47052   2.044  11.315  13.421  0.0762  0.3134  0.2166
76481SOL    HW147053   2.099  11.340  13.348  0.3044  1.8952  0.8959
76481SOL    HW247054   1.959  11.295  13.381  0.0026  1.7957 -0.4456
76482SOL     OW47055   2.717   6.865   1.858  0.3493 -0.4764  0.1780
76482SOL    HW147056   2.776   6.939   1.876 -0.5771  0.1692  0.6391
76482SOL    HW247057   2.776   6.792   1.838  1.3045  0.1042  0.7852
76483SOL     OW47058   4.517   7.679   9.431 -0.7872  0.6761 -0.6506
76483SOL    HW147059   4.603   7.673   9.391 -1.0338 -0.2641 -1.0605
76483SOL    HW247060   4.524   7.626   9.511 -0.7783  1.1988 -0.2969
76484SOL     OW47061   1.303   3.920   7.206 -0.2534  0.5796 -0.5850
76484SOL    HW147062   1.285   3.863   7.131  0.2388 -1.1472  0.5481
76484SOL    HW247063   1.399   3.920   7.212 -0.2939 -1.4715  1.5418
76485SOL     OW47064   6.723   4.413   3.184  0.1668 -0.1354 -0.1655
76485SOL    HW147065   6.739   4.490   3.129 -0.4132 -1.4204 -2.2541
76485SOL    HW247066   6.708   4.449   3.271  0.3411  2.0783 -0.9794
76486SOL     OW47067   6.379  10.511  13.104  0.1209 -0.2765 -0.2579
76486SOL    HW147068   6.337  10.537  13.022 -0.4810  0.6856  0.3438
76486SOL    HW247069   6.470  10.540  13.094  0.2629 -0.9103 -0.9098
76487SOL     OW47070   6.689  12.164   7.991 -0.5199  0.1919 -0.1614
76487SOL    HW147071   6.781  12.148   8.010 -1.0792 -0.9202  2.0803
76487SOL    HW247072   6.670  12.249   8.030 -0.8431 -0.4960  1.2897
76488SOL     OW47073   2.121   4.087   4.989 -0.3124  0.1435 -0.0476
76488SOL    HW147074   2.188   4.123   5.047  0.7977 -0.9484 -0.6141
76488SOL    HW247075   2.088   4.010   5.035  0.3110 -0.5129 -0.6599
76489SOL     OW47076  13.442  11.540   1.914  0.0314  0.7880  0.0834
76489SOL    HW147077  13.373  11.604   1.893  1.0525  2.2280  0.9066
76489SOL    HW247078  13.403  11.484   1.981 -1.1997 -0.0670 -1.3036
76490SOL     OW47079  13.213   6.713  10.892 -0.5970  0.0887  0.3242
76490SOL    HW147080  13.127   6.753  10.881 -0.5206 -0.0590 -0.8472
76490SOL    HW247081  13.240   6.688  10.804 -0.4840 -2.2245  0.9396
76491SOL     OW47082   1.321   7.645   7.537 -0.2774  0.1903  0.3052
76491SOL    HW147083   1.230   7.616   7.532 -0.5700  1.1710 -0.4339
76491SOL    HW247084   1.354   7.638   7.447  0.0915  0.6835  0.3945
76492SOL     OW47085   6.790   4.937  13.462  0.1777 -0.0301  0.1855
76492SOL    HW147086   6.797   5.019  13.414 -0.7483 -0.0827 -0.0538
76492SOL    HW247087   6.806   4.869  13.396  1.1194 -0.0546  0.4175
76493SOL     OW47088   7.982  13.259  10.716  0.3359  0.2979  0.3022
76493SOL    HW147089   7.935  13.182  10.750  0.6608  0.2403  0.6288
76493SOL    HW247090   8.072  13.229  10.707  0.1862  0.1966 -0.9936
76494SOL     OW47091   2.100   8.495   7.809  0.2159  0.3430  0.2771
76494SOL    HW147092   2.065   8.555   7.875  0.6099  0.7042  0.1573
76494SOL    HW247093   2.029   8.431   7.795 -1.4958  2.5264 -1.8873
76495SOL     OW47094   7.446  11.418   8.668 -0.0480 -0.2009  0.0937
76495SOL    HW147095   7.542  11.420   8.666 -0.0197 -1.3352 -0.9035
76495SOL    HW247096   7.422  11.486   8.731  1.3633  1.2546 -0.8579
76496SOL     OW47097   5.240   7.630   4.684  0.4177  0.5472  0.6809
76496SOL    HW147098   5.313   7.577   4.650 -0.1114  0.3688 -0.2227
76496SOL    HW247099   5.260   7.719   4.654  0.8967  0.7244  1.5094
76497SOL     OW47100   6.040  11.748   5.179  0.4806 -0.5371  0.2073
76497SOL    HW147101   6.035  11.816   5.246  1.5755 -0.6499  0.4107
76497SOL    HW247102   6.019  11.667   5.226  3.0935 -0.9010  0.8942
76498SOL     OW47103   6.285   8.071   2.255 -0.3348 -0.1436  0.0597
76498SOL    HW147104   6.284   7.979   2.229 -1.3568  0.1903 -1.1834
76498SOL    HW247105   6.254   8.072   2.345 -0.2295 -1.0233  0.1069
76499SOL     OW47106   1.757   3.432   6.117 -0.2404 -0.3143 -0.0570
76499SOL    HW147107   1.816   3.367   6.079  0.5069 -1.4945  2.8913
76499SOL    HW247108   1.671   3.391   6.117 -0.2267 -0.3439 -0.3551
76500SOL     OW47109  11.034   8.840   2.361 -0.3119  0.3563 -0.0630
76500SOL    HW147110  10.957   8.801   2.403  0.9337 -1.5245  0.6172
76500SOL    HW247111  11.083   8.765   2.328 -0.0550  1.6426 -2.8648
76501SOL     OW47112  12.791  13.050   0.014 -0.2663  0.2791 -0.0071
76501SOL    HW147113  12.779  12.966   0.058  1.1424  1.2629  2.4688
76501SOL    HW247114  12.810  13.111   0.084 -1.0187  2.6731 -1.7531
76502SOL     OW47115   4.041  13.485   1.899  0.1678 -0.1611  0.7869
76502SOL    HW147116   4.039  13.571   1.857  1.0051  0.2008  1.4639
76502SOL    HW247117   3.991  13.496   1.980  0.3885 -0.2756  0.9395
76503SOL     OW47118  11.546  10.490   8.112 -0.0689 -0.3964  0.5951
76503SOL    HW147119  11.468  10.441   8.138 -1.8936  2.0513  0.2236
76503SOL    HW247120  11.585  10.519   8.194 -0.8483  0.1478  0.7929
76504SOL     OW47121   6.388   0.895  14.063 -0.2995 -0.2313  0.2064
76504SOL    HW147122   6.305   0.940  14.082 -0.0768  0.3666 -0.1947
76504SOL    HW247123   6.455   0.961  14.079  0.0912 -0.6581  0.3490
76505SOL     OW47124   3.988   5.268   7.268  0.5462 -0.0688 -0.0759
76505SOL    HW147125   3.996   5.345   7.324  3.4093  0.5652 -1.1622
76505SOL    HW247126   3.967   5.304   7.182  0.5373 -0.6262 -0.3062
76506SOL     OW47127   4.456   7.798  12.345  0.2200  0.1922 -0.2588
76506SOL    HW147128   4.417   7.714  12.320  1.1890 -0.2347 -0.3889
76506SOL    HW247129   4.442   7.805  12.439 -0.9553  0.4742 -0.4430
76507SOL     OW47130  13.783   2.658  11.295  0.0591  0.6209 -0.1684
76507SOL    HW147131  13.701   2.614  11.273 -0.3936  1.8050 -0.9463
76507SOL    HW247132  13.781   2.666  11.391 -0.4113  0.0662 -0.1255
76508SOL     OW47133  12.278  10.096   3.679 -0.2583  0.4173  0.1059
76508SOL    HW147134  12.374  10.093   3.684 -0.3048 -1.2878  0.8659
76508SOL    HW247135  12.256  10.187   3.698  1.1195  0.2699  3.0310
76509SOL     OW47136  12.139   3.712   1.565 -0.4573  0.5025  0.6861
76509SOL    HW147137  12.103   3.756   1.641  0.7112 -0.5089  1.8879
76509SOL    HW247138  12.224   3.754   1.550 -0.8975  1.0427 -0.4019
76510SOL     OW47139  12.523   3.110  12.348 -0.1063  0.0840 -0.4757
76510SOL    HW147140  12.598   3.057  12.374 -1.2738 -1.8860 -0.9290
76510SOL    HW247141  12.500   3.079  12.260 -1.6544  0.3615 -0.2030
76511SOL     OW47142   1.383   4.145   2.209 -0.2622  0.0578 -0.3235
76511SOL    HW147143   1.414   4.156   2.299  0.2287  0.1065 -0.4909
76511SOL    HW247144   1.346   4.057   2.207 -0.6837  0.2286  0.0409
76512SOL     OW47145  13.015  12.080   0.888  0.4149  0.2609  0.3731
76512SOL    HW147146  12.987  12.119   0.971  0.7188 -0.7519  0.9845
76512SOL    HW247147  13.093  12.129   0.863  0.4147  0.4723  0.7844
76513SOL     OW47148   7.012   4.824   0.039 -0.3318  0.2086 -0.1491
76513SOL    HW147149   6.995   4.840  -0.053 -0.0292 -2.0660 -0.6612
76513SOL    HW247150   7.104   4.797   0.042 -0.8335 -1.5992  0.4938
76514SOL     OW47151   7.021  13.107   9.136 -0.5285 -0.6541  0.0863
76514SOL    HW147152   7.031  13.172   9.066  0.1172 -1.0280 -0.1845
76514SOL    HW247153   7.067  13.030   9.103 -0.1946 -0.8302  0.9398
76515SOL     OW47154  13.398   8.087   0.102 -0.1930 -0.1619 -0.2350
76515SOL    HW147155  13.437   8.169   0.131 -2.0118  0.5281  0.4016
76515SOL    HW247156  13.460   8.020   0.130  1.0640  0.9449 -0.2761
76516SOL     OW47157  12.772  12.355  12.783  0.3501  0.4267 -0.1414
76516SOL    HW147158  12.742  12.347  12.693  0.4874  0.5460 -0.1988
76516SOL    HW247159  12.864  12.328  12.780  0.9420  2.3506 -0.4111
76517SOL     OW47160  10.032  10.046   3.326 -0.0252  0.0158  0.1113
76517SOL    HW147161  10.101  10.004   3.377  0.3715  0.0039 -0.4303
76517SOL    HW247162   9.955  10.042   3.383  0.8241  1.6243  1.4721
76518SOL     OW47163  12.251   5.326   3.730  0.4880  0.0380 -0.0551
76518SOL    HW147164  12.157   5.342   3.728  0.3562 -0.7008 -0.0412
76518SOL    HW247165  12.284   5.369   3.651  0.0710 -0.0958 -0.3063
76519SOL     OW47166   3.946   2.296  13.927 -0.1449 -0.5647  0.2950
76519SOL    HW147167   3.872   2.322  13.983  0.2158 -1.2171  1.0897
76519SOL    HW247168   3.906   2.275  13.843 -0.7937 -0.3323  0.5357
76520SOL     OW47169   5.956   0.708   3.263 -0.1745 -0.4747 -0.1672
76520SOL    HW147170   5.959   0.617   3.292 -0.1857 -0.7180 -0.9334
76520SOL    HW247171   5.875   0.716   3.213 -1.2965  0.5069  1.6754
76521SOL     OW47172   8.785  11.499  13.747 -0.3024 -0.2083  0.1797
76521SOL    HW147173   8.874  11.496  13.782 -0.5953  0.4015  1.0112
76521SOL    HW247174   8.735  11.439  13.802 -0.8659  1.1011  1.1524
76522SOL     OW47175   6.983   3.659   1.550 -0.0221  0.3172  0.2594
76522SOL    HW147176   6.998   3.701   1.465  3.3453 -0.0104  0.5763
76522SOL    HW247177   6.982   3.565   1.531  0.6802  0.2463  0.5405
76523SOL     OW47178  10.285   2.544   6.832  0.2451 -0.2616 -0.4712
76523SOL    HW147179  10.226   2.617   6.812 -1.5130 -1.2017  0.9508
76523SOL    HW247180  10.336   2.531   6.752  1.1995  2.9886 -0.5390
76524SOL     OW47181   6.490   0.679   6.932 -0.5094  0.1976 -0.4098
76524SOL    HW147182   6.418   0.738   6.908 -1.2581  0.1882  1.6540
76524SOL    HW247183   6.446   0.597   6.955  0.2903 -0.2399 -0.4242
76525SOL     OW47184   2.448   1.052  11.090 -0.4035 -0.6289 -0.0080
76525SOL    HW147185   2.442   0.956  11.090  1.3422 -0.7781  1.0639
76525SOL    HW247186   2.379   1.079  11.150 -1.2199 -1.1700 -0.6744
76526SOL     OW47187   6.087  11.024  11.777  0.0004 -0.4036 -0.4861
76526SOL    HW147188   6.030  11.085  11.824 -0.2558 -1.1158  0.1459
76526SOL    HW247189   6.127  11.076  11.708 -0.6362  0.3485 -0.2921
76527SOL     OW47190  13.204   9.978   1.664  0.3154  0.2051  0.2766
76527SOL    HW147191  13.220  10.001   1.756 -1.0980  0.5813  0.4663
76527SOL    HW247192  13.196   9.882   1.665  1.3325  0.1135  0.3539
76528SOL     OW47193   1.365  13.022   7.464 -0.0570  0.2731 -0.3827
76528SOL    HW147194   1.422  12.992   7.535 -0.9470 -0.1538  0.1787
76528SOL    HW247195   1.405  12.988   7.384 -0.0898 -0.9632  0.0923
76529SOL     OW47196  10.624   6.659   6.433 -0.4430 -0.4136 -0.3441
76529SOL    HW147197  10.591   6.716   6.502  0.5010  0.3948 -0.5473
76529SOL    HW247198  10.719   6.662   6.442 -0.3347 -0.8633 -1.2360
76530SOL     OW47199  10.680   2.421   6.166 -0.3289  0.4223  0.0134
76530SOL    HW147200  10.669   2.514   6.184  0.3491  0.3545  0.8495
76530SOL    HW247201  10.704   2.383   6.251 -1.9063 -0.7422 -0.0233
76531SOL     OW47202   7.368  12.300   0.213  0.6527  0.5929 -0.2687
76531SOL    HW147203   7.440  12.292   0.276  1.3109  0.7464 -0.9760
76531SOL    HW247204   7.306  12.232   0.238 -0.1970  2.0443  1.8995
76532SOL     OW47205   2.911   4.575   7.049  0.1924  0.4517 -0.4167
76532SOL    HW147206   2.871   4.662   7.049  0.4531  0.5792  0.4606
76532SOL    HW247207   2.924   4.554   7.141  1.3081  0.0278 -0.6491
76533SOL     OW47208   7.532  13.502   9.398 -0.3549 -0.0165 -0.4474
76533SOL    HW147209   7.498  13.416   9.374  0.3040 -0.5221  0.3871
76533SOL    HW247210   7.468  13.564   9.362 -0.4224 -0.8117 -1.7585
76534SOL     OW47211   5.705  12.051   0.625  0.4524  0.8718 -0.2412
76534SOL    HW147212   5.665  12.132   0.657  0.1545  0.3245  0.8326
76534SOL    HW247213   5.722  12.067   0.533  0.1003  2.0425 -0.1173
76535SOL     OW47214   2.902   5.444   9.766 -0.2324  0.2049  0.1620
76535SOL    HW147215   2.931   5.522   9.815 -2.2365  1.3043 -0.2972
76535SOL    HW247216   2.878   5.381   9.834 -0.1863  0.6039  0.5544
76536SOL     OW47217   3.110   6.660   7.485  0.1256  0.0791  0.0436
76536SOL    HW147218   3.047   6.589   7.471  0.5647 -0.6186  1.4330
76536SOL    HW247219   3.123   6.698   7.398 -2.1762  0.2389 -0.2954
76537SOL     OW47220   9.783   9.963   4.708 -0.0848 -0.0159  0.4534
76537SOL    HW147221   9.715  10.027   4.727 -0.0784 -0.0830  0.7018
76537SOL    HW247222   9.793   9.967   4.613 -0.2257  0.2070  0.4469
76538SOL     OW47223   9.574   6.261   6.542  0.5238  0.5423  0.1223
76538SOL    HW147224   9.522   6.337   6.517  0.8132  0.4311 -0.8565
76538SOL    HW247225   9.654   6.297   6.581  0.4569  0.7308  0.0838
76539SOL     OW47226   9.315   0.456   8.346 -0.0359 -0.3061  0.4999
76539SOL    HW147227   9.411   0.446   8.342  0.1206  0.6936  1.2385
76539SOL    HW247228   9.291   0.492   8.261  0.3117 -0.0862  0.4924
76540SOL     OW47229  12.353   3.744   7.933 -0.1103  0.2027  0.3794
76540SOL    HW147230  12.425   3.741   7.869 -0.1128  0.8540  0.3392
76540SOL    HW247231  12.327   3.652   7.944  0.0854  0.0581 -0.3311
76541SOL     OW47232   7.036   6.162   0.012 -0.4448 -0.3068 -0.2038
76541SOL    HW147233   7.010   6.154   0.104  0.4161 -0.2046  0.0558
76541SOL    HW247234   7.131   6.170   0.014 -0.4596  0.3184 -1.0663
76542SOL     OW47235   7.620   3.302   9.859 -0.1424 -0.2130 -0.0371
76542SOL    HW147236   7.533   3.335   9.880 -0.8215 -2.1735  0.5113
76542SOL    HW247237   7.604   3.216   9.819  1.5170 -0.4993 -0.1642
76543SOL     OW47238   7.341  12.274   9.961  0.1062 -0.4038 -0.0780
76543SOL    HW147239   7.279  12.318  10.018  0.1657 -0.0510 -0.2805
76543SOL    HW247240   7.383  12.345   9.912 -1.5250 -0.7823 -2.1952
76544SOL     OW47241   5.905   7.862   7.660 -0.3719 -0.0385 -0.1573
76544SOL    HW147242   5.826   7.812   7.643 -0.6188 -0.0345  0.9077
76544SOL    HW247243   5.951   7.812   7.728 -0.1717  0.7035  0.2649
76545SOL     OW47244  13.021   3.086  12.918  0.0818  0.1615  0.0622
76545SOL    HW147245  13.065   3.011  12.959  0.7172 -0.2271 -1.2550
76545SOL    HW247246  12.993   3.053  12.833 -2.3756  0.5682  0.6589
76546SOL     OW47247   6.681   3.828   4.999  0.1057  0.2202 -0.2240
76546SOL    HW147248   6.697   3.910   4.950 -0.1130  1.0536  1.0572
76546SOL    HW247249   6.713   3.847   5.087  0.9255 -1.4247 -0.1452
76547SOL     OW47250  10.476  13.143  14.061 -0.6670  0.0379 -0.4839
76547SOL    HW147251  10.483  13.077  14.131 -3.0107  0.3056  0.0982
76547SOL    HW247252  10.566  13.157  14.033  0.2529 -0.9639  1.6710
76548SOL     OW47253   8.930   9.987   5.086  0.0380  0.2904  0.0060
76548SOL    HW147254   8.853   9.947   5.126  0.3173 -0.9466 -0.6419
76548SOL    HW247255   9.004   9.947   5.131  0.3217  0.5649 -0.2081
76549SOL     OW47256   9.055   0.829   7.049 -0.1732 -0.1122  0.1132
76549SOL    HW147257   9.063   0.917   7.087  0.5854 -0.0882 -0.0783
76549SOL    HW247258   9.015   0.777   7.118  1.0723 -0.0416  0.9345
76550SOL     OW47259   0.831   9.802   0.159 -0.6281 -0.6710 -0.6592
76550SOL    HW147260   0.897   9.819   0.093 -0.4029 -0.6723 -0.4353
76550SOL    HW247261   0.801   9.712   0.141  2.3703 -2.3222  1.7285
76551SOL     OW47262   1.818   5.031   2.483 -0.3229 -0.0801  0.3601
76551SOL    HW147263   1.790   4.951   2.439 -1.2222 -0.8793  2.2751
76551SOL    HW247264   1.910   5.041   2.457 -1.0468  0.1680 -2.5481
76552SOL     OW47265   8.208  12.028   5.153 -0.2574 -0.4915  0.6346
76552SOL    HW147266   8.268  12.101   5.134 -0.5951 -0.9674 -2.9987
76552SOL    HW247267   8.255  11.950   5.125 -1.3393 -1.2487  0.8695
76553SOL     OW47268  10.394   4.121   3.563  0.0953  0.6321  0.1166
76553SOL    HW147269  10.341   4.042   3.571  1.5836 -0.5151 -0.6950
76553SOL    HW247270  10.458   4.114   3.634  0.4427  0.9354 -0.1597
76554SOL     OW47271   3.628  12.398  10.153  0.7668 -0.1973 -0.2885
76554SOL    HW147272   3.602  12.310  10.177 -1.2417  0.0775 -1.2211
76554SOL    HW247273   3.702  12.385  10.093  0.2667 -1.2918 -0.7090
76555SOL     OW47274   1.715   9.564   7.391 -0.4041  0.1555 -0.1569
76555SOL    HW147275   1.759   9.512   7.459 -1.0955  0.1467  0.2918
76555SOL    HW247276   1.669   9.500   7.338 -0.0080  0.1792 -0.5400
76556SOL     OW47277   5.175   1.731   1.790 -0.1193 -0.0053 -0.3708
76556SOL    HW147278   5.131   1.703   1.710 -0.6070 -0.2090 -0.0372
76556SOL    HW247279   5.188   1.650   1.840 -1.3216  0.2998  0.4933
76557SOL     OW47280  10.016   0.442   5.126  0.5609 -0.3066 -1.0871
76557SOL    HW147281   9.942   0.471   5.072  0.2562 -1.3213 -1.2296
76557SOL    HW247282  10.036   0.517   5.182 -1.8437 -0.6458  0.3460
76558SOL     OW47283   9.252   4.202   4.711 -0.3121  0.3748  0.1205
76558SOL    HW147284   9.293   4.208   4.624 -0.5010 -0.6859 -0.0675
76558SOL    HW247285   9.226   4.291   4.732  0.9003  0.8530 -0.3406
76559SOL     OW47286   6.714   0.822   2.354 -0.3797 -0.1399 -0.2364
76559SOL    HW147287   6.783   0.796   2.414  0.5997 -0.7688 -1.5635
76559SOL    HW247288   6.722   0.917   2.348  0.9917 -0.2615 -1.0096
76560SOL     OW47289   9.592   8.233  10.869 -0.4505 -0.1885  0.2621
76560SOL    HW147290   9.648   8.180  10.813  0.8060  0.6730  0.6584
76560SOL    HW247291   9.594   8.189  10.954  2.0749  1.3564  1.1183
76561SOL     OW47292   2.067   4.232  12.397  0.3508  0.1487  0.2779
76561SOL    HW147293   2.149   4.212  12.352 -1.2440  0.3422 -2.9304
76561SOL    HW247294   2.047   4.152  12.446  1.5272 -0.5796 -0.3824
76562SOL     OW47295   0.012   8.035   8.395 -0.3950 -0.0878  0.1376
76562SOL    HW147296   0.032   7.997   8.310 -0.8086 -1.6724  0.7163
76562SOL    HW247297  -0.078   8.007   8.413 -0.6782  1.1069  0.6411
76563SOL     OW47298   6.601   7.217   1.351  0.7822 -0.1802  0.6188
76563SOL    HW147299   6.644   7.274   1.415 -0.7106  0.1474  1.3755
76563SOL    HW247300   6.639   7.130   1.368  2.4674  0.3912  0.0019
76564SOL     OW47301   3.500   9.043   2.813  0.1875  0.3106 -0.4971
76564SOL    HW147302   3.567   9.097   2.855  0.4204 -0.7276  0.5275
76564SOL    HW247303   3.536   9.024   2.727  1.9213 -1.3651  0.5082
76565SOL     OW47304  13.058   4.406   6.849 -0.3208  0.0055 -0.7481
76565SOL    HW147305  12.998   4.479   6.862 -1.1805 -0.6935 -0.6737
76565SOL    HW247306  13.025   4.337   6.907  1.9376  0.3672  1.1277
76566SOL     OW47307   1.922   4.179  10.895 -0.2768  0.6843 -0.1699
76566SOL    HW147308   1.902   4.146  10.983 -0.6205  1.4687  0.0545
76566SOL    HW247309   1.943   4.101  10.844 -0.9653  0.1288  0.3789
76567SOL     OW47310  10.424   5.786  10.139 -0.6345 -0.5707 -0.2856
76567SOL    HW147311  10.461   5.707  10.100 -0.2411 -0.2418 -0.5852
76567SOL    HW247312  10.377   5.828  10.067 -0.2260 -0.1550 -0.3120
76568SOL     OW47313  13.888   7.310   3.744  0.0684 -0.2495 -0.1891
76568SOL    HW147314  13.973   7.354   3.754  0.4199 -0.3015 -2.4483
76568SOL    HW247315  13.889   7.242   3.811  3.3878 -2.5685 -2.2678
76569SOL     OW47316  12.851  12.587   2.695  0.3750 -0.8338  0.5379
76569SOL    HW147317  12.807  12.502   2.700  0.9703 -1.2766 -1.1776
76569SOL    HW247318  12.876  12.596   2.604  1.3901  0.6652  0.9281
76570SOL     OW47319   5.523  13.905   7.423  0.3219 -0.1571  0.2513
76570SOL    HW147320   5.561  13.908   7.335 -0.0741 -1.3561  0.0236
76570SOL    HW247321   5.586  13.858   7.476  0.9782  1.3450  0.8542
76571SOL     OW47322   7.346  10.753   1.031 -0.4333 -0.1779 -0.3013
76571SOL    HW147323   7.362  10.666   1.067  1.7092  0.2318 -0.1443
76571SOL    HW247324   7.364  10.813   1.103  0.5788  0.4856 -1.0707
76572SOL     OW47325   7.050   6.449  13.020  0.4018  0.2133  0.1504
76572SOL    HW147326   7.082   6.459  12.930 -0.4010 -1.4433 -0.3519
76572SOL    HW247327   7.129   6.429  13.071  0.6059 -0.9758 -0.5841
76573SOL     OW47328  11.136   2.107   4.094  0.7968  1.5654  0.6243
76573SOL    HW147329  11.083   2.139   4.167 -0.4702 -2.5408  1.7371
76573SOL    HW247330  11.191   2.038   4.132  0.8408 -0.0185 -2.0516
76574SOL     OW47331  13.929   2.934   5.190  0.4277 -0.6591 -0.0568
76574SOL    HW147332  13.835   2.948   5.194  0.6262  0.4531  1.1574
76574SOL    HW247333  13.948   2.923   5.096 -0.8333 -0.4426 -0.3515
76575SOL     OW47334   9.494  13.332   3.616 -0.8141 -0.1231 -0.2577
76575SOL    HW147335   9.433  13.379   3.561  0.3391  1.5321 -0.2033
76575SOL    HW247336   9.575  13.329   3.565 -0.3118 -0.3475  0.5287
76576SOL     OW47337  12.510  10.492  10.065 -0.4454  0.6985  0.7918
76576SOL    HW147338  12.464  10.411  10.089 -0.5166  0.1094 -1.0932
76576SOL    HW247339  12.441  10.551  10.035 -0.1744  0.3396 -0.6521
76577SOL     OW47340  10.996   0.036   8.314 -0.2045 -1.1837 -0.3135
76577SOL    HW147341  10.966  -0.024   8.383 -3.1885 -1.4981 -1.7044
76577SOL    HW247342  11.027  -0.022   8.245 -1.4943 -1.1108 -0.9829
76578SOL     OW47343  10.008   6.622   3.581  0.1104  0.6129 -0.2103
76578SOL    HW147344  10.018   6.680   3.505  0.1754  0.5780 -0.2281
76578SOL    HW247345   9.955   6.549   3.549  1.1844 -0.0303 -0.5616
76579SOL     OW47346   4.574  10.007   0.701 -0.1112  0.3624  0.2301
76579SOL    HW147347   4.547   9.936   0.760 -0.0878  0.7166  0.6731
76579SOL    HW247348   4.522   9.994   0.622  0.1938 -0.3973  0.1455
76580SOL     OW47349   4.707   8.920   0.560  0.2593 -0.0064  0.1495
76580SOL    HW147350   4.649   8.962   0.623 -0.0758  0.4106 -0.4324
76580SOL    HW247351   4.666   8.934   0.475  0.6048 -0.7332 -0.1515
76581SOL     OW47352   8.453  13.278   2.319  0.1503 -0.1860  0.6297
76581SOL    HW147353   8.397  13.285   2.396 -2.4579  0.7350 -1.2321
76581SOL    HW247354   8.408  13.217   2.261  1.0388  0.6237 -0.9789
76582SOL     OW47355   6.221  12.570  12.604 -0.3253  0.5184 -0.5382
76582SOL    HW147356   6.260  12.656  12.583 -1.3158  1.8067  2.3313
76582SOL    HW247357   6.293  12.508  12.590  1.4669  2.2564  0.3617
76583SOL     OW47358   0.161   4.223   2.872  0.1282 -0.5455  0.1555
76583SOL    HW147359   0.201   4.152   2.822  0.6027 -0.6636  0.6964
76583SOL    HW247360   0.067   4.205   2.868  0.2399 -1.1638  0.2314
76584SOL     OW47361   7.389   0.899  13.984  0.5866  0.9527  0.0389
76584SOL    HW147362   7.402   0.856  14.068 -0.6839  0.0090 -0.2129
76584SOL    HW247363   7.351   0.831  13.928  1.0974  1.6494 -1.2089
76585SOL     OW47364   4.751   3.475   0.701 -0.6293 -0.0495 -0.1842
76585SOL    HW147365   4.732   3.561   0.739  0.2747 -0.0326  0.2465
76585SOL    HW247366   4.665   3.436   0.687 -1.0574 -0.3741  2.6177
76586SOL     OW47367   4.194   2.904   1.841  0.1014  0.7312  0.0597
76586SOL    HW147368   4.154   2.854   1.912  2.0129 -0.2745  0.4950
76586SOL    HW247369   4.122   2.923   1.781 -1.2016 -0.0104  1.3399
76587SOL     OW47370   5.488   2.011   8.263 -0.8811 -0.1589  0.4266
76587SOL    HW147371   5.393   2.002   8.275 -0.6801 -0.7339  1.6766
76587SOL    HW247372   5.512   2.083   8.321 -0.7083  0.8036 -0.7876
76588SOL     OW47373   1.396   7.301   1.673  0.8625 -0.7518  0.4279
76588SOL    HW147374   1.367   7.235   1.737 -1.4470  1.0843  1.4084
76588SOL    HW247375   1.461   7.353   1.721  0.6513 -0.6224  0.5710
76589SOL     OW47376   0.679  10.659   8.575  0.2388 -0.0637  0.0671
76589SOL    HW147377   0.691  10.699   8.488 -0.2424 -1.1997 -0.5435
76589SOL    HW247378   0.638  10.728   8.627  2.8942  1.5486  0.2188
76590SOL     OW47379  11.227   1.684   6.006 -0.7010  0.1331  0.0967
76590SOL    HW147380  11.188   1.768   6.029 -4.9638 -1.8659  1.2285
76590SOL    HW247381  11.158   1.639   5.955  0.8490 -3.1262  0.6137
76591SOL     OW47382   4.243   0.354   4.049  0.0018 -0.3972  0.3140
76591SOL    HW147383   4.270   0.282   3.991 -0.5146 -2.3537  2.3433
76591SOL    HW247384   4.293   0.340   4.130 -3.2087 -1.2121  2.3846
76592SOL     OW47385   0.589   8.132   6.854  0.6049 -0.5100 -0.1134
76592SOL    HW147386   0.675   8.151   6.892  0.5012 -0.8310  0.2938
76592SOL    HW247387   0.601   8.049   6.807 -0.0366 -1.8868  1.9674
76593SOL     OW47388  10.138   2.630  12.975  0.1032 -0.3159 -0.2818
76593SOL    HW147389  10.191   2.660  12.900 -0.8713  1.1833 -0.4006
76593SOL    HW247390  10.050   2.661  12.956 -0.2803 -0.4234  1.2284
76594SOL     OW47391   5.308  10.356  11.994 -0.0162 -0.3825  0.0471
76594SOL    HW147392   5.389  10.385  12.038  0.0013 -0.3081 -0.0324
76594SOL    HW247393   5.303  10.263  12.012  0.8501 -0.6789 -1.1396
76595SOL     OW47394  10.405   1.470   0.682  0.2893 -0.2814  0.3625
76595SOL    HW147395  10.438   1.416   0.611  2.3651  0.2676  0.8500
76595SOL    HW247396  10.378   1.407   0.750 -0.0239 -0.7445 -0.1834
76596SOL     OW47397   7.695   9.501   8.590  0.0581  0.4928  0.1399
76596SOL    HW147398   7.756   9.429   8.606  3.2821  2.6326 -1.4269
76596SOL    HW247399   7.732   9.575   8.638 -1.5636  1.8053 -0.5251
76597SOL     OW47400   2.623  12.775  13.789  0.3667  0.4590 -0.1332
76597SOL    HW147401   2.610  12.850  13.730  1.3195  0.6712 -0.0833
76597SOL    HW247402   2.556  12.712  13.762  1.6145 -0.0231 -2.3855
76598SOL     OW47403   8.039   4.657   4.279  0.3984 -0.3002 -0.0334
76598SOL    HW147404   7.975   4.723   4.305 -0.6657 -1.2471 -0.1572
76598SOL    HW247405   8.118   4.706   4.258 -0.1761  0.8663  0.4854
76599SOL     OW47406   7.109  11.480   9.099 -0.2842 -0.2854 -0.0477
76599SOL    HW147407   7.165  11.496   9.175 -1.5233  0.1235  0.8114
76599SOL    HW247408   7.113  11.561   9.048  0.0165 -0.3146 -0.0704
76600SOL     OW47409   8.465   3.780   2.245  0.3286 -0.8900  0.0927
76600SOL    HW147410   8.484   3.752   2.155 -2.8977  0.3936 -1.1332
76600SOL    HW247411   8.477   3.875   2.243 -0.8193 -0.7167  0.6631
76601SOL     OW47412   0.278  11.794  12.859  0.1799  0.3166 -0.1568
76601SOL    HW147413   0.232  11.815  12.778  1.8748  0.3203 -1.1555
76601SOL    HW247414   0.218  11.737  12.907 -0.7382  0.0982 -1.5219
76602SOL     OW47415   4.274  13.380   2.108  0.3391 -0.2183  0.7124
76602SOL    HW147416   4.306  13.469   2.122 -1.2724  0.2885  1.4100
76602SOL    HW247417   4.195  13.391   2.055  0.5302 -1.3115  0.1797
76603SOL     OW47418   3.760   6.174   4.268  0.0450  0.5375  0.1989
76603SOL    HW147419   3.701   6.229   4.319  1.2750  0.8609  1.3371
76603SOL    HW247420   3.744   6.085   4.300 -0.6413  0.4638 -0.3316
76604SOL     OW47421  12.189   8.681  10.305 -0.0848  0.0436  0.1802
76604SOL    HW147422  12.267   8.712  10.350 -0.1854  0.5680 -0.0068
76604SOL    HW247423  12.222   8.640  10.225 -0.1351  2.6410 -1.2707
76605SOL     OW47424   4.078   7.888   2.296  0.3777 -0.4904  0.0566
76605SOL    HW147425   3.989   7.852   2.307 -0.5503  0.4006 -3.4356
76605SOL    HW247426   4.122   7.826   2.238  0.4581  1.3394 -1.9319
76606SOL     OW47427   5.219   7.079   5.822 -0.1748 -0.4928  0.1701
76606SOL    HW147428   5.304   7.067   5.865 -0.2665 -0.2992  0.4064
76606SOL    HW247429   5.201   7.173   5.831 -0.5928 -0.6011  0.4500
76607SOL     OW47430   9.360  11.166   6.976  0.3904 -0.5163 -0.1521
76607SOL    HW147431   9.281  11.134   6.933 -1.2052  0.4460  1.8512
76607SOL    HW247432   9.395  11.233   6.917 -1.6635  0.7030 -0.0799
76608SOL     OW47433   0.407   2.871  13.622  0.1001  0.4736  0.3763
76608SOL    HW147434   0.381   2.914  13.541  0.6220  0.1445  0.0286
76608SOL    HW247435   0.403   2.940  13.688  0.3201  0.9102 -0.0582
76609SOL     OW47436   8.066   4.492  13.347 -0.3672 -0.4517  0.2561
76609SOL    HW147437   8.104   4.509  13.433 -0.5749 -1.4717  0.5659
76609SOL    HW247438   7.995   4.557  13.338  0.1684  0.1768  0.4995
76610SOL     OW47439   7.531  12.635   1.867  0.2533 -0.3320  0.0748
76610SOL    HW147440   7.590  12.660   1.797 -0.3907 -1.2784 -0.8313
76610SOL    HW247441   7.480  12.714   1.885  0.7057  0.0318 -0.2342
76611SOL     OW47442   2.217   3.983   7.928  0.0568 -0.0996 -0.2645
76611SOL    HW147443   2.295   3.932   7.907 -0.4620 -1.2836  0.5639
76611SOL    HW247444   2.241   4.073   7.908  2.0450 -0.2791  1.0408
76612SOL     OW47445   1.404   5.456  10.959 -0.4865 -0.0082  0.1821
76612SOL    HW147446   1.415   5.399  10.883 -1.6618 -0.7495  0.5456
76612SOL    HW247447   1.493   5.483  10.982 -0.0761 -0.1419 -1.1641
76613SOL     OW47448   3.560   0.327   8.363  0.3909  0.6276  0.2555
76613SOL    HW147449   3.560   0.294   8.273 -1.8255  0.1142  0.3683
76613SOL    HW247450   3.561   0.248   8.417 -0.1221  0.8678  0.6225
76614SOL     OW47451   4.112   8.491   9.554  0.5290  0.3408  0.0281
76614SOL    HW147452   4.062   8.499   9.635  1.4133 -0.9705  0.7237
76614SOL    HW247453   4.108   8.579   9.516 -1.2378  0.5866  0.6658
76615SOL     OW47454   6.058   4.013   9.672  0.2785  0.1764  0.0126
76615SOL    HW147455   6.105   4.033   9.754 -1.6428  1.2339  0.9256
76615SOL    HW247456   6.011   4.094   9.651 -0.0625 -0.4054 -1.6066
76616SOL     OW47457   1.564   9.573   1.255  0.2653 -0.4495 -0.2725
76616SOL    HW147458   1.568   9.493   1.308 -2.6697  0.5680  1.7350
76616SOL    HW247459   1.491   9.557   1.195 -0.5714  0.7821  0.3814
76617SOL     OW47460  11.796  11.777  10.396 -0.2283  0.9023  0.5760
76617SOL    HW147461  11.813  11.690  10.432  2.5353  1.2279  0.2995
76617SOL    HW247462  11.740  11.761  10.320  0.5224 -0.7198  0.3111
76618SOL     OW47463   3.314   7.805   8.582 -0.2304  0.0151 -0.0092
76618SOL    HW147464   3.323   7.714   8.612  1.1023  0.4031  0.8526
76618SOL    HW247465   3.269   7.798   8.498  0.0981 -1.4743 -0.0867
76619SOL     OW47466   9.363   8.326   4.713  0.0544  0.1718 -0.1701
76619SOL    HW147467   9.442   8.305   4.762  0.2231 -0.9024 -0.8532
76619SOL    HW247468   9.393   8.382   4.642  0.2562 -0.4338 -0.5708
76620SOL     OW47469   7.399   0.536  13.549  0.4725  0.2524 -0.4297
76620SOL    HW147470   7.310   0.567  13.569  0.7036  1.1001 -0.6634
76620SOL    HW247471   7.389   0.442  13.536 -0.3063  0.2541  0.0470
76621SOL     OW47472   0.026  12.894   0.557 -0.0970 -0.5531  0.4445
76621SOL    HW147473  -0.016  12.823   0.508 -1.9895  0.1347  0.9954
76621SOL    HW247474   0.115  12.862   0.573 -0.6399 -2.4413 -0.0413
76622SOL     OW47475   5.995   9.432   2.021  0.2049  0.1615  0.2348
76622SOL    HW147476   6.000   9.351   1.971 -0.2963  0.6877 -0.6975
76622SOL    HW247477   6.036   9.498   1.964  0.8177  0.5221  1.0763
76623SOL     OW47478   4.375   7.232   0.420  0.2130 -0.2183 -0.0194
76623SOL    HW147479   4.440   7.162   0.431 -0.8572 -1.0043  1.6530
76623SOL    HW247480   4.403   7.300   0.483  0.6046  0.3944 -0.8346
76624SOL     OW47481   0.107   6.865   3.858  0.3619  0.3204 -0.0049
76624SOL    HW147482   0.081   6.906   3.941 -0.8096  1.1482 -0.7559
76624SOL    HW247483   0.027   6.828   3.822  0.8123  0.1337 -0.8551
76625SOL     OW47484   5.250   1.058   6.032 -0.4323 -0.3588 -0.1928
76625SOL    HW147485   5.180   1.109   5.991 -0.8034  1.2909  2.2906
76625SOL    HW247486   5.329   1.085   5.985 -1.1315 -0.5070 -1.5054
76626SOL     OW47487  12.943   7.398   6.235  0.0231  0.2723  0.6383
76626SOL    HW147488  12.950   7.433   6.324  0.1047 -0.9321  1.1172
76626SOL    HW247489  12.940   7.303   6.247 -0.9918  0.1393 -0.5818
76627SOL     OW47490   9.961   3.897   1.387  0.1463  0.3413  0.2900
76627SOL    HW147491   9.922   3.936   1.465 -0.7443  0.2982 -0.1268
76627SOL    HW247492   9.972   3.805   1.410 -0.4707  0.2490  0.2359
76628SOL     OW47493   7.890   3.250   3.490  0.8957  0.0083  0.2219
76628SOL    HW147494   7.913   3.170   3.443 -0.7180 -1.3140  1.5469
76628SOL    HW247495   7.838   3.300   3.427  1.6123 -0.1520 -0.5094
76629SOL     OW47496   4.479   4.411   4.843 -0.3167 -0.4946  0.0893
76629SOL    HW147497   4.418   4.396   4.770 -0.6237 -0.5391  0.3503
76629SOL    HW247498   4.430   4.382   4.921  0.4675 -1.6163  0.1812
76630SOL     OW47499  11.803   3.440   9.804  0.3213 -0.4706 -0.4298
76630SOL    HW147500  11.811   3.448   9.899 -0.6909 -0.9352 -0.2990
76630SOL    HW247501  11.820   3.528   9.771  0.8595 -0.3432  0.1607
76631SOL     OW47502   2.273   8.702   2.735  0.4830 -0.4177  0.5035
76631SOL    HW147503   2.283   8.797   2.738  0.3235 -0.4000  0.4568
76631SOL    HW247504   2.281   8.680   2.643 -0.5318 -0.3368  0.3825
76632SOL     OW47505  10.750   1.718   4.428 -0.7553  0.1108  0.1836
76632SOL    HW147506  10.806   1.785   4.389 -1.8016  1.1512  0.4004
76632SOL    HW247507  10.673   1.717   4.372 -1.0937 -0.3379  0.6540
76633SOL     OW47508   1.383   8.946   9.415 -0.6790  0.1736  0.2607
76633SOL    HW147509   1.295   8.919   9.391 -0.6369  0.9768 -0.8559
76633SOL    HW247510   1.377   8.965   9.509 -1.6302  0.0239  0.2393
76634SOL     OW47511   9.699   4.266  11.867 -0.0018  0.3450 -0.0321
76634SOL    HW147512   9.634   4.243  11.934  0.7751 -0.0160  0.6210
76634SOL    HW247513   9.763   4.320  11.914 -0.1988  1.2757 -0.8315
76635SOL     OW47514   3.699   9.915   5.028  0.2323  0.4088 -0.7127
76635SOL    HW147515   3.736   9.997   5.061  0.7741 -0.2453  0.3521
76635SOL    HW247516   3.641   9.942   4.957 -0.4680  1.8129  0.3473
76636SOL     OW47517  12.425  11.321   4.577  0.0834  0.1497 -1.0796
76636SOL    HW147518  12.380  11.239   4.596 -0.6586  0.6836 -0.4958
76636SOL    HW247519  12.355  11.386   4.575  0.8475  1.0299  0.0609
76637SOL     OW47520   3.469   1.926  13.967 -0.2585  0.0504  0.1153
76637SOL    HW147521   3.449   1.838  13.999  0.7527  0.2217  1.2999
76637SOL    HW247522   3.384   1.970  13.963 -0.6173 -0.5532  0.8495
76638SOL     OW47523  11.741   0.782   9.368  0.7256  0.4011  0.0598
76638SOL    HW147524  11.818   0.741   9.406  0.1825 -1.5600 -0.8343
76638SOL    HW247525  11.677   0.711   9.360 -1.1134  1.9114  0.5589
76639SOL     OW47526   6.373  10.528   0.849  0.6038 -0.1470 -0.1173
76639SOL    HW147527   6.364  10.612   0.894 -0.7524 -0.6505  0.6018
76639SOL    HW247528   6.290  10.517   0.802  1.2191 -0.5663 -1.1306
76640SOL     OW47529   9.984  12.120   4.002  0.0388 -0.5371 -0.0011
76640SOL    HW147530  10.001  12.152   3.914 -2.7437 -0.7774 -0.7079
76640SOL    HW247531  10.067  12.135   4.049  0.8534  1.8338 -1.9591
76641SOL     OW47532   5.566   5.253   2.769  0.4258 -0.0811 -0.2599
76641SOL    HW147533   5.626   5.292   2.832  0.6944 -0.4079 -0.3157
76641SOL    HW247534   5.523   5.329   2.727  1.0621  0.1601 -0.4842
76642SOL     OW47535  12.054   8.562   3.406 -0.4632 -0.1304 -0.6594
76642SOL    HW147536  12.097   8.511   3.474 -1.6414  1.0575  1.0530
76642SOL    HW247537  12.039   8.648   3.446 -1.7942  0.4033 -2.1775
76643SOL     OW47538   2.429   0.101  11.117  0.3785 -0.4987  0.6046
76643SOL    HW147539   2.425   0.009  11.143  0.9618 -0.7440 -0.1314
76643SOL    HW247540   2.521   0.115  11.094  0.0864 -0.0313 -0.3177
76644SOL     OW47541   6.240  12.292  13.462 -0.2438 -0.0784 -0.0470
76644SOL    HW147542   6.150  12.324  13.467  0.0030  1.7066 -3.7790
76644SOL    HW247543   6.293  12.372  13.464  1.1296 -0.9634 -0.1707
76645SOL     OW47544   1.323   7.095   1.484 -0.2988  0.4526 -0.2524
76645SOL    HW147545   1.342   7.140   1.401  1.1389  0.1019 -0.1312
76645SOL    HW247546   1.320   7.166   1.549  2.2271  0.4389 -0.0154
76646SOL     OW47547   4.295   9.137   1.643  0.2920 -0.3215 -0.7466
76646SOL    HW147548   4.289   9.140   1.548 -1.8079 -1.6559 -0.7180
76646SOL    HW247549   4.355   9.208   1.665 -0.8585  1.4612 -2.9290
76647SOL     OW47550   4.174   9.459   7.952  0.1533  0.2637  0.4267
76647SOL    HW147551   4.230   9.505   7.890  0.5348 -0.4730  0.2125
76647SOL    HW247552   4.175   9.368   7.923 -0.5166  0.0997  0.8918
76648SOL     OW47553  13.655  11.749   9.084 -0.8864  0.1512  0.0163
76648SOL    HW147554  13.619  11.662   9.073  0.1821 -0.2515 -0.4808
76648SOL    HW247555  13.734  11.749   9.029  0.0747  0.8572  1.3363
76649SOL     OW47556   7.872   6.842   7.345 -0.1400 -0.5646 -0.2859
76649SOL    HW147557   7.820   6.839   7.264 -0.5007 -0.9988 -0.0418
76649SOL    HW247558   7.810   6.820   7.414 -0.0534  0.7187  0.2278
76650SOL     OW47559   9.504   2.794  12.638 -0.3833 -0.5772  0.1411
76650SOL    HW147560   9.535   2.703  12.635 -1.0147 -0.8076  0.4812
76650SOL    HW247561   9.569   2.843  12.588 -0.3456 -1.3133 -0.5495
76651SOL     OW47562  12.657   5.798   4.256 -0.0847 -0.1330  0.6330
76651SOL    HW147563  12.696   5.806   4.169 -1.2822 -0.5140  0.0422
76651SOL    HW247564  12.689   5.714   4.289  0.4388  0.0517  0.5952
76652SOL     OW47565   0.840   2.404   1.571  0.2074 -0.0694 -0.0903
76652SOL    HW147566   0.759   2.450   1.596  0.0667 -0.9037  1.0769
76652SOL    HW247567   0.814   2.348   1.498  0.1334  0.9024 -0.8243
76653SOL     OW47568   6.448   4.567   7.305  0.7048  0.0360  0.2643
76653SOL    HW147569   6.456   4.474   7.323 -0.3279  0.0145  0.6626
76653SOL    HW247570   6.355   4.580   7.283  0.7899  1.0017  0.4331
76654SOL     OW47571   9.948   2.216  10.025 -0.6005 -0.2180 -0.1095
76654SOL    HW147572   9.865   2.259  10.043 -0.3562 -0.1908  1.0285
76654SOL    HW247573   9.950   2.142  10.086 -0.2031 -0.7719 -0.7750
76655SOL     OW47574   1.669   9.260   7.010  0.4836 -0.7403 -0.4535
76655SOL    HW147575   1.623   9.176   7.006 -1.3627  0.1650  0.2607
76655SOL    HW247576   1.681   9.286   6.919 -2.5720  0.0323 -0.7459
76656SOL     OW47577   2.703  10.762   9.054  0.0993  0.1922 -0.2620
76656SOL    HW147578   2.645  10.726   8.987 -0.6727 -1.1003  1.0555
76656SOL    HW247579   2.705  10.856   9.036 -2.3851  0.2892 -0.3934
76657SOL     OW47580  13.501   8.477   3.900  0.0174 -0.0468  0.1367
76657SOL    HW147581  13.591   8.469   3.932 -0.4091 -0.7033  1.2243
76657SOL    HW247582  13.455   8.403   3.939 -0.6156 -0.7000 -1.7721
76658SOL     OW47583   3.702   8.830  11.284 -0.1476 -0.9500 -0.1826
76658SOL    HW147584   3.641   8.887  11.332 -0.5017 -2.2565  0.9732
76658SOL    HW247585   3.650   8.794  11.213 -0.1560 -0.5194 -0.4015
76659SOL     OW47586   2.547   9.602   0.925 -0.1306  0.4492 -0.0392
76659SOL    HW147587   2.577   9.524   0.973  1.5712  1.3095  0.3777
76659SOL    HW247588   2.551   9.672   0.990  0.8801  1.3750 -1.0694
76660SOL     OW47589   4.364   4.113  14.005  0.5453  0.2922  0.7313
76660SOL    HW147590   4.360   4.193  14.058  0.0901  1.1748 -0.5892
76660SOL    HW247591   4.411   4.139  13.926 -3.1173  0.4195 -1.6130
76661SOL     OW47592   2.120   8.617   0.440 -0.0950  0.1720 -0.4956
76661SOL    HW147593   2.192   8.581   0.389 -1.9135 -1.2093 -2.2613
76661SOL    HW247594   2.154   8.624   0.529  2.5429  0.6960 -1.4758
76662SOL     OW47595   3.810   2.635   4.424  0.1446  0.1373 -0.0042
76662SOL    HW147596   3.766   2.666   4.345  1.0618  1.3340 -0.0756
76662SOL    HW247597   3.742   2.589   4.473 -0.5682 -0.1655 -1.2292
76663SOL     OW47598   7.890   7.478   2.947  0.0639 -0.4399  0.1715
76663SOL    HW147599   7.849   7.415   3.006  0.9641 -1.0784  0.1268
76663SOL    HW247600   7.963   7.514   2.996 -0.3538  0.4748  0.1435
76664SOL     OW47601  10.888   2.031   5.731  0.2007 -0.3955  0.3915
76664SOL    HW147602  10.844   2.094   5.789  0.2407 -0.9152  1.0015
76664SOL    HW247603  10.891   2.075   5.646 -1.4524 -0.3252  0.3390
76665SOL     OW47604   3.770   2.455   4.795 -0.3268  0.5363 -0.1296
76665SOL    HW147605   3.771   2.547   4.823  0.0362  0.5416 -0.1683
76665SOL    HW247606   3.771   2.458   4.700  2.3235  0.4707 -0.1732
76666SOL     OW47607   2.089   0.442   5.552 -0.6180  0.6279 -0.0777
76666SOL    HW147608   2.033   0.368   5.528 -1.4337  1.4788 -0.8504
76666SOL    HW247609   2.105   0.488   5.470  0.0840  1.1731  0.3568
76667SOL     OW47610  11.762   5.994   9.797  0.4981  0.0765  0.7324
76667SOL    HW147611  11.846   5.949   9.811  1.5262  2.0853  1.3049
76667SOL    HW247612  11.729   5.956   9.716  1.3263 -1.6711  1.1561
76668SOL     OW47613   6.978  11.550   7.828  0.2934 -0.3595  0.5308
76668SOL    HW147614   6.918  11.557   7.903 -0.6582 -2.2398  0.0014
76668SOL    HW247615   6.987  11.640   7.796 -0.0355  0.3498  2.2955
76669SOL     OW47616   3.653   9.130  13.805 -0.2131 -0.4681 -0.2367
76669SOL    HW147617   3.593   9.113  13.878 -2.5521 -0.0639 -1.9622
76669SOL    HW247618   3.623   9.213  13.768  0.7958 -0.7448 -1.7657
76670SOL     OW47619  11.462   0.035  13.414  0.2926  0.1913 -0.1620
76670SOL    HW147620  11.557   0.046  13.419  0.2445  0.2315  0.9065
76670SOL    HW247621  11.431   0.118  13.379  0.6122  0.4116  0.0588
76671SOL     OW47622   9.181   1.984   5.257 -0.5625 -0.8952  0.4135
76671SOL    HW147623   9.235   1.981   5.336 -0.0492 -0.8576  0.0687
76671SOL    HW247624   9.095   2.013   5.287 -1.2145 -3.5835  1.4193
76672SOL     OW47625   5.143  10.905   1.273  0.4585 -0.1140 -0.0695
76672SOL    HW147626   5.191  10.981   1.241 -1.2974 -0.1484 -3.1629
76672SOL    HW247627   5.083  10.941   1.339  1.0309  0.8311 -0.0492
76673SOL     OW47628   0.701   7.313   6.476  0.6332 -0.0930 -0.1239
76673SOL    HW147629   0.778   7.369   6.487  0.2948  0.3116  0.2102
76673SOL    HW247630   0.713   7.242   6.540  1.7169 -1.1581 -1.4416
76674SOL     OW47631   9.216   8.247   1.275 -0.1050  0.3919 -0.0103
76674SOL    HW147632   9.294   8.278   1.228  0.1112  0.0598  0.1258
76674SOL    HW247633   9.143   8.267   1.216  0.0359  1.0820  0.0400
76675SOL     OW47634   5.199   0.377   0.462 -0.0068 -0.2422 -0.0956
76675SOL    HW147635   5.191   0.424   0.546 -0.7448  0.9224 -0.7780
76675SOL    HW247636   5.133   0.308   0.467 -2.0953  1.5945 -0.7843
76676SOL     OW47637   9.044  11.589   5.461  0.7521 -0.4097 -0.4904
76676SOL    HW147638   9.040  11.678   5.424  0.6799 -0.5305 -0.7796
76676SOL    HW247639   9.016  11.600   5.551  1.9267  0.0570 -0.1592
76677SOL     OW47640   1.533   1.346   7.490  0.0216 -0.1239  0.0699
76677SOL    HW147641   1.549   1.410   7.420 -0.3324 -1.1476 -0.9724
76677SOL    HW247642   1.539   1.261   7.447 -0.6063 -0.7741  1.2162
76678SOL     OW47643   8.965   5.487   1.448 -0.4295 -0.1557 -0.7001
76678SOL    HW147644   8.925   5.568   1.416 -1.4024 -0.2608  0.1922
76678SOL    HW247645   9.056   5.512   1.469 -1.0577  1.0720  0.7918
76679SOL     OW47646  10.120   2.742   2.884 -0.3819  0.2448 -0.0666
76679SOL    HW147647  10.061   2.677   2.921 -0.4571  0.3305 -0.0380
76679SOL    HW247648  10.096   2.746   2.791 -0.8502  0.7496  0.0728
76680SOL     OW47649   9.815   9.909   6.939 -0.1696  0.1073 -0.5038
76680SOL    HW147650   9.766   9.835   6.902  1.5804 -0.3965 -1.9592
76680SOL    HW247651   9.905   9.896   6.908  0.9813  0.8624  2.2160
76681SOL     OW47652   4.962   0.774   9.065  0.2724 -0.2306  0.9449
76681SOL    HW147653   5.048   0.739   9.043  0.9708  1.3547  1.0224
76681SOL    HW247654   4.978   0.834   9.138 -0.7157  0.8700  0.2957
76682SOL     OW47655   9.003  12.460   4.457 -0.0594 -0.2413  0.0481
76682SOL    HW147656   8.914  12.424   4.456 -0.1982  0.0835  0.7161
76682SOL    HW247657   9.046  12.416   4.384 -0.5913 -0.8496  0.0857
76683SOL     OW47658   6.800   1.892   3.278 -0.5718  0.0144 -0.2057
76683SOL    HW147659   6.840   1.811   3.309  0.7512  0.6515 -0.1942
76683SOL    HW247660   6.813   1.955   3.349 -1.9625  0.1475 -0.0416
76684SOL     OW47661   0.281  10.560   1.511 -0.7420 -0.0405 -0.3497
76684SOL    HW147662   0.329  10.638   1.484  0.8750  0.1772  2.6257
76684SOL    HW247663   0.330  10.487   1.473  0.7702  0.2813  0.8648
76685SOL     OW47664  11.325   4.987  13.975 -0.5280  0.4541  0.6037
76685SOL    HW147665  11.259   5.001  13.907  0.1020  1.3189  0.1512
76685SOL    HW247666  11.299   5.047  14.045  0.2190  1.3980  0.0908
76686SOL     OW47667  11.963   2.753  12.764 -0.1093  0.4949 -0.9092
76686SOL    HW147668  12.024   2.705  12.708  1.6837  1.3405  0.2419
76686SOL    HW247669  11.958   2.840  12.726 -0.3958  0.5074 -0.8480
76687SOL     OW47670   0.664  10.014   3.701  0.1917  0.0177 -0.1210
76687SOL    HW147671   0.627  10.025   3.789 -0.0798  0.9060 -0.3311
76687SOL    HW247672   0.719   9.937   3.707  2.3588  1.5870  1.5732
76688SOL     OW47673   3.745   3.545   4.865 -0.4213 -0.3641 -0.1088
76688SOL    HW147674   3.794   3.626   4.874 -0.7175 -0.1851 -0.0823
76688SOL    HW247675   3.808   3.481   4.832 -0.3168  0.0149 -0.6399
76689SOL     OW47676   6.305   7.714  10.314 -1.0208  0.1485  0.3027
76689SOL    HW147677   6.325   7.670  10.396  0.6458 -1.9512 -1.0920
76689SOL    HW247678   6.387   7.755  10.288 -1.2605  0.0177 -0.7180
76690SOL     OW47679  12.839   7.298   9.944 -0.3171 -0.3246 -0.0316
76690SOL    HW147680  12.877   7.353   9.875 -0.2221 -1.9878 -1.3646
76690SOL    HW247681  12.868   7.210   9.923 -2.2983 -1.2210  0.7728
76691SOL     OW47682  10.163  11.759   6.625 -0.1822 -0.2911  0.0202
76691SOL    HW147683  10.181  11.726   6.537 -0.6488  3.5095 -1.6753
76691SOL    HW247684  10.069  11.747   6.636 -0.4564  0.8441 -0.8357
76692SOL     OW47685   3.529   1.634  11.887  0.4659 -0.0314 -0.1091
76692SOL    HW147686   3.449   1.586  11.868  1.1022 -3.2471  3.8274
76692SOL    HW247687   3.507   1.690  11.961  0.5734  3.7520 -2.6808
76693SOL     OW47688   4.011  11.433   9.421 -0.2166 -0.2289  0.2117
76693SOL    HW147689   4.072  11.502   9.448  0.8441 -1.5681  1.4078
76693SOL    HW247690   4.018  11.367   9.490  0.6715 -2.6889 -2.1017
76694SOL     OW47691   1.020   9.072  12.883 -0.1816  0.3198 -0.9927
76694SOL    HW147692   0.964   9.077  12.961 -1.0152 -0.1809 -1.5398
76694SOL    HW247693   1.077   9.148  12.889 -0.0012  0.1031  0.2884
76695SOL     OW47694   3.414   1.175  12.255  0.3910  0.0856 -0.2946
76695SOL    HW147695   3.421   1.097  12.310  0.2300  0.0160 -0.3717
76695SOL    HW247696   3.475   1.158  12.183  0.7513  0.2660 -0.0332
76696SOL     OW47697   8.825   4.673   5.106  0.1945 -0.1398 -0.1240
76696SOL    HW147698   8.735   4.700   5.126  0.4926  2.5441 -1.7991
76696SOL    HW247699   8.816   4.584   5.073 -1.5252 -0.7759  1.8308
76697SOL     OW47700   0.445   5.425  11.101 -0.2062  0.2999 -0.2252
76697SOL    HW147701   0.457   5.346  11.047  0.6004  0.3526 -0.1424
76697SOL    HW247702   0.351   5.440  11.102 -0.4744 -1.2412  0.5702
76698SOL     OW47703   2.639   6.520   4.074  0.3286 -0.6389  0.6117
76698SOL    HW147704   2.571   6.485   4.016  0.2701 -0.3355  0.4918
76698SOL    HW247705   2.720   6.514   4.022 -0.0701  1.7443 -0.4234
76699SOL     OW47706   2.907   9.885   5.593 -0.8669 -0.0760 -1.0125
76699SOL    HW147707   2.877   9.912   5.680 -0.9278  2.3944 -1.7401
76699SOL    HW247708   2.986   9.936   5.578 -1.0828 -0.1657 -2.5898
76700SOL     OW47709  11.864   9.879   8.766  0.2824  0.0001 -0.1682
76700SOL    HW147710  11.845   9.951   8.826 -0.7085  0.2944 -0.8212
76700SOL    HW247711  11.813   9.898   8.687 -0.6015 -1.7850 -0.0883
76701SOL     OW47712  13.624   0.277   8.918  0.3059  0.2979  0.5239
76701SOL    HW147713  13.688   0.343   8.945 -0.1691  1.1282 -0.3230
76701SOL    HW247714  13.539   0.317   8.938 -0.0294 -1.7482  3.9321
76702SOL     OW47715   4.820   7.550  13.325  0.0492  0.1670 -0.1548
76702SOL    HW147716   4.844   7.525  13.414  1.9230 -0.0223 -0.6760
76702SOL    HW247717   4.791   7.641  13.332  1.2464  0.5085  0.4847
76703SOL     OW47718   0.799  12.444  13.123 -0.2033  0.2672  0.2825
76703SOL    HW147719   0.850  12.397  13.189 -0.2178  0.0888  0.1683
76703SOL    HW247720   0.724  12.479  13.171 -0.5488 -0.3956  0.2453
76704SOL     OW47721   0.695   3.921  13.766 -0.1489 -0.2673 -0.0204
76704SOL    HW147722   0.688   3.899  13.673  1.1627 -1.3140  0.1078
76704SOL    HW247723   0.664   4.012  13.771 -2.6048 -0.9542 -1.0641
76705SOL     OW47724   6.487   3.835  12.235  0.0290 -0.2457  0.2123
76705SOL    HW147725   6.546   3.829  12.160 -1.8482 -1.8667 -1.2479
76705SOL    HW247726   6.428   3.907  12.214 -0.6862 -0.8924 -0.0632
76706SOL     OW47727  10.670   4.124   8.382  0.3389  0.0192  0.0260
76706SOL    HW147728  10.625   4.109   8.298 -2.5440 -0.3525  1.5083
76706SOL    HW247729  10.682   4.037   8.419  2.5585  0.0981 -0.3735
76707SOL     OW47730  12.374   4.488   0.961  0.3122  0.3527  0.0954
76707SOL    HW147731  12.441   4.488   0.893  0.3740 -1.1217  0.1173
76707SOL    HW247732  12.292   4.496   0.914  0.2854 -1.6956 -0.2943
76708SOL     OW47733   4.720  12.306   5.363 -0.7313  0.5707  0.1581
76708SOL    HW147734   4.766  12.337   5.441 -0.7580  0.2162  0.3160
76708SOL    HW247735   4.693  12.217   5.385  0.8179 -0.1879 -0.9171
76709SOL     OW47736   1.915   6.974   3.651 -0.0222 -0.0016 -0.2114
76709SOL    HW147737   1.901   7.032   3.576 -0.3060  0.2983  0.0664
76709SOL    HW247738   1.827   6.946   3.676  0.1104 -0.5060 -0.3046
76710SOL     OW47739   8.722   1.383  12.332  0.5702 -0.2019  0.1962
76710SOL    HW147740   8.650   1.342  12.379  1.5318 -2.9989 -0.5861
76710SOL    HW247741   8.776   1.423  12.400 -0.6986  0.2915  0.9386
76711SOL     OW47742   8.585   9.869   3.926  0.1103 -0.0160 -0.5130
76711SOL    HW147743   8.586   9.941   3.863 -0.1988  1.4764  1.1158
76711SOL    HW247744   8.599   9.911   4.011  1.2035 -2.0412  0.3748
76712SOL     OW47745   0.248  13.914   3.824  0.3874  0.4822 -0.1834
76712SOL    HW147746   0.282  13.896   3.912  0.4575  1.7016  0.0631
76712SOL    HW247747   0.250  14.010   3.817  1.0802  0.3903 -1.7827
76713SOL     OW47748   1.798   7.874   6.782  0.0091 -0.1114 -0.1503
76713SOL    HW147749   1.783   7.871   6.877 -1.7510  0.0075 -0.3895
76713SOL    HW247750   1.818   7.784   6.758  2.5920  0.1838  0.5976
76714SOL     OW47751   7.619   8.524   2.512 -0.2780 -0.2174 -0.6816
76714SOL    HW147752   7.616   8.429   2.511 -0.4600 -0.2188 -0.2754
76714SOL    HW247753   7.538   8.550   2.556  0.3991  0.0761  0.4377
76715SOL     OW47754   9.008   1.624   7.285 -0.9427  0.2035 -0.1120
76715SOL    HW147755   9.033   1.716   7.286 -1.6645  0.4311  2.1965
76715SOL    HW247756   8.921   1.623   7.245 -1.7687  0.8100  1.6074
76716SOL     OW47757   5.748   0.469   9.682 -0.4415  0.3151 -0.6337
76716SOL    HW147758   5.741   0.396   9.620  0.9271 -0.1283 -0.2887
76716SOL    HW247759   5.676   0.455   9.743 -0.9724 -0.0171 -1.3236
76717SOL     OW47760  10.556   3.732  13.808  0.1749  0.2369 -0.2725
76717SOL    HW147761  10.528   3.653  13.760 -1.7937  1.4182 -1.1878
76717SOL    HW247762  10.647   3.744  13.783 -0.0856 -0.6126 -1.7671
76718SOL     OW47763   2.379   4.944  10.807 -0.1192  0.9959  0.4007
76718SOL    HW147764   2.404   5.013  10.745  0.1515  0.1901 -0.4192
76718SOL    HW247765   2.297   4.910  10.772  1.3684 -1.2863 -1.1230
76719SOL     OW47766   8.147   5.759   2.810 -0.0479 -0.1263 -0.0888
76719SOL    HW147767   8.190   5.809   2.740 -2.0417  1.3732 -0.3140
76719SOL    HW247768   8.137   5.671   2.772 -2.7041  1.0692 -2.5483
76720SOL     OW47769   5.383   7.626   2.752  0.5716 -0.0433 -0.4190
76720SOL    HW147770   5.292   7.652   2.766  0.8119  0.5221  0.1438
76720SOL    HW247771   5.378   7.557   2.685 -0.5242 -2.0559  1.6094
76721SOL     OW47772   5.891   7.183   2.849 -0.1781  0.0013  0.1716
76721SOL    HW147773   5.954   7.114   2.870 -0.0091 -0.3034 -1.2229
76721SOL    HW247774   5.819   7.170   2.911  0.9714  0.1733  1.6087
76722SOL     OW47775   4.997   2.316   3.990  0.0180  0.0244  0.1723
76722SOL    HW147776   4.952   2.282   4.068 -0.4270  1.2873  0.4838
76722SOL    HW247777   4.927   2.355   3.937  0.5896  0.9491  0.0883
76723SOL     OW47778  13.855   1.882  10.609  0.2423  0.5687 -0.6598
76723SOL    HW147779  13.767   1.849  10.591  0.8041 -0.2194 -2.1258
76723SOL    HW247780  13.845   1.934  10.689 -1.2443 -0.7455  0.0565
76724SOL     OW47781   6.339   2.430  10.467 -0.2021 -0.4032 -0.4856
76724SOL    HW147782   6.244   2.442  10.469 -0.1461  0.1416 -0.8369
76724SOL    HW247783   6.363   2.449  10.376  0.0741 -1.8955 -0.7578
76725SOL     OW47784  12.756   3.340   1.807 -0.5661  0.1114  0.1146
76725SOL    HW147785  12.820   3.342   1.878 -1.2078 -1.3169  0.7749
76725SOL    HW247786  12.708   3.422   1.815  2.6129  2.3984 -1.8492
76726SOL     OW47787   0.937   7.338   0.949 -0.3971 -0.0110  0.5768
76726SOL    HW147788   0.998   7.411   0.940  0.0423 -0.2801  1.2314
76726SOL    HW247789   0.942   7.315   1.042 -1.6365  0.0720  0.6760
76727SOL     OW47790   1.615   6.512   3.924  0.4746  0.0876  0.4450
76727SOL    HW147791   1.586   6.587   3.976 -0.3298 -0.0469  0.2058
76727SOL    HW247792   1.689   6.544   3.873  2.0535 -0.0772  2.5147
76728SOL     OW47793   4.220  10.890   3.156 -0.4320  0.5698 -0.5489
76728SOL    HW147794   4.214  10.887   3.061 -1.4896 -0.7597 -0.4584
76728SOL    HW247795   4.314  10.899   3.174 -0.2612  1.3259 -1.7023
76729SOL     OW47796   1.344   3.023   6.955  0.0356  0.1278 -0.5445
76729SOL    HW147797   1.433   3.042   6.985  1.4268 -1.6331 -3.2197
76729SOL    HW247798   1.288   3.079   7.009  2.7225  1.1420  1.3683
76730SOL     OW47799   0.243   1.824  13.041  0.1382  0.8113  0.1415
76730SOL    HW147800   0.288   1.908  13.034  0.4794  0.8238  2.0990
76730SOL    HW247801   0.270   1.776  12.962 -0.3195  2.6111 -1.1711
76731SOL     OW47802   7.673  12.649  10.656  0.0757 -0.3292 -0.4436
76731SOL    HW147803   7.688  12.671  10.564 -1.1487 -0.1988 -0.6401
76731SOL    HW247804   7.586  12.685  10.675 -0.1843 -1.3553  0.4280
76732SOL     OW47805  13.216  10.857   2.251  0.3912 -0.2368 -0.5372
76732SOL    HW147806  13.129  10.845   2.288 -0.1310  1.2366 -1.2011
76732SOL    HW247807  13.242  10.945   2.279  0.7446  0.2061 -2.1259
76733SOL     OW47808   3.009  11.237  13.099  0.3181  1.2936 -0.0729
76733SOL    HW147809   2.966  11.155  13.122  1.5023  0.6779  0.0102
76733SOL    HW247810   2.945  11.283  13.044 -0.7847  0.8184  0.7730
76734SOL     OW47811  10.160   0.854  10.745 -0.0340  0.1003 -0.3618
76734SOL    HW147812  10.230   0.820  10.801 -1.6170 -0.3451  1.4764
76734SOL    HW247813  10.164   0.801  10.666 -0.3258 -2.2245  1.0710
76735SOL     OW47814   2.447   5.213  13.256 -0.3829 -0.0732 -0.1334
76735SOL    HW147815   2.489   5.190  13.339  0.2519  1.3975 -0.0148
76735SOL    HW247816   2.358   5.179  13.264 -0.6440  0.8704  1.5794
76736SOL     OW47817   9.881  11.312   5.385  0.1168  0.0187 -0.2200
76736SOL    HW147818   9.796  11.354   5.373  0.0986  0.1732  0.4197
76736SOL    HW247819   9.880  11.280   5.476  1.1915  1.0759  0.1986
76737SOL     OW47820  11.966   7.858   9.665  0.0093 -0.7165 -0.7820
76737SOL    HW147821  11.994   7.799   9.596  3.1751  1.6589 -1.7381
76737SOL    HW247822  12.022   7.838   9.740  0.7510  0.6069 -0.9418
76738SOL     OW47823   2.966  12.777   7.128 -0.1709  0.4799  0.3263
76738SOL    HW147824   2.945  12.727   7.207 -0.6100  1.4952  0.8834
76738SOL    HW247825   3.035  12.838   7.155 -0.0890  0.6099 -0.1611
76739SOL     OW47826  11.081   4.994  12.509 -0.1647 -0.3239 -0.5242
76739SOL    HW147827  11.151   4.976  12.445 -1.0139 -1.8848 -1.0584
76739SOL    HW247828  11.000   4.986  12.459 -0.7908  0.1296  0.3968
76740SOL     OW47829   9.290   3.563   8.825  0.2841 -0.0046 -0.2147
76740SOL    HW147830   9.323   3.560   8.915  0.8740 -0.1214 -0.4371
76740SOL    HW247831   9.361   3.600   8.774 -0.0493  0.0525 -0.6444
76741SOL     OW47832   2.549   8.292   9.609 -0.1427 -0.6850 -0.2411
76741SOL    HW147833   2.628   8.310   9.660 -0.2855  1.1238 -0.5916
76741SOL    HW247834   2.573   8.316   9.520 -0.8250 -0.9707 -0.5048
76742SOL     OW47835   3.783   8.826   3.089  0.5647  0.4839 -0.1944
76742SOL    HW147836   3.808   8.829   3.181  0.0023  3.4076 -0.0492
76742SOL    HW247837   3.689   8.812   3.090  0.6970 -0.5280 -0.4065
76743SOL     OW47838   1.901   7.299  13.011  0.2827  0.0795  0.1270
76743SOL    HW147839   1.984   7.264  13.044 -0.0740 -0.0642  0.8877
76743SOL    HW247840   1.909   7.294  12.916  1.2603  0.3335  0.1868
76744SOL     OW47841   2.187  12.900  12.781 -0.2451  0.4764 -0.0992
76744SOL    HW147842   2.113  12.840  12.772 -0.7296  1.0931 -0.2885
76744SOL    HW247843   2.185  12.953  12.701 -0.5954  1.5850  0.6170
76745SOL     OW47844   3.072   4.579  11.694  0.2575  0.0261  0.3969
76745SOL    HW147845   3.154   4.628  11.687 -0.0417  0.8566  2.0882
76745SOL    HW247846   3.016   4.617  11.627  0.6576  0.7143  0.4393
76746SOL     OW47847   5.593  11.468   1.100  0.2233 -0.3458 -0.4021
76746SOL    HW147848   5.579  11.419   1.019  0.6142 -1.5778  0.2386
76746SOL    HW247849   5.555  11.554   1.084 -1.6936 -1.2797 -1.1282
76747SOL     OW47850  13.738   9.034   3.049 -0.9337  0.2583  0.1252
76747SOL    HW147851  13.748   8.958   2.992  0.6858  0.2403  0.4116
76747SOL    HW247852  13.805   9.095   3.021 -0.9498  0.7845  1.1656
76748SOL     OW47853  13.119  10.979   9.183  0.3920  0.6573  0.3537
76748SOL    HW147854  13.101  11.059   9.134  0.5485  1.1060  1.0170
76748SOL    HW247855  13.036  10.957   9.224 -0.2916 -0.8460 -1.6851
76749SOL     OW47856  14.090  14.088   6.059 -0.4131 -0.1611  0.1624
76749SOL    HW147857  14.130  14.161   6.013 -0.9589  0.3457  0.4846
76749SOL    HW247858  14.034  14.046   5.994 -1.6868  0.9380  0.4959
76750SOL     OW47859  10.618   0.175   4.029 -0.1846 -0.1298  0.1350
76750SOL    HW147860  10.712   0.171   4.049 -0.3931 -1.5995  0.9669
76750SOL    HW247861  10.596   0.268   4.034  1.0133  0.1263  0.9833
76751SOL     OW47862   8.011   6.417  12.507  0.2819 -0.0492 -0.2182
76751SOL    HW147863   8.061   6.355  12.560 -0.5866  0.0791  0.7830
76751SOL    HW247864   8.072   6.489  12.491  1.1758 -0.9647 -1.0670
76752SOL     OW47865   6.107   6.351   6.235  0.0532  0.1502 -0.3967
76752SOL    HW147866   6.106   6.295   6.158 -0.9672  0.4800 -0.6342
76752SOL    HW247867   6.104   6.440   6.201 -0.6645  0.2951  0.0166
76753SOL     OW47868   9.915  12.583   0.692 -0.0542 -0.8101 -0.1635
76753SOL    HW147869   9.963  12.564   0.772  0.7704 -0.3553 -0.5404
76753SOL    HW247870   9.974  12.556   0.621 -0.9639 -1.6670 -0.6258
76754SOL     OW47871   8.651   0.695   1.436 -0.2878 -0.5380 -0.1686
76754SOL    HW147872   8.581   0.742   1.481 -0.1778  0.0561 -0.6016
76754SOL    HW247873   8.612   0.612   1.409 -1.1831  0.2581 -1.4217
76755SOL     OW47874   5.758   5.336  13.162 -0.2761 -0.0960 -0.2557
76755SOL    HW147875   5.713   5.261  13.201  0.8979 -0.8574 -0.3181
76755SOL    HW247876   5.785   5.390  13.236 -0.3739 -0.1841 -0.1566
76756SOL     OW47877   4.057   3.654   4.670 -0.0532  0.2665 -0.3362
76756SOL    HW147878   3.966   3.681   4.660 -0.0472  1.1902  1.6540
76756SOL    HW247879   4.080   3.614   4.586 -1.4492  2.4369 -1.8481
76757SOL     OW47880   3.829   8.160  13.887 -0.1873 -0.2115  0.2346
76757SOL    HW147881   3.733   8.156  13.879 -0.1189 -0.1132 -0.7658
76757SOL    HW247882   3.845   8.241  13.937 -0.6246 -0.2586  0.4576
76758SOL     OW47883   2.336  13.127  11.851  0.2690 -0.4287 -0.2489
76758SOL    HW147884   2.420  13.168  11.870 -0.1197 -0.1388  0.9080
76758SOL    HW247885   2.305  13.171  11.771  1.7133 -1.3368 -1.3657
76759SOL     OW47886  12.079   6.619   2.006 -0.0483 -0.0431  0.7618
76759SOL    HW147887  12.077   6.545   2.066 -1.6886 -0.4296  0.2819
76759SOL    HW247888  11.989   6.627   1.974  0.4142  1.2160 -0.3451
76760SOL     OW47889   7.211   0.012  10.993  0.2476 -0.4640  0.4338
76760SOL    HW147890   7.270  -0.034  10.933  1.3194  0.3780  0.8104
76760SOL    HW247891   7.261   0.020  11.074  0.1883  1.5261  0.3175
76761SOL     OW47892   4.698   5.678  12.416 -0.0904 -0.4440  0.5070
76761SOL    HW147893   4.643   5.599  12.410 -1.2723  0.2957  1.1804
76761SOL    HW247894   4.709   5.707  12.326 -0.8317 -0.6024  0.3590
76762SOL     OW47895   4.559   1.479  12.570  0.2593  0.0625  0.1409
76762SOL    HW147896   4.630   1.534  12.604 -1.5846  1.2960  2.3147
76762SOL    HW247897   4.571   1.395  12.613  1.9156 -0.6753 -1.6291
76763SOL     OW47898  10.463  13.356   0.760 -0.8808 -0.0925  0.0163
76763SOL    HW147899  10.466  13.431   0.700 -0.8886 -1.3015 -1.5752
76763SOL    HW247900  10.379  13.365   0.805  0.3433  2.3957  2.0508
76764SOL     OW47901  12.543   5.415   3.163  0.0837 -0.0361  0.4480
76764SOL    HW147902  12.522   5.492   3.216  0.6041 -0.1076  0.7650
76764SOL    HW247903  12.483   5.348   3.194  1.2364 -0.4490  1.8482
76765SOL     OW47904   6.905   1.156  11.428 -0.5838 -0.0267  0.0406
76765SOL    HW147905   6.946   1.089  11.484 -1.4851  0.2139  1.0333
76765SOL    HW247906   6.929   1.131  11.339 -0.5749 -1.4644  0.4164
76766SOL     OW47907   7.709   2.277   4.663 -0.2231  0.1156 -0.5254
76766SOL    HW147908   7.744   2.209   4.605  0.4383 -0.0061 -0.0078
76766SOL    HW247909   7.762   2.355   4.643 -0.1185  0.1230 -0.2209
76767SOL     OW47910  11.152   2.339  10.307  0.2060 -0.0029  0.0634
76767SOL    HW147911  11.220   2.407  10.306 -1.4557  1.7457  0.3581
76767SOL    HW247912  11.164   2.292  10.225  1.8445  0.1646  0.1724
76768SOL     OW47913   6.592   2.360   0.531  0.0541 -0.0192 -0.8894
76768SOL    HW147914   6.624   2.361   0.441  1.2082  0.0380 -0.4864
76768SOL    HW247915   6.508   2.313   0.526 -0.9419  1.7926 -2.3122
76769SOL     OW47916  12.406   9.662   8.234 -0.4368 -0.5758 -0.3718
76769SOL    HW147917  12.386   9.587   8.179 -1.9319 -0.9408  0.6001
76769SOL    HW247918  12.445   9.624   8.313 -1.1083 -0.3469  0.0819
76770SOL     OW47919  10.953   9.719   9.727  0.4328 -0.6485 -0.4618
76770SOL    HW147920  10.907   9.794   9.689 -0.0859 -1.1346 -0.8081
76770SOL    HW247921  10.946   9.650   9.661 -0.0926 -1.3634  0.3272
76771SOL     OW47922   5.650   5.938  12.170  0.0152 -0.2346  0.3632
76771SOL    HW147923   5.741   5.940  12.197  0.3407 -3.6299 -0.0108
76771SOL    HW247924   5.605   5.890  12.241 -1.0430 -0.4189 -0.4051
76772SOL     OW47925   0.669  12.430   1.689 -0.1882  0.5345 -0.5169
76772SOL    HW147926   0.611  12.505   1.673  1.3980  1.7605 -0.7988
76772SOL    HW247927   0.667  12.418   1.784  0.3764  1.6519 -0.3534
76773SOL     OW47928   0.378   7.013   5.187 -0.2815  0.3796 -0.2000
76773SOL    HW147929   0.300   7.066   5.168  0.1950  1.0277 -0.4017
76773SOL    HW247930   0.374   6.997   5.281  0.3227  2.0449  0.1440
76774SOL     OW47931  12.642  13.522  10.494 -0.0699  0.5563 -0.4006
76774SOL    HW147932  12.711  13.514  10.560  0.7159  1.2776 -1.1163
76774SOL    HW247933  12.661  13.452  10.431 -0.1204  0.6165 -0.4819
76775SOL     OW47934   4.058   3.817  10.295 -1.0397  0.4203  0.1328
76775SOL    HW147935   4.103   3.856  10.370  0.8053 -2.3968  0.6408
76775SOL    HW247936   3.983   3.771  10.332 -0.8156  0.0288  0.1063
76776SOL     OW47937  12.635   0.777   5.959 -0.9157  0.3911 -0.0711
76776SOL    HW147938  12.619   0.707   6.022  0.6109 -0.0264 -0.1114
76776SOL    HW247939  12.725   0.763   5.929 -0.7825  2.0056 -0.5486
76777SOL     OW47940   4.204   2.759   3.821  0.2810 -0.2495  0.0620
76777SOL    HW147941   4.202   2.707   3.741  2.6341 -2.1799  1.1045
76777SOL    HW247942   4.117   2.748   3.859  0.0514 -1.7170 -0.7993
76778SOL     OW47943  10.662   4.700   8.367  0.1895 -0.1866  0.2750
76778SOL    HW147944  10.671   4.610   8.401  0.6068 -0.6855 -1.0934
76778SOL    HW247945  10.712   4.699   8.285  0.9184  1.5456  0.6692
76779SOL     OW47946  13.446   8.480   5.009  0.2560  0.1055 -0.0710
76779SOL    HW147947  13.376   8.521   4.958 -0.4712 -0.3331  0.5602
76779SOL    HW247948  13.434   8.386   4.997  0.0798 -0.0078  0.8919
76780SOL     OW47949   1.069   5.745   7.248  0.1906  0.4668  0.3839
76780SOL    HW147950   1.108   5.695   7.176 -2.1321  0.2521 -0.8287
76780SOL    HW247951   1.126   5.727   7.323  0.4506 -2.5897 -0.4074
76781SOL     OW47952   4.508   7.804   4.776 -0.3255  0.1067 -0.0589
76781SOL    HW147953   4.517   7.723   4.726  0.4750 -1.2668  2.1210
76781SOL    HW247954   4.590   7.810   4.826 -0.8818  1.6167  0.7235
76782SOL     OW47955  13.769   2.250  11.671 -0.4663  0.0350 -0.1884
76782SOL    HW147956  13.691   2.199  11.693  0.0915 -0.9705 -0.5185
76782SOL    HW247957  13.734   2.324  11.621 -1.2143 -0.4060 -0.3423
76783SOL     OW47958  13.113   0.895   3.312  0.1067  0.2146 -0.3230
76783SOL    HW147959  13.175   0.967   3.302 -1.1956  1.7904  1.8939
76783SOL    HW247960  13.138   0.853   3.395  0.0827 -1.1493 -0.9718
76784SOL     OW47961  10.172  10.219   9.011 -0.1912 -0.4806  0.3090
76784SOL    HW147962  10.196  10.292   8.954 -0.3871  0.3772  1.2938
76784SOL    HW247963  10.251  10.166   9.017 -0.1003 -0.4496 -0.5597
76785SOL     OW47964   4.054   6.989  10.337  0.1256  0.2941  0.6091
76785SOL    HW147965   3.975   7.042  10.323  0.3318  0.1693 -1.1886
76785SOL    HW247966   4.121   7.032  10.285  1.3741  0.5606  2.3466
76786SOL     OW47967   2.881   6.057   2.643 -0.2214 -0.0492  0.1539
76786SOL    HW147968   2.971   6.035   2.623  0.5867  1.3984  1.8383
76786SOL    HW247969   2.868   6.144   2.604 -0.6377  0.0506  0.4963
76787SOL     OW47970   9.407  11.683  12.531 -0.1205 -0.3663  0.1165
76787SOL    HW147971   9.376  11.740  12.461  0.9586  1.9010  1.3906
76787SOL    HW247972   9.499  11.705  12.542 -0.0180 -1.3770  1.5897
76788SOL     OW47973  12.614   8.446   4.815 -0.1637 -0.1685 -0.1181
76788SOL    HW147974  12.528   8.462   4.853  0.7080  1.0130  1.4649
76788SOL    HW247975  12.669   8.420   4.889  0.9371 -0.5394 -1.0341
76789SOL     OW47976  12.867  11.547   4.823  0.3620  0.2441  0.3408
76789SOL    HW147977  12.930  11.610   4.788  0.1977  0.5334  0.5553
76789SOL    HW247978  12.913  11.463   4.822  0.6771  0.4150  0.3033
76790SOL     OW47979   2.769   1.949   5.396  0.4807  0.0248 -0.2084
76790SOL    HW147980   2.768   2.036   5.435 -0.6111  1.0070 -2.2179
76790SOL    HW247981   2.789   1.890   5.468 -1.0595  1.7082  1.7411
76791SOL     OW47982   1.323   3.643   2.244 -0.2272  0.2495 -0.5819
76791SOL    HW147983   1.288   3.649   2.333  1.2196 -1.2425  0.1429
76791SOL    HW247984   1.326   3.549   2.225  0.9137  0.4535 -1.5822
76792SOL     OW47985  12.385  12.366   6.605 -0.0917  0.3558  0.1614
76792SOL    HW147986  12.440  12.304   6.557 -0.4366  1.0406 -1.1728
76792SOL    HW247987  12.436  12.389   6.682  0.6571 -0.4864 -0.0680
76793SOL     OW47988   6.916   6.881   3.973 -0.6209  0.3104 -0.1490
76793SOL    HW147989   6.964   6.820   4.029 -2.5069 -0.6401  0.5157
76793SOL    HW247990   6.870   6.939   4.034  0.6950  2.1379 -0.7706
76794SOL     OW47991   9.862  13.594   5.819 -0.3386 -0.2474  0.1874
76794SOL    HW147992   9.950  13.589   5.857  0.4727 -0.0907 -1.5657
76794SOL    HW247993   9.824  13.672   5.860  1.1311  0.9048 -0.5426
76795SOL     OW47994   4.205   8.177  10.683  0.0148 -0.1599 -0.0424
76795SOL    HW147995   4.188   8.196  10.590  1.1964 -0.8777 -0.4200
76795SOL    HW247996   4.131   8.122  10.710 -0.7167  0.6440 -0.3413
76796SOL     OW47997  13.070  10.834  12.571 -0.5702  0.1693  0.0817
76796SOL    HW147998  13.078  10.739  12.572 -0.6363  0.1362 -1.2105
76796SOL    HW247999  13.159  10.866  12.556 -0.7707  0.2407 -1.0559
76797SOL     OW48000   5.214  10.296  13.909 -0.2836  0.2040  0.2453
76797SOL    HW148001   5.299  10.266  13.878 -0.0513 -1.1070  2.0105
76797SOL    HW248002   5.230  10.326  13.998 -1.3332  1.7874 -0.0505
76798SOL     OW48003   5.630   3.272  10.993 -0.7040  0.3054  0.5863
76798SOL    HW148004   5.689   3.332  10.946 -0.2013  0.3790  1.2982
76798SOL    HW248005   5.619   3.198  10.933  1.4362 -0.4944  1.0757
76799SOL     OW48006   8.105   0.072   4.636  0.3022 -0.0672 -0.1390
76799SOL    HW148007   8.174   0.123   4.593  0.6563 -0.1233  0.3568
76799SOL    HW248008   8.150  -0.003   4.674  0.1137  0.3397  0.9272
76800SOL     OW48009   6.998   9.227   0.335 -0.0729 -0.2338  0.0063
76800SOL    HW148010   6.947   9.155   0.372  1.6676 -0.4670  2.1408
76800SOL    HW248011   7.022   9.196   0.248  0.5551 -2.2273  0.8374
76801SOL     OW48012  12.705   4.375   9.189  0.2437 -0.3589 -1.0360
76801SOL    HW148013  12.759   4.425   9.127 -1.7038  2.6364 -0.5259
76801SOL    HW248014  12.765   4.356   9.262  1.1528  1.1469 -1.3360
76802SOL     OW48015   4.643  13.657   0.728 -0.1120 -0.5875  0.0426
76802SOL    HW148016   4.681  13.642   0.815 -0.6100 -0.0830  0.3516
76802SOL    HW248017   4.712  13.700   0.679 -0.3427  0.5457  0.6779
76803SOL     OW48018   4.204   9.586   0.811  0.5314 -0.5761  0.4241
76803SOL    HW148019   4.261   9.549   0.743  0.1626 -2.5477  1.1573
76803SOL    HW248020   4.145   9.644   0.763  1.8630  0.0018 -0.5995
76804SOL     OW48021   1.041  13.662  12.932 -0.1396 -0.5726 -0.4591
76804SOL    HW148022   1.097  13.593  12.968  1.1734 -0.3327 -1.9062
76804SOL    HW248023   1.031  13.638  12.840 -0.1166  0.8628 -0.8563
76805SOL     OW48024   4.897  12.737   9.270  0.0833 -0.3293 -0.5880
76805SOL    HW148025   4.902  12.699   9.182 -0.5677 -1.7005 -0.0592
76805SOL    HW248026   4.974  12.793   9.276  2.9963 -3.9822 -0.3138
76806SOL     OW48027   0.497   5.566   2.876  0.3166 -0.8796 -0.0455
76806SOL    HW148028   0.578   5.595   2.919  0.7879 -0.1303 -1.3790
76806SOL    HW248029   0.427   5.592   2.936  1.0307 -1.2872  0.9963
76807SOL     OW48030  11.964   3.003   2.407 -0.0883  0.1634  0.5357
76807SOL    HW148031  11.895   3.040   2.352 -0.3229  1.0708  1.4143
76807SOL    HW248032  12.006   3.079   2.447  1.0484 -0.4069  0.4678
76808SOL     OW48033   9.887  11.368   1.101 -0.3749 -0.0168  0.2422
76808SOL    HW148034   9.973  11.389   1.063 -0.8001 -0.6136 -1.1377
76808SOL    HW248035   9.906  11.304   1.170  0.2917 -0.1748 -0.0760
76809SOL     OW48036   4.592   3.952   3.982 -0.4624 -0.9991  0.0510
76809SOL    HW148037   4.641   3.970   4.062 -0.5931  0.4511 -0.1683
76809SOL    HW248038   4.609   3.859   3.964  1.1176 -0.8692  0.7055
76810SOL     OW48039   2.826   1.415   0.495 -0.1934  0.7637 -0.1576
76810SOL    HW148040   2.759   1.382   0.435  0.3844 -0.5687 -0.1005
76810SOL    HW248041   2.870   1.485   0.446 -0.7187  0.7183 -0.7062
76811SOL     OW48042  10.741  12.325   9.995 -0.3036  0.0797 -0.3286
76811SOL    HW148043  10.796  12.377   9.937  0.2123  0.5095  0.5183
76811SOL    HW248044  10.786  12.241  10.003  0.1533  0.3720  0.2304
76812SOL     OW48045   8.504   4.433   5.328 -0.0419 -0.3474  0.1839
76812SOL    HW148046   8.477   4.366   5.391  0.5967 -1.1382 -0.3658
76812SOL    HW248047   8.600   4.434   5.333  0.0383 -0.6405 -0.9875
76813SOL     OW48048   7.244   8.711  12.521 -0.1379 -0.2536 -0.1421
76813SOL    HW148049   7.223   8.720  12.614 -0.4265 -1.0985 -0.1098
76813SOL    HW248050   7.299   8.633  12.516  0.3386  0.1015 -0.6236
76814SOL     OW48051   9.112   5.628   2.743  0.0525  0.0829 -0.5992
76814SOL    HW148052   9.024   5.605   2.773 -0.6843  0.0881 -2.5881
76814SOL    HW248053   9.100   5.709   2.693  1.2599  0.3253 -0.5160
76815SOL     OW48054  11.822   6.266  11.531 -0.1454 -0.0382  0.0954
76815SOL    HW148055  11.904   6.314  11.537 -0.6546  0.9721 -0.8150
76815SOL    HW248056  11.764   6.322  11.480 -0.3485 -2.1695 -2.2043
76816SOL     OW48057   6.271   5.977   4.848 -0.1801 -0.1448  0.3387
76816SOL    HW148058   6.188   5.994   4.892  0.6534  0.9109  1.5823
76816SOL    HW248059   6.254   5.998   4.756 -1.3186 -0.0943  0.5483
76817SOL     OW48060   6.994  13.977  11.976 -0.7261  0.2169  0.3288
76817SOL    HW148061   7.087  13.961  11.993 -0.4010  0.2718 -1.2661
76817SOL    HW248062   6.952  13.893  11.995 -0.1139 -0.2896 -0.5231
76818SOL     OW48063   6.375   3.942  13.684  0.0406  0.2214 -0.4974
76818SOL    HW148064   6.302   3.993  13.718  0.6966  0.7306  0.1992
76818SOL    HW248065   6.409   3.895  13.760 -1.3274 -2.2969 -1.3576
76819SOL     OW48066  12.876   5.541   9.361 -0.3973  0.5163 -0.5064
76819SOL    HW148067  12.890   5.612   9.298 -0.2212  0.1510 -0.8849
76819SOL    HW248068  12.961   5.499   9.370 -0.8439 -0.6599 -1.5313
76820SOL     OW48069  13.686  11.788   5.380  0.3835 -0.4627  0.0960
76820SOL    HW148070  13.763  11.840   5.360 -0.7754  1.0066 -0.7674
76820SOL    HW248071  13.683  11.721   5.311 -0.4345  1.0309 -1.4016
76821SOL     OW48072  12.928   3.039   2.039  0.3363  0.1500 -0.1896
76821SOL    HW148073  12.989   3.025   1.967  0.0358 -0.3720 -0.3493
76821SOL    HW248074  12.964   2.987   2.111 -0.0929 -0.4381 -0.3887
76822SOL     OW48075   9.692   4.304   1.540  0.6154 -0.1898 -0.2594
76822SOL    HW148076   9.663   4.277   1.627  1.5609  0.4241  0.2610
76822SOL    HW248077   9.774   4.350   1.555  1.4900 -1.2416 -1.6123
76823SOL     OW48078   7.901   3.124   7.485 -0.1362 -0.4674 -0.0550
76823SOL    HW148079   7.986   3.080   7.486  0.3185  0.3048 -1.7176
76823SOL    HW248080   7.881   3.135   7.392 -1.0008  1.3324  0.3062
76824SOL     OW48081  12.409   7.892   8.996 -0.3088 -0.9322 -0.1845
76824SOL    HW148082  12.446   7.934   8.918 -1.6104  0.6437 -0.0066
76824SOL    HW248083  12.456   7.932   9.069 -0.2140 -1.2226 -0.0853
76825SOL     OW48084   2.576  10.720   1.041  0.6338 -0.4314  0.3226
76825SOL    HW148085   2.564  10.770   0.960  1.9016 -2.5549 -1.3052
76825SOL    HW248086   2.647  10.765   1.087  3.6299 -2.0029 -2.3840
76826SOL     OW48087   3.765  10.655   8.766 -0.1744  0.4993 -0.1779
76826SOL    HW148088   3.776  10.621   8.855  2.2681  1.4944 -0.0360
76826SOL    HW248089   3.771  10.750   8.775 -2.0207  0.7683 -1.1925
76827SOL     OW48090  12.333  11.986   2.137 -0.0618 -0.5555  0.1998
76827SOL    HW148091  12.370  12.066   2.174 -0.1898 -0.3587 -0.0959
76827SOL    HW248092  12.279  11.950   2.207 -2.0733  0.9626 -0.4764
76828SOL     OW48093   6.782  10.733  13.751  0.1167 -0.7027  0.3975
76828SOL    HW148094   6.749  10.744  13.840  2.0059 -0.5788  1.1326
76828SOL    HW248095   6.705  10.711  13.699 -1.0501 -0.6306  2.0286
76829SOL     OW48096   0.609  11.727   6.232  0.2495 -0.1594 -0.5622
76829SOL    HW148097   0.631  11.797   6.294 -1.4528  0.4623 -0.6053
76829SOL    HW248098   0.543  11.675   6.277  0.0405 -0.5520 -1.3137
76830SOL     OW48099   1.933   0.286   9.594 -0.4180 -0.2715  0.2530
76830SOL    HW148100   1.846   0.266   9.559 -0.4023 -1.3026  0.7498
76830SOL    HW248101   1.973   0.200   9.610  0.1411  0.1684  1.3655
76831SOL     OW48102   0.785   9.082   0.459  0.0854  0.3796  0.2645
76831SOL    HW148103   0.741   9.125   0.385 -1.1142 -1.2866 -0.0409
76831SOL    HW248104   0.739   9.115   0.536 -0.3490  0.2185  0.0809
76832SOL     OW48105   2.985   6.161  12.397 -0.4993  0.1961  0.1298
76832SOL    HW148106   2.996   6.243  12.349 -1.9598  0.5125  0.2814
76832SOL    HW248107   3.038   6.173  12.476  1.4725 -0.1166 -1.0902
76833SOL     OW48108   8.103   7.886   2.709 -0.1640 -0.3204 -0.8645
76833SOL    HW148109   8.140   7.965   2.669 -1.4894  0.8414  0.0953
76833SOL    HW248110   8.107   7.904   2.803 -0.0886 -1.6039 -0.6135
76834SOL     OW48111   7.960   0.485   0.278  0.4618 -0.0575 -0.0745
76834SOL    HW148112   7.949   0.540   0.200 -0.4165  0.7763  0.5996
76834SOL    HW248113   8.053   0.490   0.298  0.7776 -0.6416 -1.3118
76835SOL     OW48114   1.105   1.746   0.423  0.0848 -0.8694  0.0907
76835SOL    HW148115   1.017   1.783   0.419 -0.1950 -1.5778 -0.7574
76835SOL    HW248116   1.091   1.655   0.449  0.5589 -0.9875 -0.0680
76836SOL     OW48117   0.191   4.908   3.751 -0.1094 -0.3824  0.2608
76836SOL    HW148118   0.278   4.893   3.788 -0.2387 -1.1355  0.2645
76836SOL    HW248119   0.141   4.830   3.774 -0.0197 -1.1872 -2.0274
76837SOL     OW48120   1.665   8.158   7.900 -0.2264 -0.0081 -0.1273
76837SOL    HW148121   1.600   8.200   7.845 -1.2400 -0.4166  0.7267
76837SOL    HW248122   1.660   8.205   7.984 -0.8156 -1.2735  0.5833
76838SOL     OW48123   4.723   3.972   9.013  0.0439 -0.4881 -0.1188
76838SOL    HW148124   4.798   4.029   9.031 -0.0166 -0.9059  1.6436
76838SOL    HW248125   4.724   3.960   8.918  0.9898  1.1510 -0.3474
76839SOL     OW48126   3.895  12.524  11.642 -0.2559 -0.3597 -0.3458
76839SOL    HW148127   3.953  12.527  11.719 -1.5599 -0.4685  0.6748
76839SOL    HW248128   3.915  12.605  11.594 -1.0630  0.9365  1.3737
76840SOL     OW48129   5.104   1.650   1.060 -0.3929 -0.1081  0.5931
76840SOL    HW148130   5.024   1.649   1.006 -0.2443  0.2373  0.3644
76840SOL    HW248131   5.091   1.578   1.122 -0.1681 -1.0987 -0.4778
76841SOL     OW48132   1.340   2.036   1.795  0.0870 -0.2312  0.4568
76841SOL    HW148133   1.364   2.050   1.703 -0.6166 -0.7881  0.1812
76841SOL    HW248134   1.275   2.103   1.813 -0.6549 -0.8615  0.1861
76842SOL     OW48135   3.784  12.974   6.938 -0.3482  0.0821 -0.4370
76842SOL    HW148136   3.766  13.055   6.891 -0.0297  0.8711  0.7681
76842SOL    HW248137   3.859  12.936   6.892 -0.3443  0.5889 -0.8582
76843SOL     OW48138   9.429   3.455  12.825  0.7233 -0.5901 -0.5065
76843SOL    HW148139   9.386   3.415  12.749  0.2550  1.3821 -1.3660
76843SOL    HW248140   9.523   3.449  12.805  0.7294 -2.2996 -0.0311
76844SOL     OW48141   2.823  10.195   5.708  0.6593  0.2381 -0.3302
76844SOL    HW148142   2.836  10.256   5.780 -2.7517  0.7696 -0.0026
76844SOL    HW248143   2.838  10.109   5.747 -1.0200  0.5231  1.0893
76845SOL     OW48144   3.921   7.215  11.686 -0.2084 -0.3599  0.1239
76845SOL    HW148145   3.867   7.147  11.645  0.3208 -2.0544  2.0806
76845SOL    HW248146   3.994   7.167  11.725 -0.4012  1.1707  2.5393
76846SOL     OW48147   2.826   3.457   5.573 -0.5961 -0.4113  0.3756
76846SOL    HW148148   2.900   3.401   5.550 -1.0245 -0.2511 -1.5871
76846SOL    HW248149   2.755   3.396   5.592 -0.5504 -0.5621  0.0763
76847SOL     OW48150  12.610  11.317   1.155  0.3666 -0.1268  0.1156
76847SOL    HW148151  12.616  11.402   1.110  1.3456  0.8143  1.9163
76847SOL    HW248152  12.566  11.337   1.237  0.3570 -1.4378  0.4429
76848SOL     OW48153   3.186   8.262   5.557  0.0903 -0.1825  0.0744
76848SOL    HW148154   3.171   8.208   5.479  0.9531  0.8327 -0.8116
76848SOL    HW248155   3.233   8.204   5.617 -0.3549 -0.8900 -0.2358
76849SOL     OW48156   8.606   2.051   3.908 -0.3455  0.0154  0.0549
76849SOL    HW148157   8.584   1.975   3.962 -0.2165  0.6719  1.0689
76849SOL    HW248158   8.602   2.125   3.969  0.9941  0.6298 -0.5715
76850SOL     OW48159   1.460   2.397   2.649  0.0984  0.2271  1.0054
76850SOL    HW148160   1.449   2.466   2.583 -0.5719  0.0931  0.9697
76850SOL    HW248161   1.444   2.316   2.602  1.1180  0.0123  0.9954
76851SOL     OW48162   4.460   9.576  13.428 -0.3543 -0.5317  0.2619
76851SOL    HW148163   4.403   9.636  13.380  2.8286  1.7675 -1.0114
76851SOL    HW248164   4.467   9.614  13.515 -1.6648 -1.5284  0.8331
76852SOL     OW48165   5.106   6.737   5.916 -0.7507 -0.2271  0.0624
76852SOL    HW148166   5.091   6.760   5.825  1.2774  0.1891 -0.2302
76852SOL    HW248167   5.091   6.642   5.920  0.4910 -0.5154 -1.0769
76853SOL     OW48168   0.263   7.642   5.523  0.2040  0.0804 -0.6130
76853SOL    HW148169   0.322   7.567   5.514  1.5421  1.0568 -0.3470
76853SOL    HW248170   0.249   7.651   5.617  1.1938  0.9761 -0.5262
76854SOL     OW48171   0.503   3.646   2.178 -0.1113 -0.2161  0.0542
76854SOL    HW148172   0.541   3.727   2.145 -1.0534  0.3291  0.2510
76854SOL    HW248173   0.426   3.674   2.227 -0.0209 -1.1782  0.7849
76855SOL     OW48174   8.071   1.516   6.100  0.3934  0.3367  0.3376
76855SOL    HW148175   8.023   1.436   6.122  0.0116  0.0978 -1.2186
76855SOL    HW248176   8.162   1.488   6.089  0.0337 -0.2232 -1.6422
76856SOL     OW48177  12.244   7.479  13.934  0.3073 -0.5361 -0.3475
76856SOL    HW148178  12.154   7.468  13.964  0.6561  0.5190  1.1971
76856SOL    HW248179  12.270   7.392  13.903 -0.9257 -1.0705  0.0537
76857SOL     OW48180  13.896  13.875  12.151 -0.2342 -0.3025  0.3598
76857SOL    HW148181  13.937  13.941  12.207 -0.2335 -0.0942  0.1170
76857SOL    HW248182  13.947  13.877  12.070 -0.6108 -0.1708  0.1252
76858SOL     OW48183  13.653   6.432  13.473 -0.1491 -0.0759  0.1925
76858SOL    HW148184  13.628   6.477  13.392  0.4074  0.7284  0.4567
76858SOL    HW248185  13.740   6.397  13.455  1.0045  2.0893  1.1720
76859SOL     OW48186  13.750   5.254  12.775  0.5050  0.3811  0.3047
76859SOL    HW148187  13.733   5.261  12.681  1.8451  1.0972  0.0844
76859SOL    HW248188  13.664   5.245  12.815 -0.2846  2.4728 -0.7818
76860SOL     OW48189   3.445   5.373  10.905  0.1735 -0.3229  0.3108
76860SOL    HW148190   3.449   5.289  10.859  4.3023 -0.7362  1.0407
76860SOL    HW248191   3.466   5.351  10.996  0.6780  1.3962  0.6473
76861SOL     OW48192   8.847   2.146  12.639 -0.4364  0.1669 -0.7202
76861SOL    HW148193   8.938   2.175  12.633 -0.1343 -0.6326 -0.1124
76861SOL    HW248194   8.798   2.210  12.587  0.4067  0.8792 -0.6549
76862SOL     OW48195   8.371   2.229   5.793  0.0702 -0.1281 -0.9436
76862SOL    HW148196   8.304   2.193   5.735 -0.9153  1.2021 -0.6682
76862SOL    HW248197   8.390   2.316   5.756 -0.4292  0.6558  0.5763
76863SOL     OW48198   7.247   2.378  12.875  0.5212  0.5120 -0.4884
76863SOL    HW148199   7.284   2.359  12.789 -0.8570  1.5262 -1.3654
76863SOL    HW248200   7.269   2.470  12.890  1.7861  0.0243  0.8315
76864SOL     OW48201   8.697   5.177   0.856  0.3469 -1.3457 -0.4655
76864SOL    HW148202   8.738   5.244   0.910  0.9327 -1.9371 -0.1624
76864SOL    HW248203   8.605   5.176   0.884  0.5998 -1.4990  0.3706
76865SOL     OW48204  10.544   7.271   6.696 -0.0497 -0.0153 -0.1015
76865SOL    HW148205  10.483   7.207   6.731 -0.0666  0.8348  1.5665
76865SOL    HW248206  10.498   7.355   6.703  0.1173  0.2537 -1.8564
76866SOL     OW48207  11.041  11.357  13.458 -0.4160  0.5695 -0.3092
76866SOL    HW148208  11.054  11.332  13.550  0.2164  0.0263 -0.5440
76866SOL    HW248209  10.955  11.399  13.458  0.9559  3.6425  1.1455
76867SOL     OW48210   2.058   4.961  13.335 -0.6159 -0.6602 -0.0530
76867SOL    HW148211   1.999   4.988  13.405 -0.5632 -1.8664  0.4912
76867SOL    HW248212   2.002   4.950  13.259 -0.9171 -0.7729  0.1831
76868SOL     OW48213  12.185   0.252  11.020 -0.1598  0.2136 -0.3186
76868SOL    HW148214  12.110   0.199  11.048  0.6720 -1.1512 -0.5772
76868SOL    HW248215  12.210   0.215  10.936  0.0288  1.4839 -0.8327
76869SOL     OW48216   8.524   6.651   0.821 -0.6045 -0.1499 -0.3766
76869SOL    HW148217   8.432   6.625   0.819 -1.2875  1.8263  1.5222
76869SOL    HW248218   8.554   6.628   0.909 -0.4822  2.7204  0.4345
76870SOL     OW48219   0.172   2.500  11.638 -0.1133  0.0703 -0.0090
76870SOL    HW148220   0.097   2.553  11.664 -2.4947 -2.9441 -0.2286
76870SOL    HW248221   0.183   2.518  11.545 -0.6293  0.4915  0.0068
76871SOL     OW48222   9.307   8.524   0.280  0.4690 -0.4945  0.4584
76871SOL    HW148223   9.352   8.608   0.291 -0.8665  0.1139  1.6095
76871SOL    HW248224   9.285   8.497   0.369 -0.6827 -1.1874 -0.0173
76872SOL     OW48225  10.877   7.462   4.218  0.5241  0.1708  0.2911
76872SOL    HW148226  10.805   7.512   4.179  0.3670  0.8976  1.4862
76872SOL    HW248227  10.833   7.399   4.275  0.8305  0.9271  1.3880
76873SOL     OW48228   1.139   8.405   6.077  0.3044 -0.5185 -0.1261
76873SOL    HW148229   1.121   8.467   6.006  0.0378 -1.2361 -0.7067
76873SOL    HW248230   1.081   8.331   6.059  0.2989 -0.7493  0.8018
76874SOL     OW48231  13.852   5.332  13.599 -0.0986  0.0819  0.0265
76874SOL    HW148232  13.788   5.290  13.657  0.8318 -0.6746  0.5326
76874SOL    HW248233  13.918   5.369  13.658  0.8100 -0.6135 -0.5243
76875SOL     OW48234  11.113   6.860  13.813  0.5229  0.0517  0.1240
76875SOL    HW148235  11.111   6.777  13.765  1.7049  0.3119 -0.4065
76875SOL    HW248236  11.088   6.836  13.902 -1.8210 -0.4241 -0.5931
76876SOL     OW48237   7.244  12.097   7.985 -0.4982  0.0405  0.4332
76876SOL    HW148238   7.245  12.171   7.926  1.1241 -0.5095 -0.2920
76876SOL    HW248239   7.336  12.071   7.993 -0.8596 -0.9485  1.8661
76877SOL     OW48240   2.235  13.579  13.902 -0.3505 -0.3077 -0.1579
76877SOL    HW148241   2.153  13.583  13.953 -0.7455  2.1868 -0.8405
76877SOL    HW248242   2.300  13.620  13.958 -0.5945  1.6667 -1.2347
76878SOL     OW48243   4.958  11.458   7.322 -0.5535  0.3317 -0.0119
76878SOL    HW148244   4.997  11.541   7.348 -0.3273  0.6895 -1.4025
76878SOL    HW248245   4.942  11.412   7.404  0.2096  1.3470  0.7308
76879SOL     OW48246   8.234   1.585  12.958  0.4512  0.1522  1.0383
76879SOL    HW148247   8.191   1.581  12.872  0.5878 -0.1208  0.9820
76879SOL    HW248248   8.161   1.585  13.020  0.2315  2.6754  0.8944
76880SOL     OW48249   2.465  12.281   8.195 -0.1134  0.2580  0.5028
76880SOL    HW148250   2.556  12.250   8.196 -0.8757 -2.2134  0.8081
76880SOL    HW248251   2.469  12.365   8.150  2.3178  0.1760  0.4256
76881SOL     OW48252   4.420   4.013   5.635  0.5786  0.1761 -0.6812
76881SOL    HW148253   4.402   4.049   5.722  0.3973  1.3648 -1.1846
76881SOL    HW248254   4.356   4.057   5.578  0.0170 -1.3387 -1.2577
76882SOL     OW48255   2.720  12.381   0.098 -0.4914  0.1884 -0.0332
76882SOL    HW148256   2.731  12.290   0.072 -1.2501 -0.5824  2.1568
76882SOL    HW248257   2.765  12.389   0.182 -2.0924  1.2947  0.7823
76883SOL     OW48258   3.973   4.355   1.647 -0.0204  0.1443 -0.7690
76883SOL    HW148259   3.918   4.419   1.601  1.1362  1.5965 -0.2318
76883SOL    HW248260   4.020   4.310   1.577  0.3686  1.0550 -1.1158
76884SOL     OW48261   6.912   1.630   6.762 -0.5681  0.2224  0.3031
76884SOL    HW148262   6.834   1.599   6.717  0.6672 -1.1904 -0.9684
76884SOL    HW248263   6.942   1.556   6.814  0.8672  0.1342 -0.5827
76885SOL     OW48264   3.704  13.957   0.326  0.2451 -0.4300 -0.4509
76885SOL    HW148265   3.673  14.045   0.307  1.1013 -0.3009 -1.3193
76885SOL    HW248266   3.669  13.903   0.255 -0.0840 -0.7509 -0.0509
76886SOL     OW48267   0.560   0.149   7.246  0.3181  1.1293 -0.4385
76886SOL    HW148268   0.638   0.095   7.239 -0.9267 -1.1179  1.4792
76886SOL    HW248269   0.589   0.237   7.223  2.8825  0.0283 -1.8361
76887SOL     OW48270   4.258   3.167   3.212  0.1615 -0.0142  0.0199
76887SOL    HW148271   4.324   3.235   3.198 -0.7643  0.7722 -0.7127
76887SOL    HW248272   4.236   3.136   3.124  0.1274 -0.8400  0.3103
76888SOL     OW48273   4.702   7.143   2.957  1.0385  0.0453 -0.0300
76888SOL    HW148274   4.706   7.099   2.872  1.0127  1.6043 -0.8783
76888SOL    HW248275   4.642   7.217   2.944  0.7271  0.0998  1.4599
76889SOL     OW48276   9.933   3.976   0.067 -0.1924  0.5639 -0.9071
76889SOL    HW148277   9.900   3.941   0.150 -2.8738  2.2962 -1.1204
76889SOL    HW248278  10.022   3.941   0.059 -0.8298 -1.8401  1.3485
76890SOL     OW48279   9.551   5.988  12.263  0.2696 -0.1310 -0.1119
76890SOL    HW148280   9.547   5.976  12.358  1.2489  0.9610  0.0956
76890SOL    HW248281   9.628   5.938  12.235  0.2721 -0.0525 -0.2512
76891SOL     OW48282   3.844  12.948   4.509 -0.0726  0.3129  0.2744
76891SOL    HW148283   3.841  12.875   4.447  1.7455  0.1708  0.2788
76891SOL    HW248284   3.864  12.907   4.593  2.2996  0.8418  0.0488
76892SOL     OW48285   3.315  13.753   4.209  0.1944  0.2652  0.4407
76892SOL    HW148286   3.395  13.726   4.163  0.2615  0.7221  0.2830
76892SOL    HW248287   3.343  13.823   4.268 -0.0741  0.3646  0.4534
76893SOL     OW48288   7.363  13.503  11.416  0.0278  0.0276  0.1612
76893SOL    HW148289   7.418  13.539  11.486  1.1778  1.5911 -1.4495
76893SOL    HW248290   7.283  13.555  11.419  0.1604  0.2315  0.2009
76894SOL     OW48291   1.128   2.062   7.384  0.4039  0.7162 -0.0594
76894SOL    HW148292   1.097   2.136   7.332  0.5995  1.5130  0.9296
76894SOL    HW248293   1.049   2.028   7.426 -0.1653 -1.3775 -2.5663
76895SOL     OW48294   4.586   7.758   2.338 -0.0991 -0.5059  0.1998
76895SOL    HW148295   4.533   7.710   2.401 -1.1446  1.6996  1.0790
76895SOL    HW248296   4.539   7.840   2.322  1.8550  0.5180 -0.8106
76896SOL     OW48297   1.749   6.039   5.119  0.3314  0.2059 -0.1917
76896SOL    HW148298   1.668   6.006   5.080  1.5785 -0.0225 -2.8196
76896SOL    HW248299   1.780   5.968   5.174 -0.8619  0.0071  0.2454
76897SOL     OW48300   4.140   8.417   6.634  0.3030 -0.2634 -0.1345
76897SOL    HW148301   4.230   8.440   6.614  0.3912 -0.4203  0.0762
76897SOL    HW248302   4.101   8.497   6.669  0.4292 -0.2624  0.0033
76898SOL     OW48303  10.334   2.431   3.110 -0.0676  0.0642 -0.1011
76898SOL    HW148304  10.417   2.396   3.078 -0.1865  1.4558 -2.1204
76898SOL    HW248305  10.342   2.526   3.099 -1.5230  0.3184  0.7198
76899SOL     OW48306   9.341  13.596  12.130  0.1816 -0.8927 -0.6304
76899SOL    HW148307   9.350  13.513  12.083 -2.2425 -1.5399 -0.0996
76899SOL    HW248308   9.293  13.574  12.210  2.4781  0.4989  1.2942
76900SOL     OW48309   2.402  12.347   9.365  0.3492 -0.0806 -0.6326
76900SOL    HW148310   2.349  12.410   9.316  1.0976  1.1538  0.1251
76900SOL    HW248311   2.489  12.353   9.326  0.6272 -0.0446 -0.0133
76901SOL     OW48312   7.525   0.613   8.981 -0.2259 -0.3373 -0.6161
76901SOL    HW148313   7.475   0.546   8.935  0.6547 -0.6922 -1.0713
76901SOL    HW248314   7.603   0.627   8.927  0.5960 -0.4164  0.4937
76902SOL     OW48315   8.180   9.063   2.817  0.2237  0.2059  0.0327
76902SOL    HW148316   8.185   8.992   2.881  2.4604  1.0867  0.9498
76902SOL    HW248317   8.243   9.038   2.748  1.8694  1.7086  0.9009
76903SOL     OW48318   6.793  13.271  11.337 -0.2842 -0.2166 -0.1241
76903SOL    HW148319   6.781  13.197  11.277 -1.9071 -0.8493  0.9143
76903SOL    HW248320   6.756  13.241  11.420  1.9668  0.5959  1.2662
76904SOL     OW48321   5.640   2.393   2.808 -0.2912  0.2866 -0.0248
76904SOL    HW148322   5.600   2.337   2.742  0.3357 -0.7603  0.4577
76904SOL    HW248323   5.582   2.468   2.815  0.5008  1.2839 -3.0026
76905SOL     OW48324   1.315   7.789  10.382 -0.2445 -0.3533  0.6250
76905SOL    HW148325   1.235   7.789  10.435 -0.7233 -1.7141 -0.0368
76905SOL    HW248326   1.365   7.714  10.414  0.3352 -0.0676  0.4016
76906SOL     OW48327   3.494   8.882   3.294  0.1124 -0.3171 -0.1094
76906SOL    HW148328   3.516   8.894   3.202  0.9523  0.2687  0.1533
76906SOL    HW248329   3.496   8.971   3.330 -2.0860 -0.2873  0.0863
76907SOL     OW48330  10.671   5.925  11.066 -0.6217  0.1132 -0.4521
76907SOL    HW148331  10.632   5.978  11.136  0.6728  2.7860 -1.6163
76907SOL    HW248332  10.598   5.879  11.026 -1.7511  0.6200  0.9519
76908SOL     OW48333  10.507   9.571  12.074 -1.1158  0.8730 -0.6819
76908SOL    HW148334  10.600   9.586  12.089 -1.0802  0.6203 -0.6637
76908SOL    HW248335  10.498   9.563  11.979 -1.1291  0.9572 -0.6884
76909SOL     OW48336   6.335   6.724  13.031  0.2583  0.1500  0.7625
76909SOL    HW148337   6.405   6.674  13.073  0.0574 -1.3157 -0.5603
76909SOL    HW248338   6.378   6.804  13.000  1.9553 -1.6200 -1.8612
76910SOL     OW48339   6.261  10.746   2.632 -0.2519  0.3768  0.4493
76910SOL    HW148340   6.287  10.656   2.616  0.5033  0.2892  1.9792
76910SOL    HW248341   6.333  10.798   2.596 -0.3073  0.3420  0.2862
76911SOL     OW48342   0.440   5.440  10.692  0.1196  0.6098 -0.3181
76911SOL    HW148343   0.461   5.412  10.781 -2.4542 -1.7272 -0.3376
76911SOL    HW248344   0.525   5.459  10.652  1.3877  0.9275  2.3485
76912SOL     OW48345  13.849  13.679   5.530 -0.9342  0.3510 -0.1117
76912SOL    HW148346  13.935  13.715   5.552 -0.3102 -0.8739 -0.4485
76912SOL    HW248347  13.789  13.753   5.540  0.3179  1.5542 -1.0230
76913SOL     OW48348  10.649  13.674   3.291  0.1104  0.6919 -0.1718
76913SOL    HW148349  10.714  13.637   3.231 -0.0136  0.5911 -0.2456
76913SOL    HW248350  10.650  13.768   3.272  0.5688  0.7557  0.1567
76914SOL     OW48351   2.360   2.352   1.963  0.7197 -0.9368 -0.2011
76914SOL    HW148352   2.367   2.335   1.869 -0.8741  0.8920 -0.7273
76914SOL    HW248353   2.441   2.398   1.985  0.8672 -0.8876 -0.8199
76915SOL     OW48354   2.428   5.129   0.368  0.2725  0.0333  0.0956
76915SOL    HW148355   2.487   5.101   0.438  0.5439  0.6350  0.1058
76915SOL    HW248356   2.423   5.224   0.376  0.2456  0.0975 -0.6576
76916SOL     OW48357   0.020   6.991   1.278 -0.5271 -0.1957 -0.6225
76916SOL    HW148358   0.001   6.904   1.243  0.8002 -1.1278  0.8380
76916SOL    HW248359  -0.032   7.051   1.223 -1.8150 -1.9205 -1.3877
76917SOL     OW48360   3.613   8.223   3.191  0.1911  0.1242  0.0580
76917SOL    HW148361   3.588   8.316   3.195 -1.8275 -0.3638 -0.0348
76917SOL    HW248362   3.559   8.181   3.258  1.5991 -0.9120  0.5928
76918SOL     OW48363   5.655  10.650  12.433 -0.2551  0.7698  0.2323
76918SOL    HW148364   5.589  10.581  12.441  0.3095  0.1859 -0.1379
76918SOL    HW248365   5.726  10.622  12.491  1.5823 -0.8435 -2.5471
76919SOL     OW48366   5.194   8.236  12.862  0.8687 -0.2119 -0.4612
76919SOL    HW148367   5.274   8.281  12.835  1.4718 -0.5172  0.7352
76919SOL    HW248368   5.225   8.154  12.900  0.0247 -0.1975  0.2943
76920SOL     OW48369  11.379  12.448   4.101 -0.2262  0.2673  0.0027
76920SOL    HW148370  11.440  12.430   4.173 -0.7219 -1.8603 -0.0337
76920SOL    HW248371  11.364  12.542   4.105  1.3069  0.4954  1.4240
76921SOL     OW48372   5.057  13.497   5.264  0.1286  0.1908  0.5010
76921SOL    HW148373   4.966  13.485   5.292  0.4654 -2.7777  0.7022
76921SOL    HW248374   5.051  13.516   5.171 -0.7295 -2.1725  0.0007
76922SOL     OW48375  11.422   5.678  10.957 -0.3281 -0.4208 -0.0319
76922SOL    HW148376  11.498   5.730  10.930 -1.0299  1.8546  2.0565
76922SOL    HW248377  11.347   5.728  10.926 -1.0827 -2.4667 -1.7534
76923SOL     OW48378   3.095   9.638  10.798  0.3379 -0.3781  0.1360
76923SOL    HW148379   3.179   9.606  10.830  0.4067 -0.3698 -0.0362
76923SOL    HW248380   3.101   9.733  10.806 -0.8185 -0.4402  3.0982
76924SOL     OW48381   4.692  11.708   1.117 -0.5233  0.4671 -0.2378
76924SOL    HW148382   4.662  11.743   1.033 -2.7001 -1.5128 -0.3872
76924SOL    HW248383   4.644  11.759   1.183 -1.4499 -0.2311 -0.3522
76925SOL     OW48384   0.892   8.176   6.752  0.0804  0.0215 -0.8518
76925SOL    HW148385   0.863   8.196   6.841 -1.5350  1.6907 -1.6841
76925SOL    HW248386   0.952   8.102   6.763  0.7229  0.7968  1.7042
76926SOL     OW48387   3.718   3.995   1.261  0.1633  0.5548 -0.0902
76926SOL    HW148388   3.665   3.982   1.182  1.1628  0.5999 -0.7806
76926SOL    HW248389   3.795   3.940   1.247  1.0125  1.6414  0.2257
76927SOL     OW48390   4.609   4.415   0.799 -0.1872  0.3307  0.0524
76927SOL    HW148391   4.536   4.369   0.757  0.4838 -0.0786 -0.7067
76927SOL    HW248392   4.643   4.473   0.731  0.2892  0.3972  0.3423
76928SOL     OW48393  11.397   2.536   3.357 -0.0857 -0.0810  0.0493
76928SOL    HW148394  11.429   2.448   3.374  4.9464  1.0137 -1.8992
76928SOL    HW248395  11.418   2.585   3.436  0.7635  0.0805 -0.2600
76929SOL     OW48396  11.632   6.872   0.100 -0.0025  0.0475  0.1362
76929SOL    HW148397  11.656   6.955   0.140 -0.7796  0.7336 -0.7897
76929SOL    HW248398  11.704   6.813   0.123  0.7295  1.0606  0.5059
76930SOL     OW48399  11.483   2.102   8.321 -0.0728 -0.9280  0.2924
76930SOL    HW148400  11.563   2.153   8.306 -0.6729 -0.3272 -1.0415
76930SOL    HW248401  11.441   2.098   8.235 -2.0775 -0.2162  1.1737
76931SOL     OW48402   9.267  11.577  13.006 -0.2276  0.2560 -0.1089
76931SOL    HW148403   9.302  11.568  13.095  0.8315  0.4771 -0.4914
76931SOL    HW248404   9.193  11.516  13.004 -0.3790  0.3772  0.9789
76932SOL     OW48405   6.868   3.444   8.383 -0.0043  0.2961  0.3857
76932SOL    HW148406   6.802   3.375   8.384 -0.9630  1.1943  0.3820
76932SOL    HW248407   6.905   3.444   8.471  1.3076 -1.4062 -0.0937
76933SOL     OW48408  10.638   9.224   6.135  0.6941 -0.4942  0.5465
76933SOL    HW148409  10.710   9.255   6.190  1.4664 -1.9108  0.4108
76933SOL    HW248410  10.580   9.299   6.125  2.1240  0.6812  0.7313
76934SOL     OW48411  13.000  10.487  11.394  0.0335 -0.3574  0.1712
76934SOL    HW148412  13.076  10.505  11.340  1.5102 -1.4104  1.7947
76934SOL    HW248413  12.942  10.435  11.337 -0.1636  1.5869 -1.5198
76935SOL     OW48414  10.804  10.067  14.019  0.3032  0.5376 -0.1069
76935SOL    HW148415  10.745  10.050  14.092 -2.5795 -0.6073 -2.5126
76935SOL    HW248416  10.785  10.157  13.993  0.7525  0.6752  0.0254
76936SOL     OW48417   5.192   4.974  11.817  0.9129 -0.0306  0.6043
76936SOL    HW148418   5.239   5.057  11.809  1.7067 -0.6009 -1.0247
76936SOL    HW248419   5.131   4.973  11.743  1.0250 -0.9780  0.5096
76937SOL     OW48420   3.512   7.006   6.252  0.1052 -0.4686 -0.2928
76937SOL    HW148421   3.424   7.018   6.288  0.6059 -0.9563  1.1793
76937SOL    HW248422   3.556   6.950   6.316  2.3192  1.8884  0.3961
76938SOL     OW48423   3.452  13.315   2.300 -0.5202  0.3790  0.1509
76938SOL    HW148424   3.529  13.372   2.296 -0.7514  0.6517 -0.9857
76938SOL    HW248425   3.468  13.257   2.374  1.1438 -0.0842 -0.5197
76939SOL     OW48426   8.987   9.492   5.599  0.7051  0.0293  0.3545
76939SOL    HW148427   9.038   9.572   5.607  2.3083 -0.9018 -0.0613
76939SOL    HW248428   9.004   9.444   5.680 -1.1477  0.5565  1.1119
76940SOL     OW48429   2.358   9.012   3.045 -0.1011 -0.1478 -0.5137
76940SOL    HW148430   2.295   9.015   3.118 -0.2396 -0.3228 -0.6247
76940SOL    HW248431   2.425   8.951   3.075  0.7030  1.0265  0.1467
76941SOL     OW48432   4.878   6.192   8.831 -0.1642 -0.1137  0.3641
76941SOL    HW148433   4.936   6.267   8.845 -0.4679  0.3551 -0.7929
76941SOL    HW248434   4.892   6.137   8.908 -0.1183  1.2425  1.3789
76942SOL     OW48435  11.953  10.832   0.292  0.0721  0.2742  0.3259
76942SOL    HW148436  11.992  10.800   0.373  0.3328 -0.8174 -0.2054
76942SOL    HW248437  11.906  10.756   0.256 -0.6504  0.9340 -0.1830
76943SOL     OW48438  13.951   9.403   9.557 -0.4980  0.0027 -0.0734
76943SOL    HW148439  13.912   9.380   9.473 -0.6369  0.6532 -0.1965
76943SOL    HW248440  14.043   9.378   9.548 -0.4185  0.4509 -0.5750
76944SOL     OW48441   4.436   9.719   5.930  0.0841  0.7729 -0.1297
76944SOL    HW148442   4.370   9.784   5.905 -1.2871 -0.2076  0.8149
76944SOL    HW248443   4.447   9.730   6.024  1.0522  0.7024 -0.2236
76945SOL     OW48444   2.381   5.281  11.424 -0.5463 -0.3850  0.0239
76945SOL    HW148445   2.344   5.369  11.418 -1.5951 -0.6054  2.4533
76945SOL    HW248446   2.321   5.226  11.375 -0.7240 -0.0033 -0.1932
76946SOL     OW48447   9.601  11.549   1.818 -0.0336  0.5889 -0.3698
76946SOL    HW148448   9.608  11.601   1.898 -0.1206  0.2134 -0.1199
76946SOL    HW248449   9.507  11.547   1.799  0.0009  0.8130 -0.5718
76947SOL     OW48450  14.022   6.610   4.785 -0.0742  0.3688  0.3385
76947SOL    HW148451  13.987   6.568   4.864 -0.3959  0.6110  0.3275
76947SOL    HW248452  14.006   6.703   4.799 -1.1210  0.3262 -0.4969
76948SOL     OW48453   2.256  12.262   9.873  0.2402  0.1228  0.2943
76948SOL    HW148454   2.339  12.310   9.870  0.6960 -0.6979 -0.9171
76948SOL    HW248455   2.278  12.175   9.839 -0.4181 -1.1866  2.9518
76949SOL     OW48456   7.743   1.819  10.229  0.2120  0.0935 -0.1175
76949SOL    HW148457   7.698   1.735  10.239  0.0230  0.4062  2.1917
76949SOL    HW248458   7.759   1.827  10.135  1.6431 -3.2577 -0.2840
76950SOL     OW48459   7.624   7.277   2.006  0.5430  0.5358  0.0574
76950SOL    HW148460   7.611   7.358   2.056 -0.8109 -0.2613  1.0478
76950SOL    HW248461   7.537   7.254   1.974  0.6943 -1.0935  0.7090
76951SOL     OW48462  13.692   1.845   1.911  0.5828  0.4096  0.1998
76951SOL    HW148463  13.767   1.823   1.966  1.2839 -0.3064 -1.0044
76951SOL    HW248464  13.643   1.763   1.903 -0.4416  0.9035  1.1034
76952SOL     OW48465   3.258   8.945   7.351  0.5019  0.0506 -0.2967
76952SOL    HW148466   3.310   9.006   7.299 -0.9738  1.5327 -0.1289
76952SOL    HW248467   3.185   8.921   7.293 -0.1601  0.2732  0.4309
76953SOL     OW48468   3.195   2.220  11.180  0.0221  0.5042  0.7397
76953SOL    HW148469   3.208   2.145  11.237  0.5779  0.9653  1.2304
76953SOL    HW248470   3.269   2.217  11.119 -0.3156  0.2812  0.3327
76954SOL     OW48471   6.901   2.493   7.139 -0.1201  0.1196 -0.0631
76954SOL    HW148472   6.912   2.483   7.233 -0.9705 -0.4495 -0.0233
76954SOL    HW248473   6.976   2.547   7.112  2.0653 -2.5002  0.3930
76955SOL     OW48474  12.527   6.505  13.845 -0.5632  0.0301  0.5056
76955SOL    HW148475  12.515   6.478  13.754 -2.9909  0.1056  0.7348
76955SOL    HW248476  12.566   6.592  13.840 -2.3525  0.8325 -0.5781
76956SOL     OW48477   1.662   1.342   2.285  0.3282  0.4308  0.2321
76956SOL    HW148478   1.709   1.395   2.220 -0.7075  0.5107 -0.4890
76956SOL    HW248479   1.697   1.254   2.274 -0.4625  0.2498 -1.1167
76957SOL     OW48480  10.013   6.882  12.973  0.0044 -0.0126 -0.0477
76957SOL    HW148481   9.935   6.913  12.926  0.1274 -2.1955 -1.8741
76957SOL    HW248482  10.043   6.958  13.023 -1.6088  1.7166 -1.5568
76958SOL     OW48483   5.546   4.216  12.961 -0.3254  0.4621 -0.0300
76958SOL    HW148484   5.530   4.256  13.047 -1.4964 -1.2041  0.5663
76958SOL    HW248485   5.640   4.226  12.948 -0.1590  0.9564  1.3285
76959SOL     OW48486   0.524   5.907   9.114  0.4199  0.3512 -0.2086
76959SOL    HW148487   0.547   5.999   9.097 -0.6044  0.5098 -0.7569
76959SOL    HW248488   0.559   5.859   9.039  0.1884  0.4104 -0.3548
76960SOL     OW48489   4.322   0.917   5.601  0.5100 -0.2027  0.0515
76960SOL    HW148490   4.415   0.908   5.618  0.5301  1.6564  1.2149
76960SOL    HW248491   4.280   0.860   5.666  0.8247 -0.7764 -0.2459
76961SOL     OW48492   8.023   3.281  11.140 -0.1085  0.3733 -0.0823
76961SOL    HW148493   8.014   3.323  11.055 -0.4072  0.2814 -0.0962
76961SOL    HW248494   8.110   3.240  11.138 -0.4132 -0.2664 -0.6236
76962SOL     OW48495  12.081   8.903   3.739 -0.0626  0.2140  0.5792
76962SOL    HW148496  12.131   8.985   3.745 -1.2605  0.9006  1.4490
76962SOL    HW248497  12.070   8.889   3.645  1.3150  0.3138  0.3852
76963SOL     OW48498   1.352   5.880   8.805  0.0591  0.2748 -0.2176
76963SOL    HW148499   1.281   5.861   8.866 -1.5491  1.6940 -1.5536
76963SOL    HW248500   1.416   5.810   8.821 -1.8259 -1.3444  0.7217
76964SOL     OW48501  13.308   6.713   3.103 -0.0347  0.4801 -0.2919
76964SOL    HW148502  13.366   6.768   3.157 -0.5488  2.6482 -1.8074
76964SOL    HW248503  13.343   6.723   3.014 -1.2802 -0.1793 -0.8727
76965SOL     OW48504   1.022   4.147   2.399 -0.4981 -0.7247 -0.0328
76965SOL    HW148505   1.014   4.057   2.366 -1.9245 -0.3589 -0.7621
76965SOL    HW248506   1.054   4.197   2.323  1.0071 -0.7102  0.5731
76966SOL     OW48507   3.796   0.317   9.213  0.3248 -0.2602 -0.0251
76966SOL    HW148508   3.822   0.255   9.144  1.2863 -2.2175  1.9790
76966SOL    HW248509   3.721   0.276   9.255  1.0985 -0.2058  1.4689
76967SOL     OW48510   0.282  13.610   9.693 -0.1766  0.1935  0.2134
76967SOL    HW148511   0.366  13.637   9.654 -0.0303  0.5655  0.7698
76967SOL    HW248512   0.259  13.529   9.648  0.2104  0.3835 -0.3328
76968SOL     OW48513  11.964   9.260  11.474  0.3193 -0.6010  0.6500
76968SOL    HW148514  12.023   9.303  11.413 -0.9133  0.7070  0.3366
76968SOL    HW248515  11.963   9.168  11.445  2.0000 -0.6182  0.5471
76969SOL     OW48516  10.993   4.835  11.675  0.1676 -0.0081  0.4561
76969SOL    HW148517  11.017   4.826  11.767  2.2750 -1.4580 -0.1672
76969SOL    HW248518  11.057   4.895  11.638  1.2671 -1.7674 -0.6601
76970SOL     OW48519   8.545   2.272  13.064  0.5315  0.1979  0.4406
76970SOL    HW148520   8.635   2.294  13.041  0.7701  0.0896  1.2554
76970SOL    HW248521   8.494   2.293  12.985  1.3048 -0.0270 -0.1307
76971SOL     OW48522  10.149  11.315   8.071  0.0747  0.0905 -0.3424
76971SOL    HW148523  10.138  11.248   8.139 -0.7635 -0.6916 -1.2197
76971SOL    HW248524  10.167  11.265   7.991 -0.9114  0.8833 -1.0840
76972SOL     OW48525   2.419   9.425   6.081 -0.5896  0.2336  0.2931
76972SOL    HW148526   2.355   9.376   6.133  0.5777 -1.2356  0.4092
76972SOL    HW248527   2.425   9.376   5.998  0.2167  0.4738  0.2030
76973SOL     OW48528   9.532   4.383  11.297  0.7231 -0.5470  0.0534
76973SOL    HW148529   9.555   4.329  11.221  1.5038 -1.3459  0.8387
76973SOL    HW248530   9.596   4.360  11.364 -0.8687 -1.0478  1.5024
76974SOL     OW48531  13.986  12.688   3.828 -0.0869 -0.2060  0.1768
76974SOL    HW148532  13.965  12.599   3.799 -0.2231 -0.1279  0.0303
76974SOL    HW248533  14.054  12.717   3.766  1.3103 -0.8696  1.3268
76975SOL     OW48534   8.823   4.147   2.467  0.1615 -0.3730  0.3085
76975SOL    HW148535   8.896   4.160   2.527 -0.6179  0.9155  1.0123
76975SOL    HW248536   8.856   4.176   2.382  0.4787  0.1690  0.6150
76976SOL     OW48537   2.934  10.537   8.497  0.1334 -0.2069 -0.1560
76976SOL    HW148538   3.007  10.540   8.435  0.6714  0.7049  0.5027
76976SOL    HW248539   2.938  10.448   8.533  1.4950  0.0977  0.5179
76977SOL     OW48540   2.145  12.056   6.611 -0.1943 -0.4145  0.3398
76977SOL    HW148541   2.143  12.136   6.558  2.9049  0.0900  0.7718
76977SOL    HW248542   2.232  12.019   6.595 -0.7172 -2.5047  1.8890
76978SOL     OW48543  13.494   5.090   6.172  0.5252 -0.0675  0.4401
76978SOL    HW148544  13.543   5.019   6.215 -0.8095 -0.4907  1.3148
76978SOL    HW248545  13.553   5.120   6.103  2.4483  0.1340  2.0660
76979SOL     OW48546  10.878   3.586   5.099  0.5734  0.1482 -0.2966
76979SOL    HW148547  10.844   3.499   5.116  0.8895 -0.0257 -0.5405
76979SOL    HW248548  10.886   3.590   5.003  2.0653 -0.1384 -0.2079
76980SOL     OW48549   8.207   5.871  10.779 -0.1434  0.2383 -0.3730
76980SOL    HW148550   8.297   5.863  10.810 -0.2216 -0.2279 -0.2630
76980SOL    HW248551   8.154   5.875  10.858 -0.3296 -0.7949 -0.4356
76981SOL     OW48552  13.238   5.362  12.868 -0.4262  0.2338 -0.0666
76981SOL    HW148553  13.229   5.312  12.786  1.6011  1.9878 -1.4918
76981SOL    HW248554  13.149   5.385  12.892 -1.1305 -0.8707 -1.4174
76982SOL     OW48555  11.740   8.055  12.853 -0.2366  0.0588  0.2535
76982SOL    HW148556  11.766   8.143  12.881 -1.4921  0.8431 -0.9110
76982SOL    HW248557  11.786   8.042  12.770 -0.5754 -0.0869  0.0861
76983SOL     OW48558  13.124   7.412  10.676 -0.7137 -0.3084  0.2185
76983SOL    HW148559  13.190   7.345  10.659 -1.3466 -1.4984  2.1671
76983SOL    HW248560  13.104   7.447  10.589 -0.2186 -2.4902 -0.8649
76984SOL     OW48561   3.380   9.618   0.630  0.0573 -0.2489  0.4161
76984SOL    HW148562   3.426   9.536   0.649  0.5034  0.2637  1.6687
76984SOL    HW248563   3.300   9.614   0.683 -0.9337 -0.7484 -1.0780
76985SOL     OW48564   4.787  12.450   5.596 -0.0587 -0.2062  0.0178
76985SOL    HW148565   4.820  12.537   5.573 -1.9846  0.5101 -0.2170
76985SOL    HW248566   4.730  12.466   5.671 -2.1611 -0.8839 -1.3530
76986SOL     OW48567  12.920   2.840   9.473 -0.6688  0.2497 -0.4905
76986SOL    HW148568  12.952   2.768   9.527 -0.8368  0.1606 -0.5091
76986SOL    HW248569  12.996   2.897   9.461 -0.9959  1.0786  1.1328
76987SOL     OW48570   3.063   9.986   4.487  0.0378  0.0162 -0.2288
76987SOL    HW148571   3.134   9.922   4.497  0.7154  0.8726  0.6609
76987SOL    HW248572   2.992   9.937   4.444  0.9069 -1.0431 -0.4953
76988SOL     OW48573   1.237   8.252   1.334 -0.0919 -0.2028  0.2448
76988SOL    HW148574   1.289   8.290   1.263  1.2370 -0.3787  1.0865
76988SOL    HW248575   1.245   8.157   1.322  0.7802 -0.2512  1.0370
76989SOL     OW48576   6.722   5.839   4.312  0.2871 -0.8470  0.5147
76989SOL    HW148577   6.749   5.890   4.237  0.0776  1.0284  1.6645
76989SOL    HW248578   6.700   5.753   4.276  2.4342 -0.7443 -1.1950
76990SOL     OW48579   0.725   9.641   5.168 -0.0984 -0.2920 -0.2879
76990SOL    HW148580   0.650   9.649   5.227  0.1143  0.4539 -0.1051
76990SOL    HW248581   0.786   9.708   5.198 -0.3930  0.7830 -1.9647
76991SOL     OW48582  10.583   5.587  13.415 -0.0854 -0.1807 -0.3421
76991SOL    HW148583  10.576   5.513  13.476  0.8100 -0.4970 -0.6130
76991SOL    HW248584  10.502   5.583  13.364  0.2023 -1.3368 -0.7500
76992SOL     OW48585   1.779  14.087  10.893 -0.0879 -0.5848 -0.0422
76992SOL    HW148586   1.849  14.141  10.930 -1.2787 -0.1826  1.7285
76992SOL    HW248587   1.760  14.128  10.809  0.5772  0.3761  0.2526
76993SOL     OW48588   9.728   4.309   6.040  0.3424  0.8474  0.7581
76993SOL    HW148589   9.735   4.253   6.118 -1.3676  0.4228  0.6588
76993SOL    HW248590   9.669   4.380   6.067 -0.5645  0.5017 -0.2246
76994SOL     OW48591   3.771   2.590   2.609  0.0458  0.2509 -0.3914
76994SOL    HW148592   3.722   2.670   2.590 -0.1425  0.1188 -0.4618
76994SOL    HW248593   3.766   2.581   2.705 -0.4580 -0.0092 -0.4393
76995SOL     OW48594  11.802   5.810  13.265  0.0107  0.5698  0.3230
76995SOL    HW148595  11.709   5.831  13.255  0.0140  0.5930  0.3386
76995SOL    HW248596  11.808   5.717  13.243 -0.0438  0.5243  0.4977
76996SOL     OW48597   8.419   4.877  12.146  0.3418  0.4981 -0.5044
76996SOL    HW148598   8.465   4.871  12.062  0.7213  1.4845 -0.3813
76996SOL    HW248599   8.366   4.956  12.139  0.0628  0.3646  0.0387
76997SOL     OW48600   4.839  12.141  10.860 -0.3823 -0.2878 -0.6199
76997SOL    HW148601   4.754  12.102  10.838 -1.5939  1.4396  0.7387
76997SOL    HW248602   4.869  12.094  10.937 -0.6730 -0.1247 -0.4074
76998SOL     OW48603   5.823   2.914  13.042 -0.9898  0.0614 -0.2670
76998SOL    HW148604   5.827   2.858  13.120  0.1249 -1.4887 -1.3892
76998SOL    HW248605   5.895   2.884  12.987 -2.5606  0.1899 -2.5082
76999SOL     OW48606   4.658   1.537   7.654  0.3844  0.0987  0.2609
76999SOL    HW148607   4.590   1.487   7.700  1.3865 -0.3673  1.2686
76999SOL    HW248608   4.716   1.569   7.723  1.9718 -0.6716 -0.6621
77000SOL     OW48609   8.572   9.635  11.792  0.1625  0.0039  0.4740
77000SOL    HW148610   8.583   9.673  11.879  1.7036  0.9063 -0.0727
77000SOL    HW248611   8.657   9.597  11.771 -0.0902  0.0784 -0.7627
77001SOL     OW48612   2.509   3.464  13.804 -0.1778  0.3367 -0.2251
77001SOL    HW148613   2.500   3.406  13.879 -0.1202  0.4649 -0.1197
77001SOL    HW248614   2.571   3.419  13.747  0.4050  0.6265  0.1745
77002SOL     OW48615   6.175   4.076   8.079  0.1703  0.3163  0.5498
77002SOL    HW148616   6.154   4.058   8.171  1.1211 -0.5873  0.6114
77002SOL    HW248617   6.262   4.115   8.081  0.3000  0.0622  0.0203
77003SOL     OW48618   4.978   5.988  13.849 -0.3539  0.3578 -0.5784
77003SOL    HW148619   5.052   5.982  13.909 -0.3824  1.0081 -0.4678
77003SOL    HW248620   4.984   6.076  13.813 -0.5948  0.1266 -1.2004
77004SOL     OW48621   1.173   7.877   1.706  0.4632  0.0847  0.4256
77004SOL    HW148622   1.226   7.900   1.629  2.0785 -1.9698  0.8469
77004SOL    HW248623   1.166   7.959   1.755  2.2648  0.6919 -0.2425
77005SOL     OW48624   5.459   6.246   8.844  0.4786  0.0644  0.1646
77005SOL    HW148625   5.533   6.307   8.843  0.3433  0.2760  1.3702
77005SOL    HW248626   5.473   6.189   8.768  0.9661  1.1664 -0.5891
77006SOL     OW48627  12.433   9.316  12.257  0.0245 -0.0190 -0.4611
77006SOL    HW148628  12.433   9.236  12.310 -0.4994  0.6138  0.5204
77006SOL    HW248629  12.401   9.384  12.316 -1.3215  0.5639 -1.7977
77007SOL     OW48630  13.280   2.233   1.577 -0.1556  0.4912 -0.4856
77007SOL    HW148631  13.350   2.269   1.632 -0.9882 -0.3126  1.1910
77007SOL    HW248632  13.200   2.275   1.609 -0.5814  0.6436 -1.6901
77008SOL     OW48633   7.460  12.834   6.495 -0.3189  0.3498  0.7424
77008SOL    HW148634   7.553  12.811   6.496 -0.7777 -1.7955 -0.1437
77008SOL    HW248635   7.443  12.865   6.407 -0.6930 -0.5766  0.4725
77009SOL     OW48636   3.541   7.255   6.015 -0.6663  0.2232 -0.4857
77009SOL    HW148637   3.608   7.203   6.059 -0.4644 -0.7832 -1.9135
77009SOL    HW248638   3.589   7.328   5.976 -0.0954 -1.2532 -2.7143
77010SOL     OW48639   3.725   3.130   1.585 -0.3377  0.5552  0.1729
77010SOL    HW148640   3.814   3.150   1.612 -0.8074  1.0402  1.4273
77010SOL    HW248641   3.733   3.051   1.531  0.8668  0.7575  0.0459
77011SOL     OW48642   1.791   7.772   0.719 -0.3517  0.4775  0.5519
77011SOL    HW148643   1.701   7.784   0.690 -0.4130  0.1479  0.6048
77011SOL    HW248644   1.836   7.738   0.642 -0.2619  0.6754  0.5149
77012SOL     OW48645  12.855   1.459  11.988  0.3211  0.2541 -0.3709
77012SOL    HW148646  12.858   1.422  11.900 -0.0528  0.1429 -0.3397
77012SOL    HW248647  12.908   1.400  12.042  1.0181  0.6315 -0.6284
77013SOL     OW48648  12.368   4.072   0.553  0.4128 -0.2884 -0.1119
77013SOL    HW148649  12.415   4.140   0.505  1.6250 -1.0660 -0.0549
77013SOL    HW248650  12.381   4.094   0.646  0.1793 -0.1829 -0.1040
77014SOL     OW48651   2.399  13.397   7.031  0.4121  0.4317  0.3837
77014SOL    HW148652   2.318  13.404   6.980  0.2156  0.2256  0.6593
77014SOL    HW248653   2.373  13.350   7.110  1.1392 -1.0550 -0.2249
77015SOL     OW48654   1.100   2.589  13.262 -0.5428 -0.0366  0.3534
77015SOL    HW148655   1.062   2.508  13.294  1.3125 -0.7227  0.9967
77015SOL    HW248656   1.056   2.607  13.180 -0.2259 -2.3118 -0.3702
77016SOL     OW48657   1.808   8.635   0.667 -0.2413 -0.0056  0.3417
77016SOL    HW148658   1.871   8.621   0.737  0.9090  2.8289  0.0158
77016SOL    HW248659   1.844   8.586   0.593  1.1782  0.8835  0.4060
77017SOL     OW48660   8.358   0.818  11.111  0.2123  0.2907 -0.2429
77017SOL    HW148661   8.348   0.727  11.138  0.4020  0.5978  0.9308
77017SOL    HW248662   8.403   0.814  11.027 -1.6107 -0.7685 -1.2286
77018SOL     OW48663  12.654  13.335  10.285  0.2004  0.6062  0.2968
77018SOL    HW148664  12.659  13.371  10.196 -1.8652  1.8993  0.6264
77018SOL    HW248665  12.721  13.267  10.287  0.9657  1.1983 -1.9334
77019SOL     OW48666   8.178   6.400   3.365  0.3921 -0.0744  0.0107
77019SOL    HW148667   8.170   6.416   3.459  0.2968  1.8671 -0.2826
77019SOL    HW248668   8.241   6.329   3.358  0.0914 -0.5454  1.5450
77020SOL     OW48669   8.053  10.942  11.700  1.0854  0.3416 -0.4992
77020SOL    HW148670   8.050  11.036  11.683  0.8661  0.5814  0.7997
77020SOL    HW248671   8.081  10.934  11.791  0.7975 -0.8508 -0.4938
77021SOL     OW48672   5.993  10.765   0.819  0.1424  0.0514  0.1083
77021SOL    HW148673   5.909  10.778   0.862  0.9559  1.1176  1.4422
77021SOL    HW248674   6.014  10.673   0.835 -1.0105 -0.3694 -0.7199
77022SOL     OW48675   4.669  13.070   8.896 -0.0079  0.1312 -0.5210
77022SOL    HW148676   4.655  13.129   8.821 -2.2191  0.6859  0.2469
77022SOL    HW248677   4.640  12.984   8.865  2.9923 -0.6376 -1.5631
77023SOL     OW48678   9.865  10.675   9.997 -0.1550 -0.0857 -0.0021
77023SOL    HW148679   9.866  10.728  10.077  0.8862 -0.9280  0.5714
77023SOL    HW248680   9.940  10.705   9.946  0.7447 -1.2861  0.5543
77024SOL     OW48681   1.980   5.433   7.195 -0.2333  0.1257  0.1163
77024SOL    HW148682   2.002   5.485   7.272  0.4643  0.1367 -0.0881
77024SOL    HW248683   2.039   5.463   7.127  0.1273 -0.8658 -0.0293
77025SOL     OW48684  13.100   3.933   3.223  0.1115  0.3838 -0.1517
77025SOL    HW148685  13.059   3.920   3.137  2.4735  0.4332 -1.3651
77025SOL    HW248686  13.072   4.021   3.250 -0.4581  0.4691 -0.9909
77026SOL     OW48687  10.594   6.690   5.536  0.3606  0.0074  0.1765
77026SOL    HW148688  10.524   6.743   5.573 -0.4431 -1.2565  0.5559
77026SOL    HW248689  10.651   6.752   5.491 -0.3999  1.1961  0.8121
77027SOL     OW48690   0.226   0.985  10.714 -0.1122 -0.0113 -0.3127
77027SOL    HW148691   0.248   1.076  10.732 -0.1121 -0.2181  0.7822
77027SOL    HW248692   0.198   0.985  10.622 -0.3369  1.1329 -0.2610
77028SOL     OW48693   2.430   0.997   6.344 -0.2982 -0.1097 -0.9267
77028SOL    HW148694   2.352   1.053   6.340 -0.5959 -0.2645  1.4073
77028SOL    HW248695   2.400   0.913   6.307 -1.7848 -0.6626  1.3188
77029SOL     OW48696   2.601  10.602   6.796 -0.2219 -0.0730 -0.4390
77029SOL    HW148697   2.572  10.661   6.727 -0.9340  0.4368  0.2781
77029SOL    HW248698   2.597  10.654   6.876  2.5235 -0.0197 -0.2405
77030SOL     OW48699  12.993   9.584   4.138  0.3521 -0.1335  0.1108
77030SOL    HW148700  12.905   9.621   4.138  0.0409 -0.8340 -0.9664
77030SOL    HW248701  12.994   9.524   4.213 -0.0283  0.0174  0.2360
77031SOL     OW48702   3.718   9.858   4.240 -0.5863 -0.5579 -0.2543
77031SOL    HW148703   3.705   9.813   4.156  0.5477  0.3228 -0.9156
77031SOL    HW248704   3.667   9.806   4.302  1.6749 -3.5934 -0.6989
77032SOL     OW48705   6.775   2.959   7.133 -0.0775 -0.4749  0.4706
77032SOL    HW148706   6.773   3.011   7.053  0.5011 -2.4516 -0.9265
77032SOL    HW248707   6.868   2.953   7.156 -0.2886  0.6649  1.7477
77033SOL     OW48708   5.742   0.780   9.736 -0.3824  0.0173 -0.0093
77033SOL    HW148709   5.648   0.789   9.753 -0.3761  1.0196 -0.4426
77033SOL    HW248710   5.754   0.687   9.717 -0.9967 -0.4532  1.6936
77034SOL     OW48711   3.951   3.907   4.969  0.4368 -0.1223  0.3462
77034SOL    HW148712   3.857   3.891   4.970  0.4079  0.0070  0.0225
77034SOL    HW248713   3.967   3.947   4.883  1.1166 -2.2073 -0.5532
77035SOL     OW48714   0.714   1.622   3.352 -0.1439 -0.4809 -0.8786
77035SOL    HW148715   0.770   1.548   3.375 -0.8695 -1.4798 -2.1999
77035SOL    HW248716   0.774   1.687   3.316  0.4834 -0.4531  0.1693
77036SOL     OW48717   6.668  11.119   3.720  0.2686 -0.6822  0.6858
77036SOL    HW148718   6.755  11.094   3.752  0.1122 -1.3365  0.6217
77036SOL    HW248719   6.607  11.063   3.768  0.0541 -2.0227 -1.0253
77037SOL     OW48720   0.551   1.663   4.910  0.2056  0.0428 -0.2041
77037SOL    HW148721   0.496   1.636   4.837 -0.5362 -0.2986  0.4711
77037SOL    HW248722   0.506   1.630   4.988  0.7704  0.7523  0.4385
77038SOL     OW48723   0.665  11.975   6.352 -0.1025 -0.1783 -0.2148
77038SOL    HW148724   0.649  12.049   6.410  1.8202  0.8759 -0.9310
77038SOL    HW248725   0.607  11.990   6.277  0.5116  0.8206 -0.5107
77039SOL     OW48726   7.198   4.147   4.963  0.1673  0.1255 -0.3453
77039SOL    HW148727   7.182   4.053   4.965 -2.0167  0.4560  0.2945
77039SOL    HW248728   7.159   4.176   4.880  2.1679  0.3101 -1.2816
77040SOL     OW48729  12.608   9.124  13.940 -0.2941 -0.1657  0.1406
77040SOL    HW148730  12.697   9.148  13.966 -0.3405  0.5673 -0.3495
77040SOL    HW248731  12.621   9.059  13.871 -0.1689 -1.6490  1.5217
77041SOL     OW48732  12.889   5.444  11.170  0.0055 -0.1419  0.4909
77041SOL    HW148733  12.928   5.390  11.238  0.3233  1.6644  1.8146
77041SOL    HW248734  12.923   5.407  11.088  0.5180 -1.6676  1.3516
77042SOL     OW48735   2.627  11.064   6.298 -0.0638 -0.5101 -0.3605
77042SOL    HW148736   2.686  11.132   6.331  1.7246 -2.6578  1.2081
77042SOL    HW248737   2.589  11.024   6.377 -2.9042  0.1018 -1.3002
77043SOL     OW48738   4.668  12.379   3.422 -0.2097 -0.5631  0.2241
77043SOL    HW148739   4.699  12.420   3.341 -0.7362  0.2054  0.4077
77043SOL    HW248740   4.692  12.287   3.412  0.6429 -0.2910 -0.3614
77044SOL     OW48741  11.956   3.942  10.638 -0.2202 -0.0602  0.0940
77044SOL    HW148742  11.931   4.030  10.666 -0.4655 -0.0843 -0.0452
77044SOL    HW248743  12.021   3.956  10.569 -1.7367  0.0600 -1.3597
77045SOL     OW48744   2.872   3.241  10.297  0.3341 -0.4127  0.1626
77045SOL    HW148745   2.834   3.237  10.385  0.3293  0.1218  0.1912
77045SOL    HW248746   2.912   3.155  10.284  0.1961 -0.5504  0.6251
77046SOL     OW48747  11.198   9.075   2.300 -0.3406 -0.3490 -0.5582
77046SOL    HW148748  11.276   9.029   2.269 -0.1884 -0.3387 -0.1964
77046SOL    HW248749  11.143   9.005   2.336 -0.0052 -0.2221  0.2101
77047SOL     OW48750  13.897   4.259   6.511  0.0535  0.1809  0.0801
77047SOL    HW148751  13.928   4.175   6.479 -1.6682  0.2114 -1.8649
77047SOL    HW248752  13.807   4.265   6.480  0.2040  2.8748 -0.0811
77048SOL     OW48753   3.630  13.303   1.208 -0.4439  0.1919 -0.6842
77048SOL    HW148754   3.699  13.350   1.256 -0.3239  2.0803 -2.5619
77048SOL    HW248755   3.633  13.340   1.120 -1.8917 -1.8368 -1.6517
77049SOL     OW48756   8.246  14.081   4.087  0.4931 -0.1306 -0.5368
77049SOL    HW148757   8.205  14.033   4.015 -1.5171  1.2913 -0.4135
77049SOL    HW248758   8.174  14.128   4.129  1.6175 -0.7598  2.3356
77050SOL     OW48759   2.832   4.431  11.725  0.0766 -0.1965 -0.3242
77050SOL    HW148760   2.921   4.458  11.703 -0.1705  0.7396 -0.2168
77050SOL    HW248761   2.775   4.490  11.675 -0.5064 -1.3112 -1.0391
77051SOL     OW48762   9.286   3.933   4.392  0.5782  0.0400  0.0094
77051SOL    HW148763   9.273   3.879   4.470 -0.9844  0.6328  0.1775
77051SOL    HW248764   9.371   3.974   4.406  0.2087  0.3384  1.5364
77052SOL     OW48765   7.185   9.365   9.454 -0.4823 -0.6283  0.8971
77052SOL    HW148766   7.250   9.384   9.386 -0.7502 -0.3710  0.7125
77052SOL    HW248767   7.129   9.443   9.456 -1.0886 -1.0477  0.7068
77053SOL     OW48768   1.703  11.763   9.763  0.5167 -0.5934 -0.3278
77053SOL    HW148769   1.747  11.689   9.721  1.9192  0.3864 -0.6417
77053SOL    HW248770   1.773  11.815   9.801 -0.6436 -1.0874  2.7916
77054SOL     OW48771   3.443   7.209  11.327  0.3484  0.1023 -0.2678
77054SOL    HW148772   3.494   7.169  11.397 -0.1732  0.4135  0.3031
77054SOL    HW248773   3.448   7.303  11.345  1.8870  0.3680 -1.8103
77055SOL     OW48774   6.688   9.025   4.671 -0.1478  0.1087  0.0859
77055SOL    HW148775   6.734   8.967   4.732 -1.1805  1.8056  2.6729
77055SOL    HW248776   6.608   8.977   4.648  0.9469 -1.1662 -1.1714
77056SOL     OW48777   1.565   0.097   5.844  0.3541  0.0855 -0.1739
77056SOL    HW148778   1.551   0.169   5.905 -2.1990  0.4480 -1.0861
77056SOL    HW248779   1.588   0.139   5.761 -2.2643  0.0291 -1.0157
77057SOL     OW48780   1.907   1.846   8.236 -0.0428 -0.1772  0.1830
77057SOL    HW148781   1.931   1.837   8.328 -2.0970 -0.6037  0.7358
77057SOL    HW248782   1.913   1.757   8.201  0.3719 -0.0781 -0.0022
77058SOL     OW48783  10.546  13.820   0.961  0.0381  0.0158  0.2173
77058SOL    HW148784  10.472  13.765   0.938 -0.2740  0.4231  0.2214
77058SOL    HW248785  10.623  13.767   0.942 -0.2635 -0.7433  1.0671
77059SOL     OW48786   0.301   8.514   2.877 -0.3546 -0.5503  0.4057
77059SOL    HW148787   0.395   8.494   2.876 -0.0792  0.5782 -1.3843
77059SOL    HW248788   0.258   8.430   2.890  0.8995 -1.1296  0.9597
77060SOL     OW48789   1.213   1.929   3.291  0.4178  0.3754  0.6333
77060SOL    HW148790   1.222   2.022   3.272 -1.9632  0.4130 -0.7156
77060SOL    HW248791   1.280   1.887   3.237  0.1934  1.1863 -0.3145
77061SOL     OW48792   2.830   4.471  12.551  0.0243  0.1022  0.4249
77061SOL    HW148793   2.800   4.464  12.642  0.1206  1.8548  0.6195
77061SOL    HW248794   2.771   4.535  12.511 -1.1356 -1.9112 -1.2860
77062SOL     OW48795   3.145   7.288  11.737 -0.1320  0.0211 -0.5400
77062SOL    HW148796   3.154   7.298  11.832 -0.5239  0.1915 -0.5167
77062SOL    HW248797   3.234   7.289  11.704 -0.0112  0.3088 -0.2079
77063SOL     OW48798  12.880  11.748  11.595  0.1504 -0.1314 -0.2937
77063SOL    HW148799  12.872  11.804  11.517  0.5104  0.8008  0.3106
77063SOL    HW248800  12.903  11.662  11.561 -0.0771  0.1665 -1.2383
77064SOL     OW48801  10.427   4.393  14.047 -0.4541 -0.2554  0.1411
77064SOL    HW148802  10.387   4.435  14.123  0.5758  0.8685  0.0998
77064SOL    HW248803  10.470   4.315  14.083 -3.0704 -1.8336  0.0930
77065SOL     OW48804  13.540   8.734  11.234  0.0165 -0.2348 -0.1543
77065SOL    HW148805  13.530   8.829  11.233 -0.2923 -0.2495  1.0296
77065SOL    HW248806  13.451   8.700  11.228  0.0742 -0.4385  0.1170
77066SOL     OW48807  10.869   5.336   8.694 -0.0910  0.4477 -0.3818
77066SOL    HW148808  10.960   5.324   8.723 -0.2941  0.3065  0.1956
77066SOL    HW248809  10.825   5.255   8.719 -0.1551  0.1108 -1.5456
77067SOL     OW48810   0.960   3.540  13.086 -0.8854  0.0550 -0.6085
77067SOL    HW148811   0.998   3.557  13.172 -2.1134  2.0270 -0.3640
77067SOL    HW248812   0.865   3.536  13.102 -1.1301  0.3088 -1.8196
77068SOL     OW48813   4.337   2.106   4.965 -0.5256  0.0865 -0.0571
77068SOL    HW148814   4.288   2.189   4.961 -2.1111 -0.8495 -1.2952
77068SOL    HW248815   4.282   2.049   5.019  0.4123 -0.2707  0.5381
77069SOL     OW48816   1.849  12.899   9.158 -0.0247 -0.4303  0.0229
77069SOL    HW148817   1.889  12.937   9.236  0.1278  0.3303 -0.4137
77069SOL    HW248818   1.904  12.929   9.085  0.1765 -1.6060 -0.3372
77070SOL     OW48819   4.364  14.055   5.849 -0.3705  0.4125 -0.0044
77070SOL    HW148820   4.305  14.109   5.796 -0.7574  1.1532  1.1499
77070SOL    HW248821   4.337  13.965   5.830 -0.7287  0.6748 -0.7838
77071SOL     OW48822   5.090   6.034   1.492  0.3005 -0.7619 -0.5138
77071SOL    HW148823   5.116   5.950   1.531 -1.6755 -0.5122  1.5166
77071SOL    HW248824   5.004   6.017   1.454  0.3132  0.1138 -0.9441
77072SOL     OW48825  10.819  10.604  12.864  0.2441  0.7297  0.2317
77072SOL    HW148826  10.839  10.670  12.797  0.2127  0.2629 -0.2516
77072SOL    HW248827  10.771  10.651  12.931  0.0613  1.1600 -0.1945
77073SOL     OW48828   3.839   1.239   5.236 -0.0084 -0.1014 -0.0220
77073SOL    HW148829   3.922   1.285   5.247  0.1161 -0.0067 -1.1690
77073SOL    HW248830   3.857   1.149   5.262  0.0814  0.2077  1.0248
77074SOL     OW48831   1.952   7.645   8.517 -0.2298  0.4231  0.0955
77074SOL    HW148832   1.889   7.585   8.555  0.5992 -0.3833  0.2451
77074SOL    HW248833   1.957   7.620   8.425  0.5882 -0.2001  0.2898
77075SOL     OW48834   9.410   3.288   0.116 -0.1626  0.1863  0.3743
77075SOL    HW148835   9.483   3.349   0.110 -1.3778  1.7482  0.9468
77075SOL    HW248836   9.451   3.201   0.108  1.4812  1.0537 -1.6610
77076SOL     OW48837  13.415   6.586   6.055  0.5097  0.2100 -0.4685
77076SOL    HW148838  13.339   6.639   6.079 -0.8934 -1.5592 -0.7866
77076SOL    HW248839  13.482   6.609   6.120 -0.9565  0.3684  1.0622
77077SOL     OW48840  12.044  11.382   6.708  0.6324 -0.5458 -0.6831
77077SOL    HW148841  12.101  11.311   6.737  2.1461  0.9995  0.3650
77077SOL    HW248842  12.101  11.438   6.655  0.2327  1.2152  0.6469
77078SOL     OW48843   0.934   1.589   6.138 -0.5079 -0.3493  0.8197
77078SOL    HW148844   0.961   1.498   6.122 -0.5158 -0.2639  0.2780
77078SOL    HW248845   0.889   1.615   6.057  1.8823  1.0201 -0.1800
77079SOL     OW48846   5.999   1.097  10.644  0.3500 -0.4768 -0.4137
77079SOL    HW148847   5.951   1.125  10.722 -1.7546 -0.5202 -1.6158
77079SOL    HW248848   6.076   1.153  10.641 -0.7967  1.2191  0.3720
77080SOL     OW48849  13.707   5.145   4.190 -0.1360  0.2326 -0.4047
77080SOL    HW148850  13.616   5.166   4.212  0.1529  0.5878  0.5078
77080SOL    HW248851  13.708   5.049   4.180 -0.5356  0.1893 -0.0403
77081SOL     OW48852   6.147   5.554  12.952  0.3638 -0.6876 -0.0472
77081SOL    HW148853   6.106   5.488  13.008  0.6793  0.8517  2.1227
77081SOL    HW248854   6.077   5.579  12.891 -0.5535 -1.2054  0.7513
77082SOL     OW48855  12.307   4.113   7.948 -0.0963  0.0484  0.1699
77082SOL    HW148856  12.344   4.072   8.026 -0.5866  0.6059  0.7059
77082SOL    HW248857  12.212   4.105   7.960 -0.1820 -0.7820 -0.8719
77083SOL     OW48858  11.920   7.236  13.849  0.8067 -0.4869 -0.3085
77083SOL    HW148859  11.980   7.253  13.776  1.7146 -1.4876  0.1885
77083SOL    HW248860  11.935   7.308  13.910  0.5151 -0.0030 -0.7990
77084SOL     OW48861   7.284   1.062   0.805  0.0331 -0.3674  0.2269
77084SOL    HW148862   7.335   1.056   0.885  0.8215  0.6908 -0.1692
77084SOL    HW248863   7.194   1.074   0.834  0.0727 -1.6316  0.9359
77085SOL     OW48864  11.641   4.098   1.192  0.0159  0.4808  0.1549
77085SOL    HW148865  11.551   4.080   1.217 -0.0195  0.3597 -0.0599
77085SOL    HW248866  11.637   4.121   1.099  0.1643  0.8030  0.2263
77086SOL     OW48867   6.175   7.950  13.923 -0.2666  0.5931 -0.0495
77086SOL    HW148868   6.153   7.980  13.835  0.3187  0.5743 -0.2050
77086SOL    HW248869   6.222   8.024  13.963 -2.3183  1.4174  0.9968
77087SOL     OW48870   1.418   9.803   9.330  0.1336 -0.3567  0.4231
77087SOL    HW148871   1.478   9.738   9.367  0.9883 -0.4518 -1.0380
77087SOL    HW248872   1.405   9.867   9.400  2.2418 -0.1419  0.6818
77088SOL     OW48873   7.047   0.923   2.753  0.0442  0.2088 -0.2394
77088SOL    HW148874   7.088   0.837   2.764 -1.2814 -0.3668  0.3924
77088SOL    HW248875   7.110   0.972   2.700  0.9733 -1.0358 -0.3531
77089SOL     OW48876   6.186   1.197   0.141  0.4504 -0.4576  0.0716
77089SOL    HW148877   6.115   1.188   0.077 -0.6778 -0.7174  1.3237
77089SOL    HW248878   6.160   1.142   0.215  1.8904 -0.4346  0.6372
77090SOL     OW48879  13.793   5.187   8.050 -0.4697  0.4825 -0.4472
77090SOL    HW148880  13.888   5.193   8.044 -0.1515 -1.0118  1.9305
77090SOL    HW248881  13.766   5.159   7.962  1.5175 -1.1474 -0.6244
77091SOL     OW48882   1.359  13.273   8.073  0.1589 -0.0286  0.5356
77091SOL    HW148883   1.291  13.327   8.113  0.2668 -0.0798  0.7900
77091SOL    HW248884   1.440  13.303   8.113  0.0624 -1.4519  1.8866
77092SOL     OW48885   3.255   8.203   4.649 -0.2366  0.8840  0.4685
77092SOL    HW148886   3.179   8.240   4.694 -0.9942  0.9726 -0.8265
77092SOL    HW248887   3.309   8.279   4.627  0.8665  0.7416  2.3923
77093SOL     OW48888   3.321   2.728   2.147  0.0312  0.1213  0.1081
77093SOL    HW148889   3.237   2.684   2.134 -0.7669  1.3635  0.8033
77093SOL    HW248890   3.327   2.790   2.075  1.0864 -0.9725 -0.7898
77094SOL     OW48891   1.532   1.163   1.472 -0.1866  0.2406  0.1971
77094SOL    HW148892   1.455   1.163   1.414 -0.6990  0.5270  0.8537
77094SOL    HW248893   1.538   1.253   1.503  0.8274  0.3760 -0.3612
77095SOL     OW48894  11.540   7.522   1.947 -0.2306  0.1669 -0.1172
77095SOL    HW148895  11.462   7.578   1.949 -0.3487  0.0111 -0.3429
77095SOL    HW248896  11.509   7.438   1.914 -0.0952 -0.1057  0.4330
77096SOL     OW48897   8.870   7.538  10.785  0.0155  0.8041  0.6740
77096SOL    HW148898   8.783   7.505  10.767  0.6646 -0.9999  0.6697
77096SOL    HW248899   8.892   7.593  10.709 -1.7438  2.7605  1.4610
77097SOL     OW48900   0.104  13.443  11.184  0.0166 -0.2743  0.4307
77097SOL    HW148901   0.154  13.499  11.243 -1.1584 -0.0892  1.2735
77097SOL    HW248902   0.028  13.496  11.160  0.1355 -0.6016 -0.7218
77098SOL     OW48903   1.217   7.036   2.773 -0.4816 -0.2737  0.5597
77098SOL    HW148904   1.248   6.952   2.741  1.7144  0.2165  1.2393
77098SOL    HW248905   1.284   7.099   2.746 -1.7480  1.1806  0.6179
77099SOL     OW48906  12.805   6.998   8.239 -0.0210 -0.7247 -0.1246
77099SOL    HW148907  12.793   6.982   8.333 -0.4369  1.2415  0.2086
77099SOL    HW248908  12.821   6.911   8.202 -1.8613 -1.8345  1.4538
77100SOL     OW48909   4.646  10.601   9.380 -0.0075 -0.1462  0.4430
77100SOL    HW148910   4.660  10.574   9.471 -0.6691  0.2941  0.6905
77100SOL    HW248911   4.729  10.642   9.354  0.0662  0.0604  0.9772
77101SOL     OW48912  11.530   4.967  12.829 -0.3222  0.2501 -0.3767
77101SOL    HW148913  11.557   5.005  12.745  1.8633 -0.5425 -0.0797
77101SOL    HW248914  11.603   4.911  12.855 -1.0842  0.2168  1.9050
77102SOL     OW48915  12.078   9.091   2.935  0.3701 -0.3585 -0.0693
77102SOL    HW148916  12.116   9.018   2.886 -0.0926  0.5874 -1.9137
77102SOL    HW248917  11.985   9.087   2.914  0.5485  1.6510 -1.4629
77103SOL     OW48918   3.721  13.869   4.470 -0.2850  0.6981 -0.0757
77103SOL    HW148919   3.690  13.836   4.554  0.9572  0.5602  0.3495
77103SOL    HW248920   3.769  13.950   4.492  1.1437 -0.0069 -0.4660
77104SOL     OW48921  11.365   9.542  10.931 -0.1748 -0.7443 -0.6763
77104SOL    HW148922  11.430   9.607  10.902  0.0550 -1.0281 -0.8091
77104SOL    HW248923  11.282   9.588  10.929 -0.1142 -0.6518 -1.4498
77105SOL     OW48924   4.492   3.927   5.227 -0.2910  0.3303  0.1447
77105SOL    HW148925   4.555   3.915   5.157  0.7938  0.6370  1.0450
77105SOL    HW248926   4.417   3.874   5.201  0.0986  0.4067 -1.2166
77106SOL     OW48927  13.908   0.871   6.072 -0.2983 -0.3195  0.1240
77106SOL    HW148928  13.999   0.888   6.045 -0.5190  0.1403 -0.3514
77106SOL    HW248929  13.916   0.833   6.160  0.4016 -1.2609 -0.3329
77107SOL     OW48930  11.048   9.318   1.644  0.2750  0.2768 -0.2309
77107SOL    HW148931  11.123   9.266   1.613  0.9072  0.4906  0.8720
77107SOL    HW248932  11.026   9.375   1.571  1.1068  0.0968 -0.6289
77108SOL     OW48933  11.902   7.183   3.957  0.3801  0.3260  0.2333
77108SOL    HW148934  11.810   7.175   3.984  0.2275  0.1645 -0.3157
77108SOL    HW248935  11.902   7.258   3.897  0.3419 -0.5694 -0.9017
77109SOL     OW48936  10.644   9.889   5.978  0.3421 -0.3122 -0.3482
77109SOL    HW148937  10.607   9.912   5.893 -0.9818 -0.7255  0.0977
77109SOL    HW248938  10.667   9.796   5.969 -1.0091 -0.7030  0.1529
77110SOL     OW48939   5.141   0.177  14.043  0.6323 -0.0797  0.3720
77110SOL    HW148940   5.129   0.091  14.084 -1.0817 -0.2862 -0.4396
77110SOL    HW248941   5.235   0.184  14.027  0.7794 -1.8959  0.2838
77111SOL     OW48942  10.723   9.278   1.500 -0.4912 -0.2994  0.3477
77111SOL    HW148943  10.706   9.194   1.542 -1.1396 -0.4193 -0.1391
77111SOL    HW248944  10.719   9.342   1.571 -0.7843 -0.5857  0.5918
77112SOL     OW48945   0.761   8.733   1.468 -0.2174  0.0148  0.1489
77112SOL    HW148946   0.812   8.696   1.396  0.7401 -0.9711  1.2892
77112SOL    HW248947   0.819   8.728   1.544 -1.2151  0.9842  1.0172
77113SOL     OW48948   5.624   3.527  13.720  0.7801  0.7692  0.5310
77113SOL    HW148949   5.637   3.545  13.813  0.4854  0.2041  0.6901
77113SOL    HW248950   5.533   3.496  13.714  1.1641 -0.3443  0.2445
77114SOL     OW48951   6.811  13.373   7.653  0.3872 -0.0828  0.3719
77114SOL    HW148952   6.739  13.312   7.667  0.2739 -0.1110 -0.2843
77114SOL    HW248953   6.772  13.445   7.604  0.4810  0.6027  1.2863
77115SOL     OW48954  13.062  11.291   7.038  0.1416 -0.1762 -0.0371
77115SOL    HW148955  13.108  11.208   7.030  1.2384  0.4810 -0.7433
77115SOL    HW248956  13.077  11.318   7.129 -0.6299 -0.9597  0.3399
77116SOL     OW48957   3.663  13.175   0.408  0.2289  0.2886 -0.5132
77116SOL    HW148958   3.754  13.152   0.427  0.3644  0.9558 -0.3372
77116SOL    HW248959   3.612  13.106   0.450  0.6468 -0.0412 -0.5338
77117SOL     OW48960   0.300   5.203   5.527  0.1046  0.1862 -0.2810
77117SOL    HW148961   0.311   5.172   5.617  1.4243  0.5997 -0.2775
77117SOL    HW248962   0.384   5.182   5.485 -0.1656  0.8423 -1.1593
77118SOL     OW48963   5.749  12.288   4.741 -0.0101 -0.0271 -0.1499
77118SOL    HW148964   5.789  12.259   4.659 -1.8632 -2.7071 -0.2445
77118SOL    HW248965   5.820  12.283   4.805  0.6394 -1.4862 -0.9259
77119SOL     OW48966   1.287  12.401  12.750 -0.0073 -0.5103  0.3921
77119SOL    HW148967   1.223  12.469  12.769 -0.0440  0.3664 -2.4081
77119SOL    HW248968   1.243  12.319  12.773 -2.0390  0.0943 -1.0383
77120SOL     OW48969  13.888   9.452  10.903 -0.8965 -0.3413  0.3960
77120SOL    HW148970  13.882   9.361  10.874 -0.7963  0.3525 -1.9560
77120SOL    HW248971  13.980   9.475  10.894 -0.7207 -0.2854  2.0198
77121SOL     OW48972   6.982   4.030   5.515  0.4431  0.1273 -0.4312
77121SOL    HW148973   6.910   4.082   5.549  0.9920  0.1476  0.7360
77121SOL    HW248974   7.027   4.089   5.453 -0.4198  0.1634 -1.0444
77122SOL     OW48975  10.744   5.173   4.623  0.0220  0.2235  0.7283
77122SOL    HW148976  10.770   5.240   4.685  1.5953 -0.0085  0.3583
77122SOL    HW248977  10.818   5.112   4.620 -0.0490  0.1482 -1.2339
77123SOL     OW48978  11.614   6.894   0.861 -0.4355 -0.6475  0.4894
77123SOL    HW148979  11.592   6.826   0.925  1.0606 -1.6225  0.0381
77123SOL    HW248980  11.702   6.871   0.832 -0.6148  0.4658 -1.0449
77124SOL     OW48981   4.262  12.619  11.265 -0.1025 -0.2615  0.3270
77124SOL    HW148982   4.195  12.665  11.215 -0.4455  0.0188  1.0285
77124SOL    HW248983   4.343  12.634  11.217 -0.7391 -1.8272 -1.3738
77125SOL     OW48984  11.810   3.614   7.411 -0.2949  0.4725  0.3595
77125SOL    HW148985  11.894   3.594   7.452  0.3028  0.4020 -0.8499
77125SOL    HW248986  11.772   3.682   7.467  0.4558  0.3465  1.0531
77126SOL     OW48987   9.231   0.800  12.560  0.3502 -0.2836  0.0359
77126SOL    HW148988   9.155   0.800  12.501 -0.5990 -1.4606  1.2026
77126SOL    HW248989   9.255   0.708  12.567  1.2073 -0.0267  0.5665
77127SOL     OW48990   9.801   7.162  13.477 -0.0230  0.0294 -0.3716
77127SOL    HW148991   9.716   7.119  13.480  0.1762 -0.4163 -0.9803
77127SOL    HW248992   9.842   7.141  13.561 -1.0123  1.3186  0.4827
77128SOL     OW48993   3.244   9.861   4.884 -0.2667 -0.1669 -0.0129
77128SOL    HW148994   3.285   9.851   4.970 -1.4782 -0.9388  0.5055
77128SOL    HW248995   3.192   9.941   4.891 -0.3676 -0.2307 -0.0396
77129SOL     OW48996   0.425  11.205   1.455 -0.3267  0.0498 -0.1922
77129SOL    HW148997   0.437  11.110   1.445  0.0268  0.2777 -2.7298
77129SOL    HW248998   0.365  11.214   1.529  0.0233 -2.1079  0.4437
77130SOL     OW48999   8.458  12.232  10.202  0.2916  0.1625  0.0007
77130SOL    HW149000   8.515  12.286  10.147 -0.1045  1.0438  0.4349
77130SOL    HW249001   8.378  12.222  10.151  0.6544 -0.6816 -0.4109
77131SOL     OW49002  10.971  13.872   1.732 -0.3292  0.9029 -0.1342
77131SOL    HW149003  10.895  13.814   1.722  0.2042  0.1994 -0.1970
77131SOL    HW249004  10.934  13.957   1.752 -1.0945 -0.0905  3.2526
77132SOL     OW49005   1.712  12.308   9.792  0.4516 -0.5121 -0.2452
77132SOL    HW149006   1.680  12.238   9.736  0.5333 -0.9370  0.2335
77132SOL    HW249007   1.667  12.387   9.761  0.4695 -0.7470 -0.8781
77133SOL     OW49008   4.076   1.127  11.975  0.1650 -0.4932 -0.4790
77133SOL    HW149009   4.146   1.192  11.987 -0.7267  0.4082  0.0644
77133SOL    HW249010   4.122   1.044  11.967  1.2605 -0.0700  0.9308
77134SOL     OW49011   8.632   1.710   5.705 -0.2747 -0.2787 -0.2303
77134SOL    HW149012   8.575   1.780   5.736 -0.6881 -0.7920  0.1848
77134SOL    HW249013   8.704   1.756   5.661 -1.5749  0.3335 -1.7865
77135SOL     OW49014  12.454   4.595  13.341  0.1387  0.6381  0.0833
77135SOL    HW149015  12.429   4.684  13.365 -0.5723 -0.0362  2.0000
77135SOL    HW249016  12.372   4.553  13.316  0.5227  0.5884 -1.1736
77136SOL     OW49017   2.889   9.432   6.823  0.1439  0.2748  0.2695
77136SOL    HW149018   2.910   9.389   6.906 -2.0991 -2.6702 -0.5075
77136SOL    HW249019   2.971   9.428   6.774  0.2368 -3.0360  0.4179
77137SOL     OW49020   2.758   9.251  10.325 -0.1075  0.3528 -0.8605
77137SOL    HW149021   2.850   9.227  10.337 -0.3944 -0.9105 -1.0420
77137SOL    HW249022   2.713   9.168  10.313 -1.0794  1.0341 -2.1838
77138SOL     OW49023   1.357  12.489   2.496 -0.4749 -0.3127  0.2527
77138SOL    HW149024   1.395  12.577   2.490  3.0423 -1.6283  0.6626
77138SOL    HW249025   1.354  12.459   2.406  1.0266 -0.7339  0.3180
77139SOL     OW49026   5.943   1.204  11.858  0.1880 -0.1739 -0.3006
77139SOL    HW149027   5.980   1.116  11.856 -0.5522 -0.4898 -0.5543
77139SOL    HW249028   5.978   1.243  11.937  1.4012 -0.3019 -0.7584
77140SOL     OW49029  12.221  13.534   3.702 -0.3925  0.0641 -0.5307
77140SOL    HW149030  12.241  13.456   3.650 -0.1887  0.9792 -1.8611
77140SOL    HW249031  12.185  13.596   3.640  1.0550  1.6774  0.1479
77141SOL     OW49032   0.930  12.190   4.179 -0.3112 -0.2077  0.0371
77141SOL    HW149033   1.017  12.194   4.139  0.2573 -0.8002  1.1567
77141SOL    HW249034   0.901  12.281   4.186 -0.3786 -0.0919 -1.5857
77142SOL     OW49035   0.675   8.131  14.035 -0.4379  0.1166 -0.1228
77142SOL    HW149036   0.655   8.220  14.065  0.3926 -0.5262  2.6110
77142SOL    HW249037   0.757   8.140  13.987 -0.9315  0.9610 -0.8440
77143SOL     OW49038   2.589   4.291  10.651  0.1789 -1.0070  0.0118
77143SOL    HW149039   2.655   4.328  10.592 -0.2905  1.3479  0.8706
77143SOL    HW249040   2.532   4.239  10.593  1.3861 -1.1412 -1.1097
77144SOL     OW49041   6.952  10.909   0.872 -1.0268  0.6114  0.5898
77144SOL    HW149042   6.888  10.887   0.805 -0.0543 -1.9432  0.3651
77144SOL    HW249043   6.989  10.993   0.844 -1.1296 -0.0492 -1.7327
77145SOL     OW49044   2.248   2.027  10.340  0.2895  0.5371 -0.7650
77145SOL    HW149045   2.153   2.023  10.353 -0.0848 -0.2419 -3.1551
77145SOL    HW249046   2.263   2.110  10.295  0.8335  0.8966  0.0600
77146SOL     OW49047   9.000   0.912   6.180  0.2346 -1.0493  0.0283
77146SOL    HW149048   8.993   0.864   6.098  1.5195  1.2241 -1.5202
77146SOL    HW249049   8.928   0.976   6.177  1.0721 -0.0711 -0.0138
77147SOL     OW49050   2.291   7.451   4.600 -0.3198  0.0995  0.5435
77147SOL    HW149051   2.298   7.540   4.634  1.3307 -0.0981  0.8183
77147SOL    HW249052   2.204   7.447   4.560  0.1105  2.2975 -0.7711
77148SOL     OW49053  11.517   9.341   0.359  0.2302  0.0084  0.1850
77148SOL    HW149054  11.530   9.299   0.274 -1.5172 -1.4202  0.5532
77148SOL    HW249055  11.437   9.394   0.348  1.2627  1.6741  0.3251
77149SOL     OW49056   2.527   3.469  10.700 -0.0442 -0.4613  0.0868
77149SOL    HW149057   2.571   3.424  10.628 -0.2347  0.9141 -0.9236
77149SOL    HW249058   2.598   3.503  10.754  0.1832  0.8892 -0.9973
77150SOL     OW49059   4.786  10.045   9.373  0.1913  0.2397 -0.8178
77150SOL    HW149060   4.794  10.069   9.280 -0.7906  0.8402 -0.7608
77150SOL    HW249061   4.734  10.116   9.411  0.3956 -0.1228  0.1487
77151SOL     OW49062  12.686   6.037  12.511 -0.1705 -0.0332  0.1385
77151SOL    HW149063  12.733   5.965  12.470 -0.2918  0.4411 -0.8770
77151SOL    HW249064  12.679   6.103  12.442 -0.1110  0.9311  1.0273
77152SOL     OW49065  13.624  10.364   7.094 -0.4732 -0.4590  0.3448
77152SOL    HW149066  13.565  10.292   7.117 -1.6760  0.0897 -0.8914
77152SOL    HW249067  13.576  10.443   7.116 -0.2172  0.0027 -0.6793
77153SOL     OW49068   1.054   2.827   0.598  0.0427 -0.0243 -0.4601
77153SOL    HW149069   1.052   2.742   0.642  0.0961  0.4458  0.4812
77153SOL    HW249070   0.997   2.817   0.522 -0.7466 -0.6092  0.2020
77154SOL     OW49071   1.621  13.087  13.201  0.5165 -0.1959 -0.3336
77154SOL    HW149072   1.686  13.028  13.164  1.4263  0.5439  0.0414
77154SOL    HW249073   1.622  13.163  13.143 -0.8015 -0.6167 -0.9384
77155SOL     OW49074  12.546   4.406   3.453 -0.6744  0.2260  0.4385
77155SOL    HW149075  12.457   4.387   3.481 -2.0110 -0.6469 -3.7413
77155SOL    HW249076  12.588   4.320   3.448 -0.0683  0.4866  0.9141
77156SOL     OW49077  12.458   8.334   0.809 -0.7446 -0.3889 -0.3511
77156SOL    HW149078  12.434   8.424   0.830 -0.9452 -0.4631 -0.2587
77156SOL    HW249079  12.536   8.317   0.862 -0.9388 -0.3995 -0.0635
77157SOL     OW49080  11.904   9.426  13.800 -0.1589  0.2635  0.1770
77157SOL    HW149081  11.974   9.363  13.787  0.4151  1.0169 -0.4759
77157SOL    HW249082  11.823   9.376  13.786  0.2361 -0.6224  0.9931
77158SOL     OW49083   8.168   1.577   4.317 -0.0959  0.1509  0.4620
77158SOL    HW149084   8.146   1.582   4.224  1.1063 -0.6589  0.0984
77158SOL    HW249085   8.096   1.529   4.357 -0.4765  0.2343 -0.1221
77159SOL     OW49086   8.266   0.644   6.285 -0.3543  0.2260  0.1541
77159SOL    HW149087   8.284   0.589   6.361  1.9021  2.1368  1.1382
77159SOL    HW249088   8.286   0.588   6.210 -0.4719 -1.0107  1.0059
77160SOL     OW49089   7.532   1.284   0.578  0.1225  0.3615 -0.4226
77160SOL    HW149090   7.459   1.276   0.517  1.3288  0.9647 -2.0193
77160SOL    HW249091   7.518   1.368   0.622  0.4473  1.0598 -1.5998
77161SOL     OW49092  10.030  12.440  12.267  0.2422 -0.2047 -0.7871
77161SOL    HW149093   9.950  12.487  12.245  0.6944  0.5441 -0.8705
77161SOL    HW249094  10.101  12.495  12.233  0.8301 -0.4963 -0.0774
77162SOL     OW49095   9.491   2.430  10.338  0.1739 -0.5982  0.0384
77162SOL    HW149096   9.516   2.342  10.365  0.0627 -0.3368  1.0295
77162SOL    HW249097   9.440   2.464  10.411 -1.1749 -0.2961 -0.9973
77163SOL     OW49098   1.437   4.121   8.791  0.2199 -0.2323  0.2491
77163SOL    HW149099   1.503   4.058   8.820 -0.1638 -1.1406 -0.7760
77163SOL    HW249100   1.436   4.188   8.860  1.5091 -0.6964  0.7579
77164SOL     OW49101   5.386   6.968   0.905  0.0497  0.2960 -0.6204
77164SOL    HW149102   5.399   7.000   0.815  1.6504  3.5998  0.6397
77164SOL    HW249103   5.291   6.956   0.912 -0.3197  1.7556 -2.2439
77165SOL     OW49104   8.276  11.432  11.591 -0.0873  0.0505  1.0015
77165SOL    HW149105   8.209  11.367  11.612 -1.0054  1.3149  2.1595
77165SOL    HW249106   8.228  11.514  11.585  0.7042  0.4099 -2.5280
77166SOL     OW49107   1.618   5.192  13.182 -0.5546 -0.5334 -0.3407
77166SOL    HW149108   1.643   5.172  13.272  0.1502 -0.1585 -0.4407
77166SOL    HW249109   1.536   5.144  13.168 -1.4210  0.4891  0.9390
77167SOL     OW49110  10.265   8.135   2.475 -0.1639  0.0525 -0.5065
77167SOL    HW149111  10.361   8.139   2.476 -0.1632  0.1159  0.3173
77167SOL    HW249112  10.239   8.181   2.555 -0.8868  0.0809 -0.7499
77168SOL     OW49113   1.181   5.526   9.322  0.2099 -0.0528 -0.0832
77168SOL    HW149114   1.197   5.573   9.404  0.0603 -0.7566  0.3541
77168SOL    HW249115   1.087   5.533   9.308  0.3653  0.9249 -0.7284
77169SOL     OW49116  13.164   6.768   9.979 -0.3874 -0.6525  0.2367
77169SOL    HW149117  13.173   6.813   9.895  1.6558 -0.2263  0.6334
77169SOL    HW249118  13.206   6.826  10.042 -0.8356 -1.5163  1.3676
77170SOL     OW49119   2.879   1.535   2.691  0.2460 -0.2735  0.3146
77170SOL    HW149120   2.845   1.591   2.761 -2.2176 -0.7974 -0.3699
77170SOL    HW249121   2.858   1.582   2.610  0.6961 -0.8829 -0.1692
77171SOL     OW49122   8.962  11.389   3.070  0.4858 -0.3990 -0.0190
77171SOL    HW149123   8.957  11.351   2.982 -0.3260  0.7288 -0.4840
77171SOL    HW249124   8.923  11.323   3.126 -0.8261 -0.3154 -0.7970
77172SOL     OW49125   9.239   0.837   9.418 -0.3919  0.3609  0.2655
77172SOL    HW149126   9.234   0.754   9.466  0.5685 -0.6737 -1.3289
77172SOL    HW249127   9.262   0.811   9.328 -1.2670  2.2736 -0.5584
77173SOL     OW49128  12.215   4.777   5.872 -0.0245  0.0963  0.2622
77173SOL    HW149129  12.176   4.735   5.796  1.0499 -0.1790 -0.1504
77173SOL    HW249130  12.193   4.719   5.945  0.9861 -0.9053 -0.2176
77174SOL     OW49131  10.600   8.926  13.382 -0.8858 -0.5782  0.0679
77174SOL    HW149132  10.648   8.850  13.417 -1.2309 -0.9549 -0.2622
77174SOL    HW249133  10.509   8.910  13.407 -1.2473 -1.1920 -1.5630
77175SOL     OW49134  13.406  11.475   8.219  0.0613 -0.0904 -0.4847
77175SOL    HW149135  13.375  11.518   8.299  1.2614 -0.7494  0.3732
77175SOL    HW249136  13.365  11.524   8.148  0.4973  1.7729  0.4829
77176SOL     OW49137  13.553   2.007   0.429  0.1515  0.2819  0.0480
77176SOL    HW149138  13.630   2.025   0.375 -1.8048  0.4646 -2.8379
77176SOL    HW249139  13.559   1.913   0.448  0.8246  0.2027 -0.5256
77177SOL     OW49140  12.273   2.799   3.559  0.0344  0.6389 -0.1865
77177SOL    HW149141  12.359   2.819   3.521 -0.1755  0.7576 -0.6110
77177SOL    HW249142  12.281   2.707   3.587  0.2835  0.6316 -0.2704
77178SOL     OW49143   5.106   9.633   6.039  0.1562 -0.4757 -0.2543
77178SOL    HW149144   5.142   9.630   5.951  1.1382 -2.0736  0.1677
77178SOL    HW249145   5.076   9.723   6.050  0.2679 -0.1837 -2.1077
77179SOL     OW49146   0.169   7.749  12.839  0.0560  0.1581 -0.0491
77179SOL    HW149147   0.184   7.829  12.789 -0.6302  0.6855  0.5537
77179SOL    HW249148   0.164   7.779  12.930 -2.6447 -0.1840 -0.0095
77180SOL     OW49149   7.073   2.817   4.331 -0.5527  0.7786 -0.0521
77180SOL    HW149150   7.023   2.870   4.393 -0.3388 -0.0477  0.8579
77180SOL    HW249151   7.033   2.731   4.336 -1.1699  0.9368 -1.8458
77181SOL     OW49152   4.667   6.891   5.605  0.4389 -0.1994 -0.1998
77181SOL    HW149153   4.675   6.803   5.568 -0.7476 -1.0944  1.5395
77181SOL    HW249154   4.650   6.877   5.698 -2.4190  1.7548 -0.2938
77182SOL     OW49155  13.723   6.102   1.109  0.7897 -0.0732  0.1784
77182SOL    HW149156  13.700   6.038   1.042 -2.1624  1.6763 -0.6610
77182SOL    HW249157  13.776   6.167   1.064  0.3086  0.1909 -0.0042
77183SOL     OW49158  10.536   6.357   2.889  0.2608  0.1480 -0.2064
77183SOL    HW149159  10.611   6.298   2.893  1.5951  1.6676 -1.3230
77183SOL    HW249160  10.475   6.315   2.829  1.2308 -0.0984 -1.0596
77184SOL     OW49161  13.704   3.767  11.035 -0.4134 -0.0685  0.0673
77184SOL    HW149162  13.622   3.738  11.073 -0.9359 -1.2694 -1.8284
77184SOL    HW249163  13.771   3.712  11.077 -0.6459  0.4349  1.1090
77185SOL     OW49164   6.577   8.667   2.687  0.4719 -0.2686 -0.4730
77185SOL    HW149165   6.525   8.610   2.630 -0.9756 -0.0738  0.5726
77185SOL    HW249166   6.546   8.755   2.668  0.2351 -0.1670  0.3108
77186SOL     OW49167  13.531  12.644   5.732  0.3379 -0.1655 -0.0009
77186SOL    HW149168  13.504  12.562   5.690 -2.9628  1.8173 -2.2710
77186SOL    HW249169  13.604  12.675   5.680  1.0196 -1.2006  0.3132
77187SOL     OW49170  12.945  10.919   9.965  0.5615  0.4491  0.6984
77187SOL    HW149171  13.026  10.879   9.933 -0.1304 -0.6738  0.2849
77187SOL    HW249172  12.885  10.915   9.891 -0.1553  0.4670  1.2647
77188SOL     OW49173  13.209  11.075   9.808 -0.1927 -0.3558  0.3752
77188SOL    HW149174  13.208  10.982   9.785  1.0813 -0.2903 -0.0908
77188SOL    HW249175  13.171  11.119   9.732 -1.1127 -0.5080  0.7391
77189SOL     OW49176   0.095   9.918   1.357 -0.6896  0.5797 -0.1069
77189SOL    HW149177   0.058   9.884   1.276  0.4911  1.1803 -0.9144
77189SOL    HW249178   0.100  10.013   1.343 -1.4013  0.8129  1.0603
77190SOL     OW49179   0.297   3.951   5.573 -0.0045 -0.4829 -0.7638
77190SOL    HW149180   0.233   3.886   5.603 -1.4273  1.0051 -0.4204
77190SOL    HW249181   0.319   3.923   5.484 -0.3611 -1.6025 -0.5138
77191SOL     OW49182  10.752  10.835   3.967 -0.4703  0.2001 -0.1821
77191SOL    HW149183  10.694  10.768   3.932 -0.8585  1.1869 -1.4739
77191SOL    HW249184  10.811  10.857   3.895  1.7252 -0.9365  1.1512
77192SOL     OW49185   5.727  11.769   5.612  0.0110  0.0032  0.1437
77192SOL    HW149186   5.738  11.779   5.707  1.1043 -0.0322  0.0267
77192SOL    HW249187   5.663  11.836   5.589 -3.4242 -2.4523  1.4736
77193SOL     OW49188   7.313   4.586  11.033 -0.3649 -0.0879  0.5399
77193SOL    HW149189   7.361   4.639  10.970 -1.6929  0.6655  0.1186
77193SOL    HW249190   7.275   4.650  11.094 -2.0231 -0.5097  0.0046
77194SOL     OW49191   7.443  11.150   3.510 -0.5789  0.3235  0.0073
77194SOL    HW149192   7.358  11.141   3.552 -1.4930  1.2112 -1.5406
77194SOL    HW249193   7.497  11.081   3.549 -1.3360  1.0659  2.5614
77195SOL     OW49194   0.752   2.357   8.252  0.5604 -0.7413 -0.4746
77195SOL    HW149195   0.830   2.326   8.206  0.3822  0.2078 -1.4683
77195SOL    HW249196   0.734   2.443   8.214  0.7536  0.4039  1.8321
77196SOL     OW49197  13.825   2.649  12.563 -0.6941 -0.2372 -0.4922
77196SOL    HW149198  13.893   2.585  12.583  2.1898  2.1938 -1.5524
77196SOL    HW249199  13.838   2.719  12.627 -1.6307  0.6366 -1.2156
77197SOL     OW49200   5.003  13.413   9.794 -0.1844 -0.2601 -0.3255
77197SOL    HW149201   5.070  13.416   9.863  1.3295  0.0179 -1.7440
77197SOL    HW249202   4.932  13.468   9.827  0.4933 -0.1485  1.0105
77198SOL     OW49203   7.585   6.012  13.322  0.3244 -0.0130 -0.0804
77198SOL    HW149204   7.662   6.019  13.379  0.7479 -0.6544 -0.5717
77198SOL    HW249205   7.513   5.998  13.383  0.0564  3.6190  0.6673
77199SOL     OW49206   8.879   1.095  11.045 -0.5186 -0.3501 -0.1091
77199SOL    HW149207   8.856   1.155  10.975 -0.3900 -0.3061 -0.1138
77199SOL    HW249208   8.947   1.140  11.095  0.6441 -1.0737 -0.9742
77200SOL     OW49209  10.309   1.113   3.757 -0.2721 -0.7398  0.3065
77200SOL    HW149210  10.252   1.041   3.732  0.1906 -0.9147 -0.2563
77200SOL    HW249211  10.261   1.192   3.730 -0.4827 -0.8594  0.3266
77201SOL     OW49212   8.231   7.836   7.466 -0.6502  0.0192 -0.0134
77201SOL    HW149213   8.248   7.930   7.471 -0.7277 -0.0392  1.7272
77201SOL    HW249214   8.191   7.813   7.550  0.4627 -1.7754  0.0945
77202SOL     OW49215   5.424  10.914   4.686 -0.0025  0.3157  0.4619
77202SOL    HW149216   5.407  10.900   4.779  0.9562  0.1078  0.6094
77202SOL    HW249217   5.474  10.996   4.682 -0.1933  0.4187  0.1122
77203SOL     OW49218   6.675   1.615   7.085 -0.3799 -0.0781  0.4639
77203SOL    HW149219   6.715   1.656   7.009  0.5227 -0.7272  0.5731
77203SOL    HW249220   6.665   1.685   7.149 -1.2583  0.5007 -0.2820
77204SOL     OW49221  11.246  13.024   9.195  0.3163 -0.4917 -0.0606
77204SOL    HW149222  11.325  12.970   9.198  2.0399  1.8811  1.5167
77204SOL    HW249223  11.276  13.107   9.157 -1.5963  0.2750  0.0014
77205SOL     OW49224   1.171   8.666   5.313  0.4353  0.2530 -0.6187
77205SOL    HW149225   1.199   8.669   5.405  0.5900 -0.6614 -0.6254
77205SOL    HW249226   1.243   8.621   5.268 -0.3244 -0.7122 -0.9081
77206SOL     OW49227   0.007   7.600  12.521  0.3452  0.5341  0.1529
77206SOL    HW149228  -0.022   7.629  12.434 -0.5943  2.6069  1.0989
77206SOL    HW249229   0.102   7.613  12.520  0.4311 -0.0275 -0.7338
77207SOL     OW49230   9.611   5.208   6.829 -0.0847  0.2724  0.2355
77207SOL    HW149231   9.540   5.172   6.776  0.2748 -1.1051  0.6463
77207SOL    HW249232   9.604   5.162   6.913 -0.2656  1.9546  1.1936
77208SOL     OW49233  11.770   0.325   2.729 -0.4514 -0.4134 -0.2550
77208SOL    HW149234  11.713   0.268   2.678  0.0915 -1.5149  0.3310
77208SOL    HW249235  11.774   0.283   2.815  1.7609 -0.7611 -0.4712
77209SOL     OW49236  11.650  10.546  12.782  0.3188 -0.4586  0.4950
77209SOL    HW149237  11.556  10.532  12.787  0.2827 -0.2050  0.5366
77209SOL    HW249238  11.687  10.459  12.767 -0.0173 -0.4109 -0.7694
77210SOL     OW49239   4.740   3.108  11.749 -0.1824 -0.5705  0.9060
77210SOL    HW149240   4.711   3.198  11.736 -2.4045 -1.1074  1.5811
77210SOL    HW249241   4.687   3.076  11.822  0.8789 -2.2882  0.9927
77211SOL     OW49242   9.332   3.802   4.119  0.2508  0.6098 -0.3089
77211SOL    HW149243   9.279   3.737   4.166 -0.0703  0.9021 -0.2649
77211SOL    HW249244   9.395   3.750   4.070 -1.3823  0.1201 -1.9956
77212SOL     OW49245   0.184   4.462   1.083  0.4121 -0.4689  0.1381
77212SOL    HW149246   0.126   4.480   1.009  0.7394 -0.7015 -0.1801
77212SOL    HW249247   0.210   4.549   1.114 -1.8904 -0.2725  1.7422
77213SOL     OW49248   9.784   9.589  12.070  0.0301  0.5358  0.7013
77213SOL    HW149249   9.710   9.605  12.129 -0.0613  1.9589  0.2523
77213SOL    HW249250   9.841   9.530  12.119 -1.2277 -0.3339  1.1918
77214SOL     OW49251   5.375  12.495   7.236 -0.4605 -0.4475 -0.2099
77214SOL    HW149252   5.316  12.424   7.211 -1.4787  0.3294 -0.1248
77214SOL    HW249253   5.356  12.565   7.173  1.8560 -0.8631 -1.4778
77215SOL     OW49254   9.122   2.056   4.214 -0.4104  0.2822 -0.3744
77215SOL    HW149255   9.079   2.094   4.291 -0.6676 -1.1322  0.2146
77215SOL    HW249256   9.122   2.127   4.150 -1.5144  1.0478  0.4171
77216SOL     OW49257  13.900   2.806   0.296 -0.7571  0.2499  0.0837
77216SOL    HW149258  13.819   2.767   0.326  0.1983 -1.1633  0.9414
77216SOL    HW249259  13.906   2.781   0.203 -0.5629 -0.9833  0.4111
77217SOL     OW49260   5.139  12.334   6.315  0.1103 -0.1465  0.2005
77217SOL    HW149261   5.065  12.386   6.346  0.0272 -0.6644  0.9069
77217SOL    HW249262   5.099  12.255   6.277  0.3137 -1.0093  1.6946
77218SOL     OW49263  13.591  12.656   6.417  0.0215 -0.1919  0.8830
77218SOL    HW149264  13.586  12.748   6.441  1.6228 -0.1888  1.2955
77218SOL    HW249265  13.521  12.614   6.467  0.1383  0.5993  1.7264
77219SOL     OW49266   2.596   3.698  13.896 -0.4260 -0.1346  0.2283
77219SOL    HW149267   2.561   3.619  13.855 -0.1222 -1.2052  1.9434
77219SOL    HW249268   2.671   3.668  13.947  1.9326  1.8043 -1.8181
77220SOL     OW49269   9.415  11.460   0.054 -0.2534 -0.3193  0.0150
77220SOL    HW149270   9.485  11.517   0.022 -1.5008  0.7177 -0.9477
77220SOL    HW249271   9.335  11.500   0.022 -1.3678 -1.0095  1.8043
77221SOL     OW49272   0.199   3.308   4.107 -0.3871  0.1037  0.4847
77221SOL    HW149273   0.114   3.329   4.068 -0.4496 -1.6238 -0.4042
77221SOL    HW249274   0.206   3.366   4.183 -2.0687  0.7144  0.2114
77222SOL     OW49275  10.117   8.626  12.423 -0.3026 -0.0484 -0.2049
77222SOL    HW149276  10.103   8.716  12.396  0.6838  1.0042  2.4141
77222SOL    HW249277  10.041   8.605  12.477 -0.1154 -0.4811 -0.1037
77223SOL     OW49278   0.348  13.491   6.572  0.4851  0.1603 -0.5504
77223SOL    HW149279   0.353  13.419   6.635  0.5251 -0.2370 -1.0010
77223SOL    HW249280   0.337  13.569   6.625 -0.7128 -0.3015 -0.0833
77224SOL     OW49281  12.874   1.607   2.224  0.2372  0.0992  0.3804
77224SOL    HW149282  12.793   1.619   2.274 -0.4589 -3.3131  0.2996
77224SOL    HW249283  12.853   1.638   2.136 -0.9059 -0.4574  0.4396
77225SOL     OW49284  11.446   9.583   6.311  0.0750 -0.5174  0.3792
77225SOL    HW149285  11.508   9.544   6.372  0.9645  0.2428 -0.0065
77225SOL    HW249286  11.461   9.677   6.319 -2.4074 -0.1473  1.7241
77226SOL     OW49287   1.357  10.676   1.819  0.3731 -0.0236  0.0851
77226SOL    HW149288   1.283  10.617   1.806  1.1178 -0.5236 -2.3055
77226SOL    HW249289   1.353  10.738   1.747  1.8404  0.4316  0.3404
77227SOL     OW49290  11.100  10.272   8.599 -0.4325 -0.1718  0.4505
77227SOL    HW149291  11.165  10.340   8.581  0.0479 -0.5483  0.7342
77227SOL    HW249292  11.142  10.215   8.663 -0.1631 -1.6659 -0.9907
77228SOL     OW49293   1.736   8.435  11.171  0.3472 -0.1791  0.1238
77228SOL    HW149294   1.741   8.427  11.075  1.2136  0.5829  0.1020
77228SOL    HW249295   1.683   8.360  11.198  0.1147 -0.4157 -0.9533
77229SOL     OW49296  10.994   6.019   4.103  0.1973  0.0798 -0.7243
77229SOL    HW149297  11.049   5.968   4.044  0.5653 -0.5948  0.1828
77229SOL    HW249298  10.947   6.080   4.046  0.9357 -0.2001 -1.6476
77230SOL     OW49299   2.873   6.762  11.140  0.0246 -0.3829 -0.7734
77230SOL    HW149300   2.965   6.777  11.162 -0.7929  0.2982  2.8356
77230SOL    HW249301   2.825   6.831  11.186 -2.4623 -2.2233 -0.3839
77231SOL     OW49302   0.555   3.125   7.327 -0.5676 -0.1760  0.3509
77231SOL    HW149303   0.595   3.206   7.294 -0.3105 -0.4545 -0.0218
77231SOL    HW249304   0.584   3.057   7.266 -0.0695 -0.7016  1.1619
77232SOL     OW49305   8.723  13.998   7.762 -0.2785 -0.0271 -0.7780
77232SOL    HW149306   8.804  14.036   7.728 -0.1517  0.8087  0.3927
77232SOL    HW249307   8.748  13.912   7.795  0.3913  0.6179  0.5013
77233SOL     OW49308   2.380   6.616   3.010 -0.1577 -0.3756  0.2589
77233SOL    HW149309   2.408   6.534   3.050 -0.2482 -0.5588 -0.0492
77233SOL    HW249310   2.352   6.592   2.922  2.0502  0.3258 -0.6925
77234SOL     OW49311  12.179   9.543   0.090  0.4582  0.5089  0.5850
77234SOL    HW149312  12.111   9.489   0.131  0.2989  0.6065  0.4496
77234SOL    HW249313  12.132   9.619   0.057  0.3532 -0.2005 -0.9987
77235SOL     OW49314   3.123   3.105   9.280 -0.4368 -0.2112  0.2390
77235SOL    HW149315   3.211   3.102   9.319 -0.1421 -2.5873 -0.4844
77235SOL    HW249316   3.129   3.174   9.214  1.7385 -1.9401 -1.5472
77236SOL     OW49317   7.596   2.162   9.697  0.0753  0.1866  0.2487
77236SOL    HW149318   7.644   2.241   9.674  0.2509 -0.4375 -1.7042
77236SOL    HW249319   7.664   2.098   9.720  0.0183  0.1881  0.4192
77237SOL     OW49320   2.542  12.376   2.782 -0.2823 -0.1644 -0.2960
77237SOL    HW149321   2.530  12.329   2.864  2.3171 -1.4929 -0.5545
77237SOL    HW249322   2.463  12.429   2.772 -1.3864 -1.1924  2.2170
77238SOL     OW49323   3.211   0.990   2.909 -0.5933 -0.4018 -0.0722
77238SOL    HW149324   3.277   1.019   2.972 -0.6069  0.4282 -0.4305
77238SOL    HW249325   3.242   0.905   2.879  0.2912 -0.0387 -0.1980
77239SOL     OW49326   1.552   0.042   0.755 -0.2263  0.3903 -0.1840
77239SOL    HW149327   1.478  -0.007   0.791  0.6603 -0.7636  0.1256
77239SOL    HW249328   1.587  -0.014   0.686  2.1991 -0.5558  1.6798
77240SOL     OW49329   0.719   5.355   8.269  0.0955  0.5425 -0.4435
77240SOL    HW149330   0.627   5.360   8.244 -0.4970 -1.4684  1.1134
77240SOL    HW249331   0.735   5.438   8.314 -1.3829  0.3527  0.5167
77241SOL     OW49332   3.809   6.473   1.019  0.3929 -0.7455  0.6517
77241SOL    HW149333   3.890   6.447   1.062  0.8435 -1.9004 -0.7871
77241SOL    HW249334   3.837   6.509   0.935 -0.5802 -1.1642  0.1303
77242SOL     OW49335   9.563   6.667   4.411  0.0916  0.3167  0.2259
77242SOL    HW149336   9.588   6.666   4.503 -1.2366 -2.0450  0.6230
77242SOL    HW249337   9.468   6.655   4.411  0.0259  0.5892 -1.4437
77243SOL     OW49338   1.227  11.162  13.630 -0.4217 -0.2953 -0.1698
77243SOL    HW149339   1.286  11.218  13.681 -0.6265  0.8450 -1.1318
77243SOL    HW249340   1.148  11.156  13.683 -0.9593  1.5917 -0.7038
77244SOL     OW49341  13.991   3.273   5.421  0.0856  0.3370 -0.3534
77244SOL    HW149342  14.058   3.234   5.365 -0.2369 -1.5982  0.5377
77244SOL    HW249343  14.038   3.334   5.477  0.6328  1.1886 -1.7004
77245SOL     OW49344   2.597   8.430   0.093  0.4584  0.3632  0.9623
77245SOL    HW149345   2.612   8.358   0.154  1.2731  0.9018  1.4258
77245SOL    HW249346   2.680   8.438   0.045  0.1907  0.6436  0.5443
77246SOL     OW49347  13.423  12.758  11.547 -0.6081  0.0333 -0.7859
77246SOL    HW149348  13.361  12.788  11.480 -1.5215 -1.4137 -0.6323
77246SOL    HW249349  13.384  12.786  11.630  0.5022  1.7905 -0.8093
77247SOL     OW49350  13.952   0.457  10.690  0.0185  0.2891 -0.0937
77247SOL    HW149351  13.959   0.412  10.606  1.4542  1.3621 -0.6021
77247SOL    HW249352  13.982   0.546  10.672  0.7879  0.4317  1.6335
77248SOL     OW49353  11.420   9.473   7.492 -0.0042  0.7763 -0.2927
77248SOL    HW149354  11.499   9.441   7.448 -0.4920 -0.7445 -0.1046
77248SOL    HW249355  11.360   9.493   7.421 -0.5605 -1.0746 -0.3958
77249SOL     OW49356   0.677  11.303  11.924  0.0739  0.0409 -0.1613
77249SOL    HW149357   0.664  11.219  11.969 -3.3024  1.1250  1.2372
77249SOL    HW249358   0.613  11.302  11.853  0.3602  1.2122 -0.4610
77250SOL     OW49359  11.934  13.050  12.011 -0.2181 -0.6286  0.4536
77250SOL    HW149360  11.925  13.128  11.957  0.9420 -0.7680  0.0188
77250SOL    HW249361  11.956  13.084  12.098  0.6204 -0.4660  0.1882
77251SOL     OW49362  12.766  10.522   2.922 -0.2227  0.2992  0.4493
77251SOL    HW149363  12.684  10.572   2.927  0.0837  1.0179 -0.9621
77251SOL    HW249364  12.800  10.543   2.835 -0.4009 -2.9321 -0.5115
77252SOL     OW49365   2.265  13.743   7.506  0.0185  0.2828  0.0498
77252SOL    HW149366   2.329  13.814   7.506 -0.5566  0.8447 -1.4174
77252SOL    HW249367   2.235  13.739   7.415 -0.0888 -1.7371  0.1427
77253SOL     OW49368   6.053  13.997   3.127 -0.0017 -0.0317 -0.0240
77253SOL    HW149369   5.992  13.932   3.163  0.7597 -0.9953 -0.4372
77253SOL    HW249370   6.002  14.043   3.060 -0.4938 -0.3325  0.1344
77254SOL     OW49371   7.805   1.022   0.716  0.1289  0.4712 -0.9392
77254SOL    HW149372   7.799   1.118   0.707  1.3479  0.7115  0.4420
77254SOL    HW249373   7.897   1.005   0.734 -0.0721 -0.9787 -1.1707
77255SOL     OW49374  13.071  10.161   4.789 -0.0908  0.0404 -0.0427
77255SOL    HW149375  13.137  10.209   4.740 -1.0808  1.1893 -0.3040
77255SOL    HW249376  13.071  10.201   4.876 -0.8107  0.4384 -0.2136
77256SOL     OW49377   2.436  10.913   6.089 -0.0896  0.1750  0.7558
77256SOL    HW149378   2.460  11.005   6.078 -0.4879  0.2561  0.5410
77256SOL    HW249379   2.367  10.898   6.024 -0.8751  0.0444  1.5968
77257SOL     OW49380  13.949  10.934   8.657  0.8663 -0.0590 -0.4685
77257SOL    HW149381  13.892  10.964   8.587  0.9990 -2.3014 -1.6373
77257SOL    HW249382  14.026  10.991   8.652  0.4777  0.3882 -1.5579
77258SOL     OW49383   2.859  13.884   4.528 -0.2429 -0.3219  0.1033
77258SOL    HW149384   2.905  13.894   4.444 -1.7813  3.7227 -0.5113
77258SOL    HW249385   2.926  13.898   4.594  0.1000  2.5298 -0.7052
77259SOL     OW49386   9.250   0.957  10.458  0.7228  0.2456  0.3188
77259SOL    HW149387   9.322   1.014  10.484  0.4650 -0.3810  2.6878
77259SOL    HW249388   9.178   0.981  10.517 -1.0313  0.7729 -1.8784
77260SOL     OW49389   3.275   2.391   0.269  1.2438  0.7377  0.5991
77260SOL    HW149390   3.360   2.432   0.249  2.2838 -0.9838  1.2775
77260SOL    HW249391   3.266   2.400   0.364  0.6704  0.8925  0.5326
77261SOL     OW49392   4.967   5.246   2.813 -0.6283  0.5110 -0.4544
77261SOL    HW149393   4.990   5.294   2.892 -0.6016  0.0631 -0.1853
77261SOL    HW249394   4.994   5.156   2.831 -0.0380  0.5192 -1.2180
77262SOL     OW49395   0.966   9.088   2.235 -0.0483  1.2469  0.2318
77262SOL    HW149396   0.957   9.153   2.305 -2.4401  0.9500  0.3036
77262SOL    HW249397   0.957   9.004   2.280 -0.5616  1.0212 -0.2800
77263SOL     OW49398   8.976   4.168   2.227 -0.2147  0.3461 -0.5539
77263SOL    HW149399   9.011   4.251   2.195  0.0809  0.3019 -0.3555
77263SOL    HW249400   8.899   4.152   2.174  0.5674 -0.0053 -1.6183
77264SOL     OW49401   0.969   6.355   5.934  0.8828 -0.3347 -0.3607
77264SOL    HW149402   1.038   6.377   5.996  1.1523 -1.1826 -0.3409
77264SOL    HW249403   1.015   6.331   5.854  0.6443 -1.3489 -0.2079
77265SOL     OW49404   3.751  12.745   7.733  0.9019 -0.1068  0.0976
77265SOL    HW149405   3.758  12.683   7.660  1.2472 -1.2402  1.0728
77265SOL    HW249406   3.700  12.818   7.697 -0.0367 -1.2131 -0.8864
77266SOL     OW49407   0.771   7.474   9.434  0.4984 -0.7919  0.1813
77266SOL    HW149408   0.853   7.474   9.385 -0.7583 -1.1152 -2.1006
77266SOL    HW249409   0.723   7.550   9.399  0.4778  0.4917  2.7680
77267SOL     OW49410   0.988   7.315  14.091 -0.2490 -0.0630 -0.2985
77267SOL    HW149411   1.030   7.275  14.015 -1.1643 -1.4022 -0.1363
77267SOL    HW249412   1.006   7.408  14.082 -0.1409 -0.2183 -2.0393
77268SOL     OW49413   1.032   7.186   0.313  0.1906 -0.0998  0.4688
77268SOL    HW149414   1.104   7.158   0.369  1.8927 -0.5933 -1.8405
77268SOL    HW249415   1.037   7.130   0.236 -1.0927  1.5248 -0.8914
77269SOL     OW49416   8.924   7.656   2.072  0.4627 -0.2584 -0.6129
77269SOL    HW149417   8.904   7.739   2.116 -0.0258 -0.8294  0.2689
77269SOL    HW249418   8.995   7.618   2.123 -0.0425 -0.8820 -0.3595
77270SOL     OW49419  13.254  13.065   1.194  0.1743 -0.5721  0.1629
77270SOL    HW149420  13.288  13.030   1.276 -0.0924 -2.8574 -0.6287
77270SOL    HW249421  13.295  13.011   1.126 -2.4551 -1.2956 -0.9881
77271SOL     OW49422  10.442   6.076   7.307  1.0396 -0.2336 -0.3529
77271SOL    HW149423  10.375   6.020   7.269  0.2598  0.9150 -0.7239
77271SOL    HW249424  10.518   6.065   7.249  1.0757 -1.2569 -0.1364
77272SOL     OW49425   8.051  12.866   6.889  0.1630  0.3849 -0.0883
77272SOL    HW149426   8.023  12.825   6.808  0.5301  0.0279 -0.0401
77272SOL    HW249427   8.064  12.958   6.867  0.8349  0.1764 -0.5787
77273SOL     OW49428  10.207  12.707  11.343  0.1506 -0.1383  0.1863
77273SOL    HW149429  10.130  12.753  11.378  0.4242  0.5463 -0.0980
77273SOL    HW249430  10.171  12.630  11.300 -0.3228 -0.1569  0.5983
77274SOL     OW49431   6.365   0.833   5.865  0.3629 -0.0854 -0.4315
77274SOL    HW149432   6.438   0.875   5.819 -0.0191 -0.2584 -1.2054
77274SOL    HW249433   6.373   0.863   5.956  1.1026  0.2893 -0.6166
77275SOL     OW49434  13.534  13.617  11.319  0.1212 -0.4373  0.2852
77275SOL    HW149435  13.517  13.529  11.286  0.1354 -1.8763  3.7203
77275SOL    HW249436  13.619  13.640  11.282 -0.9995 -0.6849 -2.7099
77276SOL     OW49437  11.685   1.959   5.654 -0.1937 -0.0471  0.3815
77276SOL    HW149438  11.746   2.033   5.653 -2.2384  1.7205 -0.0184
77276SOL    HW249439  11.608   1.991   5.607 -0.5974 -2.9876 -1.1579
77277SOL     OW49440   8.440   9.194   3.692 -0.1105  0.1308 -0.3147
77277SOL    HW149441   8.359   9.207   3.643  0.0852 -0.6108 -0.8655
77277SOL    HW249442   8.465   9.103   3.672  0.4676  0.1200  0.4226
77278SOL     OW49443   4.347   7.469   1.074  0.2890  0.8763 -0.4305
77278SOL    HW149444   4.276   7.455   1.137 -0.9451  1.7813 -1.5494
77278SOL    HW249445   4.335   7.560   1.046  1.1244  0.6459 -1.5777
77279SOL     OW49446   4.313   7.361   6.783 -0.0909  0.0265 -0.2304
77279SOL    HW149447   4.322   7.454   6.802  2.9584 -0.3204  0.4455
77279SOL    HW249448   4.279   7.358   6.693 -1.6411  1.7147  0.2337
77280SOL     OW49449   1.116  13.131   5.465 -0.0738  0.3527  0.1422
77280SOL    HW149450   1.186  13.071   5.488 -0.2875 -0.3785 -1.0315
77280SOL    HW249451   1.036  13.078   5.471 -0.3110  0.6262 -0.4970
77281SOL     OW49452   5.727  10.361  12.640  0.2953  0.1438  0.4738
77281SOL    HW149453   5.784  10.287  12.659  0.1606  0.1486  0.9128
77281SOL    HW249454   5.705  10.352  12.547 -0.4164 -0.8471  0.7277
77282SOL     OW49455   0.757  11.616   0.758  0.0396 -0.1107 -0.6376
77282SOL    HW149456   0.780  11.564   0.835 -0.7044  0.5566  0.0454
77282SOL    HW249457   0.806  11.697   0.768  0.3882 -0.2437 -1.1749
77283SOL     OW49458  12.182  13.939  12.819  0.1122 -0.0645  0.5820
77283SOL    HW149459  12.095  13.906  12.840  0.7214 -0.2209  3.1363
77283SOL    HW249460  12.182  13.946  12.724 -1.9880 -1.9875  0.3473
77284SOL     OW49461  11.063  10.397   6.229 -0.6700 -0.5649  0.2729
77284SOL    HW149462  11.012  10.416   6.150 -1.1972 -1.3886  0.3969
77284SOL    HW249463  11.083  10.482   6.267 -0.0699 -0.1465 -0.9609
77285SOL     OW49464  13.434   7.165   3.709  0.0556 -0.2049  0.1374
77285SOL    HW149465  13.505   7.102   3.705  0.0123 -0.2449 -0.0019
77285SOL    HW249466  13.476   7.250   3.694  0.1468 -0.1767  0.5527
77286SOL     OW49467  12.375  11.850  11.338  0.2517 -0.1913  0.1439
77286SOL    HW149468  12.327  11.837  11.420  0.6886  1.5089  0.7044
77286SOL    HW249469  12.307  11.862  11.272 -0.1085  0.9275  0.7075
77287SOL     OW49470   1.306   9.848   7.562  0.5710  0.8983 -0.2375
77287SOL    HW149471   1.384   9.796   7.544 -0.3781 -0.0971 -1.7380
77287SOL    HW249472   1.240   9.813   7.502 -0.9429  1.9134  0.7707
77288SOL     OW49473   7.443  13.236  13.272  0.7393  0.2492  0.3924
77288SOL    HW149474   7.430  13.315  13.220  1.3394 -0.8412 -1.5106
77288SOL    HW249475   7.354  13.203  13.289  0.5562 -0.0379 -1.0400
77289SOL     OW49476   2.929   2.234  12.199  0.3108  0.1413  0.6060
77289SOL    HW149477   2.914   2.173  12.272  0.3834 -1.5009 -0.6759
77289SOL    HW249478   3.014   2.273  12.218  1.9484 -2.7656 -0.1666
77290SOL     OW49479  10.892  10.499  10.001 -0.2082  0.1824 -0.2126
77290SOL    HW149480  10.900  10.458   9.914  0.1396  0.5870 -0.3784
77290SOL    HW249481  10.882  10.426  10.061  1.9287 -0.2741 -0.3272
77291SOL     OW49482   0.611   3.277   5.140  0.1728 -0.3246 -0.4895
77291SOL    HW149483   0.675   3.217   5.178  0.2543  0.0028 -0.1026
77291SOL    HW249484   0.558   3.222   5.082 -2.3622 -1.6848  2.8402
77292SOL     OW49485  13.598  11.600   3.509 -0.0117  0.2644  0.3535
77292SOL    HW149486  13.558  11.685   3.526 -0.4592 -0.2235  1.9038
77292SOL    HW249487  13.557  11.570   3.428 -1.9131  0.3297  1.2365
77293SOL     OW49488   2.560   0.205  13.519 -0.0049  0.0283  0.5971
77293SOL    HW149489   2.640   0.194  13.467 -0.2680  1.2108 -0.1135
77293SOL    HW249490   2.567   0.294  13.554 -1.2102  0.3221  0.1339
77294SOL     OW49491  11.202   4.655  13.969  0.0772 -0.3106 -0.2845
77294SOL    HW149492  11.214   4.561  13.957  0.6885 -0.2189 -0.4319
77294SOL    HW249493  11.135   4.679  13.904  1.6184 -0.2400 -1.9201
77295SOL     OW49494  13.133   4.104   7.792 -0.3391  0.5901  0.3720
77295SOL    HW149495  13.226   4.126   7.796 -0.4218  1.0657 -0.0971
77295SOL    HW249496  13.107   4.092   7.884  0.4011 -0.5520  0.4494
77296SOL     OW49497  12.098   4.216   4.605 -0.1878  0.5030  0.1534
77296SOL    HW149498  12.119   4.123   4.605 -2.1238  0.0019 -0.5290
77296SOL    HW249499  12.140   4.251   4.526 -0.0136  0.0558  0.0478
77297SOL     OW49500   9.079  11.835   1.112 -0.2607 -0.4127 -0.1610
77297SOL    HW149501   9.169  11.821   1.142 -0.5234 -0.2220  0.7773
77297SOL    HW249502   9.063  11.765   1.049  1.2912  0.9035 -2.1083
77298SOL     OW49503   7.795  10.580   8.416 -0.1098  0.5569 -0.3787
77298SOL    HW149504   7.813  10.539   8.501 -1.5476 -1.2661 -0.8951
77298SOL    HW249505   7.846  10.530   8.353 -1.5612 -0.2405 -0.9657
77299SOL     OW49506   6.592   3.710   4.043  0.0392 -0.0340 -0.2635
77299SOL    HW149507   6.516   3.683   3.991  0.1680  0.3526 -0.6586
77299SOL    HW249508   6.657   3.736   3.978  1.1763 -2.0576 -0.0026
77300SOL     OW49509   1.659  11.437   1.302 -0.0353 -0.9077  0.3993
77300SOL    HW149510   1.605  11.451   1.224  0.7923 -0.4507 -0.1100
77300SOL    HW249511   1.656  11.343   1.317  0.9122 -1.1912 -1.0318
77301SOL     OW49512   5.658  10.483  10.715 -0.2562  0.1742 -0.3136
77301SOL    HW149513   5.615  10.563  10.743 -1.3770 -1.0173  1.6113
77301SOL    HW249514   5.618  10.462  10.631  0.5508  1.9298 -1.1925
77302SOL     OW49515   0.870   7.351   1.985 -0.5188  0.4021  0.4591
77302SOL    HW149516   0.844   7.434   2.024 -1.5617  0.3972 -0.1856
77302SOL    HW249517   0.964   7.345   2.003 -0.6838  1.0727  1.6725
77303SOL     OW49518   4.101  13.101   8.976  0.1948 -0.2029  0.0276
77303SOL    HW149519   4.178  13.120   9.031  0.6203  0.7145 -0.8578
77303SOL    HW249520   4.033  13.077   9.038  0.6404  0.9046  0.9813
77304SOL     OW49521   5.503   4.559   6.344 -0.1773  0.4569  0.2262
77304SOL    HW149522   5.482   4.625   6.278  0.8272  0.6708  0.1031
77304SOL    HW249523   5.442   4.488   6.327  1.1467 -0.2430 -2.0859
77305SOL     OW49524   4.487   3.702   6.996 -0.2194  0.0609 -0.0862
77305SOL    HW149525   4.447   3.639   7.055 -0.4786 -1.1378 -1.4823
77305SOL    HW249526   4.453   3.787   7.024  0.2706 -0.3638  1.9386
77306SOL     OW49527  13.575   0.651   7.604  0.1863  0.1949 -0.6088
77306SOL    HW149528  13.659   0.612   7.628  0.1049  0.2988 -0.1394
77306SOL    HW249529  13.530   0.584   7.553 -0.8678 -1.2413  1.9864
77307SOL     OW49530   1.793   2.947   1.975 -0.5796 -0.2218  0.3034
77307SOL    HW149531   1.820   2.884   2.042  0.0766  2.2914  2.6163
77307SOL    HW249532   1.829   2.912   1.894  3.2964 -0.9010  2.0703
77308SOL     OW49533   9.816  11.878   1.399 -0.4672  0.0311 -0.1177
77308SOL    HW149534   9.731  11.836   1.408 -0.4774  0.1007  0.1459
77308SOL    HW249535   9.879  11.806   1.410 -0.4952 -0.1107 -0.8439
77309SOL     OW49536   3.914   7.466   3.774  0.0555 -0.1958 -0.6573
77309SOL    HW149537   3.985   7.473   3.837  0.0785  0.2500 -0.7239
77309SOL    HW249538   3.888   7.374   3.776 -0.5056 -0.0409  0.6262
77310SOL     OW49539   0.619  12.752   6.155 -0.2859  0.0919 -0.2346
77310SOL    HW149540   0.644  12.704   6.076  2.4622  1.8603 -0.5763
77310SOL    HW249541   0.652  12.699   6.227 -0.3939 -0.2363 -0.4273
77311SOL     OW49542  11.888  14.049   9.896 -0.1161 -0.0623  0.1224
77311SOL    HW149543  11.920  14.069   9.984  0.9401  0.5816 -0.3828
77311SOL    HW249544  11.951  13.986   9.861 -0.0178  0.3514 -0.4733
77312SOL     OW49545   6.841  12.402   5.739 -0.4695  0.5215  0.1480
77312SOL    HW149546   6.809  12.318   5.706  0.1199  1.0834 -2.0512
77312SOL    HW249547   6.905  12.378   5.806 -0.6596 -0.7801 -0.1011
77313SOL     OW49548   9.616  10.410  12.379 -0.1561 -0.0744 -0.1226
77313SOL    HW149549   9.572  10.336  12.421 -0.1268 -0.2768 -0.4429
77313SOL    HW249550   9.557  10.484  12.393  0.3081  0.0855  1.1203
77314SOL     OW49551   9.065   1.049   2.362  0.7725 -0.3205 -0.1413
77314SOL    HW149552   9.024   1.062   2.447  2.3317 -1.0349  0.7601
77314SOL    HW249553   9.087   1.137   2.332 -1.4142  0.0838 -0.6876
77315SOL     OW49554   8.259   4.542  11.445  0.0166 -0.1851  0.0465
77315SOL    HW149555   8.289   4.576  11.529 -1.8257  1.1517  0.2336
77315SOL    HW249556   8.246   4.448  11.460 -1.7931  0.2783  1.7815
77316SOL     OW49557   9.646   4.012   9.252  0.0030  0.2542  0.3335
77316SOL    HW149558   9.637   4.107   9.242  3.0454  0.7193  0.9171
77316SOL    HW249559   9.637   3.978   9.163  1.1805  1.3820 -0.2516
77317SOL     OW49560  10.236  13.272   6.872 -0.1762  0.2876 -0.0522
77317SOL    HW149561  10.165  13.222   6.912  0.4841  0.1696  1.0203
77317SOL    HW249562  10.301  13.280   6.942  0.8961  0.3364 -1.0332
77318SOL     OW49563   9.711   3.537   9.235  0.2651  0.0106  0.3296
77318SOL    HW149564   9.656   3.493   9.300  0.3073 -0.0178  0.3461
77318SOL    HW249565   9.668   3.621   9.221  0.1142 -0.0864  0.2058
77319SOL     OW49566  11.483   6.274   2.856 -0.0402 -0.3340  0.1392
77319SOL    HW149567  11.537   6.207   2.897 -0.2932  0.2585  1.4814
77319SOL    HW249568  11.532   6.300   2.778  0.4822 -1.4386  0.0875
77320SOL     OW49569   0.901   7.152   7.798 -0.0889 -0.2127 -0.3108
77320SOL    HW149570   0.942   7.155   7.884 -0.3632 -3.1712  0.0304
77320SOL    HW249571   0.808   7.168   7.815  0.3469  3.4335 -0.6984
77321SOL     OW49572   6.791  10.797   5.590  0.0111 -0.1386  0.1219
77321SOL    HW149573   6.784  10.831   5.501  1.0788 -0.3329 -0.0525
77321SOL    HW249574   6.848  10.860   5.635  1.0975 -1.0696  0.1015
77322SOL     OW49575   8.287  11.401  10.255 -0.3713  0.1068  0.1105
77322SOL    HW149576   8.196  11.415  10.282 -0.7988 -1.5091 -0.3572
77322SOL    HW249577   8.332  11.482  10.279 -1.4374  0.0870  2.4579
77323SOL     OW49578   6.426   7.476   1.353  0.4466 -0.3381 -0.2415
77323SOL    HW149579   6.479   7.401   1.382  1.2018  0.3904  0.2923
77323SOL    HW249580   6.469   7.507   1.274  0.5503 -0.0121 -0.0542
77324SOL     OW49581   9.501   8.005   0.323  0.4305  0.4830 -0.6894
77324SOL    HW149582   9.568   8.066   0.353 -0.2671  0.7949  0.2836
77324SOL    HW249583   9.418   8.050   0.339 -0.1444 -0.9818  0.8382
77325SOL     OW49584  11.330   0.762   5.624  0.0963 -0.0049 -0.5823
77325SOL    HW149585  11.345   0.853   5.598 -0.3796  0.3984  0.5104
77325SOL    HW249586  11.389   0.747   5.697 -0.4164 -0.3092 -0.2227
77326SOL     OW49587  12.276  11.794  11.603  0.4804 -0.0063 -0.0616
77326SOL    HW149588  12.183  11.773  11.594  0.4471 -0.4908  1.2060
77326SOL    HW249589  12.308  11.733  11.669  1.3320  1.2137  0.6831
77327SOL     OW49590   2.345  10.249   2.428  0.2696 -1.0048 -0.0888
77327SOL    HW149591   2.306  10.335   2.413 -1.9794 -1.6827  1.3921
77327SOL    HW249592   2.431  10.255   2.387 -0.4871  1.3493 -1.5677
77328SOL     OW49593   4.324  12.647   1.286  0.3518 -0.0468 -0.3478
77328SOL    HW149594   4.348  12.704   1.213  2.2150  0.5565  0.6812
77328SOL    HW249595   4.232  12.666   1.302 -0.3388 -0.7588 -2.9937
77329SOL     OW49596  11.277   1.652  11.516 -0.1453  0.4639  0.0494
77329SOL    HW149597  11.256   1.582  11.453  0.6053 -0.1189  0.4214
77329SOL    HW249598  11.195   1.698  11.530 -0.6575 -0.3553 -0.2029
77330SOL     OW49599   9.477   0.047  10.767  0.6424  0.0598  0.6243
77330SOL    HW149600   9.442  -0.033  10.805 -0.2730  0.6643  1.0911
77330SOL    HW249601   9.464   0.114  10.835 -0.6921  1.0816 -0.5661
77331SOL     OW49602  12.164   8.588  12.018 -0.4935  0.0532  0.1592
77331SOL    HW149603  12.250   8.587  11.976 -0.2408 -1.3261  0.6623
77331SOL    HW249604  12.183   8.601  12.111 -0.8316 -0.2629  0.2731
77332SOL     OW49605   5.764   9.777   4.900 -0.0352 -0.0221  0.0876
77332SOL    HW149606   5.786   9.849   4.840  2.0463  1.1112  2.0535
77332SOL    HW249607   5.762   9.699   4.844 -0.6391  1.2905 -1.8253
77333SOL     OW49608   8.788   1.238  10.855 -0.1492 -0.0993 -0.4462
77333SOL    HW149609   8.749   1.316  10.894  0.2804 -0.2866  0.3796
77333SOL    HW249610   8.816   1.266  10.768 -1.5545  0.1976 -0.8373
77334SOL     OW49611   0.980   6.287  13.474 -0.0160  0.3757  0.2776
77334SOL    HW149612   1.013   6.233  13.546  0.5416 -0.7777 -0.8061
77334SOL    HW249613   0.999   6.236  13.395  2.2211  2.9325 -0.9981
77335SOL     OW49614   8.222   4.480  13.569  0.1511 -0.2649  0.2689
77335SOL    HW149615   8.283   4.491  13.642  0.0451  0.1475  0.2972
77335SOL    HW249616   8.266   4.420  13.509  1.3963  1.4870 -0.6248
77336SOL     OW49617  11.844   4.461  12.551  0.5844 -0.6196 -0.1170
77336SOL    HW149618  11.813   4.509  12.627 -0.4680  0.4440 -1.1824
77336SOL    HW249619  11.765   4.439  12.502  1.3134  1.9101 -2.7508
77337SOL     OW49620   0.741   3.348  10.283 -0.1070 -0.1203  0.0056
77337SOL    HW149621   0.759   3.274  10.340  2.3462  1.5887  1.6580
77337SOL    HW249622   0.763   3.317  10.195  0.1321 -1.5490  0.5424
77338SOL     OW49623  10.690   7.424  11.541 -0.7541  0.0391  0.2180
77338SOL    HW149624  10.597   7.407  11.523 -0.8293  0.4525  0.2061
77338SOL    HW249625  10.714   7.493  11.479 -0.1261 -0.8721 -0.5989
77339SOL     OW49626   8.754   0.005   1.704 -0.1013  0.2015 -0.0640
77339SOL    HW149627   8.723  -0.045   1.780  2.0127 -0.1459  0.6341
77339SOL    HW249628   8.757   0.095   1.734 -3.5930  0.8581 -1.2219
77340SOL     OW49629   8.111   8.555  11.902  0.1957  0.2221  0.0850
77340SOL    HW149630   8.170   8.484  11.928 -1.8257 -2.3428 -1.7275
77340SOL    HW249631   8.154   8.596  11.827  0.7027 -0.1503  0.1694
77341SOL     OW49632   9.100   6.500   5.456  0.2862 -0.0356 -0.1784
77341SOL    HW149633   9.094   6.560   5.531 -1.7664 -0.4678  0.0729
77341SOL    HW249634   9.192   6.500   5.433  0.3696  3.4984 -0.3982
77342SOL     OW49635   8.037  10.869   5.236 -0.0004  0.1406 -0.4726
77342SOL    HW149636   8.118  10.885   5.286 -0.7073 -0.9460  1.1276
77342SOL    HW249637   8.065  10.818   5.160  0.7065 -1.5629  0.8441
77343SOL     OW49638  13.858   6.485  13.119 -0.0361 -0.4973  1.0879
77343SOL    HW149639  13.854   6.510  13.026  1.3933  1.6395  1.5305
77343SOL    HW249640  13.921   6.413  13.121  0.3671 -0.1737  0.4635
77344SOL     OW49641   0.551   3.391   5.397  0.3264 -0.2687  0.1446
77344SOL    HW149642   0.609   3.465   5.375 -0.2354  0.6731  1.6338
77344SOL    HW249643   0.546   3.339   5.317  2.7516 -0.0631 -0.2076
77345SOL     OW49644  14.029  13.761   8.353  0.4874  0.0744 -0.2734
77345SOL    HW149645  14.072  13.819   8.290  2.0355 -0.5584  0.1392
77345SOL    HW249646  13.959  13.814   8.391  1.6618  1.5808 -0.1124
77346SOL     OW49647  10.891   7.338  13.519  0.4708  0.7002 -0.0054
77346SOL    HW149648  10.964   7.352  13.580 -0.1090 -0.4902  1.0089
77346SOL    HW249649  10.815   7.371  13.566 -0.1375 -1.1299  0.3813
77347SOL     OW49650   2.013   5.776   6.404 -0.2205  0.3855 -0.5525
77347SOL    HW149651   2.021   5.700   6.462  0.1801  1.3652  0.7222
77347SOL    HW249652   2.101   5.814   6.402  0.0803 -0.2454 -2.7579
77348SOL     OW49653   7.908   3.520   4.110  0.3017 -0.0039 -0.4857
77348SOL    HW149654   7.844   3.529   4.181 -0.6524  0.8184 -1.4148
77348SOL    HW249655   7.991   3.501   4.155 -0.2157  0.7981  0.8708
77349SOL     OW49656   6.468   6.851  12.644 -0.2289 -0.7536 -0.7269
77349SOL    HW149657   6.400   6.843  12.576 -0.3821 -2.7710 -0.3985
77349SOL    HW249658   6.426   6.902  12.713 -0.5711  0.0796 -1.5323
77350SOL     OW49659  11.251  12.475   3.355  0.0220 -0.0747  0.2973
77350SOL    HW149660  11.320  12.438   3.300  1.1727  1.7509  0.4389
77350SOL    HW249661  11.209  12.398   3.394 -0.9154 -1.4593 -3.1027
77351SOL     OW49662   8.811   1.417   4.958 -0.3775  0.0766 -0.0009
77351SOL    HW149663   8.876   1.408   5.028 -2.1262 -1.3088  1.5564
77351SOL    HW249664   8.814   1.510   4.934  3.5647 -0.2439 -1.5312
77352SOL     OW49665   2.741   4.933   0.117 -0.4246 -0.0589  0.0608
77352SOL    HW149666   2.731   4.955   0.210 -1.6891  0.9490 -0.2892
77352SOL    HW249667   2.712   4.842   0.111  2.3013 -1.1167  1.0774
77353SOL     OW49668   4.542  11.192   4.078  0.1262  0.1374 -0.0204
77353SOL    HW149669   4.449  11.168   4.077 -0.2871  1.5992 -1.4992
77353SOL    HW249670   4.587  11.113   4.049 -0.4133 -1.2084  2.5173
77354SOL     OW49671   9.491   9.397  11.173  0.4459  0.5949 -0.7550
77354SOL    HW149672   9.524   9.475  11.218 -0.8069  0.6562  0.0925
77354SOL    HW249673   9.550   9.327  11.201  0.7443  0.9772 -0.4104
77355SOL     OW49674   6.069   5.331   1.545  0.3901 -0.1221 -0.2159
77355SOL    HW149675   6.083   5.398   1.478 -2.3794 -0.7780 -1.5732
77355SOL    HW249676   6.014   5.374   1.610 -2.9021 -1.3798 -1.9482
77356SOL     OW49677   3.411   6.026   3.172  0.0016 -0.3412 -0.2453
77356SOL    HW149678   3.402   6.121   3.168 -3.8019 -0.5240  0.6773
77356SOL    HW249679   3.396   5.997   3.082  1.8427 -0.1097 -0.6652
77357SOL     OW49680  11.508  12.801  10.696 -0.5648  0.3533  0.4045
77357SOL    HW149681  11.504  12.741  10.622 -1.2889 -0.4135  1.0386
77357SOL    HW249682  11.417  12.824  10.714 -0.4265  0.3059  1.2150
77358SOL     OW49683   8.724   8.807   7.926 -0.5877 -0.0310  0.3223
77358SOL    HW149684   8.681   8.722   7.918 -1.1247  0.3282 -0.9007
77358SOL    HW249685   8.658   8.870   7.894  0.9102  0.5259 -1.8386
77359SOL     OW49686   6.212   0.707   0.770  0.3937  0.2499 -0.5581
77359SOL    HW149687   6.268   0.785   0.767 -0.7609  1.1919  1.1307
77359SOL    HW249688   6.187   0.693   0.678 -0.1910  2.4993 -0.8133
77360SOL     OW49689   3.455   4.705   1.515  0.9534  0.1638  0.1682
77360SOL    HW149690   3.514   4.679   1.586 -0.1890  0.2178  1.1760
77360SOL    HW249691   3.406   4.626   1.494 -1.3802  0.9428  2.1168
77361SOL     OW49692  14.084   0.295   4.615  0.2841 -0.0282 -0.0385
77361SOL    HW149693  14.011   0.343   4.654 -0.8501  0.5998 -2.7638
77361SOL    HW249694  14.120   0.245   4.688 -2.3809  0.2085  1.5800
77362SOL     OW49695   3.006  11.901  12.386  0.3036 -0.1712  0.7339
77362SOL    HW149696   3.095  11.937  12.378  0.6201 -0.9149  0.8367
77362SOL    HW249697   2.979  11.882  12.297 -0.0841  0.8038  0.6237
77363SOL     OW49698   4.069   7.369   3.120  0.1661  0.4187 -0.4322
77363SOL    HW149699   4.101   7.425   3.049 -0.3794  0.2183 -0.8435
77363SOL    HW249700   3.996   7.419   3.158 -0.4428 -0.0852 -0.9185
77364SOL     OW49701   1.599  10.170   8.428  0.1518 -0.0158  0.2426
77364SOL    HW149702   1.508  10.192   8.409  0.1617 -1.6172 -1.9967
77364SOL    HW249703   1.594  10.101   8.494 -0.2996 -0.4385 -0.2252
77365SOL     OW49704   6.535   1.444   4.081 -0.1812  0.5204  0.0336
77365SOL    HW149705   6.546   1.362   4.033  1.2859  1.2935 -1.0281
77365SOL    HW249706   6.617   1.455   4.129 -0.2355  1.4822 -0.0641
77366SOL     OW49707   7.488   9.263   5.555 -0.2038  0.6438  0.0626
77366SOL    HW149708   7.453   9.174   5.553  0.0703  0.4357  2.3268
77366SOL    HW249709   7.417   9.317   5.518 -1.7428 -0.1491  1.6933
77367SOL     OW49710   4.379   8.158  10.325  0.0982 -0.5046 -0.3412
77367SOL    HW149711   4.378   8.063  10.321 -2.8536 -0.5532 -0.3408
77367SOL    HW249712   4.403   8.186  10.237 -0.2488 -1.2526 -0.6779
77368SOL     OW49713   3.721  10.434   3.731  0.5004  0.0541 -0.4243
77368SOL    HW149714   3.675  10.366   3.682  1.4867 -0.0729 -1.2101
77368SOL    HW249715   3.703  10.415   3.823 -1.3655  0.2644 -0.7073
77369SOL     OW49716   0.121  11.322   6.104  0.3877 -0.1611  0.5644
77369SOL    HW149717   0.120  11.408   6.061 -0.2009  0.0586  0.9953
77369SOL    HW249718   0.179  11.268   6.050 -0.0363  0.2174 -0.2839
77370SOL     OW49719   4.624   8.446  12.462  0.1221 -0.0853  0.3158
77370SOL    HW149720   4.680   8.452  12.538 -0.5631  0.9316  0.7659
77370SOL    HW249721   4.559   8.380  12.485 -1.0970  1.3967  1.3375
77371SOL     OW49722   3.113   1.697   4.535  0.4857 -0.2587  0.7752
77371SOL    HW149723   3.086   1.727   4.448 -1.1839 -0.6153  1.1474
77371SOL    HW249724   3.143   1.776   4.580  0.6143  0.0559  0.1406
77372SOL     OW49725  10.603   3.861   6.116 -0.4376  0.0559  0.0144
77372SOL    HW149726  10.640   3.788   6.165  0.5523  1.0534  0.8031
77372SOL    HW249727  10.541   3.902   6.176  0.8128  1.3120  0.5129
77373SOL     OW49728   3.762   2.473  10.743 -0.7622  0.1030  0.0486
77373SOL    HW149729   3.829   2.447  10.806 -0.6387  1.0819  0.3441
77373SOL    HW249730   3.809   2.478  10.659  0.1089  2.8140  0.5858
77374SOL     OW49731  12.619   2.284   1.076 -0.3400  0.5538 -0.1464
77374SOL    HW149732  12.612   2.203   1.027 -0.9846  0.0715  0.7181
77374SOL    HW249733  12.565   2.347   1.027 -0.9932  0.0757 -0.0445
77375SOL     OW49734  11.682  10.098   9.721  0.0574  0.1508  0.1600
77375SOL    HW149735  11.682  10.059   9.809  0.6543  0.2995  0.2296
77375SOL    HW249736  11.651  10.027   9.664  2.7950 -1.0866  0.0383
77376SOL     OW49737   1.590  11.921  11.208  0.4815 -0.2884  0.1998
77376SOL    HW149738   1.593  12.005  11.162  2.3587 -0.1323  0.5042
77376SOL    HW249739   1.573  11.945  11.299  1.9640 -0.1124  0.4583
77377SOL     OW49740   2.366   8.067   6.225  0.2572 -0.3418  0.6845
77377SOL    HW149741   2.364   8.151   6.271 -2.1560 -0.0510  0.2043
77377SOL    HW249742   2.408   8.087   6.141  1.7878 -0.1651  1.4665
77378SOL     OW49743   8.677  12.403   5.978  0.7789 -0.4891 -0.4464
77378SOL    HW149744   8.642  12.352   5.905 -0.1643 -1.2677  0.5204
77378SOL    HW249745   8.653  12.353   6.056  0.4461  1.0697  0.4963
77379SOL     OW49746   5.741   0.917   2.544 -0.2144  0.3140 -0.0942
77379SOL    HW149747   5.816   0.859   2.552 -1.3383 -1.2947 -0.6640
77379SOL    HW249748   5.778   1.005   2.533  1.5449  0.2303  3.7564
77380SOL     OW49749   3.468   7.364   5.639 -0.4791  0.5743  0.3698
77380SOL    HW149750   3.395   7.341   5.697 -0.3320 -1.0098 -0.0301
77380SOL    HW249751   3.429   7.366   5.552  0.3876 -3.3725 -0.3231
77381SOL     OW49752   8.851   4.409  12.574 -0.5097  0.5451 -0.0583
77381SOL    HW149753   8.906   4.400  12.652 -0.8796 -1.5149  0.0155
77381SOL    HW249754   8.785   4.340  12.583 -2.0295  1.7967 -1.0334
77382SOL     OW49755   7.648   3.350   2.747 -0.1927 -0.0882  0.1419
77382SOL    HW149756   7.637   3.255   2.756 -0.0322 -0.1400 -0.1821
77382SOL    HW249757   7.618   3.386   2.830  0.3277 -0.4672  0.4958
77383SOL     OW49758  10.019   5.598  13.263  0.3883  0.4610 -0.0301
77383SOL    HW149759  10.052   5.667  13.321  1.7959 -1.3879  1.4960
77383SOL    HW249760   9.923   5.609  13.266  0.4735  1.0606  1.8635
77384SOL     OW49761   7.401   0.170   0.417  0.1125 -1.0480  0.1453
77384SOL    HW149762   7.392   0.076   0.402 -0.2321 -1.1321  0.8399
77384SOL    HW249763   7.370   0.210   0.335 -0.0304 -1.5282 -0.0402
77385SOL     OW49764   9.410   9.088   4.277  0.8285 -0.0361  0.4025
77385SOL    HW149765   9.460   9.131   4.207  0.6893  2.7881  1.9272
77385SOL    HW249766   9.321   9.082   4.243  0.6259  1.8921  0.5144
77386SOL     OW49767  13.091   8.101   4.056 -0.5250 -0.0990  0.0633
77386SOL    HW149768  13.081   8.070   4.146 -1.1198  0.7293  0.2996
77386SOL    HW249769  13.079   8.196   4.063  1.4477  0.2474 -0.5971
77387SOL     OW49770  10.768   6.939  13.705 -0.1443 -0.0974 -0.3757
77387SOL    HW149771  10.786   6.932  13.798  0.0849 -2.1460 -0.5188
77387SOL    HW249772  10.798   6.856  13.668 -2.0638 -0.1802 -1.9565
77388SOL     OW49773   6.330  10.614   3.706  0.1056  0.3436  0.0388
77388SOL    HW149774   6.254  10.665   3.680 -0.0147  0.2912  0.2819
77388SOL    HW249775   6.369  10.585   3.624 -1.0540 -0.9847 -0.0739
77389SOL     OW49776  11.339  12.663  12.024 -0.3283  0.2147 -0.2849
77389SOL    HW149777  11.427  12.700  12.020 -0.9505  1.7557 -0.3376
77389SOL    HW249778  11.281  12.737  12.010 -1.7249 -0.3075  2.1239
77390SOL     OW49779   5.197  13.831   1.172  0.2204  0.3279  0.4397
77390SOL    HW149780   5.271  13.889   1.190  0.0436  0.4288  0.8798
77390SOL    HW249781   5.195  13.772   1.247 -0.3919  0.5926  0.6390
77391SOL     OW49782  12.437   0.102  13.688 -0.0809 -0.0114  0.2280
77391SOL    HW149783  12.401   0.050  13.616  1.2680  0.0621 -0.5327
77391SOL    HW249784  12.436   0.192  13.656  4.0382 -0.3110 -1.4036
77392SOL     OW49785   9.054   9.212  11.010  0.0615 -0.0045 -0.4751
77392SOL    HW149786   9.065   9.119  11.031 -0.8306 -0.2915 -1.1723
77392SOL    HW249787   9.114   9.258  11.068 -1.9530 -0.7466  2.3970
77393SOL     OW49788   7.807   4.545   0.565 -0.6242 -0.0550  0.1950
77393SOL    HW149789   7.847   4.629   0.586  2.9815 -0.9619 -2.1156
77393SOL    HW249790   7.716   4.566   0.545 -0.0636  3.1535  0.5904
77394SOL     OW49791   1.411  13.260   4.887  0.7762  0.4406 -0.2586
77394SOL    HW149792   1.433  13.240   4.796  1.2597 -1.0344  0.1647
77394SOL    HW249793   1.485  13.228   4.938 -0.1591 -0.1259  0.7760
77395SOL     OW49794  10.288  11.947   7.933 -0.1327  0.2125  0.2221
77395SOL    HW149795  10.356  12.011   7.955 -1.4264  1.6970  0.0869
77395SOL    HW249796  10.209  11.982   7.974 -0.6971 -1.8789  1.0491
77396SOL     OW49797   0.479   4.538   2.760  0.3133  0.2615 -0.1835
77396SOL    HW149798   0.414   4.604   2.735  1.4817  0.9034 -1.6744
77396SOL    HW249799   0.520   4.513   2.677 -0.3693 -2.6929  0.2707
77397SOL     OW49800   6.691  13.102   9.699  0.6979  0.1244 -0.2204
77397SOL    HW149801   6.753  13.100   9.772  0.1562  2.1248  0.3746
77397SOL    HW249802   6.726  13.169   9.640 -0.2743  0.4633 -0.4316
77398SOL     OW49803  13.506   3.343   5.074  0.7104  0.1296 -0.4475
77398SOL    HW149804  13.466   3.257   5.058 -0.7938  0.4732  1.1507
77398SOL    HW249805  13.599   3.330   5.054  0.5267 -1.8657 -0.2511
77399SOL     OW49806   1.150   0.485   9.948 -0.3016 -0.2690 -0.2297
77399SOL    HW149807   1.071   0.538   9.957  0.1919  0.7294 -1.5022
77399SOL    HW249808   1.122   0.407   9.901 -0.6023 -0.0917 -0.3453
77400SOL     OW49809  11.410   9.055   7.784 -0.0967  0.0263  0.3470
77400SOL    HW149810  11.416   8.960   7.778  1.1818  0.1187  0.0000
77400SOL    HW249811  11.333   9.078   7.732 -1.0038 -0.8779  1.2389
77401SOL     OW49812  12.551   5.661  12.086 -0.7314 -0.4049  0.0121
77401SOL    HW149813  12.552   5.574  12.125 -0.9985 -0.7762 -0.7975
77401SOL    HW249814  12.640   5.674  12.054 -0.3809  0.0911  1.1266
77402SOL     OW49815   6.454   0.296   3.054  0.6281 -0.1790  0.6092
77402SOL    HW149816   6.395   0.233   3.013 -0.2740 -0.8096  2.6947
77402SOL    HW249817   6.396   0.362   3.092  1.4633  0.8679  0.1238
77403SOL     OW49818  13.909   0.128   5.812  0.0055  0.1031 -0.3422
77403SOL    HW149819  13.873   0.040   5.807  0.3654 -0.1047  0.5489
77403SOL    HW249820  13.934   0.149   5.722  1.8661 -1.5465 -0.2843
77404SOL     OW49821   0.152  12.500  13.518 -0.1003 -0.1636 -0.1098
77404SOL    HW149822   0.217  12.549  13.467  0.0628  2.7055  2.5640
77404SOL    HW249823   0.075  12.557  13.519 -1.9551 -2.4781 -1.2794
77405SOL     OW49824   4.942   3.896  13.279 -0.2131 -0.3566  0.3293
77405SOL    HW149825   5.008   3.870  13.215 -1.1568 -1.5080 -0.2219
77405SOL    HW249826   4.868   3.926  13.226 -0.7692 -0.7223  0.8755
77406SOL     OW49827   1.617   4.137   1.721  0.2814 -0.4343 -0.1401
77406SOL    HW149828   1.590   4.201   1.655  0.7685  0.1138  0.1808
77406SOL    HW249829   1.568   4.058   1.699 -1.2539  0.3881  0.1596
77407SOL     OW49830   2.632   1.224  10.323 -0.2808  0.2792  0.6977
77407SOL    HW149831   2.686   1.167  10.379  0.1169  0.4878  0.5328
77407SOL    HW249832   2.690   1.248  10.251 -0.7626  0.0956  0.2487
77408SOL     OW49833   4.253   1.829   0.513 -0.2470  0.6300  0.1916
77408SOL    HW149834   4.275   1.890   0.583 -0.6118  0.0979  0.7771
77408SOL    HW249835   4.305   1.751   0.531 -0.9765  0.1732  0.3594
77409SOL     OW49836  12.082  13.217  12.980  0.0328  0.9263  0.3602
77409SOL    HW149837  12.103  13.268  13.058  1.9692 -0.8141  1.0813
77409SOL    HW249838  12.151  13.150  12.976 -1.7794 -0.9952 -1.0721
77410SOL     OW49839   0.512  11.923   6.717  0.4504  0.7070 -0.6690
77410SOL    HW149840   0.418  11.909   6.708  0.3300  1.4768 -0.7225
77410SOL    HW249841   0.542  11.853   6.775 -0.4904  1.5545  0.9271
77411SOL     OW49842  12.049   3.333   5.020 -0.6836  0.1115  0.1304
77411SOL    HW149843  12.021   3.415   4.980 -0.9278 -0.0761 -0.0881
77411SOL    HW249844  12.025   3.342   5.112 -2.0108 -0.2662 -0.1451
77412SOL     OW49845   4.268   7.248   9.478 -0.2232 -0.0123  0.1190
77412SOL    HW149846   4.266   7.201   9.395  0.3811  0.7770 -0.3691
77412SOL    HW249847   4.196   7.212   9.529 -1.0952  0.0191 -1.0473
77413SOL     OW49848   6.826  12.017  10.958 -0.3532 -0.0929 -0.3045
77413SOL    HW149849   6.907  11.996  10.912  0.3636  0.9209  0.4726
77413SOL    HW249850   6.800  11.934  10.999  0.7959 -0.1978  0.2298
77414SOL     OW49851   3.235  12.356  11.357  0.6765 -0.1194 -0.2076
77414SOL    HW149852   3.243  12.380  11.265  0.8252 -0.4593 -0.2837
77414SOL    HW249853   3.310  12.300  11.374  0.6375 -0.0735  0.1166
77415SOL     OW49854   3.106   0.606   3.223  0.8104 -0.2799 -0.1386
77415SOL    HW149855   3.076   0.571   3.306  1.6128 -1.3715 -0.2834
77415SOL    HW249856   3.097   0.533   3.161 -0.1611  0.6363 -1.1125
77416SOL     OW49857  11.482   4.578   5.577  0.1584  0.4261 -0.6125
77416SOL    HW149858  11.469   4.484   5.572 -0.9672  0.5031  0.3693
77416SOL    HW249859  11.399   4.616   5.548 -0.0101  1.0739  0.6576
77417SOL     OW49860   4.669   5.268  11.057  0.3401 -0.3483  0.2394
77417SOL    HW149861   4.667   5.351  11.106 -0.7984 -0.7765  0.9524
77417SOL    HW249862   4.600   5.215  11.097  0.1312 -1.1361 -1.1168
77418SOL     OW49863   3.871  12.336   5.330 -0.1076  0.2895 -0.2517
77418SOL    HW149864   3.802  12.275   5.358 -0.2996  0.4814 -0.3073
77418SOL    HW249865   3.835  12.423   5.346  0.4060  0.3920  0.4131
77419SOL     OW49866  11.084   5.050   2.683 -0.0169  0.0154  0.4715
77419SOL    HW149867  11.167   5.085   2.649 -0.1886 -1.1209 -1.2403
77419SOL    HW249868  11.028   5.042   2.606 -1.4182 -0.0811  1.4693
77420SOL     OW49869   1.866   6.284  10.223  0.5216  0.4972 -0.0301
77420SOL    HW149870   1.798   6.246  10.168 -0.2274  1.7549 -0.0078
77420SOL    HW249871   1.820   6.319  10.298  1.5292 -1.1458  1.4244
77421SOL     OW49872   4.476   9.856   4.789 -0.1854  0.1203 -0.0466
77421SOL    HW149873   4.555   9.853   4.735 -1.2735  1.5146 -1.8170
77421SOL    HW249874   4.506   9.832   4.876  2.4957  2.0557 -0.3266
77422SOL     OW49875   9.041   1.991  12.376  0.3886  0.3327  0.6367
77422SOL    HW149876   8.956   1.958  12.346  0.6660 -0.5182  0.7499
77422SOL    HW249877   9.062   1.936  12.452  1.6647 -0.3815 -0.1964
77423SOL     OW49878   1.286   9.198   2.304 -0.5615 -0.2644  0.8523
77423SOL    HW149879   1.328   9.269   2.256 -1.1492 -0.6618 -0.2910
77423SOL    HW249880   1.321   9.118   2.264  0.0786 -0.6284  2.1092
77424SOL     OW49881   6.180   7.079  13.100  0.4382 -0.5785  0.2618
77424SOL    HW149882   6.150   7.110  13.185  0.1866  1.7197 -0.5726
77424SOL    HW249883   6.243   7.145  13.072  0.2267 -1.0613 -1.4837
77425SOL     OW49884   7.487   6.597   7.715  1.6378 -0.1925  0.0585
77425SOL    HW149885   7.498   6.504   7.695 -1.3084 -0.6154 -0.1556
77425SOL    HW249886   7.395   6.615   7.694  2.0362  2.7185  0.3624
77426SOL     OW49887   2.230  10.398  12.158  0.4492  0.0280 -0.0957
77426SOL    HW149888   2.212  10.305  12.162 -0.5705  0.2145 -0.3119
77426SOL    HW249889   2.167  10.438  12.218  2.6308  0.3546  2.1511
77427SOL     OW49890   9.083   5.964   5.446  0.5103 -0.0710  0.1700
77427SOL    HW149891   9.079   6.060   5.445  1.3587 -0.0042  1.5626
77427SOL    HW249892   8.993   5.936   5.461  0.2554  0.5047 -0.2653
77428SOL     OW49893   4.557   3.693   1.010  0.2336  0.2542  0.6559
77428SOL    HW149894   4.496   3.674   0.939 -0.2925  2.8941  0.3094
77428SOL    HW249895   4.509   3.668   1.089  0.2117 -1.2033  0.2159
77429SOL     OW49896   8.518   5.261   0.120  0.5859 -0.3555 -0.0543
77429SOL    HW149897   8.518   5.351   0.153  0.8759 -1.0705  2.0943
77429SOL    HW249898   8.429   5.248   0.086 -0.0977  0.1752  1.4153
77430SOL     OW49899  13.967  12.844   4.126  0.2859 -0.0589 -0.1027
77430SOL    HW149900  13.890  12.899   4.112 -0.8337 -1.2407  1.0880
77430SOL    HW249901  13.982  12.802   4.041 -1.4759 -1.1088  0.0374
77431SOL     OW49902   4.874   6.011   3.299  0.3058 -0.2538  0.0891
77431SOL    HW149903   4.851   5.963   3.379  0.2117 -0.4096 -0.0301
77431SOL    HW249904   4.938   6.076   3.327  0.5389 -0.5420  0.2266
77432SOL     OW49905  11.011  12.777   0.831  0.3968  0.6995 -0.0224
77432SOL    HW149906  10.999  12.790   0.737  1.4248  1.4653 -0.0617
77432SOL    HW249907  10.922  12.771   0.866  0.0021  0.5851 -1.0082
77433SOL     OW49908  11.856   6.233   0.230 -0.3517  0.1383  0.5643
77433SOL    HW149909  11.947   6.205   0.220 -1.1961 -2.4816 -0.8459
77433SOL    HW249910  11.835   6.278   0.149 -0.2047  1.1497  1.0786
77434SOL     OW49911  10.379  10.065  11.007  0.6143 -0.9134 -0.2428
77434SOL    HW149912  10.376  10.148  10.959  1.0084 -0.6111  0.2428
77434SOL    HW249913  10.330  10.082  11.088 -1.0751 -1.7719 -1.0339
77435SOL     OW49914  12.462   9.871   2.078 -0.1731 -0.4896 -0.1438
77435SOL    HW149915  12.464   9.902   1.988 -0.1840 -1.0086 -0.3267
77435SOL    HW249916  12.370   9.878   2.104 -0.3958 -1.5153 -0.5991
77436SOL     OW49917   1.612   1.967   0.965  0.0624  0.0592  0.5424
77436SOL    HW149918   1.570   1.882   0.956  2.5760 -1.5764  2.9905
77436SOL    HW249919   1.660   1.979   0.883  0.3327 -1.2833  0.4897
77437SOL     OW49920   8.650   5.443   3.521  0.5335  0.2881  0.1654
77437SOL    HW149921   8.660   5.360   3.474 -0.2319  0.2632  0.0363
77437SOL    HW249922   8.734   5.455   3.565  0.1450 -1.3663  1.4773
77438SOL     OW49923  10.731   3.138  10.596 -0.5654  0.5770 -0.5002
77438SOL    HW149924  10.807   3.088  10.628 -0.4178  0.5066 -0.9603
77438SOL    HW249925  10.765   3.227  10.585 -1.4109  1.4683  2.7223
77439SOL     OW49926  12.732  10.338  12.585 -0.0208  0.0928 -0.3153
77439SOL    HW149927  12.638  10.318  12.588  0.0574 -0.2061  0.3315
77439SOL    HW249928  12.771  10.263  12.539 -0.2518  0.8567 -1.8070
77440SOL     OW49929   1.054   2.720   5.089 -0.0372 -0.1986 -0.2669
77440SOL    HW149930   1.094   2.648   5.039  0.8522  1.1001 -1.5150
77440SOL    HW249931   1.129   2.773   5.116 -0.7769  1.6889 -1.6875
77441SOL     OW49932   5.455   2.309   7.874  0.1217  0.3582  0.0366
77441SOL    HW149933   5.480   2.270   7.790  1.4237  0.0586  0.5509
77441SOL    HW249934   5.486   2.247   7.940  0.8179  1.4930  0.8084
77442SOL     OW49935  11.199  13.232   0.334 -0.9675 -0.3002 -0.0696
77442SOL    HW149936  11.157  13.311   0.369 -1.5028 -0.9788  0.8940
77442SOL    HW249937  11.172  13.163   0.395  1.4721 -0.7966  0.5297
77443SOL     OW49938   1.683   6.390  11.049  0.3825  1.0087  0.1017
77443SOL    HW149939   1.735   6.462  11.011 -1.3753  2.5330  0.4552
77443SOL    HW249940   1.706   6.314  10.997  0.4527  2.3593 -1.9490
77444SOL     OW49941   3.762   3.060   9.846  0.0642  0.1986  0.2235
77444SOL    HW149942   3.685   3.092   9.800  0.2793  1.1534  0.5092
77444SOL    HW249943   3.771   3.118   9.921  0.9402 -0.0321  0.3085
77445SOL     OW49944   7.044   3.403   3.120  0.3109 -0.0269  0.5183
77445SOL    HW149945   7.039   3.365   3.033  0.7656  0.3022  0.3481
77445SOL    HW249946   7.129   3.446   3.123  0.1909  0.1833  1.0356
77446SOL     OW49947   0.820   0.939   3.455  0.5978  0.5485  0.2664
77446SOL    HW149948   0.778   0.870   3.506  1.8476  0.3806  1.1100
77446SOL    HW249949   0.797   1.020   3.502 -0.0492  0.6269 -0.1652
77447SOL     OW49950   7.797   0.110   6.487  0.1173 -0.4409  0.2991
77447SOL    HW149951   7.833   0.176   6.427  0.8882 -0.9573  0.1877
77447SOL    HW249952   7.748   0.161   6.552 -0.0147  0.1811 -0.2776
77448SOL     OW49953   2.535   5.793   0.109 -0.1760 -0.0804  0.2525
77448SOL    HW149954   2.592   5.741   0.052 -1.9547 -0.8308 -0.9045
77448SOL    HW249955   2.557   5.884   0.088 -0.3454 -0.3501 -1.1670
77449SOL     OW49956  13.572   1.722  11.338  0.1699  0.0626  0.3197
77449SOL    HW149957  13.503   1.707  11.402  0.1021  0.5698  0.3654
77449SOL    HW249958  13.638   1.656  11.358 -0.6331 -0.9318 -0.1970
77450SOL     OW49959   9.876   1.837   7.681 -0.5660 -0.1291  0.1217
77450SOL    HW149960   9.948   1.857   7.621  0.1095 -1.2196  0.5412
77450SOL    HW249961   9.798   1.838   7.626 -0.2603  1.1314 -0.3300
77451SOL     OW49962   3.253   6.613  10.915 -0.0316 -0.5783  0.2079
77451SOL    HW149963   3.311   6.578  10.983  0.5107  0.3755  0.2450
77451SOL    HW249964   3.311   6.639  10.844 -0.2849  1.4261  0.6888
77452SOL     OW49965   5.347  12.572   2.182  0.6413  0.2565  0.4158
77452SOL    HW149966   5.350  12.525   2.265  1.8488  2.3458  1.6334
77452SOL    HW249967   5.329  12.662   2.206 -1.4613  0.5621 -1.8182
77453SOL     OW49968  10.667  10.154   6.553  0.4865 -0.0006 -0.2737
77453SOL    HW149969  10.572  10.147   6.566  0.4223 -0.8200 -1.0772
77453SOL    HW249970  10.698  10.202   6.630 -0.3391 -1.2673  0.9026
77454SOL     OW49971   2.066   1.956  14.064  0.2778  0.0280  0.4514
77454SOL    HW149972   2.099   1.943  14.153  2.1728 -0.2625 -0.2513
77454SOL    HW249973   2.130   1.913  14.008 -0.8267  0.2901 -1.0774
77455SOL     OW49974   9.083   6.855  12.771 -0.0760 -0.3405  0.2102
77455SOL    HW149975   9.156   6.828  12.716 -1.1582 -0.6773 -1.1064
77455SOL    HW249976   9.105   6.822  12.858  1.6951  0.2519  0.0243
77456SOL     OW49977   1.242   8.979   6.110 -0.0592  0.3078  0.0835
77456SOL    HW149978   1.209   8.990   6.021 -0.5787 -0.7620  0.1364
77456SOL    HW249979   1.192   8.905   6.146  2.0229 -1.0388  0.3510
77457SOL     OW49980  10.303   6.537   3.584 -0.5280 -0.3700  0.4260
77457SOL    HW149981  10.333   6.469   3.644 -2.8769 -0.5284  1.5459
77457SOL    HW249982  10.279   6.610   3.641  1.2434  1.2132 -0.6946
77458SOL     OW49983   7.052   0.877   6.970 -0.2475 -0.1041 -0.3267
77458SOL    HW149984   7.117   0.899   6.904  0.3441  1.8134  0.8222
77458SOL    HW249985   7.043   0.781   6.965 -0.5948  0.0062 -3.4689
77459SOL     OW49986  11.976   2.257  10.784 -0.7494  0.2640 -0.1059
77459SOL    HW149987  12.012   2.318  10.848  2.1636 -0.5742 -0.7996
77459SOL    HW249988  12.019   2.173  10.803 -1.7830 -0.6455 -1.5107
77460SOL     OW49989  10.509   3.381   1.001 -0.0072 -0.4006  0.5731
77460SOL    HW149990  10.469   3.294   1.000 -0.7741 -0.0625  0.7727
77460SOL    HW249991  10.514   3.407   0.909  0.1425 -0.6210  0.5196
77461SOL     OW49992   4.210   1.502   6.836 -0.2637  0.4178 -0.0821
77461SOL    HW149993   4.165   1.419   6.825  0.3206 -0.1580  1.5436
77461SOL    HW249994   4.262   1.513   6.757 -1.6109  0.0695 -1.0408
77462SOL     OW49995   7.694   6.131   2.340 -0.0040  0.4166 -0.4478
77462SOL    HW149996   7.742   6.060   2.382 -0.4505 -0.9934 -2.1762
77462SOL    HW249997   7.735   6.211   2.372  0.0741 -0.5694  2.0917
77463SOL     OW49998   0.701  10.872   5.387  1.0048  0.1220 -0.5182
77463SOL    HW149999   0.794  10.883   5.405  1.0018  1.6678 -1.2840
77463SOL    HW250000   0.693  10.888   5.293  0.0946 -1.0672 -0.6815
77464SOL     OW50001   4.806   1.952   6.769  0.2431  0.7692 -0.0003
77464SOL    HW150002   4.738   1.896   6.732  1.0191  0.4416 -0.9707
77464SOL    HW250003   4.855   1.894   6.828 -0.5481  1.1063  1.0063
77465SOL     OW50004  10.015  11.938   2.032  0.2690  0.2060 -0.2062
77465SOL    HW150005  10.048  11.849   2.020 -0.2515 -0.1236  0.7491
77465SOL    HW250006   9.931  11.939   1.987  0.0461  0.0674  0.2057
77466SOL     OW50007   8.691   9.226   1.511 -0.2088  0.3053  0.0326
77466SOL    HW150008   8.603   9.250   1.541  1.0150  0.5358  4.0200
77466SOL    HW250009   8.685   9.133   1.489 -1.4765  0.3591  0.1100
77467SOL     OW50010   3.006  13.931   5.773  0.5456  0.0522 -0.4962
77467SOL    HW150011   2.996  13.970   5.860 -0.0646  0.5167 -0.7676
77467SOL    HW250012   3.100  13.938   5.755  0.8277 -0.8484  0.4813
77468SOL     OW50013  11.903   0.626  10.637  0.7679  0.1351  0.1922
77468SOL    HW150014  11.843   0.567  10.591  0.9851  0.9404 -1.1791
77468SOL    HW250015  11.869   0.630  10.726 -2.0751  1.5764 -0.8240
77469SOL     OW50016   6.303   9.102   0.121 -0.7247  0.0441 -0.2508
77469SOL    HW150017   6.385   9.077   0.078 -1.1538  2.1842 -2.5587
77469SOL    HW250018   6.330   9.155   0.196  0.0367  0.1737 -0.6080
77470SOL     OW50019   4.445  11.604   3.954 -0.4376  0.1181 -0.0886
77470SOL    HW150020   4.500  11.672   3.915  2.0082 -1.0351  1.0873
77470SOL    HW250021   4.481  11.522   3.920 -0.2920 -0.7590  2.0368
77471SOL     OW50022   1.530   7.695   4.805 -0.1158 -0.2801  0.1661
77471SOL    HW150023   1.513   7.607   4.771 -2.2925 -0.5242  1.6646
77471SOL    HW250024   1.603   7.728   4.752 -0.4769 -2.2509 -1.6822
77472SOL     OW50025   0.165   2.451  13.182 -0.1482  0.0536  0.5498
77472SOL    HW150026   0.246   2.502  13.191 -0.4367  0.9518 -1.3980
77472SOL    HW250027   0.116   2.469  13.262  0.5533  1.4336  0.6964
77473SOL     OW50028  11.575   7.403   8.795  0.1286  0.1725  0.0577
77473SOL    HW150029  11.535   7.487   8.774 -1.9561 -0.7512  0.1634
77473SOL    HW250030  11.668   7.424   8.810 -0.0317  2.1971 -1.3670
77474SOL     OW50031   5.473   2.607  12.881 -0.1232  0.3591 -0.7847
77474SOL    HW150032   5.525   2.685  12.861  0.6216  0.3567  0.9176
77474SOL    HW250033   5.491   2.590  12.973 -1.1926 -1.1548 -0.8200
77475SOL     OW50034   8.126  12.141   6.769  0.3151  0.4566 -0.6003
77475SOL    HW150035   8.053  12.192   6.803 -1.7472 -1.4447 -1.8727
77475SOL    HW250036   8.136  12.171   6.679 -0.2405 -0.6079 -1.0349
77476SOL     OW50037  10.225  11.662   3.081 -0.1763 -0.7370 -0.2152
77476SOL    HW150038  10.164  11.715   3.029 -0.1265 -2.3878 -2.0553
77476SOL    HW250039  10.193  11.672   3.171 -1.7507  0.2824 -0.8302
77477SOL     OW50040   8.890  13.421   2.930 -0.6105  0.0757 -0.0374
77477SOL    HW150041   8.835  13.445   3.005 -1.0027 -0.7628 -0.0447
77477SOL    HW250042   8.827  13.407   2.859 -0.1613  2.4759 -1.0231
77478SOL     OW50043   3.127  11.097  13.343  0.0764  0.0329 -0.2611
77478SOL    HW150044   3.140  11.188  13.371  0.4513  0.0386 -0.4613
77478SOL    HW250045   3.056  11.103  13.278  0.0584  0.1730 -0.2301
77479SOL     OW50046   9.174   4.891  12.965 -0.1081  0.4537  0.1335
77479SOL    HW150047   9.209   4.834  13.033  0.2762  0.3507 -0.1475
77479SOL    HW250048   9.114   4.835  12.915 -1.6406  0.9401  1.3525
77480SOL     OW50049   4.486   6.299   6.516  0.0275 -0.3212 -0.2902
77480SOL    HW150050   4.429   6.353   6.461  1.6160  1.3133 -0.4258
77480SOL    HW250051   4.459   6.318   6.606  0.0318  0.0607 -0.3697
77481SOL     OW50052   3.571   8.543   7.121 -0.0393 -0.4184  0.3376
77481SOL    HW150053   3.526   8.553   7.205  0.8974  1.2502  0.6822
77481SOL    HW250054   3.641   8.608   7.123  1.0441 -1.4738 -1.0733
77482SOL     OW50055   3.941   1.158   9.476  0.4188  0.3513 -0.4414
77482SOL    HW150056   3.913   1.114   9.556  0.4180  2.3787  0.7487
77482SOL    HW250057   4.025   1.198   9.498  1.8918 -1.4593 -2.4077
77483SOL     OW50058   6.142   3.118  10.867 -0.2443 -0.1255 -0.3710
77483SOL    HW150059   6.215   3.180  10.870  0.4781 -0.8213  4.8374
77483SOL    HW250060   6.066   3.170  10.892 -0.9033 -0.2189 -2.0280
77484SOL     OW50061   3.573  13.579  11.324 -0.3423 -0.0479 -0.0471
77484SOL    HW150062   3.536  13.621  11.402  0.2610  1.7746 -0.7004
77484SOL    HW250063   3.626  13.507  11.358 -0.4731  0.4279  1.1968
77485SOL     OW50064  12.404   4.278   8.504 -0.1442 -0.0317  1.1747
77485SOL    HW150065  12.464   4.205   8.492  0.6960  0.3775  2.6142
77485SOL    HW250066  12.414   4.302   8.597  0.1596  2.3663  0.5834
77486SOL     OW50067   3.781   7.801   0.980  0.2027 -0.1108  0.2534
77486SOL    HW150068   3.750   7.875   0.928  0.2963  0.8703  1.5401
77486SOL    HW250069   3.766   7.725   0.924  1.7084  1.0144 -1.8043
77487SOL     OW50070   1.338  11.305   3.963 -0.5277  0.1145 -0.2041
77487SOL    HW150071   1.266  11.355   4.002 -0.5541 -1.6685  2.2926
77487SOL    HW250072   1.389  11.274   4.038  2.6122  0.8507 -1.8518
77488SOL     OW50073   3.376   3.281   4.852 -0.5213 -1.2062  0.5742
77488SOL    HW150074   3.409   3.345   4.915 -1.6777 -0.2836  0.2841
77488SOL    HW250075   3.299   3.243   4.894 -0.7075 -1.3227  0.1339
77489SOL     OW50076  13.017   7.949  11.532  0.3098  0.6362  0.2736
77489SOL    HW150077  13.074   7.875  11.551  1.0433  0.4059 -2.4558
77489SOL    HW250078  12.934   7.926  11.573  0.6231 -1.5396 -0.1901
77490SOL     OW50079   8.497   8.816   3.954 -0.1615  0.3400  0.1238
77490SOL    HW150080   8.503   8.877   4.028 -2.2061  0.2658  0.4192
77490SOL    HW250081   8.562   8.748   3.972 -0.2398  0.6237  1.5575
77491SOL     OW50082   1.029  12.489   2.881  0.3775 -0.1094 -0.7274
77491SOL    HW150083   1.068  12.453   2.960  0.4330 -0.0042 -0.7072
77491SOL    HW250084   1.086  12.459   2.810 -0.7040 -1.8182 -0.9507
77492SOL     OW50085  11.871  12.240  10.625  0.0486 -0.7397 -0.0714
77492SOL    HW150086  11.929  12.173  10.661  1.3637 -1.1753 -2.6851
77492SOL    HW250087  11.817  12.193  10.561  2.3168  0.7631 -3.4168
77493SOL     OW50088   4.193  13.753   1.121 -0.2052 -0.6762  0.3427
77493SOL    HW150089   4.097  13.745   1.114 -0.3746  0.4242  1.1396
77493SOL    HW250090   4.225  13.721   1.037 -1.2945 -0.8486 -0.0334
77494SOL     OW50091   4.191   0.409   5.458  0.3701 -0.0486 -0.1618
77494SOL    HW150092   4.163   0.350   5.389  1.7061  0.6735 -1.3661
77494SOL    HW250093   4.155   0.371   5.538  1.2285 -2.5329 -0.8758
77495SOL     OW50094   5.906   0.913   6.881  0.4857  0.3203 -0.3016
77495SOL    HW150095   5.856   0.995   6.882 -0.9241 -0.4863  1.0627
77495SOL    HW250096   5.968   0.922   6.954  1.4847  0.8130 -1.1949
77496SOL     OW50097   1.903   4.262   1.217  0.4200  0.2562 -0.1672
77496SOL    HW150098   1.968   4.294   1.154  0.5909  0.1654 -0.0359
77496SOL    HW250099   1.919   4.168   1.222 -0.0871  0.1494 -0.5568
77497SOL     OW50100   3.661  12.053  10.722 -0.0151 -0.1838 -0.1892
77497SOL    HW150101   3.735  12.094  10.678 -1.3943  0.0386 -2.5383
77497SOL    HW250102   3.668  12.080  10.813  3.3944 -1.1588 -0.0343
77498SOL     OW50103   3.879   6.077   9.130  0.7230 -0.2277  0.1447
77498SOL    HW150104   3.796   6.071   9.083  0.5901 -1.3722  0.4951
77498SOL    HW250105   3.944   6.047   9.066  0.7774 -0.0281  0.1062
77499SOL     OW50106  13.257   0.505   0.529 -0.0793  0.4558 -0.2277
77499SOL    HW150107  13.334   0.516   0.472  0.7644  2.3819  1.1753
77499SOL    HW250108  13.183   0.527   0.473  0.6821  1.6984 -0.8030
77500SOL     OW50109  10.107   5.491  12.882 -0.4012  0.3182  0.1207
77500SOL    HW150110  10.112   5.445  12.966 -1.4421 -1.2411 -0.6329
77500SOL    HW250111  10.153   5.435  12.820 -1.1312  0.5910 -0.6946
77501SOL     OW50112   1.245  11.979   9.333 -0.3513  0.4583 -0.3555
77501SOL    HW150113   1.301  11.920   9.283  0.9470  0.5794  0.8923
77501SOL    HW250114   1.171  11.924   9.359 -0.1351 -0.0883 -0.8460
77502SOL     OW50115  12.105   6.815   6.394  0.2781  0.6033 -0.4311
77502SOL    HW150116  12.115   6.890   6.335  2.0856  1.1031  0.4386
77502SOL    HW250117  12.193   6.779   6.402 -0.1540 -0.2109  0.9777
77503SOL     OW50118  10.593   3.364   0.065  0.6156 -0.2530  0.3073
77503SOL    HW150119  10.631   3.431   0.008 -0.0289  0.8859  1.1742
77503SOL    HW250120  10.636   3.378   0.149  0.4280 -0.8990  0.5142
77504SOL     OW50121   6.392   3.416   7.210  0.5653 -0.4917  0.0108
77504SOL    HW150122   6.312   3.363   7.209  0.0467  0.2455 -1.9966
77504SOL    HW250123   6.462   3.352   7.224 -0.3062 -1.2161  1.2599
77505SOL     OW50124  10.507   2.719   9.494  0.7131  0.0740 -0.2808
77505SOL    HW150125  10.432   2.771   9.521  1.6825  1.7429 -0.6019
77505SOL    HW250126  10.552   2.697   9.576  0.7867  0.5620 -0.1845
77506SOL     OW50127   8.365  10.303   7.552 -0.1983 -0.5320  0.3319
77506SOL    HW150128   8.320  10.269   7.629 -0.8592 -0.5041 -0.0376
77506SOL    HW250129   8.366  10.398   7.565 -0.9812 -0.4704 -0.0564
77507SOL     OW50130   7.517   1.865   4.318  0.2335 -0.1094  0.1448
77507SOL    HW150131   7.459   1.803   4.273  0.8153  0.2427 -1.1354
77507SOL    HW250132   7.595   1.870   4.263 -0.0522  2.2435 -0.1596
77508SOL     OW50133   3.300   5.595   8.102  0.0808  0.0307 -0.3936
77508SOL    HW150134   3.237   5.648   8.052  1.8288  1.4713 -1.1560
77508SOL    HW250135   3.362   5.564   8.037 -0.7267 -2.8650  0.0771
77509SOL     OW50136   9.817   1.337  12.823  0.3244 -0.0340  0.2071
77509SOL    HW150137   9.756   1.411  12.816  0.0596 -0.2969 -0.3381
77509SOL    HW250138   9.898   1.376  12.855 -0.3702  0.1894  1.7628
77510SOL     OW50139  10.375  13.998   1.385 -0.1582 -0.0357 -0.0334
77510SOL    HW150140  10.385  13.913   1.426 -0.2897  0.3528  0.8112
77510SOL    HW250141  10.296  14.035   1.424  1.1048  1.4105  1.2877
77511SOL     OW50142   1.907   8.250  12.523 -0.0443  0.7849  0.7086
77511SOL    HW150143   1.826   8.270  12.475 -1.0064 -0.4159  1.7727
77511SOL    HW250144   1.976   8.284  12.466 -1.2170  0.8345 -0.7796
77512SOL     OW50145   2.472   8.098   5.010  0.2307  0.1307 -0.0531
77512SOL    HW150146   2.447   8.188   5.030 -0.6132  0.0298 -0.6012
77512SOL    HW250147   2.459   8.090   4.916 -1.1551 -0.9843  0.1989
77513SOL     OW50148   0.578  13.251   8.834  0.2325 -0.2575 -0.2356
77513SOL    HW150149   0.529  13.330   8.813  0.1356  0.6793  2.9373
77513SOL    HW250150   0.513  13.181   8.833 -0.7574  0.5630  1.5001
77514SOL     OW50151   6.248   1.284   9.804  0.0237 -0.6167  0.2290
77514SOL    HW150152   6.225   1.277   9.896 -0.3279 -1.1671  0.0982
77514SOL    HW250153   6.178   1.238   9.757  0.4955 -0.8297 -0.2760
77515SOL     OW50154   1.231   7.864   4.569  0.6889  0.1109  0.3700
77515SOL    HW150155   1.186   7.909   4.497 -1.7569  0.0793  1.7669
77515SOL    HW250156   1.250   7.777   4.535  0.4272  0.3982 -0.5467
77516SOL     OW50157  12.078  10.032   1.663  0.3991  0.1311 -0.4013
77516SOL    HW150158  12.063  10.049   1.570  2.0048 -0.6879 -0.8575
77516SOL    HW250159  12.111  10.115   1.697  1.4210 -0.0177 -0.9773
77517SOL     OW50160   2.438   2.085   9.783  0.0611  0.2280 -0.0054
77517SOL    HW150161   2.374   2.067   9.852  1.3819 -0.2273  1.1479
77517SOL    HW250162   2.433   2.179   9.769  0.0640  0.3897  1.0232
77518SOL     OW50163   6.662   2.939   0.135 -0.7247  0.2255 -0.5517
77518SOL    HW150164   6.576   2.904   0.111 -0.5420 -0.0357 -0.8317
77518SOL    HW250165   6.655   2.957   0.229 -0.9889 -0.0824 -0.5103
77519SOL     OW50166   4.507   5.448  12.532  0.3299  0.7856 -0.5524
77519SOL    HW150167   4.533   5.450  12.624 -0.9984 -0.5224 -0.1048
77519SOL    HW250168   4.545   5.367  12.499  1.1725  1.4676 -1.2974
77520SOL     OW50169  13.310  11.097   8.649  0.1434 -0.0076 -0.6462
77520SOL    HW150170  13.243  11.126   8.711  1.0811 -1.0393  0.9127
77520SOL    HW250171  13.272  11.020   8.607  0.2472 -0.4735  0.0903
77521SOL     OW50172   0.558   3.856  12.202  0.6080  0.0302 -0.0365
77521SOL    HW150173   0.593   3.802  12.131 -0.1823 -2.4226  1.3449
77521SOL    HW250174   0.463   3.846  12.197  0.4584  0.9425  0.5547
77522SOL     OW50175  11.937  10.529   7.021 -0.6372 -0.2862 -1.0019
77522SOL    HW150176  11.919  10.574   6.939 -0.9872  0.6248 -0.4457
77522SOL    HW250177  11.852  10.526   7.066 -0.5714 -1.3072 -0.9296
77523SOL     OW50178   5.242   1.244  12.535  0.0495 -0.3358 -0.2952
77523SOL    HW150179   5.199   1.235  12.449  1.4713  2.1599 -1.3616
77523SOL    HW250180   5.312   1.179  12.533  1.4080  1.0723 -1.9823
77524SOL     OW50181  13.760   7.197  11.980 -0.2771 -0.7451  0.1215
77524SOL    HW150182  13.819   7.140  12.030  0.0088 -0.1343  0.4947
77524SOL    HW250183  13.750   7.274  12.035  0.8001  0.3651 -1.1543
77525SOL     OW50184   1.918   1.952   3.300 -0.0948 -0.3282  0.7513
77525SOL    HW150185   1.909   1.967   3.394  2.2274 -0.2678  1.0396
77525SOL    HW250186   2.012   1.936   3.287  0.0942  2.0099 -1.8849
77526SOL     OW50187   1.010   5.724   7.665  0.3632  0.1505 -0.2486
77526SOL    HW150188   0.978   5.699   7.579  0.2211 -0.4701 -0.0179
77526SOL    HW250189   0.971   5.810   7.681  1.3883  0.8574 -1.3282
77527SOL     OW50190   5.839  10.408   0.409 -0.1951  0.7126  0.5359
77527SOL    HW150191   5.746  10.425   0.392 -0.0746 -0.1824 -1.1700
77527SOL    HW250192   5.883  10.428   0.326  0.8891 -0.6285  0.7483
77528SOL     OW50193  10.570  11.494   4.986  0.3837 -0.3598 -0.4348
77528SOL    HW150194  10.520  11.528   5.060  1.0981 -1.0888  0.4181
77528SOL    HW250195  10.534  11.538   4.910 -0.2147  0.5945  0.3757
77529SOL     OW50196  10.459   5.633   3.516 -0.5241 -0.3286  0.0815
77529SOL    HW150197  10.472   5.701   3.583  1.0817  2.2599 -2.6078
77529SOL    HW250198  10.544   5.627   3.472 -2.0879 -0.0662 -3.2634
77530SOL     OW50199  12.869  12.189   7.872  0.2827  0.3958 -0.0824
77530SOL    HW150200  12.774  12.178   7.877  0.3940 -0.8110 -0.4246
77530SOL    HW250201  12.890  12.178   7.780  0.5423  2.7467 -0.3636
77531SOL     OW50202   5.495   2.075   4.213 -0.3127 -0.9609  0.0604
77531SOL    HW150203   5.461   2.058   4.125 -0.7897  2.9971 -0.7395
77531SOL    HW250204   5.422   2.117   4.259  0.9098  0.0524  1.1755
77532SOL     OW50205  13.494   8.072   1.750  0.0510 -0.0665 -0.2692
77532SOL    HW150206  13.432   8.082   1.823  0.8777 -0.3849  0.4989
77532SOL    HW250207  13.440   8.080   1.672 -1.0937 -1.0784  0.3820
77533SOL     OW50208  10.527   0.412  13.379 -0.5035 -0.5763 -0.0652
77533SOL    HW150209  10.484   0.428  13.463 -2.0145 -0.2496 -0.8631
77533SOL    HW250210  10.469   0.451  13.314  0.4866 -1.0680 -1.3050
77534SOL     OW50211  10.948  12.619   7.328  0.4217  0.6042 -0.3743
77534SOL    HW150212  10.919  12.594   7.240 -1.0182 -1.2636  0.5645
77534SOL    HW250213  11.040  12.645   7.316  0.3203  0.1941 -2.3827
77535SOL     OW50214  10.632  12.725   7.654  0.1836  0.0153 -0.0878
77535SOL    HW150215  10.594  12.736   7.567  1.9400 -0.4996 -0.9756
77535SOL    HW250216  10.600  12.640   7.683 -0.3642  0.1594 -0.2573
77536SOL     OW50217  11.934   3.603   8.360  0.3061 -0.4731  0.4384
77536SOL    HW150218  11.932   3.592   8.456 -0.1765  1.9855  0.7652
77536SOL    HW250219  12.021   3.639   8.342  0.1547 -0.3163  0.0308
77537SOL     OW50220   6.070  12.970   6.949 -0.4433  0.0475  0.1692
77537SOL    HW150221   6.144  12.941   7.001  0.7099  0.4275 -1.2045
77537SOL    HW250222   5.993  12.941   6.998  0.5980 -0.3089  1.6480
77538SOL     OW50223   2.856   7.452   3.745 -0.2819  0.0260 -0.4502
77538SOL    HW150224   2.898   7.439   3.660  0.7747 -2.0187  0.3258
77538SOL    HW250225   2.875   7.543   3.767  0.3084  0.2960 -1.9240
77539SOL     OW50226   8.005   8.975  10.775  0.0362  0.0805  0.3277
77539SOL    HW150227   8.095   8.999  10.753 -0.0837  1.1683  0.9571
77539SOL    HW250228   7.952   9.047  10.740 -0.2533  1.3766  3.1422
77540SOL     OW50229   9.697   6.121   7.656 -0.1452 -0.6214 -0.2110
77540SOL    HW150230   9.779   6.168   7.640 -0.7540 -0.2923 -2.6733
77540SOL    HW250231   9.715   6.032   7.626 -0.4384 -0.7913  0.1098
77541SOL     OW50232   6.611   2.823   7.328  0.3133 -0.3401  0.1831
77541SOL    HW150233   6.665   2.873   7.267 -2.6189  3.2319  0.1772
77541SOL    HW250234   6.574   2.752   7.275  0.7470  0.4450 -1.2095
77542SOL     OW50235   8.581   9.635  10.350 -0.1324  0.7852  0.4780
77542SOL    HW150236   8.570   9.724  10.385 -0.6098  0.7599  0.4041
77542SOL    HW250237   8.505   9.622  10.293 -0.2995  0.1748  0.8270
77543SOL     OW50238   4.564  12.962   0.089  0.2590 -0.3506 -0.0238
77543SOL    HW150239   4.611  12.994   0.012  0.2382  0.0769  0.1342
77543SOL    HW250240   4.616  12.993   0.164  0.2949 -0.7882  0.1311
77544SOL     OW50241   9.713  10.749   0.016 -0.2848  0.1741  0.1126
77544SOL    HW150242   9.756  10.833   0.031 -1.0659  0.5564  0.2263
77544SOL    HW250243   9.769  10.705  -0.049  0.3417  0.6090  0.3452
77545SOL     OW50244  11.925   8.975   1.519  0.2416 -0.2581 -0.1376
77545SOL    HW150245  11.919   9.009   1.608 -0.3419  0.3116 -0.3918
77545SOL    HW250246  11.874   9.036   1.466  0.1904 -0.8570 -0.7924
77546SOL     OW50247   3.196   0.174   9.170 -0.0596  0.4504  0.2286
77546SOL    HW150248   3.112   0.138   9.198  0.3631 -0.0220  0.9209
77546SOL    HW250249   3.187   0.185   9.076 -0.6851 -0.1853  0.2048
77547SOL     OW50250   1.083   5.140   3.384  0.3816 -0.0720 -0.2266
77547SOL    HW150251   1.014   5.079   3.358  0.5569  0.1264 -1.2094
77547SOL    HW250252   1.164   5.090   3.372  0.5005  0.2151 -0.6357
77548SOL     OW50253  12.183  10.981  13.513 -0.0616  0.1081  0.0243
77548SOL    HW150254  12.141  11.047  13.457 -0.4647 -1.1585 -1.2519
77548SOL    HW250255  12.124  10.971  13.587  0.0602  1.2435  0.2899
77549SOL     OW50256   9.878   9.432  11.610  0.4760 -0.1030  0.2718
77549SOL    HW150257   9.825   9.385  11.675 -1.0976  0.3588 -0.6145
77549SOL    HW250258   9.965   9.392  11.616 -0.3624 -1.9599  0.7261
77550SOL     OW50259  13.757   3.937   9.525  0.2526  0.5777  0.5032
77550SOL    HW150260  13.738   3.905   9.437 -0.2181 -1.2290  1.2061
77550SOL    HW250261  13.845   3.973   9.520  1.5501 -2.4029 -0.0351
77551SOL     OW50262   4.455   7.391   3.460 -0.4627  0.5500  0.1276
77551SOL    HW150263   4.370   7.430   3.440  0.0437  1.9658  0.6672
77551SOL    HW250264   4.517   7.463   3.454  0.6184 -0.3315  0.4071
77552SOL     OW50265   3.744   2.052   2.666  0.1560  0.4186  0.2630
77552SOL    HW150266   3.660   2.098   2.669 -0.6582 -0.9783 -0.2108
77552SOL    HW250267   3.785   2.082   2.584 -1.4892 -1.4728 -1.3636
77553SOL     OW50268   5.677   6.773   5.707 -0.1332  0.0189 -0.1764
77553SOL    HW150269   5.771   6.790   5.721 -0.1045  0.2275 -0.5964
77553SOL    HW250270   5.641   6.764   5.795  0.0878  1.0115  0.0247
77554SOL     OW50271   3.537   6.902   3.325 -0.5772 -0.1044 -0.3030
77554SOL    HW150272   3.515   6.852   3.403 -2.4142 -0.5624 -1.0342
77554SOL    HW250273   3.533   6.838   3.254  0.5732  0.3954 -0.8358
77555SOL     OW50274   7.955   9.288  11.998 -1.2740  0.2768  0.5035
77555SOL    HW150275   8.023   9.328  12.053  0.7230  0.3060 -1.8170
77555SOL    HW250276   7.984   9.305  11.909 -4.4323  0.3165 -0.6240
77556SOL     OW50277  13.347  10.664  13.540  0.0414  0.1154  0.0949
77556SOL    HW150278  13.375  10.744  13.496 -2.4028  1.0655  0.0584
77556SOL    HW250279  13.350  10.685  13.633  1.3831 -0.5012  0.2050
77557SOL     OW50280   9.025   7.866   0.202  0.5303 -0.1629 -0.3765
77557SOL    HW150281   9.010   7.943   0.257  3.2939 -1.4711  2.4727
77557SOL    HW250282   8.937   7.835   0.181 -0.7050  0.9699  2.5687
77558SOL     OW50283   4.080  11.713   9.049 -0.3301 -0.0204  0.0893
77558SOL    HW150284   4.050  11.736   9.136 -0.1518 -1.0415  0.4400
77558SOL    HW250285   4.072  11.617   9.046 -1.6161  0.0818 -1.4808
77559SOL     OW50286  12.305   1.530   6.016  0.3720  0.0273 -0.5194
77559SOL    HW150287  12.374   1.499   6.075  2.6848  2.2281 -1.8699
77559SOL    HW250288  12.279   1.614   6.052  1.5607  1.2309 -2.2941
77560SOL     OW50289   6.503   5.061   2.470 -0.2004 -0.0482  0.2529
77560SOL    HW150290   6.426   5.047   2.415 -0.7188 -0.5531  1.0765
77560SOL    HW250291   6.490   5.148   2.508  1.0085  1.0736 -1.7013
77561SOL     OW50292   6.890   2.749   8.000  0.0822  0.2128  0.8975
77561SOL    HW150293   6.916   2.841   7.988 -2.1478  0.7022 -0.7038
77561SOL    HW250294   6.919   2.705   7.920  0.5861 -0.3698  1.3894
77562SOL     OW50295   9.972  14.023   3.630  0.5773 -0.5808 -0.2156
77562SOL    HW150296  10.048  14.024   3.573  0.9003 -0.4267  0.2151
77562SOL    HW250297  10.005  14.048   3.716 -0.1765  0.9138 -0.3124
77563SOL     OW50298   7.345   7.526   0.052  0.4534  0.5918  0.3244
77563SOL    HW150299   7.340   7.607   0.101  1.5387 -0.0676  1.5749
77563SOL    HW250300   7.254   7.496   0.046  0.1105  1.6044  0.3139
77564SOL     OW50301   1.462   1.684   2.488  0.0069 -0.2460 -0.8099
77564SOL    HW150302   1.392   1.671   2.552  0.1684  0.1174 -0.5564
77564SOL    HW250303   1.518   1.607   2.499 -2.1858 -2.4513 -3.4724
77565SOL     OW50304  13.914   0.501  12.546  0.0658 -0.1059  0.1429
77565SOL    HW150305  13.837   0.559  12.544 -1.7056 -2.3479 -0.4429
77565SOL    HW250306  13.942   0.504  12.637 -2.0547 -0.8298  0.8852
77566SOL     OW50307  11.983  11.763  11.554 -0.3647 -0.4868  0.6582
77566SOL    HW150308  11.951  11.679  11.521  0.2423 -0.9492  1.2365
77566SOL    HW250309  11.934  11.828  11.503 -1.2452 -1.1785  0.5912
77567SOL     OW50310   2.794   0.935   6.656 -0.1641 -0.6337  0.1957
77567SOL    HW150311   2.761   0.966   6.571  1.4928  1.4671  0.2321
77567SOL    HW250312   2.725   0.958   6.718  0.2192  1.4718 -0.0731
77568SOL     OW50313   0.318   7.534  10.936  0.8966  0.7507  0.0742
77568SOL    HW150314   0.322   7.540  10.841  1.3078  0.1953  0.0481
77568SOL    HW250315   0.242   7.587  10.961  0.5943  0.6298 -0.5846
77569SOL     OW50316   7.760   2.635   9.528  0.1252 -0.4265  0.2365
77569SOL    HW150317   7.830   2.696   9.507  0.9939  0.2580  4.3283
77569SOL    HW250318   7.679   2.685   9.514  0.5844  0.0427 -0.8423
77570SOL     OW50319   0.168   8.161   0.706  0.0318 -0.1582  0.3920
77570SOL    HW150320   0.247   8.185   0.754  0.5009  1.5398 -1.1301
77570SOL    HW250321   0.128   8.244   0.682 -0.9756 -0.9612 -0.8826
77571SOL     OW50322  12.108   4.845   6.251 -0.2808  0.3598 -0.1518
77571SOL    HW150323  12.096   4.856   6.345  0.2745  0.0818 -0.0481
77571SOL    HW250324  12.161   4.920   6.224  0.5426 -0.1645 -0.0378
77572SOL     OW50325  11.338  11.732   7.546  0.3488 -0.3893  0.6783
77572SOL    HW150326  11.342  11.694   7.634 -1.9701 -0.8160  0.6685
77572SOL    HW250327  11.244  11.744   7.529  0.7927  0.9242 -1.2272
77573SOL     OW50328  10.040  12.010   7.570  0.3682  0.1651  0.1842
77573SOL    HW150329  10.009  11.921   7.554  0.9249 -0.0934  0.4996
77573SOL    HW250330  10.018  12.028   7.661 -0.3561  0.6105 -0.0734
77574SOL     OW50331  10.667   9.003   1.570  0.1976 -0.2475  0.1579
77574SOL    HW150332  10.670   8.915   1.531 -0.8270 -0.0262 -0.4384
77574SOL    HW250333  10.706   8.991   1.657 -1.2918 -1.6144  0.6873
77575SOL     OW50334   4.358   6.028   0.009 -0.2152  0.5586 -0.1308
77575SOL    HW150335   4.299   6.103   0.004 -1.3794 -0.3466 -0.2622
77575SOL    HW250336   4.332   5.972  -0.064  1.3815  0.5344 -0.7119
77576SOL     OW50337  12.309   3.008  11.350  0.1316  0.0390 -0.6684
77576SOL    HW150338  12.369   3.052  11.290  0.7855 -0.7204 -0.5737
77576SOL    HW250339  12.339   3.033  11.438  1.4531 -1.7731 -0.5618
77577SOL     OW50340  10.179   2.024  10.106 -0.4138 -0.8166  0.2807
77577SOL    HW150341  10.188   1.943  10.056 -1.3211 -0.7211 -0.0616
77577SOL    HW250342  10.093   2.016  10.148 -0.5073 -0.0396  0.2521
77578SOL     OW50343   3.117  12.793   0.001 -0.0642  0.3140  0.0950
77578SOL    HW150344   3.192  12.754   0.047  0.0672  0.7426  0.2531
77578SOL    HW250345   3.156  12.857  -0.058 -0.2713  0.1276 -0.2449
77579SOL     OW50346  12.498   1.393   6.422  0.0818 -0.7320 -0.5206
77579SOL    HW150347  12.473   1.378   6.513  0.4024  0.7311 -0.1814
77579SOL    HW250348  12.584   1.351   6.413  2.2988  3.0060  1.1927
77580SOL     OW50349   5.419  10.076   4.059  0.3169  0.6886  0.1312
77580SOL    HW150350   5.460  10.161   4.073  0.3445  0.8038 -0.5800
77580SOL    HW250351   5.460  10.043   3.979  0.3522 -0.0232  0.4367
77581SOL     OW50352   1.969   9.825   7.172  0.6699  0.2987  0.0996
77581SOL    HW150353   1.998   9.818   7.081 -0.2032  2.6440 -0.4341
77581SOL    HW250354   2.028   9.768   7.221  0.7812 -1.5237 -1.9776
77582SOL     OW50355   5.897  12.975   7.744 -0.1887 -0.6648  0.9758
77582SOL    HW150356   5.949  12.900   7.774  0.7883 -0.0184  0.9618
77582SOL    HW250357   5.957  13.024   7.688 -0.7211  0.2780  1.2124
77583SOL     OW50358   5.114  10.782  12.124  0.0582 -0.6570 -0.0065
77583SOL    HW150359   5.091  10.734  12.044 -1.2528 -0.2588  0.1049
77583SOL    HW250360   5.030  10.813  12.158  0.7927  0.9644  0.4090
77584SOL     OW50361  12.954  11.442   8.060 -0.2189 -0.1563 -0.5104
77584SOL    HW150362  13.021  11.409   8.119  0.1220  0.7011 -0.4151
77584SOL    HW250363  12.876  11.390   8.082  0.8188 -2.4390 -1.8581
77585SOL     OW50364   5.509   2.255  12.173  0.1212 -0.1334 -0.1920
77585SOL    HW150365   5.468   2.320  12.115  1.8626 -0.3789 -1.8006
77585SOL    HW250366   5.533   2.184  12.114 -1.1228 -1.9881  1.4300
77586SOL     OW50367   5.218   0.540  11.077  0.7609  0.7213  0.1749
77586SOL    HW150368   5.124   0.525  11.069  0.6765  1.1857  0.3036
77586SOL    HW250369   5.228   0.635  11.078  1.1620  0.6797  0.9807
77587SOL     OW50370   9.861   2.172  13.540  0.3600 -0.1640  0.3223
77587SOL    HW150371   9.907   2.088  13.533  0.6417  0.0122 -0.0376
77587SOL    HW250372   9.775   2.150  13.575  0.4300 -0.6061  0.2241
77588SOL     OW50373   1.917  12.795  10.814 -0.0880 -1.0088  0.2247
77588SOL    HW150374   1.910  12.890  10.819 -0.2220 -0.9750 -0.4324
77588SOL    HW250375   1.827  12.764  10.827 -0.1049 -1.0228  0.0808
77589SOL     OW50376  10.329   1.984  13.011  0.6360 -0.0198  0.2438
77589SOL    HW150377  10.303   1.895  12.987 -2.7677  1.0701 -0.7048
77589SOL    HW250378  10.326   1.984  13.107 -0.3577 -0.7136  0.2395
77590SOL     OW50379   3.592   6.185  12.168  0.1230 -0.6581 -0.2349
77590SOL    HW150380   3.634   6.147  12.245 -0.1502 -0.8987 -0.2049
77590SOL    HW250381   3.665   6.203  12.108  0.3158 -0.6524 -0.0038
77591SOL     OW50382   2.591  11.539  12.232  0.0244 -0.0965 -0.0692
77591SOL    HW150383   2.683  11.565  12.238  0.1919 -0.8137  0.8755
77591SOL    HW250384   2.566  11.558  12.142  0.9240  0.6669 -0.1780
77592SOL     OW50385   0.411   6.412   3.245 -0.1890 -0.5531 -0.0439
77592SOL    HW150386   0.354   6.485   3.270 -0.5930 -0.7086 -0.4938
77592SOL    HW250387   0.499   6.442   3.267 -0.2975  0.2618 -0.6649
77593SOL     OW50388  11.843   3.640   3.181  0.1565  0.1753 -0.1405
77593SOL    HW150389  11.871   3.701   3.112 -1.4567 -1.3422 -2.2643
77593SOL    HW250390  11.803   3.697   3.248  0.7443  1.6081 -0.9586
77594SOL     OW50391   5.967   1.863   8.370  0.1249 -0.9460  0.1178
77594SOL    HW150392   5.874   1.844   8.377 -0.2393  0.8014  0.6296
77594SOL    HW250393   5.990   1.840   8.280 -0.7590 -1.5619  0.0434
77595SOL     OW50394   5.583   9.274  12.281 -0.3255 -0.8803  0.4051
77595SOL    HW150395   5.669   9.303  12.249 -0.8405 -0.5193 -0.6819
77595SOL    HW250396   5.598   9.256  12.374  0.6484  0.3935  0.5364
77596SOL     OW50397  12.422   4.219  13.891 -0.4263  0.2464 -0.1786
77596SOL    HW150398  12.476   4.140  13.900 -0.6444  0.2941  2.2783
77596SOL    HW250399  12.459   4.280  13.956  0.9435  2.9741 -3.2431
77597SOL     OW50400  11.016  11.204   9.998 -0.4953  0.7549  0.2908
77597SOL    HW150401  10.992  11.266  10.068  2.1930  1.6733  0.5137
77597SOL    HW250402  11.056  11.259   9.931  1.3862 -0.6402  0.2102
77598SOL     OW50403   4.353  11.049   4.204 -0.0526  0.6928  0.0939
77598SOL    HW150404   4.395  11.109   4.266  0.0138  1.9091 -1.0932
77598SOL    HW250405   4.285  11.006   4.256  0.3956  1.2198  1.1684
77599SOL     OW50406  12.767  13.216  13.660 -0.5242 -0.3638  0.0359
77599SOL    HW150407  12.853  13.255  13.644  0.2652 -1.7997  0.6741
77599SOL    HW250408  12.734  13.195  13.573  0.0485 -0.3979 -0.1775
77600SOL     OW50409  12.602  12.872   2.369  0.1262  0.0518 -0.0419
77600SOL    HW150410  12.566  12.956   2.342 -3.0434 -0.0327  3.1145
77600SOL    HW250411  12.697  12.883   2.363 -0.1823  3.6163 -0.4152
77601SOL     OW50412   0.592   7.682  10.702 -0.1508  0.3051  0.1039
77601SOL    HW150413   0.500   7.690  10.676  0.3197 -0.5123 -2.0189
77601SOL    HW250414   0.593   7.612  10.767 -0.7011 -2.1644 -2.3574
77602SOL     OW50415   5.140   7.380   3.764  0.3737  0.3964 -0.2757
77602SOL    HW150416   5.067   7.336   3.722  0.8420 -0.7931  0.1221
77602SOL    HW250417   5.168   7.320   3.833  1.9710  0.6508 -0.6718
77603SOL     OW50418   2.485  10.628   2.100  0.0273  0.4977 -0.1236
77603SOL    HW150419   2.484  10.699   2.036  0.7238 -1.1416 -2.0585
77603SOL    HW250420   2.481  10.548   2.047 -0.5130 -0.9287  1.9510
77604SOL     OW50421   2.307   7.916   7.901  0.3629 -0.2881 -0.1854
77604SOL    HW150422   2.234   7.943   7.957  0.9622  0.7252  0.1314
77604SOL    HW250423   2.271   7.843   7.849 -0.1542 -1.3997  1.6247
77605SOL     OW50424  10.500  13.078   1.557 -0.0522 -0.2079 -0.3860
77605SOL    HW150425  10.566  13.035   1.502 -0.2124 -0.9844  0.0130
77605SOL    HW250426  10.522  13.052   1.646 -0.7606 -0.2959 -0.2278
77606SOL     OW50427   6.852   3.919   3.426  0.3142 -0.1289  0.0462
77606SOL    HW150428   6.791   3.954   3.361  0.7592 -0.7391 -0.7159
77606SOL    HW250429   6.835   3.825   3.426  1.7348 -0.4142 -0.7047
77607SOL     OW50430   7.304  12.893   0.559 -0.1228  0.1563 -0.1143
77607SOL    HW150431   7.355  12.933   0.488 -1.2905  0.3372 -0.8841
77607SOL    HW250432   7.220  12.939   0.556 -0.3602 -0.1749  1.0821
77608SOL     OW50433   9.703  13.393   6.787 -0.1600  0.3257 -0.1470
77608SOL    HW150434   9.766  13.466   6.791  1.1185 -0.8065  1.2646
77608SOL    HW250435   9.750  13.319   6.825 -2.1089 -0.7642  0.2235
77609SOL     OW50436   4.918  13.448  11.469 -0.2459  0.2559 -0.2412
77609SOL    HW150437   5.014  13.442  11.475 -0.0475  0.4487 -2.4218
77609SOL    HW250438   4.887  13.359  11.487  0.5542 -0.3953 -1.8149
77610SOL     OW50439   7.759   0.408   1.064  0.1045  0.0832  0.0250
77610SOL    HW150440   7.693   0.477   1.064 -1.6845 -1.5187  0.4196
77610SOL    HW250441   7.777   0.391   0.971 -2.1440 -1.2517 -0.2503
77611SOL     OW50442  12.032   0.411   4.804 -0.2890  0.7899 -0.2551
77611SOL    HW150443  12.039   0.465   4.883  0.4106  1.4358 -0.7411
77611SOL    HW250444  12.020   0.474   4.733  1.3428  0.4001 -0.9340
77612SOL     OW50445   3.816   3.768   9.757  0.0750  0.0390  0.2945
77612SOL    HW150446   3.816   3.682   9.799 -1.5698  0.8710  2.1443
77612SOL    HW250447   3.871   3.756   9.680  0.0596 -2.6091  0.5835
77613SOL     OW50448  12.635   7.875   7.203  0.2775 -0.1753 -0.0707
77613SOL    HW150449  12.703   7.861   7.269  0.3328 -1.8062 -0.4320
77613SOL    HW250450  12.661   7.819   7.130 -0.9943 -0.1527 -0.5628
77614SOL     OW50451  13.862   1.946   9.473 -0.1845 -0.3850 -0.0198
77614SOL    HW150452  13.847   1.977   9.562  0.2119 -0.8336  0.2054
77614SOL    HW250453  13.950   1.977   9.451  0.1467 -1.1843  0.1440
77615SOL     OW50454  12.354   9.425   1.361  0.2443 -0.5595 -0.0994
77615SOL    HW150455  12.385   9.352   1.415 -1.6162 -0.3066  1.4336
77615SOL    HW250456  12.266   9.398   1.333  0.5413  0.0248 -1.6910
77616SOL     OW50457   3.997   8.500  13.212  0.8990 -0.0475 -0.5819
77616SOL    HW150458   4.064   8.568  13.208  1.6578 -0.7975 -1.1268
77616SOL    HW250459   4.009   8.450  13.131 -0.3060 -0.2253 -0.6754
77617SOL     OW50460   4.694  10.387   6.385 -0.0721  0.0625  0.4283
77617SOL    HW150461   4.671  10.321   6.320 -0.2143 -0.0396  0.5860
77617SOL    HW250462   4.614  10.403   6.434 -0.3723  1.2160 -0.3724
77618SOL     OW50463   1.151  12.387   6.258  0.1238  0.1658  0.7983
77618SOL    HW150464   1.109  12.460   6.213  2.5090  1.2719  0.2123
77618SOL    HW250465   1.130  12.400   6.351 -3.1544 -1.0025  0.3633
77619SOL     OW50466  13.926   4.446   1.340 -0.0596 -0.4821  0.3095
77619SOL    HW150467  13.951   4.380   1.405  1.6259  1.0306  1.2914
77619SOL    HW250468  13.935   4.530   1.386 -0.0059  0.5759 -1.5246
77620SOL     OW50469   3.250   5.275   8.524 -0.6146 -0.0484  0.2250
77620SOL    HW150470   3.249   5.367   8.551  0.5788 -0.0702  0.4101
77620SOL    HW250471   3.179   5.268   8.460 -0.3032  1.1561 -0.2860
77621SOL     OW50472   0.989   6.475  13.701 -0.6447 -0.4277 -0.7673
77621SOL    HW150473   1.058   6.439  13.757  0.7093  1.2288 -1.2976
77621SOL    HW250474   0.987   6.416  13.626 -1.4897 -1.8496  0.3276
77622SOL     OW50475  10.588  14.027   9.049 -0.1753  0.0450 -0.0224
77622SOL    HW150476  10.506  13.982   9.030 -0.0161 -0.0443 -0.5086
77622SOL    HW250477  10.604  14.010   9.142 -0.4918 -0.2829 -0.0278
77623SOL     OW50478  11.914  11.095   1.920 -0.3063  0.4968  0.1391
77623SOL    HW150479  11.883  11.168   1.865 -0.7517  1.1544  1.2369
77623SOL    HW250480  11.910  11.129   2.009  0.6855 -0.4627  0.5648
77624SOL     OW50481   3.946  10.575  11.459 -0.3393 -0.0474  0.1480
77624SOL    HW150482   4.040  10.568  11.473 -0.4863 -0.0749  1.1569
77624SOL    HW250483   3.936  10.651  11.401  0.3190 -0.2202 -0.2014
77625SOL     OW50484   2.274   7.073  13.424  0.2520  0.2933 -0.9911
77625SOL    HW150485   2.366   7.070  13.452  0.2208  0.3263 -0.8835
77625SOL    HW250486   2.239   6.988  13.449 -0.3128  1.0267  0.9620
77626SOL     OW50487   0.230   8.874   4.571  0.0180  0.1978 -0.3078
77626SOL    HW150488   0.207   8.781   4.570  3.1218 -0.7048  0.6158
77626SOL    HW250489   0.246   8.896   4.479 -2.3394  0.3648 -0.7394
77627SOL     OW50490   4.611  13.767   7.909  0.2988 -0.2813  0.2952
77627SOL    HW150491   4.676  13.809   7.852  0.6001 -0.3757  0.5669
77627SOL    HW250492   4.662  13.710   7.966 -0.0904 -0.8702  0.0635
77628SOL     OW50493   3.780   3.926   2.414 -0.3038  0.1971  0.0988
77628SOL    HW150494   3.734   3.864   2.358 -0.5876  1.4828 -1.1655
77628SOL    HW250495   3.724   4.005   2.413  0.1859  0.5888  1.4056
77629SOL     OW50496   4.535   5.281   1.170  0.2244 -0.1333 -0.8750
77629SOL    HW150497   4.478   5.353   1.196  1.9810  0.6002  1.3027
77629SOL    HW250498   4.569   5.246   1.252  0.2103 -2.8528 -1.9146
77630SOL     OW50499   2.025   9.770  10.051  0.1003  0.6411 -0.0817
77630SOL    HW150500   2.018   9.674  10.046  0.6336  0.5452  0.8352
77630SOL    HW250501   1.972   9.801   9.977 -0.3430 -0.3490 -0.2082
77631SOL     OW50502   6.320   4.539   1.993  0.3850 -0.2502 -0.4151
77631SOL    HW150503   6.280   4.527   1.907  0.2174 -1.7955 -0.1594
77631SOL    HW250504   6.405   4.495   1.985  1.2804  1.4188 -0.4058
77632SOL     OW50505  13.923   3.898   4.378 -0.0502 -0.0823 -0.5776
77632SOL    HW150506  13.851   3.947   4.419  0.6111  0.9208 -0.5734
77632SOL    HW250507  13.898   3.889   4.287 -0.3116  0.0302 -0.5167
77633SOL     OW50508   7.876   2.514   6.221 -0.5503  0.0720  0.2461
77633SOL    HW150509   7.850   2.574   6.151  1.5453  0.7938  0.0060
77633SOL    HW250510   7.795   2.471   6.247 -1.7864  1.5159 -0.9928
77634SOL     OW50511  12.365   8.469  10.500  0.0792  0.5406 -0.1476
77634SOL    HW150512  12.360   8.564  10.498  0.1628  0.5527  0.3487
77634SOL    HW250513  12.422   8.448  10.574 -0.5996  0.0807  0.2553
77635SOL     OW50514   5.817   6.043   4.358 -0.1580 -0.4686 -0.3964
77635SOL    HW150515   5.810   5.953   4.389  1.2284 -0.8862 -1.2304
77635SOL    HW250516   5.874   6.086   4.422  0.0809 -0.4769 -0.6034
77636SOL     OW50517   3.578  13.543   8.484 -0.6574  0.1728 -0.8547
77636SOL    HW150518   3.567  13.448   8.492 -1.1553  0.0919 -2.1629
77636SOL    HW250519   3.581  13.558   8.389  0.2682  1.3736 -0.6551
77637SOL     OW50520   2.268  14.083   9.108  0.6371  0.0504  0.0549
77637SOL    HW150521   2.199  14.149   9.096  1.0099  0.2898 -0.8642
77637SOL    HW250522   2.341  14.115   9.056  1.3882 -0.3041  0.8613
77638SOL     OW50523   5.039  10.816   9.914  0.6441 -0.4691  0.1151
77638SOL    HW150524   5.090  10.759   9.856 -0.3341 -0.4955 -0.7421
77638SOL    HW250525   5.104  10.875   9.952  1.4812 -1.2631 -0.0310
77639SOL     OW50526   9.260   3.164  12.268  0.2897 -0.4138 -0.0735
77639SOL    HW150527   9.213   3.196  12.344  1.5347 -1.2330  1.1031
77639SOL    HW250528   9.204   3.095  12.232  0.2648 -0.8978  0.8766
77640SOL     OW50529   3.353   0.965   0.658 -0.0309  0.0327  0.1764
77640SOL    HW150530   3.262   0.939   0.640  0.0930 -0.4936  0.2807
77640SOL    HW250531   3.394   0.968   0.571  0.2923 -1.4568  0.2495
77641SOL     OW50532  11.355   6.406  10.786 -0.3819  0.2752  0.8089
77641SOL    HW150533  11.420   6.342  10.815  1.7229  1.4893 -0.9342
77641SOL    HW250534  11.272   6.359  10.789  0.8185 -1.9184  1.4324
77642SOL     OW50535   4.227   8.936   7.265 -0.3008 -0.0576 -0.0007
77642SOL    HW150536   4.191   8.982   7.190 -0.3981 -0.1951 -0.0385
77642SOL    HW250537   4.184   8.976   7.341  0.8662  1.0929  0.0967
77643SOL     OW50538   4.044   2.215   1.307  0.4447  0.6952  0.0450
77643SOL    HW150539   4.092   2.158   1.367  0.4619 -0.4257 -1.0031
77643SOL    HW250540   4.112   2.255   1.253  0.4272  1.7006  0.7300
77644SOL     OW50541   0.416   2.897   7.958  0.4904  0.1659  0.7183
77644SOL    HW150542   0.440   2.807   7.980  0.6351  0.3560  1.3721
77644SOL    HW250543   0.451   2.950   8.030  2.2169  1.0014 -0.6613
77645SOL     OW50544   8.900   2.445   8.531 -0.4947  0.0368  0.5154
77645SOL    HW150545   8.882   2.485   8.446 -1.8965 -0.4365  0.5528
77645SOL    HW250546   8.869   2.509   8.595 -0.0521  0.1136  0.6549
77646SOL     OW50547  13.087   9.741   9.982 -0.3876 -0.2908  0.4127
77646SOL    HW150548  13.150   9.672   9.962 -0.4948 -0.0189 -0.9271
77646SOL    HW250549  13.002   9.698   9.974 -0.4101 -0.5289  1.7214
77647SOL     OW50550   7.576  12.282  12.158 -0.5144  0.1589  0.0786
77647SOL    HW150551   7.538  12.195  12.142 -0.6016 -0.2357  2.1152
77647SOL    HW250552   7.573  12.291  12.253 -1.6467  2.9269 -0.1479
77648SOL     OW50553   6.497  12.267   3.074  0.8993 -0.3747  0.7222
77648SOL    HW150554   6.456  12.272   3.160  0.3181 -1.3159  0.5100
77648SOL    HW250555   6.471  12.349   3.030 -0.7964 -0.9404  0.5916
77649SOL     OW50556  11.012   9.615  13.375  0.1656 -0.3604 -0.4799
77649SOL    HW150557  11.075   9.601  13.445  0.1685 -2.1002 -0.7856
77649SOL    HW250558  10.944   9.550  13.391 -0.1575 -0.3530 -1.7319
77650SOL     OW50559   5.014   8.623   2.596 -0.7061  0.0873 -0.1635
77650SOL    HW150560   5.017   8.702   2.651  2.1848 -0.0071  0.0037
77650SOL    HW250561   4.976   8.653   2.513 -1.4547  1.1815  0.5513
77651SOL     OW50562  10.350   8.632   8.147 -0.4044  0.3143 -0.0381
77651SOL    HW150563  10.285   8.572   8.183 -0.8910  1.6330  1.3778
77651SOL    HW250564  10.418   8.636   8.214  0.3910  0.1419 -0.8247
77652SOL     OW50565   4.556  13.976   9.870 -0.1342  0.1962  0.5366
77652SOL    HW150566   4.613  14.002   9.798  1.2480 -1.5363  0.9588
77652SOL    HW250567   4.590  14.023   9.946 -0.3488  0.4850  0.4550
77653SOL     OW50568   7.771  13.463  13.114 -0.0730 -0.3950 -0.4151
77653SOL    HW150569   7.735  13.542  13.154 -0.2867 -0.2387 -0.9058
77653SOL    HW250570   7.694  13.409  13.096 -0.1211  0.0772 -1.7703
77654SOL     OW50571  13.347   8.338   5.718  0.6546  0.4445  0.2050
77654SOL    HW150572  13.392   8.413   5.757  2.4862 -0.6307  0.2444
77654SOL    HW250573  13.254   8.356   5.734  1.0196  2.7239  0.1420
77655SOL     OW50574   1.349   1.030   1.646  0.2700 -0.2343 -0.0879
77655SOL    HW150575   1.391   1.049   1.730  0.9771  1.8617 -0.8360
77655SOL    HW250576   1.409   1.065   1.581 -1.2758  0.1840 -1.3584
77656SOL     OW50577  10.011  12.793   6.720 -0.3925 -0.3458  0.0143
77656SOL    HW150578   9.999  12.872   6.668  0.8021  0.4839  0.9195
77656SOL    HW250579   9.942  12.733   6.691 -1.8616  1.3274 -0.1171
77657SOL     OW50580  11.105  10.731   4.639 -0.6958  0.2846 -0.1326
77657SOL    HW150581  11.051  10.656   4.614 -0.8170 -0.1395  1.2893
77657SOL    HW250582  11.192  10.693   4.654 -0.1735  0.8280 -1.6119
77658SOL     OW50583  10.767  11.433  13.213  0.5760 -0.1336 -0.3092
77658SOL    HW150584  10.721  11.517  13.208 -0.5876 -0.8246 -2.0227
77658SOL    HW250585  10.731  11.391  13.291  1.7475  1.2296  1.0346
77659SOL     OW50586   4.965  13.038  10.799 -0.3882  0.1713 -0.2596
77659SOL    HW150587   4.994  13.111  10.743  2.0546 -0.0688  0.5688
77659SOL    HW250588   5.018  12.964  10.770 -1.0810 -0.6496  0.5472
77660SOL     OW50589   1.221  10.691   5.907  0.1669  0.4179 -0.1642
77660SOL    HW150590   1.230  10.596   5.909 -1.3146  0.2284 -0.9086
77660SOL    HW250591   1.253  10.721   5.992  0.0764 -0.8093  0.3134
77661SOL     OW50592   6.914   9.774   3.394  0.1065  0.2169  0.0323
77661SOL    HW150593   6.861   9.820   3.459  1.6004  0.5732  1.0436
77661SOL    HW250594   6.990   9.830   3.380  0.6222 -0.6496 -0.7742
77662SOL     OW50595  12.127   7.568   5.712 -0.2581 -0.3111 -0.2725
77662SOL    HW150596  12.191   7.638   5.719  0.4213 -1.0156  0.9668
77662SOL    HW250597  12.055   7.606   5.661  0.8929  0.6619 -1.2258
77663SOL     OW50598   4.393   0.283   4.745  0.5149 -0.3532 -0.3015
77663SOL    HW150599   4.383   0.373   4.774 -0.7966 -0.9299  1.1760
77663SOL    HW250600   4.388   0.287   4.649  0.8965  1.1624 -0.2737
77664SOL     OW50601   7.603   3.324   3.507  0.2207  0.8420  1.0280
77664SOL    HW150602   7.581   3.282   3.590  0.2886  0.5335  0.8929
77664SOL    HW250603   7.553   3.405   3.506 -0.7340  0.2624  0.8242
77665SOL     OW50604   9.938  13.484   7.917 -0.4336 -0.4528 -0.4847
77665SOL    HW150605   9.943  13.545   7.844  0.9242  0.2976  0.1856
77665SOL    HW250606  10.003  13.516   7.979  0.5252 -2.7410 -0.2074
77666SOL     OW50607   6.954  12.142   6.290 -0.1622  0.0569  0.4946
77666SOL    HW150608   7.027  12.190   6.330  0.8775  0.7101 -1.9647
77666SOL    HW250609   6.876  12.184   6.325  0.7012  3.2933 -0.9915
77667SOL     OW50610   6.041   8.178   2.179  0.5683 -0.1178  0.6724
77667SOL    HW150611   6.121   8.147   2.221  0.3072 -1.8564 -0.0317
77667SOL    HW250612   5.970   8.140   2.232  0.2380 -0.7259 -0.1872
77668SOL     OW50613   0.653   5.193  12.067 -0.2736 -0.2503  0.0185
77668SOL    HW150614   0.738   5.228  12.092 -0.0123 -0.7488 -0.1699
77668SOL    HW250615   0.661   5.175  11.973 -1.2113  1.5179 -0.4632
77669SOL     OW50616   7.614   2.062  10.327  0.3644  0.0543  0.0559
77669SOL    HW150617   7.638   1.970  10.327 -1.3065 -0.4263  0.8744
77669SOL    HW250618   7.662   2.100  10.253  1.9091 -1.2164  0.3638
77670SOL     OW50619   0.994  11.807   0.746  0.4574  0.5107 -0.4606
77670SOL    HW150620   1.053  11.743   0.786 -0.4231  0.3230  0.5508
77670SOL    HW250621   1.000  11.789   0.652  1.7210  0.2572 -0.3576
77671SOL     OW50622   4.530   7.783  12.644 -0.2266  0.1800 -0.4838
77671SOL    HW150623   4.520   7.722  12.716  0.4464 -0.1834 -0.6925
77671SOL    HW250624   4.459   7.846  12.656  0.3382  0.5802  0.9409
77672SOL     OW50625   0.352   5.595  13.492 -0.3863  0.3105  0.0141
77672SOL    HW150626   0.372   5.626  13.404 -0.4918  1.0400  0.2383
77672SOL    HW250627   0.422   5.632  13.546 -1.0143  0.9097  0.4294
77673SOL     OW50628   1.285  11.743  13.496 -0.0338 -0.6283 -0.2074
77673SOL    HW150629   1.335  11.738  13.577  2.0085  0.0161 -1.3422
77673SOL    HW250630   1.351  11.735  13.427 -1.4480  0.7589 -1.8167
77674SOL     OW50631  13.654  13.459   0.702 -0.1593  0.3720  0.2735
77674SOL    HW150632  13.710  13.503   0.638 -1.4612  2.1047  0.2662
77674SOL    HW250633  13.613  13.388   0.652  2.0746 -1.0918  0.3300
77675SOL     OW50634   6.307   4.043   3.461  0.6828 -0.8573 -0.3769
77675SOL    HW150635   6.401   4.031   3.472  1.0840  1.4235 -0.8116
77675SOL    HW250636   6.267   3.991   3.532  2.5213  2.2735  3.2783
77676SOL     OW50637   7.835   1.191  12.465  0.5306  0.0070 -0.0584
77676SOL    HW150638   7.833   1.225  12.376  2.5954 -0.9253 -0.5152
77676SOL    HW250639   7.846   1.097  12.455  2.0760  0.0097  1.1394
77677SOL     OW50640   2.651   9.054   5.976 -0.3344 -0.1529 -0.1192
77677SOL    HW150641   2.675   9.062   6.068  0.2816 -1.2465 -0.1681
77677SOL    HW250642   2.669   9.141   5.939  3.7864 -0.8101 -0.1562
77678SOL     OW50643   0.858   9.460   3.116  0.8162  0.0899 -0.0919
77678SOL    HW150644   0.828   9.461   3.025  0.3861 -0.8442  0.0358
77678SOL    HW250645   0.938   9.408   3.115  0.0715 -1.0878  0.2796
77679SOL     OW50646   8.911   5.704   3.960 -0.6159 -0.1103 -0.1831
77679SOL    HW150647   8.912   5.609   3.968 -0.0649 -0.0271  0.8753
77679SOL    HW250648   8.868   5.720   3.876 -0.1556 -1.3055 -0.6702
77680SOL     OW50649   3.585  10.536  13.467  0.1626 -0.2599  0.4541
77680SOL    HW150650   3.512  10.566  13.521  1.4182  1.5912  1.2177
77680SOL    HW250651   3.561  10.446  13.442 -2.4370  0.3382  0.5115
77681SOL     OW50652   4.748   9.794   4.827  0.5709  0.1429 -0.4261
77681SOL    HW150653   4.836   9.815   4.795  0.3640 -0.2214 -1.2418
77681SOL    HW250654   4.752   9.701   4.849  0.9775  0.5657  1.5274
77682SOL     OW50655   0.784  12.996   2.314 -0.1401 -0.1615 -0.3176
77682SOL    HW150656   0.822  12.931   2.254 -2.4256 -0.2116 -1.8506
77682SOL    HW250657   0.711  12.950   2.356 -0.7097  0.8906 -0.1167
77683SOL     OW50658   3.077   7.311  13.015 -0.5966  0.3023 -0.5683
77683SOL    HW150659   3.089   7.306  13.109 -0.5517 -0.9373 -0.6247
77683SOL    HW250660   3.020   7.387  13.002  0.2986  1.1684  0.3506
77684SOL     OW50661   5.128   4.999  11.011  0.5414  0.0123  0.4189
77684SOL    HW150662   5.221   4.998  11.036  0.7698  2.2658 -0.0576
77684SOL    HW250663   5.125   5.058  10.935 -1.4240  0.9209  1.1259
77685SOL     OW50664   7.664   5.496   2.564 -0.0247 -0.0678  0.4981
77685SOL    HW150665   7.750   5.532   2.540 -0.0207 -0.5706 -0.2921
77685SOL    HW250666   7.659   5.413   2.517 -0.5148 -0.5547  1.3836
77686SOL     OW50667   3.128   0.992  12.552  0.3305 -0.2715  0.1389
77686SOL    HW150668   3.159   1.082  12.561 -0.2236 -0.0444 -0.1784
77686SOL    HW250669   3.039   0.993  12.586 -0.9215  0.0730 -2.7920
77687SOL     OW50670  11.837   3.570   0.715  0.5011 -0.3803  0.2758
77687SOL    HW150671  11.848   3.664   0.702 -1.0427 -0.3057 -0.6312
77687SOL    HW250672  11.815   3.561   0.808 -0.0704  0.2309  0.2063
77688SOL     OW50673  13.546   4.236   8.900 -0.1837  0.4714  0.1423
77688SOL    HW150674  13.511   4.311   8.851 -0.4205 -0.5580 -1.3053
77688SOL    HW250675  13.582   4.275   8.980  0.4630  2.2396 -0.9574
77689SOL     OW50676  11.560   5.633  11.501 -0.0469  0.0641 -0.4678
77689SOL    HW150677  11.529   5.632  11.411 -1.0366  0.0387 -0.1438
77689SOL    HW250678  11.585   5.723  11.518 -0.9250  0.3055 -0.4275
77690SOL     OW50679   8.982   8.075   0.629  0.0708  0.1524  0.4973
77690SOL    HW150680   8.957   8.090   0.538  1.3748 -0.6937 -0.0350
77690SOL    HW250681   9.072   8.043   0.624 -0.3857 -1.5125  1.9684
77691SOL     OW50682   4.770   5.888  10.094 -0.7958 -0.5871  0.1255
77691SOL    HW150683   4.742   5.943  10.167  1.3902  1.5335 -0.4764
77691SOL    HW250684   4.726   5.925  10.018 -1.3278 -1.3544  0.0560
77692SOL     OW50685  12.859  10.998   9.264  0.3193  0.4171  0.0627
77692SOL    HW150686  12.829  11.042   9.184 -0.5841  0.2101  0.2677
77692SOL    HW250687  12.802  10.921   9.271 -0.1746  0.8688  1.3336
77693SOL     OW50688   7.942   7.912   4.619  0.5339  0.3080 -0.3776
77693SOL    HW150689   8.006   7.864   4.672  0.3346  0.4128 -0.0416
77693SOL    HW250690   7.931   7.857   4.541 -0.9738 -1.0968  0.7518
77694SOL     OW50691  14.039   4.288  12.416 -0.5712  0.4019 -0.3495
77694SOL    HW150692  14.121   4.326  12.385 -0.3442 -0.8080 -1.3025
77694SOL    HW250693  13.997   4.359  12.465  0.5736  1.3494 -0.6868
77695SOL     OW50694   2.995   0.864  11.372  0.4165  0.3624  0.2048
77695SOL    HW150695   2.935   0.937  11.360 -0.8341 -0.6532 -0.0385
77695SOL    HW250696   3.003   0.825  11.284  2.8004  1.4516 -0.1337
77696SOL     OW50697   2.293   3.676  13.787 -0.2780  0.0288  0.0441
77696SOL    HW150698   2.387   3.661  13.800 -0.3987  0.2722  1.3376
77696SOL    HW250699   2.256   3.588  13.777  0.4008 -0.0201 -3.3336
77697SOL     OW50700   8.341  13.224  11.093  0.3512 -0.5633  0.3410
77697SOL    HW150701   8.375  13.147  11.048  0.1169 -0.4152 -0.0954
77697SOL    HW250702   8.253  13.236  11.057  1.0111  0.9321 -0.9137
77698SOL     OW50703  12.312   5.722   3.965 -0.6587  0.1118 -0.4744
77698SOL    HW150704  12.355   5.681   3.890 -1.9546  1.3389 -1.9744
77698SOL    HW250705  12.342   5.672   4.041  2.7616  0.3952 -1.4678
77699SOL     OW50706  11.346   6.217   5.304  0.0890 -0.1127  0.0564
77699SOL    HW150707  11.415   6.272   5.341  0.2504 -0.3861  0.1674
77699SOL    HW250708  11.381   6.188   5.219 -0.1526  0.2608 -0.1761
77700SOL     OW50709   4.476  12.059   6.494 -0.4219  0.1249 -0.0892
77700SOL    HW150710   4.511  11.978   6.532  1.3211  0.6771 -0.4352
77700SOL    HW250711   4.519  12.066   6.409  0.3335  1.9784  0.4147
77701SOL     OW50712   2.164  10.703   9.433 -0.5244  0.1306 -0.1422
77701SOL    HW150713   2.254  10.692   9.401 -0.0251  1.9973  0.4733
77701SOL    HW250714   2.135  10.784   9.393 -1.3113  0.4403  1.0161
77702SOL     OW50715   0.982   4.801  12.743 -0.4001 -0.2879  0.2706
77702SOL    HW150716   0.999   4.787  12.836  0.2887 -0.1287  0.1808
77702SOL    HW250717   1.005   4.717  12.702  3.4393  0.7958 -0.2338
77703SOL     OW50718   4.175   8.072   8.821 -0.2038 -0.1138 -0.2254
77703SOL    HW150719   4.170   8.115   8.906  2.7931 -2.1067  1.1561
77703SOL    HW250720   4.179   7.979   8.842  1.1283 -0.6418 -2.4701
77704SOL     OW50721  11.451   3.437   7.862 -0.2931 -0.1373 -0.5969
77704SOL    HW150722  11.426   3.414   7.952 -0.6407  0.8122 -0.4321
77704SOL    HW250723  11.500   3.362   7.831  0.1780 -0.3256  0.5294
77705SOL     OW50724   8.885   3.481   2.959  0.1150  0.2681  0.1124
77705SOL    HW150725   8.876   3.465   2.865  0.1775  0.0926  0.1348
77705SOL    HW250726   8.892   3.393   2.998 -0.9141  0.2959  0.3885
77706SOL     OW50727   4.882  12.365   0.272  0.0366  0.1978  0.4360
77706SOL    HW150728   4.866  12.375   0.366 -0.1211  2.4015  0.2215
77706SOL    HW250729   4.978  12.357   0.266 -0.0389 -1.4067  0.8502
77707SOL     OW50730   3.045   2.115   5.844  0.0708 -0.0739 -0.0863
77707SOL    HW150731   3.076   2.149   5.928  1.7565 -0.0114 -0.6916
77707SOL    HW250732   2.962   2.073   5.865  0.5348 -0.2253  1.6576
77708SOL     OW50733   7.502  12.979  13.892  0.4478 -0.0889 -0.0130
77708SOL    HW150734   7.477  12.898  13.848 -1.2111  0.3340  0.0955
77708SOL    HW250735   7.520  13.041  13.820  0.2823 -0.1416 -0.1006
77709SOL     OW50736  12.495   0.206  13.094 -0.1891 -0.3230  0.1628
77709SOL    HW150737  12.532   0.217  13.006  0.2380 -0.2654  0.3433
77709SOL    HW250738  12.504   0.113  13.113 -1.3801 -0.5507 -0.3220
77710SOL     OW50739  13.812  13.063   6.986  0.0636 -0.1126 -0.1854
77710SOL    HW150740  13.779  13.151   6.968 -0.5683 -0.5079 -0.9953
77710SOL    HW250741  13.850  13.070   7.074 -0.9416  0.6966  0.2080
77711SOL     OW50742   0.631   4.594  11.017 -0.4171 -0.2735 -0.2379
77711SOL    HW150743   0.619   4.622  10.926  0.7001 -1.2397 -0.7129
77711SOL    HW250744   0.544   4.562  11.044 -1.2588  1.8053 -0.2748
77712SOL     OW50745   5.937   9.553   9.482 -0.0682 -0.2461  0.0587
77712SOL    HW150746   5.936   9.504   9.400  0.1200 -2.2992  1.1834
77712SOL    HW250747   5.903   9.639   9.460 -1.4325 -1.2102 -1.8705
77713SOL     OW50748  12.982   2.965  11.502  0.3771 -0.3522 -0.3273
77713SOL    HW150749  13.010   3.056  11.504  0.8064 -0.3616 -2.8965
77713SOL    HW250750  12.984   2.938  11.594  1.6802  1.7673  0.3560
77714SOL     OW50751  11.754   1.818  12.451  0.0633  0.4944 -0.4872
77714SOL    HW150752  11.789   1.848  12.535  0.6969 -0.4314 -0.4058
77714SOL    HW250753  11.710   1.735  12.471  0.3117  0.2118 -1.0905
77715SOL     OW50754   3.367   3.145   7.270  0.0041  0.1544  0.0306
77715SOL    HW150755   3.384   3.169   7.361  3.5895  1.9437 -0.9409
77715SOL    HW250756   3.396   3.054   7.263 -0.8203 -0.1814  0.7434
77716SOL     OW50757  11.056   3.287   9.742  0.8595  0.2022  0.1340
77716SOL    HW150758  10.980   3.339   9.768  0.7465 -0.5847  1.4837
77716SOL    HW250759  11.026   3.237   9.666  1.1041  2.3405 -1.4802
77717SOL     OW50760   8.216   6.000   1.377  0.0498  0.0739  0.8461
77717SOL    HW150761   8.228   6.072   1.439  3.0154  0.8758 -0.4754
77717SOL    HW250762   8.146   6.030   1.320  0.2633  1.2943  1.1829
77718SOL     OW50763   9.965   5.572  11.438  0.3214  0.3810 -0.0942
77718SOL    HW150764   9.980   5.569  11.533 -0.7095 -1.2491  0.0491
77718SOL    HW250765   9.990   5.485  11.407 -1.9846 -0.0755 -0.8614
77719SOL     OW50766   5.268   0.087   3.637 -0.0553 -0.1765  0.0886
77719SOL    HW150767   5.212   0.132   3.700 -0.6581 -0.4715 -0.2305
77719SOL    HW250768   5.354   0.084   3.680 -0.1511  0.7072  0.3801
77720SOL     OW50769   7.607  10.947  12.162  0.0833  0.4815 -0.2626
77720SOL    HW150770   7.670  10.978  12.226  0.6441 -0.6511 -0.2360
77720SOL    HW250771   7.540  10.901  12.213  1.6314 -2.3154 -0.5339
77721SOL     OW50772   2.963   0.631   8.539 -0.1419 -0.2656 -0.0130
77721SOL    HW150773   3.024   0.599   8.605  0.6137  0.4672 -0.3337
77721SOL    HW250774   2.953   0.725   8.559  0.7875  0.1729 -1.4406
77722SOL     OW50775   1.992  13.591   7.506 -0.3202  0.2334 -0.8065
77722SOL    HW150776   1.967  13.501   7.530 -0.7356  0.5934  0.1631
77722SOL    HW250777   2.055  13.580   7.434  0.1273 -0.8586 -0.2726
77723SOL     OW50778   9.079   5.626   3.260 -0.0243 -0.1140 -0.2979
77723SOL    HW150779   9.165   5.655   3.291 -0.6006  1.0925  0.2710
77723SOL    HW250780   9.025   5.705   3.262 -1.1041 -0.8084 -0.8146
77724SOL     OW50781   1.054  13.740   8.282 -0.2912 -0.3767 -0.7923
77724SOL    HW150782   1.061  13.682   8.358  1.7871 -0.9199 -1.3453
77724SOL    HW250783   1.109  13.699   8.215 -1.3980  0.5337 -2.3309
77725SOL     OW50784   4.138  10.751   3.476  0.3451 -0.4524  0.0500
77725SOL    HW150785   4.222  10.794   3.462 -0.7746  1.4244 -1.3082
77725SOL    HW250786   4.124  10.698   3.398 -0.4800  0.6284 -0.5738
77726SOL     OW50787   2.481   6.546   9.390 -0.0727 -0.6778 -0.3973
77726SOL    HW150788   2.469   6.459   9.428  0.3422 -0.1635  0.9530
77726SOL    HW250789   2.505   6.602   9.464  0.9346  0.3330 -1.4463
77727SOL     OW50790  13.723   6.510  11.653  0.2728  0.3593  0.0952
77727SOL    HW150791  13.812   6.478  11.645  1.1969  3.1245 -2.3801
77727SOL    HW250792  13.674   6.462  11.587  0.2304 -0.0700  0.4268
77728SOL     OW50793   1.267  12.866  13.110  0.0143  0.0918 -0.3587
77728SOL    HW150794   1.305  12.813  13.039  0.1360 -0.0190 -0.2095
77728SOL    HW250795   1.311  12.836  13.189  0.4238  0.7456 -0.3317
77729SOL     OW50796  13.112   1.755  11.912 -0.1648 -0.4109 -0.1380
77729SOL    HW150797  13.087   1.667  11.884  0.0714  0.2485 -2.6826
77729SOL    HW250798  13.041   1.782  11.971 -3.2103 -0.3820 -3.4503
77730SOL     OW50799  10.487   0.201   2.224  0.5876 -0.4089  0.4486
77730SOL    HW150800  10.567   0.252   2.218 -0.4139  1.3850  1.5926
77730SOL    HW250801  10.429   0.239   2.158  0.4196 -1.2245  0.1154
77731SOL     OW50802  13.388   7.190   2.423 -0.1280  0.1896  0.4028
77731SOL    HW150803  13.302   7.233   2.430 -1.8618 -2.8980  0.1421
77731SOL    HW250804  13.427   7.199   2.510 -1.2113  0.7272  0.8490
77732SOL     OW50805   2.721   4.385   2.702 -0.5454  0.1487  0.8078
77732SOL    HW150806   2.657   4.454   2.718 -1.7898 -0.0967 -2.2660
77732SOL    HW250807   2.783   4.424   2.639 -1.8131 -1.6398 -1.7455
77733SOL     OW50808   4.608   0.638  13.263 -0.2078 -0.1258 -0.3024
77733SOL    HW150809   4.659   0.557  13.270  0.0571  0.0216 -0.5313
77733SOL    HW250810   4.660   0.695  13.207  0.7638  1.0826  1.7023
77734SOL     OW50811   2.089   0.296   7.620 -0.2008 -0.5858 -0.0054
77734SOL    HW150812   2.171   0.343   7.635 -0.4145 -0.1696 -0.1207
77734SOL    HW250813   2.085   0.285   7.525 -0.0030 -1.1130  0.0437
77735SOL     OW50814  11.160  11.517   5.442  0.0421 -0.7053  0.2208
77735SOL    HW150815  11.224  11.449   5.420  0.2497 -0.2116 -0.7493
77735SOL    HW250816  11.076  11.472   5.437 -0.0588 -0.3736 -2.9617
77736SOL     OW50817  13.273   2.256   0.117 -0.6294  0.8581 -0.3345
77736SOL    HW150818  13.247   2.319   0.185  0.0734  0.1664  0.5790
77736SOL    HW250819  13.368   2.252   0.122 -0.5302  1.0366 -1.5960
77737SOL     OW50820   7.349  11.091  13.214 -0.2625  0.1034  0.7582
77737SOL    HW150821   7.406  11.124  13.284 -1.7292 -0.3857  2.2332
77737SOL    HW250822   7.347  11.163  13.150  0.3746  0.9475  1.6472
77738SOL     OW50823   6.587  13.814  12.088 -0.0838 -0.3237  0.6669
77738SOL    HW150824   6.592  13.886  12.151 -1.8959 -0.2789  0.8380
77738SOL    HW250825   6.589  13.735  12.142  0.2480 -0.3473  0.6199
77739SOL     OW50826   4.260   9.813   8.573 -0.1708  0.1198 -0.0198
77739SOL    HW150827   4.247   9.775   8.485 -0.2447  2.7663 -1.2327
77739SOL    HW250828   4.257   9.737   8.631 -1.6080 -1.6078 -2.1336
77740SOL     OW50829   4.583   9.770   1.914  0.2297 -0.0204 -0.4364
77740SOL    HW150830   4.490   9.763   1.936 -0.0139  0.0183 -1.4089
77740SOL    HW250831   4.597   9.701   1.848  0.2686  1.5746 -2.1941
77741SOL     OW50832   8.144  13.424  11.659 -0.5885 -0.4689 -0.0731
77741SOL    HW150833   8.210  13.469  11.712 -1.2157 -0.8435  1.0669
77741SOL    HW250834   8.071  13.485  11.655 -0.0999  0.0441 -1.5404
77742SOL     OW50835   5.770   8.557   3.411  0.8011  0.4091 -0.9018
77742SOL    HW150836   5.778   8.465   3.385  1.3392  0.0190  0.5579
77742SOL    HW250837   5.678   8.567   3.437  1.2374 -0.3678  1.1311
77743SOL     OW50838  11.945  10.913   5.210  0.0873 -0.1205 -0.5002
77743SOL    HW150839  12.002  10.959   5.272 -0.4656 -0.9063  0.6428
77743SOL    HW250840  11.859  10.912   5.253 -0.2725 -0.8443 -1.1981
77744SOL     OW50841   7.044  12.303  14.067 -0.3230 -0.0535  0.2202
77744SOL    HW150842   7.000  12.364  14.126 -0.8364 -0.8281  0.6576
77744SOL    HW250843   6.972  12.255  14.025  0.0772 -1.2983  0.9040
77745SOL     OW50844   0.240   5.919   1.918  0.7692  0.1849 -0.4785
77745SOL    HW150845   0.276   5.831   1.908 -0.8643 -0.4727 -0.8489
77745SOL    HW250846   0.291   5.957   1.990  1.7624 -0.9156 -0.5641
77746SOL     OW50847  10.476   9.266  12.927 -0.0192  0.0378 -0.4526
77746SOL    HW150848  10.485   9.354  12.889  1.0221 -0.0883 -0.5265
77746SOL    HW250849  10.546   9.215  12.886 -0.0692 -0.6014  0.2384
77747SOL     OW50850  11.212   2.674   5.253  0.2728 -0.2854 -0.3571
77747SOL    HW150851  11.203   2.606   5.319 -0.8481 -1.0361 -1.2484
77747SOL    HW250852  11.281   2.642   5.195  0.8790  0.1226  0.1187
77748SOL     OW50853   6.999   5.431  13.986 -0.1795 -0.6044  0.2462
77748SOL    HW150854   7.074   5.456  13.932 -0.8302 -0.7483 -0.7304
77748SOL    HW250855   6.942   5.382  13.928 -1.6736  0.6101  0.6239
77749SOL     OW50856   8.635  12.674   7.446  0.1563 -0.3146 -0.2189
77749SOL    HW150857   8.664  12.593   7.405 -1.5793 -1.4766  0.7261
77749SOL    HW250858   8.667  12.743   7.388  0.6059 -1.7295 -1.7294
77750SOL     OW50859   3.862   0.329   7.798  0.0198  0.0172  0.4483
77750SOL    HW150860   3.953   0.347   7.775 -0.1481  0.0995 -0.1658
77750SOL    HW250861   3.817   0.321   7.714 -1.0512  2.4944  0.6964
77751SOL     OW50862  10.066   0.573   8.980  0.4846 -0.1220 -0.0206
77751SOL    HW150863  10.043   0.557   9.072 -0.2347 -0.5907 -0.2704
77751SOL    HW250864  10.151   0.618   8.984  0.2135  0.3453  0.8882
77752SOL     OW50865  11.563   6.445   1.753  0.4033  0.7774  0.5747
77752SOL    HW150866  11.575   6.483   1.840  1.0399  0.0090  0.8383
77752SOL    HW250867  11.474   6.471   1.727 -0.2771 -0.0380  1.9933
77753SOL     OW50868   6.654  11.784   6.394  0.1628  0.1966  0.6935
77753SOL    HW150869   6.717  11.745   6.455 -0.5321 -0.9103  0.7320
77753SOL    HW250870   6.610  11.852   6.446 -2.0435 -2.2336  2.2791
77754SOL     OW50871  10.365  10.714   0.545 -0.3034 -0.0913  0.2045
77754SOL    HW150872  10.365  10.774   0.619  1.1494 -1.5095  1.4264
77754SOL    HW250873  10.324  10.634   0.577 -0.5861 -0.3848 -0.8340
77755SOL     OW50874  11.590   6.015   2.169  0.1639 -0.4607 -0.3797
77755SOL    HW150875  11.539   6.012   2.088  0.7259  1.9553 -0.9168
77755SOL    HW250876  11.680   6.031   2.141  0.5151 -0.4042  0.7054
77756SOL     OW50877   2.659  11.813   7.898 -0.1613  0.2540 -0.2143
77756SOL    HW150878   2.740  11.833   7.852  2.5935 -0.4517  3.7601
77756SOL    HW250879   2.613  11.751   7.841  4.1710 -2.6614 -1.0526
77757SOL     OW50880   2.218   4.012   6.827 -0.3532 -0.1758  0.3779
77757SOL    HW150881   2.146   4.027   6.765  0.9739 -0.8018 -1.4105
77757SOL    HW250882   2.192   3.934   6.876 -1.2526  0.0984  0.3535
77758SOL     OW50883  11.747  10.646   6.027 -0.2057  0.3560 -0.1285
77758SOL    HW150884  11.759  10.562   5.983  0.2504  0.5002 -0.2809
77758SOL    HW250885  11.827  10.658   6.078 -0.8289  0.0773  0.9343
77759SOL     OW50886   3.008   1.883   8.108 -0.8894  0.5636  0.2052
77759SOL    HW150887   3.042   1.862   8.020 -1.9609 -2.3613  0.3574
77759SOL    HW250888   2.937   1.945   8.092 -0.1623  1.1475 -0.8509
77760SOL     OW50889   2.213   2.277   4.414  0.9622  1.1718 -0.3560
77760SOL    HW150890   2.300   2.247   4.440  0.3812  0.6291  1.0813
77760SOL    HW250891   2.225   2.314   4.327  2.5848  0.9111 -0.2697
77761SOL     OW50892  13.082   4.709   9.002 -0.0741 -0.0163  0.5371
77761SOL    HW150893  13.047   4.739   8.919  1.3409  0.5234  0.1062
77761SOL    HW250894  13.084   4.787   9.057 -0.4802 -0.2529  0.8909
77762SOL     OW50895  10.596   1.207   9.829  0.1197 -0.1404 -0.5721
77762SOL    HW150896  10.508   1.218   9.864 -0.0004 -0.2763 -0.8311
77762SOL    HW250897  10.653   1.248   9.894  0.0986 -2.1810  0.8257
77763SOL     OW50898  13.793  10.180   2.331  0.8038 -0.0828  0.1523
77763SOL    HW150899  13.843  10.251   2.370 -0.8030  0.9211  0.4967
77763SOL    HW250900  13.771  10.123   2.404 -0.3944  0.6648  0.4069
77764SOL     OW50901  12.669   0.819   5.655 -0.1106 -0.2518  0.1649
77764SOL    HW150902  12.641   0.866   5.576 -1.4221 -0.0620  0.7146
77764SOL    HW250903  12.724   0.748   5.622 -0.0934  0.2237 -0.8690
77765SOL     OW50904   3.936  10.352  11.160  0.3386  0.3181  0.4130
77765SOL    HW150905   3.878  10.308  11.098 -0.0330  0.0864  0.9155
77765SOL    HW250906   3.974  10.281  11.212 -0.7901  0.6130  1.6847
77766SOL     OW50907   7.690   3.555   2.988  0.3993  0.0189 -0.6310
77766SOL    HW150908   7.736   3.490   3.041  0.9901 -0.6553 -1.9201
77766SOL    HW250909   7.598   3.548   3.016  0.5708 -0.8709 -0.2581
77767SOL     OW50910  11.869   5.964  10.774 -0.1692 -0.5464  0.6766
77767SOL    HW150911  11.822   5.881  10.786 -0.3413 -0.8647 -1.6059
77767SOL    HW250912  11.825   6.005  10.699  0.8844  0.8919  0.8057
77768SOL     OW50913   4.687  10.094   6.683 -0.0333  0.1393  0.0522
77768SOL    HW150914   4.778  10.072   6.700 -0.3385  0.0277  1.6632
77768SOL    HW250915   4.659  10.030   6.618  0.3579 -1.4356  1.3809
77769SOL     OW50916   0.182   0.389   4.441 -0.1193 -0.2341 -0.8092
77769SOL    HW150917   0.239   0.341   4.502  0.1144  0.8312 -0.1658
77769SOL    HW250918   0.095   0.383   4.479 -0.4556 -1.7327 -1.7145
77770SOL     OW50919   1.306   2.156  11.190 -0.1158  0.6878  0.1271
77770SOL    HW150920   1.344   2.117  11.269 -0.5631 -0.8943 -0.4057
77770SOL    HW250921   1.367   2.133  11.120  0.9997  3.2502  0.1696
77771SOL     OW50922   6.858   2.311   6.116  0.0731 -0.4721 -0.0145
77771SOL    HW150923   6.768   2.296   6.088  0.0227 -0.0445 -0.0993
77771SOL    HW250924   6.851   2.331   6.209 -0.0146  0.3135 -0.1759
77772SOL     OW50925   4.764   1.666  12.020 -0.3487  0.0338 -0.3808
77772SOL    HW150926   4.822   1.703  11.953  0.5528  0.3241  0.5333
77772SOL    HW250927   4.681   1.712  12.008 -0.2494 -0.0343 -1.3944
77773SOL     OW50928   9.501  13.601   0.370 -0.0723  0.0702 -0.4692
77773SOL    HW150929   9.422  13.654   0.365 -0.1979 -0.0413  0.1813
77773SOL    HW250930   9.539  13.622   0.455  1.4808  1.3238 -1.4274
77774SOL     OW50931   9.962   8.753  13.207  0.0426  0.0942  0.2985
77774SOL    HW150932   9.871   8.782  13.203 -0.6030 -1.5756  1.5929
77774SOL    HW250933   9.987   8.765  13.299  1.7743  2.2308 -0.3737
77775SOL     OW50934   6.041   8.598   6.635 -0.1212 -0.1667  0.0060
77775SOL    HW150935   5.968   8.552   6.675 -0.0951 -0.6416 -0.4894
77775SOL    HW250936   6.118   8.567   6.683 -0.0938 -0.7099 -0.3793
77776SOL     OW50937   3.718   2.271   7.750  0.1631  0.6063  0.2944
77776SOL    HW150938   3.657   2.217   7.700 -0.7479  1.2671  0.6552
77776SOL    HW250939   3.799   2.269   7.700 -0.4242  0.4250 -0.6677
77777SOL     OW50940   5.307   3.957   4.353  0.8499 -0.4321 -0.1998
77777SOL    HW150941   5.296   3.907   4.434 -1.4079 -1.2799 -0.9604
77777SOL    HW250942   5.237   3.926   4.296 -0.8408  3.7296 -0.6891
77778SOL     OW50943   9.403   2.627   5.598 -0.1252  0.2995  0.0256
77778SOL    HW150944   9.482   2.637   5.544 -0.4508 -0.4331 -0.6008
77778SOL    HW250945   9.361   2.548   5.564 -1.5781  1.1507 -0.2298
77779SOL     OW50946   1.022  10.055   4.909 -0.3758  0.0148  0.5835
77779SOL    HW150947   0.960   9.987   4.935 -0.3711 -0.1669  0.1303
77779SOL    HW250948   1.075  10.071   4.988  0.7614 -1.7362  0.2266
77780SOL     OW50949   9.532  11.628   5.834  0.8191 -1.0026 -0.0821
77780SOL    HW150950   9.504  11.652   5.922  0.9014 -2.0539  0.2396
77780SOL    HW250951   9.601  11.564   5.847  2.0531  0.1073 -0.8959
77781SOL     OW50952   5.254  11.751  12.050  0.3744  0.3089  0.1134
77781SOL    HW150953   5.249  11.714  12.139 -1.6504 -0.3599 -0.2085
77781SOL    HW250954   5.229  11.679  11.993 -0.9130  1.3971 -0.7720
77782SOL     OW50955  11.205  10.326  11.100 -0.1273  0.2806 -0.3584
77782SOL    HW150956  11.165  10.384  11.164  0.3177 -2.2411  2.4075
77782SOL    HW250957  11.254  10.384  11.042 -2.7739  2.9066 -0.1548
77783SOL     OW50958   3.427  10.048   9.140  1.1515  0.1447 -0.1502
77783SOL    HW150959   3.459  10.003   9.061 -1.1197  0.5675 -1.3961
77783SOL    HW250960   3.468  10.134   9.136  0.9262  0.2293 -1.0032
77784SOL     OW50961   6.083   4.403   5.779  0.1044  0.6527 -0.2274
77784SOL    HW150962   6.096   4.440   5.692 -0.2227  0.3418 -0.4129
77784SOL    HW250963   6.093   4.308   5.766 -1.6628  0.4410 -0.2691
77785SOL     OW50964  11.284   9.812   3.200 -0.0913 -0.1038  0.4157
77785SOL    HW150965  11.325   9.752   3.138  0.3337  0.2298  0.3688
77785SOL    HW250966  11.356   9.841   3.256 -0.6473 -1.2027  1.7477
77786SOL     OW50967   5.156   9.557   4.042 -0.1758  0.2314  0.0042
77786SOL    HW150968   5.103   9.570   4.120  0.8125 -0.2635  0.7777
77786SOL    HW250969   5.119   9.479   4.001  0.8643 -1.0520  1.3767
77787SOL     OW50970  13.229   2.044   8.482  0.0661 -0.2690  0.4789
77787SOL    HW150971  13.302   2.083   8.434 -0.0483  0.0798  0.5848
77787SOL    HW250972  13.172   2.008   8.415 -0.1605  0.3351  0.3410
77788SOL     OW50973   3.107  10.739  12.531 -0.1851 -0.5106 -0.1521
77788SOL    HW150974   3.049  10.815  12.536 -0.3530 -0.6042 -0.6031
77788SOL    HW250975   3.134  10.737  12.439  0.5824 -0.4300  0.0688
77789SOL     OW50976  11.159  10.573   2.638 -0.4101 -0.2124  0.4492
77789SOL    HW150977  11.155  10.663   2.669 -0.7795 -0.2382  0.4861
77789SOL    HW250978  11.081  10.532   2.675  1.6803 -1.6218  3.7492
77790SOL     OW50979   4.101  10.334  13.993 -0.2368 -0.0130  0.9319
77790SOL    HW150980   4.071  10.425  13.994  0.8088  0.3446  0.7825
77790SOL    HW250981   4.194  10.339  13.971 -0.4611 -1.1963 -0.4744
77791SOL     OW50982   3.081   9.218   4.551 -0.2013 -0.2908 -0.3271
77791SOL    HW150983   3.068   9.304   4.592  0.8212 -0.1343 -0.3228
77791SOL    HW250984   3.156   9.230   4.492  0.0348 -1.2153 -0.2267
77792SOL     OW50985   2.867   7.332   0.355 -0.1509 -0.1761  0.1103
77792SOL    HW150986   2.906   7.374   0.278 -1.6001  0.4878 -0.2933
77792SOL    HW250987   2.826   7.253   0.322  1.3855 -1.2614  0.6532
77793SOL     OW50988  11.657   1.590   0.880 -0.2722  0.2073 -0.5237
77793SOL    HW150989  11.646   1.677   0.918 -0.6460  0.1685 -0.5430
77793SOL    HW250990  11.751   1.571   0.891 -0.5614 -0.3446  1.5725
77794SOL     OW50991  12.100   1.726   0.646  0.4275  0.5658 -0.6705
77794SOL    HW150992  12.008   1.736   0.624  1.0264  1.7066 -2.8669
77794SOL    HW250993  12.129   1.649   0.597  0.6154  0.0666  0.1986
77795SOL     OW50994   2.253   6.507  11.109 -0.5846 -0.2422 -1.1730
77795SOL    HW150995   2.339   6.536  11.140 -1.1168 -1.2879  1.5295
77795SOL    HW250996   2.193   6.575  11.137 -1.1316 -1.4032  0.7101
77796SOL     OW50997   3.226   2.565  14.026  0.3913 -0.4564  0.8569
77796SOL    HW150998   3.172   2.492  14.056  0.1163  0.5131  2.9010
77796SOL    HW250999   3.314   2.545  14.059  0.8287 -0.9659 -0.5721
77797SOL     OW51000  13.146   8.299  13.020 -0.3711 -0.2197 -0.3639
77797SOL    HW151001  13.082   8.363  12.987 -0.9804 -1.0365 -0.8149
77797SOL    HW251002  13.094   8.237  13.071  0.4302  0.4722  1.3500
77798SOL     OW51003   7.747  12.351  12.396  0.0979  0.5356 -0.2600
77798SOL    HW151004   7.770  12.412  12.466 -0.4843 -0.0522  0.4660
77798SOL    HW251005   7.800  12.379  12.321  0.9809  0.9763  0.5111
77799SOL     OW51006   2.465   9.781   1.418 -0.0037 -0.1623  0.0623
77799SOL    HW151007   2.410   9.760   1.343  0.1884 -0.8344  0.1037
77799SOL    HW251008   2.460   9.876   1.426 -0.4175 -0.1353 -0.4982
77800SOL     OW51009   9.915  13.899   0.368  0.6444 -0.4590 -0.3541
77800SOL    HW151010   9.906  13.950   0.448 -1.0449 -0.4254 -0.5459
77800SOL    HW251011   9.914  13.808   0.396 -1.0553 -0.4833 -0.3913
77801SOL     OW51012   9.398   2.600   1.595 -0.6372  0.1106 -0.4249
77801SOL    HW151013   9.407   2.695   1.601 -0.1087  0.0958 -0.9021
77801SOL    HW251014   9.315   2.581   1.639  0.4903  0.5128  2.0545
77802SOL     OW51015  13.355  12.930   3.888  0.2890  0.3403 -0.3237
77802SOL    HW151016  13.285  12.911   3.951  1.0115 -0.9723  0.1191
77802SOL    HW251017  13.310  12.938   3.804 -0.2984 -1.6151 -0.2307
77803SOL     OW51018   1.703  13.668  10.300  0.1843  0.8855  0.2051
77803SOL    HW151019   1.687  13.599  10.365 -0.5682  0.9082  0.0518
77803SOL    HW251020   1.733  13.621  10.222  0.8655  0.8398  0.4848
77804SOL     OW51021   7.154   5.777  13.866  0.1652 -0.2647 -0.2519
77804SOL    HW151022   7.081   5.742  13.917  0.1088 -1.1905 -0.9419
77804SOL    HW251023   7.151   5.729  13.783 -0.2626  1.7769 -1.5050
77805SOL     OW51024  11.678   7.166   7.796  0.2681  0.6152 -0.0193
77805SOL    HW151025  11.632   7.083   7.785  0.9402  0.0004  1.5306
77805SOL    HW251026  11.740   7.169   7.722 -0.1542  0.0254 -0.4048
77806SOL     OW51027   8.490   9.655  13.036  0.4217 -0.3405 -0.1349
77806SOL    HW151028   8.527   9.741  13.053  1.1200 -0.3549 -1.4797
77806SOL    HW251029   8.421   9.645  13.101  0.1383  1.3471 -0.1522
77807SOL     OW51030  12.962   3.296   3.586  0.4498 -0.7833  0.2626
77807SOL    HW151031  12.980   3.238   3.660  0.8249 -0.0907  0.7382
77807SOL    HW251032  12.881   3.264   3.548 -0.0204 -0.8539  1.2972
77808SOL     OW51033  13.920   4.865   6.272 -1.0770 -0.2101 -0.2978
77808SOL    HW151034  13.862   4.908   6.334  0.5334  0.9469  0.4696
77808SOL    HW251035  13.923   4.774   6.301 -1.4573  0.0164  0.4717
77809SOL     OW51036   8.515  13.787   2.001  0.1673 -0.2414 -0.6450
77809SOL    HW151037   8.452  13.779   1.929 -0.4655 -0.7367 -0.0455
77809SOL    HW251038   8.499  13.709   2.055 -2.1671  2.0307  2.2453
77810SOL     OW51039   2.571  13.598   4.657 -0.6624  0.3038 -0.1070
77810SOL    HW151040   2.554  13.670   4.597  0.9411  0.2944 -0.6204
77810SOL    HW251041   2.577  13.639   4.743  0.8881  0.9182 -0.4788
77811SOL     OW51042  13.984  10.981  13.896  0.1499 -0.1189  0.1620
77811SOL    HW151043  13.972  11.060  13.948  0.5085 -1.5458  2.5452
77811SOL    HW251044  14.042  11.009  13.824  2.2294  1.2960  2.2399
77812SOL     OW51045  11.391   2.867   7.022  0.1828  0.3125  0.4609
77812SOL    HW151046  11.342   2.900   6.947 -0.0860 -0.3740  0.3255
77812SOL    HW251047  11.400   2.773   7.005 -1.0257 -0.1147  1.9062
77813SOL     OW51048   5.828   5.250  12.068 -0.1823  0.1398 -0.1172
77813SOL    HW151049   5.895   5.273  12.004 -1.1471 -1.5502 -1.8332
77813SOL    HW251050   5.874   5.195  12.132  1.1317  3.0226  1.6113
77814SOL     OW51051   9.707  13.802   9.086 -0.5606 -0.2963  0.2761
77814SOL    HW151052   9.704  13.897   9.098 -0.8274 -0.1553 -0.8017
77814SOL    HW251053   9.764  13.771   9.156  1.8048  0.9423 -0.9821
77815SOL     OW51054  10.195   9.397   1.438  0.1362  0.1580 -0.2255
77815SOL    HW151055  10.159   9.308   1.428 -0.2611  0.1192  1.3103
77815SOL    HW251056  10.284   9.383   1.469 -0.0942  0.2910  0.5067
77816SOL     OW51057   8.553   5.317   4.655 -0.0247 -0.0267  0.2536
77816SOL    HW151058   8.464   5.319   4.621  0.1634  1.9371 -0.2402
77816SOL    HW251059   8.574   5.224   4.663 -1.5356 -0.5321 -1.1573
77817SOL     OW51060   6.710  11.440  13.646  0.4806 -0.1850  0.4790
77817SOL    HW151061   6.682  11.351  13.666  0.7323 -0.3457  0.1318
77817SOL    HW251062   6.650  11.469  13.578  1.0076 -0.4519 -0.1131
77818SOL     OW51063  13.072  12.744   1.874 -0.0896  0.0670 -0.4097
77818SOL    HW151064  13.081  12.814   1.809  1.3930  0.1707 -0.1240
77818SOL    HW251065  13.161  12.729   1.905 -0.1347 -2.8529 -1.3929
77819SOL     OW51066   5.204   4.694   6.440  0.1320 -0.4477 -0.0001
77819SOL    HW151067   5.184   4.603   6.463 -1.7073 -0.2703 -0.7348
77819SOL    HW251068   5.148   4.746   6.497 -0.3374  0.1483 -0.9715
77820SOL     OW51069   4.501   7.923   0.007 -0.1100  0.2883 -0.5970
77820SOL    HW151070   4.590   7.895   0.028 -0.3603 -0.6318 -0.7022
77820SOL    HW251071   4.478   7.985   0.077  0.1597 -0.4301  0.1461
77821SOL     OW51072   1.511   5.987  11.831  0.2813 -0.5391  0.1257
77821SOL    HW151073   1.570   6.059  11.810 -1.0962  0.0835 -1.9422
77821SOL    HW251074   1.434   6.030  11.869 -1.0947 -0.6561 -2.2933
77822SOL     OW51075  12.084   5.416   5.717 -0.0041  0.0206 -0.0436
77822SOL    HW151076  12.107   5.509   5.713 -0.6395  0.1366 -1.9095
77822SOL    HW251077  12.146   5.373   5.658 -1.5193 -0.2981 -1.4827
77823SOL     OW51078  10.202   4.315   6.626  0.1505  0.5151  0.4164
77823SOL    HW151079  10.173   4.393   6.673  1.7295  1.3544  0.0548
77823SOL    HW251080  10.262   4.271   6.687  1.2285  0.9415 -0.3114
77824SOL     OW51081  10.778   3.607   9.603  0.1737  0.2089 -0.2977
77824SOL    HW151082  10.732   3.685   9.634  1.0107  0.2056  1.0241
77824SOL    HW251083  10.708   3.542   9.590 -0.1854 -0.0099  2.3192
77825SOL     OW51084   7.939   9.817   3.112 -0.5741 -0.6697 -0.4232
77825SOL    HW151085   7.889   9.877   3.057 -0.0400  1.4707  1.2898
77825SOL    HW251086   8.029   9.824   3.080 -0.1718  0.9657  0.9534
77826SOL     OW51087   9.002  11.893  13.946 -0.7909  0.3994  0.0992
77826SOL    HW151088   9.093  11.901  13.973 -0.7184 -0.2907  0.0673
77826SOL    HW251089   8.994  11.955  13.873 -0.1860  0.0451 -0.2864
77827SOL     OW51090  12.296   6.267   7.277  0.3746 -0.5433 -0.5058
77827SOL    HW151091  12.375   6.222   7.306  0.7355  0.8078  0.7267
77827SOL    HW251092  12.325   6.356   7.257 -0.2296 -0.8691 -3.3258
77828SOL     OW51093   5.645   5.138  10.976 -0.6255 -0.9949  0.0725
77828SOL    HW151094   5.628   5.108  11.065  0.2386 -0.3305  0.4796
77828SOL    HW251095   5.740   5.141  10.969 -0.6650  0.8870 -0.1742
77829SOL     OW51096   8.914   2.687   0.326 -0.2573  0.0516  0.1875
77829SOL    HW151097   8.855   2.635   0.272 -0.3095  1.2540 -0.9593
77829SOL    HW251098   9.001   2.655   0.304 -0.2944  0.3792 -0.4504
77830SOL     OW51099   5.473   3.436   5.626 -0.5750  0.5518  0.3767
77830SOL    HW151100   5.490   3.345   5.650  0.1503  0.6067  0.0857
77830SOL    HW251101   5.386   3.434   5.586 -0.6328  0.0156  0.5164
77831SOL     OW51102  13.756  13.918   7.837  0.2962  0.1568 -0.4868
77831SOL    HW151103  13.735  13.927   7.744  0.6753  0.6091 -0.5298
77831SOL    HW251104  13.787  14.004   7.863  2.5087 -0.5807 -0.5156
77832SOL     OW51105   9.006   2.451   8.161  0.4347 -0.3463  0.5508
77832SOL    HW151106   8.931   2.492   8.205  1.6653  0.8463  1.6217
77832SOL    HW251107   9.044   2.394   8.227 -0.3633 -2.1465 -0.4670
77833SOL     OW51108   9.923   1.041   6.098 -0.3723 -0.0424  0.2371
77833SOL    HW151109   9.919   0.985   6.021  0.1580  0.9382 -0.5216
77833SOL    HW251110  10.007   1.086   6.091 -1.3615  1.8629  0.0896
77834SOL     OW51111  10.728   0.101   0.606 -0.3455 -0.4379  0.4866
77834SOL    HW151112  10.760   0.098   0.516 -1.0008  0.4650  0.2148
77834SOL    HW251113  10.683   0.018   0.619  0.2464 -0.8162  0.1828
77835SOL     OW51114   9.074  10.370  11.964 -0.1276  0.0939 -0.1831
77835SOL    HW151115   9.131  10.418  12.025 -0.9564  2.6695 -1.2895
77835SOL    HW251116   8.985  10.387  11.995 -0.5008  0.3800 -1.3520
77836SOL     OW51117   1.206   8.504   2.061 -0.0139  0.1168  0.0976
77836SOL    HW151118   1.293   8.477   2.093 -0.3888  1.2386  2.2301
77836SOL    HW251119   1.149   8.430   2.083  0.5241 -1.1829 -2.4468
77837SOL     OW51120  11.553   6.686  13.357  0.7272  0.0780  0.0562
77837SOL    HW151121  11.496   6.631  13.303  1.7962 -0.9498 -0.0702
77837SOL    HW251122  11.557   6.769  13.310  1.2597 -0.6465 -1.2297
77838SOL     OW51123   3.700   7.888   9.696  0.0526  0.3842 -0.1588
77838SOL    HW151124   3.738   7.940   9.766  0.2809  0.7267 -0.5355
77838SOL    HW251125   3.656   7.951   9.640  0.0727  0.1374 -0.4565
77839SOL     OW51126   2.408  12.714  10.200  0.3000 -0.2303 -0.2945
77839SOL    HW151127   2.417  12.804  10.232 -0.9861 -1.1060  3.0370
77839SOL    HW251128   2.315  12.705  10.179  0.2915 -0.9154 -0.0112
77840SOL     OW51129  10.003   2.379   6.396  0.3333 -0.0606  0.1115
77840SOL    HW151130  10.039   2.321   6.329 -0.7751 -0.5248 -0.0956
77840SOL    HW251131   9.996   2.325   6.474 -2.8064 -0.9482 -0.6543
77841SOL     OW51132  12.653   6.305   0.929  0.2588  0.2272 -0.1748
77841SOL    HW151133  12.743   6.336   0.936 -0.0066  0.7520  1.3342
77841SOL    HW251134  12.600   6.385   0.927 -0.1213  0.0206 -3.3441
77842SOL     OW51135   5.770   2.383   6.650 -0.1674 -0.5138 -0.3732
77842SOL    HW151136   5.727   2.299   6.667  2.1838 -1.5241  1.0335
77842SOL    HW251137   5.710   2.448   6.688 -0.0471 -1.9585  2.5956
77843SOL     OW51138   6.273   2.440   4.810  0.0298 -0.7982 -0.5501
77843SOL    HW151139   6.194   2.493   4.816 -0.0978 -0.5358 -3.2931
77843SOL    HW251140   6.261   2.372   4.877 -0.7809  1.2902  1.5829
77844SOL     OW51141  12.951  13.282   8.992  0.0497  0.1373 -0.5443
77844SOL    HW151142  12.903  13.201   9.007 -1.4024  0.6928 -1.9215
77844SOL    HW251143  12.940  13.333   9.072  2.0168 -1.4702  0.8320
77845SOL     OW51144   4.396   7.641  10.518  0.2867 -0.0239  0.3690
77845SOL    HW151145   4.406   7.569  10.456  0.2473  0.2661  0.0197
77845SOL    HW251146   4.301   7.647  10.533  0.4119 -1.4425  2.0893
77846SOL     OW51147   7.980   4.307   1.988  0.0834  0.2949  0.1253
77846SOL    HW151148   7.986   4.212   2.000  3.6399  0.5238  1.3275
77846SOL    HW251149   7.974   4.342   2.076 -0.2436  1.2344 -0.2572
77847SOL     OW51150  13.620   5.567   0.139 -0.7726 -0.2405 -0.5808
77847SOL    HW151151  13.647   5.505   0.207 -0.1961  0.1095 -0.4843
77847SOL    HW251152  13.632   5.653   0.179 -2.3912 -0.0720 -0.4095
77848SOL     OW51153   3.822   0.725   7.871 -0.9083  0.1509  0.1185
77848SOL    HW151154   3.811   0.803   7.816  2.0351  0.7244  0.2094
77848SOL    HW251155   3.898   0.680   7.835 -2.0633 -2.3376  0.5532
77849SOL     OW51156   0.860   9.735   4.334  0.2583 -0.0891  0.0278
77849SOL    HW151157   0.866   9.809   4.395  0.8572  1.3668 -1.7080
77849SOL    HW251158   0.941   9.686   4.349  0.6911  0.5976 -0.0053
77850SOL     OW51159   0.165   0.419   1.600 -0.2139 -0.0409 -0.5420
77850SOL    HW151160   0.076   0.390   1.622  0.3931 -1.0447  0.6804
77850SOL    HW251161   0.187   0.483   1.667  0.1164 -0.0714 -0.6184
77851SOL     OW51162   1.428   6.655  11.053 -0.0752  0.4448 -0.1296
77851SOL    HW151163   1.518   6.631  11.074 -0.3522 -1.7226 -1.1856
77851SOL    HW251164   1.375   6.608  11.117 -0.4995  2.3142  0.9878
77852SOL     OW51165   7.082  13.481   1.676 -0.0104  0.3852  0.2880
77852SOL    HW151166   7.095  13.460   1.583 -3.5057 -1.6920  0.0998
77852SOL    HW251167   7.111  13.402   1.722  2.6676  1.7674  1.1877
77853SOL     OW51168   6.065   3.947   0.469  0.4032 -0.2682 -1.1134
77853SOL    HW151169   6.094   4.038   0.477 -3.4664  1.1576 -1.1460
77853SOL    HW251170   6.040   3.923   0.558  0.1316 -0.8356 -1.3414
77854SOL     OW51171   1.620   0.494  10.862  0.1686 -0.3159  0.1756
77854SOL    HW151172   1.602   0.581  10.898  0.4202  0.5394 -1.6702
77854SOL    HW251173   1.614   0.506  10.767  0.1785 -2.3305 -0.1121
77855SOL     OW51174   5.772  13.702   4.387 -0.0152 -0.5572 -0.1886
77855SOL    HW151175   5.756  13.734   4.299 -2.0918 -0.2413  0.2479
77855SOL    HW251176   5.867  13.701   4.396  0.2036  0.8956 -1.8734
77856SOL     OW51177   4.456   7.372  10.403  0.2156 -0.2361  0.2192
77856SOL    HW151178   4.512   7.313  10.454  0.0686 -0.7008 -0.1549
77856SOL    HW251179   4.509   7.397  10.328 -0.0954 -0.7299 -0.1713
77857SOL     OW51180   8.554  13.525  12.562  0.1489 -0.2719  0.0176
77857SOL    HW151181   8.600  13.455  12.515 -0.0855  0.9945 -2.2469
77857SOL    HW251182   8.618  13.596  12.567 -0.1393 -0.0577  0.8363
77858SOL     OW51183   4.834  12.352   3.165 -0.4515 -0.2603 -0.0065
77858SOL    HW151184   4.905  12.378   3.107  0.0554 -3.9679 -1.2801
77858SOL    HW251185   4.875  12.297   3.231 -1.6612  0.5081  1.4513
77859SOL     OW51186   3.493  13.751  13.601  0.0156  0.4664  0.0645
77859SOL    HW151187   3.529  13.663  13.594 -0.8921  0.1380 -0.5913
77859SOL    HW251188   3.547  13.805  13.544  0.1678  0.2068 -0.0334
77860SOL     OW51189   4.555   5.341   4.751 -0.0099  0.0759  0.1134
77860SOL    HW151190   4.532   5.249   4.765  1.8882 -0.4066  0.4266
77860SOL    HW251191   4.574   5.347   4.657 -1.3577  0.4788 -0.1511
77861SOL     OW51192   2.553   2.729  10.611 -0.5093 -0.0694  0.2856
77861SOL    HW151193   2.467   2.767  10.632 -0.2449  0.3367  0.6575
77861SOL    HW251194   2.546   2.637  10.635 -1.2873 -0.3687 -0.9725
77862SOL     OW51195   6.423  11.961   8.824 -0.2180 -0.3546 -0.7572
77862SOL    HW151196   6.350  11.930   8.770 -0.2926 -1.2951 -0.1502
77862SOL    HW251197   6.419  11.906   8.903  0.7215  0.0541 -0.4133
77863SOL     OW51198   8.050   3.325   9.480  0.3698 -0.1366  0.3614
77863SOL    HW151199   7.970   3.324   9.533  0.0341  0.2939 -0.1265
77863SOL    HW251200   8.068   3.233   9.463  0.0697 -0.2446  0.6188
77864SOL     OW51201  12.783  12.775   0.109  0.1671 -0.1960  0.6801
77864SOL    HW151202  12.697  12.814   0.125 -0.0194 -0.6508  0.8113
77864SOL    HW251203  12.769  12.681   0.121  0.0427 -0.5922 -1.9940
77865SOL     OW51204   8.942  13.896   3.059 -0.2382 -0.3019  0.0268
77865SOL    HW151205   8.963  13.986   3.084 -0.4812 -0.5209  1.0713
77865SOL    HW251206   9.020  13.846   3.082 -0.3857 -0.4744  0.1551
77866SOL     OW51207   6.400  11.772   6.083  0.0268  0.2715 -0.1127
77866SOL    HW151208   6.490  11.804   6.080  0.1550  0.0822  1.1899
77866SOL    HW251209   6.368  11.799   6.169 -1.4220  0.9981 -0.8262
77867SOL     OW51210   3.237   9.987   0.621 -0.5034 -0.3335  0.4535
77867SOL    HW151211   3.244   9.924   0.693 -1.5076 -0.6637  0.2800
77867SOL    HW251212   3.150  10.026   0.631 -1.1435 -1.2212 -1.2256
77868SOL     OW51213   3.519   3.864   8.807 -0.9146  0.0175 -0.0857
77868SOL    HW151214   3.515   3.783   8.858  0.5531 -0.4510 -0.6579
77868SOL    HW251215   3.527   3.835   8.716 -0.9876  0.8162 -0.3566
77869SOL     OW51216   6.984   3.550   7.110 -0.2300  0.0732 -0.0412
77869SOL    HW151217   6.910   3.568   7.168  0.6721 -1.2054  1.5929
77869SOL    HW251218   6.995   3.455   7.114  0.9748  0.1548 -0.9291
77870SOL     OW51219   2.104   6.281   0.599  0.0978 -0.2042  0.4141
77870SOL    HW151220   2.032   6.322   0.647 -0.2594  1.7696 -1.6409
77870SOL    HW251221   2.163   6.353   0.576  1.1951 -1.3365 -0.4990
77871SOL     OW51222   4.908   4.052  13.491  0.1307  0.2684 -0.2122
77871SOL    HW151223   4.873   4.131  13.449  0.0430 -0.1847 -1.0124
77871SOL    HW251224   4.922   3.991  13.419  2.0333  0.2170  0.1661
77872SOL     OW51225  10.233  11.336   3.734  0.5220  0.5427  0.1569
77872SOL    HW151226  10.288  11.303   3.806  0.7737 -1.0604 -0.7288
77872SOL    HW251227  10.145  11.305   3.756  0.5672  0.2089 -0.1342
77873SOL     OW51228   1.566   9.794   5.999 -0.0453 -0.2056  0.1566
77873SOL    HW151229   1.595   9.842   6.077 -0.4765 -1.0713  0.8657
77873SOL    HW251230   1.578   9.702   6.021  0.3631 -0.4589 -1.0277
77874SOL     OW51231   6.452   1.880   2.093 -0.1535 -0.0125  0.1999
77874SOL    HW151232   6.364   1.851   2.070  0.3307 -0.8382 -0.6754
77874SOL    HW251233   6.454   1.973   2.068 -0.8923  0.1190  0.6014
77875SOL     OW51234  13.212   0.734   0.203  0.2359  0.0201 -0.2313
77875SOL    HW151235  13.149   0.667   0.178  0.4631 -0.5150  0.5964
77875SOL    HW251236  13.271   0.741   0.128  1.1260 -1.8095  0.2264
77876SOL     OW51237   8.708   2.782   8.923 -0.1281  0.3542  0.1334
77876SOL    HW151238   8.670   2.743   9.001  1.5640 -2.2855 -0.2412
77876SOL    HW251239   8.710   2.876   8.941 -2.2151  0.0874  2.1094
77877SOL     OW51240  11.338   8.109   6.052 -0.0544 -0.2890  0.0854
77877SOL    HW151241  11.325   8.097   5.958  0.1908  3.2307 -0.5391
77877SOL    HW251242  11.267   8.058   6.093  0.8268 -3.2640 -1.8123
77878SOL     OW51243   9.051   0.800   4.439  0.5767  0.0764  0.7632
77878SOL    HW151244   8.985   0.857   4.478 -0.4142 -0.2432 -0.3760
77878SOL    HW251245   9.107   0.774   4.512 -0.4831  0.4631  1.7419
77879SOL     OW51246  12.400   6.374   2.568 -0.4378 -0.7406 -0.1531
77879SOL    HW151247  12.465   6.426   2.615  0.1541 -1.0567 -0.6151
77879SOL    HW251248  12.391   6.418   2.484 -0.8275 -0.6946 -0.0882
77880SOL     OW51249  11.286   5.120   5.357 -0.4788  0.3536  0.5266
77880SOL    HW151250  11.376   5.097   5.335 -0.3886 -0.6589  1.7827
77880SOL    HW251251  11.293   5.166   5.441 -1.1397 -0.0542  0.8173
77881SOL     OW51252   7.383   1.151   6.758  0.0363 -0.2846  0.1977
77881SOL    HW151253   7.375   1.058   6.737  2.9671 -0.3321 -1.1294
77881SOL    HW251254   7.336   1.196   6.688  1.3765 -0.7261 -1.0212
77882SOL     OW51255  12.917  10.079  11.261  0.0133 -0.2646 -0.5206
77882SOL    HW151256  12.967  10.056  11.182  1.2025  0.9320 -0.1586
77882SOL    HW251257  12.897  10.172  11.250  0.4435 -0.0114  0.7081
77883SOL     OW51258   0.345   8.767  14.046 -0.0762 -0.0006 -0.6879
77883SOL    HW151259   0.334   8.861  14.057 -2.8066  0.2167 -3.5504
77883SOL    HW251260   0.298   8.728  14.119  1.5330  0.7800  0.8201
77884SOL     OW51261  11.850   7.515   6.211  0.1639 -0.1174  0.0406
77884SOL    HW151262  11.822   7.590   6.263  1.2620 -0.2439  0.8468
77884SOL    HW251263  11.931   7.544   6.169  2.2331 -1.6937  2.6126
77885SOL     OW51264  10.601  10.887   7.469 -0.3197  0.3410 -0.5864
77885SOL    HW151265  10.515  10.919   7.496  0.0401 -0.4127  1.6802
77885SOL    HW251266  10.598  10.889   7.374 -2.1079  2.2282 -0.5810
77886SOL     OW51267   6.455   2.884   1.941 -0.2230 -0.1315  0.5759
77886SOL    HW151268   6.497   2.902   2.026 -0.9292  0.8484  0.7381
77886SOL    HW251269   6.460   2.967   1.894 -0.7012 -0.4043  0.0329
77887SOL     OW51270   7.185   8.010   9.176  0.4420 -0.3691  0.1511
77887SOL    HW151271   7.163   8.007   9.269 -3.8539 -1.4096 -0.6814
77887SOL    HW251272   7.242   7.934   9.162  0.1224 -0.9303  1.7015
77888SOL     OW51273   1.242  10.300   3.779 -0.0788  0.6588  0.7163
77888SOL    HW151274   1.163  10.258   3.747  0.2510 -0.2208  1.0282
77888SOL    HW251275   1.274  10.243   3.848  1.0680  0.7652  0.3036
77889SOL     OW51276  11.552  12.516   9.575  0.8824  0.0251  0.2685
77889SOL    HW151277  11.526  12.467   9.653 -3.1860 -0.6792 -1.2531
77889SOL    HW251278  11.613  12.458   9.530 -0.8021 -2.0404  0.4478
77890SOL     OW51279   3.075   5.139   4.098 -0.0436  0.2168  0.2459
77890SOL    HW151280   3.031   5.063   4.061  0.0820  0.6339 -0.7971
77890SOL    HW251281   3.146   5.158   4.036  0.0617  1.0443  0.6035
77891SOL     OW51282   4.482   1.554   4.491  0.3381  0.1352 -0.0440
77891SOL    HW151283   4.556   1.585   4.439  1.7387 -1.0334  1.1578
77891SOL    HW251284   4.518   1.482   4.543 -1.4570  0.0730  1.1928
77892SOL     OW51285   1.998  11.637  11.358  0.1442  0.5737  0.2501
77892SOL    HW151286   2.041  11.692  11.294  0.2330  0.1627 -0.0420
77892SOL    HW251287   1.931  11.589  11.309  1.4070 -1.1168  0.0702
77893SOL     OW51288   1.426   1.449   4.768  0.2563  0.6468  0.2599
77893SOL    HW151289   1.404   1.388   4.839 -2.4559  0.5271 -0.5516
77893SOL    HW251290   1.359   1.517   4.774  0.6057  1.1889 -1.5054
77894SOL     OW51291   4.051   0.012   6.429 -0.2484  0.0699  0.0062
77894SOL    HW151292   4.009  -0.073   6.446  0.3243 -0.2791 -0.2831
77894SOL    HW251293   3.979   0.069   6.403 -0.7124 -0.1956  0.6704
77895SOL     OW51294  10.979   1.357   9.563 -0.2596  0.4649 -0.1496
77895SOL    HW151295  10.999   1.278   9.512  0.1019 -0.1271  0.8902
77895SOL    HW251296  10.910   1.401   9.512 -1.2762 -1.0923 -0.1821
77896SOL     OW51297   4.146   5.208   0.376 -0.3464  0.0868 -0.4272
77896SOL    HW151298   4.208   5.177   0.442 -1.0246  0.7940  0.5851
77896SOL    HW251299   4.095   5.130   0.353  0.1831 -0.2597 -0.4294
77897SOL     OW51300   2.094  13.345   0.066 -0.2490  0.3797  0.5866
77897SOL    HW151301   2.176  13.296   0.073  0.4310  1.6303  1.8593
77897SOL    HW251302   2.103  13.416   0.129 -1.7136  1.4207 -0.3112
77898SOL     OW51303   7.176   3.407   5.605  0.0976  0.2315 -0.1338
77898SOL    HW151304   7.089   3.370   5.618  0.1033  0.5112  0.7536
77898SOL    HW251305   7.188   3.407   5.510 -0.8755  0.2133 -0.2681
77899SOL     OW51306  12.671   8.993   1.677 -0.3533 -0.0855 -0.2994
77899SOL    HW151307  12.641   8.979   1.586 -0.9008  0.0875 -0.1527
77899SOL    HW251308  12.700   8.906   1.706 -1.4942 -0.4470 -0.1817
77900SOL     OW51309   4.695  11.848   9.501 -0.1019 -0.2188 -0.3224
77900SOL    HW151310   4.689  11.907   9.577 -2.0842  0.3214 -0.8438
77900SOL    HW251311   4.618  11.792   9.508  0.7218 -1.4585 -0.9136
77901SOL     OW51312  11.007  13.194  11.847 -0.2613 -0.3392  0.4348
77901SOL    HW151313  11.069  13.168  11.778  2.1785  2.0842  1.5269
77901SOL    HW251314  11.050  13.167  11.928 -1.6600 -0.4599  1.1467
77902SOL     OW51315  12.691   7.456   4.314 -0.1115  0.3844 -0.0981
77902SOL    HW151316  12.753   7.432   4.244  0.3174  0.1653  0.3506
77902SOL    HW251317  12.678   7.550   4.302  0.0387  0.3661 -0.4188
77903SOL     OW51318   6.051  12.022  11.353  0.0123  0.6529 -0.1060
77903SOL    HW151319   6.123  11.988  11.406 -1.5573 -0.2566  1.5504
77903SOL    HW251320   5.999  11.944  11.332 -1.1514  1.4419 -0.2197
77904SOL     OW51321   1.330  10.366   4.531 -0.0100  0.2023 -0.1253
77904SOL    HW151322   1.378  10.449   4.530  3.5704 -1.6330  1.1902
77904SOL    HW251323   1.330  10.340   4.623  1.3644 -2.4200 -0.7606
77905SOL     OW51324   5.345   7.017  10.380  0.2834 -0.0471  0.2535
77905SOL    HW151325   5.311   7.084  10.321 -0.1897 -1.4074 -1.0673
77905SOL    HW251326   5.302   7.035  10.464 -1.2313  0.2021 -0.5506
77906SOL     OW51327   8.997  13.617   0.232  0.1432  0.2359  0.3339
77906SOL    HW151328   8.908  13.617   0.269 -1.2891 -1.7867 -2.6641
77906SOL    HW251329   9.008  13.706   0.197 -0.1216  0.9029  1.8649
77907SOL     OW51330  12.463   8.404   3.442 -0.4119  0.7578  0.4064
77907SOL    HW151331  12.372   8.425   3.462 -0.9730 -0.4870 -0.6723
77907SOL    HW251332  12.459   8.319   3.399  1.4773 -0.3672  2.2419
77908SOL     OW51333  11.118   2.224   7.777 -0.1192  0.2246  0.0822
77908SOL    HW151334  11.208   2.228   7.744  0.4206 -1.0642  1.3450
77908SOL    HW251335  11.064   2.235   7.698  1.0622  3.0370 -0.4888
77909SOL     OW51336   6.883   6.578   4.858 -0.1141 -0.0117 -0.0863
77909SOL    HW151337   6.966   6.597   4.903 -1.1816  2.9033  0.8745
77909SOL    HW251338   6.830   6.534   4.925 -0.2207  0.4209  0.1134
77910SOL     OW51339   5.623   7.393   2.677  0.3757 -0.5763  0.0289
77910SOL    HW151340   5.703   7.416   2.629  0.7476 -1.7803  0.0156
77910SOL    HW251341   5.553   7.398   2.612  0.7142 -1.1480 -0.3963
77911SOL     OW51342  10.264   3.189   7.421 -0.1234  0.5706  0.4630
77911SOL    HW151343  10.271   3.139   7.502 -2.4848 -0.7032 -0.0355
77911SOL    HW251344  10.316   3.140   7.357 -1.6373 -0.7911  0.2224
77912SOL     OW51345   8.769   1.740  10.350  0.4474  0.3046 -0.1659
77912SOL    HW151346   8.840   1.710  10.293  0.2303  0.7536 -0.6851
77912SOL    HW251347   8.729   1.813  10.302 -0.5262 -0.1026 -0.0057
77913SOL     OW51348   5.280   1.998   7.646  0.0393 -0.3025 -0.2301
77913SOL    HW151349   5.357   2.054   7.636 -0.1937  0.1572  0.4558
77913SOL    HW251350   5.304   1.916   7.604  1.5961 -0.8043  1.5258
77914SOL     OW51351  13.516  11.683   2.349  0.1072 -0.4674 -0.0134
77914SOL    HW151352  13.551  11.661   2.435  0.4689  1.3840  0.3447
77914SOL    HW251353  13.589  11.725   2.303 -0.8510  1.0888 -0.1926
77915SOL     OW51354  13.542  12.905  13.243 -0.5282  0.0282  0.6341
77915SOL    HW151355  13.593  12.963  13.299  0.5603 -1.6303  1.4237
77915SOL    HW251356  13.599  12.830  13.228 -0.7755  0.3501 -2.6836
77916SOL     OW51357  10.081   0.541   3.816  0.0554  0.3944 -0.6206
77916SOL    HW151358   9.999   0.518   3.859  0.5138  0.0271  0.0795
77916SOL    HW251359  10.061   0.535   3.722 -0.4596 -0.6830 -0.4622
77917SOL     OW51360  10.443   9.306   8.835  0.4571 -0.1610 -0.6186
77917SOL    HW151361  10.495   9.256   8.772 -0.6634 -0.5004 -1.3140
77917SOL    HW251362  10.449   9.396   8.804 -0.2984 -0.3599 -1.3924
77918SOL     OW51363   6.590   3.820   4.294  0.0241  0.1162 -0.2098
77918SOL    HW151364   6.617   3.753   4.231  2.5405  0.4647  0.3885
77918SOL    HW251365   6.551   3.770   4.366  0.3988 -0.5810 -0.4786
77919SOL     OW51366   3.592   7.027   5.691 -0.1028  0.2410  0.1540
77919SOL    HW151367   3.617   7.102   5.637  0.5504  0.1589  0.3259
77919SOL    HW251368   3.522   7.059   5.747 -0.5764  0.4155 -0.5251
77920SOL     OW51369   0.639   6.249  12.190 -0.0006 -0.1505 -0.2775
77920SOL    HW151370   0.689   6.171  12.216 -1.7106 -1.1907  0.0096
77920SOL    HW251371   0.584   6.268  12.265 -1.4997 -0.2694 -1.3094
77921SOL     OW51372   3.797   8.080   0.364 -0.1266  0.2192 -0.0402
77921SOL    HW151373   3.817   8.156   0.309  0.5712 -1.8847 -2.9741
77921SOL    HW251374   3.882   8.047   0.392 -0.4548  0.8967  1.8891
77922SOL     OW51375   4.973   0.087   8.877  0.2365  0.0498 -0.3935
77922SOL    HW151376   4.911   0.016   8.892 -0.5515  0.8971  0.4637
77922SOL    HW251377   5.032   0.053   8.810 -1.6178 -0.4922 -1.8386
77923SOL     OW51378   8.890   4.376   3.897 -0.5202  0.2535 -0.3694
77923SOL    HW151379   8.863   4.390   3.988 -1.7439 -1.1526 -0.4745
77923SOL    HW251380   8.808   4.358   3.850  0.3349 -1.8077 -1.1921
77924SOL     OW51381   5.387   1.791  11.354  0.2426 -0.0519  0.3531
77924SOL    HW151382   5.335   1.748  11.421  0.7933  1.3737  1.7461
77924SOL    HW251383   5.463   1.735  11.343  0.3949 -0.0414  1.3072
77925SOL     OW51384   1.889   9.025   3.788 -0.1468  0.0487 -0.2614
77925SOL    HW151385   1.976   9.031   3.749  1.1601  2.8341  2.6193
77925SOL    HW251386   1.903   8.981   3.872 -1.6848 -0.2012 -0.1064
77926SOL     OW51387   3.559   0.829   3.103  0.7868  0.8677  1.0674
77926SOL    HW151388   3.511   0.911   3.094 -0.2286  0.0294 -2.3333
77926SOL    HW251389   3.493   0.765   3.130  0.7011  0.4070 -0.1971
77927SOL     OW51390  12.308   6.405   0.336 -0.6515 -0.1833  0.2944
77927SOL    HW151391  12.282   6.443   0.252  0.0728 -1.1343 -0.3780
77927SOL    HW251392  12.286   6.313   0.328  0.0747 -0.4151  0.8706
77928SOL     OW51393  12.735   8.495   7.112  0.1618 -0.7789 -1.0797
77928SOL    HW151394  12.640   8.510   7.116 -0.6819 -4.9860  1.0592
77928SOL    HW251395  12.769   8.537   7.191  0.2758  1.3266 -2.1977
77929SOL     OW51396   8.533   9.823  13.363  0.0254 -0.4383  0.6688
77929SOL    HW151397   8.560   9.870  13.284  0.9323 -1.5538  0.2760
77929SOL    HW251398   8.615   9.797  13.404 -0.4449 -1.3159  1.0810
77930SOL     OW51399   2.003   2.392   2.130 -0.4033  0.1302  0.4286
77930SOL    HW151400   1.973   2.315   2.083  0.3456 -1.1371  1.9568
77930SOL    HW251401   1.973   2.379   2.219 -1.3715  2.2462  0.4728
77931SOL     OW51402   4.938   4.716   4.823 -0.0437  0.2593  0.1833
77931SOL    HW151403   4.844   4.707   4.838 -0.0444 -0.1265 -0.0410
77931SOL    HW251404   4.974   4.630   4.846  0.2708  0.4485  0.4040
77932SOL     OW51405  13.792  10.095  12.144  0.1305 -0.1603 -0.1423
77932SOL    HW151406  13.733  10.042  12.090  0.2114  0.6880 -1.0925
77932SOL    HW251407  13.832  10.157  12.083  0.7748  0.3529  0.7701
77933SOL     OW51408  10.729  12.305  10.920 -0.0294  0.1539 -0.0299
77933SOL    HW151409  10.689  12.368  10.860  0.2382  0.8374  0.5109
77933SOL    HW251410  10.822  12.327  10.921  0.0821 -0.2998  0.1003
77934SOL     OW51411   2.108  10.896   3.429 -0.2665  0.1499 -0.0181
77934SOL    HW151412   2.191  10.909   3.475  0.7253 -0.4643 -1.5433
77934SOL    HW251413   2.053  10.968   3.458  1.0684  1.0100  0.4622
77935SOL     OW51414   8.765  11.037  14.069  0.3044  0.5280  0.8298
77935SOL    HW151415   8.739  10.946  14.087  0.7206  0.3069  0.3432
77935SOL    HW251416   8.795  11.070  14.154  0.4958  0.0897  0.9399
77936SOL     OW51417   5.533   4.338  11.198  0.6989  0.5504  0.2143
77936SOL    HW151418   5.586   4.354  11.120  0.9466  1.0773  0.4806
77936SOL    HW251419   5.578   4.387  11.267 -0.6489  1.8313  0.2504
77937SOL     OW51420   3.187   6.582   2.247  0.2212  0.1554  0.1392
77937SOL    HW151421   3.177   6.515   2.315 -0.0019  0.7888  0.7450
77937SOL    HW251422   3.099   6.617   2.236  0.6780  1.7655  1.3156
77938SOL     OW51423  11.791   7.315   0.631  0.4101  0.3351 -0.1186
77938SOL    HW151424  11.741   7.297   0.711  0.4672 -0.0105 -0.1573
77938SOL    HW251425  11.747   7.263   0.563 -0.4403  1.6437 -0.5981
77939SOL     OW51426   6.002  11.132  10.336 -0.0688 -0.0610 -0.3120
77939SOL    HW151427   6.028  11.186  10.262 -0.2263  0.3678 -0.0620
77939SOL    HW251428   5.907  11.126  10.329 -0.4697  2.4820  1.4764
77940SOL     OW51429   4.077  11.830   0.715 -0.1292 -1.2682 -0.4960
77940SOL    HW151430   4.073  11.913   0.668  0.4684  0.0142  1.5737
77940SOL    HW251431   3.987  11.800   0.720 -0.3492 -0.7685 -1.3000
77941SOL     OW51432  10.057   3.809   7.053 -0.5651  0.2517 -0.0821
77941SOL    HW151433   9.962   3.806   7.047 -0.6038  2.2893 -1.3491
77941SOL    HW251434  10.076   3.889   7.102  0.4856  2.0641 -3.1769
77942SOL     OW51435   2.566   4.059   6.466  0.7138  0.0765 -0.0148
77942SOL    HW151436   2.506   4.006   6.518  0.6501  0.4501  0.2973
77942SOL    HW251437   2.615   4.110   6.531 -0.4389  1.7074 -0.3671
77943SOL     OW51438  12.118   2.541   0.255  0.1513 -0.1180  0.2639
77943SOL    HW151439  12.171   2.580   0.325  3.4190 -1.9419 -0.9829
77943SOL    HW251440  12.128   2.447   0.266 -0.2017 -0.4748 -1.9290
77944SOL     OW51441   0.142  13.611  11.657 -0.3455  0.2122  0.3652
77944SOL    HW151442   0.178  13.604  11.569 -0.5495 -0.6638  0.3428
77944SOL    HW251443   0.095  13.695  11.658  0.7992  0.8725  0.0750
77945SOL     OW51444   5.807  10.651   1.890 -0.6799  0.0568 -0.4198
77945SOL    HW151445   5.718  10.657   1.855 -0.3032 -1.3921 -1.7373
77945SOL    HW251446   5.853  10.724   1.848 -0.4407 -1.1804 -2.4692
77946SOL     OW51447  11.855   3.253   2.042 -0.4700  0.0667 -0.0678
77946SOL    HW151448  11.849   3.180   1.980  2.8725 -0.4387  0.0047
77946SOL    HW251449  11.823   3.217   2.125 -1.2747 -0.4840 -0.6006
77947SOL     OW51450   2.413   8.217  11.325  0.1107  0.6008  0.2711
77947SOL    HW151451   2.394   8.245  11.415 -0.8027  1.0072 -0.0383
77947SOL    HW251452   2.495   8.262  11.303 -0.2297  1.3667  0.5290
77948SOL     OW51453   2.377   4.422   8.989 -0.0353 -0.0850  0.1500
77948SOL    HW151454   2.399   4.344   8.938  1.0104  0.1458  0.2133
77948SOL    HW251455   2.454   4.436   9.045  1.4596  3.0454 -2.3741
77949SOL     OW51456  11.175   2.324   3.220  0.1757 -0.3211 -0.1364
77949SOL    HW151457  11.221   2.375   3.152 -0.0311 -0.1728 -0.1652
77949SOL    HW251458  11.245   2.291   3.276  0.3652 -0.6355 -0.5526
77950SOL     OW51459   7.469   3.658   5.473  0.1696 -0.2507  0.5421
77950SOL    HW151460   7.459   3.654   5.378 -2.6776  0.0599  0.7455
77950SOL    HW251461   7.437   3.574   5.504  0.9054 -0.2757  1.2507
77951SOL     OW51462  13.526   7.921   9.469  0.5554 -0.5195 -0.4417
77951SOL    HW151463  13.508   7.829   9.450  1.3370 -0.9584  0.8031
77951SOL    HW251464  13.600   7.919   9.529  1.0148  0.9642 -0.9097
77952SOL     OW51465   9.881  14.085   1.950 -0.1329 -0.2077  0.2541
77952SOL    HW151466   9.963  14.114   1.912 -0.5778  0.9532  0.1406
77952SOL    HW251467   9.906  14.039   2.030  0.6186  0.2567  0.2943
77953SOL     OW51468  10.438  12.487   5.376  0.0286 -0.4533  0.0187
77953SOL    HW151469  10.361  12.444   5.338  1.6491 -1.2313 -2.7355
77953SOL    HW251470  10.412  12.578   5.388 -1.5450 -0.8624 -0.0918
77954SOL     OW51471  13.579  13.793   4.854  0.5035  0.2199 -0.4492
77954SOL    HW151472  13.582  13.887   4.835  1.2113  0.0748 -1.0995
77954SOL    HW251473  13.515  13.758   4.792  0.8851  0.1405 -0.7980
77955SOL     OW51474   3.859  12.098   3.083  0.5523 -0.0974 -0.0728
77955SOL    HW151475   3.862  12.149   3.003 -0.4960 -0.8565 -0.6257
77955SOL    HW251476   3.805  12.022   3.061  1.2009 -0.9068  1.0247
77956SOL     OW51477   6.786  10.963   6.187  0.3992  0.2867 -0.2357
77956SOL    HW151478   6.789  10.938   6.279  0.2783  0.1844 -0.2594
77956SOL    HW251479   6.826  11.050   6.184  0.8550  0.0813 -0.1592
77957SOL     OW51480   1.602  12.001   0.769 -0.3790 -0.1706  0.1218
77957SOL    HW151481   1.666  11.987   0.839 -0.3027  2.5011  0.6816
77957SOL    HW251482   1.648  11.974   0.689  1.0120  0.5432  0.6499
77958SOL     OW51483   8.817  12.913   3.017  0.2692 -0.0394  0.5138
77958SOL    HW151484   8.786  12.952   2.935  0.0362  0.1372  0.6879
77958SOL    HW251485   8.753  12.845   3.037 -1.5491  2.0627  2.2882
77959SOL     OW51486   9.157   1.882   3.472 -0.1488 -0.1845  0.1193
77959SOL    HW151487   9.154   1.912   3.563 -1.0358 -0.2817  0.1290
77959SOL    HW251488   9.087   1.817   3.466 -2.7232  2.4553 -1.5548
77960SOL     OW51489   4.913  13.716  10.063  0.5942  0.0007  0.3950
77960SOL    HW151490   4.957  13.796  10.034  0.1565  0.2605  0.4395
77960SOL    HW251491   4.981  13.666  10.109  1.6240 -0.9462 -1.9928
77961SOL     OW51492  13.916   8.931   4.218  0.3239  0.5515  0.4325
77961SOL    HW151493  13.983   8.869   4.247  0.4962  0.7775  0.5106
77961SOL    HW251494  13.857   8.939   4.294  0.3186  0.5081  0.4331
77962SOL     OW51495   0.886   1.482  11.560  0.0954 -0.3225 -0.6716
77962SOL    HW151496   0.814   1.483  11.623  1.9153  1.8635  1.5874
77962SOL    HW251497   0.870   1.404  11.506 -2.3578 -1.5363  1.5786
77963SOL     OW51498   7.625  14.087  11.630 -0.3986 -0.5409  0.0152
77963SOL    HW151499   7.634  14.135  11.548  0.2211 -1.5661 -0.5478
77963SOL    HW251500   7.563  14.137  11.681 -1.3685 -0.2674 -1.3808
77964SOL     OW51501   5.641  13.247   3.579 -0.1623  0.3515  0.1289
77964SOL    HW151502   5.559  13.208   3.611 -0.9331  1.0770 -0.9311
77964SOL    HW251503   5.668  13.190   3.507 -0.2277  0.6414 -0.1248
77965SOL     OW51504  10.561  13.662  10.328 -0.1472 -0.3204 -0.1946
77965SOL    HW151505  10.557  13.706  10.243  2.2123  1.6645  0.5990
77965SOL    HW251506  10.475  13.676  10.366 -0.0793  2.0668 -0.7702
77966SOL     OW51507  12.163   7.812   7.304 -0.0556  0.1773 -0.0220
77966SOL    HW151508  12.252   7.840   7.326  0.3262 -0.7012 -0.4427
77966SOL    HW251509  12.172   7.759   7.226 -0.9938  0.3129 -0.2387
77967SOL     OW51510  10.076   0.452   5.750  0.1118 -0.2837  0.3401
77967SOL    HW151511  10.005   0.499   5.707  0.8280 -0.4361 -1.0512
77967SOL    HW251512  10.056   0.360   5.736 -0.9668 -0.4661  2.5436
77968SOL     OW51513   0.776   4.325   2.079  0.2655  0.2468  0.1303
77968SOL    HW151514   0.867   4.308   2.102  0.3515 -0.7511 -0.8584
77968SOL    HW251515   0.740   4.239   2.059 -0.4669  0.7835 -0.9880
77969SOL     OW51516   5.867   3.236   5.784  0.1706  0.5956 -0.5438
77969SOL    HW151517   5.861   3.197   5.697  2.6940 -3.5365  0.8999
77969SOL    HW251518   5.939   3.298   5.778  0.9901 -0.4005 -1.1981
77970SOL     OW51519   7.502   4.072   1.377  0.4868  0.7246 -0.2100
77970SOL    HW151520   7.507   4.094   1.284  0.8519  0.3746 -0.2757
77970SOL    HW251521   7.590   4.046   1.400  0.3704  0.7027  0.2117
77971SOL     OW51522  11.866   4.328   8.807  0.2163 -0.2913  0.8718
77971SOL    HW151523  11.797   4.361   8.750  0.1614  0.6562  1.4752
77971SOL    HW251524  11.946   4.370   8.774  0.0962  0.7476  1.8490
77972SOL     OW51525  13.429  11.153   5.955 -0.4418  0.3340  0.7022
77972SOL    HW151526  13.506  11.209   5.949 -0.3696  0.1633 -0.0229
77972SOL    HW251527  13.459  11.075   6.003  0.2715 -0.4349 -0.9056
77973SOL     OW51528   7.142  13.121  11.674 -0.0557 -0.2687  0.9034
77973SOL    HW151529   7.122  13.181  11.603  2.2637 -0.4268  0.0287
77973SOL    HW251530   7.091  13.043  11.655 -0.5349  0.2083  0.1980
77974SOL     OW51531   7.579  11.184  10.201 -0.2815 -0.3879 -0.0314
77974SOL    HW151532   7.597  11.099  10.242  0.2527  0.3974  1.4159
77974SOL    HW251533   7.658  11.236  10.217 -1.0844  0.7952  0.1772
77975SOL     OW51534   7.036  10.624  13.763  0.8026  0.0401 -0.2861
77975SOL    HW151535   7.096  10.674  13.817  1.0889  0.6350 -1.1334
77975SOL    HW251536   6.949  10.652  13.791  0.9547  0.5139 -0.2867
77976SOL     OW51537  10.754   6.463   5.166  0.4078  0.1468  0.3473
77976SOL    HW151538  10.823   6.519   5.201  0.7382 -0.6223  0.9395
77976SOL    HW251539  10.790   6.429   5.084  0.7339 -0.2559  0.6575
77977SOL     OW51540  12.220  12.955   2.174 -0.4387  0.4007  0.0439
77977SOL    HW151541  12.267  12.902   2.110  1.4322  0.1938  1.5158
77977SOL    HW251542  12.215  13.042   2.134 -0.8205 -0.1156 -1.0747
77978SOL     OW51543   1.669  11.931   7.802 -0.0360  0.0846 -0.6315
77978SOL    HW151544   1.727  11.992   7.757  0.7289  0.0657  0.2808
77978SOL    HW251545   1.690  11.942   7.895 -2.5690  1.1933 -0.0933
77979SOL     OW51546   9.315   2.270  10.126  0.2405  0.3545 -0.2945
77979SOL    HW151547   9.360   2.270  10.211 -0.1885 -1.8849 -0.0151
77979SOL    HW251548   9.382   2.244  10.063 -0.0610 -0.5730 -0.2404
77980SOL     OW51549  12.922   9.599  13.237 -0.5503 -0.6443 -0.5198
77980SOL    HW151550  12.840   9.584  13.283  0.2414 -1.7975  0.5919
77980SOL    HW251551  12.963   9.673  13.284  1.3026 -3.2126  2.3174
77981SOL     OW51552   5.515   3.153   9.434 -0.8830 -0.0365 -0.2461
77981SOL    HW151553   5.462   3.104   9.497 -0.2221  0.4472  0.7109
77981SOL    HW251554   5.594   3.177   9.482 -0.3099  0.2587 -1.2979
77982SOL     OW51555   6.451   2.153  11.618 -0.2042  0.3401  0.1057
77982SOL    HW151556   6.541   2.174  11.641 -0.3314 -0.5088  1.5720
77982SOL    HW251557   6.400   2.178  11.696 -1.2272  0.7973 -0.6907
77983SOL     OW51558  11.276   0.523   9.611 -0.5924 -0.7076  0.2852
77983SOL    HW151559  11.231   0.458   9.666 -1.1694 -1.9206 -1.5112
77983SOL    HW251560  11.209   0.550   9.548  0.5909 -0.9758 -1.1386
77984SOL     OW51561   9.228   3.853   6.987 -0.1626 -0.4238 -0.1441
77984SOL    HW151562   9.169   3.804   6.930 -1.6207 -0.1955  1.0635
77984SOL    HW251563   9.254   3.930   6.936 -1.5875 -0.1223 -0.4659
77985SOL     OW51564  10.991  13.887  13.721  0.7292  0.7927  0.3301
77985SOL    HW151565  11.022  13.857  13.807 -0.2483 -0.6944  0.2002
77985SOL    HW251566  11.047  13.961  13.700  3.0397 -0.6793  0.8848
77986SOL     OW51567  14.092   6.331   0.485 -0.8266  0.3365 -0.5629
77986SOL    HW151568  14.148   6.319   0.407 -0.9608  1.0033 -0.7697
77986SOL    HW251569  14.021   6.268   0.473 -0.1043 -0.5587 -0.2747
77987SOL     OW51570  10.446   5.423   8.101  0.2809  0.0412 -0.1580
77987SOL    HW151571  10.511   5.356   8.082 -0.9085 -0.4812 -2.7991
77987SOL    HW251572  10.457   5.488   8.033  0.4152  1.8510  1.5016
77988SOL     OW51573   0.062  12.163   6.312  0.0895  0.4776 -0.4236
77988SOL    HW151574   0.083  12.169   6.405  1.1521  2.1376 -0.7311
77988SOL    HW251575  -0.003  12.232   6.298  2.6219  2.8105 -1.5489
77989SOL     OW51576   0.646  10.958   8.940 -0.2013 -0.0588 -0.5718
77989SOL    HW151577   0.663  10.875   8.983 -0.3099 -0.4183 -1.2131
77989SOL    HW251578   0.619  10.934   8.851  0.7148  0.6952 -1.0651
77990SOL     OW51579  11.259   8.589  10.872 -0.4242 -0.9930 -0.1194
77990SOL    HW151580  11.317   8.638  10.930 -0.1926  2.0479 -2.6792
77990SOL    HW251581  11.171   8.606  10.905 -0.1859 -1.2389  0.6634
77991SOL     OW51582   0.280   3.493  11.970 -0.0478 -0.5686 -0.3599
77991SOL    HW151583   0.305   3.554  11.900  0.2255 -0.2732 -0.0096
77991SOL    HW251584   0.217   3.434  11.929 -0.7627  0.3094 -0.5432
77992SOL     OW51585  13.694  10.206  10.625  0.2193 -0.2717  0.1208
77992SOL    HW151586  13.755  10.212  10.699 -1.0597  0.6973  1.1364
77992SOL    HW251587  13.690  10.113  10.605  0.3003 -0.5941  1.5196
77993SOL     OW51588  10.485   5.705  11.879 -0.0354  0.7658 -0.4426
77993SOL    HW151589  10.530   5.680  11.960 -0.2550 -0.9211 -0.7970
77993SOL    HW251590  10.534   5.781  11.847  1.1081  0.4132  0.3919
77994SOL     OW51591  13.690  12.534   6.671  0.1171 -0.0573 -0.2885
77994SOL    HW151592  13.684  12.629   6.673  0.7672  0.0231 -1.5887
77994SOL    HW251593  13.726  12.510   6.757  0.5322  0.9031 -0.1885
77995SOL     OW51594   0.509  11.282   3.574 -0.3298 -0.1890 -0.2147
77995SOL    HW151595   0.598  11.309   3.551 -0.4347  0.0042 -0.3909
77995SOL    HW251596   0.461  11.364   3.586 -0.7378 -0.2888 -1.0974
77996SOL     OW51597   0.238  11.544   2.722  0.1375 -0.2579  0.6576
77996SOL    HW151598   0.207  11.634   2.728  0.9910  0.2405 -1.4611
77996SOL    HW251599   0.331  11.549   2.741  0.5749 -0.3438 -1.2374
77997SOL     OW51600  11.738  10.476   0.470 -0.1435 -0.2219 -0.2055
77997SOL    HW151601  11.657  10.505   0.429 -2.0348 -2.0542  1.8872
77997SOL    HW251602  11.752  10.388   0.435  1.4697  0.3835 -1.1647
77998SOL     OW51603   8.264   6.154   2.261 -0.2820 -0.2208 -0.7060
77998SOL    HW151604   8.216   6.220   2.211  1.9008  2.1194  0.0625
77998SOL    HW251605   8.229   6.160   2.350  0.4271  0.4736 -0.4656
77999SOL     OW51606   0.637  12.354   4.187  0.0398  0.4769  0.0351
77999SOL    HW151607   0.711  12.413   4.172  1.1900 -0.8860  0.1481
77999SOL    HW251608   0.623  12.356   4.282 -0.3634  1.0528 -0.0289
78000SOL     OW51609  11.370   6.006   1.973  0.0317  0.2597  0.2296
78000SOL    HW151610  11.407   5.963   1.896  1.0149  1.2731  0.1109
78000SOL    HW251611  11.324   6.083   1.939 -0.3637  0.1830  0.5754
78001SOL     OW51612   9.774   0.201   2.162  0.2333 -0.5587  1.1379
78001SOL    HW151613   9.766   0.295   2.178  1.2821 -0.1735 -0.3737
78001SOL    HW251614   9.868   0.182   2.172  1.0441 -0.3146 -3.5659
78002SOL     OW51615   5.401   1.291   2.191 -0.0794  0.0811  0.9636
78002SOL    HW151616   5.314   1.290   2.229 -0.5002  0.6095  0.0441
78002SOL    HW251617   5.438   1.375   2.217 -1.0393  1.2380 -1.2022
78003SOL     OW51618  14.034  11.948   9.002  0.0227  0.1411  0.2577
78003SOL    HW151619  14.060  11.883   9.067 -0.1073  0.1127  0.2804
78003SOL    HW251620  13.952  11.984   9.036  0.5622  0.9612  0.7080
78004SOL     OW51621  12.183   5.491  13.584 -0.2901 -0.0077 -0.0473
78004SOL    HW151622  12.150   5.566  13.535 -2.1348 -0.0343  1.0710
78004SOL    HW251623  12.109   5.461  13.636  1.1746 -0.8941  1.6617
78005SOL     OW51624  11.653   4.840  12.301  0.4238 -0.7076 -0.5836
78005SOL    HW151625  11.724   4.892  12.338  2.9636 -2.6831 -2.2877
78005SOL    HW251626  11.642   4.875  12.212  0.1457 -1.2065 -0.7459
78006SOL     OW51627  10.689  11.489   0.414 -0.1587 -0.0953 -0.1380
78006SOL    HW151628  10.711  11.466   0.323 -0.5379 -0.2843 -0.1837
78006SOL    HW251629  10.719  11.414   0.465  1.0947  0.4984  0.0325
78007SOL     OW51630   8.541  13.461   0.386  0.2161  0.3250 -0.3802
78007SOL    HW151631   8.482  13.482   0.459  0.7182  0.9248 -0.1363
78007SOL    HW251632   8.628  13.479   0.421  0.3744  2.2782 -1.6414
78008SOL     OW51633   3.739   0.971   8.483 -0.1171 -0.5891  0.3547
78008SOL    HW151634   3.661   1.003   8.527 -0.0300  0.2757 -0.1087
78008SOL    HW251635   3.741   0.877   8.504 -3.4160 -1.5942 -2.7355
78009SOL     OW51636  12.898   6.564   1.439  0.2658 -0.2303 -0.3200
78009SOL    HW151637  12.821   6.540   1.489 -0.0878  2.0580  0.3342
78009SOL    HW251638  12.966   6.503   1.468 -0.3017  0.1491  1.9382
78010SOL     OW51639  10.550  12.867  10.630  0.1562 -0.1108  0.0971
78010SOL    HW151640  10.607  12.944  10.630 -1.4686  1.1757 -1.1476
78010SOL    HW251641  10.462  12.903  10.616 -0.7471 -2.1571  0.1595
78011SOL     OW51642   1.029  13.582   7.189 -0.7530 -0.0884  0.0689
78011SOL    HW151643   1.052  13.607   7.278 -0.6770  0.7109 -0.1619
78011SOL    HW251644   1.113  13.573   7.144 -0.7766 -0.9677  0.2002
78012SOL     OW51645   3.218   0.749   9.229 -0.1128 -0.2356 -0.2883
78012SOL    HW151646   3.192   0.686   9.296  1.3348 -0.1303  0.4088
78012SOL    HW251647   3.310   0.729   9.211 -0.3285  0.0654 -1.8883
78013SOL     OW51648   2.447   3.623   2.011 -0.1088  0.4673  0.3409
78013SOL    HW151649   2.520   3.653   1.957  0.4393 -2.2346 -0.5623
78013SOL    HW251650   2.380   3.691   2.000  0.1230  0.2821 -3.5090
78014SOL     OW51651   2.780   7.666   5.458  0.1454 -0.4436  0.2265
78014SOL    HW151652   2.739   7.720   5.526 -0.2267 -0.4102 -0.0152
78014SOL    HW251653   2.740   7.697   5.376  2.3293  1.1942 -0.3056
78015SOL     OW51654  10.621   0.681   9.867 -0.0615  0.2496 -0.1397
78015SOL    HW151655  10.584   0.615   9.925  0.5748 -0.0455 -0.0597
78015SOL    HW251656  10.547   0.737   9.844 -0.3450  0.3004  0.8620
78016SOL     OW51657  11.420   4.293   7.575  0.6522 -0.3138  0.2891
78016SOL    HW151658  11.393   4.360   7.512  2.8920 -0.5054 -0.9847
78016SOL    HW251659  11.503   4.261   7.541  2.8812  0.7337  4.1671
78017SOL     OW51660  11.437   5.080   5.025 -0.3694  0.3927 -0.0351
78017SOL    HW151661  11.514   5.035   5.060 -0.3317  0.1181 -0.4616
78017SOL    HW251662  11.372   5.010   5.012 -0.0645  0.3239 -1.3876
78018SOL     OW51663  12.017  13.598   5.570  0.3561 -0.0068 -0.8759
78018SOL    HW151664  11.968  13.680   5.579  0.5692  0.1356 -0.9973
78018SOL    HW251665  12.108  13.625   5.562  0.5085 -0.2923 -0.1621
78019SOL     OW51666  11.024  10.320  12.824  0.7601 -0.4945 -0.0185
78019SOL    HW151667  11.028  10.406  12.783  0.4411 -0.7993 -0.7105
78019SOL    HW251668  11.004  10.338  12.916  2.3899  0.2517  0.2364
78020SOL     OW51669  10.916  13.382   9.588 -0.4735 -0.1025 -0.0976
78020SOL    HW151670  10.924  13.302   9.641  0.3284  1.2450  1.9257
78020SOL    HW251671  10.996  13.383   9.535  0.4612  0.2846  1.2656
78021SOL     OW51672   0.551   2.218   9.846 -0.1478 -0.2147  0.6863
78021SOL    HW151673   0.599   2.234   9.928 -0.8129 -0.5638  1.1551
78021SOL    HW251674   0.604   2.152   9.800  0.0824 -0.2291  0.9657
78022SOL     OW51675  10.079   1.553   0.659 -0.0147 -0.1574 -0.2636
78022SOL    HW151676  10.008   1.489   0.659  1.5813 -2.0777  0.8438
78022SOL    HW251677  10.037   1.637   0.673 -2.1656 -1.0318 -1.1377
78023SOL     OW51678   7.577   2.692   5.466 -0.2183  0.2985  0.2631
78023SOL    HW151679   7.603   2.721   5.378  0.5709  0.8235  0.6497
78023SOL    HW251680   7.655   2.707   5.519 -0.9440  0.7533  1.2261
78024SOL     OW51681   1.023   5.087  12.788 -0.1442  0.0677 -0.4304
78024SOL    HW151682   1.013   4.995  12.763 -0.4284 -0.3488  1.1144
78024SOL    HW251683   1.082   5.084  12.863 -1.1169  1.0343  0.3913
78025SOL     OW51684   3.664   8.337   6.972 -0.5991 -0.0126 -0.5660
78025SOL    HW151685   3.628   8.408   7.024  0.1887  0.5598 -0.7821
78025SOL    HW251686   3.593   8.273   6.966 -0.9666  0.2777  0.5079
78026SOL     OW51687   0.677   1.582   9.300 -0.5184  0.0755  0.1036
78026SOL    HW151688   0.706   1.640   9.230 -2.3258  0.1848 -0.6110
78026SOL    HW251689   0.649   1.502   9.256  0.5297 -0.7956  0.9451
78027SOL     OW51690  12.291   7.185   4.160  0.0412 -0.1305 -0.2455
78027SOL    HW151691  12.360   7.214   4.220  0.8027 -0.7944 -0.7662
78027SOL    HW251692  12.216   7.240   4.180  0.1250 -0.6338  1.6242
78028SOL     OW51693  12.258  10.787   4.007  0.5404  0.1503 -0.0232
78028SOL    HW151694  12.230  10.871   4.043 -0.3317 -0.0743 -0.1348
78028SOL    HW251695  12.351  10.797   3.990  0.5834  0.8645  0.5984
78029SOL     OW51696  10.648   4.073   4.116  0.3805  0.1172 -0.5813
78029SOL    HW151697  10.657   4.061   4.210 -0.9983 -1.4193 -0.5902
78029SOL    HW251698  10.641   4.167   4.104 -0.6091  0.2765  0.9848
78030SOL     OW51699   6.939  11.286   3.827  0.1384 -0.1276 -0.1014
78030SOL    HW151700   6.862  11.243   3.866  0.4279  0.2733  0.9680
78030SOL    HW251701   7.008  11.221   3.832 -0.1666 -0.5468 -1.2227
78031SOL     OW51702  14.084   9.443  13.289  0.2319  0.0637 -0.2350
78031SOL    HW151703  14.007   9.387  13.281 -1.5953  2.3953 -0.0179
78031SOL    HW251704  14.048   9.530  13.308  2.9784  1.0480  0.9182
78032SOL     OW51705   0.223   0.737   5.271  0.2020 -0.1341  0.1501
78032SOL    HW151706   0.237   0.695   5.355 -1.6635 -2.3290 -0.5417
78032SOL    HW251707   0.206   0.665   5.210 -0.7813  1.5040 -1.6314
78033SOL     OW51708   2.999  11.120   3.260  0.1170  0.1607  0.3353
78033SOL    HW151709   3.019  11.184   3.328  0.2177  1.2566 -0.6948
78033SOL    HW251710   3.083  11.078   3.241  0.3250  0.6780  0.0816
78034SOL     OW51711   2.049   0.603   1.670 -0.3808  0.2546 -0.2706
78034SOL    HW151712   2.056   0.509   1.691  0.9995  0.0756 -1.3822
78034SOL    HW251713   1.962   0.612   1.632 -1.1597 -0.2473  1.2697
78035SOL     OW51714  11.280   1.951   2.635  0.2791  0.6494 -0.4580
78035SOL    HW151715  11.287   2.032   2.585  0.4092 -0.0185 -1.5672
78035SOL    HW251716  11.269   1.979   2.726 -1.3772  1.9273 -1.0100
78036SOL     OW51717   5.312   6.243   4.165  0.7050  0.5976  0.6291
78036SOL    HW151718   5.267   6.162   4.188  0.8763  0.7834  1.6577
78036SOL    HW251719   5.270   6.272   4.084  0.1556 -0.1333  0.6453
78037SOL     OW51720   7.823   5.679   1.893 -0.5419  0.0449 -0.0669
78037SOL    HW151721   7.801   5.703   1.803 -1.0413 -0.7060 -0.1539
78037SOL    HW251722   7.823   5.583   1.893  2.2265 -0.0322  0.0597
78038SOL     OW51723   8.032   0.657   9.107 -0.4815  0.1881  0.5342
78038SOL    HW151724   7.943   0.623   9.119 -0.1669 -0.6660  0.5263
78038SOL    HW251725   8.055   0.631   9.018 -1.3074  2.9886 -0.5868
78039SOL     OW51726   4.077   4.966  10.223 -0.6024 -0.3575  0.3727
78039SOL    HW151727   4.124   4.887  10.251 -1.1676 -0.8387 -0.0172
78039SOL    HW251728   3.985   4.946  10.239 -0.6874  0.6705  1.3687
78040SOL     OW51729   8.763   4.412  13.250 -0.0113 -0.5679 -0.6160
78040SOL    HW151730   8.723   4.498  13.260  0.2296 -0.5034 -0.1992
78040SOL    HW251731   8.819   4.421  13.172  0.1117 -0.3109 -0.4982
78041SOL     OW51732   7.476   5.597   6.442 -0.2137  0.0824  0.6202
78041SOL    HW151733   7.389   5.628   6.417  0.1748  1.4530  0.9281
78041SOL    HW251734   7.532   5.620   6.368  0.1780  0.5628  1.0674
78042SOL     OW51735   7.647   4.681  13.683  0.1605 -0.6978  0.1088
78042SOL    HW151736   7.629   4.770  13.713  2.1726 -0.8516  1.9687
78042SOL    HW251737   7.729   4.687  13.635  0.3470 -1.5512  0.2938
78043SOL     OW51738  12.695   9.278   0.405  0.4660 -0.5169  0.1224
78043SOL    HW151739  12.732   9.339   0.340 -1.6172  0.2522 -0.4337
78043SOL    HW251740  12.641   9.219   0.353  0.4841 -1.2669  0.9487
78044SOL     OW51741  10.976   8.353   3.308  0.8612  0.0448  0.1185
78044SOL    HW151742  11.016   8.438   3.291 -0.5258  0.9646  1.2310
78044SOL    HW251743  10.901   8.350   3.248  1.7612 -1.0767 -0.9955
78045SOL     OW51744   0.675   7.779   8.302 -0.6792 -0.3751  0.0238
78045SOL    HW151745   0.646   7.858   8.346 -1.6131 -0.7656  0.1354
78045SOL    HW251746   0.596   7.746   8.258 -0.4436 -1.5605  0.4704
78046SOL     OW51747  10.059   5.691   0.934  0.1324 -0.5732  0.0576
78046SOL    HW151748   9.988   5.733   0.982  0.7355 -2.2221  2.5260
78046SOL    HW251749  10.098   5.762   0.883 -1.2780  1.0227  1.0918
78047SOL     OW51750   9.409   4.488  11.508  0.0019  0.5305  0.3110
78047SOL    HW151751   9.410   4.465  11.415 -1.8480 -0.4155  0.4742
78047SOL    HW251752   9.453   4.414  11.551  2.6793  1.8793  0.0984
78048SOL     OW51753   1.911   5.033   7.579 -0.2514 -0.1016 -0.1268
78048SOL    HW151754   1.985   4.973   7.564  0.6395  0.7083  0.8299
78048SOL    HW251755   1.840   4.997   7.528 -0.1159 -2.6604  1.3412
78049SOL     OW51756   2.787  10.912   4.289  0.2435 -0.2791  0.6186
78049SOL    HW151757   2.815  10.821   4.299  0.3585 -0.4011 -0.6129
78049SOL    HW251758   2.868  10.962   4.293  0.2134 -0.2570  0.9804
78050SOL     OW51759  11.587   0.699   0.229 -0.1588 -0.2244  0.3462
78050SOL    HW151760  11.578   0.612   0.190  1.7209 -0.6387  0.7494
78050SOL    HW251761  11.599   0.683   0.322  3.4128  0.1632  0.0815
78051SOL     OW51762  13.552   9.637  13.393  0.1216  0.0697 -0.5623
78051SOL    HW151763  13.587   9.725  13.377  0.7235 -0.3885 -1.9236
78051SOL    HW251764  13.504   9.615  13.314  0.8378 -1.2170 -0.6706
78052SOL     OW51765   9.387   0.452   2.252 -0.1648  0.4918  0.2712
78052SOL    HW151766   9.304   0.497   2.272  0.4772  0.7707  2.5850
78052SOL    HW251767   9.425   0.433   2.338  0.7657 -2.3412 -0.6674
78053SOL     OW51768  13.913  10.426   9.883 -0.6470  0.3220 -0.0457
78053SOL    HW151769  13.909  10.522   9.883 -1.1941  0.3082 -0.8682
78053SOL    HW251770  13.927  10.403   9.792  1.1719 -0.3463  0.3552
78054SOL     OW51771   1.005  10.765  12.114 -0.1560 -0.0688  0.3289
78054SOL    HW151772   1.095  10.795  12.103 -0.2547  0.1498  0.0990
78054SOL    HW251773   1.009  10.700  12.184  0.3076 -0.6441 -0.2205
78055SOL     OW51774   1.557   7.045   4.567 -0.2617 -0.0120 -0.2417
78055SOL    HW151775   1.476   6.998   4.549 -0.0315  0.4574 -2.9179
78055SOL    HW251776   1.552   7.124   4.513  0.2816  2.1130  2.5222
78056SOL     OW51777   7.918   7.806   0.538 -0.5179 -0.4343 -0.3034
78056SOL    HW151778   7.918   7.827   0.444 -0.1042 -0.8103 -0.3951
78056SOL    HW251779   7.925   7.711   0.541 -1.9146 -0.5345  0.1056
78057SOL     OW51780  12.137   9.525  13.518 -0.0395 -0.2721  0.6108
78057SOL    HW151781  12.117   9.543  13.610  0.4311 -2.1341  1.1274
78057SOL    HW251782  12.217   9.472  13.521 -0.1197 -0.5278 -0.8768
78058SOL     OW51783   0.382  13.873  11.171 -0.0751 -0.3576  0.0916
78058SOL    HW151784   0.318  13.840  11.108  0.0643  0.6543 -0.6091
78058SOL    HW251785   0.466  13.872  11.123 -0.1224  1.2875 -0.0907
78059SOL     OW51786  12.698   8.995  10.867  0.6708  0.6773 -0.0646
78059SOL    HW151787  12.670   8.905  10.849  1.9776  0.0862  0.7075
78059SOL    HW251788  12.631   9.030  10.926  0.5472 -0.0526  0.2413
78060SOL     OW51789   7.306   0.128   9.598 -0.3198  0.1796  0.5032
78060SOL    HW151790   7.316   0.162   9.687 -1.1150 -0.3444  0.7989
78060SOL    HW251791   7.253   0.194   9.553  0.9432  0.9609  0.0956
78061SOL     OW51792  10.886  12.843   0.234  0.5707  0.4605  0.0382
78061SOL    HW151793  10.899  12.760   0.187 -1.1429  0.5136 -0.6294
78061SOL    HW251794  10.877  12.909   0.165 -2.9405  0.3981  0.2409
78062SOL     OW51795   0.187   0.998   5.366 -0.2521  0.1633  0.1948
78062SOL    HW151796   0.272   1.032   5.338 -0.0236  0.3114  1.0253
78062SOL    HW251797   0.182   0.910   5.329 -0.4992  0.7764 -1.3110
78063SOL     OW51798   0.733  12.211   2.535  0.4067  0.4655 -0.3605
78063SOL    HW151799   0.750  12.277   2.468 -1.2468  0.1929 -1.0924
78063SOL    HW251800   0.748  12.257   2.618  0.9284  1.2615 -0.8821
78064SOL     OW51801   9.860  13.564  13.916 -0.6633  0.4359 -0.8557
78064SOL    HW151802   9.913  13.484  13.916 -1.2787  0.0200 -0.2532
78064SOL    HW251803   9.911  13.626  13.865 -0.0082 -0.2333 -1.0328
78065SOL     OW51804  13.897   4.327   5.192  0.2078 -0.1610 -0.0716
78065SOL    HW151805  13.948   4.268   5.248 -0.7091  0.3468  1.3772
78065SOL    HW251806  13.948   4.408   5.191  1.0789 -0.6998 -1.4193
78066SOL     OW51807   2.897   5.729   1.428 -0.0436  0.4540 -0.1610
78066SOL    HW151808   2.974   5.770   1.468 -0.5160  0.8544  0.3606
78066SOL    HW251809   2.836   5.718   1.501 -0.8487  1.0118 -0.7438
78067SOL     OW51810   9.534  12.345   3.468 -0.1530 -0.7545 -0.1192
78067SOL    HW151811   9.482  12.303   3.399 -2.0930 -0.4523  1.0757
78067SOL    HW251812   9.580  12.272   3.510 -1.6625 -1.4610  0.4237
78068SOL     OW51813  11.372   2.933  10.835 -0.1795 -0.0068 -0.3382
78068SOL    HW151814  11.327   2.952  10.917  1.7170 -0.1765  0.8050
78068SOL    HW251815  11.444   2.996  10.832  1.2360 -1.5670 -0.6159
78069SOL     OW51816   3.673  10.603   2.721  0.3998 -0.1240 -0.4008
78069SOL    HW151817   3.629  10.518   2.724 -0.2164  0.2068  0.4455
78069SOL    HW251818   3.751  10.591   2.775 -0.3991  0.2204  0.8601
78070SOL     OW51819   3.878   2.223  10.405  0.1531 -0.3203 -0.5245
78070SOL    HW151820   3.873   2.128  10.419  0.4529 -0.4904 -1.4948
78070SOL    HW251821   3.823   2.239  10.329  0.1755  0.2765 -0.4188
78071SOL     OW51822  12.454   4.311   8.770  0.1896  0.0254  0.4167
78071SOL    HW151823  12.502   4.390   8.796 -0.6258  1.0018 -0.9061
78071SOL    HW251824  12.424   4.274   8.853 -0.3735  1.7488  1.0371
78072SOL     OW51825  10.026   9.752   0.173  0.2426  0.4771  0.2240
78072SOL    HW151826   9.988   9.665   0.170  1.0105  0.0634  1.4691
78072SOL    HW251827  10.085   9.750   0.249  2.7326  1.0744 -1.5653
78073SOL     OW51828  13.492   4.739   6.922 -0.0018 -0.7549  0.3519
78073SOL    HW151829  13.415   4.703   6.965  1.2208 -2.0666  1.5300
78073SOL    HW251830  13.523   4.668   6.865 -0.2083  0.1127 -0.8828
78074SOL     OW51831   1.983  12.944   5.573 -0.2980  0.1123  0.3880
78074SOL    HW151832   2.031  12.914   5.496  0.6139 -0.7798  1.2780
78074SOL    HW251833   2.044  12.934   5.645 -1.4949 -0.1023  1.4064
78075SOL     OW51834   5.641   5.083  11.678 -0.2044  0.2618  0.1800
78075SOL    HW151835   5.598   5.168  11.675  0.1386  0.4116 -1.7491
78075SOL    HW251836   5.575   5.021  11.647 -0.0230  0.0273  0.2545
78076SOL     OW51837  12.307   4.974  10.710  0.1462  0.4954 -0.3147
78076SOL    HW151838  12.254   5.004  10.784 -0.8415 -0.7640 -0.4753
78076SOL    HW251839  12.374   4.918  10.749  0.2396  0.6273 -0.2836
78077SOL     OW51840  10.815   6.007   2.250 -0.0594  0.2509 -0.2840
78077SOL    HW151841  10.860   5.971   2.174  0.2968  2.4699 -1.2188
78077SOL    HW251842  10.842   5.952   2.323 -0.0860 -1.6917 -1.6584
78078SOL     OW51843   4.799   0.335  11.415  0.4161 -0.0923  0.6280
78078SOL    HW151844   4.823   0.427  11.422  0.3891  0.0925 -1.1440
78078SOL    HW251845   4.721   0.334  11.359  1.4758 -1.2751 -0.9302
78079SOL     OW51846   6.484   4.083   4.050  0.3485 -0.6476  0.4470
78079SOL    HW151847   6.435   4.019   4.101 -1.9293  0.1350 -0.6194
78079SOL    HW251848   6.510   4.150   4.114 -1.2949 -0.3525  0.8580
78080SOL     OW51849   5.237   3.283  12.946 -0.3576 -0.4035 -0.8422
78080SOL    HW151850   5.289   3.363  12.948  0.0924 -0.6981 -0.1276
78080SOL    HW251851   5.150   3.311  12.919 -0.1481  0.2891 -0.8206
78081SOL     OW51852   6.287   1.143  12.912  0.0023  0.3908  0.5521
78081SOL    HW151853   6.200   1.183  12.917  0.1844  0.7232  1.0715
78081SOL    HW251854   6.342   1.196  12.969  0.1884 -0.7552  1.4747
78082SOL     OW51855  11.182   2.795  14.027  0.0883 -0.9330  0.4022
78082SOL    HW151856  11.207   2.804  14.119 -0.4792  0.3784  0.4523
78082SOL    HW251857  11.160   2.884  13.999 -3.1891 -1.7248  0.0125
78083SOL     OW51858   6.600   4.586  10.122 -0.7227 -0.8030  0.0307
78083SOL    HW151859   6.519   4.615  10.165  0.5998  1.3448  1.2547
78083SOL    HW251860   6.575   4.573  10.030 -2.3354  0.4715  0.2368
78084SOL     OW51861   2.435   8.866   0.149 -0.0215 -0.1898 -0.6422
78084SOL    HW151862   2.447   8.806   0.076  0.6516  1.4335 -1.9288
78084SOL    HW251863   2.505   8.930   0.139 -1.2642  1.3613  0.1018
78085SOL     OW51864   6.836   8.242   1.306  0.0998  0.5584 -0.2910
78085SOL    HW151865   6.805   8.208   1.390  1.5344 -0.3477 -0.0809
78085SOL    HW251866   6.867   8.330   1.326  0.8055  0.2041  0.2407
78086SOL     OW51867   3.259   8.083  11.449 -0.7433 -0.0006 -0.0553
78086SOL    HW151868   3.270   8.178  11.459  0.3586 -0.0692 -0.5308
78086SOL    HW251869   3.265   8.049  11.537 -0.4926  0.3051  0.0468
78087SOL     OW51870   2.940   3.608   0.808  0.4145 -0.4664  0.2885
78087SOL    HW151871   2.856   3.645   0.834 -1.0652 -3.5704  0.4379
78087SOL    HW251872   2.936   3.603   0.713  0.6410 -0.1820  0.2633
78088SOL     OW51873  10.009   4.229  10.136 -0.3312 -0.6551  0.3499
78088SOL    HW151874   9.943   4.203  10.072 -0.5170 -0.4775  0.4689
78088SOL    HW251875   9.963   4.231  10.219 -0.0665 -0.9821  0.5066
78089SOL     OW51876  11.369   1.432   4.281  0.2308 -0.6769  0.3474
78089SOL    HW151877  11.380   1.372   4.355  0.2692  0.9607  1.7336
78089SOL    HW251878  11.275   1.432   4.264  0.1293 -0.5391  0.8768
78090SOL     OW51879   7.843   3.581  10.959 -0.2633 -0.1998  0.2746
78090SOL    HW151880   7.893   3.597  10.879 -2.4190 -0.0714 -1.1614
78090SOL    HW251881   7.782   3.511  10.935 -0.3020 -0.8476  2.1391
78091SOL     OW51882  11.720   4.590  11.926 -0.9731 -0.4662  0.8159
78091SOL    HW151883  11.625   4.587  11.921 -0.9487 -3.3404  0.1781
78091SOL    HW251884  11.748   4.500  11.906  1.7613 -0.3536  3.4131
78092SOL     OW51885  12.807   2.128   2.935 -0.2221  0.0546  0.5894
78092SOL    HW151886  12.740   2.193   2.956 -0.7262 -1.2758  3.5860
78092SOL    HW251887  12.799   2.062   3.004  3.3810 -0.8096  0.3852
78093SOL     OW51888   7.330   8.868   3.389 -0.1103 -0.9965 -0.2622
78093SOL    HW151889   7.414   8.834   3.423 -0.3704 -1.4614 -0.0742
78093SOL    HW251890   7.351   8.957   3.360 -0.0247 -0.2936  1.7610
78094SOL     OW51891   6.547  11.237   5.619 -0.4764 -0.1088 -0.0392
78094SOL    HW151892   6.602  11.200   5.689  2.4588  3.2320 -0.3132
78094SOL    HW251893   6.485  11.293   5.666 -1.6446 -1.4269  0.0634
78095SOL     OW51894   3.180  10.848   6.623 -0.1112  0.3207  0.6608
78095SOL    HW151895   3.106  10.863   6.682 -1.6617  0.4710 -1.2339
78095SOL    HW251896   3.220  10.766   6.655 -2.1316 -0.7009  0.7175
78096SOL     OW51897  11.432  10.972   3.517  0.1609  0.5402  0.1944
78096SOL    HW151898  11.448  10.938   3.430  0.4474  1.0950  0.0234
78096SOL    HW251899  11.394  10.899   3.565  1.7613 -0.3752  0.1584
78097SOL     OW51900   0.679  13.603   7.629 -0.0797 -0.2083 -0.3302
78097SOL    HW151901   0.703  13.688   7.593  0.5267  0.4277  1.4616
78097SOL    HW251902   0.596  13.582   7.586 -0.5061  1.5245 -0.4402
78098SOL     OW51903   6.056   7.728   0.273 -0.3726  0.2576  0.0254
78098SOL    HW151904   6.048   7.633   0.269 -0.1770  0.2829 -1.0239
78098SOL    HW251905   6.028   7.750   0.363 -0.7529 -0.7466  0.1675
78099SOL     OW51906  12.265   4.626  10.820  0.0915 -0.0648  0.4558
78099SOL    HW151907  12.182   4.594  10.786  0.0273  1.0140 -0.4161
78099SOL    HW251908  12.307   4.670  10.746  0.4730  1.2899  1.4404
78100SOL     OW51909   7.776  10.207   0.448  0.2499  0.4387  0.3262
78100SOL    HW151910   7.778  10.188   0.354  1.8621  1.6631  0.0776
78100SOL    HW251911   7.733  10.292   0.454  0.8026  0.6992  0.6256
78101SOL     OW51912   9.934  10.652   4.587  0.4018 -0.4666  0.4035
78101SOL    HW151913   9.863  10.587   4.598 -0.5410  0.5914  0.7859
78101SOL    HW251914  10.005  10.602   4.547 -1.2057 -1.1895 -1.7998
78102SOL     OW51915   6.057  12.781   2.526  0.2183  0.0915 -0.4803
78102SOL    HW151916   6.134  12.805   2.578 -0.7540  2.5013 -0.0635
78102SOL    HW251917   6.070  12.826   2.442  0.3745 -1.4533 -1.3270
78103SOL     OW51918  10.699   5.333   4.387 -0.1126  0.1747 -0.1261
78103SOL    HW151919  10.729   5.276   4.459 -0.9291 -0.8231 -0.5647
78103SOL    HW251920  10.625   5.381   4.424 -0.6549 -0.4801 -0.3565
78104SOL     OW51921   8.043  12.311  14.037 -0.0272 -0.7819 -0.1923
78104SOL    HW151922   7.967  12.357  14.002  0.8556 -0.9945 -2.5266
78104SOL    HW251923   8.021  12.219  14.031 -0.2473 -0.8127  0.8118
78105SOL     OW51924   1.886  13.951   8.593  0.6210  0.2758  0.1490
78105SOL    HW151925   1.805  14.001   8.599  0.9946  0.9386 -0.0880
78105SOL    HW251926   1.955  14.017   8.605  1.1204 -0.2528  0.2222
78106SOL     OW51927   6.146  10.637   4.923  0.0428 -0.0596 -0.0957
78106SOL    HW151928   6.122  10.624   4.832  0.3413  1.0807 -0.3487
78106SOL    HW251929   6.226  10.586   4.935  0.4225  0.3992 -0.6751
78107SOL     OW51930  12.187   0.334   7.627 -0.3080 -0.0411  0.2112
78107SOL    HW151931  12.242   0.412   7.619 -3.1465  2.1953  0.5921
78107SOL    HW251932  12.132   0.336   7.549 -1.5666 -0.6603  1.0642
78108SOL     OW51933   4.152   5.581   3.095  0.0409  0.3413 -0.1285
78108SOL    HW151934   4.106   5.663   3.110 -0.5126  0.0332 -0.1040
78108SOL    HW251935   4.224   5.604   3.036  0.2153  0.9391  0.3096
78109SOL     OW51936  10.790   0.087   0.327 -0.7088  0.1314  0.2876
78109SOL    HW151937  10.820   0.031   0.256  0.0272  0.1844  0.5452
78109SOL    HW251938  10.695   0.093   0.315 -0.6667 -0.3502 -0.3268
78110SOL     OW51939  13.447  11.430  12.118  0.7587 -0.0414  0.2531
78110SOL    HW151940  13.532  11.428  12.074  1.2450 -0.8594  1.1863
78110SOL    HW251941  13.458  11.494  12.188  0.2613  0.6260 -0.2717
78111SOL     OW51942   5.462   4.883  11.578  0.6444 -0.3279  0.1822
78111SOL    HW151943   5.432   4.821  11.645 -0.2818 -0.1169 -0.0287
78111SOL    HW251944   5.392   4.885  11.514  0.4236  1.3149  0.4326
78112SOL     OW51945  11.925   6.447   5.170 -0.6355  0.5103  0.3062
78112SOL    HW151946  11.999   6.416   5.118 -0.1328 -0.6045  1.6304
78112SOL    HW251947  11.952   6.534   5.201 -0.1767  0.4148  0.1838
78113SOL     OW51948   2.081  11.527  13.612 -0.0212  0.3901 -0.3561
78113SOL    HW151949   2.098  11.444  13.566 -0.3185  0.7346 -1.1049
78113SOL    HW251950   1.994  11.553  13.582  0.0740  0.9816 -0.1290
78114SOL     OW51951  10.768   2.887  11.845  0.4002 -0.6595  0.4263
78114SOL    HW151952  10.813   2.835  11.912  1.4848 -0.7476 -0.3364
78114SOL    HW251953  10.700   2.829  11.811  1.2743 -1.4303 -0.0666
78115SOL     OW51954   4.359   0.752   6.564  0.4013  0.3395  0.1592
78115SOL    HW151955   4.446   0.792   6.573 -0.4776  2.6597 -0.8425
78115SOL    HW251956   4.334   0.770   6.474 -0.4004 -1.9718 -0.1515
78116SOL     OW51957   4.998   1.601  10.020  0.0309 -0.5775 -0.0710
78116SOL    HW151958   4.907   1.611   9.994 -0.2502  0.8271  1.2658
78116SOL    HW251959   4.996   1.606  10.116  1.6288  0.8327 -0.0568
78117SOL     OW51960  10.522   2.512   7.367 -0.5530 -0.5456  0.1493
78117SOL    HW151961  10.591   2.470   7.316  0.0090 -1.5547  1.6753
78117SOL    HW251962  10.472   2.562   7.303  1.2738 -0.1893 -1.0736
78118SOL     OW51963   6.697   1.732   2.610 -0.1380  0.0881 -0.8878
78118SOL    HW151964   6.664   1.821   2.620  0.0366  0.1919 -1.2233
78118SOL    HW251965   6.791   1.739   2.627 -0.2778 -0.2079  0.0806
78119SOL     OW51966  13.722  11.376   0.447  0.1477 -0.3311  0.3951
78119SOL    HW151967  13.753  11.457   0.488 -0.5517 -0.1496  0.5805
78119SOL    HW251968  13.798  11.343   0.399  0.0267  1.2633 -0.9967
78120SOL     OW51969  12.455   3.692   5.532 -0.2128  0.3298  0.5859
78120SOL    HW151970  12.506   3.726   5.458  1.2530  0.0367  1.4184
78120SOL    HW251971  12.375   3.659   5.492 -0.6876  2.6194 -0.5399
78121SOL     OW51972   6.903  11.177   1.357  0.1539  0.4503 -0.5096
78121SOL    HW151973   6.918  11.271   1.349 -0.7812  0.5680 -1.0625
78121SOL    HW251974   6.885  11.148   1.267  1.7225 -0.5059 -0.5517
78122SOL     OW51975  12.039  10.576   7.940  0.6496 -0.1757  0.4114
78122SOL    HW151976  11.992  10.646   7.984 -1.2108 -0.1099 -1.5299
78122SOL    HW251977  12.040  10.601   7.848 -0.1424 -2.6868 -0.3803
78123SOL     OW51978   1.068   6.434   0.886  0.0349  0.3161 -0.2476
78123SOL    HW151979   1.060   6.340   0.904  0.1247  0.2204 -0.6883
78123SOL    HW251980   1.155   6.457   0.918 -0.3432  0.4573  0.7182
78124SOL     OW51981   6.538   9.874   2.740 -0.1221  0.1889  0.0107
78124SOL    HW151982   6.541   9.779   2.733 -0.5785  0.1885 -0.2150
78124SOL    HW251983   6.578   9.893   2.825  1.7909 -0.0634 -0.7927
78125SOL     OW51984  13.221   3.693   4.602 -0.3051  0.0913  0.1807
78125SOL    HW151985  13.314   3.707   4.589  0.2853 -2.2521  1.3269
78125SOL    HW251986  13.206   3.713   4.695 -0.9948  0.5974 -0.0287
78126SOL     OW51987  10.532   4.511   9.476 -0.1294  0.2052  0.4710
78126SOL    HW151988  10.555   4.602   9.459 -1.7477  0.3760 -1.0946
78126SOL    HW251989  10.613   4.471   9.508  1.1286  1.7417 -0.6516
78127SOL     OW51990  10.063   2.635   9.626  0.2729  0.6757 -0.0433
78127SOL    HW151991  10.135   2.697   9.616  0.6937  0.1288 -0.4748
78127SOL    HW251992  10.106   2.549   9.629 -0.2742  0.4149  0.8137
78128SOL     OW51993   3.729   9.443   3.817 -0.5694 -0.3666 -0.2384
78128SOL    HW151994   3.711   9.534   3.840  1.1997 -0.0253 -0.0190
78128SOL    HW251995   3.647   9.410   3.781 -1.2620  1.3045 -0.2742
78129SOL     OW51996  11.955   0.137   3.859  0.6527  0.4811 -0.3768
78129SOL    HW151997  12.000   0.219   3.838  0.3739  0.3388 -1.5807
78129SOL    HW251998  11.987   0.114   3.946  2.1275  0.9038 -0.7824
78130SOL     OW51999   6.442   6.030   0.902 -0.0855 -0.2060  0.1266
78130SOL    HW152000   6.444   5.935   0.893 -0.3013 -0.0843 -1.4640
78130SOL    HW252001   6.444   6.045   0.997 -2.5339 -1.8792  0.5519
78131SOL     OW52002   8.549  11.072   4.322 -0.0044  0.1434  0.3936
78131SOL    HW152003   8.503  11.081   4.238 -0.4979  0.6471  0.7128
78131SOL    HW252004   8.597  11.154   4.331 -0.9248  0.6203  1.1733
78132SOL     OW52005   0.863  12.260   4.935  0.1506 -0.1544 -0.1448
78132SOL    HW152006   0.795  12.327   4.928 -0.7445 -0.9561  0.4746
78132SOL    HW252007   0.852  12.224   5.023  1.1766 -0.5266 -0.1590
78133SOL     OW52008  13.620   7.374   3.650 -0.3537 -0.3401  0.2540
78133SOL    HW152009  13.625   7.437   3.578 -0.7081 -1.5289 -0.8534
78133SOL    HW252010  13.708   7.371   3.686  0.4111 -1.3195 -1.5737
78134SOL     OW52011   6.980   8.240   7.526  0.2843  0.1786  0.2230
78134SOL    HW152012   6.943   8.165   7.479 -0.8684  0.0120  1.3620
78134SOL    HW252013   6.945   8.234   7.614  1.3335  1.2573  0.7542
78135SOL     OW52014  13.277   6.431   0.475 -0.0441 -0.2539 -0.5233
78135SOL    HW152015  13.222   6.503   0.506  0.0157 -0.8667  1.0824
78135SOL    HW252016  13.220   6.383   0.415 -0.5034  0.4012 -0.6351
78136SOL     OW52017   5.632  13.948   1.192  0.3287  0.3617 -0.3899
78136SOL    HW152018   5.601  13.951   1.102  1.3563  0.0050 -0.7776
78136SOL    HW252019   5.698  14.017   1.197  1.7471 -0.9083 -0.5311
78137SOL     OW52020   1.966  10.899   9.850 -0.3734  0.5341 -0.0011
78137SOL    HW152021   1.969  10.987   9.888  0.4911  0.3166  0.4664
78137SOL    HW252022   2.012  10.844   9.913  0.0093 -0.0628 -0.7736
78138SOL     OW52023   4.400   0.672   0.365  0.3571  0.1839 -0.7301
78138SOL    HW152024   4.475   0.717   0.327 -0.4232  1.0306 -1.3269
78138SOL    HW252025   4.380   0.722   0.444  1.3669 -0.9825  0.3038
78139SOL     OW52026   3.227   2.895   6.315  0.6343  0.9212 -0.7121
78139SOL    HW152027   3.213   2.986   6.290 -0.4599  0.9741  0.0528
78139SOL    HW252028   3.305   2.897   6.371  0.4941  1.4092 -0.5344
78140SOL     OW52029   3.146   0.844   3.601 -0.2732  0.2076 -0.5330
78140SOL    HW152030   3.233   0.823   3.569  0.5764  0.5881  1.3926
78140SOL    HW252031   3.123   0.772   3.659  0.2506  1.6829  1.6352
78141SOL     OW52032  14.040   3.574   7.684 -0.2086  0.3976  0.1026
78141SOL    HW152033  14.029   3.531   7.769  1.8413 -0.7486 -0.1498
78141SOL    HW252034  13.957   3.619   7.670 -1.1516 -0.5794  2.0317
78142SOL     OW52035   2.048   1.249   4.232  0.2703 -0.5369  0.3270
78142SOL    HW152036   2.028   1.340   4.254  0.5444 -0.3846 -0.0303
78142SOL    HW252037   2.047   1.248   4.136  0.3125 -0.8996  0.3310
78143SOL     OW52038   8.233  13.226   5.674  0.1023 -0.3876  0.2002
78143SOL    HW152039   8.282  13.257   5.598 -2.4217  1.4305 -0.8210
78143SOL    HW252040   8.142  13.249   5.655 -0.6066  0.6175  3.9742
78144SOL     OW52041   6.089   7.361  10.516  0.1793 -0.2363  0.1719
78144SOL    HW152042   6.085   7.450  10.551 -1.1195 -0.1927 -0.0270
78144SOL    HW252043   6.036   7.309  10.577 -0.3621 -0.5626 -0.5618
78145SOL     OW52044  11.833  11.036   3.468 -0.0800  0.5800  0.4241
78145SOL    HW152045  11.875  11.122   3.479 -1.4672  1.1287  1.9552
78145SOL    HW252046  11.850  10.991   3.551 -0.5522 -0.0617  0.1765
78146SOL     OW52047   2.188  10.034  13.024 -0.0682 -0.3664 -0.1865
78146SOL    HW152048   2.272  10.062  12.985 -1.2340  1.2195 -1.7642
78146SOL    HW252049   2.161   9.960  12.971 -0.5888  0.3988 -1.0294
78147SOL     OW52050   1.041   2.306   6.389 -0.1464  0.5624 -0.5402
78147SOL    HW152051   1.064   2.355   6.310  1.0958  0.3307 -0.3347
78147SOL    HW252052   1.072   2.217   6.374  1.3115  0.8136  0.7029
78148SOL     OW52053   6.357  10.637   5.100  0.0471 -0.0584  0.4264
78148SOL    HW152054   6.385  10.725   5.125  0.8916 -0.1050 -0.3255
78148SOL    HW252055   6.419  10.610   5.033 -1.6760 -0.2352 -1.1882
78149SOL     OW52056   2.190   6.730   2.618  0.0971 -0.8314  0.0733
78149SOL    HW152057   2.224   6.700   2.533 -0.7236  0.1972 -0.6382
78149SOL    HW252058   2.232   6.671   2.681  0.2131 -2.0619 -1.0761
78150SOL     OW52059   0.547   5.496  11.787  0.4214  0.0841  0.1640
78150SOL    HW152060   0.485   5.438  11.743  0.1597  1.4277 -1.3409
78150SOL    HW252061   0.633   5.469  11.753  0.3327  0.3289 -0.2662
78151SOL     OW52062   0.652   0.258  12.269  0.2324  0.2565 -0.1069
78151SOL    HW152063   0.703   0.339  12.268  0.9069 -0.1155 -2.2061
78151SOL    HW252064   0.712   0.193  12.306 -0.3512  0.7053  1.6911
78152SOL     OW52065   2.562   6.564   8.734 -0.0718  0.1838  0.1262
78152SOL    HW152066   2.598   6.652   8.742 -3.3920  1.6409  1.1814
78152SOL    HW252067   2.595   6.518   8.811  2.2388  0.1906 -0.7817
78153SOL     OW52068  12.831   0.668   1.836 -0.3574  0.2758  0.4778
78153SOL    HW152069  12.824   0.736   1.769  1.5493  0.5839  0.5345
78153SOL    HW252070  12.888   0.601   1.798 -1.4914 -0.8963  0.7622
78154SOL     OW52071   3.241   0.728   3.868 -0.4826 -0.1167  0.6100
78154SOL    HW152072   3.293   0.807   3.879 -0.2693  0.2841 -2.3323
78154SOL    HW252073   3.150   0.757   3.878 -0.3694  0.3818  0.2400
78155SOL     OW52074   4.111   0.048   7.952  0.0204 -0.3518  0.1706
78155SOL    HW152075   4.097   0.109   8.025  0.1666 -0.5411  0.3572
78155SOL    HW252076   4.180   0.088   7.900  0.9675 -0.9265  0.9388
78156SOL     OW52077   1.501   9.415   9.650 -0.1235 -0.3844  0.0197
78156SOL    HW152078   1.575   9.372   9.607  0.8060 -0.2727  1.4318
78156SOL    HW252079   1.423   9.372   9.612  0.5335  0.6123 -2.6895
78157SOL     OW52080   8.028  11.330   5.395  0.0887 -0.5899  0.1018
78157SOL    HW152081   8.022  11.320   5.300 -1.3977 -1.3546  0.2407
78157SOL    HW252082   8.110  11.377   5.409 -0.3161  0.7282 -1.6283
78158SOL     OW52083  12.199   8.052   6.158 -0.7649  0.3384  0.0099
78158SOL    HW152084  12.157   8.085   6.238  0.2235  0.0104  0.6854
78158SOL    HW252085  12.217   8.131   6.107  1.9548  1.0158  1.7965
78159SOL     OW52086   8.835   9.015  11.070  0.3200  0.3721 -0.0181
78159SOL    HW152087   8.755   9.036  11.021  0.8450 -0.3191 -1.2230
78159SOL    HW252088   8.848   8.921  11.056 -0.2604 -0.1715  2.6461
78160SOL     OW52089  11.600   1.745  10.461 -0.3646 -0.2982  0.0915
78160SOL    HW152090  11.692   1.734  10.437 -0.0256 -0.7066  1.4955
78160SOL    HW252091  11.595   1.834  10.495 -0.7744  0.1703 -1.1622
78161SOL     OW52092   1.029   7.126   8.087 -0.3327  0.6137 -0.0489
78161SOL    HW152093   1.069   7.058   8.034 -1.4404  0.7009 -1.0459
78161SOL    HW252094   0.946   7.088   8.117 -0.4591  1.1343  0.2802
78162SOL     OW52095   3.013  12.900   1.074  0.4888  0.4940  0.2779
78162SOL    HW152096   3.021  12.883   1.168  0.2979  0.2736  0.2544
78162SOL    HW252097   2.919  12.908   1.059  0.5811  1.7671  0.3190
78163SOL     OW52098  10.887  12.103  10.079 -0.2135 -0.3094  0.5528
78163SOL    HW152099  10.965  12.148  10.114 -0.3885  0.5472 -0.1308
78163SOL    HW252100  10.875  12.028  10.137  0.8644 -0.2034  0.9337
78164SOL     OW52101   3.120  13.016  10.299 -0.2719  0.6924 -0.1342
78164SOL    HW152102   3.081  13.090  10.253 -1.2090  0.1307 -0.2664
78164SOL    HW252103   3.109  12.941  10.240  0.9729  0.4983 -0.1528
78165SOL     OW52104   0.316   1.003   1.392  0.5391 -0.0711 -0.7244
78165SOL    HW152105   0.394   1.043   1.352 -0.2686  3.0257  0.5400
78165SOL    HW252106   0.245   1.023   1.331 -0.1038  1.7422  0.5318
78166SOL     OW52107   0.452   9.709   4.134  0.6086  0.4568  0.0121
78166SOL    HW152108   0.483   9.646   4.199  1.5379  1.1122  0.2215
78166SOL    HW252109   0.376   9.751   4.175  0.1733 -0.3047 -0.0059
78167SOL     OW52110  12.646   9.514   5.075  0.1376 -0.0959 -0.2779
78167SOL    HW152111  12.670   9.579   5.009 -0.7336  1.1368  0.5740
78167SOL    HW252112  12.659   9.430   5.032  0.4827  0.6512 -1.6942
78168SOL     OW52113   3.551  11.295   9.107  0.2614 -0.3818 -0.3587
78168SOL    HW152114   3.489  11.293   9.180  0.9473  0.5863  0.2762
78168SOL    HW252115   3.558  11.387   9.084 -0.5877 -0.7377 -2.2542
78169SOL     OW52116  12.584   6.614   7.517 -0.5152  0.2665 -0.0341
78169SOL    HW152117  12.662   6.566   7.541 -0.0388  0.5012 -1.0366
78169SOL    HW252118  12.607   6.706   7.530 -0.5442  0.3475 -0.5244
78170SOL     OW52119   4.397   3.145   4.463 -0.2779  0.7138  0.4241
78170SOL    HW152120   4.458   3.127   4.392 -0.6898  4.4252 -1.1073
78170SOL    HW252121   4.317   3.098   4.440  1.0796 -2.1162  1.1257
78171SOL     OW52122   2.307  11.330   8.968 -0.1886 -0.2616 -0.1071
78171SOL    HW152123   2.273  11.343   8.880  0.7734 -0.6082 -0.5402
78171SOL    HW252124   2.254  11.388   9.023 -0.6028  0.1776 -0.9561
78172SOL     OW52125  14.019  12.565  12.718  0.5183 -0.2708 -0.0119
78172SOL    HW152126  14.025  12.654  12.752  0.6694  0.1890 -1.1793
78172SOL    HW252127  14.054  12.509  12.787  1.3617  0.6720  0.3319
78173SOL     OW52128  13.834   0.379   6.680 -0.0145  0.0826 -0.0446
78173SOL    HW152129  13.769   0.337   6.624  0.8555  0.3207 -1.3001
78173SOL    HW252130  13.819   0.343   6.767 -2.7672  1.2386  0.0533
78174SOL     OW52131   9.707   0.101   7.036  0.2448 -0.2669 -0.0594
78174SOL    HW152132   9.631   0.058   6.998  0.0282  0.0698 -0.0115
78174SOL    HW252133   9.756   0.134   6.961  0.7772 -1.1974 -0.1320
78175SOL     OW52134   1.763  10.712   5.710  0.0291  0.0595 -0.1583
78175SOL    HW152135   1.720  10.727   5.795 -0.4076 -2.1151  0.0477
78175SOL    HW252136   1.710  10.762   5.648  0.5737  2.0157  0.8367
78176SOL     OW52137  10.405   6.640   2.266 -0.3457 -0.0716 -0.4889
78176SOL    HW152138  10.447   6.717   2.228  0.3027  0.2195  0.7717
78176SOL    HW252139  10.474   6.573   2.266 -0.3739 -0.0979  0.0811
78177SOL     OW52140   0.996   9.045   2.967 -0.2318  0.3026 -0.0537
78177SOL    HW152141   0.952   8.973   3.013  0.1884  0.0602 -0.0253
78177SOL    HW252142   1.080   9.054   3.011 -0.4185  1.0417  0.1607
78178SOL     OW52143   1.349  11.039   0.756  0.0844  0.0432 -0.2087
78178SOL    HW152144   1.362  10.966   0.695  0.3462 -0.2833  0.2404
78178SOL    HW252145   1.272  11.013   0.808 -0.6592  0.6947 -0.9453
78179SOL     OW52146   9.887   5.245   2.223  0.0820 -0.5991 -0.6023
78179SOL    HW152147   9.876   5.288   2.138 -1.3225  1.4703  0.5654
78179SOL    HW252148   9.981   5.231   2.230  0.2424 -0.7514 -2.4482
78180SOL     OW52149   3.686   9.594   8.154  0.1223  0.0602 -0.1283
78180SOL    HW152150   3.723   9.645   8.082 -1.1208  0.6862 -0.3581
78180SOL    HW252151   3.710   9.504   8.135  0.6113  0.3258 -0.8140
78181SOL     OW52152  11.883   7.557   1.487 -0.8033 -0.3263  0.1193
78181SOL    HW152153  11.835   7.552   1.405 -0.3046 -0.1197 -0.1881
78181SOL    HW252154  11.975   7.566   1.461 -0.8335  2.3849  0.6230
78182SOL     OW52155   7.542  12.768   1.472 -0.2355  0.6204 -0.3125
78182SOL    HW152156   7.575  12.802   1.555  0.3418  1.8065 -0.9950
78182SOL    HW252157   7.562  12.674   1.475 -2.2760  0.1767  1.8202
78183SOL     OW52158   9.909   6.762  12.287  0.0567 -0.0958 -0.6320
78183SOL    HW152159   9.952   6.747  12.371 -0.2277  3.0367  0.1880
78183SOL    HW252160   9.816   6.763  12.307  0.0393  2.2371 -0.6078
78184SOL     OW52161   5.627  11.508   7.439 -0.8257 -0.0751  0.7191
78184SOL    HW152162   5.584  11.585   7.403 -1.1990  0.5017  2.2825
78184SOL    HW252163   5.554  11.450   7.463 -0.5277 -1.6306 -1.7851
78185SOL     OW52164  13.009   5.876  12.583 -0.3895  0.8108  0.2130
78185SOL    HW152165  13.094   5.842  12.609 -0.3033  0.9202  0.0765
78185SOL    HW252166  13.007   5.966  12.616 -1.2486  0.1919  1.9731
78186SOL     OW52167   9.128   8.258   2.069  0.1234 -0.0664 -0.2126
78186SOL    HW152168   9.038   8.261   2.037 -0.4190 -0.2998  1.2241
78186SOL    HW252169   9.180   8.238   1.991 -1.0902 -0.2407 -1.0137
78187SOL     OW52170  12.556   3.689   2.436  0.0289  0.3081  0.0356
78187SOL    HW152171  12.569   3.702   2.342  0.8997  0.8472  0.2223
78187SOL    HW252172  12.622   3.625   2.461 -0.7348 -0.4579  0.1413
78188SOL     OW52173  10.915   8.402   4.808  0.5732 -0.3547 -0.5355
78188SOL    HW152174  10.970   8.471   4.846  0.5401 -1.1669  1.0654
78188SOL    HW252175  10.977   8.338   4.774  0.6267 -0.6105  0.0313
78189SOL     OW52176   2.018   2.679  11.999  0.8276  0.3223 -0.2896
78189SOL    HW152177   1.928   2.693  11.968  1.0510  0.2339 -1.0005
78189SOL    HW252178   2.008   2.654  12.091  0.0310 -0.9059 -0.6847
78190SOL     OW52179   9.431  12.386  12.109 -0.2331  0.7245 -0.2073
78190SOL    HW152180   9.454  12.415  12.198 -1.1354  0.4325  0.1313
78190SOL    HW252181   9.451  12.292  12.109  1.7552  1.0857 -0.9939
78191SOL     OW52182   4.141  11.275  10.400  0.1199 -0.0460  0.1323
78191SOL    HW152183   4.149  11.363  10.365  1.2191 -0.2858 -0.2779
78191SOL    HW252184   4.177  11.218  10.332  1.2937 -0.6250  1.1784
78192SOL     OW52185   2.819   7.782   0.955 -0.6710 -0.2137  0.4480
78192SOL    HW152186   2.896   7.815   0.909 -0.4633 -0.2986  0.7285
78192SOL    HW252187   2.763   7.747   0.887 -0.1678 -0.7500  0.3043
78193SOL     OW52188  12.690  13.172   1.024 -0.0111  0.1973 -0.1575
78193SOL    HW152189  12.708  13.112   1.097 -0.8591  0.2718  0.1208
78193SOL    HW252190  12.595  13.179   1.022  0.0642  1.2686 -0.4175
78194SOL     OW52191   5.657   6.450   3.400  0.0050 -0.4263 -0.1529
78194SOL    HW152192   5.725   6.479   3.340  0.6895  0.1510  0.8765
78194SOL    HW252193   5.580   6.437   3.344  0.6343  0.0199 -1.1573
78195SOL     OW52194   0.211  12.048   9.571  0.7589 -0.3252 -0.1515
78195SOL    HW152195   0.255  11.964   9.558 -0.0543 -0.6186 -1.1479
78195SOL    HW252196   0.141  12.029   9.634  0.7422 -0.3310 -0.1715
78196SOL     OW52197  12.618  10.643   5.273  0.2324 -0.4013 -0.0278
78196SOL    HW152198  12.696  10.591   5.294  0.7955  1.0943  1.9003
78196SOL    HW252199  12.652  10.721   5.229 -0.2285 -0.0549  0.2144
78197SOL     OW52200  12.079   6.957   5.423  0.3042  0.2906 -0.2569
78197SOL    HW152201  12.066   6.998   5.508 -0.9695 -2.6722  1.1206
78197SOL    HW252202  12.045   7.020   5.360  0.2895  2.1230  1.5020
78198SOL     OW52203   3.864   6.344  10.620  0.0538 -0.1568  0.0000
78198SOL    HW152204   3.943   6.328  10.671 -0.1595  0.7008  0.6194
78198SOL    HW252205   3.891   6.404  10.550 -0.3228  1.2988  1.0619
78199SOL     OW52206  10.452   7.384   5.097  0.2049  0.0644 -0.0543
78199SOL    HW152207  10.526   7.442   5.113  1.1077 -0.6389 -1.5294
78199SOL    HW252208  10.464   7.352   5.008 -2.4288  0.6897 -0.7329
78200SOL     OW52209   2.340   2.658   3.056  0.1354 -0.0903 -0.0596
78200SOL    HW152210   2.355   2.731   3.116 -1.6744 -0.1059  0.4761
78200SOL    HW252211   2.416   2.658   2.998  0.1672  2.2469 -0.0904
78201SOL     OW52212   6.630   1.139  11.656  0.2987 -0.4545 -0.0908
78201SOL    HW152213   6.697   1.130  11.588  0.6492 -2.9003  0.4593
78201SOL    HW252214   6.580   1.057  11.651 -1.2636  0.3795  0.9732
78202SOL     OW52215  10.197   0.488  12.128  0.2869 -0.3758  0.3718
78202SOL    HW152216  10.215   0.420  12.062 -0.2899 -0.7326  0.5784
78202SOL    HW252217  10.195   0.441  12.211 -1.8503 -0.4117  0.3360
78203SOL     OW52218  10.226   5.621   3.744  0.9584 -0.4865 -0.0956
78203SOL    HW152219  10.138   5.655   3.726  0.6951 -0.9919  0.2424
78203SOL    HW252220  10.262   5.601   3.657  0.4127 -1.0950 -0.1893
78204SOL     OW52221   3.561  12.921   2.200  0.6691  0.2657  0.1525
78204SOL    HW152222   3.635  12.884   2.153  0.7278  1.5250 -0.7939
78204SOL    HW252223   3.573  12.892   2.291  1.4444 -0.8400 -0.2877
78205SOL     OW52224   0.477   2.142  10.345 -0.4870  0.4193 -0.0515
78205SOL    HW152225   0.475   2.065  10.402  2.3027  0.1616 -0.1381
78205SOL    HW252226   0.427   2.116  10.267  1.5152 -1.9341 -0.6988
78206SOL     OW52227   2.014   7.315   7.825  0.4705 -0.3413 -0.3636
78206SOL    HW152228   1.977   7.394   7.787 -1.8283 -0.4459  1.4552
78206SOL    HW252229   2.007   7.249   7.756  0.0328  0.4120 -1.0510
78207SOL     OW52230   4.116  12.281   8.736 -0.0976  0.1336 -0.0046
78207SOL    HW152231   4.162  12.325   8.808  0.7253  1.9871 -1.5729
78207SOL    HW252232   4.049  12.344   8.708  0.1602 -0.1884 -1.4040
78208SOL     OW52233   2.465   6.945   5.642 -0.0319 -0.3921  0.0729
78208SOL    HW152234   2.430   7.022   5.687  1.5477  0.4572 -0.0621
78208SOL    HW252235   2.551   6.973   5.610 -0.2759 -1.5887 -1.7879
78209SOL     OW52236   5.282   2.834  10.830  0.6950 -0.5967 -0.2718
78209SOL    HW152237   5.312   2.777  10.759  0.2748 -1.4338  0.2160
78209SOL    HW252238   5.358   2.843  10.887  1.0247  0.0514 -0.7862
78210SOL     OW52239   2.198   7.696   9.457  0.1639  0.2913  0.5222
78210SOL    HW152240   2.169   7.661   9.373 -0.0423  0.1774  0.6379
78210SOL    HW252241   2.150   7.778   9.466  0.9028  0.7821  0.0941
78211SOL     OW52242   1.728  10.165   2.611  0.4435 -0.1348  0.3545
78211SOL    HW152243   1.695  10.220   2.682 -1.7295 -1.4865  0.4737
78211SOL    HW252244   1.699  10.077   2.633  1.4941 -0.9197 -1.1985
78212SOL     OW52245   3.111   3.048  12.469  1.0560 -0.1839  0.4466
78212SOL    HW152246   3.165   3.006  12.536  1.6131  0.6992  0.5730
78212SOL    HW252247   3.066   3.119  12.515  1.0404  0.0983  0.0082
78213SOL     OW52248   2.307   2.976   7.211  0.5505 -0.3168 -0.0011
78213SOL    HW152249   2.288   3.068   7.227  0.1356 -0.0734 -1.6929
78213SOL    HW252250   2.398   2.965   7.240  0.4417  0.4930  0.6898
78214SOL     OW52251   1.939  12.665   8.446 -0.4582 -0.2508  0.0569
78214SOL    HW152252   1.874  12.644   8.379 -2.1039 -1.0168  1.8002
78214SOL    HW252253   1.958  12.581   8.488  3.2871 -0.4675 -1.6594
78215SOL     OW52254  10.135   3.783  10.915 -0.6160  0.1756 -1.0334
78215SOL    HW152255  10.115   3.756  11.005 -0.6723 -0.4961 -1.2432
78215SOL    HW252256  10.096   3.870  10.907  0.2149  0.6709 -0.1020
78216SOL     OW52257   2.582   4.694   2.456 -0.2218 -0.7427 -0.2732
78216SOL    HW152258   2.509   4.706   2.395 -1.2948 -0.2106  1.0669
78216SOL    HW252259   2.625   4.780   2.459  0.5368 -1.0757 -1.1196
78217SOL     OW52260   5.533   3.263   3.180  0.2054 -0.5193 -0.3601
78217SOL    HW152261   5.499   3.186   3.226  0.0320 -1.2168 -1.6095
78217SOL    HW252262   5.567   3.319   3.249 -1.6222 -0.7332  0.7794
78218SOL     OW52263   1.249   5.494   7.512 -0.1268 -0.2466 -0.0631
78218SOL    HW152264   1.229   5.486   7.605  1.6459  2.1712  0.6308
78218SOL    HW252265   1.216   5.580   7.487  1.2338  0.0182 -1.1126
78219SOL     OW52266   1.981   9.229  10.322 -0.2260  0.2525 -0.0144
78219SOL    HW152267   2.018   9.146  10.293 -0.3960  0.5682 -1.1827
78219SOL    HW252268   2.057   9.286  10.335 -0.2016  0.4234 -0.8743
78220SOL     OW52269   9.388   1.865  12.371  0.0416  0.1520 -0.0015
78220SOL    HW152270   9.340   1.869  12.453  0.8854  0.8943  0.4810
78220SOL    HW252271   9.473   1.905  12.391 -0.1372  1.3813 -1.5151
78221SOL     OW52272   5.695   0.526   7.467  0.3397  0.5533 -0.3020
78221SOL    HW152273   5.692   0.496   7.558 -1.5876 -0.7179 -0.7127
78221SOL    HW252274   5.613   0.573   7.455  0.7910  1.1212 -1.2616
78222SOL     OW52275   5.387   5.577   2.960  0.3579  0.4254  0.0924
78222SOL    HW152276   5.426   5.501   3.005  1.4977 -0.1706 -1.7762
78222SOL    HW252277   5.316   5.605   3.018  0.0995 -1.8657  1.0103
78223SOL     OW52278   0.856  12.729  11.868  0.0021  0.5405 -0.2244
78223SOL    HW152279   0.842  12.767  11.955 -0.9503  0.7969 -0.4750
78223SOL    HW252280   0.818  12.792  11.807 -0.5276 -0.2442 -0.7296
78224SOL     OW52281  11.272   2.915   5.947  0.3022  0.4206  0.2539
78224SOL    HW152282  11.345   2.863   5.914  1.4555  0.7834  2.0875
78224SOL    HW252283  11.208   2.850   5.977  0.2999  0.0987 -0.4322
78225SOL     OW52284  12.439  11.548  10.539 -0.1890  0.0585 -0.9810
78225SOL    HW152285  12.357  11.523  10.582  0.7365 -0.9946  0.2646
78225SOL    HW252286  12.433  11.506  10.453 -1.5862  1.2608 -1.5131
78226SOL     OW52287   1.000   2.433  12.567 -0.1624 -0.1633 -0.1052
78226SOL    HW152288   1.069   2.367  12.579  0.1680 -0.0509 -1.2404
78226SOL    HW252289   0.939   2.418  12.639 -1.1084 -2.9698 -1.3582
78227SOL     OW52290  11.449   9.350   1.868  0.3594 -0.0185 -0.3085
78227SOL    HW152291  11.357   9.325   1.862  0.7015 -1.2163 -0.7353
78227SOL    HW252292  11.493   9.273   1.904  0.8764  1.3110  2.1603
78228SOL     OW52293   1.055  10.723   3.853  0.0385 -0.1810 -0.3258
78228SOL    HW152294   1.066  10.808   3.896  0.2482  0.3868 -1.4633
78228SOL    HW252295   1.133  10.673   3.877 -0.2213 -0.1640  0.5824
78229SOL     OW52296  11.721   0.537   8.089 -0.0407 -0.2502 -0.0998
78229SOL    HW152297  11.758   0.619   8.055  0.4328  0.1894  1.3714
78229SOL    HW252298  11.785   0.470   8.065  1.0888  0.2954  1.2332
78230SOL     OW52299   5.149   6.571  11.085 -0.8128 -0.6183 -0.1702
78230SOL    HW152300   5.130   6.633  11.015 -0.7690 -0.3823  0.0237
78230SOL    HW252301   5.240   6.589  11.109 -1.0989 -0.0708  0.5600
78231SOL     OW52302   1.926   8.225  11.410  0.1068 -0.2798 -0.2805
78231SOL    HW152303   1.842   8.200  11.372 -0.7369  1.5616  0.2985
78231SOL    HW252304   1.943   8.159  11.477 -1.5834  0.1008  0.5635
78232SOL     OW52305  10.821   8.591  10.764  0.4253 -0.0982 -0.5850
78232SOL    HW152306  10.726   8.590  10.762  0.4260  0.0312 -0.7173
78232SOL    HW252307  10.847   8.556  10.679  0.4904  0.6764 -0.8913
78233SOL     OW52308   6.815   7.480   3.293  0.7841  0.0353 -0.1280
78233SOL    HW152309   6.877   7.512   3.227  0.8232 -0.2213 -0.2179
78233SOL    HW252310   6.853   7.505   3.377  0.4626  0.8520 -0.2159
78234SOL     OW52311   3.802   6.080  13.736 -0.0093 -0.8999 -0.0628
78234SOL    HW152312   3.802   6.065  13.831  0.2762  1.4721  0.3642
78234SOL    HW252313   3.874   6.141  13.722 -0.8229 -0.2583 -1.6474
78235SOL     OW52314  10.476   5.856   0.598  0.0602 -0.0363 -0.0129
78235SOL    HW152315  10.560   5.900   0.583 -0.0056 -0.3661 -1.5561
78235SOL    HW252316  10.499   5.769   0.630  0.3893 -0.6353 -1.7904
78236SOL     OW52317   2.383   7.689   4.684  0.6804  0.0874  0.0892
78236SOL    HW152318   2.384   7.756   4.616  0.5818  1.8809  1.7528
78236SOL    HW252319   2.475   7.663   4.694  0.8651  0.7385  0.1182
78237SOL     OW52320   4.827   0.842   0.813  0.6760 -0.2467 -0.5450
78237SOL    HW152321   4.753   0.785   0.790  1.0732 -0.5026 -1.2343
78237SOL    HW252322   4.894   0.782   0.845  0.7575 -0.0627 -0.3692
78238SOL     OW52323   3.722   8.047  12.282 -0.2865 -0.2439  0.2144
78238SOL    HW152324   3.800   8.090  12.316  1.0206 -2.1110 -0.2804
78238SOL    HW252325   3.651   8.080  12.337  1.3141 -1.0265  2.9832
78239SOL     OW52326   4.699  12.465   4.273 -0.3238 -0.1933  0.6306
78239SOL    HW152327   4.788  12.430   4.265 -0.3129 -0.4816  1.8258
78239SOL    HW252328   4.711  12.560   4.267 -0.1524 -0.2841 -0.8799
78240SOL     OW52329   8.247   0.131   1.356  0.4434 -0.3022 -0.3995
78240SOL    HW152330   8.221   0.099   1.269 -0.3085  1.3467 -0.8266
78240SOL    HW252331   8.231   0.057   1.415 -2.6472 -0.3297 -1.0972
78241SOL     OW52332  13.953   0.901   3.597  0.1152 -0.1340  0.0491
78241SOL    HW152333  14.005   0.966   3.644 -1.7396  0.1901  1.7949
78241SOL    HW252334  14.000   0.888   3.514  1.2390  2.4471  0.1867
78242SOL     OW52335   3.796  12.895   8.524  0.5227  0.3751 -0.0194
78242SOL    HW152336   3.733  12.833   8.486 -0.7763  1.8918 -0.4789
78242SOL    HW252337   3.866  12.901   8.459 -1.0559  1.9774 -1.7177
78243SOL     OW52338   4.551   9.738   0.066 -0.3208  0.0204 -0.5216
78243SOL    HW152339   4.593   9.775   0.144  0.5207 -0.7571 -0.5905
78243SOL    HW252340   4.479   9.798   0.047  1.0112  1.6618 -0.6480
78244SOL     OW52341   0.029   6.656  13.222  0.2227 -0.7675 -0.1245
78244SOL    HW152342   0.042   6.578  13.167  0.4857 -0.3176 -0.7181
78244SOL    HW252343  -0.041   6.704  13.177 -0.0442 -0.7363  0.3240
78245SOL     OW52344   6.717   1.444   2.587  0.4115 -0.2589 -0.2559
78245SOL    HW152345   6.625   1.458   2.610  0.8374  0.3880  1.1616
78245SOL    HW252346   6.731   1.500   2.510  0.1724  1.4132  0.8727
78246SOL     OW52347   4.423  13.705  11.157  0.1400  0.3485 -0.4660
78246SOL    HW152348   4.389  13.708  11.246 -0.9294  1.7297 -0.8823
78246SOL    HW252349   4.481  13.629  11.155 -0.5552 -0.2450  1.1297
78247SOL     OW52350   1.938   6.655  12.996  0.6184 -0.9081  0.4153
78247SOL    HW152351   1.946   6.669  12.902  1.1394 -0.9598  0.4480
78247SOL    HW252352   2.010   6.595  13.017  1.5536  0.3990  1.1180
78248SOL     OW52353   6.278   0.290   8.607  0.2601  0.2533 -0.7389
78248SOL    HW152354   6.355   0.341   8.631 -0.4750  0.7135  0.7654
78248SOL    HW252355   6.313   0.215   8.559  1.4370  1.6116 -2.0739
78249SOL     OW52356   5.603   7.705   9.199 -0.1224 -0.8855  0.1072
78249SOL    HW152357   5.585   7.754   9.119  0.1063 -1.1157 -0.0868
78249SOL    HW252358   5.543   7.742   9.264 -0.8962 -1.2536 -0.3836
78250SOL     OW52359   3.622   3.939   4.814  0.1017 -0.3183  0.5455
78250SOL    HW152360   3.635   3.993   4.736 -1.8795 -0.7955 -0.1855
78250SOL    HW252361   3.660   3.854   4.791  0.8813 -0.0092  0.6898
78251SOL     OW52362   4.843   2.708   1.064  0.2971  0.3952  0.4042
78251SOL    HW152363   4.910   2.776   1.066  0.8411 -0.1333  0.6486
78251SOL    HW252364   4.887   2.631   1.101 -1.1948  0.6959  3.0099
78252SOL     OW52365   5.691  12.773  14.073 -0.1405  0.3933  0.2982
78252SOL    HW152366   5.772  12.723  14.083 -1.0232 -1.4376 -1.0447
78252SOL    HW252367   5.673  12.771  13.979 -2.0022  0.2677  0.6162
78253SOL     OW52368   5.121   7.549  13.561 -0.5624 -0.2066  0.2196
78253SOL    HW152369   5.181   7.584  13.627  1.1182 -1.6076 -0.5041
78253SOL    HW252370   5.138   7.601  13.482  1.7838 -2.3431 -0.7939
78254SOL     OW52371  11.905  12.871   7.750  0.1254  0.3499  0.1901
78254SOL    HW152372  11.890  12.787   7.705 -0.3934 -0.3172  1.5470
78254SOL    HW252373  11.991  12.861   7.791 -0.4747 -0.0631  1.4240
78255SOL     OW52374   9.540  13.169   0.141 -0.0141 -0.5059  0.1214
78255SOL    HW152375   9.612  13.127   0.189  0.3976  1.9909  1.8712
78255SOL    HW252376   9.577  13.189   0.055 -0.5104 -4.3320 -1.1909
78256SOL     OW52377   4.022   9.217   4.820 -0.2429 -0.0516  0.1378
78256SOL    HW152378   3.972   9.248   4.745 -0.1887 -0.1359  0.0669
78256SOL    HW252379   4.112   9.209   4.787 -0.7167 -3.0834 -0.6773
78257SOL     OW52380   5.144  13.763   1.637  0.1232  0.6500  0.2301
78257SOL    HW152381   5.207  13.693   1.654 -0.3746  0.3447  0.8407
78257SOL    HW252382   5.189  13.821   1.576  0.0419 -0.9083 -1.4077
78258SOL     OW52383   4.165  13.087   2.771  0.6231  0.2465  0.3707
78258SOL    HW152384   4.185  13.085   2.864  0.1567  1.1559  0.4962
78258SOL    HW252385   4.082  13.134   2.765  0.2344 -0.4945 -0.4345
78259SOL     OW52386   2.873  12.829   3.402 -0.2425 -1.0197  0.4405
78259SOL    HW152387   2.927  12.874   3.337 -0.9376 -0.6495  0.1100
78259SOL    HW252388   2.784  12.833   3.367 -0.9009  0.5546  2.1291
78260SOL     OW52389   1.569  12.646   2.213  0.0995 -0.4513  0.2175
78260SOL    HW152390   1.658  12.630   2.245 -0.1534 -1.6178  0.3720
78260SOL    HW252391   1.523  12.686   2.287  0.2852 -0.5467  0.3840
78261SOL     OW52392  11.393  11.514   0.773  0.5539 -0.0893  0.1715
78261SOL    HW152393  11.449  11.533   0.697  1.2469  0.3567  0.7838
78261SOL    HW252394  11.451  11.521   0.848  0.1870 -1.8925  0.6621
78262SOL     OW52395  12.457   1.961   3.389  0.2890 -0.8212 -0.1466
78262SOL    HW152396  12.489   1.923   3.307 -0.1089 -1.1598 -0.1475
78262SOL    HW252397  12.491   2.051   3.388  1.4063 -1.2245 -0.0477
78263SOL     OW52398  13.200  13.696   9.558  0.3723  0.4835  0.2333
78263SOL    HW152399  13.107  13.672   9.566  0.2347  0.0258 -2.1583
78263SOL    HW252400  13.245  13.638   9.620 -0.5641 -2.1033 -1.3408
78264SOL     OW52401  10.488   0.035  10.545 -0.2959 -0.0155 -0.3676
78264SOL    HW152402  10.534   0.095  10.487  0.2163 -0.6697 -0.6454
78264SOL    HW252403  10.451  -0.031  10.487 -1.6288  0.5169 -0.1517
78265SOL     OW52404   5.034   3.528   9.709 -0.3169 -0.3333  0.0376
78265SOL    HW152405   5.047   3.613   9.665 -1.7366 -0.7088 -1.2015
78265SOL    HW252406   5.035   3.550   9.803  2.6621  0.5132 -0.1013
78266SOL     OW52407   4.899   4.739   3.109  0.2468 -0.2378 -0.0034
78266SOL    HW152408   4.959   4.717   3.038  0.8266  0.0745  0.3860
78266SOL    HW252409   4.877   4.831   3.094 -0.5902 -0.4973 -0.4680
78267SOL     OW52410   0.713   4.777  13.845 -0.1560 -0.4069 -0.0510
78267SOL    HW152411   0.680   4.844  13.784 -0.3401 -0.8614 -0.4599
78267SOL    HW252412   0.780   4.822  13.896 -0.0206 -0.0027 -0.5728
78268SOL     OW52413   5.546   9.848  10.087 -0.0347  0.2043 -0.1555
78268SOL    HW152414   5.563   9.794  10.163  1.5040  1.6413  0.5819
78268SOL    HW252415   5.506   9.927  10.122 -2.4598 -0.4490 -1.2332
78269SOL     OW52416   4.577   0.852  10.677 -0.7279 -0.8168  0.2488
78269SOL    HW152417   4.568   0.800  10.757  1.1179 -1.7272 -0.0954
78269SOL    HW252418   4.671   0.854  10.659 -0.9807  0.4733 -1.1956
78270SOL     OW52419   7.968  10.047   7.699  0.0174  0.0087 -0.2365
78270SOL    HW152420   7.874  10.053   7.679 -0.0890 -0.6766  0.0231
78270SOL    HW252421   7.985   9.953   7.706  0.7585  0.1263 -0.4161
78271SOL     OW52422   8.003  12.892   6.396 -0.0350 -0.2476  0.5632
78271SOL    HW152423   7.973  12.820   6.342 -0.8508 -0.5222  1.3550
78271SOL    HW252424   8.080  12.858   6.442 -0.9169 -0.9397  1.5885
78272SOL     OW52425  10.908   1.224   0.816  0.1653  0.7114  0.2380
78272SOL    HW152426  10.850   1.297   0.835 -1.4461 -0.6452  0.7614
78272SOL    HW252427  10.911   1.173   0.897 -0.8198 -1.1461 -0.8292
78273SOL     OW52428   3.592   8.807   4.622  0.1779 -0.0900  0.5785
78273SOL    HW152429   3.553   8.758   4.550 -0.6743 -1.2496  1.7829
78273SOL    HW252430   3.677   8.766   4.636  0.0458 -0.3317  0.6836
78274SOL     OW52431   5.364  11.647   6.352  0.2542 -0.1544 -0.5564
78274SOL    HW152432   5.342  11.670   6.262  1.4814  1.0187 -0.5892
78274SOL    HW252433   5.398  11.728   6.390 -0.0047 -0.6911  0.8946
78275SOL     OW52434  12.782  12.412   4.165  0.4490 -0.3809 -0.4387
78275SOL    HW152435  12.786  12.477   4.096  0.0829 -0.5398 -0.6102
78275SOL    HW252436  12.858  12.355   4.149  2.3791  1.5318  1.2667
78276SOL     OW52437   2.349   3.919   2.284 -0.6779 -0.5975 -0.3217
78276SOL    HW152438   2.311   3.922   2.372  1.2332  2.1616  0.5547
78276SOL    HW252439   2.290   3.971   2.230 -0.3957  0.1123  0.0370
78277SOL     OW52440   3.550   3.063   2.894  0.3972 -0.4774  0.6340
78277SOL    HW152441   3.525   3.143   2.847  2.3081 -0.6241 -0.7938
78277SOL    HW252442   3.520   2.992   2.838  0.5019 -0.7121  0.8738
78278SOL     OW52443  12.643   6.027   3.731  0.4480  0.0350 -0.1368
78278SOL    HW152444  12.683   6.093   3.788  0.8446 -0.1036 -0.2509
78278SOL    HW252445  12.560   6.004   3.774  1.8737 -1.9521  1.7591
78279SOL     OW52446  11.723   2.447   6.400  0.0516 -0.1875  0.1556
78279SOL    HW152447  11.801   2.424   6.451  0.1362 -1.4966 -0.5071
78279SOL    HW252448  11.713   2.541   6.412  1.4503 -0.0775  0.6470
78280SOL     OW52449   2.777   3.134  13.923 -0.4618  0.1865 -0.5543
78280SOL    HW152450   2.783   3.097  14.011 -2.5033  1.8797  0.3841
78280SOL    HW252451   2.684   3.134  13.903 -0.0681  0.2139 -2.5696
78281SOL     OW52452  12.518  11.009  12.935 -0.2954  0.8188 -0.2548
78281SOL    HW152453  12.576  11.085  12.935  0.0360  0.5658 -0.3332
78281SOL    HW252454  12.551  10.953  12.865 -0.1354  0.2928  0.2351
78282SOL     OW52455   8.564   8.494   5.865  0.7205  0.1928 -0.1246
78282SOL    HW152456   8.549   8.479   5.958  4.4385 -2.0007  0.2960
78282SOL    HW252457   8.595   8.410   5.831 -2.6733  0.2033 -4.0160
78283SOL     OW52458   3.758   6.127  10.523  0.6167 -0.0337  0.0098
78283SOL    HW152459   3.782   6.208  10.568  1.9908 -0.3529 -0.0984
78283SOL    HW252460   3.699   6.154  10.453 -0.7913  0.5853  1.3745
78284SOL     OW52461   7.085   9.106   2.303 -0.6089 -0.0042 -0.4916
78284SOL    HW152462   7.066   9.161   2.380  0.4690  0.0425 -0.2437
78284SOL    HW252463   7.178   9.087   2.310 -0.5729 -0.2924 -1.6137
78285SOL     OW52464   4.867   1.075  12.802 -0.2412 -0.0923  0.4659
78285SOL    HW152465   4.886   0.992  12.846 -1.5807 -1.3520 -1.1690
78285SOL    HW252466   4.787   1.058  12.753  0.2589  1.7202 -1.1118
78286SOL     OW52467  11.733   9.893  11.714 -0.2150  0.2546 -0.2256
78286SOL    HW152468  11.773   9.976  11.736  0.1508 -0.2014  0.8978
78286SOL    HW252469  11.796   9.850  11.656 -0.1696  0.5406 -0.3871
78287SOL     OW52470   7.317  10.222  13.387  0.7061 -0.4687 -0.9124
78287SOL    HW152471   7.356  10.162  13.323  1.5848  1.5005 -2.3252
78287SOL    HW252472   7.288  10.297  13.334  0.3568  0.7110  0.8703
78288SOL     OW52473   4.907   2.961   0.179 -0.3695  0.1284  0.3561
78288SOL    HW152474   4.951   2.999   0.255  2.0057 -0.2144 -0.7858
78288SOL    HW252475   4.870   2.879   0.212  0.9364 -0.1875  1.0981
78289SOL     OW52476   0.826   0.922  10.438  0.2699 -0.7468  0.2596
78289SOL    HW152477   0.852   0.896  10.526  0.4655  0.4872  0.5893
78289SOL    HW252478   0.792   1.011  10.449  0.5274 -0.4855 -0.9483
78290SOL     OW52479   9.511  13.154   7.129  0.3744  0.2348 -0.3943
78290SOL    HW152480   9.480  13.084   7.072 -0.7077  0.0282  0.4052
78290SOL    HW252481   9.535  13.110   7.211  2.2310  0.4815 -0.7710
78291SOL     OW52482   0.319  10.501   3.262  0.2118  0.3282  0.7297
78291SOL    HW152483   0.358  10.472   3.344  2.7357 -0.0041 -0.4787
78291SOL    HW252484   0.319  10.423   3.206  0.6730  1.0590 -0.3280
78292SOL     OW52485   3.953   3.063   3.771 -0.3491 -0.3914 -0.0391
78292SOL    HW152486   4.047   3.068   3.753 -0.4288  1.2573 -0.0892
78292SOL    HW252487   3.947   3.010   3.851  0.7691  0.8531  0.9168
78293SOL     OW52488   9.258   4.425   4.222 -0.3205 -0.0416 -0.3085
78293SOL    HW152489   9.220   4.494   4.276 -1.2048  0.6351 -1.7454
78293SOL    HW252490   9.262   4.462   4.134  0.6356 -1.2847 -0.8257
78294SOL     OW52491   7.040   6.554  13.704  0.0884  0.2396 -0.1457
78294SOL    HW152492   6.973   6.606  13.658 -0.0817  0.6576  0.5544
78294SOL    HW252493   7.018   6.564  13.797  1.2502  0.5793  0.1147
78295SOL     OW52494   4.379   8.514   2.249 -1.0317 -0.6155  0.1848
78295SOL    HW152495   4.436   8.493   2.322 -1.3004  2.2544  1.3719
78295SOL    HW252496   4.433   8.569   2.191 -1.5616 -0.7700 -0.4759
78296SOL     OW52497   0.401   7.600   4.512  0.7120 -0.3919 -0.1433
78296SOL    HW152498   0.389   7.511   4.478  0.2719  0.3980 -2.1437
78296SOL    HW252499   0.352   7.600   4.594  0.8254 -2.0237 -0.0277
78297SOL     OW52500   3.487   7.066   1.691  0.2130  0.3312  0.4268
78297SOL    HW152501   3.566   7.053   1.638  0.9338  0.0580  1.5353
78297SOL    HW252502   3.415   7.043   1.633  0.9928 -0.1105 -0.3820
78298SOL     OW52503   1.897   4.965   2.781  0.0085  0.0144 -0.6512
78298SOL    HW152504   1.863   5.015   2.707  3.0813  1.5008 -1.2337
78298SOL    HW252505   1.976   4.923   2.748  1.0902  0.1280  1.5714
78299SOL     OW52506   4.836   7.021   6.842 -0.2143  0.1074  0.6112
78299SOL    HW152507   4.869   6.936   6.812 -1.3454 -0.0988 -0.0999
78299SOL    HW252508   4.745   7.005   6.865  0.2569  0.5694  2.9936
78300SOL     OW52509   5.882   4.187   4.166 -0.0836 -0.6718  0.5848
78300SOL    HW152510   5.858   4.260   4.108 -0.7673 -1.9661 -0.8316
78300SOL    HW252511   5.977   4.181   4.160 -0.2260 -1.9887 -2.0569
78301SOL     OW52512  13.866   1.859  11.033 -0.1570  0.1354 -0.8075
78301SOL    HW152513  13.834   1.769  11.033  0.1838  0.0039 -0.0491
78301SOL    HW252514  13.875   1.881  11.126 -0.6299  1.0962 -0.9807
78302SOL     OW52515  13.593   4.097  11.147  0.2459  0.9071 -0.5612
78302SOL    HW152516  13.660   4.029  11.148 -1.3652 -0.7621 -0.4394
78302SOL    HW252517  13.577   4.114  11.054  0.7498  1.2447 -0.5906
78303SOL     OW52518  13.090  13.766   1.395 -0.5278 -0.2302  0.0282
78303SOL    HW152519  13.051  13.778   1.308 -2.1473 -0.5283  0.6828
78303SOL    HW252520  13.020  13.786   1.456  0.1176 -1.5791  1.2721
78304SOL     OW52521   0.659   4.667   5.371  0.0945  0.5920  0.9974
78304SOL    HW152522   0.564   4.672   5.376  0.1950  4.0472  2.0061
78304SOL    HW252523   0.686   4.753   5.340  2.8712 -0.7962 -0.7897
78305SOL     OW52524   4.707   8.414   2.252 -0.0025 -0.6561  0.3221
78305SOL    HW152525   4.683   8.500   2.217 -2.3107 -0.5780  1.8106
78305SOL    HW252526   4.699   8.425   2.347  0.9923 -2.1720  0.6118
78306SOL     OW52527   5.430   3.389  11.155 -0.6332  0.1536 -1.1591
78306SOL    HW152528   5.490   3.429  11.219 -1.3040 -0.9125  0.1890
78306SOL    HW252529   5.488   3.346  11.092  0.0413 -0.6762 -0.0027
78307SOL     OW52530   5.085  11.684   7.409  0.5441  0.0415 -0.0460
78307SOL    HW152531   5.131  11.642   7.482  1.5034  0.3684 -0.4357
78307SOL    HW252532   5.149  11.683   7.338 -0.1917  0.2053 -0.7165
78308SOL     OW52533   6.373   6.718   1.139 -0.4066 -0.0574  0.8975
78308SOL    HW152534   6.405   6.808   1.134 -1.6644  0.3947  0.7501
78308SOL    HW252535   6.450   6.664   1.118  0.0233  1.0241 -0.4759
78309SOL     OW52536   3.299   1.986   5.835 -0.1573  0.3014  0.1506
78309SOL    HW152537   3.275   1.896   5.854  0.1294  0.5520  1.8924
78309SOL    HW252538   3.217   2.035   5.840 -0.0675  0.3822  0.9096
78310SOL     OW52539   6.661   5.012  13.028  0.0572  0.0100  0.6401
78310SOL    HW152540   6.646   5.044  12.939  0.6032  1.9612  1.1893
78310SOL    HW252541   6.617   4.927  13.031 -0.5458  0.2057 -1.2748
78311SOL     OW52542  13.976   5.399  12.808  0.3391 -0.0749 -0.4976
78311SOL    HW152543  13.949   5.466  12.871  2.6334  0.9230 -0.4468
78311SOL    HW252544  13.902   5.339  12.802 -1.1186  1.5113  0.7992
78312SOL     OW52545  11.904   1.948   2.574  0.2102  0.0180 -0.4656
78312SOL    HW152546  11.846   2.000   2.518 -1.5063 -0.8605  0.4158
78312SOL    HW252547  11.926   1.871   2.522 -2.9071 -1.7449  0.5708
78313SOL     OW52548  12.877   9.021   9.037  0.5098  0.2457  0.1998
78313SOL    HW152549  12.824   9.002   9.114  0.5027  1.0469  0.4046
78313SOL    HW252550  12.940   9.087   9.067  1.0275 -0.0240 -0.2753
78314SOL     OW52551  13.034  11.403   7.556  0.3558  0.7459 -0.2530
78314SOL    HW152552  12.943  11.431   7.546 -0.1023 -0.9279 -1.1269
78314SOL    HW252553  13.042  11.378   7.648 -0.0293  0.9715 -0.1541
78315SOL     OW52554   4.942   1.791  11.849 -0.1585 -0.1004 -0.1988
78315SOL    HW152555   5.018   1.733  11.845  1.2382  1.7155 -2.5711
78315SOL    HW252556   4.958   1.845  11.927  1.0361  0.2735 -0.6794
78316SOL     OW52557  10.299  13.734  12.246 -0.2478 -0.1128  0.0461
78316SOL    HW152558  10.385  13.698  12.222 -0.8129 -0.8217 -0.9812
78316SOL    HW252559  10.248  13.658  12.273 -0.9569  0.1090 -0.6176
78317SOL     OW52560   4.646   8.909  10.403 -0.0999 -0.4227 -0.0942
78317SOL    HW152561   4.691   8.991  10.382  1.3131 -0.9934  0.5539
78317SOL    HW252562   4.678   8.847  10.337  0.0958 -0.8360  0.3798
78318SOL     OW52563   1.049   1.746   4.591  0.2914  0.2972  0.0599
78318SOL    HW152564   0.981   1.807   4.621 -0.4716 -1.4920  2.2858
78318SOL    HW252565   1.084   1.786   4.512 -1.8750  2.3646  0.0274
78319SOL     OW52566  13.888  11.657   6.571 -0.5734 -0.8072 -0.9698
78319SOL    HW152567  13.977  11.625   6.589 -1.5558 -3.0890  0.1861
78319SOL    HW252568  13.886  11.670   6.477  1.0203 -0.5129 -1.0029
78320SOL     OW52569   1.017  11.979  11.344  0.0583  0.1912 -0.3933
78320SOL    HW152570   0.998  11.891  11.312  0.8332  0.0391 -0.4711
78320SOL    HW252571   1.100  11.970  11.390 -0.4615  0.6485  0.6550
78321SOL     OW52572  12.259   4.794  13.473 -0.6442 -0.5335  0.3157
78321SOL    HW152573  12.189   4.772  13.534 -0.4879  0.1769  0.7709
78321SOL    HW252574  12.217   4.797  13.387 -1.3837  0.7496  0.6866
78322SOL     OW52575  13.449  11.179   7.775 -0.7640 -0.4856  0.6772
78322SOL    HW152576  13.375  11.201   7.831 -0.1209  1.1145  0.9839
78322SOL    HW252577  13.414  11.117   7.712 -2.3936  0.2797  0.7623
78323SOL     OW52578  11.583   4.272   9.135  0.5754 -1.0367 -0.0749
78323SOL    HW152579  11.557   4.330   9.206 -0.2175 -2.5847  0.9550
78323SOL    HW252580  11.510   4.210   9.126  1.5121 -2.0716 -0.9120
78324SOL     OW52581   3.685  12.972   1.921 -0.0221 -0.4071  0.6811
78324SOL    HW152582   3.651  12.887   1.949  0.1383 -1.0647 -0.9924
78324SOL    HW252583   3.654  12.982   1.831  0.7618  0.8752  0.5271
78325SOL     OW52584  13.890   3.439   8.641 -0.0838 -0.3849  0.3744
78325SOL    HW152585  13.864   3.518   8.593  1.2340 -0.0450  0.1777
78325SOL    HW252586  13.935   3.385   8.577 -1.6422 -1.7007  0.3095
78326SOL     OW52587   2.700  13.605  12.365  0.0964  0.4703 -0.6458
78326SOL    HW152588   2.724  13.651  12.285  1.5641 -0.5623 -0.8346
78326SOL    HW252589   2.729  13.515  12.352 -1.2874 -0.1597  0.3411
78327SOL     OW52590   4.122  11.296   8.382 -0.1140 -0.8492  0.7242
78327SOL    HW152591   4.110  11.283   8.288  0.0371  2.1925  0.1989
78327SOL    HW252592   4.215  11.315   8.392 -0.3925  0.2902  1.2658
78328SOL     OW52593   9.489   6.363   7.923  0.2123  0.1945 -0.2641
78328SOL    HW152594   9.554   6.401   7.864 -0.5082  1.4464 -0.2923
78328SOL    HW252595   9.465   6.280   7.883  1.4617 -0.0786 -0.4845
78329SOL     OW52596   7.810  11.685  12.734 -0.2184  0.3265  0.2388
78329SOL    HW152597   7.793  11.716  12.645 -1.0228  2.3899  1.0688
78329SOL    HW252598   7.728  11.643  12.761  0.2957 -1.0481 -0.2510
78330SOL     OW52599  11.291  12.065   7.684 -0.1539  0.4343  0.1668
78330SOL    HW152600  11.266  12.087   7.594 -2.7217  0.9613  0.9191
78330SOL    HW252601  11.348  12.136   7.712  2.2304 -0.6699 -1.5867
78331SOL     OW52602   0.960  11.714   8.599  0.1316  0.7012 -0.7796
78331SOL    HW152603   0.922  11.630   8.625  0.0852  0.7778 -0.6015
78331SOL    HW252604   0.898  11.750   8.536  0.7936 -0.0059 -1.8767
78332SOL     OW52605  13.250   2.705   0.741  0.2375  0.1100  0.2327
78332SOL    HW152606  13.237   2.656   0.822 -1.6575  0.2296  0.0592
78332SOL    HW252607  13.276   2.792   0.770 -2.2479  0.7156  0.8731
78333SOL     OW52608  10.640   8.124  12.749  0.3518 -0.1846 -0.7602
78333SOL    HW152609  10.552   8.147  12.780 -0.4433 -1.8605 -1.6285
78333SOL    HW252610  10.632   8.123  12.654  0.7790 -2.1308 -0.8156
78334SOL     OW52611   4.203   9.632   0.183 -0.1924  0.2909  0.1992
78334SOL    HW152612   4.189   9.689   0.259 -0.0883 -0.6685  0.9578
78334SOL    HW252613   4.170   9.683   0.109 -0.9671  0.9644  0.9821
78335SOL     OW52614  12.924   3.403  13.521  0.1654 -0.0512 -0.2023
78335SOL    HW152615  12.959   3.449  13.445 -0.1609  0.9852  0.2467
78335SOL    HW252616  12.988   3.336  13.541  0.3822 -0.1693 -1.2287
78336SOL     OW52617  11.249   7.614   2.176  0.8858  0.1651  0.2932
78336SOL    HW152618  11.226   7.639   2.266  1.5951 -0.2536  0.6040
78336SOL    HW252619  11.168   7.579   2.140  0.6163  0.2361  0.8110
78337SOL     OW52620   8.742   9.294   1.768  0.5482  0.0129  0.1774
78337SOL    HW152621   8.739   9.272   1.675  0.2178  0.7366  0.0097
78337SOL    HW252622   8.829   9.332   1.781  0.5021  0.1439  0.1067
78338SOL     OW52623  13.190   9.277  13.342 -0.3902  0.4515  0.4068
78338SOL    HW152624  13.283   9.279  13.366  0.1303  1.2857 -1.4668
78338SOL    HW252625  13.190   9.274  13.247 -2.3141 -0.2449  0.3895
78339SOL     OW52626   9.623   5.547  11.136  0.0001 -0.5065 -0.5541
78339SOL    HW152627   9.678   5.473  11.162  1.1902  0.4427 -0.2257
78339SOL    HW252628   9.595   5.527  11.047 -1.1024 -2.1191  0.1116
78340SOL     OW52629  11.046   4.528   2.120 -0.7389  0.0291  0.1789
78340SOL    HW152630  11.032   4.493   2.032 -2.0479  1.4855 -0.2429
78340SOL    HW252631  11.135   4.501   2.143 -1.5900 -3.4374 -0.1086
78341SOL     OW52632   7.396   3.265   0.205  0.8936 -0.2248  0.1835
78341SOL    HW152633   7.346   3.184   0.201  0.5478 -0.3333  3.5760
78341SOL    HW252634   7.469   3.252   0.145 -0.4134 -2.0514 -1.1093
78342SOL     OW52635   4.685   1.063   1.814  0.1510  0.7356  0.7696
78342SOL    HW152636   4.660   0.982   1.858  1.6060 -0.1378  0.0500
78342SOL    HW252637   4.607   1.119   1.821 -1.3072 -1.1322  0.2783
78343SOL     OW52638   1.386   2.262   7.722 -0.3192 -0.1004  0.2559
78343SOL    HW152639   1.393   2.219   7.637 -0.2811  0.6180 -0.1139
78343SOL    HW252640   1.325   2.334   7.707 -1.6860 -0.9880  1.2622
78344SOL     OW52641   9.879   6.536   0.735  0.1917  0.1416  0.0685
78344SOL    HW152642   9.908   6.548   0.826  0.3667  0.3494 -0.0125
78344SOL    HW252643   9.920   6.608   0.688 -0.4368  0.4230 -0.0588
78345SOL     OW52644   0.288   8.513   6.113  0.0360  0.3257  0.2856
78345SOL    HW152645   0.316   8.550   6.197 -1.0624  0.5457  0.5681
78345SOL    HW252646   0.198   8.484   6.129  0.0606 -0.2822 -0.6207
78346SOL     OW52647   8.934   8.671   0.292 -0.0995 -0.2573  0.6900
78346SOL    HW152648   8.979   8.744   0.335  1.0459 -1.2306  1.2085
78346SOL    HW252649   8.999   8.634   0.233 -1.2411  0.2362 -0.9656
78347SOL     OW52650   3.559   3.220   6.047 -0.3633  0.3458  0.5606
78347SOL    HW152651   3.487   3.163   6.074  1.5766 -1.4596  2.2476
78347SOL    HW252652   3.606   3.169   5.981 -0.4750  1.4313 -0.3897
78348SOL     OW52653   7.757   2.006   3.715  0.4013 -0.7389  0.7200
78348SOL    HW152654   7.785   2.039   3.630  0.4559 -2.7023 -0.0934
78348SOL    HW252655   7.692   2.069   3.745 -0.5722 -0.6333 -1.4076
78349SOL     OW52656  10.487   6.403   5.034  0.4338  0.3332  0.1357
78349SOL    HW152657  10.436   6.481   5.011  1.0837  0.5755 -0.5294
78349SOL    HW252658  10.435   6.330   5.000  0.1229  0.5227  0.2048
78350SOL     OW52659   7.354   3.945  12.569 -0.2453 -0.3481 -0.4080
78350SOL    HW152660   7.422   4.010  12.585 -0.1417 -0.9447  1.9422
78350SOL    HW252661   7.323   3.965  12.480 -0.4872  3.1318  0.2947
78351SOL     OW52662   9.437   8.463  10.927 -0.5901  0.5388  0.6427
78351SOL    HW152663   9.473   8.382  10.892  0.5942  1.3946 -0.1724
78351SOL    HW252664   9.494   8.484  11.001  0.1401  1.4759 -0.1617
78352SOL     OW52665  12.557   2.769   3.205  0.5369  0.0460 -0.0252
78352SOL    HW152666  12.646   2.748   3.233  2.7043  5.1811 -1.7868
78352SOL    HW252667  12.557   2.753   3.110  1.4475  4.1107 -0.9434
78353SOL     OW52668   6.241  14.056  12.648  0.3077 -0.4832  0.0989
78353SOL    HW152669   6.227  14.051  12.743  1.7175  0.3694  0.3921
78353SOL    HW252670   6.222  13.968  12.616  0.0446 -0.8517  1.2050
78354SOL     OW52671   0.912   7.112   4.377 -0.1714 -0.1644  0.8293
78354SOL    HW152672   0.876   7.096   4.290  0.5166 -2.1614  0.8543
78354SOL    HW252673   0.927   7.207   4.380 -2.5379  0.3211 -0.2566
78355SOL     OW52674  10.535  12.730   0.737  0.0289  0.2639 -0.3311
78355SOL    HW152675  10.477  12.797   0.702  0.1943  0.9701  0.7006
78355SOL    HW252676  10.530  12.658   0.674 -2.0751  0.2355 -0.1808
78356SOL     OW52677   3.927   6.588   6.271 -0.3349  0.4911  0.2433
78356SOL    HW152678   3.892   6.499   6.274 -0.4427  0.5528  1.0294
78356SOL    HW252679   3.913   6.622   6.359 -1.3888  1.7057 -0.3495
78357SOL     OW52680   0.616  10.990  11.215  0.2786 -0.0203 -0.1850
78357SOL    HW152681   0.601  10.923  11.149  2.4069 -0.1005 -0.6552
78357SOL    HW252682   0.541  11.049  11.208 -0.2211 -0.8034 -1.7096
78358SOL     OW52683   1.157   9.767   4.037  0.2253 -0.0991 -0.1850
78358SOL    HW152684   1.201   9.819   4.105  1.0335 -0.8470 -0.1231
78358SOL    HW252685   1.066   9.796   4.041  0.5379  0.8995  0.2357
78359SOL     OW52686   3.802   4.188  11.816 -0.7184  0.0907 -0.2248
78359SOL    HW152687   3.825   4.241  11.739 -0.8562  0.5720  0.0596
78359SOL    HW252688   3.868   4.119  11.818  0.1581  0.9194  0.0590
78360SOL     OW52689   1.210   9.473   4.077 -0.1590  0.2936  0.0077
78360SOL    HW152690   1.216   9.565   4.050  1.8980  0.0008 -0.7248
78360SOL    HW252691   1.196   9.477   4.172  2.1207  1.4233  0.3679
78361SOL     OW52692   4.655  10.473   8.303 -0.2787  0.7569  0.0248
78361SOL    HW152693   4.668  10.439   8.392  2.6307  1.3773 -0.0374
78361SOL    HW252694   4.646  10.395   8.249 -0.4087  0.3120  0.6730
78362SOL     OW52695   6.909   3.236   3.288 -0.1187 -0.2404  0.4417
78362SOL    HW152696   6.928   3.281   3.370 -0.5273  2.3997 -0.7831
78362SOL    HW252697   6.969   3.275   3.225 -1.8968  0.1057 -1.1322
78363SOL     OW52698   5.980   5.302  11.826 -0.3805 -0.0779  0.4190
78363SOL    HW152699   5.989   5.393  11.854  0.1085  0.2604 -0.7627
78363SOL    HW252700   5.914   5.303  11.757  0.7163 -0.3421 -0.6832
78364SOL     OW52701  13.956  10.598   4.764  0.4042 -0.8045 -0.1092
78364SOL    HW152702  13.993  10.686   4.759 -0.0317 -0.6126 -0.0720
78364SOL    HW252703  13.986  10.554   4.685 -1.3475  0.1663 -1.3900
78365SOL     OW52704   6.859   3.835   5.941 -0.2358  0.3172 -0.2833
78365SOL    HW152705   6.869   3.744   5.915 -1.0160  0.4135 -0.9682
78365SOL    HW252706   6.949   3.867   5.952  0.0216 -0.8478  1.1688
78366SOL     OW52707  13.201   3.478   0.257 -0.4938  0.3343 -0.4610
78366SOL    HW152708  13.241   3.445   0.177  0.1894 -0.7044  0.2775
78366SOL    HW252709  13.275   3.506   0.311 -0.8295 -0.3494  0.3799
78367SOL     OW52710  11.192  12.432   5.108 -0.1825 -0.0301  0.1867
78367SOL    HW152711  11.106  12.391   5.113 -0.3544  0.3808  0.7293
78367SOL    HW252712  11.254  12.360   5.115 -0.4790 -0.2097  1.0668
78368SOL     OW52713   0.769   6.430   0.079 -0.6802  0.0231  0.2146
78368SOL    HW152714   0.748   6.364   0.012  0.8441  1.0709 -1.3855
78368SOL    HW252715   0.731   6.511   0.044 -1.2251  0.2968  1.4130
78369SOL     OW52716  11.824  13.293   3.025 -0.0130 -0.1795  0.1750
78369SOL    HW152717  11.876  13.373   3.024  0.5894 -0.5610  0.2251
78369SOL    HW252718  11.733  13.323   3.020  0.1194  0.5608  1.7736
78370SOL     OW52719   9.458  11.464  12.843 -0.4320 -0.4398  0.3745
78370SOL    HW152720   9.444  11.468  12.748  0.0094  0.0223  0.3214
78370SOL    HW252721   9.385  11.512  12.880  0.8233  1.8325  0.1118
78371SOL     OW52722   4.513   9.065   7.195  0.5169 -0.5427 -0.0298
78371SOL    HW152723   4.481   9.110   7.273  0.1385 -0.8676  0.0076
78371SOL    HW252724   4.454   8.991   7.184  0.0849 -0.0782 -1.0600
78372SOL     OW52725   5.843  13.355   1.301 -0.4299 -0.6053  0.3994
78372SOL    HW152726   5.815  13.403   1.224  0.1076 -0.3040  0.3866
78372SOL    HW252727   5.774  13.371   1.366 -0.7559 -0.6533  0.0671
78373SOL     OW52728   2.976   5.908   5.698  0.7706 -0.5213  0.0262
78373SOL    HW152729   3.016   5.913   5.611  0.0383  1.2011 -0.2659
78373SOL    HW252730   2.979   5.816   5.721 -0.1533 -1.2361 -2.3951
78374SOL     OW52731  10.789  11.065   9.905 -0.2711 -0.1972 -0.3284
78374SOL    HW152732  10.819  10.974   9.899  2.2386  0.5888 -1.3588
78374SOL    HW252733  10.867  11.114   9.933 -0.1393  2.1723 -4.0938
78375SOL     OW52734  13.249   8.726   5.610 -0.1656 -0.3220 -0.0224
78375SOL    HW152735  13.317   8.660   5.613 -0.1385 -0.3067 -0.3336
78375SOL    HW252736  13.262   8.778   5.690 -1.7854 -2.2738  1.6623
78376SOL     OW52737   7.244  10.806  12.255 -0.2812 -0.1603  0.1008
78376SOL    HW152738   7.208  10.741  12.195 -0.9351  0.5318 -0.2753
78376SOL    HW252739   7.184  10.807  12.329 -0.0394 -0.2807  0.3019
78377SOL     OW52740  11.492  12.584  12.861  0.2661 -0.6274 -0.8271
78377SOL    HW152741  11.468  12.515  12.800  0.2839 -1.1997 -0.2067
78377SOL    HW252742  11.471  12.548  12.947  0.0758  0.2257 -0.5002
78378SOL     OW52743  10.208   4.595   4.729  0.0631  0.4322 -0.0903
78378SOL    HW152744  10.226   4.671   4.673  1.0334  1.3296  1.3577
78378SOL    HW252745  10.288   4.585   4.780 -0.5432 -0.7930  0.6397
78379SOL     OW52746  13.747   7.007   0.568  0.0326 -0.1731  0.0645
78379SOL    HW152747  13.836   6.973   0.573 -0.2661 -0.8139  1.4873
78379SOL    HW252748  13.692   6.930   0.564 -0.5833  0.1083  2.0211
78380SOL     OW52749  11.817   7.881  12.338  0.1037 -0.1923 -0.3863
78380SOL    HW152750  11.903   7.903  12.303  0.1425 -0.3411 -0.3822
78380SOL    HW252751  11.757   7.938  12.289 -0.1113 -1.9904 -2.3495
78381SOL     OW52752   4.685   8.967  13.782 -0.1105  0.0459 -0.5416
78381SOL    HW152753   4.589   8.972  13.786 -0.0362  2.9504 -0.0654
78381SOL    HW252754   4.707   8.996  13.694  0.3403  0.7875 -0.1990
78382SOL     OW52755   4.403  13.577  12.596  0.1346  0.3354 -0.0749
78382SOL    HW152756   4.318  13.560  12.556  1.1685  2.2629 -3.5486
78382SOL    HW252757   4.466  13.546  12.531  2.1125 -0.1546  1.9704
78383SOL     OW52758   5.749   7.921   2.060  0.0193  0.2256  0.2925
78383SOL    HW152759   5.838   7.901   2.030  1.0347 -0.7097  3.5026
78383SOL    HW252760   5.702   7.839   2.053 -0.4709  0.5865 -0.8739
78384SOL     OW52761   1.592  11.813  12.256 -0.2227 -0.1347  0.0507
78384SOL    HW152762   1.556  11.727  12.233 -1.2615 -0.0996  1.4437
78384SOL    HW252763   1.573  11.823  12.349  2.2687  0.4613  0.5847
78385SOL     OW52764  10.436   9.735  12.859 -0.3308  0.1148 -0.0800
78385SOL    HW152765  10.405   9.645  12.866 -0.9113  0.2564 -0.7497
78385SOL    HW252766  10.453   9.748  12.766 -1.7608  1.1733 -0.2325
78386SOL     OW52767   0.003   8.354  10.755 -0.7765  0.0048  0.0192
78386SOL    HW152768  -0.009   8.345  10.849  3.3432 -0.3076  0.6987
78386SOL    HW252769   0.025   8.447  10.742 -1.1409  0.0080 -0.6024
78387SOL     OW52770   0.505   0.076   0.149  0.0144 -0.2991  0.1078
78387SOL    HW152771   0.515   0.093   0.243  0.2046  0.1418  0.0107
78387SOL    HW252772   0.593   0.056   0.119 -0.1775 -1.3469  0.1863
78388SOL     OW52773   4.719   0.557  13.886  0.2761 -0.9174 -0.6198
78388SOL    HW152774   4.713   0.612  13.809 -0.3578 -1.3112 -0.8607
78388SOL    HW252775   4.714   0.467  13.852 -0.1757 -1.0897 -0.1180
78389SOL     OW52776   7.867  13.988   3.064 -0.5620 -0.0976  0.2978
78389SOL    HW152777   7.875  14.047   3.140 -1.7586  0.1661  0.2385
78389SOL    HW252778   7.869  13.900   3.102  0.4861 -0.0252  0.4574
78390SOL     OW52779   7.797  11.581   0.798  0.2257  0.0488  0.0395
78390SOL    HW152780   7.808  11.516   0.728  0.2191  0.3232 -0.2214
78390SOL    HW252781   7.818  11.664   0.756 -0.2706  0.2748  0.2289
78391SOL     OW52782   9.636   0.004   0.047 -0.2553  0.0887 -0.1361
78391SOL    HW152783   9.665   0.034  -0.039  1.0289 -0.3143  0.1312
78391SOL    HW252784   9.710  -0.047   0.081 -0.9617 -0.2455  0.9651
78392SOL     OW52785   4.084   4.221   7.576 -0.3017 -0.1997 -0.3420
78392SOL    HW152786   4.021   4.170   7.628 -1.6364  1.3760 -0.3276
78392SOL    HW252787   4.078   4.184   7.488 -0.4892 -0.7301 -0.1124
78393SOL     OW52788   7.552   7.811  13.303 -0.7587 -0.1458  0.0309
78393SOL    HW152789   7.577   7.888  13.252 -0.7870 -0.6008 -0.6924
78393SOL    HW252790   7.593   7.738  13.257 -0.0518 -0.4964  1.1682
78394SOL     OW52791   0.440   7.909   3.655 -0.0283 -0.1828 -0.6503
78394SOL    HW152792   0.525   7.886   3.617  0.6351  0.2333  0.5579
78394SOL    HW252793   0.400   7.825   3.677  0.5612 -0.3423 -0.1777
78395SOL     OW52794  13.750   5.049   7.253  0.1825  0.1977 -0.3517
78395SOL    HW152795  13.742   4.963   7.213  3.4175 -0.3070 -0.1208
78395SOL    HW252796  13.833   5.084   7.221  0.4047  1.9780  1.8833
78396SOL     OW52797   7.075  12.861   2.303 -0.9400 -0.0529 -0.3997
78396SOL    HW152798   6.985  12.868   2.336 -1.0412  1.9647 -0.9670
78396SOL    HW252799   7.065  12.831   2.213 -0.8592 -2.1536  0.2359
78397SOL     OW52800   7.906   7.994   4.958 -0.4088  0.2645 -0.1249
78397SOL    HW152801   7.959   7.925   4.919 -1.9911 -0.9877 -0.1641
78397SOL    HW252802   7.888   7.963   5.047 -0.2808  1.1387  0.2170
78398SOL     OW52803   2.324  12.506   7.883  0.1898  0.0888 -0.1474
78398SOL    HW152804   2.372  12.524   7.964 -0.6067 -0.4623  0.4711
78398SOL    HW252805   2.231  12.512   7.909 -0.1524 -3.1956 -0.2289
78399SOL     OW52806   2.090   5.709  10.596  0.3674 -0.1735  0.0486
78399SOL    HW152807   2.005   5.707  10.638  0.2438 -0.0898 -0.1953
78399SOL    HW252808   2.093   5.630  10.542  0.0042  0.3652 -0.7857
78400SOL     OW52809  13.189   4.873  12.281 -0.1778 -0.3935 -0.7040
78400SOL    HW152810  13.146   4.929  12.217  0.6871  0.9074 -0.2163
78400SOL    HW252811  13.281   4.901  12.279 -0.0903 -0.4381  0.9387
78401SOL     OW52812   6.184  11.920   9.965  0.5669 -0.2274 -0.7340
78401SOL    HW152813   6.268  11.908  10.009 -0.1113 -1.3055  0.3355
78401SOL    HW252814   6.129  11.963  10.030  0.2616  0.3991 -1.3998
78402SOL     OW52815   2.703   1.520  10.827 -0.0011  0.3352 -0.2102
78402SOL    HW152816   2.656   1.491  10.749  0.6737  0.3391 -0.6293
78402SOL    HW252817   2.743   1.440  10.862 -0.7282  0.2406  0.4436
78403SOL     OW52818   6.421   2.097   5.598 -0.1166 -0.0200  0.2808
78403SOL    HW152819   6.371   2.119   5.519  0.4308 -0.2944 -0.1584
78403SOL    HW252820   6.497   2.155   5.595 -1.0782  1.3633  1.6764
78404SOL     OW52821  13.299   4.367  13.638 -0.5460 -0.8164 -0.2977
78404SOL    HW152822  13.350   4.293  13.671  0.5407 -0.2871 -0.7344
78404SOL    HW252823  13.351   4.444  13.661 -1.3846 -0.2188 -0.3479
78405SOL     OW52824   9.006   7.708   3.966 -0.4673  0.0434 -0.0412
78405SOL    HW152825   8.917   7.699   4.000  0.0673  1.5179  1.8667
78405SOL    HW252826   9.006   7.655   3.885 -3.2692  0.6545 -0.5318
78406SOL     OW52827   8.265  11.134  13.669  0.1993  0.0402  0.1637
78406SOL    HW152828   8.306  11.114  13.585  1.8599 -1.8808  1.3226
78406SOL    HW252829   8.184  11.179  13.647 -0.2964 -1.9668 -2.5553
78407SOL     OW52830   3.685   2.559   8.769 -0.0702 -0.0744 -0.3749
78407SOL    HW152831   3.777   2.533   8.765 -0.5547 -2.5540  1.6557
78407SOL    HW252832   3.685   2.638   8.822  0.8199 -0.9047  0.9400
78408SOL     OW52833   2.062   8.014  12.560  0.2325  0.2014  0.3604
78408SOL    HW152834   1.995   8.082  12.562  1.4941  1.4712  0.6470
78408SOL    HW252835   2.145   8.061  12.571  1.0845 -1.4771  1.5423
78409SOL     OW52836   3.179   5.728   4.931  0.3530  0.3567 -0.1426
78409SOL    HW152837   3.183   5.770   4.845  0.0858 -0.5378 -0.6070
78409SOL    HW252838   3.086   5.724   4.951  0.4852  2.7975  1.3549
78410SOL     OW52839   9.983   3.908   1.095  0.2202 -0.5760  0.5210
78410SOL    HW152840   9.961   3.900   1.187 -1.0452 -0.0469  0.2831
78410SOL    HW252841   9.915   3.859   1.049 -0.0523  0.4609 -0.2090
78411SOL     OW52842  13.343  13.230   8.411 -0.1610  0.0224  0.0658
78411SOL    HW152843  13.273  13.179   8.369 -1.7181  1.7203  0.4748
78411SOL    HW252844  13.346  13.312   8.361  0.1204  0.7964  1.3258
78412SOL     OW52845   6.479   1.401   4.904  0.1290 -0.4667 -0.1415
78412SOL    HW152846   6.504   1.346   4.978  1.3993 -0.6433 -0.6734
78412SOL    HW252847   6.393   1.369   4.878 -1.1208  0.6832  2.2609
78413SOL     OW52848  12.820   4.566   6.324  0.1481  0.0024  0.0696
78413SOL    HW152849  12.803   4.658   6.307  0.3040  0.2259  1.0444
78413SOL    HW252850  12.789   4.520   6.246  0.3814  0.9043 -0.5624
78414SOL     OW52851  11.379   1.486   5.701  0.0345 -0.7618 -0.3198
78414SOL    HW152852  11.317   1.414   5.693 -1.0492  0.0448  0.4309
78414SOL    HW252853  11.387   1.501   5.796  0.2584  0.0813 -0.4567
78415SOL     OW52854   9.177   4.332  11.503  0.0492  0.0143 -0.7225
78415SOL    HW152855   9.257   4.357  11.549 -0.1755 -0.0145 -0.3108
78415SOL    HW252856   9.208   4.285  11.426  0.4082 -1.5217  0.3173
78416SOL     OW52857   4.379   7.447   4.239  0.2197 -0.0791  0.4302
78416SOL    HW152858   4.332   7.451   4.156  2.1624  0.2306 -0.7198
78416SOL    HW252859   4.350   7.365   4.279 -1.6019  0.3187  0.0295
78417SOL     OW52860   8.759   9.292  13.289  0.4269 -0.1499 -0.3306
78417SOL    HW152861   8.706   9.345  13.229 -0.2513  0.5368  0.8560
78417SOL    HW252862   8.711   9.209  13.295  2.0236 -1.3987 -3.0052
78418SOL     OW52863   2.483   3.291   6.003 -0.1053 -0.6290 -0.3882
78418SOL    HW152864   2.474   3.257   6.092  1.5884 -1.6117 -0.5452
78418SOL    HW252865   2.450   3.221   5.947  0.4276 -0.7267 -0.5876
78419SOL     OW52866   9.544   4.659   3.808 -0.0096 -0.6751  0.6223
78419SOL    HW152867   9.576   4.648   3.718 -0.0642 -1.1707  0.6645
78419SOL    HW252868   9.462   4.611   3.810 -0.3742 -0.0619  0.7412
78420SOL     OW52869   3.535  11.769  12.763  0.0746 -0.2252 -0.0270
78420SOL    HW152870   3.589  11.767  12.842 -0.0510  1.3676  0.1284
78420SOL    HW252871   3.580  11.829  12.704 -0.2916 -0.7297 -0.8358
78421SOL     OW52872   4.488   9.910   9.466  0.3924  0.7107 -0.3058
78421SOL    HW152873   4.580   9.893   9.487  0.2017  0.6683  0.5322
78421SOL    HW252874   4.439   9.860   9.532 -0.2598 -0.6569 -1.7665
78422SOL     OW52875  12.952   8.572   9.527  0.2439  0.1791  0.1590
78422SOL    HW152876  12.879   8.629   9.502 -1.2150 -1.6033  0.1333
78422SOL    HW252877  12.984   8.609   9.609 -1.4326  0.4049  0.7609
78423SOL     OW52878  13.826  13.549  10.602 -0.6814  0.2170 -0.4020
78423SOL    HW152879  13.865  13.572  10.518  0.2361  0.1961  0.0101
78423SOL    HW252880  13.832  13.454  10.606  0.3974  0.2929  0.2025
78424SOL     OW52881   4.173  13.319   3.999 -0.7594 -0.4978 -1.0222
78424SOL    HW152882   4.152  13.405   4.034  0.0552 -1.0673  0.9820
78424SOL    HW252883   4.089  13.285   3.968 -1.7349 -0.2901  1.1936
78425SOL     OW52884   2.785   0.436  13.806 -0.3372  0.1264  0.2601
78425SOL    HW152885   2.693   0.430  13.779 -0.4239 -1.7562  0.8486
78425SOL    HW252886   2.819   0.347  13.797  1.8561  1.0393 -1.2956
78426SOL     OW52887   2.311  12.722   1.877 -0.3857  0.5952  0.2239
78426SOL    HW152888   2.349  12.644   1.917 -1.6101 -0.1043  0.0425
78426SOL    HW252889   2.314  12.788   1.946 -1.5128 -0.2940  1.1587
78427SOL     OW52890   4.600   0.472   8.131  0.6938  0.1396 -0.1005
78427SOL    HW152891   4.610   0.497   8.223 -1.2984  2.0514 -0.3085
78427SOL    HW252892   4.511   0.436   8.126  1.0598 -0.6581 -1.1516
78428SOL     OW52893   7.093   1.786   5.000 -0.4185 -0.0399  0.0102
78428SOL    HW152894   7.046   1.723   5.054  0.3009 -1.3899 -0.8615
78428SOL    HW252895   7.042   1.791   4.919  0.1318 -0.3933 -0.3685
78429SOL     OW52896   0.566   9.937  12.385  0.1329  0.1600 -0.1297
78429SOL    HW152897   0.574   9.918  12.292  1.3065 -2.3781  0.4174
78429SOL    HW252898   0.501   9.875  12.417  2.3905 -1.6594  1.3232
78430SOL     OW52899  11.820   2.694   1.297  0.1884 -0.1955 -0.2407
78430SOL    HW152900  11.765   2.747   1.239 -0.6578 -1.4124 -0.6003
78430SOL    HW252901  11.833   2.612   1.249  2.0909 -0.0671 -0.0206
78431SOL     OW52902   8.592   1.487  10.239 -0.1126  0.1135  0.0576
78431SOL    HW152903   8.588   1.535  10.321  1.4330  0.0620  0.2083
78431SOL    HW252904   8.573   1.396  10.263 -1.6685  0.3960 -0.0034
78432SOL     OW52905  12.690   8.231   4.289  0.1756  0.0869 -0.2295
78432SOL    HW152906  12.676   8.225   4.383  1.0557  1.0941 -0.0085
78432SOL    HW252907  12.785   8.234   4.279  0.0862  1.7071 -0.9960
78433SOL     OW52908   4.365  11.239   8.703 -0.0312  0.2166  0.2419
78433SOL    HW152909   4.371  11.277   8.615  2.3821 -1.1448 -0.2617
78433SOL    HW252910   4.289  11.180   8.698  0.1235  0.0922 -0.9669
78434SOL     OW52911   5.530  10.831  13.303 -0.0414  0.5715 -0.4886
78434SOL    HW152912   5.442  10.853  13.273 -0.1454  1.0189  0.1197
78434SOL    HW252913   5.581  10.910  13.287  0.1501  0.4537 -0.4594
78435SOL     OW52914   7.130  11.921   4.908 -0.4960  0.5666  0.0699
78435SOL    HW152915   7.058  11.883   4.957  0.2599  0.2175  0.9391
78435SOL    HW252916   7.102  11.916   4.817 -0.9233 -0.9830  0.2616
78436SOL     OW52917   1.722   7.863   5.089  0.3019  0.3372 -0.0086
78436SOL    HW152918   1.659   7.906   5.146  2.8423  1.8820  1.8306
78436SOL    HW252919   1.764   7.935   5.040  0.8633 -0.5861 -0.9311
78437SOL     OW52920  11.233   2.719   0.503  0.0931  0.2555 -0.2441
78437SOL    HW152921  11.227   2.805   0.546  0.0695 -0.5682  1.4592
78437SOL    HW252922  11.320   2.717   0.465 -0.1351  1.2828 -0.8492
78438SOL     OW52923   2.714  10.003   1.284  0.7683 -0.4211 -0.0317
78438SOL    HW152924   2.783  10.033   1.224 -0.5512  1.4130 -0.6975
78438SOL    HW252925   2.635  10.049   1.256 -0.5621 -1.7890  1.2742
78439SOL     OW52926  11.559   8.924   6.529  0.0771 -0.0289  0.5069
78439SOL    HW152927  11.511   8.994   6.486  1.2092  0.1023 -0.6172
78439SOL    HW252928  11.635   8.968   6.568 -0.4088 -0.3015  1.8307
78440SOL     OW52929   3.387   6.251   1.720 -0.6099  0.7391  0.2584
78440SOL    HW152930   3.444   6.214   1.788  0.0265  0.7573 -0.2557
78440SOL    HW252931   3.344   6.325   1.763 -1.0602  0.0837  0.9677
78441SOL     OW52932   5.968   3.852  11.567 -0.0798 -0.3881  0.3212
78441SOL    HW152933   6.043   3.830  11.623  0.2444  0.3930  0.2095
78441SOL    HW252934   5.924   3.923  11.614  1.2588  1.5893 -1.2679
78442SOL     OW52935   4.606  12.393   9.024  0.0942 -0.0622 -0.0782
78442SOL    HW152936   4.695  12.374   8.992 -0.3791  1.3287 -2.4399
78442SOL    HW252937   4.601  12.347   9.108  2.4419 -1.6220 -0.6840
78443SOL     OW52938   3.102   9.992   8.578  0.2167 -0.4667  0.4212
78443SOL    HW152939   3.186  10.015   8.538 -0.8659  3.5157 -0.0068
78443SOL    HW252940   3.055   9.943   8.510  1.8914 -2.1988  0.4489
78444SOL     OW52941   7.943   9.004   4.365  0.3840 -0.2592 -0.4344
78444SOL    HW152942   7.853   8.989   4.336  0.8651 -1.2958 -1.4617
78444SOL    HW252943   7.942   9.094   4.399 -1.0224 -0.2403 -0.4451
78445SOL     OW52944   4.420  14.076   8.401 -0.0803 -0.0255 -0.2195
78445SOL    HW152945   4.328  14.070   8.375 -0.5749 -0.3534  1.4517
78445SOL    HW252946   4.431  14.006   8.466  1.0503  0.7089  0.4205
78446SOL     OW52947   0.098   2.133   8.437  0.1790  0.0398 -0.1854
78446SOL    HW152948   0.144   2.217   8.429 -0.7351  0.5016 -0.6277
78446SOL    HW252949   0.061   2.117   8.351 -1.4269  0.2312  0.4301
78447SOL     OW52950   4.517   3.636   8.894  0.7110  0.8193  0.2124
78447SOL    HW152951   4.469   3.630   8.977 -1.4685  2.4881 -0.8252
78447SOL    HW252952   4.491   3.721   8.858 -0.2010 -0.7823 -3.2428
78448SOL     OW52953   9.008   2.366   2.929  0.1018 -0.3015  0.4694
78448SOL    HW152954   9.086   2.382   2.982 -0.1267  2.0790  0.2169
78448SOL    HW252955   8.950   2.314   2.985  1.2781 -0.8911  1.1821
78449SOL     OW52956   1.763   6.794   9.448  0.1663  0.3989 -0.6118
78449SOL    HW152957   1.676   6.759   9.430  0.1320 -0.2156  0.6027
78449SOL    HW252958   1.823   6.726   9.417  0.1394 -0.1053  0.3939
78450SOL     OW52959   8.553   7.775   7.101  0.1193 -0.0102 -0.2723
78450SOL    HW152960   8.508   7.794   7.018  0.4076 -0.0557 -0.4400
78450SOL    HW252961   8.603   7.855   7.120 -0.0175  0.0338 -0.0945
78451SOL     OW52962  10.898   1.008   6.450  0.1046  0.4214  0.2554
78451SOL    HW152963  10.925   0.917   6.442 -0.6389  0.1727  0.5456
78451SOL    HW252964  10.866   1.031   6.362  0.0602  0.3296  0.2477
78452SOL     OW52965   2.915   7.293   3.207  0.6777  0.6295  0.3200
78452SOL    HW152966   2.887   7.238   3.280 -1.0352 -0.9573 -1.3791
78452SOL    HW252967   2.990   7.342   3.240  0.3826 -0.4894  2.8903
78453SOL     OW52968  12.218   3.657   4.395  0.3664  0.1839  0.1592
78453SOL    HW152969  12.206   3.750   4.373  0.6951  0.5028  1.2864
78453SOL    HW252970  12.152   3.640   4.462 -2.1555 -1.3669 -2.4614
78454SOL     OW52971   2.469   1.331   5.801  0.1022  0.4121  0.1953
78454SOL    HW152972   2.550   1.362   5.760 -0.0652  0.5553 -0.0315
78454SOL    HW252973   2.405   1.331   5.730  0.6983 -2.9735 -0.5381
78455SOL     OW52974   3.059   8.262   8.746  0.0812 -0.1963 -0.5249
78455SOL    HW152975   3.079   8.238   8.655 -2.6080 -0.8082 -1.0148
78455SOL    HW252976   2.981   8.211   8.768 -1.4343  2.5584  0.9397
78456SOL     OW52977   2.899  13.128   0.528 -0.0543 -0.3858 -0.2297
78456SOL    HW152978   2.927  13.219   0.535 -0.3313 -0.3665  0.8568
78456SOL    HW252979   2.850  13.112   0.609  0.5967 -1.7003 -0.0675
78457SOL     OW52980   7.914   6.296   3.188 -0.1277  0.1623  0.3563
78457SOL    HW152981   7.895   6.367   3.250  0.6597  0.0992  0.6830
78457SOL    HW252982   7.878   6.327   3.104  0.0937  0.8881  0.5232
78458SOL     OW52983   5.091   3.347   5.050 -0.0610  0.3051 -0.3959
78458SOL    HW152984   5.036   3.398   4.991 -0.6706 -0.0845 -0.1844
78458SOL    HW252985   5.075   3.385   5.137 -0.1556  0.0584 -0.3043
78459SOL     OW52986   6.680  11.670   5.337 -0.0982 -0.1826 -0.2706
78459SOL    HW152987   6.704  11.614   5.263  0.3146 -0.2460 -0.0907
78459SOL    HW252988   6.587  11.653   5.351  0.3136 -1.9079  0.7047
78460SOL     OW52989   8.312   0.420   7.428 -0.2844 -0.4087 -0.2039
78460SOL    HW152990   8.364   0.363   7.371  0.5321 -0.6910  0.8127
78460SOL    HW252991   8.222   0.391   7.414  0.0032 -1.1469 -0.5953
78461SOL     OW52992   2.871   7.530   0.589 -0.3245  0.1241 -0.6725
78461SOL    HW152993   2.847   7.450   0.541 -0.9898 -1.3558  1.9289
78461SOL    HW252994   2.964   7.520   0.608 -0.2277  0.3659 -1.0034
78462SOL     OW52995  10.006   5.793   1.609  0.6013 -0.2184 -0.0581
78462SOL    HW152996  10.071   5.852   1.571 -0.0940 -0.8311 -2.3498
78462SOL    HW252997   9.934   5.850   1.636 -0.0461  0.0843 -2.2004
78463SOL     OW52998   8.485   2.316  12.346 -0.2926  0.0104 -0.0388
78463SOL    HW152999   8.494   2.374  12.270  0.1072 -0.0087 -0.0123
78463SOL    HW253000   8.572   2.317  12.387 -0.4960  0.0032  0.4059
78464SOL     OW53001   8.731   4.481   9.446  0.1589 -0.4965  0.4340
78464SOL    HW153002   8.669   4.472   9.374  0.7177 -1.6870  0.0760
78464SOL    HW253003   8.713   4.407   9.503  0.8746 -0.5553  0.5977
78465SOL     OW53004   1.872   1.277   7.359  0.4430  0.5790 -0.0924
78465SOL    HW153005   1.844   1.243   7.274  0.7109  0.8417 -0.2859
78465SOL    HW253006   1.951   1.327   7.341  0.2373  1.0388  0.2349
78466SOL     OW53007   0.794  10.433   9.432  0.7052 -0.6496  0.0434
78466SOL    HW153008   0.786  10.417   9.338 -0.7137 -1.6678  0.2997
78466SOL    HW253009   0.853  10.508   9.439  1.2436 -0.8847 -1.6249
78467SOL     OW53010  12.172   9.708  13.291  0.8139  0.1736 -0.0699
78467SOL    HW153011  12.247   9.677  13.342 -0.0394 -1.5890  0.2272
78467SOL    HW253012  12.098   9.702  13.352  0.4088  1.8584 -0.3557
78468SOL     OW53013   9.892  10.645   3.782  0.1481  0.0607 -0.1756
78468SOL    HW153014   9.871  10.552   3.783  1.3474 -0.2595  2.5988
78468SOL    HW253015   9.927  10.661   3.694 -2.6565 -1.3863 -1.7212
78469SOL     OW53016  13.766   2.045   3.170 -0.2286  0.1723  0.0387
78469SOL    HW153017  13.743   1.953   3.162 -0.8671  0.3328 -0.0122
78469SOL    HW253018  13.843   2.046   3.227  0.6694 -0.4961 -1.1198
78470SOL     OW53019  10.902   2.271  11.092 -0.7435 -0.0336 -0.4897
78470SOL    HW153020  10.851   2.304  11.165  1.9722  2.6758  0.3772
78470SOL    HW253021  10.976   2.227  11.132 -0.4629 -0.6610 -1.6550
78471SOL     OW53022   7.507  10.133   7.126 -0.0681  0.0480 -0.2544
78471SOL    HW153023   7.459  10.072   7.070  2.4081 -1.4036 -0.9625
78471SOL    HW253024   7.478  10.220   7.097 -1.9858 -0.7211 -0.8068
78472SOL     OW53025   5.203   0.125   0.356 -0.3226 -0.0611 -0.3579
78472SOL    HW153026   5.255   0.197   0.389  0.4515  0.3993 -2.4093
78472SOL    HW253027   5.116   0.163   0.339 -0.0134  0.3406 -1.1119
78473SOL     OW53028   1.641  13.498  11.479 -0.5271 -0.1609 -0.4979
78473SOL    HW153029   1.634  13.539  11.565  1.0646  2.7718 -1.6134
78473SOL    HW253030   1.568  13.537  11.429  0.7711  1.1524 -1.4626
78474SOL     OW53031  10.457   3.869   8.827 -0.2548  0.5087  0.2216
78474SOL    HW153032  10.494   3.951   8.795  0.8622 -0.2240 -0.4268
78474SOL    HW253033  10.509   3.847   8.903  0.4694 -0.3760 -0.5167
78475SOL     OW53034   8.996   3.329   1.951  0.4147  0.1055  0.5256
78475SOL    HW153035   9.066   3.387   1.981  1.3843 -0.7885  0.0551
78475SOL    HW253036   9.023   3.303   1.863 -1.2370  0.8689 -0.2692
78476SOL     OW53037   7.514  10.148   5.349  0.1156  0.3905 -0.0835
78476SOL    HW153038   7.562  10.072   5.315 -0.1416  0.5944 -0.9070
78476SOL    HW253039   7.550  10.161   5.437 -0.0479 -0.8693  0.1847
78477SOL     OW53040  12.169   8.949   5.870 -0.4005 -0.3508 -0.7093
78477SOL    HW153041  12.107   9.018   5.848  0.7126  1.4636  1.5043
78477SOL    HW253042  12.227   8.943   5.793 -2.0438 -0.7094 -1.9751
78478SOL     OW53043  11.503  11.217   1.685 -0.2345 -0.5883 -0.3493
78478SOL    HW153044  11.534  11.246   1.599 -0.7057  0.9733 -0.0190
78478SOL    HW253045  11.461  11.132   1.667  0.4949 -0.7315 -1.4962
78479SOL     OW53046   8.948   8.331   3.759 -0.0121 -0.4018  0.0365
78479SOL    HW153047   9.042   8.343   3.746 -0.3859  1.4191 -1.3945
78479SOL    HW253048   8.912   8.323   3.671 -1.2769 -0.3783  0.5261
78480SOL     OW53049   7.068   5.209  13.379 -0.1253  0.3790 -0.0150
78480SOL    HW153050   7.079   5.301  13.352  1.1797  0.4371  0.6300
78480SOL    HW253051   7.092   5.158  13.302  0.4795  0.5757  0.0360
78481SOL     OW53052  12.395   0.370   3.970  0.0043  0.2577  0.0394
78481SOL    HW153053  12.322   0.349   3.912  0.1368 -0.5254  0.1472
78481SOL    HW253054  12.413   0.462   3.953 -1.7210  0.7753  0.7825
78482SOL     OW53055   2.760   3.630  13.599 -0.4213 -0.0219 -0.1155
78482SOL    HW153056   2.850   3.606  13.579 -0.7372 -1.8966  0.5034
78482SOL    HW253057   2.713   3.547  13.603 -2.5357  0.9868 -1.9637
78483SOL     OW53058   2.240   1.627   5.581 -0.3087 -0.2842 -0.1945
78483SOL    HW153059   2.156   1.600   5.541 -1.5327  0.8017  1.5180
78483SOL    HW253060   2.244   1.721   5.567  0.7108 -0.3463 -0.3649
78484SOL     OW53061   0.371   2.058   3.519 -0.1295  0.0506 -0.3110
78484SOL    HW153062   0.415   2.030   3.440  0.6458 -2.4640  0.8956
78484SOL    HW253063   0.410   2.142   3.541  1.0498 -0.1557 -1.5233
78485SOL     OW53064   1.793   0.924   5.314  0.0436  0.3585 -0.3405
78485SOL    HW153065   1.708   0.880   5.324  1.2708 -2.0833  0.0749
78485SOL    HW253066   1.779   1.011   5.351 -1.7133 -0.7440  1.8480
78486SOL     OW53067   0.033   4.480   3.110 -0.4584  0.1055  0.2822
78486SOL    HW153068   0.120   4.515   3.095 -0.0680 -1.0119 -0.1981
78486SOL    HW253069  -0.009   4.481   3.024 -0.6864  0.0427  0.3892
78487SOL     OW53070  11.141   5.179   9.374 -0.5155 -0.4818 -0.1814
78487SOL    HW153071  11.086   5.115   9.419 -1.6088  0.4499 -0.1623
78487SOL    HW253072  11.122   5.166   9.281 -1.6952  0.6265 -0.1197
78488SOL     OW53073   4.336   5.902   2.382 -0.0865  0.0553 -0.4814
78488SOL    HW153074   4.418   5.893   2.334 -0.2503 -0.4453 -0.6742
78488SOL    HW253075   4.285   5.824   2.358 -0.1240 -0.2653  0.6022
78489SOL     OW53076   6.770  12.538   3.559 -0.0681 -0.5511  0.5352
78489SOL    HW153077   6.852  12.490   3.568  0.3258  0.1758  0.8736
78489SOL    HW253078   6.781  12.592   3.481 -0.5160 -1.0071  0.1470
78490SOL     OW53079   7.330  12.748  12.626  0.5851  0.0800 -0.2226
78490SOL    HW153080   7.361  12.778  12.540 -0.2878 -0.5687 -0.7886
78490SOL    HW253081   7.262  12.812  12.650  3.1196  2.3018  1.6468
78491SOL     OW53082  10.541   0.248   0.939  0.9084 -1.0623 -0.1174
78491SOL    HW153083  10.619   0.230   0.992 -0.1025  0.0367  1.8818
78491SOL    HW253084  10.526   0.168   0.890  3.0832 -1.4204 -0.2774
78492SOL     OW53085   3.188  12.112   9.994 -0.2869 -0.1997 -0.2658
78492SOL    HW153086   3.174  12.024   9.960 -0.8174  0.1748 -1.0257
78492SOL    HW253087   3.279  12.113  10.021 -0.1014 -0.7789 -0.8585
78493SOL     OW53088   6.412  10.862   2.209 -0.1829 -0.4475  0.1243
78493SOL    HW153089   6.450  10.834   2.125  1.3011  0.7278  0.3570
78493SOL    HW253090   6.321  10.836   2.204  0.0446 -1.0255 -1.5858
78494SOL     OW53091   7.177   6.762   1.271  0.0207 -0.3401  0.7248
78494SOL    HW153092   7.249   6.775   1.209 -0.1259 -1.3017  0.3310
78494SOL    HW253093   7.132   6.846   1.275 -0.5936 -0.5390 -1.2613
78495SOL     OW53094   7.034   4.125   4.699  0.2722 -0.6833 -0.3175
78495SOL    HW153095   6.993   4.107   4.614 -0.8256  1.6570 -0.3549
78495SOL    HW253096   7.054   4.218   4.697  0.9990 -0.7440  1.6991
78496SOL     OW53097   9.905   1.790   0.646 -0.1792  0.2925 -0.5776
78496SOL    HW153098   9.899   1.883   0.669  1.3953  0.7912 -1.9686
78496SOL    HW253099   9.824   1.752   0.680 -0.3646  1.9446  0.9964
78497SOL     OW53100   6.557  11.025   8.797  0.0679 -0.3199  0.0102
78497SOL    HW153101   6.569  10.931   8.782  0.3915 -0.2012 -0.4963
78497SOL    HW253102   6.619  11.047   8.867  1.0356 -0.2075 -0.8566
78498SOL     OW53103   0.783   1.590   6.789 -0.0435 -0.0715  0.0667
78498SOL    HW153104   0.738   1.533   6.851  0.0376  0.0221  0.2128
78498SOL    HW253105   0.806   1.533   6.716 -0.9851  0.0155 -0.3200
78499SOL     OW53106   9.979   8.467   4.411  0.4222  0.3502  0.1162
78499SOL    HW153107   9.945   8.431   4.493  0.6020  0.0452  0.0576
78499SOL    HW253108   9.918   8.538   4.389 -0.1849 -0.2072 -0.0115
78500SOL     OW53109   1.156   3.367   6.379 -0.2081  0.1301 -0.4984
78500SOL    HW153110   1.235   3.402   6.420 -0.2403 -1.0004  0.5703
78500SOL    HW253111   1.087   3.382   6.445 -0.2763 -1.6350 -0.1330
78501SOL     OW53112  12.257  12.921   5.508 -0.2309  0.2201 -0.8436
78501SOL    HW153113  12.217  13.002   5.542 -1.1692 -0.5486 -0.0424
78501SOL    HW253114  12.323  12.951   5.446  0.0900  1.6327  0.1275
78502SOL     OW53115  12.078   0.924   6.769 -0.0141  0.0571 -0.0834
78502SOL    HW153116  12.140   0.921   6.696 -0.9357 -1.8079 -0.8801
78502SOL    HW253117  11.999   0.883   6.734 -0.6751 -0.3701  1.8099
78503SOL     OW53118  10.380  13.004   9.649 -0.0680 -0.0451 -0.1572
78503SOL    HW153119  10.436  13.076   9.680 -0.6756  0.8370 -1.0408
78503SOL    HW253120  10.401  12.995   9.556  0.1259 -1.1417 -0.0127
78504SOL     OW53121   2.620   8.616   6.180  0.6491 -0.0940 -0.5708
78504SOL    HW153122   2.542   8.564   6.159 -0.4137  0.9620  0.5815
78504SOL    HW253123   2.601   8.702   6.142  1.8219 -0.1687 -1.3548
78505SOL     OW53124   1.313   3.667   0.290  0.8986  0.0743  0.0959
78505SOL    HW153125   1.382   3.634   0.233  1.3289 -0.4095  0.8809
78505SOL    HW253126   1.328   3.623   0.374 -1.3830 -1.3402 -0.1809
78506SOL     OW53127   8.891  11.490   3.739 -0.2278  1.0579  0.1539
78506SOL    HW153128   8.864  11.507   3.649 -0.9767 -0.4889  0.0590
78506SOL    HW253129   8.810  11.464   3.783  0.0499  2.1723  1.3894
78507SOL     OW53130   4.087  10.807   7.334 -0.2925 -0.2618  0.3857
78507SOL    HW153131   4.052  10.842   7.417 -0.6940  2.0547 -0.6588
78507SOL    HW253132   4.164  10.757   7.360  1.3915  2.8409  2.0372
78508SOL     OW53133   4.701   9.106   6.788  0.1279 -1.0783 -0.3393
78508SOL    HW153134   4.661   9.138   6.707  0.3218 -1.0047 -0.4068
78508SOL    HW253135   4.718   9.185   6.840 -0.8597 -1.1858  0.1817
78509SOL     OW53136   0.678   9.983   6.233 -0.2523  0.0210 -0.1985
78509SOL    HW153137   0.707  10.021   6.150  0.1153 -0.9805 -0.5424
78509SOL    HW253138   0.729  10.028   6.300  1.2250 -0.8291 -0.7072
78510SOL     OW53139  13.510  12.217  11.312  0.1693 -0.3348 -0.2256
78510SOL    HW153140  13.568  12.293  11.307  0.2008 -0.3390  0.0378
78510SOL    HW253141  13.568  12.141  11.303  0.0321 -0.3150 -1.3480
78511SOL     OW53142   8.924   1.597   9.600  0.4867  0.1230  0.5294
78511SOL    HW153143   8.908   1.506   9.576  0.2918  0.2014  0.3443
78511SOL    HW253144   9.015   1.600   9.628  1.3399  0.3700 -2.0205
78512SOL     OW53145   6.203   6.443   2.063  0.3691  0.4027  0.0701
78512SOL    HW153146   6.248   6.507   2.117 -1.1886  0.3258  1.5185
78512SOL    HW253147   6.118   6.483   2.043  0.3115 -0.2183 -1.0335
78513SOL     OW53148   1.003   2.712  10.269  0.2668 -0.2684  0.5825
78513SOL    HW153149   1.030   2.631  10.227 -0.6484 -1.4580  2.1732
78513SOL    HW253150   0.988   2.773  10.197 -0.5797 -1.9785 -0.7547
78514SOL     OW53151   2.035   9.026  10.623 -0.3509 -0.1755  0.0434
78514SOL    HW153152   2.055   8.985  10.539 -0.5349 -1.1218  0.4499
78514SOL    HW253153   2.096   8.986  10.685 -0.7857 -0.1117  0.5218
78515SOL     OW53154   9.967   1.597   4.428 -0.1245  0.0855  0.2765
78515SOL    HW153155   9.910   1.537   4.380  2.0528 -1.4025 -0.5896
78515SOL    HW253156  10.029   1.629   4.362  2.3846 -1.3102  1.8264
78516SOL     OW53157   5.908   4.144   9.357 -0.7180 -0.3453 -0.2983
78516SOL    HW153158   5.887   4.205   9.286  0.4000  0.4423  0.0251
78516SOL    HW253159   5.900   4.196   9.436 -4.3723 -1.7969  0.4756
78517SOL     OW53160   3.894   4.172   6.794 -0.2051  0.1795  0.2446
78517SOL    HW153161   3.857   4.088   6.768  1.1807 -1.0384  1.9168
78517SOL    HW253162   3.956   4.193   6.724 -0.6259 -0.1670 -0.2344
78518SOL     OW53163   6.644   4.173   4.272 -0.0850 -0.0756  0.5721
78518SOL    HW153164   6.717   4.111   4.275 -1.0731 -1.2441  1.4312
78518SOL    HW253165   6.572   4.128   4.317 -1.3058  1.0921 -0.1360
78519SOL     OW53166   9.075   2.727   8.181 -0.1328 -0.0852  0.1743
78519SOL    HW153167   9.164   2.760   8.186  0.0295 -0.3103 -0.9937
78519SOL    HW253168   9.085   2.632   8.170 -0.4012  0.1011 -2.3257
78520SOL     OW53169   4.595   4.135   8.547 -0.7312  0.6973  0.6614
78520SOL    HW153170   4.547   4.062   8.508 -0.5074  0.6347  0.5030
78520SOL    HW253171   4.686   4.109   8.544 -0.7591  0.4606  1.7351
78521SOL     OW53172  12.832   2.039   8.601 -0.2844 -1.0751  0.3106
78521SOL    HW153173  12.765   2.061   8.666  0.5965 -2.2779  1.6894
78521SOL    HW253174  12.903   2.101   8.618 -1.8717  1.8428 -2.7406
78522SOL     OW53175  12.705   0.605   2.870  0.0500  0.3467 -0.5603
78522SOL    HW153176  12.736   0.675   2.927 -1.3148 -0.7754  1.7496
78522SOL    HW253177  12.667   0.541   2.931 -3.5640  0.0559 -2.8459
78523SOL     OW53178   5.549   6.051   0.187 -0.0670  0.1607 -0.6726
78523SOL    HW153179   5.468   6.009   0.161  0.2522  1.3245 -4.0001
78523SOL    HW253180   5.557   6.127   0.130  2.3335  1.3328  1.0099
78524SOL     OW53181  13.014  10.195   1.619  0.3382  0.5263  0.2172
78524SOL    HW153182  13.072  10.270   1.605  1.0239  0.1032  0.7497
78524SOL    HW253183  13.071  10.119   1.607 -0.4389  0.0743 -0.7042
78525SOL     OW53184   5.831   2.023   6.200  0.0345 -0.1612 -0.3328
78525SOL    HW153185   5.895   2.037   6.130  0.5901 -2.0544 -0.2547
78525SOL    HW253186   5.876   1.965   6.262 -0.8500  0.5678  1.0539
78526SOL     OW53187   6.318   1.043   9.972 -0.1444  0.1685 -0.4628
78526SOL    HW153188   6.230   1.009   9.956 -0.7876  1.8229 -0.6801
78526SOL    HW253189   6.350   1.067   9.885 -0.5540  1.9760 -0.1610
78527SOL     OW53190   0.476  10.265  12.321  0.1600 -0.0094  0.4051
78527SOL    HW153191   0.426  10.187  12.344 -2.0033  0.5270 -1.9963
78527SOL    HW253192   0.420  10.338  12.348 -0.1143  0.6216 -1.7049
78528SOL     OW53193  13.309  12.268   7.547 -0.4760 -0.6925  0.0184
78528SOL    HW153194  13.290  12.359   7.569 -1.5867 -1.0278  0.5406
78528SOL    HW253195  13.261  12.253   7.465 -0.3562 -0.8250 -0.0280
78529SOL     OW53196   9.493   8.539   7.911  0.4727  0.4236  0.0873
78529SOL    HW153197   9.574   8.503   7.875 -0.3484 -1.6313  0.1700
78529SOL    HW253198   9.438   8.463   7.929 -1.0738  1.6865  1.0636
78530SOL     OW53199   2.703   9.161  12.334  0.3879 -0.4730 -0.8028
78530SOL    HW153200   2.741   9.163  12.246 -0.4608 -1.4168 -1.2008
78530SOL    HW253201   2.720   9.073  12.366  0.5805 -0.1735 -0.0559
78531SOL     OW53202   2.559   2.238   5.243  0.0487  0.0690 -0.1358
78531SOL    HW153203   2.497   2.178   5.287  0.0629 -0.7801 -1.2292
78531SOL    HW253204   2.603   2.283   5.315  1.0223 -2.2243  0.8245
78532SOL     OW53205   6.507   9.245   9.013 -0.1362 -0.1131  0.6011
78532SOL    HW153206   6.442   9.231   9.082  0.7929 -0.8401  1.3420
78532SOL    HW253207   6.590   9.222   9.053  0.4492 -0.3577 -0.7169
78533SOL     OW53208   7.540   0.198  11.409  0.7862 -0.1735 -0.3883
78533SOL    HW153209   7.476   0.216  11.478 -0.0173 -0.2772 -1.0829
78533SOL    HW253210   7.618   0.247  11.435 -0.0118  1.0286 -0.1703
78534SOL     OW53211   9.525   9.904   3.507 -0.3823  0.0419 -0.2794
78534SOL    HW153212   9.488   9.827   3.551  0.5432 -1.2527 -1.6871
78534SOL    HW253213   9.490   9.901   3.419  0.2933  0.8009 -0.5876
78535SOL     OW53214   2.256  12.337  10.886 -0.7060  0.0983 -0.2435
78535SOL    HW153215   2.232  12.316  10.977 -1.5068  0.3510 -0.3859
78535SOL    HW253216   2.172  12.355  10.843 -0.2762  0.6963 -0.8520
78536SOL     OW53217   2.364  10.094  11.119  0.0392  0.5255 -0.3964
78536SOL    HW153218   2.435  10.142  11.162  2.2304 -0.7238 -2.4316
78536SOL    HW253219   2.285  10.144  11.141  1.4573  1.8879  2.0802
78537SOL     OW53220  12.228   4.852   5.133 -0.6186  0.6052  0.3754
78537SOL    HW153221  12.158   4.795   5.101  2.1733 -2.8208 -0.1945
78537SOL    HW253222  12.237   4.919   5.066  0.1918 -2.1519 -2.5113
78538SOL     OW53223   0.452   0.110   3.312 -1.2753 -0.1559 -0.1974
78538SOL    HW153224   0.412   0.196   3.324 -2.1536 -0.3203 -1.7004
78538SOL    HW253225   0.411   0.055   3.379  1.7704  1.2558  3.1311
78539SOL     OW53226  10.667  11.656  10.977  0.2975 -0.3786  0.1240
78539SOL    HW153227  10.755  11.619  10.984  0.1609 -0.6653  0.3224
78539SOL    HW253228  10.608  11.580  10.981 -0.0440 -0.0512  1.7559
78540SOL     OW53229   0.024   4.291  11.738 -0.2599  0.1523  0.8739
78540SOL    HW153230  -0.043   4.358  11.747 -2.1161 -1.4342 -0.1427
78540SOL    HW253231   0.024   4.245  11.821 -1.2187 -0.4795  0.5428
78541SOL     OW53232  12.592   5.812   7.510  0.1200 -0.0021  0.1839
78541SOL    HW153233  12.656   5.822   7.580  0.2937  0.6113 -0.0532
78541SOL    HW253234  12.533   5.887   7.519 -0.9083 -0.8394  0.7281
78542SOL     OW53235  11.392  12.253   5.034  0.0482 -0.1149  0.4098
78542SOL    HW153236  11.443  12.243   4.954 -0.4376 -2.2785  0.3162
78542SOL    HW253237  11.451  12.227   5.104  0.2150  1.0017  0.7053
78543SOL     OW53238   3.838   0.232  10.281 -0.3549 -0.4030  0.2324
78543SOL    HW153239   3.815   0.223  10.188 -1.2880  1.6077  0.2212
78543SOL    HW253240   3.798   0.156  10.323  1.8141 -2.5103 -1.2303
78544SOL     OW53241   8.064   8.148   2.574  0.7193 -0.2640  0.2681
78544SOL    HW153242   8.046   8.238   2.602  1.1247  0.3323 -1.3021
78544SOL    HW253243   8.159   8.145   2.562  0.6285 -0.6910 -0.3643
78545SOL     OW53244   5.216  14.062   0.104  0.7887  0.2341 -0.4841
78545SOL    HW153245   5.299  14.107   0.089  0.1863  0.9226 -1.9551
78545SOL    HW253246   5.192  14.086   0.194  2.0140  0.2544 -0.1379
78546SOL     OW53247   7.168  10.116   4.210  0.3465  0.1482  0.1428
78546SOL    HW153248   7.154  10.175   4.284 -1.1607 -1.0586  0.8569
78546SOL    HW253249   7.227  10.049   4.243  0.0106 -0.1585  0.1197
78547SOL     OW53250   4.493   2.729   7.248  0.5122  0.0128  0.1890
78547SOL    HW153251   4.536   2.770   7.174  0.8364  0.7199  0.7571
78547SOL    HW253252   4.562   2.722   7.315  0.3691 -1.1086  0.2365
78548SOL     OW53253   3.779   7.496   6.447  0.2368  0.4699 -0.3233
78548SOL    HW153254   3.846   7.492   6.379 -0.1942  0.1170 -0.7305
78548SOL    HW253255   3.828   7.492   6.529  0.6568 -0.7627 -0.6181
78549SOL     OW53256  12.310   3.981   5.345  0.6817  0.4077 -0.0913
78549SOL    HW153257  12.236   3.946   5.295 -0.4582 -0.3798  2.0312
78549SOL    HW253258  12.387   3.936   5.308 -0.0342  0.2627 -1.4672
78550SOL     OW53259   9.925   6.356   2.857  0.4236  0.2227 -0.3654
78550SOL    HW153260  10.016   6.366   2.887  0.6347  0.7832 -1.1467
78550SOL    HW253261   9.925   6.272   2.810  0.1509 -0.5316  0.9352
78551SOL     OW53262   0.112  13.091  14.016  0.2888 -0.5507 -0.0316
78551SOL    HW153263   0.091  13.160  14.079  0.3845 -0.8398  0.3179
78551SOL    HW253264   0.046  13.024  14.031 -1.8190  0.7630 -2.4962
78552SOL     OW53265   5.023  13.708   3.838  0.0330  0.0833 -0.0840
78552SOL    HW153266   5.064  13.793   3.819  0.5543 -0.1315  0.0525
78552SOL    HW253267   5.062  13.681   3.921  0.6487 -0.7692 -0.6311
78553SOL     OW53268   4.487   9.511   0.859 -0.6282  0.2931  0.0640
78553SOL    HW153269   4.506   9.453   0.933  1.2035  0.0718 -0.5323
78553SOL    HW253270   4.440   9.456   0.797  0.0789 -0.2314 -0.0114
78554SOL     OW53271   9.748  10.749   5.571  0.3433 -0.4612 -0.3865
78554SOL    HW153272   9.691  10.826   5.566 -0.4035 -0.9638  0.1159
78554SOL    HW253273   9.719  10.702   5.649  0.6058 -1.3961 -0.8264
78555SOL     OW53274   7.642   3.070   2.779  0.7356 -0.0957 -0.3782
78555SOL    HW153275   7.612   2.980   2.774 -1.4560  0.4255  1.8667
78555SOL    HW253276   7.714   3.068   2.842 -0.0326 -0.1304  0.5092
78556SOL     OW53277   7.756   2.343   5.592  0.5497  0.7074 -0.0894
78556SOL    HW153278   7.769   2.250   5.611  1.6401  1.0455  0.9379
78556SOL    HW253279   7.662   2.356   5.600  0.2192 -0.5508 -1.4872
78557SOL     OW53280   5.538  11.572   5.531  0.1727 -0.1652 -0.0796
78557SOL    HW153281   5.611  11.609   5.580  0.1392 -1.1906  0.7701
78557SOL    HW253282   5.514  11.641   5.468  1.6326  0.3177 -0.1432
78558SOL     OW53283   7.763   3.220   8.450  0.0866  0.3745 -0.0710
78558SOL    HW153284   7.730   3.158   8.515 -1.4262  0.0949 -1.0440
78558SOL    HW253285   7.856   3.230   8.470  0.1442 -1.4637  0.7101
78559SOL     OW53286   2.448  13.483   8.205  0.1210  0.5569 -0.1135
78559SOL    HW153287   2.385  13.413   8.224 -0.7925  1.4748  0.3854
78559SOL    HW253288   2.397  13.547   8.155  0.7185  1.1982  0.0832
78560SOL     OW53289   5.916   6.338   1.792  0.0531  0.0900 -0.3241
78560SOL    HW153290   5.862   6.378   1.724 -0.6371  1.3042  0.8807
78560SOL    HW253291   5.913   6.400   1.865  1.4738 -0.7546  0.5110
78561SOL     OW53292   1.948   5.789   4.980  0.1837  0.6528  0.0596
78561SOL    HW153293   1.944   5.709   4.928 -0.4371  1.0559 -0.5414
78561SOL    HW253294   2.031   5.784   5.027  0.2719 -0.2095 -0.1795
78562SOL     OW53295   4.541  11.974   7.658 -0.0412 -0.4463  0.0456
78562SOL    HW153296   4.532  11.920   7.580 -0.4445 -1.1193  0.5503
78562SOL    HW253297   4.628  12.013   7.650 -0.3613  0.0918 -1.1047
78563SOL     OW53298   0.482   3.259   5.624  0.0282 -0.3129 -0.0569
78563SOL    HW153299   0.455   3.170   5.602 -0.3111 -0.0301 -0.8033
78563SOL    HW253300   0.486   3.304   5.540 -1.7239  0.9145  0.4799
78564SOL     OW53301   8.148  11.401  13.037  0.0438 -0.3318 -0.3200
78564SOL    HW153302   8.072  11.436  12.990  0.7625  1.3924 -0.2682
78564SOL    HW253303   8.148  11.448  13.120  0.9574 -0.5931 -0.1655
78565SOL     OW53304   9.318   9.326   2.092 -0.0002 -0.1405 -0.0042
78565SOL    HW153305   9.236   9.308   2.138  1.1550 -1.7446  1.5458
78565SOL    HW253306   9.309   9.278   2.009 -1.0777  0.6820 -0.3894
78566SOL     OW53307  13.495  10.525   7.382  0.2980 -0.3340  0.2119
78566SOL    HW153308  13.563  10.496   7.444 -1.9066 -0.9478  2.5042
78566SOL    HW253309  13.414  10.488   7.417 -1.3038  0.6756 -2.2141
78567SOL     OW53310   6.639   6.259  12.600 -0.3939  0.1352  0.2764
78567SOL    HW153311   6.563   6.207  12.629 -0.5302  0.2402  0.1105
78567SOL    HW253312   6.603   6.346  12.586 -0.4390 -0.0386 -0.7099
78568SOL     OW53313  10.022   9.029   5.136 -0.2730 -0.2573  0.0901
78568SOL    HW153314  10.033   8.934   5.127 -0.0200 -0.1898 -0.3642
78568SOL    HW253315  10.041   9.047   5.228  1.9153 -0.3612 -0.2895
78569SOL     OW53316  11.631   2.742  13.077 -0.5004 -0.4261 -0.2904
78569SOL    HW153317  11.698   2.680  13.049  0.1283  0.1507 -0.0948
78569SOL    HW253318  11.675   2.827  13.078 -0.8074 -0.2465  1.2695
78570SOL     OW53319   5.361   7.132   9.625  0.1781  0.2777  0.3700
78570SOL    HW153320   5.354   7.151   9.532  0.1553 -2.3340 -0.2398
78570SOL    HW253321   5.445   7.169   9.652  0.1822  1.0600 -0.6663
78571SOL     OW53322   3.527  10.152  11.880  0.2505 -0.6308  0.3342
78571SOL    HW153323   3.448  10.098  11.882 -0.4887  0.4546  1.5697
78571SOL    HW253324   3.546  10.171  11.972 -1.0849  3.3927 -0.0289
78572SOL     OW53325   6.240  10.263   6.014 -0.1064  0.3421  0.0506
78572SOL    HW153326   6.320  10.316   6.017  0.8567 -0.9403 -1.5826
78572SOL    HW253327   6.257  10.190   6.073  0.4973 -0.6401 -1.3057
78573SOL     OW53328   0.598   2.593   9.966 -0.0353  0.5985 -0.1951
78573SOL    HW153329   0.635   2.506   9.948 -0.3006  0.2977  0.6910
78573SOL    HW253330   0.610   2.641   9.884  1.4739  0.2127 -0.2205
78574SOL     OW53331   8.405   0.760   8.625 -0.3816  0.2937  0.1959
78574SOL    HW153332   8.496   0.732   8.614 -0.7899 -1.1238  0.1564
78574SOL    HW253333   8.395   0.832   8.563  0.7439  0.5644  0.2987
78575SOL     OW53334   1.860   4.546  11.845  0.1855  0.2707 -0.6244
78575SOL    HW153335   1.891   4.467  11.889 -0.1619  0.4185 -0.1011
78575SOL    HW253336   1.931   4.609  11.856  0.4150  0.0670 -0.9419
78576SOL     OW53337   6.377  11.475   4.486  0.0993  0.2016 -0.4197
78576SOL    HW153338   6.408  11.537   4.420 -1.0331 -1.0833 -2.2669
78576SOL    HW253339   6.292  11.445   4.452 -0.1786 -1.0632  1.2673
78577SOL     OW53340  11.772   5.470   5.390  0.3079  0.7482 -0.0541
78577SOL    HW153341  11.713   5.520   5.446 -1.3568 -0.2311 -0.8764
78577SOL    HW253342  11.808   5.402   5.447 -1.1769 -0.0793 -0.0382
78578SOL     OW53343   0.245   6.798  13.560  0.1973 -0.6054  0.3043
78578SOL    HW153344   0.267   6.808  13.467  0.6799 -1.4021  0.3253
78578SOL    HW253345   0.302   6.728  13.591  0.6495  0.2370  1.4187
78579SOL     OW53346   5.141  12.090   4.322 -0.6457  0.0182  1.1730
78579SOL    HW153347   5.202  12.041   4.267  0.4157 -1.9124  3.8482
78579SOL    HW253348   5.055  12.068   4.288 -0.1014 -2.4333  1.2093
78580SOL     OW53349   8.526  13.671   4.018 -1.2858  0.1371  0.0289
78580SOL    HW153350   8.513  13.741   3.953  0.3263  2.6404  2.2262
78580SOL    HW253351   8.443  13.669   4.067 -0.8644  1.5916  0.8629
78581SOL     OW53352  12.307   8.509   9.718 -0.0080  0.1252  0.2395
78581SOL    HW153353  12.218   8.544   9.728 -0.1643 -0.3273  0.4874
78581SOL    HW253354  12.296   8.414   9.727  0.5858  0.1131  0.9219
78582SOL     OW53355   5.019   1.854   9.300 -0.0985  0.1061 -0.3666
78582SOL    HW153356   4.984   1.769   9.326  1.8387 -0.7033 -0.2650
78582SOL    HW253357   5.100   1.834   9.253  1.2043  1.9474  0.9631
78583SOL     OW53358  13.901  10.330  14.040  0.1660  0.0160  0.1196
78583SOL    HW153359  13.977  10.279  14.066  2.0831  2.6960  0.1464
78583SOL    HW253360  13.898  10.402  14.102 -1.0133  1.2148 -1.2546
78584SOL     OW53361   9.530   0.132   5.357  0.2006 -0.1867 -0.0603
78584SOL    HW153362   9.435   0.134   5.350  0.2353  1.0722 -0.5024
78584SOL    HW253363   9.560   0.183   5.282  1.2148 -0.1881  0.3275
78585SOL     OW53364  12.243   7.088   7.329  0.2711  0.1481  0.5512
78585SOL    HW153365  12.246   7.151   7.257  0.6684  1.3947  1.6238
78585SOL    HW253366  12.320   7.033   7.315 -0.5854 -0.7670 -0.9278
78586SOL     OW53367  11.342   0.353  10.638 -0.0906 -0.3114 -0.7851
78586SOL    HW153368  11.286   0.408  10.583  0.6778  1.3655  0.0036
78586SOL    HW253369  11.394   0.416  10.688  0.0510 -1.7741  1.0108
78587SOL     OW53370   0.788   0.271   4.065  0.2779  0.3032 -0.2689
78587SOL    HW153371   0.822   0.354   4.032  0.2266  1.3285  2.0303
78587SOL    HW253372   0.701   0.293   4.099  0.9714 -0.2011  2.0156
78588SOL     OW53373  12.727  12.944  13.825 -0.2974 -0.1088  0.4894
78588SOL    HW153374  12.769  12.858  13.835  1.6149  0.7852  0.5774
78588SOL    HW253375  12.708  12.951  13.731 -1.1667 -0.9135  0.5906
78589SOL     OW53376  13.832   4.000  14.062  0.7903 -0.2537  0.2211
78589SOL    HW153377  13.899   4.017  13.996  1.2749  1.4130  1.1026
78589SOL    HW253378  13.769   4.072  14.052  0.1385 -0.7474  0.6785
78590SOL     OW53379   3.259   8.415   6.524 -0.1335 -0.3738  0.1111
78590SOL    HW153380   3.177   8.400   6.477  1.0186 -1.1590 -1.7648
78590SOL    HW253381   3.275   8.332   6.570 -1.0829  0.2770  1.7174
78591SOL     OW53382   3.347   3.403   6.133 -0.3939  0.1037  0.4261
78591SOL    HW153383   3.413   3.352   6.085 -1.6322 -1.4180  0.2556
78591SOL    HW253384   3.297   3.448   6.065  0.6821  1.6002  0.5762
78592SOL     OW53385  10.132   3.551  12.769  0.4017  0.5415  0.3801
78592SOL    HW153386  10.053   3.600  12.791 -1.0867 -0.4613 -2.2714
78592SOL    HW253387  10.185   3.612  12.717 -0.9252 -0.1681 -1.9407
78593SOL     OW53388   3.110   1.918   3.609  0.0524  0.1608  0.2416
78593SOL    HW153389   3.049   1.910   3.537  1.0901 -0.9634 -0.5416
78593SOL    HW253390   3.197   1.918   3.568  0.7430 -1.9882  1.5314
78594SOL     OW53391  12.053   4.082   8.026 -0.2050  0.0218  0.2612
78594SOL    HW153392  11.972   4.033   8.007 -0.1201  0.2968 -0.8820
78594SOL    HW253393  12.034   4.128   8.107 -1.4129  0.5023 -0.2557
78595SOL     OW53394   6.298   6.217  11.536  0.2414 -0.0135  0.4060
78595SOL    HW153395   6.311   6.131  11.575 -0.6919  0.0907  0.9838
78595SOL    HW253396   6.381   6.237  11.494  0.3521 -1.3635 -0.0838
78596SOL     OW53397   8.008  10.655   7.593 -0.3583 -0.2008 -0.0985
78596SOL    HW153398   8.095  10.635   7.629  0.2141  1.0064 -0.7437
78596SOL    HW253399   7.957  10.685   7.668 -1.3657 -4.1361  0.9917
78597SOL     OW53400   0.934   1.467  13.159 -0.2644  0.4731  0.6260
78597SOL    HW153401   0.975   1.394  13.113  0.6114  0.5948  1.1929
78597SOL    HW253402   0.840   1.454  13.145 -0.2726 -1.7627  2.1377
78598SOL     OW53403   8.185   5.523   1.886 -0.4797 -0.0485 -0.3642
78598SOL    HW153404   8.099   5.486   1.907 -0.0455 -1.6796 -1.2654
78598SOL    HW253405   8.248   5.459   1.921  0.3201  0.2389 -1.2267
78599SOL     OW53406  12.304   7.815   2.090 -0.4420 -0.5775 -0.1103
78599SOL    HW153407  12.396   7.790   2.096 -1.3411 -4.2695  0.9986
78599SOL    HW253408  12.269   7.800   2.178 -1.8377  2.4601 -0.0082
78600SOL     OW53409  11.384   1.522   3.817  0.0497  0.1979  0.2353
78600SOL    HW153410  11.401   1.612   3.792  2.2062 -0.0751  0.5599
78600SOL    HW253411  11.358   1.527   3.909  0.5523  0.4665  0.3665
78601SOL     OW53412  10.902   8.696  12.130 -0.0854  0.2312 -0.3012
78601SOL    HW153413  10.834   8.631  12.110  0.1988 -0.3152  0.4561
78601SOL    HW253414  10.853   8.774  12.156 -0.4515 -0.3306  0.7775
78602SOL     OW53415   3.870  13.751   3.015  0.1965  0.1631  0.3838
78602SOL    HW153416   3.922  13.764   2.936  2.1207  0.0669  1.5545
78602SOL    HW253417   3.825  13.834   3.028  1.3765  0.8615  0.1974
78603SOL     OW53418   2.563   9.035  11.985  0.5102 -0.5540  0.5299
78603SOL    HW153419   2.473   9.019  12.012  0.5281 -1.4964  0.0766
78603SOL    HW253420   2.571   9.130  11.982 -0.8363 -0.4450 -0.6630
78604SOL     OW53421   2.986   0.999  13.525  0.0648  0.4285  0.1865
78604SOL    HW153422   2.936   0.939  13.470 -1.4099  0.2575  1.6523
78604SOL    HW253423   2.966   1.086  13.490 -0.8748  0.3244  0.4497
78605SOL     OW53424   7.398  12.372  11.013  0.1054  0.0241  0.3107
78605SOL    HW153425   7.396  12.467  11.021  0.3355  0.1326 -0.7566
78605SOL    HW253426   7.491  12.350  11.006 -0.0238 -0.0332 -1.7855
78606SOL     OW53427   3.835  14.072   9.824 -0.1225 -0.2539  0.4906
78606SOL    HW153428   3.923  14.072   9.861 -0.2291  0.0001  0.7510
78606SOL    HW253429   3.829  14.154   9.775 -0.2636 -0.1987  0.5973
78607SOL     OW53430   8.390   9.009  13.444  0.4039  0.4532  0.1591
78607SOL    HW153431   8.379   8.923  13.484 -0.1881  0.4254 -0.0544
78607SOL    HW253432   8.301   9.038  13.424  0.5969  1.1369  0.2702
78608SOL     OW53433  13.847   8.506   1.877  0.3868 -0.2521 -0.2403
78608SOL    HW153434  13.762   8.463   1.862  0.7369 -0.3826 -2.1561
78608SOL    HW253435  13.860   8.561   1.799  1.5037  0.7386  0.6014
78609SOL     OW53436  13.687   4.744  11.715 -0.0458  0.3529  0.2425
78609SOL    HW153437  13.770   4.761  11.761 -0.2833  0.3152  0.6934
78609SOL    HW253438  13.706   4.765  11.624  0.8689 -1.0202  0.0876
78610SOL     OW53439   1.921  10.579  14.035  0.4923 -0.2405 -0.1752
78610SOL    HW153440   1.890  10.646  13.974  2.2410 -0.5198 -1.4473
78610SOL    HW253441   1.980  10.626  14.094 -0.1440 -0.2427  0.4904
78611SOL     OW53442   1.789   4.390   4.727 -0.3189  0.3162 -0.2990
78611SOL    HW153443   1.722   4.398   4.659  0.0681 -0.4042 -0.7749
78611SOL    HW253444   1.871   4.380   4.679 -0.0308 -0.0967  0.2711
78612SOL     OW53445   9.653  10.604   5.236  0.0961 -0.3105  0.2635
78612SOL    HW153446   9.569  10.571   5.269  0.2422 -0.6718  0.2764
78612SOL    HW253447   9.719  10.561   5.291  0.2790  0.1614  0.4129
78613SOL     OW53448   8.694   6.954   2.327 -0.1731 -0.8378 -0.3453
78613SOL    HW153449   8.615   6.976   2.279 -1.4637  0.2914  2.0861
78613SOL    HW253450   8.663   6.912   2.407  1.6938 -0.6788  0.5333
78614SOL     OW53451   4.257   6.588   5.990 -0.1015  0.2937  0.2890
78614SOL    HW153452   4.280   6.524   5.922 -0.6212  0.5328 -0.1247
78614SOL    HW253453   4.315   6.568   6.063 -0.8330 -1.2260  0.5027
78615SOL     OW53454   2.945   3.555   4.605 -0.1867  0.4823 -0.3566
78615SOL    HW153455   2.973   3.646   4.590  2.1529  0.5118  3.0427
78615SOL    HW253456   2.978   3.507   4.529  0.0553  2.1876 -1.3806
78616SOL     OW53457   6.200   0.219  13.701 -0.2232 -0.3362  0.1768
78616SOL    HW153458   6.135   0.275  13.657  0.7198  0.2993 -0.4309
78616SOL    HW253459   6.282   0.268  13.694  0.2976 -1.0638  1.0770
78617SOL     OW53460   8.823   9.224   0.024  0.2884 -0.1149 -0.2425
78617SOL    HW153461   8.735   9.261   0.012 -0.3692 -1.4119  0.4299
78617SOL    HW253462   8.861   9.276   0.095 -0.1268  0.1169 -0.1861
78618SOL     OW53463  14.068   7.403   7.934  0.0978  0.0347 -0.7257
78618SOL    HW153464  14.125   7.333   7.902 -0.8443 -1.2873  0.3486
78618SOL    HW253465  13.987   7.358   7.959 -0.5857  1.5370 -0.1309
78619SOL     OW53466   7.235   5.754   9.843 -0.2641  0.3499  0.6958
78619SOL    HW153467   7.267   5.739   9.754 -1.3093 -1.5659  0.5903
78619SOL    HW253468   7.295   5.819   9.879  0.2205  1.1399 -1.3714
78620SOL     OW53469   8.236   9.079  10.725 -0.0892  0.2620  0.4242
78620SOL    HW153470   8.270   9.164  10.696 -1.7681  0.3505 -1.5375
78620SOL    HW253471   8.305   9.016  10.703  1.0062  1.0301  1.5351
78621SOL     OW53472  10.774   5.325   3.989 -0.6020  0.2031 -0.6447
78621SOL    HW153473  10.840   5.256   3.993 -1.3277 -0.5126 -0.8702
78621SOL    HW253474  10.728   5.318   4.073 -0.1926  0.9211 -0.3458
78622SOL     OW53475  10.171   3.430   4.785  0.0113 -0.0513 -0.3112
78622SOL    HW153476  10.098   3.394   4.834 -0.5006  0.5892 -0.5932
78622SOL    HW253477  10.194   3.360   4.723 -1.5434  0.3953 -1.4512
78623SOL     OW53478   3.184   8.695  13.356 -0.0059 -0.0386 -0.0394
78623SOL    HW153479   3.099   8.706  13.399  0.7620  1.4566  1.2148
78623SOL    HW253480   3.230   8.777  13.374  1.6816 -0.7873 -0.7462
78624SOL     OW53481   8.696   5.059   0.076  0.3588  0.0166  0.8317
78624SOL    HW153482   8.633   5.131   0.077  1.0367  0.6443  0.1878
78624SOL    HW253483   8.772   5.093   0.123  0.3937 -0.5733  1.2157
78625SOL     OW53484   4.138  12.944   4.382 -0.7396 -0.2407  0.4112
78625SOL    HW153485   4.162  12.999   4.308 -0.6669 -1.5599 -0.5806
78625SOL    HW253486   4.044  12.957   4.392 -0.8948 -0.6511 -0.4290
78626SOL     OW53487   2.397  13.492   7.545 -0.0388 -0.4554 -0.3051
78626SOL    HW153488   2.478  13.477   7.496  2.0078  2.6992  1.7473
78626SOL    HW253489   2.368  13.578   7.516 -1.5395 -0.6672  0.4981
78627SOL     OW53490   4.781   8.698   3.392  0.0964  0.0877 -0.1300
78627SOL    HW153491   4.812   8.639   3.460  0.9940 -0.0894 -0.6671
78627SOL    HW253492   4.686   8.691   3.394  0.1584 -0.6390  0.4602
78628SOL     OW53493   4.361   5.241   6.641  0.4556 -0.1626  0.0190
78628SOL    HW153494   4.433   5.189   6.678  0.5976 -1.8773 -2.3744
78628SOL    HW253495   4.292   5.177   6.625 -0.3725  0.8731 -0.6703
78629SOL     OW53496  12.619   4.645  10.128  0.2554  0.2408  0.5285
78629SOL    HW153497  12.575   4.571  10.087  0.2716 -0.8121  2.2915
78629SOL    HW253498  12.549   4.704  10.154  0.0153 -0.4726  1.5358
78630SOL     OW53499   8.692   7.095   6.618 -0.2868  0.2100 -0.1906
78630SOL    HW153500   8.700   7.190   6.607  2.9969  0.1419  0.5745
78630SOL    HW253501   8.648   7.065   6.538 -1.3923  2.3346 -0.4502
78631SOL     OW53502   2.699   3.400   4.637 -0.0058 -0.3928  0.2005
78631SOL    HW153503   2.711   3.492   4.658  0.8145 -0.1194 -1.3028
78631SOL    HW253504   2.605   3.385   4.643 -0.1136  0.4655  0.7395
78632SOL     OW53505  13.413   6.644  11.964  0.0590  0.2107  0.4811
78632SOL    HW153506  13.445   6.620  12.050  1.0787  0.3418  0.1488
78632SOL    HW253507  13.461   6.587  11.903  0.9048  1.5449 -0.1475
78633SOL     OW53508   3.533   0.633  12.812  0.1477 -0.9238 -0.0080
78633SOL    HW153509   3.574   0.560  12.856  1.6578 -0.3007 -0.3199
78633SOL    HW253510   3.550   0.709  12.868  1.5048 -0.2470 -1.2516
78634SOL     OW53511   9.138   2.575   7.493 -0.0895  0.0601  0.8189
78634SOL    HW153512   9.171   2.665   7.503 -0.0669 -0.1497  3.1146
78634SOL    HW253513   9.086   2.578   7.412  0.1999  2.0436  0.6430
78635SOL     OW53514   1.079  11.936   2.630  0.3305  0.3869 -0.6964
78635SOL    HW153515   1.044  12.013   2.675  0.9121 -0.2216  0.8686
78635SOL    HW253516   1.172  11.954   2.622  0.4024  0.0241 -0.6765
78636SOL     OW53517   0.625   6.074  12.521 -0.2425  0.7562  0.3320
78636SOL    HW153518   0.642   6.006  12.586 -1.8433 -1.4433 -1.3706
78636SOL    HW253519   0.693   6.140  12.536  1.4639 -1.2489  2.0349
78637SOL     OW53520   9.501   3.777   5.322  0.2942  0.1152 -0.5722
78637SOL    HW153521   9.517   3.871   5.331 -1.3499  0.2322  2.1874
78637SOL    HW253522   9.413   3.771   5.284  0.0657 -0.2856  0.0092
78638SOL     OW53523   2.247  10.024   5.799  0.0795 -0.4367 -0.0391
78638SOL    HW153524   2.154  10.015   5.821  0.2196 -1.2471  0.2620
78638SOL    HW253525   2.276   9.935   5.782  0.3230  0.0134 -2.2273
78639SOL     OW53526  12.820  11.690  10.553  0.4706 -0.0163  0.7160
78639SOL    HW153527  12.895  11.653  10.599  1.4725  1.1372  0.0615
78639SOL    HW253528  12.839  11.783  10.545 -1.1519  0.3487  0.7410
78640SOL     OW53529   6.969   1.635  10.768 -0.2353  0.4860  0.3131
78640SOL    HW153530   6.962   1.667  10.857 -0.5845 -0.1189  0.5072
78640SOL    HW253531   6.888   1.663  10.725 -1.1732 -1.2179  0.8504
78641SOL     OW53532   4.670   0.075   0.803  0.4163 -0.2263 -0.1679
78641SOL    HW153533   4.599   0.021   0.768 -1.0049  0.6458  1.2725
78641SOL    HW253534   4.677   0.149   0.741  0.5621 -0.6588 -0.6785
78642SOL     OW53535   7.598   0.847  10.160 -0.1930  0.1342 -0.3487
78642SOL    HW153536   7.645   0.929  10.149 -1.5566  1.3881  2.3448
78642SOL    HW253537   7.550   0.836  10.078  0.7623  1.4683 -1.1369
78643SOL     OW53538   4.388   7.350  10.889 -0.2883  0.4976 -0.3806
78643SOL    HW153539   4.306   7.397  10.873 -0.7751  0.0447  0.6740
78643SOL    HW253540   4.444   7.415  10.932 -1.1612  0.0306  1.6066
78644SOL     OW53541   3.302   1.992   6.219 -0.4772 -0.7460 -0.6645
78644SOL    HW153542   3.303   1.901   6.250 -2.1295 -0.8833 -0.9210
78644SOL    HW253543   3.382   2.030   6.255 -0.6873 -1.7853  1.0248
78645SOL     OW53544  10.439  10.210   2.622 -0.2492 -0.5892 -0.1637
78645SOL    HW153545  10.376  10.283   2.622 -0.1194 -0.4758 -0.1344
78645SOL    HW253546  10.476  10.211   2.710 -0.7308 -1.1156  0.0501
78646SOL     OW53547  12.881   2.256   8.196  0.6450 -0.3115  0.2290
78646SOL    HW153548  12.876   2.160   8.205 -2.0625 -0.1203  1.9419
78646SOL    HW253549  12.807   2.278   8.140 -1.9539  1.0204  3.8109
78647SOL     OW53550  11.170  11.101   5.615  0.0036 -0.2410 -0.2615
78647SOL    HW153551  11.216  11.184   5.626 -0.0062 -0.4089  1.2202
78647SOL    HW253552  11.080  11.121   5.639 -0.4394 -0.2408 -1.8173
78648SOL     OW53553   4.241   2.123  11.809 -0.2860 -0.3671 -0.4568
78648SOL    HW153554   4.161   2.118  11.862  0.3511  0.5503  0.6444
78648SOL    HW253555   4.273   2.032  11.805 -0.8180 -0.5791  0.0104
78649SOL     OW53556   7.514   1.917   7.457 -0.2439 -0.5788 -0.1955
78649SOL    HW153557   7.424   1.920   7.425 -0.7393 -0.8416  1.0793
78649SOL    HW253558   7.558   1.990   7.414 -1.3707  0.2398 -0.0108
78650SOL     OW53559   2.543   9.201   7.166 -0.3197  0.0110  0.4368
78650SOL    HW153560   2.537   9.237   7.077 -1.3148 -1.5733 -0.1975
78650SOL    HW253561   2.483   9.254   7.218 -0.4546  0.3518 -0.0577
78651SOL     OW53562  11.989   0.136   2.178  0.2726 -0.5582  1.0976
78651SOL    HW153563  12.070   0.165   2.221  2.0798 -2.4947 -0.7483
78651SOL    HW253564  11.976   0.047   2.211  0.9169 -1.5538 -1.1738
78652SOL     OW53565   8.391  13.456   0.831  0.2551 -0.1772  0.6102
78652SOL    HW153566   8.457  13.390   0.851 -0.3830 -0.6832  1.0706
78652SOL    HW253567   8.360  13.486   0.916 -0.0562  0.1210  0.3958
78653SOL     OW53568   3.640   0.829   0.613 -0.4438 -0.3842  0.4287
78653SOL    HW153569   3.588   0.750   0.628  1.3541 -1.9913 -1.2590
78653SOL    HW253570   3.593   0.875   0.543 -1.1477 -0.2786  0.9608
78654SOL     OW53571   2.675   4.397   6.873  0.5026  0.1720 -0.6799
78654SOL    HW153572   2.738   4.447   6.925  0.3521  1.7276 -1.9252
78654SOL    HW253573   2.599   4.455   6.864 -0.4724 -1.0392 -0.5689
78655SOL     OW53574   2.321  13.694   5.202  0.4694 -0.0100  0.1629
78655SOL    HW153575   2.310  13.789   5.200  0.1814 -0.0504 -0.7341
78655SOL    HW253576   2.397  13.677   5.147 -0.0198 -0.3614 -0.4128
78656SOL     OW53577   9.461   3.933   5.670  0.1879 -0.2386 -0.9103
78656SOL    HW153578   9.437   3.922   5.762  2.3130 -1.7832 -0.4491
78656SOL    HW253579   9.386   3.900   5.621 -0.0246 -1.6827  0.3305
78657SOL     OW53580   9.067  10.241   2.065  0.0883 -0.3786  0.2469
78657SOL    HW153581   9.141  10.191   2.100  0.5553  0.0048 -0.1936
78657SOL    HW253582   8.998  10.175   2.055  0.7646 -0.9974 -0.5387
78658SOL     OW53583  13.291   1.693   7.813 -0.3283 -0.0472 -0.1170
78658SOL    HW153584  13.279   1.601   7.788 -1.4093  0.2246 -0.6737
78658SOL    HW253585  13.329   1.689   7.901  2.8376 -1.0411 -1.3868
78659SOL     OW53586   5.138  11.004  10.392  0.0109  0.4154 -0.1525
78659SOL    HW153587   5.134  10.942  10.464 -0.6864  0.4996 -0.1069
78659SOL    HW253588   5.108  10.954  10.316  2.7761 -0.3035 -0.8647
78660SOL     OW53589   8.457   7.179   4.756  0.0825  0.0118  0.0977
78660SOL    HW153590   8.520   7.249   4.742  0.8006 -0.2314  1.8282
78660SOL    HW253591   8.375   7.212   4.719  0.2952  1.9685  1.2600
78661SOL     OW53592  11.796  13.162   7.145 -0.0729  0.1675 -0.3882
78661SOL    HW153593  11.744  13.083   7.142  1.3757 -0.7995 -1.8890
78661SOL    HW253594  11.883  13.135   7.113  1.1821  1.8205  1.3774
78662SOL     OW53595   3.915   5.618   8.206 -0.5468 -0.1823 -0.1053
78662SOL    HW153596   3.855   5.675   8.254  0.2580 -0.2310  0.9993
78662SOL    HW253597   3.990   5.674   8.185 -1.1816  0.0273 -1.9563
78663SOL     OW53598  10.695  12.485   7.325 -0.5541  0.3142 -0.8088
78663SOL    HW153599  10.758  12.440   7.268  0.5190 -0.7761  1.1619
78663SOL    HW253600  10.743  12.561   7.358 -0.1609 -0.6134  0.8374
78664SOL     OW53601  13.125   3.663   3.257 -0.1668 -0.8913  0.8774
78664SOL    HW153602  13.174   3.664   3.339  1.0393 -1.1189  0.1813
78664SOL    HW253603  13.108   3.755   3.238  0.3827 -0.7794  0.9056
78665SOL     OW53604   2.960  11.121   0.107  0.2819  0.1928  0.1107
78665SOL    HW153605   3.021  11.118   0.034 -0.7532  0.5234 -0.8040
78665SOL    HW253606   2.930  11.212   0.109  0.0582  0.1122  0.7455
78666SOL     OW53607   0.486  11.662   7.270 -0.3112  0.2430  0.2937
78666SOL    HW153608   0.574  11.699   7.271  0.0244 -0.4325 -1.2128
78666SOL    HW253609   0.492  11.587   7.210 -2.0980  0.6562 -0.4706
78667SOL     OW53610  13.009   9.143   3.606  0.2540 -0.0950  0.6348
78667SOL    HW153611  12.983   9.136   3.514  0.1849  0.0014  0.6459
78667SOL    HW253612  12.988   9.234   3.629  0.3093 -0.1080  0.7341
78668SOL     OW53613  13.201   1.451   1.937  0.0780  0.2091 -0.0394
78668SOL    HW153614  13.228   1.403   2.015 -0.2801  0.5977  0.3296
78668SOL    HW253615  13.255   1.415   1.867 -2.0046 -2.6702 -0.3307
78669SOL     OW53616   7.493   8.641   2.150  0.1512 -0.0586 -0.3055
78669SOL    HW153617   7.438   8.685   2.215  1.6103  0.7772  0.4202
78669SOL    HW253618   7.496   8.550   2.179 -2.0262 -0.4902 -1.2159
78670SOL     OW53619   2.832   4.242   3.072  0.1447  0.1854 -0.3810
78670SOL    HW153620   2.901   4.261   3.009  0.5268 -1.1731 -0.4045
78670SOL    HW253621   2.777   4.177   3.028 -0.1976  0.0253  0.2756
78671SOL     OW53622   0.486  13.833  10.599  0.7008  0.1599  0.1893
78671SOL    HW153623   0.431  13.767  10.641 -2.1017  2.3713  0.2980
78671SOL    HW253624   0.569  13.829  10.647 -0.0073 -1.9404  1.3927
78672SOL     OW53625   6.870  12.720   6.441  0.1924 -0.1269 -0.1006
78672SOL    HW153626   6.825  12.714   6.357 -0.8118  1.1518  0.3113
78672SOL    HW253627   6.961  12.699   6.421 -0.3812 -1.9338 -1.1165
78673SOL     OW53628  14.060  10.411   4.544 -0.5150 -0.7461  0.8749
78673SOL    HW153629  14.090  10.368   4.624  0.4541 -1.4069  0.1698
78673SOL    HW253630  14.071  10.346   4.475  0.3322  0.3815 -0.0980
78674SOL     OW53631   7.780  10.442   0.780 -0.3615 -0.1258  0.3470
78674SOL    HW153632   7.686  10.432   0.771 -1.0017  2.2393  2.9614
78674SOL    HW253633   7.810  10.358   0.816 -1.9536 -0.0904  1.8943
78675SOL     OW53634  12.874   7.099   1.582 -0.0353  0.2275  0.4198
78675SOL    HW153635  12.934   7.152   1.529 -1.8499  0.1767 -1.8585
78675SOL    HW253636  12.884   7.010   1.548 -0.8592  0.0991  0.4867
78676SOL     OW53637   1.466  11.889   1.674 -0.4119  0.0424 -1.1593
78676SOL    HW153638   1.520  11.811   1.686  2.0803  1.6987 -0.9533
78676SOL    HW253639   1.437  11.885   1.583 -2.4673 -2.2998 -0.5314
78677SOL     OW53640   2.058   7.086   7.299  0.0089  0.1093 -0.2152
78677SOL    HW153641   2.014   7.121   7.222  0.2414 -1.7895 -1.2742
78677SOL    HW253642   1.987   7.070   7.362 -0.5221 -0.6961 -1.0025
78678SOL     OW53643  14.078   5.135   3.786  0.0264 -0.1266 -0.3204
78678SOL    HW153644  14.098   5.146   3.879  0.0733  0.7018 -0.4236
78678SOL    HW253645  14.145   5.074   3.755 -1.1877 -2.0351  0.6045
78679SOL     OW53646   8.042   2.635   8.722  0.5920 -0.6979  0.3234
78679SOL    HW153647   8.123   2.671   8.685 -0.6469  1.3121 -0.6027
78679SOL    HW253648   8.020   2.562   8.665 -0.7676  1.7483 -2.5275
78680SOL     OW53649  11.752   9.784   4.791 -0.0574 -0.1842  0.0317
78680SOL    HW153650  11.787   9.854   4.846 -0.6858 -0.6958  1.1169
78680SOL    HW253651  11.822   9.720   4.786  0.2199  0.1418 -0.2732
78681SOL     OW53652   9.013  11.089   6.497  0.4416  0.6197 -0.1192
78681SOL    HW153653   9.070  11.138   6.438 -0.8205  0.7979 -1.2502
78681SOL    HW253654   8.987  11.152   6.564  0.6968  0.8361 -0.2261
78682SOL     OW53655  11.721   7.004  12.854  0.0071  0.2796  0.3428
78682SOL    HW153656  11.642   6.999  12.906 -0.2064 -1.0922 -0.0873
78682SOL    HW253657  11.729   6.918  12.813  0.9079  0.8740 -0.7952
78683SOL     OW53658   5.027   6.216   3.380  0.5981 -0.1293  0.2844
78683SOL    HW153659   5.071   6.234   3.463  0.2643 -0.2857  0.4947
78683SOL    HW253660   4.997   6.302   3.350  2.6117  0.2679 -0.7629
78684SOL     OW53661   5.225   4.806   1.880  0.2411  0.6396 -0.2025
78684SOL    HW153662   5.198   4.762   1.799 -0.1209 -0.5793  0.5592
78684SOL    HW253663   5.144   4.821   1.928  0.4674  1.2360  0.0113
78685SOL     OW53664   3.695   8.552   7.492  0.3490  0.4767 -0.0613
78685SOL    HW153665   3.709   8.477   7.434 -0.2640  0.1257  0.2333
78685SOL    HW253666   3.627   8.603   7.450  0.6193  0.7590 -0.1561
78686SOL     OW53667  12.674   1.571   0.472  0.8100 -0.5147 -0.2489
78686SOL    HW153668  12.760   1.574   0.514  1.1864  2.0718 -1.0117
78686SOL    HW253669  12.690   1.595   0.381 -0.5485 -1.5155 -0.7826
78687SOL     OW53670   2.737  10.214   4.693 -0.3640  0.2656  0.1491
78687SOL    HW153671   2.751  10.278   4.762 -0.7861  1.6981 -1.0430
78687SOL    HW253672   2.802  10.235   4.626 -1.0439  0.0141 -0.6237
78688SOL     OW53673   6.459   9.103   3.778 -0.3185 -0.6809 -0.4874
78688SOL    HW153674   6.393   9.168   3.800  0.6927  0.4495 -0.6963
78688SOL    HW253675   6.474   9.113   3.684  0.2209 -0.8446 -0.4262
78689SOL     OW53676   5.898   1.202  11.148  0.4591  0.3645 -0.9025
78689SOL    HW153677   5.871   1.279  11.198 -0.5843  0.2870 -1.3191
78689SOL    HW253678   5.984   1.179  11.183 -0.6115 -0.2577  1.5201
78690SOL     OW53679  10.716   8.226   1.417 -0.1506  0.0393 -0.0638
78690SOL    HW153680  10.703   8.158   1.352 -0.3427  0.5373 -0.5545
78690SOL    HW253681  10.688   8.186   1.500 -0.6928 -0.3244 -0.4159
78691SOL     OW53682   3.974  11.154   3.664 -0.2709 -0.1199  0.0625
78691SOL    HW153683   4.057  11.180   3.625  0.9005 -0.6134  2.1234
78691SOL    HW253684   3.979  11.059   3.670 -0.8349 -0.1243  0.5420
78692SOL     OW53685   4.037   6.436   3.965 -0.2054 -0.0167 -0.6257
78692SOL    HW153686   3.978   6.458   4.037 -0.4568 -1.8812 -0.2308
78692SOL    HW253687   3.980   6.411   3.893  0.0444  1.8430 -1.5508
78693SOL     OW53688   2.607  10.978   0.793  0.1902  0.2691 -0.2850
78693SOL    HW153689   2.599  11.008   0.703  1.1480  0.5864 -0.2732
78693SOL    HW253690   2.647  11.051   0.840 -2.9430  1.2669  1.0786
78694SOL     OW53691   1.134   3.791   8.461  0.1991 -0.0532 -0.1050
78694SOL    HW153692   1.073   3.779   8.534 -3.2260 -0.0326 -2.7090
78694SOL    HW253693   1.173   3.704   8.448 -0.8557 -0.6162  0.3713
78695SOL     OW53694  12.925  10.027   8.319 -0.4369  0.0707  0.7182
78695SOL    HW153695  13.016  10.047   8.338  0.3176 -1.2966 -1.2003
78695SOL    HW253696  12.900  10.087   8.250 -0.8596  0.1406  0.9263
78696SOL     OW53697  11.442  13.183   6.041 -0.0107 -0.1849  0.1712
78696SOL    HW153698  11.461  13.224   6.126 -1.0780 -1.8052  1.2326
78696SOL    HW253699  11.349  13.199   6.027  0.0579 -0.3427 -0.4753
78697SOL     OW53700   0.353   3.053  13.815  0.0439  0.3052  0.0152
78697SOL    HW153701   0.386   3.143  13.811  3.0655 -0.7132 -2.1357
78697SOL    HW253702   0.397   3.015  13.891 -0.3563  0.3580  0.2715
78698SOL     OW53703   2.039   6.508   8.946 -0.3764 -0.5752  0.0262
78698SOL    HW153704   2.130   6.536   8.948 -0.2733 -0.9278  1.7015
78698SOL    HW253705   2.043   6.414   8.925 -0.3860 -0.5003 -0.3158
78699SOL     OW53706  13.193   6.386   1.310  0.0148 -0.1520 -0.2608
78699SOL    HW153707  13.252   6.312   1.326 -1.1953 -1.1075 -0.0709
78699SOL    HW253708  13.250   6.462   1.308  1.3260 -1.1042 -0.6316
78700SOL     OW53709   3.592  10.939  12.411 -0.4463 -0.1039  0.3919
78700SOL    HW153710   3.620  10.860  12.457  0.7048  0.2606  0.3370
78700SOL    HW253711   3.505  10.917  12.378  0.3914 -1.8674 -0.8404
78701SOL     OW53712   0.839  12.425   2.319 -0.4161 -0.1932 -0.6694
78701SOL    HW153713   0.821  12.464   2.233  1.6836  1.6491 -0.3533
78701SOL    HW253714   0.883  12.494   2.369 -0.3234 -1.6599  1.4271
78702SOL     OW53715   4.179   4.398  12.486  0.4850  0.3946  0.4580
78702SOL    HW153716   4.244   4.385  12.417 -0.6401 -2.3505 -0.2281
78702SOL    HW253717   4.125   4.471  12.456 -0.3388 -1.0895 -1.9404
78703SOL     OW53718   7.882   9.290   0.869 -0.2777  0.3303  0.5890
78703SOL    HW153719   7.791   9.316   0.884  0.1797  1.1962  2.1595
78703SOL    HW253720   7.931   9.337   0.936  1.6917  1.9678 -1.8430
78704SOL     OW53721   8.711   8.879  12.713 -0.1578 -0.2601  0.1656
78704SOL    HW153722   8.693   8.792  12.677 -0.0026  0.3304 -1.4405
78704SOL    HW253723   8.795   8.871  12.757 -1.1204 -1.4162  1.9169
78705SOL     OW53724   3.229   3.132   1.569 -0.2013 -0.2578 -0.2457
78705SOL    HW153725   3.198   3.043   1.555  0.5743 -0.4132 -1.0447
78705SOL    HW253726   3.289   3.149   1.496 -0.6921  1.0821 -0.3740
78706SOL     OW53727   8.193   9.778   1.182  0.2123 -0.1374  0.1159
78706SOL    HW153728   8.177   9.724   1.105 -0.7102 -0.2989  0.4129
78706SOL    HW253729   8.274   9.825   1.162  1.4027 -2.1030  0.1058
78707SOL     OW53730   8.080  10.770   6.528  0.0742 -0.1988  0.0283
78707SOL    HW153731   8.105  10.736   6.614  1.1712  0.6764  0.0812
78707SOL    HW253732   8.103  10.700   6.467  0.1132 -0.4736  0.3563
78708SOL     OW53733   4.643   8.256   6.506 -0.2353  0.5360 -0.2414
78708SOL    HW153734   4.655   8.289   6.595 -2.6822  0.5812  0.1413
78708SOL    HW253735   4.729   8.220   6.482  0.2681 -0.3106  2.4613
78709SOL     OW53736  13.197   8.693  10.192  0.1333 -0.1300  0.0105
78709SOL    HW153737  13.200   8.779  10.150  0.1701  0.0804  0.4431
78709SOL    HW253738  13.205   8.631  10.119 -1.1251  0.2056 -0.4331
78710SOL     OW53739   9.126  11.670  12.284 -0.0525 -0.0106  0.0471
78710SOL    HW153740   9.072  11.739  12.324  1.8827  1.0766  0.9619
78710SOL    HW253741   9.194  11.718  12.236 -0.5629 -1.3226 -2.1399
78711SOL     OW53742  10.559  13.544   5.905 -0.1153  0.5719  0.1940
78711SOL    HW153743  10.536  13.637   5.896  1.0007  0.9521  0.9744
78711SOL    HW253744  10.509  13.500   5.837 -0.7799  1.7328 -0.0972
78712SOL     OW53745   3.347   9.262   0.868  0.4208  0.2062 -0.2925
78712SOL    HW153746   3.393   9.225   0.944 -0.5061  0.6810  0.5192
78712SOL    HW253747   3.256   9.234   0.879 -0.2410  2.3852  0.1395
78713SOL     OW53748  11.226   5.473  12.277  0.1042  0.2112  0.6288
78713SOL    HW153749  11.180   5.395  12.246 -0.8027  1.1767 -0.5602
78713SOL    HW253750  11.156   5.534  12.301  0.6772  1.7398 -1.2860
78714SOL     OW53751   8.423  12.992   3.826 -0.2316 -0.3996  0.1550
78714SOL    HW153752   8.447  13.081   3.851  0.2598 -0.8442  1.3343
78714SOL    HW253753   8.500  12.959   3.778  0.0039 -0.5349  0.6212
78715SOL     OW53754   1.618   6.831  11.687 -0.1570  0.0135  0.1620
78715SOL    HW153755   1.624   6.867  11.599 -1.0573 -1.0164 -0.3322
78715SOL    HW253756   1.568   6.896  11.737 -2.5970 -0.8841 -0.9556
78716SOL     OW53757   9.947  11.488  13.973  0.1033  0.5277  0.1250
78716SOL    HW153758  10.023  11.486  13.914 -0.0196 -1.9121 -0.0651
78716SOL    HW253759   9.973  11.545  14.045  2.2249 -0.4411  0.1799
78717SOL     OW53760   0.866  12.491   6.530  0.2461  0.3561  0.0387
78717SOL    HW153761   0.920  12.412   6.536  0.3657  0.4515  0.2433
78717SOL    HW253762   0.781  12.465   6.567 -0.0318  0.0481 -0.7962
78718SOL     OW53763   7.457   9.934   4.840  0.6536  0.0914  0.7467
78718SOL    HW153764   7.548   9.911   4.856  1.4841  0.1499 -2.9845
78718SOL    HW253765   7.459  10.028   4.820  0.0882 -0.1976 -0.8270
78719SOL     OW53766  12.638  10.096  10.435  0.5756  0.1066  0.0156
78719SOL    HW153767  12.676  10.132  10.355  0.2719  0.0640 -0.1460
78719SOL    HW253768  12.692  10.133  10.505  1.1010 -0.1922 -0.2322
78720SOL     OW53769  12.103   7.429   7.673  0.1209 -0.0564 -1.4549
78720SOL    HW153770  12.123   7.520   7.693 -0.1055  0.0062 -1.5092
78720SOL    HW253771  12.076   7.430   7.581 -0.0156 -0.1548 -1.4170
78721SOL     OW53772  13.533   2.109   4.303 -0.0907 -0.0321  0.0512
78721SOL    HW153773  13.498   2.128   4.390 -1.4653  0.1842 -0.5301
78721SOL    HW253774  13.623   2.079   4.320 -0.9471 -1.9352  1.7296
78722SOL     OW53775  13.268  11.911  13.020  0.6962  0.1175  0.7934
78722SOL    HW153776  13.201  11.977  13.004  0.5146 -0.2519 -0.0343
78722SOL    HW253777  13.229  11.829  12.991  1.4782 -0.1115  0.3597
78723SOL     OW53778   0.044  11.060   5.507 -0.2592  0.0316 -0.4412
78723SOL    HW153779   0.028  10.967   5.494  0.3991 -0.0052 -1.0476
78723SOL    HW253780  -0.007  11.104   5.439 -0.4619  0.1095 -0.2408
78724SOL     OW53781   9.428  10.859   3.203  0.1730  0.3749  0.6540
78724SOL    HW153782   9.379  10.932   3.241 -1.0908 -0.1046 -0.0019
78724SOL    HW253783   9.362  10.806   3.160  1.2630 -0.4167 -0.0847
78725SOL     OW53784  13.303   2.674   1.210 -0.3330 -0.1851  0.2286
78725SOL    HW153785  13.330   2.766   1.212 -0.9983  0.0317  2.7856
78725SOL    HW253786  13.379   2.626   1.243 -0.5338 -0.3686  0.4278
78726SOL     OW53787  10.439  11.152   1.058  0.4905 -0.1424  0.0549
78726SOL    HW153788  10.433  11.229   1.002  2.2480  0.3739  0.5155
78726SOL    HW253789  10.494  11.091   1.008  1.5737  0.0918  0.9200
78727SOL     OW53790  11.064   0.961  13.969 -0.0168  0.8091 -0.0182
78727SOL    HW153791  11.012   0.890  13.931  0.5966  0.5030 -0.3070
78727SOL    HW253792  11.023   1.041  13.937 -2.3543  0.7336  2.3803
78728SOL     OW53793   7.770   3.494   6.085 -0.0916  0.0249  0.1882
78728SOL    HW153794   7.718   3.562   6.041 -1.5136 -1.2461 -0.2008
78728SOL    HW253795   7.719   3.413   6.072  1.5047 -1.1077  0.6921
78729SOL     OW53796   7.718   5.616   3.714  0.0867 -0.2823 -0.2387
78729SOL    HW153797   7.646   5.557   3.693 -0.8014  1.1403 -1.3605
78729SOL    HW253798   7.716   5.683   3.645  1.2693  0.8547  0.7698
78730SOL     OW53799   7.889   1.824  13.542  0.1536  0.2745  0.4714
78730SOL    HW153800   7.883   1.902  13.487 -2.7891 -0.4234 -0.3713
78730SOL    HW253801   7.978   1.792  13.528  0.1410  1.2030 -2.4065
78731SOL     OW53802   3.677   7.652   3.843 -0.0449  0.1766  0.0357
78731SOL    HW153803   3.633   7.567   3.837 -0.3281  0.3712 -0.7904
78731SOL    HW253804   3.769   7.630   3.862 -0.7281 -0.1905  3.7662
78732SOL     OW53805   2.116   4.193  12.710 -0.4996  0.0071 -0.0172
78732SOL    HW153806   2.136   4.100  12.705 -0.2388  0.0794 -0.3850
78732SOL    HW253807   2.103   4.211  12.803  0.2145 -0.2368  0.1332
78733SOL     OW53808   1.719  12.925   0.689 -0.5372  0.0157 -0.0478
78733SOL    HW153809   1.673  12.993   0.740  0.4749  0.3393  0.4544
78733SOL    HW253810   1.717  12.958   0.599  3.2227  2.7603  0.6059
78734SOL     OW53811   8.180   7.541   7.641  0.0992 -0.0917  0.0369
78734SOL    HW153812   8.166   7.623   7.689  0.0357 -0.0837  0.0055
78734SOL    HW253813   8.127   7.476   7.688 -0.2877  0.0031 -0.2622
78735SOL     OW53814   4.859   4.172  12.909 -0.1041  0.0903  0.7142
78735SOL    HW153815   4.951   4.160  12.934  0.1600 -0.8708 -0.6318
78735SOL    HW253816   4.862   4.203  12.819 -1.1276 -1.0098  0.2802
78736SOL     OW53817   3.204  12.165   0.145  0.2880 -0.6165 -0.1182
78736SOL    HW153818   3.270  12.230   0.121 -0.5099  1.0273  1.8579
78736SOL    HW253819   3.180  12.125   0.062  1.2927  1.1594 -1.3527
78737SOL     OW53820   0.587  12.243   7.810  0.2869 -0.2898 -0.1612
78737SOL    HW153821   0.642  12.251   7.888  0.0243  1.7754 -0.1478
78737SOL    HW253822   0.530  12.168   7.828 -2.4256  2.3077  3.3655
78738SOL     OW53823  10.039   3.402   3.627  0.1188  0.1556  0.0929
78738SOL    HW153824  10.077   3.342   3.563 -0.9195  1.8197 -2.2295
78738SOL    HW253825   9.950   3.417   3.597  0.4158  3.0429  0.3794
78739SOL     OW53826   0.063   4.308  10.659 -0.1175 -0.4818 -0.2192
78739SOL    HW153827  -0.004   4.252  10.619  0.2178  0.2143 -1.8261
78739SOL    HW253828   0.138   4.302  10.599 -0.3948  2.4101 -1.0022
78740SOL     OW53829   5.237   4.300  10.638 -0.2757 -0.0305 -0.4195
78740SOL    HW153830   5.211   4.247  10.562  1.2661  1.0125 -1.7392
78740SOL    HW253831   5.278   4.377  10.600  0.9724  0.3082  1.5074
78741SOL     OW53832  13.766   3.935   2.132 -0.5135  0.3345  0.3178
78741SOL    HW153833  13.806   3.853   2.161 -1.4073  0.2440  1.3808
78741SOL    HW253834  13.748   3.982   2.214  0.5065  1.8536 -0.2933
78742SOL     OW53835   8.274   0.903  11.904 -0.8301  0.1406 -0.3304
78742SOL    HW153836   8.309   0.980  11.860 -0.6242 -0.2163 -0.8015
78742SOL    HW253837   8.238   0.937  11.986  3.3206  0.1760  1.7296
78743SOL     OW53838   6.732   3.883   1.275 -0.6550  0.0359 -0.3089
78743SOL    HW153839   6.716   3.908   1.366  2.2463 -0.1688  0.3711
78743SOL    HW253840   6.727   3.965   1.226  1.3446  0.8585  0.6996
78744SOL     OW53841   4.826   4.793  10.501 -0.3525  0.1893 -0.4133
78744SOL    HW153842   4.823   4.851  10.425  1.6693  2.3405  0.9985
78744SOL    HW253843   4.868   4.845  10.570  0.9181 -2.7316  1.2167
78745SOL     OW53844   0.377   4.058   5.324 -0.4720 -0.0411  0.1118
78745SOL    HW153845   0.397   4.011   5.243 -1.8896 -1.1069  0.3253
78745SOL    HW253846   0.454   4.112   5.341  0.3230 -0.6696 -1.3215
78746SOL     OW53847  13.488   6.836   6.623 -0.1862 -0.1894  0.0615
78746SOL    HW153848  13.412   6.821   6.680 -0.3913 -0.8552 -0.3848
78746SOL    HW253849  13.527   6.917   6.657 -2.1121  1.1552 -0.8032
78747SOL     OW53850  13.324   7.695  10.600  0.3956  0.2267 -0.0001
78747SOL    HW153851  13.284   7.739  10.675  2.0193  0.6029  0.6858
78747SOL    HW253852  13.252   7.681  10.539 -0.5365  2.0385  0.6154
78748SOL     OW53853  10.214   4.633   3.024 -0.1064 -0.6335  0.8831
78748SOL    HW153854  10.246   4.613   2.936  1.7321 -0.3729  1.4477
78748SOL    HW253855  10.161   4.712   3.012 -1.1980 -1.4939 -0.2099
78749SOL     OW53856  10.092  14.087   9.917  0.1042  0.4093  0.1302
78749SOL    HW153857  10.143  14.167   9.929  0.9479 -0.1907  0.6776
78749SOL    HW253858  10.021  14.095   9.980  0.4692  0.5171  0.5397
78750SOL     OW53859  13.185   8.329   2.294  0.1288 -0.0896 -0.1194
78750SOL    HW153860  13.238   8.389   2.242  1.2209 -0.6987  0.2616
78750SOL    HW253861  13.181   8.249   2.242  1.0448 -0.6300  0.6188
78751SOL     OW53862   9.131  11.914   3.075  0.1675 -0.0356 -0.1467
78751SOL    HW153863   9.201  11.879   3.130  0.2672 -1.7393 -1.2825
78751SOL    HW253864   9.068  11.842   3.067  0.0400  0.2159 -2.0231
78752SOL     OW53865   0.514   0.280  13.371  0.3601  0.0351 -0.1010
78752SOL    HW153866   0.559   0.264  13.454  2.1754 -0.5269 -1.1318
78752SOL    HW253867   0.474   0.196  13.348  0.4497  0.0032 -0.1390
78753SOL     OW53868   5.459  13.220   0.850  0.5250 -0.1412 -0.0101
78753SOL    HW153869   5.477  13.304   0.809  0.5340 -0.7106 -1.2370
78753SOL    HW253870   5.510  13.221   0.931  1.3373  0.6281 -0.5151
78754SOL     OW53871   2.388  11.974   7.258  0.4299  0.2620 -0.2401
78754SOL    HW153872   2.462  11.974   7.197  0.4136  1.7420 -0.2759
78754SOL    HW253873   2.311  11.986   7.202  0.4791  2.5133  0.0860
78755SOL     OW53874  12.000  11.312   9.036  1.0079 -0.5438  0.7366
78755SOL    HW153875  11.974  11.220   9.041  0.0125 -0.2477  1.3269
78755SOL    HW253876  11.917  11.360   9.032  1.5348  0.2727 -0.8503
78756SOL     OW53877   5.129   3.486   2.512 -0.4408  0.3292 -0.4888
78756SOL    HW153878   5.218   3.520   2.504 -0.2187 -0.2327 -0.5136
78756SOL    HW253879   5.102   3.468   2.422 -1.2869  2.1963 -0.6555
78757SOL     OW53880   9.288   2.593  10.201  0.3931  0.0462  0.7685
78757SOL    HW153881   9.270   2.622  10.291 -2.0065 -0.0480  0.3960
78757SOL    HW253882   9.269   2.499  10.202  0.3919  0.0358  0.1706
78758SOL     OW53883   8.524  11.143   1.298  0.1222  0.4691 -0.1352
78758SOL    HW153884   8.453  11.176   1.353 -0.1562 -0.2116 -0.0704
78758SOL    HW253885   8.498  11.053   1.277  1.2501  0.0038  0.3863
78759SOL     OW53886   8.182  12.754   9.751  0.0020  0.1964 -0.0980
78759SOL    HW153887   8.184  12.850   9.758 -2.0451  0.5873 -2.9295
78759SOL    HW253888   8.099  12.729   9.791  0.4305 -0.4130  0.4358
78760SOL     OW53889   7.647   3.172  11.002 -0.5417  0.0960  0.0633
78760SOL    HW153890   7.561   3.144  11.034 -1.0540 -0.1190 -1.4189
78760SOL    HW253891   7.677   3.099  10.947  1.0438 -0.2493  1.3380
78761SOL     OW53892   3.492  10.419   8.185  0.0101  0.1554 -0.3111
78761SOL    HW153893   3.442  10.382   8.113 -0.0045  0.9680 -0.7342
78761SOL    HW253894   3.544  10.346   8.218 -1.3046 -0.6502  0.0174
78762SOL     OW53895   2.723  12.033  13.298 -0.4642  0.1680  0.0335
78762SOL    HW153896   2.781  12.107  13.283 -0.1226  0.3302  1.8776
78762SOL    HW253897   2.713  12.029  13.394 -0.3840 -2.2250  0.0047
78763SOL     OW53898   6.790   7.986   4.935 -0.5704  0.6765 -0.0096
78763SOL    HW153899   6.756   8.075   4.921  1.7743  1.5098 -1.0635
78763SOL    HW253900   6.724   7.929   4.897 -1.8234  2.0134  0.0600
78764SOL     OW53901   1.041   6.274   1.292  0.3161 -0.2466  0.0282
78764SOL    HW153902   0.952   6.308   1.300 -0.3936 -1.3302 -2.3089
78764SOL    HW253903   1.038   6.187   1.332  0.3700 -0.2173  0.0964
78765SOL     OW53904   4.062   5.238   9.030 -0.5351 -0.3131  0.0610
78765SOL    HW153905   4.142   5.187   9.019 -0.5892 -0.1984 -0.9703
78765SOL    HW253906   3.994   5.184   8.991 -0.5221  0.7189 -1.4661
78766SOL     OW53907   6.927   4.455  11.868 -0.0642 -0.9314  0.5187
78766SOL    HW153908   6.938   4.368  11.829  0.3250 -0.6874  0.0705
78766SOL    HW253909   6.835   4.477  11.852 -0.0026 -0.9928  0.0597
78767SOL     OW53910   2.728   0.061   6.558  0.8342  0.0673 -0.1855
78767SOL    HW153911   2.657   0.109   6.515 -0.4025 -0.6442  0.9835
78767SOL    HW253912   2.683  -0.009   6.607  2.4611 -1.3491 -0.6330
78768SOL     OW53913  13.075   8.522   7.688 -0.2790 -0.1652  0.1047
78768SOL    HW153914  12.980   8.508   7.693 -0.4133  0.6958  0.1364
78768SOL    HW253915  13.112   8.435   7.699 -1.0386 -0.3905  1.0705
78769SOL     OW53916  10.674   2.092   0.749 -0.4076  0.3772  0.1717
78769SOL    HW153917  10.688   2.060   0.837 -0.7683  1.7876  0.7756
78769SOL    HW253918  10.759   2.127   0.722 -0.4404  0.4834  0.2036
78770SOL     OW53919   0.479   6.360  10.535  0.2884  0.2037  0.2037
78770SOL    HW153920   0.486   6.305  10.456 -0.4441  0.5786 -0.1342
78770SOL    HW253921   0.485   6.449  10.503  2.8431  0.3481  0.9025
78771SOL     OW53922   7.439   2.612  10.180 -0.0452 -0.0225  0.1995
78771SOL    HW153923   7.396   2.669  10.243 -1.6105 -0.0588 -0.7863
78771SOL    HW253924   7.491   2.552  10.233 -0.7341  0.4205  1.4102
78772SOL     OW53925   6.526   7.192   2.131  0.0697  0.0322 -0.5969
78772SOL    HW153926   6.443   7.147   2.112 -1.0051  1.1555  1.2002
78772SOL    HW253927   6.560   7.148   2.209  2.3565 -1.8538 -2.5149
78773SOL     OW53928  10.256   6.737   0.333  0.1090 -0.5886  0.5800
78773SOL    HW153929  10.286   6.827   0.320  0.4120 -0.7139  0.3835
78773SOL    HW253930  10.197   6.720   0.260 -0.5175 -0.3108  1.0174
78774SOL     OW53931   2.350   7.471   2.377  0.3267  0.5654  0.3527
78774SOL    HW153932   2.413   7.399   2.377 -0.7518 -0.4240 -0.1727
78774SOL    HW253933   2.368   7.519   2.458  1.0081 -0.3612  0.7653
78775SOL     OW53934   1.025  11.329   1.657 -0.2632  0.1825 -0.3772
78775SOL    HW153935   0.974  11.260   1.700  0.8812  1.1792  2.9017
78775SOL    HW253936   0.982  11.410   1.683  0.9004  0.8791 -0.5606
78776SOL     OW53937   8.049   0.403   8.313  0.0905 -0.2699  0.1533
78776SOL    HW153938   8.080   0.457   8.385  0.6588 -1.1945  0.6144
78776SOL    HW253939   8.062   0.313   8.342 -1.1843 -0.6838 -0.4445
78777SOL     OW53940   8.218   3.193   7.220  0.3955  0.0898  0.2482
78777SOL    HW153941   8.245   3.178   7.311  1.2275 -0.2930 -0.0593
78777SOL    HW253942   8.239   3.284   7.203  1.7672 -0.2680 -0.0672
78778SOL     OW53943   8.993  12.242  11.765  0.1675 -0.3277  0.2177
78778SOL    HW153944   8.939  12.204  11.835  0.1008  0.7107  0.7569
78778SOL    HW253945   8.989  12.179  11.694  0.6366 -1.6657  1.3302
78779SOL     OW53946   2.390   0.205   8.728  0.0880  0.0047 -0.3592
78779SOL    HW153947   2.411   0.261   8.653 -0.9361  0.1794 -0.5310
78779SOL    HW253948   2.296   0.189   8.720  0.3410 -1.6860 -0.2787
78780SOL     OW53949   4.481   6.346  11.286 -0.2107  0.5941  0.3661
78780SOL    HW153950   4.549   6.348  11.219  1.4290  2.0131  1.9513
78780SOL    HW253951   4.408   6.396  11.250 -0.0945 -0.2045 -1.0222
78781SOL     OW53952  13.088   3.657  10.088 -0.7147 -0.0260 -0.5349
78781SOL    HW153953  13.016   3.623  10.141 -0.5666 -0.0636 -0.3540
78781SOL    HW253954  13.092   3.750  10.109 -0.0541 -0.2134  0.2467
78782SOL     OW53955   8.475   1.596   0.533 -0.4778 -0.2060 -0.7404
78782SOL    HW153956   8.444   1.670   0.481  0.4004 -0.7036 -2.0295
78782SOL    HW253957   8.496   1.634   0.618  2.3019  1.6238 -2.0782
78783SOL     OW53958   3.009  11.904   1.164  0.3876  0.3932  0.6506
78783SOL    HW153959   2.967  11.912   1.078  2.1250  1.3172 -0.1727
78783SOL    HW253960   3.036  11.813   1.170  2.9099  0.8844 -1.2002
78784SOL     OW53961   6.925   6.911   5.026 -0.2949 -0.5379 -0.2725
78784SOL    HW153962   6.967   6.842   5.078  0.8767  0.5366  0.2549
78784SOL    HW253963   6.838   6.920   5.064 -0.1913 -1.2115  0.1379
78785SOL     OW53964   6.807  13.339  10.271  0.3475 -0.4383  0.5316
78785SOL    HW153965   6.750  13.262  10.263 -0.3477 -0.1717  2.4254
78785SOL    HW253966   6.759  13.409  10.226 -0.4897 -0.4029  1.4469
78786SOL     OW53967   2.691   6.655   0.154 -0.2546  0.3837  0.3055
78786SOL    HW153968   2.727   6.674   0.240 -2.2943  1.4434  1.0079
78786SOL    HW253969   2.750   6.699   0.092  0.6281  0.5343  1.2368
78787SOL     OW53970   1.146   6.642   9.242  0.3348 -0.0573 -0.0082
78787SOL    HW153971   1.184   6.575   9.185 -0.0248  0.1413 -0.4864
78787SOL    HW253972   1.076   6.681   9.190 -0.6500 -0.5383  0.9181
78788SOL     OW53973   4.353   7.054  12.338 -0.4640  0.1195  0.1435
78788SOL    HW153974   4.370   7.128  12.397  0.5044 -0.8132  1.0785
78788SOL    HW253975   4.259   7.037  12.347 -1.5530  3.4213 -2.7712
78789SOL     OW53976   2.505   9.895  12.935 -0.2803 -0.9201  0.1753
78789SOL    HW153977   2.501   9.974  12.989 -1.6964 -1.2097  0.5339
78789SOL    HW253978   2.495   9.927  12.845  0.0588 -0.6189  0.2426
78790SOL     OW53979   3.569   2.650  13.418  0.0261 -0.1686 -0.3588
78790SOL    HW153980   3.477   2.629  13.400 -0.4432  1.1618  0.3261
78790SOL    HW253981   3.566   2.704  13.497  1.4856 -0.8082  0.1758
78791SOL     OW53982   0.774   3.657   2.718  0.2010  0.0941 -0.2131
78791SOL    HW153983   0.860   3.634   2.754 -0.3882 -2.6064 -0.3337
78791SOL    HW253984   0.729   3.703   2.789  1.6626  1.5049 -0.1272
78792SOL     OW53985   0.783   8.219  12.428 -0.2695 -0.1621  0.0034
78792SOL    HW153986   0.693   8.188  12.435 -0.2750  0.0045  0.8341
78792SOL    HW253987   0.795   8.275  12.505  0.6859 -0.5599  0.1607
78793SOL     OW53988   6.263   0.891  13.275 -0.5225 -0.0046  0.1304
78793SOL    HW153989   6.295   0.874  13.187 -1.4303  1.4553 -0.5172
78793SOL    HW253990   6.332   0.943  13.316 -0.6989  0.4971 -0.2011
78794SOL     OW53991   7.051   0.036   4.894 -0.3894  0.2857 -0.8240
78794SOL    HW153992   7.144   0.013   4.894 -0.3297  0.3898  1.2252
78794SOL    HW253993   7.046   0.119   4.941 -1.4156  0.9481 -2.0099
78795SOL     OW53994  11.179   1.981   7.457 -0.2927  0.7146 -0.2133
78795SOL    HW153995  11.217   1.908   7.506 -2.7668 -0.0916  0.6582
78795SOL    HW253996  11.206   2.059   7.505 -0.2122  0.1404  0.6986
78796SOL     OW53997  13.579  12.242   1.746 -0.1409  0.1797 -0.8489
78796SOL    HW153998  13.516  12.253   1.675  0.2155  0.3397 -1.1495
78796SOL    HW253999  13.663  12.268   1.707  0.0469  0.3451 -0.3469
78797SOL     OW54000  13.322  12.302   7.164 -0.2152 -0.4376 -0.3554
78797SOL    HW154001  13.360  12.360   7.098  0.7417 -0.9511 -0.2662
78797SOL    HW254002  13.396  12.255   7.201 -0.8628 -0.9488  0.3310
78798SOL     OW54003  13.171   8.651   2.651 -0.3411  0.7418  0.1770
78798SOL    HW154004  13.103   8.719   2.654 -1.0982 -0.0210  0.9209
78798SOL    HW254005  13.123   8.569   2.661  0.7674  0.2234  1.6217
78799SOL     OW54006   1.603   7.425   3.882  0.1694 -0.2234  0.1538
78799SOL    HW154007   1.665   7.418   3.810 -1.2239  1.8991 -1.3815
78799SOL    HW254008   1.657   7.439   3.960  1.6495  0.7407 -0.9932
78800SOL     OW54009   7.693   1.634   7.592 -0.2796  0.4125  0.0759
78800SOL    HW154010   7.724   1.572   7.658  0.3123 -0.6018 -1.1309
78800SOL    HW254011   7.748   1.711   7.604  0.0794  0.0956  0.5203
78801SOL     OW54012   6.530   1.439   6.349 -0.1407  0.1826  0.3107
78801SOL    HW154013   6.621   1.455   6.375  0.0677  0.6472 -0.6423
78801SOL    HW254014   6.478   1.489   6.413  0.2055 -0.9343  1.4997
78802SOL     OW54015   7.570   2.674   2.568  0.4068 -0.5925 -0.5241
78802SOL    HW154016   7.651   2.719   2.545  0.3819  0.3201  1.0339
78802SOL    HW254017   7.595   2.582   2.577  1.1964 -0.3715 -0.4130
78803SOL     OW54018   0.861   3.749   3.645 -0.7664  0.4648  0.2203
78803SOL    HW154019   0.945   3.715   3.675  0.1200  1.9161 -0.5236
78803SOL    HW254020   0.870   3.751   3.549 -1.7403  0.4431  0.1208
78804SOL     OW54021   9.029   0.384   0.049  0.1128 -0.0994 -0.2303
78804SOL    HW154022   9.058   0.407   0.138  0.1213  3.5827 -1.0219
78804SOL    HW254023   8.934   0.391   0.053 -0.0583 -2.0487 -0.0746
78805SOL     OW54024   5.482  11.801   1.687  0.0607 -0.2903 -0.0481
78805SOL    HW154025   5.534  11.868   1.732 -1.1778  0.6491  0.0352
78805SOL    HW254026   5.502  11.720   1.734  1.8995 -0.0857 -0.4084
78806SOL     OW54027   0.175   8.163  12.902  0.4900 -0.1011  0.3855
78806SOL    HW154028   0.211   8.088  12.855  0.8078 -1.5145  2.7238
78806SOL    HW254029   0.086   8.137  12.923  0.5698  0.2261  1.1379
78807SOL     OW54030   0.201   7.612   9.711 -0.6608  0.1318 -0.1273
78807SOL    HW154031   0.117   7.574   9.737 -1.1836 -0.9921 -3.1428
78807SOL    HW254032   0.178   7.688   9.659  0.3259  1.6243  1.5075
78808SOL     OW54033   2.994   7.368  12.150 -0.2492  0.2367 -0.3504
78808SOL    HW154034   2.932   7.410  12.090  0.8604  0.0394 -1.6912
78808SOL    HW254035   3.017   7.437  12.213 -2.1511  0.1795  0.4920
78809SOL     OW54036   6.428   0.534   0.746 -0.4640  0.0820  0.2603
78809SOL    HW154037   6.356   0.576   0.792  1.0026  1.8254  1.0625
78809SOL    HW254038   6.501   0.536   0.808  0.9063  0.4176 -1.2887
78810SOL     OW54039   9.560   2.004   1.849  0.3319 -0.7049  0.9574
78810SOL    HW154040   9.550   1.969   1.937  0.9186 -0.9918  0.9119
78810SOL    HW254041   9.475   1.987   1.807  0.2368 -1.0627  1.2851
78811SOL     OW54042   1.053   1.191   2.524 -0.6895 -0.0658  0.6091
78811SOL    HW154043   1.016   1.203   2.436  2.4492  0.7763 -0.7211
78811SOL    HW254044   1.053   1.096   2.537 -0.3979 -0.2715 -0.7086
78812SOL     OW54045   6.921  12.085   2.748  0.5507 -0.0494  0.2815
78812SOL    HW154046   6.843  12.034   2.727 -0.3800  1.8386 -1.1460
78812SOL    HW254047   6.947  12.055   2.835 -1.1838 -1.4000  0.3902
78813SOL     OW54048   5.867  13.417   0.060  0.0749 -0.2072 -0.2152
78813SOL    HW154049   5.854  13.324   0.078 -2.1991  0.2726  1.0105
78813SOL    HW254050   5.942  13.442   0.115 -1.6465 -0.5807  2.5039
78814SOL     OW54051   6.868   9.988   3.015  0.4699  0.1658  0.0714
78814SOL    HW154052   6.794   9.999   2.956  0.9094 -1.3967 -0.8230
78814SOL    HW254053   6.843   9.913   3.070  1.4325 -0.5060 -0.3727
78815SOL     OW54054  13.838  10.787   5.839  0.0206  0.1053 -0.1910
78815SOL    HW154055  13.781  10.860   5.814  0.5996  0.1314 -1.5488
78815SOL    HW254056  13.811  10.765   5.928  0.0127  2.1352  0.3597
78816SOL     OW54057   3.220  12.421   8.541  0.0442 -0.1765  0.6593
78816SOL    HW154058   3.238  12.515   8.540  0.4097 -0.2454  0.4851
78816SOL    HW254059   3.156  12.408   8.472  0.7321 -0.1937  0.0104
78817SOL     OW54060   4.974   0.398   8.443 -0.3108 -0.0184 -0.5886
78817SOL    HW154061   4.944   0.323   8.494  0.0981 -1.2061 -2.0250
78817SOL    HW254062   4.974   0.367   8.353 -1.1142  2.0523 -1.3557
78818SOL     OW54063  11.246   5.340   3.543 -0.3605  0.0464 -0.0837
78818SOL    HW154064  11.297   5.299   3.474 -0.7357 -0.9446  0.2207
78818SOL    HW254065  11.271   5.294   3.623 -1.1181  0.1049  0.1988
78819SOL     OW54066   1.317   3.403   1.155 -0.2039 -0.1610 -0.0613
78819SOL    HW154067   1.377   3.374   1.086 -0.6924 -0.5821 -0.3127
78819SOL    HW254068   1.351   3.489   1.182  0.4919 -0.3835 -0.2183
78820SOL     OW54069   4.728   3.734   7.553  0.3229 -0.2589  0.0996
78820SOL    HW154070   4.818   3.713   7.574  0.8018  2.5986  1.4806
78820SOL    HW254071   4.685   3.747   7.638 -0.8184  0.4060 -0.5378
78821SOL     OW54072  10.894   0.770   1.985 -0.3441 -0.0023 -0.3059
78821SOL    HW154073  10.954   0.826   2.035 -0.3100  0.0272 -0.3795
78821SOL    HW254074  10.828   0.744   2.049 -0.5593  0.4141 -0.3507
78822SOL     OW54075   5.136   4.540   3.948 -0.3129 -0.0920 -0.0138
78822SOL    HW154076   5.091   4.477   3.891  0.1409 -1.1886  0.7912
78822SOL    HW254077   5.106   4.518   4.036  0.3075  0.4342  0.3375
78823SOL     OW54078   7.528   0.029   6.606  0.3775 -0.4671  0.0644
78823SOL    HW154079   7.523   0.057   6.698  0.5928 -1.8122  0.5095
78823SOL    HW254080   7.619   0.045   6.582  0.8821 -2.0368  0.7722
78824SOL     OW54081   4.486  12.873  12.887  0.1045  0.4852 -0.5026
78824SOL    HW154082   4.532  12.900  12.807  2.0192  1.1185  0.7393
78824SOL    HW254083   4.509  12.940  12.951  0.1362 -0.9778  1.0836
78825SOL     OW54084  12.631   9.791  11.401 -0.1040  0.0592  0.3312
78825SOL    HW154085  12.575   9.852  11.448  1.2329  0.6195  1.2725
78825SOL    HW254086  12.675   9.844  11.334  0.0877 -0.1433  0.2925
78826SOL     OW54087   1.275   2.865   3.346  0.4122  0.1212 -0.0421
78826SOL    HW154088   1.224   2.821   3.278 -0.8519 -1.8002  1.9987
78826SOL    HW254089   1.346   2.804   3.366  1.5769  1.2796 -0.5486
78827SOL     OW54090   4.385   4.235   6.697  0.7122 -0.2743 -0.1774
78827SOL    HW154091   4.449   4.168   6.720  1.4791  0.0095 -1.3672
78827SOL    HW254092   4.437   4.306   6.660 -0.2710 -0.0154 -1.1434
78828SOL     OW54093  12.675  12.636   8.017  0.0137  0.4475 -0.5509
78828SOL    HW154094  12.614  12.637   7.943 -0.9521 -0.7896  0.1957
78828SOL    HW254095  12.619  12.634   8.094  0.9566 -1.6170  0.1530
78829SOL     OW54096   6.476   8.924   2.673 -0.2043 -0.5679 -0.0921
78829SOL    HW154097   6.531   9.002   2.658 -0.4070 -0.2674  0.6687
78829SOL    HW254098   6.398   8.940   2.620 -0.0522 -0.4640 -0.2903
78830SOL     OW54099   3.840  10.710   3.747  0.7385 -1.0242  0.7820
78830SOL    HW154100   3.805  10.622   3.760 -2.2241 -0.3745 -1.5802
78830SOL    HW254101   3.866  10.738   3.835  0.7238 -3.7909  1.7720
78831SOL     OW54102  11.135   0.614   7.801  0.1674 -0.1369 -0.2687
78831SOL    HW154103  11.083   0.658   7.868  1.7171 -1.9369  2.2685
78831SOL    HW254104  11.226   0.628   7.828  0.7658 -2.6555 -0.7979
78832SOL     OW54105  10.828   8.288   6.483  0.4996  0.3056  0.2905
78832SOL    HW154106  10.812   8.349   6.554  1.1808  0.7531  0.0784
78832SOL    HW254107  10.811   8.338   6.403  1.5015  0.3836  0.1010
78833SOL     OW54108   8.252   5.138   0.611  0.0868  0.0172 -0.2099
78833SOL    HW154109   8.298   5.120   0.694  0.4639 -0.7725 -0.5769
78833SOL    HW254110   8.159   5.128   0.632  0.2325 -1.6222 -0.1861
78834SOL     OW54111   1.285   0.188  13.024  0.2315 -0.7184  0.2745
78834SOL    HW154112   1.315   0.111  13.072  1.2313 -0.6196 -0.1730
78834SOL    HW254113   1.217   0.155  12.965 -0.9385 -0.8560  1.6418
78835SOL     OW54114  14.081  13.874  11.236 -0.5643  0.1164  0.0719
78835SOL    HW154115  14.106  13.963  11.263 -0.1745 -0.4107  1.5607
78835SOL    HW254116  14.075  13.825  11.318 -0.5284 -1.3024 -0.7405
78836SOL     OW54117   4.348   6.765  11.885 -0.4121 -0.5453 -0.0486
78836SOL    HW154118   4.361   6.803  11.972  1.3865 -0.7474 -0.1915
78836SOL    HW254119   4.257   6.736  11.884 -1.0156  1.2094  1.0640
78837SOL     OW54120   5.495   9.096  11.899  0.6824 -0.1897 -0.1488
78837SOL    HW154121   5.404   9.110  11.874  0.0291 -4.0817 -0.6105
78837SOL    HW254122   5.546   9.134  11.827 -0.7352 -0.7313 -1.4949
78838SOL     OW54123  10.422  11.969   2.470  0.2142  0.1331  0.5243
78838SOL    HW154124  10.343  11.934   2.513  0.8809 -3.3285 -0.7598
78838SOL    HW254125  10.399  11.973   2.377  1.5255 -1.1079  0.1051
78839SOL     OW54126  11.872   6.454   3.016  0.2302  0.4591  0.4404
78839SOL    HW154127  11.840   6.366   3.036 -0.0116  0.5685  0.5279
78839SOL    HW254128  11.797   6.500   2.979  0.2835  0.7140  0.6457
78840SOL     OW54129  10.577   8.849   6.717 -0.6144 -0.1945 -0.2561
78840SOL    HW154130  10.558   8.939   6.743 -0.3628 -0.4224  0.7752
78840SOL    HW254131  10.672   8.841   6.725 -0.4823 -0.1721 -1.6538
78841SOL     OW54132   6.213   2.393   2.396 -0.3772  0.4661 -0.1121
78841SOL    HW154133   6.233   2.437   2.314  1.4905  0.2534  0.1827
78841SOL    HW254134   6.292   2.403   2.449  0.2290 -3.3264 -0.0531
78842SOL     OW54135   8.525   7.852   1.426  0.5934 -0.3891  0.2533
78842SOL    HW154136   8.556   7.817   1.342  0.3153 -0.1262  0.0403
78842SOL    HW254137   8.433   7.871   1.412  1.2528  3.0087 -0.5527
78843SOL     OW54138   6.726   2.279   7.570 -0.5178  0.3719  0.4064
78843SOL    HW154139   6.631   2.269   7.557 -0.6689  0.5201  1.3359
78843SOL    HW254140   6.735   2.357   7.623  0.1991  0.8494 -0.3913
78844SOL     OW54141  12.595   5.136  10.368  0.3008  0.5497  0.0764
78844SOL    HW154142  12.599   5.232  10.364 -0.1005  0.7443  2.6314
78844SOL    HW254143  12.663   5.106  10.308  0.3502  2.4269 -0.8629
78845SOL     OW54144  12.394   1.396  12.214  0.2266  0.1295  0.8565
78845SOL    HW154145  12.434   1.376  12.299 -2.2233 -1.4249  1.7473
78845SOL    HW254146  12.468   1.408  12.156  2.0040  0.7550  3.0951
78846SOL     OW54147   1.607  12.714   0.833 -0.2362  0.1986  0.1679
78846SOL    HW154148   1.620  12.772   0.908  0.7490  0.6810 -0.3607
78846SOL    HW254149   1.524  12.670   0.851 -1.4223  2.3311  0.2439
78847SOL     OW54150   3.093   9.741  12.881 -0.1373 -0.1167  0.6492
78847SOL    HW154151   3.158   9.811  12.889  0.9189 -1.1889  1.7798
78847SOL    HW254152   3.056   9.753  12.793  1.4529  0.6203  0.0411
78848SOL     OW54153   9.526   0.649   3.949  0.1940 -0.4034 -0.1698
78848SOL    HW154154   9.507   0.653   4.043 -0.2913 -1.0190 -0.2364
78848SOL    HW254155   9.525   0.741   3.921 -0.1878 -0.2510  0.3228
78849SOL     OW54156   5.809  10.925  12.090  0.2898 -0.0114  0.0470
78849SOL    HW154157   5.816  11.016  12.060  0.3125 -0.0194  0.0290
78849SOL    HW254158   5.859  10.923  12.171  0.8580 -0.1684 -0.3037
78850SOL     OW54159   3.247   8.745  11.083  0.3199 -0.1982  0.6612
78850SOL    HW154160   3.192   8.702  11.018  0.2220  0.4101  0.3399
78850SOL    HW254161   3.202   8.828  11.102  0.8758  0.0876  0.7446
78851SOL     OW54162   8.578   1.056  10.853  0.1690  0.3677 -0.3432
78851SOL    HW154163   8.663   1.098  10.865  0.9003 -1.3850  0.8623
78851SOL    HW254164   8.598   0.970  10.817 -1.0716 -0.2448  0.3636
78852SOL     OW54165  11.342  12.030   0.545 -0.0117  0.4070  0.3966
78852SOL    HW154166  11.426  12.075   0.540  0.4544 -0.5473 -1.1034
78852SOL    HW254167  11.362  11.940   0.519 -1.1541 -0.3427  1.9589
78853SOL     OW54168   0.730   4.948   8.710  0.8536 -0.2526  0.1579
78853SOL    HW154169   0.693   4.920   8.626 -0.6258 -1.2636  1.1041
78853SOL    HW254170   0.792   5.017   8.686  0.3932 -0.4216 -1.7489
78854SOL     OW54171   2.408   5.097  10.582 -0.4000  0.9484 -0.1648
78854SOL    HW154172   2.337   5.107  10.518 -1.9478 -1.1728  1.0974
78854SOL    HW254173   2.450   5.183  10.584 -1.1353  1.4771 -3.0059
78855SOL     OW54174   9.742   5.009   2.857 -0.4712  0.1232 -0.5654
78855SOL    HW154175   9.805   5.007   2.929 -0.8657  2.2737 -0.1093
78855SOL    HW254176   9.755   5.094   2.815 -1.3175 -0.4508 -2.0928
78856SOL     OW54177  13.343   2.906   3.958 -0.4121  0.0978  0.5258
78856SOL    HW154178  13.384   2.821   3.977  0.6461 -0.0371 -1.8993
78856SOL    HW254179  13.368   2.962   4.031  0.7117 -1.0976  1.1006
78857SOL     OW54180  10.258   8.886  10.681  0.6048  0.3519 -0.5003
78857SOL    HW154181  10.220   8.960  10.634  1.4968  0.4266 -1.1369
78857SOL    HW254182  10.315   8.844  10.616  0.4690 -0.6164 -0.0060
78858SOL     OW54183  12.719   4.772   7.977 -0.0511 -0.5743 -0.3399
78858SOL    HW154184  12.749   4.811   7.895  1.1697 -1.1765 -0.2016
78858SOL    HW254185  12.625   4.786   7.977 -0.0911 -0.6700 -1.9096
78859SOL     OW54186   4.938  11.312  12.720  0.0290  0.0494  0.2531
78859SOL    HW154187   4.926  11.227  12.677  0.3875  0.0397  0.1737
78859SOL    HW254188   4.872  11.368  12.680 -0.0880 -0.1430  0.1733
78860SOL     OW54189   8.449   9.968  12.234  0.4652  0.1982 -0.5389
78860SOL    HW154190   8.493   9.884  12.244  1.4479  0.3677 -2.7028
78860SOL    HW254191   8.520  10.033  12.238  0.0549  0.7071 -1.2414
78861SOL     OW54192   4.283   9.726  12.243 -0.5298 -0.0809 -0.3028
78861SOL    HW154193   4.243   9.809  12.271  0.9307  0.0225  1.7458
78861SOL    HW254194   4.353   9.753  12.183  0.1077  0.2614  0.5505
78862SOL     OW54195  11.420   5.244   1.004 -0.3053  0.4202  0.5183
78862SOL    HW154196  11.464   5.314   1.052  1.4884 -0.2567 -0.0516
78862SOL    HW254197  11.478   5.168   1.013 -1.9162 -0.8518  0.6351
78863SOL     OW54198   9.914   4.597  10.061  0.4867  0.0820  0.4273
78863SOL    HW154199   9.935   4.684  10.096 -1.8419  0.5582  0.8305
78863SOL    HW254200   9.883   4.548  10.137  2.8473 -1.5600  0.4297
78864SOL     OW54201  10.271   0.478   0.208 -0.0122  0.1786  0.0786
78864SOL    HW154202  10.217   0.433   0.273  0.3294  1.0366  0.9763
78864SOL    HW254203  10.355   0.490   0.251 -0.0402  1.5172 -0.2049
78865SOL     OW54204   7.085  11.669  10.580  0.5371  0.0016  0.3247
78865SOL    HW154205   7.152  11.736  10.596  0.4976  0.2936 -0.6747
78865SOL    HW254206   7.033  11.704  10.508  0.1872 -0.8769  0.1430
78866SOL     OW54207   4.828  13.223  11.876 -0.3025  0.6022  0.3005
78866SOL    HW154208   4.851  13.195  11.787 -0.0897  1.2774  0.1394
78866SOL    HW254209   4.906  13.202  11.928 -0.3533  0.3882  0.2932
78867SOL     OW54210   1.162   0.467  11.049  0.2985  0.1461 -0.3509
78867SOL    HW154211   1.097   0.398  11.036  0.6530  0.0746 -2.0192
78867SOL    HW254212   1.232   0.425  11.099 -0.3310 -0.1493  0.2993
78868SOL     OW54213   0.507   5.061   5.946 -0.3322  0.1624 -0.0239
78868SOL    HW154214   0.463   4.978   5.966  0.2087 -0.4356 -1.2128
78868SOL    HW254215   0.448   5.106   5.886 -0.5179  0.5550  0.4395
78869SOL     OW54216   0.168   3.176   7.081 -0.0208 -0.1151 -0.0287
78869SOL    HW154217   0.107   3.222   7.138 -1.7202 -1.4572 -0.6831
78869SOL    HW254218   0.222   3.124   7.140 -0.9223 -0.5301  0.4357
78870SOL     OW54219   0.366   2.338   7.186  0.0328  0.1232 -0.2041
78870SOL    HW154220   0.319   2.344   7.102 -2.2603  0.2612  1.0065
78870SOL    HW254221   0.409   2.423   7.195  0.8236 -0.1061 -1.4938
78871SOL     OW54222   6.642  12.959   6.679  0.2438  0.5337  0.2025
78871SOL    HW154223   6.663  13.052   6.677  0.2521  0.5162 -0.6670
78871SOL    HW254224   6.592  12.944   6.599 -0.1854 -0.1124  0.5796
78872SOL     OW54225   3.203  13.709  13.769 -0.2206  0.1075 -0.2346
78872SOL    HW154226   3.150  13.661  13.832 -0.2327 -1.6531 -1.4967
78872SOL    HW254227   3.140  13.745  13.706 -0.0771  0.0025 -0.4400
78873SOL     OW54228   8.561  10.074  12.943 -0.8646 -0.0256 -0.7599
78873SOL    HW154229   8.598  10.060  12.856  1.9890  0.4458  0.2653
78873SOL    HW254230   8.553  10.169  12.950 -0.3467 -0.0225 -0.2230
78874SOL     OW54231  10.712  12.808   9.105 -0.2452 -0.2353  0.0148
78874SOL    HW154232  10.794  12.827   9.151 -0.5259  0.8127  0.1019
78874SOL    HW254233  10.650  12.788   9.175 -0.4442  0.4812  0.0537
78875SOL     OW54234   5.083  11.457   7.827 -0.1919 -0.4723 -0.2107
78875SOL    HW154235   5.164  11.495   7.859  0.6614 -2.5969  0.2833
78875SOL    HW254236   5.038  11.425   7.906 -0.9046 -0.4425 -0.5927
78876SOL     OW54237   6.954   4.395  13.827  0.4771  0.0665 -0.6416
78876SOL    HW154238   6.942   4.442  13.909 -0.0248 -1.6829  0.3421
78876SOL    HW254239   6.956   4.463  13.760  0.5312  1.5101  0.7744
78877SOL     OW54240   5.110   3.035   2.798  0.0696 -0.4471 -0.3376
78877SOL    HW154241   5.195   3.068   2.768  0.1260 -0.6684 -0.4249
78877SOL    HW254242   5.087   3.091   2.872  0.9333 -1.2458  0.5527
78878SOL     OW54243   5.305   2.262   0.449  0.8454  0.4785 -0.5955
78878SOL    HW154244   5.350   2.337   0.409  1.6964  0.7703  0.8367
78878SOL    HW254245   5.215   2.291   0.460  0.7341  0.6071 -1.7248
78879SOL     OW54246   5.858  11.863   0.782 -0.3505 -0.2991  0.5713
78879SOL    HW154247   5.857  11.895   0.872  0.4876  0.1054  0.4421
78879SOL    HW254248   5.825  11.936   0.730 -1.6594 -0.8266  0.6297
78880SOL     OW54249   1.227  13.096   0.003  0.1268  0.3161 -0.2346
78880SOL    HW154250   1.210  13.159   0.073 -0.5565  0.0155 -0.1228
78880SOL    HW254251   1.148  13.042  -0.001  1.2279 -1.4473  0.6199
78881SOL     OW54252   1.402   1.535   4.007  0.0687  0.3274 -0.6070
78881SOL    HW154253   1.474   1.594   3.986  1.3964  0.4583  3.4266
78881SOL    HW254254   1.444   1.463   4.055 -2.1368 -1.3295 -0.9975
78882SOL     OW54255   3.598  13.412   0.281  0.3603  0.3501 -0.3326
78882SOL    HW154256   3.626  13.327   0.316  1.4916  0.6676 -0.4197
78882SOL    HW254257   3.568  13.461   0.358  1.2054  0.4264 -0.0408
78883SOL     OW54258   8.242   5.929   9.489 -0.4990 -0.0305  0.1594
78883SOL    HW154259   8.306   5.874   9.536 -0.9307 -1.7412 -1.1621
78883SOL    HW254260   8.198   5.868   9.430 -3.0852  1.1884  0.7163
78884SOL     OW54261   5.601   1.298  12.890  0.0200  0.4860  0.7424
78884SOL    HW154262   5.616   1.386  12.856 -0.7772 -0.4214 -2.2402
78884SOL    HW254263   5.540   1.311  12.964  1.0194  2.4995  1.2731
78885SOL     OW54264   6.424   1.038   0.372 -0.1536 -0.3071 -0.1387
78885SOL    HW154265   6.474   1.064   0.450  1.2180 -1.6053 -0.5372
78885SOL    HW254266   6.407   1.120   0.326 -1.2513  0.5286  1.6465
78886SOL     OW54267  12.849   0.736  11.870 -0.7744 -0.1721 -0.2559
78886SOL    HW154268  12.937   0.707  11.844 -0.9435 -0.3072 -0.6865
78886SOL    HW254269  12.809   0.659  11.910 -0.8104 -0.2004 -0.3473
78887SOL     OW54270   7.240   8.644   0.977  0.2052  0.2785  0.2429
78887SOL    HW154271   7.176   8.688   1.033  1.2574  0.3545  1.4066
78887SOL    HW254272   7.313   8.705   0.971  0.4891 -0.1128 -0.4858
78888SOL     OW54273   5.361   0.955   1.822 -0.2503  0.4830 -0.1873
78888SOL    HW154274   5.393   1.038   1.859 -1.1397  1.2070 -0.9992
78888SOL    HW254275   5.419   0.889   1.859  0.9483  1.5458 -0.0937
78889SOL     OW54276   5.040  13.276   1.760  0.3885  0.2183  0.6664
78889SOL    HW154277   5.118  13.278   1.815  0.1292 -0.1742  1.0505
78889SOL    HW254278   5.004  13.188   1.772  0.9697 -0.3045 -1.0256
78890SOL     OW54279   3.443  10.382   3.941 -0.6665 -0.1016 -0.1468
78890SOL    HW154280   3.401  10.337   3.868 -0.3757 -0.6707  0.0338
78890SOL    HW254281   3.445  10.317   4.011  1.6231 -0.4986 -0.5253
78891SOL     OW54282   6.939   7.280  10.536  0.0058 -0.0315  0.3910
78891SOL    HW154283   6.890   7.357  10.507 -1.5095 -0.0499  2.6133
78891SOL    HW254284   6.961   7.299  10.628 -0.1372 -2.0951  0.8939
78892SOL     OW54285  13.835   0.579   0.666  0.0859 -0.1294 -0.2249
78892SOL    HW154286  13.908   0.641   0.675 -1.2086  1.5208 -0.4792
78892SOL    HW254287  13.792   0.581   0.752 -1.0031  0.7328 -0.7700
78893SOL     OW54288   8.229  13.201  11.804 -0.1488 -0.9730 -0.1125
78893SOL    HW154289   8.190  13.249  11.731  0.7494 -0.5206 -0.3109
78893SOL    HW254290   8.174  13.223  11.879 -0.1712 -0.1838 -0.3463
78894SOL     OW54291  11.955  12.577   0.345 -0.2494  0.1390  0.4734
78894SOL    HW154292  11.955  12.670   0.366 -2.9397 -0.1477  2.2864
78894SOL    HW254293  12.003  12.536   0.417  2.1628  0.1490 -1.0345
78895SOL     OW54294  11.218  11.587   3.446  0.3217 -0.2316  0.4633
78895SOL    HW154295  11.199  11.668   3.397  0.6933 -0.8531 -0.7584
78895SOL    HW254296  11.186  11.517   3.389  3.2096 -1.1621 -0.1939
78896SOL     OW54297   2.735  10.840   6.131 -0.3507  0.0011  0.5058
78896SOL    HW154298   2.651  10.803   6.105 -1.3008  0.7347  2.3811
78896SOL    HW254299   2.713  10.914   6.187  1.5401  1.3073 -0.3501
78897SOL     OW54300   9.004   0.034  10.881  0.3053 -0.0526  0.3280
78897SOL    HW154301   8.991   0.091  10.805 -2.7897 -0.3424  0.5190
78897SOL    HW254302   9.086   0.064  10.920 -0.0425  2.7698 -0.8586
78898SOL     OW54303   3.568  10.900  13.198 -0.2561 -0.1715  0.4035
78898SOL    HW154304   3.474  10.890  13.181 -0.4387  0.7993  0.7792
78898SOL    HW254305   3.575  10.981  13.249  0.9217  0.6625 -0.9692
78899SOL     OW54306   4.132  12.241   1.511 -0.1878 -0.1906  0.1822
78899SOL    HW154307   4.164  12.151   1.505  0.3003  0.0498 -1.1785
78899SOL    HW254308   4.056  12.243   1.453  0.9555  0.7282 -1.3584
78900SOL     OW54309  11.191  10.251  11.623  0.0508  0.2190 -0.2014
78900SOL    HW154310  11.171  10.343  11.640  1.0142  0.6041 -1.0483
78900SOL    HW254311  11.281  10.252  11.591  1.1871 -1.3191  2.5637
78901SOL     OW54312   1.432   7.476   1.418  0.1187  0.7659  0.5032
78901SOL    HW154313   1.526   7.467   1.434  0.6645  0.9144 -2.1522
78901SOL    HW254314   1.393   7.407   1.471  1.8802 -0.2562  0.5714
78902SOL     OW54315  12.202  11.100  13.941 -0.2018  0.2981 -0.0487
78902SOL    HW154316  12.159  11.184  13.955 -0.5376 -0.2366  2.7448
78902SOL    HW254317  12.251  11.085  14.022  0.2385 -1.9539 -0.6763
78903SOL     OW54318   2.038   9.902  12.623  0.2349 -0.5545 -0.7333
78903SOL    HW154319   2.118   9.894  12.571 -0.0051 -0.7320 -1.0819
78903SOL    HW254320   2.064   9.873  12.711  1.4062  2.5770  0.0601
78904SOL     OW54321   3.763  10.309  13.715 -0.3421 -0.3598  0.0834
78904SOL    HW154322   3.720  10.282  13.796 -0.3462 -2.1455 -0.4821
78904SOL    HW254323   3.754  10.235  13.656  0.8566  0.3784 -1.1000
78905SOL     OW54324  11.976   7.051   5.155 -0.2177 -0.5242 -0.2915
78905SOL    HW154325  12.020   6.988   5.098  0.8189  1.5782 -1.9711
78905SOL    HW254326  11.886   7.054   5.122 -0.5253 -1.7181  0.3783
78906SOL     OW54327   3.795   2.565   6.092  0.1387  0.3453  0.2745
78906SOL    HW154328   3.840   2.535   6.013 -0.4765 -0.9536  0.3883
78906SOL    HW254329   3.865   2.588   6.153  0.6349 -0.2403 -0.0728
78907SOL     OW54330   0.844  12.388   0.813  0.1889 -0.3610 -0.2878
78907SOL    HW154331   0.919  12.405   0.870 -0.8432 -0.7258  1.2477
78907SOL    HW254332   0.789  12.465   0.822 -0.1707 -0.5922 -0.4825
78908SOL     OW54333  12.952   3.862   0.945 -0.5491  0.1629 -0.3949
78908SOL    HW154334  13.036   3.849   0.902  0.5764  3.4205  0.4926
78908SOL    HW254335  12.888   3.821   0.887  1.4270 -0.5158 -2.2099
78909SOL     OW54336   7.864   8.693   4.147  0.0390  0.4760  0.0418
78909SOL    HW154337   7.894   8.626   4.209  2.8238  0.6042 -1.0524
78909SOL    HW254338   7.808   8.645   4.086  1.9824 -0.9214 -0.7184
78910SOL     OW54339  10.913   3.669   6.180  0.2958  0.4533 -0.1814
78910SOL    HW154340  10.824   3.678   6.212  0.4819 -1.4103  1.0535
78910SOL    HW254341  10.909   3.594   6.119  0.9670  0.5183 -0.3132
78911SOL     OW54342  13.406   6.905   4.501 -0.0486  0.1719 -0.2367
78911SOL    HW154343  13.381   6.988   4.460 -0.0533  0.3640  0.1462
78911SOL    HW254344  13.407   6.842   4.430 -0.4763  0.4111 -0.4549
78912SOL     OW54345  10.387   9.954   1.136 -0.3376 -0.7906 -0.3998
78912SOL    HW154346  10.298   9.928   1.161 -0.0174 -2.4120 -0.7898
78912SOL    HW254347  10.379   9.978   1.044 -0.3289 -1.1862 -0.5052
78913SOL     OW54348  12.569   9.363   2.794  0.1600 -0.0359 -0.0597
78913SOL    HW154349  12.524   9.393   2.873  1.0726  0.1041  0.4173
78913SOL    HW254350  12.503   9.312   2.747 -0.4207 -0.0476  0.7497
78914SOL     OW54351   6.932  13.516   2.490  0.5538 -0.1581  0.1303
78914SOL    HW154352   6.913  13.424   2.509  1.3517 -0.0276  1.7399
78914SOL    HW254353   6.895  13.564   2.564  1.6806  0.6363  0.2017
78915SOL     OW54354   5.675   1.659   2.876  0.4094 -0.1882  0.0079
78915SOL    HW154355   5.695   1.587   2.817  0.1002 -0.4583  0.2315
78915SOL    HW254356   5.676   1.620   2.964  0.0896  0.0413  0.1163
78916SOL     OW54357   9.239  10.827   9.361 -0.9219 -0.0174  0.7409
78916SOL    HW154358   9.279  10.766   9.423  0.6976 -0.7082 -0.9111
78916SOL    HW254359   9.178  10.775   9.310  0.1905 -0.2039 -0.4267
78917SOL     OW54360   3.264   8.202  12.546  0.0111  0.7048  0.0861
78917SOL    HW154361   3.333   8.137  12.534  0.8133  1.6792 -0.7845
78917SOL    HW254362   3.296   8.280  12.502 -2.3057  0.7536 -1.7031
78918SOL     OW54363   6.115   5.510  13.677 -0.0878 -0.2426  0.2222
78918SOL    HW154364   6.170   5.504  13.755  1.5305  0.2948 -0.8238
78918SOL    HW254365   6.066   5.428  13.676 -0.8848  0.1297  2.2962
78919SOL     OW54366   1.155   4.809   3.610 -0.5041  0.2814  0.4494
78919SOL    HW154367   1.196   4.852   3.685 -2.5408 -0.9442  2.4090
78919SOL    HW254368   1.073   4.858   3.598 -0.9154 -0.5048  0.0313
78920SOL     OW54369   8.010   3.661  11.184  0.4013 -0.4811 -0.3170
78920SOL    HW154370   8.073   3.717  11.139 -1.0613  1.3787 -0.2180
78920SOL    HW254371   7.954   3.627  11.114 -0.5663  0.7028 -0.1689
78921SOL     OW54372  10.002  11.104  13.406  0.3181  0.0116 -0.0358
78921SOL    HW154373  10.004  11.027  13.349 -3.2628 -0.4275  0.2270
78921SOL    HW254374   9.953  11.076  13.483 -0.3689  2.3033  0.4371
78922SOL     OW54375  12.597   7.772   0.320  0.1698  0.0780 -0.3642
78922SOL    HW154376  12.535   7.709   0.282  1.2116 -1.2275  0.0318
78922SOL    HW254377  12.582   7.765   0.414 -0.5829  1.3839 -0.3667
78923SOL     OW54378   0.396   4.556   8.971 -0.5960  0.4613  0.2825
78923SOL    HW154379   0.418   4.583   8.882 -0.4771  1.0085  0.4779
78923SOL    HW254380   0.331   4.487   8.959 -1.7256  1.5755 -0.1947
78924SOL     OW54381  13.334   1.724   2.580 -1.0166 -0.0915 -0.1662
78924SOL    HW154382  13.244   1.750   2.601  0.3313  2.2181  4.1220
78924SOL    HW254383  13.345   1.638   2.621 -1.3568 -0.5475 -1.0249
78925SOL     OW54384   8.530  11.384   2.683 -0.2480  0.0025  0.1691
78925SOL    HW154385   8.558  11.294   2.702  1.6572  0.6955  0.8846
78925SOL    HW254386   8.493  11.416   2.765  2.4503  1.0127  1.1002
78926SOL     OW54387   7.074  12.433   3.752  0.1265 -0.5294  0.5986
78926SOL    HW154388   7.107  12.522   3.764  0.7987 -0.4765 -1.3466
78926SOL    HW254389   7.134  12.379   3.804  1.7753 -0.1561 -0.8242
78927SOL     OW54390   2.536   8.942   0.562  0.0039 -0.4621  0.0569
78927SOL    HW154391   2.553   8.869   0.622 -0.8664 -0.0688  0.8129
78927SOL    HW254392   2.591   9.013   0.594  0.9241 -0.7912 -0.7370
78928SOL     OW54393   4.112   2.339   6.731  0.0658 -0.4974 -0.4271
78928SOL    HW154394   4.184   2.276   6.735  0.8623  0.2564 -1.9994
78928SOL    HW254395   4.090   2.357   6.822  0.5260 -2.2439  0.0515
78929SOL     OW54396   5.984   1.456  13.738  0.2040 -0.3458 -0.1534
78929SOL    HW154397   5.912   1.404  13.775 -0.0210  0.3669  0.4349
78929SOL    HW254398   5.996   1.420  13.649  0.6401 -1.9706  0.5191
78930SOL     OW54399   2.513   7.093   1.544  0.0014  0.2641 -0.0557
78930SOL    HW154400   2.519   7.019   1.604 -0.7461  1.5614  1.7098
78930SOL    HW254401   2.565   7.162   1.586 -0.0998  1.0483 -1.1710
78931SOL     OW54402  12.234  12.372   8.905 -0.4023 -0.1574  0.7016
78931SOL    HW154403  12.153  12.349   8.860 -0.0942 -0.5325  0.3343
78931SOL    HW254404  12.239  12.310   8.978  0.0803 -0.8447  0.1087
78932SOL     OW54405   7.570  13.455  14.026  0.3838  0.0539 -0.0183
78932SOL    HW154406   7.519  13.458  13.946 -1.5963  3.3375  1.1589
78932SOL    HW254407   7.505  13.454  14.096  2.0098 -0.4256  1.5819
78933SOL     OW54408   2.885   3.336  13.296 -0.1817  0.2124  0.4698
78933SOL    HW154409   2.841   3.252  13.308 -0.8575  0.5712  0.5708
78933SOL    HW254410   2.972   3.313  13.262 -0.7414 -0.4754 -0.5570
78934SOL     OW54411  13.399  11.563  11.274 -0.2042  0.2462 -0.1177
78934SOL    HW154412  13.340  11.582  11.346  0.1211  0.3278  0.1295
78934SOL    HW254413  13.349  11.585  11.195 -0.6480 -0.0815  0.0676
78935SOL     OW54414   2.486   7.016   0.907  0.2955 -0.4740 -0.3487
78935SOL    HW154415   2.432   7.033   0.829  1.7504 -1.1766 -1.5764
78935SOL    HW254416   2.499   6.921   0.906 -1.2146 -0.7654  1.8797
78936SOL     OW54417   9.790   5.095  12.603 -0.0818 -0.3603  0.0029
78936SOL    HW154418   9.876   5.125  12.574 -0.2749 -0.6647 -0.9056
78936SOL    HW254419   9.791   5.000  12.590 -1.0388 -0.2091 -1.3604
78937SOL     OW54420   0.221   0.494  12.370  0.2704  0.0084 -0.5873
78937SOL    HW154421   0.256   0.421  12.420 -0.5459  0.6304  0.9741
78937SOL    HW254422   0.181   0.454  12.293 -0.5019 -1.2422  0.4289
78938SOL     OW54423   6.929   9.666   0.510  1.1005 -0.2758 -0.2004
78938SOL    HW154424   6.996   9.717   0.464  0.2582  0.8617 -0.2330
78938SOL    HW254425   6.872   9.733   0.548  0.5108 -1.2202  0.5977
78939SOL     OW54426   4.530  11.147  10.272  0.6787 -0.1434  0.1567
78939SOL    HW154427   4.540  11.168  10.365  0.4143  0.4368  0.0600
78939SOL    HW254428   4.469  11.073  10.271  2.3310 -1.6039  0.5575
78940SOL     OW54429   4.291   6.578   4.683  0.1910 -0.4679  0.0516
78940SOL    HW154430   4.294   6.485   4.705  4.3265 -1.3021 -2.7534
78940SOL    HW254431   4.306   6.623   4.766  3.4014 -2.7085  0.8769
78941SOL     OW54432  10.909   2.990   6.831  0.0651 -0.8453 -0.2637
78941SOL    HW154433  10.942   3.043   6.904  0.9872  0.5387 -1.6130
78941SOL    HW254434  10.838   3.043   6.794  0.2280 -1.0863 -0.9300
78942SOL     OW54435   4.491   1.564   2.076  0.3759 -0.1981  0.2518
78942SOL    HW154436   4.576   1.604   2.057 -0.0698  0.6210 -0.0866
78942SOL    HW254437   4.428   1.633   2.056 -0.3793 -0.8632  0.3199
78943SOL     OW54438   2.019   1.246   0.780 -0.1668  0.0999 -0.2852
78943SOL    HW154439   1.998   1.261   0.688  1.8321 -2.8049 -1.3741
78943SOL    HW254440   2.072   1.167   0.780  0.7254  0.5019  3.3169
78944SOL     OW54441  12.876   6.285   0.629 -0.2112 -0.0251  0.3566
78944SOL    HW154442  12.791   6.243   0.643 -0.0605 -0.8582 -1.0600
78944SOL    HW254443  12.934   6.214   0.602  0.3198  0.8900 -1.0513
78945SOL     OW54444   5.256   7.486   5.236 -0.0618  0.2079  0.0647
78945SOL    HW154445   5.351   7.482   5.225 -0.0433 -0.2173  0.3604
78945SOL    HW254446   5.225   7.531   5.157  0.4123  0.6751  0.1390
78946SOL     OW54447   0.214  13.636  12.347  0.4354  0.0994 -0.2318
78946SOL    HW154448   0.267  13.558  12.329 -3.6815 -2.5227 -2.7986
78946SOL    HW254449   0.239  13.698  12.279  0.5771 -0.8903 -1.1129
78947SOL     OW54450   7.986  13.187   2.613 -0.1314 -0.1481 -0.1043
78947SOL    HW154451   7.952  13.250   2.676 -0.1193 -1.8132  1.6854
78947SOL    HW254452   7.911  13.163   2.560 -0.2545  0.9326 -0.4304
78948SOL     OW54453  13.292  11.439   4.172 -0.4809 -0.2459 -0.0499
78948SOL    HW154454  13.270  11.531   4.187  1.3728 -0.2790  4.0853
78948SOL    HW254455  13.374  11.442   4.122  0.4629  0.4792  1.4763
78949SOL     OW54456   1.459   0.934   5.802 -0.3552 -0.7887 -0.3657
78949SOL    HW154457   1.433   0.919   5.893  2.8644 -0.5640  0.7043
78949SOL    HW254458   1.456   1.029   5.792  0.5359 -0.7215 -0.0554
78950SOL     OW54459  10.521  12.280  11.110  0.3498 -0.0745  0.1688
78950SOL    HW154460  10.572  12.279  11.029  0.2684  2.4237  0.0196
78950SOL    HW254461  10.437  12.318  11.085 -0.6541 -1.6558  0.9547
78951SOL     OW54462  12.668   4.480   8.911 -0.1049 -0.4186  0.6863
78951SOL    HW154463  12.632   4.486   9.000 -0.2068  0.0147  0.6218
78951SOL    HW254464  12.738   4.415   8.918 -0.5783 -0.9074  0.9245
78952SOL     OW54465   5.844  10.780  10.670  0.0494  0.5067 -0.2870
78952SOL    HW154466   5.808  10.845  10.730  0.4976 -0.7767  1.4528
78952SOL    HW254467   5.910  10.828  10.619  1.3677  1.1495  1.9254
78953SOL     OW54468   4.975   7.797   4.167  0.0780  0.0172 -0.1229
78953SOL    HW154469   5.007   7.732   4.105 -0.1549 -0.0223 -0.2007
78953SOL    HW254470   5.036   7.871   4.157 -1.6142  1.2355 -2.5527
78954SOL     OW54471   3.740   3.212   8.504 -0.7608  0.0996 -0.8373
78954SOL    HW154472   3.767   3.293   8.462 -0.0340  0.7632  0.8017
78954SOL    HW254473   3.682   3.170   8.441 -2.7111  2.7871 -1.0015
78955SOL     OW54474   7.034   2.624   5.371 -0.3562 -0.3820 -0.0939
78955SOL    HW154475   6.958   2.640   5.427 -1.8595 -1.7649 -1.6083
78955SOL    HW254476   7.078   2.550   5.411  1.2101  1.3893  1.6785
78956SOL     OW54477   5.690  12.762   5.234  0.2834  0.6714  0.4287
78956SOL    HW154478   5.706  12.793   5.145  3.1041  1.7606  1.1955
78956SOL    HW254479   5.599  12.787   5.252 -0.1101  1.1209 -1.8579
78957SOL     OW54480  13.436   6.086   0.767  0.1891 -0.5121 -0.1849
78957SOL    HW154481  13.353   6.133   0.772 -0.5573 -1.8149  0.0778
78957SOL    HW254482  13.490   6.138   0.707 -0.7310  0.4586 -0.1973
78958SOL     OW54483   1.410   3.875  12.603 -0.0252 -0.4587 -0.3018
78958SOL    HW154484   1.371   3.788  12.591  0.2407 -0.3765 -2.0674
78958SOL    HW254485   1.504   3.859  12.609 -0.1097 -0.4581  1.7285
78959SOL     OW54486  11.861   0.483   3.633 -0.2212 -0.5299  0.0270
78959SOL    HW154487  11.879   0.439   3.717 -0.8611 -0.9403 -0.0392
78959SOL    HW254488  11.831   0.412   3.576 -1.4949  0.0154 -0.0196
78960SOL     OW54489   0.252   3.231   0.595 -0.0509 -0.3219 -0.0770
78960SOL    HW154490   0.322   3.285   0.558  1.0257 -2.3039 -1.0594
78960SOL    HW254491   0.172   3.278   0.574  0.9214  2.8873  2.5076
78961SOL     OW54492   2.448   2.376   0.125  0.0342 -0.2167 -0.0252
78961SOL    HW154493   2.399   2.400   0.204  0.7775 -0.0911  0.4039
78961SOL    HW254494   2.423   2.442   0.060  1.1943  1.0908  0.8030
78962SOL     OW54495   5.930   3.369   7.567  0.2464  0.1017  0.2762
78962SOL    HW154496   5.912   3.276   7.548 -0.7930  0.3069  0.2187
78962SOL    HW254497   5.877   3.389   7.643 -0.7655  1.0593 -0.6415
78963SOL     OW54498   1.951  12.524   4.245  0.5939  0.6016 -0.1157
78963SOL    HW154499   1.868  12.543   4.202 -0.1009 -1.4871  0.1461
78963SOL    HW254500   2.005  12.602   4.231 -0.3519  0.8643 -2.8658
78964SOL     OW54501   9.965  10.801   6.686 -0.0510  0.5089  1.0462
78964SOL    HW154502  10.044  10.855   6.690 -0.1001  0.5715  1.2017
78964SOL    HW254503   9.896  10.858   6.721  0.3777 -0.5294  3.7863
78965SOL     OW54504   8.256  12.564  13.140  0.0264 -0.3041 -0.2306
78965SOL    HW154505   8.333  12.583  13.086 -0.1505 -0.3862 -0.5181
78965SOL    HW254506   8.190  12.536  13.077 -0.3697  0.1725 -0.0280
78966SOL     OW54507  10.083   3.330   5.839  0.2483 -0.1524  0.8672
78966SOL    HW154508  10.091   3.423   5.860  0.4625  0.5258 -1.9106
78966SOL    HW254509  10.173   3.298   5.840  0.2707 -0.0915  0.8191
78967SOL     OW54510  13.809   7.173  10.467 -0.0637  0.4159  0.0397
78967SOL    HW154511  13.767   7.137  10.545  0.7117  1.4935  0.9899
78967SOL    HW254512  13.744   7.233  10.430 -0.3959 -0.0176 -0.0752
78968SOL     OW54513  12.029   4.900   2.024 -0.0846  0.2925 -0.0442
78968SOL    HW154514  11.977   4.889   2.104  0.5816  0.4296  0.4196
78968SOL    HW254515  12.085   4.822   2.021 -0.3429  0.1223 -0.5642
78969SOL     OW54516  12.231   2.558   3.078 -0.3725 -0.1670 -0.5013
78969SOL    HW154517  12.250   2.524   2.990 -1.3962  1.9283 -1.5899
78969SOL    HW254518  12.141   2.532   3.094 -0.3098 -0.2089 -0.2161
78970SOL     OW54519  13.387   2.070   3.319  0.1558 -0.1272 -0.6104
78970SOL    HW154520  13.358   2.159   3.303 -0.4512 -0.7277 -3.2022
78970SOL    HW254521  13.314   2.028   3.364 -1.1339 -0.3196 -2.8039
78971SOL     OW54522  12.469  12.178   8.530 -0.0270 -0.1758  0.3270
78971SOL    HW154523  12.486  12.253   8.588 -0.6314 -0.7629  1.2913
78971SOL    HW254524  12.473  12.215   8.442  0.6689  0.7940  0.7468
78972SOL     OW54525   8.272   6.242   4.831 -0.1248 -0.1899 -0.0001
78972SOL    HW154526   8.289   6.188   4.908  0.2560  3.1993  2.5169
78972SOL    HW254527   8.178   6.257   4.831 -0.0751  0.1476  0.0892
78973SOL     OW54528   9.155  14.063   4.484  0.1750 -0.1836  0.0999
78973SOL    HW154529   9.197  14.138   4.442 -1.0252  0.6697  0.3833
78973SOL    HW254530   9.210  13.988   4.459  0.1743  0.4556 -1.9938
78974SOL     OW54531  12.673  10.021   9.129 -0.2101 -0.3043  0.5913
78974SOL    HW154532  12.735  10.084   9.165  0.9831 -1.3700  0.4908
78974SOL    HW254533  12.588  10.052   9.159  0.2738  1.5876  0.1640
78975SOL     OW54534   7.742  11.953   3.974 -0.9612 -0.0373 -0.1660
78975SOL    HW154535   7.762  11.956   3.880  0.4681  0.8388  0.1257
78975SOL    HW254536   7.681  11.880   3.983 -1.0719 -0.1893 -1.7618
78976SOL     OW54537   6.008  12.835   1.436 -0.9203  0.0328 -0.3413
78976SOL    HW154538   5.962  12.854   1.354 -0.7950 -0.5338 -0.5404
78976SOL    HW254539   6.083  12.895   1.435  0.7671 -1.9661 -2.0533
78977SOL     OW54540  10.525   1.010  11.616 -0.5638  0.2889 -0.7579
78977SOL    HW154541  10.489   0.971  11.536 -0.1248  1.5849 -1.6183
78977SOL    HW254542  10.554   1.097  11.589  0.2804  0.4724  0.6572
78978SOL     OW54543   0.344   2.108  10.060 -0.1909  0.5561 -0.2894
78978SOL    HW154544   0.391   2.148   9.988  0.2181  0.6007  0.0012
78978SOL    HW254545   0.392   2.027  10.078  1.4150  1.8863  1.7778
78979SOL     OW54546   9.762   4.111   8.818  0.0785  0.3448 -0.3443
78979SOL    HW154547   9.833   4.136   8.759  0.7054  1.7369  0.9237
78979SOL    HW254548   9.806   4.096   8.902 -1.0695  0.8461  0.3642
78980SOL     OW54549   1.275   8.585  10.815 -0.7837  0.0570 -0.3976
78980SOL    HW154550   1.190   8.628  10.816 -0.6612  0.3094  0.5773
78980SOL    HW254551   1.256   8.492  10.813 -1.1117  0.0882  0.6492
78981SOL     OW54552  13.898   2.884   6.527 -0.4463 -0.1121  0.0794
78981SOL    HW154553  13.852   2.856   6.606 -2.9221 -1.7101 -1.7656
78981SOL    HW254554  13.978   2.831   6.526 -0.6328 -0.4340  1.2550
78982SOL     OW54555  13.718  12.885  11.092 -0.3101 -0.3592  0.1210
78982SOL    HW154556  13.731  12.940  11.169 -0.8631  0.0023 -0.0447
78982SOL    HW254557  13.793  12.824  11.094 -0.0110  0.0151  0.6202
78983SOL     OW54558   4.582   2.150   3.627  0.0499  0.1011  0.1387
78983SOL    HW154559   4.603   2.243   3.633  1.9394 -0.2191 -0.6483
78983SOL    HW254560   4.666   2.106   3.642 -0.9481 -1.5185  1.2735
78984SOL     OW54561   4.969  12.032   4.574 -0.1926 -0.2011  0.0976
78984SOL    HW154562   5.006  11.949   4.542  0.4427 -0.4369  1.3964
78984SOL    HW254563   5.045  12.083   4.601 -0.6823  0.1858  0.7622
78985SOL     OW54564  12.937   5.363   5.017 -0.6197 -0.4383  0.1429
78985SOL    HW154565  12.973   5.299   4.956 -1.1749 -1.4126  0.8221
78985SOL    HW254566  13.014   5.410   5.050 -0.2219 -0.6597 -0.4608
78986SOL     OW54567   4.911  12.662   5.395  0.2687 -0.1110  0.6105
78986SOL    HW154568   4.943  12.694   5.479  2.0380  0.7134 -0.3340
78986SOL    HW254569   4.985  12.673   5.335 -0.9255 -0.7314 -1.0495
78987SOL     OW54570   8.278   2.968  14.029 -0.9734  0.2086  0.3167
78987SOL    HW154571   8.290   2.928  14.115  1.0570  0.3877  0.1585
78987SOL    HW254572   8.275   3.062  14.047  0.1926  0.2915  0.1519
78988SOL     OW54573   7.203   2.604   4.043  0.0477 -0.6840 -0.1800
78988SOL    HW154574   7.276   2.568   4.092 -0.7551  0.0871  1.6910
78988SOL    HW254575   7.237   2.684   4.003  0.2536 -0.3766  0.6096
78989SOL     OW54576   8.006   4.006   2.984  0.2050 -0.4030 -0.2863
78989SOL    HW154577   7.932   4.066   2.995 -0.7517 -1.2195 -1.9876
78989SOL    HW254578   7.969   3.919   2.999  0.8036 -0.8279 -1.2073
78990SOL     OW54579  13.785  12.812  12.931  0.4782  0.1461 -0.3808
78990SOL    HW154580  13.725  12.774  12.995  2.0001  1.0418  1.6959
78990SOL    HW254581  13.729  12.857  12.868 -1.0788 -0.1934  0.7240
78991SOL     OW54582   3.329   9.786  10.068 -0.3318 -0.0682  0.4209
78991SOL    HW154583   3.356   9.861  10.014 -0.2175 -0.2644  0.2052
78991SOL    HW254584   3.286   9.826  10.144 -1.8413  0.1891 -0.5274
78992SOL     OW54585   4.196  11.904  12.394  0.0862  0.4199 -0.0997
78992SOL    HW154586   4.217  11.950  12.475 -0.5422 -1.2668  1.0766
78992SOL    HW254587   4.114  11.858  12.414  0.4286 -0.7931 -1.3710
78993SOL     OW54588   3.134   5.351   7.331  0.1468 -0.2882 -0.4186
78993SOL    HW154589   3.193   5.347   7.255  0.7775 -2.3268  0.1120
78993SOL    HW254590   3.052   5.314   7.300  0.2854 -0.7736 -0.2080
78994SOL     OW54591  12.858   7.996   0.141  0.3681  0.3695 -0.9715
78994SOL    HW154592  12.950   8.010   0.120  0.7249 -1.6992 -1.0319
78994SOL    HW254593  12.854   7.906   0.174 -1.4456  0.8227  0.2304
78995SOL     OW54594   4.265   0.968   3.083 -0.1763 -0.0273  0.9817
78995SOL    HW154595   4.174   0.988   3.061  0.5847  2.5570 -0.3381
78995SOL    HW254596   4.289   0.897   3.023 -0.5703  1.2759 -0.8387
78996SOL     OW54597   3.491   7.864  12.271 -0.4533  0.1695 -0.0834
78996SOL    HW154598   3.586   7.861  12.279 -0.4713  0.9296  0.6585
78996SOL    HW254599   3.474   7.939  12.214 -0.6020 -0.1521 -0.4669
78997SOL     OW54600   5.925   5.986  12.963 -0.4239  0.6901  0.7474
78997SOL    HW154601   5.859   6.054  12.974  0.9913  2.3920 -0.6535
78997SOL    HW254602   5.876   5.904  12.965 -2.8067  1.9154 -1.5879
78998SOL     OW54603   9.148  11.213  12.440 -0.3018  0.1634 -0.0391
78998SOL    HW154604   9.092  11.263  12.380 -0.4962  1.6542  1.2989
78998SOL    HW254605   9.236  11.218  12.401 -0.6751 -0.1046 -0.9175
78999SOL     OW54606  11.573  12.046   2.048  0.2038  0.4543 -0.9365
78999SOL    HW154607  11.552  12.046   2.141  2.2704  1.7692 -0.4086
78999SOL    HW254608  11.489  12.032   2.004 -0.6169 -1.5107  1.1226
79000SOL     OW54609   1.337  10.078   6.587  0.0734  0.6058  0.3834
79000SOL    HW154610   1.381  10.148   6.539 -0.3252  0.2724 -0.4935
79000SOL    HW254611   1.317  10.116   6.673  2.8819  0.4749  1.1812
79001SOL     OW54612   4.932  10.172   7.663  0.4300 -0.5265 -0.0424
79001SOL    HW154613   4.895  10.094   7.705  1.3254 -2.0652 -1.9899
79001SOL    HW254614   4.869  10.194   7.594  1.8013 -1.6348 -1.7142
79002SOL     OW54615   9.194   0.570   8.105 -0.1864  0.2944  0.0205
79002SOL    HW154616   9.278   0.559   8.062  0.3014 -0.5136  1.1465
79002SOL    HW254617   9.178   0.665   8.102  0.8442  0.4731 -0.0289
79003SOL     OW54618   6.518   1.959  12.552 -0.3803 -0.6897 -0.4056
79003SOL    HW154619   6.476   2.035  12.593 -0.7703 -1.0655 -0.1089
79003SOL    HW254620   6.450   1.922  12.496 -0.5792 -1.5470  0.3962
79004SOL     OW54621   6.151  12.348   4.254  0.0045 -0.2899  0.2459
79004SOL    HW154622   6.130  12.312   4.340 -1.9688 -0.3594 -0.2137
79004SOL    HW254623   6.142  12.442   4.264 -2.9160 -0.3922 -0.4337
79005SOL     OW54624  10.582   3.053  12.484 -0.2312 -0.6183  0.2307
79005SOL    HW154625  10.607   2.998  12.560 -1.5698  0.3929  1.4489
79005SOL    HW254626  10.644   3.028  12.416  0.8789 -1.7491  1.5817
79006SOL     OW54627   0.384   8.773   9.552  0.1473  0.2159 -0.2652
79006SOL    HW154628   0.408   8.681   9.543  1.6001  0.3449  1.6312
79006SOL    HW254629   0.288   8.772   9.558 -0.0617 -0.8691 -2.7101
79007SOL     OW54630   4.390   2.093   7.506  0.4374  0.0535  0.4884
79007SOL    HW154631   4.308   2.071   7.464  1.2011  0.3087 -1.2062
79007SOL    HW254632   4.454   2.097   7.435  1.6156  1.3444  1.5536
79008SOL     OW54633  11.000   3.057   6.105  0.3819 -0.0913  0.0236
79008SOL    HW154634  11.026   3.043   6.196  2.7673 -0.0069 -0.5710
79008SOL    HW254635  11.076   3.101   6.066  0.7844 -2.9961 -2.7851
79009SOL     OW54636   1.169  10.772   4.453 -0.1028  0.0206 -0.0258
79009SOL    HW154637   1.112  10.736   4.384 -1.4641 -0.4427  1.2953
79009SOL    HW254638   1.129  10.855   4.476 -0.0084 -0.1093  0.6138
79010SOL     OW54639  13.141  13.251   5.257 -0.1363  0.1320  0.6563
79010SOL    HW154640  13.179  13.165   5.276 -0.4999 -0.2455 -0.3085
79010SOL    HW254641  13.173  13.307   5.328  1.8243 -0.2862  0.1559
79011SOL     OW54642  10.560   6.519  12.304  0.0153 -0.1596  0.4500
79011SOL    HW154643  10.528   6.429  12.293  0.1132 -0.3118  1.3516
79011SOL    HW254644  10.623   6.531  12.233 -0.2589 -0.6753  0.1103
79012SOL     OW54645   9.224   0.756   5.705  0.3937  0.0358  0.2123
79012SOL    HW154646   9.302   0.757   5.649 -0.0940 -0.9222 -0.5144
79012SOL    HW254647   9.171   0.684   5.671 -0.7751  0.6114  0.7476
79013SOL     OW54648   2.760   6.542   3.086  0.1541 -0.0520 -0.0400
79013SOL    HW154649   2.683   6.555   3.143  3.3271  1.8448  4.4136
79013SOL    HW254650   2.783   6.450   3.099 -0.1148 -0.0600  0.4426
79014SOL     OW54651   0.874  11.633  14.031  0.9761 -0.0761  0.0712
79014SOL    HW154652   0.809  11.701  14.052 -0.5628 -0.0570 -3.8575
79014SOL    HW254653   0.956  11.666  14.067 -0.3362  2.2320  1.1787
79015SOL     OW54654   1.359   1.904   6.833 -0.0580 -0.0342  0.1065
79015SOL    HW154655   1.315   1.826   6.867  1.1847  0.2724  2.7147
79015SOL    HW254656   1.405   1.940   6.909 -0.7529  3.4097 -0.9248
79016SOL     OW54657   7.774   8.615   3.856  0.8698 -0.3635 -0.4039
79016SOL    HW154658   7.737   8.702   3.837 -0.2086 -0.7350 -0.1003
79016SOL    HW254659   7.767   8.568   3.773 -0.3752 -0.7811 -0.0800
79017SOL     OW54660  12.751  10.128   1.935 -0.1718 -0.4558  0.1133
79017SOL    HW154661  12.738  10.176   1.853 -0.9504  1.1829  1.1491
79017SOL    HW254662  12.800  10.050   1.909  0.7938  0.6851 -1.7105
79018SOL     OW54663  10.249   3.320   8.539 -0.1432  0.3333  0.1453
79018SOL    HW154664  10.184   3.378   8.579  0.9278  0.8561  1.1668
79018SOL    HW254665  10.315   3.379   8.503  0.7491 -0.2279  0.8364
79019SOL     OW54666   3.560  11.813   4.896 -0.0155 -0.2522 -0.0380
79019SOL    HW154667   3.639  11.760   4.885  0.9776  1.2058 -0.1862
79019SOL    HW254668   3.592  11.902   4.910 -1.6014  0.1710  1.2211
79020SOL     OW54669   7.987  11.806   2.314  0.1794  0.1018 -0.3068
79020SOL    HW154670   7.919  11.858   2.356 -0.6039 -2.7243  2.2101
79020SOL    HW254671   8.066  11.826   2.364  0.3018  0.2344 -0.5481
79021SOL     OW54672   8.365  10.158   0.046 -0.0122  0.0885  0.0074
79021SOL    HW154673   8.381  10.086  -0.016 -0.1933  1.2184 -1.4101
79021SOL    HW254674   8.430  10.224   0.022 -0.5925  0.8589  0.5222
79022SOL     OW54675   3.377   2.005  12.329 -0.7241 -0.3389  0.1696
79022SOL    HW154676   3.338   1.995  12.242 -0.3436 -0.1822 -0.0225
79022SOL    HW254677   3.303   2.020  12.387 -1.0112 -0.8115 -0.0724
79023SOL     OW54678  12.979   3.312   2.558  0.0205 -0.6841 -0.5502
79023SOL    HW154679  13.037   3.345   2.627 -0.0244  1.1865 -1.3438
79023SOL    HW254680  12.925   3.246   2.602  2.9909 -2.9048  0.1224
79024SOL     OW54681   3.568   8.160   0.991 -0.1149  0.4908  0.2779
79024SOL    HW154682   3.616   8.204   0.921  0.8445 -3.2941 -1.7265
79024SOL    HW254683   3.534   8.080   0.950 -0.1406 -1.5881  3.9431
79025SOL     OW54684   0.127   1.062   6.807  0.4458 -0.2118  0.1088
79025SOL    HW154685   0.138   1.002   6.881  0.7822  1.2546  1.2966
79025SOL    HW254686   0.158   1.147   6.839  2.6596  0.0694 -2.3912
79026SOL     OW54687   9.866   3.794  11.583  0.1234  1.0018  0.3103
79026SOL    HW154688   9.772   3.801  11.571  0.0352 -0.3163  0.0689
79026SOL    HW254689   9.903   3.865  11.531 -0.7417  1.6798  0.6149
79027SOL     OW54690   1.358  12.676   5.704  0.3557  0.2748 -0.5338
79027SOL    HW154691   1.452  12.685   5.722  0.2330  0.8704 -0.1807
79027SOL    HW254692   1.316  12.739   5.762 -0.4947 -1.9647  1.4427
79028SOL     OW54693   3.539   9.403   0.740  0.0624  0.3546  0.2653
79028SOL    HW154694   3.473   9.351   0.786 -1.1925  1.0098 -0.7037
79028SOL    HW254695   3.596   9.339   0.698 -1.3486 -0.2895 -0.7753
79029SOL     OW54696   5.346   4.835   5.739 -0.0963 -0.0477  0.1617
79029SOL    HW154697   5.366   4.742   5.744 -0.4365 -0.1917 -0.9555
79029SOL    HW254698   5.282   4.850   5.809 -0.9288 -0.8896 -0.4151
79030SOL     OW54699  10.201   5.485   1.482 -0.2679  0.3514 -0.1504
79030SOL    HW154700  10.136   5.459   1.417  0.2029 -0.0656 -0.4624
79030SOL    HW254701  10.233   5.403   1.519  0.4705  0.5179 -0.3881
79031SOL     OW54702  11.521   6.695  10.188 -0.0358 -0.2767 -0.4957
79031SOL    HW154703  11.500   6.759  10.119  0.5009  0.2601 -0.1677
79031SOL    HW254704  11.456   6.712  10.256 -0.2298 -0.4433 -0.6409
79032SOL     OW54705   7.391  14.001   1.304 -0.8254  0.5968 -0.1257
79032SOL    HW154706   7.372  14.043   1.220 -3.2541  0.6975  0.4021
79032SOL    HW254707   7.309  14.008   1.353  1.0323  2.2661  3.0531
79033SOL     OW54708  12.210  13.856   2.620  0.1899 -0.1912  0.1526
79033SOL    HW154709  12.117  13.879   2.624 -0.1568 -1.3443 -0.7767
79033SOL    HW254710  12.237  13.885   2.533  0.7632  0.3284  0.4988
79034SOL     OW54711  11.653   8.319  11.545  0.1989 -0.3894  0.2065
79034SOL    HW154712  11.674   8.291  11.456  1.4434 -0.4147  0.5013
79034SOL    HW254713  11.580   8.262  11.571  0.4688 -1.0483 -0.4407
79035SOL     OW54714   2.682  12.254   3.074  0.1734  0.0213  0.0831
79035SOL    HW154715   2.702  12.205   3.154 -2.0424 -0.2298  0.5568
79035SOL    HW254716   2.750  12.321   3.068  1.9246 -1.6131  0.7037
79036SOL     OW54717   2.546   4.203   0.583  0.1123 -0.4120  0.2207
79036SOL    HW154718   2.537   4.108   0.590  0.2576 -0.3113  2.1440
79036SOL    HW254719   2.622   4.225   0.636 -0.6190  0.8817  0.7961
79037SOL     OW54720   1.132   8.090   7.684  0.1644 -0.2023  0.2694
79037SOL    HW154721   1.193   8.126   7.619  0.1380 -1.3990 -0.4553
79037SOL    HW254722   1.105   8.006   7.646 -1.7485  0.1863  0.6823
79038SOL     OW54723   7.016   9.272   2.591  0.2182 -0.3759  0.1516
79038SOL    HW154724   6.946   9.319   2.544  0.6176  0.2839  0.2044
79038SOL    HW254725   7.097   9.299   2.547  0.3936 -1.8412 -0.5047
79039SOL     OW54726   9.016   1.019   9.742 -0.4190  0.0248  0.6333
79039SOL    HW154727   9.060   1.082   9.685  2.2580 -1.9807  0.2974
79039SOL    HW254728   9.052   1.036   9.829  0.5313 -1.1788  0.4891
79040SOL     OW54729   0.690   3.577  13.117 -0.0739 -0.4005 -0.1972
79040SOL    HW154730   0.624   3.531  13.066 -0.0756 -1.1531  0.4707
79040SOL    HW254731   0.686   3.667  13.084 -1.0366 -0.5553 -0.5535
79041SOL     OW54732   6.858   1.140   8.720  0.3095  0.2270  0.3524
79041SOL    HW154733   6.874   1.177   8.634 -0.5459 -1.9070 -0.7956
79041SOL    HW254734   6.922   1.184   8.777  1.6391  0.8985 -1.5613
79042SOL     OW54735  13.972   8.724   2.025 -0.0812 -0.4706  0.2211
79042SOL    HW154736  13.915   8.751   2.097  0.9932 -1.7768  1.6294
79042SOL    HW254737  13.919   8.663   1.974 -1.0950  1.0136 -0.5657
79043SOL     OW54738   8.487  12.439   4.927  0.1200 -0.5850 -0.0379
79043SOL    HW154739   8.480  12.473   5.016 -1.9964 -1.9484  0.3977
79043SOL    HW254740   8.426  12.365   4.925 -2.4989  1.3631 -3.5575
79044SOL     OW54741  13.434   9.830   3.944  0.4255  0.1055  0.2193
79044SOL    HW154742  13.378   9.908   3.940  1.0841  0.5521 -0.9717
79044SOL    HW254743  13.408   9.786   4.025 -1.1825  0.6385  0.0391
79045SOL     OW54744   0.324   0.072   1.215 -0.4414 -0.2066  0.0321
79045SOL    HW154745   0.268   0.146   1.239 -0.6837 -0.2655 -0.3497
79045SOL    HW254746   0.267  -0.004   1.219 -0.5677 -0.1755 -1.0576
79046SOL     OW54747   1.904   8.295   1.322 -0.2625  0.1668  1.1003
79046SOL    HW154748   1.985   8.247   1.338 -0.2312  0.2646  1.2433
79046SOL    HW254749   1.905   8.314   1.229 -0.9401 -1.3186  0.7650
79047SOL     OW54750   6.830   1.280   7.239  1.0372 -0.3108  0.2893
79047SOL    HW154751   6.836   1.233   7.156  2.9040 -1.2066  0.8780
79047SOL    HW254752   6.917   1.317   7.253  1.1130 -1.1177  2.3480
79048SOL     OW54753   0.232   9.499   6.237  0.2378  0.1330 -0.0064
79048SOL    HW154754   0.323   9.527   6.225  1.0240 -2.0769  0.2925
79048SOL    HW254755   0.180   9.577   6.218  2.2637  2.0874  1.8560
79049SOL     OW54756   7.683   2.027  12.188  0.0279 -0.1175 -0.2824
79049SOL    HW154757   7.589   2.022  12.205  0.0184  0.9715  0.0285
79049SOL    HW254758   7.692   2.093  12.120  0.5858 -0.0311 -0.1313
79050SOL     OW54759  13.853  12.867   2.815  0.0749 -0.1988  0.3069
79050SOL    HW154760  13.809  12.851   2.899 -1.0216 -1.1035 -0.4060
79050SOL    HW254761  13.935  12.910   2.839 -0.1563 -0.5456  1.8573
79051SOL     OW54762   9.623  12.373   7.511  0.4305  0.0290  0.5717
79051SOL    HW154763   9.682  12.310   7.554 -1.4137 -2.2835 -0.0491
79051SOL    HW254764   9.551  12.385   7.574 -0.5404 -0.6104 -0.3879
79052SOL     OW54765   0.883  13.953  10.365  0.5994  0.3237 -0.3831
79052SOL    HW154766   0.832  14.032  10.352  1.2400  0.6355 -1.0834
79052SOL    HW254767   0.884  13.910  10.279 -0.7278 -1.0734  0.2432
79053SOL     OW54768   7.590   0.340   4.455  0.1439 -0.3422  0.4183
79053SOL    HW154769   7.529   0.380   4.393  0.0710 -0.7987  0.1878
79053SOL    HW254770   7.559   0.250   4.464 -0.0467 -0.1883  1.3833
79054SOL     OW54771   2.421   9.796   0.188  0.6146  0.2164 -0.5336
79054SOL    HW154772   2.506   9.758   0.212 -0.5507 -2.8703 -0.8465
79054SOL    HW254773   2.415   9.784   0.094 -0.3394  0.0012 -0.4539
79055SOL     OW54774  13.216   9.295   8.913 -0.1481  0.6150 -0.4575
79055SOL    HW154775  13.185   9.325   8.999  0.0754 -1.0357  0.2416
79055SOL    HW254776  13.310   9.284   8.924 -0.1000  0.5154 -0.9590
79056SOL     OW54777   6.657   9.996  12.104 -0.4355  0.0698 -0.1735
79056SOL    HW154778   6.607  10.058  12.051  0.7361 -1.3063 -3.1224
79056SOL    HW254779   6.623   9.910  12.079  0.3405 -0.6593  1.1707
79057SOL     OW54780   3.891   6.095  12.300  0.0650 -0.3568 -1.1130
79057SOL    HW154781   3.983   6.082  12.325  0.0460  1.3917  0.0218
79057SOL    HW254782   3.849   6.011  12.317  0.8853 -0.3696  1.1666
79058SOL     OW54783  11.039   6.031   5.016 -0.0053  0.0403 -0.4166
79058SOL    HW154784  10.991   5.949   5.019 -2.2088  1.2454 -0.6098
79058SOL    HW254785  11.050   6.056   5.108  0.9156 -0.5824 -0.3482
79059SOL     OW54786  11.310  12.151   0.976  0.2307  0.5685 -0.3212
79059SOL    HW154787  11.288  12.123   1.065 -1.0945  0.4177 -0.6789
79059SOL    HW254788  11.262  12.091   0.920 -0.9323  2.1887 -1.1198
79060SOL     OW54789   3.155  13.675   8.832  0.5260 -0.1385  0.6172
79060SOL    HW154790   3.070  13.664   8.874 -0.9048 -0.0426 -2.0216
79060SOL    HW254791   3.217  13.677   8.904 -1.6816 -0.2529  2.6581
79061SOL     OW54792   7.420   5.081   3.030  0.3705 -0.4655 -0.0031
79061SOL    HW154793   7.403   5.149   3.095 -1.2962 -1.3144  0.4964
79061SOL    HW254794   7.475   5.124   2.965 -0.4093  1.2921  0.4399
79062SOL     OW54795   4.571  11.960   0.422 -0.4022  0.0601 -0.1257
79062SOL    HW154796   4.655  11.999   0.399 -1.3098  1.5256 -1.1557
79062SOL    HW254797   4.521  12.033   0.461 -0.2689 -1.4216  3.1402
79063SOL     OW54798   9.246   1.691   1.452  0.3654 -0.4306 -0.1119
79063SOL    HW154799   9.209   1.602   1.450 -0.2071 -0.2187  0.7579
79063SOL    HW254800   9.186   1.741   1.508  1.9624 -0.0801  1.3734
79064SOL     OW54801   5.560   2.042   6.238 -0.1940 -0.4913  0.6659
79064SOL    HW154802   5.551   2.075   6.328  0.5617 -1.0461  0.9643
79064SOL    HW254803   5.655   2.043   6.222 -0.2874 -0.8851  0.0642
79065SOL     OW54804   0.806   9.775   7.004  0.9807 -0.3861 -0.4666
79065SOL    HW154805   0.871   9.730   7.057  1.5244  1.7384  0.7524
79065SOL    HW254806   0.852   9.797   6.923  1.0607 -0.9090 -0.5693
79066SOL     OW54807  10.296  10.252  12.265 -0.4033  0.1672  0.7118
79066SOL    HW154808  10.329  10.206  12.343 -1.3760 -0.5212  0.7452
79066SOL    HW254809  10.228  10.194  12.231 -0.7483  0.9844 -0.0233
79067SOL     OW54810   2.756   8.450   4.877 -0.2471 -0.9523 -0.2580
79067SOL    HW154811   2.684   8.396   4.844 -0.3598 -0.4214 -0.8902
79067SOL    HW254812   2.717   8.500   4.949 -0.5445 -0.5876 -0.6673
79068SOL     OW54813   1.393   3.782  11.659  0.7746  0.0739 -0.4356
79068SOL    HW154814   1.404   3.692  11.630  1.4891 -0.1729  0.5470
79068SOL    HW254815   1.413   3.780  11.752  0.9084  1.2690 -0.4220
79069SOL     OW54816   2.956   9.584  10.127 -0.1307  0.1732 -0.1707
79069SOL    HW154817   2.868   9.606  10.158  0.6124  2.3021  0.6160
79069SOL    HW254818   2.943   9.509  10.069 -2.0527 -1.7095  2.4344
79070SOL     OW54819   9.808   2.656  12.000 -0.6972  0.3771  0.2108
79070SOL    HW154820   9.866   2.684  11.929  0.1366  1.3249  1.2180
79070SOL    HW254821   9.736   2.719  11.999  0.4837  1.8759  1.6020
79071SOL     OW54822   8.425   5.050   6.978 -0.1969  0.3830 -0.3379
79071SOL    HW154823   8.390   5.123   7.029 -1.2202  1.1854 -2.1358
79071SOL    HW254824   8.481   5.091   6.913 -0.7290 -0.4241 -1.3240
79072SOL     OW54825  12.399   8.155   2.782  0.4612 -0.3916 -0.0978
79072SOL    HW154826  12.379   8.248   2.777 -0.8801 -0.6393  0.2712
79072SOL    HW254827  12.439   8.143   2.869 -1.6482 -0.5237  0.9184
79073SOL     OW54828   2.498   7.459   9.861  0.4414 -0.1912 -0.1400
79073SOL    HW154829   2.581   7.503   9.881  0.3210 -0.5696  1.3034
79073SOL    HW254830   2.461   7.509   9.788  1.9679 -0.0654 -0.8669
79074SOL     OW54831  12.583  13.850   1.749  0.0462  0.9053  0.2701
79074SOL    HW154832  12.619  13.839   1.661 -0.7332 -0.1179  0.0585
79074SOL    HW254833  12.498  13.807   1.746  0.4483 -0.0846  1.8116
79075SOL     OW54834  13.613   3.074   7.842 -0.2293  0.7949  0.1245
79075SOL    HW154835  13.523   3.045   7.856 -0.1498  0.6501  0.3557
79075SOL    HW254836  13.611   3.119   7.758 -0.3645  0.1530 -0.2248
79076SOL     OW54837   2.105   9.144  11.349 -0.2118  0.3978 -0.1079
79076SOL    HW154838   2.152   9.083  11.407 -0.9769  0.9277  1.1040
79076SOL    HW254839   2.087   9.092  11.270  1.1218 -0.2523 -0.0251
79077SOL     OW54840   7.689   2.465   2.044  0.0188 -0.8293 -0.1196
79077SOL    HW154841   7.725   2.547   2.012 -1.3222 -0.9592 -2.1052
79077SOL    HW254842   7.612   2.491   2.094 -0.7555 -0.8786 -1.2581
79078SOL     OW54843   2.542  10.831  10.779 -0.3126 -0.0588  0.0533
79078SOL    HW154844   2.481  10.903  10.766  0.5216  0.6358 -0.0917
79078SOL    HW254845   2.574  10.842  10.868  0.1124 -0.0100 -0.1015
79079SOL     OW54846   8.120   5.846   0.067  0.2637 -0.6391  0.1132
79079SOL    HW154847   8.192   5.908   0.073 -0.4101  0.0815  1.1614
79079SOL    HW254848   8.053   5.891   0.016  0.2209 -0.9595 -0.1142
79080SOL     OW54849  10.990   2.077   7.954 -0.3183 -0.3407 -0.0306
79080SOL    HW154850  10.909   2.126   7.941  0.5982  2.2905  2.9146
79080SOL    HW254851  11.054   2.120   7.897 -0.0481  0.4563  0.8486
79081SOL     OW54852  12.344   9.499  13.696 -0.4118 -0.1436  0.0592
79081SOL    HW154853  12.278   9.541  13.752 -0.1661 -1.0431  1.0489
79081SOL    HW254854  12.342   9.407  13.721 -0.3848 -0.6002 -1.5267
79082SOL     OW54855   7.527   2.080   5.052 -0.3088 -0.2910 -0.4208
79082SOL    HW154856   7.476   2.000   5.037  0.0787 -0.2962 -1.8273
79082SOL    HW254857   7.462   2.146   5.075 -0.8978 -0.4576 -1.5474
79083SOL     OW54858   4.497   5.222   0.875  0.3092  0.7795 -0.1414
79083SOL    HW154859   4.572   5.282   0.877  1.5354 -0.6991  0.8246
79083SOL    HW254860   4.493   5.186   0.963 -0.9028  0.0454 -0.4744
79084SOL     OW54861   3.933   3.650   2.082  0.2860  0.1074  0.0147
79084SOL    HW154862   3.947   3.745   2.083 -0.9825  0.3390  1.8608
79084SOL    HW254863   3.955   3.623   2.172 -1.0845 -1.0516  0.0204
79085SOL     OW54864  11.981  10.097   8.150  0.4448 -0.2570 -0.3118
79085SOL    HW154865  11.918  10.143   8.095 -0.6847 -2.2502 -0.7677
79085SOL    HW254866  11.945  10.105   8.238  0.6843  0.3624 -0.2575
79086SOL     OW54867   9.285   2.635   1.094  0.2725  0.0050 -0.0493
79086SOL    HW154868   9.320   2.709   1.044  0.5343 -1.3380 -1.9229
79086SOL    HW254869   9.345   2.563   1.077 -0.2120 -0.7857  1.4121
79087SOL     OW54870  13.919   1.094  12.315 -0.2100  0.0320 -0.2166
79087SOL    HW154871  14.010   1.106  12.288  1.2321 -1.0500  3.5343
79087SOL    HW254872  13.869   1.099  12.234  3.0777  1.4075 -2.3638
79088SOL     OW54873   5.342   2.290   9.837 -0.3602 -0.0659  0.4949
79088SOL    HW154874   5.377   2.377   9.818  0.3515 -0.0087  1.9255
79088SOL    HW254875   5.419   2.234   9.841 -0.7693 -0.6648  0.1197
79089SOL     OW54876   1.011   5.555  13.141 -0.6886 -0.5063  0.6081
79089SOL    HW154877   1.004   5.640  13.185 -0.6384 -1.2117  2.0408
79089SOL    HW254878   0.927   5.543  13.098  0.1827  1.4525 -1.9767
79090SOL     OW54879  10.524   7.386   3.197  0.1427  0.2311 -0.1418
79090SOL    HW154880  10.585   7.459   3.210 -1.4314  1.5606  0.1254
79090SOL    HW254881  10.498   7.360   3.286  0.3011 -0.3277 -0.2537
79091SOL     OW54882  10.985  10.278   5.429 -0.2231 -0.4314  0.4624
79091SOL    HW154883  10.979  10.321   5.343 -1.4986 -1.2135  0.1363
79091SOL    HW254884  10.952  10.190   5.414 -0.2456 -0.6526  1.7229
79092SOL     OW54885   5.131   5.189  12.730  0.0788  0.2287 -0.0230
79092SOL    HW154886   5.137   5.218  12.639 -1.1328 -0.4677 -0.3416
79092SOL    HW254887   5.202   5.126  12.740  0.9035  1.1036 -0.1484
79093SOL     OW54888   3.805  12.499   2.580  0.0082  0.4929 -0.4464
79093SOL    HW154889   3.717  12.532   2.562 -0.7725 -1.5717 -0.6307
79093SOL    HW254890   3.837  12.466   2.496  0.3755 -0.0809 -0.0908
79094SOL     OW54891   4.886  12.644  12.814 -0.1292  0.0519  0.1633
79094SOL    HW154892   4.900  12.666  12.721 -1.3300  0.2956  0.0263
79094SOL    HW254893   4.882  12.729  12.858  1.0145 -0.0755  0.5450
79095SOL     OW54894   5.740  11.467   4.103  0.0181 -0.2782 -0.3590
79095SOL    HW154895   5.755  11.506   4.017  0.0290  1.5902  0.4474
79095SOL    HW254896   5.776  11.530   4.165  0.2347 -1.6970  1.0342
79096SOL     OW54897   7.497   8.209   4.430 -0.5577  0.4177 -0.1961
79096SOL    HW154898   7.509   8.281   4.492  1.1448  0.8654 -0.9879
79096SOL    HW254899   7.583   8.167   4.425 -0.3429  1.0286 -2.9897
79097SOL     OW54900   6.222  10.678   1.619 -0.0880 -0.1866 -0.2090
79097SOL    HW154901   6.146  10.634   1.582 -0.9845  0.4312  0.8312
79097SOL    HW254902   6.264  10.612   1.675 -1.1385  0.0842  0.9442
79098SOL     OW54903  10.448  11.004   5.884 -0.0539  0.1311 -0.1300
79098SOL    HW154904  10.375  10.943   5.888 -0.5630  0.7404 -0.0139
79098SOL    HW254905  10.492  10.995   5.968 -1.1233  1.1263  0.5665
79099SOL     OW54906   8.898  13.357   0.303 -0.2748  0.3883  0.3418
79099SOL    HW154907   8.988  13.375   0.276  0.3232 -0.1045  1.9023
79099SOL    HW254908   8.848  13.357   0.221  0.6282  3.3613 -0.3212
79100SOL     OW54909   8.631   8.158   0.313  0.6646  0.5625  0.1330
79100SOL    HW154910   8.723   8.135   0.328  0.9913  1.6878  0.0052
79100SOL    HW254911   8.581   8.089   0.355  1.5776  0.2791  0.7751
79101SOL     OW54912   4.165   0.044   5.669 -0.0475 -0.0984 -0.1771
79101SOL    HW154913   4.085   0.002   5.639  0.2879  0.0727 -1.3490
79101SOL    HW254914   4.137   0.132   5.695 -0.3235 -0.2262 -0.0319
79102SOL     OW54915   1.556  11.148   0.549  0.3721  0.4144 -0.3021
79102SOL    HW154916   1.613  11.186   0.615 -0.0293  1.3953 -0.5031
79102SOL    HW254917   1.615  11.127   0.476  0.3670  2.4077 -0.9395
79103SOL     OW54918   8.746   3.824  11.912  0.3652 -0.4514  0.0149
79103SOL    HW154919   8.700   3.764  11.971  1.8056 -0.7183  0.9416
79103SOL    HW254920   8.729   3.789  11.824 -0.4630 -1.0269  0.3898
79104SOL     OW54921   7.833  11.738   1.594 -0.4152  0.0232  0.3860
79104SOL    HW154922   7.759  11.710   1.540  0.7593 -0.2789 -1.1234
79104SOL    HW254923   7.857  11.824   1.559 -0.6337  0.5629  1.5030
79105SOL     OW54924  11.096  12.631   9.474 -0.4226 -0.3608 -0.5178
79105SOL    HW154925  11.117  12.598   9.387 -1.7119 -0.4310 -0.8192
79105SOL    HW254926  11.000  12.638   9.475 -0.3197  1.7014  0.1257
79106SOL     OW54927   8.110   4.960  12.155 -0.2209  0.5551 -0.3902
79106SOL    HW154928   8.015   4.967  12.149 -0.1850  2.5058  0.5529
79106SOL    HW254929   8.128   4.961  12.249  0.7100 -0.7376 -0.5183
79107SOL     OW54930   9.124   7.197   2.264  0.2349 -0.4011 -0.1689
79107SOL    HW154931   9.029   7.209   2.265  0.2273 -0.3926  1.1328
79107SOL    HW254932   9.141   7.137   2.336  1.3207  0.4954  0.3539
79108SOL     OW54933   3.621   1.821   2.935 -0.0598 -0.0801  0.4763
79108SOL    HW154934   3.713   1.846   2.925 -0.0170 -0.2307  0.4929
79108SOL    HW254935   3.591   1.804   2.845 -0.1102  0.1039  0.4576
79109SOL     OW54936   0.875  10.874   6.596  0.0148 -0.2295 -0.4941
79109SOL    HW154937   0.829  10.912   6.521  0.2370  0.7031 -0.1715
79109SOL    HW254938   0.933  10.809   6.558  1.1329  1.1836 -1.2917
79110SOL     OW54939   7.439   9.556   1.628 -0.1675 -0.4725  0.4619
79110SOL    HW154940   7.442   9.599   1.542  1.7868 -2.1078 -0.3638
79110SOL    HW254941   7.421   9.465   1.609  0.8895 -0.9806  1.7250
79111SOL     OW54942   7.669  10.710   7.691 -0.2336 -0.4532  0.4131
79111SOL    HW154943   7.653  10.629   7.740 -1.1808  0.5104  1.7812
79111SOL    HW254944   7.735  10.757   7.743  1.2121 -0.8446 -1.0021
79112SOL     OW54945  12.904   5.336   8.093  0.0123  0.4475 -0.1652
79112SOL    HW154946  12.968   5.265   8.103 -0.0620  0.6568  2.2260
79112SOL    HW254947  12.844   5.304   8.026  0.8335 -1.1156 -0.2108
79113SOL     OW54948   3.375   1.465   1.748 -0.0295 -0.4168  0.1167
79113SOL    HW154949   3.346   1.375   1.734  2.7232 -1.0797 -2.2851
79113SOL    HW254950   3.349   1.511   1.668  1.6808 -0.0150 -0.2388
79114SOL     OW54951   3.387   7.468   6.508  0.3078 -0.1465  0.5252
79114SOL    HW154952   3.369   7.410   6.434  0.4971 -0.1204  0.4581
79114SOL    HW254953   3.450   7.531   6.474 -0.0141  0.1951  0.5552
79115SOL     OW54954  10.867  13.088   5.125  0.1317 -0.5124 -0.0209
79115SOL    HW154955  10.832  13.075   5.213 -0.9324  2.6336  0.1375
79115SOL    HW254956  10.956  13.121   5.139 -0.9921  2.8043  0.1429
79116SOL     OW54957   4.181   1.729  10.152 -0.3188  0.2397  0.0326
79116SOL    HW154958   4.231   1.779  10.217 -0.1134 -0.0552  0.1083
79116SOL    HW254959   4.239   1.725  10.075  0.2435 -1.0101  0.4865
79117SOL     OW54960   2.774   4.966   0.385 -0.0367  0.5877 -0.5529
79117SOL    HW154961   2.699   4.979   0.443 -0.5017  1.3054 -1.2861
79117SOL    HW254962   2.805   4.878   0.404  1.0870  1.4567  2.2383
79118SOL     OW54963   3.135  13.144   7.941 -0.1250  0.1913  0.6723
79118SOL    HW154964   3.129  13.213   8.007  0.8957  0.5163  0.4335
79118SOL    HW254965   3.047  13.106   7.939 -1.0820  2.2913 -0.0908
79119SOL     OW54966   0.477   2.559   5.056 -0.1326 -0.7308  0.3400
79119SOL    HW154967   0.462   2.619   5.129 -0.3182 -0.2949 -0.0507
79119SOL    HW254968   0.400   2.571   5.000 -0.0890 -1.2128  0.1744
79120SOL     OW54969  13.765   8.442   2.974  0.3818  0.3763 -1.1707
79120SOL    HW154970  13.748   8.352   3.002 -2.2589  0.3723 -2.5044
79120SOL    HW254971  13.760   8.439   2.879  1.6846  1.7175 -1.3189
79121SOL     OW54972   4.457   1.036  12.568  0.4282  0.4328  0.4765
79121SOL    HW154973   4.381   1.087  12.540  0.2140 -0.3715 -0.4548
79121SOL    HW254974   4.420   0.965  12.620  0.4511 -0.4320 -0.6617
79122SOL     OW54975   3.177  10.361  10.320  0.4971  0.1795  0.1110
79122SOL    HW154976   3.101  10.378  10.266  0.9630 -0.8555 -0.9235
79122SOL    HW254977   3.143  10.354  10.409 -0.3528  1.3922 -0.1040
79123SOL     OW54978   3.039  12.212   8.317  0.1061 -0.3010 -0.3924
79123SOL    HW154979   3.086  12.183   8.239 -0.5044  1.5625 -1.5313
79123SOL    HW254980   3.054  12.306   8.320 -0.0002 -0.3071  1.6977
79124SOL     OW54981   8.558  11.298   3.544 -0.1347 -0.1558 -0.1158
79124SOL    HW154982   8.614  11.255   3.479 -0.0417 -0.2250  0.0100
79124SOL    HW254983   8.605  11.379   3.566  0.4837 -0.7511  0.8300
79125SOL     OW54984  12.301  11.966  12.954  0.0680 -0.8363 -0.0308
79125SOL    HW154985  12.302  12.012  13.038 -2.1394 -0.4826 -0.1222
79125SOL    HW254986  12.359  12.017  12.898  0.2034 -0.0462  0.8057
79126SOL     OW54987  13.036   8.574  10.362 -1.1061  0.7422 -0.7551
79126SOL    HW154988  13.120   8.615  10.343 -1.4585  0.7176 -2.5764
79126SOL    HW254989  12.973   8.619  10.305 -2.2275  0.3728  0.1385
79127SOL     OW54990  12.717  13.638  11.204 -0.5093 -0.6146 -0.1721
79127SOL    HW154991  12.654  13.653  11.275 -0.9635 -1.4200 -0.3835
79127SOL    HW254992  12.723  13.543  11.198 -2.8610 -0.7581 -3.2128
79128SOL     OW54993   0.663   8.911   7.583  0.2325 -0.1473  0.2789
79128SOL    HW154994   0.577   8.902   7.625  0.8538 -1.1521  1.3679
79128SOL    HW254995   0.718   8.954   7.649  0.6315  0.3451 -0.3550
79129SOL     OW54996   9.214   5.105   3.971  0.3270 -0.0537 -0.4170
79129SOL    HW154997   9.282   5.038   3.957 -1.6085 -2.0937 -0.5324
79129SOL    HW254998   9.232   5.139   4.058  2.0701  0.1716 -0.8259
79130SOL     OW54999   3.262  13.780   7.552  0.5780  0.2515  0.4618
79130SOL    HW155000   3.248  13.747   7.463  0.0291 -0.8143  0.9245
79130SOL    HW255001   3.176  13.810   7.580  0.4768 -0.5897  1.0847
79131SOL     OW55002   5.130  10.700   6.989 -0.3919 -0.6429 -0.2621
79131SOL    HW155003   5.088  10.686   6.904  0.4638  1.6822 -1.1398
79131SOL    HW255004   5.066  10.671   7.053 -2.3374  0.4577 -1.6221
79132SOL     OW55005   5.140  10.841  10.622  0.4558  0.2233 -0.0215
79132SOL    HW155006   5.141  10.839  10.718  0.6619  1.5726  0.0303
79132SOL    HW255007   5.229  10.817  10.596 -0.1331 -2.2631  0.0110
79133SOL     OW55008   0.841   8.666   0.555 -0.2865  0.3245 -0.3356
79133SOL    HW155009   0.900   8.594   0.577  0.3517  0.2308 -2.2083
79133SOL    HW255010   0.897   8.744   0.557 -0.6246  0.5595  0.1355
79134SOL     OW55011   0.334   4.674   7.062 -0.5977 -0.5898 -0.4105
79134SOL    HW155012   0.362   4.763   7.040 -0.5574 -0.3560  0.5550
79134SOL    HW255013   0.415   4.629   7.087 -0.7400 -0.6396 -0.0397
79135SOL     OW55014  12.412  13.402   0.905 -0.5234  0.3270  0.0247
79135SOL    HW155015  12.400  13.487   0.948  1.2709 -0.3490  2.0377
79135SOL    HW255016  12.449  13.346   0.973 -0.1906 -1.6401 -1.6876
79136SOL     OW55017   2.951   0.962   0.356 -0.2889 -0.3375  0.1344
79136SOL    HW155018   2.863   0.945   0.322  0.1392 -0.3925 -0.9957
79136SOL    HW255019   2.996   0.877   0.350  0.1117 -0.1095 -0.1175
79137SOL     OW55020   2.994  12.588  13.053  0.3155 -0.5178 -0.4456
79137SOL    HW155021   3.064  12.548  13.002  0.8089 -0.7250  0.3683
79137SOL    HW255022   3.037  12.614  13.135 -0.6350 -0.9369  0.1945
79138SOL     OW55023   9.630   1.467  10.807  0.2911  0.7043  0.0191
79138SOL    HW155024   9.647   1.555  10.841  0.0470  1.2257 -1.1746
79138SOL    HW255025   9.551   1.476  10.755  0.4271 -0.1646 -0.3503
79139SOL     OW55026   0.224   5.623   5.587  0.6197 -0.2789 -0.0257
79139SOL    HW155027   0.140   5.618   5.633  0.4261 -1.4126 -0.4575
79139SOL    HW255028   0.200   5.618   5.494  0.9709  2.4474 -0.3311
79140SOL     OW55029   6.176   8.058   0.706 -0.2503  0.7367  0.4034
79140SOL    HW155030   6.091   8.072   0.748 -0.1220  2.1450  0.2105
79140SOL    HW255031   6.153   8.023   0.619 -0.5323 -1.3400  1.2397
79141SOL     OW55032   7.846   5.691   2.401  0.3532 -0.1794 -0.2857
79141SOL    HW155033   7.832   5.777   2.441 -0.0552 -0.0073 -0.7814
79141SOL    HW255034   7.761   5.669   2.362  0.5786 -0.6056 -0.5453
79142SOL     OW55035   6.509  12.412   7.567 -0.7419 -0.0642  0.4507
79142SOL    HW155036   6.419  12.411   7.534 -0.9903 -1.2113  1.1184
79142SOL    HW255037   6.504  12.458   7.651 -0.5372  0.6739  0.0658
79143SOL     OW55038   7.212  11.367   6.478  0.1063 -0.2138  0.6225
79143SOL    HW155039   7.161  11.298   6.521  1.3940 -0.4201  1.8610
79143SOL    HW255040   7.282  11.321   6.433 -0.7092  0.0800 -1.0164
79144SOL     OW55041  12.094   7.575   6.102  0.0803 -0.9170  0.4163
79144SOL    HW155042  12.149   7.574   6.181 -1.0130  0.8720  1.2550
79144SOL    HW255043  12.136   7.639   6.045  1.3646 -2.8153 -0.9338
79145SOL     OW55044   7.166   1.521   8.684 -0.2909  0.5595  0.5859
79145SOL    HW155045   7.187   1.596   8.630 -0.4399  0.2525  0.0959
79145SOL    HW255046   7.251   1.492   8.719 -0.1622  0.6095  0.3187
79146SOL     OW55047   9.405   0.098   1.461  0.2553  0.3060  0.2920
79146SOL    HW155048   9.342   0.104   1.389  1.0656 -1.4278 -0.6155
79146SOL    HW255049   9.370   0.157   1.528 -1.8757  0.0560 -0.5143
79147SOL     OW55050   8.573   2.370   1.850 -0.2464  0.0610  0.4280
79147SOL    HW155051   8.560   2.277   1.833  0.4800 -0.8764  4.0959
79147SOL    HW255052   8.546   2.381   1.941  1.0005  3.1818  0.5238
79148SOL     OW55053  13.115   3.884  11.524  0.0820  0.4057 -0.0218
79148SOL    HW155054  13.089   3.936  11.448 -0.0600 -0.1648 -0.3778
79148SOL    HW255055  13.203   3.916  11.546  0.0915  0.6336 -0.3794
79149SOL     OW55056   9.360   6.818   7.055 -0.1859 -0.0921  0.3773
79149SOL    HW155057   9.377   6.891   7.115 -1.0880 -1.7609  2.8299
79149SOL    HW255058   9.439   6.765   7.060 -0.5196 -0.5715  0.6028
79150SOL     OW55059  13.962   2.974   4.913 -0.2932  0.2030 -0.3041
79150SOL    HW155060  13.962   3.040   4.844 -2.8394  1.9991  1.2172
79150SOL    HW255061  13.870   2.946   4.918  0.5814 -3.0367 -0.4145
79151SOL     OW55062   7.294  13.989   0.594  0.6670 -0.0841 -0.0604
79151SOL    HW155063   7.291  13.932   0.517 -1.2365 -0.6585  0.3841
79151SOL    HW255064   7.261  13.935   0.665  2.8016  0.2938  1.3210
79152SOL     OW55065   9.853  12.750   2.502 -0.0517  0.4614 -0.5011
79152SOL    HW155066   9.891  12.776   2.419 -3.1325  1.1482 -1.8162
79152SOL    HW255067   9.845  12.832   2.552  0.3109  0.2853 -0.1407
79153SOL     OW55068  13.158   6.574  12.003  0.0635  0.3464  0.1995
79153SOL    HW155069  13.096   6.643  11.978 -0.6033 -0.7531 -1.3579
79153SOL    HW255070  13.244   6.609  11.981 -0.2591  0.7214 -0.4919
79154SOL     OW55071  11.486   4.161   8.453  0.0660 -0.8391  0.5153
79154SOL    HW155072  11.405   4.210   8.467  0.3040 -0.1710 -0.3206
79154SOL    HW255073  11.549   4.227   8.425  0.7731 -1.4239  0.6945
79155SOL     OW55074   2.693   2.224   7.000 -0.5996 -0.1683  0.3406
79155SOL    HW155075   2.756   2.223   7.072  0.2111  1.2513 -0.3086
79155SOL    HW255076   2.744   2.248   6.923 -1.7322 -0.1325 -0.4262
79156SOL     OW55077   9.610   6.226   1.655 -0.8281  0.0353  0.0213
79156SOL    HW155078   9.675   6.239   1.724 -0.2987 -1.6223 -0.1195
79156SOL    HW255079   9.660   6.226   1.574 -1.0138 -0.9584 -0.1106
79157SOL     OW55080   9.754   4.641   9.852 -0.3896  0.5679  0.0308
79157SOL    HW155081   9.672   4.667   9.895 -1.2056 -0.4922 -0.8069
79157SOL    HW255082   9.817   4.631   9.924 -0.8601  1.8254  0.6474
79158SOL     OW55083  10.052  13.399   5.580  0.2770  0.3088  0.0989
79158SOL    HW155084  10.037  13.321   5.633 -0.0784 -0.1353 -0.6370
79158SOL    HW255085   9.967  13.444   5.577  0.5572  0.9031  0.7880
79159SOL     OW55086  13.802   3.250   3.943  0.3425  0.1691 -0.6642
79159SOL    HW155087  13.733   3.315   3.956  1.0694  1.1503 -1.5091
79159SOL    HW255088  13.774   3.174   3.994  0.2736  1.7138  1.7453
79160SOL     OW55089   6.856   5.483   5.880 -0.4729  0.5226 -0.2224
79160SOL    HW155090   6.934   5.428   5.885 -1.2098 -0.4597  0.8750
79160SOL    HW255091   6.888   5.565   5.842  0.9870 -0.0420 -0.2896
79161SOL     OW55092   3.051  10.339  12.175 -0.7961 -0.0802  0.0801
79161SOL    HW155093   3.093  10.353  12.259 -1.7687  0.6543  0.4664
79161SOL    HW255094   3.108  10.384  12.112 -0.8732  0.6842  0.5542
79162SOL     OW55095   0.897   9.668   0.913 -0.5171 -0.0017 -0.2659
79162SOL    HW155096   0.958   9.655   0.986 -0.8760 -0.4355 -0.0379
79162SOL    HW255097   0.953   9.690   0.838  0.0113 -1.4648 -0.3203
79163SOL     OW55098   3.777   9.829  10.550 -0.3991 -0.1093  0.4888
79163SOL    HW155099   3.797   9.802  10.640  1.6993  0.5186  0.2855
79163SOL    HW255100   3.706   9.772  10.522  0.5797 -2.0340  1.7293
79164SOL     OW55101  11.007  10.933   9.662 -0.3107 -0.2650 -0.2696
79164SOL    HW155102  11.013  10.862   9.598  2.2020 -0.1521 -0.2629
79164SOL    HW255103  10.961  10.894   9.736 -3.6266 -0.3028 -2.1316
79165SOL     OW55104   6.530   5.468  11.273  0.1528 -0.3119  0.4829
79165SOL    HW155105   6.451   5.454  11.326  0.2685 -0.9435  0.5022
79165SOL    HW255106   6.561   5.379  11.254  0.0617 -0.1010 -0.7115
79166SOL     OW55107   2.098  11.252   5.926 -0.6939  0.2604  0.9054
79166SOL    HW155108   2.166  11.280   5.865 -0.9030 -2.3227 -0.6227
79166SOL    HW255109   2.082  11.330   5.981  2.0458  1.5403  0.0553
79167SOL     OW55110   8.600   7.613  11.655 -0.7675  0.3017  0.1313
79167SOL    HW155111   8.594   7.665  11.735  0.5617  1.6011 -0.5785
79167SOL    HW255112   8.691   7.583  11.652 -1.3947 -1.8227  0.3313
79168SOL     OW55113   7.782   0.570   9.151 -0.1322  0.7947  0.1329
79168SOL    HW155114   7.741   0.579   9.236  0.6105  0.7225  0.5065
79168SOL    HW255115   7.718   0.607   9.089 -1.8786 -1.6228  0.3598
79169SOL     OW55116   5.727   6.197   3.490 -0.2013  0.0244  0.0710
79169SOL    HW155117   5.674   6.276   3.481  0.2058  0.4002  0.9245
79169SOL    HW255118   5.666   6.129   3.518 -0.2329  0.4766  1.1375
79170SOL     OW55119   3.637   1.507  13.317  0.0394 -0.3887 -0.3101
79170SOL    HW155120   3.555   1.546  13.348  0.2350 -0.3310  0.1529
79170SOL    HW255121   3.686   1.581  13.280  0.2551 -0.2560  0.2317
79171SOL     OW55122  10.936  10.778   4.209 -0.4302 -0.2182  0.4014
79171SOL    HW155123  10.979  10.863   4.220 -0.5111 -0.1420  0.1347
79171SOL    HW255124  10.893  10.784   4.124 -0.8315 -0.3555  0.5921
79172SOL     OW55125   1.656  13.685   3.414 -0.4739 -0.0153  0.1579
79172SOL    HW155126   1.564  13.670   3.391 -0.7663  1.3113  0.3917
79172SOL    HW255127   1.653  13.731   3.498  0.3463  1.1417 -0.4157
79173SOL     OW55128  11.359   8.446   4.705 -0.5437 -0.0319 -0.7837
79173SOL    HW155129  11.414   8.486   4.638  1.4181  1.6513  1.6292
79173SOL    HW255130  11.285   8.507   4.714  2.3637  3.6038  2.7801
79174SOL     OW55131   0.441  10.054   1.956 -0.1465 -0.5851  0.2692
79174SOL    HW155132   0.396   9.991   2.012 -1.7153  0.4901  0.3202
79174SOL    HW255133   0.416  10.029   1.867 -1.0272  0.0806  0.3031
79175SOL     OW55134  13.763   2.055  12.739 -0.0170  0.1056  0.6026
79175SOL    HW155135  13.804   1.987  12.687  0.6656  0.2311  0.9759
79175SOL    HW255136  13.683   2.077  12.691 -0.0337 -0.6640  0.2731
79176SOL     OW55137   7.768  13.589  10.585 -0.1266 -0.2036 -0.1508
79176SOL    HW155138   7.789  13.671  10.542  2.5634 -0.4825  0.4506
79176SOL    HW255139   7.683  13.604  10.626 -0.3312  1.7799 -1.2066
79177SOL     OW55140  10.474  10.550  11.386  0.0734 -0.3149 -0.3986
79177SOL    HW155141  10.548  10.514  11.436  0.2691 -0.9308 -1.1126
79177SOL    HW255142  10.398  10.502  11.419  0.2040 -0.7330 -0.6995
79178SOL     OW55143   2.344  11.874   2.587 -0.3696  0.2488  0.8674
79178SOL    HW155144   2.422  11.858   2.640 -0.3083  1.3491  1.1265
79178SOL    HW255145   2.276  11.819   2.628 -0.0872  0.3748  1.5123
79179SOL     OW55146  14.018   5.160  12.189 -0.3797  0.6447 -0.1519
79179SOL    HW155147  14.024   5.252  12.214  2.2048  0.9733 -1.5490
79179SOL    HW255148  14.069   5.114  12.256 -1.6384  0.2151  0.5247
79180SOL     OW55149   5.714   4.476   0.114  0.4685  0.2161 -0.4978
79180SOL    HW155150   5.792   4.421   0.126  0.2125 -0.0692 -0.1531
79180SOL    HW255151   5.741   4.563   0.144  1.0605  0.4307 -1.5903
79181SOL     OW55152   6.182   1.058   6.587 -0.2084 -0.2005 -0.0770
79181SOL    HW155153   6.208   1.099   6.670 -0.9420  1.4261 -0.5992
79181SOL    HW255154   6.258   1.006   6.561  0.6430  0.5533  0.8230
79182SOL     OW55155  13.917   1.538   6.975 -0.3665 -0.5285  0.1789
79182SOL    HW155156  13.952   1.476   6.911 -1.0598 -1.5050  0.7093
79182SOL    HW255157  13.946   1.504   7.060 -0.0526  0.3504  0.4278
79183SOL     OW55158   1.536  14.038   3.836  0.0726 -0.3693 -0.0847
79183SOL    HW155159   1.504  14.042   3.926 -1.5706  1.0625 -0.6651
79183SOL    HW255160   1.512  13.951   3.806 -0.7307 -0.3297  0.4081
79184SOL     OW55161   4.753  12.196   2.594 -0.5392  0.5617 -0.3262
79184SOL    HW155162   4.839  12.198   2.553  0.5170 -0.7312  1.6144
79184SOL    HW255163   4.740  12.284   2.630  0.7946  0.3121  0.8416
79185SOL     OW55164   9.315   4.874  13.318 -0.2473 -0.3538  0.3119
79185SOL    HW155165   9.388   4.858  13.377  1.6176  2.8712 -0.8847
79185SOL    HW255166   9.320   4.802  13.254  1.2251 -0.7582  0.8481
79186SOL     OW55167  11.273  10.704  10.407  0.2801 -0.1172  0.5454
79186SOL    HW155168  11.199  10.651  10.376  0.1790  1.0318 -1.3028
79186SOL    HW255169  11.346  10.678  10.351  0.6548  0.4986  0.7398
79187SOL     OW55170  11.750   1.219  12.081 -0.2038 -0.3197 -0.3162
79187SOL    HW155171  11.762   1.295  12.137  0.6029 -0.6556 -0.0228
79187SOL    HW255172  11.802   1.238  12.003 -2.5672  0.8659 -1.7242
79188SOL     OW55173   9.416   7.896   3.478 -0.9995  0.4799  0.5947
79188SOL    HW155174   9.387   7.914   3.389 -0.5662 -2.0129 -0.1332
79188SOL    HW255175   9.362   7.822   3.506 -0.5066  0.6487  2.0630
79189SOL     OW55176   3.910   4.139  13.545  0.4468 -0.9171 -0.5895
79189SOL    HW155177   3.951   4.223  13.567  0.6949 -1.3836  0.8296
79189SOL    HW255178   3.820   4.148  13.577 -0.3134 -0.2648 -2.7841
79190SOL     OW55179   8.914   0.126   6.009  0.3535  0.0113 -0.2429
79190SOL    HW155180   8.871   0.084   6.084 -0.2869 -2.4773 -1.8751
79190SOL    HW255181   8.853   0.112   5.936  1.2033  1.8629 -1.3742
79191SOL     OW55182  12.831  10.987   6.875 -0.3879 -0.1474 -0.1210
79191SOL    HW155183  12.755  10.930   6.890  0.5391 -1.5350 -0.5842
79191SOL    HW255184  12.792  11.074   6.860 -1.8430 -0.6789  0.3453
79192SOL     OW55185   7.259  12.613   4.658  0.2248 -0.4613  0.6089
79192SOL    HW155186   7.210  12.600   4.577 -1.7794 -0.0260  1.6926
79192SOL    HW255187   7.313  12.690   4.641 -0.6178 -0.0145 -0.1202
79193SOL     OW55188   8.540  12.830  10.528 -0.2997  0.2906 -0.3673
79193SOL    HW155189   8.555  12.915  10.570  0.2102  0.3127 -0.5797
79193SOL    HW255190   8.447  12.813  10.541  0.0396 -0.2207  1.7577
79194SOL     OW55191   8.005  11.295  11.192  0.0718  0.5444  0.1091
79194SOL    HW155192   8.055  11.375  11.176  0.1687  0.4871  0.1262
79194SOL    HW255193   7.919  11.326  11.221 -0.0174  0.6477 -0.2612
79195SOL     OW55194  10.542   2.641   8.528  0.1529 -0.2484  0.0789
79195SOL    HW155195  10.527   2.596   8.612 -0.5256  0.6062  0.4319
79195SOL    HW255196  10.622   2.692   8.542 -0.4243  0.5596  0.5057
79196SOL     OW55197   7.423   4.437   5.252  0.0531  0.0875 -0.7841
79196SOL    HW155198   7.473   4.461   5.174 -0.2073 -1.0677 -1.3305
79196SOL    HW255199   7.333   4.465   5.233  0.4781  2.4260  0.3148
79197SOL     OW55200  11.577   6.874  12.503 -0.1946  0.3347  0.4898
79197SOL    HW155201  11.555   6.967  12.498 -1.1036  0.1487  0.8511
79197SOL    HW255202  11.652   6.864  12.444 -1.5299  0.8655 -1.4002
79198SOL     OW55203   1.080  13.252   7.860  0.1115 -0.6243  0.6427
79198SOL    HW155204   1.062  13.308   7.784 -1.4507 -1.7669  0.1193
79198SOL    HW255205   1.121  13.311   7.923  0.1736  0.6847 -0.5545
79199SOL     OW55206   4.560   6.243  14.025  0.7236 -0.0373  0.2805
79199SOL    HW155207   4.521   6.163  14.060  0.9819 -0.4979 -0.4555
79199SOL    HW255208   4.605   6.214  13.946  0.5603  0.8945 -0.1605
79200SOL     OW55209   4.344   3.679   8.011  0.2997  0.3880 -0.3830
79200SOL    HW155210   4.379   3.761   8.048  0.7734  0.2798 -0.5892
79200SOL    HW255211   4.250   3.684   8.029  0.6966 -0.4904  2.5258
79201SOL     OW55212   0.050   7.884   0.793 -0.1578 -0.5174 -0.5459
79201SOL    HW155213   0.089   7.813   0.742  2.6525  0.4997  0.0045
79201SOL    HW255214   0.031   7.952   0.728 -1.6693 -1.2144 -0.8910
79202SOL     OW55215  11.982   8.347   4.177  0.3651 -0.7018 -0.0044
79202SOL    HW155216  11.890   8.374   4.180  0.6101  0.2079 -0.2562
79202SOL    HW255217  12.022   8.407   4.114  0.7297 -2.3325 -1.4058
79203SOL     OW55218   8.820   1.669  12.840  0.2560  0.0309  0.0420
79203SOL    HW155219   8.747   1.676  12.901 -0.1636  2.1401 -0.6189
79203SOL    HW255220   8.779   1.664  12.754  0.8758 -1.4830 -0.2025
79204SOL     OW55221   1.023  11.535   8.862  0.1060  0.0400 -0.0863
79204SOL    HW155222   0.943  11.485   8.845 -0.8961  1.5286  0.0756
79204SOL    HW255223   1.078  11.520   8.785 -1.8394  1.8296 -1.9471
79205SOL     OW55224   0.354   8.026  13.131  0.0708  0.3122  0.1882
79205SOL    HW155225   0.305   7.953  13.094  2.0484 -2.0609  1.8702
79205SOL    HW255226   0.335   8.021  13.225  1.5499  0.8749  0.5349
79206SOL     OW55227   5.106  10.224   4.202 -0.0118  0.1129 -0.1448
79206SOL    HW155228   5.046  10.207   4.275  0.0878  1.9674  0.4337
79206SOL    HW255229   5.190  10.191   4.233 -0.5845 -2.1141 -0.7933
79207SOL     OW55230   4.463   1.043   9.671 -0.5831  0.0936 -0.2887
79207SOL    HW155231   4.450   1.114   9.735 -0.6785 -0.6265  0.5147
79207SOL    HW255232   4.389   0.985   9.686 -0.3636 -0.3095 -0.7648
79208SOL     OW55233   2.801  13.677   7.514 -0.4123  0.3474 -0.1359
79208SOL    HW155234   2.738  13.660   7.445 -1.2354  0.2773  0.6184
79208SOL    HW255235   2.864  13.604   7.508 -0.2778  0.5239 -1.0106
79209SOL     OW55236  13.297   1.718   3.651 -0.2381  0.1330  0.0200
79209SOL    HW155237  13.310   1.662   3.574 -1.8541  0.4223 -0.5065
79209SOL    HW255238  13.256   1.660   3.715  1.7832 -0.3063  0.9867
79210SOL     OW55239   2.984  11.385   3.155  0.1862 -0.2508  0.0879
79210SOL    HW155240   2.955  11.306   3.201  0.9670 -0.6704 -0.1302
79210SOL    HW255241   3.020  11.441   3.224  0.5934 -0.5304  0.1072
79211SOL     OW55242  12.944   3.472   5.470 -0.8480 -0.2032  0.1548
79211SOL    HW155243  12.922   3.546   5.413 -0.1677  0.8001  1.1541
79211SOL    HW255244  13.013   3.506   5.528 -0.4165 -1.6636  0.5482
79212SOL     OW55245   9.840   8.397  10.234 -0.0374  0.6485 -0.3427
79212SOL    HW155246   9.910   8.429  10.291 -0.6125 -1.0417  1.4239
79212SOL    HW255247   9.765   8.385  10.293 -1.4553  1.1881 -1.9471
79213SOL     OW55248   0.972  13.066   0.366  0.0731 -0.5838 -0.1895
79213SOL    HW155249   1.020  13.103   0.292 -0.7443 -0.6585 -0.7664
79213SOL    HW255250   0.915  13.000   0.327 -0.8420 -0.1683  0.4093
79214SOL     OW55251   4.774   1.574  10.831 -0.3543 -0.4904 -0.2632
79214SOL    HW155252   4.679   1.564  10.833 -0.4678  0.3088 -1.1458
79214SOL    HW255253   4.803   1.544  10.917 -1.4263 -0.4822  0.1118
79215SOL     OW55254   2.704   3.134   8.679  0.5532  0.4256 -0.0193
79215SOL    HW155255   2.739   3.217   8.710  1.7727 -0.3418  0.7430
79215SOL    HW255256   2.704   3.141   8.584  0.6451  1.2773  0.0337
79216SOL     OW55257   7.608   9.721   5.917 -0.3377 -0.5087 -0.6079
79216SOL    HW155258   7.587   9.815   5.915 -0.6096 -0.5814 -1.2570
79216SOL    HW255259   7.563   9.689   5.995 -0.8597 -0.2385 -0.7896
79217SOL     OW55260   2.458   8.552   4.817  0.1507 -0.0862  0.3758
79217SOL    HW155261   2.403   8.588   4.887 -0.7362  1.6664 -1.1341
79217SOL    HW255262   2.397   8.508   4.758  0.2965  1.7912 -1.2715
79218SOL     OW55263   0.515   6.333   7.524  0.1803  0.8968 -0.7157
79218SOL    HW155264   0.453   6.401   7.496  0.1654  0.2930 -2.2462
79218SOL    HW255265   0.477   6.252   7.491 -0.2492 -0.0096  1.8198
79219SOL     OW55266   9.838   6.449   3.452  0.5798  0.4681 -0.3572
79219SOL    HW155267   9.783   6.424   3.526  1.1360  0.8052  0.1881
79219SOL    HW255268   9.788   6.424   3.375  0.1458 -0.2254  0.1367
79220SOL     OW55269   7.665   4.764   0.766  0.3446 -0.2762 -0.2087
79220SOL    HW155270   7.600   4.765   0.696 -0.5110  1.8126  0.5337
79220SOL    HW255271   7.613   4.751   0.846  0.9195  0.6432  0.3255
79221SOL     OW55272  11.414   6.135  12.191  0.3335 -0.5622 -0.0859
79221SOL    HW155273  11.423   6.042  12.171  0.6411 -0.0975 -2.4705
79221SOL    HW255274  11.502   6.163  12.216  0.2498 -0.8839  0.5930
79222SOL     OW55275  12.204  10.534  10.393  0.4199 -0.1366  0.1744
79222SOL    HW155276  12.294  10.515  10.420  1.2555  1.7836 -1.0517
79222SOL    HW255277  12.210  10.616  10.344 -2.0459  0.1708  0.2445
79223SOL     OW55278   4.795   0.357   3.262 -0.3295  0.0204 -0.0272
79223SOL    HW155279   4.739   0.418   3.214 -0.3749  0.1255  0.1602
79223SOL    HW255280   4.741   0.325   3.334 -1.0336 -1.8980 -1.3572
79224SOL     OW55281   6.774  12.968   9.146 -0.1189  0.4203 -0.2535
79224SOL    HW155282   6.859  13.005   9.166  0.1591 -0.4583  0.2412
79224SOL    HW255283   6.745  13.013   9.067 -0.7175  3.1644  1.3991
79225SOL     OW55284   4.475   7.887   3.235 -0.3598  0.2743 -0.0855
79225SOL    HW155285   4.455   7.840   3.315 -0.4996 -1.3390 -1.0232
79225SOL    HW255286   4.543   7.950   3.260  0.4826 -1.0289  1.0461
79226SOL     OW55287   3.423   3.631  11.014 -0.4715 -0.0610 -0.0029
79226SOL    HW155288   3.462   3.652  10.929 -1.3071  0.8409 -0.1876
79226SOL    HW255289   3.385   3.544  11.002  0.2937 -0.3657 -0.2393
79227SOL     OW55290   0.735  12.652   6.373  0.1214 -0.6137  0.2995
79227SOL    HW155291   0.654  12.658   6.423 -0.3178 -0.3913 -0.4308
79227SOL    HW255292   0.796  12.607   6.432 -1.0839 -2.5483  0.1818
79228SOL     OW55293   6.570   4.246   2.620 -0.2310 -0.1796 -0.1834
79228SOL    HW155294   6.534   4.288   2.542 -1.8761 -1.0386  0.0792
79228SOL    HW255295   6.519   4.283   2.692  1.3230  0.6674  0.5226
79229SOL     OW55296   3.584   5.249   3.413 -0.0322  0.0168  0.3208
79229SOL    HW155297   3.562   5.231   3.321  0.4903 -1.7676  0.5049
79229SOL    HW255298   3.500   5.266   3.455 -0.5959 -1.7868  0.0217
79230SOL     OW55299   3.031   8.886   8.444 -0.3097 -0.6974 -0.4119
79230SOL    HW155300   3.033   8.844   8.530 -0.6838  0.4746  0.1942
79230SOL    HW255301   3.122   8.909   8.426 -0.1658 -1.3609 -0.5531
79231SOL     OW55302  11.893   0.616  10.325 -0.1827 -0.0942  0.5590
79231SOL    HW155303  11.904   0.526  10.353  0.2232  0.1618  1.2374
79231SOL    HW255304  11.941   0.668  10.389 -0.2420  0.5925  0.0669
79232SOL     OW55305   8.207  13.856  13.438  0.1455  0.1730  0.1523
79232SOL    HW155306   8.223  13.950  13.442  2.2992 -0.1427  0.4471
79232SOL    HW255307   8.281  13.817  13.486 -1.3190 -1.6278  1.0596
79233SOL     OW55308   9.151   9.430   0.973  0.2781 -0.3907  0.3108
79233SOL    HW155309   9.123   9.511   0.930  0.2674 -0.1682  0.7388
79233SOL    HW255310   9.134   9.444   1.066  1.3814 -0.4118  0.5407
79234SOL     OW55311   0.489   1.156   8.973  0.1461 -0.0759 -0.7355
79234SOL    HW155312   0.497   1.236   9.024  0.3106  1.7678 -3.4437
79234SOL    HW255313   0.577   1.137   8.942  0.1117 -1.3363 -0.1040
79235SOL     OW55314  11.438   8.983   3.638  0.2283 -0.1176 -0.3504
79235SOL    HW155315  11.374   8.972   3.708 -2.2146 -1.2222 -2.5644
79235SOL    HW255316  11.475   9.071   3.652 -0.7407 -0.0009  1.8103
79236SOL     OW55317  13.392   3.983  11.313  0.1784  0.0031  0.1361
79236SOL    HW155318  13.457   4.022  11.256  0.1121  0.1769  0.1764
79236SOL    HW255319  13.334   3.935  11.254 -0.3142  0.7810 -0.0254
79237SOL     OW55320   2.161  10.882   3.906 -0.2150 -0.2139  0.0636
79237SOL    HW155321   2.127  10.801   3.868  0.3060 -0.7878  0.7946
79237SOL    HW255322   2.141  10.875   4.000 -0.7706  0.8201  0.0394
79238SOL     OW55323   1.710   6.846   2.243 -0.1937  0.0611  0.1046
79238SOL    HW155324   1.688   6.754   2.250  0.6345 -0.0949  0.9532
79238SOL    HW255325   1.803   6.850   2.264 -0.0403  1.0032 -0.6571
79239SOL     OW55326   3.887  13.826   4.792 -0.0890 -0.2477  0.4348
79239SOL    HW155327   3.915  13.854   4.704 -0.2564 -0.5097  0.2971
79239SOL    HW255328   3.924  13.892   4.850  0.5851 -0.4305  0.2289
79240SOL     OW55329   6.356   5.811   4.523 -0.2675 -0.1303 -0.4439
79240SOL    HW155330   6.410   5.882   4.488 -0.7894  0.8930  0.7268
79240SOL    HW255331   6.403   5.781   4.600 -0.4146 -0.5580 -0.5203
79241SOL     OW55332  11.671  13.294  11.523  0.4806  0.0189 -0.2130
79241SOL    HW155333  11.692  13.268  11.434  1.2204  0.6387 -0.2337
79241SOL    HW255334  11.621  13.375  11.514  0.0713 -0.2213 -0.0869
79242SOL     OW55335   9.503   3.162   4.027 -0.2153  0.9721  0.4044
79242SOL    HW155336   9.436   3.094   4.032  1.0166 -0.3733 -0.4642
79242SOL    HW255337   9.585   3.114   4.012  0.8261  2.6028  0.6288
79243SOL     OW55338   5.380   3.330   9.703  0.6739 -0.3242 -0.0991
79243SOL    HW155339   5.440   3.405   9.695  2.0985 -1.4886 -0.9694
79243SOL    HW255340   5.313   3.347   9.637  1.6494 -0.3556 -1.1468
79244SOL     OW55341   1.074   0.452   7.951  0.6741 -0.0001 -0.6739
79244SOL    HW155342   0.994   0.470   7.901 -0.6176 -2.1258  0.5084
79244SOL    HW255343   1.056   0.488   8.038 -0.6144 -3.5547  0.7139
79245SOL     OW55344   5.375  10.054   2.098 -0.5866  0.4426 -0.0382
79245SOL    HW155345   5.323  10.082   2.023  0.8853  2.5869 -0.3327
79245SOL    HW255346   5.367  10.125   2.161  0.4228 -0.0811  0.7081
79246SOL     OW55347   9.133  14.004   6.343  0.0034 -0.4767 -0.7251
79246SOL    HW155348   9.098  13.971   6.260 -1.0189  0.2621 -0.5951
79246SOL    HW255349   9.103  13.941   6.408  0.2479 -0.6970 -0.8242
79247SOL     OW55350   6.619  11.584   7.939  0.2275 -0.6958  0.0612
79247SOL    HW155351   6.613  11.672   7.977 -1.6023 -0.5465 -0.5007
79247SOL    HW255352   6.697  11.546   7.980 -1.0566 -0.1944  3.2810
79248SOL     OW55353  11.899  12.780  11.952  0.2010 -0.6116  0.0915
79248SOL    HW155354  11.814  12.747  11.981  0.0666 -0.0130  0.3941
79248SOL    HW255355  11.900  12.872  11.979  1.2537 -0.8065  0.7799
79249SOL     OW55356   4.544  13.579  13.678  0.6213 -0.1005  0.0725
79249SOL    HW155357   4.591  13.589  13.761  0.5198  0.0558  0.1105
79249SOL    HW255358   4.592  13.634  13.616 -0.3877  1.2616  0.4606
79250SOL     OW55359  10.441   8.416   7.656  0.1555  0.6427  0.3234
79250SOL    HW155360  10.430   8.408   7.751  1.8108  0.3637  0.5326
79250SOL    HW255361  10.485   8.500   7.645 -0.9004  1.1295 -0.3031
79251SOL     OW55362   8.862   6.526  12.898  0.3039  0.2178  0.1774
79251SOL    HW155363   8.822   6.466  12.835  2.7736 -2.4023  0.8921
79251SOL    HW255364   8.790   6.581  12.929 -1.9005 -1.6547 -1.3471
79252SOL     OW55365  13.050   4.402   3.229  0.1682  0.0980 -0.6280
79252SOL    HW155366  13.117   4.358   3.281 -0.6573 -1.5586 -0.8923
79252SOL    HW255367  13.012   4.467   3.288  0.3763 -0.6166  0.3153
79253SOL     OW55368  12.439   8.123   9.613 -0.3393 -0.4053 -0.2759
79253SOL    HW155369  12.514   8.160   9.661 -2.7413  1.7370  2.1950
79253SOL    HW255370  12.410   8.049   9.667 -0.2546 -0.9847 -1.0112
79254SOL     OW55371  10.171   6.664  13.352 -0.1818  0.1241 -0.0758
79254SOL    HW155372  10.079   6.677  13.373  0.2829  0.9195  1.5961
79254SOL    HW255373  10.199   6.746  13.312 -0.3245 -0.3507 -1.2114
79255SOL     OW55374   6.867  12.363   8.316  0.0252 -0.0304 -0.4763
79255SOL    HW155375   6.938  12.299   8.320  0.5584  0.5945  0.3559
79255SOL    HW255376   6.898  12.436   8.369 -2.2666 -0.7352  2.0677
79256SOL     OW55377   1.344  11.339   0.518  0.1897  0.4509 -0.2460
79256SOL    HW155378   1.430  11.308   0.490 -0.0159  0.9365 -1.5002
79256SOL    HW255379   1.282  11.286   0.468 -0.2130  0.9008 -0.2313
79257SOL     OW55380   6.465   5.521   5.822  0.0560  0.1263 -0.3114
79257SOL    HW155381   6.543   5.528   5.877 -0.6438 -1.4536  0.9958
79257SOL    HW255382   6.425   5.608   5.826  0.9146  0.5121  0.2882
79258SOL     OW55383   8.985   1.105  13.675 -0.0662 -0.3941  0.1932
79258SOL    HW155384   8.893   1.120  13.695 -0.5633 -1.5925 -1.0612
79258SOL    HW255385   9.017   1.051  13.748 -0.3919 -0.1562  0.5183
79259SOL     OW55386  13.873  13.307  11.333 -0.4555 -0.3815 -0.3454
79259SOL    HW155387  13.938  13.364  11.293 -0.2159 -0.9784 -0.8096
79259SOL    HW255388  13.870  13.336  11.424 -1.2551  1.2137 -0.8386
79260SOL     OW55389   7.182  13.439  11.698 -0.4332 -0.0728 -0.1497
79260SOL    HW155390   7.207  13.428  11.606  2.0612  0.8735  0.3267
79260SOL    HW255391   7.147  13.353  11.724 -0.3639 -0.6091 -1.7568
79261SOL     OW55392   2.689   8.778  10.280 -0.4483  0.3932 -0.1605
79261SOL    HW155393   2.665   8.713  10.214 -0.7310 -1.1205  1.3803
79261SOL    HW255394   2.784   8.766  10.292 -0.4258  0.5565 -0.1744
79262SOL     OW55395  13.111   2.395   5.257 -0.0358  0.1783 -0.1714
79262SOL    HW155396  13.048   2.431   5.194  0.3491  0.2707 -0.5033
79262SOL    HW255397  13.159   2.329   5.208  2.9535  2.8726 -1.1671
79263SOL     OW55398  11.653  10.635   6.331  0.3544  0.5225 -0.0297
79263SOL    HW155399  11.725  10.639   6.267 -0.9134 -1.8012 -1.7826
79263SOL    HW255400  11.576  10.662   6.281 -0.6666 -1.2731  0.4747
79264SOL     OW55401  13.018  13.750   1.971 -0.5379  0.5081  0.3011
79264SOL    HW155402  13.000  13.659   1.995  0.4408  0.0584 -0.5865
79264SOL    HW255403  12.933  13.793   1.973 -0.9019 -0.2244  1.5401
79265SOL     OW55404   4.227   9.648   6.436  0.4397 -0.2879  0.2293
79265SOL    HW155405   4.187   9.572   6.395  0.3556 -0.6139  0.9152
79265SOL    HW255406   4.169   9.671   6.508  0.4573  0.4339  0.0234
79266SOL     OW55407   7.838   2.541   8.930 -0.1197  0.3155 -0.0996
79266SOL    HW155408   7.843   2.620   8.984  0.6859  1.0280 -1.1606
79266SOL    HW255409   7.869   2.569   8.844 -0.6924 -0.9528 -0.7454
79267SOL     OW55410   9.799  10.937  12.684  0.3079 -0.4992 -0.3264
79267SOL    HW155411   9.734  10.917  12.616 -2.2354  0.7926  1.5743
79267SOL    HW255412   9.878  10.890  12.655 -1.3346 -1.9782 -2.8859
79268SOL     OW55413   2.277  10.986   5.359 -0.3084 -0.3698  0.4934
79268SOL    HW155414   2.354  10.989   5.302  0.2523 -3.7604  0.8134
79268SOL    HW255415   2.204  11.012   5.303  0.8928  2.1837 -0.0202
79269SOL     OW55416   8.428   0.902   9.590  0.1182 -0.2138  0.0228
79269SOL    HW155417   8.486   0.898   9.666 -0.4418 -0.6696  0.4365
79269SOL    HW255418   8.451   0.984   9.547  0.6700 -0.1079  0.5029
79270SOL     OW55419   5.807   3.244   0.921 -0.1658 -0.5730 -0.0692
79270SOL    HW155420   5.808   3.181   0.850 -0.1108  0.4164 -0.9692
79270SOL    HW255421   5.751   3.316   0.890  0.2305  0.0902  0.6895
79271SOL     OW55422   3.917   0.822   8.652  0.2534  0.3045  0.0544
79271SOL    HW155423   3.989   0.791   8.598  2.3536  0.9801  2.3157
79271SOL    HW255424   3.923   0.918   8.649  0.6770  0.3605  1.7505
79272SOL     OW55425   7.453   1.406   5.945  0.5027 -0.3903  0.1419
79272SOL    HW155426   7.472   1.493   5.908 -0.6445 -0.6297 -1.0852
79272SOL    HW255427   7.498   1.406   6.029  0.1400  1.5827  0.3958
79273SOL     OW55428   8.670   8.611  11.940 -0.1221 -0.1464 -0.8746
79273SOL    HW155429   8.580   8.640  11.958  0.3946  1.4417 -0.6589
79273SOL    HW255430   8.663   8.559  11.860 -1.0177  1.5031 -1.9390
79274SOL     OW55431   4.746   7.966   1.719 -0.2216  0.0548 -0.0304
79274SOL    HW155432   4.812   8.031   1.694  0.8440 -0.9946 -0.0520
79274SOL    HW255433   4.696   8.009   1.789  0.7806  0.7159  0.3099
79275SOL     OW55434   8.959   5.113  13.778  0.1640  0.0612  0.0502
79275SOL    HW155435   8.975   5.132  13.686 -0.3968  3.5236  0.5419
79275SOL    HW255436   9.036   5.064  13.806  0.2858 -1.1903 -2.2273
79276SOL     OW55437   1.826  11.971   1.690 -0.4265 -0.0536  0.1398
79276SOL    HW155438   1.810  11.882   1.659  1.1535  0.0002 -0.9220
79276SOL    HW255439   1.766  12.025   1.638 -0.9558 -0.4115  0.3635
79277SOL     OW55440   3.671   3.964  11.346 -0.2243 -0.3363 -0.0278
79277SOL    HW155441   3.632   3.951  11.433  1.0418  1.7265  0.9323
79277SOL    HW255442   3.759   3.996  11.364 -0.6291  2.2152 -2.0204
79278SOL     OW55443   4.626  12.143  11.989  0.4427 -0.6123 -0.2840
79278SOL    HW155444   4.694  12.167  11.926  0.5704 -0.2706 -0.0194
79278SOL    HW255445   4.574  12.223  12.000  0.0639 -0.8387 -0.4019
79279SOL     OW55446  10.631  11.863   7.890  0.2132 -0.3405 -0.6635
79279SOL    HW155447  10.718  11.836   7.921 -0.0485  1.1717  1.6099
79279SOL    HW255448  10.647  11.905   7.806  1.8392  0.8193  0.1860
79280SOL     OW55449   4.169   2.627   3.564  0.4765 -0.2010  0.4129
79280SOL    HW155450   4.079   2.598   3.552  0.9794 -2.6159  1.7359
79280SOL    HW255451   4.178   2.703   3.507 -2.3404  0.0377  0.1592
79281SOL     OW55452  12.309   3.095   4.487  0.1842 -0.3238 -0.0187
79281SOL    HW155453  12.294   3.079   4.394  2.6460 -1.0488 -0.3801
79281SOL    HW255454  12.248   3.037   4.532 -0.7907 -0.2188 -1.1783
79282SOL     OW55455   5.259   5.212   5.790  0.4426 -0.0968  0.2321
79282SOL    HW155456   5.177   5.219   5.837 -1.5464  0.9307 -3.0519
79282SOL    HW255457   5.261   5.289   5.733  2.2160 -1.5577 -1.8811
79283SOL     OW55458  12.662   9.948  11.131  0.1772 -0.0799 -0.1886
79283SOL    HW155459  12.741   9.986  11.170 -1.1188  1.2837  1.2754
79283SOL    HW255460  12.674   9.961  11.037  1.1965  1.1730  0.0709
79284SOL     OW55461  13.721   1.580   0.579  0.4598 -0.1297 -0.7257
79284SOL    HW155462  13.814   1.601   0.589  0.1562  0.8327  0.2621
79284SOL    HW255463  13.710   1.497   0.625  1.2035 -1.3245 -2.5944
79285SOL     OW55464  10.400   7.614   9.747  0.4496  0.1333 -0.1723
79285SOL    HW155465  10.465   7.682   9.759 -0.0390  0.5304  0.2421
79285SOL    HW255466  10.317   7.661   9.739 -0.1691 -0.4809  2.1030
79286SOL     OW55467  12.031   4.957   1.509 -0.5272 -0.2972 -0.2932
79286SOL    HW155468  11.979   5.012   1.450 -0.3450 -0.4891 -0.6346
79286SOL    HW255469  12.120   4.961   1.474 -0.4739 -0.6561 -0.2078
79287SOL     OW55470  11.961   5.939   1.194  0.2682 -0.5540 -0.0146
79287SOL    HW155471  11.989   5.888   1.118  0.8758 -1.2053  0.6315
79287SOL    HW255472  11.919   5.875   1.251 -1.1040  0.1140 -0.2345
79288SOL     OW55473  11.720  12.994   9.327  0.0313 -0.1697 -0.1938
79288SOL    HW155474  11.756  12.926   9.271  1.0975 -2.9148  3.4280
79288SOL    HW255475  11.761  13.075   9.297  1.7883 -1.7182 -2.2536
79289SOL     OW55476   0.540   8.363   1.732 -0.0312 -0.1483  0.4805
79289SOL    HW155477   0.561   8.452   1.703 -1.2214 -0.1427 -0.4442
79289SOL    HW255478   0.486   8.327   1.662 -0.1827 -1.3478  1.1853
79290SOL     OW55479  10.009   9.140   0.058 -0.1918 -0.3471  0.4310
79290SOL    HW155480  10.012   9.140   0.153  0.8587  1.4511  0.4360
79290SOL    HW255481  10.084   9.087   0.031 -1.1060 -1.7738  0.5557
79291SOL     OW55482   9.487   4.062   2.883 -0.2811  0.1013  0.3089
79291SOL    HW155483   9.424   4.134   2.885 -0.0426  0.4887 -2.4483
79291SOL    HW255484   9.510   4.048   2.975 -1.9866  2.0514  1.1193
79292SOL     OW55485   7.888  13.167   3.114 -0.1842  0.1486 -0.2399
79292SOL    HW155486   7.895  13.074   3.134  1.4244  0.6330  1.7291
79292SOL    HW255487   7.937  13.179   3.032  1.5150 -0.4046  0.6699
79293SOL     OW55488  13.280   1.344   2.382  0.5430 -0.1729 -0.3393
79293SOL    HW155489  13.272   1.323   2.289 -1.1039 -0.4078 -0.1796
79293SOL    HW255490  13.223   1.421   2.393  0.0231 -0.6838  0.6225
79294SOL     OW55491   4.330   8.450  10.506 -0.3982 -0.5676 -0.5989
79294SOL    HW155492   4.363   8.505  10.434 -0.4188  0.1950 -0.0374
79294SOL    HW255493   4.302   8.369  10.463  0.1911 -0.3784 -1.3672
79295SOL     OW55494   6.980  12.885  11.296  0.0312 -0.2119  0.1950
79295SOL    HW155495   7.013  12.809  11.248 -1.5451 -0.0400 -1.2425
79295SOL    HW255496   6.994  12.864  11.388  1.3942 -1.3873 -0.2506
79296SOL     OW55497  13.195  11.791  13.255  0.3969 -0.6172  0.1640
79296SOL    HW155498  13.230  11.810  13.168  0.6951  0.4995  0.5073
79296SOL    HW255499  13.272  11.785  13.312  0.1345  0.7613  0.7184
79297SOL     OW55500   5.237   0.521   4.150 -0.2447  0.9026 -0.8571
79297SOL    HW155501   5.216   0.428   4.157  0.7847  0.7483  0.6497
79297SOL    HW255502   5.298   0.526   4.075 -0.7600  0.4661 -1.3160
79298SOL     OW55503  11.197   8.397   4.154  0.4469 -0.4989 -0.8688
79298SOL    HW155504  11.207   8.350   4.071 -0.2798  0.5109 -1.5575
79298SOL    HW255505  11.284   8.433   4.171  0.2510  0.6261 -2.0533
79299SOL     OW55506   1.919   1.557  10.862 -0.4273  0.2026 -0.5266
79299SOL    HW155507   1.869   1.490  10.909 -1.6930 -0.1233 -2.2314
79299SOL    HW255508   1.978   1.507  10.806  0.0758  0.5659 -0.3301
79300SOL     OW55509  12.576   1.380   6.778 -0.4738 -0.0510 -0.5255
79300SOL    HW155510  12.644   1.434   6.738 -1.2740  2.0423  0.7773
79300SOL    HW255511  12.623   1.317   6.833  0.4459  0.1022 -1.1250
79301SOL     OW55512  10.162  11.784   5.166  0.3577  0.4555  0.4513
79301SOL    HW155513  10.180  11.690   5.153  2.1493  0.6209  1.4717
79301SOL    HW255514  10.248  11.823   5.180 -0.3219  2.3482 -0.3393
79302SOL     OW55515   5.088   3.153   0.051 -0.2996 -0.6263 -0.2003
79302SOL    HW155516   5.162   3.149   0.111  0.0614  0.3443 -0.5554
79302SOL    HW255517   5.016   3.110   0.098 -0.2195  0.7112  1.2149
79303SOL     OW55518  13.098   5.294   3.820  0.1076  0.4497 -0.1784
79303SOL    HW155519  13.086   5.302   3.915 -2.1456 -3.7219  0.1383
79303SOL    HW255520  13.023   5.340   3.783 -0.4715 -0.1141  0.2633
79304SOL     OW55521  11.262   3.251   9.092 -0.8706 -0.6490 -0.0669
79304SOL    HW155522  11.313   3.259   9.173 -0.7553 -1.1361 -0.0851
79304SOL    HW255523  11.298   3.317   9.034 -0.2863 -0.9555 -0.0636
79305SOL     OW55524   2.523   7.018  13.483 -0.4313 -0.0400 -0.0114
79305SOL    HW155525   2.521   7.020  13.579 -0.0545  1.2223 -0.0031
79305SOL    HW255526   2.611   6.987  13.461 -0.5979 -0.5600  0.0414
79306SOL     OW55527   5.919  11.340   8.636 -0.3741 -0.3831 -0.0579
79306SOL    HW155528   5.844  11.393   8.661  0.5249  1.3643 -0.8225
79306SOL    HW255529   5.974  11.337   8.715 -0.9710 -1.1953  0.3352
79307SOL     OW55530   9.340   3.602   6.468  0.1731 -0.0774  0.5003
79307SOL    HW155531   9.252   3.565   6.467  0.4223 -0.7793  1.8506
79307SOL    HW255532   9.377   3.580   6.383 -0.4727 -1.0140  0.4535
79308SOL     OW55533  11.304  10.800  12.294 -0.4533 -0.6448  0.4258
79308SOL    HW155534  11.294  10.893  12.274  2.1499 -0.4863 -0.6471
79308SOL    HW255535  11.335  10.762  12.212  4.1023 -1.2838  2.1217
79309SOL     OW55536   0.950  10.370   7.831 -0.5196 -0.5913 -0.3441
79309SOL    HW155537   0.975  10.287   7.789 -0.6037 -0.2939 -0.9860
79309SOL    HW255538   0.873  10.347   7.883 -0.8012 -0.8329 -0.8533
79310SOL     OW55539   4.985  10.377  12.863  0.0405  0.2394  0.3332
79310SOL    HW155540   5.049  10.309  12.883 -0.4242 -0.1340  0.5718
79310SOL    HW255541   5.037  10.457  12.852  0.9351 -0.6342 -2.7076
79311SOL     OW55542   6.570   4.714   1.520 -0.2929  0.4311  0.5455
79311SOL    HW155543   6.525   4.636   1.551  0.1655 -0.2250 -0.3751
79311SOL    HW255544   6.631   4.681   1.454 -2.5895  1.9236 -2.5808
79312SOL     OW55545   5.505   2.036  12.451 -0.3437  0.8515  0.4967
79312SOL    HW155546   5.415   2.003  12.457 -0.3762  1.1364  1.6656
79312SOL    HW255547   5.528   2.061  12.540  1.2789 -0.2104  0.4158
79313SOL     OW55548   7.800  11.622   4.304  0.2281  0.0750  0.6840
79313SOL    HW155549   7.793  11.530   4.328 -0.8491 -0.3737 -1.1568
79313SOL    HW255550   7.718  11.661   4.334  0.3898  0.2890  0.8544
79314SOL     OW55551   7.824  10.465  13.841 -0.4465  0.2885 -0.3899
79314SOL    HW155552   7.859  10.397  13.783 -0.9678  1.0592 -1.6327
79314SOL    HW255553   7.898  10.524  13.857  0.0781 -0.6504  0.8919
79315SOL     OW55554   4.479   0.931   0.990  0.1896  0.3997 -0.3514
79315SOL    HW155555   4.411   0.973   1.044  1.9455  0.8148  1.7043
79315SOL    HW255556   4.532   1.004   0.959  0.7775 -0.0299 -0.3623
79316SOL     OW55557   4.663  10.855   0.041  0.1174  0.4053  0.4854
79316SOL    HW155558   4.718  10.865  -0.037  1.4602 -1.7997  1.0578
79316SOL    HW255559   4.617  10.772   0.028 -2.2849  1.6223  0.5724
79317SOL     OW55560   2.112   5.760   8.186 -0.1318 -0.5525 -0.2808
79317SOL    HW155561   2.075   5.837   8.142  1.2115  2.0484  2.7499
79317SOL    HW255562   2.038   5.702   8.200 -2.2587  2.2987  1.3582
79318SOL     OW55563   0.826  13.620   1.794  0.1759  0.3604  0.2658
79318SOL    HW155564   0.895  13.668   1.841 -0.4571  1.7387 -0.1395
79318SOL    HW255565   0.834  13.649   1.703  1.0845 -1.9300 -0.4358
79319SOL     OW55566   5.142   3.881   6.469  0.3784 -0.4891 -0.5709
79319SOL    HW155567   5.052   3.889   6.498  0.4549  0.6026 -0.6114
79319SOL    HW255568   5.177   3.807   6.519 -0.0594  0.1181  0.6707
79320SOL     OW55569  11.960   3.732  10.177 -0.2034 -0.0046  0.1209
79320SOL    HW155570  12.048   3.769  10.166 -0.2102  0.1072  0.4330
79320SOL    HW255571  11.915   3.754  10.096 -0.2708  0.8712  0.3833
79321SOL     OW55572   1.473   3.397   7.830  0.3405  0.2877  0.3016
79321SOL    HW155573   1.426   3.479   7.842  0.3741  0.1376  1.5568
79321SOL    HW255574   1.406   3.329   7.840  0.1956  0.1591 -1.3351
79322SOL     OW55575  11.268   3.600   6.110  0.1215 -0.3198 -0.3236
79322SOL    HW155576  11.255   3.521   6.056 -0.6385  0.4451 -1.2826
79322SOL    HW255577  11.286   3.565   6.198 -3.8616 -1.5935  0.1649
79323SOL     OW55578  12.302   0.270   3.725  0.3745 -0.1608  0.4118
79323SOL    HW155579  12.347   0.201   3.677 -1.4004 -1.7383  0.9342
79323SOL    HW255580  12.259   0.322   3.657 -0.3038 -1.0593  0.1415
79324SOL     OW55581   5.917   2.081  12.091  0.0632  0.1583  0.0508
79324SOL    HW155582   5.838   2.074  12.144 -0.3730 -0.4851 -0.6748
79324SOL    HW255583   5.906   2.164  12.044 -0.0788  0.1628  0.0914
79325SOL     OW55584   8.302  12.775   3.705 -0.3833 -0.3035 -0.5770
79325SOL    HW155585   8.215  12.771   3.744 -0.2841 -2.6383 -0.4699
79325SOL    HW255586   8.347  12.844   3.754 -1.9470  0.5367 -0.2455
79326SOL     OW55587   1.498  13.485   0.148 -0.3896 -0.1453 -0.2487
79326SOL    HW155588   1.470  13.491   0.239 -1.5148 -0.2633 -0.5698
79326SOL    HW255589   1.592  13.505   0.150 -0.4574  0.1222  0.8917
79327SOL     OW55590   5.790  13.689   4.810  0.2474  0.5920  0.1714
79327SOL    HW155591   5.700  13.709   4.837  0.7752  0.7481  1.9382
79327SOL    HW255592   5.826  13.775   4.786  0.2500  0.6917  0.5232
79328SOL     OW55593   2.178   6.736   7.855  0.1007 -0.7832  0.1762
79328SOL    HW155594   2.138   6.654   7.827 -2.9377  1.0933 -1.6464
79328SOL    HW255595   2.118   6.772   7.920 -0.0491  1.0860 -0.9046
79329SOL     OW55596  10.312   3.140   8.328  0.0580  0.4790 -0.2387
79329SOL    HW155597  10.321   3.224   8.373  1.9419  0.5345 -0.6428
79329SOL    HW255598  10.375   3.144   8.257 -1.5363 -0.3440 -1.7884
79330SOL     OW55599   3.325   1.065  13.763 -0.8312  0.2877  0.0529
79330SOL    HW155600   3.344   1.025  13.848 -0.7821  1.7678  0.7704
79330SOL    HW255601   3.236   1.100  13.772 -1.3837 -0.7686 -1.0084
79331SOL     OW55602   0.208   8.519   5.818 -0.5913  0.0245 -0.0126
79331SOL    HW155603   0.282   8.514   5.758 -0.3221 -0.3768  0.3471
79331SOL    HW255604   0.236   8.579   5.886 -1.4722  1.7091 -1.0634
79332SOL     OW55605   3.671  12.069   9.433  0.2895  0.0101  0.6746
79332SOL    HW155606   3.627  12.112   9.360  2.4175 -1.6863 -1.7752
79332SOL    HW255607   3.613  12.083   9.508 -2.4197  1.1267 -1.4802
79333SOL     OW55608   2.098  10.818   0.357  0.3804 -0.4670  0.6853
79333SOL    HW155609   2.187  10.845   0.379  1.7960 -1.7437 -2.7212
79333SOL    HW255610   2.041  10.874   0.410  3.1709  1.1325  2.1912
79334SOL     OW55611  12.397   1.184   4.911  0.4398  0.1341 -0.7852
79334SOL    HW155612  12.439   1.129   4.978  0.8364  0.4565 -0.7602
79334SOL    HW255613  12.445   1.165   4.831 -0.7301 -1.0563 -1.2365
79335SOL     OW55614   7.000  11.644  12.696  0.1810 -0.2542 -0.1206
79335SOL    HW155615   6.914  11.616  12.729 -0.3479  0.5498 -0.7815
79335SOL    HW255616   7.063  11.604  12.756 -0.7041  0.0575  1.0523
79336SOL     OW55617   5.403  10.902   0.164  0.2999 -0.4230 -0.1030
79336SOL    HW155618   5.351  10.981   0.182  0.9407  0.2180 -0.9832
79336SOL    HW255619   5.338  10.835   0.145 -0.2400  0.1909 -0.4892
79337SOL     OW55620  13.406   2.422   8.636 -0.0413  0.6986  0.5705
79337SOL    HW155621  13.490   2.464   8.657  0.7509  0.5844 -2.0309
79337SOL    HW255622  13.422   2.329   8.650  0.8320  0.5086 -1.3755
79338SOL     OW55623   5.035  10.965   7.288  0.6792 -0.1116 -0.2015
79338SOL    HW155624   5.099  11.019   7.242  1.1913 -0.5557 -0.0205
79338SOL    HW255625   5.055  10.875   7.262 -0.5085 -0.1862 -0.9204
79339SOL     OW55626   8.159   1.610   3.427  0.1427  0.3867  0.1461
79339SOL    HW155627   8.074   1.605   3.383  0.6081 -0.4869 -0.6756
79339SOL    HW255628   8.157   1.693   3.474 -1.4558  0.0475  0.7398
79340SOL     OW55629   4.050   0.328   6.353 -0.2981  0.1205  0.1779
79340SOL    HW155630   4.005   0.352   6.434 -1.9261 -0.0687 -0.6337
79340SOL    HW255631   4.123   0.391   6.346  0.0090 -0.0026  1.8703
79341SOL     OW55632   8.308   0.171   8.579  0.2032  0.1402 -0.3746
79341SOL    HW155633   8.328   0.089   8.623  0.9274  0.3047 -0.3930
79341SOL    HW255634   8.265   0.225   8.645 -2.2517 -0.9990 -0.9080
79342SOL     OW55635   1.440   7.146   9.077 -0.1454 -0.4207  0.0700
79342SOL    HW155636   1.478   7.216   9.130 -0.6055 -0.3596  0.3272
79342SOL    HW255637   1.477   7.065   9.114  1.7488 -0.2692 -1.3152
79343SOL     OW55638   3.032   4.545   7.727 -0.0179  0.8335 -0.1564
79343SOL    HW155639   3.056   4.624   7.679 -0.8500  1.2511  0.0903
79343SOL    HW255640   3.112   4.519   7.773  0.1909  1.6733 -0.0354
79344SOL     OW55641   1.020   0.232   1.806 -0.3329  0.3196 -0.3226
79344SOL    HW155642   1.051   0.192   1.725 -1.9831  0.1233 -0.9041
79344SOL    HW255643   0.951   0.173   1.837 -0.9775  1.3290  0.2289
79345SOL     OW55644   6.948   2.768   6.549 -0.2026  0.6770  0.5263
79345SOL    HW155645   6.996   2.742   6.470 -0.4351  1.1077  0.2389
79345SOL    HW255646   6.856   2.751   6.527 -0.2911  1.0488  0.6096
79346SOL     OW55647   7.567   5.413   1.494 -0.8060  0.3050 -0.2970
79346SOL    HW155648   7.500   5.346   1.506 -0.3140 -0.1062  0.1608
79346SOL    HW255649   7.518   5.496   1.493 -1.6953 -0.1497 -3.0765
79347SOL     OW55650   0.199  12.018  13.790 -0.0257 -0.5203 -0.3806
79347SOL    HW155651   0.247  12.035  13.709  0.7793 -2.5121 -0.3806
79347SOL    HW255652   0.187  11.923  13.792 -0.9496 -0.4211  1.3287
79348SOL     OW55653  10.882   1.895   6.013  0.7318  0.0936 -0.1490
79348SOL    HW155654  10.900   1.978   5.968 -1.5425  0.2406 -0.8869
79348SOL    HW255655  10.826   1.846   5.952 -2.1507  0.1347  2.2904
79349SOL     OW55656   9.099  11.151  14.063 -0.0500 -0.3233  0.0943
79349SOL    HW155657   9.053  11.233  14.083 -2.5800 -2.1861  2.6520
79349SOL    HW255658   9.177  11.154  14.118 -0.9951 -0.3158  1.4729
79350SOL     OW55659   0.634   1.335   2.168  0.3101 -0.1268 -0.6133
79350SOL    HW155660   0.637   1.402   2.100  0.4860  1.0117  0.4812
79350SOL    HW255661   0.725   1.326   2.196  0.1535 -0.1272 -0.0963
79351SOL     OW55662   4.345  11.324   7.680  0.3889  0.0655  0.0329
79351SOL    HW155663   4.388  11.261   7.738  1.2703  0.1288 -0.5426
79351SOL    HW255664   4.401  11.328   7.602  0.2849  1.4871  0.0072
79352SOL     OW55665   2.799  10.958   5.447 -0.3636  0.0105 -0.1089
79352SOL    HW155666   2.838  10.985   5.530 -0.3424 -0.4429  0.0306
79352SOL    HW255667   2.754  10.876   5.467 -0.1897 -0.2042 -0.5899
79353SOL     OW55668   3.664   7.945   8.954  0.4387  0.3474 -0.3794
79353SOL    HW155669   3.602   7.986   9.014  0.0197 -0.9690  0.1376
79353SOL    HW255670   3.613   7.928   8.875  0.7836  1.3807 -0.8341
79354SOL     OW55671   8.026  13.923  10.234 -0.5320  0.1271  0.2129
79354SOL    HW155672   7.995  13.881  10.154  0.8405  2.4886 -1.6957
79354SOL    HW255673   7.952  13.974  10.265 -0.4083  1.0175 -0.9003
79355SOL     OW55674   0.576   7.678  11.290 -0.1223 -0.0395 -0.5058
79355SOL    HW155675   0.641   7.747  11.293  0.3358 -0.4873  0.2164
79355SOL    HW255676   0.533   7.688  11.205  1.7132 -0.4901 -1.5356
79356SOL     OW55677   4.238   2.222   7.022 -0.3814 -0.2839  0.4362
79356SOL    HW155678   4.160   2.277   7.020  0.2743  0.6676 -1.4509
79356SOL    HW255679   4.212   2.142   6.976 -0.6212 -0.5631  1.0394
79357SOL     OW55680   2.743  12.948   3.034  0.0597 -0.0457  0.1750
79357SOL    HW155681   2.667  12.997   3.066  0.4327 -1.5669  3.9435
79357SOL    HW255682   2.819  12.996   3.067  0.5669 -0.7856  0.1234
79358SOL     OW55683   9.085   4.489  10.323  0.4045  0.7897 -0.1775
79358SOL    HW155684   9.055   4.429  10.392 -0.1611  0.1999 -0.9187
79358SOL    HW255685   9.180   4.495  10.337  0.3611  0.3324  0.3789
79359SOL     OW55686   5.310   2.817   2.795 -0.3487  0.3086  0.4141
79359SOL    HW155687   5.253   2.874   2.743  1.5181  0.1218 -2.0147
79359SOL    HW255688   5.295   2.730   2.760 -0.1965 -0.0779  1.2931
79360SOL     OW55689   3.571  11.216   2.299  0.7603 -0.3598 -0.2226
79360SOL    HW155690   3.666  11.224   2.298  0.7604  0.4213  1.5019
79360SOL    HW255691   3.554  11.124   2.323  1.0644 -0.5596 -0.7638
79361SOL     OW55692   1.856  11.527  10.582  0.2543 -0.4160 -0.2009
79361SOL    HW155693   1.792  11.461  10.556 -0.1665  0.2273 -0.8152
79361SOL    HW255694   1.827  11.555  10.668 -1.1854  0.9511 -1.0917
79362SOL     OW55695   8.746  13.433   8.679  0.0018 -0.0140 -0.3414
79362SOL    HW155696   8.750  13.459   8.771 -1.9694 -1.3107  0.1816
79362SOL    HW255697   8.701  13.506   8.636 -0.5078 -0.0829  0.0517
79363SOL     OW55698   5.915   8.737   3.272 -0.0604  0.2516  0.1037
79363SOL    HW155699   5.993   8.683   3.259  0.3580  0.6071  1.0516
79363SOL    HW255700   5.855   8.682   3.323 -0.4073  0.0163 -0.5379
79364SOL     OW55701   3.604  12.875  11.812 -0.2697 -0.1042  0.5820
79364SOL    HW155702   3.635  12.947  11.867  0.3401  0.3624 -0.3577
79364SOL    HW255703   3.625  12.796  11.862  1.2512  0.2613  0.5598
79365SOL     OW55704   8.717  11.115   4.716  0.3521 -0.3836  0.7133
79365SOL    HW155705   8.698  11.105   4.809  0.8446  2.7328  1.2574
79365SOL    HW255706   8.703  11.208   4.698  0.7352 -0.7867 -2.2361
79366SOL     OW55707   7.507  13.074   2.828  0.6411 -0.1617 -0.2737
79366SOL    HW155708   7.546  13.024   2.757  0.3787 -1.5431  0.5285
79366SOL    HW255709   7.519  13.166   2.802  0.6299 -0.6317 -2.0351
79367SOL     OW55710  10.947   8.801   1.702 -0.8111 -0.4320  0.0276
79367SOL    HW155711  10.922   8.823   1.612  0.6807  0.1609 -0.2690
79367SOL    HW255712  10.933   8.882   1.751 -2.5339 -1.0086  0.5775
79368SOL     OW55713  12.518   5.412   4.898 -0.2747 -0.3184  0.0953
79368SOL    HW155714  12.480   5.412   4.986  1.5676 -0.7512  0.9462
79368SOL    HW255715  12.557   5.325   4.889 -0.5450 -0.3227 -1.2179
79369SOL     OW55716  12.274   2.657  11.882  0.1051 -0.1572 -0.3061
79369SOL    HW155717  12.356   2.636  11.926 -0.1952 -2.2701 -0.6196
79369SOL    HW255718  12.264   2.588  11.816 -1.9246  0.0109 -0.2590
79370SOL     OW55719   6.388   3.597  12.749 -0.4583 -0.2508  0.3193
79370SOL    HW155720   6.400   3.512  12.708  0.3272 -0.5712  1.1961
79370SOL    HW255721   6.311   3.634  12.705  0.5324 -0.4389 -1.6581
79371SOL     OW55722  11.963   9.097   8.948 -0.1235 -0.0852  0.2127
79371SOL    HW155723  11.997   9.185   8.936 -1.6746  0.4175 -0.7519
79371SOL    HW255724  11.967   9.083   9.043  1.8732  0.2616  0.2250
79372SOL     OW55725   2.910   1.832  12.972 -0.1104 -0.1629 -0.9068
79372SOL    HW155726   2.872   1.757  13.018  0.5323  2.1995  4.1081
79372SOL    HW255727   2.997   1.802  12.946  0.1093 -1.2397  0.9261
79373SOL     OW55728   8.112   0.526   9.660 -0.0322 -0.0406 -0.0685
79373SOL    HW155729   8.109   0.431   9.646  0.1652 -0.0172 -0.2788
79373SOL    HW255730   8.186   0.555   9.607  0.4304  0.1156  0.6432
79374SOL     OW55731   9.917   8.109   7.226  0.3834 -0.1348  0.1749
79374SOL    HW155732   9.969   8.030   7.223 -2.8090 -2.4072 -1.6509
79374SOL    HW255733   9.951   8.163   7.154  0.5863 -1.3559 -0.6867
79375SOL     OW55734   2.421  10.395   6.693  0.3139  0.7569 -0.0515
79375SOL    HW155735   2.495  10.339   6.717  0.5183  0.8036 -0.5470
79375SOL    HW255736   2.451  10.484   6.712  0.3385  0.7661 -0.1322
79376SOL     OW55737   6.183   8.792   0.165  0.1719 -0.0596  0.3697
79376SOL    HW155738   6.216   8.851   0.232 -0.7308  0.3945  0.4262
79376SOL    HW255739   6.257   8.734   0.146  1.1550  1.2099  0.1528
79377SOL     OW55740   4.494   5.584   6.375 -0.1413  0.3222 -0.0556
79377SOL    HW155741   4.421   5.622   6.424  1.0096  0.5150  1.5629
79377SOL    HW255742   4.496   5.633   6.293  0.1672  2.5386  1.2197
79378SOL     OW55743  12.469   3.826   6.378 -0.1483 -0.2860 -0.1291
79378SOL    HW155744  12.402   3.787   6.435 -1.6169  0.1844 -1.4930
79378SOL    HW255745  12.475   3.917   6.407  1.6052 -0.8575  1.5038
79379SOL     OW55746  13.638   2.390  11.435  0.1793  0.3533 -0.0737
79379SOL    HW155747  13.678   2.455  11.493 -0.9590  1.4723 -0.5048
79379SOL    HW255748  13.546   2.418  11.428 -0.3458 -1.3366 -0.2379
79380SOL     OW55749  10.429   0.568   7.877  0.3427 -0.5468 -0.1116
79380SOL    HW155750  10.411   0.476   7.899  0.5004 -0.7881 -0.9617
79380SOL    HW255751  10.483   0.599   7.950  2.7252 -1.9469 -1.1631
79381SOL     OW55752   3.343  10.092  11.161 -0.3142  0.2967  0.1408
79381SOL    HW155753   3.380  10.162  11.108 -0.8989  0.1208 -0.5110
79381SOL    HW255754   3.418  10.041  11.190  0.0834  0.9654  0.2933
79382SOL     OW55755  14.001  12.761   5.035  0.0592 -0.4668  0.2858
79382SOL    HW155756  13.953  12.678   5.029  0.0868 -0.3459 -2.2911
79382SOL    HW255757  13.934  12.828   5.026  0.2439 -0.2194  0.7096
79383SOL     OW55758   5.520   5.827   1.371 -0.0389  0.6035  0.6214
79383SOL    HW155759   5.577   5.904   1.370  3.4193 -1.7372  0.8353
79383SOL    HW255760   5.548   5.778   1.449  0.9174 -2.8389 -1.6784
79384SOL     OW55761   6.588   0.651   1.587 -0.2229 -0.3718  0.2318
79384SOL    HW155762   6.493   0.651   1.585 -0.2277  0.1638  0.2512
79384SOL    HW255763   6.612   0.559   1.596 -0.7599 -0.4410  1.1437
79385SOL     OW55764   1.842  11.576   1.996  0.1694  0.1126  0.2475
79385SOL    HW155765   1.803  11.595   1.911 -0.8711  0.9892  0.8866
79385SOL    HW255766   1.902  11.649   2.011 -0.7139  0.7414  0.8649
79386SOL     OW55767   9.378   1.073   1.508 -0.0746  0.2323  0.0473
79386SOL    HW155768   9.394   1.145   1.568  1.8694  0.8161 -1.0774
79386SOL    HW255769   9.371   0.996   1.564  3.4214  0.4764  1.0663
79387SOL     OW55770  12.735   3.064   7.092  0.2365 -0.3906 -0.3409
79387SOL    HW155771  12.813   3.119   7.092  0.3218 -0.5079  0.0078
79387SOL    HW255772  12.731   3.029   7.181 -0.4077 -0.0971 -0.2465
79388SOL     OW55773   8.980  10.404  10.528 -0.3733 -0.2016  0.4725
79388SOL    HW155774   9.050  10.350  10.564 -0.9344 -1.5903 -0.4506
79388SOL    HW255775   8.950  10.457  10.602  3.0087  2.0392  0.4744
79389SOL     OW55776  12.966   3.776   2.781 -0.3868 -0.6731  0.1630
79389SOL    HW155777  12.973   3.853   2.839  2.7393 -1.0099  0.4193
79389SOL    HW255778  12.897   3.799   2.720 -0.2682  1.9487  0.8689
79390SOL     OW55779   1.656  11.939   0.114 -0.3326 -0.7481 -0.0116
79390SOL    HW155780   1.665  11.844   0.112 -1.1264 -0.8282 -0.1648
79390SOL    HW255781   1.596  11.956   0.187 -1.1132 -0.4614 -0.6998
79391SOL     OW55782   5.711   4.125  12.668  0.0653 -0.5119 -0.4129
79391SOL    HW155783   5.624   4.088  12.649 -1.4349  2.9761 -1.0652
79391SOL    HW255784   5.693   4.209  12.709  3.1661  0.5593 -0.9963
79392SOL     OW55785   0.338  12.388   5.690 -0.0009 -0.0959  0.3274
79392SOL    HW155786   0.330  12.297   5.720  0.1053 -0.5948 -1.0742
79392SOL    HW255787   0.252  12.409   5.654  0.4759 -0.2696 -0.9643
79393SOL     OW55788  10.008   5.182   4.751 -0.0204 -0.3982 -0.8411
79393SOL    HW155789   9.921   5.152   4.725 -0.0860 -0.9332 -0.0390
79393SOL    HW255790   9.992   5.244   4.823  0.2138  0.2577 -1.3412
79394SOL     OW55791  11.133   6.439   4.850  0.4734 -0.2905  0.1204
79394SOL    HW155792  11.061   6.432   4.913  0.2274  0.4356 -0.0669
79394SOL    HW255793  11.130   6.530   4.820  1.5066 -0.2383  0.1475
79395SOL     OW55794   8.646  12.577   9.706  0.0208 -0.5871  0.1256
79395SOL    HW155795   8.677  12.660   9.742  0.6173 -0.5046 -0.5586
79395SOL    HW255796   8.725  12.532   9.676 -0.4982 -0.2719 -1.8706
79396SOL     OW55797   3.712   5.262   5.678 -0.3549  0.0991  0.0360
79396SOL    HW155798   3.700   5.357   5.677 -0.3769  0.0974 -0.7710
79396SOL    HW255799   3.623   5.228   5.690 -0.3611  0.1815  0.2247
79397SOL     OW55800   2.109   5.806  11.407 -0.5706 -0.6190  0.5034
79397SOL    HW155801   2.053   5.883  11.396  0.9842  0.6440  0.9951
79397SOL    HW255802   2.112   5.792  11.502  1.9526  0.9862  0.7559
79398SOL     OW55803   5.684   2.628  10.380  0.2640  0.1182 -0.1806
79398SOL    HW155804   5.726   2.544  10.399  0.0065 -0.0968 -0.5470
79398SOL    HW255805   5.733   2.662  10.305 -0.4742 -0.3317 -0.8832
79399SOL     OW55806   1.168   8.503   1.753 -0.7165 -0.1587  0.2048
79399SOL    HW155807   1.227   8.456   1.695 -1.7682 -0.4256 -0.6916
79399SOL    HW255808   1.185   8.467   1.840 -0.7068 -1.3993 -0.2892
79400SOL     OW55809   2.279   8.716   9.642  0.0188  0.0109  0.2034
79400SOL    HW155810   2.345   8.724   9.573  1.6658  0.8417  1.7894
79400SOL    HW255811   2.284   8.624   9.668 -0.9296 -0.4206 -1.0264
79401SOL     OW55812   0.055   6.143   3.047 -0.1383 -0.2706  0.0978
79401SOL    HW155813  -0.039   6.130   3.057 -0.1345 -0.5975 -0.2503
79401SOL    HW255814   0.075   6.104   2.961  0.7776 -2.7211  1.3335
79402SOL     OW55815  11.910  11.290   3.489  0.7052  0.5229 -0.2295
79402SOL    HW155816  11.953  11.361   3.440 -0.9394  1.3915 -0.4880
79402SOL    HW255817  11.820  11.320   3.499  0.0073 -1.4793 -0.1929
79403SOL     OW55818   4.075  11.448   1.694  0.6029 -0.1943  0.0357
79403SOL    HW155819   4.149  11.466   1.636  0.6727 -0.0577  0.1639
79403SOL    HW255820   4.095  11.362   1.732  1.2775  0.3345  0.9379
79404SOL     OW55821   5.174   9.146   4.202  0.0713  0.0580  0.4882
79404SOL    HW155822   5.164   9.052   4.217 -0.0204  0.3685  2.8248
79404SOL    HW255823   5.234   9.153   4.128  2.0698 -1.8857  1.8040
79405SOL     OW55824   3.575  11.165   5.749 -0.0924  0.5841 -0.0628
79405SOL    HW155825   3.637  11.235   5.771  0.2717  0.8307 -1.7601
79405SOL    HW255826   3.580  11.105   5.823  1.5687  1.0134  0.2171
79406SOL     OW55827   5.299  10.685  12.562 -0.1981 -0.1528 -0.0348
79406SOL    HW155828   5.385  10.662  12.598  0.2778 -0.9785 -1.5924
79406SOL    HW255829   5.316  10.701  12.469 -1.8677 -1.1196 -0.5495
79407SOL     OW55830  13.555  12.884   1.682  0.0493 -0.2793 -0.0317
79407SOL    HW155831  13.493  12.829   1.730  0.1308 -0.5527 -0.2380
79407SOL    HW255832  13.573  12.957   1.742 -1.6962  0.6726 -0.5859
79408SOL     OW55833   3.131  13.645   0.489  0.4903 -0.3726 -0.4050
79408SOL    HW155834   3.204  13.706   0.503  1.2369 -1.3130 -0.0777
79408SOL    HW255835   3.059  13.680   0.541  0.1759  1.4207 -1.9126
79409SOL     OW55836   2.741   2.144   4.748  0.2550 -0.2008  0.2231
79409SOL    HW155837   2.658   2.191   4.754  0.4033  0.1421 -0.3103
79409SOL    HW255838   2.730   2.086   4.673  0.7325  0.3380 -0.2741
79410SOL     OW55839   9.915  11.959  11.337  0.8965  0.4005  0.0919
79410SOL    HW155840   9.855  11.978  11.409  0.4956  0.3139 -0.2165
79410SOL    HW255841  10.000  11.987  11.369  0.4471  2.0797 -0.0839
79411SOL     OW55842   2.228  13.883   7.903  0.0365 -0.0475  0.2439
79411SOL    HW155843   2.187  13.810   7.856  0.3563  0.7192 -1.3199
79411SOL    HW255844   2.301  13.843   7.950  0.0415 -0.7882 -0.3707
79412SOL     OW55845  13.960   7.126   0.985  0.4352 -0.8110 -0.1175
79412SOL    HW155846  13.938   7.033   0.975  1.0070 -0.8971 -0.7088
79412SOL    HW255847  13.929   7.166   0.904  1.6758 -0.7952 -0.6061
79413SOL     OW55848   5.677   2.339   4.248 -0.1726 -0.6487 -0.3014
79413SOL    HW155849   5.583   2.320   4.242 -0.4149  0.5178 -0.3218
79413SOL    HW255850   5.717   2.282   4.183 -1.0783  0.2539 -1.6939
79414SOL     OW55851   1.238   2.094   6.296 -0.6365  0.0492 -0.1032
79414SOL    HW155852   1.298   2.167   6.312  1.0872 -1.0554 -1.2349
79414SOL    HW255853   1.251   2.035   6.369 -0.3037 -0.2127 -0.3722
79415SOL     OW55854   0.645  11.072  12.071  0.0915  0.7786 -0.2946
79415SOL    HW155855   0.681  11.093  12.156 -0.9024  1.6596 -0.0635
79415SOL    HW255856   0.685  10.989  12.047 -0.4996 -0.1023  1.5647
79416SOL     OW55857   4.145   5.647   7.199 -0.0856  0.5099  0.3999
79416SOL    HW155858   4.116   5.629   7.289  1.4750  1.1044  1.0602
79416SOL    HW255859   4.100   5.727   7.174 -1.1367 -0.0797  0.3301
79417SOL     OW55860   6.938   2.035   8.414  0.1019 -0.5818 -0.4964
79417SOL    HW155861   6.921   1.953   8.369  0.0420 -1.6290  1.3471
79417SOL    HW255862   6.998   2.083   8.355  0.2881 -2.0066 -1.5100
79418SOL     OW55863  13.522   3.188   0.828 -0.4106 -0.0553  0.2223
79418SOL    HW155864  13.531   3.200   0.923  0.6475  1.2252 -0.0030
79418SOL    HW255865  13.435   3.222   0.808 -0.5313 -0.0745  0.7025
79419SOL     OW55866   8.661   2.475   8.002 -0.3819 -0.0510 -0.0496
79419SOL    HW155867   8.638   2.568   8.004 -0.5581 -0.0974  0.7059
79419SOL    HW255868   8.659   2.449   8.094  0.5483 -0.5942 -0.1805
79420SOL     OW55869  10.689   3.232   9.957 -0.0834  0.1831  0.1495
79420SOL    HW155870  10.729   3.303   9.907 -0.4214  1.9610  2.2866
79420SOL    HW255871  10.728   3.238  10.044 -0.7272 -1.7557  0.6356
79421SOL     OW55872   0.950   6.412  12.054  0.3283 -0.0020  0.1197
79421SOL    HW155873   0.922   6.411  12.146  0.3562  0.1967  0.1319
79421SOL    HW255874   1.004   6.490  12.047  3.0291 -1.7089  0.7185
79422SOL     OW55875   0.637   7.013  10.026 -0.0113  0.3288 -0.1660
79422SOL    HW155876   0.640   7.089   9.967  0.6011  0.9417  0.6176
79422SOL    HW255877   0.722   6.971  10.014 -0.2690 -0.1162 -0.4414
79423SOL     OW55878   6.254   5.594   3.688 -0.6557  0.1115 -0.0854
79423SOL    HW155879   6.175   5.643   3.663 -0.4677 -0.0035 -0.9288
79423SOL    HW255880   6.326   5.643   3.649 -0.4061 -0.4101 -0.2880
79424SOL     OW55881   2.883   7.568   3.496  0.4237  0.2654 -0.1626
79424SOL    HW155882   2.921   7.651   3.524 -0.2936  0.2347  0.9786
79424SOL    HW255883   2.903   7.563   3.403  1.8161  0.9752  0.0661
79425SOL     OW55884  10.989   2.728   9.166 -0.5873  0.1812  0.8358
79425SOL    HW155885  11.047   2.775   9.106  0.0905 -1.2572  0.3042
79425SOL    HW255886  10.969   2.646   9.120 -0.2168 -0.8744  2.4623
79426SOL     OW55887   7.073   0.115   0.523  0.5406  0.5053 -0.0784
79426SOL    HW155888   7.065   0.070   0.438  1.8336  0.7425 -0.3507
79426SOL    HW255889   7.141   0.066   0.569  0.3885  0.8460  0.5092
79427SOL     OW55890   6.105  12.668   8.239  0.5781 -0.9944  0.2459
79427SOL    HW155891   6.146  12.674   8.325  0.7524 -0.5865  0.1375
79427SOL    HW255892   6.067  12.755   8.225 -1.6436 -1.7685  0.9939
79428SOL     OW55893   0.715   3.890   7.743 -0.2543  0.1120 -0.1806
79428SOL    HW155894   0.750   3.832   7.675 -0.2635  1.3966 -1.3251
79428SOL    HW255895   0.620   3.881   7.735 -0.2598  0.3871 -0.4748
79429SOL     OW55896  10.798  11.276   5.298  0.1258  0.7177  0.3165
79429SOL    HW155897  10.828  11.294   5.388 -0.5635 -0.1213  0.7297
79429SOL    HW255898  10.877  11.245   5.253  0.8335  2.5497  0.1856
79430SOL     OW55899   6.108   1.843   9.982  1.1719 -0.2730 -0.4565
79430SOL    HW155900   6.164   1.917  10.006 -0.0396 -0.1634  2.4619
79430SOL    HW255901   6.048   1.878   9.916  0.9214  1.2537  0.5432
79431SOL     OW55902   8.332   3.602   7.780  0.1416 -0.2429  0.1478
79431SOL    HW155903   8.352   3.638   7.867 -0.5418  0.4088  0.0422
79431SOL    HW255904   8.268   3.663   7.743 -0.5742 -1.2404 -0.2917
79432SOL     OW55905   4.706   2.615  12.150 -0.4461 -0.1154  0.4528
79432SOL    HW155906   4.776   2.563  12.189 -0.2182  0.2046  0.4709
79432SOL    HW255907   4.707   2.698  12.198  0.5439  0.7100 -0.9224
79433SOL     OW55908   3.287   5.174  12.539  0.7560  0.5474  0.1070
79433SOL    HW155909   3.318   5.211  12.622 -0.8150 -0.6904  1.2975
79433SOL    HW255910   3.229   5.242  12.503 -1.6663 -0.3538  2.0033
79434SOL     OW55911   2.974  12.410   7.594  0.2939  0.4511  0.1361
79434SOL    HW155912   3.027  12.476   7.638 -0.3222  0.3018  1.1326
79434SOL    HW255913   3.009  12.326   7.623  1.5557  0.2832 -1.7030
79435SOL     OW55914   3.509   8.176   9.738  0.3025  0.3022  0.1677
79435SOL    HW155915   3.439   8.218   9.787 -0.4130  1.0850 -1.4517
79435SOL    HW255916   3.500   8.083   9.758 -0.6763  0.4876  0.6274
79436SOL     OW55917   8.747   4.705   6.402  0.8080 -0.3032 -0.4311
79436SOL    HW155918   8.783   4.794   6.408  0.8441 -0.3927  1.1869
79436SOL    HW255919   8.754   4.682   6.309  1.9421  0.9090 -0.6730
79437SOL     OW55920  12.840  13.504   7.679  0.3201  0.3660 -0.1048
79437SOL    HW155921  12.778  13.574   7.657 -1.0738 -0.6196  0.5136
79437SOL    HW255922  12.873  13.529   7.766  1.0444  1.0360 -0.5532
79438SOL     OW55923   5.251   2.142   9.120  0.6499  0.3130 -0.0794
79438SOL    HW155924   5.331   2.192   9.136  0.7048  0.3261 -0.3995
79438SOL    HW255925   5.206   2.142   9.205  1.7477 -1.0533  0.5512
79439SOL     OW55926   5.734  10.768   9.751 -0.6227  0.0981  0.3715
79439SOL    HW155927   5.763  10.795   9.664 -0.9353  2.2129  0.8675
79439SOL    HW255928   5.779  10.685   9.767  0.3827  0.2833 -1.3041
79440SOL     OW55929   6.082   8.938  13.403  0.7556  0.4747 -0.2487
79440SOL    HW155930   6.040   8.988  13.333  0.1569  1.1793  0.5895
79440SOL    HW255931   6.175   8.956  13.392  1.0155 -1.7106 -2.6010
79441SOL     OW55932   2.257   9.162   5.029 -0.6439  0.3757 -0.0769
79441SOL    HW155933   2.268   9.079   4.983 -0.9886  0.5238 -0.4304
79441SOL    HW255934   2.166   9.161   5.060 -0.0227 -0.3709  1.8878
79442SOL     OW55935   2.239   2.276  12.452  0.0994 -0.8023 -0.0714
79442SOL    HW155936   2.179   2.271  12.378 -0.8555 -1.8248  0.7318
79442SOL    HW255937   2.185   2.310  12.524  0.9638  0.0148  0.2134
79443SOL     OW55938   0.064   3.249   1.445 -0.1315  0.3458  0.3485
79443SOL    HW155939   0.087   3.284   1.359  0.5340  0.1549  0.4428
79443SOL    HW255940   0.083   3.155   1.438 -0.5389  0.2430  0.5568
79444SOL     OW55941   1.128   0.042  11.352  0.1443  0.1194 -0.1306
79444SOL    HW155942   1.046   0.090  11.337  0.0597 -0.3871 -1.4647
79444SOL    HW255943   1.169   0.039  11.266  1.6424  0.4655  0.5505
79445SOL     OW55944   7.367   0.972   0.386 -0.5697  0.0822 -0.2944
79445SOL    HW155945   7.298   0.953   0.451 -2.0486  1.6320 -1.3028
79445SOL    HW255946   7.433   1.020   0.436 -1.7343  1.3554  0.1162
79446SOL     OW55947   1.838   8.735  11.317 -0.0774 -0.0741  0.7253
79446SOL    HW155948   1.815   8.734  11.410 -0.1188  1.3769  0.7540
79446SOL    HW255949   1.905   8.667  11.309  0.7782  0.5667  2.0592
79447SOL     OW55950   1.045  12.140   7.200  0.9401 -0.1883 -0.7549
79447SOL    HW155951   0.979  12.200   7.236 -0.0186 -1.2054 -0.7662
79447SOL    HW255952   1.128  12.187   7.210  0.5178  0.1975  1.3820
79448SOL     OW55953  13.406   9.946   5.618  0.7534  0.4115  0.5872
79448SOL    HW155954  13.500   9.949   5.636  0.7069 -0.4940  1.0264
79448SOL    HW255955  13.364   9.967   5.701  0.5639 -1.2401  0.9425
79449SOL     OW55956  14.011   4.237   3.213 -0.4500 -0.1077  0.1798
79449SOL    HW155957  13.918   4.256   3.226 -0.1628 -0.0719  2.5649
79449SOL    HW255958  14.045   4.316   3.170 -1.3037  0.3454  0.3010
79450SOL     OW55959   1.170   4.057   4.527  0.1642 -0.1358 -0.1372
79450SOL    HW155960   1.118   4.060   4.446 -1.7584 -1.0884  0.9705
79450SOL    HW255961   1.213   3.972   4.525  2.2418  0.8758 -1.3185
79451SOL     OW55962  11.496   1.947  12.764  0.1349 -0.0883  0.2752
79451SOL    HW155963  11.575   1.915  12.722 -0.6170  0.7259 -1.8571
79451SOL    HW255964  11.527   2.003  12.835  1.4643 -0.0616 -0.3068
79452SOL     OW55965   0.675  11.619   1.223  0.7527 -0.0065 -0.0562
79452SOL    HW155966   0.717  11.692   1.177  0.5741  0.3140  0.2821
79452SOL    HW255967   0.740  11.549   1.221  0.1261 -0.5884 -2.2540
79453SOL     OW55968  10.393   0.538   1.456  0.1087  0.0943  0.2450
79453SOL    HW155969  10.443   0.604   1.407  0.8667 -0.9100 -0.3624
79453SOL    HW255970  10.442   0.457   1.444 -0.5196 -0.4837  1.4295
79454SOL     OW55971   2.808  12.983  11.607  0.3137  0.7085 -0.4480
79454SOL    HW155972   2.753  12.972  11.685  0.1039  0.1638 -0.6675
79454SOL    HW255973   2.895  13.001  11.642 -0.0437  1.8631 -0.0933
79455SOL     OW55974   2.679  10.651   7.763  0.4874  0.2388 -0.1800
79455SOL    HW155975   2.733  10.729   7.756  1.5697 -0.5638 -1.1921
79455SOL    HW255976   2.741  10.580   7.777 -0.4925 -0.4279  1.0493
79456SOL     OW55977  12.047   0.625   7.374  0.0792  0.0049 -0.5459
79456SOL    HW155978  12.050   0.534   7.404  0.1320  0.5638  1.2096
79456SOL    HW255979  11.969   0.628   7.318 -1.0869 -0.6723  0.9729
79457SOL     OW55980  11.301  12.938   5.637  0.4442  0.7099 -0.0586
79457SOL    HW155981  11.321  12.883   5.562 -2.9361  1.1857 -1.5001
79457SOL    HW255982  11.338  13.024   5.614  0.8251  0.4494 -0.4263
79458SOL     OW55983   7.811   0.937  11.706 -0.0256  0.0689  0.6630
79458SOL    HW155984   7.727   0.891  11.708 -0.0095 -0.0083 -0.2229
79458SOL    HW255985   7.861   0.899  11.779 -1.5178  1.6472  2.6415
79459SOL     OW55986   8.243   8.928   3.822 -0.7026 -0.1095  0.4266
79459SOL    HW155987   8.280   8.947   3.736 -1.2222 -0.3536  0.1455
79459SOL    HW255988   8.308   8.873   3.865  0.0654  0.9233  0.6231
79460SOL     OW55989  10.134   3.604   4.162  0.2623 -0.0550  0.0821
79460SOL    HW155990  10.210   3.624   4.107  0.9312  0.6828  1.2207
79460SOL    HW255991  10.069   3.567   4.102  0.9343  0.7806 -1.2015
79461SOL     OW55992  11.225  11.934   2.760  0.1099  0.0226  0.0862
79461SOL    HW155993  11.302  11.962   2.810 -0.7794 -0.9562  2.1108
79461SOL    HW255994  11.233  11.839   2.754 -0.1897  0.0463 -1.0456
79462SOL     OW55995   9.601   5.989   7.209 -0.2204 -0.3460 -0.8316
79462SOL    HW155996   9.687   6.031   7.212 -0.3817 -0.0515  0.1667
79462SOL    HW255997   9.602   5.925   7.280 -1.2248  0.4836 -0.0353
79463SOL     OW55998   2.928  10.041   9.048  0.0194  0.1926 -0.5192
79463SOL    HW155999   2.978   9.975   9.097  0.4536  0.3390 -0.7639
79463SOL    HW256000   2.845   9.998   9.029  0.3965 -0.3882 -0.9060
79464SOL     OW56001   3.891  12.516   8.542 -0.2285  0.0584  0.5293
79464SOL    HW156002   3.874  12.529   8.449  0.7234  0.1590  0.3655
79464SOL    HW256003   3.986  12.524   8.551 -0.3867  0.8928  1.6420
79465SOL     OW56004  11.894   0.994  10.667  0.1262 -0.3079  0.1669
79465SOL    HW156005  11.889   1.027  10.577 -1.3873  1.4234  0.8146
79465SOL    HW256006  11.890   1.073  10.721  0.0537 -1.3753  1.7849
79466SOL     OW56007   2.902   0.263  11.667  0.1577 -0.3431  0.3508
79466SOL    HW156008   2.808   0.270  11.650 -0.0469  0.8428  1.7604
79466SOL    HW256009   2.942   0.266  11.580 -1.0717 -0.0906 -0.2295
79467SOL     OW56010   8.301  12.110  12.371 -0.3926  0.2999 -0.0680
79467SOL    HW156011   8.294  12.039  12.307  1.3385  0.1928 -0.1790
79467SOL    HW256012   8.350  12.071  12.444  0.4605  1.3300 -0.0754
79468SOL     OW56013   1.787   1.225   1.009 -0.1718 -0.4409  0.1684
79468SOL    HW156014   1.764   1.314   0.982  3.6759  1.3179  2.0063
79468SOL    HW256015   1.762   1.221   1.101 -0.5430 -1.4365  0.0429
79469SOL     OW56016   6.207  11.288   3.993  0.1289 -0.3614 -0.1005
79469SOL    HW156017   6.245  11.320   3.912 -0.4496 -1.0875 -0.6741
79469SOL    HW256018   6.276  11.233   4.032  0.7345  0.7027  0.3664
79470SOL     OW56019   3.158   3.043  12.177  0.4734  0.8138  0.2317
79470SOL    HW156020   3.153   3.055  12.271 -0.8043  0.7420  0.1850
79470SOL    HW256021   3.114   3.119  12.140 -1.6172 -0.5211 -0.2137
79471SOL     OW56022   3.656   4.678  11.573  0.9952 -0.0178  0.1392
79471SOL    HW156023   3.648   4.673  11.668  1.5024 -1.3924  0.1307
79471SOL    HW256024   3.624   4.593  11.542 -0.0400  0.7570 -0.9885
79472SOL     OW56025  12.363   4.667   6.672 -0.2960  0.3229 -0.4321
79472SOL    HW156026  12.367   4.741   6.612 -0.6491  0.7856  0.1088
79472SOL    HW256027  12.282   4.621   6.650 -0.7108  0.8140  0.0616
79473SOL     OW56028   1.369  13.957   3.481  0.1516 -0.2855 -0.0393
79473SOL    HW156029   1.443  13.931   3.536  0.5374  1.5471  0.3738
79473SOL    HW256030   1.312  14.008   3.540  0.6154  1.7901 -1.2897
79474SOL     OW56031  12.618   0.930   3.736  0.8571 -0.2876  0.6661
79474SOL    HW156032  12.541   0.909   3.684  0.6841 -0.3731  0.9551
79474SOL    HW256033  12.601   0.891   3.822  1.7124 -1.2628  0.4116
79475SOL     OW56034   5.601   6.690   4.244  0.1934 -0.2297 -0.0273
79475SOL    HW156035   5.695   6.695   4.260  0.2665 -1.3554 -0.0855
79475SOL    HW256036   5.592   6.638   4.164 -0.5235 -1.2328  0.6785
79476SOL     OW56037   9.293   0.023   3.971 -0.2643 -0.3567 -0.0709
79476SOL    HW156038   9.260   0.073   4.046  0.1843 -0.3577  0.1345
79476SOL    HW256039   9.305   0.089   3.902 -0.0233 -0.2398  0.0817
79477SOL     OW56040  10.212   2.155   0.217  0.5537  0.3208 -0.1486
79477SOL    HW156041  10.123   2.129   0.196  0.1067  0.4493  1.4546
79477SOL    HW256042  10.266   2.116   0.148 -0.8348  1.2615 -1.8622
79478SOL     OW56043  12.845  10.723   4.441  0.3963 -0.4479 -0.4844
79478SOL    HW156044  12.795  10.730   4.523  1.4689  0.8804  0.0895
79478SOL    HW256045  12.831  10.632   4.412  1.3694 -1.4956  2.0681
79479SOL     OW56046   3.812  11.534  12.962  0.6743  0.2363 -0.0812
79479SOL    HW156047   3.790  11.573  13.046 -1.4905 -0.3722 -0.3173
79479SOL    HW256048   3.728  11.517  12.920  1.6802 -0.1129 -2.0931
79480SOL     OW56049   8.242  11.102   6.935 -0.1545  0.0562  0.0612
79480SOL    HW156050   8.184  11.165   6.978 -0.4013  0.8921 -1.4183
79480SOL    HW256051   8.205  11.016   6.958  0.2461  0.3969  2.1883
79481SOL     OW56052  10.235   3.378   6.411  0.6742 -0.2119 -0.1546
79481SOL    HW156053  10.223   3.457   6.464  0.0916  0.5309 -1.3572
79481SOL    HW256054  10.298   3.326   6.461 -0.1779  0.2512  1.4759
79482SOL     OW56055  10.810  10.134   7.246 -0.0525 -0.3118 -0.0374
79482SOL    HW156056  10.814  10.049   7.290 -1.3946 -0.3398  0.0609
79482SOL    HW256057  10.866  10.191   7.299  2.0908 -1.4695 -0.9458
79483SOL     OW56058   1.513   6.489   9.027  0.0404  0.1929  0.0292
79483SOL    HW156059   1.556   6.574   9.014 -0.4393  0.8332  2.1595
79483SOL    HW256060   1.420   6.510   9.025 -0.0834  0.0263  1.9633
79484SOL     OW56061   2.573  10.900   4.434  0.2435  0.0053  0.7199
79484SOL    HW156062   2.650  10.916   4.379  1.1404 -1.7012  1.4259
79484SOL    HW256063   2.506  10.868   4.373  1.1249 -1.5711  0.5388
79485SOL     OW56064   7.168  12.526   4.930  0.1710  0.3837 -0.0123
79485SOL    HW156065   7.196  12.522   4.839  1.8852  1.1218  0.4451
79485SOL    HW256066   7.111  12.450   4.941 -0.6065  0.6302 -1.8425
79486SOL     OW56067   6.219   4.366  11.981  0.6502 -0.3882 -0.3818
79486SOL    HW156068   6.190   4.454  12.003  0.9222  0.2476 -2.4201
79486SOL    HW256069   6.155   4.309  12.025 -1.1657  0.8888 -1.2350
79487SOL     OW56070  12.110   3.932   4.563 -0.3338  0.1455  0.1876
79487SOL    HW156071  12.015   3.919   4.558 -0.9565  3.3390  1.3135
79487SOL    HW256072  12.127   3.947   4.656  1.1515  0.4966 -0.1151
79488SOL     OW56073   6.642   8.761   8.909 -0.0355  0.2016 -0.0548
79488SOL    HW156074   6.573   8.709   8.869 -1.2220  1.7160 -0.0812
79488SOL    HW256075   6.639   8.737   9.002  0.8170 -1.2313 -0.3653
79489SOL     OW56076   6.367   0.949  13.528 -0.2562  0.1678  0.0077
79489SOL    HW156077   6.320   1.012  13.582 -0.0066  1.0082 -0.7325
79489SOL    HW256078   6.358   0.866  13.574 -1.1725  0.6098  0.6474
79490SOL     OW56079   0.674   1.592   1.358 -0.0160 -0.7626  0.2495
79490SOL    HW156080   0.628   1.522   1.312 -0.5023 -1.1330  1.2509
79490SOL    HW256081   0.633   1.673   1.327 -2.5786 -1.1332  2.3018
79491SOL     OW56082   9.419   0.324  10.866 -0.0772  0.1787 -0.4921
79491SOL    HW156083   9.505   0.364  10.874 -0.3249  0.5409  0.4473
79491SOL    HW256084   9.398   0.332  10.773  0.0934  1.8023 -0.4091
79492SOL     OW56085  12.448   4.666   6.975 -0.7275  0.1370  0.3825
79492SOL    HW156086  12.437   4.704   6.888  0.4816 -2.7206 -1.1174
79492SOL    HW256087  12.394   4.587   6.975  1.7800 -1.7122  0.9636
79493SOL     OW56088   7.791   1.080   9.620  0.0731  0.1337  0.5984
79493SOL    HW156089   7.868   1.041   9.577 -0.5477 -0.5573  0.0979
79493SOL    HW256090   7.777   1.162   9.572  1.1484  0.8222  1.4056
79494SOL     OW56091   4.486   3.113   1.467  0.1698  0.0947  0.2186
79494SOL    HW156092   4.544   3.128   1.541 -0.1513  0.6992  0.3569
79494SOL    HW256093   4.424   3.186   1.470  0.3121  0.2755 -0.7937
79495SOL     OW56094   2.114   2.975   7.445 -0.2526  0.2095  0.2661
79495SOL    HW156095   2.180   2.924   7.399  0.4552 -0.7339  2.2192
79495SOL    HW256096   2.163   3.027   7.509 -1.3913 -1.1506  2.3377
79496SOL     OW56097   8.665   0.153   9.917  0.5675  0.1433 -0.6528
79496SOL    HW156098   8.723   0.086   9.881  1.3929 -0.2551  1.2454
79496SOL    HW256099   8.708   0.180   9.998  0.2720  3.0347 -1.3620
79497SOL     OW56100   1.613  13.550   4.688 -0.3856  0.1712  0.0647
79497SOL    HW156101   1.616  13.456   4.708  1.1855 -0.0017 -0.8346
79497SOL    HW256102   1.690  13.586   4.731 -0.9183  1.0569  0.3038
79498SOL     OW56103   1.369   1.572   5.424 -0.1306  0.2826 -0.1666
79498SOL    HW156104   1.380   1.567   5.519  1.0549  0.5904 -0.2772
79498SOL    HW256105   1.441   1.628   5.394 -0.2912 -0.0821 -1.2856
79499SOL     OW56106  13.257   2.697  11.085  0.1180  0.2355 -0.2237
79499SOL    HW156107  13.258   2.669  10.993 -1.0321 -0.8886  0.0714
79499SOL    HW256108  13.342   2.669  11.119 -0.4072 -1.5930 -0.3361
79500SOL     OW56109  10.299   2.331   5.559  0.1638 -0.0662  0.0825
79500SOL    HW156110  10.391   2.319   5.584  0.9734  2.1125 -1.5734
79500SOL    HW256111  10.303   2.373   5.474 -2.3566  1.8738  0.8196
79501SOL     OW56112  12.117   6.568   9.627  0.2824  0.0076  0.6197
79501SOL    HW156113  12.185   6.501   9.639  0.8427  0.3328 -0.5131
79501SOL    HW256114  12.165   6.647   9.602 -0.5105  0.1433 -0.6115
79502SOL     OW56115   8.876  12.331   8.504  0.2590  0.1442  0.5517
79502SOL    HW156116   8.854  12.283   8.585 -0.0570 -0.6058  0.0321
79502SOL    HW256117   8.859  12.423   8.526 -0.2427 -0.0928  1.2034
79503SOL     OW56118   3.694   1.179   4.999  0.6638 -0.5117  0.0919
79503SOL    HW156119   3.688   1.270   4.968 -0.0087 -0.2417  0.9691
79503SOL    HW256120   3.771   1.179   5.056  0.9175 -0.5990 -0.2497
79504SOL     OW56121   0.165   3.341   0.953 -1.0005  0.2820  0.9575
79504SOL    HW156122   0.181   3.248   0.934 -1.2798 -0.0643  2.2892
79504SOL    HW256123   0.252   3.376   0.973 -0.9952  0.1033  1.2544
79505SOL     OW56124   3.206  12.995   5.766  0.6276  0.0454  0.1852
79505SOL    HW156125   3.141  12.968   5.700 -0.0339 -2.5112  1.7428
79505SOL    HW256126   3.163  13.065   5.815 -0.2236 -0.3498  0.0212
79506SOL     OW56127   1.912  12.624   3.583 -0.1444 -0.0039 -0.2557
79506SOL    HW156128   1.906  12.680   3.506 -1.5100 -0.7231 -0.7005
79506SOL    HW256129   1.829  12.639   3.630  0.0755 -0.6100  0.3431
79507SOL     OW56130   8.192   5.593   0.078 -0.1014 -0.2505 -0.1279
79507SOL    HW156131   8.255   5.593   0.006 -0.2722 -1.2307 -0.2882
79507SOL    HW256132   8.158   5.683   0.080 -1.2105 -0.5560 -2.2525
79508SOL     OW56133  12.054  13.216   3.688 -0.6929 -0.0166  0.2920
79508SOL    HW156134  12.145  13.199   3.714 -0.1517  0.8540 -0.9313
79508SOL    HW256135  12.018  13.129   3.671  0.0812 -0.3430  0.2552
79509SOL     OW56136   4.451   2.296   1.299  0.7286  0.5325  0.1500
79509SOL    HW156137   4.519   2.228   1.301  0.1653 -0.0758 -0.8439
79509SOL    HW256138   4.392   2.272   1.370  0.2176 -0.3668 -0.5609
79510SOL     OW56139  11.388   2.662  12.299 -0.5657  0.1197 -0.4487
79510SOL    HW156140  11.446   2.738  12.289 -0.3483  0.1683  1.0141
79510SOL    HW256141  11.441   2.596  12.343 -0.8359 -0.8254 -1.4839
79511SOL     OW56142   0.059   6.617  13.479 -0.1747  0.2011 -0.6644
79511SOL    HW156143   0.130   6.669  13.517 -0.5762  0.6622 -0.5356
79511SOL    HW256144   0.067   6.632  13.385  1.1719 -1.3879 -0.8459
79512SOL     OW56145  10.324   8.103   7.069 -0.0062  0.4310 -0.6572
79512SOL    HW156146  10.285   8.032   7.017  0.1529 -0.5874  0.5681
79512SOL    HW256147  10.261   8.175   7.062 -0.8551 -0.3108 -0.8161
79513SOL     OW56148   0.143  12.490   7.776  0.4314  0.2124  0.1213
79513SOL    HW156149   0.164  12.426   7.845  0.0282  1.7760  1.7636
79513SOL    HW256150   0.210  12.558   7.785 -1.4151  1.9966  1.0815
79514SOL     OW56151   9.087   6.675   7.451 -0.0141 -0.0142  0.1171
79514SOL    HW156152   9.104   6.677   7.356  2.0956  0.0016  0.4492
79514SOL    HW256153   8.993   6.688   7.458 -0.1980  0.2182 -1.9800
79515SOL     OW56154  13.613  10.749   6.416  0.1583  0.1379  0.0819
79515SOL    HW156155  13.660  10.732   6.497  2.5471 -1.7496 -1.5560
79515SOL    HW256156  13.569  10.833   6.431  1.5065  0.4609  2.8550
79516SOL     OW56157  12.121   4.357  10.186 -0.3894  0.3099  0.9725
79516SOL    HW156158  12.127   4.357  10.282  0.2867 -0.1776  0.9354
79516SOL    HW256159  12.035   4.318  10.168 -0.0484 -0.6551  1.3678
79517SOL     OW56160   0.026   6.621   5.389  0.1431  0.2038 -0.0499
79517SOL    HW156161   0.036   6.690   5.323  0.0452  0.0778 -0.1986
79517SOL    HW256162   0.019   6.667   5.472  3.3635  0.2915  0.2793
79518SOL     OW56163  11.109   9.712  10.921  0.5828  0.2370 -0.0449
79518SOL    HW156164  11.042   9.738  10.857  1.0682  0.8722 -0.3091
79518SOL    HW256165  11.076   9.745  11.004 -0.8957 -2.0835  0.3635
79519SOL     OW56166   4.205  12.319   4.512 -0.5039  0.0556 -0.3709
79519SOL    HW156167   4.252  12.235   4.510 -0.0392  0.2109  1.5596
79519SOL    HW256168   4.132  12.304   4.573 -0.5958  0.9532 -0.2503
79520SOL     OW56169   8.297  11.183   0.118 -0.3415  0.8476  0.0727
79520SOL    HW156170   8.207  11.184   0.086  0.2294  0.8149 -1.6219
79520SOL    HW256171   8.288  11.179   0.214 -2.1233  1.4144 -0.0283
79521SOL     OW56172   0.148   2.015   2.722 -0.0263  0.2474 -0.0999
79521SOL    HW156173   0.133   1.921   2.733 -0.6577  0.4052  0.4142
79521SOL    HW256174   0.157   2.049   2.811  0.5914  0.6148 -0.2972
79522SOL     OW56175   3.868   4.304  12.385  0.6328  0.1397  0.0180
79522SOL    HW156176   3.797   4.246  12.410  0.2050  0.6608  0.0405
79522SOL    HW256177   3.889   4.279  12.295  1.0490 -0.6237  0.3167
79523SOL     OW56178   7.993  13.707   7.487  0.2233  0.2433 -0.5801
79523SOL    HW156179   7.925  13.693   7.553 -0.9965  1.5706 -1.4872
79523SOL    HW256180   7.969  13.647   7.416  1.7044 -1.4058  0.2315
79524SOL     OW56181   8.884  10.312   9.847 -0.0903  0.0728  0.2185
79524SOL    HW156182   8.948  10.325   9.777  0.1722 -1.2522  0.1887
79524SOL    HW256183   8.828  10.241   9.816 -0.4906  0.0331  1.0040
79525SOL     OW56184   8.738   3.070   8.935 -0.8951 -0.2970  0.1645
79525SOL    HW156185   8.775   3.144   8.888  0.6716 -1.3343 -0.3072
79525SOL    HW256186   8.791   3.062   9.014 -0.2777 -1.5882 -0.3485
79526SOL     OW56187   8.486  11.660   6.167  0.2351 -0.7374  0.0540
79526SOL    HW156188   8.412  11.640   6.109  0.8186  0.2064 -1.0627
79526SOL    HW256189   8.452  11.730   6.224  0.7061  0.8722 -1.5394
79527SOL     OW56190  10.643   1.686   8.601 -0.4089  0.0175 -0.2691
79527SOL    HW156191  10.570   1.747   8.610  0.3927  1.5853 -3.0055
79527SOL    HW256192  10.604   1.607   8.564 -1.1465 -0.3847  1.3011
79528SOL     OW56193  13.038   8.980   9.558  0.3637 -0.0553 -0.1891
79528SOL    HW156194  13.030   8.908   9.620  0.0022  0.6505  0.6053
79528SOL    HW256195  12.948   8.997   9.529  0.4757 -0.0770 -0.5602
79529SOL     OW56196  13.436  14.014   9.858 -0.2745 -0.1526  0.2053
79529SOL    HW156197  13.439  13.926   9.820  0.8715  0.4096 -1.0959
79529SOL    HW256198  13.392  14.067   9.792  1.3459  0.7495 -0.2099
79530SOL     OW56199   4.314   4.669   6.112  0.4056  0.6901 -0.0593
79530SOL    HW156200   4.367   4.716   6.177  0.3466  0.6317  0.0296
79530SOL    HW256201   4.255   4.736   6.076 -0.7676  0.3557  1.1815
79531SOL     OW56202   1.645  13.448   6.666 -0.3950 -0.7601 -0.7599
79531SOL    HW156203   1.579  13.461   6.598 -0.8766 -0.1514 -0.1824
79531SOL    HW256204   1.598  13.404   6.738  0.3289 -2.2969 -1.1708
79532SOL     OW56205  12.746  13.718   1.967  0.0948  0.0661  0.2083
79532SOL    HW156206  12.751  13.661   1.890  0.0331  2.0841 -1.3783
79532SOL    HW256207  12.705  13.664   2.034 -2.6350 -0.9457 -2.0642
79533SOL     OW56208  10.778   3.091   4.872 -0.5539  0.2121 -0.7601
79533SOL    HW156209  10.870   3.074   4.851 -0.8083 -0.8414 -1.1174
79533SOL    HW256210  10.773   3.082   4.967 -0.0428  1.6330 -0.5741
79534SOL     OW56211  13.838   0.984  11.917 -0.3920 -0.0287  0.1239
79534SOL    HW156212  13.844   0.955  11.827  2.0159  1.8499 -0.4286
79534SOL    HW256213  13.876   0.913  11.968  1.8604  0.4326 -0.7979
79535SOL     OW56214   2.107   5.881   3.993 -0.3416 -0.7047  0.1467
79535SOL    HW156215   2.133   5.922   4.076 -1.1373  0.4041 -0.1309
79535SOL    HW256216   2.046   5.812   4.019  0.6505 -1.4407  0.5877
79536SOL     OW56217  13.943   4.780  13.925  0.6001 -0.4534  0.5396
79536SOL    HW156218  13.922   4.809  14.013  0.9444  1.8883 -0.0875
79536SOL    HW256219  13.973   4.859  13.880  1.7558 -1.8466 -1.2816
79537SOL     OW56220  13.242   1.582   9.605 -0.2193 -0.6379  0.3301
79537SOL    HW156221  13.232   1.488   9.617 -2.2012 -0.4228  0.7430
79537SOL    HW256222  13.240   1.618   9.693  0.1253 -0.1611  0.1504
79538SOL     OW56223   9.770   9.686   2.657  0.7030 -0.2093  0.2697
79538SOL    HW156224   9.724   9.640   2.728  0.4472 -1.1329 -0.4696
79538SOL    HW256225   9.823   9.752   2.701  1.1753 -1.2986  1.3949
79539SOL     OW56226   2.183   8.628   2.066 -0.2159  0.1926  0.3684
79539SOL    HW156227   2.156   8.555   2.122 -2.3820  0.5395 -0.1035
79539SOL    HW256228   2.182   8.591   1.977  2.8143 -0.2548  0.4366
79540SOL     OW56229  14.060   9.235   1.885 -0.5890  0.0306 -0.0165
79540SOL    HW156230  14.110   9.161   1.920 -1.1902  0.5069  1.9540
79540SOL    HW256231  14.089   9.310   1.936 -0.9597  0.9369 -1.0888
79541SOL     OW56232   8.340   5.202   7.180  0.0183  0.4573  0.3199
79541SOL    HW156233   8.425   5.179   7.217  0.4847 -2.2624 -2.0689
79541SOL    HW256234   8.319   5.286   7.219  2.9228  0.3736  2.4131
79542SOL     OW56235   4.196  13.333   8.306 -0.0912 -0.0858 -0.2029
79542SOL    HW156236   4.119  13.382   8.276  0.5908  0.6117 -0.8298
79542SOL    HW256237   4.234  13.387   8.376  0.4032  0.0604 -0.5826
79543SOL     OW56238  13.515   2.585  11.162 -0.5082  0.0603 -0.0847
79543SOL    HW156239  13.522   2.490  11.170  2.3665  0.2854  1.4873
79543SOL    HW256240  13.536   2.603  11.070 -2.3972 -0.8401 -0.7359
79544SOL     OW56241  12.099   7.525   1.350 -0.2934 -0.1281  0.7359
79544SOL    HW156242  12.191   7.505   1.362 -0.1698  1.1586  2.4104
79544SOL    HW256243  12.092   7.557   1.260  0.4421 -2.3459 -0.1565
79545SOL     OW56244   1.055   1.238   2.837  0.3247  0.2019  0.5956
79545SOL    HW156245   1.046   1.143   2.832  2.0372 -0.0313  1.0151
79545SOL    HW256246   1.038   1.269   2.749  2.0377 -0.7770 -0.1346
79546SOL     OW56247   7.611   2.774   0.888 -0.5622  0.1791 -0.5542
79546SOL    HW156248   7.568   2.692   0.863 -1.7335  0.5707  0.1316
79546SOL    HW256249   7.694   2.773   0.839 -1.5607 -0.3424 -2.3295
79547SOL     OW56250   9.352  13.962   3.248 -0.4262  0.2637  0.1528
79547SOL    HW156251   9.399  14.011   3.315 -0.2931 -0.2934  0.4729
79547SOL    HW256252   9.356  13.871   3.278 -0.5038  0.0313 -0.5289
79548SOL     OW56253   3.491   1.122   9.362  0.4522 -0.3058  0.5285
79548SOL    HW156254   3.582   1.094   9.363  0.4637 -0.2662  0.8829
79548SOL    HW256255   3.445   1.059   9.418  0.5093  0.4502  1.4535
79549SOL     OW56256   5.457   1.858   2.032  0.0922  0.0211  0.5672
79549SOL    HW156257   5.479   1.910   2.110 -1.2637  0.2547  0.8144
79549SOL    HW256258   5.382   1.903   1.993  0.8911  0.0542 -1.0369
79550SOL     OW56259   9.336   8.580   4.915 -0.0609 -0.1519 -0.2701
79550SOL    HW156260   9.327   8.666   4.956 -1.0045 -0.4146  0.0856
79550SOL    HW256261   9.329   8.598   4.821  1.7803  0.4059 -0.3503
79551SOL     OW56262   8.116   7.999   1.180  0.0568 -0.1527 -0.1833
79551SOL    HW156263   8.186   8.049   1.138 -0.3786  2.0887  1.5394
79551SOL    HW256264   8.046   8.063   1.196 -0.6703 -1.3405  1.8923
79552SOL     OW56265   8.210  10.445  12.202 -0.2862  0.2382 -0.0990
79552SOL    HW156266   8.221  10.540  12.193  2.9451 -0.2519 -3.5429
79552SOL    HW256267   8.158  10.419  12.126  1.8287 -1.0141 -1.2214
79553SOL     OW56268  12.351   9.713   9.969 -0.2218  0.3433 -0.2900
79553SOL    HW156269  12.269   9.663   9.967  0.4333 -0.8504  0.7176
79553SOL    HW256270  12.383   9.711   9.879 -0.1506 -1.2126 -0.2604
79554SOL     OW56271  13.178   4.677   0.678  0.1436 -0.3947 -0.1903
79554SOL    HW156272  13.238   4.736   0.722 -0.7773 -1.1339  2.2532
79554SOL    HW256273  13.224   4.593   0.675  0.9168  0.0351 -2.4280
79555SOL     OW56274   7.878  11.601   0.249 -0.4389  0.3278 -0.5511
79555SOL    HW156275   7.937  11.576   0.320  1.8190 -1.0291 -2.7462
79555SOL    HW256276   7.790  11.586   0.284  0.6203 -1.8691  1.4213
79556SOL     OW56277   9.425   3.689   8.627  0.0205 -0.4619 -0.0072
79556SOL    HW156278   9.344   3.739   8.617 -0.4614 -0.6985  2.2843
79556SOL    HW256279   9.486   3.751   8.667  0.8200 -0.4712 -1.1582
79557SOL     OW56280   0.193   0.263   4.203  0.1070  0.7804  0.5930
79557SOL    HW156281   0.144   0.290   4.282 -1.5036  1.2445 -0.5070
79557SOL    HW256282   0.238   0.342   4.175  0.8413  0.5652  1.1400
79558SOL     OW56283  10.757   5.440   5.602  0.2463  0.5559 -0.3472
79558SOL    HW156284  10.848   5.410   5.605  0.2597  0.2497 -2.1758
79558SOL    HW256285  10.758   5.514   5.542 -0.9544 -0.6082 -1.8976
79559SOL     OW56286  10.888  12.072   2.597  0.2123 -0.2188 -0.0776
79559SOL    HW156287  10.799  12.098   2.620  1.1816  2.7767  0.8127
79559SOL    HW256288  10.878  12.006   2.529 -2.6718 -1.0074  0.9918
79560SOL     OW56289   6.633   5.768   7.054 -0.3009 -0.1531  0.0599
79560SOL    HW156290   6.683   5.799   6.978  0.1157 -0.3602  0.2486
79560SOL    HW256291   6.550   5.817   7.049  0.6403  1.6089  0.8043
79561SOL     OW56292   2.132  13.454   7.253  0.4796  0.3232  0.3185
79561SOL    HW156293   2.069  13.447   7.181 -0.3051 -0.4255  1.0609
79561SOL    HW256294   2.141  13.365   7.286  1.1629  0.5893  0.8766
79562SOL     OW56295   2.259  13.431   3.524 -0.7361  0.2181  0.1390
79562SOL    HW156296   2.336  13.386   3.489 -0.8794  0.9903 -1.2439
79562SOL    HW256297   2.295  13.496   3.585 -0.2226  0.9835 -0.9467
79563SOL     OW56298  12.895   3.507   3.277 -0.4535 -0.2763  0.2062
79563SOL    HW156299  12.982   3.544   3.263 -0.9327  1.1769  0.9339
79563SOL    HW256300  12.883   3.446   3.204  0.4495  0.8736 -0.9428
79564SOL     OW56301   6.504   2.576   9.660 -0.6657 -0.5301 -0.1104
79564SOL    HW156302   6.434   2.537   9.713 -0.0978 -0.1495  0.9683
79564SOL    HW256303   6.466   2.657   9.625 -0.8829 -0.5047  0.1807
79565SOL     OW56304  11.871   8.459  12.714 -0.2383 -0.4449 -0.8429
79565SOL    HW156305  11.862   8.532  12.775 -0.4024 -2.2181  1.3663
79565SOL    HW256306  11.932   8.491  12.648  1.7813  0.8303  1.4605
79566SOL     OW56307   9.071   3.364  12.786 -0.5649 -0.3831  0.6446
79566SOL    HW156308   9.128   3.351  12.863 -2.4862  0.1270  2.2374
79566SOL    HW256309   9.048   3.457  12.789  0.6720  0.0631 -1.6061
79567SOL     OW56310   9.637  11.309   4.303 -0.1994 -0.0127 -0.5316
79567SOL    HW156311   9.607  11.229   4.347  0.6346 -0.8926 -1.5037
79567SOL    HW256312   9.557  11.359   4.286 -0.5845  0.2669  1.7200
79568SOL     OW56313   2.125   0.898  11.948  0.3252  0.2598  0.4315
79568SOL    HW156314   2.066   0.827  11.972 -0.4672  1.3631  1.8838
79568SOL    HW256315   2.204   0.883  12.000  0.9490 -0.5866 -0.6899
79569SOL     OW56316   2.161   7.997   4.502 -0.0074  0.3046  0.4437
79569SOL    HW156317   2.110   8.055   4.558  0.3229  1.5260 -0.4750
79569SOL    HW256318   2.122   7.911   4.514 -0.3316  0.6457  2.0623
79570SOL     OW56319   2.170  13.499  10.296 -0.3333  0.0726  0.2175
79570SOL    HW156320   2.112  13.424  10.304 -0.2769  0.0302  0.2344
79570SOL    HW256321   2.163  13.544  10.381 -1.6840  1.0555 -0.3811
79571SOL     OW56322   8.135  11.630   5.788 -0.2968 -0.0545  0.2359
79571SOL    HW156323   8.128  11.696   5.856 -0.5729  0.4294 -0.2520
79571SOL    HW256324   8.093  11.670   5.711  0.2237 -0.4887 -0.2844
79572SOL     OW56325  12.440   3.785  12.369 -0.4731  0.0131  0.3784
79572SOL    HW156326  12.510   3.762  12.429 -0.7206 -0.4060  0.5118
79572SOL    HW256327  12.361   3.747  12.409 -0.9335  1.2382  0.7083
79573SOL     OW56328  12.894   7.925   1.554  0.3162  0.2127  0.4537
79573SOL    HW156329  12.845   7.994   1.598 -0.1000  0.4666 -0.3852
79573SOL    HW256330  12.949   7.888   1.622 -1.1863 -0.2232  1.4827
79574SOL     OW56331   3.770   1.665   3.315 -0.2901 -0.1388  0.1721
79574SOL    HW156332   3.727   1.594   3.363  1.9729 -1.6406  0.1890
79574SOL    HW256333   3.753   1.645   3.223 -0.1275 -0.3890  0.1955
79575SOL     OW56334   5.076  12.019   5.165  0.2148 -0.3648 -0.7484
79575SOL    HW156335   5.009  11.963   5.203  1.0665 -0.5845  0.4995
79575SOL    HW256336   5.069  12.101   5.214  3.1425 -1.5625  1.9832
79576SOL     OW56337   3.555  12.060   5.744 -0.4101  0.2594  0.5697
79576SOL    HW156338   3.516  12.130   5.796 -1.5929  1.0672 -1.3398
79576SOL    HW256339   3.643  12.093   5.723 -0.6805  0.8356  0.3245
79577SOL     OW56340   8.816  13.124   5.938  0.7958  0.2017  0.5230
79577SOL    HW156341   8.750  13.134   6.007 -2.2886 -0.7797 -2.0539
79577SOL    HW256342   8.810  13.203   5.886  1.1182 -0.2352 -0.1962
79578SOL     OW56343   4.165  12.887  10.761  0.2795  0.3552 -0.0350
79578SOL    HW156344   4.235  12.873  10.696  0.4444 -0.2420  0.2709
79578SOL    HW256345   4.144  12.800  10.793 -1.3491  0.4091 -0.8798
79579SOL     OW56346   3.587  10.057  12.439 -0.5618  0.5505  0.1116
79579SOL    HW156347   3.561  10.149  12.430 -0.8311  0.3663 -1.1855
79579SOL    HW256348   3.525  10.010  12.383 -0.5898 -0.4618  0.9607
79580SOL     OW56349   5.584   5.375  12.053  0.4017  0.2385 -0.2313
79580SOL    HW156350   5.560   5.391  12.144 -0.4015 -0.7557 -0.2527
79580SOL    HW256351   5.677   5.354  12.056  0.1960 -0.6606  0.4895
79581SOL     OW56352   8.119   0.984   8.237  1.0481  0.2252 -0.2074
79581SOL    HW156353   8.048   1.041   8.210  0.1190 -0.5063  0.6050
79581SOL    HW256354   8.094   0.897   8.205  1.7006  0.0033 -0.1390
79582SOL     OW56355  11.146   3.782   8.314  0.5319  0.2032 -0.6555
79582SOL    HW156356  11.185   3.799   8.399  0.8426 -1.5471 -0.3987
79582SOL    HW256357  11.113   3.867   8.284  1.1024  0.9820  0.8502
79583SOL     OW56358  13.227   9.159   7.819 -0.0906  0.2222  0.5933
79583SOL    HW156359  13.226   9.172   7.914  1.0899 -1.9611  0.9656
79583SOL    HW256360  13.145   9.115   7.800 -1.0275  2.0160  0.3339
79584SOL     OW56361  13.217   2.000   1.694  0.8425 -0.7816 -0.1856
79584SOL    HW156362  13.260   2.079   1.662 -1.1450  0.7701  0.7899
79584SOL    HW256363  13.281   1.961   1.755  1.9680 -0.1209 -0.9181
79585SOL     OW56364   9.383  11.020   4.604  0.4467  0.3919  0.2721
79585SOL    HW156365   9.309  10.972   4.566  1.3425  0.2969 -1.4419
79585SOL    HW256366   9.437  10.952   4.644  1.5740 -0.1153 -1.9123
79586SOL     OW56367  12.361   2.087  13.541  0.4784 -0.7054 -0.0352
79586SOL    HW156368  12.344   2.066  13.449  0.6621  0.6289 -0.3892
79586SOL    HW256369  12.451   2.121  13.541  0.8794 -1.6776  0.8206
79587SOL     OW56370   1.605  12.953   6.416 -0.2232  0.4866 -0.0383
79587SOL    HW156371   1.643  12.922   6.334  0.2033 -0.0063  0.3343
79587SOL    HW256372   1.641  13.041   6.427 -0.0697  0.4510 -0.2536
79588SOL     OW56373   5.632   6.882  11.209  0.3910  0.2869  0.0233
79588SOL    HW156374   5.568   6.907  11.144  0.6907 -0.7112 -0.6873
79588SOL    HW256375   5.588   6.894  11.293 -0.0249  1.4988 -0.3574
79589SOL     OW56376   3.971   2.316   8.469 -0.0566 -0.4295  0.0400
79589SOL    HW156377   3.879   2.340   8.474  0.0744 -0.0060  0.6520
79589SOL    HW256378   3.972   2.221   8.460 -0.5770 -0.3258 -1.2931
79590SOL     OW56379   3.193   9.959  13.017 -0.6322  0.0708 -0.2180
79590SOL    HW156380   3.175  10.040  12.969 -1.5682 -0.4682 -0.8212
79590SOL    HW256381   3.175   9.981  13.109 -0.8745  0.5512 -0.3768
79591SOL     OW56382   3.927  11.709   8.533  0.3803 -0.3230  0.2349
79591SOL    HW156383   3.895  11.747   8.451 -3.2930 -0.3283  1.5049
79591SOL    HW256384   3.946  11.618   8.511  5.1744  0.8472 -1.8111
79592SOL     OW56385  12.281   6.613   9.223  0.7784  0.0323 -0.6529
79592SOL    HW156386  12.233   6.552   9.166  0.7399  1.0739 -1.7933
79592SOL    HW256387  12.357   6.563   9.253 -0.8262 -1.5610  0.9552
79593SOL     OW56388   1.090  13.396  12.776 -0.0174  0.0138  0.1145
79593SOL    HW156389   1.108  13.402  12.683 -3.4902  0.4385 -0.6681
79593SOL    HW256390   1.133  13.315  12.804  2.5517  0.7598 -1.3641
79594SOL     OW56391  11.020   8.743   8.778  0.4134 -0.0989 -0.3672
79594SOL    HW156392  11.029   8.788   8.862  0.1024 -1.3238  0.3536
79594SOL    HW256393  10.927   8.751   8.756  0.0911 -1.4031  0.3929
79595SOL     OW56394   7.492   2.961   7.294 -0.3933  0.9182  0.0730
79595SOL    HW156395   7.549   3.028   7.331 -0.6977  0.6401  1.0823
79595SOL    HW256396   7.419   2.955   7.355 -0.7529  0.2001 -0.4016
79596SOL     OW56397   7.846   8.788   0.995  0.1595  0.1533  0.0498
79596SOL    HW156398   7.884   8.856   0.939 -0.4476  2.0561  1.7995
79596SOL    HW256399   7.918   8.762   1.053  0.0932  0.1563  0.1338
79597SOL     OW56400   8.573   0.742   9.803  0.5756  0.2796  0.1847
79597SOL    HW156401   8.612   0.744   9.716  3.2752  1.2096  1.3171
79597SOL    HW256402   8.595   0.655   9.837  0.1260  0.1724  0.2138
79598SOL     OW56403   3.731   1.513   7.319  0.0501 -0.3468 -0.0229
79598SOL    HW156404   3.743   1.457   7.395 -0.1513 -0.0564  0.2243
79598SOL    HW256405   3.803   1.489   7.260 -0.8408 -1.8564 -0.5483
79599SOL     OW56406   8.135   3.679   3.021  0.0868 -0.3097  0.2385
79599SOL    HW156407   8.042   3.700   3.010 -0.1355 -1.5650 -0.3929
79599SOL    HW256408   8.162   3.643   2.936  1.6283  1.6611 -0.2056
79600SOL     OW56409   8.022   1.799   7.330  0.0728 -0.6045  0.1020
79600SOL    HW156410   8.112   1.770   7.343  0.4073 -0.7848 -2.2444
79600SOL    HW256411   8.027   1.863   7.259 -1.3166  1.5878  1.8409
79601SOL     OW56412   0.549   0.471   5.358 -0.2807 -0.2139  0.5069
79601SOL    HW156413   0.511   0.467   5.270 -0.5040  0.3253  0.5783
79601SOL    HW256414   0.538   0.562   5.386 -3.5961 -1.0503  2.5395
79602SOL     OW56415   8.296   0.733  12.636  0.1598 -0.0514 -0.0080
79602SOL    HW156416   8.214   0.699  12.671  0.8847  0.0142  1.9178
79602SOL    HW256417   8.281   0.828  12.630 -0.0586 -0.0904 -0.0885
79603SOL     OW56418   8.425   2.897  13.373  0.4061  0.4405 -0.0967
79603SOL    HW156419   8.397   2.814  13.411 -4.2405  2.0371  0.6569
79603SOL    HW256420   8.414   2.961  13.444  0.1665  2.2050 -1.6348
79604SOL     OW56421   0.071   7.827   4.611  0.2746 -0.1537  0.1159
79604SOL    HW156422   0.149   7.818   4.555 -1.2406 -1.9040 -1.8739
79604SOL    HW256423   0.095   7.783   4.692  1.4327 -0.5159 -0.4013
79605SOL     OW56424   3.534   8.990  11.413 -0.3123 -0.4162  0.6953
79605SOL    HW156425   3.570   9.049  11.478  1.5039 -0.3577 -0.2999
79605SOL    HW256426   3.444   8.975  11.441  0.3703 -0.3383  3.1558
79606SOL     OW56427   1.811  10.954   1.188 -0.5420 -0.1840 -0.5147
79606SOL    HW156428   1.731  10.979   1.142 -2.2406 -0.4421  2.1026
79606SOL    HW256429   1.794  10.865   1.219  0.1339  0.2749  1.3040
79607SOL     OW56430   6.576   6.487   6.697 -0.6969 -0.1277  0.0773
79607SOL    HW156431   6.594   6.438   6.617 -0.7762 -0.3117  0.1718
79607SOL    HW256432   6.480   6.491   6.701 -0.7185 -0.9687  0.6759
79608SOL     OW56433   1.572   7.734  13.188  0.1114 -0.7094  0.2872
79608SOL    HW156434   1.572   7.697  13.100 -0.2708  0.0060 -0.0213
79608SOL    HW256435   1.665   7.736  13.213  0.0920 -2.5720  0.6323
79609SOL     OW56436   3.668   6.442   1.261  0.0490 -0.0185  0.3584
79609SOL    HW156437   3.729   6.467   1.330  0.4270 -0.8208  0.3255
79609SOL    HW256438   3.717   6.455   1.180  0.1766 -0.6341  0.3304
79610SOL     OW56439   9.174  12.976   8.814  0.2676 -0.2704  0.9406
79610SOL    HW156440   9.136  12.902   8.766 -0.2009 -1.1219  2.5703
79610SOL    HW256441   9.111  13.047   8.804  0.4458 -0.2499 -0.1460
79611SOL     OW56442   0.941  10.015  12.315 -0.8801  0.6964 -0.5389
79611SOL    HW156443   1.025  10.021  12.362 -1.3037  0.7282  0.2344
79611SOL    HW256444   0.943  10.087  12.253 -0.4551  0.8831 -0.3152
79612SOL     OW56445  10.058  13.191  12.114  0.6793 -0.0047 -0.1837
79612SOL    HW156446   9.991  13.127  12.137 -0.2119 -0.0885 -2.7071
79612SOL    HW256447  10.129  13.139  12.076  0.4214  0.3510 -1.2068
79613SOL     OW56448  12.241  12.226   0.185  0.0561  0.3938  0.5113
79613SOL    HW156449  12.177  12.197   0.251 -0.2997  0.3697  0.1605
79613SOL    HW256450  12.217  12.317   0.167  1.7220  1.2303  2.2647
79614SOL     OW56451   4.026   4.523   8.161 -0.2564 -0.1732  0.1762
79614SOL    HW156452   4.109   4.516   8.208  0.3972 -2.8368 -1.1775
79614SOL    HW256453   3.959   4.517   8.229  0.6581 -1.4222  1.0134
79615SOL     OW56454   3.501   8.335   3.870 -0.4058 -0.2144 -0.0055
79615SOL    HW156455   3.560   8.371   3.936  2.9679 -3.2096 -1.0824
79615SOL    HW256456   3.515   8.390   3.793  1.5473 -1.2044 -0.4151
79616SOL     OW56457   8.913  12.841  12.476  0.6339 -0.0044  0.3319
79616SOL    HW156458   8.994  12.892  12.468  0.4697  0.4678  1.4172
79616SOL    HW256459   8.942  12.750  12.478  0.9749  0.0509 -1.1186
79617SOL     OW56460  10.858  12.065  13.829 -0.0104  0.0047  0.2262
79617SOL    HW156461  10.852  12.042  13.736  1.1481  2.0742 -0.4320
79617SOL    HW256462  10.815  11.992  13.874  2.2303 -2.7746 -1.6733
79618SOL     OW56463   8.190   6.925   9.347  0.5432 -0.6063 -0.0510
79618SOL    HW156464   8.249   6.869   9.397  1.0976 -2.4480 -2.6116
79618SOL    HW256465   8.247   6.991   9.308  0.5497 -0.9384 -0.6030
79619SOL     OW56466   5.044   0.286  12.651 -0.0705  0.3900  0.1292
79619SOL    HW156467   5.010   0.345  12.584 -0.1291  0.1208 -0.0791
79619SOL    HW256468   5.137   0.308  12.657  0.0006  0.1979 -0.2644
79620SOL     OW56469  10.971   8.123   1.102 -0.6995  0.4304 -0.0635
79620SOL    HW156470  10.984   8.123   1.197 -2.8570  0.1117  0.2819
79620SOL    HW256471  11.039   8.065   1.069  0.4823  1.0276  1.2016
79621SOL     OW56472   8.433   8.127   4.328 -0.2873  0.3028 -0.0548
79621SOL    HW156473   8.522   8.143   4.359  0.1947 -0.8138 -0.7964
79621SOL    HW256474   8.380   8.192   4.374  0.4331 -0.9148  2.7137
79622SOL     OW56475  11.143   1.933  12.179  0.1151  0.6021  0.5611
79622SOL    HW156476  11.237   1.928  12.166 -0.2407 -1.1672 -2.2465
79622SOL    HW256477  11.111   1.981  12.102 -1.3338  0.4800  1.0592
79623SOL     OW56478   0.988   3.445  12.128  0.2776  0.0210 -0.3482
79623SOL    HW156479   0.918   3.385  12.102  0.5879  0.0230 -1.2313
79623SOL    HW256480   1.011   3.417  12.217  0.0881 -0.8652 -0.5604
79624SOL     OW56481   1.333  10.501   2.614 -0.6417  0.1698 -0.7761
79624SOL    HW156482   1.423  10.484   2.587 -1.2754 -2.1945 -1.6160
79624SOL    HW256483   1.331  10.596   2.632  2.3179  0.1038  0.5971
79625SOL     OW56484   9.432   1.077   1.058 -0.4583  0.0755 -0.6465
79625SOL    HW156485   9.526   1.066   1.047 -0.1949  0.1085  1.3195
79625SOL    HW256486   9.395   0.994   1.029  0.1132  0.2119 -1.8378
79626SOL     OW56487   5.711   5.468   4.506 -0.5629 -0.2730 -0.3420
79626SOL    HW156488   5.788   5.412   4.494 -0.2610  0.2919 -1.1515
79626SOL    HW256489   5.746   5.552   4.533 -0.8539  0.1100 -1.1324
79627SOL     OW56490   8.809   1.286  13.478 -0.1269  0.2006  0.1426
79627SOL    HW156491   8.856   1.229  13.417 -0.0989  1.1161 -0.7189
79627SOL    HW256492   8.865   1.290  13.556  1.0413  0.9637 -0.7228
79628SOL     OW56493  11.737   9.948   9.957 -0.5416 -0.3254 -0.3249
79628SOL    HW156494  11.793   9.958  10.034 -1.4006 -0.5962  0.3418
79628SOL    HW256495  11.671   9.884   9.982 -0.3604 -1.0502 -1.5715
79629SOL     OW56496   3.613   2.056   2.337  0.0302  0.3187 -0.2900
79629SOL    HW156497   3.612   2.138   2.289  0.4302 -0.5740 -1.8913
79629SOL    HW256498   3.523   2.024   2.334  0.2383 -0.2061 -1.3282
79630SOL     OW56499  11.773   4.154   2.677 -0.0644  0.2936  0.0320
79630SOL    HW156500  11.699   4.140   2.617 -1.2847 -0.6609  1.6824
79630SOL    HW256501  11.838   4.091   2.649  0.1583  1.1076 -1.4156
79631SOL     OW56502   8.732  12.440  12.407  0.1630 -0.3109  0.2220
79631SOL    HW156503   8.698  12.372  12.466  0.3615  0.3481  1.1181
79631SOL    HW256504   8.661  12.456  12.345  0.4304 -1.9671 -0.5850
79632SOL     OW56505   4.050  10.540   8.497 -0.2961  0.3534 -0.4265
79632SOL    HW156506   4.004  10.464   8.532  0.5400 -1.1639 -2.4006
79632SOL    HW256507   4.085  10.585   8.574 -0.1796 -1.6882  0.7834
79633SOL     OW56508  10.631   1.386   9.155 -0.5491 -0.2475 -0.8881
79633SOL    HW156509  10.669   1.298   9.148 -0.2671 -0.1727 -0.3262
79633SOL    HW256510  10.560   1.376   9.219 -0.7761 -0.1542 -1.1264
79634SOL     OW56511  13.376   2.123   8.183  0.1046 -0.0732 -0.6873
79634SOL    HW156512  13.305   2.115   8.119 -0.1066 -1.2025 -0.3478
79634SOL    HW256513  13.430   2.195   8.151 -2.6451  2.6987  0.4974
79635SOL     OW56514   3.288   5.836   6.184 -0.0569 -0.2483 -0.3892
79635SOL    HW156515   3.277   5.928   6.162  1.0954  0.1515  0.5906
79635SOL    HW256516   3.279   5.790   6.101 -0.6060  0.7427 -0.8959
79636SOL     OW56517  12.131   2.703   9.337  0.3399 -0.2247  0.0029
79636SOL    HW156518  12.128   2.779   9.279  2.1346 -0.1510 -0.0294
79636SOL    HW256519  12.075   2.638   9.294  2.5990 -0.6489 -2.5382
79637SOL     OW56520  11.929   6.013   6.855  0.3819 -0.4968  0.1603
79637SOL    HW156521  11.937   5.917   6.852 -0.1202 -0.6003  1.3765
79637SOL    HW256522  11.841   6.031   6.823  0.4785 -0.4461 -0.0737
79638SOL     OW56523   7.716   6.695  10.595  0.4829 -0.1630 -0.1171
79638SOL    HW156524   7.799   6.647  10.586 -0.0400 -0.7647 -2.1017
79638SOL    HW256525   7.736   6.783  10.564  0.2210 -0.5184 -1.3431
79639SOL     OW56526   5.912   2.849   6.204  0.3981 -0.0415  0.4022
79639SOL    HW156527   5.888   2.825   6.294  1.9858  1.0941  1.1781
79639SOL    HW256528   5.987   2.794   6.185  0.4327  0.1525 -0.0140
79640SOL     OW56529   7.239   5.738  12.319  0.7157  0.0508  0.3867
79640SOL    HW156530   7.250   5.827  12.285  0.8571  0.0568  0.4475
79640SOL    HW256531   7.181   5.695  12.257  2.0814 -0.3798 -0.6307
79641SOL     OW56532   3.667  11.300  12.108 -0.1396  0.3736  0.1574
79641SOL    HW156533   3.699  11.211  12.090 -0.4325  0.5587 -1.4438
79641SOL    HW256534   3.653  11.302  12.203  0.4010 -1.1098  0.2925
79642SOL     OW56535   3.332   8.141   8.886  0.0182 -0.3245 -0.7282
79642SOL    HW156536   3.304   8.218   8.837  1.0008  0.4470 -0.1128
79642SOL    HW256537   3.388   8.093   8.825 -2.3111 -1.7600 -1.8889
79643SOL     OW56538   3.599   6.892   6.550 -0.2481  0.2929 -0.3612
79643SOL    HW156539   3.654   6.950   6.603 -0.5467 -0.4469  0.8048
79643SOL    HW256540   3.632   6.804   6.569 -1.2254 -0.0854 -0.3550
79644SOL     OW56541   7.421   8.288   2.486  0.6452  0.2818  0.0858
79644SOL    HW156542   7.392   8.198   2.474  0.8127  0.4911 -2.3001
79644SOL    HW256543   7.345   8.333   2.523  0.1872 -0.5693  0.2096
79645SOL     OW56544  10.025  10.709   8.891 -0.0624  0.0953 -0.6712
79645SOL    HW156545  10.105  10.755   8.916  0.5914 -0.3122 -1.9065
79645SOL    HW256546   9.987  10.763   8.822 -1.2976  0.6957  0.4470
79646SOL     OW56547   3.544  10.693   6.337 -0.5965  0.1381 -0.3667
79646SOL    HW156548   3.603  10.690   6.413 -1.5489 -2.8844  0.4276
79646SOL    HW256549   3.456  10.687   6.375 -1.1508 -0.3519 -1.6558
79647SOL     OW56550  13.124   2.415   4.947 -0.3042 -0.3183  0.0977
79647SOL    HW156551  13.183   2.389   4.877  1.4959  1.2570  0.9433
79647SOL    HW256552  13.168   2.387   5.027 -0.5777  1.0744  0.7662
79648SOL     OW56553   8.241   8.019   9.103  0.0052 -0.3761 -0.2056
79648SOL    HW156554   8.330   8.016   9.069 -0.5202  1.2538 -1.9134
79648SOL    HW256555   8.199   7.941   9.066  0.1979 -0.0924 -1.0351
79649SOL     OW56556   2.960   4.791   4.918 -0.2966  0.2180 -0.0717
79649SOL    HW156557   2.923   4.718   4.968  0.0527  0.0365 -0.0738
79649SOL    HW256558   3.040   4.755   4.880 -0.7089  0.2626 -1.0152
79650SOL     OW56559   9.960   4.227  10.399  0.6628 -0.8284  0.3790
79650SOL    HW156560   9.922   4.259  10.481 -0.3139 -1.1728  0.0693
79650SOL    HW256561  10.054   4.236  10.412  0.4961 -0.2265  1.2751
79651SOL     OW56562   0.731  13.877   8.723 -0.4132  0.3213  0.1971
79651SOL    HW156563   0.673  13.951   8.704 -1.1951 -0.3859 -0.2828
79651SOL    HW256564   0.728  13.824   8.644 -0.9164 -0.8798  0.9837
79652SOL     OW56565   9.536  11.747  11.193  0.4010  0.5303 -0.0538
79652SOL    HW156566   9.606  11.725  11.131  0.8588 -0.1350  0.6830
79652SOL    HW256567   9.522  11.666  11.242 -0.2562  0.9315  0.4238
79653SOL     OW56568  11.000   0.940   2.473  0.5021  0.5701 -0.7581
79653SOL    HW156569  10.951   0.874   2.423 -1.1893 -0.0211  1.4907
79653SOL    HW256570  10.946   0.955   2.551  1.7061  3.3696 -0.3509
79654SOL     OW56571   7.868   5.498  13.871  0.5475 -0.7572 -0.2429
79654SOL    HW156572   7.895   5.579  13.828  0.4371  0.0006  1.0732
79654SOL    HW256573   7.924   5.431  13.833  3.8379  0.6056  1.8150
79655SOL     OW56574  13.918   0.328   8.899  0.3157 -0.1656 -0.2587
79655SOL    HW156575  13.905   0.284   8.983  3.2992  1.8320  1.4398
79655SOL    HW256576  13.989   0.279   8.857 -1.3288 -1.3056 -1.8189
79656SOL     OW56577   1.943   2.405   7.018  0.0085 -1.0622  0.0380
79656SOL    HW156578   1.979   2.324   7.055  2.3695 -0.5404 -0.9195
79656SOL    HW256579   2.020   2.456   6.994 -1.4313  0.9484 -0.5589
79657SOL     OW56580   0.154   2.795  14.090 -0.7235  0.3646  0.2117
79657SOL    HW156581   0.118   2.884  14.099 -2.4000 -0.1633 -0.9157
79657SOL    HW256582   0.096   2.752  14.028  0.0040 -1.5799  0.8266
79658SOL     OW56583  11.254  10.740   0.325 -0.1423  0.5465  0.3221
79658SOL    HW156584  11.235  10.756   0.232 -0.6621  0.2775  0.3830
79658SOL    HW256585  11.171  10.710   0.362  0.1108  0.4764  0.8366
79659SOL     OW56586   2.750   7.798   7.528  0.3220  0.1551 -0.4444
79659SOL    HW156587   2.689   7.724   7.535  1.9514 -1.1662  0.3206
79659SOL    HW256588   2.773   7.819   7.619  0.6054  1.0053 -0.7001
79660SOL     OW56589   5.022   7.130  12.848  0.1868  0.0165  0.1520
79660SOL    HW156590   5.037   7.060  12.911 -1.9127  0.2999  1.0522
79660SOL    HW256591   5.087   7.115  12.779  1.8907 -0.8964  1.8567
79661SOL     OW56592  11.079  11.634   7.834  0.2636 -0.1627  0.1346
79661SOL    HW156593  11.136  11.603   7.763 -2.3346 -0.2047 -2.0743
79661SOL    HW256594  11.095  11.573   7.906  1.6859 -1.2253 -1.0325
79662SOL     OW56595   8.394  10.726  10.885 -0.7661  0.1843  0.3976
79662SOL    HW156596   8.470  10.719  10.828 -0.2583 -0.8496  1.1774
79662SOL    HW256597   8.405  10.810  10.930 -0.6130  0.5013 -0.2284
79663SOL     OW56598   6.786   6.008  11.947 -0.2731 -0.1939  0.2298
79663SOL    HW156599   6.873   5.988  11.911  0.0162  1.5678 -0.1322
79663SOL    HW256600   6.797   6.000  12.042  1.6074  4.2594  0.6223
79664SOL     OW56601   2.996   8.116  11.401  0.6780  0.1944 -0.1813
79664SOL    HW156602   3.009   8.095  11.309 -1.7867 -1.2790 -0.2812
79664SOL    HW256603   3.078   8.092  11.443  1.3815 -0.3475 -1.7964
79665SOL     OW56604   4.980   4.240   9.840 -0.4366  0.2655  0.3478
79665SOL    HW156605   4.964   4.211   9.750  0.3233 -0.2867  0.3854
79665SOL    HW256606   4.913   4.194   9.892  0.0014 -0.5070  0.2444
79666SOL     OW56607   6.571  14.040  10.259 -0.3027 -0.2859  0.5011
79666SOL    HW156608   6.499  14.002  10.309 -0.2110  0.0136  0.8625
79666SOL    HW256609   6.636  14.064  10.325  1.0990 -2.5356  0.0544
79667SOL     OW56610   6.050   6.205  12.115  0.3247 -0.3283 -0.1130
79667SOL    HW156611   6.108   6.275  12.085 -0.8221 -0.5489 -3.2388
79667SOL    HW256612   5.988   6.248  12.173  0.7972  0.8566 -0.4618
79668SOL     OW56613   2.808  11.071  11.314 -0.2872 -0.0444  0.7015
79668SOL    HW156614   2.892  11.077  11.360 -0.3474 -1.9152  1.1769
79668SOL    HW256615   2.784  11.161  11.294  1.3747  0.5891  1.3993
79669SOL     OW56616   2.942   7.034  11.474  0.4690 -0.4327 -0.3596
79669SOL    HW156617   3.033   7.043  11.448  0.4254  2.3153  0.1192
79669SOL    HW256618   2.893   7.082  11.407 -0.5965 -1.3277 -0.2682
79670SOL     OW56619   9.346   1.820  13.385  0.2367 -0.0348 -0.2304
79670SOL    HW156620   9.360   1.797  13.477  0.6297  0.6024 -0.1223
79670SOL    HW256621   9.362   1.915  13.381 -2.4764  0.4799 -0.4370
79671SOL     OW56622   8.021  12.760   4.718  0.1669  0.4290  0.1991
79671SOL    HW156623   7.941  12.745   4.668  0.4881 -0.9697  0.0557
79671SOL    HW256624   8.076  12.683   4.700  0.3819 -0.0388  2.5017
79672SOL     OW56625  10.470  11.744   8.954  0.0755 -0.5555 -0.3899
79672SOL    HW156626  10.472  11.840   8.959 -0.5163 -0.5036 -0.9830
79672SOL    HW256627  10.427  11.726   8.870 -0.7564 -1.3353  0.1863
79673SOL     OW56628   3.946   9.855   4.883 -0.1882 -0.0803  0.5763
79673SOL    HW156629   3.875   9.861   4.947 -1.1547  0.2764 -0.4978
79673SOL    HW256630   3.964   9.946   4.859  0.0918 -0.2206  0.2533
79674SOL     OW56631   0.871   7.395  12.031  0.2937 -0.4159  0.5882
79674SOL    HW156632   0.914   7.467  11.985  1.8981 -0.8989  1.2303
79674SOL    HW256633   0.913   7.316  11.996 -1.2946 -1.0377  0.0282
79675SOL     OW56634   9.614  11.323   4.025 -0.3795 -0.3323 -0.0779
79675SOL    HW156635   9.626  11.261   4.096 -2.4173 -0.3890  0.2827
79675SOL    HW256636   9.565  11.275   3.958  0.3991  0.0936 -0.9945
79676SOL     OW56637   1.290  12.655   3.776  0.1209  0.0389  0.4826
79676SOL    HW156638   1.317  12.709   3.851 -1.1064  1.0486  0.2105
79676SOL    HW256639   1.219  12.600   3.811 -0.1704  0.2141  0.1618
79677SOL     OW56640  13.014  11.808   2.436  0.0110  0.5082  0.3493
79677SOL    HW156641  13.081  11.757   2.390 -2.0825 -1.7801 -0.4161
79677SOL    HW256642  12.942  11.814   2.374 -0.9101  1.9761  1.5037
79678SOL     OW56643  11.976   1.980  13.110 -0.3999 -0.6894  0.2070
79678SOL    HW156644  11.944   2.007  13.024 -0.0413 -0.5561  0.1137
79678SOL    HW256645  11.947   2.049  13.169 -1.1084 -1.0481  0.2852
79679SOL     OW56646   4.771   2.452   4.373  0.2574 -0.1149 -0.0562
79679SOL    HW156647   4.751   2.506   4.450  1.6787  0.3487  0.0197
79679SOL    HW256648   4.699   2.389   4.369 -1.9906  2.2848 -0.6477
79680SOL     OW56649   7.925  11.444  13.716 -0.3728 -0.5062  0.1357
79680SOL    HW156650   7.903  11.515  13.777 -0.1947  0.4055 -0.8185
79680SOL    HW256651   7.970  11.489  13.644  1.8168 -1.8813  0.5526
79681SOL     OW56652   4.123  10.281   8.940 -0.3939  0.2194 -0.2264
79681SOL    HW156653   4.148  10.232   8.862  1.0341  0.7026 -0.1007
79681SOL    HW256654   4.099  10.368   8.908  0.4458  0.4997 -0.1185
79682SOL     OW56655   9.077   7.102  12.910 -0.0594  0.0900 -0.0374
79682SOL    HW156656   9.156   7.148  12.881  1.1270 -0.9250  1.4573
79682SOL    HW256657   9.077   7.020  12.861  0.2168 -0.2197  0.4699
79683SOL     OW56658   7.949   1.629   4.103  0.6205 -0.0292  0.3278
79683SOL    HW156659   7.962   1.641   4.009  0.5538 -0.9833  0.1893
79683SOL    HW256660   7.902   1.708   4.131  1.3900  0.6622 -0.2710
79684SOL     OW56661   1.084   1.037  11.554  0.5071 -0.0881  0.5353
79684SOL    HW156662   1.175   1.032  11.582  0.5590 -0.0196  0.3788
79684SOL    HW256663   1.071   0.958  11.500  1.1566  1.0909 -1.4471
79685SOL     OW56664   8.658   0.117   9.234 -0.4593  0.2667 -0.4134
79685SOL    HW156665   8.686   0.174   9.162 -0.4404  0.7435 -0.0377
79685SOL    HW256666   8.564   0.104   9.219 -0.8917  1.9320  0.4967
79686SOL     OW56667   8.870   5.717   1.024 -0.2902 -0.0698  0.4988
79686SOL    HW156668   8.954   5.689   1.061 -0.2597  1.0385  1.3396
79686SOL    HW256669   8.892   5.793   0.970 -0.6751 -0.1530  0.2248
79687SOL     OW56670   6.837   2.915   8.927  0.6012 -0.4604  0.2571
79687SOL    HW156671   6.782   2.905   9.004  0.6281 -0.9163  0.2197
79687SOL    HW256672   6.906   2.849   8.938  1.0347 -0.0257  0.2130
79688SOL     OW56673   3.189   5.717   5.873 -0.7245 -0.0898  0.4317
79688SOL    HW156674   3.259   5.657   5.899 -1.6832 -0.3171  2.6118
79688SOL    HW256675   3.110   5.664   5.872 -1.5044  0.9642  1.8894
79689SOL     OW56676  13.953   1.824   5.396 -0.1054 -0.5475 -0.3938
79689SOL    HW156677  13.953   1.890   5.465  0.7248  0.2298 -1.1182
79689SOL    HW256678  13.959   1.741   5.443  0.3833 -0.0313  0.4869
79690SOL     OW56679   0.034   4.515   4.686 -0.0067 -0.4643  0.0059
79690SOL    HW156680   0.063   4.577   4.753  0.9575  0.2520 -1.0265
79690SOL    HW256681   0.093   4.441   4.694 -0.5969 -0.8721  0.6610
79691SOL     OW56682  12.704  11.323   0.291  0.3481 -0.2597  0.0311
79691SOL    HW156683  12.645  11.398   0.285  1.3855  0.4944 -1.7635
79691SOL    HW256684  12.758  11.341   0.367 -0.3235  0.1074  0.4296
79692SOL     OW56685  13.153   0.524   6.124  0.2156  0.1934  0.6446
79692SOL    HW156686  13.152   0.443   6.072 -0.4619  0.5534  0.0901
79692SOL    HW256687  13.062   0.537   6.149 -0.0669  1.9354 -1.0909
79693SOL     OW56688  11.496   7.213   5.265 -0.6607  0.2636 -0.5711
79693SOL    HW156689  11.570   7.242   5.318  0.9327 -0.5433 -2.2370
79693SOL    HW256690  11.425   7.271   5.290  0.4150  0.8275  1.3782
79694SOL     OW56691   2.060   5.989   6.058  0.1677  0.1159  0.4636
79694SOL    HW156692   1.990   5.930   6.086 -0.7005  1.3464  0.9438
79694SOL    HW256693   2.095   6.026   6.139  0.4347  0.5624  0.1525
79695SOL     OW56694  12.083   3.773   8.044  0.0614 -0.0341  0.9946
79695SOL    HW156695  12.154   3.825   8.006  1.4465 -0.5237  2.7644
79695SOL    HW256696  12.037   3.736   7.968  0.6377  1.6362 -0.2385
79696SOL     OW56697   2.837   0.808  12.942  0.0224 -0.1677  0.2076
79696SOL    HW156698   2.751   0.817  12.982  0.3632  2.5159  0.4829
79696SOL    HW256699   2.849   0.713  12.934 -2.1734 -0.6719  1.7972
79697SOL     OW56700  13.111  11.787  10.192 -0.6633 -0.1367 -0.1892
79697SOL    HW156701  13.163  11.861  10.162 -0.7100 -0.5243 -1.2789
79697SOL    HW256702  13.143  11.770  10.280  1.3309 -0.5682 -0.9309
79698SOL     OW56703   5.786   0.705   9.221  0.5824  0.4510  0.0635
79698SOL    HW156704   5.802   0.793   9.256 -1.3898  0.6285  0.6949
79698SOL    HW256705   5.721   0.719   9.152  0.4294 -0.4681  0.0136
79699SOL     OW56706   0.685   2.006  11.791 -0.0834  0.5147  0.6601
79699SOL    HW156707   0.706   2.073  11.856  0.2116 -0.5288  1.6795
79699SOL    HW256708   0.762   2.003  11.734  0.0730  0.7686  0.8572
79700SOL     OW56709   8.821   3.380   5.791 -0.6719 -0.0054 -0.0695
79700SOL    HW156710   8.796   3.430   5.714 -1.2223  0.2438  0.2646
79700SOL    HW256711   8.742   3.332   5.816 -0.6286  0.2477  0.5899
79701SOL     OW56712   5.810   0.137   4.621 -0.7796 -0.2238 -0.5962
79701SOL    HW156713   5.819   0.042   4.633  1.4463 -0.0273 -0.3106
79701SOL    HW256714   5.835   0.152   4.530 -1.1856  0.0942 -0.6598
79702SOL     OW56715   7.359   2.576   0.838  0.3804 -0.1228  0.3082
79702SOL    HW156716   7.377   2.625   0.758  1.0153  0.0741  0.5651
79702SOL    HW256717   7.263   2.574   0.844  0.3461  1.1448  0.3360
79703SOL     OW56718   0.663   8.215   5.490 -0.6011  0.3258 -0.1183
79703SOL    HW156719   0.686   8.190   5.400 -1.1972 -0.4060 -0.0836
79703SOL    HW256720   0.746   8.237   5.531 -0.1198 -0.9139 -0.3763
79704SOL     OW56721  12.902  12.551   0.357 -0.1769 -0.2181 -0.4298
79704SOL    HW156722  12.921  12.641   0.329 -0.2883  0.4625  1.5637
79704SOL    HW256723  12.839  12.519   0.292  1.2209  0.4800 -2.2036
79705SOL     OW56724   9.635   4.816   5.769  0.3591  0.6966 -0.9092
79705SOL    HW156725   9.597   4.896   5.732 -2.0030 -0.8257 -2.0205
79705SOL    HW256726   9.686   4.779   5.697  0.7298  0.7476 -0.6755
79706SOL     OW56727   4.440   7.202   6.949 -0.2754  0.5028  0.3970
79706SOL    HW156728   4.501   7.266   6.986  0.0572  0.1068  0.5325
79706SOL    HW256729   4.386   7.253   6.889  1.2381  0.5707 -0.9785
79707SOL     OW56730  10.514  11.043   4.678  0.6301  0.2796  0.0453
79707SOL    HW156731  10.466  11.039   4.595 -0.7212 -0.4221  0.8191
79707SOL    HW256732  10.600  11.006   4.659 -0.7701 -3.1607 -0.3347
79708SOL     OW56733   6.562   9.104   5.262  0.1914  0.2475 -0.2266
79708SOL    HW156734   6.638   9.123   5.207 -0.4179  1.1328 -0.7876
79708SOL    HW256735   6.527   9.190   5.285 -0.2381 -0.1385  0.5991
79709SOL     OW56736  13.243   5.133   1.555 -0.6357  0.0802 -0.0113
79709SOL    HW156737  13.186   5.209   1.548 -1.4329  0.1299  4.4185
79709SOL    HW256738  13.190   5.060   1.524 -1.7032  0.6734  0.3887
79710SOL     OW56739  11.819  11.972   2.307  0.0960  0.6432 -0.3592
79710SOL    HW156740  11.860  12.042   2.254  1.0942 -0.7733 -1.5353
79710SOL    HW256741  11.837  11.998   2.398 -0.5753  2.5026 -0.7037
79711SOL     OW56742  10.774   0.862   7.654 -0.5066  0.5125  0.2730
79711SOL    HW156743  10.776   0.894   7.744 -1.2148  1.7423 -0.1167
79711SOL    HW256744  10.848   0.802   7.648 -0.9705 -0.2727  1.9115
79712SOL     OW56745   9.309  11.472  12.358  0.1708 -0.0630  0.0844
79712SOL    HW156746   9.234  11.525  12.333 -0.7776 -1.2086  0.4574
79712SOL    HW256747   9.336  11.508  12.443 -1.0081 -0.7093  0.7547
79713SOL     OW56748  10.426   0.011  10.166 -0.0246  0.0264 -0.1230
79713SOL    HW156749  10.520   0.020  10.181  0.1806 -0.7716 -0.8642
79713SOL    HW256750  10.417  -0.067  10.111 -1.2657 -1.0802  1.5411
79714SOL     OW56751   9.571   5.845   4.906 -0.4554 -0.2544 -0.6082
79714SOL    HW156752   9.607   5.870   4.991 -0.4560 -1.4971 -0.2200
79714SOL    HW256753   9.478   5.867   4.912 -0.5751 -0.8758 -0.0553
79715SOL     OW56754   1.722  13.691   5.461 -0.4270 -0.0547 -0.4638
79715SOL    HW156755   1.726  13.662   5.369 -0.6833 -0.2420 -0.4161
79715SOL    HW256756   1.699  13.613   5.510 -0.7218  0.1387 -0.2875
79716SOL     OW56757  10.762   2.864  11.414  0.1896 -0.0074  0.3635
79716SOL    HW156758  10.682   2.915  11.421  0.4019  0.3498  0.2206
79716SOL    HW256759  10.825   2.908  11.471 -0.2399 -1.3549  1.9723
79717SOL     OW56760   1.152   2.341   2.164 -0.8897 -0.0949 -0.4492
79717SOL    HW156761   1.208   2.268   2.190  1.1411  0.9174 -1.7360
79717SOL    HW256762   1.187   2.417   2.210 -1.7977  0.4242 -0.5802
79718SOL     OW56763  12.635   1.596   5.714  0.1584 -0.3144 -0.4141
79718SOL    HW156764  12.616   1.676   5.763  0.4272  0.0920 -0.9702
79718SOL    HW256765  12.562   1.586   5.654  1.0067  0.5293 -1.6287
79719SOL     OW56766   6.173   9.468   5.027  0.8688  0.2817 -0.2513
79719SOL    HW156767   6.263   9.468   5.061  0.8376  1.6420 -0.1135
79719SOL    HW256768   6.120   9.438   5.100  1.1019  0.5791  0.0464
79720SOL     OW56769  10.735   9.798   4.455 -0.3358  0.5611 -0.1905
79720SOL    HW156770  10.666   9.828   4.396 -0.6392 -0.3853 -0.3338
79720SOL    HW256771  10.794   9.748   4.399  0.6774  1.6722 -0.1350
79721SOL     OW56772   7.239   9.439  13.380 -0.6210 -0.2813  0.2024
79721SOL    HW156773   7.202   9.476  13.300 -0.0748 -0.7864 -0.3015
79721SOL    HW256774   7.283   9.513  13.422  0.0554 -0.2411 -0.5470
79722SOL     OW56775  11.284   0.152  11.916 -0.1911  0.0545 -0.0811
79722SOL    HW156776  11.264   0.063  11.889 -1.3736  0.8300 -1.9712
79722SOL    HW256777  11.342   0.142  11.992 -0.4593 -2.2895 -0.1176
79723SOL     OW56778   2.802   7.917  13.498  0.0412 -0.6008  0.0825
79723SOL    HW156779   2.862   7.944  13.567 -0.5434 -0.8105  0.6849
79723SOL    HW256780   2.746   7.852  13.539 -0.6769 -0.3233 -0.4349
79724SOL     OW56781   3.565  13.434  12.235  0.5346  0.4838  0.2923
79724SOL    HW156782   3.518  13.369  12.288  0.3773 -1.0800 -1.6344
79724SOL    HW256783   3.576  13.509  12.293 -2.8418  0.2906  1.3769
79725SOL     OW56784  14.015  12.935   7.708  0.2780 -0.6803 -0.5879
79725SOL    HW156785  14.080  12.946   7.778 -0.1917  1.0112 -0.3745
79725SOL    HW256786  14.060  12.884   7.641  1.0214 -1.6087  0.5714
79726SOL     OW56787   3.472   2.852   3.672  0.3291 -0.2274 -0.0563
79726SOL    HW156788   3.522   2.933   3.664  0.4265 -0.0977  1.4738
79726SOL    HW256789   3.389   2.879   3.712  0.1366 -0.8137 -0.0490
79727SOL     OW56790   0.057  11.789   3.613 -0.6327 -0.3202  0.1456
79727SOL    HW156791   0.049  11.694   3.624  3.4472 -0.8338  0.4372
79727SOL    HW256792   0.073  11.822   3.701  3.2473 -0.2996 -0.3669
79728SOL     OW56793   8.798  11.083  10.571 -0.2825  0.7090  0.4821
79728SOL    HW156794   8.832  11.154  10.626  0.0636  2.4224 -1.7760
79728SOL    HW256795   8.794  11.121  10.483  0.2842 -2.2155 -0.9330
79729SOL     OW56796  12.093   0.046  13.265 -0.3932  0.4549  0.8556
79729SOL    HW156797  12.134   0.058  13.179 -0.6922  3.0267  1.0154
79729SOL    HW256798  12.010   0.002  13.245  0.5455 -1.1124  0.1289
79730SOL     OW56799   8.683  13.801   9.486 -0.4336  0.1270  0.0552
79730SOL    HW156800   8.679  13.896   9.499 -3.0097  0.2817 -1.2277
79730SOL    HW256801   8.593  13.772   9.497  0.4524 -2.3600  1.3324
79731SOL     OW56802   1.481  13.126  10.197  0.1976 -0.2177 -0.1295
79731SOL    HW156803   1.480  13.144  10.291  0.7403 -2.3076  0.3430
79731SOL    HW256804   1.485  13.212  10.156  3.2725  0.7435  1.8303
79732SOL     OW56805   5.622   8.623  12.522  0.3668  0.7087  0.4688
79732SOL    HW156806   5.621   8.655  12.613 -0.7946  0.9510  0.3865
79732SOL    HW256807   5.611   8.529  12.530  2.1614  0.4819  0.6405
79733SOL     OW56808   8.302   1.635  13.976 -0.3884 -0.1186  0.4307
79733SOL    HW156809   8.343   1.613  13.892 -1.1832  0.3512 -0.0953
79733SOL    HW256810   8.214   1.666  13.952 -0.3621  0.7150  1.3797
79734SOL     OW56811   7.811   0.383  13.600 -0.5755  0.0950  0.0220
79734SOL    HW156812   7.894   0.427  13.619 -0.7349 -0.0354  1.0751
79734SOL    HW256813   7.744   0.443  13.632 -0.9109  0.2431 -0.9106
79735SOL     OW56814   2.873  12.194  10.721  0.3606 -0.0481  0.7136
79735SOL    HW156815   2.788  12.210  10.762  0.3736 -1.3598  1.3202
79735SOL    HW256816   2.896  12.276  10.679 -0.9605  0.4881  1.0034
79736SOL     OW56817   3.878   0.506   1.663  0.3194 -0.4065 -0.0252
79736SOL    HW156818   3.970   0.522   1.639  0.1252  2.2812  0.6411
79736SOL    HW256819   3.843   0.456   1.589  1.3029  2.1779 -2.4397
79737SOL     OW56820   6.547   5.613  13.330 -0.1982  0.2179 -0.0570
79737SOL    HW156821   6.472   5.573  13.285 -0.1021  0.0747 -0.0909
79737SOL    HW256822   6.623   5.575  13.286 -0.1063  0.4232 -0.0725
79738SOL     OW56823   6.713   7.752   2.619 -0.1820  0.2405  0.4635
79738SOL    HW156824   6.639   7.786   2.568  1.0678  1.3430 -0.7165
79738SOL    HW256825   6.700   7.658   2.620 -1.0484  0.3240 -0.6668
79739SOL     OW56826   3.118   4.927   1.959  0.0766  0.1879  0.4371
79739SOL    HW156827   3.185   4.989   1.986 -0.2458 -0.1691  2.2147
79739SOL    HW256828   3.037   4.977   1.960  0.0708  0.1913  0.0081
79740SOL     OW56829   0.226   4.023   4.650 -0.4137 -0.2167  0.3297
79740SOL    HW156830   0.237   4.102   4.703 -0.1364 -0.4615  0.6366
79740SOL    HW256831   0.134   3.999   4.662 -0.8842  0.8432 -0.8683
79741SOL     OW56832   7.772  11.734  10.204  0.3303 -0.1101 -0.0625
79741SOL    HW156833   7.831  11.770  10.138  0.6489  1.1763  0.8932
79741SOL    HW256834   7.830  11.697  10.271  0.0123 -0.8890 -0.2025
79742SOL     OW56835   8.779  12.016   0.458 -0.1547  0.8558 -0.8220
79742SOL    HW156836   8.859  12.061   0.432  0.5151  0.8660  1.0836
79742SOL    HW256837   8.753  12.058   0.539  0.1148 -1.6342  0.6826
79743SOL     OW56838   6.907  12.333  10.014 -0.1886 -0.1660 -0.2724
79743SOL    HW156839   6.832  12.375   9.971 -0.3587 -1.3066 -1.1347
79743SOL    HW256840   6.923  12.254   9.963  0.9814 -0.4599  0.5053
79744SOL     OW56841   7.599   0.301   4.753 -0.0455 -0.1246 -0.6604
79744SOL    HW156842   7.639   0.358   4.688 -2.0240 -0.6959 -2.5014
79744SOL    HW256843   7.628   0.213   4.728  0.1926 -0.2418  0.0178
79745SOL     OW56844   9.688   2.348   6.998 -0.4015  0.2582  0.2314
79745SOL    HW156845   9.655   2.370   6.911 -1.6753  1.4496  0.9967
79745SOL    HW256846   9.694   2.431   7.044  0.8345 -0.2845  1.1260
79746SOL     OW56847   1.438   5.293   6.832  0.3651 -0.0977 -0.0744
79746SOL    HW156848   1.533   5.305   6.826  0.5361 -0.6132  1.2825
79746SOL    HW256849   1.401   5.379   6.812  1.0201 -0.2442 -2.2183
79747SOL     OW56850   4.079   5.929  13.982 -0.4842  0.6074  0.0073
79747SOL    HW156851   3.992   5.969  13.987 -0.1512  1.3087  0.1557
79747SOL    HW256852   4.095   5.918  13.888  0.0156  2.1289 -0.1014
79748SOL     OW56853   7.395   6.990   4.558 -0.3034  0.4735  0.2724
79748SOL    HW156854   7.432   7.075   4.535  0.4137 -0.4331 -2.3762
79748SOL    HW256855   7.321   6.980   4.498  0.1645 -1.0944 -0.0963
79749SOL     OW56856   1.586   8.782   7.708 -0.3952 -0.0301  0.4672
79749SOL    HW156857   1.494   8.756   7.702 -0.4838  0.4249 -0.2748
79749SOL    HW256858   1.592   8.861   7.655  0.7449 -0.8956 -0.7514
79750SOL     OW56859   6.326   0.463   7.010  1.2981  0.1969 -0.0878
79750SOL    HW156860   6.385   0.398   7.048  0.2485 -0.4467  0.5105
79750SOL    HW256861   6.273   0.492   7.084 -0.6964 -0.9706 -0.9622
79751SOL     OW56862   3.617   0.947   1.803 -0.0580  0.0652  0.2968
79751SOL    HW156863   3.553   0.913   1.866  0.6600  0.9596  1.5521
79751SOL    HW256864   3.602   0.895   1.724 -2.3765  0.2836  0.5050
79752SOL     OW56865   8.356   1.035   6.531 -0.4433 -0.0246  0.1236
79752SOL    HW156866   8.406   1.117   6.538 -1.4523  0.5986  0.2138
79752SOL    HW256867   8.266   1.063   6.514 -1.0530 -1.0825  1.4494
79753SOL     OW56868   4.274  10.541   2.122  0.1680 -0.1732  0.0732
79753SOL    HW156869   4.227  10.573   2.046 -2.1239 -2.9151  0.1718
79753SOL    HW256870   4.318  10.461   2.092  2.2092  0.5958  0.8187
79754SOL     OW56871   8.902  13.025   0.426 -0.1470  0.0181  0.3080
79754SOL    HW156872   8.965  13.096   0.411  0.0107  0.0310  0.9870
79754SOL    HW256873   8.939  12.976   0.499 -0.8713 -0.0444  0.6381
79755SOL     OW56874   7.950  13.590   1.504  0.3709 -0.6407  0.5884
79755SOL    HW156875   7.865  13.554   1.529 -1.2152  2.6024  0.4619
79755SOL    HW256876   7.998  13.597   1.586  0.4764 -2.2930  0.6937
79756SOL     OW56877  10.521  11.553   6.167 -0.8155  0.2075 -0.2114
79756SOL    HW156878  10.560  11.585   6.249 -2.0585  0.1548  0.4276
79756SOL    HW256879  10.453  11.492   6.195 -0.5346 -0.6529 -1.3351
79757SOL     OW56880   7.612   4.999   3.271 -0.0864  0.4834 -0.1105
79757SOL    HW156881   7.600   4.904   3.259 -0.1623  0.2885  1.3555
79757SOL    HW256882   7.627   5.032   3.182 -1.5938 -0.6745 -0.8348
79758SOL     OW56883   5.951   1.136   9.006 -0.0358  0.1248  0.1726
79758SOL    HW156884   5.961   1.093   8.921  1.0402 -0.7284  0.7093
79758SOL    HW256885   5.885   1.203   8.991 -0.8487 -0.8968 -0.9974
79759SOL     OW56886   6.180   3.223  12.507 -0.1047  0.1222  0.4894
79759SOL    HW156887   6.149   3.192  12.592 -1.2679  1.3491  0.5342
79759SOL    HW256888   6.273   3.241  12.520  0.3040 -1.9933  0.8174
79760SOL     OW56889   8.568   5.826  10.574  0.0354  0.1677  0.6145
79760SOL    HW156890   8.531   5.842  10.661 -0.6863  0.6690  0.2320
79760SOL    HW256891   8.505   5.867  10.514  1.6730  1.8716 -0.0400
79761SOL     OW56892   9.746   0.484   4.308  0.8946  0.3580  0.2933
79761SOL    HW156893   9.740   0.429   4.386  2.1831 -1.2097 -0.6572
79761SOL    HW256894   9.829   0.459   4.267 -0.1802  0.4118 -2.0875
79762SOL     OW56895   0.733   4.900   0.509  0.1972 -0.0560 -0.5272
79762SOL    HW156896   0.760   4.811   0.532 -0.0050  0.0606  0.1986
79762SOL    HW256897   0.814   4.943   0.481  0.4306 -0.2523 -0.1635
79763SOL     OW56898   4.666   7.327   9.292  0.2034  0.0972  0.5480
79763SOL    HW156899   4.623   7.321   9.378  0.6259  0.8472  0.8253
79763SOL    HW256900   4.625   7.260   9.239 -1.0951  0.5907  0.9018
79764SOL     OW56901   8.153   2.579   9.899 -0.1772  0.1018  0.1409
79764SOL    HW156902   8.180   2.603   9.810  0.6294  0.8571  0.5799
79764SOL    HW256903   8.172   2.656   9.952 -0.6038 -0.3583  0.9894
79765SOL     OW56904   1.488   5.072   1.188 -0.6139  0.2621  0.2400
79765SOL    HW156905   1.518   5.032   1.106 -1.1001 -0.8893  0.6017
79765SOL    HW256906   1.471   4.998   1.246 -2.0081  0.9701  0.7822
79766SOL     OW56907   0.241   4.430   5.321  0.3056 -0.0556  0.3812
79766SOL    HW156908   0.146   4.438   5.309  0.3663 -0.7358 -0.6424
79766SOL    HW256909   0.252   4.350   5.373  0.3919 -0.8417 -0.8311
79767SOL     OW56910   6.665   4.700   0.493  0.5599  0.7392  0.0929
79767SOL    HW156911   6.736   4.751   0.531 -0.3659  2.5435 -0.4520
79767SOL    HW256912   6.702   4.664   0.412  1.2777  0.4518  0.5483
79768SOL     OW56913   2.794   1.096   0.517  0.2607  0.6557 -0.1062
79768SOL    HW156914   2.848   1.050   0.451 -0.3868  0.2133 -0.3389
79768SOL    HW256915   2.733   1.148   0.465  0.6266  1.3641  0.1618
79769SOL     OW56916  12.536  11.597   0.570  1.3352 -0.2706 -0.1500
79769SOL    HW156917  12.602  11.640   0.624 -1.3018  1.7391  1.7387
79769SOL    HW256918  12.502  11.666   0.513  1.3281 -1.4299 -1.6144
79770SOL     OW56919   7.663  13.352  11.273 -0.0382  0.2349 -0.1291
79770SOL    HW156920   7.612  13.287  11.323 -0.4281 -0.2338 -1.1150
79770SOL    HW256921   7.663  13.429  11.329 -0.5606 -0.2453  0.5586
79771SOL     OW56922  11.582  13.318   0.872 -0.5070 -0.0025 -0.0149
79771SOL    HW156923  11.598  13.268   0.792  2.1843  0.9463 -0.1845
79771SOL    HW256924  11.536  13.257   0.930  0.8616 -2.0105 -0.9445
79772SOL     OW56925   5.293   6.059  13.142 -0.2512  0.0577  0.5741
79772SOL    HW156926   5.360   6.022  13.199  0.5382  0.0070 -0.3596
79772SOL    HW256927   5.307   6.016  13.057  0.1921  1.8776 -0.3230
79773SOL     OW56928   4.356   0.880  12.738 -0.1328 -0.2494  0.3238
79773SOL    HW156929   4.271   0.926  12.738  0.5289  1.0264  0.2430
79773SOL    HW256930   4.352   0.821  12.812 -1.5237 -1.0299 -0.3383
79774SOL     OW56931   4.615  12.697   4.808 -0.0511  0.6352  0.2394
79774SOL    HW156932   4.530  12.653   4.811  0.0493  0.4911  1.7493
79774SOL    HW256933   4.652  12.685   4.896  0.9431  1.8498  0.0242
79775SOL     OW56934   1.107   6.928   7.928 -0.2400  0.2907  0.7655
79775SOL    HW156935   1.188   6.896   7.889 -0.2365  0.0093  1.0044
79775SOL    HW256936   1.038   6.905   7.864 -0.0850  0.9166  0.3571
79776SOL     OW56937   6.222  12.486   1.481 -0.4066 -0.2077  0.9708
79776SOL    HW156938   6.145  12.531   1.447  0.2885  0.1597 -0.1446
79776SOL    HW256939   6.254  12.433   1.408 -0.2005 -1.1841  1.7414
79777SOL     OW56940  11.933   8.208  12.200 -0.0867 -0.3964  0.6171
79777SOL    HW156941  11.841   8.191  12.218 -0.0886 -0.4743  0.5307
79777SOL    HW256942  11.939   8.304  12.196 -0.0313 -0.3656  1.3255
79778SOL     OW56943   8.174   3.913   5.021  0.1467  0.2051 -0.1435
79778SOL    HW156944   8.239   3.876   4.962  0.4367 -1.9206  1.3876
79778SOL    HW256945   8.209   3.898   5.109 -1.5156  0.7829  0.6702
79779SOL     OW56946   6.315   3.087   2.939  0.3219 -0.7566  0.0060
79779SOL    HW156947   6.274   3.004   2.965  3.4548 -1.9188  1.8812
79779SOL    HW256948   6.283   3.150   3.004 -1.7330 -0.4841 -1.1668
79780SOL     OW56949  12.211   3.509   7.924  0.1906  0.1255  0.0483
79780SOL    HW156950  12.117   3.494   7.913  0.5494 -2.1367 -0.4432
79780SOL    HW256951  12.253   3.432   7.885  2.3329  1.6828 -0.9244
79781SOL     OW56952  10.648  13.882   6.432  0.0967 -0.6445  0.2264
79781SOL    HW156953  10.588  13.955   6.451 -0.2010 -0.8443  0.0446
79781SOL    HW256954  10.721  13.896   6.494 -1.2681 -1.7808  2.1933
79782SOL     OW56955  10.946  12.604   3.853 -0.3947  0.7281 -0.0064
79782SOL    HW156956  10.969  12.615   3.761  1.4933  0.6319  0.4173
79782SOL    HW256957  11.025  12.626   3.901 -0.4721 -1.7872  1.4816
79783SOL     OW56958   9.372   9.560   5.288  0.2771 -0.2255  0.4934
79783SOL    HW156959   9.400   9.491   5.228 -0.2552 -0.5717  0.6394
79783SOL    HW256960   9.298   9.523   5.336 -1.1765  1.0335 -0.6602
79784SOL     OW56961   8.313   1.343  11.640 -0.2814  0.1309 -0.1563
79784SOL    HW156962   8.233   1.291  11.649  0.8361 -1.7819 -0.6269
79784SOL    HW256963   8.303   1.389  11.557 -0.1725 -1.5529 -1.1550
79785SOL     OW56964   4.304   5.123   0.591 -0.3239  0.5193  0.3084
79785SOL    HW156965   4.320   5.167   0.675  1.5574  0.4884  0.0218
79785SOL    HW256966   4.259   5.042   0.615  1.5927 -0.2759  1.5264
79786SOL     OW56967   1.196  11.978   6.027  0.2077 -0.2316 -0.0942
79786SOL    HW156968   1.120  12.036   6.026 -1.0156 -1.7131  1.6618
79786SOL    HW256969   1.252  12.010   5.956 -1.6903  1.3624 -0.9356
79787SOL     OW56970   0.957   6.012   9.101  0.2799 -0.6002 -0.1906
79787SOL    HW156971   0.925   6.098   9.128 -1.7206 -1.0637 -0.8915
79787SOL    HW256972   0.909   5.950   9.156  0.4773 -1.3166 -0.8064
79788SOL     OW56973  13.955   4.007   6.461  0.5856  0.4517  0.0652
79788SOL    HW156974  13.964   3.964   6.546  2.1284 -1.3139 -0.8991
79788SOL    HW256975  13.940   3.935   6.399 -0.5850  1.6967 -1.1574
79789SOL     OW56976   9.791   3.580   2.713 -0.5700  0.0224  0.0607
79789SOL    HW156977   9.744   3.577   2.630 -1.2833 -0.9568  0.4755
79789SOL    HW256978   9.755   3.507   2.763 -0.3637  0.7754  1.3491
79790SOL     OW56979  14.048  11.783   9.411 -0.1302  0.3639  0.0681
79790SOL    HW156980  13.960  11.745   9.412 -0.7828  1.7135 -1.4358
79790SOL    HW256981  14.100  11.723   9.358 -0.8670  0.9277 -1.3416
79791SOL     OW56982   6.853   9.615   3.685 -0.1227 -0.3119 -0.3663
79791SOL    HW156983   6.906   9.564   3.746  0.1871 -0.7931 -1.0235
79791SOL    HW256984   6.771   9.568   3.677 -0.8695  0.6983  1.0355
79792SOL     OW56985   2.728  10.578   0.383 -0.2560  0.9891 -0.0072
79792SOL    HW156986   2.708  10.571   0.290 -0.1061 -1.1319  0.0739
79792SOL    HW256987   2.793  10.510   0.399 -1.6476  0.0442  2.0037
79793SOL     OW56988  13.691  11.598   8.526  0.4252  0.2374  0.1309
79793SOL    HW156989  13.744  11.600   8.446  1.4787  2.3041  0.8005
79793SOL    HW256990  13.647  11.683   8.527  1.2878  0.7171  2.2674
79794SOL     OW56991   1.624  10.192   4.404 -0.7664 -0.0926  0.4700
79794SOL    HW156992   1.546  10.182   4.458 -0.0490  2.2313  2.0965
79794SOL    HW256993   1.689  10.135   4.445 -0.7057  0.3930  1.0577
79795SOL     OW56994   8.896  12.285   7.862  0.6414  0.6438 -0.1410
79795SOL    HW156995   8.879  12.192   7.848  1.1874  0.5852 -0.4507
79795SOL    HW256996   8.858  12.328   7.785  0.1757  0.7080  0.1176
79796SOL     OW56997   7.267  12.316   4.182 -0.0677  0.3955 -0.1978
79796SOL    HW156998   7.314  12.390   4.220 -1.2859  0.8976  0.4067
79796SOL    HW256999   7.174  12.341   4.187 -0.5861 -1.4896  0.7859
79797SOL     OW57000  12.584   4.613   2.432 -0.0792 -0.2504 -0.0441
79797SOL    HW157001  12.665   4.660   2.412 -1.6721  1.9942 -1.7890
79797SOL    HW257002  12.612   4.536   2.482  3.1684 -0.0409 -1.3210
79798SOL     OW57003   0.063   9.852  12.320 -0.1704  0.1967 -0.1746
79798SOL    HW157004   0.156   9.838  12.337 -0.4945 -1.2253  0.6556
79798SOL    HW257005   0.020   9.779  12.365 -1.8637  2.1291  1.5672
79799SOL     OW57006   4.373   8.702   4.067  0.3286 -0.2744 -0.1413
79799SOL    HW157007   4.339   8.663   3.987 -2.9190 -0.4122  1.1442
79799SOL    HW257008   4.377   8.796   4.049  0.7112 -0.4116 -0.7952
79800SOL     OW57009   4.114   2.472   3.855  0.1554 -0.5920  0.2200
79800SOL    HW157010   4.071   2.557   3.866  0.8990 -0.2130  0.2310
79800SOL    HW257011   4.197   2.480   3.902  0.8989 -0.8296 -1.0115
79801SOL     OW57012   9.810   3.038   4.691 -0.2116  0.3911  0.3302
79801SOL    HW157013   9.744   3.011   4.755  0.1458  0.0571  0.5613
79801SOL    HW257014   9.873   3.089   4.742  2.1337 -2.9447  1.1367
79802SOL     OW57015   1.224  11.089  13.987  0.1467 -0.4137  0.1486
79802SOL    HW157016   1.169  11.128  13.919  0.1694 -2.9443 -1.4388
79802SOL    HW257017   1.170  11.088  14.065 -0.9985 -0.2035 -0.6234
79803SOL     OW57018   6.479   2.581   4.664 -0.3685 -0.3520  0.0961
79803SOL    HW157019   6.387   2.557   4.679 -0.3335 -1.1713 -0.9422
79803SOL    HW257020   6.528   2.525   4.725 -0.4555 -1.1739 -0.5711
79804SOL     OW57021   4.709  13.373  10.295 -0.3074  0.2654  0.0420
79804SOL    HW157022   4.744  13.380  10.206  3.3441  0.3106  1.3211
79804SOL    HW257023   4.673  13.284  10.299  1.1062 -0.4120 -1.0171
79805SOL     OW57024   7.297   8.766   0.708 -0.5679  0.1650  0.0088
79805SOL    HW157025   7.242   8.835   0.746 -2.9674 -0.3617 -2.1781
79805SOL    HW257026   7.272   8.687   0.757 -0.1526  0.2887  0.4267
79806SOL     OW57027   5.359   2.432   1.219  0.2675  0.0257 -0.2869
79806SOL    HW157028   5.439   2.464   1.179 -0.4540  0.6579 -1.2445
79806SOL    HW257029   5.301   2.508   1.223  0.1023 -0.1335  1.4685
79807SOL     OW57030   4.195   1.411   5.072 -0.0767 -0.4320  0.5718
79807SOL    HW157031   4.189   1.318   5.052  0.9397 -0.4968  0.5169
79807SOL    HW257032   4.286   1.424   5.100 -0.3324  0.4548  1.0384
79808SOL     OW57033   9.686   0.679   2.495 -0.1353  0.0682  0.2722
79808SOL    HW157034   9.610   0.711   2.448 -0.1371 -1.0959 -0.5517
79808SOL    HW257035   9.760   0.696   2.436 -0.3171 -2.8161 -0.9622
79809SOL     OW57036   5.506  10.392   1.624  0.0267  0.7457 -0.3226
79809SOL    HW157037   5.524  10.474   1.579  1.4042  0.3570 -0.5259
79809SOL    HW257038   5.473  10.418   1.710 -0.8672  1.4941 -0.8747
79810SOL     OW57039   4.939  13.392   7.983 -0.0106 -0.2468  0.5803
79810SOL    HW157040   4.962  13.324   8.046 -0.1554 -0.2071  0.6756
79810SOL    HW257041   4.858  13.362   7.942  0.6269 -0.7783 -0.3325
79811SOL     OW57042  12.990   9.552   6.320  0.6280  0.0187 -0.3265
79811SOL    HW157043  13.033   9.581   6.400  0.0442 -0.6914  0.2594
79811SOL    HW257044  12.913   9.504   6.350 -0.5971  1.2856 -1.3491
79812SOL     OW57045  10.233   0.642   7.438 -0.1887 -0.4394 -0.5087
79812SOL    HW157046  10.168   0.620   7.505  0.8738 -0.9883  0.3650
79812SOL    HW257047  10.316   0.615   7.476  0.5742  0.3936 -1.5485
79813SOL     OW57048   8.459   0.603   3.754 -0.0505 -0.6281  0.1397
79813SOL    HW157049   8.455   0.674   3.818 -1.3699 -2.2208  1.9310
79813SOL    HW257050   8.422   0.640   3.674 -0.5101  0.7448  0.9620
79814SOL     OW57051  13.832   7.234  11.429  0.0955 -0.5407 -0.0351
79814SOL    HW157052  13.801   7.159  11.480  1.3549 -2.6013 -2.0666
79814SOL    HW257053  13.928   7.229  11.434  0.2218  0.2124 -1.1621
79815SOL     OW57054   2.472   1.711   9.261  0.1697 -0.2129  0.6445
79815SOL    HW157055   2.443   1.788   9.311  0.7511  0.5109 -0.1064
79815SOL    HW257056   2.552   1.739   9.217 -1.6179  0.1085 -2.7942
79816SOL     OW57057  11.827  12.901  13.176  0.2304  0.3511 -0.2613
79816SOL    HW157058  11.745  12.935  13.213  0.3718  0.3548  0.0576
79816SOL    HW257059  11.812  12.900  13.082 -0.8374 -1.4431 -0.1048
79817SOL     OW57060   1.950   3.061   5.656 -0.3997  0.4093  0.0323
79817SOL    HW157061   1.937   3.119   5.581  1.6965  0.6775 -0.1890
79817SOL    HW257062   1.975   3.120   5.728 -0.2026 -0.0477  0.3446
79818SOL     OW57063   6.166  11.644   1.917 -0.2390  0.1398  0.2250
79818SOL    HW157064   6.183  11.725   1.869 -0.0482 -0.2671 -0.4007
79818SOL    HW257065   6.098  11.668   1.981 -0.2603  0.7642 -0.0262
79819SOL     OW57066  11.886   9.606   7.266 -0.0657  0.2126  0.4566
79819SOL    HW157067  11.913   9.698   7.264  0.0589  0.2742  2.5169
79819SOL    HW257068  11.965   9.557   7.242  0.3113  0.6152  0.8480
79820SOL     OW57069  13.543   2.333  12.242  0.0967  0.1185  0.2868
79820SOL    HW157070  13.625   2.344  12.289 -0.3693 -1.6517  1.6196
79820SOL    HW257071  13.496   2.266  12.291 -1.2317 -0.4636 -1.6641
79821SOL     OW57072   3.040   0.680   5.383  0.1765  0.0487  0.1732
79821SOL    HW157073   3.000   0.597   5.357  0.0895 -0.3848  1.5987
79821SOL    HW257074   3.015   0.741   5.314 -0.6986 -0.8487 -0.3365
79822SOL     OW57075  10.816   6.080   2.707  0.6466  0.1998  0.4811
79822SOL    HW157076  10.811   6.149   2.641 -1.2949 -1.8497 -1.7118
79822SOL    HW257077  10.891   6.027   2.681 -1.6637 -2.1804 -1.9774
79823SOL     OW57078   1.379   1.391   4.500 -0.3898  0.4165  0.1214
79823SOL    HW157079   1.294   1.431   4.517 -0.3967  0.5488 -0.2174
79823SOL    HW257080   1.435   1.421   4.572 -0.8729 -0.4359  0.8757
79824SOL     OW57081   8.109   0.157   2.549 -0.1313  0.3461  0.0803
79824SOL    HW157082   8.137   0.073   2.584  1.2153  0.5550 -0.4487
79824SOL    HW257083   8.067   0.135   2.466  1.3581  0.2684 -0.6856
79825SOL     OW57084   4.044  12.496   0.823  0.1530 -0.1499  1.0833
79825SOL    HW157085   4.038  12.412   0.779  0.4840  0.1279  0.5077
79825SOL    HW257086   4.037  12.474   0.916 -1.5909 -0.6377  0.8727
79826SOL     OW57087  13.293   5.083  11.333 -0.1645  0.0527  0.6152
79826SOL    HW157088  13.378   5.120  11.359 -0.8902  1.9889  0.3830
79826SOL    HW257089  13.254   5.149  11.277 -1.4861 -1.1842  0.0194
79827SOL     OW57090   7.759   1.476   1.727 -0.4566  0.0158  0.1313
79827SOL    HW157091   7.796   1.404   1.778  0.5293 -0.0494 -0.6497
79827SOL    HW257092   7.820   1.548   1.738  1.8410 -1.0397 -3.7142
79828SOL     OW57093   7.187   6.526   4.392 -0.1422 -0.5569  0.2325
79828SOL    HW157094   7.205   6.443   4.348 -1.9720 -1.0038  0.2466
79828SOL    HW257095   7.096   6.545   4.371 -0.0131  1.0057  0.9646
79829SOL     OW57096   7.976   6.558  10.799 -0.4951 -0.7694  0.9909
79829SOL    HW157097   7.912   6.516  10.741 -0.1924 -0.0042  0.0967
79829SOL    HW257098   7.930   6.634  10.834  0.1001  0.1095 -0.1010
79830SOL     OW57099  10.078   8.818  13.879 -0.4470  0.0549  0.3954
79830SOL    HW157100  10.048   8.901  13.841  0.4917  0.3931  0.3616
79830SOL    HW257101  10.127   8.844  13.957 -0.4744 -0.4935  0.5965
79831SOL     OW57102  11.351   6.527   0.263  0.4236 -0.3348 -0.4141
79831SOL    HW157103  11.372   6.546   0.354  0.5187  0.7771 -0.6632
79831SOL    HW257104  11.417   6.463   0.236  1.3003  0.4292 -0.1316
79832SOL     OW57105   9.509  13.893   9.936  0.0801 -0.5758  0.4209
79832SOL    HW157106   9.583  13.946   9.965 -2.4321  2.4716  1.9097
79832SOL    HW257107   9.487  13.839  10.011 -0.3387 -0.0491  0.6857
79833SOL     OW57108  12.709  13.854   0.082  0.3426 -0.0629 -0.4263
79833SOL    HW157109  12.712  13.874  -0.011 -1.0147  0.2718 -0.4296
79833SOL    HW257110  12.616  13.834   0.099  0.6767 -0.7566  0.7156
79834SOL     OW57111   9.730   3.558  13.578  0.3441 -0.0749 -0.2345
79834SOL    HW157112   9.762   3.642  13.609  0.0053 -0.0715  0.1316
79834SOL    HW257113   9.808   3.506  13.561  0.5526 -0.0054  0.4603
79835SOL     OW57114   5.629   8.816   9.770 -0.4964 -0.0731 -0.8326
79835SOL    HW157115   5.661   8.828   9.680 -0.4035 -1.9364 -1.0763
79835SOL    HW257116   5.611   8.723   9.777 -1.0278  0.1286  0.9379
79836SOL     OW57117   6.635  11.590  11.049 -0.6514  0.2236  0.1794
79836SOL    HW157118   6.587  11.575  10.968 -2.0725 -0.1934  1.0394
79836SOL    HW257119   6.657  11.502  11.080 -0.2231  0.3729  0.3051
79837SOL     OW57120  10.285   2.241   1.647  0.2027  0.1123 -0.1546
79837SOL    HW157121  10.353   2.192   1.694 -0.6793  0.4722  1.5896
79837SOL    HW257122  10.303   2.224   1.555  0.7752 -2.3719  0.3288
79838SOL     OW57123  10.673  11.587   9.800  0.2402 -0.0878  0.8432
79838SOL    HW157124  10.673  11.495   9.825  0.4033 -0.1297  0.6857
79838SOL    HW257125  10.749  11.624   9.845  0.2515 -0.0587  0.7987
79839SOL     OW57126   4.611   5.050   3.614  0.9245  0.3316  0.0326
79839SOL    HW157127   4.652   4.985   3.557 -1.6122 -2.1123  0.7721
79839SOL    HW257128   4.523   5.017   3.630 -0.7090  4.1702  0.2507
79840SOL     OW57129   8.069   5.638   3.694 -0.0745 -0.5969  0.1568
79840SOL    HW157130   8.000   5.621   3.630  1.2290 -1.8530 -0.9917
79840SOL    HW257131   8.145   5.662   3.641  1.1813 -2.1448  1.1694
79841SOL     OW57132  13.557   9.272  10.719  0.0370 -0.0035  0.0610
79841SOL    HW157133  13.578   9.321  10.639 -1.2764  0.7973  0.1740
79841SOL    HW257134  13.594   9.185  10.704  2.2860  0.9135 -0.2336
79842SOL     OW57135  13.386   0.274  11.315 -0.4303  0.8579  0.1679
79842SOL    HW157136  13.455   0.328  11.275  0.7018  1.1705  2.3915
79842SOL    HW257137  13.388   0.192  11.265  1.7200  0.7871  0.2553
79843SOL     OW57138  11.379   7.416   6.010  0.7142  0.6825  0.1221
79843SOL    HW157139  11.308   7.397   6.070 -0.7930  1.9646 -1.1446
79843SOL    HW257140  11.337   7.464   5.938  2.8822  1.6681 -0.5805
79844SOL     OW57141  10.232   9.435   8.504  0.0300  0.2061 -0.3961
79844SOL    HW157142  10.199   9.460   8.591  0.4868 -1.4384  0.2737
79844SOL    HW257143  10.250   9.342   8.510  1.7640  0.3990 -1.7318
79845SOL     OW57144   6.165  10.399  12.143 -0.1993  0.1065 -0.3228
79845SOL    HW157145   6.196  10.333  12.206  2.8354  2.9716  1.4944
79845SOL    HW257146   6.092  10.442  12.188  0.5334  0.6889  0.3328
79846SOL     OW57147   1.834   4.620   2.859 -0.1795 -0.0565  0.2378
79846SOL    HW157148   1.901   4.586   2.800 -1.7643 -0.6338 -1.2975
79846SOL    HW257149   1.826   4.712   2.834  0.0343  0.0230  0.4491
79847SOL     OW57150   3.777  11.211  11.709 -0.1773 -0.6359 -0.0149
79847SOL    HW157151   3.802  11.219  11.801  0.6197 -0.3932 -0.2461
79847SOL    HW257152   3.792  11.298  11.673 -1.8901 -0.3314 -0.0490
79848SOL     OW57153   8.951   3.962   5.461  0.0777 -0.1606 -0.0734
79848SOL    HW157154   8.926   4.042   5.508  1.0314  1.1093 -1.6128
79848SOL    HW257155   8.868   3.916   5.446 -0.5674  0.8273  0.3460
79849SOL     OW57156   4.063  12.953   9.631  0.4432  0.5786 -0.0568
79849SOL    HW157157   4.117  12.997   9.697 -0.4865 -0.6548  1.5926
79849SOL    HW257158   3.990  13.013   9.617 -0.6302 -0.2036  1.9068
79850SOL     OW57159   1.451  11.802  12.560  0.5437 -0.0328 -0.4826
79850SOL    HW157160   1.478  11.893  12.547  1.0045 -0.3554 -1.9819
79850SOL    HW257161   1.383  11.807  12.627 -0.2784  1.5560 -1.3775
79851SOL     OW57162   0.194  11.897   4.869 -0.2961  0.3306 -0.4071
79851SOL    HW157163   0.212  11.914   4.961 -1.6626  1.5512 -0.3291
79851SOL    HW257164   0.280  11.903   4.826  0.1214  1.4679  0.5391
79852SOL     OW57165  13.882   2.407  12.342 -0.5501 -0.2309 -0.1174
79852SOL    HW157166  13.867   2.401  12.248 -0.1645 -0.6157 -0.1585
79852SOL    HW257167  13.820   2.346  12.381  1.0769 -2.1004 -0.3074
79853SOL     OW57168   1.210  10.792   5.454  0.9534 -0.2905  0.6098
79853SOL    HW157169   1.132  10.845   5.467  2.4640  2.0972  0.5939
79853SOL    HW257170   1.224  10.793   5.359 -0.4325 -3.0409  0.2836
79854SOL     OW57171   1.877   8.567   1.726 -0.2932  0.3450  0.1637
79854SOL    HW157172   1.808   8.500   1.726  0.1556 -0.1286 -0.4543
79854SOL    HW257173   1.838   8.640   1.678 -0.8504  0.6144  0.9938
79855SOL     OW57174  12.816   3.769   0.733 -0.3752 -0.0363  0.0379
79855SOL    HW157175  12.862   3.757   0.650  1.7510 -1.7576  1.3544
79855SOL    HW257176  12.758   3.693   0.740 -0.6663  0.1860  0.0936
79856SOL     OW57177   6.499   8.510  12.938  0.7158 -0.0094  0.1652
79856SOL    HW157178   6.409   8.506  12.970  0.9184  0.5526  0.8308
79856SOL    HW257179   6.491   8.504  12.843 -0.0692  0.5990  0.1813
79857SOL     OW57180   6.223   3.662  10.669 -0.0662 -0.1105 -0.2923
79857SOL    HW157181   6.272   3.713  10.604 -1.1837 -1.0392 -1.9260
79857SOL    HW257182   6.147   3.717  10.690 -0.1523 -0.1730 -0.4364
79858SOL     OW57183  13.883  13.907   0.580  0.2787 -0.0846 -0.1347
79858SOL    HW157184  13.857  13.983   0.631  1.2632  2.3797 -3.0295
79858SOL    HW257185  13.961  13.874   0.624 -0.9053 -0.3556  1.9074
79859SOL     OW57186  11.515   0.560  11.662 -0.0294  0.3646 -0.0299
79859SOL    HW157187  11.420   0.567  11.671  0.0288 -0.8318  2.9058
79859SOL    HW257188  11.530   0.468  11.639  0.4254  0.4016  0.1050
79860SOL     OW57189   5.158   3.155   3.277  0.0977  0.4938 -0.4917
79860SOL    HW157190   5.113   3.113   3.350  0.6227  0.2332 -0.3181
79860SOL    HW257191   5.241   3.109   3.270  0.4981  1.2277 -0.5755
79861SOL     OW57192   4.917   1.018  13.082  0.1456 -0.3837  0.3813
79861SOL    HW157193   4.995   0.989  13.035  0.2798 -1.9458  1.4697
79861SOL    HW257194   4.947   1.091  13.136  0.9459 -1.1277  0.9739
79862SOL     OW57195   4.961   4.715   5.508  0.3368 -0.2342  0.1089
79862SOL    HW157196   4.930   4.805   5.505  0.7996 -0.1000 -1.1476
79862SOL    HW257197   5.052   4.719   5.477  0.4497 -1.1002  0.2854
79863SOL     OW57198   4.996  12.164   2.473 -0.1431 -0.1195 -0.2173
79863SOL    HW157199   4.991  12.206   2.387 -1.8642  0.3957  0.1024
79863SOL    HW257200   5.004  12.071   2.453  0.4511  0.0777 -0.9324
79864SOL     OW57201  13.214   7.904   8.434  0.0839  0.5335 -0.0434
79864SOL    HW157202  13.209   7.985   8.485 -2.6578  0.4307  0.0266
79864SOL    HW257203  13.243   7.838   8.497 -1.0580  0.8418  0.8407
79865SOL     OW57204   9.097   6.229   0.198 -0.0378 -0.6097 -0.7120
79865SOL    HW157205   9.069   6.140   0.222  0.6154 -0.4577  0.7050
79865SOL    HW257206   9.028   6.286   0.232  1.5009 -0.2887  2.1937
79866SOL     OW57207   3.145  10.968   8.473 -0.2132 -0.0203  0.3181
79866SOL    HW157208   3.141  10.937   8.563  0.3491  1.4537  0.8736
79866SOL    HW257209   3.105  11.055   8.475  1.2007  0.6918 -0.5212
79867SOL     OW57210   0.345   0.269  10.762 -0.2368  0.2490 -0.0583
79867SOL    HW157211   0.357   0.363  10.750  2.3709 -0.0210 -0.0753
79867SOL    HW257212   0.396   0.229  10.691 -1.4068 -1.1876 -0.1304
79868SOL     OW57213   9.088   1.332   3.186  0.0068  0.2131 -0.3358
79868SOL    HW157214   9.049   1.268   3.245 -1.5436  1.2626 -0.1765
79868SOL    HW257215   9.175   1.296   3.166 -0.4628 -1.4655  0.4635
79869SOL     OW57216   3.271   2.833   6.039  0.1093 -0.0720 -0.1216
79869SOL    HW157217   3.232   2.826   6.126  0.2226  1.4585  0.0846
79869SOL    HW257218   3.316   2.917   6.040  1.0300 -0.5283 -1.3118
79870SOL     OW57219   8.192  12.266  13.282  0.3298 -0.0695  0.3439
79870SOL    HW157220   8.205  12.361  13.287 -1.6158  0.3385 -1.1878
79870SOL    HW257221   8.223  12.242  13.195 -1.0035 -0.4675 -0.0522
79871SOL     OW57222   0.103   3.940   9.529 -0.0987 -0.2316 -0.0441
79871SOL    HW157223   0.108   3.883   9.605 -1.3906 -0.5238 -0.1500
79871SOL    HW257224   0.099   3.880   9.454  0.8955  0.0466 -0.3299
79872SOL     OW57225   9.119   6.613   1.246 -0.2506  0.0992  0.1607
79872SOL    HW157226   9.091   6.565   1.168  2.2506 -0.3944 -0.5311
79872SOL    HW257227   9.183   6.556   1.287  0.7249  1.6400  0.8877
79873SOL     OW57228   5.392   8.342   2.358  0.4711  0.0754 -0.0272
79873SOL    HW157229   5.443   8.359   2.437  1.8681  0.9389 -1.0732
79873SOL    HW257230   5.443   8.278   2.309 -0.4811 -0.6078 -0.1717
79874SOL     OW57231   5.082   2.655  10.097  0.1272  0.6355 -0.2873
79874SOL    HW157232   5.175   2.677  10.097  0.6812 -1.5256 -0.1002
79874SOL    HW257233   5.050   2.686  10.013  1.5896 -0.7096 -1.3970
79875SOL     OW57234   8.507   5.777   2.323  0.0797  0.3346 -0.7019
79875SOL    HW157235   8.433   5.721   2.300 -0.1212 -0.0144  0.7048
79875SOL    HW257236   8.584   5.724   2.305 -0.0511  0.2437 -0.9998
79876SOL     OW57237   1.258   5.841  11.379  0.3238 -0.3645  0.2697
79876SOL    HW157238   1.174   5.802  11.403  1.1702 -3.0832 -0.7596
79876SOL    HW257239   1.309   5.841  11.460 -0.6757  1.5136  0.9533
79877SOL     OW57240   8.146   2.975  13.183  0.3855  0.0214 -0.8025
79877SOL    HW157241   8.163   2.881  13.185 -0.1255 -0.0837 -1.2054
79877SOL    HW257242   8.108   2.995  13.269 -1.7030 -0.5787 -1.5269
79878SOL     OW57243   1.852  12.244   8.694 -0.2301  0.2021  0.0471
79878SOL    HW157244   1.944  12.270   8.705 -0.6927  1.7976  0.4672
79878SOL    HW257245   1.813  12.313   8.641 -0.7467 -1.5364 -1.9734
79879SOL     OW57246   2.007   2.396   7.643  0.2537  0.4631 -0.0040
79879SOL    HW157247   1.927   2.345   7.655 -0.2514  1.2553  0.0787
79879SOL    HW257248   2.048   2.396   7.729  0.6519 -0.4275 -0.1793
79880SOL     OW57249   2.845   1.899  12.724  0.5381 -0.8558 -0.0990
79880SOL    HW157250   2.875   1.985  12.695 -4.6479  0.8572 -1.2563
79880SOL    HW257251   2.850   1.904  12.820 -0.0296  0.8936 -0.1322
79881SOL     OW57252  13.811   7.081   3.081 -0.6078 -0.5607  0.4203
79881SOL    HW157253  13.783   7.043   3.164 -0.3291 -0.8165  0.3976
79881SOL    HW257254  13.744   7.055   3.018 -0.9824 -0.1065  0.6275
79882SOL     OW57255   5.520   6.654   5.014 -0.2830  0.1527 -0.2176
79882SOL    HW157256   5.592   6.654   5.077  0.9193 -0.1050 -1.5446
79882SOL    HW257257   5.480   6.740   5.025 -1.3581 -0.5699  2.2271
79883SOL     OW57258   9.055   3.193   7.039  0.7998  0.1072  0.2363
79883SOL    HW157259   9.039   3.255   7.111 -1.8478  1.3498 -1.2893
79883SOL    HW257260   9.144   3.214   7.010  0.5271  2.2288  0.7407
79884SOL     OW57261  11.897  13.584  11.715  0.6805  0.2893  0.1855
79884SOL    HW157262  11.949  13.505  11.700 -0.9727 -0.8834  0.2910
79884SOL    HW257263  11.897  13.628  11.630  2.0303  0.4609  0.2537
79885SOL     OW57264   5.381   5.262  11.387 -0.0532 -0.1037 -0.2734
79885SOL    HW157265   5.331   5.332  11.344  1.3873  1.3104  0.2291
79885SOL    HW257266   5.342   5.181  11.356 -0.2297  0.8795 -2.8365
79886SOL     OW57267   9.677  10.382   6.403  0.0279  0.8603 -0.0345
79886SOL    HW157268   9.658  10.317   6.336  0.2599  1.4119 -0.6363
79886SOL    HW257269   9.632  10.349   6.481  2.0426 -1.2614  0.3353
79887SOL     OW57270  11.158   6.320   0.142  0.9109 -0.3680  0.4406
79887SOL    HW157271  11.231   6.375   0.170  0.6405  0.0732  0.2828
79887SOL    HW257272  11.138   6.349   0.053 -1.1962  1.3736  1.4016
79888SOL     OW57273  13.604   0.243   2.789 -0.9561  0.2241 -0.3650
79888SOL    HW157274  13.548   0.225   2.865 -0.0939  1.5870  0.6393
79888SOL    HW257275  13.667   0.308   2.820 -0.0628  0.2173 -2.0334
79889SOL     OW57276   2.928  10.553  13.301 -0.4352 -0.4942  0.1907
79889SOL    HW157277   2.964  10.582  13.217 -0.3211  0.6347  0.6195
79889SOL    HW257278   2.981  10.476  13.324  0.8985  0.3924  0.1996
79890SOL     OW57279   9.415   3.350   0.811  0.2387 -0.4867 -0.0997
79890SOL    HW157280   9.458   3.331   0.894  0.7639 -0.6007 -0.3965
79890SOL    HW257281   9.348   3.282   0.802 -0.9902  0.5092  1.0414
79891SOL     OW57282  10.469   0.588   0.008  0.0600 -0.1184 -0.2601
79891SOL    HW157283  10.382   0.575   0.046 -0.5357  2.1934 -0.6842
79891SOL    HW257284  10.521   0.515   0.041 -1.4314 -0.3019  1.8997
79892SOL     OW57285  10.251   6.914   7.429  0.1426  0.0254  0.9380
79892SOL    HW157286  10.178   6.925   7.369 -0.9724  0.1538  2.2601
79892SOL    HW257287  10.248   6.821   7.454  0.0864  0.1536  1.4159
79893SOL     OW57288   5.019   9.925   6.119 -0.0100 -0.2993  0.2693
79893SOL    HW157289   5.066  10.003   6.090 -0.6301  1.6107  3.7578
79893SOL    HW257290   4.926   9.948   6.107 -0.1943 -1.8083 -1.4976
79894SOL     OW57291  13.385   9.584  11.692 -0.1786  0.3698 -0.4782
79894SOL    HW157292  13.322   9.523  11.655 -0.9220  0.8516 -0.0268
79894SOL    HW257293  13.337   9.667  11.700 -0.6068 -0.0381  2.9400
79895SOL     OW57294   3.550  10.079   4.865  0.3574  0.3532  0.1460
79895SOL    HW157295   3.516  10.114   4.947  0.3880  1.4304 -0.2818
79895SOL    HW257296   3.533  10.148   4.800 -0.9461 -1.0247 -1.0639
79896SOL     OW57297   6.647  12.101   1.470 -0.1664 -0.4445 -0.9169
79896SOL    HW157298   6.668  12.194   1.463 -0.0462 -0.4959 -1.2589
79896SOL    HW257299   6.699  12.059   1.401  1.9408 -1.1422  0.9669
79897SOL     OW57300   0.753   1.880   4.067 -0.5913  0.5567  0.5428
79897SOL    HW157301   0.800   1.963   4.072  2.7168 -1.0821 -0.2878
79897SOL    HW257302   0.806   1.819   4.118 -2.9381 -1.1011  1.1866
79898SOL     OW57303   3.175  13.318   2.508  0.0015 -0.0623  0.4455
79898SOL    HW157304   3.256  13.367   2.504  0.8852 -1.4634  0.4882
79898SOL    HW257305   3.163  13.296   2.600 -0.8374  0.7630  0.5511
79899SOL     OW57306   5.358   8.400  12.710 -0.5020 -0.5495  0.0433
79899SOL    HW157307   5.427   8.360  12.656  1.5037 -1.4256  2.9797
79899SOL    HW257308   5.386   8.491  12.720 -1.4919 -0.0791 -1.2465
79900SOL     OW57309  11.599  11.546   8.850 -0.3219  0.0851  0.4240
79900SOL    HW157310  11.611  11.634   8.815  0.3954  0.0376  0.5206
79900SOL    HW257311  11.505  11.535   8.858 -0.4632  0.4643 -0.5539
79901SOL     OW57312   7.381   1.264   0.307 -0.7882  0.4720  0.5124
79901SOL    HW157313   7.291   1.279   0.335 -0.8029  2.5350 -0.4963
79901SOL    HW257314   7.383   1.291   0.216  0.0917 -2.8552 -0.6157
79902SOL     OW57315   7.067   4.452   3.456 -0.1784 -0.2712  0.4568
79902SOL    HW157316   7.020   4.525   3.416 -1.5763 -0.8263  1.0529
79902SOL    HW257317   7.080   4.390   3.384 -4.7431 -2.3387  1.1133
79903SOL     OW57318   0.678  10.679  11.124  0.2006  0.5720  0.2804
79903SOL    HW157319   0.653  10.669  11.216  1.6370  1.5396  0.8041
79903SOL    HW257320   0.640  10.602  11.081 -0.6856  0.2147  1.6268
79904SOL     OW57321   2.362   0.064   3.341  0.0756 -0.6171  0.3121
79904SOL    HW157322   2.273   0.099   3.336  0.3218 -0.1677 -1.1208
79904SOL    HW257323   2.349  -0.031   3.342 -0.4003 -0.5686 -0.4868
79905SOL     OW57324   3.165   9.365   6.506 -0.0563 -0.2185  0.3678
79905SOL    HW157325   3.161   9.443   6.451 -1.8911 -0.1892  0.4680
79905SOL    HW257326   3.254   9.364   6.541  0.8908  0.2362 -1.8875
79906SOL     OW57327   7.659  12.712   6.731  0.3938  0.1786  0.6378
79906SOL    HW157328   7.739  12.666   6.756  0.2710 -0.5848 -0.2778
79906SOL    HW257329   7.681  12.752   6.647 -0.1267  0.0938  0.4590
79907SOL     OW57330  13.717   1.642   6.779  0.4200  0.1911  0.6858
79907SOL    HW157331  13.650   1.672   6.840 -0.0367  0.6756 -0.0412
79907SOL    HW257332  13.760   1.569   6.825 -1.4497 -0.9955  0.6862
79908SOL     OW57333  12.370  12.526   0.389 -0.0352  0.0692  0.0091
79908SOL    HW157334  12.433  12.597   0.400 -1.3246  1.3534 -0.5749
79908SOL    HW257335  12.417  12.461   0.336  0.9062  0.8457 -0.1494
79909SOL     OW57336  11.194   5.068   9.874  0.0247  0.0196  0.0071
79909SOL    HW157337  11.201   5.125   9.950 -0.3148  1.0615 -0.7351
79909SOL    HW257338  11.205   4.980   9.910  0.2889  0.5184  1.1991
79910SOL     OW57339  12.208  13.402  11.755  0.1922  0.1355  0.7471
79910SOL    HW157340  12.247  13.463  11.691  0.9117  1.4503  2.3703
79910SOL    HW257341  12.164  13.337  11.701 -0.4906  2.0044 -1.1027
79911SOL     OW57342   2.009   6.849  10.967  0.0549  0.5997  0.4272
79911SOL    HW157343   2.086   6.898  10.937 -0.8013  1.8554  0.1874
79911SOL    HW257344   1.996   6.781  10.901 -0.1082  1.5327 -0.5268
79912SOL     OW57345   2.531   8.715   8.569  0.0437 -0.4966 -0.2432
79912SOL    HW157346   2.472   8.777   8.612  1.0180  0.8311 -0.7351
79912SOL    HW257347   2.618   8.740   8.601  0.6296 -0.5124 -1.7366
79913SOL     OW57348   5.511   1.020  13.236  0.0592  0.1103  0.2968
79913SOL    HW157349   5.507   0.959  13.309 -0.0312 -0.1953  0.0385
79913SOL    HW257350   5.420   1.038  13.214  0.0625 -1.0596 -0.7802
79914SOL     OW57351   5.791  13.511   0.899 -0.3360  0.0304  0.3270
79914SOL    HW157352   5.702  13.545   0.898  0.1487  1.4958 -2.5727
79914SOL    HW257353   5.837  13.562   0.832  2.5919 -0.9528  1.4307
79915SOL     OW57354  12.897  10.012   4.342 -0.4097 -0.5961  0.1592
79915SOL    HW157355  12.943  10.081   4.294  1.2188 -1.7285 -0.0169
79915SOL    HW257356  12.826   9.985   4.285  0.8872 -1.2339 -1.2350
79916SOL     OW57357   8.839   0.610   4.105 -0.3747  0.4947 -0.5898
79916SOL    HW157358   8.915   0.563   4.139 -0.3553 -0.5005 -1.9051
79916SOL    HW257359   8.764   0.569   4.148 -0.3123 -0.3316 -1.2312
79917SOL     OW57360   9.895  12.981   6.549 -0.3965  0.4940 -0.0078
79917SOL    HW157361   9.871  13.013   6.462 -0.3666 -0.7392 -0.4907
79917SOL    HW257362   9.963  13.042   6.579 -1.4186  1.7910 -0.2035
79918SOL     OW57363   2.218   7.308   3.872  0.1672  0.2688 -0.5521
79918SOL    HW157364   2.191   7.219   3.897  0.6819  0.2527 -0.0479
79918SOL    HW257365   2.289   7.294   3.809 -0.4571  0.3193 -1.2810
79919SOL     OW57366  13.543   4.171  11.722 -0.2674 -0.0501 -0.3189
79919SOL    HW157367  13.553   4.209  11.810  1.3091 -2.7118  0.7771
79919SOL    HW257368  13.614   4.210  11.671  1.5738 -1.5938  0.8975
79920SOL     OW57369   9.839   1.019  11.752 -0.0298 -0.8780  0.0749
79920SOL    HW157370   9.820   1.113  11.749 -0.6079 -0.9563  0.9257
79920SOL    HW257371   9.914   1.012  11.810 -1.7284 -1.1510  2.3930
79921SOL     OW57372   2.125   6.141   1.108 -0.2129 -1.0072  0.2105
79921SOL    HW157373   2.054   6.107   1.054 -1.8833  0.7943  1.1379
79921SOL    HW257374   2.081   6.200   1.171  2.2160  1.2901 -0.0689
79922SOL     OW57375   8.936  13.361   7.715  0.1342 -0.8548 -0.1927
79922SOL    HW157376   8.876  13.358   7.789  0.8451 -1.1267  0.3960
79922SOL    HW257377   8.885  13.395   7.643 -0.0533  1.4126  0.9343
79923SOL     OW57378   2.541   7.658  11.733 -0.0586  0.0191 -0.1430
79923SOL    HW157379   2.491   7.584  11.698 -1.1415  0.6600  0.0131
79923SOL    HW257380   2.589   7.621  11.807 -0.7703 -0.4897  0.0781
79924SOL     OW57381  10.341   1.700  11.643 -0.2682 -0.3862 -0.2559
79924SOL    HW157382  10.298   1.626  11.600 -1.5451 -0.4150  0.9803
79924SOL    HW257383  10.301   1.778  11.605  0.0006 -0.3586 -0.4881
79925SOL     OW57384   8.892   1.927  11.582  0.2606  0.5636 -0.0524
79925SOL    HW157385   8.937   2.008  11.605  1.4182 -0.2235  0.5808
79925SOL    HW257386   8.937   1.896  11.503  1.1422 -0.4503  0.8261
79926SOL     OW57387   2.474   7.613   8.714 -0.0009 -0.0331  0.0574
79926SOL    HW157388   2.556   7.649   8.680  0.2239 -0.1005  0.5205
79926SOL    HW257389   2.408   7.678   8.691  0.1569 -0.0491 -0.4486
79927SOL     OW57390   5.276   0.451   7.607 -0.3245 -0.3669 -0.4516
79927SOL    HW157391   5.275   0.506   7.529  0.0368 -0.2579 -0.3833
79927SOL    HW257392   5.295   0.512   7.679  0.7790 -0.6795 -0.4655
79928SOL     OW57393   2.431   0.800   7.864  0.8126 -0.3054 -0.0104
79928SOL    HW157394   2.447   0.710   7.836 -1.8847 -0.4870 -1.3223
79928SOL    HW257395   2.488   0.853   7.809  0.6226 -1.0823 -0.9758
79929SOL     OW57396  10.033  10.917  13.897  0.0323 -0.0298 -0.1012
79929SOL    HW157397   9.995  10.857  13.833  0.4335 -0.3878 -0.0107
79929SOL    HW257398   9.959  10.941  13.954  0.0665 -1.2752  0.5097
79930SOL     OW57399   3.552   0.573   4.144 -0.4844 -0.5817 -0.7334
79930SOL    HW157400   3.539   0.514   4.219 -0.6942 -0.3094 -0.5538
79930SOL    HW257401   3.465   0.583   4.107 -0.6191  0.3709 -0.1892
79931SOL     OW57402   8.160   1.566   0.733 -0.4740 -0.1690  0.4694
79931SOL    HW157403   8.220   1.611   0.792 -0.7366 -1.0271  1.4259
79931SOL    HW257404   8.212   1.494   0.695  0.2650  1.4857 -1.8823
79932SOL     OW57405   6.261   1.638  11.445 -0.6119 -0.1250  0.4980
79932SOL    HW157406   6.254   1.717  11.393  0.0033  0.1665  0.8518
79932SOL    HW257407   6.238   1.665  11.534 -1.0083 -0.4795  0.5118
79933SOL     OW57408  12.629   4.040  12.115  0.2468  0.3193 -0.4028
79933SOL    HW157409  12.650   3.997  12.032  0.0370  1.0743 -0.8586
79933SOL    HW257410  12.533   4.043  12.117  0.1401 -2.0928  1.1376
79934SOL     OW57411   9.633   5.203   2.280  0.1025 -0.0175  0.2393
79934SOL    HW157412   9.583   5.214   2.199  0.2015  0.5896  0.2508
79934SOL    HW257413   9.724   5.207   2.253  0.1373  0.3377  0.3884
79935SOL     OW57414   4.217   8.181   4.040  0.1885 -0.5523 -0.0383
79935SOL    HW157415   4.191   8.272   4.055 -1.2067 -1.1626  1.5242
79935SOL    HW257416   4.211   8.139   4.126 -0.6301 -2.4689 -0.9652
79936SOL     OW57417   0.968   8.017   1.877 -0.0262 -0.4875  0.3469
79936SOL    HW157418   0.939   7.956   1.809 -1.8661  0.3390  0.3406
79936SOL    HW257419   0.906   8.090   1.872  0.4242  0.0649  2.2254
79937SOL     OW57420   6.418  13.837   6.020  0.3529 -1.0841 -0.5031
79937SOL    HW157421   6.328  13.841   6.053  0.1891 -0.6493 -0.9775
79937SOL    HW257422   6.430  13.746   5.993  1.1164 -1.9454  2.3934
79938SOL     OW57423   1.973   1.958  10.495 -0.6112  0.3629  0.1716
79938SOL    HW157424   1.919   1.879  10.496  0.8812 -0.7539 -1.3622
79938SOL    HW257425   1.985   1.981  10.587 -1.4515 -0.9291  0.6282
79939SOL     OW57426  13.351   9.146  13.603  0.9397  0.0320  0.3957
79939SOL    HW157427  13.352   9.226  13.551 -0.1974 -0.2242 -0.0647
79939SOL    HW257428  13.325   9.078  13.540 -0.7132 -0.2423  1.3167
79940SOL     OW57429   5.621  10.404   2.679  0.2418 -0.6486  0.2644
79940SOL    HW157430   5.543  10.380   2.729 -0.2723 -0.8982 -0.6331
79940SOL    HW257431   5.688  10.420   2.745 -1.1528  1.8630  1.1912
79941SOL     OW57432   1.808   2.157   1.387  0.1609 -0.8596  0.4518
79941SOL    HW157433   1.818   2.252   1.397 -0.1578 -0.7708 -0.0501
79941SOL    HW257434   1.859   2.120   1.459  2.2982 -0.3929 -0.7686
79942SOL     OW57435  11.410   1.643   0.192  0.5874 -0.0518 -0.2328
79942SOL    HW157436  11.315   1.650   0.202  0.7660  0.7502  1.0439
79942SOL    HW257437  11.439   1.732   0.171  0.8314 -0.7067 -3.1232
79943SOL     OW57438   1.888   0.185  10.500  0.0144  0.2642 -0.0093
79943SOL    HW157439   1.951   0.224  10.560 -0.4208 -0.7150  1.1219
79943SOL    HW257440   1.915   0.094  10.493 -0.4612  0.1659 -0.6222
79944SOL     OW57441  10.120   1.202   9.382  0.0283 -0.1039 -0.1963
79944SOL    HW157442  10.102   1.108   9.381  0.4644 -0.1843 -0.6975
79944SOL    HW257443  10.136   1.224   9.290  1.3610  0.1855  0.0922
79945SOL     OW57444   8.906   3.850   2.125  0.6264  0.2215  0.7043
79945SOL    HW157445   8.870   3.769   2.163  2.1603 -0.6195  0.4402
79945SOL    HW257446   8.975   3.820   2.067  1.3603  1.7616  0.7415
79946SOL     OW57447   0.677   0.791  13.864 -0.1353  0.0527 -0.0931
79946SOL    HW157448   0.662   0.742  13.945  0.2454  0.6104  0.3209
79946SOL    HW257449   0.726   0.869  13.891 -0.1145  0.3115 -0.8409
79947SOL     OW57450  12.293   8.054  11.832  0.4915  0.6966 -0.5298
79947SOL    HW157451  12.307   8.149  11.831  1.4367  0.5712 -0.0643
79947SOL    HW257452  12.299   8.030  11.924  0.1354  0.1884 -0.6312
79948SOL     OW57453   7.909  13.207  11.703 -0.0813 -0.4883 -0.4552
79948SOL    HW157454   7.955  13.236  11.624  0.7593 -0.8562 -0.1161
79948SOL    HW257455   7.829  13.166  11.670 -0.6156  0.9277 -1.0077
79949SOL     OW57456  12.109   0.269  12.654 -0.2342  0.1433  0.0133
79949SOL    HW157457  12.052   0.302  12.724  1.1016 -0.4938  1.4647
79949SOL    HW257458  12.171   0.212  12.699 -0.3048 -1.5870 -1.9219
79950SOL     OW57459   1.583   7.058   6.538 -0.6699 -0.0500  0.0950
79950SOL    HW157460   1.587   7.139   6.590  0.4663 -0.0513  0.0463
79950SOL    HW257461   1.576   6.989   6.603 -0.1540  0.0023  0.2080
79951SOL     OW57462   7.982  12.877   3.556  0.0235 -0.5663  0.1830
79951SOL    HW157463   8.052  12.942   3.555  0.5767 -1.1270 -1.8935
79951SOL    HW257464   7.902  12.928   3.545  0.3811 -0.1576 -0.5998
79952SOL     OW57465   3.101   8.461   8.035 -0.4814  0.9781 -0.1539
79952SOL    HW157466   3.100   8.554   8.014 -1.8651  1.0949  0.3527
79952SOL    HW257467   3.194   8.439   8.039 -0.1389  1.9381 -1.9333
79953SOL     OW57468   0.317   7.079   7.132 -0.1682 -0.2270  0.1055
79953SOL    HW157469   0.273   7.139   7.192  0.1773  0.4768 -0.3242
79953SOL    HW257470   0.246   7.040   7.081 -0.3286  0.6785 -0.3829
79954SOL     OW57471   1.092   0.841  12.389  0.6417  0.0874 -0.2186
79954SOL    HW157472   1.187   0.836  12.390  0.5770 -4.0034  0.5700
79954SOL    HW257473   1.069   0.885  12.471  1.7785  0.5215 -0.1150
79955SOL     OW57474   2.189   7.133   1.726 -0.4149  0.6022  0.2241
79955SOL    HW157475   2.224   7.045   1.740  1.4417  1.0397 -1.1881
79955SOL    HW257476   2.217   7.182   1.803 -0.3750  0.2603  0.4312
79956SOL     OW57477   0.183   9.000   6.811  0.1047  0.6219  0.1426
79956SOL    HW157478   0.262   8.946   6.803  0.4013  1.1408 -0.6902
79956SOL    HW257479   0.115   8.940   6.841  0.9515  0.2921  1.5008
79957SOL     OW57480  12.981  13.962   7.224 -0.0956  0.1591  0.1847
79957SOL    HW157481  13.068  13.922   7.223 -0.7145 -1.2523 -0.6205
79957SOL    HW257482  12.936  13.919   7.296 -0.2049  0.7450  0.4726
79958SOL     OW57483   3.348   1.910   3.476  0.5848  0.3043 -0.1415
79958SOL    HW157484   3.399   1.990   3.482  1.8343 -0.4574 -0.2386
79958SOL    HW257485   3.404   1.849   3.426 -0.2210 -0.6969  0.1335
79959SOL     OW57486   9.937   5.701   4.458 -0.1056  0.6201  0.0705
79959SOL    HW157487  10.013   5.675   4.405  0.2273  0.5680  0.5718
79959SOL    HW257488   9.968   5.699   4.548 -0.7259  0.5222  0.2904
79960SOL     OW57489   6.595  10.978   7.148 -0.0536 -0.0196 -0.1684
79960SOL    HW157490   6.574  10.947   7.060  0.3295 -2.1989  0.4636
79960SOL    HW257491   6.690  10.976   7.153 -0.1048 -1.0772  0.6704
79961SOL     OW57492   8.537   6.876   1.811  0.5368  0.0038  0.1021
79961SOL    HW157493   8.615   6.833   1.775  0.0993 -0.9765  0.2805
79961SOL    HW257494   8.566   6.964   1.835  1.2715  0.0705 -0.9815
79962SOL     OW57495  10.298   3.579   4.504  0.4155  0.3106  0.2829
79962SOL    HW157496  10.324   3.564   4.594 -1.4466  0.1116  0.8288
79962SOL    HW257497  10.246   3.659   4.507  0.4834  0.3999 -0.6409
79963SOL     OW57498   7.753  12.234  12.976  0.1766 -0.7590 -0.0290
79963SOL    HW157499   7.756  12.141  12.997  0.6794 -0.7697 -0.1347
79963SOL    HW257500   7.763  12.237  12.880 -2.3014 -0.7315 -0.3588
79964SOL     OW57501  12.773  12.360   9.883  0.3480 -0.5197 -0.3186
79964SOL    HW157502  12.760  12.265   9.888  0.2623 -0.4788  0.3296
79964SOL    HW257503  12.805  12.384   9.970 -1.2298  0.2948  0.0616
79965SOL     OW57504   3.568   0.238  13.330 -0.1327  0.2714  0.3741
79965SOL    HW157505   3.556   0.332  13.339  0.6341  0.5679 -1.4136
79965SOL    HW257506   3.662   0.224  13.337  0.1377  0.0817 -2.4877
79966SOL     OW57507   0.526   6.348   6.214 -0.4824 -0.5945  0.6753
79966SOL    HW157508   0.536   6.255   6.236  1.6540 -0.4088  0.7294
79966SOL    HW257509   0.553   6.354   6.122 -0.3821  0.0084  0.7392
79967SOL     OW57510   1.637   3.400  13.420  0.0249 -0.2109  0.2133
79967SOL    HW157511   1.699   3.415  13.349 -0.8285 -1.1812 -0.7830
79967SOL    HW257512   1.551   3.417  13.381 -0.3449  1.9579  1.7892
79968SOL     OW57513   3.082  13.593   3.126  0.2278  0.2848 -0.6369
79968SOL    HW157514   3.106  13.640   3.047  3.0470 -0.3026 -0.2312
79968SOL    HW257515   3.145  13.521   3.132 -0.4290 -0.1985  1.6868
79969SOL     OW57516   5.672   5.740  12.896 -0.2566 -0.0250  0.2212
79969SOL    HW157517   5.667   5.692  12.979  1.5197  0.1171  0.4513
79969SOL    HW257518   5.626   5.685  12.833 -2.3000  0.2172  1.4211
79970SOL     OW57519  14.053   3.401   3.979  0.0400 -0.5080  0.9088
79970SOL    HW157520  13.992   3.337   3.942 -0.5799  0.1428  0.7954
79970SOL    HW257521  14.004   3.483   3.982  2.3105  1.4922 -4.1666
79971SOL     OW57522  10.752   0.050   1.354 -0.4386  0.0067 -0.3566
79971SOL    HW157523  10.802  -0.022   1.393 -0.6480 -0.1973 -0.4644
79971SOL    HW257524  10.674   0.008   1.318 -1.7037  0.5766  1.5643
79972SOL     OW57525   5.214   0.288   2.784  0.3084  0.0897 -0.5982
79972SOL    HW157526   5.239   0.346   2.856  0.9918 -0.4412 -0.3939
79972SOL    HW257527   5.169   0.215   2.827 -1.3957  0.8840 -0.9335
79973SOL     OW57528   2.731   3.108  13.289 -0.3301 -0.2725 -0.1839
79973SOL    HW157529   2.651   3.160  13.299 -0.4579 -0.7091  1.4411
79973SOL    HW257530   2.710   3.024  13.329  0.8595 -0.4776  0.0431
79974SOL     OW57531  10.907   2.168   5.486  0.0954  0.4208 -0.2732
79974SOL    HW157532  10.836   2.232   5.482  0.4166  0.7210 -1.3585
79974SOL    HW257533  10.884   2.103   5.420 -0.7188 -1.1379  1.4442
79975SOL     OW57534   6.076   9.462  13.735  0.1380 -0.1871 -0.1538
79975SOL    HW157535   6.057   9.371  13.756  2.0233  0.1445  3.8908
79975SOL    HW257536   6.137   9.457  13.662  1.9504 -2.4128  1.3522
79976SOL     OW57537   5.170  11.652   9.486 -0.2945 -0.3761 -0.0384
79976SOL    HW157538   5.184  11.611   9.401  0.8615 -0.5156  0.2117
79976SOL    HW257539   5.238  11.616   9.543 -1.2364 -0.5178  1.0394
79977SOL     OW57540  11.013   3.494   6.698  0.2881 -0.1588  0.5544
79977SOL    HW157541  10.927   3.481   6.660  0.4622 -0.7443  0.3439
79977SOL    HW257542  10.996   3.521   6.788 -0.1145 -0.2731  0.5143
79978SOL     OW57543   9.552  11.828   3.649  0.4837  0.3045  0.0522
79978SOL    HW157544   9.628  11.836   3.592 -0.7437  0.4048 -1.6465
79978SOL    HW257545   9.484  11.881   3.606 -0.1507  1.4182  2.2699
79979SOL     OW57546   2.821   3.050   7.876  0.2119  0.1635 -0.1375
79979SOL    HW157547   2.831   2.994   7.953 -0.4287  1.6108  1.0584
79979SOL    HW257548   2.748   3.109   7.899  0.3765  0.9964 -1.6271
79980SOL     OW57549  13.592   4.394  13.794  0.0244 -0.4566  0.4925
79980SOL    HW157550  13.593   4.353  13.708  2.0647 -1.9636  1.1559
79980SOL    HW257551  13.661   4.460  13.790 -1.5795  1.2699  0.2203
79981SOL     OW57552   2.694  10.176  12.235  0.2431 -0.2599  0.0067
79981SOL    HW157553   2.656  10.089  12.249 -1.0288  0.4157  0.9728
79981SOL    HW257554   2.622  10.228  12.200  0.7603  0.6136  0.2175
79982SOL     OW57555   4.120   5.695   6.255 -0.4101  0.4982  0.1297
79982SOL    HW157556   4.170   5.717   6.334 -0.7265 -0.6070  0.6637
79982SOL    HW257557   4.126   5.773   6.200  0.5559  0.9685  0.8665
79983SOL     OW57558   0.596   0.542   4.303  0.0954 -0.4118 -0.1853
79983SOL    HW157559   0.544   0.573   4.377  0.1846  1.0548 -0.7044
79983SOL    HW257560   0.680   0.587   4.313  1.2363 -2.5308  0.4926
79984SOL     OW57561   1.762  10.820   7.908 -0.8026 -0.0007 -0.0951
79984SOL    HW157562   1.807  10.756   7.853 -0.9550  0.7093 -1.0928
79984SOL    HW257563   1.784  10.796   7.997 -1.3882 -1.8475 -0.3934
79985SOL     OW57564  10.460  13.227   0.423  0.6258  0.4870 -0.6580
79985SOL    HW157565  10.372  13.208   0.390  0.6673  0.9602 -1.0518
79985SOL    HW257566  10.519  13.185   0.359  0.6852 -0.6284  0.1033
79986SOL     OW57567   2.467   2.728   3.656 -0.1307 -0.1614 -0.9522
79986SOL    HW157568   2.523   2.801   3.628 -0.3882 -0.1299 -1.4056
79986SOL    HW257569   2.519   2.681   3.721 -0.1210  0.6615 -0.3483
79987SOL     OW57570   3.748   2.869   1.434 -0.2734  0.1404 -0.2539
79987SOL    HW157571   3.697   2.825   1.366 -0.6728  0.2545 -0.0351
79987SOL    HW257572   3.833   2.825   1.433 -0.6047 -0.5099 -0.1657
79988SOL     OW57573  11.156   6.643  10.178  0.4226 -0.4240 -0.1644
79988SOL    HW157574  11.188   6.728  10.207  1.8848 -1.9328  3.2735
79988SOL    HW257575  11.061   6.650  10.182  0.5202  0.5425  2.0083
79989SOL     OW57576   6.905  12.866  14.083  0.3040 -0.0921  0.0485
79989SOL    HW157577   6.982  12.920  14.104  0.6339  0.7657 -2.8635
79989SOL    HW257578   6.830  12.920  14.110  0.6782  0.0614  0.8097
79990SOL     OW57579  13.565   8.060  10.006 -0.4592 -0.1633  0.4503
79990SOL    HW157580  13.601   8.141  10.042  1.6676 -0.8731  0.0471
79990SOL    HW257581  13.641   8.002   9.996 -1.6712 -1.6263 -0.8233
79991SOL     OW57582  11.717   4.073   5.364 -0.4641  0.2693 -0.0204
79991SOL    HW157583  11.622   4.074   5.377 -0.2434 -0.2755  1.9488
79991SOL    HW257584  11.728   4.088   5.271 -2.4784  0.5939 -0.2594
79992SOL     OW57585   0.442   0.060   3.955 -0.0970  0.2177  0.1162
79992SOL    HW157586   0.368   0.030   4.008 -0.1777  0.3196  0.0615
79992SOL    HW257587   0.414   0.144   3.920  0.9277  1.4597  2.0353
79993SOL     OW57588   0.028   5.113   5.854 -0.3872  0.3809  0.3169
79993SOL    HW157589  -0.027   5.100   5.931  0.0727  0.6339  0.6895
79993SOL    HW257590   0.028   5.028   5.809 -0.4789  0.1743  0.7093
79994SOL     OW57591   4.711   3.271   5.101 -0.2040 -0.3298  0.0707
79994SOL    HW157592   4.678   3.278   5.190 -0.5218  0.2609 -0.0927
79994SOL    HW257593   4.691   3.355   5.060  0.6999 -0.2782 -0.3045
79995SOL     OW57594   6.207   9.111  11.075  0.6735 -0.1419  0.3782
79995SOL    HW157595   6.168   9.166  11.007 -0.9296 -1.2393  0.3514
79995SOL    HW257596   6.132   9.070  11.118  1.7040 -0.3480  2.0713
79996SOL     OW57597  11.636   9.846   9.600 -0.3987 -0.0739  0.7429
79996SOL    HW157598  11.563   9.826   9.541  0.5692 -0.0653 -0.4811
79996SOL    HW257599  11.609   9.808   9.684 -3.1153  2.3935  1.1633
79997SOL     OW57600   5.202   5.453  10.359  0.2377 -0.1652  0.1507
79997SOL    HW157601   5.234   5.543  10.359  1.1149 -0.4122  2.3621
79997SOL    HW257602   5.117   5.458  10.315  0.6474  1.5650 -0.5301
79998SOL     OW57603   9.195   1.852  12.608 -0.6614  0.5967 -0.5039
79998SOL    HW157604   9.146   1.837  12.690  0.9769 -0.9341  0.2747
79998SOL    HW257605   9.261   1.917  12.631  0.2839 -0.3837 -0.3548
79999SOL     OW57606   5.007   0.079   6.288 -0.1808 -0.0023 -0.0461
79999SOL    HW157607   4.955  -0.000   6.281  0.4006 -0.4106  0.1706
79999SOL    HW257608   5.082   0.063   6.231  0.4149  0.0093  0.7252
80000SOL     OW57609   6.731   9.956  13.744  0.1572 -0.2526  0.2045
80000SOL    HW157610   6.787   9.879  13.728  2.6364  1.2289  1.1606
80000SOL    HW257611   6.666   9.925  13.807 -0.1432 -2.0350 -0.9001
80001SOL     OW57612   5.686  12.582   7.575  1.0120  0.1098 -0.3991
80001SOL    HW157613   5.647  12.523   7.511  1.0417 -0.5357  0.1705
80001SOL    HW257614   5.649  12.554   7.659  0.4751  1.3506 -0.1956
80002SOL     OW57615   5.473   9.983   6.880 -0.1578 -0.1971  0.2721
80002SOL    HW157616   5.501  10.039   6.952  0.0292  0.8485 -0.5847
80002SOL    HW257617   5.390  10.021   6.851  1.0934  1.1215 -1.8312
80003SOL     OW57618   2.353   3.042   3.960  0.3326 -0.8067  0.0589
80003SOL    HW157619   2.409   3.057   3.884 -2.7083  1.4605 -2.0242
80003SOL    HW257620   2.295   2.970   3.934  0.6464 -1.4891  1.1649
80004SOL     OW57621   2.607   9.025   5.388 -0.2199  0.3103  0.2311
80004SOL    HW157622   2.643   9.027   5.477 -0.2561  0.4201  0.2436
80004SOL    HW257623   2.660   9.088   5.339 -0.4040  0.4832  0.2528
80005SOL     OW57624   8.981   0.713  12.820 -0.2620 -0.2090 -0.0272
80005SOL    HW157625   8.951   0.791  12.774  0.7533 -0.3443 -0.9517
80005SOL    HW257626   8.918   0.645  12.796 -1.2120  0.3352  0.8720
80006SOL     OW57627   1.754   6.216   4.565 -0.3199  0.0024 -0.4543
80006SOL    HW157628   1.710   6.159   4.628 -2.7266  1.9944 -0.1944
80006SOL    HW257629   1.695   6.217   4.489  1.3309 -0.4208 -1.7952
80007SOL     OW57630   3.229   4.933   5.708  0.2206 -0.0006 -0.0008
80007SOL    HW157631   3.158   4.941   5.644 -0.0822  0.6382  0.3979
80007SOL    HW257632   3.269   4.849   5.689 -1.3891 -0.9170  0.4865
80008SOL     OW57633  11.942   4.469   9.528  0.7988  0.1660  0.3879
80008SOL    HW157634  11.973   4.395   9.477 -1.2177 -0.8283  0.5040
80008SOL    HW257635  11.907   4.530   9.463  1.3287  0.4744  0.3813
80009SOL     OW57636   9.804   1.292  13.451  0.1743  0.3074 -0.0814
80009SOL    HW157637   9.729   1.343  13.420 -0.0257  1.4390  2.0756
80009SOL    HW257638   9.766   1.231  13.513  0.7967 -0.6137 -0.5868
80010SOL     OW57639   0.621   4.352   8.458 -0.1931  0.0375  0.1800
80010SOL    HW157640   0.686   4.422   8.462 -0.1258  0.0533 -0.9931
80010SOL    HW257641   0.657   4.289   8.397 -2.4346  1.3013 -2.6775
80011SOL     OW57642   8.234   7.365  12.975 -0.0620 -0.2650 -0.5491
80011SOL    HW157643   8.258   7.440  13.030  0.5749 -1.5871  1.0419
80011SOL    HW257644   8.170   7.316  13.026 -1.7463  0.0284 -2.2774
80012SOL     OW57645   5.478   4.183   9.221  0.0421  0.9863 -0.3820
80012SOL    HW157646   5.402   4.151   9.270  0.6879  0.8089  0.5264
80012SOL    HW257647   5.506   4.261   9.268  1.0116  0.4962 -0.1140
80013SOL     OW57648   0.312  10.654   2.803  0.3587  0.1862  0.5144
80013SOL    HW157649   0.332  10.710   2.728  0.4032 -1.1467 -0.5192
80013SOL    HW257650   0.370  10.578   2.792  1.3302  0.5482  2.6440
80014SOL     OW57651   2.094   6.686   5.208 -0.5660  0.6447  0.6576
80014SOL    HW157652   2.068   6.763   5.258 -1.3219  0.8355 -0.0016
80014SOL    HW257653   2.012   6.654   5.170 -0.4419 -1.0865  1.7396
80015SOL     OW57654   1.600  12.874   6.121  0.4418 -0.0103  0.2728
80015SOL    HW157655   1.659  12.925   6.065  0.2717  0.1891  0.2748
80015SOL    HW257656   1.517  12.923   6.120  0.1128 -0.5718 -0.1583
80016SOL     OW57657   3.213   7.040   7.329 -0.0760  0.4028  0.4492
80016SOL    HW157658   3.120   7.018   7.325  0.0575 -0.0486 -0.3164
80016SOL    HW257659   3.217   7.117   7.386 -0.9499  0.6120  0.2394
80017SOL     OW57660   4.691  11.948  12.507  0.2316  0.0733  0.2253
80017SOL    HW157661   4.772  11.999  12.496 -0.5173  1.2625 -0.0160
80017SOL    HW257662   4.671  11.915  12.419 -0.6749  1.6048 -0.1848
80018SOL     OW57663   2.742   9.367  12.513 -0.4277 -0.6409  0.0529
80018SOL    HW157664   2.737   9.450  12.465  1.4556 -0.5035  0.0425
80018SOL    HW257665   2.748   9.301  12.444  1.4211 -0.5069  0.0485
80019SOL     OW57666  12.944   6.831  10.996  0.1851  0.3153 -0.3025
80019SOL    HW157667  12.869   6.786  11.034 -0.0847  1.7416  0.9486
80019SOL    HW257668  13.005   6.843  11.070  2.0262 -1.4515 -1.4220
80020SOL     OW57669   2.985   0.478   0.533  0.5245 -0.2154  0.2477
80020SOL    HW157670   3.065   0.476   0.585 -0.1933  1.3690  1.5160
80020SOL    HW257671   2.927   0.416   0.577  1.0778 -1.5009 -0.7788
80021SOL     OW57672   0.878   5.283   7.661  0.2040  0.1530 -0.2665
80021SOL    HW157673   0.910   5.330   7.738  0.0350  0.9353 -0.6627
80021SOL    HW257674   0.823   5.347   7.615  1.3001  0.1205 -1.6905
80022SOL     OW57675   4.168   1.309   6.544  0.0180 -0.5968 -0.2932
80022SOL    HW157676   4.213   1.392   6.525 -0.4943 -0.4911 -1.0677
80022SOL    HW257677   4.197   1.250   6.474  1.0319 -1.3395  0.7174
80023SOL     OW57678   2.372   8.658  10.987  0.0060 -0.0900 -0.0554
80023SOL    HW157679   2.314   8.645  10.912 -0.7844  2.2272  0.0722
80023SOL    HW257680   2.321   8.626  11.062  0.6654 -2.0886 -0.3958
80024SOL     OW57681   4.295  13.668  11.410 -0.1343  0.6854  0.1354
80024SOL    HW157682   4.208  13.671  11.449  0.5517 -0.0275  1.8276
80024SOL    HW257683   4.327  13.580  11.428  0.1773  0.2424 -2.2887
80025SOL     OW57684   0.586  10.288   5.182 -0.3533 -0.7741 -0.1399
80025SOL    HW157685   0.538  10.256   5.106  2.3142  0.3256 -2.5013
80025SOL    HW257686   0.642  10.215   5.208  0.4795 -0.4358 -0.8839
80026SOL     OW57687  12.606   2.817  13.881  0.0835 -0.3684  0.3115
80026SOL    HW157688  12.586   2.738  13.931 -0.8473  0.2225  0.9068
80026SOL    HW257689  12.541   2.881  13.911  0.8273  0.6232 -0.1532
80027SOL     OW57690   6.242  12.035  10.266  0.4093  0.6225 -0.3164
80027SOL    HW157691   6.243  12.131  10.265  1.0030  0.6230 -0.3227
80027SOL    HW257692   6.290  12.012  10.345 -0.1881  0.3270 -0.0358
80028SOL     OW57693   4.944  11.846  12.870 -0.0571  0.2406  0.0398
80028SOL    HW157694   4.945  11.899  12.790  1.8404  0.4526  0.1711
80028SOL    HW257695   5.033  11.851  12.904 -0.4675 -1.0156  1.4136
80029SOL     OW57696   3.164   9.632   9.928  0.0036 -0.2096 -0.1579
80029SOL    HW157697   3.098   9.609   9.993  0.0059 -2.0359 -0.7339
80029SOL    HW257698   3.233   9.676   9.977 -0.1327 -1.2844  1.0266
80030SOL     OW57699   7.740   4.082   5.389  0.0781  0.2321  0.5311
80030SOL    HW157700   7.794   4.004   5.403 -0.4201 -0.1320  0.4630
80030SOL    HW257701   7.653   4.057   5.422 -0.4717  0.2294 -0.8840
80031SOL     OW57702   4.111   2.161   5.941  0.4219  0.0369 -0.3458
80031SOL    HW157703   4.040   2.140   5.881 -0.8458  1.7686  0.4642
80031SOL    HW257704   4.189   2.163   5.886 -0.4880  0.2507 -1.6667
80032SOL     OW57705   9.205  12.750   5.156 -0.1309  0.3674 -0.1365
80032SOL    HW157706   9.296  12.779   5.156 -0.6118  2.3081 -3.3816
80032SOL    HW257707   9.154  12.827   5.182 -0.9845  0.4527 -1.8603
80033SOL     OW57708  12.455  14.037   6.018  0.2756  0.0921 -0.2083
80033SOL    HW157709  12.423  14.087   6.093 -0.3854 -1.1554  0.3633
80033SOL    HW257710  12.390  13.967   6.006  0.5890  0.0177 -1.6830
80034SOL     OW57711  11.375   3.793   9.866  0.2689  0.1055 -0.5179
80034SOL    HW157712  11.413   3.876   9.895  1.0905 -0.6131  0.5465
80034SOL    HW257713  11.442   3.727   9.885 -0.7754 -0.9533 -0.3300
80035SOL     OW57714  12.926   6.838   7.702  0.3903  0.0395 -0.1354
80035SOL    HW157715  13.017   6.858   7.720  0.5636 -0.1546 -0.7652
80035SOL    HW257716  12.877   6.886   7.768  0.7913  2.2929 -1.3733
80036SOL     OW57717  10.624   5.121   2.882 -0.1287 -0.5460  0.2474
80036SOL    HW157718  10.616   5.102   2.976 -0.3540 -0.7631  0.1847
80036SOL    HW257719  10.699   5.180   2.876 -2.0515  2.1337  0.9437
80037SOL     OW57720   4.901   2.024   1.609  0.1124 -0.2049  0.4675
80037SOL    HW157721   4.869   2.050   1.523  0.2295 -1.1764  0.1168
80037SOL    HW257722   4.986   2.066   1.618  0.3234 -0.4989 -0.1108
80038SOL     OW57723   9.214  10.271   0.889  0.1673 -1.0953  0.1808
80038SOL    HW157724   9.201  10.211   0.815  0.2280 -0.2582 -0.5325
80038SOL    HW257725   9.132  10.320   0.894  0.7973  0.0784 -0.4926
80039SOL     OW57726   5.486   6.365   6.013  0.1571  0.1834  0.3543
80039SOL    HW157727   5.419   6.380   6.080 -1.0160 -0.4266 -0.6169
80039SOL    HW257728   5.471   6.274   5.985  1.3974  0.0465  0.1029
80040SOL     OW57729  12.991  13.124  13.886 -0.1354  0.3196  0.0851
80040SOL    HW157730  13.043  13.088  13.814  0.7281 -0.1177  0.8890
80040SOL    HW257731  13.056  13.147  13.953 -0.8298  1.6163  0.3544
80041SOL     OW57732  12.339   1.717   6.815 -0.2553  0.2607  0.0564
80041SOL    HW157733  12.407   1.781   6.836  1.3534 -0.7037 -1.8451
80041SOL    HW257734  12.325   1.728   6.721 -1.9897 -0.3065  0.2197
80042SOL     OW57735   1.693   3.076  12.697  0.4904 -0.1114  0.2898
80042SOL    HW157736   1.610   3.036  12.723 -0.7209  1.4446 -0.9247
80042SOL    HW257737   1.732   3.015  12.635  0.5820 -1.1556  1.3596
80043SOL     OW57738   9.725  12.234   4.101  0.4238 -0.0273 -0.3102
80043SOL    HW157739   9.803  12.288   4.086 -0.1216  0.7884 -0.2871
80043SOL    HW257740   9.698  12.256   4.190 -0.0744  0.0126 -0.4671
80044SOL     OW57741   7.227  12.689  11.648  0.0242  0.4175 -0.3040
80044SOL    HW157742   7.231  12.641  11.566  1.0579  0.3723 -0.2387
80044SOL    HW257743   7.299  12.654  11.700 -0.8974  0.1061  0.8156
80045SOL     OW57744   7.906  11.598  13.960  0.0801  0.5664 -0.0777
80045SOL    HW157745   7.947  11.542  14.026 -0.6227 -2.8243 -2.2683
80045SOL    HW257746   7.975  11.660  13.935  2.7460 -2.4275 -0.8678
80046SOL     OW57747   3.036  12.403   7.933 -0.1606  0.2278 -0.0313
80046SOL    HW157748   2.945  12.379   7.949 -0.9834  1.7579 -2.0006
80046SOL    HW257749   3.064  12.443   8.016 -1.5384  0.4737  0.3472
80047SOL     OW57750   5.757   1.998   0.307  0.3103 -0.4690 -0.0352
80047SOL    HW157751   5.684   2.046   0.346  1.1246 -0.4165  1.4915
80047SOL    HW257752   5.721   1.911   0.288 -0.2687 -0.3072  0.2876
80048SOL     OW57753   9.461   3.261   7.658  0.0056 -0.0298 -0.3235
80048SOL    HW157754   9.535   3.319   7.641  2.0263 -1.8297  1.5232
80048SOL    HW257755   9.438   3.278   7.750 -0.9353 -0.4935 -0.4583
80049SOL     OW57756   4.514  12.774   7.135  0.6002  0.7365 -0.2656
80049SOL    HW157757   4.495  12.733   7.051  0.3940 -0.1832  0.2266
80049SOL    HW257758   4.432  12.815   7.161 -0.1662 -1.3204  0.7792
80050SOL     OW57759   1.264  12.573   7.351  0.2034 -0.7129 -0.1531
80050SOL    HW157760   1.258  12.576   7.446 -0.4985  0.0634 -0.2113
80050SOL    HW257761   1.350  12.610   7.331  0.3700 -0.9158  0.1766
80051SOL     OW57762  10.009  13.660  12.481 -0.2672  0.4124 -0.2822
80051SOL    HW157763  10.071  13.590  12.462 -1.1576  0.2156 -2.7965
80051SOL    HW257764   9.926  13.615  12.497 -0.4276  0.8068  0.0153
80052SOL     OW57765  10.063   5.761   0.425  0.0877 -0.7397  0.7566
80052SOL    HW157766  10.121   5.834   0.405 -0.3455  0.0244  2.1335
80052SOL    HW257767  10.119   5.684   0.422  0.2321 -0.6214 -2.3461
80053SOL     OW57768  12.083   4.279   5.581  0.8681  0.6821  0.0348
80053SOL    HW157769  12.115   4.287   5.671 -0.2281 -0.3800  0.5274
80053SOL    HW257770  12.019   4.350   5.572  1.4765  1.2248 -0.1538
80054SOL     OW57771   7.708   5.968   7.196 -0.5205  0.2242  0.5810
80054SOL    HW157772   7.643   5.953   7.264  1.2925  0.9686  2.5866
80054SOL    HW257773   7.671   5.927   7.118 -2.8008 -0.4407  1.9210
80055SOL     OW57774  10.112  11.602  12.642  0.5035 -0.5338  0.2095
80055SOL    HW157775  10.182  11.648  12.596  0.3416  1.7626  2.0785
80055SOL    HW257776  10.095  11.655  12.720 -3.7909 -0.5364 -0.4638
80056SOL     OW57777   7.780   5.310   6.309 -0.2399  0.7815  0.0766
80056SOL    HW157778   7.842   5.371   6.270  0.9625 -0.0088  0.7170
80056SOL    HW257779   7.827   5.227   6.314 -0.8228  0.5147  1.9159
80057SOL     OW57780  13.950   6.826   2.899 -0.5588  0.5950  0.1597
80057SOL    HW157781  14.036   6.821   2.857 -0.2890  0.1139  0.7477
80057SOL    HW257782  13.968   6.805   2.991 -1.3933 -0.1134  0.1743
80058SOL     OW57783   9.236  12.758   9.638 -0.6623  0.2399 -0.6693
80058SOL    HW157784   9.318  12.783   9.595 -0.7396  0.2482 -0.8134
80058SOL    HW257785   9.185  12.839   9.643  0.4680  0.8761  1.9884
80059SOL     OW57786   3.318   5.497   8.371 -0.0390 -0.4869 -0.3617
80059SOL    HW157787   3.289   5.507   8.280 -0.4446  0.4779 -0.1369
80059SOL    HW257788   3.410   5.472   8.364  0.5524  1.6472 -1.0477
80060SOL     OW57789   8.401   1.814   0.350 -0.7241 -0.5256  0.7316
80060SOL    HW157790   8.318   1.820   0.304 -1.2147 -0.9340  1.5274
80060SOL    HW257791   8.434   1.904   0.354 -1.4172 -0.2742  0.9107
80061SOL     OW57792   0.671   3.940   9.914 -0.4423 -0.3488 -0.2935
80061SOL    HW157793   0.641   3.849   9.917  0.3469 -0.6973 -1.8561
80061SOL    HW257794   0.760   3.938   9.949 -0.5805 -0.1047  0.0739
80062SOL     OW57795   6.717   9.976   7.266  0.6392  0.3437  0.1680
80062SOL    HW157796   6.769  10.057   7.261  1.9413 -0.4125  0.9586
80062SOL    HW257797   6.749   9.923   7.193 -0.9303  0.8911 -0.9908
80063SOL     OW57798  12.756   1.663   8.761 -0.2620 -0.2876  0.6222
80063SOL    HW157799  12.726   1.746   8.724  0.6409 -1.2631 -2.7011
80063SOL    HW257800  12.681   1.630   8.811 -1.2081  1.7296  0.6414
80064SOL     OW57801  10.681   5.982   7.199 -0.0393  0.3583 -0.1352
80064SOL    HW157802  10.750   5.931   7.243  0.2100  0.8031 -0.0005
80064SOL    HW257803  10.667   5.937   7.116  0.9793  0.7003 -0.5170
80065SOL     OW57804  12.045   6.800   1.109 -0.0474  0.7768 -0.3704
80065SOL    HW157805  12.075   6.710   1.097 -0.8574  0.3627  0.5738
80065SOL    HW257806  12.011   6.802   1.199  1.2273  2.3910  0.1282
80066SOL     OW57807  11.675   6.189  13.265  0.7736 -0.4492 -0.3109
80066SOL    HW157808  11.740   6.258  13.278  2.2704 -2.0951  1.5225
80066SOL    HW257809  11.714   6.130  13.201  0.5019 -0.7369 -0.2159
80067SOL     OW57810   3.176  11.107  12.464  0.3585  0.7720  0.4313
80067SOL    HW157811   3.174  11.078  12.373  0.8144  0.6629  0.4543
80067SOL    HW257812   3.086  11.134  12.482  0.2662  0.8031 -0.0525
80068SOL     OW57813   3.283   9.272   5.559 -0.4812 -0.2342  0.0355
80068SOL    HW157814   3.303   9.205   5.494 -1.2127 -1.3734  0.9409
80068SOL    HW257815   3.203   9.313   5.526  0.0183  0.2775 -0.5678
80069SOL     OW57816   3.950   2.198  10.773 -0.2469 -0.5294 -0.5292
80069SOL    HW157817   4.011   2.204  10.699  0.2435 -2.3227 -0.3329
80069SOL    HW257818   3.874   2.151  10.737 -0.0625 -1.2881  0.0549
80070SOL     OW57819   4.336   9.587  13.930  0.4843 -0.4064 -0.5202
80070SOL    HW157820   4.384   9.550  14.004 -0.7494  2.1599  1.7252
80070SOL    HW257821   4.289   9.512  13.892 -0.0951 -1.6123  2.3319
80071SOL     OW57822   1.258   9.325   3.387  0.0197 -0.0080 -0.6205
80071SOL    HW157823   1.350   9.346   3.376  0.3782 -1.0274  0.3346
80071SOL    HW257824   1.257   9.248   3.443 -1.2722 -1.7551 -2.8665
80072SOL     OW57825   3.911   7.508  10.888  0.0270 -0.1821  0.0982
80072SOL    HW157826   3.862   7.531  10.967 -1.5279  1.0973 -1.1620
80072SOL    HW257827   3.879   7.420  10.866  1.2182 -0.9797  1.3971
80073SOL     OW57828   0.759   8.090   9.224  0.0953 -0.2034  0.2190
80073SOL    HW157829   0.840   8.116   9.181  0.6616  0.1321  1.4658
80073SOL    HW257830   0.775   8.102   9.317 -1.0609 -1.0506  0.5585
80074SOL     OW57831   0.550  13.713   6.976 -0.2603  0.1859 -0.1264
80074SOL    HW157832   0.631  13.717   7.026 -0.1476 -1.9604 -0.0775
80074SOL    HW257833   0.481  13.703   7.041 -0.3448 -0.2952 -0.2897
80075SOL     OW57834   1.656   7.607  13.745  0.2273  0.0413  0.1567
80075SOL    HW157835   1.684   7.670  13.679 -1.8885 -0.5215 -1.3732
80075SOL    HW257836   1.729   7.546  13.754  1.0336  0.8569 -0.7108
80076SOL     OW57837  11.104  13.474   9.379  0.3776  0.0382  0.9038
80076SOL    HW157838  11.173  13.540   9.378  0.8429 -0.4472  0.4422
80076SOL    HW257839  11.150  13.391   9.367 -0.3426 -0.2267 -0.0996
80077SOL     OW57840   0.388   0.266   4.606  0.4675 -0.3468 -0.5517
80077SOL    HW157841   0.423   0.201   4.667 -0.0160 -1.1524 -1.1125
80077SOL    HW257842   0.358   0.338   4.662 -0.9226 -1.5163  0.2711
80078SOL     OW57843   9.446  10.828   8.895 -1.0899  0.1779 -0.1942
80078SOL    HW157844   9.391  10.800   8.822 -2.8585  2.7111  0.0463
80078SOL    HW257845   9.476  10.915   8.871  1.1637 -0.2661  0.6658
80079SOL     OW57846   5.257   5.644  11.141 -0.0541 -0.0282  0.2607
80079SOL    HW157847   5.258   5.659  11.236  2.2686 -1.0590  0.4860
80079SOL    HW257848   5.306   5.717  11.104  1.2233 -0.8723  0.1792
80080SOL     OW57849   3.091   2.587   3.561  0.2384 -0.0072  0.0557
80080SOL    HW157850   3.081   2.501   3.520  1.2999 -0.2840  0.3296
80080SOL    HW257851   3.177   2.617   3.531  1.1589 -0.3184  2.1914
80081SOL     OW57852   6.137  13.638   2.930  0.2397 -0.0706 -0.6688
80081SOL    HW157853   6.171  13.558   2.889  2.2673 -0.3977  1.3728
80081SOL    HW257854   6.151  13.706   2.865  1.3306 -0.9004 -1.3513
80082SOL     OW57855   5.912   0.622  13.432 -0.4971  0.0349  0.4416
80082SOL    HW157856   6.000   0.596  13.406 -0.5774  0.5128 -0.3393
80082SOL    HW257857   5.857   0.546  13.411 -0.4012  0.0485  0.1391
80083SOL     OW57858   7.634   9.759   2.550  0.2535  0.1948 -0.1073
80083SOL    HW157859   7.617   9.710   2.469 -0.7929 -0.2428  0.3500
80083SOL    HW257860   7.660   9.846   2.521 -3.0649  1.0521 -0.9833
80084SOL     OW57861   8.516   4.229  13.719  0.4809 -0.0078 -0.3237
80084SOL    HW157862   8.603   4.264  13.738 -0.2893  1.2103  1.2041
80084SOL    HW257863   8.461   4.307  13.708 -0.5874 -0.7527 -0.3982
80085SOL     OW57864   1.316  12.655   9.627 -0.1518 -0.1469 -0.1092
80085SOL    HW157865   1.239  12.621   9.582  0.8823 -0.8489 -1.4075
80085SOL    HW257866   1.342  12.732   9.576  0.6164 -0.5259 -0.2967
80086SOL     OW57867   6.341   3.203   5.195 -0.0161 -0.2131  0.2416
80086SOL    HW157868   6.258   3.200   5.242 -0.3023 -0.4561 -0.2722
80086SOL    HW257869   6.339   3.286   5.148  1.3334  1.2274  2.5534
80087SOL     OW57870   5.290  13.376   7.997 -0.0624  0.0151  0.2991
80087SOL    HW157871   5.211  13.341   8.038  0.8334  0.1038  2.1657
80087SOL    HW257872   5.362  13.338   8.047  1.0025  3.3539  1.5571
80088SOL     OW57873   4.661  10.717   7.978 -0.0097 -0.2100  0.0534
80088SOL    HW157874   4.613  10.663   7.916 -0.9580 -0.1650  0.7195
80088SOL    HW257875   4.613  10.707   8.060  1.0657 -0.0728  0.7261
80089SOL     OW57876  12.416   4.249  12.438 -0.3559  0.6382 -0.7866
80089SOL    HW157877  12.420   4.241  12.533 -0.4479 -0.3576 -0.8556
80089SOL    HW257878  12.448   4.164  12.405 -0.1676  1.0290 -1.6433
80090SOL     OW57879  13.951   4.788  11.853  0.0247  0.4302  0.3998
80090SOL    HW157880  13.969   4.757  11.941  0.3404  0.7237  0.4423
80090SOL    HW257881  13.987   4.877  11.851  1.0801  0.0046 -0.3790
80091SOL     OW57882   1.094  11.784   5.652 -0.3088  0.0532 -0.2629
80091SOL    HW157883   1.053  11.843   5.716  0.2691  0.4933 -0.2943
80091SOL    HW257884   1.020  11.747   5.604 -0.7324 -0.0084  0.4115
80092SOL     OW57885  13.141   7.717   8.167  0.2833  0.1625 -0.0966
80092SOL    HW157886  13.116   7.733   8.258  0.4198 -1.2993  0.2325
80092SOL    HW257887  13.184   7.797   8.139  0.1701  0.6640  1.1044
80093SOL     OW57888   2.272  13.442   2.575  0.2031  0.2052 -0.1163
80093SOL    HW157889   2.234  13.354   2.576  1.2508 -0.2890 -1.4181
80093SOL    HW257890   2.197  13.500   2.586 -0.7781 -0.7761 -1.3459
80094SOL     OW57891   4.727   3.851   8.759 -0.6388  0.9339 -0.7726
80094SOL    HW157892   4.750   3.783   8.696  0.0837 -0.0562  0.5065
80094SOL    HW257893   4.632   3.859   8.752 -0.4782  1.7864 -2.8695
80095SOL     OW57894   3.972   7.543  13.825  0.1481 -0.5883  0.4300
80095SOL    HW157895   3.886   7.545  13.866  0.3358 -0.6086  0.8251
80095SOL    HW257896   3.957   7.577  13.736 -0.5053 -1.8182  0.0376
80096SOL     OW57897  11.964   2.385  13.766 -0.0988 -0.1163  0.1241
80096SOL    HW157898  12.015   2.451  13.814  0.4567  0.4964 -1.2743
80096SOL    HW257899  12.009   2.375  13.683 -2.0903  0.2258 -1.0547
80097SOL     OW57900   9.852   9.496  13.976 -0.0707 -0.0488 -0.2618
80097SOL    HW157901   9.941   9.462  13.976 -0.2266 -0.4918  0.9028
80097SOL    HW257902   9.817   9.472  13.890  0.5439 -0.9310 -0.2807
80098SOL     OW57903  10.827  13.643   6.729 -0.4783 -0.2028  0.3303
80098SOL    HW157904  10.906  13.692   6.705 -0.0171 -0.9098  0.3836
80098SOL    HW257905  10.796  13.606   6.647 -1.6500  1.3216  0.0307
80099SOL     OW57906   6.176   1.198   1.231 -0.9318  0.0154 -0.3317
80099SOL    HW157907   6.127   1.131   1.182 -0.2187  0.4331 -1.6699
80099SOL    HW257908   6.235   1.236   1.166 -1.6040  2.2435  0.2745
80100SOL     OW57909   0.698   4.737   1.802 -0.2236  0.2526 -0.1157
80100SOL    HW157910   0.633   4.753   1.871 -0.8625  4.2666 -1.3831
80100SOL    HW257911   0.781   4.727   1.849 -1.1405 -0.9990  1.3345
80101SOL     OW57912  13.962   6.361   2.882 -0.3998 -0.3916  0.0858
80101SOL    HW157913  14.056   6.377   2.880 -0.1839 -1.3363  1.1726
80101SOL    HW257914  13.949   6.286   2.823 -0.4556 -0.2915 -0.0279
80102SOL     OW57915   3.502  14.054   2.398  0.6853 -0.2574  0.2457
80102SOL    HW157916   3.567  14.050   2.329  0.2652 -4.4858 -0.1393
80102SOL    HW257917   3.427  14.098   2.358  0.3307 -2.8550 -2.2507
80103SOL     OW57918   6.516   8.127   3.390  0.0470 -0.3312 -0.1605
80103SOL    HW157919   6.483   8.215   3.408  1.3159 -0.1188  1.3519
80103SOL    HW257920   6.549   8.131   3.300  1.9735  1.3903  0.5472
80104SOL     OW57921   2.612   5.238   4.911 -0.3050  0.5783  0.5173
80104SOL    HW157922   2.677   5.173   4.937  1.2190  1.5588 -0.6522
80104SOL    HW257923   2.591   5.285   4.992 -0.5770 -0.5740  1.1507
80105SOL     OW57924   2.221  13.828  12.560  0.1543 -0.2788  0.2329
80105SOL    HW157925   2.250  13.742  12.529  1.1453  0.8104 -2.1515
80105SOL    HW257926   2.132  13.814  12.591  0.9001 -2.4713  1.5808
80106SOL     OW57927  12.565   7.565   6.185 -0.2620  0.3058 -0.1822
80106SOL    HW157928  12.554   7.542   6.093 -1.7578  0.3359 -0.0401
80106SOL    HW257929  12.575   7.481   6.229  0.0272  0.2680 -0.3181
80107SOL     OW57930   4.411  12.979  13.904  0.7061 -0.3968 -0.5271
80107SOL    HW157931   4.366  13.063  13.912 -0.3801 -0.8920 -1.1980
80107SOL    HW257932   4.414  12.944  13.993  0.5034  0.0140 -0.3590
80108SOL     OW57933   4.239   9.951   8.983 -0.3942 -0.2650 -0.1719
80108SOL    HW157934   4.198   9.986   8.903 -2.0578  0.1344  0.8163
80108SOL    HW257935   4.238  10.024   9.045 -0.1881 -0.9060  0.6072
80109SOL     OW57936   3.420  12.660   0.441  0.0388  0.0429 -0.6742
80109SOL    HW157937   3.495  12.607   0.467  2.0896  2.1594 -1.9256
80109SOL    HW257938   3.379  12.686   0.523  1.2637 -0.3299  0.0722
80110SOL     OW57939  11.690   5.482   2.407 -0.0125 -0.0701 -0.2779
80110SOL    HW157940  11.701   5.577   2.412 -0.0743  0.0412 -1.9562
80110SOL    HW257941  11.771   5.450   2.368 -0.6147 -0.5282 -1.1933
80111SOL     OW57942   3.728  13.638   6.751 -0.4198  0.5408 -0.4947
80111SOL    HW157943   3.757  13.680   6.831  0.2131 -0.9661  0.1130
80111SOL    HW257944   3.636  13.615   6.768 -0.9991  2.2372 -1.1067
80112SOL     OW57945   4.358   2.343   3.988 -0.2243  0.0310  0.1893
80112SOL    HW157946   4.340   2.390   4.069 -1.9235  3.2369 -1.8622
80112SOL    HW257947   4.445   2.374   3.962  0.0156 -0.4557  0.3931
80113SOL     OW57948  13.033   6.441  10.010  0.8539  0.1482  0.0212
80113SOL    HW157949  12.980   6.470  10.085  0.3123  0.6481 -0.5434
80113SOL    HW257950  13.057   6.351  10.032 -2.4694 -1.0980 -0.8193
80114SOL     OW57951  10.268   4.115   8.748 -0.5131 -0.5266 -0.3642
80114SOL    HW157952  10.360   4.105   8.723 -0.3281  0.2509 -0.0047
80114SOL    HW257953  10.244   4.201   8.715 -0.4476  0.2606  1.5508
80115SOL     OW57954  13.272   2.999   7.287  0.2752  0.2243 -0.0110
80115SOL    HW157955  13.347   3.057   7.274 -0.0479  0.5345 -0.5552
80115SOL    HW257956  13.271   2.944   7.208 -0.6213  0.8626 -0.4647
80116SOL     OW57957  10.760  11.481  12.456  0.1121  0.0716  0.0443
80116SOL    HW157958  10.782  11.483  12.363 -0.1561 -2.7870 -0.1699
80116SOL    HW257959  10.705  11.559  12.470  0.2762  0.6203 -2.1356
80117SOL     OW57960   9.644   9.753   4.466 -0.2525  0.5117 -0.8841
80117SOL    HW157961   9.591   9.824   4.503 -2.2929 -1.0432 -0.6070
80117SOL    HW257962   9.644   9.685   4.534  0.1348 -0.4487 -1.8210
80118SOL     OW57963   6.251   7.325  13.612  0.2937  0.0579  0.4132
80118SOL    HW157964   6.209   7.409  13.593 -0.3681 -0.3909 -0.1430
80118SOL    HW257965   6.345   7.345  13.610  0.1493  0.7379  0.0445
80119SOL     OW57966   6.317   7.484   3.433  0.5231 -0.2624  0.2904
80119SOL    HW157967   6.351   7.564   3.393  2.6754 -0.1117  2.1841
80119SOL    HW257968   6.254   7.514   3.498  1.5899 -0.0184  1.2470
80120SOL     OW57969  10.269   4.357  13.054  0.2368 -0.3861  0.1808
80120SOL    HW157970  10.326   4.321  12.986 -0.4786  1.7365 -1.6789
80120SOL    HW257971  10.185   4.314  13.041  0.6898 -1.6528  1.2664
80121SOL     OW57972   9.870   7.328   1.465  0.1607 -0.5427  0.5037
80121SOL    HW157973   9.883   7.367   1.552  0.9897  1.3271 -0.4032
80121SOL    HW257974   9.791   7.372   1.431  1.3788  0.7960 -0.7203
80122SOL     OW57975   3.152  10.153   2.588  1.1355  0.3490  0.5489
80122SOL    HW157976   3.218  10.186   2.527  2.0146  1.1696  1.8735
80122SOL    HW257977   3.187  10.069   2.618  0.9158  0.1480  0.2414
80123SOL     OW57978   0.626   3.861   6.858 -0.1068  0.1526  0.2909
80123SOL    HW157979   0.670   3.910   6.927  2.5104  1.3753 -2.0469
80123SOL    HW257980   0.610   3.925   6.789 -1.4675 -1.2560 -0.7812
80124SOL     OW57981  12.377   1.722  12.787 -0.6996  0.5104  0.1428
80124SOL    HW157982  12.356   1.731  12.880 -0.6676  0.4289  0.1577
80124SOL    HW257983  12.396   1.812  12.758 -0.2312  0.4753  0.3296
80125SOL     OW57984   7.962   4.562   2.589 -0.2223  0.1435  0.1993
80125SOL    HW157985   8.017   4.640   2.584  0.3523 -0.2656  0.0140
80125SOL    HW257986   7.900   4.572   2.517 -0.5603  0.7222  0.5548
80126SOL     OW57987  11.769   3.107   8.220 -0.5188 -0.4619 -0.2364
80126SOL    HW157988  11.678   3.080   8.209 -0.3299 -0.8779 -0.8410
80126SOL    HW257989  11.800   3.124   8.131 -0.3357  0.8077  0.0365
80127SOL     OW57990   2.169   4.193  12.007 -0.7454  0.0761  0.4032
80127SOL    HW157991   2.186   4.117  11.950  0.7453 -0.3229  1.3152
80127SOL    HW257992   2.075   4.206  12.002 -1.2621 -2.6614  1.2036
80128SOL     OW57993   0.954   8.962   1.278 -0.2736 -0.2293  0.7646
80128SOL    HW157994   0.948   9.058   1.278 -0.7538 -0.2573  0.0088
80128SOL    HW257995   1.044   8.944   1.308 -0.0452  0.4629  0.5077
80129SOL     OW57996   9.966  13.713   7.777 -0.0999 -0.3918 -0.4572
80129SOL    HW157997   9.935  13.764   7.851  1.0026 -1.1686  0.5826
80129SOL    HW257998  10.047  13.757   7.749 -0.2114 -0.4214 -0.8348
80130SOL     OW57999   9.494   5.463   5.373  0.2303  0.3504  0.3609
80130SOL    HW158000   9.476   5.548   5.332 -0.3684  0.5388  0.9857
80130SOL    HW258001   9.430   5.457   5.444 -0.9030 -1.4188 -0.7414
80131SOL     OW58002   9.666   4.510   2.550 -0.0565  0.0647  0.2345
80131SOL    HW158003   9.648   4.588   2.498 -3.0816  0.7458  2.0874
80131SOL    HW258004   9.762   4.505   2.554  0.2451  1.8674 -2.4712
80132SOL     OW58005  13.995   8.905   5.914 -0.0100  0.0171 -0.3156
80132SOL    HW158006  13.956   8.966   5.976 -0.6985 -0.1186 -0.6117
80132SOL    HW258007  14.028   8.961   5.843  0.0826  0.1058 -0.2038
80133SOL     OW58008   3.391   5.533   3.067 -0.2830 -0.6119  0.7449
80133SOL    HW158009   3.347   5.613   3.039  1.6679 -0.0720 -1.1251
80133SOL    HW258010   3.453   5.562   3.134  1.0161 -0.3358 -0.5243
80134SOL     OW58011   1.563   7.850  10.965 -0.3232 -0.2674  0.5289
80134SOL    HW158012   1.470   7.873  10.959 -0.5515 -1.3430 -0.4506
80134SOL    HW258013   1.570   7.768  10.917  1.4165  0.5709 -0.7436
80135SOL     OW58014   3.725   5.357   3.149 -0.5874 -0.0011 -0.3377
80135SOL    HW158015   3.694   5.381   3.237 -0.0792  2.9974 -0.8999
80135SOL    HW258016   3.783   5.428   3.123 -1.4016 -0.3250 -3.4793
80136SOL     OW58017   7.967  12.326   5.895 -0.1074 -0.1257 -0.2816
80136SOL    HW158018   8.003  12.393   5.838 -0.5653  1.2989  1.0285
80136SOL    HW258019   7.925  12.375   5.966 -1.5738 -1.7746  0.0609
80137SOL     OW58020   5.697   0.622   2.147 -0.1575 -0.7024  0.6832
80137SOL    HW158021   5.639   0.607   2.222 -0.2127 -0.6166  0.6580
80137SOL    HW258022   5.784   0.628   2.184 -0.1254 -1.1751  0.6841
80138SOL     OW58023  12.627   3.381   4.940  0.4347 -0.6924  0.2418
80138SOL    HW158024  12.682   3.406   4.866  0.6218 -2.3053 -0.1967
80138SOL    HW258025  12.546   3.350   4.900 -0.1243  0.0075  0.8083
80139SOL     OW58026   5.340   7.580   0.025 -0.0287  0.1585  0.6588
80139SOL    HW158027   5.406   7.539   0.080 -0.3069  0.0731  0.9281
80139SOL    HW258028   5.367   7.672   0.020 -0.6369  0.4232  1.8922
80140SOL     OW58029   1.579   3.573   0.263 -0.5855  0.3205  0.6505
80140SOL    HW158030   1.543   3.489   0.290 -1.2732  0.0115 -1.0671
80140SOL    HW258031   1.674   3.559   0.264 -0.6318 -0.0196  1.7044
80141SOL     OW58032   5.258   1.011   1.576  0.4388 -0.0789 -0.1248
80141SOL    HW158033   5.269   1.106   1.567  1.4551 -0.2622 -1.0094
80141SOL    HW258034   5.290   0.992   1.664 -2.2031  0.7060  1.1177
80142SOL     OW58035  10.501   3.446   2.776  0.3725  0.0483 -0.6163
80142SOL    HW158036  10.480   3.420   2.866  0.1680 -1.7076 -1.1350
80142SOL    HW258037  10.568   3.513   2.785 -0.4383  0.6957  0.8731
80143SOL     OW58038   8.890   5.664   9.851  0.1808 -0.7059  0.0464
80143SOL    HW158039   8.939   5.607   9.910  1.2675  0.8846  0.7716
80143SOL    HW258040   8.804   5.624   9.844  1.3676 -3.3114 -0.8344
80144SOL     OW58041  13.453   6.057   1.727 -0.4601 -0.4478 -0.3522
80144SOL    HW158042  13.503   5.995   1.780 -1.0267 -1.0809 -0.5402
80144SOL    HW258043  13.495   6.141   1.743  1.7776 -1.1843 -1.8287
80145SOL     OW58044   1.416   2.711   5.538 -0.6882 -0.0680 -0.6106
80145SOL    HW158045   1.441   2.619   5.526 -0.1023 -0.1884  1.2091
80145SOL    HW258046   1.436   2.729   5.630 -2.3491  1.4056 -0.4940
80146SOL     OW58047  12.502   2.847  13.199 -0.4111 -0.5343  0.2973
80146SOL    HW158048  12.429   2.869  13.257 -1.4116 -0.6123 -0.9074
80146SOL    HW258049  12.546   2.931  13.183 -1.9323  0.0226 -1.2111
80147SOL     OW58050  13.872   2.075  13.116 -0.0696 -0.5703 -0.2331
80147SOL    HW158051  13.797   2.122  13.079 -0.0943 -0.2937  0.1589
80147SOL    HW258052  13.945   2.097  13.058  0.6802  2.6007  1.6516
80148SOL     OW58053  13.430   8.570   5.838 -0.9219  0.1865 -0.2668
80148SOL    HW158054  13.492   8.638   5.812 -0.8058  0.4895  0.7893
80148SOL    HW258055  13.404   8.594   5.927 -2.2634 -0.1446 -0.5494
80149SOL     OW58056  11.535   8.072   6.205 -0.6560 -0.0767  0.0471
80149SOL    HW158057  11.468   8.068   6.136  0.2086 -0.5890 -0.7954
80149SOL    HW258058  11.618   8.068   6.157 -0.0297 -0.0379  1.1053
80150SOL     OW58059   0.112   6.765   2.835  0.0035 -0.0352  0.1514
80150SOL    HW158060   0.135   6.681   2.795  1.0797  0.2052  0.2530
80150SOL    HW258061   0.189   6.790   2.885  0.1090  1.5678 -0.7579
80151SOL     OW58062  13.602   7.800   3.620  0.2089 -0.0160 -0.0553
80151SOL    HW158063  13.528   7.842   3.664  0.5270 -0.0468  0.5275
80151SOL    HW258064  13.573   7.788   3.530 -0.7091 -0.5274  0.2927
80152SOL     OW58065  11.101   7.631  13.697 -0.0131  0.5863  0.0447
80152SOL    HW158066  11.021   7.666  13.657  0.3587  2.8811  1.1442
80152SOL    HW258067  11.071   7.594  13.780 -0.1460 -0.1690 -0.3250
80153SOL     OW58068   1.412   0.788  12.932  0.0997 -0.6585  0.4066
80153SOL    HW158069   1.349   0.729  12.888 -0.5241  0.5904 -0.4283
80153SOL    HW258070   1.390   0.875  12.899  0.4471  0.1757  2.2822
80154SOL     OW58071   1.522  11.624   6.569  0.0055  0.1535 -0.2437
80154SOL    HW158072   1.442  11.628   6.516 -0.2551 -0.9899  0.0435
80154SOL    HW258073   1.502  11.560   6.637  0.5004  1.2304  0.9633
80155SOL     OW58074   5.052   2.886  12.017  0.5788 -0.0037  0.2388
80155SOL    HW158075   5.145   2.872  12.034  0.3664 -2.7352 -0.2754
80155SOL    HW258076   5.021   2.801  11.985 -1.8726  1.1300 -0.6499
80156SOL     OW58077  13.084   0.568   8.029  0.4833 -0.2953  0.1695
80156SOL    HW158078  13.039   0.513   7.964 -0.6739  1.2160 -0.3650
80156SOL    HW258079  13.080   0.656   7.993  2.2251  0.1833  1.0493
80157SOL     OW58080   0.620   4.655   8.169  0.3392  0.6296 -0.1727
80157SOL    HW158081   0.592   4.594   8.101 -3.5800  0.3459  1.4363
80157SOL    HW258082   0.622   4.740   8.125 -3.8669  0.7563 -0.5104
80158SOL     OW58083  13.188   7.050   1.678 -0.5582  0.1152 -0.1755
80158SOL    HW158084  13.118   7.107   1.646 -0.5574  0.8737  1.1359
80158SOL    HW258085  13.237   7.103   1.740 -0.8555 -1.4410  1.4767
80159SOL     OW58086   4.946   9.663   0.362  1.2094  0.3443 -0.3567
80159SOL    HW158087   4.906   9.648   0.448  0.6641  2.1942 -0.2516
80159SOL    HW258088   5.029   9.616   0.366  0.2150 -1.5016  0.3383
80160SOL     OW58089   0.365   7.623   0.428  0.0577 -0.2720  0.0858
80160SOL    HW158090   0.456   7.604   0.450  0.0560 -0.1541  0.2007
80160SOL    HW258091   0.370   7.700   0.371  0.0884 -0.8342 -0.6769
80161SOL     OW58092   4.016  13.162   1.046  0.6498 -0.0174  0.8785
80161SOL    HW158093   4.065  13.156   1.128  0.9129 -0.1091  0.7195
80161SOL    HW258094   4.052  13.239   1.003 -0.4814  0.8609  1.4775
80162SOL     OW58095  13.348   8.501   2.138  0.1029 -0.1699  0.7737
80162SOL    HW158096  13.416   8.565   2.120  0.8391 -0.9606  0.7042
80162SOL    HW258097  13.375   8.422   2.091 -0.0470 -0.9850  2.0094
80163SOL     OW58098   1.357   8.402  12.522  0.2088 -0.5076 -0.1040
80163SOL    HW158099   1.342   8.331  12.459  0.5478 -1.2127  0.5804
80163SOL    HW258100   1.321   8.368  12.604  0.2865  0.1669  0.2159
80164SOL     OW58101   9.142   4.086  13.854 -0.0462  0.2257  0.5816
80164SOL    HW158102   9.075   4.028  13.817 -2.2845  2.8791  0.1410
80164SOL    HW258103   9.200   4.107  13.781 -2.2563  2.4736 -0.6789
80165SOL     OW58104   8.671   2.561   6.852 -0.8589  0.4195  0.3778
80165SOL    HW158105   8.694   2.490   6.791  1.0463  1.7312 -0.5077
80165SOL    HW258106   8.676   2.641   6.799 -1.6325  1.3712  1.6872
80166SOL     OW58107   0.045   3.241   0.334  0.0681  0.2701  0.0161
80166SOL    HW158108  -0.006   3.161   0.349  1.0420 -0.0204  2.0056
80166SOL    HW258109   0.104   3.218   0.262 -0.7865 -0.2373 -0.5410
80167SOL     OW58110   1.017  11.126  11.321 -0.3572  0.0254 -0.2794
80167SOL    HW158111   0.994  11.208  11.277  1.3834  0.4246 -0.5060
80167SOL    HW258112   1.059  11.153  11.402  2.8028 -0.4785 -1.5998
80168SOL     OW58113   0.601   5.684   1.463 -0.2796 -0.2443  0.1934
80168SOL    HW158114   0.663   5.725   1.523  0.0815 -0.7742  0.1911
80168SOL    HW258115   0.655   5.625   1.410 -0.4430  0.9025 -1.2934
80169SOL     OW58116   4.016   2.422  10.567  0.4654 -0.2256  0.1981
80169SOL    HW158117   3.972   2.358  10.511  1.3785 -0.2625 -0.4952
80169SOL    HW258118   4.018   2.502  10.516  0.5324 -0.0165  0.5253
80170SOL     OW58119  10.668   0.648   4.891 -0.3090  0.0331  0.4257
80170SOL    HW158120  10.728   0.631   4.963  1.5662 -1.7796 -1.4085
80170SOL    HW258121  10.619   0.566   4.881 -0.1243  0.0311 -0.6704
80171SOL     OW58122   4.707   3.702   7.834 -0.2612  0.0384  0.2372
80171SOL    HW158123   4.664   3.756   7.900  0.1856  0.5065  0.1461
80171SOL    HW258124   4.795   3.688   7.869 -0.6701 -1.4931  0.7629
80172SOL     OW58125   8.912   6.857   0.940  0.4355 -0.4358  0.5484
80172SOL    HW158126   8.949   6.786   0.888  1.7194  1.6054 -1.5056
80172SOL    HW258127   8.983   6.881   1.001  0.2611 -0.4479  0.7576
80173SOL     OW58128  10.587   2.838   9.948 -0.1741  0.4216 -0.1661
80173SOL    HW158129  10.523   2.868  10.012 -0.5950  0.7278 -0.7248
80173SOL    HW258130  10.658   2.800  10.001 -0.9522 -0.2056  0.4516
80174SOL     OW58131   1.944   4.415   3.839  0.2671 -0.1751 -0.6943
80174SOL    HW158132   1.899   4.467   3.773 -2.7727 -0.2485  1.1537
80174SOL    HW258133   1.914   4.325   3.824 -0.1922 -0.2454  0.5439
80175SOL     OW58134   7.199   0.309  11.192 -0.0560 -0.6750  0.0985
80175SOL    HW158135   7.244   0.301  11.108 -0.6315  1.6773 -0.4935
80175SOL    HW258136   7.238   0.240  11.246  1.2688 -1.3909 -1.6655
80176SOL     OW58137   2.311   3.500   1.784  0.6847  0.0852 -0.3722
80176SOL    HW158138   2.320   3.514   1.878  2.7690  0.7221 -0.5965
80176SOL    HW258139   2.365   3.423   1.766  0.6470  0.2095 -1.0822
80177SOL     OW58140   4.058   8.205   0.971 -0.6346 -0.8401  0.6417
80177SOL    HW158141   4.086   8.297   0.976 -1.7980 -0.4247  0.0718
80177SOL    HW258142   4.059   8.185   0.878  0.6558 -1.7724  0.8385
80178SOL     OW58143  11.804  10.713   6.854  0.1198 -0.2465 -0.1033
80178SOL    HW158144  11.759  10.761   6.923  1.8093 -0.7298  1.4181
80178SOL    HW258145  11.755  10.733   6.774 -1.9739  0.2481  1.2361
80179SOL     OW58146  12.006  12.233   9.258  0.4709 -0.3814 -0.2471
80179SOL    HW158147  11.944  12.257   9.328  1.5881 -0.6245  0.8609
80179SOL    HW258148  11.959  12.253   9.177 -0.6575  0.4414  0.5729
80180SOL     OW58149   7.256  14.027  13.557  0.2640  0.0122  0.0914
80180SOL    HW158150   7.201  14.066  13.489  0.0583 -0.2091  0.1274
80180SOL    HW258151   7.332  13.992  13.509  1.2739  1.8859  0.2421
80181SOL     OW58152   8.621   5.144   2.052 -0.6275 -0.8831  0.2652
80181SOL    HW158153   8.534   5.106   2.039 -0.5375 -1.7315  1.8774
80181SOL    HW258154   8.670   5.116   1.975 -1.7741 -0.3375 -0.7036
80182SOL     OW58155   1.935   3.546  11.344  0.0490 -0.2771 -0.4748
80182SOL    HW158156   1.997   3.542  11.272  1.2681  1.4667  0.3969
80182SOL    HW258157   1.909   3.455  11.359  2.3631 -1.0805 -0.9200
80183SOL     OW58158   6.039   0.885   8.802  0.2039  0.3945  0.1070
80183SOL    HW158159   5.960   0.857   8.847 -0.1475 -0.8174 -1.2113
80183SOL    HW258160   6.028   0.855   8.712  2.0068  0.4899 -0.1872
80184SOL     OW58161   0.187   5.046   8.019 -0.2266 -0.1524 -0.0209
80184SOL    HW158162   0.225   5.084   7.940 -1.4901  0.2466 -0.4591
80184SOL    HW258163   0.260   5.042   8.081  0.4168  1.0506 -0.6586
80185SOL     OW58164   1.410   0.512   9.262 -0.1232 -0.0018 -0.5223
80185SOL    HW158165   1.439   0.582   9.321 -1.7839 -0.4454  0.9149
80185SOL    HW258166   1.342   0.552   9.209  1.3791  0.3994 -2.2430
80186SOL     OW58167   8.346   3.524   1.103  0.2624  0.3021  0.1606
80186SOL    HW158168   8.429   3.503   1.061 -0.6269  0.1496 -1.6198
80186SOL    HW258169   8.361   3.609   1.145  1.5030 -0.0539  0.4671
80187SOL     OW58170   1.376   5.015   6.901 -0.0414 -0.2059 -0.2382
80187SOL    HW158171   1.401   5.099   6.864 -0.3489  0.8028  1.6708
80187SOL    HW258172   1.440   5.000   6.971 -1.5929 -0.1299  1.2698
80188SOL     OW58173   6.638   0.528  12.288  0.0082  0.2015  0.2742
80188SOL    HW158174   6.721   0.501  12.328 -0.2243  0.2401  0.7830
80188SOL    HW258175   6.654   0.521  12.194  1.1074  1.6864  0.3099
80189SOL     OW58176   4.097  11.856   2.372 -0.6632 -0.0229 -0.3380
80189SOL    HW158177   4.155  11.905   2.313 -0.2626  1.0572  0.8768
80189SOL    HW258178   4.129  11.878   2.459 -1.3114 -1.4742  0.2971
80190SOL     OW58179  13.501   6.911   9.267 -0.2737 -0.5062  0.2171
80190SOL    HW158180  13.520   7.003   9.251  1.2811 -0.4432  2.1298
80190SOL    HW258181  13.413   6.911   9.304 -0.2666  0.2139  0.2428
80191SOL     OW58182   5.050   4.719   0.750  0.1269 -0.4699  0.2605
80191SOL    HW158183   5.032   4.759   0.834  0.0798 -0.8873  0.4498
80191SOL    HW258184   4.970   4.733   0.699 -0.4675 -1.6292  0.8323
80192SOL     OW58185   0.675  10.266   2.909  0.3084 -0.8444 -0.2216
80192SOL    HW158186   0.684  10.175   2.935 -1.1460 -0.9914 -0.1440
80192SOL    HW258187   0.759  10.307   2.933  0.2365 -1.6984  1.6472
80193SOL     OW58188  12.308  12.658   0.008  0.7911  0.2132 -0.0434
80193SOL    HW158189  12.234  12.661  -0.053  0.3473  0.5309  0.5014
80193SOL    HW258190  12.372  12.719  -0.029  1.3849 -1.0737 -1.2571
80194SOL     OW58191   6.117   3.487   6.637 -0.1499 -0.1715 -0.6008
80194SOL    HW158192   6.025   3.473   6.658 -0.4806  0.5452 -1.5187
80194SOL    HW258193   6.164   3.423   6.690 -1.0316  0.6640  1.2788
80195SOL     OW58194   1.495   7.156   1.240 -0.1631  0.1369  0.6357
80195SOL    HW158195   1.565   7.219   1.250 -1.5204  2.2072 -1.7397
80195SOL    HW258196   1.539   7.071   1.233  1.7830  0.8825  2.8373
80196SOL     OW58197  10.069   0.933   9.304  0.4967  0.0045 -0.5494
80196SOL    HW158198  10.101   0.902   9.219  1.4530  1.1276 -0.6172
80196SOL    HW258199  10.112   0.875   9.367  0.4831 -0.2698 -0.7877
80197SOL     OW58200   1.202   5.786   3.633 -0.0552 -0.2150 -0.5786
80197SOL    HW158201   1.287   5.785   3.589 -0.4295  0.1420 -1.3339
80197SOL    HW258202   1.207   5.862   3.691  0.1283 -0.1684 -0.6544
80198SOL     OW58203  10.885   9.639  14.019  0.0731  0.1198  0.5478
80198SOL    HW158204  10.828   9.562  14.021 -0.4630  0.4604 -0.8508
80198SOL    HW258205  10.843   9.701  14.079 -0.6942  0.1401 -0.0050
80199SOL     OW58206   2.748  12.891   5.966  0.2379  0.0798  0.1796
80199SOL    HW158207   2.709  12.930   6.044 -0.7769 -1.2631  0.3620
80199SOL    HW258208   2.784  12.966   5.918 -0.8032  1.1299  0.9881
80200SOL     OW58209   2.180  11.369   0.465  0.1955  0.3422 -0.2389
80200SOL    HW158210   2.197  11.417   0.384 -2.1206  0.8137 -0.5262
80200SOL    HW258211   2.242  11.405   0.528  2.2026 -0.1776 -1.7946
80201SOL     OW58212   6.534   3.373   1.444 -0.5257 -0.1138  0.3004
80201SOL    HW158213   6.492   3.453   1.477  1.0499  0.1048  1.9628
80201SOL    HW258214   6.537   3.316   1.520 -0.0955 -1.1015 -0.4461
80202SOL     OW58215   8.012   0.254   2.811 -0.5166 -0.1050  0.1877
80202SOL    HW158216   8.019   0.189   2.742 -0.9893 -0.2077  0.2362
80202SOL    HW258217   7.918   0.274   2.817 -0.5740 -0.6355  1.2921
80203SOL     OW58218   2.593   6.199   4.889 -0.3356 -0.7977  0.0776
80203SOL    HW158219   2.543   6.276   4.917 -1.5713 -1.1347 -1.0991
80203SOL    HW258220   2.673   6.235   4.850 -0.3889 -0.1667  0.5416
80204SOL     OW58221   4.034   6.921   3.557 -0.3580  0.3612  0.4007
80204SOL    HW158222   3.942   6.921   3.584 -0.6330  2.0229 -0.4234
80204SOL    HW258223   4.080   6.966   3.628 -0.3053  0.2619  0.4300
80205SOL     OW58224   1.057   7.031  10.587  0.3168  0.0137 -0.6153
80205SOL    HW158225   0.982   7.035  10.647  0.6790 -2.1598  0.0453
80205SOL    HW258226   1.020   7.000  10.505  0.5351 -1.4805 -0.1647
80206SOL     OW58227  11.314   5.189   8.489  0.1439  0.2232  0.0539
80206SOL    HW158228  11.359   5.104   8.491 -0.4661 -0.0932  0.5669
80206SOL    HW258229  11.343   5.233   8.568  1.1316  0.8596 -0.6378
80207SOL     OW58230   9.037   2.037   0.565  0.1613  0.2136 -0.3970
80207SOL    HW158231   8.989   1.986   0.500  1.4881 -0.7319 -0.6663
80207SOL    HW258232   9.004   2.006   0.650  1.1434 -1.3252 -0.5491
80208SOL     OW58233   8.577   2.046   6.233 -0.3439 -0.0585 -0.0937
80208SOL    HW158234   8.568   1.955   6.261  1.0616 -0.0255  0.5917
80208SOL    HW258235   8.655   2.047   6.178 -0.2604  0.7485  0.0202
80209SOL     OW58236   0.660  10.182   8.333  0.2849  0.2044 -0.6386
80209SOL    HW158237   0.645  10.088   8.322  0.6114  0.1081 -0.2896
80209SOL    HW258238   0.630  10.202   8.422 -0.0451  0.4888 -0.8110
80210SOL     OW58239   8.167   2.684   9.646 -0.4026 -0.3977  0.6670
80210SOL    HW158240   8.074   2.708   9.635 -0.3995 -1.2426 -1.8883
80210SOL    HW258241   8.211   2.767   9.665 -1.3349  0.5552 -1.0408
80211SOL     OW58242   9.367   1.942  12.095  0.1045  0.0163  0.6415
80211SOL    HW158243   9.370   1.887  12.173 -3.8502 -0.2266  0.8429
80211SOL    HW258244   9.400   1.886  12.025  0.8634 -0.8230  1.6306
80212SOL     OW58245   3.027   8.932   7.170  0.1720  0.1508 -0.5001
80212SOL    HW158246   3.007   9.025   7.172 -1.9670 -0.2699  0.7723
80212SOL    HW258247   2.950   8.892   7.129 -0.2817 -1.2880  1.6116
80213SOL     OW58248  10.389  13.897   3.560 -0.0308  0.3783  0.2180
80213SOL    HW158249  10.458  13.935   3.615  0.9096 -2.1790  0.9715
80213SOL    HW258250  10.327  13.861   3.623 -0.4601 -0.0513 -0.4439
80214SOL     OW58251   1.389  11.459   0.752  0.3647  0.3423 -0.4242
80214SOL    HW158252   1.401  11.410   0.670  1.6260 -1.0565  0.5193
80214SOL    HW258253   1.417  11.397   0.820 -1.8975  0.9774  1.1971
80215SOL     OW58254  11.926   1.462   4.213  0.8249 -0.2095 -0.1601
80215SOL    HW158255  11.985   1.538   4.222  1.8193 -0.6862 -2.1545
80215SOL    HW258256  11.963   1.397   4.272  2.6350 -0.6358 -1.6378
80216SOL     OW58257  11.272  13.037   7.690  0.1500 -0.1281 -0.3296
80216SOL    HW158258  11.181  13.066   7.677  0.9690  1.5738 -3.1349
80216SOL    HW258259  11.289  12.980   7.615  1.7450  0.5876 -0.5411
80217SOL     OW58260   2.254  12.683   8.376  0.1867 -0.2370 -0.5206
80217SOL    HW158261   2.185  12.722   8.429 -1.0058 -2.2423 -0.4962
80217SOL    HW258262   2.321  12.656   8.438  0.7025  1.0823 -0.4761
80218SOL     OW58263  10.927  10.010   3.932  0.5154  0.0771  0.0804
80218SOL    HW158264  10.911  10.063   4.010  0.1206  0.3765 -0.2056
80218SOL    HW258265  10.901   9.921   3.958 -0.7848  0.3894 -0.0891
80219SOL     OW58266  13.881   0.151  12.721 -0.3194  0.1497 -0.1621
80219SOL    HW158267  13.821   0.218  12.688 -0.1205  1.8087  2.5384
80219SOL    HW258268  13.954   0.200  12.757 -0.8141 -1.3041  3.2212
80220SOL     OW58269  12.459  10.358  13.273 -0.4349 -0.3897 -0.0683
80220SOL    HW158270  12.549  10.386  13.261  1.0871 -4.0112  1.4236
80220SOL    HW258271  12.423  10.420  13.338  1.8274 -0.3640  1.2441
80221SOL     OW58272  10.207  10.980   3.749 -0.1068 -0.3869 -0.0428
80221SOL    HW158273  10.231  10.995   3.840  0.2126  0.0816 -0.2035
80221SOL    HW258274  10.220  11.064   3.706  0.2915 -0.7499 -0.6469
80222SOL     OW58275   1.104   0.552   5.154  0.8210  0.1032  0.4725
80222SOL    HW158276   1.110   0.486   5.086 -0.2551 -1.3971  1.7563
80222SOL    HW258277   1.192   0.589   5.161  1.3448 -0.9229 -0.5418
80223SOL     OW58278  13.899   9.622   5.002 -0.2932 -0.3943  0.1192
80223SOL    HW158279  13.977   9.574   5.031 -0.8504 -0.4499  1.5967
80223SOL    HW258280  13.933   9.707   4.974  0.2285 -0.1609  1.4254
80224SOL     OW58281   3.433   6.133  10.004 -0.3038 -0.3432  0.9070
80224SOL    HW158282   3.386   6.150   9.922  2.5118  1.7444 -0.4284
80224SOL    HW258283   3.513   6.088   9.977 -0.2657 -1.5739  2.8294
80225SOL     OW58284   8.237   0.508   3.188 -0.1674 -0.0415 -0.0773
80225SOL    HW158285   8.160   0.473   3.144  0.3938 -0.6234 -0.6059
80225SOL    HW258286   8.227   0.478   3.279 -0.2835 -0.5890 -0.2646
80226SOL     OW58287  11.014   4.247   3.999 -0.6260 -0.1075 -0.2443
80226SOL    HW158288  11.085   4.261   3.937 -0.4991  0.3962  0.0064
80226SOL    HW258289  11.007   4.152   4.008  2.0609 -0.2238  2.0346
80227SOL     OW58290   8.985  10.102   7.122 -0.3328  0.2917 -0.7362
80227SOL    HW158291   8.996  10.188   7.083  1.1391  0.8805  0.8862
80227SOL    HW258292   8.906  10.109   7.176 -0.5751  0.4056 -1.1000
80228SOL     OW58293   1.219   3.091  10.637 -0.3841  0.2983 -0.2050
80228SOL    HW158294   1.145   3.031  10.631  0.4122 -0.8812  1.0996
80228SOL    HW258295   1.239   3.096  10.731  1.0291  0.7847 -0.5005
80229SOL     OW58296   9.839   3.319   0.070 -0.4137 -0.3301 -0.0174
80229SOL    HW158297   9.899   3.385   0.103 -1.2112 -0.3234  1.5196
80229SOL    HW258298   9.763   3.369   0.041 -0.3706 -0.4539 -0.3403
80230SOL     OW58299  13.526   2.719   9.258  0.1830 -0.3089 -0.0440
80230SOL    HW158300  13.432   2.732   9.275 -0.2531 -2.5232 -0.4888
80230SOL    HW258301  13.529   2.675   9.173  1.6103 -0.5824  0.1303
80231SOL     OW58302  12.150   8.874   5.546  0.0537  0.0261 -0.2025
80231SOL    HW158303  12.135   8.915   5.461  0.3339  0.7582  0.0910
80231SOL    HW258304  12.080   8.908   5.602 -0.2844 -0.6559 -0.2001
80232SOL     OW58305  10.034   1.544   8.796 -0.1199 -0.9509  0.7439
80232SOL    HW158306   9.978   1.511   8.866  1.3757  0.6905  2.8316
80232SOL    HW258307  10.093   1.606   8.839  1.2411 -0.2608 -1.8939
80233SOL     OW58308  13.119   9.484   9.591 -0.1070 -0.4304  0.1882
80233SOL    HW158309  13.144   9.503   9.501 -1.5629 -2.2483 -0.6644
80233SOL    HW258310  13.144   9.392   9.603  1.1803  0.1154  2.0764
80234SOL     OW58311  13.670   1.968   9.838 -0.2723  0.4701  0.2089
80234SOL    HW158312  13.690   1.889   9.788  0.6144  0.6818  0.2115
80234SOL    HW258313  13.707   1.952   9.924  0.0661  0.9485  0.1583
80235SOL     OW58314  10.880   6.082   5.976 -0.0899 -0.5243 -0.1324
80235SOL    HW158315  10.875   6.053   6.067  0.9814  0.2840  0.2002
80235SOL    HW258316  10.923   6.010   5.930  1.3114 -0.0656  0.4225
80236SOL     OW58317  13.313  13.477   3.852 -0.1917 -0.4987  0.5358
80236SOL    HW158318  13.328  13.546   3.916  3.2175 -0.7281  0.1609
80236SOL    HW258319  13.294  13.523   3.771  1.7535  0.0688  0.3581
80237SOL     OW58320   3.997   9.235   9.270  0.5516 -0.4006  0.1662
80237SOL    HW158321   3.935   9.308   9.270 -0.3802 -1.1569  1.0552
80237SOL    HW258322   4.081   9.274   9.244  0.1359  1.0303  0.8823
80238SOL     OW58323  11.864  13.991  11.977 -0.2222 -0.1098 -0.4850
80238SOL    HW158324  11.838  14.056  11.912 -1.3896 -0.7092 -0.6401
80238SOL    HW258325  11.959  13.981  11.965 -0.1283  1.0865 -0.8769
80239SOL     OW58326   5.475   9.838  10.908  0.6649  0.7740  0.9515
80239SOL    HW158327   5.467   9.746  10.932  0.8675  0.3282 -0.5993
80239SOL    HW258328   5.543   9.872  10.966 -0.3489  0.3171  2.4711
80240SOL     OW58329   8.234   1.530   5.872  0.3107  0.1407 -0.1665
80240SOL    HW158330   8.256   1.623   5.878  2.4412 -0.3109 -0.1819
80240SOL    HW258331   8.178   1.523   5.795  1.7590  1.1761 -1.3901
80241SOL     OW58332   5.587   1.540   1.125 -0.0843 -0.0587  0.2126
80241SOL    HW158333   5.520   1.515   1.188 -0.1973 -1.5840 -0.4562
80241SOL    HW258334   5.539   1.560   1.045  0.1394  0.7220  0.2652
80242SOL     OW58335   8.377   5.594  12.367 -0.2683  0.2854  0.2369
80242SOL    HW158336   8.299   5.539  12.359  0.1565 -0.3198  0.1486
80242SOL    HW258337   8.345   5.684  12.362 -0.9448  0.0370  0.1104
80243SOL     OW58338  11.395   1.786  10.248  0.1123  0.5310 -0.1490
80243SOL    HW158339  11.454   1.809  10.320  0.0540 -0.5923  0.2759
80243SOL    HW258340  11.444   1.806  10.168  0.0445  2.1182  0.1829
80244SOL     OW58341  12.009   5.866   7.446 -0.8978 -0.0386  0.3667
80244SOL    HW158342  12.018   5.779   7.486 -0.9666  1.0597  2.9616
80244SOL    HW258343  12.098   5.892   7.424 -0.8907 -0.7970 -0.5812
80245SOL     OW58344   2.779   1.669   7.662  0.3813  0.7171 -0.3358
80245SOL    HW158345   2.716   1.647   7.595 -0.8169 -1.0327  1.2548
80245SOL    HW258346   2.726   1.693   7.738  1.2623 -3.5890  2.0111
80246SOL     OW58347   7.583  14.054   2.624  0.2152  0.0043  0.0760
80246SOL    HW158348   7.582  14.097   2.709  0.0009  0.6259 -0.2345
80246SOL    HW258349   7.674  14.026   2.613 -0.1486 -1.9279  1.3914
80247SOL     OW58350   7.695  12.410   8.549  0.0966  0.0127  0.0960
80247SOL    HW158351   7.740  12.351   8.489 -0.2108 -0.1700  0.0421
80247SOL    HW258352   7.612  12.428   8.506 -0.4098 -0.6432  0.7670
80248SOL     OW58353   7.402  10.170   7.398  0.3503  0.0390 -0.3192
80248SOL    HW158354   7.452  10.092   7.371  0.5055  0.4566 -1.2878
80248SOL    HW258355   7.333  10.178   7.332  1.1107  1.4477 -0.9836
80249SOL     OW58356   5.202  11.654  13.838  0.0588  0.8436 -0.2328
80249SOL    HW158357   5.227  11.574  13.793  1.9199  1.0972  0.2916
80249SOL    HW258358   5.113  11.672  13.806 -1.3416 -2.5659  1.2924
80250SOL     OW58359   1.339  11.078   7.449 -0.2982  0.2493  0.5890
80250SOL    HW158360   1.401  11.017   7.489  0.9795  0.5661 -0.7951
80250SOL    HW258361   1.317  11.139   7.519 -1.0138 -1.3039  1.7932
80251SOL     OW58362   8.690   9.860   7.046 -0.2049  0.0994 -0.0145
80251SOL    HW158363   8.726   9.853   7.134  0.9279 -1.9524 -0.5884
80251SOL    HW258364   8.671   9.770   7.021 -0.5444  0.6525 -1.8745
80252SOL     OW58365  12.433  13.332   0.577 -0.4141  0.3279 -0.1959
80252SOL    HW158366  12.458  13.263   0.639  1.0562 -0.3132 -1.4101
80252SOL    HW258367  12.503  13.397   0.585 -0.9770  0.9280 -0.1590
80253SOL     OW58368  10.470   7.231   4.220  0.0038 -0.3733  0.6641
80253SOL    HW158369  10.551   7.218   4.170 -1.0428  0.2335 -1.2885
80253SOL    HW258370  10.455   7.146   4.263  0.8043 -1.0207 -0.2775
80254SOL     OW58371   1.038  13.466   5.135 -0.5299  0.1028 -0.5347
80254SOL    HW158372   1.090  13.456   5.055 -0.4281 -0.3819 -0.4127
80254SOL    HW258373   1.081  13.410   5.199 -1.5104 -0.7530 -0.5934
80255SOL     OW58374   1.370  14.082   0.427  0.5476  0.0199 -0.0218
80255SOL    HW158375   1.376  14.023   0.352  0.4532  0.3645 -0.3042
80255SOL    HW258376   1.351  14.167   0.389  0.3868  0.1775  0.4044
80256SOL     OW58377  11.464   3.502   1.555  0.2747  0.0661  0.4026
80256SOL    HW158378  11.437   3.410   1.559 -1.0735  0.4160  0.0702
80256SOL    HW258379  11.426   3.542   1.633 -1.2974  0.8287 -0.6868
80257SOL     OW58380  11.039  10.517  13.402 -0.1475 -1.0994 -0.2430
80257SOL    HW158381  10.970  10.483  13.459 -1.3933  1.7628  0.1570
80257SOL    HW258382  11.094  10.570  13.459  0.4432 -0.6856 -1.1599
80258SOL     OW58383  11.114   5.547   9.306 -0.4253 -0.3538  0.0372
80258SOL    HW158384  11.165   5.532   9.386  0.9314  1.3395 -0.4380
80258SOL    HW258385  11.064   5.467   9.294 -0.1906 -0.8995  2.2378
80259SOL     OW58386   7.756  10.501  12.748 -0.3878 -0.2412 -0.0088
80259SOL    HW158387   7.811  10.562  12.698 -0.7298  0.9511  1.0151
80259SOL    HW258388   7.729  10.551  12.825 -1.4910 -1.3891  0.3783
80260SOL     OW58389   3.765   2.077   8.768 -0.3042  0.1884  0.5425
80260SOL    HW158390   3.736   1.998   8.814 -1.8081  0.9074  0.8645
80260SOL    HW258391   3.719   2.075   8.685  1.5016 -0.4860 -0.4969
80261SOL     OW58392   7.810  11.067   3.446  0.3152  0.6850 -0.4152
80261SOL    HW158393   7.904  11.086   3.437 -0.1725  3.7456 -0.1063
80261SOL    HW258394   7.796  11.060   3.541  0.1983  0.3652 -0.4550
80262SOL     OW58395   0.954   6.056   7.031 -0.1230 -0.0957 -0.6283
80262SOL    HW158396   1.047   6.074   7.016 -0.1955 -0.3378 -1.4132
80262SOL    HW258397   0.929   6.118   7.100  0.1294  1.3673 -1.8074
80263SOL     OW58398   7.913   9.597   6.879 -0.0157 -0.1454 -0.5386
80263SOL    HW158399   7.897   9.621   6.788 -1.7811  0.6711 -0.0702
80263SOL    HW258400   7.947   9.678   6.919 -0.1596 -0.2176 -0.2685
80264SOL     OW58401   7.005   0.068  12.627 -0.0877 -1.1190  0.1083
80264SOL    HW158402   6.997  -0.026  12.646 -0.2902 -0.9779  0.7450
80264SOL    HW258403   6.942   0.110  12.687 -0.5462 -0.6338 -0.6966
80265SOL     OW58404   0.394   2.345  13.886 -0.0029 -0.2153 -0.1784
80265SOL    HW158405   0.398   2.438  13.862  0.8813 -0.3525 -0.5742
80265SOL    HW258406   0.363   2.346  13.977  1.2304  0.5377  0.2548
80266SOL     OW58407   5.640   1.516  13.153 -0.1497 -0.1099  0.0375
80266SOL    HW158408   5.614   1.424  13.159 -2.1869  0.3204 -1.1647
80266SOL    HW258409   5.715   1.523  13.211  0.6363 -2.7254 -0.5189
80267SOL     OW58410  10.077  13.163  12.755  0.7453  0.0045  0.2229
80267SOL    HW158411   9.986  13.182  12.778  0.8161  0.4439  0.1563
80267SOL    HW258412  10.096  13.080  12.798  0.3599 -0.0110  0.3666
80268SOL     OW58413   8.636   4.395  12.835  0.1527  0.4273 -0.2446
80268SOL    HW158414   8.607   4.463  12.897  1.2986 -0.1445  0.9599
80268SOL    HW258415   8.586   4.413  12.756  0.6607  2.9082 -0.1015
80269SOL     OW58416   0.899   6.208   6.254 -0.0738  0.0137 -0.4631
80269SOL    HW158417   0.980   6.159   6.239  0.2513  0.6087 -0.6456
80269SOL    HW258418   0.896   6.271   6.182 -0.6996 -0.0015 -0.4519
80270SOL     OW58419   8.522   2.806  12.616 -0.2245  0.4172 -0.7017
80270SOL    HW158420   8.430   2.823  12.636 -0.1135  0.3174 -0.0916
80270SOL    HW258421   8.548   2.737  12.676  0.7189  1.6498  0.3728
80271SOL     OW58422   0.202   8.199   3.104 -0.0875  0.2058  0.0571
80271SOL    HW158423   0.193   8.290   3.131  0.8183  0.1009  0.8144
80271SOL    HW258424   0.141   8.188   3.032  0.4467  1.6568 -0.6473
80272SOL     OW58425   8.590  10.838   8.064  0.3901  0.6612 -0.0863
80272SOL    HW158426   8.677  10.844   8.024  0.7203  1.7493  0.7473
80272SOL    HW258427   8.607  10.835   8.158 -0.4860  1.7385  0.1333
80273SOL     OW58428   9.065  12.851  13.579 -0.2591 -0.3279  0.1488
80273SOL    HW158429   9.150  12.862  13.622 -0.3088 -0.5145  0.2978
80273SOL    HW258430   9.047  12.757  13.587 -0.0397 -0.4503 -0.7115
80274SOL     OW58431  11.824   8.329   5.764 -0.3322 -0.3935 -0.1451
80274SOL    HW158432  11.750   8.375   5.724 -0.5638  0.0246  0.7506
80274SOL    HW258433  11.796   8.311   5.853  0.3957 -0.8189 -0.0002
80275SOL     OW58434   6.121   3.190  11.942 -0.1043  0.5178 -0.0700
80275SOL    HW158435   6.120   3.284  11.921 -2.8390  0.6532  0.2467
80275SOL    HW258436   6.034   3.173  11.977 -0.1306 -2.4298 -1.2921
80276SOL     OW58437   9.866   8.361   6.078  0.3553  0.1851  0.3581
80276SOL    HW158438   9.948   8.357   6.127  0.7440 -1.0822 -0.3360
80276SOL    HW258439   9.874   8.441   6.025  0.2688  1.1286  1.7248
80277SOL     OW58440  10.561  11.238   2.355  0.2320  0.2656 -0.0414
80277SOL    HW158441  10.626  11.175   2.386  0.1242  0.1725 -0.0012
80277SOL    HW258442  10.572  11.314   2.413  0.0141  0.0822  0.2446
80278SOL     OW58443   6.670   8.229   4.946 -0.0114  0.0329 -0.1700
80278SOL    HW158444   6.682   8.280   5.026  1.8739  0.0263 -0.4178
80278SOL    HW258445   6.705   8.283   4.876 -0.8519 -0.3246 -0.8881
80279SOL     OW58446  13.022  10.476  13.006 -0.8560  0.6523 -0.1196
80279SOL    HW158447  13.043  10.384  12.991 -1.3154  0.3237  1.1883
80279SOL    HW258448  12.930  10.484  12.981 -0.7263  0.8392 -0.5452
80280SOL     OW58449   4.530   7.532   2.700  0.6846  0.4376  0.1756
80280SOL    HW158450   4.606   7.581   2.671  1.0514  0.4620  1.1229
80280SOL    HW258451   4.539   7.529   2.796 -0.3520  0.1995  0.2800
80281SOL     OW58452  13.316   7.624   0.158  0.3845  0.0702 -0.0751
80281SOL    HW158453  13.353   7.583   0.236  0.6302  0.8150  0.2167
80281SOL    HW258454  13.363   7.708   0.151  1.0800 -0.4228 -1.6073
80282SOL     OW58455   7.695   5.322  13.759  0.6061 -0.4029 -0.1980
80282SOL    HW158456   7.767   5.314  13.698  1.5102  0.4040  0.7197
80282SOL    HW258457   7.712   5.404  13.806 -1.4453  0.3546 -0.6521
80283SOL     OW58458  12.031   8.893   8.766  0.6830 -0.0280 -0.1986
80283SOL    HW158459  12.051   8.936   8.683 -1.7501  1.2139 -0.2224
80283SOL    HW258460  12.034   8.964   8.831 -2.7637  0.1807 -0.1324
80284SOL     OW58461   9.239  10.701   8.270 -0.3045  0.3503 -0.2806
80284SOL    HW158462   9.308  10.767   8.266  0.4711 -0.4215 -0.1209
80284SOL    HW258463   9.272  10.636   8.332 -2.5024  1.4026  2.1667
80285SOL     OW58464   8.927   0.591   2.450 -0.6248 -0.1619  0.1722
80285SOL    HW158465   8.859   0.588   2.517 -0.1967  0.9107  0.6747
80285SOL    HW258466   8.986   0.661   2.478 -0.5307  0.4440 -1.4121
80286SOL     OW58467   9.981   9.132   1.482 -0.5518 -0.1580 -0.0044
80286SOL    HW158468  10.056   9.080   1.513 -0.3929 -0.3925 -0.7684
80286SOL    HW258469   9.953   9.088   1.402 -1.4061  0.0337  0.1816
80287SOL     OW58470   6.752   0.426   5.739 -0.5962  0.4176 -0.3460
80287SOL    HW158471   6.784   0.507   5.699  0.7196  0.0203 -0.1450
80287SOL    HW258472   6.828   0.389   5.784 -1.7369  0.2266  1.5245
80288SOL     OW58473  12.917   1.923   6.913  0.2562 -0.8621  0.6915
80288SOL    HW158474  12.974   1.963   6.979  0.2233 -1.1051  0.8681
80288SOL    HW258475  12.843   1.888   6.963 -0.6379  0.4592  0.3614
80289SOL     OW58476  12.851   0.258  13.739  0.1732  0.2870  0.0311
80289SOL    HW158477  12.784   0.321  13.766 -0.1274 -0.0629  0.1073
80289SOL    HW258478  12.802   0.179  13.716  0.6506 -0.5369  1.6401
80290SOL     OW58479   3.139  12.042   7.004  0.6326  0.3567 -0.1254
80290SOL    HW158480   3.116  12.099   7.077 -0.4403 -1.1892  0.7949
80290SOL    HW258481   3.192  11.973   7.043 -1.8380 -1.7819 -0.2572
80291SOL     OW58482   9.691   0.257   6.347 -0.5929 -0.2027 -0.1968
80291SOL    HW158483   9.604   0.236   6.381 -0.6396  0.0818 -0.1357
80291SOL    HW258484   9.674   0.300   6.263 -0.4147 -3.3975 -2.0380
80292SOL     OW58485   3.927   5.683   5.551 -0.0942 -0.0665  0.1171
80292SOL    HW158486   4.000   5.654   5.606 -0.3647 -1.1156 -0.0578
80292SOL    HW258487   3.918   5.776   5.570  0.1295 -0.3051  1.4841
80293SOL     OW58488   2.266   3.420   3.444  0.4112  0.2239  0.2970
80293SOL    HW158489   2.175   3.390   3.450  0.4320 -0.2513 -1.3364
80293SOL    HW258490   2.305   3.393   3.527 -0.2576 -2.0128 -0.0366
80294SOL     OW58491   7.259   1.085  12.785 -0.4453  0.0481 -0.5232
80294SOL    HW158492   7.228   1.073  12.696  0.4640 -0.9747 -0.7208
80294SOL    HW258493   7.202   1.029  12.838 -0.1747 -0.3512 -0.6441
80295SOL     OW58494   9.212  12.340  10.734 -0.0577 -0.0587  1.0788
80295SOL    HW158495   9.176  12.366  10.649  3.2339 -1.5302 -1.0089
80295SOL    HW258496   9.183  12.249  10.745 -0.2735  0.0485  1.3986
80296SOL     OW58497   7.775   4.189   5.092 -0.0665  0.0055  0.2390
80296SOL    HW158498   7.821   4.134   5.029  0.0112  0.2376  0.0929
80296SOL    HW258499   7.744   4.128   5.159  0.9972 -0.0819  0.6718
80297SOL     OW58500   3.964   5.614  10.314  0.3298 -0.7805 -0.2273
80297SOL    HW158501   3.927   5.573  10.236  0.4811 -0.2129 -0.6061
80297SOL    HW258502   3.889   5.647  10.362  0.3258  0.6045 -1.1274
80298SOL     OW58503   3.096  11.276   1.942  0.4443  0.0338  0.2913
80298SOL    HW158504   3.122  11.241   2.027  3.0785  0.7152 -0.1561
80298SOL    HW258505   3.049  11.204   1.900  1.1203 -1.1051  1.4256
80299SOL     OW58506   9.377   5.792  12.678  0.1697 -0.2554  0.4936
80299SOL    HW158507   9.312   5.823  12.615 -0.6357 -0.6096  1.1325
80299SOL    HW258508   9.326   5.747  12.745  1.0277 -0.0915  1.2822
80300SOL     OW58509  12.316   0.518   9.104  0.2000  0.0368 -0.0783
80300SOL    HW158510  12.394   0.526   9.049 -0.4388  0.0982 -1.0116
80300SOL    HW258511  12.343   0.464   9.178  1.1050  0.0069 -0.4253
80301SOL     OW58512  10.984  12.970   1.883 -0.0480 -0.8510 -0.4366
80301SOL    HW158513  11.047  13.036   1.853 -0.6017  0.8234  1.7836
80301SOL    HW258514  10.913  12.974   1.819 -0.3352  1.2031 -0.0564
80302SOL     OW58515   4.695   1.305   2.001  0.2511  0.2950  0.0877
80302SOL    HW158516   4.732   1.289   1.915 -1.8256  0.0535 -0.8259
80302SOL    HW258517   4.721   1.394   2.023  2.3263 -0.2603  0.0800
80303SOL     OW58518   8.617   0.519  10.000  0.1561 -0.2276 -0.0650
80303SOL    HW158519   8.528   0.554   9.994 -0.1145 -1.1324 -1.8926
80303SOL    HW258520   8.609   0.440  10.054 -0.4653 -1.1381 -1.4311
80304SOL     OW58521  12.739  12.413  10.169 -0.0172  0.4643 -0.0724
80304SOL    HW158522  12.652  12.383  10.144 -0.1888 -0.0180  1.0539
80304SOL    HW258523  12.768  12.350  10.236  1.0234  0.8502 -0.1505
80305SOL     OW58524   6.483   6.626  11.091  0.4857 -0.0720  0.8296
80305SOL    HW158525   6.525   6.686  11.153  0.5497  0.4661  0.2768
80305SOL    HW258526   6.465   6.547  11.143 -0.6284  0.8231  1.8638
80306SOL     OW58527   1.564  12.917  12.800 -0.5216  0.1925  0.1138
80306SOL    HW158528   1.547  12.842  12.857 -0.7875  1.3617  1.6490
80306SOL    HW258529   1.659  12.923  12.797 -0.3236 -2.2202 -2.8680
80307SOL     OW58530   0.097   1.515  14.005 -0.6397 -0.2072  0.1272
80307SOL    HW158531   0.075   1.436  14.055 -0.4989  0.2376  0.9188
80307SOL    HW258532   0.110   1.484  13.916  0.4309 -1.2604  0.6054
80308SOL     OW58533   8.195  13.028   7.706  0.1857 -0.1012  0.6491
80308SOL    HW158534   8.121  13.082   7.732  0.3606  0.7337 -0.5185
80308SOL    HW258535   8.242  13.011   7.788 -0.8150  0.0563  1.2741
80309SOL     OW58536   5.937   4.503   2.661 -0.1245 -0.2505  0.9957
80309SOL    HW158537   5.894   4.544   2.737 -1.0794 -0.0458  0.3653
80309SOL    HW258538   5.870   4.504   2.593  0.5035 -1.0530  0.3537
80310SOL     OW58539   7.751  10.016   2.467  0.2993  0.3993 -0.6693
80310SOL    HW158540   7.846  10.012   2.473  0.2344 -1.4959  0.2061
80310SOL    HW258541   7.733  10.051   2.380  1.7817  1.3048 -0.6406
80311SOL     OW58542   5.767   8.893   4.234 -0.7842  0.1985  0.3043
80311SOL    HW158543   5.700   8.947   4.191 -0.5188 -0.9813 -1.7345
80311SOL    HW258544   5.846   8.910   4.183  0.2732  0.8302  2.0841
80312SOL     OW58545   9.303  13.613   2.525 -0.3423  0.3728 -0.0891
80312SOL    HW158546   9.373  13.659   2.570 -2.2931  0.5137  3.0962
80312SOL    HW258547   9.316  13.521   2.547  0.5052 -0.0443 -2.0683
80313SOL     OW58548   0.667   8.475   6.043  0.2642 -0.3691  0.1736
80313SOL    HW158549   0.640   8.557   6.002  0.5067  0.2063  1.1370
80313SOL    HW258550   0.589   8.444   6.089  0.3375 -0.3644  0.3025
80314SOL     OW58551   4.501  13.881  10.671 -0.1906 -0.3469  0.0867
80314SOL    HW158552   4.453  13.964  10.665 -1.2407 -1.0403 -2.8980
80314SOL    HW258553   4.433  13.814  10.670  0.7197 -1.2873 -0.4203
80315SOL     OW58554  11.092   6.877  10.859  0.0335 -0.1280 -0.3038
80315SOL    HW158555  10.998   6.893  10.863  0.4442  2.4065  1.3028
80315SOL    HW258556  11.103   6.789  10.896 -1.7314 -0.9059 -1.5105
80316SOL     OW58557   6.965  13.667  11.244 -0.3993  0.3183 -0.0744
80316SOL    HW158558   6.877  13.633  11.259  0.0014 -0.4330  0.6298
80316SOL    HW258559   6.976  13.666  11.149 -1.0632  0.1861 -0.1502
80317SOL     OW58560   3.607   0.865   7.669 -0.2045 -0.7284 -0.0540
80317SOL    HW158561   3.525   0.845   7.716 -0.4580 -0.2149 -0.2692
80317SOL    HW258562   3.582   0.868   7.577 -0.1225  0.2701 -0.0552
80318SOL     OW58563   7.799   1.985   9.717  0.1817  0.0638 -0.5279
80318SOL    HW158564   7.763   1.896   9.721  1.3661 -0.4424 -0.9094
80318SOL    HW258565   7.852   1.986   9.638  2.0519  0.3870  0.6820
80319SOL     OW58566  10.017   0.672  10.272  0.0936  0.8732  0.4985
80319SOL    HW158567  10.097   0.626  10.247 -0.4156  1.0647 -1.6539
80319SOL    HW258568   9.970   0.609  10.326  1.2720  0.4180  1.0325
80320SOL     OW58569   2.496   1.282   6.052  0.0683  0.7192 -0.4142
80320SOL    HW158570   2.492   1.299   5.958 -1.2610 -1.9326 -0.9432
80320SOL    HW258571   2.412   1.241   6.073  0.7561  0.2336  1.6968
80321SOL     OW58572   1.183   7.830  11.688 -0.3541 -0.1816 -0.2347
80321SOL    HW158573   1.195   7.923  11.707 -0.8583  0.1580 -1.4986
80321SOL    HW258574   1.213   7.786  11.768  1.5647  0.9622 -0.2560
80322SOL     OW58575  13.577   4.618  12.253  0.2116 -0.0729  0.2172
80322SOL    HW158576  13.601   4.537  12.299  0.0218 -0.5015 -0.4238
80322SOL    HW258577  13.661   4.653  12.221  0.1477 -0.9317 -0.9782
80323SOL     OW58578   5.258   9.868   3.144  0.0976  0.3010 -0.2723
80323SOL    HW158579   5.206   9.819   3.207 -0.6648  1.0109 -0.3279
80323SOL    HW258580   5.338   9.890   3.191 -0.4447  0.7851  0.4416
80324SOL     OW58581   7.711  11.980   0.417 -0.1192 -0.2888 -0.1350
80324SOL    HW158582   7.797  11.949   0.386 -0.2642  0.1520 -1.0007
80324SOL    HW258583   7.730  12.021   0.501  0.5618 -0.0170 -0.4119
80325SOL     OW58584   4.188   4.798  14.067  0.7269 -0.3873  0.1486
80325SOL    HW158585   4.235   4.755  14.138  1.4283  0.6862  0.3544
80325SOL    HW258586   4.140   4.727  14.024 -0.5992 -0.9227  2.3404
80326SOL     OW58587  13.195   8.532   3.382  0.7260  0.3873  0.4158
80326SOL    HW158588  13.183   8.549   3.288  0.1287 -1.1792  0.1839
80326SOL    HW258589  13.290   8.535   3.394  0.7954  0.9118 -0.1809
80327SOL     OW58590   0.295   0.258   2.951  0.4833 -0.1219 -0.0452
80327SOL    HW158591   0.302   0.253   3.047  0.1881  2.0184  0.1205
80327SOL    HW258592   0.343   0.181   2.920  1.3874 -0.3542  1.7972
80328SOL     OW58593   0.522  12.066  13.185 -0.7260 -0.2715  0.5884
80328SOL    HW158594   0.551  12.058  13.094 -0.2719 -0.0005  0.7036
80328SOL    HW258595   0.518  12.161  13.200  0.7529 -0.2914  1.3222
80329SOL     OW58596   3.706   9.098   3.824  0.4901 -0.5332 -0.0686
80329SOL    HW158597   3.779   9.149   3.859  0.0818 -0.6617  0.9978
80329SOL    HW258598   3.695   9.026   3.886  0.0600 -1.0475 -0.7270
80330SOL     OW58599   0.887  12.125   0.957 -0.0973  0.5854  0.0959
80330SOL    HW158600   0.969  12.085   0.929  0.1977  0.4691  1.1178
80330SOL    HW258601   0.869  12.191   0.889  1.2232  1.1278  0.2439
80331SOL     OW58602   1.224   6.390  12.489 -0.3873  0.1854 -0.3599
80331SOL    HW158603   1.315   6.361  12.484 -0.2596  0.7830 -2.1558
80331SOL    HW258604   1.228   6.485  12.481 -1.1793  0.1969 -0.7421
80332SOL     OW58605  12.533  12.586   8.251 -0.3754 -0.4479  0.5846
80332SOL    HW158606  12.555  12.587   8.344 -1.7081 -1.1266  0.9480
80332SOL    HW258607  12.446  12.545   8.248 -2.5320  3.6386 -0.4916
80333SOL     OW58608   5.455   6.680  13.811  0.0172  0.2873  0.2655
80333SOL    HW158609   5.493   6.592  13.818 -0.5746  0.0939  1.2262
80333SOL    HW258610   5.515   6.728  13.754  0.5409 -0.6353  0.0268
80334SOL     OW58611   0.027   7.235  10.938  0.4870  0.3034  0.4870
80334SOL    HW158612   0.111   7.260  10.976  1.8734 -3.6057  0.4041
80334SOL    HW258613   0.049   7.210  10.848 -0.9310 -0.0601  0.2282
80335SOL     OW58614   2.099   7.753   0.848 -0.7406 -0.0528 -0.1811
80335SOL    HW158615   2.140   7.773   0.933 -0.9289 -0.5357  0.0315
80335SOL    HW258616   2.006   7.744   0.868 -0.7794 -0.2166 -0.4292
80336SOL     OW58617   0.640  11.982   5.591 -0.2394 -0.1465 -0.0820
80336SOL    HW158618   0.650  11.952   5.500 -1.7287 -0.2492 -0.2502
80336SOL    HW258619   0.726  11.969   5.630  0.3614 -0.3799 -1.3974
80337SOL     OW58620   2.855   8.122   4.195  0.3128 -0.0636  0.5999
80337SOL    HW158621   2.824   8.045   4.243 -2.2667  1.2918  1.3107
80337SOL    HW258622   2.783   8.185   4.201  1.2887  1.5051 -2.0975
80338SOL     OW58623   0.801   3.978   4.533  0.0171  0.3468 -0.1197
80338SOL    HW158624   0.741   3.978   4.608  0.3304 -1.3430  0.1853
80338SOL    HW258625   0.803   4.069   4.503 -0.4154  0.9981  1.6848
80339SOL     OW58626  13.920   9.037   0.511  0.4285  0.6503  0.1216
80339SOL    HW158627  13.973   9.024   0.432 -0.0921 -1.1388  0.0287
80339SOL    HW258628  13.878   9.122   0.498 -0.2998  0.0276 -1.9470
80340SOL     OW58629   8.773   7.363   0.212 -0.1043 -0.1037 -0.3312
80340SOL    HW158630   8.685   7.374   0.249  0.0152 -2.1404  0.7380
80340SOL    HW258631   8.832   7.379   0.286  0.5791  2.7678 -1.3899
80341SOL     OW58632   8.483  10.352   8.392  0.2635 -0.1028 -0.3039
80341SOL    HW158633   8.396  10.333   8.356  0.0176 -0.9395  0.6853
80341SOL    HW258634   8.544  10.328   8.322 -0.1953 -1.8419 -0.1532
80342SOL     OW58635   3.265   1.349   2.484 -0.0335  0.1273 -0.6258
80342SOL    HW158636   3.291   1.328   2.574 -1.2160 -0.4786 -0.4113
80342SOL    HW258637   3.194   1.288   2.465 -1.5411  1.9666 -1.0822
80343SOL     OW58638  10.641   5.355   6.799  0.0907  0.2402  0.6438
80343SOL    HW158639  10.605   5.342   6.887 -2.8876 -1.4888 -0.6747
80343SOL    HW258640  10.617   5.445   6.776 -0.0169  0.3635  1.2194
80344SOL     OW58641   7.186   1.920   5.249  0.3568 -0.0860 -0.0270
80344SOL    HW158642   7.095   1.912   5.277  1.1128 -2.8750  2.0600
80344SOL    HW258643   7.193   1.863   5.173  0.6058 -0.7775  0.5127
80345SOL     OW58644  13.757  13.741   8.988  0.4326 -0.0190 -0.1232
80345SOL    HW158645  13.684  13.703   9.036  0.1128  0.5573 -0.1527
80345SOL    HW258646  13.788  13.812   9.043  1.9671 -1.2149  0.6218
80346SOL     OW58647   4.385  11.666   2.003 -0.2839  0.3313  0.3117
80346SOL    HW158648   4.391  11.591   1.943  0.4263  0.3642  0.3331
80346SOL    HW258649   4.470  11.710   1.994 -0.7631  1.2344  0.1679
80347SOL     OW58650   1.438   7.425  10.193 -0.1344 -0.2516 -0.2641
80347SOL    HW158651   1.481   7.431  10.279 -0.4669  0.0673 -0.1157
80347SOL    HW258652   1.356   7.474  10.204 -0.1048 -0.0768 -0.8115
80348SOL     OW58653   2.149   6.556  10.871  0.3297  0.4254  0.1263
80348SOL    HW158654   2.187   6.515  10.949 -1.5850  0.4648  1.1434
80348SOL    HW258655   2.130   6.482  10.813 -0.0405  0.1809  0.5460
80349SOL     OW58656   0.791   3.665   4.752  0.0940 -0.0203 -0.0235
80349SOL    HW158657   0.708   3.626   4.726  1.0386 -1.7261 -0.6949
80349SOL    HW258658   0.857   3.620   4.699  1.4927  0.9900  0.7540
80350SOL     OW58659  12.427   1.907   3.077 -0.3582 -0.5269  0.0253
80350SOL    HW158660  12.429   2.001   3.093 -0.4582 -0.8997  2.8562
80350SOL    HW258661  12.519   1.881   3.075 -0.3376 -0.6225  1.4108
80351SOL     OW58662   6.271  13.251   1.961  0.3221  0.1202  0.2684
80351SOL    HW158663   6.312  13.332   1.931  0.3445 -0.3788 -1.1409
80351SOL    HW258664   6.184  13.277   1.991  0.0886  0.5907 -0.7814
80352SOL     OW58665   5.986  13.097   9.156 -0.0349 -0.4604 -0.0127
80352SOL    HW158666   6.044  13.029   9.191  0.7013 -0.5521 -1.3396
80352SOL    HW258667   5.898  13.068   9.180  0.4489  0.2860  3.0844
80353SOL     OW58668   1.081   4.840   8.100  0.0682  0.3926 -0.1082
80353SOL    HW158669   1.163   4.818   8.055 -0.1793 -0.8630  0.0217
80353SOL    HW258670   1.068   4.933   8.081  1.0662  0.4014 -0.8585
80354SOL     OW58671   6.064   3.891  14.021  0.1027 -0.3717  0.3992
80354SOL    HW158672   6.129   3.848  14.077 -0.2859 -2.4441 -0.6570
80354SOL    HW258673   5.980   3.856  14.050 -0.1703 -0.8796 -0.9369
80355SOL     OW58674   2.190   0.853  12.605  0.3111 -0.3183  0.0221
80355SOL    HW158675   2.236   0.784  12.651  4.2414  2.1998  0.3224
80355SOL    HW258676   2.223   0.849  12.515  0.0166  0.6766 -0.1487
80356SOL     OW58677  12.062  10.091  13.190  0.1644  0.2206 -0.6994
80356SOL    HW158678  12.103  10.089  13.276 -0.0006 -0.8637 -0.6280
80356SOL    HW258679  12.083  10.177  13.155 -0.7983  1.1651  0.9233
80357SOL     OW58680   1.711  11.419   5.538 -0.4963 -0.2521  0.0583
80357SOL    HW158681   1.795  11.465   5.542 -0.0423 -1.1155  0.8789
80357SOL    HW258682   1.647  11.488   5.519  0.1260  0.7694  1.4969
80358SOL     OW58683   5.366   3.994   6.366  0.3181  0.0284 -0.0449
80358SOL    HW158684   5.283   3.966   6.404 -0.8637  0.9191 -1.7857
80358SOL    HW258685   5.408   4.045   6.435 -1.0114  0.3206  0.5921
80359SOL     OW58686   4.367   5.537   9.302 -0.3526  0.0291 -0.2792
80359SOL    HW158687   4.448   5.587   9.304  0.5078 -1.2125 -2.0053
80359SOL    HW258688   4.319   5.567   9.379  0.7047  2.4674 -0.4816
80360SOL     OW58689   3.905   1.366  10.337  0.2018 -0.0297 -0.1020
80360SOL    HW158690   3.944   1.279  10.339 -0.3587 -0.2885  1.2470
80360SOL    HW258691   3.970   1.422  10.296  0.9097 -0.9365 -0.2301
80361SOL     OW58692   1.419   0.338  10.910 -0.9603 -0.0716  0.3681
80361SOL    HW158693   1.491   0.282  10.937 -1.0145  0.1347  0.9640
80361SOL    HW258694   1.454   0.427  10.916 -0.5562 -0.0741 -1.5454
80362SOL     OW58695  12.217   1.679   9.662 -0.0399 -0.2501  0.3481
80362SOL    HW158696  12.239   1.657   9.753 -0.8057 -1.7157  0.2092
80362SOL    HW258697  12.275   1.624   9.609 -0.7655 -0.6769 -0.0263
80363SOL     OW58698   0.601   8.912   3.043 -0.1685  0.0319 -0.2882
80363SOL    HW158699   0.560   8.900   2.957 -0.6858 -1.1612  0.0980
80363SOL    HW258700   0.632   8.825   3.067 -1.3646  0.0027  1.3795
80364SOL     OW58701   8.645   6.384   2.133 -0.3424  0.2154  0.1578
80364SOL    HW158702   8.635   6.384   2.229  1.2504  1.6022  0.3766
80364SOL    HW258703   8.726   6.337   2.117 -0.4277  0.2780 -0.4781
80365SOL     OW58704   1.706   3.967   0.943 -0.4742 -0.5563 -0.3857
80365SOL    HW158705   1.705   4.057   0.910  0.3094  0.3068  1.7959
80365SOL    HW258706   1.797   3.939   0.931 -0.4188 -0.5878  0.1001
80366SOL     OW58707   0.673   0.407   5.841 -0.2078  0.2001 -0.1073
80366SOL    HW158708   0.670   0.378   5.750  0.5458  2.5270 -0.9566
80366SOL    HW258709   0.763   0.390   5.869 -0.2836  0.0036  0.0194
80367SOL     OW58710   2.352  11.602  12.690  0.4769  0.6574 -0.3754
80367SOL    HW158711   2.371  11.598  12.596 -1.6016 -0.1437 -0.8145
80367SOL    HW258712   2.357  11.695  12.712 -0.8016  1.0828 -1.7291
80368SOL     OW58713   4.436   4.954  14.026  0.4934  0.3065  0.3589
80368SOL    HW158714   4.452   4.962  13.932 -0.1184  0.0239  0.2309
80368SOL    HW258715   4.349   4.916  14.033  0.4259  0.5707  1.0474
80369SOL     OW58716   1.469   6.166   0.369  0.7400 -0.0394  0.2694
80369SOL    HW158717   1.532   6.216   0.421 -0.0560  1.7934 -0.4599
80369SOL    HW258718   1.388   6.170   0.418  0.6812 -0.7373  0.2487
80370SOL     OW58719   6.115  11.127   7.736 -0.1255  0.0189  0.6104
80370SOL    HW158720   6.199  11.105   7.695  0.0155  2.5503 -0.6996
80370SOL    HW258721   6.122  11.092   7.824  2.1338 -0.2656  0.3938
80371SOL     OW58722   8.307   8.321   3.923  0.5872  0.1167  0.0960
80371SOL    HW158723   8.308   8.395   3.862 -0.2846 -0.7227 -0.9896
80371SOL    HW258724   8.283   8.246   3.868 -0.0386 -0.7041  1.4425
80372SOL     OW58725   8.468   9.972  12.667 -0.6414  0.1948  0.1791
80372SOL    HW158726   8.533  10.043  12.668 -2.4859  2.0034  0.1343
80372SOL    HW258727   8.408   9.995  12.596 -1.7337 -0.9949  0.6744
80373SOL     OW58728  11.695   4.357   3.223 -0.4381 -0.4647 -0.2002
80373SOL    HW158729  11.662   4.359   3.133 -0.5422  0.5195 -0.1535
80373SOL    HW258730  11.718   4.265   3.238 -1.6084 -0.8804 -0.7969
80374SOL     OW58731   7.422   4.445   5.528 -0.2893 -0.2860  0.1350
80374SOL    HW158732   7.512   4.415   5.540 -0.0958  0.1255 -0.2320
80374SOL    HW258733   7.421   4.483   5.440 -0.7541 -0.0483  0.2378
80375SOL     OW58734   2.317   5.876   2.648  0.1866  0.3937  0.6296
80375SOL    HW158735   2.364   5.852   2.728  0.8795  2.5088  0.9350
80375SOL    HW258736   2.237   5.920   2.680  0.5981  1.4939  0.2108
80376SOL     OW58737   4.876   3.750   7.177 -0.1137 -0.4363 -0.4327
80376SOL    HW158738   4.808   3.817   7.186  0.4930  0.2756 -1.0224
80376SOL    HW258739   4.871   3.723   7.085 -0.1740 -1.0123 -0.2636
80377SOL     OW58740   0.897   7.071   8.791 -0.1939 -0.4198  0.1783
80377SOL    HW158741   0.969   7.042   8.735  0.0034  0.8568 -0.2502
80377SOL    HW258742   0.838   6.995   8.795  0.3753 -0.9288 -0.7928
80378SOL     OW58743   9.044  13.731   5.372  0.1467  0.6739 -0.6840
80378SOL    HW158744   9.066  13.644   5.339 -1.8361  0.0253 -0.4088
80378SOL    HW258745   9.105  13.789   5.327  1.5480 -0.8415 -0.8370
80379SOL     OW58746  10.307   4.106   4.993  0.7352  0.3231 -0.0200
80379SOL    HW158747  10.302   4.117   5.088  0.4198  0.6420 -0.0727
80379SOL    HW258748  10.337   4.190   4.961  0.4266  0.3494 -0.2401
80380SOL     OW58749   2.434  10.518   8.516 -0.0194 -0.0300  0.1132
80380SOL    HW158750   2.528  10.533   8.513  0.1693 -1.2410 -0.4681
80380SOL    HW258751   2.424  10.423   8.518 -1.2175  0.0841  1.2329
80381SOL     OW58752   3.418   5.092   0.274 -0.0158  0.4786  0.3331
80381SOL    HW158753   3.334   5.132   0.252 -0.7336 -1.4278 -0.6736
80381SOL    HW258754   3.475   5.113   0.201 -0.7273 -1.1603 -0.7595
80382SOL     OW58755  10.538   2.374   7.768  0.1767  0.4891 -0.1338
80382SOL    HW158756  10.475   2.303   7.758  2.0604 -1.1705 -0.7845
80382SOL    HW258757  10.503   2.444   7.712 -1.9589  0.3271  0.8842
80383SOL     OW58758   7.557  13.884  12.880 -0.5842 -0.1742 -0.1852
80383SOL    HW158759   7.585  13.967  12.842  0.3339 -0.4986 -0.2505
80383SOL    HW258760   7.601  13.817  12.827  1.7354 -0.6381  2.1248
80384SOL     OW58761  12.516  12.233   4.565 -0.2042  0.0886  0.3988
80384SOL    HW158762  12.545  12.304   4.508 -3.8466  0.8826 -0.7318
80384SOL    HW258763  12.516  12.156   4.508  2.3069 -0.6224  1.2248
80385SOL     OW58764   1.676   3.863   6.141  0.1817 -0.3724 -0.0068
80385SOL    HW158765   1.582   3.866   6.160  0.3459  1.6654  0.6841
80385SOL    HW258766   1.692   3.940   6.087  1.3655 -1.0332 -0.6287
80386SOL     OW58767   0.226   1.574  11.441 -0.2898 -0.1331  0.2433
80386SOL    HW158768   0.304   1.543  11.394  0.8882 -1.0243  2.6168
80386SOL    HW258769   0.261   1.627  11.513 -1.7271 -1.6887  2.1989
80387SOL     OW58770   7.897   1.553  11.683 -0.5071 -1.0269  0.2178
80387SOL    HW158771   7.968   1.581  11.741  1.1550 -1.3803 -1.5391
80387SOL    HW258772   7.819   1.551  11.739  0.8560 -0.6306  2.2224
80388SOL     OW58773  13.253   4.767  10.555  0.2557  0.1455  0.2091
80388SOL    HW158774  13.288   4.685  10.518  1.8473 -0.1102  2.1182
80388SOL    HW258775  13.163   4.772  10.522  0.5867 -1.6141 -1.1144
80389SOL     OW58776   3.709   8.503   9.943 -0.6583 -0.1454  0.1917
80389SOL    HW158777   3.747   8.537  10.025  0.2981  2.3282 -1.1729
80389SOL    HW258778   3.750   8.417   9.932  2.1012  1.0198  0.4769
80390SOL     OW58779   1.324   8.574   5.550  0.1818  0.2820 -0.0209
80390SOL    HW158780   1.382   8.542   5.620  0.2119  0.6185  0.1087
80390SOL    HW258781   1.300   8.495   5.501 -0.5111 -0.0832  0.8738
80391SOL     OW58782  10.967   8.653   3.767  0.2448 -0.4339 -0.2954
80391SOL    HW158783  10.910   8.603   3.708  1.5627 -0.5183 -1.5531
80391SOL    HW258784  10.924   8.737   3.776 -0.2470 -0.5954 -0.9991
80392SOL     OW58785  12.469  13.448  11.987 -0.8871 -0.2439 -0.5169
80392SOL    HW158786  12.510  13.365  11.961 -0.1408  0.6318 -2.3871
80392SOL    HW258787  12.508  13.513  11.928  0.8144  2.0258  2.7694
80393SOL     OW58788   4.752   2.566   2.549  0.0977 -0.3270  0.2803
80393SOL    HW158789   4.765   2.631   2.480 -0.0102 -0.6824 -0.0799
80393SOL    HW258790   4.745   2.617   2.629  1.9771  0.0125  0.2788
80394SOL     OW58791  10.921  11.743   3.344 -0.4465  0.0406  0.7112
80394SOL    HW158792  10.987  11.808   3.320  0.2002 -0.4463  1.1239
80394SOL    HW258793  10.879  11.779   3.422  1.3089 -0.9260  2.1825
80395SOL     OW58794   8.999  12.135  13.798  0.2414  0.5640 -0.3703
80395SOL    HW158795   8.932  12.197  13.768 -0.3561  0.7122  1.2015
80395SOL    HW258796   9.056  12.187  13.854  2.2683  0.6559 -2.4072
80396SOL     OW58797   9.101   4.226   7.348  0.3317 -0.1487 -0.0545
80396SOL    HW158798   9.075   4.139   7.318  1.1446 -0.2526 -0.4890
80396SOL    HW258799   9.063   4.286   7.284 -1.4336 -0.0575  1.0226
80397SOL     OW58800   0.455   0.815  10.809 -0.4525 -0.3165 -0.6944
80397SOL    HW158801   0.485   0.848  10.894 -1.2120 -0.5917 -0.3119
80397SOL    HW258802   0.373   0.862  10.793 -0.4943 -0.5279 -1.1113
80398SOL     OW58803   3.733   3.341   3.585  0.4914  0.2927 -0.6500
80398SOL    HW158804   3.681   3.374   3.511  1.0337  1.4439 -0.5460
80398SOL    HW258805   3.770   3.420   3.625  0.8114 -0.3729  0.4057
80399SOL     OW58806   1.796  13.691   7.750  0.2169  0.3160 -0.0367
80399SOL    HW158807   1.780  13.784   7.768  1.7163  0.2629  1.8448
80399SOL    HW258808   1.713  13.648   7.772  0.3454  0.9140  1.7393
80400SOL     OW58809   0.105  12.851  11.404 -0.1276  0.2271  0.0334
80400SOL    HW158810   0.140  12.910  11.470 -0.9340  0.7553  0.0120
80400SOL    HW258811   0.144  12.766  11.423 -1.5022  0.0098  2.1541
80401SOL     OW58812   3.033   9.526   7.424  0.0376 -0.2550  0.3178
80401SOL    HW158813   3.071   9.595   7.370 -2.5517  0.7899 -0.3021
80401SOL    HW258814   3.061   9.444   7.383  0.1327  0.4900 -1.1340
80402SOL     OW58815   8.763  10.919   1.354  0.4962 -0.6768 -0.2043
80402SOL    HW158816   8.792  10.845   1.408  1.9698 -0.9509 -1.2715
80402SOL    HW258817   8.675  10.894   1.325 -1.1746  0.3383  3.4709
80403SOL     OW58818   1.600   0.040  11.302 -0.6411  1.3247 -0.1921
80403SOL    HW158819   1.586   0.031  11.396  0.0256 -1.6484 -0.3047
80403SOL    HW258820   1.519   0.007  11.262  0.1627 -0.1584 -0.6539
80404SOL     OW58821  10.246   5.503   0.506 -1.1526 -0.8176 -0.5401
80404SOL    HW158822  10.328   5.476   0.464 -0.4022  1.7916 -0.9443
80404SOL    HW258823  10.269   5.514   0.598 -1.2839 -0.9211 -0.4948
80405SOL     OW58824  12.799  11.387  11.200 -0.0902  0.5197  0.0671
80405SOL    HW158825  12.706  11.403  11.182 -0.2598  1.7108  1.8257
80405SOL    HW258826  12.845  11.436  11.131 -0.7592  3.0478  1.2730
80406SOL     OW58827  13.434   1.650   0.264  0.0178  0.5014 -0.1941
80406SOL    HW158828  13.342   1.631   0.279  1.0922 -3.6163  2.8097
80406SOL    HW258829  13.457   1.714   0.330 -0.5651  1.3040 -0.7527
80407SOL     OW58830   4.803   7.801  10.680 -0.2606  0.3769 -0.4386
80407SOL    HW158831   4.774   7.890  10.663 -0.7109  0.5091  0.8836
80407SOL    HW258832   4.724   7.748  10.668 -0.1226  0.2223 -0.6755
80408SOL     OW58833  11.284   3.546   6.746  0.2749  0.1695 -0.7760
80408SOL    HW158834  11.266   3.640   6.744 -0.5856  0.0730  0.9105
80408SOL    HW258835  11.201   3.505   6.723  0.0317 -0.1900  0.6462
80409SOL     OW58836   5.900   8.829  12.085 -0.2620  0.7309 -0.0542
80409SOL    HW158837   5.841   8.876  12.027 -0.2723 -0.0936 -0.7223
80409SOL    HW258838   5.842   8.780  12.144 -0.2545 -0.2195 -0.8254
80410SOL     OW58839   2.751   9.382   6.181  0.2989  0.0622 -0.2204
80410SOL    HW158840   2.797   9.328   6.246  0.4529  1.6121  1.0503
80410SOL    HW258841   2.659   9.369   6.200  0.2722 -0.8943 -0.9290
80411SOL     OW58842   1.997   1.608   3.494  0.2690 -0.3709 -0.5775
80411SOL    HW158843   2.030   1.687   3.538 -2.7784  0.6660  0.1486
80411SOL    HW258844   2.058   1.593   3.422  1.9779  1.5654  0.3638
80412SOL     OW58845   4.068   8.734  11.588  0.0493  0.4388 -0.8161
80412SOL    HW158846   4.030   8.760  11.673 -0.9128 -0.5462 -0.9146
80412SOL    HW258847   4.123   8.659  11.609 -0.0607  0.2954 -1.0471
80413SOL     OW58848   6.658  11.918  11.948  0.3168 -0.5292  0.1569
80413SOL    HW158849   6.634  11.970  11.871  0.1486 -1.1649 -0.2294
80413SOL    HW258850   6.620  11.965  12.022  0.1939 -0.0911 -0.1826
80414SOL     OW58851   7.251   2.489  10.920  0.1279 -0.1782 -0.2872
80414SOL    HW158852   7.207   2.483  11.004 -0.2149  1.2886 -0.3402
80414SOL    HW258853   7.254   2.583  10.900  0.2665 -0.4801 -1.8662
80415SOL     OW58854   4.641   3.251   7.577  0.1023 -0.3591 -0.0103
80415SOL    HW158855   4.560   3.234   7.625 -0.0161 -0.6265 -0.2961
80415SOL    HW258856   4.695   3.303   7.637  1.4769 -3.6805  1.8856
80416SOL     OW58857   0.669  13.750   4.993  0.4946  0.2444 -0.5216
80416SOL    HW158858   0.758  13.723   4.970  0.8496  1.5981 -0.8387
80416SOL    HW258859   0.681  13.821   5.056 -0.3461  0.6595 -0.8124
80417SOL     OW58860   8.310  10.470  13.314  1.0704 -0.1621 -0.1825
80417SOL    HW158861   8.369  10.472  13.389 -0.9076 -0.5302  1.4639
80417SOL    HW258862   8.355  10.415  13.250  2.8119  0.1457  0.7040
80418SOL     OW58863  12.175  13.659   8.974 -0.0661  0.1727  1.0053
80418SOL    HW158864  12.193  13.599   9.046 -0.7172 -0.3983  0.7089
80418SOL    HW258865  12.246  13.645   8.912 -1.1038 -1.5707  0.1434
80419SOL     OW58866   7.955  13.355  11.356  0.0393  0.5454  0.6812
80419SOL    HW158867   7.981  13.376  11.266 -2.8623 -1.3286 -0.7267
80419SOL    HW258868   7.918  13.437  11.389  0.5227  1.0807 -0.0610
80420SOL     OW58869  12.260   2.667   6.835  0.0724 -0.1445  0.6275
80420SOL    HW158870  12.312   2.746   6.821 -0.5381  0.0497 -0.7891
80420SOL    HW258871  12.269   2.648   6.928  0.7341  1.2393  0.8729
80421SOL     OW58872   0.072   9.642   2.203 -0.4185 -0.2005 -0.4466
80421SOL    HW158873   0.155   9.604   2.174 -0.3652  0.3362 -1.0081
80421SOL    HW258874   0.055   9.599   2.287 -1.2969 -2.8616 -1.8704
80422SOL     OW58875  11.876   2.891   9.527  0.8057 -0.1320 -0.5702
80422SOL    HW158876  11.865   2.854   9.615  1.6064 -1.8897 -1.1612
80422SOL    HW258877  11.880   2.815   9.470  0.8818  0.9679 -2.0787
80423SOL     OW58878  13.695  10.134   7.425  0.4619  0.1669 -0.3489
80423SOL    HW158879  13.705  10.197   7.496 -2.6864 -0.1108  0.4730
80423SOL    HW258880  13.739  10.055   7.456  2.0259  1.0562 -0.2044
80424SOL     OW58881   2.850   3.220   0.792 -0.3995 -0.1163 -0.4787
80424SOL    HW158882   2.919   3.245   0.852 -1.8713 -1.0615  1.7542
80424SOL    HW258883   2.828   3.300   0.745 -1.0913  1.4692  2.3324
80425SOL     OW58884   5.123   7.292   0.980 -0.3952 -0.3626 -0.0303
80425SOL    HW158885   5.175   7.362   0.941  0.9616 -1.3790 -0.1325
80425SOL    HW258886   5.032   7.322   0.973  0.1768  1.5375  0.3065
80426SOL     OW58887  12.443   0.954   0.146 -0.1531 -0.6356 -0.1472
80426SOL    HW158888  12.442   0.985   0.055  0.0022 -2.0996 -0.6685
80426SOL    HW258889  12.360   0.906   0.155  0.0058 -0.8111  0.3671
80427SOL     OW58890  11.567   4.904   5.891  0.4008  0.3247  0.1760
80427SOL    HW158891  11.486   4.952   5.908  0.8524  1.0227  0.4019
80427SOL    HW258892  11.587   4.860   5.974  1.0707  1.4085  0.6062
80428SOL     OW58893  10.529   5.715   9.024  0.1462  0.1766 -0.1182
80428SOL    HW158894  10.493   5.639   8.979  1.4828  0.5996 -2.0441
80428SOL    HW258895  10.493   5.790   8.976 -1.4164  0.8513  1.9548
80429SOL     OW58896   4.764  13.602   8.076  0.1709  0.0364  0.0047
80429SOL    HW158897   4.767  13.627   8.168 -0.4093 -1.3911  0.4347
80429SOL    HW258898   4.852  13.570   8.057 -0.0344 -0.7723  0.3978
80430SOL     OW58899   7.233  13.025   2.979  0.4601 -1.1486 -0.7473
80430SOL    HW158900   7.247  13.001   2.887  3.1038 -1.9298 -0.2120
80430SOL    HW258901   7.280  13.107   2.990  1.2044 -1.6866  0.1862
80431SOL     OW58902   6.958  11.209  13.130  0.3074 -0.3988  0.7960
80431SOL    HW158903   6.880  11.226  13.078  0.1897 -2.3793  0.2354
80431SOL    HW258904   6.988  11.295  13.158 -2.0031  0.4167  0.9360
80432SOL     OW58905   6.989   1.143   9.503 -0.3778 -0.1781 -0.2883
80432SOL    HW158906   6.911   1.197   9.515 -0.7409 -0.9663  1.0788
80432SOL    HW258907   7.020   1.164   9.414 -2.3165 -0.0866 -0.9778
80433SOL     OW58908   3.089   8.462   5.357  0.3394 -0.0382 -0.5001
80433SOL    HW158909   3.046   8.462   5.271  2.0011  2.0865 -1.4250
80433SOL    HW258910   3.109   8.370   5.373 -0.5817 -0.5632 -2.0861
80434SOL     OW58911   6.010   7.084   5.552  0.1436  0.4212 -0.9920
80434SOL    HW158912   5.915   7.083   5.542 -0.1246  2.2733  0.7320
80434SOL    HW258913   6.034   7.176   5.553  1.7938  0.0308 -0.1600
80435SOL     OW58914   0.101   3.006   8.206 -0.3096 -0.2640 -0.2989
80435SOL    HW158915   0.063   3.085   8.168 -0.7690 -0.0658  0.5527
80435SOL    HW258916   0.032   2.940   8.197 -0.3748 -0.2488  0.0538
80436SOL     OW58917  11.355   2.006   5.199  0.2051  0.3610 -0.3296
80436SOL    HW158918  11.280   2.063   5.180  0.3907  1.0515  0.8934
80436SOL    HW258919  11.336   1.969   5.285  0.4079 -0.9219 -0.8247
80437SOL     OW58920   3.819  10.475   4.729  0.2522  0.2695 -0.2384
80437SOL    HW158921   3.895  10.532   4.722  0.0950  0.3316 -2.1383
80437SOL    HW258922   3.744  10.534   4.737  0.1463  0.3633 -1.6026
80438SOL     OW58923   6.305  11.023   8.949 -0.1763  0.2641 -0.5204
80438SOL    HW158924   6.247  10.962   8.904 -1.8116  1.7262 -0.5000
80438SOL    HW258925   6.330  11.087   8.882  3.0944 -1.3468 -1.0544
80439SOL     OW58926  12.002   3.082   4.287  0.2042 -0.9284  0.0366
80439SOL    HW158927  11.917   3.042   4.271 -0.8364  1.5255 -0.9600
80439SOL    HW258928  12.017   3.070   4.381 -2.5370  0.8496  0.8056
80440SOL     OW58929   0.991  12.300   9.800  0.5239 -0.2251 -0.3365
80440SOL    HW158930   1.061  12.237   9.814  0.0757 -0.9175 -1.1138
80440SOL    HW258931   1.026  12.383   9.831  1.8346 -0.4787 -1.0944
80441SOL     OW58932   2.835   3.762   0.304  0.3105  0.0935  0.0237
80441SOL    HW158933   2.839   3.714   0.222  2.7757 -0.2590  0.2608
80441SOL    HW258934   2.889   3.840   0.289 -1.6932  1.6137  0.3895
80442SOL     OW58935  13.782   1.183   9.155  0.2214 -0.0865 -1.0277
80442SOL    HW158936  13.821   1.175   9.242 -1.1050  0.1604 -0.3831
80442SOL    HW258937  13.823   1.261   9.118 -0.3775  0.7523  0.0273
80443SOL     OW58938  13.937   3.684   0.837 -0.5920 -0.0931 -0.2549
80443SOL    HW158939  13.959   3.601   0.880 -0.8899  0.4961  1.0829
80443SOL    HW258940  13.941   3.664   0.743  0.8269 -1.2444  0.0004
80444SOL     OW58941  11.189   0.866   4.994  0.2871 -0.8442  0.5116
80444SOL    HW158942  11.103   0.829   4.975 -0.2624  0.3157  0.6465
80444SOL    HW258943  11.191   0.877   5.089 -0.2587  1.0196  0.3528
80445SOL     OW58944  10.030   4.062  12.510 -0.0535 -0.1513 -0.3800
80445SOL    HW158945  10.009   4.148  12.546 -1.0863 -0.1669 -0.9018
80445SOL    HW258946   9.945   4.027  12.483  0.4890 -0.8907 -1.1451
80446SOL     OW58947   1.780   6.579   6.188 -0.2898  0.1470  0.3256
80446SOL    HW158948   1.855   6.632   6.217  1.0180 -1.4580 -0.0123
80446SOL    HW258949   1.813   6.490   6.185 -2.3638 -0.6873  0.5848
80447SOL     OW58950   9.335  13.151   4.019  1.0278 -0.2714 -0.3144
80447SOL    HW158951   9.318  13.224   4.079  0.5838 -0.5647 -0.0749
80447SOL    HW258952   9.424  13.166   3.987  2.1729 -1.2524  2.0904
80448SOL     OW58953   1.601   5.328   2.384  0.1316 -0.5366 -0.0035
80448SOL    HW158954   1.559   5.373   2.457 -0.2051  0.4068 -0.7672
80448SOL    HW258955   1.694   5.347   2.394 -0.0580  0.7535 -0.5970
80449SOL     OW58956   8.998   3.767  11.961 -0.0444 -0.7190 -0.1788
80449SOL    HW158957   8.978   3.701  12.027  0.3903 -0.1018  0.5851
80449SOL    HW258958   8.915   3.781  11.915 -0.1466 -1.7660 -0.3314
80450SOL     OW58959   5.975   4.455  13.355  0.1782 -0.0797 -0.0309
80450SOL    HW158960   5.925   4.534  13.334  2.2267  0.7200 -2.3193
80450SOL    HW258961   6.032   4.482  13.428 -0.3851 -0.0169  0.3950
80451SOL     OW58962  12.333  13.155   1.326  0.5533  0.1396 -0.4587
80451SOL    HW158963  12.261  13.123   1.380  0.9634  0.6665  0.4224
80451SOL    HW258964  12.356  13.240   1.364 -0.6799  1.6722 -2.8946
80452SOL     OW58965  13.381   0.201   2.941 -0.0759  0.3886 -0.2127
80452SOL    HW158966  13.322   0.130   2.915  1.1572 -1.0961  0.8433
80452SOL    HW258967  13.368   0.210   3.035  1.5641 -0.2166  0.1124
80453SOL     OW58968   9.309   5.810   3.832 -0.1430 -0.5635  0.2344
80453SOL    HW158969   9.277   5.786   3.918  1.2351 -1.0361  0.6393
80453SOL    HW258970   9.383   5.868   3.849 -0.0736 -0.3797 -0.6369
80454SOL     OW58971   7.734   4.811   4.140  0.1917 -0.0806  0.0379
80454SOL    HW158972   7.765   4.902   4.138 -1.0862  0.6161  3.8493
80454SOL    HW258973   7.647   4.816   4.180  1.4839 -3.1334  3.9235
80455SOL     OW58974   8.383   9.224   4.811 -0.3198 -0.0310 -0.6281
80455SOL    HW158975   8.471   9.261   4.806 -0.6544  1.4703  2.5173
80455SOL    HW258976   8.328   9.288   4.764  0.1450 -0.8485 -2.3828
80456SOL     OW58977   3.452   6.066  10.560  0.5282  0.2565 -0.0505
80456SOL    HW158978   3.387   6.081  10.629  0.0804 -1.5900 -0.0367
80456SOL    HW258979   3.497   6.150  10.552 -1.4620  1.4353  0.3399
80457SOL     OW58980   9.584  13.542   9.990 -0.0912 -0.2038  0.0379
80457SOL    HW158981   9.659  13.570  10.043  0.2997 -0.7596 -0.2171
80457SOL    HW258982   9.571  13.450  10.012 -1.0693  0.0257  0.5081
80458SOL     OW58983   4.180   6.191   4.110  0.3359  0.4693  0.1421
80458SOL    HW158984   4.090   6.163   4.092  0.2981  0.1846  0.7482
80458SOL    HW258985   4.233   6.147   4.043 -0.1787  2.2195 -1.5256
80459SOL     OW58986   0.529  11.562  13.861  0.4356  0.0024  0.1609
80459SOL    HW158987   0.477  11.627  13.814  0.6988  0.2475  0.2084
80459SOL    HW258988   0.506  11.576  13.953 -1.0577 -1.3250  0.0315
80460SOL     OW58989  13.465   2.628   5.502 -0.7003  0.2314  0.2176
80460SOL    HW158990  13.560   2.622   5.505 -0.7138  0.2196  2.0521
80460SOL    HW258991  13.436   2.541   5.474 -0.2021 -0.7880  2.5973
80461SOL     OW58992   1.210   9.594   1.982  0.3600 -0.0370 -0.2213
80461SOL    HW158993   1.187   9.522   1.924 -0.6652 -0.8640  1.1549
80461SOL    HW258994   1.299   9.619   1.956  0.4890 -1.3784 -1.1269
80462SOL     OW58995   4.768   0.903   4.891 -0.7424  0.1926 -0.4881
80462SOL    HW158996   4.785   0.895   4.797 -2.8528 -0.7183 -0.8452
80462SOL    HW258997   4.734   0.992   4.901 -0.0888  0.4489 -0.4977
80463SOL     OW58998   7.779   6.468   0.512 -0.6631 -0.2489  0.0665
80463SOL    HW158999   7.772   6.524   0.590 -0.4505 -0.3974  0.1942
80463SOL    HW259000   7.815   6.385   0.545 -0.1260 -0.1513 -0.2651
80464SOL     OW59001   2.152   4.985  13.678 -0.1933 -0.1515 -0.3671
80464SOL    HW159002   2.214   5.031  13.735 -0.2103  0.3896 -0.7702
80464SOL    HW259003   2.098   5.054  13.641  0.2457 -0.4054 -1.5492
80465SOL     OW59004   9.924  10.918   7.016  0.1092  0.0586  0.0537
80465SOL    HW159005   9.935  10.983   7.085  1.6214 -0.4377  0.3219
80465SOL    HW259006   9.837  10.882   7.031 -0.4215  1.4162  0.4076
80466SOL     OW59007  11.602   1.354  11.479  0.3787  0.1986 -0.2114
80466SOL    HW159008  11.581   1.443  11.508  0.0522 -0.1382  0.6410
80466SOL    HW259009  11.675   1.327  11.535 -0.0507 -0.3514  0.1014
80467SOL     OW59010   2.172   5.040   3.874  0.4524 -0.2329 -0.5351
80467SOL    HW159011   2.136   5.059   3.961  0.2136  0.4070 -0.7739
80467SOL    HW259012   2.148   4.949   3.858 -0.3383 -0.0620 -0.3376
80468SOL     OW59013   4.186  12.418   7.107  0.3088  0.0971 -0.2078
80468SOL    HW159014   4.176  12.502   7.150 -0.2155 -0.1228  0.1077
80468SOL    HW259015   4.275  12.390   7.130 -0.0239 -0.0906  0.8681
80469SOL     OW59016  11.962  13.446  12.073  0.1271 -0.4203 -0.1502
80469SOL    HW159017  12.030  13.483  12.129 -1.1376  0.3701  0.9230
80469SOL    HW259018  11.938  13.518  12.014 -1.8044  0.3294  1.4393
80470SOL     OW59019   5.617  10.201   1.896  0.1693 -0.5596  0.3085
80470SOL    HW159020   5.617  10.162   1.809 -0.6796 -1.0002  0.4938
80470SOL    HW259021   5.608  10.126   1.955 -1.2491 -0.1210  0.6831
80471SOL     OW59022  12.684  13.059   1.301  0.4113 -0.3274 -0.1650
80471SOL    HW159023  12.708  13.150   1.286  0.3897 -0.5800 -1.9994
80471SOL    HW259024  12.761  13.020   1.342  1.0657  0.1380 -0.9227
80472SOL     OW59025   0.867   3.963   5.882 -0.2898  0.2781 -0.1075
80472SOL    HW159026   0.924   3.936   5.954 -0.0261 -0.9585 -0.7554
80472SOL    HW259027   0.847   4.055   5.901  0.6916  0.3049  0.9252
80473SOL     OW59028   8.430   5.606   9.048  0.6596  0.0304 -0.1111
80473SOL    HW159029   8.466   5.527   9.088 -1.2923 -0.4398  0.8640
80473SOL    HW259030   8.364   5.574   8.987 -1.4611  0.8210  1.5911
80474SOL     OW59031   4.285   1.686   8.592 -0.0108 -0.7195  0.2964
80474SOL    HW159032   4.227   1.732   8.531  1.2035 -0.2177 -0.5249
80474SOL    HW259033   4.366   1.673   8.543  0.6614 -1.1968  1.4815
80475SOL     OW59034   1.818   2.810   3.220 -0.1891 -0.1123 -0.4324
80475SOL    HW159035   1.840   2.897   3.186 -0.3836  0.5174  1.0097
80475SOL    HW259036   1.903   2.770   3.237 -0.1068  0.1326 -0.2597
80476SOL     OW59037   1.275   6.512   3.494  0.3578 -0.1141  0.4710
80476SOL    HW159038   1.362   6.506   3.533  0.7157  0.9831 -0.1036
80476SOL    HW259039   1.256   6.606   3.491  0.5772 -0.0510 -2.3596
80477SOL     OW59040   8.937  10.896   3.555 -1.3473  0.1708 -0.7528
80477SOL    HW159041   8.932  10.839   3.633  0.3149  1.5639  0.4454
80477SOL    HW259042   8.979  10.976   3.587 -0.1010  0.5782 -3.2250
80478SOL     OW59043   0.237   5.977   9.490 -0.2517 -1.2540 -0.0129
80478SOL    HW159044   0.261   5.927   9.412 -1.4940 -2.9345  0.5900
80478SOL    HW259045   0.145   5.953   9.506 -0.2566 -0.3613  1.5132
80479SOL     OW59046   9.523  12.709  10.058 -0.3578 -0.1726 -0.8707
80479SOL    HW159047   9.579  12.634  10.075  0.0382  0.3702  0.3395
80479SOL    HW259048   9.434  12.674  10.066 -0.2584 -0.0528  2.5479
80480SOL     OW59049   8.673  13.511   4.768  0.0458 -0.5509  0.6126
80480SOL    HW159050   8.755  13.463   4.777 -0.9570 -2.7312 -1.0224
80480SOL    HW259051   8.690  13.576   4.701  0.3662 -1.2276  0.0221
80481SOL     OW59052   5.739  10.237   9.744 -0.6834 -0.2991 -0.1929
80481SOL    HW159053   5.799  10.267   9.675  1.5357 -0.1315  1.7066
80481SOL    HW259054   5.668  10.193   9.696 -0.5986  2.0213 -2.6936
80482SOL     OW59055   9.427   9.634  12.486 -0.2249 -0.1256 -0.0432
80482SOL    HW159056   9.396   9.669  12.570  0.5097  0.9085 -0.1858
80482SOL    HW259057   9.372   9.676  12.420 -1.0010 -1.1600 -0.0968
80483SOL     OW59058   6.867   6.823  13.275  0.6813 -0.0384 -0.2267
80483SOL    HW159059   6.854   6.772  13.195  1.3947  0.1373 -0.4638
80483SOL    HW259060   6.859   6.914  13.246 -0.7569  0.0119  0.2250
80484SOL     OW59061   7.249   2.080   9.238 -0.1110 -0.1055  0.8195
80484SOL    HW159062   7.306   2.103   9.312  0.8243  0.5576 -0.0781
80484SOL    HW259063   7.243   1.985   9.242  2.6625 -0.4145 -0.1557
80485SOL     OW59064  13.836  13.812   8.062 -0.3462  0.5534 -0.4640
80485SOL    HW159065  13.796  13.856   7.986 -1.0501  0.3655 -0.2082
80485SOL    HW259066  13.930  13.814   8.044 -0.3329  2.4232 -0.3242
80486SOL     OW59067   1.513  10.298   5.476  0.3064 -0.0602  0.0042
80486SOL    HW159068   1.418  10.300   5.470  0.3062  1.7774  0.2474
80486SOL    HW259069   1.533  10.341   5.559  1.3869  1.1511 -0.8464
80487SOL     OW59070   8.636  10.964   0.634  0.2377 -0.3265  0.0880
80487SOL    HW159071   8.628  10.911   0.556 -0.2344 -0.9761  0.5675
80487SOL    HW259072   8.650  11.053   0.602  1.0552 -0.7307 -0.7210
80488SOL     OW59073   3.366   5.279   4.849 -0.4568 -0.3967 -0.0892
80488SOL    HW159074   3.446   5.290   4.900 -0.6743 -0.8283  0.3593
80488SOL    HW259075   3.367   5.187   4.821  0.4763  0.2073 -2.2816
80489SOL     OW59076   3.543  10.570   6.937 -0.3363 -0.3219 -0.4798
80489SOL    HW159077   3.625  10.573   6.888  0.7473 -2.4227  1.0391
80489SOL    HW259078   3.519  10.661   6.950  2.6720  0.4386  0.4827
80490SOL     OW59079  12.902   5.320   6.467 -0.3607 -0.0723  0.7235
80490SOL    HW159080  12.843   5.292   6.538 -0.2782 -0.8506  0.4917
80490SOL    HW259081  12.951   5.242   6.445 -0.2534  0.2158 -0.0738
80491SOL     OW59082   5.563   0.292  11.238  0.5725  0.1484 -0.6258
80491SOL    HW159083   5.643   0.248  11.266  0.0511 -0.4971 -0.1222
80491SOL    HW259084   5.589   0.342  11.161  1.3160 -0.5775 -0.8609
80492SOL     OW59085  13.274  11.647   7.601 -0.3447  0.2112 -0.3694
80492SOL    HW159086  13.317  11.566   7.576 -0.3204  0.2375 -0.4138
80492SOL    HW259087  13.338  11.715   7.582  0.1308  0.1309  0.8553
80493SOL     OW59088  13.235   2.726   6.579 -0.2674 -0.1176 -0.0299
80493SOL    HW159089  13.272   2.812   6.602  1.0069 -0.8919  0.9426
80493SOL    HW259090  13.179   2.744   6.503 -0.0185  1.5658  0.1319
80494SOL     OW59091  14.046   0.556   4.837 -0.4783 -0.6430 -0.2773
80494SOL    HW159092  14.107   0.528   4.906 -1.8413 -2.0502  0.4357
80494SOL    HW259093  13.997   0.628   4.876  0.9388  0.7628 -0.9953
80495SOL     OW59094   7.533   1.641   5.373  0.6598 -0.6500 -0.0773
80495SOL    HW159095   7.576   1.592   5.443 -0.7843 -0.9473  0.6414
80495SOL    HW259096   7.597   1.641   5.301  1.4115 -2.0298  0.5401
80496SOL     OW59097  12.969   6.569  10.239  0.2772 -0.2035  0.0675
80496SOL    HW159098  12.943   6.525  10.320  1.1041 -0.0450  0.4292
80496SOL    HW259099  13.056   6.603  10.257  0.9763 -1.1605 -1.2605
80497SOL     OW59100   7.676  12.972  10.419 -0.9365 -0.0185 -0.2374
80497SOL    HW159101   7.663  12.923  10.337 -1.3936 -0.1905 -0.0659
80497SOL    HW259102   7.607  13.038  10.419  0.1678  1.1812 -0.8559
80498SOL     OW59103   5.240   1.808   0.468  0.0424  0.7068  0.5356
80498SOL    HW159104   5.244   1.884   0.409  0.2036  1.1561  1.1132
80498SOL    HW259105   5.178   1.749   0.426 -1.2517  1.8174  0.8087
80499SOL     OW59106  10.609   2.731   6.855 -0.0916 -0.1234  0.0555
80499SOL    HW159107  10.582   2.674   6.783 -1.6262  0.5603  0.0505
80499SOL    HW259108  10.584   2.819   6.827 -0.7889  0.1463  1.4368
80500SOL     OW59109   4.686   7.956   0.550 -0.5945  0.4015 -0.0485
80500SOL    HW159110   4.732   7.901   0.612  0.5095 -0.1208 -1.2949
80500SOL    HW259111   4.693   7.910   0.467 -1.9982  1.1090 -0.5922
80501SOL     OW59112   5.389   0.429   4.635 -0.1689  0.2793  0.0531
80501SOL    HW159113   5.316   0.452   4.578 -0.7505 -0.7743  0.3498
80501SOL    HW259114   5.349   0.414   4.721  0.7047  1.9459  0.7985
80502SOL     OW59115   8.059   3.271  10.814  0.0008  0.2335  0.0435
80502SOL    HW159116   7.984   3.294  10.759  0.9718  1.1875 -0.9388
80502SOL    HW259117   8.131   3.326  10.780  0.8322  0.2520  1.7522
80503SOL     OW59118  11.707   6.681   1.335  0.4123  0.2219 -0.5910
80503SOL    HW159119  11.784   6.669   1.391  1.3814 -0.7490 -2.0498
80503SOL    HW259120  11.639   6.628   1.376  0.7154  0.5458  0.3475
80504SOL     OW59121  10.700   7.818   7.560 -0.3398  0.8068  0.6635
80504SOL    HW159122  10.786   7.778   7.574 -0.7813  0.1085  1.3884
80504SOL    HW259123  10.638   7.746   7.565 -1.0646  1.4390  1.0891
80505SOL     OW59124  11.465  11.635   3.263  0.3263  0.1308 -0.3333
80505SOL    HW159125  11.400  11.678   3.207 -1.6190  0.5486  2.0651
80505SOL    HW259126  11.437  11.544   3.266  0.1184  0.2103  0.3235
80506SOL     OW59127   3.350   8.217   2.959  0.0202  0.4685  0.4304
80506SOL    HW159128   3.306   8.302   2.952  0.6895  0.6964 -1.7856
80506SOL    HW259129   3.443   8.239   2.960  0.2362 -0.2393 -1.2586
80507SOL     OW59130   2.060   5.660   0.455  0.0590  0.2191 -0.0389
80507SOL    HW159131   2.134   5.718   0.471  0.1259  0.0768  0.1785
80507SOL    HW259132   2.053   5.607   0.535 -1.5002  1.5680  0.7968
80508SOL     OW59133   1.201  12.552   7.598  0.1559  0.0116  0.2175
80508SOL    HW159134   1.264  12.511   7.657  1.1737  0.5707 -0.4455
80508SOL    HW259135   1.134  12.588   7.657  2.9762  3.8460  1.5409
80509SOL     OW59136   8.482   0.240   7.318 -0.3526 -0.1034 -0.6907
80509SOL    HW159137   8.499   0.275   7.230  1.6729  1.5032  0.2446
80509SOL    HW259138   8.564   0.197   7.343 -0.6570  0.0641  0.6668
80510SOL     OW59139  11.917  13.782  13.871 -0.4753 -0.0735 -0.2898
80510SOL    HW159140  11.859  13.768  13.946  1.3040 -1.8921  0.8590
80510SOL    HW259141  11.874  13.737  13.799 -0.9612 -0.5456  0.2837
80511SOL     OW59142   9.080   1.425   9.996 -0.4037 -1.1054 -0.1834
80511SOL    HW159143   9.138   1.410  10.071  0.2566  1.4709 -0.0951
80511SOL    HW259144   8.992   1.417  10.033 -0.0868 -0.6061  0.7178
80512SOL     OW59145   4.359  13.463  13.499  0.1563  0.3769  0.2369
80512SOL    HW159146   4.383  13.370  13.501 -1.6167 -0.1172  0.4227
80512SOL    HW259147   4.425  13.506  13.553 -0.6024 -1.2131  2.5899
80513SOL     OW59148  13.483   6.551   1.578 -0.5905 -0.4646 -0.5595
80513SOL    HW159149  13.462   6.579   1.489  0.6457  0.6872 -0.5251
80513SOL    HW259150  13.556   6.608   1.604 -1.7574  0.1388  1.6734
80514SOL     OW59151  11.304   9.683   5.697  0.5591  0.1643  0.4032
80514SOL    HW159152  11.232   9.668   5.635  0.2450  0.0099  0.7960
80514SOL    HW259153  11.376   9.631   5.662  0.9970  1.5453 -0.8525
80515SOL     OW59154   0.373   4.193  12.794  0.2142  0.3289 -0.3139
80515SOL    HW159155   0.438   4.234  12.852  0.4606 -0.1429 -0.2521
80515SOL    HW259156   0.368   4.252  12.718 -0.0488  0.9064  0.1397
80516SOL     OW59157   5.777   1.794   3.713 -0.4630  0.1556  0.1538
80516SOL    HW159158   5.783   1.797   3.618  0.3718 -0.0163  0.1908
80516SOL    HW259159   5.764   1.885   3.739 -4.8032 -0.1263 -0.3102
80517SOL     OW59160   3.966  12.547   4.617  0.2103  0.1943 -0.1225
80517SOL    HW159161   3.926  12.633   4.633 -1.9987 -0.8509  0.3562
80517SOL    HW259162   4.002  12.554   4.529 -0.5489  1.4111 -0.3732
80518SOL     OW59163   0.724   7.600   5.499  0.6073  0.0446  0.3651
80518SOL    HW159164   0.745   7.537   5.567 -1.5078  0.4118  1.4427
80518SOL    HW259165   0.686   7.675   5.545  1.3933  1.3733 -1.0283
80519SOL     OW59166   8.639   3.932   3.400  0.6589  0.2019  0.5904
80519SOL    HW159167   8.722   3.911   3.443  1.3013  1.4655  0.0031
80519SOL    HW259168   8.654   3.916   3.307  0.3197  0.6649  0.4494
80520SOL     OW59169  11.100   4.903   6.527 -0.0158 -0.2754 -0.1266
80520SOL    HW159170  11.042   4.876   6.456 -1.1918  0.7363  0.3907
80520SOL    HW259171  11.166   4.959   6.486  0.0517 -0.7107 -0.6043
80521SOL     OW59172   3.313  12.210   4.261  0.0673  0.5628  0.1319
80521SOL    HW159173   3.321  12.213   4.165  1.7199 -1.4382  0.1359
80521SOL    HW259174   3.227  12.171   4.276 -0.4768  1.4652 -0.4870
80522SOL     OW59175   1.044   5.690  10.639 -0.3135 -0.6248 -0.0146
80522SOL    HW159176   1.045   5.595  10.644 -1.5124 -0.6607  0.0403
80522SOL    HW259177   0.950   5.712  10.638 -0.1007  0.4391 -2.3994
80523SOL     OW59178  13.753   9.571   7.316 -0.3157 -0.4427 -0.0832
80523SOL    HW159179  13.780   9.479   7.318  0.5811 -0.2169 -1.1127
80523SOL    HW259180  13.685   9.577   7.383 -2.2728 -2.4477 -1.7151
80524SOL     OW59181   6.427   8.964   2.936 -0.1280  0.0507  0.3531
80524SOL    HW159182   6.460   8.952   2.847  1.2930  0.3193  0.8163
80524SOL    HW259183   6.382   8.882   2.957  1.9800 -1.1695  0.3821
80525SOL     OW59184   5.302   3.157  11.233 -0.3744 -0.2005 -0.1562
80525SOL    HW159185   5.356   3.232  11.206 -0.6351 -0.2860 -0.9434
80525SOL    HW259186   5.215   3.177  11.199 -0.8836 -0.0217  1.1907
80526SOL     OW59187   9.156   0.850   3.503 -0.1219  0.3897 -0.3456
80526SOL    HW159188   9.235   0.850   3.448  0.6783 -1.1759  0.7235
80526SOL    HW259189   9.101   0.781   3.466  0.0582 -0.1078  0.2866
80527SOL     OW59190  10.067   1.484   5.058  0.0064 -0.3886  0.1720
80527SOL    HW159191   9.986   1.497   5.107 -0.4866 -1.7602 -0.2233
80527SOL    HW259192  10.136   1.515   5.116 -0.8254  1.4684  0.2472
80528SOL     OW59193   7.042   3.883   9.387  0.3887  0.1453  0.1020
80528SOL    HW159194   7.101   3.821   9.428  0.8198  0.5828  0.1596
80528SOL    HW259195   7.090   3.966   9.388 -0.4646  0.6545  0.7043
80529SOL     OW59196   2.481   5.543  11.045  1.0075  0.1467  0.2620
80529SOL    HW159197   2.503   5.463  11.094  1.7995 -0.5983 -1.2199
80529SOL    HW259198   2.509   5.614  11.102  1.0831 -0.6513  1.2615
80530SOL     OW59199   1.485   9.712  12.141 -0.3544 -0.2248 -0.4317
80530SOL    HW159200   1.509   9.804  12.127 -1.7678  0.1262 -0.7422
80530SOL    HW259201   1.538   9.664  12.078 -1.8827  0.7213 -2.5700
80531SOL     OW59202   7.846  11.813   2.814  0.2939 -0.1565 -0.3283
80531SOL    HW159203   7.752  11.829   2.816  0.1997 -0.4339 -1.6632
80531SOL    HW259204   7.861  11.766   2.732  1.4628 -0.9928  0.3207
80532SOL     OW59205   3.092   3.024   2.155 -0.5233 -0.3282 -0.6687
80532SOL    HW159206   3.099   3.006   2.061  0.2137  1.0965 -0.9186
80532SOL    HW259207   3.176   2.996   2.191 -0.2509  0.4442 -0.6853
80533SOL     OW59208   6.083   1.783   6.874  0.8903 -0.4126  0.1792
80533SOL    HW159209   6.053   1.869   6.846  1.4691 -0.1564  0.3422
80533SOL    HW259210   6.009   1.725   6.857  0.7352 -0.0030 -0.5515
80534SOL     OW59211  11.766  10.897   9.140 -0.3561  0.0299 -0.3236
80534SOL    HW159212  11.703  10.833   9.110  0.3166 -0.8617  0.1248
80534SOL    HW259213  11.731  10.929   9.223 -1.8992  2.0415 -1.6565
80535SOL     OW59214   5.050  13.198   5.226  0.1178 -0.3812  0.4222
80535SOL    HW159215   5.020  13.173   5.139 -0.6083  1.8191 -0.0191
80535SOL    HW259216   5.125  13.255   5.210 -1.0060  1.3676  1.1130
80536SOL     OW59217   3.805   8.587   6.583 -0.1471  0.2723  0.2024
80536SOL    HW159218   3.792   8.514   6.643 -1.7122  0.2334 -0.1491
80536SOL    HW259219   3.753   8.565   6.506  0.6449  1.0205 -0.5737
80537SOL     OW59220   6.946   2.007   3.083  0.1547 -0.1478 -0.6639
80537SOL    HW159221   6.905   1.956   3.152  0.5341  0.1034 -0.2463
80537SOL    HW259222   6.972   2.089   3.125 -2.3460  1.3261 -1.8125
80538SOL     OW59223   2.523   4.757   9.982 -0.5602  0.3334 -0.0541
80538SOL    HW159224   2.483   4.681   9.939  0.7303 -1.6216  1.9970
80538SOL    HW259225   2.450   4.818   9.994 -2.2850 -1.7375  0.6307
80539SOL     OW59226   5.036  11.933   8.736  0.2676  0.0488  0.0991
80539SOL    HW159227   5.000  11.894   8.815  1.1679  0.2522  0.6218
80539SOL    HW259228   5.130  11.913   8.740  0.3241  0.0662 -0.9109
80540SOL     OW59229   3.178   1.008  10.570 -0.2113 -0.0137 -0.3680
80540SOL    HW159230   3.231   0.943  10.616  1.1649  1.0271 -0.4595
80540SOL    HW259231   3.164   0.970  10.483  0.0546 -0.4676 -0.2168
80541SOL     OW59232   0.065  13.362   3.347 -0.9844  0.5095 -0.0113
80541SOL    HW159233   0.008  13.293   3.311 -0.6063 -0.4174  1.1101
80541SOL    HW259234   0.055  13.354   3.442 -0.7810  1.8883  0.1383
80542SOL     OW59235   0.878   9.764   0.540  0.0505 -0.3212  0.4883
80542SOL    HW159236   0.805   9.805   0.586 -0.7989 -0.7431 -0.4304
80542SOL    HW259237   0.920   9.708   0.605 -0.4056 -0.0084  1.0568
80543SOL     OW59238  11.467   2.939   7.605 -0.4550 -0.2481 -0.2069
80543SOL    HW159239  11.388   2.899   7.570 -0.8653  1.8178 -1.8519
80543SOL    HW259240  11.492   2.883   7.678 -1.5085 -2.8607 -1.7190
80544SOL     OW59241  10.866  13.580   5.602 -0.1395  0.3335 -0.0796
80544SOL    HW159242  10.831  13.640   5.667 -1.7944  0.9981 -1.4882
80544SOL    HW259243  10.834  13.494   5.628  0.2529  0.3967  0.6362
80545SOL     OW59244  10.306   9.761   6.148 -0.1066 -0.0039 -0.3646
80545SOL    HW159245  10.347   9.718   6.223 -1.1789 -0.0136  0.2358
80545SOL    HW259246  10.319   9.855   6.165  0.5824 -0.0283 -0.7195
80546SOL     OW59247   0.159   2.061   0.242 -0.4798 -0.2972 -0.4078
80546SOL    HW159248   0.238   2.064   0.187 -0.8320 -4.5810 -1.5245
80546SOL    HW259249   0.094   2.110   0.192  0.0847 -1.3593 -2.2887
80547SOL     OW59250   7.811   3.735   4.503  0.7032 -0.1281 -0.3148
80547SOL    HW159251   7.720   3.751   4.527  0.7726  0.2039 -0.2706
80547SOL    HW259252   7.861   3.751   4.583  0.7451 -0.8787 -0.1848
80548SOL     OW59253   5.147   9.250  12.168  0.3206 -0.2485  0.6779
80548SOL    HW159254   5.220   9.195  12.140  0.5940  0.2833  0.3375
80548SOL    HW259255   5.173   9.281  12.255  1.2277  1.1869 -0.0635
80549SOL     OW59256   3.462   9.543  13.530 -0.2090  0.1530  0.2481
80549SOL    HW159257   3.401   9.483  13.486  0.4437  0.7855 -1.5939
80549SOL    HW259258   3.443   9.629  13.493  0.9522  0.5644  0.5490
80550SOL     OW59259   5.356   9.716   9.940  0.2109  0.1423 -0.0026
80550SOL    HW159260   5.416   9.780   9.979  0.2834  0.1201 -0.0786
80550SOL    HW259261   5.319   9.670  10.015 -2.3150  2.4422  0.3069
80551SOL     OW59262  10.116  11.928   3.757 -0.1163 -0.7468  0.0760
80551SOL    HW159263  10.163  11.996   3.806 -1.2670  1.3187 -1.5359
80551SOL    HW259264  10.184  11.863   3.735  0.7936 -0.7641  2.6202
80552SOL     OW59265   8.852  10.106   4.820  0.4739 -0.3085  0.5108
80552SOL    HW159266   8.779  10.047   4.803  0.5896 -0.4956  0.6633
80552SOL    HW259267   8.872  10.095   4.913  0.0593  0.4722  0.7023
80553SOL     OW59268   6.225   1.481  11.056  0.1596 -0.1557 -0.3668
80553SOL    HW159269   6.180   1.548  11.004 -1.1174 -1.0603 -0.4743
80553SOL    HW259270   6.170   1.471  11.134  1.4813  0.4159  0.6612
80554SOL     OW59271  12.630   0.722   4.496 -0.4277 -0.3965 -0.5246
80554SOL    HW159272  12.620   0.817   4.487  0.3733  0.1973  3.2021
80554SOL    HW259273  12.541   0.689   4.506 -0.6476  0.0880 -0.8382
80555SOL     OW59274  12.546   1.694  13.732  0.0976  0.1865  0.0767
80555SOL    HW159275  12.635   1.663  13.715 -0.5859 -1.4939 -0.6171
80555SOL    HW259276  12.535   1.684  13.826 -0.0087 -1.5110 -0.0901
80556SOL     OW59277   0.752   3.122   4.390  0.0611  0.1871 -0.3326
80556SOL    HW159278   0.703   3.186   4.338  0.3604  1.1278  0.5037
80556SOL    HW259279   0.726   3.141   4.480  0.3072 -0.7603 -0.0587
80557SOL     OW59280  10.928  12.470   0.724 -0.0100  0.3781  0.3872
80557SOL    HW159281  10.895  12.533   0.789  0.7182  0.6881  0.4720
80557SOL    HW259282  11.011  12.439   0.761  0.1982  0.2296 -0.1926
80558SOL     OW59283   1.588   0.410   7.605  0.7262 -0.2534 -0.1946
80558SOL    HW159284   1.540   0.375   7.680 -0.4803  0.4928 -0.5995
80558SOL    HW259285   1.661   0.457   7.644 -1.0715  1.9857  0.6948
80559SOL     OW59286   1.546  12.910   2.039 -0.3800 -0.5791 -0.8011
80559SOL    HW159287   1.454  12.926   2.060 -0.2858  0.0776 -0.8770
80559SOL    HW259288   1.570  12.836   2.094 -0.7803 -0.3583 -0.3190
80560SOL     OW59289   2.814   8.433  10.560 -0.7672 -0.1545 -0.3903
80560SOL    HW159290   2.860   8.455  10.641 -2.1417 -0.3635  0.4777
80560SOL    HW259291   2.843   8.344  10.539  0.2377  0.2072 -0.6271
80561SOL     OW59292   0.577   4.466  12.937  0.3198 -0.3025  0.0317
80561SOL    HW159293   0.596   4.385  12.889  0.3061 -0.4151  0.2180
80561SOL    HW259294   0.663   4.508  12.947  0.7841 -1.6984  2.4946
80562SOL     OW59295   2.855   8.007  12.234 -0.1888 -0.2836  0.0513
80562SOL    HW159296   2.789   8.036  12.171  0.0982  1.4236  0.4921
80562SOL    HW259297   2.927   8.069  12.224 -0.4042  0.4843  2.4909
80563SOL     OW59298  10.312   2.118   2.225  0.2301 -0.6766  0.2552
80563SOL    HW159299  10.241   2.054   2.230  0.7798 -1.4241 -1.0337
80563SOL    HW259300  10.390   2.066   2.207  0.6544  0.3639 -1.0608
80564SOL     OW59301   1.728  10.660   8.612 -0.5802 -0.0599 -0.2981
80564SOL    HW159302   1.739  10.674   8.518  0.9996  0.6798 -0.0218
80564SOL    HW259303   1.765  10.738   8.653  0.8953 -1.3914  1.0099
80565SOL     OW59304   6.483   0.684   3.850 -0.0251  0.0387 -0.1776
80565SOL    HW159305   6.461   0.611   3.909  1.0670  1.6091  2.3693
80565SOL    HW259306   6.554   0.651   3.796 -3.0328 -2.4711 -2.9647
80566SOL     OW59307   6.361   4.781   0.731  0.3986 -0.1998 -0.0800
80566SOL    HW159308   6.268   4.798   0.750  0.1587  0.4352 -1.6402
80566SOL    HW259309   6.360   4.701   0.678  0.7895 -0.4381  0.2676
80567SOL     OW59310   6.414   3.384  11.947 -0.0806 -0.1528  0.2186
80567SOL    HW159311   6.420   3.381  11.852  0.6394 -1.8306  0.2848
80567SOL    HW259312   6.357   3.460  11.965 -1.5757 -0.7603 -1.5934
80568SOL     OW59313   5.750  13.015  13.487  0.4376  0.1550  0.1181
80568SOL    HW159314   5.665  12.980  13.513 -0.0282  1.3005  0.1545
80568SOL    HW259315   5.812  12.946  13.511 -0.6576 -1.7201 -1.9638
80569SOL     OW59316  10.294   4.430  13.323 -0.1332 -0.4434 -0.0894
80569SOL    HW159317  10.321   4.520  13.339  2.5767 -1.1800 -0.0485
80569SOL    HW259318  10.296   4.420  13.228 -1.9611 -0.0852 -0.2010
80570SOL     OW59319   4.533   9.272   2.335 -0.5169  0.4336  0.3644
80570SOL    HW159320   4.572   9.345   2.288  1.0402 -0.3348  0.4098
80570SOL    HW259321   4.565   9.194   2.290 -2.0888 -0.2556  0.3530
80571SOL     OW59322   2.164   3.152  11.920 -0.1092 -0.6780 -0.3503
80571SOL    HW159323   2.214   3.210  11.978 -0.6115 -0.4690 -0.1167
80571SOL    HW259324   2.073   3.165  11.947 -0.3586 -0.5286 -1.2308
80572SOL     OW59325   4.196   9.570   6.039 -0.2910  0.1579  0.4493
80572SOL    HW159326   4.276   9.545   5.991  0.3966  1.6634  0.7598
80572SOL    HW259327   4.174   9.657   6.006 -0.3674  0.8192  2.1365
80573SOL     OW59328   4.605  11.706   4.325  0.5728  0.0766 -0.4944
80573SOL    HW159329   4.651  11.703   4.241 -3.0136  1.3005 -2.7290
80573SOL    HW259330   4.581  11.616   4.344  1.4074 -0.2026 -0.7318
80574SOL     OW59331   9.074   1.046   1.403 -0.0312 -0.4640  0.2956
80574SOL    HW159332   9.167   1.061   1.388 -0.6584  2.3987 -1.5838
80574SOL    HW259333   9.050   1.110   1.470 -0.6201 -1.4472  1.0552
80575SOL     OW59334  12.336   2.684  10.256  0.6139  0.4087 -0.2048
80575SOL    HW159335  12.338   2.745  10.182  0.9532 -0.1945 -0.6981
80575SOL    HW259336  12.347   2.740  10.333 -1.5018  1.2739 -0.4378
80576SOL     OW59337   8.471  11.955   8.416 -0.2449  0.2504 -0.2055
80576SOL    HW159338   8.506  11.988   8.499 -0.1823 -1.0630  0.3046
80576SOL    HW259339   8.547  11.950   8.358  0.2694 -1.5632  0.5661
80577SOL     OW59340  12.078   0.209   0.646 -0.0982 -0.3088  0.1973
80577SOL    HW159341  12.057   0.238   0.557  2.3944  2.2071  0.2822
80577SOL    HW259342  12.103   0.290   0.692  1.2743 -1.8679  2.3807
80578SOL     OW59343   5.125   4.850   1.544  0.2026  0.0009  0.5122
80578SOL    HW159344   5.041   4.896   1.536  0.5970  0.6975  0.2761
80578SOL    HW259345   5.176   4.904   1.605  0.3818 -0.5752  0.8875
80579SOL     OW59346   4.627   4.970   9.454 -0.2069  0.3549 -0.1881
80579SOL    HW159347   4.659   4.975   9.544 -1.7060  0.4520  0.3710
80579SOL    HW259348   4.676   5.037   9.408  0.1349  0.7402  0.7047
80580SOL     OW59349  12.240   8.932   6.434 -0.1517 -0.2109 -0.2185
80580SOL    HW159350  12.255   8.906   6.524  4.4579  0.7221 -0.4484
80580SOL    HW259351  12.257   9.027   6.433  1.1513 -0.3921 -2.1433
80581SOL     OW59352   1.853   6.902  13.466 -0.3918 -0.0617 -0.4731
80581SOL    HW159353   1.819   6.821  13.427 -0.8181 -0.0752 -0.0887
80581SOL    HW259354   1.775   6.953  13.487 -0.1645  0.0171  0.2043
80582SOL     OW59355   7.027   3.563   4.766 -0.0142 -0.3094  0.1703
80582SOL    HW159356   7.024   3.647   4.811  1.3133 -0.8071  1.2684
80582SOL    HW259357   6.937   3.546   4.741 -0.1630  1.9883 -1.1594
80583SOL     OW59358   8.529   8.616   7.871 -0.3187 -0.0773  0.2146
80583SOL    HW159359   8.467   8.590   7.803 -2.2907  1.0611  1.4738
80583SOL    HW259360   8.476   8.625   7.950  1.1214  2.4548  1.0297
80584SOL     OW59361   8.867   1.621   0.610  0.0040 -0.0290 -0.1961
80584SOL    HW159362   8.802   1.560   0.577 -0.7114  0.8326 -0.3992
80584SOL    HW259363   8.951   1.584   0.581 -0.4603 -0.5273 -0.9296
80585SOL     OW59364   5.900   1.583   5.641  0.0326  0.2382 -0.1733
80585SOL    HW159365   5.840   1.524   5.685  0.2812 -0.4636 -0.7553
80585SOL    HW259366   5.885   1.568   5.548  0.4843  0.6909 -0.3266
80586SOL     OW59367   0.539  12.858   0.758  0.2740 -0.2444 -0.2269
80586SOL    HW159368   0.587  12.941   0.748 -2.6626  1.3813 -2.2578
80586SOL    HW259369   0.490  12.868   0.839  1.6428 -1.0735  0.7654
80587SOL     OW59370   9.975   7.059   4.268  0.4642 -0.2645 -0.3400
80587SOL    HW159371   9.893   7.013   4.251 -1.4701  1.8241  2.4387
80587SOL    HW259372  10.010   7.017   4.347  1.6665 -0.5515 -0.9943
80588SOL     OW59373   0.158  11.386  10.058  0.1049 -0.2785 -0.4097
80588SOL    HW159374   0.173  11.478  10.078 -2.1632 -0.0619  0.6476
80588SOL    HW259375   0.132  11.347  10.141 -0.2941 -1.5685 -1.1060
80589SOL     OW59376  11.733   0.044  13.417  0.3039  0.9512 -0.1987
80589SOL    HW159377  11.740   0.105  13.490 -0.6658  0.8255  0.0196
80589SOL    HW259378  11.751   0.097  13.340  0.0678  1.3821  0.0372
80590SOL     OW59379   8.609   5.295   3.034 -0.4419  0.0775 -0.1011
80590SOL    HW159380   8.545   5.226   3.016  1.4752 -1.4750 -1.4427
80590SOL    HW259381   8.683   5.248   3.074 -0.6010  2.0062  2.7038
80591SOL     OW59382   7.947   1.058   3.178  0.4031 -0.1572  0.1775
80591SOL    HW159383   7.853   1.077   3.182  0.5017  0.3661  0.0826
80591SOL    HW259384   7.976   1.096   3.095  0.7845  0.0863  0.4175
80592SOL     OW59385  13.686   1.176   0.259  0.9029  0.0364  0.1184
80592SOL    HW159386  13.771   1.183   0.303  1.1946 -3.6650  0.5137
80592SOL    HW259387  13.708   1.161   0.167  0.7376 -0.8030  0.2028
80593SOL     OW59388   1.073   5.629   0.655 -0.2501 -0.4400  0.0532
80593SOL    HW159389   1.144   5.588   0.704  0.4371 -0.4652 -0.9619
80593SOL    HW259390   1.085   5.723   0.670 -0.3261 -0.4708  0.3161
80594SOL     OW59391  11.917  12.854   0.329 -0.1828  0.2129  0.1691
80594SOL    HW159392  11.844  12.916   0.327 -1.1424 -0.9054 -0.8526
80594SOL    HW259393  11.983  12.892   0.270 -0.7404  0.2870 -0.4123
80595SOL     OW59394   3.984   7.878   4.493  0.1617  0.3957 -0.3131
80595SOL    HW159395   4.070   7.841   4.517 -0.9480 -1.2784  1.3784
80595SOL    HW259396   3.921   7.810   4.518 -1.8265  2.3548  0.3298
80596SOL     OW59397  13.999  13.376   9.013  0.0907 -0.7773 -0.0235
80596SOL    HW159398  14.014  13.469   9.023 -0.2517 -0.7895  0.6805
80596SOL    HW259399  13.966  13.366   8.924  2.5931 -0.5694 -1.0576
80597SOL     OW59400  12.923   3.887   6.033  0.1029 -0.8152  0.1015
80597SOL    HW159401  12.993   3.946   6.004 -0.0264 -1.1443 -0.9208
80597SOL    HW259402  12.903   3.916   6.122 -0.0835  0.8284 -0.4337
80598SOL     OW59403   6.792   7.502   0.360 -0.3094 -0.2879 -0.1014
80598SOL    HW159404   6.777   7.595   0.375 -0.5314 -0.0067 -1.9322
80598SOL    HW259405   6.798   7.465   0.448 -2.5106  1.0789  0.7238
80599SOL     OW59406   4.385   5.607  12.195  0.5071  0.2626 -0.2753
80599SOL    HW159407   4.329   5.668  12.243  0.2851  1.2954 -1.7702
80599SOL    HW259408   4.433   5.661  12.133  1.8783 -0.8398 -0.2390
80600SOL     OW59409   7.407  12.251   7.038 -0.4540  0.3137  0.1143
80600SOL    HW159410   7.354  12.266   7.116 -2.1426  0.4572 -1.0090
80600SOL    HW259411   7.424  12.339   7.004 -1.7518  0.1853 -0.9433
80601SOL     OW59412  10.418  10.812   1.373 -0.4757 -0.1654  0.4407
80601SOL    HW159413  10.440  10.895   1.330 -1.5770  1.4645  2.7884
80601SOL    HW259414  10.501  10.766   1.380  0.0763  0.4591 -1.4036
80602SOL     OW59415   9.840  13.231   3.270  0.1103 -0.3993  0.2352
80602SOL    HW159416   9.845  13.135   3.280 -0.5219 -0.4835 -0.1972
80602SOL    HW259417   9.921  13.254   3.224  0.6666 -0.6166  1.0790
80603SOL     OW59418  11.603   3.446   6.450  0.3964 -0.2971  0.0613
80603SOL    HW159419  11.644   3.389   6.384  0.0246 -2.5727  1.7118
80603SOL    HW259420  11.614   3.400   6.533 -1.1243  1.4201  1.3068
80604SOL     OW59421  13.431   5.948  11.826  0.4030  0.3226  0.2103
80604SOL    HW159422  13.381   5.898  11.761  1.4018 -0.6834  0.1835
80604SOL    HW259423  13.414   6.040  11.803  0.4556 -0.0020 -1.2626
80605SOL     OW59424   8.508   0.185  10.410 -0.1357  0.3196  0.1822
80605SOL    HW159425   8.577   0.140  10.458 -0.1617 -0.4563 -0.4781
80605SOL    HW259426   8.452   0.222  10.478  1.0320  1.1539  0.7292
80606SOL     OW59427   4.012   6.885   7.858  0.1341 -0.7491 -0.6128
80606SOL    HW159428   4.021   6.907   7.765 -1.5935 -0.6321 -0.7759
80606SOL    HW259429   3.923   6.912   7.881  0.9927  0.5657  1.4550
80607SOL     OW59430   7.761  11.125   7.789  0.0131  0.5112 -0.6120
80607SOL    HW159431   7.798  11.050   7.744 -1.4210 -0.0504 -0.9106
80607SOL    HW259432   7.812  11.132   7.870  0.3834 -0.5730 -0.7331
80608SOL     OW59433   6.165  11.035   7.994 -0.4439  0.3233 -0.1273
80608SOL    HW159434   6.108  11.106   8.021  0.9930  0.8487  1.7671
80608SOL    HW259435   6.177  10.981   8.073 -1.7809 -2.3046 -1.5832
80609SOL     OW59436   1.884  12.620  11.103 -0.6491 -0.4829 -0.3606
80609SOL    HW159437   1.840  12.692  11.148 -0.2459 -0.9361  0.7948
80609SOL    HW259438   1.842  12.616  11.017 -0.8584  0.9527 -0.3488
80610SOL     OW59439  13.969  12.712   0.408 -0.0203  0.4574  0.4438
80610SOL    HW159440  14.003  12.692   0.321  0.4860  1.0022  0.5123
80610SOL    HW259441  13.905  12.642   0.425  1.2511 -0.7696  0.4214
80611SOL     OW59442   7.676  12.335   7.243  0.2296  0.1775 -0.2679
80611SOL    HW159443   7.621  12.301   7.173 -0.0018 -0.3806  0.1764
80611SOL    HW259444   7.633  12.416   7.270  1.0021  1.0734 -1.6043
80612SOL     OW59445   7.931  14.033   4.485  0.1965 -0.5952 -0.4315
80612SOL    HW159446   7.990  14.094   4.530 -0.7541  0.4214 -0.5234
80612SOL    HW259447   7.983  13.998   4.413  1.1914 -0.9308  0.4214
80613SOL     OW59448   0.273  13.409   9.517  0.5112 -0.4867  0.1675
80613SOL    HW159449   0.275  13.314   9.525  1.1004 -0.6371 -1.3742
80613SOL    HW259450   0.308  13.426   9.429 -0.1676  1.1204  0.1825
80614SOL     OW59451   9.653  12.390   5.932 -0.1057  0.1909  0.3147
80614SOL    HW159452   9.570  12.411   5.890 -1.2305 -0.1728  2.2252
80614SOL    HW259453   9.697  12.333   5.869 -1.5122  0.0084 -0.5648
80615SOL     OW59454   4.983   8.495   5.024  0.2072  0.1717 -0.5898
80615SOL    HW159455   4.988   8.583   5.063 -0.9360 -0.2536  0.6053
80615SOL    HW259456   5.027   8.439   5.088  0.0816 -0.2568 -0.8817
80616SOL     OW59457   3.280  12.653   2.277  0.4902  0.0825  0.1207
80616SOL    HW159458   3.283  12.689   2.188 -1.0435  0.1689  0.0764
80616SOL    HW259459   3.198  12.687   2.314  0.1528 -1.4605  0.9004
80617SOL     OW59460   0.432   2.807   8.598 -0.2992 -0.2250  0.0253
80617SOL    HW159461   0.348   2.852   8.606 -0.9044 -1.2964  0.0118
80617SOL    HW259462   0.408   2.720   8.566  0.8285 -0.5257 -0.0199
80618SOL     OW59463   0.688   3.754  13.991  0.1747  0.0295  0.6182
80618SOL    HW159464   0.700   3.664  13.962  1.3624  0.2379  0.4049
80618SOL    HW259465   0.708   3.807  13.913 -1.4205  0.4783  0.4624
80619SOL     OW59466   0.470   0.794   5.618  0.1831 -0.0936  0.1500
80619SOL    HW159467   0.467   0.726   5.685  0.5321 -1.3286 -1.0260
80619SOL    HW259468   0.383   0.833   5.619  0.5181  0.7422  2.0869
80620SOL     OW59469   0.754   1.138  11.181 -0.1618  0.2006 -0.2499
80620SOL    HW159470   0.793   1.058  11.146  0.3167  0.2675  0.1327
80620SOL    HW259471   0.692   1.107  11.247  2.0968  0.2115  2.0196
80621SOL     OW59472  12.595   5.296  11.081  0.0276  0.4370 -0.5441
80621SOL    HW159473  12.656   5.352  11.034  1.1910 -1.9147 -2.0629
80621SOL    HW259474  12.622   5.302  11.173  2.2309 -0.0563 -1.1041
80622SOL     OW59475   3.568   9.035   1.688 -0.2951 -0.3187 -0.1884
80622SOL    HW159476   3.472   9.043   1.691 -0.6418 -2.1846 -2.6794
80622SOL    HW259477   3.587   8.958   1.742 -0.2324 -0.1290  0.0598
80623SOL     OW59478   1.155  11.171   7.067  0.1441 -0.2951 -0.1787
80623SOL    HW159479   1.182  11.238   7.129  0.4031 -0.6751  0.1197
80623SOL    HW259480   1.186  11.089   7.105  0.0125 -0.5638 -0.6433
80624SOL     OW59481   1.751  12.430   0.394  0.7692 -0.6974 -0.4327
80624SOL    HW159482   1.840  12.412   0.425  1.7951  0.9929 -2.1165
80624SOL    HW259483   1.758  12.428   0.298  0.3423  4.3680 -0.8809
80625SOL     OW59484  12.135   0.284  11.562  0.0078 -0.0963  0.2868
80625SOL    HW159485  12.143   0.286  11.466  0.3533 -0.6419  0.2985
80625SOL    HW259486  12.152   0.193  11.586  1.2084  0.2769  0.9632
80626SOL     OW59487   2.914   7.216   6.944 -0.1392 -0.3143  0.5810
80626SOL    HW159488   2.970   7.277   6.991 -2.1967  1.0216  1.4561
80626SOL    HW259489   2.867   7.271   6.881 -0.1297 -1.4599 -0.4484
80627SOL     OW59490  12.295   0.323   1.523 -0.1837 -0.1925  0.5714
80627SOL    HW159491  12.288   0.418   1.532  0.0053 -0.0656 -0.4737
80627SOL    HW259492  12.351   0.295   1.596 -0.1138  0.5188  0.7905
80628SOL     OW59493   9.885   4.702   2.911  0.0303 -0.0296  0.0718
80628SOL    HW159494   9.941   4.776   2.887  0.9210 -0.9359 -0.7774
80628SOL    HW259495   9.875   4.652   2.829  0.8847 -1.7635  0.9573
80629SOL     OW59496   8.873   2.596   6.577 -0.4930 -0.3961  0.3405
80629SOL    HW159497   8.926   2.645   6.639 -0.2001 -1.7994  1.2495
80629SOL    HW259498   8.931   2.579   6.503 -0.2320 -0.3894  0.5426
80630SOL     OW59499   6.264  10.729  14.062 -0.2080  0.2754  1.3511
80630SOL    HW159500   6.280  10.740  13.968 -0.0394  0.4994  1.4059
80630SOL    HW259501   6.254  10.635  14.073  2.0885  0.0097  1.4836
80631SOL     OW59502   5.702   8.725   5.188 -0.1701 -0.1209 -0.3457
80631SOL    HW159503   5.624   8.696   5.142 -0.6400  1.1542 -0.3869
80631SOL    HW259504   5.725   8.807   5.146 -0.1427  0.6678  1.1581
80632SOL     OW59505   1.680  13.305   4.305  0.6038  0.1429 -0.1252
80632SOL    HW159506   1.608  13.358   4.272  0.8352  0.6141  0.1196
80632SOL    HW259507   1.685  13.231   4.244 -0.6640 -0.3764  0.3671
80633SOL     OW59508   6.530  11.112   5.260  0.3634  0.2400 -0.0246
80633SOL    HW159509   6.538  11.186   5.199  0.0395  1.7485  1.6738
80633SOL    HW259510   6.605  11.122   5.319 -0.9306  0.6044  1.6199
80634SOL     OW59511  11.471  11.118   2.786  0.1244  0.0897  0.4775
80634SOL    HW159512  11.397  11.166   2.824  1.1930  0.1470  2.6290
80634SOL    HW259513  11.549  11.163   2.818  1.1330 -1.3454  0.1536
80635SOL     OW59514   8.378   7.937  13.385  0.2370  1.0349 -0.4923
80635SOL    HW159515   8.426   7.978  13.456  0.0226  0.3231  0.0765
80635SOL    HW259516   8.446   7.901  13.327  0.4082  1.4608 -0.5584
80636SOL     OW59517   4.949   7.276   2.126 -0.2808  0.6822 -0.3444
80636SOL    HW159518   4.983   7.227   2.051 -0.0026  1.8926 -1.0298
80636SOL    HW259519   5.012   7.346   2.140 -1.5370  1.8870 -0.4875
80637SOL     OW59520   0.119   6.888  12.338 -0.4915  0.2052  0.3952
80637SOL    HW159521   0.209   6.864  12.358  0.7362  3.0802 -0.9935
80637SOL    HW259522   0.092   6.942  12.412  0.3550  2.3673 -0.7711
80638SOL     OW59523   9.593   3.902  10.634  0.8501  0.0716  0.1590
80638SOL    HW159524   9.673   3.937  10.593  1.0806 -0.0836  0.4689
80638SOL    HW259525   9.602   3.807  10.626 -0.3485  0.0757 -1.7667
80639SOL     OW59526  13.593   0.982   5.446  0.2651 -0.6186  0.1910
80639SOL    HW159527  13.651   1.043   5.492 -1.0460  0.5417  0.3653
80639SOL    HW259528  13.648   0.906   5.427  1.7063  0.2534  0.7526
80640SOL     OW59529   8.917   6.605   8.752  0.4456 -0.0481 -0.2851
80640SOL    HW159530   8.832   6.626   8.792  0.5995 -0.1449  0.1053
80640SOL    HW259531   8.949   6.530   8.803  1.3346  0.7753  0.4046
80641SOL     OW59532  12.549   3.514  11.202  0.0473 -0.2383 -0.3035
80641SOL    HW159533  12.470   3.522  11.256 -0.7718  1.5850 -1.6415
80641SOL    HW259534  12.586   3.429  11.225 -0.7429  0.0837  2.4263
80642SOL     OW59535   3.303   0.234  10.459 -0.3515  0.0128 -0.0533
80642SOL    HW159536   3.219   0.245  10.504 -1.5035 -0.2232 -2.0206
80642SOL    HW259537   3.300   0.297  10.387  1.6259  0.7040  0.4154
80643SOL     OW59538   0.976   6.371   3.363 -0.1137 -0.6012 -0.4617
80643SOL    HW159539   0.974   6.453   3.413 -0.4243  0.3094 -1.9330
80643SOL    HW259540   0.886   6.337   3.370  0.5013 -2.0179  1.9742
80644SOL     OW59541   6.304   0.222   7.963 -0.6454  0.7024  0.8262
80644SOL    HW159542   6.295   0.134   7.926 -0.8630  1.0316  0.0695
80644SOL    HW259543   6.363   0.211   8.038 -1.2399 -0.2091  1.1870
80645SOL     OW59544   8.672   4.524   5.866  0.2376  0.0427 -0.2960
80645SOL    HW159545   8.692   4.434   5.841 -2.0765 -0.1243 -1.8878
80645SOL    HW259546   8.721   4.578   5.803  1.7764 -0.0361  0.7777
80646SOL     OW59547   9.325   6.609   7.807  0.4531 -0.2018  0.1264
80646SOL    HW159548   9.408   6.582   7.846  0.6375 -0.5691 -0.5103
80646SOL    HW259549   9.278   6.653   7.879  2.4384  2.8592 -0.2686
80647SOL     OW59550   8.738  12.026   3.243 -0.4720 -0.0092 -0.2820
80647SOL    HW159551   8.781  11.990   3.321  0.6995  0.0429 -0.8850
80647SOL    HW259552   8.662  11.970   3.229 -0.3181 -0.4272  0.5039
80648SOL     OW59553   7.606   6.241   3.584 -0.3397 -0.1344 -1.1124
80648SOL    HW159554   7.541   6.183   3.544  0.0392  0.3542 -2.4715
80648SOL    HW259555   7.575   6.329   3.566  0.4889  0.1022 -1.4488
80649SOL     OW59556   0.951   6.183   9.759  0.2656 -0.0599  0.3800
80649SOL    HW159557   0.973   6.131   9.836 -2.4226 -1.7404  0.1463
80649SOL    HW259558   0.988   6.270   9.777  1.3656 -0.9253  2.6542
80650SOL     OW59559   4.425   7.888   2.588 -0.0623 -0.0044  0.2829
80650SOL    HW159560   4.496   7.938   2.548  0.1206 -2.0046 -2.1511
80650SOL    HW259561   4.424   7.916   2.680  1.0028  3.2035 -0.5744
80651SOL     OW59562   2.683   9.407   0.128  0.1259 -0.4556 -0.1721
80651SOL    HW159563   2.680   9.454   0.045 -1.6526 -0.1203  0.0410
80651SOL    HW259564   2.678   9.476   0.195  3.6103 -0.5287  0.3737
80652SOL     OW59565   3.329   5.671   1.436  0.5944 -0.0110  0.4132
80652SOL    HW159566   3.412   5.695   1.396  0.4544 -0.7822 -0.3807
80652SOL    HW259567   3.274   5.646   1.362 -0.4194  0.6835  0.9031
80653SOL     OW59568   6.915   8.796   8.849  0.2251 -0.0988 -0.5967
80653SOL    HW159569   6.828   8.763   8.870 -0.4886  0.7100 -2.0971
80653SOL    HW259570   6.913   8.809   8.754  1.1381  2.1926 -0.3684
80654SOL     OW59571   2.723  13.813   0.810 -0.0215 -0.8282 -0.4185
80654SOL    HW159572   2.717  13.807   0.905  3.3382  0.0307  0.0001
80654SOL    HW259573   2.715  13.907   0.791  3.9073 -0.2714 -0.2808
80655SOL     OW59574   8.494   2.158   0.634  0.0740 -0.2210  0.4778
80655SOL    HW159575   8.519   2.232   0.688  0.4146  0.9221 -1.1906
80655SOL    HW259576   8.398   2.159   0.633  0.0412  1.7562 -1.4999
80656SOL     OW59577  12.269   0.006  11.555 -0.1135  0.2355 -0.0893
80656SOL    HW159578  12.329   0.052  11.613  0.1175 -0.4250  0.2141
80656SOL    HW259579  12.259  -0.080  11.595 -1.3781  0.3882 -0.0650
80657SOL     OW59580  12.288  13.976   6.879  0.1201  0.3105 -0.3236
80657SOL    HW159581  12.301  14.046   6.816  2.7084  0.0201 -0.2093
80657SOL    HW259582  12.315  13.897   6.832  1.6174  0.0319  0.9286
80658SOL     OW59583  13.556  13.846   8.177 -0.5032  0.0656  1.2028
80658SOL    HW159584  13.644  13.825   8.146 -0.8895  0.6408 -0.3867
80658SOL    HW259585  13.561  13.938   8.204 -1.0602  0.7337 -0.8110
80659SOL     OW59586  10.773   0.980   7.900 -0.1387 -0.4433 -0.6554
80659SOL    HW159587  10.685   0.973   7.937 -0.0006 -0.6615 -0.3669
80659SOL    HW259588  10.826   1.015   7.971 -0.3829  1.6210 -1.4152
80660SOL     OW59589   0.317  10.229   6.238  0.0897  0.2321 -0.2678
80660SOL    HW159590   0.306  10.171   6.313  0.8302 -1.0724 -1.1292
80660SOL    HW259591   0.410  10.252   6.239  0.0738  0.3177 -0.6877
80661SOL     OW59592   9.806   8.862  11.489 -0.1369 -0.7858  0.4320
80661SOL    HW159593   9.817   8.906  11.405  0.7222 -0.2489  0.8075
80661SOL    HW259594   9.893   8.864  11.528 -0.5197 -1.0522  1.3198
80662SOL     OW59595   5.420  13.875   1.779 -0.4749 -0.7423  0.5106
80662SOL    HW159596   5.512  13.875   1.803 -0.0863 -1.8187 -0.8405
80662SOL    HW259597   5.373  13.884   1.862  0.8227 -1.5033  1.3630
80663SOL     OW59598   4.647  11.926  13.305  0.2455  0.2928 -0.2524
80663SOL    HW159599   4.721  11.953  13.251  2.5727 -3.6753  0.5671
80663SOL    HW259600   4.666  11.965  13.391  0.4058  0.7428 -0.4863
80664SOL     OW59601   5.319  11.897  13.714  0.2847 -0.1106  0.4417
80664SOL    HW159602   5.359  11.895  13.801  0.9211 -0.7679  0.1478
80664SOL    HW259603   5.347  11.815  13.673 -1.3495 -0.5876  0.2010
80665SOL     OW59604   5.922   2.287   2.497 -0.1707  0.0504 -0.9388
80665SOL    HW159605   6.015   2.295   2.477 -0.5122  0.2616 -2.5213
80665SOL    HW259606   5.916   2.205   2.546  1.1120  1.0883  1.1535
80666SOL     OW59607   1.916   9.511   4.015  0.2003 -0.3612 -1.0535
80666SOL    HW159608   1.861   9.584   3.986 -1.0512 -1.1755 -0.8137
80666SOL    HW259609   1.909   9.513   4.111 -0.6924 -1.3837 -1.0691
80667SOL     OW59610  10.944   8.663   0.501 -0.3689 -0.5114 -0.0138
80667SOL    HW159611  10.910   8.748   0.472 -1.8346 -0.9055  0.4572
80667SOL    HW259612  10.970   8.619   0.420 -3.4471 -1.1923 -0.7413
80668SOL     OW59613   6.388  14.012   6.771 -0.4976  0.0996 -0.2622
80668SOL    HW159614   6.338  14.032   6.850 -0.7440  1.7700 -0.8146
80668SOL    HW259615   6.438  13.934   6.794 -0.6314  0.4996  1.5265
80669SOL     OW59616   6.051  11.899   2.887 -0.1393  0.1294 -0.0728
80669SOL    HW159617   6.105  11.970   2.920  0.1393  0.8019 -1.8593
80669SOL    HW259618   6.113  11.838   2.846 -0.5010 -0.4064  0.1646
80670SOL     OW59619   2.378   1.743  11.099  0.0228 -0.4904 -0.1780
80670SOL    HW159620   2.442   1.714  11.034  0.7161 -1.0373  0.7247
80670SOL    HW259621   2.293   1.715  11.064  0.3671 -0.6605 -0.8950
80671SOL     OW59622   0.752   4.340  10.120 -0.1303  0.0454 -0.3480
80671SOL    HW159623   0.698   4.278  10.071 -1.2191  0.6720  0.0297
80671SOL    HW259624   0.703   4.356  10.201  1.7179 -1.1229  1.0734
80672SOL     OW59625   7.787  12.316   3.248 -0.4532 -0.4406  0.6335
80672SOL    HW159626   7.737  12.379   3.197 -0.2890  1.5000  2.6946
80672SOL    HW259627   7.728  12.290   3.318  0.5354 -0.0296  1.6559
80673SOL     OW59628   3.310   9.515  12.956 -0.3016 -0.9869 -0.0300
80673SOL    HW159629   3.266   9.582  12.903  1.6398 -0.6606 -1.3411
80673SOL    HW259630   3.248   9.442  12.958  0.1092 -1.7205 -4.3494
80674SOL     OW59631   7.533   9.172   2.148 -0.5390  0.2158 -0.3957
80674SOL    HW159632   7.478   9.103   2.182 -0.2959  0.5902  0.7928
80674SOL    HW259633   7.621   9.134   2.144 -0.7810 -0.2623 -1.9409
80675SOL     OW59634   5.094   7.113   6.783  0.7124 -0.2029 -0.0344
80675SOL    HW159635   5.004   7.087   6.766  0.8856 -0.7023 -0.2291
80675SOL    HW259636   5.135   7.115   6.696  0.5955  1.1841 -0.0751
80676SOL     OW59637  10.004   0.870   3.118  0.2570 -0.8701  0.1628
80676SOL    HW159638  10.037   0.784   3.144 -0.1799  0.0311  4.2714
80676SOL    HW259639  10.082   0.919   3.093  0.7276 -1.8300 -0.3139
80677SOL     OW59640  13.148   4.980   2.527  0.2845  0.0563 -0.5588
80677SOL    HW159641  13.208   4.906   2.521 -0.2846 -0.4083 -0.5749
80677SOL    HW259642  13.201   5.051   2.563  0.4635 -0.7847  0.9004
80678SOL     OW59643  11.081   7.535   7.704  0.1338 -0.0674 -0.1164
80678SOL    HW159644  11.027   7.554   7.781  0.4694 -0.0051  0.1031
80678SOL    HW259645  11.054   7.599   7.639  1.3444  1.2674  0.6485
80679SOL     OW59646  13.017   8.476   0.081  0.5741 -0.1205 -0.4504
80679SOL    HW159647  12.997   8.552   0.028 -1.2167 -0.2948 -0.0757
80679SOL    HW259648  12.995   8.401   0.026  0.8501 -0.3462 -0.2614
80680SOL     OW59649   7.870   8.647   5.853  0.7945  0.9205 -0.0784
80680SOL    HW159650   7.904   8.730   5.886  3.0959 -0.4065  1.1677
80680SOL    HW259651   7.947   8.590   5.848 -0.6895 -1.1310 -0.9361
80681SOL     OW59652  11.317  11.471   6.213  0.9078  0.5947 -0.5225
80681SOL    HW159653  11.354  11.512   6.134  1.8996  1.0350  0.1597
80681SOL    HW259654  11.379  11.402   6.236  0.6630  0.5245 -0.0699
80682SOL     OW59655   8.119   9.138   4.904 -0.5221 -0.2089 -0.0383
80682SOL    HW159656   8.126   9.118   4.811 -1.0700 -0.6626  0.0179
80682SOL    HW259657   8.202   9.182   4.925  0.2259 -1.3918 -0.4143
80683SOL     OW59658  10.942  10.925  11.078 -0.3424  0.2190  0.5259
80683SOL    HW159659  10.856  10.884  11.085 -0.5722  0.5878 -0.0475
80683SOL    HW259660  10.930  11.012  11.116 -0.2280  0.2751  0.4343
80684SOL     OW59661  13.664  12.739   5.525 -0.0429  0.0163 -0.1779
80684SOL    HW159662  13.759  12.733   5.527 -0.1219 -1.7493  1.1023
80684SOL    HW259663  13.636  12.656   5.484 -1.0524 -0.4116  1.3070
80685SOL     OW59664   4.494   9.819   1.078  0.1491  0.4067  0.0682
80685SOL    HW159665   4.589   9.810   1.078  0.1329 -0.7593  2.6153
80685SOL    HW259666   4.473   9.847   1.168 -2.0613 -1.8845  0.3804
80686SOL     OW59667   0.724  10.995  12.966 -0.6205  0.6890  0.0253
80686SOL    HW159668   0.701  10.907  12.994  0.7428  0.4794  0.5445
80686SOL    HW259669   0.697  11.052  13.039  1.9194  0.2604  1.4183
80687SOL     OW59670  10.458   8.972  14.003 -0.1672  0.2030 -0.1126
80687SOL    HW159671  10.505   8.956  13.921 -0.7021  0.4565 -0.4771
80687SOL    HW259672  10.505   9.044  14.044  1.0514 -0.9418  0.5758
80688SOL     OW59673  10.985   0.121   2.342  0.1121 -0.1056 -0.2978
80688SOL    HW159674  11.040   0.065   2.397  0.4727 -1.5842 -2.0810
80688SOL    HW259675  11.045   0.155   2.276 -0.3464  1.5454  0.0800
80689SOL     OW59676   2.375   2.997   2.381 -0.1916  0.5056 -0.0116
80689SOL    HW159677   2.373   3.019   2.475  1.9824  0.0590  0.1920
80689SOL    HW259678   2.373   2.901   2.379  2.0972  0.3909 -0.2223
80690SOL     OW59679   8.813   3.562   3.250 -0.4013 -0.7528  0.2343
80690SOL    HW159680   8.804   3.478   3.205  0.6456 -0.2895 -0.9018
80690SOL    HW259681   8.794   3.628   3.182  1.3438 -0.0357  0.3838
80691SOL     OW59682   3.282  12.958  10.013 -0.2473 -0.0427 -0.0947
80691SOL    HW159683   3.369  12.972   9.976 -0.5631  0.2942 -0.7155
80691SOL    HW259684   3.297  12.898  10.086  0.3815 -0.6834 -0.7415
80692SOL     OW59685   1.474   8.869   5.015  0.2700 -0.0139  0.6969
80692SOL    HW159686   1.452   8.961   5.033  0.6887  0.5128 -1.1697
80692SOL    HW259687   1.391   8.827   4.995  0.1202  0.0526  1.1721
80693SOL     OW59688  13.365   4.511   3.676  0.1093  0.2528 -0.5613
80693SOL    HW159689  13.331   4.588   3.631  0.7399  0.8883  0.0405
80693SOL    HW259690  13.459   4.525   3.681  0.2191 -0.4973 -0.3326
80694SOL     OW59691   6.366   7.314   9.114 -0.0288 -0.2707  0.3251
80694SOL    HW159692   6.349   7.331   9.206 -0.6431  1.7932 -0.1305
80694SOL    HW259693   6.445   7.366   9.094 -0.6093  0.2946 -0.5820
80695SOL     OW59694   8.887   3.196   9.989  0.0516  0.1813 -0.0934
80695SOL    HW159695   8.957   3.139  10.023 -1.0666 -1.1647  0.0352
80695SOL    HW259696   8.877   3.264  10.055  0.5882 -0.1694  0.3634
80696SOL     OW59697  11.081   1.791   1.540 -0.8711 -0.0298  0.0596
80696SOL    HW159698  11.000   1.803   1.589 -1.3570 -1.4393 -0.3544
80696SOL    HW259699  11.052   1.775   1.450 -0.1523 -0.7069 -0.0608
80697SOL     OW59700   2.619  13.966   6.706 -0.0935  0.3486 -0.4560
80697SOL    HW159701   2.527  13.981   6.730  0.2176  1.9658 -0.1601
80697SOL    HW259702   2.636  13.876   6.733 -0.5439  1.1554  3.0510
80698SOL     OW59703  10.423   0.460   7.202 -0.0882 -0.1373 -0.9475
80698SOL    HW159704  10.389   0.536   7.155 -0.2502 -0.2717 -1.0494
80698SOL    HW259705  10.500   0.493   7.248 -1.2421  0.5887  0.5743
80699SOL     OW59706   1.567   0.988   7.154  0.0831 -0.3628 -0.0009
80699SOL    HW159707   1.624   1.065   7.156 -1.6837  1.0046  0.5373
80699SOL    HW259708   1.625   0.915   7.174  1.8651  0.7746 -0.6878
80700SOL     OW59709   7.222  11.718   3.796 -0.4917  0.3275 -0.2698
80700SOL    HW159710   7.245  11.808   3.817 -1.1375  0.2141  1.0280
80700SOL    HW259711   7.277  11.665   3.854 -0.6457 -0.0983 -0.5023
80701SOL     OW59712  13.055   0.731  12.742 -0.2080 -0.2070 -0.1681
80701SOL    HW159713  12.963   0.706  12.740  0.2933 -2.2921  0.5349
80701SOL    HW259714  13.055   0.824  12.720 -2.5071 -0.0454  0.2868
80702SOL     OW59715  11.645  13.570   6.517 -0.1362 -0.2605 -0.3058
80702SOL    HW159716  11.564  13.610   6.483 -1.9010 -1.2218  2.3959
80702SOL    HW259717  11.626  13.554   6.610  2.4263 -2.4936 -0.0537
80703SOL     OW59718   5.903   1.718  13.744  0.1725  0.0114  0.6257
80703SOL    HW159719   5.810   1.721  13.723  0.1997  1.0186  0.6135
80703SOL    HW259720   5.931   1.631  13.714 -0.8944 -0.5794  1.2591
80704SOL     OW59721  10.207  13.615  14.062  0.0721 -0.4482 -0.1713
80704SOL    HW159722  10.267  13.547  14.093  0.8145  0.9395  1.6154
80704SOL    HW259723  10.137  13.617  14.127  1.8959  2.8407  1.9834
80705SOL     OW59724   2.144   5.832  13.002 -0.0746 -0.1313 -0.0117
80705SOL    HW159725   2.170   5.749  12.964  2.5369  1.1947 -1.4193
80705SOL    HW259726   2.182   5.831  13.090  1.7179  0.2818 -0.7314
80706SOL     OW59727   1.673   5.423   0.639  0.6660 -0.2133 -0.6534
80706SOL    HW159728   1.645   5.483   0.571 -0.3723 -0.4238 -0.4358
80706SOL    HW259729   1.640   5.462   0.721  0.5348 -0.7386 -0.4480
80707SOL     OW59730   3.283   5.672   3.493  0.0719 -0.1732 -0.0654
80707SOL    HW159731   3.193   5.693   3.470  0.3825 -0.0208 -1.2069
80707SOL    HW259732   3.336   5.725   3.434  0.9127 -0.3758  0.4882
80708SOL     OW59733   1.923   0.789   6.173  0.4120  0.1772 -0.1905
80708SOL    HW159734   1.944   0.855   6.239 -0.8039  0.3176  0.0925
80708SOL    HW259735   1.827   0.790   6.169  0.4619  0.5087 -2.2976
80709SOL     OW59736  11.996   2.554   0.586  0.3821 -0.3182  0.0065
80709SOL    HW159737  11.959   2.608   0.516  0.0248  0.6332  0.9084
80709SOL    HW259738  12.043   2.484   0.540 -0.6193 -0.2452 -1.1696
80710SOL     OW59739   1.227   4.650   1.492  0.2291 -0.4242 -0.0849
80710SOL    HW159740   1.260   4.582   1.434 -0.2314  1.2274 -2.3998
80710SOL    HW259741   1.195   4.719   1.434  0.7303  1.8457  2.1346
80711SOL     OW59742  11.591   4.837   9.100 -0.0645 -0.1602  0.1938
80711SOL    HW159743  11.666   4.792   9.060  1.3787  1.3931  1.0440
80711SOL    HW259744  11.627   4.878   9.178 -1.8694  0.4723  0.7264
80712SOL     OW59745   3.365   5.765   5.660  0.0792  0.1143 -0.2532
80712SOL    HW159746   3.375   5.684   5.611  0.9553  0.8287 -1.3035
80712SOL    HW259747   3.296   5.746   5.724  0.6144 -1.5874 -0.1404
80713SOL     OW59748   3.719   6.695   3.816 -0.1198  0.3782  0.5871
80713SOL    HW159749   3.814   6.684   3.821 -0.2693 -0.6211  1.6319
80713SOL    HW259750   3.693   6.718   3.905 -1.1200 -1.7637  0.8894
80714SOL     OW59751  13.497  12.849   3.451  0.5827 -0.6740  0.2552
80714SOL    HW159752  13.560  12.782   3.425  1.1020 -0.0918 -0.0347
80714SOL    HW259753  13.498  12.847   3.547  2.2503  0.3969  0.3023
80715SOL     OW59754   8.905  12.162   9.176  0.0077  0.1048 -0.6561
80715SOL    HW159755   8.886  12.143   9.268 -0.3798 -0.0417 -0.7660
80715SOL    HW259756   8.951  12.246   9.178 -0.9775  0.6593 -0.4113
80716SOL     OW59757  13.744   8.167   7.088 -0.2398  0.6268  0.0928
80716SOL    HW159758  13.768   8.148   7.179 -1.8951  0.1805  0.4719
80716SOL    HW259759  13.653   8.136   7.080 -0.3112  1.1595 -1.5600
80717SOL     OW59760   2.535   1.374   1.385 -0.2264  0.1223  0.2617
80717SOL    HW159761   2.594   1.419   1.446 -0.0710 -0.0580  0.2438
80717SOL    HW259762   2.487   1.445   1.343  0.9738  0.3760 -0.7517
80718SOL     OW59763   3.566   4.696   2.149  0.2761 -0.1001  0.2438
80718SOL    HW159764   3.655   4.721   2.125  0.2397 -0.4162 -0.2120
80718SOL    HW259765   3.514   4.714   2.071  0.0718 -0.6352  0.2536
80719SOL     OW59766   4.045   4.093  10.691  0.5161  0.3588  0.1198
80719SOL    HW159767   4.086   4.012  10.722  2.0700  0.6471 -1.0641
80719SOL    HW259768   4.050   4.087  10.596 -0.4829  1.3022 -0.0120
80720SOL     OW59769   6.500   3.061  14.035 -0.1202  0.5851  0.6241
80720SOL    HW159770   6.492   3.144  14.082 -0.3722  0.1531  1.3684
80720SOL    HW259771   6.447   3.000  14.087  0.7806 -0.2484  0.5880
80721SOL     OW59772   1.970  10.201   0.027  0.2276  0.5503 -0.1469
80721SOL    HW159773   2.050  10.153   0.044  0.6771  1.1345 -0.5616
80721SOL    HW259774   1.968  10.270   0.094 -1.7033 -1.4987  2.0864
80722SOL     OW59775  10.188  10.637   2.527  0.1148  0.3198 -0.5048
80722SOL    HW159776  10.202  10.727   2.496  1.7070 -0.0561 -0.9517
80722SOL    HW259777  10.231  10.582   2.462 -1.1872 -0.8182 -0.4497
80723SOL     OW59778   3.688   5.153  10.197 -0.3035 -0.3298  0.8820
80723SOL    HW159779   3.745   5.211  10.248 -1.4478  0.7754  0.9683
80723SOL    HW259780   3.712   5.065  10.225  1.5130  0.0782  0.7271
80724SOL     OW59781  11.528  11.688   4.145  0.3078  0.7148  0.1022
80724SOL    HW159782  11.490  11.761   4.095 -2.9876 -1.1261 -0.3214
80724SOL    HW259783  11.524  11.717   4.236 -0.1127  1.4197 -0.1282
80725SOL     OW59784   0.361  12.748  13.849  0.0762 -0.6911  0.5402
80725SOL    HW159785   0.441  12.797  13.867  0.3757 -0.3263 -1.4877
80725SOL    HW259786   0.386  12.685  13.782 -1.1448 -1.1268  0.4642
80726SOL     OW59787   9.102  13.589  11.380 -0.0526 -0.6431 -0.1040
80726SOL    HW159788   9.033  13.644  11.416  2.1046  2.6890 -0.6532
80726SOL    HW259789   9.115  13.622  11.291  2.1466 -1.1883 -0.0496
80727SOL     OW59790  13.059  13.275   8.478  0.2839 -0.8545 -0.2901
80727SOL    HW159791  13.115  13.353   8.469  0.4403 -0.8599  0.5933
80727SOL    HW259792  13.072  13.246   8.568 -1.6713 -0.4525  0.1580
80728SOL     OW59793   8.491   8.738   1.194 -0.6121 -0.1363 -0.4847
80728SOL    HW159794   8.506   8.708   1.104  0.3236 -1.0051 -0.0668
80728SOL    HW259795   8.446   8.665   1.236 -1.4972  0.4623 -0.3561
80729SOL     OW59796  11.194   5.176   1.760 -0.5196  0.3740 -0.2430
80729SOL    HW159797  11.243   5.115   1.705 -2.2882  0.1895 -1.7424
80729SOL    HW259798  11.154   5.237   1.697 -0.8167  1.5451  1.0395
80730SOL     OW59799  11.572   4.552  10.739 -0.3439 -0.0165  0.2626
80730SOL    HW159800  11.483   4.525  10.761  0.0157  0.5749  2.7828
80730SOL    HW259801  11.565   4.589  10.651 -1.9729 -2.6153 -0.8319
80731SOL     OW59802   2.392   2.452  11.290 -0.3413 -0.0065 -0.4069
80731SOL    HW159803   2.470   2.398  11.291 -0.2192  0.1432 -1.1714
80731SOL    HW259804   2.324   2.397  11.329  0.5868  0.6032  2.2679
80732SOL     OW59805  11.676   2.532   9.569 -0.0477  0.1293 -0.5444
80732SOL    HW159806  11.701   2.439   9.568  0.7782  0.3456 -0.9474
80732SOL    HW259807  11.732   2.572   9.503  0.0686  1.0283  0.0828
80733SOL     OW59808  13.833   8.199  13.321 -0.8124 -0.3888  0.1909
80733SOL    HW159809  13.741   8.226  13.318 -0.8710 -0.6312 -2.1844
80733SOL    HW259810  13.882   8.279  13.300 -0.4960 -0.3480  1.0617
80734SOL     OW59811  11.705  11.630   3.824  0.1987  0.1848 -0.8921
80734SOL    HW159812  11.626  11.587   3.793  0.6713 -0.2157 -1.5541
80734SOL    HW259813  11.672  11.707   3.872 -0.5729  0.5233 -1.9085
80735SOL     OW59814   4.491   0.338   7.052  0.2763  0.3067 -0.4351
80735SOL    HW159815   4.579   0.370   7.034 -0.3189  2.0389 -0.4732
80735SOL    HW259816   4.499   0.290   7.134  0.8149  2.7855  1.0766
80736SOL     OW59817  12.190   3.477  10.740 -0.5500 -0.3728  0.6984
80736SOL    HW159818  12.206   3.424  10.819  1.2018 -1.4437 -0.3213
80736SOL    HW259819  12.233   3.560  10.758  0.2317 -0.7705  0.7294
80737SOL     OW59820   1.534   6.170   9.602 -0.5596  0.4245  0.0485
80737SOL    HW159821   1.455   6.124   9.573 -1.3930  1.5845  0.4222
80737SOL    HW259822   1.518   6.190   9.694 -0.9498  2.8885 -0.5000
80738SOL     OW59823  10.505   0.494   3.317  0.3915  0.1054 -0.7885
80738SOL    HW159824  10.557   0.569   3.349 -0.3765  0.8123 -1.1608
80738SOL    HW259825  10.496   0.510   3.223  1.7079 -1.3936 -1.2098
80739SOL     OW59826  12.506  10.508   4.239 -0.2301 -0.8343 -0.3200
80739SOL    HW159827  12.511  10.500   4.334  0.1668  0.1648 -0.2498
80739SOL    HW259828  12.560  10.584   4.218 -0.5244 -0.8866 -1.3191
80740SOL     OW59829   1.483   8.186   5.348  0.0890 -0.1733  0.0357
80740SOL    HW159830   1.552   8.252   5.335  0.1473 -0.3133 -0.3649
80740SOL    HW259831   1.452   8.202   5.437 -0.2128  0.6979 -0.2121
80741SOL     OW59832   1.451   7.862  11.905  0.1174  0.8033 -0.4341
80741SOL    HW159833   1.407   7.940  11.938  0.2132  0.9690 -0.6944
80741SOL    HW259834   1.389   7.791  11.921 -0.4739  1.1146 -1.2824
80742SOL     OW59835   1.166   9.767   0.987 -0.3318  0.1239 -0.3538
80742SOL    HW159836   1.250   9.806   0.962 -0.3875  0.1776 -0.4541
80742SOL    HW259837   1.105   9.841   0.988  0.0842  0.5090  1.8815
80743SOL     OW59838   3.019   4.913   7.132 -0.3114 -0.3934 -0.1393
80743SOL    HW159839   2.941   4.881   7.088 -0.9179 -1.6189  1.7152
80743SOL    HW259840   3.091   4.866   7.090 -0.5694  0.4180 -1.5591
80744SOL     OW59841  10.085   4.421   6.996 -0.4481 -0.0467  0.1556
80744SOL    HW159842  10.074   4.457   7.084  0.7747 -1.1939  0.8251
80744SOL    HW259843   9.996   4.402   6.966 -0.9591  1.4153  0.6554
80745SOL     OW59844   9.466   4.228   3.289 -0.2147 -0.0881  0.0042
80745SOL    HW159845   9.536   4.276   3.244 -0.5560  2.0479  1.5517
80745SOL    HW259846   9.386   4.273   3.262 -0.4757  0.8852  2.1493
80746SOL     OW59847   7.266   7.421   8.777 -0.8079  0.2952 -0.0606
80746SOL    HW159848   7.264   7.516   8.794  0.3720  0.4602 -0.7687
80746SOL    HW259849   7.199   7.407   8.710 -1.1317  0.5954  0.1977
80747SOL     OW59850  11.947   7.861  10.044  0.1468 -0.0459 -0.2370
80747SOL    HW159851  11.876   7.904   9.995 -0.4190 -0.7829 -0.0952
80747SOL    HW259852  11.967   7.921  10.116 -0.3236  0.1795 -0.2889
80748SOL     OW59853   0.196  11.483  11.356 -0.6147  0.0344 -0.3513
80748SOL    HW159854   0.280  11.516  11.323 -0.5884 -0.6096 -0.9524
80748SOL    HW259855   0.214  11.391  11.376 -0.8565  0.1999  0.6897
80749SOL     OW59856   2.279  12.149   5.135 -0.1996 -0.3165  0.2016
80749SOL    HW159857   2.336  12.224   5.117  0.7278 -0.6765  1.5182
80749SOL    HW259858   2.256  12.116   5.048  4.6101 -2.3938 -0.5901
80750SOL     OW59859   0.593   7.374   0.262 -0.0766  0.0898  0.0786
80750SOL    HW159860   0.665   7.353   0.321 -0.2183 -1.2640 -0.1897
80750SOL    HW259861   0.626   7.444   0.207  0.3449  0.8037  1.2175
80751SOL     OW59862   1.605   8.004   2.900  0.1726 -0.5521  0.0762
80751SOL    HW159863   1.680   8.036   2.850  0.2516 -0.3469  0.3204
80751SOL    HW259864   1.532   8.008   2.839 -0.0004  0.9301  0.3326
80752SOL     OW59865   2.435   0.697   9.480 -0.2689  0.4474 -0.0731
80752SOL    HW159866   2.404   0.616   9.441 -1.7845  1.1823 -0.4811
80752SOL    HW259867   2.491   0.736   9.413 -1.0856  0.6365 -0.6702
80753SOL     OW59868   5.698   1.846   8.394  0.0961 -0.5049 -0.3403
80753SOL    HW159869   5.656   1.805   8.469  0.5766  0.8916  0.7330
80753SOL    HW259870   5.627   1.859   8.331 -1.1799  1.8413  1.4442
80754SOL     OW59871   2.016   2.112  13.032  0.0708 -0.1697 -0.0620
80754SOL    HW159872   1.957   2.037  13.036  0.9626 -1.0112 -1.5548
80754SOL    HW259873   2.103   2.074  13.020  0.6466  1.0770  0.0097
80755SOL     OW59874   6.546  10.908   0.403  0.7294 -0.5839  0.3664
80755SOL    HW159875   6.491  10.869   0.336  1.6079 -1.0244 -0.1116
80755SOL    HW259876   6.521  11.001   0.403  0.8558 -0.5373 -0.7048
80756SOL     OW59877   6.105  13.836   6.703 -0.8767  0.1614  0.6920
80756SOL    HW159878   6.067  13.887   6.774  0.8506  0.2234  1.6367
80756SOL    HW259879   6.148  13.900   6.647 -2.8936  0.1948 -0.9054
80757SOL     OW59880  11.824   1.676   8.591  0.2992  0.1367  0.6711
80757SOL    HW159881  11.890   1.663   8.523 -0.8421 -0.5017 -0.3495
80757SOL    HW259882  11.771   1.749   8.559 -0.8828 -0.8466  0.3338
80758SOL     OW59883  11.330   0.437  12.250 -0.2615  1.0183  0.2674
80758SOL    HW159884  11.397   0.502  12.273  1.2799 -0.6866  0.7705
80758SOL    HW259885  11.329   0.439  12.154  0.4753  1.1204  0.2478
80759SOL     OW59886   2.561   5.339  10.566 -0.5012  0.2036 -0.2368
80759SOL    HW159887   2.618   5.372  10.636 -1.7134 -0.9139  1.3399
80759SOL    HW259888   2.596   5.379  10.487  0.0806  2.6280  1.1440
80760SOL     OW59889  10.254   0.788   5.900 -0.1965  0.2225 -0.2331
80760SOL    HW159890  10.269   0.881   5.883  0.2353  0.2233  0.1307
80760SOL    HW259891  10.188   0.762   5.835 -0.3495  0.7885 -0.3099
80761SOL     OW59892  12.362   2.758  10.607  0.7475 -0.7521 -0.0161
80761SOL    HW159893  12.395   2.751  10.696  0.2095 -1.6127  0.1330
80761SOL    HW259894  12.380   2.848  10.581  2.5867 -0.9974  0.2767
80762SOL     OW59895   4.549   5.103   8.344 -0.7078  0.0814 -0.5688
80762SOL    HW159896   4.571   5.117   8.252 -0.2438  0.5016 -0.4006
80762SOL    HW259897   4.455   5.122   8.349 -0.9861 -1.0959 -1.1687
80763SOL     OW59898   3.479   1.770   4.663  0.2850  0.1657 -0.4405
80763SOL    HW159899   3.412   1.731   4.608 -0.5733 -0.7139  1.1601
80763SOL    HW259900   3.556   1.777   4.606 -0.3533 -1.3202 -1.5512
80764SOL     OW59901   6.692   6.773   3.832  0.0715  0.3150  0.3729
80764SOL    HW159902   6.769   6.817   3.869 -0.1198 -0.0157  1.1712
80764SOL    HW259903   6.685   6.810   3.744 -0.2366  2.0964  1.1022
80765SOL     OW59904   7.650   1.647   3.424  0.1503  0.4799 -0.3866
80765SOL    HW159905   7.580   1.616   3.481 -0.6211 -0.6869 -1.9143
80765SOL    HW259906   7.723   1.664   3.484 -0.7275 -0.3658  0.9842
80766SOL     OW59907   4.236   8.568   7.674 -0.2124  0.2112 -0.0011
80766SOL    HW159908   4.161   8.538   7.725 -0.3403  1.0809  0.3431
80766SOL    HW259909   4.291   8.615   7.737  0.5348 -0.2505 -0.2895
80767SOL     OW59910  11.975   5.390  10.238  0.1827 -0.3070  0.0835
80767SOL    HW159911  11.997   5.440  10.159 -2.0452  0.6027 -0.0544
80767SOL    HW259912  11.952   5.303  10.205  1.6320 -0.6942  0.0378
80768SOL     OW59913  11.989   9.872  12.156  0.7560  0.2492 -0.0833
80768SOL    HW159914  11.897   9.847  12.163  1.4977 -2.5276  1.2639
80768SOL    HW259915  11.987   9.964  12.129 -2.3883  0.5819  0.8539
80769SOL     OW59916  11.588  10.307   1.870 -0.5182 -0.4332  0.2298
80769SOL    HW159917  11.525  10.235   1.879  0.4362 -1.1505  1.4767
80769SOL    HW259918  11.641  10.284   1.794  0.4920 -1.6432  1.2631
80770SOL     OW59919   2.777  13.914  11.083  0.3035  0.3580  0.1220
80770SOL    HW159920   2.722  13.859  11.139 -0.5663 -0.6571 -1.6586
80770SOL    HW259921   2.814  13.979  11.143 -1.9116  0.3776  1.5865
80771SOL     OW59922  12.585  10.472   0.221  0.0549 -0.2546  0.0456
80771SOL    HW159923  12.555  10.555   0.185  1.1172 -0.2613 -0.9084
80771SOL    HW259924  12.506  10.418   0.225 -0.0825 -0.4529 -2.9071
80772SOL     OW59925   4.670  14.037   5.724 -0.0506  0.2272  0.2098
80772SOL    HW159926   4.671  13.945   5.697 -0.6941  0.1524  0.4272
80772SOL    HW259927   4.622  14.082   5.655  0.4670  0.4445 -0.0152
80773SOL     OW59928  13.285   3.099   8.185  0.7974 -0.4603  0.3210
80773SOL    HW159929  13.234   3.088   8.265 -0.4086 -0.9052 -0.4856
80773SOL    HW259930  13.289   3.012   8.146  2.8458 -0.6112  0.7175
80774SOL     OW59931   4.784   9.718   6.455 -0.5151 -0.4861 -0.6581
80774SOL    HW159932   4.800   9.666   6.534 -0.2789 -0.1481 -0.4847
80774SOL    HW259933   4.758   9.653   6.389 -1.7474 -0.6704 -0.0328
80775SOL     OW59934   6.417  12.955  12.800 -0.1349 -0.6641  0.1228
80775SOL    HW159935   6.495  12.964  12.745  0.9913  1.2677  1.8768
80775SOL    HW259936   6.384  13.044  12.810 -1.7232 -1.2699  0.6447
80776SOL     OW59937   8.931  14.090   2.827 -0.0959 -1.0064 -0.1149
80776SOL    HW159938   8.928  14.179   2.793 -0.6005 -1.1372 -0.4349
80776SOL    HW259939   8.870  14.041   2.770 -2.9645 -0.7491  2.4499
80777SOL     OW59940   3.310   2.616   4.635  0.4964  0.4090 -0.0451
80777SOL    HW159941   3.252   2.691   4.645  1.4093  0.8199  3.2047
80777SOL    HW259942   3.259   2.542   4.669  0.8325  0.2179  0.0411
80778SOL     OW59943  10.510  10.610   2.851 -0.0952 -0.0296 -0.1368
80778SOL    HW159944  10.518  10.646   2.939  0.6289 -0.1479 -0.1465
80778SOL    HW259945  10.419  10.623   2.828 -0.1273  0.6447  0.3526
80779SOL     OW59946   9.106   0.186  10.127  0.1433 -0.2935  0.0015
80779SOL    HW159947   9.101   0.209  10.220  1.7528  0.1802  0.0116
80779SOL    HW259948   9.108   0.090  10.127  2.3786 -0.3068  0.6754
80780SOL     OW59949   4.080   3.036   6.577 -0.0226  0.0460  0.3009
80780SOL    HW159950   4.090   3.125   6.544 -1.5522  0.5322  1.0165
80780SOL    HW259951   4.123   2.981   6.513  1.6418  1.3557  0.2391
80781SOL     OW59952   6.617  13.422   9.012  0.0258 -0.3399 -0.0151
80781SOL    HW159953   6.596  13.501   9.061  0.9195 -0.5419  0.7142
80781SOL    HW259954   6.533  13.376   9.005 -0.1483 -0.2542  1.2449
80782SOL     OW59955   7.905   2.835  10.921  0.2560 -0.1578  0.0532
80782SOL    HW159956   7.983   2.826  10.976  0.3202  2.9912  0.6874
80782SOL    HW259957   7.838   2.869  10.980 -0.2775  1.3571 -1.3276
80783SOL     OW59958   3.679   2.221   3.839  0.0755 -0.6218  0.2441
80783SOL    HW159959   3.750   2.236   3.902  0.0101 -0.4702  0.2834
80783SOL    HW259960   3.599   2.241   3.888  0.1166  1.4678 -0.4280
80784SOL     OW59961   3.220   3.205   3.916 -0.2405 -0.1215 -0.0912
80784SOL    HW159962   3.240   3.173   3.828  0.4478  1.3236 -0.4898
80784SOL    HW259963   3.146   3.151   3.945 -0.2887 -0.8144 -1.4393
80785SOL     OW59964  12.078  13.828   1.000  0.3693 -0.2137 -0.0460
80785SOL    HW159965  12.164  13.870   0.994  0.7989 -0.5637  2.4854
80785SOL    HW259966  12.056  13.831   1.093 -1.3400 -2.1787 -0.3047
80786SOL     OW59967  10.446   4.241   2.845 -0.4640  0.2352 -0.2324
80786SOL    HW159968  10.433   4.332   2.818 -1.3821  0.2657  0.2775
80786SOL    HW259969  10.408   4.235   2.932 -0.3550 -0.6242 -0.2298
80787SOL     OW59970   6.266   7.702  13.802  0.1841  1.0633  0.2002
80787SOL    HW159971   6.177   7.739  13.805 -0.0035  0.5802  0.6644
80787SOL    HW259972   6.306   7.743  13.725 -0.1009  2.0445  0.5634
80788SOL     OW59973   0.334  12.242  11.519 -0.1234 -0.3671  0.4159
80788SOL    HW159974   0.408  12.279  11.472  0.0074 -0.2217  0.7293
80788SOL    HW259975   0.332  12.150  11.493 -1.3443  0.1494 -1.5221
80789SOL     OW59976   9.388   3.046   4.603 -0.7639 -0.3210 -0.5038
80789SOL    HW159977   9.440   3.052   4.522  0.2372  0.9422  0.1974
80789SOL    HW259978   9.441   2.992   4.661  0.2775  1.6839  0.5259
80790SOL     OW59979   1.851  11.520   4.456 -0.2960 -0.7290 -0.5055
80790SOL    HW159980   1.940  11.490   4.475 -0.7118 -1.3780  0.4825
80790SOL    HW259981   1.811  11.530   4.542 -0.1487  2.9068 -0.7373
80791SOL     OW59982   8.251  11.747   1.827  0.2211  0.6569 -0.0657
80791SOL    HW159983   8.337  11.717   1.796  0.4177  1.6770 -0.5637
80791SOL    HW259984   8.194  11.671   1.815  0.7637  0.3650 -0.9702
80792SOL     OW59985  10.738  10.644  12.362  0.2768  0.1153 -0.6694
80792SOL    HW159986  10.764  10.585  12.291  0.1814 -0.2920 -0.3760
80792SOL    HW259987  10.819  10.691  12.385  0.3798  0.0193 -0.8381
80793SOL     OW59988  10.729   8.187   6.837  0.3149 -0.0186  0.4578
80793SOL    HW159989  10.732   8.260   6.775 -0.0523 -2.3393 -2.5256
80793SOL    HW259990  10.820   8.165   6.853  0.4690 -1.2532 -1.7600
80794SOL     OW59991   8.749  10.629  13.056 -0.1473  0.1737 -0.1489
80794SOL    HW159992   8.798  10.693  13.107  0.1880  0.8203 -1.2568
80794SOL    HW259993   8.687  10.592  13.118  1.5782 -0.5258  1.2524
80795SOL     OW59994  10.738  12.257   5.581 -0.0554  0.1598 -0.0619
80795SOL    HW159995  10.832  12.239   5.576 -0.1314 -0.0206 -0.9886
80795SOL    HW259996  10.732  12.347   5.613  0.4289  0.0813  0.2502
80796SOL     OW59997   2.315  11.335  10.316 -0.1136 -0.5583  0.1225
80796SOL    HW159998   2.234  11.359  10.361  0.1087 -1.7466  1.2259
80796SOL    HW259999   2.359  11.276  10.377  0.3975 -1.9392 -1.5128
80797SOL     OW60000   5.164  13.756   4.519 -0.1393  0.0661 -0.1784
80797SOL    HW160001   5.201  13.671   4.543 -0.2461 -0.2444 -1.1082
80797SOL    HW260002   5.080  13.760   4.565 -0.0248 -0.2269  0.0549
80798SOL     OW60003  12.175   8.987  12.945  0.2337  0.1138 -0.3869
80798SOL    HW160004  12.099   9.016  12.895  0.6598  2.1084  0.0183
80798SOL    HW260005  12.182   9.050  13.017  2.1781 -0.0904 -0.3277
80799SOL     OW60006  10.420   0.290  10.182  0.1677 -0.4767 -0.3372
80799SOL    HW160007  10.358   0.259  10.248 -1.4077 -0.0320 -1.5460
80799SOL    HW260008  10.435   0.215  10.126  2.5295 -1.2403  1.1969
80800SOL     OW60009   6.838   0.716  11.998  0.0384 -0.7854  0.6400
80800SOL    HW160010   6.928   0.700  11.970  0.6248  1.9630  0.6262
80800SOL    HW260011   6.847   0.759  12.083 -0.9687  2.5371 -0.7746
80801SOL     OW60012   3.526  13.948  12.350 -0.6966 -0.3082 -0.4571
80801SOL    HW160013   3.562  14.037  12.352 -1.6271  0.1106  2.0614
80801SOL    HW260014   3.550  13.914  12.264 -0.0439  2.2571 -1.3841
80802SOL     OW60015   9.136  12.572   6.699 -0.2933 -0.4329 -0.1359
80802SOL    HW160016   9.135  12.619   6.783 -0.3022  0.5503 -0.6676
80802SOL    HW260017   9.150  12.480   6.723 -0.7970 -0.2435  0.9717
80803SOL     OW60018   6.178   8.980  12.500  0.7016  0.1673  0.1394
80803SOL    HW160019   6.131   8.985  12.583  0.2679 -0.1872 -0.0754
80803SOL    HW260020   6.212   8.891  12.497 -2.8802 -1.3730 -1.8999
80804SOL     OW60021   0.268   6.843  13.855  0.6742 -0.6759 -0.3308
80804SOL    HW160022   0.249   6.873  13.766  3.0493 -0.5229 -0.8371
80804SOL    HW260023   0.316   6.761  13.843 -1.4620 -2.2072  0.9290
80805SOL     OW60024   7.619   5.162   4.499 -0.3349 -0.2757  0.5770
80805SOL    HW160025   7.612   5.257   4.489  0.4482 -0.2908 -0.3132
80805SOL    HW260026   7.559   5.126   4.434  1.1083 -0.3684 -0.7773
80806SOL     OW60027  13.458   3.108   1.659 -0.3268 -0.1672 -0.1001
80806SOL    HW160028  13.443   3.030   1.713  0.0663 -0.3042 -0.1903
80806SOL    HW260029  13.446   3.181   1.720  2.1363 -0.3540  0.7079
80807SOL     OW60030   0.838   7.434  13.407 -0.4124  0.5224 -0.0404
80807SOL    HW160031   0.910   7.437  13.468 -0.4837 -0.8730  0.1266
80807SOL    HW260032   0.863   7.496  13.337  0.4989  0.7381  0.4665
80808SOL     OW60033   8.901   4.611   3.698  0.3250 -0.0525 -0.4522
80808SOL    HW160034   8.960   4.565   3.757  0.4709  0.8707  0.1256
80808SOL    HW260035   8.816   4.608   3.742  0.0633 -0.8108 -0.9811
80809SOL     OW60036   6.797   5.894   5.327 -0.1297  0.2060 -0.2177
80809SOL    HW160037   6.710   5.857   5.336 -1.1307  2.5579  0.7101
80809SOL    HW260038   6.818   5.885   5.234 -2.0393  0.9480 -0.7681
80810SOL     OW60039   6.042   8.470  13.938  0.0711  0.4237  0.2723
80810SOL    HW160040   6.105   8.438  13.873  0.6764 -0.3925  1.2206
80810SOL    HW260041   6.082   8.447  14.023 -0.3330  2.1356  0.9633
80811SOL     OW60042   6.674  11.239  13.905 -0.0367 -0.3606 -0.6616
80811SOL    HW160043   6.719  11.236  13.989 -0.2986  0.4017 -0.4854
80811SOL    HW260044   6.619  11.317  13.910 -0.0986 -0.3365 -1.5135
80812SOL     OW60045   0.659  13.615   5.564  0.1286 -0.0035 -0.4014
80812SOL    HW160046   0.648  13.622   5.469 -0.2453  0.2888 -0.3388
80812SOL    HW260047   0.573  13.585   5.596  0.4163 -0.6541 -0.2108
80813SOL     OW60048   9.973   8.114   9.589  0.1995  0.6759  0.2327
80813SOL    HW160049  10.044   8.078   9.537  1.0420  2.4353  0.0813
80813SOL    HW260050   9.999   8.097   9.680  0.7142  1.0904  0.1702
80814SOL     OW60051  11.089   9.029   7.884 -0.5475  0.5952 -0.2812
80814SOL    HW160052  11.142   9.076   7.820 -0.5685  3.2033  1.4412
80814SOL    HW260053  11.153   8.991   7.944 -0.5670  0.8066 -0.1250
80815SOL     OW60054   6.043   2.318  13.906 -0.2504  0.0792 -0.1805
80815SOL    HW160055   5.999   2.330  13.821 -0.5386  2.8601  0.2942
80815SOL    HW260056   6.096   2.239  13.893 -0.6750  0.1094 -2.7767
80816SOL     OW60057   3.185   0.384   5.531 -0.5316 -0.3239  0.6676
80816SOL    HW160058   3.142   0.418   5.609 -2.6088 -0.9282 -0.1601
80816SOL    HW260059   3.128   0.313   5.501  0.2909 -0.2035 -1.3204
80817SOL     OW60060   4.962   6.265   9.920  0.4693  0.4608 -0.0106
80817SOL    HW160061   4.990   6.203   9.853 -2.4419  1.7842 -2.7199
80817SOL    HW260062   4.898   6.216   9.973  1.2906 -0.0042  0.5753
80818SOL     OW60063  13.176   0.409   9.393  0.4090  0.2951  0.1242
80818SOL    HW160064  13.145   0.477   9.452 -0.2945  0.5459 -0.5262
80818SOL    HW260065  13.097   0.361   9.366  0.8947 -0.8348  0.6344
80819SOL     OW60066   3.328  12.616  12.266 -0.6400 -0.1597 -0.6770
80819SOL    HW160067   3.261  12.631  12.333 -0.3477 -0.3569 -0.3345
80819SOL    HW260068   3.314  12.526  12.237  1.9040 -1.7110  2.2494
80820SOL     OW60069   9.211   0.829   8.041  0.9029 -0.0455  0.2495
80820SOL    HW160070   9.203   0.834   7.946  0.7552  0.1410  0.2695
80820SOL    HW260071   9.271   0.901   8.064 -0.5124  1.1182  0.4626
80821SOL     OW60072   9.193  11.207   9.633  0.4120 -0.4922  0.2226
80821SOL    HW160073   9.131  11.146   9.674 -0.5637 -0.4182 -1.0793
80821SOL    HW260074   9.238  11.155   9.567 -0.9696  0.3158 -1.4329
80822SOL     OW60075  12.493  12.509   9.383  0.0531 -0.0396 -0.3850
80822SOL    HW160076  12.500  12.465   9.468  0.6173  0.2033 -0.3050
80822SOL    HW260077  12.407  12.483   9.350 -0.2876  0.0955  0.3868
80823SOL     OW60078   4.602   0.167   6.650  0.0453  0.4820 -0.4034
80823SOL    HW160079   4.671   0.161   6.584 -1.0893 -0.4577 -1.5676
80823SOL    HW260080   4.577   0.260   6.651 -0.2668  0.4338 -1.7008
80824SOL     OW60081  11.488   0.453   0.781  1.0126 -0.2541  0.1378
80824SOL    HW160082  11.414   0.437   0.840  1.3765  0.6338  0.8600
80824SOL    HW260083  11.516   0.542   0.802  1.2356  0.0407 -1.3039
80825SOL     OW60084  10.226  13.771   9.487 -0.0026 -0.1403  0.1846
80825SOL    HW160085  10.214  13.707   9.558  0.8722  1.0802  1.4775
80825SOL    HW260086  10.149  13.826   9.491 -0.4764 -0.7322 -0.5500
80826SOL     OW60087   1.947  11.576   5.379 -0.2385  0.1894  0.9271
80826SOL    HW160088   1.868  11.630   5.375 -0.2537  0.1376 -1.9082
80826SOL    HW260089   2.015  11.631   5.341  0.8198 -0.2109  2.1860
80827SOL     OW60090   6.300   8.021   2.529  0.4764  0.2321 -0.0500
80827SOL    HW160091   6.214   8.002   2.566  0.8587  1.5897  1.7389
80827SOL    HW260092   6.340   8.081   2.593  1.5501  2.0968 -2.2972
80828SOL     OW60093   2.915   1.411  10.969  0.3060  0.0666  0.1126
80828SOL    HW160094   3.008   1.416  10.988  0.3432 -0.8438  0.2134
80828SOL    HW260095   2.872   1.435  11.051  0.4571 -0.2228  0.2778
80829SOL     OW60096  12.174   6.134  12.304 -0.5323  0.2414  0.3490
80829SOL    HW160097  12.105   6.071  12.284 -1.3938  1.7364 -1.7207
80829SOL    HW260098  12.253   6.097  12.264 -0.4693 -0.6744  1.2859
80830SOL     OW60099   0.126   5.548  13.099  0.2188 -0.5489  0.2989
80830SOL    HW160100   0.210   5.516  13.133  0.5769  0.1655  0.1046
80830SOL    HW260101   0.062   5.484  13.130  0.7689 -0.8446  0.8527
80831SOL     OW60102   1.119   9.418   4.888  0.0729 -0.3309  0.1278
80831SOL    HW160103   1.158   9.500   4.918 -2.5505  0.7977  0.6728
80831SOL    HW260104   1.078   9.381   4.966 -2.9492  0.3461 -1.0164
80832SOL     OW60105  11.133   1.792   5.081 -0.2924  0.1286  0.4363
80832SOL    HW160106  11.076   1.795   5.158 -0.3265  0.6438  0.3994
80832SOL    HW260107  11.137   1.883   5.051  1.9105  0.4204  1.4497
80833SOL     OW60108   7.368  10.470   1.499 -0.5434 -0.3059  0.2195
80833SOL    HW160109   7.286  10.428   1.473 -0.5665  0.0986 -0.3916
80833SOL    HW260110   7.436  10.408   1.476 -0.7372 -1.0940  1.6985
80834SOL     OW60111  11.336   0.005   4.395 -0.3944  0.3648  0.5945
80834SOL    HW160112  11.330  -0.065   4.330  1.1746  1.0052 -0.2925
80834SOL    HW260113  11.291   0.079   4.355 -2.0014 -0.0633  1.5091
80835SOL     OW60114   9.144   3.133   1.131 -0.2595  0.6818 -0.1529
80835SOL    HW160115   9.138   3.064   1.065  1.5853  0.7415 -0.4284
80835SOL    HW260116   9.059   3.178   1.126 -1.0462 -0.7942 -0.7918
80836SOL     OW60117   4.569   8.450   0.683 -0.2829  0.5692  0.4905
80836SOL    HW160118   4.594   8.480   0.771 -1.2334 -0.0210  0.9754
80836SOL    HW260119   4.621   8.371   0.669  1.1223  1.5557 -0.1912
80837SOL     OW60120   5.586  11.309   9.948  0.6515  0.2823 -0.0728
80837SOL    HW160121   5.610  11.320   9.856 -1.2288 -1.2250 -0.8271
80837SOL    HW260122   5.501  11.353   9.956  1.1064  0.9932  1.1518
80838SOL     OW60123   6.527  11.923   0.782  0.7457  0.1195 -0.1978
80838SOL    HW160124   6.534  11.869   0.861 -1.7722  0.0271  0.0471
80838SOL    HW260125   6.511  12.011   0.814  1.5601  0.4320 -0.6238
80839SOL     OW60126   2.983   4.264   0.246  0.3310  0.0984 -0.0261
80839SOL    HW160127   2.897   4.303   0.260 -0.8937 -2.4853  0.3604
80839SOL    HW260128   3.040   4.308   0.308 -1.8858 -1.5437  3.4732
80840SOL     OW60129   3.827   6.017  14.025  0.1365 -0.7137 -0.5217
80840SOL    HW160130   3.824   5.978  14.112 -0.3293 -0.3921 -0.3883
80840SOL    HW260131   3.784   6.102  14.036  1.6795  0.1197 -0.6657
80841SOL     OW60132   3.250  12.177   4.666 -0.0306  0.4391 -0.1834
80841SOL    HW160133   3.345  12.178   4.674 -0.0549  0.1129  0.2063
80841SOL    HW260134   3.229  12.091   4.629 -0.2233  0.1278  0.6038
80842SOL     OW60135   8.049  13.175   6.675 -0.3063  0.5733 -0.7052
80842SOL    HW160136   8.134  13.156   6.633 -0.8482 -1.7366 -0.8730
80842SOL    HW260137   8.072  13.228   6.751  1.3297 -0.2336 -0.5883
80843SOL     OW60138   1.293  12.743  11.809  0.5800 -0.1840  0.0439
80843SOL    HW160139   1.241  12.664  11.825  1.6214 -1.2547 -1.5853
80843SOL    HW260140   1.248  12.811  11.859 -0.0086 -1.9090  2.0188
80844SOL     OW60141   1.937   9.641   9.021  0.1937  0.1886 -0.6797
80844SOL    HW160142   1.927   9.590   8.941 -0.3543 -0.9210  0.0680
80844SOL    HW260143   1.894   9.588   9.088  1.2233  0.7712  0.4762
80845SOL     OW60144   0.196   4.608   7.779 -0.4565 -0.2765  0.6050
80845SOL    HW160145   0.179   4.683   7.723  0.9584 -0.0943  0.3848
80845SOL    HW260146   0.267   4.561   7.735 -0.7607 -1.2849  1.1654
80846SOL     OW60147   8.233   8.414   1.032  0.4511  0.0144  0.2470
80846SOL    HW160148   8.254   8.506   1.019 -0.4834  0.2160  0.1057
80846SOL    HW260149   8.138   8.409   1.019  0.3717 -0.8219  1.0897
80847SOL     OW60150   0.878   8.189   4.859  0.1841  0.3099 -0.5524
80847SOL    HW160151   0.839   8.267   4.819 -2.1097 -1.5655 -2.2701
80847SOL    HW260152   0.892   8.129   4.785 -0.4559 -1.8320  0.9624
80848SOL     OW60153  13.382   0.573   3.601 -0.2076  0.1887 -0.6184
80848SOL    HW160154  13.441   0.637   3.639 -0.5696 -0.3151  0.8653
80848SOL    HW260155  13.424   0.546   3.519  1.6346 -0.1871  0.4040
80849SOL     OW60156   2.920   7.861   8.933  0.1086  0.6212  0.6904
80849SOL    HW160157   2.897   7.836   8.844 -1.7956  0.5742  1.1615
80849SOL    HW260158   2.999   7.810   8.952 -1.1347 -1.6683  0.0462
80850SOL     OW60159   1.856   6.239  10.872 -0.0908  0.1089  0.0182
80850SOL    HW160160   1.844   6.145  10.878  0.1693 -0.1844 -2.6484
80850SOL    HW260161   1.917   6.261  10.942 -0.5818 -1.5791  1.0317
80851SOL     OW60162  13.218   3.539   7.644 -0.8096 -0.7244  0.3423
80851SOL    HW160163  13.286   3.477   7.669  1.1683  0.6347 -1.3651
80851SOL    HW260164  13.148   3.485   7.608  0.2515 -2.0446  0.1941
80852SOL     OW60165  13.770   8.026  11.777 -0.0145  0.0748 -0.3370
80852SOL    HW160166  13.865   8.038  11.788  0.1581 -1.2822 -0.1590
80852SOL    HW260167  13.752   7.941  11.818 -0.8779 -0.8744 -2.5416
80853SOL     OW60168   1.723  11.299   0.802  0.0381  0.6928  0.2369
80853SOL    HW160169   1.729  11.394   0.805 -1.2060  0.7981 -0.0972
80853SOL    HW260170   1.814  11.269   0.795  0.5284  1.7975  1.4602
80854SOL     OW60171  10.856   6.903   3.952 -0.1449 -0.1353  0.7453
80854SOL    HW160172  10.854   6.897   3.856  1.2534 -0.7700  0.7313
80854SOL    HW260173  10.802   6.979   3.972  0.0243  0.3743 -0.5941
80855SOL     OW60174   5.303   6.750   4.550 -0.3840 -0.1231 -0.2811
80855SOL    HW160175   5.369   6.681   4.557  0.5547  0.7329 -0.4844
80855SOL    HW260176   5.350   6.830   4.571 -1.8575  0.2773  1.8309
80856SOL     OW60177   3.156   2.203   3.708  0.5562  0.0413 -0.3054
80856SOL    HW160178   3.163   2.108   3.714  2.3199  0.0678 -1.0989
80856SOL    HW260179   3.147   2.220   3.615  1.3822  0.6821 -0.2791
80857SOL     OW60180   4.568   5.543   3.924 -0.3195  0.2625 -0.1207
80857SOL    HW160181   4.476   5.553   3.951 -0.2635  0.6757 -0.0749
80857SOL    HW260182   4.613   5.618   3.963  0.6141 -1.4077  2.2960
80858SOL     OW60183   8.756  12.484   2.518  0.8310 -0.0734 -0.4919
80858SOL    HW160184   8.766  12.435   2.599 -2.0493 -0.5948 -0.3543
80858SOL    HW260185   8.717  12.423   2.457 -1.6760  1.5884 -0.7044
80859SOL     OW60186  10.375   8.188   4.695 -0.0499 -0.0518 -0.3173
80859SOL    HW160187  10.288   8.211   4.725  0.0384  0.5496 -0.5063
80859SOL    HW260188  10.381   8.226   4.607  1.3416  2.2512  0.6846
80860SOL     OW60189  13.046   5.088  11.810  0.1348 -0.3280 -0.0080
80860SOL    HW160190  13.115   5.092  11.876 -1.1280 -0.7683  1.4208
80860SOL    HW260191  13.091   5.092  11.726  1.8339 -0.1108  0.8855
80861SOL     OW60192   2.878  11.303  13.361  0.3691  0.5962  0.9166
80861SOL    HW160193   2.921  11.370  13.307 -1.3260  0.6519 -0.4361
80861SOL    HW260194   2.791  11.294  13.323 -0.0377 -1.1527  2.1642
80862SOL     OW60195   6.560   5.188  11.845  0.3011 -0.5381 -0.2895
80862SOL    HW160196   6.651   5.164  11.863 -0.0080 -0.6817  1.2723
80862SOL    HW260197   6.535   5.242  11.921 -0.5353  0.5730 -1.3231
80863SOL     OW60198   6.157  11.893   5.977  0.0581 -0.3255 -0.2388
80863SOL    HW160199   6.249  11.870   5.976 -0.4593 -2.6893 -2.0605
80863SOL    HW260200   6.114  11.818   6.019 -1.1094  0.3702 -0.1397
80864SOL     OW60201  11.268   0.109   5.567  0.5349  0.5306 -0.1842
80864SOL    HW160202  11.223   0.030   5.538  0.8011  0.5929 -0.7761
80864SOL    HW260203  11.197   0.171   5.584  0.3358  0.2375  0.0776
80865SOL     OW60204  10.883   7.066   1.175 -0.5270 -0.3908  0.2079
80865SOL    HW160205  10.915   6.980   1.149 -0.1958 -1.1153  2.7208
80865SOL    HW260206  10.910   7.124   1.104  0.6655 -2.0758 -0.7993
80866SOL     OW60207   3.889   8.579   0.598 -0.2806 -0.0220 -0.0819
80866SOL    HW160208   3.842   8.536   0.526  0.0384  0.1321 -0.3852
80866SOL    HW260209   3.968   8.615   0.557 -0.2413  0.3219  0.2879
80867SOL     OW60210   3.241   6.565  10.031  0.4776 -0.0157  0.2782
80867SOL    HW160211   3.204   6.653  10.035  2.6212  1.2011 -2.5970
80867SOL    HW260212   3.203   6.526   9.952 -0.4961 -1.7448  1.5526
80868SOL     OW60213  12.992   8.768   3.305 -0.5476  0.2673  0.5276
80868SOL    HW160214  12.955   8.821   3.235  0.6332  1.3227  0.6663
80868SOL    HW260215  13.046   8.829   3.356 -1.2258 -0.5049  2.2628
80869SOL     OW60216   5.459   8.124   1.199 -0.0988  1.0524 -0.3045
80869SOL    HW160217   5.477   8.081   1.282  0.7690  1.4580 -0.2730
80869SOL    HW260218   5.379   8.175   1.214 -0.6407  0.1633 -0.0905
80870SOL     OW60219   2.775   2.031   8.064 -0.2611 -0.2645 -0.2151
80870SOL    HW160220   2.815   2.087   8.130  1.0809 -0.5386 -0.7674
80870SOL    HW260221   2.696   1.997   8.106  0.7223 -0.6935  1.3684
80871SOL     OW60222   5.066   9.062   6.106 -0.1676  0.2782  0.1522
80871SOL    HW160223   5.140   9.022   6.153  0.2055  1.7516  0.8804
80871SOL    HW260224   4.989   9.023   6.147  0.1865 -0.5547  0.0522
80872SOL     OW60225  12.919   6.161   6.978 -0.2481  0.0755  0.1372
80872SOL    HW160226  12.852   6.098   7.006  2.0951 -2.2149  1.0249
80872SOL    HW260227  12.955   6.124   6.897  1.6728 -0.2258  1.0649
80873SOL     OW60228   2.859   9.384  11.582 -0.1920  0.2370  0.4014
80873SOL    HW160229   2.800   9.318  11.547 -0.3448 -0.3196  1.6539
80873SOL    HW260230   2.904   9.419  11.505 -1.0600 -0.3878 -0.4146
80874SOL     OW60231   8.504   8.938  12.510 -0.0633  0.1831 -0.2660
80874SOL    HW160232   8.534   8.878  12.577  0.3641 -0.5403 -1.0788
80874SOL    HW260233   8.518   9.025  12.547 -0.2114 -0.2048  0.7233
80875SOL     OW60234   1.459   6.709   1.680 -0.4808 -0.3049 -0.0669
80875SOL    HW160235   1.496   6.676   1.597  0.1298  0.1943  0.0063
80875SOL    HW260236   1.452   6.631   1.735  1.7501 -0.2277  0.4075
80876SOL     OW60237   4.740   4.832   1.041  0.5137 -0.6548  0.0656
80876SOL    HW160238   4.661   4.794   1.003 -0.0733  0.8363 -0.2923
80876SOL    HW260239   4.786   4.872   0.967  2.1424 -2.3426  0.1079
80877SOL     OW60240   0.284   4.714   2.047 -0.2664 -0.2606  0.3499
80877SOL    HW160241   0.367   4.761   2.043  0.6375 -1.6498  1.8855
80877SOL    HW260242   0.280   4.666   1.964  0.0168  0.4833 -0.1110
80878SOL     OW60243  13.370   3.929   4.819  0.4694  0.4146  0.1351
80878SOL    HW160244  13.447   3.941   4.874  0.3996  0.7259  0.1663
80878SOL    HW260245  13.382   3.991   4.747 -0.3368  1.3308  0.7757
80879SOL     OW60246   7.126   8.941   0.060  0.0129  0.3419 -0.3478
80879SOL    HW160247   7.150   8.984  -0.022  2.3510 -1.6613 -0.8246
80879SOL    HW260248   7.177   8.987   0.127  0.3577  0.1114 -0.4508
80880SOL     OW60249  12.122   7.976   6.938 -0.1859  0.2893 -0.1658
80880SOL    HW160250  12.169   7.947   6.859 -0.4050  0.7100 -0.4539
80880SOL    HW260251  12.156   7.920   7.008  0.3720  0.2416 -0.4661
80881SOL     OW60252   8.360   3.514   3.248 -0.3393 -0.1605  0.0965
80881SOL    HW160253   8.385   3.602   3.219 -0.0434 -0.7552 -1.5850
80881SOL    HW260254   8.339   3.524   3.341 -0.2544  1.6670 -0.0449
80882SOL     OW60255   9.151   7.321   3.128 -0.5420  0.7479 -0.0287
80882SOL    HW160256   9.076   7.374   3.156 -0.2234  0.9191  0.5174
80882SOL    HW260257   9.216   7.385   3.099 -0.3549  0.6344  0.1363
80883SOL     OW60258   3.742   7.861   9.299  0.4802 -0.2977  0.4851
80883SOL    HW160259   3.666   7.805   9.309  0.1755  0.2566  1.4187
80883SOL    HW260260   3.726   7.934   9.359  1.0172  0.6199 -0.4497
80884SOL     OW60261   4.628   8.425  13.839  0.3450  0.3472  0.0515
80884SOL    HW160262   4.659   8.497  13.785 -1.0046  1.3529  0.5695
80884SOL    HW260263   4.582   8.367  13.779 -1.2369  1.5091  0.0894
80885SOL     OW60264  14.086   9.036   0.301  0.1352 -0.3711 -0.1779
80885SOL    HW160265  14.182   9.028   0.303  0.1777  0.2068  1.0154
80885SOL    HW260266  14.070   9.121   0.262  0.1058 -0.4349 -0.3054
80886SOL     OW60267  10.905   9.745   2.151 -0.1760  0.1310 -0.0812
80886SOL    HW160268  10.865   9.726   2.067 -1.0872  1.6675 -0.0446
80886SOL    HW260269  10.866   9.829   2.177  4.4545  2.9228 -0.9945
80887SOL     OW60270  12.053  10.937   1.754 -0.7571 -0.6629 -0.0626
80887SOL    HW160271  12.062  10.862   1.813 -1.4995  0.0277  0.9712
80887SOL    HW260272  12.008  11.004   1.807 -0.8671  0.2105 -1.2163
80888SOL     OW60273   5.197   1.279  11.202 -0.6525  0.0317  0.0004
80888SOL    HW160274   5.204   1.283  11.107 -1.5162 -0.5516 -0.0934
80888SOL    HW260275   5.111   1.240  11.219 -1.3503  1.8677  1.0322
80889SOL     OW60276   1.042  11.222  13.840  0.2680 -0.0011 -0.3564
80889SOL    HW160277   0.966  11.217  13.898  0.4397  0.1108 -0.1171
80889SOL    HW260278   1.063  11.316  13.837 -0.9452  0.2431 -2.1772
80890SOL     OW60279   4.257   0.694  13.998 -0.0279 -0.4394 -0.4070
80890SOL    HW160280   4.266   0.678  13.904  0.1401  1.6636 -0.8142
80890SOL    HW260281   4.341   0.732  14.024 -0.1361 -0.8364  0.5494
80891SOL     OW60282   5.968   1.590   9.517 -0.5521 -0.0183 -0.2521
80891SOL    HW160283   6.008   1.640   9.446  1.7980 -1.5823 -0.1381
80891SOL    HW260284   5.883   1.631   9.530 -0.4049  1.3500 -2.8616
80892SOL     OW60285   3.917  11.270   5.574 -0.3262 -0.0508  0.6479
80892SOL    HW160286   3.834  11.306   5.542 -0.1538 -0.6074 -0.4733
80892SOL    HW260287   3.958  11.342   5.621 -0.8216  0.6556  0.0203
80893SOL     OW60288  13.444   5.087   9.766  0.0215 -0.4192  0.0993
80893SOL    HW160289  13.484   5.000   9.751  2.2259  0.4991  0.2246
80893SOL    HW260290  13.420   5.087   9.858 -0.7668 -1.1812 -0.0952
80894SOL     OW60291   2.813  10.411   6.708  0.4242  0.2186 -0.2457
80894SOL    HW160292   2.899  10.453   6.706  0.1378  0.7847 -1.3277
80894SOL    HW260293   2.758  10.472   6.758  0.4008  0.3651 -0.4483
80895SOL     OW60294  11.242  13.799   0.135  0.4132 -0.3285  0.3069
80895SOL    HW160295  11.267  13.715   0.173 -0.6684 -0.4330  0.8146
80895SOL    HW260296  11.325  13.843   0.119  0.9650 -0.2416  2.9125
80896SOL     OW60297   7.335   2.143   8.823  0.1149  0.2298  0.4712
80896SOL    HW160298   7.252   2.176   8.858  0.1829  0.0844  0.7697
80896SOL    HW260299   7.315   2.123   8.731  0.4527  2.5119 -0.1698
80897SOL     OW60300  13.878   4.751   0.958 -0.6143 -0.2811 -0.7709
80897SOL    HW160301  13.881   4.838   0.996  0.6423 -0.9799  0.8268
80897SOL    HW260302  13.943   4.754   0.887 -0.4580  0.0265 -0.6165
80898SOL     OW60303   6.503   8.689  12.191  0.5725 -0.3433 -0.5255
80898SOL    HW160304   6.526   8.778  12.164  1.2135 -0.1701  0.5163
80898SOL    HW260305   6.476   8.645  12.111  1.7338  0.3456 -1.3252
80899SOL     OW60306   6.772   3.207   1.052 -0.1875 -0.0812  0.8488
80899SOL    HW160307   6.682   3.229   1.076  0.1432 -0.7432  2.9312
80899SOL    HW260308   6.764   3.123   1.007 -0.6850  0.3085  0.1911
80900SOL     OW60309   0.706  12.928   8.395 -0.0904  0.1624  0.0902
80900SOL    HW160310   0.680  13.018   8.412 -1.5883  0.1820 -1.9060
80900SOL    HW260311   0.682  12.913   8.303  0.2618 -2.2120  0.3129
80901SOL     OW60312   2.483   8.723   2.945  0.4827 -0.1468 -0.5799
80901SOL    HW160313   2.531   8.640   2.948  0.1477 -0.3444 -0.6501
80901SOL    HW260314   2.422   8.714   2.871 -1.7449 -1.0733  1.2310
80902SOL     OW60315   3.034  12.679   2.396 -0.5791 -0.5757 -0.2755
80902SOL    HW160316   2.946  12.648   2.417 -0.1143 -1.4388  0.4536
80902SOL    HW260317   3.021  12.769   2.365 -1.6150 -0.3648  0.7195
80903SOL     OW60318   5.113   6.952   4.234  0.1154 -0.2745  0.1562
80903SOL    HW160319   5.179   6.901   4.188 -0.3214 -1.5112  0.8481
80903SOL    HW260320   5.030   6.923   4.195 -0.3569 -2.1474  2.3491
80904SOL     OW60321   4.304   9.377   2.178 -0.2998 -0.1801 -0.6270
80904SOL    HW160322   4.306   9.282   2.188 -2.7065 -0.4849 -2.1565
80904SOL    HW260323   4.380   9.397   2.123  0.8514 -1.0387  0.5880
80905SOL     OW60324   8.382   3.257   6.352 -0.1726 -0.7947  0.1195
80905SOL    HW160325   8.335   3.176   6.332 -2.0668  0.3784 -0.5226
80905SOL    HW260326   8.315   3.326   6.344  1.2862  0.8043  0.9486
80906SOL     OW60327   8.059  12.607   3.574  0.1533 -0.0398 -0.0208
80906SOL    HW160328   8.063  12.699   3.601  1.4168  0.0701 -0.4808
80906SOL    HW260329   7.966  12.589   3.561 -0.2490  0.7244  1.5546
80907SOL     OW60330   7.627  12.959   6.899  0.1218  0.4588 -0.1438
80907SOL    HW160331   7.542  12.925   6.870  0.0285 -0.1675  0.8256
80907SOL    HW260332   7.691  12.903   6.854  0.0697  1.4300 -1.4987
80908SOL     OW60333  10.236   0.038   9.538 -0.1490 -0.0546 -0.5169
80908SOL    HW160334  10.184   0.112   9.568 -1.3457 -0.9291 -0.3324
80908SOL    HW260335  10.307   0.030   9.602 -0.3172  0.6031 -0.2500
80909SOL     OW60336  11.037   8.443  12.183 -0.1071 -0.1898  0.3936
80909SOL    HW160337  11.004   8.531  12.165  0.7720 -0.0312 -0.4644
80909SOL    HW260338  11.127   8.456  12.211  0.2136 -0.8638 -0.3070
80910SOL     OW60339   4.938   5.587  13.664 -0.2767  0.0882  0.2656
80910SOL    HW160340   5.033   5.591  13.677 -0.4505  0.0289  1.7431
80910SOL    HW260341   4.927   5.557  13.574  1.1055  1.7156 -0.5048
80911SOL     OW60342  13.113   2.176  14.015  0.2103 -0.2758 -0.1461
80911SOL    HW160343  13.178   2.202  14.079  2.1869  1.2292 -2.5710
80911SOL    HW260344  13.074   2.258  13.985  0.7973 -0.6901 -2.2354
80912SOL     OW60345   6.343  10.407   1.533  0.1040  0.3037 -1.0624
80912SOL    HW160346   6.422  10.446   1.496 -0.3420  0.2869 -2.0402
80912SOL    HW260347   6.329  10.327   1.484  0.3672 -0.5380  0.1840
80913SOL     OW60348   2.674   7.159   8.015 -0.1397 -0.0017  0.4324
80913SOL    HW160349   2.688   7.189   7.926 -1.5705  1.2612  0.5966
80913SOL    HW260350   2.656   7.065   8.006 -1.3108  0.3090 -0.7363
80914SOL     OW60351   5.447   1.949   3.804 -0.3184  0.0930 -0.3870
80914SOL    HW160352   5.409   1.949   3.716  2.2926  0.9589 -1.6390
80914SOL    HW260353   5.465   1.857   3.822  2.6160  0.0974 -2.5384
80915SOL     OW60354  13.221  12.392   3.664  0.3535  0.1880 -0.6688
80915SOL    HW160355  13.237  12.307   3.704 -0.7081  0.2727 -0.0468
80915SOL    HW260356  13.235  12.377   3.570  2.2222 -0.1589 -0.3774
80916SOL     OW60357   5.684   5.283   2.033  0.1790 -0.0029 -0.1782
80916SOL    HW160358   5.627   5.214   2.066 -1.1250  0.6829 -0.8852
80916SOL    HW260359   5.764   5.275   2.083 -0.4058 -1.2552  0.5912
80917SOL     OW60360  13.662  13.141  10.010 -0.1342  0.4211 -0.0442
80917SOL    HW160361  13.621  13.118  10.094  0.9792  1.6745  0.8928
80917SOL    HW260362  13.590  13.161   9.952 -0.8990  1.1289  1.1138
80918SOL     OW60363   4.200  12.877  12.963  0.0258 -0.0724 -0.5074
80918SOL    HW160364   4.183  12.886  13.057  1.4663  1.7292 -0.3607
80918SOL    HW260365   4.286  12.836  12.958  0.7336  1.4206 -0.9799
80919SOL     OW60366   7.496   9.984  11.843  0.5392  0.2339 -0.2669
80919SOL    HW160367   7.532  10.070  11.865 -0.1404  0.1171  1.5116
80919SOL    HW260368   7.536   9.924  11.907 -0.0458 -0.5322 -0.5993
80920SOL     OW60369  13.581  10.966   0.457  0.2739 -0.5165  0.1717
80920SOL    HW160370  13.676  10.960   0.454  0.3040  0.1911 -1.5311
80920SOL    HW260371  13.561  10.984   0.549  1.9474  1.4881  0.2125
80921SOL     OW60372   9.619   6.215   3.398 -0.4423 -0.5073 -0.6389
80921SOL    HW160373   9.539   6.250   3.438 -0.2847 -0.4980 -0.3323
80921SOL    HW260374   9.672   6.186   3.472  0.2798  0.4069 -0.7807
80922SOL     OW60375  12.217  13.350   1.644  0.1437 -0.3939  0.1051
80922SOL    HW160376  12.134  13.381   1.606  1.0312 -0.6398 -2.2121
80922SOL    HW260377  12.190  13.293   1.715 -1.6811  0.0017 -0.2024
80923SOL     OW60378   4.566  10.362   7.142 -0.5215 -0.1106  0.0886
80923SOL    HW160379   4.624  10.294   7.106 -0.3522 -1.4032  2.5373
80923SOL    HW260380   4.622  10.438   7.152  0.5835 -1.0680  1.5843
80924SOL     OW60381   9.199   3.984  13.203  0.3072  1.0867  0.1076
80924SOL    HW160382   9.289   3.999  13.231  0.4486  0.3516  0.0894
80924SOL    HW260383   9.188   4.038  13.124  0.9236  0.7329 -0.2277
80925SOL     OW60384  12.121   6.565   4.276  0.3069  0.0770 -0.0472
80925SOL    HW160385  12.179   6.500   4.316 -0.4088  0.0740  1.0181
80925SOL    HW260386  12.033   6.535   4.296 -0.0581  2.1157  1.7845
80926SOL     OW60387   0.293   9.592   7.022 -0.0218  0.6686  0.0577
80926SOL    HW160388   0.340   9.526   7.073  1.1074  0.6027 -1.0137
80926SOL    HW260389   0.283   9.553   6.935  0.4152  1.7830 -0.5178
80927SOL     OW60390  13.213   4.204  11.250 -0.0948 -0.2018 -0.1121
80927SOL    HW160391  13.288   4.212  11.309 -0.0354  0.7134 -0.2985
80927SOL    HW260392  13.171   4.121  11.276  1.0229 -0.7803 -0.0704
80928SOL     OW60393  12.915  10.051  13.408 -0.8850  0.2966 -0.1393
80928SOL    HW160394  12.859  10.018  13.478 -0.8095  1.3533  0.4444
80928SOL    HW260395  12.893   9.997  13.332 -2.5688  0.5664  0.1225
80929SOL     OW60396   6.117  11.025   0.867 -0.4605 -0.1999  0.0818
80929SOL    HW160397   6.064  10.961   0.916  1.0478 -0.5532  1.3421
80929SOL    HW260398   6.156  10.974   0.797 -0.1113 -0.4267  0.4367
80930SOL     OW60399   2.750  10.975  11.947  0.5773  0.2278 -0.0230
80930SOL    HW160400   2.684  11.005  11.884  0.6567  2.6383  0.9256
80930SOL    HW260401   2.702  10.917  12.006 -1.0951  2.7265  1.2689
80931SOL     OW60402  11.768  12.011   7.571  0.6002  0.5567  0.1933
80931SOL    HW160403  11.781  12.026   7.665 -2.0766 -1.2295  0.9934
80931SOL    HW260404  11.688  11.958   7.567  0.4587  0.8312 -3.1454
80932SOL     OW60405   5.058   0.755   6.739 -0.2394  0.1163 -0.6578
80932SOL    HW160406   5.076   0.845   6.711  1.7396  0.0273  0.1821
80932SOL    HW260407   5.141   0.724   6.774 -1.1821 -1.6801  0.1007
80933SOL     OW60408   3.842   6.545   4.904  0.2662  0.5582  0.2057
80933SOL    HW160409   3.787   6.602   4.851 -0.6551  0.8089  1.3747
80933SOL    HW260410   3.924   6.593   4.914  0.6171  0.3242 -1.2907
80934SOL     OW60411  11.063  13.009   4.330  0.1696  0.6635  0.1648
80934SOL    HW160412  11.018  13.010   4.245  1.0231  0.9725 -0.2913
80934SOL    HW260413  10.992  13.004   4.394 -0.4571 -0.5563 -0.5852
80935SOL     OW60414   2.902   1.414  12.254  0.0576  0.9144 -0.2762
80935SOL    HW160415   2.900   1.426  12.349 -1.8308 -1.9126  0.1499
80935SOL    HW260416   2.992   1.387  12.236 -0.2418 -1.3115  1.2069
80936SOL     OW60417   2.209   7.932  10.450 -0.1287 -0.4982 -0.0897
80936SOL    HW160418   2.195   7.955  10.358  0.7682 -1.5818 -0.5255
80936SOL    HW260419   2.132   7.881  10.474  0.6730 -2.2710 -1.0050
80937SOL     OW60420   1.614   3.363  13.086  0.3213  0.0170  0.5463
80937SOL    HW160421   1.556   3.429  13.123  0.1982  0.2805 -0.0968
80937SOL    HW260422   1.556   3.289  13.067  0.6322 -0.6930  2.2248
80938SOL     OW60423   2.713   5.900   1.280 -0.2845 -0.0235  0.0868
80938SOL    HW160424   2.778   5.859   1.337  1.2533  1.4410 -0.5248
80938SOL    HW260425   2.755   5.902   1.193 -0.6335  1.9845 -0.0911
80939SOL     OW60426   5.184   2.579  13.355  0.0471 -0.4320  0.7684
80939SOL    HW160427   5.110   2.518  13.353  1.0735 -1.7033 -0.3504
80939SOL    HW260428   5.243   2.548  13.287  1.0542  1.2936  0.7848
80940SOL     OW60429  12.064  10.093  13.736  0.2348 -0.1878  0.2591
80940SOL    HW160430  12.074  10.166  13.675  1.1538 -0.4244  0.1097
80940SOL    HW260431  12.141  10.099  13.793 -0.7786  0.2390  1.6459
80941SOL     OW60432  11.710  13.662  11.175 -0.2262 -0.4853 -1.0314
80941SOL    HW160433  11.618  13.686  11.187  0.3384  1.0422  0.5530
80941SOL    HW260434  11.728  13.685  11.084 -1.4920 -1.2034 -1.5000
80942SOL     OW60435  13.791   7.085  13.271 -0.3387  0.2842 -0.1139
80942SOL    HW160436  13.765   7.067  13.181 -0.3732 -1.4257  0.2101
80942SOL    HW260437  13.886   7.096  13.267 -0.2733 -0.3384 -0.2755
80943SOL     OW60438   4.426  10.382   5.883  0.0843  0.5633  0.0185
80943SOL    HW160439   4.457  10.472   5.876 -1.5820  1.0824 -1.3471
80943SOL    HW260440   4.381  10.379   5.967 -0.3480  1.1804 -0.1832
80944SOL     OW60441   2.795   1.157  11.656  0.2743  0.2546 -1.0752
80944SOL    HW160442   2.700   1.146  11.647 -0.1053  1.9061  0.2113
80944SOL    HW260443   2.805   1.246  11.691  2.2717 -0.1109 -0.5899
80945SOL     OW60444   1.861   2.568  13.901  0.3416  0.3391 -0.0581
80945SOL    HW160445   1.790   2.621  13.867  0.1142 -0.3071 -0.6297
80945SOL    HW260446   1.827   2.478  13.899  0.9729  0.0867  0.1677
80946SOL     OW60447   8.571   1.504   9.020 -0.3465  0.9153 -0.3988
80946SOL    HW160448   8.607   1.585   8.984 -0.8619  1.1995 -0.2855
80946SOL    HW260449   8.514   1.470   8.951  2.7356 -1.4097 -2.0585
80947SOL     OW60450   1.885   0.514   7.677 -0.6119 -0.2551 -0.4030
80947SOL    HW160451   1.962   0.471   7.715  1.2813  3.0974 -0.0483
80947SOL    HW260452   1.904   0.518   7.583 -0.1897  0.7590 -0.2896
80948SOL     OW60453   5.674  13.902  10.358 -0.4066  0.0085  0.3307
80948SOL    HW160454   5.727  13.823  10.350 -2.3010 -1.5248  1.7320
80948SOL    HW260455   5.731  13.965  10.400  0.2118 -1.7694  2.3498
80949SOL     OW60456   4.726   4.618  10.149  0.0045 -0.1393  0.5099
80949SOL    HW160457   4.803   4.607  10.093 -0.8629  0.1418 -0.7843
80949SOL    HW260458   4.702   4.529  10.175 -0.4102 -0.4212 -0.7570
80950SOL     OW60459   3.546   5.111   8.899  0.3535 -0.2178 -0.0956
80950SOL    HW160460   3.574   5.020   8.891 -0.4213 -0.3528 -1.4388
80950SOL    HW260461   3.452   5.109   8.881  0.7430  1.1543 -2.8139
80951SOL     OW60462   9.744  13.360   9.421 -1.0738 -0.5108 -0.1283
80951SOL    HW160463   9.751  13.455   9.423 -0.8816 -0.5309  0.1836
80951SOL    HW260464   9.829  13.330   9.390 -1.6840 -0.5151 -1.9764
80952SOL     OW60465   8.214   3.753   6.261  0.4590  0.4170 -0.0537
80952SOL    HW160466   8.263   3.775   6.182 -2.3139 -2.2132 -2.7547
80952SOL    HW260467   8.204   3.836   6.307  0.5002  2.5220 -3.5193
80953SOL     OW60468   0.359  11.538   3.836 -0.6234  0.2258  0.1490
80953SOL    HW160469   0.421  11.508   3.769 -1.3548 -2.3284  0.4987
80953SOL    HW260470   0.275  11.502   3.808 -1.6688  2.2641  0.5352
80954SOL     OW60471  12.072   5.582   2.089 -0.0758  0.0693  0.3183
80954SOL    HW160472  12.099   5.673   2.082  0.9865 -0.3310 -1.7544
80954SOL    HW260473  12.071   5.551   1.998  1.6553 -2.5371  1.0839
80955SOL     OW60474  12.520  13.943   8.907  0.3837 -0.5007 -0.2096
80955SOL    HW160475  12.435  13.943   8.950  0.1458  0.1458 -0.6435
80955SOL    HW260476  12.517  14.020   8.849  1.7182  0.2597  0.6754
80956SOL     OW60477   8.860   7.576   5.591  0.3063 -0.1222 -0.4945
80956SOL    HW160478   8.895   7.549   5.506 -0.7113 -2.5559 -0.2394
80956SOL    HW260479   8.815   7.659   5.574  1.8040  0.4565 -1.8611
80957SOL     OW60480  10.406   6.199   8.495  0.1902 -0.3152  0.1919
80957SOL    HW160481  10.413   6.294   8.500  0.8303 -0.1973 -1.8455
80957SOL    HW260482  10.474   6.166   8.552 -0.0361  0.4464  0.9143
80958SOL     OW60483   0.160  10.310   1.071 -0.7980  0.3839  0.0684
80958SOL    HW160484   0.185  10.370   1.001 -1.6121  0.7354  0.0692
80958SOL    HW260485   0.148  10.365   1.147 -1.3393  0.1977  0.1238
80959SOL     OW60486  11.255   5.008   7.294  0.6696 -0.5769  0.1119
80959SOL    HW160487  11.311   5.004   7.216 -0.2362  0.1780 -0.6078
80959SOL    HW260488  11.167   5.021   7.259  0.3640  0.7141  1.2747
80960SOL     OW60489  11.567   2.114   3.647  0.4435 -0.2240 -0.2466
80960SOL    HW160490  11.603   2.042   3.595 -1.8596 -1.7182  0.0683
80960SOL    HW260491  11.554   2.076   3.734  0.2103  0.9200  0.2267
80961SOL     OW60492   2.211   6.845   7.591  0.2890 -0.2581 -0.5254
80961SOL    HW160493   2.287   6.810   7.544  1.0989  0.6300  0.0884
80961SOL    HW260494   2.211   6.799   7.675  0.6395  0.3149 -0.2029
80962SOL     OW60495   9.080   3.942   7.238  0.1811 -0.1110 -0.0136
80962SOL    HW160496   8.994   3.945   7.195  0.7414 -0.1365 -1.1781
80962SOL    HW260497   9.139   3.906   7.171  0.6398 -2.5751  1.6045
80963SOL     OW60498  13.286   0.839  10.565  0.1355 -0.6536 -0.2338
80963SOL    HW160499  13.220   0.906  10.544  0.1161 -0.6724 -0.2358
80963SOL    HW260500  13.234   0.761  10.586  0.1698 -0.9949 -1.3505
80964SOL     OW60501  12.202   8.478   9.339  0.2265 -0.1110 -0.1169
80964SOL    HW160502  12.197   8.388   9.371 -0.1877  0.7205  2.4158
80964SOL    HW260503  12.117   8.493   9.296  0.0078 -0.7095  0.0970
80965SOL     OW60504   1.851   2.817   0.365  0.1356  0.2698  0.1438
80965SOL    HW160505   1.880   2.874   0.294 -1.3455  0.5305 -0.2925
80965SOL    HW260506   1.784   2.869   0.411 -1.6164 -1.2340 -0.5707
80966SOL     OW60507  13.107   1.651   5.684 -0.4330 -0.1465  0.2057
80966SOL    HW160508  13.161   1.605   5.620  3.0096  0.2544  2.5712
80966SOL    HW260509  13.073   1.727   5.637  1.5501 -0.1181 -1.2916
80967SOL     OW60510   1.112  11.561   6.987  0.6813 -0.1206  0.4386
80967SOL    HW160511   1.034  11.616   6.987  0.9975  0.3278  0.2368
80967SOL    HW260512   1.184  11.621   7.003  0.9233 -0.6359  1.3463
80968SOL     OW60513  13.881   7.327   4.680 -0.0089  0.6868  0.3877
80968SOL    HW160514  13.885   7.333   4.775 -1.0519  0.6937  0.4329
80968SOL    HW260515  13.800   7.280   4.662  1.9053 -2.6917 -0.3554
80969SOL     OW60516   5.339  13.042   8.861  0.2858 -0.2932 -0.8387
80969SOL    HW160517   5.323  13.062   8.954 -0.3907 -2.7246 -0.3575
80969SOL    HW260518   5.273  13.093   8.814  0.5994  0.9266  0.0016
80970SOL     OW60519   3.022  11.423   1.106 -0.3343  0.2688 -0.1833
80970SOL    HW160520   3.061  11.482   1.171 -1.2475  1.6993 -0.8914
80970SOL    HW260521   2.968  11.479   1.051 -0.8935 -1.1714 -1.1796
80971SOL     OW60522  13.489   6.672   9.849  0.1617 -0.0912  0.0852
80971SOL    HW160523  13.483   6.607   9.919  1.9895 -0.6922 -0.2570
80971SOL    HW260524  13.407   6.662   9.800 -0.4893 -0.6880  1.2496
80972SOL     OW60525   0.467  10.317  11.760  0.6535 -1.0004 -0.8317
80972SOL    HW160526   0.559  10.295  11.746  0.1729 -2.5467 -1.7657
80972SOL    HW260527   0.465  10.358  11.846  2.2159 -0.9061 -0.8147
80973SOL     OW60528   1.359   2.187   7.464 -0.7731  0.6944  0.4830
80973SOL    HW160529   1.288   2.126   7.441  0.3103 -0.9537  1.2924
80973SOL    HW260530   1.426   2.172   7.397  0.2368 -0.3626  1.6613
80974SOL     OW60531  12.516   1.488  12.812  0.0992  0.0665 -0.2705
80974SOL    HW160532  12.473   1.567  12.780  1.0518  1.3261  1.3833
80974SOL    HW260533  12.578   1.464  12.743  0.7555  1.5837 -0.2475
80975SOL     OW60534  11.637  11.222   1.444  0.8361 -0.2827 -0.2782
80975SOL    HW160535  11.642  11.127   1.450  1.3365 -0.2436 -0.0221
80975SOL    HW260536  11.708  11.247   1.385 -1.2505 -0.2985 -2.9983
80976SOL     OW60537  11.198   4.201   1.804  0.3570  0.2884  0.3239
80976SOL    HW160538  11.226   4.114   1.831 -1.1846  0.4399  2.7341
80976SOL    HW260539  11.116   4.186   1.757  0.4440  0.3714  0.1475
80977SOL     OW60540  13.198   1.164   1.870  0.0048 -0.0351  0.4758
80977SOL    HW160541  13.199   1.130   1.960 -0.8333  0.7307  0.7886
80977SOL    HW260542  13.277   1.128   1.830 -0.7999 -2.3199  0.7943
80978SOL     OW60543   1.009  13.630   4.288  0.3002 -0.4060 -0.2606
80978SOL    HW160544   1.026  13.553   4.233  0.5127 -0.3276 -0.3096
80978SOL    HW260545   0.963  13.691   4.231 -0.5393 -0.7890 -0.0027
80979SOL     OW60546   4.929  11.324   7.561 -0.0810  0.0911  1.0362
80979SOL    HW160547   4.859  11.262   7.583 -0.0094  0.6965  3.1543
80979SOL    HW260548   5.007  11.269   7.554 -0.2468 -0.2355  1.6281
80980SOL     OW60549  13.512  12.327   9.739  0.8316  0.4418  0.3062
80980SOL    HW160550  13.553  12.409   9.764  0.1928  0.6536  0.6828
80980SOL    HW260551  13.478  12.343   9.650  0.6186  0.6196  0.4197
80981SOL     OW60552  12.289  11.818  13.714  0.6108  0.4453 -0.2358
80981SOL    HW160553  12.375  11.789  13.684  1.1528 -0.2416  1.7772
80981SOL    HW260554  12.289  11.798  13.808 -1.5020  1.0512 -0.0583
80982SOL     OW60555   0.051   5.400   9.734 -0.5681  0.4630  0.2883
80982SOL    HW160556   0.085   5.343   9.665  3.9310  0.6735  1.9645
80982SOL    HW260557   0.012   5.474   9.687  1.2443  0.0465 -2.0622
80983SOL     OW60558   1.788   2.349   8.501 -0.1487 -0.1084  0.3719
80983SOL    HW160559   1.762   2.264   8.463 -0.9486 -0.2133  1.1374
80983SOL    HW260560   1.777   2.338   8.595 -0.9643  1.0826  0.4359
80984SOL     OW60561  13.186   2.210  12.258  0.3239  0.2286 -0.5903
80984SOL    HW160562  13.225   2.182  12.175 -0.8587 -0.7553 -0.8583
80984SOL    HW260563  13.092   2.192  12.248  0.0227  0.9510  0.6267
80985SOL     OW60564  11.182   2.261  11.238 -0.1096 -0.1753 -0.1970
80985SOL    HW160565  11.264   2.258  11.189  0.0297 -0.4304  0.0441
80985SOL    HW260566  11.178   2.175  11.281 -0.6824 -0.3028 -0.4993
80986SOL     OW60567   4.988  11.869   3.439 -0.4857 -0.6815 -0.0655
80986SOL    HW160568   5.073  11.861   3.396  0.2503 -0.1823  1.2469
80986SOL    HW260569   4.924  11.860   3.368  0.7018  1.3322 -1.4766
80987SOL     OW60570  12.780   6.926   1.059  0.2283  0.6012  0.4044
80987SOL    HW160571  12.806   6.874   0.983  1.2666  1.5439  0.0874
80987SOL    HW260572  12.685   6.915   1.064  0.5017 -2.1826  1.0228
80988SOL     OW60573  12.287  13.268  10.210  0.5119  0.1487 -0.2569
80988SOL    HW160574  12.308  13.271  10.303 -0.5884 -1.7404  0.1029
80988SOL    HW260575  12.338  13.195  10.176  1.0801  0.9640 -1.2159
80989SOL     OW60576   4.118  12.778   0.651  0.6267 -0.4012 -0.4384
80989SOL    HW160577   4.067  12.845   0.606  1.7312  0.5916 -0.2296
80989SOL    HW260578   4.073  12.766   0.735 -1.5889 -2.4354 -1.7748
80990SOL     OW60579   0.184   7.905  10.744 -0.1147 -0.1839  0.0742
80990SOL    HW160580   0.180   7.986  10.693 -1.6314  0.2682  0.8542
80990SOL    HW260581   0.094   7.871  10.742 -0.3037 -0.0147  2.6030
80991SOL     OW60582   2.240   5.909   7.827 -0.5310  0.1294  0.0836
80991SOL    HW160583   2.245   5.964   7.749  1.1517 -1.0148 -0.6735
80991SOL    HW260584   2.276   5.963   7.897  2.1766 -0.2527 -0.8678
80992SOL     OW60585   7.007   1.255   2.278 -0.1910  0.0062  0.5749
80992SOL    HW160586   7.021   1.223   2.190 -4.0989  1.0191 -0.6129
80992SOL    HW260587   6.932   1.206   2.311 -0.3035  1.2646  2.3999
80993SOL     OW60588  13.553  10.105   8.492  0.1902  0.3960  0.5104
80993SOL    HW160589  13.491  10.112   8.420 -0.4704 -0.7044  0.9414
80993SOL    HW260590  13.630  10.062   8.453  0.0234  0.2431  0.3470
80994SOL     OW60591   2.819   2.224   6.183 -0.1888  0.4183 -1.1289
80994SOL    HW160592   2.792   2.148   6.234 -0.5356  0.7203 -0.8503
80994SOL    HW260593   2.892   2.262   6.231 -0.5363  0.7213 -0.8323
80995SOL     OW60594   8.834   1.205   6.958 -0.2819  0.4821  0.0375
80995SOL    HW160595   8.822   1.194   7.053 -0.6092  1.1309  0.0746
80995SOL    HW260596   8.922   1.241   6.949  0.2101 -0.6743  0.0096
80996SOL     OW60597   1.335   2.860  11.486  0.1485 -0.2136  0.1284
80996SOL    HW160598   1.273   2.809  11.434  0.5540 -1.3714  0.7539
80996SOL    HW260599   1.280   2.923  11.533 -0.2997  0.3192 -1.0689
80997SOL     OW60600  13.431   9.354   7.279 -0.4231  0.1107  0.2284
80997SOL    HW160601  13.454   9.263   7.262  0.4370  0.5519 -1.1587
80997SOL    HW260602  13.400   9.355   7.369  1.1046 -1.2607  0.8078
80998SOL     OW60603   6.499   8.901   1.008 -0.3910 -0.7175  0.1509
80998SOL    HW160604   6.414   8.944   1.009 -0.2668 -0.4524  2.0165
80998SOL    HW260605   6.549   8.944   1.077  0.5269 -2.3125  0.5303
80999SOL     OW60606   1.343  10.591   2.124  0.0910 -0.1987  0.5971
80999SOL    HW160607   1.403  10.565   2.194 -0.7476 -0.4575  1.2497
80999SOL    HW260608   1.312  10.508   2.087  1.4006 -0.0612 -0.8803
81000SOL     OW60609   7.405   6.084   4.789 -0.6196  0.3987 -0.3578
81000SOL    HW160610   7.333   6.023   4.799  0.3141 -0.7005 -0.1278
81000SOL    HW260611   7.481   6.039   4.826  0.2050  1.4963 -0.6361
81001SOL     OW60612   5.305  10.422   0.324 -0.1356 -0.1580  0.3325
81001SOL    HW160613   5.224  10.474   0.330 -0.9852 -1.3496 -0.3746
81001SOL    HW260614   5.298  10.359   0.395  0.0225 -0.4872  0.0545
81002SOL     OW60615   9.480   4.901   4.543  0.1927 -0.4931 -0.1016
81002SOL    HW160616   9.548   4.858   4.597 -0.9561 -0.7528  1.1975
81002SOL    HW260617   9.457   4.980   4.592 -0.2069 -0.2390 -0.6951
81003SOL     OW60618   8.260   1.542  11.442  0.3718 -0.2051 -0.1178
81003SOL    HW160619   8.295   1.613  11.495  0.5471  0.6244 -1.3084
81003SOL    HW260620   8.328   1.525  11.377 -0.1573 -0.6637 -0.5629
81004SOL     OW60621   8.288  10.008   9.417  0.0690 -0.4243  0.2606
81004SOL    HW160622   8.232  10.049   9.483 -0.5575 -2.0380  0.8054
81004SOL    HW260623   8.257  10.044   9.334  1.4110  2.2616  0.8263
81005SOL     OW60624   3.140   0.125  10.866 -0.0013 -0.1833 -0.2782
81005SOL    HW160625   3.153   0.195  10.929  0.1397 -1.1206  0.7778
81005SOL    HW260626   3.178   0.048  10.908 -2.3958 -1.4598 -0.2671
81006SOL     OW60627   1.359   6.776   7.368  0.2885  0.0389 -0.1757
81006SOL    HW160628   1.313   6.859   7.375  0.4776  0.1328 -0.0183
81006SOL    HW260629   1.292   6.712   7.342  0.3138  0.4069 -1.1674
81007SOL     OW60630   9.236   8.569   8.591  0.2443  0.9611  0.3168
81007SOL    HW160631   9.282   8.589   8.509 -2.5636  1.1424 -1.3218
81007SOL    HW260632   9.232   8.473   8.593  0.1199  0.9618  0.1308
81008SOL     OW60633  13.595  13.524   0.233  0.1544  0.0090  0.2406
81008SOL    HW160634  13.678  13.569   0.219  0.2637 -0.1725  0.3060
81008SOL    HW260635  13.545  13.541   0.152  0.3814 -0.1580  0.0658
81009SOL     OW60636  13.364   4.239   3.666 -0.5623  0.4484 -0.1330
81009SOL    HW160637  13.279   4.195   3.675 -0.6969  0.3345 -1.7221
81009SOL    HW260638  13.342   4.332   3.667 -0.7030  0.4199 -0.4517
81010SOL     OW60639  11.357   7.454   0.730  0.1697  0.9852 -0.7364
81010SOL    HW160640  11.329   7.364   0.745 -0.2243  1.1572 -0.4312
81010SOL    HW260641  11.389   7.455   0.639 -0.1463  0.6214 -0.8507
81011SOL     OW60642   2.326   4.093   4.074  0.2231 -0.2840 -0.0062
81011SOL    HW160643   2.359   4.061   3.990 -0.7093 -0.6487 -0.2494
81011SOL    HW260644   2.259   4.157   4.050 -1.4170 -1.7736  0.3989
81012SOL     OW60645   1.341   3.532   9.275  0.2970 -0.0896 -0.0824
81012SOL    HW160646   1.387   3.534   9.191  0.5014  0.8990  0.0415
81012SOL    HW260647   1.305   3.620   9.284 -1.6765 -0.8363 -0.1934
81013SOL     OW60648  13.954   2.646  10.187 -0.1727  0.0706 -0.6298
81013SOL    HW160649  13.877   2.703  10.183  0.7612  1.5475  0.8728
81013SOL    HW260650  13.925   2.571  10.238 -1.0936 -0.2914 -1.6294
81014SOL     OW60651   3.956   5.452   6.142 -0.3442  0.2287 -0.3720
81014SOL    HW160652   3.941   5.380   6.081 -1.5042  1.1108 -1.1627
81014SOL    HW260653   4.051   5.454   6.154 -0.2123 -0.7712 -1.1468
81015SOL     OW60654   8.806  13.282  12.133  0.5433  0.2359 -0.0217
81015SOL    HW160655   8.855  13.358  12.101 -1.1947  0.9814 -1.0848
81015SOL    HW260656   8.787  13.231  12.054 -2.0957  1.0554  0.0061
81016SOL     OW60657  10.188   5.403   7.383  0.1122  0.5687  0.2518
81016SOL    HW160658  10.104   5.448   7.392 -0.6625 -1.1242  2.2028
81016SOL    HW260659  10.236   5.424   7.464  1.0931  0.5705 -0.3125
81017SOL     OW60660   1.795   9.004  10.418  0.0313 -0.9694  0.5530
81017SOL    HW160661   1.879   9.042  10.443  0.7661 -1.9651 -0.3240
81017SOL    HW260662   1.818   8.928  10.365 -1.4248 -1.4351  0.5531
81018SOL     OW60663   4.356  12.732  11.525  0.2378  0.3142  0.2405
81018SOL    HW160664   4.399  12.653  11.559  0.6737  0.5856  0.3280
81018SOL    HW260665   4.314  12.703  11.445  0.1596 -0.0739  0.4153
81019SOL     OW60666   3.868   4.374   7.223  0.2025 -1.2320 -0.1435
81019SOL    HW160667   3.948   4.414   7.189  1.4339 -1.5868  2.1481
81019SOL    HW260668   3.829   4.332   7.147  1.3425  0.3048 -1.6567
81020SOL     OW60669   9.905  12.681  11.467 -0.0087 -0.2549 -1.0221
81020SOL    HW160670   9.938  12.759  11.422  1.0646 -0.7609 -1.1244
81020SOL    HW260671   9.936  12.691  11.557  1.9974 -1.5901 -1.5148
81021SOL     OW60672   6.487  13.157   7.075  0.2538  0.4310  0.7677
81021SOL    HW160673   6.416  13.189   7.021  0.9284  1.0574  0.2401
81021SOL    HW260674   6.454  13.163   7.165  0.1738  2.1481  0.6537
81022SOL     OW60675  13.815  11.270   3.835 -0.5367  0.3488 -0.2078
81022SOL    HW160676  13.828  11.180   3.863 -0.0916  0.7118  0.8114
81022SOL    HW260677  13.875  11.321   3.889  0.8360  1.0491 -2.2542
81023SOL     OW60678  10.660  11.496  11.304 -0.6783  0.3961 -0.0955
81023SOL    HW160679  10.623  11.580  11.331  0.2750  0.4109  1.2613
81023SOL    HW260680  10.754  11.504  11.323 -0.0732 -0.0013 -2.4984
81024SOL     OW60681   7.871  11.756   7.463  0.3652 -0.3002 -0.5111
81024SOL    HW160682   7.927  11.833   7.462 -0.3691  0.2561 -1.6347
81024SOL    HW260683   7.902  11.704   7.536  0.4872  1.3632  0.6836
81025SOL     OW60684  11.922   8.157  11.220  0.2451  0.1299 -0.3437
81025SOL    HW160685  11.972   8.182  11.298 -0.0029 -1.9633  0.5739
81025SOL    HW260686  11.831   8.166  11.247  0.1522 -1.1877 -0.1224
81026SOL     OW60687  12.630   3.335   7.913 -0.5461  0.1213  0.7377
81026SOL    HW160688  12.653   3.425   7.939 -1.4898  0.4585  0.4397
81026SOL    HW260689  12.537   3.340   7.891 -0.6215 -0.9513  0.7830
81027SOL     OW60690   9.434   6.430   1.563  0.2292  0.3305 -0.2757
81027SOL    HW160691   9.470   6.512   1.597 -0.7090  0.1405  1.2925
81027SOL    HW260692   9.483   6.362   1.610  0.4473  0.0065 -0.9693
81028SOL     OW60693   2.136   9.150   3.569 -0.0332  0.2955  0.4250
81028SOL    HW160694   2.167   9.093   3.639 -0.1769  0.9943  1.0639
81028SOL    HW260695   2.211   9.157   3.509  0.3822  0.3911  0.9527
81029SOL     OW60696  12.426  13.493   2.929 -0.2337  0.1799  0.9061
81029SOL    HW160697  12.377  13.571   2.902  1.1214  0.6312 -0.3276
81029SOL    HW260698  12.487  13.476   2.857  0.6058 -1.0724  1.8718
81030SOL     OW60699  10.063   8.105   9.848 -0.5480  0.2498  0.0672
81030SOL    HW160700  10.046   8.199   9.859 -1.7679 -0.0210  0.6790
81030SOL    HW260701  10.055   8.070   9.937  0.2279 -0.3892 -0.1093
81031SOL     OW60702   2.856   1.482  11.307  0.2148 -0.2876 -0.6213
81031SOL    HW160703   2.791   1.412  11.313  1.7184 -1.8344 -1.6694
81031SOL    HW260704   2.924   1.457  11.370  1.0581 -0.1164 -1.4500
81032SOL     OW60705   0.172   8.046   6.982 -0.9551  0.5249  0.0887
81032SOL    HW160706   0.091   8.096   6.991 -1.8764 -0.9002  0.1988
81032SOL    HW260707   0.147   7.956   7.006  0.2452 -0.3157 -1.5659
81033SOL     OW60708   3.524   3.006  11.314 -0.2330  0.0207 -0.7544
81033SOL    HW160709   3.613   2.973  11.324  0.6220  2.3455 -0.1893
81033SOL    HW260710   3.529   3.099  11.337 -2.9734  0.0479  0.1469
81034SOL     OW60711   4.995   7.878   7.368  0.3134  0.6386 -0.3657
81034SOL    HW160712   4.903   7.853   7.369  0.7875 -1.2531  1.6698
81034SOL    HW260713   5.028   7.845   7.284 -0.3886 -0.5990 -0.1745
81035SOL     OW60714   7.190  14.021   6.842 -0.3858 -0.0154  0.5409
81035SOL    HW160715   7.224  13.974   6.918  1.5099 -0.9568 -0.7999
81035SOL    HW260716   7.220  14.111   6.855  1.3588 -0.4965  0.1928
81036SOL     OW60717  13.337   8.865   2.922  0.0697 -0.2399  0.0631
81036SOL    HW160718  13.246   8.837   2.908 -0.0948  0.0308  0.5616
81036SOL    HW260719  13.330   8.956   2.948  0.5615  0.1052 -0.9420
81037SOL     OW60720   7.644  12.723   7.515 -0.1811 -0.2589 -0.2294
81037SOL    HW160721   7.657  12.631   7.536  1.0837 -0.1310 -0.3520
81037SOL    HW260722   7.659  12.769   7.598 -1.6882 -0.1995  0.0434
81038SOL     OW60723  14.008   5.880   3.970  0.0172 -0.2280 -0.2546
81038SOL    HW160724  13.981   5.812   4.031 -0.6649 -0.0797 -0.3835
81038SOL    HW260725  13.992   5.962   4.017  0.1655 -0.1340 -0.3670
81039SOL     OW60726   0.852  13.226   9.408  0.2255 -0.1206 -0.6937
81039SOL    HW160727   0.782  13.161   9.407  0.5527 -0.4759 -0.8019
81039SOL    HW260728   0.878  13.231   9.500  1.4452 -1.5123 -0.9195
81040SOL     OW60729   4.688  14.015   4.367  0.1282  0.4368  0.1878
81040SOL    HW160730   4.668  14.108   4.380 -1.1133  0.0684  1.0846
81040SOL    HW260731   4.725  13.987   4.451  1.1840  0.2696 -0.3164
81041SOL     OW60732   4.934   3.663   1.596  0.6058 -0.6998 -0.5830
81041SOL    HW160733   4.913   3.598   1.663 -0.1741 -0.3600 -0.4827
81041SOL    HW260734   4.848   3.695   1.566  0.9094  2.2265  1.2794
81042SOL     OW60735  10.728   3.219   8.820  0.1465 -0.3005 -0.3137
81042SOL    HW160736  10.711   3.260   8.905 -1.0403 -0.7749 -0.3108
81042SOL    HW260737  10.709   3.127   8.833  0.1362 -0.4057 -1.0464
81043SOL     OW60738  12.268  12.645  11.354  0.3841 -0.8272  0.3526
81043SOL    HW160739  12.277  12.717  11.416 -0.1219 -1.0866  0.7386
81043SOL    HW260740  12.175  12.622  11.358  0.4254 -1.0998 -0.2171
81044SOL     OW60741   1.835   1.483  12.713 -0.5606  0.0028 -0.0053
81044SOL    HW160742   1.853   1.401  12.667 -0.8595  0.3054 -0.6732
81044SOL    HW260743   1.792   1.538  12.648  1.1936  1.3389 -0.1200
81045SOL     OW60744  11.998  13.043   0.839 -0.5752 -1.0470 -0.3153
81045SOL    HW160745  12.078  13.094   0.823  0.5007 -2.1827  1.1196
81045SOL    HW260746  11.962  13.028   0.752  0.8236 -0.5490 -1.0220
81046SOL     OW60747   5.257  13.388  10.800  0.3093 -0.1773  0.1153
81046SOL    HW160748   5.307  13.333  10.862  0.4117  1.4157  1.5200
81046SOL    HW260749   5.324  13.442  10.758 -0.0016  0.3533  0.3031
81047SOL     OW60750   0.803   0.425   0.191 -0.0304 -0.1066 -0.2556
81047SOL    HW160751   0.868   0.471   0.244  0.8710  0.8158 -2.0812
81047SOL    HW260752   0.773   0.353   0.247  0.2021  1.3183  1.8205
81048SOL     OW60753   7.005   4.440   7.683 -0.1697 -0.2310  0.5756
81048SOL    HW160754   6.950   4.491   7.624 -1.3229 -0.2481  1.5890
81048SOL    HW260755   7.057   4.504   7.731  0.3683 -0.1867 -0.0567
81049SOL     OW60756   8.390   5.705   1.790  0.1941  0.2352 -0.0152
81049SOL    HW160757   8.415   5.775   1.851 -1.9703  1.6633 -0.6601
81049SOL    HW260758   8.330   5.649   1.841 -1.0708  1.0413 -0.5669
81050SOL     OW60759  12.487  10.084  13.319 -0.8182  0.0180 -0.4492
81050SOL    HW160760  12.405  10.080  13.369 -1.3629  2.2101 -1.0513
81050SOL    HW260761  12.510  10.177  13.319  2.7932 -0.7230  1.4219
81051SOL     OW60762   1.190   1.117   3.208  0.4469 -1.0805 -0.5145
81051SOL    HW160763   1.116   1.172   3.181  0.5659 -0.3609  0.5706
81051SOL    HW260764   1.267   1.165   3.177  0.8281  1.4923  3.5994
81052SOL     OW60765   1.197  13.340   0.493  0.3655  0.0670  0.1096
81052SOL    HW160766   1.156  13.265   0.536 -1.0521  0.1958 -0.9507
81052SOL    HW260767   1.287  13.311   0.475  0.0284 -1.1346  0.2847
81053SOL     OW60768   0.306   4.909   6.940 -0.1177  0.2843 -0.4392
81053SOL    HW160769   0.381   4.961   6.911 -0.6177  0.9065 -0.6415
81053SOL    HW260770   0.250   4.902   6.862 -0.8001  0.7804 -0.0112
81054SOL     OW60771   0.840   0.252   4.431 -0.0556  0.1451  0.2323
81054SOL    HW160772   0.795   0.321   4.383 -0.4899 -0.4140 -0.1768
81054SOL    HW260773   0.771   0.205   4.477  0.2994  0.3323  0.9806
81055SOL     OW60774   5.250   1.265  13.446 -0.1395  0.5375 -0.8785
81055SOL    HW160775   5.173   1.292  13.496 -0.8168  1.3550 -2.3102
81055SOL    HW260776   5.217   1.203  13.382 -0.1312  2.6861 -3.1197
81056SOL     OW60777   2.782   7.076   0.281  0.2110  0.3470 -0.2024
81056SOL    HW160778   2.713   7.048   0.221  0.0732 -0.1394  0.1800
81056SOL    HW260779   2.749   7.052   0.368 -0.1156  2.0846  0.1945
81057SOL     OW60780   8.423   8.653  13.183  0.2125 -0.0974 -0.0230
81057SOL    HW160781   8.504   8.623  13.225  0.2552 -0.1455 -0.1409
81057SOL    HW260782   8.445   8.660  13.091  0.3512  0.8212  0.0750
81058SOL     OW60783   2.562   1.741  13.441  0.0160  0.1955  0.6979
81058SOL    HW160784   2.509   1.672  13.402 -0.3305  1.5857 -1.4702
81058SOL    HW260785   2.628   1.695  13.493 -1.6099 -1.6474  1.2216
81059SOL     OW60786   4.583   8.784  12.919 -0.0007  0.3592  0.9070
81059SOL    HW160787   4.633   8.765  12.839  1.4778  0.0406  1.8779
81059SOL    HW260788   4.533   8.863  12.897  0.9857  0.7450 -0.0867
81060SOL     OW60789   1.645  12.965   7.570  0.7372 -0.4934  0.6014
81060SOL    HW160790   1.683  13.024   7.635  3.0023 -1.4890  0.2997
81060SOL    HW260791   1.674  13.001   7.486 -0.4875 -0.3317  0.2299
81061SOL     OW60792   4.386  11.868   8.432  0.0267  0.1801 -0.4055
81061SOL    HW160793   4.384  11.928   8.507 -0.3339  1.2013 -1.2153
81061SOL    HW260794   4.325  11.798   8.455  0.9019 -0.2286  0.8160
81062SOL     OW60795   2.779   2.485  11.147  0.3013  0.6428  0.3833
81062SOL    HW160796   2.764   2.446  11.233  0.9101  0.6775  0.5125
81062SOL    HW260797   2.774   2.579  11.163  0.2613  0.6463  0.3492
81063SOL     OW60798   4.319  10.724   6.534  0.0054 -0.0303  0.9583
81063SOL    HW160799   4.310  10.704   6.627 -0.1988 -2.8187  0.4102
81063SOL    HW260800   4.248  10.786   6.516 -0.2489  0.1882  2.5291
81064SOL     OW60801   9.896  13.216  10.449 -0.0190 -0.1105  0.2407
81064SOL    HW160802   9.850  13.165  10.516  1.3420 -0.8823  0.6271
81064SOL    HW260803   9.861  13.304  10.458 -0.6498 -0.4396  1.2358
81065SOL     OW60804   1.311   2.284   6.635  0.3055  1.1215  0.4532
81065SOL    HW160805   1.261   2.206   6.658 -1.7860  2.2451 -0.0624
81065SOL    HW260806   1.286   2.349   6.701  2.9045  1.1010  1.5994
81066SOL     OW60807  10.940   0.834   6.076  0.6683 -0.0890 -0.0323
81066SOL    HW160808  10.867   0.800   6.025  0.1758  1.1724 -0.2078
81066SOL    HW260809  10.940   0.928   6.059  1.9901  0.0172  0.4126
81067SOL     OW60810   6.928  12.319  10.937 -0.0927  0.0353 -0.4614
81067SOL    HW160811   7.001  12.297  10.995 -0.3795  1.7198  0.6218
81067SOL    HW260812   6.886  12.236  10.919  0.1733 -0.5935  1.5555
81068SOL     OW60813  11.812   8.772   9.554  0.3916 -0.2420  0.5686
81068SOL    HW160814  11.895   8.808   9.584  0.1356  1.1868 -0.3278
81068SOL    HW260815  11.788   8.708   9.620  1.4786  0.3936  1.6129
81069SOL     OW60816   3.778   3.697   6.059  0.5997 -0.0774 -0.2135
81069SOL    HW160817   3.714   3.633   6.090 -0.1794  0.3504 -0.9333
81069SOL    HW260818   3.862   3.653   6.071  0.2374 -0.4277  1.2784
81070SOL     OW60819  13.430   5.727   1.559  0.2585  0.0547  0.1044
81070SOL    HW160820  13.524   5.725   1.578  0.6820 -0.2703 -1.7865
81070SOL    HW260821  13.393   5.656   1.611  0.7737  1.1269  2.0384
81071SOL     OW60822   2.172   0.983  13.314  0.8358  0.0963  0.4865
81071SOL    HW160823   2.185   0.940  13.229  0.9147  1.5559 -0.2720
81071SOL    HW260824   2.245   0.951  13.368  0.4124 -1.3605  0.2598
81072SOL     OW60825   3.762   9.371   4.273 -0.9527 -0.3980 -0.2773
81072SOL    HW160826   3.713   9.372   4.191 -1.9275 -2.3073  0.2149
81072SOL    HW260827   3.699   9.340   4.338 -0.7134  2.7109  1.6045
81073SOL     OW60828   6.943   8.569   3.988  0.2073  0.0783 -0.6399
81073SOL    HW160829   6.866   8.548   4.041  0.2060  2.3582  0.3551
81073SOL    HW260830   6.982   8.483   3.968 -0.9772 -0.9660  1.2321
81074SOL     OW60831  10.778   9.305   8.948 -0.0485 -0.6375 -0.1888
81074SOL    HW160832  10.851   9.351   8.988  0.8254 -0.9286 -1.3952
81074SOL    HW260833  10.702   9.328   9.002  0.9871 -0.6611  1.3295
81075SOL     OW60834  10.084   7.321   4.312 -0.3300  0.0025  0.5248
81075SOL    HW160835  10.038   7.241   4.287  0.4485 -0.9156  1.8932
81075SOL    HW260836  10.146   7.335   4.240 -0.3263 -0.7585  0.3625
81076SOL     OW60837  14.048   5.790   6.044 -0.0519 -0.3591  0.3475
81076SOL    HW160838  13.960   5.752   6.044 -0.9932  1.3865 -2.9376
81076SOL    HW260839  14.044   5.859   6.110 -1.0270 -0.5900  0.5572
81077SOL     OW60840   8.048   9.885  13.890 -0.0685  0.4010  0.2700
81077SOL    HW160841   8.018   9.954  13.831 -2.6221  0.0809  1.1013
81077SOL    HW260842   8.069   9.931  13.972 -1.4589  0.2706  0.7198
81078SOL     OW60843   1.715   7.476   7.952 -0.3441 -0.0440  0.3855
81078SOL    HW160844   1.773   7.514   7.885 -1.7753  1.2949 -0.1455
81078SOL    HW260845   1.711   7.543   8.020 -1.3022 -0.1006  0.3842
81079SOL     OW60846  10.786   0.001   7.828 -0.5147 -0.1806 -0.2926
81079SOL    HW160847  10.869  -0.020   7.871 -1.1021  0.4459  1.2156
81079SOL    HW260848  10.795   0.094   7.804 -0.2243 -0.5027 -1.4846
81080SOL     OW60849  13.042   7.435   5.964  0.2442  0.3140 -0.1881
81080SOL    HW160850  12.994   7.501   5.914 -0.1999 -0.1637 -0.3972
81080SOL    HW260851  12.992   7.426   6.045  0.0553 -0.0789 -0.3449
81081SOL     OW60852  11.247  11.188   8.420 -0.1420  0.3169  0.1774
81081SOL    HW160853  11.153  11.195   8.437 -0.0819  1.7675  0.0597
81081SOL    HW260854  11.279  11.278   8.428  1.0933 -0.0325 -0.6423
81082SOL     OW60855  12.318   4.567   0.067  0.0720 -0.3297  0.5347
81082SOL    HW160856  12.247   4.512   0.032 -0.6254  1.6427 -1.3468
81082SOL    HW260857  12.298   4.655   0.036  4.2842  0.0931 -1.7633
81083SOL     OW60858   4.871  12.227  12.610  0.1861 -0.3751 -0.8202
81083SOL    HW160859   4.823  12.310  12.603  0.6503 -0.0753 -0.5069
81083SOL    HW260860   4.938  12.231  12.542  2.4416  1.0326  1.3103
81084SOL     OW60861   0.361   6.827   2.938  0.5504  0.0178  0.2336
81084SOL    HW160862   0.395   6.776   2.864 -0.3573 -0.6584  0.2711
81084SOL    HW260863   0.409   6.795   3.014 -0.6620 -1.4982  0.4143
81085SOL     OW60864   4.956   4.616   1.348 -0.1091 -0.0591 -0.2026
81085SOL    HW160865   4.884   4.674   1.373 -2.3878 -2.4847 -0.7396
81085SOL    HW260866   4.914   4.532   1.332  3.2285 -2.5533  2.6498
81086SOL     OW60867  12.320   4.725   8.503  0.4354  0.2973  0.3392
81086SOL    HW160868  12.415   4.722   8.517  0.3777  2.5582  1.8302
81086SOL    HW260869  12.307   4.800   8.445 -0.4351 -0.0136  0.1156
81087SOL     OW60870   9.094   6.974   1.405  0.1183  0.4878  0.4330
81087SOL    HW160871   9.135   6.912   1.465  0.1679  0.8955  0.8222
81087SOL    HW260872   9.164   7.036   1.384  1.2097 -1.5709 -2.8145
81088SOL     OW60873   6.439  12.994   0.100  0.6385  0.6128  0.2257
81088SOL    HW160874   6.413  12.926   0.037 -0.2625  0.4184  0.7899
81088SOL    HW260875   6.447  12.948   0.183 -0.8632  1.3193  0.8056
81089SOL     OW60876  12.586   4.018  13.085  0.0467 -0.4387 -0.5470
81089SOL    HW160877  12.658   4.019  13.148 -0.1848  0.2330 -0.2801
81089SOL    HW260878  12.613   4.080  13.017 -0.0895 -0.5117 -0.6687
81090SOL     OW60879  12.283   1.897   0.520  0.2748 -0.1079  0.7446
81090SOL    HW160880  12.349   1.829   0.504  0.1004  0.0524 -0.8117
81090SOL    HW260881  12.224   1.858   0.585  0.6483 -1.1270  0.4920
81091SOL     OW60882  10.794   4.077  13.442 -0.1592  0.1938  1.2231
81091SOL    HW160883  10.840   4.001  13.479  0.1509 -0.6852 -0.8203
81091SOL    HW260884  10.717   4.039  13.399 -0.9197  1.2495  1.6152
81092SOL     OW60885   2.244   2.913  12.171 -0.5501  0.2659 -0.1688
81092SOL    HW160886   2.318   2.852  12.175  0.9334  1.9198 -0.6981
81092SOL    HW260887   2.285   2.998  12.153 -2.7616  0.8890 -2.9374
81093SOL     OW60888   7.927  12.577   2.865  0.4601 -0.6949 -0.2738
81093SOL    HW160889   8.015  12.542   2.863  1.0247  0.6013 -2.3305
81093SOL    HW260890   7.871  12.503   2.841  1.1290 -1.2090 -0.2791
81094SOL     OW60891   9.744   4.287  11.419 -0.5940 -0.3037 -0.0212
81094SOL    HW160892   9.776   4.325  11.501 -0.9775  0.5453 -0.2556
81094SOL    HW260893   9.824   4.271  11.367 -0.5239  2.4398 -0.8803
81095SOL     OW60894   7.808   2.908   1.580 -0.0668 -0.1441 -0.2098
81095SOL    HW160895   7.812   2.992   1.534 -0.9613 -0.3225 -0.6299
81095SOL    HW260896   7.780   2.845   1.514 -1.4524 -0.3903  0.5762
81096SOL     OW60897   4.824   8.308  13.125  0.4529  0.5884  0.2930
81096SOL    HW160898   4.891   8.264  13.073  0.9852  1.7565 -0.0563
81096SOL    HW260899   4.774   8.359  13.062 -1.5053 -1.1085  0.3948
81097SOL     OW60900  11.129   1.657  10.195 -0.9925  0.3111 -0.1884
81097SOL    HW160901  11.157   1.629  10.107  0.5320  0.6276  0.1683
81097SOL    HW260902  11.209   1.691  10.236 -1.5377 -0.3828  1.5411
81098SOL     OW60903   4.990   4.705   8.465 -0.7226 -0.2655  0.2394
81098SOL    HW160904   4.987   4.667   8.377  3.0983 -0.4719  0.0163
81098SOL    HW260905   5.028   4.792   8.453 -3.5864  1.2876  1.4229
81099SOL     OW60906  13.616   0.884  11.118 -0.0373  1.0001  0.2573
81099SOL    HW160907  13.541   0.852  11.068 -0.4411  1.2840  0.6757
81099SOL    HW260908  13.594   0.868  11.209  1.3258 -0.8401  0.3142
81100SOL     OW60909   4.888   0.201   6.895 -0.4049 -0.4078  0.0472
81100SOL    HW160910   4.842   0.202   6.979 -1.0312 -1.9478 -0.2504
81100SOL    HW260911   4.891   0.109   6.870  3.8405 -0.6122  0.5633
81101SOL     OW60912   6.723  11.839  11.397  0.6058 -0.3745  0.7019
81101SOL    HW160913   6.808  11.881  11.388  0.7233 -0.7378  0.0472
81101SOL    HW260914   6.737  11.769  11.461  0.8233 -0.4871  0.5319
81102SOL     OW60915   8.608   7.557  12.851  0.2868  0.1995  0.2936
81102SOL    HW160916   8.627   7.489  12.786  0.5712 -0.7536  1.3261
81102SOL    HW260917   8.666   7.537  12.924 -1.1525  0.2381  1.5044
81103SOL     OW60918   9.618   1.745   9.084 -0.3150  0.3919 -0.3353
81103SOL    HW160919   9.687   1.794   9.127 -0.7896  0.6825  0.1037
81103SOL    HW260920   9.537   1.787   9.113 -0.7701 -1.0339  0.5616
81104SOL     OW60921   9.231   1.771   5.729 -0.2453 -0.2726  0.3681
81104SOL    HW160922   9.320   1.771   5.765 -0.4641 -1.2305  0.9482
81104SOL    HW260923   9.222   1.856   5.687  1.1498 -0.3697 -0.1903
81105SOL     OW60924   5.250  12.878   5.420  0.2738  0.3609 -0.0254
81105SOL    HW160925   5.202  12.959   5.436 -0.3819  0.0884 -0.6110
81105SOL    HW260926   5.217  12.817   5.486  1.9815  1.0334  1.5531
81106SOL     OW60927  13.546   5.848   0.272  0.1141 -0.0174  0.1306
81106SOL    HW160928  13.526   5.930   0.317 -0.1070 -1.4025  2.7251
81106SOL    HW260929  13.465   5.827   0.225 -1.2454 -0.5794  2.5331
81107SOL     OW60930   0.499   4.608   3.874  0.2924 -0.2027 -0.4523
81107SOL    HW160931   0.439   4.537   3.856  0.5225 -0.8109  1.0632
81107SOL    HW260932   0.554   4.614   3.795 -1.1607 -0.1829 -1.5034
81108SOL     OW60933   2.543  11.442   4.910 -0.3031  0.6397  0.5732
81108SOL    HW160934   2.551  11.379   4.982  0.1589  1.0214  0.8566
81108SOL    HW260935   2.454  11.477   4.919 -0.5351  0.0863  0.4594
81109SOL     OW60936   2.079  12.846   2.926  0.4468  0.2050  0.1352
81109SOL    HW160937   2.174  12.848   2.920  0.4794 -1.9307 -0.8574
81109SOL    HW260938   2.048  12.886   2.845  0.5422 -0.7955 -0.4075
81110SOL     OW60939   1.977   9.444  10.961 -0.2528 -0.2338  0.2770
81110SOL    HW160940   1.986   9.413  10.871  1.8093  1.1078 -0.0518
81110SOL    HW260941   2.023   9.527  10.962 -0.7846  0.0936  2.4492
81111SOL     OW60942   2.814  13.022   3.899 -0.3297  0.6422  0.1986
81111SOL    HW160943   2.785  12.933   3.879  1.9641 -0.0265 -0.5133
81111SOL    HW260944   2.815  13.066   3.814  0.8097  0.5895  0.1700
81112SOL     OW60945   4.049  12.663  12.967 -0.2427 -0.8800  0.2830
81112SOL    HW160946   4.100  12.744  12.975  1.0919 -1.7949  1.5545
81112SOL    HW260947   3.970  12.689  12.919  0.1147  1.1709  0.7164
81113SOL     OW60948   1.186   6.745  13.050  0.1039 -0.7291 -0.1272
81113SOL    HW160949   1.217   6.687  13.119 -0.4184 -2.1356 -1.0227
81113SOL    HW260950   1.252   6.737  12.981  0.3829  0.2924  0.0134
81114SOL     OW60951  10.627   2.634   9.731  0.3997 -0.3315  0.2688
81114SOL    HW160952  10.612   2.700   9.798  0.4929  0.1738 -0.2012
81114SOL    HW260953  10.710   2.594   9.755  0.1253 -0.5947  0.8069
81115SOL     OW60954   9.991   6.802   3.024  0.2242 -0.0980  0.1773
81115SOL    HW160955  10.042   6.743   3.080  0.3831  1.6391  1.9588
81115SOL    HW260956   9.925   6.745   2.984  0.5071 -1.5465  1.6401
81116SOL     OW60957   9.168   2.321   5.796  0.1236 -0.0919 -0.5394
81116SOL    HW160958   9.125   2.306   5.880  1.2041 -1.3545 -0.1611
81116SOL    HW260959   9.172   2.416   5.786 -0.4268  0.0603  0.6198
81117SOL     OW60960   6.786  12.654  11.892 -0.4899  0.0520  0.0766
81117SOL    HW160961   6.846  12.613  11.830 -1.1068 -1.0263  0.1736
81117SOL    HW260962   6.826  12.739  11.911  0.8892 -0.5572 -0.0120
81118SOL     OW60963   8.558  10.859   9.924  0.5003  0.5404  0.2852
81118SOL    HW160964   8.564  10.918  10.000 -0.3972  2.2681 -0.9093
81118SOL    HW260965   8.566  10.917   9.849  0.2661 -0.9902 -0.9636
81119SOL     OW60966  11.806   6.501   8.386  0.3219 -0.2235 -0.1339
81119SOL    HW160967  11.834   6.488   8.477  0.4486  1.0557  0.0326
81119SOL    HW260968  11.797   6.412   8.351  0.8830 -0.7324  0.9371
81120SOL     OW60969  11.177   1.221   1.784  0.1987 -0.4847 -0.6582
81120SOL    HW160970  11.271   1.235   1.787 -0.0582  1.2398  1.2027
81120SOL    HW260971  11.155   1.229   1.691  1.8909 -1.1858 -1.1593
81121SOL     OW60972   4.537   0.783   6.233 -0.2808 -0.1528  0.0520
81121SOL    HW160973   4.501   0.870   6.219 -2.4809 -0.7240  1.5666
81121SOL    HW260974   4.624   0.798   6.269 -1.0956  1.5157  1.5089
81122SOL     OW60975  13.603  13.694  10.084 -0.3608  0.2389  0.0213
81122SOL    HW160976  13.661  13.646  10.025 -0.6309  0.9553 -0.8516
81122SOL    HW260977  13.615  13.786  10.060 -0.5108  0.5444  1.0634
81123SOL     OW60978   2.658  10.307  12.763 -0.4265  0.1226  0.4537
81123SOL    HW160979   2.722  10.368  12.800  0.1453 -1.5207  2.3251
81123SOL    HW260980   2.656  10.329  12.670  3.7225 -0.4690  0.0400
81124SOL     OW60981   1.885  11.209  13.071  0.4062 -0.4823 -0.1333
81124SOL    HW160982   1.894  11.292  13.024 -0.1559 -0.0781  0.4497
81124SOL    HW260983   1.974  11.189  13.101  0.0793  2.0108  3.1657
81125SOL     OW60984  11.618  13.044  12.175  0.0146  0.1072 -0.1681
81125SOL    HW160985  11.677  13.078  12.108  1.2805 -0.9104  0.4041
81125SOL    HW260986  11.614  13.113  12.241 -2.4534  1.8047 -1.8947
81126SOL     OW60987   9.556  10.991   0.034  0.0629 -0.1470  0.5367
81126SOL    HW160988   9.645  11.025   0.029  0.4107 -1.1910 -0.8113
81126SOL    HW260989   9.568  10.897   0.050 -0.8571  0.0609  2.9316
81127SOL     OW60990   6.449  11.760  13.806  0.2429  0.1418 -0.7476
81127SOL    HW160991   6.421  11.800  13.887 -0.0725 -0.7316 -0.4108
81127SOL    HW260992   6.485  11.675  13.832 -0.4636 -0.4349 -1.5697
81128SOL     OW60993   2.148   8.797   3.159  0.0102 -0.4634 -0.3844
81128SOL    HW160994   2.101   8.878   3.179  0.3430 -0.5969  1.0313
81128SOL    HW260995   2.092   8.753   3.095 -1.7027 -0.5003  1.0379
81129SOL     OW60996  10.413   3.261   7.876  0.5887 -0.9111  0.6408
81129SOL    HW160997  10.468   3.305   7.941 -0.4334  1.1220  0.2042
81129SOL    HW260998  10.324   3.271   7.910  0.2473 -1.7947  0.0252
81130SOL     OW60999   3.544  11.164  10.618 -0.1690  0.2585  0.1161
81130SOL    HW161000   3.575  11.178  10.528 -1.6456  1.4905 -0.2464
81130SOL    HW261001   3.498  11.081  10.615 -0.7573  0.5908 -0.4465
81131SOL     OW61002   9.343   3.914   1.956 -0.2911 -0.1472  0.6812
81131SOL    HW161003   9.341   3.832   1.907  1.4734  0.9813 -1.4363
81131SOL    HW261004   9.375   3.889   2.043  1.1436 -1.6257 -0.2062
81132SOL     OW61005   0.952   2.678   9.674 -0.3948 -0.0658  0.3048
81132SOL    HW161006   0.936   2.618   9.747 -0.6638  1.4613  1.5465
81132SOL    HW261007   0.879   2.663   9.614  0.7903 -2.6667 -0.6314
81133SOL     OW61008   1.915   6.517   2.942 -0.1077 -0.2673  0.6268
81133SOL    HW161009   1.831   6.526   2.986 -0.4960 -0.0148 -0.1397
81133SOL    HW261010   1.944   6.607   2.927 -0.4231 -0.3288 -0.4280
81134SOL     OW61011   5.090   2.621   3.817  0.1930  0.3663  0.5199
81134SOL    HW161012   5.142   2.542   3.829  0.5329  0.5019  0.0009
81134SOL    HW261013   5.081   2.629   3.722 -1.1784  0.0919  0.6044
81135SOL     OW61014   3.005   4.603   0.845  0.7801 -0.2821 -0.2612
81135SOL    HW161015   2.979   4.647   0.764 -0.9910 -0.5621  0.1165
81135SOL    HW261016   3.013   4.511   0.821  2.6854 -0.0550 -0.6374
81136SOL     OW61017  10.315  12.688   1.890 -0.4310  0.0563 -0.6936
81136SOL    HW161018  10.376  12.713   1.821  0.6422 -0.6620 -0.0384
81136SOL    HW261019  10.281  12.771   1.924  0.5695  0.4955 -0.7461
81137SOL     OW61020  11.065   8.915   8.264  0.1363  0.0345  0.1401
81137SOL    HW161021  11.047   8.845   8.327  2.5466 -0.1222  0.7561
81137SOL    HW261022  11.158   8.906   8.245  0.8725  3.8011  1.1496
81138SOL     OW61023  11.681   6.795   9.828 -0.2667 -0.1313  0.0152
81138SOL    HW161024  11.612   6.806   9.764  0.8161  1.3724 -0.9483
81138SOL    HW261025  11.657   6.716   9.876 -2.1412 -0.1581 -0.9015
81139SOL     OW61026   7.919  12.134  12.505 -0.0949  0.1620 -0.6315
81139SOL    HW161027   7.976  12.186  12.449 -1.4962 -0.3087 -2.6129
81139SOL    HW261028   7.926  12.045  12.470 -0.7572 -0.2126  0.1669
81140SOL     OW61029   1.219   5.281   5.120 -0.3752 -0.6858  0.1201
81140SOL    HW161030   1.284   5.335   5.165 -1.2656  0.5961 -0.0856
81140SOL    HW261031   1.142   5.283   5.177 -0.8646 -0.6359 -0.5311
81141SOL     OW61032   5.669   0.780   6.658  0.0899 -0.2207 -0.2801
81141SOL    HW161033   5.681   0.727   6.579 -1.3236 -1.3442  0.2054
81141SOL    HW261034   5.752   0.826   6.670  0.4802 -0.3565 -2.1634
81142SOL     OW61035   4.771  11.154   1.533  0.2814 -0.4315  0.0232
81142SOL    HW161036   4.682  11.141   1.566 -0.1811 -3.9804 -1.9988
81142SOL    HW261037   4.795  11.242   1.561 -3.5369  0.3845  1.3641
81143SOL     OW61038  13.597   7.321  10.328 -0.5935  0.1236  0.0961
81143SOL    HW161039  13.590   7.308  10.233  1.3988 -0.1567 -0.0613
81143SOL    HW261040  13.516   7.285  10.363 -1.6535  0.7944 -1.5385
81144SOL     OW61041   5.776   2.895   7.534  0.4115 -0.6615 -0.1322
81144SOL    HW161042   5.692   2.926   7.568  0.2149  1.5958 -2.3526
81144SOL    HW261043   5.771   2.799   7.540 -1.4475 -0.5084  1.6884
81145SOL     OW61044  11.986  14.063   3.057 -0.0158  0.1015 -0.1185
81145SOL    HW161045  12.075  14.046   3.089  0.3436  1.1302 -0.5187
81145SOL    HW261046  11.942  13.979   3.062  0.8457 -0.3260  0.5262
81146SOL     OW61047   8.226   5.686  12.091 -0.2736 -0.1452  0.3048
81146SOL    HW161048   8.243   5.758  12.029 -0.0707 -1.5554 -1.3571
81146SOL    HW261049   8.279   5.614  12.058 -0.7293 -1.1830  1.7492
81147SOL     OW61050  11.025   4.061  14.082  0.1009  0.1015  0.0967
81147SOL    HW161051  11.037   4.090  13.992 -1.0894 -0.3655 -0.2211
81147SOL    HW261052  11.113   4.065  14.120  0.2681  2.5107 -0.3830
81148SOL     OW61053   9.264   2.526   6.076  0.2828  0.2455  0.4120
81148SOL    HW161054   9.330   2.513   6.143 -0.4517 -0.1043  1.0893
81148SOL    HW261055   9.313   2.548   5.997  1.3937 -2.3901  0.2564
81149SOL     OW61056   9.325  13.238   6.058  0.0014  0.4854  0.6083
81149SOL    HW161057   9.350  13.305   6.122 -0.5122 -0.8860  2.3629
81149SOL    HW261058   9.236  13.262   6.032  0.5093  1.5079 -0.2741
81150SOL     OW61059  11.797  11.734   9.606  0.0820 -0.5598 -0.6742
81150SOL    HW161060  11.824  11.740   9.514  1.7780 -1.8414 -0.3225
81150SOL    HW261061  11.876  11.756   9.655 -0.0646 -2.3449  0.4492
81151SOL     OW61062   2.879   1.871   4.424  0.3031 -0.3057 -0.0822
81151SOL    HW161063   2.867   1.819   4.504  0.3284 -1.0474 -0.5465
81151SOL    HW261064   2.893   1.806   4.356  0.7865  0.3391 -0.6086
81152SOL     OW61065   3.171   2.006   1.580 -0.3281  0.0385  0.7412
81152SOL    HW161066   3.246   2.062   1.596 -1.3308  1.5918  0.1911
81152SOL    HW261067   3.208   1.928   1.537  0.8329  1.3058 -0.6653
81153SOL     OW61068   1.406  13.591   9.769 -0.1675  0.5484 -0.0996
81153SOL    HW161069   1.320  13.630   9.749 -1.4112 -0.9520  1.9068
81153SOL    HW261070   1.414  13.517   9.710  0.3431  1.4011 -1.1298
81154SOL     OW61071  13.023  11.724  13.673  0.3141  0.0149 -0.1389
81154SOL    HW161072  12.975  11.760  13.748  0.2667  0.2689 -0.2951
81154SOL    HW261073  13.115  11.740  13.694  0.3648 -0.8722  0.3741
81155SOL     OW61074  11.231   4.933   5.946 -0.2792 -0.1873  0.7147
81155SOL    HW161075  11.252   4.856   5.893 -2.3010  1.3270 -2.6620
81155SOL    HW261076  11.142   4.917   5.977  0.1762 -0.1833  2.0999
81156SOL     OW61077  13.394  12.762   0.052  0.1166  0.0205 -0.3393
81156SOL    HW161078  13.480  12.734   0.019 -0.0410  0.1212 -0.8356
81156SOL    HW261079  13.331  12.708   0.004 -0.1497  0.6820 -0.7437
81157SOL     OW61080   5.238   0.098  10.698  0.1151  0.1130  0.1116
81157SOL    HW161081   5.265   0.137  10.615 -0.6261  1.9091  0.6618
81157SOL    HW261082   5.296   0.138  10.763  0.0710 -0.5632  0.5745
81158SOL     OW61083   8.522  10.446   1.582  0.0809 -0.4045  0.3220
81158SOL    HW161084   8.492  10.536   1.590  0.6392 -0.3222  1.7982
81158SOL    HW261085   8.458  10.404   1.525 -0.5624  0.7578  0.1639
81159SOL     OW61086   8.562   6.710   2.026 -0.4684  0.3164 -0.3493
81159SOL    HW161087   8.567   6.798   1.988 -0.0770  0.2319 -0.4897
81159SOL    HW261088   8.510   6.660   1.964 -1.6804  0.7398  0.2798
81160SOL     OW61089   6.165  10.534  11.317 -0.0353 -0.5437  0.0555
81160SOL    HW161090   6.158  10.533  11.222 -1.8111  0.2116  0.1495
81160SOL    HW261091   6.117  10.456  11.346  0.4130 -0.7178  0.3596
81161SOL     OW61092   1.906   6.405   8.145 -0.0686  0.3100 -0.4769
81161SOL    HW161093   1.969   6.334   8.149 -0.4498  0.0179  1.3040
81161SOL    HW261094   1.835   6.371   8.092 -0.9519 -1.2997  1.5817
81162SOL     OW61095  11.332   4.829   8.979 -0.1516  0.1057  0.1294
81162SOL    HW161096  11.299   4.917   8.998 -0.9867 -0.1634 -0.0217
81162SOL    HW261097  11.421   4.828   9.013  0.6790  1.7266 -1.8431
81163SOL     OW61098  11.603   2.528  10.940 -0.2897 -0.2909  0.1904
81163SOL    HW161099  11.565   2.595  10.882 -0.5042 -0.6181 -0.0509
81163SOL    HW261100  11.616   2.452  10.883 -1.3370 -0.9229  0.7566
81164SOL     OW61101   2.699  13.822  10.824  0.2674  0.4258  0.0841
81164SOL    HW161102   2.710  13.727  10.838 -1.4104  0.2269  0.2069
81164SOL    HW261103   2.720  13.861  10.908 -1.1458 -0.0436  0.6874
81165SOL     OW61104  13.583  13.306  12.453  0.2636  0.3906 -0.6606
81165SOL    HW161105  13.565  13.269  12.367  0.3309 -1.3905  0.0527
81165SOL    HW261106  13.511  13.277  12.508  1.1559 -0.0756  0.3146
81166SOL     OW61107   4.246   3.685  12.791  0.5345  0.1897 -0.3197
81166SOL    HW161108   4.330   3.731  12.789  0.2230  0.8734 -3.9241
81166SOL    HW261109   4.180   3.754  12.786 -0.1166 -0.4397 -0.6885
81167SOL     OW61110   9.376   8.287  13.169  0.0282 -0.1435 -0.1221
81167SOL    HW161111   9.410   8.352  13.231  0.0180 -2.5693  2.6118
81167SOL    HW261112   9.453   8.248  13.130  0.0624  0.5883 -0.8162
81168SOL     OW61113   9.942  14.031   5.786  0.0917 -0.7574 -0.5165
81168SOL    HW161114   9.972  14.038   5.695 -0.2500  1.5653 -0.5005
81168SOL    HW261115   9.847  14.036   5.780  0.0339 -1.2155 -0.0653
81169SOL     OW61116   5.489  11.549  13.028 -0.1547 -0.5283 -0.5012
81169SOL    HW161117   5.531  11.581  12.948  0.3319  0.1496  0.0098
81169SOL    HW261118   5.429  11.481  12.998  1.4713 -1.6927 -1.2386
81170SOL     OW61119   7.239   0.813   6.484  0.0141  0.0893  0.4745
81170SOL    HW161120   7.264   0.721   6.479 -0.2376  0.1001 -3.2486
81170SOL    HW261121   7.144   0.813   6.475  0.0686  0.7275 -0.2196
81171SOL     OW61122   0.762  11.281  13.579 -0.5503 -0.3125 -0.3621
81171SOL    HW161123   0.737  11.234  13.658  1.7186 -1.3119 -0.1554
81171SOL    HW261124   0.748  11.219  13.508  0.5598 -0.6259 -0.3243
81172SOL     OW61125  12.589   1.909   0.433 -0.2078 -0.1927  0.4051
81172SOL    HW161126  12.598   1.970   0.360 -2.2225  1.6553  1.5936
81172SOL    HW261127  12.584   1.823   0.392  1.8651  0.4522 -1.3783
81173SOL     OW61128   4.336  12.101   9.325 -0.3155  0.1590  0.0055
81173SOL    HW161129   4.345  12.144   9.240 -2.2960 -0.2838 -0.4926
81173SOL    HW261130   4.285  12.163   9.377 -0.6094 -0.3087  0.2765
81174SOL     OW61131  13.772  13.379   4.803 -0.1207  1.0281  0.3879
81174SOL    HW161132  13.818  13.430   4.871 -0.0742 -0.0594  1.2012
81174SOL    HW261133  13.837  13.369   4.733  1.0243 -0.6864  1.6166
81175SOL     OW61134   3.644   2.265   4.941  0.0201 -0.0646 -0.6043
81175SOL    HW161135   3.561   2.258   4.893 -0.1603  0.9798 -0.4630
81175SOL    HW261136   3.691   2.336   4.897  0.5525 -0.1971 -0.2530
81176SOL     OW61137   7.828   8.646   3.112 -0.4074  0.6380  0.1747
81176SOL    HW161138   7.873   8.729   3.092 -0.0466  0.5904  0.7822
81176SOL    HW261139   7.735   8.668   3.109 -0.3636  0.7785 -0.9207
81177SOL     OW61140   5.745  11.244   4.783 -0.1426 -0.1214 -0.5075
81177SOL    HW161141   5.698  11.312   4.831  0.0588  0.2839 -0.8791
81177SOL    HW261142   5.780  11.187   4.851  0.2350  0.5142 -0.1623
81178SOL     OW61143   9.874  13.476  10.680  0.0660  0.2208 -0.0257
81178SOL    HW161144   9.869  13.555  10.625  1.1305 -1.2890 -2.4600
81178SOL    HW261145   9.803  13.420  10.648  0.5957 -0.6220  0.2460
81179SOL     OW61146  11.563   3.871  10.697  0.1613 -0.5055 -0.0152
81179SOL    HW161147  11.562   3.886  10.603 -1.7183  2.4567  0.3315
81179SOL    HW261148  11.622   3.937  10.732  0.6039 -1.3649  0.9414
81180SOL     OW61149   6.793   5.718   3.082  0.3108 -0.2506  0.0204
81180SOL    HW161150   6.785   5.623   3.094  1.2840 -0.5715 -1.6064
81180SOL    HW261151   6.874   5.730   3.033  0.4542  1.4741  0.6165
81181SOL     OW61152   9.197   2.586  13.488 -0.0811 -0.2149  0.0386
81181SOL    HW161153   9.103   2.582  13.506  0.2829  0.9983  2.6438
81181SOL    HW261154   9.207   2.661  13.429 -0.5635  1.3468  1.8383
81182SOL     OW61155  11.550   4.179   9.460 -0.2091 -0.3136  0.4147
81182SOL    HW161156  11.640   4.182   9.493  0.1567 -0.1703 -0.5549
81182SOL    HW261157  11.539   4.262   9.414 -0.7625 -0.4274  0.3391
81183SOL     OW61158   1.437  11.671  13.730 -0.0365  0.1297 -0.2475
81183SOL    HW161159   1.490  11.598  13.698  0.1446  0.2634 -0.2517
81183SOL    HW261160   1.449  11.670  13.825 -1.5489 -1.0447 -0.0228
81184SOL     OW61161   3.796   7.012   9.253  0.1540  0.5702 -0.4563
81184SOL    HW161162   3.885   6.980   9.269  0.3456  0.7166 -1.1986
81184SOL    HW261163   3.760   6.951   9.189 -0.6281 -0.0538  0.5447
81185SOL     OW61164   4.445  10.254   7.513 -0.7237 -0.4229 -0.1479
81185SOL    HW161165   4.399  10.217   7.438 -1.0563  0.2266 -0.2763
81185SOL    HW261166   4.375  10.279   7.574 -0.4941 -0.3009  0.0702
81186SOL     OW61167   0.486   2.882   8.264 -0.1201  0.3223 -0.1294
81186SOL    HW161168   0.405   2.929   8.281 -0.5332 -0.8110  1.1943
81186SOL    HW261169   0.549   2.920   8.326  0.1377  0.5663 -0.5277
81187SOL     OW61170  13.974   3.378   6.016  0.0023 -0.5884  0.2159
81187SOL    HW161171  13.948   3.368   5.924  0.8129 -0.0678 -0.0734
81187SOL    HW261172  13.955   3.292   6.055 -1.4101 -0.4774 -0.1570
81188SOL     OW61173   3.348   3.301   4.320  0.0963 -0.5154 -0.7211
81188SOL    HW161174   3.296   3.352   4.383  0.6328  1.4830 -1.8001
81188SOL    HW261175   3.437   3.305   4.353 -0.2664 -3.8725  1.0799
81189SOL     OW61176   6.796   4.635   5.386  0.1911 -0.5727  0.1429
81189SOL    HW161177   6.885   4.609   5.409 -0.2112 -1.8931  0.2831
81189SOL    HW261178   6.747   4.628   5.468  0.1178  0.9260  0.2428
81190SOL     OW61179   4.996   5.882   5.639  0.3379 -0.0066 -0.4765
81190SOL    HW161180   4.947   5.818   5.587  0.8430 -2.4811  1.8427
81190SOL    HW261181   4.934   5.953   5.655 -0.8639 -0.7379 -1.6647
81191SOL     OW61182  11.660  11.200   3.947 -0.0316  0.2828 -0.0628
81191SOL    HW161183  11.600  11.273   3.959  0.4826  1.2089 -2.6216
81191SOL    HW261184  11.630  11.157   3.868  0.6936 -1.3032  0.4814
81192SOL     OW61185  10.820   7.232   1.735  0.4994  0.1787  0.6499
81192SOL    HW161186  10.860   7.180   1.805  1.5849  0.0400 -0.0696
81192SOL    HW261187  10.731   7.197   1.728  0.4671 -0.0051  1.7557
81193SOL     OW61188   2.408  14.028   8.478 -0.6024 -0.0410 -0.6080
81193SOL    HW161189   2.387  14.056   8.389 -2.5116 -1.9562 -0.8331
81193SOL    HW261190   2.470  14.094   8.510 -2.2947  2.4808 -2.2017
81194SOL     OW61191   2.677   2.190   0.086  0.1697 -0.7449  0.2405
81194SOL    HW161192   2.625   2.267   0.109  0.3018 -0.1169 -1.4220
81194SOL    HW261193   2.658   2.127   0.156 -0.9233  0.3261  0.9653
81195SOL     OW61194  13.028   0.793   2.494  0.1554 -0.2857 -0.1813
81195SOL    HW161195  13.040   0.769   2.586 -3.3902 -1.3208  0.1981
81195SOL    HW261196  13.114   0.823   2.465  1.6606 -0.8740  3.1616
81196SOL     OW61197   1.949   3.928  12.051 -0.2800  0.1024 -0.5406
81196SOL    HW161198   2.027   3.879  12.025  1.6997  2.1870  1.0351
81196SOL    HW261199   1.943   3.915  12.146 -1.3944  0.5863 -0.5331
81197SOL     OW61200  12.971   9.062  11.757 -0.0031 -0.5372  0.2806
81197SOL    HW161201  12.976   9.112  11.838  1.2891  1.1477 -0.7839
81197SOL    HW261202  12.903   9.105  11.706 -1.5141 -2.1856  0.7761
81198SOL     OW61203   0.407  11.506   4.796 -0.3249 -0.6844  0.2969
81198SOL    HW161204   0.372  11.434   4.743  0.4563  0.8133 -2.4770
81198SOL    HW261205   0.501  11.503   4.781 -0.3709  1.5951 -0.9987
81199SOL     OW61206   7.743   6.088   9.693  0.5135 -0.8281 -0.1973
81199SOL    HW161207   7.812   6.116   9.632  1.3012  0.1670  1.0977
81199SOL    HW261208   7.777   6.007   9.732  1.5476  0.2675  1.2937
81200SOL     OW61209   8.132  13.802   2.848  0.0784 -0.3296 -0.0981
81200SOL    HW161210   8.200  13.740   2.824  1.6638  2.3832 -3.4733
81200SOL    HW261211   8.056  13.778   2.795 -0.7256 -1.5786  1.5062
81201SOL     OW61212   5.866  11.052   7.758 -0.2978 -0.3366 -0.4407
81201SOL    HW161213   5.957  11.074   7.736 -0.7053  1.8634 -0.1124
81201SOL    HW261214   5.865  11.045   7.853 -0.6682  0.7315 -0.3542
81202SOL     OW61215  12.333   8.113   4.957  0.3522  1.2733 -0.3427
81202SOL    HW161216  12.371   8.168   5.025  0.5489  0.4296  0.2385
81202SOL    HW261217  12.295   8.039   5.004  2.1221 -0.3025 -1.2314
81203SOL     OW61218   0.548   4.842  11.743  0.1572 -0.1355 -0.1605
81203SOL    HW161219   0.639   4.866  11.729  0.0542 -0.1531 -0.8885
81203SOL    HW261220   0.520   4.896  11.817  0.3965  0.8021 -0.7357
81204SOL     OW61221   9.033   8.503  13.706  0.0685 -0.2896  0.2225
81204SOL    HW161222   9.071   8.501  13.617 -1.0516 -1.5614 -0.2531
81204SOL    HW261223   8.969   8.574  13.703 -1.1211 -1.3476 -0.5179
81205SOL     OW61224  10.509   4.172  12.062  0.0541 -0.4057 -0.1052
81205SOL    HW161225  10.530   4.120  12.140 -2.4560 -2.0883 -0.4404
81205SOL    HW261226  10.539   4.119  11.988  0.8478  0.3748 -0.3569
81206SOL     OW61227   3.157   6.114   2.307  0.6472 -0.0869  0.2146
81206SOL    HW161228   3.144   6.209   2.302 -1.7006 -0.3673  0.1126
81206SOL    HW261229   3.158   6.095   2.400 -0.0488 -0.0897  0.2248
81207SOL     OW61230   2.869   9.875   2.540  0.4834  0.0859  0.1159
81207SOL    HW161231   2.823   9.949   2.579 -0.7777 -0.8870  0.5365
81207SOL    HW261232   2.920   9.837   2.612 -1.7159 -1.6098  0.8995
81208SOL     OW61233   7.868  13.995   1.247 -0.3816 -0.8142  0.3179
81208SOL    HW161234   7.795  13.978   1.187  0.1587 -0.9323 -0.3180
81208SOL    HW261235   7.826  14.015   1.331 -1.1873  0.1709 -0.2885
81209SOL     OW61236   5.991  11.049   2.191 -0.3350  0.0750  0.3179
81209SOL    HW161237   6.028  10.989   2.256  1.7950  0.9972  0.0527
81209SOL    HW261238   5.933  10.994   2.139 -0.5752 -1.1270  1.7576
81210SOL     OW61239   3.134   0.548  10.693 -0.3927  0.5705 -0.4310
81210SOL    HW161240   3.049   0.562  10.735  0.1866  0.3285  0.8659
81210SOL    HW261241   3.191   0.517  10.764  0.9061  1.2020 -1.1738
81211SOL     OW61242   6.108  11.193  12.672  0.2204  0.2154  0.4015
81211SOL    HW161243   6.129  11.162  12.760  3.1609 -0.3263 -0.3777
81211SOL    HW261244   6.013  11.188  12.666  0.1424 -2.7838  2.4558
81212SOL     OW61245   8.833   4.783   9.351  0.0720 -0.3242 -0.0411
81212SOL    HW161246   8.859   4.765   9.441  0.6664 -0.2246 -0.1893
81212SOL    HW261247   8.780   4.708   9.326 -0.3513 -0.2064  0.4897
81213SOL     OW61248   6.038   5.851   3.237  0.0172  0.1540  0.0799
81213SOL    HW161249   6.023   5.763   3.272  1.9627  0.2146  1.1716
81213SOL    HW261250   5.959   5.900   3.262 -1.0854 -1.2343 -0.5273
81214SOL     OW61251  10.422   4.930   6.543 -0.1706 -0.1121  0.0006
81214SOL    HW161252  10.398   4.837   6.542 -0.8033  0.0408 -1.0682
81214SOL    HW261253  10.348   4.973   6.586 -0.1078 -0.0466  0.0431
81215SOL     OW61254  10.428  11.392   0.860 -0.0953  0.4387 -0.4302
81215SOL    HW161255  10.415  11.320   0.798 -0.6042  0.2784 -0.1450
81215SOL    HW261256  10.512  11.430   0.835 -0.1660  0.2094 -1.0508
81216SOL     OW61257   7.459   1.005  12.401 -0.0483  0.1729  0.0398
81216SOL    HW161258   7.487   0.955  12.324  1.1494  0.5221  0.2292
81216SOL    HW261259   7.410   0.942  12.454 -1.4301  0.0898 -1.2895
81217SOL     OW61260   1.837   8.017  13.761 -0.2359 -0.1888 -0.5760
81217SOL    HW161261   1.757   8.031  13.710 -0.4441 -2.5563 -1.0124
81217SOL    HW261262   1.890   7.959  13.706  1.6140  0.9862 -0.1019
81218SOL     OW61263   4.604  14.035   1.610 -0.0630  0.4434  0.4763
81218SOL    HW161264   4.601  14.068   1.520 -0.7209  0.4717  0.5063
81218SOL    HW261265   4.697  14.019   1.626  0.4179  2.9461  0.7006
81219SOL     OW61266   5.769  12.630   6.135  0.0199 -0.2865 -0.1043
81219SOL    HW161267   5.837  12.692   6.163 -0.8947  0.7332 -0.0503
81219SOL    HW261268   5.814  12.570   6.076  1.1401 -0.1279  0.5622
81220SOL     OW61269   6.843   0.125  12.822  0.1181 -0.3402 -0.0767
81220SOL    HW161270   6.816   0.196  12.879  2.4342  0.2444  0.4093
81220SOL    HW261271   6.862   0.052  12.881  0.5766 -0.3812 -0.2652
81221SOL     OW61272   7.261   3.105   4.180  0.6156 -0.1700  0.2261
81221SOL    HW161273   7.356   3.108   4.167  0.2916  1.8722 -2.8406
81221SOL    HW261274   7.245   3.161   4.257  1.9154 -1.5676  1.5704
81222SOL     OW61275   0.253   9.518  12.776  0.0887  0.1593  0.2284
81222SOL    HW161276   0.347   9.504  12.759 -0.0309 -1.3442  0.7166
81222SOL    HW261277   0.240   9.486  12.865 -1.0234 -0.2389 -0.0734
81223SOL     OW61278  10.706   4.078   6.395  0.6059 -0.6584 -0.3032
81223SOL    HW161279  10.746   4.079   6.308  0.5769 -1.9526 -0.3438
81223SOL    HW261280  10.632   4.018   6.387  1.2204 -1.6123  0.8693
81224SOL     OW61281  13.945   3.656  10.756 -0.2429  0.0198  0.2763
81224SOL    HW161282  13.998   3.696  10.826 -0.5617  0.0338  0.5166
81224SOL    HW261283  13.911   3.576  10.796 -1.9748  0.9653  0.8122
81225SOL     OW61284   6.890  13.910   1.076 -0.0756  0.2842  0.0933
81225SOL    HW161285   6.820  13.944   1.020  1.0472  0.6841 -1.1283
81225SOL    HW261286   6.848  13.841   1.128 -2.0619  2.4134  1.5244
81226SOL     OW61287   7.854   1.989   7.788  0.0249 -1.2107 -0.0154
81226SOL    HW161288   7.781   2.035   7.745  1.1626  1.1321  0.3797
81226SOL    HW261289   7.889   1.932   7.720 -1.9944 -2.2435 -0.2739
81227SOL     OW61290   6.916   9.310  13.437  0.3292 -0.0582 -0.0449
81227SOL    HW161291   6.987   9.265  13.483  0.6756 -0.6685 -1.1460
81227SOL    HW261292   6.878   9.243  13.380 -0.7440  0.4210  0.0816
81228SOL     OW61293   4.620  12.616   1.373  0.5617  0.2004  0.0174
81228SOL    HW161294   4.632  12.568   1.454  1.0863 -0.8380 -0.6501
81228SOL    HW261295   4.525  12.625   1.364  0.3748 -1.6597 -0.3423
81229SOL     OW61296   2.139   0.214   3.707 -0.3276  0.1016  0.2680
81229SOL    HW161297   2.198   0.288   3.696 -0.6375  0.8181  2.7524
81229SOL    HW261298   2.119   0.213   3.801 -1.8791 -1.9538 -0.0057
81230SOL     OW61299   8.166   5.438  13.747  0.1478  0.4962 -0.0906
81230SOL    HW161300   8.185   5.468  13.658  1.4342 -0.6946 -0.2563
81230SOL    HW261301   8.246   5.456  13.796 -0.3716  0.6760  0.7069
81231SOL     OW61302   5.934  13.419   7.621 -0.0616 -0.4949 -0.0897
81231SOL    HW161303   5.930  13.510   7.592 -0.6158 -1.0840 -1.9518
81231SOL    HW261304   5.953  13.369   7.542  0.2638 -2.0100  0.9088
81232SOL     OW61305   9.161   4.308   3.306  0.0391  0.0938 -0.0890
81232SOL    HW161306   9.090   4.246   3.325 -0.2700  0.1360 -1.0450
81232SOL    HW261307   9.172   4.303   3.211  0.1268  1.3865 -0.1596
81233SOL     OW61308   1.703   2.463  11.836 -0.5073 -0.1912  0.5222
81233SOL    HW161309   1.611   2.479  11.860 -0.4581 -1.1754  1.4788
81233SOL    HW261310   1.698   2.400  11.764 -0.5874 -0.1435  0.4863
81234SOL     OW61311   0.247   7.825   9.997 -0.4007 -0.0304 -0.4900
81234SOL    HW161312   0.324   7.768   9.999  1.0730  1.8514  0.3511
81234SOL    HW261313   0.204   7.811  10.081 -0.7186 -0.7399 -0.7669
81235SOL     OW61314   7.826   7.510   1.233  0.3674  0.4892  0.3260
81235SOL    HW161315   7.787   7.438   1.283  1.0399  0.2611  0.5385
81235SOL    HW261316   7.860   7.468   1.154 -0.8467  0.8781 -0.4255
81236SOL     OW61317   4.159   5.472  10.174 -0.2500 -0.2316 -0.9473
81236SOL    HW161318   4.113   5.535  10.228 -0.5845 -1.9636  0.8974
81236SOL    HW261319   4.149   5.505  10.084 -0.9613  1.9232 -0.1236
81237SOL     OW61320   5.094   8.303  13.539 -0.4879 -0.0341 -0.3406
81237SOL    HW161321   5.077   8.293  13.445 -1.6497  2.5283 -0.4896
81237SOL    HW261322   5.166   8.366  13.543 -0.5248 -0.0397  0.5050
81238SOL     OW61323   4.793  13.079   4.655 -0.5342 -0.2433 -0.0933
81238SOL    HW161324   4.725  13.132   4.612  0.0126  2.1396  1.7967
81238SOL    HW261325   4.753  12.993   4.663 -2.3456  0.4003 -1.3218
81239SOL     OW61326  11.082  14.076   7.326  0.2790  0.8690 -0.2786
81239SOL    HW161327  11.095  14.120   7.410  1.3988 -0.0210  0.0281
81239SOL    HW261328  11.161  14.094   7.276  0.2675  0.1496 -0.5746
81240SOL     OW61329   7.397   1.399   8.877 -0.2140  0.0989 -0.1216
81240SOL    HW161330   7.474   1.373   8.827 -1.2969 -2.1143 -0.7382
81240SOL    HW261331   7.432   1.453   8.949  1.6320  1.0969 -1.6778
81241SOL     OW61332  11.503   3.128   8.833  0.0375  0.5473 -0.2993
81241SOL    HW161333  11.568   3.195   8.850  0.7696 -0.1504 -0.2957
81241SOL    HW261334  11.461   3.155   8.751  1.9977 -0.2154 -1.6332
81242SOL     OW61335   7.725  12.538  12.585 -0.5753 -0.7053 -0.2029
81242SOL    HW161336   7.636  12.570  12.598  0.1255  1.1804  0.2664
81242SOL    HW261337   7.778  12.617  12.574  0.8983 -1.8126 -1.5334
81243SOL     OW61338   9.983  10.425   5.711 -0.2175  0.4835  0.4152
81243SOL    HW161339  10.002  10.519   5.705 -0.4754  0.5011 -0.2018
81243SOL    HW261340  10.062  10.388   5.751  0.6391  0.7244 -0.9580
81244SOL     OW61341  12.541  10.798  12.006 -0.1468 -0.2877  0.3878
81244SOL    HW161342  12.472  10.754  12.057 -0.2599 -0.0795  0.4144
81244SOL    HW261343  12.514  10.889  12.003  0.6162 -0.0169  1.2162
81245SOL     OW61344   2.945  13.558  12.035 -0.1747 -0.1606 -0.6866
81245SOL    HW161345   3.041  13.556  12.040 -0.1954  0.7211  0.9487
81245SOL    HW261346   2.922  13.647  12.063 -1.5065 -0.5924 -0.3528
81246SOL     OW61347   4.358   5.648   4.168 -0.1852  0.2181 -0.5679
81246SOL    HW161348   4.322   5.717   4.225  1.1813  0.2550  0.2915
81246SOL    HW261349   4.306   5.570   4.189 -0.2737  0.4474  0.0916
81247SOL     OW61350   5.653   1.909   1.561  0.4174 -0.5621 -0.2143
81247SOL    HW161351   5.709   1.847   1.514 -0.6530 -0.1403 -2.1931
81247SOL    HW261352   5.593   1.853   1.611  0.4322 -1.1139 -0.7895
81248SOL     OW61353  11.447   3.954  11.378  0.1361 -0.0444 -0.3471
81248SOL    HW161354  11.456   3.867  11.337  1.5042  0.8179 -2.0341
81248SOL    HW261355  11.491   4.013  11.317  0.0993  1.7114  1.2439
81249SOL     OW61356   9.943   3.625   2.334  0.1689 -0.3115 -0.1090
81249SOL    HW161357  10.015   3.570   2.303 -0.3700 -0.4127 -1.2394
81249SOL    HW261358   9.968   3.714   2.309 -0.4364 -0.4341 -1.2513
81250SOL     OW61359   3.789  10.229   4.010 -0.3048 -0.1081 -0.3350
81250SOL    HW161360   3.714  10.203   4.064 -0.1398  0.8268  0.3556
81250SOL    HW261361   3.793  10.324   4.018  1.5024 -0.2020  0.3645
81251SOL     OW61362   2.548   6.717  11.489  0.2016  0.0891  0.1127
81251SOL    HW161363   2.535   6.674  11.573  0.9744 -0.2485  0.0745
81251SOL    HW261364   2.643   6.725  11.481  0.1752 -0.5160 -1.0352
81252SOL     OW61365  13.699  13.172   5.007  0.6434  0.1132  0.0210
81252SOL    HW161366  13.718  13.211   4.921 -0.0625  0.6503  0.0999
81252SOL    HW261367  13.669  13.245   5.060 -1.9764 -0.6911 -0.2036
81253SOL     OW61368  11.204  11.725   9.648  0.0544 -0.0910  0.2094
81253SOL    HW161369  11.288  11.713   9.605  0.1192 -0.8288  0.5181
81253SOL    HW261370  11.214  11.682   9.733 -0.0462  1.3858  1.0078
81254SOL     OW61371   4.286   9.005  12.156  0.4286  0.0152  0.2114
81254SOL    HW161372   4.326   8.923  12.184  2.5878  1.2614  1.0067
81254SOL    HW261373   4.308   9.012  12.063 -0.0074 -0.3981  0.0680
81255SOL     OW61374   3.228  13.162   0.728  0.1220 -0.0879  0.4952
81255SOL    HW161375   3.159  13.103   0.697 -0.1137 -0.1076  1.0582
81255SOL    HW261376   3.308  13.111   0.720  0.1992  0.2168 -0.9609
81256SOL     OW61377   1.960  11.210   4.569 -0.2041  0.4356  0.0100
81256SOL    HW161378   1.943  11.211   4.663  1.4216 -1.4607  0.4035
81256SOL    HW261379   2.006  11.292   4.551  0.2007  0.4425  1.0297
81257SOL     OW61380   0.364   3.645   9.461 -0.2256  0.3793 -0.5853
81257SOL    HW161381   0.276   3.612   9.474  0.0270 -0.1970 -0.3188
81257SOL    HW261382   0.358   3.702   9.384 -0.9947  0.9937 -0.0846
81258SOL     OW61383   7.582   0.657   7.936  0.3471 -0.1600 -0.1661
81258SOL    HW161384   7.649   0.708   7.983  0.8215  0.6803 -1.6701
81258SOL    HW261385   7.572   0.577   7.988 -1.0024  1.7098  2.7504
81259SOL     OW61386   0.756  12.761   1.071  0.1118 -0.1660 -0.8323
81259SOL    HW161387   0.709  12.840   1.099 -1.0362 -1.2740  0.5302
81259SOL    HW261388   0.748  12.761   0.976  0.6554  1.6471 -0.9189
81260SOL     OW61389  12.955  13.329   6.488 -0.1457 -0.1240  0.0805
81260SOL    HW161390  12.889  13.368   6.431  0.1572 -0.8707 -0.8157
81260SOL    HW261391  12.909  13.258   6.533 -0.1653 -0.1076  0.0865
81261SOL     OW61392   5.219  11.276   7.680  0.1589  0.0247  0.0614
81261SOL    HW161393   5.165  11.346   7.716  1.3207  1.6060 -1.1522
81261SOL    HW261394   5.218  11.208   7.747 -2.5143  0.3824  0.4942
81262SOL     OW61395   8.118   5.498   2.648 -0.3770 -0.2867 -0.6314
81262SOL    HW161396   8.208   5.515   2.674 -0.5702  0.0232 -0.1469
81262SOL    HW261397   8.122   5.487   2.553 -0.1298  1.8068 -0.9149
81263SOL     OW61398   1.253   9.956  13.015  0.7481  0.5818  0.0535
81263SOL    HW161399   1.278   9.880  13.067 -1.3928  1.0505  1.9215
81263SOL    HW261400   1.273   9.931  12.925  3.5309 -0.7181  0.9127
81264SOL     OW61401   1.805   5.443  14.019  0.0796 -0.5541 -0.1587
81264SOL    HW161402   1.864   5.415  14.090  0.2979 -1.6053 -0.7383
81264SOL    HW261403   1.718   5.418  14.049  0.1733 -1.0064 -0.2506
81265SOL     OW61404   9.239   0.847   6.853 -0.1064  0.0899 -0.7698
81265SOL    HW161405   9.181   0.833   6.928  0.1891 -0.4299 -0.6355
81265SOL    HW261406   9.210   0.930   6.816 -1.1180 -0.2878 -0.8626
81266SOL     OW61407   3.933   2.025   4.139  0.0404 -0.5169 -0.5134
81266SOL    HW161408   3.864   2.005   4.203  0.0647 -0.9694 -0.6218
81266SOL    HW261409   3.927   2.119   4.126 -1.0977 -0.6525 -1.1218
81267SOL     OW61410   2.686   5.208  11.448 -0.1494 -0.1542  0.3189
81267SOL    HW161411   2.777   5.200  11.420 -0.8195 -2.1658 -1.5133
81267SOL    HW261412   2.665   5.123  11.486 -1.4540  0.0383  0.0703
81268SOL     OW61413   1.954   5.909   4.719  0.0706 -0.1795  0.1267
81268SOL    HW161414   1.904   5.874   4.793 -0.1770  0.6907  0.3854
81268SOL    HW261415   2.045   5.886   4.738  0.0078  0.0303  0.7085
81269SOL     OW61416   9.145   2.302   3.783 -0.0722  0.7641 -0.0625
81269SOL    HW161417   9.097   2.330   3.861  1.4046 -0.9022  1.5536
81269SOL    HW261418   9.095   2.227   3.750 -0.0288  0.7007  0.0170
81270SOL     OW61419   9.872   1.050   3.407  0.1632  0.3927  0.7324
81270SOL    HW161420   9.884   1.123   3.468 -0.7006  1.9047 -0.8284
81270SOL    HW261421   9.857   1.091   3.322 -0.1115 -1.6181 -0.2646
81271SOL     OW61422   2.802   8.740   7.985 -0.1266  0.1805  0.5952
81271SOL    HW161423   2.851   8.772   8.061 -0.3557  0.0157  0.8123
81271SOL    HW261424   2.816   8.807   7.918 -2.4315  1.9610  1.7303
81272SOL     OW61425  11.923   0.353   1.227 -0.3275  0.5759  0.6852
81272SOL    HW161426  11.936   0.293   1.300  1.9027 -0.3405 -0.3701
81272SOL    HW261427  11.927   0.298   1.149 -1.1063  1.7275 -0.2044
81273SOL     OW61428  11.276   2.294   4.495  0.0278 -0.2925 -0.1777
81273SOL    HW161429  11.257   2.261   4.583  0.8902 -0.4927 -0.0650
81273SOL    HW261430  11.248   2.223   4.437 -0.9452  0.0103 -0.1004
81274SOL     OW61431   3.067   1.553   0.598 -0.4031  0.4774 -0.1370
81274SOL    HW161432   3.058   1.490   0.669  0.6977  0.9232  0.4263
81274SOL    HW261433   3.065   1.500   0.518  2.3236 -0.5412  0.3753
81275SOL     OW61434   5.349   4.195  12.767  0.1418  0.2412  0.5853
81275SOL    HW161435   5.427   4.211  12.819  0.2166 -1.8077  1.1731
81275SOL    HW261436   5.370   4.118  12.714 -1.7955 -1.0373  1.5421
81276SOL     OW61437  10.318   2.128   7.981 -0.2193 -0.2080 -0.2169
81276SOL    HW161438  10.345   2.036   7.969 -1.0283 -0.7224  1.6217
81276SOL    HW261439  10.396   2.171   8.015  0.1000 -0.2405 -0.8814
81277SOL     OW61440  10.747   6.015   4.339 -0.2201 -0.4971  0.0524
81277SOL    HW161441  10.755   5.922   4.361  0.5365 -0.3105  0.5868
81277SOL    HW261442  10.818   6.031   4.276 -1.0528 -0.5367 -0.9150
81278SOL     OW61443   0.226  11.206   0.176 -0.3415  0.5579  0.0936
81278SOL    HW161444   0.149  11.245   0.217 -2.7987 -2.5689 -1.1213
81278SOL    HW261445   0.225  11.114   0.204  2.3424  0.1418 -0.8530
81279SOL     OW61446   8.792   5.703  10.657  0.0592 -0.1775 -0.1281
81279SOL    HW161447   8.836   5.783  10.686  0.1234 -0.2194 -0.1092
81279SOL    HW261448   8.724   5.734  10.596 -0.3081 -0.0572  0.3341
81280SOL     OW61449  11.798   2.558   9.978 -0.2864  0.5388  0.0837
81280SOL    HW161450  11.870   2.601  10.024  1.4540  1.2691 -3.0051
81280SOL    HW261451  11.824   2.466   9.974  1.4789  1.0481 -2.4458
81281SOL     OW61452   6.293   9.971   0.009 -0.0910 -0.1040 -0.0565
81281SOL    HW161453   6.337   9.940   0.089 -0.5861 -1.3006 -0.2292
81281SOL    HW261454   6.290   9.894  -0.048 -0.0989  0.6345 -1.0837
81282SOL     OW61455  11.334  12.138   2.579  0.4136  0.1799  0.1472
81282SOL    HW161456  11.423  12.109   2.598  0.1904  0.0719  1.0965
81282SOL    HW261457  11.278  12.079   2.629 -0.1310  1.0609  0.6023
81283SOL     OW61458   6.897   2.861  13.741  0.2734 -0.1972 -0.1095
81283SOL    HW161459   6.848   2.880  13.661  0.6136  1.2917 -0.0100
81283SOL    HW261460   6.830   2.845  13.807 -0.3915  4.2128  0.6277
81284SOL     OW61461   9.121   3.961   4.723 -0.1658  0.0434  0.1198
81284SOL    HW161462   9.133   3.931   4.813  1.3911 -2.0921 -0.7296
81284SOL    HW261463   9.192   4.024   4.710 -0.7374  0.7927  0.5213
81285SOL     OW61464   3.487   5.152  12.252 -0.2644 -0.3160  1.2272
81285SOL    HW161465   3.574   5.190  12.266 -0.2152 -0.5453  1.5539
81285SOL    HW261466   3.495   5.062  12.284 -0.1547 -0.8604 -0.2262
81286SOL     OW61467   3.600  13.995   3.389  0.1104  0.1245 -0.2244
81286SOL    HW161468   3.553  13.935   3.331 -1.2902  0.0853  0.9085
81286SOL    HW261469   3.611  14.075   3.336 -0.2668 -0.2407 -0.8718
81287SOL     OW61470   3.846   7.042   2.647  0.5288  0.0104  0.1420
81287SOL    HW161471   3.829   7.027   2.554  1.6349 -1.0877  0.0822
81287SOL    HW261472   3.867   6.955   2.682  3.2174  0.8045  0.7377
81288SOL     OW61473   7.910  12.459   7.472 -0.0752 -0.0143 -0.6620
81288SOL    HW161474   7.823  12.432   7.500 -0.5366  0.8707 -1.2005
81288SOL    HW261475   7.922  12.546   7.511  0.5355 -0.1045 -0.6415
81289SOL     OW61476  11.217   2.136  13.033 -0.3321  0.4323 -0.1062
81289SOL    HW161477  11.157   2.105  13.101  0.5754  0.4442  0.7294
81289SOL    HW261478  11.207   2.073  12.962 -0.6970 -0.0604  0.3731
81290SOL     OW61479  10.983  11.480   1.068  0.3916 -0.2581 -0.6461
81290SOL    HW161480  10.972  11.479   1.163  0.2918 -0.8530 -0.6596
81290SOL    HW261481  11.020  11.566   1.049 -2.7937  1.2913 -0.4503
81291SOL     OW61482  13.053  10.409  11.664  0.0072 -0.4916 -0.0771
81291SOL    HW161483  12.997  10.331  11.661 -2.3394  1.0958 -2.0232
81291SOL    HW261484  13.027  10.460  11.587  2.3115  1.6630  0.4336
81292SOL     OW61485   7.757  11.017   0.540 -0.2857  0.2545 -0.1389
81292SOL    HW161486   7.828  11.021   0.475  3.2291 -0.7127  3.2066
81292SOL    HW261487   7.724  10.927   0.534  0.3198  0.0422 -0.3679
81293SOL     OW61488  12.784  10.113   3.943  0.0964 -0.5008  0.1339
81293SOL    HW161489  12.878  10.104   3.928 -0.0044 -1.0548 -0.2073
81293SOL    HW261490  12.746  10.034   3.904 -0.5690 -0.0003 -0.2619
81294SOL     OW61491   7.747   0.179  12.341  0.9754  0.0494 -0.4376
81294SOL    HW161492   7.738   0.233  12.263 -0.1176 -0.0991 -0.4324
81294SOL    HW261493   7.766   0.091  12.308 -1.6648 -0.5132 -0.7101
81295SOL     OW61494   1.744   9.088   2.169  0.4255 -0.2351  0.1515
81295SOL    HW161495   1.713   9.095   2.259  0.2404 -1.0701  0.1627
81295SOL    HW261496   1.838   9.071   2.178  0.5257  0.2968  0.1641
81296SOL     OW61497  11.122   3.956   1.439 -0.2423  0.3842  0.2325
81296SOL    HW161498  11.115   3.864   1.416 -0.0584  0.0690  1.3672
81296SOL    HW261499  11.217   3.972   1.441 -0.2790  0.8412 -0.8131
81297SOL     OW61500  13.123  13.269   9.593  0.1289 -0.4387  0.7840
81297SOL    HW161501  13.210  13.241   9.565  0.2513 -0.4365  1.1579
81297SOL    HW261502  13.122  13.252   9.687  0.0876  0.4991  0.9605
81298SOL     OW61503  12.012   9.477   1.984  0.0611  0.5093 -0.6033
81298SOL    HW161504  12.026   9.475   2.078  1.3429  1.6189 -0.7454
81298SOL    HW261505  12.099   9.487   1.946 -0.4727  0.5566 -1.8885
81299SOL     OW61506   7.682   3.030   6.466 -0.0122  0.2345 -0.3016
81299SOL    HW161507   7.680   3.123   6.444  1.3147  1.2887  3.2604
81299SOL    HW261508   7.730   2.989   6.394  0.9278  2.6164 -1.1277
81300SOL     OW61509  12.386  12.757   3.061 -0.3886 -0.3521 -0.4180
81300SOL    HW161510  12.402  12.825   2.996 -1.1828  0.6236  0.3790
81300SOL    HW261511  12.378  12.804   3.144  0.4861 -1.5538  0.3918
81301SOL     OW61512   3.687   5.293  12.610 -0.1020 -0.0971  0.0337
81301SOL    HW161513   3.659   5.275  12.699 -1.1382 -1.7030 -0.5650
81301SOL    HW261514   3.776   5.328  12.619 -1.2661  2.7619  1.8543
81302SOL     OW61515  12.370  13.716   1.612  0.0060  0.1014 -0.2728
81302SOL    HW161516  12.278  13.728   1.591  0.1175  1.0986 -0.2425
81302SOL    HW261517  12.414  13.710   1.527  0.0335  0.6466 -0.2991
81303SOL     OW61518   6.100   9.679   2.195  0.0110  0.4640 -0.0902
81303SOL    HW161519   6.010   9.702   2.174  0.0295  0.1038 -0.5906
81303SOL    HW261520   6.102   9.584   2.191  0.0363  0.3696  1.5129
81304SOL     OW61521  13.575   6.103  11.578  0.3710  0.6124  0.0551
81304SOL    HW161522  13.614   6.017  11.594  1.9590  1.3571  0.3584
81304SOL    HW261523  13.579   6.147  11.663 -3.4332 -0.0912  0.7839
81305SOL     OW61524  13.505  10.219  13.382  0.0239  0.3174  0.4365
81305SOL    HW161525  13.438  10.283  13.406 -0.3411  0.1618 -0.1460
81305SOL    HW261526  13.534  10.246  13.295  0.4568  0.1635  0.5296
81306SOL     OW61527   7.854   4.737  11.203  0.5106 -0.1313  0.1498
81306SOL    HW161528   7.860   4.695  11.117  1.9704 -0.3876  0.3426
81306SOL    HW261529   7.761   4.753  11.216  0.2186 -0.5728 -1.2475
81307SOL     OW61530   0.690  12.542  10.382  0.3077  0.2080 -0.2638
81307SOL    HW161531   0.782  12.560  10.362  0.5470 -0.4741  0.1966
81307SOL    HW261532   0.641  12.596  10.319  1.0204  0.2244 -0.8186
81308SOL     OW61533   9.973  10.113   9.193  0.0558  0.4101 -0.0919
81308SOL    HW161534   9.879  10.116   9.179  0.0619 -0.0086 -0.2407
81308SOL    HW261535  10.008  10.187   9.144 -0.1328  0.1965 -0.5463
81309SOL     OW61536  11.817  13.511   5.094 -0.1953 -0.2687 -0.2366
81309SOL    HW161537  11.773  13.437   5.135  1.0397 -0.3406  1.0068
81309SOL    HW261538  11.747  13.556   5.046 -1.0127 -2.0921 -0.8619
81310SOL     OW61539   0.580   2.601  10.457 -0.2364 -0.1212  0.0694
81310SOL    HW161540   0.602   2.508  10.449  0.0917  0.0889 -1.8710
81310SOL    HW261541   0.546   2.626  10.371 -3.2955  0.8543  1.4217
81311SOL     OW61542   1.496  11.603  13.037  0.4314  0.3361  0.0080
81311SOL    HW161543   1.506  11.510  13.019 -1.4124 -0.0714  0.8598
81311SOL    HW261544   1.408  11.625  13.005  0.4166  1.5192  0.7849
81312SOL     OW61545   9.358   9.147   0.625  0.0293  0.6860  0.7033
81312SOL    HW161546   9.296   9.219   0.615  0.1875  0.9626  1.6148
81312SOL    HW261547   9.329   9.101   0.704  0.3189  0.1484  0.5005
81313SOL     OW61548   2.002   6.418   4.175 -0.0703  0.5839 -0.0299
81313SOL    HW161549   1.911   6.418   4.147 -0.5648 -1.4378  1.3290
81313SOL    HW261550   2.025   6.325   4.182  2.1744  1.0312 -0.5340
81314SOL     OW61551  13.626   1.182  12.669  0.2594 -0.0735 -0.0489
81314SOL    HW161552  13.680   1.233  12.608  1.0125  0.4378  1.0234
81314SOL    HW261553  13.574   1.125  12.612 -0.9950  2.1852 -1.3356
81315SOL     OW61554   4.389   1.592   1.466  0.5976  0.7025  0.1678
81315SOL    HW161555   4.333   1.524   1.431  1.7417 -0.4640  0.5374
81315SOL    HW261556   4.463   1.597   1.406  0.5794  1.5634  0.1928
81316SOL     OW61557   0.935  10.651   5.964 -0.2548  0.3493 -0.5589
81316SOL    HW161558   1.012  10.630   6.016 -0.2517  1.5640 -0.0296
81316SOL    HW261559   0.886  10.569   5.958 -0.4379  0.2299  1.6656
81317SOL     OW61560   9.156  13.308   2.153  0.7393  0.5011  0.2350
81317SOL    HW161561   9.150  13.282   2.245 -2.0409  0.4519  0.1059
81317SOL    HW261562   9.179  13.401   2.156 -1.6225  1.1266  1.1236
81318SOL     OW61563   4.447   2.947   6.784  0.2280 -0.0571 -0.4733
81318SOL    HW161564   4.445   3.042   6.768  0.3518  0.0929  0.3835
81318SOL    HW261565   4.488   2.911   6.705 -0.1941  0.5595 -0.9839
81319SOL     OW61566   9.421   1.649   6.540 -0.5340 -0.3732 -0.1265
81319SOL    HW161567   9.334   1.678   6.568 -0.2175 -0.1493  0.6366
81319SOL    HW261568   9.410   1.556   6.522 -0.4942 -0.8078  1.8874
81320SOL     OW61569   0.571   8.112  10.340  0.2180  0.0216  0.1766
81320SOL    HW161570   0.536   8.116  10.429  1.1288  0.9105  0.5107
81320SOL    HW261571   0.666   8.118  10.351  0.5807 -2.9583 -0.6837
81321SOL     OW61572   0.312   5.175   5.811  0.3484 -0.0871  0.0535
81321SOL    HW161573   0.304   5.267   5.837  1.0642 -0.0732  0.2246
81321SOL    HW261574   0.231   5.135   5.843 -0.3770  0.6610 -0.8004
81322SOL     OW61575   0.731  13.132   0.872  0.4345 -0.2319  0.0277
81322SOL    HW161576   0.726  13.097   0.961  0.5309 -1.3544 -0.3843
81322SOL    HW261577   0.822  13.121   0.847  0.4466  0.2468 -0.1438
81323SOL     OW61578   3.125   4.018  10.290  0.4330  0.3046 -0.0094
81323SOL    HW161579   3.075   3.999  10.211 -0.6652 -0.1437  0.7794
81323SOL    HW261580   3.196   3.954  10.289 -0.0616 -0.2445 -0.1973
81324SOL     OW61581  11.733   2.775   9.048  0.1605  0.1077  0.0613
81324SOL    HW161582  11.676   2.850   9.064 -0.0201  0.0302 -0.2143
81324SOL    HW261583  11.711   2.746   8.960  0.5407  0.0003  0.0023
81325SOL     OW61584   4.934   4.054   0.500  0.2035  0.1367  0.1449
81325SOL    HW161585   4.922   3.974   0.450 -1.9570  1.2606 -1.2983
81325SOL    HW261586   4.848   4.071   0.538  0.6988  1.6162  0.6768
81326SOL     OW61587   3.567   7.184   7.939 -0.4083  0.0219  0.4699
81326SOL    HW161588   3.541   7.248   8.005  0.3545  1.9003 -0.9596
81326SOL    HW261589   3.487   7.135   7.919 -1.5229  1.8952  0.1693
81327SOL     OW61590  13.111   8.901  11.560 -0.4385  0.0128 -0.3703
81327SOL    HW161591  13.092   8.954  11.636 -0.0150  0.1500 -0.3553
81327SOL    HW261592  13.030   8.901  11.508 -0.7133 -0.0553  0.0596
81328SOL     OW61593   3.965   1.246  14.062 -0.0200  0.2584  0.0884
81328SOL    HW161594   4.034   1.284  14.008  1.1405  0.0386  1.3622
81328SOL    HW261595   4.009   1.223  14.144 -1.7299  0.6529  1.1581
81329SOL     OW61596  11.390   7.305  13.707 -0.2975  0.0569  0.3823
81329SOL    HW161597  11.419   7.324  13.618 -0.6879 -0.6415  0.0941
81329SOL    HW261598  11.415   7.213  13.721 -0.7322 -0.0041  0.7815
81330SOL     OW61599   5.654  10.476   7.990 -0.3654  0.3737  0.7793
81330SOL    HW161600   5.590  10.538   8.025  0.8921  1.3119  1.5669
81330SOL    HW261601   5.603  10.400   7.963 -2.0926  2.0972 -1.1023
81331SOL     OW61602   1.439   0.060   9.143 -0.2764  0.5850 -0.6833
81331SOL    HW161603   1.533   0.075   9.133 -0.4859  1.6183 -1.1120
81331SOL    HW261604   1.414   0.011   9.065 -0.1231  0.4136 -0.6267
81332SOL     OW61605   0.924   7.731   0.432 -0.3953  0.2337 -0.3439
81332SOL    HW161606   0.962   7.737   0.344  2.1899 -0.3986  0.6260
81332SOL    HW261607   0.928   7.821   0.465 -0.1434  0.2510 -0.4179
81333SOL     OW61608   6.719   2.739   4.198 -0.3765  0.2849  0.3905
81333SOL    HW161609   6.628   2.745   4.225 -1.2731  0.2825 -2.3304
81333SOL    HW261610   6.723   2.661   4.142  1.6162 -0.4444  1.4346
81334SOL     OW61611  12.301   8.925   3.420 -0.2208  0.6211  0.2021
81334SOL    HW161612  12.232   8.878   3.373 -0.7704  2.0925 -0.5456
81334SOL    HW261613  12.379   8.913   3.365 -0.5861  1.3432 -0.5106
81335SOL     OW61614   8.937   8.644   5.685  0.2708 -0.2258 -0.2207
81335SOL    HW161615   8.906   8.623   5.597  0.6802 -0.2074 -0.3715
81335SOL    HW261616   8.949   8.739   5.685 -1.6240  0.0745  0.4773
81336SOL     OW61617   3.914   3.226   2.566  0.0758 -0.1983  0.0987
81336SOL    HW161618   3.909   3.276   2.648 -0.9085 -0.6358  0.3152
81336SOL    HW261619   3.889   3.137   2.590  0.4111 -0.4835 -0.5678
81337SOL     OW61620  12.531   3.393  11.641  0.1165 -0.0668  0.0261
81337SOL    HW161621  12.620   3.373  11.669 -0.0009  0.8982  1.1452
81337SOL    HW261622  12.477   3.376  11.717 -0.9030 -2.1316 -1.0943
81338SOL     OW61623  10.104   3.767   4.538  0.1188 -0.7314  0.2060
81338SOL    HW161624  10.156   3.848   4.536 -0.4760 -0.2994  1.3991
81338SOL    HW261625  10.092   3.748   4.631 -4.2481  0.7817  0.1993
81339SOL     OW61626   5.219  10.104   0.855  0.5117  0.0409  0.0101
81339SOL    HW161627   5.287  10.040   0.835  0.3317 -0.3252  0.5224
81339SOL    HW261628   5.252  10.149   0.933  0.4516  0.2860 -0.1087
81340SOL     OW61629   4.310   0.972   3.774 -0.4474 -0.1087 -0.2199
81340SOL    HW161630   4.216   0.968   3.755 -0.2594 -1.1494 -1.0206
81340SOL    HW261631   4.315   0.969   3.869 -1.2096 -0.7673 -0.1914
81341SOL     OW61632   9.565  11.689   9.204 -0.1645 -0.3232  0.3036
81341SOL    HW161633   9.565  11.722   9.294 -0.3504 -0.4328  0.3428
81341SOL    HW261634   9.481  11.646   9.194 -1.3032  1.9816 -0.7518
81342SOL     OW61635  13.853   1.321   7.251  0.1460 -0.1316  0.1531
81342SOL    HW161636  13.849   1.317   7.156  0.3401  2.0823  0.0087
81342SOL    HW261637  13.795   1.251   7.280 -0.6678 -0.2374 -1.6012
81343SOL     OW61638   2.575   3.015   9.617 -0.2163  0.3333 -0.8532
81343SOL    HW161639   2.606   2.973   9.698  1.1377  1.5181 -0.7193
81343SOL    HW261640   2.576   3.108   9.637 -0.5904  0.5972 -2.0056
81344SOL     OW61641  10.214   5.276  10.149  0.1406  0.0203 -0.7216
81344SOL    HW161642  10.133   5.225  10.149  0.3522 -0.3354  0.1847
81344SOL    HW261643  10.240   5.280  10.241 -0.1995  2.3062 -0.6683
81345SOL     OW61644   3.469   6.025   0.097  0.1161  0.7043 -0.1982
81345SOL    HW161645   3.472   6.119   0.116  0.4692  0.5542  0.5161
81345SOL    HW261646   3.400   6.016   0.031  1.0445  1.6380 -1.3320
81346SOL     OW61647  10.926  13.561   4.325  0.3927 -0.2029  0.0083
81346SOL    HW161648  10.846  13.544   4.276  0.6960  0.6313 -0.8071
81346SOL    HW261649  10.996  13.558   4.259  0.6529  2.4235  0.0717
81347SOL     OW61650   9.193   2.236   2.729 -0.0961  0.6819  0.8677
81347SOL    HW161651   9.214   2.313   2.782 -2.0645  2.2833 -0.5689
81347SOL    HW261652   9.191   2.268   2.639 -1.4009 -0.9413  0.2720
81348SOL     OW61653  12.029  13.451   4.200  0.0142 -0.2576  0.1577
81348SOL    HW161654  12.117  13.490   4.199 -0.1564  0.1392 -1.1151
81348SOL    HW261655  12.038  13.370   4.151 -0.8424  1.0730 -2.3876
81349SOL     OW61656   2.574  13.219   1.408  0.0989 -0.4464  0.3603
81349SOL    HW161657   2.533  13.201   1.493 -0.2827  1.2336  0.5659
81349SOL    HW261658   2.651  13.271   1.429  0.4461 -0.6894 -0.2765
81350SOL     OW61659   0.938   7.029   7.493  0.2238 -0.3297  0.1165
81350SOL    HW161660   0.880   7.099   7.463  1.8393  1.3219  0.7355
81350SOL    HW261661   0.920   7.021   7.587 -1.2371 -2.0553 -0.2451
81351SOL     OW61662  13.192   5.713  10.670 -0.1682 -0.2815  0.0075
81351SOL    HW161663  13.246   5.666  10.606 -0.3520 -0.0285 -0.3320
81351SOL    HW261664  13.237   5.796  10.683 -0.2712 -0.2263  0.0124
81352SOL     OW61665   1.482   7.047  10.294 -0.0824 -0.1120 -0.3707
81352SOL    HW161666   1.435   7.089  10.366  1.1825  1.7386 -0.5516
81352SOL    HW261667   1.456   6.955  10.298 -1.8924  0.4107  0.9313
81353SOL     OW61668  12.735   3.877  10.463  0.4510  0.3925  0.1192
81353SOL    HW161669  12.654   3.920  10.488 -0.1187 -1.3536  1.5452
81353SOL    HW261670  12.769   3.928  10.390 -1.5310  1.6116 -0.0033
81354SOL     OW61671   1.062  13.652   1.953  0.1185 -0.0479 -0.2648
81354SOL    HW161672   1.119  13.579   1.931  0.4077  0.2434 -0.5011
81354SOL    HW261673   1.089  13.677   2.042 -1.4742 -1.6233  0.7100
81355SOL     OW61674  10.253  11.164   2.837 -0.1865 -0.0611  0.4167
81355SOL    HW161675  10.272  11.250   2.876 -0.6477  0.0530  0.4008
81355SOL    HW261676  10.272  11.101   2.906 -0.7262  0.1199  0.7392
81356SOL     OW61677   0.158   6.936  13.036  0.1391 -0.3786 -0.7399
81356SOL    HW161678   0.195   6.912  12.951  1.0666  1.2912 -0.8490
81356SOL    HW261679   0.101   6.862  13.059 -0.4811 -0.6911 -3.0027
81357SOL     OW61680   2.800  13.333  12.309 -0.7214 -0.8130 -0.0469
81357SOL    HW161681   2.778  13.276  12.382 -1.9330  1.6774  1.6963
81357SOL    HW261682   2.895  13.334  12.307 -0.6019  0.1507  2.5174
81358SOL     OW61683  10.846   6.999  11.315 -0.6722  0.1967  0.3398
81358SOL    HW161684  10.924   7.040  11.351 -0.0605 -1.0781  0.5377
81358SOL    HW261685  10.808   7.065  11.257 -0.0229  1.1981  1.0291
81359SOL     OW61686   1.151   0.177   1.539  0.0091 -0.2486  0.6152
81359SOL    HW161687   1.212   0.242   1.504 -0.3511 -0.7235 -0.9858
81359SOL    HW261688   1.065   0.204   1.507 -0.2776 -0.9928  0.7305
81360SOL     OW61689   6.053  14.066   3.452 -0.1890 -0.4830  0.0898
81360SOL    HW161690   5.972  14.027   3.483 -0.7260 -0.0710 -0.7719
81360SOL    HW261691   6.051  14.055   3.357  0.0306  0.8778 -0.0959
81361SOL     OW61692   6.597   8.794   5.686 -0.0146  0.3520  0.3169
81361SOL    HW161693   6.610   8.888   5.699 -0.8008  0.7952 -1.6785
81361SOL    HW261694   6.608   8.781   5.592  0.1381 -1.5786  0.5548
81362SOL     OW61695   1.242   6.398  12.224 -0.5365  0.3538 -0.5750
81362SOL    HW161696   1.255   6.304  12.233  1.3116  0.6689  0.9076
81362SOL    HW261697   1.209   6.426  12.310 -1.1150  1.0638 -1.0125
81363SOL     OW61698   9.335   6.071   3.045  0.0706 -0.0409 -0.0248
81363SOL    HW161699   9.248   6.099   3.017 -0.1901 -0.9054 -0.1036
81363SOL    HW261700   9.381   6.152   3.065 -0.9929  0.3947  0.7373
81364SOL     OW61701   0.789   1.170   9.915 -0.5071 -0.1292  0.0936
81364SOL    HW161702   0.855   1.148   9.981  1.1431  4.0102  0.1294
81364SOL    HW261703   0.839   1.184   9.835 -1.7846  0.0604 -0.6940
81365SOL     OW61704   1.841  13.646   2.353 -0.2143 -0.4205 -0.1755
81365SOL    HW161705   1.767  13.588   2.369 -0.4891 -0.3444 -1.1048
81365SOL    HW261706   1.805  13.716   2.298  0.4472 -0.1448 -0.2693
81366SOL     OW61707   7.283   1.462  10.483 -0.4010  0.0216 -0.0666
81366SOL    HW161708   7.329   1.466  10.567  0.3349  0.5880 -0.4872
81366SOL    HW261709   7.202   1.511  10.498  0.6433  1.9152 -0.2283
81367SOL     OW61710  12.160  12.562   6.048 -0.1622 -0.3953  0.6448
81367SOL    HW161711  12.134  12.479   6.087 -0.3172  0.2522  1.9944
81367SOL    HW261712  12.250  12.548   6.019 -1.0828 -1.8577 -1.6937
81368SOL     OW61713  10.656  10.974   7.768 -0.2849 -0.6467  0.2116
81368SOL    HW161714  10.659  10.961   7.863 -0.7211 -1.7970  0.0864
81368SOL    HW261715  10.588  10.913   7.738  0.5695 -1.0503 -0.9506
81369SOL     OW61716   1.948   9.484   3.724 -0.0217 -0.0064 -0.0001
81369SOL    HW161717   1.979   9.433   3.800 -1.0314  0.4777  0.7648
81369SOL    HW261718   1.862   9.516   3.751  0.6456  2.2434 -0.4021
81370SOL     OW61719   4.715   9.188   5.421  0.3902  0.1979  0.1587
81370SOL    HW161720   4.704   9.138   5.502 -0.2929  1.1677  0.6836
81370SOL    HW261721   4.810   9.198   5.412  0.4674  0.1667  0.8957
81371SOL     OW61722   6.875   4.885  13.899 -0.4219 -0.1457  0.2096
81371SOL    HW161723   6.785   4.874  13.870  0.3461 -2.7946 -1.5840
81371SOL    HW261724   6.924   4.902  13.818  0.8025  0.4177  1.0375
81372SOL     OW61725   3.539   3.292  11.321 -1.0910 -0.9174 -1.1540
81372SOL    HW161726   3.521   3.386  11.321 -3.3390 -1.2777  0.4075
81372SOL    HW261727   3.634   3.286  11.307 -0.6286  1.6443  0.2436
81373SOL     OW61728   2.020   1.281   3.925  0.2754 -0.2026 -0.2741
81373SOL    HW161729   2.010   1.322   3.839 -0.2429  0.0522 -0.1009
81373SOL    HW261730   1.930   1.272   3.958  0.5140  0.6098  0.6553
81374SOL     OW61731   2.164   1.587   3.902  0.3808 -0.0183  0.6736
81374SOL    HW161732   2.194   1.626   3.820  0.1793  1.2889  1.1896
81374SOL    HW261733   2.187   1.495   3.895 -1.4903 -0.4199 -1.7422
81375SOL     OW61734   1.410  10.749   3.507  0.5567  0.4607  1.2249
81375SOL    HW161735   1.323  10.736   3.544  0.2774 -0.3927  0.3357
81375SOL    HW261736   1.397  10.740   3.412  1.0254  3.7785  0.7273
81376SOL     OW61737   3.923  13.934   1.573  0.0800  0.1813 -0.1567
81376SOL    HW161738   3.831  13.909   1.564  0.8246 -2.5070 -1.1518
81376SOL    HW261739   3.956  13.879   1.643  0.6885  2.0750  1.1179
81377SOL     OW61740   2.533   2.773   6.956  0.2138 -0.1828  0.0688
81377SOL    HW161741   2.587   2.749   7.031 -0.0160 -0.4821  0.1460
81377SOL    HW261742   2.521   2.867   6.963 -0.8821 -0.3774  1.1569
81378SOL     OW61743   1.493   2.745   0.240  0.0768 -0.5000  0.3881
81378SOL    HW161744   1.523   2.670   0.187 -2.0880 -0.1708 -1.4534
81378SOL    HW261745   1.415   2.713   0.285  0.4167  0.0278  1.3843
81379SOL     OW61746   5.719   1.136   2.373 -0.1689  0.2304  0.0630
81379SOL    HW161747   5.649   1.072   2.361  0.8734 -1.5835  2.9786
81379SOL    HW261748   5.689   1.192   2.445  0.4059  0.9094 -0.2070
81380SOL     OW61749   7.465   3.937   5.490  0.1963  0.0624  0.3988
81380SOL    HW161750   7.441   3.951   5.399  1.0149  3.1256  0.5426
81380SOL    HW261751   7.463   3.842   5.501  0.2681 -0.4231 -2.8378
81381SOL     OW61752  12.946   7.758   8.863  0.9741 -0.2602  0.5591
81381SOL    HW161753  13.032   7.715   8.868  0.1160 -2.0191  1.3997
81381SOL    HW261754  12.908   7.725   8.782  0.3837 -0.9637  1.1114
81382SOL     OW61755  10.264   3.600   7.516  0.0681 -0.3387  0.0531
81382SOL    HW161756  10.243   3.586   7.609  1.4750 -1.0818  0.2944
81382SOL    HW261757  10.337   3.541   7.500  1.1704  1.2441 -0.9991
81383SOL     OW61758   8.858   1.563  10.741  0.0301 -0.3522  0.2283
81383SOL    HW161759   8.872   1.495  10.674  1.2914 -0.7665  0.8827
81383SOL    HW261760   8.767   1.552  10.767 -1.2325  1.2736 -2.9692
81384SOL     OW61761   7.392   5.271   4.705 -0.6138  0.4184  0.5126
81384SOL    HW161762   7.346   5.350   4.676 -1.0460 -0.0086  0.0314
81384SOL    HW261763   7.364   5.203   4.644  1.0893  0.2697 -0.1666
81385SOL     OW61764   0.553  13.552   0.887 -0.5386 -0.0307 -0.2482
81385SOL    HW161765   0.551  13.534   0.981  1.3484  0.4444 -0.0735
81385SOL    HW261766   0.553  13.466   0.846 -0.1119 -0.2666  0.2428
81386SOL     OW61767   6.321   1.495  12.140 -0.4944  0.3145  0.6171
81386SOL    HW161768   6.236   1.451  12.141 -0.8067  0.6703 -2.1925
81386SOL    HW261769   6.300   1.587  12.128  0.2642  0.4003 -0.1388
81387SOL     OW61770   7.294   6.033   8.264 -0.3740  0.1629  0.0885
81387SOL    HW161771   7.224   6.079   8.311 -0.5474  0.4456 -0.4353
81387SOL    HW261772   7.249   5.987   8.193 -0.0639  0.0930 -0.0638
81388SOL     OW61773  13.892   1.948   8.348  0.2999 -0.4147  0.4784
81388SOL    HW161774  13.972   1.923   8.301  1.2907  0.6287  1.5395
81388SOL    HW261775  13.895   2.044   8.349 -0.4542 -0.3940  1.3829
81389SOL     OW61776  13.102   6.791  12.359  0.0494  0.2913 -0.1443
81389SOL    HW161777  13.184   6.789  12.408 -0.5134  0.1850  0.8204
81389SOL    HW261778  13.074   6.883  12.364 -0.5930  0.0680  0.7700
81390SOL     OW61779  13.011   8.445   9.294  0.0898  0.4837  0.0851
81390SOL    HW161780  12.985   8.486   9.376 -2.1376 -1.3999  0.4138
81390SOL    HW261781  12.929   8.415   9.255  1.3515 -1.3047 -1.3728
81391SOL     OW61782   4.587   8.921   6.962  0.2344  0.3085  0.4660
81391SOL    HW161783   4.626   8.985   6.902  2.6173 -0.8770  0.6593
81391SOL    HW261784   4.573   8.970   7.043  1.0525  0.8438  0.2922
81392SOL     OW61785  13.816   1.933   4.678 -0.1023  0.5033 -0.0950
81392SOL    HW161786  13.750   1.956   4.743  1.2681  0.3415  1.4316
81392SOL    HW261787  13.870   2.012   4.670  0.4580  0.1297 -0.1056
81393SOL     OW61788   3.464   2.533   9.394  0.0790 -0.2449  0.0166
81393SOL    HW161789   3.426   2.445   9.405  0.3107 -0.3843 -0.2746
81393SOL    HW261790   3.395   2.592   9.421  0.6472 -0.5550  2.3260
81394SOL     OW61791   1.864   7.080   9.431  0.0337  0.0765  0.3964
81394SOL    HW161792   1.797   7.139   9.465  0.3145  0.7227 -0.1452
81394SOL    HW261793   1.826   6.993   9.439 -0.9438  0.4423 -0.0528
81395SOL     OW61794  11.994  11.507   2.256  0.1163  0.1555 -0.3568
81395SOL    HW161795  12.037  11.580   2.212 -0.4955  1.7036  1.4606
81395SOL    HW261796  11.903  11.511   2.225  0.3278 -0.5703 -1.1068
81396SOL     OW61797   0.610   0.834   2.918  0.0642  0.2918  0.2478
81396SOL    HW161798   0.694   0.800   2.885  0.0062 -0.2737  0.6657
81396SOL    HW261799   0.580   0.767   2.979 -0.5595  0.6282  0.3130
81397SOL     OW61800   8.654  11.418   3.842  0.0839 -0.0899 -0.1395
81397SOL    HW161801   8.666  11.415   3.937 -0.9333 -2.0732 -0.0198
81397SOL    HW261802   8.573  11.468   3.830 -0.6552 -1.1461  0.1958
81398SOL     OW61803   0.882   5.372   7.941 -0.0242 -0.6550 -0.5739
81398SOL    HW161804   0.814   5.435   7.964 -0.7510 -1.5863 -0.0932
81398SOL    HW261805   0.933   5.360   8.022  1.3099  0.7171 -1.1680
81399SOL     OW61806   0.754  11.736   3.717  0.0756 -0.2294 -0.1097
81399SOL    HW161807   0.819  11.709   3.652 -0.4447 -0.4749 -0.5386
81399SOL    HW261808   0.758  11.832   3.716 -1.0142 -0.1643 -1.6580
81400SOL     OW61809   8.189   2.127   5.590  0.0408  0.1347 -0.1254
81400SOL    HW161810   8.237   2.105   5.511 -1.7812 -0.4497 -1.1235
81400SOL    HW261811   8.135   2.202   5.565  0.1934  0.5991  0.8746
81401SOL     OW61812   0.171   8.846   3.545  0.4329  0.2804  0.1433
81401SOL    HW161813   0.160   8.892   3.629  1.7756  1.5758 -0.3464
81401SOL    HW261814   0.151   8.912   3.479  0.7502 -0.3284 -0.5701
81402SOL     OW61815   7.206   9.766   6.431  0.0516  0.3646  0.1478
81402SOL    HW161816   7.234   9.676   6.441 -1.0185  0.2045  2.1075
81402SOL    HW261817   7.125   9.761   6.379  0.3247  0.2710 -0.2732
81403SOL     OW61818   3.667   1.846   5.196  0.2083 -0.5190  0.1267
81403SOL    HW161819   3.635   1.835   5.107 -1.7849  2.2727  0.4034
81403SOL    HW261820   3.612   1.788   5.249  1.6772 -2.5122 -0.3983
81404SOL     OW61821   7.662   5.961   3.697 -0.2906  0.3896 -0.0136
81404SOL    HW161822   7.670   6.055   3.688  0.2268  0.4071  0.5638
81404SOL    HW261823   7.621   5.932   3.616 -0.0660  1.0565 -0.3672
81405SOL     OW61824   2.373  13.013  13.429  0.1991  0.0909 -0.0681
81405SOL    HW161825   2.304  13.010  13.495  0.5524 -1.1375  0.2632
81405SOL    HW261826   2.415  13.098  13.443 -1.0400  0.7355 -0.0910
81406SOL     OW61827   5.272   2.731   6.210  0.2727 -0.1543  0.5580
81406SOL    HW161828   5.268   2.671   6.135  1.8030 -1.3485  1.3812
81406SOL    HW261829   5.191   2.716   6.257 -0.3970  0.1129 -0.4761
81407SOL     OW61830  13.859  12.932  11.713 -0.0474  0.6645 -0.2979
81407SOL    HW161831  13.942  12.919  11.759 -0.3528 -0.4568 -0.0373
81407SOL    HW261832  13.883  12.976  11.632  1.2396 -2.3196 -1.6637
81408SOL     OW61833   5.157  11.293   2.491  0.0427 -0.2453  0.3209
81408SOL    HW161834   5.107  11.333   2.562  0.4756  0.3334  0.3035
81408SOL    HW261835   5.237  11.261   2.532 -0.0533 -0.5994  0.2334
81409SOL     OW61836   1.862  13.244   2.532  0.2378  0.5433 -0.3425
81409SOL    HW161837   1.782  13.288   2.502 -0.4946  0.0533  0.8425
81409SOL    HW261838   1.878  13.279   2.619  1.9844  1.4743 -0.9877
81410SOL     OW61839   7.399   7.235  12.934 -0.3594 -0.5016 -0.5015
81410SOL    HW161840   7.409   7.325  12.903  3.2016 -0.4832  0.2281
81410SOL    HW261841   7.424   7.181  12.860 -0.0814 -0.7714 -0.2162
81411SOL     OW61842  10.274   3.791  13.588 -0.5729  0.2477 -0.4157
81411SOL    HW161843  10.323   3.785  13.506  1.1896 -0.0355  0.5982
81411SOL    HW261844  10.273   3.702  13.622  0.1180  0.6187  0.6222
81412SOL     OW61845  10.998   3.281   8.794 -0.0056  0.3608 -0.0107
81412SOL    HW161846  10.905   3.262   8.782 -0.3781  1.7463  0.5121
81412SOL    HW261847  11.003   3.329   8.877  1.1786  0.3039 -0.0232
81413SOL     OW61848   5.970   3.494  12.758 -0.4348  0.0450 -0.4533
81413SOL    HW161849   5.962   3.412  12.806  0.8541 -1.1626 -2.1980
81413SOL    HW261850   6.012   3.554  12.820 -1.1243 -0.6692  0.7468
81414SOL     OW61851  11.576   0.485   1.096  0.0166  0.3058  0.3101
81414SOL    HW161852  11.627   0.527   1.165 -0.0147 -0.7723  1.0149
81414SOL    HW261853  11.585   0.543   1.021 -0.7108  1.9993  1.4593
81415SOL     OW61854   3.044   2.052   9.689  0.3913  0.2503 -0.0682
81415SOL    HW161855   3.069   1.961   9.674  0.5304  0.4324 -1.0076
81415SOL    HW261856   2.948   2.051   9.688  0.3869  0.3055 -1.4360
81416SOL     OW61857  13.893   2.375  13.554  0.3379  0.6489 -0.0586
81416SOL    HW161858  13.905   2.351  13.462  1.2177  1.0384 -0.0579
81416SOL    HW261859  13.979   2.361  13.594 -0.0756  0.3260  0.7466
81417SOL     OW61860   8.974   4.685   0.829 -0.0026 -0.0257 -0.3299
81417SOL    HW161861   8.924   4.626   0.773  0.0777  0.1535 -0.5939
81417SOL    HW261862   8.924   4.767   0.827  0.0338 -0.0007 -0.1900
81418SOL     OW61863   1.226   3.673  10.198 -0.2415 -0.6241 -0.2599
81418SOL    HW161864   1.254   3.603  10.139 -0.8329  0.3872 -1.7711
81418SOL    HW261865   1.258   3.645  10.284  1.9263 -1.4341 -1.2621
81419SOL     OW61866  10.483  12.076  10.163  0.0323 -0.6735 -0.2155
81419SOL    HW161867  10.459  11.984  10.174  0.9024 -0.9008 -0.1199
81419SOL    HW261868  10.477  12.091  10.069 -0.2294 -0.7954 -0.2192
81420SOL     OW61869   2.854  11.366  10.950 -0.5031  0.3002 -0.2656
81420SOL    HW161870   2.821  11.456  10.952 -0.1621  0.4201  0.1261
81420SOL    HW261871   2.919  11.366  10.879 -0.6988  0.2932 -0.4451
81421SOL     OW61872  11.144   0.527   6.439  0.1545  0.2799 -0.1074
81421SOL    HW161873  11.093   0.490   6.512 -0.1357 -0.0415 -0.4627
81421SOL    HW261874  11.194   0.452   6.406  0.6122  0.5240  0.0322
81422SOL     OW61875   3.682   5.843   8.114 -0.7215 -0.2102  0.0344
81422SOL    HW161876   3.686   5.756   8.075 -0.0076 -0.7414  1.2253
81422SOL    HW261877   3.696   5.828   8.208 -4.1057  0.8053  0.8371
81423SOL     OW61878   8.465   9.690   2.408  0.3883 -0.6161 -0.0921
81423SOL    HW161879   8.501   9.652   2.328 -1.4056  0.7992 -1.6870
81423SOL    HW261880   8.495   9.781   2.407 -1.4964  0.0494 -0.4383
81424SOL     OW61881   2.635   8.338   3.293 -0.4029 -0.6880 -0.0086
81424SOL    HW161882   2.686   8.299   3.365 -1.5783  0.0800  1.2757
81424SOL    HW261883   2.659   8.430   3.294 -1.4515 -0.4134  0.2913
81425SOL     OW61884   0.940  14.088  10.951 -0.1611 -0.0293 -0.2295
81425SOL    HW161885   0.988  14.066  10.872  0.6724 -0.9869  0.5276
81425SOL    HW261886   0.848  14.090  10.923  0.1328 -0.1382 -1.2508
81426SOL     OW61887   9.169  12.633   0.321  0.2125 -0.1820  0.5845
81426SOL    HW161888   9.215  12.717   0.317 -0.5330  0.3606  2.4541
81426SOL    HW261889   9.131  12.623   0.234  2.1416  0.3218 -0.3751
81427SOL     OW61890   2.921  10.629   6.439 -0.3960  0.1770  0.1344
81427SOL    HW161891   2.941  10.681   6.361 -0.8562 -1.8801 -1.4080
81427SOL    HW261892   2.935  10.538   6.413 -2.2295 -0.7073  1.9343
81428SOL     OW61893   5.116  10.062   9.159  0.2082 -0.1320 -0.0847
81428SOL    HW161894   5.120  10.108   9.075 -0.7141 -0.2970 -0.2329
81428SOL    HW261895   5.053   9.991   9.145 -2.3106  1.5894  1.5449
81429SOL     OW61896  10.893   0.397   0.699  0.0117 -0.1247 -0.4557
81429SOL    HW161897  10.886   0.336   0.773  0.1410  0.2501 -0.1312
81429SOL    HW261898  10.936   0.346   0.630 -0.9741 -0.7761 -0.6073
81430SOL     OW61899  12.015   3.030  10.798  0.3624  0.0119  0.4941
81430SOL    HW161900  11.990   2.961  10.859 -0.2624 -0.5949 -0.4218
81430SOL    HW261901  12.111   3.024  10.792  0.2705 -1.1687 -0.0103
81431SOL     OW61902   3.251   9.292   2.883 -0.0884  0.0145 -0.2007
81431SOL    HW161903   3.290   9.229   2.943  0.8143  0.5585 -0.2003
81431SOL    HW261904   3.160   9.263   2.874  0.5249 -1.8569 -0.9520
81432SOL     OW61905   4.110  13.020   6.163 -0.6343  0.5149  0.4010
81432SOL    HW161906   4.097  13.114   6.166  0.8508  0.7146  1.2444
81432SOL    HW261907   4.162  13.005   6.084  0.8417  0.6514  1.3227
81433SOL     OW61908  11.370   4.584  13.615  0.3515  0.4179  0.0966
81433SOL    HW161909  11.400   4.655  13.671 -0.0005  0.6115  0.0470
81433SOL    HW261910  11.276   4.599  13.606  0.3969  0.3549 -0.4990
81434SOL     OW61911  13.701   6.072   1.405  0.1121 -0.8810 -0.0532
81434SOL    HW161912  13.709   6.091   1.311  1.1334 -0.1234  0.1663
81434SOL    HW261913  13.638   6.000   1.409 -0.9164 -0.0916 -1.2199
81435SOL     OW61914   2.662   6.442   2.809 -0.0979  0.3193  0.0015
81435SOL    HW161915   2.667   6.469   2.901  4.1720  1.1341 -0.2807
81435SOL    HW261916   2.694   6.352   2.809  0.7368  0.5990 -0.7130
81436SOL     OW61917   6.182   5.443   2.720  0.2460  0.1937  0.1035
81436SOL    HW161918   6.202   5.527   2.760 -1.6719  0.9586 -0.4297
81436SOL    HW261919   6.159   5.464   2.630 -0.3336 -0.8905 -0.0233
81437SOL     OW61920   0.270   2.270   7.980  0.1090  0.1204 -0.8012
81437SOL    HW161921   0.258   2.331   7.908  1.0842  0.7111 -0.4916
81437SOL    HW261922   0.234   2.187   7.948 -1.3827  0.8807 -1.1663
81438SOL     OW61923   8.195  14.092   9.844  0.1250  0.7511  0.0200
81438SOL    HW161924   8.196  14.002   9.876  2.8313  0.0495 -1.6675
81438SOL    HW261925   8.235  14.144   9.914  1.2703  0.1087 -0.1394
81439SOL     OW61926  10.227  11.272  11.790  0.5555  0.1565 -0.3761
81439SOL    HW161927  10.228  11.261  11.885 -1.1894  1.6974 -0.1243
81439SOL    HW261928  10.273  11.195  11.756 -0.7095 -1.5781  1.6024
81440SOL     OW61929   3.692   0.068  12.497  0.4790  0.3566  0.4674
81440SOL    HW161930   3.692   0.135  12.428  0.4091  0.9184  0.9994
81440SOL    HW261931   3.776   0.078  12.540  1.7370 -1.8738 -1.2751
81441SOL     OW61932   2.479   3.277   6.299  0.1304  0.0189 -0.0857
81441SOL    HW161933   2.485   3.313   6.388 -0.3121  0.3804 -0.2012
81441SOL    HW261934   2.385   3.278   6.279  0.2342 -0.0154 -0.5793
81442SOL     OW61935   4.466   9.927  13.034 -0.1619 -0.2818  0.1280
81442SOL    HW161936   4.378   9.890  13.037  0.1658 -1.0585  2.7680
81442SOL    HW261937   4.510   9.880  12.962 -1.5244 -0.7383 -0.4356
81443SOL     OW61938  11.868   5.292  12.288  0.2172 -0.4429 -0.2028
81443SOL    HW161939  11.911   5.329  12.211  1.0820 -0.5438  0.2235
81443SOL    HW261940  11.900   5.201  12.292 -0.5556 -0.7249 -0.2592
81444SOL     OW61941  12.984   8.093   9.232  0.1115  0.0202  0.3175
81444SOL    HW161942  13.015   8.181   9.251 -1.2648  1.0290 -1.7272
81444SOL    HW261943  12.902   8.086   9.280  0.0306  0.0014  0.1761
81445SOL     OW61944   8.835  13.851   8.775  0.2414 -0.0462  0.6327
81445SOL    HW161945   8.826  13.932   8.724 -0.1226 -0.6715 -0.3270
81445SOL    HW261946   8.774  13.862   8.847  0.7303  0.8399  0.9316
81446SOL     OW61947   4.827   6.256   2.165 -0.6364 -0.0870 -0.3254
81446SOL    HW161948   4.855   6.187   2.105 -2.5362 -0.8293 -0.4287
81446SOL    HW261949   4.756   6.216   2.216  0.2580  0.8241  1.7704
81447SOL     OW61950   4.661   7.992   3.865  0.2906 -0.4474  1.1761
81447SOL    HW161951   4.596   8.045   3.911  0.5362  0.0397  0.9694
81447SOL    HW261952   4.745   8.022   3.898  0.4848  0.1323  0.1948
81448SOL     OW61953   4.114   0.251   7.540  0.1912  0.0887 -0.4002
81448SOL    HW161954   4.067   0.291   7.467  1.5390  2.2605 -0.1747
81448SOL    HW261955   4.118   0.158   7.518 -1.4016  0.3245 -1.9471
81449SOL     OW61956   1.541  13.489  12.141 -0.0755  0.4050 -0.6887
81449SOL    HW161957   1.500  13.404  12.122 -2.6704  1.2246  0.7245
81449SOL    HW261958   1.550  13.531  12.055  0.9636 -1.1331 -1.3741
81450SOL     OW61959   8.754   9.453   6.719  0.3444  0.1712 -0.0479
81450SOL    HW161960   8.775   9.439   6.626  2.9998 -0.0461  0.5210
81450SOL    HW261961   8.836   9.482   6.758 -0.0052 -2.1885  2.7438
81451SOL     OW61962   0.009  10.223   7.267  0.2402 -0.1722 -0.0597
81451SOL    HW161963  -0.066  10.276   7.294  1.2076  0.2846  1.9141
81451SOL    HW261964   0.032  10.256   7.181  0.9327  2.8462  1.1656
81452SOL     OW61965   9.888  11.514  12.477  0.0598 -0.1263 -0.0052
81452SOL    HW161966   9.964  11.550  12.524  1.0987  2.2214 -3.1332
81452SOL    HW261967   9.909  11.422  12.465  1.3029 -0.0351  1.2014
81453SOL     OW61968   3.465   4.976  12.997 -0.0608  0.3906  0.5581
81453SOL    HW161969   3.486   4.940  13.084  0.2457  1.3307  0.8826
81453SOL    HW261970   3.550   5.004  12.962  0.0376 -1.2731 -0.6679
81454SOL     OW61971  10.074   0.459   4.180 -0.4061  0.2421 -0.3416
81454SOL    HW161972  10.120   0.376   4.188 -0.1808  0.3998  0.0068
81454SOL    HW261973  10.083   0.501   4.266 -0.8814  0.4376 -0.3825
81455SOL     OW61974   2.754   4.532   4.568 -0.3611 -0.2392 -0.9453
81455SOL    HW161975   2.782   4.445   4.541 -1.0693 -0.0826 -2.2851
81455SOL    HW261976   2.685   4.517   4.632  0.1438 -0.6442 -0.4888
81456SOL     OW61977  11.610  13.909   9.744 -0.3399  0.2927  0.2139
81456SOL    HW161978  11.593  13.996   9.780 -0.6198  1.2119 -1.9526
81456SOL    HW261979  11.541  13.854   9.779  0.0046  0.8591  1.8415
81457SOL     OW61980   7.479  13.288   1.057 -0.4926 -0.1524 -0.3665
81457SOL    HW161981   7.563  13.332   1.068 -0.3714  0.0667 -1.9223
81457SOL    HW261982   7.484  13.210   1.112  0.0847  0.7069  0.8283
81458SOL     OW61983   5.951   3.332   4.613 -0.2294  0.1741 -0.1341
81458SOL    HW161984   5.917   3.421   4.601  1.5054  1.0428  0.8970
81458SOL    HW261985   5.977   3.329   4.705  1.9800 -0.5673 -0.7266
81459SOL     OW61986   0.013   0.225  10.809 -0.0421  0.5222  0.1928
81459SOL    HW161987   0.102   0.200  10.787 -0.0036 -0.0259  0.9466
81459SOL    HW261988   0.015   0.321  10.808  0.6351  0.5177  0.5127
81460SOL     OW61989   7.896  10.662   0.853  0.0851 -0.3070 -0.0852
81460SOL    HW161990   7.834  10.721   0.895 -0.1735  0.2136 -1.1676
81460SOL    HW261991   7.846  10.580   0.842 -0.2072 -0.0942 -0.3715
81461SOL     OW61992   3.480   4.241   1.356 -0.3695  0.2126 -0.3669
81461SOL    HW161993   3.457   4.154   1.389  0.1734  0.6432  1.1978
81461SOL    HW261994   3.434   4.247   1.271 -2.6462 -0.5650  0.7190
81462SOL     OW61995  12.806   6.868   4.741  0.2019  0.0652  0.0658
81462SOL    HW161996  12.719   6.847   4.775 -0.1497  0.4231 -0.5989
81462SOL    HW261997  12.808   6.827   4.654  0.4923  0.5388 -0.1525
81463SOL     OW61998   0.736   2.999  12.047 -0.2941  0.0629  0.1015
81463SOL    HW161999   0.657   3.027  12.094 -0.3427  0.2267 -0.0748
81463SOL    HW262000   0.703   2.956  11.968 -0.2039  0.2194 -0.0210
81464SOL     OW62001   5.349  11.426  13.489 -0.5089  0.0848  0.1632
81464SOL    HW162002   5.338  11.339  13.451  0.5938 -0.0286  0.0651
81464SOL    HW262003   5.337  11.486  13.415 -1.1240  0.0146  0.2017
81465SOL     OW62004  13.596   1.836   2.221  0.1200 -0.1405  0.2420
81465SOL    HW162005  13.603   1.741   2.205  0.5549 -0.3367  1.5155
81465SOL    HW262006  13.556   1.870   2.141  0.7146 -1.2853 -0.5798
81466SOL     OW62007   8.002   7.178   2.259 -0.1947  0.0084  0.0912
81466SOL    HW162008   7.931   7.113   2.258 -1.1637  1.0438 -0.9967
81466SOL    HW262009   8.035   7.179   2.169  2.3332 -1.5852  0.8651
81467SOL     OW62010   8.486   2.182   0.961  0.6707 -0.6622  0.3951
81467SOL    HW162011   8.516   2.247   0.897  2.7597 -1.3150  0.6484
81467SOL    HW262012   8.394   2.166   0.937  0.9531  0.2230 -1.4815
81468SOL     OW62013  10.640  11.206  11.961  0.2991  0.5951 -0.4455
81468SOL    HW162014  10.587  11.281  11.937 -0.0468  0.6825  0.5761
81468SOL    HW262015  10.616  11.186  12.052  0.2142 -0.8847 -0.7576
81469SOL     OW62016   3.055  10.699   2.702  0.1806 -0.4263 -0.3257
81469SOL    HW162017   3.020  10.687   2.790 -0.5065  0.7512 -0.4138
81469SOL    HW262018   3.096  10.616   2.681  2.6203  0.0150  2.0811
81470SOL     OW62019   0.848   0.191   6.516 -0.2717  0.6749  0.0731
81470SOL    HW162020   0.881   0.203   6.427  1.4231 -2.4830  0.1440
81470SOL    HW262021   0.755   0.171   6.505 -0.6639  2.6944 -0.7139
81471SOL     OW62022   5.584   7.557   3.273  0.4103  0.0995  0.3827
81471SOL    HW162023   5.562   7.647   3.249  2.1578  0.6996  0.9029
81471SOL    HW262024   5.569   7.507   3.193  1.1281  1.1682 -0.4381
81472SOL     OW62025   7.487   9.272  13.734 -0.0193 -0.0813 -0.1790
81472SOL    HW162026   7.518   9.324  13.660 -2.5292 -1.3913 -2.3370
81472SOL    HW262027   7.466   9.336  13.802  0.6779  1.3559 -1.2711
81473SOL     OW62028  13.581   6.265   4.671 -0.0445 -0.5713  0.3921
81473SOL    HW162029  13.532   6.287   4.592  0.7844 -0.3693 -0.0753
81473SOL    HW262030  13.544   6.181   4.699 -0.0322 -0.8771 -0.4764
81474SOL     OW62031   1.053  13.267   7.189 -0.3786  0.2959  0.1912
81474SOL    HW162032   0.979  13.312   7.230 -0.8532  0.9197 -1.2552
81474SOL    HW262033   1.083  13.205   7.255 -1.2308  1.0883  1.3679
81475SOL     OW62034   0.226   9.468   6.788 -0.1492  0.3298 -0.1343
81475SOL    HW162035   0.255   9.458   6.697 -0.6896  0.7287 -0.3533
81475SOL    HW262036   0.139   9.428   6.790  1.7436 -4.3497  1.3820
81476SOL     OW62037  10.290   1.072   5.824  0.4354  0.4164 -0.0120
81476SOL    HW162038  10.251   1.153   5.791 -1.8844 -1.1093 -1.2266
81476SOL    HW262039  10.320   1.094   5.912 -2.2358  2.0304  0.6046
81477SOL     OW62040   3.915   8.965   6.365  0.3153  0.0958  0.4952
81477SOL    HW162041   3.919   9.048   6.412 -2.1970  0.8861 -0.5022
81477SOL    HW262042   3.963   8.981   6.283  0.9896  0.1011  0.8839
81478SOL     OW62043   9.386   7.041   0.026  0.0366  0.2278  0.0580
81478SOL    HW162044   9.340   7.016  -0.055 -1.1916  0.7534  0.5662
81478SOL    HW262045   9.479   7.035   0.004 -0.2800  0.3880 -1.4028
81479SOL     OW62046   6.314  13.202   7.284 -0.0674 -0.7170  0.1654
81479SOL    HW162047   6.318  13.117   7.328 -0.6759 -0.7786  0.1171
81479SOL    HW262048   6.227  13.203   7.243  0.6953 -0.9250 -1.5576
81480SOL     OW62049  11.436   1.123   5.105 -0.1982  0.0226 -0.1483
81480SOL    HW162050  11.413   1.046   5.053 -1.8312  0.8124 -0.6734
81480SOL    HW262051  11.438   1.092   5.195 -1.6796 -0.4998 -0.2709
81481SOL     OW62052   1.452   7.565   7.836 -0.0914  0.1784  0.3338
81481SOL    HW162053   1.371   7.515   7.824  0.2691  0.0278 -1.9933
81481SOL    HW262054   1.508   7.508   7.888 -1.1271 -0.1237  1.1459
81482SOL     OW62055   7.037  11.982   6.668  0.1816  0.2709  0.1902
81482SOL    HW162056   6.995  12.067   6.683  1.5424  1.1653 -0.7852
81482SOL    HW262057   7.121  12.004   6.628  0.3143 -1.5734 -0.6462
81483SOL     OW62058  11.004   4.896  13.341 -0.0522 -0.1042 -0.6460
81483SOL    HW162059  11.076   4.851  13.387 -1.1232 -0.0201  1.2169
81483SOL    HW262060  11.021   4.989  13.356 -0.3324 -0.0725 -0.5150
81484SOL     OW62061   3.292   9.006   8.492  0.2065  0.0218  0.7824
81484SOL    HW162062   3.310   8.944   8.563  0.3501 -0.5055  0.2885
81484SOL    HW262063   3.372   9.007   8.440  0.5228  1.2690  1.2502
81485SOL     OW62064   3.184  11.575  11.618 -0.5681  0.1016  0.6621
81485SOL    HW162065   3.178  11.634  11.693 -0.4925  1.8819 -0.6652
81485SOL    HW262066   3.255  11.612  11.565  0.0364 -1.6810  0.1670
81486SOL     OW62067   7.738   3.166   9.346 -0.2040 -0.2274  0.4676
81486SOL    HW162068   7.744   3.257   9.377 -0.1264  0.3671 -1.1741
81486SOL    HW262069   7.739   3.174   9.250  0.5657 -2.0173  0.2955
81487SOL     OW62070   4.654  11.741  11.633 -0.2977  0.3897 -0.5372
81487SOL    HW162071   4.665  11.658  11.588  1.4056 -0.0981  0.6865
81487SOL    HW262072   4.724  11.797  11.600 -0.4531  0.7980 -0.1898
81488SOL     OW62073   5.861   9.223   5.923  0.0693  0.1893  0.2916
81488SOL    HW162074   5.831   9.134   5.901 -0.4849  0.5424 -0.4031
81488SOL    HW262075   5.890   9.216   6.014 -1.4675 -0.3563  0.7764
81489SOL     OW62076  10.172   7.087  13.060  0.0469  0.1410 -0.9066
81489SOL    HW162077  10.156   7.166  13.009  0.2469  0.5112 -0.4081
81489SOL    HW262078  10.267   7.077  13.060  0.0711  0.3343 -0.3322
81490SOL     OW62079   8.346   6.677   5.716 -0.1527 -0.3334  0.1709
81490SOL    HW162080   8.323   6.589   5.686 -0.7626 -0.6108  1.3976
81490SOL    HW262081   8.440   6.684   5.700 -0.3518 -0.6416 -1.3037
81491SOL     OW62082   8.236   2.075  13.220  0.3489  0.5118 -0.6459
81491SOL    HW162083   8.170   2.129  13.177  0.1480 -1.0452 -2.3849
81491SOL    HW262084   8.202   1.986  13.214  0.9255  0.0718  1.6875
81492SOL     OW62085   6.570   5.770   5.289 -0.0148  0.1138  0.7062
81492SOL    HW162086   6.555   5.676   5.276 -1.3838 -0.3294  4.3330
81492SOL    HW262087   6.485   5.810   5.267  0.0417  0.2853  0.8027
81493SOL     OW62088   4.096   0.639   4.103  0.4177  0.7213 -0.6917
81493SOL    HW162089   4.190   0.635   4.120  0.3114  0.4019 -0.1734
81493SOL    HW262090   4.081   0.730   4.076  1.4072  0.0326 -4.0600
81494SOL     OW62091  13.333   0.193   9.426  0.3422  0.5677  0.1811
81494SOL    HW162092  13.281   0.269   9.400  0.7887  1.3210  1.4023
81494SOL    HW262093  13.337   0.198   9.522  1.8099 -0.0307  0.1792
81495SOL     OW62094   4.271   6.091   7.142  0.2587 -0.2200  0.0316
81495SOL    HW162095   4.349   6.147   7.141 -0.4849  0.8376 -0.7447
81495SOL    HW262096   4.246   6.083   7.050  0.4126 -1.9682  0.1123
81496SOL     OW62097   7.896  13.816   7.877  0.6964  0.0635 -0.3761
81496SOL    HW162098   7.985  13.816   7.842  0.2869 -0.0725 -1.4385
81496SOL    HW262099   7.862  13.729   7.855  0.7123 -0.3493  1.1216
81497SOL     OW62100   4.875   9.057   1.731  0.0157  0.3279  0.2211
81497SOL    HW162101   4.905   9.003   1.657 -1.5119  0.9765 -0.9248
81497SOL    HW262102   4.955   9.099   1.763  0.8380 -0.5739 -0.5403
81498SOL     OW62103  12.311   2.102   7.156  0.0132  0.2667  0.1659
81498SOL    HW162104  12.239   2.045   7.183  0.6823  0.5972  2.9050
81498SOL    HW262105  12.384   2.077   7.211  1.1729  1.8766 -0.5516
81499SOL     OW62106  11.045   8.822   8.516  0.0599  0.2739  0.1686
81499SOL    HW162107  11.045   8.914   8.546  3.1288  0.8366 -1.2120
81499SOL    HW262108  11.077   8.773   8.592  1.7693  0.8647 -0.1266
81500SOL     OW62109  10.300   9.338   2.212  0.2557 -0.2923  0.4055
81500SOL    HW162110  10.294   9.415   2.155  0.4811 -0.9515 -0.5419
81500SOL    HW262111  10.291   9.372   2.300 -2.1905  0.5400 -0.1085
81501SOL     OW62112   0.369   5.211  12.027 -0.3748  0.0102 -0.2205
81501SOL    HW162113   0.338   5.131  12.071 -0.2492  0.3964  0.5877
81501SOL    HW262114   0.457   5.225  12.063 -0.3979  0.5145 -0.3596
81502SOL     OW62115   4.195  13.490  12.246  0.5526  0.7311 -0.1226
81502SOL    HW162116   4.206  13.497  12.341  1.2914 -0.3276 -0.1142
81502SOL    HW262117   4.111  13.444  12.235  1.3790 -0.9168  0.0960
81503SOL     OW62118  11.146   3.217   7.203  0.8483  0.0500 -0.2819
81503SOL    HW162119  11.189   3.247   7.283  1.6249 -0.4136 -0.5097
81503SOL    HW262120  11.216   3.214   7.138  0.3563 -0.1886 -0.8138
81504SOL     OW62121  12.997   0.547   0.687 -0.0768 -0.1616  0.3349
81504SOL    HW162122  13.038   0.612   0.744  0.3179 -0.4950  0.4316
81504SOL    HW262123  13.069   0.501   0.645 -0.3539 -0.4391  0.1514
81505SOL     OW62124   4.800   5.276   9.397  0.2712 -0.1657  0.1244
81505SOL    HW162125   4.811   5.192   9.352  1.8610 -0.7530  1.5239
81505SOL    HW262126   4.707   5.278   9.420  0.0531 -1.1831 -0.5794
81506SOL     OW62127   4.769   5.737   0.368  0.5029  0.4449 -0.4485
81506SOL    HW162128   4.801   5.813   0.418  0.1284 -0.1728  0.7692
81506SOL    HW262129   4.691   5.769   0.324  0.0928  0.6594  0.4148
81507SOL     OW62130  12.061  13.957   6.342  0.5060 -0.2101 -0.3906
81507SOL    HW162131  11.975  13.941   6.379  1.0105 -2.1005  0.0616
81507SOL    HW262132  12.044  13.991   6.254 -0.6838  0.6650  0.1569
81508SOL     OW62133   3.188  12.846   6.901 -0.6148 -0.6813 -0.5685
81508SOL    HW162134   3.201  12.936   6.871 -0.0517  0.3520  2.4468
81508SOL    HW262135   3.099  12.846   6.937  0.4938 -0.2712  2.4431
81509SOL     OW62136   3.335   4.286   5.982  0.5267 -0.1082 -0.8212
81509SOL    HW162137   3.288   4.250   6.057  1.6645 -1.5976 -0.7567
81509SOL    HW262138   3.366   4.372   6.011 -0.9148  0.2899 -0.3947
81510SOL     OW62139  11.815  10.771   1.186  0.3046  0.1018 -0.4227
81510SOL    HW162140  11.724  10.742   1.184 -0.2040  1.4024  0.9189
81510SOL    HW262141  11.865  10.694   1.211 -0.6556 -0.2578  0.4590
81511SOL     OW62142   2.095   9.811   0.989  0.2614  0.5916 -0.1680
81511SOL    HW162143   2.049   9.858   1.058 -1.6775 -0.9933 -0.3178
81511SOL    HW262144   2.026   9.776   0.933  1.6277 -1.8598 -0.4388
81512SOL     OW62145   6.282   8.237  10.181  0.1142 -0.3996  0.0924
81512SOL    HW162146   6.295   8.305  10.247  0.3819 -0.0087 -0.3579
81512SOL    HW262147   6.370   8.219  10.148  0.1361 -1.4417  0.6712
81513SOL     OW62148   8.374  11.695  10.203 -0.0594 -0.5090  0.2425
81513SOL    HW162149   8.452  11.736  10.241  0.4136 -2.5351  1.5905
81513SOL    HW262150   8.300  11.739  10.246  0.3706  0.1307  0.3411
81514SOL     OW62151   3.169   8.683  10.797  0.1682 -0.3765 -0.8332
81514SOL    HW162152   3.132   8.771  10.784  0.2223  0.0463  1.4718
81514SOL    HW262153   3.093   8.628  10.815  0.3420 -0.1446  0.7565
81515SOL     OW62154   7.808   5.260   2.404  0.4197 -0.0443  0.1305
81515SOL    HW162155   7.867   5.187   2.386 -0.6350 -0.6100 -1.1746
81515SOL    HW262156   7.798   5.304   2.319 -0.8856  0.1387  0.3649
81516SOL     OW62157  13.210   6.481   4.840 -0.1721 -0.1585 -0.4182
81516SOL    HW162158  13.213   6.520   4.753  0.7173  0.1540 -0.2645
81516SOL    HW262159  13.250   6.395   4.829  2.0486  0.7259  0.0578
81517SOL     OW62160   2.263   8.958  10.791 -0.1101  0.2035  0.1124
81517SOL    HW162161   2.328   8.933  10.726 -0.4879 -0.7710  0.0799
81517SOL    HW262162   2.257   9.053  10.785  1.7228  0.3935  0.5114
81518SOL     OW62163   6.778   2.416   6.693  0.0560  0.5739  0.2900
81518SOL    HW162164   6.839   2.343   6.679 -0.3858 -0.4174  2.8042
81518SOL    HW262165   6.702   2.375   6.736 -0.8283  2.3228  0.4760
81519SOL     OW62166  13.448   1.464   8.891 -0.6497  0.1079  0.0407
81519SOL    HW162167  13.481   1.380   8.924  1.6106  1.2938  1.0103
81519SOL    HW262168  13.474   1.466   8.799 -0.4442 -0.1218  0.0949
81520SOL     OW62169  12.477   5.820   7.059  0.3358  0.0434  0.2765
81520SOL    HW162170  12.399   5.767   7.073  0.1190  0.3682  0.3095
81520SOL    HW262171  12.498   5.808   6.966  0.3099 -0.1293  0.2933
81521SOL     OW62172  12.315   0.658   3.333  0.3535  0.3942  0.4327
81521SOL    HW162173  12.291   0.629   3.245  1.0879  1.8555 -0.2923
81521SOL    HW262174  12.397   0.706   3.320 -0.1391  1.6382  1.7362
81522SOL     OW62175  10.820   5.624  12.493  0.0662  0.0667  0.2180
81522SOL    HW162176  10.872   5.687  12.543  0.0692 -0.0107  0.3138
81522SOL    HW262177  10.857   5.539  12.516 -0.4837 -0.0350  0.7585
81523SOL     OW62178   5.248   8.877  13.174 -0.1861 -0.4282  0.1654
81523SOL    HW162179   5.313   8.823  13.130  0.1452 -0.1427  0.3021
81523SOL    HW262180   5.283   8.889  13.263 -0.2080  0.0950  0.1034
81524SOL     OW62181   3.695  12.637  13.479 -0.1353  0.2609  0.8280
81524SOL    HW162182   3.749  12.561  13.457  0.0860  0.1195  1.8254
81524SOL    HW262183   3.616  12.600  13.519 -1.3857  0.4223 -1.3479
81525SOL     OW62184   4.146  10.219   2.544 -0.0606  0.3642 -0.3668
81525SOL    HW162185   4.181  10.226   2.455 -0.9498 -1.2306 -0.8967
81525SOL    HW262186   4.202  10.154   2.586  0.3084  1.0561  0.2244
81526SOL     OW62187  12.696   9.375   1.505  0.5143 -0.0544  0.2407
81526SOL    HW162188  12.776   9.370   1.558  0.5901 -1.2567  0.0456
81526SOL    HW262189  12.723   9.425   1.428  0.1868  2.4319  1.6476
81527SOL     OW62190  10.909   3.436   0.633  0.2305  0.1394  0.3380
81527SOL    HW162191  10.988   3.486   0.653  0.1148  0.6655 -0.4809
81527SOL    HW262192  10.858   3.493   0.575 -0.2512 -0.6222 -0.0097
81528SOL     OW62193   7.204   8.503   4.441  0.0027 -0.5462  0.1123
81528SOL    HW162194   7.238   8.448   4.371 -0.4925  0.4495 -0.9601
81528SOL    HW262195   7.109   8.504   4.425  0.0072  0.6128  0.0804
81529SOL     OW62196   6.013   9.496  12.437  0.1954  0.1058  0.0255
81529SOL    HW162197   5.973   9.573  12.478 -0.0112  1.0001 -1.7397
81529SOL    HW262198   6.090   9.477  12.491  0.3616  1.6961  0.4092
81530SOL     OW62199   7.154  11.233  12.112 -0.3389  0.2954  0.3243
81530SOL    HW162200   7.137  11.188  12.195  2.3914  0.3342  1.0110
81530SOL    HW262201   7.164  11.163  12.048 -1.3329  0.2147  0.2438
81531SOL     OW62202   4.702   4.436  12.377  0.1642 -0.3135  0.4960
81531SOL    HW162203   4.685   4.341  12.374 -1.2285 -0.0961  0.5661
81531SOL    HW262204   4.667   4.463  12.462 -1.1420  0.5328 -0.2688
81532SOL     OW62205   5.436   3.571   1.887 -0.3342  0.1035  0.0423
81532SOL    HW162206   5.500   3.630   1.846  0.8054  0.6178  2.3296
81532SOL    HW262207   5.482   3.537   1.964 -1.7437 -2.1062 -0.0126
81533SOL     OW62208  12.464   7.362  12.596 -0.2796 -0.3269 -0.4783
81533SOL    HW162209  12.529   7.303  12.558  0.1620 -0.4970  0.5045
81533SOL    HW262210  12.470   7.347  12.690  0.1738  1.6081 -0.1553
81534SOL     OW62211   7.990   3.945   0.025  0.6433  0.0786  0.1800
81534SOL    HW162212   7.935   4.013   0.065  1.9365  1.1922  0.1629
81534SOL    HW262213   8.079   3.966   0.055  1.3240 -0.4886 -1.3384
81535SOL     OW62214   6.407   6.226   6.084  0.2010 -0.4240 -0.1597
81535SOL    HW162215   6.472   6.163   6.050  2.0684  1.8200 -0.9883
81535SOL    HW262216   6.406   6.296   6.019 -2.7774 -0.1279  0.0956
81536SOL     OW62217  12.098   2.407  12.983  0.1677 -0.0331 -0.1365
81536SOL    HW162218  12.097   2.502  12.990 -1.3065 -0.0913  0.6673
81536SOL    HW262219  12.080   2.389  12.891 -0.0549  0.4603 -0.1899
81537SOL     OW62220  13.937   4.024  13.169  0.6091 -0.0839  0.6648
81537SOL    HW162221  13.947   3.933  13.197  1.8298 -0.2173 -0.0871
81537SOL    HW262222  14.007   4.071  13.215  1.7552 -0.0597 -1.0019
81538SOL     OW62223  12.119  13.084   1.442 -0.2008 -0.6268 -0.5021
81538SOL    HW162224  12.062  13.007   1.436 -0.7077 -0.2808 -0.1863
81538SOL    HW262225  12.064  13.157   1.417 -0.1602 -0.1660  0.6784
81539SOL     OW62226   0.427   8.230   7.073  0.3275  0.3179 -0.4318
81539SOL    HW162227   0.480   8.231   6.993 -1.3159  0.3901 -1.5782
81539SOL    HW262228   0.342   8.197   7.044 -0.3059  0.3703  1.3064
81540SOL     OW62229   7.624   6.458   2.644 -0.7826  0.3506 -0.3069
81540SOL    HW162230   7.610   6.396   2.573  0.3949 -1.0273  0.5967
81540SOL    HW262231   7.664   6.535   2.602 -2.0193  0.4340 -1.4002
81541SOL     OW62232  13.668   8.291  13.624  0.0227  0.6884  0.8679
81541SOL    HW162233  13.664   8.253  13.712  0.4680 -2.6595 -0.4085
81541SOL    HW262234  13.760   8.309  13.610  0.1380 -0.0342  0.6459
81542SOL     OW62235   4.319   7.847   4.981  0.2218 -0.4579  0.0599
81542SOL    HW162236   4.392   7.838   4.920  1.5808 -3.3189  1.8821
81542SOL    HW262237   4.327   7.937   5.014  3.6978 -0.9195  0.9326
81543SOL     OW62238   6.723  11.378   4.256 -0.4851 -0.2404  0.0937
81543SOL    HW162239   6.780  11.305   4.280  1.2159  1.4415  1.4374
81543SOL    HW262240   6.687  11.409   4.339 -0.4464  1.0294 -0.3426
81544SOL     OW62241   4.464   1.585   7.237  0.6022 -0.1020  0.1099
81544SOL    HW162242   4.438   1.662   7.287 -2.5113 -0.2164 -1.1147
81544SOL    HW262243   4.536   1.616   7.182  0.7146  1.3803  1.0362
81545SOL     OW62244  12.019   9.628  10.766 -0.6217 -0.0739 -0.2866
81545SOL    HW162245  12.103   9.669  10.786  0.6244 -1.7141 -1.8964
81545SOL    HW262246  11.988   9.673  10.688  1.0741 -2.4342 -2.4632
81546SOL     OW62247   4.071  11.831   6.930  0.2805  0.5255 -0.4483
81546SOL    HW162248   4.130  11.801   7.000  0.3120  1.7415  0.0683
81546SOL    HW262249   3.984  11.801   6.959  0.4101  0.2419 -0.3421
81547SOL     OW62250  14.009   9.654  13.965  0.0603 -0.8247 -0.1200
81547SOL    HW162251  14.010   9.663  13.869 -2.1781  0.9247 -0.0747
81547SOL    HW262252  13.918   9.636  13.986  0.1080  0.7972  1.7786
81548SOL     OW62253   9.386   1.984   7.382 -0.5491 -0.6058 -0.1312
81548SOL    HW162254   9.330   2.044   7.431  0.5961 -0.0748  0.5569
81548SOL    HW262255   9.462   2.037   7.356 -0.5153 -1.2180 -1.3642
81549SOL     OW62256   7.545  13.497  13.477 -0.0452  0.0520  0.2438
81549SOL    HW162257   7.461  13.467  13.441 -0.5465 -0.1697  1.5391
81549SOL    HW262258   7.529  13.588  13.502  0.3420  0.2468 -0.2066
81550SOL     OW62259   8.742  11.628   6.169 -0.5151 -0.6279  0.4630
81550SOL    HW162260   8.650  11.655   6.176 -0.7771 -0.9864 -1.1056
81550SOL    HW262261   8.738  11.535   6.146  0.2374 -0.6483  0.3850
81551SOL     OW62262   9.047   4.511   9.568 -0.0421  0.1365  0.6987
81551SOL    HW162263   8.959   4.478   9.551 -0.1981  0.4170  0.9674
81551SOL    HW262264   9.105   4.439   9.543 -0.2305  0.6991 -1.5861
81552SOL     OW62265   5.523  13.762  11.052  0.1945 -0.5550  0.0798
81552SOL    HW162266   5.452  13.775  10.990  0.2200  0.0633  0.1794
81552SOL    HW262267   5.482  13.770  11.138  0.4088 -0.0597  0.1362
81553SOL     OW62268  10.380   4.656  12.619  0.4420  0.0626 -0.0687
81553SOL    HW162269  10.308   4.595  12.634  1.4563 -0.9457  0.9580
81553SOL    HW262270  10.338   4.742  12.613 -0.8104 -0.4461  0.9440
81554SOL     OW62271  12.779   0.890   3.000 -0.6534  0.4747 -0.1888
81554SOL    HW162272  12.803   0.951   2.930  0.7229  0.4572  0.2268
81554SOL    HW262273  12.737   0.945   3.067  1.5162  1.2162  0.6488
81555SOL     OW62274   5.531   6.715  12.802  0.1277  0.0407  0.4405
81555SOL    HW162275   5.516   6.622  12.821  2.7154 -0.6423 -0.5659
81555SOL    HW262276   5.521   6.758  12.887  0.7045 -1.4239  1.2952
81556SOL     OW62277  10.869  10.875  11.692 -0.2727  0.1842  0.3132
81556SOL    HW162278  10.909  10.889  11.777 -1.8432 -1.6787  1.4610
81556SOL    HW262279  10.937  10.832  11.640 -0.2974 -1.8154  1.8068
81557SOL     OW62280  11.511  12.428   4.375 -0.1395  0.1014 -0.1004
81557SOL    HW162281  11.541  12.361   4.437  1.6190 -0.3322 -1.3544
81557SOL    HW262282  11.528  12.511   4.420 -2.1399 -0.2144  1.3759
81558SOL     OW62283  13.070   6.085   0.636  0.1703 -0.3002 -0.2224
81558SOL    HW162284  13.122   6.154   0.676 -0.9733 -0.5369  1.8284
81558SOL    HW262285  13.134   6.019   0.609  1.0702  0.2602  0.4964
81559SOL     OW62286   7.006   0.065   8.662 -0.4191 -0.2136  0.8866
81559SOL    HW162287   7.025   0.101   8.749 -1.2178  1.1833  0.5127
81559SOL    HW262288   6.953  -0.012   8.679 -2.4208  1.2438  1.6238
81560SOL     OW62289   3.832   9.243  13.980 -0.5690  0.2838  0.5778
81560SOL    HW162290   3.759   9.190  13.949 -0.4858  0.4357  0.1127
81560SOL    HW262291   3.894   9.244  13.908 -1.0429  1.8893  0.1325
81561SOL     OW62292   4.265   4.222   4.238  0.2133 -0.4903 -0.3229
81561SOL    HW162293   4.272   4.131   4.208  0.5142 -0.8181  0.6924
81561SOL    HW262294   4.309   4.273   4.170 -0.4847 -1.0286 -1.2020
81562SOL     OW62295   4.560   0.924  13.569 -0.3111 -0.5407 -0.2727
81562SOL    HW162296   4.516   0.954  13.649 -1.3725  0.7536 -1.2976
81562SOL    HW262297   4.640   0.975  13.565 -0.7534  0.1455 -0.5472
81563SOL     OW62298   0.683  11.143  13.247 -0.1330  0.6829 -0.3170
81563SOL    HW162299   0.602  11.188  13.269 -1.1267 -1.3398  0.4296
81563SOL    HW262300   0.698  11.084  13.321  1.3152  0.0565 -1.0657
81564SOL     OW62301   8.758   0.833   9.181  0.2127  0.1918 -0.3858
81564SOL    HW162302   8.817   0.902   9.211  1.0768 -0.0470 -1.4842
81564SOL    HW262303   8.814   0.772   9.133 -1.0326  0.3822 -2.1835
81565SOL     OW62304  12.881   8.685  14.042 -0.1385 -0.1143  0.0730
81565SOL    HW162305  12.892   8.679  13.947  0.5133 -0.0441  0.1351
81565SOL    HW262306  12.787   8.680  14.056 -0.2899  0.5276 -0.6232
81566SOL     OW62307   5.751  11.243  12.356  0.2797 -0.5210 -0.2243
81566SOL    HW162308   5.705  11.205  12.282  2.5293 -0.9318 -1.4968
81566SOL    HW262309   5.729  11.186  12.430 -1.2053 -0.6769 -0.7547
81567SOL     OW62310   3.721  13.038   2.692 -0.1593 -0.4147  0.0583
81567SOL    HW162311   3.770  13.120   2.688 -0.6484 -0.1291 -0.3384
81567SOL    HW262312   3.787  12.970   2.696  0.2692 -0.0430 -0.5795
81568SOL     OW62313   6.432   6.957   0.804  0.1792  0.3382  0.0516
81568SOL    HW162314   6.341   6.936   0.780  0.1691  0.3571  0.0732
81568SOL    HW262315   6.458   7.024   0.741  0.3280  0.0091 -0.2394
81569SOL     OW62316   4.805   1.582   3.588 -0.4569  0.2498 -0.1842
81569SOL    HW162317   4.891   1.588   3.545  0.3796  0.1036  1.4031
81569SOL    HW262318   4.760   1.662   3.561  0.4923  0.7380 -0.3732
81570SOL     OW62319   4.765  13.085  11.014 -0.8011  0.1511 -0.0786
81570SOL    HW162320   4.800  13.055  10.930 -1.8394  0.7307 -0.7363
81570SOL    HW262321   4.836  13.068  11.076  0.1093 -0.0143 -1.1181
81571SOL     OW62322  11.808   1.688   0.594 -0.0644 -0.1826  0.5058
81571SOL    HW162323  11.822   1.663   0.685 -1.1124  0.7856  0.9525
81571SOL    HW262324  11.735   1.634   0.565 -1.4804  1.3230  1.0824
81572SOL     OW62325   6.385   8.244   6.782 -0.3677  0.4399 -0.4128
81572SOL    HW162326   6.425   8.222   6.698 -3.0365  2.3294 -2.3412
81572SOL    HW262327   6.324   8.172   6.799 -0.3191  0.3903 -0.4479
81573SOL     OW62328   8.942   2.998   0.698 -0.1280 -0.6704  0.0368
81573SOL    HW162329   8.971   2.999   0.789  1.2281 -0.9034 -0.3809
81573SOL    HW262330   8.853   3.033   0.701  1.0700  2.6804  1.0546
81574SOL     OW62331   1.279   3.154  13.071  0.4369 -0.6429  0.0093
81574SOL    HW162332   1.362   3.108  13.067  0.7176 -0.1479 -0.0194
81574SOL    HW262333   1.251   3.146  13.162 -0.9063 -3.2253 -0.5366
81575SOL     OW62334   8.756   3.966   4.902 -0.3001 -0.2442  0.4943
81575SOL    HW162335   8.697   4.037   4.878 -1.2984 -0.4833  2.1054
81575SOL    HW262336   8.751   3.961   4.998  2.6892  0.0154  0.7793
81576SOL     OW62337   6.258   9.871   1.102  0.3513 -0.2393  0.3526
81576SOL    HW162338   6.310   9.792   1.118  1.2251  0.8418  3.5663
81576SOL    HW262339   6.323   9.940   1.088 -0.2220  0.7048  2.1118
81577SOL     OW62340   8.827   0.350   8.765  0.1471  0.2949 -0.5238
81577SOL    HW162341   8.831   0.440   8.735  1.4837  0.6695  0.6908
81577SOL    HW262342   8.842   0.297   8.686  4.1008  1.2357 -0.5780
81578SOL     OW62343   5.715   0.989   3.192 -0.3703 -0.7922 -0.5508
81578SOL    HW162344   5.754   1.007   3.277 -0.9107  0.8192 -0.5987
81578SOL    HW262345   5.790   0.976   3.133  0.0234 -0.7842 -0.0545
81579SOL     OW62346  11.559  11.613  11.582 -0.2394 -0.1853  0.9684
81579SOL    HW162347  11.547  11.561  11.662  0.5542  0.3370  1.4348
81579SOL    HW262348  11.535  11.553  11.511 -2.6512 -0.1463  1.6440
81580SOL     OW62349  11.771  13.164  13.857  0.4415 -0.2939 -0.1196
81580SOL    HW162350  11.779  13.075  13.823 -2.3009 -0.6037 -0.1776
81580SOL    HW262351  11.683  13.192  13.833  0.3896  1.6007  1.8658
81581SOL     OW62352   0.045   2.212   7.695  0.0966  0.3494  0.0710
81581SOL    HW162353  -0.009   2.209   7.615  1.4235  0.2124 -0.8466
81581SOL    HW262354  -0.017   2.195   7.766 -1.1223  0.4803 -0.9190
81582SOL     OW62355   4.567  11.373   3.871 -0.1284  0.4621  0.3591
81582SOL    HW162356   4.557  11.316   3.795  0.7848  1.3312 -0.4405
81582SOL    HW262357   4.544  11.318   3.946 -0.9297 -0.4444 -0.5312
81583SOL     OW62358   8.388  12.002   4.878 -0.3097 -0.4272 -0.3146
81583SOL    HW162359   8.423  11.952   4.952 -0.6053  0.6628  0.5810
81583SOL    HW262360   8.425  12.089   4.888 -1.3595  0.0809 -0.7182
81584SOL     OW62361   6.168  10.125   2.570 -0.0813 -0.2592 -0.0381
81584SOL    HW162362   6.178  10.064   2.498 -0.3727 -0.3408 -0.0090
81584SOL    HW262363   6.246  10.111   2.624 -0.3992 -0.9691  0.2450
81585SOL     OW62364   6.943   7.131   3.226  0.3696  0.5104 -0.1365
81585SOL    HW162365   6.939   7.044   3.186  0.1043  0.5583 -0.2201
81585SOL    HW262366   6.866   7.134   3.283 -0.2596  1.1078 -0.9936
81586SOL     OW62367   2.310   4.864   8.455 -0.6852 -0.0527 -0.4391
81586SOL    HW162368   2.313   4.849   8.361 -0.3535 -1.6189 -0.1996
81586SOL    HW262369   2.223   4.837   8.482 -0.5694 -0.2068 -0.2085
81587SOL     OW62370  13.655  12.599   2.607 -0.3162  0.0513 -0.3292
81587SOL    HW162371  13.616  12.651   2.537 -0.5874  1.2371  0.6706
81587SOL    HW262372  13.601  12.520   2.610 -0.3577  0.0204 -1.3796
81588SOL     OW62373  13.105   7.660   3.062 -1.0017 -0.2295 -0.0995
81588SOL    HW162374  13.145   7.696   3.140  0.8292 -0.7428 -0.7625
81588SOL    HW262375  13.127   7.567   3.064 -2.8385 -0.7045 -0.1081
81589SOL     OW62376   2.908   1.988  12.372  0.4484  0.2453 -0.2554
81589SOL    HW162377   2.819   2.006  12.404  0.2003  1.6264 -1.5891
81589SOL    HW262378   2.896   1.918  12.308  0.1182  1.1550 -1.2246
81590SOL     OW62379  11.702   4.837  10.857  0.1885 -0.2269 -0.5354
81590SOL    HW162380  11.787   4.879  10.871  1.3825 -2.5039 -0.4822
81590SOL    HW262381  11.716   4.778  10.783 -1.8052  0.4442 -1.5167
81591SOL     OW62382  10.933   1.801   3.572 -0.2636  0.4044  0.4670
81591SOL    HW162383  10.918   1.849   3.491  0.8842 -2.6455 -1.7585
81591SOL    HW262384  11.021   1.826   3.599 -1.3986  3.0185  2.1024
81592SOL     OW62385   7.594   8.793  10.631 -0.3371 -0.2798  0.1947
81592SOL    HW162386   7.572   8.701  10.646 -0.0503 -0.6204 -1.2875
81592SOL    HW262387   7.684   8.802  10.662 -0.9988  0.0176  2.1548
81593SOL     OW62388   3.849   4.571   1.560  0.4363  0.3834 -0.0462
81593SOL    HW162389   3.816   4.576   1.471  1.6003  2.0228 -0.4265
81593SOL    HW262390   3.770   4.573   1.615 -0.4040 -2.2880 -0.9922
81594SOL     OW62391   8.854  13.974  10.239 -0.1675 -0.0057 -0.4979
81594SOL    HW162392   8.768  13.933  10.235  0.1433 -0.8306  0.7436
81594SOL    HW262393   8.862  14.004  10.329  0.2050  1.5249 -1.0183
81595SOL     OW62394   2.346  13.009   3.594  0.2385  0.4443  0.0571
81595SOL    HW162395   2.344  13.013   3.499  0.4843 -0.6176 -0.0039
81595SOL    HW262396   2.275  12.949   3.617  0.0227  0.8813  0.5618
81596SOL     OW62397  10.747  11.530   1.598 -0.0590  0.1043 -0.0854
81596SOL    HW162398  10.721  11.518   1.506  1.6675  0.4235 -0.6563
81596SOL    HW262399  10.756  11.625   1.608 -1.3261  0.1573  0.7621
81597SOL     OW62400   8.253  13.587   1.962 -0.3512  0.1202 -0.0222
81597SOL    HW162401   8.322  13.522   1.950 -0.1225  0.3649 -0.0423
81597SOL    HW262402   8.207  13.558   2.042 -0.3668 -0.1653 -0.1333
81598SOL     OW62403   5.124  13.525   2.233  0.0873 -0.4856 -0.3086
81598SOL    HW162404   5.100  13.594   2.171  0.3663 -0.8313 -0.8025
81598SOL    HW262405   5.188  13.472   2.187  0.3356 -0.7192  0.2966
81599SOL     OW62406   0.808   3.658   7.603 -0.4472  0.0120  0.3133
81599SOL    HW162407   0.807   3.579   7.656 -0.5276  0.2756  0.7064
81599SOL    HW262408   0.900   3.675   7.586 -0.4601 -0.5703 -0.3842
81600SOL     OW62409   6.088   3.884  11.282  0.3050  0.4191 -0.7699
81600SOL    HW162410   6.096   3.920  11.370  0.2083  1.8377 -1.3130
81600SOL    HW262411   6.007   3.833  11.284 -0.4417  1.5909 -0.3974
81601SOL     OW62412   1.039   6.501   8.786  0.3713  0.5166  0.7469
81601SOL    HW162413   1.087   6.474   8.708 -0.3488  0.7153  0.2294
81601SOL    HW262414   1.031   6.596   8.779 -0.6704  0.4288  0.4703
81602SOL     OW62415   8.679   7.319  11.492 -0.0039 -0.6938 -0.0343
81602SOL    HW162416   8.725   7.370  11.559  0.1077 -1.5560  0.5511
81602SOL    HW262417   8.712   7.354  11.409 -0.0547  0.3010  0.3507
81603SOL     OW62418   5.094   2.497   6.761 -0.0336 -0.2637  0.9639
81603SOL    HW162419   5.086   2.588   6.734 -1.2510 -0.4319  0.6924
81603SOL    HW262420   5.008   2.475   6.798  0.5915 -0.9906  2.0127
81604SOL     OW62421   5.077  13.928   3.266 -0.3644 -0.2675  0.2534
81604SOL    HW162422   5.083  13.953   3.174  1.4861 -0.7034  0.2262
81604SOL    HW262423   4.996  13.876   3.271 -0.9219  0.4487 -0.9362
81605SOL     OW62424   1.014  12.686   7.794  0.4082  0.2192  0.0885
81605SOL    HW162425   0.981  12.694   7.883 -2.8752 -2.8571 -0.6039
81605SOL    HW262426   1.017  12.775   7.761 -0.1450  1.2731  2.6681
81606SOL     OW62427  10.953   0.657   7.310  0.8843  0.3506 -0.8215
81606SOL    HW162428  10.967   0.650   7.404  0.2927 -0.0043 -0.7552
81606SOL    HW262429  11.038   0.685   7.275  1.0867  0.5462 -0.1805
81607SOL     OW62430   0.114  11.009   1.352 -0.3407  0.2105  0.8961
81607SOL    HW162431   0.183  10.974   1.409  1.1734  0.7316 -0.5162
81607SOL    HW262432   0.106  10.945   1.282 -1.5977 -0.0309  1.2483
81608SOL     OW62433   3.973   0.255  12.363  0.2811 -0.4409  0.5922
81608SOL    HW162434   4.038   0.218  12.302 -0.7408 -0.3475 -0.5857
81608SOL    HW262435   3.956   0.185  12.425  0.5633 -0.9105  0.1457
81609SOL     OW62436   5.916  12.098   6.481  0.4535 -0.2400  0.5498
81609SOL    HW162437   5.862  12.053   6.416 -0.5788  0.0765  1.1703
81609SOL    HW262438   5.874  12.183   6.492  0.3843 -0.4366  1.9136
81610SOL     OW62439   8.202   0.027   6.910  0.0528  0.4264 -0.3679
81610SOL    HW162440   8.166   0.077   6.837  0.6421  0.7022 -0.4773
81610SOL    HW262441   8.179  -0.064   6.892  1.3035  0.3131 -1.5820
81611SOL     OW62442   4.074   2.584   3.174  0.0241 -0.5525  0.6364
81611SOL    HW162443   4.000   2.528   3.153 -0.1446  0.0057 -0.3115
81611SOL    HW262444   4.149   2.543   3.132  0.3886 -1.4390  2.0881
81612SOL     OW62445   3.469   5.465   0.086  0.7013  0.1601  0.2717
81612SOL    HW162446   3.426   5.548   0.066 -0.5942 -0.9044 -1.7025
81612SOL    HW262447   3.484   5.468   0.181  2.6254  3.4644  0.0157
81613SOL     OW62448  11.843   6.400  11.773  0.1036 -0.3096  0.2176
81613SOL    HW162449  11.843   6.481  11.722  0.4786 -0.9437 -0.8148
81613SOL    HW262450  11.811   6.334  11.713 -0.6168 -0.8658  1.1827
81614SOL     OW62451  10.889   9.775   8.636  0.1066 -0.9226  0.5350
81614SOL    HW162452  10.949   9.711   8.597 -1.3210 -1.6132 -0.6094
81614SOL    HW262453  10.925   9.860   8.611  1.3012 -1.2635  0.9725
81615SOL     OW62454   3.060   4.288   9.680 -0.4558 -0.3135 -0.4904
81615SOL    HW162455   2.994   4.263   9.744 -1.8347  0.2444 -1.6292
81615SOL    HW262456   3.017   4.277   9.595  1.4061 -1.3671 -1.3878
81616SOL     OW62457   2.259   9.727   0.764 -0.1311 -0.9992  0.3268
81616SOL    HW162458   2.353   9.726   0.745 -0.1361 -0.6923  0.2873
81616SOL    HW262459   2.251   9.782   0.842 -0.5050  0.7395 -0.8828
81617SOL     OW62460  10.129  11.350   8.687  0.8645  0.3908  0.1868
81617SOL    HW162461  10.183  11.395   8.621  2.1350 -0.1326  0.8406
81617SOL    HW262462  10.100  11.419   8.746  0.0792  0.8017 -0.6552
81618SOL     OW62463  13.110   4.255   4.723 -0.2382  0.1818  0.3704
81618SOL    HW162464  13.188   4.224   4.677  0.8050  2.1520  0.7006
81618SOL    HW262465  13.129   4.241   4.816 -0.5716  0.0655  0.4234
81619SOL     OW62466  12.403   8.915   5.342  0.1617  0.5630  0.1393
81619SOL    HW162467  12.337   8.850   5.319  0.3433  0.7955 -1.1505
81619SOL    HW262468  12.437   8.887   5.427 -3.2762  1.7674  2.1111
81620SOL     OW62469   0.279   3.643   8.544  0.5954  0.0054  0.2190
81620SOL    HW162470   0.191   3.682   8.544  2.0439  3.6794 -0.2632
81620SOL    HW262471   0.307   3.648   8.635  1.4500  1.9668 -0.1052
81621SOL     OW62472   4.054   9.255   9.621  0.4561  0.4474  0.0537
81621SOL    HW162473   3.988   9.318   9.594  1.0804  0.0652 -2.7190
81621SOL    HW262474   4.026   9.226   9.708 -0.8165  3.1558  0.6659
81622SOL     OW62475   1.073  12.221   1.342 -0.6290 -0.4703  0.0477
81622SOL    HW162476   1.137  12.180   1.283 -0.6458  0.7738 -0.8824
81622SOL    HW262477   1.122  12.237   1.423  0.3806  0.7619 -0.7621
81623SOL     OW62478   0.162  10.938   0.200 -0.2127 -0.3527 -0.2275
81623SOL    HW162479   0.219  10.863   0.217  0.5696  0.3180  0.1392
81623SOL    HW262480   0.101  10.938   0.273  0.6712  0.1877  0.5333
81624SOL     OW62481   2.498  13.989  12.186  0.0222  0.0698  0.0096
81624SOL    HW162482   2.534  14.055  12.127 -0.3495  0.8395  0.6309
81624SOL    HW262483   2.507  14.027  12.273 -1.2841 -0.1916  0.2787
81625SOL     OW62484  11.763   1.507   9.996  0.4444 -0.1832 -0.1266
81625SOL    HW162485  11.765   1.565  10.072  2.0205 -0.0093 -0.2676
81625SOL    HW262486  11.850   1.466   9.995  0.3015 -0.4904 -1.5916
81626SOL     OW62487  11.201   3.656  11.484  0.3954  0.3769 -0.1499
81626SOL    HW162488  11.213   3.707  11.564 -0.0308  0.0616  0.1188
81626SOL    HW262489  11.233   3.713  11.414  1.2232  0.4734  0.2860
81627SOL     OW62490   4.452   1.262   7.497 -0.1145  0.6236  0.1782
81627SOL    HW162491   4.470   1.304   7.581 -1.3658  0.6808  0.4362
81627SOL    HW262492   4.400   1.185   7.520 -0.1233  0.4175 -0.5129
81628SOL     OW62493  11.130   5.999   6.684 -0.5802 -0.4537  0.0570
81628SOL    HW162494  11.079   6.005   6.603  0.1137 -0.1697 -0.3650
81628SOL    HW262495  11.155   5.906   6.690 -0.0258 -0.3405 -0.4361
81629SOL     OW62496  10.899   3.986   4.007 -0.4440 -0.4965 -0.1868
81629SOL    HW162497  10.925   3.915   4.066 -0.6252  0.5473  1.1930
81629SOL    HW262498  10.815   4.016   4.040 -0.4104  0.3102 -0.7903
81630SOL     OW62499   0.432   6.135  13.608  0.0586 -0.5140 -0.1867
81630SOL    HW162500   0.415   6.060  13.551  0.9522  0.1869 -1.4290
81630SOL    HW262501   0.481   6.098  13.681 -1.5099 -1.5048  0.4118
81631SOL     OW62502   2.285  13.881   6.278  0.2824 -0.3848  0.0021
81631SOL    HW162503   2.266  13.971   6.305  0.6100 -0.2156 -0.3118
81631SOL    HW262504   2.200  13.845   6.252  0.3199  0.2724 -1.1299
81632SOL     OW62505  10.679   8.516   1.142 -0.4823  0.3652  0.4162
81632SOL    HW162506  10.587   8.525   1.165 -0.3748  0.4719  0.8031
81632SOL    HW262507  10.688   8.568   1.062 -0.6020  0.9698  0.7835
81633SOL     OW62508   8.781   8.826  13.437 -0.1335 -0.5631 -0.0361
81633SOL    HW162509   8.810   8.888  13.505 -0.7512  0.1742 -0.4309
81633SOL    HW262510   8.732   8.880  13.375  0.4499 -1.2127 -1.0989
81634SOL     OW62511  13.626   0.769  10.797  0.1550 -0.0118 -0.5707
81634SOL    HW162512  13.634   0.712  10.873  0.3759 -1.1948 -1.4617
81634SOL    HW262513  13.536   0.802  10.801 -0.0962 -0.7244 -0.2650
81635SOL     OW62514   4.643   0.061   7.458  0.3016  0.1478  0.5561
81635SOL    HW162515   4.571  -0.003   7.448 -0.8600  1.4533  0.2525
81635SOL    HW262516   4.600   0.146   7.455  1.7881  0.9651  1.2625
81636SOL     OW62517   3.375  10.945   1.193  0.2357 -0.4219  0.3295
81636SOL    HW162518   3.412  10.989   1.270 -0.7659  0.7734  0.1678
81636SOL    HW262519   3.418  10.988   1.119  1.3239 -1.6877  0.1920
81637SOL     OW62520  10.509   5.424   4.567  0.4568  0.2319 -0.0745
81637SOL    HW162521  10.487   5.443   4.658  0.0534 -0.8044  0.0591
81637SOL    HW262522  10.481   5.501   4.519  0.6272  0.7724  0.6678
81638SOL     OW62523   0.576  11.024   1.301  0.1321 -0.0174  0.0597
81638SOL    HW162524   0.640  11.092   1.283  2.0180 -1.3220  1.3986
81638SOL    HW262525   0.559  10.983   1.216  0.0272  1.2107 -0.5241
81639SOL     OW62526   8.387  11.469   9.224  0.8322  0.4505  0.2827
81639SOL    HW162527   8.407  11.521   9.301  0.0825  0.5125  0.4422
81639SOL    HW262528   8.469  11.424   9.204  1.4900  1.6876  0.1312
81640SOL     OW62529  10.344   3.956  13.147 -0.2683  0.0935  0.4883
81640SOL    HW162530  10.264   4.003  13.124 -0.6900 -0.9492 -0.2545
81640SOL    HW262531  10.320   3.864  13.139  0.7229 -0.2453  1.2781
81641SOL     OW62532   1.505   1.104   9.457 -0.1563 -0.0296  0.3581
81641SOL    HW162533   1.598   1.095   9.433  0.0579  0.6977  0.8699
81641SOL    HW262534   1.475   1.181   9.409 -0.3194  0.1153  0.6891
81642SOL     OW62535   6.782  13.628   3.196  0.3400 -0.3601  0.2538
81642SOL    HW162536   6.846  13.579   3.247  1.9796  1.4216 -0.0066
81642SOL    HW262537   6.826  13.709   3.172 -2.0818  1.0546  0.2292
81643SOL     OW62538  11.379   6.160   6.363  0.2101  0.6646 -0.0154
81643SOL    HW162539  11.395   6.121   6.449 -0.6897  0.0647 -0.1090
81643SOL    HW262540  11.446   6.122   6.307 -0.4236 -0.4906 -0.0182
81644SOL     OW62541   9.395   7.378   0.704 -0.0243 -0.4390  0.9243
81644SOL    HW162542   9.327   7.310   0.707  1.0672 -1.5534  1.5539
81644SOL    HW262543   9.350   7.456   0.671 -1.7747 -0.9221  2.0382
81645SOL     OW62544   2.627   9.151   1.368  0.0958 -0.2477 -0.0660
81645SOL    HW162545   2.595   9.147   1.278 -1.2197 -0.7683  0.3953
81645SOL    HW262546   2.686   9.076   1.376 -1.1455 -1.2573 -0.0151
81646SOL     OW62547   8.695   7.682   3.383  0.1813  1.2135  0.0507
81646SOL    HW162548   8.695   7.616   3.452 -3.2438  1.3488  0.3587
81646SOL    HW262549   8.728   7.636   3.306  2.1545  0.4973  1.2418
81647SOL     OW62550   6.760   8.980  11.028  0.3372  0.5048 -0.2314
81647SOL    HW162551   6.833   8.919  11.031 -0.3772 -0.3373  1.6220
81647SOL    HW262552   6.771   9.026  10.945  2.7606  0.1700 -0.1838
81648SOL     OW62553  13.153  12.247   6.369 -0.3965 -0.1890 -0.2764
81648SOL    HW162554  13.099  12.306   6.421  0.2954 -0.2689  0.5557
81648SOL    HW262555  13.106  12.164   6.372 -0.3547 -0.2030  0.2751
81649SOL     OW62556   0.790   8.713  10.294 -0.7187  0.5129  0.0973
81649SOL    HW162557   0.718   8.724  10.232 -0.7633  0.0461  0.0693
81649SOL    HW262558   0.866   8.693  10.240 -0.4306  1.5568  0.0773
81650SOL     OW62559  10.873  13.297   0.422 -0.1547  0.3275  0.5773
81650SOL    HW162560  10.800  13.357   0.407 -0.0733  0.4450  0.6471
81650SOL    HW262561  10.832  13.220   0.463  0.0437  1.3009  2.7407
81651SOL     OW62562  13.252   8.046   5.399  0.2094  0.0002  0.0190
81651SOL    HW162563  13.294   7.977   5.451  0.2819 -0.2923 -0.4244
81651SOL    HW262564  13.171   8.007   5.368  0.1564  0.1814 -0.0714
81652SOL     OW62565  10.055   0.446   4.591 -0.5442 -0.0556 -0.3111
81652SOL    HW162566   9.976   0.480   4.632 -0.9083  0.3228 -1.2827
81652SOL    HW262567  10.123   0.457   4.657 -1.2707 -0.2504  0.4835
81653SOL     OW62568   4.241   3.492  12.150  0.0951 -0.6721 -0.2753
81653SOL    HW162569   4.264   3.584  12.144  0.4228 -0.8319 -1.8280
81653SOL    HW262570   4.229   3.476  12.244 -3.0228  1.6734 -0.1370
81654SOL     OW62571   7.881   0.590   1.689 -0.1209  0.5943  0.3214
81654SOL    HW162572   7.906   0.510   1.735 -1.2298  0.5159  0.7974
81654SOL    HW262573   7.806   0.624   1.737 -2.7497 -0.6250 -2.5789
81655SOL     OW62574  11.742  11.088   9.967 -0.2836 -0.0697 -0.0529
81655SOL    HW162575  11.800  11.145   9.917  0.7258 -0.7063  0.3711
81655SOL    HW262576  11.673  11.064   9.904  0.2887  0.1315 -0.7701
81656SOL     OW62577   6.407   4.555   8.176 -0.3652 -0.1530  0.2701
81656SOL    HW162578   6.362   4.639   8.188 -2.1023 -1.2478  1.9563
81656SOL    HW262579   6.482   4.576   8.121  0.3781  2.8880  2.2015
81657SOL     OW62580   7.418   9.188  11.952  0.1781 -0.0585  0.0225
81657SOL    HW162581   7.420   9.204  12.046  0.4688  0.8855 -0.1403
81657SOL    HW262582   7.332   9.146  11.937  0.7946 -1.7380  0.9142
81658SOL     OW62583   7.764   2.189   2.001  0.3648 -0.1604  0.2994
81658SOL    HW162584   7.788   2.187   1.909  2.3603  0.8499  0.7434
81658SOL    HW262585   7.739   2.280   2.017  2.1390  0.1998  1.2077
81659SOL     OW62586   9.466   8.537  13.262  0.4619 -0.0159  0.1689
81659SOL    HW162587   9.560   8.549  13.278  0.4659 -1.0702  1.0364
81659SOL    HW262588   9.440   8.616  13.214  1.6637  0.5763  0.4506
81660SOL     OW62589  14.031  10.203   5.354 -0.3748 -0.3463  0.0682
81660SOL    HW162590  14.103  10.264   5.366 -0.5565  0.3666 -2.0517
81660SOL    HW262591  14.051  10.130   5.412  2.5148 -0.5663 -1.0694
81661SOL     OW62592   9.091   2.268  12.095 -0.2543  0.2361  0.0199
81661SOL    HW162593   8.999   2.264  12.121 -0.6961  1.0374 -1.3014
81661SOL    HW262594   9.138   2.222  12.164 -1.8800 -2.2440 -0.4131
81662SOL     OW62595  13.701  12.119   6.707  0.0357  0.1190 -0.2084
81662SOL    HW162596  13.614  12.079   6.713 -0.2238  0.7479  0.4367
81662SOL    HW262597  13.749  12.064   6.645 -0.6962 -0.4642 -0.2722
81663SOL     OW62598   6.198   7.292  10.818 -0.4755 -0.0378  0.8090
81663SOL    HW162599   6.257   7.221  10.791 -1.2420 -1.0323  1.6711
81663SOL    HW262600   6.123   7.284  10.759 -0.5408  0.0873  0.8767
81664SOL     OW62601   3.247   1.006   6.610 -0.4898 -0.0213  0.0669
81664SOL    HW162602   3.274   0.966   6.693 -1.4765 -0.1433  0.3395
81664SOL    HW262603   3.158   0.974   6.597 -0.7101  0.8336 -0.5212
81665SOL     OW62604   8.477   8.117  12.412 -0.3133 -0.5834 -0.3387
81665SOL    HW162605   8.422   8.083  12.342 -0.1186 -0.1191 -0.7181
81665SOL    HW262606   8.566   8.092  12.387 -0.0043  1.3183 -1.3094
81666SOL     OW62607  12.975  12.707   6.205 -0.4611 -0.7282  0.3252
81666SOL    HW162608  13.055  12.703   6.257  0.3052  1.1247 -0.5911
81666SOL    HW262609  12.976  12.627   6.153  0.2585 -1.2258  1.0868
81667SOL     OW62610  12.930   7.635  11.374 -0.0719  0.0833  0.1317
81667SOL    HW162611  12.847   7.610  11.333  0.3876 -3.7888  1.1228
81667SOL    HW262612  12.906   7.702  11.437 -1.9223  1.1418 -1.5654
81668SOL     OW62613  10.757  13.743   9.423 -0.0668 -0.0514 -0.3003
81668SOL    HW162614  10.668  13.739   9.386 -0.0108 -0.2049 -0.4180
81668SOL    HW262615  10.761  13.828   9.466 -1.1327 -1.0122  1.8493
81669SOL     OW62616   1.920   5.893   6.821 -0.5581 -0.2886 -0.1988
81669SOL    HW162617   1.975   5.933   6.754 -2.1125  0.3008 -1.1628
81669SOL    HW262618   1.938   5.799   6.815  1.5472  0.0007  0.6554
81670SOL     OW62619   9.858  11.082   9.832  0.3465 -0.3229  0.1957
81670SOL    HW162620   9.764  11.075   9.820  0.1783  1.0993  0.5470
81670SOL    HW262621   9.890  10.992   9.824 -1.0834 -0.8845  0.5194
81671SOL     OW62622  13.453   3.399   7.719 -0.0751 -0.4965 -0.2610
81671SOL    HW162623  13.525   3.430   7.774 -0.0441  1.5426 -1.3608
81671SOL    HW262624  13.485   3.317   7.681  1.2206 -0.1748  0.1112
81672SOL     OW62625  14.010   8.708   8.884 -0.2667 -0.1744 -0.7728
81672SOL    HW162626  13.951   8.701   8.959 -0.0686  0.6719 -0.5273
81672SOL    HW262627  13.970   8.775   8.828  0.3510  0.2640 -0.6970
81673SOL     OW62628   2.436  10.608  12.013 -0.0543  0.4321 -0.2470
81673SOL    HW162629   2.364  10.561  12.055  0.1294  0.9980  0.7380
81673SOL    HW262630   2.401  10.637  11.929 -0.1099 -1.6163 -0.9834
81674SOL     OW62631   7.116   8.405   1.201 -0.6856 -0.2210 -0.2080
81674SOL    HW162632   7.155   8.343   1.138  0.6185 -0.0492  0.3963
81674SOL    HW262633   7.184   8.470   1.215 -1.0577 -0.1095  1.1784
81675SOL     OW62634  10.835  10.511  10.562 -0.6798 -0.1105  0.1924
81675SOL    HW162635  10.833  10.536  10.470  0.2909  0.3116  0.2706
81675SOL    HW262636  10.862  10.591  10.608 -1.5271 -0.2027  0.8901
81676SOL     OW62637   6.688  12.340  11.324 -0.1926  0.1448 -0.5063
81676SOL    HW162638   6.700  12.382  11.409  2.1845  2.8408 -2.0233
81676SOL    HW262639   6.763  12.282  11.315 -0.6967 -0.5025 -0.5880
81677SOL     OW62640   9.243  12.188   4.907 -0.0664  0.3512  0.0384
81677SOL    HW162641   9.151  12.203   4.927 -0.3725 -0.1926 -0.9075
81677SOL    HW262642   9.261  12.246   4.833 -0.0370 -0.5738 -0.6945
81678SOL     OW62643  12.766   3.363   6.376 -0.4984 -0.2075 -0.0494
81678SOL    HW162644  12.795   3.448   6.342 -1.2530 -0.3315 -1.0552
81678SOL    HW262645  12.744   3.381   6.467 -2.0088  1.0415 -0.6073
81679SOL     OW62646  11.882   3.248  13.029  0.3288 -0.0943 -0.1228
81679SOL    HW162647  11.823   3.314  12.992  1.9582  1.5465  0.0337
81679SOL    HW262648  11.897   3.279  13.119  0.7451 -0.9654  0.1123
81680SOL     OW62649   3.554   6.609   0.959 -0.4014 -0.1617  0.2860
81680SOL    HW162650   3.517   6.538   0.907  0.1238 -0.9170  0.9100
81680SOL    HW262651   3.630   6.569   1.003 -0.0426  0.8092  0.5771
81681SOL     OW62652   4.148   1.603   2.985 -0.1263 -0.7395  0.1804
81681SOL    HW162653   4.206   1.546   2.934  0.0213 -1.2591  0.9030
81681SOL    HW262654   4.196   1.684   2.995 -0.2986 -0.5020 -0.7855
81682SOL     OW62655   2.103   4.892   3.407 -0.2584 -0.1884 -0.0417
81682SOL    HW162656   2.046   4.954   3.452 -0.6623  0.7484 -1.7280
81682SOL    HW262657   2.120   4.933   3.322 -0.5073 -2.3512 -1.2328
81683SOL     OW62658  10.209   1.311   7.681  0.1425 -0.5608 -0.0953
81683SOL    HW162659  10.238   1.368   7.752  0.1290  0.0654 -0.5846
81683SOL    HW262660  10.179   1.232   7.725  1.1077 -0.5993  0.5327
81684SOL     OW62661  11.152  12.138  11.840 -0.3098 -0.4240  0.2166
81684SOL    HW162662  11.127  12.088  11.917  0.3230 -0.7660  0.2016
81684SOL    HW262663  11.193  12.218  11.874 -0.7704 -0.1880  0.2326
81685SOL     OW62664   3.691   0.511   0.128  0.1539  0.2033  0.0486
81685SOL    HW162665   3.679   0.582   0.190 -0.8840 -0.7103  0.9507
81685SOL    HW262666   3.782   0.517   0.101  0.5495  0.7986  1.4458
81686SOL     OW62667   5.364   2.200  13.706  0.2710  0.3748  0.1608
81686SOL    HW162668   5.279   2.228  13.669  0.8718  1.1391 -0.6869
81686SOL    HW262669   5.379   2.259  13.779 -0.3125 -0.3071  0.8484
81687SOL     OW62670   1.241   8.097   2.857 -0.2316  0.2568 -0.0460
81687SOL    HW162671   1.288   8.111   2.940 -1.1373  2.0117  0.2277
81687SOL    HW262672   1.308   8.067   2.796  0.9053  1.0328  0.7763
81688SOL     OW62673   1.382   0.563  13.197 -0.0714 -0.8402 -0.2525
81688SOL    HW162674   1.341   0.561  13.111 -1.1298 -0.4539  0.2316
81688SOL    HW262675   1.348   0.642  13.239  2.8631  0.7522 -0.6236
81689SOL     OW62676  11.980  10.670   9.707  0.1879  0.7549  0.0021
81689SOL    HW162677  11.923  10.614   9.655 -2.2259  1.8969  1.2408
81689SOL    HW262678  12.005  10.616   9.782 -0.3901  0.6707  0.1357
81690SOL     OW62679  13.411  12.332   9.482 -0.1462  0.4402  0.0992
81690SOL    HW162680  13.401  12.383   9.402 -1.6479 -0.2277 -0.1695
81690SOL    HW262681  13.337  12.271   9.482  1.6576 -1.9344  0.2533
81691SOL     OW62682   2.728   8.896  12.128  0.7426  0.9217  0.3181
81691SOL    HW162683   2.768   8.855  12.052 -1.4959 -1.1884  0.1530
81691SOL    HW262684   2.657   8.949  12.093 -0.9614 -0.8557  0.8544
81692SOL     OW62685   9.338  11.586   7.324 -0.1351 -0.1093 -0.0625
81692SOL    HW162686   9.317  11.639   7.247  1.0672 -0.5963 -0.7489
81692SOL    HW262687   9.278  11.511   7.318 -0.3074  0.0473 -0.3203
81693SOL     OW62688   2.869  11.133  12.123  0.2653 -0.6068 -0.6013
81693SOL    HW162689   2.856  11.066  12.056  0.5650 -0.8645 -0.4102
81693SOL    HW262690   2.844  11.215  12.081  3.6024 -0.2339 -2.2165
81694SOL     OW62691   5.167   1.591  13.470  0.0604 -0.1055 -0.0148
81694SOL    HW162692   5.239   1.530  13.456  1.6317  1.5209  0.5859
81694SOL    HW262693   5.133   1.569  13.556  0.0659 -0.6521 -0.1461
81695SOL     OW62694   9.092   1.912   5.532 -0.3654 -0.3975  0.1272
81695SOL    HW162695   9.014   1.860   5.550 -0.8834  0.5282  0.6194
81695SOL    HW262696   9.064   2.002   5.544  0.3542  0.0480 -1.3049
81696SOL     OW62697   5.214   3.503   0.149 -0.4027  0.2175 -0.4097
81696SOL    HW162698   5.155   3.457   0.209 -0.8269  2.2077  0.7912
81696SOL    HW262699   5.302   3.481   0.180 -0.6142  1.2433  1.0305
81697SOL     OW62700   8.216   5.912   0.440  0.1114  0.1810 -0.2588
81697SOL    HW162701   8.242   5.851   0.510 -1.3083 -0.2269 -0.0641
81697SOL    HW262702   8.286   5.905   0.376  0.6728 -0.6032  0.4125
81698SOL     OW62703  10.890   1.199   9.144 -0.3325 -0.2846 -0.7354
81698SOL    HW162704  10.874   1.239   9.058 -1.3271  1.9046  0.4001
81698SOL    HW262705  10.986   1.192   9.149 -0.2481 -0.2053 -1.9069
81699SOL     OW62706  11.134  12.696   1.253 -0.5788 -0.6403  0.2039
81699SOL    HW162707  11.150  12.735   1.339 -1.0888  0.4939 -0.1899
81699SOL    HW262708  11.039  12.682   1.250 -0.7450  0.5065 -0.6272
81700SOL     OW62709  12.857   9.174  14.087  0.4053 -0.1875  0.0927
81700SOL    HW162710  12.896   9.215  14.009 -1.9558  0.3489 -0.8797
81700SOL    HW262711  12.915   9.100  14.106  2.2086  0.9054 -0.8835
81701SOL     OW62712   2.179   1.664   8.567  0.2327  0.5479 -0.4643
81701SOL    HW162713   2.252   1.608   8.539  0.0921  0.6441 -1.0445
81701SOL    HW262714   2.181   1.738   8.506  0.3702  1.1405  0.2522
81702SOL     OW62715  10.892   2.104   4.279  0.2465  0.3414  0.2939
81702SOL    HW162716  10.926   2.170   4.339  1.6859 -0.1256  0.0398
81702SOL    HW262717  10.920   2.020   4.317 -0.4864 -0.0693 -0.0348
81703SOL     OW62718   7.623   5.947   4.905  0.0095  0.1699 -0.1792
81703SOL    HW162719   7.652   5.863   4.939 -0.9011  0.9790  2.9813
81703SOL    HW262720   7.704   5.995   4.886  0.5350 -0.9829 -0.9871
81704SOL     OW62721   3.456   0.141  12.664 -0.3946  0.3252 -0.1115
81704SOL    HW162722   3.531   0.158  12.607 -0.1116 -0.3238  0.0527
81704SOL    HW262723   3.454   0.215  12.724 -0.2860  0.6763 -0.5360
81705SOL     OW62724   9.250   3.649  13.599 -0.0307  0.2546  0.5027
81705SOL    HW162725   9.260   3.563  13.560 -1.1759 -0.4033  1.5780
81705SOL    HW262726   9.204   3.633  13.682 -3.4652  2.1499 -0.8098
81706SOL     OW62727  10.248   4.377  10.137  1.0217  0.1473 -0.1438
81706SOL    HW162728  10.277   4.425  10.059  0.0072 -1.2755 -1.4313
81706SOL    HW262729  10.164   4.339  10.112  0.3865  0.1272  1.8623
81707SOL     OW62730  13.069   8.250   1.185 -0.1396  0.3454  0.2422
81707SOL    HW162731  13.007   8.218   1.119  1.1769 -0.0926 -0.8207
81707SOL    HW262732  13.083   8.174   1.243  1.6160 -0.5541 -1.2458
81708SOL     OW62733   5.766   0.890   6.382 -0.2039  0.3614 -0.0320
81708SOL    HW162734   5.771   0.983   6.359  0.9458 -0.1111 -1.9780
81708SOL    HW262735   5.817   0.883   6.463  1.4058  1.1762 -0.9072
81709SOL     OW62736  11.073   1.791  13.312  0.0114 -0.4769  0.5674
81709SOL    HW162737  11.100   1.873  13.272  2.1129 -0.0894  2.5438
81709SOL    HW262738  11.059   1.731  13.238 -0.6514  1.3518 -0.8595
81710SOL     OW62739   3.385   5.845   7.057  0.0598  0.4222  0.2407
81710SOL    HW162740   3.334   5.826   7.136 -0.3223  2.5229  0.5615
81710SOL    HW262741   3.327   5.898   7.003  0.7642  0.0629 -0.8984
81711SOL     OW62742  12.178   2.546   6.226 -0.0392 -0.1801 -0.0774
81711SOL    HW162743  12.229   2.537   6.306 -0.9910 -1.9544  0.3923
81711SOL    HW262744  12.241   2.576   6.160  0.9570  0.4019  1.0939
81712SOL     OW62745   5.598   5.102   0.871  0.5874  0.8964 -0.2548
81712SOL    HW162746   5.641   5.020   0.891  1.0321  1.6102  1.9617
81712SOL    HW262747   5.511   5.077   0.839  0.5329 -0.4223  0.8609
81713SOL     OW62748  12.556   6.902  12.197 -0.2245 -0.6884 -0.3315
81713SOL    HW162749  12.635   6.848  12.197  1.4751  1.5601  1.7799
81713SOL    HW262750  12.569   6.962  12.123 -0.5457 -1.0726 -0.7032
81714SOL     OW62751  12.052   3.617  11.983 -0.5810  0.3776 -0.2661
81714SOL    HW162752  12.109   3.646  12.055  0.7441 -0.1876 -1.0454
81714SOL    HW262753  11.973   3.585  12.027 -0.2035  0.9415  0.8723
81715SOL     OW62754   6.791   8.837  11.332  0.3541 -0.6972  0.1275
81715SOL    HW162755   6.803   8.804  11.420 -0.0943 -1.1248  0.0281
81715SOL    HW262756   6.878   8.828  11.291  0.5188 -0.6554  0.4662
81716SOL     OW62757   3.259  12.292   3.379  0.0350 -0.0956 -0.1745
81716SOL    HW162758   3.235  12.367   3.431  0.8159  0.2219 -0.2550
81716SOL    HW262759   3.264  12.219   3.441 -1.4389 -0.2536 -0.2141
81717SOL     OW62760   0.784   0.921   9.564 -0.2499 -0.3652 -0.2689
81717SOL    HW162761   0.758   0.958   9.648 -0.0656 -2.1702  0.6060
81717SOL    HW262762   0.875   0.894   9.576 -0.1853 -0.5503 -1.0920
81718SOL     OW62763   3.801   4.985  12.222 -0.2343  0.1954 -0.6307
81718SOL    HW162764   3.716   4.944  12.238  0.7069 -1.3642  0.6284
81718SOL    HW262765   3.803   4.999  12.127 -2.4667  1.6548 -0.5450
81719SOL     OW62766   3.429   4.088  10.501  0.2998 -0.2542 -0.5427
81719SOL    HW162767   3.341   4.098  10.465  0.7357  2.3082 -1.1044
81719SOL    HW262768   3.425   4.132  10.586  1.2318  0.7243 -0.9801
81720SOL     OW62769  12.636  13.478   4.010  0.5448 -1.0828  0.5480
81720SOL    HW162770  12.610  13.526   3.931 -0.3942 -1.2408  0.7425
81720SOL    HW262771  12.676  13.545   4.066  0.0125 -0.6928  0.4735
81721SOL     OW62772   2.811   3.073  11.492 -0.6079 -0.1316 -0.2236
81721SOL    HW162773   2.718   3.073  11.514 -0.8210 -0.6811 -1.0819
81721SOL    HW262774   2.837   3.165  11.494 -1.6322  0.2204 -1.8361
81722SOL     OW62775  10.623   4.456   1.050 -0.6489 -0.1942  0.0548
81722SOL    HW162776  10.624   4.520   1.121  1.4206 -1.2758  1.0902
81722SOL    HW262777  10.586   4.377   1.090 -0.1909 -0.5816 -0.2763
81723SOL     OW62778   7.517   4.493   2.385 -0.4303  0.0957 -0.3701
81723SOL    HW162779   7.440   4.543   2.410 -0.3640  0.8153 -1.5295
81723SOL    HW262780   7.496   4.402   2.407 -0.8496  0.5223  1.0586
81724SOL     OW62781   1.630  11.039   7.838  0.0290 -0.4562 -0.0718
81724SOL    HW162782   1.664  10.965   7.887  0.7784 -0.3807 -0.4729
81724SOL    HW262783   1.536  11.020   7.828 -0.0683 -0.6440  1.0607
81725SOL     OW62784  10.912   0.385  11.377  1.0436  0.6066 -0.7804
81725SOL    HW162785  10.963   0.458  11.342  3.2498 -0.2893  0.4002
81725SOL    HW262786  10.951   0.307  11.337  0.2468 -0.0942 -0.2332
81726SOL     OW62787   7.407   9.949   9.470 -0.5353  0.4684 -0.2331
81726SOL    HW162788   7.478   9.950   9.536  1.2807 -1.2064 -2.0235
81726SOL    HW262789   7.437  10.011   9.403 -1.6167  0.9980 -0.2383
81727SOL     OW62790   2.151  10.789   4.597 -0.3132  0.8054 -0.0328
81727SOL    HW162791   2.085  10.725   4.571 -0.6099  1.0131  0.2049
81727SOL    HW262792   2.220  10.736   4.638 -0.8218  0.6877  0.6948
81728SOL     OW62793   9.066   8.427   1.439  0.1281 -0.3045  0.2699
81728SOL    HW162794   9.091   8.441   1.531 -1.6827 -0.4109  0.8033
81728SOL    HW262795   9.128   8.361   1.407  0.7773 -0.2670  1.4066
81729SOL     OW62796   9.003   6.831  13.360  0.4369  0.1021 -0.5288
81729SOL    HW162797   8.978   6.778  13.437  0.5205  0.2626 -0.3906
81729SOL    HW262798   8.961   6.916  13.375 -0.3543 -0.1619 -1.1341
81730SOL     OW62799   0.476   7.138  13.990 -0.2520  0.4519 -0.3714
81730SOL    HW162800   0.464   7.046  14.016  1.9070  0.2195  0.0447
81730SOL    HW262801   0.457   7.139  13.896  1.4442 -0.8473 -0.7833
81731SOL     OW62802  13.999   0.276  10.474 -0.4087 -0.2434 -0.3259
81731SOL    HW162803  13.936   0.205  10.483  0.4059 -0.9756 -0.2674
81731SOL    HW262804  14.077   0.235  10.436 -0.4539  0.9286 -1.7775
81732SOL     OW62805   9.125   4.750  10.432 -0.1709 -0.5479  0.4071
81732SOL    HW162806   9.111   4.694  10.356  0.5963 -0.7151  0.3846
81732SOL    HW262807   9.041   4.748  10.478 -0.3959 -1.0863 -0.0099
81733SOL     OW62808   1.601  12.761   1.479 -0.2040 -0.0136  0.0779
81733SOL    HW162809   1.566  12.842   1.442 -1.8054 -0.5030  0.4403
81733SOL    HW262810   1.585  12.769   1.573  1.0489 -0.1057  0.3216
81734SOL     OW62811  14.020   3.181   5.104  0.0062 -0.2809  0.1703
81734SOL    HW162812  14.006   3.121   5.031 -1.1764 -1.4023  1.2577
81734SOL    HW262813  14.009   3.126   5.182 -3.1436  1.6670  1.2680
81735SOL     OW62814   3.007   2.662   9.010  0.2811  0.1351 -0.0311
81735SOL    HW162815   3.063   2.586   9.026 -0.5205 -0.2032  1.3215
81735SOL    HW262816   3.020   2.719   9.085  0.1703  0.9128 -0.5879
81736SOL     OW62817   3.831   6.066   2.186 -0.3156 -0.3380  0.7872
81736SOL    HW162818   3.844   5.975   2.212 -0.8042 -0.5973  0.1496
81736SOL    HW262819   3.895   6.116   2.238 -0.3545 -0.9884  1.4649
81737SOL     OW62820   4.268   5.274  10.302  0.0677  0.1184 -0.0155
81737SOL    HW162821   4.231   5.345  10.250  1.7337  3.8104  3.3068
81737SOL    HW262822   4.194   5.239  10.352 -0.6834 -0.2525 -1.3263
81738SOL     OW62823   1.282   6.466  13.760  0.1090  0.1948 -0.1150
81738SOL    HW162824   1.330   6.402  13.812  0.6710  1.8658  1.5478
81738SOL    HW262825   1.318   6.457  13.671  3.6477  1.3372  1.0104
81739SOL     OW62826  13.618   2.275   3.990 -0.3238  0.0346 -0.2409
81739SOL    HW162827  13.704   2.317   3.996  0.1009 -0.4408 -2.2439
81739SOL    HW262828  13.556   2.344   4.012  0.5346  0.5424  0.6523
81740SOL     OW62829   5.677  13.558   1.157  0.3456 -0.0253  0.2724
81740SOL    HW162830   5.627  13.548   1.076 -0.7626 -0.9385  1.0306
81740SOL    HW262831   5.753  13.611   1.133  0.0611 -0.3230 -1.3627
81741SOL     OW62832   5.492   0.166   7.135  0.1140 -0.3103 -0.3895
81741SOL    HW162833   5.468   0.249   7.175 -0.0220 -0.4546 -0.1691
81741SOL    HW262834   5.562   0.132   7.191  2.1472  0.9508 -2.0218
81742SOL     OW62835   9.448  13.890  13.569  0.4257  0.3911 -0.5752
81742SOL    HW162836   9.462  13.887  13.474  2.0792 -1.0151 -0.3544
81742SOL    HW262837   9.416  13.978  13.587  1.7246  1.2625 -2.2655
81743SOL     OW62838  10.563  13.192   9.266  0.4661 -0.2387  0.3258
81743SOL    HW162839  10.565  13.276   9.220  0.5219 -0.0382  0.6886
81743SOL    HW262840  10.653  13.158   9.258  0.3537 -0.4414 -0.1349
81744SOL     OW62841  13.652   5.194  13.759 -0.0754  0.5538 -0.1617
81744SOL    HW162842  13.617   5.105  13.766 -3.2714  1.6909 -0.2312
81744SOL    HW262843  13.585   5.249  13.800  1.8497  2.9562 -0.0427
81745SOL     OW62844   2.932   1.959  11.510 -0.0666 -0.5267  0.1058
81745SOL    HW162845   3.009   1.980  11.563 -1.2886 -0.4960  1.9470
81745SOL    HW262846   2.958   1.882  11.459  1.0970 -0.6554  0.8605
81746SOL     OW62847  10.545  14.063   0.826  0.2073  0.5356  0.4839
81746SOL    HW162848  10.575  13.987   0.877  2.8865  1.1976  0.0423
81746SOL    HW262849  10.452  14.046   0.811  0.4997 -2.2134  1.1673
81747SOL     OW62850  13.681   3.422   4.233 -0.4788 -0.3937 -0.3377
81747SOL    HW162851  13.741   3.387   4.298 -0.0844 -0.5424 -0.7704
81747SOL    HW262852  13.637   3.495   4.277  0.8408  0.4582 -0.3584
81748SOL     OW62853   9.116   2.285  11.709 -0.0191 -0.1431 -0.2008
81748SOL    HW162854   9.139   2.354  11.771 -0.4424 -0.2202  0.0422
81748SOL    HW262855   9.126   2.326  11.623 -1.9810  0.7896 -0.0459
81749SOL     OW62856  11.503   0.508   1.427 -0.0088  0.0571  0.0930
81749SOL    HW162857  11.496   0.590   1.476  2.2560  1.5996 -1.9067
81749SOL    HW262858  11.578   0.521   1.369 -1.6204 -2.1325 -2.7691
81750SOL     OW62859   8.421   5.353  11.320 -0.5436 -0.2254  0.2486
81750SOL    HW162860   8.501   5.326  11.274 -1.0811  1.8061 -2.1538
81750SOL    HW262861   8.444   5.349  11.413  2.4505  0.4136 -0.3371
81751SOL     OW62862   3.604   2.314   7.972 -0.2300 -0.2466  0.1806
81751SOL    HW162863   3.668   2.358   8.028 -0.5938  0.1538  0.2888
81751SOL    HW262864   3.654   2.286   7.895 -0.2433  1.5384 -0.5177
81752SOL     OW62865  12.459   9.081   9.290  0.4850 -0.0362  0.0488
81752SOL    HW162866  12.466   9.175   9.307 -0.5930  0.0108  0.2905
81752SOL    HW262867  12.454   9.041   9.377  0.9870 -0.3302 -0.0535
81753SOL     OW62868   8.674   5.497   0.712  0.6022  0.0239 -0.4085
81753SOL    HW162869   8.581   5.477   0.720  0.8021 -0.8633 -0.2199
81753SOL    HW262870   8.704   5.512   0.802  0.6371  0.3620 -0.4732
81754SOL     OW62871  12.640   8.784   7.674 -0.3205  0.2590 -0.1910
81754SOL    HW162872  12.561   8.835   7.652 -1.5410 -1.9966 -1.4241
81754SOL    HW262873  12.610   8.723   7.741  0.5252 -0.2876 -0.3065
81755SOL     OW62874   9.489   5.409  13.324  0.5456 -0.0149 -0.4448
81755SOL    HW162875   9.559   5.402  13.259 -0.2681 -0.8057 -1.2662
81755SOL    HW262876   9.409   5.394  13.274 -0.4095  2.6995  0.1203
81756SOL     OW62877  11.399  10.056  12.284 -0.0554 -0.0445  0.0192
81756SOL    HW162878  11.315  10.024  12.252  0.2062 -1.2892  0.5185
81756SOL    HW262879  11.452  10.066  12.206 -0.8353  1.3509 -0.3710
81757SOL     OW62880   9.518  13.287  12.977  0.2295  0.6014  0.0356
81757SOL    HW162881   9.471  13.283  12.894 -0.3940  0.2357  0.4051
81757SOL    HW262882   9.452  13.268  13.044  0.9732 -0.2753  0.5348
81758SOL     OW62883   3.156   1.952  12.533  0.6076  0.7116  0.0852
81758SOL    HW162884   3.068   1.961  12.495  0.2071  0.6884  0.9883
81758SOL    HW262885   3.154   2.007  12.611  1.7118  1.4757 -0.4058
81759SOL     OW62886   4.569   2.698   0.446  0.0115  0.3212 -0.1334
81759SOL    HW162887   4.652   2.658   0.422  0.2552  0.4294  0.5093
81759SOL    HW262888   4.521   2.629   0.492 -1.6937 -0.8782 -3.3805
81760SOL     OW62889  11.768   2.265  10.600 -0.3767 -0.0368  0.3657
81760SOL    HW162890  11.839   2.244  10.661  0.2597 -0.5317 -0.5249
81760SOL    HW262891  11.798   2.344  10.555 -0.5437 -0.0515  0.2273
81761SOL     OW62892  12.375   5.649   2.840  0.0048  0.3155  0.3267
81761SOL    HW162893  12.398   5.729   2.793 -0.3846  0.8483  1.0262
81761SOL    HW262894  12.405   5.664   2.930 -0.9557  0.0970  0.7029
81762SOL     OW62895  11.946   5.684   3.751  0.0191  0.3173 -0.4841
81762SOL    HW162896  11.986   5.624   3.813 -1.1883 -1.1244 -1.0280
81762SOL    HW262897  11.860   5.646   3.732 -0.1258  1.3240 -2.1275
81763SOL     OW62898  12.785   2.896  12.855 -0.1314  0.8921 -0.5390
81763SOL    HW162899  12.776   2.954  12.780  0.1974  1.2959 -0.2709
81763SOL    HW262900  12.759   2.810  12.823  1.1605  0.8094 -1.4493
81764SOL     OW62901   4.885  13.408  12.440  0.2687 -0.7445  0.2234
81764SOL    HW162902   4.809  13.462  12.418 -0.6065 -1.8661  0.3563
81764SOL    HW262903   4.863  13.370  12.525  1.9932  0.6592  1.3518
81765SOL     OW62904  13.309   5.882  10.143 -0.0537  0.1142  0.3201
81765SOL    HW162905  13.234   5.843  10.099  0.1162  0.2920 -0.1320
81765SOL    HW262906  13.376   5.813  10.143  0.7571  0.8225 -1.7585
81766SOL     OW62907   2.482  13.075   8.176 -0.4792 -0.4333  0.4555
81766SOL    HW162908   2.565  13.026   8.174 -1.1937 -1.7618  1.9093
81766SOL    HW262909   2.499  13.147   8.236  0.1276  0.3286 -0.5857
81767SOL     OW62910   2.014   8.628  12.031 -0.2496 -0.2524  0.2324
81767SOL    HW162911   2.072   8.624  12.106  1.0020  0.8931 -0.6280
81767SOL    HW262912   2.054   8.569  11.967 -2.1228 -2.4187  0.9356
81768SOL     OW62913   1.246   0.450   5.533  0.6851  0.9469 -0.0882
81768SOL    HW162914   1.306   0.499   5.476  1.2532  0.4952  0.1113
81768SOL    HW262915   1.163   0.450   5.486  1.2040  0.3821 -1.0239
81769SOL     OW62916   0.031   3.204  11.214 -0.0816  0.5393  0.2918
81769SOL    HW162917  -0.048   3.201  11.160 -0.5738  2.5141  0.8210
81769SOL    HW262918   0.096   3.248  11.159  0.1354  0.4547  0.4785
81770SOL     OW62919   5.313   1.775   3.243 -0.4785  0.7006 -0.1014
81770SOL    HW162920   5.404   1.744   3.248 -0.3309  0.4040 -2.8444
81770SOL    HW262921   5.307   1.842   3.311  2.0608  1.3125 -0.3689
81771SOL     OW62922   9.789  12.280   0.870  0.0856 -0.1777 -0.3325
81771SOL    HW162923   9.841  12.355   0.898 -0.3606  0.7999 -1.9711
81771SOL    HW262924   9.777  12.228   0.949  0.2369  1.5750  0.8919
81772SOL     OW62925  12.001   8.877   3.997 -0.4311  0.0554  0.4363
81772SOL    HW162926  11.911   8.911   3.995 -0.5740 -0.1351  2.0922
81772SOL    HW262927  12.023   8.863   3.905 -1.9947  0.3792 -0.0273
81773SOL     OW62928   5.976   1.315   9.529 -0.6195  0.4575 -0.4441
81773SOL    HW162929   5.962   1.299   9.622  2.7220 -0.0881  0.0907
81773SOL    HW262930   5.979   1.411   9.522 -1.5168  0.5149 -0.1233
81774SOL     OW62931   8.666   0.089   0.233 -0.1567 -0.0321 -0.0171
81774SOL    HW162932   8.715   0.032   0.174 -0.1207  1.1152 -1.1530
81774SOL    HW262933   8.584   0.106   0.187 -1.4516 -1.5077  1.6309
81775SOL     OW62934   9.795  12.018   6.393  0.3927  0.1286 -0.1219
81775SOL    HW162935   9.831  12.059   6.471  0.1275 -0.6270  0.4127
81775SOL    HW262936   9.773  12.090   6.335  1.3241  0.6661  0.1811
81776SOL     OW62937   6.467   1.048   5.170  0.0722 -0.5054 -0.1583
81776SOL    HW162938   6.439   0.957   5.171 -2.8454  0.2238 -2.2682
81776SOL    HW262939   6.549   1.047   5.121 -1.0241 -1.8096 -2.0942
81777SOL     OW62940   6.251   0.127  10.265 -0.0727  0.1203  0.1844
81777SOL    HW162941   6.250   0.139  10.170  3.7296 -1.5669 -0.2540
81777SOL    HW262942   6.306   0.199  10.298  0.3174 -0.4498  0.8149
81778SOL     OW62943   5.645  11.986   1.812  0.0448 -0.1780 -0.3768
81778SOL    HW162944   5.680  12.072   1.788  1.3500 -0.6986 -0.4244
81778SOL    HW262945   5.720  11.927   1.808 -0.7214 -1.2355  0.1579
81779SOL     OW62946   1.220   6.505   1.268  0.3913 -0.0205  0.0136
81779SOL    HW162947   1.149   6.441   1.278  0.0971 -0.0663 -2.0102
81779SOL    HW262948   1.183   6.587   1.302  0.2812 -0.5722  1.3084
81780SOL     OW62949   7.079   8.946   4.403  0.1077 -0.1136  0.2458
81780SOL    HW162950   7.013   8.894   4.358  1.2931 -1.7652  0.3298
81780SOL    HW262951   7.030   9.017   4.444 -1.3463 -0.1768 -1.3000
81781SOL     OW62952   0.483  13.665  10.960  0.1058 -0.3597 -0.1289
81781SOL    HW162953   0.391  13.647  10.939  0.6674 -0.9357 -2.3472
81781SOL    HW262954   0.523  13.578  10.968  1.3998 -0.3077 -4.0645
81782SOL     OW62955   9.711  11.345  12.654  0.0267  0.1384 -0.1928
81782SOL    HW162956   9.760  11.427  12.666 -1.0405  0.5177  2.0190
81782SOL    HW262957   9.777  11.277  12.667  0.7578  0.6220 -1.2323
81783SOL     OW62958  11.343  11.341  10.175 -0.2646  0.0980  0.8370
81783SOL    HW162959  11.286  11.397  10.123 -0.4283  0.2770  1.2117
81783SOL    HW262960  11.307  11.253  10.163 -1.5028  0.3848  2.2272
81784SOL     OW62961  13.348  10.403   1.521  0.1002  0.0172 -0.5441
81784SOL    HW162962  13.433  10.445   1.536 -0.8556  1.1054  2.8562
81784SOL    HW262963  13.367  10.309   1.520  1.3414  0.2353  0.4252
81785SOL     OW62964   4.272   6.989   7.067 -0.1348  0.0307 -0.3842
81785SOL    HW162965   4.308   6.988   7.155 -0.1028 -0.4593 -0.4043
81785SOL    HW262966   4.316   7.063   7.024  0.8354 -0.5388 -0.4052
81786SOL     OW62967  10.027  10.887   8.679  0.5119 -0.0337 -0.2501
81786SOL    HW162968  10.097  10.945   8.709  0.6176 -0.2584 -0.0622
81786SOL    HW262969   9.958  10.946   8.650  1.4231  0.2521 -2.0274
81787SOL     OW62970   9.598  13.664  11.620 -0.2701  0.4406  0.4208
81787SOL    HW162971   9.504  13.678  11.630 -1.0694 -3.4654  0.1806
81787SOL    HW262972   9.620  13.600  11.688  2.0940  0.6882 -0.0085
81788SOL     OW62973   8.544   8.241   4.022  0.7225  0.0119 -0.6153
81788SOL    HW162974   8.460   8.261   3.981 -0.1185 -1.7974  0.0972
81788SOL    HW262975   8.525   8.167   4.080  2.6071  0.2200  0.3343
81789SOL     OW62976  13.655   2.219   6.996 -0.3196 -0.2409 -0.2406
81789SOL    HW162977  13.654   2.159   7.071 -0.4487  2.1685  1.8405
81789SOL    HW262978  13.740   2.205   6.955  0.4323 -0.5650  1.3317
81790SOL     OW62979   5.146   9.487  11.421 -0.1499 -0.0331 -0.1016
81790SOL    HW162980   5.215   9.493  11.355 -0.8196 -0.3866 -0.8542
81790SOL    HW262981   5.074   9.539  11.386 -0.4312 -0.0364  0.4542
81791SOL     OW62982   8.873  12.705   6.286 -0.0989 -0.2830  0.1917
81791SOL    HW162983   8.855  12.718   6.193 -2.2936  1.7695  0.8096
81791SOL    HW262984   8.941  12.771   6.306 -0.3968  0.0067  0.2550
81792SOL     OW62985   3.601   3.617  11.755  0.1829  0.3401 -0.0174
81792SOL    HW162986   3.589   3.709  11.778 -0.7573 -0.2003  1.8043
81792SOL    HW262987   3.695   3.601  11.765  0.1824  0.8235  0.7602
81793SOL     OW62988   3.973   7.985  13.718  0.3979 -0.1310  0.0114
81793SOL    HW162989   3.958   8.054  13.653 -0.5651 -0.5797 -0.2663
81793SOL    HW262990   3.898   7.993  13.777 -0.6230 -1.9876 -0.9653
81794SOL     OW62991   0.516  11.076   9.987 -0.0565 -0.2262  0.3099
81794SOL    HW162992   0.474  11.086   9.901 -0.1570  0.1988  0.4045
81794SOL    HW262993   0.501  11.160  10.030  1.1340  0.0272  0.2424
81795SOL     OW62994   7.979   5.329   7.024 -0.7607  0.1636 -0.3279
81795SOL    HW162995   7.915   5.395   7.000 -0.7561  0.3893  0.2571
81795SOL    HW262996   8.026   5.310   6.943  0.2902  2.0252 -0.2047
81796SOL     OW62997  11.180   3.599   9.405  0.1483  0.5969  0.6916
81796SOL    HW162998  11.214   3.588   9.315 -0.8451  0.7233  0.2934
81796SOL    HW262999  11.190   3.512   9.444 -1.2901 -0.0066 -0.2126
81797SOL     OW63000   4.424  11.645  10.787  0.3709  0.0310  0.0189
81797SOL    HW163001   4.507  11.656  10.741 -0.5723  0.8496 -1.5716
81797SOL    HW263002   4.442  11.671  10.877  1.6840  0.8156 -0.4535
81798SOL     OW63003   8.057   9.944   5.109  0.0284  0.0626  0.4027
81798SOL    HW163004   8.030   9.911   5.195 -1.6962  0.7985  0.1842
81798SOL    HW263005   7.998   9.902   5.047 -0.0756  1.0560 -0.2033
81799SOL     OW63006   9.539   5.626   4.751  0.3518  0.3265  0.1274
81799SOL    HW163007   9.477   5.573   4.801  0.9545  0.7099  1.3376
81799SOL    HW263008   9.556   5.702   4.807  0.5177  1.1367 -0.9858
81800SOL     OW63009   4.851   0.578   0.172  0.2636 -0.2441  0.3158
81800SOL    HW163010   4.886   0.590   0.260  1.3954  1.5354 -0.3177
81800SOL    HW263011   4.864   0.485   0.153 -1.3412 -1.0142  2.5106
81801SOL     OW63012  11.440   1.322  12.140  0.0768 -0.1009 -0.2423
81801SOL    HW163013  11.498   1.392  12.169  0.4093 -0.6333  0.3806
81801SOL    HW263014  11.359   1.336  12.189 -0.6493  1.1297 -1.7021
81802SOL     OW63015   7.999  10.727   1.307 -0.2806 -0.2343  0.0935
81802SOL    HW163016   7.915  10.762   1.336  0.5558  1.8082  0.1767
81802SOL    HW263017   8.003  10.750   1.214 -0.0870 -0.9218 -0.0731
81803SOL     OW63018   7.453  12.743   1.199  0.5556  0.3140  0.0365
81803SOL    HW163019   7.468  12.649   1.202  2.0742  0.5566  1.1046
81803SOL    HW263020   7.471  12.773   1.288 -1.3453  1.4336  0.1074
81804SOL     OW63021   4.752  13.009   9.161  0.1787  0.4631  0.5461
81804SOL    HW163022   4.687  12.964   9.214 -0.4396  2.2121  1.3684
81804SOL    HW263023   4.707  13.028   9.078 -0.7935  2.5298  1.4639
81805SOL     OW63024   9.213   7.198  11.061  0.6116  0.3451  0.0530
81805SOL    HW163025   9.287   7.238  11.015  0.7060  0.9001  0.6509
81805SOL    HW263026   9.220   7.233  11.150 -0.2162  0.1886  0.1858
81806SOL     OW63027  12.562  13.943   2.215 -0.0388 -0.4744  0.1317
81806SOL    HW163028  12.609  14.002   2.275  1.8366 -1.7984  0.0565
81806SOL    HW263029  12.532  14.001   2.144  1.6054  0.4654  0.1344
81807SOL     OW63030  12.794   7.710   2.453 -0.2085  0.4319  0.4469
81807SOL    HW163031  12.722   7.745   2.399 -0.3226 -1.7338 -0.9279
81807SOL    HW263032  12.873   7.733   2.405 -0.3481 -2.2992 -1.3253
81808SOL     OW63033  10.711   5.248   9.447  0.5078  0.0878  0.3199
81808SOL    HW163034  10.802   5.265   9.473  0.4967  1.7768 -0.5809
81808SOL    HW263035  10.718   5.184   9.376  0.8586 -0.8987  1.2089
81809SOL     OW63036  10.327  10.986   1.597  0.1269 -0.4487 -0.1408
81809SOL    HW163037  10.376  10.940   1.529  0.9689  1.6799 -1.0702
81809SOL    HW263038  10.383  10.981   1.674  0.3047 -0.8062 -0.2914
81810SOL     OW63039   2.625   9.097   9.431  0.1216  0.2922  0.2597
81810SOL    HW163040   2.613   9.094   9.336  2.8647  0.5468 -0.1773
81810SOL    HW263041   2.715   9.065   9.445 -0.4710 -0.5092  2.8533
81811SOL     OW63042   3.488   5.094   6.519 -0.1504  0.1419  0.1685
81811SOL    HW163043   3.396   5.078   6.540 -0.4505  0.4898 -0.8307
81811SOL    HW263044   3.535   5.076   6.601 -0.9379 -1.4969  0.3153
81812SOL     OW63045   5.911  11.879   7.780  0.5860 -0.1705 -0.0295
81812SOL    HW163046   5.915  11.966   7.819 -1.3251  0.4686 -1.1363
81812SOL    HW263047   5.912  11.819   7.855  0.2204  0.8707  0.8333
81813SOL     OW63048   0.721   3.922   3.313  0.3083  0.7334 -0.1261
81813SOL    HW163049   0.664   3.949   3.385  0.5950  0.0271  0.3773
81813SOL    HW263050   0.699   3.981   3.242 -0.7450  0.7584  0.2003
81814SOL     OW63051   3.038  12.828  13.457 -0.2135  0.0116  0.4342
81814SOL    HW163052   3.021  12.807  13.549 -0.1419 -1.9257  0.0559
81814SOL    HW263053   2.965  12.883  13.431  0.2958  1.4834  1.8906
81815SOL     OW63054   1.453   4.111   3.916 -0.3415 -0.2912 -0.4346
81815SOL    HW163055   1.367   4.152   3.906  1.1022  2.7059 -2.1144
81815SOL    HW263056   1.477   4.126   4.008 -0.1138  2.4160 -0.8417
81816SOL     OW63057   8.554   5.359   9.193  0.0135 -0.0431  0.1466
81816SOL    HW163058   8.628   5.358   9.133 -0.0853 -0.6280  0.0249
81816SOL    HW263059   8.538   5.266   9.212 -1.0341  0.0365 -0.2717
81817SOL     OW63060   6.284  11.294  12.307 -0.1973 -0.1342  0.0617
81817SOL    HW163061   6.236  11.347  12.370 -1.0063  0.1411 -0.7728
81817SOL    HW263062   6.327  11.358  12.249 -1.4425 -0.3588 -1.1506
81818SOL     OW63063   3.627   5.152   1.025  0.4053  0.1640 -0.9321
81818SOL    HW163064   3.661   5.197   1.103 -0.3845 -1.2629  0.2975
81818SOL    HW263065   3.533   5.172   1.025  0.1384 -0.9980 -0.6673
81819SOL     OW63066   2.932   2.167  11.019 -0.2902 -0.1220 -0.5672
81819SOL    HW163067   2.874   2.092  11.026 -0.8859  0.3609 -0.1858
81819SOL    HW263068   2.965   2.181  11.108 -0.7622  0.5111 -0.4854
81820SOL     OW63069   9.354  12.718  13.621 -0.0340 -0.3788 -0.0852
81820SOL    HW163070   9.421  12.767  13.573  0.2642 -1.7107 -1.1088
81820SOL    HW263071   9.351  12.633  13.577 -0.6420 -1.2263  1.5167
81821SOL     OW63072   6.552   1.615  10.256  0.2605 -0.3764  0.1024
81821SOL    HW163073   6.621   1.595  10.193  0.0101 -0.1172 -0.2603
81821SOL    HW263074   6.502   1.686  10.215 -0.7345 -1.1275 -0.0305
81822SOL     OW63075  11.366   4.118   1.094  0.1649 -0.1033 -0.3914
81822SOL    HW163076  11.432   4.126   1.025 -1.0335 -0.2385 -1.6108
81822SOL    HW263077  11.294   4.070   1.052  0.0556 -1.7138  1.4504
81823SOL     OW63078   2.261  11.319   1.102 -0.0208 -0.3878  0.0428
81823SOL    HW163079   2.240  11.387   1.167 -0.2842 -1.4902  1.1393
81823SOL    HW263080   2.311  11.254   1.151  2.0017 -0.0779 -1.4408
81824SOL     OW63081   9.071   3.572   1.200 -0.4494  0.0511  0.0343
81824SOL    HW163082   9.121   3.535   1.128 -1.7783 -1.6462 -0.0532
81824SOL    HW263083   9.024   3.646   1.161 -0.4653 -0.3022 -0.6279
81825SOL     OW63084   6.348   9.926  13.704  0.3117 -0.2118  1.0111
81825SOL    HW163085   6.385  10.014  13.712  2.6026 -1.1919  1.7822
81825SOL    HW263086   6.278   9.935  13.639  1.2287  1.9383  0.2544
81826SOL     OW63087  11.900   2.737   5.842 -0.1223  0.1950 -0.2977
81826SOL    HW163088  11.865   2.744   5.753  3.6977 -1.0322 -2.1060
81826SOL    HW263089  11.840   2.676   5.886 -0.3144 -1.9190 -3.1601
81827SOL     OW63090   0.123  10.762   5.161 -0.9058  0.5432  0.0443
81827SOL    HW163091   0.109  10.692   5.097  0.9679  0.2678 -0.1050
81827SOL    HW263092   0.146  10.838   5.108  0.1943  0.4345  0.3413
81828SOL     OW63093   2.823   4.177   3.340 -0.1805 -0.0786  0.0222
81828SOL    HW163094   2.834   4.178   3.245 -0.8455 -0.1733 -0.0622
81828SOL    HW263095   2.893   4.234   3.373 -2.0242  2.8535 -0.7635
81829SOL     OW63096   2.085   0.805  10.451 -0.0634 -0.0875 -0.1106
81829SOL    HW163097   2.157   0.810  10.387 -0.8696 -1.1291 -1.1304
81829SOL    HW263098   2.019   0.865  10.417  0.2236  0.7618  0.7561
81830SOL     OW63099  11.545   5.151  11.860  0.1800 -0.3964 -0.2496
81830SOL    HW163100  11.470   5.175  11.805 -1.5509 -1.6980  1.4039
81830SOL    HW263101  11.563   5.230  11.912 -0.8778 -0.4326  0.1989
81831SOL     OW63102   5.599   7.383   0.010  0.4540  0.0082 -0.3643
81831SOL    HW163103   5.637   7.458   0.055 -2.0952 -0.5131  3.0666
81831SOL    HW263104   5.562   7.420  -0.071 -1.5185  2.7729  1.5989
81832SOL     OW63105   4.121   0.261   8.501 -0.1599 -0.4264  0.0440
81832SOL    HW163106   4.033   0.254   8.539 -0.7207 -1.3423 -1.3462
81832SOL    HW263107   4.128   0.352   8.473 -1.3536 -0.7196 -1.3478
81833SOL     OW63108  10.296  12.516   7.854  0.4459  0.1209  0.7504
81833SOL    HW163109  10.381  12.512   7.811  0.0922 -0.5330  0.0954
81833SOL    HW263110  10.267  12.425   7.860 -1.2220  0.4384 -1.1314
81834SOL     OW63111   7.274  11.897  11.932  0.2364 -0.6744 -0.2070
81834SOL    HW163112   7.225  11.859  12.005  1.4533  0.4223  1.2612
81834SOL    HW263113   7.256  11.839  11.858 -1.3690 -1.6076  0.8520
81835SOL     OW63114   0.357   0.233   1.693  0.0342  0.6598  0.4498
81835SOL    HW163115   0.372   0.191   1.609 -0.4694 -0.8815  1.0858
81835SOL    HW263116   0.277   0.283   1.681 -1.2034 -1.1853  0.5222
81836SOL     OW63117   9.723   1.259  11.437 -0.3232 -0.0366 -0.3855
81836SOL    HW163118   9.654   1.213  11.484 -0.5613 -1.2163 -1.8063
81836SOL    HW263119   9.790   1.277  11.503 -2.1127  1.4462  1.0839
81837SOL     OW63120   7.375  11.171   1.889  0.4328  0.2924  0.1114
81837SOL    HW163121   7.335  11.085   1.879  0.9331  0.0609  0.0943
81837SOL    HW263122   7.318  11.216   1.951  0.8615 -0.4993  1.1165
81838SOL     OW63123   7.498  13.216   6.901  0.8476 -0.3692 -0.0577
81838SOL    HW163124   7.551  13.294   6.918  0.7026  0.4823 -2.9248
81838SOL    HW263125   7.561  13.143   6.903  2.4278  0.6538 -3.7368
81839SOL     OW63126   2.728  14.028   9.996  0.4346 -0.0668 -0.0989
81839SOL    HW163127   2.728  14.070   9.910 -0.8677 -1.0171 -0.5952
81839SOL    HW263128   2.640  14.040  10.030  1.2307  1.2961  1.6613
81840SOL     OW63129  11.819   8.587   5.166 -0.3592  0.1586 -0.1348
81840SOL    HW163130  11.729   8.559   5.177 -0.0688 -1.3333 -1.2193
81840SOL    HW263131  11.852   8.535   5.092  1.5463  0.2225  0.5935
81841SOL     OW63132   7.486   6.703   3.458  0.1878 -0.3380  0.4395
81841SOL    HW163133   7.572   6.696   3.500  1.0677 -2.1353 -1.4623
81841SOL    HW263134   7.505   6.715   3.365 -1.6548  0.5883  0.1316
81842SOL     OW63135   0.542   7.098   0.211 -0.1789 -0.0370  0.6875
81842SOL    HW163136   0.478   7.037   0.245  0.9803 -0.1516  2.8247
81842SOL    HW263137   0.622   7.047   0.202  0.5328  0.8750  1.5130
81843SOL     OW63138   4.218  11.345   0.540 -0.4264  0.1339  0.0420
81843SOL    HW163139   4.196  11.388   0.458  0.8770 -0.7284 -0.7816
81843SOL    HW263140   4.209  11.251   0.521 -0.9868 -0.0570  1.1492
81844SOL     OW63141   2.868   7.726   3.262 -0.0587 -1.1085 -0.1716
81844SOL    HW163142   2.832   7.809   3.296 -1.3410 -1.1361 -1.3570
81844SOL    HW263143   2.960   7.746   3.244 -0.1636 -0.1514  0.2577
81845SOL     OW63144   0.137   0.152   0.925  0.1931  0.2879  0.2297
81845SOL    HW163145   0.220   0.200   0.924 -0.4375  1.4251  0.2580
81845SOL    HW263146   0.159   0.066   0.960  1.5522  0.1976 -0.7857
81846SOL     OW63147   9.375  11.312   4.231  0.0287 -0.1057  0.1225
81846SOL    HW163148   9.297  11.312   4.176  0.0729  0.4497  0.0604
81846SOL    HW263149   9.343  11.343   4.316  0.2164  0.2759  0.0517
81847SOL     OW63150   3.058   5.146  12.211 -0.0601  0.1455  0.0861
81847SOL    HW163151   2.995   5.218  12.202 -0.9731 -0.6362  0.1241
81847SOL    HW263152   3.143   5.190  12.219 -0.5159  1.2034 -0.6102
81848SOL     OW63153   8.135   5.959   4.372  0.5784 -0.1585 -0.2175
81848SOL    HW163154   8.043   5.934   4.376  0.4750 -0.2444 -2.1031
81848SOL    HW263155   8.181   5.879   4.346  0.6902  0.6237 -2.7198
81849SOL     OW63156   8.461  10.985  10.960 -0.5013 -0.3843  0.0114
81849SOL    HW163157   8.497  11.022  10.879  0.5631  1.2408  1.1801
81849SOL    HW263158   8.391  11.046  10.985  0.6209  0.3514  1.4421
81850SOL     OW63159   7.698  12.178   2.067 -0.2444 -0.4085 -0.5584
81850SOL    HW163160   7.692  12.178   2.163  1.7892 -2.1181 -0.3498
81850SOL    HW263161   7.682  12.269   2.042  1.9815  0.7289  1.6869
81851SOL     OW63162   0.176   0.801  13.596  0.4217 -0.0024  0.0707
81851SOL    HW163163   0.095   0.749  13.601 -1.0081  2.1915  2.8217
81851SOL    HW263164   0.246   0.736  13.602 -1.1891 -1.8321  0.2171
81852SOL     OW63165  11.088   5.362   8.038 -0.5809  0.2609  0.2737
81852SOL    HW163166  11.014   5.402   7.993 -0.4439  1.0542  0.7259
81852SOL    HW263167  11.163   5.375   7.980  0.1501  3.6018  1.7292
81853SOL     OW63168   1.534   2.529   0.840  0.0979  0.1830  0.0822
81853SOL    HW163169   1.552   2.471   0.766 -0.5392 -0.9766  0.8111
81853SOL    HW263170   1.478   2.598   0.804 -2.0915 -1.5949 -0.0764
81854SOL     OW63171   8.644  12.720   0.058  0.1316 -0.3145 -0.1536
81854SOL    HW163172   8.583  12.794   0.060  2.5893  1.8844 -0.6512
81854SOL    HW263173   8.672  12.715  -0.034  0.9537 -1.0109  0.1255
81855SOL     OW63174   1.233  13.420  13.655  0.0559 -0.2351  0.2368
81855SOL    HW163175   1.196  13.354  13.596  0.4713  0.9872 -1.4735
81855SOL    HW263176   1.312  13.451  13.609  0.0945  1.1446  1.1893
81856SOL     OW63177   5.397   7.128   3.452  0.2436  0.4840  0.0509
81856SOL    HW163178   5.448   7.075   3.391  1.1031  1.5585 -0.1853
81856SOL    HW263179   5.454   7.137   3.529  0.7104  2.2075 -0.4537
81857SOL     OW63180   2.273  12.586  13.981 -0.0227  0.3867 -0.0718
81857SOL    HW163181   2.235  12.537  14.054  1.0502  1.7273  1.4633
81857SOL    HW263182   2.285  12.521  13.912 -0.5710 -1.0518  1.1326
81858SOL     OW63183   3.853   8.159   8.949  0.5252 -0.2113  0.2507
81858SOL    HW163184   3.808   8.075   8.959  0.7775 -0.3920 -0.1124
81858SOL    HW263185   3.887   8.179   9.036  1.3099 -0.9682  0.1307
81859SOL     OW63186   5.092   8.035   0.402 -0.0585  0.0413 -0.3785
81859SOL    HW163187   5.013   8.073   0.364  1.2924  0.4856 -2.9584
81859SOL    HW263188   5.076   7.941   0.403 -1.3005  0.2267  0.9370
81860SOL     OW63189   8.361   5.370   2.395 -0.4895 -0.4300  0.1761
81860SOL    HW163190   8.288   5.311   2.374 -0.6047 -0.9941  1.9828
81860SOL    HW263191   8.439   5.315   2.388 -0.6271 -0.9630  2.2131
81861SOL     OW63192  13.979  13.060   6.601  0.3081  0.2652  0.2192
81861SOL    HW163193  14.009  13.070   6.691  0.4409 -0.2786  0.2385
81861SOL    HW263194  14.035  13.118   6.551  0.2398  0.5640  0.4860
81862SOL     OW63195   7.442   1.284   4.662  0.5686 -0.1470  0.3416
81862SOL    HW163196   7.530   1.247   4.666  0.7695  0.2764 -0.0702
81862SOL    HW263197   7.389   1.216   4.621  0.6200 -0.5454  0.9155
81863SOL     OW63198  14.040   4.803   6.718 -0.6248 -0.2091 -0.4699
81863SOL    HW163199  13.993   4.726   6.686 -1.4506 -0.2662  0.8129
81863SOL    HW263200  14.087   4.772   6.796  1.8646 -0.2383 -1.8584
81864SOL     OW63201   5.010  10.823  11.072 -0.2289 -0.3429  0.4298
81864SOL    HW163202   5.012  10.785  11.160 -0.4817 -1.0889  0.1233
81864SOL    HW263203   4.922  10.859  11.064  0.0959  0.5635  0.8180
81865SOL     OW63204   9.035   7.342  13.926  0.0415 -0.0895  0.0533
81865SOL    HW163205   9.114   7.311  13.969 -0.6678 -1.5764  0.3765
81865SOL    HW263206   8.983   7.382  13.996  0.3909  0.6575 -0.1101
81866SOL     OW63207   3.538  11.585   9.119  0.6471 -0.5885 -0.4661
81866SOL    HW163208   3.498  11.630   9.045  1.2678 -0.3720 -0.6701
81866SOL    HW263209   3.558  11.655   9.182 -1.0413 -0.8898  0.4768
81867SOL     OW63210  10.653   0.047  13.760 -0.4813 -0.8694  0.0895
81867SOL    HW163211  10.672   0.117  13.698 -0.4286 -0.3106  0.7294
81867SOL    HW263212  10.579  -0.000  13.721 -0.0094 -0.9507 -0.7322
81868SOL     OW63213   5.475   4.858   2.294  0.1648 -0.1779  0.3331
81868SOL    HW163214   5.385   4.888   2.305  0.9188  2.0999  0.9397
81868SOL    HW263215   5.492   4.806   2.373  0.0874  1.4416  1.4823
81869SOL     OW63216  11.914   9.406   4.206 -0.2508 -0.0794 -0.4429
81869SOL    HW163217  11.973   9.339   4.171 -0.4817  0.0182 -1.0358
81869SOL    HW263218  11.971   9.475   4.237 -0.0486  0.4021 -1.7960
81870SOL     OW63219   2.046   6.366  10.658  0.4012 -0.0673 -0.5130
81870SOL    HW163220   2.095   6.300  10.611  0.5231 -1.2923  1.2243
81870SOL    HW263221   1.992   6.317  10.720 -1.7474  1.3203 -1.1701
81871SOL     OW63222   3.820   2.232   4.418  0.3037 -0.6543 -0.3908
81871SOL    HW163223   3.821   2.204   4.510  1.9248  0.4302 -0.0383
81871SOL    HW263224   3.878   2.171   4.373 -0.6936 -1.3458 -0.7762
81872SOL     OW63225   6.329   9.593   1.150  0.4771 -0.3604  0.5181
81872SOL    HW163226   6.413   9.566   1.112  0.3419  0.7383 -0.6224
81872SOL    HW263227   6.297   9.515   1.195  0.9500 -1.5655 -1.1168
81873SOL     OW63228  11.053   5.382   1.594  0.2429  0.2688  0.3211
81873SOL    HW163229  11.090   5.356   1.510  2.1567 -1.0438  1.5009
81873SOL    HW263230  11.088   5.469   1.611 -0.5060  0.7306 -0.3954
81874SOL     OW63231   3.305  11.270  13.481 -0.3214 -0.1241  0.3813
81874SOL    HW163232   3.267  11.358  13.477 -2.9555 -1.1960 -0.1355
81874SOL    HW263233   3.290  11.241  13.571 -0.0696 -0.2995  0.3686
81875SOL     OW63234   4.467   1.464   3.568 -0.1514  0.0127  0.3107
81875SOL    HW163235   4.494   1.449   3.478  0.4075  1.0603  0.2893
81875SOL    HW263236   4.382   1.508   3.561  1.2676  2.9565  0.1520
81876SOL     OW63237   5.337   7.256   0.200  0.3805 -0.0896  0.1184
81876SOL    HW163238   5.418   7.242   0.151 -0.0356 -1.1353 -0.2910
81876SOL    HW263239   5.271   7.271   0.132  0.5383  2.6985  0.4833
81877SOL     OW63240   2.961   7.552   4.036  0.2135 -0.0281  0.3183
81877SOL    HW163241   3.052   7.567   4.062 -0.3072  0.9533  1.6906
81877SOL    HW263242   2.936   7.471   4.081  0.5130 -0.5368 -0.4041
81878SOL     OW63243  11.943   7.152   3.029 -0.0927  0.7223 -0.4409
81878SOL    HW163244  11.941   7.119   2.939 -1.3137  0.3853 -0.3021
81878SOL    HW263245  11.872   7.215   3.034  0.5775  1.4622  0.0309
81879SOL     OW63246   5.505   0.460   9.072 -0.3501  0.3524  0.8875
81879SOL    HW163247   5.418   0.490   9.099 -0.5881  1.2690 -0.7982
81879SOL    HW263248   5.491   0.416   8.989  0.5995 -0.9030  1.3677
81880SOL     OW63249   2.331  13.374  13.716  0.3512  0.4034 -0.9797
81880SOL    HW163250   2.379  13.454  13.698 -1.6219  1.5804 -1.3447
81880SOL    HW263251   2.290  13.389  13.801 -1.4932  0.5914 -1.8509
81881SOL     OW63252   1.857  12.207   4.085  0.0150  0.0447 -0.1244
81881SOL    HW163253   1.787  12.173   4.139 -0.5705  2.3006  0.6686
81881SOL    HW263254   1.812  12.243   4.008  0.2869  1.3286  0.2969
81882SOL     OW63255  11.691   0.085  12.784  0.4299 -0.0994  0.0432
81882SOL    HW163256  11.647   0.085  12.699  2.7011  1.2481 -1.2424
81882SOL    HW263257  11.715   0.177  12.798 -0.3052 -0.2270  2.3995
81883SOL     OW63258  11.809   6.636  11.683  0.5843  0.0130 -0.1784
81883SOL    HW163259  11.743   6.700  11.658  1.6912  0.9069 -0.9135
81883SOL    HW263260  11.888   6.664  11.637  1.1561 -1.7701 -0.3645
81884SOL     OW63261  12.983   9.915   7.864 -0.7821  0.0054  0.3612
81884SOL    HW163262  12.976   9.823   7.838 -1.7763 -0.6086  2.5399
81884SOL    HW263263  12.919   9.925   7.934  1.1779  1.6412  2.0555
81885SOL     OW63264   8.239  10.922   0.310 -0.2013 -0.5391  0.5476
81885SOL    HW163265   8.181  10.869   0.365  1.0055 -1.5470  0.8832
81885SOL    HW263266   8.220  10.894   0.221 -0.8528 -0.2183  0.5795
81886SOL     OW63267   9.469   5.459   5.993 -0.2978 -0.2404  0.0123
81886SOL    HW163268   9.405   5.486   6.059  0.0054 -0.7906  0.5334
81886SOL    HW263269   9.535   5.409   6.042 -0.6648 -1.6335 -0.8820
81887SOL     OW63270   7.129   7.373  13.861 -0.0203 -0.4796 -0.2430
81887SOL    HW163271   7.131   7.395  13.768 -1.4124  0.3847 -0.1018
81887SOL    HW263272   7.070   7.437  13.899 -0.4227 -1.5625  1.0393
81888SOL     OW63273  10.484   8.116   3.811  0.2105 -0.0442 -0.0171
81888SOL    HW163274  10.426   8.057   3.763  1.2157 -0.0358 -1.2765
81888SOL    HW263275  10.500   8.071   3.894 -1.4386 -0.1181  0.2977
81889SOL     OW63276   3.401   2.251   4.815 -0.3329 -0.0918 -0.9145
81889SOL    HW163277   3.428   2.253   4.724  1.9098  1.0470 -0.2883
81889SOL    HW263278   3.341   2.325   4.824 -0.4424 -0.1162 -1.4206
81890SOL     OW63279  14.084   3.925   4.712  0.3719 -0.0069 -0.5542
81890SOL    HW163280  14.065   3.978   4.789 -0.1252  0.4688 -0.9973
81890SOL    HW263281  14.000   3.914   4.668  0.2448 -2.0756  0.0655
81891SOL     OW63282   7.054   1.747   2.315 -0.1083  0.0313  0.1419
81891SOL    HW163283   7.035   1.759   2.408  1.1649 -2.0857  0.7314
81891SOL    HW263284   6.996   1.676   2.288 -1.2905  1.3604 -1.0448
81892SOL     OW63285   2.035   0.126   7.241 -0.1400  0.2622  0.3476
81892SOL    HW163286   2.052   0.053   7.300 -1.6823 -2.1945 -1.9949
81892SOL    HW263287   2.095   0.113   7.168 -0.8834  0.9519 -0.4141
81893SOL     OW63288  12.525   3.363   2.619 -0.0436  0.3623  0.2494
81893SOL    HW163289  12.575   3.379   2.539 -0.6539  1.1422  0.0149
81893SOL    HW263290  12.434   3.367   2.592 -0.2635 -1.3284  0.6288
81894SOL     OW63291   6.339  11.429   9.911  0.2078 -0.2632  0.7177
81894SOL    HW163292   6.405  11.363   9.890 -1.8517 -2.3733  0.3878
81894SOL    HW263293   6.381  11.486   9.976  3.4099  0.5737 -1.8674
81895SOL     OW63294   4.875   7.017   4.910 -0.8394  0.6593 -0.0199
81895SOL    HW163295   4.796   6.980   4.950 -0.2169  2.0514  2.6912
81895SOL    HW263296   4.907   7.081   4.973  1.5670  1.3518 -1.7843
81896SOL     OW63297   0.518   0.457  11.298  0.8020  0.0962  0.5243
81896SOL    HW163298   0.596   0.426  11.342 -1.2788 -2.4077  2.8222
81896SOL    HW263299   0.457   0.479  11.370 -0.9005  1.1449 -1.1321
81897SOL     OW63300   0.740   7.558   7.786  0.0346 -0.3587 -0.3767
81897SOL    HW163301   0.727   7.603   7.702  1.2278 -1.4266 -1.1693
81897SOL    HW263302   0.698   7.615   7.850 -0.7339  0.5896 -1.6671
81898SOL     OW63303   2.159   3.380   1.533 -0.7529  0.2758 -0.4617
81898SOL    HW163304   2.173   3.285   1.539 -1.2693  0.0611 -2.0537
81898SOL    HW263305   2.200   3.416   1.612 -0.8828 -1.3021  0.3550
81899SOL     OW63306   6.390   0.642   8.420  0.9534  0.3368 -0.2509
81899SOL    HW163307   6.336   0.569   8.450  0.2809  1.5782  1.7903
81899SOL    HW263308   6.433   0.674   8.499  1.8067  1.6926 -1.2177
81900SOL     OW63309   2.959  10.858  11.818 -0.3993  0.1054  0.3766
81900SOL    HW163310   2.878  10.881  11.864 -0.0905  2.1693 -0.0337
81900SOL    HW263311   2.931  10.801  11.747 -1.4586  0.5470  0.4218
81901SOL     OW63312   2.575  11.714  12.892  0.0226  0.2010 -0.6367
81901SOL    HW163313   2.492  11.757  12.873 -0.4687 -0.0687  0.8423
81901SOL    HW263314   2.603  11.749  12.976  0.1883 -1.4837  0.0526
81902SOL     OW63315   5.146   3.804   4.190  0.3977 -0.5337  0.1262
81902SOL    HW163316   5.220   3.803   4.130  0.4579 -0.5168  0.1995
81902SOL    HW263317   5.069   3.800   4.134  0.4671 -1.8481  0.0888
81903SOL     OW63318  11.528   4.568   6.030 -0.2566 -0.1326 -0.1907
81903SOL    HW163319  11.456   4.573   6.092 -1.3872  2.7690 -1.5596
81903SOL    HW263320  11.494   4.514   5.958 -0.7787  0.5709 -0.4755
81904SOL     OW63321   3.936   4.042   4.750 -0.2308 -0.2311  0.0331
81904SOL    HW163322   3.976   4.069   4.668 -0.7725  0.4260 -0.0246
81904SOL    HW263323   3.873   4.111   4.770 -0.3268 -0.5382  0.8430
81905SOL     OW63324   0.260   7.209   0.107 -0.2617  0.5670  0.3860
81905SOL    HW163325   0.186   7.269   0.114  0.7381  2.1198 -1.3080
81905SOL    HW263326   0.235   7.147   0.038 -0.8241 -0.2736  1.3246
81906SOL     OW63327   9.450   2.156   4.193  0.3164 -0.3619  0.0997
81906SOL    HW163328   9.429   2.130   4.283 -1.1536  1.0936  0.2318
81906SOL    HW263329   9.407   2.241   4.182  1.3777  0.0019 -1.6380
81907SOL     OW63330  12.170   3.225  13.636  0.1347 -0.2888 -0.1284
81907SOL    HW163331  12.131   3.307  13.666  1.6798  0.3943  0.1283
81907SOL    HW263332  12.204   3.244  13.548 -0.4054 -0.9654 -0.4954
81908SOL     OW63333   6.669   8.499   0.843  0.1886 -0.3589 -0.3701
81908SOL    HW163334   6.621   8.495   0.926  1.0511  2.0744  0.3395
81908SOL    HW263335   6.640   8.422   0.794 -3.8868  0.5156  0.3087
81909SOL     OW63336   7.494   4.521  13.095 -0.0171  0.0250 -0.5134
81909SOL    HW163337   7.441   4.446  13.122 -0.7258  1.1859  1.5052
81909SOL    HW263338   7.584   4.492  13.111 -0.2623 -0.5112 -0.0391
81910SOL     OW63339  12.393   8.619   3.007  0.2894  0.0826 -0.1242
81910SOL    HW163340  12.406   8.528   2.981 -2.2914 -0.4781  0.3345
81910SOL    HW263341  12.443   8.627   3.089  0.7008 -0.8513 -0.2693
81911SOL     OW63342  11.725   8.144  10.650 -0.0130  0.8096 -0.4121
81911SOL    HW163343  11.672   8.186  10.581 -0.7228  0.1303 -0.2934
81911SOL    HW263344  11.799   8.204  10.663 -0.0801  1.1448 -1.4786
81912SOL     OW63345  11.053  11.260   3.168  0.2352 -0.0005 -0.4645
81912SOL    HW163346  11.042  11.215   3.252  2.8082 -0.8622 -0.5095
81912SOL    HW263347  11.084  11.347   3.192  0.4511 -0.0673 -0.5001
81913SOL     OW63348   1.273   5.770   0.149 -0.0287  0.1914  0.2593
81913SOL    HW163349   1.349   5.820   0.177  0.1725  0.8922 -1.4542
81913SOL    HW263350   1.199   5.831   0.159  0.0085  0.3600 -0.4744
81914SOL     OW63351   9.621   6.898   1.483 -0.6429 -0.4474  0.1588
81914SOL    HW163352   9.592   6.906   1.574 -3.2154 -2.5984 -0.3495
81914SOL    HW263353   9.610   6.985   1.446 -3.0737 -0.2847  1.0563
81915SOL     OW63354   3.927  12.877   8.264  0.2800 -1.1851  0.2106
81915SOL    HW163355   3.983  12.855   8.190  0.2015  0.2785 -0.3207
81915SOL    HW263356   3.854  12.926   8.226 -0.6407 -1.8438  1.0633
81916SOL     OW63357  11.862  13.388   9.802  0.1381  0.2878 -0.4978
81916SOL    HW163358  11.921  13.401   9.876 -1.5995  0.4496  0.9352
81916SOL    HW263359  11.896  13.446   9.734  1.7070  0.2383  0.1934
81917SOL     OW63360  12.145  10.332   3.706 -0.1743 -0.0390 -0.0382
81917SOL    HW163361  12.093  10.346   3.627  0.5537  0.7380 -0.3970
81917SOL    HW263362  12.087  10.356   3.778 -0.1830  1.2815 -0.4554
81918SOL     OW63363  11.315   7.621  10.966  0.1534  0.0807  0.5376
81918SOL    HW163364  11.238   7.669  10.995 -0.8282 -0.1447 -1.4918
81918SOL    HW263365  11.352   7.584  11.046 -1.3925  0.8308  1.6580
81919SOL     OW63366  12.482  11.997   8.238 -0.6395  0.5430  0.3071
81919SOL    HW163367  12.526  11.913   8.251 -1.2949  0.0336 -0.6555
81919SOL    HW263368  12.552  12.062   8.245  0.0631 -0.1641 -0.0027
81920SOL     OW63369   9.864   6.351  13.324 -0.1424 -0.2543  0.0617
81920SOL    HW163370   9.870   6.265  13.365 -2.6977 -0.9289 -0.7511
81920SOL    HW263371   9.795   6.341  13.258 -1.2396  2.6506  0.5912
81921SOL     OW63372   1.778   9.317   0.213  0.1039 -0.6203  0.0072
81921SOL    HW163373   1.799   9.295   0.122  1.3356  0.7094 -0.0781
81921SOL    HW263374   1.805   9.240   0.264  0.2330 -1.0252 -0.6661
81922SOL     OW63375   4.411   8.773   0.897  0.2032 -0.1857 -0.7988
81922SOL    HW163376   4.374   8.829   0.965  0.6632  1.1910 -1.6393
81922SOL    HW263377   4.469   8.831   0.848  1.6594 -1.7049 -0.9608
81923SOL     OW63378   5.810  10.982  12.525 -0.3878  0.2199  0.1535
81923SOL    HW163379   5.731  10.953  12.480 -0.7489  2.5377 -0.8599
81923SOL    HW263380   5.778  11.037  12.597  0.2826  0.8390 -0.0077
81924SOL     OW63381   5.371   9.484   0.320  0.2143  0.1932  0.0709
81924SOL    HW163382   5.369   9.573   0.287  0.6847  0.6627  1.2579
81924SOL    HW263383   5.459   9.452   0.298 -0.7289 -0.9336 -2.6293
81925SOL     OW63384   2.273   9.766   5.768  0.0862  0.2126  0.5637
81925SOL    HW163385   2.357   9.722   5.763  0.5172  1.0707 -0.0907
81925SOL    HW263386   2.213   9.710   5.718  0.3907 -0.1425  0.5983
81926SOL     OW63387   1.218   3.445   7.433  0.2042  0.0915 -0.6397
81926SOL    HW163388   1.257   3.526   7.467  1.5748 -1.0555  0.6585
81926SOL    HW263389   1.181   3.403   7.511  0.2885 -0.9307 -1.1439
81927SOL     OW63390  11.666  12.998   9.630  0.2826 -0.0496 -0.1007
81927SOL    HW163391  11.727  13.057   9.675  1.3289 -1.1812  0.0125
81927SOL    HW263392  11.694  13.001   9.538  1.4767 -1.6603  0.1702
81928SOL     OW63393  11.327  12.034  11.634  0.2892  0.7159 -0.0983
81928SOL    HW163394  11.410  11.987  11.639 -0.1704  0.0056  1.3285
81928SOL    HW263395  11.287  12.021  11.720 -0.3284  2.8656 -0.0045
81929SOL     OW63396   6.183  11.221   7.332  0.3585 -0.2361  0.3927
81929SOL    HW163397   6.271  11.207   7.367  0.6653 -1.0836 -0.6560
81929SOL    HW263398   6.157  11.136   7.297 -0.6635  0.1366  0.1959
81930SOL     OW63399   8.693  11.654  12.921  0.5180  0.7540  0.3994
81930SOL    HW163400   8.609  11.618  12.891  1.5524 -1.4351 -0.0363
81930SOL    HW263401   8.731  11.584  12.974  2.1587  1.6432  0.4382
81931SOL     OW63402   2.559   8.445   1.201 -0.3272 -0.5955 -0.5263
81931SOL    HW163403   2.641   8.465   1.156 -0.3076  0.0054 -0.2290
81931SOL    HW263404   2.557   8.505   1.276 -1.2955 -0.2169 -0.8401
81932SOL     OW63405   0.836   7.684   0.809  0.5021 -0.2432  0.5122
81932SOL    HW163406   0.756   7.731   0.835  1.2588  0.0548  2.4657
81932SOL    HW263407   0.904   7.751   0.810  1.1540 -0.9007  0.9428
81933SOL     OW63408   4.288  10.218   0.494 -0.0562 -0.2178  0.1949
81933SOL    HW163409   4.287  10.295   0.551 -3.2106 -0.7823  1.1305
81933SOL    HW263410   4.224  10.239   0.425  2.6585 -0.1173 -2.4914
81934SOL     OW63411   1.233   7.186   6.517  0.0199  0.1979  0.0576
81934SOL    HW163412   1.322   7.215   6.501  0.4288  0.6032  2.6156
81934SOL    HW263413   1.211   7.220   6.604 -1.7339 -1.9234  0.5592
81935SOL     OW63414   0.804   2.815   0.092  0.5349 -0.1765  0.1210
81935SOL    HW163415   0.869   2.745   0.083 -0.2915 -1.1127  1.2896
81935SOL    HW263416   0.846   2.891   0.051  1.8524 -1.0796 -0.2704
81936SOL     OW63417   1.873   9.412  13.669 -0.1658  0.7307  0.3721
81936SOL    HW163418   1.837   9.477  13.607 -0.8492  1.2282  1.2714
81936SOL    HW263419   1.868   9.455  13.754 -1.3488 -0.7740  1.1131
81937SOL     OW63420   9.758   0.689  11.300  0.0642  0.0435  0.6573
81937SOL    HW163421   9.850   0.697  11.275  0.0189 -1.7303 -0.2799
81937SOL    HW263422   9.755   0.716  11.391  1.6227 -0.3560  0.8619
81938SOL     OW63423   3.205  13.540  12.022  0.2288  0.2394 -0.3335
81938SOL    HW163424   3.225  13.586  11.940  0.9970  1.4153  0.4784
81938SOL    HW263425   3.240  13.597  12.090  0.2861 -1.0863  0.7842
81939SOL     OW63426   7.341  12.329   4.720  0.3557 -0.6977  1.2820
81939SOL    HW163427   7.343  12.418   4.684  0.4263 -1.2827 -0.1916
81939SOL    HW263428   7.432  12.309   4.740  0.5021 -0.9072  0.4241
81940SOL     OW63429   2.461  13.537  10.207  0.1432  0.0824  0.3209
81940SOL    HW163430   2.468  13.511  10.299  0.0047 -0.4247  0.1948
81940SOL    HW263431   2.468  13.454  10.159 -0.3346  0.2832 -0.0982
81941SOL     OW63432   5.924   2.995  12.304  0.3106  0.7434 -0.1829
81941SOL    HW163433   5.992   2.956  12.359  0.2973  0.8494 -0.0902
81941SOL    HW263434   5.926   3.088  12.326 -1.0036  0.5004  1.0545
81942SOL     OW63435   6.775   9.522   5.779  0.7230  0.4998  0.4997
81942SOL    HW163436   6.789   9.491   5.868  0.8340 -0.6456  0.0981
81942SOL    HW263437   6.857   9.566   5.757  0.6509  0.8948  0.9977
81943SOL     OW63438   0.666   5.573  12.258 -0.0733 -0.7143 -0.2622
81943SOL    HW163439   0.576   5.573  12.224 -0.4616  1.6407  0.6312
81943SOL    HW263440   0.707   5.651  12.220  0.9104 -0.5629  1.0300
81944SOL     OW63441  10.732  12.048  12.837  0.3197  0.1890  0.1736
81944SOL    HW163442  10.732  12.137  12.874 -3.6252  0.1110  0.8562
81944SOL    HW263443  10.660  12.049  12.774  0.7279 -2.3032 -0.4061
81945SOL     OW63444  11.524   3.848  11.802  0.5618 -0.5037 -0.4482
81945SOL    HW163445  11.441   3.891  11.778  0.3674 -1.3911 -1.4616
81945SOL    HW263446  11.569   3.912  11.856 -0.6285  0.1485 -0.1852
81946SOL     OW63447   3.552   0.402  12.983 -0.7085 -0.0077 -0.1302
81946SOL    HW163448   3.495   0.329  12.958 -1.2697  0.3765  0.0310
81946SOL    HW263449   3.639   0.362  12.990 -0.5603 -0.2237 -2.3827
81947SOL     OW63450   8.293   1.464   2.242  0.2522  0.1160 -0.6631
81947SOL    HW163451   8.201   1.437   2.238 -0.5433  2.2557  1.3692
81947SOL    HW263452   8.335   1.395   2.293 -1.0372  0.8524  1.5445
81948SOL     OW63453  11.558   5.016   0.917  0.1057 -0.2464  0.4697
81948SOL    HW163454  11.508   4.996   0.837  0.3490  2.0130 -0.3040
81948SOL    HW263455  11.563   4.932   0.963 -0.9207 -1.3976 -1.3868
81949SOL     OW63456   5.379  13.207   5.477 -0.3603 -0.0235  0.1194
81949SOL    HW163457   5.441  13.191   5.548 -1.1340 -0.0635  0.8023
81949SOL    HW263458   5.307  13.148   5.495 -0.9243  0.5406 -0.2558
81950SOL     OW63459  11.146  10.419   9.141 -0.3199 -0.0685 -0.4367
81950SOL    HW163460  11.180  10.394   9.055 -1.5108  4.2251 -2.4226
81950SOL    HW263461  11.054  10.440   9.125 -0.6885  0.4731  2.0165
81951SOL     OW63462  10.125  12.036   0.913 -0.0951 -0.1187  0.5301
81951SOL    HW163463  10.187  11.964   0.911  1.9639  1.5528  0.4396
81951SOL    HW263464  10.068  12.021   0.837 -0.1605 -1.9452  0.8944
81952SOL     OW63465   7.211   4.226   0.378  0.2869  0.7117  0.1812
81952SOL    HW163466   7.200   4.151   0.437  0.0259  0.4634 -0.1754
81952SOL    HW263467   7.280   4.199   0.318 -0.0946  0.5790 -0.2100
81953SOL     OW63468  10.986   3.538  12.259 -0.0443  0.0703  0.2910
81953SOL    HW163469  10.919   3.524  12.193  0.3921 -1.0673  0.0785
81953SOL    HW263470  11.052   3.471  12.242  2.3965  2.5580 -1.0562
81954SOL     OW63471   8.710  10.812   7.784  0.2478  0.0817  0.3700
81954SOL    HW163472   8.727  10.898   7.745 -2.4153  0.5394  0.0159
81954SOL    HW263473   8.726  10.750   7.714 -0.4485  0.5457 -0.2152
81955SOL     OW63474   4.003   8.607  10.713 -0.2318 -0.2970 -0.2902
81955SOL    HW163475   3.980   8.644  10.799  0.2966  1.5059 -0.8829
81955SOL    HW263476   4.040   8.681  10.664  3.3699 -2.1613 -0.6811
81956SOL     OW63477  11.433   3.791   7.432  0.4403 -0.2167 -0.2134
81956SOL    HW163478  11.477   3.791   7.347  0.7243  0.1919 -0.0641
81956SOL    HW263479  11.378   3.869   7.431 -1.0314 -1.2126 -0.7818
81957SOL     OW63480   2.459   7.973   8.439 -0.1920  0.4036 -0.2938
81957SOL    HW163481   2.542   7.927   8.424 -0.6880  0.1269 -2.6641
81957SOL    HW263482   2.483   8.064   8.449  0.4686  0.2155 -0.1565
81958SOL     OW63483   7.976   3.194   5.008 -0.4800  0.0680  0.1125
81958SOL    HW163484   7.881   3.192   5.014 -0.5180 -1.2353 -0.4391
81958SOL    HW263485   7.994   3.194   4.914  0.0354 -1.3546  0.1805
81959SOL     OW63486  14.013   7.670   6.264  0.3437 -0.1310 -0.1119
81959SOL    HW163487  14.043   7.582   6.286 -1.0323 -0.7197 -0.4524
81959SOL    HW263488  14.049   7.726   6.332  1.6710 -0.8662 -0.1822
81960SOL     OW63489  11.599   4.608   0.703 -0.1120 -0.5020 -0.0837
81960SOL    HW163490  11.625   4.571   0.619  0.6957 -1.7466  0.6872
81960SOL    HW263491  11.616   4.539   0.767  2.8446  1.5838  1.6493
81961SOL     OW63492   8.212  11.698  10.653  0.1333  0.1092 -0.5553
81961SOL    HW163493   8.260  11.705  10.570 -0.2232 -1.9205 -0.9846
81961SOL    HW263494   8.182  11.787  10.671 -0.3928  0.4970 -2.9946
81962SOL     OW63495   5.232   7.080   6.546  0.0156  0.1790 -0.3835
81962SOL    HW163496   5.198   7.065   6.458  0.5856 -0.1342 -0.5628
81962SOL    HW263497   5.327   7.092   6.532  0.4092 -1.7491  0.3643
81963SOL     OW63498  10.372   6.343   1.359  0.5018  0.2668  0.1101
81963SOL    HW163499  10.321   6.356   1.438  1.7961  0.7096  0.9052
81963SOL    HW263500  10.403   6.430   1.335  0.4406  0.0853 -0.6734
81964SOL     OW63501   9.695  11.385   7.585 -0.0448  0.3200 -0.2893
81964SOL    HW163502   9.771  11.422   7.630 -0.6557  0.7311  0.4252
81964SOL    HW263503   9.660  11.458   7.534  1.3828 -0.4485 -2.5103
81965SOL     OW63504   0.829   1.457  12.845 -0.0796 -0.1129 -0.2685
81965SOL    HW163505   0.782   1.454  12.928  0.5845 -0.0276  0.1211
81965SOL    HW263506   0.803   1.376  12.801  0.1315 -0.5290  0.3483
81966SOL     OW63507   6.780   3.548   6.708  0.4780  0.0126 -0.4698
81966SOL    HW163508   6.769   3.547   6.803  1.9971  1.4224 -0.2407
81966SOL    HW263509   6.692   3.565   6.674  0.1828  1.1375  0.7706
81967SOL     OW63510   1.844  11.599  13.123  0.0310 -0.0453 -0.9887
81967SOL    HW163511   1.935  11.612  13.150 -0.0243  5.0036 -2.2099
81967SOL    HW263512   1.850  11.548  13.043  1.6932 -0.4103 -0.6856
81968SOL     OW63513   4.314   1.437   2.846  0.4741  0.6772 -0.1387
81968SOL    HW163514   4.269   1.401   2.769 -1.1003  0.3126  0.9049
81968SOL    HW263515   4.407   1.420   2.829  0.1829  0.6893 -1.9905
81969SOL     OW63516  13.424  12.741   5.316 -0.0011 -0.3351  0.4444
81969SOL    HW163517  13.503  12.702   5.280  0.3491 -0.3829  1.2530
81969SOL    HW263518  13.354  12.709   5.260  0.5026 -0.6114 -0.0341
81970SOL     OW63519  12.257   7.418   9.430 -0.4089  0.1237 -0.4219
81970SOL    HW163520  12.239   7.460   9.514  1.1200  0.7419 -0.3850
81970SOL    HW263521  12.242   7.325   9.447  0.9879  0.0938  0.8901
81971SOL     OW63522   4.472   3.658   9.919  0.3596 -0.7982 -0.3753
81971SOL    HW163523   4.456   3.661  10.013 -0.6153 -1.6485 -0.5071
81971SOL    HW263524   4.385   3.661   9.879  0.8016  0.9281 -1.3048
81972SOL     OW63525   9.070   7.928   4.151  0.4981  0.5870 -0.3017
81972SOL    HW163526   9.037   7.880   4.227  1.7943 -0.1549 -0.1580
81972SOL    HW263527   9.057   7.868   4.078  3.0877 -0.5564  0.0366
81973SOL     OW63528  10.102  11.583   4.233  0.4271  0.7620  0.3733
81973SOL    HW163529  10.133  11.630   4.310  1.8415 -0.5432  0.6340
81973SOL    HW263530  10.010  11.565   4.251  1.0930 -0.8822  2.5009
81974SOL     OW63531   0.318   6.185   3.955  0.1700 -0.6679  0.2099
81974SOL    HW163532   0.351   6.113   3.900  0.1912  0.5840 -1.4888
81974SOL    HW263533   0.368   6.261   3.927 -2.4331  0.8008 -0.7491
81975SOL     OW63534  11.900   5.079   5.196 -0.1069 -0.1532 -0.0346
81975SOL    HW163535  11.847   5.158   5.185  0.6822  0.4741  0.5341
81975SOL    HW263536  11.989   5.112   5.211 -0.0399 -1.0961  1.8783
81976SOL     OW63537   8.852  12.349  11.069 -0.2381 -0.1197  0.0919
81976SOL    HW163538   8.877  12.260  11.044  0.5060  0.3937 -1.1220
81976SOL    HW263539   8.761  12.358  11.040 -0.7075 -0.8496  1.2922
81977SOL     OW63540   3.743   0.348  12.679 -0.2525 -0.2964  0.0721
81977SOL    HW163541   3.794   0.283  12.631  0.9247  0.4401  0.2786
81977SOL    HW263542   3.751   0.320  12.771 -0.2595 -0.2127  0.0977
81978SOL     OW63543   1.534   7.898   8.761 -0.5899  0.2991 -0.1403
81978SOL    HW163544   1.534   7.992   8.782  0.5840  0.9273 -2.5899
81978SOL    HW263545   1.465   7.861   8.817  0.2915  2.2136  2.4082
81979SOL     OW63546   0.407  12.224   6.374 -0.1079  0.8373  0.1424
81979SOL    HW163547   0.411  12.314   6.406 -2.0335  1.2616 -0.7037
81979SOL    HW263548   0.323  12.191   6.405  0.7337 -0.8273  0.7590
81980SOL     OW63549   3.049   3.463   7.330  0.1532 -0.0159  0.5540
81980SOL    HW163550   3.121   3.450   7.268  1.9865  0.1100  2.5454
81980SOL    HW263551   3.008   3.545   7.302  1.8121  0.7565  0.2998
81981SOL     OW63552   1.029   8.163   9.203 -0.5593 -0.0898 -0.1383
81981SOL    HW163553   1.105   8.110   9.226 -0.7270 -1.0266 -1.6278
81981SOL    HW263554   1.065   8.251   9.188  0.0760 -0.3032  0.1028
81982SOL     OW63555  13.734   0.609   4.635  0.6480 -0.0815 -0.2331
81982SOL    HW163556  13.732   0.513   4.632  0.5180 -0.0971  0.3114
81982SOL    HW263557  13.826   0.630   4.652  0.8282 -0.0788 -1.1479
81983SOL     OW63558   0.147   1.695  12.479  0.7191  0.1483  0.2123
81983SOL    HW163559   0.109   1.722  12.563 -0.8913  0.5328 -0.6181
81983SOL    HW263560   0.156   1.600  12.486 -0.7245  0.0068  0.3034
81984SOL     OW63561   4.741   1.812   4.964 -0.0973  0.5429  0.4014
81984SOL    HW163562   4.778   1.888   5.009 -0.8142  1.2111 -0.1253
81984SOL    HW263563   4.654   1.840   4.936 -0.6379 -0.6869  0.7705
81985SOL     OW63564   5.665   1.933  12.988  0.2711 -0.1796 -0.6102
81985SOL    HW163565   5.641   1.911  13.078  1.3614  0.8178 -0.0472
81985SOL    HW263566   5.761   1.934  12.988  0.3744 -2.2602 -2.3355
81986SOL     OW63567   6.916  11.591   8.535  0.8142  0.1842 -0.0488
81986SOL    HW163568   6.861  11.554   8.604 -0.7774  0.9982 -0.8006
81986SOL    HW263569   6.924  11.522   8.470 -2.1427  0.9636 -1.4497
81987SOL     OW63570  12.705  13.034   4.138  0.3516 -0.4801 -0.2214
81987SOL    HW163571  12.642  13.106   4.146  1.9236  1.0755 -1.1863
81987SOL    HW263572  12.714  13.021   4.044 -0.0317 -2.1224 -0.0676
81988SOL     OW63573  13.556   4.612   2.251 -0.1954 -0.0066 -0.2503
81988SOL    HW163574  13.599   4.565   2.323 -0.7561 -1.1185 -0.6145
81988SOL    HW263575  13.483   4.555   2.226 -0.7934  0.9970 -0.8301
81989SOL     OW63576   4.870   1.238   1.745 -0.2125 -0.1642  0.7115
81989SOL    HW163577   4.919   1.187   1.810 -1.0362  0.7790  2.1171
81989SOL    HW263578   4.789   1.189   1.734 -0.3747  0.0484  0.9449
81990SOL     OW63579  10.462   8.019   1.270 -0.6411 -0.4167 -0.0026
81990SOL    HW163580  10.432   7.936   1.308 -0.5091 -1.2252 -1.5672
81990SOL    HW263581  10.557   8.007   1.258 -0.6921 -0.2249 -0.6422
81991SOL     OW63582   1.740   0.257   8.780 -0.3458 -0.6034  0.4270
81991SOL    HW163583   1.798   0.181   8.784  0.3567 -0.1199 -0.1853
81991SOL    HW263584   1.652   0.221   8.777  0.0334 -1.5333 -2.8521
81992SOL     OW63585   4.851   7.264  10.841 -0.4615  0.2296  0.6686
81992SOL    HW163586   4.767   7.222  10.824 -0.8029  0.7306  1.1014
81992SOL    HW263587   4.882   7.293  10.755  0.5450 -2.2707  0.0684
81993SOL     OW63588   3.285   5.605   6.508 -0.4157  0.2277 -0.0729
81993SOL    HW163589   3.345   5.613   6.583 -1.1114  2.0690  0.3333
81993SOL    HW263590   3.331   5.648   6.436 -0.4286 -0.1152 -0.2882
81994SOL     OW63591  12.704   8.486   0.640  0.2325 -0.4405 -0.5470
81994SOL    HW163592  12.744   8.421   0.582  0.7151 -0.9969  0.3680
81994SOL    HW263593  12.640   8.436   0.691  0.5999 -0.2108  0.1587
81995SOL     OW63594  10.545   9.714   4.654  0.3320 -0.1639  0.0921
81995SOL    HW163595  10.590   9.778   4.598 -0.8842  0.5371 -0.1350
81995SOL    HW263596  10.515   9.646   4.593 -1.6154  0.9519 -0.3140
81996SOL     OW63597   3.069   8.410  12.348 -0.2641 -0.3647 -0.5505
81996SOL    HW163598   3.159   8.399  12.316 -0.0912 -0.8272  0.0895
81996SOL    HW263599   3.064   8.504  12.370  0.8437 -0.7320  1.6463
81997SOL     OW63600   2.578   8.163   1.551  0.6427  0.3953  0.0857
81997SOL    HW163601   2.498   8.180   1.502  0.4139  1.4573  0.7665
81997SOL    HW263602   2.619   8.089   1.507 -0.4400  0.1830 -0.6026
81998SOL     OW63603   4.147   0.402   2.842  0.3710  0.0014 -0.3992
81998SOL    HW163604   4.063   0.447   2.833  1.2163  1.3164 -2.2315
81998SOL    HW263605   4.199   0.431   2.767  1.8435 -2.1939 -0.3286
81999SOL     OW63606   4.337   8.831   5.767  0.1509  0.1925  0.2572
81999SOL    HW163607   4.313   8.742   5.794  0.1497  0.4335  1.1056
81999SOL    HW263608   4.260   8.864   5.722  0.6695 -0.7433 -1.4220
82000SOL     OW63609   3.734   0.481   0.895 -0.2274 -0.4288 -0.3895
82000SOL    HW163610   3.778   0.447   0.973 -2.0722 -1.8290  0.1272
82000SOL    HW263611   3.692   0.562   0.925  1.0605  0.3407 -0.6080
82001SOL     OW63612   1.615  10.345   8.175  0.0351 -0.2255  0.4674
82001SOL    HW163613   1.706  10.366   8.196  0.0253 -1.2649  1.6487
82001SOL    HW263614   1.597  10.265   8.225 -1.1758 -0.6777 -0.6405
82002SOL     OW63615   1.168  11.142   6.307  0.3565  0.3358  0.0375
82002SOL    HW163616   1.230  11.214   6.317  2.1342 -1.1121  0.0350
82002SOL    HW263617   1.220  11.063   6.323 -0.8014 -1.1511 -2.7503
82003SOL     OW63618  12.107   9.790   0.003  0.0895  0.4188  0.4951
82003SOL    HW163619  12.193   9.826  -0.017  0.1011 -0.4793 -1.3239
82003SOL    HW263620  12.052   9.816  -0.072 -0.2855 -1.9359 -0.1574
82004SOL     OW63621   9.059   9.545   4.016  0.5660 -0.0408  0.0575
82004SOL    HW163622   9.080   9.613   3.951 -0.2202  0.6553  0.5178
82004SOL    HW263623   9.111   9.469   3.988  1.1723  0.6249 -0.6830
82005SOL     OW63624   1.412   5.408   1.473 -0.1344  1.0813 -0.3542
82005SOL    HW163625   1.364   5.467   1.531  1.8912  0.8003  1.7536
82005SOL    HW263626   1.504   5.433   1.484  0.3719  1.2788 -3.8263
82006SOL     OW63627  10.800   9.841  12.018 -0.5474  0.1576  0.4790
82006SOL    HW163628  10.715   9.876  11.990 -0.5385  0.8441  1.2831
82006SOL    HW263629  10.860   9.864  11.947 -1.0241 -0.3378 -0.1000
82007SOL     OW63630  13.850  12.847   5.836 -0.1050  0.4578 -0.0815
82007SOL    HW163631  13.894  12.813   5.914  0.1397  0.8313 -0.0538
82007SOL    HW263632  13.906  12.819   5.764 -1.5125 -1.9093 -0.3743
82008SOL     OW63633  12.161   8.813   4.642  0.0143 -0.3584  0.3701
82008SOL    HW163634  12.208   8.851   4.568 -0.8121  2.5402  1.2018
82008SOL    HW263635  12.224   8.753   4.682  1.5127  0.2451 -0.9695
82009SOL     OW63636   8.741   4.591   5.586 -0.0237 -0.0326  1.1438
82009SOL    HW163637   8.647   4.601   5.571  0.0015 -0.8153  0.4275
82009SOL    HW263638   8.765   4.513   5.536  1.0170  0.1952  1.2774
82010SOL     OW63639   2.821  11.672   1.372  0.2461  0.6359  0.4498
82010SOL    HW163640   2.831  11.577   1.366 -0.3738  0.6121 -0.4879
82010SOL    HW263641   2.783  11.697   1.288  1.0165  1.8021  0.4266
82011SOL     OW63642   6.450  12.053   7.889 -0.7417  0.0921 -0.1027
82011SOL    HW163643   6.393  12.100   7.950 -0.2844  2.5794 -1.4595
82011SOL    HW263644   6.530  12.105   7.886  0.2077 -1.3503 -0.9710
82012SOL     OW63645   5.991   5.030   2.393  0.1587 -0.1783 -0.4284
82012SOL    HW163646   5.946   5.065   2.470  0.6131  2.2336 -1.1754
82012SOL    HW263647   5.974   4.936   2.397 -0.8661  0.0167  1.9251
82013SOL     OW63648  12.588  10.326   0.471 -0.2416 -0.3513 -0.7713
82013SOL    HW163649  12.593  10.415   0.438 -2.3481 -0.2900 -1.0191
82013SOL    HW263650  12.626  10.272   0.401 -0.4798  0.2077 -1.3357
82014SOL     OW63651   0.668  13.731   5.274 -0.2066 -0.3290 -0.6686
82014SOL    HW163652   0.658  13.652   5.220  0.8144 -0.8673 -0.1130
82014SOL    HW263653   0.763  13.740   5.285 -0.3545 -1.3025  2.4929
82015SOL     OW63654   9.548   3.652   7.360  0.2989 -0.0077  0.0684
82015SOL    HW163655   9.486   3.697   7.303  1.0586  0.3748 -0.4859
82015SOL    HW263656   9.500   3.635   7.441 -0.4877  0.3639 -0.3160
82016SOL     OW63657   6.683  11.661   1.179  0.3063  0.3937  0.2023
82016SOL    HW163658   6.654  11.700   1.261  1.5385  0.1839  0.7448
82016SOL    HW263659   6.741  11.726   1.140  3.0571 -1.1119  1.5100
82017SOL     OW63660   7.122   7.085   1.073 -0.2914 -0.5217  0.8194
82017SOL    HW163661   7.028   7.066   1.080 -0.2423 -0.7960  0.7270
82017SOL    HW263662   7.130   7.136   0.992 -0.3798 -0.3603  0.9098
82018SOL     OW63663   1.249   6.407   7.148 -0.2266  0.2051 -0.3217
82018SOL    HW163664   1.334   6.401   7.192 -1.1099  0.2281  1.4679
82018SOL    HW263665   1.247   6.332   7.089 -0.0523 -1.4823  1.6814
82019SOL     OW63666  11.784  13.554   1.195  0.4090 -0.0562 -0.4602
82019SOL    HW163667  11.793  13.587   1.106  0.8352  0.9408 -0.0645
82019SOL    HW263668  11.858  13.496   1.208  0.9066  0.5703 -0.4404
82020SOL     OW63669   2.331   7.423   0.871 -0.4457 -0.1301 -0.0783
82020SOL    HW163670   2.351   7.379   0.789  1.7832 -0.1225  0.3995
82020SOL    HW263671   2.309   7.513   0.846  1.7562  0.3138 -0.6293
82021SOL     OW63672  13.074  13.230  10.478 -0.2889  0.3412  0.1461
82021SOL    HW163673  13.143  13.282  10.518 -0.3672  1.0662 -0.6310
82021SOL    HW263674  13.024  13.195  10.551  1.8797 -1.6115  0.8157
82022SOL     OW63675  10.195   0.816   8.098  0.3221 -0.0170  0.1737
82022SOL    HW163676  10.243   0.744   8.140  0.8557  0.9589  1.2977
82022SOL    HW263677  10.154   0.776   8.021  0.1853 -1.6370  1.0457
82023SOL     OW63678   7.085   9.610   0.858  0.0810  0.1150  0.9532
82023SOL    HW163679   7.146   9.657   0.802 -1.8946 -0.2265 -1.6982
82023SOL    HW263680   7.082   9.521   0.822 -2.4513  0.3134  0.4587
82024SOL     OW63681   6.782   0.272  14.093 -0.4797  0.8733  0.0048
82024SOL    HW163682   6.849   0.207  14.070  0.2364  1.9030 -0.9445
82024SOL    HW263683   6.753   0.247  14.180 -0.3626 -0.8266 -0.4194
82025SOL     OW63684   7.575   4.122   8.899 -0.0944  0.5524  0.1131
82025SOL    HW163685   7.587   4.168   8.982 -0.4158  0.0944  0.4175
82025SOL    HW263686   7.555   4.032   8.924  0.9241  0.1451 -0.4782
82026SOL     OW63687  11.746  11.293  13.981  0.5890  0.1835  0.3472
82026SOL    HW163688  11.739  11.385  13.959  0.9328 -0.0250 -0.6605
82026SOL    HW263689  11.726  11.246  13.900  1.4176 -0.6021  0.5672
82027SOL     OW63690  12.058   6.261   9.924 -0.0193 -0.0829  0.5105
82027SOL    HW163691  12.126   6.270   9.992  0.7005  0.1447 -0.2314
82027SOL    HW263692  12.100   6.207   9.857 -1.0267 -1.0373  0.6301
82028SOL     OW63693   4.655  13.743  12.208 -0.6412 -0.3654  0.3963
82028SOL    HW163694   4.627  13.726  12.118 -0.7785  0.0507  0.3546
82028SOL    HW263695   4.712  13.820  12.202 -0.5703 -0.3952  0.6507
82029SOL     OW63696   6.520  10.521   1.320  0.2134 -0.0075  0.5601
82029SOL    HW163697   6.609  10.537   1.290 -0.4056  2.0780 -0.3836
82029SOL    HW263698   6.484  10.458   1.258  0.4333  0.6697 -0.2712
82030SOL     OW63699  11.949   6.873   0.866 -0.3071 -0.1429  0.2149
82030SOL    HW163700  11.978   6.838   0.950  0.7558  0.6140  0.1879
82030SOL    HW263701  11.924   6.963   0.885 -1.5780 -0.4366  0.0035
82031SOL     OW63702   5.996  10.481   0.879  0.2299  0.3725  0.0229
82031SOL    HW163703   6.051  10.495   0.956  0.5408  0.6169 -0.2391
82031SOL    HW263704   5.908  10.466   0.914  0.4913 -0.1976  0.4551
82032SOL     OW63705  12.099   4.098   9.665  0.3511 -0.1509 -0.3820
82032SOL    HW163706  12.193   4.117   9.672  0.3596 -0.7165  1.8741
82032SOL    HW263707  12.095   4.007   9.637  0.5078 -0.3245  0.1429
82033SOL     OW63708   1.464   4.208  13.039 -0.9699  0.3661  0.0168
82033SOL    HW163709   1.521   4.219  12.963 -0.3804  0.2561  0.4347
82033SOL    HW263710   1.412   4.130  13.019  1.0840 -1.3159  0.8623
82034SOL     OW63711   3.743   1.598   8.865 -0.0698  0.1539 -0.3160
82034SOL    HW163712   3.679   1.528   8.882 -0.5576  0.6070 -0.2751
82034SOL    HW263713   3.691   1.678   8.864  0.6406  0.6369  0.6548
82035SOL     OW63714  13.669   9.150   4.942  0.0560  0.4968 -0.3235
82035SOL    HW163715  13.600   9.157   4.876  1.3102  1.9567 -1.5772
82035SOL    HW263716  13.716   9.070   4.919 -0.2363  0.3712 -0.4830
82036SOL     OW63717  14.004   5.029   3.252  0.4534  0.3790  0.3571
82036SOL    HW163718  14.000   4.935   3.234 -0.2909  0.3292  0.7263
82036SOL    HW263719  14.075   5.038   3.316 -0.7586 -0.2205  1.8650
82037SOL     OW63720  13.908  12.765   1.463  0.7888 -0.0071  0.6537
82037SOL    HW163721  13.919  12.823   1.389 -0.0017  0.4886  0.9172
82037SOL    HW263722  13.942  12.680   1.433 -1.6235 -0.4622 -1.1111
82038SOL     OW63723   0.283   6.684   8.673  0.2922  0.2219 -0.2502
82038SOL    HW163724   0.210   6.622   8.674 -1.7681  2.5017  0.5809
82038SOL    HW263725   0.359   6.631   8.694 -1.2725 -2.0986 -0.0623
82039SOL     OW63726  13.502   5.526   2.344  0.1338  0.2660  0.3359
82039SOL    HW163727  13.587   5.542   2.385 -0.5991  2.5619  1.1655
82039SOL    HW263728  13.491   5.599   2.283 -1.5474  0.4544  0.8224
82040SOL     OW63729   2.891   4.498   9.123 -0.0126  0.0599 -0.0845
82040SOL    HW163730   2.847   4.579   9.099 -0.0139 -0.1165 -0.6933
82040SOL    HW263731   2.930   4.516   9.208  3.1253  2.0024 -1.7457
82041SOL     OW63732   9.475  10.415   0.689  0.6048  0.7394 -0.3267
82041SOL    HW163733   9.516  10.496   0.659  2.3504  0.1860  0.4396
82041SOL    HW263734   9.476  10.421   0.785  2.9107 -1.1267 -0.1473
82042SOL     OW63735   5.229   1.585   5.049 -0.6059  0.1202  0.0986
82042SOL    HW163736   5.238   1.651   5.118 -1.2846  0.1993  0.1188
82042SOL    HW263737   5.181   1.630   4.979 -1.4648 -0.4680  0.2934
82043SOL     OW63738   3.745   1.182   5.710 -0.2342  0.8522 -0.2858
82043SOL    HW163739   3.800   1.103   5.700 -2.1020 -0.5414  0.0061
82043SOL    HW263740   3.657   1.153   5.686 -0.8758  3.0487 -0.7948
82044SOL     OW63741   0.965   2.891  10.064  0.1963  0.3612  0.2113
82044SOL    HW163742   1.000   2.973  10.098 -3.1973  1.2774  1.9212
82044SOL    HW263743   0.946   2.909   9.972  3.5977 -0.1095 -0.7359
82045SOL     OW63744   6.225   5.020  11.991  0.3937  0.0886  0.1413
82045SOL    HW163745   6.220   5.094  12.051 -0.3532 -0.7962  1.2153
82045SOL    HW263746   6.318   4.995  11.993  0.5473  0.6434  0.1973
82046SOL     OW63747   4.053   5.791   2.720 -0.4067 -0.7855 -0.1444
82046SOL    HW163748   4.071   5.811   2.628 -1.4852  0.5988 -0.0802
82046SOL    HW263749   4.055   5.695   2.724 -0.7236 -0.8820 -1.6839
82047SOL     OW63750   2.440   6.957  10.099  0.5901  0.2461  0.4947
82047SOL    HW163751   2.493   7.007  10.161  1.4246  2.3055 -1.7273
82047SOL    HW263752   2.355   7.001  10.098  1.2489  1.6061 -1.2845
82048SOL     OW63753   1.069   3.863   4.814  0.1514  0.3570 -0.0742
82048SOL    HW163754   1.061   3.791   4.877  2.4786  0.8736  0.8875
82048SOL    HW263755   1.008   3.930   4.846 -0.3088 -0.2529  0.3466
82049SOL     OW63756   5.443  13.129   1.976  0.1628  0.0886 -0.7575
82049SOL    HW163757   5.376  13.173   1.924  0.0099 -0.7586 -1.2946
82049SOL    HW263758   5.398  13.054   2.016  0.0955  1.1196  1.2105
82050SOL     OW63759  12.222   0.587   1.799  0.1958 -0.1234 -0.0476
82050SOL    HW163760  12.140   0.627   1.828  0.5435 -0.0967  0.9234
82050SOL    HW263761  12.256   0.542   1.877 -0.3542 -2.6301 -1.1567
82051SOL     OW63762  12.485   8.311   0.008  0.1778  0.2126 -0.3969
82051SOL    HW163763  12.577   8.290   0.026  0.1420 -0.4797 -0.9525
82051SOL    HW263764  12.466   8.386   0.063  0.8222 -0.1923  0.4015
82052SOL     OW63765  11.677   5.257   6.935  0.3193  0.0101  0.1257
82052SOL    HW163766  11.726   5.194   6.987  0.0329 -1.3360 -1.1591
82052SOL    HW263767  11.597   5.273   6.985  0.8451  0.1279  0.9373
82053SOL     OW63768  10.683   1.539   0.187 -0.2599 -0.1195 -0.2851
82053SOL    HW163769  10.630   1.516   0.111 -1.3328  1.7270 -0.1319
82053SOL    HW263770  10.773   1.523   0.158 -0.5588  1.4792 -2.3457
82054SOL     OW63771   0.930   3.807  11.926  0.4399 -0.0214 -0.4726
82054SOL    HW163772   0.986   3.845  11.994  1.6501 -0.8453 -0.9646
82054SOL    HW263773   0.923   3.715  11.950 -0.6710  0.0533 -0.4646
82055SOL     OW63774  13.518   5.180   3.728  0.3766  0.2739  0.5383
82055SOL    HW163775  13.466   5.250   3.769  2.5530  1.1121  2.0461
82055SOL    HW263776  13.564   5.224   3.657 -1.8031 -0.7403 -1.6379
82056SOL     OW63777  12.637   7.024   5.462  0.0694 -0.0483 -0.0511
82056SOL    HW163778  12.645   7.101   5.519 -0.3012  0.1797 -0.2987
82056SOL    HW263779  12.544   7.001   5.466  0.3316 -1.0194  0.7065
82057SOL     OW63780   6.042   2.844  10.317 -0.7311  0.0413  0.2547
82057SOL    HW163781   6.041   2.939  10.320 -0.7656  0.0628 -0.3382
82057SOL    HW263782   5.963   2.820  10.269 -1.9293 -0.3818  2.3063
82058SOL     OW63783  11.310  12.765   8.892  0.1639 -0.3332  0.4738
82058SOL    HW163784  11.358  12.683   8.909 -0.3063 -0.8509 -0.5942
82058SOL    HW263785  11.267  12.750   8.808  0.0616  1.0201  0.2654
82059SOL     OW63786   5.255  10.755   1.724  0.0768  0.6936 -0.0738
82059SOL    HW163787   5.270  10.728   1.634  0.8267  0.6775  0.0501
82059SOL    HW263788   5.328  10.814   1.744 -0.0357  0.6270  0.5496
82060SOL     OW63789   8.680   1.056   2.222 -0.3776 -0.0891 -0.4139
82060SOL    HW163790   8.706   1.101   2.302 -1.0764 -0.5030  0.0598
82060SOL    HW263791   8.733   1.096   2.153  0.2417  0.2629  0.2556
82061SOL     OW63792  13.871   5.079   3.613  0.0307 -0.2877 -0.1988
82061SOL    HW163793  13.941   5.110   3.671  1.3905  0.0467 -1.9339
82061SOL    HW263794  13.898   4.991   3.586 -0.5273 -0.4036 -0.4096
82062SOL     OW63795   7.293  13.293   8.639 -0.6513 -0.2256  1.0469
82062SOL    HW163796   7.311  13.348   8.716 -0.5492 -0.2970  1.0747
82062SOL    HW263797   7.287  13.205   8.675 -0.1692 -0.3158  0.9108
82063SOL     OW63798   1.429   1.346   9.308  0.6536  0.3865 -0.1570
82063SOL    HW163799   1.394   1.429   9.341  0.2937 -0.1443  0.8660
82063SOL    HW263800   1.409   1.347   9.215 -1.7008  0.3264  0.2833
82064SOL     OW63801  11.972  14.072   3.622  0.2527  1.0424  0.2076
82064SOL    HW163802  11.986  14.147   3.564 -0.4394  1.5667  0.7016
82064SOL    HW263803  11.938  14.110   3.703  0.4839  0.2482  0.6912
82065SOL     OW63804  12.969  12.153   6.785 -0.9691 -0.3562 -0.4686
82065SOL    HW163805  12.922  12.107   6.716 -2.2702  1.6529 -0.9932
82065SOL    HW263806  12.913  12.226   6.808 -0.0649 -0.3343  1.9877
82066SOL     OW63807   7.107   2.223   2.472 -0.1948 -0.0546 -0.6710
82066SOL    HW163808   7.149   2.153   2.522 -0.9111  0.5069  0.8007
82066SOL    HW263809   7.097   2.187   2.384  0.6318 -1.2962 -0.2951
82067SOL     OW63810  10.856   8.904   0.379 -0.1520 -0.5707  0.2231
82067SOL    HW163811  10.875   8.997   0.378 -0.7526 -0.3924  2.0026
82067SOL    HW263812  10.860   8.877   0.287 -0.1414  1.2339 -0.3321
82068SOL     OW63813  10.516   6.971   5.268  0.7154  0.2636  0.1711
82068SOL    HW163814  10.440   7.028   5.271  0.0346 -0.6447  2.1953
82068SOL    HW263815  10.548   6.977   5.178 -1.0874  1.5064 -0.4309
82069SOL     OW63816   4.264  13.513   6.492  0.4613  0.3225 -0.0690
82069SOL    HW163817   4.215  13.563   6.557  1.2614 -0.9947  1.6556
82069SOL    HW263818   4.199  13.452   6.455  0.2121  0.4030  0.2304
82070SOL     OW63819   4.653   5.243   5.340 -0.0953 -0.1289 -0.7059
82070SOL    HW163820   4.648   5.220   5.247 -0.2218 -2.1109 -0.2580
82070SOL    HW263821   4.675   5.161   5.384  1.0297  0.9779  0.9301
82071SOL     OW63822  11.984  10.804  13.691 -0.0673  0.2785 -0.2873
82071SOL    HW163823  11.967  10.710  13.681 -1.2853  0.4168  0.3103
82071SOL    HW263824  12.022  10.812  13.779 -1.0332  0.4610  0.1238
82072SOL     OW63825  12.020   7.350  10.608 -0.3706  0.4918 -0.4645
82072SOL    HW163826  12.105   7.391  10.593  0.3725 -1.0401 -0.5827
82072SOL    HW263827  12.037   7.281  10.672 -1.7943  1.0377  0.5604
82073SOL     OW63828  12.857   6.410   2.203 -0.0575  0.1522 -0.5007
82073SOL    HW163829  12.881   6.484   2.147  3.8613  0.1179  0.8381
82073SOL    HW263830  12.876   6.332   2.151 -2.2656 -0.0002 -1.1813
82074SOL     OW63831   1.346   8.673   1.403  0.4428  0.3850 -0.3262
82074SOL    HW163832   1.410   8.688   1.333 -0.2600  0.9460 -0.8675
82074SOL    HW263833   1.399   8.647   1.479  1.3281  0.9691 -0.7196
82075SOL     OW63834  12.145  13.212   4.821 -0.2707 -0.1022 -0.4455
82075SOL    HW163835  12.169  13.301   4.793 -1.6410  0.0460 -1.2413
82075SOL    HW263836  12.149  13.216   4.916 -1.9972  1.3632 -0.3728
82076SOL     OW63837  13.108   1.382   9.219 -0.4271  0.2666 -0.1454
82076SOL    HW163838  13.159   1.302   9.214  0.8252  1.0561 -0.6130
82076SOL    HW263839  13.087   1.403   9.128 -2.1210 -0.3515  0.0758
82077SOL     OW63840   3.755   6.333   5.066  0.3919 -0.0303 -0.0492
82077SOL    HW163841   3.778   6.266   5.002  0.6460  0.1951 -0.1948
82077SOL    HW263842   3.771   6.416   5.021  0.9414  0.1327  0.4309
82078SOL     OW63843   6.174  13.860   2.110 -0.3316 -0.9772 -0.1969
82078SOL    HW163844   6.212  13.851   2.023 -1.4674 -1.4276 -0.6727
82078SOL    HW263845   6.236  13.915   2.159 -0.3311  0.4051 -1.6901
82079SOL     OW63846   0.117  13.210   4.172 -0.8929  1.1046 -0.1682
82079SOL    HW163847   0.081  13.242   4.089  0.8137  2.1624 -0.5480
82079SOL    HW263848   0.162  13.285   4.210 -1.0208  0.4499  1.3995
82080SOL     OW63849  12.890   2.998   4.524  0.4210 -0.3469  0.3931
82080SOL    HW163850  12.963   2.969   4.578 -0.7649  0.0636  2.3120
82080SOL    HW263851  12.836   2.920   4.513  0.3826 -0.2998  0.2443
82081SOL     OW63852  12.196   8.872   7.005 -0.0947  0.0197  0.5462
82081SOL    HW163853  12.227   8.961   6.992 -0.2491 -0.0273 -0.1587
82081SOL    HW263854  12.254   8.818   6.951  0.2956 -0.3675  1.3195
82082SOL     OW63855   2.576  12.262  12.433  0.6817  0.5451 -0.3070
82082SOL    HW163856   2.559  12.324  12.362 -0.5295 -0.8757 -1.3117
82082SOL    HW263857   2.672  12.263  12.444  1.0727 -0.3257 -3.0388
82083SOL     OW63858   0.790   3.310  12.353 -0.2133 -0.3696  0.1965
82083SOL    HW163859   0.884   3.317  12.369 -0.1491  0.5650 -0.5003
82083SOL    HW263860   0.755   3.271  12.434  0.6463  0.1274  0.8321
82084SOL     OW63861   6.814   9.499  12.092  0.1289  0.4583  0.5750
82084SOL    HW163862   6.814   9.518  12.186  1.3662 -1.2918  0.9916
82084SOL    HW263863   6.729   9.457  12.077  0.8373 -1.4684  1.4980
82085SOL     OW63864   1.125  12.577   8.118  0.1303  0.2079  0.0321
82085SOL    HW163865   1.144  12.542   8.031  0.2721  1.4684 -0.4768
82085SOL    HW263866   1.201  12.632   8.138  0.8856 -1.3532  1.6984
82086SOL     OW63867   2.224   5.006   5.341 -0.2607  0.1198  0.0961
82086SOL    HW163868   2.276   4.981   5.265 -0.2242 -0.0596  0.1813
82086SOL    HW263869   2.133   5.003   5.309 -0.2373  0.1715  0.0239
82087SOL     OW63870   4.629  12.737  11.316  0.1783 -0.0990 -0.2832
82087SOL    HW163871   4.663  12.719  11.404  0.9023 -0.6907 -0.6666
82087SOL    HW263872   4.609  12.830  11.317 -1.2810 -0.3781  0.9779
82088SOL     OW63873   6.585   1.291   1.258  0.7051  0.5720  0.4357
82088SOL    HW163874   6.604   1.219   1.198 -0.1173 -0.1872  1.0564
82088SOL    HW263875   6.590   1.252   1.345  1.3960  1.5462  0.8555
82089SOL     OW63876   9.755   2.320   8.206  0.4411 -0.0864 -0.3394
82089SOL    HW163877   9.692   2.317   8.278  0.9803  1.0664  0.2251
82089SOL    HW263878   9.838   2.342   8.249  0.5225  2.0011 -1.4061
82090SOL     OW63879   7.998   6.464  13.892 -0.0684  0.2122 -0.5281
82090SOL    HW163880   7.986   6.548  13.847  0.8851 -0.1385 -1.5069
82090SOL    HW263881   8.065   6.420  13.840  0.9271 -0.3173  1.1480
82091SOL     OW63882   3.487   8.482   7.755  0.4587 -0.0552 -0.3007
82091SOL    HW163883   3.552   8.448   7.694 -0.9474 -2.1218 -0.7166
82091SOL    HW263884   3.426   8.531   7.701  0.9280  0.7954 -0.0821
82092SOL     OW63885   6.779   2.661   0.165  0.1643  0.1863  0.5216
82092SOL    HW163886   6.754   2.753   0.176  1.5763  1.2574 -3.5800
82092SOL    HW263887   6.700   2.620   0.130  0.6569  0.8986 -1.5651
82093SOL     OW63888   6.889   0.434   1.623  0.7351 -0.4344 -0.1851
82093SOL    HW163889   6.943   0.403   1.696  0.3621 -0.9920 -0.1341
82093SOL    HW263890   6.815   0.373   1.620  0.1236  0.2949 -0.2776
82094SOL     OW63891  12.957   6.780   5.417  0.5912  0.7026  0.4710
82094SOL    HW163892  12.994   6.692   5.421 -0.1655  0.2999 -0.6890
82094SOL    HW263893  12.867   6.770   5.450  0.4756  1.0070  0.2551
82095SOL     OW63894   3.544   9.443  13.776 -0.3000 -0.2427  0.1665
82095SOL    HW163895   3.525   9.525  13.822  1.3322  1.2108 -1.5753
82095SOL    HW263896   3.502   9.454  13.690 -1.1149 -1.7854  0.3490
82096SOL     OW63897   6.082   7.434  10.095 -0.4956 -0.1747 -0.6593
82096SOL    HW163898   6.079   7.530  10.088 -0.5751 -0.1922 -0.8703
82096SOL    HW263899   6.147   7.417  10.162 -0.8283  0.0481 -0.2720
82097SOL     OW63900   2.636   7.309   6.714 -0.3243 -0.1704 -0.0457
82097SOL    HW163901   2.711   7.367   6.701 -0.9103  0.2398 -1.8640
82097SOL    HW263902   2.571   7.363   6.758  0.0570 -0.2200  0.5882
82098SOL     OW63903   7.314  13.829  11.627  0.0342  0.4578  0.5546
82098SOL    HW163904   7.308  13.855  11.719 -0.0899  1.0760  0.3757
82098SOL    HW263905   7.349  13.739  11.629 -0.3103  0.3363  1.2138
82099SOL     OW63906   0.853   0.777  11.332  0.3937 -0.5145 -0.2627
82099SOL    HW163907   0.866   0.775  11.426  0.4974  1.0960 -0.2055
82099SOL    HW263908   0.923   0.723  11.296 -0.2382 -1.9481  0.6021
82100SOL     OW63909   3.747   9.363   3.242  0.0976  0.2755  0.4362
82100SOL    HW163910   3.777   9.327   3.159  2.2474  1.5672  0.5670
82100SOL    HW263911   3.773   9.455   3.240 -2.2224  1.0450  1.4676
82101SOL     OW63912   5.974   0.156   6.387 -0.3101 -0.6544  0.4435
82101SOL    HW163913   5.999   0.248   6.400  1.0400 -1.2045  1.9836
82101SOL    HW263914   5.985   0.116   6.473 -0.0687 -2.4642 -0.4010
82102SOL     OW63915   5.080  12.607   8.247  0.0882  0.0288 -0.5277
82102SOL    HW163916   5.060  12.683   8.193 -1.7618  1.1005  1.4884
82102SOL    HW263917   5.029  12.621   8.327  2.3485 -1.6490  1.3339
82103SOL     OW63918  13.662   1.460   8.722  0.0305 -0.2137 -0.3970
82103SOL    HW163919  13.739   1.470   8.778 -0.6649  0.6447  0.4242
82103SOL    HW263920  13.671   1.371   8.686  1.8878  0.2060 -1.0805
82104SOL     OW63921   4.178  12.381   2.352  0.2475 -0.2049  0.5790
82104SOL    HW163922   4.150  12.289   2.359 -0.6353  0.1283  1.6921
82104SOL    HW263923   4.264  12.376   2.309  0.7872 -1.6526  1.7182
82105SOL     OW63924   1.270  12.024   3.591 -0.2360 -0.0807  0.1372
82105SOL    HW163925   1.260  12.103   3.538 -1.5910 -0.9913 -1.0640
82105SOL    HW263926   1.317  12.053   3.669 -0.0322  1.7427 -0.6060
82106SOL     OW63927  14.070   0.853   8.733  0.1040 -0.2224 -0.0099
82106SOL    HW163928  14.077   0.948   8.744  0.3630 -0.1675 -0.6288
82106SOL    HW263929  14.055   0.820   8.822 -0.0885  0.4033  0.1937
82107SOL     OW63930   2.658   5.988   1.856 -0.3946 -0.0397 -0.1643
82107SOL    HW163931   2.567   5.973   1.833 -0.1193 -2.1322 -0.0579
82107SOL    HW263932   2.657   5.999   1.951 -0.6321  0.9048 -0.2686
82108SOL     OW63933  10.446   2.177   6.345  0.0085 -0.1081 -0.4322
82108SOL    HW163934  10.507   2.124   6.294 -1.7053 -0.3434 -2.4083
82108SOL    HW263935  10.469   2.160   6.436  0.5229 -3.1116 -1.0050
82109SOL     OW63936  12.859   8.876   4.839  0.1984  0.5484 -0.5529
82109SOL    HW163937  12.838   8.820   4.914 -0.1497  0.3747 -0.7783
82109SOL    HW263938  12.781   8.874   4.785  1.3458 -1.5321 -2.2754
82110SOL     OW63939   0.818   4.028   1.267  0.0383 -0.0406 -0.0098
82110SOL    HW163940   0.887   4.010   1.331 -0.3662 -1.7272 -0.0023
82110SOL    HW263941   0.862   4.028   1.182  0.7019  2.8730  0.2123
82111SOL     OW63942  11.433   4.952   8.499 -1.1044  0.2191  0.3661
82111SOL    HW163943  11.494   4.901   8.554  0.0624  1.7770  0.5819
82111SOL    HW263944  11.422   4.898   8.420 -1.0060 -0.9977  1.1492
82112SOL     OW63945   9.344  11.689   0.404 -0.3392 -0.1496  0.1433
82112SOL    HW163946   9.322  11.603   0.368 -0.3594 -0.1515  0.1597
82112SOL    HW263947   9.300  11.691   0.489  1.0354 -0.7842  0.9043
82113SOL     OW63948   4.951   5.161  11.722 -0.3218  0.6935 -0.6404
82113SOL    HW163949   5.038   5.151  11.684  0.7517  1.2033  1.5018
82113SOL    HW263950   4.942   5.254  11.739 -0.3094  0.4093  1.1734
82114SOL     OW63951  11.284  13.680   0.619 -0.5194  0.0526  0.4115
82114SOL    HW163952  11.216  13.643   0.675 -0.4155  1.5988  1.6163
82114SOL    HW263953  11.365  13.668   0.669  0.1252 -1.6484 -0.9473
82115SOL     OW63954  13.009  11.041   3.132  0.1027 -0.2317 -0.0682
82115SOL    HW163955  12.991  10.977   3.064  1.1121 -1.2782  0.6099
82115SOL    HW263956  12.973  11.002   3.212 -2.8101  1.8287 -0.2335
82116SOL     OW63957   8.530   4.318   4.350  0.5772  0.5558 -0.1770
82116SOL    HW163958   8.560   4.385   4.288 -0.1752  2.0084  0.9521
82116SOL    HW263959   8.435   4.324   4.348  0.5401  1.0281  1.4841
82117SOL     OW63960   0.488   2.536  13.502  0.0828 -0.3945 -0.1811
82117SOL    HW163961   0.565   2.552  13.556 -0.2022  0.4730 -0.0244
82117SOL    HW263962   0.414   2.552  13.560 -0.2427  1.3421 -1.0148
82118SOL     OW63963   1.557   1.651  10.548  0.0770 -0.1555  0.6163
82118SOL    HW163964   1.494   1.698  10.602 -0.9772 -0.3904 -0.3682
82118SOL    HW263965   1.582   1.714  10.479  1.1226  0.0188  1.1352
82119SOL     OW63966   4.007   2.329   7.657  0.1256 -0.2505  0.1265
82119SOL    HW163967   4.096   2.301   7.637 -0.1181  1.5418 -4.8769
82119SOL    HW263968   4.018   2.397   7.724  2.8994  1.5070 -1.9108
82120SOL     OW63969   0.424  10.403   5.575 -0.0050 -0.4602  0.0844
82120SOL    HW163970   0.472  10.484   5.556 -2.1334  1.0755  0.7493
82120SOL    HW263971   0.437  10.389   5.669  0.3151 -0.8417 -0.0198
82121SOL     OW63972   6.749   5.702   0.360 -0.1862  0.0944 -0.1039
82121SOL    HW163973   6.703   5.715   0.277 -0.7539 -0.8598  0.0356
82121SOL    HW263974   6.732   5.610   0.382  1.1893 -0.0880  0.3284
82122SOL     OW63975   1.858   9.083   0.384 -0.2108  0.2945 -0.4878
82122SOL    HW163976   1.859   9.006   0.441 -1.8915  0.2288 -0.4722
82122SOL    HW263977   1.943   9.124   0.396  0.5014 -1.2403 -0.0477
82123SOL     OW63978   6.820   2.056  13.274  0.2346  0.1006  0.1309
82123SOL    HW163979   6.875   1.999  13.221  0.3058  0.3791 -0.0961
82123SOL    HW263980   6.828   2.021  13.363 -0.2885 -0.6783 -0.1231
82124SOL     OW63981   0.511   5.971   2.738  0.6105  0.1866  0.2354
82124SOL    HW163982   0.576   6.033   2.704 -1.4271  1.3536 -1.8512
82124SOL    HW263983   0.502   5.905   2.669  0.1628 -0.4230  0.8561
82125SOL     OW63984   5.795   1.821   7.299 -0.4403 -0.4732  0.1177
82125SOL    HW163985   5.794   1.868   7.216 -0.6097 -0.0549  0.3575
82125SOL    HW263986   5.728   1.863   7.352  0.6971  0.2591  1.0219
82126SOL     OW63987  13.498   0.659  11.487 -0.7384  0.0684  0.0895
82126SOL    HW163988  13.580   0.621  11.519 -1.8663 -0.9943  1.9331
82126SOL    HW263989  13.519   0.750  11.468  0.8274 -0.1333  0.7021
82127SOL     OW63990   4.694   1.130   2.207 -0.2121  0.1403 -0.0917
82127SOL    HW163991   4.694   1.195   2.137  1.5262  0.1290 -0.1397
82127SOL    HW263992   4.719   1.178   2.286 -0.0881 -0.2341  0.1055
82128SOL     OW63993   1.274   2.447   0.099 -0.0476 -0.0153 -0.2063
82128SOL    HW163994   1.304   2.522   0.150 -2.3308  0.8637 -0.0890
82128SOL    HW263995   1.288   2.472   0.008  2.2936 -0.8521 -0.1589
82129SOL     OW63996   4.375   6.960   6.270  0.1364  0.7723 -0.2149
82129SOL    HW163997   4.300   6.934   6.323 -0.1880 -0.3717 -1.2082
82129SOL    HW263998   4.354   6.930   6.182  1.1417  1.6987 -0.7937
82130SOL     OW63999   8.329   8.395   3.328  1.0063 -0.2306 -0.8322
82130SOL    HW164000   8.269   8.448   3.380  0.3995 -0.5317 -1.2141
82130SOL    HW264001   8.331   8.438   3.242  1.1479 -0.3627 -0.8962
82131SOL     OW64002  13.662   7.439  10.974 -0.3271  0.1591 -0.2946
82131SOL    HW164003  13.655   7.349  11.003 -1.2886  0.3841  0.2182
82131SOL    HW264004  13.748   7.445  10.932 -0.1611 -0.9220 -0.1197
82132SOL     OW64005   0.813  12.213   7.991  0.2566 -0.0183  0.2359
82132SOL    HW164006   0.800  12.119   7.998 -1.0179  0.1041 -0.1919
82132SOL    HW264007   0.841  12.241   8.078 -1.7127 -0.4512  1.0403
82133SOL     OW64008   3.033   8.117   3.529  0.2986 -0.2177 -0.1638
82133SOL    HW164009   3.121   8.138   3.560 -0.5457  0.4488  1.9412
82133SOL    HW264010   2.995   8.202   3.507 -1.0087 -0.0258  2.4533
82134SOL     OW64011  13.774  12.406   9.207  0.7251 -0.1342  0.1111
82134SOL    HW164012  13.768  12.492   9.166  0.9056  0.6620  1.6947
82134SOL    HW264013  13.707  12.354   9.163 -1.8960  1.8372  1.5231
82135SOL     OW64014   8.946   9.995   2.888  0.6177 -0.1137  0.3866
82135SOL    HW164015   8.929  10.084   2.857  0.5910 -1.0186 -2.5055
82135SOL    HW264016   8.867   9.971   2.936  0.4861  1.2623  0.9100
82136SOL     OW64017  13.125   8.246   8.908  0.2419  0.4063  0.0012
82136SOL    HW164018  13.172   8.261   8.826  0.4225 -0.2706 -0.0207
82136SOL    HW264019  13.130   8.152   8.922  0.9919  0.6181  1.2683
82137SOL     OW64020   2.082   2.689  12.777 -0.8631  0.1253  0.5238
82137SOL    HW164021   2.126   2.773  12.763 -0.0291 -0.3181  0.3936
82137SOL    HW264022   2.096   2.670  12.870 -2.9767  1.1652  1.1365
82138SOL     OW64023  11.899   5.411   2.182 -0.2176 -0.0472 -0.4141
82138SOL    HW164024  11.855   5.369   2.108  1.0245 -0.7686 -0.7687
82138SOL    HW264025  11.962   5.471   2.143  1.5519 -1.5682 -0.0309
82139SOL     OW64026  11.257   4.298  10.250  0.0648 -0.1628 -0.0143
82139SOL    HW164027  11.343   4.256  10.241  1.2305  1.6483  1.8011
82139SOL    HW264028  11.253   4.358  10.176 -0.3509 -1.3303 -0.9730
82140SOL     OW64029  12.442  11.857   0.455  0.6573 -0.1812 -0.4576
82140SOL    HW164030  12.366  11.874   0.399  1.6181  2.9260 -1.0300
82140SOL    HW264031  12.517  11.860   0.396  1.4966  0.6673  0.6072
82141SOL     OW64032   0.640   3.611   9.649  0.2483 -0.1997  0.2972
82141SOL    HW164033   0.640   3.684   9.586  2.1714  0.8962  1.4702
82141SOL    HW264034   0.676   3.537   9.600 -0.1393  0.0868 -0.4360
82142SOL     OW64035   7.085   3.704   2.791  0.3907 -0.0641  0.1533
82142SOL    HW164036   7.029   3.627   2.787  0.7890 -0.3008 -1.8594
82142SOL    HW264037   7.046   3.759   2.859 -3.3036  0.5390 -2.2177
82143SOL     OW64038   0.505   5.255   1.964 -0.4880  0.1872 -0.5053
82143SOL    HW164039   0.595   5.268   1.935 -0.5614  0.6474 -0.5271
82143SOL    HW264040   0.459   5.335   1.939 -1.3590 -0.7851 -2.2704
82144SOL     OW64041  13.304   5.474  12.501  0.2157 -0.4131 -0.4300
82144SOL    HW164042  13.230   5.519  12.541 -0.1292 -0.5369 -0.9161
82144SOL    HW264043  13.265   5.419  12.433  0.8418  0.3416 -1.4306
82145SOL     OW64044   8.748  12.921   3.278 -0.2339  0.0436 -0.3968
82145SOL    HW164045   8.780  12.948   3.192 -1.6497  0.8348 -0.7056
82145SOL    HW264046   8.765  12.827   3.281 -1.0359 -0.1789 -1.9563
82146SOL     OW64047   0.846   1.062   3.797  0.2961 -0.7779 -0.4433
82146SOL    HW164048   0.785   1.052   3.870  0.0847 -0.3161 -0.5554
82146SOL    HW264049   0.816   1.139   3.751  1.9841  0.5132  0.4851
82147SOL     OW64050   5.936   4.851   4.905 -0.3240  0.6063 -0.3483
82147SOL    HW164051   5.865   4.790   4.923  0.9410 -1.0534 -0.7995
82147SOL    HW264052   5.901   4.936   4.932 -0.9107 -0.7243  3.8728
82148SOL     OW64053  10.166  13.686   4.535 -0.4788 -0.5498  0.2820
82148SOL    HW164054  10.243  13.661   4.485 -0.2430 -0.9371  0.8305
82148SOL    HW264055  10.106  13.724   4.471  0.7643  1.1643  0.0593
82149SOL     OW64056   6.400   6.318   4.764 -0.3404 -0.0093 -0.2075
82149SOL    HW164057   6.449   6.252   4.713 -2.5168  0.1764 -2.7649
82149SOL    HW264058   6.434   6.401   4.732 -0.7457  0.1069 -0.3367
82150SOL     OW64059   4.606  11.630  13.332  0.2138 -0.0381  0.5938
82150SOL    HW164060   4.656  11.617  13.252 -1.4096 -1.2102 -0.3166
82150SOL    HW264061   4.638  11.712  13.369  1.6009  0.0825 -0.7986
82151SOL     OW64062   5.755   3.773   6.696 -0.3232  0.3874  0.1855
82151SOL    HW164063   5.802   3.824   6.762  1.1462 -1.2381  0.4392
82151SOL    HW264064   5.823   3.737   6.640 -1.3946 -0.4751 -0.5990
82152SOL     OW64065   8.962  10.214  13.752  0.1017  0.3027 -0.0623
82152SOL    HW164066   8.891  10.176  13.804  0.2630  1.7157  1.2550
82152SOL    HW264067   8.931  10.209  13.661 -2.2202  1.9495  0.5767
82153SOL     OW64068   8.650   7.320   1.454  0.5444 -0.5573  0.2740
82153SOL    HW164069   8.569   7.341   1.406  1.1702 -0.1483 -0.6291
82153SOL    HW264070   8.665   7.227   1.435  1.2379 -0.1955 -1.0422
82154SOL     OW64071   6.059   8.992  11.632  0.3041  0.0210 -0.7804
82154SOL    HW164072   5.970   9.023  11.619  0.2581  0.6784  0.8302
82154SOL    HW264073   6.083   9.024  11.719  1.5862 -1.3722 -0.5785
82155SOL     OW64074   4.316   9.693   1.916 -0.1327  0.7582  0.4695
82155SOL    HW164075   4.304   9.601   1.894  0.4560  0.8507 -0.2921
82155SOL    HW264076   4.297   9.740   1.835  0.0148  1.2686  0.7270
82156SOL     OW64077   8.292   4.109   7.328  0.4337  0.2064 -0.4868
82156SOL    HW164078   8.379   4.083   7.297 -0.2540 -1.4441 -1.1274
82156SOL    HW264079   8.266   4.180   7.269  1.9722  1.8502  0.7201
82157SOL     OW64080  10.272  10.549  13.969 -0.5789 -0.4987  0.1822
82157SOL    HW164081  10.283  10.640  13.942  0.3694 -0.5625  0.3318
82157SOL    HW264082  10.280  10.498  13.888 -0.1682 -0.5152  0.2321
82158SOL     OW64083   4.916   5.453   5.183 -0.1294 -0.7432  0.3654
82158SOL    HW164084   4.832   5.453   5.137 -0.5831  2.0906  0.9915
82158SOL    HW264085   4.895   5.430   5.273 -0.8216  2.5698  1.1846
82159SOL     OW64086   3.176  13.182   2.200 -0.6510  0.4550 -0.4690
82159SOL    HW164087   3.211  13.227   2.277 -1.2598  0.1284  0.0020
82159SOL    HW264088   3.249  13.127   2.170  0.2462  2.0215 -1.2951
82160SOL     OW64089   3.172   4.076  12.344  0.1923 -0.0679 -0.0001
82160SOL    HW164090   3.120   4.039  12.415 -0.5971 -1.8737 -1.4353
82160SOL    HW264091   3.227   4.004  12.313 -0.0153  0.4323 -1.6618
82161SOL     OW64092   3.371   1.666   1.247 -0.0953  0.1985  0.4893
82161SOL    HW164093   3.353   1.652   1.340  0.2769 -1.5316  0.3198
82161SOL    HW264094   3.294   1.631   1.202 -0.0583  0.5825  0.1199
82162SOL     OW64095   1.310  12.219   2.974  0.1870 -0.4684  0.0780
82162SOL    HW164096   1.303  12.228   2.879 -1.4436 -2.3952 -0.0498
82162SOL    HW264097   1.399  12.185   2.989  1.8024  3.0863 -0.3581
82163SOL     OW64098   2.501   4.442  13.997  0.0260  0.2316  0.7318
82163SOL    HW164099   2.453   4.365  14.028  0.2088 -0.2206 -0.0686
82163SOL    HW264100   2.572   4.406  13.944  0.1218  0.9520  0.3572
82164SOL     OW64101   7.641  12.927   9.132  0.2050 -0.0840 -0.0299
82164SOL    HW164102   7.663  12.962   9.218 -0.4372  0.6662 -0.1678
82164SOL    HW264103   7.690  12.981   9.070 -0.0828 -0.0003 -0.1882
82165SOL     OW64104   9.956  11.191  10.685 -0.3847 -0.0819 -0.3502
82165SOL    HW164105  10.047  11.199  10.714  0.3372 -1.3255 -2.0741
82165SOL    HW264106   9.958  11.217  10.593 -1.0770 -3.0816 -1.3375
82166SOL     OW64107  12.179   1.947  10.337  0.1370 -0.7257 -0.6297
82166SOL    HW164108  12.138   2.012  10.280  0.7004 -2.0766 -2.6866
82166SOL    HW264109  12.127   1.950  10.417 -1.0029  0.9257 -1.3608
82167SOL     OW64110  13.193  13.566   0.091 -0.1530 -0.2631  0.3004
82167SOL    HW164111  13.230  13.652   0.072  0.6725 -0.2702  1.7193
82167SOL    HW264112  13.175  13.568   0.185 -0.7841 -1.4032  0.2270
82168SOL     OW64113   5.738   9.832  13.434  0.2124  0.3509  0.5363
82168SOL    HW164114   5.645   9.811  13.437  0.1400  0.6176  0.1365
82168SOL    HW264115   5.755   9.878  13.517 -0.1663  0.9421  0.2906
82169SOL     OW64116  12.427   7.457   5.139  0.9486  0.9480 -0.0131
82169SOL    HW164117  12.345   7.409   5.122 -0.3040  3.0651 -0.2716
82169SOL    HW264118  12.493   7.388   5.149 -0.7715 -0.8256 -0.2014
82170SOL     OW64119   4.763   2.509  13.812 -0.5223 -0.1741  0.3860
82170SOL    HW164120   4.764   2.505  13.716 -0.0038 -0.5259  0.3983
82170SOL    HW264121   4.813   2.588  13.833  0.0303 -0.5165  0.3775
82171SOL     OW64122   1.744   7.096   7.344 -0.6718  0.3599  0.0694
82171SOL    HW164123   1.714   7.056   7.262  0.9366 -0.2322 -0.2567
82171SOL    HW264124   1.727   7.190   7.332  1.4015  0.5862 -1.8511
82172SOL     OW64125   8.128   6.379   9.581  0.8336  0.4310  0.4690
82172SOL    HW164126   8.099   6.454   9.531 -0.2394 -0.3715 -0.1429
82172SOL    HW264127   8.223   6.378   9.570  0.7726  1.2150 -0.1862
82173SOL     OW64128  10.695   6.691  11.822 -0.1650  0.3425  0.3997
82173SOL    HW164129  10.624   6.720  11.879 -2.0594  1.9081 -2.4927
82173SOL    HW264130  10.664   6.608  11.784 -0.8734  1.3930 -1.4270
82174SOL     OW64131   9.053   2.163   5.571  1.2201 -0.6435  0.5029
82174SOL    HW164132   8.968   2.206   5.558  1.4461 -0.2389  0.3770
82174SOL    HW264133   9.083   2.195   5.656  2.5665  1.4583 -0.6840
82175SOL     OW64134  13.480  12.875   7.659 -0.1675  0.0277  0.1729
82175SOL    HW164135  13.535  12.802   7.685 -0.7128 -0.5599 -0.2974
82175SOL    HW264136  13.517  12.903   7.575 -1.1093 -0.9497 -0.5937
82176SOL     OW64137   9.907  14.034   9.073  0.0641 -0.2267 -0.3029
82176SOL    HW164138   9.933  14.062   9.160 -1.6857 -1.1760  0.5856
82176SOL    HW264139   9.814  14.056   9.068  0.2429  0.3107 -2.1614
82177SOL     OW64140   2.209   9.461   4.761 -0.1040 -0.0136 -0.4886
82177SOL    HW164141   2.278   9.396   4.777  1.1645  1.7168  1.4640
82177SOL    HW264142   2.153   9.456   4.838 -1.1070 -0.0876 -1.2096
82178SOL     OW64143   7.664  13.067   9.418  0.0711 -0.3457  0.0853
82178SOL    HW164144   7.578  13.026   9.433 -0.0344 -0.4646 -0.7981
82178SOL    HW264145   7.675  13.127   9.493 -1.4891  0.8350 -0.5619
82179SOL     OW64146   6.189  10.780   4.541  0.2761  0.0870  0.5714
82179SOL    HW164147   6.197  10.792   4.636  0.9640 -0.7789  0.6355
82179SOL    HW264148   6.095  10.783   4.524  0.1416  0.0969  1.3031
82180SOL     OW64149  13.963  11.429   8.079 -0.6175  0.0399  0.1608
82180SOL    HW164150  13.881  11.456   8.039 -1.5710 -0.3243  1.7801
82180SOL    HW264151  13.996  11.360   8.022 -2.5377 -1.3161  0.5828
82181SOL     OW64152   0.069   1.418  12.182 -0.0818  1.1994 -0.4170
82181SOL    HW164153   0.034   1.506  12.170  1.1329  1.6189 -1.0027
82181SOL    HW264154   0.033   1.368  12.109 -2.2270  0.6962  0.8779
82182SOL     OW64155   4.347   8.288  10.900  0.0818 -0.0193  0.0242
82182SOL    HW164156   4.405   8.358  10.872 -1.1587  0.7801 -0.6580
82182SOL    HW264157   4.306   8.257  10.819 -1.4522  0.3899  0.5984
82183SOL     OW64158  11.659   1.151  13.498  0.1960 -0.5557 -0.0563
82183SOL    HW164159  11.608   1.212  13.444  0.2638 -0.0966  0.3836
82183SOL    HW264160  11.750   1.176  13.483  0.2633 -1.0186 -0.4236
82184SOL     OW64161   1.732  12.820  13.826 -0.3582 -0.2933  0.4929
82184SOL    HW164162   1.708  12.903  13.868  1.4014  0.2814  0.4601
82184SOL    HW264163   1.819  12.837  13.788  1.0324 -2.7703  2.2976
82185SOL     OW64164  13.816  10.201  13.293  0.1856 -0.0335 -0.0135
82185SOL    HW164165  13.848  10.199  13.383 -0.3736 -2.4664  0.1923
82185SOL    HW264166  13.743  10.264  13.295  0.4490  0.2516  1.1095
82186SOL     OW64167   7.348   3.963  13.950 -0.5620 -0.5120  0.0602
82186SOL    HW164168   7.263   4.003  13.931 -1.2623 -1.3353  1.3502
82186SOL    HW264169   7.407   4.003  13.886 -1.8968  0.0997 -0.8513
82187SOL     OW64170   6.330   3.205  12.173 -0.3230 -0.3060 -0.2584
82187SOL    HW164171   6.363   3.282  12.127  0.2111  2.1701  3.7242
82187SOL    HW264172   6.238   3.199  12.147 -0.2814  1.4671 -0.9689
82188SOL     OW64173   6.678   6.510   9.866 -0.2001  0.0102  0.4083
82188SOL    HW164174   6.765   6.502   9.903  0.7509  1.4615 -1.3177
82188SOL    HW264175   6.648   6.420   9.855  0.5265 -0.4897  2.1781
82189SOL     OW64176   1.805   9.465   7.928 -0.0775 -0.1760 -0.2452
82189SOL    HW164177   1.773   9.554   7.913 -0.9203 -0.3236  0.5166
82189SOL    HW264178   1.763   9.439   8.011 -1.1512 -1.8630 -1.2570
82190SOL     OW64179   9.897  10.499   8.226  0.0949 -0.5445 -0.5022
82190SOL    HW164180   9.867  10.587   8.203 -1.8207 -0.8856  0.4925
82190SOL    HW264181   9.992  10.507   8.230 -0.0596  1.7417  0.4622
82191SOL     OW64182  13.410   0.472   7.491 -0.3830  0.8305  0.0866
82191SOL    HW164183  13.332   0.527   7.505 -2.6677 -1.4955 -2.4573
82191SOL    HW264184  13.400   0.401   7.554 -0.7538  0.1587 -0.7096
82192SOL     OW64185   2.622   8.088   5.234  0.3964 -0.0915  0.3456
82192SOL    HW164186   2.579   8.061   5.153 -0.7868 -2.0785  1.5560
82192SOL    HW264187   2.582   8.172   5.255 -1.0051 -0.6538  0.0569
82193SOL     OW64188   7.761  13.631  10.020 -0.3425 -0.7244  0.0355
82193SOL    HW164189   7.832  13.576  10.054  0.6441  1.6422  2.1650
82193SOL    HW264190   7.684  13.605  10.071  0.4707  0.7643  2.1980
82194SOL     OW64191   0.723   2.980  10.210  0.2194 -0.1284 -0.2210
82194SOL    HW164192   0.781   3.011  10.279  0.1145 -1.7993  0.6649
82194SOL    HW264193   0.780   2.935  10.148 -0.0972 -2.1550  0.8713
82195SOL     OW64194   4.923   3.525   8.465 -0.2958  0.0970 -0.8307
82195SOL    HW164195   4.923   3.448   8.523 -0.7415 -0.6093 -1.7350
82195SOL    HW264196   4.945   3.598   8.522 -1.3433 -0.4767  0.3547
82196SOL     OW64197   3.858   9.090  11.429  0.6098 -0.4544 -0.0970
82196SOL    HW164198   3.943   9.104  11.387  0.6062 -0.9873 -0.2913
82196SOL    HW264199   3.797   9.077  11.356  0.8157 -2.5912  0.0449
82197SOL     OW64200   6.753   9.977   5.469 -0.1626  0.1858  0.2716
82197SOL    HW164201   6.764   9.893   5.514  0.2785 -0.6320 -1.2963
82197SOL    HW264202   6.784  10.041   5.533  1.6707 -1.0307  0.6950
82198SOL     OW64203   8.405   3.989   0.460  0.6000  0.1799 -0.0847
82198SOL    HW164204   8.458   4.065   0.435 -1.6308  1.4339 -1.3370
82198SOL    HW264205   8.363   3.961   0.379 -0.3839 -0.9683  0.7843
82199SOL     OW64206   2.383   5.826  12.612  0.3793  0.2909  0.0418
82199SOL    HW164207   2.375   5.919  12.590 -0.4507  0.2594  0.1697
82199SOL    HW264208   2.340   5.781  12.540 -0.0023  0.0526  0.4149
82200SOL     OW64209   4.251  10.441   8.348  0.1145  0.4110  0.3594
82200SOL    HW164210   4.217  10.427   8.259  0.5504  1.2380  0.0476
82200SOL    HW264211   4.181  10.490   8.392 -0.6244 -1.0553  0.8730
82201SOL     OW64212  10.278  10.698  13.457  0.1452  0.4676 -0.1668
82201SOL    HW164213  10.195  10.726  13.496 -0.0273 -0.1587 -0.0810
82201SOL    HW264214  10.260  10.691  13.364  0.5944  2.0988 -0.4264
82202SOL     OW64215   0.523   3.030   5.482  0.4847  0.4941 -0.2861
82202SOL    HW164216   0.585   2.963   5.454  0.1485 -0.0651  0.2465
82202SOL    HW264217   0.443   3.011   5.433 -0.9373 -2.0456  2.6076
82203SOL     OW64218   2.357   9.111   0.417 -0.7321  0.2549  0.1535
82203SOL    HW164219   2.428   9.155   0.370 -1.3713  0.4724 -0.6291
82203SOL    HW264220   2.397   9.030   0.449 -0.4058 -0.1586 -1.2281
82204SOL     OW64221   7.026  10.322   2.384  0.2908  0.0487 -0.5309
82204SOL    HW164222   7.019  10.249   2.323 -1.5129  0.0139 -0.3240
82204SOL    HW264223   6.997  10.398   2.334  2.9252  0.8295 -0.9979
82205SOL     OW64224   6.401   1.479  12.533 -0.2063 -0.3862  0.3066
82205SOL    HW164225   6.320   1.527  12.554 -0.6662 -0.2020 -1.6278
82205SOL    HW264226   6.458   1.545  12.493 -0.0072 -0.9803 -0.4229
82206SOL     OW64227   2.951   6.097  11.832 -0.2182  0.0693 -0.1161
82206SOL    HW164228   3.030   6.094  11.886 -0.1528  0.0268 -0.2134
82206SOL    HW264229   2.984   6.100  11.742 -0.2216  3.2733 -0.1235
82207SOL     OW64230   4.685  11.842   0.873 -0.3257 -0.0811 -0.1149
82207SOL    HW164231   4.748  11.912   0.856  0.5962  0.1261  3.3929
82207SOL    HW264232   4.604  11.887   0.896  0.1700 -0.0726  1.7978
82208SOL     OW64233   3.697   7.812  13.781  0.0116  0.2084  0.0525
82208SOL    HW164234   3.759   7.757  13.731  1.5975 -0.7771  2.8886
82208SOL    HW264235   3.612   7.791  13.744  0.9242 -1.7581 -1.1103
82209SOL     OW64236  11.785   9.853   0.760  0.0984  0.6594 -0.1305
82209SOL    HW164237  11.732   9.821   0.833 -0.8266  4.9393  1.4058
82209SOL    HW264238  11.820   9.937   0.792  1.9099  1.4472 -3.7010
82210SOL     OW64239  10.755  10.851  12.713 -0.6022  0.1021  0.2759
82210SOL    HW164240  10.775  10.888  12.799 -2.1985  0.6474  0.4362
82210SOL    HW264241  10.816  10.894  12.653  0.5848 -0.3425  1.1178
82211SOL     OW64242  12.633   9.586   3.753 -0.3346  0.2305  0.3417
82211SOL    HW164243  12.673   9.520   3.696  2.0071  2.1082 -0.3356
82211SOL    HW264244  12.553   9.612   3.708 -0.6422 -1.1820  0.0009
82212SOL     OW64245   4.169   3.546   4.441 -0.0125  0.4690 -0.1141
82212SOL    HW164246   4.104   3.512   4.380 -0.9735 -1.9049  2.0479
82212SOL    HW264247   4.242   3.484   4.435  0.4287  0.9446  0.2117
82213SOL     OW64248  10.496   8.300   4.183  0.0201  0.4830 -0.0782
82213SOL    HW164249  10.513   8.371   4.245 -0.0137 -0.7642  1.4281
82213SOL    HW264250  10.415   8.260   4.214 -1.3284  1.2768 -2.3644
82214SOL     OW64251   5.435  11.358  14.014  0.2984 -0.6231 -0.1011
82214SOL    HW164252   5.417  11.284  13.957  1.0571 -1.3885  0.6049
82214SOL    HW264253   5.530  11.372  14.006  0.3138 -0.3449  0.4891
82215SOL     OW64254   4.150   9.218   5.726 -0.6637 -0.2002  0.1291
82215SOL    HW164255   4.121   9.245   5.640 -2.4152 -0.8451  0.4864
82215SOL    HW264256   4.213   9.148   5.710 -0.5835  0.0443 -0.6245
82216SOL     OW64257  13.023  11.172  12.697 -0.0402 -0.2356 -0.7265
82216SOL    HW164258  12.949  11.225  12.667 -0.7392  0.5433  2.1328
82216SOL    HW264259  12.986  11.084  12.709 -0.0416 -0.2734 -0.9995
82217SOL     OW64260  11.796   3.079  10.228  0.2066  0.3911 -0.5803
82217SOL    HW164261  11.823   3.115  10.313 -0.8045  1.6715 -0.7687
82217SOL    HW264262  11.850   3.127  10.165 -0.0738  0.4909 -0.7429
82218SOL     OW64263   3.444   3.428   1.481 -0.0965 -0.1866 -0.1803
82218SOL    HW164264   3.388   3.455   1.409 -0.1616  0.1208 -0.0180
82218SOL    HW264265   3.384   3.418   1.555  0.1139  0.5780  0.1074
82219SOL     OW64266   4.044   3.896  13.581  0.1856  0.3408 -0.4123
82219SOL    HW164267   4.004   3.982  13.563 -1.7928 -0.6326 -0.9377
82219SOL    HW264268   3.974   3.846  13.624  1.8622 -0.4841  1.5012
82220SOL     OW64269   9.386  12.683   2.567 -0.1542  0.2970 -0.2457
82220SOL    HW164270   9.322  12.615   2.590 -0.6696  0.5871 -0.7943
82220SOL    HW264271   9.335  12.750   2.522  0.6625  0.1966 -1.3659
82221SOL     OW64272   9.294  10.383   3.437  0.2806 -0.0429 -0.1774
82221SOL    HW164273   9.285  10.434   3.356  0.6778  1.0206  0.4327
82221SOL    HW264274   9.366  10.425   3.484 -0.2442 -0.3672  0.9419
82222SOL     OW64275   1.696   6.010  10.957  0.3284 -0.2443 -0.4007
82222SOL    HW164276   1.747   5.953  10.900  2.2995 -0.2635  1.2798
82222SOL    HW264277   1.689   5.963  11.040 -1.4729  0.2719 -0.2049
82223SOL     OW64278   4.127   7.869   5.853  0.4893  0.0447  0.3064
82223SOL    HW164279   4.178   7.895   5.929  2.1938 -0.4493 -0.6147
82223SOL    HW264280   4.104   7.951   5.810  1.6709  0.2536  0.0307
82224SOL     OW64281   1.067  13.723   3.636 -0.4121  0.0184 -0.6862
82224SOL    HW164282   1.009  13.647   3.639 -1.2500  0.5517 -2.0729
82224SOL    HW264283   1.022  13.791   3.686 -1.7143  0.8451 -2.8316
82225SOL     OW64284   1.268   5.791  12.368 -0.4389 -0.0060 -0.1859
82225SOL    HW164285   1.258   5.709  12.415 -1.2955  0.3010  0.1791
82225SOL    HW264286   1.179   5.824  12.357 -0.1561  0.5428 -0.9219
82226SOL     OW64287   6.238   7.366   3.846  0.0725 -0.1719  0.3580
82226SOL    HW164288   6.288   7.442   3.817 -0.2027 -0.3875 -0.7479
82226SOL    HW264289   6.287   7.331   3.920  0.2822  0.9860  0.7888
82227SOL     OW64290   1.847  11.106   2.277 -0.0226  0.0282 -0.3799
82227SOL    HW164291   1.843  11.033   2.339  0.4570 -0.6254 -1.0927
82227SOL    HW264292   1.934  11.143   2.288 -1.2238  2.4208  2.0580
82228SOL     OW64293   7.031   3.661  12.383  0.0910  0.2493  0.7763
82228SOL    HW164294   7.033   3.757  12.386  0.6194  0.2709  0.1104
82228SOL    HW264295   6.947   3.637  12.423 -0.5786  1.0446 -0.0952
82229SOL     OW64296   6.610   2.252   2.102 -0.4225  0.0010 -0.2225
82229SOL    HW164297   6.542   2.240   2.035 -0.0631  1.2805 -0.8433
82229SOL    HW264298   6.566   2.300   2.172 -0.7645 -1.2299  0.4530
82230SOL     OW64299   0.521   7.637  11.566 -0.0698 -0.1354 -0.3765
82230SOL    HW164300   0.520   7.543  11.584  0.5804 -0.1717 -0.4999
82230SOL    HW264301   0.535   7.643  11.472  0.8626  0.0901 -0.2283
82231SOL     OW64302  11.859  10.003   4.922  0.0546 -0.0975 -0.1400
82231SOL    HW164303  11.955  10.000   4.930 -0.0331 -0.8293  0.7705
82231SOL    HW264304  11.833  10.073   4.981  0.1979  2.0938 -2.4891
82232SOL     OW64305   9.487   5.374   2.877  0.2950  0.0386 -0.1215
82232SOL    HW164306   9.514   5.369   2.969 -0.1301  0.9573  0.0602
82232SOL    HW264307   9.417   5.439   2.875  0.6285  0.3946 -1.1712
82233SOL     OW64308   7.235   1.843  10.350 -0.3010  0.1530 -0.4741
82233SOL    HW164309   7.199   1.813  10.267 -0.2135 -1.8557  0.1599
82233SOL    HW264310   7.172   1.812  10.416  0.3035  0.5586  0.3139
82234SOL     OW64311  11.732  11.529   2.176 -0.2261 -0.1716  0.3474
82234SOL    HW164312  11.648  11.566   2.199 -0.8954 -1.2766 -0.2100
82234SOL    HW264313  11.712  11.465   2.107  1.2059  0.3369 -0.5985
82235SOL     OW64314   8.183   5.713   1.118  0.0398  0.1141  0.2266
82235SOL    HW164315   8.126   5.657   1.065  0.5111 -1.0320  0.8808
82235SOL    HW264316   8.137   5.723   1.201 -0.8601  2.1958 -0.4816
82236SOL     OW64317   1.952   0.644  13.883 -0.0280  0.5464  0.4545
82236SOL    HW164318   1.964   0.549  13.888 -0.3426  0.5703  2.9053
82236SOL    HW264319   1.881   0.655  13.820  1.2221 -0.6660 -1.2855
82237SOL     OW64320   4.391   1.709  12.356 -0.4957  0.3962  0.2834
82237SOL    HW164321   4.309   1.713  12.405 -0.2946  1.8048  0.5549
82237SOL    HW264322   4.452   1.762  12.407  0.5524 -0.5260  0.0098
82238SOL     OW64323   9.384  10.907   0.691  0.0258  0.0810  0.0137
82238SOL    HW164324   9.297  10.936   0.664 -0.3219  0.7739  1.7550
82238SOL    HW264325   9.431  10.891   0.609 -1.7835 -0.4652 -0.9590
82239SOL     OW64326   0.174   0.721  11.952 -0.1943 -0.3119  0.5705
82239SOL    HW164327   0.202   0.760  12.034  0.5888  0.5278 -0.0698
82239SOL    HW264328   0.223   0.639  11.946  2.8851  1.4523 -0.8596
82240SOL     OW64329   9.203   4.458  12.035 -0.3803  0.2228  0.1899
82240SOL    HW164330   9.200   4.450  12.130 -2.8392  0.4109  0.1841
82240SOL    HW264331   9.217   4.551  12.019  0.5524  0.1186  0.3423
82241SOL     OW64332   7.373  12.099   8.880  0.1442  0.2160  0.0497
82241SOL    HW164333   7.439  12.161   8.909  0.4204  1.0932 -2.2227
82241SOL    HW264334   7.390  12.088   8.786 -1.5865 -1.2103 -0.1523
82242SOL     OW64335   8.872  10.288  12.522 -0.1785 -0.1794 -0.4831
82242SOL    HW164336   8.930  10.356  12.557  0.6154 -0.5799 -0.9831
82242SOL    HW264337   8.812  10.334  12.465  0.9412  0.0137 -1.5460
82243SOL     OW64338   1.358   2.841   4.743  0.2896  0.7163  0.2532
82243SOL    HW164339   1.370   2.873   4.654  1.2932  0.3703  0.2487
82243SOL    HW264340   1.304   2.763   4.734  0.2813  0.7582 -0.0438
82244SOL     OW64341   9.300  10.008   3.315  0.4485  0.5099  0.4606
82244SOL    HW164342   9.282   9.929   3.265  0.3453  0.0188  1.2472
82244SOL    HW264343   9.304  10.078   3.250  0.7396 -0.1718 -0.2644
82245SOL     OW64344  11.996   8.577   5.782 -0.2590 -0.2098  0.0702
82245SOL    HW164345  12.059   8.604   5.715 -1.0373 -0.4658 -0.7874
82245SOL    HW264346  11.969   8.489   5.756  2.4957 -2.1449  2.9919
82246SOL     OW64347   9.042   1.300  11.587  0.2513  0.0119 -0.3336
82246SOL    HW164348   8.995   1.374  11.624  0.7397  0.7818 -1.2172
82246SOL    HW264349   9.124   1.297  11.637  0.2169  0.0375 -0.2746
82247SOL     OW64350   1.258   9.575  11.990 -0.5640  0.1367 -0.1111
82247SOL    HW164351   1.167   9.587  12.015 -0.4808  0.0867  0.2188
82247SOL    HW264352   1.308   9.599  12.068 -0.3339 -0.8047  0.0470
82248SOL     OW64353   5.979  13.834   8.981 -0.3741  0.1558  0.3667
82248SOL    HW164354   5.942  13.746   8.980 -1.5206  0.6122 -0.2984
82248SOL    HW264355   5.953  13.871   9.066  2.7916 -1.1544  2.0741
82249SOL     OW64356  12.168   7.628  12.385  0.6372  0.3852 -0.2982
82249SOL    HW164357  12.094   7.572  12.410  0.1074  1.5234  0.8289
82249SOL    HW264358  12.242   7.595  12.436  0.3128  0.7108  0.4007
82250SOL     OW64359  10.966   1.166   5.560 -0.4821  0.4975 -0.0471
82250SOL    HW164360  10.882   1.155   5.604 -0.6711 -0.8932 -0.7084
82250SOL    HW264361  11.030   1.135   5.624 -0.4212  1.7766  0.5464
82251SOL     OW64362   6.943   2.718  13.229 -0.1984  0.1919  0.6062
82251SOL    HW164363   6.882   2.696  13.158  0.9027 -1.6215  0.1567
82251SOL    HW264364   6.947   2.813  13.228 -0.6137  0.2446 -1.4487
82252SOL     OW64365   8.606   6.580   5.618 -0.2371 -0.2854  0.7064
82252SOL    HW164366   8.568   6.493   5.631  0.0051 -0.2701  1.5868
82252SOL    HW264367   8.658   6.595   5.696  0.0908  0.4698  0.3521
82253SOL     OW64368  13.603  11.745   1.371  0.2817 -0.0601  0.1699
82253SOL    HW164369  13.582  11.831   1.406 -0.3524 -0.9802  2.2381
82253SOL    HW264370  13.660  11.705   1.437  0.5514 -1.2337 -0.7366
82254SOL     OW64371  13.137   6.445   9.042 -0.4766 -0.6762 -0.6750
82254SOL    HW164372  13.159   6.390   8.967  1.6425 -0.2945 -0.4006
82254SOL    HW264373  13.119   6.384   9.113  0.0961 -1.0401 -0.8351
82255SOL     OW64374  10.712  10.314   2.182 -0.0884  0.3526 -0.5740
82255SOL    HW164375  10.710  10.409   2.171 -1.1713  0.2421 -1.5296
82255SOL    HW264376  10.781  10.284   2.124  0.1930  0.5432 -0.3398
82256SOL     OW64377   0.919   1.336   7.572 -0.4643  0.9069 -0.7344
82256SOL    HW164378   0.870   1.256   7.592  0.2652  0.4611 -0.7163
82256SOL    HW264379   0.866   1.406   7.610 -1.7127  0.5651 -1.7605
82257SOL     OW64380   2.206   4.028   0.035  0.1211  0.0501  0.2536
82257SOL    HW164381   2.149   4.093  -0.005  1.1502 -0.0437 -1.4517
82257SOL    HW264382   2.166   3.944   0.011 -1.0324 -0.0195  2.1899
82258SOL     OW64383   1.352   9.635   0.519  0.5272 -0.4241 -0.1160
82258SOL    HW164384   1.278   9.673   0.472 -0.9619  0.2268  2.5471
82258SOL    HW264385   1.423   9.698   0.508 -0.7278  1.2902  0.9573
82259SOL     OW64386  13.127   6.561   2.519 -0.3849  0.4064  0.1085
82259SOL    HW164387  13.100   6.500   2.588 -1.0579  0.7219  0.1296
82259SOL    HW264388  13.068   6.636   2.529  0.1788  0.8905 -0.1712
82260SOL     OW64389   9.569   2.248   0.679 -0.4388 -0.0410  0.4276
82260SOL    HW164390   9.592   2.155   0.682  1.7020  0.3473 -1.3965
82260SOL    HW264391   9.619   2.288   0.751 -1.9613 -0.3333  1.7185
82261SOL     OW64392  11.769   5.395   0.790  0.5189 -0.3584  0.0357
82261SOL    HW164393  11.762   5.463   0.723 -1.2878  0.4278  0.9363
82261SOL    HW264394  11.860   5.401   0.820  0.6470  1.0770 -0.5271
82262SOL     OW64395   9.714  10.635   6.018  0.1742  0.0368 -0.2750
82262SOL    HW164396   9.802  10.624   5.980  0.0386 -2.3280 -0.0280
82262SOL    HW264397   9.680  10.546   6.026 -1.2008  0.7003  2.1569
82263SOL     OW64398  12.593  10.278  11.256 -0.2491  0.1912  0.4525
82263SOL    HW164399  12.510  10.255  11.298 -1.2701  0.7660 -1.1721
82263SOL    HW264400  12.581  10.254  11.164  2.3492 -2.1652  0.5981
82264SOL     OW64401   3.720   4.998   8.267 -0.0722  0.1065  0.4418
82264SOL    HW164402   3.796   4.968   8.317 -0.6211 -0.9858  0.6773
82264SOL    HW264403   3.686   4.918   8.226  0.2081  0.9448 -1.4857
82265SOL     OW64404   3.347   0.684  11.413 -0.6068  0.1266 -0.6181
82265SOL    HW164405   3.302   0.697  11.497 -0.2881 -0.9946 -0.2535
82265SOL    HW264406   3.389   0.768  11.395  1.3576 -0.2655  1.5907
82266SOL     OW64407   1.181   7.022   3.882 -0.1312  0.0340 -0.6308
82266SOL    HW164408   1.138   6.942   3.912 -1.7699  0.0015 -2.7949
82266SOL    HW264409   1.174   7.082   3.956  0.0637 -1.4152  0.6153
82267SOL     OW64410  10.701   2.353   8.474  0.1201 -0.0636  0.3656
82267SOL    HW164411  10.711   2.258   8.461  1.5054  0.1657 -0.4788
82267SOL    HW264412  10.612   2.364   8.507 -0.4494 -1.5563 -0.6013
82268SOL     OW64413   8.919   9.043   0.690  0.3467  0.3871  0.0516
82268SOL    HW164414   8.945   9.065   0.779  0.4848  1.8693 -0.3152
82268SOL    HW264415   8.921   9.127   0.644 -1.6391 -0.0179 -0.8748
82269SOL     OW64416   5.857   0.499  11.436  0.4983 -0.5375  0.1502
82269SOL    HW164417   5.816   0.583  11.456 -2.4341 -1.3613 -1.6677
82269SOL    HW264418   5.829   0.480  11.346  2.7397 -2.5441 -0.2207
82270SOL     OW64419  12.858   5.668   6.583 -0.7556  0.2730 -0.4068
82270SOL    HW164420  12.940   5.629   6.551 -0.2285  0.8792  0.1995
82270SOL    HW264421  12.843   5.742   6.524 -1.0999 -0.0884 -0.7810
82271SOL     OW64422  14.003   2.493   1.600 -0.3981  0.0866 -0.1859
82271SOL    HW164423  13.913   2.490   1.569 -0.0169 -0.3072 -1.3037
82271SOL    HW264424  13.996   2.511   1.694 -1.6227  0.2836 -0.3046
82272SOL     OW64425   1.068   5.894  10.826  0.5378 -0.3582 -0.0259
82272SOL    HW164426   1.129   5.957  10.787  0.5681  0.1015  0.7607
82272SOL    HW264427   1.077   5.816  10.771  2.5792 -0.6659  0.6472
82273SOL     OW64428   2.436   0.311  10.382  0.3906  0.7223  0.6276
82273SOL    HW164429   2.395   0.268  10.307 -0.1173 -1.0603  1.8422
82273SOL    HW264430   2.363   0.352  10.429  0.4580  0.4227  1.0029
82274SOL     OW64431  13.181   6.603  11.150 -0.2220  0.1900 -0.1268
82274SOL    HW164432  13.252   6.649  11.195  0.3528  0.1483 -0.9718
82274SOL    HW264433  13.176   6.645  11.064 -1.7946  0.7648  0.2027
82275SOL     OW64434   1.161  13.168  13.499 -0.6701 -0.7326 -0.3474
82275SOL    HW164435   1.236  13.149  13.555 -0.2631  2.1171  0.2391
82275SOL    HW264436   1.194  13.156  13.410  0.5107  0.4255 -0.0956
82276SOL     OW64437  12.606   4.328  11.655 -0.9990 -0.2003 -0.1329
82276SOL    HW164438  12.683   4.276  11.677 -0.6797  0.6353  0.8138
82276SOL    HW264439  12.589   4.381  11.733 -1.4653  0.9261 -0.9594
82277SOL     OW64440   3.339  12.886   2.475 -0.0032  0.2415  0.3870
82277SOL    HW164441   3.354  12.819   2.408  2.2589  0.9230  0.1240
82277SOL    HW264442   3.345  12.840   2.558  3.2218  0.2526  0.2861
82278SOL     OW64443   7.575   0.189   5.075 -0.5224  0.0997 -0.3808
82278SOL    HW164444   7.588   0.095   5.088 -1.9373 -0.1391 -0.5292
82278SOL    HW264445   7.535   0.196   4.989  0.6301  0.9568 -0.8691
82279SOL     OW64446  13.827   0.589  10.294 -0.2396  0.3556  0.2051
82279SOL    HW164447  13.762   0.594  10.364 -1.1199 -3.4994 -0.1227
82279SOL    HW264448  13.903   0.637  10.327 -0.9128 -0.6264  3.4820
82280SOL     OW64449   7.015  11.985   1.537 -0.4926 -0.0854  0.2904
82280SOL    HW164450   6.955  11.995   1.463 -1.1082 -0.4687  0.7263
82280SOL    HW264451   7.020  12.072   1.576 -0.8010 -0.0630  0.2788
82281SOL     OW64452   8.482  10.394   6.780 -0.1130  0.0180  0.3110
82281SOL    HW164453   8.480  10.449   6.858 -0.9100  0.6522 -0.1319
82281SOL    HW264454   8.423  10.322   6.800 -2.3224  1.4607 -0.5568
82282SOL     OW64455   4.055   1.595   1.323  0.2403  0.2814  0.5403
82282SOL    HW164456   4.078   1.624   1.235 -0.0415  0.4175  0.5100
82282SOL    HW264457   4.126   1.537   1.348 -0.2582 -0.7091 -0.2461
82283SOL     OW64458  12.824   1.432  12.825 -0.7853  0.0873  0.3325
82283SOL    HW164459  12.825   1.449  12.731  0.1896 -0.5655  0.2147
82283SOL    HW264460  12.874   1.504  12.863  0.0648 -0.4221  0.2011
82284SOL     OW64461  11.359   9.242  12.074  0.0875  0.1662  0.4221
82284SOL    HW164462  11.319   9.156  12.084  0.6863 -0.2123 -0.3826
82284SOL    HW264463  11.352   9.281  12.162  1.7438 -1.5466  1.3921
82285SOL     OW64464   9.134   1.287  13.999 -0.4123 -0.3197 -0.1564
82285SOL    HW164465   9.136   1.326  14.087 -0.5365 -1.3063  0.2947
82285SOL    HW264466   9.046   1.249  13.992 -0.4050 -0.2418 -0.7207
82286SOL     OW64467   8.793   5.949   7.349 -0.6356 -0.0621  0.3403
82286SOL    HW164468   8.866   5.942   7.287 -0.4311 -1.4445  0.7034
82286SOL    HW264469   8.724   5.894   7.311 -1.1623  0.4925  0.4701
82287SOL     OW64470   4.250   1.642   3.546  0.0105 -0.2064  0.1323
82287SOL    HW164471   4.283   1.726   3.514  0.8899 -0.3695  0.5642
82287SOL    HW264472   4.155   1.648   3.538 -0.1782  1.8698  2.6284
82288SOL     OW64473  12.066   4.304  12.639  0.3671  0.1645  0.1578
82288SOL    HW164474  12.012   4.364  12.588 -0.1789  0.6278  1.2579
82288SOL    HW264475  12.153   4.311  12.599 -0.0117  0.6327 -0.6034
82289SOL     OW64476   3.941   3.286   1.010 -0.0467 -0.2313 -0.8145
82289SOL    HW164477   3.854   3.321   1.028  0.0537 -0.7118  0.6842
82289SOL    HW264478   3.965   3.238   1.089  1.2198 -0.8494 -1.5449
82290SOL     OW64479   1.117   5.167   5.944  0.3173 -0.1757  0.1021
82290SOL    HW164480   1.147   5.193   6.031  0.0598 -2.2705  0.8734
82290SOL    HW264481   1.188   5.192   5.886  0.0583  2.2345  0.7079
82291SOL     OW64482   6.448   1.343  11.043  0.0222  0.4174 -0.3953
82291SOL    HW164483   6.473   1.342  11.135 -1.5133 -1.1559  0.0602
82291SOL    HW264484   6.364   1.389  11.041 -0.2837 -0.1527 -0.9202
82292SOL     OW64485  11.902   9.497  10.973  0.3653 -0.0230 -0.2163
82292SOL    HW164486  11.964   9.542  10.914 -0.3770  1.6808  0.2380
82292SOL    HW264487  11.845   9.567  11.004 -0.9327 -1.3500  0.4499
82293SOL     OW64488  11.869   7.104  10.297 -0.5218  0.8123  0.0562
82293SOL    HW164489  11.962   7.120  10.279 -0.0914  0.3553  1.7038
82293SOL    HW264490  11.823   7.168  10.243  0.8334  2.3222  0.5777
82294SOL     OW64491  12.624  10.553  11.726 -0.6280  0.2155 -0.8966
82294SOL    HW164492  12.607  10.646  11.709  1.2876  0.5163 -1.4580
82294SOL    HW264493  12.668  10.552  11.811  0.1708 -0.0680 -1.3045
82295SOL     OW64494   0.689  10.734   9.647  0.3993 -0.3224 -0.2195
82295SOL    HW164495   0.677  10.813   9.594 -1.2200  0.6694  1.4962
82295SOL    HW264496   0.614  10.678   9.624 -0.1357 -0.0235  0.7490
82296SOL     OW64497   4.090   3.144  11.059 -0.3911 -0.6866  0.3163
82296SOL    HW164498   4.140   3.122  11.138 -0.3018 -0.3295  0.3637
82296SOL    HW264499   4.126   3.228  11.031 -1.8559  0.2635  1.1206
82297SOL     OW64500   7.202   3.042   2.548  0.1378  0.0479  0.5401
82297SOL    HW164501   7.155   2.976   2.598 -0.0751  0.0362  0.3222
82297SOL    HW264502   7.188   3.124   2.596 -0.0847  0.0406  0.4848
82298SOL     OW64503  10.723  13.614   9.027 -0.1887 -0.0149  0.1345
82298SOL    HW164504  10.654  13.677   9.007  0.9962  1.1883 -0.3272
82298SOL    HW264505  10.803  13.667   9.033  0.6178 -1.2835  1.2315
82299SOL     OW64506  12.157   1.120   6.920  0.5342  0.3361  0.0709
82299SOL    HW164507  12.120   1.058   6.857 -0.0162 -0.4972  1.1796
82299SOL    HW264508  12.127   1.088   7.005  0.3496  2.0530  0.6927
82300SOL     OW64509   8.725   3.043   2.697 -0.2852  0.2482  0.2738
82300SOL    HW164510   8.717   2.961   2.746 -0.4338  1.6760  2.8135
82300SOL    HW264511   8.639   3.054   2.656 -0.0010 -1.2374 -0.7946
82301SOL     OW64512   3.000   9.485   9.471  0.3330  0.2046 -0.2000
82301SOL    HW164513   2.971   9.394   9.462 -1.7940  0.8067 -0.0041
82301SOL    HW264514   3.027   9.492   9.563  1.0891 -0.3554 -0.3661
82302SOL     OW64515   1.421   4.774   2.336 -0.4164 -0.0468  0.1528
82302SOL    HW164516   1.366   4.811   2.405 -1.6246 -0.9400 -0.3060
82302SOL    HW264517   1.393   4.683   2.329  0.7027 -0.3592 -0.5222
82303SOL     OW64518  10.856   9.128   4.836  0.4569 -0.1595 -0.2009
82303SOL    HW164519  10.880   9.037   4.821  1.1010  0.1500 -1.1547
82303SOL    HW264520  10.896   9.176   4.763 -0.7054  0.7586 -0.2681
82304SOL     OW64521   5.980   5.981   1.695  0.2645  0.0480 -0.3286
82304SOL    HW164522   6.024   6.060   1.725  0.5681  0.2321 -1.2131
82304SOL    HW264523   5.890   6.010   1.676  0.7149  0.5073 -1.8970
82305SOL     OW64524  10.348   3.417   0.198 -0.2052  0.8271  0.4690
82305SOL    HW164525  10.325   3.505   0.167  0.8334 -0.1057 -3.4206
82305SOL    HW264526  10.431   3.397   0.155 -1.4464 -2.8489 -0.5213
82306SOL     OW64527   2.497   6.265   0.838  0.1998 -0.1610  0.2405
82306SOL    HW164528   2.573   6.301   0.791 -1.4572  0.7805 -1.9363
82306SOL    HW264529   2.518   6.275   0.930  2.8796 -0.3438 -0.2813
82307SOL     OW64530   0.300   2.152   5.278  0.4495  0.2432 -0.1962
82307SOL    HW164531   0.310   2.234   5.325  1.6518 -0.4592  0.8147
82307SOL    HW264532   0.382   2.141   5.231  2.0251 -2.2297  2.7652
82308SOL     OW64533   2.726   5.179   8.670 -0.1902  0.3244  0.4744
82308SOL    HW164534   2.816   5.192   8.698 -0.5475  2.5386  0.7786
82308SOL    HW264535   2.732   5.113   8.601  1.2420 -1.9006  2.5662
82309SOL     OW64536   1.194   9.622   5.226 -0.7199  0.4469 -0.3043
82309SOL    HW164537   1.273   9.663   5.260 -0.9576  0.2267  0.5616
82309SOL    HW264538   1.215   9.598   5.136 -0.9126  3.3270 -1.1969
82310SOL     OW64539   8.373  11.170   6.441 -0.1386  0.7081 -0.4034
82310SOL    HW164540   8.405  11.125   6.519  0.5217  0.9255 -0.5421
82310SOL    HW264541   8.398  11.262   6.454 -1.1426  0.9778 -0.2892
82311SOL     OW64542  10.600   7.741  14.053  0.0214  0.0954  0.4595
82311SOL    HW164543  10.567   7.830  14.066  1.0739  0.3740  1.4253
82311SOL    HW264544  10.522   7.688  14.041 -0.6426  1.0907  0.2149
82312SOL     OW64545  10.522   4.723   5.228  0.5283  0.5435  0.1899
82312SOL    HW164546  10.468   4.661   5.180  2.0462  1.5378 -3.1028
82312SOL    HW264547  10.461   4.766   5.288 -1.2547 -1.6408  0.0875
82313SOL     OW64548   0.979   8.182  11.155  0.3678 -0.0095  0.0618
82313SOL    HW164549   1.002   8.090  11.169 -0.7583  0.0300  2.8717
82313SOL    HW264550   1.063   8.228  11.160  0.6275 -0.5839  2.6216
82314SOL     OW64551  13.088  12.847  11.946 -0.1083 -0.2139 -0.2691
82314SOL    HW164552  13.067  12.927  11.994 -0.9372 -1.0745  0.8328
82314SOL    HW264553  13.004  12.813  11.917  0.1944 -0.9702 -0.2783
82315SOL     OW64554  11.163   6.960   6.884  0.2506  0.0313 -0.0936
82315SOL    HW164555  11.163   7.004   6.969  0.7585 -0.5428  0.2073
82315SOL    HW264556  11.229   7.006   6.833  0.7882 -0.3903  0.2232
82316SOL     OW64557   7.447  10.696   3.297 -0.4198 -0.8078 -0.1913
82316SOL    HW164558   7.524  10.689   3.355  0.8427 -0.0985 -1.6997
82316SOL    HW264559   7.379  10.645   3.341  1.1153 -2.0408  0.8662
82317SOL     OW64560  10.542  10.781   6.693  0.4358  0.4445 -0.0790
82317SOL    HW164561  10.549  10.861   6.640  0.9385  0.7962  0.5143
82317SOL    HW264562  10.603  10.720   6.651 -0.2019  0.2445 -0.7406
82318SOL     OW64563  12.322   0.067   9.627  0.1812 -0.0896  0.5924
82318SOL    HW164564  12.279   0.149   9.650 -0.5137  0.2481 -1.6637
82318SOL    HW264565  12.389   0.055   9.694 -0.0211  2.0600  1.2379
82319SOL     OW64566  13.368   4.576   1.239  0.0409  0.3102 -0.2542
82319SOL    HW164567  13.392   4.633   1.313 -1.4551 -0.2663  0.7293
82319SOL    HW264568  13.365   4.635   1.164  0.6443  1.1102  0.3260
82320SOL     OW64569   0.338   9.808  12.011  0.0061  0.5538  0.4580
82320SOL    HW164570   0.303   9.896  12.027  1.1675  1.0696  0.2911
82320SOL    HW264571   0.326   9.794  11.917  1.0702  1.1170  0.2262
82321SOL     OW64572  11.093   4.440   6.886  0.1873  0.0912 -0.1025
82321SOL    HW164573  11.183   4.440   6.917 -0.5358 -3.4052  2.6999
82321SOL    HW264574  11.052   4.514   6.930  0.8457 -0.6700  1.9198
82322SOL     OW64575   7.585  10.175   2.727 -0.5440 -0.5377  0.4798
82322SOL    HW164576   7.611  10.118   2.655  1.2549  1.6694 -0.7607
82322SOL    HW264577   7.491  10.162   2.736 -0.7992 -0.9973 -2.2219
82323SOL     OW64578   4.259   8.711   7.916  0.2166  0.3442 -0.7821
82323SOL    HW164579   4.305   8.660   7.983  1.4659  1.3998 -0.7802
82323SOL    HW264580   4.173   8.728   7.954  0.0973 -0.9836 -0.4118
82324SOL     OW64581   7.970   1.314   6.883 -0.0881  0.2830 -0.2150
82324SOL    HW164582   8.004   1.320   6.973  1.9506  0.6157 -0.9449
82324SOL    HW264583   7.915   1.392   6.873 -1.2640 -0.3367  1.0694
82325SOL     OW64584  11.480  11.846  13.279 -0.2858 -0.2081  0.0356
82325SOL    HW164585  11.434  11.808  13.354 -1.8806  0.2390 -0.6753
82325SOL    HW264586  11.442  11.933  13.269  0.9082  0.2748 -0.4463
82326SOL     OW64587  11.790   3.545  12.085  0.0784  0.6821  0.1553
82326SOL    HW164588  11.719   3.602  12.114 -1.0963  0.3678 -1.9245
82326SOL    HW264589  11.747   3.462  12.063  1.4533 -0.3427  1.1228
82327SOL     OW64590   4.632  10.140   0.120 -0.6161 -0.0265  0.0830
82327SOL    HW164591   4.690  10.155   0.046 -0.4173 -1.6937 -0.1407
82327SOL    HW264592   4.567  10.210   0.115  0.3181  0.8102 -0.7182
82328SOL     OW64593   2.162   7.715   7.309 -0.1430 -0.0356 -0.0299
82328SOL    HW164594   2.085   7.746   7.261 -0.3015 -0.7890 -0.2701
82328SOL    HW264595   2.228   7.783   7.295 -0.4735  0.1737 -0.5873
82329SOL     OW64596   8.322   6.022  12.633 -0.5221 -0.1837  0.4647
82329SOL    HW164597   8.314   6.017  12.538 -1.6444  3.0579  0.2674
82329SOL    HW264598   8.314   5.931  12.663  1.2357 -1.4591 -2.5618
82330SOL     OW64599   5.902  13.672   9.572  0.1554 -0.0563 -0.1657
82330SOL    HW164600   5.836  13.607   9.595  0.5360 -0.4996 -0.3065
82330SOL    HW264601   5.874  13.751   9.617 -0.9521  0.0093 -0.9199
82331SOL     OW64602   4.154  12.549   2.828  0.6598  0.1246 -0.0111
82331SOL    HW164603   4.189  12.489   2.762  1.4106  0.0462  0.4420
82331SOL    HW264604   4.180  12.636   2.798 -2.6292  0.5583 -2.0443
82332SOL     OW64605   5.828   5.946   5.363  0.0617  0.3675 -0.2062
82332SOL    HW164606   5.821   6.018   5.300  1.5119 -0.9569 -2.0053
82332SOL    HW264607   5.905   5.968   5.416  0.1792  0.4129 -0.3944
82333SOL     OW64608   8.591   1.941  11.622  0.2263  1.1103 -0.0147
82333SOL    HW164609   8.569   2.025  11.582  1.3589  1.7571  0.6701
82333SOL    HW264610   8.687   1.935  11.615  0.2549  0.3310  0.8237
82334SOL     OW64611  13.417   2.367  10.961 -0.5177 -0.1000  0.3991
82334SOL    HW164612  13.404   2.310  10.886 -1.0180 -1.6011  1.5837
82334SOL    HW264613  13.347   2.433  10.952 -0.5493 -0.2317 -0.4471
82335SOL     OW64614   1.321   1.847   2.050  0.5528  0.6021 -0.2454
82335SOL    HW164615   1.372   1.766   2.044 -1.4691 -0.7721  0.0195
82335SOL    HW264616   1.270   1.849   1.968 -1.1747  0.2972  0.7765
82336SOL     OW64617   5.467  12.402   1.299 -0.8058  0.4678  0.6723
82336SOL    HW164618   5.373  12.398   1.314 -1.0486 -1.1229 -0.9249
82336SOL    HW264619   5.482  12.488   1.260 -1.3068  1.3874  2.4117
82337SOL     OW64620   1.464   3.616   3.529 -1.2354  0.2394  0.2606
82337SOL    HW164621   1.452   3.549   3.462 -1.6140  0.4751  0.0919
82337SOL    HW264622   1.508   3.570   3.601 -1.1834 -0.1062  0.0104
82338SOL     OW64623   8.415   4.230   3.384  0.2887 -0.3040  0.7780
82338SOL    HW164624   8.365   4.310   3.371  2.4985  1.0330 -0.1424
82338SOL    HW264625   8.370   4.165   3.330 -0.6083  0.7661  0.1952
82339SOL     OW64626   7.135   1.314   7.360  0.4533 -0.2785  0.2003
82339SOL    HW164627   7.103   1.384   7.302  0.8394 -1.2050 -1.1754
82339SOL    HW264628   7.229   1.330   7.368  0.3613 -0.0126  0.7842
82340SOL     OW64629  12.367   6.936   5.505  0.3961 -0.5676 -0.7763
82340SOL    HW164630  12.277   6.926   5.474  0.7749 -0.3440 -1.9975
82340SOL    HW264631  12.364   6.907   5.596 -1.0707  0.1766 -0.5593
82341SOL     OW64632   2.930  13.406   8.209 -0.4445 -0.1122  0.2226
82341SOL    HW164633   2.878  13.364   8.277 -0.0211  0.4664  0.9086
82341SOL    HW264634   2.867  13.425   8.139 -1.2161  0.8489  1.1681
82342SOL     OW64635   7.240   8.148   7.573  0.3741  0.1454  0.8504
82342SOL    HW164636   7.146   8.158   7.553  0.2391  1.5102  2.0656
82342SOL    HW264637   7.280   8.228   7.540  1.1714 -0.4904  0.2112
82343SOL     OW64638   9.088  12.055   0.526  0.3965  0.1299  0.1966
82343SOL    HW164639   9.171  12.038   0.481 -0.4495  0.0345 -1.4050
82343SOL    HW264640   9.105  12.133   0.579  0.8447  1.6801 -2.0765
82344SOL     OW64641  11.055   1.028   7.698  0.0090 -0.3522 -0.2868
82344SOL    HW164642  11.090   1.087   7.765  0.6447  0.8670 -1.6525
82344SOL    HW264643  10.965   1.058   7.685 -0.4953 -1.2933  0.7444
82345SOL     OW64644   9.764  12.033   9.704  0.1677  0.3422 -0.0275
82345SOL    HW164645   9.746  12.094   9.632 -2.2441 -0.0333  0.1518
82345SOL    HW264646   9.814  12.084   9.767  1.2232  1.0596 -1.3981
82346SOL     OW64647  12.196   5.393   3.447  0.8633  0.1219  0.0799
82346SOL    HW164648  12.182   5.299   3.434  0.5089  0.0961  0.6146
82346SOL    HW264649  12.154   5.433   3.371 -1.5786 -0.0018  1.2511
82347SOL     OW64650   5.655  13.678   0.288 -0.0026 -0.4843 -0.6306
82347SOL    HW164651   5.594  13.638   0.350 -0.5685  1.4959  0.1573
82347SOL    HW264652   5.617  13.763   0.268  0.7906 -0.5814 -2.8111
82348SOL     OW64653   7.771   5.257  13.192 -0.3389  0.4564  0.4768
82348SOL    HW164654   7.711   5.189  13.161 -2.2744  1.2753  2.1642
82348SOL    HW264655   7.740   5.337  13.150  0.7957  0.6214 -0.0906
82349SOL     OW64656   3.088   0.941   9.082 -0.3987  0.1488  0.2356
82349SOL    HW164657   3.154   0.958   9.015 -0.0419 -1.2723  0.2003
82349SOL    HW264658   3.130   0.878   9.141 -2.1487 -1.8236 -0.5037
82350SOL     OW64659   1.792   7.226  12.783  0.9434  0.4968 -0.1561
82350SOL    HW164660   1.788   7.282  12.705  1.8667 -0.1810 -0.7053
82350SOL    HW264661   1.700   7.212  12.807  0.5029 -0.9720 -2.3581
82351SOL     OW64662   6.599  12.926  10.077  0.1320  0.3966  0.6455
82351SOL    HW164663   6.536  12.956  10.011 -0.4027  0.5073  1.1965
82351SOL    HW264664   6.562  12.845  10.111 -0.0790  0.8217  1.4690
82352SOL     OW64665   1.773   3.275   2.733  0.2715  0.1379 -0.8260
82352SOL    HW164666   1.696   3.268   2.677 -0.3569  2.5444 -0.3367
82352SOL    HW264667   1.826   3.345   2.695 -0.4078  2.2191  1.7412
82353SOL     OW64668   7.672  11.216   5.242 -0.2254  0.1519 -0.0178
82353SOL    HW164669   7.689  11.270   5.320  0.5379  0.6647 -0.5245
82353SOL    HW264670   7.702  11.129   5.266 -1.7527 -0.1517  0.9214
82354SOL     OW64671   1.406   9.776  12.439 -0.3167  0.0177 -0.1287
82354SOL    HW164672   1.414   9.756  12.346 -0.2742  1.3194 -0.4242
82354SOL    HW264673   1.386   9.870  12.442 -1.4696 -0.2352  1.1304
82355SOL     OW64674   9.800  12.302  13.735  0.1093 -0.0069 -0.5544
82355SOL    HW164675   9.755  12.338  13.811  0.8666 -0.1760 -0.0127
82355SOL    HW264676   9.794  12.207  13.745  0.6517 -0.0316 -0.4296
82356SOL     OW64677   5.728   2.319  10.201  0.1103  0.1756 -0.1156
82356SOL    HW164678   5.712   2.311  10.295  0.9669  0.4891  0.0612
82356SOL    HW264679   5.685   2.243  10.162  1.5802 -1.1529  0.7494
82357SOL     OW64680   9.717   4.396   3.870 -0.4926 -0.0959  1.0954
82357SOL    HW164681   9.631   4.355   3.871 -1.0765  0.9382 -0.8056
82357SOL    HW264682   9.699   4.490   3.862  0.7353  0.0307 -1.1355
82358SOL     OW64683  14.052  13.405  11.792  0.5557 -0.5975  0.2290
82358SOL    HW164684  14.074  13.409  11.886 -0.3301 -0.4045  0.4378
82358SOL    HW264685  14.098  13.479  11.754 -2.2196  1.8559  1.2253
82359SOL     OW64686   2.187   1.236   6.604 -0.4625 -0.6526  0.4912
82359SOL    HW164687   2.184   1.147   6.638 -2.5356 -0.2846  1.3874
82359SOL    HW264688   2.191   1.292   6.682  0.1158  0.0695 -0.0365
82360SOL     OW64689  12.903   3.996   9.870  0.3724 -0.7631 -0.1021
82360SOL    HW164690  12.856   3.914   9.854  0.4123 -0.3736 -2.6193
82360SOL    HW264691  12.973   3.997   9.805  1.4213  0.5211  0.9782
82361SOL     OW64692   1.062  13.868   6.443 -0.4919  0.0058 -0.3376
82361SOL    HW164693   1.017  13.926   6.504 -0.4599 -0.2173 -0.0991
82361SOL    HW264694   1.098  13.798   6.498  2.5272  1.5984 -0.1085
82362SOL     OW64695   6.404  12.920  13.208 -0.2529  0.6470 -0.5136
82362SOL    HW164696   6.393  12.897  13.116  0.7037  0.9763 -0.7220
82362SOL    HW264697   6.428  13.013  13.207  0.0321  0.5866  0.0448
82363SOL     OW64698   6.364  13.815  12.818 -0.0564  0.0652 -0.3940
82363SOL    HW164699   6.416  13.760  12.759  1.3118  0.1886  0.6553
82363SOL    HW264700   6.353  13.761  12.896 -0.8661  0.3439 -0.3123
82364SOL     OW64701   7.404   0.865   9.442 -0.3700  0.0136  0.0943
82364SOL    HW164702   7.425   0.922   9.516  0.6601 -0.6183  0.3033
82364SOL    HW264703   7.427   0.777   9.471  1.3063 -0.1041 -1.3988
82365SOL     OW64704   7.882   2.300  12.464  0.3645 -0.6778 -0.1382
82365SOL    HW164705   7.970   2.265  12.481  0.0942 -0.4588  1.8646
82365SOL    HW264706   7.823   2.227  12.483  0.0503 -0.5782 -0.7021
82366SOL     OW64707   4.909   5.397   0.519 -0.1858 -0.2063  0.2145
82366SOL    HW164708   4.823   5.437   0.532 -0.1065  0.5251 -1.2859
82366SOL    HW264709   4.969   5.471   0.512  0.6220 -0.7093  1.4181
82367SOL     OW64710   5.651   2.791   9.923 -0.2524  0.2841  0.5309
82367SOL    HW164711   5.641   2.696   9.919 -1.0252  0.3031  1.6082
82367SOL    HW264712   5.605   2.823   9.844  0.7542 -0.2633 -0.2983
82368SOL     OW64713   6.573   9.048  12.137 -0.6747  0.8601 -0.1086
82368SOL    HW164714   6.592   9.132  12.096 -0.4442  0.5424 -0.6627
82368SOL    HW264715   6.481   9.031  12.114  0.2516 -0.7548 -3.1817
82369SOL     OW64716   3.844   6.415  13.079  0.4357 -0.1401  0.0911
82369SOL    HW164717   3.926   6.438  13.036 -0.2888  0.9972 -0.7350
82369SOL    HW264718   3.794   6.497  13.080 -1.5890 -1.2617 -1.4701
82370SOL     OW64719   6.086   4.086   4.688 -0.2138  0.5425 -0.2410
82370SOL    HW164720   6.145   4.136   4.631 -0.0475 -1.0375 -1.5084
82370SOL    HW264721   6.138   4.013   4.719 -1.1488 -0.2141 -0.4091
82371SOL     OW64722   3.345   9.795  12.031 -0.2472  0.0341  0.2533
82371SOL    HW164723   3.409   9.835  11.972  0.4812  1.0661  1.6829
82371SOL    HW264724   3.260   9.825  11.998  0.0696 -0.1879 -0.8154
82372SOL     OW64725  10.380   6.976   2.325  0.1106  0.5404 -0.0967
82372SOL    HW164726  10.443   6.925   2.275 -0.0194 -0.5878  0.8555
82372SOL    HW264727  10.418   7.063   2.331  1.5602 -0.1006  0.3996
82373SOL     OW64728   6.980   2.317   6.891 -0.2777  0.5779  0.3083
82373SOL    HW164729   7.054   2.353   6.840 -1.0199 -0.2709 -1.4557
82373SOL    HW264730   6.981   2.367   6.972  1.5793  1.3353 -0.1223
82374SOL     OW64731   3.285   8.327  13.229 -0.4570  0.0237 -0.2596
82374SOL    HW164732   3.191   8.347  13.237 -0.1331  0.9775  1.5289
82374SOL    HW264733   3.292   8.234  13.252 -1.0693 -0.3426 -1.4600
82375SOL     OW64734   5.223  10.394   3.340 -0.1021 -0.4190  0.0739
82375SOL    HW164735   5.317  10.386   3.325 -0.0125 -0.4390  0.6223
82375SOL    HW264736   5.189  10.306   3.331 -0.5120 -0.0451 -2.9012
82376SOL     OW64737   5.193  12.866  13.933 -0.0316 -0.3436  0.1811
82376SOL    HW164738   5.250  12.870  14.010 -0.3928  2.3038  0.4105
82376SOL    HW264739   5.113  12.825  13.964  0.5285 -1.0752  0.6992
82377SOL     OW64740  13.206   7.536   5.353 -0.1280 -0.1580 -0.2416
82377SOL    HW164741  13.190   7.452   5.309  0.1144 -0.3643  0.0629
82377SOL    HW264742  13.188   7.518   5.445  1.6419 -0.3540  0.0983
82378SOL     OW64743   9.661   4.252   5.776  0.0783 -0.7983  0.3099
82378SOL    HW164744   9.566   4.242   5.770  0.1233 -1.1021  0.0991
82378SOL    HW264745   9.680   4.245   5.869  0.3071 -4.5737  0.1078
82379SOL     OW64746  11.816  12.109   0.889 -0.0184 -0.3266  0.8281
82379SOL    HW164747  11.740  12.064   0.928 -0.6137  0.0767  0.1541
82379SOL    HW264748  11.789  12.200   0.883  0.3243 -0.2683  0.1056
82380SOL     OW64749   6.996   3.911   4.071 -0.1810  0.1768  0.0182
82380SOL    HW164750   7.076   3.859   4.076 -0.5978 -0.7090 -1.6913
82380SOL    HW264751   6.955   3.884   3.989 -2.1522  0.7365  0.7624
82381SOL     OW64752   6.564  11.424   4.765  0.3102  0.1348 -0.5206
82381SOL    HW164753   6.653  11.422   4.800 -0.5854 -3.0730  1.9888
82381SOL    HW264754   6.563  11.354   4.700  0.0317  1.4148 -1.9545
82382SOL     OW64755   2.883   2.620   4.177 -0.0797 -0.1572 -0.0559
82382SOL    HW164756   2.816   2.673   4.221 -0.8024 -0.8358 -0.3273
82382SOL    HW264757   2.860   2.623   4.084  0.3646 -0.2593 -0.1740
82383SOL     OW64758   1.970   6.787   5.892  0.2114 -0.5209 -0.5364
82383SOL    HW164759   1.958   6.872   5.849  1.2562 -0.1553 -0.1472
82383SOL    HW264760   1.938   6.800   5.981 -0.5309 -0.8298 -0.7516
82384SOL     OW64761  10.801  13.844   0.603 -0.1875  0.1354 -0.4989
82384SOL    HW164762  10.823  13.783   0.532 -1.5016 -1.7446  0.6373
82384SOL    HW264763  10.720  13.886   0.573 -0.3000 -0.0592 -0.4696
82385SOL     OW64764   3.299   8.447  10.706  0.5127  0.2760  0.0812
82385SOL    HW164765   3.249   8.506  10.762 -2.3189 -0.1735 -1.7892
82385SOL    HW264766   3.321   8.373  10.763  2.6473  2.2361  1.9940
82386SOL     OW64767  12.414  13.008  13.628 -0.1876  0.1002  0.1900
82386SOL    HW164768  12.398  13.044  13.715 -0.2675  0.5673 -0.0121
82386SOL    HW264769  12.500  12.966  13.634 -0.5249 -0.5412  0.6978
82387SOL     OW64770  11.902   4.565  11.248 -0.4643 -0.4404 -0.1473
82387SOL    HW164771  11.970   4.631  11.249 -0.6330 -0.2587  0.8525
82387SOL    HW264772  11.822   4.612  11.222 -0.3776 -0.4776 -0.4844
82388SOL     OW64773   2.293   0.895   7.080  0.3631  0.0048  0.4741
82388SOL    HW164774   2.237   0.949   7.136 -1.3706  0.1543 -1.3061
82388SOL    HW264775   2.346   0.957   7.030 -0.0001 -0.0178  0.0565
82389SOL     OW64776   6.212   9.049   5.570  0.4095  0.0892 -0.0764
82389SOL    HW164777   6.206   9.140   5.540  0.4600  0.0824 -0.1074
82389SOL    HW264778   6.278   9.010   5.513 -1.5832 -0.7191 -1.9894
82390SOL     OW64779   4.501  10.120   2.416  1.0854  0.0481  0.1934
82390SOL    HW164780   4.570  10.054   2.410 -0.5492 -1.7133 -0.4354
82390SOL    HW264781   4.474  10.117   2.508  1.4842  0.3826  0.3268
82391SOL     OW64782   0.941  12.217   7.709  0.0522  0.5175 -0.4847
82391SOL    HW164783   0.892  12.214   7.792  1.7211 -1.8696  0.5183
82391SOL    HW264784   0.893  12.160   7.650  0.1156  0.3579 -0.3838
82392SOL     OW64785   4.689  11.309   8.521 -0.0654  0.0494 -0.2374
82392SOL    HW164786   4.697  11.384   8.579 -1.9406 -0.6262  0.9997
82392SOL    HW264787   4.718  11.234   8.573  0.7149 -0.2595 -1.0763
82393SOL     OW64788  13.166   0.982   8.423  0.1892  0.0029  0.1744
82393SOL    HW164789  13.160   1.034   8.343  4.0147  1.1235  0.4433
82393SOL    HW264790  13.208   0.901   8.395 -2.4464 -1.5798  0.4215
82394SOL     OW64791   9.838   0.731   9.062  0.0467 -0.5137  0.0723
82394SOL    HW164792   9.791   0.748   8.981  0.8695 -1.8728 -0.7362
82394SOL    HW264793   9.928   0.712   9.035  0.4025 -0.7492  1.3119
82395SOL     OW64794   7.906   3.365   3.729 -0.3750  0.3836 -0.7247
82395SOL    HW164795   7.823   3.333   3.763 -0.1501  0.1851 -0.3501
82395SOL    HW264796   7.909   3.332   3.639  0.0930 -1.1634 -0.1870
82396SOL     OW64797   0.559   7.519   1.402 -0.7963  0.3820  0.1796
82396SOL    HW164798   0.599   7.504   1.316  0.1843  1.5478  0.4000
82396SOL    HW264799   0.626   7.492   1.465 -1.0209  0.7425  0.5781
82397SOL     OW64800   3.851   5.581   3.162  0.3814 -0.0777 -0.6888
82397SOL    HW164801   3.779   5.643   3.153  1.1815  0.7092 -2.0110
82397SOL    HW264802   3.929   5.635   3.174  0.6425 -0.9317  2.4464
82398SOL     OW64803   5.275   8.778   1.052  0.1406  0.2767  0.1110
82398SOL    HW164804   5.289   8.725   0.973  3.3004  1.1110 -0.0450
82398SOL    HW264805   5.205   8.838   1.028  0.3156 -0.1773 -1.7298
82399SOL     OW64806   9.528   9.473   3.755  0.0134  0.2202 -0.4978
82399SOL    HW164807   9.581   9.420   3.696 -0.6601  0.8435 -1.6942
82399SOL    HW264808   9.592   9.518   3.811  0.6881  0.0969 -1.1573
82400SOL     OW64809   8.104   6.305   2.433 -0.0870  0.2112 -0.2302
82400SOL    HW164810   8.109   6.226   2.487 -2.3225 -0.1459 -0.4598
82400SOL    HW264811   8.087   6.376   2.496  0.5381  0.3158 -0.1689
82401SOL     OW64812   5.188  10.432   0.920  0.1850 -0.3150  0.1589
82401SOL    HW164813   5.111  10.379   0.901 -0.0038  0.7500 -2.6132
82401SOL    HW264814   5.232  10.388   0.992 -2.2585 -1.7249  0.8710
82402SOL     OW64815   0.127   9.079   8.070 -0.0472  0.0332  0.2057
82402SOL    HW164816   0.041   9.062   8.110 -1.4271  1.4052 -1.9833
82402SOL    HW264817   0.162   8.992   8.051 -0.7130 -0.5628  1.5260
82403SOL     OW64818   1.611  13.669   7.075 -0.0819 -0.2716 -0.0427
82403SOL    HW164819   1.606  13.697   7.166 -0.3686  0.1294 -0.1813
82403SOL    HW264820   1.535  13.709   7.033 -0.2142 -0.8415 -0.3556
82404SOL     OW64821   8.058   8.679   0.530 -0.2195 -0.1860  0.3489
82404SOL    HW164822   8.069   8.708   0.620  1.2508 -1.6150  0.6809
82404SOL    HW264823   8.134   8.715   0.484 -1.1316  0.8141 -0.4209
82405SOL     OW64824  10.227   3.764  10.564 -0.2607 -0.1099 -0.0986
82405SOL    HW164825  10.186   3.697  10.618 -1.5397  1.5281  1.0791
82405SOL    HW264826  10.295   3.802  10.621 -0.9095  0.9242  0.0074
82406SOL     OW64827   5.170   6.503   5.406  0.0472 -1.0001 -0.3286
82406SOL    HW164828   5.168   6.407   5.402 -1.8913 -1.0793  1.1174
82406SOL    HW264829   5.115   6.525   5.482  1.1363  1.2399 -0.1163
82407SOL     OW64830   2.460   1.493   8.914 -0.4377  0.3975 -0.3279
82407SOL    HW164831   2.523   1.421   8.918  0.4287  1.1814  0.9679
82407SOL    HW264832   2.511   1.568   8.885 -0.7843  1.0323  0.6707
82408SOL     OW64833  10.695   0.108  10.208  0.3929  0.3184 -0.0988
82408SOL    HW164834  10.733   0.021  10.220 -0.7447 -0.0299  1.3919
82408SOL    HW264835  10.746   0.148  10.138  0.8524 -1.5991 -0.9070
82409SOL     OW64836  11.682   0.909  11.123 -0.8796 -0.0312 -0.1892
82409SOL    HW164837  11.693   0.861  11.205  1.5028  1.0516  0.2203
82409SOL    HW264838  11.593   0.944  11.127 -0.7967  0.0637  1.9900
82410SOL     OW64839   9.880   1.288  12.023 -0.4996 -0.4496 -0.5627
82410SOL    HW164840   9.970   1.319  12.009 -0.2109 -1.0991 -0.1844
82410SOL    HW264841   9.859   1.313  12.112 -0.0278 -1.8668 -0.0221
82411SOL     OW64842   3.255   3.583   5.138  0.0673  0.4644 -0.3655
82411SOL    HW164843   3.203   3.503   5.143  1.1365 -0.2948 -0.7833
82411SOL    HW264844   3.306   3.583   5.219  0.0367  0.7443 -0.3468
82412SOL     OW64845   5.998  13.293   0.902 -0.2825 -0.3964 -0.3849
82412SOL    HW164846   5.937  13.366   0.886  1.3996  1.4694  1.0970
82412SOL    HW264847   5.943  13.215   0.903 -2.5800  1.1258  0.3007
82413SOL     OW64848  10.111  10.780   4.174  0.2869 -0.3537  0.0544
82413SOL    HW164849  10.034  10.835   4.183  0.2636 -0.4661  0.5953
82413SOL    HW264850  10.088  10.719   4.103 -0.5440 -1.0638  0.9040
82414SOL     OW64851  10.252   0.311  11.942  0.0290 -0.2648  0.3434
82414SOL    HW164852  10.288   0.363  11.870 -1.6473 -1.5581 -1.5244
82414SOL    HW264853  10.324   0.253  11.968  0.6742  0.2473 -0.2476
82415SOL     OW64854   1.032   5.408   3.371 -0.0157 -0.0669 -0.5962
82415SOL    HW164855   1.059   5.319   3.349 -2.4788 -1.5774  1.8234
82415SOL    HW264856   1.077   5.428   3.452  1.0488  1.2465 -1.4706
82416SOL     OW64857  11.321  10.709   5.478 -0.0288  0.0205 -0.3596
82416SOL    HW164858  11.238  10.755   5.486 -0.0954 -0.1476 -0.0453
82416SOL    HW264859  11.305  10.624   5.520  0.7288  0.5342  1.0146
82417SOL     OW64860   9.856   4.490   2.058 -0.2730  0.2108 -0.1404
82417SOL    HW164861   9.937   4.542   2.055 -0.7452  0.9324 -1.0945
82417SOL    HW264862   9.798   4.540   2.115  0.1141 -0.5786  0.9740
82418SOL     OW64863  11.201  13.914  11.109  0.3723  0.6099 -0.0428
82418SOL    HW164864  11.208  13.901  11.014  0.0332 -0.0143  0.0151
82418SOL    HW264865  11.196  13.826  11.145 -0.4429  0.8650  0.4879
82419SOL     OW64866   2.185  11.639   7.390 -0.3586 -0.1282  0.2090
82419SOL    HW164867   2.262  11.583   7.379 -0.5459 -0.6118  1.2519
82419SOL    HW264868   2.121  11.603   7.329  0.9317  1.6761 -2.4037
82420SOL     OW64869   7.703   9.512  11.466 -0.2714  0.0875 -0.1606
82420SOL    HW164870   7.671   9.463  11.542 -1.8630  0.1105 -0.7806
82420SOL    HW264871   7.790   9.542  11.491 -0.5753 -0.3269  1.4672
82421SOL     OW64872   5.603   8.968   4.693  0.5076 -0.0582  0.1989
82421SOL    HW164873   5.652   8.958   4.611  0.5761  1.4789  0.0049
82421SOL    HW264874   5.644   9.045   4.735 -0.3598 -0.0475  1.0541
82422SOL     OW64875  11.576  12.219   5.846  0.1719 -0.2421  0.5568
82422SOL    HW164876  11.595  12.308   5.876  0.6522 -1.2847  3.6747
82422SOL    HW264877  11.628  12.162   5.903 -0.8926 -2.5822 -0.6597
82423SOL     OW64878   4.881   2.477   5.167  0.0921  0.1280  0.1417
82423SOL    HW164879   4.895   2.558   5.217  0.5812 -0.8404  1.6623
82423SOL    HW264880   4.965   2.431   5.172 -0.6128 -1.1835  0.6874
82424SOL     OW64881   6.777   1.571  13.304 -0.7303 -0.2902  0.2270
82424SOL    HW164882   6.764   1.498  13.364 -0.4175 -0.0402  0.6074
82424SOL    HW264883   6.858   1.613  13.335 -1.0748  0.4036  0.2086
82425SOL     OW64884   4.143   0.513   1.586 -0.1079  0.4301 -0.0211
82425SOL    HW164885   4.211   0.513   1.519  0.0818  0.0859  0.1666
82425SOL    HW264886   4.190   0.525   1.669 -0.3615  1.0943  0.0345
82426SOL     OW64887   5.886   2.614   8.087 -0.2452  0.0654 -0.0913
82426SOL    HW164888   5.957   2.643   8.030 -0.5208  0.2177 -0.3614
82426SOL    HW264889   5.810   2.610   8.030 -0.3723 -0.4709  0.1113
82427SOL     OW64890   9.841   6.050   6.719  0.1874  0.4667  0.5803
82427SOL    HW164891   9.815   5.958   6.730  0.6342  0.1253 -1.0547
82427SOL    HW264892   9.763   6.100   6.743 -0.7988 -0.4224 -0.6655
82428SOL     OW64893   3.685   3.328   3.168 -0.2177  0.2542  0.3818
82428SOL    HW164894   3.675   3.381   3.247 -1.1839  0.6660  0.0006
82428SOL    HW264895   3.668   3.390   3.097  0.2235 -0.2122 -0.1326
82429SOL     OW64896  12.578   5.637   9.142  0.4079  0.1247  0.1939
82429SOL    HW164897  12.578   5.690   9.222 -0.6225 -1.2890  1.1805
82429SOL    HW264898  12.491   5.596   9.141  0.2536  0.4079 -1.8764
82430SOL     OW64899   2.531   9.682   3.752  0.1963 -0.2291 -0.0824
82430SOL    HW164900   2.476   9.760   3.755  0.4549 -0.0564  0.2820
82430SOL    HW264901   2.616   9.714   3.722  0.3064 -0.3653  0.0829
82431SOL     OW64902   8.966   4.007   8.695 -0.1955  0.7224  0.2954
82431SOL    HW164903   8.931   3.921   8.717 -0.9214  1.8203  4.3410
82431SOL    HW264904   8.889   4.060   8.676  0.1734  0.8198 -1.0850
82432SOL     OW64905  12.339   0.834   2.826  0.4588  0.5343  0.3885
82432SOL    HW164906  12.253   0.834   2.784  0.6408 -1.9866 -0.1237
82432SOL    HW264907  12.391   0.894   2.772 -0.4654  0.6555 -0.4108
82433SOL     OW64908  12.660   5.503   9.546 -0.5100 -0.1639  0.8284
82433SOL    HW164909  12.588   5.511   9.483 -1.3028  0.2241  1.7589
82433SOL    HW264910  12.739   5.513   9.494 -1.1695  0.7518 -0.0217
82434SOL     OW64911   5.162   4.993  13.902  0.4371  0.0682  0.3774
82434SOL    HW164912   5.251   4.992  13.866 -0.0370 -0.5776 -0.8458
82434SOL    HW264913   5.174   4.980  13.996  1.6201 -0.4991  0.1738
82435SOL     OW64914   8.626   7.502   4.196 -0.8904  0.2825  0.6505
82435SOL    HW164915   8.587   7.419   4.221  1.7645 -1.1938  0.2364
82435SOL    HW264916   8.719   7.493   4.219 -0.2375  2.5441 -0.7998
82436SOL     OW64917   7.431  11.793   6.678 -0.1148 -0.4667 -0.4752
82436SOL    HW164918   7.481  11.870   6.652 -2.1579  0.8035 -0.8692
82436SOL    HW264919   7.495  11.722   6.682  1.8083  1.2280 -0.1670
82437SOL     OW64920  13.907   9.922   9.248  0.2534 -0.4446 -0.1348
82437SOL    HW164921  13.897   9.916   9.342 -0.7455 -0.0114 -0.1966
82437SOL    HW264922  13.965   9.998   9.235  0.7754 -0.7909  0.1348
82438SOL     OW64923   6.380   8.883   1.686 -0.2605  0.3243  0.3038
82438SOL    HW164924   6.442   8.834   1.739  0.1433  1.7607  1.1842
82438SOL    HW264925   6.297   8.835   1.696  0.4881 -1.1780 -0.2944
82439SOL     OW64926   4.196  13.826   5.029 -0.2303  0.2847 -0.7044
82439SOL    HW164927   4.165  13.808   5.117 -1.2691 -2.9127 -1.5747
82439SOL    HW264928   4.291  13.829   5.036 -0.3161  0.4267  0.5410
82440SOL     OW64929  10.925  12.284   3.033  0.9543 -0.0571 -0.2274
82440SOL    HW164930  10.969  12.229   2.969  1.5999 -0.4749  0.5633
82440SOL    HW264931  10.986  12.357   3.048  1.5578 -0.8081  1.1171
82441SOL     OW64932   3.345  11.326   6.546 -0.2543  0.2462  0.7540
82441SOL    HW164933   3.335  11.319   6.451 -0.1546  0.3220  0.7374
82441SOL    HW264934   3.310  11.244   6.580  0.0408  0.0663  0.6276
82442SOL     OW64935   1.929   2.951  11.999  0.0435  0.0356  0.0734
82442SOL    HW164936   1.890   2.901  11.928  0.8430  0.5782 -0.7829
82442SOL    HW264937   1.995   2.893  12.037  0.0733 -0.0149 -0.0575
82443SOL     OW64938  10.372  11.230  10.551  0.0952 -0.2509 -0.4724
82443SOL    HW164939  10.403  11.168  10.484 -0.2594 -0.4324 -0.4700
82443SOL    HW264940  10.318  11.292  10.502  0.3231 -0.0301 -0.4485
82444SOL     OW64941   8.433   3.885   8.039 -0.1372 -0.5964  0.7631
82444SOL    HW164942   8.427   3.975   8.070  0.7186 -0.0477 -0.5952
82444SOL    HW264943   8.495   3.888   7.966  0.9172 -2.4963  1.4820
82445SOL     OW64944   3.989   7.094  10.917 -0.2645  0.3626 -0.4584
82445SOL    HW164945   3.907   7.045  10.917 -1.7989  2.7451 -0.5086
82445SOL    HW264946   4.001   7.122  11.007  0.9087 -0.5605 -0.3109
82446SOL     OW64947   6.167   8.580   3.795 -0.3398 -0.6538 -0.1087
82446SOL    HW164948   6.073   8.598   3.798 -0.4383 -1.1832  0.4544
82446SOL    HW264949   6.206   8.659   3.758 -1.0130 -0.4611 -0.4327
82447SOL     OW64950  14.025   7.277  10.065  0.2756 -0.0551  0.3246
82447SOL    HW164951  14.112   7.291  10.104  0.3199 -0.7077  0.4630
82447SOL    HW264952  14.001   7.188  10.090 -1.8448  1.1328  3.0662
82448SOL     OW64953   6.275   9.501  13.559 -0.4368  0.0030 -0.3651
82448SOL    HW164954   6.332   9.568  13.523 -0.8998 -0.6222 -2.3988
82448SOL    HW264955   6.329   9.455  13.623  0.0773  1.8546  0.5979
82449SOL     OW64956   6.709   5.381  13.028 -0.4610  0.6580  0.3754
82449SOL    HW164957   6.758   5.440  12.971 -0.0624 -0.2648 -0.2745
82449SOL    HW264958   6.618   5.390  12.998 -0.0888 -0.8231 -1.4023
82450SOL     OW64959   8.774   5.112   1.815  0.1714  0.2457 -0.0091
82450SOL    HW164960   8.780   5.183   1.751 -0.9317 -1.2381 -1.8227
82450SOL    HW264961   8.793   5.033   1.766 -0.6511 -0.9523  1.5069
82451SOL     OW64962   5.887   1.894  10.204 -0.0871 -0.0432 -0.1050
82451SOL    HW164963   5.951   1.943  10.256  0.4631 -2.6297  1.8505
82451SOL    HW264964   5.908   1.917  10.113  1.3844  1.7609  0.6195
82452SOL     OW64965   6.834   1.772   3.876  0.6278  0.2582  0.4009
82452SOL    HW164966   6.878   1.738   3.955 -1.4634 -1.2557  1.0160
82452SOL    HW264967   6.742   1.748   3.888  0.0529  0.9816 -2.0140
82453SOL     OW64968   6.401   4.600  12.348 -0.2274 -0.1900 -0.3173
82453SOL    HW164969   6.349   4.533  12.393  0.8518 -0.2170  0.9430
82453SOL    HW264970   6.432   4.556  12.269 -1.3523 -0.4543 -0.6438
82454SOL     OW64971   0.434   9.558  12.430  0.9731  0.0960 -0.1074
82454SOL    HW164972   0.400   9.513  12.352  0.7799 -2.1364  1.1587
82454SOL    HW264973   0.519   9.518  12.445  0.5735 -0.2669  1.3729
82455SOL     OW64974   3.726   1.987  12.075  0.0432  0.0195  0.3722
82455SOL    HW164975   3.739   2.031  12.159 -0.4078 -1.8842  1.4808
82455SOL    HW264976   3.729   2.058  12.011  2.1068  1.3254  1.7948
82456SOL     OW64977  11.200   9.856   1.407 -0.2811  0.3263 -0.3608
82456SOL    HW164978  11.224   9.876   1.316 -0.1045 -1.1322 -0.6530
82456SOL    HW264979  11.244   9.774   1.426 -0.2349  0.6593  1.1007
82457SOL     OW64980   8.228   8.655   4.943 -0.0070  0.2605 -0.5544
82457SOL    HW164981   8.171   8.732   4.953 -1.0812 -0.0929 -3.1707
82457SOL    HW264982   8.241   8.647   4.849  1.9585 -1.4752 -0.2074
82458SOL     OW64983   6.496  10.976  13.951  0.1891 -0.3130  0.3702
82458SOL    HW164984   6.572  10.962  14.008 -1.0206 -1.9914  1.6665
82458SOL    HW264985   6.435  10.907  13.976 -0.8292 -0.4670 -2.2792
82459SOL     OW64986  12.814   2.006  13.067  0.3287 -0.4380 -0.0789
82459SOL    HW164987  12.885   2.015  13.003  0.1071 -0.7815 -0.3773
82459SOL    HW264988  12.767   1.927  13.040 -0.4495  0.0373 -0.1560
82460SOL     OW64989   8.694   7.382   1.727 -0.0587 -0.0097  0.0255
82460SOL    HW164990   8.650   7.409   1.646 -0.9563 -1.3692  0.0159
82460SOL    HW264991   8.754   7.313   1.700  2.9011  2.4199 -0.0993
82461SOL     OW64992   1.379   8.625   6.170  0.4502  0.0222 -0.2866
82461SOL    HW164993   1.423   8.561   6.114 -2.2698 -1.1930 -1.1833
82461SOL    HW264994   1.325   8.677   6.110  0.1331  1.0270  0.8269
82462SOL     OW64995  10.822   2.322   2.299 -0.1853 -0.1816 -0.3637
82462SOL    HW164996  10.743   2.290   2.344  0.2538  0.7149  1.0954
82462SOL    HW264997  10.890   2.323   2.366  1.1180 -0.9639 -1.6056
82463SOL     OW64998   3.054   3.647  10.243  0.2434  0.2281  0.4192
82463SOL    HW164999   3.108   3.702  10.300 -0.8613  0.9720  0.7806
82463SOL    HW265000   3.099   3.563  10.241 -0.1169 -0.1404  3.1550
82464SOL     OW65001   9.077   4.117   9.779 -0.1724 -0.1705 -0.1514
82464SOL    HW165002   9.152   4.101   9.836 -0.4246 -1.3973 -0.1529
82464SOL    HW265003   9.090   4.058   9.705 -0.0654  1.1064 -1.1857
82465SOL     OW65004   7.223  10.701   6.533  0.4507 -0.2516  0.0228
82465SOL    HW165005   7.179  10.662   6.457  0.2374  1.4384 -0.7616
82465SOL    HW265006   7.316  10.692   6.514  0.4025 -0.2450 -0.2189
82466SOL     OW65007  13.932   7.245   7.383 -0.7252 -0.0201 -0.1127
82466SOL    HW165008  13.935   7.235   7.478 -2.2005  2.5386  0.3153
82466SOL    HW265009  13.838   7.242   7.362 -0.6668  2.3751 -1.0106
82467SOL     OW65010   4.655   7.101  11.947  0.3648 -0.0287  0.1545
82467SOL    HW165011   4.612   7.154  11.880 -1.8273 -1.1908  0.5514
82467SOL    HW265012   4.699   7.031  11.898  1.2690  0.7763 -0.2136
82468SOL     OW65013   5.940   1.893  13.034 -0.5527  0.2790  0.1828
82468SOL    HW165014   6.020   1.911  12.985 -1.2522 -1.0297 -1.5450
82468SOL    HW265015   5.957   1.811  13.078  0.0313  1.3973  2.1531
82469SOL     OW65016  12.052   3.269   4.078  0.2726 -0.4164 -0.3885
82469SOL    HW165017  12.040   3.214   4.155  0.4086  0.6731  0.4203
82469SOL    HW265018  12.076   3.207   4.008 -0.1264 -1.4410  0.3585
82470SOL     OW65019   6.849   1.717  10.396  0.2519 -0.7915  0.2128
82470SOL    HW165020   6.816   1.807  10.399 -1.8975 -1.3940 -2.1323
82470SOL    HW265021   6.790   1.668  10.454  0.9978 -0.8416  0.9485
82471SOL     OW65022   4.734   9.842   1.457 -0.4233  0.1855  0.2236
82471SOL    HW165023   4.802   9.824   1.392 -1.6466  1.3138 -1.4836
82471SOL    HW265024   4.770   9.914   1.509  0.1373  0.0160  0.0822
82472SOL     OW65025   0.413   9.805   4.875  0.2959  0.2231  0.0646
82472SOL    HW165026   0.437   9.747   4.802  0.5952 -0.7237  0.8956
82472SOL    HW265027   0.466   9.883   4.861  1.0820 -0.3401 -0.2109
82473SOL     OW65028  12.007   9.642   6.925 -0.1096  0.1307  0.0151
82473SOL    HW165029  12.033   9.687   6.845  0.8376 -2.6557 -1.3785
82473SOL    HW265030  12.066   9.676   6.992  1.9310 -0.4078 -1.4140
82474SOL     OW65031   8.656   5.334   6.066 -0.2107  0.0138 -0.0721
82474SOL    HW165032   8.733   5.279   6.053  0.8877  1.7183 -1.3085
82474SOL    HW265033   8.659   5.397   5.993 -2.9549 -0.0385 -0.3542
82475SOL     OW65034  13.387   3.798   5.270 -0.6382 -0.3928  0.5736
82475SOL    HW165035  13.378   3.735   5.342  0.6132  1.8384  2.8703
82475SOL    HW265036  13.311   3.856   5.280  0.2662  0.7470  1.0194
82476SOL     OW65037  13.302  11.605  11.798 -0.2627  0.2170 -0.4313
82476SOL    HW165038  13.207  11.605  11.801 -0.2467 -0.6983  0.7919
82476SOL    HW265039  13.329  11.630  11.886  0.6019 -1.2435 -0.2445
82477SOL     OW65040   7.909   7.466   8.740  0.1384 -0.6703 -0.1185
82477SOL    HW165041   7.897   7.544   8.685  0.3749 -0.2156  0.4616
82477SOL    HW265042   7.939   7.398   8.679  1.0228  0.0011 -0.4520
82478SOL     OW65043   6.345   1.329   1.088 -0.0209 -0.1432  0.1957
82478SOL    HW165044   6.308   1.415   1.108 -0.2325  0.7063 -3.2732
82478SOL    HW265045   6.437   1.336   1.110 -0.4086  0.2161  1.8609
82479SOL     OW65046   9.620   7.610   1.753 -0.5002 -0.1953 -0.1090
82479SOL    HW165047   9.675   7.580   1.680  0.4812  0.7961  0.1962
82479SOL    HW265048   9.659   7.569   1.831 -1.3919 -1.0503 -0.0920
82480SOL     OW65049   8.422   9.987  13.919  0.1201 -0.4116  0.4031
82480SOL    HW165050   8.381  10.043  13.853  0.8174  1.7791  1.7029
82480SOL    HW265051   8.506   9.962  13.880 -0.7954 -1.8846 -0.7791
82481SOL     OW65052   8.930  13.917   4.128 -0.1764 -0.4209 -0.1327
82481SOL    HW165053   9.002  13.871   4.171  0.2988 -0.0274 -0.4865
82481SOL    HW265054   8.864  13.850   4.112  0.4515 -0.9595 -0.5220
82482SOL     OW65055   5.003   3.241  13.135 -0.0270 -0.0614 -0.1502
82482SOL    HW165056   4.968   3.236  13.046  2.0316 -0.1337 -1.0095
82482SOL    HW265057   5.033   3.152  13.154 -1.6359 -0.3790  1.1922
82483SOL     OW65058   6.246  11.796  14.061 -0.3290  0.4935 -0.0427
82483SOL    HW165059   6.275  11.885  14.039 -0.7810  0.9822  1.2221
82483SOL    HW265060   6.290  11.776  14.144  1.0740 -1.1476 -1.1242
82484SOL     OW65061  11.062  11.257   5.188  0.2408  0.2282 -0.1750
82484SOL    HW165062  11.053  11.351   5.173 -0.1571  0.0819 -0.8749
82484SOL    HW265063  11.049  11.217   5.102  0.0113 -0.4968  0.1881
82485SOL     OW65064  12.264  13.227   9.431 -0.8756 -0.7468  0.1390
82485SOL    HW165065  12.191  13.286   9.449 -0.9999 -1.2228  1.3159
82485SOL    HW265066  12.244  13.148   9.482  0.9474 -0.4969  1.3387
82486SOL     OW65067   6.064   0.751   0.043 -0.1989 -0.4448 -0.7311
82486SOL    HW165068   6.025   0.670   0.010  0.1362 -1.2323  0.7229
82486SOL    HW265069   6.093   0.730   0.131 -0.9353  1.5209  0.0474
82487SOL     OW65070  10.893  10.802  10.663 -0.0599  0.4952 -0.0965
82487SOL    HW165071  10.848  10.798  10.747  0.6668  0.1972  0.2838
82487SOL    HW265072  10.986  10.806  10.685  0.1265  0.7122 -0.8803
82488SOL     OW65073  10.986  13.357   9.939 -0.1595  0.5496 -0.1163
82488SOL    HW165074  11.009  13.329  10.028 -2.2628 -0.8337  0.0620
82488SOL    HW265075  11.055  13.321   9.884  0.7490  0.7490  0.8579
82489SOL     OW65076  12.230  12.676  10.252 -0.1649  0.3882 -0.1201
82489SOL    HW165077  12.282  12.634  10.320 -1.5540 -2.3743 -0.6145
82489SOL    HW265078  12.143  12.639  10.262 -0.5581  0.2365 -3.0416
82490SOL     OW65079   1.023   8.510   5.150  0.5681  0.1059 -0.5631
82490SOL    HW165080   1.084   8.545   5.215  0.2643 -0.7656  0.2162
82490SOL    HW265081   1.058   8.425   5.127 -1.4742 -1.4626  1.6259
82491SOL     OW65082   2.496   6.434   3.207  0.3904  0.0902 -0.1345
82491SOL    HW165083   2.500   6.342   3.233 -1.2763 -0.0097 -0.1514
82491SOL    HW265084   2.472   6.481   3.287 -0.7838  0.2510 -0.5604
82492SOL     OW65085   7.464   8.633  12.075 -0.8073 -0.4982 -0.5510
82492SOL    HW165086   7.515   8.713  12.068 -1.6444  0.2292  1.0962
82492SOL    HW265087   7.520   8.572  12.123 -0.7313 -0.3883 -0.5007
82493SOL     OW65088   1.575   7.766  12.894 -0.0088  0.0723 -0.2137
82493SOL    HW165089   1.603   7.858  12.894  1.0205 -0.1900  1.7662
82493SOL    HW265090   1.483   7.769  12.868 -0.1914  1.7447  0.5131
82494SOL     OW65091  11.995   9.186   7.502  0.0719  0.2095  0.1343
82494SOL    HW165092  11.941   9.117   7.540  0.8267 -0.6872 -0.3720
82494SOL    HW265093  12.008   9.249   7.573  0.2107 -0.6737  0.9020
82495SOL     OW65094   2.401  13.830   2.520  0.5020 -0.2351  0.1444
82495SOL    HW165095   2.353  13.754   2.552  2.0173 -1.6695 -0.8358
82495SOL    HW265096   2.335  13.883   2.476 -0.2513 -2.0834 -1.0835
82496SOL     OW65097   9.652  11.253   2.752  0.0973  0.3767  0.7242
82496SOL    HW165098   9.742  11.278   2.774 -0.4285  2.0211  1.1515
82496SOL    HW265099   9.614  11.332   2.713 -0.5597 -0.9202 -1.4190
82497SOL     OW65100   1.143   1.973  12.020 -0.1157  0.2306  0.0336
82497SOL    HW165101   1.137   2.056  11.973  0.7132  0.9255  1.1056
82497SOL    HW265102   1.145   1.998  12.113  1.8650 -0.8328  0.3404
82498SOL     OW65103   1.119   9.006   1.892  0.0257 -0.1165  0.3710
82498SOL    HW165104   1.090   9.091   1.924  1.2924  0.6264 -0.3337
82498SOL    HW265105   1.053   8.944   1.922 -0.5052  0.9987  1.5807
82499SOL     OW65106   1.642   5.624   5.778  0.5449 -0.2243  0.2431
82499SOL    HW165107   1.634   5.675   5.859  3.8457 -1.0779  1.2665
82499SOL    HW265108   1.592   5.674   5.713  0.1760  2.0432  2.1332
82500SOL     OW65109   7.726   7.936   0.371 -0.1949  1.1640 -0.4297
82500SOL    HW165110   7.667   7.930   0.296 -1.4377 -0.9957  0.6397
82500SOL    HW265111   7.672   7.968   0.443  0.4543  1.1649  0.0742
82501SOL     OW65112   4.348   1.688   5.982  0.4462  0.1836 -0.1360
82501SOL    HW165113   4.352   1.640   6.064 -2.0978  0.2370  0.0926
82501SOL    HW265114   4.278   1.645   5.932  1.4230  0.6183 -1.9815
82502SOL     OW65115  13.881  11.021   8.346 -0.1171 -0.2511 -0.1355
82502SOL    HW165116  13.804  10.964   8.345  0.0947 -0.5470 -0.9123
82502SOL    HW265117  13.954  10.963   8.325  0.2870  0.0682  0.3739
82503SOL     OW65118   0.445   5.228  11.438 -0.2312 -0.0982 -0.3058
82503SOL    HW165119   0.537   5.235  11.412 -0.6670  1.2292 -1.7223
82503SOL    HW265120   0.434   5.297  11.503 -0.0787 -0.7108  0.3757
82504SOL     OW65121   8.508   2.226  13.588 -0.1600  0.4008 -0.1426
82504SOL    HW165122   8.434   2.217  13.528  0.3080 -1.6386 -0.5092
82504SOL    HW265123   8.475   2.194  13.671  0.9904 -3.5098 -0.9843
82505SOL     OW65124   6.596  10.400   0.980 -0.4292  0.4031 -0.2595
82505SOL    HW165125   6.559  10.343   1.048 -0.1191  1.3691  0.7542
82505SOL    HW265126   6.520  10.430   0.930 -1.0917  2.2908  1.7356
82506SOL     OW65127  12.419   5.764   7.856 -0.0553  0.1448  0.1883
82506SOL    HW165128  12.336   5.716   7.855 -0.3437  0.3333 -3.9683
82506SOL    HW265129  12.484   5.701   7.824  0.7642  0.9083  0.3009
82507SOL     OW65130   7.252  12.137   9.546 -0.1003  0.0651 -0.3037
82507SOL    HW165131   7.315  12.066   9.536  0.0459 -0.0010  1.0145
82507SOL    HW265132   7.172  12.104   9.506  0.3225 -0.3510 -0.8176
82508SOL     OW65133   0.728   6.088   2.654 -0.4730  0.5213  0.1451
82508SOL    HW165134   0.783   6.051   2.585 -0.4850  0.5147  0.1389
82508SOL    HW265135   0.775   6.165   2.684 -0.6696  0.7616 -0.1621
82509SOL     OW65136   1.990   7.758   6.417 -0.0487  0.3769  0.5859
82509SOL    HW165137   2.034   7.821   6.360  0.2170 -1.1371 -0.9543
82509SOL    HW265138   2.034   7.768   6.502  0.6425  1.5578  0.1153
82510SOL     OW65139   2.999  10.855   0.247  0.4593 -0.2045 -0.1310
82510SOL    HW165140   3.023  10.913   0.175 -1.4726 -0.8940 -1.4438
82510SOL    HW265141   2.919  10.893   0.283  0.0158 -1.1848 -0.0219
82511SOL     OW65142   3.507   4.906   9.187 -0.1327 -0.2175 -0.1106
82511SOL    HW165143   3.583   4.896   9.129  0.4741  2.5357  0.1030
82511SOL    HW265144   3.432   4.887   9.131  0.5803 -0.6369 -0.9584
82512SOL     OW65145   3.003  10.840   3.725 -0.0638 -0.4097  0.0123
82512SOL    HW165146   2.995  10.819   3.633 -1.4642 -0.4620  0.1324
82512SOL    HW265147   2.930  10.899   3.743  0.1048 -0.5151  1.1217
82513SOL     OW65148   6.537   9.052   3.523 -0.0988  0.4882 -0.0035
82513SOL    HW165149   6.526   9.101   3.441 -1.1742  0.1916 -0.0515
82513SOL    HW265150   6.630   9.064   3.545  0.2848  0.3317 -1.4029
82514SOL     OW65151   9.547  13.270   4.195 -0.7473 -0.0709 -0.1183
82514SOL    HW165152   9.637  13.287   4.165 -0.5703 -1.3308 -0.3471
82514SOL    HW265153   9.504  13.355   4.191  1.1004  1.1270  2.2993
82515SOL     OW65154   9.857   8.944   1.275 -0.4229 -0.3780  0.4128
82515SOL    HW165155   9.873   8.949   1.181 -0.4723  0.1119  0.4271
82515SOL    HW265156   9.914   8.873   1.306 -0.6989 -0.8014 -0.0425
82516SOL     OW65157   8.360  14.000  11.557  0.1328 -0.2699  0.1942
82516SOL    HW165158   8.399  14.080  11.591  0.0493  0.3029 -1.0264
82516SOL    HW265159   8.433  13.953  11.516  0.2469 -0.9921  1.1641
82517SOL     OW65160  12.061   1.593   2.736 -0.3097 -0.2681 -0.1340
82517SOL    HW165161  12.125   1.637   2.680 -0.0258 -0.3734  0.1070
82517SOL    HW265162  12.111   1.564   2.812 -0.5514 -0.7384 -0.1459
82518SOL     OW65163   6.690  10.042   5.188 -0.9693  0.8729 -0.1035
82518SOL    HW165164   6.706   9.954   5.155  2.7479  2.0962 -2.1781
82518SOL    HW265165   6.712  10.037   5.282  0.8954 -0.1158 -0.5467
82519SOL     OW65166  13.285   2.248   7.129 -0.2573  0.2303  0.2490
82519SOL    HW165167  13.336   2.236   7.210  1.2369  2.3429 -0.2937
82519SOL    HW265168  13.196   2.266   7.160  0.0682  0.0113  1.3818
82520SOL     OW65169   4.026   0.545   8.910  0.4514  0.0433 -0.4471
82520SOL    HW165170   4.080   0.468   8.926  2.9523  1.8097  0.1908
82520SOL    HW265171   3.936   0.516   8.930  1.5825 -1.9882  2.3713
82521SOL     OW65172   4.113   0.812   0.767  0.3582  0.2154  0.2259
82521SOL    HW165173   4.100   0.905   0.784 -2.7324 -0.3350  1.5225
82521SOL    HW265174   4.058   0.794   0.690 -1.2282 -0.9500  1.5539
82522SOL     OW65175  13.598   3.560   2.455 -0.1282  0.0795 -0.4100
82522SOL    HW165176  13.657   3.635   2.452 -1.4085  1.0914 -1.2816
82522SOL    HW265177  13.541   3.577   2.530 -0.8103  0.2929 -0.9697
82523SOL     OW65178  11.323   9.910   0.003 -0.2668 -0.1180  0.1073
82523SOL    HW165179  11.352   9.940   0.089  0.4507 -0.1171 -0.1325
82523SOL    HW265180  11.227   9.911   0.009 -0.2429  0.7459  0.6114
82524SOL     OW65181   0.921   1.404   7.309 -0.3342  0.3719  0.3421
82524SOL    HW165182   0.951   1.356   7.387 -0.2889 -0.4777 -0.1902
82524SOL    HW265183   0.835   1.438   7.334  0.5835  2.0243  1.5472
82525SOL     OW65184   7.158  10.960   8.851 -0.1813  0.4233 -0.2088
82525SOL    HW165185   7.216  11.035   8.834 -1.0764  1.2470  0.2717
82525SOL    HW265186   7.084  10.973   8.792 -0.0695 -0.4262 -0.5520
82526SOL     OW65187   8.921   6.149   7.501 -0.3052  0.3962  0.0480
82526SOL    HW165188   8.879   6.074   7.459  0.0549  0.4778 -0.4692
82526SOL    HW265189   8.877   6.225   7.463  1.6924  0.5696 -2.1047
82527SOL     OW65190   2.428  13.143   1.063 -0.2293 -0.3087  0.4267
82527SOL    HW165191   2.492  13.086   1.105  1.0555  0.9779  0.3013
82527SOL    HW265192   2.402  13.096   0.984  1.3728 -0.4297 -0.0688
82528SOL     OW65193   2.878   3.716   4.013  0.1768 -0.1211 -0.0952
82528SOL    HW165194   2.917   3.790   3.967  0.1544  0.7865  1.2926
82528SOL    HW265195   2.802   3.753   4.058 -0.4573 -1.2160 -0.2329
82529SOL     OW65196   3.086   8.179   5.303 -0.2757  0.0286 -0.1895
82529SOL    HW165197   3.151   8.196   5.235 -0.6104 -0.2576 -0.5844
82529SOL    HW265198   3.060   8.088   5.290 -0.8936  0.1940 -0.1530
82530SOL     OW65199   0.875  12.524  12.561 -0.1923 -0.2607  0.3980
82530SOL    HW165200   0.962  12.552  12.589 -0.4074  0.9778 -0.1237
82530SOL    HW265201   0.826  12.510  12.642 -0.2240  1.3990  0.6913
82531SOL     OW65202  12.587  13.932   4.108 -0.6178 -0.0396  0.2745
82531SOL    HW165203  12.557  13.983   4.033  1.5151  1.0231  0.0609
82531SOL    HW265204  12.518  13.867   4.123 -1.4986  0.2922 -2.0276
82532SOL     OW65205  11.361   5.638   4.348 -0.2053 -0.1050  0.2231
82532SOL    HW165206  11.447   5.618   4.313 -0.5570  0.1696 -0.8332
82532SOL    HW265207  11.355   5.734   4.345  0.7597  0.1824  3.5197
82533SOL     OW65208   2.211  12.486   1.051  0.2326  0.3523  0.2447
82533SOL    HW165209   2.142  12.550   1.072  0.5138  1.2645 -1.4310
82533SOL    HW265210   2.274  12.536   1.000  0.6248 -1.2149 -0.8474
82534SOL     OW65211   0.614   9.453   1.148  0.4029 -0.6050  0.2165
82534SOL    HW165212   0.526   9.473   1.181  1.0192  0.7899  1.0963
82534SOL    HW265213   0.633   9.366   1.181  0.9934  0.6990  3.7636
82535SOL     OW65214   1.131  13.472   8.436  0.6128 -0.1023 -0.1508
82535SOL    HW165215   1.077  13.478   8.514 -0.6618 -0.0271 -1.0196
82535SOL    HW265216   1.134  13.379   8.415  2.2822 -0.3211  0.8605
82536SOL     OW65217   0.468  12.594  13.163  0.4747  0.1369  0.6696
82536SOL    HW165218   0.501  12.667  13.110  1.6330 -2.2471 -2.2026
82536SOL    HW265219   0.375  12.587  13.139  0.8274 -0.4930 -0.5658
82537SOL     OW65220   3.589  11.080   0.980 -0.3986 -0.4782  0.1502
82537SOL    HW165221   3.586  11.069   0.885  0.5184  2.7216 -0.3671
82537SOL    HW265222   3.596  11.175   0.993 -1.5889 -0.7076  3.4704
82538SOL     OW65223   7.949   9.032  12.323  0.4275 -0.2783  0.7089
82538SOL    HW165224   7.944   9.029  12.227 -0.5354 -0.8121  0.7672
82538SOL    HW265225   7.879   8.975  12.353  1.8381 -1.5553  1.7384
82539SOL     OW65226  13.075  10.134   0.646 -0.2898 -0.6472  0.6392
82539SOL    HW165227  13.070  10.055   0.700 -0.7887 -0.6586  0.5841
82539SOL    HW265228  13.120  10.106   0.567  0.6320 -0.5819  1.1288
82540SOL     OW65229  10.431  13.560   4.690  0.1788 -0.9504 -0.4251
82540SOL    HW165230  10.368  13.488   4.678  0.7784 -1.3646 -1.2331
82540SOL    HW265231  10.416  13.591   4.779 -1.1732 -1.0340 -0.6020
82541SOL     OW65232  12.764   8.630   6.878 -0.1130  0.0965 -0.0985
82541SOL    HW165233  12.744   8.610   6.970 -0.4989  1.1277  0.0519
82541SOL    HW265234  12.835   8.569   6.856  1.1198  0.9075  1.3837
82542SOL     OW65235   2.720  12.697   5.640 -0.0723 -0.0256  0.0506
82542SOL    HW165236   2.767  12.621   5.605 -0.2887 -0.5435  0.8526
82542SOL    HW265237   2.718  12.682   5.735 -2.4739 -0.4068  0.0126
82543SOL     OW65238   9.974  10.026   6.562 -0.0858  0.1520  0.1188
82543SOL    HW165239  10.020   9.985   6.635  1.1277  0.0529 -0.6881
82543SOL    HW265240   9.919   9.956   6.526  0.5318 -0.2386 -0.0669
82544SOL     OW65241   7.676  10.508  11.564  0.0140  0.2510 -0.7017
82544SOL    HW165242   7.768  10.527  11.581  0.1479 -0.2743 -0.8355
82544SOL    HW265243   7.637  10.593  11.543  0.3507  0.5578 -0.1063
82545SOL     OW65244  12.510   9.417   4.431  0.2032 -0.0922 -0.1060
82545SOL    HW165245  12.557   9.405   4.514 -0.3880 -1.4547  0.0563
82545SOL    HW265246  12.502   9.329   4.395  0.0618  0.4332 -1.4123
82546SOL     OW65247   6.097  10.101   2.019 -0.1032  0.1051 -0.0987
82546SOL    HW165248   6.063  10.101   2.108 -0.1753 -0.3370 -0.1218
82546SOL    HW265249   6.160  10.030   2.017 -1.2747 -0.9703 -0.8202
82547SOL     OW65250   5.986  13.026  12.073 -0.4118  0.5357 -0.4169
82547SOL    HW165251   5.987  13.090  12.002  0.4454  1.0637  0.0513
82547SOL    HW265252   5.895  12.997  12.078 -0.3968  0.1391 -2.0240
82548SOL     OW65253   1.043   4.743   8.930 -0.6311 -0.2684 -0.5587
82548SOL    HW165254   1.076   4.807   8.993 -1.3329  1.0200 -1.4608
82548SOL    HW265255   1.120   4.720   8.877 -0.1822 -0.8758  0.3189
82549SOL     OW65256   6.526   8.128  10.074  0.1363  0.3022 -0.1581
82549SOL    HW165257   6.532   8.070   9.998 -1.9969  0.0854 -0.2285
82549SOL    HW265258   6.580   8.203  10.051 -0.4269  0.2202 -1.8978
82550SOL     OW65259  10.619   4.799   0.861 -0.0228  0.3636  0.0473
82550SOL    HW165260  10.677   4.731   0.826 -0.5675  0.4867 -1.1567
82550SOL    HW265261  10.549   4.751   0.905 -1.4407 -0.0190 -2.4006
82551SOL     OW65262  11.457  11.102   2.013 -0.0312  1.0711 -0.3516
82551SOL    HW165263  11.468  11.133   1.923  1.8618 -1.0499 -0.9624
82551SOL    HW265264  11.391  11.033   2.007  2.4256 -1.4384 -0.9040
82552SOL     OW65265   3.175  10.940   4.990  0.2439  0.1422 -0.0111
82552SOL    HW165266   3.084  10.959   5.014  0.2495  0.2350 -0.0630
82552SOL    HW265267   3.171  10.923   4.895  0.1577 -0.6055  0.1151
82553SOL     OW65268   0.701   9.422   7.149  0.0444  0.2349  0.1414
82553SOL    HW165269   0.755   9.386   7.079  0.8015  1.8448 -0.1504
82553SOL    HW265270   0.762   9.435   7.222 -0.6275 -0.9224  0.9435
82554SOL     OW65271   8.795   6.201   4.425  0.2070  0.3649  0.7770
82554SOL    HW165272   8.890   6.191   4.414  0.4220  1.8438  1.0207
82554SOL    HW265273   8.786   6.261   4.500 -0.7737  3.2594 -1.4439
82555SOL     OW65274  11.334   9.972   4.835 -0.0861  0.2552  0.3525
82555SOL    HW165275  11.334   9.927   4.920 -1.0596 -0.1516  0.1520
82555SOL    HW265276  11.425   9.971   4.807 -0.0216 -1.2317  0.5588
82556SOL     OW65277   8.151   1.805   6.560 -0.3787 -0.1148  0.0150
82556SOL    HW165278   8.190   1.884   6.522 -0.1687  0.0250  0.5060
82556SOL    HW265279   8.086   1.776   6.496  0.2072 -0.0850 -0.6132
82557SOL     OW65280   8.523  12.053   0.395  0.0814  1.0950  0.3217
82557SOL    HW165281   8.560  12.105   0.323  0.9865  0.8704  0.6106
82557SOL    HW265282   8.599  12.023   0.444 -0.5173  1.0385  1.2365
82558SOL     OW65283   7.248   2.551   7.820 -0.2687 -0.7604 -0.7969
82558SOL    HW165284   7.329   2.596   7.796 -0.9873  1.3663  0.5302
82558SOL    HW265285   7.255   2.536   7.914 -1.4565 -0.4326 -0.6326
82559SOL     OW65286   5.513   4.411   0.727  0.2533  0.5247 -0.3150
82559SOL    HW165287   5.448   4.356   0.769  0.3816  0.5548 -0.0770
82559SOL    HW265288   5.508   4.495   0.774  0.9012  0.3250  0.1203
82560SOL     OW65289   5.579  10.632   4.587  0.0919 -0.0286  0.3453
82560SOL    HW165290   5.661  10.623   4.539 -0.1264  0.8712 -0.2093
82560SOL    HW265291   5.603  10.678   4.668 -0.1311  1.9828 -0.6711
82561SOL     OW65292   0.907   3.722   9.107  0.4404 -0.4173 -0.2250
82561SOL    HW165293   0.888   3.723   9.013  2.6925 -3.8202 -0.9219
82561SOL    HW265294   0.999   3.747   9.113 -0.1239  1.5236  1.3729
82562SOL     OW65295   0.084   6.897   4.967  0.0515 -0.1023  0.4492
82562SOL    HW165296   0.161   6.871   4.917 -0.1630 -1.5168  0.8039
82562SOL    HW265297   0.011   6.886   4.905  0.0924  1.0000  0.1886
82563SOL     OW65298   8.734   5.553  12.832  0.0920  0.5646 -0.4449
82563SOL    HW165299   8.751   5.484  12.896  1.0275 -0.9710 -2.2473
82563SOL    HW265300   8.801   5.619  12.849  0.2404  0.2391  0.2426
82564SOL     OW65301   4.612   6.272   0.609  0.5724 -0.1466 -0.0469
82564SOL    HW165302   4.574   6.323   0.537  0.2076 -0.5463 -0.1437
82564SOL    HW265303   4.574   6.310   0.688 -0.0573 -0.5508 -0.1434
82565SOL     OW65304   9.916  11.076   7.702 -0.3665 -0.0101 -0.4645
82565SOL    HW165305   9.906  11.094   7.795 -0.7547 -3.4075  0.3021
82565SOL    HW265306   9.827  11.077   7.667 -0.6674 -2.1965  0.0739
82566SOL     OW65307   4.564   8.533   9.653  0.1003  0.2114 -0.4151
82566SOL    HW165308   4.564   8.595   9.579 -1.2751 -1.2431 -1.7267
82566SOL    HW265309   4.501   8.570   9.715  3.1918  2.8637  1.4559
82567SOL     OW65310  12.418   7.370   3.504 -0.1112 -0.4361  0.1669
82567SOL    HW165311  12.459   7.445   3.546  0.1188  0.1253 -1.0314
82567SOL    HW265312  12.362   7.332   3.572 -0.4272  0.9701  0.7145
82568SOL     OW65313   2.716   5.520   4.913  0.4528  0.1651  0.5912
82568SOL    HW165314   2.674   5.481   4.836  1.6214 -0.5014  0.2659
82568SOL    HW265315   2.665   5.488   4.987 -0.6628  0.7808  0.1236
82569SOL     OW65316   0.105   5.458   8.967  0.2308  0.7676  0.2341
82569SOL    HW165317   0.062   5.373   8.963  2.2224 -0.2973  0.1049
82569SOL    HW265318   0.110   5.478   9.061  0.5108  0.3233  0.3158
82570SOL     OW65319  11.659   1.764  13.287  0.6061  0.1130 -0.4472
82570SOL    HW165320  11.594   1.704  13.321  1.0471  1.6972  3.8093
82570SOL    HW265321  11.741   1.714  13.287  0.2661 -0.4541 -1.0236
82571SOL     OW65322   5.084  10.334   9.687 -1.0969  1.0689 -0.5014
82571SOL    HW165323   5.058  10.250   9.650  0.7062  0.1414  0.2441
82571SOL    HW265324   5.176  10.343   9.664 -0.3330  1.2374  2.2276
82572SOL     OW65325   5.455  12.395  11.141 -0.0795  0.6296  0.0010
82572SOL    HW165326   5.384  12.458  11.134  0.7592  1.4450 -1.8993
82572SOL    HW265327   5.414  12.315  11.174 -1.5215  1.5784  0.5816
82573SOL     OW65328   3.445   3.757   0.821  0.5259 -0.8875  0.4171
82573SOL    HW165329   3.459   3.824   0.753  0.5391 -0.3763  0.9200
82573SOL    HW265330   3.490   3.791   0.898 -0.1252 -1.1185  0.9045
82574SOL     OW65331   8.588  10.769  11.510 -0.0287  0.5625 -0.1574
82574SOL    HW165332   8.556  10.717  11.436 -0.5489 -0.1139  0.5312
82574SOL    HW265333   8.523  10.756  11.579  1.0156  0.2758  0.8008
82575SOL     OW65334   0.065   4.885   2.026 -0.3952  0.2898  0.1587
82575SOL    HW165335   0.158   4.870   2.042 -0.1792  1.6985  0.3485
82575SOL    HW265336   0.051   4.978   2.046 -1.4437  0.5760 -1.6315
82576SOL     OW65337   8.291  10.448   7.884  0.3831 -0.5365  0.1470
82576SOL    HW165338   8.367  10.447   7.942 -0.6802 -1.1280  1.5774
82576SOL    HW265339   8.287  10.359   7.849 -0.4501 -0.9280  1.1892
82577SOL     OW65340   6.550   1.832   6.154 -0.1460  0.0642  0.2421
82577SOL    HW165341   6.585   1.777   6.225 -2.1439 -1.4153  0.1692
82577SOL    HW265342   6.548   1.920   6.191  1.5795 -0.1536  0.9614
82578SOL     OW65343   9.951  11.535   7.060  0.1992  0.4570 -0.2308
82578SOL    HW165344   9.896  11.501   7.131 -0.5697  1.6630 -0.2102
82578SOL    HW265345   9.926  11.484   6.984 -1.1823  1.1546 -0.2798
82579SOL     OW65346   2.807   1.051   5.014  0.0248  0.1563  0.3517
82579SOL    HW165347   2.747   1.126   5.012 -0.2991 -0.0548  1.4520
82579SOL    HW265348   2.894   1.091   5.021  0.1558  0.4974 -2.2301
82580SOL     OW65349  12.218   2.890  13.753  0.7364  0.5321 -0.6741
82580SOL    HW165350  12.205   2.825  13.685  0.8614 -0.0764 -0.1209
82580SOL    HW265351  12.180   2.970  13.717 -0.3100 -0.0785 -0.9536
82581SOL     OW65352  11.850   9.958   5.507 -0.6023  0.1740  0.9475
82581SOL    HW165353  11.767   9.935   5.465 -0.9751  1.3924  0.9659
82581SOL    HW265354  11.874  10.043   5.468  2.2893 -1.5288 -1.4523
82582SOL     OW65355   7.174   1.245   8.917  0.2208  0.4690 -0.2357
82582SOL    HW165356   7.236   1.318   8.910 -0.0224  0.6576 -0.4504
82582SOL    HW265357   7.096   1.284   8.958  0.6708 -0.0367  1.1409
82583SOL     OW65358   1.123   4.232   5.660 -0.6693  0.2923 -0.1874
82583SOL    HW165359   1.179   4.287   5.606 -0.1493 -1.2652 -1.2891
82583SOL    HW265360   1.063   4.294   5.703 -1.5358  1.5616 -3.0030
82584SOL     OW65361   1.309  12.086   3.245  0.0789  0.0976 -0.9843
82584SOL    HW165362   1.263  12.129   3.317 -1.6287 -1.6541 -0.9422
82584SOL    HW265363   1.377  12.148   3.220 -1.1711  2.0452  0.1573
82585SOL     OW65364   9.864   8.234   5.122 -1.1149 -0.1861 -0.6045
82585SOL    HW165365   9.832   8.145   5.139 -0.1697 -1.1042 -3.1696
82585SOL    HW265366   9.951   8.221   5.085 -0.7065  1.8698 -0.4636
82586SOL     OW65367  11.664   5.750  12.953 -0.1812 -0.6424  0.1304
82586SOL    HW165368  11.603   5.823  12.954  0.1149 -0.3940  0.5470
82586SOL    HW265369  11.730   5.774  12.888  0.5651  0.0194  1.0949
82587SOL     OW65370   3.962   1.645   3.582  0.1889  0.3705  0.2395
82587SOL    HW165371   3.938   1.688   3.664  2.4031  0.5377  0.8732
82587SOL    HW265372   3.890   1.665   3.522  0.3691  3.7568  0.9291
82588SOL     OW65373   8.977   5.738  12.894 -0.3049  0.3722 -0.0589
82588SOL    HW165374   8.960   5.718  12.986  0.4016 -0.5579 -0.1157
82588SOL    HW265375   9.060   5.693  12.875 -0.3298  0.7449 -1.0841
82589SOL     OW65376   3.666   1.669  10.403  0.6605  0.3034 -0.0757
82589SOL    HW165377   3.705   1.659  10.489  0.6214  1.6309  0.1156
82589SOL    HW265378   3.740   1.690  10.345  0.4327  1.5128  0.0449
82590SOL     OW65379   1.684   7.234   6.963 -0.0450 -0.0799 -0.2062
82590SOL    HW165380   1.731   7.151   6.975 -1.2386 -1.1662 -2.4137
82590SOL    HW265381   1.599   7.219   7.004 -0.4531 -0.1550 -1.0662
82591SOL     OW65382  13.655   8.332   1.761 -0.0898  0.3355  0.2492
82591SOL    HW165383  13.637   8.239   1.766  1.1992  0.0303 -0.2567
82591SOL    HW265384  13.584   8.369   1.709  0.4487 -0.7102 -1.2885
82592SOL     OW65385   6.448   5.239   4.233 -0.3009 -0.9182 -0.1672
82592SOL    HW165386   6.383   5.240   4.303  1.4633 -2.7374  1.6516
82592SOL    HW265387   6.424   5.165   4.178 -0.1777 -1.1456  0.0843
82593SOL     OW65388   7.092   6.599  12.499  0.3279  0.2617  0.3877
82593SOL    HW165389   7.077   6.534  12.430 -1.4441 -0.2492  1.1954
82593SOL    HW265390   7.157   6.659  12.461  1.3178 -1.4180 -0.7374
82594SOL     OW65391  13.008   1.461   7.798  0.0667  0.7138 -0.0768
82594SOL    HW165392  12.950   1.497   7.730  0.3123  1.8996  0.3150
82594SOL    HW265393  12.992   1.517   7.874  1.1236  0.5317  0.2862
82595SOL     OW65394   1.205   2.665   3.988 -0.2985  0.4429  0.1125
82595SOL    HW165395   1.134   2.701   4.041 -1.1994 -2.7168  1.2570
82595SOL    HW265396   1.167   2.652   3.901 -1.1213 -1.0011  0.6548
82596SOL     OW65397   1.696   2.291   9.331  0.4179  0.1680 -0.3124
82596SOL    HW165398   1.779   2.251   9.303  0.2747 -0.3294 -0.0440
82596SOL    HW265399   1.723   2.371   9.377  0.6818  0.6696 -1.3228
82597SOL     OW65400   8.759   8.652   5.921  0.1882  0.9484 -0.0780
82597SOL    HW165401   8.814   8.630   5.845  0.8436  1.5968  0.1970
82597SOL    HW265402   8.674   8.615   5.900  0.4047  0.9786 -1.0670
82598SOL     OW65403   6.276  13.287  11.974  0.3049 -0.3513 -0.0889
82598SOL    HW165404   6.210  13.352  11.950 -0.1713 -0.7228  0.1991
82598SOL    HW265405   6.287  13.299  12.069  0.8353 -0.1275 -0.1719
82599SOL     OW65406   7.503   1.806   0.114  0.1328  0.0022 -0.5042
82599SOL    HW165407   7.583   1.759   0.136  0.4182  0.7077  0.0353
82599SOL    HW265408   7.510   1.889   0.163 -1.3158 -0.2758  0.2377
82600SOL     OW65409  10.065   5.050   2.545  0.1121  0.3869 -0.1101
82600SOL    HW165410  10.026   5.135   2.526  0.9580  0.3749 -2.2257
82600SOL    HW265411  10.156   5.069   2.565  0.1396  0.0301  0.1182
82601SOL     OW65412  13.872   6.185   0.364 -0.7595 -0.3894  0.5826
82601SOL    HW165413  13.867   6.144   0.278 -0.8067 -0.9240  0.8388
82601SOL    HW265414  13.834   6.121   0.424  1.7597 -1.2459  1.4068
82602SOL     OW65415  11.358   5.432   4.159  0.6433 -0.0759 -0.0352
82602SOL    HW165416  11.422   5.379   4.207  0.8914 -0.1841 -0.4858
82602SOL    HW265417  11.321   5.490   4.226  2.2870  1.0473 -0.0442
82603SOL     OW65418  13.340   1.632   4.831  0.2243  0.5970  0.1130
82603SOL    HW165419  13.396   1.647   4.907  1.4333  0.7680 -0.7930
82603SOL    HW265420  13.259   1.595   4.868  0.5598  1.2157  1.5275
82604SOL     OW65421   2.242  13.149   4.972 -0.3393 -0.3020 -0.2803
82604SOL    HW165422   2.215  13.058   4.963  0.3693 -0.8260  2.0896
82604SOL    HW265423   2.162  13.199   4.959 -0.7133 -1.2232 -1.7465
82605SOL     OW65424   0.240   0.143  13.661 -0.0442 -0.0104 -0.3167
82605SOL    HW165425   0.316   0.097  13.696 -0.4302 -1.2906 -1.0953
82605SOL    HW265426   0.164   0.097  13.697 -0.4448  0.2817 -0.7578
82606SOL     OW65427  13.083  11.898   2.138  0.2528 -0.0544 -0.5980
82606SOL    HW165428  13.027  11.862   2.069 -1.5908  0.3696  0.6033
82606SOL    HW265429  13.116  11.822   2.184  0.6826 -0.3121 -1.3108
82607SOL     OW65430   8.907  12.384   8.895 -0.2825  0.0146 -0.0481
82607SOL    HW165431   8.953  12.400   8.978 -0.8610 -3.3744  1.0990
82607SOL    HW265432   8.974  12.399   8.828  0.3190  2.4688  0.9639
82608SOL     OW65433   6.369   5.118   3.646  0.2617 -0.7327  0.1808
82608SOL    HW165434   6.413   5.182   3.590 -1.1331 -0.8275 -1.0783
82608SOL    HW265435   6.365   5.038   3.593 -1.2487 -0.7736  0.3137
82609SOL     OW65436   1.801  13.739   9.642  0.0174 -0.2963 -0.1731
82609SOL    HW165437   1.756  13.795   9.705  0.7180 -2.0241  2.0089
82609SOL    HW265438   1.780  13.650   9.671  1.8321 -1.1519 -1.3098
82610SOL     OW65439   9.570   7.270   0.314 -0.2060  0.3726 -0.1516
82610SOL    HW165440   9.616   7.334   0.367  1.2603 -0.8369  0.1061
82610SOL    HW265441   9.604   7.282   0.226 -1.8284  1.6384 -0.6406
82611SOL     OW65442  11.058   4.467  10.798  0.1153 -0.1964 -0.1619
82611SOL    HW165443  11.103   4.546  10.827  1.3846 -1.3509  1.1928
82611SOL    HW265444  10.988   4.454  10.862 -0.0904 -0.1820 -0.3815
82612SOL     OW65445   7.300   6.818   4.237 -0.3436 -0.0414  0.0435
82612SOL    HW165446   7.281   6.903   4.275  1.6212  0.1612  0.6692
82612SOL    HW265447   7.221   6.795   4.188 -0.9007  2.1379 -0.1595
82613SOL     OW65448  11.368  11.210   0.531 -0.5852 -0.2563  0.2055
82613SOL    HW165449  11.308  11.227   0.603  1.1590 -0.9321  1.9017
82613SOL    HW265450  11.421  11.290   0.524 -0.0310 -0.6028  0.4039
82614SOL     OW65451   2.110   2.968   0.466  0.3407 -0.0636 -0.2911
82614SOL    HW165452   2.087   2.926   0.549  0.6396  0.6179  0.1506
82614SOL    HW265453   2.122   2.896   0.405 -0.3254 -0.5567  0.1450
82615SOL     OW65454   9.405  11.999  10.167 -0.5541  0.4715 -0.4301
82615SOL    HW165455   9.463  11.951  10.108 -1.3980 -1.1377 -0.0021
82615SOL    HW265456   9.346  11.932  10.203 -1.6096  1.7937  0.3959
82616SOL     OW65457  13.887  12.044   2.665 -0.4807 -0.0895  0.3632
82616SOL    HW165458  13.887  11.999   2.581  0.7659  0.1753  0.2066
82616SOL    HW265459  13.877  12.136   2.643 -2.5113 -0.2083  0.6554
82617SOL     OW65460   6.745  10.735   2.799 -0.5851 -0.0574  0.2453
82617SOL    HW165461   6.651  10.752   2.795 -0.1471  3.0530  0.8031
82617SOL    HW265462   6.765  10.727   2.892 -0.3756 -1.4828  0.0984
82618SOL     OW65463   2.220   3.202  12.407 -0.4779 -0.1749  0.5461
82618SOL    HW165464   2.133   3.163  12.394 -0.4069 -0.1212 -0.1004
82618SOL    HW265465   2.213   3.247  12.492 -0.5765 -1.5426  1.2978
82619SOL     OW65466   3.470   8.049   2.381 -0.2373 -0.4680 -0.0763
82619SOL    HW165467   3.468   8.135   2.424 -1.9463 -0.8602  0.6861
82619SOL    HW265468   3.480   7.986   2.452 -1.1542 -1.0168 -0.4191
82620SOL     OW65469   7.675   7.331   4.463  0.0396 -0.3074  0.2450
82620SOL    HW165470   7.643   7.249   4.500 -0.3599 -0.2673 -0.0002
82620SOL    HW265471   7.770   7.329   4.477 -0.2264  0.2991  2.4215
82621SOL     OW65472   6.313   9.460   2.040 -0.0925 -0.4597  0.1234
82621SOL    HW165473   6.372   9.412   1.981 -1.9848 -1.5585 -0.9733
82621SOL    HW265474   6.240   9.487   1.984 -0.8897  0.4328  1.5345
82622SOL     OW65475  12.572   1.073   0.518  0.0548 -0.5108  0.0327
82622SOL    HW165476  12.551   1.122   0.439  0.0848  1.7607  1.3462
82622SOL    HW265477  12.496   1.015   0.531 -1.3049  1.1454 -0.1322
82623SOL     OW65478   6.544   3.011   4.075  0.3288  0.5974  0.1105
82623SOL    HW165479   6.639   3.025   4.065  0.2375  1.2248  0.0843
82623SOL    HW265480   6.519   3.067   4.148 -0.3398  1.8664 -1.0477
82624SOL     OW65481   2.234   9.852   8.496 -0.1735  0.5371 -0.1244
82624SOL    HW165482   2.245   9.758   8.510 -0.3167  0.5615  0.1501
82624SOL    HW265483   2.169   9.859   8.426  1.4513  0.3890 -1.7328
82625SOL     OW65484   4.257  10.123  13.314  0.1407 -0.5083  0.1801
82625SOL    HW165485   4.347  10.146  13.291 -0.1068  0.5066  0.1677
82625SOL    HW265486   4.205  10.154  13.240 -0.1850 -1.4522  0.0074
82626SOL     OW65487   7.339   1.731  12.743  0.0336  0.0505 -0.3253
82626SOL    HW165488   7.344   1.642  12.709 -1.8196  0.3761 -1.6681
82626SOL    HW265489   7.280   1.776  12.682 -1.7269  1.3100  2.1360
82627SOL     OW65490  13.779  11.424   8.924  0.0957 -0.5392 -0.5253
82627SOL    HW165491  13.837  11.489   8.963  1.5143 -1.3432 -1.2330
82627SOL    HW265492  13.787  11.437   8.830 -2.1017  0.3449 -0.6567
82628SOL     OW65493   1.455   0.273   4.960 -0.7087  0.6436 -0.3725
82628SOL    HW165494   1.394   0.335   4.920 -3.4320  0.2457  2.7031
82628SOL    HW265495   1.410   0.188   4.955  0.8563 -0.2275 -0.4087
82629SOL     OW65496  10.132   2.334   7.568 -0.2624  0.3097  0.1462
82629SOL    HW165497  10.196   2.375   7.626 -0.8778 -0.4326  1.3952
82629SOL    HW265498  10.057   2.315   7.625 -0.2785 -1.8566 -0.5141
82630SOL     OW65499  13.456   5.373   6.184 -0.1387 -0.5764  0.0606
82630SOL    HW165500  13.491   5.396   6.270 -0.2981 -0.4905  0.1031
82630SOL    HW265501  13.460   5.277   6.181  3.6969 -0.5519 -1.4298
82631SOL     OW65502   5.569   5.910   5.868  0.0938  0.2152 -0.0430
82631SOL    HW165503   5.647   5.926   5.815  0.2534 -1.4612 -0.3852
82631SOL    HW265504   5.602   5.877   5.951 -0.2130 -0.5567 -0.2081
82632SOL     OW65505  11.652   2.937   5.535  0.3384 -0.5087 -0.2510
82632SOL    HW165506  11.605   2.869   5.487  2.3997 -2.2559  0.0944
82632SOL    HW265507  11.721   2.965   5.475  0.9357 -0.3884  0.4775
82633SOL     OW65508  12.875   1.452   4.626  0.0923  0.3123 -0.2791
82633SOL    HW165509  12.854   1.475   4.535 -0.1569 -0.4057 -0.4099
82633SOL    HW265510  12.879   1.357   4.627 -0.8960  0.2556  0.6709
82634SOL     OW65511   0.473   6.132   4.272 -0.6306 -0.4207 -0.2942
82634SOL    HW165512   0.448   6.107   4.361 -1.3527  1.0234 -0.0621
82634SOL    HW265513   0.422   6.211   4.254  1.9819  1.2933 -0.7069
82635SOL     OW65514   9.827  13.907   0.099 -0.0323 -0.0505 -0.1145
82635SOL    HW165515   9.883  13.850   0.047 -0.5769 -0.6892 -0.0090
82635SOL    HW265516   9.860  13.898   0.189 -1.0299 -1.3565  0.1492
82636SOL     OW65517   2.102  12.200   0.153  0.0683  0.1928  0.3262
82636SOL    HW165518   2.097  12.260   0.227 -1.4293  2.0140 -1.1271
82636SOL    HW265519   2.013  12.166   0.144 -0.3536  1.6287 -1.7861
82637SOL     OW65520   1.457   3.996   9.308 -0.0999  0.0743  0.2394
82637SOL    HW165521   1.451   4.076   9.360 -0.6145 -0.1354  0.5092
82637SOL    HW265522   1.427   4.022   9.221 -3.0030 -0.4079  0.9748
82638SOL     OW65523  10.185  10.967   6.646 -0.2396 -0.2922 -0.0640
82638SOL    HW165524  10.150  11.047   6.686 -0.4449 -0.3011 -0.2193
82638SOL    HW265525  10.227  10.997   6.565  0.8950 -0.1681  0.5558
82639SOL     OW65526  13.162   6.448  13.188  0.5762 -0.5648 -0.1272
82639SOL    HW165527  13.092   6.403  13.143  0.4031 -0.1142 -0.3115
82639SOL    HW265528  13.129   6.461  13.277  0.6487 -0.8507 -0.0585
82640SOL     OW65529  11.484   5.130  10.454 -0.0939 -0.0631  0.5170
82640SOL    HW165530  11.393   5.151  10.476 -0.4834  0.9124 -1.7567
82640SOL    HW265531  11.519   5.212  10.417  1.1864 -0.8956 -0.1771
82641SOL     OW65532   6.853   6.531   3.799 -0.5341  0.1640  0.2682
82641SOL    HW165533   6.803   6.610   3.815 -0.2616  0.2854  0.5363
82641SOL    HW265534   6.909   6.521   3.877  0.4594  0.4984 -0.3746
82642SOL     OW65535   2.970  10.632   8.052  0.1206  0.7606 -0.6920
82642SOL    HW165536   2.977  10.701   8.119  1.3116  0.8673 -0.8958
82642SOL    HW265537   3.061  10.613   8.029 -0.2025 -0.7851 -0.7498
82643SOL     OW65538   1.825  12.866   1.964  0.3594 -0.4407 -0.3235
82643SOL    HW165539   1.822  12.791   1.905  0.1322  0.0469 -0.9429
82643SOL    HW265540   1.733  12.893   1.973  0.4595 -0.1093 -0.2781
82644SOL     OW65541   3.756  12.109   7.059  0.7149  0.3244  0.3922
82644SOL    HW165542   3.703  12.153   6.993  1.5261 -0.0285 -0.5087
82644SOL    HW265543   3.843  12.148   7.050  1.1776 -0.6950  0.3048
82645SOL     OW65544   1.741   3.516   8.480 -0.2754 -0.5872  0.2930
82645SOL    HW165545   1.694   3.448   8.529  2.2443 -3.1144 -0.5103
82645SOL    HW265546   1.830   3.513   8.515  0.0976  1.9284 -0.2485
82646SOL     OW65547   9.676  11.016   2.224  0.1386 -0.3910 -0.0757
82646SOL    HW165548   9.735  10.981   2.290  0.2788  1.2450  0.7346
82646SOL    HW265549   9.591  11.020   2.268 -0.1513 -0.8838 -0.5762
82647SOL     OW65550   1.728  12.156   5.740  0.4066 -0.5543 -0.3465
82647SOL    HW165551   1.641  12.139   5.703 -0.9853  0.4429  2.1877
82647SOL    HW265552   1.747  12.079   5.793  0.8679 -0.5982 -0.5815
82648SOL     OW65553  10.569   5.265   6.096  0.2319  0.4615  0.3967
82648SOL    HW165554  10.493   5.234   6.047  0.7676 -1.0370  0.4355
82648SOL    HW265555  10.560   5.360   6.099 -2.4119  0.2525  1.7035
82649SOL     OW65556  11.095   5.387   2.956  0.7919 -0.3231 -0.1753
82649SOL    HW165557  11.083   5.471   2.999  0.3635 -1.1916  1.5114
82649SOL    HW265558  11.180   5.394   2.912  1.7447  0.3324  1.6474
82650SOL     OW65559   3.233   3.552   5.934  0.0402 -0.1598 -0.2700
82650SOL    HW165560   3.158   3.514   5.887 -0.1082  0.4367 -0.5248
82650SOL    HW265561   3.255   3.631   5.884  0.9181 -0.3930 -0.2641
82651SOL     OW65562  10.510   4.807   1.797 -0.2880  0.0793 -0.2434
82651SOL    HW165563  10.588   4.855   1.824  1.6537 -1.5519 -2.4794
82651SOL    HW265564  10.544   4.734   1.745 -3.2440 -1.7280  0.1175
82652SOL     OW65565   5.660  13.939  11.657  0.0924 -0.3938 -0.4102
82652SOL    HW165566   5.567  13.957  11.642  0.8305  3.3576 -1.8273
82652SOL    HW265567   5.681  13.866  11.599 -1.6401 -0.1669 -1.3824
82653SOL     OW65568  10.756   5.693   5.464 -0.4738 -0.3304 -0.0346
82653SOL    HW165569  10.710   5.755   5.408  1.1251  0.2506 -0.7574
82653SOL    HW265570  10.802   5.635   5.403 -0.0572 -0.7479  0.6606
82654SOL     OW65571   7.759   0.674   7.668 -0.0508 -0.0115  0.5246
82654SOL    HW165572   7.794   0.643   7.751 -0.3988 -1.4082  0.1930
82654SOL    HW265573   7.669   0.641   7.667 -0.6276  1.5051  0.3530
82655SOL     OW65574  11.532   7.810   7.923 -0.2580 -0.1195 -0.0262
82655SOL    HW165575  11.600   7.743   7.918  0.7668  0.8982 -0.0327
82655SOL    HW265576  11.472   7.789   7.851  0.4777 -0.5649 -0.5214
82656SOL     OW65577   6.513   1.634   9.009  0.0456  0.1288 -0.2952
82656SOL    HW165578   6.539   1.645   9.100 -0.6213 -0.7115  0.0097
82656SOL    HW265579   6.488   1.542   9.002 -1.6545  0.5930 -0.8494
82657SOL     OW65580  13.038   8.486   3.632  0.7341  0.2007  0.9931
82657SOL    HW165581  12.981   8.539   3.576 -1.5423 -2.0773  0.9585
82657SOL    HW265582  13.107   8.455   3.574 -0.6829 -0.8189 -0.1901
82658SOL     OW65583   1.005  13.088  11.351  0.5916  0.1318  0.3887
82658SOL    HW165584   0.920  13.128  11.371  0.0216 -1.2457  0.8921
82658SOL    HW265585   1.014  13.019  11.418  0.7646 -1.6110 -1.3524
82659SOL     OW65586  11.079   0.520   2.067 -0.3673  0.2688 -0.7595
82659SOL    HW165587  11.146   0.532   2.134 -0.1566 -0.4292 -0.8358
82659SOL    HW265588  11.049   0.608   2.046 -1.4291  0.4287  1.2518
82660SOL     OW65589   0.706   0.687   6.057 -0.0777  0.1884  0.9297
82660SOL    HW165590   0.738   0.701   5.968  1.3659  0.4179  1.4613
82660SOL    HW265591   0.613   0.665   6.046 -0.1976  1.2959 -0.5386
82661SOL     OW65592  10.033  10.168   5.557 -0.2154  1.0442  0.5000
82661SOL    HW165593  10.029  10.227   5.632 -1.0866  1.3178  0.2435
82661SOL    HW265594  10.127  10.154   5.543 -0.0423  1.0224  1.6093
82662SOL     OW65595   4.789   4.675  12.209  0.6518  0.6888  0.3136
82662SOL    HW165596   4.743   4.740  12.155 -0.4191  1.5761  2.2126
82662SOL    HW265597   4.720   4.620  12.245  1.3409  0.1523  0.8316
82663SOL     OW65598   9.368   0.793  13.511 -0.1078 -0.5571 -0.4946
82663SOL    HW165599   9.434   0.852  13.476  0.4215 -1.2001 -0.5930
82663SOL    HW265600   9.387   0.787  13.604 -0.4990 -0.1526 -0.3821
82664SOL     OW65601   0.184   6.932   4.614 -0.7372  0.3174 -0.3402
82664SOL    HW165602   0.141   7.012   4.644  0.6192  1.3899 -1.1533
82664SOL    HW265603   0.230   6.899   4.692 -0.9655  0.5511 -0.1054
82665SOL     OW65604   2.233   3.169   2.191 -0.8629 -0.0358 -0.8211
82665SOL    HW165605   2.291   3.116   2.247 -0.7834 -0.0677 -0.9338
82665SOL    HW265606   2.248   3.135   2.103 -0.8915  0.1035 -0.8792
82666SOL     OW65607  13.339   2.624   5.134  0.6117  0.3702  0.5483
82666SOL    HW165608  13.257   2.633   5.183  2.1464  0.3356  3.3165
82666SOL    HW265609  13.336   2.693   5.068 -2.1611 -0.4541 -0.3163
82667SOL     OW65610  10.832   5.886   1.058 -0.1586  0.3979  0.4230
82667SOL    HW165611  10.791   5.858   1.140 -0.3038 -1.2552 -0.1724
82667SOL    HW265612  10.915   5.837   1.056  0.3190  1.2075  0.0571
82668SOL     OW65613   0.049   7.307   7.211 -0.6664 -0.0623  0.2823
82668SOL    HW165614  -0.019   7.292   7.276 -0.1319 -0.8248  0.6899
82668SOL    HW265615   0.102   7.378   7.247 -1.1944  0.4723  0.0047
82669SOL     OW65616  13.745  12.314   5.189  0.4815  0.0833  0.1943
82669SOL    HW165617  13.695  12.239   5.222 -1.8529  2.4045  2.3646
82669SOL    HW265618  13.687  12.356   5.126  1.0501  0.9504  0.2262
82670SOL     OW65619  10.611   6.444   2.281  0.3755 -0.3932  0.6715
82670SOL    HW165620  10.670   6.403   2.218 -1.4669 -1.3118 -0.5405
82670SOL    HW265621  10.564   6.371   2.321 -0.4263  0.3378  1.1054
82671SOL     OW65622   3.358   4.440  11.003  0.7008 -0.1842  0.2372
82671SOL    HW165623   3.365   4.387  11.083 -1.4513  1.4769  1.6450
82671SOL    HW265624   3.322   4.381  10.938 -0.4414 -0.8297  1.3998
82672SOL     OW65625   1.273  10.438   7.409 -0.0116 -0.0633  0.6466
82672SOL    HW165626   1.356  10.420   7.455  0.4369 -1.3808 -0.5949
82672SOL    HW265627   1.293  10.514   7.354  0.1443  0.0890  0.9095
82673SOL     OW65628  10.125   3.540   8.646  0.1126  0.3926 -0.1230
82673SOL    HW165629  10.049   3.583   8.685  1.0568  1.2144  0.8780
82673SOL    HW265630  10.160   3.604   8.584 -0.2129 -0.1367 -0.8762
82674SOL     OW65631   6.659  12.472  11.084 -0.2081 -0.2278  0.0207
82674SOL    HW165632   6.652  12.378  11.068  1.5657 -0.2075 -1.0690
82674SOL    HW265633   6.666  12.479  11.180 -0.6000 -1.1583  0.1293
82675SOL     OW65634  12.886   4.876  13.281  0.0530 -0.5596 -0.6551
82675SOL    HW165635  12.823   4.860  13.352  1.5733 -0.6269  0.7470
82675SOL    HW265636  12.857   4.819  13.210 -2.4423  0.6533 -0.7476
82676SOL     OW65637   6.242  10.320   9.293 -0.3174 -0.5875  0.0574
82676SOL    HW165638   6.207  10.239   9.330 -0.5753 -0.1116  0.8713
82676SOL    HW265639   6.328  10.295   9.258 -0.0727 -1.0516  0.9676
82677SOL     OW65640  11.981   6.263   5.512 -0.3408 -0.1090  0.6056
82677SOL    HW165641  11.996   6.348   5.555 -0.3167  0.0938  0.1991
82677SOL    HW265642  11.886   6.251   5.516 -0.5076  0.6577 -0.6848
82678SOL     OW65643   1.173   1.568   9.466  0.4452  0.1897 -0.2717
82678SOL    HW165644   1.265   1.588   9.478  0.8110 -1.8340  0.6457
82678SOL    HW265645   1.154   1.592   9.375  1.5815  1.5699 -0.1701
82679SOL     OW65646   6.755  13.758   0.014 -1.0706 -0.1540  0.4205
82679SOL    HW165647   6.756  13.689  -0.053 -1.2190 -1.0872  1.3430
82679SOL    HW265648   6.690  13.821  -0.017 -0.1008  0.1881 -1.0283
82680SOL     OW65649  13.274  10.048   1.934  0.1184  0.2607 -0.0274
82680SOL    HW165650  13.343  10.056   2.000  1.1809 -0.9470 -0.9318
82680SOL    HW265651  13.195  10.081   1.977  1.2287  1.6125  1.0625
82681SOL     OW65652   3.840   7.802   5.454  0.0347 -0.3523  0.1121
82681SOL    HW165653   3.828   7.893   5.481 -0.4565 -0.6307  0.8957
82681SOL    HW265654   3.931   7.783   5.475 -0.8983 -1.3397  4.3259
82682SOL     OW65655   1.958   3.984   1.221 -0.0283 -0.4501 -0.0945
82682SOL    HW165656   2.029   3.965   1.159 -0.1406  0.1780 -0.4260
82682SOL    HW265657   1.936   3.899   1.259  1.1003 -0.6161  0.2358
82683SOL     OW65658  13.171  13.015   6.106 -0.0409 -0.1076 -0.8060
82683SOL    HW165659  13.201  12.977   6.023 -0.8974 -1.4859 -0.5194
82683SOL    HW265660  13.096  13.070   6.081  0.1530  0.0575 -1.0259
82684SOL     OW65661   6.334   6.292   3.186 -0.0841  0.1825 -0.0197
82684SOL    HW165662   6.349   6.205   3.148  1.2377  0.9012 -1.2253
82684SOL    HW265663   6.342   6.352   3.112 -1.2893  1.3241  0.7403
82685SOL     OW65664  12.159   2.638   4.125 -0.2311  0.6049  0.0536
82685SOL    HW165665  12.106   2.703   4.079 -0.1637  0.7952  0.2418
82685SOL    HW265666  12.193   2.581   4.056 -2.3438 -0.7723  0.0713
82686SOL     OW65667  13.670  12.791   9.123 -0.3260  0.7551 -0.0128
82686SOL    HW165668  13.589  12.744   9.107 -0.9374  1.7647  0.0272
82686SOL    HW265669  13.738  12.737   9.082 -1.0649  0.1014 -0.3908
82687SOL     OW65670   3.775  12.980   9.524  0.1927  0.7323  0.6269
82687SOL    HW165671   3.826  13.051   9.484 -0.6584  1.3747  0.6579
82687SOL    HW265672   3.694  12.976   9.473  0.1492 -0.1054  0.7381
82688SOL     OW65673   2.741   2.308  12.900 -0.0113  0.3153 -0.4519
82688SOL    HW165674   2.710   2.372  12.963  0.5805  0.6100 -0.4570
82688SOL    HW265675   2.778   2.237  12.953  0.2831  0.4598 -0.4643
82689SOL     OW65676   2.241   7.673   7.798  0.2726 -0.2021 -0.2907
82689SOL    HW165677   2.215   7.658   7.707 -0.6244  0.8141 -0.2320
82689SOL    HW265678   2.277   7.589   7.827  0.8357 -0.4587 -1.6574
82690SOL     OW65679   3.296   4.342  13.669 -0.3221 -0.6911  0.0499
82690SOL    HW165680   3.288   4.435  13.689  0.6666 -0.7369  0.6941
82690SOL    HW265681   3.220   4.301  13.711 -0.8316 -0.1720 -0.3458
82691SOL     OW65682   8.853   6.562   0.596 -0.3613  0.0711 -0.5269
82691SOL    HW165683   8.925   6.625   0.595  0.8734 -1.2744  0.0919
82691SOL    HW265684   8.887   6.487   0.644 -2.5168 -0.2631  0.5870
82692SOL     OW65685  11.518   9.194   1.162  0.1047 -0.7818 -0.0892
82692SOL    HW165686  11.505   9.117   1.217  0.3643 -0.0840  1.0058
82692SOL    HW265687  11.475   9.173   1.079 -0.7722 -1.6673  0.5678
82693SOL     OW65688   5.462  11.397   6.372 -0.0286  0.7165  0.6155
82693SOL    HW165689   5.471  11.345   6.292  0.2444 -0.3250  1.3170
82693SOL    HW265690   5.427  11.481   6.341 -0.7377  0.0406 -0.5086
82694SOL     OW65691   6.074   0.693   6.325 -0.0283 -0.0533 -0.5937
82694SOL    HW165692   6.048   0.660   6.239  0.4538 -0.5341 -0.5616
82694SOL    HW265693   6.108   0.781   6.307  0.9240 -0.4975 -1.0373
82695SOL     OW65694  13.470  10.502   4.705 -0.0929  0.3028 -0.3427
82695SOL    HW165695  13.472  10.597   4.691  1.0001  0.0672 -2.1747
82695SOL    HW265696  13.561  10.474   4.691 -0.1854 -0.9055  1.2153
82696SOL     OW65697   1.249   3.633   0.920 -0.1300  0.0025  0.3025
82696SOL    HW165698   1.294   3.716   0.906 -0.5288 -0.1039 -1.8166
82696SOL    HW265699   1.190   3.650   0.994  0.3307  1.3664  0.3773
82697SOL     OW65700   0.661   9.450  13.549  0.1471  0.1205 -0.0729
82697SOL    HW165701   0.625   9.536  13.568 -0.4850 -0.0002 -0.6871
82697SOL    HW265702   0.687   9.455  13.456  1.0998 -0.0117  0.1723
82698SOL     OW65703   2.870   8.260  13.271 -0.9502  0.0497 -0.0974
82698SOL    HW165704   2.817   8.308  13.335 -2.2285 -1.5680  0.1275
82698SOL    HW265705   2.846   8.299  13.187 -0.7663  0.8528  0.2128
82699SOL     OW65706  13.259   1.193   9.121  0.2236  0.3716 -0.2387
82699SOL    HW165707  13.329   1.128   9.133  0.1762  0.3759  0.0647
82699SOL    HW265708  13.227   1.178   9.032 -0.8170 -1.0220  0.3464
82700SOL     OW65709   8.512   6.996   6.867 -0.0220  0.2560  0.6787
82700SOL    HW165710   8.425   7.017   6.834 -0.2063 -1.0771  0.2597
82700SOL    HW265711   8.570   7.008   6.792 -0.0071  0.0852  0.6626
82701SOL     OW65712  12.254   6.504  12.775 -0.7135  0.2870  0.6605
82701SOL    HW165713  12.161   6.520  12.758 -1.3074 -1.0642  2.3836
82701SOL    HW265714  12.297   6.587  12.754 -2.1638  0.6657 -1.0052
82702SOL     OW65715   0.283  12.562   0.805  0.1584  0.3070  0.3687
82702SOL    HW165716   0.288  12.511   0.724  0.1505  1.2579 -0.2461
82702SOL    HW265717   0.191  12.587   0.812 -0.3681 -1.7058  1.9380
82703SOL     OW65718   4.576   8.396   7.721 -0.0400 -0.3649  0.1743
82703SOL    HW165719   4.613   8.324   7.772 -0.6730 -0.8759 -0.0679
82703SOL    HW265720   4.498   8.358   7.680 -1.5761  1.0194  1.6776
82704SOL     OW65721   5.396   8.233   0.396  0.3978 -0.3651 -0.0341
82704SOL    HW165722   5.300   8.230   0.391 -0.1798  1.8067  4.7060
82704SOL    HW265723   5.422   8.142   0.413 -0.9592 -0.7814 -0.0901
82705SOL     OW65724   1.926   8.635   1.308 -0.2022  0.8917  0.2162
82705SOL    HW165725   1.913   8.568   1.240 -2.6832  1.7465 -0.2517
82705SOL    HW265726   1.905   8.717   1.264  0.5266  1.7339  1.3963
82706SOL     OW65727  12.229  10.188  10.129 -0.2271 -0.5721 -0.1735
82706SOL    HW165728  12.174  10.129  10.076 -0.6837  1.0311 -1.5760
82706SOL    HW265729  12.170  10.259  10.154  1.1853  1.3296 -1.9250
82707SOL     OW65730  10.223  11.537  10.650 -0.1950  0.4857  0.2505
82707SOL    HW165731  10.249  11.529  10.742  2.9416 -1.4678 -0.6144
82707SOL    HW265732  10.288  11.597  10.613  0.0149 -0.5171 -1.0790
82708SOL     OW65733   7.804  11.677   2.144 -0.0572  0.2110 -0.2255
82708SOL    HW165734   7.794  11.690   2.050 -0.2661 -0.3575 -0.2857
82708SOL    HW265735   7.863  11.747   2.172 -0.7517  0.9692 -0.6096
82709SOL     OW65736   8.274   1.321   4.581 -1.0511 -0.5019 -0.3207
82709SOL    HW165737   8.332   1.246   4.598 -0.4453 -0.0516 -0.3669
82709SOL    HW265738   8.188   1.291   4.610 -0.9257 -1.4120 -0.8244
82710SOL     OW65739   3.182   0.484   2.731 -0.2133  0.0379 -0.1650
82710SOL    HW165740   3.162   0.539   2.656  0.6436 -2.3867 -2.3339
82710SOL    HW265741   3.278   0.487   2.738  0.0159 -2.2799 -1.3586
82711SOL     OW65742   2.705   7.515   1.499  0.3501  0.0500  0.1066
82711SOL    HW165743   2.771   7.568   1.453  0.0726  0.6632  0.3970
82711SOL    HW265744   2.756   7.448   1.544  0.7982  0.6105  0.4461
82712SOL     OW65745   5.414  12.480   6.070 -0.0089  0.1566  0.1180
82712SOL    HW165746   5.418  12.559   6.123 -0.2851  0.8006 -0.7952
82712SOL    HW265747   5.476  12.419   6.112  0.7882  1.1245  0.3818
82713SOL     OW65748  11.267   2.725   4.042  0.4726 -0.0750 -0.5977
82713SOL    HW165749  11.303   2.649   4.089 -0.9475 -0.5607 -0.2241
82713SOL    HW265750  11.270   2.796   4.105 -2.5916 -1.0182  0.8410
82714SOL     OW65751   7.315   1.274   0.014  0.5443  0.0553  0.2378
82714SOL    HW165752   7.363   1.233  -0.058 -0.3156  0.0484 -0.3342
82714SOL    HW265753   7.235   1.309  -0.025 -0.0699 -0.1782  1.2304
82715SOL     OW65754   2.188   0.018  13.478 -0.1727 -0.0067  0.0518
82715SOL    HW165755   2.267   0.054  13.439 -0.7358 -0.1195 -1.2527
82715SOL    HW265756   2.187  -0.074  13.452 -1.1762  0.2022 -0.7695
82716SOL     OW65757   3.653   8.833   7.009  0.5175 -0.4737  0.2065
82716SOL    HW165758   3.628   8.869   7.094 -0.3053  1.3419 -0.7490
82716SOL    HW265759   3.582   8.772   6.987  0.0411  0.0528  0.2493
82717SOL     OW65760  13.949  10.795   9.291 -0.1442 -0.1437  0.5326
82717SOL    HW165761  14.030  10.821   9.336 -1.0208  2.2100  0.8837
82717SOL    HW265762  13.930  10.868   9.233 -3.3722  0.6485  2.3638
82718SOL     OW65763   4.760   3.652  12.798 -0.8713 -0.0061  0.0282
82718SOL    HW165764   4.767   3.746  12.782  2.1679 -0.3001 -0.9382
82718SOL    HW265765   4.764   3.644  12.893  0.1000  0.7896  0.0741
82719SOL     OW65766   2.346   6.432  10.146 -0.3234  0.1354  0.5821
82719SOL    HW165767   2.409   6.492  10.185 -0.1678  0.8141 -0.6757
82719SOL    HW265768   2.378   6.345  10.170  2.4178  0.3365 -1.8283
82720SOL     OW65769   1.075   3.169   9.275  0.0823  0.4295  0.3451
82720SOL    HW165770   1.159   3.196   9.239  0.6799 -2.2282 -0.4106
82720SOL    HW265771   1.011   3.227   9.233  1.1887  0.1718 -1.8156
82721SOL     OW65772   0.048   7.367  11.234  0.2041 -0.1536  0.3809
82721SOL    HW165773   0.042   7.278  11.268 -0.2793  0.2069  1.3037
82721SOL    HW265774   0.113   7.363  11.164 -0.7923 -1.4973 -0.5114
82722SOL     OW65775   0.706   1.443   3.684 -0.5395 -0.3147  0.0154
82722SOL    HW165776   0.771   1.428   3.752  0.0158  3.0844  0.4006
82722SOL    HW265777   0.655   1.517   3.715 -2.3754 -0.6908 -1.8658
82723SOL     OW65778   2.187   6.598   6.125 -0.4362 -0.0384 -0.0520
82723SOL    HW165779   2.197   6.622   6.032  0.8214  1.6317  0.4661
82723SOL    HW265780   2.120   6.657   6.158  0.5540  0.7777  0.5501
82724SOL     OW65781   4.243  11.827   4.181 -0.1211 -0.4538  0.3484
82724SOL    HW165782   4.313  11.775   4.221 -0.2312  0.0374  1.2173
82724SOL    HW265783   4.187  11.852   4.255 -1.6294 -1.4311 -0.3994
82725SOL     OW65784  13.775   3.927  12.291  0.0000  0.4365 -0.2263
82725SOL    HW165785  13.765   3.839  12.255 -0.8754  0.4888 -0.1169
82725SOL    HW265786  13.767   3.915  12.386  0.6001  0.5389 -0.1585
82726SOL     OW65787   4.577   7.262  11.717  0.4935 -0.4230  0.2364
82726SOL    HW165788   4.633   7.294  11.647 -0.1756 -1.4404 -0.7966
82726SOL    HW265789   4.521   7.337  11.738 -0.3658 -0.5271 -1.4452
82727SOL     OW65790   0.251   4.867   5.194 -0.1371  0.2169  0.5689
82727SOL    HW165791   0.283   4.835   5.110 -0.1301  0.7665  0.3528
82727SOL    HW265792   0.166   4.906   5.174 -0.8639 -1.0436  1.1041
82728SOL     OW65793  12.085   7.967  10.766 -0.4287  0.0753  0.2924
82728SOL    HW165794  12.059   7.911  10.839 -0.1014 -0.0528  0.3153
82728SOL    HW265795  12.028   7.939  10.694 -3.7691  3.0360  1.5027
82729SOL     OW65796  12.126   4.240   0.782 -0.2033 -0.3413 -0.8925
82729SOL    HW165797  12.198   4.187   0.815  0.5379  1.2583  0.1727
82729SOL    HW265798  12.163   4.288   0.707 -0.1412  0.4441 -0.3749
82730SOL     OW65799   1.199   0.798  11.421  0.5639  0.5310 -0.4819
82730SOL    HW165800   1.159   0.713  11.403  1.5873  0.6769 -4.5309
82730SOL    HW265801   1.218   0.834  11.334 -0.3892  5.2464  0.9883
82731SOL     OW65802   7.008  12.289   9.715 -0.6030 -0.2564 -0.7258
82731SOL    HW165803   6.927  12.244   9.692 -0.3815 -1.1006  0.0937
82731SOL    HW265804   7.071  12.219   9.731  0.8134  0.3572 -2.9856
82732SOL     OW65805  11.196   4.515  11.641  0.5414 -0.0508 -0.3787
82732SOL    HW165806  11.157   4.589  11.686 -1.8283 -0.7693 -1.1253
82732SOL    HW265807  11.288   4.540  11.629  0.8644  0.9305  3.1144
82733SOL     OW65808   6.020   6.355   4.053 -0.1422  0.5354  0.3961
82733SOL    HW165809   5.949   6.298   4.083  0.2289 -0.9134 -1.2594
82733SOL    HW265810   6.073   6.298   3.996  0.5488  2.4144 -0.9335
82734SOL     OW65811  14.025   3.180   9.614  0.3595  0.1091 -0.0270
82734SOL    HW165812  14.001   3.126   9.689 -0.1115 -0.5528 -0.6496
82734SOL    HW265813  13.974   3.260   9.625  1.0181  0.4332  0.8677
82735SOL     OW65814   4.009  11.490  10.876 -0.2280 -0.4675  0.1572
82735SOL    HW165815   4.075  11.446  10.930  1.0613  0.3525 -0.6811
82735SOL    HW265816   3.975  11.422  10.819 -2.1779 -1.5382  2.4056
82736SOL     OW65817   3.076   8.666   5.531  0.4161  0.5442 -0.0713
82736SOL    HW165818   3.063   8.588   5.477 -1.7715 -0.2387  1.3943
82736SOL    HW265819   3.114   8.632   5.612  0.2423  1.1119  0.2533
82737SOL     OW65820  10.847  10.764   5.466  0.6941  0.1308  0.2065
82737SOL    HW165821  10.857  10.740   5.373 -0.5810 -1.3739  0.4136
82737SOL    HW265822  10.833  10.680   5.510 -1.1575  1.0142  1.4139
82738SOL     OW65823   3.359  13.255  10.045 -0.0327 -0.1506  0.3561
82738SOL    HW165824   3.294  13.187  10.064  1.0140 -0.7410  2.0006
82738SOL    HW265825   3.432  13.208  10.005  0.8371 -0.0786  1.8118
82739SOL     OW65826  11.794  12.004  11.500  0.2256  0.1863 -0.2710
82739SOL    HW165827  11.743  11.966  11.572  0.5295 -0.3649 -0.3425
82739SOL    HW265828  11.731  12.059  11.452 -0.1749 -0.0946 -0.0700
82740SOL     OW65829   9.644   2.194  12.294 -0.3122 -0.1301 -0.4556
82740SOL    HW165830   9.619   2.119  12.348  1.1454 -1.6036 -1.7213
82740SOL    HW265831   9.723   2.228  12.336 -0.5841  0.2746 -0.2696
82741SOL     OW65832  13.993  13.667   3.109  0.3770 -0.4119 -0.5403
82741SOL    HW165833  14.035  13.685   3.193  0.9574  1.0281 -1.0966
82741SOL    HW265834  13.909  13.628   3.132  0.9513 -0.9770  0.6703
82742SOL     OW65835  13.370   1.286   1.255  0.0226  0.4168  0.0603
82742SOL    HW165836  13.398   1.201   1.224 -0.0555  0.4828 -0.1892
82742SOL    HW265837  13.277   1.290   1.234 -0.2691  0.0543  1.1985
82743SOL     OW65838   7.429   5.362   0.675  0.6545  0.6980  0.3289
82743SOL    HW165839   7.347   5.397   0.709  0.4958  0.7598 -0.1160
82743SOL    HW265840   7.439   5.402   0.589 -0.7959 -2.1323 -1.3174
82744SOL     OW65841   4.718   2.962   5.196 -0.1377 -0.4575  0.3100
82744SOL    HW165842   4.652   3.030   5.208  0.4946  0.1426  0.4711
82744SOL    HW265843   4.782   3.001   5.136  2.3278  0.7094  3.4092
82745SOL     OW65844   3.165  13.489   4.002  0.1250  0.4532  0.6748
82745SOL    HW165845   3.183  13.578   4.033 -0.1970  1.2176 -1.2134
82745SOL    HW265846   3.069  13.483   4.000  0.0415  1.3576 -2.4870
82746SOL     OW65847   5.925   7.925   5.251  0.2302 -0.8330  0.0562
82746SOL    HW165848   5.889   7.941   5.338 -0.9647  2.6881 -0.9324
82746SOL    HW265849   6.013   7.963   5.253 -0.2987  0.4942 -0.5778
82747SOL     OW65850   4.204   2.645   0.871  0.0421  0.0991 -0.1844
82747SOL    HW165851   4.284   2.679   0.831  0.6295  1.2064  1.8287
82747SOL    HW265852   4.214   2.663   0.964 -2.1828 -0.5268  0.2269
82748SOL     OW65853  13.644  12.287  12.445  0.0502  0.2935  0.1872
82748SOL    HW165854  13.739  12.294  12.461  0.3697 -0.8871 -1.0970
82748SOL    HW265855  13.613  12.228  12.514  0.2196  0.7584  0.6709
82749SOL     OW65856  10.875   6.507   2.652  0.5505 -0.1772  0.0724
82749SOL    HW165857  10.902   6.599   2.650  1.0573 -0.3110  0.5922
82749SOL    HW265858  10.784   6.508   2.620 -0.1433  0.7547  1.9101
82750SOL     OW65859  11.200   1.540   6.408  0.0242  0.1415 -0.0387
82750SOL    HW165860  11.227   1.475   6.342 -0.1112 -0.9393  0.9358
82750SOL    HW265861  11.111   1.515   6.432  0.8441 -0.9194  2.1952
82751SOL     OW65862   0.089   4.267  10.262 -0.8787  0.4936  0.0439
82751SOL    HW165863   0.034   4.328  10.312 -0.4798  0.8652  0.0397
82751SOL    HW265864   0.172   4.314  10.250 -0.2218 -0.4108  0.8490
82752SOL     OW65865  13.742   8.792  10.350 -0.6129  0.4563 -0.3302
82752SOL    HW165866  13.678   8.775  10.281  1.0143 -0.9844 -1.5855
82752SOL    HW265867  13.825   8.759  10.315  0.5692  0.9572  1.7774
82753SOL     OW65868   6.946   2.890  11.964  0.0200 -0.3428  0.4313
82753SOL    HW165869   7.023   2.924  11.919 -0.4543  0.8019  0.4313
82753SOL    HW265870   6.939   2.799  11.936  0.2797  0.0710 -1.0689
82754SOL     OW65871  11.439   7.360  10.377 -0.0251 -0.0033 -0.0794
82754SOL    HW165872  11.410   7.275  10.411  1.0321 -0.5359 -0.4530
82754SOL    HW265873  11.367   7.390  10.322 -0.2096 -0.9001 -0.3423
82755SOL     OW65874   5.057  10.770   9.166 -0.3430  0.4033  0.0818
82755SOL    HW165875   5.125  10.797   9.228 -0.3289  1.9413 -0.5625
82755SOL    HW265876   4.980  10.752   9.221 -0.4825  2.2234  0.5394
82756SOL     OW65877   8.694   7.817   9.366  0.0795  0.9488 -0.0143
82756SOL    HW165878   8.754   7.886   9.396 -0.8037  2.2928 -1.1528
82756SOL    HW265879   8.611   7.836   9.411  0.2513 -0.4178  0.9441
82757SOL     OW65880   3.722   2.946   0.143 -0.3943  0.2717  0.0992
82757SOL    HW165881   3.672   2.934   0.224  0.6067 -1.9163  0.4693
82757SOL    HW265882   3.728   3.041   0.132 -0.4919  0.6403  2.6455
82758SOL     OW65883  11.310   9.622   7.694 -0.5884  0.6983 -0.7552
82758SOL    HW165884  11.354   9.554   7.643  1.1606 -1.0705  2.7735
82758SOL    HW265885  11.240   9.575   7.741 -0.4595  1.6473  0.4332
82759SOL     OW65886   6.789   3.129  12.983 -0.2765 -0.5535  0.4154
82759SOL    HW165887   6.843   3.152  12.908 -1.3304 -1.0238 -0.5334
82759SOL    HW265888   6.840   3.063  13.031  0.5395 -0.0234  0.2856
82760SOL     OW65889   1.323   4.903   2.993 -0.4705  0.0280  0.1477
82760SOL    HW165890   1.379   4.899   3.071 -0.2090  1.3023  0.0453
82760SOL    HW265891   1.373   4.857   2.926  0.0144  0.2848  0.3245
82761SOL     OW65892  13.016   3.545   1.891 -0.2444 -0.9929  0.0887
82761SOL    HW165893  12.999   3.571   1.982 -1.4656  0.1669 -0.4404
82761SOL    HW265894  13.049   3.625   1.849  1.1872 -1.7479 -0.3018
82762SOL     OW65895   0.310   6.523   7.512  0.4680  0.7459 -0.4692
82762SOL    HW165896   0.291   6.584   7.583  0.1205 -0.5954  0.6207
82762SOL    HW265897   0.227   6.480   7.493  1.1649 -1.1551  0.5065
82763SOL     OW65898  11.797   5.465  11.748  0.1928  0.0265  0.5060
82763SOL    HW165899  11.778   5.408  11.673 -3.8128  2.2234 -0.4003
82763SOL    HW265900  11.853   5.534  11.712  0.2932 -0.2240  0.1755
82764SOL     OW65901   4.866   3.480  12.257  0.0982  0.3372  0.0600
82764SOL    HW165902   4.829   3.499  12.343  1.5421 -0.2230  0.8459
82764SOL    HW265903   4.928   3.408  12.273 -0.8423 -0.9553 -1.7447
82765SOL     OW65904  13.399   1.098   7.697 -0.8389  0.0471 -0.1983
82765SOL    HW165905  13.400   1.128   7.606  2.0865 -1.3052 -0.7133
82765SOL    HW265906  13.431   1.173   7.747 -1.9743  0.6227 -0.2916
82766SOL     OW65907   6.890  12.086   4.091  0.1164 -0.5911 -0.5367
82766SOL    HW165908   6.824  12.035   4.138  2.5342 -2.2537  1.2793
82766SOL    HW265909   6.917  12.029   4.018 -0.0803 -0.1124 -0.9957
82767SOL     OW65910  11.859  10.034   3.881 -0.4001  0.4687  0.2320
82767SOL    HW165911  11.840  10.124   3.907  0.5031 -0.1945  3.7783
82767SOL    HW265912  11.814   9.981   3.946  0.5824 -1.5950 -0.6787
82768SOL     OW65913   4.715  12.052   9.233 -0.7451 -0.2239  0.0820
82768SOL    HW165914   4.696  12.006   9.315 -3.4701  0.5062 -0.0622
82768SOL    HW265915   4.677  11.997   9.165 -0.4428  0.2555 -0.4866
82769SOL     OW65916   9.944  13.268   0.549 -0.0090 -0.0628  0.7364
82769SOL    HW165917   9.923  13.360   0.534 -1.5104 -0.5419 -0.2482
82769SOL    HW265918  10.032  13.258   0.513 -0.7516  0.4758 -1.3365
82770SOL     OW65919   8.110   2.279  13.758  0.1207  0.1309  0.0872
82770SOL    HW165920   8.184   2.243  13.709 -0.5514  1.0684 -1.7527
82770SOL    HW265921   8.046   2.301  13.690 -1.4049  0.3395  1.5379
82771SOL     OW65922   6.724   0.321   1.078  0.1049  0.2515 -0.0589
82771SOL    HW165923   6.638   0.283   1.059  0.4915 -0.9106  0.4163
82771SOL    HW265924   6.759   0.266   1.148  0.7600  1.4253  0.5707
82772SOL     OW65925   9.577   4.066   1.439  0.1565 -0.1682 -0.2705
82772SOL    HW165926   9.579   3.983   1.393  3.4255 -0.3638  0.0295
82772SOL    HW265927   9.571   4.043   1.532  0.1920 -0.0125 -0.2283
82773SOL     OW65928   2.078  13.223   3.884  0.3361  0.1394  0.1801
82773SOL    HW165929   2.054  13.290   3.947  1.1032  0.8762 -0.2973
82773SOL    HW265930   2.051  13.141   3.925  1.6991  0.4983  1.9225
82774SOL     OW65931   8.095   4.212  13.349 -0.4183  0.5190  0.4910
82774SOL    HW165932   8.093   4.304  13.321  1.4244  0.8309  1.2461
82774SOL    HW265933   8.010   4.177  13.322 -1.0625  2.3715 -0.0428
82775SOL     OW65934  12.703  10.388   8.640 -0.2047 -0.4037 -0.4140
82775SOL    HW165935  12.614  10.420   8.631 -0.5390 -1.5029 -1.2885
82775SOL    HW265936  12.694  10.305   8.687  0.5110  0.1537  0.7512
82776SOL     OW65937   5.528   1.460   5.867  0.7228  0.1193  0.1211
82776SOL    HW165938   5.555   1.541   5.910  0.1006  0.0803  0.5938
82776SOL    HW265939   5.607   1.429   5.822  1.2841  0.3539  0.9352
82777SOL     OW65940   1.579   0.049   5.300 -0.4891 -0.0290  0.2210
82777SOL    HW165941   1.579   0.005   5.215 -1.3961 -0.7110  0.5542
82777SOL    HW265942   1.512   0.116   5.293  0.7603  1.2145 -0.2213
82778SOL     OW65943   1.501   2.273   5.733  0.3273  0.0605  0.1268
82778SOL    HW165944   1.456   2.239   5.810  0.4656  1.6627  0.9525
82778SOL    HW265945   1.472   2.216   5.661 -1.1596 -0.3952  1.0492
82779SOL     OW65946   4.095   8.756   2.702  0.0283 -0.1551  0.3523
82779SOL    HW165947   4.167   8.818   2.715  0.2731 -0.0015 -1.4545
82779SOL    HW265948   4.124   8.700   2.629 -2.1177  0.6732 -1.2459
82780SOL     OW65949   3.713   4.634  12.299  0.3815  0.5484  0.1994
82780SOL    HW165950   3.636   4.592  12.337  0.2867  1.1856  0.7380
82780SOL    HW265951   3.683   4.722  12.275  0.9525  0.8210  0.4660
82781SOL     OW65952   4.304   4.992  10.584  0.1265  0.6413 -0.1270
82781SOL    HW165953   4.374   4.991  10.650 -2.3535  0.2821  2.7033
82781SOL    HW265954   4.272   5.082  10.584  0.3274  0.7296 -1.1753
82782SOL     OW65955  10.714   8.465  12.660  0.0745  0.2529 -0.0942
82782SOL    HW165956  10.639   8.412  12.687  0.5071 -1.6478 -2.2959
82782SOL    HW265957  10.727   8.525  12.732 -1.9035 -1.1237  1.5542
82783SOL     OW65958  10.369   3.358  13.379 -0.3455  0.1310 -0.3547
82783SOL    HW165959  10.337   3.318  13.299 -0.0161 -1.0000  0.0610
82783SOL    HW265960  10.436   3.298  13.411 -0.7834  0.3249  1.0070
82784SOL     OW65961   0.250  11.218  13.589 -0.5174 -0.2087  0.3294
82784SOL    HW165962   0.190  11.271  13.536 -1.0161  0.3797  1.4516
82784SOL    HW265963   0.330  11.270  13.593 -0.5783 -0.1197  0.3965
82785SOL     OW65964   5.860   1.086   4.956  0.2361 -0.1516 -0.1090
82785SOL    HW165965   5.834   1.144   5.028  2.7962  1.5022 -0.3991
82785SOL    HW265966   5.843   1.138   4.877 -0.2707 -1.0249 -0.5920
82786SOL     OW65967   4.300   2.734   2.474 -0.2984  0.7288 -0.0480
82786SOL    HW165968   4.347   2.814   2.495 -1.3715  1.3586  0.0389
82786SOL    HW265969   4.270   2.746   2.384 -1.1038  0.7644  0.2129
82787SOL     OW65970  12.127   4.129   9.194  0.0353 -0.5762  0.6902
82787SOL    HW165971  12.031   4.132   9.194  0.0433  1.7452 -0.6783
82787SOL    HW265972  12.152   4.128   9.102  1.3382  0.0111  1.0080
82788SOL     OW65973  11.142   1.168   9.032 -0.0280  0.4403  0.4463
82788SOL    HW165974  11.230   1.140   9.055  0.4397  0.8997 -0.6838
82788SOL    HW265975  11.132   1.142   8.940 -0.8533  0.9010  0.3962
82789SOL     OW65976   0.167  10.332  13.726 -0.0327  0.2073  0.8290
82789SOL    HW165977   0.086  10.382  13.733  1.0725  2.4188 -0.9543
82789SOL    HW265978   0.140  10.240  13.734 -2.6933  0.8747  0.2265
82790SOL     OW65979   2.836   1.125   9.615 -0.8837  0.3578  0.4204
82790SOL    HW165980   2.752   1.118   9.570  0.2401  1.5263 -2.0619
82790SOL    HW265981   2.872   1.208   9.584  1.8932 -0.8683  0.0908
82791SOL     OW65982  13.949  13.181   1.349  0.1081 -0.6412  0.0776
82791SOL    HW165983  13.881  13.182   1.417 -0.1977  0.8402 -0.2242
82791SOL    HW265984  14.021  13.131   1.389  0.3586  1.0599  1.9467
82792SOL     OW65985   5.374   3.969   3.782 -0.1248  0.1844  0.4290
82792SOL    HW165986   5.356   4.061   3.764  0.5614 -0.0243 -1.5979
82792SOL    HW265987   5.315   3.922   3.723  0.2354 -0.6558  0.7303
82793SOL     OW65988   5.524   2.287   3.770 -0.2878 -0.1482 -0.2155
82793SOL    HW165989   5.603   2.267   3.719 -0.4512 -0.5810 -0.2997
82793SOL    HW265990   5.503   2.206   3.816 -1.1955 -0.3081 -0.8826
82794SOL     OW65991   1.301   4.967  13.809 -0.0276  0.1784  0.2638
82794SOL    HW165992   1.270   4.891  13.858 -0.3368 -0.7022 -1.2241
82794SOL    HW265993   1.222   5.017  13.790 -0.0571 -0.0554 -0.2466
82795SOL     OW65994   9.317   5.379   1.200 -0.3099  0.2816  0.0902
82795SOL    HW165995   9.402   5.398   1.160  0.6488 -2.1792  0.7974
82795SOL    HW265996   9.259   5.363   1.126  0.3094  0.1497 -0.3781
82796SOL     OW65997   1.703   9.227  10.282  0.4425 -0.5157 -0.2408
82796SOL    HW165998   1.785   9.275  10.289 -0.4334  1.0272  0.1030
82796SOL    HW265999   1.723   9.139  10.314  1.5642  0.3190  1.5222
82797SOL     OW66000   0.397  10.737   9.016 -0.1095 -0.1663 -0.0147
82797SOL    HW166001   0.448  10.770   8.942 -0.1034 -0.7436 -0.2716
82797SOL    HW266002   0.420  10.796   9.089  3.1347 -2.0422  0.6735
82798SOL     OW66003   7.050  11.328   2.607  0.5984 -0.0722 -0.6200
82798SOL    HW166004   7.067  11.346   2.700  0.1071 -1.3901 -0.2412
82798SOL    HW266005   7.131  11.353   2.563  0.6081  1.1933  0.0642
82799SOL     OW66006   2.417   5.478   8.966  0.2592  0.4265 -0.1259
82799SOL    HW166007   2.463   5.560   8.945  0.3787 -0.0709 -1.9180
82799SOL    HW266008   2.335   5.506   9.007  0.3640  1.4391 -0.5831
82800SOL     OW66009  12.322   1.644   7.711 -0.0125 -0.1814 -0.1698
82800SOL    HW166010  12.304   1.568   7.766 -3.0878  0.7432  0.3199
82800SOL    HW266011  12.405   1.678   7.744  0.7716 -2.5167  0.4740
82801SOL     OW66012  10.141  12.433   8.300  0.3647 -0.4325 -0.4266
82801SOL    HW166013  10.196  12.430   8.222  2.8113 -1.1233  1.1928
82801SOL    HW266014  10.181  12.370   8.360 -1.8621 -0.4727  1.1266
82802SOL     OW66015  11.249  10.046   8.073  0.4694  0.0275 -0.3434
82802SOL    HW166016  11.296   9.978   8.023  4.8329  0.9451  1.9603
82802SOL    HW266017  11.237  10.117   8.010  1.8756 -0.4554 -1.2297
82803SOL     OW66018   9.569   1.644   1.578 -0.2282 -0.5930 -0.1925
82803SOL    HW166019   9.488   1.659   1.530  0.1169  0.6341 -0.4437
82803SOL    HW266020   9.629   1.712   1.546  1.2766 -2.1455 -0.8267
82804SOL     OW66021   5.514   0.717   5.417 -0.2561  0.5180  0.6063
82804SOL    HW166022   5.580   0.649   5.414 -1.8951 -1.1046 -0.3460
82804SOL    HW266023   5.512   0.754   5.329 -0.8714  0.2835  0.5147
82805SOL     OW66024  10.776   4.168   1.955 -0.6884 -0.0733  0.2854
82805SOL    HW166025  10.728   4.126   1.884  1.3676 -1.3291 -0.4439
82805SOL    HW266026  10.824   4.097   1.998  0.2232  1.0424  1.2064
82806SOL     OW66027   3.859   2.625  10.370 -0.3091 -0.2093 -0.1028
82806SOL    HW166028   3.878   2.701  10.315 -0.5678 -0.5000 -0.6114
82806SOL    HW266029   3.794   2.656  10.432 -1.3306 -0.3114 -1.0824
82807SOL     OW66030   1.438   7.700   3.243 -0.1603 -0.6691  0.6479
82807SOL    HW166031   1.416   7.691   3.150 -0.9118 -0.3962  0.7865
82807SOL    HW266032   1.487   7.782   3.248 -1.6370  0.2537  0.7137
82808SOL     OW66033  10.673   9.488   0.224 -0.0721 -0.1102  0.0801
82808SOL    HW166034  10.640   9.484   0.134  0.8570 -1.1164 -0.2467
82808SOL    HW266035  10.768   9.480   0.214 -0.0113 -1.1216  1.1948
82809SOL     OW66036   0.019   6.019   1.378  0.1659  0.6412  0.5870
82809SOL    HW166037  -0.046   6.088   1.371 -0.8967 -0.3512  0.3658
82809SOL    HW266038   0.046   6.002   1.287 -1.9421 -1.3827  0.2581
82810SOL     OW66039   0.864   4.942   9.105 -0.7351 -0.0239  0.1496
82810SOL    HW166040   0.904   4.879   9.045  0.1324 -0.5271  1.2181
82810SOL    HW266041   0.934   5.005   9.123 -0.9338  0.0365  0.7372
82811SOL     OW66042   5.159  13.453  12.807 -0.6636 -0.1009 -0.3854
82811SOL    HW166043   5.158  13.548  12.818  0.1846 -0.1238 -0.0484
82811SOL    HW266044   5.076  13.424  12.844 -0.6155  0.4378  0.1635
82812SOL     OW66045   9.971  12.719   0.422 -0.0301  0.4490 -0.5863
82812SOL    HW166046   9.928  12.698   0.338 -1.7130 -2.8318  0.9230
82812SOL    HW266047   9.900  12.751   0.477  0.1867 -1.2912  0.7660
82813SOL     OW66048   9.854   9.034   2.813 -0.1028 -0.3057  0.4017
82813SOL    HW166049   9.795   8.979   2.761 -0.0660 -1.4037  1.4759
82813SOL    HW266050   9.845   9.001   2.902  0.8816  0.6221  0.8687
82814SOL     OW66051   1.498  13.198   8.864  0.0499 -0.2406 -0.6057
82814SOL    HW166052   1.590  13.197   8.837 -0.0222 -3.0065 -1.0749
82814SOL    HW266053   1.498  13.158   8.951 -0.4851  2.3592  0.7030
82815SOL     OW66054  13.097   6.406   2.943 -0.3096 -0.0126 -0.0991
82815SOL    HW166055  13.084   6.493   2.906  1.4670  0.6094  0.6671
82815SOL    HW266056  13.139   6.421   3.028 -0.0712 -1.6092  0.1047
82816SOL     OW66057  10.936   3.718   9.404  0.2595 -0.1803 -0.2369
82816SOL    HW166058  10.872   3.688   9.469  0.6354 -1.6361 -0.4905
82816SOL    HW266059  11.017   3.672   9.427  0.6719  0.0943 -1.0980
82817SOL     OW66060   1.447   0.872  10.216  0.3184 -0.0168 -0.2865
82817SOL    HW166061   1.491   0.789  10.200  1.6899  0.5018  0.5434
82817SOL    HW266062   1.369   0.849  10.266  0.6769 -0.8218 -0.0806
82818SOL     OW66063   2.727   3.423   0.106 -0.1792 -0.2730  0.4036
82818SOL    HW166064   2.653   3.416   0.046 -0.4211  0.1158  0.6532
82818SOL    HW266065   2.696   3.380   0.186 -0.0131 -0.4051  0.3969
82819SOL     OW66066   0.661   7.889   6.682  0.2708 -0.1290 -0.7211
82819SOL    HW166067   0.757   7.886   6.691  0.0764 -1.8613  1.5724
82819SOL    HW266068   0.643   7.836   6.605  1.1142 -0.5337 -0.6578
82820SOL     OW66069   7.279   1.608   5.503  0.0087 -0.3077  0.1585
82820SOL    HW166070   7.331   1.550   5.559  0.2125 -1.9225 -1.5964
82820SOL    HW266071   7.331   1.616   5.423 -0.7028  1.1762 -0.1786
82821SOL     OW66072   9.416   1.803   0.581 -0.1821  0.2335  0.0652
82821SOL    HW166073   9.366   1.771   0.506 -0.9061 -0.5824  0.8724
82821SOL    HW266074   9.493   1.746   0.583  0.3360  0.8989 -0.6376
82822SOL     OW66075   2.394   9.748   8.757  0.1921 -0.4594  0.3255
82822SOL    HW166076   2.352   9.732   8.673  0.9224 -1.9817  0.2123
82822SOL    HW266077   2.351   9.686   8.817 -0.1814  0.4688  1.0344
82823SOL     OW66078  10.764  13.498   8.526 -0.3150  0.1817  0.1834
82823SOL    HW166079  10.818  13.419   8.526  0.3038  0.5881 -0.5291
82823SOL    HW266080  10.687  13.475   8.577 -0.1659 -0.8980 -0.0718
82824SOL     OW66081   1.826   4.736   4.577 -0.4896  0.4214 -0.3010
82824SOL    HW166082   1.763   4.715   4.507 -0.0743 -1.1993 -0.2440
82824SOL    HW266083   1.897   4.673   4.564 -0.0282  0.6184  1.1142
82825SOL     OW66084   9.816   3.773  13.119 -0.4121 -0.7093 -0.2097
82825SOL    HW166085   9.871   3.778  13.198 -0.2754 -2.1142 -0.1947
82825SOL    HW266086   9.726   3.772  13.152 -0.3941 -0.3730 -0.1376
82826SOL     OW66087   3.706  11.099   1.956  0.1678 -0.0055 -0.4257
82826SOL    HW166088   3.730  11.008   1.971  0.5019  0.1420 -0.0448
82826SOL    HW266089   3.620  11.109   1.998 -0.6741 -0.5763 -1.9314
82827SOL     OW66090  13.347   5.356  11.593  0.1493 -0.2441 -0.0664
82827SOL    HW166091  13.291   5.401  11.530 -1.6294 -2.5731 -0.2722
82827SOL    HW266092  13.420   5.323  11.541 -0.3495 -0.5504 -0.5896
82828SOL     OW66093   6.894   6.235  13.008 -0.4632 -0.5477  0.1211
82828SOL    HW166094   6.970   6.293  13.010  0.5641 -1.8586  0.8005
82828SOL    HW266095   6.820   6.292  12.987  0.7709  0.6803 -1.0811
82829SOL     OW66096   1.532   2.853   1.165 -0.3552 -0.2598  0.5929
82829SOL    HW166097   1.520   2.850   1.070  1.3765 -1.6348  0.3514
82829SOL    HW266098   1.562   2.764   1.188 -1.7773 -0.2922  2.6046
82830SOL     OW66099  10.875  11.768   7.976  0.1112 -0.1226 -0.0980
82830SOL    HW166100  10.889  11.774   8.071 -0.0422  0.3924 -0.1054
82830SOL    HW266101  10.945  11.710   7.945  0.3426 -0.0525  0.2874
82831SOL     OW66102   5.403   1.706   7.584  0.3154  0.7792 -0.5300
82831SOL    HW166103   5.482   1.707   7.637 -0.5423 -0.4205  0.8632
82831SOL    HW266104   5.355   1.629   7.615  0.2080 -0.6021 -3.7731
82832SOL     OW66105  10.786   4.819  13.217  0.6487 -0.3305 -0.1230
82832SOL    HW166106  10.858   4.854  13.271 -0.5653  0.0915  1.2818
82832SOL    HW266107  10.807   4.850  13.128  1.1798  1.4998  0.5781
82833SOL     OW66108   0.543  13.432   5.962 -0.1289 -0.2139 -0.0518
82833SOL    HW166109   0.622  13.447   5.911  0.2433 -1.0642  0.2534
82833SOL    HW266110   0.573  13.436   6.053 -0.3127 -1.1359  0.0566
82834SOL     OW66111   3.279   7.313  11.085  0.5145 -0.1757 -0.0493
82834SOL    HW166112   3.281   7.239  11.024  0.1644  0.7661 -1.2537
82834SOL    HW266113   3.353   7.298  11.144  1.4945 -0.6127 -1.3414
82835SOL     OW66114   6.695   1.401  11.690 -0.0533 -0.2958  0.2108
82835SOL    HW166115   6.651   1.317  11.706  1.7405 -1.3804 -0.2602
82835SOL    HW266116   6.788   1.378  11.685  0.3992  1.6085 -0.7614
82836SOL     OW66117   4.206   6.951   1.461 -0.0982  0.1240  0.7258
82836SOL    HW166118   4.193   7.024   1.400 -1.2869 -0.9277 -0.3460
82836SOL    HW266119   4.289   6.912   1.433 -0.8663 -0.6452 -0.6146
82837SOL     OW66120   9.845   1.768  10.077 -0.5186  0.2806 -0.0830
82837SOL    HW166121   9.884   1.693  10.032 -0.5732  0.2781 -0.1266
82837SOL    HW266122   9.769   1.731  10.122  1.3960 -0.4300  2.8461
82838SOL     OW66123   6.842  13.272   1.217  0.0223  0.3156 -0.4985
82838SOL    HW166124   6.755  13.309   1.207 -0.2783 -0.2111  0.1008
82838SOL    HW266125   6.877  13.268   1.128 -0.7184  0.1717 -0.7874
82839SOL     OW66126  10.748   1.661   8.861 -0.2700  0.1978  1.0882
82839SOL    HW166127  10.826   1.716   8.850 -0.2527 -0.1011 -0.4650
82839SOL    HW266128  10.684   1.698   8.801 -0.9878 -0.1811  1.6128
82840SOL     OW66129  11.248   2.925  12.836  0.1628  0.0411 -0.2907
82840SOL    HW166130  11.175   2.889  12.886  0.8296 -1.8372 -0.5836
82840SOL    HW266131  11.325   2.911  12.891  0.3907  1.5263 -0.2036
82841SOL     OW66132   0.629   4.301   6.535 -0.5202  0.4871  0.4293
82841SOL    HW166133   0.668   4.378   6.493 -0.0776 -0.6049 -1.2557
82841SOL    HW266134   0.670   4.226   6.491 -0.3954 -0.7485  2.5111
82842SOL     OW66135   4.571   2.766   5.917 -0.6387 -0.3065 -0.1537
82842SOL    HW166136   4.592   2.813   5.997 -0.3138 -0.5360 -0.1028
82842SOL    HW266137   4.557   2.676   5.946 -0.5252 -0.3885 -0.3551
82843SOL     OW66138   2.735  11.429   7.735 -0.2472  0.1440  0.2483
82843SOL    HW166139   2.651  11.472   7.750  0.5618  1.7532  0.4163
82843SOL    HW266140   2.753  11.444   7.642 -0.6252 -1.1509 -0.0551
82844SOL     OW66141  11.463   7.156   5.945  0.3136 -0.0490 -0.0669
82844SOL    HW166142  11.438   7.247   5.957  0.2028 -0.2335  1.1419
82844SOL    HW266143  11.444   7.138   5.852  1.0238  1.3499 -0.5126
82845SOL     OW66144   2.356   9.244   5.288  0.4059 -0.1725 -0.1031
82845SOL    HW166145   2.451   9.233   5.298  0.6380  0.2980 -1.6087
82845SOL    HW266146   2.338   9.222   5.197 -0.9699 -0.4053  0.2029
82846SOL     OW66147   8.595   3.689   0.382 -0.0941  0.2302  0.4796
82846SOL    HW166148   8.577   3.761   0.442  0.5087 -0.3728  1.4209
82846SOL    HW266149   8.609   3.613   0.439  2.1656 -0.0205 -0.3151
82847SOL     OW66150  13.576   8.204  11.383  0.3583 -0.7327  0.6740
82847SOL    HW166151  13.585   8.250  11.299  1.0156  0.3241  1.2948
82847SOL    HW266152  13.618   8.119  11.369  0.9377 -0.3553  0.0922
82848SOL     OW66153   2.237  11.887  10.968  0.3248  0.5630 -0.0726
82848SOL    HW166154   2.189  11.828  11.026 -0.1528  0.5118 -0.5053
82848SOL    HW266155   2.268  11.957  11.024 -0.4336  0.6976  0.1897
82849SOL     OW66156  11.802  12.643  12.589 -0.0857  0.0733 -0.0527
82849SOL    HW166157  11.802  12.564  12.642 -1.4444  0.3774  0.4353
82849SOL    HW266158  11.824  12.613  12.501  0.9255 -0.6127  0.4045
82850SOL     OW66159   4.546   3.203   6.415 -0.0383 -0.6689 -0.3992
82850SOL    HW166160   4.519   3.141   6.483  1.9427 -0.6949  0.4272
82850SOL    HW266161   4.529   3.156   6.333  0.7818 -2.0887  0.1914
82851SOL     OW66162   5.323   5.981   3.960  0.7007 -0.2372  0.3579
82851SOL    HW166163   5.292   5.966   4.049 -0.7685  0.0677 -0.0773
82851SOL    HW266164   5.251   5.951   3.904  2.2252 -1.9298 -0.7963
82852SOL     OW66165   2.454  13.701   8.032 -0.3928 -0.4315  0.1710
82852SOL    HW166166   2.544  13.716   8.061 -0.5792 -3.0282  2.4847
82852SOL    HW266167   2.462  13.647   7.954  0.0332 -0.0536 -0.0506
82853SOL     OW66168   6.498   2.337   9.340  0.2955  0.0585  0.6067
82853SOL    HW166169   6.494   2.330   9.244 -0.5362  1.1229  0.5475
82853SOL    HW266170   6.591   2.328   9.360  0.4140 -0.7798 -0.2453
82854SOL     OW66171   7.382  11.651  10.338 -0.2573 -0.1307  0.1246
82854SOL    HW166172   7.415  11.598  10.265  0.4103  0.3627  0.0588
82854SOL    HW266173   7.299  11.686  10.307  0.5766  1.0383 -0.8755
82855SOL     OW66174  10.391   0.817   0.667  0.5225  0.6966  0.8782
82855SOL    HW166175  10.467   0.856   0.624  0.4756 -0.7269 -0.5976
82855SOL    HW266176  10.319   0.834   0.606  0.9732 -3.9555 -1.3516
82856SOL     OW66177   9.352   9.936   0.241  0.1899 -0.0237  0.0955
82856SOL    HW166178   9.369   9.894   0.325 -0.2417  0.9032  0.6527
82856SOL    HW266179   9.439   9.945   0.201  0.3381 -1.0033  0.1637
82857SOL     OW66180   0.060   4.373   3.414  0.3570  0.0278 -0.8765
82857SOL    HW166181   0.051   4.379   3.319 -0.9617 -3.3640 -1.1096
82857SOL    HW266182  -0.027   4.396   3.448 -0.1069 -1.7576 -0.7703
82858SOL     OW66183   4.008   5.273   6.572 -0.2535  0.0442 -0.3511
82858SOL    HW166184   3.921   5.312   6.563 -0.3946  0.1509  1.2389
82858SOL    HW266185   3.994   5.180   6.553 -1.0288 -0.2051  1.2619
82859SOL     OW66186   4.853   8.223   2.931  0.4175  0.8134 -0.0424
82859SOL    HW166187   4.778   8.282   2.927 -0.3445  0.0297  1.4826
82859SOL    HW266188   4.926   8.274   2.897 -0.1471  2.7599  1.4673
82860SOL     OW66189  11.730   1.922   3.509  0.5801 -0.1600  0.1834
82860SOL    HW166190  11.797   1.986   3.536  0.5307 -0.5984  1.4047
82860SOL    HW266191  11.773   1.837   3.516 -0.2359 -0.5046  1.5704
82861SOL     OW66192  12.752   8.298   7.993  0.0949  0.4926 -0.0076
82861SOL    HW166193  12.712   8.259   7.915 -1.3049 -0.0629  0.9549
82861SOL    HW266194  12.740   8.233   8.062  1.6980  0.7939  0.5967
82862SOL     OW66195   1.391   4.817   1.298  0.4733  1.0166 -0.5823
82862SOL    HW166196   1.443   4.753   1.249 -0.1039  1.1827 -1.4508
82862SOL    HW266197   1.300   4.790   1.282  0.2286 -0.5223  2.5864
82863SOL     OW66198   1.135   0.536  12.437 -0.4078 -0.6798 -0.0518
82863SOL    HW166199   1.113   0.620  12.396 -1.6775 -1.2282 -0.5578
82863SOL    HW266200   1.122   0.551  12.530 -3.4724 -1.0279 -0.3187
82864SOL     OW66201   4.686   1.319   5.887 -0.3723  0.0825  0.3136
82864SOL    HW166202   4.617   1.306   5.951  0.1490  1.1574  1.1190
82864SOL    HW266203   4.651   1.281   5.806 -2.0569  0.9352  0.5967
82865SOL     OW66204   0.954  11.075   3.847  0.5035 -0.5554 -0.4324
82865SOL    HW166205   1.007  11.061   3.925  1.1838  0.3293 -0.7159
82865SOL    HW266206   1.015  11.112   3.783 -0.7585  2.2392 -0.1870
82866SOL     OW66207   8.083   3.302   5.700  0.4576 -0.2278 -0.4667
82866SOL    HW166208   8.140   3.370   5.663 -0.1156  0.0980 -0.7523
82866SOL    HW266209   7.996   3.342   5.704  0.1990 -0.7994 -0.2387
82867SOL     OW66210   4.211   7.771   5.204 -0.3624 -0.3284  0.2518
82867SOL    HW166211   4.277   7.706   5.229 -0.8540 -1.8561 -2.1031
82867SOL    HW266212   4.250   7.817   5.129 -1.5601 -0.6279 -0.5868
82868SOL     OW66213   5.008   4.302  13.803 -0.2520 -0.5652 -0.1472
82868SOL    HW166214   4.978   4.213  13.821 -1.5746 -0.0419  0.3432
82868SOL    HW266215   5.059   4.326  13.880 -0.9604 -0.4593  0.3021
82869SOL     OW66216   1.802  13.338   7.470 -0.0784  0.2457  0.5944
82869SOL    HW166217   1.715  13.377   7.479  0.2842  1.1812  0.1745
82869SOL    HW266218   1.829  13.362   7.382 -0.0882 -1.5030  0.0839
82870SOL     OW66219   8.725   3.319   6.828 -0.0958 -0.0110  0.1612
82870SOL    HW166220   8.763   3.338   6.913 -1.4352  0.3349  0.7124
82870SOL    HW266221   8.720   3.223   6.824  2.3192 -0.1824 -0.6475
82871SOL     OW66222   4.410   4.552   9.274  0.1422 -0.2794 -0.0690
82871SOL    HW166223   4.487   4.590   9.316  0.2736  1.3237 -1.6613
82871SOL    HW266224   4.338   4.611   9.298 -0.1500 -0.4723 -0.4576
82872SOL     OW66225   4.888  11.429   2.893 -0.0449  0.6013  0.2035
82872SOL    HW166226   4.822  11.391   2.835 -0.6385  1.9720 -0.0465
82872SOL    HW266227   4.953  11.466   2.834  1.6320 -1.7764  0.4362
82873SOL     OW66228   1.898  13.963   5.719  0.5759 -0.0102 -0.4071
82873SOL    HW166229   1.829  13.942   5.781  0.4022  1.0551 -0.2158
82873SOL    HW266230   1.912  13.882   5.670 -0.1147 -0.5184  0.2159
82874SOL     OW66231   2.904   9.291   5.397 -0.4974  0.2784  0.4467
82874SOL    HW166232   2.898   9.208   5.445 -1.0166 -0.8313 -1.4346
82874SOL    HW266233   2.994   9.320   5.411  0.8780 -2.4764 -1.6876
82875SOL     OW66234   0.030   2.487  11.931 -0.1518 -0.1271  0.0998
82875SOL    HW166235  -0.055   2.509  11.893  0.7234  1.3668 -1.1068
82875SOL    HW266236   0.051   2.561  11.988  0.1781 -0.6625  0.6904
82876SOL     OW66237   7.056  11.095  11.365  0.2954  0.5377 -0.4471
82876SOL    HW166238   6.972  11.136  11.343 -0.0459 -0.2970 -0.7206
82876SOL    HW266239   7.117  11.131  11.301 -0.1813 -0.0149 -1.2220
82877SOL     OW66240  12.733   8.204   9.864 -0.5502 -0.1040 -0.1949
82877SOL    HW166241  12.710   8.137   9.800 -1.0945  0.7241 -0.8803
82877SOL    HW266242  12.816   8.239   9.832  0.7549 -1.7368  1.2112
82878SOL     OW66243  10.318   4.492  13.797 -0.2701 -0.0245  1.1586
82878SOL    HW166244  10.351   4.458  13.880  2.3576  0.5241  0.4167
82878SOL    HW266245  10.266   4.569  13.822 -1.1538 -0.9681  2.3857
82879SOL     OW66246   1.864   8.136   2.878 -0.0865 -0.3244  0.2677
82879SOL    HW166247   1.848   8.136   2.973  0.0273 -0.4219  0.2865
82879SOL    HW266248   1.884   8.227   2.857 -2.2667  0.1641 -0.0200
82880SOL     OW66249   1.966   7.423   0.985  0.5161 -0.0357 -0.2381
82880SOL    HW166250   1.898   7.488   0.971  1.7253  1.0860 -1.1405
82880SOL    HW266251   2.033   7.468   1.036  0.3070 -1.3353  1.2613
82881SOL     OW66252   8.756   6.975   8.939  0.0010 -0.4601 -0.1337
82881SOL    HW166253   8.692   6.916   8.979 -2.4497  1.6027 -0.7088
82881SOL    HW266254   8.722   6.990   8.851 -1.0278  3.6348  0.7415
82882SOL     OW66255   1.132  10.869  11.321  0.4877 -0.1608  0.2668
82882SOL    HW166256   1.064  10.803  11.329  0.2643 -0.1367 -1.1700
82882SOL    HW266257   1.096  10.947  11.364 -0.4130 -0.1466 -0.4994
82883SOL     OW66258   5.126  11.754   3.660  0.1953 -0.7114  0.0910
82883SOL    HW166259   5.096  11.827   3.715 -0.3677 -1.2038  0.4474
82883SOL    HW266260   5.099  11.779   3.571 -0.2216 -0.5944  0.2442
82884SOL     OW66261   5.155   9.143  12.579  0.2276  0.2239  0.1860
82884SOL    HW166262   5.099   9.146  12.501 -1.9623  0.1056  1.6696
82884SOL    HW266263   5.094   9.134  12.652  2.3126 -2.8176  1.7739
82885SOL     OW66264   5.263  10.486   6.135  0.1442  0.1118 -0.6173
82885SOL    HW166265   5.212  10.432   6.196  0.3097 -0.3874 -0.9152
82885SOL    HW266266   5.198  10.524   6.077 -0.0314  0.7180 -0.0364
82886SOL     OW66267   0.579   2.473   0.198  0.3166 -0.5647  0.0666
82886SOL    HW166268   0.562   2.535   0.127 -0.9196  2.3465  2.7219
82886SOL    HW266269   0.667   2.496   0.229 -0.0613 -0.2892  0.9344
82887SOL     OW66270   4.666   0.475   9.307 -0.3224 -0.0962  0.3305
82887SOL    HW166271   4.596   0.416   9.278  1.5493 -2.6239  0.6275
82887SOL    HW266272   4.675   0.457   9.401  0.0305  1.0008  0.5212
82888SOL     OW66273  13.834   3.494   8.906 -0.3377  0.0345  0.5335
82888SOL    HW166274  13.859   3.501   8.813  0.0930  1.1039  0.7071
82888SOL    HW266275  13.865   3.576   8.944 -1.0435 -0.1426  1.5059
82889SOL     OW66276  11.397   3.108   1.197  0.1371  0.6659  0.3307
82889SOL    HW166277  11.372   3.020   1.169  0.4432  0.8651 -0.5999
82889SOL    HW266278  11.492   3.102   1.210  0.6773  1.5440 -2.5373
82890SOL     OW66279  12.804   3.221   8.349  0.0813 -0.4837  0.4499
82890SOL    HW166280  12.813   3.224   8.253 -0.7781 -0.3184  0.3631
82890SOL    HW266281  12.741   3.150   8.364 -0.3803  0.0055  0.8421
82891SOL     OW66282   0.469   6.472   5.858 -0.3607  0.1115  0.9752
82891SOL    HW166283   0.513   6.556   5.865 -0.2836  0.0371  1.4460
82891SOL    HW266284   0.536   6.408   5.881 -0.3081 -0.1112  0.2345
82892SOL     OW66285  11.062   0.723   4.720 -0.3580  0.1033  0.1276
82892SOL    HW166286  11.100   0.651   4.770 -0.1461 -0.1797 -0.4353
82892SOL    HW266287  11.045   0.791   4.785  2.0147  0.6236  0.2991
82893SOL     OW66288   5.501   8.861  10.699  0.1728 -0.3234  0.2530
82893SOL    HW166289   5.520   8.852  10.792  0.3961  1.8285  0.4733
82893SOL    HW266290   5.581   8.831  10.656 -0.2586 -2.1938  0.6726
82894SOL     OW66291   9.906   3.662   2.939 -0.5214  0.1191  0.6206
82894SOL    HW166292   9.849   3.738   2.952 -0.8285 -0.3873  2.6754
82894SOL    HW266293   9.871   3.618   2.862 -1.5384  1.0235  0.5466
82895SOL     OW66294  12.866   6.443   4.458 -0.3216  0.4835 -0.0510
82895SOL    HW166295  12.957   6.421   4.438 -0.2745  0.8038 -0.1860
82895SOL    HW266296  12.827   6.464   4.373 -0.1132  1.8994  0.1958
82896SOL     OW66297   9.976   1.730  11.831  0.0618 -0.2124  0.1073
82896SOL    HW166298  10.026   1.655  11.800 -1.0978 -0.5727 -0.9570
82896SOL    HW266299   9.970   1.788  11.755 -1.9728 -0.6399 -0.1083
82897SOL     OW66300  12.227   6.341   6.141 -0.4215  0.1028  0.4394
82897SOL    HW166301  12.212   6.421   6.192 -0.2919 -0.2614  1.0550
82897SOL    HW266302  12.311   6.308   6.172 -1.9091 -2.0150  2.5540
82898SOL     OW66303   7.494   8.612  12.512  0.1404 -0.3870  0.1368
82898SOL    HW166304   7.585   8.583  12.526  0.1996  0.5301  1.8904
82898SOL    HW266305   7.501   8.706  12.500 -0.6235 -0.2138  0.9493
82899SOL     OW66306   9.690   8.976  13.505  0.1049  0.3691 -0.0213
82899SOL    HW166307   9.718   9.028  13.430  0.4366 -0.3695 -0.4177
82899SOL    HW266308   9.679   9.040  13.576 -0.3184  1.0876 -0.7216
82900SOL     OW66309   0.698   0.254   7.905  0.5536 -0.5134  0.0576
82900SOL    HW166310   0.716   0.288   7.992 -0.1794 -0.1415  0.0676
82900SOL    HW266311   0.609   0.283   7.885  0.1008 -1.9476 -0.1538
82901SOL     OW66312   4.563   3.109   4.261 -0.5022 -0.1675  0.2752
82901SOL    HW166313   4.534   3.199   4.248 -0.9865 -0.4935 -0.9978
82901SOL    HW266314   4.650   3.105   4.221  0.5544  0.2889  2.3455
82902SOL     OW66315   4.763   8.934   7.615 -0.5044 -0.3763 -0.3098
82902SOL    HW166316   4.669   8.916   7.607 -0.6815  1.2435 -4.0370
82902SOL    HW266317   4.772   9.025   7.585  2.5492 -1.5868 -3.8093
82903SOL     OW66318   2.254  10.655   1.870 -0.0448  0.1615 -0.1086
82903SOL    HW166319   2.310  10.720   1.912  0.2244  0.0822 -0.3375
82903SOL    HW266320   2.232  10.693   1.785 -1.3220  0.7145  0.4470
82904SOL     OW66321   0.260   7.485   2.883 -0.1567  0.3747 -0.0668
82904SOL    HW166322   0.330   7.426   2.855 -0.0354  0.2144  0.5717
82904SOL    HW266323   0.196   7.482   2.811  0.7182  0.9241 -0.8995
82905SOL     OW66324  12.234  14.035   7.649  0.3794  0.1514 -0.0546
82905SOL    HW166325  12.252  14.117   7.602  0.8255  0.0171 -0.1128
82905SOL    HW266326  12.188  13.981   7.585 -0.5676  0.6209  0.2023
82906SOL     OW66327   7.884   9.687   5.877 -0.2269  0.8251 -0.1966
82906SOL    HW166328   7.795   9.695   5.911 -0.8233  2.3609 -1.9415
82906SOL    HW266329   7.900   9.770   5.833  1.9766  0.4564 -0.2175
82907SOL     OW66330   3.326  12.920   6.025 -0.2212  0.0267 -0.2656
82907SOL    HW166331   3.321  12.914   5.930  0.0131  1.0316 -0.3576
82907SOL    HW266332   3.278  12.844   6.057  1.1692 -1.2803 -1.1889
82908SOL     OW66333   3.777  13.069   4.121  0.4098  0.6918 -0.2152
82908SOL    HW166334   3.848  13.017   4.081  0.5805  0.7932 -0.0456
82908SOL    HW266335   3.698  13.017   4.105  0.3800  1.0269 -1.2286
82909SOL     OW66336   9.450   0.194   6.426 -0.0084 -0.0695  0.1851
82909SOL    HW166337   9.415   0.114   6.466  1.5888 -0.8847  0.0275
82909SOL    HW266338   9.378   0.256   6.431 -1.4366 -1.6319 -0.0335
82910SOL     OW66339   1.771   3.862   3.317  0.2093  0.3344  0.1585
82910SOL    HW166340   1.729   3.786   3.277  1.4522 -0.4835  0.3578
82910SOL    HW266341   1.703   3.930   3.317 -1.0365 -0.8804  0.3119
82911SOL     OW66342  10.465  12.363   9.936  0.5559 -0.6814  0.4562
82911SOL    HW166343  10.560  12.354   9.939  0.7271  0.5189 -0.5241
82911SOL    HW266344  10.438  12.318   9.856  0.6377  1.2386 -0.7106
82912SOL     OW66345   5.943  13.039   1.604  0.6125  0.7949  0.1216
82912SOL    HW166346   5.939  13.032   1.700 -0.5199  0.9802  0.0974
82912SOL    HW266347   5.935  12.949   1.573 -2.5761  0.9724  0.1319
82913SOL     OW66348  12.506   4.344   5.534  0.0212  0.4880 -0.2202
82913SOL    HW166349  12.529   4.375   5.622  2.2244 -0.1906 -0.4918
82913SOL    HW266350  12.500   4.249   5.542  0.2117  0.4223 -0.8008
82914SOL     OW66351   2.340  11.704   9.419 -0.0107  0.4722 -0.6290
82914SOL    HW166352   2.354  11.789   9.378  0.7251 -0.0647 -1.5189
82914SOL    HW266353   2.427  11.664   9.422 -0.3903 -0.3571 -0.4808
82915SOL     OW66354  10.948  12.099  12.236  0.1363 -0.0760  0.4472
82915SOL    HW166355  10.979  12.061  12.318  1.6019  0.3318  0.1061
82915SOL    HW266356  10.878  12.159  12.262 -1.5309 -2.1813  1.0898
82916SOL     OW66357  13.921  13.309   8.745  0.9021  0.5185  0.0070
82916SOL    HW166358  13.962  13.226   8.721 -0.5409  0.3814 -2.3638
82916SOL    HW266359  13.943  13.368   8.674  1.1161  1.9218  1.1941
82917SOL     OW66360  11.824   0.964  13.824 -0.6919  0.2304 -0.0977
82917SOL    HW166361  11.740   0.967  13.870 -1.7007  0.0444 -1.8404
82917SOL    HW266362  11.822   0.881  13.777 -0.0513  0.7732 -1.1093
82918SOL     OW66363   1.166   0.369  13.261  0.3013 -0.1314  0.0009
82918SOL    HW166364   1.250   0.416  13.268 -0.4532  1.4297 -1.0240
82918SOL    HW266365   1.168   0.329  13.174 -0.2377  0.3670 -0.2457
82919SOL     OW66366  11.067   8.229   4.664  1.3087 -0.5293  0.2526
82919SOL    HW166367  11.149   8.198   4.701  0.2104  0.2561  3.7351
82919SOL    HW266368  11.093   8.285   4.590  3.8347 -0.8626  0.8142
82920SOL     OW66369   4.145  11.196   9.510  0.0263 -0.2698  0.0256
82920SOL    HW166370   4.114  11.158   9.427 -0.1177 -1.8628  0.7693
82920SOL    HW266371   4.230  11.233   9.489 -0.1525 -0.3511 -0.9099
82921SOL     OW66372  12.646   4.426  10.598  0.1927 -0.4694 -0.5142
82921SOL    HW166373  12.566   4.410  10.647  0.9748 -0.4200  0.8141
82921SOL    HW266374  12.704   4.355  10.622  0.5722 -0.5005 -1.4652
82922SOL     OW66375   3.716   2.645   7.003 -0.4207 -0.1370 -0.0018
82922SOL    HW166376   3.786   2.624   7.064 -1.0049  1.2939  1.2197
82922SOL    HW266377   3.645   2.678   7.058 -0.9496  1.2607 -1.4505
82923SOL     OW66378  13.805   9.769   9.910 -0.4404 -0.2435  0.0322
82923SOL    HW166379  13.766   9.709   9.973 -0.6182  0.8025  0.9508
82923SOL    HW266380  13.855   9.713   9.850 -0.0093 -1.2275  1.2868
82924SOL     OW66381   2.479  10.322  11.933  0.0485  0.6551 -0.0701
82924SOL    HW166382   2.503  10.326  11.841  0.3411  1.0643  0.0212
82924SOL    HW266383   2.470  10.414  11.959 -1.2326  0.5287 -0.0006
82925SOL     OW66384  10.262  12.206   7.235 -0.5952  0.0315 -0.5272
82925SOL    HW166385  10.201  12.280   7.232 -1.1010 -0.4095 -1.7838
82925SOL    HW266386  10.280  12.186   7.143  1.3797  0.0790 -0.2150
82926SOL     OW66387  12.083   4.966   9.787  0.7588  0.5004  0.0095
82926SOL    HW166388  12.106   4.942   9.877  0.0701 -1.4251 -0.2973
82926SOL    HW266389  12.069   4.883   9.742  1.5478  1.4049 -2.0372
82927SOL     OW66390   2.518  13.318  11.805 -0.3485  0.1093 -0.2590
82927SOL    HW166391   2.467  13.356  11.733 -1.3026  1.3543  1.0240
82927SOL    HW266392   2.585  13.384  11.822 -0.1308 -0.1833  0.0156
82928SOL     OW66393   4.892   2.727  10.328  0.9142  0.1989 -0.0244
82928SOL    HW166394   4.979   2.758  10.302  0.2692  1.3509 -0.8866
82928SOL    HW266395   4.831   2.785  10.282 -0.3074 -0.0839  1.1776
82929SOL     OW66396   2.001   7.141   0.521 -0.6691  0.2288  0.3243
82929SOL    HW166397   1.952   7.144   0.439 -0.3507  0.9197  0.1557
82929SOL    HW266398   2.015   7.233   0.544  2.1704  0.1208 -0.6143
82930SOL     OW66399   5.356   5.428   1.031  0.0917 -0.2804  0.6962
82930SOL    HW166400   5.403   5.482   0.966 -1.3972 -0.9479 -1.0239
82930SOL    HW266401   5.424   5.372   1.069  1.0634  0.3148 -0.1110
82931SOL     OW66402   7.673  14.031   5.128  0.1920  0.2623  0.4838
82931SOL    HW166403   7.678  13.993   5.040 -0.0196 -0.5196  0.8007
82931SOL    HW266404   7.756  14.078   5.138  0.5938 -0.3627  0.1832
82932SOL     OW66405   8.705   9.890   3.425 -0.4102 -0.0275 -0.5872
82932SOL    HW166406   8.621   9.860   3.389 -0.1733  0.6467 -1.7515
82932SOL    HW266407   8.698   9.985   3.426 -0.8811  0.0008  2.4085
82933SOL     OW66408   3.075   6.145   3.804 -0.0830 -0.2276 -0.4980
82933SOL    HW166409   3.049   6.139   3.896  0.0410  1.6724 -0.3044
82933SOL    HW266410   3.122   6.228   3.797  1.6539 -1.2569 -1.8880
82934SOL     OW66411   5.576  12.846  12.392 -0.2296  0.2570  0.4255
82934SOL    HW166412   5.566  12.786  12.466 -0.9285 -1.3297 -0.9113
82934SOL    HW266413   5.531  12.926  12.421 -1.8894 -0.8731  1.1248
82935SOL     OW66414   9.583  11.085   9.048  0.2673 -0.5157 -0.3371
82935SOL    HW166415   9.678  11.099   9.051  0.3251 -0.8827  1.9565
82935SOL    HW266416   9.546  11.170   9.024  1.1615 -0.1925 -0.6029
82936SOL     OW66417  11.011   5.551  13.975  0.1647  0.2054 -0.0124
82936SOL    HW166418  10.990   5.600  13.896  0.8482  0.5127 -0.0052
82936SOL    HW266419  11.106   5.549  13.979  0.1459  0.4403  0.9572
82937SOL     OW66420   8.461  10.598  11.286 -0.0461 -0.2867  0.2656
82937SOL    HW166421   8.538  10.576  11.233  0.0691  0.2158  0.2172
82937SOL    HW266422   8.386  10.578  11.229  0.0184 -1.4436  0.5648
82938SOL     OW66423   0.258  10.664  11.697 -0.8109 -0.1194 -0.3123
82938SOL    HW166424   0.350  10.658  11.668 -1.1147  0.2177 -1.3999
82938SOL    HW266425   0.262  10.647  11.791  0.3971  0.0790 -0.2991
82939SOL     OW66426   5.002   1.506   7.755 -0.0640  0.4125 -0.4319
82939SOL    HW166427   4.957   1.422   7.751  0.4733  0.0752  0.4182
82939SOL    HW266428   5.059   1.499   7.831 -1.7937  2.3955  1.1953
82940SOL     OW66429  11.492   6.414   3.463  0.3277  0.0574 -0.1605
82940SOL    HW166430  11.585   6.398   3.479 -0.3079 -5.3464 -0.0293
82940SOL    HW266431  11.453   6.327   3.458 -4.7513  2.0032 -0.6023
82941SOL     OW66432   0.637   9.868   7.836 -0.0315 -0.4427 -0.2118
82941SOL    HW166433   0.545   9.870   7.810  0.1794 -0.1068 -0.9578
82941SOL    HW266434   0.640   9.916   7.919 -0.6673 -1.2654  0.2983
82942SOL     OW66435  10.256  12.590   0.148  0.1813  0.3024  0.1369
82942SOL    HW166436  10.203  12.666   0.171 -1.0977 -0.3891 -0.4045
82942SOL    HW266437  10.213  12.553   0.071  0.4305 -1.3052  0.7260
82943SOL     OW66438  10.267  11.921   5.589 -0.1384  0.2367 -0.4311
82943SOL    HW166439  10.285  11.832   5.621 -1.0096 -0.1555 -0.9830
82943SOL    HW266440  10.242  11.970   5.667  0.9090  0.1617 -0.0327
82944SOL     OW66441  11.283   1.576   1.151 -0.2383  0.2832  0.2931
82944SOL    HW166442  11.281   1.489   1.111 -2.4720 -0.2171  1.3411
82944SOL    HW266443  11.296   1.636   1.077  0.9517 -0.8928 -0.4898
82945SOL     OW66444   1.218  11.889   1.243  0.1414  0.1560 -0.0328
82945SOL    HW166445   1.259  11.826   1.302  0.9909  1.5041  0.8647
82945SOL    HW266446   1.280  11.962   1.239  0.2398  0.0183 -2.8167
82946SOL     OW66447   7.231   6.757  13.785 -0.2139  0.1225 -0.0712
82946SOL    HW166448   7.300   6.712  13.833 -0.9184 -0.9646 -0.0450
82946SOL    HW266449   7.150   6.716  13.815 -0.7426  0.1389 -1.4088
82947SOL     OW66450  11.003   5.427   2.309 -0.6734 -0.3311 -0.5317
82947SOL    HW166451  11.068   5.430   2.379 -1.0572  1.1208 -0.2100
82947SOL    HW266452  11.054   5.437   2.228 -0.3020 -1.3261 -0.4360
82948SOL     OW66453  11.594   3.110  14.067 -0.5238 -0.2905 -0.1389
82948SOL    HW166454  11.505   3.143  14.075 -1.2490 -2.2784  0.6018
82948SOL    HW266455  11.590   3.047  13.995  0.5022  0.2418 -0.6804
82949SOL     OW66456  12.588   4.159   6.660  0.1083 -0.1284 -0.3636
82949SOL    HW166457  12.582   4.195   6.749  0.1774 -0.2745 -0.3005
82949SOL    HW266458  12.662   4.204   6.621 -0.1244  0.1799 -0.4597
82950SOL     OW66459   7.997   6.578   3.007  0.2374 -0.8305 -0.4489
82950SOL    HW166460   7.931   6.517   2.973  1.0426 -3.3420  2.0544
82950SOL    HW266461   7.953   6.620   3.081  1.3849 -2.6956  1.3822
82951SOL     OW66462   5.639   0.787  12.292 -0.4422 -0.2329 -0.0167
82951SOL    HW166463   5.657   0.879  12.316  2.0862 -1.1912  2.3495
82951SOL    HW266464   5.725   0.752  12.270 -1.3784 -2.0703 -0.9162
82952SOL     OW66465  10.170  10.471   7.656 -0.1171  0.0252  0.6084
82952SOL    HW166466  10.079  10.497   7.669  0.2524  0.4785  2.6693
82952SOL    HW266467  10.219  10.554   7.652  0.2785 -0.2236  0.1507
82953SOL     OW66468   6.456   4.786   9.911 -0.4639 -0.1374 -0.1729
82953SOL    HW166469   6.523   4.851   9.889  0.6636 -1.2063 -0.0269
82953SOL    HW266470   6.419   4.817   9.994  0.1974  0.2332 -0.0061
82954SOL     OW66471  11.608  12.174   1.510  0.1892 -0.2331 -0.1773
82954SOL    HW166472  11.574  12.137   1.429 -1.9387  1.2769 -0.0523
82954SOL    HW266473  11.700  12.193   1.491 -0.2866  0.1523 -2.2684
82955SOL     OW66474   0.152   9.536   1.269 -0.5517 -0.0907 -0.2510
82955SOL    HW166475   0.202   9.466   1.311 -0.1284 -0.2030 -0.9300
82955SOL    HW266476   0.145   9.604   1.336 -1.4443 -0.9815  0.6094
82956SOL     OW66477   1.958   2.013   7.779 -0.3575 -0.0518  0.1338
82956SOL    HW166478   1.903   1.956   7.726 -0.0833  1.4097 -1.8513
82956SOL    HW266479   1.901   2.087   7.802  0.3006  0.6693 -0.5159
82957SOL     OW66480  10.785   6.641  12.553 -0.3135 -0.3156  0.2897
82957SOL    HW166481  10.707   6.596  12.520  0.1327 -1.0317  0.2008
82957SOL    HW266482  10.816   6.586  12.625  0.5080 -0.4083 -0.1235
82958SOL     OW66483   1.448   1.252  11.043 -0.3559  0.8775  0.0505
82958SOL    HW166484   1.378   1.302  11.001  0.8647  2.5906 -0.0464
82958SOL    HW266485   1.518   1.315  11.055  2.3864 -1.3872 -2.5287
82959SOL     OW66486   2.999  12.851   8.353 -0.5676  0.4648 -0.5100
82959SOL    HW166487   2.963  12.926   8.399 -1.6485 -0.9402  1.0213
82959SOL    HW266488   2.931  12.784   8.358  0.9363 -1.1425 -0.4818
82960SOL     OW66489   4.578   4.989  11.326 -0.3689 -0.2536  0.1676
82960SOL    HW166490   4.570   5.083  11.313  0.0008 -0.4755 -1.9632
82960SOL    HW266491   4.651   4.980  11.388  0.7455  0.8234 -0.9336
82961SOL     OW66492  11.715   0.428   3.128 -0.1374 -0.6453 -0.1606
82961SOL    HW166493  11.745   0.385   3.208  0.1216 -1.0637 -0.4798
82961SOL    HW266494  11.638   0.377   3.101 -0.0465 -0.6889 -0.3402
82962SOL     OW66495   2.444  11.438   1.647 -0.1571 -0.6227  0.4504
82962SOL    HW166496   2.359  11.415   1.684 -1.1584 -0.3809 -1.6145
82962SOL    HW266497   2.437  11.531   1.626 -0.0166 -0.9919 -1.3238
82963SOL     OW66498   3.554  10.333  12.394  0.7770  0.4849 -0.1030
82963SOL    HW166499   3.520  10.421  12.409  1.3158  0.8194 -0.7893
82963SOL    HW266500   3.596  10.338  12.308 -0.7196 -0.8992 -0.9594
82964SOL     OW66501   6.578   1.211   8.236 -0.0054  0.0231  0.2991
82964SOL    HW166502   6.654   1.264   8.258 -1.1309  0.3874  3.9447
82964SOL    HW266503   6.603   1.121   8.256 -0.0517 -0.0342  0.0989
82965SOL     OW66504  11.984   1.204   5.504  0.2377 -0.5150 -0.5797
82965SOL    HW166505  11.987   1.296   5.480 -0.4846 -0.5819 -0.9714
82965SOL    HW266506  12.010   1.201   5.595 -0.8238  0.2195 -0.2302
82966SOL     OW66507  11.412  10.144  13.979  0.2351  0.6728  0.3076
82966SOL    HW166508  11.328  10.187  13.960 -0.1122 -0.5689 -1.2298
82966SOL    HW266509  11.388  10.066  14.029  0.6167  1.0144  1.0296
82967SOL     OW66510   7.042   5.432  11.487  0.0133 -0.7364  0.2374
82967SOL    HW166511   6.986   5.499  11.448 -0.4895 -1.5525 -0.4628
82967SOL    HW266512   7.074   5.381  11.413  0.0751 -1.5083  0.7873
82968SOL     OW66513  10.835   8.271  12.918  0.4683  0.1149 -0.6581
82968SOL    HW166514  10.761   8.331  12.907  0.2489 -0.0463 -0.0755
82968SOL    HW266515  10.812   8.195  12.865 -0.9600 -0.9940  1.4161
82969SOL     OW66516   1.084   1.732   7.824  0.3576  0.1575  0.6004
82969SOL    HW166517   1.035   1.661   7.865  0.2643  0.9115  1.8175
82969SOL    HW266518   1.166   1.691   7.796  0.1439 -0.5122  0.9322
82970SOL     OW66519   4.705   2.737   2.271 -0.2158  0.4395 -0.0547
82970SOL    HW166520   4.679   2.827   2.250  1.0428  0.9237  0.3823
82970SOL    HW266521   4.632   2.684   2.239  1.0304  1.1664 -4.8980
82971SOL     OW66522   8.823  12.657  10.859  0.4815 -0.9797 -0.9885
82971SOL    HW166523   8.914  12.643  10.833  0.3854 -0.4270 -1.6645
82971SOL    HW266524   8.782  12.571  10.853  1.2331 -1.4785  0.5087
82972SOL     OW66525   1.391   4.482   6.326 -0.5847  0.3692  0.9084
82972SOL    HW166526   1.396   4.564   6.374 -0.7557 -0.1092  1.7609
82972SOL    HW266527   1.305   4.446   6.348 -0.3509 -0.2245  0.8672
82973SOL     OW66528   9.490  12.799   4.066 -0.0070  0.1707 -0.6035
82973SOL    HW166529   9.416  12.856   4.086  0.9664  1.0100  0.8504
82973SOL    HW266530   9.545  12.852   4.008 -1.2769 -1.0722 -3.1012
82974SOL     OW66531   1.278   7.066   0.403 -0.1413  0.3603  0.7359
82974SOL    HW166532   1.295   6.976   0.432  0.3916  0.3146  0.2777
82974SOL    HW266533   1.334   7.120   0.459  2.2559  0.1561 -1.3155
82975SOL     OW66534  12.688   9.702   7.781 -0.0225  0.2711 -0.1127
82975SOL    HW166535  12.781   9.690   7.762 -0.2085 -1.7059 -0.0173
82975SOL    HW266536  12.649   9.724   7.696  0.3625 -0.0707 -0.3803
82976SOL     OW66537   2.814  10.007  13.399 -0.0135  0.0895  0.3753
82976SOL    HW166538   2.758  10.005  13.322  2.1750  2.4750 -1.4226
82976SOL    HW266539   2.903  10.003  13.365  1.0140 -0.7270  2.9328
82977SOL     OW66540  10.080   1.945   2.288 -0.7356  0.1974  0.3260
82977SOL    HW166541  10.019   1.965   2.217  0.0603  0.6303 -0.2503
82977SOL    HW266542  10.075   1.850   2.298 -1.1621  0.1796 -0.0188
82978SOL     OW66543  11.716   6.025   8.853  0.2186 -0.3790 -0.1383
82978SOL    HW166544  11.706   6.048   8.945 -0.5620  1.8201 -0.7008
82978SOL    HW266545  11.628   5.996   8.826  0.3028 -0.4571 -0.3318
82979SOL     OW66546  13.175   0.657   1.538 -0.0443 -0.0095 -0.0474
82979SOL    HW166547  13.225   0.660   1.619 -2.1327  0.0972  1.3213
82979SOL    HW266548  13.177   0.746   1.504  0.5822  0.0130  0.0430
82980SOL     OW66549   3.227  13.309  10.951 -0.0081 -0.4330  1.2403
82980SOL    HW166550   3.219  13.251  11.026 -1.1039  0.4799  1.8574
82980SOL    HW266551   3.176  13.386  10.975  2.1974  1.2512  0.8838
82981SOL     OW66552   1.069   9.768   8.648 -0.4159  0.3418 -0.1937
82981SOL    HW166553   1.006   9.760   8.576 -1.9082  1.7429  0.8983
82981SOL    HW266554   1.016   9.766   8.727  1.0045  0.7578  0.8124
82982SOL     OW66555   5.319   6.408   6.212 -0.1068 -0.3291  0.0769
82982SOL    HW166556   5.288   6.325   6.249 -0.1545 -1.3933 -2.1724
82982SOL    HW266557   5.376   6.444   6.279 -0.5134 -1.9183  1.3448
82983SOL     OW66558   0.469   2.773   4.137  0.2983 -0.1140 -0.2462
82983SOL    HW166559   0.529   2.805   4.205 -1.2882  0.7215  0.8167
82983SOL    HW266560   0.397   2.835   4.137  0.2929 -0.0025 -2.8480
82984SOL     OW66561  10.577   0.162  13.318  0.2757  0.1904  0.7687
82984SOL    HW166562  10.658   0.170  13.368 -0.2378 -0.1103  1.6708
82984SOL    HW266563  10.540   0.250  13.319  1.1318  0.6024 -0.6280
82985SOL     OW66564  11.504   6.129   8.672 -0.4635 -0.0954  0.4216
82985SOL    HW166565  11.565   6.182   8.723 -0.1909  0.1471 -0.1463
82985SOL    HW266566  11.559   6.077   8.614 -0.8030  0.8495 -0.8071
82986SOL     OW66567   5.920  12.089  10.288 -0.3172  0.3469  0.1744
82986SOL    HW166568   6.013  12.105  10.303 -0.5986  1.1274  1.2110
82986SOL    HW266569   5.912  12.080  10.193  0.8886 -0.2884  0.1129
82987SOL     OW66570   7.504   2.501   8.618 -0.3043  0.1259  0.0037
82987SOL    HW166571   7.570   2.552   8.570 -0.4646  0.1587 -0.1811
82987SOL    HW266572   7.544   2.485   8.704 -0.0032  0.0385 -0.1517
82988SOL     OW66573   4.757   7.069   5.262  0.4945 -0.2138  0.7986
82988SOL    HW166574   4.750   7.002   5.194 -0.9331  1.7598 -1.1627
82988SOL    HW266575   4.731   7.150   5.218  1.0698  1.4658  3.3280
82989SOL     OW66576  13.809   0.440   7.382 -0.6035  0.3784 -0.0872
82989SOL    HW166577  13.796   0.472   7.471  0.4390  0.6539 -0.0316
82989SOL    HW266578  13.856   0.510   7.337  0.1300 -0.3311 -0.4609
82990SOL     OW66579   5.683   0.727   3.224  0.2719 -0.1866 -0.5433
82990SOL    HW166580   5.689   0.820   3.201 -1.8759  0.1389 -0.0191
82990SOL    HW266581   5.594   0.702   3.199  0.3098 -1.7171  0.6882
82991SOL     OW66582   3.391   9.264   4.026  0.2840  0.0564  0.4887
82991SOL    HW166583   3.455   9.279   3.956  0.8262 -0.6337  0.8226
82991SOL    HW266584   3.423   9.316   4.100 -0.5267  1.1353  0.1047
82992SOL     OW66585  11.016  13.983   7.913 -0.1916 -0.3700 -0.0243
82992SOL    HW166586  11.051  14.025   7.991 -0.1540  1.3683 -0.9197
82992SOL    HW266587  11.006  13.891   7.937  2.5235 -0.4674  1.1050
82993SOL     OW66588   2.706  14.068   6.068  0.7168  0.5791 -0.1338
82993SOL    HW166589   2.628  14.014   6.076  0.8326  0.2292 -1.2092
82993SOL    HW266590   2.677  14.156   6.093  0.1121  0.3454  0.0020
82994SOL     OW66591   4.841  10.989   0.476  0.5412  0.5458 -0.0802
82994SOL    HW166592   4.885  11.040   0.544 -0.1544 -0.7529  1.3933
82994SOL    HW266593   4.843  11.046   0.399 -0.0007  2.6944  1.4005
82995SOL     OW66594  13.542   5.708   5.783 -0.5059  0.0610  0.5891
82995SOL    HW166595  13.580   5.666   5.860 -0.7410  0.2700  0.8213
82995SOL    HW266596  13.537   5.638   5.717  2.6645  0.5720 -0.3613
82996SOL     OW66597   1.822   7.775  11.655 -0.3942 -0.3026  0.2115
82996SOL    HW166598   1.907   7.775  11.698 -0.5496 -2.1956  0.6132
82996SOL    HW266599   1.809   7.684  11.628 -1.6076  0.2585 -1.2445
82997SOL     OW66600   6.239  11.215   8.702 -0.3224  0.4215 -0.4007
82997SOL    HW166601   6.200  11.252   8.781 -1.9825  0.3900 -1.1498
82997SOL    HW266602   6.290  11.287   8.665 -0.9878  1.0114 -0.2074
82998SOL     OW66603   2.679  11.952   5.224 -0.2793  0.6700  0.0904
82998SOL    HW166604   2.735  12.022   5.190 -0.7444  0.4593 -1.1671
82998SOL    HW266605   2.617  11.997   5.281 -0.2189  1.2050 -0.2555
82999SOL     OW66606  12.676   0.740   7.312 -0.4149 -0.2599 -0.3119
82999SOL    HW166607  12.688   0.645   7.315  0.1825 -0.1805 -0.0269
82999SOL    HW266608  12.721   0.768   7.232 -0.6012 -0.2201 -0.4028
83000SOL     OW66609  12.580  10.957   6.274  0.4998  0.1780  0.4235
83000SOL    HW166610  12.674  10.948   6.258  0.3623  0.7999 -0.8397
83000SOL    HW266611  12.569  11.044   6.311  0.4756 -0.1023  1.0839
83001SOL     OW66612  12.485   8.881  13.235 -0.2774 -0.2457  0.4249
83001SOL    HW166613  12.405   8.922  13.204 -0.4165  0.0391  1.1303
83001SOL    HW266614  12.555   8.936  13.200 -0.2230 -1.7890 -2.1594
83002SOL     OW66615  13.763  10.922  12.124  0.3224  0.0050 -0.2887
83002SOL    HW166616  13.744  10.976  12.047 -1.9030 -1.5899 -0.9786
83002SOL    HW266617  13.831  10.862  12.094 -1.1674 -1.2209 -1.4259
83003SOL     OW66618   4.125   0.453   7.779 -0.1908  0.1974 -0.5712
83003SOL    HW166619   4.160   0.397   7.710 -1.7998 -1.1931 -0.3338
83003SOL    HW266620   4.127   0.541   7.742 -0.4778 -0.4359 -2.1756
83004SOL     OW66621   4.558   3.487   1.453 -0.1266  0.1509 -0.0249
83004SOL    HW166622   4.630   3.435   1.419  1.0228  1.6919 -0.0408
83004SOL    HW266623   4.548   3.458   1.544 -0.4833 -1.0705 -0.4239
83005SOL     OW66624   6.938  11.478  13.211 -0.5778  0.2568  1.1063
83005SOL    HW166625   6.920  11.553  13.154 -0.6615 -0.3904  0.2465
83005SOL    HW266626   6.854  11.431  13.216  0.1493 -1.4028 -0.8529
83006SOL     OW66627   0.328  13.949  13.016 -0.0720 -0.0810  0.5689
83006SOL    HW166628   0.312  13.941  12.923  0.2292 -1.1949  0.6056
83006SOL    HW266629   0.301  13.866  13.054  0.2417  0.1804  1.4147
83007SOL     OW66630  11.128  10.214  14.013 -0.3666 -0.2388  0.0734
83007SOL    HW166631  11.094  10.212  13.924  0.8751  1.0521 -0.4629
83007SOL    HW266632  11.081  10.144  14.058 -3.3177  1.0413 -0.7310
83008SOL     OW66633   4.871   9.181   0.534  0.2779  0.2395 -0.2368
83008SOL    HW166634   4.841   9.135   0.612 -1.6537 -0.0831 -1.0985
83008SOL    HW266635   4.791   9.213   0.493  1.4554  4.2631  0.1856
83009SOL     OW66636   2.976   3.064   2.978 -0.5168 -0.5473  0.6500
83009SOL    HW166637   2.939   3.077   2.890 -0.1663 -0.0451  0.5767
83009SOL    HW266638   3.057   3.015   2.962 -0.7815 -1.0295  0.7537
83010SOL     OW66639   9.736   9.196   3.895 -0.1270 -0.0390  0.0631
83010SOL    HW166640   9.809   9.160   3.945  0.9128  1.3923 -0.3621
83010SOL    HW266641   9.732   9.288   3.922 -1.0736  0.1659 -0.7272
83011SOL     OW66642   9.184   0.236   0.264  0.0032  0.4315 -0.2716
83011SOL    HW166643   9.229   0.207   0.343  0.7484 -1.7233 -1.3985
83011SOL    HW266644   9.251   0.286   0.216  0.1108  0.2390 -0.3261
83012SOL     OW66645   0.350   5.269   2.199 -0.0001 -0.2064  0.5170
83012SOL    HW166646   0.429   5.275   2.144 -0.0351  0.8792  0.5664
83012SOL    HW266647   0.383   5.283   2.288 -0.4831  2.3828  0.3559
83013SOL     OW66648   2.691  12.661  10.318  0.5422 -0.5199  0.7245
83013SOL    HW166649   2.600  12.640  10.299  0.8159 -1.5468  0.5047
83013SOL    HW266650   2.741  12.617  10.248  1.1075  1.5431 -0.2555
83014SOL     OW66651   4.169   3.120   7.910 -0.1366 -0.1303  0.3363
83014SOL    HW166652   4.092   3.068   7.888  0.8278 -0.7961 -1.7485
83014SOL    HW266653   4.217   3.067   7.974 -1.3731  0.3159  1.6949
83015SOL     OW66654   8.310  13.421   0.222 -0.2883 -0.3620  0.1178
83015SOL    HW166655   8.350  13.434   0.136  2.4489 -0.1932  1.3001
83015SOL    HW266656   8.382  13.435   0.284 -2.4184  0.7586  2.5259
83016SOL     OW66657   8.043  10.379   6.101 -0.2692 -0.0938 -0.0400
83016SOL    HW166658   8.077  10.294   6.127 -1.3660 -0.0384  1.7727
83016SOL    HW266659   7.947  10.369   6.105 -0.4865  0.5706 -2.1164
83017SOL     OW66660   0.243   1.911  13.693 -0.2950 -0.3908 -0.0364
83017SOL    HW166661   0.182   1.853  13.739 -1.3395 -0.3811 -1.3418
83017SOL    HW266662   0.186   1.972  13.645  0.7290 -0.5604 -1.5255
83018SOL     OW66663  13.357   7.147   6.393 -0.1427 -0.3074 -0.2977
83018SOL    HW166664  13.418   7.215   6.366  0.4824 -0.8019 -0.1445
83018SOL    HW266665  13.406   7.065   6.383 -1.1860 -0.8329 -1.3989
83019SOL     OW66666   7.643   5.000  13.128  0.7100  0.3393  0.4203
83019SOL    HW166667   7.673   4.924  13.078  0.4870 -0.1592  1.0329
83019SOL    HW266668   7.661   4.977  13.219  1.3527  1.3420  0.5631
83020SOL     OW66669  11.194   5.599  13.263 -0.1288  0.4434  0.4596
83020SOL    HW166670  11.265   5.564  13.316  1.0082  1.4163 -0.3693
83020SOL    HW266671  11.236   5.659  13.202 -1.5542  0.3758 -0.6612
83021SOL     OW66672   1.954  13.364   4.105  0.0005 -0.4822 -0.0827
83021SOL    HW166673   1.900  13.433   4.067  0.5718 -0.1920 -0.3639
83021SOL    HW266674   1.929  13.363   4.198  1.7450  1.8028  0.5083
83022SOL     OW66675   4.167   1.444   3.308  0.0187  0.4381 -0.2016
83022SOL    HW166676   4.154   1.538   3.323  0.4686  0.2448  1.6471
83022SOL    HW266677   4.093   1.419   3.253 -1.9988  1.2882  1.9167
83023SOL     OW66678   1.224   9.169  12.165 -0.1011 -0.3137 -0.1428
83023SOL    HW166679   1.194   9.078  12.163  1.7645 -1.0124  0.7779
83023SOL    HW266680   1.309   9.167  12.121  0.5813  0.7067  1.0573
83024SOL     OW66681  12.871   3.231   6.017 -0.2490  0.2152  0.3831
83024SOL    HW166682  12.959   3.248   6.050 -0.1599  0.0332  0.2401
83024SOL    HW266683  12.857   3.137   6.032 -1.3808  0.6770  2.7395
83025SOL     OW66684   0.679   9.101   8.095 -0.1474 -0.1090  0.0819
83025SOL    HW166685   0.592   9.138   8.107  0.2813  0.7437  0.6736
83025SOL    HW266686   0.674   9.015   8.137 -0.8641 -0.3125 -0.4044
83026SOL     OW66687  13.692  10.043   5.257 -0.9094  0.3360  0.2840
83026SOL    HW166688  13.650  10.028   5.172 -1.0854 -0.3854  0.4864
83026SOL    HW266689  13.785  10.023   5.242 -1.3683 -2.9474  0.9446
83027SOL     OW66690   3.886  10.107  10.062  0.8039  0.7004  0.3474
83027SOL    HW166691   3.812  10.065  10.107 -0.1895  2.3688  0.3457
83027SOL    HW266692   3.889  10.195  10.098  0.1344  2.0520 -2.5446
83028SOL     OW66693  13.144  11.953   0.523 -0.1392 -0.0196 -0.2941
83028SOL    HW166694  13.189  12.016   0.579  0.3424  0.3414 -1.0727
83028SOL    HW266695  13.129  11.999   0.441 -1.4489 -0.3259 -0.2389
83029SOL     OW66696   5.244   3.871  13.915  0.4802  0.0056 -0.3946
83029SOL    HW166697   5.339   3.872  13.922  0.5530  2.2089 -0.8928
83029SOL    HW266698   5.226   3.838  13.826  0.9362  1.7779 -1.1965
83030SOL     OW66699   7.723   0.459   7.188  0.2519  0.6605  0.3136
83030SOL    HW166700   7.763   0.517   7.252  1.9009 -0.5739  0.4846
83030SOL    HW266701   7.688   0.386   7.239 -2.5290  1.7677  0.1885
83031SOL     OW66702  11.951  10.590   4.259  0.1127 -0.4553  0.4598
83031SOL    HW166703  11.993  10.646   4.325 -0.1482  0.9119 -0.4875
83031SOL    HW266704  12.024  10.549   4.213  0.3436 -0.1349  0.5344
83032SOL     OW66705   3.540   5.144  13.386  0.2375  0.2922 -0.1225
83032SOL    HW166706   3.536   5.064  13.333 -4.7307  1.0823 -1.5560
83032SOL    HW266707   3.531   5.215  13.322  0.2999  1.7016  1.3746
83033SOL     OW66708   0.376   8.447  12.337  0.2315  0.6823  0.3144
83033SOL    HW166709   0.307   8.387  12.364 -0.9063  1.0553 -1.5978
83033SOL    HW266710   0.340   8.492  12.261  2.5759  0.8968 -0.7514
83034SOL     OW66711  12.852   9.598   7.187 -0.6869 -0.1343  0.8361
83034SOL    HW166712  12.845   9.603   7.282 -0.1293 -0.0971  0.8750
83034SOL    HW266713  12.946   9.599   7.169 -0.7005 -2.1389  0.3899
83035SOL     OW66714   0.050   2.531   7.480  0.0597 -0.3308  0.2629
83035SOL    HW166715   0.001   2.507   7.558 -0.7434  1.4720  0.3417
83035SOL    HW266716  -0.016   2.535   7.410  0.5143 -0.3686 -0.1784
83036SOL     OW66717   1.159   8.888  11.203 -0.0503 -0.4548  0.2362
83036SOL    HW166718   1.233   8.909  11.146 -0.7499  0.5015 -0.3494
83036SOL    HW266719   1.084   8.930  11.161 -0.3852  1.4750  2.5717
83037SOL     OW66720   6.106  12.945  14.092 -0.5736 -0.3935 -0.2912
83037SOL    HW166721   6.124  12.880  14.160  0.3938  1.4273  1.2641
83037SOL    HW266722   6.010  12.952  14.091 -0.5909  0.2568  1.6279
83038SOL     OW66723   8.074   8.696   1.118 -0.1286 -0.2245 -0.2593
83038SOL    HW166724   8.149   8.671   1.064 -1.2930 -2.3119 -1.0148
83038SOL    HW266725   8.112   8.751   1.187  1.9961 -0.7603 -0.9214
83039SOL     OW66726   2.472   7.579  12.107  0.3733 -0.4087  0.3093
83039SOL    HW166727   2.433   7.559  12.023 -1.8457  1.0826  0.9025
83039SOL    HW266728   2.431   7.661  12.134  3.5475  1.0286  1.3065
83040SOL     OW66729  10.630   7.027   4.077 -0.2887 -0.7519 -0.0183
83040SOL    HW166730  10.566   6.955   4.079  0.0200 -1.0639 -1.0292
83040SOL    HW266731  10.688   7.009   4.151  1.0238 -2.7335 -1.4246
83041SOL     OW66732  11.590   2.771  11.463  0.4176  0.3688  0.5357
83041SOL    HW166733  11.660   2.708  11.447  0.2383  0.9869 -3.4962
83041SOL    HW266734  11.625   2.855  11.434 -1.2130  1.1094  0.5856
83042SOL     OW66735  12.722   8.180   8.545  0.7107 -0.0202 -0.2261
83042SOL    HW166736  12.644   8.147   8.501  0.9865 -0.4170 -0.4232
83042SOL    HW266737  12.755   8.106   8.596  1.0756  0.0803 -0.3099
83043SOL     OW66738   6.277  13.635   9.895 -0.3094  0.3446  0.2050
83043SOL    HW166739   6.296  13.623   9.988 -1.2366 -1.3156  0.2225
83043SOL    HW266740   6.184  13.657   9.893 -1.1525 -2.8550 -0.4463
83044SOL     OW66741   4.922  10.817   3.041  0.0696 -0.0712  0.6590
83044SOL    HW166742   4.949  10.744   3.096 -0.9702 -1.4861 -0.6052
83044SOL    HW266743   4.975  10.808   2.962 -0.0262  0.5739  0.5215
83045SOL     OW66744  10.522   0.319   3.669  0.4391 -0.3861  0.5278
83045SOL    HW166745  10.466   0.320   3.747  1.2160  1.9504  1.1413
83045SOL    HW266746  10.500   0.400   3.623  0.1733 -1.6148 -1.6000
83046SOL     OW66747   5.431   2.951   1.735  0.2272  0.2161  0.1222
83046SOL    HW166748   5.510   3.004   1.748  0.0255  0.4992  0.1948
83046SOL    HW266749   5.360   3.014   1.729  0.0941  0.0103 -0.7119
83047SOL     OW66750   0.837   4.957   0.186 -0.0343  0.1359  0.2939
83047SOL    HW166751   0.827   4.871   0.227 -1.5986 -0.1619 -0.5981
83047SOL    HW266752   0.923   4.955   0.145 -0.7508 -1.7379 -1.2550
83048SOL     OW66753  10.999  13.939   9.275 -0.0750  0.0522  0.3324
83048SOL    HW166754  11.089  13.913   9.297 -0.4343  0.0883  1.9849
83048SOL    HW266755  10.948  13.859   9.284 -0.0751 -0.2216 -1.6884
83049SOL     OW66756  12.836   8.575   2.472  0.3237 -0.7105  0.0692
83049SOL    HW166757  12.892   8.644   2.435 -1.2828 -0.1187 -1.3997
83049SOL    HW266758  12.790   8.618   2.544 -0.0754 -0.4452 -0.3324
83050SOL     OW66759   0.071   3.809  12.234 -0.7414 -0.1237 -0.0891
83050SOL    HW166760  -0.004   3.866  12.216 -0.6458  1.1248  2.8535
83050SOL    HW266761   0.144   3.869  12.247  0.1825 -1.1656 -0.3190
83051SOL     OW66762   4.730   9.770  11.162  0.6610  0.2162 -0.0714
83051SOL    HW166763   4.649   9.795  11.207  0.0928 -1.8782  0.2080
83051SOL    HW266764   4.771   9.853  11.137 -1.2697  1.3411  0.2996
83052SOL     OW66765   6.469   9.158   8.485 -0.3565  0.6401  0.0076
83052SOL    HW166766   6.461   9.248   8.455  1.8291  1.7130  2.2223
83052SOL    HW266767   6.388   9.142   8.534 -1.7403  0.5577 -2.2002
83053SOL     OW66768   2.864   8.345   9.535  0.3276 -0.4638  0.0549
83053SOL    HW166769   2.910   8.376   9.457 -0.1185 -1.7785 -0.7682
83053SOL    HW266770   2.801   8.281   9.501  1.6186 -2.7277  1.7190
83054SOL     OW66771  13.021   6.113  13.297  0.1144 -0.3864 -0.1371
83054SOL    HW166772  13.114   6.111  13.277  0.1413 -1.7336  0.0517
83054SOL    HW266773  12.978   6.086  13.216 -0.0282 -1.1374  0.1808
83055SOL     OW66774   8.807   6.804  10.413 -0.2373  0.6278 -0.0809
83055SOL    HW166775   8.834   6.772  10.499 -1.0060 -1.6551 -0.6214
83055SOL    HW266776   8.883   6.790  10.357 -0.6704 -0.7327 -0.3890
83056SOL     OW66777  12.933  10.675   9.232  0.0502 -0.3611 -0.1692
83056SOL    HW166778  12.926  10.588   9.193  0.1004 -0.4628  0.0509
83056SOL    HW266779  12.844  10.710   9.229  0.0700 -0.3279 -0.4657
83057SOL     OW66780   3.811   6.504  11.531  0.5082 -0.1515 -0.1504
83057SOL    HW166781   3.789   6.422  11.486 -0.1381 -0.8396  1.3615
83057SOL    HW266782   3.791   6.487  11.623  0.1422  1.7915  0.1718
83058SOL     OW66783   8.174   4.165   1.393  0.3656 -0.2518 -0.1849
83058SOL    HW166784   8.081   4.144   1.387  0.4893 -0.6491 -0.9088
83058SOL    HW266785   8.182   4.218   1.472 -0.6298  0.6363 -0.6573
83059SOL     OW66786   2.827   4.872  12.375  0.1279  0.3351 -0.0355
83059SOL    HW166787   2.792   4.842  12.459  0.7495  1.1368  0.5317
83059SOL    HW266788   2.872   4.795  12.339 -2.2913 -0.7832 -0.8851
83060SOL     OW66789   3.084   9.186   0.878 -0.4711 -0.1305  0.5407
83060SOL    HW166790   3.032   9.257   0.917  1.2541  2.2191 -1.1333
83060SOL    HW266791   3.030   9.154   0.806 -0.5549  0.7147  0.2173
83061SOL     OW66792   2.936   9.969  10.344  0.1127  0.1687 -0.9451
83061SOL    HW166793   2.880   9.896  10.320 -0.3273  0.2609 -0.2438
83061SOL    HW266794   2.892  10.009  10.419  1.5544 -0.3002  0.2144
83062SOL     OW66795   8.115  13.570   1.734  0.4549  0.2130  0.2340
83062SOL    HW166796   8.139  13.478   1.736  1.0052  0.3394 -0.2483
83062SOL    HW266797   8.154  13.608   1.813 -0.5402 -0.1393  0.9152
83063SOL     OW66798  12.676   0.475   7.645  0.1573  0.4147 -0.3348
83063SOL    HW166799  12.695   0.556   7.692  0.7530 -0.0868  0.2978
83063SOL    HW266800  12.667   0.409   7.713 -0.6921  0.0141 -0.8288
83064SOL     OW66801   3.444   0.512   1.873  0.1441  0.1370 -0.4175
83064SOL    HW166802   3.527   0.560   1.879  0.2268 -0.1639  1.9077
83064SOL    HW266803   3.469   0.426   1.840  0.4910  0.6109 -1.4125
83065SOL     OW66804   4.490   1.841   2.792  0.3417  0.5985  0.3489
83065SOL    HW166805   4.432   1.840   2.716 -1.4365  1.3107  1.6191
83065SOL    HW266806   4.578   1.832   2.755 -0.5988 -3.2171 -1.5265
83066SOL     OW66807  10.894   7.740   4.241  0.8275  0.2683  0.0484
83066SOL    HW166808  10.961   7.671   4.238  1.5757  0.9238  0.9167
83066SOL    HW266809  10.815   7.699   4.208  1.5714 -0.6377 -0.6699
83067SOL     OW66810   3.317   8.568   7.559 -1.0018 -0.0060 -1.0701
83067SOL    HW166811   3.239   8.531   7.516 -1.1800 -1.7898  0.6316
83067SOL    HW266812   3.283   8.637   7.616 -1.1345  0.3142 -1.5349
83068SOL     OW66813   7.532   6.244   3.984  0.1400 -0.0242  0.5653
83068SOL    HW166814   7.596   6.267   4.051 -1.3085 -0.3818  2.1264
83068SOL    HW266815   7.585   6.225   3.906  1.7109  5.8171 -0.2443
83069SOL     OW66816   5.695  11.930   3.242 -0.2918  0.0915  0.2976
83069SOL    HW166817   5.705  11.855   3.300 -0.5886  0.5515  0.9599
83069SOL    HW266818   5.613  11.972   3.271  0.1456  0.9664  0.3025
83070SOL     OW66819   2.582   5.446  11.640  0.0397  0.2239  1.2082
83070SOL    HW166820   2.641   5.501  11.691 -1.1305  0.8805  1.8890
83070SOL    HW266821   2.582   5.362  11.687  2.1143 -0.5657 -0.0388
83071SOL     OW66822  11.287  12.544   4.800  0.3699 -0.0656 -0.3718
83071SOL    HW166823  11.366  12.533   4.852  0.2148 -0.4710 -0.2207
83071SOL    HW266824  11.268  12.457   4.766 -0.0177  0.0269 -0.3947
83072SOL     OW66825   7.033  10.899   3.718 -0.6288 -0.0796 -0.4199
83072SOL    HW166826   6.986  10.932   3.642  0.5907  1.4231 -0.5697
83072SOL    HW266827   6.965  10.864   3.776 -1.8456  1.2732 -0.9748
83073SOL     OW66828   0.807   3.257  11.844  0.4963 -0.2137  0.1182
83073SOL    HW166829   0.791   3.298  11.929 -2.1854  0.7239 -0.7380
83073SOL    HW266830   0.769   3.169  11.852  0.1417 -0.0845 -0.1491
83074SOL     OW66831   1.987   1.870   0.508  0.1409  0.0081 -0.2254
83074SOL    HW166832   2.021   1.924   0.437  1.8485  0.0766  0.5868
83074SOL    HW266833   1.951   1.793   0.464 -2.9751  1.9969 -1.4607
83075SOL     OW66834  12.681   7.723  10.630 -0.2960  0.2998  0.7501
83075SOL    HW166835  12.634   7.801  10.658 -2.1935 -0.5750  0.2407
83075SOL    HW266836  12.713   7.744  10.542 -1.1210  0.3990  0.4631
83076SOL     OW66837   8.068   2.668   3.688  0.4046  0.1323 -0.4666
83076SOL    HW166838   8.050   2.755   3.724  0.6047 -0.0686  0.1394
83076SOL    HW266839   8.102   2.684   3.600  0.2251  0.6539 -0.4445
83077SOL     OW66840  13.280   2.227   5.133  0.7463  0.3643 -0.1359
83077SOL    HW166841  13.257   2.166   5.063 -1.0931  0.8562 -0.0245
83077SOL    HW266842  13.335   2.177   5.192 -0.1280 -0.9821 -0.4236
83078SOL     OW66843   6.157   6.623   2.905 -0.1393  0.2022  0.1755
83078SOL    HW166844   6.173   6.677   2.983  2.1127  1.5663 -1.0978
83078SOL    HW266845   6.106   6.679   2.847 -0.1249 -0.0628 -0.0964
83079SOL     OW66846   4.039   2.202   3.842 -0.4910  0.5025  0.1713
83079SOL    HW166847   4.042   2.298   3.834 -1.0001  0.4454 -0.7812
83079SOL    HW266848   4.121   2.172   3.803 -1.3665  0.4320 -1.6872
83080SOL     OW66849   1.049   3.764   0.409  0.4919  0.3301 -0.1943
83080SOL    HW166850   1.096   3.689   0.372  1.8736  1.7859 -1.5650
83080SOL    HW266851   1.114   3.834   0.411 -1.3567  2.1761 -1.2189
83081SOL     OW66852   0.155   0.550  10.319 -0.1528  0.5016 -0.4161
83081SOL    HW166853   0.183   0.587  10.403 -0.0688 -0.1919 -0.1335
83081SOL    HW266854   0.121   0.625  10.270 -2.1209  0.6002  0.9989
83082SOL     OW66855   1.079   4.444   0.573 -0.0942 -0.0273  0.0935
83082SOL    HW166856   1.098   4.408   0.659 -2.1212  1.3336  1.1986
83082SOL    HW266857   1.010   4.387   0.537  0.3697 -0.2802 -0.4083
83083SOL     OW66858   8.585  13.446   9.259  0.4165  0.3517  0.3589
83083SOL    HW166859   8.661  13.449   9.317 -2.1029  0.5744  3.9090
83083SOL    HW266860   8.584  13.532   9.217  0.7197  1.3480  2.2793
83084SOL     OW66861   0.489   1.087   0.969 -0.0238  0.0148  0.7662
83084SOL    HW166862   0.488   1.144   0.892 -0.6022 -1.3647 -0.2748
83084SOL    HW266863   0.576   1.048   0.969 -0.3008 -0.6132  0.3264
83085SOL     OW66864   2.658  11.670   0.328 -0.1315  0.1234 -0.0931
83085SOL    HW166865   2.570  11.706   0.317 -0.6236 -1.1529 -0.5959
83085SOL    HW266866   2.685  11.644   0.240  1.3600  1.7983 -0.1629
83086SOL     OW66867   8.912   9.854   1.663  0.3457 -0.3427  0.0459
83086SOL    HW166868   8.938   9.870   1.572  1.7546 -1.1720  0.2637
83086SOL    HW266869   8.980   9.898   1.714 -0.1709 -0.2905  0.6952
83087SOL     OW66870   0.117   7.142   5.105 -0.0199 -0.4348 -0.2432
83087SOL    HW166871   0.104   7.058   5.061 -2.1754 -1.1787  1.5992
83087SOL    HW266872   0.136   7.204   5.034 -0.9188 -1.9962 -1.9223
83088SOL     OW66873   2.370   7.860   5.977 -0.3482 -0.0520 -0.1120
83088SOL    HW166874   2.458   7.898   5.977  0.8289 -2.5850 -1.6659
83088SOL    HW266875   2.381   7.773   6.014 -2.3209 -0.2633  0.0790
83089SOL     OW66876   8.947  13.798  12.153  0.2323  0.1211  0.4603
83089SOL    HW166877   8.928  13.847  12.073  2.0814  1.2439  0.6528
83089SOL    HW266878   8.918  13.856  12.224  0.4745  0.0229  0.6417
83090SOL     OW66879  10.610   2.039   3.562  0.8301 -0.0720 -0.1103
83090SOL    HW166880  10.517   2.058   3.573  0.8590  0.7686 -1.1747
83090SOL    HW266881  10.612   1.946   3.538  0.1462  0.1848 -1.2724
83091SOL     OW66882   9.550   1.004   0.397  0.3552 -0.4294 -0.3097
83091SOL    HW166883   9.644   1.020   0.400  0.2574 -0.0013  1.1451
83091SOL    HW266884   9.510   1.090   0.386  0.1282 -0.6582 -1.4362
83092SOL     OW66885  10.055  12.590   3.091  0.0740 -0.1164  0.2801
83092SOL    HW166886  10.075  12.647   3.165 -1.0883 -0.3512  0.7980
83092SOL    HW266887  10.079  12.642   3.013 -0.1336  0.7195  0.7638
83093SOL     OW66888   1.935  10.823   7.381  0.2240  0.2232 -0.8627
83093SOL    HW166889   1.975  10.783   7.457 -0.0945  1.6681  0.1113
83093SOL    HW266890   1.922  10.751   7.319  1.1008 -0.8535  0.1733
83094SOL     OW66891   4.942   6.695   1.754  0.3360 -0.1090  0.0507
83094SOL    HW166892   4.921   6.641   1.830 -1.4224  0.0576 -0.2700
83094SOL    HW266893   4.931   6.636   1.679 -1.1613  0.5332 -0.2709
83095SOL     OW66894   7.008   2.040   4.520 -0.0267 -0.0144 -0.1713
83095SOL    HW166895   7.065   2.074   4.590  0.9836  0.0210 -0.9865
83095SOL    HW266896   6.920   2.062   4.549  0.1302 -2.2544  2.3347
83096SOL     OW66897   1.921  11.393   0.380  0.1624 -0.1641  0.1405
83096SOL    HW166898   1.927  11.378   0.286 -0.6693  1.4281 -0.2064
83096SOL    HW266899   2.008  11.424   0.405  0.6306 -1.3600  0.0851
83097SOL     OW66900   9.135  13.519  12.326 -0.1729 -0.0899 -0.0205
83097SOL    HW166901   9.105  13.597  12.373 -0.8967  0.1359 -0.8260
83097SOL    HW266902   9.081  13.517  12.247 -0.4150 -1.5985  0.1452
83098SOL     OW66903   5.279   9.698   5.542  0.1055  0.2707  0.8539
83098SOL    HW166904   5.298   9.772   5.485 -0.7962 -0.7545 -0.8992
83098SOL    HW266905   5.258   9.626   5.481 -1.2401 -0.8107  2.4886
83099SOL     OW66906   0.770   4.603  10.033  0.1254 -0.0126 -0.2840
83099SOL    HW166907   0.789   4.512  10.056 -1.6030 -0.4149 -0.3373
83099SOL    HW266908   0.773   4.650  10.116  0.8655 -0.1331 -0.2339
83100SOL     OW66909  12.567   5.922   5.650 -0.2862 -0.0512 -0.1978
83100SOL    HW166910  12.553   6.017   5.641 -1.2312 -0.2781 -1.3673
83100SOL    HW266911  12.658   5.914   5.678 -0.6539  1.2643  1.5659
83101SOL     OW66912   1.188  13.538   6.063 -0.5591  0.2163  0.1610
83101SOL    HW166913   1.250  13.468   6.040  0.2557  1.0758 -0.3378
83101SOL    HW266914   1.104  13.507   6.029 -0.0121 -0.0593 -1.0127
83102SOL     OW66915   7.635   4.253   7.485  0.2292 -0.6979 -0.2274
83102SOL    HW166916   7.591   4.326   7.443  2.3576 -0.3050 -1.9256
83102SOL    HW266917   7.714   4.290   7.523 -0.2290 -1.5802  1.7503
83103SOL     OW66918   4.361   1.768   8.841  0.4556  0.8184  0.0824
83103SOL    HW166919   4.305   1.718   8.901  1.2148  0.3435  0.4173
83103SOL    HW266920   4.336   1.738   8.754  0.5593  0.2135  0.2561
83104SOL     OW66921  12.155  10.313  12.483 -0.0951  0.1854 -0.2927
83104SOL    HW166922  12.199  10.392  12.453 -0.1722  1.5974  2.8797
83104SOL    HW266923  12.066  10.320  12.450  0.0846  1.0935 -0.6044
83105SOL     OW66924  13.167  12.337   0.903  0.5134 -0.4797  0.2410
83105SOL    HW166925  13.239  12.356   0.963 -0.1107  0.3359  0.7652
83105SOL    HW266926  13.130  12.423   0.883 -0.2452 -0.8789 -0.0923
83106SOL     OW66927   2.666  13.078   9.080 -0.3556  0.1594  0.0618
83106SOL    HW166928   2.575  13.049   9.074 -0.3667 -0.0162  1.0120
83106SOL    HW266929   2.716  13.009   9.037 -0.4978 -0.6829  1.2178
83107SOL     OW66930   0.246   6.256  13.983 -0.8614  0.4343 -0.1957
83107SOL    HW166931   0.161   6.221  14.010 -1.0808  0.6640 -0.5923
83107SOL    HW266932   0.227   6.344  13.949 -0.5772  0.1807 -1.0303
83108SOL     OW66933   8.672   1.717   3.832  0.3813 -0.6285 -0.1951
83108SOL    HW166934   8.650   1.772   3.907  0.4237 -0.7031 -0.1275
83108SOL    HW266935   8.677   1.629   3.868  0.5622 -0.6438 -0.2534
83109SOL     OW66936   2.932   4.342   0.787  0.1261  0.4189 -0.3842
83109SOL    HW166937   3.025   4.329   0.770  0.0177  0.0338 -0.6873
83109SOL    HW266938   2.901   4.258   0.821 -0.2264  0.3779 -0.8005
83110SOL     OW66939  11.527   2.136   2.864 -0.1506 -0.7755 -0.8223
83110SOL    HW166940  11.586   2.062   2.853 -0.5833 -1.1511 -0.6268
83110SOL    HW266941  11.579   2.212   2.836  0.1996 -1.1804 -1.2944
83111SOL     OW66942   8.279   2.747   9.113 -0.6148 -0.3667  0.4409
83111SOL    HW166943   8.365   2.730   9.074 -1.3636 -1.0897 -0.9637
83111SOL    HW266944   8.259   2.668   9.162 -0.0471  0.2133  1.6623
83112SOL     OW66945   0.144   4.262   0.795 -0.7700  0.2667 -0.0719
83112SOL    HW166946   0.172   4.353   0.796 -0.1654  0.0888 -0.1739
83112SOL    HW266947   0.210   4.216   0.846 -0.0433 -0.3885 -1.5242
83113SOL     OW66948   9.633   9.719   1.301  0.0563 -0.0238 -0.1970
83113SOL    HW166949   9.719   9.725   1.343  0.1187 -1.6398 -0.0340
83113SOL    HW266950   9.570   9.717   1.373 -0.1065  0.6495 -0.3052
83114SOL     OW66951  13.494   0.676   1.410  0.1403 -0.3207  0.3605
83114SOL    HW166952  13.427   0.730   1.367 -1.5505 -1.9914  0.7661
83114SOL    HW266953  13.536   0.735   1.472 -0.9731  0.7889  0.1002
83115SOL     OW66954  13.879   0.479   1.044  0.2974 -0.4293 -0.3767
83115SOL    HW166955  13.960   0.506   1.001  0.4276  0.9255  0.6289
83115SOL    HW266956  13.810   0.509   0.985  0.4814  1.0885  0.1278
83116SOL     OW66957  10.517   3.037   1.278  0.2510  0.1089  0.1024
83116SOL    HW166958  10.490   3.041   1.187 -0.1657  1.0651  0.2592
83116SOL    HW266959  10.588   2.973   1.279  0.1104 -0.0758 -0.8479
83117SOL     OW66960  13.619   8.163   2.089  0.3396 -0.1828 -0.0057
83117SOL    HW166961  13.673   8.239   2.111  0.3364 -0.0490 -0.4352
83117SOL    HW266962  13.682   8.093   2.073  0.4627  0.2104 -1.4220
83118SOL     OW66963   3.132  13.087  12.149  0.2244 -0.1063  0.0904
83118SOL    HW166964   3.102  13.003  12.182  0.5531 -0.0804  0.4686
83118SOL    HW266965   3.192  13.065  12.078  0.8065 -0.2206  0.6040
83119SOL     OW66966   4.927   7.368   5.632  0.2838  0.2450  1.0525
83119SOL    HW166967   4.974   7.385   5.551 -0.0930  0.5609  0.8968
83119SOL    HW266968   4.994   7.370   5.700  1.4706 -4.5945  0.3426
83120SOL     OW66969  13.210   7.226  13.116 -0.2956  0.5433 -0.3537
83120SOL    HW166970  13.154   7.227  13.193  0.1252 -0.0116 -0.0356
83120SOL    HW266971  13.218   7.133  13.093 -0.1879  0.6796 -0.8971
83121SOL     OW66972  13.419   3.434   6.181 -0.0790 -0.1041 -0.4041
83121SOL    HW166973  13.421   3.481   6.265 -0.9857  0.7640 -0.8435
83121SOL    HW266974  13.505   3.451   6.142 -0.3907  1.2649 -0.5619
83122SOL     OW66975   0.558  10.666  12.249 -0.2517 -0.3861 -0.0032
83122SOL    HW166976   0.591  10.660  12.159  0.8096  0.9054  0.2646
83122SOL    HW266977   0.609  10.602  12.298  0.3763  0.1013 -0.0067
83123SOL     OW66978   0.789   9.419  12.861 -0.4064 -0.6154  0.3787
83123SOL    HW166979   0.752   9.505  12.839 -0.3523 -0.6634  0.0974
83123SOL    HW266980   0.871   9.415  12.811  0.3875 -0.1775  1.6139
83124SOL     OW66981  10.294   0.385   6.956  0.2395  0.0949  0.4467
83124SOL    HW166982  10.297   0.477   6.983  0.7428  0.2127 -0.0153
83124SOL    HW266983  10.377   0.370   6.912 -0.3622 -0.2377 -0.6028
83125SOL     OW66984   7.990  12.426   9.471 -0.5804 -0.8659  0.3055
83125SOL    HW166985   7.963  12.496   9.411 -0.8045  1.5581  3.0107
83125SOL    HW266986   7.918  12.419   9.533  0.2456 -2.2946  1.1620
83126SOL     OW66987   2.149  13.403   3.265  0.2605  0.6887  0.4938
83126SOL    HW166988   2.076  13.349   3.296  0.8870  0.3487  1.4076
83126SOL    HW266989   2.193  13.432   3.345  0.8134  1.3437 -0.0318
83127SOL     OW66990   9.752   8.533  13.546 -0.0175  0.1279 -0.5303
83127SOL    HW166991   9.778   8.540  13.454  0.3165  0.9315 -0.3875
83127SOL    HW266992   9.823   8.484  13.587  0.5388  0.9846 -0.4415
83128SOL     OW66993   5.830  10.851   9.477  0.2764  0.2414  0.9251
83128SOL    HW166994   5.766  10.846   9.406 -0.0175 -0.9056  1.2532
83128SOL    HW266995   5.906  10.893   9.437 -0.4624  1.1283  0.3824
83129SOL     OW66996   0.628   5.984   9.525 -0.3961  0.4160 -0.1989
83129SOL    HW166997   0.684   6.061   9.522 -0.6839  0.6174 -0.4300
83129SOL    HW266998   0.549   6.012   9.570 -1.1784  0.7178 -1.6776
83130SOL     OW66999   5.634   0.113   7.876 -0.0501 -0.0635 -0.2285
83130SOL    HW167000   5.566   0.113   7.809  1.0071  0.9112 -1.3603
83130SOL    HW267001   5.590   0.145   7.955 -1.1605 -0.5510 -0.6398
83131SOL     OW67002   3.301  10.802   6.396 -0.2040  0.0825  0.3445
83131SOL    HW167003   3.378  10.858   6.404 -0.3285  0.6702 -1.7584
83131SOL    HW267004   3.249  10.820   6.474  0.7327  1.3739  0.7007
83132SOL     OW67005   2.826   7.090  10.610 -0.6478 -0.5444 -0.1776
83132SOL    HW167006   2.794   7.066  10.697  0.2155 -3.3369 -0.5508
83132SOL    HW267007   2.884   7.165  10.626 -1.7998  0.0582  1.4006
83133SOL     OW67008  11.718   6.198   5.861  0.2476 -0.0026 -0.2221
83133SOL    HW167009  11.658   6.197   5.787 -2.6717 -0.0698  1.9453
83133SOL    HW267010  11.750   6.108   5.868 -1.7648 -0.7346  0.2518
83134SOL     OW67011   0.017   8.512  12.652 -0.2003 -0.4346  0.6231
83134SOL    HW167012   0.095   8.470  12.688 -0.5938 -1.6904  0.0463
83134SOL    HW267013   0.012   8.596  12.698  1.7200 -0.1365  0.3798
83135SOL     OW67014  13.844  12.935   0.612 -0.3065 -0.2686  0.3988
83135SOL    HW167015  13.808  12.856   0.572 -1.0050  1.2699 -2.2896
83135SOL    HW267016  13.939  12.923   0.609 -0.4082 -1.9106  2.1664
83136SOL     OW67017  11.468   8.381  14.071  0.9404  0.4438  0.2053
83136SOL    HW167018  11.425   8.464  14.091 -1.0763 -0.4526 -0.1625
83136SOL    HW267019  11.543   8.378  14.130  0.2944  1.9245  1.1576
83137SOL     OW67020   1.404   7.379   0.414  0.2084  0.0228 -0.3212
83137SOL    HW167021   1.426   7.472   0.416  1.0907 -0.1845  0.8740
83137SOL    HW267022   1.312   7.376   0.443  0.1186  0.5356 -0.5394
83138SOL     OW67023   3.920   0.960   9.041  0.6832 -0.1340  0.2551
83138SOL    HW167024   3.871   0.893   9.088  0.9479 -1.0338 -0.7072
83138SOL    HW267025   3.989   0.987   9.102  0.2386 -0.3298  0.8536
83139SOL     OW67026  10.736  10.862  13.931  0.1132  0.0842  0.1645
83139SOL    HW167027  10.729  10.837  13.839 -0.4750 -0.3655  0.3271
83139SOL    HW267028  10.733  10.779  13.979 -0.6527  0.3809  0.6420
83140SOL     OW67029   0.805   4.449   3.183  0.3903  0.0782 -0.1308
83140SOL    HW167030   0.729   4.446   3.241  0.5957  1.6534  0.2487
83140SOL    HW267031   0.769   4.474   3.098  0.4338  0.4798 -0.0326
83141SOL     OW67032   6.727   8.760   3.452  0.1139  0.4460 -0.1948
83141SOL    HW167033   6.644   8.781   3.409 -0.6177  0.7302  1.2904
83141SOL    HW267034   6.769   8.845   3.465  0.5802  0.3155 -0.7897
83142SOL     OW67035   4.097   4.203   8.895 -0.2546  0.0816 -0.0079
83142SOL    HW167036   4.033   4.139   8.864 -1.0656  0.4969  0.7583
83142SOL    HW267037   4.050   4.286   8.894  0.1694  0.3485  0.8566
83143SOL     OW67038   5.794   4.098  11.390  0.3853 -0.1528 -0.2020
83143SOL    HW167039   5.724   4.039  11.363 -0.3394  1.1803 -1.4078
83143SOL    HW267040   5.791   4.098  11.486 -0.0569 -1.4882 -0.2021
83144SOL     OW67041  13.493   1.360   7.795  0.1233 -0.3628 -0.8373
83144SOL    HW167042  13.416   1.403   7.757 -0.7756 -2.1237 -1.1433
83144SOL    HW267043  13.567   1.395   7.747 -0.5158  1.1125 -0.7860
83145SOL     OW67044   0.807  12.181   0.041 -0.1009  0.9335  0.0755
83145SOL    HW167045   0.873  12.167   0.110  0.1851  3.8424  0.5024
83145SOL    HW267046   0.833  12.263  -0.001 -2.4214  1.1889 -1.0061
83146SOL     OW67047  13.278   5.900   5.001  0.5879  0.0763  0.3607
83146SOL    HW167048  13.372   5.892   5.018  0.7259  0.8204 -0.0093
83146SOL    HW267049  13.260   5.836   4.932  0.6921 -0.5147  0.8720
83147SOL     OW67050  11.020   6.401  10.643 -0.1056  0.1564  0.0538
83147SOL    HW167051  11.014   6.393  10.738  0.1046 -1.5510 -0.0348
83147SOL    HW267052  10.929   6.398  10.613 -0.1614  0.4907  0.1889
83148SOL     OW67053   1.895  14.057  11.460  0.3360  0.1622 -0.2632
83148SOL    HW167054   1.935  14.144  11.460 -0.0681  0.3508 -0.2897
83148SOL    HW267055   1.826  14.063  11.395 -0.4150  0.1588  0.5233
83149SOL     OW67056  11.360  13.907  12.619 -0.3630  0.4573  0.1500
83149SOL    HW167057  11.366  13.840  12.551  3.3165 -1.9516  2.5101
83149SOL    HW267058  11.305  13.868  12.687  0.5382  0.4126  0.8761
83150SOL     OW67059   0.914   6.560   1.241  0.2907  0.7002 -0.1359
83150SOL    HW167060   0.975   6.630   1.267  2.0019 -0.4930 -0.7321
83150SOL    HW267061   0.878   6.589   1.158 -0.5776  1.7716  0.5878
83151SOL     OW67062   3.248   4.415   3.061  0.3728 -0.2091 -0.2055
83151SOL    HW167063   3.240   4.363   2.981 -0.9224 -0.3906  0.0035
83151SOL    HW267064   3.334   4.393   3.096  0.8015 -0.4138 -1.3438
83152SOL     OW67065   5.277   4.366   1.894  0.0218 -0.1933 -0.0194
83152SOL    HW167066   5.204   4.393   1.840  2.4730 -0.0267 -3.5632
83152SOL    HW267067   5.280   4.432   1.964 -2.6500  0.2371 -0.2142
83153SOL     OW67068   3.150  11.882   7.650  0.1988 -0.4507 -0.0173
83153SOL    HW167069   3.222  11.938   7.618  0.9741 -1.0558  0.6360
83153SOL    HW267070   3.194  11.809   7.694 -0.8294 -0.3398  1.2519
83154SOL     OW67071   4.092   5.528   2.569  0.6315 -0.4999  0.2632
83154SOL    HW167072   4.181   5.546   2.539  1.3124 -0.2637  2.2842
83154SOL    HW267073   4.085   5.432   2.565  1.9313 -0.7644  2.4159
83155SOL     OW67074   1.373   5.165   5.804 -0.2853  0.1402 -0.0582
83155SOL    HW167075   1.448   5.213   5.769  0.1105 -0.1743  0.3558
83155SOL    HW267076   1.410   5.109   5.872 -0.8690 -0.1507  0.0218
83156SOL     OW67077   7.326   5.308   7.761 -0.0880 -0.0818 -0.7001
83156SOL    HW167078   7.354   5.351   7.842 -2.3905  0.3448 -0.0514
83156SOL    HW267079   7.324   5.378   7.696 -3.2173  0.8351  0.2021
83157SOL     OW67080  10.702   7.764   6.648 -0.0470  0.1135  0.0819
83157SOL    HW167081  10.776   7.809   6.689 -0.3752 -0.4240  1.3009
83157SOL    HW267082  10.730   7.750   6.558  1.7954 -1.0073  0.7673
83158SOL     OW67083  12.293  11.837   1.711 -0.5091 -0.3552  0.4443
83158SOL    HW167084  12.277  11.904   1.777 -1.3862 -0.1534  0.0336
83158SOL    HW267085  12.238  11.763   1.737 -0.7626 -0.3217  0.0060
83159SOL     OW67086  10.765  13.091   0.551  0.3771 -0.5880  0.5110
83159SOL    HW167087  10.818  13.016   0.528  0.6435 -0.2617  0.0331
83159SOL    HW267088  10.693  13.091   0.487 -0.5487 -1.3710  1.5175
83160SOL     OW67089   4.294  12.390   6.437 -0.2109  0.5416  0.3834
83160SOL    HW167090   4.247  12.474   6.441  1.1934  1.3882 -0.1690
83160SOL    HW267091   4.247  12.334   6.499 -3.1843  0.6440 -1.5514
83161SOL     OW67092   5.337   5.268   3.152  1.0437 -0.1403  0.2361
83161SOL    HW167093   5.394   5.205   3.108 -0.0243 -0.0072 -1.4315
83161SOL    HW267094   5.320   5.229   3.238 -0.0701 -2.4892 -0.9541
83162SOL     OW67095   4.409  11.354   8.443  0.7927  0.0657 -0.0363
83162SOL    HW167096   4.500  11.341   8.468  0.6394 -0.6305  0.1902
83162SOL    HW267097   4.406  11.441   8.404  1.8590 -0.5050 -1.4668
83163SOL     OW67098  13.821   4.419  11.996  0.2459 -0.3180 -0.4046
83163SOL    HW167099  13.804   4.495  12.052  0.5528 -1.3288  1.1063
83163SOL    HW267100  13.751   4.357  12.017  0.4535 -0.7852 -1.0364
83164SOL     OW67101   8.658   5.169   0.381 -0.0474  0.5736  0.3637
83164SOL    HW167102   8.649   5.248   0.328  0.1924 -0.7727 -1.8160
83164SOL    HW267103   8.569   5.137   0.394 -0.0477  0.3314 -0.1963
83165SOL     OW67104   9.198   8.629  13.010  0.1147  0.4540 -0.3466
83165SOL    HW167105   9.126   8.662  12.956 -0.2348  0.4688  0.1257
83165SOL    HW267106   9.193   8.534  13.001 -0.0030  0.4527 -0.2567
83166SOL     OW67107   0.033  11.857  12.393  1.1127  0.0260  0.4107
83166SOL    HW167108  -0.006  11.934  12.353  0.7178 -0.4464 -0.1292
83166SOL    HW267109   0.035  11.877  12.487  0.7689  0.5829  0.3032
83167SOL     OW67110  10.207   9.409  13.743  0.4071 -0.0722 -0.3223
83167SOL    HW167111  10.173   9.496  13.720 -0.0400 -0.2271 -0.2557
83167SOL    HW267112  10.176   9.395  13.832  0.1095 -0.4890 -0.4932
83168SOL     OW67113   4.022   4.384  10.743  0.2275  0.3469  0.2145
83168SOL    HW167114   3.951   4.374  10.680 -1.2390 -1.1648  1.9774
83168SOL    HW267115   4.059   4.296  10.753  1.2328  0.7878  0.5854
83169SOL     OW67116   2.507   8.678  11.681  0.1081 -0.6032 -0.4074
83169SOL    HW167117   2.559   8.603  11.706  1.0501 -0.0953 -0.7942
83169SOL    HW267118   2.570   8.750  11.674 -1.0406  0.7881  2.1643
83170SOL     OW67119   5.561  11.568   4.439  0.0861 -0.0074 -0.1344
83170SOL    HW167120   5.624  11.615   4.494 -1.1833  0.8107  0.6897
83170SOL    HW267121   5.605  11.486   4.417  1.3945  0.4974  0.4840
83171SOL     OW67122  11.684  13.394  13.662  0.0504 -0.0647  0.1291
83171SOL    HW167123  11.631  13.430  13.733  1.6959  1.0420  0.8509
83171SOL    HW267124  11.670  13.455  13.589  0.0670  0.0187  0.1962
83172SOL     OW67125   7.638   6.997   2.350  0.2432 -0.2941  0.1429
83172SOL    HW167126   7.628   7.086   2.383  0.8842  0.0512 -0.5816
83172SOL    HW267127   7.669   6.947   2.426  0.5403  0.2372  0.3782
83173SOL     OW67128   5.311  10.565   7.678 -0.4414  0.4231  0.0769
83173SOL    HW167129   5.396  10.524   7.662 -0.5365  0.4155 -0.4412
83173SOL    HW267130   5.255  10.493   7.708 -0.6643  0.1143 -1.0323
83174SOL     OW67131   3.127   7.555   8.750 -0.2195  0.0130  0.1558
83174SOL    HW167132   3.119   7.621   8.818  0.3460  0.2634 -0.0171
83174SOL    HW267133   3.151   7.475   8.796  2.5345  0.6907  0.0742
83175SOL     OW67134   3.409  12.942   4.728 -0.1572 -0.1603 -0.0700
83175SOL    HW167135   3.331  12.914   4.680 -1.4440 -0.4703  2.0620
83175SOL    HW267136   3.405  13.038   4.725 -0.3490 -0.1768 -0.4014
83176SOL     OW67137   3.209   9.445   8.339  0.0676  0.3458  0.4149
83176SOL    HW167138   3.162   9.528   8.331 -1.7419 -0.5320  1.0842
83176SOL    HW267139   3.277   9.462   8.404  0.7630  1.6979 -0.6264
83177SOL     OW67140   9.897   1.531   3.510 -0.0065 -0.2182  0.5005
83177SOL    HW167141   9.978   1.501   3.552 -0.3523  0.2750  1.5581
83177SOL    HW267142   9.901   1.627   3.516 -0.2055 -0.1497 -0.3436
83178SOL     OW67143  10.048   3.498  13.610 -0.3485  0.2043  0.3981
83178SOL    HW167144  10.034   3.563  13.679 -0.7143  1.9549 -1.2391
83178SOL    HW267145  10.099   3.429  13.652 -1.8061  0.4860  2.7741
83179SOL     OW67146   7.261   0.806  12.518  0.5964  0.5122 -0.2283
83179SOL    HW167147   7.207   0.740  12.473  0.3921  0.7957 -0.3973
83179SOL    HW267148   7.279   0.767  12.604  0.6805  0.1294 -0.4155
83180SOL     OW67149  12.299   0.490  13.890  0.4661 -0.1052  0.2910
83180SOL    HW167150  12.288   0.485  13.795  0.7463 -1.5726  0.3113
83180SOL    HW267151  12.310   0.399  13.917  0.5878  0.3169  1.7108
83181SOL     OW67152  13.304   5.351   3.501  0.0707  0.5151  0.2106
83181SOL    HW167153  13.273   5.260   3.501 -1.1113  0.8400 -1.7554
83181SOL    HW267154  13.399   5.344   3.497  0.0515 -0.6119  1.1825
83182SOL     OW67155   0.643  10.885   6.907 -0.0984  0.6224  0.1633
83182SOL    HW167156   0.641  10.826   6.983 -0.3286 -1.9651 -1.7313
83182SOL    HW267157   0.730  10.925   6.910 -0.2606  0.9545  1.9952
83183SOL     OW67158   0.849  12.795   4.261  0.7842  0.1640  0.0066
83183SOL    HW167159   0.902  12.800   4.341  0.8302  1.4262 -0.0958
83183SOL    HW267160   0.866  12.707   4.227  3.8167  0.8854 -0.6873
83184SOL     OW67161   4.014   5.094   2.905 -0.1953  0.0168  0.1657
83184SOL    HW167162   3.930   5.096   2.950  0.1292 -0.7629  0.8407
83184SOL    HW267163   4.054   5.180   2.924 -0.8003  0.3593 -0.1008
83185SOL     OW67164   7.800   1.901  13.153 -0.3925 -0.6775  0.3853
83185SOL    HW167165   7.875   1.904  13.093 -1.2578  0.4938 -0.6949
83185SOL    HW267166   7.729   1.862  13.102 -1.3217  0.9067  0.3805
83186SOL     OW67167   8.891   2.835  11.444  0.2659 -0.3416  0.0727
83186SOL    HW167168   8.816   2.849  11.501 -0.8219  0.0011 -1.3848
83186SOL    HW267169   8.856   2.840  11.355  1.6788 -2.0097 -0.6542
83187SOL     OW67170  11.062  12.607  12.394  0.0472 -0.0673  0.0747
83187SOL    HW167171  11.009  12.536  12.430 -0.0856 -0.5587 -1.0405
83187SOL    HW267172  11.129  12.623  12.461  0.4496 -1.6663  0.0937
83188SOL     OW67173   9.873  13.830  10.774  0.2444 -0.1374  0.3364
83188SOL    HW167174   9.799  13.832  10.714 -0.3480 -0.7596  1.0251
83188SOL    HW267175   9.949  13.812  10.717 -0.0573  0.8958 -0.4207
83189SOL     OW67176   0.348  10.954  13.557  0.1777 -0.8070  0.4069
83189SOL    HW167177   0.319  11.023  13.616 -0.9061  0.5513 -1.6149
83189SOL    HW267178   0.276  10.943  13.495  1.9576 -0.8646 -1.7895
83190SOL     OW67179   9.537  13.535   5.910  0.1493 -0.1601 -0.1900
83190SOL    HW167180   9.560  13.462   5.854  1.4074 -0.9534  1.2785
83190SOL    HW267181   9.482  13.497   5.979 -0.5000  0.5835 -0.2823
83191SOL     OW67182   4.590  13.262   2.154 -0.0312  0.4894 -0.5343
83191SOL    HW167183   4.517  13.204   2.130  0.0870  0.4125 -0.7062
83191SOL    HW267184   4.668  13.215   2.125  0.1097  0.4217 -0.0541
83192SOL     OW67185   5.605  13.062   2.178  0.0136  0.1005 -0.1380
83192SOL    HW167186   5.551  13.136   2.154  0.4043  0.9075  1.3156
83192SOL    HW267187   5.598  13.001   2.104 -1.1228  1.1239 -0.9064
83193SOL     OW67188  14.052   0.917   7.284  0.1975 -0.2821  0.0609
83193SOL    HW167189  14.128   0.912   7.226 -0.0875  0.3261 -0.3829
83193SOL    HW267190  14.070   0.992   7.341 -0.2265  0.0974 -0.2930
83194SOL     OW67191   7.761   2.287   8.593 -0.6871  0.2668  0.1569
83194SOL    HW167192   7.720   2.293   8.679 -1.2047  0.3838 -0.0905
83194SOL    HW267193   7.784   2.377   8.571 -1.3818  0.3629 -0.2119
83195SOL     OW67194   3.574   7.637   9.375  0.5282  0.0423 -0.0247
83195SOL    HW167195   3.647   7.576   9.386  0.4208 -0.1685 -0.4860
83195SOL    HW267196   3.510   7.589   9.323  0.5998  0.6831 -0.7087
83196SOL     OW67197   7.170   2.793  11.135  0.3494  0.4906  0.3462
83196SOL    HW167198   7.184   2.762  11.225  0.6044 -0.6441 -0.0615
83196SOL    HW267199   7.078   2.774  11.117  1.0665 -2.5235 -0.7567
83197SOL     OW67200   1.948   2.816  10.885  0.0744 -0.0525 -0.2514
83197SOL    HW167201   2.001   2.896  10.893 -0.6770  0.4603 -0.3303
83197SOL    HW267202   1.944   2.781  10.974 -1.2072  1.0603  0.1511
83198SOL     OW67203   5.522  13.255   4.740 -0.0531 -0.2529  0.0582
83198SOL    HW167204   5.435  13.292   4.755 -0.4148 -1.1067  0.1211
83198SOL    HW267205   5.581  13.330   4.744 -0.6223  0.1586  1.4367
83199SOL     OW67206   6.566   6.659   6.206  0.0014 -0.1075  0.0610
83199SOL    HW167207   6.498   6.710   6.162  0.0076  0.1025  0.2923
83199SOL    HW267208   6.527   6.573   6.219  0.2858 -0.4380 -1.0995
83200SOL     OW67209   4.987   2.723   4.400  0.3417 -0.5533  0.4472
83200SOL    HW167210   4.906   2.706   4.449  1.0683 -0.0329  1.9080
83200SOL    HW267211   5.002   2.817   4.411  0.9745 -0.5896 -0.0702
83201SOL     OW67212   9.066   9.656   3.764  1.1056  0.1652 -0.7785
83201SOL    HW167213   9.045   9.567   3.735  1.4955 -0.3440  0.4281
83201SOL    HW267214   9.009   9.712   3.712  0.3632 -0.8400 -1.0835
83202SOL     OW67215  10.203   1.716   8.897  0.1711 -0.3773  0.1630
83202SOL    HW167216  10.221   1.792   8.951  2.8672 -0.9936  0.2970
83202SOL    HW267217  10.195   1.751   8.808 -0.1838  0.2215  0.4304
83203SOL     OW67218   6.085   3.806   6.223  0.1645  0.1202  0.1534
83203SOL    HW167219   6.158   3.752   6.254  1.7624  2.2445  0.2695
83203SOL    HW267220   6.012   3.744   6.215  1.9275 -2.0864  0.0674
83204SOL     OW67221  11.181  11.954  13.920  0.2188  0.3727 -0.0413
83204SOL    HW167222  11.121  11.952  13.994  0.5795  1.4033  0.2937
83204SOL    HW267223  11.245  11.884  13.938 -0.2358 -0.0014  0.1395
83205SOL     OW67224  10.925   2.399  13.389  0.0623 -0.3740  0.7505
83205SOL    HW167225  10.987   2.356  13.446  0.6391 -1.2403 -0.4877
83205SOL    HW267226  10.960   2.487  13.377 -0.9335  0.3970  3.0066
83206SOL     OW67227   6.418  13.411   1.500 -0.1901 -0.1706 -0.7251
83206SOL    HW167228   6.373  13.347   1.555  0.9918 -0.5685 -0.1742
83206SOL    HW267229   6.348  13.455   1.451 -1.2544  0.0575  0.9445
83207SOL     OW67230   8.052   7.378   1.505 -0.0610 -0.3912 -0.1690
83207SOL    HW167231   8.097   7.320   1.443 -0.9333 -0.5383 -0.6763
83207SOL    HW267232   7.991   7.320   1.552 -1.4162  0.1972 -1.1395
83208SOL     OW67233   7.886   8.711   0.310 -0.5823 -0.4683 -0.5389
83208SOL    HW167234   7.956   8.703   0.374  0.7546  0.5635 -1.8130
83208SOL    HW267235   7.858   8.802   0.317  0.0416 -0.1554 -1.8544
83209SOL     OW67236  11.454  13.989   2.984  0.6932  0.2299 -0.3917
83209SOL    HW167237  11.450  13.906   2.936 -1.2903  0.5063 -0.7552
83209SOL    HW267238  11.394  14.047   2.938  1.1666  1.5119  0.5558
83210SOL     OW67239   6.112   8.035   3.320  0.2628  0.3054 -0.1508
83210SOL    HW167240   6.096   7.961   3.261  1.6988 -0.8457  0.8250
83210SOL    HW267241   6.087   8.002   3.406  1.4309  0.7564  0.3792
83211SOL     OW67242   1.228  11.727   3.762  0.1343  0.1225 -0.3358
83211SOL    HW167243   1.211  11.801   3.703  0.1975 -0.1631 -0.7161
83211SOL    HW267244   1.322  11.730   3.778 -0.0010  0.6708  0.3860
83212SOL     OW67245   5.428   9.026   0.958  0.1628  0.7441 -0.4690
83212SOL    HW167246   5.404   9.082   1.032  0.2320 -0.9427  0.9075
83212SOL    HW267247   5.400   8.939   0.984  0.2180  0.0815 -2.4587
83213SOL     OW67248   1.760  14.085   9.545  0.0831 -0.5348 -0.1293
83213SOL    HW167249   1.706  14.043   9.611 -0.2598 -0.9152 -0.6376
83213SOL    HW267250   1.751  14.029   9.468 -0.7692  0.7082 -0.9771
83214SOL     OW67251   5.059   0.291  11.316  0.0512 -0.7039  0.2919
83214SOL    HW167252   5.066   0.278  11.221 -1.0442 -0.7211  0.2016
83214SOL    HW267253   4.965   0.291  11.334  0.2353 -0.5083  1.3580
83215SOL     OW67254   5.567   3.481   3.834  0.0625 -0.1355 -0.0432
83215SOL    HW167255   5.491   3.476   3.775  0.4833  2.8964 -1.0211
83215SOL    HW267256   5.547   3.555   3.892  2.8316  1.8362 -1.3749
83216SOL     OW67257   6.917   3.010   7.890 -0.0652  0.2020 -0.3050
83216SOL    HW167258   6.882   3.047   7.971  1.5570 -0.7219  0.8677
83216SOL    HW267259   6.977   3.078   7.858  0.5390 -0.1044  0.1645
83217SOL     OW67260   7.856  12.846   4.977 -0.0546 -0.5284  0.0311
83217SOL    HW167261   7.880  12.924   5.026  1.6099 -0.1877 -1.2202
83217SOL    HW267262   7.932  12.788   4.986  0.0562 -0.6805 -1.6037
83218SOL     OW67263  11.371   4.303   6.138  0.3659 -0.8450 -0.2819
83218SOL    HW167264  11.358   4.210   6.157  0.6217 -0.4037  2.5037
83218SOL    HW267265  11.362   4.346   6.223 -0.7012  1.8189 -1.6289
83219SOL     OW67266   3.244   0.043  12.509 -0.3742  0.0765 -0.1667
83219SOL    HW167267   3.215   0.124  12.466  1.0896  0.3471 -0.7030
83219SOL    HW267268   3.304   0.072  12.578 -0.5153 -0.5050  0.2070
83220SOL     OW67269  10.644   3.660   6.280  0.2284 -0.5654 -0.8752
83220SOL    HW167270  10.671   3.686   6.368  1.0506 -1.5687 -0.8228
83220SOL    HW267271  10.564   3.609   6.293  1.7490 -2.9871 -0.4112
83221SOL     OW67272  10.445  11.973   2.849  0.1035  0.4515 -0.2835
83221SOL    HW167273  10.375  11.910   2.833 -0.1438  1.3398 -3.4123
83221SOL    HW267274  10.515  11.921   2.889 -1.2964 -1.0419  0.3551
83222SOL     OW67275   0.781  10.477   3.190 -0.0618 -0.1114 -0.3486
83222SOL    HW167276   0.869  10.452   3.162 -0.7778 -1.3637 -1.6226
83222SOL    HW267277   0.758  10.552   3.135 -0.6909 -1.3132 -1.7966
83223SOL     OW67278  13.837   7.377   0.092  0.1632  0.4586 -0.2226
83223SOL    HW167279  13.757   7.422   0.119  0.4264  1.1168 -0.5291
83223SOL    HW267280  13.826   7.287   0.125 -0.5832  0.6084 -0.0400
83224SOL     OW67281  11.015   3.697  13.234 -0.2854 -0.1084  0.4083
83224SOL    HW167282  10.970   3.646  13.166 -0.0639  0.4268 -0.1525
83224SOL    HW267283  11.028   3.783  13.194  0.8383 -0.1188  0.7234
83225SOL     OW67284  13.337  12.993   5.832 -0.0439 -0.0469  0.2565
83225SOL    HW167285  13.409  12.979   5.893 -0.3411 -0.8576  0.4414
83225SOL    HW267286  13.366  12.952   5.751  0.7508  1.8673 -0.4749
83226SOL     OW67287  12.097  10.613  12.290 -0.2724  0.1018 -0.2617
83226SOL    HW167288  12.036  10.668  12.339 -0.5481 -0.4019 -0.0423
83226SOL    HW267289  12.170  10.599  12.350  0.7182  1.8225 -0.9815
83227SOL     OW67290   4.931  13.739   0.431 -0.2387  0.2458  0.2426
83227SOL    HW167291   4.868  13.742   0.359 -0.1087  0.2710  0.1292
83227SOL    HW267292   4.889  13.786   0.503  0.7949  2.8511 -0.7335
83228SOL     OW67293   6.920   2.744   4.842  0.2037 -0.0393 -0.3310
83228SOL    HW167294   6.890   2.667   4.794  1.7335 -0.9602  0.1463
83228SOL    HW267295   6.906   2.723   4.934 -0.7729  0.8927 -0.2386
83229SOL     OW67296   6.575   0.288   2.414  0.4812 -0.5110 -0.6530
83229SOL    HW167297   6.643   0.265   2.351  0.3783 -1.1474 -0.5414
83229SOL    HW267298   6.533   0.366   2.377  0.5566 -0.7578 -1.2666
83230SOL     OW67299   0.026   0.307  12.555  0.0600 -0.0616  0.8892
83230SOL    HW167300   0.078   0.287  12.477  0.4229 -2.3588  1.6447
83230SOL    HW267301  -0.023   0.386  12.532 -0.3828 -1.0647 -1.9109
83231SOL     OW67302  10.011   2.568  10.845  0.3217  0.0437  0.1236
83231SOL    HW167303   9.961   2.624  10.786  0.3648  1.0079  0.9928
83231SOL    HW267304   9.982   2.592  10.933  0.3418 -1.2926  0.5271
83232SOL     OW67305   8.320   8.780  13.583  0.3193  0.2648  0.9442
83232SOL    HW167306   8.246   8.780  13.644 -1.1890 -0.1218 -0.8087
83232SOL    HW267307   8.294   8.720  13.513  1.8524  0.9013 -0.2327
83233SOL     OW67308   3.698   6.298   0.770  0.6318  0.6326 -0.1509
83233SOL    HW167309   3.790   6.325   0.765  0.1522  2.2774 -0.6904
83233SOL    HW267310   3.672   6.283   0.679  0.4440 -0.1553  0.0250
83234SOL     OW67311   8.418   1.417  13.207  0.6198  0.0247 -0.2382
83234SOL    HW167312   8.405   1.355  13.136  1.0714 -0.1415 -0.1787
83234SOL    HW267313   8.347   1.481  13.197  1.2606  0.5692 -1.4308
83235SOL     OW67314   0.768  12.040   7.610  0.2654  0.4032 -0.1049
83235SOL    HW167315   0.819  11.970   7.569  0.5680  1.5113 -1.6935
83235SOL    HW267316   0.678  12.008   7.610  0.6520 -0.7854  1.0142
83236SOL     OW67317   8.923   2.693  12.141 -0.7602  0.1540 -0.1705
83236SOL    HW167318   8.865   2.631  12.096  2.1461 -2.8339 -0.2288
83236SOL    HW267319   8.919   2.668  12.233  0.7761 -0.5562 -0.2529
83237SOL     OW67320   8.478   3.287   9.675  0.1870 -0.2701 -0.0328
83237SOL    HW167321   8.524   3.275   9.758  1.4758 -3.1960 -1.0286
83237SOL    HW267322   8.531   3.350   9.627  1.2145 -0.9319  0.2014
83238SOL     OW67323  11.333   6.551  11.844 -0.3978 -0.2121  0.3711
83238SOL    HW167324  11.404   6.521  11.901 -1.2869 -0.6183  1.2899
83238SOL    HW267325  11.261   6.571  11.904 -1.9284 -2.2300 -0.6770
83239SOL     OW67326   5.528  12.284   6.751 -0.2023 -0.1762 -0.1265
83239SOL    HW167327   5.524  12.319   6.662  1.2380 -0.3832 -0.2837
83239SOL    HW267328   5.609  12.319   6.787 -1.3368  0.8760  1.5448
83240SOL     OW67329  12.248   6.280  12.905 -0.4370 -0.7345  0.0392
83240SOL    HW167330  12.272   6.325  12.987 -0.5980 -1.8727  0.7227
83240SOL    HW267331  12.255   6.348  12.838 -1.7356  0.6075  1.1978
83241SOL     OW67332   0.629  11.259   5.686  0.0917 -0.3927 -0.4776
83241SOL    HW167333   0.588  11.300   5.610  0.2761 -0.9158 -0.8664
83241SOL    HW267334   0.606  11.166   5.678 -0.9328 -0.2747  0.7730
83242SOL     OW67335   6.065  11.280   6.450  0.2108  0.0641 -0.0329
83242SOL    HW167336   6.063  11.376   6.446 -0.3857  0.0499 -0.2618
83242SOL    HW267337   6.127  11.260   6.520  0.7420  0.6082 -0.3425
83243SOL     OW67338  12.800   1.824   2.679 -0.0211  0.1936  0.1814
83243SOL    HW167339  12.787   1.803   2.771 -1.3182 -1.1233 -0.2704
83243SOL    HW267340  12.765   1.748   2.632 -0.4484  1.3465 -1.4275
83244SOL     OW67341   1.185   0.031   8.254 -0.2841 -0.3860  0.2886
83244SOL    HW167342   1.265   0.067   8.293 -0.6241 -0.4124  1.0302
83244SOL    HW267343   1.139  -0.010   8.327 -1.9235  1.3079  0.3078
83245SOL     OW67344   1.220  12.034  12.476  0.4734  0.5348  0.5828
83245SOL    HW167345   1.256  11.980  12.406  1.2759 -1.0455  2.1305
83245SOL    HW267346   1.162  12.096  12.431  0.9083 -0.4382 -1.4427
83246SOL     OW67347   0.708  10.057  11.206  0.1743  0.8914 -0.0075
83246SOL    HW167348   0.718  10.025  11.116  0.6446 -1.1595  0.7222
83246SOL    HW267349   0.763  10.136  11.209  0.8051  0.5389 -1.2942
83247SOL     OW67350  10.519   2.363   2.671 -0.7283  0.3978  0.9362
83247SOL    HW167351  10.495   2.417   2.596 -1.3099  1.0450  1.5720
83247SOL    HW267352  10.521   2.274   2.637 -3.3615  0.3775  0.6496
83248SOL     OW67353  11.154  10.330   0.395 -0.6826  0.4589  0.2085
83248SOL    HW167354  11.182  10.292   0.312 -2.0178 -0.8703  0.3327
83248SOL    HW267355  11.062  10.354   0.381 -0.2514  2.4949  0.5537
83249SOL     OW67356  12.264   6.648   6.638  0.0496 -0.1060  0.2353
83249SOL    HW167357  12.303   6.627   6.553  0.2988  0.4968  0.1961
83249SOL    HW267358  12.255   6.744   6.637 -1.0472 -0.1919  0.4130
83250SOL     OW67359   1.096   5.575  13.438  0.2526  0.2209 -0.4536
83250SOL    HW167360   1.092   5.657  13.389  0.3945  0.6360  0.2286
83250SOL    HW267361   1.074   5.508  13.373 -3.1756  1.0420 -0.2966
83251SOL     OW67362  10.906  13.094   0.939 -0.2858  0.3294  0.1959
83251SOL    HW167363  10.834  13.137   0.891  0.2807  2.3124  1.0036
83251SOL    HW267364  10.977  13.088   0.875  0.5555  3.2009  0.6904
83252SOL     OW67365  13.472   8.841   1.399  0.4106  0.0451 -0.0094
83252SOL    HW167366  13.505   8.858   1.487  0.2567  0.0206  0.0531
83252SOL    HW267367  13.395   8.897   1.391  0.1166 -0.3523  0.0623
83253SOL     OW67368  12.429  11.848   4.031  0.0385 -0.1400  0.1241
83253SOL    HW167369  12.465  11.845   4.120  0.1916  0.3398  0.0840
83253SOL    HW267370  12.436  11.758   3.999  0.8863 -0.1292  0.2481
83254SOL     OW67371   1.494  11.499   8.294 -0.9509  0.4996  0.3559
83254SOL    HW167372   1.562  11.459   8.240 -1.3953 -0.0525  0.1847
83254SOL    HW267373   1.522  11.483   8.384 -1.5714 -1.0826  0.3146
83255SOL     OW67374  11.325   0.541   9.284 -0.0048  0.2902 -0.2769
83255SOL    HW167375  11.278   0.570   9.362  0.9493 -0.7773  0.7373
83255SOL    HW267376  11.417   0.556   9.305  0.2487  0.3620 -1.3685
83256SOL     OW67377   4.007   4.997   4.846  0.4372 -0.4593 -0.1175
83256SOL    HW167378   4.048   4.931   4.790  2.5209  0.6412  0.0197
83256SOL    HW267379   3.972   4.947   4.920  0.4990 -1.5745 -0.8120
83257SOL     OW67380   3.543   1.929  10.240  0.0162  0.5793 -0.2025
83257SOL    HW167381   3.464   1.982  10.244  1.3153  2.5667  1.1792
83257SOL    HW267382   3.512   1.840  10.221 -2.3601  1.5645 -1.3780
83258SOL     OW67383  11.073  11.167   9.325 -0.1778 -0.1638  0.5059
83258SOL    HW167384  10.997  11.183   9.269  2.4251  1.0648 -3.0455
83258SOL    HW267385  11.061  11.228   9.398 -1.0747  2.4621 -1.6654
83259SOL     OW67386  13.607   2.223   6.560 -0.0354 -0.1323 -0.0003
83259SOL    HW167387  13.626   2.314   6.538  1.3989  0.3577  2.7947
83259SOL    HW267388  13.512   2.221   6.573 -0.3677  0.4240 -2.0557
83260SOL     OW67389   3.285   6.963  12.907  0.1766  0.3694  0.2819
83260SOL    HW167390   3.196   6.972  12.940 -0.2517  0.0673 -0.7479
83260SOL    HW267391   3.274   6.938  12.815  1.3056 -0.9437  0.4669
83261SOL     OW67392   1.556   4.137  11.445 -0.1350 -0.1400  0.7908
83261SOL    HW167393   1.551   4.198  11.372 -0.8524  1.4233  2.0815
83261SOL    HW267394   1.562   4.192  11.523  0.9975 -1.7442  1.9200
83262SOL     OW67395  10.875  10.420   3.037 -0.1850 -0.4542  0.3534
83262SOL    HW167396  10.878  10.332   3.074  0.4008 -1.2039 -1.3666
83262SOL    HW267397  10.967  10.449   3.036 -0.0678 -0.7966 -1.2222
83263SOL     OW67398   5.001   2.435   2.456  0.3578 -0.0399 -0.2690
83263SOL    HW167399   4.941   2.445   2.530 -2.1486 -0.3014 -2.1640
83263SOL    HW267400   4.965   2.492   2.388  0.9432 -1.8848 -2.2397
83264SOL     OW67401  13.220   6.075   4.047  0.4292  0.3750 -0.1840
83264SOL    HW167402  13.155   6.051   4.112  0.8425  1.4442  0.6580
83264SOL    HW267403  13.197   6.164   4.021  0.6431  0.1929 -1.0494
83265SOL     OW67404  13.499  13.336   7.431 -0.4669 -0.0899 -0.5398
83265SOL    HW167405  13.475  13.258   7.381 -1.8957  1.5654 -2.5936
83265SOL    HW267406  13.423  13.393   7.425  0.9592  1.9733 -0.1336
83266SOL     OW67407   9.416   8.377   3.976 -0.3244 -0.4015 -0.1387
83266SOL    HW167408   9.396   8.401   4.066  1.7187  1.5738 -0.1370
83266SOL    HW267409   9.337   8.401   3.927 -0.2214  1.8255  0.6607
83267SOL     OW67410   7.664   2.298  13.208 -0.0176 -0.1289  0.0925
83267SOL    HW167411   7.597   2.363  13.228  1.0535  0.5692  1.6299
83267SOL    HW267412   7.671   2.245  13.287  0.3594 -1.0295 -0.5162
83268SOL     OW67413  11.663  10.242   0.994 -0.2507 -0.0313  0.3283
83268SOL    HW167414  11.679  10.314   0.933  1.2850 -0.0281  0.7014
83268SOL    HW267415  11.674  10.281   1.080  0.9134 -0.7704  0.5283
83269SOL     OW67416   0.254   5.993   0.642 -0.4751  0.0228 -0.1179
83269SOL    HW167417   0.278   6.051   0.570  0.5824  0.4645  0.5605
83269SOL    HW267418   0.285   6.039   0.720 -0.0217 -1.2545  0.4743
83270SOL     OW67419   9.862   2.935  14.034  0.1991  0.1661  0.2817
83270SOL    HW167420   9.885   2.918  13.943  1.7295 -1.0602  0.8623
83270SOL    HW267421   9.834   2.851  14.069  0.6819  0.3834  1.2306
83271SOL     OW67422   0.619   2.367   2.587 -0.2034 -0.3184 -0.0769
83271SOL    HW167423   0.575   2.387   2.504 -1.4057  0.7407  0.7955
83271SOL    HW267424   0.552   2.327   2.641  0.5725 -0.9796  0.4171
83272SOL     OW67425  12.575  12.576  13.942  0.0214  0.0937 -0.1250
83272SOL    HW167426  12.635  12.613  13.877  2.8587 -0.6933  1.8649
83272SOL    HW267427  12.540  12.651  13.989  1.1962  0.5110  0.1139
83273SOL     OW67428  11.042  12.373   9.623 -0.3804  0.3222  0.6143
83273SOL    HW167429  11.013  12.295   9.574 -1.0706  0.9093  0.0623
83273SOL    HW267430  11.120  12.403   9.577 -0.0118 -0.1277  0.9291
83274SOL     OW67431   0.228  11.905   1.083  0.1078 -0.4205  0.1666
83274SOL    HW167432   0.303  11.851   1.057 -0.1466 -0.9588  0.5401
83274SOL    HW267433   0.186  11.856   1.153 -0.9606 -0.4325 -0.4663
83275SOL     OW67434  13.317   0.861  13.694 -0.2443 -0.0872  0.0619
83275SOL    HW167435  13.243   0.889  13.639  0.4529  0.2683 -0.7334
83275SOL    HW267436  13.323   0.766  13.680 -1.8727 -0.4977  1.8245
83276SOL     OW67437   2.430   7.850   5.154 -0.4001  0.5640  0.0319
83276SOL    HW167438   2.384   7.862   5.237  0.7367  0.9368  0.6291
83276SOL    HW267439   2.412   7.930   5.105  0.2888  1.0877  0.6110
83277SOL     OW67440   2.867   9.055   6.509  0.0102 -0.6350 -0.0962
83277SOL    HW167441   2.867   9.041   6.603  0.6061 -0.0937 -0.0138
83277SOL    HW267442   2.948   9.015   6.478  0.9936  1.2169 -0.0535
83278SOL     OW67443   9.933  13.955   3.069  0.2593 -0.4943  0.5365
83278SOL    HW167444   9.904  13.915   2.987  1.1784 -0.0266 -0.0235
83278SOL    HW267445   9.924  13.886   3.134 -0.8440 -0.7550  0.1274
83279SOL     OW67446   2.086   3.003  11.678  0.5683  0.1861  0.0823
83279SOL    HW167447   2.102   3.088  11.720  2.2000  0.3823 -0.8387
83279SOL    HW267448   2.128   2.939  11.736 -0.9464 -0.0798  0.9506
83280SOL     OW67449   0.754   1.754  13.305  0.4415 -0.0206 -0.1036
83280SOL    HW167450   0.773   1.834  13.354  0.0751 -0.9333  1.6002
83280SOL    HW267451   0.840   1.725  13.273  1.1209 -0.7015  2.1243
83281SOL     OW67452  10.242   7.158   5.511 -0.1056 -0.0119  0.1947
83281SOL    HW167453  10.271   7.101   5.583  1.7302  0.2808 -0.2638
83281SOL    HW267454  10.170   7.209   5.548  0.2756 -0.4391  1.5722
83282SOL     OW67455   5.891   6.718  10.450  0.2149 -0.2178 -0.2833
83282SOL    HW167456   5.939   6.784  10.399 -0.8132  1.1604  0.4722
83282SOL    HW267457   5.818   6.693  10.394  0.0949 -0.0479 -0.2006
83283SOL     OW67458  13.316   3.712   9.244 -0.1111  0.3981 -0.0287
83283SOL    HW167459  13.347   3.760   9.168  0.8831  0.5072  0.4280
83283SOL    HW267460  13.339   3.621   9.226  1.1340  0.5741  0.6193
83284SOL     OW67461   7.030   8.301   8.853 -0.3090 -0.7941 -0.1815
83284SOL    HW167462   6.940   8.320   8.878 -0.3150  0.4016 -1.0366
83284SOL    HW267463   7.047   8.213   8.888 -2.2557 -1.6201 -1.1505
83285SOL     OW67464  13.241   4.038   5.314 -0.1387  0.3356  0.5376
83285SOL    HW167465  13.240   3.999   5.401 -0.6573  2.1647  1.4136
83285SOL    HW267466  13.313   4.101   5.316  0.0475  0.1806 -0.4643
83286SOL     OW67467   2.819   1.488   8.388  0.7460 -0.2528  0.4477
83286SOL    HW167468   2.808   1.505   8.295  2.4971  2.4023  0.6048
83286SOL    HW267469   2.730   1.485   8.423  0.0895 -0.5159 -1.1916
83287SOL     OW67470   0.588   0.589   7.796  0.3272 -0.4370  0.2487
83287SOL    HW167471   0.537   0.535   7.736 -0.1126  1.4572 -1.2041
83287SOL    HW267472   0.534   0.667   7.810  1.3097  0.0547  1.5211
83288SOL     OW67473   5.028   2.499   1.049  0.2768 -0.2636  0.2792
83288SOL    HW167474   5.070   2.551   0.981 -1.2454  1.5394  0.6299
83288SOL    HW267475   4.968   2.441   1.000  1.3166 -1.0804 -0.0577
83289SOL     OW67476   1.387   8.666   6.428 -0.4451 -0.5103  0.6199
83289SOL    HW167477   1.385   8.662   6.332  0.2704 -2.7522  0.6396
83289SOL    HW267478   1.303   8.629   6.454  0.4690 -2.6255  0.8082
83290SOL     OW67479  12.678  12.269   2.638 -0.0241 -0.2440  0.0599
83290SOL    HW167480  12.645  12.255   2.726  0.9110  0.7808  0.5890
83290SOL    HW267481  12.649  12.191   2.590 -0.6010 -0.7877  1.2377
83291SOL     OW67482   0.112   0.731   8.558  0.1574 -0.1895  0.5935
83291SOL    HW167483   0.197   0.771   8.578 -0.9864  1.1366  3.3148
83291SOL    HW267484   0.054   0.763   8.627 -2.1735 -2.3992 -0.2042
83292SOL     OW67485   1.861   2.216  12.742 -0.0978 -0.1013  0.3956
83292SOL    HW167486   1.951   2.190  12.723  0.1155 -0.4021  1.7104
83292SOL    HW267487   1.807   2.145  12.707  0.1985 -0.1376  0.0100
83293SOL     OW67488   0.249   6.973  11.283  0.2981  0.5435  0.1109
83293SOL    HW167489   0.321   7.028  11.315 -0.3074  1.3631  0.1065
83293SOL    HW267490   0.256   6.978  11.188 -0.1582  1.1862  0.1000
83294SOL     OW67491   1.681   4.400  12.604 -0.6568 -0.1397 -0.0426
83294SOL    HW167492   1.776   4.410  12.611 -0.7207 -0.0097  0.8132
83294SOL    HW267493   1.658   4.441  12.521  0.0448 -0.2025 -0.2710
83295SOL     OW67494   3.631   3.750   3.652  0.2825 -0.1229  0.4965
83295SOL    HW167495   3.687   3.684   3.693  0.4973 -0.1062  0.2325
83295SOL    HW267496   3.562   3.766   3.716  0.7598  0.0964  0.9614
83296SOL     OW67497   5.221   0.140   3.378 -0.2819  0.5537 -0.5897
83296SOL    HW167498   5.133   0.113   3.350 -1.3945  1.6369  1.5964
83296SOL    HW267499   5.224   0.118   3.471  1.7009  0.7901 -0.5620
83297SOL     OW67500   3.157   7.310   8.884 -0.1267 -0.6635 -0.4220
83297SOL    HW167501   3.252   7.313   8.871 -0.2429 -0.3752 -1.2699
83297SOL    HW267502   3.138   7.218   8.904  0.5003 -0.4684  1.2652
83298SOL     OW67503   3.659   0.632   1.787 -0.1734 -0.2879  0.6749
83298SOL    HW167504   3.616   0.678   1.715 -0.4241 -1.3715  0.1087
83298SOL    HW267505   3.746   0.610   1.753  0.3400  0.6764  1.3203
83299SOL     OW67506   6.279   9.752   6.029 -0.4200 -0.1380 -0.4375
83299SOL    HW167507   6.224   9.676   6.050 -0.8453  0.4210  0.5453
83299SOL    HW267508   6.219   9.826   6.035  0.6742  0.6581  2.0223
83300SOL     OW67509   8.028  12.020   0.737  0.5552 -0.2437  0.2614
83300SOL    HW167510   8.073  12.058   0.812  1.6071 -0.9686  0.0121
83300SOL    HW267511   8.091  11.959   0.699  0.6803  1.3293 -2.2326
83301SOL     OW67512   0.619   9.236   1.843  0.1270 -0.4139  0.1562
83301SOL    HW167513   0.715   9.242   1.848  0.0725  0.5091  0.2347
83301SOL    HW267514   0.595   9.185   1.920  0.5257 -0.2269  0.4131
83302SOL     OW67515  13.785   1.365   5.722 -0.7129 -0.2232 -0.2652
83302SOL    HW167516  13.797   1.328   5.809 -0.9800  0.1760 -0.0560
83302SOL    HW267517  13.849   1.436   5.717  0.7519 -1.5455 -1.1692
83303SOL     OW67518  11.294   9.818   6.998 -0.3806  0.0484  0.7145
83303SOL    HW167519  11.244   9.775   6.929 -0.0153  0.6832  0.0340
83303SOL    HW267520  11.385   9.795   6.978 -0.3219 -0.3382  1.4012
83304SOL     OW67521   7.572   9.143   4.435  0.1072 -0.0881  0.5030
83304SOL    HW167522   7.536   9.066   4.480 -1.0832  0.8466  1.2088
83304SOL    HW267523   7.501   9.175   4.380  1.0156 -0.2249 -0.8124
83305SOL     OW67524   7.513   5.410   3.519 -0.1340 -0.5398 -0.0318
83305SOL    HW167525   7.418   5.405   3.513 -0.2479  0.9266  0.4201
83305SOL    HW267526   7.541   5.432   3.430 -0.4166  1.4824  0.3452
83306SOL     OW67527   5.497   2.984  12.397  0.2757 -0.0112 -0.5788
83306SOL    HW167528   5.496   2.965  12.491 -0.6446  2.1645 -0.0964
83306SOL    HW267529   5.511   2.899  12.356 -0.6454 -1.2254  1.4661
83307SOL     OW67530   0.388   7.547   7.554 -0.1014  0.2650  0.8553
83307SOL    HW167531   0.326   7.503   7.612  1.2091 -1.7722  0.8364
83307SOL    HW267532   0.452   7.479   7.532 -0.8149  0.6991 -3.4468
83308SOL     OW67533   4.230   6.084   3.761  0.1187 -0.4219  0.3190
83308SOL    HW167534   4.186   6.164   3.731  0.7311 -0.0479  0.3903
83308SOL    HW267535   4.314   6.085   3.716  0.1466 -1.0077  0.3600
83309SOL     OW67536   6.553   8.501   6.103 -0.0973 -0.2935 -0.3481
83309SOL    HW167537   6.571   8.493   6.010  0.2576  0.3245 -0.3391
83309SOL    HW267538   6.466   8.462   6.114 -0.2584 -0.1247 -0.9816
83310SOL     OW67539   8.918   4.896   8.613  0.6528  0.2365  0.1900
83310SOL    HW167540   8.966   4.878   8.532  0.6114 -1.1934  0.4483
83310SOL    HW267541   8.976   4.953   8.663  0.5137  1.4503 -0.9885
83311SOL     OW67542   5.186  11.784   1.671 -0.3796 -0.5653  0.1759
83311SOL    HW167543   5.175  11.817   1.582 -0.4753 -2.2028 -0.4550
83311SOL    HW267544   5.273  11.813   1.697 -0.7133  0.7233 -0.0679
83312SOL     OW67545  11.205   0.161   3.448  0.0115  0.4285  0.3478
83312SOL    HW167546  11.284   0.137   3.496 -0.8687  0.5050  1.8981
83312SOL    HW267547  11.204   0.102   3.372  0.8776 -0.4601  1.0075
83313SOL     OW67548   0.702   0.546  14.073 -0.6485 -0.3193  0.0951
83313SOL    HW167549   0.745   0.498  14.144 -0.0559 -0.3453 -0.2758
83313SOL    HW267550   0.609   0.536  14.092 -0.5020  0.0717  1.1332
83314SOL     OW67551   7.871   9.556  11.080  0.3460 -0.3892  0.1185
83314SOL    HW167552   7.917   9.628  11.038 -1.3663  0.3969 -0.5384
83314SOL    HW267553   7.883   9.482  11.020  2.8042 -0.9559  1.2002
83315SOL     OW67554   3.816   0.959   4.359 -0.0475 -0.2640  0.6684
83315SOL    HW167555   3.737   1.012   4.366  0.1327  0.0595  0.3140
83315SOL    HW267556   3.819   0.909   4.441 -1.1150 -0.9914  0.2876
83316SOL     OW67557  10.583   9.890   1.300  0.0649  0.0614  0.0518
83316SOL    HW167558  10.513   9.916   1.240 -0.6717 -2.1305 -0.1474
83316SOL    HW267559  10.546   9.908   1.387  0.2748  1.2278 -0.0842
83317SOL     OW67560   4.942  12.889   7.467  0.0124 -0.3362  0.0562
83317SOL    HW167561   5.036  12.881   7.480  0.1697  2.1212  0.9682
83317SOL    HW267562   4.930  12.976   7.428 -1.6693 -1.8272 -3.2662
83318SOL     OW67563   7.389  10.495   2.682  0.6677  0.0944 -0.4515
83318SOL    HW167564   7.297  10.471   2.693  0.1573  0.4548 -3.2501
83318SOL    HW267565   7.437  10.430   2.733 -1.1015 -0.3765  0.6966
83319SOL     OW67566   6.061   0.373   4.087  0.1788  0.0421  0.0954
83319SOL    HW167567   6.077   0.293   4.137  1.2842 -0.5658 -1.1727
83319SOL    HW267568   5.988   0.351   4.029  1.3705 -0.5442 -1.2322
83320SOL     OW67569  10.405   5.644   5.150  0.1274 -0.4302 -0.4103
83320SOL    HW167570  10.348   5.600   5.213 -0.0573 -0.2269 -0.4343
83320SOL    HW267571  10.386   5.602   5.066  0.7609 -1.0694 -0.2433
83321SOL     OW67572   3.237   6.705   6.941 -0.3459  0.6551 -0.3247
83321SOL    HW167573   3.307   6.724   6.878  1.3818 -1.8087  0.6924
83321SOL    HW267574   3.174   6.776   6.929  1.3035  1.8471 -2.7655
83322SOL     OW67575   0.981  11.696  11.316 -0.6027  0.1628  0.2089
83322SOL    HW167576   1.034  11.620  11.291 -0.1175  0.1925  1.1309
83322SOL    HW267577   0.952  11.677  11.405 -0.0437  1.2950  0.6478
83323SOL     OW67578  13.449   5.554  11.181  0.1484 -1.1580  0.3374
83323SOL    HW167579  13.444   5.501  11.102 -0.7179 -0.1114 -0.3345
83323SOL    HW267580  13.542   5.574  11.191  0.0072  1.5404 -2.4117
83324SOL     OW67581   5.817   2.774  13.976 -0.4317 -0.1840 -0.0865
83324SOL    HW167582   5.761   2.780  13.898 -0.0882  1.7764 -0.2450
83324SOL    HW267583   5.798   2.855  14.024 -0.4162 -1.2255  1.7379
83325SOL     OW67584   0.616   1.304  13.810  0.1480 -0.1715 -0.1170
83325SOL    HW167585   0.702   1.267  13.830  0.5072  0.7661  0.0849
83325SOL    HW267586   0.621   1.328  13.718 -0.5541 -1.8604 -0.6378
83326SOL     OW67587  11.198   3.544   0.050 -0.6978  0.6263  0.0951
83326SOL    HW167588  11.129   3.482   0.027  0.5541 -0.2922 -1.4011
83326SOL    HW267589  11.261   3.492   0.099 -0.0079  0.8870 -0.4925
83327SOL     OW67590   1.699   6.828  10.208  0.4518 -0.3471  0.1225
83327SOL    HW167591   1.677   6.891  10.139  3.0952 -0.9920 -1.4395
83327SOL    HW267592   1.615   6.809  10.250 -1.4599 -0.3176 -3.2694
83328SOL     OW67593   3.109  12.375   1.793 -0.2393  0.2223  0.3025
83328SOL    HW167594   3.075  12.376   1.882 -0.2603 -0.7686  0.3128
83328SOL    HW267595   3.034  12.402   1.739 -0.4709 -0.0098  0.5036
83329SOL     OW67596   8.977   9.891   6.766 -0.1405 -0.2125 -0.2274
83329SOL    HW167597   9.053   9.947   6.751  0.5173 -1.0374 -0.0866
83329SOL    HW267598   9.014   9.812   6.806 -1.2891  0.0894  1.5434
83330SOL     OW67599  11.386   4.154  10.947 -0.3560  0.5222 -0.3855
83330SOL    HW167600  11.430   4.160  11.032 -2.6011 -0.8364  0.9773
83330SOL    HW267601  11.414   4.070  10.911 -0.1752  0.6509 -0.5515
83331SOL     OW67602  12.864  10.496   4.832 -0.5663  0.5319 -0.1394
83331SOL    HW167603  12.894  10.586   4.844  1.6012 -0.0258 -0.9048
83331SOL    HW267604  12.837  10.468   4.919 -2.8692  2.3753 -0.1503
83332SOL     OW67605  11.631  13.926  13.706  0.4170  0.0182 -0.2716
83332SOL    HW167606  11.650  13.872  13.783  1.4480  1.4926  0.5535
83332SOL    HW267607  11.684  13.886  13.636  0.3746 -0.6409  0.0618
83333SOL     OW67608   8.750   0.763  10.075  0.3217  0.0255  0.7011
83333SOL    HW167609   8.695   0.701  10.027 -0.4930  2.4406 -1.7021
83333SOL    HW267610   8.808   0.707  10.126  0.4409 -2.7872 -2.1702
83334SOL     OW67611   7.124   2.008   3.481 -0.3158  0.5194 -0.0409
83334SOL    HW167612   7.176   1.985   3.404  1.3286  1.2821  0.7983
83334SOL    HW267613   7.039   2.034   3.445 -0.6829 -2.1487 -1.3438
83335SOL     OW67614   6.927  10.138  13.433  0.8273  0.2817  0.5498
83335SOL    HW167615   6.866  10.169  13.500  1.2844  0.9637  0.6594
83335SOL    HW267616   7.012  10.174  13.458  1.3028 -0.7037  0.4275
83336SOL     OW67617   8.796   6.007   9.856  0.5433  0.9852  0.4152
83336SOL    HW167618   8.757   5.952   9.789  2.3579  0.2637 -0.0940
83336SOL    HW267619   8.888   5.981   9.859  0.9294  2.3350  1.8467
83337SOL     OW67620  12.678   8.960  10.426 -0.0376 -0.0403  0.0767
83337SOL    HW167621  12.676   9.038  10.481  1.1198 -0.1937  0.3581
83337SOL    HW267622  12.595   8.915  10.445  0.0193  0.2781  1.1476
83338SOL     OW67623   0.506   0.817   9.584  0.7115 -0.2776  0.4565
83338SOL    HW167624   0.487   0.752   9.516  0.4451  1.7636 -1.5253
83338SOL    HW267625   0.591   0.853   9.560 -0.0514  1.5195  0.3103
83339SOL     OW67626   2.160   4.648   0.331  0.5868 -0.6512  0.1515
83339SOL    HW167627   2.162   4.743   0.339 -0.5561 -0.6800  0.9598
83339SOL    HW267628   2.147   4.617   0.421  0.1365 -1.5343 -0.2110
83340SOL     OW67629   7.248  13.487   7.471 -0.2188 -0.4906  0.4819
83340SOL    HW167630   7.170  13.435   7.492 -0.8095 -0.0504 -0.5327
83340SOL    HW267631   7.318  13.448   7.524 -0.6710 -2.2442 -0.1414
83341SOL     OW67632   4.559  13.755   4.384 -0.1249 -0.1831  0.1545
83341SOL    HW167633   4.608  13.837   4.392 -0.9189  0.2041  1.2713
83341SOL    HW267634   4.474  13.781   4.349 -0.6216 -0.4198  1.1525
83342SOL     OW67635   3.867   4.752  12.933 -0.0580 -0.2768 -0.1434
83342SOL    HW167636   3.940   4.701  12.895  0.5956  1.0944 -0.8123
83342SOL    HW267637   3.803   4.757  12.862  0.2868  0.5971 -0.4021
83343SOL     OW67638   1.629   8.239  10.383 -0.2320  0.0809  0.0318
83343SOL    HW167639   1.632   8.332  10.362  1.5520  0.2838  0.9563
83343SOL    HW267640   1.564   8.202  10.323 -0.2699  1.7488 -1.0031
83344SOL     OW67641   0.442  10.179  13.819  0.2343  0.0102 -0.0662
83344SOL    HW167642   0.408  10.208  13.735  2.0698 -0.2740 -0.9479
83344SOL    HW267643   0.536  10.194  13.814  0.4935 -0.7519  1.6341
83345SOL     OW67644  10.204  12.051   4.740 -0.3957  0.0051  0.0278
83345SOL    HW167645  10.222  12.141   4.767 -0.1382 -0.1008  0.2124
83345SOL    HW267646  10.145  12.017   4.807  3.4942 -1.6501  3.0286
83346SOL     OW67647  13.595   7.793   1.728 -0.5997  0.1863  0.3356
83346SOL    HW167648  13.515   7.757   1.689 -0.9009  1.3068 -0.1124
83346SOL    HW267649  13.566   7.871   1.775  0.0002 -0.2896  1.5385
83347SOL     OW67650   5.113  10.575  11.889  0.0218  0.2900 -0.4369
83347SOL    HW167651   5.158  10.567  11.805  0.6575  0.9194 -0.1631
83347SOL    HW267652   5.130  10.491  11.933  0.9098  0.5086 -0.3499
83348SOL     OW67653   3.946  10.884   9.752  0.0556  0.2552 -0.8095
83348SOL    HW167654   3.995  10.843   9.681  0.8674 -1.1537  0.5108
83348SOL    HW267655   3.966  10.831   9.830 -3.2132 -0.1524 -0.0774
83349SOL     OW67656  13.721   2.267   1.767 -0.6818 -0.7226  0.1518
83349SOL    HW167657  13.669   2.187   1.763 -1.0097 -0.4473 -1.5209
83349SOL    HW267658  13.739   2.279   1.861  0.4867 -3.4369  0.3579
83350SOL     OW67659   6.340  14.042   9.712  0.6776 -0.2752  0.0627
83350SOL    HW167660   6.281  14.016   9.641  2.1318  0.3240 -1.4170
83350SOL    HW267661   6.384  13.961   9.737  1.4149 -0.1961 -0.9347
83351SOL     OW67662  10.284   6.320   7.303  0.2963 -0.0364 -0.6858
83351SOL    HW167663  10.324   6.245   7.347 -0.1118 -0.2740 -0.7141
83351SOL    HW267664  10.341   6.394   7.325  0.4093 -0.2585 -0.2204
83352SOL     OW67665  11.255   8.081   0.012  0.0148 -0.0340  0.2831
83352SOL    HW167666  11.295   8.017  -0.046 -0.4907  0.4973 -0.6872
83352SOL    HW267667  11.165   8.050   0.023 -0.0528  0.1739  0.3146
83353SOL     OW67668   1.906  13.158   5.399 -0.1387  0.2160  0.3410
83353SOL    HW167669   1.962  13.154   5.322 -0.6652  2.3454 -0.2075
83353SOL    HW267670   1.957  13.114   5.468  1.2257  0.1100 -0.6973
83354SOL     OW67671  13.138   1.922   0.050 -0.3656 -0.1960 -0.3481
83354SOL    HW167672  13.140   2.018   0.045 -0.4589 -0.1665  0.0882
83354SOL    HW267673  13.215   1.893   0.002  0.8124  0.1756  1.2180
83355SOL     OW67674   1.322   7.598  13.186  0.7095  0.0769 -0.4882
83355SOL    HW167675   1.257   7.669  13.187 -0.0885 -0.6005 -1.5354
83355SOL    HW267676   1.405   7.641  13.207  0.4631  1.5783 -2.2617
83356SOL     OW67677  12.756  10.420   2.126  0.0838  0.3510  0.5518
83356SOL    HW167678  12.726  10.431   2.036 -0.4659 -1.7488  0.4491
83356SOL    HW267679  12.677  10.427   2.179  0.1023 -0.4959  0.6926
83357SOL     OW67680   9.730   2.279   9.021 -0.2300  0.0717  0.3930
83357SOL    HW167681   9.817   2.249   9.046  0.1983  0.3752 -0.6750
83357SOL    HW267682   9.671   2.236   9.082  0.7365  0.6081  1.7474
83358SOL     OW67683   5.931   3.478   5.174 -0.6229 -0.0564  0.2971
83358SOL    HW167684   5.906   3.550   5.117 -0.6710 -0.7759 -0.6074
83358SOL    HW267685   5.852   3.425   5.183  0.0187 -1.2986 -1.0165
83359SOL     OW67686   4.516   4.661   3.651  0.4864  0.2348 -0.3000
83359SOL    HW167687   4.430   4.620   3.662 -0.2267  1.8109  0.3054
83359SOL    HW267688   4.555   4.615   3.578 -1.0774 -0.2113 -0.9061
83360SOL     OW67689  11.034   8.418   5.691  0.4083  0.2984  0.4277
83360SOL    HW167690  10.996   8.348   5.638 -0.4157  1.4702 -0.5581
83360SOL    HW267691  11.036   8.382   5.780  0.7038 -1.2496 -0.1751
83361SOL     OW67692   2.058   5.918  12.544  0.1065  0.0057 -0.2619
83361SOL    HW167693   2.016   5.832  12.536 -0.4816  0.3284 -0.7216
83361SOL    HW267694   2.014   5.959  12.618  0.7548 -0.2913  0.2924
83362SOL     OW67695   8.141   2.691   5.316 -0.0992  0.4397  0.3915
83362SOL    HW167696   8.182   2.640   5.385  1.4779 -0.3479 -1.0446
83362SOL    HW267697   8.064   2.730   5.357  1.3536  0.9360  2.8848
83363SOL     OW67698  10.815   5.902  11.323 -0.3199  0.3889  0.4921
83363SOL    HW167699  10.790   5.991  11.297  1.3776  0.6415 -0.4351
83363SOL    HW267700  10.864   5.868  11.249  1.1925 -0.4010  1.7825
83364SOL     OW67701  13.513   7.714  13.744 -0.4653 -0.2410  0.5329
83364SOL    HW167702  13.586   7.761  13.703 -2.2167  1.7020 -0.6118
83364SOL    HW267703  13.532   7.622  13.728  1.4209  0.2245 -0.2341
83365SOL     OW67704   8.003  12.327   7.841  0.0317  0.3981 -0.0225
83365SOL    HW167705   8.030  12.351   7.929 -0.4105 -0.2430  0.2871
83365SOL    HW267706   8.036  12.399   7.786  3.0310 -0.6546  0.1958
83366SOL     OW67707   3.287   8.094   6.617 -1.0393 -0.6090 -0.1719
83366SOL    HW167708   3.322   8.019   6.666 -0.0586 -1.4369 -2.0259
83366SOL    HW267709   3.230   8.139   6.679  1.9147 -0.2251  2.5209
83367SOL     OW67710   8.362   0.905   5.138 -0.1291 -0.2924 -0.0595
83367SOL    HW167711   8.425   0.856   5.190 -1.8309 -1.4172  1.0315
83367SOL    HW267712   8.333   0.975   5.195  0.8964  0.9084 -0.9551
83368SOL     OW67713   9.685  11.434   0.213 -0.0053 -0.2515 -0.0064
83368SOL    HW167714   9.612  11.446   0.152  0.0309  0.6336  0.1162
83368SOL    HW267715   9.691  11.517   0.260 -0.0279 -0.9259  1.2168
83369SOL     OW67716  13.133   7.072   2.295  0.4025 -0.2071 -0.0209
83369SOL    HW167717  13.061   7.013   2.272  0.5009 -0.0879 -0.6432
83369SOL    HW267718  13.209   7.015   2.304  0.1727 -0.3736  0.9459
83370SOL     OW67719   0.292  10.092   6.941  0.1976  0.2243  0.0337
83370SOL    HW167720   0.211  10.069   6.896 -0.7168 -0.1308  1.7558
83370SOL    HW267721   0.310  10.016   6.997 -0.1538  1.6398  2.1639
83371SOL     OW67722   0.487   3.508  12.900  0.5235  0.1670 -0.2516
83371SOL    HW167723   0.547   3.517  12.826 -0.5223  0.5998 -1.0770
83371SOL    HW267724   0.452   3.596  12.912 -0.5900 -0.2484 -0.3526
83372SOL     OW67725   7.692  13.042  14.051 -0.4251  0.1636  0.6365
83372SOL    HW167726   7.613  13.025  14.000  0.4297 -0.7103 -0.4405
83372SOL    HW267727   7.722  12.955  14.077  2.0549  0.1281 -1.9072
83373SOL     OW67728  13.174   5.890   1.424 -0.4522 -0.4503  0.3024
83373SOL    HW167729  13.173   5.906   1.519  1.7868  4.2250 -0.1688
83373SOL    HW267730  13.267   5.878   1.404 -0.6296  0.8478 -1.4908
83374SOL     OW67731  11.981   7.309  13.296  0.2731 -0.6453 -0.2865
83374SOL    HW167732  11.929   7.334  13.220  0.6974  1.4315  0.0554
83374SOL    HW267733  12.069   7.341  13.277  0.4907 -0.5064  0.8663
83375SOL     OW67734   7.198  13.395   8.411  0.3925 -0.0292 -0.3907
83375SOL    HW167735   7.186  13.309   8.371 -4.5667 -0.9254  2.1869
83375SOL    HW267736   7.238  13.377   8.496 -1.0268  0.0268  0.3290
83376SOL     OW67737   4.815   7.047  11.136 -0.7293 -0.1810  0.2851
83376SOL    HW167738   4.801   7.006  11.051 -0.3983 -1.3030  0.7582
83376SOL    HW267739   4.727   7.076  11.163 -0.9348 -0.3898 -0.1541
83377SOL     OW67740  13.403  11.569   1.222 -0.2510  0.4201 -0.1318
83377SOL    HW167741  13.399  11.622   1.142  0.5713 -0.3386 -0.6863
83377SOL    HW267742  13.463  11.617   1.280  0.2753  0.2446 -0.5264
83378SOL     OW67743   8.932  13.117   1.515  0.1547  0.8392 -0.5251
83378SOL    HW167744   8.925  13.050   1.448  2.5578  0.3275 -0.3418
83378SOL    HW267745   8.935  13.069   1.598  2.7303  1.0156 -0.4391
83379SOL     OW67746  13.704   5.766   2.190  0.0067 -0.1498  0.4762
83379SOL    HW167747  13.786   5.796   2.229 -0.1457  1.3253 -0.2457
83379SOL    HW267748  13.723   5.678   2.157  0.7573 -0.5467  1.9024
83380SOL     OW67749   2.328   9.452   1.499  0.4942 -0.2383 -0.1385
83380SOL    HW167750   2.302   9.463   1.590 -1.1423 -0.4275 -0.5529
83380SOL    HW267751   2.392   9.522   1.484 -0.8297  1.1989  0.5821
83381SOL     OW67752  13.221   2.770   8.443  0.2139 -0.0903 -1.0582
83381SOL    HW167753  13.308   2.740   8.472  0.0588 -1.5884 -2.0478
83381SOL    HW267754  13.169   2.774   8.523  0.9200 -0.1450 -0.5857
83382SOL     OW67755  12.855  13.990   5.854 -0.0922 -0.5414  0.0299
83382SOL    HW167756  12.947  13.993   5.883 -0.2616  0.2873  0.5078
83382SOL    HW267757  12.811  13.936   5.919  0.4706 -3.0115 -1.4806
83383SOL     OW67758   0.120  13.860   7.416 -0.0470 -0.2341  0.2375
83383SOL    HW167759   0.044  13.908   7.449 -1.0509 -0.7196 -1.2381
83383SOL    HW267760   0.176  13.927   7.377 -0.8487 -0.0980 -0.7201
83384SOL     OW67761   8.804   2.486   1.618 -0.2176  0.5034 -0.6277
83384SOL    HW167762   8.763   2.412   1.573  1.5357  0.9355 -3.0931
83384SOL    HW267763   8.769   2.563   1.575  0.0397  1.0242  0.0762
83385SOL     OW67764   8.252   2.367   6.464 -0.2456  0.3999 -0.9585
83385SOL    HW167765   8.292   2.281   6.469 -1.9779 -0.5105 -1.8131
83385SOL    HW267766   8.197   2.373   6.542 -0.4993  0.5350 -1.1463
83386SOL     OW67767   4.047   3.734   7.223 -0.1578  0.1583  0.1623
83386SOL    HW167768   4.021   3.680   7.298 -0.2325  1.0080  0.7681
83386SOL    HW267769   3.992   3.704   7.151 -1.1958  0.3715  0.8410
83387SOL     OW67770   7.584   3.045   9.775 -0.3726 -0.0458 -0.2051
83387SOL    HW167771   7.501   3.007   9.802  0.6673 -2.0330  0.4299
83387SOL    HW267772   7.646   2.972   9.779  2.0920  1.9332  2.4353
83388SOL     OW67773   6.629   0.312   5.002 -0.1095  0.5219  0.0812
83388SOL    HW167774   6.711   0.267   5.020 -0.4764 -0.7603 -1.1738
83388SOL    HW267775   6.586   0.319   5.087  0.4560 -0.5532  0.4795
83389SOL     OW67776   4.327   5.629   2.872  0.5313  0.2023  0.7317
83389SOL    HW167777   4.418   5.659   2.875  1.5305 -2.1916 -1.5324
83389SOL    HW267778   4.310   5.614   2.779 -1.6379 -0.9226  1.2539
83390SOL     OW67779   9.502   7.932   6.579 -0.6744 -0.5557 -0.0429
83390SOL    HW167780   9.524   7.843   6.552  0.1147 -0.3819 -0.0060
83390SOL    HW267781   9.450   7.920   6.658 -0.5127 -0.9875  0.0049
83391SOL     OW67782  13.458   3.516   0.314 -0.2171 -0.5867  0.0973
83391SOL    HW167783  13.548   3.526   0.284 -0.5768  0.6336 -0.6615
83391SOL    HW267784  13.461   3.445   0.378  0.8974 -2.1626 -1.5838
83392SOL     OW67785  13.919   5.081   7.498  0.0031 -0.1082  0.1534
83392SOL    HW167786  13.889   4.995   7.529 -0.2096  0.0344  0.3508
83392SOL    HW267787  13.947   5.066   7.408 -4.5900  0.5134 -1.6629
83393SOL     OW67788   5.539   4.113   0.954  0.6420 -0.1523 -0.0181
83393SOL    HW167789   5.608   4.165   0.913  2.5971 -1.8284  0.9256
83393SOL    HW267790   5.474   4.177   0.983  3.3000  1.9488  1.8672
83394SOL     OW67791   2.417   9.247   6.904  0.0662 -0.0641  0.0802
83394SOL    HW167792   2.324   9.241   6.884 -0.1468  0.4080  0.9085
83394SOL    HW267793   2.457   9.280   6.823 -0.2927 -1.5071 -0.7148
83395SOL     OW67794   0.510   1.984  13.315  0.2504  0.9669 -0.8009
83395SOL    HW167795   0.453   2.045  13.269  0.1093 -0.7149 -3.0559
83395SOL    HW267796   0.452   1.913  13.343  0.5969  1.2465  0.7555
83396SOL     OW67797   5.353   7.665   5.019  0.3966 -0.2454 -0.3453
83396SOL    HW167798   5.295   7.659   4.943  0.8676 -1.1519 -0.6447
83396SOL    HW267799   5.438   7.634   4.988  0.9704  0.7100  0.1891
83397SOL     OW67800   4.618   1.254  10.306  0.4744  0.0532 -0.3486
83397SOL    HW167801   4.562   1.321  10.345  1.2761  1.2439 -1.1902
83397SOL    HW267802   4.654   1.206  10.380 -2.1694 -1.2492  0.2319
83398SOL     OW67803  11.840  12.345  11.515 -0.0294 -0.2068  0.1956
83398SOL    HW167804  11.928  12.344  11.554 -0.5988  1.2930  1.6119
83398SOL    HW267805  11.821  12.253  11.497  0.8157 -0.8535  2.2933
83399SOL     OW67806  13.492   0.021   5.144  0.0869 -0.4987  0.0234
83399SOL    HW167807  13.585   0.032   5.123  0.7786 -1.4904  2.2469
83399SOL    HW267808  13.464   0.107   5.176  0.0768 -0.0528 -1.1641
83400SOL     OW67809   4.253   2.683   8.245 -0.0703 -0.3674 -0.2436
83400SOL    HW167810   4.325   2.619   8.251 -0.1871 -0.3531  2.1252
83400SOL    HW267811   4.174   2.630   8.254 -0.2331 -0.0764  0.0229
83401SOL     OW67812   7.635  11.604   6.999  0.0170  0.7777  0.4374
83401SOL    HW167813   7.714  11.586   7.050 -0.8218 -2.6825  0.7186
83401SOL    HW267814   7.566  11.554   7.042 -1.3510  0.0286 -2.3913
83402SOL     OW67815   9.384   0.812   7.066  0.1353  0.2812 -0.2945
83402SOL    HW167816   9.476   0.808   7.040  0.3534 -0.3419  0.5271
83402SOL    HW267817   9.339   0.851   6.991  0.8558 -0.7222 -1.2735
83403SOL     OW67818   5.769   4.320   5.859  0.0903 -0.3416 -0.2916
83403SOL    HW167819   5.807   4.363   5.935  1.5260 -1.6373 -0.2242
83403SOL    HW267820   5.769   4.227   5.881 -0.9913 -0.5923 -1.2446
83404SOL     OW67821   3.757   1.779  11.870  0.3119 -0.0751  0.3032
83404SOL    HW167822   3.753   1.850  11.934  0.5623 -0.2123  0.4727
83404SOL    HW267823   3.670   1.739  11.873  0.0317  0.4988 -0.1075
83405SOL     OW67824   7.676   9.361  12.206  0.0637 -0.1274 -0.6481
83405SOL    HW167825   7.592   9.402  12.188 -0.5572 -1.0214  0.1231
83405SOL    HW267826   7.740   9.432  12.200 -0.9982  0.9972  0.8958
83406SOL     OW67827   4.692  10.703  12.277 -0.1364  0.4979  0.2795
83406SOL    HW167828   4.647  10.739  12.353  2.0335 -0.0776  1.9127
83406SOL    HW267829   4.737  10.778  12.238  1.3214  0.2794  1.4707
83407SOL     OW67830   3.174  10.037  12.366 -0.2601 -0.0474 -0.2285
83407SOL    HW167831   3.105  10.050  12.300 -0.7069  0.3633  0.3081
83407SOL    HW267832   3.227  10.116  12.360  0.5925 -0.6751 -1.1311
83408SOL     OW67833  10.748   9.851   2.429 -0.3353 -0.0545 -0.3210
83408SOL    HW167834  10.683   9.909   2.468  1.9863  0.8343  2.6175
83408SOL    HW267835  10.773   9.894   2.348 -0.2064  1.9998  0.7414
83409SOL     OW67836  11.645  13.751   3.894 -0.2573 -0.2859 -0.2096
83409SOL    HW167837  11.700  13.674   3.911  0.9577  0.4733 -0.5546
83409SOL    HW267838  11.626  13.747   3.800 -0.7702 -0.5264 -0.0978
83410SOL     OW67839   6.370  11.294  11.016 -0.3683  0.4171  0.3555
83410SOL    HW167840   6.456  11.290  10.975  0.5596  0.1638  2.2317
83410SOL    HW267841   6.312  11.329  10.948  0.9782 -0.4267 -1.2810
83411SOL     OW67842  11.049   3.950   1.721 -0.2088  0.3791  0.5845
83411SOL    HW167843  11.102   3.944   1.641  0.3810  0.0842  0.9868
83411SOL    HW267844  11.112   3.935   1.792 -0.7058  0.7592  1.1103
83412SOL     OW67845   3.043   5.304  10.183  0.2688  0.1840  0.0179
83412SOL    HW167846   2.987   5.362  10.131 -1.2410 -2.1458 -1.1765
83412SOL    HW267847   3.007   5.309  10.272 -0.6808  0.1392 -0.3443
83413SOL     OW67848  12.909  11.442  12.302  0.5617 -0.1633 -0.2718
83413SOL    HW167849  12.889  11.354  12.334  0.6894  0.1941  0.8386
83413SOL    HW267850  12.841  11.461  12.238  0.1949 -0.8438 -0.0880
83414SOL     OW67851   0.290   7.352   4.579 -0.1783  0.2953 -0.1864
83414SOL    HW167852   0.244   7.335   4.497 -0.9481  1.9577 -0.1373
83414SOL    HW267853   0.222   7.347   4.646  0.2654 -0.1126  0.2349
83415SOL     OW67854  11.216   4.866   3.558 -0.1621  0.4782 -0.4207
83415SOL    HW167855  11.221   4.782   3.512 -1.3146  0.2903 -0.2323
83415SOL    HW267856  11.203   4.930   3.489 -0.3576  0.3760 -0.4783
83416SOL     OW67857   4.580  11.507   4.971 -0.3740  0.4564  0.3753
83416SOL    HW167858   4.531  11.427   4.987 -0.3911  0.0976 -1.2850
83416SOL    HW267859   4.648  11.508   5.039 -0.4206 -0.9139  0.4690
83417SOL     OW67860   1.327   1.895   4.175  0.4921 -0.5365  0.2855
83417SOL    HW167861   1.300   1.808   4.202  2.0037 -0.5843  1.7913
83417SOL    HW267862   1.390   1.923   4.242 -0.9477  2.2622  0.6529
83418SOL     OW67863  13.686  11.358  11.984  0.4452 -0.4435 -0.2441
83418SOL    HW167864  13.740  11.424  11.940  1.3064 -0.1192  1.2296
83418SOL    HW267865  13.714  11.275  11.946 -0.8236  0.0069 -2.2988
83419SOL     OW67866  13.402   8.906   4.761  0.2323 -0.2474 -0.3423
83419SOL    HW167867  13.436   8.940   4.844  0.1312 -1.8532  0.3843
83419SOL    HW267868  13.480   8.886   4.710  0.3075 -0.1412 -0.2709
83420SOL     OW67869  12.968   3.549   2.169  0.1623  0.5783  0.5638
83420SOL    HW167870  12.951   3.456   2.156  0.1706  0.8121 -1.3421
83420SOL    HW267871  12.943   3.566   2.260 -2.9952 -0.5970  0.0292
83421SOL     OW67872   1.983   3.348   4.500  0.3258 -0.4405 -0.2398
83421SOL    HW167873   2.047   3.281   4.478 -0.4211 -0.9533 -0.9184
83421SOL    HW267874   1.922   3.305   4.559  1.3078  0.4206  1.4763
83422SOL     OW67875  10.627   0.580  11.059  0.8591  0.1129 -0.2357
83422SOL    HW167876  10.701   0.583  11.000  0.2047  0.3895 -1.0582
83422SOL    HW267877  10.570   0.651  11.031  0.8944  0.7681  1.2268
83423SOL     OW67878  10.098   9.045   3.891 -0.5285  0.1003 -0.0669
83423SOL    HW167879  10.083   8.965   3.940 -0.0396 -0.5573 -0.9657
83423SOL    HW267880  10.088   9.020   3.799 -0.7332  1.1496 -0.3540
83424SOL     OW67881   8.976   8.891   7.557 -0.5183 -0.2737 -0.2813
83424SOL    HW167882   8.961   8.926   7.470 -1.1218 -0.0379 -0.0890
83424SOL    HW267883   8.931   8.952   7.616  1.2719  0.5162  0.3524
83425SOL     OW67884  11.233  13.214   9.878  0.1518 -0.1700 -0.0004
83425SOL    HW167885  11.221  13.141   9.940  0.4191 -0.0791  0.1611
83425SOL    HW267886  11.313  13.191   9.831  1.1212  0.7551  1.1119
83426SOL     OW67887   8.736  12.763  13.872  0.6235  0.3161 -0.1003
83426SOL    HW167888   8.752  12.721  13.788  0.7104  1.5225 -0.7118
83426SOL    HW267889   8.813  12.818  13.886  0.8967 -0.3276  1.0773
83427SOL     OW67890   7.771  11.335  12.658  1.0398  0.0492  0.3152
83427SOL    HW167891   7.823  11.391  12.599  1.1593 -1.3451 -0.9483
83427SOL    HW267892   7.818  11.252  12.659 -0.8119 -1.0626 -0.3660
83428SOL     OW67893   3.076   5.707   2.393 -0.8753 -0.0495 -0.3752
83428SOL    HW167894   3.066   5.681   2.485 -0.3916 -1.4648 -0.7044
83428SOL    HW267895   3.157   5.758   2.391 -0.9542  0.0925  0.0010
83429SOL     OW67896  13.735  11.577   4.574 -0.1739  0.6787 -0.4371
83429SOL    HW167897  13.799  11.581   4.503 -0.3755 -1.7582 -0.8566
83429SOL    HW267898  13.788  11.581   4.654  0.4688 -0.4889 -0.7744
83430SOL     OW67899  11.176   9.860  12.356 -0.1444  0.2109  0.3866
83430SOL    HW167900  11.120   9.804  12.410  0.0137  1.2031  1.6364
83430SOL    HW267901  11.125   9.876  12.276  0.0040 -2.0344 -0.2141
83431SOL     OW67902  13.044  10.436   5.663 -0.1524 -0.0330 -0.3993
83431SOL    HW167903  13.114  10.471   5.718 -1.0584  0.3068  0.5729
83431SOL    HW267904  13.041  10.343   5.685 -1.4406  0.3464  1.2452
83432SOL     OW67905   6.954  10.395   4.594 -0.5850 -0.4472 -0.5499
83432SOL    HW167906   7.025  10.342   4.557 -0.1263  0.4574 -0.9852
83432SOL    HW267907   6.910  10.336   4.655  0.6395 -0.9909 -0.1545
83433SOL     OW67908  10.710   2.060  13.852  0.1141  0.1813  0.3958
83433SOL    HW167909  10.790   2.029  13.894  0.2021 -0.0984  0.0235
83433SOL    HW267910  10.723   2.042  13.759 -0.1223  0.7052  0.2607
83434SOL     OW67911   5.387   4.176  12.000 -0.0384  0.3829 -0.0432
83434SOL    HW167912   5.298   4.141  11.998  0.7155 -1.6545 -1.7059
83434SOL    HW267913   5.398   4.218  11.915  0.6038  0.6499  0.1632
83435SOL     OW67914   9.644   4.747   3.559 -0.3201  0.3082 -0.7417
83435SOL    HW167915   9.715   4.730   3.498 -1.3048 -0.2847 -1.7560
83435SOL    HW267916   9.566   4.757   3.503 -1.2759 -0.4233  0.4222
83436SOL     OW67917   8.003   1.215   2.960 -0.5188 -0.1218  0.5483
83436SOL    HW167918   8.091   1.252   2.970 -0.8077  0.6337  0.3089
83436SOL    HW267919   7.979   1.235   2.869 -0.9245 -0.3595  0.6031
83437SOL     OW67920   1.369   8.951   5.656 -0.0861 -0.2392  0.3233
83437SOL    HW167921   1.343   8.896   5.730  1.3342  0.4277  1.3414
83437SOL    HW267922   1.310   8.924   5.585 -1.1467 -1.2340  1.5369
83438SOL     OW67923   0.761  12.107   1.866  0.8819 -0.3841 -0.1399
83438SOL    HW167924   0.814  12.083   1.790  1.6139  0.6750  0.0179
83438SOL    HW267925   0.824  12.144   1.928  0.2841 -1.1357  0.9479
83439SOL     OW67926  12.131   6.255   4.931 -0.1028 -0.2123  0.3304
83439SOL    HW167927  12.198   6.193   4.958  0.3553 -0.6765 -1.7032
83439SOL    HW267928  12.056   6.201   4.907 -1.0008  0.2676  1.9717
83440SOL     OW67929   3.462  11.916  12.167  0.0028 -0.6102  0.0998
83440SOL    HW167930   3.473  11.988  12.230  0.7178  0.2214 -0.9480
83440SOL    HW267931   3.401  11.856  12.210 -0.2462  0.3951  1.1960
83441SOL     OW67932   3.229   2.940   0.725  0.4083 -0.0648 -0.0862
83441SOL    HW167933   3.143   2.905   0.750  1.3150 -1.7929  0.8108
83441SOL    HW267934   3.244   3.013   0.786  0.7354 -1.5269  1.6697
83442SOL     OW67935   1.339   3.741   3.244  0.8158  0.2402  0.0301
83442SOL    HW167936   1.358   3.748   3.338 -0.9068  1.2256  0.3409
83442SOL    HW267937   1.295   3.823   3.222 -0.3875 -0.6949 -1.2312
83443SOL     OW67938   1.619  11.491   7.552 -0.4355 -0.0682 -0.2448
83443SOL    HW167939   1.550  11.475   7.488 -0.1266  2.7014 -1.4199
83443SOL    HW267940   1.610  11.584   7.573  2.4686  0.2158  0.1259
83444SOL     OW67941   5.950  13.348   9.412  0.0535  0.0075  0.2241
83444SOL    HW167942   5.961  13.255   9.431 -1.2973 -1.2942 -4.1137
83444SOL    HW267943   6.031  13.373   9.368 -0.2230  0.4267 -0.0572
83445SOL     OW67944   0.137   0.967  10.429  0.6154 -0.6040 -0.7203
83445SOL    HW167945   0.127   1.052  10.472  1.3052 -1.0087  0.2772
83445SOL    HW267946   0.098   0.980  10.343 -0.6716  0.2870 -0.0507
83446SOL     OW67947   6.898   3.090   0.097 -0.1678  0.1051 -0.0314
83446SOL    HW167948   6.810   3.054   0.107  0.6610 -1.6955  1.2913
83446SOL    HW267949   6.923   3.118   0.186  0.1965  1.6575 -0.5867
83447SOL     OW67950   7.970  12.026  12.185  0.5987 -0.0635 -0.0246
83447SOL    HW167951   7.892  11.993  12.140 -0.3022  1.1557  0.5849
83447SOL    HW267952   8.002  11.951  12.235 -0.7765 -0.3280  0.5061
83448SOL     OW67953   0.874  10.258   1.634  0.0636  0.3085  0.5154
83448SOL    HW167954   0.784  10.277   1.609 -0.1646  0.1679  1.2103
83448SOL    HW267955   0.868  10.227   1.725  0.6770 -0.8372  0.1901
83449SOL     OW67956   3.461   0.003  13.858 -0.0973  0.9378  0.6411
83449SOL    HW167957   3.554   0.007  13.879  0.1455  0.1785 -0.2095
83449SOL    HW267958   3.441  -0.091  13.855 -0.8644  1.0880  0.7021
83450SOL     OW67959   9.350   4.157   2.167  0.2188 -0.3889 -0.5370
83450SOL    HW167960   9.286   4.146   2.097 -0.6861 -1.9275  0.4853
83450SOL    HW267961   9.434   4.166   2.122 -0.4231 -0.6297 -1.8210
83451SOL     OW67962   9.716   2.572   9.436  0.2401  0.2847  0.2769
83451SOL    HW167963   9.679   2.601   9.353 -1.3736  2.6072  1.7167
83451SOL    HW267964   9.667   2.619   9.503  1.3261 -1.6655  2.6030
83452SOL     OW67965   3.101  11.019  11.117 -0.2849 -0.5263 -0.0911
83452SOL    HW167966   3.070  11.109  11.116 -0.2055 -0.4711  0.9891
83452SOL    HW267967   3.058  10.977  11.043 -1.2966  0.0774  0.1414
83453SOL     OW67968  11.349  12.923  12.601  0.4761 -0.0293  0.7259
83453SOL    HW167969  11.318  12.973  12.525  1.4357  0.6921  0.7881
83453SOL    HW267970  11.432  12.885  12.572  0.9171  0.3612  1.4438
83454SOL     OW67971  11.549   7.630  12.114 -0.5266  0.1147 -0.0438
83454SOL    HW167972  11.523   7.550  12.160 -0.7237 -0.3523 -0.9475
83454SOL    HW267973  11.644   7.626  12.110 -0.3439  1.0802  1.9331
83455SOL     OW67974  11.415   9.951   5.478  0.4684  0.1129 -0.6608
83455SOL    HW167975  11.404   9.934   5.571  1.1214 -1.6370 -0.8508
83455SOL    HW267976  11.363  10.029   5.461 -0.9239 -0.4089  0.8741
83456SOL     OW67977   1.318  12.378  11.176 -0.0643 -0.3070 -0.1279
83456SOL    HW167978   1.294  12.375  11.084  1.7070  1.5697 -0.7165
83456SOL    HW267979   1.274  12.456  11.209  0.1258 -0.4038  0.3621
83457SOL     OW67980  13.167   7.284   3.051  0.9990 -0.1078  0.3930
83457SOL    HW167981  13.072   7.275   3.058  0.9247  1.1945  1.5689
83457SOL    HW267982  13.202   7.228   3.120  1.0337  0.1840  0.6133
83458SOL     OW67983   9.434   5.691  13.459 -0.3123 -0.1056 -0.2556
83458SOL    HW167984   9.430   5.617  13.398 -0.5948 -0.5209  0.2676
83458SOL    HW267985   9.416   5.654  13.545 -1.2508  0.7063 -0.0834
83459SOL     OW67986  12.311   9.242   0.466  0.4489  0.7518  0.3765
83459SOL    HW167987  12.254   9.309   0.504 -1.9069 -0.4882 -0.7467
83459SOL    HW267988  12.370   9.217   0.537 -0.1293  2.3647  1.4837
83460SOL     OW67989   1.823   9.260  14.040 -0.1098 -0.3505 -0.0677
83460SOL    HW167990   1.857   9.175  14.015 -0.5983 -0.6778  0.3452
83460SOL    HW267991   1.730   9.257  14.016  0.0380  0.3484 -0.7543
83461SOL     OW67992   3.593  13.097   8.115 -0.2568  0.0957 -0.0762
83461SOL    HW167993   3.665  13.112   8.054 -0.5582  0.8291 -0.2506
83461SOL    HW267994   3.593  13.002   8.127  0.1217 -0.0102 -0.8246
83462SOL     OW67995   0.911  12.024  12.816  0.2090 -0.0999 -0.1320
83462SOL    HW167996   0.877  12.041  12.904 -2.3952  2.3291 -1.4316
83462SOL    HW267997   0.851  11.958  12.780  0.7782 -0.4933 -0.3682
83463SOL     OW67998  13.148  10.234   2.216  0.1890 -0.1570 -0.0073
83463SOL    HW167999  13.240  10.253   2.200  0.3881 -0.5825  0.5898
83463SOL    HW268000  13.104  10.256   2.134  0.8120  0.1145 -0.2725
83464SOL     OW68001   4.339   7.559   5.325  0.1125 -0.3327  0.0542
83464SOL    HW168002   4.392   7.493   5.280  1.6961  0.1396  1.1077
83464SOL    HW268003   4.320   7.521   5.410  0.7438  0.3835  0.5404
83465SOL     OW68004  12.626   3.043   8.421 -0.1396 -0.3503  0.5121
83465SOL    HW168005  12.533   3.062   8.410  0.1171  0.4708 -0.4010
83465SOL    HW268006  12.630   2.948   8.434 -1.1341 -0.3292  1.0296
83466SOL     OW68007   2.064   5.725  11.137 -0.0324  0.0682 -0.2991
83466SOL    HW168008   2.099   5.797  11.084 -1.5603  2.1419  1.3144
83466SOL    HW268009   2.098   5.742  11.225  0.0031 -1.5414  0.0222
83467SOL     OW68010  12.243   1.703  11.849  0.6629 -0.0695  0.2956
83467SOL    HW168011  12.227   1.786  11.805  0.7723 -0.6603 -0.8908
83467SOL    HW268012  12.308   1.659  11.794 -0.3874 -1.5093  0.1535
83468SOL     OW68013  13.847   0.038   6.811  0.3883  0.1669  0.1597
83468SOL    HW168014  13.859  -0.007   6.727 -0.9241 -1.2121  0.6540
83468SOL    HW268015  13.922   0.012   6.864  0.7901  0.3698 -0.3106
83469SOL     OW68016   9.859   0.437   0.239  1.2078  0.0511  0.1228
83469SOL    HW168017   9.939   0.407   0.283  1.1444  0.2142  0.3448
83469SOL    HW268018   9.891   0.495   0.170  1.4890 -1.9640 -1.5852
83470SOL     OW68019  11.826   8.894  13.636 -0.0491 -0.0396 -0.2548
83470SOL    HW168020  11.841   8.948  13.714  1.5710 -1.8367  0.7603
83470SOL    HW268021  11.889   8.928  13.572 -0.7420  0.8311 -0.5015
83471SOL     OW68022   2.649  14.078   2.073 -0.2032 -0.3313  0.0650
83471SOL    HW168023   2.635  14.095   2.166  1.5036  0.3830  0.2246
83471SOL    HW268024   2.579  14.017   2.049 -1.0321 -0.0643  1.6598
83472SOL     OW68025   8.894  12.623  11.191  0.3098 -0.2246  0.0347
83472SOL    HW168026   8.935  12.681  11.128  0.2613 -0.0356  0.1762
83472SOL    HW268027   8.883  12.540  11.144  1.8079 -0.6140  0.3150
83473SOL     OW68028   4.726   3.969   4.262 -0.6586 -0.9383  0.3525
83473SOL    HW168029   4.805   3.929   4.297 -0.5447 -1.6549 -0.6773
83473SOL    HW268030   4.686   4.015   4.336  2.0814  1.7088  0.3763
83474SOL     OW68031   6.626   1.773  12.729  0.0509  0.0642 -0.2979
83474SOL    HW168032   6.646   1.864  12.749 -1.9460  0.3745  0.6355
83474SOL    HW268033   6.582   1.775  12.644  0.5797 -0.1244 -0.5811
83475SOL     OW68034   3.661   2.181  10.920 -0.4594 -0.8682 -0.2744
83475SOL    HW168035   3.707   2.166  10.837 -0.2959  0.3022 -0.4062
83475SOL    HW268036   3.581   2.228  10.896  0.7356  1.6870  0.3993
83476SOL     OW68037   6.720   9.145   9.138 -0.1120 -0.3443 -0.4948
83476SOL    HW168038   6.776   9.150   9.216 -0.7704 -1.7635  0.0932
83476SOL    HW268039   6.781   9.132   9.065  0.4810  0.5986 -0.1832
83477SOL     OW68040   7.202  11.573   0.247  0.2862 -0.3482 -0.3035
83477SOL    HW168041   7.232  11.508   0.310  0.2994 -0.5057 -0.4727
83477SOL    HW268042   7.265  11.568   0.175  1.0510  0.7550  0.2554
83478SOL     OW68043  13.571   0.306  10.223  0.6719 -0.5161  0.2651
83478SOL    HW168044  13.516   0.383  10.231  0.0345 -0.8489 -0.7538
83478SOL    HW268045  13.658   0.335  10.252  0.3599  0.4767  0.2423
83479SOL     OW68046   2.748  10.348   6.427 -0.4320 -0.5731 -0.4615
83479SOL    HW168047   2.766  10.273   6.484 -0.3643  0.5084  0.9918
83479SOL    HW268048   2.722  10.418   6.487  0.0913  0.7512 -1.7282
83480SOL     OW68049  12.305  10.478   1.675 -0.1121 -0.0847  0.1854
83480SOL    HW168050  12.384  10.488   1.622  0.7314 -1.2797  1.1567
83480SOL    HW268051  12.333  10.500   1.764 -0.4133 -2.1443  0.8351
83481SOL     OW68052  10.126   2.715   5.506 -0.4959 -0.4021  0.5475
83481SOL    HW168053  10.066   2.777   5.463  0.3168 -0.2535 -0.4102
83481SOL    HW268054  10.078   2.632   5.507 -1.2513  0.0259  1.0470
83482SOL     OW68055   0.842   4.550   6.869  0.5964 -0.6793  0.3626
83482SOL    HW168056   0.835   4.479   6.805  2.6308 -0.9122  0.3277
83482SOL    HW268057   0.888   4.511   6.943  1.6857  0.5731  0.3710
83483SOL     OW68058  10.758   6.579   0.872 -0.0824  1.2173 -0.4443
83483SOL    HW168059  10.714   6.504   0.831  1.0969 -0.7398  1.6759
83483SOL    HW268060  10.688   6.628   0.915 -0.5927 -0.2119  0.4168
83484SOL     OW68061   4.550   7.393  11.168  0.1966 -0.3576 -1.0643
83484SOL    HW168062   4.565   7.299  11.177  1.4620 -0.1923 -1.2769
83484SOL    HW268063   4.609   7.421  11.099 -1.5809  0.2884 -2.3974
83485SOL     OW68064  11.735  13.666   7.497  0.2007 -0.1767  0.6157
83485SOL    HW168065  11.826  13.670   7.529  0.1209  2.1559  0.7523
83485SOL    HW268066  11.688  13.728   7.552 -1.4734 -1.2277  0.4333
83486SOL     OW68067  13.883  12.044  10.479 -0.2320  0.2341  0.1106
83486SOL    HW168068  13.839  11.960  10.495 -0.9700  0.5521 -0.2423
83486SOL    HW268069  13.976  12.020  10.468 -0.3118 -0.4404  0.8182
83487SOL     OW68070   3.705  12.079   1.555  0.0191 -0.2227  0.0092
83487SOL    HW168071   3.721  12.095   1.462  2.1809 -1.6719  0.0573
83487SOL    HW268072   3.675  12.164   1.589  0.3965  0.6704 -1.7450
83488SOL     OW68073   2.136   8.227  12.888  0.1077 -0.0982  0.5127
83488SOL    HW168074   2.042   8.214  12.902 -0.0917 -0.7239 -1.2472
83488SOL    HW268075   2.176   8.148  12.924 -0.0398  0.0633  1.0511
83489SOL     OW68076   2.957   6.427   5.954 -0.2683 -0.0796  0.1455
83489SOL    HW168077   2.933   6.514   5.923  0.3916 -0.1464 -0.5714
83489SOL    HW268078   2.901   6.368   5.904  0.7485 -0.1828 -0.8990
83490SOL     OW68079  14.036   1.927   5.872 -0.1244  0.1046  0.3856
83490SOL    HW168080  14.077   1.968   5.948 -1.1824  0.4126  0.8114
83490SOL    HW268081  14.007   1.841   5.904 -0.6386  0.2644  0.3672
83491SOL     OW68082  11.591   4.245   0.316 -0.2294  0.6037  0.1838
83491SOL    HW168083  11.510   4.278   0.353 -0.8893 -0.2552 -0.4549
83491SOL    HW268084  11.583   4.150   0.321 -0.3715  0.4373 -2.1382
83492SOL     OW68085  12.346   6.102   4.480  0.5699 -0.0890 -0.1985
83492SOL    HW168086  12.329   6.108   4.386  0.3282  0.5531 -0.1168
83492SOL    HW268087  12.411   6.033   4.488  3.0838  2.0097 -1.1549
83493SOL     OW68088  12.238   3.979   1.409 -0.0583 -0.1133 -0.5749
83493SOL    HW168089  12.177   4.037   1.454  1.2994  1.3532 -0.5557
83493SOL    HW268090  12.193   3.954   1.328 -2.3241 -2.3686  1.2444
83494SOL     OW68091   3.401   1.177   0.250 -0.1639 -0.2159  0.6531
83494SOL    HW168092   3.306   1.168   0.259 -0.4727  1.6971 -0.1623
83494SOL    HW268093   3.420   1.138   0.165 -0.2430 -0.4949  0.7631
83495SOL     OW68094   1.186   1.574  12.842  0.1869 -0.0375  0.1814
83495SOL    HW168095   1.139   1.545  12.764  1.2108  0.7548 -0.7575
83495SOL    HW268096   1.252   1.506  12.857  1.1627  0.6952 -0.7234
83496SOL     OW68097  13.384   2.851  10.087  0.1177 -0.6163 -0.5081
83496SOL    HW168098  13.449   2.840  10.157  0.8647  2.0556 -0.6840
83496SOL    HW268099  13.436   2.877  10.011 -1.0032 -0.1442 -1.1276
83497SOL     OW68100   5.201   6.309  11.296 -0.4296  0.0601 -0.3573
83497SOL    HW168101   5.218   6.361  11.375 -1.3993  1.4595 -1.0256
83497SOL    HW268102   5.171   6.373  11.232 -0.5614 -1.1930 -1.5812
83498SOL     OW68103   5.344   7.274   4.792 -0.0960 -0.3711 -0.0181
83498SOL    HW168104   5.296   7.220   4.855 -0.5006  0.0073  0.0036
83498SOL    HW268105   5.423   7.300   4.839  0.9757 -2.3578 -0.6095
83499SOL     OW68106   1.423   3.525  13.296 -0.7402 -0.6400 -0.4860
83499SOL    HW168107   1.440   3.609  13.338  0.9573 -1.6553  1.0372
83499SOL    HW268108   1.345   3.492  13.339 -0.4439 -0.5638  0.1189
83500SOL     OW68109   9.012  11.243  11.544  0.0795 -0.2109  0.4505
83500SOL    HW168110   9.074  11.315  11.559 -0.5846  0.1399  1.6855
83500SOL    HW268111   8.931  11.287  11.517  0.0466 -0.5851 -0.0616
83501SOL     OW68112  12.895   0.250   5.780  0.4751  0.3416 -0.1170
83501SOL    HW168113  12.976   0.214   5.815  0.4496 -0.2413 -0.6191
83501SOL    HW268114  12.826   0.202   5.826  0.4431 -1.2188 -1.6727
83502SOL     OW68115   9.208   4.747  13.633 -0.4085 -0.2549  0.0478
83502SOL    HW168116   9.132   4.765  13.687 -2.1121 -1.7349 -1.6925
83502SOL    HW268117   9.172   4.707  13.553  2.0963  0.0858 -1.3674
83503SOL     OW68118   7.425   7.258   1.753  0.4761  0.1922  0.2597
83503SOL    HW168119   7.374   7.305   1.688  0.5120  1.3155  0.9991
83503SOL    HW268120   7.364   7.197   1.793 -0.2420  1.3350  0.9525
83504SOL     OW68121   0.232  12.724  12.503 -0.7845  0.2025  0.3942
83504SOL    HW168122   0.312  12.674  12.488 -1.2773 -0.3575 -0.4923
83504SOL    HW268123   0.259  12.816  12.496 -0.3982  0.0073 -0.9739
83505SOL     OW68124   2.029  13.337  11.141  0.4176  0.2670 -0.0009
83505SOL    HW168125   1.999  13.411  11.090  0.0378  0.8081  0.9840
83505SOL    HW268126   1.981  13.342  11.223 -1.1908 -2.2669 -0.6669
83506SOL     OW68127   5.293  12.122   3.989  0.2862 -0.1965 -0.8424
83506SOL    HW168128   5.275  12.037   4.029  0.5992 -0.6351 -1.6177
83506SOL    HW268129   5.387  12.137   4.006  0.8007 -1.0918 -2.6799
83507SOL     OW68130  13.299  10.439   6.386  0.6310 -0.4300 -0.8097
83507SOL    HW168131  13.294  10.360   6.438  1.0539 -0.0633 -0.2038
83507SOL    HW268132  13.255  10.416   6.304  1.4445 -1.5307 -0.9585
83508SOL     OW68133   8.604   8.100  13.486  0.4611  0.2403 -0.2846
83508SOL    HW168134   8.646   8.183  13.508  0.0404  0.1950  0.7473
83508SOL    HW268135   8.676   8.040  13.470  0.7716  0.5770 -0.1714
83509SOL     OW68136  10.289   3.612   0.408 -0.0204  0.9434  0.4743
83509SOL    HW168137  10.322   3.533   0.366 -2.7844  0.3800 -0.8368
83509SOL    HW268138  10.266   3.584   0.497 -0.2043  0.4740  0.2809
83510SOL     OW68139   5.149  12.470   0.160 -0.3201 -0.2415  0.0883
83510SOL    HW168140   5.162  12.501   0.250 -3.9875  0.1246  0.6671
83510SOL    HW268141   5.228  12.421   0.140  1.8495  1.9564  2.4577
83511SOL     OW68142   6.931  13.547  12.261  0.1829 -0.0035  0.8707
83511SOL    HW168143   6.986  13.533  12.338  1.6049  1.3835  0.1794
83511SOL    HW268144   6.946  13.470  12.206  0.8051 -0.0301  1.0662
83512SOL     OW68145  12.624   2.162   9.399 -1.0284  0.2445 -0.5003
83512SOL    HW168146  12.666   2.113   9.470 -0.9835 -0.1216 -0.7772
83512SOL    HW268147  12.535   2.126   9.396 -1.5438  1.3833  0.4399
83513SOL     OW68148   5.206   1.439  12.978  0.1969 -0.7536 -0.3064
83513SOL    HW168149   5.174   1.391  12.901 -0.3903  0.4596 -0.8463
83513SOL    HW268150   5.161   1.524  12.974 -1.0075 -1.1790  2.2124
83514SOL     OW68151   8.703   9.034  13.215 -0.0880  0.1044 -0.5874
83514SOL    HW168152   8.774   8.971  13.206  0.7320  0.7856  0.7320
83514SOL    HW268153   8.707   9.087  13.135  0.0062 -0.7151 -1.1334
83515SOL     OW68154   3.874   1.916   3.889  0.0985  0.1218  0.2128
83515SOL    HW168155   3.829   1.908   3.972 -3.2281 -0.7513 -1.5043
83515SOL    HW268156   3.916   2.002   3.892 -2.2252  1.2837  1.7920
83516SOL     OW68157  12.263  12.848  12.639 -0.0864  0.3172 -0.2023
83516SOL    HW168158  12.282  12.792  12.714 -1.8708 -0.5128 -0.3183
83516SOL    HW268159  12.198  12.911  12.670 -2.3147 -1.2234 -1.4271
83517SOL     OW68160  10.780   9.668   3.662  0.1598  0.4832 -0.0772
83517SOL    HW168161  10.848   9.733   3.681  0.2654  1.1985 -2.5135
83517SOL    HW268162  10.698   9.714   3.679  0.2178  1.5473 -2.2404
83518SOL     OW68163   9.880   5.910   3.073 -0.0366 -0.5050 -0.4463
83518SOL    HW168164   9.789   5.908   3.043 -0.0580 -1.2424 -0.3457
83518SOL    HW268165   9.873   5.921   3.168  0.0285  1.6484 -0.6456
83519SOL     OW68166   4.654   7.247   5.090  0.2170  0.8682 -0.1846
83519SOL    HW168167   4.635   7.194   5.013  0.8311 -0.6582  0.6657
83519SOL    HW268168   4.728   7.301   5.065 -0.1311  1.0084 -0.9246
83520SOL     OW68169   9.783  11.458  11.877  0.5704  0.1321 -0.0638
83520SOL    HW168170   9.796  11.494  11.965 -1.2921  0.3052  0.1771
83520SOL    HW268171   9.702  11.499  11.847  1.4629  0.5166 -2.1116
83521SOL     OW68172  12.233   0.224  10.531 -0.4748  0.0952  0.1469
83521SOL    HW168173  12.325   0.206  10.549 -1.0776 -2.3679  1.2187
83521SOL    HW268174  12.208   0.288  10.598  0.4263  0.7683 -0.1398
83522SOL     OW68175  11.897   9.230   2.743 -0.7946  0.1075  0.1009
83522SOL    HW168176  11.808   9.258   2.726 -0.0380  1.1853 -2.5269
83522SOL    HW268177  11.933   9.297   2.801 -1.2270  0.5466 -0.1371
83523SOL     OW68178  11.637  12.211   5.282  0.3568 -0.7733 -0.1239
83523SOL    HW168179  11.620  12.139   5.342 -0.2831 -0.4111  0.1411
83523SOL    HW268180  11.672  12.281   5.338 -1.6553  0.0964  0.1054
83524SOL     OW68181   9.701   5.930   5.129 -0.0123  0.3738  0.5500
83524SOL    HW168182   9.722   5.919   5.222 -0.8461  3.4583  1.2368
83524SOL    HW268183   9.764   5.995   5.098  0.0449 -0.3861 -0.9806
83525SOL     OW68184  11.314  10.239   0.158  0.1965 -0.0538 -0.4690
83525SOL    HW168185  11.387  10.202   0.207 -0.9797 -1.9568 -0.0628
83525SOL    HW268186  11.355  10.290   0.088  1.9120 -1.1583 -0.3112
83526SOL     OW68187   1.966   2.516  11.711  0.2668 -0.0531  0.0392
83526SOL    HW168188   1.887   2.561  11.742  0.1996  1.0881 -1.6276
83526SOL    HW268189   2.038   2.558  11.758 -0.0175 -0.1444  0.5536
83527SOL     OW68190   8.622   3.060   6.908  0.2158  0.1748  0.4242
83527SOL    HW168191   8.648   2.970   6.888  0.4607  0.2961  0.1898
83527SOL    HW268192   8.542   3.051   6.959 -0.0072 -0.1630  0.0225
83528SOL     OW68193  12.826   9.222   2.813  0.3332 -0.2805  0.2234
83528SOL    HW168194  12.794   9.145   2.766 -0.7287  0.6170 -0.5940
83528SOL    HW268195  12.751   9.282   2.815  1.3273  1.0181  0.1829
83529SOL     OW68196   1.883   7.055   5.240  0.5016  0.2480  0.0994
83529SOL    HW168197   1.953   7.053   5.306 -1.7951  0.9928  2.7537
83529SOL    HW268198   1.824   7.124   5.270 -0.7685  0.5182 -2.7382
83530SOL     OW68199   5.690   3.142   6.403 -0.2710  0.1412  0.5499
83530SOL    HW168200   5.760   3.087   6.439 -0.2990 -0.1252  0.2094
83530SOL    HW268201   5.633   3.080   6.357  0.3302  0.5796 -0.8479
83531SOL     OW68202   6.073   5.948   4.607 -0.6949 -0.6005  0.5783
83531SOL    HW168203   5.992   5.960   4.655  0.4623 -0.5165  2.6109
83531SOL    HW268204   6.096   6.036   4.576 -1.6957 -0.7344 -0.6238
83532SOL     OW68205   1.949  10.880   8.437  0.0931 -0.5626  0.7723
83532SOL    HW168206   1.975  10.897   8.347 -0.9417 -0.9009  0.3981
83532SOL    HW268207   1.983  10.792   8.456 -0.0389 -0.6586  0.5676
83533SOL     OW68208  11.530   0.546   6.319 -0.2554  0.2916 -0.0402
83533SOL    HW168209  11.623   0.560   6.336  0.3015 -1.2820 -1.5519
83533SOL    HW268210  11.500   0.492   6.393  0.4322 -0.5471 -0.3607
83534SOL     OW68211   8.871   6.780   5.608  0.4541 -0.2052  0.6544
83534SOL    HW168212   8.850   6.778   5.514  0.4562  0.7825  0.6209
83534SOL    HW268213   8.811   6.845   5.644  1.1897  0.2094  1.1514
83535SOL     OW68214  10.676  13.835   7.836  0.0307 -0.0099 -0.8569
83535SOL    HW168215  10.695  13.820   7.928  0.7948 -0.1598 -1.0318
83535SOL    HW268216  10.685  13.930   7.824 -2.7450  0.4222 -0.2086
83536SOL     OW68217   5.274   7.644  13.099 -0.0056  0.1889  0.3532
83536SOL    HW168218   5.299   7.602  13.016 -0.5516  0.8376 -0.1450
83536SOL    HW268219   5.178   7.647  13.096 -0.0137  0.4561  0.8966
83537SOL     OW68220   4.631  10.075   4.155 -0.5488 -0.1231  0.4513
83537SOL    HW168221   4.655  10.022   4.079 -1.6214 -2.4052  1.5802
83537SOL    HW268222   4.537  10.060   4.165 -0.4450  0.1869  2.1470
83538SOL     OW68223   7.258  13.953   8.848  0.2428 -0.5866 -0.3920
83538SOL    HW168224   7.341  13.913   8.872 -0.5423 -2.0903 -0.0570
83538SOL    HW268225   7.265  13.971   8.754  1.7048  1.2835  0.0190
83539SOL     OW68226   9.296   4.869  10.593 -0.7462 -0.4121 -0.7167
83539SOL    HW168227   9.243   4.826  10.526 -1.3931 -0.7016 -0.0311
83539SOL    HW268228   9.261   4.836  10.676  0.6055 -0.7388 -0.2512
83540SOL     OW68229  11.832  12.497   2.783  0.1503  0.0261 -0.0149
83540SOL    HW168230  11.914  12.494   2.735 -0.4787  0.1693 -1.1395
83540SOL    HW268231  11.801  12.406   2.784 -0.4588  0.2095 -1.0219
83541SOL     OW68232  10.883   9.756   5.239  0.2850  0.3301 -0.3293
83541SOL    HW168233  10.819   9.750   5.168  0.8663 -1.2145 -0.7640
83541SOL    HW268234  10.957   9.803   5.201 -0.0785  1.0106 -0.2084
83542SOL     OW68235   3.046   6.365   5.392  0.1141 -0.1255 -0.6211
83542SOL    HW168236   3.024   6.439   5.335 -0.5151 -1.1237 -1.7083
83542SOL    HW268237   3.119   6.321   5.349  0.8401  0.1439  0.2959
83543SOL     OW68238   2.601   5.571   7.759 -0.3259 -0.4438 -0.2198
83543SOL    HW168239   2.633   5.482   7.774 -1.0360 -0.5332  0.8467
83543SOL    HW268240   2.596   5.610   7.846 -0.0152  0.6517 -0.6820
83544SOL     OW68241   1.521  11.337  12.667 -0.5778 -0.4781 -0.7176
83544SOL    HW168242   1.487  11.418  12.628 -1.8903 -1.5893 -2.0073
83544SOL    HW268243   1.616  11.342  12.655 -0.6173  0.9446 -0.5782
83545SOL     OW68244   5.671   2.852   5.806 -0.5351 -0.1232  0.0284
83545SOL    HW168245   5.697   2.939   5.834  3.1372 -0.4026 -1.8966
83545SOL    HW268246   5.663   2.802   5.888  1.2535  1.0957  1.0154
83546SOL     OW68247   5.836   7.448   1.342  0.6785  0.5896 -0.4396
83546SOL    HW168248   5.926   7.427   1.365  0.0474 -0.8240  0.9630
83546SOL    HW268249   5.833   7.439   1.246  1.5431 -1.5287 -0.3195
83547SOL     OW68250   3.899   3.037  11.612 -0.2543  0.0714  0.1091
83547SOL    HW168251   3.809   3.007  11.622 -0.5956  1.0796  0.2625
83547SOL    HW268252   3.941   3.014  11.695 -1.2142  2.2310  1.3033
83548SOL     OW68253  10.625   1.908   9.340  0.2942 -0.0121 -0.4851
83548SOL    HW168254  10.555   1.879   9.281 -2.0113  1.6648  1.2101
83548SOL    HW268255  10.622   2.004   9.335  1.7505  0.1179  0.4790
83549SOL     OW68256   4.662   4.328   8.156  0.1904  0.5739 -0.4932
83549SOL    HW168257   4.743   4.284   8.181 -0.8648 -1.5604 -0.5940
83549SOL    HW268258   4.670   4.417   8.191  2.6882  0.5356 -0.8245
83550SOL     OW68259   2.905  11.149  12.490  0.0588  0.5814  0.2296
83550SOL    HW168260   2.860  11.087  12.433  0.4547 -1.1354  1.7114
83550SOL    HW268261   2.863  11.233  12.471 -1.1182 -0.2685 -1.1711
83551SOL     OW68262   2.294   4.867  11.346  0.1305  0.0511 -0.7181
83551SOL    HW168263   2.361   4.848  11.412 -0.4885  0.8525  0.1637
83551SOL    HW268264   2.232   4.795  11.354  0.0091  0.1915 -0.3418
83552SOL     OW68265  13.451  12.388  13.556  0.1897  0.1652 -0.2719
83552SOL    HW168266  13.494  12.359  13.476  0.5508  0.9994 -0.3973
83552SOL    HW268267  13.360  12.358  13.547  0.0616  0.7906 -1.3084
83553SOL     OW68268  12.462   2.739   4.485  1.0447  0.0990  0.4361
83553SOL    HW168269  12.396   2.708   4.423  1.1940 -0.8996  0.7573
83553SOL    HW268270  12.418   2.735   4.570  1.2328  0.2798  0.5404
83554SOL     OW68271   9.229  11.375   1.262 -0.3489  0.2876 -0.3234
83554SOL    HW168272   9.219  11.281   1.252  0.6198  0.1422 -0.0500
83554SOL    HW268273   9.141  11.408   1.277 -0.7546 -0.5122 -0.8948
83555SOL     OW68274  10.067  12.555   4.874 -0.5431  0.5690  0.3279
83555SOL    HW168275  10.144  12.610   4.889 -0.6593  1.1053 -0.9025
83555SOL    HW268276  10.085  12.513   4.789 -0.8905 -0.5508  0.8014
83556SOL     OW68277  12.742  10.476  10.557  1.1270 -0.0518  0.6736
83556SOL    HW168278  12.689  10.426  10.495  2.0839  0.9631 -1.0103
83556SOL    HW268279  12.832  10.460  10.532  1.6259 -0.6266  2.6323
83557SOL     OW68280   2.223  10.973   9.392  0.1044  0.1593 -0.2998
83557SOL    HW168281   2.309  11.012   9.377  0.5529 -0.9789 -0.8115
83557SOL    HW268282   2.168  11.046   9.420  0.9507  1.1289 -1.0735
83558SOL     OW68283   2.527   4.306  11.181 -0.5381 -0.0556  0.1364
83558SOL    HW168284   2.557   4.388  11.220 -1.4400  0.0358  0.6617
83558SOL    HW268285   2.573   4.301  11.097 -0.8599  1.2613 -0.1384
83559SOL     OW68286  13.622   0.930   5.981  0.3230 -0.2354  0.1769
83559SOL    HW168287  13.717   0.915   5.989  0.1826 -1.8746 -0.6745
83559SOL    HW268288  13.583   0.849   6.014 -0.9208  1.1970  2.5171
83560SOL     OW68289   5.547  10.550   2.085  0.0744  0.0134  0.4188
83560SOL    HW168290   5.554  10.545   2.180  0.0141  0.1890  0.4317
83560SOL    HW268291   5.583  10.636   2.062 -1.0716  0.4882  0.3857
83561SOL     OW68292  13.686  11.586   5.731 -0.1282  0.2844  0.2599
83561SOL    HW168293  13.672  11.503   5.777 -0.5630  0.6943  0.8860
83561SOL    HW268294  13.621  11.586   5.660  0.2194 -0.1377 -0.0575
83562SOL     OW68295  11.615   3.614   0.554  0.9115  0.2917 -0.4300
83562SOL    HW168296  11.700   3.635   0.593  0.3402 -0.6672  1.4640
83562SOL    HW268297  11.615   3.519   0.544 -0.1290  0.2202  0.0994
83563SOL     OW68298  10.262   1.053  11.029  0.5577 -0.3131 -0.1487
83563SOL    HW168299  10.262   1.045  11.124  1.6085 -0.4695 -0.1483
83563SOL    HW268300  10.286   0.965  10.998  2.1423  0.1932 -0.4772
83564SOL     OW68301   9.730   4.019   2.767 -0.3625 -0.2547  0.6774
83564SOL    HW168302   9.642   4.037   2.800 -0.5560 -0.7237  0.4263
83564SOL    HW268303   9.735   4.069   2.686 -0.2612  0.0739  0.8859
83565SOL     OW68304   5.136   2.390   7.836  0.1498 -0.2854  0.2050
83565SOL    HW168305   5.137   2.305   7.793  1.4320 -0.5876  0.7894
83565SOL    HW268306   5.212   2.388   7.895  0.7811  1.6156 -0.4729
83566SOL     OW68307  13.747   3.469   6.861 -0.2812 -1.0740  0.0790
83566SOL    HW168308  13.830   3.452   6.906 -0.0361  1.8450  0.9038
83566SOL    HW268309  13.771   3.473   6.768  0.2711 -1.3457  0.2051
83567SOL     OW68310   8.714   0.931   1.880  0.3786  0.5940 -1.0342
83567SOL    HW168311   8.750   1.012   1.917  0.0011  0.0493  0.6075
83567SOL    HW268312   8.784   0.898   1.823  1.8174  0.4828  0.6973
83568SOL     OW68313   7.232   9.955  11.955 -0.0313 -0.1975  0.2141
83568SOL    HW168314   7.323   9.951  11.986 -0.1652  0.1226  0.6454
83568SOL    HW268315   7.211   9.864  11.932  0.8524 -0.0818 -1.2210
83569SOL     OW68316   0.877   7.300   1.231 -0.2524  0.3717  0.1712
83569SOL    HW168317   0.930   7.339   1.301  0.4106 -0.2373  0.0115
83569SOL    HW268318   0.816   7.370   1.206  1.7337  1.7882 -1.0010
83570SOL     OW68319  13.417   3.582   1.761 -0.4180  0.5733 -0.0543
83570SOL    HW168320  13.331   3.610   1.731 -0.8105 -0.7791 -0.2404
83570SOL    HW268321  13.458   3.540   1.685  0.2307  0.8012  0.1571
83571SOL     OW68322   8.718   8.977   6.033  0.5857 -0.2520 -0.1020
83571SOL    HW168323   8.686   8.976   5.943 -1.8692  0.9550  0.6905
83571SOL    HW268324   8.649   8.937   6.085  1.5419 -0.0775  1.3907
83572SOL     OW68325  10.855   9.064   3.379  0.3260 -0.0136 -0.5297
83572SOL    HW168326  10.872   9.142   3.326  2.9113  1.0510  1.5960
83572SOL    HW268327  10.767   9.077   3.414 -0.0950  0.8739 -1.8246
83573SOL     OW68328   7.018   2.253  11.186 -0.0237 -0.2500 -0.2544
83573SOL    HW168329   7.045   2.188  11.251 -0.7552  0.0574  0.3752
83573SOL    HW268330   6.932   2.283  11.216 -0.5060 -0.2937 -1.5148
83574SOL     OW68331   7.106  13.316   6.988 -0.6005 -0.3195 -0.5686
83574SOL    HW168332   7.136  13.344   6.901  2.0367 -0.4800  0.2255
83574SOL    HW268333   7.024  13.269   6.970 -0.1618 -0.3064 -2.9610
83575SOL     OW68334  10.276   0.140  12.537  0.3589  0.0410  0.2672
83575SOL    HW168335  10.238   0.207  12.595 -0.1662 -0.3768  0.4130
83575SOL    HW268336  10.277   0.061  12.590  1.6980  0.1020  0.3482
83576SOL     OW68337   8.520  11.453  13.337  0.1205 -0.5567  0.7536
83576SOL    HW168338   8.571  11.420  13.411  2.0821  1.0747  0.2283
83576SOL    HW268339   8.526  11.384  13.271  0.0692 -1.1788  1.3907
83577SOL     OW68340   2.783   1.759   8.485  0.4538  0.4743 -0.1596
83577SOL    HW168341   2.850   1.820   8.454  0.9295  0.0285 -0.0251
83577SOL    HW268342   2.832   1.686   8.522 -0.0714  1.0283  1.7653
83578SOL     OW68343  12.444  12.714  13.585  0.0266  0.1494 -0.2874
83578SOL    HW168344  12.384  12.789  13.583 -1.3187 -0.7390  2.2390
83578SOL    HW268345  12.399  12.649  13.640  1.0549 -2.6278 -2.4907
83579SOL     OW68346   3.253   9.400   9.396  0.0310 -0.4022  0.2347
83579SOL    HW168347   3.236   9.371   9.307 -1.1249  0.7556  0.0396
83579SOL    HW268348   3.166   9.406   9.437 -0.0143  3.3615 -0.0162
83580SOL     OW68349   0.287   7.395  10.599  0.7175  0.5440 -0.0262
83580SOL    HW168350   0.222   7.352  10.543 -0.3591  0.2561  1.3896
83580SOL    HW268351   0.368   7.392  10.548  0.3141 -1.7420 -0.6505
83581SOL     OW68352  10.333   1.006  11.882  0.4901  0.1725  0.4034
83581SOL    HW168353  10.361   0.987  11.792 -0.1740  1.3629 -0.0600
83581SOL    HW268354  10.409   0.981  11.935  2.0271  2.1756 -0.7331
83582SOL     OW68355  11.940   4.600   0.481  0.0330  0.6847 -0.0295
83582SOL    HW168356  11.927   4.660   0.555 -1.2678 -0.7809  0.9906
83582SOL    HW268357  11.857   4.554   0.472  0.9350 -0.8672 -0.8736
83583SOL     OW68358   7.398   9.390   9.296 -0.3960  0.0823 -0.0838
83583SOL    HW168359   7.398   9.356   9.206  0.2959 -0.9877  0.2899
83583SOL    HW268360   7.422   9.314   9.350 -0.7444  0.7191  0.9987
83584SOL     OW68361   7.144   4.162  13.202  0.4045  0.2597  0.2794
83584SOL    HW168362   7.183   4.215  13.271 -0.3010  1.7271 -0.4239
83584SOL    HW268363   7.050   4.172  13.213  0.2738  0.9186 -1.1853
83585SOL     OW68364   9.246  11.379   5.883 -0.4992  0.0459  0.0988
83585SOL    HW168365   9.198  11.341   5.957 -0.5947 -0.0303 -0.0021
83585SOL    HW268366   9.332  11.337   5.886 -0.6701 -0.3200 -0.1291
83586SOL     OW68367  13.333   9.292   7.528  0.1801 -0.1537 -0.6011
83586SOL    HW168368  13.292   9.206   7.531  1.9422 -1.0023  1.5858
83586SOL    HW268369  13.305   9.335   7.608 -0.3306  1.1827 -1.4651
83587SOL     OW68370   8.893   3.824   4.725 -0.3784 -0.3500  0.3890
83587SOL    HW168371   8.847   3.876   4.791  0.5900 -0.7032  1.3722
83587SOL    HW268372   8.977   3.869   4.714  0.0759 -1.1430  0.5300
83588SOL     OW68373   4.329  13.548   6.216  0.3696  0.0564  0.0329
83588SOL    HW168374   4.392  13.620   6.205 -0.2986  0.5299 -0.8880
83588SOL    HW268375   4.342  13.518   6.306 -0.1754  2.1504  0.8627
83589SOL     OW68376   1.219   0.511   2.392  0.1000  0.0994  0.2830
83589SOL    HW168377   1.245   0.599   2.364  1.1150  0.0555  1.0101
83589SOL    HW268378   1.285   0.487   2.458  0.2453 -1.4741 -0.3923
83590SOL     OW68379  11.243  13.989   6.669  0.4284  0.2956 -0.1770
83590SOL    HW168380  11.152  14.017   6.677  0.9655  1.8041  1.2395
83590SOL    HW268381  11.288  14.063   6.627  1.3884  0.5377  1.2032
83591SOL     OW68382  12.399   8.190   1.434 -0.1352  0.5347 -0.7125
83591SOL    HW168383  12.318   8.152   1.468  0.1577 -0.0094 -0.6214
83591SOL    HW268384  12.450   8.213   1.511  0.3348 -0.2842 -0.7647
83592SOL     OW68385   1.584   5.233  12.510  0.0791 -0.0723 -0.0237
83592SOL    HW168386   1.556   5.277  12.591  0.1663  1.5295 -0.8407
83592SOL    HW268387   1.678   5.247  12.506  0.0364  0.0821 -0.5398
83593SOL     OW68388  12.787   7.016   1.827 -0.5913 -0.2973  0.9747
83593SOL    HW168389  12.844   7.029   1.751 -0.6703 -1.1416  0.7583
83593SOL    HW268390  12.699   7.033   1.795 -0.4843  1.1126  1.3353
83594SOL     OW68391  11.794   8.387   7.168  0.0453  0.3684  0.5354
83594SOL    HW168392  11.833   8.313   7.215  0.5577  0.3896  0.1575
83594SOL    HW268393  11.834   8.383   7.081 -1.3525 -0.0451 -0.1179
83595SOL     OW68394   3.467   3.027   1.466  0.5438  0.2572 -0.3663
83595SOL    HW168395   3.517   3.106   1.443  0.3805  0.5356  0.2074
83595SOL    HW268396   3.512   2.991   1.542 -0.2817  0.6735  0.3409
83596SOL     OW68397   9.850   5.472  13.631 -0.3354 -0.8033  0.3757
83596SOL    HW168398   9.824   5.551  13.582 -0.0800 -2.1079 -2.0251
83596SOL    HW268399   9.768   5.438  13.667 -0.5399  0.1762  0.8705
83597SOL     OW68400  11.180   5.239   4.844 -0.2564 -0.3618  0.1813
83597SOL    HW168401  11.185   5.148   4.815 -0.8212 -0.7244  1.1584
83597SOL    HW268402  11.195   5.234   4.939 -1.6172  0.3955  0.4577
83598SOL     OW68403   9.484   9.268  12.198 -0.0582 -0.6277 -0.6181
83598SOL    HW168404   9.485   9.276  12.102  0.8125 -2.4246 -0.7908
83598SOL    HW268405   9.511   9.178  12.215 -1.8852 -0.8929  1.2814
83599SOL     OW68406   5.186   4.174  10.417  0.2273  0.0455 -0.3077
83599SOL    HW168407   5.146   4.087  10.413 -3.1431  1.4475 -3.4927
83599SOL    HW268408   5.260   4.169  10.356  0.1854 -0.6390 -0.3107
83600SOL     OW68409  13.463   5.668  11.695 -0.2310 -0.6595  0.1501
83600SOL    HW168410  13.452   5.595  11.755  0.2296 -2.0428 -1.3920
83600SOL    HW268411  13.377   5.709  11.690 -0.2840 -0.5006  1.6994
83601SOL     OW68412   0.980   9.300   0.620  0.0893  0.4077  0.3037
83601SOL    HW168413   0.904   9.270   0.671 -0.6938  0.1696 -0.9689
83601SOL    HW268414   1.043   9.229   0.627 -0.5895 -0.2678 -0.2350
83602SOL     OW68415  10.568   3.609  10.041  0.0224 -0.2922  0.2502
83602SOL    HW168416  10.631   3.549  10.079 -0.2088 -0.7956 -0.1449
83602SOL    HW268417  10.614   3.693  10.035  0.5429 -0.5764  0.2650
83603SOL     OW68418  13.520  12.864  10.714 -0.1935 -0.3857  0.0424
83603SOL    HW168419  13.613  12.884  10.718 -0.2321  0.4755 -2.1018
83603SOL    HW268420  13.495  12.848  10.805  1.6034  1.3200  0.9079
83604SOL     OW68421  10.936   5.726  12.053 -0.6595 -0.2278 -0.2168
83604SOL    HW168422  10.943   5.812  12.013  0.4219 -0.8947 -1.5402
83604SOL    HW268423  10.956   5.741  12.145  0.5166  0.7986 -0.6133
83605SOL     OW68424  13.272  13.522   9.789  0.1545  0.3258  0.4881
83605SOL    HW168425  13.347  13.465   9.804  1.1686  1.9581  2.1126
83605SOL    HW268426  13.208  13.496   9.856 -0.1761 -0.1516 -0.0071
83606SOL     OW68427  12.914   0.225   6.479  0.3691 -0.2677  0.1899
83606SOL    HW168428  12.846   0.159   6.473  1.9684 -1.9114 -0.9713
83606SOL    HW268429  12.935   0.230   6.572 -1.5554  0.5758  0.6243
83607SOL     OW68430  10.138   7.462  10.844 -0.8470 -0.1776  0.1425
83607SOL    HW168431  10.166   7.371  10.834 -0.1657  0.1962 -1.5773
83607SOL    HW268432  10.211   7.505  10.888 -0.9074 -0.3182  0.3840
83608SOL     OW68433   6.994   2.396  12.040 -0.7318  0.3181 -0.0524
83608SOL    HW168434   6.992   2.486  12.072  0.5929  0.1193  0.6409
83608SOL    HW268435   7.054   2.351  12.099 -0.8821 -0.8713 -0.7861
83609SOL     OW68436  10.400  12.284   9.163 -0.0584 -0.1991 -0.5127
83609SOL    HW168437  10.444  12.226   9.224 -1.0633 -0.5817 -0.1402
83609SOL    HW268438  10.316  12.305   9.204 -0.0472  0.8902 -0.9932
83610SOL     OW68439   8.957   2.378   0.025  0.0649 -0.2782 -0.2126
83610SOL    HW168440   8.988   2.396   0.113  1.1041  1.4965 -0.8792
83610SOL    HW268441   8.946   2.283   0.021 -2.4840 -0.2452  2.5934
83611SOL     OW68442   8.389   9.815   7.445 -0.4748  0.2906 -0.2832
83611SOL    HW168443   8.422   9.870   7.373  1.3742  0.0037  0.2904
83611SOL    HW268444   8.421   9.859   7.524 -1.7462  0.1193  0.3412
83612SOL     OW68445   1.419   8.661   4.345  0.9513  0.1118 -0.3117
83612SOL    HW168446   1.410   8.745   4.300  1.5737  0.5675  0.3921
83612SOL    HW268447   1.385   8.677   4.433  1.7967 -0.1543  0.0702
83613SOL     OW68448   9.982   9.195   4.554 -0.3068  0.0142 -0.1624
83613SOL    HW168449  10.055   9.133   4.555  0.8783  1.3575  0.5507
83613SOL    HW268450  10.005   9.257   4.484 -0.4740  0.7643  0.4338
83614SOL     OW68451   4.331   4.523  13.177  0.1046  0.6888 -0.2989
83614SOL    HW168452   4.252   4.471  13.190  0.5721 -0.0314 -0.2845
83614SOL    HW268453   4.300   4.602  13.134 -0.7249  0.7416  0.3563
83615SOL     OW68454  10.951   1.995   3.363 -0.0834  0.0792 -0.5402
83615SOL    HW168455  10.976   2.016   3.273  0.1965  0.0299 -0.4765
83615SOL    HW268456  10.902   2.072   3.393 -0.3716  0.0000 -0.8084
83616SOL     OW68457   7.569   9.971  10.803 -0.2324  0.5611  0.1032
83616SOL    HW168458   7.557   9.960  10.897  0.0512  2.0328  0.3344
83616SOL    HW268459   7.571  10.066  10.790  0.4298  0.3785 -1.2918
83617SOL     OW68460  13.562   1.120   2.698  0.1575  0.7375  0.2069
83617SOL    HW168461  13.648   1.083   2.674 -0.4364 -0.2397 -0.4973
83617SOL    HW268462  13.526   1.151   2.615 -0.3604  0.7211  0.4254
83618SOL     OW68463  13.459   9.198   4.721  0.1734  0.1166 -0.7579
83618SOL    HW168464  13.379   9.201   4.774  1.5700  1.2610  1.4386
83618SOL    HW268465  13.485   9.290   4.711  1.7120 -0.2609 -0.5451
83619SOL     OW68466   7.756   0.635  12.206 -0.2157  0.0724 -0.1655
83619SOL    HW168467   7.719   0.603  12.124 -2.1783  0.1918  0.6322
83619SOL    HW268468   7.699   0.708  12.232  1.2604  1.0225  0.5616
83620SOL     OW68469   2.068   0.623   3.867 -0.1909  0.5203  0.0823
83620SOL    HW168470   2.004   0.576   3.814  0.0804 -0.9029  0.9480
83620SOL    HW268471   2.153   0.595   3.832 -0.0162 -0.1349  1.0031
83621SOL     OW68472   5.915  11.562   8.867 -0.4561 -0.2373  0.7130
83621SOL    HW168473   5.855  11.577   8.794  0.3977 -1.0264 -0.1785
83621SOL    HW268474   5.916  11.645   8.914  0.7670  1.1168 -1.5180
83622SOL     OW68475   4.722   8.621   7.649 -0.0053 -0.4537 -0.6429
83622SOL    HW168476   4.666   8.698   7.637  0.8376  0.2423 -0.2937
83622SOL    HW268477   4.665   8.555   7.688 -0.7980 -0.0770 -1.1371
83623SOL     OW68478   5.198   8.597   3.004  0.1110 -0.2549  0.0578
83623SOL    HW168479   5.288   8.564   3.004 -0.0887 -0.8959 -1.6116
83623SOL    HW268480   5.197   8.661   2.933 -1.5304 -2.7076 -2.3272
83624SOL     OW68481   8.368  11.523   3.785 -0.4805  0.3014  0.1727
83624SOL    HW168482   8.353  11.540   3.692  0.4605  3.3332  0.4657
83624SOL    HW268483   8.280  11.509   3.821 -1.2739  2.5891 -0.6525
83625SOL     OW68484  12.258   6.098   8.607  0.0990 -0.5911  0.1774
83625SOL    HW168485  12.221   6.105   8.695  0.7168  0.0084  0.3977
83625SOL    HW268486  12.333   6.157   8.608  0.0886 -0.5476 -0.7674
83626SOL     OW68487  12.953  12.656   3.771  0.2875 -0.0347  0.6460
83626SOL    HW168488  13.046  12.674   3.756 -0.3526  1.5663 -1.9824
83626SOL    HW268489  12.938  12.570   3.732  0.1475  0.9368 -1.5420
83627SOL     OW68490   3.235   8.073   5.745 -0.0854 -0.8291 -0.7734
83627SOL    HW168491   3.250   8.011   5.673  0.2908 -2.3957  0.5856
83627SOL    HW268492   3.266   8.027   5.823  0.8386  1.3543  0.2385
83628SOL     OW68493  10.951   9.979   4.839 -0.0456  0.1576  0.4191
83628SOL    HW168494  10.918   9.908   4.785 -2.9877  0.3472  1.7639
83628SOL    HW268495  10.989   9.935   4.915 -0.9531 -0.0302  0.7764
83629SOL     OW68496  13.474   6.982   6.073 -0.8486  0.1193 -0.3500
83629SOL    HW168497  13.386   6.986   6.112 -0.4403  0.6711  0.5345
83629SOL    HW268498  13.465   7.026   5.989 -1.0921  1.5273  0.3866
83630SOL     OW68499   7.664  10.386   4.344  0.9721  0.2702  0.6089
83630SOL    HW168500   7.581  10.340   4.347  0.9566  0.2832  0.3854
83630SOL    HW268501   7.725  10.324   4.305  0.7964  0.6683 -0.3340
83631SOL     OW68502   7.688   0.570   2.455  0.6866  0.0722 -0.0978
83631SOL    HW168503   7.604   0.544   2.493  0.3026 -0.1190 -1.0561
83631SOL    HW268504   7.727   0.628   2.521  0.2577 -0.6170  0.7877
83632SOL     OW68505  12.080   8.300   5.626  0.4813 -0.3239  0.2101
83632SOL    HW168506  12.147   8.289   5.693  0.6703  0.6595  0.2000
83632SOL    HW268507  11.998   8.281   5.672  0.7327 -1.2749  0.2871
83633SOL     OW68508   3.459   0.828  11.974  0.1230 -0.1205 -0.5735
83633SOL    HW168509   3.500   0.748  12.005 -0.6867 -1.0145 -1.7265
83633SOL    HW268510   3.365   0.807  11.970 -0.0853  0.8245 -1.0638
83634SOL     OW68511   8.790  11.691  12.581  0.2163 -0.4044 -0.1937
83634SOL    HW168512   8.761  11.611  12.537 -1.4704 -0.0693  0.2306
83634SOL    HW268513   8.860  11.662  12.640  0.1404 -1.4277 -0.5810
83635SOL     OW68514   9.919   6.979   5.409  0.3054 -0.2951  0.2029
83635SOL    HW168515   9.940   6.928   5.487 -0.0556 -0.8305 -0.0416
83635SOL    HW268516   9.823   6.982   5.407  0.3049 -0.5233 -0.3694
83636SOL     OW68517  10.790   5.474   1.988 -0.3430 -0.7110 -0.2778
83636SOL    HW168518  10.805   5.550   2.044  0.8074 -0.6607 -0.6313
83636SOL    HW268519  10.752   5.511   1.908 -0.2644 -0.5694 -0.2506
83637SOL     OW68520  12.495  10.192  10.988 -0.4442  0.1755  0.3089
83637SOL    HW168521  12.403  10.169  10.998 -0.6297  0.7190 -0.1187
83637SOL    HW268522  12.513  10.180  10.895  0.4922 -1.9967  0.6918
83638SOL     OW68523  10.079   5.478   5.881 -0.4400 -0.0330  0.3583
83638SOL    HW168524  10.079   5.388   5.911 -0.1678  0.3379  1.4949
83638SOL    HW268525  10.159   5.487   5.829  1.1284  0.3403  2.7183
83639SOL     OW68526   9.011   2.708   2.373  0.2126 -0.1700 -0.6262
83639SOL    HW168527   8.938   2.768   2.391 -0.3971 -0.9017 -0.6386
83639SOL    HW268528   8.972   2.638   2.321  0.8933 -0.6531 -0.4950
83640SOL     OW68529  10.308   7.903   4.718  0.3653  0.0484 -0.6610
83640SOL    HW168530  10.358   7.836   4.673  0.6754 -0.5894  0.5837
83640SOL    HW268531  10.371   7.974   4.734  0.6083 -0.2939 -0.0605
83641SOL     OW68532   4.055  11.919   3.146 -0.0223  0.0706 -0.3938
83641SOL    HW168533   4.014  11.999   3.113  0.3175  0.0608 -0.8421
83641SOL    HW268534   3.992  11.884   3.209 -0.2516  0.5941 -0.3281
83642SOL     OW68535  13.785   5.154  11.131 -0.0867 -0.1531 -0.2479
83642SOL    HW168536  13.783   5.112  11.045 -1.4750  1.1847 -0.9277
83642SOL    HW268537  13.723   5.103  11.183 -1.0055  0.4052 -0.7656
83643SOL     OW68538   3.670  11.870   6.609  0.0916  0.4553  0.7644
83643SOL    HW168539   3.763  11.878   6.589 -0.0474  0.3890  0.0801
83643SOL    HW268540   3.626  11.915   6.537 -0.5277 -1.9844 -0.4880
83644SOL     OW68541   2.481   9.178   2.141 -0.0868  0.3929  0.2960
83644SOL    HW168542   2.389   9.207   2.139  0.2853  1.6383 -1.9702
83644SOL    HW268543   2.489   9.121   2.065  0.7807 -0.6173  1.1244
83645SOL     OW68544   5.392   6.000  13.859 -0.0021 -0.3863 -0.3207
83645SOL    HW168545   5.308   5.981  13.902  0.6911  1.1308  1.8279
83645SOL    HW268546   5.439   5.916  13.861 -1.6409 -1.4513 -2.1873
83646SOL     OW68547   0.582   5.340   1.478  0.4597 -0.8376  0.0751
83646SOL    HW168548   0.589   5.250   1.446 -1.2783 -0.5333 -1.3471
83646SOL    HW268549   0.634   5.391   1.417  1.4938 -0.8457  0.9169
83647SOL     OW68550  12.790   3.365   3.028 -0.4489  0.2678 -0.4576
83647SOL    HW168551  12.715   3.413   3.065 -0.3956 -0.2330  0.3241
83647SOL    HW268552  12.761   3.274   3.026 -0.5687  0.3164 -1.9843
83648SOL     OW68553  12.165  13.255   8.328 -0.2522  0.3203 -0.1521
83648SOL    HW168554  12.134  13.329   8.381 -0.2373 -0.5645  1.1315
83648SOL    HW268555  12.145  13.281   8.238 -1.8773  1.1327  0.3881
83649SOL     OW68556   8.657   2.540  12.671 -0.5117 -0.0259  0.0394
83649SOL    HW168557   8.604   2.515  12.747 -0.1987 -0.3261  0.1608
83649SOL    HW268558   8.719   2.604  12.705 -0.1235 -0.4416  0.1219
83650SOL     OW68559   9.311   1.227   6.243 -0.4190  0.9234  0.3211
83650SOL    HW168560   9.300   1.235   6.148  2.5565  1.1671 -0.0984
83650SOL    HW268561   9.262   1.149   6.267  0.2622 -0.1990 -1.7438
83651SOL     OW68562   0.862   6.243   7.203 -0.6505 -0.0386 -0.3573
83651SOL    HW168563   0.931   6.293   7.160 -1.0822 -1.1238 -2.4924
83651SOL    HW268564   0.784   6.297   7.194 -0.4421  0.4085  0.4638
83652SOL     OW68565   7.737   2.309   6.310 -0.5623  0.0012 -0.0030
83652SOL    HW168566   7.727   2.295   6.404  0.6794 -1.2417 -0.0200
83652SOL    HW268567   7.813   2.256   6.286 -0.6851  0.5193 -1.6628
83653SOL     OW68568  12.591   1.017   5.150 -0.5352 -0.1505  0.1081
83653SOL    HW168569  12.506   1.046   5.183 -1.7489 -2.8264 -0.3605
83653SOL    HW268570  12.652   1.032   5.222 -1.0253  3.0722  0.0014
83654SOL     OW68571  10.558   2.857   9.237  0.1078  0.6371 -0.2500
83654SOL    HW168572  10.635   2.914   9.245  1.2796 -1.0835  1.4241
83654SOL    HW268573  10.541   2.826   9.326 -2.1882  0.4794 -0.6676
83655SOL     OW68574   8.016   3.014   7.133  0.0014 -0.7182 -0.3575
83655SOL    HW168575   8.094   2.965   7.160 -0.5248 -0.9625  0.7723
83655SOL    HW268576   8.025   3.099   7.177 -0.5816 -0.9095  0.1470
83656SOL     OW68577  11.165   4.094   0.890 -0.1205  0.4961  0.3750
83656SOL    HW168578  11.106   4.153   0.937 -1.9372 -0.2070 -0.9116
83656SOL    HW268579  11.164   4.127   0.800 -1.0743 -1.3855 -0.3409
83657SOL     OW68580   6.651   0.626   0.161  0.3839 -0.3065  0.2011
83657SOL    HW168581   6.701   0.634   0.080  0.6142 -0.3629  0.3368
83657SOL    HW268582   6.560   0.635   0.134  0.5427  3.1496  0.3347
83658SOL     OW68583   7.208  13.344   1.048 -0.4019  0.2999 -0.2236
83658SOL    HW168584   7.303  13.354   1.044 -0.5035  1.7354  0.3833
83658SOL    HW268585   7.187  13.284   0.976  1.2603 -2.7253  1.6286
83659SOL     OW68586  11.167   2.359   8.015  0.1743  0.1610 -0.4462
83659SOL    HW168587  11.128   2.323   7.936 -0.5053 -0.6099  0.2137
83659SOL    HW268588  11.127   2.445   8.025  0.7980  0.5611 -1.3160
83660SOL     OW68589   2.865   2.154   8.559 -0.0127 -0.1248 -0.1314
83660SOL    HW168590   2.875   2.138   8.465  0.1495 -1.3587  0.0742
83660SOL    HW268591   2.903   2.240   8.573 -1.7890  0.9516 -1.5029
83661SOL     OW68592   5.595  13.748  13.653 -0.6513 -0.2575  0.2099
83661SOL    HW168593   5.686  13.720  13.658 -0.8684 -0.7620  1.4983
83661SOL    HW268594   5.585  13.779  13.563  0.0823 -2.6062 -0.7514
83662SOL     OW68595  12.128   7.844   4.770 -0.3282  0.5683 -0.1892
83662SOL    HW168596  12.187   7.877   4.702 -0.2910  0.9377  0.0136
83662SOL    HW268597  12.186   7.821   4.843 -0.4315  0.9914  0.0345
83663SOL     OW68598  11.881   2.131   9.855 -0.2219 -0.2809 -0.0518
83663SOL    HW168599  11.968   2.166   9.877 -0.1675 -0.2314 -0.3373
83663SOL    HW268600  11.895   2.037   9.848 -0.2644 -0.3092  0.2408
83664SOL     OW68601   7.445   9.220  13.256 -0.0229  0.2472 -0.4233
83664SOL    HW168602   7.524   9.273  13.245  0.4951 -0.3133  0.4538
83664SOL    HW268603   7.378   9.282  13.286  1.0489  0.1831  2.4507
83665SOL     OW68604   9.121  11.344   2.779 -0.3740 -0.4113  0.4661
83665SOL    HW168605   9.175  11.314   2.852  0.1349  0.9030  0.6704
83665SOL    HW268606   9.124  11.440   2.786 -1.7134 -0.3028 -0.2721
83666SOL     OW68607  13.307   2.066   1.365  0.1834 -0.0632  0.1356
83666SOL    HW168608  13.308   2.137   1.429  1.3108 -0.2386  0.3337
83666SOL    HW268609  13.243   2.093   1.299  1.2160  1.5418 -0.2480
83667SOL     OW68610   9.339  11.696   1.105 -0.6408  0.3246  0.2822
83667SOL    HW168611   9.343  11.614   1.056  0.9704 -0.3108  1.4220
83667SOL    HW268612   9.354  11.671   1.196  0.8010  1.9651  0.5399
83668SOL     OW68613   5.493  12.911  13.550 -0.0019  0.8032 -0.4176
83668SOL    HW168614   5.427  12.966  13.507  1.0369  0.3518 -2.7303
83668SOL    HW268615   5.444  12.862  13.615 -1.8985  0.7685 -1.7987
83669SOL     OW68616  12.789   9.474   0.256  0.1354 -0.8920 -0.1908
83669SOL    HW168617  12.867   9.515   0.218 -0.8376  2.1827  0.7769
83669SOL    HW268618  12.720   9.492   0.192 -0.3314 -0.9744  0.2864
83670SOL     OW68619  14.023   8.015   6.678  0.2257 -0.4839  0.1935
83670SOL    HW168620  14.103   7.974   6.711  0.7320 -0.8031 -1.3590
83670SOL    HW268621  13.963   8.012   6.753  1.4150 -0.8839  1.1741
83671SOL     OW68622   1.745  11.396  14.052  0.2890 -0.4300  0.4313
83671SOL    HW168623   1.832  11.428  14.028  0.8442 -0.3718  2.2940
83671SOL    HW268624   1.762  11.317  14.103 -0.5865  0.5190  2.3158
83672SOL     OW68625  12.205  14.035   8.445  0.0159  0.3991 -0.0017
83672SOL    HW168626  12.183  13.950   8.407 -1.3386  0.9677 -0.5659
83672SOL    HW268627  12.223  14.091   8.370  0.5780  0.7121  0.3541
83673SOL     OW68628   5.306  11.470   4.540 -0.4139 -0.0702 -0.6041
83673SOL    HW168629   5.284  11.451   4.631 -0.6259  1.3449 -0.3344
83673SOL    HW268630   5.401  11.483   4.539 -0.7172  2.9104  0.0682
83674SOL     OW68631   5.275  13.853   5.984  0.1109  0.3363 -0.2430
83674SOL    HW168632   5.354  13.907   5.986  1.0170 -0.9488 -0.2502
83674SOL    HW268633   5.283  13.797   6.062  1.3534 -2.6982 -2.3514
83675SOL     OW68634   7.148   5.906   4.132 -0.1971 -0.0881  0.0680
83675SOL    HW168635   7.189   5.820   4.141  0.0073  0.0663  0.6917
83675SOL    HW268636   7.216   5.960   4.092  0.0540  0.0406  0.6445
83676SOL     OW68637   7.485  11.461  10.162 -1.0880 -0.6048 -0.2123
83676SOL    HW168638   7.580  11.464  10.153 -1.0025  0.9782  0.8796
83676SOL    HW268639   7.466  11.369  10.182  0.1767 -0.9650 -0.5454
83677SOL     OW68640   0.819   3.641  12.250  0.4596  0.1543  0.8279
83677SOL    HW168641   0.873   3.575  12.206  0.2064 -0.9223  2.0915
83677SOL    HW268642   0.734   3.599  12.260  0.0682  0.9673  0.9520
83678SOL     OW68643   4.047   1.308   6.204 -0.2027 -0.2019 -0.1242
83678SOL    HW168644   3.997   1.250   6.147 -1.2941 -1.5759  2.0738
83678SOL    HW268645   4.127   1.259   6.223 -0.1051 -0.0076 -0.0379
83679SOL     OW68646   4.873  13.892   9.273 -0.3795 -0.1694 -0.7069
83679SOL    HW168647   4.902  13.896   9.182  1.2630  1.4033 -0.1733
83679SOL    HW268648   4.788  13.848   9.269 -0.0501 -0.7207 -2.9082
83680SOL     OW68649   5.209   5.853   4.926 -0.2232  0.3511 -0.0524
83680SOL    HW168650   5.212   5.875   5.019 -0.9684  3.3307 -0.6285
83680SOL    HW268651   5.120   5.822   4.911 -0.4156  0.8379  0.0627
83681SOL     OW68652   3.962   7.803  11.073  0.1179 -0.4711 -0.1257
83681SOL    HW168653   4.029   7.836  11.014  1.6515 -1.8226  0.7629
83681SOL    HW268654   3.965   7.862  11.149  2.1943 -1.9606  1.0492
83682SOL     OW68655   9.333  11.643   1.846 -0.2285 -0.8736  0.2018
83682SOL    HW168656   9.292  11.722   1.810 -0.0787 -1.2708 -0.8726
83682SOL    HW268657   9.287  11.571   1.804  1.1602 -1.3353 -0.6023
83683SOL     OW68658  12.714   0.877   0.220  0.8416  0.0015  0.0131
83683SOL    HW168659  12.621   0.898   0.212  1.0260  1.5556  1.4503
83683SOL    HW268660  12.716   0.782   0.229 -0.6506 -0.0076  0.5335
83684SOL     OW68661   1.040   1.914   2.366 -0.1186 -0.4851 -0.5277
83684SOL    HW168662   0.949   1.917   2.334 -0.5220 -0.7641  0.5400
83684SOL    HW268663   1.055   1.821   2.386  0.6865 -0.5674 -1.4475
83685SOL     OW68664   8.245  11.548   7.757  0.1420  0.0283 -0.2215
83685SOL    HW168665   8.337  11.523   7.760 -0.7729 -3.8653  0.0336
83685SOL    HW268666   8.210  11.520   7.842 -1.7137 -0.7022 -1.1769
83686SOL     OW68667  11.473   0.280   6.781 -0.1103  0.3742  0.6486
83686SOL    HW168668  11.552   0.247   6.737 -1.0461 -2.1128  0.6782
83686SOL    HW268669  11.432   0.202   6.819 -1.7283  1.8239  2.0799
83687SOL     OW68670   6.665   6.698   4.376  0.2715  0.1669 -0.0387
83687SOL    HW168671   6.672   6.785   4.415 -0.3460  1.2117 -2.0698
83687SOL    HW268672   6.621   6.713   4.292  0.0080 -2.1400 -0.3961
83688SOL     OW68673   3.850  12.769   4.721 -0.3083 -0.1175 -0.2377
83688SOL    HW168674   3.780  12.756   4.786  0.6951 -3.1845  0.4047
83688SOL    HW268675   3.930  12.777   4.774  0.3127 -0.9009 -1.0422
83689SOL     OW68676   1.471   4.547   9.919 -0.1178  0.4708 -0.2838
83689SOL    HW168677   1.464   4.627   9.972  1.3647  0.3363  0.1548
83689SOL    HW268678   1.467   4.476   9.982  3.2667  0.3408 -0.0627
83690SOL     OW68679   6.802   1.429   0.583 -0.1188 -0.5900  0.5248
83690SOL    HW168680   6.767   1.453   0.497  1.1974 -0.0581  0.1083
83690SOL    HW268681   6.830   1.337   0.573  0.6976 -0.3116  0.1397
83691SOL     OW68682   5.248   2.508  13.806  0.1928  0.2873 -0.7705
83691SOL    HW168683   5.160   2.472  13.804  0.1508  0.3718 -0.5181
83691SOL    HW268684   5.242   2.585  13.863  0.4095  0.3444 -0.8218
83692SOL     OW68685   7.229   9.981   7.117 -0.2526 -0.1537 -0.0664
83692SOL    HW168686   7.291   9.908   7.125 -0.5129 -0.4088 -0.3465
83692SOL    HW268687   7.179   9.961   7.038 -0.2589  0.3847 -0.2010
83693SOL     OW68688   7.393   9.248   4.205  0.1348 -0.0509  0.0025
83693SOL    HW168689   7.442   9.169   4.181  1.9094  0.4963  1.6076
83693SOL    HW268690   7.446   9.320   4.172 -0.6542  0.5106 -0.0487
83694SOL     OW68691   0.902   5.083  13.764  0.6079 -0.2402  0.3119
83694SOL    HW168692   0.961   5.008  13.751  2.7285  1.1185  1.4500
83694SOL    HW268693   0.928   5.119  13.849 -1.2764  1.0027  0.4190
83695SOL     OW68694  10.805   2.528  12.002 -0.3252 -0.6863  0.1938
83695SOL    HW168695  10.826   2.594  11.936 -1.4665 -0.0791  0.4081
83695SOL    HW268696  10.863   2.455  11.982 -0.1266 -0.2217 -1.0245
83696SOL     OW68697   4.320   1.155   4.962  0.4869 -0.0300 -0.5586
83696SOL    HW168698   4.375   1.142   5.040  0.0064  1.6840  0.1307
83696SOL    HW268699   4.382   1.169   4.891  0.9794  1.0688  0.0590
83697SOL     OW68700   2.776   0.070   5.248 -0.0360 -0.4830 -0.2231
83697SOL    HW168701   2.759   0.021   5.328  0.9559 -2.2961 -1.0648
83697SOL    HW268702   2.696   0.119   5.231 -0.9132 -1.5052  0.8800
83698SOL     OW68703   1.882  13.425   9.851  0.1990 -0.0063 -0.3357
83698SOL    HW168704   1.837  13.456   9.772  2.2000  0.1937 -1.4671
83698SOL    HW268705   1.975  13.433   9.830  0.7869 -0.6618  1.7937
83699SOL     OW68706   2.518   1.735   0.941  0.0463 -0.0530 -0.1094
83699SOL    HW168707   2.538   1.642   0.956  0.2505 -0.0169 -0.1500
83699SOL    HW268708   2.523   1.775   1.028 -0.7241 -0.2049  0.0099
83700SOL     OW68709   5.150  13.428   2.817 -0.0159  0.3469 -0.1712
83700SOL    HW168710   5.079  13.365   2.807 -1.5123  1.7279  1.1660
83700SOL    HW268711   5.209  13.388   2.882 -0.8485  0.2102  0.5222
83701SOL     OW68712   0.865   7.544   6.144 -0.7334 -0.2560  0.2132
83701SOL    HW168713   0.846   7.618   6.201 -0.2531 -0.3690  0.5190
83701SOL    HW268714   0.958   7.526   6.157 -0.4521  0.1295 -1.0870
83702SOL     OW68715   6.291   6.421   6.681  0.7012 -0.5770 -0.3919
83702SOL    HW168716   6.248   6.415   6.766  0.9176 -0.2950 -0.2596
83702SOL    HW268717   6.226   6.460   6.623  0.5413 -0.8041 -0.3631
83703SOL     OW68718   5.178  12.226   4.657 -0.3273  0.2785  0.4147
83703SOL    HW168719   5.266  12.198   4.634 -0.2510  1.1978 -0.4544
83703SOL    HW268720   5.190  12.296   4.721 -0.3584  1.4199 -0.7970
83704SOL     OW68721  13.524  10.564  12.042 -0.2573 -0.2420 -0.3272
83704SOL    HW168722  13.574  10.598  11.968  1.4200 -0.9291  0.4180
83704SOL    HW268723  13.511  10.640  12.099  2.8736 -0.5497  1.0095
83705SOL     OW68724  13.855  12.368   4.220  0.6788 -0.1215 -0.3345
83705SOL    HW168725  13.920  12.401   4.156  0.5053 -0.0636 -0.4819
83705SOL    HW268726  13.826  12.285   4.183 -0.9899  0.8786 -1.4373
83706SOL     OW68727  10.140  12.712  11.732  0.1149 -0.2648 -0.1003
83706SOL    HW168728  10.193  12.792  11.739  0.1644 -0.2800 -0.2940
83706SOL    HW268729  10.199  12.648  11.691 -0.1005 -0.2396 -0.4488
83707SOL     OW68730   2.356   6.358   9.587 -0.0497 -0.1577  0.5995
83707SOL    HW168731   2.275   6.311   9.564  0.4073 -0.6367 -0.0698
83707SOL    HW268732   2.370   6.337   9.679  1.1470 -2.9444 -0.1117
83708SOL     OW68733   7.073  12.016   1.905 -0.2107  0.2633  0.5096
83708SOL    HW168734   7.040  11.926   1.909  0.8094 -0.4780 -3.5402
83708SOL    HW268735   6.994  12.069   1.901 -0.8729 -0.7282 -0.1097
83709SOL     OW68736  12.441   3.289   5.758 -0.0248  0.0942  0.0165
83709SOL    HW168737  12.482   3.375   5.765 -0.2672  0.1242  1.4688
83709SOL    HW268738  12.506   3.234   5.715 -0.2559  1.2265 -1.8647
83710SOL     OW68739  10.152  10.127   3.113  0.1890  0.2914 -0.2296
83710SOL    HW168740  10.125  10.096   3.199  0.8843  1.3091  0.3769
83710SOL    HW268741  10.215  10.197   3.131  1.3617 -0.3530 -1.5695
83711SOL     OW68742   9.500   1.248   0.663 -0.6832  0.4637 -0.2166
83711SOL    HW168743   9.479   1.260   0.570  0.1093  1.0616 -0.3261
83711SOL    HW268744   9.575   1.305   0.678  0.1197 -0.7266  0.4443
83712SOL     OW68745   0.501   2.489   2.378 -0.5041  0.1512  0.0758
83712SOL    HW168746   0.575   2.500   2.318 -0.0221  2.5522  0.9921
83712SOL    HW268747   0.443   2.427   2.334  2.9613 -3.6734  0.2439
83713SOL     OW68748  11.051   8.489   1.453 -0.8110  0.8606  0.3503
83713SOL    HW168749  11.060   8.459   1.543 -0.1193  1.7798  0.6023
83713SOL    HW268750  10.959   8.473   1.432 -0.8292  0.0290  0.9850
83714SOL     OW68751   5.303   3.539   1.224  0.0931 -0.1166  0.4144
83714SOL    HW168752   5.389   3.577   1.242 -0.5221  1.0201  1.0558
83714SOL    HW268753   5.241   3.599   1.266 -1.1332  0.0090 -1.4626
83715SOL     OW68754   8.108  13.638  13.765  0.3837  0.1035  0.0145
83715SOL    HW168755   8.142  13.725  13.786 -0.8546  0.4907  0.5530
83715SOL    HW268756   8.039  13.654  13.701 -1.7167 -0.1316  2.0797
83716SOL     OW68757   0.089   1.745  12.770 -0.1382  0.3872 -0.2219
83716SOL    HW168758   0.102   1.776  12.860  0.9964 -0.1916 -0.1730
83716SOL    HW268759  -0.005   1.728  12.765  0.1257 -2.4701  1.8719
83717SOL     OW68760  12.434   4.774   1.002 -0.5354  0.0659  0.0189
83717SOL    HW168761  12.367   4.705   1.006 -0.2591 -0.2072 -0.0342
83717SOL    HW268762  12.412   4.824   0.924 -1.1980  0.5154  0.4831
83718SOL     OW68763  13.758   5.716   1.350 -0.3067  0.0466 -0.4858
83718SOL    HW168764  13.695   5.756   1.290 -0.5757 -0.6772 -0.7010
83718SOL    HW268765  13.834   5.774   1.347 -0.7581  0.6389 -0.6375
83719SOL     OW68766  11.882   2.051   1.683  0.2164  0.2796  0.6282
83719SOL    HW168767  11.808   1.991   1.693  0.8305 -0.4814  0.7231
83719SOL    HW268768  11.886   2.098   1.766 -0.2880  0.4707  0.5441
83720SOL     OW68769  12.669  11.774  12.791  0.0197  0.2343 -0.0814
83720SOL    HW168770  12.580  11.739  12.785 -0.4356  1.4371 -0.6321
83720SOL    HW268771  12.681  11.790  12.885 -0.3576  0.1052 -0.0070
83721SOL     OW68772   2.954  11.764   5.977  0.4791 -0.4901  0.1736
83721SOL    HW168773   2.984  11.675   5.958  0.0362 -0.4965 -0.5369
83721SOL    HW268774   2.947  11.806   5.891  0.6733  0.2315  0.5044
83722SOL     OW68775   8.968  11.356   6.296 -0.5071  0.5430  0.6848
83722SOL    HW168776   8.944  11.443   6.328 -1.5598  1.0326 -1.2710
83722SOL    HW268777   8.894  11.300   6.321 -1.2553  0.8922 -0.6256
83723SOL     OW68778   0.604   1.089  10.241 -0.2368  0.4551  0.3806
83723SOL    HW168779   0.569   1.116  10.155 -0.7312 -0.3539  0.3105
83723SOL    HW268780   0.656   1.011  10.221  0.1294  0.6106  0.7399
83724SOL     OW68781  12.797   5.196  13.488  0.2099  0.2890 -0.0618
83724SOL    HW168782  12.828   5.128  13.547  0.3333  0.4551  0.0693
83724SOL    HW268783  12.753   5.149  13.417 -1.0638  0.1433  0.7982
83725SOL     OW68784   7.257   1.283  10.990 -0.1173  0.0910  0.1615
83725SOL    HW168785   7.197   1.330  10.932 -1.6191 -0.2781  1.3652
83725SOL    HW268786   7.299   1.351  11.041  0.0253  0.3145 -0.2487
83726SOL     OW68787  13.653   2.641   3.915  0.3109  0.2305  0.2737
83726SOL    HW168788  13.565   2.612   3.938  0.1939 -0.5200 -1.0159
83726SOL    HW268789  13.645   2.736   3.904 -0.0592  0.3277  1.2943
83727SOL     OW68790   7.988  11.598  10.069 -0.3193  0.0777  0.5259
83727SOL    HW168791   7.951  11.674  10.023 -1.2089 -0.8419 -0.3073
83727SOL    HW268792   8.079  11.596  10.041 -0.8335 -0.4571 -1.2486
83728SOL     OW68793   4.971   2.380  14.012 -0.3506  0.2588  0.2956
83728SOL    HW168794   5.058   2.341  14.008  0.5753  2.2339 -0.0797
83728SOL    HW268795   4.966   2.419  14.100 -1.2412 -0.5995  0.6524
83729SOL     OW68796   9.254   2.658  10.478  0.4054 -0.1588  0.4015
83729SOL    HW168797   9.161   2.678  10.486  0.0111 -1.1121 -1.2917
83729SOL    HW268798   9.293   2.687  10.561 -1.6813 -1.3069  1.8676
83730SOL     OW68799  13.648   2.871   4.437  0.0449 -0.0452 -0.0592
83730SOL    HW168800  13.685   2.958   4.424  1.0090 -0.0029  2.4439
83730SOL    HW268801  13.632   2.865   4.531  0.1142 -2.6080 -0.1390
83731SOL     OW68802   9.639  13.948   8.699 -0.0697  0.4933  0.6710
83731SOL    HW168803   9.585  13.911   8.629 -0.1120  1.6585  0.0639
83731SOL    HW268804   9.677  14.027   8.661  2.0944 -0.2655  1.0626
83732SOL     OW68805   6.855   2.926   4.045 -0.2000 -0.6624  0.5006
83732SOL    HW168806   6.947   2.918   4.071 -0.0157 -0.3735 -0.0569
83732SOL    HW268807   6.808   2.868   4.105  0.4192 -1.3235  0.3495
83733SOL     OW68808  12.357   8.496  10.101  0.8260  0.1240  0.0061
83733SOL    HW168809  12.421   8.485  10.172  0.0631  0.1690  0.7140
83733SOL    HW268810  12.408   8.531  10.028  1.4117  1.2603  0.9236
83734SOL     OW68811   5.314  11.114   8.778 -0.0896  0.1299 -0.3795
83734SOL    HW168812   5.262  11.052   8.727 -0.2428 -0.9159  1.0055
83734SOL    HW268813   5.254  11.186   8.797 -0.6102 -0.3968 -0.0129
83735SOL     OW68814  13.295   5.741   2.687 -0.1965  0.0849 -0.3448
83735SOL    HW168815  13.376   5.692   2.679 -0.9386 -1.0768 -0.9569
83735SOL    HW268816  13.314   5.826   2.646  0.5473 -0.3671 -0.9663
83736SOL     OW68817   3.792   8.640   4.700 -0.4096  0.4780 -0.0596
83736SOL    HW168818   3.870   8.693   4.716 -0.4552  0.8140 -0.9062
83736SOL    HW268819   3.820   8.550   4.718  0.1208  0.6159 -0.1870
83737SOL     OW68820  10.777  12.986   9.420 -0.5740  0.1189 -0.1362
83737SOL    HW168821  10.818  13.059   9.374  0.3565  0.5298  1.2744
83737SOL    HW268822  10.829  12.910   9.394 -0.6045  0.2031 -0.4471
83738SOL     OW68823   6.380   1.571   2.169 -0.3543  0.2700  0.1586
83738SOL    HW168824   6.447   1.625   2.129 -0.0411 -0.6251 -0.5577
83738SOL    HW268825   6.402   1.481   2.144 -2.5051  0.0341 -1.2037
83739SOL     OW68826  10.488  12.781  12.386  0.3486 -0.5666  0.5882
83739SOL    HW168827  10.555  12.849  12.384  0.8103 -1.0062  0.9577
83739SOL    HW268828  10.420  12.815  12.444  0.3993 -0.2648  0.4722
83740SOL     OW68829   8.002   4.552   3.564 -0.1950  0.2283 -0.2893
83740SOL    HW168830   7.978   4.460   3.575 -3.2028  1.1293  2.4416
83740SOL    HW268831   7.957   4.579   3.484  1.0074 -0.6587 -1.3175
83741SOL     OW68832   3.428   3.991   7.591  0.3955 -0.8606 -0.1416
83741SOL    HW168833   3.448   4.043   7.513 -0.7782 -0.1851 -0.0229
83741SOL    HW268834   3.452   3.901   7.567  1.3870 -0.4511 -0.7583
83742SOL     OW68835  11.160   4.204   2.922  0.0937 -0.4936 -0.1433
83742SOL    HW168836  11.073   4.182   2.954 -0.7893  0.8649 -1.4382
83742SOL    HW268837  11.150   4.210   2.827  1.6192 -0.3950 -0.3334
83743SOL     OW68838  11.873   9.680   6.246  0.6526  0.2246 -0.1836
83743SOL    HW168839  11.860   9.743   6.317 -1.1786 -0.3337  0.0214
83743SOL    HW268840  11.896   9.733   6.170  0.7481  0.9896  0.3719
83744SOL     OW68841  12.715   4.655  11.701  0.1719  0.3027  0.2187
83744SOL    HW168842  12.671   4.584  11.749  0.1749 -0.2923 -0.6328
83744SOL    HW268843  12.808   4.643  11.721  0.0403  1.1403  1.4639
83745SOL     OW68844   4.370   7.401   4.874 -0.1807  0.1465 -0.0950
83745SOL    HW168845   4.294   7.459   4.872 -0.2887  0.0167  0.1685
83745SOL    HW268846   4.334   7.314   4.861 -0.1888 -0.0206  0.9322
83746SOL     OW68847   7.540   8.051   2.679 -0.4874  0.5862  0.2014
83746SOL    HW168848   7.634   8.042   2.694 -0.7135 -0.8126  0.9581
83746SOL    HW268849   7.527   8.144   2.662  0.8887  0.9882  1.1858
83747SOL     OW68850  10.132   1.086  10.401  0.4911 -0.5987  0.0923
83747SOL    HW168851  10.191   1.088  10.326  0.3828 -2.0993 -0.0613
83747SOL    HW268852  10.181   1.131  10.471  0.2536  1.5786 -1.0622
83748SOL     OW68853   1.895  11.503   8.388 -0.0026 -0.3277 -0.2111
83748SOL    HW168854   1.866  11.524   8.476 -0.1089  0.4677 -0.4291
83748SOL    HW268855   1.894  11.587   8.341  1.5691 -0.4457 -0.5293
83749SOL     OW68856   7.305   2.777   2.524 -0.1271  0.4080  0.1239
83749SOL    HW168857   7.299   2.867   2.554 -1.1360 -0.2093  1.9886
83749SOL    HW268858   7.396   2.753   2.538  0.3566  1.3796 -1.2279
83750SOL     OW68859   8.151   7.752  13.566 -0.0296 -0.5604 -0.5795
83750SOL    HW168860   8.068   7.752  13.614 -0.1610 -1.7150 -0.7813
83750SOL    HW268861   8.151   7.835  13.519  0.0824  0.5922  1.3501
83751SOL     OW68862  12.531  12.275  11.725  0.1801 -0.5139  0.0584
83751SOL    HW168863  12.518  12.225  11.644 -0.1519 -0.8086  0.2874
83751SOL    HW268864  12.489  12.359  11.708  0.6320 -0.3507 -0.2870
83752SOL     OW68865   2.029  10.912   3.139 -0.0406  0.2695 -0.6239
83752SOL    HW168866   2.117  10.950   3.146  0.1024  0.0635 -1.2873
83752SOL    HW268867   2.030  10.840   3.202  0.6601 -0.4646 -1.4508
83753SOL     OW68868   2.479   6.645   4.271 -0.0293  0.2799  0.3012
83753SOL    HW168869   2.550   6.634   4.208 -0.6334  0.1909 -0.3731
83753SOL    HW268870   2.399   6.628   4.221 -0.4517 -1.3755  1.4405
83754SOL     OW68871   1.530   7.672  12.179  0.5643  0.0442 -0.4051
83754SOL    HW168872   1.615   7.649  12.217  0.5139  0.8069  0.1783
83754SOL    HW268873   1.550   7.743  12.118  0.4943 -0.4885 -1.0566
83755SOL     OW68874   9.705   7.436   1.999  0.7076  0.3360 -0.1092
83755SOL    HW168875   9.726   7.500   2.067 -1.1945 -1.6192  2.5085
83755SOL    HW268876   9.780   7.377   1.998  0.8421  0.5019  0.1338
83756SOL     OW68877  12.776   4.855   6.387 -0.1527  0.4212  0.2189
83756SOL    HW168878  12.831   4.901   6.451 -1.1440  2.2099 -0.1587
83756SOL    HW268879  12.807   4.887   6.302 -0.9907  0.5355 -0.0477
83757SOL     OW68880   3.165  11.452   9.607 -0.4331  0.3011  0.1533
83757SOL    HW168881   3.203  11.484   9.525 -1.5605  3.6994  0.7911
83757SOL    HW268882   3.229  11.477   9.674 -0.7838  0.0591  0.5810
83758SOL     OW68883  11.270   3.224  11.575 -0.1403 -0.1266  0.4922
83758SOL    HW168884  11.234   3.199  11.660  0.4106  0.4050  0.8819
83758SOL    HW268885  11.302   3.142  11.538  0.2932 -0.2411  1.1174
83759SOL     OW68886  11.571   1.530   0.441 -0.5890 -0.5728 -0.6673
83759SOL    HW168887  11.512   1.586   0.390 -2.2892 -1.0577  0.6502
83759SOL    HW268888  11.526   1.446   0.445  0.8076 -1.3357 -0.6505
83760SOL     OW68889   5.191   0.357   5.451 -0.3894  0.0325  0.0534
83760SOL    HW168890   5.237   0.437   5.476  0.5795 -0.6718  0.5928
83760SOL    HW268891   5.224   0.336   5.364 -1.0159  0.4814 -0.2980
83761SOL     OW68892   2.040   6.530   2.106  0.5634  0.1294 -0.4871
83761SOL    HW168893   2.061   6.446   2.147  0.0649 -0.0615 -0.6224
83761SOL    HW268894   2.119   6.582   2.119  0.8854 -0.3635 -0.4182
83762SOL     OW68895   2.748   7.956   1.371 -0.2970  0.1374 -0.1052
83762SOL    HW168896   2.773   7.912   1.452  2.0401 -0.2697 -0.9772
83762SOL    HW268897   2.709   7.887   1.317 -1.0250  0.2154  0.3068
83763SOL     OW68898  11.141   6.248   3.816  0.2872  0.3806 -0.1497
83763SOL    HW168899  11.174   6.308   3.748  1.1462 -1.0873 -1.1014
83763SOL    HW268900  11.086   6.186   3.768  0.1051 -0.1043  0.6688
83764SOL     OW68901  10.536   3.000   6.811  0.4916 -0.3615  0.5384
83764SOL    HW168902  10.581   3.069   6.762  0.8742 -0.5716  0.5896
83764SOL    HW268903  10.446   3.001   6.777  0.8505 -0.7707 -0.4525
83765SOL     OW68904   5.099  12.000   3.819  0.0523  1.2279 -0.0005
83765SOL    HW168905   5.007  12.018   3.838 -0.2207  0.6011 -0.6735
83765SOL    HW268906   5.147  12.063   3.872 -0.7509  1.2933  0.6668
83766SOL     OW68907   1.962  13.859   7.525 -0.1192  0.3143  0.1883
83766SOL    HW168908   1.961  13.765   7.504 -1.1886  0.0770  1.1500
83766SOL    HW268909   1.946  13.862   7.619  3.9005  1.3320  1.0053
83767SOL     OW68910   2.594   3.821  12.144  0.3935  0.1779  0.2804
83767SOL    HW168911   2.681   3.861  12.130  0.2664  0.7994  1.1237
83767SOL    HW268912   2.608   3.761  12.217  0.1957 -0.0125  0.1592
83768SOL     OW68913  12.897   0.618   6.116  0.5293 -0.3027 -0.4287
83768SOL    HW168914  12.836   0.674   6.166 -0.0244 -1.3165  0.0640
83768SOL    HW268915  12.917   0.669   6.038 -0.0552  0.5431 -0.0482
83769SOL     OW68916  12.380   2.433   7.198  0.3434 -0.0008 -0.6305
83769SOL    HW168917  12.296   2.422   7.153 -0.5505 -1.0918  1.1959
83769SOL    HW268918  12.440   2.464   7.130 -1.0497 -1.0711 -2.4280
83770SOL     OW68919  11.972  13.211   0.209  0.2850 -0.1939 -0.5462
83770SOL    HW168920  12.043  13.147   0.218 -0.9679 -1.5126  0.5464
83770SOL    HW268921  11.914  13.192   0.283 -0.3197  2.0073 -0.4021
83771SOL     OW68922   4.458   8.152   7.405 -0.9501  0.0212 -0.1552
83771SOL    HW168923   4.470   8.058   7.390 -1.2398 -0.1924  0.8715
83771SOL    HW268924   4.405   8.182   7.330 -2.6002 -1.0462  0.5288
83772SOL     OW68925  12.620  11.288   2.773 -0.9800  0.1914 -0.3582
83772SOL    HW168926  12.675  11.253   2.703  0.7241 -2.3397  2.0507
83772SOL    HW268927  12.647  11.240   2.851 -5.2533  0.2427  1.4286
83773SOL     OW68928   7.605   3.059   5.847  0.3491 -0.2741  0.2524
83773SOL    HW168929   7.527   3.104   5.814 -0.8017 -0.8474  2.0966
83773SOL    HW268930   7.585   2.966   5.837 -0.0579 -0.4780  2.4796
83774SOL     OW68931  13.796   5.392   9.098  0.5555 -0.2670 -0.5399
83774SOL    HW168932  13.831   5.304   9.083 -0.0272 -0.9103  1.5422
83774SOL    HW268933  13.711   5.392   9.053  0.8642 -0.5219 -1.1347
83775SOL     OW68934   6.462  12.109   0.519  0.0766 -0.1806  0.0788
83775SOL    HW168935   6.547  12.070   0.539  0.2904  0.7331  0.9985
83775SOL    HW268936   6.443  12.166   0.593 -1.2491 -0.2072 -0.2114
83776SOL     OW68937  13.878   3.051  12.170  0.1535  0.1604  0.1131
83776SOL    HW168938  13.968   3.053  12.202  0.3718  0.5369 -0.4857
83776SOL    HW268939  13.849   2.962  12.184 -0.4657  0.7538  3.1929
83777SOL     OW68940   8.215   9.243   1.650  0.0028 -0.4901 -0.4913
83777SOL    HW168941   8.137   9.240   1.705 -0.4084 -0.1466 -1.0437
83777SOL    HW268942   8.277   9.296   1.700  0.2302 -1.5151  0.3642
83778SOL     OW68943  10.625   9.243  13.816  0.0437 -0.2996 -0.0632
83778SOL    HW168944  10.676   9.209  13.743 -1.4457 -1.9188 -0.4020
83778SOL    HW268945  10.535   9.245  13.784 -0.5910 -0.6870  1.5932
83779SOL     OW68946   1.809   8.136   0.129  0.0484 -0.0497  0.4777
83779SOL    HW168947   1.824   8.086   0.049  1.3849 -0.4093  0.9287
83779SOL    HW268948   1.786   8.070   0.195 -1.2457  0.2644  0.3624
83780SOL     OW68949  12.426   9.437   3.036  0.8624 -0.1307 -0.7641
83780SOL    HW168950  12.398   9.350   3.066  0.9454  0.4057  1.0033
83780SOL    HW268951  12.402   9.496   3.108 -1.5969  1.7758 -2.9852
83781SOL     OW68952  10.307  11.471  10.918  0.4504  0.2598 -0.0567
83781SOL    HW168953  10.236  11.490  10.980  0.3812  0.4679 -0.1985
83781SOL    HW268954  10.378  11.436  10.972 -0.1355 -0.9499 -0.0340
83782SOL     OW68955   0.637   8.719   7.099 -0.2708  0.0408  0.2089
83782SOL    HW168956   0.712   8.773   7.125 -1.2891  2.4395 -1.4586
83782SOL    HW268957   0.670   8.666   7.026  0.0285  0.4559  0.0405
83783SOL     OW68958   2.933  13.644  11.397 -0.9892 -0.2554  0.0381
83783SOL    HW168959   2.875  13.598  11.458 -0.5980 -1.3730 -0.4167
83783SOL    HW268960   2.875  13.705  11.351 -1.0452  1.7277  2.5306
83784SOL     OW68961   3.590   7.582  10.642 -0.2172  0.1152 -0.1974
83784SOL    HW168962   3.506   7.601  10.601  0.2264 -0.8222 -1.6291
83784SOL    HW268963   3.636   7.527  10.579  0.9529 -0.5046  1.1191
83785SOL     OW68964   4.834  10.744  13.610 -0.0116  0.4173 -0.5549
83785SOL    HW168965   4.797  10.809  13.550 -1.4153 -0.7434 -1.0107
83785SOL    HW268966   4.890  10.690  13.556  0.8012  0.9588 -0.2660
83786SOL     OW68967  10.488  12.953  13.564 -0.5606  0.0641  0.0362
83786SOL    HW168968  10.558  12.935  13.626 -1.6857 -1.7319  0.8804
83786SOL    HW268969  10.484  12.875  13.508 -2.3205 -0.2002  0.4724
83787SOL     OW68970  11.002   2.664  10.922 -0.0385  0.0677  0.6106
83787SOL    HW168971  11.026   2.572  10.921  1.7244  0.4367  2.2595
83787SOL    HW268972  11.078   2.709  10.884  0.2970  0.9925  2.2732
83788SOL     OW68973   0.130   5.840  13.325 -0.2573  0.3388  0.5940
83788SOL    HW168974   0.050   5.885  13.352 -1.1375  0.6035 -2.1661
83788SOL    HW268975   0.109   5.747  13.332 -0.3062  0.3894  1.1698
83789SOL     OW68976   6.604  13.374   1.123 -0.7368 -0.2129 -0.2539
83789SOL    HW168977   6.570  13.285   1.132  1.6231 -1.1069  0.6215
83789SOL    HW268978   6.527  13.430   1.129 -2.3664 -2.1882 -1.4736
83790SOL     OW68979  10.649   5.946   4.987  0.5740 -0.1936  0.1289
83790SOL    HW168980  10.709   5.889   5.036  0.8692 -0.4578 -0.5148
83790SOL    HW268981  10.644   5.905   4.900 -1.2101 -0.6561  0.4185
83791SOL     OW68982   5.732   7.782   9.519 -0.1435  0.0071 -0.2650
83791SOL    HW168983   5.801   7.778   9.452  0.4703  2.1454  0.1542
83791SOL    HW268984   5.780   7.778   9.602 -0.2353  3.0321  0.0695
83792SOL     OW68985  12.153   6.259  13.867  0.1143  0.2504 -0.0919
83792SOL    HW168986  12.168   6.352  13.885 -0.9627  0.3262  0.5250
83792SOL    HW268987  12.091   6.258  13.795 -0.9323  0.0502  0.7849
83793SOL     OW68988   2.073  10.466   4.121  0.0517 -0.5256 -0.0246
83793SOL    HW168989   2.100  10.411   4.194  0.2286  1.1963  1.2820
83793SOL    HW268990   2.154  10.508   4.091  0.1252 -1.8577 -1.8217
83794SOL     OW68991  10.564   2.859   4.133  0.4695  0.4361 -0.0045
83794SOL    HW168992  10.521   2.887   4.214 -0.5442 -0.0205 -0.3677
83794SOL    HW268993  10.546   2.930   4.071 -1.9870 -0.8419 -0.8875
83795SOL     OW68994  11.143   6.224   6.263 -0.0794  0.2327 -0.3226
83795SOL    HW168995  11.226   6.197   6.303  0.1638 -2.0955 -2.1370
83795SOL    HW268996  11.079   6.214   6.333  1.0746  1.8990  1.0640
83796SOL     OW68997   2.958  11.629  10.900  0.0325 -0.7037 -0.4355
83796SOL    HW168998   3.043  11.631  10.857  1.0875 -0.9932  1.5300
83796SOL    HW268999   2.903  11.685  10.845  1.9659  0.9671 -0.8046
83797SOL     OW69000   0.305   5.544   0.780 -0.1501  0.6331 -0.2001
83797SOL    HW169001   0.346   5.596   0.712 -0.3384 -0.7176 -1.3996
83797SOL    HW269002   0.359   5.465   0.786 -0.9041  0.1370  0.2467
83798SOL     OW69003  13.288   7.327  10.190  0.2320 -0.0457  0.3872
83798SOL    HW169004  13.234   7.271  10.134 -1.0309  0.3652  1.1421
83798SOL    HW269005  13.301   7.407  10.139 -2.3002  0.9958  1.2393
83799SOL     OW69006   7.678   9.568   6.280 -0.1488 -0.0842  0.0539
83799SOL    HW169007   7.750   9.592   6.337  0.2661 -0.6240 -0.2346
83799SOL    HW269008   7.609   9.632   6.300  0.5782  0.7349 -0.0210
83800SOL     OW69009  11.657   6.310   0.961 -0.5019  0.1155  0.6019
83800SOL    HW169010  11.730   6.261   0.998  0.6459  0.2027 -1.4090
83800SOL    HW269011  11.642   6.270   0.876 -1.5517  1.3227  0.1891
83801SOL     OW69012   2.749   9.461  10.579  0.1187  0.3151 -0.0314
83801SOL    HW169013   2.677   9.399  10.593 -0.0370  0.4580 -0.1939
83801SOL    HW269014   2.750   9.475  10.484  1.7326 -1.3343 -0.3020
83802SOL     OW69015   5.339   3.612   6.183  0.2364  0.0623  0.1127
83802SOL    HW169016   5.346   3.529   6.136  1.4272 -0.3221  0.9275
83802SOL    HW269017   5.246   3.622   6.201 -0.5152  0.8277 -3.3533
83803SOL     OW69018  10.097  12.431   7.273 -0.3558 -0.3652 -0.5910
83803SOL    HW169019  10.044  12.501   7.234 -1.8454  0.1057  2.0559
83803SOL    HW269020  10.178  12.474   7.298  0.0669 -0.3736 -1.8699
83804SOL     OW69021   5.237   8.781   2.789  0.0936  0.2708  0.2272
83804SOL    HW169022   5.166   8.830   2.748  0.6483  0.7306 -0.1912
83804SOL    HW269023   5.275   8.729   2.717  0.2134  0.0650  0.4372
83805SOL     OW69024   4.751  12.844   7.664  0.5307 -0.1911  1.1996
83805SOL    HW169025   4.742  12.750   7.674 -0.4146 -0.3862 -0.8885
83805SOL    HW269026   4.815  12.855   7.594  1.5681  0.7886  2.2479
83806SOL     OW69027   7.858  11.200   3.202 -0.5509  0.2594 -0.0050
83806SOL    HW169028   7.821  11.155   3.278  0.3450  1.1212  0.9838
83806SOL    HW269029   7.873  11.130   3.138  1.6390 -1.0758  1.8123
83807SOL     OW69030   7.840   8.552   7.712  0.0574 -0.7075  0.2739
83807SOL    HW169031   7.832   8.560   7.807 -1.2188 -0.1715  0.1312
83807SOL    HW269032   7.809   8.636   7.678 -0.2951 -1.2050 -0.6611
83808SOL     OW69033  11.240   6.237   0.455 -0.3858  0.4070  0.3368
83808SOL    HW169034  11.311   6.236   0.391 -1.0198 -2.4153 -0.4894
83808SOL    HW269035  11.161   6.241   0.402 -0.8843  0.6505  1.0936
83809SOL     OW69036   6.738   2.019  11.711  0.2889  0.1787 -0.1979
83809SOL    HW169037   6.810   1.978  11.663  1.1776  1.3148  0.1423
83809SOL    HW269038   6.756   2.113  11.706 -0.4765  0.4082  0.9870
83810SOL     OW69039   3.231   2.863  12.965 -0.0340  0.6501 -0.0937
83810SOL    HW169040   3.161   2.922  12.940 -0.3403  0.2448 -0.1870
83810SOL    HW269041   3.289   2.918  13.020 -1.3693  0.5247  1.5344
83811SOL     OW69042   5.932   4.417  11.676 -0.1375  0.3417  0.2684
83811SOL    HW169043   5.884   4.462  11.746  0.1350 -0.2228  0.8316
83811SOL    HW269044   5.905   4.325  11.684  0.4714  0.1450  0.1212
83812SOL     OW69045  10.566   6.949  11.318  0.0794 -0.2988 -0.2001
83812SOL    HW169046  10.518   6.877  11.358 -0.2907 -0.3243 -0.6693
83812SOL    HW269047  10.651   6.949  11.361 -0.5057  0.0594  1.0030
83813SOL     OW69048   5.831  11.137  13.040 -0.0397 -0.2555  0.2387
83813SOL    HW169049   5.832  11.042  13.029 -2.7102 -0.4301  0.6900
83813SOL    HW269050   5.843  11.172  12.951 -1.4006 -1.1084 -0.3154
83814SOL     OW69051   6.440   5.778   2.883 -0.1176  0.4485  0.2396
83814SOL    HW169052   6.347   5.764   2.864 -0.0070 -0.7866  0.5428
83814SOL    HW269053   6.486   5.731   2.814  0.2710 -2.4069  2.2341
83815SOL     OW69054  13.821   2.660   3.034  0.3162  0.5548  0.2603
83815SOL    HW169055  13.850   2.729   3.094 -0.5754  2.5657 -1.4745
83815SOL    HW269056  13.729   2.681   3.015  0.0216 -1.1161 -0.3516
83816SOL     OW69057   5.861   3.194  12.065  0.2815  0.0567 -0.9236
83816SOL    HW169058   5.830   3.285  12.069 -2.4966 -0.7994 -0.6710
83816SOL    HW269059   5.907   3.180  12.148 -2.5214  0.2554  0.8049
83817SOL     OW69060   8.722  11.173  13.239  0.4526 -0.3061 -0.1614
83817SOL    HW169061   8.814  11.189  13.258 -0.0374  1.5308  0.8059
83817SOL    HW269062   8.687  11.135  13.319  0.1792 -0.1854 -0.2214
83818SOL     OW69063  10.629   9.729   8.732 -0.1381 -0.2424  0.0526
83818SOL    HW169064  10.641   9.783   8.810 -0.5414 -0.1460  0.0519
83818SOL    HW269065  10.713   9.734   8.685  0.0680 -0.2139  0.4234
83819SOL     OW69066   8.603  10.761   2.675 -0.2521 -0.2383  0.1863
83819SOL    HW169067   8.675  10.807   2.718  0.4448 -0.5367 -0.6262
83819SOL    HW269068   8.646  10.703   2.611 -1.0697 -2.0111  1.1493
83820SOL     OW69069   9.071   3.578  12.975 -0.1481  0.2075  0.3195
83820SOL    HW169070   9.142   3.575  13.040  0.0845 -0.3727  0.0464
83820SOL    HW269071   9.106   3.633  12.905  0.0341 -0.0783  0.1853
83821SOL     OW69072  11.974  10.939   4.304 -0.4018  0.8255 -0.0096
83821SOL    HW169073  11.968  11.032   4.325 -0.6782  0.1525  3.3004
83821SOL    HW269074  11.891  10.919   4.262  0.5037  2.4230 -2.8497
83822SOL     OW69075  12.430   5.478  11.341 -0.2208  0.2066  0.5814
83822SOL    HW169076  12.410   5.473  11.434  1.7040 -1.7367  0.9648
83822SOL    HW269077  12.353   5.443  11.297 -0.4251 -0.5952  1.5634
83823SOL     OW69078   7.443   0.841   9.919  0.0128 -0.5188 -0.0181
83823SOL    HW169079   7.418   0.757   9.957 -0.9671 -1.4383 -2.4352
83823SOL    HW269080   7.365   0.870   9.871  0.1547  2.0635  1.1278
83824SOL     OW69081  11.142  14.054   1.291  0.3348  0.3842  0.1762
83824SOL    HW169082  11.190  13.980   1.329  0.6264  0.2468 -0.4584
83824SOL    HW269083  11.056  14.050   1.332  0.2431 -0.4963 -0.0916
83825SOL     OW69084   7.606   2.135   3.870  0.6731 -0.0937 -0.7058
83825SOL    HW169085   7.581   2.223   3.898 -0.4577  0.0445 -2.0723
83825SOL    HW269086   7.525   2.096   3.838  1.0259 -1.8723  0.4067
83826SOL     OW69087  10.001   9.561   8.204  0.2813  0.3215 -0.4911
83826SOL    HW169088   9.921   9.522   8.168  0.2570  0.7255 -0.8870
83826SOL    HW269089   9.970   9.636   8.254  0.3612  0.0813 -0.0787
83827SOL     OW69090  10.520  11.144   9.080  0.3546 -0.1188 -0.1028
83827SOL    HW169091  10.442  11.169   9.130 -1.0976  0.9935 -2.7299
83827SOL    HW269092  10.558  11.072   9.131 -1.8924 -0.1520  1.7300
83828SOL     OW69093  11.048  12.546  11.095 -0.4959  0.0408 -0.0897
83828SOL    HW169094  11.135  12.527  11.061 -0.7282  0.2317 -0.8250
83828SOL    HW269095  11.005  12.594  11.023 -0.2610  2.4517  1.2568
83829SOL     OW69096   3.087  11.302   9.994 -0.2666  0.2248 -0.2628
83829SOL    HW169097   3.181  11.296   9.977 -0.1530 -2.6858  0.8899
83829SOL    HW269098   3.081  11.309  10.090 -1.2433  0.5523 -0.3371
83830SOL     OW69099   8.558   0.287  11.428 -0.2867  0.0797 -0.1630
83830SOL    HW169100   8.502   0.324  11.359 -1.0382  1.0912  0.9431
83830SOL    HW269101   8.623   0.235  11.381 -0.9334  0.5322 -1.6169
83831SOL     OW69102  11.066   2.372   4.183  0.5016  0.0404  0.4993
83831SOL    HW169103  10.992   2.428   4.160  0.5948  0.4977  1.2824
83831SOL    HW269104  11.119   2.425   4.242  2.8354  0.7277 -2.0070
83832SOL     OW69105   9.103   3.650  11.211 -0.2183 -0.4628  0.3632
83832SOL    HW169106   9.083   3.673  11.301  0.4350 -0.2230  0.4513
83832SOL    HW269107   9.060   3.717  11.158 -0.5839 -0.5923  0.4966
83833SOL     OW69108   9.941   2.223   0.418 -0.2945  0.0534  0.3821
83833SOL    HW169109  10.019   2.251   0.370 -0.5502  0.1748  0.0325
83833SOL    HW269110   9.960   2.246   0.509 -0.9380  2.4624 -0.0048
83834SOL     OW69111  10.120   0.082   1.820  0.2492  0.0278 -0.4627
83834SOL    HW169112  10.187   0.143   1.850 -1.1100  1.5169 -0.2969
83834SOL    HW269113  10.058   0.136   1.771 -0.7867 -1.2975 -0.6836
83835SOL     OW69114  12.078   9.778   0.739  0.0122 -0.1616  0.4513
83835SOL    HW169115  12.091   9.782   0.834 -0.8555  0.3676  0.5590
83835SOL    HW269116  12.004   9.717   0.728  1.5442 -2.0361 -0.0541
83836SOL     OW69117   1.405  12.722   9.903  0.3995  0.8063  0.0690
83836SOL    HW169118   1.486  12.698   9.857  0.0365 -2.3574  0.9136
83836SOL    HW269119   1.336  12.701   9.841  0.0857  0.2166  0.6132
83837SOL     OW69120   8.889  10.597   7.643 -0.4284 -0.3104 -0.1803
83837SOL    HW169121   8.881  10.681   7.596  0.4049  0.4612  1.0151
83837SOL    HW269122   8.866  10.531   7.577 -4.1122  0.9521 -0.3928
83838SOL     OW69123   1.551  11.143   2.720 -0.3891  0.6869  0.2888
83838SOL    HW169124   1.499  11.159   2.641 -0.3790  0.3225  0.2073
83838SOL    HW269125   1.633  11.190   2.705 -0.7767  1.4528  0.5126
83839SOL     OW69126   0.994   6.031   1.409  0.7269  0.1168  0.2131
83839SOL    HW169127   1.051   5.983   1.469  0.5511  1.3313  1.4018
83839SOL    HW269128   0.926   5.968   1.386  1.6454 -0.8505  0.0419
83840SOL     OW69129   2.980   5.751   4.433 -0.3320 -0.2322  0.2483
83840SOL    HW169130   2.955   5.678   4.376 -1.8900  0.9456 -0.6982
83840SOL    HW269131   2.896   5.786   4.463  0.4082  0.7650  1.1912
83841SOL     OW69132   4.845   0.654  10.330  0.5746 -0.0103 -0.4793
83841SOL    HW169133   4.832   0.603  10.250 -0.4830 -0.1390 -0.2438
83841SOL    HW269134   4.907   0.723  10.305 -0.2401  0.3453 -1.6054
83842SOL     OW69135   2.762   7.884   8.110  0.4948 -0.4337 -0.0447
83842SOL    HW169136   2.687   7.846   8.064  0.3701  0.2041 -0.3833
83842SOL    HW269137   2.731   7.970   8.139  1.3329  0.1627 -0.8587
83843SOL     OW69138   7.399   7.948   4.647  0.4152  0.5283 -0.3307
83843SOL    HW169139   7.450   7.990   4.578  1.6711  1.0386  0.8688
83843SOL    HW269140   7.326   7.906   4.601  1.3592  0.6291 -1.9807
83844SOL     OW69141  13.246  10.047   2.729  0.1416 -0.2256 -0.0916
83844SOL    HW169142  13.168  10.072   2.780  1.1567 -0.7054  1.8021
83844SOL    HW269143  13.287  10.129   2.706  0.7561  0.0198  1.7100
83845SOL     OW69144   9.411   1.839  11.043 -0.5330  0.2199 -0.3933
83845SOL    HW169145   9.433   1.772  11.108 -0.5148  0.6835  0.0779
83845SOL    HW269146   9.318   1.856  11.057 -0.1712  1.4941  0.6116
83846SOL     OW69147   5.124   4.729  13.807  0.3730 -0.2226 -0.2483
83846SOL    HW169148   5.070   4.795  13.764 -0.2017 -0.2793  0.3746
83846SOL    HW269149   5.145   4.767  13.892 -2.0152 -1.7781  1.1666
83847SOL     OW69150   3.355   3.985   4.767 -0.2651 -0.5471 -0.8423
83847SOL    HW169151   3.426   3.948   4.820 -0.5261 -2.3580 -1.6832
83847SOL    HW269152   3.358   3.936   4.685 -2.1591 -0.2966 -1.1043
83848SOL     OW69153   4.744   2.587   7.863 -0.3571 -0.7442 -0.1616
83848SOL    HW169154   4.695   2.636   7.796 -0.9875 -1.3837 -0.1814
83848SOL    HW269155   4.822   2.639   7.878  0.8334 -1.5675 -2.8625
83849SOL     OW69156   2.512  13.982   1.230  0.1277  0.5618  0.0695
83849SOL    HW169157   2.537  13.900   1.273  0.2080  0.0783 -0.8689
83849SOL    HW269158   2.441  14.017   1.283  0.9340  0.5347  1.2046
83850SOL     OW69159   9.286   0.229   3.802 -0.6602  0.2531 -0.4795
83850SOL    HW169160   9.315   0.320   3.805 -0.0521  0.0405  1.7646
83850SOL    HW269161   9.324   0.194   3.722  2.7146  0.8649  0.7086
83851SOL     OW69162   2.732   0.083   7.640 -0.2129 -0.7157  0.0146
83851SOL    HW169163   2.817   0.050   7.611 -0.5690 -1.2044 -0.4917
83851SOL    HW269164   2.735   0.177   7.622 -0.5184 -1.0411 -1.8861
83852SOL     OW69165  13.995   4.288  13.800  0.5013 -0.0136  0.2711
83852SOL    HW169166  14.042   4.315  13.879 -0.2539  1.9671  0.1121
83852SOL    HW269167  14.007   4.361  13.739 -0.8162 -0.4962 -0.6091
83853SOL     OW69168  10.660  12.182  11.325  0.3160  0.2361 -0.4448
83853SOL    HW169169  10.598  12.191  11.252  0.0512 -3.8356 -0.9544
83853SOL    HW269170  10.609  12.207  11.402 -1.2565 -0.7126 -1.1185
83854SOL     OW69171  13.842  13.780  10.432  0.3616 -0.0121  0.2218
83854SOL    HW169172  13.914  13.776  10.495  0.1984 -1.2430  0.3577
83854SOL    HW269173  13.880  13.752  10.349 -0.0759 -1.3192  0.4332
83855SOL     OW69174  12.120  11.370   1.965 -0.4667 -0.1315  0.1235
83855SOL    HW169175  12.048  11.425   1.932  0.2440  0.7683  0.0503
83855SOL    HW269176  12.169  11.427   2.024  1.1303 -0.2217 -1.0583
83856SOL     OW69177   9.581   0.684   4.906  0.4982 -0.3808  0.1246
83856SOL    HW169178   9.529   0.655   4.830  1.0392 -0.9135 -0.0519
83856SOL    HW269179   9.547   0.771   4.926  0.1571 -0.3432 -0.5611
83857SOL     OW69180   6.123   0.497   3.845  0.9889 -0.1528  0.3870
83857SOL    HW169181   6.103   0.471   3.936 -2.4499 -1.2190 -0.5099
83857SOL    HW269182   6.176   0.425   3.811 -0.9094 -1.6929  0.5280
83858SOL     OW69183   4.594  10.813  10.337 -0.4403  0.2454 -0.4453
83858SOL    HW169184   4.678  10.856  10.355  0.1176 -1.0548  0.1151
83858SOL    HW269185   4.537  10.841  10.409  0.2979 -0.9155  0.6373
83859SOL     OW69186  14.058   0.175   4.328 -0.2256  0.2611 -0.3453
83859SOL    HW169187  14.060   0.202   4.420 -0.0148 -1.3600  0.1632
83859SOL    HW269188  14.118   0.101   4.324 -1.3142 -0.5942 -1.4907
83860SOL     OW69189   4.725  10.959   7.874  0.2191 -0.2792  0.6819
83860SOL    HW169190   4.801  10.994   7.920 -0.7121  0.2091  1.8825
83860SOL    HW269191   4.705  10.877   7.920  0.1450 -0.5265  0.2165
83861SOL     OW69192   6.420   7.045   5.416 -0.4155 -0.3320  0.0607
83861SOL    HW169193   6.442   7.053   5.323  0.2223  1.1236  0.3059
83861SOL    HW269194   6.504   7.027   5.459 -0.0808  2.2864  0.6741
83862SOL     OW69195   1.132   7.077   6.279  0.2805 -0.4664  0.2192
83862SOL    HW169196   1.041   7.058   6.303 -0.4455  2.6630  0.3840
83862SOL    HW269197   1.168   7.122   6.355  1.1024  0.7268 -0.8441
83863SOL     OW69198   8.979   2.189   6.458 -0.5788 -0.1540  0.6414
83863SOL    HW169199   8.934   2.224   6.381 -1.0044 -2.2207 -0.1088
83863SOL    HW269200   8.910   2.171   6.521 -0.5238 -0.8974  0.4951
83864SOL     OW69201   3.675  13.799   1.571 -0.0063 -0.1197 -0.6367
83864SOL    HW169202   3.626  13.742   1.512  0.9304  0.8803 -2.4863
83864SOL    HW269203   3.635  13.785   1.656 -1.9309 -1.0882 -1.6203
83865SOL     OW69204  10.887   4.068   2.642  0.5250  0.5954  1.0798
83865SOL    HW169205  10.795   4.062   2.669 -1.0435  0.6220 -3.4054
83865SOL    HW269206  10.917   3.978   2.636 -0.9046  0.2089 -1.9182
83866SOL     OW69207   6.586   5.713  12.248  0.0503  0.8500 -0.0616
83866SOL    HW169208   6.627   5.739  12.331  3.6131  4.0772 -2.5048
83866SOL    HW269209   6.536   5.790  12.221 -3.7158 -1.2236  0.2994
83867SOL     OW69210   0.411   1.828   9.013  0.5678  0.3179  0.3833
83867SOL    HW169211   0.451   1.776   8.943 -0.2155  1.2689 -0.8236
83867SOL    HW269212   0.330   1.861   8.974 -0.0917  0.5640  1.8912
83868SOL     OW69213  12.383  13.659  11.029 -0.0698 -0.7677  0.5703
83868SOL    HW169214  12.417  13.613  10.952 -1.1187 -0.3253 -0.1728
83868SOL    HW269215  12.404  13.602  11.102  2.8682 -0.2316  0.2638
83869SOL     OW69216  11.644   6.263   4.902  0.4474 -0.0709  0.3416
83869SOL    HW169217  11.691   6.337   4.940 -0.9117  0.5445  0.8557
83869SOL    HW269218  11.560   6.299   4.874 -0.0062 -1.3000  0.0581
83870SOL     OW69219   1.931  13.663   6.600 -0.3170  0.8377 -0.7183
83870SOL    HW169220   1.916  13.757   6.592  1.0833  1.2303  0.6119
83870SOL    HW269221   1.902  13.642   6.689  0.2261  0.1931 -0.6862
83871SOL     OW69222   6.698  13.618   3.984  0.3304  0.6245  0.2073
83871SOL    HW169223   6.701  13.671   3.905  1.0518  0.5452  0.1785
83871SOL    HW269224   6.635  13.662   4.041 -0.6541  0.3558 -0.6383
83872SOL     OW69225   7.743  11.646   5.531  0.0329  0.2695  0.2484
83872SOL    HW169226   7.821  11.679   5.576 -1.2122  1.8569  1.3666
83872SOL    HW269227   7.691  11.724   5.513 -1.8195 -0.8307  0.5492
83873SOL     OW69228  13.485   9.372   8.562  0.0978  0.1727  0.0525
83873SOL    HW169229  13.439   9.369   8.479 -0.0080 -1.3902  0.1414
83873SOL    HW269230  13.421   9.409   8.624 -0.8727 -1.4086  0.0478
83874SOL     OW69231   0.048   2.366   0.438 -0.2293  0.2407  1.0076
83874SOL    HW169232   0.042   2.459   0.460 -1.2297  0.3871  0.1827
83874SOL    HW269233   0.135   2.356   0.399  0.6366  0.4336  2.7419
83875SOL     OW69234   3.911   4.975  13.441  0.0482  0.8015 -0.1672
83875SOL    HW169235   3.820   4.970  13.469  0.5317  1.9938  1.7768
83875SOL    HW269236   3.916   4.913  13.368 -2.1400  0.1936  0.1085
83876SOL     OW69237  13.143   1.469   6.321  0.2282  0.2053 -0.4888
83876SOL    HW169238  13.143   1.515   6.405  1.9302 -0.0048 -0.3257
83876SOL    HW269239  13.051   1.465   6.295 -0.4098 -0.3545  1.6912
83877SOL     OW69240  12.074   9.810   7.883 -0.1034  0.0036 -0.0137
83877SOL    HW169241  11.993   9.852   7.854  0.4199  0.6369 -0.5880
83877SOL    HW269242  12.114   9.873   7.944  1.2472  0.9088 -1.7420
83878SOL     OW69243   8.750   0.299   9.021 -0.7340  0.2671 -0.1697
83878SOL    HW169244   8.787   0.301   8.933 -0.6487 -0.0161 -0.1407
83878SOL    HW269245   8.815   0.346   9.075  0.5228 -1.7995  0.2254
83879SOL     OW69246   9.239  12.937   5.803  0.1130 -0.2443 -0.0388
83879SOL    HW169247   9.164  12.923   5.861 -1.3399  0.4542 -1.6851
83879SOL    HW269248   9.241  12.858   5.748  1.3085 -0.7727  0.7180
83880SOL     OW69249  13.484   3.890   2.285 -0.1787  0.1950  0.0714
83880SOL    HW169250  13.417   3.885   2.218 -0.5988 -0.1488  0.5137
83880SOL    HW269251  13.528   3.805   2.281  1.5382  1.0844 -1.5421
83881SOL     OW69252  12.284   9.470  11.523  0.7184 -0.1688 -0.1745
83881SOL    HW169253  12.296   9.434  11.611  1.7886  0.1185 -0.1945
83881SOL    HW269254  12.228   9.406  11.479 -1.7768  0.7667  1.3877
83882SOL     OW69255   1.939   3.852   0.327  0.0971 -0.8390  0.1767
83882SOL    HW169256   2.001   3.925   0.322 -0.7192  0.0588  2.0249
83882SOL    HW269257   1.853   3.893   0.319 -0.3411 -1.7128  0.3210
83883SOL     OW69258  12.277   6.989   8.836  0.0396 -0.7860  0.2256
83883SOL    HW169259  12.226   6.972   8.757  0.8585 -1.0125 -0.2636
83883SOL    HW269260  12.295   6.902   8.872  0.5174 -0.7278  0.1207
83884SOL     OW69261   6.695   3.934  11.291 -0.0163  0.1947 -0.2670
83884SOL    HW169262   6.742   3.858  11.325 -1.0792  1.0936  3.8038
83884SOL    HW269263   6.764   4.000  11.277  0.7338 -0.9487 -2.4460
83885SOL     OW69264  10.854  11.636   3.719  0.0765 -0.1584  0.3688
83885SOL    HW169265  10.839  11.714   3.665  1.2568 -0.3026 -0.1986
83885SOL    HW269266  10.788  11.574   3.689 -0.5799  0.4594  0.5055
83886SOL     OW69267   8.241   6.561  10.882 -0.4889 -0.3495 -0.3637
83886SOL    HW169268   8.275   6.616  10.952  0.3385 -0.3011 -0.7897
83886SOL    HW269269   8.152   6.593  10.867 -0.2436  0.4385 -0.1703
83887SOL     OW69270   2.077   1.452   9.708 -0.4242 -0.4004 -0.2848
83887SOL    HW169271   2.047   1.496   9.787  3.8072  1.1070  0.7449
83887SOL    HW269272   2.102   1.524   9.649 -0.6930 -1.5034 -1.8040
83888SOL     OW69273   2.530   8.452   7.072  0.1291  0.5370  0.3910
83888SOL    HW169274   2.469   8.470   7.144  2.0076  1.1152  1.9362
83888SOL    HW269275   2.512   8.361   7.047 -1.8882  0.9480  0.2168
83889SOL     OW69276   5.505  12.659   0.251  0.3048 -0.2715  0.2352
83889SOL    HW169277   5.478  12.731   0.193  0.9247 -1.5506 -1.7423
83889SOL    HW269278   5.556  12.601   0.195  1.8161 -1.1105  2.3418
83890SOL     OW69279  10.946   7.864  13.395  0.2200  0.3722  0.3966
83890SOL    HW169280  11.038   7.840  13.387  0.6221  0.9304  2.5521
83890SOL    HW269281  10.910   7.803  13.460 -0.7935  0.4883 -0.0294
83891SOL     OW69282   8.940   9.578   3.506 -0.4848 -0.4291  0.2451
83891SOL    HW169283   8.982   9.493   3.491  0.8573 -0.0208  1.4146
83891SOL    HW269284   9.002   9.642   3.471 -0.1184  0.1862  1.9200
83892SOL     OW69285   6.944   6.864   3.113  0.1828  0.1298  0.3755
83892SOL    HW169286   6.981   6.781   3.143 -1.3746  0.0064  2.1865
83892SOL    HW269287   6.874   6.838   3.053  0.1470  0.1721  0.3991
83893SOL     OW69288   3.881   1.004   5.377  0.1346 -0.4842 -0.0404
83893SOL    HW169289   3.837   0.954   5.445 -0.6207 -0.1366 -0.2580
83893SOL    HW269290   3.924   0.938   5.322 -0.0340 -0.8221  0.2323
83894SOL     OW69291   8.695  13.082   3.478 -0.1369  0.0067 -0.0945
83894SOL    HW169292   8.613  13.128   3.459  0.9811  2.3536  0.3547
83894SOL    HW269293   8.708  13.025   3.403 -0.7364  1.7651 -1.6316
83895SOL     OW69294   4.229   8.264   6.944 -0.0170  0.1873  0.2214
83895SOL    HW169295   4.283   8.234   6.870 -1.9318 -0.7423 -0.8825
83895SOL    HW269296   4.196   8.350   6.916 -0.5997 -0.0857  0.0556
83896SOL     OW69297  11.482  10.434   7.680  0.1395 -0.5848  0.1512
83896SOL    HW169298  11.417  10.370   7.710  0.0332 -1.1793 -1.2512
83896SOL    HW269299  11.479  10.504   7.744 -1.9005 -0.6007  0.1262
83897SOL     OW69300   8.751   1.683   1.860 -0.2383  0.1204  0.5293
83897SOL    HW169301   8.661   1.683   1.894 -0.4717 -0.5767 -0.0553
83897SOL    HW269302   8.751   1.750   1.792 -0.6931 -0.7842 -0.3875
83898SOL     OW69303  13.041   5.684   4.450 -0.0604 -0.3400  0.0494
83898SOL    HW169304  13.107   5.750   4.426 -0.1266 -0.6722 -1.0897
83898SOL    HW269305  13.092   5.605   4.468 -0.0850 -0.3535  0.0590
83899SOL     OW69306  12.450  10.378   0.876  0.4233  0.1800 -0.4986
83899SOL    HW169307  12.428  10.422   0.958 -1.3672  1.6562 -1.7140
83899SOL    HW269308  12.404  10.294   0.881  1.5367 -0.4041  0.5971
83900SOL     OW69309   9.074   5.642   1.916  1.0041  0.2492 -0.0872
83900SOL    HW169310   8.990   5.598   1.901  1.4775 -0.9989  0.7154
83900SOL    HW269311   9.135   5.571   1.937  2.2445  1.1383 -0.5320
83901SOL     OW69312   6.709   6.770   1.205  0.3651  0.1608 -0.3065
83901SOL    HW169313   6.660   6.719   1.269  0.8740  0.1651  0.0979
83901SOL    HW269314   6.646   6.832   1.169  0.0386  0.0576  0.0893
83902SOL     OW69315   7.424   6.789  12.553 -0.8139 -0.4423 -0.0014
83902SOL    HW169316   7.430   6.721  12.619  2.9844 -0.0932  0.2349
83902SOL    HW269317   7.391   6.866  12.600  0.7020 -0.5196  1.2623
83903SOL     OW69318  11.986   7.781   3.675 -0.6694  0.0370  0.0012
83903SOL    HW169319  12.054   7.741   3.729 -1.4800 -0.4704  0.6799
83903SOL    HW269320  11.913   7.795   3.735 -1.5573 -0.4341 -0.9229
83904SOL     OW69321  13.903   5.185   6.750  0.0969  0.0364  0.2088
83904SOL    HW169322  13.824   5.232   6.777 -0.0663 -0.9796  1.5568
83904SOL    HW269323  13.975   5.242   6.777 -0.0726 -0.7270  2.4799
83905SOL     OW69324  12.411  13.033  10.193 -0.3122 -0.0795  0.3350
83905SOL    HW169325  12.419  13.051  10.100 -1.1351 -2.4115 -0.2594
83905SOL    HW269326  12.496  12.998  10.219  0.1059  1.1200  0.6175
83906SOL     OW69327   1.722  13.862   2.241 -0.2283 -0.8201 -0.4706
83906SOL    HW169328   1.649  13.919   2.266  0.1656 -1.2303  1.7624
83906SOL    HW269329   1.778  13.918   2.187 -2.2663 -0.5812 -2.4641
83907SOL     OW69330   3.895   9.744   6.425 -0.0727 -0.3913 -0.1965
83907SOL    HW169331   3.905   9.839   6.430 -0.1238 -0.4332  1.0409
83907SOL    HW269332   3.888   9.725   6.332  1.5860  0.6377 -0.5540
83908SOL     OW69333  13.863   1.015   7.574 -0.7315 -0.5904  0.1791
83908SOL    HW169334  13.839   0.979   7.659  0.7332 -0.9505  0.4514
83908SOL    HW269335  13.944   0.971   7.551 -0.5666  0.2611 -0.9338
83909SOL     OW69336   9.604  11.929  10.498 -0.7383 -0.3242 -0.3075
83909SOL    HW169337   9.522  11.922  10.449 -2.0477 -0.7557  1.8123
83909SOL    HW269338   9.604  11.852  10.556  1.2473 -0.3996 -0.3358
83910SOL     OW69339   7.277   4.193   6.049  0.1351  0.4005  0.5427
83910SOL    HW169340   7.365   4.180   6.014 -0.1701  2.4735 -1.1882
83910SOL    HW269341   7.227   4.230   5.977 -1.7430  0.7726  1.9411
83911SOL     OW69342   7.009   3.828   9.774 -0.0327 -0.2128  0.3964
83911SOL    HW169343   6.923   3.802   9.807  0.4589 -1.4373  0.7651
83911SOL    HW269344   7.047   3.748   9.738  0.2441  0.6849 -1.4118
83912SOL     OW69345   1.841   2.641   9.634 -0.4535 -0.4680  0.0371
83912SOL    HW169346   1.830   2.735   9.643  1.0474 -0.2657 -0.0246
83912SOL    HW269347   1.840   2.626   9.539 -0.2569 -0.4520  0.0327
83913SOL     OW69348  11.861  13.956  12.882  0.4113 -0.3835  0.2539
83913SOL    HW169349  11.806  13.881  12.858  0.4179 -0.2162 -0.2949
83913SOL    HW269350  11.816  14.032  12.844  0.3822 -0.0998  0.8424
83914SOL     OW69351   5.217   1.766   9.126  0.7651  0.4134 -0.5425
83914SOL    HW169352   5.306   1.732   9.136  0.8759  0.1687 -2.0785
83914SOL    HW269353   5.219   1.814   9.043 -0.2934  1.2349 -0.1136
83915SOL     OW69354   3.710   0.761  13.273  0.0657  0.1867  0.3942
83915SOL    HW169355   3.656   0.685  13.249  1.1135 -0.4797  0.1161
83915SOL    HW269356   3.722   0.808  13.191 -0.3227  0.4952  0.5102
83916SOL     OW69357  12.786  12.267  11.842  0.4717 -0.7781  0.0529
83916SOL    HW169358  12.810  12.176  11.860  0.2353 -0.8481  0.0129
83916SOL    HW269359  12.698  12.262  11.803 -0.8185 -0.3556  2.6980
83917SOL     OW69360   4.447  11.806  13.143  0.0962  0.2386  0.2675
83917SOL    HW169361   4.518  11.808  13.207  1.7059  1.6990 -1.4491
83917SOL    HW269362   4.463  11.882  13.087 -0.6866 -1.4115 -2.3865
83918SOL     OW69363   3.965   5.018   6.916  0.0843  0.3714 -0.6201
83918SOL    HW169364   4.021   5.096   6.915  0.3716  0.1815  0.0256
83918SOL    HW269365   3.911   5.028   6.995  0.1289 -0.0791 -0.5266
83919SOL     OW69366  12.236   7.637   3.788 -0.4179 -0.1591 -0.5306
83919SOL    HW169367  12.294   7.707   3.758  0.8670 -0.8196  0.3023
83919SOL    HW269368  12.256   7.562   3.731 -1.4445 -0.0135 -1.1119
83920SOL     OW69369  12.877   9.116  10.171  0.6013 -0.0912 -0.2661
83920SOL    HW169370  12.914   9.080  10.252  1.0354 -0.1785 -0.5033
83920SOL    HW269371  12.788   9.081  10.168  0.8439 -0.7334 -0.2261
83921SOL     OW69372   5.549  11.020   9.540 -0.0081 -0.5167  0.0708
83921SOL    HW169373   5.607  11.069   9.598  1.7935 -1.2169 -1.0553
83921SOL    HW269374   5.605  10.993   9.467 -1.6468 -1.6720 -0.8286
83922SOL     OW69375  11.204  11.900   1.139 -0.1947 -0.3721 -0.4318
83922SOL    HW169376  11.142  11.955   1.092 -2.1757 -0.7564  1.5589
83922SOL    HW269377  11.237  11.956   1.209  0.5190 -0.6638 -0.5207
83923SOL     OW69378   2.028  11.216   4.852  0.2916 -0.1616  0.0967
83923SOL    HW169379   2.021  11.265   4.934 -0.0821  0.2267 -0.1651
83923SOL    HW269380   2.024  11.124   4.879 -1.7636 -0.0407  0.3689
83924SOL     OW69381  14.026   5.662   1.700  0.0855 -0.2679 -0.4488
83924SOL    HW169382  14.013   5.752   1.672 -0.7005 -0.5091 -0.8801
83924SOL    HW269383  14.041   5.613   1.619  1.6324 -0.3628 -0.1386
83925SOL     OW69384   9.569  12.325   1.101  0.1264  0.5020 -0.5686
83925SOL    HW169385   9.479  12.356   1.110 -0.4927 -1.2554 -0.4718
83925SOL    HW269386   9.622  12.402   1.122 -1.3422  1.2404  0.6828
83926SOL     OW69387  12.718  13.666   2.941 -0.0184 -0.0678 -0.2192
83926SOL    HW169388  12.686  13.622   2.862 -0.7465 -1.4078  0.7703
83926SOL    HW269389  12.674  13.751   2.941 -0.0701 -0.0849 -1.2019
83927SOL     OW69390   9.352   7.268  12.860  0.1220 -0.3326  0.3714
83927SOL    HW169391   9.297   7.286  12.783 -0.7377 -1.8641  0.5811
83927SOL    HW269392   9.311   7.318  12.930 -1.4186 -1.8780  0.6521
83928SOL     OW69393   9.552   9.776   1.920 -0.1570  0.8330  0.1024
83928SOL    HW169394   9.493   9.832   1.970 -0.6033  1.3037 -0.9196
83928SOL    HW269395   9.636   9.782   1.966 -0.0137  2.8617 -0.3407
83929SOL     OW69396   0.532   7.006   4.990 -0.0088  0.4756 -0.2012
83929SOL    HW169397   0.486   7.015   5.073 -1.9231  0.3396 -1.2009
83929SOL    HW269398   0.465   6.976   4.928  1.5629 -0.3179 -1.5997
83930SOL     OW69399  12.907   5.989   3.359 -0.2986  0.6535 -0.1130
83930SOL    HW169400  12.887   5.896   3.352 -1.3086  0.8126  0.4000
83930SOL    HW269401  12.973   6.005   3.292 -0.3145 -0.3726 -0.3899
83931SOL     OW69402  13.963  12.332   4.727 -0.2455 -0.5220 -0.0032
83931SOL    HW169403  14.000  12.309   4.642  0.1426 -2.6322  0.6578
83931SOL    HW269404  13.897  12.398   4.707  1.0607  0.3469 -1.7009
83932SOL     OW69405   9.423  10.757   0.967  0.4455 -0.1622 -0.3282
83932SOL    HW169406   9.368  10.771   0.890  0.2725  0.0234 -0.1697
83932SOL    HW269407   9.512  10.755   0.932  0.5445  1.8861 -0.2947
83933SOL     OW69408   3.228   7.578   4.099  0.2563  0.0566  0.0072
83933SOL    HW169409   3.257   7.612   4.014 -0.7813  0.2146 -0.2943
83933SOL    HW269410   3.223   7.656   4.155 -1.2217  0.2939 -0.4249
83934SOL     OW69411  11.726  10.302   3.050  0.2520 -0.0656 -0.2113
83934SOL    HW169412  11.675  10.241   2.997  1.8437 -1.1885 -0.5254
83934SOL    HW269413  11.680  10.304   3.135 -0.8865 -0.2087 -0.8011
83935SOL     OW69414   0.183  12.382   1.299  0.5537  0.0487  0.5489
83935SOL    HW169415   0.178  12.307   1.240 -2.5047  0.1276  0.5093
83935SOL    HW269416   0.206  12.344   1.384  0.1455 -0.8162  0.2920
83936SOL     OW69417   2.244   4.412   4.909 -0.0389  0.0618  0.2573
83936SOL    HW169418   2.157   4.373   4.906  0.1665 -0.3372 -1.7377
83936SOL    HW269419   2.231   4.501   4.876  0.3201 -0.0025 -0.0574
83937SOL     OW69420   9.251   0.113  11.752  0.0836  0.2077 -0.1163
83937SOL    HW169421   9.267   0.107  11.658 -0.0548  0.2290 -0.1424
83937SOL    HW269422   9.177   0.174  11.760 -0.7729 -0.7936 -0.0878
83938SOL     OW69423   6.612   9.646   8.390  0.5352  0.2293 -0.3395
83938SOL    HW169424   6.599   9.697   8.310 -0.5528 -1.2251 -1.1416
83938SOL    HW269425   6.578   9.702   8.460  0.4020  1.0486 -1.0395
83939SOL     OW69426   0.802   5.926   4.677 -0.4299 -0.3439 -0.3062
83939SOL    HW169427   0.746   5.853   4.704  0.5215 -0.5696  1.1316
83939SOL    HW269428   0.741   6.000   4.666 -1.2461 -1.0553 -0.6727
83940SOL     OW69429   5.697   0.413  11.851 -0.1489 -0.1542 -1.1647
83940SOL    HW169430   5.654   0.496  11.868 -0.9400 -0.3101 -2.2903
83940SOL    HW269431   5.633   0.363  11.799 -0.0930 -1.8369  0.2744
83941SOL     OW69432  12.283   4.654   3.708  0.0495 -0.1351 -0.1150
83941SOL    HW169433  12.361   4.672   3.761 -0.4404  1.6071  0.0903
83941SOL    HW269434  12.311   4.674   3.618 -0.3825  1.4727  0.0680
83942SOL     OW69435   7.665   3.406  10.868  0.1716  0.1062  0.5197
83942SOL    HW169436   7.674   3.323  10.915 -1.1450 -0.7728 -0.6939
83942SOL    HW269437   7.571   3.426  10.872  0.0971  0.2998 -1.1609
83943SOL     OW69438   7.718  10.545   6.609  0.3267 -0.1437  0.3316
83943SOL    HW169439   7.695  10.470   6.664  0.0216 -0.7862 -0.6551
83943SOL    HW269440   7.814  10.546   6.610  0.3361 -0.6654  0.2008
83944SOL     OW69441  12.392  10.740   3.043  0.2262  0.0665 -0.2178
83944SOL    HW169442  12.383  10.659   3.093  2.0055 -0.1803 -0.2600
83944SOL    HW269443  12.384  10.809   3.108  1.0943 -0.2134  0.1884
83945SOL     OW69444  13.892   4.832   2.146  0.0528 -0.0020 -0.4215
83945SOL    HW169445  13.973   4.840   2.096  0.3441 -0.7903 -0.0932
83945SOL    HW269446  13.849   4.754   2.110  0.8454 -1.3091  1.3337
83946SOL     OW69447   8.156   8.364   0.286  0.4211  0.5177 -0.1771
83946SOL    HW169448   8.217   8.385   0.216 -0.2437  0.2232 -0.8646
83946SOL    HW269449   8.071   8.397   0.254  0.0430  0.0349  0.3127
83947SOL     OW69450   8.945   0.455   8.228  0.3151  0.2577 -0.0348
83947SOL    HW169451   9.019   0.499   8.188  0.1884  0.3841 -0.1283
83947SOL    HW269452   8.948   0.366   8.193 -0.9460  0.8839 -1.8805
83948SOL     OW69453   6.110  12.175  13.781 -0.5426  0.4359  0.2493
83948SOL    HW169454   6.180  12.239  13.771 -0.6011  0.3025 -1.2304
83948SOL    HW269455   6.070  12.169  13.693 -0.7067 -1.4262  0.4115
83949SOL     OW69456   6.532  12.124  13.700 -0.2309  0.3619  0.1766
83949SOL    HW169457   6.464  12.171  13.749 -1.3392  0.2844 -1.2057
83949SOL    HW269458   6.597  12.191  13.678  0.1401  0.4456  1.4917
83950SOL     OW69459   8.395   8.469   7.692  0.0179  0.1192 -0.3255
83950SOL    HW169460   8.300   8.472   7.681  0.1823  1.6435 -1.6586
83950SOL    HW269461   8.421   8.387   7.649 -0.5755  0.3526 -1.1698
83951SOL     OW69462  12.020   2.762  11.865 -0.6123  0.3111  0.0368
83951SOL    HW169463  12.115   2.750  11.870 -0.4046  0.7674 -1.8892
83951SOL    HW269464  11.990   2.695  11.804 -1.3256  0.9777 -0.3667
83952SOL     OW69465   5.268   4.784   3.597  0.8250  0.2205 -0.3418
83952SOL    HW169466   5.307   4.855   3.648  0.3352 -0.5609  1.1829
83952SOL    HW269467   5.181   4.772   3.635  0.5723 -0.6158 -1.1608
83953SOL     OW69468  12.617   7.702  13.791  0.1902 -0.3532 -0.1682
83953SOL    HW169469  12.634   7.675  13.701  0.5448  0.5232 -0.3743
83953SOL    HW269470  12.610   7.797  13.786  1.6335 -0.1631  0.9676
83954SOL     OW69471  13.574  12.939   6.463 -0.0212 -0.0134  0.7169
83954SOL    HW169472  13.512  12.944   6.390  1.0077 -0.3462 -0.2187
83954SOL    HW269473  13.525  12.970   6.539 -1.7978 -1.6461  0.3234
83955SOL     OW69474   2.176  10.951   2.777 -0.1933 -0.7456 -0.4308
83955SOL    HW169475   2.224  10.961   2.860 -0.3110  1.5419 -0.5676
83955SOL    HW269476   2.234  10.989   2.711 -1.4076  0.4370 -0.8690
83956SOL     OW69477   3.600   7.311   2.618  0.2856  0.1351 -0.1138
83956SOL    HW169478   3.669   7.253   2.651 -0.4068 -0.4818  0.2893
83956SOL    HW269479   3.623   7.326   2.527  1.1200  0.1837  0.0997
83957SOL     OW69480   2.038  13.394   5.985 -0.4385  0.4939  0.3207
83957SOL    HW169481   2.087  13.414   6.064 -1.8785  0.4481  1.2592
83957SOL    HW269482   1.984  13.472   5.970 -1.5699 -0.2222  0.4975
83958SOL     OW69483   9.689   2.030   2.346 -0.5745 -0.5348  0.2316
83958SOL    HW169484   9.680   1.937   2.364 -0.4877 -0.3567  1.3094
83958SOL    HW269485   9.773   2.055   2.386 -0.5869 -0.0069 -0.0575
83959SOL     OW69486   3.346   3.375  11.000 -0.1962  0.1987 -0.1771
83959SOL    HW169487   3.335   3.341  11.088  1.1192  0.6714  0.1876
83959SOL    HW269488   3.281   3.327  10.948 -0.2441 -0.8713  0.8273
83960SOL     OW69489   0.593   6.818   0.734  0.1119  0.3063  0.5027
83960SOL    HW169490   0.589   6.750   0.667 -1.1492  1.0112 -0.1804
83960SOL    HW269491   0.685   6.841   0.739  0.5685 -1.4094  0.7280
83961SOL     OW69492   0.320   9.721  13.089  0.2477  0.1345 -0.1290
83961SOL    HW169493   0.263   9.645  13.088  1.3551 -0.7221 -0.2775
83961SOL    HW269494   0.261   9.796  13.103 -0.9350 -0.6674 -0.6896
83962SOL     OW69495   7.831   4.314   5.934 -0.4437  0.0436 -0.1893
83962SOL    HW169496   7.748   4.361   5.946 -1.6008 -2.0107  0.3756
83962SOL    HW269497   7.856   4.286   6.022  0.3096 -0.2338 -0.4814
83963SOL     OW69498   1.808   2.917   1.355 -0.1755 -0.5227  0.4723
83963SOL    HW169499   1.891   2.897   1.312 -0.1325 -0.0339  0.3220
83963SOL    HW269500   1.742   2.878   1.297 -0.1344  0.3434 -0.1843
83964SOL     OW69501   5.557  11.445   7.971  0.0426  0.5566 -0.5323
83964SOL    HW169502   5.468  11.458   7.938 -0.4010  3.7010  1.4385
83964SOL    HW269503   5.609  11.508   7.922  0.9495 -0.3729 -0.7803
83965SOL     OW69504   8.677   1.440   9.370  0.1325  0.2258 -0.6010
83965SOL    HW169505   8.745   1.400   9.424 -1.4570  0.4815  1.7552
83965SOL    HW269506   8.642   1.368   9.318  0.3931 -0.4848  0.1908
83966SOL     OW69507  10.633   0.379   4.391  0.5183 -0.2735  0.3126
83966SOL    HW169508  10.718   0.401   4.353  1.0009 -0.2577  1.3700
83966SOL    HW269509  10.651   0.369   4.485 -0.7280  0.1541  0.6076
83967SOL     OW69510  10.408   0.794   4.952  0.4509  0.0055 -0.3087
83967SOL    HW169511  10.373   0.842   4.877 -0.4774 -1.5254 -0.9035
83967SOL    HW269512  10.468   0.730   4.914 -0.9116 -1.5832  0.0883
83968SOL     OW69513   9.151   0.060   0.711  0.1933 -0.5113  1.1568
83968SOL    HW169514   9.184   0.139   0.755  1.2219 -0.1836 -0.1448
83968SOL    HW269515   9.056   0.063   0.726  0.2400  0.8542  1.3305
83969SOL     OW69516  11.639  13.912   8.655  0.1010 -0.6561 -0.2303
83969SOL    HW169517  11.669  14.002   8.645 -0.9392 -0.1931  0.6512
83969SOL    HW269518  11.688  13.879   8.731  1.6370 -1.3816 -1.4627
83970SOL     OW69519  13.725   7.426  12.131 -0.4032  0.3049  0.4159
83970SOL    HW169520  13.756   7.510  12.096 -1.2703  0.4343 -0.0744
83970SOL    HW269521  13.630   7.437  12.140 -0.3751 -0.2169  1.5070
83971SOL     OW69522   6.773  13.364   5.668  0.5020 -0.3151  0.5479
83971SOL    HW169523   6.686  13.382   5.633  0.7685 -2.2894 -1.3143
83971SOL    HW269524   6.809  13.450   5.689 -1.8523  0.5354  1.3327
83972SOL     OW69525  10.536  12.937   6.490 -0.5929 -0.1105 -0.0694
83972SOL    HW169526  10.557  13.013   6.436  1.0346 -1.4363 -1.4098
83972SOL    HW269527  10.607  12.933   6.554 -0.1534 -1.0039 -0.5965
83973SOL     OW69528   1.882  13.585   3.964  0.4463 -0.1528 -0.1205
83973SOL    HW169529   1.913  13.564   3.875  2.4586  1.8785  0.0261
83973SOL    HW269530   1.891  13.680   3.971  0.1601 -0.2470  2.2083
83974SOL     OW69531   5.845  11.287   7.284  0.2056 -0.2997  0.1639
83974SOL    HW169532   5.785  11.214   7.272  1.5498 -1.2401 -1.3336
83974SOL    HW269533   5.897  11.263   7.361 -1.5483  0.7512  1.7769
83975SOL     OW69534   5.247   2.357   2.265 -0.2673 -0.3072  0.2961
83975SOL    HW169535   5.231   2.450   2.247  0.3140  0.2208  2.2665
83975SOL    HW269536   5.288   2.356   2.352  0.0031 -2.3954  0.1934
83976SOL     OW69537   3.247   5.176   2.008  0.3877 -0.6589  0.0489
83976SOL    HW169538   3.232   5.236   1.935  0.1993 -0.2638  0.4069
83976SOL    HW269539   3.184   5.203   2.075  0.6881 -0.8896  0.4314
83977SOL     OW69540   0.770   4.250   2.463 -0.3507 -0.0670  0.3807
83977SOL    HW169541   0.854   4.220   2.427  0.2508  0.4989  1.2667
83977SOL    HW269542   0.763   4.204   2.547 -1.1845 -0.4984  0.0852
83978SOL     OW69543  13.575  12.072  10.059 -0.5041 -0.5144 -0.2477
83978SOL    HW169544  13.492  12.113  10.036 -0.2564  0.6852  0.8656
83978SOL    HW269545  13.607  12.033   9.977 -0.6271  1.7691 -1.4464
83979SOL     OW69546  10.145   3.268  13.724  0.1285 -0.3016  0.3023
83979SOL    HW169547  10.118   3.209  13.794 -3.0151 -0.2302 -0.7015
83979SOL    HW269548  10.166   3.210  13.650  1.2987 -0.2868  0.6063
83980SOL     OW69549   4.663  12.983  11.985  0.6260  0.0496  0.5476
83980SOL    HW169550   4.713  13.035  11.922 -0.1060 -0.5273 -0.5508
83980SOL    HW269551   4.657  13.038  12.063  3.1562  0.0309  0.8331
83981SOL     OW69552   5.665  13.359   6.820 -0.5079 -0.1054  0.1040
83981SOL    HW169553   5.608  13.413   6.765 -1.1403  0.8360  1.6313
83981SOL    HW269554   5.732  13.419   6.853  3.0039 -1.5809 -3.4918
83982SOL     OW69555  11.912  10.502   9.313  0.0512  0.1182 -0.4696
83982SOL    HW169556  11.916  10.520   9.407  1.3880 -1.0608 -0.2783
83982SOL    HW269557  11.822  10.472   9.299 -0.1712  0.3372  0.4234
83983SOL     OW69558   7.737  12.985   3.881  0.1608  0.1597 -0.1828
83983SOL    HW169559   7.742  12.963   3.788  0.4115 -0.4808 -0.0240
83983SOL    HW269560   7.667  13.050   3.886 -0.9881 -0.9924 -0.6128
83984SOL     OW69561   7.375   9.223   5.178 -0.3673  0.6120 -0.2102
83984SOL    HW169562   7.435   9.190   5.244  0.1198 -0.0728 -0.9819
83984SOL    HW269563   7.424   9.219   5.096 -2.2145 -2.4055 -1.3475
83985SOL     OW69564  13.389  11.467  10.808  0.2560 -0.5890 -0.4658
83985SOL    HW169565  13.299  11.434  10.809 -0.0828  0.3227  0.3157
83985SOL    HW269566  13.382  11.557  10.840  1.6397 -0.9951  1.0916
83986SOL     OW69567   7.862   4.119  13.710  0.3207  0.8246  0.2859
83986SOL    HW169568   7.807   4.168  13.648  0.6384  0.4675 -0.2869
83986SOL    HW269569   7.929   4.181  13.736  1.1250  0.5224 -0.9604
83987SOL     OW69570   2.439  11.059   4.875  0.5354  0.3402 -0.2577
83987SOL    HW169571   2.531  11.051   4.850  0.3780 -3.2390 -0.1307
83987SOL    HW269572   2.390  11.049   4.794  0.2342 -0.9533  0.0644
83988SOL     OW69573  11.840   1.299   8.882 -0.1237 -0.1105  0.5781
83988SOL    HW169574  11.821   1.357   8.809 -0.4084  0.2585  0.9389
83988SOL    HW269575  11.925   1.261   8.861 -0.5902 -0.6648 -0.3524
83989SOL     OW69576  10.547   0.479  12.916 -0.0016  0.1400 -0.0673
83989SOL    HW169577  10.459   0.467  12.882  0.5123 -0.6992 -1.1933
83989SOL    HW269578  10.596   0.518  12.844  0.1496  2.4020  1.1578
83990SOL     OW69579   3.328  12.099   2.951  0.0867  0.4285 -0.4700
83990SOL    HW169580   3.381  12.138   3.021  2.6478 -1.0579 -1.4779
83990SOL    HW269581   3.387  12.092   2.876 -1.1527 -2.3872 -1.3258
83991SOL     OW69582   0.564   8.063  13.784  0.3499 -0.6199 -0.0043
83991SOL    HW169583   0.495   8.042  13.847 -0.4508  0.4350 -0.5225
83991SOL    HW269584   0.635   8.100  13.838  0.1478 -0.8311  0.4108
83992SOL     OW69585   9.380   4.255  10.898 -0.3256  0.4030  0.0537
83992SOL    HW169586   9.453   4.204  10.862  0.8872  3.0129 -1.4754
83992SOL    HW269587   9.315   4.189  10.923  2.1208 -2.0030  0.6279
83993SOL     OW69588  11.620   7.106  11.686 -0.6996 -0.2200  0.0014
83993SOL    HW169589  11.664   7.027  11.720 -0.8126 -0.6289 -0.7883
83993SOL    HW269590  11.614   7.091  11.592 -2.2818 -0.0378  0.0574
83994SOL     OW69591   2.760   1.941   1.310 -0.3484 -0.1595  0.6419
83994SOL    HW169592   2.806   1.858   1.302 -1.3069 -0.6111 -0.4493
83994SOL    HW269593   2.694   1.940   1.240  0.1077  1.8486  0.0989
83995SOL     OW69594   4.192   2.656  10.110  0.0073  0.8783  0.1895
83995SOL    HW169595   4.248   2.617  10.177 -0.6712  1.5767  1.1850
83995SOL    HW269596   4.130   2.710  10.159 -2.1076 -0.5221 -0.7911
83996SOL     OW69597   4.655  12.849  12.491  0.1752  0.4740  0.4491
83996SOL    HW169598   4.659  12.925  12.433  2.3552  0.1242  0.0692
83996SOL    HW269599   4.642  12.774  12.432  0.6935  0.2821  0.5809
83997SOL     OW69600   7.392   2.222  10.668  0.2043 -0.0522  0.4236
83997SOL    HW169601   7.310   2.269  10.650 -0.5346 -1.3954  0.1135
83997SOL    HW269602   7.384   2.193  10.759  0.1241 -0.5701  0.2551
83998SOL     OW69603   3.126   3.947   9.859 -0.4707 -0.5869  0.1201
83998SOL    HW169604   3.101   3.873   9.804  0.5066 -0.1056 -1.0121
83998SOL    HW269605   3.043   3.986   9.886 -0.9783 -1.3057 -0.3672
83999SOL     OW69606   7.008   0.621   9.754  0.1479  0.2175 -0.1412
83999SOL    HW169607   6.976   0.707   9.779 -0.0836  0.3178 -0.7613
83999SOL    HW269608   6.951   0.594   9.683  0.5036 -0.2527 -0.2533
84000SOL     OW69609   8.693   2.347   6.690 -0.1207 -0.6499  0.3262
84000SOL    HW169610   8.700   2.274   6.629 -0.1947 -1.0685  0.8145
84000SOL    HW269611   8.647   2.415   6.640  0.9491 -0.5058 -0.5090
84001SOL     OW69612   7.942  12.393   0.532 -0.3306 -1.0042 -0.3843
84001SOL    HW169613   7.852  12.426   0.528  0.9459  2.9230 -1.1202
84001SOL    HW269614   7.960  12.385   0.626 -1.9342 -3.7724 -0.2093
84002SOL     OW69615   0.953   5.564   4.720 -0.2294  0.5828  0.2514
84002SOL    HW169616   0.917   5.490   4.670  1.1113  0.1113 -0.0754
84002SOL    HW269617   1.030   5.527   4.764 -0.3456  1.4524  1.2004
84003SOL     OW69618   8.689   4.812   3.341 -0.0250  0.4353  0.0747
84003SOL    HW169619   8.739   4.766   3.409 -1.0177 -1.5277 -0.4745
84003SOL    HW269620   8.756   4.860   3.291  0.8104  1.2391  1.8699
84004SOL     OW69621  10.125   4.160   7.731  0.3393  0.2377  0.2977
84004SOL    HW169622  10.066   4.084   7.726 -1.3476  1.5542 -1.3386
84004SOL    HW269623  10.169   4.161   7.647 -0.2059  1.4568  0.0058
84005SOL     OW69624   6.260  10.002   3.579  0.0071 -0.5342  0.4216
84005SOL    HW169625   6.270  10.097   3.576 -1.8859 -0.2442  1.2540
84005SOL    HW269626   6.193   9.988   3.647 -0.3217 -2.4066 -0.2371
84006SOL     OW69627   2.895   9.685   4.557  0.1884 -0.3746  0.7160
84006SOL    HW169628   2.892   9.760   4.498  1.1729 -0.9107 -0.0341
84006SOL    HW269629   2.919   9.723   4.642  2.8150 -0.0406 -0.1004
84007SOL     OW69630  11.294   4.606   1.558 -0.6770  0.0096 -0.4878
84007SOL    HW169631  11.365   4.651   1.512 -0.7188  0.0358 -0.5268
84007SOL    HW269632  11.291   4.519   1.519  1.5003 -1.1661  1.6893
84008SOL     OW69633  12.275  12.055   3.652 -0.0783  0.6288 -0.5667
84008SOL    HW169634  12.324  12.061   3.570  0.8456  3.3974  0.0583
84008SOL    HW269635  12.342  12.056   3.720 -0.8491 -1.1005  0.2682
84009SOL     OW69636   4.191   5.928   6.935 -0.2683 -0.2120 -0.2320
84009SOL    HW169637   4.102   5.907   6.963 -0.6796  0.8796 -0.6664
84009SOL    HW269638   4.233   5.843   6.923 -1.6762 -0.7930 -1.3455
84010SOL     OW69639  10.020   3.332   8.910  0.2069 -0.4960  0.1446
84010SOL    HW169640   9.938   3.356   8.953 -0.8329  0.1018 -1.9944
84010SOL    HW269641  10.023   3.388   8.832  0.7679 -3.0406 -1.8172
84011SOL     OW69642   3.140   6.126  10.137  0.4144  0.2640  0.3108
84011SOL    HW169643   3.231   6.102  10.119  0.1163 -0.5156 -0.2083
84011SOL    HW269644   3.095   6.110  10.054 -0.8601 -2.6387  1.4358
84012SOL     OW69645   1.567   1.250   8.589 -0.3623  0.0417 -0.4935
84012SOL    HW169646   1.544   1.260   8.682  2.5758 -1.4037  0.5064
84012SOL    HW269647   1.657   1.281   8.583 -0.7139  0.7843 -3.0749
84013SOL     OW69648   9.638   3.746   4.402  0.0948 -0.5432  0.1290
84013SOL    HW169649   9.587   3.690   4.460 -0.7635 -1.9388 -1.8656
84013SOL    HW269650   9.725   3.706   4.400 -0.6220 -2.1603 -1.6003
84014SOL     OW69651   4.207   0.552   0.873 -0.3250 -0.0277 -0.4010
84014SOL    HW169652   4.149   0.624   0.847 -2.0697 -1.0356  0.5795
84014SOL    HW269653   4.271   0.594   0.931  0.3730  1.2079 -1.9533
84015SOL     OW69654  10.549   2.037   6.555 -0.1441 -0.6327 -0.4889
84015SOL    HW169655  10.591   1.953   6.575 -0.9388 -0.7772  0.6737
84015SOL    HW269656  10.551   2.086   6.637 -1.9725 -0.5542 -0.4370
84016SOL     OW69657   2.215  13.525   3.971 -0.4376 -0.0599 -0.3907
84016SOL    HW169658   2.154  13.540   3.899  0.0751 -1.3247 -1.1114
84016SOL    HW269659   2.169  13.466   4.030  0.2255 -1.3997 -1.1699
84017SOL     OW69660   1.027   2.088   8.808  0.3000  0.5170 -0.2067
84017SOL    HW169661   1.024   2.173   8.764 -3.2957  1.0392  0.7803
84017SOL    HW269662   0.999   2.025   8.741 -3.0375  1.0304  0.5481
84018SOL     OW69663   0.216   2.962   3.193 -0.7933 -0.5241  0.6689
84018SOL    HW169664   0.229   2.909   3.272 -0.6272 -0.0170  0.9873
84018SOL    HW269665   0.288   3.025   3.195 -2.2087  1.1414  1.4583
84019SOL     OW69666  13.981   0.605   1.463  0.6754 -0.0273 -0.2278
84019SOL    HW169667  13.922   0.673   1.432  1.7542  1.1863  0.3041
84019SOL    HW269668  13.981   0.614   1.558  1.8309  0.1026 -0.2269
84020SOL     OW69669   7.427  13.549   3.451  0.7530  0.2971  0.2394
84020SOL    HW169670   7.523  13.556   3.451  0.6843  1.5676 -0.9885
84020SOL    HW269671   7.402  13.565   3.360 -0.4870 -2.6922 -0.0672
84021SOL     OW69672   7.864   3.035   2.936  0.0612  0.0641 -0.6999
84021SOL    HW169673   7.924   2.970   2.973  0.4095 -0.2245 -1.7421
84021SOL    HW269674   7.913   3.117   2.940 -0.0351  0.0977 -0.2061
84022SOL     OW69675   6.399   6.471   3.817 -0.0676  0.0208  0.2898
84022SOL    HW169676   6.324   6.527   3.840  0.2981  1.3900 -1.6219
84022SOL    HW269677   6.456   6.474   3.894 -0.3102  1.8775  0.4387
84023SOL     OW69678   1.901  13.390   2.778  0.1690  0.0137  0.3232
84023SOL    HW169679   1.948  13.448   2.719 -1.0268  0.6778 -0.0100
84023SOL    HW269680   1.937  13.409   2.865  1.0403 -0.0541 -0.0136
84024SOL     OW69681   7.522   6.727   5.737  0.3570  0.6181  0.1689
84024SOL    HW169682   7.543   6.640   5.705  1.6450  1.0476 -0.1868
84024SOL    HW269683   7.565   6.733   5.822 -2.1034 -0.1035  1.5764
84025SOL     OW69684   6.890   8.413   2.422 -0.0164 -0.6640 -0.2202
84025SOL    HW169685   6.844   8.333   2.447 -0.9862  0.2760  1.1342
84025SOL    HW269686   6.834   8.454   2.356 -1.1363  0.4273  1.3517
84026SOL     OW69687  13.922   7.637   1.330 -0.1063 -0.2925  0.2145
84026SOL    HW169688  13.986   7.707   1.340  0.9090 -1.4583  2.4966
84026SOL    HW269689  13.850   7.662   1.387 -0.0413 -0.7551  0.5059
84027SOL     OW69690   8.958  13.908   0.594 -0.3320  0.0016 -0.2539
84027SOL    HW169691   8.970  13.942   0.506  0.4928 -0.6448 -0.4091
84027SOL    HW269692   8.936  13.985   0.647  0.8611  0.6897 -0.7089
84028SOL     OW69693   0.443  10.802   0.798  0.4623 -0.3462  0.2533
84028SOL    HW169694   0.459  10.751   0.719  3.0150 -0.1846  0.5851
84028SOL    HW269695   0.520  10.859   0.806 -1.1830  1.9280  1.1594
84029SOL     OW69696  11.692  11.583   9.963 -0.1403  0.1530  0.0177
84029SOL    HW169697  11.662  11.614  10.048  1.3642  0.1612  0.5832
84029SOL    HW269698  11.721  11.662   9.917  0.0377  0.0321 -0.0789
84030SOL     OW69699  12.714  10.532  13.891 -0.0179 -0.0538  0.2677
84030SOL    HW169700  12.740  10.552  13.801 -1.5779 -1.4214 -0.5410
84030SOL    HW269701  12.651  10.601  13.913  0.2562  0.2019  0.2525
84031SOL     OW69702   5.977   7.413   0.756  0.2918 -0.1205 -0.2153
84031SOL    HW169703   6.040   7.352   0.717  0.5198 -0.5138  0.7322
84031SOL    HW269704   6.011   7.500   0.736 -0.2890 -0.2795 -2.0002
84032SOL     OW69705   9.642  11.960   3.369  0.2888 -0.2682 -0.0759
84032SOL    HW169706   9.591  11.974   3.289  1.2149  1.2312 -0.4496
84032SOL    HW269707   9.713  11.902   3.341  1.1698  1.0207 -0.6342
84033SOL     OW69708   6.236  11.318   6.102 -0.0956 -0.4418 -0.3611
84033SOL    HW169709   6.160  11.261   6.092 -0.7652  0.4890 -0.7089
84033SOL    HW269710   6.199  11.402   6.129  0.9640 -0.5072  1.5236
84034SOL     OW69711  10.177  11.155   7.640 -0.2569  0.2764  0.5467
84034SOL    HW169712  10.082  11.158   7.649 -0.1814 -0.3900  2.0274
84034SOL    HW269713  10.209  11.164   7.730  1.1961  3.1667 -0.1391
84035SOL     OW69714   2.803   5.535   3.993 -0.6183 -0.1946  0.4967
84035SOL    HW169715   2.841   5.488   3.919  1.6130 -1.3737  2.2760
84035SOL    HW269716   2.752   5.469   4.040 -1.9427  0.5273  0.1489
84036SOL     OW69717  13.960   7.578  11.290 -0.2897  0.0781 -0.4567
84036SOL    HW169718  14.019   7.510  11.258 -0.2472 -0.6574  1.0757
84036SOL    HW269719  13.966   7.648  11.225 -2.6305 -2.4808 -3.7463
84037SOL     OW69720   7.922   2.165  11.258 -0.7035 -0.3757 -0.0627
84037SOL    HW169721   7.963   2.100  11.315  0.3621 -0.9464 -1.4252
84037SOL    HW269722   7.850   2.118  11.216  0.2961 -0.8085 -1.3262
84038SOL     OW69723   8.790   3.650  13.718  0.1884  0.1118 -0.3984
84038SOL    HW169724   8.780   3.579  13.782 -1.1904 -0.3558 -1.0961
84038SOL    HW269725   8.824   3.607  13.640 -1.9956 -0.1243 -1.3092
84039SOL     OW69726  13.991   0.417   7.109 -0.5423  0.1176  0.5334
84039SOL    HW169727  14.009   0.359   7.182  0.4560  1.3162  1.2921
84039SOL    HW269728  13.926   0.371   7.056 -0.7132 -1.1062  1.7632
84040SOL     OW69729   1.008  13.137   5.149 -0.1270  0.3870 -0.1577
84040SOL    HW169730   1.103  13.130   5.136 -0.2590  1.1925 -1.7956
84040SOL    HW269731   0.974  13.161   5.063 -1.7360  0.9836  0.6137
84041SOL     OW69732  10.096   9.825  13.438  0.0866  0.0737 -0.1852
84041SOL    HW169733  10.115   9.820  13.344  0.5543  0.5685 -0.1218
84041SOL    HW269734  10.091   9.919  13.456 -3.8715  0.0809 -0.4817
84042SOL     OW69735   8.905  11.700   2.287  0.0314 -0.0822 -0.0096
84042SOL    HW169736   8.872  11.739   2.368  0.0348 -1.1666  0.5339
84042SOL    HW269737   8.952  11.622   2.316  0.1586 -0.4071 -1.0528
84043SOL     OW69738   0.386   7.663   3.793  0.1008 -0.1811 -0.0983
84043SOL    HW169739   0.376   7.696   3.882 -0.7733 -0.0260 -0.2454
84043SOL    HW269740   0.468   7.614   3.794 -0.1379 -0.5769  0.9142
84044SOL     OW69741   1.424  12.875   0.123  0.4411  0.0017  0.4887
84044SOL    HW169742   1.418  12.882   0.028  0.7954  2.2446  0.5813
84044SOL    HW269743   1.427  12.965   0.154  1.0067 -0.6771  2.6017
84045SOL     OW69744   9.658   4.829  10.962  0.1288  0.5104  0.0351
84045SOL    HW169745   9.648   4.763  10.893 -0.7290 -0.3493  0.9487
84045SOL    HW269746   9.569   4.862  10.976  0.3678  0.9888  0.4224
84046SOL     OW69747   3.903   1.035   1.402  0.0323 -1.1345  0.0080
84046SOL    HW169748   3.825   1.019   1.348 -1.2170 -0.8032  1.6356
84046SOL    HW269749   3.889   0.980   1.479  0.2449  0.7092  1.4049
84047SOL     OW69750   1.474  10.977   9.834  0.4075  0.3458 -0.1212
84047SOL    HW169751   1.516  11.054   9.794 -0.2772  0.3227 -0.9183
84047SOL    HW269752   1.547  10.924   9.866  0.9750  0.5032 -1.1061
84048SOL     OW69753  10.720  10.995   0.490 -0.1127  0.1481 -0.0580
84048SOL    HW169754  10.690  10.906   0.474  1.1373 -0.2337 -0.3904
84048SOL    HW269755  10.662  11.050   0.436 -0.7361 -0.4724 -0.0360
84049SOL     OW69756   5.970  13.292   7.378  0.2745  0.5940 -0.2462
84049SOL    HW169757   5.879  13.289   7.348  0.2296 -0.9132  0.0020
84049SOL    HW269758   6.021  13.307   7.298 -0.1934  1.7559 -0.3474
84050SOL     OW69759   5.273   1.354   1.631  0.3004 -0.2501 -0.2485
84050SOL    HW169760   5.195   1.333   1.580  0.0469 -1.5724  0.6269
84050SOL    HW269761   5.241   1.363   1.721  1.0283  0.0884 -0.0164
84051SOL     OW69762  13.854  13.811   2.277  0.1377 -0.9151  0.0358
84051SOL    HW169763  13.926  13.872   2.293 -0.0743 -0.7898  0.5352
84051SOL    HW269764  13.896  13.725   2.274  0.3628 -0.8039 -0.1116
84052SOL     OW69765   4.593   5.306   6.278  0.1989 -0.4056 -0.0715
84052SOL    HW169766   4.552   5.392   6.288  0.9003  0.2632 -2.3443
84052SOL    HW269767   4.685   5.322   6.300  0.2999 -0.5980 -0.3557
84053SOL     OW69768   3.161   1.300  12.231  0.1734  0.3272  0.0348
84053SOL    HW169769   3.134   1.231  12.171  1.6769 -1.1822  0.9923
84053SOL    HW269770   3.241   1.267  12.272  1.2597  2.8666  0.1805
84054SOL     OW69771   8.566  11.737   0.447  0.2692 -0.2741  0.0262
84054SOL    HW169772   8.601  11.767   0.364  0.1478  0.3970  0.2142
84054SOL    HW269773   8.638  11.688   0.488  0.7465  0.4619  0.0844
84055SOL     OW69774  12.317   2.928   7.404 -0.0948 -0.0504  0.0744
84055SOL    HW169775  12.380   2.859   7.423 -1.0327 -1.4024 -1.4568
84055SOL    HW269776  12.360   2.983   7.338 -0.0262 -0.2099 -0.0125
84056SOL     OW69777   8.055   0.793  12.411 -0.1660 -0.2024 -0.8862
84056SOL    HW169778   8.072   0.734  12.484  0.8976  0.1999 -0.7941
84056SOL    HW269779   8.064   0.881  12.447 -0.6508  0.0170 -1.2772
84057SOL     OW69780  12.379   5.181  13.255  0.8051 -0.1131  0.2680
84057SOL    HW169781  12.350   5.251  13.196  0.1261 -1.0902 -0.5915
84057SOL    HW269782  12.373   5.220  13.342 -0.9291  0.4720 -0.0686
84058SOL     OW69783  10.985   2.875   4.928  0.2536  0.0377 -0.5771
84058SOL    HW169784  10.967   2.799   4.983 -1.9115  2.0781  1.7978
84058SOL    HW269785  11.029   2.937   4.987  0.4301  1.2648 -1.9582
84059SOL     OW69786   3.907   5.254  11.146 -0.0973 -0.0435  0.0938
84059SOL    HW169787   3.951   5.182  11.191 -1.6633 -1.6727 -0.8079
84059SOL    HW269788   3.978   5.310  11.115  1.1423 -0.6695  1.6526
84060SOL     OW69789   2.336   3.308   2.958 -0.3694  0.2439 -0.6763
84060SOL    HW169790   2.302   3.373   3.019  0.3600  1.3598 -1.4274
84060SOL    HW269791   2.354   3.357   2.878 -0.2749 -0.9810 -1.4256
84061SOL     OW69792  10.860   2.195   9.139  0.2147 -0.3580 -0.4587
84061SOL    HW169793  10.888   2.131   9.205  1.6855  1.3691  0.6890
84061SOL    HW269794  10.770   2.216   9.163  0.5532 -0.1618  0.7003
84062SOL     OW69795   3.689   7.055   1.542  0.3185 -0.0927 -0.2933
84062SOL    HW169796   3.780   7.061   1.570  0.1250 -0.6728  0.4757
84062SOL    HW269797   3.686   6.979   1.484  0.1378 -0.6269  0.4175
84063SOL     OW69798   7.493   3.032  11.651 -0.2703  0.1316  0.3625
84063SOL    HW169799   7.508   3.120  11.685  1.1981 -0.1667  0.5926
84063SOL    HW269800   7.435   3.044  11.576  2.7762  1.8342 -1.9619
84064SOL     OW69801   5.242  10.658   3.705 -0.0138  0.4939 -0.0295
84064SOL    HW169802   5.177  10.708   3.655  1.0889  0.9165 -1.0840
84064SOL    HW269803   5.218  10.566   3.690  0.0654  0.6250 -1.0362
84065SOL     OW69804   1.146  12.793   2.383  0.1313  0.7104 -0.4016
84065SOL    HW169805   1.147  12.716   2.440  1.0189  1.7081  0.9966
84065SOL    HW269806   1.087  12.854   2.426  0.9984  1.5729 -0.3928
84066SOL     OW69807  11.064  10.453  11.360 -1.4289 -0.0463  0.4003
84066SOL    HW169808  10.992  10.514  11.347 -1.1830  0.1140 -0.2211
84066SOL    HW269809  11.143  10.507  11.356 -1.2494 -0.2780  0.7061
84067SOL     OW69810   3.875  11.273  10.295  0.4685 -0.1625  0.6090
84067SOL    HW169811   3.903  11.269  10.386  1.2533 -0.9410  0.3496
84067SOL    HW269812   3.945  11.320  10.250  0.0630  0.2587  0.4160
84068SOL     OW69813   3.047  11.949  11.716  0.6681 -0.0848  0.1009
84068SOL    HW169814   2.964  11.921  11.677  0.0878  1.3113  0.2953
84068SOL    HW269815   3.083  11.868  11.753  0.8156 -1.3004 -2.4589
84069SOL     OW69816   5.855  11.949   4.324 -0.2870 -0.0122  0.0455
84069SOL    HW169817   5.937  11.900   4.325  0.1039  0.6319  0.6989
84069SOL    HW269818   5.880  12.035   4.288 -1.2358 -0.7341 -2.5401
84070SOL     OW69819  11.821  13.382   8.585 -0.3378 -0.3878  0.3280
84070SOL    HW169820  11.785  13.302   8.547 -1.3060  0.6438 -1.0449
84070SOL    HW269821  11.752  13.415   8.642  0.0566 -0.5209  0.8881
84071SOL     OW69822  11.026   5.817   1.534 -0.2621 -0.4212 -0.3039
84071SOL    HW169823  11.057   5.743   1.586  2.1200  1.0419  0.4970
84071SOL    HW269824  10.990   5.878   1.598 -1.4466 -0.4954 -0.8729
84072SOL     OW69825   9.089   0.214  10.398  0.9693 -0.5547 -0.2450
84072SOL    HW169826   8.993   0.207  10.400  0.7860  1.3970  0.2441
84072SOL    HW269827   9.118   0.163  10.474  0.0896  0.9579  1.1817
84073SOL     OW69828   3.107  10.908   2.483  0.0143  0.0495 -0.0922
84073SOL    HW169829   3.087  10.858   2.562  1.4234 -0.9173 -0.3064
84073SOL    HW269830   3.133  10.995   2.514 -1.0706  0.2185  0.3758
84074SOL     OW69831   9.093   5.085   0.933  0.4350 -0.0206 -0.6649
84074SOL    HW169832   9.011   5.063   0.889  0.7256 -0.3337 -1.0503
84074SOL    HW269833   9.084   5.178   0.954  0.0507 -0.0117 -0.8592
84075SOL     OW69834   0.783  10.892   0.032  0.0985  0.4363  0.3956
84075SOL    HW169835   0.763  10.902   0.125  0.5477 -0.6757  0.6284
84075SOL    HW269836   0.716  10.831  -0.000  0.4038  0.2175  0.1724
84076SOL     OW69837   1.682  12.662  10.874 -0.4420  0.7091  0.5404
84076SOL    HW169838   1.618  12.729  10.895  0.1582  1.3232  0.4317
84076SOL    HW269839   1.643  12.613  10.801 -1.5086  0.0185  1.5275
84077SOL     OW69840   0.473   5.025   1.538 -0.1442 -0.1264 -0.3032
84077SOL    HW169841   0.422   5.095   1.579  0.2723  1.1574 -1.8518
84077SOL    HW269842   0.412   4.983   1.478  0.0812  0.1654 -0.7496
84078SOL     OW69843   4.095   4.679   7.695 -0.0359 -0.1657  0.3217
84078SOL    HW169844   4.137   4.743   7.753  1.9870 -1.9896  0.9719
84078SOL    HW269845   4.026   4.641   7.749  0.2016 -0.1000  0.6780
84079SOL     OW69846   0.822   9.165   3.179 -0.0988  0.1965 -0.4384
84079SOL    HW169847   0.848   9.168   3.087  2.3358 -1.6103  0.0880
84079SOL    HW269848   0.745   9.109   3.180  0.4481 -0.6103 -1.2931
84080SOL     OW69849   3.250   5.287   1.670 -0.5236  0.2857 -0.0865
84080SOL    HW169850   3.235   5.381   1.664 -0.9831  0.1073 -3.0798
84080SOL    HW269851   3.162   5.249   1.676 -0.3076  0.0228  2.6161
84081SOL     OW69852  14.086   9.110   3.114  0.3176 -0.1176  0.0896
84081SOL    HW169853  14.073   9.022   3.079  3.6699 -0.4716 -0.6392
84081SOL    HW269854  14.019   9.163   3.071 -1.9326 -2.2665  0.6938
84082SOL     OW69855   9.993   1.975  13.962  0.2506  0.1037 -0.0905
84082SOL    HW169856   9.996   2.044  14.029  2.0660 -0.4053  0.4267
84082SOL    HW269857   9.958   1.899  14.007 -0.2604  0.2500 -0.2337
84083SOL     OW69858   3.973   7.348   9.742 -0.2799  0.6382  0.6014
84083SOL    HW169859   4.047   7.399   9.776 -1.1129  1.1816  1.6522
84083SOL    HW269860   3.897   7.405   9.755 -0.8929  0.1181 -0.5239
84084SOL     OW69861  13.188   9.539  12.751  0.0364 -0.3959  0.2335
84084SOL    HW169862  13.213   9.524  12.842  0.7853  1.3115  0.3455
84084SOL    HW269863  13.181   9.635  12.744 -1.8477 -0.5819 -1.0259
84085SOL     OW69864   4.525   5.245   4.486 -0.1647  0.5931  0.0164
84085SOL    HW169865   4.509   5.151   4.487 -0.3761  0.6208 -0.4141
84085SOL    HW269866   4.438   5.284   4.488 -0.0798  0.7788  0.0919
84086SOL     OW69867   0.064  10.991   9.640  0.2664 -0.1726  0.7394
84086SOL    HW169868   0.126  11.064   9.646  0.4412 -0.2723  0.2214
84086SOL    HW269869   0.040  10.972   9.731 -0.0057  0.7190  0.8663
84087SOL     OW69870   5.892  10.171  13.477  0.0283  0.1783  0.2791
84087SOL    HW169871   5.970  10.178  13.422  0.2408  0.0432  0.5597
84087SOL    HW269872   5.915  10.106  13.544 -0.4974 -0.2232  0.0771
84088SOL     OW69873   7.094  11.767   5.548  0.2551  0.0213  0.0821
84088SOL    HW169874   7.141  11.822   5.610 -0.9543  0.1452  0.9333
84088SOL    HW269875   7.161  11.710   5.510  1.3901  1.4563 -0.1780
84089SOL     OW69876   7.163   2.131   2.194  0.1716 -0.4128  0.3646
84089SOL    HW169877   7.070   2.109   2.192 -0.5620  2.3011  0.7631
84089SOL    HW269878   7.180   2.171   2.109  1.5493 -2.7244 -0.5199
84090SOL     OW69879   7.727   0.045   4.648  0.3758  0.3402 -0.1990
84090SOL    HW169880   7.814   0.035   4.611 -0.6485 -1.8128 -2.2615
84090SOL    HW269881   7.669   0.053   4.572 -1.6387 -2.4709  0.8822
84091SOL     OW69882  13.083   4.325  12.080 -0.7022  0.2619  0.5060
84091SOL    HW169883  13.028   4.367  12.146 -2.2067 -0.2847 -0.3369
84091SOL    HW269884  13.038   4.341  11.997  0.2875 -0.4263 -0.1985
84092SOL     OW69885   2.863   4.148   9.136  0.0939 -0.5225  0.2324
84092SOL    HW169886   2.943   4.101   9.159  1.1568  0.6449 -0.8838
84092SOL    HW269887   2.813   4.086   9.083  0.8143 -0.8689 -0.0579
84093SOL     OW69888   3.067  10.684  13.883  0.4065  0.0633  0.2425
84093SOL    HW169889   3.020  10.625  13.824  1.3549  1.1872 -1.7453
84093SOL    HW269890   3.006  10.699  13.955 -0.8819 -1.2639 -0.5037
84094SOL     OW69891  14.073   6.328  12.082  0.0661  0.4691  0.0428
84094SOL    HW169892  14.072   6.265  12.010 -0.0463  0.2873  0.2045
84094SOL    HW269893  14.003   6.299  12.140 -0.1033  0.8476  0.0273
84095SOL     OW69894   1.610   4.096   3.081 -0.5324 -0.2239 -0.7620
84095SOL    HW169895   1.564   4.093   3.164  0.2297 -0.5760 -0.3450
84095SOL    HW269896   1.659   4.179   3.084 -0.4996 -0.2392 -0.8598
84096SOL     OW69897   0.516   2.777   5.233  0.4055  0.2090  0.3026
84096SOL    HW169898   0.424   2.761   5.255  0.5261 -0.4986  0.3334
84096SOL    HW269899   0.560   2.786   5.317  0.3016  0.9334  0.2807
84097SOL     OW69900   3.934   2.112   3.536 -0.5401  0.6346  1.2191
84097SOL    HW169901   3.878   2.120   3.612 -0.0864 -1.1555  1.7745
84097SOL    HW269902   3.886   2.055   3.476  0.8975 -1.5035  1.9897
84098SOL     OW69903  12.051   8.459   6.177 -0.6469 -0.0288 -0.2694
84098SOL    HW169904  12.011   8.459   6.264 -1.1400 -0.4547 -0.4878
84098SOL    HW269905  12.083   8.548   6.165  0.0524 -0.1360  0.6264
84099SOL     OW69906   5.857   0.170  12.415  0.1952 -0.4564 -0.1729
84099SOL    HW169907   5.859   0.264  12.398  0.5486 -0.4054  0.1310
84099SOL    HW269908   5.871   0.130  12.329 -0.3494 -0.2412 -0.3680
84100SOL     OW69909   5.876   8.888   1.936  0.0947  0.6661 -0.3636
84100SOL    HW169910   5.795   8.897   1.987  1.6068  1.1964  2.1032
84100SOL    HW269911   5.900   8.977   1.912  0.4432  0.5881 -0.3061
84101SOL     OW69912  10.349   9.605   1.812 -0.2849  0.0106 -0.1251
84101SOL    HW169913  10.261   9.631   1.784 -0.3981  0.4051  0.5792
84101SOL    HW269914  10.406   9.630   1.739 -0.6230  0.6694 -0.1656
84102SOL     OW69915   8.873   8.483   4.832  0.3566  0.2861 -0.2119
84102SOL    HW169916   8.946   8.476   4.894 -0.3850 -0.3620  0.6121
84102SOL    HW269917   8.910   8.456   4.749  0.8594 -0.8973  0.3728
84103SOL     OW69918  10.674   8.906   1.199  0.0591 -0.3950 -0.0983
84103SOL    HW169919  10.636   8.877   1.282 -0.2277  0.0595 -0.0672
84103SOL    HW269920  10.754   8.952   1.224  0.2849 -0.7694 -0.1186
84104SOL     OW69921   9.091  13.224  11.118  0.4279 -0.1868 -0.3335
84104SOL    HW169922   9.157  13.260  11.058  1.3078  2.7890  2.1751
84104SOL    HW269923   9.141  13.162  11.172  0.9349  1.0517  0.6717
84105SOL     OW69924   2.698   8.157  13.937 -0.1588 -0.1727 -0.1462
84105SOL    HW169925   2.772   8.184  13.991  0.6838 -0.4702 -1.1169
84105SOL    HW269926   2.719   8.191  13.850 -0.7385 -1.0195 -0.6281
84106SOL     OW69927   5.287  13.868  12.427 -0.3549 -0.1082 -0.3456
84106SOL    HW169928   5.216  13.926  12.398  0.5328  0.8935 -0.5717
84106SOL    HW269929   5.340  13.855  12.349 -0.9100 -1.8127 -0.4691
84107SOL     OW69930  12.762   6.091  12.110  0.7079 -0.0291  0.0895
84107SOL    HW169931  12.699   6.163  12.100 -0.0476 -0.8166 -0.9569
84107SOL    HW269932  12.709   6.016  12.137  0.6879 -1.4003 -3.2882
84108SOL     OW69933   6.988  13.570   6.438 -0.4071 -0.7270  0.3139
84108SOL    HW169934   6.938  13.626   6.379  0.2366  0.2905  0.7133
84108SOL    HW269935   6.941  13.486   6.437 -1.7888  0.0265  0.2527
84109SOL     OW69936   1.682   0.810   7.924 -0.1347 -0.1382  0.1570
84109SOL    HW169937   1.720   0.794   7.838 -2.4154  1.4215 -1.2468
84109SOL    HW269938   1.675   0.906   7.930 -0.6140 -0.2431  1.8086
84110SOL     OW69939  12.906  12.872   6.520  0.1620  0.4228 -0.2438
84110SOL    HW169940  12.880  12.850   6.431 -0.5231  2.2807 -0.5551
84110SOL    HW269941  12.996  12.841   6.527  0.4995  0.9225 -1.8688
84111SOL     OW69942   3.979   9.555   7.507  0.5774  0.0555  0.3334
84111SOL    HW169943   3.908   9.557   7.571  0.3741  0.8116  0.0868
84111SOL    HW269944   4.022   9.640   7.516  1.6201 -0.4844  0.6656
84112SOL     OW69945   6.704   2.390  10.404  0.4851  0.5057 -0.3328
84112SOL    HW169946   6.656   2.463  10.364  1.3807 -0.2899 -3.0956
84112SOL    HW269947   6.684   2.397  10.497  0.9074  4.5618 -0.3528
84113SOL     OW69948   8.613  13.052  13.077 -0.2921 -0.1189  0.0722
84113SOL    HW169949   8.573  13.127  13.121 -2.3228  0.5581 -2.6565
84113SOL    HW269950   8.557  12.978  13.101 -0.4972 -0.0293 -0.1192
84114SOL     OW69951  13.771   3.610   1.720 -0.0750 -0.4331 -0.9613
84114SOL    HW169952  13.699   3.669   1.741  1.1186  0.8638 -0.2464
84114SOL    HW269953  13.810   3.589   1.805  0.5235 -0.9033 -1.3462
84115SOL     OW69954   7.435   3.657  12.843  0.0875 -0.0402 -0.8307
84115SOL    HW169955   7.356   3.710  12.833 -0.1155 -0.1821 -0.1110
84115SOL    HW269956   7.461   3.671  12.934  1.4811  0.7850 -1.3338
84116SOL     OW69957   6.101  11.868  13.814  0.2613 -0.0469  1.0366
84116SOL    HW169958   6.112  11.963  13.815 -2.8147  0.4299  1.2090
84116SOL    HW269959   6.152  11.837  13.888 -0.8286  1.8324  2.6731
84117SOL     OW69960   2.131   5.391  12.485 -0.6404  0.0788 -0.7612
84117SOL    HW169961   2.140   5.297  12.470 -1.2569 -0.4973  1.8196
84117SOL    HW269962   2.045   5.413  12.450 -0.9501 -0.5901 -0.4522
84118SOL     OW69963   5.051  10.054   5.448 -0.5985  0.2988 -0.2378
84118SOL    HW169964   5.117  10.038   5.380 -1.6165  0.4509 -1.3004
84118SOL    HW269965   5.102  10.068   5.528  0.5684 -2.2013 -0.4432
84119SOL     OW69966  11.247   2.687  13.246  0.1641  0.8921 -0.3861
84119SOL    HW169967  11.164   2.691  13.293 -0.0801  0.1738 -0.7410
84119SOL    HW269968  11.223   2.692  13.154  0.3868 -0.5971 -0.5517
84120SOL     OW69969  12.413  10.633   2.384  0.1822  0.5323 -0.2597
84120SOL    HW169970  12.329  10.620   2.426 -0.1627  0.9960 -0.7903
84120SOL    HW269971  12.442  10.544   2.361  0.1123  0.3249  0.4275
84121SOL     OW69972   6.027  13.477   2.587  0.0658  0.2264  0.2395
84121SOL    HW169973   5.933  13.464   2.578 -0.0289 -0.5528  1.9858
84121SOL    HW269974   6.038  13.572   2.584 -0.8800  0.3673  0.7854
84122SOL     OW69975   4.041   1.077  12.290 -0.3268  0.3742 -0.5549
84122SOL    HW169976   3.996   1.152  12.251 -0.2951  1.7633  1.8570
84122SOL    HW269977   3.972   1.031  12.339 -0.3403 -1.2231 -1.9724
84123SOL     OW69978  12.261   5.018  11.160  0.3219  0.7565  0.3815
84123SOL    HW169979  12.284   4.932  11.124 -0.0730  1.0673 -0.6457
84123SOL    HW269980  12.228   5.067  11.085  0.0967  1.6527  1.0548
84124SOL     OW69981   0.036   7.308  13.573  0.1199 -0.3828 -0.0204
84124SOL    HW169982  -0.043   7.361  13.571  0.6323  0.3918 -0.7322
84124SOL    HW269983   0.094   7.353  13.635  0.1351 -0.7444  0.2308
84125SOL     OW69984  12.257   1.951   1.654 -0.2172 -0.2318  0.0060
84125SOL    HW169985  12.337   1.993   1.624 -1.0043  0.0435 -1.8172
84125SOL    HW269986  12.260   1.959   1.750  1.5782  0.3588 -0.0696
84126SOL     OW69987   9.414   3.056   5.363  0.2474  0.2148  0.2555
84126SOL    HW169988   9.333   3.014   5.393  0.5939 -0.9559 -0.3874
84126SOL    HW269989   9.467   3.064   5.442  0.8141 -2.0629  0.1661
84127SOL     OW69990  11.179   3.843   0.958 -0.1039  0.0554 -0.4859
84127SOL    HW169991  11.172   3.938   0.966 -0.1607 -0.0193  0.5028
84127SOL    HW269992  11.254   3.829   0.900  0.2408  0.6967 -0.2024
84128SOL     OW69993  10.874  13.083   2.106 -0.5000  0.1177 -0.2607
84128SOL    HW169994  10.841  13.160   2.058  1.1272  0.8273 -0.3187
84128SOL    HW269995  10.931  13.039   2.043 -1.9165 -1.5324 -0.4336
84129SOL     OW69996   2.192  10.217  10.846 -0.6767 -0.3075  0.4964
84129SOL    HW169997   2.199  10.306  10.879 -0.6475 -0.5539  1.1675
84129SOL    HW269998   2.282  10.188  10.834 -0.6854  0.0504 -0.5687
84130SOL     OW69999   9.845   4.307   6.898  0.2577 -0.6894  0.0427
84130SOL    HW170000   9.752   4.306   6.921 -0.0039  0.2704 -0.9149
84130SOL    HW270001   9.873   4.216   6.908 -0.6772 -0.9201  0.7290
84131SOL     OW70002   2.024   7.356   4.189  0.0139 -0.5687  0.3347
84131SOL    HW170003   2.109   7.311   4.187  0.8403  0.8581  1.5515
84131SOL    HW270004   1.986   7.338   4.103  1.5412 -1.2574 -0.2385
84132SOL     OW70005   1.588   2.915  11.135  0.4326  0.1391 -0.4833
84132SOL    HW170006   1.611   2.972  11.062 -1.4240  0.5441 -0.7977
84132SOL    HW270007   1.572   2.974  11.208  0.4835 -0.1411 -0.2408
84133SOL     OW70008  13.368  12.795  11.853 -0.4949 -0.5531 -0.3675
84133SOL    HW170009  13.366  12.700  11.862  0.9959 -0.5578  0.1699
84133SOL    HW270010  13.296  12.826  11.907 -1.2533 -1.3834 -0.8727
84134SOL     OW70011   7.539  12.203  11.252  0.0941  0.0856  0.0885
84134SOL    HW170012   7.589  12.251  11.318  0.4808 -0.2858  0.0667
84134SOL    HW270013   7.576  12.230  11.168  0.8175 -0.8139  0.1096
84135SOL     OW70014   2.044  10.982   4.434 -0.0838  0.1677 -0.1526
84135SOL    HW170015   2.074  10.920   4.500 -4.0047 -1.8698  0.0243
84135SOL    HW270016   2.028  11.063   4.482  0.0804 -0.3111  0.7217
84136SOL     OW70017   0.540  10.136   5.762 -0.3812  0.3490  0.2569
84136SOL    HW170018   0.448  10.163   5.757 -0.1074  1.2190 -0.2381
84136SOL    HW270019   0.567  10.125   5.671 -0.1579 -0.5223  0.4157
84137SOL     OW70020   9.942  10.392   4.118 -0.4378  0.3341  0.2415
84137SOL    HW170021   9.856  10.360   4.146  0.2257 -0.6930  1.1196
84137SOL    HW270022   9.984  10.317   4.077 -0.1577  0.9862 -0.7303
84138SOL     OW70023  11.314   1.572   5.446 -0.4507 -0.5652 -0.1683
84138SOL    HW170024  11.222   1.549   5.439 -0.3010 -1.5205  0.6780
84138SOL    HW270025  11.341   1.534   5.530  1.0519 -1.4892 -1.0417
84139SOL     OW70026   6.370  11.895  12.454 -0.4682 -0.4785 -0.4368
84139SOL    HW170027   6.320  11.917  12.375 -0.3480 -2.6270 -1.1931
84139SOL    HW270028   6.318  11.828  12.497 -0.1268  0.0907  0.9082
84140SOL     OW70029   0.498   6.494  11.412  0.4512  0.1280 -0.1173
84140SOL    HW170030   0.437   6.432  11.451 -0.1847  1.4704  1.1366
84140SOL    HW270031   0.443   6.566  11.382  0.9930 -0.5133 -2.9759
84141SOL     OW70032   4.114   8.388   1.715  0.3421 -0.0385 -0.2697
84141SOL    HW170033   4.041   8.402   1.654 -0.6033 -0.3049  0.7526
84141SOL    HW270034   4.151   8.475   1.730 -0.2195  0.2033 -0.2638
84142SOL     OW70035   5.750   3.279   4.170  0.0527 -0.5018 -0.3171
84142SOL    HW170036   5.803   3.199   4.167  0.8078 -0.1111  1.4540
84142SOL    HW270037   5.786   3.333   4.099 -0.4879 -1.7024 -1.5514
84143SOL     OW70038   3.455   1.321  11.880 -0.5173 -0.0851  0.2280
84143SOL    HW170039   3.539   1.340  11.838 -0.9213 -0.8952 -0.9790
84143SOL    HW270040   3.396   1.388  11.845 -0.2246  1.0052  1.7050
84144SOL     OW70041   8.394   6.446   2.017  0.0090  0.0527  0.1177
84144SOL    HW170042   8.365   6.494   2.095  0.1978  0.7274 -0.2205
84144SOL    HW270043   8.483   6.418   2.038  0.0037  0.0951  0.2004
84145SOL     OW70044   8.613  10.814  13.340  0.4362 -0.1133  0.4846
84145SOL    HW170045   8.545  10.857  13.288  0.5639  1.2140  1.3643
84145SOL    HW270046   8.641  10.880  13.403  2.0982 -0.8344  0.5741
84146SOL     OW70047   1.500   6.177  12.847 -0.5492 -0.3644  0.3315
84146SOL    HW170048   1.590   6.209  12.845 -0.4873 -0.5369  0.3616
84146SOL    HW270049   1.501   6.108  12.913  0.5984 -4.2304 -3.3412
84147SOL     OW70050   9.477  12.099   6.607  0.1930 -0.6347 -0.4527
84147SOL    HW170051   9.489  12.151   6.528 -0.6990  1.0446  0.4643
84147SOL    HW270052   9.566  12.086   6.641  0.4008  1.0067 -0.2883
84148SOL     OW70053   5.473   7.423   3.037  0.5567 -0.3178  0.0779
84148SOL    HW170054   5.403   7.392   3.094  0.9886  0.5460  1.1217
84148SOL    HW270055   5.481   7.355   2.969 -1.2210 -0.4521 -0.0340
84149SOL     OW70056   1.726   9.237  13.522 -0.2011  0.0014 -0.5831
84149SOL    HW170057   1.785   9.291  13.575 -1.8131  2.2940 -0.9465
84149SOL    HW270058   1.735   9.272  13.433 -1.0650 -0.5319 -0.8947
84150SOL     OW70059   9.735   5.324  11.262  0.6032  0.4893  0.9023
84150SOL    HW170060   9.712   5.246  11.211 -1.2534  1.4300  0.2214
84150SOL    HW270061   9.826   5.310  11.288  1.2876 -0.5150 -1.7887
84151SOL     OW70062   5.221   1.935  10.823  0.4115 -0.2076 -0.5217
84151SOL    HW170063   5.317   1.933  10.829  0.7963  4.5748 -1.2310
84151SOL    HW270064   5.203   1.957  10.732 -1.3450 -0.3916 -0.2571
84152SOL     OW70065  13.623   1.744   5.011 -0.1956  0.3799  0.2821
84152SOL    HW170066  13.619   1.839   4.997  1.0444  0.2372 -1.4497
84152SOL    HW270067  13.693   1.733   5.075  0.5833  0.6037 -0.4990
84153SOL     OW70068   5.527   3.616   5.409  0.3198  0.3002 -0.1970
84153SOL    HW170069   5.482   3.696   5.433  1.7233  0.8320  0.7591
84153SOL    HW270070   5.536   3.567   5.490  0.4926 -0.2892 -0.5617
84154SOL     OW70071   7.047   0.045  10.773  0.3487  0.4285 -0.4451
84154SOL    HW170072   7.117   0.013  10.716  0.1539 -1.0524  0.1006
84154SOL    HW270073   7.082   0.034  10.862 -0.7994 -0.9408 -0.1409
84155SOL     OW70074  11.438   5.778   2.470  0.4489  0.0905 -0.2660
84155SOL    HW170075  11.529   5.783   2.440  0.6574  1.0200  0.4779
84155SOL    HW270076  11.413   5.868   2.487 -0.0923 -0.2800  1.0590
84156SOL     OW70077  11.820   5.337   8.008  0.8503 -0.3914 -0.0684
84156SOL    HW170078  11.760   5.263   8.006 -1.5066  1.3624  0.9311
84156SOL    HW270079  11.869   5.326   8.090 -1.7989  0.7282  1.8061
84157SOL     OW70080   7.706  14.081  10.603 -0.2136 -1.0852  0.5076
84157SOL    HW170081   7.699  14.029  10.684 -0.6493  0.2222  1.3443
84157SOL    HW270082   7.616  14.107  10.584 -0.1999 -1.9165 -0.7941
84158SOL     OW70083   2.237   7.361   9.214 -0.2402 -0.3008 -0.3820
84158SOL    HW170084   2.304   7.408   9.262  0.6867 -1.5370 -0.4190
84158SOL    HW270085   2.156   7.380   9.261  0.0567  1.4652 -0.5238
84159SOL     OW70086  11.770  10.832   7.458  0.1866  0.1777  0.5351
84159SOL    HW170087  11.691  10.786   7.429  0.7868 -0.7563  0.3713
84159SOL    HW270088  11.746  10.925   7.453 -1.0708 -0.1039  0.9943
84160SOL     OW70089  11.658  11.824   1.576 -0.3433  0.2610  0.3702
84160SOL    HW170090  11.708  11.891   1.623 -2.2202  1.8153  0.2876
84160SOL    HW270091  11.632  11.762   1.643 -0.3591  0.7673  0.8398
84161SOL     OW70092  13.636   5.472   5.627  0.0269 -0.8050  0.0787
84161SOL    HW170093  13.680   5.539   5.576 -0.7333 -0.7090 -0.4544
84161SOL    HW270094  13.707   5.414   5.656  0.4911 -0.7249 -0.8654
84162SOL     OW70095  13.238   1.712   0.980 -0.3410  0.4924  0.0997
84162SOL    HW170096  13.277   1.786   0.934 -1.0012  1.2686  0.7722
84162SOL    HW270097  13.283   1.710   1.065 -1.0587  0.7757  0.4911
84163SOL     OW70098  11.618   0.124   3.927  0.1415  0.8897 -0.0960
84163SOL    HW170099  11.673   0.059   3.971 -0.0147  0.4260 -0.5752
84163SOL    HW270100  11.528   0.095   3.944  0.0432  1.5127  0.4855
84164SOL     OW70101   7.147  12.526   2.164 -0.0317  0.3024  0.3358
84164SOL    HW170102   7.113  12.613   2.142 -0.1367  0.1665 -0.0365
84164SOL    HW270103   7.069  12.472   2.174  0.0803 -0.1425 -1.0622
84165SOL     OW70104   8.971  13.752  12.982  0.1767 -0.2534 -0.7902
84165SOL    HW170105   9.061  13.757  13.014  0.4069 -0.2030 -1.4257
84165SOL    HW270106   8.942  13.664  13.006 -0.9845  0.9863  2.9190
84166SOL     OW70107   8.907  13.092   7.246  0.0842  0.5519  0.4080
84166SOL    HW170108   8.942  13.127   7.164  1.4614 -0.1201  0.6847
84166SOL    HW270109   8.901  13.168   7.303  0.7998  0.7490  0.2368
84167SOL     OW70110   1.113   4.043   4.245  0.4966 -0.6167 -0.9400
84167SOL    HW170111   1.181   3.983   4.213  0.0506 -0.5261 -2.1369
84167SOL    HW270112   1.078   4.082   4.165  0.2848  0.7022 -0.2177
84168SOL     OW70113   2.938   8.771   8.996 -0.0339 -0.3991 -0.0375
84168SOL    HW170114   2.945   8.695   8.938  1.0051 -0.5405  0.2433
84168SOL    HW270115   2.882   8.741   9.068 -3.2125  0.4727 -1.9620
84169SOL     OW70116   7.543   0.183   5.807  0.2602  0.2363 -0.3747
84169SOL    HW170117   7.635   0.201   5.830  0.4432  0.8277 -1.4975
84169SOL    HW270118   7.512   0.125   5.876  1.7213 -0.6299 -0.4091
84170SOL     OW70119  10.424  13.758   1.539 -0.0682 -0.0402 -0.5034
84170SOL    HW170120  10.478  13.697   1.490 -0.3112  0.0216 -0.8450
84170SOL    HW270121  10.388  13.706   1.610 -0.2391 -0.2795 -0.7679
84171SOL     OW70122   1.853   0.116   7.579 -0.5979 -0.2467 -0.1028
84171SOL    HW170123   1.896   0.201   7.588  0.3938 -0.9326  2.2211
84171SOL    HW270124   1.775   0.134   7.527 -1.5248  2.4889  2.0226
84172SOL     OW70125  13.510  12.369   5.952 -0.2598  0.2480 -0.6029
84172SOL    HW170126  13.596  12.329   5.965 -0.9599 -1.0151  0.3029
84172SOL    HW270127  13.467  12.314   5.887 -0.7968  0.2109 -0.2229
84173SOL     OW70128  12.475  12.611   1.171 -0.4905 -0.0673 -0.7556
84173SOL    HW170129  12.511  12.698   1.154 -0.8047  0.0707 -0.7317
84173SOL    HW270130  12.451  12.578   1.084  0.2060 -0.3883 -0.8291
84174SOL     OW70131   5.467   4.205   5.842  0.7749  0.4445 -0.0480
84174SOL    HW170132   5.560   4.225   5.846  1.2875 -1.8273  1.6921
84174SOL    HW270133   5.427   4.264   5.906  0.5980  2.8833 -2.2426
84175SOL     OW70134   7.096   3.556   6.769 -0.2491  0.5451 -0.1809
84175SOL    HW170135   7.009   3.519   6.755  0.0289 -0.0430 -0.3462
84175SOL    HW270136   7.084   3.650   6.756 -1.1219  0.6226  1.0264
84176SOL     OW70137   9.503   1.233   4.770 -0.1275 -0.3875  0.6929
84176SOL    HW170138   9.435   1.265   4.829  0.4340 -1.4532  1.9656
84176SOL    HW270139   9.552   1.311   4.743 -0.3802  0.1106  1.6617
84177SOL     OW70140  10.089  12.906   7.179  0.1439  0.0945 -0.3789
84177SOL    HW170141  10.165  12.851   7.163  2.1208  2.1514  1.3209
84177SOL    HW270142  10.107  12.950   7.262 -3.5612 -0.2907  0.8268
84178SOL     OW70143   7.569  10.241   6.429 -0.2712  0.0961 -0.1446
84178SOL    HW170144   7.545  10.329   6.400 -1.2019  0.6720  2.1768
84178SOL    HW270145   7.662  10.249   6.453  0.9861 -0.7606 -3.9841
84179SOL     OW70146   8.374  13.410   8.485  1.0757  0.7996  0.1178
84179SOL    HW170147   8.429  13.364   8.548 -0.2877 -1.1113 -0.0100
84179SOL    HW270148   8.407  13.381   8.399  1.9553  2.2358 -0.0710
84180SOL     OW70149   9.623   6.184   4.325 -0.4439 -0.1715 -0.0502
84180SOL    HW170150   9.618   6.099   4.281 -1.3493  0.2196 -0.7131
84180SOL    HW270151   9.660   6.163   4.411 -0.1660 -1.1606 -0.3916
84181SOL     OW70152  10.570   7.998   4.048  0.6036 -0.4052 -0.1195
84181SOL    HW170153  10.644   7.969   3.994  0.4645 -0.4076 -0.3080
84181SOL    HW270154  10.611   8.051   4.116  0.8071 -0.6127 -0.0754
84182SOL     OW70155   8.274   7.674   9.444 -0.2769  0.2479 -0.1134
84182SOL    HW170156   8.262   7.621   9.366 -1.1879  0.6336 -0.2517
84182SOL    HW270157   8.256   7.763   9.416  0.4636  0.5414  0.2967
84183SOL     OW70158   6.298   0.315   6.133 -0.1213  0.2219  0.1012
84183SOL    HW170159   6.276   0.365   6.211  0.3825  1.2873 -0.4196
84183SOL    HW270160   6.309   0.381   6.064 -0.2609 -0.6689 -0.8035
84184SOL     OW70161   0.004  13.822   1.861 -0.0986 -0.4419  0.1108
84184SOL    HW170162  -0.015  13.778   1.779 -0.2347 -0.1318 -0.0252
84184SOL    HW270163  -0.078  13.866   1.884  0.4084  0.8343 -0.4280
84185SOL     OW70164   5.042  11.963  12.066 -0.0374  0.1529 -0.0135
84185SOL    HW170165   5.105  11.892  12.050  1.2558  1.2008  0.2364
84185SOL    HW270166   5.000  11.977  11.981  1.8712  1.0894 -0.8639
84186SOL     OW70167  10.347   6.458   0.894 -0.0678  0.1388 -0.2345
84186SOL    HW170168  10.418   6.397   0.874 -0.9780 -0.6399 -1.2201
84186SOL    HW270169  10.303   6.421   0.970 -0.3422 -0.2104 -0.5581
84187SOL     OW70170  11.199   3.822   8.575  0.2826 -0.2030  0.1581
84187SOL    HW170171  11.156   3.755   8.629 -1.9364 -0.6701 -2.0273
84187SOL    HW270172  11.169   3.905   8.612 -0.7606 -0.5111  0.0399
84188SOL     OW70173   6.492   5.448   1.460 -0.2028 -0.3781 -0.2164
84188SOL    HW170174   6.489   5.538   1.428 -0.2233 -0.6787 -1.1008
84188SOL    HW270175   6.445   5.397   1.394 -1.2128 -0.8863  0.8528
84189SOL     OW70176   6.032   3.884   7.597 -0.7099  0.4473 -0.0586
84189SOL    HW170177   6.053   3.829   7.673 -0.7148 -1.1873 -1.1947
84189SOL    HW270178   6.115   3.894   7.551 -0.4943  2.2885  0.6512
84190SOL     OW70179  11.729   1.670   8.907 -0.1413  0.2431 -0.5708
84190SOL    HW170180  11.650   1.721   8.890  0.5658  1.2578 -0.9529
84190SOL    HW270181  11.801   1.732   8.894  0.6825 -0.2850  1.1312
84191SOL     OW70182  10.812   1.142   7.600 -0.7747  0.5274  0.1674
84191SOL    HW170183  10.734   1.190   7.628 -1.2687 -0.1357 -0.0533
84191SOL    HW270184  10.789   1.050   7.610 -0.2804  0.3106 -0.6018
84192SOL     OW70185   3.357  11.622   1.470  0.0328  0.1338 -0.5007
84192SOL    HW170186   3.417  11.694   1.448  0.8250 -0.6048 -0.8028
84192SOL    HW270187   3.406  11.543   1.448 -0.6439 -0.5151  0.2997
84193SOL     OW70188   9.254   2.291   8.823  0.0634  0.5408 -0.4990
84193SOL    HW170189   9.269   2.234   8.898  1.1725  0.2520 -0.9105
84193SOL    HW270190   9.268   2.235   8.746 -1.1586  0.8005 -0.9286
84194SOL     OW70191   3.481   5.655   6.674 -0.8587  0.1399 -0.2690
84194SOL    HW170192   3.450   5.746   6.680 -4.0430 -0.7880 -0.7130
84194SOL    HW270193   3.456   5.616   6.758  1.3433 -0.1579  0.3011
84195SOL     OW70194   7.989  11.494   6.489  0.0853 -0.5196 -0.1954
84195SOL    HW170195   7.933  11.491   6.411 -0.4756 -1.7416  0.2457
84195SOL    HW270196   8.011  11.403   6.507  1.6719 -0.1233  0.0497
84196SOL     OW70197   7.638   9.791  12.154  0.1352 -0.4058 -0.0577
84196SOL    HW170198   7.713   9.734  12.172  0.5147  0.0254 -0.2729
84196SOL    HW270199   7.595   9.751  12.079 -0.1492 -0.9397  0.3793
84197SOL     OW70200   6.495   9.113   4.910  0.6513 -0.1531 -0.2191
84197SOL    HW170201   6.546   9.166   4.971  4.0654 -2.9663 -0.2333
84197SOL    HW270202   6.439   9.059   4.966  0.5707  0.2740  0.1143
84198SOL     OW70203   3.931   7.773   6.432 -0.5255  0.4711  0.3851
84198SOL    HW170204   3.843   7.810   6.421 -0.3918  1.0545  1.2083
84198SOL    HW270205   3.966   7.768   6.343 -0.3942  2.7501  0.2401
84199SOL     OW70206  12.480   7.816   0.575  0.5662  0.2613 -0.6441
84199SOL    HW170207  12.479   7.912   0.566 -1.2705  0.4522  0.9042
84199SOL    HW270208  12.543   7.799   0.645  0.5904  0.3687 -0.6399
84200SOL     OW70209   0.574  12.875   1.838 -0.7853  0.1028  0.0714
84200SOL    HW170210   0.628  12.908   1.765 -1.6490  1.2992 -0.0621
84200SOL    HW270211   0.505  12.825   1.795 -0.1539 -0.9089  0.2071
84201SOL     OW70212  10.753   3.844   5.099  0.3587  0.4778  0.3623
84201SOL    HW170213  10.764   3.749   5.107 -0.2174  0.3796  0.0529
84201SOL    HW270214  10.676   3.863   5.153 -0.5053  0.5241 -0.8337
84202SOL     OW70215   5.620   4.016  10.939 -0.2631 -0.2855  0.4899
84202SOL    HW170216   5.576   3.994  10.857  2.1038 -0.6950 -0.7601
84202SOL    HW270217   5.649   4.107  10.926 -2.6940  0.8686  2.2714
84203SOL     OW70218   2.028   1.034   2.996  0.0248 -0.2838 -0.6009
84203SOL    HW170219   2.043   0.943   3.020 -1.8873 -0.6325 -0.5372
84203SOL    HW270220   2.066   1.043   2.908  1.1049 -0.8425 -0.2108
84204SOL     OW70221  12.066   4.498  13.444 -0.1005 -0.5874  0.3776
84204SOL    HW170222  12.043   4.548  13.522 -2.9824 -0.9185 -0.1537
84204SOL    HW270223  12.001   4.523  13.379 -0.2507 -3.2878 -0.6532
84205SOL     OW70224  13.010   2.931   6.937 -0.1621 -0.3413 -0.3031
84205SOL    HW170225  13.075   3.001   6.931 -1.0333  0.4407 -0.9359
84205SOL    HW270226  13.057   2.852   6.910  0.5531  0.1970 -0.6576
84206SOL     OW70227   5.932   3.312   0.296 -0.2159 -0.3012  0.3484
84206SOL    HW170228   5.894   3.400   0.295  0.7151  0.1183 -1.0887
84206SOL    HW270229   6.022   3.324   0.265  0.3455 -1.5989  1.3525
84207SOL     OW70230  14.056   2.060   5.306 -0.2815 -0.0376  0.1886
84207SOL    HW170231  14.013   1.974   5.304  0.9462 -0.7014  0.7170
84207SOL    HW270232  14.102   2.061   5.390  1.0623  0.4479 -0.5269
84208SOL     OW70233  13.543  10.308   8.115  0.1376 -0.0376  0.3913
84208SOL    HW170234  13.619  10.323   8.170  0.4353  1.0836 -0.2856
84208SOL    HW270235  13.510  10.223   8.142  0.7269  0.1372  1.7512
84209SOL     OW70236   7.722  12.549   5.634 -0.4823  0.0985 -0.0787
84209SOL    HW170237   7.711  12.543   5.729  3.4520 -0.5071  0.5154
84209SOL    HW270238   7.735  12.642   5.617  2.2890 -0.0723  0.6344
84210SOL     OW70239   4.114   1.903  12.478 -0.4863  0.3299  0.1195
84210SOL    HW170240   4.209   1.913  12.481 -0.4536  0.2970 -0.5721
84210SOL    HW270241   4.081   1.992  12.469 -0.4868  0.3011 -0.1935
84211SOL     OW70242   8.331  10.967  11.379 -0.4137 -0.1072  0.0058
84211SOL    HW170243   8.294  10.882  11.358  0.0725 -0.4929  0.6785
84211SOL    HW270244   8.259  11.016  11.419 -0.2912 -0.7628  1.0784
84212SOL     OW70245  12.832   8.677   0.256 -0.1676  0.0435 -0.0241
84212SOL    HW170246  12.901   8.641   0.312  1.3396  2.7301  0.0152
84212SOL    HW270247  12.878   8.715   0.181 -1.7707  0.3616 -0.9124
84213SOL     OW70248   1.548   9.073   3.254 -0.7100  0.0179 -0.2337
84213SOL    HW170249   1.596   9.009   3.202  1.9427  0.2606  1.7477
84213SOL    HW270250   1.562   9.157   3.209  0.9465  0.1146  0.4212
84214SOL     OW70251   1.539   6.476   7.964  1.0822  0.6232  0.3628
84214SOL    HW170252   1.463   6.503   7.912  1.4446  0.0997 -0.4703
84214SOL    HW270253   1.502   6.424   8.035  0.6678  0.1676 -0.1703
84215SOL     OW70254   7.673   5.221  11.791  0.1153  0.4650 -0.0288
84215SOL    HW170255   7.673   5.170  11.710 -0.2896  0.2574  0.1010
84215SOL    HW270256   7.670   5.312  11.761 -1.1223  0.3614 -0.2397
84216SOL     OW70257   1.423  12.718   5.156  0.4974  0.3936  0.3920
84216SOL    HW170258   1.404  12.743   5.246  0.2891  1.4390  0.0731
84216SOL    HW270259   1.513  12.745   5.141  0.2184  1.1414 -0.0081
84217SOL     OW70260   2.792   8.632   9.578  0.4510  0.7109  0.7408
84217SOL    HW170261   2.746   8.552   9.552 -0.8039  1.1968  1.3703
84217SOL    HW270262   2.884   8.613   9.562  0.1286 -0.6654  0.3771
84218SOL     OW70263   9.689   2.245   3.770  0.6776  0.2295  0.6754
84218SOL    HW170264   9.620   2.250   3.704 -0.4842  0.3429  1.8557
84218SOL    HW270265   9.709   2.151   3.777 -0.5017  0.0175  1.4424
84219SOL     OW70266   2.060   1.468   0.918 -0.0533 -0.6006 -0.2693
84219SOL    HW170267   2.111   1.525   0.860 -0.0291 -0.5459 -0.1939
84219SOL    HW270268   2.040   1.391   0.864 -3.1742  0.9595 -1.5750
84220SOL     OW70269   0.951   3.467   3.159  0.5371  0.1118  0.3140
84220SOL    HW170270   0.880   3.414   3.123  0.8278 -0.0554 -0.0061
84220SOL    HW270271   1.030   3.415   3.145  0.5694 -0.3364  1.9209
84221SOL     OW70272  10.927   2.302   2.029 -1.2193  0.1406 -0.0691
84221SOL    HW170273  11.016   2.266   2.032 -0.5123  1.8626  0.9390
84221SOL    HW270274  10.894   2.292   2.118 -0.9231  2.0774  0.2979
84222SOL     OW70275  13.003  10.405   2.827  0.7038 -0.4933 -0.0914
84222SOL    HW170276  12.954  10.454   2.762  1.5004  0.5081  0.0344
84222SOL    HW270277  13.044  10.472   2.882 -2.0394 -1.1643  3.1796
84223SOL     OW70278   3.485   9.237  11.032  0.3809  0.2003 -0.2450
84223SOL    HW170279   3.396   9.269  11.017  1.3204  2.4237 -1.7286
84223SOL    HW270280   3.483   9.145  11.006 -1.7856 -0.2460  1.2076
84224SOL     OW70281   0.045  13.046   3.663  0.0821 -0.1964  0.3746
84224SOL    HW170282   0.003  12.962   3.644 -0.6911 -0.3384  2.4483
84224SOL    HW270283   0.139  13.026   3.665  0.0680 -0.5416 -1.1645
84225SOL     OW70284   9.769  12.680  12.792  0.3074 -0.1808  0.3048
84225SOL    HW170285   9.678  12.653  12.782  0.1226  0.3765  0.4484
84225SOL    HW270286   9.786  12.673  12.886 -0.0837  1.2333  0.5089
84226SOL     OW70287   5.177  12.300   1.706 -0.1491 -0.3798 -0.1755
84226SOL    HW170288   5.246  12.299   1.639  0.8754  1.6999  0.7651
84226SOL    HW270289   5.224  12.303   1.789 -1.3230  1.9075  0.4639
84227SOL     OW70290   9.771  12.978   5.403  0.2216 -0.0711 -0.5615
84227SOL    HW170291   9.714  12.978   5.480  0.7505  0.6577 -0.1471
84227SOL    HW270292   9.859  12.987   5.439  0.6524 -1.4872 -1.1685
84228SOL     OW70293   9.816   3.863  13.892 -0.2261 -0.4706 -0.8781
84228SOL    HW170294   9.877   3.922  13.937  0.6102 -1.5921 -0.4991
84228SOL    HW270295   9.751   3.840  13.958  0.4204 -1.2995 -0.5032
84229SOL     OW70296  13.538   9.553   5.772 -0.0204  0.6063  0.1516
84229SOL    HW170297  13.455   9.596   5.792 -0.0843 -0.4665  2.5276
84229SOL    HW270298  13.516   9.489   5.704 -1.0717  0.5216  0.5521
84230SOL     OW70299   6.778   3.856   5.240  0.4629 -0.0844  0.0897
84230SOL    HW170300   6.695   3.842   5.286  0.2014  0.5804 -0.1735
84230SOL    HW270301   6.838   3.793   5.280  0.1083  0.1412  0.9972
84231SOL     OW70302   0.655   6.265   3.576 -0.2946  0.0242  0.0594
84231SOL    HW170303   0.724   6.327   3.598 -0.0002 -0.9046  1.9777
84231SOL    HW270304   0.573   6.312   3.595 -0.1086  0.2652  0.2749
84232SOL     OW70305   1.453   3.075  12.458  0.2677 -0.6442 -0.2970
84232SOL    HW170306   1.358   3.074  12.445 -0.1342  0.0925  2.1663
84232SOL    HW270307   1.467   3.029  12.540  1.8146  1.2452  0.5821
84233SOL     OW70308   4.166  12.631   6.540  0.4225 -0.2045  0.0694
84233SOL    HW170309   4.181  12.607   6.631 -0.0111  0.4813  0.3316
84233SOL    HW270310   4.254  12.636   6.502  0.6156 -0.3624  0.4898
84234SOL     OW70311  11.689   3.806   0.980 -0.0569  0.0887 -0.3367
84234SOL    HW170312  11.691   3.796   1.075  0.1521 -1.3039 -0.4660
84234SOL    HW270313  11.781   3.798   0.954 -0.2569 -0.9398 -0.7662
84235SOL     OW70314   3.933   2.544   9.202 -0.0788  0.0650  0.5113
84235SOL    HW170315   3.938   2.611   9.134 -1.7787 -1.2064 -0.9696
84235SOL    HW270316   3.881   2.584   9.272  2.1041  1.5600  1.3839
84236SOL     OW70317   6.193  13.958  13.345 -0.3793 -0.3501 -0.1165
84236SOL    HW170318   6.237  13.991  13.423 -0.4076  0.7486 -0.5521
84236SOL    HW270319   6.219  14.017  13.275  0.7735 -2.1266 -1.2701
84237SOL     OW70320  13.568   0.867   4.158  0.0056 -0.4165  0.3691
84237SOL    HW170321  13.655   0.839   4.186  1.1989  0.5264 -2.1165
84237SOL    HW270322  13.584   0.937   4.095 -2.6188  0.6183  0.7051
84238SOL     OW70323   4.352   8.683   4.726  0.3660  0.0183 -0.3869
84238SOL    HW170324   4.400   8.612   4.684 -1.3097 -1.1047 -0.4591
84238SOL    HW270325   4.278   8.641   4.769  0.4716  1.4784  1.3560
84239SOL     OW70326   9.215   3.975   3.946  0.4018 -0.1104 -0.3217
84239SOL    HW170327   9.252   3.931   4.023 -0.2812 -0.1795 -0.0313
84239SOL    HW270328   9.190   4.061   3.978  1.4444  0.3999 -0.8170
84240SOL     OW70329   2.694  12.464   7.923  0.4978 -0.1143 -0.1343
84240SOL    HW170330   2.709  12.370   7.921 -1.6149 -0.4874 -0.9179
84240SOL    HW270331   2.712  12.494   7.834  1.8828  0.3840  0.2866
84241SOL     OW70332   8.209   9.056   6.851 -0.1573 -0.0092 -0.0075
84241SOL    HW170333   8.221   8.988   6.917  0.6436 -0.0503 -0.1894
84241SOL    HW270334   8.213   9.009   6.768  1.2536  0.3545 -0.1696
84242SOL     OW70335  10.616   1.505   8.023 -0.3756  0.7420  0.4147
84242SOL    HW170336  10.670   1.443   8.071 -0.7322 -1.3371 -1.6951
84242SOL    HW270337  10.680   1.561   7.977  0.1080 -1.2519 -1.5090
84243SOL     OW70338   7.013  13.692  10.939  0.0741 -0.4455 -0.2577
84243SOL    HW170339   7.048  13.705  10.851  1.1549 -1.2545  0.0244
84243SOL    HW270340   7.088  13.707  10.997 -0.4217 -0.7204  0.4630
84244SOL     OW70341  10.464   9.673   6.715 -0.4783  0.0667  0.4075
84244SOL    HW170342  10.494   9.755   6.755  0.8607  0.1655 -0.7116
84244SOL    HW270343  10.545   9.631   6.685 -1.2363 -1.2111  0.1121
84245SOL     OW70344   3.002   7.920   0.285 -0.5799  0.8260 -0.0331
84245SOL    HW170345   2.959   7.834   0.277 -1.2185  1.1353  0.0263
84245SOL    HW270346   3.055   7.914   0.364 -0.5864  0.4732 -0.0545
84246SOL     OW70347   5.488   5.707   2.398  0.0744  0.3355  0.7653
84246SOL    HW170348   5.467   5.659   2.479 -1.2269 -0.1962  0.1416
84246SOL    HW270349   5.529   5.788   2.429  1.2273 -0.6282  1.8864
84247SOL     OW70350   3.503   0.619   8.117  0.6137  0.2957  0.6061
84247SOL    HW170351   3.449   0.569   8.055  0.4059  1.7802 -0.4723
84247SOL    HW270352   3.569   0.556   8.147  0.5907 -0.5546 -0.9558
84248SOL     OW70353   6.361   6.844   3.977  0.9165  0.4142  0.1947
84248SOL    HW170354   6.266   6.843   3.979  0.7176  0.3165 -3.5367
84248SOL    HW270355   6.383   6.924   3.928  2.4168 -2.0099 -3.4693
84249SOL     OW70356   6.210  10.459  10.667  0.0286 -0.0027  0.4361
84249SOL    HW170357   6.237  10.550  10.662  1.3927 -0.3317  1.2905
84249SOL    HW270358   6.114  10.462  10.669 -0.0314  1.2766 -1.6496
84250SOL     OW70359   3.658  13.374   6.942 -0.7649  0.5223 -0.3568
84250SOL    HW170360   3.575  13.383   6.895 -0.1962 -0.9251 -1.7293
84250SOL    HW270361   3.720  13.345   6.875  0.1440 -1.4528  1.2360
84251SOL     OW70362   7.063   3.147   6.751 -0.2177  0.6535  0.0825
84251SOL    HW170363   7.139   3.198   6.723  0.0365 -0.0107 -0.4690
84251SOL    HW270364   7.089   3.056   6.736 -1.0979  0.4174 -0.0289
84252SOL     OW70365  12.747   8.419   8.717 -0.8493  0.5538  0.4030
84252SOL    HW170366  12.753   8.358   8.644  0.5773  0.8489  0.2413
84252SOL    HW270367  12.778   8.368   8.793 -0.8292  0.7063  0.4981
84253SOL     OW70368   2.300   3.778  11.701 -0.2998  0.0818  0.3193
84253SOL    HW170369   2.363   3.819  11.643 -1.4260  0.8519 -0.3946
84253SOL    HW270370   2.258   3.711  11.647  0.0437 -0.5774  0.8535
84254SOL     OW70371   1.260   4.333   7.315  0.4454  0.2001  0.4857
84254SOL    HW170372   1.219   4.419   7.307  0.9599  0.4814  0.8419
84254SOL    HW270373   1.302   4.334   7.401  0.8417 -0.2350  0.3004
84255SOL     OW70374   9.680  11.158   7.399  0.4880  0.1662 -0.0339
84255SOL    HW170375   9.671  11.243   7.443 -0.5665 -0.4942  1.0601
84255SOL    HW270376   9.771  11.158   7.368  0.1676  2.2251 -1.2068
84256SOL     OW70377   2.772   9.340   8.097 -0.2262  0.6086 -0.5339
84256SOL    HW170378   2.796   9.403   8.165  1.5343 -0.5959  0.0386
84256SOL    HW270379   2.843   9.276   8.098 -0.9284 -0.2695 -2.4992
84257SOL     OW70380   2.724  12.514   7.652 -0.4934 -0.2765 -0.4840
84257SOL    HW170381   2.654  12.460   7.616 -0.1239 -0.3730 -1.0605
84257SOL    HW270382   2.805  12.470   7.628 -0.0658  1.6078 -2.8766
84258SOL     OW70383  13.425   0.755   9.597  0.2641 -0.7605 -0.4779
84258SOL    HW170384  13.399   0.820   9.532 -1.0277 -1.5989 -0.8441
84258SOL    HW270385  13.433   0.674   9.547  0.3950 -1.1744  0.2118
84259SOL     OW70386  10.233   9.697   9.229  0.1547  0.5039 -0.7310
84259SOL    HW170387  10.268   9.655   9.307 -2.6900  2.0290  1.5303
84259SOL    HW270388  10.233   9.791   9.250  0.4325  1.1031 -3.0951
84260SOL     OW70389   5.840   0.791   8.932 -0.2627 -0.1580  0.0529
84260SOL    HW170390   5.834   0.696   8.936 -1.7002 -0.0817  0.3336
84260SOL    HW270391   5.762   0.822   8.978 -1.7088  1.0905 -2.9593
84261SOL     OW70392  10.081   4.634   4.434  0.4197 -0.2179  0.3017
84261SOL    HW170393  10.027   4.711   4.414  2.4658  1.0513 -0.6502
84261SOL    HW270394  10.169   4.669   4.446  1.5047 -2.4479 -0.6052
84262SOL     OW70395   0.529   6.642  10.829  0.1702  0.1218  0.4324
84262SOL    HW170396   0.441   6.669  10.804  0.5661  1.5560  0.4800
84262SOL    HW270397   0.571   6.614  10.747 -0.0594  0.2535  0.2707
84263SOL     OW70398   8.449  11.267   7.981  0.0905  0.4825  0.0630
84263SOL    HW170399   8.393  11.265   8.058  0.0211  1.5163  0.0616
84263SOL    HW270400   8.441  11.180   7.942 -0.8902  0.3653  0.5025
84264SOL     OW70401  13.387   4.580  10.041  0.2871  0.2718  0.0316
84264SOL    HW170402  13.292   4.589  10.047  0.4892  3.0078  0.0749
84264SOL    HW270403  13.410   4.619   9.957  1.3934 -0.3191  0.0364
84265SOL     OW70404  12.281   2.431   5.333 -1.0467 -0.1782  0.0286
84265SOL    HW170405  12.214   2.405   5.269 -1.5756 -0.3842  0.6481
84265SOL    HW270406  12.314   2.347   5.367  1.2040 -0.1851 -1.9085
84266SOL     OW70407   2.870   4.379   3.668  0.0014 -0.1040  0.2654
84266SOL    HW170408   2.890   4.470   3.689 -0.0403 -0.3592  1.4843
84266SOL    HW270409   2.912   4.364   3.583 -0.1418  1.0911 -0.0347
84267SOL     OW70410   5.284   3.741   6.640 -0.1805 -0.8909  0.0182
84267SOL    HW170411   5.323   3.825   6.663 -1.5225  0.1979 -1.4931
84267SOL    HW270412   5.357   3.689   6.606  0.1731  0.7807 -1.9569
84268SOL     OW70413  13.979   5.939  13.461 -0.0607 -0.0378 -0.0581
84268SOL    HW170414  13.909   5.987  13.507  0.4873  0.7593 -0.0308
84268SOL    HW270415  13.934   5.897  13.388 -0.9408 -1.2776  1.1433
84269SOL     OW70416  11.093  13.065  13.754 -0.1975 -0.0112 -0.4945
84269SOL    HW170417  11.135  13.052  13.670 -0.3368  1.8706 -0.9125
84269SOL    HW270418  11.129  12.996  13.810  1.6532  0.0971 -1.4656
84270SOL     OW70419   0.881   8.813  13.166  0.5341  0.2821  0.2198
84270SOL    HW170420   0.941   8.751  13.125  0.3265 -0.7546  1.4353
84270SOL    HW270421   0.906   8.815  13.258 -1.4170 -0.3700  0.8225
84271SOL     OW70422   8.486   1.274  14.073  0.1673 -0.3352  0.1591
84271SOL    HW170423   8.488   1.370  14.078  0.9072  0.2379 -5.0396
84271SOL    HW270424   8.566   1.246  14.117  0.7678  1.5892  0.3919
84272SOL     OW70425   4.516   2.379   7.792 -0.4538 -0.8432 -1.2527
84272SOL    HW170426   4.568   2.325   7.733  0.2245 -2.2121  0.5252
84272SOL    HW270427   4.574   2.398   7.866 -1.7008 -0.3338 -0.3570
84273SOL     OW70428   1.861   6.153   9.546 -0.0707 -0.3462  0.4388
84273SOL    HW170429   1.769   6.178   9.559 -0.0806 -1.2825  2.4956
84273SOL    HW270430   1.859   6.095   9.470 -0.6443  2.2079 -1.6871
84274SOL     OW70431   3.545  11.371   6.149 -0.3696  0.0401 -0.2257
84274SOL    HW170432   3.468  11.352   6.202  0.2825 -2.2448  0.0088
84274SOL    HW270433   3.517  11.352   6.059 -1.2542  3.2193 -0.7550
84275SOL     OW70434   0.417   4.488   6.905  0.0041  0.5255  0.2431
84275SOL    HW170435   0.509   4.493   6.932  0.6281 -0.4484 -1.5214
84275SOL    HW270436   0.376   4.564   6.947  2.0303  2.0958 -0.4309
84276SOL     OW70437   0.080  12.257   4.868 -0.3148  0.1734  0.5337
84276SOL    HW170438   0.066  12.235   4.960 -0.9888  0.7993  0.5869
84276SOL    HW270439  -0.000  12.301   4.841 -0.1882 -0.1311 -0.3995
84277SOL     OW70440   7.726   8.946   3.353 -0.2551 -0.4495 -0.3577
84277SOL    HW170441   7.755   8.942   3.444  2.0291 -2.1313 -1.0478
84277SOL    HW270442   7.670   9.023   3.348 -1.3574 -0.9350  2.6789
84278SOL     OW70443   1.156   9.101   6.607 -0.4351  0.1256 -0.4269
84278SOL    HW170444   1.124   9.125   6.695  0.6684  0.5481 -0.1269
84278SOL    HW270445   1.180   9.184   6.567  1.1546 -0.2306 -0.2862
84279SOL     OW70446   6.112   4.404   5.501 -0.0466  0.4792  0.0506
84279SOL    HW170447   6.110   4.414   5.406 -1.7031  1.8735  0.1823
84279SOL    HW270448   6.068   4.321   5.518  1.4162 -0.4252 -0.4270
84280SOL     OW70449   2.505  13.250   3.613 -0.0278 -0.0047  0.0148
84280SOL    HW170450   2.504  13.155   3.612 -1.9339 -0.0558 -2.4473
84280SOL    HW270451   2.519  13.275   3.522 -0.7386  2.0489  0.4127
84281SOL     OW70452   8.167  12.878   4.496  0.7525 -0.2843 -0.2029
84281SOL    HW170453   8.229  12.949   4.479  0.5169  0.1223  0.5778
84281SOL    HW270454   8.146  12.887   4.589  0.8862 -1.5125 -0.0364
84282SOL     OW70455   4.722  13.543   3.622  0.3010 -0.1681 -0.0196
84282SOL    HW170456   4.816  13.532   3.610  0.2259 -1.4006  0.3834
84282SOL    HW270457   4.712  13.633   3.654  1.1342  0.7151 -2.0757
84283SOL     OW70458   2.897   3.059   4.024 -0.1303 -0.1514 -0.1541
84283SOL    HW170459   2.885   3.043   4.118 -0.0958 -1.0222 -0.2838
84283SOL    HW270460   2.809   3.051   3.987  0.1086 -1.7714 -0.4497
84284SOL     OW70461   7.734   5.645   1.375 -0.4617 -0.0713 -0.0612
84284SOL    HW170462   7.657   5.613   1.328 -0.9219  1.1548 -0.1925
84284SOL    HW270463   7.809   5.611   1.326 -0.8592 -2.3501  0.7933
84285SOL     OW70464   1.446  12.188   8.293 -0.1822  0.7329  0.2163
84285SOL    HW170465   1.389  12.204   8.217 -0.4280  1.3195  0.5178
84285SOL    HW270466   1.438  12.094   8.309 -1.2911  0.8416  0.4240
84286SOL     OW70467   6.291  13.164   3.905  0.2374  0.0182  0.1200
84286SOL    HW170468   6.369  13.200   3.863 -0.1828  2.0264  0.9353
84286SOL    HW270469   6.218  13.209   3.862 -0.4638 -1.5270 -0.3477
84287SOL     OW70470   4.495   8.517   3.812 -0.2434 -0.3250 -0.1892
84287SOL    HW170471   4.556   8.480   3.748 -0.5578  0.0497 -0.7201
84287SOL    HW270472   4.501   8.459   3.888  0.3945 -0.5795 -0.4276
84288SOL     OW70473   9.724  10.396   0.419  0.0096  0.3472  0.5461
84288SOL    HW170474   9.636  10.359   0.433  0.1698 -0.4216 -0.4167
84288SOL    HW270475   9.709  10.477   0.370 -0.2906  1.3060  2.1169
84289SOL     OW70476   2.425   2.696   4.875 -0.4623  0.0271 -0.1460
84289SOL    HW170477   2.507   2.674   4.919 -1.4699 -0.8636  1.4071
84289SOL    HW270478   2.425   2.643   4.796  0.8835  0.8007 -0.7009
84290SOL     OW70479  11.258  11.743  10.080 -0.3817 -0.0349 -0.1621
84290SOL    HW170480  11.222  11.658  10.104 -0.0579 -0.0600  0.2444
84290SOL    HW270481  11.323  11.724  10.012  2.0237 -0.5079  2.1232
84291SOL     OW70482   6.131  11.822   1.194 -0.2766  0.7782 -0.2135
84291SOL    HW170483   6.142  11.739   1.240  1.7229 -0.0332 -1.9819
84291SOL    HW270484   6.039  11.825   1.170 -0.4982 -0.6577  0.3875
84292SOL     OW70485   6.437   1.017   7.840  0.7208  0.0692  0.1099
84292SOL    HW170486   6.519   1.066   7.850  0.1866  0.6907  1.6736
84292SOL    HW270487   6.399   1.016   7.928 -0.1935 -1.5714 -0.2777
84293SOL     OW70488  10.249   4.944   6.191  0.1110  0.0075 -0.2941
84293SOL    HW170489  10.180   4.896   6.237  0.4586 -1.2709 -1.0574
84293SOL    HW270490  10.331   4.911   6.229  0.3408  1.3397  0.4412
84294SOL     OW70491  13.406   4.221  12.719 -0.3439 -0.3458 -0.6853
84294SOL    HW170492  13.389   4.311  12.749  0.1477 -0.3327 -0.4459
84294SOL    HW270493  13.493   4.225  12.680 -0.4028 -0.6785 -0.8526
84295SOL     OW70494   1.181  10.318   8.814 -0.0702  0.1260  0.3016
84295SOL    HW170495   1.165  10.229   8.781  1.3818 -0.3596  0.8013
84295SOL    HW270496   1.167  10.374   8.738 -1.6507 -0.4367  0.1345
84296SOL     OW70497   9.373  10.399   1.116 -0.3885 -0.4145  0.5956
84296SOL    HW170498   9.324  10.340   1.058 -1.8268 -0.0485  1.4180
84296SOL    HW270499   9.329  10.484   1.107  0.7288  0.1795  0.5807
84297SOL     OW70500  12.810   0.545   2.115 -0.5512  0.4222 -0.2168
84297SOL    HW170501  12.782   0.598   2.040 -0.5205  0.3454 -0.2834
84297SOL    HW270502  12.820   0.457   2.079  0.0197  0.4965 -0.2561
84298SOL     OW70503   4.743   3.325   3.252 -0.2329  0.5289 -0.0647
84298SOL    HW170504   4.771   3.277   3.330  1.1393  2.7677  0.9194
84298SOL    HW270505   4.781   3.412   3.262 -2.5526  1.8573 -1.7661
84299SOL     OW70506   9.656  11.313   1.272  0.4106 -0.1351 -0.2165
84299SOL    HW170507   9.681  11.346   1.186  1.8443  0.4440  0.3864
84299SOL    HW270508   9.609  11.232   1.254  0.9013 -0.1451 -1.5431
84300SOL     OW70509  11.198   9.342  12.772  0.0653 -0.8393  0.6713
84300SOL    HW170510  11.292   9.356  12.772 -0.0538  0.0077  1.1866
84300SOL    HW270511  11.161   9.423  12.808 -0.7746 -1.6507  1.7083
84301SOL     OW70512   8.296  13.834  10.916  0.2152  0.4261 -0.1142
84301SOL    HW170513   8.386  13.825  10.885  0.4954  0.2507  0.7321
84301SOL    HW270514   8.259  13.903  10.861  1.5518  2.0784  0.9679
84302SOL     OW70515   5.563   7.315  10.234  0.5119 -0.2725  0.8162
84302SOL    HW170516   5.515   7.293  10.155  1.6154 -2.0036  0.5915
84302SOL    HW270517   5.561   7.411  10.237  1.3845 -0.0890 -1.9152
84303SOL     OW70518   7.545  13.162   9.680  0.2239  0.2287 -0.7290
84303SOL    HW170519   7.605  13.236   9.684  0.3554  0.0584  1.7787
84303SOL    HW270520   7.460  13.198   9.703  0.3435 -0.3984  0.8309
84304SOL     OW70521  11.140   8.591   5.135 -0.4598  0.2832  0.0570
84304SOL    HW170522  11.117   8.674   5.175  1.2665  1.4290 -1.1999
84304SOL    HW270523  11.218   8.562   5.182  0.4891  0.7166 -1.2053
84305SOL     OW70524   7.420  10.444  12.680  0.1950 -0.2153  0.7934
84305SOL    HW170525   7.325  10.452  12.671  0.1590  0.1513  1.4380
84305SOL    HW270526   7.432  10.397  12.762  0.5630 -0.7245  0.4487
84306SOL     OW70527   3.368   7.787  10.376 -0.2863 -0.4389  0.3155
84306SOL    HW170528   3.373   7.881  10.396 -0.1170 -0.3347 -0.1804
84306SOL    HW270529   3.457   7.765  10.348 -0.1924 -0.8738  0.9376
84307SOL     OW70530  11.134  11.788   6.483 -0.1316  0.3434  0.3137
84307SOL    HW170531  11.213  11.840   6.469 -0.5256  0.6582 -0.8704
84307SOL    HW270532  11.165  11.699   6.495  0.3609  0.2634 -1.3588
84308SOL     OW70533   2.706   4.663  12.019 -0.6109  0.0111  0.0360
84308SOL    HW170534   2.741   4.716  11.948  0.3988 -0.1887  0.3610
84308SOL    HW270535   2.612   4.683  12.021 -0.9115 -0.9386 -2.1611
84309SOL     OW70536   2.442   4.579   3.355  0.1256 -0.1339 -0.5213
84309SOL    HW170537   2.405   4.495   3.331 -2.1373  0.8766 -0.8349
84309SOL    HW270538   2.432   4.633   3.276 -0.7607  1.1295  0.4272
84310SOL     OW70539  14.088   6.487  10.830  0.2124 -0.2898 -0.2542
84310SOL    HW170540  14.044   6.534  10.901 -0.2183 -0.6950 -0.2497
84310SOL    HW270541  14.072   6.540  10.752 -0.2815 -0.4218 -0.2504
84311SOL     OW70542   4.658   6.061   2.931 -0.6090  0.3338  0.7459
84311SOL    HW170543   4.667   5.976   2.887  0.3330  0.7424  0.1106
84311SOL    HW270544   4.711   6.121   2.878 -3.3879  1.9594 -0.4386
84312SOL     OW70545   1.560   9.449   0.261 -0.3083 -0.1108 -0.2668
84312SOL    HW170546   1.570   9.502   0.181  0.1029 -1.0277 -0.8407
84312SOL    HW270547   1.634   9.388   0.258  0.2464  0.4333  1.2969
84313SOL     OW70548   1.905   2.484  12.499  0.3762 -0.2053 -0.4292
84313SOL    HW170549   1.815   2.455  12.508 -0.1096  1.7891  2.1128
84313SOL    HW270550   1.947   2.462  12.582  2.1807 -0.7481 -1.4114
84314SOL     OW70551   1.073  12.314  11.410  0.2657  0.1070 -0.7143
84314SOL    HW170552   1.103  12.283  11.325  0.4028  1.1736 -1.0763
84314SOL    HW270553   1.120  12.261  11.473  0.1909 -0.6784 -1.2942
84315SOL     OW70554   2.017   0.424   2.593  0.0549  0.6373  0.1690
84315SOL    HW170555   1.998   0.331   2.600  0.7370  0.4791  0.0047
84315SOL    HW270556   1.955   0.467   2.652 -0.0074  0.0502  0.5300
84316SOL     OW70557   6.135  10.261  11.715  0.0498  0.5069  0.2653
84316SOL    HW170558   6.118  10.172  11.687  1.6429  1.0079 -2.6328
84316SOL    HW270559   6.148  10.254  11.810 -0.6205 -2.1691  0.2377
84317SOL     OW70560   1.252  13.014  10.803 -0.1077  0.5339  0.4635
84317SOL    HW170561   1.206  13.098  10.813  0.2569  0.5517  2.5161
84317SOL    HW270562   1.201  12.952  10.855  0.7931 -0.0074  0.7327
84318SOL     OW70563   2.669   6.967   0.523 -0.1826 -0.7587 -0.0673
84318SOL    HW170564   2.574   6.976   0.529 -0.0943  0.9919 -0.6021
84318SOL    HW270565   2.700   6.978   0.613 -0.4278 -0.3646 -0.0284
84319SOL     OW70566   6.829   4.748  12.405 -0.0584 -0.3271 -0.2004
84319SOL    HW170567   6.917   4.758  12.442 -0.5579  3.2550  0.4050
84319SOL    HW270568   6.819   4.825  12.348 -2.2656 -1.4830 -1.4783
84320SOL     OW70569   4.647   1.564   5.604 -0.5216  0.4509 -0.4041
84320SOL    HW170570   4.567   1.512   5.611 -0.9838  1.2267  0.2489
84320SOL    HW270571   4.632   1.639   5.661  0.9825  0.2198  0.3442
84321SOL     OW70572   9.802   4.989   6.429  0.3263  0.0824 -0.1422
84321SOL    HW170573   9.855   5.068   6.446 -2.3742  2.6022 -2.4209
84321SOL    HW270574   9.854   4.939   6.366  0.8328  1.6280 -1.0217
84322SOL     OW70575   3.239   6.347   1.989  0.1209 -0.2972  0.3400
84322SOL    HW170576   3.170   6.412   2.002  0.0899 -0.5140  1.3325
84322SOL    HW270577   3.204   6.266   2.027  1.7254  0.1034  2.9443
84323SOL     OW70578  13.432   6.680  12.373 -0.2369  0.8683  0.1841
84323SOL    HW170579  13.495   6.744  12.341 -0.5224  0.4832 -1.2121
84323SOL    HW270580  13.371   6.731  12.426  0.2804  1.5314  0.1523
84324SOL     OW70581   4.836   9.065  13.961  0.2174  0.6043 -1.0098
84324SOL    HW170582   4.780   9.032  13.890  0.9995  1.1743 -1.9229
84324SOL    HW270583   4.916   9.014  13.955 -0.1793 -0.2218  0.3086
84325SOL     OW70584  11.013   5.788   9.228  0.4190 -0.0295 -0.4915
84325SOL    HW170585  10.920   5.765   9.238  0.0859  1.4720  0.1901
84325SOL    HW270586  11.059   5.705   9.235 -0.9330 -1.0114 -2.1856
84326SOL     OW70587  12.561   2.346   7.375 -0.2851  0.1764  0.2567
84326SOL    HW170588  12.537   2.358   7.467 -0.4821 -0.6867  0.3303
84326SOL    HW270589  12.480   2.360   7.327  0.0344  1.6601  0.1088
84327SOL     OW70590   0.152  11.488   5.315  0.1523  0.1452 -0.2505
84327SOL    HW170591   0.172  11.473   5.407 -0.6184 -1.8963 -0.3614
84327SOL    HW270592   0.064  11.528   5.315 -0.3002 -0.8270 -0.1138
84328SOL     OW70593   4.334  11.169   6.499  0.2949 -0.1240 -0.3358
84328SOL    HW170594   4.267  11.236   6.485 -1.4310 -1.4269  1.3098
84328SOL    HW270595   4.415  11.219   6.509 -0.7593  1.6430 -0.2272
84329SOL     OW70596  14.045   6.904   6.331 -0.0715  0.4103 -0.2631
84329SOL    HW170597  13.995   6.832   6.370 -0.0957  0.4772 -0.1698
84329SOL    HW270598  14.015   6.908   6.241  0.8828 -0.5613 -0.6536
84330SOL     OW70599   1.585   9.686  10.988 -0.2053 -0.4376  0.3989
84330SOL    HW170600   1.515   9.748  10.969 -0.3164 -0.4776  0.6735
84330SOL    HW270601   1.553   9.602  10.954 -0.1311 -0.3836  0.1900
84331SOL     OW70602   2.124  12.683   4.696  0.2687  0.4643  0.3167
84331SOL    HW170603   2.199  12.662   4.642  0.0848  1.5765 -0.3870
84331SOL    HW270604   2.127  12.618   4.767  2.4079  1.0591  0.8329
84332SOL     OW70605   2.672   0.781   9.350 -0.5388 -0.0263 -0.0048
84332SOL    HW170606   2.699   0.690   9.367  2.2540  0.9382  1.3087
84332SOL    HW270607   2.723   0.806   9.273 -2.3016  0.1051 -1.1981
84333SOL     OW70608   1.196   7.014   3.045  0.1785 -0.2088 -0.0393
84333SOL    HW170609   1.119   7.050   3.087 -0.1742  0.1371 -0.9553
84333SOL    HW270610   1.194   7.048   2.955  1.8977  0.5636  0.1721
84334SOL     OW70611  13.213   9.361  12.534  0.3727 -0.5335 -0.2799
84334SOL    HW170612  13.209   9.426  12.604  1.0106 -0.9094  0.1192
84334SOL    HW270613  13.123   9.330  12.525 -0.1827  1.1972 -1.2625
84335SOL     OW70614   9.786  11.426   1.685 -0.5527  0.7945 -0.5481
84335SOL    HW170615   9.697  11.458   1.699 -1.0283 -1.1349  1.3569
84335SOL    HW270616   9.836  11.458   1.760 -0.3844 -0.5279 -0.0606
84336SOL     OW70617   9.040   2.937   9.458 -0.0374  0.4190  0.4778
84336SOL    HW170618   8.961   2.904   9.415  0.2607  3.0062 -2.3924
84336SOL    HW270619   9.008   3.006   9.517 -0.0346  0.8514 -0.0152
84337SOL     OW70620   9.530   2.183   7.868 -0.2029  0.2169 -0.4682
84337SOL    HW170621   9.518   2.143   7.953  0.7367 -0.2611 -0.5470
84337SOL    HW270622   9.597   2.250   7.882 -1.9184  1.9876 -0.2830
84338SOL     OW70623   8.051   5.381   0.311  0.3028  0.0463  0.1972
84338SOL    HW170624   8.043   5.476   0.316 -0.0061  0.0650 -0.5560
84338SOL    HW270625   7.982   5.347   0.367  1.3888  0.2616  1.7290
84339SOL     OW70626  10.321   5.954   0.084 -0.0244 -0.0724  1.0792
84339SOL    HW170627  10.244   5.901   0.063 -0.3975  0.6494  0.5901
84339SOL    HW270628  10.318   5.964   0.179 -0.1285 -0.6441  1.1407
84340SOL     OW70629  11.330   6.974   2.665  0.2824 -0.2043  0.3849
84340SOL    HW170630  11.378   6.978   2.748  0.9389  0.3203 -0.0066
84340SOL    HW270631  11.360   7.052   2.617  0.2005 -0.7096 -0.4979
84341SOL     OW70632   5.981   5.264   0.353 -0.0956  0.0550  0.0183
84341SOL    HW170633   6.024   5.211   0.420 -1.4712 -2.0634 -0.6965
84341SOL    HW270634   6.046   5.331   0.331  1.1644 -0.4351  1.9873
84342SOL     OW70635   9.523   2.761   4.412 -0.0693 -0.1135 -0.7743
84342SOL    HW170636   9.611   2.785   4.441 -0.1251  0.5764 -1.1599
84342SOL    HW270637   9.493   2.696   4.476 -0.3882  1.7268  1.0285
84343SOL     OW70638   2.648   6.809  12.511  0.1039  0.9900 -0.1522
84343SOL    HW170639   2.566   6.850  12.537  0.6111  0.9362  1.6606
84343SOL    HW270640   2.679   6.764  12.589  1.3244  0.0929 -1.1000
84344SOL     OW70641   2.868   7.400   9.121  0.2344  0.0126  0.0233
84344SOL    HW170642   2.877   7.311   9.088  2.0675  0.9328 -2.3224
84344SOL    HW270643   2.804   7.441   9.062 -0.4340  0.3395  0.9459
84345SOL     OW70644   0.852  10.006   2.906  0.1201 -0.1461  0.1257
84345SOL    HW170645   0.854  10.035   2.997  1.3985 -0.1740  0.1231
84345SOL    HW270646   0.800   9.925   2.908  1.3662 -0.9729  1.1106
84346SOL     OW70647   3.380  12.182   5.083  0.6029 -0.0834  0.8928
84346SOL    HW170648   3.305  12.241   5.070 -0.6041 -1.8096 -0.4192
84346SOL    HW270649   3.447  12.217   5.024 -1.1162 -1.5497 -2.1842
84347SOL     OW70650  13.936   0.003   2.890  0.0583  0.6994 -0.6925
84347SOL    HW170651  13.846  -0.028   2.904 -0.0238  1.3062  0.1535
84347SOL    HW270652  13.990  -0.074   2.906 -0.2131  0.7177  0.3891
84348SOL     OW70653   6.059   4.244  12.168 -0.0890  0.0470  0.0106
84348SOL    HW170654   5.979   4.198  12.143  0.2512 -0.0181 -0.9808
84348SOL    HW270655   6.028   4.319  12.220 -0.7241 -0.5281  0.4883
84349SOL     OW70656   3.245   5.822   7.902  0.4121  0.0166  0.1459
84349SOL    HW170657   3.331   5.850   7.932 -0.0187  1.5623  0.0421
84349SOL    HW270658   3.262   5.778   7.818  1.0783  0.6271 -0.0486
84350SOL     OW70659  10.745   2.340   6.433  0.1625  0.2078  0.3401
84350SOL    HW170660  10.788   2.255   6.440 -2.9218 -1.6512 -1.2338
84350SOL    HW270661  10.658   2.325   6.470 -0.7502  2.4609 -0.7456
84351SOL     OW70662  11.511   5.472   1.446  0.6088  0.1087  0.3921
84351SOL    HW170663  11.555   5.402   1.495  1.1509  1.6901  2.2776
84351SOL    HW270664  11.544   5.553   1.485 -1.8852  1.4159 -0.0098
84352SOL     OW70665   8.978   9.351   0.663 -0.1050  0.2490  0.4037
84352SOL    HW170666   9.004   9.329   0.753  0.4472  0.9434  0.4176
84352SOL    HW270667   8.972   9.446   0.662  0.4582  0.2846 -0.4453
84353SOL     OW70668   2.334   4.100  13.022  0.3418 -0.8740 -0.1937
84353SOL    HW170669   2.253   4.145  13.046  0.9281  0.5123 -0.7088
84353SOL    HW270670   2.403   4.151  13.064  1.0621 -1.0292 -1.1602
84354SOL     OW70671   3.630  13.772   4.733  0.3276 -0.5374 -0.8515
84354SOL    HW170672   3.582  13.779   4.816 -0.0211  0.3585 -1.1170
84354SOL    HW270673   3.722  13.783   4.759  0.0804  2.1512 -0.7991
84355SOL     OW70674   4.031   8.405   5.741  0.2537  0.6379 -0.4040
84355SOL    HW170675   3.961   8.348   5.771  0.3149  1.1717  0.8033
84355SOL    HW270676   4.109   8.349   5.741  0.5082  0.9161  1.7105
84356SOL     OW70677   4.067   6.787   5.214 -0.0589  0.5143  0.3338
84356SOL    HW170678   4.013   6.802   5.292  0.5803 -0.6614  1.0338
84356SOL    HW270679   4.157   6.806   5.243  0.1935 -0.0013 -0.0886
84357SOL     OW70680  11.270  12.075   3.545 -0.2992  0.3049  0.2625
84357SOL    HW170681  11.287  12.066   3.638 -2.1165  0.3770  0.6471
84357SOL    HW270682  11.345  12.124   3.511 -0.1035  1.1779  1.8802
84358SOL     OW70683  12.783   6.591   4.979  0.0870 -0.1875  0.2053
84358SOL    HW170684  12.737   6.597   5.063 -2.1680 -1.4261 -0.8682
84358SOL    HW270685  12.730   6.644   4.920  1.4356  0.3374 -0.5760
84359SOL     OW70686   1.467   8.214   9.410 -0.2422 -0.2842 -0.1292
84359SOL    HW170687   1.454   8.149   9.341 -1.9123  0.6820 -0.7942
84359SOL    HW270688   1.438   8.296   9.371 -0.1519  0.4930  1.3565
84360SOL     OW70689   1.966  13.273  12.780  0.1076 -0.5151 -0.0679
84360SOL    HW170690   2.054  13.298  12.806 -0.4091  0.8954  0.4405
84360SOL    HW270691   1.952  13.317  12.696 -0.0384 -0.9106 -0.2549
84361SOL     OW70692   0.601   6.694   5.868 -0.1910 -0.8810 -0.0711
84361SOL    HW170693   0.674   6.703   5.807  1.7022  0.4111  2.2033
84361SOL    HW270694   0.582   6.784   5.896 -1.8075 -1.3188  0.3502
84362SOL     OW70695   7.728  10.050  12.550 -0.1610 -0.4616 -0.0912
84362SOL    HW170696   7.675  10.047  12.629 -0.5321  0.2855 -0.3036
84362SOL    HW270697   7.697   9.975  12.498  1.0556 -1.8051  1.0505
84363SOL     OW70698   0.095   4.076   3.606 -0.1740 -0.3925 -0.0375
84363SOL    HW170699   0.052   4.053   3.524 -2.4460  0.4952  0.8089
84363SOL    HW270700   0.092   4.171   3.609 -0.3523 -0.4167  1.1722
84364SOL     OW70701   8.585   0.500   8.731  0.3138 -0.2954 -0.2123
84364SOL    HW170702   8.554   0.471   8.817  1.4633  1.1474  0.7294
84364SOL    HW270703   8.599   0.418   8.683 -0.0066 -1.1588  1.0919
84365SOL     OW70704   2.557   6.337   6.029  0.2692 -0.2451  0.1852
84365SOL    HW170705   2.603   6.301   5.953 -0.9247 -3.0593  0.6699
84365SOL    HW270706   2.516   6.417   5.996  1.1605 -0.4822 -1.6521
84366SOL     OW70707  10.040  11.008   3.248 -0.0265  0.2288  0.1095
84366SOL    HW170708  10.133  11.030   3.258  0.1450 -0.4145  0.0344
84366SOL    HW270709  10.007  11.070   3.184  0.6496 -0.3004 -0.7743
84367SOL     OW70710   6.065   9.951   0.899 -0.4631  0.0850  0.2052
84367SOL    HW170711   6.005   9.882   0.875  0.1684 -0.4366  0.0971
84367SOL    HW270712   6.132   9.908   0.953 -0.0517  0.5973  0.1230
84368SOL     OW70713   8.527   5.697   5.844  0.5822  0.1838  0.8024
84368SOL    HW170714   8.526   5.722   5.937  1.2464  2.2759  0.3081
84368SOL    HW270715   8.450   5.741   5.807 -0.5210 -1.8379  0.5969
84369SOL     OW70716   5.462   1.684   3.875 -0.0189 -0.1837 -0.2207
84369SOL    HW170717   5.410   1.618   3.921  0.3113  0.3771  1.0121
84369SOL    HW270718   5.537   1.700   3.933 -0.3127  1.5777 -0.2510
84370SOL     OW70719  13.755   8.540   7.533  0.2486  0.5672 -0.3651
84370SOL    HW170720  13.836   8.585   7.509  1.3152 -1.4928 -0.8811
84370SOL    HW270721  13.720   8.507   7.450 -0.8631  0.9781 -0.0843
84371SOL     OW70722   9.911   1.072  12.907 -0.3210 -0.0036  0.0636
84371SOL    HW170723   9.894   1.165  12.892  2.1831  0.5712  0.4309
84371SOL    HW270724   9.886   1.057  12.998 -0.6474  0.3078  0.0277
84372SOL     OW70725  11.538  11.351   4.268 -0.3250 -0.2389  0.1940
84372SOL    HW170726  11.548  11.258   4.289 -1.7901 -0.7638 -1.3043
84372SOL    HW270727  11.445  11.370   4.282  0.2773  1.5979  2.5573
84373SOL     OW70728   7.497   0.849   6.884  0.2134  0.5926 -0.2862
84373SOL    HW170729   7.519   0.779   6.945 -0.2658 -0.5202 -1.3560
84373SOL    HW270730   7.580   0.870   6.842  0.1000 -0.4587 -1.0860
84374SOL     OW70731  13.092   5.531   8.780 -0.1047  0.6934 -0.5012
84374SOL    HW170732  13.002   5.513   8.755  0.1222  0.2037 -1.0067
84374SOL    HW270733  13.145   5.480   8.718  0.5163 -2.6444  2.4826
84375SOL     OW70734   1.778   7.744   8.874  0.4406 -0.4076  0.0261
84375SOL    HW170735   1.730   7.788   8.804  1.3885 -0.6306 -0.7876
84375SOL    HW270736   1.727   7.664   8.891 -0.7520  0.5004  0.8400
84376SOL     OW70737  13.567   0.032   0.132  0.1907  0.4525 -0.1878
84376SOL    HW170738  13.632   0.014   0.199  0.4757  0.1775 -0.5352
84376SOL    HW270739  13.497  -0.031   0.149  0.1267  0.5812  0.0312
84377SOL     OW70740   8.033   8.757   4.467  0.0138 -0.0583 -0.8257
84377SOL    HW170741   8.030   8.758   4.563  0.6897 -1.1990 -0.7696
84377SOL    HW270742   8.023   8.849   4.442  1.3243  0.4532  0.3908
84378SOL     OW70743   9.578  11.609  10.940 -0.1718 -0.0618  1.0927
84378SOL    HW170744   9.672  11.599  10.951 -0.4046 -3.2070  1.2418
84378SOL    HW270745   9.540  11.567  11.018 -1.6643 -1.9877 -0.5688
84379SOL     OW70746  14.028   5.782   6.418  0.0944  0.1616 -0.0210
84379SOL    HW170747  14.044   5.821   6.504  0.1476  1.2963 -0.5235
84379SOL    HW270748  14.070   5.842   6.357 -1.6057  0.4117 -0.9912
84380SOL     OW70749  12.726  10.256  13.644  0.3954  0.1023 -0.0631
84380SOL    HW170750  12.774  10.337  13.661 -0.3781  0.3947  0.7363
84380SOL    HW270751  12.635  10.282  13.635  0.1487 -0.6634  0.0827
84381SOL     OW70752   5.280   0.549   9.229 -0.0956 -0.4486  0.9353
84381SOL    HW170753   5.302   0.567   9.321  2.0471 -1.3465  0.6453
84381SOL    HW270754   5.213   0.481   9.234  1.3136 -1.8483  1.8708
84382SOL     OW70755   5.911   9.718   0.831 -0.2910  0.4699 -0.2368
84382SOL    HW170756   5.923   9.710   0.736 -1.2313 -0.4878 -0.2911
84382SOL    HW270757   5.829   9.673   0.849 -0.8746  1.9101  0.8526
84383SOL     OW70758  11.834  12.764   2.703  0.5561  0.0122  0.2308
84383SOL    HW170759  11.920  12.743   2.668  1.2848 -0.4944  2.2355
84383SOL    HW270760  11.794  12.679   2.722  0.1700  0.2711  0.6030
84384SOL     OW70761   4.509  10.978   1.217 -0.3221  0.1336  0.1552
84384SOL    HW170762   4.576  10.935   1.271 -0.5631 -1.3335 -0.6616
84384SOL    HW270763   4.427  10.937   1.244 -0.4683 -0.4939 -1.1817
84385SOL     OW70764   3.741   4.235   3.196 -0.0072 -0.0896 -0.0859
84385SOL    HW170765   3.814   4.263   3.253  1.9683 -1.4354 -1.8021
84385SOL    HW270766   3.761   4.143   3.177 -1.0750  0.0895 -2.2427
84386SOL     OW70767  12.067   8.443  10.047 -0.2090 -0.6178  0.6898
84386SOL    HW170768  12.019   8.520  10.019  2.4736  0.8995 -0.0843
84386SOL    HW270769  12.158   8.473  10.056  0.7553 -3.4359  1.4172
84387SOL     OW70770   6.975   2.074   7.049 -0.2652 -0.4371  0.8241
84387SOL    HW170771   6.988   2.141   6.982 -0.9252 -1.7543 -0.6676
84387SOL    HW270772   6.989   1.991   7.003 -0.7417 -1.3803  2.3193
84388SOL     OW70773   5.932  11.267  12.142 -0.1040 -0.0423  0.9043
84388SOL    HW170774   5.877  11.266  12.220 -3.1285  1.8166 -0.9966
84388SOL    HW270775   5.984  11.347  12.150  0.7874 -0.6796  1.6947
84389SOL     OW70776   9.136  11.149  10.047 -0.5619  0.2063 -0.3405
84389SOL    HW170777   9.119  11.072   9.992 -0.9001  0.1222 -0.1190
84389SOL    HW270778   9.136  11.114  10.137  1.5753  0.0314 -0.3397
84390SOL     OW70779  13.462   4.957   3.894  0.1998 -0.0949  0.5604
84390SOL    HW170780  13.493   5.025   3.834  2.1000 -1.4908 -0.1483
84390SOL    HW270781  13.434   5.005   3.972  2.1790  1.4959  0.3796
84391SOL     OW70782   5.941   1.713   2.031  0.3737 -0.4336  0.2341
84391SOL    HW170783   5.968   1.640   1.976  0.2082  1.2425 -2.2653
84391SOL    HW270784   5.864   1.749   1.987 -0.1431  0.6573  1.9225
84392SOL     OW70785   0.317  10.466   4.507  0.2995 -0.3730 -0.5461
84392SOL    HW170786   0.309  10.561   4.494 -3.6584 -0.5545 -0.6085
84392SOL    HW270787   0.331  10.431   4.419  3.3794  0.1007 -0.3667
84393SOL     OW70788   1.820   0.707   0.986 -0.0895 -0.3765  0.1888
84393SOL    HW170789   1.814   0.800   0.962  0.2615 -0.7365 -1.4219
84393SOL    HW270790   1.909   0.682   0.961  0.2049 -0.8905  1.6648
84394SOL     OW70791   0.800  11.382   0.262 -0.0876 -0.3047  0.6430
84394SOL    HW170792   0.881  11.417   0.223  0.6633 -0.4542  2.0080
84394SOL    HW270793   0.736  11.386   0.191  0.7284  1.1870 -0.0656
84395SOL     OW70794   1.099   5.125   7.687  0.0782  0.5637  0.1097
84395SOL    HW170795   1.159   5.140   7.614 -1.4479 -1.4922 -1.7372
84395SOL    HW270796   1.022   5.177   7.665  0.2479  1.2886  1.1976
84396SOL     OW70797   7.773  12.578   1.175 -0.3204  0.0149 -0.1161
84396SOL    HW170798   7.863  12.602   1.150  0.0582 -0.9498  0.2632
84396SOL    HW270799   7.770  12.593   1.269 -0.8651  0.9342 -0.2653
84397SOL     OW70800   1.958   8.870   0.007 -0.5631  0.0350 -0.0607
84397SOL    HW170801   2.021   8.877   0.078 -0.6371 -1.9078  0.2584
84397SOL    HW270802   1.958   8.956  -0.035 -0.7914  1.3847  2.5042
84398SOL     OW70803   6.125  13.876   7.535  0.0608 -0.1123  0.3220
84398SOL    HW170804   6.132  13.794   7.484 -0.7402  0.1265 -0.1965
84398SOL    HW270805   6.203  13.877   7.589  0.5609 -0.7625 -0.3599
84399SOL     OW70806  12.179  11.210  11.089 -0.1058 -0.4909 -0.7977
84399SOL    HW170807  12.125  11.131  11.084  1.0535 -1.7828  3.2487
84399SOL    HW270808  12.148  11.256  11.167  0.5171  2.1486 -1.9862
84400SOL     OW70809   1.001   7.740   9.676 -0.2155  0.1118 -0.2758
84400SOL    HW170810   0.939   7.754   9.748  0.2304 -0.5944  0.2566
84400SOL    HW270811   0.952   7.765   9.598 -1.4561 -1.1624  0.0489
84401SOL     OW70812   1.624  13.832   8.863 -0.2083  0.0709  0.3343
84401SOL    HW170813   1.619  13.788   8.778 -0.9058  1.0199 -0.1303
84401SOL    HW270814   1.718  13.850   8.875 -0.2248  1.1024 -0.8588
84402SOL     OW70815   2.595   3.029   3.793  0.0408 -0.0764  0.3359
84402SOL    HW170816   2.605   2.978   3.713  2.3400 -0.7230  0.9594
84402SOL    HW270817   2.648   3.107   3.779 -0.0210  0.0875  0.9878
84403SOL     OW70818  13.765  13.967   9.659  0.0690 -0.2639 -0.4205
84403SOL    HW170819  13.832  14.026   9.625 -0.7957  0.1617 -1.4393
84403SOL    HW270820  13.683  14.014   9.646 -0.3654 -0.2615  1.9151
84404SOL     OW70821  11.211   9.049   6.190  0.8497 -0.5142  0.3463
84404SOL    HW170822  11.272   9.117   6.161 -0.4793  0.4286 -0.3392
84404SOL    HW270823  11.130   9.068   6.143 -0.2753 -1.1491  1.9526
84405SOL     OW70824   2.306   3.734   4.908 -0.4495 -0.0192 -0.2947
84405SOL    HW170825   2.262   3.808   4.949 -0.9871  0.4382 -1.6668
84405SOL    HW270826   2.250   3.659   4.928 -1.0391  0.3037 -0.7112
84406SOL     OW70827   0.760   8.504   3.557  0.0855 -0.3494  0.1926
84406SOL    HW170828   0.779   8.429   3.500 -1.5804 -0.5022 -0.2194
84406SOL    HW270829   0.703   8.561   3.504  0.8382  0.9189  0.7138
84407SOL     OW70830   5.922  12.057   2.714 -0.0033 -0.0636  0.5158
84407SOL    HW170831   5.992  12.120   2.695 -1.1105  1.1649  0.3851
84407SOL    HW270832   5.965  11.988   2.765  1.7098 -0.3307 -1.1478
84408SOL     OW70833   0.447   5.555   1.186  0.0721  0.1035  0.2771
84408SOL    HW170834   0.450   5.647   1.215 -1.7663  0.5991 -0.8644
84408SOL    HW270835   0.493   5.555   1.102 -1.0785  0.3204 -0.3850
84409SOL     OW70836   7.813  10.074   6.280  0.2662 -0.0138 -0.0600
84409SOL    HW170837   7.802   9.996   6.334  1.5766 -0.6484 -0.6642
84409SOL    HW270838   7.728  10.085   6.236  0.4307 -1.8536 -0.9215
84410SOL     OW70839  12.294   5.479   8.632 -0.0759  0.8878 -0.4317
84410SOL    HW170840  12.268   5.396   8.673  1.0745  2.2462  3.4760
84410SOL    HW270841  12.212   5.527   8.621 -0.4531  0.4537  0.3399
84411SOL     OW70842   3.789  13.054  10.418  0.1965  0.1226  0.2324
84411SOL    HW170843   3.734  13.103  10.479 -0.1509 -0.1802  0.1683
84411SOL    HW270844   3.845  13.120  10.377  1.2200  0.2132  1.6735
84412SOL     OW70845  11.799   4.541   6.112 -0.5346 -0.2514 -0.7784
84412SOL    HW170846  11.844   4.558   6.029 -0.2599 -0.5778 -0.7015
84412SOL    HW270847  11.706   4.541   6.091 -0.6938  2.7305 -0.5575
84413SOL     OW70848   2.840  12.144   6.044 -0.1905  0.5680 -0.6873
84413SOL    HW170849   2.785  12.071   6.073  0.5204  0.8858  1.6537
84413SOL    HW270850   2.835  12.140   5.948 -2.8691 -0.4622 -0.6115
84414SOL     OW70851   2.187   4.161   3.321 -0.2352  0.0678  0.2844
84414SOL    HW170852   2.166   4.229   3.257  0.7797 -0.0624 -0.2056
84414SOL    HW270853   2.157   4.196   3.405  0.4536  1.2118  0.0646
84415SOL     OW70854   3.562   6.577   5.152  0.1546  0.2102 -0.2517
84415SOL    HW170855   3.585   6.524   5.229  0.7641  0.7144 -0.0824
84415SOL    HW270856   3.520   6.515   5.092 -0.3977 -0.1782  0.5135
84416SOL     OW70857   6.965  10.416  13.351 -0.0467  0.0666 -0.0139
84416SOL    HW170858   6.923  10.331  13.361 -1.2446  0.4622 -1.4379
84416SOL    HW270859   6.892  10.478  13.343  0.8064  1.2037  0.6945
84417SOL     OW70860   8.926   6.441   5.842 -0.1657 -0.4055 -0.0348
84417SOL    HW170861   8.853   6.496   5.869  1.1581  1.4162  0.0316
84417SOL    HW270862   8.968   6.414   5.924  1.1024  1.2652 -0.0764
84418SOL     OW70863   1.634   1.011  13.351  0.8979  0.3725  0.1710
84418SOL    HW170864   1.696   1.011  13.424  1.0032  2.3888  0.1288
84418SOL    HW270865   1.646   0.925  13.310  1.3451 -0.5322  2.0712
84419SOL     OW70866   3.331   3.617  11.813 -0.0221  0.4081 -0.5668
84419SOL    HW170867   3.425   3.603  11.799  0.2361  0.1194  1.2192
84419SOL    HW270868   3.291   3.596  11.728  1.2723 -2.1462 -0.6421
84420SOL     OW70869  13.624   3.325   6.598 -0.6740  0.4031 -0.1568
84420SOL    HW170870  13.711   3.292   6.622 -0.5317  0.8921  0.0274
84420SOL    HW270871  13.615   3.303   6.505 -1.6025 -2.3099  0.4862
84421SOL     OW70872   7.704   1.171   4.606 -0.1729  0.4282 -0.4501
84421SOL    HW170873   7.663   1.104   4.551 -1.1766  1.0804 -0.5254
84421SOL    HW270874   7.785   1.130   4.637 -0.0293 -0.2739 -1.6871
84422SOL     OW70875   5.198  11.919   4.914 -0.3462  0.0737  0.2476
84422SOL    HW170876   5.286  11.951   4.932 -0.8484  1.5981  0.1094
84422SOL    HW270877   5.148  11.941   4.993 -1.0140  0.8140 -0.3709
84423SOL     OW70878   9.231   0.462  13.595  0.5552  0.0340  0.2413
84423SOL    HW170879   9.209   0.551  13.622 -2.0683  0.0757 -1.6102
84423SOL    HW270880   9.271   0.422  13.672  2.1319  2.8683  1.0148
84424SOL     OW70881   7.461  13.590  10.420  0.0105 -0.2165 -0.7995
84424SOL    HW170882   7.455  13.682  10.394 -0.5002  0.1872  0.6044
84424SOL    HW270883   7.437  13.591  10.513  0.5006 -1.7048 -0.6377
84425SOL     OW70884   6.521  12.176   1.716 -0.1241 -0.4074 -0.4330
84425SOL    HW170885   6.563  12.169   1.630  1.5195 -0.3752  0.3119
84425SOL    HW270886   6.483  12.263   1.718  2.9819  1.0711  0.1236
84426SOL     OW70887   9.876   0.037   6.337  0.0792  0.3947 -0.1055
84426SOL    HW170888   9.814   0.110   6.350  1.4377  1.9798 -1.8508
84426SOL    HW270889   9.828  -0.024   6.281 -1.5258 -0.7550  2.3808
84427SOL     OW70890   0.752   8.985   9.092  0.3526 -0.1379 -0.2493
84427SOL    HW170891   0.667   9.021   9.114  0.8155  1.1966 -0.5531
84427SOL    HW270892   0.737   8.931   9.014 -0.3346 -0.5281  0.1529
84428SOL     OW70893  12.520   7.017   1.667 -0.1758  0.6809 -0.0993
84428SOL    HW170894  12.534   7.056   1.580  0.6997 -0.5333 -0.5359
84428SOL    HW270895  12.426   7.024   1.682 -0.2962  1.1860 -1.0113
84429SOL     OW70896   7.296   0.880  10.906 -0.4748  0.1426 -0.0608
84429SOL    HW170897   7.237   0.926  10.846 -0.9170 -1.5529 -0.9808
84429SOL    HW270898   7.348   0.823  10.850 -0.1780 -0.7316  1.0686
84430SOL     OW70899  12.840   6.545   6.198 -0.4457  0.4456  0.1226
84430SOL    HW170900  12.833   6.466   6.144 -0.2775  0.3215  0.2786
84430SOL    HW270901  12.767   6.540   6.258  0.2423 -0.2158  0.9343
84431SOL     OW70902   6.326   2.520   2.884 -0.9281  0.1503  0.3148
84431SOL    HW170903   6.245   2.475   2.908 -0.5614  0.1150  1.5903
84431SOL    HW270904   6.297   2.609   2.861 -1.3601  0.0617  0.4898
84432SOL     OW70905   6.285  12.408   9.331 -0.7379 -0.0439  0.7656
84432SOL    HW170906   6.190  12.410   9.342 -0.7609 -0.9957  0.8171
84432SOL    HW270907   6.306  12.315   9.325 -0.0296  0.1826 -1.1483
84433SOL     OW70908   3.725   4.821   2.970  0.3447 -0.3090  0.2062
84433SOL    HW170909   3.745   4.889   3.035 -0.7259 -0.4811  0.7300
84433SOL    HW270910   3.753   4.740   3.012 -0.8762 -0.4865  0.7104
84434SOL     OW70911  11.154   8.688   4.329 -0.5119 -0.0250  0.1555
84434SOL    HW170912  11.063   8.714   4.342  0.2709  2.9787  0.5650
84434SOL    HW270913  11.186   8.670   4.417 -0.4022  0.2018  0.1635
84435SOL     OW70914  12.741  11.851   1.389 -0.0071 -0.0215 -0.0207
84435SOL    HW170915  12.668  11.889   1.340  0.2844  0.1945 -0.2903
84435SOL    HW270916  12.752  11.909   1.464  0.3470  0.3534 -0.3577
84436SOL     OW70917  14.050  11.742   7.367 -0.2356  0.2580 -0.4420
84436SOL    HW170918  14.145  11.728   7.371 -0.4225 -0.9825  2.4302
84436SOL    HW270919  14.013  11.654   7.377 -1.7618  0.5945 -2.5093
84437SOL     OW70920  10.136   4.482   9.908  0.0722 -0.1131 -0.7562
84437SOL    HW170921  10.096   4.447   9.829 -1.5314  0.8861 -0.4184
84437SOL    HW270922  10.068   4.535   9.949  0.7146 -0.9303  1.5283
84438SOL     OW70923  10.170   3.777   0.667  0.3719 -0.5548 -0.3921
84438SOL    HW170924  10.156   3.684   0.651  0.4555 -0.2105 -2.8300
84438SOL    HW270925  10.260   3.793   0.638  0.6975  0.1192  0.9163
84439SOL     OW70926   7.322   1.661   3.815  0.2495  0.2528 -0.2471
84439SOL    HW170927   7.241   1.707   3.836 -0.5344 -0.9086 -0.6205
84439SOL    HW270928   7.389   1.729   3.814 -0.6459  1.1694  0.4768
84440SOL     OW70929  12.125   0.649   1.264 -0.0567 -0.0856 -0.4546
84440SOL    HW170930  12.175   0.573   1.235 -0.1773 -0.8792  1.2647
84440SOL    HW270931  12.151   0.662   1.355 -1.8595  0.3916  0.0464
84441SOL     OW70932  10.146   5.540   1.748 -0.4824 -0.3743  0.6382
84441SOL    HW170933  10.169   5.526   1.656 -0.2533  2.2338  0.2181
84441SOL    HW270934  10.053   5.519   1.753 -0.0587 -2.5439  0.3367
84442SOL     OW70935  11.539   5.613   9.436 -0.1368 -0.1899 -0.1246
84442SOL    HW170936  11.513   5.543   9.495  0.8019  0.1717  0.7528
84442SOL    HW270937  11.457   5.655   9.410 -0.5056  0.6158  2.1533
84443SOL     OW70938  14.040   7.966  11.757 -0.0178 -0.1503 -0.4335
84443SOL    HW170939  14.094   7.963  11.679 -0.7370  0.5695 -0.9763
84443SOL    HW270940  14.056   7.883  11.801  1.5935  0.0862 -0.5202
84444SOL     OW70941  11.976   4.737   0.234 -0.3614 -0.0114 -0.4021
84444SOL    HW170942  11.908   4.684   0.193 -0.5946  1.3407 -1.8435
84444SOL    HW270943  12.010   4.682   0.304 -2.6125 -0.8889  0.0672
84445SOL     OW70944   2.588   3.391  11.325 -0.2544  0.3840 -0.4363
84445SOL    HW170945   2.571   3.317  11.267 -0.2678 -0.8935  1.1214
84445SOL    HW270946   2.509   3.396  11.380  1.1209 -0.7294  1.7927
84446SOL     OW70947   1.905  10.178   9.930  0.1500  0.1836 -0.4284
84446SOL    HW170948   1.984  10.224   9.900  0.4763  0.2969  0.5555
84446SOL    HW270949   1.833  10.237   9.909  0.5141  0.9114  0.3286
84447SOL     OW70950   9.523  12.113   4.724 -0.0484 -0.3971 -0.3781
84447SOL    HW170951   9.432  12.112   4.754  0.1067  0.9129  0.2602
84447SOL    HW270952   9.574  12.108   4.805  0.4248 -0.1687 -0.6566
84448SOL     OW70953   5.693  14.088  11.975  0.3669 -1.2605  0.9976
84448SOL    HW170954   5.642  14.031  11.917  0.9922 -0.7164 -0.1223
84448SOL    HW270955   5.627  14.138  12.023 -0.1894 -0.5400 -0.4531
84449SOL     OW70956   3.656   9.618   1.638 -0.0653  0.2029  0.5598
84449SOL    HW170957   3.640   9.547   1.576 -0.6929  0.6405  0.1961
84449SOL    HW270958   3.748   9.640   1.626 -0.6368  1.7849 -1.9267
84450SOL     OW70959   4.752   3.336   1.254  0.3490  0.0092 -0.0580
84450SOL    HW170960   4.764   3.410   1.194  0.6848 -2.0531 -2.6985
84450SOL    HW270961   4.720   3.265   1.198 -1.6494 -1.4122  2.6598
84451SOL     OW70962   4.940   7.101   3.095  1.0118  0.1069 -0.6405
84451SOL    HW170963   4.859   7.110   3.044  1.3184  0.8357 -1.0224
84451SOL    HW270964   5.009   7.096   3.030  1.1179 -3.2457 -0.4199
84452SOL     OW70965   9.564   3.662   6.149 -0.0153 -0.4632 -0.2812
84452SOL    HW170966   9.549   3.752   6.177 -0.9364 -0.1349 -1.7086
84452SOL    HW270967   9.637   3.631   6.203  0.9251  1.4402 -0.3890
84453SOL     OW70968  10.219   3.212   9.099 -0.1980  0.2999 -0.2590
84453SOL    HW170969  10.168   3.180   9.025  1.8917 -2.0707 -0.7892
84453SOL    HW270970  10.208   3.146   9.167  0.3138  0.9426  0.4776
84454SOL     OW70971   5.420   4.069   1.337 -0.5065  0.0305 -0.5584
84454SOL    HW170972   5.509   4.055   1.307  0.2627  2.2333  0.4586
84454SOL    HW270973   5.426   4.070   1.433 -2.0355 -1.9573 -0.3716
84455SOL     OW70974  10.788   6.659  12.953  0.2905  0.5766  0.2523
84455SOL    HW170975  10.734   6.608  13.013  1.2078  2.3793  2.7937
84455SOL    HW270976  10.841   6.594  12.906  0.8764 -0.9069  2.7819
84456SOL     OW70977   2.326   1.292   9.645 -0.0287 -0.3526  0.2001
84456SOL    HW170978   2.294   1.338   9.723 -0.8467  0.1771 -0.4231
84456SOL    HW270979   2.374   1.359   9.596 -2.6969  0.4610 -1.5850
84457SOL     OW70980   2.943   4.276   6.506 -0.2268 -0.6871 -0.5750
84457SOL    HW170981   3.003   4.202   6.503  2.0673  1.0049  0.2174
84457SOL    HW270982   2.948   4.314   6.418  1.8310  0.7995  0.0972
84458SOL     OW70983  10.093  13.075   7.974  0.9036 -0.0142 -0.4890
84458SOL    HW170984  10.112  13.145   8.037  3.5419 -1.3381  0.3415
84458SOL    HW270985  10.154  13.091   7.902  1.4558 -1.3536 -0.3397
84459SOL     OW70986   5.372   1.930   6.581 -0.0559 -0.2209  0.0409
84459SOL    HW170987   5.416   1.993   6.523  0.6369 -1.4036 -0.7668
84459SOL    HW270988   5.432   1.920   6.655 -0.7372  0.9558  0.7947
84460SOL     OW70989  11.375   9.646   2.055 -0.1473 -0.0212 -0.3899
84460SOL    HW170990  11.330   9.716   2.008 -0.5693  1.7366  2.3795
84460SOL    HW270991  11.368   9.570   1.998 -1.2242  1.7368 -2.7712
84461SOL     OW70992   2.821   1.756  12.240  0.4753 -0.3209  0.1775
84461SOL    HW170993   2.776   1.838  12.221 -0.3392 -0.5682  0.9578
84461SOL    HW270994   2.751   1.694  12.260  1.1688 -0.5360  2.1805
84462SOL     OW70995   4.499   0.445   6.494 -0.1701 -0.0111 -0.3231
84462SOL    HW170996   4.585   0.429   6.454  0.3969 -0.5712  1.0876
84462SOL    HW270997   4.516   0.512   6.560 -0.8922  0.1303 -0.2774
84463SOL     OW70998   4.268   7.886   4.606 -0.2544  0.1397  0.4386
84463SOL    HW170999   4.328   7.814   4.587 -0.1592  0.5820 -1.1481
84463SOL    HW271000   4.311   7.937   4.674 -0.2349 -1.1723  1.4431
84464SOL     OW71001   4.027  10.758   9.525 -0.4958  0.0630 -0.5582
84464SOL    HW171002   4.059  10.688   9.468 -0.1713 -2.4604  2.4496
84464SOL    HW271003   4.105  10.808   9.546  0.6632 -2.5987  2.1800
84465SOL     OW71004  12.370   0.753  11.131  0.3037  0.0617 -0.3768
84465SOL    HW171005  12.335   0.823  11.076  1.0550 -0.1918 -1.2130
84465SOL    HW271006  12.301   0.687  11.133 -0.9374  1.3216  1.4735
84466SOL     OW71007   5.942   2.814  10.964  0.5115 -0.3725 -0.0017
84466SOL    HW171008   5.958   2.861  10.882 -0.4157 -1.2239 -0.6933
84466SOL    HW271009   5.911   2.882  11.024  2.8843  0.5886  0.2320
84467SOL     OW71010   2.155   9.647   3.698 -0.0394  0.5342 -0.0289
84467SOL    HW171011   2.204   9.604   3.769 -0.0567  2.0276  0.9391
84467SOL    HW271012   2.085   9.586   3.677  1.4493 -1.0822 -0.5610
84468SOL     OW71013  13.319   5.133   4.052 -0.1099  0.2139  0.2862
84468SOL    HW171014  13.327   5.156   4.145 -0.7280  1.4094  0.0619
84468SOL    HW271015  13.355   5.209   4.006 -2.2175  0.7852 -0.5001
84469SOL     OW71016   5.641   2.169   7.006 -0.2401  0.2079  0.5081
84469SOL    HW171017   5.659   2.244   7.062  1.7372 -0.9521  1.5562
84469SOL    HW271018   5.583   2.114   7.059  2.1250 -1.1891  1.8582
84470SOL     OW71019   8.132   9.319   0.455  0.1967 -0.5583  0.1384
84470SOL    HW171020   8.146   9.252   0.388 -1.0071 -0.2214 -0.4847
84470SOL    HW271021   8.054   9.366   0.425  0.1736  0.1814  1.3181
84471SOL     OW71022   6.872  11.838   1.061  0.1034  0.0294  0.0540
84471SOL    HW171023   6.877  11.892   0.981 -0.4984 -0.1743 -0.1288
84471SOL    HW271024   6.944  11.870   1.115  0.6000  0.0944 -0.6207
84472SOL     OW71025   5.129   0.898  12.888  0.4169  0.4844  0.8876
84472SOL    HW171026   5.129   0.894  12.793  0.2515  2.7382  0.7351
84472SOL    HW271027   5.115   0.807  12.916 -2.7015  0.1331 -1.2602
84473SOL     OW71028   2.160  13.200   2.552  0.1587 -0.3496  0.8221
84473SOL    HW171029   2.069  13.204   2.526  0.2049 -0.5738  0.6253
84473SOL    HW271030   2.190  13.113   2.524  1.0196  0.4837 -1.0479
84474SOL     OW71031  13.889   0.085   5.287  0.3541 -0.0323 -0.0175
84474SOL    HW171032  13.884   0.035   5.206 -2.6219  2.5004 -1.6068
84474SOL    HW271033  13.802   0.077   5.326  0.1189  2.8271  0.2402
84475SOL     OW71034   0.296   6.975   8.756 -0.6309 -0.3112 -0.0872
84475SOL    HW171035   0.373   6.982   8.699  1.5536  1.0754  2.7965
84475SOL    HW271036   0.291   6.882   8.778 -0.1329 -0.4983 -0.7462
84476SOL     OW71037  13.202   5.819   0.794  0.1724 -0.2390  0.3917
84476SOL    HW171038  13.197   5.812   0.698  1.7709 -1.7310  0.3792
84476SOL    HW271039  13.123   5.774   0.825  0.2026 -0.7311 -0.2113
84477SOL     OW71040   0.335   4.693  10.950  0.3277 -0.4350 -0.2112
84477SOL    HW171041   0.256   4.701  10.897  0.8119  1.4378 -0.6966
84477SOL    HW271042   0.326   4.608  10.994 -1.9705 -0.2292 -0.1956
84478SOL     OW71043   0.643   9.616   6.432 -0.2076  0.4318  0.2480
84478SOL    HW171044   0.664   9.639   6.523  0.7892  0.3739  0.0369
84478SOL    HW271045   0.561   9.663   6.414  0.2982  1.5426  0.7414
84479SOL     OW71046   3.396   5.768  10.007 -0.4365 -0.1037 -0.6485
84479SOL    HW171047   3.397   5.773   9.911  0.9601  0.1537 -0.6436
84479SOL    HW271048   3.422   5.678  10.027 -0.8860 -0.2053 -0.5008
84480SOL     OW71049   1.351   2.993   2.689  0.1508 -0.4922  0.1474
84480SOL    HW171050   1.433   2.977   2.643 -0.0500  1.6439 -1.0513
84480SOL    HW271051   1.322   3.079   2.659 -2.4229 -1.0729  0.6853
84481SOL     OW71052  11.704   0.255   7.891 -0.5238 -0.6222 -0.0712
84481SOL    HW171053  11.712   0.284   7.800  1.1822  0.4653  0.3896
84481SOL    HW271054  11.731   0.163   7.889  0.9631 -0.1941 -0.4417
84482SOL     OW71055   4.180   3.436  11.833 -0.0549 -0.5493  0.2022
84482SOL    HW171056   4.167   3.364  11.770  1.9593 -0.6795 -0.1173
84482SOL    HW271057   4.239   3.496  11.788  0.4600 -0.0478  1.5110
84483SOL     OW71058   8.507   1.211  10.211 -0.0887  0.0834  0.2142
84483SOL    HW171059   8.475   1.120  10.209  1.1216 -0.3558 -0.5540
84483SOL    HW271060   8.567   1.216  10.136  0.6494  1.2226  0.8662
84484SOL     OW71061   4.750  13.467   7.279  0.2535  0.1624  0.4299
84484SOL    HW171062   4.692  13.448   7.205  0.6153 -0.1139  0.2171
84484SOL    HW271063   4.706  13.427   7.354 -0.4819  1.0752  0.5004
84485SOL     OW71064   0.114  11.900   1.623 -0.4182 -0.3152  0.1170
84485SOL    HW171065   0.194  11.892   1.675 -0.7776 -0.0633  0.7147
84485SOL    HW271066   0.061  11.824   1.649 -0.6909 -0.0692  0.2871
84486SOL     OW71067  10.639   1.519   3.915  0.7207  0.5816  0.3304
84486SOL    HW171068  10.570   1.463   3.879  0.6137  0.9209  0.0020
84486SOL    HW271069  10.636   1.502   4.009 -2.4972  3.4222  0.9536
84487SOL     OW71070  10.918  10.680   6.058 -0.4075  0.0300  0.1453
84487SOL    HW171071  10.862  10.609   6.025  0.4994 -0.4175 -0.4922
84487SOL    HW271072  10.880  10.760   6.020 -1.2680 -0.1349  0.6333
84488SOL     OW71073   0.549   4.291   2.959 -0.9779  0.1105 -0.2773
84488SOL    HW171074   0.468   4.328   2.994 -0.3689  1.2187  0.0268
84488SOL    HW271075   0.597   4.367   2.925  0.5036 -0.3221  0.7570
84489SOL     OW71076  13.885   6.503   9.734  0.0439  0.0014 -0.0378
84489SOL    HW171077  13.842   6.418   9.731  0.1364 -0.0463  0.0221
84489SOL    HW271078  13.978   6.483   9.741  0.1480  0.1019 -1.0709
84490SOL     OW71079   9.124   5.707  11.349  0.1073  0.2553 -0.5570
84490SOL    HW171080   9.181   5.718  11.425  0.0746  0.4095 -0.5550
84490SOL    HW271081   9.183   5.680  11.279  0.0604 -0.4206 -0.3451
84491SOL     OW71082  10.454  12.948  10.096 -0.1461 -0.0036 -0.0452
84491SOL    HW171083  10.500  12.919  10.018  0.1582  0.9965 -0.2632
84491SOL    HW271084  10.378  12.891  10.103 -0.9121  0.7415 -1.8441
84492SOL     OW71085  10.109   1.304  12.585  0.2811  0.6402  0.2026
84492SOL    HW171086  10.040   1.316  12.650 -0.0068 -0.9758  0.2208
84492SOL    HW271087  10.177   1.255  12.630  0.7265  0.7820 -0.3009
84493SOL     OW71088  12.325   5.784  11.065  0.4136  0.1253 -0.1311
84493SOL    HW171089  12.334   5.749  11.153 -1.2347  1.3818  0.5881
84493SOL    HW271090  12.383   5.861  11.063  2.9160 -1.6432 -1.2473
84494SOL     OW71091   1.570  11.695   2.896  0.4683 -0.0433 -0.0183
84494SOL    HW171092   1.480  11.715   2.870  0.0274 -1.6650  0.1539
84494SOL    HW271093   1.604  11.778   2.930 -0.6030  0.8623 -1.0437
84495SOL     OW71094  11.064   5.948  13.773  0.3521 -0.4335  0.1755
84495SOL    HW171095  11.131   5.924  13.838 -0.1700 -1.0623  0.4969
84495SOL    HW271096  11.112   5.994  13.705  1.1995 -1.2742  0.1754
84496SOL     OW71097   3.902  13.894  13.184 -0.4728 -0.5637 -0.1783
84496SOL    HW171098   3.900  13.911  13.278 -0.6197  2.5897 -0.6225
84496SOL    HW271099   3.993  13.870  13.165 -0.1455 -0.0014  0.6374
84497SOL     OW71100   0.844   6.055   8.855  0.3612 -0.5853  0.5118
84497SOL    HW171101   0.843   6.148   8.831 -1.1325 -0.4476  0.9757
84497SOL    HW271102   0.887   6.053   8.940  0.0820 -0.2516  0.6662
84498SOL     OW71103   4.818   1.758   4.215 -0.0425  0.4623 -0.3846
84498SOL    HW171104   4.789   1.749   4.305 -0.8064 -1.8232 -0.7975
84498SOL    HW271105   4.772   1.836   4.182 -0.5671  0.6988  0.8639
84499SOL     OW71106  11.807  13.740   7.039  0.0582  0.2764  0.0090
84499SOL    HW171107  11.809  13.657   7.087 -0.5676 -0.8250 -1.7613
84499SOL    HW271108  11.892  13.745   6.996  0.9125  1.6285  1.7316
84500SOL     OW71109  11.516   0.229  14.054 -0.0957  0.2198  0.0825
84500SOL    HW171110  11.551   0.153  14.007  0.2682  0.5623 -0.2015
84500SOL    HW271111  11.422   0.213  14.059 -0.1523  0.2259 -0.8420
84501SOL     OW71112   0.701  10.833  10.494  0.0851 -0.3960 -0.4099
84501SOL    HW171113   0.746  10.754  10.524  0.4230 -0.4962 -1.1606
84501SOL    HW271114   0.696  10.889  10.571  3.0940  0.3822 -0.6597
84502SOL     OW71115  12.553   5.407   5.394 -0.0708  0.2236  0.3835
84502SOL    HW171116  12.592   5.322   5.413  0.1675  0.2468 -0.0169
84502SOL    HW271117  12.496   5.424   5.470 -0.0593 -0.2527  0.5019
84503SOL     OW71118   8.324   1.650   6.366 -0.4470  0.7104  0.2798
84503SOL    HW171119   8.342   1.649   6.272  0.5051  1.6857  0.4350
84503SOL    HW271120   8.232   1.677   6.372 -1.1752 -1.4250 -0.4107
84504SOL     OW71121   3.428  12.542   4.165 -0.4777  0.5401 -0.0142
84504SOL    HW171122   3.451  12.452   4.186 -1.1895  0.2081 -0.5986
84504SOL    HW271123   3.511  12.583   4.139  0.4042  0.8952  2.9644
84505SOL     OW71124   0.923  10.105   7.470 -0.1460 -0.0408 -0.2268
84505SOL    HW171125   0.946  10.197   7.478  0.4007  0.1340 -2.9819
84505SOL    HW271126   0.909  10.091   7.376  3.6062 -3.5907 -0.5341
84506SOL     OW71127   1.895   4.526   6.493  0.5857  0.0464 -0.3706
84506SOL    HW171128   1.843   4.594   6.536 -1.2436 -0.7392 -1.2781
84506SOL    HW271129   1.976   4.571   6.468  0.6482  1.1470  1.5969
84507SOL     OW71130  12.679   7.971  12.210  0.4422 -0.3894 -0.5223
84507SOL    HW171131  12.756   8.028  12.218 -0.7524  1.3953 -1.0289
84507SOL    HW271132  12.646   7.962  12.300  0.9581 -0.7543 -0.3686
84508SOL     OW71133  12.299   2.217  11.273 -0.4655 -0.0192 -0.3960
84508SOL    HW171134  12.275   2.294  11.222  0.8028 -0.1643 -1.2712
84508SOL    HW271135  12.311   2.148  11.208 -1.0903 -0.8357  0.3288
84509SOL     OW71136   5.877  12.998  10.927 -0.0556 -0.0043 -0.0929
84509SOL    HW171137   5.972  13.009  10.925 -0.1776  1.6608  0.9449
84509SOL    HW271138   5.858  12.964  11.014 -0.2479 -3.0348 -1.2207
84510SOL     OW71139  12.811   0.190   2.695 -0.3380  0.6247 -0.3851
84510SOL    HW171140  12.731   0.150   2.730  0.9404 -0.0119  2.0646
84510SOL    HW271141  12.829   0.140   2.616 -1.7645  0.0572 -0.3975
84511SOL     OW71142   2.105   7.640  12.729 -0.6149  0.3894 -0.0315
84511SOL    HW171143   2.068   7.581  12.664 -0.1416 -0.1901  0.2120
84511SOL    HW271144   2.178   7.683  12.683 -0.1114 -0.2176  0.1859
84512SOL     OW71145  12.728  12.498   5.385  0.7190  0.6880 -0.1263
84512SOL    HW171146  12.738  12.433   5.315  2.0886 -0.5752  1.1727
84512SOL    HW271147  12.817  12.527   5.404  0.3668  1.0676  1.0418
84513SOL     OW71148   6.300   1.029   2.170 -0.0398 -0.2282 -0.0229
84513SOL    HW171149   6.355   1.055   2.243 -0.6706  0.2280  0.2892
84513SOL    HW271150   6.354   0.967   2.121  0.9128  0.5312  0.0405
84514SOL     OW71151   2.793   5.275  12.185  0.4136  0.5995  0.1035
84514SOL    HW171152   2.729   5.320  12.131 -0.7791 -0.4665  0.5759
84514SOL    HW271153   2.790   5.184  12.155  1.1641  0.3881  0.6428
84515SOL     OW71154  11.127   8.873   6.707 -0.1838 -0.2095 -0.1402
84515SOL    HW171155  11.161   8.904   6.623  0.9524  0.3817  0.5092
84515SOL    HW271156  11.183   8.800   6.730 -1.0275 -0.9180 -0.2758
84516SOL     OW71157   1.576   3.151  11.273 -0.0775 -0.1995 -0.0503
84516SOL    HW171158   1.517   3.186  11.340  1.4624  1.2730  0.6007
84516SOL    HW271159   1.572   3.213  11.201  0.1159 -0.4888 -0.3174
84517SOL     OW71160  10.121  12.996   6.337 -0.1146  0.3986 -0.1741
84517SOL    HW171161  10.038  13.039   6.355 -0.1936  0.1018  0.1892
84517SOL    HW271162  10.171  13.060   6.287 -0.3758  0.7650  0.0259
84518SOL     OW71163   9.441   1.007  12.599 -0.1851 -0.2786  0.1467
84518SOL    HW171164   9.462   0.968  12.514  0.6317  0.1852  0.1198
84518SOL    HW271165   9.366   0.958  12.630 -1.9728  0.9855 -1.8510
84519SOL     OW71166   7.982  13.195   5.555  0.4888 -0.0717 -0.5009
84519SOL    HW171167   7.954  13.257   5.488 -0.5540  0.7028  0.5867
84519SOL    HW271168   7.990  13.111   5.510 -0.7614  0.3033 -1.4771
84520SOL     OW71169   6.089  13.209   1.269  0.1870 -0.9100  0.3509
84520SOL    HW171170   6.002  13.248   1.272 -0.0224 -1.3755  0.5112
84520SOL    HW271171   6.118  13.221   1.179 -1.4148 -3.6362 -0.6444
84521SOL     OW71172   5.188   0.857  12.230 -0.0192  0.6525 -0.0826
84521SOL    HW171173   5.182   0.792  12.300 -0.9395 -0.9501 -1.5720
84521SOL    HW271174   5.268   0.834  12.183 -0.7773  0.0345 -1.1065
84522SOL     OW71175   9.020   0.586  13.202 -0.9131 -0.0716  0.5119
84522SOL    HW171176   8.935   0.605  13.164 -1.1698  0.8372  1.4641
84522SOL    HW271177   9.035   0.658  13.264  1.6796  1.2303 -1.4053
84523SOL     OW71178   0.602   1.469  10.779 -0.0103  0.4843  0.2840
84523SOL    HW171179   0.623   1.432  10.865  2.6693 -0.7082 -0.7601
84523SOL    HW271180   0.506   1.474  10.778 -0.3181 -2.4306  2.1749
84524SOL     OW71181   9.155   9.724  12.826  0.2832  0.4615 -0.0824
84524SOL    HW171182   9.158   9.819  12.825  0.8634  0.4539  0.5026
84524SOL    HW271183   9.085   9.703  12.888 -1.0157  0.5046 -1.4753
84525SOL     OW71184   0.523  10.664  11.667  0.4039  0.8814 -0.0291
84525SOL    HW171185   0.569  10.580  11.673 -0.2014  0.6399  1.9159
84525SOL    HW271186   0.578  10.725  11.716 -0.1087  1.1475  0.2319
84526SOL     OW71187   6.578  13.167   7.580  0.0132 -0.5928 -0.9243
84526SOL    HW171188   6.530  13.249   7.571  2.8224  1.2510 -0.1076
84526SOL    HW271189   6.540  13.125   7.657 -0.8510  0.3300 -0.8305
84527SOL     OW71190  10.215   6.261   4.576  0.1188  0.2349  0.5197
84527SOL    HW171191  10.307   6.274   4.597 -0.2026  0.8001  1.6964
84527SOL    HW271192  10.185   6.195   4.638  0.1308 -1.3245 -1.0502
84528SOL     OW71193   8.138   7.052   5.901 -0.3343  0.3874  0.1362
84528SOL    HW171194   8.157   7.126   5.844 -1.4043  0.2734 -0.3996
84528SOL    HW271195   8.085   6.993   5.847  1.6541 -1.4555  0.0733
84529SOL     OW71196   5.147   8.646  12.098  0.2627 -0.0791 -0.4539
84529SOL    HW171197   5.193   8.705  12.157 -0.6461  1.4099 -1.1875
84529SOL    HW271198   5.153   8.688  12.012  1.0015 -1.8759 -1.3543
84530SOL     OW71199  12.229  11.464   7.914  0.3259  0.2346 -0.8858
84530SOL    HW171200  12.175  11.390   7.885  0.2951  0.1122 -0.5233
84530SOL    HW271201  12.301  11.468   7.851  0.2452 -0.0103 -0.9941
84531SOL     OW71202  10.770   4.585   9.891 -0.3878 -0.0608 -0.0988
84531SOL    HW171203  10.718   4.623   9.962 -1.6584 -0.0385 -1.0009
84531SOL    HW271204  10.794   4.659   9.836  0.4984 -0.0908  0.2361
84532SOL     OW71205   1.982   3.151   5.316 -0.1674 -0.3098  0.3075
84532SOL    HW171206   1.961   3.221   5.378  0.8776  0.2149  0.1030
84532SOL    HW271207   2.075   3.165   5.296  0.4258 -2.5216  1.2211
84533SOL     OW71208   5.123   8.209   4.094  0.1876 -0.2792  0.5310
84533SOL    HW171209   5.069   8.250   4.162 -0.5571 -0.9224  0.3467
84533SOL    HW271210   5.170   8.281   4.054 -0.9888  0.3823  0.3112
84534SOL     OW71211  12.089  11.559   8.920  0.2420 -0.1739 -0.1050
84534SOL    HW171212  12.009  11.608   8.902  0.8368  0.7054 -0.4490
84534SOL    HW271213  12.059  11.474   8.950 -0.8870  1.0703  2.5898
84535SOL     OW71214   7.023   8.498   7.472  0.5612  0.0089  0.2633
84535SOL    HW171215   6.996   8.407   7.483  1.7099 -0.3814 -0.0522
84535SOL    HW271216   7.002   8.540   7.555  1.1402 -0.8369  0.8508
84536SOL     OW71217   3.851  11.713   1.430 -0.2540  1.1533  0.1446
84536SOL    HW171218   3.896  11.628   1.427  3.9360  3.1537 -0.3339
84536SOL    HW271219   3.845  11.734   1.523  0.6561  1.2536  0.1858
84537SOL     OW71220   1.298  11.707  11.419 -0.2077 -0.5470 -0.3509
84537SOL    HW171221   1.284  11.613  11.432  0.3600 -0.6305 -0.3351
84537SOL    HW271222   1.303  11.743  11.507 -1.2161 -0.3745 -0.3518
84538SOL     OW71223  11.618  13.141   2.081  0.2435  0.3925  0.1666
84538SOL    HW171224  11.564  13.090   2.142  1.4788 -0.2332  0.7655
84538SOL    HW271225  11.647  13.216   2.132  0.2438  0.5349 -0.0448
84539SOL     OW71226   1.114   8.112   3.796  0.1715  0.0421 -0.1395
84539SOL    HW171227   1.083   8.023   3.783 -1.0168  0.4301 -0.0616
84539SOL    HW271228   1.108   8.127   3.890 -1.2027  0.7281 -0.3046
84540SOL     OW71229   3.923   1.775   1.478  0.0403  0.3619  0.9547
84540SOL    HW171230   3.958   1.754   1.565  0.9369 -1.0638  0.2769
84540SOL    HW271231   3.953   1.704   1.422  1.4710  2.3746 -1.0376
84541SOL     OW71232  12.636   0.943  13.155 -0.2093  0.1972 -0.5442
84541SOL    HW171233  12.542   0.929  13.172 -0.3349 -0.3784 -1.6463
84541SOL    HW271234  12.642   1.035  13.128 -0.5242  0.0958 -0.9577
84542SOL     OW71235   0.698   5.792   5.980 -0.1348  0.1584  0.3993
84542SOL    HW171236   0.728   5.883   5.981  0.8600 -0.1589  1.6550
84542SOL    HW271237   0.763   5.747   5.927  0.0458 -0.0201  0.7668
84543SOL     OW71238   9.072   2.060   2.898  0.5536 -0.1587  1.2770
84543SOL    HW171239   9.094   2.131   2.837  0.0429 -0.7097  0.4345
84543SOL    HW271240   9.009   2.100   2.959  2.0267  0.7577  2.2629
84544SOL     OW71241   6.853   0.574   8.232  0.3495  0.1201  0.4679
84544SOL    HW171242   6.757   0.574   8.232  0.3477 -0.4032  0.2165
84544SOL    HW271243   6.877   0.483   8.246  0.8267  0.4394  1.9764
84545SOL     OW71244  12.345   5.396  13.081 -0.2648 -0.0856 -0.4007
84545SOL    HW171245  12.408   5.402  13.009  0.1195  0.4709 -0.0253
84545SOL    HW271246  12.365   5.471  13.137 -0.9563 -0.1737 -0.0281
84546SOL     OW71247  13.327  10.389  13.484 -0.4355  0.9133  0.3167
84546SOL    HW171248  13.320  10.353  13.572  0.6066 -1.1682 -0.3821
84546SOL    HW271249  13.333  10.483  13.496  0.9438  0.6025  2.5710
84547SOL     OW71250  11.849   6.769   5.555  0.3660  0.2038  0.2313
84547SOL    HW171251  11.780   6.829   5.528  1.1575  1.5420  1.0968
84547SOL    HW271252  11.913   6.773   5.484  0.0165 -0.3237 -0.1264
84548SOL     OW71253  13.554   0.380  10.626 -0.0702  0.0783 -0.3884
84548SOL    HW171254  13.543   0.285  10.633 -0.1342  0.1399  0.3829
84548SOL    HW271255  13.471   0.417  10.655 -0.9411  0.3381 -2.9683
84549SOL     OW71256   9.033  10.354   6.195 -0.0073  0.0815  0.0269
84549SOL    HW171257   8.964  10.310   6.244 -0.7736 -0.1826 -1.2431
84549SOL    HW271258   9.014  10.447   6.205  0.2727  0.0593  0.8161
84550SOL     OW71259   1.012   9.925  11.568 -0.0628  0.7555  0.4313
84550SOL    HW171260   0.922   9.955  11.573 -0.7907 -1.2707  0.6923
84550SOL    HW271261   1.015   9.848  11.626  1.2150 -0.5575 -1.2487
84551SOL     OW71262  12.249  11.008   6.229 -0.0031  0.2077 -0.0140
84551SOL    HW171263  12.184  11.001   6.159 -0.1676  0.2175  0.1379
84551SOL    HW271264  12.239  11.097   6.263  1.3392  0.8576 -1.2099
84552SOL     OW71265   3.051   8.013   2.524  0.5365  0.2591  0.2126
84552SOL    HW171266   3.039   8.055   2.609 -0.1694 -0.0273  0.2603
84552SOL    HW271267   2.964   8.011   2.486  0.4081 -1.7893  0.5151
84553SOL     OW71268   4.388   4.315  13.404 -0.0907  0.1620  0.3333
84553SOL    HW171269   4.372   4.294  13.496 -1.0336  0.3956  0.2381
84553SOL    HW271270   4.416   4.406  13.404 -0.5942  0.3212  0.3547
84554SOL     OW71271  13.621   4.319  11.296  0.7800  0.1454 -0.1929
84554SOL    HW171272  13.594   4.236  11.256 -1.5810  0.3610  0.8120
84554SOL    HW271273  13.559   4.332  11.368  0.8545  2.9754 -0.5547
84555SOL     OW71274   6.578   1.367   2.920 -0.2443  0.5193  0.0921
84555SOL    HW171275   6.570   1.402   2.831 -1.3581 -0.3286 -0.1624
84555SOL    HW271276   6.571   1.444   2.977  3.3013  1.5006 -0.5493
84556SOL     OW71277   4.767  10.100  12.602 -0.6567 -0.0224  0.1181
84556SOL    HW171278   4.852  10.139  12.582 -0.4505 -0.1589  0.7350
84556SOL    HW271279   4.733  10.152  12.674  0.1718 -1.7107  1.8068
84557SOL     OW71280   6.746   1.861  12.432  0.1805 -0.2107  0.0295
84557SOL    HW171281   6.672   1.908  12.469  0.6049  0.2070  0.3498
84557SOL    HW271282   6.730   1.862  12.337  0.7696  1.6224 -0.0922
84558SOL     OW71283   5.311   4.853  10.053 -0.1056  0.0474  0.4599
84558SOL    HW171284   5.400   4.866  10.085  0.2479  2.4916 -1.1867
84558SOL    HW271285   5.317   4.776   9.997  1.3810  1.0074 -0.7987
84559SOL     OW71286  10.528   3.391   0.729  0.3415 -0.2463 -0.1206
84559SOL    HW171287  10.456   3.375   0.668  0.5799  0.5702 -0.6395
84559SOL    HW271288  10.555   3.304   0.759 -1.7381 -0.5259  1.1537
84560SOL     OW71289   9.619  13.436  11.790 -0.4506 -0.4273  0.3379
84560SOL    HW171290   9.590  13.501  11.853 -1.7221 -0.2219 -0.4371
84560SOL    HW271291   9.541  13.383  11.772  0.3876 -1.7568  0.4448
84561SOL     OW71292   3.893   2.533   3.487 -0.2967 -0.3018  0.0834
84561SOL    HW171293   3.840   2.611   3.469 -0.6347 -0.3566  0.8329
84561SOL    HW271294   3.835   2.475   3.536  0.2270 -0.6740  0.2642
84562SOL     OW71295   6.595   8.224   3.829 -0.6378  0.2666 -0.3030
84562SOL    HW171296   6.517   8.196   3.877  0.2864  0.7247  1.5615
84562SOL    HW271297   6.562   8.280   3.759 -2.0214 -0.0178  0.0972
84563SOL     OW71298  10.782  12.872  11.201  0.5723 -0.1682  0.2282
84563SOL    HW171299  10.833  12.810  11.253  0.2313  0.4468  1.3364
84563SOL    HW271300  10.833  12.885  11.122  0.8839 -1.4850  0.1800
84564SOL     OW71301   9.272   7.703   1.479  0.4098 -1.2031  0.1803
84564SOL    HW171302   9.317   7.720   1.396 -0.4329 -0.5697 -0.1599
84564SOL    HW271303   9.288   7.782   1.531  0.0611 -1.1517  0.2135
84565SOL     OW71304   6.366   1.429   3.138 -0.0617 -0.0698 -0.0273
84565SOL    HW171305   6.315   1.425   3.219  0.9001  0.6916  0.6346
84565SOL    HW271306   6.324   1.365   3.081 -1.0759 -0.2529  0.8843
84566SOL     OW71307  12.393   0.193   2.523 -0.1168  0.2432  0.0244
84566SOL    HW171308  12.350   0.278   2.534 -0.2819  0.1434  0.1648
84566SOL    HW271309  12.321   0.130   2.527  0.0937  0.0443  0.7032
84567SOL     OW71310   1.076  10.857   9.243 -0.4210 -0.2414  0.2667
84567SOL    HW171311   0.981  10.865   9.242 -0.4081  0.3544 -2.4799
84567SOL    HW271312   1.092  10.763   9.233 -0.6544 -0.4854  1.8446
84568SOL     OW71313  13.611   0.851   4.632  0.0217  0.2790 -0.2376
84568SOL    HW171314  13.541   0.855   4.566 -0.6379  0.9710  0.4757
84568SOL    HW271315  13.644   0.761   4.627 -2.4448 -0.8071  0.9093
84569SOL     OW71316   1.063  12.779   8.742 -0.3673  0.3756 -0.3715
84569SOL    HW171317   1.038  12.804   8.831  0.9186  2.3717 -0.5147
84569SOL    HW271318   0.982  12.786   8.691 -1.1096 -0.7507  0.5847
84570SOL     OW71319   2.414   0.945   2.722  0.5285 -0.7568  0.5650
84570SOL    HW171320   2.391   1.038   2.714  2.5805 -0.3710 -2.5736
84570SOL    HW271321   2.331   0.899   2.713 -0.3795  0.7181  0.9663
84571SOL     OW71322   0.921  10.435   2.649  0.1145  0.1181  0.2169
84571SOL    HW171323   0.960  10.469   2.730  0.1611 -1.2501  0.8115
84571SOL    HW271324   0.827  10.440   2.663  0.1145  0.5480  0.0606
84572SOL     OW71325   1.593   6.723   7.168  0.0620 -0.2883 -0.5109
84572SOL    HW171326   1.626   6.666   7.237 -0.4695 -0.4439 -0.3782
84572SOL    HW271327   1.513   6.761   7.205 -0.2949 -0.4689 -1.0903
84573SOL     OW71328   7.138   8.335   9.836 -0.0694  0.0866  0.1369
84573SOL    HW171329   7.227   8.322   9.803  0.3219  2.3874  0.1160
84573SOL    HW271330   7.092   8.380   9.765  0.1575  3.1262  1.7355
84574SOL     OW71331   7.766   7.166  10.618 -0.0302  0.6919 -0.0849
84574SOL    HW171332   7.681   7.124  10.630 -0.3190  0.0770 -3.3467
84574SOL    HW271333   7.749   7.238  10.557  1.5201  1.7418  0.6372
84575SOL     OW71334   7.604   6.521   0.801 -0.0969  0.0470 -0.6715
84575SOL    HW171335   7.573   6.464   0.872  0.9632  1.1883  0.7765
84575SOL    HW271336   7.609   6.463   0.725  2.2011 -2.2442  1.0112
84576SOL     OW71337   6.121   3.303  11.526  0.2042 -0.1328 -0.2078
84576SOL    HW171338   6.200   3.248  11.520 -0.5353 -1.1904 -0.5340
84576SOL    HW271339   6.100   3.323  11.435 -0.2433 -0.3581 -0.1538
84577SOL     OW71340   1.104  11.512   5.980  0.3167 -0.0104  0.2104
84577SOL    HW171341   1.095  11.557   5.896  2.2452 -1.4728 -0.8561
84577SOL    HW271342   1.129  11.423   5.957  0.9099 -0.4414  2.3371
84578SOL     OW71343   0.404  10.448   7.828 -0.2749 -0.2928 -0.3648
84578SOL    HW171344   0.370  10.364   7.857  0.2051 -1.0172 -1.8254
84578SOL    HW271345   0.352  10.469   7.750  0.0286  0.4567 -0.3741
84579SOL     OW71346   2.651  12.081   7.949 -0.0064  0.3444  0.0097
84579SOL    HW171347   2.632  11.987   7.957  0.3218  0.4091  1.9851
84579SOL    HW271348   2.621  12.104   7.861 -1.7022 -1.2519  0.1059
84580SOL     OW71349   3.783  10.348   8.894 -0.3027  0.0901 -0.5806
84580SOL    HW171350   3.692  10.318   8.901  0.3229 -1.4898  2.7559
84580SOL    HW271351   3.830  10.272   8.859  0.0310  0.1177 -0.2021
84581SOL     OW71352   3.813  10.204  10.664 -0.5773  0.2338  0.1339
84581SOL    HW171353   3.863  10.132  10.626 -0.7491  0.4639 -0.5472
84581SOL    HW271354   3.726  10.168  10.679 -0.1880 -0.2224  1.4932
84582SOL     OW71355   8.387   4.359   0.558 -0.3016 -0.2491 -0.0615
84582SOL    HW171356   8.335   4.283   0.582  0.8461 -0.9487  0.2998
84582SOL    HW271357   8.341   4.397   0.483 -1.0916 -1.0765 -0.0102
84583SOL     OW71358  12.212  13.262   5.109  0.0148 -0.1273 -0.2539
84583SOL    HW171359  12.298  13.300   5.128  0.5017 -0.6487 -1.3300
84583SOL    HW271360  12.179  13.233   5.194  0.0852  1.7337  0.4559
84584SOL     OW71361  12.798   0.479   7.250 -0.3878  0.3860 -0.1036
84584SOL    HW171362  12.788   0.477   7.155  0.1920 -0.1488 -0.1592
84584SOL    HW271363  12.721   0.433   7.283  1.4579 -3.3535 -0.5041
84585SOL     OW71364   9.507  11.870  12.031 -0.6785  0.2067  0.6963
84585SOL    HW171365   9.495  11.948  12.084  0.4169  1.1993 -0.4463
84585SOL    HW271366   9.601  11.869  12.010 -0.8307 -0.9152 -0.0352
84586SOL     OW71367   1.772   9.152  10.019  0.1886 -0.1340 -0.3049
84586SOL    HW171368   1.736   9.185  10.101 -1.5013  0.7666 -1.3494
84586SOL    HW271369   1.859   9.120  10.042 -0.2559  0.0495  1.8325
84587SOL     OW71370   0.697  12.692   3.648  0.0298 -0.1999 -0.2744
84587SOL    HW171371   0.646  12.632   3.702 -2.5172  3.8143  2.2585
84587SOL    HW271372   0.774  12.713   3.701 -0.1083  0.2657 -0.2555
84588SOL     OW71373   1.184   1.377  10.962 -0.2373  0.3942 -0.1244
84588SOL    HW171374   1.132   1.320  11.019 -0.5935 -0.3312 -1.1452
84588SOL    HW271375   1.148   1.362  10.874  1.3239  0.3110 -0.7739
84589SOL     OW71376   1.358   1.426   9.066 -0.0567  0.3312 -0.1181
84589SOL    HW171377   1.270   1.463   9.073  0.1911  1.1281 -1.1226
84589SOL    HW271378   1.361   1.386   8.979  0.7256  0.7320 -0.2846
84590SOL     OW71379   3.458  14.064   3.909  0.4085  0.2570  0.0979
84590SOL    HW171380   3.462  14.139   3.969  0.9995  1.0250 -0.8787
84590SOL    HW271381   3.545  14.060   3.869  1.0500 -2.1510  1.5216
84591SOL     OW71382  12.908   3.444   0.555 -0.3809 -0.4420 -0.1875
84591SOL    HW171383  12.832   3.463   0.610  1.0430  0.2413  1.6179
84591SOL    HW271384  12.939   3.529   0.525  1.9209 -0.2643  2.3068
84592SOL     OW71385  11.797  10.678  13.931 -0.9280  0.1869  0.0475
84592SOL    HW171386  11.857  10.610  13.961  2.4984  1.1649 -3.5834
84592SOL    HW271387  11.830  10.759  13.971 -0.7123  0.5414 -0.8203
84593SOL     OW71388   0.191   6.792   6.449  0.0742 -0.3910  0.1414
84593SOL    HW171389   0.189   6.861   6.515 -2.2197  0.1915 -0.4267
84593SOL    HW271390   0.123   6.818   6.386  0.0727 -2.4978 -0.7991
84594SOL     OW71391   5.775   6.693   5.136  0.3736 -0.0590  0.1341
84594SOL    HW171392   5.810   6.662   5.053 -1.3032 -0.7177 -0.3713
84594SOL    HW271393   5.751   6.614   5.184 -0.5918  0.3421  0.3520
84595SOL     OW71394   5.853   6.106   2.075 -0.3423  0.2023 -0.1107
84595SOL    HW171395   5.850   6.166   2.149 -0.5275 -0.3239  0.3111
84595SOL    HW271396   5.944   6.111   2.044 -0.3122  0.5642  0.0331
84596SOL     OW71397   1.640   2.158  14.035 -0.5735  0.3027 -0.0279
84596SOL    HW171398   1.544   2.155  14.027 -0.8736 -1.8722  2.8063
84596SOL    HW271399   1.670   2.084  13.983 -1.0819 -2.7076  3.5254
84597SOL     OW71400   0.183   2.842  13.192  0.0856  0.0424  0.0848
84597SOL    HW171401   0.248   2.818  13.259  1.1634  0.6063 -0.7274
84597SOL    HW271402   0.219   2.920  13.150 -1.0795  0.3043 -0.4690
84598SOL     OW71403   4.818   9.145  13.322 -0.3762  0.6036 -0.6773
84598SOL    HW171404   4.833   9.083  13.250 -0.5123  0.0237 -0.2151
84598SOL    HW271405   4.746   9.201  13.291 -1.2032 -0.3643 -0.5492
84599SOL     OW71406   4.551   4.279   0.448 -0.0938  0.2785  0.2330
84599SOL    HW171407   4.604   4.247   0.376 -0.5820  1.0677 -0.4900
84599SOL    HW271408   4.572   4.220   0.521  0.3160 -0.6031 -0.5743
84600SOL     OW71409  11.784   5.012   8.618  0.5461  0.3524  0.1907
84600SOL    HW171410  11.823   5.023   8.531  2.4290  1.6821  1.1449
84600SOL    HW271411  11.846   5.052   8.678 -0.0322 -1.7162  2.3359
84601SOL     OW71412   2.213   0.200   2.948  0.0904 -0.0368  1.0377
84601SOL    HW171413   2.300   0.161   2.954  0.2460  0.4498  2.2623
84601SOL    HW271414   2.225   0.278   2.893  0.0558 -0.9071 -0.2403
84602SOL     OW71415  13.904  12.412   5.738 -0.2316  0.0355  0.6043
84602SOL    HW171416  13.965  12.343   5.766  2.0387  1.5336 -0.3754
84602SOL    HW271417  13.853  12.372   5.667  0.1687 -1.0085  0.8903
84603SOL     OW71418  12.941   5.938   5.736  0.2321 -0.5704  0.4648
84603SOL    HW171419  12.886   5.871   5.776 -1.6512 -0.2241 -1.3668
84603SOL    HW271420  12.912   5.941   5.645  0.9203  2.0965  0.2619
84604SOL     OW71421   7.396   8.793   4.019 -0.6365 -0.4725 -0.0640
84604SOL    HW171422   7.309   8.764   4.045 -0.4278 -1.8391 -0.8076
84604SOL    HW271423   7.452   8.716   4.031  0.8458  0.8109  1.9781
84605SOL     OW71424   1.566  11.515  10.668 -0.4785 -0.1373 -0.0618
84605SOL    HW171425   1.606  11.459  10.735  1.3418  0.2196 -0.7828
84605SOL    HW271426   1.578  11.604  10.702  2.5433  0.2359 -1.7779
84606SOL     OW71427   3.551   1.783   4.949  0.1540  0.0238  0.1362
84606SOL    HW171428   3.528   1.762   4.858 -1.8174 -1.5288  0.9162
84606SOL    HW271429   3.471   1.764   4.998  1.3083  0.4340  2.2709
84607SOL     OW71430   2.429  11.764   4.708 -0.1701  0.4561  0.4546
84607SOL    HW171431   2.474  11.846   4.687  3.0781 -0.8397  1.6662
84607SOL    HW271432   2.409  11.771   4.801 -3.6036  1.3750 -0.2294
84608SOL     OW71433  10.893  10.282   1.979 -0.6892 -0.0789 -0.6393
84608SOL    HW171434  10.916  10.373   1.957  0.7086 -0.8207 -2.4724
84608SOL    HW271435  10.900  10.235   1.896 -1.2821 -1.9022  0.3018
84609SOL     OW71436   2.284   1.641   2.003 -0.2905  0.3344  0.2244
84609SOL    HW171437   2.355   1.587   1.968 -1.5381 -1.9163  0.9728
84609SOL    HW271438   2.325   1.725   2.024  1.8080 -0.4117 -0.7005
84610SOL     OW71439   4.478   4.833   6.256  0.3393  0.2181  0.4029
84610SOL    HW171440   4.542   4.821   6.326  1.3160  0.4604 -0.4336
84610SOL    HW271441   4.458   4.926   6.258  0.1872  0.1831  0.5135
84611SOL     OW71442   6.781   6.615   3.048 -0.1975 -0.1401  0.2772
84611SOL    HW171443   6.718   6.551   3.080 -1.4967 -0.1005 -1.9668
84611SOL    HW271444   6.805   6.584   2.960  1.1632  1.0625  0.1763
84612SOL     OW71445   9.326  13.641   7.383  0.4049  0.1756 -0.7949
84612SOL    HW171446   9.275  13.693   7.321  0.6507  0.6489 -0.5985
84612SOL    HW271447   9.262  13.610   7.447 -0.2035 -1.8343 -2.2481
84613SOL     OW71448   6.191  11.314   8.130  0.6361  0.3863  0.0162
84613SOL    HW171449   6.124  11.377   8.155  0.1260 -0.2894  0.3927
84613SOL    HW271450   6.243  11.359   8.063 -0.5612  0.7014 -0.7193
84614SOL     OW71451   2.509   8.770   2.385  0.2713 -0.0002  0.3352
84614SOL    HW171452   2.532   8.863   2.379  1.4078 -0.2730  0.2253
84614SOL    HW271453   2.515   8.738   2.295  0.5352 -0.3158  0.4611
84615SOL     OW71454   2.244   9.410   5.457 -0.0724  0.5094 -0.4409
84615SOL    HW171455   2.285   9.338   5.410 -1.2795  0.6879 -1.8282
84615SOL    HW271456   2.168   9.371   5.499 -1.8504  1.2285 -2.7576
84616SOL     OW71457  11.196   6.663   6.318 -0.2888  0.4612  0.7560
84616SOL    HW171458  11.268   6.701   6.268 -0.3462 -0.7729 -0.3070
84616SOL    HW271459  11.238   6.621   6.393  0.6119 -3.1048 -1.4942
84617SOL     OW71460   0.709   8.460   6.608 -0.4929  0.3437  0.1665
84617SOL    HW171461   0.748   8.445   6.522 -0.4908 -0.9516  0.3797
84617SOL    HW271462   0.783   8.474   6.667 -0.4543  0.2039  0.1497
84618SOL     OW71463   1.751  13.044  10.952  0.2179 -0.1392  0.0342
84618SOL    HW171464   1.671  12.992  10.955 -0.9485  1.6177  1.4065
84618SOL    HW271465   1.739  13.111  11.019  2.8751  0.1755  0.3263
84619SOL     OW71466   1.046  10.618  12.739 -0.1739 -0.5601  0.1087
84619SOL    HW171467   1.006  10.689  12.690  0.7119 -1.0189 -1.3323
84619SOL    HW271468   1.047  10.544  12.678  0.7046 -1.2308  0.9064
84620SOL     OW71469   4.890   1.490   0.632  0.6161 -0.2498 -0.3702
84620SOL    HW171470   4.910   1.540   0.553 -0.3739 -0.6188 -0.8701
84620SOL    HW271471   4.847   1.411   0.600  2.7505 -1.8063  0.3477
84621SOL     OW71472  11.338  12.464   0.160  0.0356  0.0917 -0.0700
84621SOL    HW171473  11.360  12.371   0.164  0.4699  0.2148  0.4793
84621SOL    HW271474  11.408  12.507   0.209 -0.6308  0.6348  0.4209
84622SOL     OW71475   5.333   2.338   0.944 -0.3262  0.3204 -0.0534
84622SOL    HW171476   5.323   2.356   1.037 -0.3385  2.2801 -0.3948
84622SOL    HW271477   5.303   2.418   0.900 -0.4792 -0.6149 -1.7505
84623SOL     OW71478   0.725  11.658   5.674 -0.1741 -0.5077  0.8189
84623SOL    HW171479   0.756  11.670   5.584 -1.0370  0.9972  0.6828
84623SOL    HW271480   0.633  11.634   5.665 -0.0295 -1.2544  1.2875
84624SOL     OW71481   8.332   9.912   6.078  0.3108 -0.1938 -0.1561
84624SOL    HW171482   8.307   9.954   5.996 -0.4621  0.1712  0.2614
84624SOL    HW271483   8.349   9.984   6.138  1.9061 -0.4388 -0.2787
84625SOL     OW71484   5.576   0.165  11.689 -0.2791  0.4801 -0.2700
84625SOL    HW171485   5.532   0.109  11.625 -0.0854  1.3705 -1.2164
84625SOL    HW271486   5.529   0.150  11.771 -0.8463 -0.3279 -0.7337
84626SOL     OW71487   2.697   8.205   7.575  0.2980 -0.7266  0.1416
84626SOL    HW171488   2.646   8.279   7.540  0.2781 -1.5281 -1.6599
84626SOL    HW271489   2.632   8.137   7.591  0.6144 -1.3005 -0.9135
84627SOL     OW71490   9.083   2.572   5.718  0.1950 -0.1766 -0.1739
84627SOL    HW171491   9.083   2.601   5.627 -3.5112  1.3726  0.1356
84627SOL    HW271492   9.100   2.652   5.768  2.5682 -1.0745  0.6027
84628SOL     OW71493   2.175   0.752   1.935 -0.5214  0.0029  0.3543
84628SOL    HW171494   2.220   0.682   1.982  0.2881 -0.5318 -1.1405
84628SOL    HW271495   2.136   0.708   1.859  0.5672  1.2387 -0.9755
84629SOL     OW71496  13.393   1.109   5.908 -0.0405 -0.2837  0.0239
84629SOL    HW171497  13.414   1.017   5.924  0.3958 -0.0031  1.1680
84629SOL    HW271498  13.297   1.114   5.914 -0.1074 -0.7551 -0.6057
84630SOL     OW71499  12.622   3.990   4.829 -0.0542  0.3565 -0.5981
84630SOL    HW171500  12.583   3.906   4.804 -0.2816  0.2052  0.2308
84630SOL    HW271501  12.706   3.992   4.782 -0.0926 -0.2903 -0.7052
84631SOL     OW71502   2.787   8.251   0.696 -0.6133  0.2881  0.4010
84631SOL    HW171503   2.835   8.314   0.749 -2.2142 -0.0006  2.2968
84631SOL    HW271504   2.709   8.298   0.665 -0.9353 -0.2516  0.3637
84632SOL     OW71505   3.441  10.172   6.032 -0.0719 -0.5575  0.4709
84632SOL    HW171506   3.419  10.248   6.086 -1.1513 -0.4587 -0.0750
84632SOL    HW271507   3.377  10.106   6.056 -1.4771 -0.0612 -1.6084
84633SOL     OW71508  12.200   9.923   1.284 -0.8256 -0.1665 -0.3807
84633SOL    HW171509  12.226   9.868   1.358  1.6594  1.4699  0.0860
84633SOL    HW271510  12.134   9.982   1.320 -0.8659 -0.4868  0.0777
84634SOL     OW71511   5.277   7.537   7.488 -0.3392  0.1942 -0.5725
84634SOL    HW171512   5.199   7.497   7.526 -0.0708  0.3282  0.1371
84634SOL    HW271513   5.305   7.476   7.420 -0.7385 -0.1358 -0.4443
84635SOL     OW71514   3.004  12.873  13.736  0.1345 -0.0525  0.1150
84635SOL    HW171515   3.075  12.902  13.793  0.3225 -0.6468  0.1895
84635SOL    HW271516   2.941  12.945  13.737  1.1035  0.8224 -0.6112
84636SOL     OW71517   3.148   0.570   7.547 -0.2630 -0.1357  0.2561
84636SOL    HW171518   3.102   0.654   7.554 -0.8073 -0.2484 -1.4490
84636SOL    HW271519   3.212   0.583   7.477  1.6961 -0.3004  1.9086
84637SOL     OW71520   9.261  12.512   8.066  0.2930 -0.3530 -0.2730
84637SOL    HW171521   9.250  12.578   7.998 -0.3056 -1.5010 -1.3386
84637SOL    HW271522   9.212  12.436   8.033  0.2973 -1.0560  1.2769
84638SOL     OW71523   9.506   4.958  13.868  0.9397  0.5370 -0.9408
84638SOL    HW171524   9.557   5.010  13.929 -0.9856  2.0928 -0.5374
84638SOL    HW271525   9.489   4.876  13.914 -0.9443  1.8820  0.9767
84639SOL     OW71526   4.897   5.487   4.784 -0.3488  0.1999 -0.0863
84639SOL    HW171527   4.812   5.450   4.806  0.0956 -0.8377 -0.0332
84639SOL    HW271528   4.957   5.412   4.786  0.6489  0.9808  0.3108
84640SOL     OW71529   9.835   5.181   0.388  0.2392 -0.2840 -0.1576
84640SOL    HW171530   9.744   5.158   0.407  0.2218  0.3900  0.6138
84640SOL    HW271531   9.884   5.101   0.410 -0.1267 -0.5442 -0.2686
84641SOL     OW71532   4.520   0.327   9.094 -0.0569 -0.1312  0.0829
84641SOL    HW171533   4.609   0.337   9.061 -0.4658 -0.0960 -1.0655
84641SOL    HW271534   4.499   0.235   9.079  0.3951 -0.5772  1.9907
84642SOL     OW71535   2.224   4.542   6.822 -0.1779  0.3991 -0.1612
84642SOL    HW171536   2.300   4.600   6.826 -1.0135  1.4666  2.9768
84642SOL    HW271537   2.261   4.453   6.819  1.2185  0.8997  1.2667
84643SOL     OW71538   1.077  12.406   4.883 -0.6014 -0.6029  0.8481
84643SOL    HW171539   1.040  12.494   4.885  0.3245 -0.1141 -1.2100
84643SOL    HW271540   1.003  12.349   4.906 -0.8224  0.7143  3.9090
84644SOL     OW71541   6.376   0.352   4.216  0.1164  0.5030 -0.1123
84644SOL    HW171542   6.410   0.266   4.194 -1.0155  0.1540 -0.5694
84644SOL    HW271543   6.437   0.387   4.281  0.4256 -0.7584  0.2874
84645SOL     OW71544   1.692  11.933   8.088 -0.5603 -0.5274  0.5085
84645SOL    HW171545   1.753  11.890   8.147  0.1756  1.0795  0.9830
84645SOL    HW271546   1.619  11.872   8.080 -0.0817 -1.3559  2.0428
84646SOL     OW71547  11.040  11.354   2.652  0.2135  0.0286 -0.6090
84646SOL    HW171548  11.058  11.394   2.567  1.1260  2.7606  0.7700
84646SOL    HW271549  11.011  11.426   2.708  0.4968 -1.5029  1.6701
84647SOL     OW71550  11.325   1.425   7.097 -0.6728 -0.1295 -0.1217
84647SOL    HW171551  11.345   1.358   7.032 -1.7569  1.5922 -2.3524
84647SOL    HW271552  11.411   1.457   7.125 -0.1614 -0.0709 -1.6530
84648SOL     OW71553   5.545  10.594  11.466 -0.4094  0.0385 -0.1379
84648SOL    HW171554   5.631  10.586  11.424  0.0591  0.6269  0.6748
84648SOL    HW271555   5.522  10.687  11.454 -1.0525 -0.1650 -0.5588
84649SOL     OW71556   7.931   7.823   4.371 -0.4213 -0.2016  0.0392
84649SOL    HW171557   7.974   7.761   4.311 -0.2384 -0.1277  0.0915
84649SOL    HW271558   7.904   7.896   4.314  1.2716  0.6757  0.2759
84650SOL     OW71559   2.282   5.377   7.487  0.6232  0.2196  0.8278
84650SOL    HW171560   2.221   5.450   7.493  2.3815  1.6687  2.1615
84650SOL    HW271561   2.276   5.334   7.572 -0.6002 -1.4285 -0.0381
84651SOL     OW71562  10.205  10.218   1.483 -0.1278 -0.1535  0.3495
84651SOL    HW171563  10.184  10.214   1.390  0.1423  1.3224  0.1948
84651SOL    HW271564  10.120  10.216   1.527 -0.2942 -0.1362  0.0300
84652SOL     OW71565  13.705  13.196   9.435  0.2494  0.3826  0.4453
84652SOL    HW171566  13.721  13.247   9.356  1.9386 -0.7663 -0.0120
84652SOL    HW271567  13.677  13.110   9.404  2.7358 -0.7024  0.9369
84653SOL     OW71568   7.365  12.651  11.016 -0.3212  0.1990 -0.4275
84653SOL    HW171569   7.312  12.708  11.071  0.3107 -1.5982  2.2600
84653SOL    HW271570   7.438  12.707  10.987 -0.7767  1.2720  0.4160
84654SOL     OW71571   9.594  11.039  10.999 -0.1180 -0.9252  0.0645
84654SOL    HW171572   9.507  11.065  10.967 -0.4331  0.4663  1.9145
84654SOL    HW271573   9.655  11.090  10.945 -0.6210  0.9377  1.1423
84655SOL     OW71574  11.089   7.904   3.647 -0.2959 -0.5454  0.2580
84655SOL    HW171575  11.017   7.845   3.625 -1.1337  0.4558  0.3041
84655SOL    HW271576  11.055   7.992   3.631  0.9114 -0.0548  0.2847
84656SOL     OW71577   8.123   3.944  13.828 -0.3397 -0.0384  0.0890
84656SOL    HW171578   8.152   3.966  13.740  0.4714 -0.0004  0.3576
84656SOL    HW271579   8.033   3.977  13.833 -0.0905  0.7480 -0.4384
84657SOL     OW71580   1.427   3.434  11.689 -0.3393 -0.4379  0.1910
84657SOL    HW171581   1.520   3.419  11.707 -0.1957  1.4165  1.2190
84657SOL    HW271582   1.393   3.475  11.769 -1.6278  0.4925 -0.7912
84658SOL     OW71583   8.463   4.344   0.917  0.4020  0.3472  0.0872
84658SOL    HW171584   8.447   4.434   0.888 -0.0495  0.9440  2.0356
84658SOL    HW271585   8.556   4.344   0.941  0.6335  0.0155 -0.7752
84659SOL     OW71586   1.095   4.359   9.272 -0.2387 -0.5868  0.5332
84659SOL    HW171587   1.115   4.273   9.309  1.3807 -1.3482 -1.9150
84659SOL    HW271588   1.152   4.420   9.320  0.2512 -1.2082  0.7525
84660SOL     OW71589   1.936  13.853   2.513  0.1980  0.6721  0.7871
84660SOL    HW171590   1.852  13.860   2.558  0.4603  0.3797  1.3304
84660SOL    HW271591   1.924  13.782   2.450  0.8476 -1.2143  2.7141
84661SOL     OW71592   2.359   0.071  11.399  0.4576  0.3829  0.7459
84661SOL    HW171593   2.327   0.075  11.309  3.4902 -1.7612 -0.6164
84661SOL    HW271594   2.373   0.162  11.424  2.5345  1.0433 -2.2406
84662SOL     OW71595  13.572   8.039   7.747 -0.0581 -0.0786 -0.2940
84662SOL    HW171596  13.542   7.948   7.751 -1.4755  0.4058  0.9169
84662SOL    HW271597  13.528   8.082   7.820  1.0071  1.4722 -0.5208
84663SOL     OW71598  11.464   1.084  11.484  0.2161 -0.0058  0.9168
84663SOL    HW171599  11.510   1.141  11.422  0.7787 -0.3733  0.9912
84663SOL    HW271600  11.468   1.131  11.567  1.2148 -0.4163  1.1165
84664SOL     OW71601   8.027  13.170   8.981  0.1324  0.1683 -0.0691
84664SOL    HW171602   8.030  13.254   9.026  0.2183  0.1099  0.0347
84664SOL    HW271603   8.031  13.105   9.051  2.5512  0.0433 -0.2444
84665SOL     OW71604   5.290  12.190  11.234  0.3045  0.2296  0.0413
84665SOL    HW171605   5.308  12.146  11.317 -0.1155 -0.4658 -0.2297
84665SOL    HW271606   5.282  12.119  11.170 -1.5446  0.6000 -0.2004
84666SOL     OW71607   3.542   6.010  11.894 -0.5354  0.5823 -0.2511
84666SOL    HW171608   3.524   6.084  11.952  0.8421  1.4682 -0.9207
84666SOL    HW271609   3.621   5.970  11.929 -0.2202  0.5603 -0.9770
84667SOL     OW71610   7.076   3.374   1.757  0.1567  1.2120 -0.9163
84667SOL    HW171611   7.075   3.279   1.747 -0.9651  1.0892  0.2084
84667SOL    HW271612   7.108   3.406   1.672  3.2963 -0.2343 -0.4503
84668SOL     OW71613  10.771   3.700   7.585  0.4534 -0.4045 -0.0197
84668SOL    HW171614  10.823   3.640   7.533  0.6212 -1.3218  1.1692
84668SOL    HW271615  10.819   3.708   7.668  0.5666  1.5703 -0.2255
84669SOL     OW71616  10.617  13.920   1.247  0.0404 -0.1436  0.2846
84669SOL    HW171617  10.528  13.917   1.284  0.1471 -0.4192  0.5210
84669SOL    HW271618  10.606  13.888   1.158  0.3208 -2.8447  1.1426
84670SOL     OW71619  13.813   4.929   8.197 -0.0700  0.2001 -0.3891
84670SOL    HW171620  13.792   4.944   8.105 -0.3216 -0.3762 -0.4285
84670SOL    HW271621  13.731   4.902   8.237  0.2342 -0.4382 -0.1913
84671SOL     OW71622   5.792   7.074   1.140 -0.3335 -0.3242 -0.1667
84671SOL    HW171623   5.838   7.100   1.219 -1.2336 -1.1525  0.6462
84671SOL    HW271624   5.847   7.006   1.102 -1.4252 -2.2203  1.4740
84672SOL     OW71625   5.856   3.654   1.664 -0.0894  0.1307  0.4849
84672SOL    HW171626   5.915   3.695   1.727  2.2584 -1.9911 -0.2121
84672SOL    HW271627   5.892   3.677   1.578 -0.8021 -0.4942  0.0023
84673SOL     OW71628  12.714   5.165   5.427 -0.0497  0.0546  0.2428
84673SOL    HW171629  12.739   5.118   5.506  1.3177  2.6811  1.4861
84673SOL    HW271630  12.782   5.143   5.363  0.0177 -0.4213  0.4798
84674SOL     OW71631   2.238   0.380   3.456  0.0757  0.2980  0.1382
84674SOL    HW171632   2.321   0.362   3.412  0.6354  1.0196  0.8509
84674SOL    HW271633   2.176   0.318   3.417  0.8732 -0.0507 -0.6218
84675SOL     OW71634   4.911  12.343   7.046 -0.1390  0.1288  0.3042
84675SOL    HW171635   4.822  12.313   7.064 -0.1101 -0.4663 -0.4504
84675SOL    HW271636   4.899  12.423   6.994 -0.2356 -0.0490  0.0506
84676SOL     OW71637   3.596   7.778   1.704  0.0349  1.0336  0.7539
84676SOL    HW171638   3.667   7.714   1.705 -1.6364 -0.9903 -0.2603
84676SOL    HW271639   3.601   7.818   1.617  0.7963  1.9505  1.2152
84677SOL     OW71640   0.976  12.709   6.704  0.3589 -0.2294 -0.9179
84677SOL    HW171641   0.950  12.678   6.791 -0.1279  0.5251 -0.7813
84677SOL    HW271642   0.961  12.634   6.646  1.1399 -0.8930 -0.2865
84678SOL     OW71643   1.335   9.842  12.749 -0.3179 -0.0991  0.2701
84678SOL    HW171644   1.374   9.800  12.825  0.2280  1.3478  0.8079
84678SOL    HW271645   1.409   9.873  12.697 -0.6793 -1.0356 -0.8581
84679SOL     OW71646   1.985   0.047   0.048 -0.1105  0.2486 -0.0314
84679SOL    HW171647   2.069   0.011   0.022 -1.0746 -3.3170  1.2268
84679SOL    HW271648   1.933   0.048  -0.033  0.2276 -0.4212 -0.2621
84680SOL     OW71649   9.599   6.886   1.937  0.4828 -0.3026  0.4778
84680SOL    HW171650   9.633   6.807   1.979  0.3945 -0.6401 -0.0722
84680SOL    HW271651   9.547   6.929   2.005  0.1712 -0.9449  0.6521
84681SOL     OW71652   3.393   7.343   4.145  0.5057  0.0541 -0.7039
84681SOL    HW171653   3.347   7.425   4.159  1.5715  0.6320 -0.4631
84681SOL    HW271654   3.465   7.366   4.086  2.3382 -0.1371  1.3218
84682SOL     OW71655   5.073   1.950   0.112  0.3223 -0.3301  0.1759
84682SOL    HW171656   4.987   1.991   0.098  1.5642  2.1811 -0.6722
84682SOL    HW271657   5.092   1.906   0.030  0.4377  0.3389 -0.1662
84683SOL     OW71658   6.037   1.479   3.043  0.0711  0.4007  0.3793
84683SOL    HW171659   5.979   1.463   2.968 -0.2877  3.5625 -0.1715
84683SOL    HW271660   6.123   1.447   3.014 -0.8989 -2.4939  0.4315
84684SOL     OW71661   1.124   0.030   7.740 -0.4117 -1.1977  0.2007
84684SOL    HW171662   1.112   0.025   7.834  0.6863  0.3488  0.4646
84684SOL    HW271663   1.214   0.061   7.728 -0.9424 -0.0583 -1.2951
84685SOL     OW71664   7.378   8.607   1.584  0.7854 -0.7551  0.3146
84685SOL    HW171665   7.377   8.666   1.660  0.5384  1.1009 -1.0515
84685SOL    HW271666   7.289   8.574   1.578  0.0048  1.3549 -0.7625
84686SOL     OW71667  13.704  10.446   2.931 -0.4418  0.1143  0.2570
84686SOL    HW171668  13.715  10.440   3.026 -0.3285  2.7791  0.4994
84686SOL    HW271669  13.794  10.445   2.897 -0.4385  0.1693  0.2647
84687SOL     OW71670  11.954   4.787   5.017 -0.2432  0.0058 -0.1497
84687SOL    HW171671  11.924   4.792   5.108 -2.1568 -1.6390 -0.6095
84687SOL    HW271672  11.995   4.700   5.011  1.1445  0.6610 -0.5421
84688SOL     OW71673   9.182   6.463   6.833 -0.6011  0.5466  0.4127
84688SOL    HW171674   9.260   6.418   6.800 -2.6631 -1.7144 -1.8256
84688SOL    HW271675   9.211   6.507   6.913  2.7260 -0.8715  0.1328
84689SOL     OW71676   5.909   4.055   3.532  0.0286 -0.2352  0.0514
84689SOL    HW171677   5.958   3.986   3.576  1.2829  1.2259  1.0411
84689SOL    HW271678   5.825   4.057   3.579 -0.5145 -1.8336 -0.7654
84690SOL     OW71679   1.097   8.697   9.600  0.1773 -0.4095 -0.0443
84690SOL    HW171680   1.005   8.688   9.623  0.9903 -2.7857  2.8356
84690SOL    HW271681   1.138   8.737   9.677  1.4326  2.1740 -1.8798
84691SOL     OW71682  12.357  10.718   5.351 -0.9803  0.1146 -0.6316
84691SOL    HW171683  12.293  10.740   5.282 -1.8330 -1.2004 -0.3024
84691SOL    HW271684  12.435  10.692   5.304 -0.5409  2.0016 -1.0455
84692SOL     OW71685   2.260  11.404  13.060 -0.0531 -0.5560 -0.3097
84692SOL    HW171686   2.228  11.487  13.024 -0.2641 -0.3993  0.2234
84692SOL    HW271687   2.325  11.374  12.996  0.0660  0.0454 -0.4859
84693SOL     OW71688   5.405   6.866  11.031 -0.2818 -0.3039 -0.2310
84693SOL    HW171689   5.381   6.773  11.037 -0.8717 -0.3385 -2.2639
84693SOL    HW271690   5.352   6.908  11.098 -1.4754 -1.2205 -0.5494
84694SOL     OW71691  10.840  10.750   6.653 -0.3169  0.2089  0.7851
84694SOL    HW171692  10.888  10.704   6.584 -2.4100 -0.5433 -0.2599
84694SOL    HW271693  10.884  10.835   6.660 -1.8151  1.6869 -3.8705
84695SOL     OW71694  10.566   3.710   7.186 -0.1571  0.3414  0.4509
84695SOL    HW171695  10.479   3.684   7.218 -0.9156 -0.9263 -2.3978
84695SOL    HW271696  10.619   3.631   7.194  0.5941  0.9200  1.5082
84696SOL     OW71697   1.704   0.491  13.632  0.0812  0.2963  0.3591
84696SOL    HW171698   1.796   0.518  13.629  0.5236 -1.2081 -0.8231
84696SOL    HW271699   1.655   0.569  13.608  1.1146  0.8726  0.0585
84697SOL     OW71700   3.692  10.080   0.811  0.0081 -0.7802  0.4981
84697SOL    HW171701   3.683   9.992   0.775  1.3581 -0.0688 -1.7219
84697SOL    HW271702   3.782  10.084   0.842  1.0218  0.7368 -2.3203
84698SOL     OW71703  10.737  13.986   9.552  0.1325 -0.4802  0.2427
84698SOL    HW171704  10.774  14.073   9.539 -1.6751  0.2089 -0.6222
84698SOL    HW271705  10.783  13.952   9.629  0.7849  1.2837  0.6870
84699SOL     OW71706   4.273   1.492   9.219  0.1032 -0.5087  0.5505
84699SOL    HW171707   4.366   1.477   9.237  0.2662 -0.8792 -0.4899
84699SOL    HW271708   4.229   1.472   9.301  0.9924  0.1895  1.2093
84700SOL     OW71709   4.071   6.106   0.340 -0.3951 -0.8463 -0.3749
84700SOL    HW171710   4.118   6.029   0.374  0.3810  0.6232  2.1155
84700SOL    HW271711   3.991   6.110   0.392 -0.3162  0.1728 -0.3212
84701SOL     OW71712   4.411   1.498   5.726  0.2444 -0.0974 -0.0215
84701SOL    HW171713   4.438   1.561   5.793  0.8639  0.4463 -0.7674
84701SOL    HW271714   4.358   1.549   5.665 -0.0031 -0.5084 -0.1553
84702SOL     OW71715   6.475   4.472   1.622  0.1100 -0.1431 -0.2436
84702SOL    HW171716   6.446   4.399   1.676 -0.6290 -0.3366 -0.8839
84702SOL    HW271717   6.490   4.434   1.536 -0.4422  0.4697 -0.6292
84703SOL     OW71718   4.048   9.178   6.916 -0.7942  0.1423  0.0453
84703SOL    HW171719   3.988   9.104   6.912  0.8793 -1.2652 -0.5327
84703SOL    HW271720   4.068   9.188   7.009 -2.1171  0.8413  0.2805
84704SOL     OW71721   8.759  11.876   3.682 -0.1282 -0.0131  0.1877
84704SOL    HW171722   8.826  11.846   3.743 -0.8237  0.5222  1.2485
84704SOL    HW271723   8.680  11.830   3.710 -0.4308  0.1362 -0.4087
84705SOL     OW71724   6.810   4.794  11.809 -0.0769  0.0203 -0.0804
84705SOL    HW171725   6.854   4.833  11.885  2.5451 -0.0915 -1.4359
84705SOL    HW271726   6.759   4.722  11.846  1.2966 -0.1881  1.5833
84706SOL     OW71727   6.849  11.511   7.281  0.0056  0.2204  0.1193
84706SOL    HW171728   6.828  11.510   7.374  1.5229  1.8037  0.5402
84706SOL    HW271729   6.765  11.521   7.237 -0.6508  0.3258  1.3562
84707SOL     OW71730   1.447   2.861  10.405 -0.4882  0.4953  0.0871
84707SOL    HW171731   1.366   2.812  10.421 -0.9051  0.7424 -1.1560
84707SOL    HW271732   1.516   2.809  10.446 -1.1473 -0.2737  0.2309
84708SOL     OW71733   8.129  11.645   9.209 -0.0590 -0.0509 -0.5354
84708SOL    HW171734   8.206  11.605   9.168 -0.7437 -0.6798 -1.2552
84708SOL    HW271735   8.128  11.735   9.177  0.5112  0.0347 -0.3200
84709SOL     OW71736  12.400  12.172   9.360 -0.4990 -0.7654  0.0071
84709SOL    HW171737  12.360  12.259   9.350  0.3803 -0.4060 -0.5004
84709SOL    HW271738  12.335  12.111   9.325 -0.9214 -0.2674 -0.0838
84710SOL     OW71739   9.556   3.176   3.064  0.6058 -0.1861  0.0019
84710SOL    HW171740   9.626   3.239   3.084  0.9994 -0.3260 -0.8887
84710SOL    HW271741   9.478   3.215   3.102  1.1128  0.1067  0.7832
84711SOL     OW71742  10.945   0.140   9.191 -0.0136  0.2327  0.0176
84711SOL    HW171743  11.017   0.201   9.207 -0.1819  0.6672 -0.8260
84711SOL    HW271744  10.963   0.066   9.250  0.9430  0.4748  0.0561
84712SOL     OW71745   3.439   8.113   8.394 -0.4538 -0.5272  0.2678
84712SOL    HW171746   3.514   8.086   8.446  0.7188 -0.6994 -1.4626
84712SOL    HW271747   3.422   8.040   8.335  0.9103  1.2045 -2.4492
84713SOL     OW71748   1.726   2.022   3.931  0.3388  0.2404  0.2778
84713SOL    HW171749   1.740   1.957   4.000 -0.9322 -0.3598 -0.0067
84713SOL    HW271750   1.640   2.002   3.896  0.7699  0.8124 -1.1918
84714SOL     OW71751   8.240   6.585   2.237 -0.2610 -0.2011 -0.4157
84714SOL    HW171752   8.274   6.671   2.212  0.0467 -0.3522 -0.5111
84714SOL    HW271753   8.172   6.605   2.302  1.0714  0.0083  0.9635
84715SOL     OW71754   5.929   0.138   3.761  0.0859  0.4130  0.1233
84715SOL    HW171755   5.942   0.063   3.703 -1.6547 -0.0690  0.3109
84715SOL    HW271756   5.928   0.214   3.704  0.9908  0.2312 -0.1609
84716SOL     OW71757   0.388   1.914  11.026 -0.3418 -0.1230 -0.6596
84716SOL    HW171758   0.323   1.907  10.956 -1.0180 -0.8044  0.0181
84716SOL    HW271759   0.342   1.883  11.104  0.4873  0.3615  0.0344
84717SOL     OW71760  11.530   0.304   8.828 -0.4234 -0.2303 -0.4111
84717SOL    HW171761  11.549   0.336   8.740  1.2236  0.6481  0.2193
84717SOL    HW271762  11.439   0.328   8.844 -0.1756  1.2937 -1.1865
84718SOL     OW71763  11.554   4.858   5.350 -0.4445 -0.4054  0.8819
84718SOL    HW171764  11.553   4.951   5.375 -2.8007 -0.1140  0.0047
84718SOL    HW271765  11.464   4.829   5.365  0.0017 -2.2938  0.1714
84719SOL     OW71766   1.301  10.767   2.992  0.2065 -0.2787 -0.1842
84719SOL    HW171767   1.381  10.723   2.967  0.6923  0.5033 -0.0466
84719SOL    HW271768   1.278  10.731   3.077  1.4613  0.8300  0.6594
84720SOL     OW71769  13.304   3.898  11.013 -0.1078 -0.4163 -0.2247
84720SOL    HW171770  13.302   3.994  11.008 -1.1334 -0.3874  0.4015
84720SOL    HW271771  13.220   3.871  10.978  0.3892 -1.1305 -0.8901
84721SOL     OW71772   4.607  11.075   0.991 -0.0061  0.2598  0.0220
84721SOL    HW171773   4.598  11.012   0.919 -1.0337  0.9655 -0.4784
84721SOL    HW271774   4.568  11.031   1.066 -0.3666  0.1491 -0.2309
84722SOL     OW71775  11.177  11.682   8.927 -0.2510  0.5005  0.4361
84722SOL    HW171776  11.152  11.676   8.835  2.0663  1.6921 -0.3556
84722SOL    HW271777  11.132  11.761   8.958  1.3882  1.9218 -0.6204
84723SOL     OW71778   6.737   9.108  10.766 -0.2443 -0.4838  0.5015
84723SOL    HW171779   6.649   9.138  10.787 -0.0727  0.3224  0.0999
84723SOL    HW271780   6.723   9.031  10.710 -0.6984 -2.1992  2.8285
84724SOL     OW71781   5.703   0.739  11.297 -0.2856  0.4678  0.3410
84724SOL    HW171782   5.650   0.659  11.292  0.0744  0.2747 -0.6367
84724SOL    HW271783   5.763   0.733  11.223  1.3547  0.5209  1.5916
84725SOL     OW71784  11.953  12.749  11.425  0.2405 -0.1209  0.1671
84725SOL    HW171785  11.973  12.655  11.427  0.9131  0.0202  2.1024
84725SOL    HW271786  11.919  12.767  11.512 -0.1705  1.3899 -0.2901
84726SOL     OW71787   9.080   3.991   5.240 -0.2412 -0.4575  0.4293
84726SOL    HW171788   9.120   4.078   5.246  1.7866 -1.4151  1.5415
84726SOL    HW271789   9.036   3.979   5.325 -0.1388 -0.7004  0.4475
84727SOL     OW71790   1.809   5.779   8.611  0.1406  0.2973 -0.7769
84727SOL    HW171791   1.820   5.872   8.630  1.4543 -0.0763  0.4694
84727SOL    HW271792   1.757   5.777   8.531  1.4546  2.1413 -1.7584
84728SOL     OW71793   5.624   2.543   0.496  0.0112 -0.1313 -0.2406
84728SOL    HW171794   5.560   2.515   0.431 -1.3579 -2.0220  1.7689
84728SOL    HW271795   5.694   2.478   0.491 -1.5637 -2.1819  2.1298
84729SOL     OW71796   1.006  11.356   6.235  0.0179 -0.4405  0.1327
84729SOL    HW171797   1.055  11.276   6.255  1.8220  1.0260  2.0323
84729SOL    HW271798   0.935  11.357   6.300 -1.6593 -1.7374 -1.5743
84730SOL     OW71799   1.505   9.504   9.303 -0.1314  0.3259  0.0417
84730SOL    HW171800   1.492   9.412   9.282  0.6954 -0.0347  0.9659
84730SOL    HW271801   1.593   9.507   9.341  0.6180  1.8069 -1.6583
84731SOL     OW71802  10.009   4.301   2.911  0.4484  0.2332 -0.1370
84731SOL    HW171803   9.964   4.259   2.837  0.0714 -0.2685  0.3649
84731SOL    HW271804  10.051   4.228   2.957 -0.0354  0.4208  0.6242
84732SOL     OW71805  13.653   0.176  13.938  0.0356  0.2436 -0.4317
84732SOL    HW171806  13.694   0.091  13.923  1.7610  0.6851  1.4620
84732SOL    HW271807  13.602   0.165  14.018 -0.3173  0.8051 -0.5691
84733SOL     OW71808   1.763   1.729   9.893  0.1403 -0.1206 -0.1996
84733SOL    HW171809   1.815   1.801   9.859 -0.0996 -0.1266 -0.5727
84733SOL    HW271810   1.702   1.707   9.823  0.6453 -1.1111 -0.3462
84734SOL     OW71811   4.613   2.278  11.758  0.8827 -0.1896  0.7934
84734SOL    HW171812   4.633   2.203  11.703  0.4448  0.3740 -0.1557
84734SOL    HW271813   4.550   2.246  11.822 -0.5817 -0.2625 -0.6265
84735SOL     OW71814   9.322  12.312   5.608  0.1817  0.5659 -0.5814
84735SOL    HW171815   9.417  12.299   5.602 -0.1002 -1.3605 -1.9123
84735SOL    HW271816   9.299  12.360   5.529 -0.2937 -1.9231 -2.0732
84736SOL     OW71817  14.032  14.009   1.154 -0.4134  0.4751  0.9306
84736SOL    HW171818  14.051  14.069   1.226 -1.2137  1.2529  0.5172
84736SOL    HW271819  13.945  13.974   1.175 -0.6446  0.6991  0.3652
84737SOL     OW71820   9.945  10.388   1.336 -0.2018 -0.7387 -0.1200
84737SOL    HW171821  10.038  10.394   1.356 -0.3369  0.0121  0.3332
84737SOL    HW271822   9.929  10.458   1.272 -0.4936 -0.7238 -0.0343
84738SOL     OW71823   1.056   7.275  11.732  0.0479 -0.2476 -0.0878
84738SOL    HW171824   0.969   7.242  11.710 -0.5178 -0.7609  2.6102
84738SOL    HW271825   1.067   7.352  11.676 -2.5121  0.3609  0.1200
84739SOL     OW71826  13.251   9.439   3.000 -0.4036  0.0524 -0.0556
84739SOL    HW171827  13.235   9.510   2.937  1.6521  0.6288  0.0038
84739SOL    HW271828  13.248   9.359   2.946 -3.0195  0.0915 -0.0733
84740SOL     OW71829   5.041  12.924   8.225 -0.0478 -0.4673  0.0413
84740SOL    HW171830   5.042  12.976   8.306  0.0534  0.0655 -0.2972
84740SOL    HW271831   4.963  12.954   8.179 -0.0061 -0.6421 -0.1419
84741SOL     OW71832  10.110  11.513  11.782  0.1492  0.2856 -0.3580
84741SOL    HW171833  10.146  11.425  11.776 -0.8893 -0.2274  0.6412
84741SOL    HW271834  10.088  11.525  11.874  0.7341  1.7894 -0.3878
84742SOL     OW71835  12.671  12.903  10.108 -0.1623  0.2689  0.0800
84742SOL    HW171836  12.710  12.901  10.021  1.9564  0.9413  0.9426
84742SOL    HW271837  12.597  12.843  10.102  0.9506 -1.0596 -1.7164
84743SOL     OW71838   0.306  11.184   1.202 -0.5543 -0.2206  0.3286
84743SOL    HW171839   0.283  11.148   1.288  1.9765 -1.9230  0.4046
84743SOL    HW271840   0.382  11.240   1.220  0.3570 -1.0421 -0.8447
84744SOL     OW71841   5.147   4.454   1.452 -0.1794 -0.2227  0.0523
84744SOL    HW171842   5.115   4.372   1.415 -2.3791  0.0863  1.1106
84744SOL    HW271843   5.083   4.520   1.423 -0.0273  0.6022  1.4799
84745SOL     OW71844   5.952   2.483  10.260  0.2484  0.0806 -0.0973
84745SOL    HW171845   5.893   2.408  10.272  0.7370 -0.2414  0.3991
84745SOL    HW271846   5.938   2.511  10.170  0.5981 -1.0919 -0.5410
84746SOL     OW71847   3.378   3.501   2.227  0.0694 -0.2915  0.2484
84746SOL    HW171848   3.461   3.455   2.231  0.2025 -0.1885 -0.9525
84746SOL    HW271849   3.312   3.431   2.226  0.2403 -0.4636 -0.7962
84747SOL     OW71850   2.243   4.364  13.432  0.0285 -0.3838  0.2760
84747SOL    HW171851   2.251   4.307  13.508 -0.2682 -0.6951  0.0733
84747SOL    HW271852   2.211   4.307  13.362 -1.6330  0.3239  0.4313
84748SOL     OW71853   1.458   9.579  13.549 -0.2062  0.2673  0.3322
84748SOL    HW171854   1.445   9.673  13.538  0.4501  0.6390  2.2797
84748SOL    HW271855   1.442   9.564  13.642 -1.3134 -1.7542 -0.1313
84749SOL     OW71856   6.735   0.743   9.461  0.8777 -0.2356 -0.5165
84749SOL    HW171857   6.764   0.652   9.467  3.0552  0.3817 -0.6144
84749SOL    HW271858   6.816   0.794   9.470 -0.3693  1.7199  0.2512
84750SOL     OW71859   5.080   2.124  13.110 -0.1618 -0.0768  0.2360
84750SOL    HW171860   5.108   2.071  13.036  1.5028 -0.3680  1.0402
84750SOL    HW271861   5.024   2.066  13.161  1.6700 -1.1324  1.1284
84751SOL     OW71862   5.520  10.599   6.489  0.0645  0.4006  0.0083
84751SOL    HW171863   5.493  10.516   6.449  2.5092  0.0548 -1.1203
84751SOL    HW271864   5.565  10.572   6.569 -1.1263  0.8344  0.8532
84752SOL     OW71865  13.745   8.455   3.626  0.7289 -0.0705  0.1146
84752SOL    HW171866  13.745   8.548   3.603  1.7301 -0.1762 -0.3837
84752SOL    HW271867  13.838   8.431   3.626  0.4971 -1.0031  0.5193
84753SOL     OW71868   1.472   8.634  11.638  1.2130  0.6245 -0.2500
84753SOL    HW171869   1.468   8.730  11.639 -0.4691  0.5990 -1.0108
84753SOL    HW271870   1.521   8.612  11.559  1.5500  0.8433 -0.1044
84754SOL     OW71871   8.173  13.321  13.372 -0.0639 -0.5333  0.0150
84754SOL    HW171872   8.150  13.358  13.287  1.0990  0.1904 -0.0066
84754SOL    HW271873   8.168  13.226  13.359 -3.0246 -0.4549  0.0566
84755SOL     OW71874  13.968  10.654   3.037  0.3233 -0.2997 -0.0050
84755SOL    HW171875  14.045  10.697   2.998  0.0671 -0.2948 -0.5242
84755SOL    HW271876  13.941  10.591   2.970 -1.1474  0.8878 -0.5861
84756SOL     OW71877  10.257   5.847   4.542  0.4635  0.3750 -0.0139
84756SOL    HW171878  10.300   5.888   4.617  1.8015 -0.2155 -0.4265
84756SOL    HW271879  10.178   5.807   4.579  1.7299 -1.0014  1.3651
84757SOL     OW71880  12.276   0.750   0.472 -0.0260  0.0621 -0.0447
84757SOL    HW171881  12.193   0.770   0.517 -0.0032  0.5056 -0.1949
84757SOL    HW271882  12.341   0.753   0.542  0.1893  1.9445 -0.2687
84758SOL     OW71883  11.683   3.792  11.223 -0.2080 -0.0687  0.1426
84758SOL    HW171884  11.602   3.745  11.243  0.0826 -0.8498 -0.4732
84758SOL    HW271885  11.743   3.764  11.291 -0.8536  1.6360  1.4766
84759SOL     OW71886  10.700   7.119   4.737 -0.4687 -0.1935  0.3656
84759SOL    HW171887  10.788   7.086   4.722  0.0060  1.0999  0.1735
84759SOL    HW271888  10.645   7.072   4.674  0.5649  0.9927 -1.5141
84760SOL     OW71889   4.306  11.013  13.679 -0.1041  0.5436  0.3433
84760SOL    HW171890   4.389  11.017  13.727  0.4163  0.4809 -0.5408
84760SOL    HW271891   4.267  11.100  13.692 -0.3634  0.2715  1.5455
84761SOL     OW71892   2.939   6.310  13.016  0.2587  0.2579  0.4206
84761SOL    HW171893   3.009   6.340  13.073 -0.4353 -0.8683  1.9407
84761SOL    HW271894   2.877   6.267  13.075 -0.3817 -1.1812 -1.2120
84762SOL     OW71895   5.138   1.994   9.542  0.1276  0.5998  0.2532
84762SOL    HW171896   5.088   1.959   9.468 -0.5837  1.1241  0.4763
84762SOL    HW271897   5.170   1.917   9.589  1.2448  0.2544 -1.0214
84763SOL     OW71898   7.906   6.219   4.472 -0.0882 -0.1428  0.2497
84763SOL    HW171899   7.826   6.167   4.479 -1.0088  1.1335 -0.2781
84763SOL    HW271900   7.957   6.176   4.403 -0.3818 -0.8903  0.4931
84764SOL     OW71901   6.118   4.400  13.721  0.3794  0.8383 -0.4188
84764SOL    HW171902   6.105   4.477  13.666  0.6379  0.6921 -0.6928
84764SOL    HW271903   6.038   4.392  13.772 -0.0523  0.7113 -1.1038
84765SOL     OW71904   5.431   8.656  13.960  0.1607 -0.9300 -0.1792
84765SOL    HW171905   5.359   8.659  13.896  1.1502 -1.3069 -1.3360
84765SOL    HW271906   5.503   8.702  13.917  0.5205 -0.2224  1.1225
84766SOL     OW71907   9.275   0.345   0.762  0.1584 -0.4750  0.0036
84766SOL    HW171908   9.186   0.368   0.733  0.2519 -2.8069 -2.6138
84766SOL    HW271909   9.325   0.426   0.750 -1.1771  0.2946 -0.6704
84767SOL     OW71910   2.626   1.294  11.297 -0.1064 -0.0073 -0.4455
84767SOL    HW171911   2.592   1.238  11.367 -0.2425 -1.8048 -1.8731
84767SOL    HW271912   2.580   1.377  11.308 -0.8340 -0.5689  0.9977
84768SOL     OW71913   3.422   3.862   7.012  0.3498  0.0513  0.0727
84768SOL    HW171914   3.383   3.830   6.931  0.1853 -1.8987  0.8549
84768SOL    HW271915   3.347   3.883   7.069  0.3950  3.4523 -0.8896
84769SOL     OW71916   5.849   2.014   5.028 -0.0043 -0.1513  0.0332
84769SOL    HW171917   5.939   2.048   5.034 -0.2950  0.3777  2.5234
84769SOL    HW271918   5.806   2.072   4.966  1.2961 -0.2253 -0.9755
84770SOL     OW71919   0.749  12.792   3.374  0.2129  0.0428  0.4706
84770SOL    HW171920   0.729  12.735   3.448  0.7370  1.3502  1.6659
84770SOL    HW271921   0.837  12.765   3.346  0.6053  0.4621  1.2562
84771SOL     OW71922   3.697   1.258   7.096 -0.6905  0.3186  0.2638
84771SOL    HW171923   3.763   1.264   7.027 -0.3670 -0.3500  0.5006
84771SOL    HW271924   3.677   1.349   7.118 -1.2552  0.5674 -1.1271
84772SOL     OW71925  11.495   3.358   9.906 -0.0882 -0.3134  1.1667
84772SOL    HW171926  11.573   3.329   9.860  0.9236  2.3253  1.0336
84772SOL    HW271927  11.423   3.314   9.861  1.1942 -1.4584  0.1545
84773SOL     OW71928   9.960   1.670   9.584  0.1159  0.1765 -0.4192
84773SOL    HW171929   9.973   1.579   9.557 -0.3240 -0.3887  1.1432
84773SOL    HW271930  10.047   1.701   9.606  0.2223  0.0207 -0.6154
84774SOL     OW71931   9.042   1.876  11.998  0.1956  0.1198 -0.3390
84774SOL    HW171932   9.061   1.802  11.939  1.7900  0.3605 -0.1697
84774SOL    HW271933   9.120   1.885  12.051 -0.3238  1.3868  0.2562
84775SOL     OW71934  10.422   0.169  12.929  0.6997 -0.4742 -0.3033
84775SOL    HW171935  10.423   0.231  12.856  0.0744  0.1447  0.2074
84775SOL    HW271936  10.515   0.149  12.945  1.0887  1.9345  0.8732
84776SOL     OW71937   2.937  10.089   7.449 -0.3926  0.0493 -0.0443
84776SOL    HW171938   2.911   9.998   7.437  0.9141 -0.3464  0.0127
84776SOL    HW271939   2.862  10.140   7.417 -0.9642 -1.0370 -0.4690
84777SOL     OW71940  12.972  11.094  11.323 -0.2374  0.2875 -0.4979
84777SOL    HW171941  12.951  11.007  11.356 -1.1017  0.4585 -0.5879
84777SOL    HW271942  13.049  11.121  11.374  0.1573 -0.6038 -0.6086
84778SOL     OW71943   7.337  10.516  12.366  0.0859 -0.0668 -0.4655
84778SOL    HW171944   7.362  10.460  12.294  0.0743  0.3932 -0.8331
84778SOL    HW271945   7.243  10.502  12.377  0.5881 -2.5352  1.5513
84779SOL     OW71946   3.194  10.679  12.192  0.3852 -0.3372  0.2168
84779SOL    HW171947   3.221  10.596  12.153 -1.2226  0.1618 -2.1582
84779SOL    HW271948   3.104  10.665  12.220 -0.7321  1.0937 -2.2520
84780SOL     OW71949   0.772   3.081   6.536  0.2763  0.3095 -0.1329
84780SOL    HW171950   0.859   3.100   6.499  0.3111  1.6311  0.5670
84780SOL    HW271951   0.720   3.158   6.516 -1.1106 -0.9028 -1.4886
84781SOL     OW71952  11.114   3.615  13.613  0.1049  0.1905 -0.1271
84781SOL    HW171953  11.138   3.575  13.529 -0.4181 -0.4306  0.0117
84781SOL    HW271954  11.197   3.643  13.651  0.1417  3.8533 -2.4538
84782SOL     OW71955  10.396   0.665   8.955 -0.3787  0.5514  0.1240
84782SOL    HW171956  10.452   0.713   8.894 -0.5775  0.7985  0.1350
84782SOL    HW271957  10.399   0.574   8.925 -1.2205  0.8189 -0.8062
84783SOL     OW71958   5.396   3.499  12.969 -0.6218 -0.0741 -0.5789
84783SOL    HW171959   5.443   3.503  13.052  0.3515 -3.3233 -0.8350
84783SOL    HW271960   5.441   3.562  12.913  0.4915  0.1591  0.5316
84784SOL     OW71961   7.750   4.923  13.764 -0.0429  0.0856 -0.1928
84784SOL    HW171962   7.725   4.999  13.712 -1.4189 -0.5124 -0.4647
84784SOL    HW271963   7.776   4.959  13.849 -1.9243  0.8146  0.1251
84785SOL     OW71964   3.147   0.237  10.200  0.1675  0.4109  0.0555
84785SOL    HW171965   3.110   0.177  10.136  0.0612  1.7226 -1.1560
84785SOL    HW271966   3.072   0.286  10.234  0.5142  1.7445 -1.0074
84786SOL     OW71967   3.505  13.881   4.971  0.0461 -0.2274 -0.2709
84786SOL    HW171968   3.414  13.876   5.001  0.2464 -1.0693  0.1885
84786SOL    HW271969   3.513  13.971   4.936 -0.7172  0.1287  0.4407
84787SOL     OW71970   8.394   1.531   5.212  0.0973 -0.3714 -0.1392
84787SOL    HW171971   8.478   1.491   5.192 -0.2885 -0.7104 -1.1619
84787SOL    HW271972   8.332   1.488   5.152 -0.5822  0.7400 -0.2649
84788SOL     OW71973   9.605   9.614   2.460  0.0583  0.3166 -0.0293
84788SOL    HW171974   9.523   9.629   2.507 -0.0735 -0.1049 -0.1242
84788SOL    HW271975   9.672   9.657   2.514  0.0110 -0.7880  0.9317
84789SOL     OW71976   4.837   8.505   5.747  0.6219  0.0562 -0.5671
84789SOL    HW171977   4.793   8.420   5.756  2.7595 -1.2754 -1.7563
84789SOL    HW271978   4.918   8.494   5.796  0.3872  1.9118  0.3011
84790SOL     OW71979   7.707   2.534  12.452 -0.3356 -0.1398 -1.0374
84790SOL    HW171980   7.772   2.465  12.435  0.7763  0.3752  0.8604
84790SOL    HW271981   7.759   2.612  12.469 -1.4771  0.4580 -0.1703
84791SOL     OW71982  10.039   0.943   0.263  0.1280 -0.7568  0.1198
84791SOL    HW171983   9.981   0.963   0.189 -0.9754 -1.4278  0.7648
84791SOL    HW271984  10.127   0.950   0.228 -0.3724 -1.0132 -1.2464
84792SOL     OW71985   1.657   4.967  10.908  0.9750 -0.1882 -1.0917
84792SOL    HW171986   1.735   5.019  10.929  1.0842  0.2844 -2.5401
84792SOL    HW271987   1.680   4.878  10.933  0.2169  0.5744  2.9222
84793SOL     OW71988  13.553   3.690  12.960  0.3800 -0.2380  0.0761
84793SOL    HW171989  13.631   3.712  12.910 -0.4628  0.7198 -0.8692
84793SOL    HW271990  13.499   3.639  12.900 -0.7657  1.1563 -0.1392
84794SOL     OW71991   9.219  13.229   3.700 -0.4288 -0.3455 -0.1756
84794SOL    HW171992   9.184  13.312   3.669 -0.0992  0.9937  2.7688
84794SOL    HW271993   9.310  13.229   3.672 -0.3682  0.4100  0.0011
84795SOL     OW71994   0.173   0.928   0.051 -0.3834 -0.1037 -0.2145
84795SOL    HW171995   0.175   0.920  -0.044 -1.6766 -2.5482 -0.1095
84795SOL    HW271996   0.242   0.870   0.082  0.1212  0.7824  0.3497
84796SOL     OW71997   0.417   4.702  12.323 -0.2386  0.0741  0.2944
84796SOL    HW171998   0.439   4.695  12.416  1.9163  1.0966 -0.0708
84796SOL    HW271999   0.478   4.642  12.280 -1.1205 -0.2796 -0.4856
84797SOL     OW72000   4.965  14.035   0.799 -0.1987  0.1136 -0.1344
84797SOL    HW172001   4.943  14.096   0.869 -1.1390  1.3572 -1.4538
84797SOL    HW272002   5.045  13.992   0.828  0.2530  1.6734  1.0223
84798SOL     OW72003   7.241  13.432  11.169  0.3322 -0.3520  0.1577
84798SOL    HW172004   7.231  13.515  11.123 -0.4023 -0.4179  0.1878
84798SOL    HW272005   7.254  13.457  11.261 -0.0290 -0.2687  0.1883
84799SOL     OW72006  13.123   9.782   9.666  0.0560 -0.2914 -0.4596
84799SOL    HW172007  13.057   9.772   9.734  0.4421  2.6292  0.4845
84799SOL    HW272008  13.130   9.695   9.626 -2.9381 -1.1594  0.6461
84800SOL     OW72009  11.039  12.064   9.010  0.3621 -0.1555 -0.0460
84800SOL    HW172010  10.966  12.123   8.994  1.1661  1.0253  0.5345
84800SOL    HW272011  11.114  12.121   9.024  1.5959 -1.3490 -1.4434
84801SOL     OW72012   0.963   5.329  11.393 -0.0542  0.2742  0.0077
84801SOL    HW172013   1.034   5.341  11.456 -0.6531 -0.6450  0.8916
84801SOL    HW272014   0.901   5.400  11.413 -0.8208 -0.7025  1.3194
84802SOL     OW72015   1.627   9.030   7.361 -0.4194 -0.4216 -0.0933
84802SOL    HW172016   1.643   9.059   7.451 -0.7606 -0.6940  0.0525
84802SOL    HW272017   1.695   9.075   7.310 -1.2599  1.0848  0.0437
84803SOL     OW72018   2.691  11.662   6.990 -0.3083  0.4506  0.4560
84803SOL    HW172019   2.712  11.663   6.896  0.0334 -0.3381  0.5146
84803SOL    HW272020   2.689  11.754   7.014 -0.8815  0.6855 -0.4309
84804SOL     OW72021   6.781   9.215  12.251 -0.0730 -0.1420  0.1292
84804SOL    HW172022   6.807   9.140  12.196  0.6457  0.6168 -0.5889
84804SOL    HW272023   6.858   9.272  12.252 -0.7984  0.8522  0.2301
84805SOL     OW72024   1.990   2.567   9.098 -0.0581  0.2428  0.4580
84805SOL    HW172025   1.990   2.651   9.053  0.7938  0.1431  0.2596
84805SOL    HW272026   2.076   2.529   9.080 -0.1156 -0.2980  1.2372
84806SOL     OW72027  11.281  12.443   6.708  0.1404  0.0063 -0.1906
84806SOL    HW172028  11.233  12.424   6.628 -1.2727  1.6385  0.2049
84806SOL    HW272029  11.215  12.434   6.778  1.0115 -0.0685  0.6443
84807SOL     OW72030  13.005  12.015   6.102 -0.0305 -0.4725 -0.4164
84807SOL    HW172031  13.070  12.084   6.115 -0.5900 -0.1270  0.6659
84807SOL    HW272032  13.051  11.934   6.127  0.1986 -0.3206 -0.3469
84808SOL     OW72033   2.984   7.862   4.049 -0.0011 -0.1220 -0.1611
84808SOL    HW172034   3.074   7.833   4.066 -0.4256 -0.6514  1.3252
84808SOL    HW272035   2.986   7.957   4.062  0.4091 -0.0853 -0.4706
84809SOL     OW72036  10.853   2.704  13.581  0.3871 -0.1462  0.4270
84809SOL    HW172037  10.764   2.731  13.559  0.1164 -1.5747 -0.3434
84809SOL    HW272038  10.852   2.692  13.676  0.4997  2.3068  0.8158
84810SOL     OW72039   3.691   8.057  11.323  0.3571 -0.3332 -0.1997
84810SOL    HW172040   3.658   7.972  11.351  1.6530 -0.7572  0.1025
84810SOL    HW272041   3.617   8.117  11.336 -0.4416 -1.3240 -0.0364
84811SOL     OW72042   1.966   2.421   3.113 -1.0054 -0.8244 -0.9129
84811SOL    HW172043   1.900   2.455   3.053  0.0583 -0.4065 -1.8756
84811SOL    HW272044   2.045   2.410   3.059  1.4119  3.7246  1.1058
84812SOL     OW72045   5.344   2.524   1.976  0.2888 -0.0321 -0.8966
84812SOL    HW172046   5.396   2.514   1.897 -0.1630  0.0719 -1.2083
84812SOL    HW272047   5.360   2.614   2.005 -0.3836  0.2785 -1.4708
84813SOL     OW72048   9.443   9.328  13.399 -0.6917 -0.0163  0.3128
84813SOL    HW172049   9.492   9.373  13.467  1.2631  1.9372 -2.2154
84813SOL    HW272050   9.372   9.388  13.377 -1.7895 -0.9853  1.0599
84814SOL     OW72051   1.850   2.108   6.964 -0.2437  0.7471  0.0431
84814SOL    HW172052   1.871   2.016   6.976  0.4475  0.9857  0.7376
84814SOL    HW272053   1.906   2.136   6.891 -1.7291  0.2125 -1.3676
84815SOL     OW72054   0.559   9.180   2.115  0.2696 -0.2849  0.2215
84815SOL    HW172055   0.486   9.229   2.154 -2.7176 -3.3117 -1.0260
84815SOL    HW272056   0.600   9.136   2.190  0.2963  0.7911  0.8580
84816SOL     OW72057   3.899   6.450   4.460  0.3712  0.1322  0.0445
84816SOL    HW172058   3.953   6.427   4.384  1.5153  2.0491  0.1946
84816SOL    HW272059   3.811   6.463   4.425  0.6582 -0.0508 -0.7594
84817SOL     OW72060   6.909   3.917  11.718  0.2618  0.0363  0.0583
84817SOL    HW172061   6.820   3.910  11.750  0.3783 -1.0441  0.1996
84817SOL    HW272062   6.908   3.991  11.658 -0.7817 -0.1160 -0.1202
84818SOL     OW72063   0.717  13.086  11.411 -0.4420  0.4138 -0.6498
84818SOL    HW172064   0.634  13.100  11.456 -1.0469 -1.0581 -1.2659
84818SOL    HW272065   0.693  13.072  11.320  0.5522  0.6802 -0.9676
84819SOL     OW72066  11.400   5.296   4.731 -0.2233  0.1596  0.4132
84819SOL    HW172067  11.400   5.242   4.653  0.4654 -1.2804  1.3783
84819SOL    HW272068  11.311   5.287   4.766 -0.3183  0.2312  0.1937
84820SOL     OW72069  12.997   8.280   5.494 -0.6528 -0.3068 -0.4767
84820SOL    HW172070  12.998   8.370   5.528  1.5059  0.1102 -1.4744
84820SOL    HW272071  13.042   8.229   5.560  0.0996 -0.2093 -0.8966
84821SOL     OW72072  13.394   8.434  10.412 -0.0516 -0.2156 -0.3485
84821SOL    HW172073  13.468   8.419  10.471 -0.0095 -0.5888 -0.4892
84821SOL    HW272074  13.344   8.504  10.453  0.6685  0.4092 -0.5185
84822SOL     OW72075   9.518   1.531  11.849  0.0768  0.4055  0.1707
84822SOL    HW172076   9.586   1.554  11.786  0.8203  1.1073  1.1899
84822SOL    HW272077   9.526   1.597  11.918 -2.0600  0.8855  0.0265
84823SOL     OW72078   5.260   6.611   4.170  0.0998 -0.3346 -0.1452
84823SOL    HW172079   5.313   6.559   4.232  0.0533  0.3110  0.4563
84823SOL    HW272080   5.305   6.696   4.167 -0.4115 -0.0687 -0.3043
84824SOL     OW72081  10.001   9.487   0.278  0.8253 -0.3959  0.4293
84824SOL    HW172082  10.035   9.515   0.363 -0.4175 -3.0309  1.9143
84824SOL    HW272083  10.079   9.458   0.230  1.3126 -1.0557  1.5853
84825SOL     OW72084   4.577  13.683   7.492 -0.2420 -0.3557 -0.1562
84825SOL    HW172085   4.647  13.623   7.519 -0.3330 -0.3356  0.1250
84825SOL    HW272086   4.586  13.689   7.397 -0.5947 -1.2534 -0.2511
84826SOL     OW72087   2.461  11.669  12.452 -0.9470  0.0201  0.5267
84826SOL    HW172088   2.457  11.758  12.415 -3.0154 -1.0010 -1.9559
84826SOL    HW272089   2.507  11.618  12.385 -0.3329 -0.9387  1.6560
84827SOL     OW72090   3.298   2.583   6.725  0.5598 -0.1320 -0.1960
84827SOL    HW172091   3.383   2.555   6.692  0.7935 -1.1924  1.1793
84827SOL    HW272092   3.319   2.640   6.799  0.1509 -2.0276  1.4619
84828SOL     OW72093   3.791   7.215  11.201 -0.1619 -0.2231  0.6874
84828SOL    HW172094   3.847   7.290  11.219  1.1975 -1.4033  1.6136
84828SOL    HW272095   3.708   7.237  11.243 -0.5006  1.5875 -0.7729
84829SOL     OW72096   3.311   9.598   6.660  0.4935  0.0833 -0.0570
84829SOL    HW172097   3.327   9.677   6.712 -0.1451 -0.2615  0.6837
84829SOL    HW272098   3.256   9.628   6.588  0.1546  0.2911  0.2872
84830SOL     OW72099   7.186   2.247   6.434 -0.4721  0.5315  0.1155
84830SOL    HW172100   7.210   2.168   6.386 -3.2225 -0.7191  0.6508
84830SOL    HW272101   7.264   2.302   6.428  1.4588 -2.0708 -0.4924
84831SOL     OW72102  12.437  12.603  11.114 -0.1185  0.5383 -0.6497
84831SOL    HW172103  12.409  12.544  11.044 -0.4808  0.8511 -0.7688
84831SOL    HW272104  12.356  12.631  11.156  0.1604 -1.3119  1.2901
84832SOL     OW72105   8.210  12.906   2.529 -0.1976  0.3217 -0.3731
84832SOL    HW172106   8.282  12.947   2.578  1.3684 -1.4387 -1.0874
84832SOL    HW272107   8.177  12.839   2.589 -0.6617  0.5384 -0.3884
84833SOL     OW72108  10.170   4.689   9.528  0.4126  0.0333 -0.1497
84833SOL    HW172109  10.076   4.675   9.541  0.6482 -0.9414  0.6341
84833SOL    HW272110  10.211   4.611   9.566  1.4613 -0.4242 -2.0948
84834SOL     OW72111  13.825   3.900   0.742 -0.5123  0.1860 -0.0535
84834SOL    HW172112  13.865   3.827   0.789 -0.9698  0.1637  0.3082
84834SOL    HW272113  13.809   3.966   0.809  3.0285  2.1043 -0.8390
84835SOL     OW72114  13.633   3.480   8.156  0.1533  0.6357 -0.1292
84835SOL    HW172115  13.636   3.388   8.182  0.0336  0.5339 -0.4761
84835SOL    HW272116  13.556   3.515   8.201 -0.9273  0.1010 -1.4812
84836SOL     OW72117   1.652   5.708   6.689  0.4672  0.1051 -0.0827
84836SOL    HW172118   1.731   5.662   6.718  0.4754  0.6193  0.7335
84836SOL    HW272119   1.685   5.793   6.658  0.3559 -0.1087 -0.8139
84837SOL     OW72120  11.059   2.857   8.166 -0.1485 -0.1626 -0.1810
84837SOL    HW172121  11.115   2.841   8.090 -0.8719 -1.3252 -0.5056
84837SOL    HW272122  10.971   2.862   8.130 -0.6437 -1.9078  0.6723
84838SOL     OW72123   3.131   9.466   1.619 -0.1587  0.4283 -0.2798
84838SOL    HW172124   3.056   9.468   1.559 -1.5292 -1.1245  1.3105
84838SOL    HW272125   3.193   9.406   1.577 -1.3507 -1.1054  0.0777
84839SOL     OW72126  12.911   7.700  10.031  0.3048  0.3398  0.3137
84839SOL    HW172127  12.959   7.781  10.052  0.8911  0.2946 -0.7306
84839SOL    HW272128  12.979   7.638  10.005 -0.3043  0.5107 -1.9657
84840SOL     OW72129   3.275   3.299  12.377 -0.0739  0.2182  0.1090
84840SOL    HW172130   3.261   3.206  12.397 -0.3288  0.2893  0.2722
84840SOL    HW272131   3.266   3.305  12.282 -1.3854  0.2945  0.2235
84841SOL     OW72132  12.369   1.222   8.156 -0.0355  0.0737 -0.3998
84841SOL    HW172133  12.385   1.224   8.251  1.4672 -2.9368 -0.4723
84841SOL    HW272134  12.340   1.310   8.135  0.5725  1.1354  2.6923
84842SOL     OW72135   6.043   9.865   4.485 -0.6430 -0.3005 -0.6895
84842SOL    HW172136   6.066   9.774   4.505 -0.9532 -0.3885 -0.7147
84842SOL    HW272137   6.116   9.898   4.434  1.0531  0.4834  2.0603
84843SOL     OW72138   0.290   6.710   5.511 -0.5479 -0.5233  0.2611
84843SOL    HW172139   0.272   6.756   5.592 -0.3272  0.3028 -0.1511
84843SOL    HW272140   0.293   6.617   5.536 -0.0330 -0.2441  1.2648
84844SOL     OW72141  11.205   1.395   1.390  0.3572 -0.0693 -0.2858
84844SOL    HW172142  11.259   1.419   1.315  1.2049 -1.3699 -0.1129
84844SOL    HW272143  11.116   1.419   1.364  0.4089 -1.8204 -2.3169
84845SOL     OW72144   0.177   7.817  11.306  0.3770 -0.5530 -0.6410
84845SOL    HW172145   0.266   7.817  11.271  0.5316  0.7456 -0.3008
84845SOL    HW272146   0.122   7.847  11.234  0.5673  1.1533 -0.1114
84846SOL     OW72147   7.525  10.884   4.247 -0.0877  0.3594  0.3596
84846SOL    HW172148   7.474  10.843   4.317  0.0426 -0.0873  0.1930
84846SOL    HW272149   7.543  10.813   4.186  0.3910  0.6037  0.2155
84847SOL     OW72150   5.665  11.245   8.150  0.1325  0.4157 -0.1648
84847SOL    HW172151   5.627  11.322   8.107 -0.1914 -0.4785 -1.5265
84847SOL    HW272152   5.712  11.281   8.225  0.3062  1.9784 -0.9805
84848SOL     OW72153   2.795   7.541   8.048  0.5111 -0.4607  0.0362
84848SOL    HW172154   2.846   7.462   8.067  2.3726  0.7714  0.4357
84848SOL    HW272155   2.859   7.604   8.015 -0.5600  1.4977  1.4628
84849SOL     OW72156  12.124   5.972  10.053  0.3736 -0.4544 -0.3875
84849SOL    HW172157  12.113   6.048  10.111 -0.9401 -0.8518 -0.0787
84849SOL    HW272158  12.208   5.986  10.010  0.0013  1.3520 -0.5917
84850SOL     OW72159  11.572  11.971   8.120 -0.4031 -0.2906  0.3119
84850SOL    HW172160  11.609  11.923   8.195  0.5303 -0.7165 -0.4008
84850SOL    HW272161  11.635  12.041   8.104 -0.9182  0.1676  0.3084
84851SOL     OW72162  10.453   5.303   9.569 -0.1115 -0.2339 -0.4226
84851SOL    HW172163  10.395   5.314   9.494 -0.2809  1.1653 -0.1318
84851SOL    HW272164  10.538   5.285   9.531 -0.4691 -0.9372 -0.9030
84852SOL     OW72165   3.670   4.550   4.456 -0.4015 -0.0194  0.9473
84852SOL    HW172166   3.595   4.595   4.496 -1.7859 -1.4386  0.0707
84852SOL    HW272167   3.723   4.620   4.418 -1.0438  1.0509  1.9781
84853SOL     OW72168   2.163   8.035  13.997 -0.1470  0.3019  0.1041
84853SOL    HW172169   2.153   8.112  14.053 -0.0517 -0.0674  0.6384
84853SOL    HW272170   2.253   8.039  13.967  0.5131 -0.6890  1.7977
84854SOL     OW72171  12.519   9.184   4.309  0.3274 -0.0542  0.5096
84854SOL    HW172172  12.614   9.192   4.305  0.3631  0.3168  1.7589
84854SOL    HW272173  12.499   9.108   4.253  1.5340 -1.2711  1.6544
84855SOL     OW72174   5.038  13.482   0.400  0.3450 -0.1707  0.4618
84855SOL    HW172175   5.011  13.465   0.491  0.5108 -0.3337  0.4809
84855SOL    HW272176   4.964  13.530   0.362  1.1102  1.7378  1.2613
84856SOL     OW72177   1.224   1.662   8.176  0.8063  0.1700 -0.3286
84856SOL    HW172178   1.235   1.632   8.086  1.9525 -1.5050  0.2986
84856SOL    HW272179   1.301   1.717   8.193 -0.0877  1.5875 -0.7520
84857SOL     OW72180   6.165   5.856  13.818  0.2910  0.2258  0.2157
84857SOL    HW172181   6.081   5.819  13.846  1.2124 -0.4450  2.2184
84857SOL    HW272182   6.144   5.945  13.790 -1.1123  0.0162  0.5414
84858SOL     OW72183   3.278   3.520   6.573 -0.1861  0.2140  0.1787
84858SOL    HW172184   3.229   3.491   6.496 -0.2127  1.0642 -0.1381
84858SOL    HW272185   3.220   3.500   6.647  0.0754 -1.1262  0.0458
84859SOL     OW72186   6.846   6.122   4.362 -0.2423 -0.3244 -0.4643
84859SOL    HW172187   6.804   6.048   4.320  0.9343 -1.4880  0.3281
84859SOL    HW272188   6.926   6.086   4.400 -2.6435 -0.3464  5.7723
84860SOL     OW72189   7.122  12.552   5.404  0.2042  0.5367  0.3557
84860SOL    HW172190   7.175  12.607   5.462  0.6772 -3.3639  4.0600
84860SOL    HW272191   7.036  12.547   5.446 -0.3570 -0.1801 -0.8220
84861SOL     OW72192   5.435  11.295  11.255  0.6093 -0.1775 -0.1243
84861SOL    HW172193   5.407  11.336  11.173 -0.5304 -1.1968 -0.2774
84861SOL    HW272194   5.380  11.217  11.263  1.6929 -0.8761  0.8984
84862SOL     OW72195   5.604   7.405   6.572  0.1086 -0.0750 -0.4694
84862SOL    HW172196   5.631   7.415   6.663  2.2183 -1.3773 -0.8874
84862SOL    HW272197   5.571   7.491   6.547  0.7120  0.6575  1.1522
84863SOL     OW72198  13.297   1.541  11.074  0.0640 -0.0597 -0.1187
84863SOL    HW172199  13.317   1.448  11.062  0.7223  0.1139 -0.4701
84863SOL    HW272200  13.381   1.580  11.100 -0.4994  0.2233  1.3694
84864SOL     OW72201   8.707   2.177   4.564  0.3347 -0.2469  0.3822
84864SOL    HW172202   8.629   2.188   4.510  0.2020 -1.1366  0.3900
84864SOL    HW272203   8.676   2.135   4.644  0.5291  1.0603  1.1825
84865SOL     OW72204   3.988   4.407   7.910 -0.5809 -0.3431  0.0170
84865SOL    HW172205   3.986   4.441   8.000 -0.2625 -0.2062 -0.0266
84865SOL    HW272206   4.075   4.368   7.902 -0.9268 -1.1516  0.0590
84866SOL     OW72207   7.226   5.886   2.446  0.3845 -0.5687 -0.1304
84866SOL    HW172208   7.314   5.920   2.429  0.7424 -2.3909 -2.3917
84866SOL    HW272209   7.167   5.948   2.404  0.8138 -0.8277 -1.1550
84867SOL     OW72210   1.823   2.535   3.326  0.2814 -0.3562 -0.0252
84867SOL    HW172211   1.898   2.506   3.274  0.0095  0.7741 -1.1045
84867SOL    HW272212   1.804   2.623   3.293 -1.1929 -0.4180  0.5830
84868SOL     OW72213   2.184  11.871  10.065  0.2024  0.4624  0.0197
84868SOL    HW172214   2.111  11.814  10.087  0.8294 -0.7195 -0.8203
84868SOL    HW272215   2.192  11.865   9.970  0.0303  2.3062 -0.1490
84869SOL     OW72216   3.288   7.453   9.927  0.1667  0.7235 -0.3151
84869SOL    HW172217   3.355   7.459   9.859 -0.5679  1.6742 -0.9860
84869SOL    HW272218   3.269   7.359   9.933  2.2466  0.3052  0.6281
84870SOL     OW72219  12.991   4.304   5.708  0.0192 -0.4275  0.3672
84870SOL    HW172220  12.994   4.209   5.708  1.1351 -0.4316 -1.1263
84870SOL    HW272221  13.035   4.330   5.789 -0.8780 -1.1769  1.1014
84871SOL     OW72222   1.722   1.209   5.386  0.1997 -0.0813  0.4002
84871SOL    HW172223   1.693   1.248   5.304 -0.8201 -0.3267  0.6361
84871SOL    HW272224   1.793   1.266   5.416 -0.4699  0.9013  0.1505
84872SOL     OW72225  11.314   1.537   9.674 -0.2613  0.2415 -0.3471
84872SOL    HW172226  11.402   1.501   9.685 -0.0179  1.4088  2.0984
84872SOL    HW272227  11.303   1.545   9.579  2.8149  1.3702 -0.7096
84873SOL     OW72228  10.204  10.742  10.001  0.8783  0.2265  0.2388
84873SOL    HW172229  10.148  10.789  10.062 -0.6608 -0.3412 -0.6624
84873SOL    HW272230  10.148  10.728   9.924  1.9279 -1.2665 -0.2984
84874SOL     OW72231   1.503  14.054   4.097 -0.3354 -0.4504 -0.1405
84874SOL    HW172232   1.493  14.140   4.136 -0.1530 -0.2338 -0.5642
84874SOL    HW272233   1.567  14.009   4.153 -2.9491 -1.5814  2.1411
84875SOL     OW72234   2.321   6.024  12.924  0.4271  0.2392  0.1055
84875SOL    HW172235   2.234   5.990  12.941  0.2559  0.1639 -0.8498
84875SOL    HW272236   2.373   5.947  12.901  0.1293  0.5407 -1.7089
84876SOL     OW72237   0.277   0.703   8.835  0.1526 -0.2719  0.7395
84876SOL    HW172238   0.318   0.677   8.752  0.6710 -0.7538  1.1470
84876SOL    HW272239   0.342   0.758   8.878  0.1237 -0.5197  1.1045
84877SOL     OW72240   8.061  10.614   5.566 -0.3623  0.4135  0.1895
84877SOL    HW172241   8.133  10.608   5.502 -0.2835 -1.3408  0.3833
84877SOL    HW272242   8.032  10.523   5.577 -0.4247  0.6768  2.5948
84878SOL     OW72243  11.211   6.134   2.218 -0.3023  0.7112 -0.0306
84878SOL    HW172244  11.243   6.044   2.213 -0.4024  0.5746  1.3386
84878SOL    HW272245  11.241   6.165   2.304 -0.6436  1.8361 -0.3038
84879SOL     OW72246   6.307   9.058   5.123 -0.4331  0.1792 -0.9936
84879SOL    HW172247   6.365   9.107   5.181 -0.1328  0.0221 -1.1612
84879SOL    HW272248   6.220   9.069   5.161 -0.2428  0.1073 -0.5328
84880SOL     OW72249  11.109  10.654   0.048  0.1285 -0.0098 -0.5734
84880SOL    HW172250  11.096  10.559   0.050  0.5528 -0.0905 -1.4073
84880SOL    HW272251  11.202  10.665   0.030 -0.1501  0.5498 -1.7863
84881SOL     OW72252   2.525   9.627   5.700 -0.7264 -0.7330 -0.9125
84881SOL    HW172253   2.557   9.664   5.783 -1.6487  0.8165 -1.2219
84881SOL    HW272254   2.573   9.674   5.632  0.4193 -2.3736 -1.2919
84882SOL     OW72255  10.039  12.719   5.551  0.1061  0.2397  0.0649
84882SOL    HW172256   9.977  12.702   5.621  0.4964 -1.2549  0.0764
84882SOL    HW272257  10.024  12.649   5.488  1.9060 -0.2991  0.1785
84883SOL     OW72258   0.845   1.624   5.385  0.0349  0.2593 -0.2342
84883SOL    HW172259   0.848   1.685   5.311 -0.7570  0.7850  0.1514
84883SOL    HW272260   0.756   1.634   5.420  0.6767  0.6526  1.3210
84884SOL     OW72261  12.835   1.163   9.724  0.4380  0.2801 -0.1400
84884SOL    HW172262  12.803   1.081   9.688  0.0997  0.5895 -0.5649
84884SOL    HW272263  12.929   1.149   9.739  0.2527 -0.3878  0.4011
84885SOL     OW72264  14.016   2.397   3.832  0.4340 -0.2821 -0.6119
84885SOL    HW172265  14.107   2.374   3.848  0.8072 -0.1070 -2.3059
84885SOL    HW272266  13.993   2.351   3.752 -0.1564  1.6337 -1.6235
84886SOL     OW72267   1.583   5.400   0.145  0.7376  0.5896 -0.3713
84886SOL    HW172268   1.506   5.432   0.193 -0.0319  0.1611 -1.3010
84886SOL    HW272269   1.643   5.373   0.214 -0.4715 -0.2975  0.3753
84887SOL     OW72270   6.271   0.647  12.451  0.1592  0.0372 -0.4160
84887SOL    HW172271   6.259   0.562  12.408  1.4792 -0.7718  0.7003
84887SOL    HW272272   6.354   0.680  12.416  1.0927 -0.4865  1.1876
84888SOL     OW72273   5.266  10.023   5.616  0.9528 -0.2023 -0.3400
84888SOL    HW172274   5.347  10.027   5.667  1.6373  1.3736 -1.4700
84888SOL    HW272275   5.290   9.976   5.536  0.1380 -1.7820  0.3146
84889SOL     OW72276   0.486  12.000   7.587 -0.3165  0.7013  0.5041
84889SOL    HW172277   0.422  12.010   7.517 -0.0089  0.1318  0.1277
84889SOL    HW272278   0.434  11.978   7.664 -0.5521 -0.4057  0.0595
84890SOL     OW72279   6.625  13.736  11.072  0.0648  0.2030 -0.4774
84890SOL    HW172280   6.544  13.751  11.022 -0.6138 -1.3604  0.0951
84890SOL    HW272281   6.596  13.692  11.151  1.3038  1.2980  0.6226
84891SOL     OW72282  13.727   7.243  12.359  0.1910  0.6600  0.3199
84891SOL    HW172283  13.721   7.154  12.324  1.6622  0.8462 -0.5020
84891SOL    HW272284  13.768   7.294  12.289 -0.4107  1.9373  0.8715
84892SOL     OW72285  13.498   7.291   8.968  0.3012  0.1092 -0.4385
84892SOL    HW172286  13.523   7.219   8.910  0.5166  0.3117 -0.5984
84892SOL    HW272287  13.403   7.293   8.963  0.3196  0.1743 -0.8492
84893SOL     OW72288  13.687  13.765  11.503 -0.2619 -0.0221  0.6914
84893SOL    HW172289  13.684  13.738  11.595  1.5435 -1.6213  0.3516
84893SOL    HW272290  13.608  13.726  11.464  0.1063 -1.2645  1.1315
84894SOL     OW72291   5.051  11.235   4.594  0.3637  0.3374  0.4411
84894SOL    HW172292   4.969  11.285   4.588  0.1320 -0.1719 -2.0808
84894SOL    HW272293   5.081  11.247   4.684 -1.8746  1.4970  1.1028
84895SOL     OW72294  12.912   7.397  11.113 -0.0036 -0.0524  0.6231
84895SOL    HW172295  12.954   7.436  11.037 -1.9012  0.1240 -0.4111
84895SOL    HW272296  12.871   7.470  11.159 -0.3168 -0.3563  0.8394
84896SOL     OW72297   9.936   2.242  11.056 -0.0041 -0.2473  0.0017
84896SOL    HW172298  10.024   2.278  11.068  0.3313 -0.9067 -0.3953
84896SOL    HW272299   9.896   2.298  10.989  1.5231 -2.1999 -2.7735
84897SOL     OW72300  12.469   1.387   0.450  0.1749 -0.0323  0.6438
84897SOL    HW172301  12.503   1.336   0.377  0.3167  0.0998  0.6187
84897SOL    HW272302  12.535   1.454   0.466 -0.1046  0.2656  0.5473
84898SOL     OW72303  12.740   6.520   9.425  0.4495  0.5146  0.1969
84898SOL    HW172304  12.828   6.549   9.448  0.5750 -0.7648  1.4614
84898SOL    HW272305  12.694   6.515   9.509 -0.3799 -0.2466 -0.2885
84899SOL     OW72306  13.227   3.154  11.599 -0.0608 -0.2619 -0.2295
84899SOL    HW172307  13.221   3.229  11.657  0.7040 -0.3952  0.0291
84899SOL    HW272308  13.256   3.190  11.515  0.5817 -0.2913 -0.0290
84900SOL     OW72309   3.075  13.296   9.334  0.1366  0.5874 -0.0612
84900SOL    HW172310   3.131  13.229   9.372  0.5733  0.6326 -0.6153
84900SOL    HW272311   3.132  13.372   9.324 -0.1983  0.8476  0.0068
84901SOL     OW72312  11.349  10.852   6.436  0.5593 -0.1564  0.7514
84901SOL    HW172313  11.333  10.772   6.487  1.3130  0.2464  1.6455
84901SOL    HW272314  11.382  10.820   6.352 -1.5004 -0.8618  0.1523
84902SOL     OW72315   4.202   3.865   4.519  0.5382 -0.3886  0.0263
84902SOL    HW172316   4.155   3.786   4.545  1.7679 -0.8412  1.0078
84902SOL    HW272317   4.255   3.837   4.444 -1.3709  0.3581 -1.6908
84903SOL     OW72318  10.766   3.587   8.074  0.0925 -0.3532  0.1422
84903SOL    HW172319  10.853   3.628   8.077 -0.5643  1.0593  0.7917
84903SOL    HW272320  10.705   3.658   8.094 -1.0353 -1.8903  2.6277
84904SOL     OW72321   0.303   7.198   8.483 -0.0198 -1.0292 -0.0810
84904SOL    HW172322   0.325   7.275   8.535 -1.8196 -0.9145  0.5550
84904SOL    HW272323   0.359   7.129   8.520 -0.4447 -0.6836  1.2798
84905SOL     OW72324  13.010  11.145  14.040  0.5954 -0.2608 -0.0104
84905SOL    HW172325  13.044  11.065  14.079  0.8736 -0.3288 -0.3843
84905SOL    HW272326  13.026  11.213  14.105 -0.4895 -0.6646  0.7054
84906SOL     OW72327   2.905   9.179   7.158  0.5892  0.9475  0.9106
84906SOL    HW172328   2.826   9.174   7.104  0.4387  0.0210  1.2078
84906SOL    HW272329   2.874   9.211   7.243  0.8038  2.2551  0.5289
84907SOL     OW72330   4.800   4.950   3.463  0.2317  0.0616  0.1750
84907SOL    HW172331   4.864   5.014   3.495  1.9109 -1.9339  1.0644
84907SOL    HW272332   4.853   4.887   3.412 -1.3283 -0.6830 -0.5965
84908SOL     OW72333   2.269   3.445  13.385  0.3712  0.2235 -0.3659
84908SOL    HW172334   2.248   3.457  13.292 -1.9663 -0.8850 -0.0345
84908SOL    HW272335   2.312   3.527  13.410 -0.3089  1.1494 -2.0675
84909SOL     OW72336   1.731   1.825   4.803 -0.3259 -0.1968  0.5881
84909SOL    HW172337   1.752   1.733   4.823  2.4757  0.6946  2.2723
84909SOL    HW272338   1.694   1.859   4.885 -0.2102  0.4754  0.3633
84910SOL     OW72339  14.040   4.233   2.658  0.0627  0.0518 -0.3079
84910SOL    HW172340  14.018   4.202   2.571  1.8645 -0.4033 -0.6413
84910SOL    HW272341  14.117   4.290   2.645 -0.9669  1.7864  0.7185
84911SOL     OW72342  13.561  10.007  13.585 -0.0451 -0.1172 -0.4664
84911SOL    HW172343  13.649   9.983  13.614  0.2739 -0.1609 -1.4337
84911SOL    HW272344  13.573  10.087  13.535 -0.8919  1.2139  1.3294
84912SOL     OW72345  10.141   3.384  10.409 -0.0227  0.5079  0.1730
84912SOL    HW172346  10.158   3.291  10.420 -1.7903  0.1620  0.2697
84912SOL    HW272347  10.220   3.427  10.442 -0.4640 -0.8270  3.3193
84913SOL     OW72348   5.369   6.071   3.400  0.4816 -0.0136  0.6810
84913SOL    HW172349   5.435   6.094   3.335  0.1171  1.2072  0.7162
84913SOL    HW272350   5.334   5.987   3.371  1.5570 -0.3402  0.2900
84914SOL     OW72351  10.087   6.246   4.243 -0.3313 -0.7362  0.0570
84914SOL    HW172352  10.162   6.275   4.296 -0.4370  0.4638 -0.4445
84914SOL    HW272353  10.085   6.151   4.256  1.5129 -0.8474 -0.2099
84915SOL     OW72354  11.809   8.355   6.030  0.3967 -0.1449  0.1949
84915SOL    HW172355  11.891   8.393   6.059 -0.1546  1.2944 -0.0408
84915SOL    HW272356  11.815   8.262   6.054  2.2962 -0.1891 -0.3242
84916SOL     OW72357   2.010  10.166   2.526  0.7519  0.4742 -0.5916
84916SOL    HW172358   1.915  10.171   2.535  0.8530  1.1731  0.3260
84916SOL    HW272359   2.032  10.236   2.465  0.5067 -1.1079 -2.5910
84917SOL     OW72360   6.200  12.616   3.402  0.2936 -0.5684  0.5239
84917SOL    HW172361   6.207  12.546   3.467 -0.5426 -0.9031  0.2523
84917SOL    HW272362   6.150  12.578   3.330  0.8989 -0.0802 -0.1700
84918SOL     OW72363   9.994   8.163   2.454 -0.1477 -0.2397 -0.1885
84918SOL    HW172364   9.990   8.258   2.467 -1.0811 -0.1187 -1.1767
84918SOL    HW272365  10.087   8.142   2.462  0.0022  0.6503  0.6792
84919SOL     OW72366   0.483   3.949  12.806 -0.7520  0.1061 -0.4608
84919SOL    HW172367   0.544   3.940  12.734 -0.2605  1.5193 -0.2425
84919SOL    HW272368   0.457   4.041  12.805 -0.6270  0.1867  1.2423
84920SOL     OW72369  13.090  10.991   8.142 -0.1602 -0.4591  0.0172
84920SOL    HW172370  13.138  10.920   8.184  1.2666  1.0146  0.9463
84920SOL    HW272371  13.062  10.954   8.058  0.2750 -2.1970  0.5969
84921SOL     OW72372   3.307   2.825   4.018 -0.1129 -0.3076 -0.1880
84921SOL    HW172373   3.229   2.828   3.962 -2.4805  0.5239  2.8792
84921SOL    HW272374   3.334   2.733   4.017 -2.2323 -0.9783  0.0185
84922SOL     OW72375  12.749   4.963   3.813  0.3660  0.7902 -0.6008
84922SOL    HW172376  12.703   5.024   3.870 -0.7079 -1.1849  0.7557
84922SOL    HW272377  12.799   4.907   3.873 -2.2765 -2.5902 -1.2780
84923SOL     OW72378  13.204   6.232   9.362  0.1844  1.1336  0.3124
84923SOL    HW172379  13.153   6.154   9.340  0.9670  1.0652 -1.3966
84923SOL    HW272380  13.142   6.305   9.354 -0.7063  0.6723  2.5219
84924SOL     OW72381  10.823   1.848   1.625 -0.2178 -0.7295 -0.0380
84924SOL    HW172382  10.806   1.919   1.686 -0.0551 -0.4813 -0.2761
84924SOL    HW272383  10.793   1.769   1.670 -3.5568 -0.1901 -1.0315
84925SOL     OW72384   8.372   0.878  11.596  0.0211 -0.3703  0.3440
84925SOL    HW172385   8.316   0.951  11.567 -0.1386 -1.0274 -1.0814
84925SOL    HW272386   8.460   0.915  11.598 -0.1377  0.0206  0.2152
84926SOL     OW72387  12.179  12.883   7.779  0.2686 -0.3963 -0.1101
84926SOL    HW172388  12.232  12.925   7.846 -0.4654 -0.8558  0.7839
84926SOL    HW272389  12.197  12.933   7.699  1.2759  0.0564  0.3846
84927SOL     OW72390   6.176   2.027  10.207  0.6916  0.1558 -0.4093
84927SOL    HW172391   6.168   2.109  10.256  0.7833  0.3393 -0.6916
84927SOL    HW272392   6.232   1.971  10.261 -1.1035 -0.5299  0.8056
84928SOL     OW72393   2.707   2.050   9.791 -0.0558  0.8557 -0.1983
84928SOL    HW172394   2.721   2.003   9.709 -1.1894  1.2611 -0.6399
84928SOL    HW272395   2.614   2.040   9.809  0.2596  0.4132  1.2780
84929SOL     OW72396   7.671   7.181   1.010  0.7093 -0.0086  0.1937
84929SOL    HW172397   7.605   7.228   0.958 -0.3692 -0.1819  1.3471
84929SOL    HW272398   7.662   7.216   1.098  2.9560  0.7423  0.1823
84930SOL     OW72399  12.278  10.777  13.341 -0.4122 -0.1266 -0.2027
84930SOL    HW172400  12.258  10.826  13.420  1.1061 -0.9232  0.7165
84930SOL    HW272401  12.350  10.826  13.300 -0.8852  0.0306 -0.8698
84931SOL     OW72402   1.246  12.255   0.546 -0.3190 -0.1379  0.1536
84931SOL    HW172403   1.265  12.163   0.561 -0.9200 -0.3671 -0.4572
84931SOL    HW272404   1.292  12.301   0.616  1.3454 -0.7708 -0.4872
84932SOL     OW72405  13.841  11.245   5.999 -0.1971  0.5717  0.0768
84932SOL    HW172406  13.873  11.330   6.030  1.8856 -0.1220 -0.0179
84932SOL    HW272407  13.868  11.183   6.066  1.3864 -0.4777 -1.4421
84933SOL     OW72408   9.649   2.146   5.354 -0.2540  0.3225  0.8202
84933SOL    HW172409   9.649   2.055   5.323 -0.1843  0.8152 -0.7329
84933SOL    HW272410   9.733   2.156   5.399  0.8977  0.2818 -1.1861
84934SOL     OW72411  10.174  11.293  12.101 -0.0953  0.1165  0.0248
84934SOL    HW172412  10.109  11.224  12.117 -1.6702  1.2117 -1.3933
84934SOL    HW272413  10.152  11.361  12.164  0.8247 -0.2155  0.7315
84935SOL     OW72414  11.651  10.980   2.377 -0.1127 -0.4512 -0.5130
84935SOL    HW172415  11.724  10.954   2.321  0.1576 -0.5100 -0.1389
84935SOL    HW272416  11.662  10.928   2.456 -0.2901 -0.1204 -0.2675
84936SOL     OW72417   6.179   3.424   4.041  0.2570 -0.0034 -0.1723
84936SOL    HW172418   6.153   3.332   4.039  1.2825 -0.3374  0.8679
84936SOL    HW272419   6.260   3.427   3.990 -1.0694  0.8098 -2.3665
84937SOL     OW72420   6.992   9.998   5.166 -0.4561  0.3458  0.1640
84937SOL    HW172421   7.062   9.973   5.105 -0.3964  0.6499  0.1061
84937SOL    HW272422   6.921   9.937   5.148 -0.3061  0.2101  0.0314
84938SOL     OW72423  12.015   2.622  13.276 -0.3786  0.3028 -0.1978
84938SOL    HW172424  11.944   2.680  13.302  1.3098  2.3414  0.1285
84938SOL    HW272425  12.053   2.662  13.198  0.8512 -0.3390  0.0375
84939SOL     OW72426  14.004   4.112   6.001 -0.0370  0.5592  0.1518
84939SOL    HW172427  13.979   4.137   5.912 -0.7183  1.2198  0.5145
84939SOL    HW272428  13.922   4.112   6.050  0.2891 -0.1005  0.7142
84940SOL     OW72429   2.137   1.425  12.874  0.3087 -0.3293  0.1411
84940SOL    HW172430   2.073   1.366  12.913  0.6732 -1.0164 -0.2935
84940SOL    HW272431   2.104   1.513  12.895 -0.6362 -0.6731  0.1318
84941SOL     OW72432  13.731   9.472   2.772  0.3425  0.1608 -0.7832
84941SOL    HW172433  13.665   9.455   2.839 -0.2984  2.0643 -0.8747
84941SOL    HW272434  13.809   9.496   2.822  0.7319 -1.1879 -0.6977
84942SOL     OW72435   2.425  12.444   4.853 -0.1337 -0.3697  0.5272
84942SOL    HW172436   2.428  12.405   4.940  0.1609  1.3513  1.3364
84942SOL    HW272437   2.358  12.513   4.860  0.6360  0.4894 -0.2783
84943SOL     OW72438  14.043   1.231   5.137 -0.3375  0.2734 -0.0814
84943SOL    HW172439  14.004   1.316   5.117 -1.0561 -0.5790 -2.7005
84943SOL    HW272440  13.998   1.170   5.078  1.9832 -1.4774 -0.1638
84944SOL     OW72441   8.916  13.283  13.450 -0.4740 -0.3667  0.2085
84944SOL    HW172442   8.990  13.235  13.412 -1.9504 -2.9550  0.4210
84944SOL    HW272443   8.954  13.328  13.525  1.2764  0.0287 -0.8558
84945SOL     OW72444  10.005   4.558  12.465  0.0378  1.1115  0.4543
84945SOL    HW172445   9.937   4.501  12.430  0.2051  0.8062  0.6247
84945SOL    HW272446   9.975   4.647  12.444  0.7447  0.9134 -1.6161
84946SOL     OW72447   5.077   7.650   0.089  0.5279  0.0376  0.1420
84946SOL    HW172448   5.152   7.591   0.091  0.9524  0.5837  0.9818
84946SOL    HW272449   5.084   7.694   0.004  0.8074 -0.3525 -0.0420
84947SOL     OW72450   3.747   6.269   2.041 -0.4581  0.1179  0.4728
84947SOL    HW172451   3.679   6.228   1.986 -0.2637  0.2306  0.1474
84947SOL    HW272452   3.781   6.198   2.094  0.8171 -0.4514 -1.0340
84948SOL     OW72453  13.447   8.969   9.711  0.0508  0.3295 -0.0109
84948SOL    HW172454  13.409   8.951   9.625 -0.8455 -0.0420  0.4494
84948SOL    HW272455  13.489   9.054   9.701  0.2966  0.1128 -0.9242
84949SOL     OW72456   5.613   8.794  13.809 -0.0794 -0.5476 -0.1182
84949SOL    HW172457   5.707   8.803  13.828 -0.2564 -1.4641  1.4351
84949SOL    HW272458   5.610   8.744  13.728  0.7992 -1.0503  0.1411
84950SOL     OW72459  12.753   7.887   4.598 -0.0276  0.7651 -0.1695
84950SOL    HW172460  12.667   7.912   4.564 -0.6553  0.3388  1.0864
84950SOL    HW272461  12.735   7.823   4.666  1.3160  0.4092 -0.1245
84951SOL     OW72462   3.360   4.474   2.716 -0.2570 -0.3363 -0.2220
84951SOL    HW172463   3.269   4.504   2.705 -0.4108 -1.0253 -0.9014
84951SOL    HW272464   3.412   4.552   2.696 -0.6554 -0.4450 -1.8232
84952SOL     OW72465   4.206   9.496  13.280 -0.0979 -0.2463 -0.3834
84952SOL    HW172466   4.266   9.519  13.350 -0.1642 -0.3292 -0.2993
84952SOL    HW272467   4.258   9.505  13.200 -0.0017 -0.2208 -0.3185
84953SOL     OW72468   7.994  10.542   2.296 -0.3029  0.2702  0.1705
84953SOL    HW172469   7.960  10.470   2.350  1.4942 -0.9676 -0.2827
84953SOL    HW272470   7.952  10.530   2.211  0.5052 -0.6854 -0.1087
84954SOL     OW72471  13.350   6.231  12.637 -0.1274  0.4057  0.2300
84954SOL    HW172472  13.336   6.272  12.722  0.3694  1.6161 -0.2454
84954SOL    HW272473  13.334   6.301  12.574 -3.4105 -1.1375 -0.8867
84955SOL     OW72474  13.372   8.197  12.407 -0.1466  0.2198 -0.1322
84955SOL    HW172475  13.289   8.152  12.422  0.2465 -0.4644 -0.0055
84955SOL    HW272476  13.393   8.238  12.491  0.1965 -0.5282  0.1521
84956SOL     OW72477  13.429   7.429   4.996  0.1088  0.0791 -0.1895
84956SOL    HW172478  13.490   7.484   5.046 -0.1167 -0.6984  0.9636
84956SOL    HW272479  13.421   7.349   5.047  2.1570 -2.0430 -2.9168
84957SOL     OW72480   5.777  12.426  10.298 -0.3885  0.7089  0.3039
84957SOL    HW172481   5.865  12.432  10.335 -0.0254  1.1755 -0.6018
84957SOL    HW272482   5.741  12.347  10.336  1.4169 -1.0334 -1.3196
84958SOL     OW72483  12.589   3.936   6.036  0.1748 -0.4471  0.2925
84958SOL    HW172484  12.626   3.992   6.103 -0.0640  0.3049 -0.1942
84958SOL    HW272485  12.654   3.935   5.966  0.1044 -0.6451  0.2266
84959SOL     OW72486   2.383   7.920   3.209  0.2608  0.8746 -0.3861
84959SOL    HW172487   2.308   7.976   3.231 -3.2669 -3.1363 -0.8190
84959SOL    HW272488   2.416   7.891   3.294  0.9314  2.0844 -0.2074
84960SOL     OW72489   9.698  10.859   7.922  0.2695 -0.4699 -0.6366
84960SOL    HW172490   9.627  10.809   7.882  1.0821 -0.5388 -2.0678
84960SOL    HW272491   9.719  10.811   8.002 -2.0988  0.2641  0.5070
84961SOL     OW72492   8.652   2.692   2.162  0.2438  0.0703  0.4290
84961SOL    HW172493   8.724   2.640   2.197 -0.8286  0.2941  3.3170
84961SOL    HW272494   8.655   2.679   2.068  1.4694 -3.2957  0.8187
84962SOL     OW72495   9.901  10.897   2.679 -0.8926 -0.1857 -0.1490
84962SOL    HW172496   9.996  10.894   2.694 -0.8301 -1.7929 -0.6430
84962SOL    HW272497   9.891  10.873   2.587 -1.7283  1.2373 -0.4623
84963SOL     OW72498   5.243   1.716   6.360  0.1618 -0.1025  0.2764
84963SOL    HW172499   5.302   1.738   6.288 -0.1871  0.0692  0.0349
84963SOL    HW272500   5.223   1.623   6.347 -0.3594  0.0690 -0.1970
84964SOL     OW72501   1.825   7.650   3.342  0.2250  0.1948  0.0187
84964SOL    HW172502   1.752   7.598   3.308  1.1003 -1.2687  0.3287
84964SOL    HW272503   1.903   7.609   3.306  1.0070  0.5802  1.2160
84965SOL     OW72504   3.834  12.670   6.633 -0.4544 -0.2460 -0.3068
84965SOL    HW172505   3.873  12.633   6.554 -0.7649  0.0728 -0.6128
84965SOL    HW272506   3.900  12.730   6.667  0.1494 -1.2325  0.3218
84966SOL     OW72507   3.384  11.908   9.780  0.4794 -0.2984  0.9726
84966SOL    HW172508   3.327  11.877   9.710  0.5162 -1.2968  1.3767
84966SOL    HW272509   3.329  11.910   9.858  0.1083  1.9416  0.7375
84967SOL     OW72510   2.776  13.198  11.409 -0.1407  0.5014 -0.4483
84967SOL    HW172511   2.685  13.208  11.384  0.4719 -1.5332 -4.3189
84967SOL    HW272512   2.774  13.138  11.483 -1.9123  0.3642 -0.5630
84968SOL     OW72513   1.062  14.049   2.135  0.2362  0.0511 -0.1522
84968SOL    HW172514   1.058  14.054   2.230  0.0090 -1.7062 -0.0259
84968SOL    HW272515   0.980  14.008   2.109  0.6988 -0.3714 -1.0075
84969SOL     OW72516  10.399   5.162   4.580  0.6931  0.4488 -0.1137
84969SOL    HW172517  10.445   5.245   4.564 -2.7306  2.1471 -2.2291
84969SOL    HW272518  10.351   5.145   4.499 -1.8943 -1.4377  1.6568
84970SOL     OW72519   1.583   2.206   1.067 -0.4269 -0.6999 -0.2233
84970SOL    HW172520   1.585   2.124   1.018 -0.3778 -0.8779  0.0714
84970SOL    HW272521   1.491   2.234   1.064 -0.1465  0.1893 -1.8656
84971SOL     OW72522   0.619  10.069   3.967 -0.4031 -0.1932 -0.2108
84971SOL    HW172523   0.554  10.066   4.038  0.6865  0.9599  0.8912
84971SOL    HW272524   0.703  10.055   4.011  0.1863 -0.9099 -1.5017
84972SOL     OW72525   7.593   3.654   1.987  0.4423 -0.3752  0.7112
84972SOL    HW172526   7.533   3.648   1.913 -0.6288 -0.2801  1.5429
84972SOL    HW272527   7.621   3.564   2.004 -1.3210 -0.7864  1.7599
84973SOL     OW72528  13.072   1.392   1.473 -0.0491 -0.3677  0.1953
84973SOL    HW172529  13.093   1.300   1.490 -0.6149 -1.3571 -3.6423
84973SOL    HW272530  13.153   1.439   1.493  2.0724 -2.4716 -2.6053
84974SOL     OW72531   9.963  13.915   1.392  0.0880 -0.2804  0.6162
84974SOL    HW172532  10.012  13.834   1.378 -1.3703 -1.0437 -0.3812
84974SOL    HW272533   9.873  13.886   1.406 -0.9117  1.2073 -1.9630
84975SOL     OW72534   2.241   9.423  11.723  0.1939  0.3671 -0.7859
84975SOL    HW172535   2.272   9.375  11.800 -1.4438 -0.2610 -0.4859
84975SOL    HW272536   2.178   9.485  11.758  0.8900  1.4523 -1.4141
84976SOL     OW72537  13.510   5.043   0.965 -0.3419 -0.1704 -0.5987
84976SOL    HW172538  13.490   4.995   1.045  1.3655 -1.4711 -0.8932
84976SOL    HW272539  13.471   4.991   0.895 -1.7175  0.8948 -0.6642
84977SOL     OW72540   3.333   6.238   4.359 -0.1290  0.1064 -0.5861
84977SOL    HW172541   3.277   6.268   4.430 -0.0540  1.7795 -1.1997
84977SOL    HW272542   3.279   6.175   4.311 -0.7910  0.2617 -0.0561
84978SOL     OW72543   3.851  12.212   4.168  0.4444  0.3031 -0.0239
84978SOL    HW172544   3.886  12.262   4.242 -0.1956  0.7461 -0.0072
84978SOL    HW272545   3.776  12.166   4.205 -1.2689  2.2604 -0.8497
84979SOL     OW72546   4.473   2.027  13.227 -0.2204 -0.0512  0.2090
84979SOL    HW172547   4.480   2.119  13.253 -0.7013 -0.3252  1.4046
84979SOL    HW272548   4.402   1.993  13.281 -1.3660 -0.6706 -1.5858
84980SOL     OW72549   2.381   8.512   0.342 -0.3513  0.5638  0.3847
84980SOL    HW172550   2.448   8.541   0.280  0.4965 -0.6386  0.6850
84980SOL    HW272551   2.428   8.501   0.425 -0.9926  0.0551  0.6949
84981SOL     OW72552  13.395   9.341   5.637  0.0307 -0.2187  0.4083
84981SOL    HW172553  13.352   9.387   5.564 -0.2028 -0.6009  0.3011
84981SOL    HW272554  13.362   9.251   5.630  2.3466 -1.0429 -0.8731
84982SOL     OW72555   0.860   2.292  10.186 -0.1731  0.5782  0.1852
84982SOL    HW172556   0.889   2.216  10.136 -3.1416 -1.7094  1.6372
84982SOL    HW272557   0.914   2.292  10.265 -0.2936 -0.2133  0.2747
84983SOL     OW72558  13.542  13.221   4.310 -0.1774 -0.0359 -0.2309
84983SOL    HW172559  13.546  13.245   4.402 -0.8497 -2.2382  0.4299
84983SOL    HW272560  13.608  13.152   4.300  0.5914  0.8482 -1.6654
84984SOL     OW72561  13.431   5.610   6.625 -0.0364  0.4520 -0.3144
84984SOL    HW172562  13.415   5.517   6.606  1.3873  0.1032  0.1255
84984SOL    HW272563  13.391   5.623   6.711  0.1643  0.1220 -0.1671
84985SOL     OW72564  12.184   4.394   9.013 -0.7406  0.2751 -0.4584
84985SOL    HW172565  12.139   4.477   8.998 -0.4613  0.9158  1.8700
84985SOL    HW272566  12.273   4.418   9.039 -0.3763 -0.8041 -0.6284
84986SOL     OW72567   4.375   0.749   4.807  0.3285  0.0424  0.5360
84986SOL    HW172568   4.367   0.678   4.744 -0.4906  0.7469 -0.1982
84986SOL    HW272569   4.460   0.788   4.790  1.6767 -1.9213  2.2622
84987SOL     OW72570  10.808   6.822   2.356  0.2830 -0.3768  0.0886
84987SOL    HW172571  10.817   6.785   2.444  1.3660 -1.1805 -0.3444
84987SOL    HW272572  10.798   6.916   2.371  0.6968 -0.4738  1.0670
84988SOL     OW72573   3.690   8.189  11.678  0.2547 -0.0463 -0.2159
84988SOL    HW172574   3.769   8.191  11.625  0.7199  1.4001  0.4810
84988SOL    HW272575   3.685   8.276  11.718 -0.8226 -0.6305  1.0123
84989SOL     OW72576   2.438   2.818  13.917  0.2048  0.4138 -0.0909
84989SOL    HW172577   2.413   2.767  13.840  1.2710  1.9492 -1.5193
84989SOL    HW272578   2.359   2.822  13.971 -0.7679 -0.0708 -1.4534
84990SOL     OW72579   2.636   0.052  11.455  0.1971 -0.4614  0.1240
84990SOL    HW172580   2.542   0.049  11.436 -0.3670 -2.0627  2.6456
84990SOL    HW272581   2.645   0.122  11.520  0.5259 -1.1086  0.7930
84991SOL     OW72582   2.969   0.000   6.413 -0.1520 -0.5201  0.0109
84991SOL    HW172583   2.908  -0.030   6.345 -1.3426 -0.1049  0.8508
84991SOL    HW272584   2.913   0.016   6.489  1.1188 -0.7532  1.0249
84992SOL     OW72585   9.895   6.992   0.306 -0.2919  0.0212 -0.1888
84992SOL    HW172586   9.918   7.076   0.267  1.8538  1.0024  2.8791
84992SOL    HW272587   9.962   6.931   0.273  2.2244  1.0972  2.4843
84993SOL     OW72588   1.873   7.527   3.828  0.4741 -0.5426  0.1477
84993SOL    HW172589   1.947   7.506   3.770  0.0265 -2.2762  0.1282
84993SOL    HW272590   1.900   7.606   3.873  2.8230 -1.6615  0.8993
84994SOL     OW72591   3.210   5.556   1.666 -0.2988  0.2294  0.1994
84994SOL    HW172592   3.246   5.561   1.578  0.5115  0.7718  0.5492
84994SOL    HW272593   3.277   5.595   1.722 -1.0523  0.4382  0.9851
84995SOL     OW72594  12.019   0.210   5.711 -0.9806 -0.4325 -0.6982
84995SOL    HW172595  12.037   0.180   5.799 -2.6201  0.0282 -0.1657
84995SOL    HW272596  12.028   0.306   5.715 -2.4019 -0.2718 -0.6387
84996SOL     OW72597   4.787   7.098   6.388 -0.1898  0.2884 -0.0652
84996SOL    HW172598   4.704   7.122   6.346  0.7739 -1.8047 -3.5920
84996SOL    HW272599   4.838   7.180   6.388 -1.2429  0.9697 -0.4734
84997SOL     OW72600  10.593  13.814   7.194 -0.6217  0.4924 -0.2912
84997SOL    HW172601  10.578  13.907   7.175 -2.1503 -0.1389 -2.7005
84997SOL    HW272602  10.509  13.783   7.228 -0.8000 -0.3794 -1.4407
84998SOL     OW72603   9.588   9.981   4.188  0.3581  0.3822  0.0026
84998SOL    HW172604   9.532   9.945   4.257  1.3084  0.2432  0.7288
84998SOL    HW272605   9.537   9.971   4.108 -0.0249 -1.2090  0.4030
84999SOL     OW72606   3.737   5.193  10.945 -0.4648  0.5697  0.1290
84999SOL    HW172607   3.649   5.159  10.964 -0.6753  0.6412 -0.6845
84999SOL    HW272608   3.785   5.181  11.027 -0.7695 -0.9542  0.1130
85000SOL     OW72609   4.308  12.751  12.386 -0.2929  0.3437  0.1564
85000SOL    HW172610   4.400  12.746  12.361 -0.7214 -1.5222 -1.3399
85000SOL    HW272611   4.267  12.804  12.318 -0.6643 -0.7642 -0.5223
85001SOL     OW72612  11.990   0.686   1.897 -0.4497  0.3960 -0.9060
85001SOL    HW172613  11.933   0.624   1.852 -0.0430  0.0620 -0.9744
85001SOL    HW272614  11.938   0.717   1.971 -0.1126 -1.2805  0.0941
85002SOL     OW72615   0.546   4.066   1.685 -0.4448 -0.5997  0.7297
85002SOL    HW172616   0.558   4.036   1.595 -0.3969 -1.3472  0.9778
85002SOL    HW272617   0.628   4.111   1.707 -0.1958 -1.0037  0.6288
85003SOL     OW72618   4.112   5.707   8.531 -0.4909 -0.1027 -0.4088
85003SOL    HW172619   4.064   5.678   8.608  2.6071  0.1995  1.8176
85003SOL    HW272620   4.109   5.802   8.535  0.1880 -0.0818 -0.2973
85004SOL     OW72621   6.329   4.312   3.538  0.6681  0.5454  0.3264
85004SOL    HW172622   6.420   4.301   3.511  0.2849 -2.1626 -0.1112
85004SOL    HW272623   6.288   4.227   3.521 -1.8147  1.5054  1.0554
85005SOL     OW72624   9.068   7.061   4.374  0.8489 -0.6546  0.5095
85005SOL    HW172625   9.041   6.982   4.328 -1.3917  0.6366 -0.5752
85005SOL    HW272626   8.998   7.078   4.437  0.5823  1.1592 -0.2126
85006SOL     OW72627   7.362  11.363   9.879 -0.2701 -0.0899  0.1197
85006SOL    HW172628   7.272  11.389   9.899 -0.6044 -1.8737  1.1526
85006SOL    HW272629   7.368  11.273   9.910  1.4280 -0.5327 -1.3658
85007SOL     OW72630   3.951  13.515  11.170 -0.6743 -0.1681  0.1748
85007SOL    HW172631   4.033  13.557  11.147 -1.6125  2.4686  1.2622
85007SOL    HW272632   3.887  13.549  11.107 -1.1831 -1.3079  0.0348
85008SOL     OW72633   8.404   1.046   3.729  0.4231 -0.5993  0.0394
85008SOL    HW172634   8.397   1.140   3.742  0.0335 -0.6552  0.2630
85008SOL    HW272635   8.342   1.008   3.792  0.2956 -0.9867 -0.3158
85009SOL     OW72636   1.108   7.097   8.377  0.1558 -0.2815 -0.1706
85009SOL    HW172637   1.192   7.079   8.335  0.5978  0.7260  0.2367
85009SOL    HW272638   1.043   7.079   8.310  0.7229 -0.6253 -0.6402
85010SOL     OW72639   0.019   1.540   7.826  0.0745  0.4309 -0.4543
85010SOL    HW172640  -0.038   1.533   7.903  0.3584 -1.5859 -0.3720
85010SOL    HW272641   0.106   1.516   7.860  0.7942  2.4333 -0.7976
85011SOL     OW72642  12.959   6.749   0.184  0.4968  0.7127  0.5730
85011SOL    HW172643  12.900   6.770   0.112  0.4207  0.2712  0.5022
85011SOL    HW272644  12.906   6.693   0.242  0.9913 -0.1001  0.2621
85012SOL     OW72645  10.807   8.419   4.473 -0.4956  0.6469 -0.8009
85012SOL    HW172646  10.793   8.481   4.401  1.0149  1.1673 -0.6859
85012SOL    HW272647  10.899   8.393   4.464 -1.2292 -2.0707 -1.1918
85013SOL     OW72648   9.126   8.468   4.474  0.1963  0.1991 -0.3241
85013SOL    HW172649   9.175   8.398   4.430 -0.3896 -0.1822 -0.3797
85013SOL    HW272650   9.075   8.510   4.405 -0.0785  0.1483 -0.1534
85014SOL     OW72651   5.426  12.145  13.247  0.0046  0.5600 -0.3034
85014SOL    HW172652   5.437  12.116  13.338  1.3465 -1.4390 -1.0476
85014SOL    HW272653   5.479  12.085  13.196 -2.0102  0.6010 -2.6270
85015SOL     OW72654  12.765  14.001   1.894 -0.3342  0.3577  0.2972
85015SOL    HW172655  12.706  13.976   1.822  0.1284  1.3015 -0.4359
85015SOL    HW272656  12.758  13.929   1.956 -1.5283 -0.0033 -0.2158
85016SOL     OW72657  14.080  12.384   6.759  0.9659 -0.2024 -0.2568
85016SOL    HW172658  14.007  12.346   6.710 -0.3602  1.1554  0.5782
85016SOL    HW272659  14.099  12.467   6.714  1.2996 -0.0552  0.1435
85017SOL     OW72660   3.172   8.744   2.651 -0.0422  0.2782  0.0048
85017SOL    HW172661   3.239   8.678   2.635 -0.3875 -0.2472  0.6671
85017SOL    HW272662   3.191   8.814   2.587 -0.8843 -1.3434 -2.1356
85018SOL     OW72663  10.517  12.736   6.816 -0.8008  0.4426  0.0696
85018SOL    HW172664  10.427  12.715   6.841  0.0633 -1.6143  1.7266
85018SOL    HW272665  10.531  12.687   6.735 -0.8940  0.0190  0.3063
85019SOL     OW72666   3.312   6.028   2.100  0.6627 -0.1089  0.0224
85019SOL    HW172667   3.252   6.057   2.169  1.4123 -0.4817  0.8537
85019SOL    HW272668   3.341   5.942   2.130  1.7567  0.1517 -0.2751
85020SOL     OW72669  11.930  12.761  12.853 -0.1135  0.6020  0.1367
85020SOL    HW172670  11.889  12.847  12.839  0.4813  0.8721  0.0344
85020SOL    HW272671  11.890  12.705  12.786 -1.6114  0.3987  1.1406
85021SOL     OW72672   1.436   4.689   1.935 -0.1071  0.3737 -0.1771
85021SOL    HW172673   1.526   4.721   1.923  0.6894 -1.5684  0.1826
85021SOL    HW272674   1.403   4.677   1.846  0.3551  0.1935 -0.3291
85022SOL     OW72675   0.235   6.398  12.171 -0.0477 -0.2768  0.3572
85022SOL    HW172676   0.148   6.388  12.133  0.1997 -1.1187  0.0018
85022SOL    HW272677   0.274   6.471  12.123 -1.0615  1.0816  1.4923
85023SOL     OW72678   1.745   5.121   3.230 -0.1535  0.2625  0.5587
85023SOL    HW172679   1.652   5.141   3.241 -0.1704  0.4094  0.1484
85023SOL    HW272680   1.753   5.091   3.140  0.0876 -0.4080  0.8013
85024SOL     OW72681   2.886   4.067  10.758 -0.3151  0.2981  0.1128
85024SOL    HW172682   2.887   4.058  10.854  0.1208 -0.0375  0.0802
85024SOL    HW272683   2.799   4.036  10.733 -0.7941  1.3157  0.4809
85025SOL     OW72684   4.968  12.483   9.703 -0.2925  0.1567 -0.0489
85025SOL    HW172685   5.036  12.439   9.754  0.1432 -3.8530 -3.5020
85025SOL    HW272686   5.016  12.526   9.632 -1.1458 -0.5657 -1.0987
85026SOL     OW72687   4.050   3.861   8.552 -0.4544 -0.4161  0.0224
85026SOL    HW172688   4.135   3.902   8.567 -1.1017  0.5966  1.0228
85026SOL    HW272689   4.071   3.782   8.502  0.8446  0.9635 -1.7614
85027SOL     OW72690   1.387   8.016   6.059  0.7898  0.5772  0.1238
85027SOL    HW172691   1.426   8.028   5.972 -3.0306  0.3694 -1.7843
85027SOL    HW272692   1.382   7.921   6.070 -1.4143  0.5191 -0.8739
85028SOL     OW72693   1.705   2.977  12.412 -0.3102 -0.0103 -0.1401
85028SOL    HW172694   1.614   3.004  12.415  0.1514  1.6993 -0.4099
85028SOL    HW272695   1.706   2.901  12.354 -1.6463 -0.5242  0.4647
85029SOL     OW72696   6.776  12.566  13.990 -0.1613  0.2059  0.2403
85029SOL    HW172697   6.859  12.548  13.945  0.3316  2.7620 -0.0463
85029SOL    HW272698   6.798  12.567  14.083  0.1616  0.9163  0.1626
85030SOL     OW72699   3.020  12.839   8.702 -0.2038 -0.8320  0.4328
85030SOL    HW172700   2.970  12.801   8.774 -0.4606  1.1045  1.3434
85030SOL    HW272701   2.959  12.898   8.658  0.0531 -1.7232 -1.1968
85031SOL     OW72702   6.682   2.209   6.843  0.5671 -0.1286 -0.5321
85031SOL    HW172703   6.633   2.131   6.871 -1.3937  1.5296  0.9852
85031SOL    HW272704   6.752   2.218   6.907  0.1339 -0.0670 -0.0577
85032SOL     OW72705   1.241   0.627   1.833 -0.3556  0.0348  0.8734
85032SOL    HW172706   1.231   0.548   1.885  1.4065 -1.4593 -0.8537
85032SOL    HW272707   1.280   0.691   1.892 -1.5139 -0.4638  2.2153
85033SOL     OW72708   1.338  12.256   2.659 -0.3165  0.1368  0.6537
85033SOL    HW172709   1.252  12.240   2.620  0.6681 -1.4811 -0.9783
85033SOL    HW272710   1.365  12.340   2.621 -1.0511  0.5273  0.9724
85034SOL     OW72711  11.598   7.312   1.538  0.2662  0.0522 -0.4904
85034SOL    HW172712  11.671   7.250   1.536  0.3890  0.1874 -0.2898
85034SOL    HW272713  11.565   7.308   1.627 -1.0682 -1.2468 -0.9958
85035SOL     OW72714  12.121   9.467   8.323 -0.1113  0.2022 -0.5999
85035SOL    HW172715  12.133   9.509   8.238  1.2754 -1.2307 -1.1553
85035SOL    HW272716  12.207   9.473   8.364 -0.9293  1.5185  1.0591
85036SOL     OW72717   2.152   8.196   8.006 -0.0515 -0.4149  0.3528
85036SOL    HW172718   2.173   8.186   7.913  1.1278 -1.7869  0.7385
85036SOL    HW272719   2.127   8.108   8.035 -1.0094  0.1192  1.2083
85037SOL     OW72720   7.762  10.445   7.603  0.0826 -0.1552  0.3659
85037SOL    HW172721   7.690  10.400   7.559  0.3580 -0.5688  0.3311
85037SOL    HW272722   7.749  10.537   7.582 -0.2284 -0.2649  0.0575
85038SOL     OW72723   0.531   9.246   9.295 -0.4579  0.4124  0.3038
85038SOL    HW172724   0.570   9.201   9.370 -0.9767 -0.3934  0.1001
85038SOL    HW272725   0.493   9.176   9.242  0.6917  0.8762 -1.1915
85039SOL     OW72726   7.669   3.022   5.455  0.1684  0.0185 -0.4909
85039SOL    HW172727   7.656   3.006   5.361 -0.3152 -1.8680 -0.1545
85039SOL    HW272728   7.582   3.043   5.488  0.2743  0.3167 -0.4015
85040SOL     OW72729  13.220   8.971   0.537 -0.3251  0.3076  0.3854
85040SOL    HW172730  13.242   8.994   0.627 -1.2552  1.1499  0.4092
85040SOL    HW272731  13.249   8.880   0.527  0.7255  0.5396  1.2085
85041SOL     OW72732   3.437  10.125   6.512 -0.0171  0.7076 -0.2400
85041SOL    HW172733   3.392  10.179   6.576 -0.7830  0.1288 -0.2710
85041SOL    HW272734   3.529  10.147   6.522 -0.0130  0.0401  1.6387
85042SOL     OW72735  13.248   3.975   6.508  0.3807  0.0316  0.7283
85042SOL    HW172736  13.193   3.951   6.583  0.5793 -1.0864  0.5453
85042SOL    HW272737  13.198   3.944   6.432  0.7516  0.0120  0.4898
85043SOL     OW72738  13.302   2.510  12.631  0.3692 -0.5178 -0.6172
85043SOL    HW172739  13.368   2.578  12.644  0.6319 -0.9915  0.6881
85043SOL    HW272740  13.262   2.531  12.547 -0.4830  2.0363  0.3281
85044SOL     OW72741  14.014   4.923   1.759 -0.2068 -0.0671  0.2144
85044SOL    HW172742  14.009   4.957   1.670  0.0680 -0.4636  0.0453
85044SOL    HW272743  14.093   4.962   1.796 -1.1351  1.3390  0.8246
85045SOL     OW72744   9.204  13.409  12.899  0.4452 -0.2651  0.5950
85045SOL    HW172745   9.192  13.418  12.993 -0.5492 -0.4259  0.4999
85045SOL    HW272746   9.168  13.322  12.879 -1.4331  0.6422 -0.2321
85046SOL     OW72747   0.830   8.622   6.181 -0.4300 -0.3344  0.2424
85046SOL    HW172748   0.783   8.558   6.129 -1.1814  0.4428 -0.0722
85046SOL    HW272749   0.767   8.649   6.248 -0.0651 -0.0672  0.4850
85047SOL     OW72750   1.458   1.112  10.499  0.0409  0.6590 -0.0402
85047SOL    HW172751   1.378   1.068  10.527 -0.5148  1.4284 -0.3883
85047SOL    HW272752   1.444   1.204  10.518  0.6070  0.8824 -0.6407
85048SOL     OW72753  11.957   9.154   7.216 -0.0937  0.0099 -0.1772
85048SOL    HW172754  11.999   9.177   7.299 -0.4405  1.5169 -0.3930
85048SOL    HW272755  11.890   9.090   7.240  0.9063 -0.8440  0.4510
85049SOL     OW72756   1.976   1.487   1.173  0.0999 -0.1038  0.4029
85049SOL    HW172757   2.040   1.433   1.220 -2.6548 -1.2364  3.1061
85049SOL    HW272758   2.006   1.484   1.082  5.3042  1.5874  1.6921
85050SOL     OW72759   9.415  12.522  11.814  0.2628  0.2798  0.2320
85050SOL    HW172760   9.334  12.528  11.865  0.0929 -0.1947  0.0289
85050SOL    HW272761   9.485  12.526  11.879  0.0929  1.0651  0.3787
85051SOL     OW72762  13.478  12.540  12.418 -0.1544 -0.2540  0.6912
85051SOL    HW172763  13.459  12.447  12.428 -1.1830 -0.0827  0.4652
85051SOL    HW272764  13.571  12.548  12.440  0.2514 -1.5133 -0.4503
85052SOL     OW72765  10.696  11.673   0.607 -0.0957 -0.7422 -0.0350
85052SOL    HW172766  10.676  11.624   0.527  0.5221  0.3298 -0.8725
85052SOL    HW272767  10.642  11.752   0.602  0.2258 -0.4842  0.4095
85053SOL     OW72768   1.424   3.400   3.365  0.6177  0.6129 -0.0650
85053SOL    HW172769   1.370   3.401   3.443  1.2257  1.9792  0.3740
85053SOL    HW272770   1.435   3.307   3.344  0.4724  0.2244  1.4834
85054SOL     OW72771   9.663   3.937  13.558 -0.1780 -0.1123  0.5618
85054SOL    HW172772   9.731   3.893  13.611 -0.5764 -0.8715  0.4593
85054SOL    HW272773   9.596   3.870  13.546 -0.7520  0.5064  0.2994
85055SOL     OW72774   9.582   3.594  11.330  0.3098  0.4562  0.5761
85055SOL    HW172775   9.544   3.650  11.261 -0.0168 -1.2385 -0.6866
85055SOL    HW272776   9.671   3.625  11.340  0.0639  1.3552  0.0753
85056SOL     OW72777   2.450   8.653  10.410  0.5405  0.4516  0.5142
85056SOL    HW172778   2.503   8.573  10.410  0.8840  0.6688  1.0152
85056SOL    HW272779   2.513   8.723  10.394 -0.1785  0.4278 -3.3105
85057SOL     OW72780   0.372   3.742   3.444 -0.5527  0.2948 -0.0803
85057SOL    HW172781   0.400   3.826   3.481  0.2097 -0.0781  0.2138
85057SOL    HW272782   0.357   3.686   3.520 -0.0786 -0.1311 -0.2882
85058SOL     OW72783   3.146   7.658   6.196 -0.0806  0.6513  0.5302
85058SOL    HW172784   3.107   7.573   6.218  1.0967  0.2833  1.2797
85058SOL    HW272785   3.174   7.694   6.280 -2.1193  2.6058  0.4480
85059SOL     OW72786   6.364   6.340   1.803 -0.7341  0.3473 -0.2596
85059SOL    HW172787   6.355   6.411   1.868  1.3620  0.4315 -0.0090
85059SOL    HW272788   6.417   6.378   1.734 -1.6282 -0.2594 -1.3018
85060SOL     OW72789   3.105   2.805   2.417 -0.1989  0.5606  0.0643
85060SOL    HW172790   3.012   2.821   2.406 -0.2697 -0.5101 -1.1179
85060SOL    HW272791   3.147   2.852   2.345  0.2290  1.3386  0.7980
85061SOL     OW72792   1.868   8.194   1.930 -0.4771  0.0711 -0.3861
85061SOL    HW172793   1.781   8.167   1.960 -0.0434  0.7733  1.6702
85061SOL    HW272794   1.858   8.287   1.910 -0.2827  0.0757 -0.4636
85062SOL     OW72795   8.709   8.842   2.829 -0.2249 -0.0357 -0.6555
85062SOL    HW172796   8.752   8.928   2.829  0.8393 -0.5369  0.8516
85062SOL    HW272797   8.617   8.862   2.812  0.1323  1.3189 -1.1709
85063SOL     OW72798  12.636   3.441   9.874 -0.6932 -0.0066  0.9882
85063SOL    HW172799  12.680   3.490   9.805 -1.3460 -0.3342  0.3222
85063SOL    HW272800  12.697   3.443   9.948  0.6598 -0.8700 -0.0585
85064SOL     OW72801  12.957  13.308  12.672  0.1165  0.0799  0.3511
85064SOL    HW172802  12.874  13.323  12.718  0.0189 -0.7333  0.4643
85064SOL    HW272803  12.933  13.262  12.592 -0.0024  3.7252 -1.9260
85065SOL     OW72804   0.710  13.090  12.187 -0.2038 -0.2760  0.1054
85065SOL    HW172805   0.754  13.170  12.160  1.2191  0.0971  3.0637
85065SOL    HW272806   0.674  13.112  12.274 -0.2864 -2.6379  0.7265
85066SOL     OW72807   0.989   3.273   7.194 -0.3546  0.2739  0.6873
85066SOL    HW172808   1.051   3.239   7.259 -0.5090 -1.8138 -0.2047
85066SOL    HW272809   0.963   3.197   7.142  0.1537  1.9148 -2.1916
85067SOL     OW72810  13.381  12.941   2.254  0.1667 -0.1933  0.5021
85067SOL    HW172811  13.454  12.897   2.211  0.6472  1.5430 -0.5766
85067SOL    HW272812  13.340  12.873   2.308  1.6714 -1.5732 -0.0080
85068SOL     OW72813   6.158   5.278   7.250 -0.0966 -0.5246 -0.0376
85068SOL    HW172814   6.127   5.349   7.194 -0.0274 -1.0497 -0.7655
85068SOL    HW272815   6.253   5.293   7.257 -0.5204  1.6968  3.0639
85069SOL     OW72816   5.896   3.752  13.356 -0.2404  0.4912 -0.4194
85069SOL    HW172817   5.900   3.661  13.328 -1.6284  0.8513 -1.9805
85069SOL    HW272818   5.875   3.801  13.276 -0.0318  2.1306  0.4699
85070SOL     OW72819  11.870   7.228   8.092  0.0278 -0.1534  0.2197
85070SOL    HW172820  11.803   7.282   8.051 -0.9362 -0.9290  0.7356
85070SOL    HW272821  11.930   7.291   8.133 -0.7103  0.5342  0.2591
85071SOL     OW72822   4.613   9.229   9.658 -0.4874  0.1572 -0.5638
85071SOL    HW172823   4.541   9.171   9.633 -0.3154 -0.0270 -0.6333
85071SOL    HW272824   4.673   9.173   9.708 -0.2868  0.2560 -0.6908
85072SOL     OW72825   0.348   9.890   3.100  0.4290 -0.1008 -0.0309
85072SOL    HW172826   0.426   9.943   3.088 -0.1029  0.7844  0.3378
85072SOL    HW272827   0.381   9.800   3.104  1.3581  0.2013 -0.4839
85073SOL     OW72828   0.802  11.308  10.871  0.0663  0.3790  0.1963
85073SOL    HW172829   0.883  11.358  10.883 -0.7616  1.6469  0.7755
85073SOL    HW272830   0.742  11.370  10.829 -0.3285 -0.8345 -1.0983
85074SOL     OW72831   6.620   5.557  10.992 -0.3351  0.3764 -0.4135
85074SOL    HW172832   6.528   5.578  11.009 -0.4307 -0.6852  0.4689
85074SOL    HW272833   6.648   5.507  11.068  2.0739  3.7392  1.1584
85075SOL     OW72834   3.853   6.386   5.547  0.6149 -0.1178 -0.3919
85075SOL    HW172835   3.923   6.448   5.568 -0.3793  0.6428  0.8736
85075SOL    HW272836   3.820   6.358   5.632  0.2594 -1.5207 -0.9549
85076SOL     OW72837  12.122   9.957   3.870 -0.2508 -0.3788 -0.2232
85076SOL    HW172838  12.035   9.991   3.847 -0.1977 -0.4138 -0.4715
85076SOL    HW272839  12.179   9.984   3.798 -0.4502 -2.0311 -1.0505
85077SOL     OW72840  10.371  13.860  10.852 -0.1686  0.0756  0.3791
85077SOL    HW172841  10.392  13.819  10.936  1.6840 -0.5991 -0.3662
85077SOL    HW272842  10.438  13.827  10.791 -1.0611  1.0588 -1.2177
85078SOL     OW72843  13.191  13.135  11.738  0.1971 -0.0739  0.1350
85078SOL    HW172844  13.108  13.177  11.715  0.2370  0.6053  1.1656
85078SOL    HW272845  13.173  13.042  11.730  0.2059  0.0890 -2.5405
85079SOL     OW72846   7.128   2.175   4.736  0.2947  0.6212 -0.0511
85079SOL    HW172847   7.082   2.183   4.820  0.2186 -0.0070 -0.0273
85079SOL    HW272848   7.212   2.136   4.759 -0.2465 -0.8266 -0.4079
85080SOL     OW72849   8.445  11.797  13.030  0.0436 -0.3641 -0.3070
85080SOL    HW172850   8.392  11.778  12.953  1.5118 -1.3251 -1.1442
85080SOL    HW272851   8.404  11.747  13.101 -0.6114 -0.4548 -0.7409
85081SOL     OW72852   9.966   2.626   6.060  0.2173 -0.3203  0.1268
85081SOL    HW172853   9.949   2.708   6.106 -0.7152 -1.1908  1.4173
85081SOL    HW272854   9.948   2.646   5.968 -1.3910  0.5662  0.5907
85082SOL     OW72855  11.719   0.587   9.670 -0.3097  0.0043 -0.3535
85082SOL    HW172856  11.670   0.621   9.744  0.3109 -0.9580  0.5335
85082SOL    HW272857  11.668   0.511   9.640  1.5234 -2.3035  1.8861
85083SOL     OW72858  13.008   2.336  11.900 -0.0268 -0.2349  0.3460
85083SOL    HW172859  12.939   2.373  11.845 -0.2812  0.1303  0.8949
85083SOL    HW272860  13.068   2.409  11.915  0.0555 -0.3403  0.5288
85084SOL     OW72861   6.678  11.146   0.716  0.1813 -0.5339 -0.0938
85084SOL    HW172862   6.615  11.202   0.671 -0.9680 -2.4061 -0.9460
85084SOL    HW272863   6.636  11.125   0.800  1.1699  0.8485  0.7834
85085SOL     OW72864   7.283   4.559  12.942  0.1859  0.2051 -0.5961
85085SOL    HW172865   7.361   4.588  12.990  0.9162 -3.1989  0.5234
85085SOL    HW272866   7.266   4.471  12.975 -2.8633 -0.0288 -2.4341
85086SOL     OW72867   0.419   6.656  13.719  0.2653  0.1594  0.2766
85086SOL    HW172868   0.438   6.588  13.654 -1.1476  0.4333 -0.4603
85086SOL    HW272869   0.472   6.632  13.795  0.1447 -1.4962 -0.1296
85087SOL     OW72870   3.006   4.657  11.995  0.4427  0.3916 -0.4184
85087SOL    HW172871   2.967   4.726  11.941  0.7083 -1.1670 -2.7557
85087SOL    HW272872   3.048   4.598  11.932  2.2512 -0.6659  1.6517
85088SOL     OW72873   0.446  12.930  12.456  0.5602 -0.8221 -0.3330
85088SOL    HW172874   0.512  12.997  12.476 -0.4708  0.2365 -0.3812
85088SOL    HW272875   0.478  12.851  12.499  0.9417  0.1246  1.1869
85089SOL     OW72876   7.699  12.122   7.432 -0.4990  0.3505 -0.2856
85089SOL    HW172877   7.688  12.201   7.378  1.0247  0.3475 -0.6441
85089SOL    HW272878   7.650  12.141   7.511  0.6282  2.1103  0.0582
85090SOL     OW72879  11.446   9.372  12.656  0.5007 -0.1260  0.3789
85090SOL    HW172880  11.398   9.440  12.609 -1.6962  0.0852  2.7198
85090SOL    HW272881  11.500   9.329  12.589 -0.6228  1.6720 -1.7928
85091SOL     OW72882  11.845   5.223   1.241  0.1423 -0.3717 -0.2485
85091SOL    HW172883  11.818   5.155   1.302  0.8897  0.5944  1.2491
85091SOL    HW272884  11.767   5.277   1.228 -0.3280 -1.2321 -1.0860
85092SOL     OW72885   4.800   1.686  13.976 -1.0293  0.0743 -0.4386
85092SOL    HW172886   4.802   1.757  13.912  0.3560  0.6872  0.2436
85092SOL    HW272887   4.843   1.613  13.931  2.0804  1.1822  0.4575
85093SOL     OW72888   9.197   9.998   0.030  0.0480 -0.6028  0.2918
85093SOL    HW172889   9.237   9.974   0.114  0.9384  0.4515  0.1987
85093SOL    HW272890   9.205  10.094   0.026  0.2534 -0.6543 -1.0991
85094SOL     OW72891  12.281  12.112  10.169 -0.8116 -0.1509 -0.0282
85094SOL    HW172892  12.344  12.109  10.098 -1.6516 -0.0069 -0.7914
85094SOL    HW272893  12.283  12.024  10.207  1.2191  0.3475  1.2185
85095SOL     OW72894  10.734   5.777   7.891 -0.5685 -0.2122  0.1388
85095SOL    HW172895  10.763   5.797   7.802 -2.5457 -0.5217 -0.6222
85095SOL    HW272896  10.815   5.770   7.941  0.5871  0.2592 -1.5612
85096SOL     OW72897   0.217   4.530   0.476  0.0300  0.2416 -0.2080
85096SOL    HW172898   0.136   4.551   0.522  0.7324  0.6830  0.8707
85096SOL    HW272899   0.270   4.483   0.541  0.4595 -0.4584 -1.0455
85097SOL     OW72900   7.716  13.990   9.357 -0.0361 -0.5532 -0.0183
85097SOL    HW172901   7.809  13.995   9.376  0.2305  0.8047 -1.4838
85097SOL    HW272902   7.673  14.006   9.441  1.0134 -2.2426  0.8860
85098SOL     OW72903   4.052  12.492   1.888  0.3237  0.0358 -0.3568
85098SOL    HW172904   3.988  12.528   1.826 -0.8781  0.0726  0.8570
85098SOL    HW272905   4.121  12.456   1.833 -2.1187 -2.6970 -1.8960
85099SOL     OW72906   9.038   9.086  12.955  0.1935 -0.1308 -0.5546
85099SOL    HW172907   9.099   9.083  13.029  0.0494  1.3525 -0.3502
85099SOL    HW272908   9.047   9.000  12.914  2.6484  0.1318 -0.7172
85100SOL     OW72909   3.941   1.388   3.734  0.7214 -0.1652  0.5214
85100SOL    HW172910   3.917   1.475   3.766 -0.1598 -0.8201  1.6897
85100SOL    HW272911   4.025   1.402   3.689  1.2074  1.0684  1.7379
85101SOL     OW72912   0.603  12.734  10.212 -0.2009 -0.0301  0.4343
85101SOL    HW172913   0.648  12.816  10.194 -0.3375 -0.1205 -0.3748
85101SOL    HW272914   0.519  12.760  10.250 -0.0627  0.1865  0.5915
85102SOL     OW72915  13.311   1.524   1.493  0.1634 -0.3740 -0.1926
85102SOL    HW172916  13.397   1.505   1.454  1.9554  0.0612  3.1343
85102SOL    HW272917  13.274   1.592   1.438  2.5031  0.2441 -1.1320
85103SOL     OW72918   2.079   1.705   7.426 -0.2445 -0.1493 -0.1882
85103SOL    HW172919   2.172   1.685   7.429 -0.1756  0.0681 -0.7904
85103SOL    HW272920   2.036   1.620   7.434 -0.1136 -0.0470  3.8948
85104SOL     OW72921   6.818  11.731  13.981 -0.0016 -0.0212 -0.0107
85104SOL    HW172922   6.822  11.703  13.890 -1.1360 -1.8786  0.4592
85104SOL    HW272923   6.848  11.655  14.032 -0.8170  0.4358  1.2208
85105SOL     OW72924   5.809  12.907   2.298  0.8525  0.3312 -0.0734
85105SOL    HW172925   5.861  12.872   2.225 -0.6439 -0.2841 -0.8949
85105SOL    HW272926   5.730  12.943   2.256  0.3445  0.7389  1.1717
85106SOL     OW72927   5.803   9.018   2.194  0.3612 -0.5230  0.0572
85106SOL    HW172928   5.887   9.062   2.183  0.8033 -1.4809 -0.5314
85106SOL    HW272929   5.739   9.075   2.152  0.2122  1.6485  2.9279
85107SOL     OW72930   1.998  11.209  11.436  0.0697 -0.2077 -0.3935
85107SOL    HW172931   2.046  11.230  11.516  0.4433 -2.0127 -0.1119
85107SOL    HW272932   1.924  11.156  11.465 -1.1380  1.0821 -1.0203
85108SOL     OW72933  10.993   3.921  13.013  0.2023  0.2184  0.1378
85108SOL    HW172934  10.901   3.907  13.038  1.0180  0.3448  3.6309
85108SOL    HW272935  10.998   4.013  12.988 -0.6659  0.1158 -0.4566
85109SOL     OW72936   4.301   0.776   4.412  0.4147 -0.5887  0.3517
85109SOL    HW172937   4.301   0.710   4.342  1.2894 -0.4574  0.2191
85109SOL    HW272938   4.240   0.843   4.382  1.1088 -0.3231 -0.5058
85110SOL     OW72939   8.748  11.488   2.518  1.1710 -0.5932  0.3490
85110SOL    HW172940   8.678  11.462   2.578  0.3511 -0.6922 -0.6404
85110SOL    HW272941   8.717  11.570   2.478  1.8265 -0.3882  0.2425
85111SOL     OW72942  13.195   7.931   1.129  0.5830  0.1371 -0.5160
85111SOL    HW172943  13.273   7.943   1.075 -0.7026 -0.2664 -2.5778
85111SOL    HW272944  13.123   7.922   1.066 -1.3301  1.6447  1.2944
85112SOL     OW72945  13.703  12.461   0.684 -0.1542 -0.2030 -0.0683
85112SOL    HW172946  13.670  12.476   0.773  1.3214  0.4909  0.3971
85112SOL    HW272947  13.656  12.384   0.653 -2.1815  0.7462  0.5342
85113SOL     OW72948   1.584   7.957   3.682  0.7818 -0.4256  0.3102
85113SOL    HW172949   1.626   7.917   3.606 -0.3119 -2.0219  0.5025
85113SOL    HW272950   1.490   7.951   3.665  0.5371  1.6270  0.6109
85114SOL     OW72951   7.316   7.941   0.682  0.2002 -0.1196  0.2467
85114SOL    HW172952   7.309   7.942   0.778 -0.2440 -1.6970  0.2525
85114SOL    HW272953   7.340   7.851   0.661 -0.4219  0.0297 -1.1747
85115SOL     OW72954  11.334   3.214   8.098  0.3245  0.2314  0.3400
85115SOL    HW172955  11.303   3.166   8.175  0.3857 -1.5927 -0.7113
85115SOL    HW272956  11.391   3.282   8.133  1.1832 -1.1952  1.8718
85116SOL     OW72957  10.343   5.996   2.224  0.1245 -0.5112  0.1889
85116SOL    HW172958  10.341   5.966   2.315 -0.6682  0.1727  0.4174
85116SOL    HW272959  10.307   5.924   2.173 -0.3687 -0.5272  0.5489
85117SOL     OW72960   7.267   5.809   0.728  0.3587  0.8201 -0.3763
85117SOL    HW172961   7.358   5.836   0.744  0.5724  0.4538 -0.9333
85117SOL    HW272962   7.229   5.800   0.815  0.9535  0.6523 -0.1312
85118SOL     OW72963   1.346   6.116  10.942 -0.2059  0.0394 -0.0607
85118SOL    HW172964   1.362   6.209  10.958 -0.7677  0.1173  0.0565
85118SOL    HW272965   1.348   6.075  11.029 -1.5153  0.1929  0.0638
85119SOL     OW72966  12.261  11.493  11.470 -0.3992  0.3701  0.0448
85119SOL    HW172967  12.203  11.474  11.544 -0.4874  2.0117  0.4427
85119SOL    HW272968  12.349  11.496  11.508 -0.3334  0.2694 -0.0984
85120SOL     OW72969  12.806   9.960  13.156  0.1863  0.2498 -0.6175
85120SOL    HW172970  12.746   9.885  13.163  1.1953 -0.6700 -1.3864
85120SOL    HW272971  12.797   9.990  13.066 -0.4304  1.2598 -0.2265
85121SOL     OW72972   6.177   3.184   3.831 -0.3596 -0.6668 -0.2334
85121SOL    HW172973   6.135   3.179   3.917  0.9211 -1.3688  0.3926
85121SOL    HW272974   6.233   3.106   3.828  0.3732 -0.1174 -1.2896
85122SOL     OW72975  12.301   2.614  12.776  0.4070  0.0479  0.3189
85122SOL    HW172976  12.326   2.527  12.747 -1.0403 -0.8731  1.6986
85122SOL    HW272977  12.336   2.621  12.865 -0.9987  0.1689  0.8799
85123SOL     OW72978   6.609   0.968  12.153  0.1371  0.0964  0.1090
85123SOL    HW172979   6.650   1.001  12.073  0.1592 -0.0847  0.0451
85123SOL    HW272980   6.627   1.035  12.219  0.7124 -0.0796  0.1339
85124SOL     OW72981   6.411  12.258   8.725 -0.5318 -0.2911 -0.7309
85124SOL    HW172982   6.435  12.303   8.644 -0.4698  0.1924 -0.4487
85124SOL    HW272983   6.480  12.281   8.787 -0.7945 -0.3213 -0.4221
85125SOL     OW72984   7.003  12.922   7.759  0.3115  0.5337  0.3580
85125SOL    HW172985   7.053  12.854   7.803 -1.6363 -0.5272  1.0719
85125SOL    HW272986   7.068  12.973   7.711  1.8556 -1.8188 -0.2186
85126SOL     OW72987  12.009  11.977   9.361  0.8613  0.5254  0.0651
85126SOL    HW172988  11.914  11.966   9.349  1.1198 -1.8214 -0.2758
85126SOL    HW272989  12.025  12.069   9.343 -1.5747  1.3693  1.6925
85127SOL     OW72990   1.341   5.647  10.245 -0.0704 -0.6266  0.3205
85127SOL    HW172991   1.403   5.714  10.216 -2.0637  0.4648 -1.8482
85127SOL    HW272992   1.321   5.597  10.166 -1.6731 -1.1502  1.0056
85128SOL     OW72993   1.133   6.846  10.876  0.2081 -0.2917 -0.5931
85128SOL    HW172994   1.204   6.868  10.816  0.3896 -1.3291 -0.7880
85128SOL    HW272995   1.136   6.750  10.882 -2.7124 -0.6365 -2.5546
85129SOL     OW72996  11.184   9.632  11.719 -0.0822  0.0830  0.6290
85129SOL    HW172997  11.260   9.659  11.770 -0.2444 -1.7070  1.9054
85129SOL    HW272998  11.190   9.537  11.715 -1.9760 -0.0611  0.2988
85130SOL     OW72999   0.573   7.871   0.845 -0.2228  0.6056 -0.6529
85130SOL    HW173000   0.493   7.898   0.799 -1.2356 -0.8981  0.1143
85130SOL    HW273001   0.633   7.944   0.834 -1.5231  1.5739 -1.7051
85131SOL     OW73002  11.585   2.848   9.549 -0.2092  0.1027  0.5101
85131SOL    HW173003  11.596   2.917   9.614 -1.0935 -0.2563  1.0643
85131SOL    HW273004  11.673   2.833   9.514 -0.1865  2.3736 -0.5465
85132SOL     OW73005   2.264   4.322   5.165  0.5616 -0.3674 -0.0905
85132SOL    HW173006   2.237   4.391   5.226  2.0236 -0.9271  1.2832
85132SOL    HW273007   2.272   4.366   5.080 -0.1528  0.7653  0.4066
85133SOL     OW73008   3.866   3.347   2.313  0.2709 -0.4914 -0.0519
85133SOL    HW173009   3.916   3.290   2.255 -0.9469 -0.8506 -0.7848
85133SOL    HW273010   3.888   3.318   2.401  2.3391  0.2102 -0.2766
85134SOL     OW73011   1.477  11.581  11.722  0.0558 -0.5138 -0.5707
85134SOL    HW173012   1.564  11.541  11.712  0.2846 -0.4562  0.8973
85134SOL    HW273013   1.428  11.517  11.774  0.2998  0.8678  1.4697
85135SOL     OW73014   6.498   2.815   1.073 -1.1334  0.4784 -0.2358
85135SOL    HW173015   6.465   2.905   1.080  0.1128  0.9141  0.3574
85135SOL    HW273016   6.434   2.763   1.122 -1.0631  1.2720  0.7491
85136SOL     OW73017   0.357   5.944   6.228  0.3409 -0.3607  0.4631
85136SOL    HW173018   0.296   6.016   6.247 -0.5819 -0.6875 -1.0417
85136SOL    HW273019   0.442   5.986   6.219  0.1609  0.2642  1.5506
85137SOL     OW73020   1.649   4.168   7.835 -0.1918  0.1995 -0.1856
85137SOL    HW173021   1.576   4.228   7.822 -0.4159 -0.3536 -1.6455
85137SOL    HW273022   1.683   4.152   7.747  0.4019 -1.1401  0.2601
85138SOL     OW73023   1.742  11.320   6.317 -0.0225 -0.1536 -0.0199
85138SOL    HW173024   1.705  11.279   6.396 -0.9693 -1.4089 -1.0668
85138SOL    HW273025   1.810  11.259   6.288  0.7911  0.6432  0.1931
85139SOL     OW73026  11.588   3.943  10.419 -0.0294 -0.3759 -0.4934
85139SOL    HW173027  11.652   4.012  10.439 -1.0412  0.7321 -0.9183
85139SOL    HW273028  11.635   3.881  10.363  0.6706  0.4240 -0.8091
85140SOL     OW73029   0.123   3.563   6.869 -0.3378 -0.1850  0.2109
85140SOL    HW173030   0.199   3.615   6.843  0.0312 -1.6739 -1.9689
85140SOL    HW273031   0.155   3.473   6.871 -2.2387 -1.0198 -2.0186
85141SOL     OW73032   5.626   4.399   1.580  0.0279 -0.0453 -0.4643
85141SOL    HW173033   5.559   4.393   1.512 -0.3530  0.1778 -0.1090
85141SOL    HW273034   5.674   4.479   1.559 -1.5049  1.2665  0.7968
85142SOL     OW73035   5.082  11.794   2.102 -0.2999 -0.5705 -0.8420
85142SOL    HW173036   5.146  11.777   2.171 -1.9687 -1.6610  0.4871
85142SOL    HW273037   5.075  11.890   2.099  2.2295 -0.3403 -1.8702
85143SOL     OW73038   1.176   7.576   8.900 -0.6241  0.0811 -0.4872
85143SOL    HW173039   1.220   7.659   8.920 -0.3824 -0.1720  0.0498
85143SOL    HW273040   1.245   7.518   8.869 -0.0195 -1.1190  2.6693
85144SOL     OW73041   3.951   7.235   6.533 -0.3670 -0.2096 -0.2163
85144SOL    HW173042   3.915   7.298   6.597 -0.8630 -0.4186 -0.2877
85144SOL    HW273043   3.967   7.288   6.455  4.2410  1.0805  1.2518
85145SOL     OW73044  11.754   4.717   3.534  0.0035  0.2928  0.3523
85145SOL    HW173045  11.782   4.728   3.443 -2.3457  0.8827 -0.3760
85145SOL    HW273046  11.710   4.799   3.555 -0.0429 -0.0886  1.8178
85146SOL     OW73047   9.254   0.973   6.393 -0.1694  0.2119 -1.1884
85146SOL    HW173048   9.260   1.014   6.480 -1.6205 -0.1101 -0.9079
85146SOL    HW273049   9.194   0.900   6.405 -1.4342  0.9487 -2.7433
85147SOL     OW73050   1.916   1.703   8.996  0.0463  0.3844  0.9562
85147SOL    HW173051   1.838   1.758   8.994 -0.8981 -0.7430  3.0407
85147SOL    HW273052   1.909   1.649   8.917 -1.2885  0.3390  1.0724
85148SOL     OW73053   4.945   4.322  10.346 -0.1890  0.2106  0.4746
85148SOL    HW173054   5.025   4.284  10.382 -0.0491 -1.1632 -1.1536
85148SOL    HW273055   4.942   4.410  10.383  2.8077  0.8330 -0.4678
85149SOL     OW73056   7.792   1.873   6.331  0.1865  0.1491 -0.5898
85149SOL    HW173057   7.761   1.897   6.418 -0.0165 -1.3892 -0.2183
85149SOL    HW273058   7.804   1.957   6.286  2.8134  1.1930  1.7371
85150SOL     OW73059  10.176  13.341   0.227  0.4892  0.1046 -0.3460
85150SOL    HW173060  10.169  13.411   0.292 -0.6627 -0.3454  0.0385
85150SOL    HW273061  10.223  13.271   0.273  0.1270 -0.0168 -0.1503
85151SOL     OW73062   1.294   3.160  12.164  0.1585  0.3940 -0.4143
85151SOL    HW173063   1.221   3.099  12.158 -1.1340  1.7194  1.1303
85151SOL    HW273064   1.254   3.247  12.161  1.7602  1.1757 -0.4418
85152SOL     OW73065   7.379  10.089  13.153 -0.1554  0.2873 -0.2797
85152SOL    HW173066   7.447  10.021  13.156 -1.0582 -0.6554  3.1221
85152SOL    HW273067   7.309  10.050  13.101 -0.0413 -0.8180  0.3540
85153SOL     OW73068   0.900   8.119   8.861  0.3685 -0.0735  0.0152
85153SOL    HW173069   0.839   8.045   8.856  1.2506 -0.8095 -0.2106
85153SOL    HW273070   0.985   8.078   8.880  0.6827  0.9825  0.9440
85154SOL     OW73071  12.005  12.051   6.059  0.2998 -0.1959  0.2214
85154SOL    HW173072  11.988  12.118   5.993 -0.8219  1.2576  1.9086
85154SOL    HW273073  12.096  12.066   6.086 -0.0231  0.8215  0.7648
85155SOL     OW73074   0.199   2.368   3.852  0.0208 -0.5353  0.0471
85155SOL    HW173075   0.192   2.403   3.941  0.7398 -2.1605  0.7891
85155SOL    HW273076   0.292   2.371   3.832 -0.0915 -0.5577 -0.4870
85156SOL     OW73077   4.541   1.771   3.992 -0.3653 -0.3958 -0.0045
85156SOL    HW173078   4.591   1.702   3.949  0.6430  0.6197 -0.5283
85156SOL    HW273079   4.453   1.764   3.954 -0.0120 -0.7779 -0.7803
85157SOL     OW73080  11.253  10.893   4.456  0.4229 -0.5030  0.4251
85157SOL    HW173081  11.224  10.970   4.408 -0.4447 -1.4001 -0.5300
85157SOL    HW273082  11.173  10.851   4.488  0.9147 -0.6697  1.4997
85158SOL     OW73083   4.792   0.399  13.258 -0.0622  0.1675 -1.2092
85158SOL    HW173084   4.791   0.309  13.290 -1.8194  0.2033 -1.0228
85158SOL    HW273085   4.833   0.449  13.328  1.9591 -0.6075 -1.7871
85159SOL     OW73086   1.281   2.058   9.381 -0.2388  0.0372 -0.3640
85159SOL    HW173087   1.309   2.150   9.386 -2.0273  0.6220 -0.2782
85159SOL    HW273088   1.355   2.009   9.415  1.5275  1.2699 -2.1561
85160SOL     OW73089  12.032   0.807  10.500  0.4576 -0.5012  0.3997
85160SOL    HW173090  11.983   0.753  10.563 -1.4910 -0.1129 -0.7008
85160SOL    HW273091  12.022   0.897  10.534 -0.7072 -0.2760 -0.4838
85161SOL     OW73092   7.634  10.615   5.239  0.1818 -0.2798 -0.4029
85161SOL    HW173093   7.560  10.555   5.256 -0.1358  0.0092 -0.7567
85161SOL    HW273094   7.656  10.650   5.325  1.5282 -2.2294  0.1032
85162SOL     OW73095   0.464   9.500   4.331  0.7904  0.1667  0.0498
85162SOL    HW173096   0.402   9.462   4.269  1.5078  1.3214 -1.4642
85162SOL    HW273097   0.410   9.537   4.401 -0.1784  0.4075 -0.8033
85163SOL     OW73098  10.403   0.755   3.696 -0.4585  0.0214 -0.0863
85163SOL    HW173099  10.385   0.670   3.657  0.2664 -0.0005 -0.3928
85163SOL    HW273100  10.324   0.806   3.680 -0.0331  0.1589 -1.9940
85164SOL     OW73101  11.506   4.867   4.747 -0.0611 -0.6738  0.1631
85164SOL    HW173102  11.441   4.810   4.788 -1.1864  1.2617  1.2354
85164SOL    HW273103  11.583   4.858   4.803 -0.7023 -0.1168  1.1809
85165SOL     OW73104   4.278   2.254   1.527 -0.2035  0.2958 -0.4298
85165SOL    HW173105   4.237   2.169   1.511  2.6842 -1.0638 -1.2830
85165SOL    HW273106   4.322   2.244   1.611  2.6107 -0.2311 -1.8351
85166SOL     OW73107  12.431   1.911   0.809 -0.1516  0.3184  0.2562
85166SOL    HW173108  12.523   1.921   0.834  0.5269 -1.7457 -1.1865
85166SOL    HW273109  12.434   1.858   0.729 -2.6279 -0.4113  0.5859
85167SOL     OW73110   9.085   1.809   8.577 -0.0007  1.4838 -0.5493
85167SOL    HW173111   9.104   1.737   8.637  0.3621  1.0665 -1.1631
85167SOL    HW273112   8.991   1.799   8.558  0.3496  0.2752 -1.7821
85168SOL     OW73113   5.534   6.340   4.275 -0.2053 -0.1694 -0.0106
85168SOL    HW173114   5.461   6.282   4.252 -0.0397  0.5358 -2.4862
85168SOL    HW273115   5.492   6.418   4.311 -0.5004 -0.9867  1.5000
85169SOL     OW73116   9.863  10.407  12.275 -0.0014 -0.2579  0.3642
85169SOL    HW173117   9.848  10.373  12.187  0.3771 -0.4265  0.3601
85169SOL    HW273118   9.779  10.398  12.320 -0.0229 -0.7879  0.2223
85170SOL     OW73119   7.076   1.905  12.241 -0.3497 -0.1828 -0.1979
85170SOL    HW173120   6.994   1.909  12.192  0.5124  2.2919 -1.6140
85170SOL    HW273121   7.061   1.962  12.316  0.0024  0.1674 -0.3901
85171SOL     OW73122   9.455   7.333   1.977  0.2321  0.0759 -0.1384
85171SOL    HW173123   9.546   7.363   1.975 -0.6380  3.0240 -1.1912
85171SOL    HW273124   9.409   7.393   1.918 -2.3126 -1.6679 -0.0673
85172SOL     OW73125   8.922   4.339   0.145  0.5672 -0.4069  0.0454
85172SOL    HW173126   8.989   4.331   0.077  1.3193  0.4498  0.6677
85172SOL    HW273127   8.864   4.408   0.113 -0.0186 -1.1236 -0.4756
85173SOL     OW73128   6.683   6.235   2.835 -0.1153 -0.4451  0.0356
85173SOL    HW173129   6.637   6.215   2.916  0.1462 -1.2877 -0.0084
85173SOL    HW273130   6.650   6.170   2.773  1.0275 -0.9849 -0.0257
85174SOL     OW73131   7.314   6.869   1.071  0.2365  0.5827  0.2343
85174SOL    HW173132   7.239   6.912   1.031 -0.5532 -1.1280 -0.2455
85174SOL    HW273133   7.389   6.898   1.018 -0.6228 -0.6531 -1.7939
85175SOL     OW73134   6.300   4.944   0.425 -0.2241  0.0318 -0.0354
85175SOL    HW173135   6.241   4.944   0.350  0.3817 -2.5050 -0.6064
85175SOL    HW273136   6.381   4.905   0.393  0.4385 -0.0744  1.6378
85176SOL     OW73137   3.462   1.233   8.161 -0.0188  0.2436  0.0821
85176SOL    HW173138   3.489   1.146   8.190 -2.5643 -1.3958 -2.0625
85176SOL    HW273139   3.433   1.277   8.241 -0.6696 -1.6606  0.9429
85177SOL     OW73140   3.084   1.743   5.542 -0.0386 -0.0140  0.7677
85177SOL    HW173141   3.086   1.838   5.550 -1.0475  0.0248  0.7866
85177SOL    HW273142   3.132   1.711   5.619  2.4883  0.4664 -0.5181
85178SOL     OW73143   0.996   3.861   2.388 -0.4383 -0.1004  0.3491
85178SOL    HW173144   1.067   3.798   2.402  2.3062  2.6555 -0.1352
85178SOL    HW273145   0.923   3.807   2.356  1.3732 -3.1124  0.8623
85179SOL     OW73146   0.074  12.443   0.397 -0.4430 -0.0028  0.3208
85179SOL    HW173147   0.034  12.356   0.402 -0.8265  0.2009  0.9720
85179SOL    HW273148   0.002  12.503   0.418 -0.0268  0.4316  0.5159
85180SOL     OW73149   4.388   0.765   1.780  0.3724  0.1658 -0.2569
85180SOL    HW173150   4.347   0.694   1.830 -1.2257  2.2621  1.6889
85180SOL    HW273151   4.461   0.794   1.835  1.5806 -0.5176 -1.4667
85181SOL     OW73152   9.712   9.322   6.802 -0.0841  0.3594  0.1545
85181SOL    HW173153   9.691   9.371   6.723  1.4466 -1.0433 -1.1912
85181SOL    HW273154   9.806   9.334   6.814 -0.0260 -0.6845  0.8886
85182SOL     OW73155  12.206   0.678   4.297  0.5626  0.1318  0.3185
85182SOL    HW173156  12.271   0.747   4.308  0.8135 -0.3638  2.2341
85182SOL    HW273157  12.256   0.601   4.274  0.3903  0.2785 -0.6146
85183SOL     OW73158  13.743  12.786   6.807 -0.1989 -0.2377  0.3608
85183SOL    HW173159  13.787  12.828   6.733  0.2432 -0.2223  0.6312
85183SOL    HW273160  13.693  12.856   6.848 -0.2130 -0.1828  0.2503
85184SOL     OW73161   0.109   6.378   9.420 -0.3709  0.0399 -0.2345
85184SOL    HW173162   0.045   6.307   9.428 -0.6578  0.1911 -1.1262
85184SOL    HW273163   0.059   6.452   9.385  0.1105  0.4161 -0.1376
85185SOL     OW73164   9.516   9.850   5.574  0.2246 -0.1689 -0.5871
85185SOL    HW173165   9.573   9.775   5.588  1.4856  0.9040  0.2078
85185SOL    HW273166   9.541   9.914   5.641 -2.4024  0.0975  0.2639
85186SOL     OW73167   5.076   1.252   6.703  0.4281  0.0997 -0.1112
85186SOL    HW173168   5.051   1.302   6.781  1.7301 -2.1731  1.9043
85186SOL    HW273169   5.011   1.182   6.698 -0.3245  0.8622 -1.8293
85187SOL     OW73170  11.835   1.301  12.770 -0.1321  0.1354 -0.2073
85187SOL    HW173171  11.879   1.377  12.809 -0.9799  0.6286 -0.1796
85187SOL    HW273172  11.750   1.297  12.815 -0.9133  0.3983 -1.6091
85188SOL     OW73173   7.650  13.980   4.861  0.0900 -0.2928  0.2184
85188SOL    HW173174   7.563  13.940   4.850  0.5058 -1.2632  0.3864
85188SOL    HW273175   7.671  14.015   4.775  0.2569 -1.5635 -0.2875
85189SOL     OW73176   1.566   6.158  10.338  0.1740  0.0155 -0.3440
85189SOL    HW173177   1.608   6.238  10.371 -0.9461  0.1059  0.9591
85189SOL    HW273178   1.606   6.087  10.387 -0.1412 -0.0428 -0.1707
85190SOL     OW73179   1.101   9.363  10.989  0.0109 -0.1694 -0.2650
85190SOL    HW173180   1.064   9.445  11.020 -2.4387 -1.2138 -0.2239
85190SOL    HW273181   1.083   9.362  10.895 -1.0438 -1.1481 -0.0753
85191SOL     OW73182  14.038  10.717   3.747 -0.1864  0.3682 -0.6829
85191SOL    HW173183  14.093  10.784   3.706 -0.1752  0.4376 -0.5535
85191SOL    HW273184  14.034  10.743   3.839 -0.8814  0.6735 -0.7918
85192SOL     OW73185   4.307   3.894   3.600  0.1569 -0.3391 -0.2381
85192SOL    HW173186   4.343   3.871   3.686 -0.7437 -0.2563  0.1737
85192SOL    HW273187   4.213   3.878   3.609  0.2388 -2.0384 -1.7616
85193SOL     OW73188  10.522   5.746   3.069  0.4597 -0.9958  0.0526
85193SOL    HW173189  10.487   5.835   3.068  1.1713 -0.7072 -0.4879
85193SOL    HW273190  10.468   5.699   3.132  0.1043 -0.1675  0.3745
85194SOL     OW73191   1.314   5.680  13.607  0.0147  0.3097  0.0576
85194SOL    HW173192   1.278   5.768  13.612 -1.2195 -0.2244  1.2937
85194SOL    HW273193   1.256   5.634  13.547  0.8110  0.3811 -0.7918
85195SOL     OW73194   3.753   1.464  12.304  0.6604  0.2220  0.2772
85195SOL    HW173195   3.757   1.555  12.335 -0.6222  0.1195  0.7901
85195SOL    HW273196   3.699   1.468  12.225 -0.6253 -0.2805  1.1078
85196SOL     OW73197   3.923   5.879   4.554 -0.0767 -0.2747 -0.2232
85196SOL    HW173198   3.956   5.813   4.615 -0.1454 -0.0268  0.0833
85196SOL    HW273199   3.988   5.949   4.557  0.4291 -0.6915 -1.1861
85197SOL     OW73200   9.197  14.037  10.549  0.1165 -0.5587 -0.5243
85197SOL    HW173201   9.194  14.005  10.639 -0.0578 -0.5784 -0.5373
85197SOL    HW273202   9.290  14.047  10.530  0.1655  2.1718  0.6383
85198SOL     OW73203   2.553   8.276   1.797 -0.2570  0.3231  0.7685
85198SOL    HW173204   2.458   8.265   1.805 -0.3136 -0.1237 -0.3485
85198SOL    HW273205   2.574   8.238   1.712  1.1503 -0.9565  1.6499
85199SOL     OW73206   2.088   6.899  12.244  0.0392 -0.0239 -0.5712
85199SOL    HW173207   2.119   6.990  12.247 -0.4778  0.1723  2.9997
85199SOL    HW273208   1.997   6.904  12.271  0.0072 -1.6018 -0.3212
85200SOL     OW73209   2.712   1.353   2.152  0.0405 -0.5513 -0.2482
85200SOL    HW173210   2.768   1.378   2.079 -1.1105  0.7416 -0.7421
85200SOL    HW273211   2.685   1.437   2.191  0.3784 -1.2079  1.4665
85201SOL     OW73212   2.263   0.999   8.481  0.3115  0.4916  0.0725
85201SOL    HW173213   2.326   0.932   8.454  0.1843 -0.5157  2.0189
85201SOL    HW273214   2.295   1.080   8.442 -0.8517 -0.9657 -4.4144
85202SOL     OW73215   9.197  12.068  11.372 -0.8071  0.8109  0.1071
85202SOL    HW173216   9.293  12.066  11.378 -0.8728 -0.6668  1.0907
85202SOL    HW273217   9.178  12.148  11.321  0.9818  0.4838 -1.1736
85203SOL     OW73218   2.150   9.434   0.528  0.0254  0.8173  0.2273
85203SOL    HW173219   2.107   9.509   0.570  0.6957  0.5306  1.4573
85203SOL    HW273220   2.222   9.473   0.478  0.1559  1.0219  0.5749
85204SOL     OW73221  10.186  11.667   6.977 -0.4567  0.2179  0.1802
85204SOL    HW173222  10.107  11.620   7.002 -1.3186  1.2127 -0.5812
85204SOL    HW273223  10.246  11.599   6.947 -0.3593 -0.7347  2.3565
85205SOL     OW73224  13.086   1.113  13.644 -0.8098  1.1184 -0.1105
85205SOL    HW173225  13.077   1.024  13.677  2.1344  0.3347 -1.1078
85205SOL    HW273226  13.042   1.112  13.559 -0.2194  0.4093 -0.4160
85206SOL     OW73227   6.558  13.796   2.795 -0.6166 -0.4798 -0.4631
85206SOL    HW173228   6.552  13.806   2.890  0.4816 -1.1750 -0.2903
85206SOL    HW273229   6.521  13.709   2.779 -3.0105  0.5625 -0.9946
85207SOL     OW73230  14.002  12.245   0.089 -0.1431  0.1830  0.5593
85207SOL    HW173231  14.013  12.160   0.131  1.5354 -0.2536 -0.6872
85207SOL    HW273232  13.986  12.225  -0.003  0.7515  1.2007  0.1539
85208SOL     OW73233   2.871  13.839   0.002 -0.1905 -0.5363 -0.2733
85208SOL    HW173234   2.883  13.934   0.014 -1.5548 -0.3694  0.0225
85208SOL    HW273235   2.941  13.799   0.052  1.1042  0.3199 -1.3299
85209SOL     OW73236  13.368   8.626  12.348  0.5767 -0.4513  0.4334
85209SOL    HW173237  13.351   8.667  12.433  0.0282  1.5184 -0.5745
85209SOL    HW273238  13.443   8.673  12.313  0.8397 -1.2870 -0.1666
85210SOL     OW73239  10.665   2.285   0.479  0.3297 -0.3000  0.1223
85210SOL    HW173240  10.630   2.196   0.491  0.7312 -0.2574  1.9089
85210SOL    HW273241  10.658   2.325   0.565  0.4172  1.3420 -0.5921
85211SOL     OW73242  12.189  12.065   5.511 -1.0692  0.0788 -0.3195
85211SOL    HW173243  12.256  12.020   5.563 -0.8877  1.1808  0.4371
85211SOL    HW273244  12.197  12.026   5.424  0.3813 -0.0199 -0.1798
85212SOL     OW73245   3.089   5.938   5.444  0.2902 -0.0827 -0.0697
85212SOL    HW173246   3.180   5.906   5.446  0.7931  1.2944  0.0596
85212SOL    HW273247   3.048   5.888   5.373  0.3293 -2.7306  1.6280
85213SOL     OW73248   0.042   9.708   4.660 -0.1006 -0.1646 -0.2720
85213SOL    HW173249   0.127   9.678   4.625 -1.1083 -0.6892 -2.4670
85213SOL    HW273250   0.000   9.751   4.586 -2.0188 -0.4776  0.5765
85214SOL     OW73251  13.957   5.946  10.668 -0.4518 -0.1031  0.2655
85214SOL    HW173252  13.907   6.017  10.627  0.2515  0.1020 -0.2389
85214SOL    HW273253  14.016   5.991  10.729  0.3574 -0.2013 -0.4262
85215SOL     OW73254  12.898   6.287   1.253  0.0947  0.2318  0.6785
85215SOL    HW173255  12.991   6.303   1.239 -0.0589  0.2363 -0.3673
85215SOL    HW273256  12.891   6.192   1.255 -0.0778  0.2013 -0.7215
85216SOL     OW73257   0.689   6.847   4.051  0.3633  0.1402 -0.0584
85216SOL    HW173258   0.620   6.906   4.083 -0.5052 -0.9236  0.1103
85216SOL    HW273259   0.651   6.806   3.973  0.5842 -0.8548  0.3439
85217SOL     OW73260   0.361   7.236   2.474 -0.1081  0.3329 -0.1500
85217SOL    HW173261   0.270   7.206   2.468 -0.2686  0.1777  2.1318
85217SOL    HW273262   0.412   7.166   2.433 -0.8504 -0.7942  0.7755
85218SOL     OW73263   6.907   2.997  12.211  0.3113 -0.5740 -0.3117
85218SOL    HW173264   6.903   2.951  12.127  0.5910 -0.4319 -0.4034
85218SOL    HW273265   6.853   2.944  12.269  0.0534 -0.6327 -0.5995
85219SOL     OW73266   3.101   8.764   8.685  0.0838 -0.1521 -0.2357
85219SOL    HW173267   3.186   8.763   8.642  0.5808  1.2100  0.6370
85219SOL    HW273268   3.096   8.680   8.732 -0.0107 -1.1783 -2.0073
85220SOL     OW73269   0.098  10.355   4.009  1.0827 -0.1607  0.3211
85220SOL    HW173270   0.179  10.396   3.979  0.7015  0.0135 -0.4706
85220SOL    HW273271   0.101  10.267   3.973  1.2804 -0.4191  0.9436
85221SOL     OW73272   5.381   3.970   9.967 -0.2976  0.0104  0.7652
85221SOL    HW173273   5.315   4.013  10.021  0.9669  3.0747  0.0957
85221SOL    HW273274   5.359   3.994   9.878  0.5366 -0.7108  0.3441
85222SOL     OW73275   8.288   3.642   4.427 -0.4803  0.2150  0.2506
85222SOL    HW173276   8.235   3.722   4.427 -2.2553 -0.8837  0.1608
85222SOL    HW273277   8.370   3.666   4.469  0.1102  2.7353 -2.0986
85223SOL     OW73278  13.817   9.315  13.281 -0.0097  0.4041 -0.0615
85223SOL    HW173279  13.806   9.255  13.354 -0.1434  0.3101 -0.1603
85223SOL    HW273280  13.771   9.274  13.207 -0.8055  0.9998  0.0802
85224SOL     OW73281   2.142  10.149  11.657  0.0430  0.2031  0.0320
85224SOL    HW173282   2.223  10.172  11.612  0.1045  1.9722  0.9680
85224SOL    HW273283   2.146  10.197  11.740 -1.9123  0.2629  0.1341
85225SOL     OW73284   7.092   8.830   7.804  0.6958  0.0690  1.0527
85225SOL    HW173285   7.040   8.752   7.782  0.0705  0.6643  0.3587
85225SOL    HW273286   7.027   8.898   7.819  1.2214  0.3486  2.1490
85226SOL     OW73287   3.151  10.375   8.326  0.0505  0.4000 -0.8297
85226SOL    HW173288   3.172  10.354   8.417  1.7312 -1.6308 -1.6061
85226SOL    HW273289   3.090  10.306   8.299  0.0646  0.6110 -1.4317
85227SOL     OW73290   5.177  12.081   9.958 -0.0149 -0.0161  0.0857
85227SOL    HW173291   5.160  12.056  10.049 -0.8107  0.6090  0.1219
85227SOL    HW273292   5.090  12.089   9.919  0.3203 -2.1456 -1.2636
85228SOL     OW73293   3.832  12.494   6.835 -0.2429  0.0361 -0.2530
85228SOL    HW173294   3.848  12.587   6.854  2.1752 -0.7757  2.2458
85228SOL    HW273295   3.865  12.482   6.747 -1.3878  1.6787 -0.9717
85229SOL     OW73296  10.257   9.161   8.576  0.2129  0.1097  0.0470
85229SOL    HW173297  10.212   9.111   8.507  0.1009  0.7330 -0.3433
85229SOL    HW273298  10.210   9.139   8.656 -0.2967  0.1557 -0.2357
85230SOL     OW73299   8.809   6.341  11.862  0.0323  0.5493 -0.8116
85230SOL    HW173300   8.875   6.348  11.931 -0.0927 -0.0354 -0.6316
85230SOL    HW273301   8.727   6.368  11.904 -0.0541  0.1384 -0.7097
85231SOL     OW73302  11.288  12.860   0.160  1.1826  0.5179 -0.1133
85231SOL    HW173303  11.254  12.804   0.230 -0.1649 -0.0076 -1.1735
85231SOL    HW273304  11.370  12.895   0.197  1.3241 -0.9841  1.1224
85232SOL     OW73305   1.846   9.958   7.612 -0.0757  0.3896  0.4308
85232SOL    HW173306   1.810   9.915   7.535  0.4487 -0.5729  0.7018
85232SOL    HW273307   1.770   9.977   7.667 -0.5475  1.8515 -0.6669
85233SOL     OW73308   8.900   0.182   6.549  0.0495 -0.5918 -0.9180
85233SOL    HW173309   8.952   0.105   6.525  0.0458 -0.8743 -0.0562
85233SOL    HW273310   8.928   0.202   6.638 -0.2283  0.1778 -1.0005
85234SOL     OW73311  13.137   3.845   6.280  0.6118  0.2838 -0.2152
85234SOL    HW173312  13.132   3.765   6.227  1.1063  0.1766 -0.1088
85234SOL    HW273313  13.050   3.883   6.275  0.6351  0.2430 -1.0639
85235SOL     OW73314  12.871   7.165   4.978 -0.1844  0.5730  0.0624
85235SOL    HW173315  12.888   7.160   4.884  1.0432  1.1478  0.2323
85235SOL    HW273316  12.854   7.075   5.004  0.2968  0.2931 -0.5704
85236SOL     OW73317  12.149  11.734   2.160 -0.2100 -0.2454  0.0621
85236SOL    HW173318  12.123  11.814   2.205  0.5107  1.0585 -1.7032
85236SOL    HW273319  12.232  11.709   2.201  0.4138  0.8874 -0.4606
85237SOL     OW73320   8.626   3.352   2.121 -0.3346 -0.1229 -0.4827
85237SOL    HW173321   8.696   3.397   2.074 -0.4168 -0.6305 -1.0992
85237SOL    HW273322   8.637   3.380   2.212  1.1219 -0.7420 -0.4247
85238SOL     OW73323   3.644   6.508   6.593  0.2399  0.5991  0.2846
85238SOL    HW173324   3.560   6.512   6.546  0.2981  0.0261  0.1293
85238SOL    HW273325   3.642   6.425   6.640  1.3847 -0.2229 -1.0160
85239SOL     OW73326  13.230   5.623  12.793  0.4893  0.0717  0.6207
85239SOL    HW173327  13.164   5.612  12.725  3.1786 -0.4543 -2.1336
85239SOL    HW273328  13.241   5.535  12.830  1.1464 -0.3514 -0.5082
85240SOL     OW73329   0.461  10.423   4.021  0.0011 -0.3885 -0.1806
85240SOL    HW173330   0.458  10.507   3.975 -0.8319 -0.0631  0.4302
85240SOL    HW273331   0.452  10.357   3.952  3.2337 -0.1254 -0.9792
85241SOL     OW73332   1.564   3.086   6.511  0.1255  0.2836  0.0486
85241SOL    HW173333   1.619   3.037   6.572  0.8016 -0.7325 -1.3377
85241SOL    HW273334   1.625   3.143   6.464 -0.3651  0.9158  0.1569
85242SOL     OW73335  13.747   1.127  14.081 -0.1371 -0.2221  0.1520
85242SOL    HW173336  13.779   1.204  14.034 -2.4697  0.1391 -0.9776
85242SOL    HW273337  13.778   1.053  14.029  0.4902  0.0269  0.1657
85243SOL     OW73338   7.697   0.430  11.438 -0.2382 -0.0432  0.1264
85243SOL    HW173339   7.609   0.466  11.428 -0.0098  0.7528  0.7804
85243SOL    HW273340   7.733   0.428  11.350 -0.3870  1.0468  0.0244
85244SOL     OW73341   7.567  11.291  13.601  0.0978 -0.3814 -0.1339
85244SOL    HW173342   7.593  11.209  13.559  0.9089 -0.1193 -0.1614
85244SOL    HW273343   7.471  11.285  13.607  0.1616 -1.4225  0.0805
85245SOL     OW73344   6.936   5.151   0.016 -0.4294  0.5049 -0.3937
85245SOL    HW173345   6.964   5.065  -0.017 -0.4579  0.2178  0.3255
85245SOL    HW273346   6.920   5.202  -0.064 -0.0610 -0.0371 -0.8299
85246SOL     OW73347  11.517   0.906  12.191 -0.2734  0.3199 -0.1929
85246SOL    HW173348  11.479   0.973  12.248  0.2091  0.9799 -0.6240
85246SOL    HW273349  11.537   0.953  12.110 -1.5123 -0.7211 -1.1539
85247SOL     OW73350  10.763   1.046   1.933  0.9897 -0.3476 -0.5819
85247SOL    HW173351  10.736   0.967   1.980  0.3480  0.5749  0.6845
85247SOL    HW273352  10.690   1.106   1.946  1.5384  0.5091 -1.3892
85248SOL     OW73353  12.675   3.429   8.592  0.7021  1.1408 -0.5868
85248SOL    HW173354  12.625   3.430   8.510 -1.0621 -1.2037  0.3270
85248SOL    HW273355  12.608   3.436   8.660  1.7502 -0.3031  0.6655
85249SOL     OW73356  12.485   2.315   4.404 -0.1860  0.0611 -0.0842
85249SOL    HW173357  12.401   2.272   4.386  0.1748 -0.6225 -0.2032
85249SOL    HW273358  12.481   2.398   4.357 -0.4543 -0.3600 -0.8217
85250SOL     OW73359  11.382   6.339  12.796 -0.1848 -0.0869  0.7008
85250SOL    HW173360  11.307   6.279  12.790 -0.7326  0.5600  0.9407
85250SOL    HW273361  11.342   6.425  12.803  0.5836  0.2118  1.5184
85251SOL     OW73362   2.207  11.529  11.151 -0.1215 -0.3643 -0.8046
85251SOL    HW173363   2.179  11.474  11.225 -0.7259 -0.1606 -0.8723
85251SOL    HW273364   2.128  11.579  11.128  0.2535  0.0786 -1.1408
85252SOL     OW73365  13.523  11.987   3.810  0.0084  0.5483  0.0835
85252SOL    HW173366  13.609  11.981   3.851 -0.0672 -1.1118  0.0800
85252SOL    HW273367  13.500  12.080   3.815  1.2975  0.8420  1.0841
85253SOL     OW73368   4.369   2.630  11.578 -0.1811 -0.1633 -0.0144
85253SOL    HW173369   4.443   2.656  11.633  0.0250 -2.9203  1.1723
85253SOL    HW273370   4.409   2.592  11.500 -0.3069 -1.0250  0.3229
85254SOL     OW73371   9.375   6.868   3.230  0.2190 -0.6522  0.5551
85254SOL    HW173372   9.318   6.942   3.249  0.0598 -0.5422 -0.2907
85254SOL    HW273373   9.363   6.808   3.304  2.5458  1.3903  2.7419
85255SOL     OW73374   5.444   5.411   1.946 -0.3062 -0.5309 -0.1276
85255SOL    HW173375   5.535   5.384   1.958 -0.0933  0.5083  0.8347
85255SOL    HW273376   5.442   5.502   1.976 -1.6298 -0.4890 -0.2746
85256SOL     OW73377   1.032  10.737   0.124  0.3120  0.6251 -0.4206
85256SOL    HW173378   1.004  10.780   0.043  0.6354  0.0902 -0.8235
85256SOL    HW273379   0.975  10.660   0.131 -0.6317  1.3849  0.5815
85257SOL     OW73380   2.093  10.869   9.129  0.0872  0.0389 -0.1615
85257SOL    HW173381   2.048  10.887   9.212 -1.5480 -1.8612 -0.5643
85257SOL    HW273382   2.185  10.866   9.153 -0.2594  0.5840  1.3959
85258SOL     OW73383  11.414   9.917   5.744 -0.0052  0.1728 -0.3747
85258SOL    HW173384  11.451   9.909   5.832  1.2717  1.3850 -0.7588
85258SOL    HW273385  11.370   9.834   5.729 -2.4783  0.8158  2.3571
85259SOL     OW73386   0.075   7.268  13.004  0.1201  0.3308  0.0865
85259SOL    HW173387   0.047   7.300  12.918  0.1886  0.1404 -0.0068
85259SOL    HW273388   0.093   7.175  12.991 -1.4449 -0.0960  0.6646
85260SOL     OW73389   6.786   7.882   2.872 -0.6762 -0.4549  0.5590
85260SOL    HW173390   6.756   7.800   2.833 -1.7378 -1.1432  2.6718
85260SOL    HW273391   6.724   7.948   2.841  0.3616 -0.3094 -1.4025
85261SOL     OW73392   0.860   5.622   5.300  0.0379  0.3779  0.1906
85261SOL    HW173393   0.798   5.688   5.269 -3.1874 -2.7177 -0.6175
85261SOL    HW273394   0.915   5.604   5.225 -0.3516  0.7465 -0.1887
85262SOL     OW73395  12.430   7.821   1.213 -0.1528 -0.0207  0.3066
85262SOL    HW173396  12.342   7.858   1.206 -0.8220 -1.6691 -0.4261
85262SOL    HW273397  12.453   7.796   1.123  0.0457 -1.8338  0.8277
85263SOL     OW73398   3.239   2.818  12.013 -0.1245 -0.2905 -0.0428
85263SOL    HW173399   3.202   2.882  12.074 -1.6751 -0.5311 -0.6821
85263SOL    HW273400   3.311   2.777  12.062 -0.0516  0.9034  0.8974
85264SOL     OW73401   8.944  13.053   3.678 -0.5460 -0.4981  0.4916
85264SOL    HW173402   8.897  12.996   3.739 -1.3941 -2.8780 -2.1834
85264SOL    HW273403   9.034  13.053   3.711 -0.6870 -2.8146  1.0338
85265SOL     OW73404   5.493  13.596   2.335  0.2131  0.1556 -0.2449
85265SOL    HW173405   5.545  13.657   2.283  1.4798 -0.3901  0.3474
85265SOL    HW273406   5.500  13.627   2.425 -0.1707 -0.1439 -0.1071
85266SOL     OW73407   0.755  10.167   9.483  0.2249 -0.2367 -0.5697
85266SOL    HW173408   0.690  10.170   9.553 -1.6785  0.3986 -2.2484
85266SOL    HW273409   0.771  10.258   9.461  0.9396 -0.4231 -0.8612
85267SOL     OW73410  12.605  10.855  12.648  0.6146  0.3307 -0.2296
85267SOL    HW173411  12.612  10.845  12.553 -0.4711  1.5212 -0.4656
85267SOL    HW273412  12.695  10.874  12.677  1.0979 -0.8933 -0.8845
85268SOL     OW73413   2.415   5.402   0.413 -0.1469  0.0721  0.1065
85268SOL    HW173414   2.434   5.479   0.467 -1.0267  1.2316 -1.1666
85268SOL    HW273415   2.447   5.426   0.325  1.3849 -1.8137  0.0834
85269SOL     OW73416   0.986   1.424  12.262 -0.2390 -0.0310 -0.6827
85269SOL    HW173417   0.938   1.426  12.179 -2.6064 -0.9279  0.5556
85269SOL    HW273418   1.043   1.348  12.255 -1.2099 -0.7447 -1.1070
85270SOL     OW73419  11.886  10.330   5.097 -0.1997  0.1486  0.0353
85270SOL    HW173420  11.919  10.390   5.163  1.1392 -0.5138  0.0104
85270SOL    HW273421  11.825  10.274   5.144  1.3963 -0.8874  0.9698
85271SOL     OW73422   4.665   1.606   2.608 -0.0906 -0.4589 -0.2855
85271SOL    HW173423   4.601   1.582   2.541 -0.1789 -0.1307 -0.3159
85271SOL    HW273424   4.749   1.574   2.574  0.3468  2.0885 -1.8411
85272SOL     OW73425  11.183  10.594  10.657 -0.4076 -0.1576 -1.3416
85272SOL    HW173426  11.231  10.523  10.616  2.5263  0.4619  0.7236
85272SOL    HW273427  11.205  10.672  10.605  0.0631 -0.0397 -0.9741
85273SOL     OW73428   7.207   1.021  11.879 -0.4015 -0.1540  0.1651
85273SOL    HW173429   7.120   0.984  11.860 -0.5348  0.7846 -1.1900
85273SOL    HW273430   7.191   1.088  11.945 -0.5856 -0.4794  0.4586
85274SOL     OW73431   0.374   4.574   4.180 -0.5979  0.1925 -0.1798
85274SOL    HW173432   0.417   4.638   4.122  0.1056 -1.2521 -1.3063
85274SOL    HW273433   0.400   4.489   4.145  1.2988 -0.8277  3.2430
85275SOL     OW73434   7.829  10.569   1.103 -0.0486  0.3591 -0.6508
85275SOL    HW173435   7.886  10.591   1.029  1.3755  1.2538  0.6501
85275SOL    HW273436   7.793  10.652   1.132 -0.5897  0.0196 -0.3224
85276SOL     OW73437   0.542   4.071   5.907 -0.3101 -0.7318 -0.0972
85276SOL    HW173438   0.471   4.012   5.933 -1.6737  0.5708 -0.6808
85276SOL    HW273439   0.527   4.151   5.957 -0.3851  0.2306 -1.5774
85277SOL     OW73440   1.933   8.155   5.662 -0.0343 -0.3567 -0.4626
85277SOL    HW173441   1.951   8.066   5.692 -0.1352 -0.3305 -0.3239
85277SOL    HW273442   2.018   8.188   5.632 -0.0998 -0.6968 -1.0449
85278SOL     OW73443   3.049   6.155  13.992 -0.2374 -0.4155 -0.0794
85278SOL    HW173444   2.985   6.140  14.062 -1.7394  3.6801 -0.3438
85278SOL    HW273445   2.997   6.158  13.912  0.8535 -0.6281 -0.8206
85279SOL     OW73446   3.042   0.278  12.096 -0.2976 -0.1913  0.3824
85279SOL    HW173447   3.093   0.243  12.022 -0.2047  0.2453  0.2356
85279SOL    HW273448   2.964   0.316  12.055  0.6956  1.8658  0.2727
85280SOL     OW73449   5.963   1.798   6.344 -0.0767  0.0482 -0.1606
85280SOL    HW173450   5.897   1.729   6.340  0.9019 -0.8679 -2.5227
85280SOL    HW273451   6.042   1.757   6.308  1.7095  1.2371  2.0953
85281SOL     OW73452   3.665  11.777   6.946 -0.3568  0.5415  0.3301
85281SOL    HW173453   3.599  11.846   6.950  0.2634  1.2709 -1.0201
85281SOL    HW273454   3.656  11.740   6.858  0.0380 -0.3658  0.6560
85282SOL     OW73455  12.101   4.449   8.664  0.7216 -0.3240  0.1819
85282SOL    HW173456  12.132   4.468   8.575  0.5718  1.8282  0.5314
85282SOL    HW273457  12.126   4.526   8.715 -1.6152 -0.2851  1.3936
85283SOL     OW73458   1.604   8.697   6.811 -0.2270  0.1124 -0.2250
85283SOL    HW173459   1.625   8.604   6.803  1.7843  0.4640  0.4217
85283SOL    HW273460   1.531   8.710   6.750  1.0887 -1.3850 -2.2733
85284SOL     OW73461  11.872  10.304   1.498 -0.1699  0.8951 -0.2697
85284SOL    HW173462  11.903  10.226   1.452 -1.2260  1.7322 -2.5688
85284SOL    HW273463  11.779  10.288   1.512  0.0856  0.7383  1.5528
85285SOL     OW73464   3.886  12.498   9.486  0.2382  0.4280 -0.4331
85285SOL    HW173465   3.970  12.538   9.461 -0.5161  2.4581  0.0492
85285SOL    HW273466   3.862  12.543   9.568 -1.6077  0.3460 -0.8958
85286SOL     OW73467  11.593   8.022  13.072  0.0117 -0.2088 -0.1022
85286SOL    HW173468  11.638   8.025  12.987  0.4531 -0.2768  0.1276
85286SOL    HW273469  11.522   7.960  13.059 -0.4094  0.3742 -0.6549
85287SOL     OW73470   2.493  10.131   3.600 -0.1899  0.2960 -0.2074
85287SOL    HW173471   2.541  10.202   3.643 -0.4025 -0.0209  0.5545
85287SOL    HW273472   2.558  10.089   3.543  0.0894  0.7134 -0.2015
85288SOL     OW73473  14.084  10.796   5.418  0.0207  0.0029 -0.1017
85288SOL    HW173474  14.134  10.791   5.337  0.1333 -1.6988  0.0470
85288SOL    HW273475  14.120  10.727   5.474  0.3515  1.4974  1.6549
85289SOL     OW73476  12.227  11.754   5.994 -0.3056  0.4072 -0.9296
85289SOL    HW173477  12.230  11.738   5.899 -0.7674  1.0379 -1.0526
85289SOL    HW273478  12.208  11.847   6.002  0.3437  0.4867 -0.2142
85290SOL     OW73479   6.069   6.367   2.886 -0.0393  0.5148 -0.5929
85290SOL    HW173480   6.103   6.456   2.897  0.6432  0.1671  0.2148
85290SOL    HW273481   6.023   6.369   2.801  2.3347  0.9083 -1.9502
85291SOL     OW73482   6.122   0.474  11.648  0.1890 -0.0665 -0.4089
85291SOL    HW173483   6.064   0.451  11.575 -0.7837 -1.8907  0.8652
85291SOL    HW273484   6.067   0.525  11.707  0.9101  1.2032 -0.7889
85292SOL     OW73485   2.064   1.531   1.858 -0.1393 -0.3671  0.0345
85292SOL    HW173486   2.159   1.529   1.861 -0.0223  1.0911 -1.4903
85292SOL    HW273487   2.037   1.545   1.949  1.0711 -1.0245  0.5102
85293SOL     OW73488  13.608  10.822   3.369 -0.0246  0.7565 -0.0347
85293SOL    HW173489  13.665  10.810   3.293 -2.0191  2.4929 -1.9297
85293SOL    HW273490  13.665  10.805   3.444  2.3080 -0.0140 -1.8509
85294SOL     OW73491   1.898   9.017   7.159  0.0736  0.0692  0.3948
85294SOL    HW173492   1.942   9.085   7.107  2.2822 -0.7624  1.1023
85294SOL    HW273493   1.876   8.949   7.096  1.0139 -0.0971  0.2478
85295SOL     OW73494   6.481   7.076  13.664  0.0821  0.4123 -0.3097
85295SOL    HW173495   6.441   7.077  13.577 -0.1098 -1.5431 -0.3009
85295SOL    HW273496   6.572   7.051  13.649 -0.8940 -4.4957  0.1785
85296SOL     OW73497   4.782   2.968   2.108 -0.4354  0.3127 -0.0049
85296SOL    HW173498   4.862   3.014   2.134  0.2319 -0.8370  0.0536
85296SOL    HW273499   4.711   3.021   2.143  0.2792  1.6081 -0.4609
85297SOL     OW73500   0.444   7.127   7.762 -0.3304 -0.2530  0.5222
85297SOL    HW173501   0.369   7.077   7.791  0.3370 -1.0078  0.9840
85297SOL    HW273502   0.409   7.188   7.696 -1.4150 -0.2265  1.1131
85298SOL     OW73503   0.804   2.616  12.785 -0.0898  0.1350  0.2248
85298SOL    HW173504   0.773   2.651  12.702 -0.1284 -0.4558 -0.0149
85298SOL    HW273505   0.746   2.655  12.851  1.3340  2.3696  0.2333
85299SOL     OW73506   1.602  10.073  10.271 -0.0730  0.2734  0.0319
85299SOL    HW173507   1.565   9.984  10.269 -0.7171  0.5133  0.6785
85299SOL    HW273508   1.625  10.087  10.363  2.4785 -0.1802 -0.4483
85300SOL     OW73509  12.295   9.467   9.581  0.2727 -0.0355  0.2291
85300SOL    HW173510  12.202   9.488   9.572  0.1759 -1.0326 -1.7734
85300SOL    HW273511  12.302   9.422   9.665 -1.0058  0.2641  0.5139
85301SOL     OW73512   5.140  12.403  12.196  0.2683 -0.0791 -0.8517
85301SOL    HW173513   5.183  12.322  12.168 -0.9151 -1.2026  0.4284
85301SOL    HW273514   5.052  12.396  12.160  0.2518  0.7970 -0.9856
85302SOL     OW73515   6.112   9.590   5.742 -0.5793 -0.3603 -0.3944
85302SOL    HW173516   6.103   9.624   5.831 -0.1394  1.1600 -0.9095
85302SOL    HW273517   6.195   9.626   5.711 -0.0615 -1.9513 -0.9734
85303SOL     OW73518   9.208   0.023  12.991  0.1898  0.1403 -0.1077
85303SOL    HW173519   9.209   0.097  12.931 -0.4501  0.2899  0.0624
85303SOL    HW273520   9.244  -0.050  12.939 -1.1840  0.0394 -0.9938
85304SOL     OW73521  12.831   5.208  12.079  0.0117  0.2335  0.1782
85304SOL    HW173522  12.761   5.234  12.020 -0.3581 -0.6982  0.1962
85304SOL    HW273523  12.844   5.284  12.136 -0.6235  0.6011 -0.1642
85305SOL     OW73524   2.218   6.932   3.191  0.4962 -0.1555 -0.1243
85305SOL    HW173525   2.292   6.980   3.227 -0.9854 -0.1728  3.3980
85305SOL    HW273526   2.167   6.999   3.145  1.3973  0.3855 -0.3603
85306SOL     OW73527   8.040   9.269   3.801  0.9253  0.7739  0.1851
85306SOL    HW173528   8.014   9.178   3.782  0.4528  1.2073 -1.4652
85306SOL    HW273529   8.001   9.288   3.886  0.5580 -0.4037  0.2975
85307SOL     OW73530   5.974  10.604   7.182 -0.3936  0.7579 -0.3136
85307SOL    HW173531   5.931  10.660   7.117  0.7237  1.5300 -0.4330
85307SOL    HW273532   5.924  10.617   7.262 -0.6565  1.2835 -0.5596
85308SOL     OW73533   8.232  10.970   3.999  0.0895  0.1493  0.0664
85308SOL    HW173534   8.164  10.975   3.932 -0.0789 -2.3222 -0.0522
85308SOL    HW273535   8.213  10.889   4.046  0.3940  1.5921  2.9475
85309SOL     OW73536  13.309  10.305   2.658  0.2021 -0.0279 -0.3810
85309SOL    HW173537  13.329  10.366   2.587  0.5919  0.4508  0.1355
85309SOL    HW273538  13.331  10.352   2.738 -0.7834 -0.3500  0.1031
85310SOL     OW73539   7.589  10.709   9.756 -0.3069  0.8416 -0.1911
85310SOL    HW173540   7.619  10.658   9.831 -2.3331 -0.7626 -0.3985
85310SOL    HW273541   7.627  10.664   9.680 -0.6051  0.7324 -0.2762
85311SOL     OW73542   5.307  11.849  13.314 -0.7936  0.0791  0.0020
85311SOL    HW173543   5.252  11.845  13.392  0.9019  0.2879  1.2646
85311SOL    HW273544   5.391  11.881  13.345 -0.1667  0.5420 -1.9954
85312SOL     OW73545   4.581  12.178   5.146 -0.1723 -0.8582  0.0074
85312SOL    HW173546   4.657  12.184   5.203 -0.4694 -2.2345  0.5812
85312SOL    HW273547   4.521  12.120   5.192 -0.9318 -1.0153 -1.1486
85313SOL     OW73548   8.780   6.112   5.324 -0.0122  0.2537  0.0175
85313SOL    HW173549   8.855   6.170   5.337 -2.0350  2.3279  4.6113
85313SOL    HW273550   8.800   6.035   5.377  0.7983 -1.5586 -2.6992
85314SOL     OW73551   5.248   0.819   4.664 -0.3512  0.9601  0.2171
85314SOL    HW173552   5.266   0.826   4.570  1.3490  2.0661  0.5808
85314SOL    HW273553   5.234   0.909   4.693 -0.9746  0.6161  1.0131
85315SOL     OW73554   3.937   8.255   2.471  0.3239 -0.4494 -0.4578
85315SOL    HW173555   3.977   8.281   2.387 -2.1521  0.8706 -1.3332
85315SOL    HW273556   3.961   8.326   2.531  1.8113 -1.2233 -0.0832
85316SOL     OW73557   4.722  11.303   7.884 -0.7130  0.5934  0.3545
85316SOL    HW173558   4.676  11.346   7.956 -0.8103  0.8135  0.1615
85316SOL    HW273559   4.814  11.307   7.908 -0.7641  0.4871  0.5635
85317SOL     OW73560   6.521   2.592  10.300  0.7847  0.1797 -0.0759
85317SOL    HW173561   6.435   2.624  10.328 -0.3229 -1.7059 -1.1648
85317SOL    HW273562   6.547   2.653  10.231  0.4068  0.8558  0.3612
85318SOL     OW73563  12.456   7.231   9.295  0.1239  0.0047  0.1658
85318SOL    HW173564  12.480   7.314   9.336  0.9915 -0.0362 -0.2319
85318SOL    HW273565  12.468   7.246   9.201 -0.3803 -0.3594  0.0421
85319SOL     OW73566   8.816  10.490   0.280 -0.0041 -0.7003  0.3137
85319SOL    HW173567   8.765  10.413   0.307  0.6280 -1.7702 -1.3843
85319SOL    HW273568   8.782  10.511   0.193  1.4555 -0.5457 -0.2336
85320SOL     OW73569   2.599   7.151   2.714  0.5134  0.7840 -0.6169
85320SOL    HW173570   2.606   7.124   2.806  0.2428  1.2518 -0.4549
85320SOL    HW273571   2.680   7.199   2.697 -1.0437  4.0782  0.5412
85321SOL     OW73572   9.662   3.986  12.616  0.2966  0.0849 -0.2610
85321SOL    HW173573   9.578   4.032  12.627 -0.2058 -1.2727  2.5144
85321SOL    HW273574   9.643   3.915  12.555 -0.1032  0.7495 -0.9352
85322SOL     OW73575   4.264   3.401   1.156 -0.0484 -0.3766 -0.2596
85322SOL    HW173576   4.266   3.314   1.117 -0.2682 -0.3893 -0.2443
85322SOL    HW273577   4.178   3.436   1.132  0.2657  0.0628 -0.7591
85323SOL     OW73578  10.598  13.159   3.921  0.4767 -0.2009  0.1605
85323SOL    HW173579  10.634  13.230   3.868  0.1546  0.0218  0.2397
85323SOL    HW273580  10.510  13.145   3.887 -0.0137  0.4480  1.1084
85324SOL     OW73581   9.147   1.526   5.305 -0.2749 -0.0179 -0.1462
85324SOL    HW173582   9.235   1.522   5.343 -0.3783  2.9273  0.6660
85324SOL    HW273583   9.088   1.527   5.380 -0.8252  0.5565 -0.5718
85325SOL     OW73584  13.275   0.883   0.652  0.1223  0.0800  0.0555
85325SOL    HW173585  13.198   0.849   0.697 -0.4313  0.8910 -0.2678
85325SOL    HW273586  13.250   0.970   0.623  0.2334 -0.6179 -2.3862
85326SOL     OW73587  13.388   4.156   7.173  0.1813  0.1179  0.1265
85326SOL    HW173588  13.335   4.078   7.187  0.4521 -0.4165 -1.5943
85326SOL    HW273589  13.328   4.229   7.185 -0.2996 -0.3926  0.8160
85327SOL     OW73590   8.148   2.547   9.295 -0.2903  0.5517  0.3479
85327SOL    HW173591   8.155   2.490   9.218  0.8592 -0.0962  0.9009
85327SOL    HW273592   8.095   2.497   9.356  1.8224 -0.5894  1.3522
85328SOL     OW73593   9.834   4.287   4.133 -0.6870 -0.2901  0.6344
85328SOL    HW173594   9.797   4.359   4.082 -0.2713  0.5244  1.4435
85328SOL    HW273595   9.909   4.326   4.177 -0.2372 -1.3265  0.8008
85329SOL     OW73596   9.777   2.416   4.869  0.2768  0.5369  0.1535
85329SOL    HW173597   9.808   2.342   4.816  0.7560 -0.4780  1.7895
85329SOL    HW273598   9.822   2.407   4.952 -0.6584  1.9374  0.8533
85330SOL     OW73599  12.632  13.507   0.736  0.0654 -0.5134 -0.0547
85330SOL    HW173600  12.541  13.493   0.761 -0.2446  0.1390 -0.8012
85330SOL    HW273601  12.629  13.576   0.670  1.0938 -0.5359 -0.1411
85331SOL     OW73602  11.159   5.859   3.583  0.0643  0.1585  0.0362
85331SOL    HW173603  11.225   5.826   3.644 -0.6122  1.5216  1.5675
85331SOL    HW273604  11.098   5.786   3.572 -0.3056  0.1830  1.7467
85332SOL     OW73605  10.790   0.358   5.538  0.1676 -0.1984  0.2448
85332SOL    HW173606  10.724   0.427   5.532 -0.1448 -0.3567  1.4512
85332SOL    HW273607  10.751   0.283   5.493 -0.0981 -0.0212  0.1765
85333SOL     OW73608   7.226  11.827   0.384  0.2876  0.2104 -0.0645
85333SOL    HW173609   7.223  11.755   0.321 -0.5240 -0.8700  1.1741
85333SOL    HW273610   7.319  11.843   0.399  0.5305  0.8407 -1.8733
85334SOL     OW73611   1.629   3.803   6.552  0.7958 -0.5526 -0.3206
85334SOL    HW173612   1.643   3.891   6.519 -0.3169 -0.6047 -0.9785
85334SOL    HW273613   1.706   3.785   6.607  0.2274  1.4873  1.2809
85335SOL     OW73614  13.456  10.929   5.027 -0.1538 -0.2670 -0.3054
85335SOL    HW173615  13.513  11.002   5.053  0.5455 -0.7149 -0.5524
85335SOL    HW273616  13.508  10.850   5.045 -0.4344 -0.6611 -1.1604
85336SOL     OW73617   1.847   3.872  14.006  0.1569 -0.4629  0.2283
85336SOL    HW173618   1.758   3.905  14.017  0.5889  1.1188 -0.6317
85336SOL    HW273619   1.900   3.951  13.997  1.0952 -1.3171 -3.3819
85337SOL     OW73620   6.014  12.844  12.791  0.0022  0.0956  0.6089
85337SOL    HW173621   5.977  12.758  12.773  0.5754 -0.0934  0.3019
85337SOL    HW273622   6.009  12.890  12.707  1.9511 -0.5066  0.1135
85338SOL     OW73623   2.488   0.339   8.510  0.0487 -0.4726 -0.5097
85338SOL    HW173624   2.514   0.383   8.429 -1.5746  0.4202 -0.5817
85338SOL    HW273625   2.550   0.267   8.519  2.6383  1.6191 -0.5244
85339SOL     OW73626  12.652  13.969  10.831 -0.6152 -0.2597 -0.1635
85339SOL    HW173627  12.658  13.877  10.804 -0.0753  0.2059 -1.7588
85339SOL    HW273628  12.730  13.984  10.883  0.7453 -0.0523 -2.1451
85340SOL     OW73629   5.440  11.668  11.192  0.2295  0.2699  0.3035
85340SOL    HW173630   5.396  11.632  11.270 -0.4454 -0.7277 -0.5127
85340SOL    HW273631   5.370  11.714  11.145  0.4506  0.1413 -0.1446
85341SOL     OW73632   3.776  12.923   7.210  0.3558  0.0826  0.3327
85341SOL    HW173633   3.800  12.965   7.128  0.9818 -2.1086 -0.6918
85341SOL    HW273634   3.707  12.978   7.246  1.6417  2.3668 -0.4799
85342SOL     OW73635   0.300   0.257  12.455  0.3928 -0.0756  0.2128
85342SOL    HW173636   0.360   0.191  12.488  1.3029  0.8941  0.5800
85342SOL    HW273637   0.268   0.222  12.371 -0.2038 -1.5542  1.0230
85343SOL     OW73638   5.115  10.963   6.812  0.4230 -0.8224 -0.4290
85343SOL    HW173639   5.145  10.938   6.898 -0.7884  0.1903  0.3378
85343SOL    HW273640   5.077  11.050   6.824 -1.4198 -1.3954 -1.5824
85344SOL     OW73641  12.906  13.862   2.316 -0.3820  0.1327  0.0232
85344SOL    HW173642  12.937  13.827   2.400  1.4527 -0.4844 -0.8565
85344SOL    HW273643  12.982  13.908   2.280 -1.8711  2.6433 -0.1800
85345SOL     OW73644   7.496  11.028  11.676  0.8031 -0.0606 -0.2631
85345SOL    HW173645   7.478  10.972  11.751  0.6156  0.5420  0.1495
85345SOL    HW273646   7.569  11.083  11.703 -1.4105  2.5894  0.8588
85346SOL     OW73647   0.807   6.993   0.432  0.2783 -0.4939 -0.0867
85346SOL    HW173648   0.798   6.977   0.338  0.5599  1.7707 -0.5458
85346SOL    HW273649   0.818   6.906   0.470 -1.5030 -1.6081 -1.9362
85347SOL     OW73650   8.907   8.667   2.742 -0.2860 -0.1930  0.3523
85347SOL    HW173651   8.859   8.733   2.791  0.6586  0.5612  0.3033
85347SOL    HW273652   8.949   8.613   2.810  1.3340  1.0849  0.4342
85348SOL     OW73653   2.381   6.238   8.860  0.2123  0.0379 -0.7004
85348SOL    HW173654   2.326   6.316   8.866  2.2379  1.4473  1.6035
85348SOL    HW273655   2.454   6.264   8.804  2.2037  0.8432  2.0290
85349SOL     OW73656  10.469  13.598  12.527  0.2784  0.2547 -0.1359
85349SOL    HW173657  10.410  13.557  12.463  1.7350  1.3037 -2.2664
85349SOL    HW273658  10.460  13.692  12.511  3.2310  0.4431 -1.3493
85350SOL     OW73659   4.362   6.397   3.698  0.2201  0.4262  0.0364
85350SOL    HW173660   4.339   6.416   3.789  0.0393  0.5651 -0.0379
85350SOL    HW273661   4.414   6.472   3.670 -1.1699  1.2313 -0.5085
85351SOL     OW73662   8.698   8.286   1.648 -0.3551 -0.2121  0.7209
85351SOL    HW173663   8.604   8.305   1.641 -0.1202  0.4428 -2.8159
85351SOL    HW273664   8.740   8.357   1.599  1.7740 -1.7529  0.1550
85352SOL     OW73665  12.823   1.740   2.916  0.0371  0.4911 -0.3542
85352SOL    HW173666  12.771   1.663   2.894  1.0403 -0.9966  2.0344
85352SOL    HW273667  12.914   1.713   2.903  0.3735  2.2055 -2.0422
85353SOL     OW73668  14.028  12.626  12.087 -0.9970  0.0641 -0.1805
85353SOL    HW173669  14.085  12.556  12.055 -1.9948 -0.0067 -1.9456
85353SOL    HW273670  14.035  12.620  12.182 -0.1081 -1.6368 -0.2990
85354SOL     OW73671   5.785   6.456   1.080 -0.1556  0.0392 -0.3509
85354SOL    HW173672   5.739   6.461   1.163  1.9635  0.2103  0.8892
85354SOL    HW273673   5.766   6.539   1.036  1.5693  1.5923  1.6290
85355SOL     OW73674  13.824   0.211  11.386 -0.1764 -0.4570 -0.0758
85355SOL    HW173675  13.802   0.118  11.399 -0.6677 -0.2707  0.4937
85355SOL    HW273676  13.829   0.222  11.291  0.3806 -1.1763 -0.1376
85356SOL     OW73677   9.250   5.910  12.475  0.4572 -0.9365  0.1521
85356SOL    HW173678   9.168   5.867  12.447  0.3843 -1.5433  1.2584
85356SOL    HW273679   9.244   5.998  12.438  0.6486 -1.8596 -2.2673
85357SOL     OW73680  12.175   7.820   8.031 -0.1066 -0.0714 -0.2047
85357SOL    HW173681  12.168   7.803   8.125  2.4388 -1.9413 -0.2707
85357SOL    HW273682  12.173   7.916   8.025 -0.7176  0.0871  1.6944
85358SOL     OW73683   5.571   7.353   9.577 -0.9192  0.3184  0.2642
85358SOL    HW173684   5.589   7.374   9.669 -0.4042 -1.2820  0.5725
85358SOL    HW273685   5.634   7.284   9.556 -1.2921  0.3885 -1.1890
85359SOL     OW73686   6.730   1.142  11.930  0.3369  0.2007  0.4908
85359SOL    HW173687   6.698   1.222  11.972 -0.7279 -0.7151  1.5281
85359SOL    HW273688   6.668   1.126  11.859 -0.7526 -0.7867  1.5954
85360SOL     OW73689   7.892   2.358  13.074  0.1740 -0.2074  0.0663
85360SOL    HW173690   7.874   2.452  13.079  0.8960 -0.0675  0.1000
85360SOL    HW273691   7.816   2.317  13.117 -0.2639  0.3428 -0.1734
85361SOL     OW73692  10.093   6.445   0.181  0.2838  0.0675 -0.9454
85361SOL    HW173693  10.020   6.386   0.164 -1.3403  1.7204 -0.0468
85361SOL    HW273694  10.146   6.441   0.101 -1.8016  0.2615 -2.4119
85362SOL     OW73695   1.400   7.510   9.577  0.2223 -0.0608 -0.3585
85362SOL    HW173696   1.323   7.537   9.625  0.4708  0.3386 -0.1766
85362SOL    HW273697   1.422   7.586   9.522  1.7843  0.7301  1.2239
85363SOL     OW73698   9.898   3.812   0.675 -0.2252 -0.3410  0.2083
85363SOL    HW173699   9.867   3.782   0.760  1.0158  0.0407  0.8103
85363SOL    HW273700   9.993   3.818   0.684 -0.1657  0.7561 -0.8547
85364SOL     OW73701  10.664   4.587   1.356  0.2711 -0.1814  0.3165
85364SOL    HW173702  10.659   4.589   1.451 -1.5188  0.1905  0.2495
85364SOL    HW273703  10.726   4.517   1.336  1.4053  0.3707  1.7524
85365SOL     OW73704   3.491   4.653   6.721  0.5777  0.1379  0.5488
85365SOL    HW173705   3.528   4.679   6.806  0.2813  1.2200  0.3669
85365SOL    HW273706   3.523   4.720   6.660 -2.5675  1.8851  0.5977
85366SOL     OW73707   8.132  13.794   9.057  0.1266 -0.1758  0.1968
85366SOL    HW173708   8.086  13.713   9.078 -0.3459 -0.0065 -0.1641
85366SOL    HW273709   8.077  13.863   9.095 -0.0347  0.0447 -0.4325
85367SOL     OW73710   9.582   0.797  12.768  0.6762 -0.4279 -0.4064
85367SOL    HW173711   9.675   0.778  12.779  0.5461 -1.0676 -0.3571
85367SOL    HW273712   9.539   0.711  12.773  0.0410 -0.0986  0.0324
85368SOL     OW73713  11.917  12.680  10.251  0.9242 -0.0587  0.1892
85368SOL    HW173714  11.846  12.721  10.203 -1.5661 -2.1643  1.7883
85368SOL    HW273715  11.937  12.600  10.202  2.0565  0.3855 -0.1068
85369SOL     OW73716   0.752   0.718   5.761  0.1597  0.2011  0.3714
85369SOL    HW173717   0.837   0.710   5.717 -0.3687 -0.0393 -0.6613
85369SOL    HW273718   0.694   0.755   5.694 -0.7524 -0.4372  0.7804
85370SOL     OW73719  13.727   5.598   7.372 -0.1360 -0.0122 -0.4673
85370SOL    HW173720  13.709   5.507   7.348  0.8723 -0.5507  0.7208
85370SOL    HW273721  13.675   5.649   7.311  0.0877 -1.3664 -1.8574
85371SOL     OW73722   8.027   7.422  12.152  0.3286  0.1514 -0.0014
85371SOL    HW173723   7.994   7.498  12.104  0.1798 -0.3148 -0.6624
85371SOL    HW273724   8.017   7.445  12.244  0.4482  0.9975 -0.1900
85372SOL     OW73725  11.514   8.927  12.847  0.0894  0.5454  1.0080
85372SOL    HW173726  11.539   9.019  12.848  0.0398  0.6097 -0.5183
85372SOL    HW273727  11.419   8.927  12.861  0.0773  0.7466  0.9266
85373SOL     OW73728  10.888   9.344   3.262 -0.5165  0.1337 -0.2216
85373SOL    HW173729  10.852   9.406   3.326 -1.0126 -1.2144  0.8756
85373SOL    HW273730  10.833   9.355   3.185 -0.0165  1.6742 -0.3988
85374SOL     OW73731   0.488  11.941   8.985 -0.0622  0.0037 -0.0470
85374SOL    HW173732   0.461  11.944   8.893 -0.7453  1.9292  0.1622
85374SOL    HW273733   0.561  12.002   8.991 -1.1885  1.3277  0.9872
85375SOL     OW73734  11.642   4.362  12.348  0.2033  0.8238 -0.0618
85375SOL    HW173735  11.595   4.280  12.363 -0.4238  1.0614 -0.6567
85375SOL    HW273736  11.586   4.412  12.288  0.8202  1.4699 -0.1279
85376SOL     OW73737   9.428   0.238  11.949 -0.0048  0.6652 -0.0537
85376SOL    HW173738   9.358   0.223  11.885 -0.1153 -1.9499  0.5456
85376SOL    HW273739   9.489   0.166  11.933  1.2054  1.3945  1.1785
85377SOL     OW73740   8.080  13.667  12.962  0.2780 -0.1686 -0.0115
85377SOL    HW173741   8.134  13.692  12.887  0.8215  2.2607  1.0968
85377SOL    HW273742   8.046  13.750  12.995 -3.6086 -1.5001 -0.1739
85378SOL     OW73743  10.750   3.604   4.836 -0.2411 -0.2733  0.3327
85378SOL    HW173744  10.666   3.647   4.849 -2.9765 -3.5858 -3.7801
85378SOL    HW273745  10.732   3.511   4.850  3.1073 -1.0270  0.4548
85379SOL     OW73746   3.510   8.372   4.345  0.0490  0.6847 -0.2095
85379SOL    HW173747   3.425   8.357   4.302 -1.2026  1.3219  1.8770
85379SOL    HW273748   3.544   8.284   4.360 -0.3929  0.4039 -0.8047
85380SOL     OW73749   1.368   2.424   4.804 -0.3576 -0.6851  0.7870
85380SOL    HW173750   1.286   2.445   4.849  0.8558  1.3294  2.2076
85380SOL    HW273751   1.435   2.472   4.852  1.3894 -0.4120 -1.7088
85381SOL     OW73752   6.328  10.075   4.607 -0.3265 -0.5630 -0.1677
85381SOL    HW173753   6.338  10.053   4.514  1.1138  0.3715 -0.2599
85381SOL    HW273754   6.338   9.991   4.652  3.4355 -0.5183 -0.6082
85382SOL     OW73755   2.029  12.337   3.762 -0.1303 -0.1878  0.3831
85382SOL    HW173756   2.088  12.405   3.794  1.4838 -1.3500  0.0334
85382SOL    HW273757   1.954  12.339   3.822 -0.2153  1.9644  0.2712
85383SOL     OW73758   8.693   6.414   8.777 -0.1857  0.0787 -0.1887
85383SOL    HW173759   8.743   6.475   8.723 -0.4278  0.3539 -0.1008
85383SOL    HW273760   8.752   6.339   8.789  0.1188  0.3041 -0.2741
85384SOL     OW73761   7.351   4.878   0.868  0.4996  0.6393 -0.4591
85384SOL    HW173762   7.308   4.938   0.928 -0.4146 -0.4566  0.0046
85384SOL    HW273763   7.395   4.935   0.805  0.7205  1.7935  0.7052
85385SOL     OW73764  13.832   3.537   3.531 -0.0695  0.3315 -0.1386
85385SOL    HW173765  13.754   3.522   3.583 -0.1295  0.5745 -0.1593
85385SOL    HW273766  13.804   3.597   3.462  0.0075  0.0151 -0.4497
85386SOL     OW73767   5.647  13.926  12.921 -0.0953  0.5388  0.0407
85386SOL    HW173768   5.571  13.918  12.979  0.3909  2.4304  0.9891
85386SOL    HW273769   5.711  13.863  12.956 -0.8768 -0.4659 -0.2749
85387SOL     OW73770   8.148   8.195   4.982 -0.1008  0.1196  0.2316
85387SOL    HW173771   8.214   8.232   4.923  1.0612 -2.2818 -0.1316
85387SOL    HW273772   8.080   8.162   4.924  0.7510 -1.6923  0.1764
85388SOL     OW73773   4.560   3.022  14.043 -0.2285  0.4597 -0.3716
85388SOL    HW173774   4.522   3.018  13.955  0.6360  1.3655 -0.7992
85388SOL    HW273775   4.654   3.032  14.028  0.4601 -2.9660  0.6374
85389SOL     OW73776  10.609  13.419   1.732 -0.0542  0.0929 -0.7246
85389SOL    HW173777  10.594  13.443   1.641 -0.3198  0.9582 -0.4636
85389SOL    HW273778  10.541  13.353   1.750  1.1736 -1.4939 -1.6679
85390SOL     OW73779   1.039   7.749  10.481  0.1904  0.4649 -0.2528
85390SOL    HW173780   1.037   7.654  10.483  1.6316  0.4288  0.3509
85390SOL    HW273781   0.998   7.776  10.563  1.6664  0.2966  0.5700
85391SOL     OW73782   9.824   3.808   8.951  0.4545  0.8076  0.6507
85391SOL    HW173783   9.843   3.892   8.992  2.6932  0.5472  0.2739
85391SOL    HW273784   9.823   3.745   9.023  1.0479  0.8299  0.6780
85392SOL     OW73785   4.354   0.944   8.683 -0.3004 -0.1221  0.2973
85392SOL    HW173786   4.309   0.978   8.761 -0.8588 -0.3213  0.0691
85392SOL    HW273787   4.302   0.868   8.657  0.3301 -0.5199  0.1826
85393SOL     OW73788  11.497  11.299   7.710 -0.2054  0.3373  0.3585
85393SOL    HW173789  11.514  11.212   7.673  0.1910 -0.1868  1.6992
85393SOL    HW273790  11.464  11.281   7.798 -2.5551  1.4899 -0.2110
85394SOL     OW73791   8.835  11.614   8.568 -0.5873  0.0663 -0.1694
85394SOL    HW173792   8.824  11.614   8.473  0.7545 -0.4318 -0.3327
85394SOL    HW273793   8.922  11.649   8.582 -0.8116  0.2149  0.8952
85395SOL     OW73794   0.153   1.234   7.210  0.1860  0.0633 -0.3379
85395SOL    HW173795   0.071   1.209   7.253 -0.6408  0.0468 -1.8647
85395SOL    HW273796   0.133   1.315   7.164  0.3449 -1.0879 -2.5760
85396SOL     OW73797  11.847   0.843   6.025 -0.2280  0.2206 -0.3721
85396SOL    HW173798  11.855   0.936   6.002  2.1212  0.1843  0.0578
85396SOL    HW273799  11.895   0.835   6.107 -1.8778 -1.0924  0.5062
85397SOL     OW73800   2.038   4.602   4.141 -0.1516 -0.7821  0.8339
85397SOL    HW173801   2.117   4.550   4.159  0.4319 -0.0417  0.4894
85397SOL    HW273802   1.988   4.549   4.079  1.5396  0.0251 -1.3500
85398SOL     OW73803   4.647   5.283   2.342  0.6019 -0.3708 -0.4069
85398SOL    HW173804   4.730   5.304   2.300  0.9477  0.5960  0.6980
85398SOL    HW273805   4.663   5.295   2.435 -0.8408  0.1051 -0.1884
85399SOL     OW73806  11.878   7.619   7.505 -0.4893 -0.1312  0.2649
85399SOL    HW173807  11.941   7.551   7.480  0.6601  1.0832 -0.2893
85399SOL    HW273808  11.932   7.687   7.545 -1.9323 -0.8441  3.8308
85400SOL     OW73809   7.916  10.830   7.200 -0.2021  0.3936 -0.1325
85400SOL    HW173810   7.973  10.843   7.276 -0.0350  0.3867 -0.2586
85400SOL    HW273811   7.873  10.747   7.217  1.5217 -0.7548 -1.1293
85401SOL     OW73812  12.903  13.043   0.952 -0.1241 -0.2223  0.5235
85401SOL    HW173813  12.842  13.113   0.929  1.8561  1.1829 -0.8755
85401SOL    HW273814  12.988  13.087   0.955  1.0585 -2.4063  0.6234
85402SOL     OW73815   0.599   2.307  10.106 -0.2169 -0.2027  0.2986
85402SOL    HW173816   0.687   2.339  10.087  0.2300 -0.5418  1.6591
85402SOL    HW273817   0.610   2.252  10.184 -1.2093 -2.3190 -0.9408
85403SOL     OW73818   3.477   1.963   8.510 -0.1547  0.1866 -0.2144
85403SOL    HW173819   3.440   2.049   8.493  1.7975  0.7097 -2.4143
85403SOL    HW273820   3.440   1.907   8.442  0.1917 -0.1783 -0.1066
85404SOL     OW73821   9.436  10.077   5.235  0.5002  0.2869  0.0412
85404SOL    HW173822   9.485  10.131   5.296  0.1196 -0.2201  0.8021
85404SOL    HW273823   9.432   9.991   5.276 -1.9010  0.5502  0.5234
85405SOL     OW73824   2.445   5.801  12.864  0.3063 -0.6767 -0.0464
85405SOL    HW173825   2.390   5.737  12.909 -0.5180  0.2201  0.2602
85405SOL    HW273826   2.429   5.785  12.771  0.0073 -0.8238  0.0290
85406SOL     OW73827  11.770   4.543  13.952  0.7542 -0.3726 -0.2462
85406SOL    HW173828  11.838   4.553  13.886  1.8342 -0.5012  0.8206
85406SOL    HW273829  11.757   4.632  13.986  0.4671 -0.3684 -0.3635
85407SOL     OW73830   9.289   2.326   1.915 -0.5921 -0.2667 -0.4385
85407SOL    HW173831   9.336   2.272   1.979  0.7435  0.4240 -0.8062
85407SOL    HW273832   9.242   2.262   1.860 -1.2626 -0.8973  0.8226
85408SOL     OW73833   7.666   3.056  13.722  0.1963  0.1464  0.5480
85408SOL    HW173834   7.586   3.036  13.674  1.0596 -1.1396 -0.4399
85408SOL    HW273835   7.670   2.989  13.790  0.2316  0.4659  0.8641
85409SOL     OW73836   5.307  12.857   8.153 -0.4447 -0.1643  0.1964
85409SOL    HW173837   5.318  12.836   8.246 -0.4451  1.5174  0.6079
85409SOL    HW273838   5.215  12.882   8.144 -0.7555 -1.4833 -0.5282
85410SOL     OW73839   0.812  13.628   8.861  0.5521  0.3492 -0.9187
85410SOL    HW173840   0.798  13.716   8.824 -1.7160  0.0733 -0.8020
85410SOL    HW273841   0.791  13.638   8.954  0.3538 -0.3152 -0.8941
85411SOL     OW73842   6.099   3.158   4.091 -0.1143 -0.1322  0.1525
85411SOL    HW173843   6.048   3.078   4.105 -1.5778  0.7423  0.0595
85411SOL    HW273844   6.147   3.171   4.172 -2.8578  0.9272  1.7751
85412SOL     OW73845   1.932   5.706  13.483  0.1399  0.2462 -0.6887
85412SOL    HW173846   1.934   5.635  13.419 -0.0918  1.2352 -1.8223
85412SOL    HW273847   1.981   5.672  13.558 -1.3828 -1.7498 -0.5025
85413SOL     OW73848  10.254   2.902   7.103 -0.0921 -0.0595 -0.4644
85413SOL    HW173849  10.227   2.813   7.123 -3.0147  0.3866 -1.9261
85413SOL    HW273850  10.233   2.914   7.011 -1.3830  2.6217  0.0880
85414SOL     OW73851   2.743  12.801  12.362  0.1850  0.7803 -0.0167
85414SOL    HW173852   2.827  12.821  12.404  1.3236 -0.3296 -1.6256
85414SOL    HW273853   2.757  12.820  12.269 -1.6480  1.3893 -0.2106
85415SOL     OW73854  10.403  12.335   9.607 -0.1805  0.0126 -0.4130
85415SOL    HW173855  10.348  12.258   9.617  0.1153 -0.2205 -0.5696
85415SOL    HW273856  10.342  12.406   9.589 -0.4069 -0.3012 -0.8977
85416SOL     OW73857   2.868  10.766   6.680  0.1274 -0.3027  0.1332
85416SOL    HW173858   2.821  10.842   6.645  0.7778  0.6599  1.2697
85416SOL    HW273859   2.886  10.711   6.603 -1.4295  0.0756 -0.5367
85417SOL     OW73860  10.082   8.229  13.320  0.0821  0.0366 -0.1189
85417SOL    HW173861  10.137   8.187  13.386 -0.4219  1.2382  1.1153
85417SOL    HW273862  10.081   8.167  13.247 -0.3314 -1.9215  1.4571
85418SOL     OW73863  12.520   9.684   5.268 -0.2524 -0.0910  0.4253
85418SOL    HW173864  12.578   9.642   5.205 -0.3970  1.8307 -1.1213
85418SOL    HW273865  12.532   9.635   5.349  0.6077 -2.1353 -0.8492
85419SOL     OW73866   7.272  14.047   8.410  0.2475 -0.5086  0.1372
85419SOL    HW173867   7.194  14.000   8.382 -0.0602  0.7712 -1.2733
85419SOL    HW273868   7.342  13.982   8.405 -0.5755 -1.4602  0.6542
85420SOL     OW73869  13.075   2.890   5.192 -0.2168 -0.5486 -0.2314
85420SOL    HW173870  13.054   2.825   5.125 -1.3853 -1.3118  0.8324
85420SOL    HW273871  13.136   2.846   5.250 -1.0729 -0.7503  0.5392
85421SOL     OW73872   4.418  13.887  12.218  0.6714  0.3866 -0.1042
85421SOL    HW173873   4.362  13.825  12.172 -0.4644  0.9528  0.4849
85421SOL    HW273874   4.495  13.835  12.242  0.7242 -0.2330 -1.5015
85422SOL     OW73875   4.818   2.860   4.092 -0.0068  0.0976 -0.0817
85422SOL    HW173876   4.732   2.869   4.052  0.5509 -0.4420 -1.4877
85422SOL    HW273877   4.814   2.778   4.141 -1.1136  1.4013  2.1780
85423SOL     OW73878  13.704   0.469   2.898  0.2292 -0.1525 -1.1283
85423SOL    HW173879  13.789   0.508   2.920  0.9286 -2.5771  0.9807
85423SOL    HW273880  13.642   0.511   2.957  1.1737 -2.7650  1.9763
85424SOL     OW73881   0.848   3.451   4.987  0.5285  0.0140  0.2083
85424SOL    HW173882   0.917   3.470   4.923 -0.9915  2.0200 -0.9399
85424SOL    HW273883   0.842   3.529   5.041 -2.5554  1.0964 -1.4342
85425SOL     OW73884   7.931   2.664   7.250 -0.3914  0.3157  0.1860
85425SOL    HW173885   7.865   2.598   7.274  0.0199 -0.0450  0.3265
85425SOL    HW273886   7.926   2.729   7.321 -2.6558  1.8510 -1.2539
85426SOL     OW73887   0.787   0.117   1.948 -0.5827 -0.0536 -0.3211
85426SOL    HW173888   0.720   0.087   2.008  0.9988 -0.8961  1.1189
85426SOL    HW273889   0.747   0.191   1.902 -1.8471  0.6873  1.8256
85427SOL     OW73890   8.887   1.242   4.329  0.3536 -0.1309 -0.4764
85427SOL    HW173891   8.838   1.315   4.293 -0.4280  0.6165  1.9303
85427SOL    HW273892   8.909   1.188   4.253 -0.2081  1.8795 -2.1531
85428SOL     OW73893   5.530   7.916   1.876 -0.2734 -0.4170  0.5515
85428SOL    HW173894   5.542   7.838   1.822  1.1066 -0.5930  1.0647
85428SOL    HW273895   5.618   7.939   1.906 -0.6195  1.4124  0.3276
85429SOL     OW73896   0.855   5.672  11.913 -0.3070 -0.1078 -0.2643
85429SOL    HW173897   0.801   5.686  11.992 -0.8162  0.2268 -0.6676
85429SOL    HW273898   0.894   5.757  11.896  0.2656 -0.3239 -0.0418
85430SOL     OW73899   8.846   5.584  12.500 -0.2004 -0.1962  0.4948
85430SOL    HW173900   8.760   5.542  12.496 -0.0812 -0.5801  1.5945
85430SOL    HW273901   8.904   5.515  12.534  0.8847 -0.4384 -1.6920
85431SOL     OW73902   8.680   6.530   8.500 -0.4870 -0.3090 -0.1374
85431SOL    HW173903   8.656   6.438   8.504 -0.7348 -0.2769 -0.8472
85431SOL    HW273904   8.737   6.538   8.424  1.4472 -0.2877  1.2473
85432SOL     OW73905   0.908   3.769   8.310 -0.5713  0.3663  0.0079
85432SOL    HW173906   0.818   3.776   8.342 -0.0983  0.0423  1.4998
85432SOL    HW273907   0.961   3.790   8.387  0.6345  3.1354 -1.4524
85433SOL     OW73908   6.075   1.649   3.872  0.2758  0.3217 -0.4205
85433SOL    HW173909   6.163   1.611   3.871 -0.3510 -1.3857  1.6186
85433SOL    HW273910   6.020   1.582   3.832 -0.8117 -1.0306  2.9916
85434SOL     OW73911   6.455  13.728   5.154  0.1638  0.0642 -0.0629
85434SOL    HW173912   6.490  13.686   5.233 -0.4605  0.0988  0.2374
85434SOL    HW273913   6.523  13.789   5.127  0.5862 -0.2988  0.1745
85435SOL     OW73914   8.071  10.869   1.755 -0.1383 -0.2352  0.0775
85435SOL    HW173915   8.103  10.859   1.845  0.3779 -1.1476 -0.1916
85435SOL    HW273916   7.982  10.834   1.757  0.2660 -1.3061  0.0067
85436SOL     OW73917   3.355  12.415   3.003  0.1520 -0.2945 -0.7468
85436SOL    HW173918   3.416  12.390   3.072  0.7155 -0.8051 -1.4113
85436SOL    HW273919   3.336  12.508   3.019 -0.8284 -0.7388  0.9069
85437SOL     OW73920   9.586   4.378   2.279  0.3853  0.4905  0.1472
85437SOL    HW173921   9.602   4.300   2.226 -1.8663 -1.3829  2.0305
85437SOL    HW273922   9.673   4.405   2.309  1.4947  0.3468 -2.5948
85438SOL     OW73923   1.214   6.852   1.558  0.3928  0.1665 -0.2658
85438SOL    HW173924   1.277   6.793   1.599 -1.6469 -0.3979  2.2830
85438SOL    HW273925   1.261   6.935   1.550  1.0029  0.3379  3.3647
85439SOL     OW73926   9.829   4.844   0.736  0.3485 -0.0684 -0.0460
85439SOL    HW173927   9.843   4.894   0.816 -1.6772 -1.5240  1.2871
85439SOL    HW273928   9.877   4.762   0.749  2.2772  0.7340 -1.5352
85440SOL     OW73929   6.002   4.067   1.319 -0.2221  0.1733  0.3764
85440SOL    HW173930   5.921   4.069   1.267 -0.9606 -2.4780  1.2624
85440SOL    HW273931   6.063   4.018   1.265 -0.4935 -1.2253  1.2949
85441SOL     OW73932   0.040   0.434   3.699  0.2296 -0.0065 -0.4511
85441SOL    HW173933   0.123   0.431   3.651  0.3832 -0.3532 -0.1644
85441SOL    HW273934   0.064   0.415   3.790 -0.0639  0.6306 -0.2317
85442SOL     OW73935  11.694   8.069   4.508  0.2654 -0.0514  0.2358
85442SOL    HW173936  11.761   8.136   4.519 -0.3177  0.5817 -0.0485
85442SOL    HW273937  11.673   8.071   4.415 -1.5913  1.1778  0.6287
85443SOL     OW73938  13.016   3.893   0.131  0.5178  0.1320  0.3379
85443SOL    HW173939  12.934   3.913   0.085 -0.0071  0.4008  1.3387
85443SOL    HW273940  12.990   3.834   0.201  1.3645 -0.5898  0.0597
85444SOL     OW73941   1.029  10.693   0.973 -0.1571 -0.2156  0.3980
85444SOL    HW173942   1.122  10.670   0.969 -0.7530 -2.9677  0.1913
85444SOL    HW273943   1.001  10.667   1.061 -0.9135 -0.3507  0.1329
85445SOL     OW73944   0.378  13.966  11.981  0.3982  0.5961  0.7478
85445SOL    HW173945   0.350  13.875  11.990 -0.1678  0.5098 -1.3884
85445SOL    HW273946   0.338  14.011  12.055 -1.9203 -0.3229  0.1282
85446SOL     OW73947   4.565  11.621   7.790  0.1298 -0.4637 -0.0775
85446SOL    HW173948   4.590  11.645   7.880  0.2792  2.2209 -0.7459
85446SOL    HW273949   4.649  11.609   7.745  0.1160  0.1891 -0.2985
85447SOL     OW73950   2.200   5.215   6.080  0.4179 -0.3931 -0.1640
85447SOL    HW173951   2.130   5.259   6.031  1.2113  1.4335  0.2613
85447SOL    HW273952   2.162   5.199   6.167  0.6252  0.9265  0.1840
85448SOL     OW73953   7.865   7.189   0.732  0.0278 -0.0529 -0.2094
85448SOL    HW173954   7.932   7.184   0.800 -0.3921 -0.6496  0.1697
85448SOL    HW273955   7.880   7.112   0.677  0.2589  0.3339 -0.6993
85449SOL     OW73956  11.769   0.083   8.680  0.2385  0.1080  0.0586
85449SOL    HW173957  11.862   0.059   8.675  0.5564  1.2379  0.1928
85449SOL    HW273958  11.766   0.173   8.646 -0.6163  0.5369  1.2303
85450SOL     OW73959  12.697   1.798   7.381 -0.8065  0.1912  0.5097
85450SOL    HW173960  12.620   1.803   7.438 -2.3147 -0.4408 -1.3736
85450SOL    HW273961  12.760   1.860   7.420 -0.8521 -1.7512  4.0363
85451SOL     OW73962   8.661   6.786   1.112  0.0118 -0.0407 -0.5223
85451SOL    HW173963   8.672   6.701   1.069  0.3263  0.8350 -2.2688
85451SOL    HW273964   8.743   6.800   1.160  0.0942 -0.5715 -0.5049
85452SOL     OW73965   0.982   2.077   3.432  0.0197  0.3195  0.3088
85452SOL    HW173966   1.046   2.112   3.371  0.1964 -1.5033 -0.6160
85452SOL    HW273967   1.029   2.068   3.515  0.7352 -0.2035 -0.1435
85453SOL     OW73968   7.451   3.451  12.496 -0.1616 -0.0625  0.4974
85453SOL    HW173969   7.476   3.398  12.420  0.0170  0.0787  0.4569
85453SOL    HW273970   7.401   3.524  12.458  0.6380  0.4621  0.4287
85454SOL     OW73971  12.983   7.865   0.956 -0.6834 -0.5117 -0.4390
85454SOL    HW173972  12.894   7.901   0.949 -0.5468 -0.0386  0.1917
85454SOL    HW273973  12.970   7.776   0.989 -0.8539  0.2063  1.6170
85455SOL     OW73974   5.296  10.436  11.728 -0.8150 -0.8620 -0.1534
85455SOL    HW173975   5.250  10.353  11.712 -0.0209 -1.0607 -1.5192
85455SOL    HW273976   5.329  10.427  11.818 -3.9843 -0.4133  1.2006
85456SOL     OW73977   4.091   3.930   1.151  0.3401 -0.1720 -0.0899
85456SOL    HW173978   4.101   3.839   1.123  2.1016  0.7767 -2.9252
85456SOL    HW273979   4.176   3.970   1.134 -0.7683  2.3245 -0.1369
85457SOL     OW73980  10.852   6.264   4.421 -0.0687  0.9015 -0.5618
85457SOL    HW173981  10.820   6.295   4.336  0.2870 -0.6641 -1.3204
85457SOL    HW273982  10.828   6.171   4.422  2.9794  0.0118 -0.5168
85458SOL     OW73983   3.898  13.854   9.335 -0.1374 -0.7086  0.2205
85458SOL    HW173984   3.932  13.909   9.264 -2.6531  0.2702 -0.3222
85458SOL    HW273985   3.960  13.867   9.407  2.7412 -2.0622 -1.8252
85459SOL     OW73986   5.249   7.149   5.028 -0.0847  1.0098  0.4355
85459SOL    HW173987   5.214   7.060   5.032  1.1601  0.4749 -0.1313
85459SOL    HW273988   5.263   7.173   5.120  1.0418 -0.0072  0.5620
85460SOL     OW73989  10.522  13.558   2.033 -0.0982 -0.5641 -0.1446
85460SOL    HW173990  10.616  13.570   2.046  0.0616 -1.4675 -0.4231
85460SOL    HW273991  10.515  13.510   1.951 -0.8892  1.0032 -1.0492
85461SOL     OW73992  11.619   9.610   6.552 -0.1111 -0.3974  0.0849
85461SOL    HW173993  11.579   9.694   6.574 -0.2079 -0.5703  0.5840
85461SOL    HW273994  11.703   9.611   6.598  0.3491 -0.1510 -0.7348
85462SOL     OW73995   9.805   8.005   3.948 -0.0104 -0.0781  0.1640
85462SOL    HW173996   9.797   8.007   3.853 -0.2840  0.2551  0.1929
85462SOL    HW273997   9.821   8.097   3.972 -0.4326 -0.0893  0.4804
85463SOL     OW73998   6.117   7.747   8.746  0.0178  0.0668 -0.3741
85463SOL    HW173999   6.128   7.656   8.718  3.1832  0.2390 -0.1068
85463SOL    HW274000   6.147   7.748   8.836 -1.6642  1.1127  0.2111
85464SOL     OW74001   8.410   0.836   1.438  0.3924  0.3341  0.4413
85464SOL    HW174002   8.317   0.817   1.428  0.4243  0.2772  0.2382
85464SOL    HW274003   8.437   0.868   1.352  0.4568  0.7916  0.6274
85465SOL     OW74004   7.179   0.717  13.887 -0.4052  0.8672 -0.2454
85465SOL    HW174005   7.193   0.699  13.980 -2.5553 -0.6416 -0.1338
85465SOL    HW274006   7.094   0.761  13.884 -0.3047  1.0179 -1.5117
85466SOL     OW74007   6.718  12.528   9.890  0.0010  0.4956  0.5659
85466SOL    HW174008   6.637  12.517   9.939 -2.2834  3.3114 -2.2120
85466SOL    HW274009   6.747  12.617   9.909  2.3260 -0.3108  1.1801
85467SOL     OW74010  11.405  10.508   1.549 -0.3438  0.4197  0.3112
85467SOL    HW174011  11.394  10.419   1.584  0.7342  0.4995  0.9010
85467SOL    HW274012  11.498  10.512   1.525 -0.5014  1.2257 -0.1977
85468SOL     OW74013  13.619   6.078  11.298  0.3463 -0.0222  0.1983
85468SOL    HW174014  13.619   6.051  11.390  0.3905 -0.1033  0.1753
85468SOL    HW274015  13.560   6.016  11.255  0.5188 -0.1404  0.1288
85469SOL     OW74016  11.061   0.700  10.562  0.2530  0.2358  0.0531
85469SOL    HW174017  11.038   0.613  10.531 -0.5604  0.7767 -0.9057
85469SOL    HW274018  11.059   0.693  10.658 -1.9527 -0.2706  0.0201
85470SOL     OW74019   7.672  13.489   1.100 -0.1106  0.1519  0.4155
85470SOL    HW174020   7.651  13.562   1.042 -0.9096  2.0071  2.8816
85470SOL    HW274021   7.768  13.481   1.095 -0.0756  0.9016 -0.3660
85471SOL     OW74022   7.058   0.689   3.291  0.2528  0.5047 -0.6556
85471SOL    HW174023   7.098   0.610   3.255  0.2017  0.6619 -1.0579
85471SOL    HW274024   7.085   0.690   3.383  1.2605  0.6680 -0.9428
85472SOL     OW74025   4.339   8.614   9.853  0.1561 -0.3852 -0.2617
85472SOL    HW174026   4.287   8.625   9.933  2.4998  0.1837  1.2651
85472SOL    HW274027   4.326   8.522   9.829 -1.6798 -0.2205 -0.0909
85473SOL     OW74028   0.981   1.850   8.932  0.0500 -0.3789  0.2680
85473SOL    HW174029   0.976   1.943   8.908 -1.0278 -0.2261  0.9979
85473SOL    HW274030   1.070   1.824   8.909  0.3788  0.8483  0.0735
85474SOL     OW74031   1.442   8.053   4.584 -0.6272  0.1509  0.0576
85474SOL    HW174032   1.504   8.061   4.657 -0.7105  0.3749  0.1035
85474SOL    HW274033   1.375   7.993   4.616  0.0479 -0.8498 -0.3212
85475SOL     OW74034  12.759   5.454   7.434  0.7591 -0.1698 -0.0971
85475SOL    HW174035  12.744   5.511   7.358  0.7193 -1.6120 -1.2124
85475SOL    HW274036  12.854   5.456   7.446  0.6747  1.0065  0.6187
85476SOL     OW74037  13.949  11.970   7.415 -0.4005 -0.2230 -0.1714
85476SOL    HW174038  13.967  12.031   7.343 -2.0461 -0.6441 -0.9720
85476SOL    HW274039  13.992  11.889   7.388 -0.6678 -0.2594 -0.4991
85477SOL     OW74040   3.231  10.765  10.788  0.2036 -0.4503 -0.4731
85477SOL    HW174041   3.265  10.713  10.861 -1.0679 -0.5071  0.1041
85477SOL    HW274042   3.185  10.702  10.733 -0.2642 -0.1487 -0.4351
85478SOL     OW74043  11.105   8.395  10.384  0.5491  0.8606  0.0221
85478SOL    HW174044  11.155   8.322  10.421  0.0213  0.3853 -0.1985
85478SOL    HW274045  11.171   8.461  10.364  1.0295  0.4517  0.2429
85479SOL     OW74046   7.813   6.774   4.258 -0.6159  0.0962 -0.2963
85479SOL    HW174047   7.875   6.742   4.193  1.5937  0.0125  1.7072
85479SOL    HW274048   7.775   6.694   4.296 -1.4010  0.1320 -0.9704
85480SOL     OW74049   8.085  11.868   3.878  0.2914  0.1612 -0.2385
85480SOL    HW174050   8.023  11.848   3.808 -0.6220  0.6708  0.3936
85480SOL    HW274051   8.053  11.818   3.953  0.6004  0.4847  0.1125
85481SOL     OW74052  10.257   9.747  11.667 -0.1500  0.0696  0.2861
85481SOL    HW174053  10.227   9.836  11.648 -2.4411 -0.4787  1.0648
85481SOL    HW274054  10.177   9.698  11.684  1.1247 -1.9532  0.7211
85482SOL     OW74055   1.167   6.540   1.616 -0.0250  0.4801  0.0532
85482SOL    HW174056   1.077   6.559   1.590 -0.1760  0.0290  0.2440
85482SOL    HW274057   1.204   6.626   1.638 -0.5193  0.6263  0.3260
85483SOL     OW74058   0.755   5.719   9.593 -0.0735 -0.3448 -0.2378
85483SOL    HW174059   0.707   5.802   9.583  2.2525  1.1608  0.2097
85483SOL    HW274060   0.802   5.710   9.510 -0.9398 -1.7255 -0.6132
85484SOL     OW74061   2.913   8.965   2.672 -0.1477  0.1958 -0.6220
85484SOL    HW174062   3.005   8.941   2.687 -0.3432  1.0407  2.6436
85484SOL    HW274063   2.865   8.913   2.736 -1.9191  0.3497 -1.7681
85485SOL     OW74064   1.438   3.127   5.234  0.2593  0.3538 -0.0189
85485SOL    HW174065   1.466   3.208   5.191  1.5606  0.6829  1.3612
85485SOL    HW274066   1.428   3.151   5.326 -3.4672 -0.0595 -0.1501
85486SOL     OW74067   6.875   9.268   3.232 -0.3244 -0.7240 -0.2647
85486SOL    HW174068   6.853   9.230   3.317  0.5371  0.5081  0.5387
85486SOL    HW274069   6.872   9.363   3.247 -0.8341 -0.4747 -1.7922
85487SOL     OW74070   7.227  12.707  11.320  0.3767 -0.4808  0.4226
85487SOL    HW174071   7.154  12.666  11.274  1.2988 -0.9346 -0.6804
85487SOL    HW274072   7.293  12.638  11.327  1.8582  0.6773 -1.2487
85488SOL     OW74073   1.996   6.876   2.334 -0.1736  0.1487  0.3609
85488SOL    HW174074   1.985   6.961   2.376 -0.7821  0.4282 -0.3483
85488SOL    HW274075   2.052   6.893   2.259  1.0314 -0.3764  1.1003
85489SOL     OW74076   8.300   9.799  11.331  0.0781 -0.5305 -0.5676
85489SOL    HW174077   8.358   9.781  11.405  1.9402 -0.0344 -1.8591
85489SOL    HW274078   8.228   9.850  11.369  0.7404 -0.6815  0.9654
85490SOL     OW74079  13.405   2.958  12.976 -0.1898 -0.4120  0.0090
85490SOL    HW174080  13.393   2.904  12.898  0.1632  1.1528 -1.1746
85490SOL    HW274081  13.485   2.925  13.016  0.8216  0.1223 -1.4933
85491SOL     OW74082   2.724  13.926   5.756  0.2152 -0.0457 -0.2337
85491SOL    HW174083   2.669  13.942   5.679  0.6270  1.1186 -0.3158
85491SOL    HW274084   2.806  13.893   5.720  0.4118  0.5091 -0.3164
85492SOL     OW74085   1.365   1.529   8.500 -0.4452  0.3752 -0.2787
85492SOL    HW174086   1.321   1.478   8.432  1.2208 -0.4754 -0.7657
85492SOL    HW274087   1.435   1.473   8.531  0.1582  1.5870  0.6561
85493SOL     OW74088   7.509   4.110  12.998 -0.2453 -0.3937  0.1690
85493SOL    HW174089   7.539   4.049  12.930 -1.9220 -0.5852 -0.4406
85493SOL    HW274090   7.479   4.054  13.069 -0.0211 -0.2240  0.4003
85494SOL     OW74091  13.164   8.230   5.060 -0.0528 -0.9859  0.4062
85494SOL    HW174092  13.105   8.286   5.109  1.2870  1.6663 -0.7632
85494SOL    HW274093  13.244   8.227   5.113  0.0515 -1.4213  0.2312
85495SOL     OW74094   5.258   2.019   0.295  0.0962  0.3187 -0.1167
85495SOL    HW174095   5.229   2.094   0.346 -2.2918 -1.2007  0.9736
85495SOL    HW274096   5.185   2.000   0.237 -0.1679 -2.1557  0.8868
85496SOL     OW74097   0.619  11.168   0.497  0.1942 -0.0925  0.0691
85496SOL    HW174098   0.652  11.128   0.577  1.0738  0.0806 -0.1968
85496SOL    HW274099   0.541  11.118   0.476 -0.1606 -0.0269  1.1331
85497SOL     OW74100   4.120   8.830  10.631  0.1691 -0.0635 -0.5328
85497SOL    HW174101   4.127   8.915  10.673 -0.4028 -0.0074 -0.5369
85497SOL    HW274102   4.191   8.828  10.568 -1.0274  1.2573 -1.9979
85498SOL     OW74103   6.490   7.107   4.315  0.4851  0.0829 -0.0028
85498SOL    HW174104   6.532   7.100   4.229  1.3595  4.5631 -0.1866
85498SOL    HW274105   6.406   7.150   4.297  0.3174  0.3283  1.3069
85499SOL     OW74106  12.514   7.401   2.537 -0.6821  0.0905  0.4195
85499SOL    HW174107  12.563   7.320   2.553 -1.5573 -0.6430 -0.5274
85499SOL    HW274108  12.563   7.467   2.586  0.4116 -0.8813  0.7083
85500SOL     OW74109   0.875  13.165   8.023 -0.3587  0.3630 -0.3880
85500SOL    HW174110   0.825  13.244   8.044  1.4433  1.1749  1.0976
85500SOL    HW274111   0.934  13.191   7.953  1.4186  0.8871  1.2334
85501SOL     OW74112   2.360   1.074   4.265  0.3409 -0.3209  0.3038
85501SOL    HW174113   2.455   1.088   4.261  0.5806 -1.9366 -0.2903
85501SOL    HW274114   2.323   1.155   4.231  1.5262  0.1052 -0.0446
85502SOL     OW74115  10.765   1.736   5.828  0.2706  0.4791  0.1195
85502SOL    HW174116  10.859   1.734   5.812  0.1032 -0.3895 -0.8731
85502SOL    HW274117  10.726   1.753   5.742 -0.5220 -0.4264  0.2803
85503SOL     OW74118   8.199  10.750  13.316  0.4476  0.2310 -0.3928
85503SOL    HW174119   8.219  10.657  13.306  1.6570  0.6425 -2.4284
85503SOL    HW274120   8.278  10.795  13.284 -0.5620  1.9558 -0.5681
85504SOL     OW74121   8.926   9.311  12.818 -0.7479 -0.0924 -0.7465
85504SOL    HW174122   8.980   9.245  12.861 -1.8925  0.7940  2.3918
85504SOL    HW274123   8.864   9.262  12.766 -0.2015 -1.3738 -0.2252
85505SOL     OW74124  11.252   3.869   9.497  0.4774 -0.0000 -0.6967
85505SOL    HW174125  11.196   3.871   9.575  2.5279  0.6045  0.8659
85505SOL    HW274126  11.244   3.780   9.464  1.0547 -0.9105  1.4288
85506SOL     OW74127   6.840   6.361   4.494 -0.2774  0.9679  0.1078
85506SOL    HW174128   6.877   6.347   4.581  2.2330  0.8216 -0.9154
85506SOL    HW274129   6.820   6.273   4.461 -1.2279  1.0231  0.4991
85507SOL     OW74130   0.154   3.522   4.290 -0.0138  0.2903  0.4440
85507SOL    HW174131   0.216   3.581   4.248 -0.9028  1.1856  0.3466
85507SOL    HW274132   0.089   3.580   4.329  0.6372 -0.4906  2.8708
85508SOL     OW74133   7.075  12.796   7.116 -0.4227 -0.1864  0.0729
85508SOL    HW174134   7.007  12.836   7.061 -1.5404  0.7461  2.0466
85508SOL    HW274135   7.155  12.842   7.090 -0.6512 -0.7298 -1.7139
85509SOL     OW74136   3.086   9.055   6.338  0.2239 -0.4066 -0.0954
85509SOL    HW174137   3.115   9.146   6.338  1.4223 -0.7563 -1.7363
85509SOL    HW274138   3.146   9.011   6.398  0.3007 -0.3213 -0.1099
85510SOL     OW74139  13.550   9.222   7.005 -0.7615  0.0911  0.7216
85510SOL    HW174140  13.489   9.270   7.062  2.6384  2.9043  2.3677
85510SOL    HW274141  13.561   9.279   6.929  0.6729  0.2738  1.0410
85511SOL     OW74142  10.326   4.485   4.315 -0.4795 -0.1545  0.6892
85511SOL    HW174143  10.336   4.457   4.406 -0.6246 -1.1614  0.4083
85511SOL    HW274144  10.329   4.404   4.264 -0.6371  0.3713 -0.1872
85512SOL     OW74145  12.945   0.749   9.901 -0.4461 -0.4118  0.0377
85512SOL    HW174146  12.859   0.756   9.859  0.5581  2.4962 -1.8278
85512SOL    HW274147  12.941   0.810   9.975  0.2619  0.3939 -0.5755
85513SOL     OW74148   7.351   1.645   6.806 -0.0374  0.0127  0.0742
85513SOL    HW174149   7.337   1.554   6.832  2.2971 -1.0854 -2.1278
85513SOL    HW274150   7.277   1.664   6.747 -0.8406 -0.2254  0.9750
85514SOL     OW74151   7.964   8.410   3.975 -0.4478 -0.5144 -0.3110
85514SOL    HW174152   8.033   8.477   3.984  0.3806 -0.9921 -2.4876
85514SOL    HW274153   7.922   8.430   3.892 -3.0069 -0.2633  0.9450
85515SOL     OW74154   1.101   2.460   4.158 -0.1491 -0.2861  0.1555
85515SOL    HW174155   1.168   2.406   4.118  0.1542 -0.3485  0.7332
85515SOL    HW274156   1.141   2.547   4.164 -0.3496 -0.1775 -0.0670
85516SOL     OW74157   0.210   9.548   0.829  0.0620 -0.6057  0.1715
85516SOL    HW174158   0.205   9.464   0.876  0.6101  0.0596  1.4651
85516SOL    HW274159   0.169   9.530   0.744  0.7470 -2.3538  0.1680
85517SOL     OW74160   7.635  12.275   1.368 -0.5651  0.3754 -0.2738
85517SOL    HW174161   7.595  12.251   1.452 -0.0679  3.3833  0.9146
85517SOL    HW274162   7.577  12.342   1.333  0.7424  1.1820 -0.9461
85518SOL     OW74163   6.588   4.968   1.615 -0.2282  0.0712  0.0797
85518SOL    HW174164   6.569   4.888   1.567  0.1732 -0.3534  0.6214
85518SOL    HW274165   6.678   4.957   1.647 -0.2983  0.5756  0.4712
85519SOL     OW74166  12.005   2.840   5.524 -0.0763  0.2790 -0.1872
85519SOL    HW174167  11.937   2.780   5.555 -0.1460  1.1125  1.4080
85519SOL    HW274168  12.081   2.785   5.507  0.7868 -0.1435  3.8919
85520SOL     OW74169   6.759  10.340  12.230 -0.3135 -0.0849 -0.6737
85520SOL    HW174170   6.832  10.398  12.207 -1.3214  1.6327  0.1932
85520SOL    HW274171   6.797  10.276  12.289  0.5473  0.6965 -0.3492
85521SOL     OW74172  14.062  12.831  12.861  0.0292  0.3595 -0.3568
85521SOL    HW174173  13.976  12.873  12.870 -0.1829 -0.1486  0.0217
85521SOL    HW274174  14.111  12.889  12.803 -0.3786  0.9497 -0.1197
85522SOL     OW74175   7.290   7.277   2.529 -0.3735 -0.1724  0.3123
85522SOL    HW174176   7.333   7.351   2.572 -0.4166  0.1620 -0.2170
85522SOL    HW274177   7.197   7.294   2.539 -0.4137  0.7101 -1.2334
85523SOL     OW74178  13.373   6.265  12.933 -0.0536 -0.2671  0.0976
85523SOL    HW174179  13.465   6.236  12.936  0.5051  1.4908  1.8168
85523SOL    HW274180  13.323   6.185  12.947  1.3236 -0.8966  1.7961
85524SOL     OW74181   2.276  12.236   8.686  0.2840 -0.4131 -0.4144
85524SOL    HW174182   2.248  12.171   8.750  0.7164  0.4268  0.6479
85524SOL    HW274183   2.336  12.189   8.628  0.8278 -0.8782  0.5215
85525SOL     OW74184   7.357  10.988   6.439 -0.1758 -0.0006 -0.0728
85525SOL    HW174185   7.271  10.978   6.398  0.6904  1.2233 -2.3455
85525SOL    HW274186   7.419  10.982   6.366  1.5292  1.2544  1.2059
85526SOL     OW74187   7.427   6.521  13.316  0.2101 -0.2569  0.5784
85526SOL    HW174188   7.363   6.524  13.387 -0.5971  0.2540 -0.1354
85526SOL    HW274189   7.445   6.613  13.296  0.9322 -0.3989  0.5522
85527SOL     OW74190   9.143   0.592   2.273  0.2863  0.0369  0.6483
85527SOL    HW174191   9.142   0.673   2.223 -0.4650 -1.3925 -1.8228
85527SOL    HW274192   9.060   0.592   2.321 -1.2648 -0.6264 -1.8436
85528SOL     OW74193  11.335   2.767   4.893  0.1940 -0.4524  0.0767
85528SOL    HW174194  11.316   2.771   4.987  0.5100  1.5066  0.1020
85528SOL    HW274195  11.409   2.827   4.881  1.4788 -2.1670 -1.1568
85529SOL     OW74196  11.821   1.329   2.809  0.4762  0.3940 -0.2326
85529SOL    HW174197  11.825   1.347   2.715  1.6981  0.3432 -0.2034
85529SOL    HW274198  11.750   1.265   2.818 -0.5505  1.3784 -0.9412
85530SOL     OW74199   2.601   9.375   1.937  0.4145  0.0219 -0.3086
85530SOL    HW174200   2.580   9.452   1.991  0.9025 -0.3381  0.4001
85530SOL    HW274201   2.673   9.404   1.881 -0.4194  0.5505 -1.1370
85531SOL     OW74202   5.959   4.829   1.569 -0.2295  0.1349  0.0302
85531SOL    HW174203   6.000   4.898   1.621 -1.8227 -0.1666  1.7562
85531SOL    HW274204   5.876   4.867   1.540 -0.6037 -0.6587  0.0340
85532SOL     OW74205   4.677   3.673   4.006  0.1366 -0.3632 -0.0587
85532SOL    HW174206   4.719   3.596   3.968 -1.4640 -0.7011 -1.2776
85532SOL    HW274207   4.593   3.641   4.038 -1.2343  1.0661 -1.9552
85533SOL     OW74208   6.549   4.233  11.596 -0.2985  0.0027 -0.4211
85533SOL    HW174209   6.545   4.305  11.533  0.3431 -1.4527 -2.2275
85533SOL    HW274210   6.476   4.248  11.655 -0.1488  2.1441 -0.7203
85534SOL     OW74211  13.240  10.613  11.277  0.4444 -0.2549  0.1810
85534SOL    HW174212  13.263  10.592  11.187 -1.3966  0.0564 -0.3984
85534SOL    HW274213  13.247  10.709  11.282  0.9584 -0.3038  0.5056
85535SOL     OW74214   1.390   7.803   8.484 -0.6807 -0.1411 -0.2121
85535SOL    HW174215   1.390   7.826   8.576 -0.7204 -0.9762  0.0092
85535SOL    HW274216   1.482   7.806   8.458 -0.4322 -1.6970  0.3495
85536SOL     OW74217  10.389   6.202   0.288  0.6514 -0.1635 -0.1657
85536SOL    HW174218  10.436   6.286   0.285  1.9168 -0.8674 -0.3818
85536SOL    HW274219  10.330   6.206   0.213  0.9309  0.4089 -0.3659
85537SOL     OW74220  11.372  13.611   0.293  0.5583  0.4016  1.0455
85537SOL    HW174221  11.333  13.641   0.376  1.3634  1.1878  1.1487
85537SOL    HW274222  11.442  13.551   0.320 -1.0029 -1.6162  0.8441
85538SOL     OW74223   2.979   3.835   3.412 -0.3553  0.1724  0.4147
85538SOL    HW174224   2.955   3.764   3.352 -0.1102 -0.0601  0.5839
85538SOL    HW274225   3.018   3.902   3.356 -1.5583  0.6381  0.1148
85539SOL     OW74226  13.623   6.321   4.352  0.4364  0.3222  0.1051
85539SOL    HW174227  13.644   6.397   4.405 -0.2856  1.1855 -0.8196
85539SOL    HW274228  13.702   6.267   4.355  0.3775  0.2713  2.1264
85540SOL     OW74229   4.836  11.815  10.503 -0.0604  0.1662 -0.2012
85540SOL    HW174230   4.905  11.809  10.438 -1.5930 -0.6426 -1.8573
85540SOL    HW274231   4.795  11.900  10.488  0.0714  0.3042  0.2236
85541SOL     OW74232   1.079  12.165   5.410 -0.1863  0.3439  0.1466
85541SOL    HW174233   1.076  12.083   5.459  0.5861  0.4539  0.3840
85541SOL    HW274234   1.107  12.230   5.474  0.1077  0.6219 -0.2628
85542SOL     OW74235   4.687  10.417   9.180  0.3294  1.0364 -0.4812
85542SOL    HW174236   4.729  10.500   9.157 -1.1278  2.6011  1.9150
85542SOL    HW274237   4.667  10.426   9.273  0.0761 -2.0459 -0.1366
85543SOL     OW74238   0.306   3.334   2.811 -0.3109  0.2442 -0.1116
85543SOL    HW174239   0.227   3.360   2.859  0.4865  1.0828  0.7900
85543SOL    HW274240   0.347   3.270   2.869  0.2313  0.6412 -0.0546
85544SOL     OW74241  11.365   6.157   2.460  0.1297  0.3459  0.0934
85544SOL    HW174242  11.357   6.230   2.522  0.3068  0.8332 -0.4513
85544SOL    HW274243  11.459   6.137   2.459  0.4332  1.6167 -1.4415
85545SOL     OW74244  11.889  12.126   5.479 -0.4397 -0.1607  0.6151
85545SOL    HW174245  11.959  12.155   5.420 -0.2236  0.3816  1.1276
85545SOL    HW274246  11.857  12.045   5.440 -1.1286  0.8013 -0.9063
85546SOL     OW74247   5.443   9.182   1.758  0.1789  0.0914  0.2254
85546SOL    HW174248   5.459   9.103   1.810 -1.6292  0.5262  1.5123
85546SOL    HW274249   5.427   9.149   1.669 -1.6000 -1.1324  0.9411
85547SOL     OW74250  12.454   0.413   5.628 -0.1385  0.1482  0.4895
85547SOL    HW174251  12.548   0.412   5.614 -0.2150  0.8200 -0.1222
85547SOL    HW274252  12.418   0.362   5.555 -0.2079 -0.8196  1.1769
85548SOL     OW74253  11.836  12.641  10.518  0.0897  0.6955 -0.1911
85548SOL    HW174254  11.894  12.654  10.443 -1.1098 -1.6387 -1.6584
85548SOL    HW274255  11.777  12.717  10.517  0.4465  0.9734 -1.2746
85549SOL     OW74256  13.114   1.140   9.830 -0.3963 -0.5196  0.7446
85549SOL    HW174257  13.093   1.143   9.923  0.4751  0.0040  0.9303
85549SOL    HW274258  13.144   1.050   9.815  2.4428  0.1880  1.6570
85550SOL     OW74259   1.859   1.858  10.901  0.5706  0.6776  0.2778
85550SOL    HW174260   1.765   1.853  10.921  0.4359  1.6453 -0.0897
85550SOL    HW274261   1.880   1.771  10.868  0.2945 -0.2651  2.3679
85551SOL     OW74262  13.648  10.613  11.803 -0.0533  0.3236 -0.3247
85551SOL    HW174263  13.662  10.528  11.762  1.1050  0.9586 -1.3308
85551SOL    HW274264  13.593  10.661  11.741  1.9146  1.3780 -1.3728
85552SOL     OW74265   3.080  13.041   9.807 -0.6719 -0.5314  0.6704
85552SOL    HW174266   3.092  12.981   9.734 -1.5978 -0.7584  0.6881
85552SOL    HW274267   3.159  13.031   9.861  0.2078 -0.0506 -0.4994
85553SOL     OW74268  10.152   2.285   9.322  0.0399 -0.4554 -0.2707
85553SOL    HW174269  10.236   2.331   9.312  0.1571 -0.8599 -1.2385
85553SOL    HW274270  10.114   2.322   9.402  1.3144 -0.5471  0.3938
85554SOL     OW74271  11.755   8.602  13.157 -0.3499 -0.1623 -0.6970
85554SOL    HW174272  11.709   8.605  13.074 -0.5633 -0.4115 -0.5920
85554SOL    HW274273  11.686   8.602  13.223 -0.3566 -3.1569 -0.5783
85555SOL     OW74274   2.614   5.101  14.005 -0.4134 -0.0142 -0.6135
85555SOL    HW174275   2.523   5.099  13.975 -0.7635  0.0071  0.4066
85555SOL    HW274276   2.623   5.024  14.061 -0.2919  0.8674  0.6231
85556SOL     OW74277   8.134   2.740   2.851 -0.1297 -0.1139  0.4993
85556SOL    HW174278   8.061   2.720   2.793  1.5501 -1.7980 -1.1567
85556SOL    HW274279   8.121   2.681   2.926  0.4276 -1.7213 -0.6167
85557SOL     OW74280   0.812  10.353   3.927 -0.2658  0.5272  0.1545
85557SOL    HW174281   0.878  10.299   3.971 -0.8465  0.3982  0.8922
85557SOL    HW274282   0.790  10.421   3.991 -1.9252 -0.2999  0.5271
85558SOL     OW74283   3.690   1.938   8.341  0.3001  0.1900 -0.0836
85558SOL    HW174284   3.639   1.947   8.422  0.0006 -0.0558 -0.2389
85558SOL    HW274285   3.719   2.026   8.320 -0.7096  0.4582 -0.4024
85559SOL     OW74286   6.664  13.283   6.251 -0.4964  0.6135 -0.1602
85559SOL    HW174287   6.737  13.331   6.211  0.3010  2.1027  2.8052
85559SOL    HW274288   6.695  13.192   6.254  0.0569  0.7432 -1.4199
85560SOL     OW74289   3.976   5.595   4.848 -1.1377 -0.3098  0.1284
85560SOL    HW174290   3.936   5.582   4.934 -2.4833 -0.2460 -0.4587
85560SOL    HW274291   3.933   5.531   4.792  0.5519 -1.1525 -0.2738
85561SOL     OW74292   6.382   1.603   6.549 -0.0883 -0.0511 -0.1244
85561SOL    HW174293   6.290   1.628   6.540 -0.5695 -1.6023  0.2310
85561SOL    HW274294   6.400   1.610   6.642 -0.3886 -1.4747  0.0601
85562SOL     OW74295   9.541   5.497   3.995 -0.4919 -0.0963  0.0033
85562SOL    HW174296   9.500   5.518   3.912 -0.1332 -1.6358 -0.6038
85562SOL    HW274297   9.486   5.538   4.061 -1.0257  0.7719 -0.9704
85563SOL     OW74298  10.048   1.552   2.821  0.3935 -0.6329  0.5306
85563SOL    HW174299  10.012   1.508   2.744 -0.8157  1.2733 -0.0666
85563SOL    HW274300  10.120   1.605   2.786 -2.3153  3.0548 -0.1621
85564SOL     OW74301   6.392   5.787  14.069  0.4953  0.6725  0.5127
85564SOL    HW174302   6.303   5.752  14.075  0.2762  1.3278  1.3462
85564SOL    HW274303   6.387   5.857  14.005  0.0919  1.5942  1.5268
85565SOL     OW74304  12.235   2.338   7.821  0.2185 -1.0602 -0.0778
85565SOL    HW174305  12.231   2.416   7.767  1.3006 -0.6288  0.4293
85565SOL    HW274306  12.146   2.304   7.822  0.2129 -1.2108 -2.2983
85566SOL     OW74307  14.088  12.657   8.611 -0.5309 -0.1663  0.1220
85566SOL    HW174308  14.160  12.596   8.627 -0.0310  0.2159 -0.6259
85566SOL    HW274309  14.046  12.625   8.532  1.0359  1.5855 -1.5307
85567SOL     OW74310  12.312   6.279  12.070 -0.1828 -0.4879  0.5438
85567SOL    HW174311  12.319   6.328  12.152  0.6006 -1.0055  0.7943
85567SOL    HW274312  12.335   6.189  12.093  0.5455 -0.5430 -0.3327
85568SOL     OW74313   0.199  13.620   1.319 -0.4438  0.2222 -0.4594
85568SOL    HW174314   0.141  13.583   1.385 -0.7925 -0.7149 -1.2670
85568SOL    HW274315   0.148  13.617   1.238  0.7787 -0.8240 -1.2347
85569SOL     OW74316   7.648   3.618  10.334 -0.3160 -0.2891  0.6433
85569SOL    HW174317   7.586   3.631  10.263 -0.6029 -0.9704  0.7618
85569SOL    HW274318   7.729   3.589  10.291  0.0218  0.8503  0.4663
85570SOL     OW74319   6.239  12.986   1.421  0.0673  0.2350  0.3151
85570SOL    HW174320   6.330  12.999   1.447  0.0621 -0.0924  0.5048
85570SOL    HW274321   6.208  13.073   1.397  0.1149  0.5343  1.2959
85571SOL     OW74322   4.352   1.079  14.010 -0.1139  0.1265 -0.0752
85571SOL    HW174323   4.353   1.169  14.041 -0.4322  0.6525 -1.4911
85571SOL    HW274324   4.264   1.048  14.030 -0.1789  0.3178 -0.0614
85572SOL     OW74325   4.114   5.945   1.419 -0.0315  0.1735  0.7634
85572SOL    HW174326   4.053   6.015   1.441 -0.3777  0.8607 -2.0950
85572SOL    HW274327   4.058   5.874   1.385  0.6358  0.5200 -1.1614
85573SOL     OW74328   9.057   3.088   6.739 -0.1863  0.0203  0.2062
85573SOL    HW174329   9.063   3.149   6.813  0.4094 -0.1801  0.3303
85573SOL    HW274330   9.143   3.046   6.735 -0.3945 -0.3816 -0.2523
85574SOL     OW74331   4.847   4.560  11.156  0.1083 -0.0882 -0.0069
85574SOL    HW174332   4.928   4.514  11.132  1.2211  1.1323  1.2502
85574SOL    HW274333   4.876   4.644  11.190 -1.7645  0.7224 -0.2754
85575SOL     OW74334   2.638   9.879  14.048 -0.0376 -0.8328  0.1006
85575SOL    HW174335   2.586   9.925  13.982 -0.6783  0.0847  1.2043
85575SOL    HW274336   2.616   9.787  14.036  0.6762 -0.8078 -1.6464
85576SOL     OW74337  10.352  13.896   8.985 -0.0585 -0.2307 -0.5437
85576SOL    HW174338  10.355  13.974   8.929 -1.1765 -0.5096 -1.0369
85576SOL    HW274339  10.274  13.908   9.039  0.4311 -0.4581  0.2308
85577SOL     OW74340  13.181  13.135   0.419 -0.4349 -0.8110 -0.0019
85577SOL    HW174341  13.139  13.221   0.421 -0.6310 -0.8964 -0.3422
85577SOL    HW274342  13.230  13.133   0.337 -0.5512 -1.0770 -0.0673
85578SOL     OW74343   4.863  12.911   0.670  0.4860  0.1228 -0.5390
85578SOL    HW174344   4.871  12.960   0.752  1.0492 -0.6964 -0.0856
85578SOL    HW274345   4.773  12.925   0.642 -0.5822 -1.7099  1.6319
85579SOL     OW74346   4.696   5.967  13.597 -0.0154  0.1246 -0.4618
85579SOL    HW174347   4.704   5.932  13.685  0.7277  0.2763 -0.4667
85579SOL    HW274348   4.618   5.924  13.561  1.1555 -1.9573 -0.6631
85580SOL     OW74349   1.005   4.784   3.284 -0.2186  0.2265 -0.1763
85580SOL    HW174350   0.998   4.689   3.271 -1.7497  0.4164 -0.9882
85580SOL    HW274351   0.998   4.820   3.196  1.6010  1.0739 -0.0137
85581SOL     OW74352  10.795   9.772   3.264  0.1078  0.0445  0.3610
85581SOL    HW174353  10.753   9.846   3.219 -1.3238 -0.2023  1.2186
85581SOL    HW274354  10.885   9.800   3.278 -0.6377  2.0725  1.5719
85582SOL     OW74355   4.985  12.698   0.282 -0.2061  1.1478 -0.1086
85582SOL    HW174356   5.025  12.779   0.314  0.8113  0.9523 -0.8215
85582SOL    HW274357   5.010  12.632   0.347 -1.7999  1.5418  0.9610
85583SOL     OW74358   3.201   0.721   0.833 -0.0583 -0.4590  0.3559
85583SOL    HW174359   3.168   0.632   0.831  2.1562 -1.3674  1.0437
85583SOL    HW274360   3.160   0.764   0.757  0.7741 -2.8042 -1.5482
85584SOL     OW74361  12.450  11.325   8.756 -0.0274  0.2379 -0.9822
85584SOL    HW174362  12.480  11.389   8.821  1.3587  0.3555 -1.6970
85584SOL    HW274363  12.358  11.347   8.742  0.2345  1.6342 -0.6932
85585SOL     OW74364   2.187   4.615   6.534  0.6594 -0.6457 -0.0238
85585SOL    HW174365   2.213   4.531   6.495 -1.1895 -1.3177  0.0470
85585SOL    HW274366   2.184   4.597   6.628 -0.2934 -0.7017 -0.0512
85586SOL     OW74367  12.575   6.979   4.272  0.2731  0.6290  0.5892
85586SOL    HW174368  12.553   7.065   4.306 -1.5597  0.2281  0.5299
85586SOL    HW274369  12.571   6.921   4.348  2.1243  0.6774  0.7458
85587SOL     OW74370   0.664   7.580   7.238 -0.0608 -0.8549 -0.3055
85587SOL    HW174371   0.688   7.494   7.204 -2.2028 -0.7487 -2.3186
85587SOL    HW274372   0.675   7.639   7.163  0.3167  0.4581  0.7400
85588SOL     OW74373   5.142   2.732   1.810  0.0495  0.0882 -0.3068
85588SOL    HW174374   5.140   2.823   1.782  0.2413 -0.8012 -3.7179
85588SOL    HW274375   5.050   2.710   1.827 -0.4622  0.1680 -2.6214
85589SOL     OW74376   6.214   8.828   7.087  0.1595 -0.1289 -0.1226
85589SOL    HW174377   6.213   8.852   7.180 -0.1842  0.8107 -0.3566
85589SOL    HW274378   6.140   8.876   7.049 -0.1296 -1.0478 -0.7551
85590SOL     OW74379   9.662   2.362   2.073 -0.1209 -0.1617 -0.4087
85590SOL    HW174380   9.666   2.351   1.978  1.0127  1.7963 -0.6454
85590SOL    HW274381   9.584   2.314   2.100 -2.1593  1.6160 -2.7252
85591SOL     OW74382  13.603   9.153  13.095  0.5817 -0.0988 -0.3541
85591SOL    HW174383  13.586   9.096  13.021  2.5504  1.7155 -2.3461
85591SOL    HW274384  13.618   9.093  13.169 -1.4791 -1.9541 -1.3298
85592SOL     OW74385   3.062   4.310  13.480 -0.5940  0.0304  0.4129
85592SOL    HW174386   3.150   4.341  13.502 -0.8281  2.2614 -1.3695
85592SOL    HW274387   3.006   4.352  13.544 -0.4013 -1.5148  1.6451
85593SOL     OW74388   4.911  12.412   1.953 -0.5014  0.0693  0.6451
85593SOL    HW174389   4.988  12.361   1.978  0.7542  1.6759  0.2257
85593SOL    HW274390   4.880  12.371   1.872  0.2016 -0.3128  0.5675
85594SOL     OW74391   2.534   0.896   8.398  0.1019  0.1056 -0.1821
85594SOL    HW174392   2.506   0.854   8.316  2.5712  0.4708 -1.3149
85594SOL    HW274393   2.588   0.829   8.441  4.4447  1.9209 -2.2060
85595SOL     OW74394   0.598   7.892   2.406 -0.7153  0.6287 -0.1920
85595SOL    HW174395   0.521   7.886   2.462  0.6253  1.9395  1.9254
85595SOL    HW274396   0.637   7.804   2.409 -0.0377  0.9559  1.9583
85596SOL     OW74397  14.048   3.797   1.685  0.3943 -0.2342 -0.2352
85596SOL    HW174398  14.126   3.832   1.727 -0.5631  0.4838  1.0315
85596SOL    HW274399  14.019   3.726   1.743 -0.8163  0.6149  0.2491
85597SOL     OW74400   0.182   7.498   2.469 -0.5709  0.1042 -0.0654
85597SOL    HW174401   0.092   7.520   2.493 -0.5596 -0.0464  0.1219
85597SOL    HW274402   0.174   7.442   2.392 -0.6063  0.6316 -0.4547
85598SOL     OW74403   8.192   0.376   3.814 -0.3139  0.3199  0.1538
85598SOL    HW174404   8.130   0.307   3.790 -0.5442  0.2233  0.9889
85598SOL    HW274405   8.254   0.380   3.741 -2.0325  1.3004 -1.3612
85599SOL     OW74406   2.461   0.090   6.475  0.8188  0.2438  0.2825
85599SOL    HW174407   2.408   0.086   6.554 -0.6746 -0.3090 -0.7160
85599SOL    HW274408   2.443   0.177   6.438 -1.0948 -0.7275 -1.1708
85600SOL     OW74409   3.550   3.882   2.667 -0.8775  0.0634 -0.0388
85600SOL    HW174410   3.518   3.951   2.608 -0.4733 -0.3229 -0.7257
85600SOL    HW274411   3.635   3.914   2.697 -0.7779 -0.0445 -0.2037
85601SOL     OW74412   5.956  12.554  10.912 -0.0920  0.5410  0.4992
85601SOL    HW174413   5.871  12.566  10.869  0.6850 -0.4454 -1.4650
85601SOL    HW274414   5.948  12.472  10.961 -0.3767  0.6253  0.5947
85602SOL     OW74415   0.540   6.123   2.406  0.0477 -0.4044 -0.0662
85602SOL    HW174416   0.576   6.115   2.317  1.5168  1.1785  0.3400
85602SOL    HW274417   0.587   6.057   2.457 -1.4297 -1.9384 -0.5887
85603SOL     OW74418   4.049  12.110   8.080 -0.5779  0.0395 -0.3046
85603SOL    HW174419   4.137  12.090   8.048 -0.6591 -0.4547 -0.2184
85603SOL    HW274420   4.056  12.200   8.111  0.0154 -0.1460  0.1220
85604SOL     OW74421   1.662   4.299  10.860  0.0081 -0.9690  0.0949
85604SOL    HW174422   1.734   4.250  10.821  0.9328 -0.0467  0.6192
85604SOL    HW274423   1.703   4.360  10.921 -1.1901 -0.2405  0.2186
85605SOL     OW74424  13.445   7.431   4.711 -0.3079 -0.3776  0.0635
85605SOL    HW174425  13.429   7.428   4.805 -0.7998 -0.9341 -0.0298
85605SOL    HW274426  13.515   7.368   4.696 -0.7590 -0.8533 -0.0432
85606SOL     OW74427   8.636   9.103   3.299 -0.2010  0.2569 -0.0741
85606SOL    HW174428   8.669   9.076   3.385  0.7710 -0.9418 -0.7883
85606SOL    HW274429   8.604   9.192   3.312  1.4716  0.7205  1.1411
85607SOL     OW74430   9.931   0.031   8.656 -0.5248  0.2606 -0.1778
85607SOL    HW174431   9.847   0.069   8.629 -1.1533  0.3813  1.8142
85607SOL    HW274432   9.934   0.045   8.750  1.2524 -0.7410 -0.0536
85608SOL     OW74433  12.451   0.802   1.852 -0.0934  0.9601 -0.1659
85608SOL    HW174434  12.460   0.896   1.841  0.6776  1.2178  2.1323
85608SOL    HW274435  12.376   0.792   1.912  0.2371  0.1702  0.1315
85609SOL     OW74436  11.425  10.364   6.976  0.2537 -0.3109 -0.2968
85609SOL    HW174437  11.330  10.362   6.974  0.2653 -0.8678 -0.6901
85609SOL    HW274438  11.449  10.314   7.054  0.2215  0.1127 -0.0124
85610SOL     OW74439   3.307   7.188   7.107  0.7049 -0.5853 -0.4800
85610SOL    HW174440   3.236   7.138   7.147  1.9584 -1.0769  1.2604
85610SOL    HW274441   3.375   7.123   7.086  0.7310 -0.1148 -2.0004
85611SOL     OW74442   8.393  11.230   3.774 -0.0699 -0.4891  0.5026
85611SOL    HW174443   8.451  11.216   3.699  0.2511 -1.2519  0.8847
85611SOL    HW274444   8.386  11.325   3.780 -0.4416 -0.4119 -0.7509
85612SOL     OW74445   1.161  11.959   6.925 -0.3184 -0.0220 -0.0731
85612SOL    HW174446   1.114  12.033   6.964 -1.3495 -1.3807  1.3944
85612SOL    HW274447   1.177  11.985   6.834  0.5994  2.5537  0.7432
85613SOL     OW74448   1.766   9.581   9.747  0.2987 -0.1545  0.1161
85613SOL    HW174449   1.706   9.524   9.699 -0.3588  1.4537 -1.0838
85613SOL    HW274450   1.780   9.536   9.830 -0.9695 -1.5581 -0.3700
85614SOL     OW74451   0.748  10.929   5.103  0.2733  0.3364 -0.0214
85614SOL    HW174452   0.691  10.869   5.055  0.8114 -1.0505  1.0269
85614SOL    HW274453   0.833  10.922   5.059  0.4570 -0.0259  0.3887
85615SOL     OW74454   0.078   9.817   4.198 -0.0833 -0.4143  0.0908
85615SOL    HW174455   0.068   9.729   4.162 -0.1682 -0.4960  0.3132
85615SOL    HW274456   0.161   9.815   4.245 -0.8217 -0.8623  1.4622
85616SOL     OW74457   3.307   1.491   5.683  0.1690 -0.0140  0.2107
85616SOL    HW174458   3.309   1.482   5.588 -0.1247  0.6030  0.1389
85616SOL    HW274459   3.330   1.404   5.716  0.9493 -0.0588 -0.4202
85617SOL     OW74460  12.126   2.641  10.615  0.0043 -0.0795 -0.1075
85617SOL    HW174461  12.110   2.637  10.709  0.6094 -1.0856 -0.0231
85617SOL    HW274462  12.214   2.679  10.607 -1.0508  2.4486 -0.4112
85618SOL     OW74463  10.100  12.728   8.395 -0.5615  0.0187  0.6258
85618SOL    HW174464  10.004  12.726   8.398 -0.5367 -0.4142  2.1785
85618SOL    HW274465  10.124  12.660   8.333 -1.2547  0.3409 -0.0165
85619SOL     OW74466   2.323   0.729   9.203 -0.0381  0.1695  0.1916
85619SOL    HW174467   2.381   0.799   9.234  1.4616  0.0060 -2.0300
85619SOL    HW274468   2.326   0.663   9.273  2.0808  0.3950  0.3828
85620SOL     OW74469  10.454  12.978   9.392  0.2898  0.5227 -0.5961
85620SOL    HW174470  10.464  13.063   9.351 -0.3154  0.6320 -0.5169
85620SOL    HW274471  10.544  12.946   9.402  0.7086  2.0468  1.2738
85621SOL     OW74472   9.725   0.104   0.304 -0.4993 -0.2656  0.3431
85621SOL    HW174473   9.726   0.152   0.387 -2.6360  4.3388 -1.9028
85621SOL    HW274474   9.657   0.038   0.315  0.3457 -0.8169  2.6677
85622SOL     OW74475   8.063   6.672  12.947  0.1786 -0.3172  0.8951
85622SOL    HW174476   8.043   6.591  12.900 -0.0068 -0.2598  0.8753
85622SOL    HW274477   7.978   6.713  12.962  0.2899  0.0130  0.6567
85623SOL     OW74478   7.688   6.392  13.812  0.1203  0.4456 -0.3506
85623SOL    HW174479   7.674   6.423  13.901 -1.0596 -0.0363 -0.3461
85623SOL    HW274480   7.683   6.297  13.818 -0.2743  0.4210 -0.9756
85624SOL     OW74481   9.248   1.458  11.812  0.0664 -0.7276 -0.5034
85624SOL    HW174482   9.280   1.378  11.770  0.8261 -0.6556 -0.0681
85624SOL    HW274483   9.327   1.506  11.835 -0.3836  0.2938 -1.0215
85625SOL     OW74484   5.601   3.024  12.936  0.2682  0.1266 -0.1474
85625SOL    HW174485   5.666   3.018  13.007  0.5046  0.0301 -0.3700
85625SOL    HW274486   5.639   2.972  12.865 -0.3710 -0.4964 -0.0371
85626SOL     OW74487   9.989  13.219   9.371 -0.3671  0.2037  0.0001
85626SOL    HW174488   9.909  13.166   9.376  0.0131 -0.4690 -0.9604
85626SOL    HW274489  10.020  13.223   9.462 -0.2363 -1.4763  0.0548
85627SOL     OW74490   2.058   6.546  12.099 -0.2203 -0.2041  0.7897
85627SOL    HW174491   2.061   6.604  12.175  2.5070  0.9251 -0.0520
85627SOL    HW274492   2.146   6.507  12.094 -0.6576 -1.1130 -1.1329
85628SOL     OW74493   0.396   5.649  13.250 -0.5725  0.4572  0.3732
85628SOL    HW174494   0.367   5.696  13.171 -0.8875 -1.7215 -0.8918
85628SOL    HW274495   0.489   5.635  13.235 -0.5065  0.5654  0.6866
85629SOL     OW74496   0.346  12.970   0.288 -0.1168 -0.2430  0.1783
85629SOL    HW174497   0.364  13.045   0.232  0.0307  0.1193  0.7056
85629SOL    HW274498   0.335  12.897   0.227  0.7109  0.0100 -0.2797
85630SOL     OW74499   3.845  11.768  12.476 -0.4381  0.3011  0.0119
85630SOL    HW174500   3.832  11.775  12.381 -1.3289  0.6290  0.1516
85630SOL    HW274501   3.818  11.678  12.497  2.3425 -0.7593 -0.4163
85631SOL     OW74502   0.615   7.321   0.922 -0.3352 -0.3252 -0.5269
85631SOL    HW174503   0.597   7.381   0.850  0.3968  0.0182 -0.4311
85631SOL    HW274504   0.703   7.286   0.904  0.1348  0.2557  0.5197
85632SOL     OW74505   0.729   7.239  14.092  0.4620 -0.0725 -0.7712
85632SOL    HW174506   0.736   7.193  14.009  1.8381 -3.9584  1.2394
85632SOL    HW274507   0.819   7.265  14.113 -0.1879  3.1487 -1.5053
85633SOL     OW74508   4.943   2.021   8.189 -0.0901 -0.1746 -0.2790
85633SOL    HW174509   4.875   2.053   8.131 -0.0037  1.7626  0.6110
85633SOL    HW274510   4.958   2.093   8.251  1.2824 -1.3527  0.8385
85634SOL     OW74511  13.513  10.196   2.419  0.3518  0.0672 -0.2788
85634SOL    HW174512  13.496  10.239   2.503 -0.2910 -0.6131 -0.0489
85634SOL    HW274513  13.591  10.240   2.385  0.8068  0.1498  0.8243
85635SOL     OW74514   4.223   3.823   5.141  0.1718 -0.0044 -0.4871
85635SOL    HW174515   4.237   3.866   5.056 -0.9524 -0.8487 -1.1241
85635SOL    HW274516   4.149   3.869   5.179 -0.8768 -1.1753 -1.0592
85636SOL     OW74517   3.741   1.355   4.375 -0.1796  0.1560 -0.5662
85636SOL    HW174518   3.792   1.424   4.419  1.0643 -1.1545  0.1604
85636SOL    HW274519   3.806   1.307   4.324 -0.4987 -1.9620  0.8762
85637SOL     OW74520   6.837  11.168   8.411  0.1794  0.0448 -0.8759
85637SOL    HW174521   6.799  11.135   8.329 -1.3126  0.5713 -0.4234
85637SOL    HW274522   6.765  11.216   8.453  1.0906  0.2650  0.4744
85638SOL     OW74523   4.731   1.450  13.398 -0.2668  0.0440 -0.6941
85638SOL    HW174524   4.665   1.389  13.431 -1.2291  0.5784 -1.5687
85638SOL    HW274525   4.749   1.508  13.473  0.3572 -1.0346  0.0156
85639SOL     OW74526  12.709   8.691   9.436  0.2790  0.3453 -0.2406
85639SOL    HW174527  12.637   8.628   9.429  1.7972 -1.6589  1.0360
85639SOL    HW274528  12.759   8.679   9.355  1.0279 -0.7549  0.3607
85640SOL     OW74529   5.180   6.424   7.254 -0.4281 -0.2758  0.0527
85640SOL    HW174530   5.122   6.397   7.182  1.1115  1.3647 -1.9446
85640SOL    HW274531   5.266   6.387   7.230  0.1518  0.4773  0.9318
85641SOL     OW74532  10.162   0.352   7.250  0.2868  0.2827 -0.5393
85641SOL    HW174533  10.245   0.400   7.251  0.2690  0.3207 -0.7768
85641SOL    HW274534  10.175   0.282   7.186  0.1142  0.3323 -0.6320
85642SOL     OW74535  13.695  11.306   2.324  0.1947  0.1353 -0.0798
85642SOL    HW174536  13.716  11.298   2.231  2.3567 -1.0394  0.4395
85642SOL    HW274537  13.765  11.361   2.360 -0.1626 -0.0816  0.9773
85643SOL     OW74538   7.986  13.695   1.260 -0.3754 -0.3025 -0.1394
85643SOL    HW174539   7.989  13.640   1.339 -1.9171  0.6237  0.6238
85643SOL    HW274540   7.930  13.647   1.199 -0.6817 -0.1767  0.0402
85644SOL     OW74541   4.640   4.931   0.695  0.1161  0.4031 -0.0260
85644SOL    HW174542   4.587   4.874   0.750  1.1095 -2.2954 -1.6874
85644SOL    HW274543   4.670   5.000   0.755 -2.0292 -0.1306  1.8236
85645SOL     OW74544   8.447   7.263  11.178 -0.5272 -0.0917  0.1802
85645SOL    HW174545   8.435   7.232  11.268 -1.0611  0.5018  0.3204
85645SOL    HW274546   8.358   7.267  11.142 -0.3423 -0.0417 -0.2810
85646SOL     OW74547  12.868   6.609  13.068  0.0213 -0.6609  0.1785
85646SOL    HW174548  12.846   6.653  12.986 -0.9018  0.6760  1.1053
85646SOL    HW274549  12.805   6.537  13.074 -1.6928  0.8053  0.9160
85647SOL     OW74550   3.665   2.832  12.688 -0.1113  0.5793  0.0623
85647SOL    HW174551   3.697   2.914  12.726  0.7776 -0.4564  1.6939
85647SOL    HW274552   3.744   2.781  12.670 -0.6359  0.1818 -1.2057
85648SOL     OW74553   9.744  11.699  10.304  0.3450  0.2496 -0.0853
85648SOL    HW174554   9.667  11.710  10.360  1.7109  0.4091  1.8916
85648SOL    HW274555   9.764  11.787  10.273  0.3190  0.3820  0.2667
85649SOL     OW74556   3.242   2.484   0.838  0.1339 -0.0521 -0.0524
85649SOL    HW174557   3.309   2.506   0.903  0.0345  0.6975 -0.1942
85649SOL    HW274558   3.262   2.541   0.763  0.6664 -1.3804 -0.9608
85650SOL     OW74559   2.473  14.033  12.923 -0.7526 -0.2019 -0.1967
85650SOL    HW174560   2.456  13.975  12.998  3.5811 -2.9681 -0.9500
85650SOL    HW274561   2.441  13.984  12.848 -0.0240 -0.1475 -0.5553
85651SOL     OW74562   5.553  10.131   7.563 -0.1701  0.7917 -0.0815
85651SOL    HW174563   5.615  10.099   7.497 -1.0744 -2.1018  0.3595
85651SOL    HW274564   5.479  10.165   7.513 -0.0962  0.2310 -0.5772
85652SOL     OW74565   3.082   8.524  10.030  0.5374 -0.4799 -0.1129
85652SOL    HW174566   2.994   8.561  10.036  1.1727  0.9930  0.6238
85652SOL    HW274567   3.125   8.551  10.111  2.0850 -0.0583 -1.0400
85653SOL     OW74568   3.424   6.794   5.282  0.3027 -0.0037  0.0449
85653SOL    HW174569   3.478   6.732   5.233  0.5396  0.9424 -0.9461
85653SOL    HW274570   3.487   6.859   5.315  0.1233 -0.5371  1.4959
85654SOL     OW74571  12.021   7.227  11.923 -0.4950  0.1518  0.4582
85654SOL    HW174572  12.091   7.252  11.984 -0.9379  2.4915  0.0806
85654SOL    HW274573  12.067   7.204  11.842 -0.0819 -0.0247  0.7359
85655SOL     OW74574  10.512   7.488   2.385 -0.3010  0.3765 -0.0880
85655SOL    HW174575  10.587   7.453   2.337 -0.0458  0.5008  0.2208
85655SOL    HW274576  10.465   7.411   2.416  0.3627  0.3018  0.7500
85656SOL     OW74577   1.904   4.247  10.098 -0.3314 -0.4573  0.2754
85656SOL    HW174578   1.811   4.242  10.122 -0.4498 -0.1072 -0.1081
85656SOL    HW274579   1.932   4.332  10.130  0.2222 -1.1167  1.6436
85657SOL     OW74580   1.611   2.122   3.474  0.3305 -0.2550 -0.5198
85657SOL    HW174581   1.604   2.156   3.384  2.2186 -0.4621 -0.7843
85657SOL    HW274582   1.538   2.162   3.520  0.1681  1.0243 -1.8070
85658SOL     OW74583  12.828  13.167   4.702  0.0961  0.6406  0.3970
85658SOL    HW174584  12.831  13.195   4.794 -2.0832 -0.6519  0.9225
85658SOL    HW274585  12.789  13.242   4.656 -0.4416  0.6337  0.8306
85659SOL     OW74586   2.056   9.574   9.724  0.4627  0.3997 -0.2679
85659SOL    HW174587   1.964   9.590   9.744  0.7075  1.5153  0.0608
85659SOL    HW274588   2.084   9.508   9.787  0.3658  1.4655  0.9387
85660SOL     OW74589   3.478   9.667  10.490  0.3988  0.1380  0.3648
85660SOL    HW174590   3.388   9.653  10.461  0.9762  0.7122 -1.8949
85660SOL    HW274591   3.470   9.730  10.562 -1.0397 -0.3871  0.6985
85661SOL     OW74592  11.888   4.256   9.324 -0.2837 -0.4050 -0.2694
85661SOL    HW174593  11.898   4.318   9.252 -0.0784  0.2927  0.3518
85661SOL    HW274594  11.851   4.178   9.283 -0.2782  0.0214 -1.1090
85662SOL     OW74595  12.400   8.161   9.312  0.1058  0.4148 -0.2392
85662SOL    HW174596  12.480   8.192   9.270  0.0727  0.2197 -0.4542
85662SOL    HW274597  12.427   8.131   9.398  0.1186  1.1482  0.0218
85663SOL     OW74598   5.561   9.057  13.487 -0.7358 -0.1284 -0.2738
85663SOL    HW174599   5.531   9.106  13.564  1.1330 -0.1748  0.5243
85663SOL    HW274600   5.652   9.083  13.476 -0.3152 -1.8539 -1.1180
85664SOL     OW74601   3.206  12.181   8.099  0.3434 -0.2123  0.2030
85664SOL    HW174602   3.220  12.095   8.060  2.1776 -0.1517  0.6090
85664SOL    HW274603   3.210  12.242   8.025 -1.0398 -0.4602 -0.0950
85665SOL     OW74604   9.637   1.367   1.155 -0.5632  0.0186  0.3968
85665SOL    HW174605   9.720   1.406   1.126  0.1726 -1.8792 -0.1881
85665SOL    HW274606   9.600   1.328   1.076 -1.7373  0.3191  0.7798
85666SOL     OW74607   8.719   1.832  13.227 -0.8883  0.4544  0.4653
85666SOL    HW174608   8.782   1.885  13.178 -1.0128  1.3647  1.2560
85666SOL    HW274609   8.752   1.833  13.317 -0.1908 -1.9021  0.3175
85667SOL     OW74610  10.785   1.688   9.882 -0.7030  0.2171  0.2006
85667SOL    HW174611  10.855   1.629   9.907 -1.3648 -0.7314 -0.1397
85667SOL    HW274612  10.823   1.744   9.815 -0.0872  0.1607  0.4943
85668SOL     OW74613  13.134   3.162   7.930 -0.2315 -0.6939 -0.1703
85668SOL    HW174614  13.042   3.182   7.944 -0.4980 -1.9985  0.0300
85668SOL    HW274615  13.179   3.201   8.006 -0.5162  0.4463 -0.5578
85669SOL     OW74616   7.190  10.452   5.401 -0.2407  0.2371  0.0182
85669SOL    HW174617   7.143  10.369   5.406  0.5019 -0.1639  0.4632
85669SOL    HW274618   7.157  10.503   5.475  0.4680 -0.2818  0.7003
85670SOL     OW74619  11.437   6.957   4.831 -0.1730  0.3677  0.2783
85670SOL    HW174620  11.370   7.014   4.795 -1.6203 -1.1439  0.4521
85670SOL    HW274621  11.513   6.970   4.774 -1.6089 -0.1604 -1.8773
85671SOL     OW74622   5.474   6.856   1.148  0.2978  0.3077 -0.6078
85671SOL    HW174623   5.534   6.912   1.198  0.5278 -0.7647  0.3458
85671SOL    HW274624   5.437   6.915   1.082 -1.1012  2.1544  1.6637
85672SOL     OW74625   9.304  12.224   3.750  0.1921  0.3839  0.1259
85672SOL    HW174626   9.393  12.260   3.753  0.9584 -1.4501  0.8236
85672SOL    HW274627   9.306  12.163   3.676 -0.2119 -0.3065  0.6784
85673SOL     OW74628  11.076   5.479   4.728 -0.2378  0.1307  0.4228
85673SOL    HW174629  11.084   5.388   4.756 -3.0104 -0.0750  0.8439
85673SOL    HW274630  11.103   5.479   4.636 -0.3646 -1.1455  0.3720
85674SOL     OW74631   0.261   9.017  11.348  0.0128 -0.8773 -0.3779
85674SOL    HW174632   0.273   8.980  11.261 -1.2131  0.0438 -0.9771
85674SOL    HW274633   0.193   9.084  11.336 -0.4812 -1.0205  1.3631
85675SOL     OW74634  10.680   8.534   1.719 -0.5432  0.0456 -0.0520
85675SOL    HW174635  10.660   8.557   1.628  2.0334 -0.0642 -0.7293
85675SOL    HW274636  10.659   8.613   1.769 -2.9819 -0.2336 -0.5305
85676SOL     OW74637   6.071  12.664   6.698  0.2784 -0.0227 -0.1411
85676SOL    HW174638   6.099  12.670   6.789 -0.3691  0.0937  0.0571
85676SOL    HW274639   6.075  12.754   6.665  1.8449 -0.2558 -0.6477
85677SOL     OW74640  10.530   7.139   0.547  0.1674 -0.8473  0.5631
85677SOL    HW174641  10.623   7.128   0.528 -0.0621  1.4194 -2.6562
85677SOL    HW274642  10.519   7.233   0.557 -1.8385 -1.0399  0.5301
85678SOL     OW74643   7.953  10.533   4.087 -0.6240  0.5960 -0.8323
85678SOL    HW174644   7.871  10.524   4.038 -0.8564  0.8091 -0.4834
85678SOL    HW274645   7.951  10.460   4.150 -0.4906  0.5332 -0.9012
85679SOL     OW74646  10.483  11.476   2.749  0.4865 -0.2914  0.3492
85679SOL    HW174647  10.557  11.497   2.806  1.3100  4.4551 -1.9738
85679SOL    HW274648  10.406  11.506   2.798  1.1365  3.2665 -0.5275
85680SOL     OW74649   0.581  13.146  13.699  0.1382 -0.0191  0.1721
85680SOL    HW174650   0.504  13.190  13.734 -0.2089 -0.5041  0.0269
85680SOL    HW274651   0.612  13.205  13.630  0.6141  0.7605  1.0221
85681SOL     OW74652  11.652   1.711   9.768  0.2171 -0.4387 -0.1003
85681SOL    HW174653  11.666   1.745   9.679  0.3250 -1.1808 -0.3774
85681SOL    HW274654  11.740   1.685   9.797  0.0580 -1.0785 -0.1577
85682SOL     OW74655   9.111   0.367  11.764 -0.4405 -0.1039  0.5241
85682SOL    HW174656   9.191   0.396  11.807  0.3448 -1.9776  0.4418
85682SOL    HW274657   9.089   0.438  11.704  1.2249  0.4206  0.4740
85683SOL     OW74658   5.472   7.964   0.466 -0.1303  0.0070  0.0070
85683SOL    HW174659   5.531   7.915   0.408 -1.0732  0.6420 -1.5734
85683SOL    HW274660   5.394   7.909   0.473  0.0327 -0.1316  0.8268
85684SOL     OW74661  11.302   3.339  13.195  0.0674  0.3042 -0.3617
85684SOL    HW174662  11.341   3.257  13.226  0.3125  0.1347 -1.0819
85684SOL    HW274663  11.229   3.311  13.140 -0.3712  0.5961  0.0650
85685SOL     OW74664   0.123   5.614  12.715 -0.6618  0.0245 -0.1830
85685SOL    HW174665   0.063   5.545  12.689 -0.9519 -0.0665  0.6941
85685SOL    HW274666   0.210   5.576  12.703 -0.6711  0.7203 -3.0444
85686SOL     OW74667  12.407   4.100   6.444 -0.7067 -0.5726  0.5990
85686SOL    HW174668  12.318   4.070   6.459 -0.9204 -0.3712 -0.2108
85686SOL    HW274669  12.444   4.112   6.531 -0.8317 -2.5175  0.9679
85687SOL     OW74670  13.617   8.204  12.916 -0.0045  0.2742  0.2486
85687SOL    HW174671  13.630   8.298  12.909  0.3262  0.2257  0.2344
85687SOL    HW274672  13.560   8.193  12.993 -1.0775  0.5722 -0.4743
85688SOL     OW74673   1.374  11.101  12.042  0.3515  0.3884 -0.5632
85688SOL    HW174674   1.462  11.122  12.071  0.7669  0.4033 -1.7761
85688SOL    HW274675   1.329  11.069  12.120  0.9878  1.7374  0.3914
85689SOL     OW74676   6.461   6.074   1.167  0.2725  0.6175 -0.4696
85689SOL    HW174677   6.499   6.134   1.231  0.5163 -0.3720  0.3339
85689SOL    HW274678   6.370   6.062   1.197  0.0787  0.9626 -0.9102
85690SOL     OW74679   3.233   6.706   4.986 -0.8321 -0.2285 -0.1003
85690SOL    HW174680   3.247   6.670   4.898 -1.7246  0.7337 -0.6470
85690SOL    HW274681   3.203   6.632   5.038 -1.8318 -0.4714 -1.0045
85691SOL     OW74682  12.840   6.561   4.217 -0.2107 -0.2393  0.4192
85691SOL    HW174683  12.928   6.587   4.191  0.7068  0.0586  3.4635
85691SOL    HW274684  12.790   6.563   4.135  2.2585  0.8446 -1.2076
85692SOL     OW74685  11.968   8.905   2.600  0.5891 -0.1160 -0.1394
85692SOL    HW174686  11.959   8.995   2.569  0.3291  0.0775  0.4843
85692SOL    HW274687  12.021   8.862   2.533  1.2347  0.6580 -0.1439
85693SOL     OW74688   0.526  10.263   6.858 -0.1931  0.1867  0.1290
85693SOL    HW174689   0.459  10.195   6.864 -2.0718  2.0318  2.0816
85693SOL    HW274690   0.579  10.252   6.937 -0.4952  0.9513  0.4462
85694SOL     OW74691   0.604   3.777   0.986  0.3515  0.1415  0.5574
85694SOL    HW174692   0.521   3.755   1.027  0.0296  0.4488  0.0809
85694SOL    HW274693   0.665   3.710   1.017 -0.2315 -0.4785  0.3877
85695SOL     OW74694   8.443   9.694   9.614  0.3285 -0.0783  0.0945
85695SOL    HW174695   8.366   9.679   9.559 -0.1147  1.3206  0.2692
85695SOL    HW274696   8.493   9.613   9.609  0.2496 -0.0699 -2.2675
85696SOL     OW74697  12.625   9.464  10.079 -0.3397  0.3094  0.3519
85696SOL    HW174698  12.699   9.506  10.037  0.9185 -1.9347  0.1549
85696SOL    HW274699  12.584   9.411  10.010 -0.8968 -0.0369  0.9267
85697SOL     OW74700  11.564   2.468   9.070  0.2938  0.7754  0.0176
85697SOL    HW174701  11.569   2.509   8.983  1.2572  1.8225  0.5373
85697SOL    HW274702  11.582   2.539   9.131  0.9070 -0.2107  1.0186
85698SOL     OW74703   4.631   1.175  11.103  0.1022 -0.1441 -0.0307
85698SOL    HW174704   4.599   1.174  11.013  1.1174 -0.4061 -0.4045
85698SOL    HW274705   4.692   1.249  11.106 -0.2884  0.1636  0.5820
85699SOL     OW74706   0.937   7.422   6.534  0.1153 -0.4197 -0.5588
85699SOL    HW174707   1.021   7.385   6.508 -1.3328 -5.3868  0.7631
85699SOL    HW274708   0.950   7.452   6.624  0.5192 -1.0318 -0.4095
85700SOL     OW74709   4.441   0.673   9.472 -0.1404  0.0464  0.2190
85700SOL    HW174710   4.510   0.614   9.503 -0.7255 -0.3131  0.8417
85700SOL    HW274711   4.426   0.645   9.381  0.4733  0.0804  0.0965
85701SOL     OW74712   3.408   1.739   4.380  0.1103 -0.0467 -0.0188
85701SOL    HW174713   3.328   1.754   4.330  1.2651  2.2835 -1.2918
85701SOL    HW274714   3.462   1.683   4.324  0.9450  1.6491 -0.9784
85702SOL     OW74715   7.537  11.587   2.988  0.3042 -0.2947 -0.1700
85702SOL    HW174716   7.576  11.577   3.075 -1.4660 -1.1820  0.5766
85702SOL    HW274717   7.592  11.533   2.931  0.6135 -0.9342  0.6991
85703SOL     OW74718   4.573   3.173  13.497 -0.4033  0.5898 -0.0192
85703SOL    HW174719   4.612   3.105  13.443 -1.0537 -0.2144  0.4836
85703SOL    HW274720   4.480   3.171  13.475 -0.3692  1.6135 -0.3001
85704SOL     OW74721  13.759  12.346   3.927  0.1639  0.1668 -0.3058
85704SOL    HW174722  13.698  12.330   3.855  0.4037 -1.1001 -0.2487
85704SOL    HW274723  13.760  12.441   3.937 -1.7333  0.2182 -0.3477
85705SOL     OW74724  10.920  10.368   9.760 -0.7054  0.6051 -0.1972
85705SOL    HW174725  11.002  10.346   9.714 -0.1231  1.1319  0.5616
85705SOL    HW274726  10.866  10.290   9.751  0.0303  0.1018 -0.3897
85706SOL     OW74727   6.955   6.021   1.181 -0.3247  0.3346 -0.5245
85706SOL    HW174728   6.965   6.080   1.106  0.6076 -2.2832 -2.5847
85706SOL    HW274729   6.862   5.998   1.182 -0.7115  1.7927  0.3410
85707SOL     OW74730   1.527   2.443   9.833  0.4331 -0.0727  0.0903
85707SOL    HW174731   1.560   2.419   9.920 -0.0043  0.6602  0.4666
85707SOL    HW274732   1.490   2.531   9.845 -0.9134 -0.5338 -0.5094
85708SOL     OW74733   3.654   3.442   9.178 -0.0935  0.1172 -0.2476
85708SOL    HW174734   3.670   3.363   9.230  1.0379 -0.0596 -0.8120
85708SOL    HW274735   3.716   3.434   9.105 -1.8944  0.1529 -1.8396
85709SOL     OW74736  13.538   9.650  10.299 -0.6115  0.0322 -0.1581
85709SOL    HW174737  13.442   9.644  10.296 -0.8038  2.4226 -0.8455
85709SOL    HW274738  13.556   9.703  10.376  0.2413 -1.0585  0.4201
85710SOL     OW74739   4.087   5.221   0.894 -0.6020 -0.8134  0.2266
85710SOL    HW174740   4.120   5.308   0.869 -0.6710 -0.6999  0.5206
85710SOL    HW274741   3.993   5.225   0.875 -0.4261 -1.1821 -0.7346
85711SOL     OW74742   7.318   0.002  10.637 -0.4117 -0.3209  0.3978
85711SOL    HW174743   7.306   0.090  10.600  0.6004 -0.3504 -0.0366
85711SOL    HW274744   7.256  -0.053  10.590 -1.3280  0.2240  0.9404
85712SOL     OW74745   2.730  13.545   0.169 -0.2819  0.1283  0.0330
85712SOL    HW174746   2.819  13.541   0.204 -0.2326 -0.5645 -0.1544
85712SOL    HW274747   2.703  13.635   0.183  0.6418  0.4893 -0.3820
85713SOL     OW74748   3.995  12.010   2.129  0.6379  0.6809  0.3783
85713SOL    HW174749   4.013  11.933   2.074  1.4479  0.9589  0.2353
85713SOL    HW274750   3.903  12.002   2.152  0.0462  0.9320 -1.6574
85714SOL     OW74751  11.138   1.151   1.483  0.0223 -0.2077  0.3104
85714SOL    HW174752  11.172   1.236   1.456 -1.4491  0.3978  0.2519
85714SOL    HW274753  11.053   1.171   1.523  0.0445 -1.5678  1.0914
85715SOL     OW74754   0.352   6.708  11.340  0.0063 -0.3896 -0.1103
85715SOL    HW174755   0.295   6.784  11.355  0.9663  0.6906 -1.5942
85715SOL    HW274756   0.329   6.678  11.252  0.7546 -0.8204 -0.1643
85716SOL     OW74757   4.997   6.980  13.437  0.5888  0.1131  0.1173
85716SOL    HW174758   4.909   6.944  13.447  1.0094 -1.1277 -0.4178
85716SOL    HW274759   4.988   7.046  13.369  0.1857 -0.5022 -0.4436
85717SOL     OW74760  11.162  13.126   6.040  0.5441 -0.1328  0.0703
85717SOL    HW174761  11.161  13.117   6.136  2.3734 -0.0271  0.1432
85717SOL    HW274762  11.191  13.040   6.008  0.4706 -0.0015 -0.3483
85718SOL     OW74763   6.733   5.580  13.932 -0.8292 -0.1015 -0.0319
85718SOL    HW174764   6.707   5.638  13.860 -1.0930  0.0564  0.1876
85718SOL    HW274765   6.742   5.638  14.007 -0.4729 -0.2553  0.0437
85719SOL     OW74766   1.839  12.882   6.974 -0.1173  0.0939  0.3794
85719SOL    HW174767   1.783  12.938   7.026  0.0082  0.9747 -0.4200
85719SOL    HW274768   1.805  12.888   6.885 -1.1191 -2.3832  0.5098
85720SOL     OW74769   4.525   3.122   7.300  0.1089 -0.8534  0.4953
85720SOL    HW174770   4.482   3.170   7.229  1.5575  0.3017  0.3638
85720SOL    HW274771   4.583   3.186   7.341  1.1815 -2.1697  1.1138
85721SOL     OW74772   0.115   0.096   6.685  0.1476 -0.6429  0.1228
85721SOL    HW174773   0.100   0.184   6.651  0.0164 -0.9214 -0.5514
85721SOL    HW274774   0.155   0.110   6.771  0.6940  0.0731 -0.2339
85722SOL     OW74775  12.708  11.240  11.738  0.1750 -0.0855  0.3813
85722SOL    HW174776  12.732  11.159  11.784 -0.6498 -1.2326 -1.1099
85722SOL    HW274777  12.739  11.227  11.649 -0.1519  1.1744  0.0640
85723SOL     OW74778  12.186   3.682   2.686 -0.7442 -0.2308 -0.1466
85723SOL    HW174779  12.094   3.661   2.672 -0.5904 -0.8800 -0.2221
85723SOL    HW274780  12.214   3.620   2.753  0.1702 -1.4795 -1.6142
85724SOL     OW74781   4.276  12.031   4.996 -0.1416  0.2129  0.2126
85724SOL    HW174782   4.306  12.115   4.961 -0.4015  0.5858  0.8468
85724SOL    HW274783   4.326  11.965   4.948  0.6060  0.7604  0.2175
85725SOL     OW74784   4.819   4.994  11.471 -0.1974 -0.1038  0.2780
85725SOL    HW174785   4.882   5.045  11.420 -1.0121 -0.9127 -1.6015
85725SOL    HW274786   4.873   4.943  11.531  0.7519  1.3177  0.7057
85726SOL     OW74787   1.429  10.943   1.895 -0.1664  0.5071  0.0211
85726SOL    HW174788   1.346  10.957   1.850  0.2318  0.8784 -0.6070
85726SOL    HW274789   1.461  11.030   1.917 -0.2455  0.3420  0.8328
85727SOL     OW74790   1.685   4.704  12.914 -0.0401  0.1579  0.8927
85727SOL    HW174791   1.736   4.659  12.847  2.4859  1.1983  2.0176
85727SOL    HW274792   1.721   4.674  12.997  1.0149  3.2637  1.7022
85728SOL     OW74793   6.500   5.674   9.975  0.2419  0.1802 -0.6414
85728SOL    HW174794   6.552   5.753   9.993  1.0589 -0.5984  0.5629
85728SOL    HW274795   6.442   5.666  10.050  0.5735 -0.6781 -0.4685
85729SOL     OW74796  10.465  11.737   4.824 -0.7045  0.3037  0.2974
85729SOL    HW174797  10.458  11.786   4.743 -2.6353 -1.3194 -0.6267
85729SOL    HW274798  10.377  11.703   4.839 -0.5445  0.9207  3.3615
85730SOL     OW74799   5.144   9.723  12.898 -0.0165  0.2900  0.5239
85730SOL    HW174800   5.131   9.793  12.961  0.1680  0.3468  0.5005
85730SOL    HW274801   5.232   9.690  12.915 -0.7822 -1.2091  1.7883
85731SOL     OW74802   3.399   6.764   1.417  0.1372 -0.5787  0.1764
85731SOL    HW174803   3.486   6.793   1.440 -0.4756 -0.8539  3.1707
85731SOL    HW274804   3.412   6.679   1.375  1.3666  0.3058 -1.3488
85732SOL     OW74805   3.673   1.507  10.749  0.8891 -0.6899  0.1717
85732SOL    HW174806   3.668   1.512  10.654  0.7472  0.3141  0.2267
85732SOL    HW274807   3.695   1.415  10.767 -0.5818 -1.2487 -0.7488
85733SOL     OW74808   2.845   6.340   8.808  0.1377 -0.4090 -0.1159
85733SOL    HW174809   2.924   6.350   8.860  1.4590 -0.6213 -1.9637
85733SOL    HW274810   2.850   6.410   8.743 -0.5843 -1.1422 -0.9957
85734SOL     OW74811   9.579   2.153   7.259  0.2042 -0.3536  0.2526
85734SOL    HW174812   9.586   2.202   7.177  1.2216 -1.3453 -0.2731
85734SOL    HW274813   9.665   2.161   7.299  0.2455 -1.3421  0.3747
85735SOL     OW74814   6.124   3.187   6.234 -0.1570 -0.6067  0.1843
85735SOL    HW174815   6.181   3.248   6.187  1.0855 -2.1045 -0.3590
85735SOL    HW274816   6.047   3.177   6.177 -0.5839  0.7560  0.4955
85736SOL     OW74817   1.889  13.518   8.870  0.2490 -0.1966  0.2452
85736SOL    HW174818   1.869  13.586   8.806 -0.4946 -0.9097 -0.3021
85736SOL    HW274819   1.804  13.492   8.905  0.7030  0.9634  2.3953
85737SOL     OW74820   8.434   7.640  14.074 -0.1547 -0.0228  0.2292
85737SOL    HW174821   8.385   7.693  14.011 -1.5223 -0.3755  0.9534
85737SOL    HW274822   8.510   7.693  14.096  0.8275 -0.2388 -2.3134
85738SOL     OW74823   9.022   4.656   4.145 -0.4477 -0.0123 -0.0955
85738SOL    HW174824   9.014   4.726   4.080  0.3149  0.0643 -0.1154
85738SOL    HW274825   8.976   4.582   4.105 -0.7847  0.3121 -0.3152
85739SOL     OW74826   7.963   8.012  13.877 -0.2257  0.1228  0.2746
85739SOL    HW174827   7.970   8.064  13.957  0.0396 -0.5963  0.7197
85739SOL    HW274828   8.053   8.010  13.843 -0.5536  1.5817 -0.7912
85740SOL     OW74829   2.955  11.810   0.152  0.8945 -0.1242 -0.1125
85740SOL    HW174830   2.951  11.788   0.059  0.6918 -1.1211  0.1148
85740SOL    HW274831   2.951  11.905   0.155  1.6200 -0.0403 -1.1601
85741SOL     OW74832  10.714   1.988  11.638 -0.3428 -0.4873  0.5429
85741SOL    HW174833  10.649   1.932  11.596 -1.3466  1.3283 -0.4806
85741SOL    HW274834  10.783   1.998  11.573 -1.2335  1.2018 -0.1967
85742SOL     OW74835   1.468   9.193  11.745 -0.2793 -0.5384 -0.5291
85742SOL    HW174836   1.436   9.284  11.743  0.0025 -0.4135 -3.5822
85742SOL    HW274837   1.403   9.144  11.696  0.2970 -1.7573 -0.0999
85743SOL     OW74838   3.288  13.189   7.710  0.1783 -0.3096  0.0133
85743SOL    HW174839   3.364  13.244   7.726  0.6921 -0.9272 -0.2315
85743SOL    HW274840   3.240  13.189   7.793  0.3731  0.1868  0.1297
85744SOL     OW74841   1.560   3.652   9.533  0.2555 -0.0768  0.2844
85744SOL    HW174842   1.643   3.605   9.530  0.7100  0.6970  0.5863
85744SOL    HW274843   1.514   3.625   9.453  1.9617  1.6273 -1.3529
85745SOL     OW74844   0.860   7.291   8.959  0.3809 -0.5714 -0.5999
85745SOL    HW174845   0.866   7.253   9.046  1.6907 -0.1973 -0.4959
85745SOL    HW274846   0.863   7.216   8.899  0.7600 -0.7601 -0.3456
85746SOL     OW74847   0.928   4.160   4.765 -0.9361 -0.2462 -0.3062
85746SOL    HW174848   0.908   4.120   4.680 -1.2921  1.1599 -0.9208
85746SOL    HW274849   0.973   4.242   4.742  1.1996 -1.0093  0.9330
85747SOL     OW74850   0.421   2.111   3.906 -0.3960 -0.0047  0.9145
85747SOL    HW174851   0.358   2.168   3.861 -0.4697  0.6824  1.8776
85747SOL    HW274852   0.369   2.066   3.972 -0.6163 -2.1782 -0.6164
85748SOL     OW74853   9.977  10.335   3.269 -0.6758 -0.1157  0.4388
85748SOL    HW174854   9.904  10.336   3.331  0.0818  0.8398  1.3612
85748SOL    HW274855  10.055  10.326   3.324 -0.0433 -0.1225 -0.4430
85749SOL     OW74856   8.803   4.512   6.601  0.1581 -0.0075  0.3026
85749SOL    HW174857   8.868   4.452   6.565  0.7421  0.5976  0.3413
85749SOL    HW274858   8.760   4.550   6.525  0.7648  0.5869  0.2548
85750SOL     OW74859  10.213  12.895  12.320  0.2896 -0.1368  0.6267
85750SOL    HW174860  10.272  12.822  12.304 -0.0046 -0.5009  1.1547
85750SOL    HW274861  10.205  12.899  12.415 -0.0559  0.2938  0.5840
85751SOL     OW74862   0.045  11.888  10.347 -0.3857 -0.7662  0.1924
85751SOL    HW174863   0.138  11.873  10.363 -0.2045  0.0447 -0.0454
85751SOL    HW274864   0.001  11.847  10.421  0.1801 -0.9258  0.4467
85752SOL     OW74865  10.036   1.726   0.973  0.1175 -0.1305 -0.6049
85752SOL    HW174866  10.059   1.767   1.057 -0.7923 -0.5388 -0.1456
85752SOL    HW274867   9.954   1.681   0.990  0.2778 -0.7999 -1.5402
85753SOL     OW74868   4.341  13.235   7.017 -0.3760 -0.1890  0.2296
85753SOL    HW174869   4.351  13.212   6.924  0.3811  1.5137 -0.1519
85753SOL    HW274870   4.258  13.195   7.043 -1.3687  0.5888 -1.6112
85754SOL     OW74871   5.872  12.885   7.192  0.1475 -0.0975  0.5289
85754SOL    HW174872   5.794  12.860   7.243  1.2398 -0.9640  1.8262
85754SOL    HW274873   5.857  12.848   7.105 -0.4295 -1.1393  1.0637
85755SOL     OW74874   6.114   9.103   2.137 -0.0762  0.1043 -0.0385
85755SOL    HW174875   6.112   9.007   2.129  0.9111  0.0877 -0.1518
85755SOL    HW274876   6.143   9.134   2.052  0.6448  0.4475  0.3291
85756SOL     OW74877  12.354   6.123   9.866 -0.0765 -0.1885 -0.1900
85756SOL    HW174878  12.365   6.216   9.887 -0.3993 -0.1855 -0.0285
85756SOL    HW274879  12.360   6.119   9.771  0.2508 -0.0453 -0.1787
85757SOL     OW74880  10.711   8.436   5.469  0.1459 -0.9480  0.4343
85757SOL    HW174881  10.714   8.510   5.409  0.5920 -1.0366  0.3448
85757SOL    HW274882  10.654   8.465   5.541 -0.6751 -0.9677 -0.1879
85758SOL     OW74883   5.502   0.275   0.309  0.1363  0.1419  0.2545
85758SOL    HW174884   5.543   0.194   0.337 -1.7570 -0.1660  2.4510
85758SOL    HW274885   5.496   0.328   0.388  0.2248  1.9545 -0.8845
85759SOL     OW74886   9.067   9.517   5.133  0.6497 -0.1372  0.0604
85759SOL    HW174887   9.124   9.509   5.210  0.3741 -0.7650  0.2006
85759SOL    HW274888   8.981   9.492   5.164  0.8415 -2.0483 -0.8407
85760SOL     OW74889   6.847  11.270   1.016 -0.0232 -0.0003  0.0051
85760SOL    HW174890   6.861  11.317   0.934  0.5458 -1.4512 -0.7543
85760SOL    HW274891   6.767  11.219   1.002 -2.6005  3.1001  1.9746
85761SOL     OW74892   8.301   3.250  11.005  0.2767 -0.3533 -0.1257
85761SOL    HW174893   8.238   3.209  10.946  3.0357 -4.0421 -0.8229
85761SOL    HW274894   8.288   3.344  10.992 -2.2583 -0.9652 -3.1892
85762SOL     OW74895   1.468  10.942   0.191 -0.2474 -0.2704 -0.3407
85762SOL    HW174896   1.424  10.858   0.200  1.8300 -1.4430 -0.4003
85762SOL    HW274897   1.537  10.926   0.126 -2.0718  2.4940 -3.2728
85763SOL     OW74898   1.057   3.529   2.761  0.0376  0.0104 -0.0657
85763SOL    HW174899   1.097   3.613   2.785  1.2308 -0.4996 -0.1558
85763SOL    HW274900   1.106   3.465   2.813 -0.4552 -0.6805 -0.4473
85764SOL     OW74901   8.627   2.632   1.888  0.3796 -0.0126 -0.1227
85764SOL    HW174902   8.629   2.546   1.846  0.4341  0.0778 -0.3044
85764SOL    HW274903   8.552   2.677   1.850  0.9284  0.3860 -0.7529
85765SOL     OW74904  11.195   4.583  12.014 -0.3678 -0.2789  0.7375
85765SOL    HW174905  11.140   4.659  11.998 -0.1270 -0.3379 -0.4590
85765SOL    HW274906  11.255   4.611  12.083 -1.0514  0.2044  1.1546
85766SOL     OW74907  12.703  12.928   4.796 -0.1493 -0.3548  0.1505
85766SOL    HW174908  12.705  12.847   4.746 -0.9218  0.1152 -0.6677
85766SOL    HW274909  12.725  12.996   4.733 -1.7140  0.3115  0.2860
85767SOL     OW74910   4.371   2.429   3.606  0.1799 -0.0580 -0.1884
85767SOL    HW174911   4.309   2.501   3.593  1.3460  1.2049  0.8402
85767SOL    HW274912   4.318   2.357   3.641 -1.0457  0.2060 -1.4294
85768SOL     OW74913   3.181   4.611   3.557 -0.0894 -0.0233  0.0170
85768SOL    HW174914   3.129   4.687   3.532  1.5034  0.4948 -1.9234
85768SOL    HW274915   3.182   4.555   3.479  2.1294 -0.0667  0.0146
85769SOL     OW74916   0.899   1.546   4.446  0.1508 -0.6045 -0.7951
85769SOL    HW174917   0.931   1.630   4.478 -1.6017  0.3486 -1.4224
85769SOL    HW274918   0.967   1.516   4.385 -0.0682  1.3063 -2.0402
85770SOL     OW74919   1.025   5.044  12.441  0.2615 -0.0736  0.2590
85770SOL    HW174920   1.025   5.135  12.411  1.0903 -0.4487 -0.9732
85770SOL    HW274921   0.949   5.038  12.499 -0.0570  1.2899  0.0193
85771SOL     OW74922   4.616   7.599   1.092  0.2491  0.4692 -0.0295
85771SOL    HW174923   4.573   7.533   1.148 -2.0904  0.3555 -1.8010
85771SOL    HW274924   4.544   7.641   1.045  1.9971  1.5173 -1.9316
85772SOL     OW74925  13.384  11.026  14.052 -0.5410 -0.1276 -0.0349
85772SOL    HW174926  13.470  11.013  14.090 -0.7631  0.0941  0.5562
85772SOL    HW274927  13.359  11.115  14.078  0.6338  1.3297 -3.3611
85773SOL     OW74928  11.768   1.671   8.244 -0.1052 -0.1775 -0.2489
85773SOL    HW174929  11.739   1.692   8.155 -2.8133 -0.8465  0.3943
85773SOL    HW274930  11.711   1.722   8.301  1.0505 -0.3787  1.1575
85774SOL     OW74931   5.203   7.828   0.710 -0.1608  0.2133 -0.1719
85774SOL    HW174932   5.271   7.864   0.767  0.9765 -0.7558 -0.8834
85774SOL    HW274933   5.129   7.811   0.769  2.0381 -3.8629  1.8402
85775SOL     OW74934   5.984  12.463   7.802 -0.0593 -0.1156  0.3709
85775SOL    HW174935   6.065  12.413   7.805 -0.5233 -1.4411 -3.5801
85775SOL    HW274936   5.924  12.409   7.749 -2.3559  2.3146  0.2620
85776SOL     OW74937  11.736   2.236   8.675  0.3622  0.1160 -0.5268
85776SOL    HW174938  11.775   2.257   8.590  1.9792 -0.8139 -0.0518
85776SOL    HW274939  11.811   2.227   8.734 -0.5307 -2.2084  0.3396
85777SOL     OW74940   3.238   9.207  13.724  0.0697  0.1203  0.1206
85777SOL    HW174941   3.225   9.112  13.726  1.3856 -0.0598  1.4021
85777SOL    HW274942   3.231   9.234  13.816  1.0997  1.0622 -0.0634
85778SOL     OW74943   2.196  11.377   6.449  0.0963  0.1747  0.3007
85778SOL    HW174944   2.288  11.351   6.448  0.7970  2.4363 -0.8229
85778SOL    HW274945   2.156  11.321   6.516  2.2954 -0.7952  0.9000
85779SOL     OW74946   9.208   4.106  10.589 -0.6141  0.3857 -0.4684
85779SOL    HW174947   9.242   4.191  10.615  0.0638 -0.0795  0.2021
85779SOL    HW274948   9.149   4.125  10.515  0.1647  1.3389 -0.8625
85780SOL     OW74949  10.769   9.434   0.839  0.5584 -0.1740  0.0570
85780SOL    HW174950  10.756   9.449   0.745 -0.4408 -0.7701  0.0894
85780SOL    HW274951  10.682   9.410   0.872  0.4740  1.7782  1.4765
85781SOL     OW74952  11.211   6.136   4.202 -0.2137 -0.0639 -0.0300
85781SOL    HW174953  11.124   6.111   4.169  0.0773 -1.7630  0.4070
85781SOL    HW274954  11.219   6.228   4.179 -2.1544  0.1523 -0.0401
85782SOL     OW74955   9.796   4.808  12.598 -0.0060 -0.2466 -0.0490
85782SOL    HW174956   9.829   4.814  12.508  1.3337 -0.5424  0.3957
85782SOL    HW274957   9.711   4.766  12.589  0.2943 -0.6602 -1.1517
85783SOL     OW74958   4.371   5.837   5.905 -0.1667  0.1796 -0.1097
85783SOL    HW174959   4.390   5.759   5.852  0.8721  0.9794 -0.9469
85783SOL    HW274960   4.444   5.841   5.967 -0.7412 -0.0581  0.5997
85784SOL     OW74961   7.534  13.986   0.413  0.1064 -0.4749 -0.3120
85784SOL    HW174962   7.458  14.013   0.465 -0.3927 -0.4137 -1.0513
85784SOL    HW274963   7.517  14.023   0.326  1.2241 -0.0398 -0.3654
85785SOL     OW74964   5.170   9.696   4.323 -0.8204 -0.4601 -0.5683
85785SOL    HW174965   5.107   9.666   4.388  0.5620  0.2127  1.1619
85785SOL    HW274966   5.191   9.786   4.349  1.6973 -1.0196 -0.3349
85786SOL     OW74967   2.013   5.922   9.724 -0.4630 -0.0370  0.5590
85786SOL    HW174968   2.061   5.846   9.758  0.0285 -0.0612 -0.1666
85786SOL    HW274969   1.957   5.948   9.796 -1.0368 -1.4118  0.6504
85787SOL     OW74970  13.960  14.042   2.473 -0.2188  0.3986 -0.3432
85787SOL    HW174971  14.023  14.038   2.545 -0.5381 -2.8646 -0.1318
85787SOL    HW274972  13.885  14.089   2.510  0.1449 -0.0387  1.0089
85788SOL     OW74973   5.157   5.719   3.556  0.5719  0.0148  0.0442
85788SOL    HW174974   5.146   5.629   3.525  0.7842  0.8803 -2.8201
85788SOL    HW274975   5.230   5.714   3.618 -2.1734 -2.3965  3.4453
85789SOL     OW74976  12.337   4.320   2.807  0.1214 -0.1969  0.0223
85789SOL    HW174977  12.246   4.347   2.816  1.0557  3.3989 -0.0414
85789SOL    HW274978  12.373   4.328   2.895  0.6520 -0.5718 -0.1568
85790SOL     OW74979  13.248   8.323   3.793 -0.2505 -0.0619 -0.2040
85790SOL    HW174980  13.216   8.295   3.707 -0.9185 -1.5735  0.5055
85790SOL    HW274981  13.251   8.419   3.787  0.3899 -0.1491 -2.1331
85791SOL     OW74982   4.216   8.210   1.916  0.1166 -0.3523 -0.0799
85791SOL    HW174983   4.164   8.240   1.842 -0.4848 -1.6598 -0.2237
85791SOL    HW274984   4.263   8.134   1.883  0.7557 -0.2400  0.5502
85792SOL     OW74985   5.316   1.484   4.779  0.2157  0.4803 -0.3417
85792SOL    HW174986   5.220   1.488   4.782  0.0059 -2.5513  3.4129
85792SOL    HW274987   5.344   1.569   4.814 -1.0772  0.9992 -0.4843
85793SOL     OW74988   4.328   9.712   0.580 -0.5632 -0.3146 -0.0146
85793SOL    HW174989   4.330   9.710   0.675  0.4671  0.6851  0.0002
85793SOL    HW274990   4.326   9.804   0.557 -0.4191 -0.5329 -0.9601
85794SOL     OW74991  10.847   3.509   1.079  0.3120 -0.2108  0.1084
85794SOL    HW174992  10.759   3.534   1.051  0.1560 -0.9027 -0.0338
85794SOL    HW274993  10.903   3.581   1.050  0.0015 -0.4134 -1.0390
85795SOL     OW74994   4.113   2.026   1.507 -0.5876 -0.1993 -0.0802
85795SOL    HW174995   4.163   1.970   1.568 -0.6982 -1.1563 -0.8415
85795SOL    HW274996   4.045   1.968   1.473 -1.0223  0.5602 -0.5101
85796SOL     OW74997   4.624   3.227   6.099  0.5858 -0.3378 -0.5437
85796SOL    HW174998   4.716   3.203   6.094  0.7492  0.2085 -0.2480
85796SOL    HW274999   4.578   3.155   6.057  1.1006 -0.8862 -0.1749
85797SOL     OW75000   7.454  10.423   5.333  0.2508 -0.2339  0.1107
85797SOL    HW175001   7.479  10.330   5.327 -1.9115 -1.0298  2.0439
85797SOL    HW275002   7.359  10.423   5.326  0.1420  1.7525  0.9941
85798SOL     OW75003   7.391   2.629   0.567  0.2378  0.1518 -0.1629
85798SOL    HW175004   7.347   2.569   0.507  1.7054 -0.1512 -0.9852
85798SOL    HW275005   7.448   2.681   0.511  0.8597  0.5798  0.8442
85799SOL     OW75006  10.962  10.554   3.598 -0.0920 -0.3079 -0.2487
85799SOL    HW175007  10.976  10.501   3.519 -1.6924 -0.8903 -0.1637
85799SOL    HW275008  11.022  10.517   3.663  0.8142 -0.1987 -0.9996
85800SOL     OW75009   3.335   6.024   3.564  0.5517 -0.1686 -0.3500
85800SOL    HW175010   3.270   6.004   3.497 -0.0480  0.1742  0.1201
85800SOL    HW275011   3.307   6.108   3.601  0.0252 -1.0254  1.3363
85801SOL     OW75012  12.925   8.931   2.240 -0.1115 -0.0099  0.1736
85801SOL    HW175013  12.925   8.895   2.151 -0.7825  0.9219 -0.2122
85801SOL    HW275014  12.970   8.864   2.292  3.2960  0.8600 -1.4133
85802SOL     OW75015   3.327   1.663   8.742  0.4012 -0.4830 -0.2527
85802SOL    HW175016   3.396   1.727   8.760  0.9472 -1.0955 -0.1028
85802SOL    HW275017   3.249   1.715   8.724  0.7542  0.2118  0.2013
85803SOL     OW75018   2.593  13.008   1.909  0.2539 -0.1280  0.3495
85803SOL    HW175019   2.558  13.028   1.822  0.9145 -0.4654  0.0046
85803SOL    HW275020   2.640  12.926   1.898  1.3930  0.4526  0.7481
85804SOL     OW75021   8.920   9.798   3.254  0.6100  0.7091 -0.4272
85804SOL    HW175022   8.922   9.881   3.205  1.4838  0.9511  0.0019
85804SOL    HW275023   8.849   9.809   3.316  1.3897  1.5746  0.3484
85805SOL     OW75024   0.090   3.376   3.289 -0.0498 -0.3944 -0.5060
85805SOL    HW175025   0.069   3.381   3.382 -1.1556  0.2122 -0.7626
85805SOL    HW275026   0.009   3.348   3.248  0.3757 -0.4757 -1.3059
85806SOL     OW75027   4.495  12.946   3.368  0.0458  0.0274 -0.0245
85806SOL    HW175028   4.405  12.917   3.376  0.4171 -1.4031 -0.7315
85806SOL    HW275029   4.504  12.972   3.276  0.1002  1.1232  0.2721
85807SOL     OW75030   6.247   6.780   6.412  0.2278 -0.3601  0.3729
85807SOL    HW175031   6.265   6.725   6.489  0.4709 -0.5704  0.1663
85807SOL    HW275032   6.217   6.863   6.449 -0.5068 -0.7564  0.6832
85808SOL     OW75033  10.013   1.481   2.138 -0.6558 -0.4037 -0.1974
85808SOL    HW175034  10.068   1.442   2.069  1.7461  1.2575  0.6516
85808SOL    HW275035   9.956   1.410   2.165  0.4695 -2.0129 -1.7684
85809SOL     OW75036  11.251   4.837   2.487  0.0997  0.1090  0.7989
85809SOL    HW175037  11.326   4.785   2.459 -1.6840 -2.4061  0.3117
85809SOL    HW275038  11.240   4.903   2.419  0.8673 -0.5551  0.0133
85810SOL     OW75039   9.304  10.231   7.427 -0.4265 -0.4549 -0.2414
85810SOL    HW175040   9.257  10.282   7.492  1.0349  1.8302 -0.8573
85810SOL    HW275041   9.258  10.247   7.345 -0.4770 -0.8473 -0.2916
85811SOL     OW75042   0.318   6.092  11.081 -0.4318  0.0792 -0.3756
85811SOL    HW175043   0.352   6.013  11.124 -0.1512  1.1592  1.4872
85811SOL    HW275044   0.225   6.093  11.103 -0.6980 -0.3753 -1.4529
85812SOL     OW75045  10.640   2.910   3.182 -0.3119 -0.4016 -0.0779
85812SOL    HW175046  10.579   2.899   3.254 -1.3676  1.1862 -0.6734
85812SOL    HW275047  10.608   2.987   3.135  0.8836 -0.8353 -1.6979
85813SOL     OW75048   2.739   5.492   2.057  0.1208  0.3320 -0.6027
85813SOL    HW175049   2.779   5.536   2.132 -1.1011  0.2055  0.1597
85813SOL    HW275050   2.748   5.554   1.985  0.0342  1.0844  0.0149
85814SOL     OW75051   9.425   5.599   7.500  0.1275 -0.3609  0.0100
85814SOL    HW175052   9.403   5.625   7.410 -0.7332 -1.5253 -0.1348
85814SOL    HW275053   9.354   5.635   7.553  1.1929  1.2546  0.3941
85815SOL     OW75054   1.276  13.139   5.136  0.5413  0.3703  0.3405
85815SOL    HW175055   1.335  13.158   5.063  0.4769 -1.1031 -0.1151
85815SOL    HW275056   1.331  13.092   5.199  0.1923  0.1986  0.5180
85816SOL     OW75057  10.475  10.585  13.592 -0.6531 -0.0870 -0.2024
85816SOL    HW175058  10.431  10.515  13.639 -0.6233 -0.2445 -0.4082
85816SOL    HW275059  10.404  10.630  13.544 -0.4497 -1.0355 -1.4306
85817SOL     OW75060   2.816   7.710  13.207 -0.0457 -0.0320 -0.2970
85817SOL    HW175061   2.735   7.698  13.257 -2.0746 -1.3099 -3.5397
85817SOL    HW275062   2.826   7.805  13.202 -1.2996  0.1572  0.2792
85818SOL     OW75063   2.007   0.027   6.042 -0.0186 -0.0929  0.3094
85818SOL    HW175064   2.083  -0.024   6.012  0.3150  0.3672  0.3643
85818SOL    HW275065   2.030   0.118   6.024  0.4050  0.2654  2.3458
85819SOL     OW75066  13.310  13.361   5.434 -0.1141  0.5636 -0.4598
85819SOL    HW175067  13.349  13.365   5.521 -0.3759  0.8354 -0.3531
85819SOL    HW275068  13.320  13.449   5.399 -0.7707  0.6786 -0.3657
85820SOL     OW75069  12.694   3.315  13.025 -0.7074  0.2323 -0.6125
85820SOL    HW175070  12.775   3.360  13.001  0.3305 -0.5773  1.1422
85820SOL    HW275071  12.717   3.222  13.026 -1.0155  0.1013  1.9042
85821SOL     OW75072   9.148   5.208   6.545 -0.1914  0.1600 -0.1479
85821SOL    HW175073   9.158   5.246   6.457 -0.0394 -0.2908 -0.3252
85821SOL    HW275074   9.056   5.221   6.566 -0.1523  0.5882 -0.2272
85822SOL     OW75075   9.630  12.727   9.794 -0.7431 -0.1937  0.1463
85822SOL    HW175076   9.615  12.634   9.778 -2.8988 -0.0036  0.7417
85822SOL    HW275077   9.625  12.737   9.889  1.3334  0.2915  0.2506
85823SOL     OW75078  10.281   5.025   2.935 -0.4006 -0.1488 -0.3169
85823SOL    HW175079  10.257   5.113   2.964  2.6687  0.4110  0.9507
85823SOL    HW275080  10.340   5.040   2.861 -0.2856 -1.1687 -0.4431
85824SOL     OW75081   4.844   4.933   1.785  0.1888 -0.1703  0.1122
85824SOL    HW175082   4.820   4.847   1.750  2.7265 -0.2457 -1.7587
85824SOL    HW275083   4.886   4.914   1.869 -2.3668 -0.3649  1.4241
85825SOL     OW75084   8.616  12.690   0.346 -0.1484 -0.2420 -0.0803
85825SOL    HW175085   8.609  12.784   0.363  0.2019 -0.3949  1.0139
85825SOL    HW275086   8.685  12.683   0.279  0.7465  0.2073  0.7709
85826SOL     OW75087  11.095   5.655   7.804  0.2855 -0.6068  1.2743
85826SOL    HW175088  11.097   5.743   7.843  0.7847  0.8435 -1.7455
85826SOL    HW275089  11.183   5.622   7.816  0.1845 -0.5776  2.1547
85827SOL     OW75090   5.157  13.490   4.403 -0.1946  0.6124 -0.2494
85827SOL    HW175091   5.069  13.474   4.370 -0.1483 -0.4235  0.0817
85827SOL    HW275092   5.168  13.585   4.400 -1.6718  0.8348  0.6073
85828SOL     OW75093   4.181   0.963   9.738 -0.9347  0.1714 -0.0873
85828SOL    HW175094   4.169   1.030   9.671  2.6419  1.0728 -0.0443
85828SOL    HW275095   4.185   1.011   9.820  0.4605 -0.1526  0.0736
85829SOL     OW75096   9.355   3.898  13.600  0.0016 -0.0355 -0.0558
85829SOL    HW175097   9.319   3.811  13.615 -0.1557  0.0660  0.1541
85829SOL    HW275098   9.395   3.923  13.683 -2.3193  1.2077  0.7776
85830SOL     OW75099   9.129   9.833  10.872  0.1679  0.3023 -0.3135
85830SOL    HW175100   9.115   9.806  10.963  0.5843 -1.6649 -0.7967
85830SOL    HW275101   9.203   9.780  10.843 -1.9401 -1.5302 -2.7784
85831SOL     OW75102  10.178   9.695   8.447  0.0977  0.2861 -0.2662
85831SOL    HW175103  10.179   9.602   8.470  0.3327  0.7125  1.6020
85831SOL    HW275104  10.250   9.706   8.386  1.0835 -0.4980  0.7188
85832SOL     OW75105   1.889   1.558   2.498 -0.4245 -0.0442  0.0723
85832SOL    HW175106   1.897   1.650   2.473 -1.3283  0.2770  0.8795
85832SOL    HW275107   1.797   1.548   2.523  0.2660 -0.4118  2.8423
85833SOL     OW75108   2.527   1.742   5.866 -0.3507  0.3724  0.0093
85833SOL    HW175109   2.503   1.835   5.868 -1.0714  0.1866  0.5874
85833SOL    HW275110   2.595   1.734   5.933 -0.5252  0.4184  0.1917
85834SOL     OW75111   5.299   3.427  12.669 -0.6994  0.3090 -0.2859
85834SOL    HW175112   5.320   3.379  12.749 -0.2889 -3.8325 -2.5710
85834SOL    HW275113   5.205   3.445  12.676 -0.9591 -1.2096  0.6260
85835SOL     OW75114   7.852   3.511   5.189 -0.9620  0.5577  0.3131
85835SOL    HW175115   7.925   3.455   5.216  0.0434  1.8996  0.4475
85835SOL    HW275116   7.774   3.457   5.204 -0.0660 -0.6019  0.9586
85836SOL     OW75117   4.609  11.743   2.790 -0.3518 -0.3250 -0.4581
85836SOL    HW175118   4.611  11.792   2.708  2.2976 -0.4162 -0.5329
85836SOL    HW275119   4.609  11.810   2.859  0.4800 -0.2244 -0.5522
85837SOL     OW75120   2.039  13.637   6.915 -0.4099  0.1009 -0.0597
85837SOL    HW175121   1.949  13.667   6.906 -1.0229 -1.6341  0.0341
85837SOL    HW275122   2.038  13.546   6.885  1.0588 -0.3485  1.1206
85838SOL     OW75123  13.965   2.993  10.159 -0.4854 -0.7519  0.5077
85838SOL    HW175124  13.946   3.024  10.248 -1.7295 -0.7446  0.2600
85838SOL    HW275125  13.885   2.948  10.132 -1.7049  2.5311 -2.0365
85839SOL     OW75126   2.903   7.537  13.034  0.3270 -0.2819 -0.1140
85839SOL    HW175127   2.833   7.471  13.035 -0.8845  0.9400 -0.3823
85839SOL    HW275128   2.867   7.610  13.083  1.0837  0.6942 -0.9704
85840SOL     OW75129  10.449  13.710  13.744 -0.3501 -0.1818 -0.0995
85840SOL    HW175130  10.431  13.657  13.667 -0.3639 -0.5634  0.1631
85840SOL    HW275131  10.462  13.647  13.814  1.6379  0.0632 -0.1850
85841SOL     OW75132  13.014   0.161  13.371 -0.5084 -0.2373  0.3220
85841SOL    HW175133  12.992   0.253  13.377 -0.8934 -0.3092  0.0105
85841SOL    HW275134  13.064   0.143  13.451 -1.7344 -0.1145  1.1387
85842SOL     OW75135   9.910  10.450   6.892  0.1164 -0.2729 -0.2078
85842SOL    HW175136   9.996  10.492   6.891  0.8539 -1.7352 -0.6603
85842SOL    HW275137   9.908  10.397   6.812 -1.4551  0.1889 -0.5103
85843SOL     OW75138   5.374  11.045  12.532 -0.1951 -0.1915  0.5266
85843SOL    HW175139   5.372  10.950  12.544 -2.4074  0.0242  2.5956
85843SOL    HW275140   5.335  11.060  12.446  0.1209 -1.1206  0.2138
85844SOL     OW75141   1.456   2.364   6.377  0.1227 -0.1430  0.6405
85844SOL    HW175142   1.443   2.349   6.471  0.2362 -1.0844  0.5138
85844SOL    HW275143   1.407   2.445   6.359 -0.3534 -0.2499  1.4012
85845SOL     OW75144  10.988   3.422  14.013 -0.0050  0.0617 -0.0526
85845SOL    HW175145  11.032   3.387  13.936  0.3188  0.3502 -0.0050
85845SOL    HW275146  10.929   3.353  14.042 -0.4103  0.0960 -0.7860
85846SOL     OW75147  10.518   5.737  10.984 -0.6142  0.0498  0.4983
85846SOL    HW175148  10.445   5.737  11.045  0.1078 -0.2770  1.3892
85846SOL    HW275149  10.493   5.674  10.916 -1.1199 -0.1279  0.8456
85847SOL     OW75150   2.311  10.993  10.783 -0.1884  0.4169 -0.1701
85847SOL    HW175151   2.241  11.017  10.845 -1.5777 -2.4061 -0.4797
85847SOL    HW275152   2.265  10.974  10.701  1.2486  0.6809 -1.0765
85848SOL     OW75153  14.045   2.139  12.889  0.0572 -0.0969  0.4527
85848SOL    HW175154  14.056   2.231  12.865 -0.9023  0.2553  1.2887
85848SOL    HW275155  14.009   2.098  12.810  1.4162  0.0189 -0.2512
85849SOL     OW75156   3.729   5.787   9.054 -0.5789 -0.0261 -0.1745
85849SOL    HW175157   3.665   5.735   9.005 -0.5204  1.3925 -1.8693
85849SOL    HW275158   3.683   5.868   9.075 -0.9497 -0.9974  3.1783
85850SOL     OW75159  13.224   7.549  12.489  0.6270 -0.2658  0.1145
85850SOL    HW175160  13.247   7.637  12.519  0.4963 -0.5054  0.9596
85850SOL    HW275161  13.242   7.493  12.565  2.0842 -1.1950 -0.8493
85851SOL     OW75162   4.631   0.400   5.002  0.0219  0.0118 -0.0520
85851SOL    HW175163   4.691   0.471   4.981  1.9192 -1.7557 -0.9547
85851SOL    HW275164   4.642   0.385   5.096 -0.3895  0.8693  0.1418
85852SOL     OW75165  13.006  10.487   9.823 -0.3833  0.6179  0.2727
85852SOL    HW175166  12.949  10.413   9.800  0.1036  0.2733  0.1587
85852SOL    HW275167  13.073  10.488   9.755  0.2103  0.5145  0.8393
85853SOL     OW75168   9.344  11.430  10.849  0.3900  0.3798  0.0242
85853SOL    HW175169   9.294  11.489  10.794 -0.0611 -0.2584 -0.2629
85853SOL    HW275170   9.428  11.473  10.861 -0.4468  1.7872  1.0690
85854SOL     OW75171   7.209   2.861   1.242 -0.5643  0.4512  0.1365
85854SOL    HW175172   7.237   2.876   1.152  2.0747  0.8579  0.9409
85854SOL    HW275173   7.197   2.766   1.247  1.2233  0.1728 -0.1844
85855SOL     OW75174   5.765   2.354  13.965 -0.0749  0.1582 -0.2886
85855SOL    HW175175   5.855   2.332  13.943 -0.8780 -0.3001 -3.6477
85855SOL    HW275176   5.712   2.304  13.903 -2.6084  1.1977  0.9016
85856SOL     OW75177  12.075   4.421   4.105 -0.3402  0.2173 -0.2887
85856SOL    HW175178  12.137   4.400   4.035  0.3963 -0.5798  0.5573
85856SOL    HW275179  12.100   4.509   4.134 -0.5727  0.5021 -0.9368
85857SOL     OW75180  10.550   8.108   2.458  0.8383  0.3675 -0.0367
85857SOL    HW175181  10.581   8.160   2.384  0.0995  0.7819 -0.0686
85857SOL    HW275182  10.569   8.162   2.535  0.3993  0.5301 -0.0395
85858SOL     OW75183   5.077   5.127  13.375 -0.4252  0.6648 -0.0380
85858SOL    HW175184   5.070   5.133  13.470  1.2294  1.2805  0.0692
85858SOL    HW275185   5.020   5.197  13.343 -0.8699  0.5529  0.4961
85859SOL     OW75186   8.566   9.368  14.086  0.0087  0.5201 -0.4565
85859SOL    HW175187   8.476   9.373  14.118  0.0836  1.1754 -0.3328
85859SOL    HW275188   8.559   9.318  14.004 -0.3818  0.0675 -0.1484
85860SOL     OW75189   0.219   7.425   3.995 -0.0627 -0.4784  0.5168
85860SOL    HW175190   0.180   7.356   4.049 -0.9308  0.3701  0.9987
85860SOL    HW275191   0.152   7.446   3.930  1.4676 -2.4615 -1.8853
85861SOL     OW75192   7.696   8.712   2.350 -0.4178 -0.4600  0.0182
85861SOL    HW175193   7.624   8.713   2.287 -0.9946 -0.7845  0.6565
85861SOL    HW275194   7.668   8.649   2.417  0.3696 -0.4332  0.3795
85862SOL     OW75195  14.021   7.082   5.285  0.3591 -0.8810  0.3819
85862SOL    HW175196  14.102   7.118   5.249  0.9531 -0.3059  2.1951
85862SOL    HW275197  13.956   7.150   5.268  0.3871 -1.0561 -0.4861
85863SOL     OW75198   9.430   4.658   6.424  0.2024 -0.1751  0.1395
85863SOL    HW175199   9.421   4.747   6.458 -1.0313  0.2237 -1.1209
85863SOL    HW275200   9.524   4.647   6.412  0.2957  1.5382 -1.1050
85864SOL     OW75201   3.492   2.553  11.705  0.1541 -0.0331 -0.2095
85864SOL    HW175202   3.512   2.460  11.716  2.6801  0.4957  0.3815
85864SOL    HW275203   3.417   2.568  11.762 -0.3941 -1.7159 -0.4236
85865SOL     OW75204   5.103  12.471  13.977 -0.2193 -0.3233 -0.4603
85865SOL    HW175205   5.193  12.501  13.967  0.4531 -2.5350 -1.9892
85865SOL    HW275206   5.091  12.461  14.071  0.8687  0.6858 -0.1922
85866SOL     OW75207   4.047  13.660  10.575 -0.3848  0.0931 -0.4638
85866SOL    HW175208   3.967  13.618  10.541  0.2930 -0.2143 -1.7698
85866SOL    HW275209   4.016  13.719  10.643 -1.4977 -1.6189  0.5804
85867SOL     OW75210   1.672   8.511   9.038 -0.1425  0.2925  0.3913
85867SOL    HW175211   1.702   8.516   8.947 -1.0056  1.0844  0.1352
85867SOL    HW275212   1.750   8.486   9.088  0.0816 -1.3842 -0.7000
85868SOL     OW75213   7.449   8.865  12.416 -0.5985  0.0502 -0.3480
85868SOL    HW175214   7.372   8.855  12.472 -0.0563 -1.9387  0.1048
85868SOL    HW275215   7.413   8.881  12.329 -1.4527  2.4626  0.3578
85869SOL     OW75216  11.028  12.470   4.655  0.1725 -0.3186  0.1635
85869SOL    HW175217  11.085  12.547   4.647  0.4051 -0.5710 -0.7669
85869SOL    HW275218  11.070  12.416   4.722 -0.2331  0.5643  1.1461
85870SOL     OW75219   3.795  10.922  10.485 -0.0105 -0.2626  0.0126
85870SOL    HW175220   3.805  10.828  10.498  0.1660 -0.1630  0.6918
85870SOL    HW275221   3.712  10.933  10.440  1.0381 -0.8869 -2.1777
85871SOL     OW75222   1.845   4.157   8.038 -0.1005  0.3421 -0.7665
85871SOL    HW175223   1.775   4.157   7.973  0.4911 -0.6406 -1.4214
85871SOL    HW275224   1.896   4.236   8.018 -0.5687  0.6526 -0.7651
85872SOL     OW75225   3.869  12.016   1.763  0.5923 -0.1184 -0.3069
85872SOL    HW175226   3.816  12.048   1.690  0.0111  0.3192  0.2993
85872SOL    HW275227   3.893  12.094   1.813 -0.7955 -0.5699  1.1534
85873SOL     OW75228   3.952   1.179  10.567  0.0755  0.1169  0.2060
85873SOL    HW175229   3.975   1.097  10.522  0.6014 -0.5039  1.5619
85873SOL    HW275230   4.007   1.245  10.525 -1.1647  0.0438 -1.6869
85874SOL     OW75231  10.291  13.963  10.415  0.4675 -0.5673 -0.0776
85874SOL    HW175232  10.214  13.965  10.357 -1.2260  0.1118  2.0607
85874SOL    HW275233  10.313  13.871  10.422 -0.4261 -0.8208 -0.4314
85875SOL     OW75234   6.242   4.924   7.371  0.2284 -0.1226  0.5560
85875SOL    HW175235   6.198   4.981   7.434 -0.8105  1.4643 -1.4684
85875SOL    HW275236   6.176   4.858   7.349  1.0415 -1.4989  2.0387
85876SOL     OW75237   9.549   5.504   6.982 -0.4969  0.0876  0.1066
85876SOL    HW175238   9.539   5.531   6.891 -1.3063  1.5475  0.5998
85876SOL    HW275239   9.575   5.412   6.977  1.1181  0.5676 -1.6211
85877SOL     OW75240  10.597   6.175  10.230 -0.0956  0.2765 -0.0382
85877SOL    HW175241  10.674   6.190  10.175 -0.4192  0.4242 -0.4536
85877SOL    HW275242  10.601   6.081  10.250  0.6683  0.4476  0.6732
85878SOL     OW75243   3.459  10.201   0.896  0.5072 -0.1195  0.1651
85878SOL    HW175244   3.536  10.159   0.858 -0.0576 -1.0106 -0.0086
85878SOL    HW275245   3.478  10.206   0.990  0.8636 -0.1456  0.0955
85879SOL     OW75246   3.281   2.113   3.198 -0.1366 -0.6064 -0.3835
85879SOL    HW175247   3.223   2.047   3.160  0.7034 -0.6344 -1.7097
85879SOL    HW275248   3.242   2.133   3.283 -2.5204 -0.0684 -1.5091
85880SOL     OW75249  13.714   1.425  11.191  0.0145  0.3023 -0.4695
85880SOL    HW175250  13.653   1.490  11.154 -1.2438 -0.3933  0.2978
85880SOL    HW275251  13.661   1.345  11.198 -0.1492  0.5643  3.5996
85881SOL     OW75252   3.874  10.314  10.243  0.3536  0.4786 -0.4553
85881SOL    HW175253   3.795  10.310  10.297  0.2490  0.9158 -0.5685
85881SOL    HW275254   3.877  10.405  10.212  0.7252  0.3801 -0.7154
85882SOL     OW75255   6.367   9.502   5.541  0.1665 -0.6303 -0.0377
85882SOL    HW175256   6.409   9.430   5.493  0.1318 -0.4109 -0.4006
85882SOL    HW275257   6.407   9.500   5.628  1.8559  0.3706 -0.7577
85883SOL     OW75258  12.728   8.516   7.530  0.4780 -0.1422  0.4921
85883SOL    HW175259  12.755   8.566   7.607  0.9744  0.3969 -0.0204
85883SOL    HW275260  12.647   8.557   7.502  0.7571  0.2315  0.2165
85884SOL     OW75261  13.448   8.511   7.091 -0.1239 -0.2396  0.2713
85884SOL    HW175262  13.451   8.445   7.021 -0.7342 -0.2914  0.2934
85884SOL    HW275263  13.356   8.518   7.113  0.1078 -0.5444  1.3871
85885SOL     OW75264   3.682  11.626   6.709  0.0614  0.4192  0.1634
85885SOL    HW175265   3.681  11.716   6.678 -2.2576  0.6236  0.6186
85885SOL    HW275266   3.639  11.576   6.640  0.9628 -0.2928  0.0963
85886SOL     OW75267   1.497   5.880   0.254  0.2248  0.1128 -0.4967
85886SOL    HW175268   1.575   5.868   0.201  0.5911  0.1000  0.0434
85886SOL    HW275269   1.501   5.971   0.282  0.3990 -0.0763  0.0936
85887SOL     OW75270  10.064   0.463   3.244 -0.7631  0.1039 -0.4643
85887SOL    HW175271   9.979   0.504   3.228 -0.1265  1.9360  0.5858
85887SOL    HW275272  10.124   0.536   3.255  1.1202 -1.1430 -1.8402
85888SOL     OW75273  12.538   8.697  14.092 -0.1348  0.2141 -0.0262
85888SOL    HW175274  12.483   8.641  14.146  0.9132  0.8547  1.7736
85888SOL    HW275275  12.502   8.785  14.104 -0.3380  0.2764 -0.9870
85889SOL     OW75276   8.312  11.881   7.992  0.7944  0.3112  0.2388
85889SOL    HW175277   8.283  11.793   8.017  1.9895  0.2493  1.5572
85889SOL    HW275278   8.402  11.868   7.963  0.6316  0.9568 -0.5680
85890SOL     OW75279   8.999   6.184   9.138 -0.0078  0.3440 -0.3136
85890SOL    HW175280   9.086   6.179   9.178 -0.0230 -1.9019 -0.4389
85890SOL    HW275281   9.016   6.205   9.046  0.3264  0.8548 -0.1411
85891SOL     OW75282   2.586  11.376   6.972  0.6941  0.2096 -0.0129
85891SOL    HW175283   2.651  11.415   6.914  0.7644  0.8678  0.4884
85891SOL    HW275284   2.504  11.417   6.946  0.7650  0.6955  0.5036
85892SOL     OW75285   1.316   4.752   0.519 -0.1316  0.0622 -0.0831
85892SOL    HW175286   1.279   4.825   0.469  0.3943  0.5791  0.2629
85892SOL    HW275287   1.257   4.679   0.502 -1.8454  1.0803  1.1738
85893SOL     OW75288   0.480   4.542   7.958  0.0268  0.2832  0.5944
85893SOL    HW175289   0.409   4.514   8.015 -1.0520  0.4833 -0.6139
85893SOL    HW275290   0.441   4.548   7.871  1.7292 -0.4696 -0.2832
85894SOL     OW75291   7.760   5.098  10.597 -0.3017  0.0175  0.9352
85894SOL    HW175292   7.685   5.048  10.630 -0.3182 -0.6019  0.0080
85894SOL    HW275293   7.752   5.092  10.501  0.0166  1.3368  0.8165
85895SOL     OW75294   7.069   2.847   8.513 -0.0917 -0.2395  0.7544
85895SOL    HW175295   7.123   2.784   8.464  0.2319 -0.6790  1.6544
85895SOL    HW275296   6.990   2.798   8.536 -0.1873 -0.0760  0.7760
85896SOL     OW75297   6.383   3.658   2.004  0.6015  0.1146  0.0322
85896SOL    HW175298   6.428   3.583   1.965 -0.0985 -0.5245  0.4244
85896SOL    HW275299   6.335   3.697   1.930 -2.1634 -2.1380  0.4363
85897SOL     OW75300   2.045   5.692   5.687  0.7466 -0.0066  0.0854
85897SOL    HW175301   1.986   5.708   5.613  1.7161  0.6789 -0.5532
85897SOL    HW275302   2.132   5.708   5.653  1.1946  0.7628  1.4988
85898SOL     OW75303  12.225   6.895  10.874 -0.0807  0.5051 -0.5105
85898SOL    HW175304  12.300   6.943  10.907 -1.0806  0.7947  1.4855
85898SOL    HW275305  12.261   6.837  10.807  1.9648  0.3643  0.6422
85899SOL     OW75306   5.674   8.499  12.785  0.0424  0.2555  0.1342
85899SOL    HW175307   5.670   8.417  12.834 -1.0174 -0.4151 -1.0192
85899SOL    HW275308   5.587   8.537  12.796  0.1126  0.5765 -0.4051
85900SOL     OW75309   2.747   9.054  13.877 -0.0746 -0.2275 -0.5483
85900SOL    HW175310   2.770   9.082  13.966  0.1444  1.6444 -1.1605
85900SOL    HW275311   2.670   8.998  13.889  0.5725 -0.8701  0.8971
85901SOL     OW75312   1.758   7.654   6.495 -0.3470 -0.0555 -0.0893
85901SOL    HW175313   1.843   7.665   6.453  0.2198 -0.7096  0.8706
85901SOL    HW275314   1.709   7.732   6.469 -0.0193 -0.4203 -1.9416
85902SOL     OW75315   5.272   7.913   5.983 -0.6574  0.0478  0.8258
85902SOL    HW175316   5.212   7.850   5.943 -0.9050  0.8500 -0.1311
85902SOL    HW275317   5.229   7.939   6.064 -0.6445 -0.8598  1.1278
85903SOL     OW75318   7.208   1.088   7.693  0.9173  0.1308 -0.1961
85903SOL    HW175319   7.210   1.009   7.746  0.9469  0.6015  0.5196
85903SOL    HW275320   7.299   1.120   7.693  0.7170  0.7214  0.3852
85904SOL     OW75321   9.028  13.567   5.734 -0.3404 -0.6808 -0.0392
85904SOL    HW175322   8.966  13.632   5.701  0.6622 -0.8126 -2.3598
85904SOL    HW275323   9.075  13.612   5.805 -1.1435  0.3769 -0.1620
85905SOL     OW75324   1.127  10.334   0.726  0.9808  0.2499  0.1494
85905SOL    HW175325   1.145  10.264   0.664  2.2435 -0.0926  0.8559
85905SOL    HW275326   1.038  10.317   0.757 -0.0872  0.9948 -2.2329
85906SOL     OW75327  11.248  13.709   7.890  0.3886  0.2206  0.0481
85906SOL    HW175328  11.302  13.630   7.896  0.5074  0.1728 -1.4373
85906SOL    HW275329  11.288  13.769   7.953 -1.0828 -1.6328  2.9888
85907SOL     OW75330  11.253   9.642   8.715 -0.0518  0.2419  0.6735
85907SOL    HW175331  11.261   9.595   8.798 -1.8970 -1.5336 -0.0610
85907SOL    HW275332  11.197   9.717   8.735 -0.4160 -0.1255  1.0422
85908SOL     OW75333   0.525   9.268   4.063  0.3998 -1.0251 -0.0340
85908SOL    HW175334   0.535   9.208   4.137 -0.1257 -2.0673 -0.7834
85908SOL    HW275335   0.462   9.334   4.094 -0.8411 -2.2009  0.0069
85909SOL     OW75336   2.433   9.042   8.159  0.3996  0.3650 -0.0220
85909SOL    HW175337   2.383   9.082   8.230 -0.5538  0.2839 -0.6211
85909SOL    HW275338   2.521   9.032   8.194 -0.2715 -0.6053  1.5338
85910SOL     OW75339   2.354   9.943   0.957 -0.3964  0.0230 -0.2798
85910SOL    HW175340   2.358   9.954   0.862  0.8507  0.7335 -0.1730
85910SOL    HW275341   2.273   9.986   0.982 -0.0401  1.1101 -0.8917
85911SOL     OW75342  10.144   6.538   2.717  0.1693 -0.5110 -1.0372
85911SOL    HW175343  10.165   6.448   2.741 -1.5554 -1.3297 -2.4371
85911SOL    HW275344  10.209   6.561   2.650  0.1079 -1.0076 -1.2698
85912SOL     OW75345   8.824   6.764   6.069  0.4572 -0.5926 -0.3337
85912SOL    HW175346   8.900   6.724   6.111 -0.1022 -1.7471 -0.3692
85912SOL    HW275347   8.855   6.848   6.037  1.3835 -0.5061  0.7510
85913SOL     OW75348   2.705  10.994   9.625  0.4026  0.1404  0.3405
85913SOL    HW175349   2.659  11.077   9.635 -0.0275 -0.1353  0.6703
85913SOL    HW275350   2.783  11.016   9.574  0.5604  0.8404  0.8656
85914SOL     OW75351  10.747  14.048  12.594  0.3614 -0.7175 -0.1158
85914SOL    HW175352  10.685  14.121  12.586  0.7981 -0.3399 -0.0743
85914SOL    HW275353  10.799  14.051  12.514  0.1783 -1.1788 -0.2554
85915SOL     OW75354  12.678  11.981   5.059 -0.9098 -0.1456  0.1028
85915SOL    HW175355  12.670  11.888   5.035  1.3762 -0.3467 -0.1312
85915SOL    HW275356  12.769  12.003   5.036 -1.4148  2.1649  0.1475
85916SOL     OW75357  13.108   4.025  11.889  0.1675  0.4490  0.0995
85916SOL    HW175358  13.189   3.995  11.931  0.1330  0.1512 -0.0433
85916SOL    HW275359  13.042   4.021  11.958 -0.1025 -0.9708 -0.2176
85917SOL     OW75360   2.241   5.640   1.833  0.1282 -0.5074  0.0557
85917SOL    HW175361   2.175   5.682   1.889  0.6941  1.1378 -0.4663
85917SOL    HW275362   2.324   5.678   1.862  0.4840 -0.0226 -1.5379
85918SOL     OW75363   7.532   9.398   0.661 -0.9897 -0.0925 -0.7530
85918SOL    HW175364   7.454   9.369   0.708 -0.3869 -0.6302 -0.0743
85918SOL    HW275365   7.513   9.379   0.569 -2.2217  1.0722 -0.7662
85919SOL     OW75366   8.401   0.055   9.185 -0.2066 -0.6787 -0.0134
85919SOL    HW175367   8.334   0.060   9.116  0.5029  0.0294 -0.6769
85919SOL    HW275368   8.356   0.081   9.265 -0.0577  3.0857 -0.9650
85920SOL     OW75369   4.040   9.566   1.863  0.1051 -0.6799  0.5533
85920SOL    HW175370   4.128   9.561   1.900  0.0581 -0.5157  0.6861
85920SOL    HW275371   4.005   9.477   1.870 -0.2489 -0.4662  1.7450
85921SOL     OW75372   0.496   1.749   0.665 -0.7202 -0.1574 -0.3660
85921SOL    HW175373   0.581   1.728   0.626 -0.5555 -0.0897 -0.0475
85921SOL    HW275374   0.442   1.672   0.648 -0.8169  0.0900 -1.1982
85922SOL     OW75375   0.888   2.878  11.266 -0.1534 -0.2821  0.6032
85922SOL    HW175376   0.837   2.921  11.198  1.1334  0.5181  0.1027
85922SOL    HW275377   0.833   2.805  11.296 -1.4197  0.3465 -0.1311
85923SOL     OW75378   8.266  13.500   4.517 -0.3621  0.1321  0.1975
85923SOL    HW175379   8.279  13.590   4.487 -2.6015  0.6040  0.4815
85923SOL    HW275380   8.179  13.476   4.485 -1.6264 -0.4122  3.6250
85924SOL     OW75381   2.356  13.507   5.603  0.3528  0.8045  0.2271
85924SOL    HW175382   2.324  13.574   5.543 -0.0650 -1.4343 -2.2246
85924SOL    HW275383   2.330  13.538   5.690 -0.5590  3.3543 -0.8690
85925SOL     OW75384   0.158   5.803   3.842 -0.2514  0.1470  0.2137
85925SOL    HW175385   0.107   5.865   3.895 -1.4295 -0.7213  0.1425
85925SOL    HW275386   0.186   5.854   3.766  0.1669  1.0046  0.9219
85926SOL     OW75387   9.090  13.595   2.903  0.3285  0.6787  1.0367
85926SOL    HW175388   9.017  13.534   2.910  0.6041  0.2446  0.3259
85926SOL    HW275389   9.101  13.630   2.991 -1.4157  1.5794  0.9391
85927SOL     OW75390   2.540   6.283   0.505  0.7546 -0.9336 -0.1870
85927SOL    HW175391   2.635   6.274   0.510  0.7088 -1.8372 -0.7966
85927SOL    HW275392   2.506   6.209   0.555  0.3471  0.4894  1.7447
85928SOL     OW75393  12.473  13.030   5.132  0.1910 -0.1848  0.1407
85928SOL    HW175394  12.563  13.004   5.112  0.4915 -0.2474  1.4699
85928SOL    HW275395  12.467  13.120   5.100  0.6296 -0.2860 -0.2351
85929SOL     OW75396  12.293   2.461   3.949  0.4867 -0.2074 -0.2379
85929SOL    HW175397  12.339   2.523   3.892  2.1474 -0.4057  0.8126
85929SOL    HW275398  12.361   2.401   3.979 -0.7507 -1.4218  0.2408
85930SOL     OW75399   8.283   8.338   5.725 -0.2523 -0.2028  0.2243
85930SOL    HW175400   8.318   8.287   5.652  0.8499  1.8663 -0.8181
85930SOL    HW275401   8.361   8.374   5.768 -0.9567  0.1258  1.2615
85931SOL     OW75402   4.740  10.515   8.871  0.4018 -0.4738 -0.9060
85931SOL    HW175403   4.700  10.600   8.890  0.8205 -0.2598 -0.9696
85931SOL    HW275404   4.684  10.452   8.917 -0.3015 -0.2302 -1.4114
85932SOL     OW75405   7.693   9.279   2.572 -0.2422  0.0528  0.1393
85932SOL    HW175406   7.653   9.196   2.599 -1.2783 -0.1729 -1.9034
85932SOL    HW275407   7.678   9.337   2.646 -0.8256 -1.1737  1.0245
85933SOL     OW75408  10.347   2.055   3.591  0.2283  0.1942 -0.0358
85933SOL    HW175409  10.274   2.114   3.575  1.0713  0.7146 -2.4921
85933SOL    HW275410  10.312   1.968   3.571 -0.2673  0.1668  0.9000
85934SOL     OW75411  12.302  12.215  12.471 -0.1250 -0.1874  0.5159
85934SOL    HW175412  12.232  12.164  12.430  0.9275 -1.7089  0.5310
85934SOL    HW275413  12.261  12.255  12.547 -0.4076 -3.3187  2.1829
85935SOL     OW75414   8.067   8.681   3.666 -0.1118  0.0745 -0.1372
85935SOL    HW175415   8.067   8.688   3.762 -0.4824 -0.1017 -0.1215
85935SOL    HW275416   7.993   8.623   3.647 -2.0920  2.6620 -0.7290
85936SOL     OW75417   7.301  11.497   2.281  0.1342 -0.5228  0.1249
85936SOL    HW175418   7.385  11.534   2.310 -0.3258  0.6591  0.0308
85936SOL    HW275419   7.286  11.539   2.196  0.9291 -3.0741 -1.3830
85937SOL     OW75420   2.346   1.028   1.101 -0.4257 -0.7821 -0.1717
85937SOL    HW175421   2.251   1.029   1.091 -0.3679 -3.3545 -1.7926
85937SOL    HW275422   2.359   1.026   1.196 -2.1565 -3.1956  0.1139
85938SOL     OW75423  12.218   1.659   4.308  0.1753  0.0036  0.1171
85938SOL    HW175424  12.257   1.571   4.307 -1.8580 -0.9783 -2.2698
85938SOL    HW275425  12.272   1.709   4.246  2.4323  1.0917  2.7683
85939SOL     OW75426   3.859   1.039   6.811  0.2944 -0.1141 -0.2933
85939SOL    HW175427   3.888   1.119   6.855 -1.9870  1.2520 -1.0998
85939SOL    HW275428   3.836   1.067   6.723 -1.6946 -1.3886 -0.2349
85940SOL     OW75429   8.374  12.261   2.823  0.0549  0.7757  0.0110
85940SOL    HW175430   8.461  12.222   2.817  0.1439  0.9940 -0.1372
85940SOL    HW275431   8.337  12.224   2.903  0.9875  2.0522  1.1089
85941SOL     OW75432   3.941   5.639   9.020 -0.1412 -0.2288  0.1193
85941SOL    HW175433   3.877   5.710   9.012  0.6900  0.3443 -2.4579
85941SOL    HW275434   4.016   5.679   9.063 -0.8124 -0.4460  1.5612
85942SOL     OW75435   6.298   5.517   4.907 -0.2939 -0.1832 -0.2105
85942SOL    HW175436   6.364   5.562   4.854 -0.7028  0.3037 -0.3182
85942SOL    HW275437   6.217   5.565   4.889 -0.4068  0.1058  0.9907
85943SOL     OW75438   9.656  11.586  14.022  0.5103 -0.0913 -0.3175
85943SOL    HW175439   9.694  11.671  14.044  0.2256 -0.2473  0.8930
85943SOL    HW275440   9.730  11.530  14.001  0.7713  0.1979 -0.1642
85944SOL     OW75441  12.814  13.656   4.852 -0.2687  0.0104 -0.2252
85944SOL    HW175442  12.728  13.629   4.884 -0.1449  0.3724  0.4247
85944SOL    HW275443  12.795  13.722   4.785 -0.5648 -1.4490 -1.6493
85945SOL     OW75444   0.811   1.140   3.245 -0.7939  0.1234  0.3775
85945SOL    HW175445   0.864   1.206   3.201 -1.0491  0.5670  0.7243
85945SOL    HW275446   0.874   1.083   3.288 -0.5873  0.4799  0.5479
85946SOL     OW75447   4.974  12.513   2.807 -0.0885  0.1689 -0.3696
85946SOL    HW175448   4.997  12.466   2.888  1.0009  0.0113 -0.7495
85946SOL    HW275449   5.042  12.487   2.745  0.0668  1.6013 -0.8380
85947SOL     OW75450   2.934   6.273   6.682 -0.5840  0.7318  0.1020
85947SOL    HW175451   2.998   6.270   6.753 -0.4945 -0.1456 -0.0066
85947SOL    HW275452   2.948   6.359   6.641 -0.4944  1.1572  0.9985
85948SOL     OW75453   4.413   3.297  10.197 -0.0922 -0.0582 -0.3253
85948SOL    HW175454   4.347   3.256  10.252 -1.0073  0.5103 -0.9778
85948SOL    HW275455   4.403   3.255  10.112  1.1539 -0.7608 -0.1506
85949SOL     OW75456   6.448  10.955   6.841 -0.0615  0.2991  0.3055
85949SOL    HW175457   6.431  11.025   6.905 -0.1575 -1.0890  1.8741
85949SOL    HW275458   6.371  10.955   6.785 -0.7064  0.5592  1.1603
85950SOL     OW75459   0.575   6.158   9.887  0.1139 -0.6793  0.3137
85950SOL    HW175460   0.514   6.134   9.817  0.2211  0.7862 -0.3128
85950SOL    HW275461   0.519   6.194   9.956  0.0923 -1.3165  0.6396
85951SOL     OW75462   6.320   6.497  11.326 -0.5498  0.0292 -0.2367
85951SOL    HW175463   6.281   6.547  11.254  1.1564 -0.7994 -1.8268
85951SOL    HW275464   6.372   6.429  11.282  2.6238  1.0245  1.6624
85952SOL     OW75465   3.595  13.468   4.985 -0.3599  0.3790 -0.3965
85952SOL    HW175466   3.635  13.525   5.050  1.1106  0.9777 -1.7595
85952SOL    HW275467   3.633  13.382   5.000  0.7653  0.7419 -1.0873
85953SOL     OW75468  12.275   9.212   0.906 -0.0983 -0.0799  0.1233
85953SOL    HW175469  12.323   9.172   0.834  0.0139 -0.7885  0.5725
85953SOL    HW275470  12.339   9.268   0.950 -0.5181  1.4064 -1.0983
85954SOL     OW75471   8.400   1.586   6.969  0.5565  0.3457  0.3962
85954SOL    HW175472   8.478   1.553   7.013  1.0100  0.7254 -0.1095
85954SOL    HW275473   8.351   1.507   6.945  0.7094  0.1103  0.8443
85955SOL     OW75474   7.178  11.160   0.638 -0.3203 -0.2670 -0.1822
85955SOL    HW175475   7.218  11.073   0.646  0.4460  0.1142  0.4115
85955SOL    HW275476   7.092  11.151   0.679 -0.3502 -0.8112 -0.3593
85956SOL     OW75477   8.608   0.662   5.556 -0.1076  0.5579 -0.0368
85956SOL    HW175478   8.653   0.698   5.633 -1.3030 -0.4775  1.2135
85956SOL    HW275479   8.516   0.655   5.584 -0.4638 -0.3758 -1.3755
85957SOL     OW75480   3.112   9.146   7.859 -0.2126  0.0969 -0.4525
85957SOL    HW175481   3.081   9.235   7.844 -1.0578 -0.3129 -1.2202
85957SOL    HW275482   3.100   9.102   7.775 -1.9087 -1.3538  0.4975
85958SOL     OW75483  10.564   9.060   4.550 -0.7083  0.4973 -0.1523
85958SOL    HW175484  10.502   9.061   4.477 -0.3315  1.7290 -0.4770
85958SOL    HW275485  10.644   9.022   4.512 -0.8590  0.1039 -0.0790
85959SOL     OW75486  12.583   1.866   8.668 -0.2768  0.2414  0.7477
85959SOL    HW175487  12.612   1.945   8.714 -1.0100  1.4282 -0.7212
85959SOL    HW275488  12.502   1.893   8.624 -1.3361 -1.7643  1.3537
85960SOL     OW75489  13.875   7.510  13.851 -0.4153 -0.2911  0.2992
85960SOL    HW175490  13.839   7.428  13.817  0.4827 -1.4658  2.0504
85960SOL    HW275491  13.952   7.484  13.901 -0.1189  1.6395  0.9304
85961SOL     OW75492   2.114  10.548  11.220  0.1963  0.0958  0.1048
85961SOL    HW175493   2.055  10.615  11.186  0.7613  0.4277 -0.2513
85961SOL    HW275494   2.154  10.588  11.297  0.2721  0.0399  0.0955
85962SOL     OW75495   7.153   4.122   8.803  0.0905  0.9952 -0.1771
85962SOL    HW175496   7.131   4.083   8.719 -2.7270 -0.7046  1.2304
85962SOL    HW275497   7.174   4.214   8.782 -1.0965  0.7668 -2.6400
85963SOL     OW75498  10.472   4.471   3.940 -0.2895  0.3099  0.7072
85963SOL    HW175499  10.557   4.431   3.960 -0.2003 -0.8321 -1.5927
85963SOL    HW275500  10.491   4.564   3.926  0.5308  0.1115  0.4837
85964SOL     OW75501   4.998   2.956  13.414  0.1134  0.3913  0.3263
85964SOL    HW175502   5.073   2.905  13.442  0.7539  1.2864  0.2921
85964SOL    HW275503   4.966   2.998  13.494  0.7788  1.4408  0.0691
85965SOL     OW75504   5.471   6.528   6.417 -0.4565  0.0907  0.1025
85965SOL    HW175505   5.476   6.492   6.506 -2.8978 -0.4416  0.0934
85965SOL    HW275506   5.562   6.540   6.391  0.3342 -0.1468  2.5066
85966SOL     OW75507  10.754   1.926   0.055  0.7199 -0.2792 -1.0612
85966SOL    HW175508  10.801   2.006   0.079  0.9047 -0.7721  0.2975
85966SOL    HW275509  10.709   1.900   0.135 -0.1753 -0.9815 -1.7763
85967SOL     OW75510  10.901   0.823   0.525 -0.0255 -0.0977  0.1470
85967SOL    HW175511  10.987   0.799   0.491 -1.0327 -2.0598 -1.1924
85967SOL    HW275512  10.911   0.819   0.620  0.9735 -2.0383  0.0090
85968SOL     OW75513  12.288   3.917   6.145 -0.2744 -0.0355  0.3908
85968SOL    HW175514  12.274   3.967   6.065 -0.7657 -1.1184 -0.2333
85968SOL    HW275515  12.258   3.975   6.215 -0.6211  0.6219 -0.2835
85969SOL     OW75516   5.811   1.939   7.059 -0.1922 -0.1549  0.3973
85969SOL    HW175517   5.872   1.963   6.989  0.0260  1.4680  1.0963
85969SOL    HW275518   5.756   2.016   7.070  0.9158  0.3232  3.1969
85970SOL     OW75519   9.711   0.666  11.907 -0.1624  0.4013 -0.0856
85970SOL    HW175520   9.656   0.676  11.985 -0.2100  2.4568 -0.3251
85970SOL    HW275521   9.800   0.657  11.941 -0.3568 -0.4054  0.2327
85971SOL     OW75522   9.972   4.004  13.448 -0.3400  0.0457 -0.2574
85971SOL    HW175523  10.030   4.076  13.472 -1.8762  0.8907  1.1573
85971SOL    HW275524   9.890   4.047  13.422 -1.6935 -1.1651  1.7643
85972SOL     OW75525   2.241  11.162   5.584 -0.0732  0.7165 -0.0757
85972SOL    HW175526   2.256  11.123   5.498 -0.5529 -1.5442  0.7902
85972SOL    HW275527   2.314  11.132   5.638 -0.2584  1.3402  0.5461
85973SOL     OW75528   0.375  12.914   4.932 -0.1640  0.1892  0.5112
85973SOL    HW175529   0.444  12.946   4.990  1.0521  0.3345 -0.9514
85973SOL    HW275530   0.418  12.847   4.878 -1.6800 -1.1658  0.8787
85974SOL     OW75531  13.931   3.136   8.153 -0.3364  0.4548  0.2910
85974SOL    HW175532  13.924   3.174   8.066  0.7307 -0.7952 -0.3856
85974SOL    HW275533  13.875   3.058   8.149  1.1314 -0.6328  0.0827
85975SOL     OW75534  12.237   3.083  10.456  0.0596  0.1416 -0.4120
85975SOL    HW175535  12.218   3.177  10.457 -0.9904 -0.0221  2.2192
85975SOL    HW275536  12.315   3.074  10.511  0.8820 -0.4493 -1.6265
85976SOL     OW75537   5.889   5.967  12.333  0.0312 -0.1205  0.5011
85976SOL    HW175538   5.900   6.062  12.341  1.4298 -0.2731  0.6585
85976SOL    HW275539   5.864   5.939  12.421 -0.1557  0.0675  0.5110
85977SOL     OW75540  10.200   9.121   1.284 -0.6336 -0.4236  0.3359
85977SOL    HW175541  10.277   9.122   1.342 -0.4049  0.0408  0.0282
85977SOL    HW275542  10.199   9.032   1.248  0.1203 -0.2524 -0.1320
85978SOL     OW75543   2.076   5.201   1.255 -0.0131  0.1963  0.1263
85978SOL    HW175544   2.012   5.158   1.311 -0.1497  2.3852  1.7889
85978SOL    HW275545   2.156   5.206   1.307  0.7621 -0.2413 -0.9717
85979SOL     OW75546   3.798   2.569  12.113 -0.5120 -0.0582 -0.3514
85979SOL    HW175547   3.824   2.493  12.165 -1.7693  0.9515  1.8779
85979SOL    HW275548   3.842   2.556  12.028  0.4509 -2.5082  0.4348
85980SOL     OW75549  13.711   1.621   7.405  0.0300  0.2490  0.4238
85980SOL    HW175550  13.769   1.667   7.344 -0.6856  0.0363 -0.4344
85980SOL    HW275551  13.622   1.643   7.375 -0.3666  0.9636  1.9925
85981SOL     OW75552   1.168   7.507   3.129  0.2533  0.1138  0.2681
85981SOL    HW175553   1.169   7.456   3.210  2.1602  1.9048  1.4861
85981SOL    HW275554   1.259   7.536   3.118  0.4163 -1.2703 -3.3936
85982SOL     OW75555  13.501   9.623   0.825  0.2900 -0.0731 -0.0195
85982SOL    HW175556  13.446   9.618   0.747  1.1364  0.1974 -0.6488
85982SOL    HW275557  13.589   9.639   0.791  0.7628 -0.5112  0.9651
85983SOL     OW75558   2.579   2.049   5.802 -0.0929  0.0771 -0.0826
85983SOL    HW175559   2.506   2.094   5.758  0.2714  0.3979 -0.3686
85983SOL    HW275560   2.655   2.105   5.785  0.0210  0.3331  1.1591
85984SOL     OW75561   0.057   9.303  11.990 -0.5641 -0.0779 -0.0329
85984SOL    HW175562  -0.037   9.284  11.994 -0.5346 -1.4657 -3.1149
85984SOL    HW275563   0.063   9.386  11.943 -0.2251  0.2505  0.5741
85985SOL     OW75564   5.012   3.444   0.841  0.8015  0.1618  0.6232
85985SOL    HW175565   4.999   3.363   0.890 -0.5173  0.0667  0.1582
85985SOL    HW275566   4.930   3.457   0.794  1.7240  0.6807 -0.9278
85986SOL     OW75567  13.502   6.349   3.784  0.5952  0.2236  0.0624
85986SOL    HW175568  13.424   6.296   3.766 -0.1242  0.1647  2.9419
85986SOL    HW275569  13.574   6.296   3.750 -0.3271 -1.5179  0.6537
85987SOL     OW75570   8.965   3.655   7.008 -0.0679  0.4320 -0.4311
85987SOL    HW175571   8.918   3.738   7.010  0.8341  0.9498  0.1825
85987SOL    HW275572   9.021   3.661   6.931 -1.1484 -0.2837 -1.3016
85988SOL     OW75573   1.875   4.237   0.848  0.7467  0.0776 -0.5644
85988SOL    HW175574   1.931   4.296   0.899  0.0393  0.1977  0.0949
85988SOL    HW275575   1.930   4.161   0.829  0.5401 -0.7789  1.9044
85989SOL     OW75576   5.572   4.908   1.298 -0.2147  0.2471 -0.4452
85989SOL    HW175577   5.603   4.882   1.211  1.6583 -0.9988  0.5133
85989SOL    HW275578   5.478   4.889   1.297  0.0349 -1.1278 -1.7371
85990SOL     OW75579  11.244  13.237   3.239 -0.3191 -0.4076  0.3150
85990SOL    HW175580  11.163  13.285   3.219 -0.2920 -0.7783 -0.7258
85990SOL    HW275581  11.290  13.294   3.301 -0.8994  0.2947  0.1174
85991SOL     OW75582   6.205  11.982  12.246  0.4393 -0.4393  0.2677
85991SOL    HW175583   6.226  11.988  12.153 -3.2897 -2.3281 -0.9150
85991SOL    HW275584   6.163  12.065  12.267 -2.8200 -1.5219 -1.1956
85992SOL     OW75585  10.415   2.009   7.495 -0.1130 -0.5043  0.1299
85992SOL    HW175586  10.496   1.963   7.476  0.7164  0.0312  2.1060
85992SOL    HW275587  10.431   2.099   7.465 -0.8434 -0.8858 -1.5163
85993SOL     OW75588   9.994   2.560   0.391 -0.0992  0.7773  0.1740
85993SOL    HW175589   9.955   2.596   0.311 -1.2666  0.3079  0.5187
85993SOL    HW275590  10.073   2.515   0.360 -1.4598 -0.9482 -1.0093
85994SOL     OW75591   8.448  11.203  11.492 -0.1775  1.1524  0.3006
85994SOL    HW175592   8.418  11.117  11.464 -1.0391  1.1135  1.2776
85994SOL    HW275593   8.377  11.237  11.546  1.3427  1.2605  2.3439
85995SOL     OW75594   6.096   4.936   0.219 -0.4228  0.2234  0.6461
85995SOL    HW175595   6.018   4.950   0.166  0.1061  3.2033  0.5015
85995SOL    HW275596   6.169   4.951   0.159  0.2903 -1.0187  1.1467
85996SOL     OW75597   1.043   5.264  11.713 -0.4419 -0.2482 -0.8079
85996SOL    HW175598   1.124   5.251  11.761  0.6294  0.2212 -2.3899
85996SOL    HW275599   1.014   5.176  11.691 -0.6275 -0.4388  0.1660
85997SOL     OW75600  13.674   1.061   3.989  0.3431 -0.5122  0.2463
85997SOL    HW175601  13.768   1.060   4.008  0.4114  1.0916  0.1403
85997SOL    HW275602  13.668   1.100   3.902 -0.5720  2.7457  1.6351
85998SOL     OW75603   3.270  12.055   8.681 -0.0683 -0.2305  0.1305
85998SOL    HW175604   3.344  12.087   8.630 -0.2231 -0.0149  0.0356
85998SOL    HW275605   3.202  12.038   8.616  0.4952 -2.2262  0.0026
85999SOL     OW75606   8.691   6.486  13.119  0.2774  0.3687  0.2352
85999SOL    HW175607   8.778   6.519  13.145 -0.2478  0.3918  2.1039
85999SOL    HW275608   8.686   6.400  13.160 -1.7852  1.6451  2.9770
86000SOL     OW75609  13.664   3.590   2.175  0.0757  0.1229 -0.6193
86000SOL    HW175610  13.738   3.534   2.151 -0.3795 -0.3046 -1.0467
86000SOL    HW275611  13.656   3.579   2.270  2.1222  2.1050 -0.1160
86001SOL     OW75612  13.229   2.410  10.399  0.0473  0.3414  0.8184
86001SOL    HW175613  13.152   2.442  10.351 -1.0023 -0.6966  1.7640
86001SOL    HW275614  13.218   2.315  10.400  0.4141  0.2995  2.4827
86002SOL     OW75615   4.059   9.123   2.089 -0.2156 -0.1892  0.3885
86002SOL    HW175616   4.077   9.072   2.011 -1.8495 -1.2743  0.6800
86002SOL    HW275617   4.106   9.077   2.159 -0.9809 -0.8253  0.4988
86003SOL     OW75618   8.326  11.145   2.973  0.1991  0.7500  0.0192
86003SOL    HW175619   8.359  11.083   2.907 -0.8032 -0.1814  0.3757
86003SOL    HW275620   8.348  11.105   3.057  0.1297  1.2102  0.2611
86004SOL     OW75621   9.141   2.201   7.197  0.3230 -0.1374  0.3286
86004SOL    HW175622   9.109   2.135   7.137  0.9889 -0.6090  0.4769
86004SOL    HW275623   9.207   2.250   7.147 -0.0528  0.3223  0.2689
86005SOL     OW75624  13.267   4.063   9.399  0.0988 -0.1022 -0.1653
86005SOL    HW175625  13.281   4.128   9.467 -0.4596 -2.7123  2.6735
86005SOL    HW275626  13.214   4.108   9.333  0.5804  2.5387  1.1083
86006SOL     OW75627   3.896   6.134  11.029 -0.1604 -0.1900  0.0407
86006SOL    HW175628   3.830   6.132  10.960 -0.0534 -0.2665 -0.0595
86006SOL    HW275629   3.978   6.152  10.984 -0.1875  0.3949  0.2265
86007SOL     OW75630   5.363   0.382   2.159  0.9574  0.1298  0.1864
86007SOL    HW175631   5.401   0.440   2.225  1.2318 -0.9542  1.0029
86007SOL    HW275632   5.420   0.392   2.083  0.5219  1.5392  0.0248
86008SOL     OW75633   5.394   6.189   1.231  0.5397  0.3878 -0.2798
86008SOL    HW175634   5.477   6.209   1.276  0.4659  0.8972 -0.3616
86008SOL    HW275635   5.412   6.108   1.184  0.8452  0.2361  0.0902
86009SOL     OW75636  14.046   5.837   0.378  0.2749 -0.0142  0.2224
86009SOL    HW175637  14.078   5.816   0.466  0.2112  0.8585  0.4554
86009SOL    HW275638  13.969   5.782   0.367  1.7123 -2.0607 -0.2948
86010SOL     OW75639   3.401  13.094  10.945  0.2485  0.0282  0.1798
86010SOL    HW175640   3.447  13.105  11.028  1.0813  0.4498 -0.3294
86010SOL    HW275641   3.358  13.178  10.930  1.0729  0.3557 -0.3913
86011SOL     OW75642   5.368   3.243   8.980 -0.0475 -0.6432  0.1127
86011SOL    HW175643   5.285   3.284   8.957 -0.9317 -1.9532  0.8060
86011SOL    HW275644   5.388   3.186   8.905  1.2368  1.0305 -0.9022
86012SOL     OW75645  10.672   0.633   7.034  0.1234 -0.2086 -0.2301
86012SOL    HW175646  10.686   0.539   7.027 -1.1444 -0.4196 -0.1315
86012SOL    HW275647  10.657   0.649   7.127  0.6840  0.1593 -0.1925
86013SOL     OW75648  11.458   4.490   8.107 -0.7897  0.0528 -0.1307
86013SOL    HW175649  11.365   4.469   8.099 -1.0743  1.1051  0.1720
86013SOL    HW275650  11.501   4.437   8.040 -1.5731 -0.6489 -0.0910
86014SOL     OW75651   9.101  11.342   3.840 -0.5593  0.0868  0.0031
86014SOL    HW175652   9.016  11.380   3.818 -1.3911 -0.2361  2.3870
86014SOL    HW275653   9.099  11.254   3.803 -0.7635  0.4720 -0.9377
86015SOL     OW75654   0.181   4.103   5.770  0.8442  0.8225  0.1036
86015SOL    HW175655   0.231   4.077   5.692  0.3072  0.7765 -0.2303
86015SOL    HW275656   0.217   4.049   5.840 -1.1011 -1.8586 -0.8014
86016SOL     OW75657   4.968   9.835   9.054  0.4509  0.2495  0.1526
86016SOL    HW175658   5.011   9.750   9.059  0.7905  0.4348  0.3700
86016SOL    HW275659   4.886   9.823   9.102 -0.0080 -0.2611 -0.7248
86017SOL     OW75660   4.348  13.015   0.503  0.1790 -0.1493 -0.2614
86017SOL    HW175661   4.291  13.049   0.571  1.6416  0.7557  0.5647
86017SOL    HW275662   4.390  13.092   0.465  1.6556 -0.8178 -0.0822
86018SOL     OW75663   8.396   7.994   2.142  0.2079 -0.4572 -0.1350
86018SOL    HW175664   8.385   7.949   2.226 -0.6468  0.8419  0.4807
86018SOL    HW275665   8.328   7.956   2.086  0.4291 -0.9494 -0.0713
86019SOL     OW75666   2.890  10.322  13.888  0.6312  0.1955  0.6545
86019SOL    HW175667   2.848  10.299  13.971  1.8900 -0.2751  1.1913
86019SOL    HW275668   2.819  10.319  13.824 -0.4206  0.8049  1.7353
86020SOL     OW75669  12.486  12.293   2.852  0.0233 -1.1454  0.6032
86020SOL    HW175670  12.419  12.247   2.902 -1.8891 -0.4445 -1.1401
86020SOL    HW275671  12.467  12.386   2.866  1.6351 -0.8879  1.2916
86021SOL     OW75672  13.324  12.188   0.699  0.9262  0.0967  0.5067
86021SOL    HW175673  13.246  12.231   0.733  0.7636 -0.0319  0.2954
86021SOL    HW275674  13.387  12.193   0.771  0.1104 -1.4613  1.3749
86022SOL     OW75675   3.301   1.293   0.698  0.0927  0.0884  0.8192
86022SOL    HW175676   3.206   1.301   0.687  0.3441  0.2104 -2.0196
86022SOL    HW275677   3.314   1.202   0.722 -0.7095 -0.1078  0.5600
86023SOL     OW75678   2.149   7.195   2.104  0.2812  0.1387  0.4151
86023SOL    HW175679   2.190   7.225   2.023 -3.2746  0.7995 -1.3561
86023SOL    HW275680   2.132   7.276   2.153  0.5708 -0.0659  0.8531
86024SOL     OW75681  12.367   9.141   7.750  0.0919  0.0103 -0.2400
86024SOL    HW175682  12.368   9.158   7.656 -2.2274 -2.0379 -0.7389
86024SOL    HW275683  12.460   9.141   7.775  0.6829  2.9889 -1.9576
86025SOL     OW75684   9.629  10.314   6.658 -0.0828 -0.2014 -0.7671
86025SOL    HW175685   9.725  10.320   6.653 -0.1629  2.1194 -0.5317
86025SOL    HW275686   9.612  10.271   6.742  0.7823  0.8869  0.0073
86026SOL     OW75687   5.001   1.627  12.501  0.3210 -0.2601  0.0866
86026SOL    HW175688   4.979   1.684  12.426  0.4212 -0.7982 -0.3600
86026SOL    HW275689   4.980   1.539  12.470  3.4964 -0.9108 -0.5775
86027SOL     OW75690   1.329   1.197  11.682 -0.0350  0.3534  0.3016
86027SOL    HW175691   1.407   1.171  11.633 -1.4782 -0.5852 -1.6112
86027SOL    HW275692   1.303   1.281  11.643 -0.2033  0.4973  0.7138
86028SOL     OW75693   1.963  13.431   8.365 -0.5503 -0.8764 -0.2179
86028SOL    HW175694   1.899  13.459   8.431 -1.3638 -1.1656 -0.8688
86028SOL    HW275695   2.009  13.512   8.340 -0.3695 -0.7361  0.5498
86029SOL     OW75696   8.509   2.702  12.960  0.7286  0.0469  0.4309
86029SOL    HW175697   8.574   2.773  12.957  0.3022  0.4262 -1.1189
86029SOL    HW275698   8.529   2.654  13.040  2.2273  0.8058  0.5508
86030SOL     OW75699   9.117   3.874   4.976  0.2785  0.2272 -0.2512
86030SOL    HW175700   9.102   3.780   4.972 -2.1203  0.5510 -1.2848
86030SOL    HW275701   9.089   3.899   5.064  1.5363 -0.0860  0.2500
86031SOL     OW75702   6.177   3.250   7.232 -0.3725 -0.2389 -0.6953
86031SOL    HW175703   6.166   3.164   7.272 -0.2314 -0.2222 -0.6202
86031SOL    HW275704   6.116   3.250   7.159  0.4560 -0.8390 -1.4128
86032SOL     OW75705  11.904   0.882   5.606  0.1449 -0.4839 -0.0275
86032SOL    HW175706  11.964   0.821   5.650 -1.0354 -0.8738  1.0962
86032SOL    HW275707  11.872   0.939   5.676 -2.0231 -1.3128 -0.2822
86033SOL     OW75708  13.606   4.857  12.627  0.1015 -0.0804 -0.2697
86033SOL    HW175709  13.578   4.892  12.712  0.3343  0.3467 -0.3660
86033SOL    HW275710  13.679   4.913  12.601 -0.5168  0.3317 -1.1546
86034SOL     OW75711   2.822   2.956   2.165 -0.4073  0.0406 -0.4150
86034SOL    HW175712   2.914   2.949   2.142 -0.1293  0.2418  0.5843
86034SOL    HW275713   2.780   2.884   2.118  0.4557 -0.7993  0.0624
86035SOL     OW75714   9.299  12.938   4.794 -0.1151  0.0036 -0.6415
86035SOL    HW175715   9.386  12.916   4.825  0.1204  0.4315 -0.9855
86035SOL    HW275716   9.247  12.950   4.873 -0.2497 -1.7269 -0.4348
86036SOL     OW75717  10.964   9.376   6.491  0.4797 -0.2612  0.3732
86036SOL    HW175718  10.940   9.420   6.573  1.4465  0.0970  0.4711
86036SOL    HW275719  11.050   9.337   6.508  0.3314 -0.8765 -0.2153
86037SOL     OW75720   9.477  10.225  12.508  0.2380 -0.1108  0.1937
86037SOL    HW175721   9.509  10.135  12.519  1.1148  0.1913  0.1199
86037SOL    HW275722   9.458  10.255  12.597  0.2429 -0.2539  0.2443
86038SOL     OW75723   3.456  12.615   6.006  0.0648  0.1896  0.3787
86038SOL    HW175724   3.410  12.560   6.070  0.4778 -0.0305  0.4879
86038SOL    HW275725   3.451  12.703   6.043 -0.4900  0.2126  0.2646
86039SOL     OW75726   8.299  12.733  11.504 -0.5264  0.1565 -0.0853
86039SOL    HW175727   8.319  12.803  11.567  0.0491  0.1856 -0.2884
86039SOL    HW275728   8.241  12.774  11.440 -0.4004  0.3794 -0.0581
86040SOL     OW75729   7.294  13.699  13.888 -0.0224 -0.0763 -0.0389
86040SOL    HW175730   7.387  13.683  13.904 -0.0624 -1.4810 -1.0696
86040SOL    HW275731   7.290  13.744  13.804 -0.3602 -1.7837 -0.9673
86041SOL     OW75732   3.014   3.141   8.170 -0.0899  0.2155  0.2558
86041SOL    HW175733   2.929   3.187   8.169  0.3334  1.0347 -0.7540
86041SOL    HW275734   3.067   3.191   8.232 -0.8657 -1.3837  2.3203
86042SOL     OW75735   7.986  13.624   4.702  0.1638 -0.1847 -0.3425
86042SOL    HW175736   7.977  13.667   4.787 -2.1371 -0.8984 -0.1610
86042SOL    HW275737   7.947  13.684   4.640  3.0422  0.9671 -1.2359
86043SOL     OW75738   8.594   4.260   1.207 -0.0282  0.6304 -0.1560
86043SOL    HW175739   8.500   4.256   1.189  0.1024  1.5717 -1.1924
86043SOL    HW275740   8.608   4.349   1.240  0.2322 -0.0992  1.8516
86044SOL     OW75741  12.702   9.692   9.650 -0.0361 -0.0544 -0.0809
86044SOL    HW175742  12.611   9.665   9.660  0.0803 -1.5810 -2.3568
86044SOL    HW275743  12.700   9.764   9.588  0.2732  0.3643  0.3860
86045SOL     OW75744   9.663  12.898  11.610  0.1438 -0.1955  0.0849
86045SOL    HW175745   9.733  12.888  11.674 -0.4415 -1.3321  0.5692
86045SOL    HW275746   9.655  12.993  11.597 -0.6102  0.1667  2.6766
86046SOL     OW75747  11.141   0.524   4.851  0.3347 -0.0034  0.1223
86046SOL    HW175748  11.120   0.450   4.907  2.3581 -1.1096 -0.5045
86046SOL    HW275749  11.236   0.521   4.841  0.0715  0.0314 -3.4900
86047SOL     OW75750   8.335  11.340   4.130  0.4120  0.1592  0.5721
86047SOL    HW175751   8.404  11.404   4.146  0.9688 -1.0171  3.4456
86047SOL    HW275752   8.381  11.257   4.119 -0.4723 -0.4355  1.1991
86048SOL     OW75753  11.715   2.536   5.921  0.4847  0.5676 -0.6346
86048SOL    HW175754  11.773   2.501   5.989 -0.0799  1.3515  0.2712
86048SOL    HW275755  11.676   2.458   5.882 -1.0746  0.0875  1.6363
86049SOL     OW75756  13.618   2.700   1.249  0.7195  0.2838 -0.1713
86049SOL    HW175757  13.626   2.648   1.169 -1.6594 -0.2581 -0.1319
86049SOL    HW275758  13.648   2.788   1.224 -0.9946  0.4103 -2.0226
86050SOL     OW75759   4.759   7.845   0.293  0.6267  0.2727 -0.1860
86050SOL    HW175760   4.812   7.766   0.286  2.1136  1.2659 -0.4873
86050SOL    HW275761   4.759   7.882   0.205  0.4230  0.9049  0.0735
86051SOL     OW75762   0.759  12.943  13.003 -0.0373 -0.1724  0.3679
86051SOL    HW175763   0.834  12.955  13.061 -0.7358  1.1189  1.0484
86051SOL    HW275764   0.753  13.025  12.954 -0.1836 -0.7887 -0.6847
86052SOL     OW75765   1.632   6.337   5.051 -0.5798  0.5831  0.0394
86052SOL    HW175766   1.695   6.307   5.117 -0.5983  2.0800  0.7750
86052SOL    HW275767   1.618   6.261   4.995  0.3351 -0.3781  1.0689
86053SOL     OW75768   7.645   7.438   1.788  0.0190  0.3752 -0.4526
86053SOL    HW175769   7.582   7.374   1.754  0.1310  0.0509 -0.0636
86053SOL    HW275770   7.676   7.399   1.870 -0.0870  1.0446 -0.0892
86054SOL     OW75771   1.837   6.630   7.766  0.0837  0.1571 -0.4928
86054SOL    HW175772   1.896   6.556   7.776 -1.0903 -0.7420  0.0560
86054SOL    HW275773   1.777   6.603   7.695 -1.1269  0.0156  0.5468
86055SOL     OW75774   3.499   0.709   1.207 -0.6717  0.2987 -0.1457
86055SOL    HW175775   3.534   0.683   1.122 -1.5814  0.4290 -0.5635
86055SOL    HW275776   3.526   0.639   1.267  0.3931  0.4499 -0.4273
86056SOL     OW75777   2.272   6.550   0.974 -0.2668 -0.9367 -0.0439
86056SOL    HW175778   2.334   6.542   0.902 -1.8782 -0.7073 -1.5394
86056SOL    HW275779   2.309   6.496   1.044  2.1120  0.0574 -0.4504
86057SOL     OW75780   2.654   6.834   5.900 -0.0138 -0.2674  0.1391
86057SOL    HW175781   2.611   6.866   5.820  1.2361  0.3461 -0.3239
86057SOL    HW275782   2.684   6.747   5.877  0.8528  0.1287 -0.2820
86058SOL     OW75783   5.730   1.107   3.686 -0.0099 -0.1211 -0.0520
86058SOL    HW175784   5.811   1.131   3.642 -1.0143  1.7771 -0.9885
86058SOL    HW275785   5.756   1.085   3.775  1.5684  0.0681 -0.4393
86059SOL     OW75786   5.249   3.136   7.823  0.0779 -0.1369 -0.1019
86059SOL    HW175787   5.238   3.042   7.805 -1.6459  0.2206 -1.0847
86059SOL    HW275788   5.160   3.171   7.827  0.6689  1.3547  0.9690
86060SOL     OW75789   5.708  10.852   2.867 -0.2087 -0.4133 -0.0257
86060SOL    HW175790   5.755  10.809   2.938 -0.8968  0.1829  0.8070
86060SOL    HW275791   5.630  10.797   2.854 -1.6061  1.0257  1.7102
86061SOL     OW75792   6.491   8.390   3.623 -0.2490 -0.1758 -0.4833
86061SOL    HW175793   6.411   8.367   3.670  0.0096  0.4440  0.2807
86061SOL    HW275794   6.471   8.373   3.531 -1.1811 -0.2299 -0.2776
86062SOL     OW75795  11.888   4.992  11.544  0.1866 -0.0238  0.6035
86062SOL    HW175796  11.919   4.901  11.551  0.3960 -0.3313 -2.5701
86062SOL    HW275797  11.968   5.042  11.527 -0.2476  0.2030 -0.9084
86063SOL     OW75798   5.256  13.542   8.421  0.0851  0.1911 -0.7903
86063SOL    HW175799   5.308  13.622   8.432 -0.3932  0.3124  0.8640
86063SOL    HW275800   5.319  13.471   8.432  0.3125  0.3270 -1.1804
86064SOL     OW75801   5.012   6.900   3.367  0.8004  0.7170 -0.0446
86064SOL    HW175802   4.917   6.890   3.358  0.8785 -2.1103  1.1255
86064SOL    HW275803   5.048   6.852   3.292  1.2893  0.2013  0.5082
86065SOL     OW75804  14.033   2.310   4.435 -0.6840 -0.2788 -0.0504
86065SOL    HW175805  13.995   2.378   4.380  0.6830  0.4949 -0.0926
86065SOL    HW275806  14.123   2.301   4.403  0.3041  0.4757  2.2536
86066SOL     OW75807   2.208  13.897   4.413 -0.1008  0.0698 -0.4754
86066SOL    HW175808   2.220  13.986   4.380 -1.1732 -0.0155 -1.1559
86066SOL    HW275809   2.145  13.906   4.484 -0.3785 -0.1580 -0.6873
86067SOL     OW75810  13.462   8.471   4.624  0.3018  0.5281 -0.2250
86067SOL    HW175811  13.388   8.447   4.680 -0.2073  0.8069 -0.7618
86067SOL    HW275812  13.423   8.527   4.556  1.0270  0.7742 -0.4460
86068SOL     OW75813  12.851   5.167   4.480 -0.0122  0.1161  0.4358
86068SOL    HW175814  12.912   5.239   4.496  1.1509 -0.4532 -1.1284
86068SOL    HW275815  12.884   5.095   4.533  0.5497 -0.1046 -0.1920
86069SOL     OW75816  11.216   4.196   8.743  0.1417  0.0778 -0.6931
86069SOL    HW175817  11.208   4.113   8.791 -1.7105  0.8557  0.4735
86069SOL    HW275818  11.292   4.239   8.782 -0.5860  0.1411  0.7176
86070SOL     OW75819   7.851   0.070   7.124 -0.0023 -0.3313 -0.0476
86070SOL    HW175820   7.866   0.043   7.215 -2.4195  2.9853  1.5770
86070SOL    HW275821   7.905   0.148   7.113 -0.2604 -0.3102 -1.2488
86071SOL     OW75822   0.558   2.474  11.006 -0.1994 -0.5429  0.5782
86071SOL    HW175823   0.585   2.469  10.914  1.2879 -1.5829  1.0267
86071SOL    HW275824   0.520   2.389  11.024 -3.5614  0.6969  0.1268
86072SOL     OW75825   1.571  11.859  11.487 -0.2120  0.4390  0.2094
86072SOL    HW175826   1.594  11.769  11.462  0.7838  0.7683 -0.0904
86072SOL    HW275827   1.630  11.880  11.559 -1.1714  0.4891  1.0039
86073SOL     OW75828   6.276  11.069   9.565 -0.4469 -0.3350  0.0287
86073SOL    HW175829   6.195  11.105   9.529 -0.1529 -1.1229 -1.4917
86073SOL    HW275830   6.260  11.064   9.659 -2.4010 -1.0251 -0.3009
86074SOL     OW75831  11.969  11.284   5.465  0.0548 -0.0040  0.1943
86074SOL    HW175832  11.912  11.245   5.531  1.5344  0.2785  1.7020
86074SOL    HW275833  11.940  11.375   5.457 -0.1739 -0.0607  0.3969
86075SOL     OW75834   2.941  13.787   5.361  0.2873  1.0047 -0.1907
86075SOL    HW175835   2.863  13.778   5.307  1.2695  1.7675 -1.7958
86075SOL    HW275836   2.914  13.757   5.448 -1.4638  0.2059 -0.9796
86076SOL     OW75837   5.318  10.255   7.455  0.1824  0.1931 -0.7462
86076SOL    HW175838   5.325  10.287   7.365  2.2592 -2.0090 -1.4564
86076SOL    HW275839   5.250  10.188   7.452  0.0685  0.3024 -0.6176
86077SOL     OW75840   9.828   6.129   0.046 -0.1425 -0.2671  1.2859
86077SOL    HW175841   9.853   6.085   0.127  0.1349  0.0819  1.3899
86077SOL    HW275842   9.829   6.222   0.068  0.3321 -0.1467  0.7714
86078SOL     OW75843   5.055   1.577  11.196  0.1813 -0.5482  0.3613
86078SOL    HW175844   5.029   1.649  11.253 -0.3448 -0.4210 -0.0389
86078SOL    HW275845   5.120   1.615  11.137 -1.6969  0.2038 -1.3177
86079SOL     OW75846   5.017   8.890   9.066 -0.5485  0.2011  0.2571
86079SOL    HW175847   5.010   8.828   8.993  2.0401  0.0947  0.0147
86079SOL    HW275848   4.946   8.952   9.051 -0.4810 -0.1707 -2.0312
86080SOL     OW75849   3.658  10.742   4.998 -0.7497  0.1366  0.2796
86080SOL    HW175850   3.689  10.828   5.027 -1.3022  0.4008  0.0958
86080SOL    HW275851   3.712  10.679   5.046 -0.6249  0.5832  0.7240
86081SOL     OW75852   0.947   1.812  11.895  0.0267  0.5473 -0.9449
86081SOL    HW175853   1.008   1.884  11.914  0.4872  0.0250 -0.4221
86081SOL    HW275854   0.982   1.773  11.815  0.4888  0.1395 -0.5502
86082SOL     OW75855  12.246   3.643   8.232 -0.1286 -0.2428 -0.0901
86082SOL    HW175856  12.276   3.580   8.167  0.9619 -0.0507  0.1990
86082SOL    HW275857  12.192   3.705   8.183  2.3597  1.1382 -1.3026
86083SOL     OW75858   2.046   4.229   6.941 -0.0022  0.4396 -0.1322
86083SOL    HW175859   2.078   4.175   7.012  0.9353 -0.1467 -0.9705
86083SOL    HW275860   1.960   4.261   6.970 -0.5968 -1.5128  0.3669
86084SOL     OW75861   7.579  13.567  11.115 -0.1791 -0.7843  0.1001
86084SOL    HW175862   7.500  13.593  11.162  1.3306  1.0389  1.8134
86084SOL    HW275863   7.601  13.481  11.152 -1.3897 -1.3748 -0.4982
86085SOL     OW75864   2.960   5.152  13.816  0.2747  0.1112 -0.3904
86085SOL    HW175865   3.031   5.216  13.824  0.2834  0.0423  0.0906
86085SOL    HW275866   2.967   5.098  13.894  1.6330 -1.8720 -1.7675
86086SOL     OW75867   1.771   4.476   0.395 -0.5668  0.5448 -0.5148
86086SOL    HW175868   1.810   4.395   0.428 -1.2464  0.7597  0.8912
86086SOL    HW275869   1.846   4.528   0.364  0.1575  0.4568  1.0040
86087SOL     OW75870   5.750  13.796   6.547 -0.2944  0.3422 -0.2046
86087SOL    HW175871   5.788  13.726   6.494 -1.6416  0.6138 -1.5784
86087SOL    HW275872   5.744  13.871   6.487 -0.7441  1.0267  0.6736
86088SOL     OW75873  12.971  10.840   2.968  0.1960  0.5601 -0.1337
86088SOL    HW175874  13.037  10.773   2.985 -0.0582  0.8148  2.2867
86088SOL    HW275875  12.989  10.870   2.879  0.8315 -2.0943 -0.9787
86089SOL     OW75876   7.927   0.226  11.147 -0.1511  0.1333 -0.1627
86089SOL    HW175877   7.843   0.197  11.111  1.0011 -0.5795 -2.4305
86089SOL    HW275878   7.928   0.320  11.133 -0.5808  0.1499 -0.0941
86090SOL     OW75879   0.514   1.618   7.630  0.0843  0.0914 -0.9557
86090SOL    HW175880   0.604   1.637   7.656 -0.0855  1.0368 -1.0214
86090SOL    HW275881   0.517   1.608   7.535 -0.0258  1.0685 -1.0717
86091SOL     OW75882   2.045   0.063   4.049  0.6558 -0.4670  0.0248
86091SOL    HW175883   2.127   0.090   4.090  1.2108  0.0717 -1.3752
86091SOL    HW275884   1.977   0.111   4.096  1.0920 -1.1244  1.3816
86092SOL     OW75885   8.343   6.651   2.511  0.2369  0.0196 -0.1823
86092SOL    HW175886   8.418   6.611   2.555  2.2182  1.4097 -2.1498
86092SOL    HW275887   8.325   6.594   2.437 -0.4653 -0.1038  0.0690
86093SOL     OW75888   5.598   3.109  11.574  0.5816 -0.3527  0.2659
86093SOL    HW175889   5.543   3.055  11.631 -0.5942  0.6494  0.1104
86093SOL    HW275890   5.680   3.119  11.623 -0.6368  1.0837  2.1689
86094SOL     OW75891   8.491   2.386   4.923 -0.5766 -0.3113 -0.2293
86094SOL    HW175892   8.417   2.443   4.903  0.7076  0.2596 -4.3679
86094SOL    HW275893   8.462   2.299   4.894 -0.6305 -0.7042  0.9632
86095SOL     OW75894   8.518   2.969   3.886 -0.2213  0.9400  0.2940
86095SOL    HW175895   8.477   3.028   3.823 -1.2467 -0.3854 -0.3216
86095SOL    HW275896   8.460   2.970   3.962 -0.2644  0.7058  0.2660
86096SOL     OW75897   1.584   5.481   4.968  0.0331  0.3227  0.1238
86096SOL    HW175898   1.513   5.532   5.006  0.3858 -0.4044  1.9115
86096SOL    HW275899   1.550   5.391   4.967  0.2755  0.2389 -0.7166
86097SOL     OW75900   2.212   1.879  13.408 -0.0740 -0.0606  0.1770
86097SOL    HW175901   2.151   1.875  13.482 -0.5301  0.8861 -0.1416
86097SOL    HW275902   2.181   1.812  13.347  1.1486 -1.8786  1.4409
86098SOL     OW75903   7.674   1.387   8.870  0.2625  0.1303  0.5209
86098SOL    HW175904   7.734   1.434   8.928 -0.5880 -0.9600  2.3827
86098SOL    HW275905   7.692   1.294   8.888 -2.3147 -0.2337  1.5811
86099SOL     OW75906   1.096   8.151   5.697  0.7639  0.5046  0.2907
86099SOL    HW175907   1.031   8.082   5.683  0.2690  0.7267  1.4380
86099SOL    HW275908   1.050   8.218   5.747  1.8296  0.7444  0.9742
86100SOL     OW75909  13.267  12.694   6.345  0.5766 -0.0041  0.5893
86100SOL    HW175910  13.316  12.616   6.322 -0.0945 -0.5082  0.8330
86100SOL    HW275911  13.280  12.754   6.271  2.1990  0.1906  1.0112
86101SOL     OW75912   5.236   0.526  10.111  0.0155 -0.3355  0.3209
86101SOL    HW175913   5.230   0.477  10.193 -1.6154 -0.9268 -0.1056
86101SOL    HW275914   5.313   0.491  10.067 -0.0307 -1.1544  0.8797
86102SOL     OW75915  10.909   7.098   2.992  0.2887 -0.2317  0.5063
86102SOL    HW175916  10.960   7.126   3.068  0.7387  0.6858 -0.1277
86102SOL    HW275917  10.847   7.169   2.977  0.1079 -0.4750  0.0904
86103SOL     OW75918   9.907   9.766   1.418  0.0627  0.0566  0.1526
86103SOL    HW175919   9.926   9.679   1.382 -0.6442  1.0590 -2.9601
86103SOL    HW275920   9.983   9.819   1.394  0.7815  0.2550  2.5786
86104SOL     OW75921  13.604   3.530   9.820 -0.1660 -0.0331  0.1295
86104SOL    HW175922  13.614   3.603   9.881  2.1529  1.1471 -1.5234
86104SOL    HW275923  13.522   3.549   9.773 -1.6418 -0.6273  2.2910
86105SOL     OW75924   7.057  12.967   4.832  0.1947 -0.0156  0.2076
86105SOL    HW175925   7.036  13.050   4.788  1.4310  1.1688  1.7164
86105SOL    HW275926   7.146  12.980   4.864  0.2229 -1.7647  0.9057
86106SOL     OW75927  13.370   3.034   3.576 -0.1277 -0.4792  0.1377
86106SOL    HW175928  13.331   3.113   3.614 -0.2356 -1.2601  1.7140
86106SOL    HW275929  13.413   3.065   3.496  0.0783  1.2318  0.8634
86107SOL     OW75930  11.387   8.630   3.011 -0.6176 -0.1160 -0.1089
86107SOL    HW175931  11.325   8.647   2.940 -0.4005  0.1078 -0.2434
86107SOL    HW275932  11.391   8.535   3.017  0.2150 -0.1667 -1.1485
86108SOL     OW75933   2.849   9.194   0.021 -0.3175 -0.1323 -0.0901
86108SOL    HW175934   2.826   9.251  -0.053 -0.0573  0.4107  0.2387
86108SOL    HW275935   2.853   9.254   0.096 -1.1830 -0.7661  0.4836
86109SOL     OW75936   1.400   5.178  11.183  0.1041 -0.0331 -0.2137
86109SOL    HW175937   1.315   5.203  11.220 -0.4769 -2.3366  0.1539
86109SOL    HW275938   1.465   5.216  11.242 -0.6188  2.1943 -0.7780
86110SOL     OW75939   5.705   2.211   3.084 -0.3930  0.0282  0.9395
86110SOL    HW175940   5.635   2.276   3.081  0.0339  0.4962  1.0855
86110SOL    HW275941   5.751   2.223   3.000  0.1726  0.4617  1.3066
86111SOL     OW75942   8.263   2.515   4.832  0.0193  0.6220 -0.7008
86111SOL    HW175943   8.257   2.590   4.891  1.7931  1.1150 -1.0812
86111SOL    HW275944   8.190   2.525   4.772 -0.1780  1.6500 -0.3035
86112SOL     OW75945   9.440  11.972   4.470  0.2544 -0.3148 -0.4890
86112SOL    HW175946   9.502  11.992   4.541  2.0069  2.1624 -2.5699
86112SOL    HW275947   9.368  12.033   4.484 -0.9359 -1.9127  0.8198
86113SOL     OW75948   6.228   9.194  11.340 -0.1806 -0.7370  0.1203
86113SOL    HW175949   6.278   9.188  11.258 -0.7213 -0.0275 -0.2739
86113SOL    HW275950   6.152   9.138  11.325 -1.8926  1.7231 -1.0951
86114SOL     OW75951   5.720   8.859   2.402  0.2072 -0.1789 -0.2450
86114SOL    HW175952   5.786   8.868   2.333 -0.5254  2.1928 -0.7458
86114SOL    HW275953   5.737   8.932   2.461  0.2705 -1.6695  1.6981
86115SOL     OW75954  10.317  11.438   8.496  0.1190  0.2544 -0.2087
86115SOL    HW175955  10.324  11.484   8.412 -0.4796 -0.0061 -0.4031
86115SOL    HW275956  10.361  11.354   8.480 -1.1906 -0.3668 -0.6914
86116SOL     OW75957  11.553  14.090  13.039  0.7544 -0.1588 -0.0207
86116SOL    HW175958  11.571  14.130  12.954  0.4126 -1.7707 -0.8996
86116SOL    HW275959  11.490  14.020  13.020  2.2704 -1.9636  1.1904
86117SOL     OW75960  13.908   1.107  12.652  0.6564 -0.6308 -0.5901
86117SOL    HW175961  13.831   1.054  12.629  1.6310 -2.4688  0.1808
86117SOL    HW275962  13.929   1.153  12.571 -0.2584 -1.4077 -1.3043
86118SOL     OW75963  13.259  13.799   7.514  0.4983  0.5806  0.1483
86118SOL    HW175964  13.315  13.792   7.591 -0.3182  1.3695  0.8384
86118SOL    HW275965  13.275  13.887   7.480  2.0143 -0.2746 -1.5457
86119SOL     OW75966   5.642   9.768   3.515  0.4520 -0.5142 -0.0764
86119SOL    HW175967   5.651   9.813   3.599  1.2766 -1.1454  0.1903
86119SOL    HW275968   5.684   9.683   3.529 -1.0984 -1.3904 -0.5527
86120SOL     OW75969  13.570   3.159   7.564  0.4489  0.2352 -0.3394
86120SOL    HW175970  13.499   3.203   7.515 -0.0401 -0.8480 -0.6355
86120SOL    HW275971  13.592   3.083   7.510  1.8305  0.5346 -0.2252
86121SOL     OW75972  12.675  12.308   9.283  0.0270 -0.4858 -0.9105
86121SOL    HW175973  12.605  12.275   9.340  0.1027  3.4129  1.8442
86121SOL    HW275974  12.752  12.313   9.340  0.2550  3.0700 -1.2597
86122SOL     OW75975  10.315   4.565   1.387  0.2656 -0.0074 -0.0997
86122SOL    HW175976  10.334   4.475   1.361  0.0612 -0.0634 -0.0636
86122SOL    HW275977  10.390   4.616   1.358  0.2135 -0.1295 -0.4486
86123SOL     OW75978   9.608   3.241   8.810  0.1116 -0.3526 -0.0879
86123SOL    HW175979   9.670   3.198   8.751 -1.4667 -0.2182 -1.9262
86123SOL    HW275980   9.523   3.232   8.767 -1.4721 -1.7931  3.0195
86124SOL     OW75981   9.079   9.730   7.481 -0.9157 -0.3312 -0.0493
86124SOL    HW175982   9.006   9.677   7.449 -0.9176 -0.4414  0.1309
86124SOL    HW275983   9.082   9.806   7.424 -0.6439 -0.7367 -0.5808
86125SOL     OW75984   5.062  13.690  12.248 -0.1423 -0.3596 -0.4728
86125SOL    HW175985   5.025  13.714  12.163 -1.2238  1.8305  0.5479
86125SOL    HW275986   5.005  13.731  12.312  1.7090 -0.3918  1.2997
86126SOL     OW75987  14.078  10.750  10.097 -0.1281 -0.1417  0.2402
86126SOL    HW175988  14.001  10.787  10.055  0.9279 -0.2651 -1.9156
86126SOL    HW275989  14.047  10.667  10.134 -0.9568 -0.3612 -0.9022
86127SOL     OW75990  13.987   2.566  11.146  0.2426 -0.2127 -0.1341
86127SOL    HW175991  13.928   2.606  11.209 -1.4194 -0.7498 -1.2660
86127SOL    HW275992  13.954   2.477  11.135  0.6656 -0.2278 -1.5193
86128SOL     OW75993  12.187  12.175   8.604 -0.3987  0.3588 -0.3252
86128SOL    HW175994  12.282  12.182   8.592 -0.6664  3.0249 -1.8137
86128SOL    HW275995  12.168  12.083   8.587  1.6771  0.2186 -2.6047
86129SOL     OW75996   4.574   4.899  13.214 -0.1306 -0.0678 -0.2173
86129SOL    HW175997   4.607   4.958  13.282 -1.9112 -0.9810  1.5559
86129SOL    HW275998   4.487   4.874  13.245 -1.0357 -0.5462 -2.8790
86130SOL     OW75999  11.642   1.063   3.147  0.7357 -0.3741  0.1727
86130SOL    HW176000  11.730   1.027   3.134  0.6421 -0.9019  0.8916
86130SOL    HW276001  11.591   1.031   3.073  1.5075  1.2386 -1.1291
86131SOL     OW76002   4.595  11.857   6.634 -0.1311  0.3591  0.1354
86131SOL    HW176003   4.540  11.814   6.699 -0.6946  0.3477 -0.3360
86131SOL    HW276004   4.628  11.935   6.677 -3.0990  2.1509 -0.5298
86132SOL     OW76005   5.770   7.409   1.043 -0.1772  0.2036 -0.3020
86132SOL    HW176006   5.689   7.457   1.060 -0.1661  0.8615 -1.9881
86132SOL    HW276007   5.833   7.476   1.019  0.7202 -0.3658  0.4164
86133SOL     OW76008  13.077   1.857   7.969 -0.0233  0.0185 -0.1441
86133SOL    HW176009  13.143   1.790   7.957  0.2559  0.4222 -0.9686
86133SOL    HW276010  13.123   1.939   7.951 -0.5678  0.3568 -0.0156
86134SOL     OW76011  11.420  12.413   1.809 -0.3160 -0.2547 -0.0681
86134SOL    HW176012  11.449  12.420   1.900 -1.6542  1.2325  0.2856
86134SOL    HW276013  11.500  12.425   1.757  0.2774  0.0802  0.9019
86135SOL     OW76014   4.049   5.889   4.166  0.2460  0.0106  0.1874
86135SOL    HW176015   4.079   5.876   4.256  0.6531 -2.5181 -0.2481
86135SOL    HW276016   4.124   5.868   4.111  0.0660  1.7158 -0.7911
86136SOL     OW76017  10.688   6.408   0.439  0.0813  0.1401 -0.8512
86136SOL    HW176018  10.693   6.503   0.433  0.4329  0.0284 -3.1977
86136SOL    HW276019  10.610   6.391   0.493  1.1150  1.7182  1.2591
86137SOL     OW76020   8.030   1.324   8.950  0.2266  0.4022  0.4473
86137SOL    HW176021   7.960   1.354   9.008 -0.1881  0.8026 -0.2391
86137SOL    HW276022   8.079   1.404   8.928 -0.3531  0.4746 -0.6961
86138SOL     OW76023  11.449  12.657   0.309 -0.4084  0.7057 -0.6562
86138SOL    HW176024  11.531  12.703   0.291  0.6360 -0.0372  1.7897
86138SOL    HW276025  11.414  12.700   0.387 -1.7074  0.1434 -0.8967
86139SOL     OW76026  13.892   1.415  12.693  0.0887 -0.3715 -0.1593
86139SOL    HW176027  13.861   1.504  12.676  0.5226  0.1184  1.4767
86139SOL    HW276028  13.875   1.368  12.611 -0.1824  1.1938 -1.0441
86140SOL     OW76029   7.236   2.311   5.818  0.0323 -0.3068  0.2380
86140SOL    HW176030   7.185   2.281   5.893 -0.3411  1.8618  0.9303
86140SOL    HW276031   7.264   2.231   5.774 -2.0320 -1.5962  1.1351
86141SOL     OW76032   3.614   6.602   3.249 -0.8436 -0.0041  0.4538
86141SOL    HW176033   3.667   6.647   3.183 -0.0824 -0.0547  1.0095
86141SOL    HW276034   3.612   6.511   3.221 -1.3874  0.1508 -0.0366
86142SOL     OW76035   0.341  12.248   2.429 -0.2590 -0.0947 -0.0537
86142SOL    HW176036   0.394  12.298   2.366  0.0807  0.0103  0.3108
86142SOL    HW276037   0.312  12.314   2.493 -1.6976  0.0434 -0.8067
86143SOL     OW76038   5.880  11.919   9.752 -0.2037 -0.0444  0.0013
86143SOL    HW176039   5.896  11.855   9.822 -0.2652  0.6542  0.6768
86143SOL    HW276040   5.790  11.947   9.766  0.1162  0.8699  0.2980
86144SOL     OW76041   6.955  13.142   3.305 -0.2920 -0.3930 -0.1505
86144SOL    HW176042   6.921  13.206   3.242  2.3709  0.7538 -0.5573
86144SOL    HW276043   6.912  13.163   3.387  1.3670  2.8749  0.0512
86145SOL     OW76044  12.736   0.862   9.551 -0.0236 -0.6221 -0.4413
86145SOL    HW176045  12.720   0.885   9.643  1.9426  0.9282 -0.4114
86145SOL    HW276046  12.655   0.887   9.506 -0.1786  0.7859  0.5550
86146SOL     OW76047   4.155   6.307   1.673 -0.1495 -0.3937 -0.6842
86146SOL    HW176048   4.101   6.358   1.734  1.7541 -1.7624  2.4026
86146SOL    HW276049   4.105   6.227   1.657  0.8897 -1.8206  2.4475
86147SOL     OW76050   8.251  12.888  12.391  0.5613 -0.6765  0.3868
86147SOL    HW176051   8.241  12.869  12.298  1.8014 -1.5427  0.3981
86147SOL    HW276052   8.327  12.836  12.418  0.0749 -0.6395  1.9401
86148SOL     OW76053   7.281  11.201   8.743 -0.1264 -0.4525 -0.8379
86148SOL    HW176054   7.325  11.282   8.717 -2.9644  1.1869 -0.9630
86148SOL    HW276055   7.280  11.147   8.664  0.3535  0.0911 -1.2249
86149SOL     OW76056   2.619   7.923   9.904 -0.5225  0.5443  0.3004
86149SOL    HW176057   2.656   7.855   9.960 -2.9008 -2.0846 -1.1006
86149SOL    HW276058   2.694   7.954   9.852  0.8504 -0.1056  1.8223
86150SOL     OW76059   8.485  12.679   1.113  0.7011 -0.3311  0.2286
86150SOL    HW176060   8.451  12.737   1.182  2.9246 -0.0813  1.2025
86150SOL    HW276061   8.468  12.727   1.032  2.3982  1.7437  0.9968
86151SOL     OW76062   1.575   2.304  11.616  0.2055 -0.0951 -0.2689
86151SOL    HW176063   1.484   2.331  11.623 -0.6650 -1.6594 -3.6154
86151SOL    HW276064   1.572   2.208  11.621  1.3144 -0.3177 -2.5397
86152SOL     OW76065   5.215  11.921   3.260  0.2631 -0.9579 -0.2667
86152SOL    HW176066   5.255  12.005   3.238 -0.8411  0.0192  1.2094
86152SOL    HW276067   5.156  11.902   3.188 -0.0267 -0.0792 -0.2666
86153SOL     OW76068   8.852   9.287   5.425 -0.0472 -0.1623  0.1818
86153SOL    HW176069   8.876   9.347   5.496  1.5505 -1.0993  0.4855
86153SOL    HW276070   8.818   9.344   5.356  0.3078  0.9713  0.9096
86154SOL     OW76071   1.517   2.568   9.440  0.1286  0.2021  0.2784
86154SOL    HW176072   1.486   2.630   9.506 -1.2854 -0.6913  0.5196
86154SOL    HW276073   1.578   2.511   9.487  1.2330  1.2187  0.1166
86155SOL     OW76074   4.299  11.752   0.993 -0.1462  0.1136 -0.9420
86155SOL    HW176075   4.342  11.667   0.990  0.4288  0.3814 -0.6479
86155SOL    HW276076   4.206  11.734   0.983 -0.0707 -0.5835 -0.3943
86156SOL     OW76077  13.726  10.174   4.944 -0.2386  0.1064 -0.4676
86156SOL    HW176078  13.700  10.125   4.866  0.4483  0.2861 -0.8218
86156SOL    HW276079  13.646  10.215   4.975 -0.8631 -1.3318 -0.0887
86157SOL     OW76080   2.607  10.813   7.436 -0.0912 -0.2075 -0.2910
86157SOL    HW176081   2.557  10.853   7.508 -1.9997 -2.4043 -0.2922
86157SOL    HW276082   2.545  10.808   7.363  1.8329  2.0557 -2.2486
86158SOL     OW76083   5.871   6.213   4.637 -0.3853  0.5232  0.4173
86158SOL    HW176084   5.964   6.235   4.649  0.1931 -0.6915 -1.3757
86158SOL    HW276085   5.842   6.271   4.566  0.1304 -1.6774 -1.7199
86159SOL     OW76086  11.888  10.926  12.707  0.2192 -0.3925  0.2558
86159SOL    HW176087  11.915  11.014  12.679  0.1597  0.0288  1.4784
86159SOL    HW276088  11.971  10.879  12.719  0.2556 -1.2768 -2.5792
86160SOL     OW76089  13.352   8.237   2.037  0.0565  0.1620 -0.4819
86160SOL    HW176090  13.441   8.206   2.050  0.8684 -0.1153 -4.9367
86160SOL    HW276091  13.303   8.158   2.012 -0.9211  0.6472 -0.1361
86161SOL     OW76092  13.894  10.498  12.106  0.5591  0.0259 -0.8234
86161SOL    HW176093  13.916  10.587  12.080  2.0222 -0.3225 -0.8981
86161SOL    HW276094  13.857  10.458  12.028 -0.7960  0.7499 -0.5906
86162SOL     OW76095  12.820   0.807  13.859 -0.5282  0.0684  0.1828
86162SOL    HW176096  12.897   0.820  13.914 -0.0572  0.0743 -0.4719
86162SOL    HW276097  12.796   0.894  13.830 -0.4468  0.0092 -0.0620
86163SOL     OW76098   3.258  13.530   9.159 -0.2148 -0.6298 -0.4053
86163SOL    HW176099   3.248  13.483   9.076 -0.8930 -2.3765  0.5916
86163SOL    HW276100   3.271  13.460   9.224 -0.3470  0.6389  1.0445
86164SOL     OW76101   4.271   0.256   9.262  0.3914 -0.0835  0.0348
86164SOL    HW176102   4.325   0.271   9.184  0.2501  2.0131  0.2655
86164SOL    HW276103   4.333   0.254   9.335  0.2782  1.3824  0.1988
86165SOL     OW76104  13.592   3.037  10.812  0.4587  0.3589 -0.0270
86165SOL    HW176105  13.515   2.979  10.812  0.5244  0.2703  0.6351
86165SOL    HW276106  13.595   3.073  10.900  1.6084 -0.2106  0.1858
86166SOL     OW76107   0.637   6.421   8.381  0.5328  0.0387 -0.7149
86166SOL    HW176108   0.729   6.404   8.361  0.5404  0.5142 -1.1014
86166SOL    HW276109   0.592   6.414   8.297  0.3219  0.4823 -0.6442
86167SOL     OW76110   8.434   0.576   6.711  0.7379  0.1677 -0.3406
86167SOL    HW176111   8.384   0.651   6.743  0.0329  0.1483 -1.3652
86167SOL    HW276112   8.521   0.613   6.691  0.7315  0.4763  0.1809
86168SOL     OW76113   6.775   0.737   0.382  0.3396  0.2412 -0.9273
86168SOL    HW176114   6.767   0.698   0.295  2.7864 -0.2415 -1.0051
86168SOL    HW276115   6.697   0.707   0.429 -0.0639 -1.0765 -2.3472
86169SOL     OW76116   1.261   3.557   3.886  0.5309 -0.1751  0.0823
86169SOL    HW176117   1.341   3.609   3.886  0.1608  0.4540 -1.2435
86169SOL    HW276118   1.223   3.572   3.799  0.9263 -3.4714 -0.8127
86170SOL     OW76119   6.276  11.107   4.356  0.4071  0.6711  0.6891
86170SOL    HW176120   6.260  11.072   4.443 -0.7626  1.3523  0.7736
86170SOL    HW276121   6.371  11.105   4.346  0.4690 -0.7127  1.4179
86171SOL     OW76122   0.019   1.675   4.490  0.0895 -0.0272 -0.0879
86171SOL    HW176123   0.104   1.708   4.461 -0.5938  0.8664 -1.1370
86171SOL    HW276124  -0.035   1.753   4.501 -1.0527 -0.6635 -0.9641
86172SOL     OW76125   3.629   6.575   4.488  0.4928 -0.2213  0.2867
86172SOL    HW176126   3.608   6.585   4.581  0.0422  0.3841  0.1273
86172SOL    HW276127   3.638   6.480   4.476 -0.8861 -0.4271  0.6573
86173SOL     OW76128   1.789   8.613   7.614 -0.9434  0.1449 -0.0575
86173SOL    HW176129   1.747   8.691   7.649 -1.1479 -0.8353  2.0078
86173SOL    HW276130   1.876   8.643   7.585 -0.4514  0.9108  2.0453
86174SOL     OW76131   6.634   6.417   3.141  0.0708  0.4505  0.0067
86174SOL    HW176132   6.596   6.369   3.215  0.6417  1.5384  1.0355
86174SOL    HW276133   6.563   6.422   3.077  0.0439 -1.9144 -0.2541
86175SOL     OW76134  12.492   8.322   7.394  0.2720 -0.2890 -0.7153
86175SOL    HW176135  12.565   8.302   7.337  0.8943  0.0019 -0.0351
86175SOL    HW276136  12.480   8.417   7.387  0.6784 -0.1757  0.0076
86176SOL     OW76137   7.556   1.413   7.075  0.1134 -0.0836  0.1534
86176SOL    HW176138   7.559   1.337   7.017 -2.4184  0.7535 -1.2628
86176SOL    HW276139   7.616   1.476   7.035 -0.5763 -0.0214 -0.8228
86177SOL     OW76140   0.459   5.668   1.700 -0.0612  0.5670  0.5783
86177SOL    HW176141   0.446   5.763   1.696  1.2852  0.8738  2.4567
86177SOL    HW276142   0.465   5.641   1.608 -2.9369  1.8789 -0.1128
86178SOL     OW76143   4.147  13.405  10.001  0.8717 -0.4326 -0.6274
86178SOL    HW176144   4.126  13.491  10.038 -2.9304 -1.5929  0.3507
86178SOL    HW276145   4.125  13.413   9.909  2.1777  0.0652 -0.9180
86179SOL     OW76146   7.528   2.076   5.534  0.0591 -0.2630 -0.5547
86179SOL    HW176147   7.475   2.111   5.606  1.1345 -0.7972  0.5374
86179SOL    HW276148   7.479   2.000   5.502  0.1754 -0.7851  0.4791
86180SOL     OW76149   2.339   3.924   5.101  0.0439  0.1665 -0.5862
86180SOL    HW176150   2.384   3.999   5.139 -1.6210  1.1002 -0.3327
86180SOL    HW276151   2.317   3.868   5.176 -0.9844  0.7432 -0.4295
86181SOL     OW76152   9.486  12.047   5.301 -0.9934 -0.0834  0.2447
86181SOL    HW176153   9.426  12.021   5.371 -1.1799 -1.6165 -0.4463
86181SOL    HW276154   9.452  12.004   5.222  0.3981 -0.1160 -0.3766
86182SOL     OW76155   1.508  12.349   5.468  0.1812  0.1636  0.0379
86182SOL    HW176156   1.460  12.306   5.397  1.9759 -0.3673 -0.9251
86182SOL    HW276157   1.485  12.300   5.547  0.8376 -1.5117 -0.7691
86183SOL     OW76158   8.825   9.625  12.191  0.2422  0.3887  0.1126
86183SOL    HW176159   8.878   9.546  12.200 -1.4079 -0.7063  0.8778
86183SOL    HW276160   8.818   9.659  12.280  0.1847  0.8757 -0.0768
86184SOL     OW76161   2.280  12.067   8.913  0.1624 -0.0466  0.6088
86184SOL    HW176162   2.307  12.146   8.959 -1.2498  0.6420  0.3082
86184SOL    HW276163   2.223  12.022   8.975 -1.1708  0.5269 -0.1574
86185SOL     OW76164   1.298  11.943   5.761 -0.0419 -0.5217  0.1550
86185SOL    HW176165   1.236  11.877   5.729 -0.0632 -0.9101  0.9621
86185SOL    HW276166   1.382  11.916   5.725 -0.1059 -0.8074  0.2164
86186SOL     OW76167   8.520   4.365   0.203 -0.0438 -0.1533 -0.0245
86186SOL    HW176168   8.505   4.336   0.113 -2.2965  0.1749  0.1762
86186SOL    HW276169   8.478   4.450   0.208 -0.5445 -0.4556  1.5021
86187SOL     OW76170   4.358   8.126   0.580  0.3636  0.5134 -0.1936
86187SOL    HW176171   4.376   8.163   0.667  0.9566  2.5067 -1.1134
86187SOL    HW276172   4.429   8.063   0.566  0.5212  0.5097  0.5627
86188SOL     OW76173   4.117   9.217  11.005 -0.1047  0.0015 -0.3688
86188SOL    HW176174   4.066   9.270  11.067 -0.7530 -1.1831  0.1300
86188SOL    HW276175   4.197   9.196  11.053 -0.6197 -0.9413  0.0969
86189SOL     OW76176   4.498   6.623   3.606  0.2120  0.7804 -0.1672
86189SOL    HW176177   4.483   6.717   3.607  0.7476  0.9265 -1.7424
86189SOL    HW276178   4.568   6.611   3.542 -1.5094 -0.8908 -1.8880
86190SOL     OW76179   7.604   2.346   4.296  0.3775 -1.1310  0.4160
86190SOL    HW176180   7.608   2.254   4.321 -0.6175 -1.7332 -1.5022
86190SOL    HW276181   7.680   2.360   4.240 -0.2003 -1.1555 -0.3891
86191SOL     OW76182   9.038   4.250  12.814  0.5096  0.2610 -0.5886
86191SOL    HW176183   9.062   4.171  12.863  2.7147  0.6330 -0.9750
86191SOL    HW276184   9.026   4.219  12.724 -2.0711 -0.1660 -0.1684
86192SOL     OW76185   5.168   9.066   5.661 -0.1331 -0.2281  0.2553
86192SOL    HW176186   5.223   8.993   5.689 -1.0366 -0.9335  0.2182
86192SOL    HW276187   5.150   9.050   5.569  0.0495  0.2983  0.1213
86193SOL     OW76188  12.133  11.679  10.621 -0.0284 -0.6457  0.3948
86193SOL    HW176189  12.191  11.708  10.691  0.2631  0.4360 -0.2557
86193SOL    HW276190  12.087  11.758  10.594 -0.8864 -1.2479  0.0542
86194SOL     OW76191  10.082   8.057   1.545 -0.1410  0.3569  0.6302
86194SOL    HW176192  10.113   8.012   1.467  3.3249  1.2802  1.2766
86194SOL    HW276193  10.035   7.991   1.595 -0.1281 -0.9451 -1.0122
86195SOL     OW76194   0.714  11.059  11.495 -0.0783  0.5166  0.0552
86195SOL    HW176195   0.713  11.150  11.466  2.1714  0.4146 -0.5469
86195SOL    HW276196   0.679  11.010  11.420 -2.0598  0.8855  0.6742
86196SOL     OW76197  10.324   2.567   5.926  0.2749  0.4737  0.2068
86196SOL    HW176198  10.251   2.542   5.871  0.9599 -0.9892 -0.0888
86196SOL    HW276199  10.390   2.601   5.865  0.3867  0.4533  0.3148
86197SOL     OW76200   3.328   7.177   6.759 -0.0196 -0.1246  0.7900
86197SOL    HW176201   3.349   7.132   6.841 -0.5197  0.7494  1.4213
86197SOL    HW276202   3.297   7.264   6.787 -0.1128  0.2164 -0.3308
86198SOL     OW76203   4.206  10.420   7.574 -0.1217  0.1754 -0.5929
86198SOL    HW176204   4.126  10.370   7.556 -0.5923  0.9425 -0.6548
86198SOL    HW276205   4.191  10.461   7.659  0.2494  0.2366 -0.5532
86199SOL     OW76206  10.050   9.603   2.613 -0.4358 -0.0965 -0.0802
86199SOL    HW176207  10.137   9.616   2.650 -0.9561  2.5112  0.4885
86199SOL    HW276208   9.995   9.581   2.689 -0.5070 -0.4267 -0.2256
86200SOL     OW76209  10.479   1.373  14.068 -0.0472  0.1921  0.7478
86200SOL    HW176210  10.438   1.460  14.069 -0.9464 -0.2137  0.3959
86200SOL    HW276211  10.539   1.376  13.994 -0.5219  0.3268  0.3573
86201SOL     OW76212   2.255   2.413   8.731  0.5231 -0.3127  0.5109
86201SOL    HW176213   2.168   2.414   8.692  0.7702  0.7284 -0.0818
86201SOL    HW276214   2.279   2.321   8.735 -0.2962 -0.5605 -0.0292
86202SOL     OW76215   4.029   1.847   8.952  0.0458  0.2957 -0.4315
86202SOL    HW176216   4.007   1.855   8.859 -0.2549  0.5069 -0.3438
86202SOL    HW276217   4.060   1.757   8.962  1.7634  0.7740 -1.0824
86203SOL     OW76218   4.315  12.072   8.056  0.2270 -0.7810 -0.0697
86203SOL    HW176219   4.364  12.095   8.135  0.3797  0.1765 -0.4332
86203SOL    HW276220   4.383  12.051   7.992  0.1589  0.1604 -0.4570
86204SOL     OW76221   7.120   3.374  13.166  0.5794  0.5768  0.0002
86204SOL    HW176222   7.091   3.415  13.085  0.6785  0.5489 -0.0496
86204SOL    HW276223   7.197   3.324  13.141 -1.3193 -2.2349 -0.6087
86205SOL     OW76224   1.421  12.397  11.739 -0.2249 -0.1045  0.1854
86205SOL    HW176225   1.506  12.353  11.747 -0.4463 -0.5588  0.1058
86205SOL    HW276226   1.389  12.402  11.829  0.5009  1.3430  0.3972
86206SOL     OW76227   0.405  13.868   8.765  0.3138  0.4687  0.3805
86206SOL    HW176228   0.471  13.815   8.810  0.5115 -0.5475 -1.0136
86206SOL    HW276229   0.447  13.953   8.753  1.0575  0.1022  0.2870
86207SOL     OW76230   4.801   9.359   1.939  0.3263  0.0840 -0.2906
86207SOL    HW176231   4.796   9.328   1.848  1.9544  1.6286 -0.9668
86207SOL    HW276232   4.871   9.306   1.978  1.4688  1.2104 -0.7523
86208SOL     OW76233   0.065  11.310   4.878  0.0963  0.2256 -0.1217
86208SOL    HW176234   0.083  11.265   4.960 -0.7483  0.0117 -0.0449
86208SOL    HW276235   0.151  11.328   4.840  0.5344  1.1408  1.2388
86209SOL     OW76236  13.885  11.550   2.166 -0.1163 -0.5784  0.3824
86209SOL    HW176237  13.903  11.525   2.075  0.2313 -2.1130  0.8398
86209SOL    HW276238  13.972  11.564   2.204 -0.1720 -1.3777  0.8378
86210SOL     OW76239  11.273   1.648   2.927  0.3198  0.2126  0.2314
86210SOL    HW176240  11.300   1.641   3.019 -0.6830 -2.9161  0.4260
86210SOL    HW276241  11.353   1.671   2.881  0.9702  1.3106  1.7986
86211SOL     OW76242  13.424   1.303  10.615  0.5168  0.0304 -0.3561
86211SOL    HW176243  13.337   1.314  10.653  0.6105 -1.3966  0.3289
86211SOL    HW276244  13.463   1.231  10.664  1.6956 -0.0434 -1.3547
86212SOL     OW76245   2.556  11.961  11.622  0.8094 -0.1496  0.1135
86212SOL    HW176246   2.565  11.991  11.532  1.2455 -2.1268 -0.5396
86212SOL    HW276247   2.599  12.029  11.674  0.1509  1.2563 -1.0887
86213SOL     OW76248   4.481   4.577   6.488  0.0804 -0.0046  0.4048
86213SOL    HW176249   4.516   4.666   6.487  1.1056 -0.4021 -0.3458
86213SOL    HW276250   4.505   4.543   6.574  0.4725  0.1491  0.3588
86214SOL     OW76251   0.071   3.255  11.545 -0.0792  0.3836 -0.1597
86214SOL    HW176252   0.048   3.315  11.474 -0.7355  1.3729  0.8619
86214SOL    HW276253   0.102   3.311  11.615  0.1450 -0.5458  0.5067
86215SOL     OW76254   5.120  10.771   2.504 -0.0887  0.1045  0.2584
86215SOL    HW176255   5.127  10.726   2.420 -0.2837  0.3281  0.1211
86215SOL    HW276256   5.205  10.813   2.517 -0.4533  1.0744 -0.4027
86216SOL     OW76257  12.408   8.628   6.525 -0.4219 -0.1117  0.1854
86216SOL    HW176258  12.488   8.680   6.529 -1.8277  2.4573 -2.0334
86216SOL    HW276259  12.343   8.680   6.572 -0.8045 -2.4430  2.4987
86217SOL     OW76260   3.604   2.513   7.682  0.2652  0.2304  0.3889
86217SOL    HW176261   3.598   2.418   7.690 -2.0267  0.4011  1.4785
86217SOL    HW276262   3.646   2.527   7.597  3.2288 -1.6891  1.3791
86218SOL     OW76263   6.013   6.744   7.795  0.5340  0.5575  0.3279
86218SOL    HW176264   6.058   6.659   7.791  2.1021  1.3112  0.8558
86218SOL    HW276265   6.084   6.806   7.811 -0.9491  1.6059  3.4164
86219SOL     OW76266   4.074   4.870  12.153 -0.1489 -0.4721  0.0698
86219SOL    HW176267   4.144   4.936  12.144  0.6835 -1.1825  1.0219
86219SOL    HW276268   4.003   4.917  12.196  0.3571 -0.1281  0.5457
86220SOL     OW76269  10.854   4.902   6.370  0.1182  0.1894  0.0232
86220SOL    HW176270  10.863   4.871   6.280 -0.5373 -0.6501  0.2470
86220SOL    HW276271  10.802   4.982   6.363  2.0643  1.4764 -0.5837
86221SOL     OW76272   9.307  13.002  12.149 -0.0028 -0.0723 -0.4452
86221SOL    HW176273   9.253  13.061  12.097  0.5452  0.4654 -0.4131
86221SOL    HW276274   9.319  13.046  12.233 -0.0055 -0.4564 -0.2369
86222SOL     OW76275   2.776   5.778   9.181  0.0311 -0.2809  0.1653
86222SOL    HW176276   2.704   5.840   9.168  1.5392  1.3240 -1.0865
86222SOL    HW276277   2.759   5.708   9.119 -0.2074  0.3373 -0.4912
86223SOL     OW76278  10.951   7.916   2.563  0.0305  0.0856 -0.6636
86223SOL    HW176279  11.045   7.926   2.574  0.1073 -0.4884 -0.7918
86223SOL    HW276280  10.913   7.966   2.636  0.5013 -2.7144  1.7030
86224SOL     OW76281   0.619  12.417   5.605  0.3273 -0.0388  0.3641
86224SOL    HW176282   0.629  12.472   5.526  0.0477 -1.5166 -0.7362
86224SOL    HW276283   0.532  12.439   5.638  1.5456  2.7685  2.0362
86225SOL     OW76284   7.450   7.336   1.089  0.2419  0.0590 -0.3283
86225SOL    HW176285   7.464   7.335   1.184  0.4169 -0.0747 -0.3553
86225SOL    HW276286   7.416   7.424   1.071  4.0424  1.6652 -0.6981
86226SOL     OW76287   5.754   1.316   4.452 -0.1147  0.1049  0.0176
86226SOL    HW176288   5.802   1.301   4.371  1.1064  0.4171  0.6683
86226SOL    HW276289   5.742   1.411   4.456  0.7587  0.1970  0.7058
86227SOL     OW76290   2.826   7.257   9.846  0.2995  0.2515 -0.1867
86227SOL    HW176291   2.789   7.169   9.840  1.6287 -0.2850 -0.8036
86227SOL    HW276292   2.813   7.282   9.937 -0.8982 -0.2090 -0.2111
86228SOL     OW76293   8.162  12.810   1.160  0.1999 -0.2135  0.0647
86228SOL    HW176294   8.098  12.822   1.090  0.6757 -0.6436 -0.4557
86228SOL    HW276295   8.141  12.725   1.199  1.0258 -0.8111 -0.7401
86229SOL     OW76296   6.878   8.127   1.781  0.3282  0.1401  0.2503
86229SOL    HW176297   6.795   8.091   1.811 -0.3738  1.1590 -0.4379
86229SOL    HW276298   6.926   8.148   1.861  0.6991 -2.0855  0.6907
86230SOL     OW76299   2.949  11.714   9.414  0.2559 -0.4440  0.4177
86230SOL    HW176300   2.870  11.707   9.360 -0.0631 -0.9211  0.9270
86230SOL    HW276301   3.019  11.677   9.360  0.0594 -0.3353  0.0913
86231SOL     OW76302   1.846   5.874   7.787  0.0771 -0.2694 -0.0721
86231SOL    HW176303   1.823   5.943   7.725  1.7281  0.2916 -0.0960
86231SOL    HW276304   1.800   5.796   7.755 -3.0211  1.0559  0.7472
86232SOL     OW76305   9.361   9.334   5.105 -0.7677 -0.4054  0.2092
86232SOL    HW176306   9.307   9.362   5.031  1.0669 -0.2450 -1.1219
86232SOL    HW276307   9.431   9.282   5.066  0.5245  0.0752  1.7634
86233SOL     OW76308   6.684   3.249   1.915 -0.2618  0.4018  0.1400
86233SOL    HW176309   6.608   3.255   1.857 -1.0421  0.1676  1.1139
86233SOL    HW276310   6.695   3.339   1.948 -1.1274  0.1528  1.2109
86234SOL     OW76311  10.796  10.109  13.066 -0.2528  0.1249 -0.2159
86234SOL    HW176312  10.711  10.103  13.022 -0.6323 -0.0950  0.5292
86234SOL    HW276313  10.776  10.098  13.159  0.4417  1.3626  0.1000
86235SOL     OW76314   4.134   2.940   0.904  0.0314 -0.2707 -0.0271
86235SOL    HW176315   4.134   2.854   0.863  0.0437 -0.2712 -0.0261
86235SOL    HW276316   4.172   2.999   0.839  1.0099 -0.4551  0.3633
86236SOL     OW76317   1.934   7.601   5.210  0.5779  0.0847  0.7265
86236SOL    HW176318   1.844   7.618   5.237  0.5635  0.8094  0.2629
86236SOL    HW276319   1.978   7.686   5.222  1.1549 -0.2229  0.7976
86237SOL     OW76320   9.631   9.731   6.827  0.0772 -0.0604 -0.8031
86237SOL    HW176321   9.585   9.653   6.858  1.1773 -0.1095  0.8477
86237SOL    HW276322   9.562   9.797   6.817 -0.6550 -0.7920 -0.6487
86238SOL     OW76323   5.909   0.242   5.643  0.0504  0.9100 -0.2014
86238SOL    HW176324   5.931   0.331   5.671  0.8848  0.0587  2.0827
86238SOL    HW276325   5.898   0.193   5.724 -2.0084 -0.7402 -1.3625
86239SOL     OW76326   7.279   4.071   9.035 -0.1381  0.1625  0.1875
86239SOL    HW176327   7.228   4.069   8.954 -0.6222 -0.7983  0.5019
86239SOL    HW276328   7.361   4.026   9.013 -1.1749 -2.1834  0.7862
86240SOL     OW76329  12.682  13.871  10.086  0.0590 -0.2312  0.4154
86240SOL    HW176330  12.751  13.896  10.024 -1.3885  0.4716 -0.9756
86240SOL    HW276331  12.627  13.810  10.037  0.3457 -1.7765  1.9238
86241SOL     OW76332   3.217   0.986   6.133  0.2864  0.0422 -0.1116
86241SOL    HW176333   3.153   1.025   6.192  0.6427 -0.3596  0.5541
86241SOL    HW276334   3.165   0.943   6.065 -0.1720 -0.5060  0.5706
86242SOL     OW76335   3.181   9.545   1.880 -0.1359 -0.4740 -0.0746
86242SOL    HW176336   3.203   9.638   1.883 -1.5456 -0.1475  1.9997
86242SOL    HW276337   3.145   9.533   1.792 -0.1889  0.9929 -0.2928
86243SOL     OW76338   0.953   1.136   4.076  0.1709  0.3343 -0.5625
86243SOL    HW176339   0.930   1.102   3.989 -0.8392 -1.0985  0.2311
86243SOL    HW276340   0.876   1.188   4.102  0.9083  1.6638 -0.9415
86244SOL     OW76341  13.977  10.442  13.627 -0.2009  0.0202  0.2742
86244SOL    HW176342  14.032  10.507  13.584  2.2225 -1.5733  0.7743
86244SOL    HW276343  13.931  10.491  13.695 -2.1053  2.0569 -2.2336
86245SOL     OW76344  10.239   9.725  10.641  0.0131  0.1482  0.8090
86245SOL    HW176345  10.258   9.799  10.584 -0.0007  1.0898  1.9961
86245SOL    HW276346  10.323   9.704  10.682 -0.2144  0.3044  1.3762
86246SOL     OW76347   4.373   9.868   6.701  0.2888 -0.4197 -0.0161
86246SOL    HW176348   4.440   9.887   6.636  0.2436 -0.8935 -0.2093
86246SOL    HW276349   4.336   9.953   6.724 -0.8099 -0.3423 -1.8273
86247SOL     OW76350  11.816   6.279  12.662  0.3088 -0.1251  0.1574
86247SOL    HW176351  11.807   6.297  12.756 -0.7972 -1.4979  0.3521
86247SOL    HW276352  11.729   6.294  12.627  0.9435  1.3398 -0.8626
86248SOL     OW76353  11.563  10.018  12.052 -0.1478  0.8735 -0.0145
86248SOL    HW176354  11.571  10.074  11.975 -0.7694  1.1655  0.1287
86248SOL    HW276355  11.506   9.946  12.023  0.1666  0.6249 -0.0215
86249SOL     OW76356   3.836   4.906  12.559 -0.3849 -0.1736 -0.2310
86249SOL    HW176357   3.878   4.824  12.585 -0.0416  0.3903  1.0944
86249SOL    HW276358   3.908   4.968  12.553 -0.9349  0.7638  1.8725
86250SOL     OW76359  13.725   4.161  12.151  0.5679 -0.4069  0.4594
86250SOL    HW176360  13.726   4.077  12.198  0.7538 -0.0902  1.0404
86250SOL    HW276361  13.786   4.148  12.078 -0.7428 -1.3500 -0.5171
86251SOL     OW76362   5.079   1.927   2.173 -0.0463  0.3697  1.1910
86251SOL    HW176363   5.124   1.908   2.091 -1.2796  1.1758  0.3099
86251SOL    HW276364   5.146   1.913   2.240  0.9026 -0.5801  0.0955
86252SOL     OW76365   8.959   1.467   9.106  0.6380  0.2508 -0.2013
86252SOL    HW176366   8.905   1.531   9.059 -2.5817 -1.8174  0.4123
86252SOL    HW276367   9.006   1.520   9.171 -1.8014  2.1022  0.2340
86253SOL     OW76368   9.597   8.099  11.098  0.3992 -0.4599  0.7669
86253SOL    HW176369   9.575   8.006  11.095  1.1333 -0.6189 -1.2438
86253SOL    HW276370   9.657   8.107  11.172  1.5549 -1.9011  0.0270
86254SOL     OW76371   1.172   6.153   6.238 -0.0165  0.8363 -1.0638
86254SOL    HW176372   1.250   6.111   6.276 -0.0338  1.3754 -0.4175
86254SOL    HW276373   1.204   6.194   6.158  0.3751  1.0788 -0.7869
86255SOL     OW76374   8.996  12.949   3.410 -0.2600 -0.7310 -0.0378
86255SOL    HW176375   8.971  13.027   3.458  2.6723  1.3743 -1.5844
86255SOL    HW276376   8.915  12.899   3.400 -2.3500  2.2630  0.7163
86256SOL     OW76377   5.274  11.915   2.460  0.4012  0.1642 -0.0760
86256SOL    HW176378   5.327  11.989   2.488  1.2506 -0.8767  1.1772
86256SOL    HW276379   5.326  11.838   2.483 -1.4266 -0.8995  0.7309
86257SOL     OW76380   2.162   5.667  11.897  0.0197  0.2756 -0.4030
86257SOL    HW176381   2.236   5.675  11.837 -0.2212 -1.2469 -0.9470
86257SOL    HW276382   2.085   5.686  11.843 -0.0437  1.2800  0.0193
86258SOL     OW76383   2.396   7.091   6.586 -0.0522  0.1160 -0.3308
86258SOL    HW176384   2.337   7.024   6.550  1.5248 -0.8122 -1.2883
86258SOL    HW276385   2.367   7.102   6.676 -1.8072 -0.1629 -0.8166
86259SOL     OW76386   5.513  12.324  10.153  0.4125  0.0293  0.2333
86259SOL    HW176387   5.519  12.329  10.057  0.0280  1.3474  0.2504
86259SOL    HW276388   5.440  12.382  10.175  0.7660  0.0798  1.3488
86260SOL     OW76389   3.948   8.047   6.163  0.1683 -0.1514 -0.5457
86260SOL    HW176390   4.012   8.035   6.093 -0.1863 -0.7126 -0.7784
86260SOL    HW276391   3.997   8.091   6.232  1.3823 -2.3621  0.0981
86261SOL     OW76392   8.796   7.648   1.804  0.9659  0.3446 -0.7641
86261SOL    HW176393   8.849   7.670   1.880  0.5779 -1.1804 -0.0154
86261SOL    HW276394   8.771   7.557   1.817 -1.0231  0.7072 -1.5896
86262SOL     OW76395  12.796   5.766   4.576  0.4310  0.1013  0.2037
86262SOL    HW176396  12.889   5.747   4.574  0.4702  0.1786  0.8464
86262SOL    HW276397  12.753   5.684   4.554  0.6464 -0.0528  0.3550
86263SOL     OW76398   7.131   6.535   1.743  0.0075  0.2292  0.0147
86263SOL    HW176399   7.136   6.461   1.682 -0.7310  0.2995 -0.1504
86263SOL    HW276400   7.103   6.609   1.689  0.8222  0.6517  0.1647
86264SOL     OW76401  13.979   1.961   3.329  0.1426 -0.4863 -0.0115
86264SOL    HW176402  14.013   1.886   3.378  0.5594  0.0617  0.5525
86264SOL    HW276403  14.049   2.027   3.334 -0.5384  0.2317  0.1682
86265SOL     OW76404   1.259   9.164   1.645 -0.0701  0.0491  0.1120
86265SOL    HW176405   1.300   9.246   1.674  0.8323 -0.8780  1.6098
86265SOL    HW276406   1.267   9.106   1.721 -0.1526 -1.6267 -1.1227
86266SOL     OW76407   4.877  12.660   2.452  0.0172 -0.2066 -0.7557
86266SOL    HW176408   4.898  12.674   2.360 -2.7746  0.4259 -1.4011
86266SOL    HW276409   4.781  12.664   2.455  0.0601  0.5718  2.3054
86267SOL     OW76410  12.762  12.476   1.131  0.0709  0.5826  0.3391
86267SOL    HW176411  12.752  12.428   1.213 -0.2298  0.8992  0.4915
86267SOL    HW276412  12.684  12.532   1.126 -0.2248  0.1229 -0.4638
86268SOL     OW76413   3.168   4.533   9.329 -0.5454 -0.0336  0.5787
86268SOL    HW176414   3.129   4.542   9.416  0.4439  1.2841  0.9117
86268SOL    HW276415   3.255   4.572   9.337  0.6833 -2.3704 -0.2800
86269SOL     OW76416  14.045  12.240   4.470 -0.3976  0.0573  0.1260
86269SOL    HW176417  14.069  12.262   4.380  1.7226 -2.0683  0.0929
86269SOL    HW276418  13.984  12.166   4.461 -0.3910  0.0145  0.4432
86270SOL     OW76419   8.635  11.349   6.847 -0.3909 -0.5846  0.5035
86270SOL    HW176420   8.580  11.361   6.924  0.1577  2.2990  0.5563
86270SOL    HW276421   8.627  11.431   6.799  1.3265 -1.3316 -1.1897
86271SOL     OW76422   8.314  11.243   1.445  0.1660 -0.3150  0.3521
86271SOL    HW176423   8.250  11.299   1.488 -1.0723 -0.7723 -0.8355
86271SOL    HW276424   8.293  11.155   1.476  0.1915 -0.4724 -0.0765
86272SOL     OW76425  12.757   4.682  10.376  0.1910 -0.0975  0.1593
86272SOL    HW176426  12.723   4.640  10.297  1.8280  0.7832 -1.0729
86272SOL    HW276427  12.691   4.749  10.398 -0.0688 -0.0596 -0.7158
86273SOL     OW76428   9.470   4.705   6.046 -0.2356 -0.4583  0.3659
86273SOL    HW176429   9.547   4.717   5.991  0.1871  1.3547  1.2829
86273SOL    HW276430   9.396   4.726   5.989  0.0404 -0.8580 -0.1407
86274SOL     OW76431  12.258   0.671   8.754 -0.6151 -0.0555 -0.0388
86274SOL    HW176432  12.237   0.590   8.707  0.5154 -0.4416  0.0737
86274SOL    HW276433  12.177   0.722   8.752 -1.5759 -1.4838  0.5112
86275SOL     OW76434   3.782  12.220   5.718 -0.0505 -0.2225  0.2891
86275SOL    HW176435   3.837  12.234   5.795  0.3976 -0.1631 -0.0342
86275SOL    HW276436   3.837  12.250   5.645 -0.4841 -0.2451 -0.0450
86276SOL     OW76437   7.591   8.499   1.143 -0.0683  0.1989  0.3004
86276SOL    HW176438   7.572   8.500   1.049  0.7310  1.4913  0.1269
86276SOL    HW276439   7.687   8.503   1.148 -0.1264  0.7285  1.1676
86277SOL     OW76440   1.898  10.149   7.127  0.8901 -0.0659  0.1797
86277SOL    HW176441   1.807  10.119   7.126 -0.0474  2.3174  1.8930
86277SOL    HW276442   1.930  10.125   7.214  1.2631  0.6912  0.2615
86278SOL     OW76443   8.823   8.698  12.167 -0.1404 -0.5903  0.3235
86278SOL    HW176444   8.747   8.660  12.122  0.2763 -0.7268 -0.2784
86278SOL    HW276445   8.786   8.741  12.244 -0.7280 -1.4377  0.5277
86279SOL     OW76446  11.707   3.341   0.154  0.2662 -0.4330 -0.0648
86279SOL    HW176447  11.761   3.266   0.127  0.6912  0.2960 -1.3497
86279SOL    HW276448  11.638   3.345   0.088 -0.6078 -0.5452  0.8188
86280SOL     OW76449  12.903  12.307  13.831 -0.1744  0.3871 -0.7014
86280SOL    HW176450  12.823  12.327  13.879 -0.2554  1.0540 -1.1065
86280SOL    HW276451  12.875  12.290  13.742  0.1249  0.5411 -0.8284
86281SOL     OW76452   7.522   0.510   5.633  0.1110  0.1235 -0.1939
86281SOL    HW176453   7.427   0.518   5.644 -0.2752 -1.6001 -1.7299
86281SOL    HW276454   7.540   0.418   5.651  1.6144  0.5647  0.7100
86282SOL     OW76455   9.860   7.415   2.425  0.0385 -0.0130  0.7343
86282SOL    HW176456   9.779   7.369   2.403  0.5554 -0.5729 -0.0343
86282SOL    HW276457   9.833   7.506   2.439 -0.8818 -0.3827  1.5394
86283SOL     OW76458  11.993  11.144   3.217 -0.1263  0.0219 -0.3863
86283SOL    HW176459  11.993  11.187   3.131  0.7692  0.5247 -0.1447
86283SOL    HW276460  11.913  11.175   3.259 -0.4793 -0.0876 -0.9704
86284SOL     OW76461   5.712   6.966  13.968 -0.0998 -0.8784 -0.2100
86284SOL    HW176462   5.628   6.961  13.923 -0.9507 -0.0045  1.1827
86284SOL    HW276463   5.733   6.875  13.990 -0.5885 -1.1227 -0.7274
86285SOL     OW76464   7.158   8.122   7.004 -0.4522  0.1475  0.9059
86285SOL    HW176465   7.214   8.044   7.006 -2.1735 -1.1872  0.0143
86285SOL    HW276466   7.165   8.154   6.915 -0.0207  0.8178  1.1771
86286SOL     OW76467  13.150   7.105  10.635 -0.4452 -0.6890 -0.1704
86286SOL    HW176468  13.055   7.092  10.629 -0.7019  0.9432 -0.0900
86286SOL    HW276469  13.163   7.149  10.719  0.0633  1.4409 -1.2948
86287SOL     OW76470   2.151   3.440   4.951  0.2658  0.3291 -0.1977
86287SOL    HW176471   2.121   3.349   4.951 -0.3424  0.5249 -0.5347
86287SOL    HW276472   2.120   3.476   5.034  1.9630 -0.2273  0.7173
86288SOL     OW76473   2.179  11.467  10.887 -0.3153  0.3455 -0.4076
86288SOL    HW176474   2.218  11.461  10.974  2.7359 -0.6451 -1.6793
86288SOL    HW276475   2.228  11.538  10.844  0.7306 -1.4380 -2.3376
86289SOL     OW76476   1.677   1.892   2.954  0.5726  0.5152 -0.4139
86289SOL    HW176477   1.687   1.857   2.866 -1.2091 -0.8473 -0.1209
86289SOL    HW276478   1.607   1.957   2.947 -1.8051 -1.7845  0.4689
86290SOL     OW76479   7.307  12.796   0.262 -0.4554  0.1341 -0.2430
86290SOL    HW176480   7.376  12.782   0.198 -0.4106 -1.8596  0.1791
86290SOL    HW276481   7.262  12.875   0.232  1.6047  1.1475 -0.8527
86291SOL     OW76482   7.576  12.188   1.694  0.2458 -0.1228 -0.0498
86291SOL    HW176483   7.483  12.210   1.700 -0.0181 -0.6352 -1.8001
86291SOL    HW276484   7.588  12.115   1.756 -0.5470 -0.1752  0.0498
86292SOL     OW76485   6.392   2.850   9.561  0.1851  1.0031 -0.3287
86292SOL    HW176486   6.432   2.838   9.475 -0.3261  0.7298 -0.5308
86292SOL    HW276487   6.340   2.929   9.552  1.3738  1.8760  0.1982
86293SOL     OW76488   7.710   9.412   4.762  0.0464  0.1622  0.2481
86293SOL    HW176489   7.658   9.370   4.693  1.4948  0.7915 -1.2972
86293SOL    HW276490   7.646   9.432   4.831 -1.3729 -0.9226 -0.6864
86294SOL     OW76491   5.810   4.985   0.012 -0.4921 -0.5368 -0.0772
86294SOL    HW176492   5.847   4.898   0.026  3.8621  1.1509  0.2228
86294SOL    HW276493   5.831   5.007  -0.079  1.1274  1.2189  0.6461
86295SOL     OW76494   4.152  12.452  13.123 -0.0627 -0.1527  0.2625
86295SOL    HW176495   4.119  12.529  13.076 -0.5771 -0.1959  0.5433
86295SOL    HW276496   4.234  12.431  13.079 -0.0102  0.4425  0.0574
86296SOL     OW76497   4.329   5.850  13.790  0.4809  0.1171 -0.6538
86296SOL    HW176498   4.253   5.882  13.743  1.4968  1.0913 -1.7154
86296SOL    HW276499   4.385   5.927  13.802  1.5651 -0.6636 -0.4272
86297SOL     OW76500   7.954  12.307   0.250  0.2623  0.1514 -0.1611
86297SOL    HW176501   8.024  12.345   0.196 -1.4265  1.3686 -1.5975
86297SOL    HW276502   7.967  12.346   0.337  0.9560  0.8778 -0.5753
86298SOL     OW76503   9.720  11.459  10.621 -0.2335  0.2740  0.0277
86298SOL    HW176504   9.805  11.492  10.650  0.6730  0.1759 -2.2688
86298SOL    HW276505   9.660  11.533  10.631  0.7881  1.2719 -0.9541
86299SOL     OW76506   7.960   3.224   4.734  0.0356 -0.1099 -0.4214
86299SOL    HW176507   7.982   3.151   4.676  0.1028 -0.0964 -0.4124
86299SOL    HW276508   7.872   3.251   4.706  0.7458  1.0517 -1.7135
86300SOL     OW76509   8.618   9.725  12.051 -0.0222 -0.4542  0.5733
86300SOL    HW176510   8.695   9.684  12.090 -0.1559 -0.2566  1.0485
86300SOL    HW276511   8.544   9.692  12.103 -0.3522 -1.2513 -0.3514
86301SOL     OW76512  12.012   8.821   3.457  0.0597  0.0477 -0.0877
86301SOL    HW176513  12.042   8.778   3.376 -0.8443 -2.4160  0.7907
86301SOL    HW276514  11.918   8.834   3.443 -0.1494 -0.6283  0.6392
86302SOL     OW76515   4.552   2.729   4.188  0.3278  0.1146 -0.7135
86302SOL    HW176516   4.514   2.656   4.140 -0.1611  0.1215 -0.3467
86302SOL    HW276517   4.557   2.800   4.124 -1.5641  0.5396 -0.4442
86303SOL     OW76518   9.233  10.712  10.826 -0.7183  0.1035 -0.0947
86303SOL    HW176519   9.217  10.770  10.900 -0.5716 -0.8532  0.7097
86303SOL    HW276520   9.151  10.665  10.813 -1.1323  1.1075 -1.3316
86304SOL     OW76521   4.570   4.959   4.249 -0.1936 -0.1961  0.9857
86304SOL    HW176522   4.484   4.977   4.286 -0.3042 -0.3492  0.8042
86304SOL    HW276523   4.552   4.916   4.166  0.0256  1.2352  0.1705
86305SOL     OW76524   0.960  12.982   0.063 -0.3612  0.0975 -0.1435
86305SOL    HW176525   0.936  12.893   0.087 -1.4752  0.0604 -1.3271
86305SOL    HW276526   0.879  13.023   0.035  0.2980  1.2015 -0.5223
86306SOL     OW76527   8.047   1.824   1.552  0.0682 -0.1048 -0.0703
86306SOL    HW176528   8.034   1.729   1.548 -1.5739  0.0440  0.7721
86306SOL    HW276529   8.049   1.852   1.461  2.4797 -1.1277 -0.4102
86307SOL     OW76530   2.500  10.576   6.302  0.1223 -0.2031  0.6273
86307SOL    HW176531   2.484  10.484   6.322  0.3203 -0.7809 -1.5743
86307SOL    HW276532   2.577  10.576   6.245 -1.2532  1.0313 -1.3839
86308SOL     OW76533  13.346  13.139   4.826  0.6970 -0.0992  0.2703
86308SOL    HW176534  13.261  13.126   4.867  0.2723  1.0126 -0.2172
86308SOL    HW276535  13.350  13.233   4.808  0.4412 -0.6069 -3.0642
86309SOL     OW76536   2.146   6.164   0.347  0.1127  0.0677  0.3755
86309SOL    HW176537   2.134   6.187   0.439  1.5451  1.0942  0.3382
86309SOL    HW276538   2.076   6.211   0.302 -0.0584  0.2718  0.8420
86310SOL     OW76539   1.412   8.441   8.742 -0.0214 -0.3751 -0.4136
86310SOL    HW176540   1.333   8.459   8.792 -0.1077  0.3517 -0.8006
86310SOL    HW276541   1.417   8.512   8.678  1.5751  0.2653  0.3654
86311SOL     OW76542   9.039   6.417  11.396  0.1594 -0.3891 -0.4174
86311SOL    HW176543   9.071   6.496  11.438 -0.6289  0.1232 -0.7555
86311SOL    HW276544   9.010   6.361  11.468  0.3024 -0.1905 -0.2035
86312SOL     OW76545   5.808   3.131   9.480 -0.0521 -0.5286  0.1896
86312SOL    HW176546   5.885   3.152   9.427 -1.2799  1.0812 -1.0560
86312SOL    HW276547   5.808   3.035   9.485  0.3901 -0.7339 -2.3553
86313SOL     OW76548   4.359   3.288  10.661 -0.3036  0.4014  0.4681
86313SOL    HW176549   4.453   3.281  10.645 -0.4256  0.4719 -0.3347
86313SOL    HW276550   4.337   3.208  10.707 -0.0137 -0.0732 -0.1975
86314SOL     OW76551   4.813   9.919  13.005 -0.4544  0.3020  0.1789
86314SOL    HW176552   4.892   9.957  12.966  0.0415 -1.2719 -0.4433
86314SOL    HW276553   4.745   9.929  12.939 -0.2917  0.0242 -0.0351
86315SOL     OW76554  10.834   0.035   7.246  0.5208  0.1696  0.2955
86315SOL    HW176555  10.785  -0.046   7.254 -0.1328  0.5314  0.0357
86315SOL    HW276556  10.919   0.016   7.286 -0.7632  0.3635  3.4292
86316SOL     OW76557   0.496  11.425   9.169  0.3787  0.2280 -0.1742
86316SOL    HW176558   0.491  11.450   9.076 -2.6601  0.0974 -0.1581
86316SOL    HW276559   0.431  11.481   9.212  1.7170  0.2819  1.9132
86317SOL     OW76560   3.734   2.377  14.049  0.1851 -0.3394  0.0859
86317SOL    HW176561   3.678   2.451  14.073  1.4050  0.9974 -0.9570
86317SOL    HW276562   3.680   2.324  13.991 -0.4807  0.1480  0.2500
86318SOL     OW76563   5.934  11.725   8.049 -0.0477 -0.5860 -0.2145
86318SOL    HW176564   6.019  11.768   8.063 -0.5641  1.3588 -2.4069
86318SOL    HW276565   5.877  11.760   8.117 -0.3905  2.2329 -1.8091
86319SOL     OW76566   7.758   6.581  13.193 -0.3993  0.8593 -0.1045
86319SOL    HW176567   7.764   6.665  13.238  0.8968  0.4707  0.4759
86319SOL    HW276568   7.773   6.515  13.261 -0.2717  0.1984 -0.7528
86320SOL     OW76569   4.976   1.154   1.962  0.5740  0.3966  0.4229
86320SOL    HW176570   5.022   1.209   2.025  1.7835 -0.4278  0.2866
86320SOL    HW276571   4.988   1.065   1.995  1.8155 -0.1273 -1.3138
86321SOL     OW76572   4.930   0.721   2.589 -0.6335 -0.1304 -0.2167
86321SOL    HW176573   4.912   0.796   2.533  0.3844  0.9345  0.8205
86321SOL    HW276574   4.940   0.647   2.529 -1.4407  0.5839 -1.2690
86322SOL     OW76575   7.684   7.813   1.234  0.2817  0.1588 -0.0088
86322SOL    HW176576   7.595   7.832   1.265  0.5355 -0.0908  0.8938
86322SOL    HW276577   7.741   7.844   1.304  0.8743 -0.3150 -0.2703
86323SOL     OW76578  11.730   3.707  12.501  0.1490 -0.0097  0.7857
86323SOL    HW176579  11.808   3.753  12.469 -0.1225  0.2523  0.5037
86323SOL    HW276580  11.685   3.771  12.555  0.5964 -0.4388  1.7098
86324SOL     OW76581   8.044  10.851   0.483 -0.2846 -0.4053 -0.1538
86324SOL    HW176582   7.995  10.770   0.474  0.9913 -1.1864 -0.3644
86324SOL    HW276583   8.070  10.854   0.575  1.3837 -1.3156 -0.5444
86325SOL     OW76584   3.367   6.958   9.155 -0.1018  0.2633 -0.4017
86325SOL    HW176585   3.319   6.876   9.140 -0.2624  0.2660  0.0734
86325SOL    HW276586   3.426   6.965   9.080  0.2313 -0.5201 -0.2280
86326SOL     OW76587   2.619   0.564   9.123  0.3741  0.3970  0.3608
86326SOL    HW176588   2.677   0.563   9.047 -1.5292  0.9475 -1.1772
86326SOL    HW276589   2.537   0.526   9.091 -0.1943 -0.2453  2.4227
86327SOL     OW76590   5.361   1.037  13.892 -0.1564  0.1378 -0.9251
86327SOL    HW176591   5.392   1.094  13.963 -0.7887 -0.3381 -0.2476
86327SOL    HW276592   5.435   1.031  13.832  1.3678 -1.5679  0.9944
86328SOL     OW76593   7.182   5.206  13.856 -0.4020 -0.0194  0.2079
86328SOL    HW176594   7.186   5.300  13.875  0.2402 -0.0844  0.4353
86328SOL    HW276595   7.117   5.198  13.787  0.8721  0.8114 -1.1588
86329SOL     OW76596  13.892  13.437   2.068  0.4855  0.3650 -0.3108
86329SOL    HW176597  13.960  13.489   2.024  2.0126 -1.6906 -0.5349
86329SOL    HW276598  13.916  13.441   2.161  0.6632 -0.0142 -0.3399
86330SOL     OW76599   3.519   8.723   1.559  0.3308  0.0963 -0.3814
86330SOL    HW176600   3.527   8.761   1.647 -1.0064  1.6296 -0.8721
86330SOL    HW276601   3.522   8.797   1.500 -1.0982 -0.6605 -1.4758
86331SOL     OW76602  13.560   9.418   3.000  0.3350 -0.5331  0.5297
86331SOL    HW176603  13.597   9.424   3.088 -0.7248 -2.2122  1.1304
86331SOL    HW276604  13.480   9.470   3.004  0.6117 -0.0907  0.3654
86332SOL     OW76605   3.809  13.143   0.887 -0.1452  0.6110 -0.3349
86332SOL    HW176606   3.811  13.050   0.864 -1.4376  0.3686  0.3996
86332SOL    HW276607   3.889  13.157   0.938 -0.5278 -0.4094  0.5847
86333SOL     OW76608   3.178   4.467   2.418  0.1531  0.3415 -0.3049
86333SOL    HW176609   3.228   4.389   2.393 -0.3269  0.2212 -0.9127
86333SOL    HW276610   3.095   4.458   2.372  1.0168  2.4793 -2.4925
86334SOL     OW76611   3.199  12.633   2.613 -0.0406  0.3492  0.1016
86334SOL    HW176612   3.129  12.656   2.551 -0.6684 -1.1036  0.2424
86334SOL    HW276613   3.159  12.571   2.673  1.0942  0.2960  0.8355
86335SOL     OW76614   8.073   2.470  12.025 -0.0217  0.3134 -0.2905
86335SOL    HW176615   8.099   2.436  11.940  1.0429 -0.8496  0.4503
86335SOL    HW276616   8.146   2.526  12.052 -0.6562  1.2116 -0.4303
86336SOL     OW76617   9.629   9.889   7.159 -0.4035  0.0084  0.2079
86336SOL    HW176618   9.652   9.802   7.192 -1.1904 -1.1043 -1.9945
86336SOL    HW276619   9.707   9.917   7.111 -0.3924  0.2356  0.3591
86337SOL     OW76620  11.289  10.321   7.439  0.0819  0.3082  0.2123
86337SOL    HW176621  11.316  10.239   7.398 -0.5710  0.1289  0.1299
86337SOL    HW276622  11.282  10.301   7.532 -1.4307 -0.1092  0.0229
86338SOL     OW76623  13.551  13.008   1.347  0.5764  0.4927 -0.8783
86338SOL    HW176624  13.576  13.000   1.255  0.6671 -1.5894 -0.7119
86338SOL    HW276625  13.551  13.103   1.363 -0.7961  1.0064 -3.3654
86339SOL     OW76626   2.461   9.612  11.294  0.7450 -0.1085 -0.0546
86339SOL    HW176627   2.446   9.684  11.356 -1.8740 -1.8790  1.5749
86339SOL    HW276628   2.400   9.544  11.322  3.9026 -3.4949 -0.7217
86340SOL     OW76629   2.949   4.193  10.365 -0.1384  0.6429 -0.1415
86340SOL    HW176630   3.019   4.131  10.345 -1.5825 -0.5770 -1.7880
86340SOL    HW276631   2.877   4.138  10.396 -0.8166  1.7222  0.2453
86341SOL     OW76632  10.757   2.257  12.754  0.0249 -0.3696  0.1349
86341SOL    HW176633  10.832   2.239  12.697  0.4903  0.6510  0.3864
86341SOL    HW276634  10.721   2.171  12.775  0.6396 -0.8308 -0.6452
86342SOL     OW76635   4.040   6.772   2.638 -0.0172  0.1561  0.4674
86342SOL    HW176636   4.070   6.689   2.601  2.3206  1.4274 -0.6921
86342SOL    HW276637   4.008   6.749   2.725  0.6741 -1.9292  0.2249
86343SOL     OW76638   1.953  10.117   7.396  0.0181 -0.2334 -0.1749
86343SOL    HW176639   1.931  10.055   7.465  2.0952 -0.7520  0.0710
86343SOL    HW276640   2.045  10.139   7.411 -0.6097  2.8944 -0.2637
86344SOL     OW76641   4.093   8.642  11.172 -0.9822 -0.2336 -0.3985
86344SOL    HW176642   4.034   8.648  11.097 -1.1766 -1.0103 -0.3177
86344SOL    HW276643   4.145   8.563  11.156  3.0429  2.5263 -2.6103
86345SOL     OW76644  10.625   7.541   4.515  0.2975  0.1839  0.0747
86345SOL    HW176645  10.530   7.537   4.520  0.2385  1.4364  0.3764
86345SOL    HW276646  10.647   7.631   4.538  1.6190 -0.3114  0.9151
86346SOL     OW76647   9.972   4.443   5.430 -0.5281 -0.4728 -0.1629
86346SOL    HW176648  10.013   4.518   5.473 -0.0351 -1.0489  0.3908
86346SOL    HW276649   9.879   4.451   5.451 -0.3223 -0.6373  0.8558
86347SOL     OW76650   3.609  10.465   6.196 -0.0959 -0.0112 -0.0390
86347SOL    HW176651   3.701  10.473   6.170 -0.0002  0.9479  0.5657
86347SOL    HW276652   3.589  10.548   6.238 -1.2547 -0.2079 -0.1863
86348SOL     OW76653  13.178   6.853  10.574 -0.2047 -0.2036  1.0431
86348SOL    HW176654  13.164   6.947  10.587  1.0320  0.3448 -1.0513
86348SOL    HW276655  13.259   6.835  10.621  1.4529  0.6273 -1.2879
86349SOL     OW76656   8.522   2.818  10.722 -0.3036  0.2040  0.0117
86349SOL    HW176657   8.442   2.842  10.769 -0.6978 -0.2625 -0.4079
86349SOL    HW276658   8.499   2.828  10.630  0.8038  2.2202 -0.1023
86350SOL     OW76659   2.450   9.611  10.545 -0.0666 -0.2551  0.7401
86350SOL    HW176660   2.362   9.573  10.537 -0.4365  0.5700  0.7531
86350SOL    HW276661   2.502   9.566  10.479 -0.4150 -0.9878  0.9551
86351SOL     OW76662   7.983  13.444   6.569  0.1467  0.3080  0.4289
86351SOL    HW176663   7.962  13.355   6.597 -1.5583  0.2664 -0.8336
86351SOL    HW276664   7.981  13.495   6.650 -0.4311 -0.5406  0.9709
86352SOL     OW76665   6.362  12.860   0.910 -0.4194 -0.6455  0.1872
86352SOL    HW176666   6.323  12.859   0.997  0.8517  0.4877  0.8049
86352SOL    HW276667   6.288  12.872   0.850 -1.0983  1.0104  1.2834
86353SOL     OW76668   9.720  13.902   0.786 -0.2789  0.6042 -0.4692
86353SOL    HW176669   9.690  13.938   0.870  1.9745 -1.2288  1.2659
86353SOL    HW276670   9.742  13.979   0.734 -0.6185  1.8071  1.0646
86354SOL     OW76671   4.758   0.102  10.105  0.0358  0.5300  0.5453
86354SOL    HW176672   4.761   0.026  10.163  2.5841  1.9772  2.5442
86354SOL    HW276673   4.708   0.167  10.154 -0.9196  0.6316 -0.5349
86355SOL     OW76674   4.261  12.406  12.776  0.1471  0.3496  0.1842
86355SOL    HW176675   4.306  12.359  12.846 -0.4488  1.1534  1.1364
86355SOL    HW276676   4.299  12.494  12.779 -0.0020  0.4363 -0.3945
86356SOL     OW76677   2.893   1.380  10.533 -0.5348  0.7779  0.3717
86356SOL    HW176678   2.969   1.331  10.501  1.0001  2.2518  1.5835
86356SOL    HW276679   2.859   1.327  10.605  0.2809  0.8089  0.7918
86357SOL     OW76680  13.878   0.768   8.049 -0.2045 -0.1478  0.7153
86357SOL    HW176681  13.833   0.810   8.122  0.5643 -0.8009  1.5926
86357SOL    HW276682  13.896   0.679   8.079  1.3926  0.0035  0.3071
86358SOL     OW76683   9.581   5.674   1.167  0.1372  0.0990  0.5239
86358SOL    HW176684   9.590   5.750   1.110 -1.2664 -0.4131 -0.4185
86358SOL    HW276685   9.590   5.709   1.256 -0.4571  1.3693  0.1001
86359SOL     OW76686  10.783   3.578  12.060  0.0047  0.3294  0.3462
86359SOL    HW176687  10.742   3.495  12.036  1.1351 -0.2197  0.2577
86359SOL    HW276688  10.719   3.645  12.034  0.4281 -0.2966 -2.6732
86360SOL     OW76689  10.916  13.819   5.180 -0.1019 -0.1584  0.2047
86360SOL    HW176690  10.936  13.775   5.097  1.1775  1.5912 -0.4801
86360SOL    HW276691  10.946  13.758   5.247 -0.0683 -1.1032 -0.6534
86361SOL     OW76692   1.266   2.034  12.625 -0.2051  0.3772 -0.2273
86361SOL    HW176693   1.197   2.024  12.691 -0.3302  1.9289 -0.0927
86361SOL    HW276694   1.298   1.945  12.611 -0.4474 -0.0427  1.6183
86362SOL     OW76695   0.035  12.273   9.165  0.5835 -0.5286 -0.5761
86362SOL    HW176696  -0.025  12.232   9.227 -0.8499  1.7786 -0.3183
86362SOL    HW276697   0.117  12.282   9.213 -0.0427 -0.1792  0.4639
86363SOL     OW76698  12.193  10.448   6.877  0.2176  0.4205 -0.2342
86363SOL    HW176699  12.169  10.514   6.811 -0.4943  0.2793 -0.1290
86363SOL    HW276700  12.148  10.478   6.957  1.0758  0.5947  0.1914
86364SOL     OW76701   2.953   1.122   6.152 -0.2524 -0.0045  0.0663
86364SOL    HW176702   2.878   1.179   6.168 -0.9817 -1.3187  1.6511
86364SOL    HW276703   2.913   1.038   6.127  0.7828  0.0547 -1.9758
86365SOL     OW76704   3.990   4.609  12.422 -0.2068  0.2777 -0.0220
86365SOL    HW176705   3.930   4.683  12.427 -0.1364  0.3670 -0.4580
86365SOL    HW276706   3.935   4.537  12.390 -0.8879 -0.5420  2.7407
86366SOL     OW76707  12.886   3.397  10.031  0.4106 -0.0685 -0.5822
86366SOL    HW176708  12.968   3.378   9.985  0.2756  2.2316 -1.9216
86366SOL    HW276709  12.914   3.441  10.112  0.5256  0.4829 -0.9155
86367SOL     OW76710   8.745   6.866  13.132  0.0196 -0.3447  0.0280
86367SOL    HW176711   8.657   6.826  13.131 -1.0538  1.8468  0.6114
86367SOL    HW276712   8.801   6.799  13.171 -1.4281 -1.7266 -0.1541
86368SOL     OW76713   9.756  11.004  10.584 -0.0780 -0.4116  0.3335
86368SOL    HW176714   9.846  11.022  10.609  0.8231 -0.3647 -2.5383
86368SOL    HW276715   9.719  11.090  10.566  0.5722 -0.5729 -2.1369
86369SOL     OW76716  13.638   3.723   4.987 -0.6626  0.2315 -0.7356
86369SOL    HW176717  13.689   3.694   5.063 -0.4939  0.0093 -0.9292
86369SOL    HW276718  13.548   3.698   5.007 -0.5799 -0.0677 -0.7227
86370SOL     OW76719   0.079   7.322   9.620 -0.3413  0.1686  0.2930
86370SOL    HW176720   0.035   7.395   9.663  1.2342  0.1841  1.9909
86370SOL    HW276721   0.132   7.363   9.552 -2.7574  0.1534 -1.7371
86371SOL     OW76722   1.167   8.358  11.086  0.0369 -0.4683  0.3929
86371SOL    HW176723   1.154   8.426  11.152 -1.4976 -0.0740 -0.2691
86371SOL    HW276724   1.262   8.349  11.078  0.3012 -1.1435  3.2697
86372SOL     OW76725   3.330   8.608  10.496 -0.3284 -0.2270 -0.0837
86372SOL    HW176726   3.398   8.673  10.513 -0.6371 -0.2023  1.1012
86372SOL    HW276727   3.316   8.565  10.580 -1.2668 -0.7287 -0.4827
86373SOL     OW76728   9.552   2.308   9.654 -0.0815  0.0478  0.5987
86373SOL    HW176729   9.607   2.324   9.730 -0.1418  0.8846  0.4683
86373SOL    HW276730   9.613   2.299   9.581 -0.0181 -0.8388  0.7460
86374SOL     OW76731   6.484  13.959   4.484 -0.7717 -0.0645 -0.3445
86374SOL    HW176732   6.463  13.867   4.473 -2.7629  0.3324 -0.1572
86374SOL    HW276733   6.427  13.989   4.555  1.1870  0.8920  0.9306
86375SOL     OW76734   2.104   9.952   5.278 -0.2893 -0.0642 -0.2202
86375SOL    HW176735   2.037   9.892   5.312  0.1066  0.4610  1.5766
86375SOL    HW276736   2.184   9.926   5.323  0.4336  0.1990 -1.3318
86376SOL     OW76737   8.852  10.251   6.374  0.7773  0.0507 -0.4468
86376SOL    HW176738   8.883  10.187   6.437 -1.2025 -1.2979 -0.7692
86376SOL    HW276739   8.819  10.323   6.427  2.2252  0.4847 -0.0738
86377SOL     OW76740  12.427   3.501   6.776 -0.0986 -0.1507 -0.0572
86377SOL    HW176741  12.352   3.541   6.733 -0.6082  0.2942  1.2005
86377SOL    HW276742  12.496   3.568   6.772 -0.6512  0.5124  1.2126
86378SOL     OW76743   8.121   7.505   3.090  0.2661  0.4676  0.7459
86378SOL    HW176744   8.214   7.528   3.090  0.6643 -1.0469  0.6576
86378SOL    HW276745   8.111   7.447   3.165 -0.2599 -0.6602 -0.1737
86379SOL     OW76746   7.682   2.359   8.833  0.5789 -0.5034  0.0091
86379SOL    HW176747   7.731   2.425   8.881  0.6225 -1.2062  0.9541
86379SOL    HW276748   7.608   2.338   8.890 -0.4113 -0.0036 -1.0620
86380SOL     OW76749  13.658   0.623  10.537  0.7666 -0.3702 -0.0962
86380SOL    HW176750  13.670   0.671  10.619 -0.4133  0.0605 -0.1500
86380SOL    HW276751  13.627   0.537  10.565 -0.3216  0.0071 -0.0910
86381SOL     OW76752  13.346   4.450   0.556  0.3610 -0.4484 -0.2056
86381SOL    HW176753  13.441   4.459   0.548  0.3798  1.0570  1.3077
86381SOL    HW276754  13.322   4.387   0.487  1.7259  3.2661 -4.5359
86382SOL     OW76755   8.025   5.059   1.435 -0.3530 -0.5581 -0.4136
86382SOL    HW176756   7.944   5.041   1.483 -0.7186  2.6554  0.4316
86382SOL    HW276757   8.008   5.029   1.346 -2.6135  0.2802 -0.3120
86383SOL     OW76758  12.251   8.648   1.896 -0.0702 -0.0169 -0.0946
86383SOL    HW176759  12.172   8.696   1.921 -0.4665 -0.6336 -0.1415
86383SOL    HW276760  12.279   8.690   1.814 -0.6551 -0.1412 -0.3607
86384SOL     OW76761  13.331   6.950   0.589 -0.2243  0.4789  0.1977
86384SOL    HW176762  13.263   6.997   0.541  0.0207 -0.6999 -1.3953
86384SOL    HW276763  13.290   6.927   0.673 -1.0723  1.5515  0.0956
86385SOL     OW76764   5.564   1.071  13.717 -0.1798  0.2373  0.3781
86385SOL    HW176765   5.614   1.102  13.641 -1.2108  0.0166 -0.4295
86385SOL    HW276766   5.605   0.989  13.741  0.5618  0.6265  0.4735
86386SOL     OW76767   7.249   0.219   3.601 -0.4393  0.3427  0.2438
86386SOL    HW176768   7.209   0.248   3.519 -1.7583 -0.8515  0.4201
86386SOL    HW276769   7.330   0.176   3.574 -0.3721  0.8244 -0.3433
86387SOL     OW76770   2.267  10.270  12.549 -0.1699  0.9121 -0.4030
86387SOL    HW176771   2.336  10.336  12.541  0.6472 -0.1163 -2.4329
86387SOL    HW276772   2.281  10.231  12.635  2.1220  0.4197 -0.9388
86388SOL     OW76773   4.107   1.157   4.578  1.0420  0.2116  0.1027
86388SOL    HW176774   4.012   1.165   4.575  0.9161 -1.2681 -1.6628
86388SOL    HW276775   4.123   1.087   4.641  0.7950 -1.0538 -1.1979
86389SOL     OW76776   9.633  14.037   3.016 -0.5892 -0.0003 -0.3135
86389SOL    HW176777   9.631  13.969   3.084 -2.0779  0.2594 -0.0711
86389SOL    HW276778   9.577  14.003   2.947 -0.4693  0.5165 -0.6717
86390SOL     OW76779   2.816   8.287  12.751  0.2735 -0.7395  0.3127
86390SOL    HW176780   2.877   8.261  12.683  0.3607  1.3020 -0.4772
86390SOL    HW276781   2.737   8.314  12.704  0.4733  1.0897  0.9422
86391SOL     OW76782   2.293   6.443   1.280  0.2283 -0.2711  0.1086
86391SOL    HW176783   2.256   6.492   1.353 -0.7434 -0.9638  0.0924
86391SOL    HW276784   2.377   6.487   1.262 -1.2269  2.3159 -0.8534
86392SOL     OW76785   0.359   3.615   4.500  0.2007 -0.4466 -0.3770
86392SOL    HW176786   0.274   3.631   4.461  1.4972 -1.5384 -4.0557
86392SOL    HW276787   0.370   3.520   4.497  1.6208 -0.3197 -0.1736
86393SOL     OW76788   5.485   7.185   1.269 -0.5490  0.0406 -0.4545
86393SOL    HW176789   5.545   7.180   1.343 -0.0236 -2.2244 -0.9447
86393SOL    HW276790   5.402   7.214   1.306 -0.2075 -0.7085  0.9646
86394SOL     OW76791   6.525  14.084  12.554  0.8579 -0.6026  0.4545
86394SOL    HW176792   6.541  14.175  12.529 -0.2175 -0.7946 -1.0816
86394SOL    HW276793   6.442  14.086  12.602 -0.4158 -1.0239 -1.6292
86395SOL     OW76794  11.709   6.254   3.709  0.3093 -0.2536  0.3409
86395SOL    HW176795  11.779   6.194   3.736  0.5848  0.4798  1.3125
86395SOL    HW276796  11.671   6.285   3.791 -0.9895 -0.4240 -0.1674
86396SOL     OW76797  12.389   6.466  11.586  0.1158 -0.2806  0.1251
86396SOL    HW176798  12.331   6.391  11.574 -1.3011  0.9674 -1.3276
86396SOL    HW276799  12.403   6.500  11.498  0.8926  1.0370  0.7265
86397SOL     OW76800   1.212   7.404  11.546  0.4095 -0.3105 -0.8644
86397SOL    HW176801   1.293   7.361  11.518 -1.6582 -3.5321 -2.4334
86397SOL    HW276802   1.203   7.479  11.487  2.0699  0.0113 -0.7802
86398SOL     OW76803   8.563   5.040   5.950 -0.1147 -0.3619 -0.1391
86398SOL    HW176804   8.620   4.965   5.969 -1.0008 -1.3146 -1.0856
86398SOL    HW276805   8.516   5.015   5.871  0.9213  2.0091 -1.5914
86399SOL     OW76806   9.910   4.039   5.450  0.1483 -0.3033 -0.0506
86399SOL    HW176807   9.833   4.025   5.506 -1.2550 -1.4258 -2.1302
86399SOL    HW276808   9.877   4.031   5.361  1.8033  3.6461 -1.2673
86400SOL     OW76809   5.967  12.006   3.253  0.1494  0.0930  0.3456
86400SOL    HW176810   5.949  12.083   3.307 -0.0450  0.0800  0.3005
86400SOL    HW276811   5.881  11.973   3.229  0.1702 -1.2721  1.9577
86401SOL     OW76812   5.651   7.121   0.071  0.0967 -0.2290  0.0034
86401SOL    HW176813   5.686   7.070  -0.002  3.0272  0.7945  0.5394
86401SOL    HW276814   5.642   7.210   0.036 -0.7933 -0.2237  0.2377
86402SOL     OW76815   0.954  11.548  10.364 -0.5543 -0.2593  0.0653
86402SOL    HW176816   0.920  11.637  10.359 -2.3879 -0.8457  1.1466
86402SOL    HW276817   0.909  11.501  10.294 -2.0253 -1.0321  1.4706
86403SOL     OW76818   5.343   8.145   3.274  0.0048 -0.2951 -0.2496
86403SOL    HW176819   5.410   8.080   3.253  1.8650  1.9393 -1.5901
86403SOL    HW276820   5.325   8.189   3.191 -1.5823  0.6237  0.5275
86404SOL     OW76821   2.525   3.025   0.247  0.1849  0.5806 -0.0429
86404SOL    HW176822   2.443   3.032   0.197  1.1003  3.6881 -1.3208
86404SOL    HW276823   2.533   2.931   0.266 -3.3459  0.0675 -0.3215
86405SOL     OW76824   0.898   0.376  13.312  0.0518 -0.3206 -0.6221
86405SOL    HW176825   0.882   0.283  13.322 -0.1062 -0.4916 -2.2383
86405SOL    HW276826   0.987   0.382  13.277 -0.4697  0.0420 -1.9229
86406SOL     OW76827   1.646   4.257   0.665 -0.1317  0.0193 -0.1244
86406SOL    HW176828   1.560   4.260   0.707  0.0532  2.5092  0.2004
86406SOL    HW276829   1.705   4.298   0.727  0.9382  0.0830 -1.1478
86407SOL     OW76830  10.802   7.904   5.640  0.2241 -0.0934 -0.4046
86407SOL    HW176831  10.848   7.986   5.660  0.1714  0.0732 -0.9561
86407SOL    HW276832  10.871   7.842   5.618  0.4698 -0.9253  2.4039
86408SOL     OW76833  12.582   5.895  11.071  0.2329  0.1702 -0.5345
86408SOL    HW176834  12.584   5.928  10.982  1.2713  1.3875 -0.0873
86408SOL    HW276835  12.655   5.835  11.077  0.5852  0.6118 -0.3251
86409SOL     OW76836  14.073  10.404   0.693 -0.0085 -0.5963  0.0395
86409SOL    HW176837  14.030  10.328   0.655  0.8270 -0.4099 -1.3390
86409SOL    HW276838  14.017  10.429   0.767 -0.1661 -2.6543  0.6618
86410SOL     OW76839  13.495   1.752  13.470  0.1400  0.1952 -0.6157
86410SOL    HW176840  13.482   1.673  13.522  0.3460  0.6833  0.2100
86410SOL    HW276841  13.494   1.722  13.379 -1.2781 -0.5364 -0.3889
86411SOL     OW76842   8.472   9.202  11.910  0.1253  0.1251  0.0018
86411SOL    HW176843   8.439   9.268  11.849 -0.1540  0.6987  0.7578
86411SOL    HW276844   8.562   9.187  11.882  0.5842  1.7133  0.5355
86412SOL     OW76845  12.654  13.883   7.354  0.3735  0.1892  0.0996
86412SOL    HW176846  12.607  13.854   7.276  0.6802 -0.6685  0.2285
86412SOL    HW276847  12.672  13.803   7.402  0.3834  0.6874  0.9482
86413SOL     OW76848  13.345   0.031  10.086 -0.2661  0.0719 -0.3119
86413SOL    HW176849  13.373   0.024   9.994 -1.4093 -0.5027 -0.6416
86413SOL    HW276850  13.357  -0.057  10.121  1.0558  0.5040  0.3849
86414SOL     OW76851   4.171  14.061  11.456 -0.2474  0.6133 -0.4322
86414SOL    HW176852   4.134  14.106  11.380  0.3148  1.2645 -0.3283
86414SOL    HW276853   4.262  14.042  11.430  0.3487  1.9772  0.5377
86415SOL     OW76854   4.919  10.863   6.547 -0.0865  0.1667 -0.1727
86415SOL    HW176855   4.985  10.859   6.478  1.2433  0.2323  1.0307
86415SOL    HW276856   4.938  10.787   6.603  0.4733  1.4260  1.4513
86416SOL     OW76857   4.604   4.000   7.706  0.0327 -0.8115 -0.2862
86416SOL    HW176858   4.631   4.089   7.685 -1.1206 -0.0195  1.3847
86416SOL    HW276859   4.679   3.962   7.752  0.4645 -0.6783 -0.8635
86417SOL     OW76860   6.878  12.213   8.638  0.4647 -0.6781 -0.2301
86417SOL    HW176861   6.819  12.272   8.684  1.5459  0.9449 -0.8427
86417SOL    HW276862   6.821  12.162   8.580 -0.4097  0.3231 -0.2690
86418SOL     OW76863  10.556  11.003   1.746  0.6072  0.1860 -0.8214
86418SOL    HW176864  10.596  11.050   1.673  0.2443  0.4885 -0.8240
86418SOL    HW276865  10.621  10.937   1.770  0.5339 -0.2233 -1.7262
86419SOL     OW76866   9.181   8.830   4.319  0.4104 -0.1505  0.7666
86419SOL    HW176867   9.201   8.829   4.226 -0.0384  4.1192  0.4425
86419SOL    HW276868   9.264   8.809   4.362  1.3055  0.5151 -0.5982
86420SOL     OW76869  13.921  12.184  12.086 -0.1097  0.1215 -0.0308
86420SOL    HW176870  13.852  12.199  12.021 -0.1011 -1.6371 -0.4831
86420SOL    HW276871  13.992  12.242  12.058  1.0082 -2.5039 -3.3489
86421SOL     OW76872   3.643   8.071  10.358 -0.3611  0.4124 -0.2785
86421SOL    HW176873   3.644   8.117  10.274  1.4104 -0.9381 -1.0843
86421SOL    HW276874   3.702   8.122  10.414  0.5194 -0.0697 -0.7333
86422SOL     OW76875   0.616   8.207   3.587 -0.3124 -0.3630  0.0135
86422SOL    HW176876   0.603   8.174   3.498  1.8324  0.0347 -0.5191
86422SOL    HW276877   0.545   8.270   3.600 -1.1946 -1.0911 -1.0537
86423SOL     OW76878  12.234   6.319   0.962  0.0595 -0.0574 -0.1726
86423SOL    HW176879  12.245   6.270   1.043  1.5267 -1.8766 -1.3699
86423SOL    HW276880  12.236   6.411   0.989  0.9041 -0.6013  1.8144
86424SOL     OW76881   1.292  10.002   3.592 -0.3895 -0.1526 -0.6634
86424SOL    HW176882   1.322   9.977   3.679 -0.9709  0.5661 -0.2550
86424SOL    HW276883   1.357   9.964   3.533  0.8307  0.6013  0.1581
86425SOL     OW76884  12.459   8.406  10.760 -0.1030  0.1462 -0.2220
86425SOL    HW176885  12.554   8.418  10.751  0.0168 -0.5047  0.1439
86425SOL    HW276886  12.433   8.469  10.828 -0.0623  0.8636 -0.8567
86426SOL     OW76887   7.966  13.556   7.743 -0.3550  0.7603 -0.8895
86426SOL    HW176888   7.926  13.472   7.722 -1.7894  0.5787  2.0368
86426SOL    HW276889   8.055  13.534   7.770 -1.0509 -0.0637  0.9147
86427SOL     OW76890   1.098  10.759   7.046 -0.4451 -0.3629 -0.9455
86427SOL    HW176891   1.102  10.778   6.952 -2.1470  1.0882 -0.7730
86427SOL    HW276892   1.167  10.813   7.083  0.0561 -0.7356 -1.3106
86428SOL     OW76893   1.995  11.076   1.954  0.4153 -0.2091  0.2236
86428SOL    HW176894   2.073  11.091   1.900 -1.1747  1.1670 -1.8652
86428SOL    HW276895   1.973  11.163   1.989 -0.9946 -0.2342 -0.4947
86429SOL     OW76896  10.334   6.669  12.387 -0.2657 -0.0968 -0.4893
86429SOL    HW176897  10.413   6.615  12.382 -0.6977 -1.0825  2.0473
86429SOL    HW276898  10.302   6.673  12.297  0.6001 -2.8780 -0.9995
86430SOL     OW76899  13.497   6.754   4.917  0.3586 -0.5242 -0.5856
86430SOL    HW176900  13.545   6.817   4.971  0.8596 -0.5109 -1.0426
86430SOL    HW276901  13.450   6.699   4.981 -0.8394  0.8742 -0.1875
86431SOL     OW76902   1.151  10.131  12.678 -0.0078  0.1329  0.6198
86431SOL    HW176903   1.100  10.208  12.654 -0.9037 -0.2960  1.1184
86431SOL    HW276904   1.238  10.166  12.698 -1.2244  1.5775  4.2590
86432SOL     OW76905   1.739  12.403   2.579  0.4617 -0.2341 -0.1456
86432SOL    HW176906   1.821  12.432   2.539  0.3721 -0.9881 -0.8914
86432SOL    HW276907   1.679  12.392   2.506  0.3390 -1.8105  0.1545
86433SOL     OW76908  12.092   9.357  11.152 -0.4600 -0.6474  0.2571
86433SOL    HW176909  12.162   9.421  11.154  0.1330 -1.1410 -1.9987
86433SOL    HW276910  12.013   9.408  11.134  0.0821 -0.5152 -2.0521
86434SOL     OW76911   7.290   1.993   4.866 -0.6549 -0.6342 -0.0179
86434SOL    HW176912   7.208   1.961   4.903 -0.1309 -2.5397 -0.3872
86434SOL    HW276913   7.351   1.920   4.875  0.5587  0.1746 -1.1708
86435SOL     OW76914   5.442  13.517   1.313  0.1467  0.5348 -0.2703
86435SOL    HW176915   5.435  13.429   1.350  0.5748  0.4793 -0.3196
86435SOL    HW276916   5.524  13.517   1.264 -0.6510  0.4477 -1.6514
86436SOL     OW76917   5.518   5.138   5.757 -0.7088  0.4289  0.0557
86436SOL    HW176918   5.422   5.139   5.753 -0.7308  2.8068 -0.4432
86436SOL    HW276919   5.546   5.130   5.666 -0.4960  1.9633 -0.0344
86437SOL     OW76920   9.940   2.128   0.144 -0.2196  0.4291  0.3892
86437SOL    HW176921   9.902   2.208   0.108  0.0399  0.3987  0.0368
86437SOL    HW276922   9.904   2.122   0.233  0.1650  1.2161  0.6106
86438SOL     OW76923   9.497  10.943  11.565  0.2616 -0.3231  0.6949
86438SOL    HW176924   9.512  11.010  11.499  2.2990 -0.7894  0.6082
86438SOL    HW276925   9.402  10.928  11.564  0.2067 -0.2690 -2.0549
86439SOL     OW76926   0.837   1.702   8.729 -0.1502  0.1715  0.1799
86439SOL    HW176927   0.889   1.739   8.800 -0.1119 -0.7540  0.6546
86439SOL    HW276928   0.807   1.617   8.763 -1.3583  0.3586 -0.3570
86440SOL     OW76929   3.129   1.431   2.727 -0.0257  0.2506  0.3626
86440SOL    HW176930   3.118   1.336   2.724  0.7516  0.1611  0.2723
86440SOL    HW276931   3.040   1.465   2.743 -0.6686 -0.3665 -1.6730
86441SOL     OW76932   1.082   7.289  12.727  1.1288  0.1159  0.1987
86441SOL    HW176933   1.010   7.302  12.789  0.2225  0.5649 -0.9290
86441SOL    HW276934   1.055   7.215  12.674  2.5123 -1.1496  1.1557
86442SOL     OW76935   5.643   1.053   7.221 -0.2796 -0.4109 -0.5659
86442SOL    HW176936   5.631   1.084   7.311  3.0259  3.6791 -1.2283
86442SOL    HW276937   5.690   0.970   7.230 -0.3532 -0.2870  1.4547
86443SOL     OW76938   8.712  13.343  13.052 -0.2950  0.1953  0.0233
86443SOL    HW176939   8.730  13.329  12.959  1.9779 -0.6854  0.5230
86443SOL    HW276940   8.687  13.256  13.085  2.8347 -0.4762  0.9413
86444SOL     OW76941   3.681   2.835   4.942  0.4782  0.2141  0.5225
86444SOL    HW176942   3.736   2.832   4.863  0.9002  1.6183  0.7342
86444SOL    HW276943   3.599   2.796   4.915  1.0885 -0.5972 -0.2235
86445SOL     OW76944   8.939  11.975   8.263  0.3030  0.1389 -0.2158
86445SOL    HW176945   8.984  12.053   8.296 -2.1609  1.4708  0.2866
86445SOL    HW276946   8.985  11.901   8.302  1.7791  1.3936  0.5211
86446SOL     OW76947  13.950   3.569  12.635 -0.1760 -0.3167  0.1728
86446SOL    HW176948  14.032   3.547  12.591 -0.3775  1.2440 -1.0759
86446SOL    HW276949  13.882   3.546  12.571 -0.5563  0.7023  0.1930
86447SOL     OW76950   9.821   2.459   7.297 -0.1319 -0.3698 -0.1266
86447SOL    HW176951   9.793   2.368   7.302 -1.3386  0.0177  0.5123
86447SOL    HW276952   9.917   2.455   7.300 -0.1764 -1.5976  0.1167
86448SOL     OW76953   9.339  11.655  12.006 -0.4593  0.4329 -0.1613
86448SOL    HW176954   9.402  11.728  12.006 -0.2388  0.2473 -0.6819
86448SOL    HW276955   9.259  11.693  12.042 -0.8663  1.4055 -1.9369
86449SOL     OW76956   2.094   0.466  10.238 -0.0991 -0.0565 -0.2945
86449SOL    HW176957   2.064   0.472  10.147 -1.7718 -0.5876  0.1753
86449SOL    HW276958   2.031   0.520  10.286  0.8441  0.3136  0.5385
86450SOL     OW76959  13.574   8.886   7.602 -0.4464  0.0930  0.3485
86450SOL    HW176960  13.666   8.913   7.597 -0.1881 -0.2881  2.3960
86450SOL    HW276961  13.560   8.837   7.521  1.1689  0.1367 -0.0015
86451SOL     OW76962   3.500   1.645  12.726 -0.5609  0.3467 -0.1120
86451SOL    HW176963   3.473   1.553  12.734 -1.6263  0.6002 -0.6007
86451SOL    HW276964   3.458   1.675  12.646  1.3631  0.7480 -1.0108
86452SOL     OW76965  13.631   9.715   6.356 -0.1789  0.3925 -0.4293
86452SOL    HW176966  13.688   9.667   6.416 -1.6781  0.2420  0.9533
86452SOL    HW276967  13.568   9.649   6.325  0.3001  0.5705 -1.8493
86453SOL     OW76968   0.142   8.837  13.334  0.4730  0.3910  0.7592
86453SOL    HW176969   0.206   8.891  13.381 -0.5969  1.0509  1.5021
86453SOL    HW276970   0.086   8.802  13.403 -1.4089  1.7276 -0.0161
86454SOL     OW76971   4.970  10.049   0.254 -0.1560 -0.1443 -0.1981
86454SOL    HW176972   4.917  10.092   0.322  0.0893  0.4613 -0.3827
86454SOL    HW276973   5.049  10.021   0.300 -1.2662 -2.5089  0.4613
86455SOL     OW76974   9.711   4.255  14.021 -0.0159  0.3179  0.2966
86455SOL    HW176975   9.801   4.273  14.050  0.3869  0.3576 -0.9441
86455SOL    HW276976   9.721   4.210  13.937 -1.1799  1.7544 -0.6537
86456SOL     OW76977   8.767   5.954   3.767 -0.0065 -0.0717  0.3636
86456SOL    HW176978   8.863   5.952   3.765 -0.0128 -1.4706  0.0258
86456SOL    HW276979   8.745   6.041   3.798  1.4504 -0.6232  3.2916
86457SOL     OW76980   9.845   9.890   0.994 -0.5202  0.1954  0.2774
86457SOL    HW176981   9.806   9.803   0.999  1.0620 -0.5214  0.8168
86457SOL    HW276982   9.789   9.944   1.050 -2.9431  0.1555 -1.9221
86458SOL     OW76983   4.660   2.654   3.412 -0.1730 -1.0611 -0.7176
86458SOL    HW176984   4.614   2.601   3.346  0.3447  0.4396 -2.3497
86458SOL    HW276985   4.734   2.692   3.365 -0.3667  0.8817  0.4388
86459SOL     OW76986  13.664  10.324   6.739 -0.4956 -0.4534 -0.7257
86459SOL    HW176987  13.706  10.408   6.759  0.3761 -1.0811  0.1905
86459SOL    HW276988  13.693  10.303   6.650  2.7192 -1.7141  0.4542
86460SOL     OW76989   9.370   9.747   2.587  0.5653  0.5671 -0.4200
86460SOL    HW176990   9.390   9.815   2.522  0.5643  2.5313  1.5140
86460SOL    HW276991   9.376   9.792   2.671  2.1567 -2.2093  1.1156
86461SOL     OW76992   6.740   6.294   1.172 -0.8508 -0.2816  0.1891
86461SOL    HW176993   6.673   6.288   1.240 -0.1793  2.7189  1.2520
86461SOL    HW276994   6.797   6.218   1.187 -2.6192 -1.5814  0.7279
86462SOL     OW76995   3.834  11.665   9.191 -0.0797 -0.1754  0.3519
86462SOL    HW176996   3.813  11.598   9.126 -0.7599 -0.1391  0.5269
86462SOL    HW276997   3.836  11.747   9.142  0.7006 -0.3098  0.1470
86463SOL     OW76998   5.171   8.464   2.266  0.0777 -0.8843 -0.3933
86463SOL    HW176999   5.150   8.425   2.181  2.2464  0.1379 -1.4953
86463SOL    HW277000   5.249   8.416   2.295  0.1915 -0.2843  0.3289
86464SOL     OW77001   5.215   2.563   0.358 -0.4020 -0.3429  0.2802
86464SOL    HW177002   5.228   2.654   0.383 -2.1735 -0.0048  0.0802
86464SOL    HW277003   5.195   2.518   0.441  1.6652 -0.8384  0.5700
86465SOL     OW77004  11.007   4.990   7.160  0.1762  0.0149  0.1026
86465SOL    HW177005  10.912   4.997   7.150  0.3790  1.8179 -1.0100
86465SOL    HW277006  11.041   5.072   7.125  2.2175 -0.9422 -0.3170
86466SOL     OW77007   5.577  13.000   2.442  0.2352 -0.2946  0.3239
86466SOL    HW177008   5.602  13.037   2.357 -2.2778  0.6785 -0.0909
86466SOL    HW277009   5.650  12.943   2.466  1.8076  0.7698 -1.6369
86467SOL     OW77010   3.287   6.027  13.989  0.8803 -0.7760 -0.0935
86467SOL    HW177011   3.342   6.061  13.918  1.7270  0.2667  1.0291
86467SOL    HW277012   3.214   6.089  13.995  1.4151 -0.2119  0.6912
86468SOL     OW77013   5.222   3.236   3.643  0.1635  0.0655 -0.4918
86468SOL    HW177014   5.193   3.152   3.607  1.2688 -0.5883  0.0840
86468SOL    HW277015   5.264   3.213   3.726 -0.8082  1.3571  0.3946
86469SOL     OW77016   2.016  10.323   2.072 -0.5190  0.0977  0.4654
86469SOL    HW177017   2.058  10.286   1.994  2.7307 -0.2260  2.1923
86469SOL    HW277018   2.035  10.416   2.067  0.4380 -0.0475  1.2581
86470SOL     OW77019   1.693   2.750  12.241  0.6958 -0.3592  0.3665
86470SOL    HW177020   1.630   2.699  12.293 -0.2494  0.8095  0.4009
86470SOL    HW277021   1.654   2.756  12.155  0.3318  1.0998  0.6161
86471SOL     OW77022   7.273   0.239  11.539 -0.1813  0.1201  0.0781
86471SOL    HW177023   7.257   0.146  11.523  0.9172 -0.0564 -0.0567
86471SOL    HW277024   7.204   0.265  11.600 -1.0698 -0.5463 -0.6055
86472SOL     OW77025   2.900  12.333   9.465  0.1368 -0.1202  0.0099
86472SOL    HW177026   2.909  12.260   9.404  2.2475 -0.8311  1.0469
86472SOL    HW277027   2.854  12.296   9.540  0.6541 -0.2406  0.2760
86473SOL     OW77028  13.761   4.587   9.463  0.2632 -0.2936  0.2713
86473SOL    HW177029  13.738   4.666   9.415 -1.7622 -1.2074 -0.4076
86473SOL    HW277030  13.842   4.557   9.424 -0.6041 -0.2545 -1.6574
86474SOL     OW77031   0.481  12.079   1.086 -0.3166  0.0122 -0.0504
86474SOL    HW177032   0.474  12.166   1.048  1.2087  0.2061  0.0691
86474SOL    HW277033   0.390  12.048   1.090 -0.6668  0.5003 -2.5681
86475SOL     OW77034   5.439  13.151  10.512  0.2880 -0.3583  0.0869
86475SOL    HW177035   5.441  13.232  10.461  1.1269 -0.1739  0.4048
86475SOL    HW277036   5.345  13.132  10.521 -0.0653  1.7997  1.9148
86476SOL     OW77037  10.901   9.318  13.314 -0.1496 -0.3153 -0.2134
86476SOL    HW177038  10.932   9.350  13.230 -0.3827  2.5263  0.6780
86476SOL    HW277039  10.806   9.310  13.304 -0.4863  2.0916  0.2660
86477SOL     OW77040   9.589  11.741   1.467 -0.0193  0.0011  0.0925
86477SOL    HW177041   9.518  11.703   1.415  1.8108 -0.3209 -2.3188
86477SOL    HW277042   9.662  11.680   1.458  1.1034  1.1231  1.1354
86478SOL     OW77043   8.324   1.436   2.840  0.3619  0.4098 -0.2898
86478SOL    HW177044   8.297   1.346   2.859 -1.0947 -0.0797 -3.9452
86478SOL    HW277045   8.273   1.489   2.902  1.7924 -1.1919  2.4402
86479SOL     OW77046   8.104   4.131  11.103  0.0250  0.3487  0.6439
86479SOL    HW177047   8.184   4.141  11.050 -0.3510  0.6198  0.1192
86479SOL    HW277048   8.131   4.077  11.177  0.9551  1.3056  1.0345
86480SOL     OW77049   2.902   7.591  12.347 -0.4788  0.2448  0.1283
86480SOL    HW177050   2.959   7.666  12.331  0.6780 -0.6142  0.1003
86480SOL    HW277051   2.883   7.595  12.441  2.4084 -1.3002  0.8870
86481SOL     OW77052  12.320   7.135   0.193  0.4736 -0.5297 -0.3758
86481SOL    HW177053  12.271   7.205   0.236  0.9822 -0.8347  0.7214
86481SOL    HW277054  12.291   7.055   0.236  0.1166 -0.9763 -1.4191
86482SOL     OW77055   7.894   0.488   7.848 -0.1314  0.0012 -0.2622
86482SOL    HW177056   7.803   0.458   7.849  0.1142 -0.7722  0.9082
86482SOL    HW277057   7.939   0.429   7.908  1.3366 -0.1822 -1.4940
86483SOL     OW77058   6.165   4.142   2.088  0.2101  0.0028 -0.3187
86483SOL    HW177059   6.177   4.080   2.160 -1.5880  0.2120  0.2225
86483SOL    HW277060   6.242   4.130   2.032  1.4951 -0.3800  1.4627
86484SOL     OW77061   1.092   3.147   7.430  0.7173 -0.4998 -0.2407
86484SOL    HW177062   1.118   3.200   7.505 -1.2953  1.0012 -0.5290
86484SOL    HW277063   1.028   3.085   7.465  0.2202 -0.1910 -0.5932
86485SOL     OW77064   2.251  12.957  13.734  0.2297  0.4814  0.1282
86485SOL    HW177065   2.244  12.874  13.688 -0.3505  0.9189 -0.5896
86485SOL    HW277066   2.271  12.933  13.825 -0.2511 -0.4433 -0.0046
86486SOL     OW77067   8.614   4.063  12.138 -0.0134 -0.2931 -0.1364
86486SOL    HW177068   8.563   4.083  12.060  2.1498  2.6465 -0.9485
86486SOL    HW277069   8.682   4.003  12.108 -0.1918 -0.5263 -0.0840
86487SOL     OW77070  10.305  11.884   7.056 -0.3619 -0.5840 -0.0276
86487SOL    HW177071  10.310  11.928   6.971 -1.3014 -0.5573 -0.0876
86487SOL    HW277072  10.261  11.801   7.037  1.6178 -1.6993  0.0376
86488SOL     OW77073   9.021   5.361  12.526 -0.3936 -0.6870  0.0559
86488SOL    HW177074   9.081   5.354  12.600  0.0147 -0.5498 -0.2579
86488SOL    HW277075   8.984   5.273  12.517  0.8107 -1.1504 -0.6144
86489SOL     OW77076   3.029   4.518   6.597  0.3720 -0.7422 -0.6249
86489SOL    HW177077   3.025   4.578   6.524  1.5377 -0.8211 -0.7734
86489SOL    HW277078   2.997   4.435   6.562  1.6130 -0.9719 -1.2720
86490SOL     OW77079   1.650  13.393   1.365 -0.1496  0.0443  0.6340
86490SOL    HW177080   1.741  13.365   1.363  0.4131  1.6377  1.7545
86490SOL    HW277081   1.623  13.395   1.273  1.0770 -0.0411  0.2613
86491SOL     OW77082   8.693   8.437   7.320  0.3190 -0.6622 -0.2324
86491SOL    HW177083   8.710   8.421   7.228 -0.0902  0.7945 -0.5962
86491SOL    HW277084   8.720   8.528   7.334  1.1356 -1.1088  1.2839
86492SOL     OW77085   3.445   8.231   7.252  0.1178  0.1403  0.2157
86492SOL    HW177086   3.389   8.306   7.230  1.2761  0.7742 -0.6366
86492SOL    HW277087   3.469   8.193   7.167  1.3874  0.1913  0.5343
86493SOL     OW77088  12.823  14.017   6.740  0.3550 -0.4294  0.9449
86493SOL    HW177089  12.897  14.044   6.795  0.8504  1.6345 -0.6012
86493SOL    HW277090  12.810  14.091   6.680 -1.9405 -1.4276  0.1128
86494SOL     OW77091   6.465  13.432   9.459 -0.8221 -0.1101 -0.1555
86494SOL    HW177092   6.460  13.392   9.545  0.2647  1.5591  0.7470
86494SOL    HW277093   6.388  13.489   9.454 -0.9070 -0.2381 -0.2987
86495SOL     OW77094   3.871   3.140   8.743  0.7424  0.0950  0.0336
86495SOL    HW177095   3.923   3.219   8.760 -1.6672  1.6490  0.7429
86495SOL    HW277096   3.833   3.155   8.657 -0.3132  0.0716  0.4867
86496SOL     OW77097  11.307   4.903  11.552  0.0845  0.5116 -0.0630
86496SOL    HW177098  11.297   4.857  11.635 -1.3487 -0.9818 -1.0061
86496SOL    HW277099  11.252   4.981  11.561 -1.3880 -0.4693 -0.1426
86497SOL     OW77100   7.278   2.679   9.275 -0.1959 -0.2121 -0.6823
86497SOL    HW177101   7.232   2.673   9.359  1.5544 -0.2803  0.3072
86497SOL    HW277102   7.223   2.737   9.222 -1.2469 -0.0354  0.5482
86498SOL     OW77103   0.498   2.288  11.774  0.7887  0.1766 -0.9957
86498SOL    HW177104   0.522   2.359  11.714  1.4764  1.7539  1.0418
86498SOL    HW277105   0.582   2.255  11.806  0.5944 -2.7663 -3.0678
86499SOL     OW77106   2.158   7.116  12.814 -0.2306  0.4776 -0.3311
86499SOL    HW177107   2.217   7.188  12.834  3.3881 -1.6613 -2.3328
86499SOL    HW277108   2.166   7.057  12.889 -0.9353  0.7664 -0.0143
86500SOL     OW77109   8.651   1.962   5.206 -0.2542 -0.5862 -0.0965
86500SOL    HW177110   8.635   2.000   5.293 -0.3358 -0.9052  0.0286
86500SOL    HW277111   8.575   1.988   5.154 -0.4884 -0.8916  0.0933
86501SOL     OW77112   1.263   1.106  10.242  0.4929 -0.0635 -0.1348
86501SOL    HW177113   1.274   1.198  10.262  0.5592  0.0252 -0.5805
86501SOL    HW277114   1.246   1.065  10.328 -0.4985  0.4967 -0.0446
86502SOL     OW77115   3.538   0.204   1.882  0.1874 -0.2256 -0.0405
86502SOL    HW177116   3.514   0.145   1.953  1.9882 -0.1915  0.6582
86502SOL    HW277117   3.601   0.154   1.829 -0.0672  0.2494 -0.8155
86503SOL     OW77118  12.989   7.237   3.700  0.0986 -0.3554 -0.7155
86503SOL    HW177119  12.971   7.330   3.690 -0.8736 -0.2736  1.2863
86503SOL    HW277120  12.984   7.202   3.611 -2.2482  1.0518 -1.2135
86504SOL     OW77121   7.058  11.873   9.636  0.1296 -0.0797  0.2929
86504SOL    HW177122   6.992  11.821   9.681 -0.8336  1.0530  0.2464
86504SOL    HW277123   7.124  11.891   9.702  0.5679 -1.4946  0.2553
86505SOL     OW77124  10.385   5.559  12.283 -0.1308 -0.0128 -0.0897
86505SOL    HW177125  10.305   5.606  12.307 -0.6794 -0.1442 -1.5394
86505SOL    HW277126  10.354   5.485  12.230  0.7620 -1.6277  1.5365
86506SOL     OW77127   1.482   8.546   5.933  0.2461  0.8605  0.6614
86506SOL    HW177128   1.571   8.510   5.924 -0.1098  0.1413 -0.0943
86506SOL    HW277129   1.425   8.472   5.913 -0.5234  1.4365  0.7154
86507SOL     OW77130   4.493   7.541   2.132  0.0332 -0.2661  0.2599
86507SOL    HW177131   4.533   7.598   2.198  2.1030 -0.2735 -0.8978
86507SOL    HW277132   4.557   7.470   2.120  0.0239  0.0626 -2.1545
86508SOL     OW77133   6.669  13.264   6.672  0.3398 -0.1022  0.5313
86508SOL    HW177134   6.647  13.331   6.737 -1.1594 -1.6034  1.6450
86508SOL    HW277135   6.616  13.287   6.596 -0.1748 -0.0304  0.9064
86509SOL     OW77136   0.244   6.833   5.747 -0.1468  0.3937 -0.6014
86509SOL    HW177137   0.149   6.819   5.738 -0.5343  0.7470  2.1827
86509SOL    HW277138   0.257   6.854   5.839  2.6398  0.6933 -0.9729
86510SOL     OW77139   9.580   9.105  13.029  0.0619  0.1669 -0.1922
86510SOL    HW177140   9.493   9.072  13.007  0.0676  0.7109 -1.0658
86510SOL    HW277141   9.615   9.138  12.947  1.0523  0.0661  0.1793
86511SOL     OW77142  13.454   4.116  13.691  0.0775 -0.1201  0.0149
86511SOL    HW177143  13.543   4.081  13.696  0.1894  0.1544  0.0012
86511SOL    HW277144  13.402   4.059  13.747  0.2295 -0.3825 -0.1124
86512SOL     OW77145   8.584   5.923  11.933 -0.1846 -0.4268  0.0656
86512SOL    HW177146   8.581   5.875  12.015 -0.3157 -0.6574 -0.0732
86512SOL    HW277147   8.498   5.963  11.924 -0.7104 -1.6729 -0.7114
86513SOL     OW77148   3.828   1.980   9.388 -0.5922  0.3811 -0.2341
86513SOL    HW177149   3.889   1.991   9.316 -2.4255  2.3650 -1.6145
86513SOL    HW277150   3.878   1.934   9.455  1.4816 -0.6762 -2.3710
86514SOL     OW77151  13.518  10.960   6.113  0.5627 -0.3719 -0.2630
86514SOL    HW177152  13.496  10.922   6.198  1.1312  1.4623  0.7824
86514SOL    HW277153  13.613  10.973   6.117  0.7285 -1.0661 -1.5484
86515SOL     OW77154   5.525   2.713   5.628 -0.0102 -0.1230 -0.2702
86515SOL    HW177155   5.551   2.620   5.627 -0.4654 -0.3582  2.5014
86515SOL    HW277156   5.578   2.752   5.698 -1.7332  1.0742  0.4314
86516SOL     OW77157  12.978   9.806   0.462  0.0084 -0.1789 -0.3558
86516SOL    HW177158  13.030   9.727   0.473 -0.5419 -0.2509  2.5507
86516SOL    HW277159  13.042   9.877   0.459  0.4367 -0.5978 -1.5043
86517SOL     OW77160   9.507  13.429   6.997 -0.0073 -0.6938 -0.1509
86517SOL    HW177161   9.519  13.339   7.029  2.0584 -0.6867 -0.7531
86517SOL    HW277162   9.561  13.433   6.919 -0.9879  0.7758 -0.7982
86518SOL     OW77163  12.248  12.430  10.570  0.7164  0.6735 -0.1020
86518SOL    HW177164  12.216  12.405  10.483 -0.5796 -1.3754  0.8977
86518SOL    HW277165  12.171  12.469  10.613  0.2211 -1.6681  1.3243
86519SOL     OW77166  11.278   7.144   0.150 -0.1145  0.1126  0.7734
86519SOL    HW177167  11.289   7.088   0.073 -3.4061 -0.9106  0.8746
86519SOL    HW277168  11.269   7.233   0.114 -1.3225 -0.3204 -0.0591
86520SOL     OW77169   5.026   2.200   2.130 -0.1068 -0.0096 -0.0751
86520SOL    HW177170   5.025   2.105   2.144 -2.4650 -0.3358 -1.7844
86520SOL    HW277171   5.027   2.237   2.218 -0.4326 -1.6414  0.6571
86521SOL     OW77172   2.427   6.087  12.603  0.2816 -0.2879 -0.7014
86521SOL    HW177173   2.379   6.156  12.557  1.2363 -0.6559 -2.3161
86521SOL    HW277174   2.507   6.129  12.633  0.6569 -0.5647 -1.2959
86522SOL     OW77175   0.011   8.558  11.903 -0.1840  0.5155 -0.0828
86522SOL    HW177176   0.068   8.633  11.888  0.3213  0.3923  1.1110
86522SOL    HW277177  -0.076   8.596  11.916  0.3445  1.1149  2.2698
86523SOL     OW77178   5.233   7.205  13.187  0.1879  0.4070 -0.2957
86523SOL    HW177179   5.138   7.191  13.183  0.3283 -0.2301 -2.1097
86523SOL    HW277180   5.267   7.128  13.232  0.0098 -0.2920 -1.3369
86524SOL     OW77181   0.424   2.626  13.877  0.5214  0.0417  0.5895
86524SOL    HW177182   0.497   2.620  13.939 -0.8325 -0.7334  2.2011
86524SOL    HW277183   0.391   2.715  13.887  0.3784 -0.0460  0.9019
86525SOL     OW77184  11.378   2.726   9.065 -0.1453 -0.5592  0.0896
86525SOL    HW177185  11.341   2.725   9.153 -0.7439  0.3275 -0.1381
86525SOL    HW277186  11.363   2.815   9.033 -0.2990 -0.9779 -1.0639
86526SOL     OW77187  12.030   5.671   1.351 -0.5591  0.1076  0.0605
86526SOL    HW177188  12.076   5.691   1.270  0.4744 -1.7588  0.1400
86526SOL    HW277189  11.939   5.658   1.325 -0.3618  0.1954 -0.6870
86527SOL     OW77190   4.364   3.877   6.315 -0.0247  0.0069 -0.3307
86527SOL    HW177191   4.310   3.857   6.391  1.1360  0.6212  0.6933
86527SOL    HW277192   4.311   3.936   6.263 -1.1729 -1.1001 -0.4532
86528SOL     OW77193   3.598   1.370  13.625 -0.1040  0.2806  0.3957
86528SOL    HW177194   3.622   1.463  13.629 -1.0118  0.6115 -0.9898
86528SOL    HW277195   3.617   1.336  13.713  2.2140  1.2622  0.3409
86529SOL     OW77196   0.869   2.683  10.948  0.1383  0.1227 -0.5483
86529SOL    HW177197   0.853   2.771  10.914  0.2348 -0.0607 -1.0708
86529SOL    HW277198   0.962   2.680  10.968 -0.2125  0.8137  1.4274
86530SOL     OW77199  11.429  11.877  13.690 -0.4715  0.2839 -0.4843
86530SOL    HW177200  11.362  11.809  13.689 -0.6958  0.4768  0.3893
86530SOL    HW277201  11.508  11.833  13.659 -0.9562  0.0161 -1.3747
86531SOL     OW77202   4.839  12.293   0.800 -0.4162  0.1382  0.1356
86531SOL    HW177203   4.885  12.369   0.836  0.6960 -1.0636  1.4333
86531SOL    HW277204   4.802  12.249   0.877  1.0330 -1.9041 -0.2395
86532SOL     OW77205   3.874   6.681   0.149  0.1773  0.2344  0.7194
86532SOL    HW177206   3.838   6.738   0.081  1.1041  1.1711  0.9925
86532SOL    HW277207   3.968   6.697   0.147  0.3535 -0.6503  1.3864
86533SOL     OW77208   1.744   1.838   8.659  0.0934 -0.0348  0.0159
86533SOL    HW177209   1.771   1.748   8.677  0.6474 -0.3709 -2.2259
86533SOL    HW277210   1.664   1.830   8.607  1.0888  0.6532 -1.7306
86534SOL     OW77211  13.913   2.575   9.139 -0.1720  0.3393 -0.5046
86534SOL    HW177212  13.850   2.507   9.166  1.3194 -1.2523 -0.8674
86534SOL    HW277213  13.870   2.620   9.067  0.1449 -2.6468 -2.7662
86535SOL     OW77214  11.580  10.573  12.513  0.1037  0.4181 -0.4621
86535SOL    HW177215  11.489  10.589  12.538 -0.3080 -1.7502 -0.4257
86535SOL    HW277216  11.627  10.572  12.597 -0.2809 -0.8553 -0.2310
86536SOL     OW77217   1.641   8.505  10.312  0.7676 -0.1628  0.1696
86536SOL    HW177218   1.560   8.508  10.261  0.4214 -0.2683  0.6951
86536SOL    HW277219   1.708   8.539  10.254 -0.2790  3.7879  0.9366
86537SOL     OW77220  11.538  10.378   6.070 -0.2310  0.1845  0.4275
86537SOL    HW177221  11.587  10.459   6.087  0.2857 -0.5086  2.6164
86537SOL    HW277222  11.448  10.407   6.054  0.5290  1.3841 -2.3808
86538SOL     OW77223   8.379   7.317   2.117  0.4997  0.4147  0.2851
86538SOL    HW177224   8.412   7.363   2.040  0.6346  0.1505  0.1859
86538SOL    HW277225   8.314   7.377   2.154  0.5665  0.6219  0.0722
86539SOL     OW77226  13.369  11.258  10.512 -0.3346  0.3624 -0.4089
86539SOL    HW177227  13.433  11.301  10.455  1.6448 -1.3945  0.3630
86539SOL    HW277228  13.386  11.164  10.501 -1.4435 -0.0896  1.3399
86540SOL     OW77229  12.369   2.520  11.328 -0.0234 -0.2674  0.4771
86540SOL    HW177230  12.297   2.541  11.387  0.2797  0.3199  0.6549
86540SOL    HW277231  12.446   2.520  11.385 -0.0695 -2.5016  0.5996
86541SOL     OW77232   9.869  10.380   2.333 -0.4177  0.8384 -0.0643
86541SOL    HW177233   9.830  10.297   2.360 -2.4578  1.7658 -0.0260
86541SOL    HW277234   9.908  10.416   2.412  0.2167  0.0762 -0.0181
86542SOL     OW77235   4.881   1.132   1.373  0.2202  0.1656  0.6340
86542SOL    HW177236   4.829   1.069   1.422  1.3365 -1.4449 -0.1545
86542SOL    HW277237   4.819   1.171   1.311 -0.3527 -0.6718  0.6642
86543SOL     OW77238   5.848   4.210   0.203 -0.2784 -0.7036  0.4850
86543SOL    HW177239   5.839   4.230   0.296 -3.0303  1.4246 -0.1092
86543SOL    HW277240   5.777   4.148   0.185 -1.7070  1.1727 -0.6748
86544SOL     OW77241   8.570  11.989   8.871  0.1644 -0.6845  0.2617
86544SOL    HW177242   8.537  11.904   8.902  0.7943 -0.6939  0.9422
86544SOL    HW277243   8.625  12.021   8.943  1.5690 -0.6374 -0.7763
86545SOL     OW77244   7.748   7.818   1.585 -0.3262  0.0307  0.1085
86545SOL    HW177245   7.754   7.903   1.542 -3.1106 -0.6904 -2.0557
86545SOL    HW277246   7.832   7.775   1.568 -0.2037  0.9961 -2.0263
86546SOL     OW77247   3.255   6.091   6.089 -0.0941 -0.0145  0.4062
86546SOL    HW177248   3.297   6.177   6.087  1.3790 -0.6919  0.6200
86546SOL    HW277249   3.218   6.081   6.001  1.0622  0.2242 -0.1328
86547SOL     OW77250   1.902   8.474   9.167  0.5195 -0.4213 -0.4693
86547SOL    HW177251   1.929   8.434   9.249  0.3588 -2.2569 -1.2654
86547SOL    HW277252   1.982   8.476   9.114  0.1987 -1.1498 -0.9942
86548SOL     OW77253   5.401   5.116   0.371 -0.2699  0.2716 -0.2809
86548SOL    HW177254   5.477   5.067   0.402 -1.1304 -0.5596  0.6011
86548SOL    HW277255   5.434   5.169   0.298  1.3480  0.6549  0.6835
86549SOL     OW77256   9.419   4.330   1.385 -0.5173 -0.3980  0.0146
86549SOL    HW177257   9.347   4.270   1.363 -1.5012  0.8578 -0.2958
86549SOL    HW277258   9.390   4.374   1.465 -0.5193  0.7448 -0.5923
86550SOL     OW77259   7.415  12.523  11.344  0.0270  0.1307  0.3016
86550SOL    HW177260   7.461  12.456  11.395  0.8004  1.1465  0.9759
86550SOL    HW277261   7.485  12.571  11.299 -0.5014  0.6056 -0.0203
86551SOL     OW77262  13.500  13.496   4.724 -0.8993  0.0557  0.0592
86551SOL    HW177263  13.413  13.465   4.698 -0.5428 -1.5844  0.6682
86551SOL    HW277264  13.547  13.416   4.748  0.7132  0.9321 -0.0599
86552SOL     OW77265  13.960  13.723   6.605 -0.2224  0.3442  0.7072
86552SOL    HW177266  13.901  13.749   6.534  0.2848 -0.0085  0.1456
86552SOL    HW277267  14.021  13.796   6.613 -0.1963  0.3244  0.6882
86553SOL     OW77268   2.408  12.098   1.382 -0.2051 -0.4328  0.3715
86553SOL    HW177269   2.476  12.160   1.407 -0.6540 -0.3486  1.4484
86553SOL    HW277270   2.343  12.151   1.335  1.7790 -0.9948 -3.3838
86554SOL     OW77271   8.433   0.659   4.109  0.2917  0.0713 -0.4458
86554SOL    HW177272   8.513   0.620   4.146  0.3788  1.1614  0.5676
86554SOL    HW277273   8.456   0.678   4.018  0.1242 -2.5439 -1.1294
86555SOL     OW77274   1.504  13.051   5.258  0.1890  0.0357  0.1964
86555SOL    HW177275   1.568  12.982   5.246  0.6211  0.6661 -1.2903
86555SOL    HW277276   1.522  13.114   5.189 -1.0018  1.0285  0.7350
86556SOL     OW77277  11.197  13.261   3.623  0.0914  0.3370  0.1829
86556SOL    HW177278  11.137  13.278   3.695 -0.3950 -3.9834  1.0769
86556SOL    HW277279  11.141  13.238   3.549  0.6469  1.1014 -0.5003
86557SOL     OW77280   3.685   6.146  10.870 -0.6870 -0.3287 -0.0071
86557SOL    HW177281   3.616   6.208  10.844 -0.2454  0.2378  0.1619
86557SOL    HW277282   3.645   6.060  10.857 -1.8136 -0.0081  1.1072
86558SOL     OW77283  14.013   6.740   3.187  0.0274 -0.0029 -0.3492
86558SOL    HW177284  14.082   6.804   3.204  1.8475 -1.7950 -0.6640
86558SOL    HW277285  13.951   6.752   3.260  0.4178  1.9091 -0.2777
86559SOL     OW77286   4.259   7.447  12.877  0.0801 -0.2779 -0.4335
86559SOL    HW177287   4.164   7.459  12.883  0.3082  0.9800  3.2338
86559SOL    HW277288   4.282   7.398  12.956  2.6699  1.2591 -0.1166
86560SOL     OW77289  12.378  13.389   9.922 -0.6477  0.0255 -0.0679
86560SOL    HW177290  12.432  13.328   9.871  0.3522 -0.0610  1.0480
86560SOL    HW277291  12.409  13.378  10.012 -1.6098  0.9764  0.3934
86561SOL     OW77292   2.472   2.415   7.119  0.0377  0.6479  0.6152
86561SOL    HW177293   2.543   2.478   7.111  1.5493 -0.8297  1.7461
86561SOL    HW277294   2.511   2.331   7.093 -1.8365  0.0947 -0.6123
86562SOL     OW77295   6.811   9.104   3.653 -0.0767  0.2422  0.1585
86562SOL    HW177296   6.837   9.086   3.562  1.4675 -0.9092  0.7726
86562SOL    HW277297   6.763   9.187   3.648 -0.6575 -0.1501 -1.7910
86563SOL     OW77298  11.058   4.654   6.312 -0.1722 -0.3609 -0.1703
86563SOL    HW177299  11.061   4.691   6.401 -1.0012  0.4024 -0.4390
86563SOL    HW277300  11.050   4.560   6.326 -1.6862 -0.1623  0.6193
86564SOL     OW77301   5.088   4.071   4.866  0.3183 -0.1441  0.2389
86564SOL    HW177302   5.145   4.063   4.789  0.1560  1.5810 -0.1196
86564SOL    HW277303   5.148   4.071   4.940  0.4638 -2.0199  0.1662
86565SOL     OW77304   6.570  12.005   7.334  0.3913 -0.0971  0.7377
86565SOL    HW177305   6.641  12.030   7.275  0.2853 -1.3453  0.0581
86565SOL    HW277306   6.581  12.063   7.410 -1.4233  3.9734 -1.7360
86566SOL     OW77307   3.565  11.913   1.103 -0.3589 -0.8451 -0.9812
86566SOL    HW177308   3.563  11.917   1.007 -0.6595 -1.3240 -0.9983
86566SOL    HW277309   3.475  11.892   1.128 -0.8383  1.5514 -0.4664
86567SOL     OW77310   4.699   6.856   5.089  0.0935 -0.6143 -0.0523
86567SOL    HW177311   4.768   6.795   5.063  0.4024 -0.8266  1.1816
86567SOL    HW277312   4.620   6.802   5.096 -0.0690 -0.4869 -0.8820
86568SOL     OW77313  13.821   5.006  10.202 -0.2084 -0.0303 -1.1583
86568SOL    HW177314  13.826   4.935  10.138 -1.3453 -0.4951 -0.7616
86568SOL    HW277315  13.882   5.072  10.170 -1.2493  0.0526 -3.1356
86569SOL     OW77316   6.496   9.174   0.611 -0.5622 -0.5087  0.2834
86569SOL    HW177317   6.546   9.111   0.662 -3.3105 -2.3570  0.9190
86569SOL    HW277318   6.427   9.204   0.670 -0.6495  1.4650 -0.7198
86570SOL     OW77319   1.772   1.494   0.914  0.4208 -0.5530  0.0649
86570SOL    HW177320   1.861   1.509   0.946 -0.6048  1.8896  2.1649
86570SOL    HW277321   1.774   1.523   0.823  1.4768  1.0219  0.5377
86571SOL     OW77322   8.816   6.280   3.569  0.0199 -0.0217 -0.1688
86571SOL    HW177323   8.871   6.354   3.543 -3.6209  2.5383 -1.4775
86571SOL    HW277324   8.771   6.254   3.489 -1.0670 -1.6148  0.8913
86572SOL     OW77325   6.129   7.972   1.659 -0.2612 -0.1568  0.2022
86572SOL    HW177326   6.191   8.005   1.593 -0.1188 -0.4953  0.1603
86572SOL    HW277327   6.125   8.041   1.725  0.9478 -0.5344  0.7196
86573SOL     OW77328   1.987   2.242   3.335 -0.1717  0.4393 -0.0943
86573SOL    HW177329   1.921   2.263   3.268 -0.0081  1.0705 -0.0625
86573SOL    HW277330   1.953   2.163   3.378 -0.9941  0.8574  0.0379
86574SOL     OW77331   2.834   7.464   1.774  0.5506 -0.1417  0.0579
86574SOL    HW177332   2.890   7.539   1.794 -0.9990  1.3716 -1.0658
86574SOL    HW277333   2.773   7.460   1.848  1.7243 -1.4598  1.0134
86575SOL     OW77334  13.936   0.949   1.075  0.1336  0.4289 -0.2259
86575SOL    HW177335  14.011   0.894   1.096  0.0138 -0.2015 -1.3637
86575SOL    HW277336  13.964   0.999   0.998  0.0122  1.5109  0.4087
86576SOL     OW77337  11.095   3.834   9.726  0.3940 -0.1337 -0.2438
86576SOL    HW177338  11.060   3.873   9.806  1.1885 -0.2822  0.1864
86576SOL    HW277339  11.099   3.741   9.745 -2.6075 -0.6918 -1.6755
86577SOL     OW77340   6.767  12.722   6.185  0.1726  0.7728  0.5054
86577SOL    HW177341   6.673  12.739   6.192 -0.3753 -1.0014 -1.3669
86577SOL    HW277342   6.773  12.645   6.128  2.8268  1.6417 -0.5563
86578SOL     OW77343   0.131   9.901   1.784  0.1164 -0.1759 -0.2446
86578SOL    HW177344   0.149   9.970   1.848  2.0055 -0.3804 -0.5044
86578SOL    HW277345   0.213   9.893   1.734 -0.7131 -1.2789 -1.4843
86579SOL     OW77346   1.730   5.093   7.824 -0.5403 -0.2987 -0.2999
86579SOL    HW177347   1.778   5.085   7.742 -0.3697 -2.1583 -0.0458
86579SOL    HW277348   1.766   5.173   7.864 -0.9780  0.9226 -2.2124
86580SOL     OW77349   0.996  10.593   7.256 -0.3430  0.0021 -0.1674
86580SOL    HW177350   1.034  10.656   7.194 -0.8485  1.3306  0.8260
86580SOL    HW277351   0.959  10.524   7.201  1.9899 -0.4938 -1.2360
86581SOL     OW77352  12.209   0.855   1.677  0.3873  0.3016 -0.2465
86581SOL    HW177353  12.232   0.762   1.674  2.2197  0.7251 -2.1210
86581SOL    HW277354  12.148   0.867   1.604  2.3069  0.9854 -1.8391
86582SOL     OW77355   4.000   7.335   1.582 -0.0081 -0.1624 -0.0759
86582SOL    HW177356   4.006   7.411   1.525 -0.0104 -0.5649 -0.6262
86582SOL    HW277357   3.913   7.342   1.622 -1.3760 -1.5073 -2.5472
86583SOL     OW77358  10.828  12.047   8.369  0.0770  0.0725  0.1568
86583SOL    HW177359  10.748  12.008   8.404 -0.5772  0.8832 -0.3888
86583SOL    HW277360  10.800  12.091   8.288  0.5364  2.5911  1.2731
86584SOL     OW77361   1.317   7.380   3.367 -0.3391 -0.1482 -0.0801
86584SOL    HW177362   1.309   7.430   3.448 -0.9756  0.6356 -0.6132
86584SOL    HW277363   1.411   7.369   3.355 -0.2435 -0.4592  0.8675
86585SOL     OW77364   2.279   8.206  10.484 -0.1907 -0.1740 -0.2918
86585SOL    HW177365   2.339   8.240  10.418 -0.5227 -0.0185 -0.5202
86585SOL    HW277366   2.271   8.113  10.463 -0.6890 -0.0285 -0.7975
86586SOL     OW77367   2.300  12.066   1.617 -0.0118  0.1691  0.1606
86586SOL    HW177368   2.336  12.059   1.529  1.8298  0.9884  0.8143
86586SOL    HW277369   2.244  11.989   1.626  1.2407 -0.9270 -1.0603
86587SOL     OW77370  13.732   4.657  10.460  0.4823  0.0901 -0.0322
86587SOL    HW177371  13.669   4.614  10.517 -0.3874  1.0964 -0.2123
86587SOL    HW277372  13.769   4.586  10.407 -0.8176 -0.4682 -0.2282
86588SOL     OW77373   6.068   2.225  11.399 -0.4707 -0.1277  0.3577
86588SOL    HW177374   6.041   2.240  11.308  0.3155 -1.0687 -0.0530
86588SOL    HW277375   6.052   2.131  11.413  2.6690 -0.8153  0.0082
86589SOL     OW77376   0.209   8.337   5.616 -0.0549  0.5080  0.0916
86589SOL    HW177377   0.164   8.369   5.694  0.8754 -0.1623  0.9306
86589SOL    HW277378   0.172   8.388   5.544 -3.0552 -0.8779  0.5335
86590SOL     OW77379   5.117   0.632   0.572 -0.1929  0.2378  0.0942
86590SOL    HW177380   5.066   0.661   0.648 -0.0759 -1.6398  0.9451
86590SOL    HW277381   5.177   0.705   0.554 -0.3551  0.8047  1.6750
86591SOL     OW77382   9.539  13.970   1.508 -0.1039  0.2018 -0.2692
86591SOL    HW177383   9.489  14.052   1.504  1.6023  1.2490 -1.8878
86591SOL    HW277384   9.579  13.971   1.594 -2.3667 -0.4170  0.8676
86592SOL     OW77385   4.772   4.686   1.650 -0.1111  0.2059 -0.0961
86592SOL    HW177386   4.740   4.597   1.665 -0.0926  0.1270 -0.5074
86592SOL    HW277387   4.698   4.732   1.612  0.3802 -0.1059 -1.4988
86593SOL     OW77388  10.681  12.212   1.585  0.5712  0.6143 -0.2515
86593SOL    HW177389  10.774  12.215   1.561  0.2429  1.9393 -1.4719
86593SOL    HW277390  10.636  12.255   1.512 -1.0457 -0.3256  0.1561
86594SOL     OW77391   0.186   6.492   1.143  0.0455  0.0526  0.2364
86594SOL    HW177392   0.140   6.435   1.081 -0.9764 -1.6674  2.4437
86594SOL    HW277393   0.119   6.520   1.205  1.2894  0.4810  1.4380
86595SOL     OW77394   0.476   9.618  13.309 -0.0739 -0.2228 -0.4696
86595SOL    HW177395   0.425   9.680  13.256  0.2362  1.0546  0.7014
86595SOL    HW277396   0.467   9.649  13.399  1.4474 -0.9243 -0.0426
86596SOL     OW77397   2.779  10.409   1.965  0.2575 -0.1595 -0.3013
86596SOL    HW177398   2.859  10.369   1.930  0.7128 -0.2291  0.7563
86596SOL    HW277399   2.793  10.503   1.954  0.0652 -0.2074 -0.9784
86597SOL     OW77400   3.953   8.164   5.333 -0.1432 -0.2163  0.4310
86597SOL    HW177401   3.879   8.224   5.323 -0.2033 -0.6318 -3.1265
86597SOL    HW277402   4.030   8.221   5.330 -0.2624 -0.0778 -0.2389
86598SOL     OW77403   8.393   6.359  12.654 -0.0801 -0.2142 -0.4440
86598SOL    HW177404   8.429   6.273  12.631  0.7305 -0.1418  0.4616
86598SOL    HW277405   8.436   6.381  12.737 -0.9826  0.6461 -0.1828
86599SOL     OW77406   7.850   7.230   9.140  0.2017  0.1851  0.1383
86599SOL    HW177407   7.782   7.201   9.201 -0.3378 -0.2789 -0.6676
86599SOL    HW277408   7.869   7.153   9.087  2.1251 -0.0049  1.0173
86600SOL     OW77409   8.621   1.471   8.302  0.3524  0.3457 -0.1968
86600SOL    HW177410   8.638   1.389   8.254  1.1080  1.6776 -2.3625
86600SOL    HW277411   8.707   1.507   8.319 -0.0001  1.5180 -0.8108
86601SOL     OW77412  12.786   0.033   1.384 -0.1965  0.2325  0.4173
86601SOL    HW177413  12.704   0.011   1.430  1.0550 -1.3609  2.0303
86601SOL    HW277414  12.855   0.007   1.445  1.5437  1.6557 -0.8471
86602SOL     OW77415   7.068   4.624   0.752  0.5994 -0.0164 -0.2923
86602SOL    HW177416   7.063   4.529   0.740  3.0791 -0.1538 -0.8583
86602SOL    HW277417   7.024   4.660   0.675  0.2793 -0.7296 -0.4505
86603SOL     OW77418  11.364   7.890   0.227 -0.3295 -0.3784  0.2095
86603SOL    HW177419  11.460   7.892   0.229 -0.3288  0.1225 -0.2201
86603SOL    HW277420  11.341   7.916   0.138 -0.8753 -0.2365  0.3885
86604SOL     OW77421   4.639   2.117   2.791  0.5496 -0.4834 -0.6558
86604SOL    HW177422   4.614   2.035   2.833  1.3294 -0.1179  0.5529
86604SOL    HW277423   4.573   2.129   2.722 -1.4606 -0.5431  1.1556
86605SOL     OW77424   9.123   2.565   4.618 -0.5820  0.3013  0.3757
86605SOL    HW177425   9.128   2.655   4.586  0.2840  0.1717  0.1435
86605SOL    HW277426   9.119   2.575   4.714  1.1504  0.5491  0.4491
86606SOL     OW77427   0.917   5.452   5.493 -0.0196 -0.6060  0.2437
86606SOL    HW177428   0.825   5.426   5.495 -0.0267 -0.9105 -1.7638
86606SOL    HW277429   0.917   5.535   5.445  0.5771  0.4596  1.9818
86607SOL     OW77430   4.916  11.123  13.332 -0.4481  0.6715  0.1619
86607SOL    HW177431   4.958  11.208  13.344  0.5769  0.4052 -1.2374
86607SOL    HW277432   4.827  11.144  13.306 -0.5622  1.2843  0.9976
86608SOL     OW77433   5.208  11.094  13.840 -0.5450  0.4830 -0.7949
86608SOL    HW177434   5.222  11.188  13.828  0.4154  0.5215  0.4018
86608SOL    HW277435   5.173  11.064  13.756 -1.2237  1.9625 -1.0832
86609SOL     OW77436   3.074   4.360   5.162  0.0303  0.2344 -0.6194
86609SOL    HW177437   3.024   4.384   5.240 -1.1974 -2.9944 -0.2300
86609SOL    HW277438   3.011   4.364   5.090  0.3927  0.3895 -0.9332
86610SOL     OW77439   1.761   3.823  10.922  0.1018  0.0867 -0.0967
86610SOL    HW177440   1.822   3.773  10.868 -1.4326  0.5452 -2.3878
86610SOL    HW277441   1.806   3.905  10.941  0.4508  0.1918 -1.2946
86611SOL     OW77442   8.015   0.502  12.242 -0.0880 -0.2143 -0.5716
86611SOL    HW177443   8.071   0.527  12.169  0.8165 -0.1669  0.1302
86611SOL    HW277444   7.963   0.581  12.260 -0.5505 -0.3231 -1.3501
86612SOL     OW77445  11.660   2.307  12.596 -0.1260 -0.2210 -0.2460
86612SOL    HW177446  11.733   2.256  12.560  0.4706  1.5908 -1.7376
86612SOL    HW277447  11.701   2.386  12.630 -1.3212  0.4723 -0.3786
86613SOL     OW77448  11.820   2.490  12.782  0.6442 -0.2150  0.1895
86613SOL    HW177449  11.856   2.495  12.870 -2.0416  2.4578  1.2876
86613SOL    HW277450  11.860   2.564  12.735 -0.6418  0.6073  0.3423
86614SOL     OW77451   7.980   3.337  12.446  0.1835  0.2908  0.2757
86614SOL    HW177452   8.029   3.318  12.526 -1.3808  1.6037  1.6320
86614SOL    HW277453   7.899   3.379  12.477 -0.3114  1.1903 -2.0250
86615SOL     OW77454  14.089  12.738   1.110 -0.2379  0.1134 -0.2409
86615SOL    HW177455  14.182  12.739   1.130 -0.3916 -1.6471  0.7526
86615SOL    HW277456  14.053  12.668   1.164 -1.9554  0.0291 -1.4009
86616SOL     OW77457  11.983  10.411   3.449  0.5366  0.0949 -0.2099
86616SOL    HW177458  11.987  10.507   3.459 -0.2434  0.0257  0.9515
86616SOL    HW277459  12.001  10.396   3.356  3.1478  1.2067  0.0105
86617SOL     OW77460  10.787  11.993   9.608  0.4046 -0.2399  0.1300
86617SOL    HW177461  10.761  12.072   9.654  1.8385  0.2531  0.1617
86617SOL    HW277462  10.705  11.950   9.585 -0.7400  3.2663 -3.4773
86618SOL     OW77463  11.973  12.086   5.770 -0.2172 -0.4108 -0.0988
86618SOL    HW177464  11.973  12.137   5.689  2.5169  2.1807  1.3295
86618SOL    HW277465  12.041  12.020   5.757 -0.7029 -0.8691 -0.3557
86619SOL     OW77466  12.368   9.213   8.659 -0.2362  0.0466 -0.3529
86619SOL    HW177467  12.281   9.245   8.684 -0.5673 -0.6738 -0.5580
86619SOL    HW277468  12.429   9.271   8.706 -0.8339 -0.8482  1.6325
86620SOL     OW77469   6.383  13.198  13.229  0.1233  0.3454  0.1679
86620SOL    HW177470   6.465  13.242  13.206  0.1809  0.3254  0.3319
86620SOL    HW277471   6.374  13.212  13.323  1.8144 -2.6813  0.9227
86621SOL     OW77472   2.593   0.669   9.690 -0.0744  0.2093 -0.2725
86621SOL    HW177473   2.525   0.683   9.624 -0.5079  0.1904  0.1682
86621SOL    HW277474   2.614   0.756   9.721  0.6760  0.2909 -0.9694
86622SOL     OW77475   7.294  11.851   7.239  0.0992 -0.7119  0.2677
86622SOL    HW177476   7.382  11.864   7.204 -0.3552 -0.8005 -0.9323
86622SOL    HW277477   7.264  11.769   7.201 -1.2568  0.3024 -0.9468
86623SOL     OW77478   7.356  11.586   8.893 -0.3993 -0.1789  0.0607
86623SOL    HW177479   7.273  11.564   8.850  0.1923 -1.8103 -0.3426
86623SOL    HW277480   7.347  11.549   8.980 -0.0449 -0.4744 -0.0296
86624SOL     OW77481   4.597   4.544  13.291  0.0588  0.3978 -0.3395
86624SOL    HW177482   4.513   4.533  13.246 -1.2346  0.0201  2.0023
86624SOL    HW277483   4.582   4.618  13.350  0.4489 -1.3206  2.0344
86625SOL     OW77484  12.296  10.242   7.854 -0.1606  0.0121 -0.2480
86625SOL    HW177485  12.217  10.282   7.818  0.7113  0.2307 -2.0419
86625SOL    HW277486  12.265  10.186   7.926 -1.9234  0.1619 -0.8554
86626SOL     OW77487   0.323   5.106   7.813 -0.1587  0.4558  0.0979
86626SOL    HW177488   0.311   5.188   7.765  4.0098  1.6553  0.7402
86626SOL    HW277489   0.399   5.065   7.772 -0.3617 -1.6594  1.6695
86627SOL     OW77490  13.460   1.021   0.250  0.5827 -0.2759  0.1618
86627SOL    HW177491  13.469   0.958   0.322  1.8346 -0.0768  0.2103
86627SOL    HW277492  13.534   1.081   0.262  2.0248 -1.4142 -2.4223
86628SOL     OW77493   2.083  14.085   5.570  0.3484 -0.4250  0.4707
86628SOL    HW177494   2.023  14.042   5.631  0.3215  0.2849  0.9466
86628SOL    HW277495   2.166  14.090   5.616  0.7410 -1.2314 -0.1171
86629SOL     OW77496   3.211   3.454   7.125  0.2027  0.1019 -0.0268
86629SOL    HW177497   3.250   3.374   7.090  0.9812  0.6348 -0.4045
86629SOL    HW277498   3.150   3.483   7.057 -0.5416 -0.4886  0.3722
86630SOL     OW77499  10.640  11.898   9.175 -0.6355  0.5910 -0.3552
86630SOL    HW177500  10.594  11.948   9.108 -1.3745 -0.1212 -0.3859
86630SOL    HW277501  10.584  11.822   9.192 -0.9214  1.2180  1.7205
86631SOL     OW77502   3.628   4.817   6.533  0.0152  0.8109 -0.3738
86631SOL    HW177503   3.631   4.909   6.507 -0.2009  0.5707 -1.2917
86631SOL    HW277504   3.718   4.797   6.562  0.2392  1.1244 -0.8389
86632SOL     OW77505   8.146   9.436   4.060  0.2660  0.5170 -0.7451
86632SOL    HW177506   8.222   9.481   4.097  1.0180 -0.5338 -0.9890
86632SOL    HW277507   8.151   9.454   3.966  0.9526 -0.5987 -0.9402
86633SOL     OW77508  10.429   0.537   8.530  0.0056  0.3353 -0.3326
86633SOL    HW177509  10.350   0.579   8.496  0.0269  0.7344  0.1067
86633SOL    HW277510  10.404   0.504   8.616  0.8347  2.2131  0.7037
86634SOL     OW77511   3.671  10.534   3.437  0.1264  0.6958 -0.1633
86634SOL    HW177512   3.700  10.580   3.358  1.1559  0.3626 -0.0034
86634SOL    HW277513   3.685  10.597   3.508 -1.8727  1.4103 -0.3469
86635SOL     OW77514   8.290  10.610   5.396 -0.1015  0.2095 -0.1155
86635SOL    HW177515   8.348  10.676   5.433  2.5856 -0.8990 -1.9955
86635SOL    HW277516   8.260  10.647   5.313  0.0432 -0.2378 -0.3753
86636SOL     OW77517   8.318   4.515  11.724  0.7890 -0.1963  0.2486
86636SOL    HW177518   8.350   4.572  11.794  1.5821 -0.6857  0.2916
86636SOL    HW277519   8.350   4.428  11.747  1.2822 -0.3179 -0.8586
86637SOL     OW77520   6.331   5.005   0.112  0.4950 -0.1627 -0.4228
86637SOL    HW177521   6.391   5.009   0.186  0.2961 -2.6843 -0.0309
86637SOL    HW277522   6.377   4.952   0.047 -0.5850 -0.6649 -0.8099
86638SOL     OW77523   4.868   5.380   5.429 -0.0025  0.4641 -0.3937
86638SOL    HW177524   4.920   5.348   5.503 -2.8926  0.5323  1.8579
86638SOL    HW277525   4.797   5.317   5.420 -0.9918  1.6805 -1.6125
86639SOL     OW77526  10.647  12.840  10.879  0.0270 -0.2340 -0.3895
86639SOL    HW177527  10.605  12.871  10.798  0.4781  2.7932  0.4040
86639SOL    HW277528  10.627  12.908  10.943 -0.0745 -2.4180  2.0245
86640SOL     OW77529   0.678  10.492  11.391  0.0407 -0.4170 -0.3628
86640SOL    HW177530   0.697  10.423  11.328 -1.7176 -0.3352 -1.0196
86640SOL    HW277531   0.725  10.466  11.470  0.6118 -1.5837 -1.0638
86641SOL     OW77532   6.709   0.603   2.577  1.1251  0.4139 -0.0961
86641SOL    HW177533   6.775   0.672   2.572  1.3194  0.2504  0.2350
86641SOL    HW277534   6.753   0.530   2.621  1.0505 -0.0725 -0.7982
86642SOL     OW77535   7.922   2.501   2.507  0.3187 -0.2153  0.2497
86642SOL    HW177536   8.008   2.480   2.472  0.0334 -0.5040 -0.2884
86642SOL    HW277537   7.861   2.450   2.454 -0.2499  0.6461  0.0461
86643SOL     OW77538   9.011   5.191  13.188 -0.8586  0.4142 -0.2463
86643SOL    HW177539   8.925   5.186  13.229 -0.4247  0.8718  0.7784
86643SOL    HW277540   9.063   5.124  13.233 -1.3782 -1.8456 -2.7641
86644SOL     OW77541   3.768   5.371  10.026 -0.1196  0.1079 -0.1394
86644SOL    HW177542   3.750   5.299  10.086 -2.1341  1.0551  0.5041
86644SOL    HW277543   3.756   5.333   9.939  1.0542 -0.8465  0.1001
86645SOL     OW77544   3.374   2.805   0.119  0.0674 -0.1544  0.5274
86645SOL    HW177545   3.428   2.726   0.123  1.2872  0.6416  0.5073
86645SOL    HW277546   3.374   2.829   0.026 -1.2671 -0.7487  0.3509
86646SOL     OW77547   0.874   8.025   0.407 -0.3974 -0.5310  0.9060
86646SOL    HW177548   0.789   8.068   0.413  0.1045  0.4046  1.6819
86646SOL    HW277549   0.883   8.003   0.314 -0.2427  2.0852  0.2033
86647SOL     OW77550   5.489   6.068   6.279  0.0106  0.3002  0.2768
86647SOL    HW177551   5.451   6.031   6.199  0.1285 -2.0552  1.2230
86647SOL    HW277552   5.537   6.145   6.249  0.5397 -0.8259 -2.0208
86648SOL     OW77553  11.124  13.042  12.448 -0.0386 -0.0890  0.6608
86648SOL    HW177554  11.068  12.975  12.409  1.1135 -1.0476  0.6070
86648SOL    HW277555  11.075  13.072  12.525 -1.2324  0.0895 -0.1472
86649SOL     OW77556   2.139   8.050   3.305  0.2526 -0.1270 -0.8717
86649SOL    HW177557   2.052   8.012   3.292 -0.1828 -0.0071  1.3871
86649SOL    HW277558   2.137   8.132   3.255  0.1452 -1.4747 -3.2563
86650SOL     OW77559   1.134  12.201   5.054 -0.2140 -0.0018 -0.2939
86650SOL    HW177560   1.193  12.132   5.021  1.5628  1.0092  0.6416
86650SOL    HW277561   1.143  12.271   4.990  0.4222  0.5505  0.3847
86651SOL     OW77562   2.874  13.785   8.024 -0.3873 -0.3572 -0.2162
86651SOL    HW177563   2.805  13.741   8.073 -0.6158  0.3292  0.0945
86651SOL    HW277564   2.857  13.762   7.933 -0.8917 -0.3790 -0.1186
86652SOL     OW77565   0.074   4.262  10.924  0.6996 -0.1223 -0.1323
86652SOL    HW177566   0.077   4.296  10.834 -0.9094 -0.3842 -0.3171
86652SOL    HW277567   0.034   4.176  10.915 -0.8715  0.4477  0.9730
86653SOL     OW77568   2.661   2.339   9.842 -0.0658  0.1405  0.3052
86653SOL    HW177569   2.709   2.332   9.759 -0.5963 -0.4808  0.0436
86653SOL    HW277570   2.638   2.249   9.864 -1.3090  0.4321  0.3007
86654SOL     OW77571  12.764   7.597  13.393 -0.9644 -0.6488  0.4223
86654SOL    HW177572  12.704   7.552  13.453 -3.0759  0.1324 -0.9778
86654SOL    HW277573  12.739   7.689  13.399 -0.0871 -0.3413 -0.4192
86655SOL     OW77574   1.348  12.909  13.943  0.5600 -0.1361 -0.1611
86655SOL    HW177575   1.383  12.903  13.854  2.6225  0.2729  0.5478
86655SOL    HW277576   1.339  13.003  13.959  1.7993 -0.1125  0.5810
86656SOL     OW77577   8.413   7.682   2.952  0.5414  0.4415 -0.1060
86656SOL    HW177578   8.408   7.673   2.857 -2.1038  0.4350 -0.0410
86656SOL    HW277579   8.469   7.758   2.966  1.4404  0.0999 -1.6293
86657SOL     OW77580   9.732  12.113   1.100 -0.1152  0.4391 -0.1831
86657SOL    HW177581   9.683  12.031   1.090 -0.0593  0.4804 -0.8345
86657SOL    HW277582   9.664  12.180   1.102 -0.1312  0.4259 -0.2669
86658SOL     OW77583  12.812   6.421   8.139 -0.2123  0.7915 -0.3253
86658SOL    HW177584  12.723   6.441   8.110 -1.4953 -0.8693  2.1230
86658SOL    HW277585  12.829   6.333   8.105  0.3534  0.9455 -0.4537
86659SOL     OW77586  10.138   9.881   1.341  0.0552  0.1503 -0.2381
86659SOL    HW177587  10.151   9.807   1.400 -1.4241  0.5371  0.6208
86659SOL    HW277588  10.105   9.842   1.260 -1.0209 -0.1398  0.3156
86660SOL     OW77589  10.424   8.526  13.870  0.3401  0.3033 -0.4926
86660SOL    HW177590  10.406   8.596  13.933  1.1051  0.4566 -0.4365
86660SOL    HW277591  10.381   8.554  13.789  0.2013  0.5834 -0.3221
86661SOL     OW77592   2.425  10.155  12.989  0.2190  0.0808 -0.7061
86661SOL    HW177593   2.440  10.237  13.036  0.3177 -0.3017 -0.0627
86661SOL    HW277594   2.468  10.168  12.904 -1.2027  1.3186 -1.2838
86662SOL     OW77595   5.693   1.309   5.015 -0.1268 -0.0525  0.1543
86662SOL    HW177596   5.666   1.340   4.929 -0.5024  0.2602  0.3816
86662SOL    HW277597   5.616   1.263   5.049  0.3262 -0.9942 -0.0600
86663SOL     OW77598   1.881   3.449   8.176  0.0690  0.5211 -0.4369
86663SOL    HW177599   1.806   3.475   8.231 -2.0072 -0.2978 -2.7003
86663SOL    HW277600   1.903   3.361   8.207  0.2051  0.8125  0.3241
86664SOL     OW77601  11.102  13.647  12.188 -0.1818 -0.3596 -0.1432
86664SOL    HW177602  11.084  13.608  12.103 -1.3649 -1.3061  0.5000
86664SOL    HW277603  11.149  13.579  12.236 -1.9626 -0.9664  0.8745
86665SOL     OW77604   9.993  10.059   3.830  0.4167  0.1577  0.1349
86665SOL    HW177605   9.951  10.118   3.767  0.7252 -0.8053 -1.0071
86665SOL    HW277606  10.062  10.016   3.780  1.5177  0.2955  1.4771
86666SOL     OW77607   3.572   6.915  12.003  0.1798 -0.5026 -0.0173
86666SOL    HW177608   3.483   6.881  11.998 -0.3669  0.6215  1.3586
86666SOL    HW277609   3.626   6.838  12.017 -0.6787 -1.1066  0.0657
86667SOL     OW77610   2.691  11.907   2.014 -0.2989  0.0056  0.4692
86667SOL    HW177611   2.676  11.964   2.089  0.4340 -0.9959  1.4196
86667SOL    HW277612   2.746  11.958   1.955 -0.4968  0.6397  0.8248
86668SOL     OW77613   7.633  11.643   1.444  0.1211  0.1788  0.3036
86668SOL    HW177614   7.557  11.616   1.495  1.3015 -0.2099  1.9555
86668SOL    HW277615   7.648  11.571   1.384 -1.5907  0.8579 -1.0033
86669SOL     OW77616   4.920   1.107   7.471  0.2341  0.5873  0.3939
86669SOL    HW177617   4.870   1.186   7.493  0.1636  0.8066 -0.5282
86669SOL    HW277618   4.999   1.140   7.428 -1.0420  0.1208 -2.5150
86670SOL     OW77619  10.180   0.113  13.904  0.0071 -0.8652  0.3321
86670SOL    HW177620  10.101   0.110  13.958  0.3389 -0.5606  0.8534
86670SOL    HW277621  10.163   0.053  13.831 -0.2348 -1.7477  1.0904
86671SOL     OW77622   9.455   9.903   6.660 -0.1989 -0.5260  0.4277
86671SOL    HW177623   9.507   9.961   6.604 -0.6593  0.6000  1.1186
86671SOL    HW277624   9.395   9.859   6.600  1.9153 -2.3692 -0.4964
86672SOL     OW77625   2.973   5.510   0.155 -0.2106  0.2442  0.1102
86672SOL    HW177626   2.958   5.584   0.096  2.5538  1.1812  0.4878
86672SOL    HW277627   2.993   5.437   0.096 -0.3449  0.4304 -0.1730
86673SOL     OW77628  10.569   9.692   7.814 -0.1538 -0.0965 -0.2052
86673SOL    HW177629  10.522   9.645   7.883  0.1768 -0.6562 -0.3533
86673SOL    HW277630  10.508   9.759   7.784  0.1780  1.0970  1.5833
86674SOL     OW77631   9.603   7.878   2.733  0.4048  0.3451  0.5130
86674SOL    HW177632   9.535   7.933   2.695  0.1819 -0.1153  0.2452
86674SOL    HW277633   9.684   7.929   2.723  0.3772  0.1615 -0.7195
86675SOL     OW77634   6.611   3.752   2.819 -0.0467  0.0837  0.6917
86675SOL    HW177635   6.540   3.703   2.861 -0.6681  1.2122  1.0103
86675SOL    HW277636   6.566   3.813   2.761  0.7627 -0.7730 -0.9122
86676SOL     OW77637  11.023  11.068   2.812  0.1532 -0.2468 -0.3221
86676SOL    HW177638  10.997  11.087   2.722 -1.2855 -2.0123 -0.3293
86676SOL    HW277639  10.980  11.136   2.865  1.9223  1.4969 -0.9875
86677SOL     OW77640  13.449   3.038   3.101  0.1279 -0.3853  0.6363
86677SOL    HW177641  13.472   2.953   3.063 -4.1915 -0.6810 -1.9579
86677SOL    HW277642  13.471   3.101   3.033 -1.3187 -0.0906  0.4142
86678SOL     OW77643   9.116   1.408   0.905 -0.5271 -0.1925  0.0611
86678SOL    HW177644   9.131   1.460   0.827 -0.6567  0.8109  0.6876
86678SOL    HW277645   9.193   1.351   0.912  0.1602  0.7127 -0.0178
86679SOL     OW77646   4.255   4.874   5.729 -0.3724  0.2267  0.1928
86679SOL    HW177647   4.341   4.837   5.710 -0.4706 -0.4580  1.0603
86679SOL    HW277648   4.251   4.880   5.824 -1.5246 -0.3575  0.2034
86680SOL     OW77649   4.844   2.119  12.432  0.0531  0.1701 -0.4627
86680SOL    HW177650   4.922   2.114  12.377 -0.3545  1.0080 -1.1474
86680SOL    HW277651   4.878   2.113  12.522  0.6789 -1.6893 -0.7875
86681SOL     OW77652   5.097   5.611   2.782 -0.6683  0.9359 -0.2174
86681SOL    HW177653   5.160   5.539   2.791 -0.3210  0.9321 -2.2129
86681SOL    HW277654   5.054   5.616   2.867  1.9799  0.9215  1.2330
86682SOL     OW77655   8.445  10.594   6.953 -0.1970  0.2930 -0.2773
86682SOL    HW177656   8.370  10.595   7.013 -1.5557 -0.5739 -1.8812
86682SOL    HW277657   8.441  10.678   6.908  0.7176  0.8693  0.6688
86683SOL     OW77658  13.134   3.840   9.384  0.0092  0.3111  0.4336
86683SOL    HW177659  13.179   3.923   9.403  0.1816 -0.0092  1.4769
86683SOL    HW277660  13.198   3.789   9.334  0.1411  0.5649  0.3402
86684SOL     OW77661   3.216   4.310   0.705  0.0839  0.4360 -0.1172
86684SOL    HW177662   3.281   4.344   0.766  1.4420 -1.0246 -0.7158
86684SOL    HW277663   3.229   4.216   0.705 -1.5489  0.1740 -0.8230
86685SOL     OW77664  13.369   9.853  12.122  0.2506  0.2396 -0.1424
86685SOL    HW177665  13.365   9.757  12.118  0.0335  0.2658 -0.7747
86685SOL    HW277666  13.302   9.878  12.185  2.0330 -0.1376  1.9980
86686SOL     OW77667   8.193   7.264   5.179  0.1112 -0.5297  0.5419
86686SOL    HW177668   8.212   7.348   5.220  3.9104 -0.7862 -0.2630
86686SOL    HW277669   8.191   7.284   5.085  3.6715 -1.5002  0.1063
86687SOL     OW77670   4.627   6.418   4.648 -0.1269 -0.6235  0.4523
86687SOL    HW177671   4.554   6.357   4.633 -0.4338 -0.1296 -0.1196
86687SOL    HW277672   4.643   6.457   4.562  1.3587 -1.3220  0.3897
86688SOL     OW77673  10.675  13.198  13.079  0.4235 -0.2234 -0.1265
86688SOL    HW177674  10.678  13.109  13.115 -1.2081 -0.5549 -0.7165
86688SOL    HW277675  10.765  13.230  13.087  0.6381 -1.1412  2.0227
86689SOL     OW77676  10.383   9.256  10.550 -0.3678  0.3751 -0.0537
86689SOL    HW177677  10.422   9.338  10.519  0.2899  0.2465  0.4111
86689SOL    HW277678  10.457   9.196  10.556 -0.7674 -0.1030  0.0990
86690SOL     OW77679  12.444   2.975   2.689  0.0183  0.0729  0.6412
86690SOL    HW177680  12.432   3.068   2.710 -0.0956  0.1241  0.3563
86690SOL    HW277681  12.397   2.929   2.759  1.1249  0.1921  1.4853
86691SOL     OW77682  12.841   6.029   0.816 -0.1644  0.1818  0.1903
86691SOL    HW177683  12.927   6.039   0.776 -0.4855 -0.2453 -0.6460
86691SOL    HW277684  12.780   6.053   0.746 -0.7831 -1.7968 -0.0089
86692SOL     OW77685   4.255   8.086   5.205  0.4633  0.5477  0.5862
86692SOL    HW177686   4.252   8.180   5.225  0.4527  0.8204 -0.6335
86692SOL    HW277687   4.267   8.044   5.291  0.7734  1.6758  1.1212
86693SOL     OW77688  13.328   6.411  10.963  0.2646 -0.4668  0.0412
86693SOL    HW177689  13.278   6.478  11.010  0.7550  0.6137 -0.9346
86693SOL    HW277690  13.389   6.377  11.029  1.5969  1.6936  0.0120
86694SOL     OW77691   4.772   1.899  11.681  0.0480 -0.5308 -0.1669
86694SOL    HW177692   4.795   1.989  11.704 -0.7057 -0.5501  0.7579
86694SOL    HW277693   4.831   1.845  11.733  0.3999 -0.5742 -0.6094
86695SOL     OW77694   3.535   5.152   6.254 -0.3120  0.4652  0.1877
86695SOL    HW177695   3.622   5.119   6.235  0.2635  2.3680 -0.6923
86695SOL    HW277696   3.521   5.130   6.346  0.1876 -1.7238 -0.2017
86696SOL     OW77697  13.804   3.331   0.376  0.2295 -0.2120 -0.3468
86696SOL    HW177698  13.837   3.281   0.302 -1.0625 -0.3344 -0.8603
86696SOL    HW277699  13.759   3.266   0.431  0.6622 -0.0210  0.2492
86697SOL     OW77700  10.809  10.964   1.305 -0.0122  0.1778  0.3989
86697SOL    HW177701  10.752  10.931   1.374 -0.0428  1.0573  0.8123
86697SOL    HW277702  10.824  10.889   1.247 -2.5891  0.2121 -0.4305
86698SOL     OW77703   1.615  14.009   7.391  0.0904 -0.7469  0.0989
86698SOL    HW177704   1.623  14.104   7.390  0.1772 -0.7564 -0.6916
86698SOL    HW277705   1.520  13.993   7.393  0.0865 -0.6518  1.3916
86699SOL     OW77706  14.064   3.346   4.756 -0.3216 -0.1020  0.0985
86699SOL    HW177707  14.110   3.388   4.684  0.3351 -1.4303 -0.2931
86699SOL    HW277708  14.057   3.415   4.823  0.0973  0.8116 -0.7655
86700SOL     OW77709   8.255   2.702  12.801 -0.1379 -0.6072  0.2230
86700SOL    HW177710   8.175   2.669  12.842  0.0247  0.3182  1.3588
86700SOL    HW277711   8.312   2.726  12.875  1.2232 -1.3108 -0.5503
86701SOL     OW77712   7.116   8.270   1.466 -0.5011 -0.3505  0.3234
86701SOL    HW177713   7.089   8.330   1.396 -1.6286 -0.2888  0.7849
86701SOL    HW277714   7.208   8.250   1.446 -0.5304  0.3778 -0.6544
86702SOL     OW77715  10.372  11.670   8.704 -0.2087  0.3486  0.3868
86702SOL    HW177716  10.278  11.677   8.686 -0.2391  0.8198  0.7218
86702SOL    HW277717  10.402  11.600   8.646 -0.7237  0.3478  0.1158
86703SOL     OW77718   3.041   0.003  12.888  0.2519 -0.2736  0.0420
86703SOL    HW177719   3.115  -0.021  12.944  0.1394  1.3577  0.9547
86703SOL    HW277720   2.976  -0.065  12.905  1.0441 -1.0145  0.2072
86704SOL     OW77721   6.771   0.282   4.237  0.4358 -0.0526  0.0359
86704SOL    HW177722   6.786   0.291   4.331 -0.3784  0.0797  0.1617
86704SOL    HW277723   6.728   0.364   4.212 -0.2871 -0.5040 -0.2411
86705SOL     OW77724   7.222   2.049  11.749  0.0096  0.3588 -0.0377
86705SOL    HW177725   7.194   2.131  11.789 -2.0975 -0.7587  0.9370
86705SOL    HW277726   7.230   1.988  11.823 -0.9156 -0.9535 -0.9702
86706SOL     OW77727   2.578   1.816  11.279 -0.1271 -0.1390  0.1400
86706SOL    HW177728   2.579   1.902  11.321  0.2057 -0.4684  0.8241
86706SOL    HW277729   2.520   1.827  11.204 -0.5712  0.5196  0.5675
86707SOL     OW77730   0.059   2.260   0.733  0.5271  0.0997  0.1821
86707SOL    HW177731   0.083   2.345   0.771  1.6454 -0.6755  1.2975
86707SOL    HW277732   0.050   2.278   0.640  0.2163  1.5545  0.4636
86708SOL     OW77733  12.862   8.516   6.506  0.0486  0.6328 -0.0216
86708SOL    HW177734  12.843   8.493   6.415  2.2248 -0.1258 -0.3490
86708SOL    HW277735  12.788   8.481   6.556 -0.4105 -0.3509 -1.3368
86709SOL     OW77736  10.862   0.607   8.889  0.1304 -0.0919 -0.5717
86709SOL    HW177737  10.901   0.665   8.954 -1.3924  0.1506  0.1849
86709SOL    HW277738  10.931   0.593   8.824  1.4125  0.3547  0.6465
86710SOL     OW77739   3.869   4.107  10.190 -0.6534 -0.5203 -0.5253
86710SOL    HW177740   3.774   4.121  10.187 -0.4739  0.8812 -0.2455
86710SOL    HW277741   3.879   4.019  10.225 -1.8396 -0.4115  0.1320
86711SOL     OW77742   1.427   6.223   3.838 -0.5342 -0.8089  0.4288
86711SOL    HW177743   1.461   6.229   3.749 -0.4305  0.0171  0.5154
86711SOL    HW277744   1.506   6.225   3.893 -0.6575  0.3363  0.5966
86712SOL     OW77745  10.345  10.358  13.679  0.0220  0.2908  0.2664
86712SOL    HW177746  10.385  10.281  13.641  0.0378  0.5598 -0.2738
86712SOL    HW277747  10.286  10.324  13.746  0.3321 -0.1630  0.3102
86713SOL     OW77748  10.964   2.420   1.772 -0.2299  0.2603  0.0965
86713SOL    HW177749  11.052   2.453   1.790  0.1787 -0.8709  0.2759
86713SOL    HW277750  10.914   2.440   1.851 -0.8128  2.9692 -0.8437
86714SOL     OW77751  12.754   3.371   1.200  0.3147 -0.4966 -0.0106
86714SOL    HW177752  12.707   3.453   1.183  1.3450  0.2382  0.5514
86714SOL    HW277753  12.812   3.361   1.124  1.9423  0.6140  1.0196
86715SOL     OW77754  10.359   5.955   4.244  0.5487 -0.1653 -0.2655
86715SOL    HW177755  10.390   5.997   4.324  1.1260  2.1208 -1.5949
86715SOL    HW277756  10.270   5.927   4.264  0.6597  0.4155  1.1338
86716SOL     OW77757  10.919  11.170  11.960  0.4755  0.1008 -0.0628
86716SOL    HW177758  10.826  11.149  11.958  0.0641  1.7111  0.8216
86716SOL    HW277759  10.940  11.195  11.870 -0.0873  0.2660 -0.1536
86717SOL     OW77760   4.812   7.580   1.420 -0.1882 -0.3125 -0.2163
86717SOL    HW177761   4.741   7.636   1.387  0.1854 -0.2515 -0.9223
86717SOL    HW277762   4.806   7.588   1.516  1.2720  2.7695 -0.2627
86718SOL     OW77763   0.687   3.909   4.796 -0.1251 -0.5283  0.4599
86718SOL    HW177764   0.731   3.825   4.787  0.2447 -0.4796  1.6288
86718SOL    HW277765   0.603   3.898   4.750 -0.1075 -1.5462  0.6572
86719SOL     OW77766  12.185   3.378   5.799 -0.0370 -0.4137  0.0824
86719SOL    HW177767  12.192   3.318   5.874 -0.3364 -1.9701 -1.0766
86719SOL    HW277768  12.264   3.361   5.748  0.0643  0.4847 -0.0681
86720SOL     OW77769  10.118  13.719   5.978  0.6708 -0.1828 -0.4399
86720SOL    HW177770  10.084  13.687   6.061  1.4556  0.5267  0.1642
86720SOL    HW277771  10.141  13.810   5.994  3.3153 -0.7424 -0.6401
86721SOL     OW77772   2.966   9.394   0.251  0.0469 -0.3096 -0.0480
86721SOL    HW177773   2.952   9.463   0.187 -0.1092 -1.0739 -0.8582
86721SOL    HW277774   3.046   9.349   0.221  0.0415 -0.5976  0.3582
86722SOL     OW77775  10.578  11.922   6.182  0.3620 -0.2908 -0.0844
86722SOL    HW177776  10.547  11.856   6.120  1.6764 -2.7705  1.7088
86722SOL    HW277777  10.674  11.914   6.179  0.5371  1.1044  0.6881
86723SOL     OW77778   3.584   6.280   4.438  0.6028 -0.0681 -0.4435
86723SOL    HW177779   3.551   6.236   4.517 -1.2162 -0.7441 -1.5227
86723SOL    HW277780   3.507   6.290   4.382  1.5493  1.8212 -1.5109
86724SOL     OW77781   9.775   1.373   6.403 -0.0324 -0.2275 -0.0214
86724SOL    HW177782   9.695   1.418   6.378  0.8268  1.1906 -0.2956
86724SOL    HW277783   9.795   1.317   6.328 -2.1924 -2.7531  1.1058
86725SOL     OW77784   0.838   7.744  13.713 -0.0958 -0.5912  0.2024
86725SOL    HW177785   0.763   7.706  13.666  0.0639  0.9229 -1.3648
86725SOL    HW277786   0.911   7.687  13.690 -0.1365 -0.1995 -0.9525
86726SOL     OW77787  12.048   9.004   6.703  0.0178 -0.0010 -0.4042
86726SOL    HW177788  12.016   9.034   6.788  0.6357 -2.1735  0.6528
86726SOL    HW277789  11.979   9.029   6.642 -0.6822  1.1433  0.7956
86727SOL     OW77790   1.025   5.388   9.037 -0.8379 -0.1683 -0.7862
86727SOL    HW177791   1.017   5.461   9.098 -0.2104 -0.9196  0.2211
86727SOL    HW277792   1.118   5.388   9.012 -0.6160 -1.1966 -0.0187
86728SOL     OW77793   8.958   5.787  13.295  0.3322  0.2190  0.5905
86728SOL    HW177794   8.879   5.755  13.252  0.6643  0.9960 -0.6646
86728SOL    HW277795   8.986   5.715  13.351 -1.3673  0.0053  1.2173
86729SOL     OW77796   0.064   1.459  13.191  0.4774 -0.5081  0.1364
86729SOL    HW177797   0.124   1.467  13.117 -0.5856 -0.0805 -0.7151
86729SOL    HW277798   0.086   1.374  13.231  0.9039 -0.8585 -0.8161
86730SOL     OW77799   9.598   4.898   0.542  0.7814  0.4793  0.2267
86730SOL    HW177800   9.535   4.826   0.538  0.5070  0.7235 -2.9807
86730SOL    HW277801   9.674   4.862   0.588 -0.8220 -0.4932  2.2858
86731SOL     OW77802   3.705   9.856   1.344  0.1165  0.7655 -0.7202
86731SOL    HW177803   3.706   9.892   1.432 -2.9605 -3.2589  1.3217
86731SOL    HW277804   3.616   9.873   1.312  0.5435  0.4080 -2.1814
86732SOL     OW77805  12.837   4.107   1.743  0.0568  0.2135  0.0643
86732SOL    HW177806  12.755   4.124   1.789  0.3863 -0.0618  0.7581
86732SOL    HW277807  12.905   4.147   1.798  0.4576 -0.1479 -0.1564
86733SOL     OW77808   9.465   2.401  12.914  0.1590  0.5186 -0.0740
86733SOL    HW177809   9.523   2.441  12.979 -0.2282  1.4117 -0.2583
86733SOL    HW277810   9.401   2.470  12.894 -0.0971  0.0395 -0.9398
86734SOL     OW77811   1.472   6.279  12.521  0.0601 -0.4498  0.3076
86734SOL    HW177812   1.562   6.309  12.529  0.1484 -0.1243 -1.4761
86734SOL    HW277813   1.473   6.189  12.555  0.6194  0.1941  2.0809
86735SOL     OW77814   2.534   6.485  12.548  0.3073  0.0926  0.1113
86735SOL    HW177815   2.444   6.473  12.578  0.4311 -1.6979 -0.1125
86735SOL    HW277816   2.531   6.466  12.454  0.7319  1.1743 -0.1403
86736SOL     OW77817   9.173   8.718   8.231 -0.4302 -0.3294  0.3107
86736SOL    HW177818   9.121   8.752   8.304 -1.0955 -1.0479  0.1819
86736SOL    HW277819   9.118   8.732   8.154 -0.1651 -0.5220  0.0836
86737SOL     OW77820   2.915  13.968   3.367  0.2607  0.1478  0.3739
86737SOL    HW177821   2.942  13.882   3.401 -0.3817 -0.4005 -0.4606
86737SOL    HW277822   2.897  14.020   3.445 -0.3249 -0.8075  0.8923
86738SOL     OW77823   6.291   2.556   2.198  0.1900  0.5477  0.2362
86738SOL    HW177824   6.364   2.566   2.136 -0.9549 -0.0408 -1.2778
86738SOL    HW277825   6.247   2.641   2.197 -0.2894  0.3041 -0.4064
86739SOL     OW77826  12.655  12.301  13.986 -0.5501 -0.2402 -0.6645
86739SOL    HW177827  12.568  12.276  14.017 -0.1725  1.3386  2.0112
86739SOL    HW277828  12.648  12.395  13.967  0.8609  0.2956  1.1398
86740SOL     OW77829  10.155  13.991  10.952 -0.5830 -0.4970 -0.0780
86740SOL    HW177830  10.145  13.934  11.028  0.4551 -1.7027 -0.7998
86740SOL    HW277831  10.230  13.954  10.905 -0.2020  1.1701 -0.8505
86741SOL     OW77832   6.930   0.787  11.008  0.6722  0.2945 -0.2672
86741SOL    HW177833   6.963   0.770  11.096 -0.6206  0.8863  0.3590
86741SOL    HW277834   6.884   0.706  10.985  3.4816 -1.0580 -1.6731
86742SOL     OW77835  11.837   4.888   4.639  0.3260 -0.1899 -0.4576
86742SOL    HW177836  11.813   4.854   4.726  0.1350  0.3702 -0.2835
86742SOL    HW277837  11.778   4.844   4.579 -2.3315  2.2560  0.1111
86743SOL     OW77838   5.805  11.328   9.458  0.3300  0.2549  0.2394
86743SOL    HW177839   5.782  11.308   9.367 -0.5929 -1.1134  0.7416
86743SOL    HW277840   5.771  11.416   9.473 -0.5743  0.0326 -0.3985
86744SOL     OW77841   8.679  11.310  13.902  0.2128  1.1068 -0.1652
86744SOL    HW177842   8.701  11.229  13.857 -0.2823  0.8912 -0.0254
86744SOL    HW277843   8.592  11.295  13.938  1.1645  0.7257  2.1615
86745SOL     OW77844  13.713   8.579  11.653 -0.1587  0.3097  0.3195
86745SOL    HW177845  13.646   8.600  11.588 -0.0514  0.1457  0.1577
86745SOL    HW277846  13.786   8.638  11.631 -0.2821  0.5544  0.5522
86746SOL     OW77847   7.621   2.730   3.573 -0.2946  0.9241 -0.2290
86746SOL    HW177848   7.560   2.765   3.637 -1.0474 -1.3466  0.4019
86746SOL    HW277849   7.566   2.707   3.497 -0.3907 -1.4942  0.4915
86747SOL     OW77850   8.508   9.072   0.813 -0.1240  0.5416 -0.0471
86747SOL    HW177851   8.571   9.001   0.806 -1.1687 -0.3245 -1.3139
86747SOL    HW277852   8.426   9.034   0.781 -0.8140  2.1937 -0.3488
86748SOL     OW77853   8.314   1.766   1.305  0.6952  0.0228  0.4031
86748SOL    HW177854   8.294   1.687   1.356  0.6802 -0.6101 -0.5712
86748SOL    HW277855   8.409   1.771   1.307  0.7500 -0.5444 -0.2921
86749SOL     OW77856   6.568   9.220   3.282  0.4190  0.8426  0.2904
86749SOL    HW177857   6.575   9.140   3.230 -2.3088 -0.5986  1.9104
86749SOL    HW277858   6.553   9.289   3.217 -0.6496 -0.5222 -1.0076
86750SOL     OW77859   5.808  12.957  11.237 -0.1483  0.3286 -0.0126
86750SOL    HW177860   5.859  12.909  11.302  1.2926 -0.4783 -1.6631
86750SOL    HW277861   5.727  12.907  11.229 -1.2886  1.5653  2.5526
86751SOL     OW77862   0.773   3.888   5.562 -0.0363  0.3546 -0.0351
86751SOL    HW177863   0.732   3.956   5.615 -0.1129  0.4990 -0.2776
86751SOL    HW277864   0.850   3.931   5.524 -0.9771  0.8079 -1.5076
86752SOL     OW77865   8.415  11.301  13.868  0.1885 -0.1227 -0.2867
86752SOL    HW177866   8.367  11.237  13.817  1.3949 -1.2552 -0.0479
86752SOL    HW277867   8.407  11.382  13.817 -1.3098 -0.4431 -0.6164
86753SOL     OW77868   8.448   2.077   0.015 -0.1188 -0.1672 -0.2285
86753SOL    HW177869   8.401   2.012   0.067 -0.1093 -0.4858 -0.6208
86753SOL    HW277870   8.417   2.161   0.049 -0.3647 -0.3746  0.0655
86754SOL     OW77871  11.276   7.866  12.512  0.7808 -0.0931  0.3089
86754SOL    HW177872  11.253   7.927  12.441 -0.4094 -0.7900  0.0604
86754SOL    HW277873  11.371   7.873  12.520  0.7028  1.5923  0.1150
86755SOL     OW77874   9.718  11.427   9.261  0.0075 -0.3930 -0.3475
86755SOL    HW177875   9.742  11.378   9.339 -1.3499 -1.6624 -0.6645
86755SOL    HW277876   9.696  11.514   9.293  0.4676 -0.5954  0.5447
86756SOL     OW77877   8.373   4.193   2.653 -0.3494  0.4799 -0.6308
86756SOL    HW177878   8.466   4.206   2.674 -0.0228 -0.0237 -1.6803
86756SOL    HW277879   8.374   4.136   2.576 -1.5321  0.5755 -0.7319
86757SOL     OW77880  11.255   9.917   0.922  0.0482 -0.1079  0.0232
86757SOL    HW177881  11.319   9.845   0.927  1.3888  1.1141  1.9650
86757SOL    HW277882  11.197   9.893   0.849  0.0765 -3.4226  0.9423
86758SOL     OW77883   3.620   1.758   0.152  0.3430 -0.3510  0.0457
86758SOL    HW177884   3.601   1.665   0.169 -1.6093 -0.2102 -1.0347
86758SOL    HW277885   3.649   1.760   0.061  0.9999  0.0316  0.2616
86759SOL     OW77886   6.722   7.228   1.961  0.0814  0.1183  0.1581
86759SOL    HW177887   6.704   7.167   1.889 -1.5140  0.6641  0.0697
86759SOL    HW277888   6.638   7.238   2.007  1.1648 -0.6523  2.4706
86760SOL     OW77889   5.307   2.390   7.524 -0.2006  0.1936  1.1435
86760SOL    HW177890   5.356   2.326   7.472  0.5953  1.5723  0.1353
86760SOL    HW277891   5.235   2.340   7.562  0.1658 -1.2168  0.0605
86761SOL     OW77892   0.977   0.377   5.600 -0.7213  0.0879  0.1145
86761SOL    HW177893   1.007   0.291   5.628  1.8301  1.0787  0.7134
86761SOL    HW277894   0.985   0.432   5.678 -0.6165  1.2378 -0.6820
86762SOL     OW77895  10.786   1.698   8.201 -0.0367  0.3814 -0.1981
86762SOL    HW177896  10.836   1.677   8.122 -2.0026 -0.6342 -1.2274
86762SOL    HW277897  10.833   1.652   8.271  0.0047 -1.3086 -1.2695
86763SOL     OW77898   1.018   8.409  11.481 -0.1169 -0.5565 -0.0004
86763SOL    HW177899   0.944   8.349  11.487  0.1515 -0.7885  1.3968
86763SOL    HW277900   1.018   8.456  11.565 -0.0727  1.1181 -0.8776
86764SOL     OW77901   1.415   3.647   7.119 -0.1423 -0.5839 -0.5665
86764SOL    HW177902   1.364   3.680   7.193 -1.0008 -0.5235 -1.1705
86764SOL    HW277903   1.351   3.638   7.048  0.7860  0.0125 -1.5058
86765SOL     OW77904   7.214   8.907   8.042  0.1768 -0.9208  0.6769
86765SOL    HW177905   7.152   8.846   8.083 -2.2088  0.3332 -0.8409
86765SOL    HW277906   7.187   8.911   7.951  2.2161  0.1384  0.0525
86766SOL     OW77907   4.687  13.043   7.116 -0.3301 -0.3209 -0.5729
86766SOL    HW177908   4.633  13.072   7.191  1.6642  0.8488  0.5064
86766SOL    HW277909   4.669  12.949   7.109 -0.6380 -0.4685  1.3724
86767SOL     OW77910   0.126   3.667   5.491 -0.1592 -0.1745 -0.4941
86767SOL    HW177911   0.117   3.592   5.550  1.2322  0.0868  0.0882
86767SOL    HW277912   0.081   3.640   5.411  0.2672 -1.6155 -0.2793
86768SOL     OW77913   8.634   2.733  12.335  0.6340  0.1090 -0.5142
86768SOL    HW177914   8.700   2.693  12.391  0.7788 -0.8217 -1.3245
86768SOL    HW277915   8.554   2.734  12.388  0.8044 -0.6255 -0.2376
86769SOL     OW77916   6.732   2.755   2.813  0.9877  0.0570 -0.5819
86769SOL    HW177917   6.727   2.784   2.722  1.1373  1.8121 -0.0557
86769SOL    HW277918   6.677   2.817   2.861 -0.3033 -1.7053  0.3603
86770SOL     OW77919   7.868   9.360  13.050  0.0966 -0.0094  0.2040
86770SOL    HW177920   7.779   9.383  13.076  0.1262  1.0051 -0.5493
86770SOL    HW277921   7.925   9.405  13.112  0.1166  0.6134 -0.2634
86771SOL     OW77922   5.663   5.083  13.812  0.0847 -0.1542 -0.0824
86771SOL    HW177923   5.695   5.161  13.768 -0.7389  0.3063  0.1261
86771SOL    HW277924   5.587   5.113  13.862 -0.9171 -1.3011 -0.8655
86772SOL     OW77925   4.865  12.943   9.476  0.6772 -0.5126  0.6915
86772SOL    HW177926   4.870  12.856   9.437 -0.8043 -1.2230  1.9852
86772SOL    HW277927   4.874  13.003   9.402  0.2858 -1.7806 -0.4220
86773SOL     OW77928   9.906   2.837  10.061 -0.3352 -0.4226 -0.4728
86773SOL    HW177929   9.855   2.785  10.123  0.7544 -0.9539  0.0136
86773SOL    HW277930   9.866   2.820   9.976 -0.5665 -1.3381 -0.1915
86774SOL     OW77931   6.410   7.704   1.487 -0.3073  0.2479  0.1447
86774SOL    HW177932   6.398   7.627   1.433 -0.8222  0.4355 -0.0197
86774SOL    HW277933   6.350   7.692   1.561 -0.7376  0.7014 -0.1225
86775SOL     OW77934   1.676  10.141   3.005 -0.5372 -0.0462 -0.0218
86775SOL    HW177935   1.771  10.134   2.992 -0.4537  1.6154 -0.4757
86775SOL    HW277936   1.647  10.203   2.938 -1.9298 -0.3943  0.2259
86776SOL     OW77937   9.144   5.785   4.518  0.6249  0.0785 -0.3701
86776SOL    HW177938   9.086   5.787   4.442  1.3972 -2.7764 -1.1980
86776SOL    HW277939   9.090   5.752   4.589  0.4710  0.4317 -0.3258
86777SOL     OW77940  11.854  10.909  11.444  0.2851  0.4470  0.1877
86777SOL    HW177941  11.926  10.895  11.505  1.0007 -2.1889 -1.1284
86777SOL    HW277942  11.888  10.973  11.381  0.7747  0.6404  0.6415
86778SOL     OW77943   6.134   0.637   4.112  0.0305  0.3516 -0.3149
86778SOL    HW177944   6.206   0.643   4.175  0.3120 -0.5074 -0.5449
86778SOL    HW277945   6.111   0.544   4.110  0.0693  0.3551 -1.5305
86779SOL     OW77946   6.830   7.519   0.646  0.3723  0.1493  0.2774
86779SOL    HW177947   6.781   7.542   0.725  0.0014  0.8368 -0.1394
86779SOL    HW277948   6.881   7.597   0.626  1.5533 -0.5143  0.6248
86780SOL     OW77949  12.553   0.276   4.601  0.2408 -0.1018 -0.4327
86780SOL    HW177950  12.639   0.235   4.601 -0.1167 -0.8686  0.4516
86780SOL    HW277951  12.559   0.344   4.533  1.4347 -0.3437 -0.5860
86781SOL     OW77952   8.578  13.891   8.476  0.1452 -0.0036  0.0178
86781SOL    HW177953   8.571  13.815   8.534 -0.9358  0.0816  0.0196
86781SOL    HW277954   8.617  13.959   8.531 -0.1677 -0.1491  0.4257
86782SOL     OW77955   2.123  10.362   0.892 -0.4684  0.1888 -0.0192
86782SOL    HW177956   2.080  10.444   0.915  1.4947  1.9767 -2.2335
86782SOL    HW277957   2.084  10.337   0.808 -2.3948 -2.2994  1.4614
86783SOL     OW77958   9.610   0.420   1.660  0.2388 -0.1239 -0.0212
86783SOL    HW177959   9.616   0.370   1.742  1.6730 -0.0509 -0.0482
86783SOL    HW277960   9.607   0.512   1.688  1.1798 -0.0769 -0.0434
86784SOL     OW77961  13.477   4.979   2.287  0.5585 -0.2132  0.0508
86784SOL    HW177962  13.402   4.958   2.343  1.7476  1.1885  2.3548
86784SOL    HW277963  13.459   5.068   2.257  0.5745 -0.4694 -0.7412
86785SOL     OW77964   9.900  13.852  12.186  0.3358  0.3426  0.2894
86785SOL    HW177965   9.971  13.798  12.221  3.4966  2.8762 -1.6023
86785SOL    HW277966   9.887  13.818  12.097  2.3821  2.4777 -0.9305
86786SOL     OW77967   8.652  10.955   9.033 -0.1538 -0.2947  0.1977
86786SOL    HW177968   8.680  11.043   9.055 -2.1657  0.1299  1.3368
86786SOL    HW277969   8.604  10.964   8.951 -1.0766 -0.1380  0.7329
86787SOL     OW77970   6.633   1.360  12.059  0.5296 -0.3032 -0.4167
86787SOL    HW177971   6.562   1.398  12.006  1.0904  0.4239 -0.6586
86787SOL    HW277972   6.600   1.364  12.149  0.5582  0.7266 -0.4425
86788SOL     OW77973   1.033   2.059   6.979  0.0957  0.2327 -0.3601
86788SOL    HW177974   0.970   2.100   7.037  0.2674 -2.1094  1.6188
86788SOL    HW277975   0.984   1.989   6.935  0.9046 -0.5629 -0.0247
86789SOL     OW77976   4.136   1.798   4.380  0.1441 -0.3598 -0.0731
86789SOL    HW177977   4.108   1.887   4.404 -0.9900 -0.8410  0.4916
86789SOL    HW277978   4.084   1.777   4.303 -0.6566 -1.0466  0.6322
86790SOL     OW77979  11.344   8.349   8.795  0.2191 -0.0150 -0.4548
86790SOL    HW177980  11.336   8.289   8.720 -1.4039 -1.2565  0.6500
86790SOL    HW277981  11.334   8.436   8.758 -0.0684 -0.5775 -1.7405
86791SOL     OW77982  11.302  13.505   5.271 -0.3800 -0.2495  0.2036
86791SOL    HW177983  11.242  13.541   5.336  0.4529  1.3338  0.1556
86791SOL    HW277984  11.250  13.497   5.191 -1.0062 -0.7381  0.6545
86792SOL     OW77985  11.733   9.568   1.980 -0.2974 -0.0452 -0.2471
86792SOL    HW177986  11.685   9.530   2.054 -1.0265 -2.3122 -1.8026
86792SOL    HW277987  11.825   9.567   2.008 -0.6629  0.2166  1.0427
86793SOL     OW77988   9.542   4.476  13.139  0.1306  0.0361 -0.5167
86793SOL    HW177989   9.595   4.542  13.184 -2.0031  1.3404  0.2631
86793SOL    HW277990   9.584   4.465  13.054 -0.1154  3.4503 -1.2184
86794SOL     OW77991  10.975   6.850   6.709 -0.1439  0.7540  0.2055
86794SOL    HW177992  10.901   6.810   6.754  0.4815 -2.6386 -1.4704
86794SOL    HW277993  11.044   6.855   6.774 -0.5992  0.1551  0.7387
86795SOL     OW77994  10.866   4.203   3.512  0.1629  0.4019  0.5215
86795SOL    HW177995  10.796   4.264   3.533 -1.0120 -0.8337  0.3631
86795SOL    HW277996  10.915   4.245   3.442 -1.0835  0.8349 -0.1152
86796SOL     OW77997   0.945   5.992   7.994 -0.4575 -0.2142 -0.0179
86796SOL    HW177998   0.972   6.029   7.910 -1.9630  0.9521 -0.0276
86796SOL    HW277999   1.015   5.931   8.017 -0.9167 -2.0858 -3.0770
86797SOL     OW78000  13.572   6.381   4.931 -0.4237 -0.4507 -0.7887
86797SOL    HW178001  13.581   6.320   4.858  0.3205 -0.6416 -0.5551
86797SOL    HW278002  13.612   6.463   4.900  1.2516 -0.9612 -0.1316
86798SOL     OW78003  10.169   7.658   8.122  0.5348  0.0220  0.1631
86798SOL    HW178004  10.238   7.630   8.183  0.3630 -0.2487  0.2366
86798SOL    HW278005  10.161   7.585   8.060 -0.4821 -0.4684  0.8369
86799SOL     OW78006  11.010   6.531  11.522 -0.7398 -0.5955  0.1392
86799SOL    HW178007  10.997   6.568  11.609  1.2805 -0.2247  0.3282
86799SOL    HW278008  11.002   6.605  11.463 -1.7004 -0.7782  0.0167
86800SOL     OW78009   0.172   1.990   1.451  0.3807 -0.0123 -0.3634
86800SOL    HW178010   0.107   2.059   1.461 -1.1752 -1.0207 -2.7071
86800SOL    HW278011   0.198   1.969   1.541 -0.6522  2.1366  0.5065
86801SOL     OW78012  12.123   4.577   1.374 -0.5477 -0.5543 -0.7349
86801SOL    HW178013  12.130   4.652   1.315  1.1855  1.3603  1.6856
86801SOL    HW278014  12.073   4.610   1.449  2.2191 -0.9193  1.4637
86802SOL     OW78015   0.115   9.179  12.256  0.1256  0.3682  0.3522
86802SOL    HW178016   0.170   9.235  12.310 -1.3516  2.0700  0.1953
86802SOL    HW278017   0.124   9.216  12.167 -0.8744  0.3962  0.2509
86803SOL     OW78018   4.045  11.405   5.094  0.0096  0.3329 -0.2860
86803SOL    HW178019   4.085  11.423   5.008  1.7752  0.3411  0.4929
86803SOL    HW278020   4.064  11.484   5.146 -1.3666  0.4851  0.0348
86804SOL     OW78021   0.962  12.676  13.103 -0.3072 -0.1438 -0.1080
86804SOL    HW178022   0.973  12.693  13.196 -0.1700 -1.4352  0.1358
86804SOL    HW278023   0.890  12.613  13.098 -1.7140  1.4635 -1.0466
86805SOL     OW78024  13.978   5.818  11.508 -0.4066  1.0141  0.4126
86805SOL    HW178025  13.985   5.864  11.425 -1.9667 -1.6677 -1.3997
86805SOL    HW278026  14.064   5.777  11.521 -0.3745  0.8367 -0.3185
86806SOL     OW78027   5.728   1.040   5.960  0.3902  0.0266  0.0863
86806SOL    HW178028   5.718   0.964   6.018  0.3419  0.4139  0.5936
86806SOL    HW278029   5.802   1.088   5.998  0.1708  0.4356 -0.0063
86807SOL     OW78030   0.019  10.975   2.056 -0.3530  0.3961  0.3062
86807SOL    HW178031  -0.075  10.975   2.040 -0.4170  0.2311  0.6783
86807SOL    HW278032   0.039  10.883   2.076  0.0253  0.2720 -0.5911
86808SOL     OW78033   0.201   4.336   7.985  0.3571  0.3940 -0.1986
86808SOL    HW178034   0.213   4.252   7.941 -0.9397  0.8896 -1.5808
86808SOL    HW278035   0.217   4.401   7.917 -0.5531  1.2164  0.3455
86809SOL     OW78036   8.600   8.443   0.339 -0.3901  0.1360 -0.5125
86809SOL    HW178037   8.639   8.471   0.422 -0.8099 -0.7826  0.0059
86809SOL    HW278038   8.617   8.349   0.335  0.9976  0.4117 -2.2208
86810SOL     OW78039   8.663   8.204   4.505 -0.3406 -0.1115  0.3763
86810SOL    HW178040   8.673   8.122   4.552 -1.0497 -0.4427 -0.0254
86810SOL    HW278041   8.745   8.215   4.457 -0.0655 -0.3471  0.7948
86811SOL     OW78042   7.584   3.001   5.167 -0.0198  0.3332 -0.2229
86811SOL    HW178043   7.519   2.931   5.162  1.6863 -1.4738  1.4183
86811SOL    HW278044   7.553   3.067   5.104 -1.4707 -2.0534 -2.1739
86812SOL     OW78045  12.316   1.565   2.067  0.0564  0.3719 -0.9847
86812SOL    HW178046  12.310   1.474   2.039  0.6368  0.0571 -0.1191
86812SOL    HW278047  12.407   1.589   2.051  0.2834  0.3282  0.1599
86813SOL     OW78048   5.733  13.609  10.992  0.6108  0.1587  0.0438
86813SOL    HW178049   5.651  13.657  10.984  0.4699  0.0715  0.8697
86813SOL    HW278050   5.792  13.651  10.929 -0.4952 -0.7575 -1.7061
86814SOL     OW78051  11.077  10.449   2.385  0.0965 -1.2801  0.3020
86814SOL    HW178052  11.110  10.477   2.470  0.1736 -1.4129  0.3158
86814SOL    HW278053  11.065  10.354   2.393 -0.7811 -1.1623  0.4640
86815SOL     OW78054   7.704  10.342   1.177 -0.1805  0.7894 -0.0325
86815SOL    HW178055   7.761  10.418   1.165 -0.6201  1.1520  0.1778
86815SOL    HW278056   7.676  10.319   1.089 -1.0610  1.6539  0.0084
86816SOL     OW78057   6.550   8.236   3.089  0.1631  0.2339 -0.3194
86816SOL    HW178058   6.456   8.217   3.086 -0.1764  1.7975 -3.0675
86816SOL    HW278059   6.575   8.246   2.997  2.7614  1.1691  0.4044
86817SOL     OW78060   7.737   5.476   0.496  0.0632  0.1154  0.3839
86817SOL    HW178061   7.762   5.548   0.554 -0.6982  0.8929 -0.2322
86817SOL    HW278062   7.774   5.398   0.538 -0.5224  0.6373  1.9581
86818SOL     OW78063   5.886   9.064  13.107  0.0847 -0.4924 -0.2679
86818SOL    HW178064   5.804   9.089  13.063 -0.4431 -0.6986  0.5698
86818SOL    HW278065   5.879   9.103  13.194  0.0473 -2.0387  0.4538
86819SOL     OW78066   0.456   6.719   6.977 -0.4517  0.7218  0.0342
86819SOL    HW178067   0.428   6.736   7.066  0.2669 -2.9236  1.1194
86819SOL    HW278068   0.552   6.723   6.981 -0.4078  0.3970 -0.4970
86820SOL     OW78069   6.443   2.244  12.701 -0.3501 -0.5201 -0.2510
86820SOL    HW178070   6.501   2.315  12.727 -0.3946  0.7176 -3.1427
86820SOL    HW278071   6.434   2.190  12.780  2.7464  0.5407  0.9753
86821SOL     OW78072  14.054  13.698  11.898 -0.2219  0.5840 -0.5214
86821SOL    HW178073  14.044  13.773  11.839  1.2775  0.9369 -0.3708
86821SOL    HW278074  13.964  13.674  11.921 -0.7932  1.2732 -1.8843
86822SOL     OW78075  11.968  12.389   7.111  0.1737  0.1893  0.0269
86822SOL    HW178076  11.872  12.393   7.112  0.1100 -0.5391  2.0637
86822SOL    HW278077  11.992  12.408   7.020 -2.0270 -2.3429 -1.2611
86823SOL     OW78078   9.409   7.095   5.575 -0.2195  0.2174  0.3644
86823SOL    HW178079   9.348   7.028   5.604 -0.6354  0.1363 -0.6467
86823SOL    HW278080   9.428   7.147   5.653  0.1229 -1.0731  1.1590
86824SOL     OW78081   8.564   7.135   2.531 -0.3103 -0.5866 -0.2067
86824SOL    HW178082   8.584   7.054   2.579 -1.5109  0.4305  2.1873
86824SOL    HW278083   8.645   7.186   2.537 -1.0688  0.4937  3.0086
86825SOL     OW78084   5.466   9.184   3.050 -0.0388  0.5228  0.3612
86825SOL    HW178085   5.515   9.139   3.118 -2.7309  1.9171  3.5155
86825SOL    HW278086   5.440   9.115   2.989 -0.9054 -1.5934  2.9634
86826SOL     OW78087   0.184   5.504  11.061  0.2350 -0.0166 -0.3400
86826SOL    HW178088   0.194   5.567  10.989  2.0368  0.9383  0.6676
86826SOL    HW278089   0.112   5.539  11.114  1.3940  1.4061  0.3597
86827SOL     OW78090   5.968   9.556   1.662  0.1691 -0.1081  0.1595
86827SOL    HW178091   5.973   9.565   1.566 -0.8226 -0.2213  0.0807
86827SOL    HW278092   5.931   9.640   1.691  2.1434  0.6573  0.6478
86828SOL     OW78093   7.221  10.303   2.059 -0.6136 -0.3753 -0.1235
86828SOL    HW178094   7.220  10.267   2.148 -2.6651  0.1755  0.1169
86828SOL    HW278095   7.310  10.337   2.048 -0.6236  0.5489  2.1521
86829SOL     OW78096   2.798   0.483   5.838 -0.2606  0.2805 -0.5700
86829SOL    HW178097   2.761   0.434   5.765 -0.8466  1.1012 -0.8455
86829SOL    HW278098   2.737   0.470   5.910  0.0544 -0.1186 -0.3708
86830SOL     OW78099  10.073   7.825   2.938  0.1347  0.4012 -0.3045
86830SOL    HW178100  10.024   7.908   2.945  1.5838  1.2633 -0.0250
86830SOL    HW278101  10.008   7.762   2.908 -1.6922  1.0097  2.0410
86831SOL     OW78102   4.837   4.493   6.129  0.2226 -0.0201  0.2133
86831SOL    HW178103   4.871   4.556   6.066 -2.2727  0.0568 -1.1526
86831SOL    HW278104   4.911   4.433   6.145  2.5331  2.8501  1.2265
86832SOL     OW78105  13.636   5.451  10.759  0.0324 -0.3782  0.0195
86832SOL    HW178106  13.698   5.524  10.752 -2.0559  1.4371 -0.8026
86832SOL    HW278107  13.631   5.434  10.853  1.0682  0.0893  0.1740
86833SOL     OW78108   2.037   2.859  10.236 -0.1321  0.2078 -0.5317
86833SOL    HW178109   1.972   2.812  10.289  1.8060 -0.5198  1.3432
86833SOL    HW278110   2.024   2.951  10.258  0.3572 -0.0444  1.0041
86834SOL     OW78111  12.659  13.189  11.982 -0.0361 -0.0169 -0.4791
86834SOL    HW178112  12.702  13.165  12.064 -0.0107 -0.2797 -0.5683
86834SOL    HW278113  12.713  13.260  11.947 -0.3728  0.4921  0.0141
86835SOL     OW78114   4.917   4.005   8.360  0.2010  0.1283 -0.0254
86835SOL    HW178115   4.861   3.928   8.370  1.0459 -0.2425  2.7455
86835SOL    HW278116   4.970   4.006   8.440  0.0411  3.7180  0.1923
86836SOL     OW78117  10.929  13.243  13.076 -0.5068 -0.0666 -0.2035
86836SOL    HW178118  10.986  13.205  13.010  1.1995 -1.5082  1.9627
86836SOL    HW278119  10.959  13.334  13.083  0.1708 -0.2564 -0.5058
86837SOL     OW78120  10.086   8.284   7.074  0.6243  0.0138  0.1879
86837SOL    HW178121  10.096   8.365   7.123  1.4449 -0.4591  0.8415
86837SOL    HW278122  10.052   8.311   6.989 -0.5058  0.8890  0.8893
86838SOL     OW78123   4.286   7.796   4.287 -0.4363  0.6202 -0.0658
86838SOL    HW178124   4.347   7.737   4.330 -1.0938  1.1396  1.6796
86838SOL    HW278125   4.200   7.754   4.298 -0.6261  0.7378 -0.9663
86839SOL     OW78126   5.964  10.187  10.595  0.4485 -0.3233 -0.4489
86839SOL    HW178127   5.964  10.222  10.684  0.6869  0.0806 -0.6062
86839SOL    HW278128   5.874  10.156  10.582  0.5942 -1.0202  0.1753
86840SOL     OW78129   9.542  10.648   1.331 -0.6833  1.1326 -0.4633
86840SOL    HW178130   9.587  10.732   1.323 -0.7443  1.3566  1.2376
86840SOL    HW278131   9.592  10.589   1.274  0.5095  1.8669 -0.2207
86841SOL     OW78132  12.706   2.480   0.157  0.0127  0.4388 -0.1899
86841SOL    HW178133  12.687   2.503   0.066  1.5855  0.7302 -0.4723
86841SOL    HW278134  12.770   2.409   0.151  2.3101  2.3131  0.6158
86842SOL     OW78135  11.042   3.607   2.831  0.7340 -0.1899  0.2081
86842SOL    HW178136  10.987   3.546   2.781  1.4471 -0.1205 -0.6620
86842SOL    HW278137  11.009   3.599   2.921 -1.1400  0.3278 -0.3857
86843SOL     OW78138  13.497  11.914   6.949 -0.0187  0.3571 -1.0609
86843SOL    HW178139  13.434  11.934   7.018  0.3676 -1.4244 -0.1384
86843SOL    HW278140  13.582  11.942   6.983  0.2091 -0.7440 -0.6693
86844SOL     OW78141   1.629   2.404  11.236 -0.2809 -1.0531  0.4390
86844SOL    HW178142   1.645   2.491  11.200 -3.2261 -0.8401 -0.5930
86844SOL    HW278143   1.623   2.347  11.159  1.0883 -2.1246  1.0775
86845SOL     OW78144   2.657  10.060  10.172  0.1720  0.0489  0.7938
86845SOL    HW178145   2.733  10.060  10.114 -0.7950  1.9123 -0.5635
86845SOL    HW278146   2.608   9.982  10.148  0.0392  0.5377 -0.5948
86846SOL     OW78147   8.280   1.166   6.168  0.3103  0.5676  0.0484
86846SOL    HW178148   8.236   1.097   6.218  0.5741  0.2556 -0.1475
86846SOL    HW278149   8.257   1.247   6.214  1.0219  0.2331  1.0159
86847SOL     OW78150   2.602   7.758   8.983 -0.1744 -0.2152  0.1563
86847SOL    HW178151   2.557   7.793   8.906 -0.8888  0.5162  0.8909
86847SOL    HW278152   2.533   7.717   9.035  0.3294 -0.8547  0.3457
86848SOL     OW78153   9.895   2.606   3.012 -0.1283 -0.4204  0.2217
86848SOL    HW178154   9.885   2.645   3.098  4.8459  0.2224  0.8413
86848SOL    HW278155   9.878   2.513   3.025  0.0029 -0.2444  1.7648
86849SOL     OW78156   0.673   8.756   7.909  0.2125 -0.0941 -0.2714
86849SOL    HW178157   0.711   8.747   7.822 -0.1829  0.0068 -0.4588
86849SOL    HW278158   0.725   8.823   7.952  0.0850  0.2256 -0.6139
86850SOL     OW78159   9.675   2.432  13.955 -0.5312 -0.1278 -0.8223
86850SOL    HW178160   9.745   2.393  13.903  1.2521 -0.7493  1.8083
86850SOL    HW278161   9.615   2.470  13.891  1.5535 -0.6830 -3.2661
86851SOL     OW78162  13.668   9.631  12.624 -0.3430  0.1471  0.2993
86851SOL    HW178163  13.750   9.614  12.577 -0.1802 -0.7684  0.8986
86851SOL    HW278164  13.641   9.718  12.593 -0.2350 -0.4083 -1.4853
86852SOL     OW78165  13.247   9.494   1.556  0.1654 -0.3193  0.0506
86852SOL    HW178166  13.312   9.430   1.584  0.7804 -0.2710 -1.2238
86852SOL    HW278167  13.175   9.484   1.619  1.1859 -0.7036  1.1891
86853SOL     OW78168  12.198   0.698  13.369 -0.0784 -0.4402  0.2143
86853SOL    HW178169  12.195   0.769  13.305 -3.1051 -0.0985  0.5907
86853SOL    HW278170  12.157   0.624  13.325 -1.7343 -0.3544  1.5173
86854SOL     OW78171   6.353  13.275   9.065  0.3410 -0.3487 -0.3380
86854SOL    HW178172   6.314  13.254   8.980 -0.3853 -1.2988  0.2054
86854SOL    HW278173   6.403  13.197   9.088  2.4953  0.7800 -0.9289
86855SOL     OW78174  13.051   7.249   1.462  0.3801  0.2988  0.4755
86855SOL    HW178175  13.040   7.339   1.433 -0.6307 -0.1184 -0.5161
86855SOL    HW278176  13.129   7.218   1.416  0.2078  0.3940  0.1200
86856SOL     OW78177   4.576   8.898   4.618 -0.1630 -0.7470 -0.6685
86856SOL    HW178178   4.486   8.867   4.627  0.4656 -2.1994  1.3270
86856SOL    HW278179   4.600   8.926   4.706  1.9555 -2.2983 -0.6738
86857SOL     OW78180   2.582   5.331  13.050  0.4433  0.0045  0.5063
86857SOL    HW178181   2.619   5.406  13.096  0.2234  0.4271  0.0024
86857SOL    HW278182   2.553   5.273  13.120 -0.6954  1.0363  0.9231
86858SOL     OW78183   7.702   2.307  10.096  0.3167 -0.2489 -0.3847
86858SOL    HW178184   7.737   2.392  10.069  2.4643 -0.5538  1.2294
86858SOL    HW278185   7.641   2.326  10.167 -0.5399  0.0266 -1.1635
86859SOL     OW78186   2.945   8.604   6.239  0.4695  0.3281 -0.5402
86859SOL    HW178187   3.005   8.679   6.239 -0.3293  1.0046  0.1488
86859SOL    HW278188   2.960   8.561   6.156  2.7275 -0.2112  0.0789
86860SOL     OW78189   7.169   0.229   5.276 -0.4832  0.0353  0.1068
86860SOL    HW178190   7.204   0.144   5.250 -1.5059 -0.7624  1.1916
86860SOL    HW278191   7.216   0.293   5.223  1.9626 -1.0224  0.8626
86861SOL     OW78192   9.288   6.926   0.590 -0.4093 -0.2543  0.0780
86861SOL    HW178193   9.258   7.013   0.563 -0.8488 -0.0909  1.0803
86861SOL    HW278194   9.335   6.941   0.671 -1.1743 -1.0519  0.6804
86862SOL     OW78195   6.939   4.677   3.356  0.3905 -0.2620 -0.3340
86862SOL    HW178196   6.853   4.651   3.389  0.5701 -0.5782 -0.1073
86862SOL    HW278197   6.986   4.708   3.433  0.5238 -0.2089 -0.4357
86863SOL     OW78198   5.765   2.380  10.540  0.1010 -0.0708  0.3014
86863SOL    HW178199   5.859   2.395  10.552 -0.0236  1.0491 -0.0161
86863SOL    HW278200   5.725   2.413  10.621 -0.0051 -0.7434  0.5267
86864SOL     OW78201   3.787  10.821   2.536  0.7130  0.3334  0.2806
86864SOL    HW178202   3.742  10.747   2.576  1.5718 -0.5135 -0.2450
86864SOL    HW278203   3.842  10.857   2.606 -0.1412  0.8505  0.6950
86865SOL     OW78204   3.662   5.509  10.368 -0.6713  0.1611 -0.3231
86865SOL    HW178205   3.590   5.552  10.324 -0.9908  0.9397  0.9157
86865SOL    HW278206   3.624   5.472  10.448  0.3348  0.9109  0.5490
86866SOL     OW78207   0.102   9.447  13.559  0.0966  0.7108  0.1490
86866SOL    HW178208   0.088   9.436  13.465  3.5255  0.9839 -0.5145
86866SOL    HW278209   0.180   9.395  13.578 -1.0447 -0.1338  3.1146
86867SOL     OW78210  12.451   0.163   0.908 -0.1648 -0.4227 -0.1684
86867SOL    HW178211  12.530   0.216   0.915  0.3655 -0.4912 -3.6064
86867SOL    HW278212  12.379   0.225   0.921  0.4680  0.3665 -0.3828
86868SOL     OW78213  10.285  11.409   6.246 -0.2734 -0.2758 -0.2611
86868SOL    HW178214  10.252  11.486   6.292  0.3134  0.8896 -1.7046
86868SOL    HW278215  10.216  11.387   6.183  1.4441  2.1264 -3.2401
86869SOL     OW78216  11.377  10.404   2.599  0.2804 -0.0632 -0.3359
86869SOL    HW178217  11.443  10.411   2.667  0.8268 -0.6721 -0.7955
86869SOL    HW278218  11.308  10.465   2.626  2.1949  2.6473 -1.2383
86870SOL     OW78219  12.012  10.057  10.928 -0.1429  0.6268  0.5994
86870SOL    HW178220  12.017   9.977  10.982  2.3027  1.8122  2.2915
86870SOL    HW278221  12.091  10.055  10.875 -0.8347  1.2028 -0.4804
86871SOL     OW78222  13.162   5.443   7.959 -0.0700  0.2081  0.0996
86871SOL    HW178223  13.198   5.497   8.030 -1.5287 -0.7742  1.6580
86871SOL    HW278224  13.225   5.372   7.949 -0.0290  0.1561  0.6724
86872SOL     OW78225   8.945   9.493   1.574  0.0575 -0.3364  0.1956
86872SOL    HW178226   8.895   9.500   1.493 -1.8475 -0.6625  1.2669
86872SOL    HW278227   8.879   9.495   1.643  1.7512  4.0816  2.0787
86873SOL     OW78228   6.089   4.545   0.631 -0.0143  0.0277 -0.0598
86873SOL    HW178229   6.109   4.475   0.569 -0.3024  0.1801 -0.3356
86873SOL    HW278230   6.041   4.502   0.702  1.6406 -0.4067  0.8220
86874SOL     OW78231   9.716  10.836   6.531 -0.5579  0.0145  0.2891
86874SOL    HW178232   9.797  10.785   6.525 -0.5371 -0.1113  1.4291
86874SOL    HW278233   9.653  10.776   6.571 -0.3975  0.9933  2.1404
86875SOL     OW78234   9.392   2.850  10.310  0.6543  0.3726  0.3049
86875SOL    HW178235   9.409   2.767  10.355  0.2858  1.7099  3.1791
86875SOL    HW278236   9.299   2.868  10.327  0.3627  0.7553 -1.4780
86876SOL     OW78237   1.987   0.061  10.067 -0.5123  0.5783  0.0527
86876SOL    HW178238   2.056   0.024  10.012  0.2948  1.4999  0.4192
86876SOL    HW278239   1.917  -0.004  10.065  1.1808 -1.3703  1.3662
86877SOL     OW78240   2.787   8.456   8.841 -0.2586 -0.1389  0.3083
86877SOL    HW178241   2.710   8.465   8.785 -0.0877  0.1851  0.1271
86877SOL    HW278242   2.809   8.363   8.837 -0.7182 -0.2588  0.4643
86878SOL     OW78243   3.027   4.666   2.011 -0.3917  0.5971 -0.4369
86878SOL    HW178244   3.107   4.713   1.989 -1.3041  1.7005 -1.4853
86878SOL    HW278245   2.959   4.709   1.961 -1.6485 -0.3769  0.3751
86879SOL     OW78246   1.507   8.552   8.040  0.5444  0.2696 -0.6910
86879SOL    HW178247   1.558   8.616   8.088 -0.3651  0.0739  0.5992
86879SOL    HW278248   1.416   8.567   8.068  0.3147 -1.6438 -0.2287
86880SOL     OW78249   7.656  11.228   5.919 -0.1960  0.0209  0.3386
86880SOL    HW178250   7.628  11.137   5.920  1.0798 -0.4226  2.1369
86880SOL    HW278251   7.748  11.225   5.946 -0.2593  1.8544  0.9216
86881SOL     OW78252   4.138  10.264   1.920  0.2764  0.2343  0.3167
86881SOL    HW178253   4.126  10.358   1.937 -1.0836  0.7396 -2.7231
86881SOL    HW278254   4.058  10.238   1.874  0.3455 -2.6202  1.6270
86882SOL     OW78255   7.599   9.803  10.580 -0.1009 -0.6745 -0.3103
86882SOL    HW178256   7.600   9.869  10.649 -1.9172  0.1231 -0.9755
86882SOL    HW278257   7.529   9.743  10.606  0.5078 -1.4817 -0.4928
86883SOL     OW78258   5.006   5.264   5.945  0.1791 -0.1788 -0.0246
86883SOL    HW178259   4.938   5.266   6.013 -0.3040  1.8550 -0.4769
86883SOL    HW278260   4.963   5.300   5.867  0.9794 -1.6247 -1.1798
86884SOL     OW78261   9.525  12.468   9.417 -0.3117 -0.0981 -0.6661
86884SOL    HW178262   9.529  12.435   9.327  0.6421 -0.1136 -0.6309
86884SOL    HW278263   9.488  12.555   9.409 -0.6527 -0.2711 -1.0224
86885SOL     OW78264   8.419   4.474   1.636  0.2143  0.2492 -0.7096
86885SOL    HW178265   8.423   4.538   1.707 -2.1282  1.2301 -1.3466
86885SOL    HW278266   8.459   4.520   1.561  3.5434 -1.1138  0.0457
86886SOL     OW78267   8.295   2.686   0.590  0.1484  0.1008  0.0765
86886SOL    HW178268   8.322   2.617   0.530  0.8788 -0.3964  0.9606
86886SOL    HW278269   8.355   2.759   0.572  1.3323 -0.5623  1.1775
86887SOL     OW78270   6.060   3.924   5.910 -0.7567  0.4784 -0.0185
86887SOL    HW178271   5.993   3.855   5.913 -0.2256 -0.1711 -1.9034
86887SOL    HW278272   6.143   3.876   5.918 -0.4529  1.2194  1.6627
86888SOL     OW78273  10.226   9.691   4.414  0.6638  0.2527  0.7238
86888SOL    HW178274  10.251   9.784   4.416 -0.6439  0.7900 -2.1062
86888SOL    HW278275  10.140   9.688   4.457 -0.0819  0.7213 -0.6712
86889SOL     OW78276   9.711  12.898   6.741 -0.0929  0.6436  0.3060
86889SOL    HW178277   9.779  12.920   6.677 -0.8392  2.8009  0.1667
86889SOL    HW278278   9.722  12.804   6.756  0.8066  0.2626 -2.1628
86890SOL     OW78279   7.651   6.218   0.770  0.0427 -0.2731 -0.0779
86890SOL    HW178280   7.649   6.196   0.863 -0.9053  1.9435  0.4965
86890SOL    HW278281   7.558   6.225   0.745  0.2751  1.0722 -0.6562
86891SOL     OW78282   4.355  14.034   7.733  0.2835 -0.0375  0.2306
86891SOL    HW178283   4.438  13.988   7.723  0.2088 -0.1846  0.2909
86891SOL    HW278284   4.317  14.033   7.645  0.5905  0.4956  0.0913
86892SOL     OW78285   4.607  14.003   4.009 -0.5488 -0.1293 -0.4298
86892SOL    HW178286   4.527  13.955   3.986 -0.3642 -0.7640  0.2239
86892SOL    HW278287   4.664  13.992   3.934 -0.5703 -0.8088 -0.3502
86893SOL     OW78288  11.189   0.268   4.653  0.2324  0.4328  0.5246
86893SOL    HW178289  11.213   0.177   4.636  0.8439  0.4458  1.2580
86893SOL    HW278290  11.193   0.277   4.748 -1.3640  0.8178  0.5861
86894SOL     OW78291   6.842   3.403   4.004 -0.4360  0.1219 -0.3179
86894SOL    HW178292   6.839   3.406   4.099  0.0583  0.4036 -0.3066
86894SOL    HW278293   6.931   3.374   3.984 -0.2115  1.0623 -0.7079
86895SOL     OW78294   8.651   3.605   4.862  0.4409 -0.3054  0.3642
86895SOL    HW178295   8.643   3.591   4.768  0.7065 -0.5762  0.3832
86895SOL    HW278296   8.705   3.684   4.870  1.7042 -1.1437  0.3075
86896SOL     OW78297  12.160   2.356  12.709  0.1943  0.1292 -0.4939
86896SOL    HW178298  12.147   2.263  12.695  1.2116  0.2907 -2.9706
86896SOL    HW278299  12.254   2.365  12.729  0.1944  0.6581 -0.7112
86897SOL     OW78300   0.192   1.595   3.493  0.1935  0.1208  0.4548
86897SOL    HW178301   0.281   1.631   3.482  0.2869  0.4075  2.0060
86897SOL    HW278302   0.135   1.664   3.459  0.5529 -0.3052 -1.1187
86898SOL     OW78303   9.290  10.641   2.629  0.6583  0.0571  0.4390
86898SOL    HW178304   9.221  10.652   2.563 -0.1085 -0.1265  1.1920
86898SOL    HW278305   9.325  10.729   2.642 -0.7286  0.4907  1.4116
86899SOL     OW78306   3.750  11.716  12.219 -0.1729  0.0526 -0.3846
86899SOL    HW178307   3.694  11.640  12.233 -1.9675  1.6345  2.0986
86899SOL    HW278308   3.703  11.769  12.155 -1.7550  1.4085  1.7431
86900SOL     OW78309   1.120  14.091   7.160  0.4631  0.0451 -0.3507
86900SOL    HW178310   1.213  14.078   7.142  0.7062 -0.9823  1.4257
86900SOL    HW278311   1.079  14.007   7.140 -0.0790  0.4388 -0.9607
86901SOL     OW78312   3.641  12.791   6.275  0.1195 -0.2205 -0.1243
86901SOL    HW178313   3.561  12.739   6.290 -1.1213  1.1331 -1.6149
86901SOL    HW278314   3.712  12.728   6.286 -1.2228 -1.8305 -0.1320
86902SOL     OW78315   6.439   9.514   8.661  0.1611 -0.0008  0.3602
86902SOL    HW178316   6.445   9.466   8.578  0.4210  0.0131  0.3716
86902SOL    HW278317   6.462   9.604   8.639 -0.5315  0.1654  0.2999
86903SOL     OW78318   0.557  10.864   3.170  0.3787 -0.6754 -0.0226
86903SOL    HW178319   0.540  10.862   3.264  0.7063 -1.6568  0.0264
86903SOL    HW278320   0.476  10.834   3.130 -0.4050  1.4496 -0.1833
86904SOL     OW78321   9.256   7.234   1.702  0.3525 -0.1811  0.3623
86904SOL    HW178322   9.301   7.248   1.618 -0.9131  1.7936 -0.0440
86904SOL    HW278323   9.265   7.318   1.748 -1.4788 -0.2874  0.9639
86905SOL     OW78324   4.739   7.817  13.402  0.5430  0.1384 -0.0510
86905SOL    HW178325   4.737   7.892  13.343  1.2786  0.8336  0.7912
86905SOL    HW278326   4.647   7.798  13.420  0.2458 -0.7156 -2.1785
86906SOL     OW78327   6.622   6.967   4.499 -0.4928 -0.3321 -0.6972
86906SOL    HW178328   6.621   7.030   4.571 -1.5111  0.9069 -1.7605
86906SOL    HW278329   6.590   7.016   4.423  0.2557 -1.6881 -1.9380
86907SOL     OW78330   6.980   8.466   9.678  0.3054  0.7768  0.1591
86907SOL    HW178331   7.021   8.534   9.625  1.1682  1.1650  1.2840
86907SOL    HW278332   6.962   8.509   9.762 -3.0477  0.8514 -0.4438
86908SOL     OW78333   6.926   0.236  10.352 -0.0274 -0.6556  0.2143
86908SOL    HW178334   6.845   0.189  10.335 -1.0576  1.3108 -0.7697
86908SOL    HW278335   6.927   0.251  10.446 -0.3465 -1.4722  0.3509
86909SOL     OW78336  13.247   1.518   3.864  0.0435  0.1233 -0.0067
86909SOL    HW178337  13.326   1.479   3.902 -0.1071 -0.2800 -0.1014
86909SOL    HW278338  13.203   1.561   3.938  0.3568  0.3631  0.0434
86910SOL     OW78339   3.107   2.632   7.807  0.0955 -0.3182 -0.2644
86910SOL    HW178340   3.172   2.701   7.789  0.0095 -0.3939 -0.8879
86910SOL    HW278341   3.157   2.563   7.851  0.1332  0.2421  0.6007
86911SOL     OW78342   7.769   7.386   7.246  0.3024 -0.7824  0.0257
86911SOL    HW178343   7.722   7.425   7.172  0.9727  0.2933  0.1362
86911SOL    HW278344   7.745   7.294   7.244 -1.1950 -0.4086 -0.3690
86912SOL     OW78345   4.514  13.643   8.378 -0.0075 -0.1395  0.0202
86912SOL    HW178346   4.492  13.630   8.286 -0.6589 -1.8573  0.3937
86912SOL    HW278347   4.433  13.673   8.419  0.3625  0.9497  0.0105
86913SOL     OW78348   7.811   8.315  14.013  0.2732 -0.4208  0.5248
86913SOL    HW178349   7.781   8.250  13.949  0.1693  1.8146 -1.8676
86913SOL    HW278350   7.861   8.264  14.077 -0.6059 -2.9519 -0.6714
86914SOL     OW78351   0.200   3.044   8.936 -0.1143 -0.0062 -0.0783
86914SOL    HW178352   0.230   3.120   8.885 -1.4341  1.1960  0.8278
86914SOL    HW278353   0.169   2.982   8.870 -1.1374  1.2133 -0.8161
86915SOL     OW78354   7.610   4.714  12.206  0.4483  0.6624 -1.0634
86915SOL    HW178355   7.544   4.645  12.200 -0.6535  1.7007 -1.3945
86915SOL    HW278356   7.694   4.668  12.209 -0.2483 -0.6690 -1.3874
86916SOL     OW78357  10.435   3.697   4.261  0.8149 -0.1915 -0.0873
86916SOL    HW178358  10.404   3.656   4.181  1.0839  0.7033 -0.6678
86916SOL    HW278359  10.378   3.664   4.330  0.2132 -0.5189 -0.7439
86917SOL     OW78360   7.141   9.837  13.355 -0.4098 -0.6206 -0.3614
86917SOL    HW178361   7.053   9.810  13.328 -0.4931 -0.4715 -0.2351
86917SOL    HW278362   7.163   9.908  13.295 -1.8544  1.9144  1.8833
86918SOL     OW78363  10.999   2.520   2.680  0.0904 -0.4060 -0.1740
86918SOL    HW178364  11.063   2.568   2.733  0.3676  0.1324 -0.9676
86918SOL    HW278365  10.932   2.492   2.742 -0.0224  0.9248  0.3390
86919SOL     OW78366   5.978  10.550   1.597  0.0319 -0.6792  0.0898
86919SOL    HW178367   5.918  10.479   1.621 -0.7218 -1.1188 -2.7244
86919SOL    HW278368   5.922  10.628   1.592 -0.2020 -0.9022 -1.5672
86920SOL     OW78369  12.760  10.828   7.718 -0.0610  0.3259 -0.5299
86920SOL    HW178370  12.779  10.888   7.646 -0.2598 -0.5076 -1.2999
86920SOL    HW278371  12.760  10.741   7.677 -1.2296 -0.0726  0.2512
86921SOL     OW78372   6.002   2.666   0.664  0.5669 -0.2327 -0.1139
86921SOL    HW178373   5.918   2.713   0.665  0.3536 -0.6255  0.8615
86921SOL    HW278374   6.039   2.680   0.751  2.0484  0.8579 -0.8724
86922SOL     OW78375   9.981  13.539   4.663 -0.8021  0.0884 -0.2665
86922SOL    HW178376   9.994  13.496   4.748 -1.5475 -0.5157 -0.4420
86922SOL    HW278377  10.064  13.582   4.645  0.2551 -1.8833 -0.4156
86923SOL     OW78378  11.505  12.811  11.733  0.8394 -0.2466  0.1840
86923SOL    HW178379  11.539  12.900  11.725  0.1103  0.0068 -0.2061
86923SOL    HW278380  11.496  12.781  11.643 -0.6487 -0.0257  0.2318
86924SOL     OW78381  10.840   3.982  12.471 -0.0163  0.3788 -0.4733
86924SOL    HW178382  10.785   3.913  12.509  0.4420  0.4162  0.2642
86924SOL    HW278383  10.888   3.938  12.401  1.0458 -0.3164  0.6624
86925SOL     OW78384  12.540   6.487   3.301  0.0664  0.0045  0.6073
86925SOL    HW178385  12.614   6.442   3.260  0.4847  1.2741 -0.0780
86925SOL    HW278386  12.465   6.430   3.286  0.9027 -1.3251  1.3415
86926SOL     OW78387   9.735   2.621   2.793  0.1502  0.0849  0.4480
86926SOL    HW178388   9.655   2.614   2.844  0.7288  3.2123  2.0659
86926SOL    HW278389   9.805   2.625   2.858  1.4628 -0.8833 -0.8491
86927SOL     OW78390   8.514  10.926   5.188 -0.9482 -0.1555 -0.1137
86927SOL    HW178391   8.504  11.013   5.226  0.0237 -0.6744  1.3992
86927SOL    HW278392   8.473  10.867   5.251 -0.6888 -0.8946 -0.6249
86928SOL     OW78393   4.408  12.743   8.499  0.2833 -0.0942 -0.4045
86928SOL    HW178394   4.429  12.808   8.431  2.2457 -0.4709 -0.2190
86928SOL    HW278395   4.420  12.659   8.456 -0.1631 -0.3370 -0.0555
86929SOL     OW78396   5.778   0.528   8.961 -0.4027  0.3430  0.1490
86929SOL    HW178397   5.773   0.470   8.884 -0.1952 -0.7165  0.9107
86929SOL    HW278398   5.698   0.511   9.010  0.0245  0.1169  0.7803
86930SOL     OW78399   5.099  13.841  11.160 -0.5413 -0.1882  0.0961
86930SOL    HW178400   5.126  13.767  11.105  0.3875 -1.4120  2.1019
86930SOL    HW278401   5.050  13.800  11.232  0.4061  1.0788  1.5152
86931SOL     OW78402   1.970   2.154   8.853 -0.1250  0.3050 -0.1866
86931SOL    HW178403   1.976   2.064   8.885  0.0536  0.8443  1.3666
86931SOL    HW278404   1.899   2.152   8.789 -0.7522 -0.7542  0.5098
86932SOL     OW78405   7.848   7.748   7.060 -0.2842 -0.3707  0.3789
86932SOL    HW178406   7.887   7.731   7.146  1.7177  1.6914 -0.0361
86932SOL    HW278407   7.849   7.843   7.052  0.6880 -0.5398 -2.3993
86933SOL     OW78408   4.069  10.012  12.663 -0.2202  0.6972 -0.4197
86933SOL    HW178409   4.099  10.039  12.750  0.6569  1.3755 -0.9123
86933SOL    HW278410   4.109  10.076  12.604 -1.9267  1.0689 -1.2117
86934SOL     OW78411  11.941   3.101   9.372  0.1960  0.6566 -0.5104
86934SOL    HW178412  11.851   3.128   9.353 -0.1929 -0.7840 -0.8761
86934SOL    HW278413  11.931   3.020   9.422  1.2876  1.1879  0.6289
86935SOL     OW78414  10.314  13.277   8.173  0.2567  0.4196 -0.0905
86935SOL    HW178415  10.313  13.189   8.211 -1.4761  0.1202 -0.7055
86935SOL    HW278416  10.221  13.297   8.157  0.7858  0.7772 -3.5211
86936SOL     OW78417   4.358  12.239   0.573  0.8151 -0.1951  0.2886
86936SOL    HW178418   4.282  12.275   0.619  0.8609  0.3574 -0.0458
86936SOL    HW278419   4.338  12.146   0.561 -0.2768  0.1323 -0.6773
86937SOL     OW78420   8.025  10.585   2.918  0.7492 -0.4378 -0.4734
86937SOL    HW178421   7.931  10.601   2.908  0.5083 -1.2743  0.2834
86937SOL    HW278422   8.036  10.562   3.010  1.0128 -4.2682 -1.2790
86938SOL     OW78423   7.053  10.825  12.459 -0.1353 -0.6834 -0.5501
86938SOL    HW178424   7.011  10.910  12.449  0.3098 -0.1276  1.8068
86938SOL    HW278425   7.012  10.787  12.537  1.8697 -1.2318  0.2869
86939SOL     OW78426  13.578   7.447   1.810 -0.1607 -0.0593 -0.4067
86939SOL    HW178427  13.609   7.356   1.819  0.2895  0.2273  1.2443
86939SOL    HW278428  13.616   7.477   1.728  0.7759 -0.9598 -0.3237
86940SOL     OW78429   5.171   8.164  11.711 -0.0068 -0.1638 -0.0631
86940SOL    HW178430   5.240   8.173  11.777  0.3421 -0.9454 -0.3071
86940SOL    HW278431   5.207   8.209  11.634 -1.1801  2.4308  0.7750
86941SOL     OW78432   8.581   7.512  13.833  0.4233 -0.1091 -0.1469
86941SOL    HW178433   8.590   7.424  13.869  0.8005 -0.6149 -1.4277
86941SOL    HW278434   8.570   7.568  13.910 -1.2193 -1.4177  0.6288
86942SOL     OW78435   0.510   5.757   3.950  0.1466  0.2373  0.0607
86942SOL    HW178436   0.557   5.809   4.015 -1.6711 -0.0787  1.6971
86942SOL    HW278437   0.531   5.666   3.972  0.3594  0.1489 -0.4765
86943SOL     OW78438  13.680  10.602  13.303  0.2041 -0.2728 -0.3642
86943SOL    HW178439  13.665  10.592  13.397 -0.1764  0.3705 -0.3484
86943SOL    HW278440  13.669  10.696  13.287  2.5829  0.0404 -0.6410
86944SOL     OW78441  10.413   9.960  13.935  0.1102 -0.3498  0.3846
86944SOL    HW178442  10.369   9.878  13.913 -1.5463  0.4309  0.6021
86944SOL    HW278443  10.483   9.968  13.871 -0.0785 -1.6363 -0.0034
86945SOL     OW78444   8.752   3.251   6.140  0.0233  0.2765 -0.1595
86945SOL    HW178445   8.785   3.162   6.155 -0.4804 -0.0564 -0.9368
86945SOL    HW278446   8.803   3.283   6.065 -0.0857  0.4781 -0.1466
86946SOL     OW78447   0.963  12.891   7.306  0.9413  0.1297  0.0557
86946SOL    HW178448   0.969  12.908   7.212 -0.9960  1.5490  0.1290
86946SOL    HW278449   0.976  12.797   7.314 -1.2770 -0.4721 -1.9658
86947SOL     OW78450   8.998  12.674   8.409  0.0355 -0.0098 -0.3564
86947SOL    HW178451   9.045  12.590   8.410  0.6732  0.3358  1.3911
86947SOL    HW278452   8.924  12.661   8.469  1.8284  1.5207  2.4253
86948SOL     OW78453   3.276   5.561   7.452 -0.5568 -0.7159 -0.3597
86948SOL    HW178454   3.198   5.508   7.437  0.2659 -2.0932  0.0472
86948SOL    HW278455   3.347   5.512   7.410  0.3563 -0.3158  0.6605
86949SOL     OW78456   9.531   3.553   4.608  1.0328 -0.1807  0.1246
86949SOL    HW178457   9.480   3.605   4.670  0.0045  0.1111 -0.9241
86949SOL    HW278458   9.512   3.462   4.631  3.5784 -0.2360  2.5851
86950SOL     OW78459   2.136   8.065   8.790  0.0066 -0.2085 -0.4512
86950SOL    HW178460   2.122   8.071   8.696 -0.2131  0.6406 -0.3692
86950SOL    HW278461   2.049   8.045   8.826  0.3295 -1.9193 -0.5275
86951SOL     OW78462   1.736  13.211   9.161  0.2380 -0.6029  0.8944
86951SOL    HW178463   1.753  13.154   9.236 -2.1853  0.1354  2.1185
86951SOL    HW278464   1.648  13.187   9.133  0.8845 -0.4746 -1.4235
86952SOL     OW78465   9.953   4.342  11.012 -0.0009  0.4021  0.2971
86952SOL    HW178466   9.877   4.369  11.063 -0.2929  1.1235 -0.5000
86952SOL    HW278467   9.956   4.403  10.939  0.0235 -1.0057 -0.9220
86953SOL     OW78468  12.694   8.461   1.821 -0.4866  0.2152  0.1911
86953SOL    HW178469  12.624   8.396   1.827  0.1932 -0.6531 -0.9024
86953SOL    HW278470  12.659   8.538   1.865 -2.3935  0.0221 -0.8763
86954SOL     OW78471   6.716  10.730   4.062  0.6156  0.1350 -0.4121
86954SOL    HW178472   6.766  10.710   3.983  0.4318  0.5421 -0.6326
86954SOL    HW278473   6.628  10.749   4.030  0.4223 -0.1635 -0.0649
86955SOL     OW78474  10.611   3.080  13.113  0.3044 -0.1424 -0.1779
86955SOL    HW178475  10.538   3.082  13.051  1.3024  0.4069 -1.3849
86955SOL    HW278476  10.633   3.172  13.127  0.5052 -0.2885  0.5115
86956SOL     OW78477   7.484   8.507   3.013 -0.6357  0.3961  0.2752
86956SOL    HW178478   7.467   8.481   3.103 -1.9808 -0.2696 -0.1444
86956SOL    HW278479   7.508   8.599   3.018  0.2038  0.1295  1.3909
86957SOL     OW78480  13.479  10.334  11.506  0.4257  0.2899 -0.9183
86957SOL    HW178481  13.516  10.303  11.423  2.0368 -0.0189 -0.1363
86957SOL    HW278482  13.423  10.263  11.536  2.8058 -1.3317  0.0539
86958SOL     OW78483  11.542   9.730   2.237 -0.0742  0.2613 -0.1312
86958SOL    HW178484  11.602   9.798   2.207 -0.8097  0.5558 -0.9869
86958SOL    HW278485  11.476   9.724   2.167 -0.5417 -0.6707  0.3713
86959SOL     OW78486   3.356   9.543  12.124  0.2963 -0.1991 -0.0108
86959SOL    HW178487   3.366   9.635  12.097  0.9236  0.3843  2.0615
86959SOL    HW278488   3.442   9.519  12.159 -0.4440 -0.9264  1.3580
86960SOL     OW78489   7.146   9.986  13.080  0.3109 -0.1326 -0.4797
86960SOL    HW178490   7.057  10.005  13.111 -0.1874  0.8071 -2.2764
86960SOL    HW278491   7.134   9.922  13.010  1.2815 -1.5312  0.6033
86961SOL     OW78492   1.355   0.803   3.745  0.3007 -0.3082  0.2175
86961SOL    HW178493   1.261   0.802   3.729  0.2321 -0.8696  0.6130
86961SOL    HW278494   1.382   0.711   3.739  0.8218 -0.1540  0.1060
86962SOL     OW78495  11.072  13.537   4.114 -0.5151  0.1371  0.9256
86962SOL    HW178496  11.079  13.549   4.020 -0.4094  1.1685  1.0468
86962SOL    HW278497  11.162  13.551   4.147 -0.6151  0.1360  1.2042
86963SOL     OW78498  13.917   6.487   4.995  0.4533  0.0893 -0.4266
86963SOL    HW178499  13.907   6.492   5.090  0.1010 -2.2060 -0.2678
86963SOL    HW278500  13.836   6.524   4.960  0.4234  0.6090  0.1788
86964SOL     OW78501   7.466  13.613   6.291 -0.0288 -0.5857 -0.4733
86964SOL    HW178502   7.541  13.616   6.351  0.6165  3.6919 -1.1648
86964SOL    HW278503   7.495  13.559   6.219  0.7251 -2.4602  1.1490
86965SOL     OW78504   1.155   7.326   9.080  0.1276  0.6932 -0.7162
86965SOL    HW178505   1.209   7.402   9.104 -0.4753  1.0681 -0.5168
86965SOL    HW278506   1.173   7.261   9.148  0.3963  0.7798 -0.7035
86966SOL     OW78507   6.214  13.315  10.852 -0.3228 -0.4426 -0.2058
86966SOL    HW178508   6.220  13.263  10.772 -0.1133 -1.5380  0.4969
86966SOL    HW278509   6.290  13.374  10.848 -1.0071  0.4084 -1.3932
86967SOL     OW78510   0.529  11.035   5.569  0.0501 -0.2140  0.2894
86967SOL    HW178511   0.590  10.986   5.514  0.0150  0.3151 -0.2272
86967SOL    HW278512   0.470  10.968   5.603  0.5087 -0.6408  0.2584
86968SOL     OW78513   4.617   2.428   8.786  0.0035 -0.0880  0.1949
86968SOL    HW178514   4.704   2.411   8.822  0.7060  1.9858 -0.3569
86968SOL    HW278515   4.571   2.476   8.855  0.0233  0.5806 -0.2470
86969SOL     OW78516   4.410   6.741   4.266  0.3268  0.0213  0.4739
86969SOL    HW178517   4.341   6.757   4.330  1.6302  0.5181  1.8244
86969SOL    HW278518   4.384   6.791   4.189 -0.5441  0.6243  1.1390
86970SOL     OW78519   6.669   7.277  12.352 -0.0151  0.2194 -0.7913
86970SOL    HW178520   6.756   7.279  12.314  0.4911 -0.5123  0.3035
86970SOL    HW278521   6.681   7.306  12.443 -0.8193 -0.3515 -0.4882
86971SOL     OW78522  12.736  11.993   1.909  0.3434 -0.5143 -0.1149
86971SOL    HW178523  12.733  12.056   1.982  0.7288  0.5239 -0.9698
86971SOL    HW278524  12.652  11.948   1.913  0.5856 -0.9148  1.3381
86972SOL     OW78525   4.838  13.672   9.644 -0.4991 -0.0995  0.5761
86972SOL    HW178526   4.819  13.618   9.720  1.0517  1.5988  2.2673
86972SOL    HW278527   4.865  13.610   9.576  0.1112 -1.5293  2.0719
86973SOL     OW78528  12.407   5.775   4.348 -0.5985  0.4144 -0.4977
86973SOL    HW178529  12.401   5.681   4.328 -1.3095  0.6344 -1.3418
86973SOL    HW278530  12.482   5.805   4.297 -2.4438  0.9874 -3.0288
86974SOL     OW78531  13.831  11.439   3.463 -0.4823 -0.1381 -0.0327
86974SOL    HW178532  13.761  11.503   3.453 -0.1080  0.0464 -1.7340
86974SOL    HW278533  13.791  11.355   3.440 -0.4190 -0.2024  0.0856
86975SOL     OW78534   2.231  13.639  11.250  0.1100 -0.2355  0.2082
86975SOL    HW178535   2.190  13.659  11.166  0.0886 -3.0529 -0.5574
86975SOL    HW278536   2.319  13.609  11.228  0.6369  0.3719  1.3568
86976SOL     OW78537  10.499   0.657   9.238 -0.3677  0.0469 -0.0562
86976SOL    HW178538  10.568   0.723   9.244  1.0431 -1.4614  1.1156
86976SOL    HW278539  10.475   0.655   9.145  0.1372  1.6009 -0.2438
86977SOL     OW78540   3.276   9.815   1.327  0.2532  0.0270 -0.2533
86977SOL    HW178541   3.262   9.872   1.403  0.3005 -0.9253  0.4884
86977SOL    HW278542   3.339   9.750   1.358  1.2778  0.3768 -1.5098
86978SOL     OW78543   5.500   6.147   3.166 -0.3158 -0.3777 -0.5248
86978SOL    HW178544   5.447   6.215   3.208  2.2091  0.7005  1.2046
86978SOL    HW278545   5.482   6.156   3.072 -1.7632  1.1175 -0.1453
86979SOL     OW78546   2.033  13.462   1.092 -0.1699 -0.5393  0.6017
86979SOL    HW178547   2.089  13.414   1.030 -1.9702 -1.3543 -0.4699
86979SOL    HW278548   2.041  13.413   1.174  0.2357 -0.9798  0.3103
86980SOL     OW78549  12.234   8.528   2.305  0.1279  0.8315 -0.2135
86980SOL    HW178550  12.151   8.563   2.336  0.6492  2.4556 -0.5754
86980SOL    HW278551  12.210   8.457   2.245 -0.9563  0.6035  0.4756
86981SOL     OW78552   4.138   4.967   6.284 -0.3088 -0.1288 -0.0943
86981SOL    HW178553   4.224   5.009   6.290 -0.6677  0.6137  0.0616
86981SOL    HW278554   4.096   4.986   6.368 -0.8248 -0.0092 -0.3689
86982SOL     OW78555  13.089  11.099   3.637  0.6250 -0.2372 -0.1080
86982SOL    HW178556  12.996  11.115   3.620  0.3641  1.2565  2.2901
86982SOL    HW278557  13.131  11.106   3.551 -1.6529 -2.9977 -1.6113
86983SOL     OW78558   4.799   6.798  12.697  0.1954 -0.0555 -0.1806
86983SOL    HW178559   4.723   6.749  12.666  0.8110 -0.4353 -1.1147
86983SOL    HW278560   4.784   6.888  12.668 -0.4960  0.1470  0.7462
86984SOL     OW78561   3.836   8.227   5.833  0.2437  0.1356  0.3084
86984SOL    HW178562   3.861   8.136   5.813 -1.3799 -0.2008 -0.4009
86984SOL    HW278563   3.791   8.221   5.917  2.5853  0.7669  1.6879
86985SOL     OW78564   8.798   9.151  11.312 -0.3686  0.1541 -0.7553
86985SOL    HW178565   8.847   9.233  11.307  1.2280 -0.7550 -0.6897
86985SOL    HW278566   8.815   9.108  11.228  0.6307 -1.0701  0.0371
86986SOL     OW78567   1.927   0.699   4.425  0.4701 -0.4055 -0.0547
86986SOL    HW178568   1.859   0.749   4.380 -1.4633 -1.4790  1.5074
86986SOL    HW278569   1.940   0.745   4.507  2.3537  0.2912 -0.6896
86987SOL     OW78570   6.111   3.823  11.802 -0.5805  0.0466  0.2409
86987SOL    HW178571   6.202   3.794  11.801 -0.7313 -0.4270  0.1713
86987SOL    HW278572   6.117   3.918  11.800 -0.0872  0.0197  0.2036
86988SOL     OW78573  13.483  10.326  12.148 -0.1881  0.0106  0.3622
86988SOL    HW178574  13.560  10.328  12.205 -1.2257  2.1282  1.8357
86988SOL    HW278575  13.484  10.409  12.101  0.8818 -1.8590 -3.2643
86989SOL     OW78576  11.259   4.470   9.627 -0.1563 -0.4400 -0.3759
86989SOL    HW178577  11.300   4.497   9.710  0.3309 -0.7014 -0.5288
86989SOL    HW278578  11.287   4.380   9.615  1.3797  0.1764 -1.7849
86990SOL     OW78579   9.516  12.360  11.333  0.0144  0.1311 -0.0811
86990SOL    HW178580   9.541  12.389  11.421  1.6767 -1.5802  0.0745
86990SOL    HW278581   9.593  12.379  11.279 -0.3085 -0.4681 -0.7689
86991SOL     OW78582   4.358  10.789  13.081 -0.8098  0.6131  0.1790
86991SOL    HW178583   4.278  10.752  13.118  0.1906  0.1530  1.9627
86991SOL    HW278584   4.429  10.742  13.124  0.4811 -0.5458 -2.9289
86992SOL     OW78585   7.700   9.279   6.135 -1.1561 -0.1739  0.4624
86992SOL    HW178586   7.722   9.350   6.195  1.4040 -0.0822 -0.4450
86992SOL    HW278587   7.608   9.294   6.112 -1.5148  1.1225  2.5119
86993SOL     OW78588   6.888  11.675   1.448  0.0017 -0.0565  0.3119
86993SOL    HW178589   6.812  11.731   1.461  0.1089 -0.0086  0.7393
86993SOL    HW278590   6.962  11.736   1.444  0.0757 -0.1415  0.3981
86994SOL     OW78591   9.573  14.054   4.763  0.3654 -0.1054  0.4146
86994SOL    HW178592   9.642  14.119   4.753  0.3487 -0.3344 -1.5357
86994SOL    HW278593   9.491  14.103   4.752  0.3117 -0.2123  0.3257
86995SOL     OW78594   0.702   4.686   4.668  0.8308  0.1870 -0.2422
86995SOL    HW178595   0.632   4.643   4.619  0.5688 -0.7996  0.9554
86995SOL    HW278596   0.756   4.728   4.600 -0.4416  0.2727 -1.2346
86996SOL     OW78597   2.645   4.228   9.319 -0.0258 -0.0787 -0.2223
86996SOL    HW178598   2.573   4.168   9.299  1.3438 -0.8895 -3.2521
86996SOL    HW278599   2.706   4.219   9.246  1.6450  2.9630  0.5991
86997SOL     OW78600  10.112   5.192  11.090 -0.1700 -0.2973  0.1208
86997SOL    HW178601  10.190   5.246  11.079 -0.8248  0.1917 -3.1784
86997SOL    HW278602  10.145   5.103  11.097  0.7467  0.0536  0.3405
86998SOL     OW78603   8.935  13.987  12.837  0.6314  0.1355 -0.3400
86998SOL    HW178604   8.864  14.021  12.892  2.5827  2.4304  0.9287
86998SOL    HW278605   8.964  13.908  12.882  0.7164  0.7441  0.7128
86999SOL     OW78606   3.079  10.599   7.323  0.6384 -0.0745 -0.9209
86999SOL    HW178607   3.126  10.652   7.259  0.6689  0.5310 -0.4106
86999SOL    HW278608   2.992  10.640   7.328  1.5610  1.8336  1.6431
87000SOL     OW78609  10.322   4.679   6.467 -0.0833 -0.4927  0.0940
87000SOL    HW178610  10.249   4.617   6.467 -0.7529  0.2752  0.6835
87000SOL    HW278611  10.343   4.691   6.375 -1.5925  0.2836 -0.1859
87001SOL     OW78612   1.409   6.052   6.298  0.8019  0.1574  0.1966
87001SOL    HW178613   1.503   6.073   6.300  0.2765  2.8982  0.1289
87001SOL    HW278614   1.388   6.025   6.387  1.8494 -1.6771 -0.0702
87002SOL     OW78615   7.756  11.819   6.553 -0.3202  0.4877 -0.5587
87002SOL    HW178616   7.845  11.840   6.581 -0.2729  1.4689 -1.3746
87002SOL    HW278617   7.733  11.741   6.603  1.1632 -0.0522 -0.6651
87003SOL     OW78618  10.572  13.695   2.361 -0.3170  0.0526 -0.2880
87003SOL    HW178619  10.505  13.692   2.293 -0.9632 -1.4383  0.3620
87003SOL    HW278620  10.555  13.618   2.415  1.3039  0.2051  0.5066
87004SOL     OW78621   0.238   3.892   3.773  0.1765 -0.1356  0.0536
87004SOL    HW178622   0.246   3.801   3.743 -1.5697 -1.0628  2.1523
87004SOL    HW278623   0.163   3.927   3.725  0.5368  0.0452 -0.3824
87005SOL     OW78624   4.064   7.009   8.613  0.3360  0.2637  0.2201
87005SOL    HW178625   4.002   7.065   8.660 -1.1292 -0.3629 -0.8779
87005SOL    HW278626   4.036   6.920   8.632 -0.4790 -0.0164 -1.9393
87006SOL     OW78627  13.145  13.549   9.120 -0.4288  0.0946 -0.2644
87006SOL    HW178628  13.123  13.553   9.027 -1.1660 -1.7866 -0.2239
87006SOL    HW278629  13.062  13.528   9.163 -0.3116  1.9139  0.9639
87007SOL     OW78630   5.981   9.648   5.467  0.1543 -0.1572 -0.1625
87007SOL    HW178631   5.932   9.723   5.433  1.0356  0.2444 -0.5586
87007SOL    HW278632   6.000   9.671   5.558  1.7397  0.8042 -0.6982
87008SOL     OW78633   2.626   8.104   7.987  0.5131  0.2963  0.0499
87008SOL    HW178634   2.683   8.142   8.053 -0.7229  3.5239 -0.5699
87008SOL    HW278635   2.539   8.139   8.008 -0.3619 -0.6096 -1.8462
87009SOL     OW78636   8.744   2.457  10.357 -0.0889 -1.3022  0.6461
87009SOL    HW178637   8.682   2.433  10.289 -0.0360 -1.6673  0.7238
87009SOL    HW278638   8.694   2.455  10.438 -0.4076  0.1446  0.5071
87010SOL     OW78639   7.035   2.695  10.337  0.5212  0.5055  0.0932
87010SOL    HW178640   7.019   2.633  10.265 -2.2756  1.1909  0.0270
87010SOL    HW278641   7.085   2.644  10.401  1.2535 -0.7571 -1.3998
87011SOL     OW78642   0.386   3.661   8.241 -0.2016 -0.0492 -0.3755
87011SOL    HW178643   0.350   3.577   8.271 -2.9192  1.5058  1.0939
87011SOL    HW278644   0.471   3.667   8.286 -0.0790 -1.8515 -0.2821
87012SOL     OW78645  11.800  11.773  13.262  0.2244  0.5958  0.8148
87012SOL    HW178646  11.762  11.804  13.180  1.5655  1.8366  0.6329
87012SOL    HW278647  11.752  11.692  13.281 -0.2616  0.3858 -1.0752
87013SOL     OW78648   9.436   5.396   4.854  0.6369  0.7270 -0.4532
87013SOL    HW178649   9.343   5.379   4.871  0.6585 -0.1847 -1.1189
87013SOL    HW278650   9.482   5.334   4.910  0.7810 -0.0993 -1.4525
87014SOL     OW78651   0.175   8.721  13.801  0.4310 -0.0534  0.6317
87014SOL    HW178652   0.095   8.673  13.780 -0.7895  1.6638  1.1256
87014SOL    HW278653   0.200   8.691  13.888  0.3270 -0.5991  0.4729
87015SOL     OW78654   3.072   7.191   1.909  0.0334  0.1863  0.3728
87015SOL    HW178655   3.133   7.120   1.894 -0.9132 -0.2053 -2.2143
87015SOL    HW278656   3.089   7.252   1.837 -2.0675  0.4094  0.0040
87016SOL     OW78657   9.756   7.311   5.576 -0.4373  0.3483 -0.5837
87016SOL    HW178658   9.833   7.366   5.560 -0.3778  0.1366 -1.0369
87016SOL    HW278659   9.692   7.339   5.511 -0.2314 -0.4453 -1.1463
87017SOL     OW78660   0.265  11.610   8.734  0.1816 -0.6760 -0.0527
87017SOL    HW178661   0.186  11.660   8.752  1.8582  1.7230  1.2218
87017SOL    HW278662   0.273  11.610   8.639 -0.6797  0.1482 -0.1368
87018SOL     OW78663   4.330   3.244   4.097 -0.2902 -0.0255 -0.6744
87018SOL    HW178664   4.390   3.179   4.060 -0.4580 -0.7911  0.3162
87018SOL    HW278665   4.292   3.288   4.022 -0.4909 -1.3912 -1.4152
87019SOL     OW78666  12.213   7.141   9.906 -0.3181  0.2133  0.6272
87019SOL    HW178667  12.242   7.059   9.946  2.0757  1.3639  1.4327
87019SOL    HW278668  12.293   7.194   9.899 -1.8823  2.7488  0.7870
87020SOL     OW78669   1.735   7.777   4.591  0.3084  0.4385  0.0074
87020SOL    HW178670   1.814   7.779   4.537  0.6441  1.2360  0.5082
87020SOL    HW278671   1.768   7.777   4.681 -0.2609  1.3639  0.2272
87021SOL     OW78672  12.041   2.603   3.388 -0.2676  0.4158 -0.1179
87021SOL    HW178673  11.971   2.539   3.393 -0.6914  0.9577  1.2533
87021SOL    HW278674  11.999   2.682   3.352 -0.0685  0.3516 -0.4927
87022SOL     OW78675   3.050   8.160   6.205  0.2007 -0.5285  0.0554
87022SOL    HW178676   3.109   8.206   6.144 -0.2171  1.1805  0.8969
87022SOL    HW278677   3.108   8.106   6.258  1.3546  2.3059  1.9457
87023SOL     OW78678   2.663   6.784  10.436  0.0556  0.5848 -0.1008
87023SOL    HW178679   2.613   6.725  10.492  0.5238 -1.7404 -1.9675
87023SOL    HW278680   2.598   6.848  10.405 -1.1974 -0.7555 -0.3702
87024SOL     OW78681  12.188  12.168   9.756  0.2216 -0.0106 -0.0919
87024SOL    HW178682  12.104  12.182   9.798  1.0049  0.9794  1.2205
87024SOL    HW278683  12.188  12.226   9.680 -0.6778 -0.8156 -0.7262
87025SOL     OW78684  11.382   6.050   6.830  0.1472 -0.1485 -0.7435
87025SOL    HW178685  11.414   6.079   6.915 -0.7074 -1.1962 -0.0410
87025SOL    HW278686  11.287   6.057   6.837  0.0978  0.7870 -2.0082
87026SOL     OW78687   4.325   6.847  12.712  0.3467 -0.0980 -0.0260
87026SOL    HW178688   4.338   6.915  12.778  0.4898  2.2979 -2.3302
87026SOL    HW278689   4.361   6.768  12.751  1.3364  1.4172  2.3484
87027SOL     OW78690   7.066   1.838   9.039  0.3445  0.8369 -0.3284
87027SOL    HW178691   7.024   1.821   8.955  0.0364  0.1938 -0.0519
87027SOL    HW278692   7.159   1.818   9.024  0.2956  0.7500 -0.5218
87028SOL     OW78693   2.571   8.746   2.063 -0.0665  0.6457  0.1175
87028SOL    HW178694   2.525   8.787   1.991  1.2532  0.2937 -0.9700
87028SOL    HW278695   2.662   8.739   2.033  0.0780 -1.6647  0.8354
87029SOL     OW78696   2.291   2.301  13.504  0.1186 -0.9792  0.3605
87029SOL    HW178697   2.230   2.253  13.560  0.5138  0.5138  2.1476
87029SOL    HW278698   2.239   2.325  13.427 -0.9704 -1.4477  0.9329
87030SOL     OW78699   3.218  14.064   3.025  0.0787 -0.2309  0.1113
87030SOL    HW178700   3.240  13.990   2.968 -1.0065 -0.2977 -0.2504
87030SOL    HW278701   3.158  14.026   3.090  2.2157 -0.4512  2.1006
87031SOL     OW78702  13.123  12.951  13.007  0.3345 -0.3874 -0.4232
87031SOL    HW178703  13.098  12.880  12.947 -1.6455 -0.0925 -0.0149
87031SOL    HW278704  13.104  13.031  12.958 -2.4751 -0.1084  0.8936
87032SOL     OW78705   1.168   4.095   8.424 -0.3004 -0.2908 -0.5698
87032SOL    HW178706   1.150   4.012   8.381 -3.0880  0.0712 -0.2535
87032SOL    HW278707   1.087   4.118   8.468  1.1993  1.3493  1.5559
87033SOL     OW78708  11.454   9.306  10.047  0.1496  0.1246 -0.1728
87033SOL    HW178709  11.483   9.349   9.967  2.4397  0.0767  0.5569
87033SOL    HW278710  11.408   9.228  10.017  0.5223  0.3746 -1.4491
87034SOL     OW78711   4.150   4.857   4.590 -0.4909  0.3591  0.7776
87034SOL    HW178712   4.168   4.771   4.628  0.3691  0.3117  0.2897
87034SOL    HW278713   4.062   4.848   4.552 -1.4966  0.4809  2.8854
87035SOL     OW78714   5.269   6.068  11.179 -0.2798  0.0433  0.0461
87035SOL    HW178715   5.193   6.011  11.165 -0.5343  0.4109 -0.0656
87035SOL    HW278716   5.232   6.155  11.194  0.1288  0.2594 -0.1931
87036SOL     OW78717   0.596   0.523  12.441 -0.4777  0.0349 -0.0586
87036SOL    HW178718   0.540   0.587  12.486  0.7096 -0.4743  2.3130
87036SOL    HW278719   0.549   0.440  12.451  0.1880 -0.2292  1.1043
87037SOL     OW78720  10.912  11.405   0.823 -0.0144  0.4501  0.3138
87037SOL    HW178721  10.967  11.450   0.759 -0.0751 -1.1942 -0.9546
87037SOL    HW278722  10.954  11.423   0.907  1.5580  0.5345 -0.4606
87038SOL     OW78723  13.183  13.608   4.296 -0.0371  0.1244 -0.2605
87038SOL    HW178724  13.273  13.621   4.325  0.1663  0.6738 -1.1083
87038SOL    HW278725  13.171  13.670   4.225 -1.1870  0.2637  0.0272
87039SOL     OW78726  10.247  12.143   3.895 -0.1583 -0.5759 -0.2191
87039SOL    HW178727  10.257  12.223   3.842 -2.2422  1.4362  2.2029
87039SOL    HW278728  10.312  12.153   3.965  0.6966 -1.8759 -0.7892
87040SOL     OW78729   3.531   4.552   7.089 -0.3505 -0.2863  0.2308
87040SOL    HW178730   3.609   4.572   7.141 -1.9715  1.7421  2.1095
87040SOL    HW278731   3.493   4.476   7.131 -0.7692  0.3455  1.0266
87041SOL     OW78732   9.066   2.355   4.045  0.0890  0.3283  0.3984
87041SOL    HW178733   9.132   2.414   4.080  0.5018 -0.0103  0.1998
87041SOL    HW278734   8.985   2.381   4.089  0.1602  1.3754 -0.0645
87042SOL     OW78735  13.977   8.943   2.562  0.0809 -0.2478  0.1376
87042SOL    HW178736  13.984   9.033   2.596 -0.2224 -0.1525 -0.0441
87042SOL    HW278737  13.895   8.910   2.598 -1.1776  0.4818 -1.8966
87043SOL     OW78738   3.223  11.978   9.196  0.4586  0.3701 -0.0569
87043SOL    HW178739   3.131  11.989   9.171  0.1593 -2.3295 -0.4530
87043SOL    HW278740   3.266  11.945   9.118  1.2948 -0.4245  0.7057
87044SOL     OW78741  13.410   4.684   0.978  0.2220 -0.4052  0.2713
87044SOL    HW178742  13.497   4.650   0.959  0.7107  0.9524 -0.0764
87044SOL    HW278743  13.394   4.749   0.909 -1.3998 -1.1684 -0.1322
87045SOL     OW78744   6.177   4.686   0.265 -0.0878  0.1702 -0.3358
87045SOL    HW178745   6.141   4.770   0.237 -1.4453 -0.8507 -1.8887
87045SOL    HW278746   6.271   4.693   0.247 -0.3174  1.0647 -1.2812
87046SOL     OW78747   4.219   0.037   5.145  0.4034 -0.5242 -0.8652
87046SOL    HW178748   4.288  -0.030   5.141 -0.1797 -1.1490 -0.4801
87046SOL    HW278749   4.251   0.106   5.086  0.9091 -1.2275 -1.4384
87047SOL     OW78750  12.343   1.357   5.812  0.3869  0.9294 -0.1223
87047SOL    HW178751  12.343   1.434   5.869  2.9189 -0.3026  1.7448
87047SOL    HW278752  12.394   1.384   5.735  1.8755  0.9993  0.8422
87048SOL     OW78753   8.222   3.440   1.902  0.1161 -0.3272  0.5620
87048SOL    HW178754   8.284   3.494   1.854  0.8978 -1.4475  0.2729
87048SOL    HW278755   8.276   3.373   1.945 -0.9321 -1.8585 -0.3878
87049SOL     OW78756   9.560   4.030   3.935  0.4208  0.0321 -0.3832
87049SOL    HW178757   9.513   4.113   3.940  0.1097 -0.0704 -1.3888
87049SOL    HW278758   9.507   3.975   3.878  0.6138 -0.8794  0.2823
87050SOL     OW78759  14.064   1.611  11.446 -0.6470 -0.3550 -0.0765
87050SOL    HW178760  14.157   1.597  11.423 -0.9381 -1.5803 -0.6344
87050SOL    HW278761  14.065   1.683  11.508  0.7421 -0.6520  0.2864
87051SOL     OW78762   0.545  11.038   1.754  0.1173  0.3513  0.1642
87051SOL    HW178763   0.600  10.989   1.815 -0.3795  0.3644  0.6294
87051SOL    HW278764   0.606  11.091   1.703  0.5837 -0.0848  0.2608
87052SOL     OW78765  13.473   9.322   6.505 -0.0825  0.1924  0.5546
87052SOL    HW178766  13.381   9.314   6.480  0.5270 -0.1871 -1.7933
87052SOL    HW278767  13.514   9.372   6.435  1.6358 -0.1588  1.2333
87053SOL     OW78768   2.042   6.763   3.281  0.0218 -0.0733  0.0510
87053SOL    HW178769   2.117   6.817   3.256  0.2656 -0.8765 -1.0210
87053SOL    HW278770   1.979   6.825   3.319  1.8202  0.4029  2.5031
87054SOL     OW78771   4.301  11.362   6.947 -0.3006  0.4250 -0.0281
87054SOL    HW178772   4.294  11.429   7.015  1.2654 -0.0513  0.6353
87054SOL    HW278773   4.243  11.292   6.976  0.6398  0.0622  1.0381
87055SOL     OW78774   4.990  11.231  12.338  0.4688  0.1955 -0.6112
87055SOL    HW178775   4.984  11.240  12.242  0.0293  2.1657 -0.4436
87055SOL    HW278776   4.904  11.198  12.364  0.7493 -0.8132 -0.9207
87056SOL     OW78777   6.340  10.018   6.246  0.2252  0.0501 -0.1420
87056SOL    HW178778   6.435  10.008   6.240  0.3891 -0.0683  1.9210
87056SOL    HW278779   6.328  10.106   6.282 -0.3094 -0.6881  1.5985
87057SOL     OW78780   9.659  10.205   2.433 -0.3170 -0.5374  0.7321
87057SOL    HW178781   9.676  10.214   2.527 -0.3938  0.2635  0.6741
87057SOL    HW278782   9.623  10.289   2.407 -0.4738 -0.8215  0.0171
87058SOL     OW78783  12.832   8.983  12.711 -0.2818  0.0728 -0.8786
87058SOL    HW178784  12.868   9.012  12.627  0.4430  1.4976 -0.1125
87058SOL    HW278785  12.754   9.037  12.724  0.0219  0.3864 -0.3075
87059SOL     OW78786   5.890   6.931   0.689  0.0695 -0.1060  0.1166
87059SOL    HW178787   5.958   6.901   0.749  1.1509  1.1896 -0.4060
87059SOL    HW278788   5.852   6.851   0.654  1.2103 -0.8641  0.5612
87060SOL     OW78789  13.223  10.322  13.220 -0.3784  0.0841 -0.1453
87060SOL    HW178790  13.222  10.374  13.301  0.5422  0.5854 -0.4512
87060SOL    HW278791  13.227  10.231  13.250  2.0593  0.3090  0.4071
87061SOL     OW78792   6.023   4.425   7.932 -0.5834 -0.2879 -0.3587
87061SOL    HW178793   6.103   4.470   7.905 -0.0836 -0.8053  0.2351
87061SOL    HW278794   6.022   4.345   7.881 -1.0704  0.0270 -0.8485
87062SOL     OW78795  12.271   3.644   6.332 -0.0538 -0.1003  0.1652
87062SOL    HW178796  12.238   3.556   6.350 -0.7327  0.2666  0.7874
87062SOL    HW278797  12.221   3.700   6.392  2.2696  0.3828  1.8075
87063SOL     OW78798   6.750   9.764   3.955 -0.3353 -0.1678 -0.1844
87063SOL    HW178799   6.660   9.783   3.983 -0.7976  0.9012 -2.2444
87063SOL    HW278800   6.740   9.719   3.871  1.0586 -0.2061 -0.3487
87064SOL     OW78801  13.749  11.847  12.528 -0.4591  0.1133 -0.2865
87064SOL    HW178802  13.782  11.888  12.608 -0.0147 -0.2128 -0.3028
87064SOL    HW278803  13.799  11.766  12.520 -1.6497 -0.6696 -0.0154
87065SOL     OW78804  13.883   0.093   7.885 -0.7129 -0.6855  0.1207
87065SOL    HW178805  13.836   0.176   7.880  1.8333  0.8358 -0.5723
87065SOL    HW278806  13.912   0.076   7.796 -0.6805 -2.0191  0.3638
87066SOL     OW78807   8.778  11.507   0.204  0.3463  0.0555 -0.1949
87066SOL    HW178808   8.754  11.430   0.256 -0.7067  1.3525  1.3551
87066SOL    HW278809   8.697  11.536   0.164  0.1515  1.7476  1.2630
87067SOL     OW78810   3.746   5.581  12.947  0.2178 -0.7552  0.3813
87067SOL    HW178811   3.670   5.629  12.915  0.2455 -0.5563  0.6148
87067SOL    HW278812   3.820   5.639  12.928  0.1001 -0.0144  2.0586
87068SOL     OW78813   5.925  11.282   2.057  0.1665 -0.6980 -0.0594
87068SOL    HW178814   5.950  11.222   2.126  0.0214 -0.1233  0.5058
87068SOL    HW278815   5.945  11.236   1.976  4.0498  0.0444  0.2794
87069SOL     OW78816  13.134   3.174   3.143 -0.3167 -0.6019  0.2963
87069SOL    HW178817  13.073   3.101   3.159 -0.4973 -0.3988  0.5429
87069SOL    HW278818  13.133   3.186   3.048 -1.1345 -0.2019  0.3440
87070SOL     OW78819   0.528  13.614   1.772  0.7764  0.1193  0.2016
87070SOL    HW178820   0.575  13.569   1.702  0.1818  1.2823 -1.0079
87070SOL    HW278821   0.595  13.636   1.836  1.6780  0.6001 -0.8673
87071SOL     OW78822  12.099   9.127   7.967  0.3228 -0.0298  0.5969
87071SOL    HW178823  12.018   9.085   7.939  0.1772  1.0069 -0.6016
87071SOL    HW278824  12.110   9.201   7.908  0.8479  1.3202  2.2894
87072SOL     OW78825   3.742   1.439   1.178 -0.1636  0.0870  1.0258
87072SOL    HW178826   3.769   1.388   1.254 -0.1276 -0.5264  0.6042
87072SOL    HW278827   3.824   1.463   1.135 -0.1808  0.4918  1.2107
87073SOL     OW78828   1.307   9.095   0.916 -0.0929 -0.6910 -0.4044
87073SOL    HW178829   1.289   9.158   0.986  0.4031 -1.1174  0.1195
87073SOL    HW278830   1.403   9.097   0.907 -0.0704 -1.4120 -0.3413
87074SOL     OW78831  13.196   5.525  13.569  0.3043 -0.6474  0.2418
87074SOL    HW178832  13.194   5.440  13.612  3.2136 -0.0530  1.8311
87074SOL    HW278833  13.208   5.504  13.476  0.5100 -1.9764  0.5465
87075SOL     OW78834  10.790  11.317  12.213  0.1603  0.1016 -0.0122
87075SOL    HW178835  10.771  11.234  12.257 -0.2800 -0.1970 -0.7528
87075SOL    HW278836  10.866  11.298  12.157 -0.1685  0.0971 -0.4597
87076SOL     OW78837   1.504   4.784  10.070 -0.2488  0.4940 -0.0398
87076SOL    HW178838   1.436   4.851  10.061 -1.0891 -0.0522  1.6852
87076SOL    HW278839   1.555   4.812  10.146 -0.8512 -0.9853  0.9452
87077SOL     OW78840   8.407   9.434   5.873 -0.2541  0.0790  0.2972
87077SOL    HW178841   8.356   9.407   5.797 -0.2811 -3.6236  1.4028
87077SOL    HW278842   8.349   9.494   5.921 -0.1543  2.6415 -2.5276
87078SOL     OW78843   6.273   1.967   1.011 -0.0776 -0.6510  0.0903
87078SOL    HW178844   6.289   2.060   1.030  1.2005 -1.1211  1.6026
87078SOL    HW278845   6.188   1.965   0.969 -1.4188  0.9779  2.4764
87079SOL     OW78846   3.880   3.364   4.699 -0.3972  0.0317 -0.0519
87079SOL    HW178847   3.972   3.390   4.703 -0.9557  2.1049  3.3169
87079SOL    HW278848   3.880   3.271   4.720  0.9026  0.0705  0.1598
87080SOL     OW78849   9.985   5.505   1.267 -0.0376  0.6188  0.3347
87080SOL    HW178850   9.987   5.476   1.176 -0.9640 -0.5806  0.6607
87080SOL    HW278851   9.947   5.592   1.265 -0.3776  0.4554 -0.3999
87081SOL     OW78852  11.140  12.751  12.991  0.0021 -0.1503  0.5677
87081SOL    HW178853  11.180  12.792  12.914  0.6225 -2.0854 -0.2196
87081SOL    HW278854  11.197  12.774  13.063  0.0500  0.7508  0.2560
87082SOL     OW78855  10.001   4.961  10.903  0.4962 -0.0380  0.0709
87082SOL    HW178856  10.083   4.944  10.948  0.8424  1.3377 -0.0266
87082SOL    HW278857   9.947   4.884  10.924  2.0759 -1.3907 -0.5784
87083SOL     OW78858   5.134  12.266   1.992  0.1607 -0.2647 -0.1254
87083SOL    HW178859   5.125  12.180   1.951  1.6262  0.0433 -1.1703
87083SOL    HW278860   5.211  12.258   2.048  0.2198  0.3315 -0.1147
87084SOL     OW78861   0.936   4.570  12.158  0.4703  0.3522  0.7871
87084SOL    HW178862   0.998   4.542  12.226  0.3555 -0.4806  0.5566
87084SOL    HW278863   0.898   4.489  12.125  2.2809  0.5243 -1.9688
87085SOL     OW78864   8.907   7.025   3.296  0.2631  0.3622  0.3946
87085SOL    HW178865   8.816   6.996   3.300  0.0165  1.2515  1.8972
87085SOL    HW278866   8.909   7.085   3.222 -0.1741 -0.2724 -0.1463
87086SOL     OW78867  10.491  10.279   1.483  0.4299  0.6689 -0.1817
87086SOL    HW178868  10.397  10.262   1.488  0.6158 -0.1003  3.0819
87086SOL    HW278869  10.502  10.363   1.529  1.4237  0.3018  0.2664
87087SOL     OW78870   7.239  13.052   7.805 -0.2709  0.4640 -0.0057
87087SOL    HW178871   7.252  12.999   7.884  2.3827  0.6383 -0.2171
87087SOL    HW278872   7.318  13.105   7.798 -1.4947  2.2325 -1.4989
87088SOL     OW78873   2.676  11.708   6.705 -0.0142 -0.5494  0.2624
87088SOL    HW178874   2.745  11.688   6.641  1.0365 -2.0139  1.7552
87088SOL    HW278875   2.596  11.673   6.667  0.6262 -1.5299 -0.2132
87089SOL     OW78876   3.195   1.834  11.635  0.2464  0.6270 -0.1795
87089SOL    HW178877   3.235   1.748  11.649 -0.0116  0.6735  0.9327
87089SOL    HW278878   3.190   1.843  11.540 -0.4665 -0.9451 -0.3307
87090SOL     OW78879   8.862   9.587   7.792 -0.3530  0.4785  0.3780
87090SOL    HW178880   8.942   9.625   7.827 -0.1464  0.0280  0.4028
87090SOL    HW278881   8.816   9.555   7.869 -0.7008  0.9959  0.3935
87091SOL     OW78882  12.834   5.486   0.646  0.6667  0.3712  0.2632
87091SOL    HW178883  12.761   5.526   0.598 -0.9209 -3.3433 -0.7887
87091SOL    HW278884  12.796   5.456   0.728  1.8740  1.2194  1.1679
87092SOL     OW78885   3.515   7.520  10.907  0.0652  0.3669 -0.0821
87092SOL    HW178886   3.589   7.460  10.918 -0.3164  0.0643  0.9217
87092SOL    HW278887   3.528   7.557  10.820  2.5497  1.8368  0.7894
87093SOL     OW78888   2.003  11.760   4.117  0.1271  0.4865  0.7095
87093SOL    HW178889   2.063  11.780   4.188  0.9060  0.2300  0.1385
87093SOL    HW278890   2.005  11.837   4.061  2.0476 -0.5158 -0.7438
87094SOL     OW78891   8.310  10.509   1.844 -0.5379 -0.0414 -0.3754
87094SOL    HW178892   8.345  10.574   1.784 -2.0174  1.0066 -0.1621
87094SOL    HW278893   8.387  10.462   1.877  0.5864  1.7261 -0.3770
87095SOL     OW78894   9.796  10.096   2.218 -0.1038 -0.1499 -0.4860
87095SOL    HW178895   9.752  10.136   2.144  0.0979  0.5925 -0.2063
87095SOL    HW278896   9.751  10.131   2.295 -1.0209 -1.7317 -0.2576
87096SOL     OW78897   8.341   8.226   4.753  0.5178 -0.2544  0.2730
87096SOL    HW178898   8.405   8.280   4.800 -0.9713  0.4427  1.5745
87096SOL    HW278899   8.323   8.274   4.672 -0.3701  0.9574  1.1612
87097SOL     OW78900  12.859   0.551   3.123  0.0942 -0.6298  0.1079
87097SOL    HW178901  12.883   0.484   3.059 -0.7807 -2.3187  1.4557
87097SOL    HW278902  12.864   0.506   3.207 -0.3913  1.0655  1.0799
87098SOL     OW78903   8.751   3.609   4.136  0.3406  0.1505 -0.2783
87098SOL    HW178904   8.733   3.627   4.044 -1.5785  0.0583  0.0337
87098SOL    HW278905   8.742   3.514   4.143 -1.6604  0.3467  0.3726
87099SOL     OW78906   5.151  10.073   2.763 -0.0188 -0.1578 -0.1848
87099SOL    HW178907   5.243  10.060   2.740  0.6149  1.5741  1.1629
87099SOL    HW278908   5.129  10.000   2.821  0.9322  0.1769  0.6069
87100SOL     OW78909   7.488   5.880   5.202 -0.5174 -0.5284  0.3554
87100SOL    HW178910   7.569   5.931   5.193 -0.5869 -0.2487  1.2068
87100SOL    HW278911   7.518   5.790   5.208 -0.4855 -0.8762 -3.0481
87101SOL     OW78912   2.774  10.755   1.389 -0.1263  0.4940 -0.3418
87101SOL    HW178913   2.722  10.707   1.454 -2.1324  0.5502 -1.7982
87101SOL    HW278914   2.863  10.721   1.400 -0.7748 -0.9132  1.0958
87102SOL     OW78915   5.010   4.293   6.243 -0.8891 -0.0912  0.0502
87102SOL    HW178916   4.981   4.291   6.334 -2.8372 -1.6134 -0.5328
87102SOL    HW278917   5.008   4.202   6.215 -0.3500  0.3480 -1.5360
87103SOL     OW78918   7.764   4.074  11.699 -0.7849  0.4240  0.4217
87103SOL    HW178919   7.812   4.119  11.768 -0.8339 -0.0263  0.7519
87103SOL    HW278920   7.763   3.982  11.726  1.8904 -0.3737 -1.6472
87104SOL     OW78921  12.148   6.823  10.522  0.1322  0.2349  0.2987
87104SOL    HW178922  12.119   6.743  10.566  0.3586 -0.5905 -1.0028
87104SOL    HW278923  12.086   6.890  10.551 -0.1260 -0.4309  1.3257
87105SOL     OW78924   9.027  10.509   2.084 -0.1519  0.0552  0.4586
87105SOL    HW178925   9.034  10.414   2.073 -0.3830  0.1683 -0.8046
87105SOL    HW278926   8.939  10.530   2.053  0.0424  0.7281  0.3517
87106SOL     OW78927   3.269   1.889  11.150  0.2202  0.0839 -0.1519
87106SOL    HW178928   3.239   1.908  11.062 -0.1353 -1.0760 -0.3073
87106SOL    HW278929   3.362   1.867  11.140 -0.1824 -1.6104 -0.5128
87107SOL     OW78930  11.396   8.895   5.752 -0.0116  0.2337  0.5183
87107SOL    HW178931  11.321   8.952   5.738 -0.7537  0.3774  4.0090
87107SOL    HW278932  11.398   8.881   5.847  2.2857 -2.6652  0.2003
87108SOL     OW78933  11.806   8.033   2.034  0.7262  0.0717  0.2538
87108SOL    HW178934  11.822   7.965   1.969 -0.8262 -1.1271  1.0605
87108SOL    HW278935  11.887   8.038   2.084  0.6427 -1.7045  0.6107
87109SOL     OW78936  11.057  12.565   8.360 -0.7822  0.1993 -0.1050
87109SOL    HW178937  11.008  12.643   8.385 -3.1799 -1.2147 -0.0252
87109SOL    HW278938  11.024  12.544   8.272  2.3460  1.1247 -1.6580
87110SOL     OW78939   2.989   7.693   7.901  0.2579  0.2864  0.2267
87110SOL    HW178940   3.038   7.697   7.818 -1.7700 -2.6279 -1.2934
87110SOL    HW278941   2.933   7.771   7.900  0.9385  0.7803 -0.6669
87111SOL     OW78942  12.401  13.931   9.454  0.3834 -0.1126 -0.1131
87111SOL    HW178943  12.361  13.867   9.395  0.9270  0.0286 -0.6375
87111SOL    HW278944  12.462  13.880   9.507 -0.2121 -0.2649  0.4417
87112SOL     OW78945   1.398   5.467   2.864 -0.2665  0.4430  0.2078
87112SOL    HW178946   1.437   5.468   2.951  0.1254 -1.2203  0.0685
87112SOL    HW278947   1.316   5.517   2.874  0.2072  1.0273  1.2924
87113SOL     OW78948   8.987  10.378   4.464 -0.0977 -0.3174  0.0985
87113SOL    HW178949   9.034  10.306   4.421 -1.4882 -1.1516 -0.0788
87113SOL    HW278950   8.925  10.334   4.522 -1.4647  0.7101 -0.5319
87114SOL     OW78951   3.876   8.634   0.919  0.1360 -0.2637  0.2185
87114SOL    HW178952   3.838   8.575   0.985  0.5083 -0.2775  0.4214
87114SOL    HW278953   3.870   8.584   0.838 -1.9384  0.4182 -0.1139
87115SOL     OW78954  10.215   8.120  13.786 -0.7429 -0.4945 -0.7313
87115SOL    HW178955  10.165   8.039  13.797  0.9956 -1.6815 -1.0245
87115SOL    HW278956  10.285   8.114  13.851  1.0720 -0.6382 -2.5712
87116SOL     OW78957   4.006   4.358   3.288 -0.6892 -0.8431  0.6603
87116SOL    HW178958   4.060   4.427   3.251 -0.3540 -2.0030 -1.1709
87116SOL    HW278959   3.961   4.399   3.362 -0.7458  1.4147 -0.5259
87117SOL     OW78960   0.210  10.299   2.369  0.2314  0.2584  0.3044
87117SOL    HW178961   0.270  10.373   2.380 -0.6062  0.7420  1.9794
87117SOL    HW278962   0.259  10.236   2.317  1.2228  1.6995 -0.5633
87118SOL     OW78963  13.932   3.843   9.972  0.8042  0.0792  0.0606
87118SOL    HW178964  13.977   3.921   9.939  1.1506  0.6989  1.8957
87118SOL    HW278965  13.879   3.875  10.045 -2.1107 -0.7628 -1.5205
87119SOL     OW78966   8.459   3.079   8.865  0.3829  0.0779  0.0664
87119SOL    HW178967   8.457   3.017   8.792  0.1918  0.4882 -0.2773
87119SOL    HW278968   8.550   3.077   8.895  0.2428 -0.8490  0.4773
87120SOL     OW78969  11.163   2.339  11.997 -0.3815  0.2814 -0.1115
87120SOL    HW178970  11.176   2.430  12.025  1.5489 -0.1623  0.5941
87120SOL    HW278971  11.228   2.290  12.046 -0.5273 -1.3146 -1.4436
87121SOL     OW78972  13.083   7.345   2.339 -0.3756 -0.3582 -0.3925
87121SOL    HW178973  12.995   7.343   2.377  0.6166 -2.1305  2.0818
87121SOL    HW278974  13.102   7.254   2.318  0.4484  0.1710 -2.1091
87122SOL     OW78975   3.311  13.828   0.357 -0.0605  0.5812 -0.1655
87122SOL    HW178976   3.326  13.874   0.440 -2.1633  1.1842 -0.0573
87122SOL    HW278977   3.362  13.877   0.293  0.7688  0.7296  0.5952
87123SOL     OW78978   8.701   3.565   6.694  0.4476 -0.2540  0.5107
87123SOL    HW178979   8.618   3.545   6.652  0.4867  0.4431  0.0836
87123SOL    HW278980   8.720   3.488   6.748  0.2383 -1.0336 -0.4959
87124SOL     OW78981   2.560   3.017   7.648 -0.0922 -0.3830  0.3121
87124SOL    HW178982   2.593   3.079   7.582  0.5568 -1.0446 -0.0100
87124SOL    HW278983   2.559   3.066   7.730  1.8196 -0.3425  0.3513
87125SOL     OW78984   4.773  11.458   4.299  0.7859  0.0451  0.1106
87125SOL    HW178985   4.761  11.504   4.215 -0.0242  0.0002  0.1902
87125SOL    HW278986   4.848  11.401   4.284  1.1215  0.5882 -0.3448
87126SOL     OW78987   5.299   6.919   2.512 -0.5145  0.1154  0.0576
87126SOL    HW178988   5.355   6.954   2.581 -1.5657  1.7119  0.1691
87126SOL    HW278989   5.216   6.966   2.522 -1.6450 -1.6574 -0.5446
87127SOL     OW78990  13.211  10.563   5.845  0.5208 -0.1509 -0.0415
87127SOL    HW178991  13.200  10.575   5.940  2.0199 -0.9031  0.2582
87127SOL    HW278992  13.224  10.652   5.812 -3.3511  0.5879 -0.1315
87128SOL     OW78993   5.766   3.402   6.366  0.0018  0.2058  0.2019
87128SOL    HW178994   5.750   3.412   6.273  0.7710  0.2555  0.0720
87128SOL    HW278995   5.726   3.318   6.389 -1.8364  1.0441  0.2218
87129SOL     OW78996  10.087   1.909   3.736 -0.6885  0.4462 -0.5896
87129SOL    HW178997  10.137   1.990   3.750  1.0383 -0.4606 -1.2486
87129SOL    HW278998  10.123   1.848   3.800  0.4458 -0.7894 -2.3252
87130SOL     OW78999   3.207  12.188   7.777  0.2280  0.5807  0.1788
87130SOL    HW179000   3.205  12.242   7.698  0.1588  0.7800  0.3157
87130SOL    HW279001   3.115  12.168   7.793  0.0957  1.7404  1.0219
87131SOL     OW79002   3.740   5.203   2.400 -0.3080  0.3207  0.3116
87131SOL    HW179003   3.800   5.138   2.437  1.1932  0.6396 -1.4458
87131SOL    HW279004   3.771   5.217   2.311 -0.7917  3.1624  0.4807
87132SOL     OW79005   0.954   9.602   9.865  0.1877 -0.6328 -0.2304
87132SOL    HW179006   0.974   9.662   9.794  0.7403 -2.2334 -1.4898
87132SOL    HW279007   0.987   9.645   9.944  2.6739 -0.2791 -1.3901
87133SOL     OW79008  14.022   9.544   0.656  0.3711  0.5312 -0.3163
87133SOL    HW179009  13.961   9.472   0.641  0.8352  0.3354 -1.3486
87133SOL    HW279010  13.969   9.613   0.696  0.1619 -0.8119  1.9160
87134SOL     OW79011   2.213   8.090   2.498  0.4821  0.2880 -0.1977
87134SOL    HW179012   2.238   8.104   2.590 -0.1047 -0.2436  0.0573
87134SOL    HW279013   2.283   8.129   2.447 -0.2318  2.5753  0.4574
87135SOL     OW79014   2.678   9.686   8.108  0.5863  0.6969 -0.3824
87135SOL    HW179015   2.688   9.642   8.024  0.6854  0.1450 -0.0832
87135SOL    HW279016   2.736   9.639   8.168 -0.0268  0.6292  0.1699
87136SOL     OW79017   4.001  12.451   1.184 -0.5262  0.5070  0.1690
87136SOL    HW179018   3.917  12.409   1.164 -1.0812  1.3475  0.6474
87136SOL    HW279019   4.067  12.388   1.156 -1.3270 -1.4753  2.4253
87137SOL     OW79020   6.447   5.175  11.598 -0.3882 -0.0121  0.8848
87137SOL    HW179021   6.513   5.180  11.666  0.0394  1.6473  0.4067
87137SOL    HW279022   6.365   5.156  11.645  0.2262 -0.9965  1.5926
87138SOL     OW79023  13.025   4.409   0.880 -0.2038 -0.5098 -0.7725
87138SOL    HW179024  12.984   4.462   0.812 -1.8788 -0.2201  0.4110
87138SOL    HW279025  13.118   4.430   0.874 -0.8157  2.8610 -0.1592
87139SOL     OW79026   5.642   3.961   9.123  0.2496  0.0953 -0.7497
87139SOL    HW179027   5.577   4.020   9.162  0.3315  1.7707 -2.9706
87139SOL    HW279028   5.594   3.879   9.110 -0.1114 -0.1462  1.6035
87140SOL     OW79029  11.305   4.037   2.521 -0.3042 -0.1750 -0.0463
87140SOL    HW179030  11.259   4.049   2.438 -0.7971 -0.3630  0.1989
87140SOL    HW279031  11.271   4.107   2.577 -0.0084 -0.0789  0.0126
87141SOL     OW79032  10.210  11.531   5.878  0.4263 -0.1541 -0.0024
87141SOL    HW179033  10.201  11.512   5.785 -1.5598  0.8467 -0.0727
87141SOL    HW279034  10.173  11.453   5.922  0.0143 -0.0166 -0.0985
87142SOL     OW79035   6.825  14.038  12.367  0.0564  0.1082  0.4211
87142SOL    HW179036   6.828  14.119  12.315 -1.1438 -0.4349 -0.5621
87142SOL    HW279037   6.915  14.006  12.367  0.3487  0.8799 -0.1163
87143SOL     OW79038   7.101   3.896   3.518  0.2712 -0.4758  0.0083
87143SOL    HW179039   7.103   3.978   3.566  0.6160  0.2358 -1.1912
87143SOL    HW279040   7.009   3.882   3.497  0.1119 -0.8199  0.8920
87144SOL     OW79041  13.576   4.579   6.128  0.1473  0.0049  0.3787
87144SOL    HW179042  13.570   4.528   6.047 -1.8210 -0.1541  0.5739
87144SOL    HW279043  13.556   4.517   6.197 -0.4320  0.6249  0.7775
87145SOL     OW79044  11.809  13.216   2.690  0.1981 -0.0088  0.2540
87145SOL    HW179045  11.722  13.185   2.715  0.0339  0.5685  0.4164
87145SOL    HW279046  11.855  13.138   2.659 -0.0500 -0.5073  1.1018
87146SOL     OW79047   9.893   6.577   2.349 -0.4915 -0.7061 -0.1771
87146SOL    HW179048   9.827   6.617   2.292 -1.9003 -1.4052  0.9168
87146SOL    HW279049   9.972   6.628   2.332 -1.4974  0.6911 -0.9311
87147SOL     OW79050   0.317  10.041   0.877  0.1897 -0.5286 -0.0521
87147SOL    HW179051   0.409  10.057   0.898  0.5576  1.0906 -2.4605
87147SOL    HW279052   0.305   9.947   0.893  1.7296 -0.4665  1.9427
87148SOL     OW79053   5.613   9.760   5.556  0.4076 -0.4718 -0.0656
87148SOL    HW179054   5.692   9.807   5.531 -0.0031  1.4426  1.9604
87148SOL    HW279055   5.564   9.750   5.475  2.0893 -0.5108 -1.1197
87149SOL     OW79056  12.176   4.911   0.210 -0.8963 -0.1130 -0.1660
87149SOL    HW179057  12.105   4.847   0.215 -0.4661 -0.5874  0.0493
87149SOL    HW279058  12.149   4.982   0.268 -0.9622 -0.5356  0.3346
87150SOL     OW79059  11.063   4.807   1.434  0.1375  0.3114 -0.5076
87150SOL    HW179060  11.082   4.898   1.410  0.9766 -0.4059 -2.9022
87150SOL    HW279061  11.002   4.777   1.367  1.6754 -1.5235 -1.2099
87151SOL     OW79062  12.194   5.284   6.446 -0.4249  0.0408  0.4903
87151SOL    HW179063  12.241   5.362   6.417 -0.7205  0.3709  0.8891
87151SOL    HW279064  12.188   5.230   6.367  0.9679 -0.1931  0.5181
87152SOL     OW79065   8.991   2.111   7.654 -0.3729 -0.4122 -0.6111
87152SOL    HW179066   8.903   2.115   7.615 -0.5972  0.1531 -0.0720
87152SOL    HW279067   9.002   2.019   7.678 -1.2870 -0.3032  0.3244
87153SOL     OW79068   0.542   6.048   8.555  0.3227  0.5115 -0.1875
87153SOL    HW179069   0.464   6.015   8.601  0.3212  0.9729  0.1505
87153SOL    HW279070   0.512   6.127   8.511  0.6853  0.9115  0.2636
87154SOL     OW79071   4.794   3.981   0.845 -0.1577 -0.4545  0.0438
87154SOL    HW179072   4.838   4.042   0.904 -1.2041  0.4471 -0.0698
87154SOL    HW279073   4.865   3.935   0.800  0.6551 -0.8831  1.7017
87155SOL     OW79074   2.479  13.085   3.126 -0.3505 -0.5046  0.5838
87155SOL    HW179075   2.385  13.099   3.117  0.1845  2.2576 -2.1950
87155SOL    HW279076   2.518  13.172   3.125  2.3839 -1.5991 -0.5576
87156SOL     OW79077   1.516   6.265   1.647  0.2393  0.1272 -0.6538
87156SOL    HW179078   1.450   6.296   1.584  0.8430  0.6586 -1.0416
87156SOL    HW279079   1.584   6.332   1.645 -0.3655  0.9036  1.6223
87157SOL     OW79080   4.258   9.192   4.705 -0.1935 -0.9000  0.1011
87157SOL    HW179081   4.339   9.242   4.698 -0.9780  0.3680 -0.1635
87157SOL    HW279082   4.277   9.110   4.658  0.7456 -0.3802 -0.4698
87158SOL     OW79083   9.063   1.348   5.781  0.7911  0.1468 -0.3470
87158SOL    HW179084   9.110   1.292   5.719  2.5529  1.6622 -0.4827
87158SOL    HW279085   9.058   1.433   5.738 -0.7658  0.4268  0.3327
87159SOL     OW79086  11.225   6.407   1.955 -1.0006 -0.0296 -0.2572
87159SOL    HW179087  11.289   6.348   1.994 -1.2410  0.1402  0.4067
87159SOL    HW279088  11.273   6.454   1.888  0.4048  2.2008  2.1290
87160SOL     OW79089   7.715   6.125  13.100 -0.0830 -0.0054  0.7150
87160SOL    HW179090   7.661   6.066  13.152 -1.0075  1.1681  1.1186
87160SOL    HW279091   7.770   6.170  13.164 -0.1915  0.3942  0.5277
87161SOL     OW79092  12.089   0.115   5.970 -0.5843 -0.3206 -0.0488
87161SOL    HW179093  12.139   0.034   5.964  0.8243  0.3229  1.9861
87161SOL    HW279094  11.998   0.086   5.979 -0.5688 -1.5314 -2.7868
87162SOL     OW79095   5.054  10.047   1.670  0.2700 -1.2565 -0.2076
87162SOL    HW179096   4.988  10.095   1.620 -0.6332 -2.3627 -0.1252
87162SOL    HW279097   5.006   9.975   1.711  1.4321 -1.7742  0.3048
87163SOL     OW79098   9.334  10.587   6.315  0.2078  0.4206 -0.2531
87163SOL    HW179099   9.352  10.565   6.407  0.1832  2.9191  0.4128
87163SOL    HW279100   9.406  10.644   6.289 -0.1213  0.2478 -1.6167
87164SOL     OW79101  10.234   1.228   9.628  0.2511 -0.4441  0.1267
87164SOL    HW179102  10.325   1.255   9.612 -0.1306  2.0156  1.5951
87164SOL    HW279103  10.193   1.228   9.542  0.5135  3.2174 -0.1492
87165SOL     OW79104   6.557   9.472  11.972 -0.2867 -0.3748 -0.0597
87165SOL    HW179105   6.553   9.420  11.892  0.5344 -2.6773  1.2788
87165SOL    HW279106   6.466   9.484  11.998 -0.5319 -0.1056 -1.0383
87166SOL     OW79107   6.422  13.366   7.673  0.3149  0.5437 -0.2670
87166SOL    HW179108   6.424  13.461   7.658 -0.3206  0.4535 -1.0215
87166SOL    HW279109   6.397  13.357   7.765  2.2584  1.1121  0.3556
87167SOL     OW79110   5.094   0.002   5.229 -0.1582 -0.2075  0.5961
87167SOL    HW179111   5.086  -0.006   5.324 -2.8814  0.0272  0.4707
87167SOL    HW279112   5.058  -0.079   5.195  0.3997 -0.1043 -0.2742
87168SOL     OW79113   8.008   1.250   3.369 -0.4067 -0.9761  0.0710
87168SOL    HW179114   7.967   1.192   3.305 -1.0530  1.1418 -1.5733
87168SOL    HW279115   7.935   1.301   3.405 -0.0566 -2.0436  2.5431
87169SOL     OW79116   5.132   9.623   1.657 -0.4606  0.1963  0.0431
87169SOL    HW179117   5.185   9.543   1.649 -0.9341 -0.1823  0.5806
87169SOL    HW279118   5.137   9.645   1.750 -1.7641 -0.2253  0.2431
87170SOL     OW79119  12.028   6.219   0.793 -0.3275  0.0886  0.1063
87170SOL    HW179120  12.100   6.274   0.824 -0.7177  0.2463  0.7580
87170SOL    HW279121  11.958   6.233   0.857 -0.7564 -0.4570 -0.2325
87171SOL     OW79122   4.146  13.251   9.377 -0.1078  0.3956  0.2114
87171SOL    HW179123   4.207  13.179   9.391  0.9228  1.1205 -0.3936
87171SOL    HW279124   4.170  13.317   9.443  0.2556  0.9822 -0.4924
87172SOL     OW79125  11.857  11.729   0.102  0.0814 -0.6105 -0.2151
87172SOL    HW179126  11.884  11.744   0.193  1.1818  1.2204 -0.7924
87172SOL    HW279127  11.839  11.816   0.067 -2.4522 -1.4193 -1.1825
87173SOL     OW79128  10.435   0.584  11.834  0.1164  0.4203  0.0390
87173SOL    HW179129  10.492   0.537  11.895 -0.5175 -1.2439 -0.5829
87173SOL    HW279130  10.493   0.643  11.786  0.7611  1.1201  1.6085
87174SOL     OW79131  12.595   2.087  11.245  1.4803  0.4785  0.3233
87174SOL    HW179132  12.502   2.079  11.225  1.9362  0.3233 -2.0559
87174SOL    HW279133  12.598   2.104  11.339 -0.9270  0.3617  0.4880
87175SOL     OW79134   4.250   6.392   2.295  0.0094 -0.4847 -0.1165
87175SOL    HW179135   4.287   6.462   2.348 -2.3207  0.9723 -0.2457
87175SOL    HW279136   4.263   6.421   2.204 -1.5333  0.1766 -0.1608
87176SOL     OW79137  14.029  13.688  10.258 -0.0920  0.5813  0.6237
87176SOL    HW179138  14.042  13.669  10.165 -1.4469 -0.1482  0.5583
87176SOL    HW279139  14.028  13.602  10.301 -0.2833  0.8610  1.1958
87177SOL     OW79140  12.926   0.789   8.861 -0.2953  1.0771  0.5105
87177SOL    HW179141  12.949   0.868   8.812  1.2604  0.0998 -0.4269
87177SOL    HW279142  12.920   0.720   8.795  0.2801  0.0386  1.5082
87178SOL     OW79143   8.623   8.790   4.295 -0.4706 -0.0594  0.4194
87178SOL    HW179144   8.713   8.821   4.292 -0.6784  0.7127  1.6027
87178SOL    HW279145   8.598   8.798   4.387 -1.4699 -1.0748  0.2566
87179SOL     OW79146   8.027  11.383   1.328  0.3451  0.4477  0.1512
87179SOL    HW179147   8.030  11.476   1.351 -1.6246  0.3771  0.8248
87179SOL    HW279148   8.002  11.339   1.410  1.4248 -0.7122 -0.1115
87180SOL     OW79149   3.527  14.045   5.571  0.3232 -0.0732  0.1343
87180SOL    HW179150   3.549  14.061   5.662  4.3327 -3.2788  0.0134
87180SOL    HW279151   3.556  14.124   5.525  1.6489  0.1543  1.2968
87181SOL     OW79152   3.245  10.683  12.782  0.8752  0.0170  0.2707
87181SOL    HW179153   3.191  10.681  12.703  0.9314  2.2060  0.1393
87181SOL    HW279154   3.197  10.628  12.844  0.5606 -1.3043 -1.0739
87182SOL     OW79155  12.253  10.492   8.446  0.2533 -0.2063  0.3287
87182SOL    HW179156  12.243  10.427   8.376 -0.6365  0.3288 -0.0621
87182SOL    HW279157  12.172  10.485   8.497 -0.0849  0.9204 -0.0143
87183SOL     OW79158   9.346   6.067   0.517  0.4047 -0.5227 -0.0328
87183SOL    HW179159   9.338   6.134   0.449  0.1528 -0.3448  0.1743
87183SOL    HW279160   9.436   6.077   0.549 -0.0088  0.5415  0.8564
87184SOL     OW79161   6.427   0.361   6.655  0.2012 -0.2022 -0.1945
87184SOL    HW179162   6.404   0.428   6.720 -0.2781  0.4748 -1.0470
87184SOL    HW279163   6.469   0.410   6.584 -3.8733 -0.0539 -2.8222
87185SOL     OW79164   5.174   6.928   1.436  0.3472  0.4951  0.4319
87185SOL    HW179165   5.240   6.866   1.408 -0.5962 -1.3161  1.9857
87185SOL    HW279166   5.143   6.969   1.356  2.1293  0.1486 -0.4752
87186SOL     OW79167   6.476  10.918   2.516 -0.7454 -0.7057  0.6579
87186SOL    HW179168   6.419  10.987   2.483  1.3927  1.6348  1.4707
87186SOL    HW279169   6.515  10.879   2.438 -2.5424 -1.5666  0.1584
87187SOL     OW79170   3.332   7.961  13.221 -0.2404  0.1624  0.2165
87187SOL    HW179171   3.256   8.018  13.220  0.2926  0.8987  0.6295
87187SOL    HW279172   3.344   7.934  13.130 -1.4638 -0.6109  0.2675
87188SOL     OW79173   5.185  10.119   3.355  0.6873  0.3013  0.4129
87188SOL    HW179174   5.240  10.092   3.428 -0.3855  1.7981  1.8563
87188SOL    HW279175   5.096  10.095   3.381  0.4290 -0.6407 -1.1711
87189SOL     OW79176   6.137  13.492   0.433  0.0969  0.3640  0.8255
87189SOL    HW179177   6.090  13.411   0.413 -1.3021  1.4319 -0.3444
87189SOL    HW279178   6.201  13.466   0.499  1.5159 -2.2963 -1.3822
87190SOL     OW79179   7.015  10.648   0.838  0.0859 -0.0778 -0.1484
87190SOL    HW179180   6.978  10.716   0.894 -1.9711  1.6817 -3.2986
87190SOL    HW279181   7.083  10.693   0.787  0.3904 -1.0262 -0.6025
87191SOL     OW79182   6.468   1.486  10.589 -0.3748  0.2039 -0.2294
87191SOL    HW179183   6.447   1.409  10.642 -1.9431 -0.1248 -1.2755
87191SOL    HW279184   6.410   1.555  10.622 -0.3823  0.3841 -0.6128
87192SOL     OW79185   7.056   0.089   1.142 -0.0525 -0.2453  0.1280
87192SOL    HW179186   7.134   0.036   1.159 -0.0590 -0.0741  0.7055
87192SOL    HW279187   6.986   0.025   1.131 -0.0303 -0.3645  0.6711
87193SOL     OW79188  13.484  11.821   7.503  0.3373  0.2949 -0.5066
87193SOL    HW179189  13.576  11.808   7.528  0.2162 -1.5411 -0.8940
87193SOL    HW279190  13.452  11.886   7.566  1.2363 -0.8831  1.2836
87194SOL     OW79191  12.507   4.091   0.220  0.1278 -0.0990  0.3292
87194SOL    HW179192  12.524   4.135   0.303 -0.7354  2.0419 -0.5628
87194SOL    HW279193  12.568   4.130   0.158  1.6519 -2.5657  0.1384
87195SOL     OW79194   3.625   2.316   1.825  0.1636  0.7925  0.1834
87195SOL    HW179195   3.624   2.222   1.841 -0.4183  0.7300 -0.2150
87195SOL    HW279196   3.556   2.351   1.881  0.3295  0.9762  0.2747
87196SOL     OW79197  13.495  11.954  12.595 -0.1270 -0.3243 -0.0535
87196SOL    HW179198  13.580  11.942  12.553  0.5579 -0.3534  1.2969
87196SOL    HW279199  13.488  12.049  12.607 -0.0153 -0.3717  0.3844
87197SOL     OW79200  11.560  13.698   5.788 -0.2806 -0.2270  0.2800
87197SOL    HW179201  11.644  13.686   5.833  0.2170 -0.1171 -0.6105
87197SOL    HW279202  11.557  13.628   5.723 -1.4595 -1.0104  1.1350
87198SOL     OW79203   1.445  13.718   2.214 -0.5398  0.1458 -0.1295
87198SOL    HW179204   1.466  13.786   2.278 -0.8556 -0.6456  0.8449
87198SOL    HW279205   1.506  13.647   2.235 -1.6430 -0.7065  0.2807
87199SOL     OW79206   9.029   7.811   6.119 -0.1111  0.3346  0.0054
87199SOL    HW179207   8.986   7.890   6.152 -0.6370 -0.1541  0.5095
87199SOL    HW279208   8.972   7.781   6.048 -1.1045 -0.7848  1.2217
87200SOL     OW79209  12.068  10.613   8.872 -0.2038 -0.3105 -0.0137
87200SOL    HW179210  12.035  10.648   8.955  1.0515 -0.7241  0.6781
87200SOL    HW279211  12.077  10.519   8.887 -0.4159 -0.4686 -0.7925
87201SOL     OW79212   4.169   1.194   6.798  0.2195  0.3679 -0.3078
87201SOL    HW179213   4.248   1.143   6.817  0.8659  0.9267 -1.4401
87201SOL    HW279214   4.182   1.229   6.711 -1.5755 -0.0513 -0.8004
87202SOL     OW79215   5.934   1.261   0.985  0.4726 -0.1671  0.0499
87202SOL    HW179216   6.025   1.231   0.991  0.2002 -0.9155  0.6869
87202SOL    HW279217   5.897   1.210   0.913  0.0733 -1.2286  0.9804
87203SOL     OW79218  10.740  12.044  13.548 -0.3950  0.3375  0.0469
87203SOL    HW179219  10.711  12.055  13.457 -0.3308  0.3964  0.0336
87203SOL    HW279220  10.832  12.072  13.547  0.2219 -1.6027 -0.2958
87204SOL     OW79221  11.539   9.246   5.299  0.1654  0.0034  0.0315
87204SOL    HW179222  11.582   9.328   5.323  0.4861 -0.7029  2.0797
87204SOL    HW279223  11.446   9.269   5.294  0.2238  0.4531  0.8264
87205SOL     OW79224   4.394   5.714  10.856  0.2041  0.7401  0.0318
87205SOL    HW179225   4.334   5.704  10.929  0.1504  0.6856 -0.0193
87205SOL    HW279226   4.439   5.629  10.851 -0.9476  0.1519 -1.0240
87206SOL     OW79227   4.261  13.674   9.300  0.7955  0.2068  0.2097
87206SOL    HW179228   4.334  13.613   9.299  1.6179  1.1618  0.4666
87206SOL    HW279229   4.183  13.619   9.293  1.4588 -0.9300  1.5106
87207SOL     OW79230   7.340  11.649  13.626 -0.2140  0.2521  0.5849
87207SOL    HW179231   7.274  11.594  13.584 -1.3104  2.3381 -0.6213
87207SOL    HW279232   7.293  11.691  13.698  0.5694 -0.2779  1.4147
87208SOL     OW79233   3.060   2.474   1.432  0.0703 -0.6719  0.3337
87208SOL    HW179234   3.038   2.565   1.450 -0.6175 -0.6613 -0.5288
87208SOL    HW279235   2.999   2.424   1.487 -0.9768 -0.6230 -0.7569
87209SOL     OW79236  13.689   9.693   3.149  0.5382 -0.4204  0.0161
87209SOL    HW179237  13.735   9.728   3.225  1.8189 -1.1632 -0.3908
87209SOL    HW279238  13.602   9.671   3.182  1.8604 -3.2237  1.9893
87210SOL     OW79239   6.092   7.955  13.634  0.2064  0.1145 -0.2742
87210SOL    HW179240   6.044   8.022  13.586 -3.3519 -1.6251  0.4509
87210SOL    HW279241   6.104   7.884  13.570  0.2422 -0.1254 -0.0043
87211SOL     OW79242   2.727   7.087   2.226  0.1527  0.1075 -0.4480
87211SOL    HW179243   2.796   7.025   2.251  0.7518  0.3131 -1.5204
87211SOL    HW279244   2.762   7.132   2.149 -0.3708  1.5999  0.1406
87212SOL     OW79245   7.915   6.229   0.673  0.7726 -0.1933  0.5365
87212SOL    HW179246   7.958   6.226   0.759  1.3370 -1.4316  0.2350
87212SOL    HW279247   7.822   6.228   0.694  0.9009 -0.3619  1.1401
87213SOL     OW79248   0.837   6.777  11.510 -0.2646  0.4520 -0.2167
87213SOL    HW179249   0.889   6.729  11.446  1.1021  1.2143  0.2806
87213SOL    HW279250   0.747   6.748  11.494 -0.3915  2.3600 -4.1012
87214SOL     OW79251  13.396  11.772  13.454  0.3376 -0.4549  0.4936
87214SOL    HW179252  13.422  11.864  13.460  0.3587 -0.3863 -0.5554
87214SOL    HW279253  13.369  11.749  13.543 -0.0955  0.6975  0.6780
87215SOL     OW79254   6.039   3.084  11.182  0.3989  0.4108  0.0234
87215SOL    HW179255   5.958   3.100  11.134  0.7864 -1.8459 -1.5848
87215SOL    HW279256   6.076   3.170  11.197 -0.7356  1.3487 -2.0804
87216SOL     OW79257   1.455   8.484  10.115  0.4475  0.2399  0.0571
87216SOL    HW179258   1.471   8.559  10.058  0.2662  0.0522 -0.2456
87216SOL    HW279259   1.478   8.408  10.061 -0.0731  0.0403  0.1091
87217SOL     OW79260   8.861  10.542   3.755 -0.1182 -0.3094  0.2605
87217SOL    HW179261   8.875  10.636   3.753  0.0724 -0.3483 -0.3205
87217SOL    HW279262   8.773  10.530   3.719 -0.3616 -0.3159  0.8439
87218SOL     OW79263  12.581   7.223   5.090  0.3467 -0.3540 -0.1022
87218SOL    HW179264  12.559   7.188   5.004  1.0096  1.3269 -1.0262
87218SOL    HW279265  12.675   7.244   5.083  0.0075  1.5191  0.3375
87219SOL     OW79266   3.827   4.276   4.186 -0.0022 -0.4457  0.1491
87219SOL    HW179267   3.790   4.212   4.126 -0.3522 -0.3956  0.3096
87219SOL    HW279268   3.758   4.292   4.250  0.1202  0.0151  0.1674
87220SOL     OW79269  11.473   9.313   9.469 -0.4984 -0.2719 -0.0717
87220SOL    HW179270  11.545   9.370   9.445 -1.6772  1.1308 -0.4090
87220SOL    HW279271  11.510   9.254   9.535  0.8283  0.6987  0.0875
87221SOL     OW79272  13.020   0.414   6.827 -0.5145  0.2064  0.4815
87221SOL    HW179273  13.031   0.502   6.792 -0.8120  0.3378  0.7216
87221SOL    HW279274  12.947   0.420   6.888  1.0398  0.3972  2.4646
87222SOL     OW79275   9.382   4.077   6.901  0.6791 -0.1030 -0.3719
87222SOL    HW179276   9.351   4.159   6.861  1.0691  0.6257  0.7458
87222SOL    HW279277   9.468   4.063   6.862  1.5603  1.2199  0.9533
87223SOL     OW79278   8.337  13.984  10.638  0.0966 -0.0336  0.9840
87223SOL    HW179279   8.307  14.030  10.560 -0.5199 -1.6208  0.2414
87223SOL    HW279280   8.418  13.940  10.611 -1.1908 -2.3122  0.5066
87224SOL     OW79281   6.912   4.937   0.296 -0.4665 -0.3574 -0.5156
87224SOL    HW179282   6.959   5.020   0.305  0.6687 -1.0976  0.7552
87224SOL    HW279283   6.965   4.887   0.234 -0.6587 -0.4679 -0.5907
87225SOL     OW79284   3.572  13.844   5.988 -0.2694 -0.1713 -0.0746
87225SOL    HW179285   3.589  13.751   6.003  1.0103 -0.4890 -2.9104
87225SOL    HW279286   3.646  13.889   6.030 -0.0878 -0.5354  0.0005
87226SOL     OW79287   9.413   2.778   8.597 -0.0904  0.0050 -0.0915
87226SOL    HW179288   9.330   2.818   8.623 -0.1857 -0.9005  1.1332
87226SOL    HW279289   9.389   2.715   8.529  0.0010  1.6224 -1.6950
87227SOL     OW79290   5.727   7.795   8.078 -0.0792  0.7900  1.3089
87227SOL    HW179291   5.648   7.745   8.101  0.7311 -0.5169  1.4069
87227SOL    HW279292   5.695   7.876   8.039 -1.4719 -0.3202  0.0443
87228SOL     OW79293   9.520   5.212  11.942 -0.2310 -0.0188 -0.1589
87228SOL    HW179294   9.520   5.264  11.862  0.7898  0.5489  0.1933
87228SOL    HW279295   9.515   5.277  12.013  0.6627 -0.4051  0.2742
87229SOL     OW79296  11.779  10.102  12.262 -0.4657 -0.3077  0.1862
87229SOL    HW179297  11.750  10.191  12.281 -0.4646 -0.0555 -0.9246
87229SOL    HW279298  11.705  10.062  12.215  0.3744 -0.1394 -1.3342
87230SOL     OW79299   1.983   9.967   8.593  0.3419 -0.5972 -0.4935
87230SOL    HW179300   2.002  10.027   8.666  1.1114 -0.5272 -0.7388
87230SOL    HW279301   2.059   9.909   8.590  0.6646 -0.1405 -1.6901
87231SOL     OW79302  12.251   9.592   9.000 -0.1045 -0.0838 -0.1756
87231SOL    HW179303  12.252   9.521   8.937  0.1778  0.3948 -0.7205
87231SOL    HW279304  12.160   9.622   9.002 -0.9727 -2.4225  2.3454
87232SOL     OW79305   8.804   0.251  10.359 -0.1878  0.5280 -0.2303
87232SOL    HW179306   8.717   0.226  10.326 -0.2377 -0.5986  0.7113
87232SOL    HW279307   8.789   0.333  10.407 -1.4295 -1.3481  2.8432
87233SOL     OW79308   0.065   6.217   3.844  0.6812 -0.1564 -0.2277
87233SOL    HW179309   0.093   6.202   3.935  1.2552  0.2298 -0.3310
87233SOL    HW279310   0.122   6.160   3.792 -0.1621 -0.9513 -0.2995
87234SOL     OW79311   7.963   0.199   5.536 -0.1475  0.0510  0.1125
87234SOL    HW179312   7.941   0.128   5.475 -1.2206  1.7384 -1.5584
87234SOL    HW279313   8.055   0.218   5.518 -0.0914 -0.3437 -0.0319
87235SOL     OW79314   4.235  10.056   6.110 -0.2884 -0.3530 -0.2897
87235SOL    HW179315   4.327  10.068   6.085 -0.0789  0.0037  0.5959
87235SOL    HW279316   4.195  10.142   6.100  0.0219  0.0357  1.3766
87236SOL     OW79317   4.468   7.790   3.502  0.5320 -0.4055  0.0868
87236SOL    HW179318   4.376   7.816   3.502  0.8427  0.7665 -0.2102
87236SOL    HW279319   4.488   7.773   3.594  0.1869 -0.0334  0.2330
87237SOL     OW79320   0.299   3.560  13.944 -0.0413  0.2143  0.5886
87237SOL    HW179321   0.209   3.587  13.927 -0.2407 -0.1391  1.0631
87237SOL    HW279322   0.340   3.637  13.984  0.3939  1.0046 -1.2583
87238SOL     OW79323   6.637  11.646   9.699 -0.5458  0.1066  0.5710
87238SOL    HW179324   6.576  11.713   9.731 -0.7799 -0.5026  1.4270
87238SOL    HW279325   6.600  11.617   9.616 -0.4188  1.0563  0.1589
87239SOL     OW79326   2.565   4.750   7.825  0.3261 -0.1607 -0.4515
87239SOL    HW179327   2.641   4.751   7.884  0.4292  1.5191 -0.5815
87239SOL    HW279328   2.602   4.755   7.737  0.1205 -1.3041 -0.6151
87240SOL     OW79329  11.664   9.350   6.793 -0.0941  0.1395 -0.0891
87240SOL    HW179330  11.746   9.380   6.833  1.6772 -1.5981 -2.1791
87240SOL    HW279331  11.662   9.255   6.809 -2.0948  0.2177  0.4919
87241SOL     OW79332   0.754  13.458   3.084  0.2373 -0.1422 -0.1424
87241SOL    HW179333   0.739  13.363   3.092  1.2512 -0.3168 -0.1980
87241SOL    HW279334   0.688  13.487   3.021  0.1098 -0.8655 -0.3559
87242SOL     OW79335   5.053   3.196  10.367 -0.0252  0.3902  0.2079
87242SOL    HW179336   4.965   3.161  10.380  0.2732 -0.5281 -0.2224
87242SOL    HW279337   5.087   3.149  10.291  1.0722  0.2968  0.7435
87243SOL     OW79338  12.707  12.077   9.956 -0.0707  0.1272  0.2134
87243SOL    HW179339  12.723  12.007  10.019  2.1031 -0.3639 -0.7903
87243SOL    HW279340  12.612  12.083   9.950 -0.3184 -2.3420  0.7729
87244SOL     OW79341   1.616   7.055   8.770 -0.2849  0.4822 -0.5830
87244SOL    HW179342   1.659   7.086   8.849  0.6195  1.0196 -1.2635
87244SOL    HW279343   1.655   6.969   8.754 -1.9981 -0.5940  0.6954
87245SOL     OW79344   3.568   3.425   9.852  0.0744 -0.6047 -0.1311
87245SOL    HW179345   3.538   3.423   9.762  0.3502 -1.2473 -0.2083
87245SOL    HW279346   3.493   3.396   9.904 -0.3114  0.4296 -0.0819
87246SOL     OW79347   9.488   1.657   5.808  0.7469 -0.1600  0.1019
87246SOL    HW179348   9.496   1.729   5.871 -0.5323  0.2799 -0.2030
87246SOL    HW279349   9.462   1.582   5.861 -1.2523  0.4259  0.0373
87247SOL     OW79350  13.824  11.295  13.137  1.0015  0.6746 -0.1651
87247SOL    HW179351  13.821  11.225  13.072  1.7928  1.8246 -1.4773
87247SOL    HW279352  13.913  11.293  13.171  0.0945 -1.2013  2.4256
87248SOL     OW79353  10.391   5.941   5.102 -0.0792 -0.4389  0.1600
87248SOL    HW179354  10.389   5.849   5.127 -0.5763 -0.1583  1.2240
87248SOL    HW279355  10.465   5.949   5.043  1.0117 -1.2096  1.3777
87249SOL     OW79356   0.727   4.136   8.333  0.3370 -0.7582  0.1247
87249SOL    HW179357   0.652   4.126   8.274  0.6749  0.0668 -0.4628
87249SOL    HW279358   0.791   4.185   8.282  1.6132 -2.1323  0.3305
87250SOL     OW79359   4.886   2.429  11.845  0.1390  0.0898 -0.6841
87250SOL    HW179360   4.868   2.384  11.927 -0.1204  0.8386 -0.3176
87250SOL    HW279361   4.967   2.389  11.813 -0.3023 -0.9018 -0.5770
87251SOL     OW79362   9.567  13.621  11.962  0.3155  0.4094 -0.7884
87251SOL    HW179363   9.491  13.609  12.020  1.5549 -0.5328  0.7050
87251SOL    HW279364   9.601  13.708  11.986  0.0171  0.6200 -1.1131
87252SOL     OW79365  13.197   9.052   7.477 -0.4081  0.1536 -0.1590
87252SOL    HW179366  13.229   8.993   7.409 -1.9019 -1.7387  0.6708
87252SOL    HW279367  13.107   9.073   7.451 -0.2962  1.0729  0.1748
87253SOL     OW79368   7.661  10.746   7.085  0.1591  0.1260  0.2603
87253SOL    HW179369   7.627  10.783   7.166 -0.6011  2.2572 -0.9652
87253SOL    HW279370   7.618  10.795   7.015  2.3742 -0.1661 -1.4391
87254SOL     OW79371  12.289   2.805   2.854 -0.1443  0.3092 -0.4485
87254SOL    HW179372  12.216   2.850   2.811 -0.5418  0.1859  0.0873
87254SOL    HW279373  12.248   2.756   2.925  0.4322  0.0282 -0.3076
87255SOL     OW79374   5.652  13.942   6.323  0.4430 -0.3285 -0.0852
87255SOL    HW179375   5.630  14.035   6.317 -0.9530 -0.6038  0.4930
87255SOL    HW279376   5.703  13.925   6.244 -0.4704  0.6231 -0.9129
87256SOL     OW79377   4.484   6.638   5.125 -0.5871 -0.6225 -0.2736
87256SOL    HW179378   4.426   6.689   5.181 -1.5121  0.1442 -1.8560
87256SOL    HW279379   4.548   6.600   5.185 -1.9315 -0.4186  1.3671
87257SOL     OW79380   6.571   7.303  13.060  0.4053 -0.2282 -0.3310
87257SOL    HW179381   6.645   7.336  13.008  0.3539  3.0569  1.4449
87257SOL    HW279382   6.612   7.244  13.124  1.2077  0.0733 -0.5468
87258SOL     OW79383   0.343  12.072   8.522  0.1139  0.4632 -0.0108
87258SOL    HW179384   0.357  11.996   8.578  0.8068  0.6163  0.0353
87258SOL    HW279385   0.295  12.134   8.577 -0.8859 -0.1203 -0.2037
87259SOL     OW79386   9.595   5.540  12.932 -0.6143 -0.2542 -0.1781
87259SOL    HW179387   9.685   5.528  12.962 -0.9715 -3.7953 -0.0736
87259SOL    HW279388   9.547   5.465  12.970 -2.7464 -0.6596 -3.3027
87260SOL     OW79389   0.962   0.098   7.363 -0.1300 -0.8192 -0.4573
87260SOL    HW179390   0.959   0.193   7.362 -0.2004 -0.8180 -0.1826
87260SOL    HW279391   1.033   0.075   7.302  0.7969 -0.5557  0.4989
87261SOL     OW79392   9.672   5.968   1.122  0.1753  0.0564 -0.2690
87261SOL    HW179393   9.654   6.062   1.115  0.2849  0.1555  0.7221
87261SOL    HW279394   9.742   5.961   1.186 -0.7553 -0.7898  0.6955
87262SOL     OW79395   3.643  13.367   4.601 -0.0964  0.7358  0.2080
87262SOL    HW179396   3.632  13.459   4.625  0.0875  0.9975 -0.6955
87262SOL    HW279397   3.645  13.366   4.506 -0.6982 -0.2758  0.1813
87263SOL     OW79398   7.095   6.798   3.359 -0.7682 -0.0326 -0.0685
87263SOL    HW179399   6.999   6.797   3.363 -0.7582  1.3382  1.4747
87263SOL    HW279400   7.119   6.711   3.327 -2.4868 -0.9440  0.9854
87264SOL     OW79401   0.236  12.493   5.300 -0.0815 -0.1391 -0.5124
87264SOL    HW179402   0.251  12.554   5.228  0.3826 -0.5954 -0.8139
87264SOL    HW279403   0.229  12.407   5.258 -2.8603 -0.0879 -0.3186
87265SOL     OW79404   5.343  11.246   5.423 -0.0249  0.2251  0.7335
87265SOL    HW179405   5.419  11.208   5.467 -0.5905 -0.8819  0.7801
87265SOL    HW279406   5.363  11.239   5.330  0.1200  0.3528  0.7540
87266SOL     OW79407   6.023  12.567  12.985 -0.7178  0.3439  0.2444
87266SOL    HW179408   6.011  12.540  12.894  0.7225 -1.6657  0.5916
87266SOL    HW279409   6.100  12.623  12.984 -0.6630  0.2683  0.2257
87267SOL     OW79410  11.051  11.959  12.035  0.0638  0.1102 -0.1080
87267SOL    HW179411  10.995  11.990  12.106 -1.3619 -3.9032  0.7884
87267SOL    HW279412  10.989  11.927  11.968  1.3416 -0.3221 -1.1321
87268SOL     OW79413   9.240  11.195   2.327 -0.0038  0.1328  0.2541
87268SOL    HW179414   9.170  11.172   2.388 -0.2776 -0.6838 -0.3515
87268SOL    HW279415   9.198  11.247   2.259 -0.7685 -2.8456 -1.7819
87269SOL     OW79416   6.774  13.715   5.462  0.4953 -0.0067  0.1158
87269SOL    HW179417   6.694  13.662   5.465  0.1358  0.4652 -0.6215
87269SOL    HW279418   6.828  13.673   5.396  0.9255 -0.4135  0.7257
87270SOL     OW79419   0.230   5.300   7.636  0.3355 -0.3018 -0.0833
87270SOL    HW179420   0.203   5.357   7.564 -1.3456  0.4462  1.0842
87270SOL    HW279421   0.151   5.253   7.661  0.5792  0.2698  1.9723
87271SOL     OW79422   6.836  13.205   2.228  0.2158  0.6355  0.3396
87271SOL    HW179423   6.857  13.276   2.167  1.8881 -0.6221 -0.6609
87271SOL    HW279424   6.901  13.213   2.298 -1.2120  1.6037  1.5998
87272SOL     OW79425   8.003  12.457   6.834  0.0508  0.1344 -0.5728
87272SOL    HW179426   7.953  12.379   6.811 -0.4716  0.6237 -1.1436
87272SOL    HW279427   8.015  12.450   6.929  0.4801 -0.8968 -0.6949
87273SOL     OW79428  11.954   8.083   4.169  0.1820  0.2405  0.2092
87273SOL    HW179429  11.970   8.177   4.164 -0.4538  0.3234 -0.5211
87273SOL    HW279430  11.858   8.075   4.171  0.2335 -0.3806  0.4791
87274SOL     OW79431  10.554   6.490   7.346  0.1430 -0.1554  0.3234
87274SOL    HW179432  10.618   6.541   7.396 -1.1121  1.0185  0.7921
87274SOL    HW279433  10.580   6.399   7.360 -0.2237  0.0953  3.2728
87275SOL     OW79434   0.652  11.935   4.592  0.6905 -0.1022 -0.4558
87275SOL    HW179435   0.735  11.960   4.632  0.9997  0.0311 -1.1586
87275SOL    HW279436   0.658  11.968   4.502 -0.6247  1.0156 -0.1729
87276SOL     OW79437  11.756   9.708  12.165  0.5855  0.2148  0.1407
87276SOL    HW179438  11.661   9.693  12.165  0.9572 -3.4784 -2.0479
87276SOL    HW279439  11.785   9.679  12.251 -0.1074 -0.5484  0.1300
87277SOL     OW79440   6.516   8.678  10.360  0.5376 -0.4240  0.4736
87277SOL    HW179441   6.595   8.638  10.324  0.9851  1.0455 -0.2681
87277SOL    HW279442   6.531   8.773  10.350 -1.2676 -0.1161  0.4150
87278SOL     OW79443  11.275   1.862  11.768 -0.1748  0.1592 -0.5312
87278SOL    HW179444  11.305   1.951  11.786 -1.1184  0.7215 -1.6277
87278SOL    HW279445  11.324   1.835  11.691  1.0403 -0.7902  0.5173
87279SOL     OW79446   9.074  10.004  10.694  0.5403 -0.8851 -0.3518
87279SOL    HW179447   9.039   9.945  10.627 -3.4266 -0.3403  0.9638
87279SOL    HW279448   9.092   9.946  10.769 -1.2160 -0.7905  0.1874
87280SOL     OW79449   0.868   8.754   1.724 -0.6203 -0.2342 -0.1103
87280SOL    HW179450   0.792   8.800   1.758 -0.6824 -0.5350  0.1591
87280SOL    HW279451   0.916   8.726   1.802  1.2365  2.3201 -0.1956
87281SOL     OW79452   6.746   5.942   6.873 -0.0295  0.3180 -0.4437
87281SOL    HW179453   6.716   6.006   6.809 -0.6799  1.4402  0.9273
87281SOL    HW279454   6.788   5.995   6.942  1.1310 -0.8881 -0.1754
87282SOL     OW79455   2.825   2.361   5.954  0.3226 -0.0918 -0.1227
87282SOL    HW179456   2.827   2.299   6.028  0.2605 -0.5162 -0.4746
87282SOL    HW279457   2.906   2.412   5.965 -0.1317  0.4741  0.7594
87283SOL     OW79458   0.332  13.364  12.382  0.7526  0.6246  0.3409
87283SOL    HW179459   0.279  13.345  12.459  1.6086 -0.7357  0.6342
87283SOL    HW279460   0.324  13.286  12.327  0.7629  1.2636 -0.6026
87284SOL     OW79461   2.281  10.049   1.417  0.3165 -0.5276  0.6434
87284SOL    HW179462   2.302  10.137   1.448 -1.8499 -0.1056  1.0936
87284SOL    HW279463   2.331  10.039   1.336 -0.2134  1.5545 -0.0116
87285SOL     OW79464  12.385   9.683  13.463 -0.0619  0.6068 -0.0324
87285SOL    HW179465  12.428   9.619  13.520 -0.7492 -1.2292 -1.4870
87285SOL    HW279466  12.451   9.751  13.449  0.7529  0.1519  1.4061
87286SOL     OW79467   7.127   3.289  12.360 -0.0473  0.4063 -0.3571
87286SOL    HW179468   7.043   3.288  12.315 -1.2302 -0.2594  1.7262
87286SOL    HW279469   7.180   3.354  12.312 -2.1039  1.6388 -1.0646
87287SOL     OW79470   9.962  12.019  10.858  0.5716  0.4564 -0.2508
87287SOL    HW179471  10.032  11.961  10.827  0.1625  0.0439 -0.4149
87287SOL    HW279472   9.968  12.015  10.953 -0.6581 -1.3861 -0.1917
87288SOL     OW79473   6.525  12.501   7.819 -0.5694  0.2529  0.3317
87288SOL    HW179474   6.526  12.469   7.910  0.1816  2.0424  0.9853
87288SOL    HW279475   6.531  12.596   7.827 -2.0801  0.5532 -1.5745
87289SOL     OW79476   1.189  13.718   2.737 -0.6615  0.3931 -0.2647
87289SOL    HW179477   1.147  13.803   2.751 -0.5513  0.7024 -1.7003
87289SOL    HW279478   1.118  13.655   2.747 -0.8740  0.6944  0.1672
87290SOL     OW79479  13.420  11.941  13.922  0.0817 -0.1830  0.3699
87290SOL    HW179480  13.382  12.011  13.975  1.0595  1.1741 -0.6439
87290SOL    HW279481  13.513  11.963  13.917  1.1027 -3.2633  2.5969
87291SOL     OW79482   2.077   9.079   6.390 -0.2819  0.3354 -0.7120
87291SOL    HW179483   2.099   9.047   6.302 -0.3464 -2.3238  0.1286
87291SOL    HW279484   2.007   9.021   6.420 -0.1306  1.0373  1.1611
87292SOL     OW79485   4.508   8.533   6.287 -0.4885  0.2579  0.8690
87292SOL    HW179486   4.538   8.509   6.199 -0.5447  1.9576  0.3492
87292SOL    HW279487   4.588   8.541   6.339 -0.2645  1.4382  0.3707
87293SOL     OW79488   2.520   7.208   8.433 -0.1449 -0.4672  0.7094
87293SOL    HW179489   2.562   7.277   8.382 -0.2938 -0.3529  0.7419
87293SOL    HW279490   2.504   7.137   8.370 -1.8314  0.2990  0.2015
87294SOL     OW79491  12.495  11.417  11.790  0.0188  0.1333 -0.3101
87294SOL    HW179492  12.407  11.394  11.820  0.1575 -0.3573 -0.2739
87294SOL    HW279493  12.550  11.345  11.819  0.7755  1.2865  1.2770
87295SOL     OW79494  12.718   6.684   5.216 -0.4993 -0.8918  0.4131
87295SOL    HW179495  12.744   6.774   5.199 -0.3007 -0.2446  3.6042
87295SOL    HW279496  12.623   6.689   5.231 -0.6289 -1.3726 -0.2084
87296SOL     OW79497   2.855   5.970  12.142  0.1568 -0.3437 -0.5371
87296SOL    HW179498   2.935   5.991  12.189  0.5891  0.3950 -1.5741
87296SOL    HW279499   2.785   5.980  12.207  0.7048  0.9605 -0.1197
87297SOL     OW79500  10.560  10.451   0.480 -0.3259 -0.1534  0.0665
87297SOL    HW179501  10.465  10.460   0.478 -0.2108  1.2278  0.3519
87297SOL    HW279502  10.584  10.466   0.571  0.1644 -0.6898  0.0349
87298SOL     OW79503   2.839   9.577   2.622 -0.1735  0.3511 -0.0815
87298SOL    HW179504   2.859   9.517   2.550  1.3887  0.3975  0.2751
87298SOL    HW279505   2.925   9.608   2.651 -0.9140  2.1895  0.2318
87299SOL     OW79506   7.974   3.744  11.467 -0.1472  0.1299  0.9925
87299SOL    HW179507   8.033   3.678  11.505  0.4559  0.3236  0.4170
87299SOL    HW279508   7.974   3.724  11.373 -0.2754  0.7003  0.8726
87300SOL     OW79509  10.554   1.110  10.122  0.2065 -0.1126  0.4861
87300SOL    HW179510  10.644   1.090  10.096  0.1567 -0.2680  0.4311
87300SOL    HW279511  10.503   1.091  10.043  0.1635  0.2598  0.4250
87301SOL     OW79512  11.801   7.761   3.882 -0.1823 -0.7227  0.2664
87301SOL    HW179513  11.838   7.701   3.946 -0.3579 -1.0933  0.0234
87301SOL    HW279514  11.790   7.843   3.930 -0.1511 -0.9468  0.6614
87302SOL     OW79515   9.410  11.834  13.041  0.5868  1.0394 -0.0279
87302SOL    HW179516   9.355  11.835  13.120  0.2033  2.4313 -0.3020
87302SOL    HW279517   9.497  11.810  13.074 -0.0406 -0.7057  0.4739
87303SOL     OW79518   9.232   8.596   0.548 -0.8380  0.0351 -0.5175
87303SOL    HW179519   9.153   8.554   0.513 -0.9413  1.2780 -1.8763
87303SOL    HW279520   9.199   8.670   0.600 -0.6531  2.6525 -3.8050
87304SOL     OW79521   3.172   6.634   8.869  0.2082 -0.0136  0.2975
87304SOL    HW179522   3.086   6.673   8.856  0.4823  0.1202 -1.3755
87304SOL    HW279523   3.223   6.661   8.792  1.6575 -0.3310  1.0978
87305SOL     OW79524   4.914   7.975   5.758  0.7139 -0.0871 -0.1976
87305SOL    HW179525   4.934   7.882   5.761 -1.0616 -0.4803  1.3779
87305SOL    HW279526   4.894   7.993   5.666  2.2771 -0.9577 -0.7248
87306SOL     OW79527  10.648   4.393   5.629 -0.5136 -0.1335  0.3909
87306SOL    HW179528  10.607   4.342   5.698 -2.9717 -0.3365 -1.1243
87306SOL    HW279529  10.637   4.342   5.550  0.3179  1.0632 -0.5501
87307SOL     OW79530   0.157   5.950   4.945  0.2621  0.2145  0.0226
87307SOL    HW179531   0.162   5.865   4.901  2.7200  0.6174 -0.6342
87307SOL    HW279532   0.112   6.007   4.882 -2.1047 -0.7094  0.7804
87308SOL     OW79533  12.738  11.094   9.059  0.1124  0.0642 -0.3669
87308SOL    HW179534  12.700  11.120   8.975 -1.1483  1.3376  0.5463
87308SOL    HW279535  12.682  11.023   9.089 -0.6089  0.8692  0.2397
87309SOL     OW79536   8.532   8.288   3.471 -0.3139  0.0228  1.2234
87309SOL    HW179537   8.558   8.210   3.422  2.6394  1.4200  0.3144
87309SOL    HW279538   8.472   8.335   3.413  3.0965  1.6292 -1.3687
87310SOL     OW79539   1.294  10.173   7.845  0.0934  0.1219 -0.2011
87310SOL    HW179540   1.317  10.224   7.923 -0.0369  1.0549 -0.7551
87310SOL    HW279541   1.362  10.194   7.782 -0.3214  0.1095 -0.6552
87311SOL     OW79542   5.845   5.094   4.999 -0.7576  0.0278  0.2061
87311SOL    HW179543   5.778   5.121   5.063 -0.6330  0.6537  0.0833
87311SOL    HW279544   5.833   5.154   4.926 -1.7592 -1.4976 -0.9457
87312SOL     OW79545   6.182   9.150   1.357 -0.1309 -0.7008  0.1154
87312SOL    HW179546   6.128   9.088   1.308  2.5117 -2.2460 -1.0630
87312SOL    HW279547   6.133   9.165   1.438 -2.4508 -1.6899 -1.0014
87313SOL     OW79548   3.323   3.629  12.740  0.1370 -0.4909  0.5231
87313SOL    HW179549   3.391   3.572  12.775  1.5524  0.3410 -0.7758
87313SOL    HW279550   3.303   3.593  12.654 -0.4331 -0.2074  0.5313
87314SOL     OW79551   8.791   7.501  12.363 -0.4836 -0.1060  0.3950
87314SOL    HW179552   8.845   7.568  12.320 -0.3930 -0.1242  0.4808
87314SOL    HW279553   8.836   7.419  12.347 -1.5021 -0.3982 -1.2354
87315SOL     OW79554   9.857  11.472   7.335 -0.0394  0.3541  0.5158
87315SOL    HW179555   9.763  11.460   7.345 -0.1051 -0.3248 -0.7925
87315SOL    HW279556   9.874  11.559   7.372 -1.3894  1.0399 -0.4044
87316SOL     OW79557   4.450   8.103  10.597 -0.7050  0.5075 -0.4612
87316SOL    HW179558   4.446   8.102  10.501 -1.4564 -1.0280 -0.4419
87316SOL    HW279559   4.374   8.154  10.623  0.8558  3.1367 -0.6623
87317SOL     OW79560   9.159   1.152  11.402 -0.2160  0.1422 -0.6044
87317SOL    HW179561   9.122   1.206  11.473 -2.4471  0.3159 -1.7937
87317SOL    HW279562   9.190   1.074  11.446 -2.4646 -0.2051  0.5493
87318SOL     OW79563   3.187   2.449   5.413 -0.4219 -0.2720 -0.1412
87318SOL    HW179564   3.190   2.437   5.507 -1.7413  0.4236  0.0193
87318SOL    HW279565   3.278   2.457   5.386 -0.0200 -0.7869  1.0237
87319SOL     OW79566  10.424  12.605   2.163  0.7182 -0.3294  0.1765
87319SOL    HW179567  10.490  12.603   2.094  0.5183 -0.3781 -0.0135
87319SOL    HW279568  10.340  12.593   2.118  0.3841  1.6680  0.1938
87320SOL     OW79569   6.482   0.229   8.156  0.1632  0.9154 -0.4347
87320SOL    HW179570   6.528   0.159   8.110 -0.0113 -1.2667  2.4232
87320SOL    HW279571   6.549   0.270   8.211 -0.4803  0.1771  0.9698
87321SOL     OW79572  13.776   1.745   9.644 -0.1554  0.0467 -0.1546
87321SOL    HW179573  13.807   1.751   9.554  0.3624 -0.5963 -0.0287
87321SOL    HW279574  13.692   1.699   9.638 -0.4043  0.5198 -0.3568
87322SOL     OW79575   1.881   6.320   6.128 -0.0077 -0.0324 -0.2527
87322SOL    HW179576   1.848   6.230   6.121 -0.1177 -0.1057  0.9812
87322SOL    HW279577   1.956   6.313   6.187 -1.1475  0.9324  1.3934
87323SOL     OW79578  11.928  11.247   3.947  0.0899 -0.2074  0.3842
87323SOL    HW179579  11.924  11.326   3.892  1.5897  0.8319  1.6732
87323SOL    HW279580  11.842  11.242   3.987 -0.8405 -0.6593 -1.5833
87324SOL     OW79581  12.327   4.886   0.780  0.2990  0.0849  0.0173
87324SOL    HW179582  12.245   4.936   0.778 -0.6501 -1.4103  0.5803
87324SOL    HW279583  12.301   4.796   0.764  2.0671 -0.1808 -1.6693
87325SOL     OW79584   6.227   0.357  13.379  0.2306  0.0762 -0.3292
87325SOL    HW179585   6.177   0.432  13.348  0.3052 -1.0625 -3.5734
87325SOL    HW279586   6.303   0.396  13.423 -1.1038  1.8308  0.5383
87326SOL     OW79587   0.396   5.815  10.026 -0.5422  0.1887 -1.1173
87326SOL    HW179588   0.488   5.792  10.014 -0.7918 -1.6613 -0.0165
87326SOL    HW279589   0.397   5.903  10.062  0.8716 -0.1645 -0.2176
87327SOL     OW79590   8.811  12.759   1.064 -0.2723 -0.3489 -0.2329
87327SOL    HW179591   8.743  12.756   0.997 -0.3370  0.2311 -0.1970
87327SOL    HW279592   8.780  12.698   1.132  0.5414 -2.1497 -1.3985
87328SOL     OW79593  11.164   8.909  13.726 -0.1920 -0.0117 -0.1500
87328SOL    HW179594  11.161   8.900  13.821 -0.4276 -0.3169 -0.1816
87328SOL    HW279595  11.246   8.866  13.700 -0.9619 -1.5131 -0.2319
87329SOL     OW79596   3.356   9.777   0.046  0.7052 -0.0371  0.7500
87329SOL    HW179597   3.307   9.767   0.128  1.5860  1.5637  1.5155
87329SOL    HW279598   3.447   9.788   0.074  1.2864 -1.1778 -0.5543
87330SOL     OW79599   3.787   4.915   4.482  0.1279  0.1187  0.3637
87330SOL    HW179600   3.818   4.896   4.570  0.1188 -1.5693  0.0378
87330SOL    HW279601   3.709   4.969   4.495  0.8513  0.9829  1.3137
87331SOL     OW79602  10.377   7.727   0.584  0.6642 -0.0487 -0.4765
87331SOL    HW179603  10.400   7.788   0.655  2.0068 -1.2880  0.2113
87331SOL    HW279604  10.456   7.723   0.530 -0.1252  0.3683 -1.6956
87332SOL     OW79605   4.597   7.037  11.491 -0.1623  0.4175 -0.4478
87332SOL    HW179606   4.556   7.085  11.563  1.5235  0.5882  0.4563
87332SOL    HW279607   4.563   6.948  11.499  0.2836  0.3359  0.8177
87333SOL     OW79608   8.110   8.438   1.857 -0.1965 -0.1900  0.1724
87333SOL    HW179609   8.197   8.400   1.871  0.5111  1.4596  0.4629
87333SOL    HW279610   8.115   8.525   1.897 -2.0813 -0.1601  0.4378
87334SOL     OW79611   9.335   6.174  12.157 -0.0869  0.3772  0.5673
87334SOL    HW179612   9.275   6.100  12.154  1.4078 -0.8754  0.3889
87334SOL    HW279613   9.421   6.135  12.173  1.1171  1.8552 -1.7277
87335SOL     OW79614   9.180   5.360   5.994  0.2646 -0.2582  0.4276
87335SOL    HW179615   9.161   5.444   6.035  1.2361  0.1794  0.0086
87335SOL    HW279616   9.270   5.369   5.961 -0.1467 -0.9302 -0.9365
87336SOL     OW79617   0.481   4.384  12.432  0.0563  0.1220  0.2587
87336SOL    HW179618   0.516   4.444  12.366  1.2702 -0.5808  0.2337
87336SOL    HW279619   0.549   4.381  12.500  0.8335 -2.4958 -0.5398
87337SOL     OW79620   3.304   3.459   4.072 -0.1273 -0.2405 -0.1674
87337SOL    HW179621   3.380   3.487   4.123 -0.3994  0.3306 -0.0655
87337SOL    HW279622   3.327   3.479   3.981 -0.5704  0.9326 -0.0367
87338SOL     OW79623  12.572   6.291   9.633 -0.0104 -0.1191 -0.6193
87338SOL    HW179624  12.502   6.227   9.643 -0.9354  0.7322 -1.3631
87338SOL    HW279625  12.623   6.284   9.714 -0.4592 -1.3352 -0.4216
87339SOL     OW79626   3.112   6.852   3.905  0.4626 -0.1503  0.4031
87339SOL    HW179627   3.168   6.925   3.932 -0.0487  0.9328 -1.3375
87339SOL    HW279628   3.024   6.888   3.903  0.0707 -1.0722  0.3566
87340SOL     OW79629   8.089   8.318   1.316  0.0996  0.2976  0.6455
87340SOL    HW179630   8.049   8.279   1.238 -0.2267  1.7442  0.0502
87340SOL    HW279631   8.183   8.308   1.302  0.0202 -0.4639  0.6173
87341SOL     OW79632   9.063  12.096  10.788  0.2364  0.0964 -0.3646
87341SOL    HW179633   8.986  12.082  10.843  0.2721 -0.1080 -0.3655
87341SOL    HW279634   9.128  12.035  10.821  0.8895  1.2544  0.5583
87342SOL     OW79635   1.534   4.484   5.767  0.1794  0.6557  0.4506
87342SOL    HW179636   1.468   4.500   5.835  0.7427  2.1645  0.6810
87342SOL    HW279637   1.618   4.491   5.813  0.5417  0.6292 -0.1969
87343SOL     OW79638  10.894  12.536  11.554  0.7687 -0.2522 -0.0024
87343SOL    HW179639  10.847  12.493  11.482  1.3064 -0.1266 -0.4381
87343SOL    HW279640  10.838  12.524  11.630  0.6202 -1.1901 -0.2479
87344SOL     OW79641  11.904  12.831   4.704  0.2065  0.3097 -0.4046
87344SOL    HW179642  11.903  12.916   4.659 -1.7167 -0.5241 -2.1198
87344SOL    HW279643  11.923  12.768   4.634  0.4552 -0.7750  0.6158
87345SOL     OW79644   5.246   3.258   8.081 -0.4687  0.1519  0.5650
87345SOL    HW179645   5.333   3.237   8.115 -0.1918 -0.1683 -0.3002
87345SOL    HW279646   5.239   3.207   8.001 -0.0986  2.6931 -1.2225
87346SOL     OW79647   0.385   8.340  13.333 -0.1383 -0.2748 -0.1817
87346SOL    HW179648   0.374   8.340  13.428  0.3429 -1.5405 -0.1129
87346SOL    HW279649   0.300   8.310  13.299 -0.1535 -0.2881 -0.1319
87347SOL     OW79650   3.242   4.003   9.001  0.2452  0.0684 -0.2408
87347SOL    HW179651   3.230   4.097   9.017  1.0944  0.4147 -1.4866
87347SOL    HW279652   3.181   3.983   8.930  0.3884 -0.2124 -0.2860
87348SOL     OW79653  12.067  12.881  10.743 -0.1812  0.2819 -0.5266
87348SOL    HW179654  11.979  12.869  10.778 -0.8425 -1.8734 -2.6513
87348SOL    HW279655  12.054  12.934  10.664  0.3187 -0.4034 -1.0872
87349SOL     OW79656  11.810  13.879   5.006  0.4932  0.8185 -0.3533
87349SOL    HW179657  11.862  13.955   4.981  1.2147  0.3502 -0.3010
87349SOL    HW279658  11.871  13.822   5.052  0.0636  0.0188 -0.7467
87350SOL     OW79659   7.426   6.073   2.447  0.3225  0.1509 -0.0061
87350SOL    HW179660   7.511   6.113   2.429  0.7112  0.5381  2.3548
87350SOL    HW279661   7.369   6.147   2.469  0.5056 -0.3319  2.3656
87351SOL     OW79662   5.589  11.009   2.445 -0.4825 -0.6639 -0.3279
87351SOL    HW179663   5.606  11.059   2.365 -0.7159  1.8394  1.0955
87351SOL    HW279664   5.660  11.034   2.504 -2.0647  0.0763  1.3397
87352SOL     OW79665  13.418   1.971   1.915 -0.3658  0.1581 -0.1896
87352SOL    HW179666  13.513   1.961   1.922 -0.4230 -0.0591  0.3683
87352SOL    HW279667  13.398   2.046   1.970 -0.5544  0.0033 -0.0474
87353SOL     OW79668  13.779   6.388  12.603 -0.3019  0.1615  0.1239
87353SOL    HW179669  13.795   6.454  12.535 -1.3585  0.2069 -0.0986
87353SOL    HW279670  13.836   6.414  12.676 -0.4381  1.1135 -0.1015
87354SOL     OW79671   3.930  13.687   1.024  0.0680 -0.2094 -0.2465
87354SOL    HW179672   3.886  13.769   1.046 -1.3513 -1.2582  0.9553
87354SOL    HW279673   3.892  13.662   0.940  1.1477  0.7477 -1.0731
87355SOL     OW79674   5.967   5.658  13.470  0.5053 -0.0530 -0.3763
87355SOL    HW179675   6.027   5.622  13.536 -3.1920 -2.2721  2.1950
87355SOL    HW279676   5.953   5.748  13.498 -0.6277 -0.8179  1.8058
87356SOL     OW79677   4.166   0.658   3.139 -0.2537  0.1780 -0.1522
87356SOL    HW179678   4.158   0.687   3.049 -3.0240  0.2074  0.0335
87356SOL    HW279679   4.237   0.593   3.137  0.2348  0.7146 -2.1765
87357SOL     OW79680  12.958   9.819   8.158  0.4453  0.2264 -0.1572
87357SOL    HW179681  12.944   9.875   8.235  0.8642 -1.3435  1.1145
87357SOL    HW279682  12.875   9.773   8.148  1.2070 -1.4653  0.9806
87358SOL     OW79683   6.103  11.171  13.826  0.2415 -0.4166 -0.2841
87358SOL    HW179684   6.140  11.151  13.912 -0.1173 -0.1346 -0.0595
87358SOL    HW279685   6.042  11.243  13.842 -0.1587 -0.6530 -0.7027
87359SOL     OW79686   7.643   5.041  11.561 -0.3274 -0.2351  0.1867
87359SOL    HW179687   7.574   4.989  11.521  0.3178  0.1541 -1.4929
87359SOL    HW279688   7.719   5.030  11.503  0.3172  1.2404  0.6886
87360SOL     OW79689   0.341  11.289   6.656 -0.0001  0.0913  0.0446
87360SOL    HW179690   0.314  11.268   6.567 -1.2144 -0.4976  0.5322
87360SOL    HW279691   0.379  11.208   6.690  0.6963  0.3866 -0.0033
87361SOL     OW79692   2.977  14.032   0.404  0.1810  0.2325 -0.2509
87361SOL    HW179693   2.959  13.940   0.422 -1.0937  0.0113 -2.2994
87361SOL    HW279694   2.894  14.068   0.375  0.2201  2.5255  2.0397
87362SOL     OW79695   4.532   4.886   9.735 -0.0817 -0.1360 -0.3573
87362SOL    HW179696   4.449   4.882   9.687 -0.7112  1.3367  0.5372
87362SOL    HW279697   4.521   4.960   9.795  0.3486 -2.3837  2.7004
87363SOL     OW79698  10.333  13.234   3.823 -0.1448  0.1531  0.0080
87363SOL    HW179699  10.287  13.182   3.757  2.8300 -2.8217  0.0452
87363SOL    HW279700  10.361  13.313   3.776 -0.5365 -0.5649 -1.4934
87364SOL     OW79701  11.251   4.049   7.703 -0.0044 -0.2266 -0.0653
87364SOL    HW179702  11.269   4.138   7.672  1.3695 -0.6149 -0.4550
87364SOL    HW279703  11.274   3.993   7.628  0.7045 -1.0116  0.7258
87365SOL     OW79704   7.081   9.692   8.202  0.8262 -0.0834  0.0689
87365SOL    HW179705   7.057   9.747   8.276  0.1371 -1.1861  0.7103
87365SOL    HW279706   7.176   9.689   8.203  0.8284 -0.0220  0.8846
87366SOL     OW79707   1.132   0.227  13.555  0.1452 -0.3098  0.2546
87366SOL    HW179708   1.116   0.255  13.465  1.6796  0.1829  0.1098
87366SOL    HW279709   1.048   0.240  13.599 -1.5908 -3.3612 -1.7503
87367SOL     OW79710  10.752   6.444  10.604 -0.2586  0.0541 -0.0654
87367SOL    HW179711  10.711   6.414  10.522 -2.0881 -0.8965  1.1174
87367SOL    HW279712  10.718   6.384  10.670  0.5966  1.2520  1.5213
87368SOL     OW79713   1.020   3.257  13.063  0.0442 -0.3243 -0.3930
87368SOL    HW179714   1.112   3.231  13.061  0.3265  0.0756  2.9162
87368SOL    HW279715   1.023   3.353  13.064 -0.4589 -0.2996 -0.7344
87369SOL     OW79716   0.054   7.997  13.329  0.2580  0.5447  0.0637
87369SOL    HW179717  -0.009   8.031  13.392 -0.1502 -1.6728  0.9485
87369SOL    HW279718   0.056   7.903  13.346  2.2076  0.2623 -1.4047
87370SOL     OW79719   5.173   9.499   2.697 -0.3444 -0.1406  0.1070
87370SOL    HW179720   5.103   9.512   2.762  0.0528 -1.3882  0.8139
87370SOL    HW279721   5.252   9.533   2.740 -0.6150  2.1280 -1.0420
87371SOL     OW79722   8.552   9.652   0.011  0.1370 -0.0089 -0.4812
87371SOL    HW179723   8.465   9.681  -0.015  0.4875  0.6961 -0.8769
87371SOL    HW279724   8.562   9.566  -0.030 -2.0467 -2.1955  3.0138
87372SOL     OW79725   1.885  11.654   9.450 -0.2500  0.6855  0.3199
87372SOL    HW179726   1.938  11.580   9.480  0.8642  0.8214 -1.1785
87372SOL    HW279727   1.905  11.660   9.356 -1.9640  1.5514 -0.0247
87373SOL     OW79728  11.384  13.451   6.180  0.1874 -0.0729  0.2940
87373SOL    HW179729  11.305  13.503   6.166  0.1118 -0.5727 -1.3796
87373SOL    HW279730  11.376  13.418   6.270 -0.1026  2.1613  1.1613
87374SOL     OW79731  13.090   7.210   9.586  0.3587 -0.2349  0.0708
87374SOL    HW179732  13.015   7.187   9.531  0.5213  1.1204 -0.7586
87374SOL    HW279733  13.158   7.239   9.524  1.1019 -0.1783  0.8867
87375SOL     OW79734   4.421  13.342   7.598  0.0195 -0.2676  0.8991
87375SOL    HW179735   4.418  13.408   7.668  1.6420 -1.8912  2.6069
87375SOL    HW279736   4.502  13.361   7.552  0.0719 -0.5765  0.8684
87376SOL     OW79737   6.252   2.389   6.446  0.3303  0.4214 -0.6014
87376SOL    HW179738   6.298   2.472   6.433  1.1213  0.2063  0.6385
87376SOL    HW279739   6.219   2.393   6.535 -0.3652 -0.2612 -0.8094
87377SOL     OW79740   4.229   5.884  12.682  0.0498  0.1621  0.0993
87377SOL    HW179741   4.310   5.909  12.637 -1.8549  2.3327 -2.4569
87377SOL    HW279742   4.239   5.917  12.771  1.9385  0.3563 -0.1397
87378SOL     OW79743  12.587   2.000   6.637 -0.1587  0.3569 -0.2559
87378SOL    HW179744  12.558   2.085   6.667  1.1353  0.6012  0.3750
87378SOL    HW279745  12.641   2.019   6.560 -0.6487  0.0217 -0.6881
87379SOL     OW79746   5.464  11.153  10.690 -0.0288  0.2239 -0.0772
87379SOL    HW179747   5.392  11.174  10.632 -0.6782 -0.7811  0.3520
87379SOL    HW279748   5.455  11.060  10.709  0.8763  0.2648  0.6691
87380SOL     OW79749   0.733  12.788   5.136 -0.0829  0.6397  0.1196
87380SOL    HW179750   0.719  12.869   5.185 -2.1704  0.7641 -0.5532
87380SOL    HW279751   0.822  12.794   5.103 -0.0785  2.5182  0.3867
87381SOL     OW79752   4.381  10.801   3.856  0.2689 -0.7914 -0.4599
87381SOL    HW179753   4.305  10.743   3.854 -0.7332  0.2528  2.0983
87381SOL    HW279754   4.456  10.743   3.870 -0.4171 -1.6361 -0.2220
87382SOL     OW79755   4.521   7.691  13.803 -0.5308  0.6049 -0.0846
87382SOL    HW179756   4.536   7.641  13.883 -0.2213  1.0082  0.1091
87382SOL    HW279757   4.440   7.739  13.819  0.5413  2.2037  0.7535
87383SOL     OW79758   5.311  12.993  10.012  0.2039 -0.1481  0.2052
87383SOL    HW179759   5.330  12.926   9.946  0.0547  0.2940 -0.2965
87383SOL    HW279760   5.381  12.984  10.077 -0.1246 -1.1608  0.4397
87384SOL     OW79761   2.870  10.677   1.775 -0.3812 -0.3217  0.1541
87384SOL    HW179762   2.955  10.704   1.742 -0.1701 -0.3197  0.6814
87384SOL    HW279763   2.876  10.689   1.870 -0.4131 -1.8232  0.3741
87385SOL     OW79764   4.043  13.811   1.953  0.1893  0.2113 -0.2733
87385SOL    HW179765   3.985  13.780   1.885 -0.8519  0.5803  0.4229
87385SOL    HW279766   4.131  13.795   1.919 -0.1916 -3.7899  0.1232
87386SOL     OW79767   4.316   9.736   9.616  0.4038 -0.8774  0.6647
87386SOL    HW179768   4.241   9.738   9.557  1.5171 -0.0123 -0.7965
87386SOL    HW279769   4.355   9.649   9.603 -0.2154 -1.2570  1.2892
87387SOL     OW79770  13.575   0.649   3.044 -0.1617  0.8747 -0.0851
87387SOL    HW179771  13.484   0.625   3.029 -0.3312  0.0258  2.0373
87387SOL    HW279772  13.573   0.704   3.123  1.0037  2.2188 -0.9313
87388SOL     OW79773   7.713  12.404   0.017  0.2166  0.1903  0.4711
87388SOL    HW179774   7.628  12.450   0.015  0.0277 -0.0730  1.5437
87388SOL    HW279775   7.742  12.403  -0.074 -1.7725 -1.2620 -0.2020
87389SOL     OW79776   7.373   7.866  13.675 -0.2910  0.2558 -0.6963
87389SOL    HW179777   7.343   7.837  13.761  1.7636 -0.9284 -0.2903
87389SOL    HW279778   7.393   7.959  13.687  2.5326 -0.4244  1.0209
87390SOL     OW79779  12.612   2.422  11.553 -0.1091  0.0424  0.2042
87390SOL    HW179780  12.599   2.338  11.508 -0.3778  0.7274 -1.0260
87390SOL    HW279781  12.662   2.474  11.491  1.0183  0.4378  1.3988
87391SOL     OW79782  11.203   5.908   1.284  1.0013  0.0290 -0.3404
87391SOL    HW179783  11.222   5.857   1.206  0.2426 -0.4284 -0.2343
87391SOL    HW279784  11.146   5.852   1.337  0.7521  0.6941  0.1137
87392SOL     OW79785   0.603   8.327   5.793  0.3117  0.2211 -0.0697
87392SOL    HW179786   0.557   8.299   5.872  1.6319 -3.2043 -0.3525
87392SOL    HW279787   0.567   8.272   5.724 -0.9345  3.2402 -2.0257
87393SOL     OW79788   8.368  10.585   7.590  0.0700  0.0482 -0.7774
87393SOL    HW179789   8.422  10.601   7.667 -0.4284 -0.2862 -0.3456
87393SOL    HW279790   8.380  10.662   7.536  1.7669 -0.4525 -1.1772
87394SOL     OW79791   5.493  13.658   0.010  0.1284 -0.6945  0.0764
87394SOL    HW179792   5.505  13.690   0.099  1.3362 -2.3665  0.5540
87394SOL    HW279793   5.403  13.682  -0.012  0.2754  1.0203  1.1859
87395SOL     OW79794   5.704   4.667   4.977  0.1261 -0.2955  0.5955
87395SOL    HW179795   5.623   4.673   4.926  0.3388  0.2616  0.3121
87395SOL    HW279796   5.693   4.731   5.047  0.1564 -0.5054  0.7909
87396SOL     OW79797   8.424  12.033   4.247 -0.1808  0.1829 -0.2233
87396SOL    HW179798   8.353  12.092   4.223 -0.9099 -0.9175 -0.8473
87396SOL    HW279799   8.385  11.946   4.246  0.9603 -0.3598  0.3004
87397SOL     OW79800  11.366   3.556   7.522 -0.9190  0.0226 -0.5965
87397SOL    HW179801  11.354   3.643   7.485 -1.0841 -0.7500 -2.4313
87397SOL    HW279802  11.340   3.566   7.614  1.6212  2.5385  0.0141
87398SOL     OW79803   4.112  11.198   3.022  0.6738 -0.3735  0.2573
87398SOL    HW179804   4.193  11.219   2.975  0.0260  1.6848 -0.0065
87398SOL    HW279805   4.118  11.247   3.104 -0.5794  0.3170 -0.0424
87399SOL     OW79806   1.754  11.897   1.281  0.9647  0.2462  0.4758
87399SOL    HW179807   1.683  11.867   1.338  0.5268 -1.0940 -0.7161
87399SOL    HW279808   1.832  11.852   1.314  0.6319 -0.8790 -0.2074
87400SOL     OW79809   2.399   3.325   4.936  0.1313  0.4943  0.2210
87400SOL    HW179810   2.426   3.311   4.845 -0.9756 -2.9589  0.2950
87400SOL    HW279811   2.312   3.365   4.929 -0.9929 -1.8922 -0.3901
87401SOL     OW79812  11.972  10.668   9.128 -0.0351 -0.3380 -0.0709
87401SOL    HW179813  11.914  10.744   9.136  2.2553  1.5652 -0.3667
87401SOL    HW279814  11.961  10.622   9.212 -2.0725 -0.1965 -0.2010
87402SOL     OW79815  13.543   6.118   3.148 -0.3715  0.5054  0.2953
87402SOL    HW179816  13.595   6.089   3.073 -0.3069 -0.6517  0.7700
87402SOL    HW279817  13.452   6.103   3.122 -0.3852  0.8153  0.1618
87403SOL     OW79818   3.001   4.912   6.672 -0.5687 -0.1029 -0.2204
87403SOL    HW179819   3.040   4.988   6.714  0.4604  0.0383 -1.3483
87403SOL    HW279820   3.014   4.840   6.734 -3.4505  0.9419  1.8310
87404SOL     OW79821  11.203   6.911   3.889 -0.4847 -0.0323 -0.2233
87404SOL    HW179822  11.180   7.004   3.890 -0.5514 -0.0528  0.5988
87404SOL    HW279823  11.148   6.872   3.957  0.1143 -0.5313 -0.0194
87405SOL     OW79824   6.972   0.802   6.470 -0.4561  0.1224 -0.0107
87405SOL    HW179825   6.906   0.740   6.501 -1.3863  0.6136 -0.9346
87405SOL    HW279826   6.922   0.869   6.424  0.6868  0.5623 -0.6561
87406SOL     OW79827   6.778   0.936   5.467 -0.0459  0.7752  0.0247
87406SOL    HW179828   6.788   1.003   5.534 -1.8707 -0.3893  1.5811
87406SOL    HW279829   6.706   0.967   5.411 -0.7441  0.2666  0.6160
87407SOL     OW79830   2.580   9.520   5.350 -0.4739 -0.5323 -0.4732
87407SOL    HW179831   2.614   9.440   5.311  0.8733 -0.2800  0.1001
87407SOL    HW279832   2.655   9.581   5.346 -1.0564  0.2485  0.3238
87408SOL     OW79833  11.347   7.460   5.243 -0.5023  0.2343  0.3367
87408SOL    HW179834  11.334   7.493   5.154  0.6601 -0.0959  0.0335
87408SOL    HW279835  11.402   7.525   5.286  0.4576 -0.4826  0.2338
87409SOL     OW79836  10.081   3.006   8.193 -0.8493 -0.3580  0.5063
87409SOL    HW179837  10.157   3.064   8.193 -1.2010  0.1179  0.1176
87409SOL    HW279838  10.048   3.010   8.283 -0.8775  0.0693  0.4825
87410SOL     OW79839   8.960   3.118  11.513  0.1027 -0.1637 -0.0863
87410SOL    HW179840   9.043   3.116  11.561  0.2919  1.3130 -0.3270
87410SOL    HW279841   8.960   3.037  11.462  2.1890  0.6002 -1.3963
87411SOL     OW79842  11.306   3.938   5.672  0.0519 -0.6952  0.2393
87411SOL    HW179843  11.369   3.978   5.732 -0.4965  2.9812 -1.3987
87411SOL    HW279844  11.220   3.956   5.711 -0.2390  0.5682 -0.8862
87412SOL     OW79845   5.132   3.293  11.049  0.2287  0.1816 -0.3705
87412SOL    HW179846   5.206   3.332  11.001  1.6007 -0.6263  1.0026
87412SOL    HW279847   5.108   3.217  10.997  0.9074 -0.0050 -0.4211
87413SOL     OW79848  11.837   6.946   1.441 -0.2010 -1.0172 -0.4148
87413SOL    HW179849  11.918   6.902   1.418  0.0762 -0.2945 -0.8643
87413SOL    HW279850  11.788   6.951   1.359  0.0300  0.0134 -0.5116
87414SOL     OW79851   8.356  13.671   2.730  0.2855 -0.1508 -0.7450
87414SOL    HW179852   8.397  13.605   2.674  1.1539  1.1335 -1.6791
87414SOL    HW279853   8.422  13.740   2.738 -1.1486  1.3357 -1.1090
87415SOL     OW79854  11.455   8.045   1.193  0.1154 -0.7071 -0.0156
87415SOL    HW179855  11.463   7.998   1.110 -1.3880  0.3477 -0.7988
87415SOL    HW279856  11.533   8.099   1.198  0.0049 -0.4566 -0.9554
87416SOL     OW79857   1.964   5.470   1.952  0.1380 -0.1595 -0.6453
87416SOL    HW179858   1.926   5.551   1.985 -0.6367  0.2156 -2.3270
87416SOL    HW279859   1.942   5.470   1.858  1.5227 -1.5237 -1.0078
87417SOL     OW79860  12.288   0.988   3.371 -0.2793  0.2039  0.0002
87417SOL    HW179861  12.356   0.959   3.433  0.7527  0.8518 -0.7982
87417SOL    HW279862  12.208   0.947   3.403  0.5166 -0.7352  0.8686
87418SOL     OW79863   6.978   8.713   2.660 -0.3108 -0.1705  0.0789
87418SOL    HW179864   6.925   8.638   2.687 -0.8947  0.2265  0.0539
87418SOL    HW279865   7.040   8.727   2.732 -1.0116  0.0840  0.6393
87419SOL     OW79866   5.924   4.233   9.628  0.6121 -0.2114  0.0192
87419SOL    HW179867   5.830   4.238   9.648  0.3988 -0.2929 -0.9057
87419SOL    HW279868   5.959   4.316   9.659  0.1120  0.0864 -0.1949
87420SOL     OW79869   1.660   4.643   6.284 -0.1881  0.1238  0.2655
87420SOL    HW179870   1.570   4.614   6.267  0.2318 -1.7280  0.9846
87420SOL    HW279871   1.713   4.564   6.272  1.1096  0.7201  1.7448
87421SOL     OW79872   5.194  12.724   1.206  0.4762 -0.3605  0.5196
87421SOL    HW179873   5.289  12.713   1.212  0.5370  0.6997  2.2520
87421SOL    HW279874   5.183  12.809   1.163  0.2829 -0.7029 -0.1240
87422SOL     OW79875   9.951   9.694   8.775  0.5406 -0.2515  0.1592
87422SOL    HW179876  10.006   9.620   8.749 -0.9269 -1.3771  0.1030
87422SOL    HW279877   9.937   9.682   8.869  0.3546 -0.0238  0.1627
87423SOL     OW79878   3.104   7.287   3.808  0.2992 -0.4113  0.5593
87423SOL    HW179879   3.110   7.273   3.714 -0.5674 -2.2954  0.7415
87423SOL    HW279880   3.016   7.322   3.822 -0.0269 -1.2982  0.7732
87424SOL     OW79881  12.476   9.965  12.255 -0.4760  0.3180  0.4405
87424SOL    HW179882  12.398  10.020  12.246 -0.1431  1.3705  3.1935
87424SOL    HW279883  12.539  10.019  12.302  0.4186 -1.8736  1.9568
87425SOL     OW79884  13.023   0.434  11.390 -0.3395 -0.2402  0.2925
87425SOL    HW179885  12.953   0.448  11.455 -0.4777  0.3860  0.0164
87425SOL    HW279886  13.101   0.417  11.443 -0.6973 -0.9300  0.6047
87426SOL     OW79887  11.293   4.402  12.303 -0.1799 -0.0378  0.4526
87426SOL    HW179888  11.368   4.429  12.356 -0.4953  0.3986  0.6876
87426SOL    HW279889  11.217   4.424  12.357 -0.5353  0.9507 -0.4086
87427SOL     OW79890   7.320  12.072   4.076 -0.0845 -0.1773 -0.0301
87427SOL    HW179891   7.288  12.153   4.116  1.8543  0.1872  0.8633
87427SOL    HW279892   7.414  12.085   4.067 -0.0904 -1.2335 -2.5300
87428SOL     OW79893   3.001   5.015  12.994  0.2274 -0.0776  0.0648
87428SOL    HW179894   2.948   5.092  12.974 -1.5799 -1.1338  0.5094
87428SOL    HW279895   2.937   4.947  13.016  1.7735 -1.5562  0.2390
87429SOL     OW79896   8.724  14.017   6.788 -0.4023 -0.0402 -0.0566
87429SOL    HW179897   8.652  13.957   6.769  0.3166 -0.9879  0.1518
87429SOL    HW279898   8.792  13.994   6.725 -0.5897  1.4479 -0.8497
87430SOL     OW79899  12.042   2.386   7.267  0.5404 -0.0916 -0.3999
87430SOL    HW179900  12.041   2.477   7.299  0.2185  0.1145 -0.9707
87430SOL    HW279901  11.951   2.357   7.276  0.8852 -0.8022  0.9760
87431SOL     OW79902  12.259   9.140   6.591 -0.4120  0.5200  0.2893
87431SOL    HW179903  12.194   9.091   6.641 -0.3311 -0.4702 -0.5351
87431SOL    HW279904  12.211   9.215   6.556 -0.4010  1.3916  2.0386
87432SOL     OW79905  11.378   7.597  13.101 -0.2768 -0.6534 -0.2412
87432SOL    HW179906  11.311   7.573  13.165 -0.5380 -0.1417 -0.3140
87432SOL    HW279907  11.330   7.609  13.019 -0.1330 -0.0986 -0.2526
87433SOL     OW79908   4.992  11.482  10.511 -0.0891 -0.0746  0.0031
87433SOL    HW179909   5.005  11.531  10.430  1.1925 -0.6836 -0.1682
87433SOL    HW279910   4.897  11.479  10.522 -0.2466  0.6591 -1.0740
87434SOL     OW79911   8.363   7.386   3.906 -0.5808  0.3077 -0.1880
87434SOL    HW179912   8.318   7.463   3.871  0.5287  0.6426 -0.9275
87434SOL    HW279913   8.419   7.356   3.834  0.4301 -0.0484  0.7248
87435SOL     OW79914   8.522   4.926   1.666  0.0305  0.1547  0.0679
87435SOL    HW179915   8.613   4.931   1.693  0.1152 -2.0583  0.3837
87435SOL    HW279916   8.472   4.940   1.746  0.1645 -0.6527  0.3055
87436SOL     OW79917   3.306  13.940   9.183 -0.3683 -0.1354 -0.2827
87436SOL    HW179918   3.367  13.886   9.234 -1.6968 -0.8159  0.6429
87436SOL    HW279919   3.346  14.027   9.183  0.5161 -0.5179  0.4595
87437SOL     OW79920  11.362   7.645   5.497  0.0125  0.1648 -0.1194
87437SOL    HW179921  11.300   7.715   5.518 -0.1793 -0.4682  1.5786
87437SOL    HW279922  11.446   7.689   5.488 -0.4943  0.9234 -1.6248
87438SOL     OW79923   1.966   6.720   0.469 -0.0973  0.3420 -0.5357
87438SOL    HW179924   1.932   6.633   0.489  0.3696 -0.3243 -2.3872
87438SOL    HW279925   2.035   6.734   0.534 -1.0640 -0.0747  0.6176
87439SOL     OW79926   2.904  10.637  11.668 -0.1461  0.0157  0.0768
87439SOL    HW179927   2.905  10.597  11.756 -1.1315 -0.2670 -0.0300
87439SOL    HW279928   2.836  10.589  11.621 -1.2399  1.6939 -0.1235
87440SOL     OW79929   1.667   0.034   6.666  0.8746  0.0581  0.3893
87440SOL    HW179930   1.635   0.065   6.751 -0.0751  0.5907 -0.1481
87440SOL    HW279931   1.600  -0.027   6.637  1.2427 -0.1880  0.0508
87441SOL     OW79932   7.609   8.960   1.487 -0.3750 -0.1732  0.1465
87441SOL    HW179933   7.523   8.983   1.523  0.1380 -1.6729  2.5879
87441SOL    HW279934   7.619   8.867   1.508  1.2856 -0.3986 -1.3657
87442SOL     OW79935   1.928  11.334   2.968  0.3483 -0.2103 -0.6810
87442SOL    HW179936   1.888  11.254   3.003  0.1040 -0.1842 -0.8956
87442SOL    HW279937   1.892  11.342   2.880  0.3886  0.1263 -0.6679
87443SOL     OW79938   7.054  11.804   7.602 -0.1104 -0.4056  0.4297
87443SOL    HW179939   7.005  11.843   7.529  3.1513 -0.2434 -1.8874
87443SOL    HW279940   7.136  11.853   7.603  2.0879 -3.8254  0.7662
87444SOL     OW79941  11.436   1.278   4.535 -0.4746 -0.8489  0.3180
87444SOL    HW179942  11.384   1.312   4.608  0.5571 -0.0729  0.7242
87444SOL    HW279943  11.377   1.220   4.488 -1.5592 -0.3525  1.0267
87445SOL     OW79944   3.777   9.884   9.128  0.3451  0.0703  0.0036
87445SOL    HW179945   3.843   9.950   9.151  1.0802 -0.2099 -1.1727
87445SOL    HW279946   3.767   9.831   9.207  2.7680 -0.8850 -0.2464
87446SOL     OW79947   0.430  11.414   5.236 -0.3264 -0.8841  0.3155
87446SOL    HW179948   0.401  11.504   5.248 -0.0394 -0.8780  1.0074
87446SOL    HW279949   0.405  11.369   5.317 -1.1176 -1.6017 -0.3101
87447SOL     OW79950   4.602   2.106   5.221 -0.1659  0.2985 -0.0045
87447SOL    HW179951   4.542   2.180   5.231 -1.0133 -0.5276  1.3515
87447SOL    HW279952   4.545   2.030   5.213  0.6632 -0.5079  1.3125
87448SOL     OW79953   6.899   2.571   8.210  0.2758  0.1697  0.0077
87448SOL    HW179954   6.902   2.648   8.153 -0.2717 -0.9815 -1.6667
87448SOL    HW279955   6.840   2.511   8.165 -0.0982 -0.8575  1.7745
87449SOL     OW79956   4.015   6.322  13.877 -0.7512 -0.0940 -0.4597
87449SOL    HW179957   4.094   6.314  13.930 -1.5064 -0.0852  0.6998
87449SOL    HW279958   4.037   6.279  13.795  0.6221  0.3415 -0.3560
87450SOL     OW79959   5.604   0.036   4.087 -0.7314 -0.1199 -0.0270
87450SOL    HW179960   5.699   0.037   4.099 -0.6998 -1.7614  0.1294
87450SOL    HW279961   5.570   0.013   4.174 -1.5170  3.3743  0.7452
87451SOL     OW79962   0.304   4.404   3.249 -0.4199 -0.2175 -0.2229
87451SOL    HW179963   0.396   4.427   3.261 -0.7119  0.7448  0.2726
87451SOL    HW279964   0.292   4.408   3.154 -0.6175  2.5381 -0.1604
87452SOL     OW79965   8.975  13.744   6.504 -0.0646 -0.4186 -0.2906
87452SOL    HW179966   9.004  13.686   6.433 -1.9964 -0.0690 -1.4416
87452SOL    HW279967   8.913  13.691   6.554 -1.7479  0.5185 -1.2730
87453SOL     OW79968  10.862   7.660   7.802 -0.2099  0.3214 -0.1207
87453SOL    HW179969  10.791   7.599   7.821 -0.6436  0.6558 -0.6516
87453SOL    HW279970  10.829   7.745   7.829  0.2419  0.3881  0.2413
87454SOL     OW79971   0.429   0.146   0.629 -0.1043 -0.1198 -0.4515
87454SOL    HW179972   0.454   0.223   0.680 -0.2127 -0.8278  0.7009
87454SOL    HW279973   0.453   0.072   0.685 -2.9911 -0.8862 -0.0823
87455SOL     OW79974   1.769   3.989  13.136  0.3912  0.0340  0.4990
87455SOL    HW179975   1.722   4.066  13.169  0.1078  0.4678 -0.8770
87455SOL    HW279976   1.854   3.993  13.180 -0.7941 -0.7926  3.0901
87456SOL     OW79977  13.468   7.476   3.866  0.1573 -0.0451 -0.3733
87456SOL    HW179978  13.496   7.445   3.780  1.1189  0.7573 -0.3694
87456SOL    HW279979  13.509   7.562   3.875 -1.9532  1.0020 -0.1536
87457SOL     OW79980   2.843   2.179   8.261 -0.8030 -0.3691  0.0709
87457SOL    HW179981   2.931   2.217   8.264 -0.6935 -0.3810 -1.7129
87457SOL    HW279982   2.784   2.255   8.257 -0.8376 -0.3725  0.4365
87458SOL     OW79983  10.441   1.470   4.386  0.1375  0.2917 -0.2090
87458SOL    HW179984  10.402   1.529   4.451  0.5552  0.9489 -0.5453
87458SOL    HW279985  10.367   1.419   4.353  0.0547 -0.7290  1.4657
87459SOL     OW79986   3.294   0.113  13.331  0.4246  0.1779 -0.4196
87459SOL    HW179987   3.257   0.040  13.382  0.0469  0.4543 -0.2926
87459SOL    HW279988   3.380   0.127  13.369  1.1116 -1.1519 -1.3882
87460SOL     OW79989   2.920   7.807   9.279 -0.6562 -0.4589 -0.2799
87460SOL    HW179990   2.865   7.870   9.231 -1.2869 -0.6539  0.1671
87460SOL    HW279991   2.857   7.743   9.313 -0.2746 -0.0773  1.1883
87461SOL     OW79992   0.361  10.965   3.962 -0.0602 -0.0299  0.2924
87461SOL    HW179993   0.288  11.025   3.945  0.9055  1.5291  1.3134
87461SOL    HW279994   0.401  10.951   3.876 -0.3090  0.8177  0.0266
87462SOL     OW79995  10.901   4.187   3.019 -0.3233 -0.1124  0.0253
87462SOL    HW179996  10.810   4.208   3.043 -0.2785 -1.5443  1.6460
87462SOL    HW279997  10.895   4.101   2.977  0.3279 -0.5188  0.7359
87463SOL     OW79998   0.480   8.700   8.670  0.5302  0.3519  0.3792
87463SOL    HW179999   0.506   8.629   8.611 -0.8506 -0.1507  0.3510
87463SOL    HW280000   0.499   8.780   8.620  3.5595  0.1383  0.9903
87464SOL     OW80001   7.858   0.829   6.421 -0.5326 -0.5378  0.4774
87464SOL    HW180002   7.800   0.850   6.348  0.9991  1.1911 -0.3342
87464SOL    HW280003   7.884   0.914   6.456  0.6806 -1.2850  1.4719
87465SOL     OW80004   2.638  11.995   5.773  0.3069  0.4067 -0.5822
87465SOL    HW180005   2.574  12.061   5.799 -0.3614 -0.3665 -0.2083
87465SOL    HW280006   2.587  11.930   5.725  0.5630 -0.8147  0.7141
87466SOL     OW80007  13.901   5.333  13.931 -0.0594  0.1674  0.1100
87466SOL    HW180008  13.949   5.372  14.004  2.1931  1.7764 -2.0737
87466SOL    HW280009  13.846   5.404  13.897 -0.6998 -0.4126 -0.0983
87467SOL     OW80010   3.968   1.024   7.598  0.2714 -0.4618  0.2588
87467SOL    HW180011   3.890   0.970   7.608  1.9304 -3.0504  0.2651
87467SOL    HW280012   3.969   1.050   7.506 -0.2264 -1.0546  0.0824
87468SOL     OW80013   8.174  11.018  10.587  0.2364  0.2201  0.4193
87468SOL    HW180014   8.268  11.014  10.606  0.1854  0.5767  0.7744
87468SOL    HW280015   8.160  11.107  10.555  0.1194 -0.0213 -0.2036
87469SOL     OW80016   2.613   7.423  12.476 -0.2945 -0.8950  0.1090
87469SOL    HW180017   2.541   7.485  12.467  0.4283 -0.2130 -1.4688
87469SOL    HW280018   2.654   7.421  12.389  0.7441 -2.3067  0.5842
87470SOL     OW80019   3.536  12.036  10.463  0.2801  0.1032 -1.0267
87470SOL    HW180020   3.469  11.968  10.461 -1.6239  1.8491 -0.4757
87470SOL    HW280021   3.557  12.048  10.556  2.4347 -1.3366 -1.2564
87471SOL     OW80022  11.629   8.372   3.140 -0.7296 -0.2274 -0.1130
87471SOL    HW180023  11.679   8.358   3.059 -0.6312 -1.2521  0.1173
87471SOL    HW280024  11.540   8.345   3.117 -0.5084 -1.4004  0.3814
87472SOL     OW80025   2.790   3.369   8.727 -0.7814  0.2456  0.5432
87472SOL    HW180026   2.733   3.438   8.693 -1.5149  0.2857  1.7710
87472SOL    HW280027   2.869   3.414   8.756 -0.9978  0.4814  0.7652
87473SOL     OW80028   2.828  11.019  10.625  0.0054  0.1771 -0.3191
87473SOL    HW180029   2.766  10.961  10.581  0.0657  1.4180 -2.1205
87473SOL    HW280030   2.910  11.010  10.576 -0.3025  2.6065 -1.4275
87474SOL     OW80031   4.883  11.135   6.588 -0.0073 -0.4810 -0.2403
87474SOL    HW180032   4.901  11.041   6.595  1.1735 -0.1476  2.1705
87474SOL    HW280033   4.891  11.168   6.678  0.7401  2.1396 -1.1780
87475SOL     OW80034  10.117   7.470   3.056  0.4289 -0.0198  0.2857
87475SOL    HW180035  10.210   7.473   3.076  0.2468 -0.9075  1.3828
87475SOL    HW280036  10.079   7.540   3.109  0.3517 -0.2890  0.5872
87476SOL     OW80037   7.947  10.205  12.514 -0.4734  0.3058 -0.2689
87476SOL    HW180038   7.916  10.295  12.526 -0.3802  0.1392  1.3637
87476SOL    HW280039   7.872  10.150  12.538  0.1810 -0.0662  0.9825
87477SOL     OW80040   0.942  10.764   8.872 -0.2008 -0.3701 -0.0539
87477SOL    HW180041   0.998  10.720   8.936  0.0068  0.1422  0.1232
87477SOL    HW280042   0.887  10.694   8.836  1.7936 -1.2501 -1.5863
87478SOL     OW80043   9.029   9.242   9.860 -0.0949  0.6937  0.7011
87478SOL    HW180044   9.041   9.307   9.791  1.2106 -0.5148 -0.2668
87478SOL    HW280045   8.976   9.173   9.818  0.0751  0.2960  1.1366
87479SOL     OW80046   0.935  12.450   5.241  0.0966  0.0601 -0.4656
87479SOL    HW180047   0.893  12.485   5.319  0.0662 -0.8381 -0.0746
87479SOL    HW280048   0.997  12.519   5.215 -0.7333  0.8702 -0.3569
87480SOL     OW80049   4.824  12.850   1.495  0.3547 -0.1339  0.4894
87480SOL    HW180050   4.906  12.810   1.527  0.3337 -0.5197  0.0738
87480SOL    HW280051   4.848  12.892   1.413  0.3248  0.5249  0.8134
87481SOL     OW80052   2.679   0.921   4.451  0.3343 -0.0100 -0.3255
87481SOL    HW180053   2.688   1.013   4.427  1.8536  0.3287  1.3382
87481SOL    HW280054   2.668   0.922   4.546  0.1737 -1.5365 -0.3080
87482SOL     OW80055   4.896   0.044   2.062 -0.1048  0.2306  0.0880
87482SOL    HW180056   4.975   0.082   2.101  0.8827  0.5139 -2.0106
87482SOL    HW280057   4.868  -0.024   2.123  1.4997  0.4418  1.1052
87483SOL     OW80058   1.493   1.209   5.717 -0.0530 -0.2088 -0.2709
87483SOL    HW180059   1.573   1.261   5.714  1.2932 -2.1566 -0.2706
87483SOL    HW280060   1.468   1.199   5.625  0.2146 -0.3253 -0.3324
87484SOL     OW80061   6.264   5.148   8.991  0.1520  0.8969  0.3920
87484SOL    HW180062   6.303   5.197   8.918  0.2965  1.6965  0.9977
87484SOL    HW280063   6.319   5.071   9.001  0.9656  1.4922  0.5634
87485SOL     OW80064   6.194   2.091   3.876  0.1277 -0.1419 -0.2845
87485SOL    HW180065   6.165   2.052   3.959  0.5479  0.2170  0.0393
87485SOL    HW280066   6.259   2.157   3.902 -0.1524  0.3761 -0.8583
87486SOL     OW80067   1.380   5.028  12.083 -0.2070 -1.0496 -0.2095
87486SOL    HW180068   1.356   5.117  12.110 -0.1737 -1.5357  1.4733
87486SOL    HW280069   1.434   5.042  12.005 -1.3344  0.3281 -0.7998
87487SOL     OW80070   0.165  12.037  11.134 -0.2133  0.0177  0.5279
87487SOL    HW180071   0.134  12.123  11.161 -1.5772 -0.2288 -0.1395
87487SOL    HW280072   0.192  12.048  11.043 -2.0846 -0.5975 -0.1559
87488SOL     OW80073  11.373  12.635   7.552 -0.3517  0.1816  0.7298
87488SOL    HW180074  11.305  12.702   7.548 -1.6119 -1.1088 -0.8449
87488SOL    HW280075  11.340  12.572   7.616  0.0590  0.2476  1.0111
87489SOL     OW80076   1.752   0.505   4.686 -0.2664  0.1205 -0.1034
87489SOL    HW180077   1.814   0.572   4.715  1.4576 -1.1004 -0.7737
87489SOL    HW280078   1.774   0.428   4.738 -2.1490 -0.0012  0.5848
87490SOL     OW80079   1.450   2.097   5.948 -0.6951 -0.0323 -0.6108
87490SOL    HW180080   1.454   2.136   6.035  0.9354  0.7281 -0.9791
87490SOL    HW280081   1.487   2.009   5.959  0.8269  0.5525 -0.7335
87491SOL     OW80082  14.054  10.960  12.738  0.2426 -0.1793  0.1655
87491SOL    HW180083  14.009  10.964  12.654 -0.0028 -0.9941  0.2441
87491SOL    HW280084  14.027  10.876  12.776  1.3630 -0.4180  0.4836
87492SOL     OW80085   8.665  14.085   9.495  0.0500  0.1067  0.2073
87492SOL    HW180086   8.680  14.091   9.401  0.3273 -1.6073  0.1032
87492SOL    HW280087   8.738  14.133   9.534  0.9665 -0.7178 -0.4442
87493SOL     OW80088   1.877   2.827   3.574 -0.7306 -0.2154 -0.0090
87493SOL    HW180089   1.912   2.766   3.639  1.2714  0.9199  0.0472
87493SOL    HW280090   1.788   2.796   3.558 -1.3995 -0.4158  3.3987
87494SOL     OW80091   6.782   6.793   7.554  0.2496  0.6404 -0.1813
87494SOL    HW180092   6.718   6.856   7.522 -0.5563  0.0149  0.1506
87494SOL    HW280093   6.729   6.719   7.584  1.1660 -0.1866 -0.5534
87495SOL     OW80094  12.199  11.675   6.677 -0.0044  0.2550  0.2547
87495SOL    HW180095  12.112  11.714   6.665 -0.4585  0.0942  2.4773
87495SOL    HW280096  12.219  11.691   6.769  0.9963 -2.3549  0.5667
87496SOL     OW80097   5.517  11.030   8.028 -0.0115 -0.0140  0.1274
87496SOL    HW180098   5.509  10.986   8.113 -3.0536  2.4576  1.3186
87496SOL    HW280099   5.552  11.117   8.049  0.6772  0.1160 -1.3998
87497SOL     OW80100   6.745   5.425   5.294 -0.3535 -0.5329  0.4037
87497SOL    HW180101   6.658   5.452   5.264 -0.5970  0.8010  2.1265
87497SOL    HW280102   6.747   5.330   5.282 -0.7347 -0.2393 -2.8398
87498SOL     OW80103  13.764   8.644   7.084  0.5481  0.6626  0.1563
87498SOL    HW180104  13.713   8.665   7.006 -2.4156  2.0277  2.2859
87498SOL    HW280105  13.787   8.729   7.122  0.4436  0.0643  1.6273
87499SOL     OW80106   1.161   0.981   5.908  0.3543  0.1096  0.0225
87499SOL    HW180107   1.205   1.063   5.888  0.1864  0.4702  1.0718
87499SOL    HW280108   1.086   1.006   5.961 -0.5650 -0.5911 -0.8937
87500SOL     OW80109  13.562   5.371   3.505  0.2315 -0.2139  0.1512
87500SOL    HW180110  13.608   5.450   3.533 -0.2552  0.2398 -0.3236
87500SOL    HW280111  13.613   5.338   3.432 -1.7122  1.9118 -2.3422
87501SOL     OW80112  12.013   3.582  12.716 -0.4841  0.0026 -0.2499
87501SOL    HW180113  11.918   3.576  12.707 -0.3674 -1.6459 -0.7588
87501SOL    HW280114  12.027   3.660  12.769 -2.2489 -0.9174  1.7571
87502SOL     OW80115  13.091   7.238  13.360 -0.0317 -0.6304 -0.1823
87502SOL    HW180116  13.143   7.217  13.438  0.7973 -0.6409 -0.7293
87502SOL    HW280117  13.051   7.323  13.379  2.3555  0.7114 -0.8034
87503SOL     OW80118   7.656   1.684  12.233  0.4570 -0.1917 -0.6633
87503SOL    HW180119   7.717   1.627  12.280 -1.7938 -2.8527 -0.7161
87503SOL    HW280120   7.617   1.627  12.166 -0.6081  1.9503 -1.9823
87504SOL     OW80121  12.967  11.972   4.360 -0.1742 -0.0041 -0.1043
87504SOL    HW180122  13.027  12.034   4.402 -1.3788  0.1694  1.4819
87504SOL    HW280123  12.897  12.027   4.324 -0.7333 -0.3463  0.4280
87505SOL     OW80124   7.592   7.118   6.673  0.2114  0.1164  0.0708
87505SOL    HW180125   7.664   7.180   6.667  0.6007 -0.4442 -2.3898
87505SOL    HW280126   7.549   7.123   6.587 -2.7703  0.4636  1.4317
87506SOL     OW80127  13.338   4.951   5.891 -0.0178 -0.0657 -0.0654
87506SOL    HW180128  13.378   4.981   5.973  0.9778 -1.4327 -0.0240
87506SOL    HW280129  13.411   4.919   5.839 -0.5701  1.1823 -1.7075
87507SOL     OW80130   2.387   2.619  13.125  0.9961 -0.6007  0.6863
87507SOL    HW180131   2.399   2.554  13.195 -0.1279  0.2289  1.6860
87507SOL    HW280132   2.294   2.615  13.104  1.0918  0.0282  0.1000
87508SOL     OW80133   5.856   4.853  13.537 -0.1429 -0.1412  0.9723
87508SOL    HW180134   5.805   4.818  13.610  1.3023 -1.2938  1.4815
87508SOL    HW280135   5.928   4.901  13.580 -0.0670  0.3644  0.2901
87509SOL     OW80136   9.897   8.775   0.028 -0.1147  0.1088 -0.1099
87509SOL    HW180137   9.935   8.830  -0.041 -0.6295  1.5417  0.6957
87509SOL    HW280138   9.828   8.830   0.066 -0.8363 -1.2275  0.5643
87510SOL     OW80139  10.894   9.508   1.492 -0.3489  0.3169  0.2655
87510SOL    HW180140  10.922   9.537   1.405 -0.3773  0.6177  0.3552
87510SOL    HW280141  10.818   9.452   1.475 -0.3517  0.3710  0.0961
87511SOL     OW80142  10.338   7.840   4.140  0.1130  0.1718  0.4753
87511SOL    HW180143  10.266   7.904   4.133 -0.5393 -0.6878 -1.6141
87511SOL    HW280144  10.412   7.884   4.098 -0.3874 -0.4403 -1.1347
87512SOL     OW80145   9.477   5.984   6.561 -0.0481  0.4174 -0.3013
87512SOL    HW180146   9.448   5.958   6.649 -0.2970  0.6499 -0.3139
87512SOL    HW280147   9.498   6.077   6.569  3.2508 -0.2738  0.3776
87513SOL     OW80148  11.089   3.760   6.522 -0.0455 -0.8473 -0.4800
87513SOL    HW180149  11.006   3.804   6.540  0.7451  0.3408  0.3692
87513SOL    HW280150  11.075   3.670   6.552 -1.4146 -1.0018 -1.4935
87514SOL     OW80151   1.475   5.552  12.517  0.1444  0.7245 -0.0069
87514SOL    HW180152   1.563   5.521  12.540  0.1710 -0.0244 -1.0501
87514SOL    HW280153   1.456   5.620  12.583  0.2232 -1.2103  2.1396
87515SOL     OW80154  10.820   7.484   8.161  0.3267 -0.2941  0.0912
87515SOL    HW180155  10.823   7.469   8.255  0.9446 -1.4184 -0.0853
87515SOL    HW280156  10.889   7.548   8.144  0.5710 -0.4955  0.3279
87516SOL     OW80157  13.372  13.333   5.712 -0.2067  0.2948 -0.1759
87516SOL    HW180158  13.406  13.287   5.789 -0.1427  0.6788  0.0277
87516SOL    HW280159  13.280  13.350   5.733  0.3053  2.2577  0.7317
87517SOL     OW80160   4.195   3.741   0.610  0.0138 -0.1632 -0.0734
87517SOL    HW180161   4.154   3.804   0.669  1.7102  1.5571 -0.6114
87517SOL    HW280162   4.149   3.753   0.527  1.8822  2.2678 -0.8736
87518SOL     OW80163  11.286  12.879   7.470  0.0972  0.0146  0.3013
87518SOL    HW180164  11.347  12.946   7.439 -1.2071  0.6041 -1.1194
87518SOL    HW280165  11.201  12.906   7.435 -0.8772 -1.1291  1.6801
87519SOL     OW80166   3.494   7.585   7.998 -0.2857 -0.2647  0.2575
87519SOL    HW180167   3.494   7.526   8.073 -0.2548 -1.6100 -0.7734
87519SOL    HW280168   3.518   7.670   8.035 -0.9541 -0.7396  1.8800
87520SOL     OW80169  13.838  13.601   1.484 -0.3163  0.1528  0.1441
87520SOL    HW180170  13.878  13.526   1.442 -0.6778 -1.4187  2.3921
87520SOL    HW280171  13.745  13.596   1.459 -0.1627  0.4555 -0.5012
87521SOL     OW80172   4.846   6.697   5.335 -0.4969 -0.1531  0.2847
87521SOL    HW180173   4.833   6.727   5.246 -0.8640 -2.7708 -0.6369
87521SOL    HW280174   4.941   6.691   5.345 -0.4558  0.1491  0.0790
87522SOL     OW80175   0.130   3.500   5.879  0.5138 -0.1202  0.0152
87522SOL    HW180176   0.214   3.453   5.884  1.1813  0.9884 -0.4093
87522SOL    HW280177   0.072   3.451   5.938  1.2605 -1.2928 -0.1919
87523SOL     OW80178   3.763   1.672   9.636 -0.4009  0.5760  0.3796
87523SOL    HW180179   3.792   1.583   9.619 -2.5866 -0.4941  1.7815
87523SOL    HW280180   3.749   1.710   9.550  2.1263  0.1704 -0.2718
87524SOL     OW80181   3.839  13.872   0.779  0.0631  0.1965 -0.0323
87524SOL    HW180182   3.820  13.780   0.799 -0.8108  0.3435 -0.1380
87524SOL    HW280183   3.925  13.870   0.736  0.2324 -0.5261  0.3137
87525SOL     OW80184   9.430   2.607   9.782 -0.2787 -0.1118  0.0213
87525SOL    HW180185   9.434   2.517   9.751 -1.1435 -0.2003  0.1613
87525SOL    HW280186   9.358   2.646   9.733 -0.9277  0.0621  1.0949
87526SOL     OW80187  13.188  12.523  12.628 -0.3403  0.0493  0.0180
87526SOL    HW180188  13.272  12.569  12.628 -1.2416  1.8184 -0.6392
87526SOL    HW280189  13.171  12.504  12.536 -1.7053  1.8747 -0.1714
87527SOL     OW80190   0.311   5.584   6.719  0.0555  0.1449  0.1986
87527SOL    HW180191   0.382   5.574   6.782  1.4065 -2.7580 -1.5955
87527SOL    HW280192   0.354   5.613   6.638 -1.4046  2.0365  0.0064
87528SOL     OW80193   9.955   0.525  14.051  0.3012  0.2591  0.1212
87528SOL    HW180194   9.928   0.593  13.989  0.3828  0.4558  0.3023
87528SOL    HW280195  10.040   0.496  14.020 -0.6106 -1.1887 -1.1406
87529SOL     OW80196   2.826   1.971  10.711 -0.3172 -0.2124 -0.5839
87529SOL    HW180197   2.843   1.908  10.781 -0.8679  1.8187  1.4770
87529SOL    HW280198   2.907   2.022  10.705 -0.5948  0.2064 -0.7942
87530SOL     OW80199   6.307   0.440   4.698 -0.6985  0.1312  0.1308
87530SOL    HW180200   6.263   0.369   4.651  0.0093 -0.5363  0.4576
87530SOL    HW280201   6.391   0.403   4.725 -0.7206  0.7718  1.1535
87531SOL     OW80202  10.921   5.726   3.814  0.0521  0.6239 -0.1657
87531SOL    HW180203  10.920   5.670   3.892 -0.2869 -0.7404 -1.1161
87531SOL    HW280204  11.000   5.699   3.766 -0.4499  0.5101 -0.9448
87532SOL     OW80205   2.858   1.740  10.875  0.1104  0.2993  0.0045
87532SOL    HW180206   2.811   1.657  10.872  3.2991 -1.6209 -1.0711
87532SOL    HW280207   2.880   1.752  10.968 -0.9092  0.2965  0.2532
87533SOL     OW80208   4.336   7.760   7.439 -0.0851 -0.3653  0.2568
87533SOL    HW180209   4.252   7.801   7.422  0.5461  1.5164  1.3442
87533SOL    HW280210   4.319   7.697   7.509 -0.3887  0.9768  1.4356
87534SOL     OW80211   4.348   8.573   4.338 -0.2827 -0.2354 -0.1519
87534SOL    HW180212   4.369   8.642   4.274 -1.5122  0.3516  0.0467
87534SOL    HW280213   4.423   8.513   4.334 -1.1592 -1.3408 -3.6266
87535SOL     OW80214  13.058   2.845  11.792  0.2613  0.2072  0.3037
87535SOL    HW180215  13.130   2.897  11.756  0.4702 -0.4027 -0.1791
87535SOL    HW280216  13.026   2.896  11.866  0.4596  1.0206 -0.1657
87536SOL     OW80217  13.058   3.750  11.975  0.6970  0.3845 -0.3089
87536SOL    HW180218  13.140   3.794  11.996  1.6466 -1.8895  1.1713
87536SOL    HW280219  13.085   3.666  11.938 -1.0161  0.7906 -2.7306
87537SOL     OW80220   3.654   3.006   3.433 -0.6223  0.5389 -0.1823
87537SOL    HW180221   3.747   3.029   3.423 -0.6049  0.5100 -0.0888
87537SOL    HW280222   3.612   3.043   3.355 -0.2603 -1.0012 -1.1602
87538SOL     OW80223   0.548   2.950   1.699  0.2524  0.1869 -0.4244
87538SOL    HW180224   0.476   2.917   1.646 -0.0728 -0.3349  0.3174
87538SOL    HW280225   0.621   2.892   1.680 -0.1770 -0.6851  0.5015
87539SOL     OW80226  10.854  13.576   7.651 -0.3163  0.0628  0.1796
87539SOL    HW180227  10.928  13.540   7.701 -0.6799 -1.7462 -0.4970
87539SOL    HW280228  10.827  13.653   7.701  0.2389 -0.8431  1.9848
87540SOL     OW80229   3.323   1.711   8.388  0.0001 -0.4058  0.3918
87540SOL    HW180230   3.244   1.659   8.377 -0.0409 -0.1111 -0.8256
87540SOL    HW280231   3.316   1.747   8.476 -2.8831  2.3002 -0.7676
87541SOL     OW80232   1.026  13.358   4.596  0.2160  0.0833  0.3792
87541SOL    HW180233   1.100  13.359   4.536  0.0216  0.9572  0.1358
87541SOL    HW280234   0.993  13.268   4.593  0.7967 -0.1214 -0.0793
87542SOL     OW80235   3.761   6.106   1.674 -0.0884  0.4808 -0.2214
87542SOL    HW180236   3.824   6.077   1.740 -0.9038  0.2939  0.4894
87542SOL    HW280237   3.713   6.027   1.650  0.3520  0.4989 -1.2294
87543SOL     OW80238   9.296   9.215   1.285 -0.4747  0.4314 -0.1743
87543SOL    HW180239   9.314   9.130   1.246  1.2525  1.2498 -1.2746
87543SOL    HW280240   9.221   9.249   1.236 -0.8714 -0.2446 -0.0404
87544SOL     OW80241   2.885   6.526  11.063 -0.4960  0.3442 -0.6626
87544SOL    HW180242   2.881   6.614  11.102 -1.7376  0.7511 -1.6342
87544SOL    HW280243   2.926   6.540  10.977  1.8287 -0.4794  0.2388
87545SOL     OW80244   8.553  12.406   0.600  0.6416  0.6145 -0.5139
87545SOL    HW180245   8.591  12.320   0.618 -0.1230  0.6252  1.4483
87545SOL    HW280246   8.626  12.467   0.607  0.9750  0.2478 -0.7631
87546SOL     OW80247   0.238   3.314   6.128 -0.0630  0.0764 -0.0514
87546SOL    HW180248   0.257   3.265   6.048 -0.5011 -0.5969  0.2497
87546SOL    HW280249   0.163   3.269   6.167  0.1513  0.3855  0.7460
87547SOL     OW80250   9.328   5.114   6.843 -0.1925  0.2404 -0.0915
87547SOL    HW180251   9.368   5.075   6.921  0.6820 -0.6394 -0.9669
87547SOL    HW280252   9.313   5.041   6.783  0.2303  1.0464 -1.2218
87548SOL     OW80253   5.774   3.690   5.024  0.1543 -0.7714 -0.1903
87548SOL    HW180254   5.678   3.697   5.024  0.1826 -0.3438 -0.7675
87548SOL    HW280255   5.802   3.741   5.100 -0.1066 -1.5012  0.4161
87549SOL     OW80256   0.112  12.981  13.740  0.3434 -0.4101 -0.0283
87549SOL    HW180257   0.161  12.904  13.769  0.1846 -0.0504  1.2261
87549SOL    HW280258   0.088  13.027  13.820  2.7900  2.4681 -0.7680
87550SOL     OW80259   3.207   6.922   4.608  0.3349  0.1329  0.6546
87550SOL    HW180260   3.282   6.955   4.559 -0.1671  2.2178  1.1878
87550SOL    HW280261   3.134   6.927   4.545  0.4505 -1.0616  0.4039
87551SOL     OW80262   1.010   3.544   4.022  0.4747  0.0227  0.2435
87551SOL    HW180263   0.996   3.450   4.032  0.1683  0.1061  0.5920
87551SOL    HW280264   1.067   3.552   3.945  1.3359 -0.5105  0.8091
87552SOL     OW80265  13.571  11.564  12.897  0.0698 -0.3426  0.1661
87552SOL    HW180266  13.594  11.577  12.989  1.3287  0.2180 -0.2076
87552SOL    HW280267  13.545  11.651  12.867  0.1042 -0.4320 -0.1227
87553SOL     OW80268   9.574  11.674   0.687  0.1204 -0.0754 -0.5687
87553SOL    HW180269   9.572  11.585   0.722  0.5377 -0.1154 -0.6414
87553SOL    HW280270   9.497  11.717   0.725 -0.9197 -0.8883 -1.6934
87554SOL     OW80271   6.541  11.282   8.790 -0.0879 -0.3380  0.2507
87554SOL    HW180272   6.580  11.279   8.878  0.8300  0.3532 -0.1191
87554SOL    HW280273   6.520  11.191   8.770  0.7090 -0.6425  0.7512
87555SOL     OW80274   6.787  13.713   6.312  0.3033 -0.6956 -0.7508
87555SOL    HW180275   6.698  13.693   6.341 -0.1491  1.6475 -0.2919
87555SOL    HW280276   6.775  13.771   6.237  1.4274 -0.0357 -0.4437
87556SOL     OW80277   2.468   1.035  13.695  0.1848 -0.0276  0.4637
87556SOL    HW180278   2.482   1.128  13.716  0.2544  0.1762 -0.4531
87556SOL    HW280279   2.552   1.004  13.664 -0.1036 -0.1084 -0.2617
87557SOL     OW80280   1.644   0.195  10.611 -0.4312 -0.0316  0.4407
87557SOL    HW180281   1.734   0.184  10.580  0.0840  0.4851  1.7025
87557SOL    HW280282   1.629   0.289  10.610 -1.4066 -0.1698 -0.9113
87558SOL     OW80283   8.000  12.654   5.910  0.3045  0.1140  0.2823
87558SOL    HW180284   7.935  12.718   5.880  1.5137  1.3348  0.1423
87558SOL    HW280285   8.027  12.608   5.830 -1.1433 -1.1769  0.4950
87559SOL     OW80286   6.501   3.162  11.367  0.1947 -0.0229  0.4797
87559SOL    HW180287   6.422   3.140  11.417 -0.0661 -4.4541 -1.4195
87559SOL    HW280288   6.571   3.161  11.432 -0.7295 -0.6448  1.4970
87560SOL     OW80289  10.021  11.642   2.279 -0.4041 -0.0789  0.3423
87560SOL    HW180290  10.010  11.663   2.187  1.0915  1.5939  0.4814
87560SOL    HW280291  10.114  11.657   2.296 -0.3680 -1.6050  1.8418
87561SOL     OW80292  11.500  10.685  10.226 -0.1586 -0.1753 -0.3633
87561SOL    HW180293  11.546  10.626  10.167  1.8528  0.0323  0.8877
87561SOL    HW280294  11.547  10.768  10.220  1.4957 -0.6929  2.9333
87562SOL     OW80295   1.496   6.406   7.244  0.5873  0.7883  0.6641
87562SOL    HW180296   1.560   6.357   7.192 -1.2005 -0.4189 -0.4958
87562SOL    HW280297   1.458   6.341   7.302 -0.0822  1.3522  0.8679
87563SOL     OW80298  13.392   3.046   5.094  0.4396 -0.0458 -0.5607
87563SOL    HW180299  13.352   2.961   5.078 -0.3779 -0.2058  1.9241
87563SOL    HW280300  13.321   3.109   5.084  0.5753  0.1297 -0.4494
87564SOL     OW80301   5.021   4.753   3.414 -0.0282 -0.2942 -0.2683
87564SOL    HW180302   4.990   4.674   3.458  0.2505 -1.7205 -2.4550
87564SOL    HW280303   5.114   4.758   3.436 -0.2716  0.0247  0.7066
87565SOL     OW80304   5.591  11.087   2.827  0.0763 -0.2325  0.1801
87565SOL    HW180305   5.629  11.003   2.852 -1.1506 -1.0765 -0.6675
87565SOL    HW280306   5.617  11.147   2.897  0.9717 -1.3105  0.8056
87566SOL     OW80307   1.366  12.012   0.631 -0.3504 -0.1417  0.6211
87566SOL    HW180308   1.388  11.943   0.568 -1.2343  1.2375 -1.2942
87566SOL    HW280309   1.442  12.016   0.689  0.2966 -1.8035 -0.0419
87567SOL     OW80310   3.514  10.292   7.423 -0.0710 -0.0600 -0.6385
87567SOL    HW180311   3.475  10.378   7.410 -0.4422 -0.2529 -0.8292
87567SOL    HW280312   3.439  10.231   7.421 -0.2761 -0.1157  2.7056
87568SOL     OW80313   5.698   8.298  12.954  0.1560 -0.7131 -0.2271
87568SOL    HW180314   5.640   8.224  12.966  1.4360 -1.3316  3.4662
87568SOL    HW280315   5.785   8.260  12.945  0.6208  0.2720 -0.1123
87569SOL     OW80316   7.770   5.263   1.644  0.2072 -0.0553  0.3718
87569SOL    HW180317   7.712   5.335   1.617  0.6419  0.6451  1.2544
87569SOL    HW280318   7.730   5.185   1.607 -1.1605  0.4453  0.7285
87570SOL     OW80319   0.337   3.139   6.375 -0.1303  0.6242  0.3215
87570SOL    HW180320   0.294   3.205   6.321 -0.9154 -0.3781 -0.3097
87570SOL    HW280321   0.275   3.067   6.380  1.6619 -1.1343 -1.1081
87571SOL     OW80322  13.075   2.881   0.117  0.0626  0.3329 -0.1695
87571SOL    HW180323  12.994   2.893   0.067  0.1206 -0.1358 -0.3781
87571SOL    HW280324  13.101   2.791   0.100  0.6988  0.5159 -0.1999
87572SOL     OW80325   4.945   2.270  11.236  0.0356  0.1228 -0.0942
87572SOL    HW180326   4.850   2.273  11.243  0.0718 -0.4924  0.7901
87572SOL    HW280327   4.966   2.335  11.169 -1.0075  0.2207 -0.3437
87573SOL     OW80328  12.586  11.852   6.540  0.1048  0.2080  0.1753
87573SOL    HW180329  12.499  11.876   6.571  0.1051  0.2094  0.1742
87573SOL    HW280330  12.596  11.760   6.562  0.5369  0.4832  1.1677
87574SOL     OW80331  11.335   3.210  13.992 -0.0547  0.8663  0.6117
87574SOL    HW180332  11.333   3.295  13.949  2.7809  0.6737 -0.0532
87574SOL    HW280333  11.313   3.147  13.923 -2.1771  0.9758  1.1090
87575SOL     OW80334   4.896  10.863   1.018 -0.0920 -0.1977  0.3989
87575SOL    HW180335   4.980  10.908   1.006  0.0670 -0.2704  1.2136
87575SOL    HW280336   4.831  10.926   0.986  0.2399  0.0044  0.1137
87576SOL     OW80337   3.789   7.720   9.034  0.2156 -0.5812  0.4817
87576SOL    HW180338   3.791   7.754   9.124 -2.2644  2.2749 -0.3777
87576SOL    HW280339   3.757   7.793   8.981  0.6770 -2.4438 -2.6419
87577SOL     OW80340   6.665   6.770   1.764  0.4844 -0.0537  0.3714
87577SOL    HW180341   6.589   6.765   1.822 -0.7607  0.4361 -1.1469
87577SOL    HW280342   6.677   6.864   1.749  1.6261 -0.1042  0.8561
87578SOL     OW80343   8.024   2.628   4.119 -0.5067 -0.3133 -0.2197
87578SOL    HW180344   8.116   2.613   4.099 -0.5731  1.2044 -1.8189
87578SOL    HW280345   8.001   2.557   4.179  1.5954 -0.9192 -0.0637
87579SOL     OW80346   8.417   0.643   7.879  0.3394  0.0429  0.4127
87579SOL    HW180347   8.506   0.635   7.845  0.2961 -1.5179  0.5569
87579SOL    HW280348   8.368   0.688   7.810  0.6870 -1.3651 -0.8244
87580SOL     OW80349   2.940   4.535   2.247  0.3800  0.1805  0.1021
87580SOL    HW180350   2.942   4.615   2.194  2.1727  1.0092  1.3033
87580SOL    HW280351   2.951   4.464   2.184 -0.1230  0.9419 -0.8777
87581SOL     OW80352  12.039   1.581  14.071 -0.4575 -0.3084  0.4825
87581SOL    HW180353  11.994   1.524  14.133  0.1736 -0.2411  1.0126
87581SOL    HW280354  12.080   1.648  14.125  2.3802 -1.7550  0.2947
87582SOL     OW80355   7.163  14.026   7.723 -0.0245 -0.2152 -0.2519
87582SOL    HW180356   7.107  14.101   7.746 -2.0158 -1.6942 -0.0194
87582SOL    HW280357   7.164  14.026   7.627 -0.6453 -0.3006 -0.2656
87583SOL     OW80358   1.491   2.416   2.197 -0.9290 -0.1390  0.5397
87583SOL    HW180359   1.516   2.324   2.208 -1.3571 -0.3875 -0.4874
87583SOL    HW280360   1.573   2.464   2.195 -0.6460 -0.6544 -0.2680
87584SOL     OW80361   6.280   2.272   7.763  0.2275  0.2200  0.2053
87584SOL    HW180362   6.247   2.351   7.720  1.5364 -0.0559 -1.4081
87584SOL    HW280363   6.365   2.298   7.799 -0.4624  0.2001  1.9484
87585SOL     OW80364   4.900   1.441  13.914  0.4327  0.5588  0.0942
87585SOL    HW180365   4.870   1.354  13.886 -1.4692  0.8744  1.0173
87585SOL    HW280366   4.940   1.425  14.000 -0.6031  0.6830  0.6121
87586SOL     OW80367   7.355   1.830   9.831  0.0704 -0.7220  0.1432
87586SOL    HW180368   7.423   1.779   9.787  0.2744 -0.2908 -0.0460
87586SOL    HW280369   7.286   1.766   9.851  0.7369 -1.2702  0.7757
87587SOL     OW80370   1.691  12.419   6.535  0.9487 -0.2703  0.1993
87587SOL    HW180371   1.715  12.383   6.450  0.6366 -0.8988  0.3718
87587SOL    HW280372   1.654  12.345   6.583  2.8238 -0.3894  1.5660
87588SOL     OW80373  10.267   1.842   5.239  0.5953 -0.0345 -0.1693
87588SOL    HW180374  10.239   1.760   5.198 -0.8466 -0.4504  1.5491
87588SOL    HW280375  10.255   1.828   5.333  0.9625  1.9050  0.2133
87589SOL     OW80376  11.675   9.843   4.516 -0.5880 -0.1326  0.0762
87589SOL    HW180377  11.671   9.882   4.603  0.1527 -1.0696  0.5557
87589SOL    HW280378  11.584   9.838   4.486 -0.8185  0.4467  0.6747
87590SOL     OW80379  12.460   5.238   2.623  0.5959 -0.5632 -0.1068
87590SOL    HW180380  12.415   5.153   2.628  0.0546 -0.2825 -0.1500
87590SOL    HW280381  12.469   5.255   2.529 -1.1407  0.3723 -0.1529
87591SOL     OW80382  13.439   9.580   9.057 -0.1073 -0.2236 -0.2892
87591SOL    HW180383  13.455   9.579   9.151 -1.0148 -1.3795 -0.1079
87591SOL    HW280384  13.350   9.615   9.048 -0.0604 -0.2020 -0.7002
87592SOL     OW80385   9.545  11.892   9.942  0.0737 -0.5652  0.6488
87592SOL    HW180386   9.604  11.946   9.890  0.5224 -1.0328  0.6688
87592SOL    HW280387   9.576  11.803   9.930 -0.5631 -0.8094  0.7466
87593SOL     OW80388   8.480   1.300   7.665  0.1636  0.2931 -0.1783
87593SOL    HW180389   8.517   1.364   7.726  0.9364  2.1958 -2.5081
87593SOL    HW280390   8.388   1.323   7.659 -0.4409 -1.3221  1.8691
87594SOL     OW80391   5.236  11.108   4.450 -0.1650  0.1323 -0.4861
87594SOL    HW180392   5.183  11.181   4.483 -0.8587 -1.2683  1.7547
87594SOL    HW280393   5.306  11.099   4.514  1.8481  0.8171 -2.4759
87595SOL     OW80394  12.021   9.837   4.154  0.5326 -0.4510  0.1107
87595SOL    HW180395  12.075   9.905   4.115  0.5807 -0.7823 -0.4098
87595SOL    HW280396  11.947   9.884   4.192  0.6230 -0.0956 -0.1459
87596SOL     OW80397   3.291   7.308   1.101 -0.0848  0.2983  0.4559
87596SOL    HW180398   3.200   7.280   1.101 -0.5272  1.6345  0.0392
87596SOL    HW280399   3.319   7.299   1.192 -0.6164 -0.1486  0.5831
87597SOL     OW80400   6.758   1.111   2.312  0.1745  0.2049 -0.0385
87597SOL    HW180401   6.737   1.195   2.271 -0.7637 -0.6158 -1.3286
87597SOL    HW280402   6.747   1.126   2.406  0.5838  1.6628 -0.2045
87598SOL     OW80403   9.837   0.590   3.173  0.5051 -0.6318  0.4224
87598SOL    HW180404   9.854   0.626   3.086 -0.0833  0.5389  0.7608
87598SOL    HW280405   9.743   0.570   3.172  0.4835 -0.5619  0.7973
87599SOL     OW80406   0.838   6.572   2.790  0.3405  0.6320 -0.2437
87599SOL    HW180407   0.871   6.482   2.794 -1.4741 -0.2035 -2.3524
87599SOL    HW280408   0.912   6.626   2.816  1.2724 -1.4699  1.8472
87600SOL     OW80409  13.291   8.652   1.351  0.4309 -0.1916 -0.2300
87600SOL    HW180410  13.227   8.651   1.422 -1.9791  0.4938 -2.2685
87600SOL    HW280411  13.360   8.711   1.383  1.3075 -2.6407  2.9303
87601SOL     OW80412   7.322   6.794   5.363  0.1501 -0.4873  0.4601
87601SOL    HW180413   7.258   6.734   5.402 -0.3260 -0.4835 -0.3046
87601SOL    HW280414   7.351   6.848   5.437  1.7030 -2.5951  1.4814
87602SOL     OW80415  11.019   3.405  10.671 -0.0640  0.1209 -0.0850
87602SOL    HW180416  11.008   3.496  10.643  1.3356  0.4052  0.2139
87602SOL    HW280417  11.112   3.388  10.659 -0.3269 -1.3183 -0.2428
87603SOL     OW80418   0.917   4.804   9.833 -0.3212  0.2043 -0.2930
87603SOL    HW180419   0.910   4.730   9.893 -0.0462 -0.7158 -1.3729
87603SOL    HW280420   0.845   4.862   9.858 -0.0916 -0.0534  1.0501
87604SOL     OW80421  10.363  12.343  13.403  0.0114 -0.0436 -1.0380
87604SOL    HW180422  10.426  12.410  13.379 -0.6011  0.5308 -1.0608
87604SOL    HW280423  10.412  12.282  13.459  0.7718 -0.0146 -1.6649
87605SOL     OW80424  11.934  10.872  12.344  0.2586 -0.0539 -0.3245
87605SOL    HW180425  11.967  10.905  12.261 -0.5116  0.5460 -0.4008
87605SOL    HW280426  11.917  10.950  12.397  0.1245 -0.3977  0.1529
87606SOL     OW80427   7.663  11.591   4.818  0.6887 -0.2165  0.4076
87606SOL    HW180428   7.631  11.513   4.863  0.1958  0.0890  0.5986
87606SOL    HW280429   7.587  11.623   4.768  1.0120 -0.1111 -0.0232
87607SOL     OW80430   8.917  11.992   3.459  0.3986  0.1861  0.3086
87607SOL    HW180431   8.976  11.929   3.419  2.7475  1.3406  1.7284
87607SOL    HW280432   8.889  11.951   3.541  0.5255  0.2657  0.3930
87608SOL     OW80433   6.329  12.634   4.967 -0.2713 -0.1153  0.1220
87608SOL    HW180434   6.308  12.706   4.908 -0.4322  0.6190  1.0515
87608SOL    HW280435   6.414  12.602   4.937 -0.7395 -0.3146 -1.0259
87609SOL     OW80436  10.313   9.915  12.297 -0.4647  0.6518 -0.5671
87609SOL    HW180437  10.300   9.820  12.309 -2.8155  0.8650 -0.8422
87609SOL    HW280438  10.398   9.922  12.254  0.3435 -1.2373  0.5874
87610SOL     OW80439  11.785  13.392  11.108  0.2501 -0.1603  0.3630
87610SOL    HW180440  11.788  13.479  11.147 -0.9541  0.2061 -0.2950
87610SOL    HW280441  11.858  13.390  11.046  1.0328 -0.0767  1.2732
87611SOL     OW80442  12.520   5.364   7.630 -0.7754 -0.4460 -0.4972
87611SOL    HW180443  12.567   5.413   7.698 -2.1922 -0.7007  0.7093
87611SOL    HW280444  12.579   5.366   7.554 -0.2762  2.1146 -0.1340
87612SOL     OW80445   2.036   8.680   7.461  0.3598  0.1657  0.3378
87612SOL    HW180446   2.036   8.701   7.368  1.2499  2.9277  0.8675
87612SOL    HW280447   2.112   8.726   7.496 -1.9106  2.2666  2.9838
87613SOL     OW80448   5.594   8.985   1.243  0.0711  0.0620 -0.3434
87613SOL    HW180449   5.661   8.919   1.229  1.4725  1.5553 -0.8608
87613SOL    HW280450   5.512   8.935   1.248  1.2890 -1.9182  1.4244
87614SOL     OW80451   0.750   3.768  10.904  0.2462  0.3480  0.0097
87614SOL    HW180452   0.656   3.776  10.924  0.4083 -0.5419  1.2901
87614SOL    HW280453   0.767   3.838  10.841 -1.5880 -0.4323 -1.4589
87615SOL     OW80454  13.464  11.258  11.740 -0.3261 -0.2710  0.5053
87615SOL    HW180455  13.430  11.329  11.686  1.0061 -1.4698 -2.0880
87615SOL    HW280456  13.542  11.294  11.782  1.4553 -0.5933 -2.2754
87616SOL     OW80457   5.303  10.862   5.470  0.1234  0.0223 -0.0932
87616SOL    HW180458   5.276  10.774   5.497 -0.9362  0.4345  0.2748
87616SOL    HW280459   5.223  10.914   5.477  0.3010  0.6379 -1.9876
87617SOL     OW80460  12.528   7.189  13.708 -0.1947  0.0573  0.0605
87617SOL    HW180461  12.602   7.229  13.753 -0.2748  0.3421 -0.0573
87617SOL    HW280462  12.548   7.200  13.615  0.9220 -2.2513 -0.0311
87618SOL     OW80463  12.560   1.295  13.839  0.5122 -0.6616  0.0142
87618SOL    HW180464  12.480   1.346  13.831  1.2283  0.1943 -4.7015
87618SOL    HW280465  12.619   1.349  13.891 -0.6146  0.6502 -0.0322
87619SOL     OW80466   0.553   2.685  12.570  0.6395 -0.0918 -0.4036
87619SOL    HW180467   0.478   2.640  12.530  1.3282 -1.9559  0.2665
87619SOL    HW280468   0.518   2.724  12.650  0.5883 -2.1396  0.6455
87620SOL     OW80469   6.389   7.726   5.233  0.4897  0.6589  0.5907
87620SOL    HW180470   6.350   7.780   5.165  0.8573  2.7253  1.9237
87620SOL    HW280471   6.466   7.687   5.192 -1.0380 -0.7632 -1.0659
87621SOL     OW80472  13.968   4.139   9.492  0.0437 -0.4787  0.2392
87621SOL    HW180473  14.026   4.212   9.514  0.2049 -0.6066  0.2401
87621SOL    HW280474  14.022   4.061   9.502  0.9682 -0.4329 -3.1093
87622SOL     OW80475  12.269   2.881  12.039  0.7017 -0.0442  0.3011
87622SOL    HW180476  12.291   2.807  11.983 -0.6792 -0.5607  0.3937
87622SOL    HW280477  12.242   2.841  12.122  0.3317  0.5815  0.4892
87623SOL     OW80478   5.178  11.398   3.051  0.0689  0.4131  0.1261
87623SOL    HW180479   5.112  11.466   3.032 -0.8798 -0.2351  0.9801
87623SOL    HW280480   5.248  11.445   3.095  0.9296  1.3990 -2.1213
87624SOL     OW80481   0.085  10.784  10.679 -0.4216 -0.4645  0.4740
87624SOL    HW180482   0.043  10.812  10.761 -0.4058  0.1105  0.2920
87624SOL    HW280483   0.094  10.689  10.688  0.0319 -0.3506  1.3534
87625SOL     OW80484  12.683   4.679  10.705  0.0721  0.1382 -0.8306
87625SOL    HW180485  12.683   4.593  10.663  0.7295 -0.5298  0.4956
87625SOL    HW280486  12.763   4.721  10.674  0.2948 -0.1492 -0.6451
87626SOL     OW80487   6.544  10.724  11.846  0.2216  0.1254  0.4763
87626SOL    HW180488   6.587  10.768  11.773 -0.1562 -1.0337 -0.4811
87626SOL    HW280489   6.455  10.759  11.846  0.0604 -0.2727  0.0152
87627SOL     OW80490   3.225  11.882   4.525 -0.4309  0.2647  0.4300
87627SOL    HW180491   3.132  11.860   4.519 -0.2098 -1.1067  1.3965
87627SOL    HW280492   3.259  11.825   4.595  0.9962  1.2130  0.5624
87628SOL     OW80493  12.809  12.403  12.081  0.0333 -0.0214 -0.8512
87628SOL    HW180494  12.722  12.432  12.052  0.0743  1.3510  0.3120
87628SOL    HW280495  12.848  12.363  12.003 -2.4130 -2.6426 -0.9151
87629SOL     OW80496  13.289   9.241   4.308  0.0809 -0.1535  0.2495
87629SOL    HW180497  13.226   9.177   4.277  0.8447 -0.8587  0.1311
87629SOL    HW280498  13.363   9.189   4.341  0.8542  0.6580 -0.1523
87630SOL     OW80499   6.622   2.133   8.587  0.6522  0.1584  0.2422
87630SOL    HW180500   6.680   2.058   8.581  0.6111  0.2414 -1.8664
87630SOL    HW280501   6.545   2.109   8.536 -0.4723  0.6999  1.6051
87631SOL     OW80502   3.552  10.981   2.427  0.8542  0.2634 -0.1043
87631SOL    HW180503   3.629  10.930   2.403  0.7911 -0.2804  0.8003
87631SOL    HW280504   3.478  10.920   2.416  0.6755  0.4450  0.0746
87632SOL     OW80505   6.042   3.910  13.605 -0.3090 -0.7530  0.1665
87632SOL    HW180506   6.067   3.956  13.685 -0.9441 -0.6982  0.3364
87632SOL    HW280507   5.947   3.906  13.608 -0.3406 -0.7439 -0.5956
87633SOL     OW80508   7.374  11.058  10.978 -0.0361  0.2947 -0.0678
87633SOL    HW180509   7.322  11.137  10.993  0.9524  1.0965 -0.7162
87633SOL    HW280510   7.456  11.075  11.023  0.0742 -0.5035  0.0446
87634SOL     OW80511   2.177  11.197  12.825 -0.0993 -0.3202  0.3991
87634SOL    HW180512   2.241  11.169  12.761 -1.6728  0.1049 -1.4629
87634SOL    HW280513   2.146  11.282  12.793 -2.7888 -1.2638  0.2346
87635SOL     OW80514   9.433   9.458   9.459 -0.6605 -0.0154  1.1191
87635SOL    HW180515   9.451   9.401   9.533 -2.3263  0.1194  1.6856
87635SOL    HW280516   9.518   9.476   9.420  0.1361 -0.9184  2.3865
87636SOL     OW80517  10.583   1.192  11.859 -0.1286 -0.0757 -0.1309
87636SOL    HW180518  10.524   1.211  11.932 -1.8769  0.8622 -1.7002
87636SOL    HW280519  10.526   1.191  11.782  1.9157  0.8980 -1.7487
87637SOL     OW80520  10.816   5.589  10.933 -0.2340 -0.0313  0.1765
87637SOL    HW180521  10.888   5.623  10.987 -0.1965 -0.9003  0.6742
87637SOL    HW280522  10.738   5.603  10.985 -0.1576 -1.2013  0.6338
87638SOL     OW80523   4.953   5.970   5.207 -0.6735  0.1180 -0.1006
87638SOL    HW180524   5.048   5.968   5.224 -1.0708 -1.1074  2.3778
87638SOL    HW280525   4.942   5.918   5.127  0.7903  0.8827 -0.8383
87639SOL     OW80526   9.792   2.989   8.875  0.1410 -0.2601  0.3645
87639SOL    HW180527   9.721   2.975   8.938 -0.5505 -1.5509 -0.6542
87639SOL    HW280528   9.867   3.014   8.929 -0.6057 -0.6677  1.6361
87640SOL     OW80529   7.745   8.572  12.518  0.3824 -0.3853 -0.5619
87640SOL    HW180530   7.779   8.596  12.605 -0.7826 -0.4613 -0.0594
87640SOL    HW280531   7.785   8.635  12.459  0.6230  0.1402  0.1420
87641SOL     OW80532   2.465   0.144   7.698 -0.5016 -0.2646  0.2670
87641SOL    HW180533   2.407   0.072   7.721 -0.2570 -0.6162 -0.1983
87641SOL    HW280534   2.547   0.102   7.671 -0.3084  0.1877  0.1360
87642SOL     OW80535   8.806  10.816  13.751  0.1374  0.5663 -0.0936
87642SOL    HW180536   8.902  10.821  13.752  0.1450  0.9432 -0.9814
87642SOL    HW280537   8.787  10.736  13.702  0.0015  0.8262 -0.4696
87643SOL     OW80538   8.033   1.062  10.298 -0.2824  0.1606  1.1625
87643SOL    HW180539   8.057   1.125  10.229  1.2504 -1.3937  0.2081
87643SOL    HW280540   8.088   1.087  10.372 -0.3285  0.4858  1.0914
87644SOL     OW80541   8.557   6.009   4.721  0.0157 -0.5356 -0.5068
87644SOL    HW180542   8.575   6.073   4.790 -1.1923  0.1435 -0.7738
87644SOL    HW280543   8.587   5.925   4.756  0.6020  0.0080  0.3077
87645SOL     OW80544   5.480   1.279   4.137 -0.1018 -0.1025 -0.3700
87645SOL    HW180545   5.552   1.340   4.123  0.0721 -0.4178 -0.8628
87645SOL    HW280546   5.417   1.328   4.190  1.7569 -0.7785  2.7007
87646SOL     OW80547  13.465  12.582   3.748  0.2747 -0.1077 -0.1101
87646SOL    HW180548  13.506  12.536   3.675  0.5293 -0.4620  0.2575
87646SOL    HW280549  13.520  12.659   3.761  0.6979 -0.4627  0.2316
87647SOL     OW80550   3.425   7.179   9.446  0.3692 -0.5223 -0.0035
87647SOL    HW180551   3.359   7.178   9.377 -1.5126  1.4885  1.6289
87647SOL    HW280552   3.503   7.216   9.403 -2.0563  5.4163 -0.3507
87648SOL     OW80553  11.739   4.485   6.499 -0.2112  0.1538 -0.0228
87648SOL    HW180554  11.802   4.435   6.447  0.8552 -0.3650  1.6834
87648SOL    HW280555  11.681   4.525   6.434  0.3556 -1.3603 -1.5554
87649SOL     OW80556   7.148   1.167  12.080  0.2948  0.1830  0.3803
87649SOL    HW180557   7.212   1.155  12.151 -0.0514  0.9197  0.8257
87649SOL    HW280558   7.077   1.217  12.120  0.4356  1.2750 -0.6928
87650SOL     OW80559   9.706   2.713   1.639 -0.4217 -0.3035 -0.6065
87650SOL    HW180560   9.680   2.621   1.646 -0.4048 -0.4026 -1.6635
87650SOL    HW280561   9.623   2.760   1.629 -0.3816 -0.3045 -0.9639
87651SOL     OW80562   6.888   1.529   8.305 -0.0700 -0.2126  0.5320
87651SOL    HW180563   6.982   1.518   8.290  0.5937  2.0051  2.5602
87651SOL    HW280564   6.872   1.490   8.391 -0.6546  0.9129  0.9519
87652SOL     OW80565   3.787   5.084   6.221  0.6868 -0.6796 -0.3032
87652SOL    HW180566   3.775   4.993   6.195 -0.0794 -1.0040  1.0901
87652SOL    HW280567   3.835   5.124   6.149 -2.2752 -1.2226 -2.7514
87653SOL     OW80568   3.784   7.263   4.062  0.0050 -0.3748 -0.3266
87653SOL    HW180569   3.763   7.342   4.111 -0.1780  0.3202 -1.4923
87653SOL    HW280570   3.877   7.273   4.039 -0.0464 -0.4339 -0.5692
87654SOL     OW80571  13.065  12.776  13.734 -0.0178 -0.0882 -0.1103
87654SOL    HW180572  13.106  12.863  13.734  0.6083 -0.3727 -0.6194
87654SOL    HW280573  13.132  12.718  13.696 -0.3849 -0.8129  0.3240
87655SOL     OW80574   3.882  12.996  10.833 -0.6345 -0.6678  0.0179
87655SOL    HW180575   3.922  12.945  10.763 -1.9165 -0.0719 -1.2141
87655SOL    HW280576   3.789  13.002  10.809 -1.2314 -0.8624  2.0473
87656SOL     OW80577   9.666   3.429  12.730  0.9572 -0.1995 -0.3233
87656SOL    HW180578   9.706   3.467  12.808 -0.1097  0.1761  0.0659
87656SOL    HW280579   9.729   3.363  12.699  1.0883 -0.8472  1.2554
87657SOL     OW80580   0.818   7.591  11.598 -1.3923  0.0506  0.0201
87657SOL    HW180581   0.844   7.584  11.506 -1.3705  0.6252 -0.0209
87657SOL    HW280582   0.813   7.501  11.629  0.1434 -0.1081 -0.1112
87658SOL     OW80583   8.523   1.606  11.780 -0.2004  0.4501  0.3594
87658SOL    HW180584   8.609   1.646  11.789 -0.1050  0.0380  1.5108
87658SOL    HW280585   8.523   1.568  11.692  1.5236 -1.1862  0.9996
87659SOL     OW80586   8.382  10.067   7.980  0.1054  0.1217 -0.1270
87659SOL    HW180587   8.369   9.988   8.032 -1.6607 -0.3717 -1.2403
87659SOL    HW280588   8.470  10.058   7.944  0.3038 -0.8489  0.5507
87660SOL     OW80589  11.831   2.212   7.025 -0.0633 -0.1757  0.4230
87660SOL    HW180590  11.920   2.188   7.001 -0.4104 -0.7667 -0.3002
87660SOL    HW280591  11.839   2.246   7.114  0.9501  0.2392  0.1863
87661SOL     OW80592   5.582  13.035   6.784  0.0785 -0.3692 -0.1618
87661SOL    HW180593   5.581  13.117   6.734  0.0815 -0.3701 -0.1627
87661SOL    HW280594   5.550  13.060   6.871 -0.2245 -0.4266 -0.2552
87662SOL     OW80595   6.450   3.630  10.866 -0.3116  0.4170 -0.2661
87662SOL    HW180596   6.358   3.648  10.886 -0.2174 -1.2110  1.9746
87662SOL    HW280597   6.498   3.667  10.940  0.6868 -0.3025 -0.5315
87663SOL     OW80598   8.665  11.741   5.800  0.3915  0.1181 -0.5025
87663SOL    HW180599   8.644  11.648   5.807  0.4956  0.1650  0.6483
87663SOL    HW280600   8.579  11.784   5.797  0.2480 -0.1439 -4.1636
87664SOL     OW80601   1.112   0.336   8.322  0.3267  0.1743  0.0567
87664SOL    HW180602   1.019   0.314   8.309  0.1411  1.8273 -1.9574
87664SOL    HW280603   1.159   0.256   8.297 -0.5035 -1.3024  2.7833
87665SOL     OW80604   1.592  10.586  12.100 -0.1470  0.3749  0.3757
87665SOL    HW180605   1.563  10.584  12.191  0.9405 -2.0695  0.7216
87665SOL    HW280606   1.598  10.680  12.080 -1.3418  0.9801  2.4779
87666SOL     OW80607   1.356   5.098   4.701 -0.4597 -0.8038  0.4480
87666SOL    HW180608   1.277   5.127   4.748 -1.9136 -2.4434 -0.8623
87666SOL    HW280609   1.376   5.013   4.739 -1.4200 -1.9689 -1.4977
87667SOL     OW80610   8.025   7.751   2.029 -0.2129 -0.3374  0.2185
87667SOL    HW180611   7.945   7.719   1.989  0.1884 -0.5061 -0.4759
87667SOL    HW280612   8.013   7.846   2.035  0.2339 -0.1147 -1.5814
87668SOL     OW80613   0.347   9.089   1.286  0.6895 -0.4598  0.0291
87668SOL    HW180614   0.273   9.053   1.335  0.3781 -0.4565 -0.4268
87668SOL    HW280615   0.424   9.050   1.326  0.4856  0.1341  1.0115
87669SOL     OW80616  13.574   2.373  13.454 -0.1259  0.4838  0.3698
87669SOL    HW180617  13.656   2.377  13.503 -0.4653 -1.9840  1.2640
87669SOL    HW280618  13.506   2.391  13.519 -0.4162  0.2957  0.1211
87670SOL     OW80619  13.887   1.837   6.994  0.4556  0.4793 -0.6095
87670SOL    HW180620  13.876   1.743   7.011  0.5954  0.7796  1.5224
87670SOL    HW280621  13.935   1.869   7.071 -3.0120  2.9852  0.7602
87671SOL     OW80622   7.477   6.805  13.343  0.1201  0.4105  0.8065
87671SOL    HW180623   7.535   6.852  13.283  2.1514 -2.7315  0.0763
87671SOL    HW280624   7.509   6.827  13.430  0.0790  1.4606  0.5711
87672SOL     OW80625   0.286  13.695   4.247 -0.4379  0.1121  0.5191
87672SOL    HW180626   0.193  13.696   4.269 -0.5731 -1.1035  0.0851
87672SOL    HW280627   0.326  13.758   4.307 -1.9811  3.1873 -1.4553
87673SOL     OW80628   6.999  12.489  12.149 -0.0256  0.1526  0.1277
87673SOL    HW180629   7.060  12.426  12.187  0.2736 -1.0879 -2.2212
87673SOL    HW280630   6.912  12.454  12.168  0.1283 -0.6479 -0.5956
87674SOL     OW80631  11.043   9.438   7.221  0.3541  0.1634  0.4331
87674SOL    HW180632  11.037   9.528   7.189 -2.6253  0.2397  0.9360
87674SOL    HW280633  10.962   9.425   7.271  0.2641 -3.0606 -0.3503
87675SOL     OW80634   5.420   6.628   2.742  0.2935  0.1095  0.7259
87675SOL    HW180635   5.494   6.570   2.753  0.0887 -0.2970  0.0522
87675SOL    HW280636   5.458   6.716   2.742  1.0798 -0.1486 -1.5664
87676SOL     OW80637   5.521  12.572  10.371  0.0485 -0.1156 -0.1471
87676SOL    HW180638   5.609  12.539  10.356 -0.3676 -0.3767 -2.2929
87676SOL    HW280639   5.487  12.520  10.444  1.0563 -1.1863 -0.4281
87677SOL     OW80640   4.024   1.820  11.148 -0.1001 -0.2004  0.1418
87677SOL    HW180641   4.065   1.898  11.112 -0.8806  0.0064 -0.3117
87677SOL    HW280642   3.962   1.853  11.213  1.9571 -0.5969  2.4582
87678SOL     OW80643   4.623   5.871   3.764  0.6582  0.3209  0.0159
87678SOL    HW180644   4.538   5.827   3.756  0.6825  0.2786 -0.0123
87678SOL    HW280645   4.601   5.965   3.764  0.7087  0.3701 -1.5477
87679SOL     OW80646   0.207   5.573  10.705 -0.0076 -0.5191  0.0468
87679SOL    HW180647   0.284   5.520  10.687  0.2343 -0.1513 -0.0274
87679SOL    HW280648   0.134   5.511  10.707  0.3586 -0.9319  0.6189
87680SOL     OW80649  12.124  12.241   5.333 -0.1157 -0.1858 -0.2589
87680SOL    HW180650  12.211  12.267   5.302 -0.2468  0.0369 -0.4498
87680SOL    HW280651  12.140  12.194   5.415  0.1215  0.6736  0.2053
87681SOL     OW80652   5.146   7.905   8.798 -0.0983 -0.2299  0.1758
87681SOL    HW180653   5.154   7.999   8.785  1.4296 -0.5567 -1.6639
87681SOL    HW280654   5.106   7.872   8.718  0.7194 -1.2765  0.1636
87682SOL     OW80655  13.063  10.237   5.039  0.5816 -0.5465  0.0366
87682SOL    HW180656  13.066  10.172   5.110  3.3846 -1.6085 -0.9413
87682SOL    HW280657  12.990  10.294   5.063 -0.7183 -2.8331  2.0087
87683SOL     OW80658   4.601   2.837   3.714  0.0787 -0.4931 -0.3527
87683SOL    HW180659   4.553   2.833   3.631  0.5424 -1.4436 -0.5909
87683SOL    HW280660   4.688   2.867   3.689 -0.0938  0.3045 -0.0435
87684SOL     OW80661   3.662   9.384  13.388 -0.2839  0.0018 -0.1611
87684SOL    HW180662   3.610   9.425  13.457  0.1394  1.6031 -0.7376
87684SOL    HW280663   3.606   9.385  13.311 -0.3900 -0.8491 -0.1033
87685SOL     OW80664  10.011   5.046   8.391  0.3416 -0.3973  0.1407
87685SOL    HW180665  10.078   5.046   8.323  0.8484 -2.6313  0.5551
87685SOL    HW280666  10.051   5.000   8.465 -0.6653  0.7725  1.4749
87686SOL     OW80667  13.431   4.956   1.221 -1.0569  0.2438  0.4105
87686SOL    HW180668  13.451   5.031   1.278  0.6482  1.1467 -1.2700
87686SOL    HW280669  13.442   4.880   1.278  0.3036  1.1245  1.4143
87687SOL     OW80670   8.911   2.532   4.449 -0.1959  0.1332 -0.2956
87687SOL    HW180671   8.982   2.572   4.499 -0.8166  1.0303 -0.1192
87687SOL    HW280672   8.847   2.505   4.515  0.4639 -1.7529 -0.3437
87688SOL     OW80673   0.011   2.792   2.410  0.0524 -0.2948 -0.1148
87688SOL    HW180674  -0.081   2.816   2.403 -0.1312 -1.3488 -1.8126
87688SOL    HW280675   0.033   2.754   2.325  1.6903 -1.3091  0.7040
87689SOL     OW80676   3.906  11.325  12.339 -0.2194  0.2684  0.0498
87689SOL    HW180677   3.827  11.270  12.340  1.3642 -2.1925  1.2087
87689SOL    HW280678   3.950  11.302  12.256 -1.3773  2.8262 -1.3912
87690SOL     OW80679  13.982  11.574   5.323 -0.1788 -0.0125  0.3641
87690SOL    HW180680  13.953  11.623   5.246 -0.0264  0.7098  0.7660
87690SOL    HW280681  13.908  11.516   5.343 -0.7995  0.8176  0.5378
87691SOL     OW80682   7.150  11.152  10.141  0.4835 -0.0570  0.5534
87691SOL    HW180683   7.230  11.131  10.091  0.2748  1.0963 -0.3129
87691SOL    HW280684   7.163  11.242  10.170 -1.3739  0.9811 -1.4877
87692SOL     OW80685   3.561   1.738   8.189 -0.0319  0.3190 -0.2410
87692SOL    HW180686   3.592   1.813   8.239 -1.9843 -0.4704  2.3396
87692SOL    HW280687   3.466   1.738   8.200 -0.1405 -2.3300 -0.3753
87693SOL     OW80688  12.804  11.624   1.722  0.4903  0.1745 -0.1694
87693SOL    HW180689  12.790  11.541   1.677  1.9700 -0.4461  0.4474
87693SOL    HW280690  12.728  11.677   1.699 -0.0906 -1.0628 -1.2210
87694SOL     OW80691   3.989   4.907   3.574 -0.0973 -0.1751  0.0351
87694SOL    HW180692   3.982   4.908   3.670  0.9235  3.3262  0.2196
87694SOL    HW280693   4.083   4.903   3.557 -0.1501  1.2812 -0.7165
87695SOL     OW80694  10.396   9.188   3.226  0.0765  0.3089  0.2069
87695SOL    HW180695  10.458   9.172   3.297  0.9171 -0.9766 -0.7876
87695SOL    HW280696  10.414   9.278   3.199  1.8397 -0.1763 -0.3491
87696SOL     OW80697   1.749   2.809   3.869  0.1560  0.4521 -0.7641
87696SOL    HW180698   1.803   2.747   3.820  1.0748  0.5024  0.1548
87696SOL    HW280699   1.810   2.854   3.927 -0.6361  1.5965 -0.7735
87697SOL     OW80700   5.988  13.576   5.782  0.3212  0.1081  0.0377
87697SOL    HW180701   6.019  13.614   5.700  0.5373 -0.3229 -0.0818
87697SOL    HW280702   6.066  13.565   5.835  0.2274  0.0549  0.1665
87698SOL     OW80703  11.618   5.763   1.469 -0.1467  0.2308 -0.0990
87698SOL    HW180704  11.524   5.783   1.467 -0.4252 -1.0722 -1.5069
87698SOL    HW280705  11.637   5.747   1.562 -1.2370  0.8148  0.2452
87699SOL     OW80706  13.362  11.884  10.447 -0.1588 -0.1104 -0.2556
87699SOL    HW180707  13.304  11.809  10.430  0.2980 -0.3750 -0.6639
87699SOL    HW280708  13.346  11.905  10.539 -2.2599  0.9804 -0.7957
87700SOL     OW80709  13.611   5.869   3.962  0.0236 -0.5518 -0.5597
87700SOL    HW180710  13.653   5.872   3.876 -2.0375  0.7155 -1.5935
87700SOL    HW280711  13.633   5.953   4.002  0.4577 -0.8851 -0.0882
87701SOL     OW80712   5.701   2.809   1.800  0.6984 -0.3463 -0.8194
87701SOL    HW180713   5.671   2.899   1.790 -1.2063 -0.9058 -0.4975
87701SOL    HW280714   5.795   2.817   1.818  0.3526  1.6160  0.3677
87702SOL     OW80715  12.002  11.818   7.550  0.0921 -0.3091  0.3420
87702SOL    HW180716  11.982  11.725   7.564 -2.1102 -0.3186 -2.1986
87702SOL    HW280717  11.929  11.865   7.590  0.4532  0.2630  0.3407
87703SOL     OW80718   4.112   6.792  13.341  0.4841 -0.2238  0.6179
87703SOL    HW180719   4.041   6.845  13.304 -0.6657 -1.1277  1.4650
87703SOL    HW280720   4.125   6.828  13.429  1.3028  0.1298  0.3629
87704SOL     OW80721   9.221   5.060  11.553 -0.5726 -0.0752  0.9597
87704SOL    HW180722   9.313   5.068  11.578 -0.6830 -0.9485  1.6934
87704SOL    HW280723   9.180   5.140  11.587 -0.0634  0.3873  0.4970
87705SOL     OW80724  10.418   3.820   9.314  0.4133  0.2951 -0.0460
87705SOL    HW180725  10.324   3.803   9.302  0.4316  0.6977 -0.8664
87705SOL    HW280726  10.459   3.736   9.298  0.3564  0.6169 -2.1550
87706SOL     OW80727  10.675   8.438   6.685 -0.2832 -0.3260  0.4485
87706SOL    HW180728  10.718   8.497   6.624 -0.2630 -0.1798  0.6035
87706SOL    HW280729  10.618   8.494   6.738 -1.3801 -0.6336 -0.3660
87707SOL     OW80730  11.801   6.893   3.347 -0.1647  0.2809  0.5581
87707SOL    HW180731  11.706   6.901   3.344 -0.1974 -0.2760 -2.7358
87707SOL    HW280732  11.825   6.843   3.269  3.0596  3.2898 -0.6677
87708SOL     OW80733  12.317  12.157   1.743  0.0975 -0.0953  0.7944
87708SOL    HW180734  12.409  12.134   1.754  0.3917  0.1577 -0.8515
87708SOL    HW280735  12.318  12.244   1.704 -0.7139 -0.9961 -1.4088
87709SOL     OW80736   1.618   9.078   1.475  0.4017 -0.7494 -0.5892
87709SOL    HW180737   1.700   9.028   1.474  0.4350 -1.0103  2.6789
87709SOL    HW280738   1.566   9.037   1.545 -0.5807  2.2450  0.6199
87710SOL     OW80739  13.606  13.040   3.275  0.2097  0.3698 -0.4446
87710SOL    HW180740  13.557  13.001   3.347 -0.2878 -1.1523 -1.5458
87710SOL    HW280741  13.540  13.062   3.210  0.8278 -0.2367 -1.3006
87711SOL     OW80742  13.370   5.122   2.510 -0.0688 -0.4720 -0.7349
87711SOL    HW180743  13.416   5.157   2.434 -2.6731 -0.9100 -2.6664
87711SOL    HW280744  13.404   5.172   2.584  0.8854  1.6841 -2.5057
87712SOL     OW80745   7.025   4.879   5.313 -0.2270 -0.0903 -0.4078
87712SOL    HW180746   7.009   4.796   5.357 -2.7913  1.2319  1.3838
87712SOL    HW280747   7.098   4.917   5.360  1.0143 -1.2687 -1.2838
87713SOL     OW80748   4.585   3.373  13.693  0.2961 -0.9981  0.4580
87713SOL    HW180749   4.674   3.361  13.726  0.9706  1.7031 -0.1851
87713SOL    HW280750   4.578   3.311  13.620  3.3213  1.6745 -2.3934
87714SOL     OW80751   4.902   8.323   0.564 -0.3329  0.0936  0.1337
87714SOL    HW180752   4.897   8.332   0.469  0.5552  0.0213  0.0714
87714SOL    HW280753   4.821   8.278   0.588 -1.0890  1.0889 -0.4499
87715SOL     OW80754  10.791   7.413  10.674 -0.3546  0.8304 -0.1397
87715SOL    HW180755  10.766   7.385  10.586 -1.5931 -0.9267  0.7154
87715SOL    HW280756  10.886   7.401  10.677 -0.5509 -1.1604 -0.6020
87716SOL     OW80757   3.380  13.348  10.702 -0.6564 -0.4743  0.0333
87716SOL    HW180758   3.335  13.361  10.785 -2.0564  0.8756 -0.8696
87716SOL    HW280759   3.325  13.286  10.654 -1.7972  1.3772 -1.1771
87717SOL     OW80760   7.273  10.677   0.321  0.0173 -0.1081 -0.0776
87717SOL    HW180761   7.269  10.752   0.261  1.4092 -1.1394 -1.5311
87717SOL    HW280762   7.365  10.653   0.324 -0.0478 -0.2598  2.3393
87718SOL     OW80763  13.900   7.486   9.432 -0.2797 -0.1936 -0.3267
87718SOL    HW180764  13.876   7.400   9.467 -0.0513 -0.2899 -0.4092
87718SOL    HW280765  13.873   7.547   9.500 -0.6531 -0.3134 -0.3643
87719SOL     OW80766   5.085  10.783   6.350  0.1556  0.0670 -0.7452
87719SOL    HW180767   5.056  10.695   6.325 -1.4276  0.2065  0.4923
87719SOL    HW280768   5.127  10.771   6.435  1.3002  0.3141 -1.2493
87720SOL     OW80769   8.414   7.892   3.896  0.2534  0.3791  0.0298
87720SOL    HW180770   8.360   7.910   3.973 -0.4678 -2.8991  0.4592
87720SOL    HW280771   8.493   7.945   3.909 -0.6923  1.4260  2.0081
87721SOL     OW80772  11.451   6.963  11.112 -0.3411  0.6184 -0.6645
87721SOL    HW180773  11.462   7.040  11.056  1.3890  0.6481 -0.3396
87721SOL    HW280774  11.531   6.912  11.100 -1.6152 -1.3843 -1.1981
87722SOL     OW80775   7.699   8.105  13.879 -0.7387  0.0439  0.4842
87722SOL    HW180776   7.629   8.057  13.924 -1.4401  0.0581 -0.5614
87722SOL    HW280777   7.777   8.052  13.893 -1.2673 -0.7954  0.3396
87723SOL     OW80778   4.227   9.783   5.497 -0.1262  0.3125  0.0936
87723SOL    HW180779   4.189   9.697   5.516 -0.5853  0.3555 -0.5841
87723SOL    HW280780   4.313   9.781   5.539 -1.0070  0.3557  1.9649
87724SOL     OW80781  11.950   0.998   4.875  0.0027  0.6252 -0.1370
87724SOL    HW180782  11.875   1.013   4.933 -0.1151  1.9450 -0.5906
87724SOL    HW280783  11.945   1.069   4.811  0.2593 -0.6717 -1.6492
87725SOL     OW80784  12.032   7.424   8.199  0.0175 -0.2274  0.4310
87725SOL    HW180785  12.022   7.484   8.272  0.1034  1.0005 -0.5334
87725SOL    HW280786  12.097   7.465   8.143 -1.2210 -0.2957 -1.1431
87726SOL     OW80787   2.837   0.861   7.368  0.0001  0.6154  0.4364
87726SOL    HW180788   2.898   0.844   7.440  0.8286  0.2547 -0.3324
87726SOL    HW280789   2.753   0.873   7.411  0.4659  0.3381  1.4671
87727SOL     OW80790   6.166   6.420  12.029 -0.3701 -0.4373 -0.6481
87727SOL    HW180791   6.154   6.425  11.935  2.2343 -0.9559 -1.0819
87727SOL    HW280792   6.258   6.444  12.043 -1.0873  1.2453  1.9405
87728SOL     OW80793  11.790   4.013  14.089 -0.0815  0.3438  0.0466
87728SOL    HW180794  11.824   4.043  14.174 -1.6230  0.6503  0.5822
87728SOL    HW280795  11.787   3.918  14.097 -1.0831  0.4125  0.7056
87729SOL     OW80796   1.523   9.327   4.282 -0.1096 -0.7554 -0.5957
87729SOL    HW180797   1.525   9.378   4.201  0.1895  1.9766  1.0299
87729SOL    HW280798   1.435   9.340   4.317  0.3208 -0.4279  0.3931
87730SOL     OW80799   0.705   2.891  13.900  0.0306 -0.6059  0.7335
87730SOL    HW180800   0.723   2.897  13.806 -0.0442  0.2447  0.7703
87730SOL    HW280801   0.610   2.901  13.907 -0.2033 -2.5040  0.7606
87731SOL     OW80802   9.889   3.240  11.015  0.5394  0.5649  0.4706
87731SOL    HW180803   9.950   3.166  11.015  0.6808  0.6637 -0.5415
87731SOL    HW280804   9.844   3.235  10.931 -1.0183  0.3873  1.2844
87732SOL     OW80805  12.260   6.855   9.348 -0.1400  0.3781 -0.5510
87732SOL    HW180806  12.231   6.771   9.312 -0.3104 -0.5455  1.5593
87732SOL    HW280807  12.281   6.835   9.440  2.1118  2.1651 -0.6108
87733SOL     OW80808  13.748   5.787   6.096  0.8025  0.5719  0.3019
87733SOL    HW180809  13.734   5.776   6.190  2.3163  2.1129  0.7517
87733SOL    HW280810  13.687   5.857   6.071 -0.3363 -0.5306 -0.1116
87734SOL     OW80811   8.100  12.578   7.723 -0.7055 -0.3289  0.2513
87734SOL    HW180812   8.125  12.637   7.794 -0.2889  0.2887 -0.3969
87734SOL    HW280813   8.066  12.636   7.654  0.5176 -0.7558 -0.7372
87735SOL     OW80814  13.897   3.165   4.681  0.3660  0.3331 -0.0563
87735SOL    HW180815  13.929   3.137   4.595  2.9568 -0.2686  0.9905
87735SOL    HW280816  13.927   3.255   4.689 -0.6345  0.6754 -0.1101
87736SOL     OW80817   9.215  14.077   8.870  0.2202 -0.4248  0.5011
87736SOL    HW180818   9.293  14.070   8.924  0.9090  0.3592 -0.3546
87736SOL    HW280819   9.248  14.100   8.783 -0.8584 -1.6892 -0.2726
87737SOL     OW80820   9.606  13.332   5.784 -0.0951 -0.8124 -0.3656
87737SOL    HW180821   9.558  13.254   5.758 -0.5999 -0.4084 -0.6610
87737SOL    HW280822   9.685  13.298   5.826 -0.9527 -1.4795  0.7530
87738SOL     OW80823   8.486  11.423   6.380  0.0926  0.1800  0.3563
87738SOL    HW180824   8.512  11.502   6.427 -0.7772  1.7035 -1.5915
87738SOL    HW280825   8.486  11.448   6.288  0.8460 -2.4352 -0.4322
87739SOL     OW80826   0.661   2.750   5.458 -0.1560 -0.4516 -0.2927
87739SOL    HW180827   0.712   2.695   5.517  1.1705  1.2661  0.2509
87739SOL    HW280828   0.726   2.787   5.398 -1.0060  0.4939 -0.6534
87740SOL     OW80829   5.913  12.654  14.043 -0.7528 -0.2749  0.3953
87740SOL    HW180830   5.962  12.607  14.110 -1.3469  0.5819  1.4734
87740SOL    HW280831   5.904  12.592  13.971  0.5182 -0.9796  0.8184
87741SOL     OW80832  12.055   0.187   9.632  0.1789 -0.2892  1.2370
87741SOL    HW180833  12.051   0.262   9.572  0.3986  0.3942  2.0572
87741SOL    HW280834  11.982   0.131   9.606  2.0435 -1.6042 -1.7325
87742SOL     OW80835   4.346   5.170   5.057  0.1567  0.5487  0.6899
87742SOL    HW180836   4.344   5.201   5.148 -0.4708  1.5815  0.3356
87742SOL    HW280837   4.282   5.225   5.011  1.5886  1.1303 -0.7087
87743SOL     OW80838   5.062   9.742   1.049 -0.0590 -0.0433  0.0451
87743SOL    HW180839   5.087   9.649   1.047  0.1664 -0.0164  1.0634
87743SOL    HW280840   5.129   9.786   0.997  1.0764 -0.1951  1.3147
87744SOL     OW80841  13.520   8.178   0.537 -0.1962 -0.1628 -0.1132
87744SOL    HW180842  13.452   8.153   0.600 -1.1913 -0.8059 -1.4055
87744SOL    HW280843  13.560   8.095   0.512 -1.8514 -0.3145 -2.5595
87745SOL     OW80844   4.616   7.589   6.239  0.2006  0.0391 -0.0739
87745SOL    HW180845   4.599   7.635   6.156  1.4288  1.3518  0.3513
87745SOL    HW280846   4.530   7.581   6.280 -0.4575 -0.8337 -1.5546
87746SOL     OW80847   8.803   0.783  10.589  0.3713  0.2645 -0.5936
87746SOL    HW180848   8.737   0.773  10.521 -0.3463  3.0669 -0.4135
87746SOL    HW280849   8.753   0.792  10.670  1.1650 -1.5017  0.1518
87747SOL     OW80850   4.737   3.540   5.978  0.3143 -0.0997 -0.0751
87747SOL    HW180851   4.790   3.590   5.917 -2.0669  0.5319 -1.7996
87747SOL    HW280852   4.749   3.449   5.952  0.5302  0.0449 -0.4899
87748SOL     OW80853   4.718   8.164  13.946 -0.0436  0.0583 -0.4098
87748SOL    HW180854   4.726   8.253  13.910  0.1531 -0.0736 -0.6931
87748SOL    HW280855   4.654   8.122  13.889 -0.3700  0.1121 -0.0866
87749SOL     OW80856   4.821   6.673   3.704  0.3866 -0.2850  0.4034
87749SOL    HW180857   4.828   6.600   3.765  0.5617 -0.6200 -0.0069
87749SOL    HW280858   4.807   6.631   3.619 -3.1081  0.1890  0.5718
87750SOL     OW80859   2.195   7.846   6.261 -0.2388  0.4137 -0.3342
87750SOL    HW180860   2.236   7.931   6.243  2.2040 -0.9794 -2.0098
87750SOL    HW280861   2.269   7.786   6.271 -1.8838 -1.4987  1.1132
87751SOL     OW80862   1.456  13.115   0.263  0.6937 -0.3804  0.1603
87751SOL    HW180863   1.474  13.209   0.267 -1.1074  0.0512 -0.8328
87751SOL    HW280864   1.397  13.099   0.336  0.6391 -0.6672  0.0539
87752SOL     OW80865   3.607   2.377   0.337  0.5165 -0.7254  0.4550
87752SOL    HW180866   3.580   2.435   0.267  0.9814  0.6533  1.3843
87752SOL    HW280867   3.656   2.307   0.294  0.4624 -0.1102 -0.6180
87753SOL     OW80868   8.450  10.609   4.524 -0.1533  0.1767 -0.2137
87753SOL    HW180869   8.475  10.574   4.438 -0.5295  0.5525 -0.4812
87753SOL    HW280870   8.512  10.569   4.585 -0.2204 -0.5172 -0.5876
87754SOL     OW80871  12.060  12.540   2.043 -0.2018  0.7985 -0.5912
87754SOL    HW180872  12.142  12.586   2.064  0.0891  0.1498 -0.2641
87754SOL    HW280873  12.015  12.533   2.127  1.2052 -2.2873  0.0622
87755SOL     OW80874   3.913   1.750  10.250  0.2553  0.0459  0.4983
87755SOL    HW180875   3.867   1.813  10.195 -1.0484 -1.1700  0.1209
87755SOL    HW280876   3.997   1.735  10.206  1.1263  2.3514  1.2230
87756SOL     OW80877   8.184  10.547  12.641 -0.5740  0.0436  0.0580
87756SOL    HW180878   8.236  10.486  12.588 -0.9502  0.1413 -0.4385
87756SOL    HW280879   8.153  10.494  12.715 -0.3889 -0.2077 -0.0401
87757SOL     OW80880   4.373   0.667   4.157 -0.6415 -0.3110 -0.2917
87757SOL    HW180881   4.371   0.627   4.070  1.0699  0.6086 -0.7805
87757SOL    HW280882   4.438   0.617   4.206 -0.2243  0.3727 -0.1423
87758SOL     OW80883   7.536   9.148   4.952 -0.4584  0.1727 -0.0124
87758SOL    HW180884   7.515   9.203   4.877 -0.2523 -0.0680 -0.2511
87758SOL    HW280885   7.536   9.059   4.917 -0.7986  0.0195  0.3717
87759SOL     OW80886  12.276   7.383   5.421 -0.1490 -0.1840  0.1704
87759SOL    HW180887  12.214   7.456   5.417  0.2489  0.1484 -0.0256
87759SOL    HW280888  12.229   7.310   5.383 -0.9659 -0.3390  1.4077
87760SOL     OW80889   9.105   2.807   5.847  0.7843 -0.4180  0.2116
87760SOL    HW180890   9.072   2.896   5.841  2.1595  0.0123 -1.9036
87760SOL    HW280891   9.090   2.782   5.938  0.9131  2.1870  1.0226
87761SOL     OW80892  13.253   2.993   1.522  0.0762  0.0716 -0.0006
87761SOL    HW180893  13.281   2.969   1.433 -1.8465 -0.8635 -0.4103
87761SOL    HW280894  13.323   3.049   1.555  1.4622 -0.6039 -1.6222
87762SOL     OW80895   6.728   8.868   9.383 -0.5334 -0.1387 -0.0188
87762SOL    HW180896   6.651   8.839   9.432 -1.3961  1.1480 -0.5582
87762SOL    HW280897   6.791   8.894   9.450 -0.8819 -0.4018  0.4160
87763SOL     OW80898   7.980  12.902   0.291 -0.3377  0.0012  0.1906
87763SOL    HW180899   7.961  12.908   0.198 -1.4087 -0.6731  0.3429
87763SOL    HW280900   7.962  12.810   0.313 -0.2128  0.1782  1.0715
87764SOL     OW80901   7.702  11.100   1.137  0.5952 -0.3534  0.1152
87764SOL    HW180902   7.652  11.130   1.213 -0.3061  0.0994 -0.6275
87764SOL    HW280903   7.772  11.164   1.126  0.8036 -0.4896  0.6291
87765SOL     OW80904   8.473  12.637  11.304  0.0611 -0.7165  0.3261
87765SOL    HW180905   8.437  12.638  11.392  0.8038 -1.1594  0.6431
87765SOL    HW280906   8.521  12.554  11.298  0.6143 -0.3704 -0.2441
87766SOL     OW80907   7.292  10.660  13.874 -0.3529 -0.2154  0.2998
87766SOL    HW180908   7.251  10.613  13.946 -0.8880  0.3810  0.3909
87766SOL    HW280909   7.386  10.658  13.895 -0.4246 -0.7423  0.5906
87767SOL     OW80910  10.579  12.700   6.129  0.2439 -0.0375 -0.1900
87767SOL    HW180911  10.615  12.755   6.059 -0.4085 -1.1181 -1.4192
87767SOL    HW280912  10.638  12.714   6.203  0.3244  1.9902 -0.5865
87768SOL     OW80913  13.429   3.260   4.703 -0.4461  0.0330 -0.1354
87768SOL    HW180914  13.515   3.218   4.710 -0.3488  0.1856 -0.4306
87768SOL    HW280915  13.447   3.353   4.698 -0.4938 -0.0382 -2.3879
87769SOL     OW80916   6.749  12.931  10.685  0.0487  0.5132  0.3251
87769SOL    HW180917   6.743  13.026  10.672 -1.0772  0.4358  0.1162
87769SOL    HW280918   6.741  12.895  10.597  1.4465  0.2375  0.2918
87770SOL     OW80919   4.506  13.816   3.783  0.1078  0.3842  0.2714
87770SOL    HW180920   4.500  13.728   3.822  1.5444  0.5763  0.9798
87770SOL    HW280921   4.595  13.820   3.747 -0.0799  1.4152 -0.1007
87771SOL     OW80922   0.640  12.446   6.684  0.4671 -0.1258 -0.3069
87771SOL    HW180923   0.618  12.520   6.740  0.8817  0.5227 -0.9823
87771SOL    HW280924   0.568  12.441   6.621 -0.1254 -1.0095  0.4195
87772SOL     OW80925   9.499   6.417   9.292  0.1131 -0.1748 -0.6027
87772SOL    HW180926   9.488   6.399   9.198  0.2166  0.5537 -0.7604
87772SOL    HW280927   9.512   6.512   9.297  0.1924 -0.2188  0.1441
87773SOL     OW80928   8.085   1.111   4.038  0.1277 -0.4385 -0.6354
87773SOL    HW180929   8.028   1.116   4.114 -0.5288 -0.6246 -1.1017
87773SOL    HW280930   8.073   1.195   3.994 -0.5739 -0.8497 -1.2666
87774SOL     OW80931  13.221   1.916   6.082 -0.2620 -0.9917 -0.4450
87774SOL    HW180932  13.246   1.978   6.014 -1.8373  0.8942  0.5665
87774SOL    HW280933  13.252   1.832   6.051  1.3129  0.1740 -2.2608
87775SOL     OW80934   0.048   1.909   3.843  0.1620 -0.3584 -0.6704
87775SOL    HW180935   0.138   1.893   3.871 -0.4867 -1.0790  1.1488
87775SOL    HW280936   0.006   1.823   3.847 -0.4098 -0.1925 -2.3812
87776SOL     OW80937   0.856   6.676  11.941 -0.0064 -0.0074  0.6438
87776SOL    HW180938   0.857   6.602  11.880 -2.4543 -0.7664  1.4319
87776SOL    HW280939   0.886   6.750  11.888  0.6959 -1.1693 -0.6702
87777SOL     OW80940  10.727   3.450   6.858 -0.5705  0.2592  0.4268
87777SOL    HW180941  10.682   3.493   6.785  0.1495  1.9770  0.9261
87777SOL    HW280942  10.800   3.508   6.878 -0.2503 -0.6127  1.9617
87778NA      NA80943   2.267   6.210   5.771  0.6729  0.2376 -0.2777
87779NA      NA80944   0.539   9.306  11.196  0.1729 -0.4166 -0.1282
87780NA      NA80945   4.004   6.753   9.804 -0.1936 -0.0203 -0.1365
87781NA      NA80946  10.933  11.673   6.014 -0.0190 -0.1736 -0.5230
87782NA      NA80947   3.677  10.287  11.535  0.4760  0.1002  0.0356
87783NA      NA80948   1.681   6.950   0.789  0.3706  0.3286  0.2765
87784NA      NA80949   2.363  11.865  10.488 -0.2774 -0.4745  0.1943
87785NA      NA80950   8.445   3.996   2.996  0.1696 -0.4683 -0.0868
87786NA      NA80951   6.272  11.609   0.854 -0.0623 -0.9608  0.0063
87787NA      NA80952   7.782   7.680   1.104  0.0473  0.1082 -0.1225
87788NA      NA80953   6.942   1.710  13.625 -0.0658 -0.1494 -0.1457
87789NA      NA80954  13.568   1.489   0.189 -0.0926 -0.4393 -0.1348
87790NA      NA80955   5.569   4.303   7.460 -0.4246 -0.4610 -0.2349
87791NA      NA80956   9.750   2.876   8.712  0.5454 -0.2183  0.6550
87792NA      NA80957  11.750   7.583   1.942  0.5973 -0.3745  0.4753
87793NA      NA80958   0.525   7.262   0.083  0.0217 -0.0658  0.2755
87794NA      NA80959   2.095   5.988  13.899 -0.0254  0.3208 -0.4022
87795NA      NA80960   3.208   5.006  12.985 -0.1169  0.0264  0.0181
87796NA      NA80961   5.317  12.488   4.243  0.0876  0.2666  0.4570
87797NA      NA80962  11.024   8.247  12.990 -0.4416 -0.1246 -0.2891
87798NA      NA80963  12.569  11.111   1.077  0.0599  0.0362 -0.0202
87799NA      NA80964   6.085   0.663   0.925 -0.6121 -0.0466 -0.3547
87800NA      NA80965   2.711   2.961   9.454 -0.1253  0.0345  0.2172
87801NA      NA80966   3.459   4.451   6.672  0.2575  0.4016 -0.1227
87802NA      NA80967  12.299   3.495   4.278 -0.3038  0.1737  0.1628
87803NA      NA80968   9.859   1.464   6.628 -0.3508  0.1841 -0.6438
87804NA      NA80969   4.838   5.559  14.089 -0.2761  0.0880 -0.4292
87805NA      NA80970  13.297  14.078   8.673  0.1049  0.4639  0.0822
87806NA      NA80971   0.646  10.787  10.294 -0.2133  0.3900 -0.6462
87807NA      NA80972  12.373   0.041   9.426  0.1507 -0.2201 -0.0466
87808NA      NA80973   5.962   4.233   2.052 -0.0223  0.1274 -0.1230
87809NA      NA80974  11.351   3.739   5.591 -0.0409  0.1409  0.0048
87810NA      NA80975   5.544  11.328   4.129 -0.0354 -0.1241 -0.1627
87811NA      NA80976   2.318  12.706   1.664 -0.1281  0.1809  0.2959
87812NA      NA80977  11.713   1.519   4.165 -0.1484  0.4355  0.0259
87813NA      NA80978  13.925   7.243   3.009 -0.6261 -0.0272  0.1584
87814NA      NA80979   3.818  11.719   7.358  0.4993  0.2368  0.5987
87815NA      NA80980   0.488   3.092   1.846  0.2733  0.7858 -0.3173
87816NA      NA80981   2.775   3.042   0.659  0.3771 -0.4765 -0.0324
87817NA      NA80982   0.458   7.219   0.631  0.2207  0.9618 -0.0253
87818NA      NA80983   1.370  10.765   2.021 -0.2054 -0.0264  0.0679
87819NA      NA80984  13.729   3.223  12.148  0.3647 -0.8656 -0.6483
87820NA      NA80985   1.579   5.338  11.515  0.0868  0.2705  0.2827
87821NA      NA80986   1.776  12.692   9.146  0.5479 -0.2890 -0.0803
87822NA      NA80987   1.757  12.726   0.685  0.1042  0.3587 -0.6075
87823NA      NA80988  10.576  14.051  13.280 -0.1384  0.5115  0.2197
87824NA      NA80989   4.289   1.656   4.429  0.3005 -0.0981 -0.1298
87825NA      NA80990   8.160   4.876   4.441  0.4485  0.3643  0.2663
87826NA      NA80991   7.567  11.380   8.175 -0.3362  0.7254  0.2997
87827NA      NA80992   3.716   9.724  10.157  0.0970 -0.6653 -0.0195
87828NA      NA80993   6.902   4.097   7.451  0.0811 -0.3830  0.3124
87829NA      NA80994  11.569   1.177   3.305 -0.0089 -0.0034  0.2069
87830NA      NA80995   9.786  14.022  12.255  0.0486  0.0306 -0.7216
87831NA      NA80996   1.013   7.439   8.909 -0.3090  0.2655  0.2769
87832NA      NA80997   0.621   8.266   1.892 -0.2979 -0.3187 -0.4973
87833NA      NA80998   5.029   0.692   6.187 -0.1275  0.7081  0.1176
87834NA      NA80999   5.782  13.270   4.273 -0.1205  0.0049 -0.3808
87835NA      NA81000   0.711   7.258  12.368  0.2159 -0.1594  0.4316
87836NA      NA81001   5.159   3.760  11.967  0.0609  0.3372 -0.0891
87837NA      NA81002   3.114  10.135   0.185 -0.0703 -0.5537 -0.4821
87838NA      NA81003   6.443   9.395   8.857 -0.5705  0.0330  0.2745
87839NA      NA81004   7.780  13.330   3.204 -0.1917 -0.0569 -0.2526
87840NA      NA81005   9.923   2.270   2.580  0.1185 -0.4735  0.1300
87841NA      NA81006  13.893   8.245   5.834  0.3740 -0.0407  0.1056
87842NA      NA81007  10.791  12.437   2.801 -0.2327  0.3267 -0.1195
87843NA      NA81008  10.399   4.026   7.455 -0.1163  0.0963  0.1769
87844NA      NA81009   2.804   3.628   5.444 -0.2862 -0.0734  0.4548
87845NA      NA81010   3.210  11.918   2.983  0.3513 -0.2927  0.1096
87846NA      NA81011   3.997   6.482   7.980 -0.0696 -0.0427 -0.0490
87847NA      NA81012   8.320   1.158   0.013  0.1806  0.2360  0.1846
87848NA      NA81013   9.587   8.754  11.819  0.0834 -0.2558  0.0583
87849NA      NA81014   0.652  12.326   9.545  0.0688  0.3835  0.0540
87850NA      NA81015   8.674   2.757   3.081  0.0927  0.4985 -0.2803
87851NA      NA81016   9.480   3.203   6.610 -0.3460  0.3666 -0.5361
87852NA      NA81017   2.141   6.546   4.581 -0.3792 -0.3312 -0.0663
87853NA      NA81018   5.096   9.095   5.895  0.6486  0.2675  0.5609
87854NA      NA81019   3.350   2.455  10.570 -0.0998  0.2012  0.8613
87855NA      NA81020  12.270   9.869  11.746  0.2504 -0.1783 -0.0865
87856NA      NA81021  12.362   3.060   9.597 -0.1618  0.1896  0.1283
87857NA      NA81022   0.851  11.121  12.831  0.0170 -0.3946 -0.3574
87858NA      NA81023   3.112   2.354  11.323 -0.1390 -0.1883  0.1630
87859NA      NA81024  12.397   3.739   6.172  0.3993  0.3888  0.0110
87860NA      NA81025   7.681  11.699  13.964  0.3860 -0.5634  0.2403
87861NA      NA81026  11.164   5.209  13.103 -0.2005  0.2336 -0.5343
87862NA      NA81027   0.371   4.830  11.632 -0.7332  0.7146  0.0743
87863NA      NA81028   1.568   9.092  13.551  0.1603 -0.2749 -0.0938
87864NA      NA81029   2.576   1.742  11.646  0.2255  0.0580 -0.5288
87865NA      NA81030   4.403  13.441   5.463 -0.5128 -0.1073 -0.3842
87866NA      NA81031  11.097   4.691   1.609 -0.4959  0.2109  0.5618
87867NA      NA81032  12.860   4.021   1.048  0.1221 -0.0287  0.3106
87868NA      NA81033   7.136  10.876   7.578  0.0652  0.1514  0.1327
87869NA      NA81034   2.583   5.377  11.407 -0.0823  0.1435 -0.1401
87870NA      NA81035   0.489   2.696   2.449 -0.1464  0.7178 -0.9771
87871NA      NA81036   5.836   3.874   0.871 -0.1853 -0.0177 -0.2792
87872NA      NA81037   0.094   7.952   0.984 -0.1462  0.3388 -0.0971
87873NA      NA81038   9.693   8.230   6.073  0.0358  0.3224 -0.3642
87874NA      NA81039   2.019  13.886  11.554  0.7663 -0.3647  0.3021
87875NA      NA81040   2.957  13.398  10.560  0.1744  0.1269 -0.1952
87876NA      NA81041  13.223  11.221   1.427  0.9128  0.1964  0.0901
87877NA      NA81042   9.566   4.067   3.399  0.2374 -0.0182  0.4398
87878NA      NA81043   8.635   1.965   0.793  0.2435 -0.4599 -0.5225
87879NA      NA81044  10.544   8.015   7.171 -0.4624  0.6484  0.4146
87880NA      NA81045   8.331   2.280   9.604  0.2008 -0.3171  0.0262
87881NA      NA81046  10.492   0.218  10.894  0.4815  0.1459  0.2690
87882NA      NA81047   4.861   6.487  11.595  0.0452 -0.2263 -0.0947
87883NA      NA81048   9.611  12.950   3.188  0.1870 -0.1649 -0.1475
87884NA      NA81049   2.513  12.544   3.886 -0.0026 -0.0705 -0.6049
87885NA      NA81050   6.031  10.287   5.251 -0.0312 -0.1971 -0.0688
87886NA      NA81051  11.610   9.272  10.875  0.2691 -0.0530 -0.3639
87887NA      NA81052  11.555  11.926   5.001 -0.1913  0.2546  0.0386
87888NA      NA81053   9.482   7.779   0.280  0.2843 -0.3629  0.2854
87889NA      NA81054  12.534  12.070  12.129 -0.9120 -0.1109  0.1952
87890NA      NA81055  12.761  13.135  13.908 -0.4865 -0.1360 -0.7176
87891NA      NA81056   1.394   7.728   7.712 -0.0379 -0.8556 -0.2095
87892NA      NA81057   6.312   8.821   6.484 -0.3293 -0.0690  0.6513
87893NA      NA81058   0.703   3.529  10.406  0.2228 -0.1810 -0.1770
87894NA      NA81059   4.580   4.995   7.251 -0.0534  0.4289  0.5411
87895NA      NA81060   7.436   2.666  11.485  0.1486 -0.3736  0.0998
87896NA      NA81061   5.665  11.265  10.708  0.0342  0.5594  0.0272
87897NA      NA81062  10.063   9.623  10.719 -0.0028  0.0701 -0.0136
87898NA      NA81063   8.185  10.629   2.786  0.3315  0.0794 -0.5477
87899NA      NA81064   9.984  13.469   1.403  0.0526  0.1456 -0.2205
87900NA      NA81065   2.248   1.470   8.970  0.3651  0.3167  0.1111
87901NA      NA81066   6.025   4.548   5.952  0.2263  0.2904  0.3602
87902NA      NA81067   7.809   7.516   2.761 -0.2218  0.1833 -0.0622
87903NA      NA81068  10.540  11.871   1.054 -0.1632 -0.5678 -0.2101
87904NA      NA81069   3.686   7.105  11.985 -0.0069  0.2429  0.1211
87905NA      NA81070   7.522   1.382   7.280  0.0187 -0.2610  0.6500
87906NA      NA81071   4.934   6.067  13.476  0.3047 -0.3762  0.2073
87907NA      NA81072   8.909   5.655  11.325 -0.5783  0.2534 -0.0648
87908NA      NA81073   3.748   8.109   3.082 -0.0561  0.6430 -0.2686
87909NA      NA81074   0.316   8.769   5.005 -0.1669  0.1393  0.4225
87910NA      NA81075   7.483   2.921   1.541 -0.4918  0.0182  0.1233
87911NA      NA81076  12.998   6.536   4.922  0.4842  0.0123 -0.0684
87912NA      NA81077   0.134   0.338   2.817 -0.2313 -0.0594 -0.5364
87913NA      NA81078   3.801  11.294   8.127 -0.0772  0.1176 -0.0744
87914NA      NA81079  10.464   0.445   0.927 -0.7523  0.0187  0.5081
87915NA      NA81080   6.893  10.870  10.803 -0.1204 -0.2263 -0.4482
87916NA      NA81081   0.044   1.155   5.314  0.4596 -0.0304 -0.2843
87917NA      NA81082  11.048  11.424  12.834  0.2031  0.6448  0.3519
87918NA      NA81083   1.221   5.492  11.050  0.2299 -0.4805 -0.1935
87919NA      NA81084   5.134   5.891   9.398  0.0704  0.2723 -0.4230
87920NA      NA81085   9.582  13.506  14.055 -0.1533  0.4875  0.2423
87921NA      NA81086   6.100   1.018   2.067 -0.4161 -0.4692  0.0107
87922NA      NA81087   8.004   7.025  11.895 -0.0929  0.1290 -0.1892
87923NA      NA81088   5.166   1.836   6.529  0.1841  0.5460  0.0065
87924NA      NA81089   0.380   2.293   9.744  0.2809  0.4600 -0.0141
87925NA      NA81090   5.888   3.013   8.857 -0.0503 -0.1515  0.1761
87926NA      NA81091  13.208  10.587  11.741  0.3593 -0.6124  0.7016
87927NA      NA81092   1.707   7.820  12.520  0.0508 -0.3758 -0.0383
87928NA      NA81093  10.761   2.656  11.330 -0.1302 -0.5930  0.2673
87929NA      NA81094  13.007  10.126   2.347 -0.4424 -0.5990  0.2863
87930NA      NA81095  10.474  10.145   9.910 -0.7036  0.2145 -0.2199
87931NA      NA81096  11.724   6.703  10.239 -0.0095  0.2029  0.5878
87932NA      NA81097   5.755  10.774   3.261 -0.1602  0.3586  0.4373
87933NA      NA81098   8.297  11.060   4.694 -0.1438  0.5669 -0.4589
87934NA      NA81099   4.301   9.552  10.709 -0.0445 -0.1608 -0.1907
87935NA      NA81100   7.131  12.009   0.459 -0.0828  0.3006  0.6332
87936NA      NA81101   7.980   9.190  12.949 -0.2758  0.4416 -0.0821
87937NA      NA81102   9.410  12.431  10.807  0.4171  0.1496 -0.1885
87938NA      NA81103   0.635   2.764   3.000  0.5873  0.8243  0.0298
87939NA      NA81104   4.665   1.085   8.980  0.0108  0.5803  0.3781
87940NA      NA81105  12.619   1.515   1.853  0.2748  0.4661 -0.3640
87941NA      NA81106   8.129  12.971   1.359 -0.3355 -0.0256  0.0730
87942NA      NA81107  14.060   6.049   5.689  0.0121  0.2404 -0.0129
87943NA      NA81108  12.892  10.851   5.544  0.2481 -0.7010  0.9174
87944NA      NA81109   1.824   3.637  13.301 -0.7885  0.0835 -0.3018
87945NA      NA81110   0.668  11.362   0.433 -0.6116 -0.0401  0.1196
87946NA      NA81111   7.084   2.431   2.547 -0.0514 -0.3129  0.0714
87947NA      NA81112  12.711   7.556   3.295 -0.0131  0.1110  0.2359
87948NA      NA81113   9.935   6.898   0.485  0.3222 -0.4267  0.8754
87949NA      NA81114   0.185  13.955   1.896  0.4854 -0.1267 -0.4607
87950NA      NA81115  13.173   4.345   4.069  0.0891 -0.0564  0.1972
87951NA      NA81116   3.267   0.778   1.258  0.2554 -0.2017  0.1528
87952NA      NA81117   5.746   7.217   0.950 -0.5331 -0.1390 -0.4612
87953NA      NA81118  13.472   1.791   2.423 -0.6898 -0.1963  0.1161
87954NA      NA81119   8.409   0.391   4.944  0.2753 -0.3128  0.5913
87955NA      NA81120   3.273   3.267   4.122 -0.1307  0.1559 -0.1229
87956NA      NA81121  12.526   0.842   5.796  0.2510 -0.2330  0.4004
87957NA      NA81122   4.274   3.328  12.023 -1.1823  0.1384  0.5811
87958NA      NA81123   8.077  13.908   1.209  0.0478  0.3092 -0.1684
87959NA      NA81124   8.214   4.607  10.991  0.2444 -0.1087  0.2847
87960NA      NA81125   9.146   6.376  13.519 -0.4582 -0.5198  0.2285
87961NA      NA81126   6.513   3.942  13.534 -0.1174 -0.4796  0.1625
87962NA      NA81127   3.487   0.199  10.556 -0.5793  0.3617  0.0747
87963NA      NA81128   0.715   3.560   5.909 -0.3499  0.6524 -0.0179
87964NA      NA81129  11.635   6.674   8.351  0.2374 -0.0936 -0.3240
87965NA      NA81130   4.624  10.171  13.643 -0.2858 -0.0360 -0.9211
87966NA      NA81131   8.526  13.795   8.288 -0.4089  0.2371 -0.1317
87967NA      NA81132   8.837  13.239   3.598  0.2923 -0.2474  0.5637
87968NA      NA81133   9.187   2.232   6.523 -0.1669 -0.0651  0.0911
87969NA      NA81134   9.772  10.073   7.914  0.2547  0.0257 -0.0279
87970NA      NA81135  12.557  11.024  11.097  0.1568  0.0872 -0.3079
87971NA      NA81136   9.589  11.560   3.991 -0.3129 -0.0167  0.3095
87972NA      NA81137   0.796   4.857   9.322  0.7746 -0.6581  0.7995
87973NA      NA81138   1.033  12.259   5.224 -0.0643  0.5019  0.0718
87974NA      NA81139  13.410   2.524   9.688 -0.2434 -0.1163 -0.5936
87975NA      NA81140   2.335   8.946   4.215 -0.1972  0.3760  0.5500
87976NA      NA81141   5.023   1.756   4.134  0.0534  0.2243  0.2020
87977NA      NA81142   7.280   7.146  12.553 -0.2966 -0.0641 -0.0100
87978NA      NA81143  10.582   3.812   5.886  0.1733 -0.1758 -0.0476
87979NA      NA81144   3.163   7.893   1.369  0.0141  0.1735  0.1124
87980NA      NA81145  12.257   0.533   0.027 -0.2509 -0.7414 -0.3790
87981NA      NA81146  12.735   5.011   3.594 -0.2269 -0.1809 -0.5897
87982NA      NA81147   6.630   2.327   5.307  0.0856  0.2227 -0.1006
87983NA      NA81148  12.553  10.867   7.075  0.3297 -0.3621  0.4855
87984NA      NA81149   7.477   6.828   5.211 -0.1529  0.3557 -0.0891
87985NA      NA81150   0.148   9.309   6.292  0.4697 -0.1874  0.0411
87986NA      NA81151  13.580   1.941  13.500 -0.1226  0.1517  0.0865
87987NA      NA81152  12.195   7.939   8.970 -0.5794  0.3021 -0.0209
87988NA      NA81153   6.167  10.608   7.524  0.1885  0.0861 -0.1887
87989NA      NA81154   1.323  12.077  13.875  0.1128 -0.3993  0.4513
87990NA      NA81155   9.151   9.009  13.500  0.3393 -0.5668 -0.0888
87991NA      NA81156   6.445   4.911  12.590  0.2256  0.3519 -0.5709
87992NA      NA81157   1.036   0.879  13.857  0.4922  0.2540  0.0399
87993NA      NA81158   2.595   0.817   3.867 -0.3825  0.1723  0.1045
87994NA      NA81159   4.023   1.814   6.197 -0.1791  0.1558  0.0023
87995NA      NA81160  13.501  11.785   6.782  0.2221 -0.0281  0.4999
87996NA      NA81161   5.724   8.759  12.383  0.0848  0.1074  0.1129
87997NA      NA81162   5.516   0.504   3.853  0.0872  0.1594 -0.5682
87998NA      NA81163  14.049   8.640  12.982 -0.2033  0.0564 -0.1898
87999NA      NA81164   1.571  11.236   3.371  0.5640 -0.5947  0.5697
88000NA      NA81165   0.919   6.619  12.977 -0.1660  0.3618 -0.1412
88001NA      NA81166   5.914  10.625  11.684  0.5766 -0.3832  0.0199
88002NA      NA81167   2.337   8.329  10.665 -0.1315  0.0109  0.1127
88003NA      NA81168  14.030  12.716   9.331 -0.3641  0.2239 -0.1309
88004NA      NA81169   2.176  10.485   8.944  0.3071  0.1372  0.2966
88005NA      NA81170   3.991   0.467   4.049 -0.3456 -0.2044 -0.3363
88006NA      NA81171   6.652  10.587   5.581 -0.1565 -0.4083  0.2092
88007NA      NA81172   6.685   6.208   0.081  0.1962  0.5944  0.1812
88008NA      NA81173   9.710   9.349   2.231  0.2627 -0.3814  0.1924
88009NA      NA81174  13.216   6.173   4.529  0.0329  0.0659 -0.1821
88010NA      NA81175  11.610   9.001  10.343  0.1035 -0.6835 -0.0110
88011NA      NA81176  10.169   1.591  10.757  0.2188 -0.1468 -0.6236
88012NA      NA81177   5.323  13.679  12.519  0.6369 -0.1873  0.2190
88013NA      NA81178   7.518   9.699  11.476  0.3979  0.3472 -0.0921
88014NA      NA81179   9.679   3.908   4.061  0.2810  0.6847  0.3938
88015NA      NA81180  10.835   2.324  10.663 -0.4676 -0.2378 -0.7566
88016NA      NA81181   7.052  10.909  11.462  0.1992  0.0723  0.0588
88017NA      NA81182   4.868   4.696   8.643 -0.0392 -0.1807 -0.1379
88018NA      NA81183   5.717   6.132   3.944  0.5288  0.0197 -0.3689
88019NA      NA81184   1.399   3.347   7.305  0.4458  0.0987 -0.0757
88020NA      NA81185   9.269   5.101   9.503 -0.0746  0.1434 -0.3320
88021NA      NA81186  11.753   4.517   3.648  0.3680  0.4269  0.6404
88022NA      NA81187   0.640   0.098  11.691  0.4655  0.0998  0.2308
88023NA      NA81188   2.416  12.954   8.020 -0.0607 -0.0703 -0.0805
88024NA      NA81189  10.548   6.436   5.227 -0.4769  0.0653  0.2766
88025NA      NA81190  13.694  13.523   5.518  0.3837  0.3548 -0.0236
88026NA      NA81191   1.588   2.777   8.448 -0.5527  0.0671 -0.3541
88027NA      NA81192   8.017   4.648   1.396 -0.0608 -0.7225 -0.6266
88028NA      NA81193   6.293   4.247   9.199 -0.0797  0.1184  0.5583
88029NA      NA81194  11.891   6.127   1.568  0.1036 -0.4091  0.0147
88030NA      NA81195  12.979   4.893  12.783  0.2303 -0.5194  0.5521
88031NA      NA81196   0.934   3.873   0.563  0.2526 -0.1562 -0.1213
88032NA      NA81197   9.617   4.260   1.342 -0.3242 -0.2782 -0.1440
88033NA      NA81198   8.509   9.266   7.111  0.2369 -0.0620  0.4739
88034NA      NA81199  13.602  10.257   8.642  0.3379 -0.4990 -0.0486
88035NA      NA81200   1.287  10.073   9.113  0.2792  0.1088 -0.0195
88036NA      NA81201  13.107  13.185   7.616 -0.1117 -0.0876  0.2334
88037CL      CL81202  11.381  10.849  11.568 -0.2426 -0.2685 -0.2318
88038CL      CL81203   7.569   9.848  13.339 -0.0207 -0.1158 -0.4742
88039CL      CL81204  13.599  13.360   3.037 -0.0901 -0.0757  0.2101
88040CL      CL81205  12.106   9.333   8.836 -0.0962  0.0338  0.1997
88041CL      CL81206   5.694   4.809   1.017  0.5591 -0.1803  0.1141
88042CL      CL81207   4.857   9.009   2.446 -0.0389 -0.1576  0.1992
88043CL      CL81208  12.708  12.261   1.357  0.1198 -0.1519  0.2850
88044CL      CL81209   6.652   7.080   1.689 -0.3032  0.1743  0.0028
88045CL      CL81210   6.523  13.509   5.366 -0.3141  0.3921  0.0738
88046CL      CL81211   5.845   9.558   3.581 -0.2642 -0.0164  0.4110
88047CL      CL81212   4.440   6.909  10.821  0.3030  0.0586  0.4748
88048CL      CL81213   2.413  10.120  11.519  0.3316  0.0201  0.2868
88049CL      CL81214   7.642  13.430   3.016 -0.2779 -0.0210 -0.3213
88050CL      CL81215   4.095  11.873   4.463 -0.4187 -0.3443 -0.4339
88051CL      CL81216   9.765  11.424   5.878  0.3390  0.1108  0.6209
88052CL      CL81217   3.487   2.531   0.058 -0.0858 -0.1557  0.1408
88053CL      CL81218   3.109   9.933  10.826  0.4446  0.3854 -0.0035
88054CL      CL81219  13.946   8.918  10.762  0.1873 -0.0515  0.2580
88055CL      CL81220   2.171   3.039  10.894 -0.0872  0.1484 -0.3931
88056CL      CL81221   9.866  13.571   0.443 -0.2844  0.2612  0.5049
88057CL      CL81222   1.892   5.553   6.792  0.2962 -0.2181  0.0322
88058CL      CL81223  13.289   2.552   8.093 -0.2200 -0.3398  0.2845
88059CL      CL81224   4.074   4.567   7.071 -0.2774  0.0378 -0.1999
88060CL      CL81225   5.342  10.252   1.127 -0.0356 -0.2370 -0.1838
88061CL      CL81226   4.971   4.848   2.048 -0.2402  0.2715 -0.1289
88062CL      CL81227  13.489   7.469   8.286 -0.1290  0.4594  0.6648
88063CL      CL81228   0.205   6.811  12.758  0.2618  0.0661 -0.4803
88064CL      CL81229   9.750  13.466  10.298  0.1020 -0.0356  0.3917
88065CL      CL81230   6.046   0.324   0.497  0.3904  0.3676  0.2429
88066CL      CL81231   0.157   0.473   5.066 -0.1524  0.0175 -0.3909
88067CL      CL81232  12.311   8.753   1.611 -0.1603 -0.0093 -0.0245
88068CL      CL81233   0.758   5.637   2.472  0.0643 -0.0989  0.4491
88069CL      CL81234   2.641  13.627   2.882  0.0094  0.5265  0.0240
88070CL      CL81235   2.567   8.441   0.628  0.1852 -0.2565 -0.0111
88071CL      CL81236   0.039   0.295  11.866 -0.1249 -0.2153 -0.0983
88072CL      CL81237   5.617  12.678   1.311  0.1642  0.1326  0.1102
88073CL      CL81238   9.408  13.480   6.239 -0.1049  0.0362 -0.4194
88074CL      CL81239   9.868   7.279  14.008  0.0764 -0.1774  0.2023
88075CL      CL81240  12.162  12.652   9.169  0.1425  0.4467 -0.0275
88076CL      CL81241  11.101   3.117   4.320  0.1059 -0.3043 -0.5076
88077CL      CL81242  14.060  12.911   9.177  0.0376 -0.0985 -0.0149
88078CL      CL81243   6.727   2.399   5.093  0.0410 -0.4015  0.5423
88079CL      CL81244  13.288   2.122   4.801 -0.1280  0.3005  0.4022
88080CL      CL81245   3.783   0.637   4.576  0.2514 -0.0098  0.1184
88081CL      CL81246  13.404   6.663   1.294  0.0863 -0.1083  0.2338
88082CL      CL81247   4.830  10.574  11.584  0.2433  0.0039  0.0030
88083CL      CL81248   3.099  10.513  13.007  0.0050 -0.2547 -0.0996
88084CL      CL81249   1.505   8.012   5.776 -0.0140  0.6855  0.1702
88085CL      CL81250  10.400   0.755  10.921 -0.1625 -0.0238  0.0183
88086CL      CL81251   4.404  13.423   5.035  0.0553 -0.2720  0.2690
88087CL      CL81252   1.319   8.114  12.036  0.2702  0.1100 -0.2149
88088CL      CL81253  12.850  13.562   7.991 -0.0900  0.0399  0.5668
88089CL      CL81254   9.274  11.635  10.628 -0.4671  0.1361 -0.0384
88090CL      CL81255  11.776   4.617   2.385 -0.4073  0.1918  0.0921
88091CL      CL81256   9.011   8.819  12.837 -0.1948 -0.2131 -0.3630
88092CL      CL81257   6.213   9.566  12.084  0.0029  0.1109 -0.5131
88093CL      CL81258   3.359   8.548   2.982  0.1429 -0.1016 -0.1560
88094CL      CL81259   7.926  13.499   3.297 -0.0021  0.0653 -0.3697
88095CL      CL81260   7.359   9.923   6.072 -0.0943 -0.2588 -0.1393
88096CL      CL81261   7.136   4.415   4.723 -0.0795 -0.3616 -0.0416
88097CL      CL81262  12.059   3.510  13.686  0.0794 -0.2231 -0.1482
88098CL      CL81263  12.319   5.340   7.260  0.5226  0.0054 -0.0239
88099CL      CL81264   2.885  12.454   1.546 -0.2066 -0.2130 -0.0578
88100CL      CL81265   6.998   1.602   7.297 -0.2892  0.4328 -0.0743
88101CL      CL81266   4.050   3.837   3.791  0.2459  0.2129 -0.0570
88102CL      CL81267   6.947  13.407   2.032 -0.1312 -0.0729  0.1577
88103CL      CL81268   4.970   0.831   3.609  0.1396  0.0999 -0.0519
88104CL      CL81269  13.726  11.836   0.710  0.0458 -0.3027  0.1014
88105CL      CL81270   7.929   1.241   6.150  0.0989 -0.0515  0.0689
88106CL      CL81271   3.327   5.926   1.109  0.0695 -0.0026  0.1067
88107CL      CL81272   0.436  13.508   7.456  0.2257  0.0174 -0.0968
88108CL      CL81273   3.482   8.073   6.963 -0.0429  0.2534  0.0941
88109CL      CL81274  11.809  12.371   9.475  0.3005 -0.0404 -0.1870
88110CL      CL81275  10.934  13.273  10.431 -0.2943 -0.1558 -0.1244
88111CL      CL81276  13.142   0.086  12.317 -0.4199  0.3878  0.5076
88112CL      CL81277   5.893   2.157   8.695 -0.5051 -0.4093 -0.1656
88113CL      CL81278   2.297  12.908   0.885 -0.3816  0.3626 -0.4193
88114CL      CL81279   2.350   5.090  13.888 -0.0694 -0.7491 -0.3470
88115CL      CL81280   6.326   2.306  13.514  0.1910  0.2628  0.2877
88116CL      CL81281   3.593   1.430   3.439  0.2288 -0.4778  0.2249
88117CL      CL81282   6.174   5.220   5.486 -0.2483 -0.3435 -0.1096
88118CL      CL81283   3.625   6.957   9.968  0.1394 -0.5671  0.2728
88119CL      CL81284   1.227   7.579   7.030  0.5200 -0.3490  0.1493
88120CL      CL81285  13.279   5.655   4.813  0.3779  0.0046  0.2792
88121CL      CL81286  13.872   3.495  11.105 -0.5578 -0.2536  0.5927
88122CL      CL81287   8.689  10.488  12.365  0.0759  0.1887  0.3628
88123CL      CL81288   5.517  13.980   0.921 -0.1607 -0.4268  0.5434
88124CL      CL81289   5.061   7.719   5.867  0.6934 -0.1511 -0.1153
88125CL      CL81290  13.791   7.653   2.740  0.2119  0.7007  0.3177
88126CL      CL81291   5.864   2.814   9.528  0.0953  0.1882 -0.0011
88127CL      CL81292   9.688   8.401   0.972  0.2584  0.1848  0.0630
88128CL      CL81293  13.753   2.640  11.614 -0.2097  0.0417 -0.3044
88129CL      CL81294   4.752  11.551   8.749  0.2184  0.0074 -0.1447
88130CL      CL81295  12.419   8.791  10.482  0.1996 -0.1926  0.3117
88131CL      CL81296  13.240   0.894   1.358 -0.1852  0.1257  0.0189
88132CL      CL81297   3.290   9.403   7.245  0.6310 -0.3475  0.1009
88133CL      CL81298   2.698   3.238   7.473  0.1013 -0.2469 -0.1997
88134CL      CL81299  12.428  10.341   5.629  0.4234  0.4098  0.1558
88135CL      CL81300   1.493   7.743   9.398 -0.1062 -0.1289 -0.1375
88136CL      CL81301   1.687  11.630   1.704  0.1806 -0.1398 -0.3048
88137CL      CL81302   3.287   3.106   0.978  0.0532 -0.2577 -0.0543
88138CL      CL81303  12.235  11.268  11.800  0.2403  0.2974  0.0480
88139CL      CL81304   1.604   7.378   0.795 -0.3080 -0.1914  0.2137
88140CL      CL81305   9.789   3.441   3.449  0.0385 -0.4397  0.1212
88141CL      CL81306  10.470  10.111   3.392  0.0095  0.0941  0.3795
88142CL      CL81307   8.898  10.919   2.653 -0.4232 -0.0039  0.3118
88143CL      CL81308   5.693  11.585   9.603 -0.0656  0.5527 -0.1352
88144CL      CL81309   5.842   4.125  11.679  0.1393  0.1566  0.0645
88145CL      CL81310   2.756   2.683   2.030  0.2624 -0.2960 -0.0448
88146CL      CL81311   6.088  11.076  10.810  0.0329 -0.0056  0.1031
88147CL      CL81312   9.724   1.401   0.814  0.1264 -0.2917  0.3729
88148CL      CL81313   6.916   7.611   3.578 -0.2749  0.3608  0.0899
88149CL      CL81314   9.211  13.477   3.559 -0.7221 -0.1178  0.7345
88150CL      CL81315   6.905   9.708   4.579  0.0498 -0.1039  0.4132
88151CL      CL81316   9.967   6.620   1.615  0.1120 -0.0823 -0.1887
88152CL      CL81317   0.925  12.516   4.129  0.0326 -0.6145 -0.2931
88153CL      CL81318   0.915   0.275  11.362  0.3698  0.2245 -0.0362
88154CL      CL81319  13.069   6.029   9.168  0.0523  0.1719  0.1977
88155CL      CL81320  10.563   2.222   9.255 -0.1232 -0.1104  0.4432
88156CL      CL81321   2.380   0.454   8.151 -0.0860 -0.2311  0.2475
88157CL      CL81322   2.372   0.377  11.465 -0.1565  0.2010 -0.2364
88158CL      CL81323   4.633   5.744   2.843 -0.2302 -0.2780  0.0628
88159CL      CL81324   0.788  11.391   8.657 -0.2000 -0.0824  0.5234
88160CL      CL81325  14.058   3.777   9.280  0.3888  0.3443  0.3571
88161CL      CL81326   8.390   7.359   0.761  0.1754  0.2146  0.3805
88162CL      CL81327  13.129   6.607   4.053  0.2651  0.3810  0.0871
88163CL      CL81328  11.255   8.834   4.802  0.2560 -0.0298 -0.0455
88164CL      CL81329   6.513  12.719   3.954 -0.2060 -0.3839  0.1642
88165CL      CL81330  13.272   3.415   3.990  0.4741  0.0278 -0.3929
88166CL      CL81331   2.061   4.241  13.076 -0.0824  0.1311  0.3653
88167CL      CL81332   3.819   6.510   6.940  0.0723 -0.1032  0.0688
88168CL      CL81333  14.090  14.050  13.688  0.1924  0.4895  0.0699
88169CL      CL81334   6.829  11.320   4.879  0.1648  0.1903  0.2126
88170CL      CL81335   5.421   2.989   8.760  0.3798 -0.0906 -0.5817
88171CL      CL81336   8.653   3.437   1.025 -0.1006 -0.0195 -0.1915
88172CL      CL81337   1.215  13.494  12.476  0.1805  0.2628 -0.0519
88173CL      CL81338  13.536   4.442   7.740  0.1591 -0.0417  0.4113
88174CL      CL81339  11.193   0.055   2.564 -0.0344  0.0474  0.3672
88175CL      CL81340   2.818   4.640  11.496  0.6205 -0.2138  0.1849
88176CL      CL81341   2.796  11.267   6.465  0.5195  0.3010  0.1361
88177CL      CL81342   4.862  12.311  11.837 -0.5050 -0.3101  0.5131
88178CL      CL81343   2.726   8.250   2.722  0.3158  0.2505 -0.0803
88179CL      CL81344   2.564   2.049   9.357 -0.0810 -0.1745  0.0088
88180CL      CL81345   0.206   2.691   5.304  0.2781 -0.3861  0.0973
88181CL      CL81346   9.869  11.038   0.092 -0.1083  0.0173 -0.2199
88182CL      CL81347   3.239   7.141  10.837  0.2554 -0.2324  0.2323
88183CL      CL81348   6.645  10.043   6.358  0.1015 -0.0993 -0.1094
88184CL      CL81349  11.214   1.232   5.765  0.1961 -0.3424 -0.3006
88185CL      CL81350   8.470  11.792   3.247 -0.1406  0.5144  0.1583
88186CL      CL81351   0.678  12.591   9.005  0.1917 -0.1543  0.2802
88187CL      CL81352   0.656  11.925   5.277 -0.5015  0.0716 -0.5201
88188CL      CL81353   6.671   4.046   7.894 -0.0673 -0.1961  0.3643
88189CL      CL81354   5.805   1.094   0.746  0.2275 -0.1011 -0.6475
88190CL      CL81355   0.793   4.294   0.551  0.2558  0.2283 -0.0465
88191CL      CL81356   5.662  10.675   6.104 -0.4893 -0.1469 -0.1985
88192CL      CL81357  11.318  11.475   8.486 -0.2045  0.0577 -0.1309
88193CL      CL81358   8.963   1.928   6.740 -0.0042 -0.0883 -0.0213
88194CL      CL81359   0.975   9.694  11.092 -0.2638  0.1119 -0.2420
88195CL      CL81360   3.266   1.513  11.763  0.0418 -0.2705 -0.0462
88196CL      CL81361   9.735   0.832   5.635 -0.0782  0.0671  0.1477
88197CL      CL81362   4.172   4.729   9.308  0.0844  0.1999  0.4349
88198CL      CL81363  11.502   1.629   1.938  0.2107  0.1979  0.2251
88199CL      CL81364   8.906  12.424   1.594 -0.0621 -0.2665  0.1021
88200CL      CL81365   4.286   1.147   6.304 -0.2121  0.3829  0.2521
88201CL      CL81366  11.736  13.104   0.433 -0.1321 -0.2542  0.2195
88202CL      CL81367   9.109   4.070  11.023  0.2293  0.3653  0.0825
88203CL      CL81368   1.514   1.424  13.437 -0.1402  0.0457  0.1121
88204CL      CL81369   5.300   5.769   0.162 -0.1655 -0.3857 -0.4002
88205CL      CL81370   5.985   5.505  12.447  0.2418  0.3291 -0.0248
88206CL      CL81371   3.210   3.243  13.243 -0.2772 -0.2562  0.3872
88207CL      CL81372   4.396   3.883   8.477 -0.1398  0.4696  0.1260
88208CL      CL81373  11.306   5.148   4.449 -0.0977  0.2144  0.2249
88209CL      CL81374  13.676  11.266   5.600 -0.2218  0.0013  0.0533
88210CL      CL81375  13.721   6.609   5.667  0.0364 -0.1180  0.1265
88211CL      CL81376   0.503   2.566   2.965 -0.5064 -0.0490  0.1887
88212CL      CL81377   4.691   6.891  13.518  0.1465 -0.2721 -0.1428
88213CL      CL81378  10.457   3.318   3.077 -0.2631 -0.0365 -0.1978
88214CL      CL81379   1.054   4.170   3.586  0.1247  0.0492 -0.0126
88215CL      CL81380   4.191  12.693   7.258 -0.1796  0.4074  0.0460
88216CL      CL81381   2.330   8.177  12.594  0.0032  0.1801  0.0240
88217CL      CL81382  10.033   5.107  12.442  0.3658 -0.0535  0.2750
88218CL      CL81383  11.242  10.236   7.743  0.2264 -0.0038 -0.0627
88219CL      CL81384   7.283   0.184  12.322 -0.1540 -0.1326  0.2367
88220CL      CL81385   7.888   4.724  13.479  0.0585  0.3912  0.0289
88221CL      CL81386  11.753   2.570   7.442  0.4283  0.0270 -0.0070
88222CL      CL81387  10.388   3.106   0.994 -0.1867  0.3648 -0.5332
88223CL      CL81388   1.867  12.032  12.952  0.1529 -0.1536  0.0942
88224CL      CL81389  12.481   2.287   2.713  0.2605  0.2403 -0.0375
88225CL      CL81390   4.981   9.555   4.520  0.1474 -0.1875 -0.3261
88226CL      CL81391   0.262  11.705  13.772  0.0138 -0.1324 -0.1609
88227CL      CL81392  13.024   6.656   9.522  0.3311  0.1458 -0.1261
88228CL      CL81393   4.058   0.123  11.171  0.0347  0.0675 -0.2915
88229CL      CL81394   2.147   3.649   8.732  0.3007  0.1781  0.4832
88230CL      CL81395   8.614   8.615   0.865  0.2662  0.5851 -0.3359
88231CL      CL81396   8.664   3.814   5.343  0.2000  0.3261  0.4040
88232CL      CL81397  12.150   1.225   8.679 -0.5207  0.1522  0.0140
88233CL      CL81398   0.887  12.548   2.054 -0.0237  0.0476 -0.1162
88234CL      CL81399  10.553   4.851   5.932 -0.3812  0.2860 -0.2058
88235CL      CL81400   4.142  13.388   9.671 -0.0549  0.0118  0.2080
88236CL      CL81401   3.611  10.613  11.009  0.1347 -0.2971 -0.4538
88237CL      CL81402   5.912   6.298  12.348  0.0030  0.1416 -0.5029
88238CL      CL81403  12.252   7.591   7.054  0.4683 -0.0030  0.3003
88239CL      CL81404  12.482   9.959  11.610  0.2197 -0.3359 -0.2109
88240CL      CL81405   8.444   1.787   0.811 -0.2881  0.1755 -0.0271
88241CL      CL81406   9.933   3.950   7.678 -0.4398  0.1629 -0.0101
88242CL      CL81407  11.898   3.151   7.922  0.0254 -0.1634  0.1983
88243CL      CL81408   1.185   0.753   0.492  0.4677  0.0282 -0.0301
88244CL      CL81409   0.731   5.484  10.543  0.1228 -0.2764  0.1115
88245CL      CL81410   2.216   2.518   1.542 -0.2574  0.4806  0.2307
88246CL      CL81411   6.436   3.187   1.718 -0.1293 -0.0693  0.1200
88247CL      CL81412  12.683   8.934   3.628  0.1972 -0.1774  0.4079
88248CL      CL81413   6.118  10.584   3.012 -0.2678 -0.2090 -0.1843
88249CL      CL81414  13.054  12.077  10.812 -0.2284 -0.0591 -0.0535
88250CL      CL81415   1.090   6.132  13.218  0.2214 -0.0444  0.1238
88251CL      CL81416   3.510   6.678   8.454  0.2666  0.0982 -0.2097
88252CL      CL81417  13.589   7.905   0.462 -0.2352 -0.1085  0.1002
88253CL      CL81418  12.563   4.472   0.709 -0.3357 -0.4775 -0.0215
88254CL      CL81419  11.319  13.931  11.833 -0.0808 -0.3295  0.1578
88255CL      CL81420  11.686   2.367  11.471 -0.3272  0.1677 -0.4894
88256CL      CL81421   0.658   3.259   1.897  0.0711 -0.3766 -0.3930
88257CL      CL81422  12.185   7.533  12.864 -0.0620 -0.2389 -0.0207
88258CL      CL81423   6.922   3.241   5.663  0.4693  0.0544 -0.0881
88259CL      CL81424   1.896  12.862   3.353 -0.5001  0.1337 -0.0746
88260CL      CL81425   6.282  14.043   1.177 -0.0925 -0.0981 -0.0367
88261CL      CL81426  12.002   2.086   4.512 -0.2063  0.1317 -0.4288
88262CL      CL81427   2.010  11.685   4.963 -0.1822  0.1371  0.3252
88263CL      CL81428   2.185   9.293   9.883  0.0029 -0.2378 -0.2841
88264CL      CL81429   1.002  10.099   5.508 -0.0784  0.5069 -0.1594
88265CL      CL81430  10.133   2.981  12.719  0.2124  0.1151 -0.4521
88266CL      CL81431   1.894   9.361  12.981  0.1028  0.2633  0.1332
88267CL      CL81432  11.236  10.624   8.414  0.2880 -0.2707 -0.1240
88268CL      CL81433   6.766   6.244  11.286 -0.7062 -0.1201 -0.1055
88269CL      CL81434   8.334   6.018  12.325  0.1309  0.0334 -0.2837
88270CL      CL81435   1.381   5.227  11.615  0.0760 -0.3188  0.2274
88271CL      CL81436  11.627  11.679   0.939 -0.2017 -0.1620  0.1299
88272CL      CL81437   8.951   8.136   0.338  0.1697 -0.1614  0.2963
88273CL      CL81438   5.836  12.477  11.458 -0.1469  0.0662  0.0144
88274CL      CL81439   3.868  12.051   0.574 -0.5040  0.2774 -0.1106
88275CL      CL81440   4.944   1.700   6.878  0.0763  0.1298  0.5118
88276CL      CL81441   3.046  12.498   8.230 -0.4112 -0.0395  0.0093
88277CL      CL81442   9.174   2.999   6.328 -0.3047  0.0333 -0.2166
88278CL      CL81443   2.574   7.774  13.614  0.1154 -0.1882 -0.0625
88279CL      CL81444   8.837  10.616   9.353 -0.1778  0.3880  0.3157
88280CL      CL81445   5.724   0.019   9.459 -0.3789 -0.3456 -0.1301
88281CL      CL81446   0.631   1.512   5.721  0.0096 -0.0725  0.3085
88282CL      CL81447   4.491   2.520   6.242 -0.3444  0.3569 -0.3158
88283CL      CL81448   7.558   2.312   3.113 -0.2173 -0.1406 -0.1686
88284CL      CL81449  10.715   3.616   6.583  0.1352 -0.2954 -0.1429
88285CL      CL81450   8.116   0.676   5.480  0.0933 -0.0168  0.0293
88286CL      CL81451   7.707  11.265   8.343  0.1670  0.2637 -0.6646
88287CL      CL81452   8.729  11.760   7.357  0.4019 -0.2298  0.2300
88288CL      CL81453   0.855   4.300  13.852  0.2813 -0.4385 -0.3728
88289CL      CL81454  13.779  10.682   1.741 -0.0272  0.6063  0.0211
88290CL      CL81455  12.744   2.061   9.674  0.1676 -0.0042  0.3408
88291CL      CL81456   2.199   9.397  10.411 -0.3394 -0.4415 -0.4530
88292CL      CL81457   8.020  11.254  11.661 -0.3465  0.1134  0.0620
88293CL      CL81458   9.407   1.288   0.373 -0.0213 -0.0775  0.0656
88294CL      CL81459   9.550   8.955  12.203  0.0149 -0.0483  0.1638
88295CL      CL81460   0.690   8.122   9.529 -0.0827  0.1850 -0.2504
  14.09270  14.09270  14.09270
